# vtk DataFile Version 3.0
FlowField
ASCII
DATASET STRUCTURED_GRID
DIMENSIONS 103 13 1 
POINTS 1339 double
0 0 0
0.3 0 0
0.6 0 0
0.9 0 0
1.2 0 0
1.5 0 0
1.8 0 0
2.1 0 0
2.4 0 0
2.7 0 0
3 0 0
3.3 0 0
3.6 0 0
3.9 0 0
4.2 0 0
4.5 0 0
4.8 0 0
5.1 0 0
5.4 0 0
5.7 0 0
6 0 0
6.3 0 0
6.6 0 0
6.9 0 0
7.2 0 0
7.5 0 0
7.8 0 0
8.1 0 0
8.4 0 0
8.7 0 0
9 0 0
9.3 0 0
9.6 0 0
9.9 0 0
10.2 0 0
10.5 0 0
10.8 0 0
11.1 0 0
11.4 0 0
11.7 0 0
12 0 0
12.3 0 0
12.6 0 0
12.9 0 0
13.2 0 0
13.5 0 0
13.8 0 0
14.1 0 0
14.4 0 0
14.7 0 0
15 0 0
15.3 0 0
15.6 0 0
15.9 0 0
16.2 0 0
16.5 0 0
16.8 0 0
17.1 0 0
17.4 0 0
17.7 0 0
18 0 0
18.3 0 0
18.6 0 0
18.9 0 0
19.2 0 0
19.5 0 0
19.8 0 0
20.1 0 0
20.4 0 0
20.7 0 0
21 0 0
21.3 0 0
21.6 0 0
21.9 0 0
22.2 0 0
22.5 0 0
22.8 0 0
23.1 0 0
23.4 0 0
23.7 0 0
24 0 0
24.3 0 0
24.6 0 0
24.9 0 0
25.2 0 0
25.5 0 0
25.8 0 0
26.1 0 0
26.4 0 0
26.7 0 0
27 0 0
27.3 0 0
27.6 0 0
27.9 0 0
28.2 0 0
28.5 0 0
28.8 0 0
29.1 0 0
29.4 0 0
29.7 0 0
30 0 0
30.3 0 0
30.6 0 0
0 0.1 0
0.3 0.1 0
0.6 0.1 0
0.9 0.1 0
1.2 0.1 0
1.5 0.1 0
1.8 0.1 0
2.1 0.1 0
2.4 0.1 0
2.7 0.1 0
3 0.1 0
3.3 0.1 0
3.6 0.1 0
3.9 0.1 0
4.2 0.1 0
4.5 0.1 0
4.8 0.1 0
5.1 0.1 0
5.4 0.1 0
5.7 0.1 0
6 0.1 0
6.3 0.1 0
6.6 0.1 0
6.9 0.1 0
7.2 0.1 0
7.5 0.1 0
7.8 0.1 0
8.1 0.1 0
8.4 0.1 0
8.7 0.1 0
9 0.1 0
9.3 0.1 0
9.6 0.1 0
9.9 0.1 0
10.2 0.1 0
10.5 0.1 0
10.8 0.1 0
11.1 0.1 0
11.4 0.1 0
11.7 0.1 0
12 0.1 0
12.3 0.1 0
12.6 0.1 0
12.9 0.1 0
13.2 0.1 0
13.5 0.1 0
13.8 0.1 0
14.1 0.1 0
14.4 0.1 0
14.7 0.1 0
15 0.1 0
15.3 0.1 0
15.6 0.1 0
15.9 0.1 0
16.2 0.1 0
16.5 0.1 0
16.8 0.1 0
17.1 0.1 0
17.4 0.1 0
17.7 0.1 0
18 0.1 0
18.3 0.1 0
18.6 0.1 0
18.9 0.1 0
19.2 0.1 0
19.5 0.1 0
19.8 0.1 0
20.1 0.1 0
20.4 0.1 0
20.7 0.1 0
21 0.1 0
21.3 0.1 0
21.6 0.1 0
21.9 0.1 0
22.2 0.1 0
22.5 0.1 0
22.8 0.1 0
23.1 0.1 0
23.4 0.1 0
23.7 0.1 0
24 0.1 0
24.3 0.1 0
24.6 0.1 0
24.9 0.1 0
25.2 0.1 0
25.5 0.1 0
25.8 0.1 0
26.1 0.1 0
26.4 0.1 0
26.7 0.1 0
27 0.1 0
27.3 0.1 0
27.6 0.1 0
27.9 0.1 0
28.2 0.1 0
28.5 0.1 0
28.8 0.1 0
29.1 0.1 0
29.4 0.1 0
29.7 0.1 0
30 0.1 0
30.3 0.1 0
30.6 0.1 0
0 0.2 0
0.3 0.2 0
0.6 0.2 0
0.9 0.2 0
1.2 0.2 0
1.5 0.2 0
1.8 0.2 0
2.1 0.2 0
2.4 0.2 0
2.7 0.2 0
3 0.2 0
3.3 0.2 0
3.6 0.2 0
3.9 0.2 0
4.2 0.2 0
4.5 0.2 0
4.8 0.2 0
5.1 0.2 0
5.4 0.2 0
5.7 0.2 0
6 0.2 0
6.3 0.2 0
6.6 0.2 0
6.9 0.2 0
7.2 0.2 0
7.5 0.2 0
7.8 0.2 0
8.1 0.2 0
8.4 0.2 0
8.7 0.2 0
9 0.2 0
9.3 0.2 0
9.6 0.2 0
9.9 0.2 0
10.2 0.2 0
10.5 0.2 0
10.8 0.2 0
11.1 0.2 0
11.4 0.2 0
11.7 0.2 0
12 0.2 0
12.3 0.2 0
12.6 0.2 0
12.9 0.2 0
13.2 0.2 0
13.5 0.2 0
13.8 0.2 0
14.1 0.2 0
14.4 0.2 0
14.7 0.2 0
15 0.2 0
15.3 0.2 0
15.6 0.2 0
15.9 0.2 0
16.2 0.2 0
16.5 0.2 0
16.8 0.2 0
17.1 0.2 0
17.4 0.2 0
17.7 0.2 0
18 0.2 0
18.3 0.2 0
18.6 0.2 0
18.9 0.2 0
19.2 0.2 0
19.5 0.2 0
19.8 0.2 0
20.1 0.2 0
20.4 0.2 0
20.7 0.2 0
21 0.2 0
21.3 0.2 0
21.6 0.2 0
21.9 0.2 0
22.2 0.2 0
22.5 0.2 0
22.8 0.2 0
23.1 0.2 0
23.4 0.2 0
23.7 0.2 0
24 0.2 0
24.3 0.2 0
24.6 0.2 0
24.9 0.2 0
25.2 0.2 0
25.5 0.2 0
25.8 0.2 0
26.1 0.2 0
26.4 0.2 0
26.7 0.2 0
27 0.2 0
27.3 0.2 0
27.6 0.2 0
27.9 0.2 0
28.2 0.2 0
28.5 0.2 0
28.8 0.2 0
29.1 0.2 0
29.4 0.2 0
29.7 0.2 0
30 0.2 0
30.3 0.2 0
30.6 0.2 0
0 0.3 0
0.3 0.3 0
0.6 0.3 0
0.9 0.3 0
1.2 0.3 0
1.5 0.3 0
1.8 0.3 0
2.1 0.3 0
2.4 0.3 0
2.7 0.3 0
3 0.3 0
3.3 0.3 0
3.6 0.3 0
3.9 0.3 0
4.2 0.3 0
4.5 0.3 0
4.8 0.3 0
5.1 0.3 0
5.4 0.3 0
5.7 0.3 0
6 0.3 0
6.3 0.3 0
6.6 0.3 0
6.9 0.3 0
7.2 0.3 0
7.5 0.3 0
7.8 0.3 0
8.1 0.3 0
8.4 0.3 0
8.7 0.3 0
9 0.3 0
9.3 0.3 0
9.6 0.3 0
9.9 0.3 0
10.2 0.3 0
10.5 0.3 0
10.8 0.3 0
11.1 0.3 0
11.4 0.3 0
11.7 0.3 0
12 0.3 0
12.3 0.3 0
12.6 0.3 0
12.9 0.3 0
13.2 0.3 0
13.5 0.3 0
13.8 0.3 0
14.1 0.3 0
14.4 0.3 0
14.7 0.3 0
15 0.3 0
15.3 0.3 0
15.6 0.3 0
15.9 0.3 0
16.2 0.3 0
16.5 0.3 0
16.8 0.3 0
17.1 0.3 0
17.4 0.3 0
17.7 0.3 0
18 0.3 0
18.3 0.3 0
18.6 0.3 0
18.9 0.3 0
19.2 0.3 0
19.5 0.3 0
19.8 0.3 0
20.1 0.3 0
20.4 0.3 0
20.7 0.3 0
21 0.3 0
21.3 0.3 0
21.6 0.3 0
21.9 0.3 0
22.2 0.3 0
22.5 0.3 0
22.8 0.3 0
23.1 0.3 0
23.4 0.3 0
23.7 0.3 0
24 0.3 0
24.3 0.3 0
24.6 0.3 0
24.9 0.3 0
25.2 0.3 0
25.5 0.3 0
25.8 0.3 0
26.1 0.3 0
26.4 0.3 0
26.7 0.3 0
27 0.3 0
27.3 0.3 0
27.6 0.3 0
27.9 0.3 0
28.2 0.3 0
28.5 0.3 0
28.8 0.3 0
29.1 0.3 0
29.4 0.3 0
29.7 0.3 0
30 0.3 0
30.3 0.3 0
30.6 0.3 0
0 0.4 0
0.3 0.4 0
0.6 0.4 0
0.9 0.4 0
1.2 0.4 0
1.5 0.4 0
1.8 0.4 0
2.1 0.4 0
2.4 0.4 0
2.7 0.4 0
3 0.4 0
3.3 0.4 0
3.6 0.4 0
3.9 0.4 0
4.2 0.4 0
4.5 0.4 0
4.8 0.4 0
5.1 0.4 0
5.4 0.4 0
5.7 0.4 0
6 0.4 0
6.3 0.4 0
6.6 0.4 0
6.9 0.4 0
7.2 0.4 0
7.5 0.4 0
7.8 0.4 0
8.1 0.4 0
8.4 0.4 0
8.7 0.4 0
9 0.4 0
9.3 0.4 0
9.6 0.4 0
9.9 0.4 0
10.2 0.4 0
10.5 0.4 0
10.8 0.4 0
11.1 0.4 0
11.4 0.4 0
11.7 0.4 0
12 0.4 0
12.3 0.4 0
12.6 0.4 0
12.9 0.4 0
13.2 0.4 0
13.5 0.4 0
13.8 0.4 0
14.1 0.4 0
14.4 0.4 0
14.7 0.4 0
15 0.4 0
15.3 0.4 0
15.6 0.4 0
15.9 0.4 0
16.2 0.4 0
16.5 0.4 0
16.8 0.4 0
17.1 0.4 0
17.4 0.4 0
17.7 0.4 0
18 0.4 0
18.3 0.4 0
18.6 0.4 0
18.9 0.4 0
19.2 0.4 0
19.5 0.4 0
19.8 0.4 0
20.1 0.4 0
20.4 0.4 0
20.7 0.4 0
21 0.4 0
21.3 0.4 0
21.6 0.4 0
21.9 0.4 0
22.2 0.4 0
22.5 0.4 0
22.8 0.4 0
23.1 0.4 0
23.4 0.4 0
23.7 0.4 0
24 0.4 0
24.3 0.4 0
24.6 0.4 0
24.9 0.4 0
25.2 0.4 0
25.5 0.4 0
25.8 0.4 0
26.1 0.4 0
26.4 0.4 0
26.7 0.4 0
27 0.4 0
27.3 0.4 0
27.6 0.4 0
27.9 0.4 0
28.2 0.4 0
28.5 0.4 0
28.8 0.4 0
29.1 0.4 0
29.4 0.4 0
29.7 0.4 0
30 0.4 0
30.3 0.4 0
30.6 0.4 0
0 0.5 0
0.3 0.5 0
0.6 0.5 0
0.9 0.5 0
1.2 0.5 0
1.5 0.5 0
1.8 0.5 0
2.1 0.5 0
2.4 0.5 0
2.7 0.5 0
3 0.5 0
3.3 0.5 0
3.6 0.5 0
3.9 0.5 0
4.2 0.5 0
4.5 0.5 0
4.8 0.5 0
5.1 0.5 0
5.4 0.5 0
5.7 0.5 0
6 0.5 0
6.3 0.5 0
6.6 0.5 0
6.9 0.5 0
7.2 0.5 0
7.5 0.5 0
7.8 0.5 0
8.1 0.5 0
8.4 0.5 0
8.7 0.5 0
9 0.5 0
9.3 0.5 0
9.6 0.5 0
9.9 0.5 0
10.2 0.5 0
10.5 0.5 0
10.8 0.5 0
11.1 0.5 0
11.4 0.5 0
11.7 0.5 0
12 0.5 0
12.3 0.5 0
12.6 0.5 0
12.9 0.5 0
13.2 0.5 0
13.5 0.5 0
13.8 0.5 0
14.1 0.5 0
14.4 0.5 0
14.7 0.5 0
15 0.5 0
15.3 0.5 0
15.6 0.5 0
15.9 0.5 0
16.2 0.5 0
16.5 0.5 0
16.8 0.5 0
17.1 0.5 0
17.4 0.5 0
17.7 0.5 0
18 0.5 0
18.3 0.5 0
18.6 0.5 0
18.9 0.5 0
19.2 0.5 0
19.5 0.5 0
19.8 0.5 0
20.1 0.5 0
20.4 0.5 0
20.7 0.5 0
21 0.5 0
21.3 0.5 0
21.6 0.5 0
21.9 0.5 0
22.2 0.5 0
22.5 0.5 0
22.8 0.5 0
23.1 0.5 0
23.4 0.5 0
23.7 0.5 0
24 0.5 0
24.3 0.5 0
24.6 0.5 0
24.9 0.5 0
25.2 0.5 0
25.5 0.5 0
25.8 0.5 0
26.1 0.5 0
26.4 0.5 0
26.7 0.5 0
27 0.5 0
27.3 0.5 0
27.6 0.5 0
27.9 0.5 0
28.2 0.5 0
28.5 0.5 0
28.8 0.5 0
29.1 0.5 0
29.4 0.5 0
29.7 0.5 0
30 0.5 0
30.3 0.5 0
30.6 0.5 0
0 0.6 0
0.3 0.6 0
0.6 0.6 0
0.9 0.6 0
1.2 0.6 0
1.5 0.6 0
1.8 0.6 0
2.1 0.6 0
2.4 0.6 0
2.7 0.6 0
3 0.6 0
3.3 0.6 0
3.6 0.6 0
3.9 0.6 0
4.2 0.6 0
4.5 0.6 0
4.8 0.6 0
5.1 0.6 0
5.4 0.6 0
5.7 0.6 0
6 0.6 0
6.3 0.6 0
6.6 0.6 0
6.9 0.6 0
7.2 0.6 0
7.5 0.6 0
7.8 0.6 0
8.1 0.6 0
8.4 0.6 0
8.7 0.6 0
9 0.6 0
9.3 0.6 0
9.6 0.6 0
9.9 0.6 0
10.2 0.6 0
10.5 0.6 0
10.8 0.6 0
11.1 0.6 0
11.4 0.6 0
11.7 0.6 0
12 0.6 0
12.3 0.6 0
12.6 0.6 0
12.9 0.6 0
13.2 0.6 0
13.5 0.6 0
13.8 0.6 0
14.1 0.6 0
14.4 0.6 0
14.7 0.6 0
15 0.6 0
15.3 0.6 0
15.6 0.6 0
15.9 0.6 0
16.2 0.6 0
16.5 0.6 0
16.8 0.6 0
17.1 0.6 0
17.4 0.6 0
17.7 0.6 0
18 0.6 0
18.3 0.6 0
18.6 0.6 0
18.9 0.6 0
19.2 0.6 0
19.5 0.6 0
19.8 0.6 0
20.1 0.6 0
20.4 0.6 0
20.7 0.6 0
21 0.6 0
21.3 0.6 0
21.6 0.6 0
21.9 0.6 0
22.2 0.6 0
22.5 0.6 0
22.8 0.6 0
23.1 0.6 0
23.4 0.6 0
23.7 0.6 0
24 0.6 0
24.3 0.6 0
24.6 0.6 0
24.9 0.6 0
25.2 0.6 0
25.5 0.6 0
25.8 0.6 0
26.1 0.6 0
26.4 0.6 0
26.7 0.6 0
27 0.6 0
27.3 0.6 0
27.6 0.6 0
27.9 0.6 0
28.2 0.6 0
28.5 0.6 0
28.8 0.6 0
29.1 0.6 0
29.4 0.6 0
29.7 0.6 0
30 0.6 0
30.3 0.6 0
30.6 0.6 0
0 0.7 0
0.3 0.7 0
0.6 0.7 0
0.9 0.7 0
1.2 0.7 0
1.5 0.7 0
1.8 0.7 0
2.1 0.7 0
2.4 0.7 0
2.7 0.7 0
3 0.7 0
3.3 0.7 0
3.6 0.7 0
3.9 0.7 0
4.2 0.7 0
4.5 0.7 0
4.8 0.7 0
5.1 0.7 0
5.4 0.7 0
5.7 0.7 0
6 0.7 0
6.3 0.7 0
6.6 0.7 0
6.9 0.7 0
7.2 0.7 0
7.5 0.7 0
7.8 0.7 0
8.1 0.7 0
8.4 0.7 0
8.7 0.7 0
9 0.7 0
9.3 0.7 0
9.6 0.7 0
9.9 0.7 0
10.2 0.7 0
10.5 0.7 0
10.8 0.7 0
11.1 0.7 0
11.4 0.7 0
11.7 0.7 0
12 0.7 0
12.3 0.7 0
12.6 0.7 0
12.9 0.7 0
13.2 0.7 0
13.5 0.7 0
13.8 0.7 0
14.1 0.7 0
14.4 0.7 0
14.7 0.7 0
15 0.7 0
15.3 0.7 0
15.6 0.7 0
15.9 0.7 0
16.2 0.7 0
16.5 0.7 0
16.8 0.7 0
17.1 0.7 0
17.4 0.7 0
17.7 0.7 0
18 0.7 0
18.3 0.7 0
18.6 0.7 0
18.9 0.7 0
19.2 0.7 0
19.5 0.7 0
19.8 0.7 0
20.1 0.7 0
20.4 0.7 0
20.7 0.7 0
21 0.7 0
21.3 0.7 0
21.6 0.7 0
21.9 0.7 0
22.2 0.7 0
22.5 0.7 0
22.8 0.7 0
23.1 0.7 0
23.4 0.7 0
23.7 0.7 0
24 0.7 0
24.3 0.7 0
24.6 0.7 0
24.9 0.7 0
25.2 0.7 0
25.5 0.7 0
25.8 0.7 0
26.1 0.7 0
26.4 0.7 0
26.7 0.7 0
27 0.7 0
27.3 0.7 0
27.6 0.7 0
27.9 0.7 0
28.2 0.7 0
28.5 0.7 0
28.8 0.7 0
29.1 0.7 0
29.4 0.7 0
29.7 0.7 0
30 0.7 0
30.3 0.7 0
30.6 0.7 0
0 0.8 0
0.3 0.8 0
0.6 0.8 0
0.9 0.8 0
1.2 0.8 0
1.5 0.8 0
1.8 0.8 0
2.1 0.8 0
2.4 0.8 0
2.7 0.8 0
3 0.8 0
3.3 0.8 0
3.6 0.8 0
3.9 0.8 0
4.2 0.8 0
4.5 0.8 0
4.8 0.8 0
5.1 0.8 0
5.4 0.8 0
5.7 0.8 0
6 0.8 0
6.3 0.8 0
6.6 0.8 0
6.9 0.8 0
7.2 0.8 0
7.5 0.8 0
7.8 0.8 0
8.1 0.8 0
8.4 0.8 0
8.7 0.8 0
9 0.8 0
9.3 0.8 0
9.6 0.8 0
9.9 0.8 0
10.2 0.8 0
10.5 0.8 0
10.8 0.8 0
11.1 0.8 0
11.4 0.8 0
11.7 0.8 0
12 0.8 0
12.3 0.8 0
12.6 0.8 0
12.9 0.8 0
13.2 0.8 0
13.5 0.8 0
13.8 0.8 0
14.1 0.8 0
14.4 0.8 0
14.7 0.8 0
15 0.8 0
15.3 0.8 0
15.6 0.8 0
15.9 0.8 0
16.2 0.8 0
16.5 0.8 0
16.8 0.8 0
17.1 0.8 0
17.4 0.8 0
17.7 0.8 0
18 0.8 0
18.3 0.8 0
18.6 0.8 0
18.9 0.8 0
19.2 0.8 0
19.5 0.8 0
19.8 0.8 0
20.1 0.8 0
20.4 0.8 0
20.7 0.8 0
21 0.8 0
21.3 0.8 0
21.6 0.8 0
21.9 0.8 0
22.2 0.8 0
22.5 0.8 0
22.8 0.8 0
23.1 0.8 0
23.4 0.8 0
23.7 0.8 0
24 0.8 0
24.3 0.8 0
24.6 0.8 0
24.9 0.8 0
25.2 0.8 0
25.5 0.8 0
25.8 0.8 0
26.1 0.8 0
26.4 0.8 0
26.7 0.8 0
27 0.8 0
27.3 0.8 0
27.6 0.8 0
27.9 0.8 0
28.2 0.8 0
28.5 0.8 0
28.8 0.8 0
29.1 0.8 0
29.4 0.8 0
29.7 0.8 0
30 0.8 0
30.3 0.8 0
30.6 0.8 0
0 0.9 0
0.3 0.9 0
0.6 0.9 0
0.9 0.9 0
1.2 0.9 0
1.5 0.9 0
1.8 0.9 0
2.1 0.9 0
2.4 0.9 0
2.7 0.9 0
3 0.9 0
3.3 0.9 0
3.6 0.9 0
3.9 0.9 0
4.2 0.9 0
4.5 0.9 0
4.8 0.9 0
5.1 0.9 0
5.4 0.9 0
5.7 0.9 0
6 0.9 0
6.3 0.9 0
6.6 0.9 0
6.9 0.9 0
7.2 0.9 0
7.5 0.9 0
7.8 0.9 0
8.1 0.9 0
8.4 0.9 0
8.7 0.9 0
9 0.9 0
9.3 0.9 0
9.6 0.9 0
9.9 0.9 0
10.2 0.9 0
10.5 0.9 0
10.8 0.9 0
11.1 0.9 0
11.4 0.9 0
11.7 0.9 0
12 0.9 0
12.3 0.9 0
12.6 0.9 0
12.9 0.9 0
13.2 0.9 0
13.5 0.9 0
13.8 0.9 0
14.1 0.9 0
14.4 0.9 0
14.7 0.9 0
15 0.9 0
15.3 0.9 0
15.6 0.9 0
15.9 0.9 0
16.2 0.9 0
16.5 0.9 0
16.8 0.9 0
17.1 0.9 0
17.4 0.9 0
17.7 0.9 0
18 0.9 0
18.3 0.9 0
18.6 0.9 0
18.9 0.9 0
19.2 0.9 0
19.5 0.9 0
19.8 0.9 0
20.1 0.9 0
20.4 0.9 0
20.7 0.9 0
21 0.9 0
21.3 0.9 0
21.6 0.9 0
21.9 0.9 0
22.2 0.9 0
22.5 0.9 0
22.8 0.9 0
23.1 0.9 0
23.4 0.9 0
23.7 0.9 0
24 0.9 0
24.3 0.9 0
24.6 0.9 0
24.9 0.9 0
25.2 0.9 0
25.5 0.9 0
25.8 0.9 0
26.1 0.9 0
26.4 0.9 0
26.7 0.9 0
27 0.9 0
27.3 0.9 0
27.6 0.9 0
27.9 0.9 0
28.2 0.9 0
28.5 0.9 0
28.8 0.9 0
29.1 0.9 0
29.4 0.9 0
29.7 0.9 0
30 0.9 0
30.3 0.9 0
30.6 0.9 0
0 1 0
0.3 1 0
0.6 1 0
0.9 1 0
1.2 1 0
1.5 1 0
1.8 1 0
2.1 1 0
2.4 1 0
2.7 1 0
3 1 0
3.3 1 0
3.6 1 0
3.9 1 0
4.2 1 0
4.5 1 0
4.8 1 0
5.1 1 0
5.4 1 0
5.7 1 0
6 1 0
6.3 1 0
6.6 1 0
6.9 1 0
7.2 1 0
7.5 1 0
7.8 1 0
8.1 1 0
8.4 1 0
8.7 1 0
9 1 0
9.3 1 0
9.6 1 0
9.9 1 0
10.2 1 0
10.5 1 0
10.8 1 0
11.1 1 0
11.4 1 0
11.7 1 0
12 1 0
12.3 1 0
12.6 1 0
12.9 1 0
13.2 1 0
13.5 1 0
13.8 1 0
14.1 1 0
14.4 1 0
14.7 1 0
15 1 0
15.3 1 0
15.6 1 0
15.9 1 0
16.2 1 0
16.5 1 0
16.8 1 0
17.1 1 0
17.4 1 0
17.7 1 0
18 1 0
18.3 1 0
18.6 1 0
18.9 1 0
19.2 1 0
19.5 1 0
19.8 1 0
20.1 1 0
20.4 1 0
20.7 1 0
21 1 0
21.3 1 0
21.6 1 0
21.9 1 0
22.2 1 0
22.5 1 0
22.8 1 0
23.1 1 0
23.4 1 0
23.7 1 0
24 1 0
24.3 1 0
24.6 1 0
24.9 1 0
25.2 1 0
25.5 1 0
25.8 1 0
26.1 1 0
26.4 1 0
26.7 1 0
27 1 0
27.3 1 0
27.6 1 0
27.9 1 0
28.2 1 0
28.5 1 0
28.8 1 0
29.1 1 0
29.4 1 0
29.7 1 0
30 1 0
30.3 1 0
30.6 1 0
0 1.1 0
0.3 1.1 0
0.6 1.1 0
0.9 1.1 0
1.2 1.1 0
1.5 1.1 0
1.8 1.1 0
2.1 1.1 0
2.4 1.1 0
2.7 1.1 0
3 1.1 0
3.3 1.1 0
3.6 1.1 0
3.9 1.1 0
4.2 1.1 0
4.5 1.1 0
4.8 1.1 0
5.1 1.1 0
5.4 1.1 0
5.7 1.1 0
6 1.1 0
6.3 1.1 0
6.6 1.1 0
6.9 1.1 0
7.2 1.1 0
7.5 1.1 0
7.8 1.1 0
8.1 1.1 0
8.4 1.1 0
8.7 1.1 0
9 1.1 0
9.3 1.1 0
9.6 1.1 0
9.9 1.1 0
10.2 1.1 0
10.5 1.1 0
10.8 1.1 0
11.1 1.1 0
11.4 1.1 0
11.7 1.1 0
12 1.1 0
12.3 1.1 0
12.6 1.1 0
12.9 1.1 0
13.2 1.1 0
13.5 1.1 0
13.8 1.1 0
14.1 1.1 0
14.4 1.1 0
14.7 1.1 0
15 1.1 0
15.3 1.1 0
15.6 1.1 0
15.9 1.1 0
16.2 1.1 0
16.5 1.1 0
16.8 1.1 0
17.1 1.1 0
17.4 1.1 0
17.7 1.1 0
18 1.1 0
18.3 1.1 0
18.6 1.1 0
18.9 1.1 0
19.2 1.1 0
19.5 1.1 0
19.8 1.1 0
20.1 1.1 0
20.4 1.1 0
20.7 1.1 0
21 1.1 0
21.3 1.1 0
21.6 1.1 0
21.9 1.1 0
22.2 1.1 0
22.5 1.1 0
22.8 1.1 0
23.1 1.1 0
23.4 1.1 0
23.7 1.1 0
24 1.1 0
24.3 1.1 0
24.6 1.1 0
24.9 1.1 0
25.2 1.1 0
25.5 1.1 0
25.8 1.1 0
26.1 1.1 0
26.4 1.1 0
26.7 1.1 0
27 1.1 0
27.3 1.1 0
27.6 1.1 0
27.9 1.1 0
28.2 1.1 0
28.5 1.1 0
28.8 1.1 0
29.1 1.1 0
29.4 1.1 0
29.7 1.1 0
30 1.1 0
30.3 1.1 0
30.6 1.1 0
0 1.2 0
0.3 1.2 0
0.6 1.2 0
0.9 1.2 0
1.2 1.2 0
1.5 1.2 0
1.8 1.2 0
2.1 1.2 0
2.4 1.2 0
2.7 1.2 0
3 1.2 0
3.3 1.2 0
3.6 1.2 0
3.9 1.2 0
4.2 1.2 0
4.5 1.2 0
4.8 1.2 0
5.1 1.2 0
5.4 1.2 0
5.7 1.2 0
6 1.2 0
6.3 1.2 0
6.6 1.2 0
6.9 1.2 0
7.2 1.2 0
7.5 1.2 0
7.8 1.2 0
8.1 1.2 0
8.4 1.2 0
8.7 1.2 0
9 1.2 0
9.3 1.2 0
9.6 1.2 0
9.9 1.2 0
10.2 1.2 0
10.5 1.2 0
10.8 1.2 0
11.1 1.2 0
11.4 1.2 0
11.7 1.2 0
12 1.2 0
12.3 1.2 0
12.6 1.2 0
12.9 1.2 0
13.2 1.2 0
13.5 1.2 0
13.8 1.2 0
14.1 1.2 0
14.4 1.2 0
14.7 1.2 0
15 1.2 0
15.3 1.2 0
15.6 1.2 0
15.9 1.2 0
16.2 1.2 0
16.5 1.2 0
16.8 1.2 0
17.1 1.2 0
17.4 1.2 0
17.7 1.2 0
18 1.2 0
18.3 1.2 0
18.6 1.2 0
18.9 1.2 0
19.2 1.2 0
19.5 1.2 0
19.8 1.2 0
20.1 1.2 0
20.4 1.2 0
20.7 1.2 0
21 1.2 0
21.3 1.2 0
21.6 1.2 0
21.9 1.2 0
22.2 1.2 0
22.5 1.2 0
22.8 1.2 0
23.1 1.2 0
23.4 1.2 0
23.7 1.2 0
24 1.2 0
24.3 1.2 0
24.6 1.2 0
24.9 1.2 0
25.2 1.2 0
25.5 1.2 0
25.8 1.2 0
26.1 1.2 0
26.4 1.2 0
26.7 1.2 0
27 1.2 0
27.3 1.2 0
27.6 1.2 0
27.9 1.2 0
28.2 1.2 0
28.5 1.2 0
28.8 1.2 0
29.1 1.2 0
29.4 1.2 0
29.7 1.2 0
30 1.2 0
30.3 1.2 0
30.6 1.2 0

POINT_DATA 1339

SCALARS pressure double
LOOKUP_TABLE pressure
1.17177
1.17177
1.10693
1.0627
1.02287
0.986296
0.953244
0.923716
0.89736
0.873651
0.852049
0.832086
0.813393
0.795694
0.778787
0.762527
0.746808
0.731553
0.7167
0.702206
0.688031
0.674146
0.660525
0.647147
0.633991
0.621041
0.608281
0.595699
0.583281
0.571017
0.558896
0.546909
0.535048
0.523305
0.511672
0.500143
0.488711
0.477371
0.466117
0.454944
0.443848
0.432824
0.42187
0.410981
0.400155
0.389391
0.378686
0.368039
0.357448
0.346913
0.336432
0.326003
0.315625
0.305296
0.295014
0.284775
0.274576
0.264415
0.254287
0.244189
0.234118
0.224069
0.214041
0.204028
0.19403
0.184043
0.174065
0.164095
0.15413
0.14417
0.134214
0.12426
0.114308
0.104357
0.0944081
0.0844596
0.0745116
0.064564
0.0546167
0.0446696
0.0347226
0.0247757
0.0148288
0.00488204
-0.00506473
-0.0150115
-0.0249582
-0.0349049
-0.0448516
-0.0547984
-0.0647451
-0.0746918
-0.0846385
-0.0945852
-0.104532
-0.114479
-0.124425
-0.134372
-0.144318
-0.154265
-0.164212
-0.174154
0.174154
1.17177
1.17177
1.10693
1.0627
1.02287
0.986296
0.953244
0.923716
0.89736
0.873651
0.852049
0.832086
0.813393
0.795694
0.778787
0.762527
0.746808
0.731553
0.7167
0.702206
0.688031
0.674146
0.660525
0.647147
0.633991
0.621041
0.608281
0.595699
0.583281
0.571017
0.558896
0.546909
0.535048
0.523305
0.511672
0.500143
0.488711
0.477371
0.466117
0.454944
0.443848
0.432824
0.42187
0.410981
0.400155
0.389391
0.378686
0.368039
0.357448
0.346913
0.336432
0.326003
0.315625
0.305296
0.295014
0.284775
0.274576
0.264415
0.254287
0.244189
0.234118
0.224069
0.214041
0.204028
0.19403
0.184043
0.174065
0.164095
0.15413
0.14417
0.134214
0.12426
0.114308
0.104357
0.0944081
0.0844596
0.0745116
0.064564
0.0546167
0.0446696
0.0347226
0.0247757
0.0148288
0.00488204
-0.00506473
-0.0150115
-0.0249582
-0.0349049
-0.0448516
-0.0547984
-0.0647451
-0.0746918
-0.0846385
-0.0945852
-0.104532
-0.114479
-0.124425
-0.134372
-0.144318
-0.154265
-0.164212
-0.174154
0.174154
1.15083
1.15083
1.10494
1.06292
1.02358
0.987092
0.953987
0.924347
0.897868
0.874046
0.852353
0.832319
0.813575
0.795838
0.778904
0.762624
0.746891
0.731624
0.716763
0.702261
0.68808
0.674191
0.660566
0.647183
0.634024
0.621071
0.60831
0.595725
0.583305
0.571039
0.558917
0.546929
0.535066
0.523322
0.511688
0.500157
0.488724
0.477383
0.466129
0.454955
0.443858
0.432834
0.421879
0.410989
0.400163
0.389398
0.378693
0.368045
0.357453
0.346918
0.336436
0.326006
0.315628
0.305299
0.295016
0.284776
0.274577
0.264416
0.254288
0.24419
0.234118
0.224069
0.214041
0.204028
0.19403
0.184043
0.174065
0.164095
0.15413
0.14417
0.134214
0.12426
0.114308
0.104357
0.0944081
0.0844596
0.0745116
0.064564
0.0546167
0.0446695
0.0347226
0.0247757
0.0148288
0.00488203
-0.00506473
-0.0150115
-0.0249582
-0.0349049
-0.0448516
-0.0547984
-0.0647451
-0.0746918
-0.0846385
-0.0945852
-0.104532
-0.114479
-0.124425
-0.134372
-0.144318
-0.154265
-0.164212
-0.174154
0.174154
1.13585
1.13585
1.10206
1.06315
1.02469
0.988417
0.955248
0.925426
0.898729
0.874705
0.852845
0.832684
0.813846
0.796043
0.779062
0.76275
0.746992
0.731708
0.716834
0.702322
0.688133
0.674237
0.660607
0.64722
0.634058
0.621101
0.608337
0.59575
0.583328
0.57106
0.558936
0.546946
0.535082
0.523336
0.511701
0.50017
0.488736
0.477394
0.466139
0.454964
0.443867
0.432842
0.421886
0.410997
0.40017
0.389404
0.378698
0.36805
0.357458
0.346921
0.336439
0.326009
0.31563
0.305301
0.295017
0.284777
0.274578
0.264416
0.254288
0.24419
0.234118
0.224069
0.21404
0.204028
0.19403
0.184043
0.174065
0.164095
0.15413
0.14417
0.134214
0.12426
0.114308
0.104357
0.0944081
0.0844595
0.0745116
0.064564
0.0546167
0.0446695
0.0347226
0.0247757
0.0148288
0.00488203
-0.00506473
-0.0150115
-0.0249582
-0.0349049
-0.0448516
-0.0547984
-0.0647451
-0.0746918
-0.0846385
-0.0945852
-0.104532
-0.114479
-0.124425
-0.134372
-0.144318
-0.154265
-0.164211
-0.174153
0.174153
1.12628
1.12628
1.09957
1.06326
1.02564
0.989611
0.956425
0.926462
0.899582
0.875378
0.853362
0.833079
0.814149
0.796278
0.779248
0.762899
0.747115
0.731811
0.716922
0.702398
0.6882
0.674296
0.660659
0.647267
0.634099
0.621139
0.60837
0.59578
0.583355
0.571085
0.558959
0.546967
0.535102
0.523354
0.511718
0.500185
0.48875
0.477407
0.466151
0.454976
0.443877
0.432852
0.421896
0.411005
0.400178
0.389412
0.378705
0.368056
0.357464
0.346927
0.336444
0.326014
0.315635
0.305305
0.295021
0.284781
0.274581
0.264419
0.25429
0.244191
0.23412
0.224071
0.214041
0.204029
0.19403
0.184043
0.174065
0.164095
0.15413
0.14417
0.134214
0.12426
0.114308
0.104357
0.0944081
0.0844596
0.0745116
0.064564
0.0546167
0.0446695
0.0347226
0.0247757
0.0148288
0.00488203
-0.00506473
-0.0150115
-0.0249582
-0.0349049
-0.0448516
-0.0547984
-0.0647451
-0.0746918
-0.0846385
-0.0945852
-0.104532
-0.114479
-0.124425
-0.134372
-0.144318
-0.154264
-0.164208
-0.174151
0.174151
1.12096
1.12096
1.09795
1.06328
1.02623
0.990378
0.957194
0.927152
0.90016
0.875842
0.853727
0.833363
0.814371
0.796454
0.77939
0.763017
0.747214
0.731896
0.716995
0.702462
0.688257
0.674346
0.660704
0.647308
0.634136
0.621172
0.608401
0.595808
0.583381
0.571108
0.55898
0.546987
0.53512
0.523371
0.511733
0.500199
0.488764
0.47742
0.466162
0.454986
0.443887
0.432861
0.421904
0.411013
0.400186
0.389419
0.378712
0.368063
0.357471
0.346934
0.33645
0.32602
0.31564
0.30531
0.295025
0.284785
0.274585
0.264422
0.254293
0.244194
0.234122
0.224072
0.214043
0.20403
0.194031
0.184044
0.174066
0.164095
0.154131
0.144171
0.134214
0.12426
0.114308
0.104358
0.0944082
0.0844596
0.0745116
0.064564
0.0546167
0.0446696
0.0347226
0.0247757
0.0148288
0.00488204
-0.00506473
-0.0150115
-0.0249582
-0.0349049
-0.0448516
-0.0547984
-0.0647451
-0.0746918
-0.0846385
-0.0945852
-0.104532
-0.114479
-0.124425
-0.134372
-0.144318
-0.154263
-0.164204
-0.174149
0.174149
1.11927
1.11927
1.0974
1.06329
1.02645
0.990652
0.957468
0.927397
0.900366
0.876009
0.853859
0.833468
0.814454
0.796521
0.779445
0.763062
0.747253
0.731929
0.717024
0.702488
0.68828
0.674367
0.660723
0.647325
0.634151
0.621186
0.608414
0.59582
0.583392
0.571118
0.558989
0.546995
0.535128
0.523378
0.51174
0.500206
0.488769
0.477425
0.466167
0.454991
0.443892
0.432865
0.421908
0.411017
0.400189
0.389423
0.378716
0.368066
0.357474
0.346936
0.336453
0.326023
0.315643
0.305312
0.295028
0.284787
0.274587
0.264424
0.254294
0.244195
0.234123
0.224073
0.214044
0.204031
0.194032
0.184044
0.174066
0.164096
0.154131
0.144171
0.134214
0.12426
0.114308
0.104358
0.0944082
0.0844596
0.0745116
0.064564
0.0546167
0.0446696
0.0347226
0.0247757
0.0148288
0.00488204
-0.00506473
-0.0150115
-0.0249582
-0.0349049
-0.0448516
-0.0547984
-0.0647451
-0.0746918
-0.0846385
-0.0945852
-0.104532
-0.114479
-0.124425
-0.134372
-0.144318
-0.154263
-0.164202
-0.174149
0.174149
1.12096
1.12096
1.09795
1.06328
1.02623
0.990378
0.957194
0.927152
0.90016
0.875842
0.853727
0.833363
0.814371
0.796454
0.77939
0.763017
0.747214
0.731896
0.716995
0.702462
0.688257
0.674346
0.660704
0.647308
0.634136
0.621172
0.608401
0.595808
0.583381
0.571108
0.55898
0.546987
0.53512
0.523371
0.511733
0.500199
0.488764
0.47742
0.466162
0.454986
0.443887
0.432861
0.421904
0.411013
0.400186
0.389419
0.378712
0.368063
0.357471
0.346934
0.33645
0.32602
0.31564
0.30531
0.295025
0.284785
0.274585
0.264422
0.254293
0.244194
0.234122
0.224072
0.214043
0.20403
0.194031
0.184044
0.174066
0.164095
0.154131
0.144171
0.134214
0.12426
0.114308
0.104358
0.0944082
0.0844596
0.0745116
0.064564
0.0546167
0.0446696
0.0347226
0.0247757
0.0148288
0.00488204
-0.00506473
-0.0150115
-0.0249582
-0.0349049
-0.0448516
-0.0547984
-0.0647451
-0.0746918
-0.0846385
-0.0945852
-0.104532
-0.114479
-0.124425
-0.134372
-0.144318
-0.154263
-0.164204
-0.174149
0.174149
1.12628
1.12628
1.09957
1.06326
1.02564
0.989611
0.956425
0.926462
0.899582
0.875378
0.853362
0.833079
0.814149
0.796278
0.779248
0.762899
0.747115
0.731811
0.716922
0.702398
0.6882
0.674296
0.660659
0.647267
0.634099
0.621139
0.60837
0.59578
0.583355
0.571085
0.558959
0.546967
0.535102
0.523354
0.511718
0.500185
0.48875
0.477407
0.466151
0.454976
0.443877
0.432852
0.421896
0.411005
0.400178
0.389412
0.378705
0.368056
0.357464
0.346927
0.336444
0.326014
0.315635
0.305305
0.295021
0.284781
0.274581
0.264419
0.25429
0.244192
0.23412
0.224071
0.214041
0.204029
0.19403
0.184043
0.174065
0.164095
0.15413
0.14417
0.134214
0.12426
0.114308
0.104357
0.0944081
0.0844596
0.0745116
0.064564
0.0546167
0.0446695
0.0347226
0.0247757
0.0148288
0.00488203
-0.00506473
-0.0150115
-0.0249582
-0.0349049
-0.0448516
-0.0547984
-0.0647451
-0.0746918
-0.0846385
-0.0945851
-0.104532
-0.114479
-0.124425
-0.134372
-0.144318
-0.154264
-0.164208
-0.174151
0.174151
1.13585
1.13585
1.10206
1.06315
1.02469
0.988417
0.955248
0.925426
0.898729
0.874705
0.852845
0.832684
0.813846
0.796043
0.779062
0.76275
0.746992
0.731708
0.716834
0.702322
0.688133
0.674237
0.660607
0.64722
0.634058
0.621101
0.608337
0.59575
0.583328
0.57106
0.558936
0.546946
0.535082
0.523336
0.511701
0.50017
0.488736
0.477394
0.466139
0.454964
0.443867
0.432842
0.421886
0.410997
0.40017
0.389404
0.378698
0.36805
0.357458
0.346921
0.336439
0.326009
0.31563
0.305301
0.295017
0.284777
0.274578
0.264416
0.254288
0.24419
0.234118
0.224069
0.21404
0.204028
0.19403
0.184043
0.174065
0.164095
0.15413
0.14417
0.134214
0.12426
0.114308
0.104357
0.0944081
0.0844595
0.0745116
0.064564
0.0546167
0.0446695
0.0347226
0.0247757
0.0148288
0.00488203
-0.00506473
-0.0150115
-0.0249582
-0.0349049
-0.0448516
-0.0547984
-0.0647451
-0.0746918
-0.0846385
-0.0945851
-0.104532
-0.114479
-0.124425
-0.134372
-0.144318
-0.154265
-0.164211
-0.174153
0.174153
1.15083
1.15083
1.10494
1.06292
1.02358
0.987092
0.953987
0.924347
0.897868
0.874046
0.852353
0.832319
0.813575
0.795838
0.778904
0.762624
0.746891
0.731624
0.716763
0.702261
0.68808
0.674191
0.660566
0.647183
0.634024
0.621071
0.60831
0.595725
0.583305
0.571039
0.558917
0.546929
0.535066
0.523322
0.511688
0.500157
0.488724
0.477383
0.466129
0.454955
0.443858
0.432834
0.421879
0.410989
0.400163
0.389398
0.378693
0.368045
0.357453
0.346918
0.336436
0.326006
0.315628
0.305299
0.295016
0.284776
0.274577
0.264416
0.254288
0.24419
0.234118
0.224069
0.214041
0.204028
0.19403
0.184043
0.174065
0.164095
0.15413
0.14417
0.134214
0.12426
0.114308
0.104357
0.0944081
0.0844596
0.0745116
0.064564
0.0546167
0.0446695
0.0347226
0.0247757
0.0148288
0.00488204
-0.00506473
-0.0150115
-0.0249582
-0.0349049
-0.0448516
-0.0547984
-0.0647451
-0.0746918
-0.0846385
-0.0945851
-0.104532
-0.114479
-0.124425
-0.134372
-0.144318
-0.154265
-0.164212
-0.174154
0.174154
1.17177
1.17177
1.10693
1.0627
1.02287
0.986296
0.953244
0.923716
0.89736
0.873651
0.852049
0.832086
0.813393
0.795694
0.778787
0.762527
0.746808
0.731553
0.7167
0.702206
0.688031
0.674146
0.660525
0.647147
0.633991
0.621041
0.608281
0.595699
0.583281
0.571017
0.558896
0.546909
0.535048
0.523305
0.511672
0.500143
0.488711
0.477371
0.466117
0.454944
0.443848
0.432824
0.42187
0.410981
0.400155
0.389391
0.378686
0.368039
0.357448
0.346913
0.336432
0.326003
0.315625
0.305296
0.295014
0.284775
0.274576
0.264415
0.254287
0.244189
0.234118
0.224069
0.214041
0.204028
0.19403
0.184043
0.174065
0.164095
0.15413
0.14417
0.134214
0.12426
0.114308
0.104357
0.0944081
0.0844596
0.0745116
0.064564
0.0546167
0.0446695
0.0347226
0.0247757
0.0148288
0.00488204
-0.00506473
-0.0150115
-0.0249582
-0.0349049
-0.0448516
-0.0547984
-0.0647451
-0.0746918
-0.0846385
-0.0945851
-0.104532
-0.114479
-0.124425
-0.134372
-0.144319
-0.154265
-0.164212
-0.174154
0.174154
1.17177
1.17177
1.10693
1.0627
1.02287
0.986296
0.953244
0.923716
0.89736
0.873651
0.852049
0.832086
0.813393
0.795694
0.778787
0.762527
0.746808
0.731553
0.7167
0.702206
0.688031
0.674146
0.660525
0.647147
0.633991
0.621041
0.608281
0.595699
0.583281
0.571017
0.558896
0.546909
0.535048
0.523305
0.511672
0.500143
0.488711
0.477371
0.466117
0.454944
0.443848
0.432824
0.42187
0.410981
0.400155
0.389391
0.378686
0.368039
0.357448
0.346913
0.336432
0.326003
0.315625
0.305296
0.295014
0.284775
0.274576
0.264415
0.254287
0.244189
0.234118
0.224069
0.214041
0.204028
0.19403
0.184043
0.174065
0.164095
0.15413
0.14417
0.134214
0.12426
0.114308
0.104357
0.0944081
0.0844596
0.0745116
0.064564
0.0546167
0.0446695
0.0347226
0.0247757
0.0148288
0.00488204
-0.00506473
-0.0150115
-0.0249582
-0.0349049
-0.0448516
-0.0547984
-0.0647451
-0.0746918
-0.0846385
-0.0945851
-0.104532
-0.114479
-0.124425
-0.134372
-0.144319
-0.154265
-0.164212
-0.174154
0.174154
SCALARS phi double
LOOKUP_TABLE phi
1
1
1
1
0.999998
0.999994
0.999982
0.999957
0.99991
0.999829
0.999705
0.999525
0.999278
0.998948
0.998528
0.998025
0.997454
0.996777
0.99583
0.994264
0.991563
0.987125
0.980376
0.970872
0.958351
0.942738
0.924121
0.902705
0.878772
0.852651
0.824686
0.795224
0.764604
0.733143
0.701134
0.668842
0.636502
0.604318
0.572467
0.541095
0.510325
0.480255
0.450965
0.422516
0.394954
0.368313
0.342614
0.317875
0.294103
0.271304
0.249479
0.228628
0.208752
0.189851
0.171926
0.154977
0.139007
0.124018
0.110013
0.0969914
0.0849518
0.0738887
0.0637917
0.0546444
0.0464241
0.0391003
0.0326351
0.0269835
0.0220937
0.0179082
0.0143653
0.011401
0.00895012
0.0069482
0.00533324
0.0040468
0.00303509
0.00224968
0.00164783
0.00119266
0.000852922
0.000602656
0.000420714
0.000290174
0.000197736
0.000133129
8.85593e-05
5.82079e-05
3.78038e-05
2.42614e-05
1.53868e-05
9.64408e-06
5.97421e-06
3.65795e-06
2.21394e-06
1.32464e-06
7.83556e-07
4.5826e-07
2.65032e-07
1.51469e-07
8.62337e-08
4.49315e-08
4.49315e-08
1
1
1
1
0.999998
0.999994
0.999982
0.999957
0.99991
0.999829
0.999705
0.999525
0.999278
0.998948
0.998528
0.998025
0.997454
0.996777
0.99583
0.994264
0.991563
0.987125
0.980376
0.970872
0.958351
0.942738
0.924121
0.902705
0.878772
0.852651
0.824686
0.795224
0.764604
0.733143
0.701134
0.668842
0.636502
0.604318
0.572467
0.541095
0.510325
0.480255
0.450965
0.422516
0.394954
0.368313
0.342614
0.317875
0.294103
0.271304
0.249479
0.228628
0.208752
0.189851
0.171926
0.154977
0.139007
0.124018
0.110013
0.0969914
0.0849518
0.0738887
0.0637917
0.0546444
0.0464241
0.0391003
0.0326351
0.0269835
0.0220937
0.0179082
0.0143653
0.011401
0.00895012
0.0069482
0.00533324
0.0040468
0.00303509
0.00224968
0.00164783
0.00119266
0.000852922
0.000602656
0.000420714
0.000290174
0.000197736
0.000133129
8.85593e-05
5.82079e-05
3.78038e-05
2.42614e-05
1.53868e-05
9.64408e-06
5.97421e-06
3.65795e-06
2.21394e-06
1.32464e-06
7.83556e-07
4.5826e-07
2.65032e-07
1.51469e-07
8.62337e-08
4.49315e-08
4.49315e-08
1
1
1
0.999996
0.999983
0.999953
0.999898
0.999804
0.999658
0.999446
0.999157
0.998777
0.998299
0.997713
0.997012
0.996193
0.99526
0.994213
0.993036
0.991656
0.989929
0.987627
0.984461
0.980109
0.97426
0.966649
0.957078
0.94543
0.931663
0.915809
0.897959
0.878249
0.856854
0.833967
0.809797
0.784557
0.758457
0.7317
0.704475
0.67696
0.649316
0.621686
0.594198
0.56696
0.540065
0.51359
0.487596
0.462128
0.437219
0.412889
0.389149
0.366
0.343436
0.32145
0.30003
0.279166
0.258851
0.239085
0.219873
0.201233
0.183192
0.16579
0.149074
0.133103
0.117941
0.103653
0.0903024
0.077944
0.0666213
0.0563622
0.0471759
0.0390518
0.0319595
0.0258503
0.0206596
0.0163108
0.0127186
0.00979386
0.00744669
0.00559022
0.00414308
0.0030313
0.00218946
0.00156116
0.00109892
0.000763674
0.000523951
0.000354926
0.000237398
0.000156797
0.000102272
6.58819e-05
4.19187e-05
2.63463e-05
1.63585e-05
1.00351e-05
6.08273e-06
3.64345e-06
2.15701e-06
1.26114e-06
7.34788e-07
3.90055e-07
3.90055e-07
0.999997
1
0.99998
0.999896
0.999724
0.999434
0.998999
0.998397
0.997613
0.996636
0.995464
0.994099
0.992546
0.990816
0.988916
0.986858
0.984655
0.982318
0.97986
0.977285
0.974581
0.971715
0.968624
0.965215
0.961371
0.956959
0.951838
0.945873
0.938943
0.930944
0.9218
0.91146
0.899902
0.887128
0.873165
0.858062
0.841884
0.824709
0.806627
0.787735
0.768133
0.747925
0.727212
0.706093
0.684663
0.663011
0.641214
0.619345
0.59746
0.575607
0.553819
0.532115
0.510503
0.488975
0.467511
0.44608
0.424646
0.403163
0.381588
0.359882
0.338019
0.315991
0.293818
0.271552
0.249278
0.227122
0.205242
0.183823
0.163069
0.14319
0.124385
0.106837
0.0906914
0.0760556
0.0629894
0.0515049
0.0415692
0.0331096
0.0260214
0.020177
0.0154348
0.0116477
0.00867104
0.00636789
0.00461345
0.00329747
0.00232533
0.00161797
0.0011109
0.000752718
0.000503371
0.000332267
0.000216509
0.000139284
8.84739e-05