# vtk DataFile Version 3.0
FlowField
ASCII
DATASET STRUCTURED_GRID
DIMENSIONS 103 13 1 
POINTS 1339 double
0 0 0
0.3 0 0
0.6 0 0
0.9 0 0
1.2 0 0
1.5 0 0
1.8 0 0
2.1 0 0
2.4 0 0
2.7 0 0
3 0 0
3.3 0 0
3.6 0 0
3.9 0 0
4.2 0 0
4.5 0 0
4.8 0 0
5.1 0 0
5.4 0 0
5.7 0 0
6 0 0
6.3 0 0
6.6 0 0
6.9 0 0
7.2 0 0
7.5 0 0
7.8 0 0
8.1 0 0
8.4 0 0
8.7 0 0
9 0 0
9.3 0 0
9.6 0 0
9.9 0 0
10.2 0 0
10.5 0 0
10.8 0 0
11.1 0 0
11.4 0 0
11.7 0 0
12 0 0
12.3 0 0
12.6 0 0
12.9 0 0
13.2 0 0
13.5 0 0
13.8 0 0
14.1 0 0
14.4 0 0
14.7 0 0
15 0 0
15.3 0 0
15.6 0 0
15.9 0 0
16.2 0 0
16.5 0 0
16.8 0 0
17.1 0 0
17.4 0 0
17.7 0 0
18 0 0
18.3 0 0
18.6 0 0
18.9 0 0
19.2 0 0
19.5 0 0
19.8 0 0
20.1 0 0
20.4 0 0
20.7 0 0
21 0 0
21.3 0 0
21.6 0 0
21.9 0 0
22.2 0 0
22.5 0 0
22.8 0 0
23.1 0 0
23.4 0 0
23.7 0 0
24 0 0
24.3 0 0
24.6 0 0
24.9 0 0
25.2 0 0
25.5 0 0
25.8 0 0
26.1 0 0
26.4 0 0
26.7 0 0
27 0 0
27.3 0 0
27.6 0 0
27.9 0 0
28.2 0 0
28.5 0 0
28.8 0 0
29.1 0 0
29.4 0 0
29.7 0 0
30 0 0
30.3 0 0
30.6 0 0
0 0.1 0
0.3 0.1 0
0.6 0.1 0
0.9 0.1 0
1.2 0.1 0
1.5 0.1 0
1.8 0.1 0
2.1 0.1 0
2.4 0.1 0
2.7 0.1 0
3 0.1 0
3.3 0.1 0
3.6 0.1 0
3.9 0.1 0
4.2 0.1 0
4.5 0.1 0
4.8 0.1 0
5.1 0.1 0
5.4 0.1 0
5.7 0.1 0
6 0.1 0
6.3 0.1 0
6.6 0.1 0
6.9 0.1 0
7.2 0.1 0
7.5 0.1 0
7.8 0.1 0
8.1 0.1 0
8.4 0.1 0
8.7 0.1 0
9 0.1 0
9.3 0.1 0
9.6 0.1 0
9.9 0.1 0
10.2 0.1 0
10.5 0.1 0
10.8 0.1 0
11.1 0.1 0
11.4 0.1 0
11.7 0.1 0
12 0.1 0
12.3 0.1 0
12.6 0.1 0
12.9 0.1 0
13.2 0.1 0
13.5 0.1 0
13.8 0.1 0
14.1 0.1 0
14.4 0.1 0
14.7 0.1 0
15 0.1 0
15.3 0.1 0
15.6 0.1 0
15.9 0.1 0
16.2 0.1 0
16.5 0.1 0
16.8 0.1 0
17.1 0.1 0
17.4 0.1 0
17.7 0.1 0
18 0.1 0
18.3 0.1 0
18.6 0.1 0
18.9 0.1 0
19.2 0.1 0
19.5 0.1 0
19.8 0.1 0
20.1 0.1 0
20.4 0.1 0
20.7 0.1 0
21 0.1 0
21.3 0.1 0
21.6 0.1 0
21.9 0.1 0
22.2 0.1 0
22.5 0.1 0
22.8 0.1 0
23.1 0.1 0
23.4 0.1 0
23.7 0.1 0
24 0.1 0
24.3 0.1 0
24.6 0.1 0
24.9 0.1 0
25.2 0.1 0
25.5 0.1 0
25.8 0.1 0
26.1 0.1 0
26.4 0.1 0
26.7 0.1 0
27 0.1 0
27.3 0.1 0
27.6 0.1 0
27.9 0.1 0
28.2 0.1 0
28.5 0.1 0
28.8 0.1 0
29.1 0.1 0
29.4 0.1 0
29.7 0.1 0
30 0.1 0
30.3 0.1 0
30.6 0.1 0
0 0.2 0
0.3 0.2 0
0.6 0.2 0
0.9 0.2 0
1.2 0.2 0
1.5 0.2 0
1.8 0.2 0
2.1 0.2 0
2.4 0.2 0
2.7 0.2 0
3 0.2 0
3.3 0.2 0
3.6 0.2 0
3.9 0.2 0
4.2 0.2 0
4.5 0.2 0
4.8 0.2 0
5.1 0.2 0
5.4 0.2 0
5.7 0.2 0
6 0.2 0
6.3 0.2 0
6.6 0.2 0
6.9 0.2 0
7.2 0.2 0
7.5 0.2 0
7.8 0.2 0
8.1 0.2 0
8.4 0.2 0
8.7 0.2 0
9 0.2 0
9.3 0.2 0
9.6 0.2 0
9.9 0.2 0
10.2 0.2 0
10.5 0.2 0
10.8 0.2 0
11.1 0.2 0
11.4 0.2 0
11.7 0.2 0
12 0.2 0
12.3 0.2 0
12.6 0.2 0
12.9 0.2 0
13.2 0.2 0
13.5 0.2 0
13.8 0.2 0
14.1 0.2 0
14.4 0.2 0
14.7 0.2 0
15 0.2 0
15.3 0.2 0
15.6 0.2 0
15.9 0.2 0
16.2 0.2 0
16.5 0.2 0
16.8 0.2 0
17.1 0.2 0
17.4 0.2 0
17.7 0.2 0
18 0.2 0
18.3 0.2 0
18.6 0.2 0
18.9 0.2 0
19.2 0.2 0
19.5 0.2 0
19.8 0.2 0
20.1 0.2 0
20.4 0.2 0
20.7 0.2 0
21 0.2 0
21.3 0.2 0
21.6 0.2 0
21.9 0.2 0
22.2 0.2 0
22.5 0.2 0
22.8 0.2 0
23.1 0.2 0
23.4 0.2 0
23.7 0.2 0
24 0.2 0
24.3 0.2 0
24.6 0.2 0
24.9 0.2 0
25.2 0.2 0
25.5 0.2 0
25.8 0.2 0
26.1 0.2 0
26.4 0.2 0
26.7 0.2 0
27 0.2 0
27.3 0.2 0
27.6 0.2 0
27.9 0.2 0
28.2 0.2 0
28.5 0.2 0
28.8 0.2 0
29.1 0.2 0
29.4 0.2 0
29.7 0.2 0
30 0.2 0
30.3 0.2 0
30.6 0.2 0
0 0.3 0
0.3 0.3 0
0.6 0.3 0
0.9 0.3 0
1.2 0.3 0
1.5 0.3 0
1.8 0.3 0
2.1 0.3 0
2.4 0.3 0
2.7 0.3 0
3 0.3 0
3.3 0.3 0
3.6 0.3 0
3.9 0.3 0
4.2 0.3 0
4.5 0.3 0
4.8 0.3 0
5.1 0.3 0
5.4 0.3 0
5.7 0.3 0
6 0.3 0
6.3 0.3 0
6.6 0.3 0
6.9 0.3 0
7.2 0.3 0
7.5 0.3 0
7.8 0.3 0
8.1 0.3 0
8.4 0.3 0
8.7 0.3 0
9 0.3 0
9.3 0.3 0
9.6 0.3 0
9.9 0.3 0
10.2 0.3 0
10.5 0.3 0
10.8 0.3 0
11.1 0.3 0
11.4 0.3 0
11.7 0.3 0
12 0.3 0
12.3 0.3 0
12.6 0.3 0
12.9 0.3 0
13.2 0.3 0
13.5 0.3 0
13.8 0.3 0
14.1 0.3 0
14.4 0.3 0
14.7 0.3 0
15 0.3 0
15.3 0.3 0
15.6 0.3 0
15.9 0.3 0
16.2 0.3 0
16.5 0.3 0
16.8 0.3 0
17.1 0.3 0
17.4 0.3 0
17.7 0.3 0
18 0.3 0
18.3 0.3 0
18.6 0.3 0
18.9 0.3 0
19.2 0.3 0
19.5 0.3 0
19.8 0.3 0
20.1 0.3 0
20.4 0.3 0
20.7 0.3 0
21 0.3 0
21.3 0.3 0
21.6 0.3 0
21.9 0.3 0
22.2 0.3 0
22.5 0.3 0
22.8 0.3 0
23.1 0.3 0
23.4 0.3 0
23.7 0.3 0
24 0.3 0
24.3 0.3 0
24.6 0.3 0
24.9 0.3 0
25.2 0.3 0
25.5 0.3 0
25.8 0.3 0
26.1 0.3 0
26.4 0.3 0
26.7 0.3 0
27 0.3 0
27.3 0.3 0
27.6 0.3 0
27.9 0.3 0
28.2 0.3 0
28.5 0.3 0
28.8 0.3 0
29.1 0.3 0
29.4 0.3 0
29.7 0.3 0
30 0.3 0
30.3 0.3 0
30.6 0.3 0
0 0.4 0
0.3 0.4 0
0.6 0.4 0
0.9 0.4 0
1.2 0.4 0
1.5 0.4 0
1.8 0.4 0
2.1 0.4 0
2.4 0.4 0
2.7 0.4 0
3 0.4 0
3.3 0.4 0
3.6 0.4 0
3.9 0.4 0
4.2 0.4 0
4.5 0.4 0
4.8 0.4 0
5.1 0.4 0
5.4 0.4 0
5.7 0.4 0
6 0.4 0
6.3 0.4 0
6.6 0.4 0
6.9 0.4 0
7.2 0.4 0
7.5 0.4 0
7.8 0.4 0
8.1 0.4 0
8.4 0.4 0
8.7 0.4 0
9 0.4 0
9.3 0.4 0
9.6 0.4 0
9.9 0.4 0
10.2 0.4 0
10.5 0.4 0
10.8 0.4 0
11.1 0.4 0
11.4 0.4 0
11.7 0.4 0
12 0.4 0
12.3 0.4 0
12.6 0.4 0
12.9 0.4 0
13.2 0.4 0
13.5 0.4 0
13.8 0.4 0
14.1 0.4 0
14.4 0.4 0
14.7 0.4 0
15 0.4 0
15.3 0.4 0
15.6 0.4 0
15.9 0.4 0
16.2 0.4 0
16.5 0.4 0
16.8 0.4 0
17.1 0.4 0
17.4 0.4 0
17.7 0.4 0
18 0.4 0
18.3 0.4 0
18.6 0.4 0
18.9 0.4 0
19.2 0.4 0
19.5 0.4 0
19.8 0.4 0
20.1 0.4 0
20.4 0.4 0
20.7 0.4 0
21 0.4 0
21.3 0.4 0
21.6 0.4 0
21.9 0.4 0
22.2 0.4 0
22.5 0.4 0
22.8 0.4 0
23.1 0.4 0
23.4 0.4 0
23.7 0.4 0
24 0.4 0
24.3 0.4 0
24.6 0.4 0
24.9 0.4 0
25.2 0.4 0
25.5 0.4 0
25.8 0.4 0
26.1 0.4 0
26.4 0.4 0
26.7 0.4 0
27 0.4 0
27.3 0.4 0
27.6 0.4 0
27.9 0.4 0
28.2 0.4 0
28.5 0.4 0
28.8 0.4 0
29.1 0.4 0
29.4 0.4 0
29.7 0.4 0
30 0.4 0
30.3 0.4 0
30.6 0.4 0
0 0.5 0
0.3 0.5 0
0.6 0.5 0
0.9 0.5 0
1.2 0.5 0
1.5 0.5 0
1.8 0.5 0
2.1 0.5 0
2.4 0.5 0
2.7 0.5 0
3 0.5 0
3.3 0.5 0
3.6 0.5 0
3.9 0.5 0
4.2 0.5 0
4.5 0.5 0
4.8 0.5 0
5.1 0.5 0
5.4 0.5 0
5.7 0.5 0
6 0.5 0
6.3 0.5 0
6.6 0.5 0
6.9 0.5 0
7.2 0.5 0
7.5 0.5 0
7.8 0.5 0
8.1 0.5 0
8.4 0.5 0
8.7 0.5 0
9 0.5 0
9.3 0.5 0
9.6 0.5 0
9.9 0.5 0
10.2 0.5 0
10.5 0.5 0
10.8 0.5 0
11.1 0.5 0
11.4 0.5 0
11.7 0.5 0
12 0.5 0
12.3 0.5 0
12.6 0.5 0
12.9 0.5 0
13.2 0.5 0
13.5 0.5 0
13.8 0.5 0
14.1 0.5 0
14.4 0.5 0
14.7 0.5 0
15 0.5 0
15.3 0.5 0
15.6 0.5 0
15.9 0.5 0
16.2 0.5 0
16.5 0.5 0
16.8 0.5 0
17.1 0.5 0
17.4 0.5 0
17.7 0.5 0
18 0.5 0
18.3 0.5 0
18.6 0.5 0
18.9 0.5 0
19.2 0.5 0
19.5 0.5 0
19.8 0.5 0
20.1 0.5 0
20.4 0.5 0
20.7 0.5 0
21 0.5 0
21.3 0.5 0
21.6 0.5 0
21.9 0.5 0
22.2 0.5 0
22.5 0.5 0
22.8 0.5 0
23.1 0.5 0
23.4 0.5 0
23.7 0.5 0
24 0.5 0
24.3 0.5 0
24.6 0.5 0
24.9 0.5 0
25.2 0.5 0
25.5 0.5 0
25.8 0.5 0
26.1 0.5 0
26.4 0.5 0
26.7 0.5 0
27 0.5 0
27.3 0.5 0
27.6 0.5 0
27.9 0.5 0
28.2 0.5 0
28.5 0.5 0
28.8 0.5 0
29.1 0.5 0
29.4 0.5 0
29.7 0.5 0
30 0.5 0
30.3 0.5 0
30.6 0.5 0
0 0.6 0
0.3 0.6 0
0.6 0.6 0
0.9 0.6 0
1.2 0.6 0
1.5 0.6 0
1.8 0.6 0
2.1 0.6 0
2.4 0.6 0
2.7 0.6 0
3 0.6 0
3.3 0.6 0
3.6 0.6 0
3.9 0.6 0
4.2 0.6 0
4.5 0.6 0
4.8 0.6 0
5.1 0.6 0
5.4 0.6 0
5.7 0.6 0
6 0.6 0
6.3 0.6 0
6.6 0.6 0
6.9 0.6 0
7.2 0.6 0
7.5 0.6 0
7.8 0.6 0
8.1 0.6 0
8.4 0.6 0
8.7 0.6 0
9 0.6 0
9.3 0.6 0
9.6 0.6 0
9.9 0.6 0
10.2 0.6 0
10.5 0.6 0
10.8 0.6 0
11.1 0.6 0
11.4 0.6 0
11.7 0.6 0
12 0.6 0
12.3 0.6 0
12.6 0.6 0
12.9 0.6 0
13.2 0.6 0
13.5 0.6 0
13.8 0.6 0
14.1 0.6 0
14.4 0.6 0
14.7 0.6 0
15 0.6 0
15.3 0.6 0
15.6 0.6 0
15.9 0.6 0
16.2 0.6 0
16.5 0.6 0
16.8 0.6 0
17.1 0.6 0
17.4 0.6 0
17.7 0.6 0
18 0.6 0
18.3 0.6 0
18.6 0.6 0
18.9 0.6 0
19.2 0.6 0
19.5 0.6 0
19.8 0.6 0
20.1 0.6 0
20.4 0.6 0
20.7 0.6 0
21 0.6 0
21.3 0.6 0
21.6 0.6 0
21.9 0.6 0
22.2 0.6 0
22.5 0.6 0
22.8 0.6 0
23.1 0.6 0
23.4 0.6 0
23.7 0.6 0
24 0.6 0
24.3 0.6 0
24.6 0.6 0
24.9 0.6 0
25.2 0.6 0
25.5 0.6 0
25.8 0.6 0
26.1 0.6 0
26.4 0.6 0
26.7 0.6 0
27 0.6 0
27.3 0.6 0
27.6 0.6 0
27.9 0.6 0
28.2 0.6 0
28.5 0.6 0
28.8 0.6 0
29.1 0.6 0
29.4 0.6 0
29.7 0.6 0
30 0.6 0
30.3 0.6 0
30.6 0.6 0
0 0.7 0
0.3 0.7 0
0.6 0.7 0
0.9 0.7 0
1.2 0.7 0
1.5 0.7 0
1.8 0.7 0
2.1 0.7 0
2.4 0.7 0
2.7 0.7 0
3 0.7 0
3.3 0.7 0
3.6 0.7 0
3.9 0.7 0
4.2 0.7 0
4.5 0.7 0
4.8 0.7 0
5.1 0.7 0
5.4 0.7 0
5.7 0.7 0
6 0.7 0
6.3 0.7 0
6.6 0.7 0
6.9 0.7 0
7.2 0.7 0
7.5 0.7 0
7.8 0.7 0
8.1 0.7 0
8.4 0.7 0
8.7 0.7 0
9 0.7 0
9.3 0.7 0
9.6 0.7 0
9.9 0.7 0
10.2 0.7 0
10.5 0.7 0
10.8 0.7 0
11.1 0.7 0
11.4 0.7 0
11.7 0.7 0
12 0.7 0
12.3 0.7 0
12.6 0.7 0
12.9 0.7 0
13.2 0.7 0
13.5 0.7 0
13.8 0.7 0
14.1 0.7 0
14.4 0.7 0
14.7 0.7 0
15 0.7 0
15.3 0.7 0
15.6 0.7 0
15.9 0.7 0
16.2 0.7 0
16.5 0.7 0
16.8 0.7 0
17.1 0.7 0
17.4 0.7 0
17.7 0.7 0
18 0.7 0
18.3 0.7 0
18.6 0.7 0
18.9 0.7 0
19.2 0.7 0
19.5 0.7 0
19.8 0.7 0
20.1 0.7 0
20.4 0.7 0
20.7 0.7 0
21 0.7 0
21.3 0.7 0
21.6 0.7 0
21.9 0.7 0
22.2 0.7 0
22.5 0.7 0
22.8 0.7 0
23.1 0.7 0
23.4 0.7 0
23.7 0.7 0
24 0.7 0
24.3 0.7 0
24.6 0.7 0
24.9 0.7 0
25.2 0.7 0
25.5 0.7 0
25.8 0.7 0
26.1 0.7 0
26.4 0.7 0
26.7 0.7 0
27 0.7 0
27.3 0.7 0
27.6 0.7 0
27.9 0.7 0
28.2 0.7 0
28.5 0.7 0
28.8 0.7 0
29.1 0.7 0
29.4 0.7 0
29.7 0.7 0
30 0.7 0
30.3 0.7 0
30.6 0.7 0
0 0.8 0
0.3 0.8 0
0.6 0.8 0
0.9 0.8 0
1.2 0.8 0
1.5 0.8 0
1.8 0.8 0
2.1 0.8 0
2.4 0.8 0
2.7 0.8 0
3 0.8 0
3.3 0.8 0
3.6 0.8 0
3.9 0.8 0
4.2 0.8 0
4.5 0.8 0
4.8 0.8 0
5.1 0.8 0
5.4 0.8 0
5.7 0.8 0
6 0.8 0
6.3 0.8 0
6.6 0.8 0
6.9 0.8 0
7.2 0.8 0
7.5 0.8 0
7.8 0.8 0
8.1 0.8 0
8.4 0.8 0
8.7 0.8 0
9 0.8 0
9.3 0.8 0
9.6 0.8 0
9.9 0.8 0
10.2 0.8 0
10.5 0.8 0
10.8 0.8 0
11.1 0.8 0
11.4 0.8 0
11.7 0.8 0
12 0.8 0
12.3 0.8 0
12.6 0.8 0
12.9 0.8 0
13.2 0.8 0
13.5 0.8 0
13.8 0.8 0
14.1 0.8 0
14.4 0.8 0
14.7 0.8 0
15 0.8 0
15.3 0.8 0
15.6 0.8 0
15.9 0.8 0
16.2 0.8 0
16.5 0.8 0
16.8 0.8 0
17.1 0.8 0
17.4 0.8 0
17.7 0.8 0
18 0.8 0
18.3 0.8 0
18.6 0.8 0
18.9 0.8 0
19.2 0.8 0
19.5 0.8 0
19.8 0.8 0
20.1 0.8 0
20.4 0.8 0
20.7 0.8 0
21 0.8 0
21.3 0.8 0
21.6 0.8 0
21.9 0.8 0
22.2 0.8 0
22.5 0.8 0
22.8 0.8 0
23.1 0.8 0
23.4 0.8 0
23.7 0.8 0
24 0.8 0
24.3 0.8 0
24.6 0.8 0
24.9 0.8 0
25.2 0.8 0
25.5 0.8 0
25.8 0.8 0
26.1 0.8 0
26.4 0.8 0
26.7 0.8 0
27 0.8 0
27.3 0.8 0
27.6 0.8 0
27.9 0.8 0
28.2 0.8 0
28.5 0.8 0
28.8 0.8 0
29.1 0.8 0
29.4 0.8 0
29.7 0.8 0
30 0.8 0
30.3 0.8 0
30.6 0.8 0
0 0.9 0
0.3 0.9 0
0.6 0.9 0
0.9 0.9 0
1.2 0.9 0
1.5 0.9 0
1.8 0.9 0
2.1 0.9 0
2.4 0.9 0
2.7 0.9 0
3 0.9 0
3.3 0.9 0
3.6 0.9 0
3.9 0.9 0
4.2 0.9 0
4.5 0.9 0
4.8 0.9 0
5.1 0.9 0
5.4 0.9 0
5.7 0.9 0
6 0.9 0
6.3 0.9 0
6.6 0.9 0
6.9 0.9 0
7.2 0.9 0
7.5 0.9 0
7.8 0.9 0
8.1 0.9 0
8.4 0.9 0
8.7 0.9 0
9 0.9 0
9.3 0.9 0
9.6 0.9 0
9.9 0.9 0
10.2 0.9 0
10.5 0.9 0
10.8 0.9 0
11.1 0.9 0
11.4 0.9 0
11.7 0.9 0
12 0.9 0
12.3 0.9 0
12.6 0.9 0
12.9 0.9 0
13.2 0.9 0
13.5 0.9 0
13.8 0.9 0
14.1 0.9 0
14.4 0.9 0
14.7 0.9 0
15 0.9 0
15.3 0.9 0
15.6 0.9 0
15.9 0.9 0
16.2 0.9 0
16.5 0.9 0
16.8 0.9 0
17.1 0.9 0
17.4 0.9 0
17.7 0.9 0
18 0.9 0
18.3 0.9 0
18.6 0.9 0
18.9 0.9 0
19.2 0.9 0
19.5 0.9 0
19.8 0.9 0
20.1 0.9 0
20.4 0.9 0
20.7 0.9 0
21 0.9 0
21.3 0.9 0
21.6 0.9 0
21.9 0.9 0
22.2 0.9 0
22.5 0.9 0
22.8 0.9 0
23.1 0.9 0
23.4 0.9 0
23.7 0.9 0
24 0.9 0
24.3 0.9 0
24.6 0.9 0
24.9 0.9 0
25.2 0.9 0
25.5 0.9 0
25.8 0.9 0
26.1 0.9 0
26.4 0.9 0
26.7 0.9 0
27 0.9 0
27.3 0.9 0
27.6 0.9 0
27.9 0.9 0
28.2 0.9 0
28.5 0.9 0
28.8 0.9 0
29.1 0.9 0
29.4 0.9 0
29.7 0.9 0
30 0.9 0
30.3 0.9 0
30.6 0.9 0
0 1 0
0.3 1 0
0.6 1 0
0.9 1 0
1.2 1 0
1.5 1 0
1.8 1 0
2.1 1 0
2.4 1 0
2.7 1 0
3 1 0
3.3 1 0
3.6 1 0
3.9 1 0
4.2 1 0
4.5 1 0
4.8 1 0
5.1 1 0
5.4 1 0
5.7 1 0
6 1 0
6.3 1 0
6.6 1 0
6.9 1 0
7.2 1 0
7.5 1 0
7.8 1 0
8.1 1 0
8.4 1 0
8.7 1 0
9 1 0
9.3 1 0
9.6 1 0
9.9 1 0
10.2 1 0
10.5 1 0
10.8 1 0
11.1 1 0
11.4 1 0
11.7 1 0
12 1 0
12.3 1 0
12.6 1 0
12.9 1 0
13.2 1 0
13.5 1 0
13.8 1 0
14.1 1 0
14.4 1 0
14.7 1 0
15 1 0
15.3 1 0
15.6 1 0
15.9 1 0
16.2 1 0
16.5 1 0
16.8 1 0
17.1 1 0
17.4 1 0
17.7 1 0
18 1 0
18.3 1 0
18.6 1 0
18.9 1 0
19.2 1 0
19.5 1 0
19.8 1 0
20.1 1 0
20.4 1 0
20.7 1 0
21 1 0
21.3 1 0
21.6 1 0
21.9 1 0
22.2 1 0
22.5 1 0
22.8 1 0
23.1 1 0
23.4 1 0
23.7 1 0
24 1 0
24.3 1 0
24.6 1 0
24.9 1 0
25.2 1 0
25.5 1 0
25.8 1 0
26.1 1 0
26.4 1 0
26.7 1 0
27 1 0
27.3 1 0
27.6 1 0
27.9 1 0
28.2 1 0
28.5 1 0
28.8 1 0
29.1 1 0
29.4 1 0
29.7 1 0
30 1 0
30.3 1 0
30.6 1 0
0 1.1 0
0.3 1.1 0
0.6 1.1 0
0.9 1.1 0
1.2 1.1 0
1.5 1.1 0
1.8 1.1 0
2.1 1.1 0
2.4 1.1 0
2.7 1.1 0
3 1.1 0
3.3 1.1 0
3.6 1.1 0
3.9 1.1 0
4.2 1.1 0
4.5 1.1 0
4.8 1.1 0
5.1 1.1 0
5.4 1.1 0
5.7 1.1 0
6 1.1 0
6.3 1.1 0
6.6 1.1 0
6.9 1.1 0
7.2 1.1 0
7.5 1.1 0
7.8 1.1 0
8.1 1.1 0
8.4 1.1 0
8.7 1.1 0
9 1.1 0
9.3 1.1 0
9.6 1.1 0
9.9 1.1 0
10.2 1.1 0
10.5 1.1 0
10.8 1.1 0
11.1 1.1 0
11.4 1.1 0
11.7 1.1 0
12 1.1 0
12.3 1.1 0
12.6 1.1 0
12.9 1.1 0
13.2 1.1 0
13.5 1.1 0
13.8 1.1 0
14.1 1.1 0
14.4 1.1 0
14.7 1.1 0
15 1.1 0
15.3 1.1 0
15.6 1.1 0
15.9 1.1 0
16.2 1.1 0
16.5 1.1 0
16.8 1.1 0
17.1 1.1 0
17.4 1.1 0
17.7 1.1 0
18 1.1 0
18.3 1.1 0
18.6 1.1 0
18.9 1.1 0
19.2 1.1 0
19.5 1.1 0
19.8 1.1 0
20.1 1.1 0
20.4 1.1 0
20.7 1.1 0
21 1.1 0
21.3 1.1 0
21.6 1.1 0
21.9 1.1 0
22.2 1.1 0
22.5 1.1 0
22.8 1.1 0
23.1 1.1 0
23.4 1.1 0
23.7 1.1 0
24 1.1 0
24.3 1.1 0
24.6 1.1 0
24.9 1.1 0
25.2 1.1 0
25.5 1.1 0
25.8 1.1 0
26.1 1.1 0
26.4 1.1 0
26.7 1.1 0
27 1.1 0
27.3 1.1 0
27.6 1.1 0
27.9 1.1 0
28.2 1.1 0
28.5 1.1 0
28.8 1.1 0
29.1 1.1 0
29.4 1.1 0
29.7 1.1 0
30 1.1 0
30.3 1.1 0
30.6 1.1 0
0 1.2 0
0.3 1.2 0
0.6 1.2 0
0.9 1.2 0
1.2 1.2 0
1.5 1.2 0
1.8 1.2 0
2.1 1.2 0
2.4 1.2 0
2.7 1.2 0
3 1.2 0
3.3 1.2 0
3.6 1.2 0
3.9 1.2 0
4.2 1.2 0
4.5 1.2 0
4.8 1.2 0
5.1 1.2 0
5.4 1.2 0
5.7 1.2 0
6 1.2 0
6.3 1.2 0
6.6 1.2 0
6.9 1.2 0
7.2 1.2 0
7.5 1.2 0
7.8 1.2 0
8.1 1.2 0
8.4 1.2 0
8.7 1.2 0
9 1.2 0
9.3 1.2 0
9.6 1.2 0
9.9 1.2 0
10.2 1.2 0
10.5 1.2 0
10.8 1.2 0
11.1 1.2 0
11.4 1.2 0
11.7 1.2 0
12 1.2 0
12.3 1.2 0
12.6 1.2 0
12.9 1.2 0
13.2 1.2 0
13.5 1.2 0
13.8 1.2 0
14.1 1.2 0
14.4 1.2 0
14.7 1.2 0
15 1.2 0
15.3 1.2 0
15.6 1.2 0
15.9 1.2 0
16.2 1.2 0
16.5 1.2 0
16.8 1.2 0
17.1 1.2 0
17.4 1.2 0
17.7 1.2 0
18 1.2 0
18.3 1.2 0
18.6 1.2 0
18.9 1.2 0
19.2 1.2 0
19.5 1.2 0
19.8 1.2 0
20.1 1.2 0
20.4 1.2 0
20.7 1.2 0
21 1.2 0
21.3 1.2 0
21.6 1.2 0
21.9 1.2 0
22.2 1.2 0
22.5 1.2 0
22.8 1.2 0
23.1 1.2 0
23.4 1.2 0
23.7 1.2 0
24 1.2 0
24.3 1.2 0
24.6 1.2 0
24.9 1.2 0
25.2 1.2 0
25.5 1.2 0
25.8 1.2 0
26.1 1.2 0
26.4 1.2 0
26.7 1.2 0
27 1.2 0
27.3 1.2 0
27.6 1.2 0
27.9 1.2 0
28.2 1.2 0
28.5 1.2 0
28.8 1.2 0
29.1 1.2 0
29.4 1.2 0
29.7 1.2 0
30 1.2 0
30.3 1.2 0
30.6 1.2 0

POINT_DATA 1339

SCALARS pressure double
LOOKUP_TABLE pressure
1.17128
1.17128
1.10644
1.0622
1.02238
0.985803
0.952751
0.923223
0.896868
0.873159
0.851555
0.831593
0.812901
0.795201
0.778293
0.762034
0.746317
0.731061
0.716208
0.701713
0.687539
0.673655
0.660033
0.646655
0.6335
0.620549
0.60779
0.595208
0.58279
0.570526
0.558405
0.546419
0.534558
0.522815
0.511182
0.499652
0.488221
0.476882
0.465629
0.454457
0.443361
0.432339
0.421385
0.410495
0.399666
0.388895
0.378178
0.367512
0.356895
0.346324
0.335796
0.32531
0.314862
0.304451
0.294075
0.283732
0.27342
0.263137
0.252882
0.242654
0.232451
0.222272
0.212115
0.201979
0.191863
0.181767
0.171688
0.161626
0.151581
0.141551
0.131536
0.121534
0.111546
0.101571
0.0916086
0.0816577
0.0717182
0.0617896
0.0518717
0.0419641
0.0320665
0.0221782
0.012299
0.00242849
-0.00743376
-0.0172883
-0.0271355
-0.0369759
-0.0468101
-0.0566385
-0.0664617
-0.0762801
-0.0860942
-0.0959046
-0.105712
-0.115516
-0.125317
-0.135117
-0.144914
-0.154711
-0.164506
-0.174299
0.174299
1.17128
1.17128
1.10644
1.0622
1.02238
0.985803
0.952751
0.923223
0.896868
0.873159
0.851555
0.831593
0.812901
0.795201
0.778293
0.762034
0.746317
0.731061
0.716208
0.701713
0.687539
0.673655
0.660033
0.646655
0.6335
0.620549
0.60779
0.595208
0.58279
0.570526
0.558405
0.546419
0.534558
0.522815
0.511182
0.499652
0.488221
0.476882
0.465629
0.454457
0.443361
0.432339
0.421385
0.410495
0.399666
0.388895
0.378178
0.367512
0.356895
0.346324
0.335796
0.32531
0.314862
0.304451
0.294075
0.283732
0.27342
0.263137
0.252882
0.242654
0.232451
0.222272
0.212115
0.201979
0.191863
0.181767
0.171688
0.161626
0.151581
0.141551
0.131536
0.121534
0.111546
0.101571
0.0916086
0.0816577
0.0717182
0.0617896
0.0518717
0.0419641
0.0320665
0.0221782
0.012299
0.00242849
-0.00743376
-0.0172883
-0.0271355
-0.0369759
-0.0468101
-0.0566385
-0.0664617
-0.0762801
-0.0860942
-0.0959046
-0.105712
-0.115516
-0.125317
-0.135117
-0.144914
-0.154711
-0.164506
-0.174299
0.174299
1.15034
1.15034
1.10445
1.06243
1.02308
0.9866
0.953494
0.923855
0.897376
0.873553
0.851859
0.831827
0.813083
0.795345
0.778411
0.762132
0.746399
0.731132
0.71627
0.701769
0.687589
0.673699
0.660074
0.646692
0.633533
0.62058
0.607818
0.595234
0.582814
0.570548
0.558426
0.546438
0.534576
0.522831
0.511197
0.499667
0.488235
0.476895
0.465641
0.454468
0.443372
0.432349
0.421394
0.410504
0.399674
0.388902
0.378185
0.367519
0.356901
0.34633
0.335802
0.325315
0.314867
0.304456
0.294079
0.283736
0.273424
0.263141
0.252886
0.242658
0.232454
0.222275
0.212118
0.201982
0.191866
0.181769
0.17169
0.161629
0.151583
0.141553
0.131538
0.121536
0.111548
0.101573
0.09161
0.081659
0.0717193
0.0617907
0.0518727
0.041965
0.0320672
0.0221789
0.0122996
0.00242901
-0.00743332
-0.0172879
-0.0271352
-0.0369757
-0.0468099
-0.0566383
-0.0664615
-0.0762799
-0.0860941
-0.0959045
-0.105712
-0.115516
-0.125317
-0.135117
-0.144914
-0.15471
-0.164506
-0.174299
0.174299
1.13536
1.13536
1.10157
1.06266
1.02419
0.987924
0.954755
0.924933
0.898237
0.874212
0.852352
0.832192
0.813354
0.79555
0.778569
0.762257
0.746501
0.731216
0.716341
0.70183
0.687642
0.673745
0.660115
0.646729
0.633566
0.62061
0.607845
0.595258
0.582837
0.570569
0.558445
0.546455
0.534592
0.522846
0.511211
0.49968
0.488247
0.476906
0.465651
0.454477
0.443381
0.432357
0.421402
0.410511
0.399681
0.388909
0.378191
0.367525
0.356907
0.346335
0.335807
0.325319
0.314871
0.30446
0.294083
0.283739
0.273427
0.263144
0.252889
0.24266
0.232457
0.222277
0.21212
0.201984
0.191868
0.181771
0.171692
0.16163
0.151585
0.141555
0.131539
0.121537
0.111549
0.101574
0.0916111
0.08166
0.0717203
0.0617915
0.0518735
0.0419657
0.0320678
0.0221794
0.0123
0.00242941
-0.00743297
-0.0172876
-0.0271349
-0.0369755
-0.0468097
-0.0566382
-0.0664614
-0.0762799
-0.0860941
-0.0959045
-0.105712
-0.115516
-0.125317
-0.135117
-0.144914
-0.15471
-0.164505
-0.174298
0.174298
1.12579
1.12579
1.09908
1.06277
1.02515
0.989119
0.955932
0.925969
0.89909
0.874885
0.852869
0.832587
0.813657
0.795785
0.778755
0.762407
0.746623
0.731319
0.716429
0.701906
0.687708
0.673804
0.660167
0.646775
0.633608
0.620647
0.607879
0.595289
0.582864
0.570594
0.558468
0.546476
0.534611
0.522864
0.511227
0.499695
0.488261
0.476919
0.465663
0.454488
0.443391
0.432367
0.421411
0.410519
0.399689
0.388916
0.378198
0.367531
0.356913
0.346341
0.335812
0.325324
0.314876
0.304464
0.294087
0.283743
0.273431
0.263147
0.252892
0.242664
0.23246
0.22228
0.212123
0.201986
0.19187
0.181773
0.171694
0.161632
0.151587
0.141556
0.131541
0.121539
0.111551
0.101575
0.0916124
0.0816612
0.0717214
0.0617927
0.0518745
0.0419667
0.0320687
0.0221802
0.0123008
0.00243014
-0.00743231
-0.017287
-0.0271344
-0.036975
-0.0468093
-0.0566378
-0.0664611
-0.0762796
-0.0860938
-0.0959043
-0.105711
-0.115516
-0.125317
-0.135117
-0.144914
-0.15471
-0.164504
-0.174296
0.174296
1.12047
1.12047
1.09745
1.06278
1.02574
0.989885
0.956701
0.926659
0.899667
0.875349
0.853234
0.832871
0.813879
0.795961
0.778898
0.762525
0.746722
0.731403
0.716503
0.70197
0.687765
0.673854
0.660212
0.646816
0.633645
0.620681
0.607909
0.595317
0.58289
0.570617
0.558489
0.546496
0.534629
0.522881
0.511243
0.499709
0.488274
0.476931
0.465674
0.454499
0.443401
0.432376
0.42142
0.410527
0.399697
0.388923
0.378205
0.367537
0.356919
0.346346
0.335817
0.325329
0.31488
0.304468
0.294091
0.283747
0.273434
0.263151
0.252895
0.242667
0.232463
0.222283
0.212125
0.201989
0.191872
0.181775
0.171696
0.161634
0.151588
0.141558
0.131542
0.121541
0.111552
0.101577
0.0916138
0.0816625
0.0717227
0.0617938
0.0518757
0.0419678
0.0320698
0.0221812
0.0123018
0.00243101
-0.00743151
-0.0172863
-0.0271337
-0.0369744
-0.0468087
-0.0566373
-0.0664606
-0.0762792
-0.0860935
-0.095904
-0.105711
-0.115515
-0.125317
-0.135117
-0.144914
-0.15471
-0.164503
-0.174294
0.174294
1.11877
1.11877
1.09691
1.0628
1.02595
0.990159
0.956974
0.926905
0.899874
0.875516
0.853366
0.832975
0.813962
0.796028
0.778952
0.76257
0.746761
0.731437
0.716532
0.701996
0.687788
0.673875
0.660231
0.646833
0.63366
0.620695
0.607922
0.595329
0.582901
0.570627
0.558499
0.546505
0.534637
0.522888
0.51125
0.499716
0.48828
0.476936
0.465679
0.454504
0.443406
0.432381
0.421423
0.410531
0.3997
0.388927
0.378208
0.36754
0.356921
0.346349
0.335819
0.325331
0.314882
0.30447
0.294093
0.283749
0.273436
0.263152
0.252897
0.242668
0.232464
0.222284
0.212126
0.20199
0.191873
0.181776
0.171697
0.161635
0.151589
0.141559
0.131543
0.121541
0.111553
0.101578
0.0916144
0.0816631
0.0717232
0.0617944
0.0518762
0.0419683
0.0320702
0.0221817
0.0123022
0.00243141
-0.00743113
-0.0172859
-0.0271334
-0.0369741
-0.0468085
-0.0566371
-0.0664604
-0.076279
-0.0860933
-0.0959038
-0.105711
-0.115515
-0.125317
-0.135116
-0.144914
-0.15471
-0.164503
-0.174293
0.174293
1.12047
1.12047
1.09745
1.06278
1.02574
0.989885
0.956701
0.926659
0.899667
0.875349
0.853234
0.832871
0.813879
0.795962
0.778898
0.762525
0.746722
0.731403
0.716503
0.70197
0.687765
0.673854
0.660213
0.646816
0.633644
0.620681
0.60791
0.595317
0.58289
0.570617
0.558489
0.546496
0.534629
0.522881
0.511243
0.499709
0.488274
0.476931
0.465674
0.454499
0.443402
0.432376
0.42142
0.410527
0.399697
0.388923
0.378205
0.367537
0.356919
0.346346
0.335817
0.325329
0.31488
0.304468
0.294091
0.283747
0.273434
0.263151
0.252895
0.242667
0.232463
0.222283
0.212125
0.201989
0.191872
0.181775
0.171696
0.161634
0.151588
0.141558
0.131542
0.121541
0.111552
0.101577
0.0916138
0.0816625
0.0717227
0.0617938
0.0518757
0.0419678
0.0320697
0.0221812
0.0123018
0.00243101
-0.00743151
-0.0172863
-0.0271337
-0.0369744
-0.0468087
-0.0566373
-0.0664606
-0.0762792
-0.0860935
-0.095904
-0.105711
-0.115515
-0.125317
-0.135117
-0.144914
-0.15471
-0.164503
-0.174294
0.174294
1.12579
1.12579
1.09908
1.06277
1.02515
0.989118
0.955932
0.92597
0.89909
0.874884
0.852869
0.832587
0.813656
0.795785
0.778755
0.762407
0.746623
0.731319
0.71643
0.701906
0.687708
0.673804
0.660167
0.646775
0.633607
0.620647
0.607879
0.595289
0.582864
0.570594
0.558468
0.546476
0.534611
0.522864
0.511227
0.499695
0.488261
0.476918
0.465663
0.454489
0.443392
0.432367
0.421411
0.410519
0.399689
0.388916
0.378198
0.367531
0.356913
0.346341
0.335812
0.325324
0.314876
0.304464
0.294087
0.283743
0.273431
0.263147
0.252892
0.242664
0.23246
0.22228
0.212123
0.201986
0.19187
0.181773
0.171694
0.161632
0.151587
0.141556
0.131541
0.121539
0.111551
0.101575
0.0916124
0.0816612
0.0717214
0.0617927
0.0518746
0.0419667
0.0320687
0.0221802
0.0123009
0.00243016
-0.00743231
-0.017287
-0.0271344
-0.036975
-0.0468093
-0.0566378
-0.0664611
-0.0762796
-0.0860938
-0.0959043
-0.105711
-0.115516
-0.125317
-0.135117
-0.144914
-0.15471
-0.164504
-0.174296
0.174296
1.13536
1.13536
1.10157
1.06266
1.02419
0.987923
0.954755
0.924933
0.898236
0.874212
0.852352
0.832192
0.813354
0.79555
0.77857
0.762257
0.7465
0.731216
0.716342
0.70183
0.687641
0.673745
0.660116
0.646729
0.633566
0.62061
0.607845
0.595258
0.582837
0.570569
0.558445
0.546455
0.534592
0.522846
0.511211
0.49968
0.488247
0.476905
0.465651
0.454477
0.443381
0.432357
0.421402
0.410511
0.399681
0.388909
0.378191
0.367525
0.356907
0.346335
0.335807
0.325319
0.314871
0.30446
0.294083
0.283739
0.273427
0.263144
0.252889
0.24266
0.232457
0.222277
0.21212
0.201984
0.191868
0.181771
0.171692
0.16163
0.151585
0.141554
0.131539
0.121538
0.111549
0.101574
0.0916111
0.08166
0.0717203
0.0617916
0.0518735
0.0419657
0.0320678
0.0221794
0.0123001
0.00242943
-0.00743297
-0.0172876
-0.0271349
-0.0369755
-0.0468097
-0.0566382
-0.0664614
-0.0762799
-0.0860941
-0.0959045
-0.105712
-0.115516
-0.125317
-0.135117
-0.144914
-0.15471
-0.164505
-0.174298
0.174298
1.15034
1.15034
1.10445
1.06243
1.02308
0.986599
0.953494
0.923855
0.897375
0.873553
0.85186
0.831827
0.813082
0.795345
0.778412
0.762132
0.746399
0.731132
0.716271
0.701769
0.687588
0.673699
0.660074
0.646692
0.633533
0.62058
0.607818
0.595234
0.582814
0.570548
0.558426
0.546438
0.534576
0.522831
0.511197
0.499667
0.488235
0.476894
0.46564
0.454468
0.443372
0.432349
0.421394
0.410504
0.399674
0.388902
0.378185
0.367519
0.356901
0.34633
0.335802
0.325315
0.314867
0.304456
0.294079
0.283736
0.273424
0.263141
0.252886
0.242658
0.232454
0.222275
0.212118
0.201982
0.191866
0.181769
0.17169
0.161629
0.151583
0.141553
0.131538
0.121536
0.111548
0.101573
0.09161
0.081659
0.0717193
0.0617907
0.0518728
0.041965
0.0320672
0.0221789
0.0122996
0.00242904
-0.00743331
-0.0172879
-0.0271352
-0.0369757
-0.0468099
-0.0566383
-0.0664615
-0.0762799
-0.0860941
-0.0959045
-0.105712
-0.115516
-0.125317
-0.135117
-0.144914
-0.154711
-0.164506
-0.174299
0.174299
1.17128
1.17128
1.10644
1.0622
1.02238
0.985803
0.952751
0.923224
0.896867
0.873158
0.851556
0.831593
0.8129
0.795201
0.778294
0.762035
0.746316
0.73106
0.716208
0.701714
0.687539
0.673654
0.660034
0.646655
0.633499
0.620549
0.60779
0.595208
0.58279
0.570526
0.558405
0.546419
0.534558
0.522814
0.511182
0.499653
0.488221
0.476882
0.465628
0.454457
0.443362
0.432339
0.421385
0.410495
0.399666
0.388895
0.378178
0.367512
0.356895
0.346324
0.335796
0.32531
0.314862
0.304451
0.294075
0.283732
0.273419
0.263137
0.252882
0.242654
0.232451
0.222272
0.212115
0.201979
0.191863
0.181767
0.171688
0.161626
0.151581
0.141551
0.131536
0.121534
0.111547
0.101571
0.0916086
0.0816577
0.0717181
0.0617896
0.0518718
0.0419642
0.0320664
0.0221782
0.012299
0.00242852
-0.00743375
-0.0172882
-0.0271355
-0.0369759
-0.0468101
-0.0566385
-0.0664616
-0.07628
-0.0860942
-0.0959046
-0.105712
-0.115516
-0.125317
-0.135117
-0.144914
-0.154711
-0.164506
-0.174299
0.174299
1.17128
1.17128
1.10644
1.0622
1.02238
0.985803
0.952751
0.923224
0.896867
0.873158
0.851556
0.831593
0.8129
0.795201
0.778294
0.762035
0.746316
0.73106
0.716208
0.701714
0.687539
0.673654
0.660034
0.646655
0.633499
0.620549
0.60779
0.595208
0.58279
0.570526
0.558405
0.546419
0.534558
0.522814
0.511182
0.499653
0.488221
0.476882
0.465628
0.454457
0.443362
0.432339
0.421385
0.410495
0.399666
0.388895
0.378178
0.367512
0.356895
0.346324
0.335796
0.32531
0.314862
0.304451
0.294075
0.283732
0.273419
0.263137
0.252882
0.242654
0.232451
0.222272
0.212115
0.201979
0.191863
0.181767
0.171688
0.161626
0.151581
0.141551
0.131536
0.121534
0.111547
0.101571
0.0916086
0.0816577
0.0717181
0.0617896
0.0518718
0.0419642
0.0320664
0.0221782
0.012299
0.00242852
-0.00743375
-0.0172882
-0.0271355
-0.0369759
-0.0468101
-0.0566385
-0.0664616
-0.07628
-0.0860942
-0.0959046
-0.105712
-0.115516
-0.125317
-0.135117
-0.144914
-0.154711
-0.164506
-0.174299
0.174299
SCALARS phi double
LOOKUP_TABLE phi
1
1
1
1
0.999999
0.999994
0.999983
0.999958
0.99991
0.99983
0.999706
0.999526
0.999278
0.998951
0.998536
0.998024
0.997407
0.996678
0.995834
0.994869
0.993783
0.992573
0.991242
0.98979
0.988217
0.986516
0.984664
0.98262
0.98032
0.977678
0.974588
0.970936
0.966603
0.961474
0.955449
0.948444
0.940394
0.931257
0.921012
0.909659
0.897219
0.883727
0.869234
0.853804
0.837508
0.820424
0.802635
0.784227
0.765285
0.745894
0.726136
0.706092
0.685837
0.665441
0.644972
0.624491
0.604055
0.583715
0.563518
0.543506
0.523716
0.504182
0.484933
0.465994
0.447388
0.429132
0.411242
0.393732
0.376611
0.359888
0.343568
0.327656
0.312155
0.297065
0.282387
0.268119
0.25426
0.240807
0.227757
0.215106
0.202851
0.190987
0.179512
0.168421
0.157711
0.147379
0.137422
0.127838
0.118626
0.109784
0.101311
0.0932083
0.0854754
0.0781133
0.071123
0.0645047
0.0582619
0.0523855
0.0469092
0.0417087
0.0372282
0.0318079
0.0318079
1
1
1
1
0.999999
0.999994
0.999983
0.999958
0.99991
0.99983
0.999706
0.999526
0.999278
0.998951
0.998536
0.998024
0.997407
0.996678
0.995834
0.994869
0.993783
0.992573
0.991242
0.98979
0.988217
0.986516
0.984664
0.98262
0.98032
0.977678
0.974588
0.970936
0.966603
0.961474
0.955449
0.948444
0.940394
0.931257
0.921012
0.909659
0.897219
0.883727
0.869234
0.853804
0.837508
0.820424
0.802635
0.784227
0.765285
0.745894
0.726136
0.706092
0.685837
0.665441
0.644972
0.624491
0.604055
0.583715
0.563518
0.543506
0.523716
0.504182
0.484933
0.465994
0.447388
0.429132
0.411242
0.393732
0.376611
0.359888
0.343568
0.327656
0.312155
0.297065
0.282387
0.268119
0.25426
0.240807
0.227757
0.215106
0.202851
0.190987
0.179512
0.168421
0.157711
0.147379
0.137422
0.127838
0.118626
0.109784
0.101311
0.0932083
0.0854754
0.0781133
0.071123
0.0645047
0.0582619
0.0523855
0.0469092
0.0417087
0.0372282
0.0318079
0.0318079
1
1
1
0.999996
0.999983
0.999954
0.999898
0.999804
0.999658
0.999447
0.999157
0.998778
0.9983
0.997714
0.997014
0.996196
0.995256
0.994192
0.993003
0.991689
0.990252
0.988693
0.987016
0.985224
0.983321
0.98131
0.97919
0.976954
0.974588
0.972062
0.969336
0.966357
0.96306
0.959371
0.955215
0.950514
0.945195
0.939191
0.932447
0.924916
0.916567
0.90738
0.89735
0.886483
0.874795
0.862316
0.849082
0.835136
0.820529
0.805314
0.789549
0.773293
0.756605
0.739544
0.722171
0.704541
0.68671
0.66873
0.65065
0.632519
0.614379
0.596272
0.578233
0.560299
0.542499
0.524863
0.507416
0.49018
0.473176
0.456421
0.43993
0.423717
0.407792
0.392164
0.376841
0.361827
0.347125
0.332739
0.318668
0.304912
0.291469
0.278336
0.26551
0.252986
0.240759
0.228823
0.217172
0.205801
0.194704
0.183875
0.173309
0.163002
0.152952
0.143157
0.133618
0.124336
0.115324
0.106564
0.0981525
0.0898084
0.0825564
0.0729363
0.0729363
0.999997
1
0.99998
0.999897
0.999724
0.999434
0.998999
0.998397
0.997613
0.996636
0.995464
0.994099
0.992547
0.990816
0.988916
0.986859
0.984656
0.982317
0.979854
0.977278
0.974598
0.971826
0.968969
0.966036
0.963037
0.959977
0.956863
0.9537
0.950491
0.947235
0.943925
0.940551
0.937095
0.933533
0.929835
0.925968
0.921891
0.917563
0.91294
0.907981
0.902644
0.896892
0.890691
0.884011
0.876831
0.869134
0.860908
0.852149
0.842859
0.833044
0.822716
0.811893
0.800594
0.788844
0.77667
0.764101
0.751167
0.737901
0.724335
0.710503
0.696438
0.682171
0.667736
0.653163
0.638482
0.623722
0.60891
0.594074
0.579236
0.564421
0.54965
0.534943
0.520317
0.50579
0.491376
0.477088
0.462938
0.448934
0.435084
0.421395
0.407869
0.39451
0.381318
0.36829
0.355425
0.342717
0.33016
0.317745
0.305463
0.293304
0.281254
0.269302
0.257433
0.245635
0.233897
0.222204
0.210565
0.198925
0.187458
0.17561
0.165236
0.150396
0.150396
0.999999
1
0.99943
0.998224
0.996402
0.994008
0.991093
0.987716
0.983939
0.979828
0.975446
0.970853
0.966102
0.961239
0.9563
0.951318
0.946317
0.94132
0.936342
0.931396
0.926494
0.921643
0.91685
0.91212