# vtk DataFile Version 3.0
FlowField
ASCII
DATASET STRUCTURED_GRID
DIMENSIONS 103 13 1 
POINTS 1339 double
0 0 0
0.3 0 0
0.6 0 0
0.9 0 0
1.2 0 0
1.5 0 0
1.8 0 0
2.1 0 0
2.4 0 0
2.7 0 0
3 0 0
3.3 0 0
3.6 0 0
3.9 0 0
4.2 0 0
4.5 0 0
4.8 0 0
5.1 0 0
5.4 0 0
5.7 0 0
6 0 0
6.3 0 0
6.6 0 0
6.9 0 0
7.2 0 0
7.5 0 0
7.8 0 0
8.1 0 0
8.4 0 0
8.7 0 0
9 0 0
9.3 0 0
9.6 0 0
9.9 0 0
10.2 0 0
10.5 0 0
10.8 0 0
11.1 0 0
11.4 0 0
11.7 0 0
12 0 0
12.3 0 0
12.6 0 0
12.9 0 0
13.2 0 0
13.5 0 0
13.8 0 0
14.1 0 0
14.4 0 0
14.7 0 0
15 0 0
15.3 0 0
15.6 0 0
15.9 0 0
16.2 0 0
16.5 0 0
16.8 0 0
17.1 0 0
17.4 0 0
17.7 0 0
18 0 0
18.3 0 0
18.6 0 0
18.9 0 0
19.2 0 0
19.5 0 0
19.8 0 0
20.1 0 0
20.4 0 0
20.7 0 0
21 0 0
21.3 0 0
21.6 0 0
21.9 0 0
22.2 0 0
22.5 0 0
22.8 0 0
23.1 0 0
23.4 0 0
23.7 0 0
24 0 0
24.3 0 0
24.6 0 0
24.9 0 0
25.2 0 0
25.5 0 0
25.8 0 0
26.1 0 0
26.4 0 0
26.7 0 0
27 0 0
27.3 0 0
27.6 0 0
27.9 0 0
28.2 0 0
28.5 0 0
28.8 0 0
29.1 0 0
29.4 0 0
29.7 0 0
30 0 0
30.3 0 0
30.6 0 0
0 0.1 0
0.3 0.1 0
0.6 0.1 0
0.9 0.1 0
1.2 0.1 0
1.5 0.1 0
1.8 0.1 0
2.1 0.1 0
2.4 0.1 0
2.7 0.1 0
3 0.1 0
3.3 0.1 0
3.6 0.1 0
3.9 0.1 0
4.2 0.1 0
4.5 0.1 0
4.8 0.1 0
5.1 0.1 0
5.4 0.1 0
5.7 0.1 0
6 0.1 0
6.3 0.1 0
6.6 0.1 0
6.9 0.1 0
7.2 0.1 0
7.5 0.1 0
7.8 0.1 0
8.1 0.1 0
8.4 0.1 0
8.7 0.1 0
9 0.1 0
9.3 0.1 0
9.6 0.1 0
9.9 0.1 0
10.2 0.1 0
10.5 0.1 0
10.8 0.1 0
11.1 0.1 0
11.4 0.1 0
11.7 0.1 0
12 0.1 0
12.3 0.1 0
12.6 0.1 0
12.9 0.1 0
13.2 0.1 0
13.5 0.1 0
13.8 0.1 0
14.1 0.1 0
14.4 0.1 0
14.7 0.1 0
15 0.1 0
15.3 0.1 0
15.6 0.1 0
15.9 0.1 0
16.2 0.1 0
16.5 0.1 0
16.8 0.1 0
17.1 0.1 0
17.4 0.1 0
17.7 0.1 0
18 0.1 0
18.3 0.1 0
18.6 0.1 0
18.9 0.1 0
19.2 0.1 0
19.5 0.1 0
19.8 0.1 0
20.1 0.1 0
20.4 0.1 0
20.7 0.1 0
21 0.1 0
21.3 0.1 0
21.6 0.1 0
21.9 0.1 0
22.2 0.1 0
22.5 0.1 0
22.8 0.1 0
23.1 0.1 0
23.4 0.1 0
23.7 0.1 0
24 0.1 0
24.3 0.1 0
24.6 0.1 0
24.9 0.1 0
25.2 0.1 0
25.5 0.1 0
25.8 0.1 0
26.1 0.1 0
26.4 0.1 0
26.7 0.1 0
27 0.1 0
27.3 0.1 0
27.6 0.1 0
27.9 0.1 0
28.2 0.1 0
28.5 0.1 0
28.8 0.1 0
29.1 0.1 0
29.4 0.1 0
29.7 0.1 0
30 0.1 0
30.3 0.1 0
30.6 0.1 0
0 0.2 0
0.3 0.2 0
0.6 0.2 0
0.9 0.2 0
1.2 0.2 0
1.5 0.2 0
1.8 0.2 0
2.1 0.2 0
2.4 0.2 0
2.7 0.2 0
3 0.2 0
3.3 0.2 0
3.6 0.2 0
3.9 0.2 0
4.2 0.2 0
4.5 0.2 0
4.8 0.2 0
5.1 0.2 0
5.4 0.2 0
5.7 0.2 0
6 0.2 0
6.3 0.2 0
6.6 0.2 0
6.9 0.2 0
7.2 0.2 0
7.5 0.2 0
7.8 0.2 0
8.1 0.2 0
8.4 0.2 0
8.7 0.2 0
9 0.2 0
9.3 0.2 0
9.6 0.2 0
9.9 0.2 0
10.2 0.2 0
10.5 0.2 0
10.8 0.2 0
11.1 0.2 0
11.4 0.2 0
11.7 0.2 0
12 0.2 0
12.3 0.2 0
12.6 0.2 0
12.9 0.2 0
13.2 0.2 0
13.5 0.2 0
13.8 0.2 0
14.1 0.2 0
14.4 0.2 0
14.7 0.2 0
15 0.2 0
15.3 0.2 0
15.6 0.2 0
15.9 0.2 0
16.2 0.2 0
16.5 0.2 0
16.8 0.2 0
17.1 0.2 0
17.4 0.2 0
17.7 0.2 0
18 0.2 0
18.3 0.2 0
18.6 0.2 0
18.9 0.2 0
19.2 0.2 0
19.5 0.2 0
19.8 0.2 0
20.1 0.2 0
20.4 0.2 0
20.7 0.2 0
21 0.2 0
21.3 0.2 0
21.6 0.2 0
21.9 0.2 0
22.2 0.2 0
22.5 0.2 0
22.8 0.2 0
23.1 0.2 0
23.4 0.2 0
23.7 0.2 0
24 0.2 0
24.3 0.2 0
24.6 0.2 0
24.9 0.2 0
25.2 0.2 0
25.5 0.2 0
25.8 0.2 0
26.1 0.2 0
26.4 0.2 0
26.7 0.2 0
27 0.2 0
27.3 0.2 0
27.6 0.2 0
27.9 0.2 0
28.2 0.2 0
28.5 0.2 0
28.8 0.2 0
29.1 0.2 0
29.4 0.2 0
29.7 0.2 0
30 0.2 0
30.3 0.2 0
30.6 0.2 0
0 0.3 0
0.3 0.3 0
0.6 0.3 0
0.9 0.3 0
1.2 0.3 0
1.5 0.3 0
1.8 0.3 0
2.1 0.3 0
2.4 0.3 0
2.7 0.3 0
3 0.3 0
3.3 0.3 0
3.6 0.3 0
3.9 0.3 0
4.2 0.3 0
4.5 0.3 0
4.8 0.3 0
5.1 0.3 0
5.4 0.3 0
5.7 0.3 0
6 0.3 0
6.3 0.3 0
6.6 0.3 0
6.9 0.3 0
7.2 0.3 0
7.5 0.3 0
7.8 0.3 0
8.1 0.3 0
8.4 0.3 0
8.7 0.3 0
9 0.3 0
9.3 0.3 0
9.6 0.3 0
9.9 0.3 0
10.2 0.3 0
10.5 0.3 0
10.8 0.3 0
11.1 0.3 0
11.4 0.3 0
11.7 0.3 0
12 0.3 0
12.3 0.3 0
12.6 0.3 0
12.9 0.3 0
13.2 0.3 0
13.5 0.3 0
13.8 0.3 0
14.1 0.3 0
14.4 0.3 0
14.7 0.3 0
15 0.3 0
15.3 0.3 0
15.6 0.3 0
15.9 0.3 0
16.2 0.3 0
16.5 0.3 0
16.8 0.3 0
17.1 0.3 0
17.4 0.3 0
17.7 0.3 0
18 0.3 0
18.3 0.3 0
18.6 0.3 0
18.9 0.3 0
19.2 0.3 0
19.5 0.3 0
19.8 0.3 0
20.1 0.3 0
20.4 0.3 0
20.7 0.3 0
21 0.3 0
21.3 0.3 0
21.6 0.3 0
21.9 0.3 0
22.2 0.3 0
22.5 0.3 0
22.8 0.3 0
23.1 0.3 0
23.4 0.3 0
23.7 0.3 0
24 0.3 0
24.3 0.3 0
24.6 0.3 0
24.9 0.3 0
25.2 0.3 0
25.5 0.3 0
25.8 0.3 0
26.1 0.3 0
26.4 0.3 0
26.7 0.3 0
27 0.3 0
27.3 0.3 0
27.6 0.3 0
27.9 0.3 0
28.2 0.3 0
28.5 0.3 0
28.8 0.3 0
29.1 0.3 0
29.4 0.3 0
29.7 0.3 0
30 0.3 0
30.3 0.3 0
30.6 0.3 0
0 0.4 0
0.3 0.4 0
0.6 0.4 0
0.9 0.4 0
1.2 0.4 0
1.5 0.4 0
1.8 0.4 0
2.1 0.4 0
2.4 0.4 0
2.7 0.4 0
3 0.4 0
3.3 0.4 0
3.6 0.4 0
3.9 0.4 0
4.2 0.4 0
4.5 0.4 0
4.8 0.4 0
5.1 0.4 0
5.4 0.4 0
5.7 0.4 0
6 0.4 0
6.3 0.4 0
6.6 0.4 0
6.9 0.4 0
7.2 0.4 0
7.5 0.4 0
7.8 0.4 0
8.1 0.4 0
8.4 0.4 0
8.7 0.4 0
9 0.4 0
9.3 0.4 0
9.6 0.4 0
9.9 0.4 0
10.2 0.4 0
10.5 0.4 0
10.8 0.4 0
11.1 0.4 0
11.4 0.4 0
11.7 0.4 0
12 0.4 0
12.3 0.4 0
12.6 0.4 0
12.9 0.4 0
13.2 0.4 0
13.5 0.4 0
13.8 0.4 0
14.1 0.4 0
14.4 0.4 0
14.7 0.4 0
15 0.4 0
15.3 0.4 0
15.6 0.4 0
15.9 0.4 0
16.2 0.4 0
16.5 0.4 0
16.8 0.4 0
17.1 0.4 0
17.4 0.4 0
17.7 0.4 0
18 0.4 0
18.3 0.4 0
18.6 0.4 0
18.9 0.4 0
19.2 0.4 0
19.5 0.4 0
19.8 0.4 0
20.1 0.4 0
20.4 0.4 0
20.7 0.4 0
21 0.4 0
21.3 0.4 0
21.6 0.4 0
21.9 0.4 0
22.2 0.4 0
22.5 0.4 0
22.8 0.4 0
23.1 0.4 0
23.4 0.4 0
23.7 0.4 0
24 0.4 0
24.3 0.4 0
24.6 0.4 0
24.9 0.4 0
25.2 0.4 0
25.5 0.4 0
25.8 0.4 0
26.1 0.4 0
26.4 0.4 0
26.7 0.4 0
27 0.4 0
27.3 0.4 0
27.6 0.4 0
27.9 0.4 0
28.2 0.4 0
28.5 0.4 0
28.8 0.4 0
29.1 0.4 0
29.4 0.4 0
29.7 0.4 0
30 0.4 0
30.3 0.4 0
30.6 0.4 0
0 0.5 0
0.3 0.5 0
0.6 0.5 0
0.9 0.5 0
1.2 0.5 0
1.5 0.5 0
1.8 0.5 0
2.1 0.5 0
2.4 0.5 0
2.7 0.5 0
3 0.5 0
3.3 0.5 0
3.6 0.5 0
3.9 0.5 0
4.2 0.5 0
4.5 0.5 0
4.8 0.5 0
5.1 0.5 0
5.4 0.5 0
5.7 0.5 0
6 0.5 0
6.3 0.5 0
6.6 0.5 0
6.9 0.5 0
7.2 0.5 0
7.5 0.5 0
7.8 0.5 0
8.1 0.5 0
8.4 0.5 0
8.7 0.5 0
9 0.5 0
9.3 0.5 0
9.6 0.5 0
9.9 0.5 0
10.2 0.5 0
10.5 0.5 0
10.8 0.5 0
11.1 0.5 0
11.4 0.5 0
11.7 0.5 0
12 0.5 0
12.3 0.5 0
12.6 0.5 0
12.9 0.5 0
13.2 0.5 0
13.5 0.5 0
13.8 0.5 0
14.1 0.5 0
14.4 0.5 0
14.7 0.5 0
15 0.5 0
15.3 0.5 0
15.6 0.5 0
15.9 0.5 0
16.2 0.5 0
16.5 0.5 0
16.8 0.5 0
17.1 0.5 0
17.4 0.5 0
17.7 0.5 0
18 0.5 0
18.3 0.5 0
18.6 0.5 0
18.9 0.5 0
19.2 0.5 0
19.5 0.5 0
19.8 0.5 0
20.1 0.5 0
20.4 0.5 0
20.7 0.5 0
21 0.5 0
21.3 0.5 0
21.6 0.5 0
21.9 0.5 0
22.2 0.5 0
22.5 0.5 0
22.8 0.5 0
23.1 0.5 0
23.4 0.5 0
23.7 0.5 0
24 0.5 0
24.3 0.5 0
24.6 0.5 0
24.9 0.5 0
25.2 0.5 0
25.5 0.5 0
25.8 0.5 0
26.1 0.5 0
26.4 0.5 0
26.7 0.5 0
27 0.5 0
27.3 0.5 0
27.6 0.5 0
27.9 0.5 0
28.2 0.5 0
28.5 0.5 0
28.8 0.5 0
29.1 0.5 0
29.4 0.5 0
29.7 0.5 0
30 0.5 0
30.3 0.5 0
30.6 0.5 0
0 0.6 0
0.3 0.6 0
0.6 0.6 0
0.9 0.6 0
1.2 0.6 0
1.5 0.6 0
1.8 0.6 0
2.1 0.6 0
2.4 0.6 0
2.7 0.6 0
3 0.6 0
3.3 0.6 0
3.6 0.6 0
3.9 0.6 0
4.2 0.6 0
4.5 0.6 0
4.8 0.6 0
5.1 0.6 0
5.4 0.6 0
5.7 0.6 0
6 0.6 0
6.3 0.6 0
6.6 0.6 0
6.9 0.6 0
7.2 0.6 0
7.5 0.6 0
7.8 0.6 0
8.1 0.6 0
8.4 0.6 0
8.7 0.6 0
9 0.6 0
9.3 0.6 0
9.6 0.6 0
9.9 0.6 0
10.2 0.6 0
10.5 0.6 0
10.8 0.6 0
11.1 0.6 0
11.4 0.6 0
11.7 0.6 0
12 0.6 0
12.3 0.6 0
12.6 0.6 0
12.9 0.6 0
13.2 0.6 0
13.5 0.6 0
13.8 0.6 0
14.1 0.6 0
14.4 0.6 0
14.7 0.6 0
15 0.6 0
15.3 0.6 0
15.6 0.6 0
15.9 0.6 0
16.2 0.6 0
16.5 0.6 0
16.8 0.6 0
17.1 0.6 0
17.4 0.6 0
17.7 0.6 0
18 0.6 0
18.3 0.6 0
18.6 0.6 0
18.9 0.6 0
19.2 0.6 0
19.5 0.6 0
19.8 0.6 0
20.1 0.6 0
20.4 0.6 0
20.7 0.6 0
21 0.6 0
21.3 0.6 0
21.6 0.6 0
21.9 0.6 0
22.2 0.6 0
22.5 0.6 0
22.8 0.6 0
23.1 0.6 0
23.4 0.6 0
23.7 0.6 0
24 0.6 0
24.3 0.6 0
24.6 0.6 0
24.9 0.6 0
25.2 0.6 0
25.5 0.6 0
25.8 0.6 0
26.1 0.6 0
26.4 0.6 0
26.7 0.6 0
27 0.6 0
27.3 0.6 0
27.6 0.6 0
27.9 0.6 0
28.2 0.6 0
28.5 0.6 0
28.8 0.6 0
29.1 0.6 0
29.4 0.6 0
29.7 0.6 0
30 0.6 0
30.3 0.6 0
30.6 0.6 0
0 0.7 0
0.3 0.7 0
0.6 0.7 0
0.9 0.7 0
1.2 0.7 0
1.5 0.7 0
1.8 0.7 0
2.1 0.7 0
2.4 0.7 0
2.7 0.7 0
3 0.7 0
3.3 0.7 0
3.6 0.7 0
3.9 0.7 0
4.2 0.7 0
4.5 0.7 0
4.8 0.7 0
5.1 0.7 0
5.4 0.7 0
5.7 0.7 0
6 0.7 0
6.3 0.7 0
6.6 0.7 0
6.9 0.7 0
7.2 0.7 0
7.5 0.7 0
7.8 0.7 0
8.1 0.7 0
8.4 0.7 0
8.7 0.7 0
9 0.7 0
9.3 0.7 0
9.6 0.7 0
9.9 0.7 0
10.2 0.7 0
10.5 0.7 0
10.8 0.7 0
11.1 0.7 0
11.4 0.7 0
11.7 0.7 0
12 0.7 0
12.3 0.7 0
12.6 0.7 0
12.9 0.7 0
13.2 0.7 0
13.5 0.7 0
13.8 0.7 0
14.1 0.7 0
14.4 0.7 0
14.7 0.7 0
15 0.7 0
15.3 0.7 0
15.6 0.7 0
15.9 0.7 0
16.2 0.7 0
16.5 0.7 0
16.8 0.7 0
17.1 0.7 0
17.4 0.7 0
17.7 0.7 0
18 0.7 0
18.3 0.7 0
18.6 0.7 0
18.9 0.7 0
19.2 0.7 0
19.5 0.7 0
19.8 0.7 0
20.1 0.7 0
20.4 0.7 0
20.7 0.7 0
21 0.7 0
21.3 0.7 0
21.6 0.7 0
21.9 0.7 0
22.2 0.7 0
22.5 0.7 0
22.8 0.7 0
23.1 0.7 0
23.4 0.7 0
23.7 0.7 0
24 0.7 0
24.3 0.7 0
24.6 0.7 0
24.9 0.7 0
25.2 0.7 0
25.5 0.7 0
25.8 0.7 0
26.1 0.7 0
26.4 0.7 0
26.7 0.7 0
27 0.7 0
27.3 0.7 0
27.6 0.7 0
27.9 0.7 0
28.2 0.7 0
28.5 0.7 0
28.8 0.7 0
29.1 0.7 0
29.4 0.7 0
29.7 0.7 0
30 0.7 0
30.3 0.7 0
30.6 0.7 0
0 0.8 0
0.3 0.8 0
0.6 0.8 0
0.9 0.8 0
1.2 0.8 0
1.5 0.8 0
1.8 0.8 0
2.1 0.8 0
2.4 0.8 0
2.7 0.8 0
3 0.8 0
3.3 0.8 0
3.6 0.8 0
3.9 0.8 0
4.2 0.8 0
4.5 0.8 0
4.8 0.8 0
5.1 0.8 0
5.4 0.8 0
5.7 0.8 0
6 0.8 0
6.3 0.8 0
6.6 0.8 0
6.9 0.8 0
7.2 0.8 0
7.5 0.8 0
7.8 0.8 0
8.1 0.8 0
8.4 0.8 0
8.7 0.8 0
9 0.8 0
9.3 0.8 0
9.6 0.8 0
9.9 0.8 0
10.2 0.8 0
10.5 0.8 0
10.8 0.8 0
11.1 0.8 0
11.4 0.8 0
11.7 0.8 0
12 0.8 0
12.3 0.8 0
12.6 0.8 0
12.9 0.8 0
13.2 0.8 0
13.5 0.8 0
13.8 0.8 0
14.1 0.8 0
14.4 0.8 0
14.7 0.8 0
15 0.8 0
15.3 0.8 0
15.6 0.8 0
15.9 0.8 0
16.2 0.8 0
16.5 0.8 0
16.8 0.8 0
17.1 0.8 0
17.4 0.8 0
17.7 0.8 0
18 0.8 0
18.3 0.8 0
18.6 0.8 0
18.9 0.8 0
19.2 0.8 0
19.5 0.8 0
19.8 0.8 0
20.1 0.8 0
20.4 0.8 0
20.7 0.8 0
21 0.8 0
21.3 0.8 0
21.6 0.8 0
21.9 0.8 0
22.2 0.8 0
22.5 0.8 0
22.8 0.8 0
23.1 0.8 0
23.4 0.8 0
23.7 0.8 0
24 0.8 0
24.3 0.8 0
24.6 0.8 0
24.9 0.8 0
25.2 0.8 0
25.5 0.8 0
25.8 0.8 0
26.1 0.8 0
26.4 0.8 0
26.7 0.8 0
27 0.8 0
27.3 0.8 0
27.6 0.8 0
27.9 0.8 0
28.2 0.8 0
28.5 0.8 0
28.8 0.8 0
29.1 0.8 0
29.4 0.8 0
29.7 0.8 0
30 0.8 0
30.3 0.8 0
30.6 0.8 0
0 0.9 0
0.3 0.9 0
0.6 0.9 0
0.9 0.9 0
1.2 0.9 0
1.5 0.9 0
1.8 0.9 0
2.1 0.9 0
2.4 0.9 0
2.7 0.9 0
3 0.9 0
3.3 0.9 0
3.6 0.9 0
3.9 0.9 0
4.2 0.9 0
4.5 0.9 0
4.8 0.9 0
5.1 0.9 0
5.4 0.9 0
5.7 0.9 0
6 0.9 0
6.3 0.9 0
6.6 0.9 0
6.9 0.9 0
7.2 0.9 0
7.5 0.9 0
7.8 0.9 0
8.1 0.9 0
8.4 0.9 0
8.7 0.9 0
9 0.9 0
9.3 0.9 0
9.6 0.9 0
9.9 0.9 0
10.2 0.9 0
10.5 0.9 0
10.8 0.9 0
11.1 0.9 0
11.4 0.9 0
11.7 0.9 0
12 0.9 0
12.3 0.9 0
12.6 0.9 0
12.9 0.9 0
13.2 0.9 0
13.5 0.9 0
13.8 0.9 0
14.1 0.9 0
14.4 0.9 0
14.7 0.9 0
15 0.9 0
15.3 0.9 0
15.6 0.9 0
15.9 0.9 0
16.2 0.9 0
16.5 0.9 0
16.8 0.9 0
17.1 0.9 0
17.4 0.9 0
17.7 0.9 0
18 0.9 0
18.3 0.9 0
18.6 0.9 0
18.9 0.9 0
19.2 0.9 0
19.5 0.9 0
19.8 0.9 0
20.1 0.9 0
20.4 0.9 0
20.7 0.9 0
21 0.9 0
21.3 0.9 0
21.6 0.9 0
21.9 0.9 0
22.2 0.9 0
22.5 0.9 0
22.8 0.9 0
23.1 0.9 0
23.4 0.9 0
23.7 0.9 0
24 0.9 0
24.3 0.9 0
24.6 0.9 0
24.9 0.9 0
25.2 0.9 0
25.5 0.9 0
25.8 0.9 0
26.1 0.9 0
26.4 0.9 0
26.7 0.9 0
27 0.9 0
27.3 0.9 0
27.6 0.9 0
27.9 0.9 0
28.2 0.9 0
28.5 0.9 0
28.8 0.9 0
29.1 0.9 0
29.4 0.9 0
29.7 0.9 0
30 0.9 0
30.3 0.9 0
30.6 0.9 0
0 1 0
0.3 1 0
0.6 1 0
0.9 1 0
1.2 1 0
1.5 1 0
1.8 1 0
2.1 1 0
2.4 1 0
2.7 1 0
3 1 0
3.3 1 0
3.6 1 0
3.9 1 0
4.2 1 0
4.5 1 0
4.8 1 0
5.1 1 0
5.4 1 0
5.7 1 0
6 1 0
6.3 1 0
6.6 1 0
6.9 1 0
7.2 1 0
7.5 1 0
7.8 1 0
8.1 1 0
8.4 1 0
8.7 1 0
9 1 0
9.3 1 0
9.6 1 0
9.9 1 0
10.2 1 0
10.5 1 0
10.8 1 0
11.1 1 0
11.4 1 0
11.7 1 0
12 1 0
12.3 1 0
12.6 1 0
12.9 1 0
13.2 1 0
13.5 1 0
13.8 1 0
14.1 1 0
14.4 1 0
14.7 1 0
15 1 0
15.3 1 0
15.6 1 0
15.9 1 0
16.2 1 0
16.5 1 0
16.8 1 0
17.1 1 0
17.4 1 0
17.7 1 0
18 1 0
18.3 1 0
18.6 1 0
18.9 1 0
19.2 1 0
19.5 1 0
19.8 1 0
20.1 1 0
20.4 1 0
20.7 1 0
21 1 0
21.3 1 0
21.6 1 0
21.9 1 0
22.2 1 0
22.5 1 0
22.8 1 0
23.1 1 0
23.4 1 0
23.7 1 0
24 1 0
24.3 1 0
24.6 1 0
24.9 1 0
25.2 1 0
25.5 1 0
25.8 1 0
26.1 1 0
26.4 1 0
26.7 1 0
27 1 0
27.3 1 0
27.6 1 0
27.9 1 0
28.2 1 0
28.5 1 0
28.8 1 0
29.1 1 0
29.4 1 0
29.7 1 0
30 1 0
30.3 1 0
30.6 1 0
0 1.1 0
0.3 1.1 0
0.6 1.1 0
0.9 1.1 0
1.2 1.1 0
1.5 1.1 0
1.8 1.1 0
2.1 1.1 0
2.4 1.1 0
2.7 1.1 0
3 1.1 0
3.3 1.1 0
3.6 1.1 0
3.9 1.1 0
4.2 1.1 0
4.5 1.1 0
4.8 1.1 0
5.1 1.1 0
5.4 1.1 0
5.7 1.1 0
6 1.1 0
6.3 1.1 0
6.6 1.1 0
6.9 1.1 0
7.2 1.1 0
7.5 1.1 0
7.8 1.1 0
8.1 1.1 0
8.4 1.1 0
8.7 1.1 0
9 1.1 0
9.3 1.1 0
9.6 1.1 0
9.9 1.1 0
10.2 1.1 0
10.5 1.1 0
10.8 1.1 0
11.1 1.1 0
11.4 1.1 0
11.7 1.1 0
12 1.1 0
12.3 1.1 0
12.6 1.1 0
12.9 1.1 0
13.2 1.1 0
13.5 1.1 0
13.8 1.1 0
14.1 1.1 0
14.4 1.1 0
14.7 1.1 0
15 1.1 0
15.3 1.1 0
15.6 1.1 0
15.9 1.1 0
16.2 1.1 0
16.5 1.1 0
16.8 1.1 0
17.1 1.1 0
17.4 1.1 0
17.7 1.1 0
18 1.1 0
18.3 1.1 0
18.6 1.1 0
18.9 1.1 0
19.2 1.1 0
19.5 1.1 0
19.8 1.1 0
20.1 1.1 0
20.4 1.1 0
20.7 1.1 0
21 1.1 0
21.3 1.1 0
21.6 1.1 0
21.9 1.1 0
22.2 1.1 0
22.5 1.1 0
22.8 1.1 0
23.1 1.1 0
23.4 1.1 0
23.7 1.1 0
24 1.1 0
24.3 1.1 0
24.6 1.1 0
24.9 1.1 0
25.2 1.1 0
25.5 1.1 0
25.8 1.1 0
26.1 1.1 0
26.4 1.1 0
26.7 1.1 0
27 1.1 0
27.3 1.1 0
27.6 1.1 0
27.9 1.1 0
28.2 1.1 0
28.5 1.1 0
28.8 1.1 0
29.1 1.1 0
29.4 1.1 0
29.7 1.1 0
30 1.1 0
30.3 1.1 0
30.6 1.1 0
0 1.2 0
0.3 1.2 0
0.6 1.2 0
0.9 1.2 0
1.2 1.2 0
1.5 1.2 0
1.8 1.2 0
2.1 1.2 0
2.4 1.2 0
2.7 1.2 0
3 1.2 0
3.3 1.2 0
3.6 1.2 0
3.9 1.2 0
4.2 1.2 0
4.5 1.2 0
4.8 1.2 0
5.1 1.2 0
5.4 1.2 0
5.7 1.2 0
6 1.2 0
6.3 1.2 0
6.6 1.2 0
6.9 1.2 0
7.2 1.2 0
7.5 1.2 0
7.8 1.2 0
8.1 1.2 0
8.4 1.2 0
8.7 1.2 0
9 1.2 0
9.3 1.2 0
9.6 1.2 0
9.9 1.2 0
10.2 1.2 0
10.5 1.2 0
10.8 1.2 0
11.1 1.2 0
11.4 1.2 0
11.7 1.2 0
12 1.2 0
12.3 1.2 0
12.6 1.2 0
12.9 1.2 0
13.2 1.2 0
13.5 1.2 0
13.8 1.2 0
14.1 1.2 0
14.4 1.2 0
14.7 1.2 0
15 1.2 0
15.3 1.2 0
15.6 1.2 0
15.9 1.2 0
16.2 1.2 0
16.5 1.2 0
16.8 1.2 0
17.1 1.2 0
17.4 1.2 0
17.7 1.2 0
18 1.2 0
18.3 1.2 0
18.6 1.2 0
18.9 1.2 0
19.2 1.2 0
19.5 1.2 0
19.8 1.2 0
20.1 1.2 0
20.4 1.2 0
20.7 1.2 0
21 1.2 0
21.3 1.2 0
21.6 1.2 0
21.9 1.2 0
22.2 1.2 0
22.5 1.2 0
22.8 1.2 0
23.1 1.2 0
23.4 1.2 0
23.7 1.2 0
24 1.2 0
24.3 1.2 0
24.6 1.2 0
24.9 1.2 0
25.2 1.2 0
25.5 1.2 0
25.8 1.2 0
26.1 1.2 0
26.4 1.2 0
26.7 1.2 0
27 1.2 0
27.3 1.2 0
27.6 1.2 0
27.9 1.2 0
28.2 1.2 0
28.5 1.2 0
28.8 1.2 0
29.1 1.2 0
29.4 1.2 0
29.7 1.2 0
30 1.2 0
30.3 1.2 0
30.6 1.2 0

POINT_DATA 1339

SCALARS pressure double
LOOKUP_TABLE pressure
1.50574
1.50574
1.44088
1.39653
1.35679
1.32157
1.29216
1.26823
1.24801
1.22966
1.21199
1.19447
1.17695
1.1594
1.14182
1.12424
1.10665
1.08907
1.07148
1.05389
1.03631
1.01872
1.00113
0.983548
0.965962
0.948375
0.930789
0.913203
0.895616
0.87803
0.860443
0.842857
0.82527
0.807683
0.790097
0.77251
0.754924
0.737337
0.719751
0.702164
0.684578
0.666991
0.649404
0.631818
0.614231
0.596645
0.579058
0.561471
0.543885
0.526298
0.508711
0.491125
0.473538
0.455951
0.438365
0.420778
0.403191
0.385605
0.368018
0.350431
0.332844
0.315257
0.297671
0.280084
0.262497
0.24491
0.227323
0.209736
0.192149
0.174562
0.156976
0.139389
0.121802
0.104215
0.0866276
0.0690406
0.0514535
0.0338665
0.0162794
-0.00130774
-0.0188949
-0.036482
-0.0540692
-0.0716564
-0.0892436
-0.106831
-0.124418
-0.142005
-0.159593
-0.17718
-0.194767
-0.212355
-0.229942
-0.247529
-0.265117
-0.282705
-0.300292
-0.317882
-0.33547
-0.353079
-0.370668
-0.388037
0.388037
1.50574
1.50574
1.44088
1.39653
1.35679
1.32157
1.29216
1.26823
1.24801
1.22966
1.21199
1.19447
1.17695
1.1594
1.14182
1.12424
1.10665
1.08907
1.07148
1.05389
1.03631
1.01872
1.00113
0.983548
0.965962
0.948375
0.930789
0.913203
0.895616
0.87803
0.860443
0.842857
0.82527
0.807683
0.790097
0.77251
0.754924
0.737337
0.719751
0.702164
0.684578
0.666991
0.649404
0.631818
0.614231
0.596645
0.579058
0.561471
0.543885
0.526298
0.508711
0.491125
0.473538
0.455951
0.438365
0.420778
0.403191
0.385605
0.368018
0.350431
0.332844
0.315257
0.297671
0.280084
0.262497
0.24491
0.227323
0.209736
0.192149
0.174562
0.156976
0.139389
0.121802
0.104215
0.0866276
0.0690406
0.0514535
0.0338665
0.0162794
-0.00130774
-0.0188949
-0.036482
-0.0540692
-0.0716564
-0.0892436
-0.106831
-0.124418
-0.142005
-0.159593
-0.17718
-0.194767
-0.212355
-0.229942
-0.247529
-0.265117
-0.282705
-0.300292
-0.317882
-0.33547
-0.353079
-0.370668
-0.388037
0.388037
1.4848
1.4848
1.43889
1.39678
1.35751
1.32233
1.29276
1.26862
1.24823
1.22976
1.21203
1.19448
1.17695
1.1594
1.14182
1.12424
1.10665
1.08907
1.07148
1.05389
1.03631
1.01872
1.00113
0.983548
0.965962
0.948375
0.930789
0.913203
0.895616
0.87803
0.860443
0.842857
0.82527
0.807683
0.790097
0.77251
0.754924
0.737337
0.719751
0.702164
0.684578
0.666991
0.649404
0.631818
0.614231
0.596645
0.579058
0.561471
0.543885
0.526298
0.508711
0.491125
0.473538
0.455951
0.438365
0.420778
0.403191
0.385605
0.368018
0.350431
0.332844
0.315257
0.297671
0.280084
0.262497
0.24491
0.227323
0.209736
0.192149
0.174562
0.156976
0.139389
0.121802
0.104215
0.0866276
0.0690406
0.0514535
0.0338665
0.0162794
-0.00130774
-0.0188949
-0.036482
-0.0540692
-0.0716564
-0.0892436
-0.106831
-0.124418
-0.142005
-0.159593
-0.17718
-0.194767
-0.212355
-0.229942
-0.247529
-0.265117
-0.282704
-0.300292
-0.31788
-0.335467
-0.353063
-0.370636
-0.38804
0.38804
1.46983
1.46983
1.43603
1.3971
1.35886
1.32398
1.29424
1.26967
1.24883
1.23005
1.21214
1.19452
1.17696
1.1594
1.14182
1.12424
1.10665
1.08907
1.07148
1.05389
1.03631
1.01872
1.00113
0.983548
0.965962
0.948375
0.930789
0.913203
0.895616
0.87803
0.860443
0.842857
0.82527
0.807683
0.790097
0.77251
0.754924
0.737337
0.719751
0.702164
0.684578
0.666991
0.649404
0.631818
0.614231
0.596645
0.579058
0.561471
0.543885
0.526298
0.508711
0.491125
0.473538
0.455951
0.438365
0.420778
0.403191
0.385605
0.368018
0.350431
0.332844
0.315257
0.297671
0.280084
0.262497
0.24491
0.227323
0.209736
0.192149
0.174562
0.156976
0.139389
0.121802
0.104215
0.0866276
0.0690406
0.0514535
0.0338664
0.0162794
-0.00130775
-0.0188949
-0.036482
-0.0540692
-0.0716564
-0.0892436
-0.106831
-0.124418
-0.142005
-0.159593
-0.17718
-0.194767
-0.212355
-0.229942
-0.247529
-0.265117
-0.282704
-0.300291
-0.317877
-0.335458
-0.353032
-0.370539
-0.388021
0.388021
1.46027
1.46027
1.43356
1.39729
1.36003
1.32548
1.29563
1.27067
1.24942
1.23033
1.21225
1.19456
1.17697
1.1594
1.14182
1.12424
1.10665
1.08907
1.07148
1.05389
1.03631
1.01872
1.00113
0.983548
0.965962
0.948375
0.930789
0.913203
0.895616
0.87803
0.860443
0.842857
0.82527
0.807683
0.790097
0.77251
0.754924
0.737337
0.719751
0.702164
0.684578
0.666991
0.649404
0.631818
0.614231
0.596645
0.579058
0.561471
0.543885
0.526298
0.508711
0.491125
0.473538
0.455951
0.438365
0.420778
0.403191
0.385605
0.368018
0.350431
0.332844
0.315257
0.297671
0.280084
0.262497
0.24491
0.227323
0.209736
0.192149
0.174562
0.156976
0.139389
0.121802
0.104215
0.0866276
0.0690406
0.0514535
0.0338664
0.0162794
-0.00130775
-0.0188949
-0.036482
-0.0540692
-0.0716564
-0.0892436
-0.106831
-0.124418
-0.142005
-0.159593
-0.17718
-0.194767
-0.212355
-0.229942
-0.247529
-0.265117
-0.282704
-0.30029
-0.317875
-0.33545
-0.353001
-0.370451
-0.387997
0.387997
1.45496
1.45496
1.43195
1.39736
1.36075
1.32642
1.2965
1.27131
1.24979
1.23051
1.21233
1.19458
1.17697
1.1594
1.14182
1.12424
1.10665
1.08907
1.07148
1.05389
1.03631
1.01872
1.00113
0.983548
0.965962
0.948375
0.930789
0.913203
0.895616
0.87803
0.860443
0.842857
0.82527
0.807683
0.790097
0.77251
0.754924
0.737337
0.719751
0.702164
0.684578
0.666991
0.649404
0.631818
0.614231
0.596645
0.579058
0.561471
0.543885
0.526298
0.508711
0.491125
0.473538
0.455951
0.438365
0.420778
0.403191
0.385604
0.368018
0.350431
0.332844
0.315257
0.297671
0.280084
0.262497
0.24491
0.227323
0.209736
0.192149
0.174562
0.156976
0.139389
0.121802
0.104215
0.0866276
0.0690406
0.0514535
0.0338664
0.0162793
-0.00130776
-0.0188949
-0.036482
-0.0540692
-0.0716564
-0.0892436
-0.106831
-0.124418
-0.142005
-0.159593
-0.17718
-0.194767
-0.212355
-0.229942
-0.247529
-0.265117
-0.282704
-0.30029
-0.317873
-0.335444
-0.352981
-0.370397
-0.38798
0.38798
1.45326
1.45326
1.43141
1.3974
1.36101
1.32674
1.29679
1.27152
1.24992
1.23057
1.21235
1.19459
1.17698
1.1594
1.14182
1.12424
1.10665
1.08907
1.07148
1.05389
1.03631
1.01872
1.00113
0.983548
0.965962
0.948375
0.930789
0.913203
0.895616
0.87803
0.860443
0.842857
0.82527
0.807683
0.790097
0.77251
0.754924
0.737337
0.719751
0.702164
0.684578
0.666991
0.649404
0.631818
0.614231
0.596645
0.579058
0.561471
0.543885
0.526298
0.508711
0.491125
0.473538
0.455951
0.438365
0.420778
0.403191
0.385604
0.368018
0.350431
0.332844
0.315257
0.297671
0.280084
0.262497
0.24491
0.227323
0.209736
0.192149
0.174562
0.156976
0.139389
0.121802
0.104215
0.0866276
0.0690405
0.0514535
0.0338664
0.0162793
-0.00130776
-0.0188949
-0.036482
-0.0540692
-0.0716564
-0.0892436
-0.106831
-0.124418
-0.142005
-0.159593
-0.17718
-0.194767
-0.212355
-0.229942
-0.247529
-0.265117
-0.282704
-0.30029
-0.317872
-0.335442
-0.352974
-0.370379
-0.387973
0.387973
1.45496
1.45496
1.43195
1.39736
1.36075
1.32642
1.2965
1.27131
1.24979
1.23051
1.21233
1.19458
1.17697
1.1594
1.14182
1.12424
1.10665
1.08907
1.07148
1.05389
1.03631
1.01872
1.00113
0.983548
0.965962
0.948375
0.930789
0.913203
0.895616
0.87803
0.860443
0.842857
0.82527
0.807683
0.790097
0.77251
0.754924
0.737337
0.719751
0.702164
0.684578
0.666991
0.649404
0.631818
0.614231
0.596645
0.579058
0.561471
0.543885
0.526298
0.508711
0.491125
0.473538
0.455951
0.438365
0.420778
0.403191
0.385604
0.368018
0.350431
0.332844
0.315257
0.297671
0.280084
0.262497
0.24491
0.227323
0.209736
0.192149
0.174562
0.156976
0.139389
0.121802
0.104215
0.0866276
0.0690405
0.0514535
0.0338664
0.0162793
-0.00130777
-0.0188949
-0.036482
-0.0540692
-0.0716564
-0.0892436
-0.106831
-0.124418
-0.142005
-0.159593
-0.17718
-0.194767
-0.212355
-0.229942
-0.247529
-0.265117
-0.282704
-0.30029
-0.317873
-0.335444
-0.352981
-0.370397
-0.38798
0.38798
1.46027
1.46027
1.43356
1.39729
1.36003
1.32548
1.29563
1.27067
1.24942
1.23033
1.21225
1.19456
1.17697
1.1594
1.14182
1.12424
1.10665
1.08907
1.07148
1.05389
1.03631
1.01872
1.00113
0.983548
0.965962
0.948375
0.930789
0.913203
0.895616
0.87803
0.860443
0.842857
0.82527
0.807683
0.790097
0.77251
0.754924
0.737337
0.719751
0.702164
0.684578
0.666991
0.649404
0.631818
0.614231
0.596645
0.579058
0.561471
0.543885
0.526298
0.508711
0.491125
0.473538
0.455951
0.438365
0.420778
0.403191
0.385604
0.368018
0.350431
0.332844
0.315257
0.297671
0.280084
0.262497
0.24491
0.227323
0.209736
0.192149
0.174562
0.156976
0.139389
0.121802
0.104215
0.0866276
0.0690405
0.0514535
0.0338664
0.0162793
-0.00130778
-0.0188949
-0.0364821
-0.0540692
-0.0716564
-0.0892436
-0.106831
-0.124418
-0.142005
-0.159593
-0.17718
-0.194767
-0.212355
-0.229942
-0.247529
-0.265117
-0.282704
-0.30029
-0.317875
-0.33545
-0.353001
-0.370451
-0.387998
0.387998
1.46983
1.46983
1.43603
1.3971
1.35886
1.32398
1.29424
1.26967
1.24883
1.23005
1.21214
1.19452
1.17696
1.1594
1.14182
1.12424
1.10665
1.08907
1.07148
1.05389
1.03631
1.01872
1.00113
0.983548
0.965962
0.948375
0.930789
0.913203
0.895616
0.87803
0.860443
0.842857
0.82527
0.807683
0.790097
0.77251
0.754924
0.737337
0.719751
0.702164
0.684578
0.666991
0.649404
0.631818
0.614231
0.596645
0.579058
0.561471
0.543885
0.526298
0.508711
0.491125
0.473538
0.455951
0.438365
0.420778
0.403191
0.385604
0.368018
0.350431
0.332844
0.315257
0.297671
0.280084
0.262497
0.24491
0.227323
0.209736
0.192149
0.174562
0.156975
0.139389
0.121802
0.104215
0.0866276
0.0690405
0.0514535
0.0338664
0.0162793
-0.00130778
-0.0188949
-0.0364821
-0.0540692
-0.0716564
-0.0892436
-0.106831
-0.124418
-0.142005
-0.159593
-0.17718
-0.194767
-0.212355
-0.229942
-0.24753
-0.265117
-0.282704
-0.300291
-0.317878
-0.335459
-0.353032
-0.370539
-0.388021
0.388021
1.4848
1.4848
1.43889
1.39678
1.35751
1.32233
1.29276
1.26862
1.24823
1.22976
1.21203
1.19448
1.17695
1.1594
1.14182
1.12424
1.10665
1.08907
1.07148
1.05389
1.03631
1.01872
1.00113
0.983548
0.965962
0.948375
0.930789
0.913203
0.895616
0.87803
0.860443
0.842857
0.82527
0.807683
0.790097
0.77251
0.754924
0.737337
0.719751
0.702164
0.684578
0.666991
0.649404
0.631818
0.614231
0.596645
0.579058
0.561471
0.543885
0.526298
0.508711
0.491125
0.473538
0.455951
0.438365
0.420778
0.403191
0.385604
0.368018
0.350431
0.332844
0.315257
0.297671
0.280084
0.262497
0.24491
0.227323
0.209736
0.192149
0.174562
0.156975
0.139389
0.121802
0.104215
0.0866276
0.0690405
0.0514535
0.0338664
0.0162793
-0.00130779
-0.0188949
-0.0364821
-0.0540692
-0.0716564
-0.0892436
-0.106831
-0.124418
-0.142005
-0.159593
-0.17718
-0.194767
-0.212355
-0.229942
-0.24753
-0.265117
-0.282705
-0.300292
-0.31788
-0.335467
-0.353064
-0.370636
-0.38804
0.38804
1.50574
1.50574
1.44088
1.39653
1.35679
1.32157
1.29216
1.26823
1.24801
1.22966
1.21199
1.19447
1.17695
1.1594
1.14182
1.12424
1.10665
1.08907
1.07148
1.05389
1.03631
1.01872
1.00113
0.983548
0.965962
0.948375
0.930789
0.913203
0.895616
0.87803
0.860443
0.842857
0.82527
0.807683
0.790097
0.77251
0.754924
0.737337
0.719751
0.702164
0.684578
0.666991
0.649404
0.631818
0.614231
0.596645
0.579058
0.561471
0.543885
0.526298
0.508711
0.491125
0.473538
0.455951
0.438365
0.420778
0.403191
0.385604
0.368018
0.350431
0.332844
0.315257
0.297671
0.280084
0.262497
0.24491
0.227323
0.209736
0.192149
0.174562
0.156975
0.139389
0.121802
0.104215
0.0866275
0.0690405
0.0514535
0.0338664
0.0162793
-0.0013078
-0.0188949
-0.0364821
-0.0540692
-0.0716564
-0.0892436
-0.106831
-0.124418
-0.142005
-0.159593
-0.17718
-0.194767
-0.212355
-0.229942
-0.24753
-0.265117
-0.282705
-0.300292
-0.317882
-0.33547
-0.353079
-0.370668
-0.388037
0.388037
1.50574
1.50574
1.44088
1.39653
1.35679
1.32157
1.29216
1.26823
1.24801
1.22966
1.21199
1.19447
1.17695
1.1594
1.14182
1.12424
1.10665
1.08907
1.07148
1.05389
1.03631
1.01872
1.00113
0.983548
0.965962
0.948375
0.930789
0.913203
0.895616
0.87803
0.860443
0.842857
0.82527
0.807683
0.790097
0.77251
0.754924
0.737337
0.719751
0.702164
0.684578
0.666991
0.649404
0.631818
0.614231
0.596645
0.579058
0.561471
0.543885
0.526298
0.508711
0.491125
0.473538
0.455951
0.438365
0.420778
0.403191
0.385604
0.368018
0.350431
0.332844
0.315257
0.297671
0.280084
0.262497
0.24491
0.227323
0.209736
0.192149
0.174562
0.156975
0.139389
0.121802
0.104215
0.0866275
0.0690405
0.0514535
0.0338664
0.0162793
-0.0013078
-0.0188949
-0.0364821
-0.0540692
-0.0716564
-0.0892436
-0.106831
-0.124418
-0.142005
-0.159593
-0.17718
-0.194767
-0.212355
-0.229942
-0.24753
-0.265117
-0.282705
-0.300292
-0.317882
-0.33547
-0.353079
-0.370668
-0.388037
0.388037
SCALARS phi double
LOOKUP_TABLE phi
1.00178
0.998224
1.00776
1.01482
0.927221
0.714885
0.463796
0.261254
0.131818
0.0607922
0.025921
0.0102875
0.00381736
0.00132851
0.000434733
0.000134043
3.90131e-05
1.07363e-05
2.79826e-06
6.91839e-07
1.62518e-07
3.63296e-08
7.74015e-09
1.57403e-09
3.05967e-10
5.69279e-11
1.01515e-11
1.73708e-12
2.85564e-13
4.51498e-14
6.87269e-15
1.00819e-15
1.42658e-16
1.94881e-17
2.57229e-18
3.28306e-19
4.05477e-20
4.84932e-21
5.61963e-22
6.31416e-23
6.8827e-24
7.2825e-25
7.48359e-26
7.47249e-27
7.25363e-28
6.84821e-29
6.29098e-30
5.62547e-31
4.89858e-32
4.15541e-33
3.43516e-34
2.76832e-35
2.17553e-36
1.66774e-37
1.24749e-38
9.10772e-40
6.49187e-41
4.51885e-42
3.07251e-43
2.04112e-44
1.32511e-45
8.40892e-47
5.21701e-48
3.16508e-49
1.87806e-50
1.09013e-51
6.19101e-53
3.44062e-54
1.87142e-55
9.96393e-57
5.19371e-58
2.65077e-59
1.32487e-60
6.48535e-62
3.1096e-63
1.46062e-64
6.7217e-66
3.03091e-67
1.33925e-68
5.79945e-70
2.46141e-71
1.02398e-72
4.17582e-74
1.66942e-75
6.54327e-77
2.51453e-78
9.47492e-80
3.50089e-81
1.26848e-82
4.50731e-84
1.57071e-85
5.36827e-87
1.79949e-88
5.91639e-90
1.90795e-91
6.03522e-93
1.87262e-94
5.69958e-96
1.70211e-97
4.98659e-99
1.43764e-100
4.03524e-102
4.03524e-102
1.00178
0.998224
1.00776
1.01482
0.927221
0.714885
0.463796
0.261254
0.131818
0.0607922
0.025921
0.0102875
0.00381736
0.00132851
0.000434733
0.000134043
3.90131e-05
1.07363e-05
2.79826e-06
6.91839e-07
1.62518e-07
3.63296e-08
7.74015e-09
1.57403e-09
3.05967e-10
5.69279e-11
1.01515e-11
1.73708e-12
2.85564e-13
4.51498e-14
6.87269e-15
1.00819e-15
1.42658e-16
1.94881e-17
2.57229e-18
3.28306e-19
4.05477e-20
4.84932e-21
5.61963e-22
6.31416e-23
6.8827e-24
7.2825e-25
7.48359e-26
7.47249e-27
7.25363e-28
6.84821e-29
6.29098e-30
5.62547e-31
4.89858e-32
4.15541e-33
3.43516e-34
2.76832e-35
2.17553e-36
1.66774e-37
1.24749e-38
9.10772e-40
6.49187e-41
4.51885e-42
3.07251e-43
2.04112e-44
1.32511e-45
8.40892e-47
5.21701e-48
3.16508e-49
1.87806e-50
1.09013e-51
6.19101e-53
3.44062e-54
1.87142e-55
9.96393e-57
5.19371e-58
2.65077e-59
1.32487e-60
6.48535e-62
3.1096e-63
1.46062e-64
6.7217e-66
3.03091e-67
1.33925e-68
5.79945e-70
2.46141e-71
1.02398e-72
4.17582e-74
1.66942e-75
6.54327e-77
2.51453e-78
9.47492e-80
3.50089e-81
1.26848e-82
4.50731e-84
1.57071e-85
5.36827e-87
1.79949e-88
5.91639e-90
1.90795e-91
6.03522e-93
1.87262e-94
5.69958e-96
1.70211e-97
4.98659e-99
1.43764e-100
4.03524e-102
4.03524e-102
1.00136
0.998643
1.00315
1.01497
0.991906
0.894233
0.727287
0.530064
0.346065
0.203012
0.107559
0.0517768
0.0227809
0.00921358
0.00344333
0.00119473
0.000386488
0.000117012
3.32681e-05
8.90972e-06
2.25394e-06
5.39946e-07
1.22768e-07
2.65488e-08
5.47096e-09
1.07622e-09
2.0242e-10
3.64562e-11
6.29583e-12
1.04388e-12
1.66375e-13
2.55176e-14
3.77015e-15
5.37112e-16
7.38503e-17
9.80826e-18
1.25931e-18
1.56423e-19
1.88107e-20
2.19148e-21
2.47501e-22
2.71132e-23
2.88269e-24
2.9762e-25
2.98535e-26
2.91078e-27
2.75997e-28
2.54609e-29
2.2861e-30
1.99869e-31
1.7021e-32
1.41246e-33
1.14253e-34
9.01156e-36
6.93285e-37
5.20395e-38
3.81232e-39
2.72646e-40
1.90404e-41
1.29876e-42
8.65488e-44
5.63603e-45
3.58724e-46
2.2321e-47
1.35806e-48
8.08095e-50
4.70349e-51
2.67836e-52
1.49239e-53
8.13823e-55
4.34388e-56
2.2698e-57
1.16124e-58
5.81752e-60
2.85424e-61
1.37161e-62
6.45669e-64
2.97766e-65
1.34546e-66
5.95718e-68
2.58478e-69
1.09916e-70
4.58126e-72
1.87168e-73
7.49609e-75
2.94322e-76
1.13298e-77
4.27626e-79
1.5826e-80
5.74331e-82
2.04391e-83
7.1333e-85
2.44154e-86
8.1959e-88
2.69839e-89
8.71368e-91
2.75993e-92
8.57445e-94
2.61314e-95
7.8119e-97
2.29296e-98
6.54912e-100
6.54912e-100
1.00102
0.998982
1.0013
1.0125
1.00838
0.952146
0.826717
0.64836
0.455885
0.287353
0.163037
0.0837653
0.0392246
0.0168435
0.00666981
0.00244779
0.000836287
0.000267046
7.99859e-05
2.25437e-05
5.99611e-06
1.50895e-06
3.60132e-07
8.16887e-08
1.76451e-08
3.63603e-09
7.15953e-10
1.34914e-10
2.4364e-11
4.22209e-12
7.02938e-13
1.12565e-13
1.73557e-14
2.57905e-15
3.69703e-16
5.11675e-17
6.84284e-18
8.84931e-19
1.10745e-19
1.34207e-20
1.57594e-21
1.79423e-22
1.98173e-23
2.12456e-24
2.21197e-25
2.23763e-26
2.20037e-27
2.10425e-28
1.95782e-29