# vtk DataFile Version 3.0
FlowField
ASCII
DATASET STRUCTURED_GRID
DIMENSIONS 103 13 1 
POINTS 1339 double
0 0 0
0.3 0 0
0.6 0 0
0.9 0 0
1.2 0 0
1.5 0 0
1.8 0 0
2.1 0 0
2.4 0 0
2.7 0 0
3 0 0
3.3 0 0
3.6 0 0
3.9 0 0
4.2 0 0
4.5 0 0
4.8 0 0
5.1 0 0
5.4 0 0
5.7 0 0
6 0 0
6.3 0 0
6.6 0 0
6.9 0 0
7.2 0 0
7.5 0 0
7.8 0 0
8.1 0 0
8.4 0 0
8.7 0 0
9 0 0
9.3 0 0
9.6 0 0
9.9 0 0
10.2 0 0
10.5 0 0
10.8 0 0
11.1 0 0
11.4 0 0
11.7 0 0
12 0 0
12.3 0 0
12.6 0 0
12.9 0 0
13.2 0 0
13.5 0 0
13.8 0 0
14.1 0 0
14.4 0 0
14.7 0 0
15 0 0
15.3 0 0
15.6 0 0
15.9 0 0
16.2 0 0
16.5 0 0
16.8 0 0
17.1 0 0
17.4 0 0
17.7 0 0
18 0 0
18.3 0 0
18.6 0 0
18.9 0 0
19.2 0 0
19.5 0 0
19.8 0 0
20.1 0 0
20.4 0 0
20.7 0 0
21 0 0
21.3 0 0
21.6 0 0
21.9 0 0
22.2 0 0
22.5 0 0
22.8 0 0
23.1 0 0
23.4 0 0
23.7 0 0
24 0 0
24.3 0 0
24.6 0 0
24.9 0 0
25.2 0 0
25.5 0 0
25.8 0 0
26.1 0 0
26.4 0 0
26.7 0 0
27 0 0
27.3 0 0
27.6 0 0
27.9 0 0
28.2 0 0
28.5 0 0
28.8 0 0
29.1 0 0
29.4 0 0
29.7 0 0
30 0 0
30.3 0 0
30.6 0 0
0 0.1 0
0.3 0.1 0
0.6 0.1 0
0.9 0.1 0
1.2 0.1 0
1.5 0.1 0
1.8 0.1 0
2.1 0.1 0
2.4 0.1 0
2.7 0.1 0
3 0.1 0
3.3 0.1 0
3.6 0.1 0
3.9 0.1 0
4.2 0.1 0
4.5 0.1 0
4.8 0.1 0
5.1 0.1 0
5.4 0.1 0
5.7 0.1 0
6 0.1 0
6.3 0.1 0
6.6 0.1 0
6.9 0.1 0
7.2 0.1 0
7.5 0.1 0
7.8 0.1 0
8.1 0.1 0
8.4 0.1 0
8.7 0.1 0
9 0.1 0
9.3 0.1 0
9.6 0.1 0
9.9 0.1 0
10.2 0.1 0
10.5 0.1 0
10.8 0.1 0
11.1 0.1 0
11.4 0.1 0
11.7 0.1 0
12 0.1 0
12.3 0.1 0
12.6 0.1 0
12.9 0.1 0
13.2 0.1 0
13.5 0.1 0
13.8 0.1 0
14.1 0.1 0
14.4 0.1 0
14.7 0.1 0
15 0.1 0
15.3 0.1 0
15.6 0.1 0
15.9 0.1 0
16.2 0.1 0
16.5 0.1 0
16.8 0.1 0
17.1 0.1 0
17.4 0.1 0
17.7 0.1 0
18 0.1 0
18.3 0.1 0
18.6 0.1 0
18.9 0.1 0
19.2 0.1 0
19.5 0.1 0
19.8 0.1 0
20.1 0.1 0
20.4 0.1 0
20.7 0.1 0
21 0.1 0
21.3 0.1 0
21.6 0.1 0
21.9 0.1 0
22.2 0.1 0
22.5 0.1 0
22.8 0.1 0
23.1 0.1 0
23.4 0.1 0
23.7 0.1 0
24 0.1 0
24.3 0.1 0
24.6 0.1 0
24.9 0.1 0
25.2 0.1 0
25.5 0.1 0
25.8 0.1 0
26.1 0.1 0
26.4 0.1 0
26.7 0.1 0
27 0.1 0
27.3 0.1 0
27.6 0.1 0
27.9 0.1 0
28.2 0.1 0
28.5 0.1 0
28.8 0.1 0
29.1 0.1 0
29.4 0.1 0
29.7 0.1 0
30 0.1 0
30.3 0.1 0
30.6 0.1 0
0 0.2 0
0.3 0.2 0
0.6 0.2 0
0.9 0.2 0
1.2 0.2 0
1.5 0.2 0
1.8 0.2 0
2.1 0.2 0
2.4 0.2 0
2.7 0.2 0
3 0.2 0
3.3 0.2 0
3.6 0.2 0
3.9 0.2 0
4.2 0.2 0
4.5 0.2 0
4.8 0.2 0
5.1 0.2 0
5.4 0.2 0
5.7 0.2 0
6 0.2 0
6.3 0.2 0
6.6 0.2 0
6.9 0.2 0
7.2 0.2 0
7.5 0.2 0
7.8 0.2 0
8.1 0.2 0
8.4 0.2 0
8.7 0.2 0
9 0.2 0
9.3 0.2 0
9.6 0.2 0
9.9 0.2 0
10.2 0.2 0
10.5 0.2 0
10.8 0.2 0
11.1 0.2 0
11.4 0.2 0
11.7 0.2 0
12 0.2 0
12.3 0.2 0
12.6 0.2 0
12.9 0.2 0
13.2 0.2 0
13.5 0.2 0
13.8 0.2 0
14.1 0.2 0
14.4 0.2 0
14.7 0.2 0
15 0.2 0
15.3 0.2 0
15.6 0.2 0
15.9 0.2 0
16.2 0.2 0
16.5 0.2 0
16.8 0.2 0
17.1 0.2 0
17.4 0.2 0
17.7 0.2 0
18 0.2 0
18.3 0.2 0
18.6 0.2 0
18.9 0.2 0
19.2 0.2 0
19.5 0.2 0
19.8 0.2 0
20.1 0.2 0
20.4 0.2 0
20.7 0.2 0
21 0.2 0
21.3 0.2 0
21.6 0.2 0
21.9 0.2 0
22.2 0.2 0
22.5 0.2 0
22.8 0.2 0
23.1 0.2 0
23.4 0.2 0
23.7 0.2 0
24 0.2 0
24.3 0.2 0
24.6 0.2 0
24.9 0.2 0
25.2 0.2 0
25.5 0.2 0
25.8 0.2 0
26.1 0.2 0
26.4 0.2 0
26.7 0.2 0
27 0.2 0
27.3 0.2 0
27.6 0.2 0
27.9 0.2 0
28.2 0.2 0
28.5 0.2 0
28.8 0.2 0
29.1 0.2 0
29.4 0.2 0
29.7 0.2 0
30 0.2 0
30.3 0.2 0
30.6 0.2 0
0 0.3 0
0.3 0.3 0
0.6 0.3 0
0.9 0.3 0
1.2 0.3 0
1.5 0.3 0
1.8 0.3 0
2.1 0.3 0
2.4 0.3 0
2.7 0.3 0
3 0.3 0
3.3 0.3 0
3.6 0.3 0
3.9 0.3 0
4.2 0.3 0
4.5 0.3 0
4.8 0.3 0
5.1 0.3 0
5.4 0.3 0
5.7 0.3 0
6 0.3 0
6.3 0.3 0
6.6 0.3 0
6.9 0.3 0
7.2 0.3 0
7.5 0.3 0
7.8 0.3 0
8.1 0.3 0
8.4 0.3 0
8.7 0.3 0
9 0.3 0
9.3 0.3 0
9.6 0.3 0
9.9 0.3 0
10.2 0.3 0
10.5 0.3 0
10.8 0.3 0
11.1 0.3 0
11.4 0.3 0
11.7 0.3 0
12 0.3 0
12.3 0.3 0
12.6 0.3 0
12.9 0.3 0
13.2 0.3 0
13.5 0.3 0
13.8 0.3 0
14.1 0.3 0
14.4 0.3 0
14.7 0.3 0
15 0.3 0
15.3 0.3 0
15.6 0.3 0
15.9 0.3 0
16.2 0.3 0
16.5 0.3 0
16.8 0.3 0
17.1 0.3 0
17.4 0.3 0
17.7 0.3 0
18 0.3 0
18.3 0.3 0
18.6 0.3 0
18.9 0.3 0
19.2 0.3 0
19.5 0.3 0
19.8 0.3 0
20.1 0.3 0
20.4 0.3 0
20.7 0.3 0
21 0.3 0
21.3 0.3 0
21.6 0.3 0
21.9 0.3 0
22.2 0.3 0
22.5 0.3 0
22.8 0.3 0
23.1 0.3 0
23.4 0.3 0
23.7 0.3 0
24 0.3 0
24.3 0.3 0
24.6 0.3 0
24.9 0.3 0
25.2 0.3 0
25.5 0.3 0
25.8 0.3 0
26.1 0.3 0
26.4 0.3 0
26.7 0.3 0
27 0.3 0
27.3 0.3 0
27.6 0.3 0
27.9 0.3 0
28.2 0.3 0
28.5 0.3 0
28.8 0.3 0
29.1 0.3 0
29.4 0.3 0
29.7 0.3 0
30 0.3 0
30.3 0.3 0
30.6 0.3 0
0 0.4 0
0.3 0.4 0
0.6 0.4 0
0.9 0.4 0
1.2 0.4 0
1.5 0.4 0
1.8 0.4 0
2.1 0.4 0
2.4 0.4 0
2.7 0.4 0
3 0.4 0
3.3 0.4 0
3.6 0.4 0
3.9 0.4 0
4.2 0.4 0
4.5 0.4 0
4.8 0.4 0
5.1 0.4 0
5.4 0.4 0
5.7 0.4 0
6 0.4 0
6.3 0.4 0
6.6 0.4 0
6.9 0.4 0
7.2 0.4 0
7.5 0.4 0
7.8 0.4 0
8.1 0.4 0
8.4 0.4 0
8.7 0.4 0
9 0.4 0
9.3 0.4 0
9.6 0.4 0
9.9 0.4 0
10.2 0.4 0
10.5 0.4 0
10.8 0.4 0
11.1 0.4 0
11.4 0.4 0
11.7 0.4 0
12 0.4 0
12.3 0.4 0
12.6 0.4 0
12.9 0.4 0
13.2 0.4 0
13.5 0.4 0
13.8 0.4 0
14.1 0.4 0
14.4 0.4 0
14.7 0.4 0
15 0.4 0
15.3 0.4 0
15.6 0.4 0
15.9 0.4 0
16.2 0.4 0
16.5 0.4 0
16.8 0.4 0
17.1 0.4 0
17.4 0.4 0
17.7 0.4 0
18 0.4 0
18.3 0.4 0
18.6 0.4 0
18.9 0.4 0
19.2 0.4 0
19.5 0.4 0
19.8 0.4 0
20.1 0.4 0
20.4 0.4 0
20.7 0.4 0
21 0.4 0
21.3 0.4 0
21.6 0.4 0
21.9 0.4 0
22.2 0.4 0
22.5 0.4 0
22.8 0.4 0
23.1 0.4 0
23.4 0.4 0
23.7 0.4 0
24 0.4 0
24.3 0.4 0
24.6 0.4 0
24.9 0.4 0
25.2 0.4 0
25.5 0.4 0
25.8 0.4 0
26.1 0.4 0
26.4 0.4 0
26.7 0.4 0
27 0.4 0
27.3 0.4 0
27.6 0.4 0
27.9 0.4 0
28.2 0.4 0
28.5 0.4 0
28.8 0.4 0
29.1 0.4 0
29.4 0.4 0
29.7 0.4 0
30 0.4 0
30.3 0.4 0
30.6 0.4 0
0 0.5 0
0.3 0.5 0
0.6 0.5 0
0.9 0.5 0
1.2 0.5 0
1.5 0.5 0
1.8 0.5 0
2.1 0.5 0
2.4 0.5 0
2.7 0.5 0
3 0.5 0
3.3 0.5 0
3.6 0.5 0
3.9 0.5 0
4.2 0.5 0
4.5 0.5 0
4.8 0.5 0
5.1 0.5 0
5.4 0.5 0
5.7 0.5 0
6 0.5 0
6.3 0.5 0
6.6 0.5 0
6.9 0.5 0
7.2 0.5 0
7.5 0.5 0
7.8 0.5 0
8.1 0.5 0
8.4 0.5 0
8.7 0.5 0
9 0.5 0
9.3 0.5 0
9.6 0.5 0
9.9 0.5 0
10.2 0.5 0
10.5 0.5 0
10.8 0.5 0
11.1 0.5 0
11.4 0.5 0
11.7 0.5 0
12 0.5 0
12.3 0.5 0
12.6 0.5 0
12.9 0.5 0
13.2 0.5 0
13.5 0.5 0
13.8 0.5 0
14.1 0.5 0
14.4 0.5 0
14.7 0.5 0
15 0.5 0
15.3 0.5 0
15.6 0.5 0
15.9 0.5 0
16.2 0.5 0
16.5 0.5 0
16.8 0.5 0
17.1 0.5 0
17.4 0.5 0
17.7 0.5 0
18 0.5 0
18.3 0.5 0
18.6 0.5 0
18.9 0.5 0
19.2 0.5 0
19.5 0.5 0
19.8 0.5 0
20.1 0.5 0
20.4 0.5 0
20.7 0.5 0
21 0.5 0
21.3 0.5 0
21.6 0.5 0
21.9 0.5 0
22.2 0.5 0
22.5 0.5 0
22.8 0.5 0
23.1 0.5 0
23.4 0.5 0
23.7 0.5 0
24 0.5 0
24.3 0.5 0
24.6 0.5 0
24.9 0.5 0
25.2 0.5 0
25.5 0.5 0
25.8 0.5 0
26.1 0.5 0
26.4 0.5 0
26.7 0.5 0
27 0.5 0
27.3 0.5 0
27.6 0.5 0
27.9 0.5 0
28.2 0.5 0
28.5 0.5 0
28.8 0.5 0
29.1 0.5 0
29.4 0.5 0
29.7 0.5 0
30 0.5 0
30.3 0.5 0
30.6 0.5 0
0 0.6 0
0.3 0.6 0
0.6 0.6 0
0.9 0.6 0
1.2 0.6 0
1.5 0.6 0
1.8 0.6 0
2.1 0.6 0
2.4 0.6 0
2.7 0.6 0
3 0.6 0
3.3 0.6 0
3.6 0.6 0
3.9 0.6 0
4.2 0.6 0
4.5 0.6 0
4.8 0.6 0
5.1 0.6 0
5.4 0.6 0
5.7 0.6 0
6 0.6 0
6.3 0.6 0
6.6 0.6 0
6.9 0.6 0
7.2 0.6 0
7.5 0.6 0
7.8 0.6 0
8.1 0.6 0
8.4 0.6 0
8.7 0.6 0
9 0.6 0
9.3 0.6 0
9.6 0.6 0
9.9 0.6 0
10.2 0.6 0
10.5 0.6 0
10.8 0.6 0
11.1 0.6 0
11.4 0.6 0
11.7 0.6 0
12 0.6 0
12.3 0.6 0
12.6 0.6 0
12.9 0.6 0
13.2 0.6 0
13.5 0.6 0
13.8 0.6 0
14.1 0.6 0
14.4 0.6 0
14.7 0.6 0
15 0.6 0
15.3 0.6 0
15.6 0.6 0
15.9 0.6 0
16.2 0.6 0
16.5 0.6 0
16.8 0.6 0
17.1 0.6 0
17.4 0.6 0
17.7 0.6 0
18 0.6 0
18.3 0.6 0
18.6 0.6 0
18.9 0.6 0
19.2 0.6 0
19.5 0.6 0
19.8 0.6 0
20.1 0.6 0
20.4 0.6 0
20.7 0.6 0
21 0.6 0
21.3 0.6 0
21.6 0.6 0
21.9 0.6 0
22.2 0.6 0
22.5 0.6 0
22.8 0.6 0
23.1 0.6 0
23.4 0.6 0
23.7 0.6 0
24 0.6 0
24.3 0.6 0
24.6 0.6 0
24.9 0.6 0
25.2 0.6 0
25.5 0.6 0
25.8 0.6 0
26.1 0.6 0
26.4 0.6 0
26.7 0.6 0
27 0.6 0
27.3 0.6 0
27.6 0.6 0
27.9 0.6 0
28.2 0.6 0
28.5 0.6 0
28.8 0.6 0
29.1 0.6 0
29.4 0.6 0
29.7 0.6 0
30 0.6 0
30.3 0.6 0
30.6 0.6 0
0 0.7 0
0.3 0.7 0
0.6 0.7 0
0.9 0.7 0
1.2 0.7 0
1.5 0.7 0
1.8 0.7 0
2.1 0.7 0
2.4 0.7 0
2.7 0.7 0
3 0.7 0
3.3 0.7 0
3.6 0.7 0
3.9 0.7 0
4.2 0.7 0
4.5 0.7 0
4.8 0.7 0
5.1 0.7 0
5.4 0.7 0
5.7 0.7 0
6 0.7 0
6.3 0.7 0
6.6 0.7 0
6.9 0.7 0
7.2 0.7 0
7.5 0.7 0
7.8 0.7 0
8.1 0.7 0
8.4 0.7 0
8.7 0.7 0
9 0.7 0
9.3 0.7 0
9.6 0.7 0
9.9 0.7 0
10.2 0.7 0
10.5 0.7 0
10.8 0.7 0
11.1 0.7 0
11.4 0.7 0
11.7 0.7 0
12 0.7 0
12.3 0.7 0
12.6 0.7 0
12.9 0.7 0
13.2 0.7 0
13.5 0.7 0
13.8 0.7 0
14.1 0.7 0
14.4 0.7 0
14.7 0.7 0
15 0.7 0
15.3 0.7 0
15.6 0.7 0
15.9 0.7 0
16.2 0.7 0
16.5 0.7 0
16.8 0.7 0
17.1 0.7 0
17.4 0.7 0
17.7 0.7 0
18 0.7 0
18.3 0.7 0
18.6 0.7 0
18.9 0.7 0
19.2 0.7 0
19.5 0.7 0
19.8 0.7 0
20.1 0.7 0
20.4 0.7 0
20.7 0.7 0
21 0.7 0
21.3 0.7 0
21.6 0.7 0
21.9 0.7 0
22.2 0.7 0
22.5 0.7 0
22.8 0.7 0
23.1 0.7 0
23.4 0.7 0
23.7 0.7 0
24 0.7 0
24.3 0.7 0
24.6 0.7 0
24.9 0.7 0
25.2 0.7 0
25.5 0.7 0
25.8 0.7 0
26.1 0.7 0
26.4 0.7 0
26.7 0.7 0
27 0.7 0
27.3 0.7 0
27.6 0.7 0
27.9 0.7 0
28.2 0.7 0
28.5 0.7 0
28.8 0.7 0
29.1 0.7 0
29.4 0.7 0
29.7 0.7 0
30 0.7 0
30.3 0.7 0
30.6 0.7 0
0 0.8 0
0.3 0.8 0
0.6 0.8 0
0.9 0.8 0
1.2 0.8 0
1.5 0.8 0
1.8 0.8 0
2.1 0.8 0
2.4 0.8 0
2.7 0.8 0
3 0.8 0
3.3 0.8 0
3.6 0.8 0
3.9 0.8 0
4.2 0.8 0
4.5 0.8 0
4.8 0.8 0
5.1 0.8 0
5.4 0.8 0
5.7 0.8 0
6 0.8 0
6.3 0.8 0
6.6 0.8 0
6.9 0.8 0
7.2 0.8 0
7.5 0.8 0
7.8 0.8 0
8.1 0.8 0
8.4 0.8 0
8.7 0.8 0
9 0.8 0
9.3 0.8 0
9.6 0.8 0
9.9 0.8 0
10.2 0.8 0
10.5 0.8 0
10.8 0.8 0
11.1 0.8 0
11.4 0.8 0
11.7 0.8 0
12 0.8 0
12.3 0.8 0
12.6 0.8 0
12.9 0.8 0
13.2 0.8 0
13.5 0.8 0
13.8 0.8 0
14.1 0.8 0
14.4 0.8 0
14.7 0.8 0
15 0.8 0
15.3 0.8 0
15.6 0.8 0
15.9 0.8 0
16.2 0.8 0
16.5 0.8 0
16.8 0.8 0
17.1 0.8 0
17.4 0.8 0
17.7 0.8 0
18 0.8 0
18.3 0.8 0
18.6 0.8 0
18.9 0.8 0
19.2 0.8 0
19.5 0.8 0
19.8 0.8 0
20.1 0.8 0
20.4 0.8 0
20.7 0.8 0
21 0.8 0
21.3 0.8 0
21.6 0.8 0
21.9 0.8 0
22.2 0.8 0
22.5 0.8 0
22.8 0.8 0
23.1 0.8 0
23.4 0.8 0
23.7 0.8 0
24 0.8 0
24.3 0.8 0
24.6 0.8 0
24.9 0.8 0
25.2 0.8 0
25.5 0.8 0
25.8 0.8 0
26.1 0.8 0
26.4 0.8 0
26.7 0.8 0
27 0.8 0
27.3 0.8 0
27.6 0.8 0
27.9 0.8 0
28.2 0.8 0
28.5 0.8 0
28.8 0.8 0
29.1 0.8 0
29.4 0.8 0
29.7 0.8 0
30 0.8 0
30.3 0.8 0
30.6 0.8 0
0 0.9 0
0.3 0.9 0
0.6 0.9 0
0.9 0.9 0
1.2 0.9 0
1.5 0.9 0
1.8 0.9 0
2.1 0.9 0
2.4 0.9 0
2.7 0.9 0
3 0.9 0
3.3 0.9 0
3.6 0.9 0
3.9 0.9 0
4.2 0.9 0
4.5 0.9 0
4.8 0.9 0
5.1 0.9 0
5.4 0.9 0
5.7 0.9 0
6 0.9 0
6.3 0.9 0
6.6 0.9 0
6.9 0.9 0
7.2 0.9 0
7.5 0.9 0
7.8 0.9 0
8.1 0.9 0
8.4 0.9 0
8.7 0.9 0
9 0.9 0
9.3 0.9 0
9.6 0.9 0
9.9 0.9 0
10.2 0.9 0
10.5 0.9 0
10.8 0.9 0
11.1 0.9 0
11.4 0.9 0
11.7 0.9 0
12 0.9 0
12.3 0.9 0
12.6 0.9 0
12.9 0.9 0
13.2 0.9 0
13.5 0.9 0
13.8 0.9 0
14.1 0.9 0
14.4 0.9 0
14.7 0.9 0
15 0.9 0
15.3 0.9 0
15.6 0.9 0
15.9 0.9 0
16.2 0.9 0
16.5 0.9 0
16.8 0.9 0
17.1 0.9 0
17.4 0.9 0
17.7 0.9 0
18 0.9 0
18.3 0.9 0
18.6 0.9 0
18.9 0.9 0
19.2 0.9 0
19.5 0.9 0
19.8 0.9 0
20.1 0.9 0
20.4 0.9 0
20.7 0.9 0
21 0.9 0
21.3 0.9 0
21.6 0.9 0
21.9 0.9 0
22.2 0.9 0
22.5 0.9 0
22.8 0.9 0
23.1 0.9 0
23.4 0.9 0
23.7 0.9 0
24 0.9 0
24.3 0.9 0
24.6 0.9 0
24.9 0.9 0
25.2 0.9 0
25.5 0.9 0
25.8 0.9 0
26.1 0.9 0
26.4 0.9 0
26.7 0.9 0
27 0.9 0
27.3 0.9 0
27.6 0.9 0
27.9 0.9 0
28.2 0.9 0
28.5 0.9 0
28.8 0.9 0
29.1 0.9 0
29.4 0.9 0
29.7 0.9 0
30 0.9 0
30.3 0.9 0
30.6 0.9 0
0 1 0
0.3 1 0
0.6 1 0
0.9 1 0
1.2 1 0
1.5 1 0
1.8 1 0
2.1 1 0
2.4 1 0
2.7 1 0
3 1 0
3.3 1 0
3.6 1 0
3.9 1 0
4.2 1 0
4.5 1 0
4.8 1 0
5.1 1 0
5.4 1 0
5.7 1 0
6 1 0
6.3 1 0
6.6 1 0
6.9 1 0
7.2 1 0
7.5 1 0
7.8 1 0
8.1 1 0
8.4 1 0
8.7 1 0
9 1 0
9.3 1 0
9.6 1 0
9.9 1 0
10.2 1 0
10.5 1 0
10.8 1 0
11.1 1 0
11.4 1 0
11.7 1 0
12 1 0
12.3 1 0
12.6 1 0
12.9 1 0
13.2 1 0
13.5 1 0
13.8 1 0
14.1 1 0
14.4 1 0
14.7 1 0
15 1 0
15.3 1 0
15.6 1 0
15.9 1 0
16.2 1 0
16.5 1 0
16.8 1 0
17.1 1 0
17.4 1 0
17.7 1 0
18 1 0
18.3 1 0
18.6 1 0
18.9 1 0
19.2 1 0
19.5 1 0
19.8 1 0
20.1 1 0
20.4 1 0
20.7 1 0
21 1 0
21.3 1 0
21.6 1 0
21.9 1 0
22.2 1 0
22.5 1 0
22.8 1 0
23.1 1 0
23.4 1 0
23.7 1 0
24 1 0
24.3 1 0
24.6 1 0
24.9 1 0
25.2 1 0
25.5 1 0
25.8 1 0
26.1 1 0
26.4 1 0
26.7 1 0
27 1 0
27.3 1 0
27.6 1 0
27.9 1 0
28.2 1 0
28.5 1 0
28.8 1 0
29.1 1 0
29.4 1 0
29.7 1 0
30 1 0
30.3 1 0
30.6 1 0
0 1.1 0
0.3 1.1 0
0.6 1.1 0
0.9 1.1 0
1.2 1.1 0
1.5 1.1 0
1.8 1.1 0
2.1 1.1 0
2.4 1.1 0
2.7 1.1 0
3 1.1 0
3.3 1.1 0
3.6 1.1 0
3.9 1.1 0
4.2 1.1 0
4.5 1.1 0
4.8 1.1 0
5.1 1.1 0
5.4 1.1 0
5.7 1.1 0
6 1.1 0
6.3 1.1 0
6.6 1.1 0
6.9 1.1 0
7.2 1.1 0
7.5 1.1 0
7.8 1.1 0
8.1 1.1 0
8.4 1.1 0
8.7 1.1 0
9 1.1 0
9.3 1.1 0
9.6 1.1 0
9.9 1.1 0
10.2 1.1 0
10.5 1.1 0
10.8 1.1 0
11.1 1.1 0
11.4 1.1 0
11.7 1.1 0
12 1.1 0
12.3 1.1 0
12.6 1.1 0
12.9 1.1 0
13.2 1.1 0
13.5 1.1 0
13.8 1.1 0
14.1 1.1 0
14.4 1.1 0
14.7 1.1 0
15 1.1 0
15.3 1.1 0
15.6 1.1 0
15.9 1.1 0
16.2 1.1 0
16.5 1.1 0
16.8 1.1 0
17.1 1.1 0
17.4 1.1 0
17.7 1.1 0
18 1.1 0
18.3 1.1 0
18.6 1.1 0
18.9 1.1 0
19.2 1.1 0
19.5 1.1 0
19.8 1.1 0
20.1 1.1 0
20.4 1.1 0
20.7 1.1 0
21 1.1 0
21.3 1.1 0
21.6 1.1 0
21.9 1.1 0
22.2 1.1 0
22.5 1.1 0
22.8 1.1 0
23.1 1.1 0
23.4 1.1 0
23.7 1.1 0
24 1.1 0
24.3 1.1 0
24.6 1.1 0
24.9 1.1 0
25.2 1.1 0
25.5 1.1 0
25.8 1.1 0
26.1 1.1 0
26.4 1.1 0
26.7 1.1 0
27 1.1 0
27.3 1.1 0
27.6 1.1 0
27.9 1.1 0
28.2 1.1 0
28.5 1.1 0
28.8 1.1 0
29.1 1.1 0
29.4 1.1 0
29.7 1.1 0
30 1.1 0
30.3 1.1 0
30.6 1.1 0
0 1.2 0
0.3 1.2 0
0.6 1.2 0
0.9 1.2 0
1.2 1.2 0
1.5 1.2 0
1.8 1.2 0
2.1 1.2 0
2.4 1.2 0
2.7 1.2 0
3 1.2 0
3.3 1.2 0
3.6 1.2 0
3.9 1.2 0
4.2 1.2 0
4.5 1.2 0
4.8 1.2 0
5.1 1.2 0
5.4 1.2 0
5.7 1.2 0
6 1.2 0
6.3 1.2 0
6.6 1.2 0
6.9 1.2 0
7.2 1.2 0
7.5 1.2 0
7.8 1.2 0
8.1 1.2 0
8.4 1.2 0
8.7 1.2 0
9 1.2 0
9.3 1.2 0
9.6 1.2 0
9.9 1.2 0
10.2 1.2 0
10.5 1.2 0
10.8 1.2 0
11.1 1.2 0
11.4 1.2 0
11.7 1.2 0
12 1.2 0
12.3 1.2 0
12.6 1.2 0
12.9 1.2 0
13.2 1.2 0
13.5 1.2 0
13.8 1.2 0
14.1 1.2 0
14.4 1.2 0
14.7 1.2 0
15 1.2 0
15.3 1.2 0
15.6 1.2 0
15.9 1.2 0
16.2 1.2 0
16.5 1.2 0
16.8 1.2 0
17.1 1.2 0
17.4 1.2 0
17.7 1.2 0
18 1.2 0
18.3 1.2 0
18.6 1.2 0
18.9 1.2 0
19.2 1.2 0
19.5 1.2 0
19.8 1.2 0
20.1 1.2 0
20.4 1.2 0
20.7 1.2 0
21 1.2 0
21.3 1.2 0
21.6 1.2 0
21.9 1.2 0
22.2 1.2 0
22.5 1.2 0
22.8 1.2 0
23.1 1.2 0
23.4 1.2 0
23.7 1.2 0
24 1.2 0
24.3 1.2 0
24.6 1.2 0
24.9 1.2 0
25.2 1.2 0
25.5 1.2 0
25.8 1.2 0
26.1 1.2 0
26.4 1.2 0
26.7 1.2 0
27 1.2 0
27.3 1.2 0
27.6 1.2 0
27.9 1.2 0
28.2 1.2 0
28.5 1.2 0
28.8 1.2 0
29.1 1.2 0
29.4 1.2 0
29.7 1.2 0
30 1.2 0
30.3 1.2 0
30.6 1.2 0

POINT_DATA 1339

SCALARS pressure double
LOOKUP_TABLE pressure
1.17109
1.17109
1.10625
1.06201
1.02219
0.985616
0.952564
0.923036
0.89668
0.872971
0.851369
0.831406
0.812713
0.795013
0.778107
0.761847
0.746128
0.730872
0.71602
0.701525
0.687351
0.673466
0.659845
0.646467
0.633311
0.620361
0.607601
0.595019
0.582601
0.570337
0.558216
0.54623
0.534369
0.522625
0.510993
0.499463
0.488032
0.476692
0.465439
0.454267
0.443172
0.432149
0.421195
0.410305
0.399476
0.388705
0.377987
0.367321
0.356704
0.346132
0.335603
0.325116
0.314668
0.304258
0.293883
0.283543
0.273236
0.262962
0.252718
0.242506
0.232323
0.222168
0.212042
0.201942
0.191868
0.181818
0.171791
0.161786
0.1518
0.141833
0.131882
0.121946
0.112023
0.102111
0.0922093
0.0823161
0.0724301
0.0625502
0.0526752
0.0428044
0.0329369
0.023072
0.0132093
0.00334816
-0.00651166
-0.0163705
-0.0262285
-0.036086
-0.045943
-0.0557998
-0.0656564
-0.0755128
-0.085369
-0.0952252
-0.105081
-0.114937
-0.124793
-0.134649
-0.144505
-0.154361
-0.164217
-0.174071
0.174071
1.17109
1.17109
1.10625
1.06201
1.02219
0.985616
0.952564
0.923036
0.89668
0.872971
0.851369
0.831406
0.812713
0.795013
0.778107
0.761847
0.746128
0.730872
0.71602
0.701525
0.687351
0.673466
0.659845
0.646467
0.633311
0.620361
0.607601
0.595019
0.582601
0.570337
0.558216
0.54623
0.534369
0.522625
0.510993
0.499463
0.488032
0.476692
0.465439
0.454267
0.443172
0.432149
0.421195
0.410305
0.399476
0.388705
0.377987
0.367321
0.356704
0.346132
0.335603
0.325116
0.314668
0.304258
0.293883
0.283543
0.273236
0.262962
0.252718
0.242506
0.232323
0.222168
0.212042
0.201942
0.191868
0.181818
0.171791
0.161786
0.1518
0.141833
0.131882
0.121946
0.112023
0.102111
0.0922093
0.0823161
0.0724301
0.0625502
0.0526752
0.0428044
0.0329369
0.023072
0.0132093
0.00334816
-0.00651166
-0.0163705
-0.0262285
-0.036086
-0.045943
-0.0557998
-0.0656564
-0.0755128
-0.085369
-0.0952252
-0.105081
-0.114937
-0.124793
-0.134649
-0.144505
-0.154361
-0.164217
-0.174071
0.174071
1.15015
1.15015
1.10426
1.06224
1.02289
0.986412
0.953307
0.923667
0.897187
0.873366
0.851672
0.831639
0.812895
0.795158
0.778224
0.761944
0.746211
0.730944
0.716083
0.701581
0.6874
0.673511
0.659886
0.646503
0.633344
0.620392
0.60763
0.595045
0.582625
0.570359
0.558237
0.546249
0.534387
0.522642
0.511008
0.499478
0.488046
0.476705
0.465451
0.454278
0.443183
0.432159
0.421204
0.410314
0.399484
0.388712
0.377995
0.367328
0.35671
0.346138
0.335609
0.325122
0.314673
0.304262
0.293888
0.283547
0.27324
0.262965
0.252721
0.242508
0.232325
0.22217
0.212044
0.201944
0.191869
0.181819
0.171792
0.161787
0.151801
0.141833
0.131882
0.121946
0.112023
0.102111
0.0922093
0.0823161
0.0724301
0.0625501
0.0526752
0.0428044
0.0329368
0.023072
0.0132092
0.00334813
-0.00651168
-0.0163705
-0.0262285
-0.036086
-0.045943
-0.0557998
-0.0656564
-0.0755128
-0.085369
-0.0952252
-0.105081
-0.114937
-0.124793
-0.134649
-0.144505
-0.154361
-0.164217
-0.174071
0.174071
1.13517
1.13517
1.10138
1.06247
1.02401
0.987736
0.954568
0.924745
0.898049
0.874025
0.852165
0.832004
0.813166
0.795363
0.778382
0.762069
0.746312
0.731028
0.716154
0.701642
0.687453
0.673557
0.659927
0.64654
0.633378
0.620422
0.607657
0.59507
0.582648
0.57038
0.558256
0.546266
0.534403
0.522657
0.511022
0.499491
0.488057
0.476716
0.465461
0.454288
0.443192
0.432168
0.421212
0.410321
0.399491
0.388719
0.378
0.367334
0.356715
0.346143
0.335614
0.325126
0.314677
0.304266
0.293891
0.28355
0.273243
0.262968
0.252724
0.242511
0.232327
0.222172
0.212045
0.201945
0.19187
0.18182
0.171793
0.161787
0.151801
0.141834
0.131882
0.121946
0.112023
0.102111
0.0922093
0.0823161
0.07243
0.0625501
0.0526751
0.0428043
0.0329368
0.0230719
0.0132092
0.0033481
-0.0065117
-0.0163705
-0.0262285
-0.036086
-0.0459431
-0.0557998
-0.0656564
-0.0755128
-0.085369
-0.0952252
-0.105081
-0.114937
-0.124793
-0.134649
-0.144505
-0.154361
-0.164217
-0.17407
0.17407
1.1256
1.1256
1.09889
1.06258
1.02496
0.988931
0.955745
0.925782
0.898902
0.874698
0.852682
0.832399
0.813468
0.795597
0.778567
0.762219
0.746435
0.731131
0.716242
0.701718
0.68752
0.673616
0.659979
0.646587
0.633419
0.620459
0.60769
0.5951
0.582676
0.570405
0.558279
0.546288
0.534422
0.522675
0.511038
0.499506
0.488071
0.476729
0.465473
0.454299
0.443202
0.432177
0.421221
0.41033
0.399499
0.388726
0.378007
0.36734
0.356721
0.346148
0.335619
0.325131
0.314682
0.304271
0.293895
0.283554
0.273247
0.262971
0.252727
0.242514
0.23233
0.222175
0.212048
0.201947
0.191872
0.181822
0.171794
0.161789
0.151803
0.141835
0.131883
0.121947
0.112024
0.102112
0.0922098
0.0823165
0.0724304
0.0625503
0.0526753
0.0428045
0.0329369
0.023072
0.0132093
0.00334815
-0.00651166
-0.0163705
-0.0262285
-0.036086
-0.0459431
-0.0557998
-0.0656564
-0.0755128
-0.085369
-0.0952252
-0.105081
-0.114937
-0.124793
-0.134649
-0.144505
-0.154361
-0.164215
-0.174069
0.174069
1.12028
1.12028
1.09727
1.0626
1.02555
0.989698
0.956514
0.926471
0.89948
0.875162
0.853046
0.832683
0.813691
0.795774
0.77871
0.762337
0.746534
0.731216
0.716315
0.701782
0.687577
0.673666
0.660024
0.646628
0.633456
0.620492
0.607721
0.595128
0.582701
0.570429
0.558301
0.546307
0.53444
0.522692
0.511054
0.49952
0.488085
0.476741
0.465485
0.45431
0.443212
0.432187
0.42123
0.410338
0.399507
0.388733
0.378014
0.367346
0.356727
0.346154
0.335624
0.325136
0.314687
0.304275
0.293899
0.283558
0.273251
0.262975
0.252731
0.242517
0.232333
0.222178
0.21205
0.20195
0.191875
0.181824
0.171797
0.161791
0.151804
0.141836
0.131885
0.121948
0.112025
0.102113
0.0922106
0.0823171
0.0724309
0.0625508
0.0526757
0.0428048
0.0329371
0.0230722
0.0132094
0.00334826
-0.00651157
-0.0163704
-0.0262285
-0.0360859
-0.045943
-0.0557998
-0.0656564
-0.0755128
-0.085369
-0.0952252
-0.105081
-0.114937
-0.124793
-0.134649
-0.144505
-0.15436
-0.164213
-0.174068
0.174068
1.11859
1.11859
1.09672
1.06261
1.02576
0.989972
0.956787
0.926717
0.899686
0.875329
0.853179
0.832787
0.813774
0.795841
0.778765
0.762382
0.746573
0.731249
0.716344
0.701808
0.6876
0.673687
0.660043
0.646645
0.633472
0.620507
0.607734
0.59514
0.582712
0.570439
0.55831
0.546316
0.534448
0.522699
0.511061
0.499527
0.488091
0.476747
0.46549
0.454315
0.443216
0.432191
0.421234
0.410341
0.39951
0.388736
0.378017
0.367349
0.35673
0.346156
0.335627
0.325138
0.314689
0.304277
0.293901
0.28356
0.273252
0.262977
0.252732
0.242519
0.232335
0.222179
0.212052
0.201951
0.191876
0.181825
0.171798
0.161792
0.151805
0.141837
0.131886
0.121949
0.112025
0.102113
0.092211
0.0823175
0.0724312
0.062551
0.0526759
0.0428049
0.0329373
0.0230723
0.0132095
0.00334832
-0.00651152
-0.0163704
-0.0262284
-0.0360859
-0.045943
-0.0557998
-0.0656564
-0.0755128
-0.085369
-0.0952252
-0.105081
-0.114937
-0.124793
-0.134649
-0.144505
-0.15436
-0.164212
-0.174068
0.174068
1.12028
1.12028
1.09727
1.0626
1.02555
0.989698
0.956514
0.926471
0.89948
0.875162
0.853046
0.832683
0.813691
0.795774
0.77871
0.762337
0.746534
0.731216
0.716315
0.701782
0.687577
0.673666
0.660024
0.646628
0.633456
0.620492
0.607721
0.595128
0.582701
0.570429
0.558301
0.546307
0.53444
0.522692
0.511054
0.49952
0.488085
0.476741
0.465485
0.45431
0.443212
0.432187
0.42123
0.410338
0.399507
0.388733
0.378014
0.367346
0.356727
0.346154
0.335624
0.325136
0.314687
0.304275
0.293899
0.283558
0.273251
0.262975
0.252731
0.242517
0.232333
0.222178
0.21205
0.20195
0.191875
0.181824
0.171797
0.161791
0.151804
0.141836
0.131885
0.121948
0.112025
0.102113
0.0922106
0.0823171
0.0724309
0.0625508
0.0526757
0.0428048
0.0329371
0.0230722
0.0132094
0.00334827
-0.00651156
-0.0163704
-0.0262284
-0.036086
-0.045943
-0.0557998
-0.0656564
-0.0755128
-0.085369
-0.0952252
-0.105081
-0.114937
-0.124793
-0.134649
-0.144505
-0.15436
-0.164213
-0.174068
0.174068
1.1256
1.1256
1.09889
1.06258
1.02496
0.988931
0.955745
0.925782
0.898902
0.874698
0.852682
0.832399
0.813468
0.795597
0.778567
0.762219
0.746435
0.731131
0.716242
0.701718
0.68752
0.673616
0.659979
0.646587
0.633419
0.620459
0.60769
0.5951
0.582676
0.570405
0.558279
0.546288
0.534422
0.522675
0.511038
0.499506
0.488071
0.476729
0.465473
0.454299
0.443202
0.432177
0.421221
0.41033
0.399499
0.388726
0.378007
0.36734
0.356721
0.346148
0.335619
0.325131
0.314682
0.304271
0.293895
0.283554
0.273247
0.262971
0.252727
0.242514
0.23233
0.222175
0.212048
0.201947
0.191872
0.181822
0.171794
0.161789
0.151803
0.141835
0.131883
0.121947
0.112024
0.102112
0.0922098
0.0823165
0.0724304
0.0625503
0.0526753
0.0428045
0.0329369
0.023072
0.0132093
0.00334816
-0.00651164
-0.0163704
-0.0262285
-0.036086
-0.0459431
-0.0557998
-0.0656564
-0.0755128
-0.085369
-0.0952252
-0.105081
-0.114937
-0.124793
-0.134649
-0.144505
-0.154361
-0.164215
-0.174069
0.174069
1.13517
1.13517
1.10138
1.06247
1.02401
0.987736
0.954568
0.924745
0.898049
0.874025
0.852165
0.832004
0.813166
0.795363
0.778382
0.762069
0.746312
0.731028
0.716154
0.701642
0.687453
0.673557
0.659927
0.64654
0.633378
0.620422
0.607657
0.59507
0.582648
0.57038
0.558256
0.546266
0.534403
0.522657
0.511022
0.499491
0.488057
0.476716
0.465461
0.454288
0.443192
0.432168
0.421212
0.410321
0.399491
0.388719
0.378
0.367334
0.356715
0.346143
0.335614
0.325126
0.314677
0.304266
0.293891
0.28355
0.273243
0.262968
0.252724
0.242511
0.232327
0.222172
0.212045
0.201945
0.19187
0.18182
0.171793
0.161787
0.151801
0.141834
0.131882
0.121946
0.112023
0.102111
0.0922093
0.0823161
0.0724301
0.0625501
0.0526751
0.0428043
0.0329368
0.0230719
0.0132092
0.00334812
-0.00651167
-0.0163705
-0.0262285
-0.036086
-0.0459431
-0.0557999
-0.0656564
-0.0755128
-0.085369
-0.0952252
-0.105081
-0.114937
-0.124793
-0.134649
-0.144505
-0.154361
-0.164217
-0.17407
0.17407
1.15015
1.15015
1.10426
1.06224
1.02289
0.986412
0.953307
0.923667
0.897187
0.873366
0.851672
0.831639
0.812895
0.795158
0.778224
0.761944
0.746211
0.730944
0.716083
0.701581
0.6874
0.673511
0.659886
0.646504
0.633344
0.620392
0.60763
0.595045
0.582625
0.570359
0.558237
0.546249
0.534387
0.522642
0.511008
0.499478
0.488046
0.476705
0.465451
0.454278
0.443183
0.432159
0.421204
0.410314
0.399484
0.388712
0.377995
0.367328
0.35671
0.346138
0.335609
0.325122
0.314673
0.304262
0.293887
0.283547
0.27324
0.262965
0.252721
0.242508
0.232325
0.22217
0.212044
0.201944
0.191869
0.181819
0.171792
0.161787
0.151801
0.141833
0.131882
0.121946
0.112023
0.102111
0.0922093
0.0823161
0.0724301
0.0625501
0.0526752
0.0428044
0.0329368
0.023072
0.0132092
0.00334815
-0.00651164
-0.0163704
-0.0262285
-0.036086
-0.0459431
-0.0557998
-0.0656564
-0.0755128
-0.085369
-0.0952252
-0.105081
-0.114937
-0.124793
-0.134649
-0.144505
-0.154361
-0.164218
-0.174071
0.174071
1.17109
1.17109
1.10625
1.06201
1.02219
0.985616
0.952564
0.923036
0.89668
0.872971
0.851369
0.831406
0.812713
0.795013
0.778107
0.761847
0.746128
0.730872
0.71602
0.701525
0.687351
0.673466
0.659845
0.646467
0.633311
0.620361
0.607601
0.595019
0.582601
0.570337
0.558216
0.54623
0.534369
0.522625
0.510993
0.499463
0.488032
0.476692
0.465439
0.454267
0.443172
0.432149
0.421195
0.410305
0.399476
0.388705
0.377987
0.367321
0.356704
0.346132
0.335603
0.325116
0.314668
0.304258
0.293883
0.283543
0.273236
0.262962
0.252718
0.242506
0.232323
0.222168
0.212042
0.201942
0.191868
0.181818
0.171791
0.161786
0.1518
0.141833
0.131882
0.121946
0.112023
0.102111
0.0922093
0.0823161
0.0724301
0.0625502
0.0526752
0.0428044
0.0329369
0.023072
0.0132093
0.00334817
-0.00651162
-0.0163704
-0.0262285
-0.036086
-0.0459431
-0.0557998
-0.0656564
-0.0755128
-0.085369
-0.0952252
-0.105081
-0.114937
-0.124793
-0.134649
-0.144505
-0.154361
-0.164217
-0.174071
0.174071
1.17109
1.17109
1.10625
1.06201
1.02219
0.985616
0.952564
0.923036
0.89668
0.872971
0.851369
0.831406
0.812713
0.795013
0.778107
0.761847
0.746128
0.730872
0.71602
0.701525
0.687351
0.673466
0.659845
0.646467
0.633311
0.620361
0.607601
0.595019
0.582601
0.570337
0.558216
0.54623
0.534369
0.522625
0.510993
0.499463
0.488032
0.476692
0.465439
0.454267
0.443172
0.432149
0.421195
0.410305
0.399476
0.388705
0.377987
0.367321
0.356704
0.346132
0.335603
0.325116
0.314668
0.304258
0.293883
0.283543
0.273236
0.262962
0.252718
0.242506
0.232323
0.222168
0.212042
0.201942
0.191868
0.181818
0.171791
0.161786
0.1518
0.141833
0.131882
0.121946
0.112023
0.102111
0.0922093
0.0823161
0.0724301
0.0625502
0.0526752
0.0428044
0.0329369
0.023072
0.0132093
0.00334817
-0.00651162
-0.0163704
-0.0262285
-0.036086
-0.0459431
-0.0557998
-0.0656564
-0.0755128
-0.085369
-0.0952252
-0.105081
-0.114937
-0.124793
-0.134649
-0.144505
-0.154361
-0.164217
-0.174071
0.174071
SCALARS phi double
LOOKUP_TABLE phi
1
1
1
1
0.999998
0.999994
0.999982
0.999957
0.99991
0.99983
0.999705
0.999525
0.999277
0.998951
0.998536
0.998023
0.997404
0.996675
0.99584
0.994896
0.993817
0.99252
0.99085
0.988573
0.985399
0.981017
0.975138
0.967521
0.957996
0.946472
0.932929
0.917408
0.900006
0.880853
0.860114
0.837968
0.814606
0.790221
0.765007
0.739148
0.712819
0.686183
0.659389
0.632572
0.605851
0.579334
0.553111
0.527264
0.501859
0.476954
0.452595
0.428821
0.405663
0.383143
0.36128
0.340085
0.319568
0.299732
0.280579
0.262109
0.24432
0.227208
0.210771
0.195004
0.179903
0.165466
0.15169
0.138573
0.126114
0.114312
0.103166
0.0926758
0.0828415
0.073661
0.0651316
0.0572483
0.0500037
0.0433875
0.0373854
0.0319795
0.027148
0.0228646
0.0190996
0.0158197
0.012989
0.0105694
0.00852175
0.00680648
0.00538462
0.00421847
0.00327237
0.00251317
0.00191069
0.00143789
0.00107102
0.000789556
0.000576051
0.000415912
0.000297244
0.000209905
0.000148191
9.6448e-05
9.6448e-05
1
1
1
1
0.999998
0.999994
0.999982
0.999957
0.99991
0.99983
0.999705
0.999525
0.999277
0.998951
0.998536
0.998023
0.997404
0.996675
0.99584
0.994896
0.993817
0.99252
0.99085
0.988573
0.985399
0.981017
0.975138
0.967521
0.957996
0.946472
0.932929
0.917408
0.900006
0.880853
0.860114
0.837968
0.814606
0.790221
0.765007
0.739148
0.712819
0.686183
0.659389
0.632572
0.605851
0.579334
0.553111
0.527264
0.501859
0.476954
0.452595
0.428821
0.405663
0.383143
0.36128
0.340085
0.319568
0.299732
0.280579
0.262109
0.24432
0.227208
0.210771
0.195004
0.179903
0.165466
0.15169
0.138573
0.126114
0.114312
0.103166
0.0926758
0.0828415
0.073661
0.0651316
0.0572483
0.0500037
0.0433875
0.0373854
0.0319795
0.027148
0.0228646
0.0190996
0.0158197
0.012989
0.0105694
0.00852175
0.00680648
0.00538462
0.00421847
0.00327237
0.00251317
0.00191069
0.00143789
0.00107102
0.000789556
0.000576051
0.000415912
0.000297244
0.000209905
0.000148191
9.6448e-05
9.6448e-05
1
1
1
0.999996
0.999983
0.999954
0.999898
0.999804
0.999658
0.999446
0.999157
0.998778
0.998299
0.997713
0.997014
0.996196
0.995255
0.99419
0.993002
0.991693
0.990263
0.988702
0.986978
0.985024
0.982736
0.979973
0.976569
0.972343
0.96712
0.96074
0.953074
0.944026
0.933536
0.921584
0.908183
0.893378
0.877237
0.859854
0.841333
0.821793
0.801358
0.780154
0.75831
0.735947
0.713186
0.690137
0.666905
0.643588
0.620274
0.597042
0.573963
0.551103
0.528514
0.506246
0.484339
0.462827
0.441735
0.421086
0.400895
0.381171
0.361919
0.343142
0.324836
0.306997
0.289617
0.272688
0.256201
0.240148
0.22452
0.209311
0.19452
0.180147
0.166199
0.152687
0.139627
0.127042
0.114959
0.103411
0.09243
0.0820526
0.0723121
0.0632387
0.054857
0.0471833
0.040225
0.0339789
0.0284314
0.0235582
0.0193257
0.0156922
0.0126097
0.0100262
0.00788699
0.00613743
0.00472414
0.00359658
0.00270813
0.00201661
0.00148557
0.00108031
0.000785915
0.000525242
0.000525242
0.999997
1
0.99998
0.999896
0.999724
0.999434
0.998999
0.998397
0.997613
0.996636
0.995464
0.994099
0.992547
0.990816
0.988916
0.986859
0.984655
0.982316
0.979853
0.977277
0.974599
0.971828
0.96897
0.966022
0.96297
0.959789
0.956435
0.952849
0.94896
0.944687
0.939945
0.934647
0.928712
0.922067
0.91465
0.906412
0.897321
0.887356
0.876515
0.864807
0.852253
0.838889
0.824756
0.809905
0.794391
0.778276
0.761622
0.744495
0.726958
0.709077
0.690913
0.672529
0.653981
0.635324
0.616608
0.597882
0.579185
0.560556
0.542026
0.52362
0.50536
0.48726
0.469329
0.451568
0.433976
0.416545
0.39926
0.382105
0.365057
0.348093
0.331187
0.314315
0.297454
0.280589
0.263711
0.246827
0.229956
0.213135
0.19642
0.179886
0.163625
0.147742
0.132354
0.117579
0.103533
0.0903231
0.0780398
0.0667542
0.0565132
0.0473382
0.0392248
0.0321449
0.0260492
0.0208712
0.016532
0.0129448
0.0100193
0.00766491
0.00579796
0.00432595
0.00322969
0.00221407
0.00221407
0.999999
1
0.99943
0.998224
0.996402
0.994008
0.991093
0.987716
0.983939
0.979828