# vtk DataFile Version 3.0
FlowField
ASCII
DATASET STRUCTURED_GRID
DIMENSIONS 103 13 1 
POINTS 1339 double
0 0 0
0.3 0 0
0.6 0 0
0.9 0 0
1.2 0 0
1.5 0 0
1.8 0 0
2.1 0 0
2.4 0 0
2.7 0 0
3 0 0
3.3 0 0
3.6 0 0
3.9 0 0
4.2 0 0
4.5 0 0
4.8 0 0
5.1 0 0
5.4 0 0
5.7 0 0
6 0 0
6.3 0 0
6.6 0 0
6.9 0 0
7.2 0 0
7.5 0 0
7.8 0 0
8.1 0 0
8.4 0 0
8.7 0 0
9 0 0
9.3 0 0
9.6 0 0
9.9 0 0
10.2 0 0
10.5 0 0
10.8 0 0
11.1 0 0
11.4 0 0
11.7 0 0
12 0 0
12.3 0 0
12.6 0 0
12.9 0 0
13.2 0 0
13.5 0 0
13.8 0 0
14.1 0 0
14.4 0 0
14.7 0 0
15 0 0
15.3 0 0
15.6 0 0
15.9 0 0
16.2 0 0
16.5 0 0
16.8 0 0
17.1 0 0
17.4 0 0
17.7 0 0
18 0 0
18.3 0 0
18.6 0 0
18.9 0 0
19.2 0 0
19.5 0 0
19.8 0 0
20.1 0 0
20.4 0 0
20.7 0 0
21 0 0
21.3 0 0
21.6 0 0
21.9 0 0
22.2 0 0
22.5 0 0
22.8 0 0
23.1 0 0
23.4 0 0
23.7 0 0
24 0 0
24.3 0 0
24.6 0 0
24.9 0 0
25.2 0 0
25.5 0 0
25.8 0 0
26.1 0 0
26.4 0 0
26.7 0 0
27 0 0
27.3 0 0
27.6 0 0
27.9 0 0
28.2 0 0
28.5 0 0
28.8 0 0
29.1 0 0
29.4 0 0
29.7 0 0
30 0 0
30.3 0 0
30.6 0 0
0 0.1 0
0.3 0.1 0
0.6 0.1 0
0.9 0.1 0
1.2 0.1 0
1.5 0.1 0
1.8 0.1 0
2.1 0.1 0
2.4 0.1 0
2.7 0.1 0
3 0.1 0
3.3 0.1 0
3.6 0.1 0
3.9 0.1 0
4.2 0.1 0
4.5 0.1 0
4.8 0.1 0
5.1 0.1 0
5.4 0.1 0
5.7 0.1 0
6 0.1 0
6.3 0.1 0
6.6 0.1 0
6.9 0.1 0
7.2 0.1 0
7.5 0.1 0
7.8 0.1 0
8.1 0.1 0
8.4 0.1 0
8.7 0.1 0
9 0.1 0
9.3 0.1 0
9.6 0.1 0
9.9 0.1 0
10.2 0.1 0
10.5 0.1 0
10.8 0.1 0
11.1 0.1 0
11.4 0.1 0
11.7 0.1 0
12 0.1 0
12.3 0.1 0
12.6 0.1 0
12.9 0.1 0
13.2 0.1 0
13.5 0.1 0
13.8 0.1 0
14.1 0.1 0
14.4 0.1 0
14.7 0.1 0
15 0.1 0
15.3 0.1 0
15.6 0.1 0
15.9 0.1 0
16.2 0.1 0
16.5 0.1 0
16.8 0.1 0
17.1 0.1 0
17.4 0.1 0
17.7 0.1 0
18 0.1 0
18.3 0.1 0
18.6 0.1 0
18.9 0.1 0
19.2 0.1 0
19.5 0.1 0
19.8 0.1 0
20.1 0.1 0
20.4 0.1 0
20.7 0.1 0
21 0.1 0
21.3 0.1 0
21.6 0.1 0
21.9 0.1 0
22.2 0.1 0
22.5 0.1 0
22.8 0.1 0
23.1 0.1 0
23.4 0.1 0
23.7 0.1 0
24 0.1 0
24.3 0.1 0
24.6 0.1 0
24.9 0.1 0
25.2 0.1 0
25.5 0.1 0
25.8 0.1 0
26.1 0.1 0
26.4 0.1 0
26.7 0.1 0
27 0.1 0
27.3 0.1 0
27.6 0.1 0
27.9 0.1 0
28.2 0.1 0
28.5 0.1 0
28.8 0.1 0
29.1 0.1 0
29.4 0.1 0
29.7 0.1 0
30 0.1 0
30.3 0.1 0
30.6 0.1 0
0 0.2 0
0.3 0.2 0
0.6 0.2 0
0.9 0.2 0
1.2 0.2 0
1.5 0.2 0
1.8 0.2 0
2.1 0.2 0
2.4 0.2 0
2.7 0.2 0
3 0.2 0
3.3 0.2 0
3.6 0.2 0
3.9 0.2 0
4.2 0.2 0
4.5 0.2 0
4.8 0.2 0
5.1 0.2 0
5.4 0.2 0
5.7 0.2 0
6 0.2 0
6.3 0.2 0
6.6 0.2 0
6.9 0.2 0
7.2 0.2 0
7.5 0.2 0
7.8 0.2 0
8.1 0.2 0
8.4 0.2 0
8.7 0.2 0
9 0.2 0
9.3 0.2 0
9.6 0.2 0
9.9 0.2 0
10.2 0.2 0
10.5 0.2 0
10.8 0.2 0
11.1 0.2 0
11.4 0.2 0
11.7 0.2 0
12 0.2 0
12.3 0.2 0
12.6 0.2 0
12.9 0.2 0
13.2 0.2 0
13.5 0.2 0
13.8 0.2 0
14.1 0.2 0
14.4 0.2 0
14.7 0.2 0
15 0.2 0
15.3 0.2 0
15.6 0.2 0
15.9 0.2 0
16.2 0.2 0
16.5 0.2 0
16.8 0.2 0
17.1 0.2 0
17.4 0.2 0
17.7 0.2 0
18 0.2 0
18.3 0.2 0
18.6 0.2 0
18.9 0.2 0
19.2 0.2 0
19.5 0.2 0
19.8 0.2 0
20.1 0.2 0
20.4 0.2 0
20.7 0.2 0
21 0.2 0
21.3 0.2 0
21.6 0.2 0
21.9 0.2 0
22.2 0.2 0
22.5 0.2 0
22.8 0.2 0
23.1 0.2 0
23.4 0.2 0
23.7 0.2 0
24 0.2 0
24.3 0.2 0
24.6 0.2 0
24.9 0.2 0
25.2 0.2 0
25.5 0.2 0
25.8 0.2 0
26.1 0.2 0
26.4 0.2 0
26.7 0.2 0
27 0.2 0
27.3 0.2 0
27.6 0.2 0
27.9 0.2 0
28.2 0.2 0
28.5 0.2 0
28.8 0.2 0
29.1 0.2 0
29.4 0.2 0
29.7 0.2 0
30 0.2 0
30.3 0.2 0
30.6 0.2 0
0 0.3 0
0.3 0.3 0
0.6 0.3 0
0.9 0.3 0
1.2 0.3 0
1.5 0.3 0
1.8 0.3 0
2.1 0.3 0
2.4 0.3 0
2.7 0.3 0
3 0.3 0
3.3 0.3 0
3.6 0.3 0
3.9 0.3 0
4.2 0.3 0
4.5 0.3 0
4.8 0.3 0
5.1 0.3 0
5.4 0.3 0
5.7 0.3 0
6 0.3 0
6.3 0.3 0
6.6 0.3 0
6.9 0.3 0
7.2 0.3 0
7.5 0.3 0
7.8 0.3 0
8.1 0.3 0
8.4 0.3 0
8.7 0.3 0
9 0.3 0
9.3 0.3 0
9.6 0.3 0
9.9 0.3 0
10.2 0.3 0
10.5 0.3 0
10.8 0.3 0
11.1 0.3 0
11.4 0.3 0
11.7 0.3 0
12 0.3 0
12.3 0.3 0
12.6 0.3 0
12.9 0.3 0
13.2 0.3 0
13.5 0.3 0
13.8 0.3 0
14.1 0.3 0
14.4 0.3 0
14.7 0.3 0
15 0.3 0
15.3 0.3 0
15.6 0.3 0
15.9 0.3 0
16.2 0.3 0
16.5 0.3 0
16.8 0.3 0
17.1 0.3 0
17.4 0.3 0
17.7 0.3 0
18 0.3 0
18.3 0.3 0
18.6 0.3 0
18.9 0.3 0
19.2 0.3 0
19.5 0.3 0
19.8 0.3 0
20.1 0.3 0
20.4 0.3 0
20.7 0.3 0
21 0.3 0
21.3 0.3 0
21.6 0.3 0
21.9 0.3 0
22.2 0.3 0
22.5 0.3 0
22.8 0.3 0
23.1 0.3 0
23.4 0.3 0
23.7 0.3 0
24 0.3 0
24.3 0.3 0
24.6 0.3 0
24.9 0.3 0
25.2 0.3 0
25.5 0.3 0
25.8 0.3 0
26.1 0.3 0
26.4 0.3 0
26.7 0.3 0
27 0.3 0
27.3 0.3 0
27.6 0.3 0
27.9 0.3 0
28.2 0.3 0
28.5 0.3 0
28.8 0.3 0
29.1 0.3 0
29.4 0.3 0
29.7 0.3 0
30 0.3 0
30.3 0.3 0
30.6 0.3 0
0 0.4 0
0.3 0.4 0
0.6 0.4 0
0.9 0.4 0
1.2 0.4 0
1.5 0.4 0
1.8 0.4 0
2.1 0.4 0
2.4 0.4 0
2.7 0.4 0
3 0.4 0
3.3 0.4 0
3.6 0.4 0
3.9 0.4 0
4.2 0.4 0
4.5 0.4 0
4.8 0.4 0
5.1 0.4 0
5.4 0.4 0
5.7 0.4 0
6 0.4 0
6.3 0.4 0
6.6 0.4 0
6.9 0.4 0
7.2 0.4 0
7.5 0.4 0
7.8 0.4 0
8.1 0.4 0
8.4 0.4 0
8.7 0.4 0
9 0.4 0
9.3 0.4 0
9.6 0.4 0
9.9 0.4 0
10.2 0.4 0
10.5 0.4 0
10.8 0.4 0
11.1 0.4 0
11.4 0.4 0
11.7 0.4 0
12 0.4 0
12.3 0.4 0
12.6 0.4 0
12.9 0.4 0
13.2 0.4 0
13.5 0.4 0
13.8 0.4 0
14.1 0.4 0
14.4 0.4 0
14.7 0.4 0
15 0.4 0
15.3 0.4 0
15.6 0.4 0
15.9 0.4 0
16.2 0.4 0
16.5 0.4 0
16.8 0.4 0
17.1 0.4 0
17.4 0.4 0
17.7 0.4 0
18 0.4 0
18.3 0.4 0
18.6 0.4 0
18.9 0.4 0
19.2 0.4 0
19.5 0.4 0
19.8 0.4 0
20.1 0.4 0
20.4 0.4 0
20.7 0.4 0
21 0.4 0
21.3 0.4 0
21.6 0.4 0
21.9 0.4 0
22.2 0.4 0
22.5 0.4 0
22.8 0.4 0
23.1 0.4 0
23.4 0.4 0
23.7 0.4 0
24 0.4 0
24.3 0.4 0
24.6 0.4 0
24.9 0.4 0
25.2 0.4 0
25.5 0.4 0
25.8 0.4 0
26.1 0.4 0
26.4 0.4 0
26.7 0.4 0
27 0.4 0
27.3 0.4 0
27.6 0.4 0
27.9 0.4 0
28.2 0.4 0
28.5 0.4 0
28.8 0.4 0
29.1 0.4 0
29.4 0.4 0
29.7 0.4 0
30 0.4 0
30.3 0.4 0
30.6 0.4 0
0 0.5 0
0.3 0.5 0
0.6 0.5 0
0.9 0.5 0
1.2 0.5 0
1.5 0.5 0
1.8 0.5 0
2.1 0.5 0
2.4 0.5 0
2.7 0.5 0
3 0.5 0
3.3 0.5 0
3.6 0.5 0
3.9 0.5 0
4.2 0.5 0
4.5 0.5 0
4.8 0.5 0
5.1 0.5 0
5.4 0.5 0
5.7 0.5 0
6 0.5 0
6.3 0.5 0
6.6 0.5 0
6.9 0.5 0
7.2 0.5 0
7.5 0.5 0
7.8 0.5 0
8.1 0.5 0
8.4 0.5 0
8.7 0.5 0
9 0.5 0
9.3 0.5 0
9.6 0.5 0
9.9 0.5 0
10.2 0.5 0
10.5 0.5 0
10.8 0.5 0
11.1 0.5 0
11.4 0.5 0
11.7 0.5 0
12 0.5 0
12.3 0.5 0
12.6 0.5 0
12.9 0.5 0
13.2 0.5 0
13.5 0.5 0
13.8 0.5 0
14.1 0.5 0
14.4 0.5 0
14.7 0.5 0
15 0.5 0
15.3 0.5 0
15.6 0.5 0
15.9 0.5 0
16.2 0.5 0
16.5 0.5 0
16.8 0.5 0
17.1 0.5 0
17.4 0.5 0
17.7 0.5 0
18 0.5 0
18.3 0.5 0
18.6 0.5 0
18.9 0.5 0
19.2 0.5 0
19.5 0.5 0
19.8 0.5 0
20.1 0.5 0
20.4 0.5 0
20.7 0.5 0
21 0.5 0
21.3 0.5 0
21.6 0.5 0
21.9 0.5 0
22.2 0.5 0
22.5 0.5 0
22.8 0.5 0
23.1 0.5 0
23.4 0.5 0
23.7 0.5 0
24 0.5 0
24.3 0.5 0
24.6 0.5 0
24.9 0.5 0
25.2 0.5 0
25.5 0.5 0
25.8 0.5 0
26.1 0.5 0
26.4 0.5 0
26.7 0.5 0
27 0.5 0
27.3 0.5 0
27.6 0.5 0
27.9 0.5 0
28.2 0.5 0
28.5 0.5 0
28.8 0.5 0
29.1 0.5 0
29.4 0.5 0
29.7 0.5 0
30 0.5 0
30.3 0.5 0
30.6 0.5 0
0 0.6 0
0.3 0.6 0
0.6 0.6 0
0.9 0.6 0
1.2 0.6 0
1.5 0.6 0
1.8 0.6 0
2.1 0.6 0
2.4 0.6 0
2.7 0.6 0
3 0.6 0
3.3 0.6 0
3.6 0.6 0
3.9 0.6 0
4.2 0.6 0
4.5 0.6 0
4.8 0.6 0
5.1 0.6 0
5.4 0.6 0
5.7 0.6 0
6 0.6 0
6.3 0.6 0
6.6 0.6 0
6.9 0.6 0
7.2 0.6 0
7.5 0.6 0
7.8 0.6 0
8.1 0.6 0
8.4 0.6 0
8.7 0.6 0
9 0.6 0
9.3 0.6 0
9.6 0.6 0
9.9 0.6 0
10.2 0.6 0
10.5 0.6 0
10.8 0.6 0
11.1 0.6 0
11.4 0.6 0
11.7 0.6 0
12 0.6 0
12.3 0.6 0
12.6 0.6 0
12.9 0.6 0
13.2 0.6 0
13.5 0.6 0
13.8 0.6 0
14.1 0.6 0
14.4 0.6 0
14.7 0.6 0
15 0.6 0
15.3 0.6 0
15.6 0.6 0
15.9 0.6 0
16.2 0.6 0
16.5 0.6 0
16.8 0.6 0
17.1 0.6 0
17.4 0.6 0
17.7 0.6 0
18 0.6 0
18.3 0.6 0
18.6 0.6 0
18.9 0.6 0
19.2 0.6 0
19.5 0.6 0
19.8 0.6 0
20.1 0.6 0
20.4 0.6 0
20.7 0.6 0
21 0.6 0
21.3 0.6 0
21.6 0.6 0
21.9 0.6 0
22.2 0.6 0
22.5 0.6 0
22.8 0.6 0
23.1 0.6 0
23.4 0.6 0
23.7 0.6 0
24 0.6 0
24.3 0.6 0
24.6 0.6 0
24.9 0.6 0
25.2 0.6 0
25.5 0.6 0
25.8 0.6 0
26.1 0.6 0
26.4 0.6 0
26.7 0.6 0
27 0.6 0
27.3 0.6 0
27.6 0.6 0
27.9 0.6 0
28.2 0.6 0
28.5 0.6 0
28.8 0.6 0
29.1 0.6 0
29.4 0.6 0
29.7 0.6 0
30 0.6 0
30.3 0.6 0
30.6 0.6 0
0 0.7 0
0.3 0.7 0
0.6 0.7 0
0.9 0.7 0
1.2 0.7 0
1.5 0.7 0
1.8 0.7 0
2.1 0.7 0
2.4 0.7 0
2.7 0.7 0
3 0.7 0
3.3 0.7 0
3.6 0.7 0
3.9 0.7 0
4.2 0.7 0
4.5 0.7 0
4.8 0.7 0
5.1 0.7 0
5.4 0.7 0
5.7 0.7 0
6 0.7 0
6.3 0.7 0
6.6 0.7 0
6.9 0.7 0
7.2 0.7 0
7.5 0.7 0
7.8 0.7 0
8.1 0.7 0
8.4 0.7 0
8.7 0.7 0
9 0.7 0
9.3 0.7 0
9.6 0.7 0
9.9 0.7 0
10.2 0.7 0
10.5 0.7 0
10.8 0.7 0
11.1 0.7 0
11.4 0.7 0
11.7 0.7 0
12 0.7 0
12.3 0.7 0
12.6 0.7 0
12.9 0.7 0
13.2 0.7 0
13.5 0.7 0
13.8 0.7 0
14.1 0.7 0
14.4 0.7 0
14.7 0.7 0
15 0.7 0
15.3 0.7 0
15.6 0.7 0
15.9 0.7 0
16.2 0.7 0
16.5 0.7 0
16.8 0.7 0
17.1 0.7 0
17.4 0.7 0
17.7 0.7 0
18 0.7 0
18.3 0.7 0
18.6 0.7 0
18.9 0.7 0
19.2 0.7 0
19.5 0.7 0
19.8 0.7 0
20.1 0.7 0
20.4 0.7 0
20.7 0.7 0
21 0.7 0
21.3 0.7 0
21.6 0.7 0
21.9 0.7 0
22.2 0.7 0
22.5 0.7 0
22.8 0.7 0
23.1 0.7 0
23.4 0.7 0
23.7 0.7 0
24 0.7 0
24.3 0.7 0
24.6 0.7 0
24.9 0.7 0
25.2 0.7 0
25.5 0.7 0
25.8 0.7 0
26.1 0.7 0
26.4 0.7 0
26.7 0.7 0
27 0.7 0
27.3 0.7 0
27.6 0.7 0
27.9 0.7 0
28.2 0.7 0
28.5 0.7 0
28.8 0.7 0
29.1 0.7 0
29.4 0.7 0
29.7 0.7 0
30 0.7 0
30.3 0.7 0
30.6 0.7 0
0 0.8 0
0.3 0.8 0
0.6 0.8 0
0.9 0.8 0
1.2 0.8 0
1.5 0.8 0
1.8 0.8 0
2.1 0.8 0
2.4 0.8 0
2.7 0.8 0
3 0.8 0
3.3 0.8 0
3.6 0.8 0
3.9 0.8 0
4.2 0.8 0
4.5 0.8 0
4.8 0.8 0
5.1 0.8 0
5.4 0.8 0
5.7 0.8 0
6 0.8 0
6.3 0.8 0
6.6 0.8 0
6.9 0.8 0
7.2 0.8 0
7.5 0.8 0
7.8 0.8 0
8.1 0.8 0
8.4 0.8 0
8.7 0.8 0
9 0.8 0
9.3 0.8 0
9.6 0.8 0
9.9 0.8 0
10.2 0.8 0
10.5 0.8 0
10.8 0.8 0
11.1 0.8 0
11.4 0.8 0
11.7 0.8 0
12 0.8 0
12.3 0.8 0
12.6 0.8 0
12.9 0.8 0
13.2 0.8 0
13.5 0.8 0
13.8 0.8 0
14.1 0.8 0
14.4 0.8 0
14.7 0.8 0
15 0.8 0
15.3 0.8 0
15.6 0.8 0
15.9 0.8 0
16.2 0.8 0
16.5 0.8 0
16.8 0.8 0
17.1 0.8 0
17.4 0.8 0
17.7 0.8 0
18 0.8 0
18.3 0.8 0
18.6 0.8 0
18.9 0.8 0
19.2 0.8 0
19.5 0.8 0
19.8 0.8 0
20.1 0.8 0
20.4 0.8 0
20.7 0.8 0
21 0.8 0
21.3 0.8 0
21.6 0.8 0
21.9 0.8 0
22.2 0.8 0
22.5 0.8 0
22.8 0.8 0
23.1 0.8 0
23.4 0.8 0
23.7 0.8 0
24 0.8 0
24.3 0.8 0
24.6 0.8 0
24.9 0.8 0
25.2 0.8 0
25.5 0.8 0
25.8 0.8 0
26.1 0.8 0
26.4 0.8 0
26.7 0.8 0
27 0.8 0
27.3 0.8 0
27.6 0.8 0
27.9 0.8 0
28.2 0.8 0
28.5 0.8 0
28.8 0.8 0
29.1 0.8 0
29.4 0.8 0
29.7 0.8 0
30 0.8 0
30.3 0.8 0
30.6 0.8 0
0 0.9 0
0.3 0.9 0
0.6 0.9 0
0.9 0.9 0
1.2 0.9 0
1.5 0.9 0
1.8 0.9 0
2.1 0.9 0
2.4 0.9 0
2.7 0.9 0
3 0.9 0
3.3 0.9 0
3.6 0.9 0
3.9 0.9 0
4.2 0.9 0
4.5 0.9 0
4.8 0.9 0
5.1 0.9 0
5.4 0.9 0
5.7 0.9 0
6 0.9 0
6.3 0.9 0
6.6 0.9 0
6.9 0.9 0
7.2 0.9 0
7.5 0.9 0
7.8 0.9 0
8.1 0.9 0
8.4 0.9 0
8.7 0.9 0
9 0.9 0
9.3 0.9 0
9.6 0.9 0
9.9 0.9 0
10.2 0.9 0
10.5 0.9 0
10.8 0.9 0
11.1 0.9 0
11.4 0.9 0
11.7 0.9 0
12 0.9 0
12.3 0.9 0
12.6 0.9 0
12.9 0.9 0
13.2 0.9 0
13.5 0.9 0
13.8 0.9 0
14.1 0.9 0
14.4 0.9 0
14.7 0.9 0
15 0.9 0
15.3 0.9 0
15.6 0.9 0
15.9 0.9 0
16.2 0.9 0
16.5 0.9 0
16.8 0.9 0
17.1 0.9 0
17.4 0.9 0
17.7 0.9 0
18 0.9 0
18.3 0.9 0
18.6 0.9 0
18.9 0.9 0
19.2 0.9 0
19.5 0.9 0
19.8 0.9 0
20.1 0.9 0
20.4 0.9 0
20.7 0.9 0
21 0.9 0
21.3 0.9 0
21.6 0.9 0
21.9 0.9 0
22.2 0.9 0
22.5 0.9 0
22.8 0.9 0
23.1 0.9 0
23.4 0.9 0
23.7 0.9 0
24 0.9 0
24.3 0.9 0
24.6 0.9 0
24.9 0.9 0
25.2 0.9 0
25.5 0.9 0
25.8 0.9 0
26.1 0.9 0
26.4 0.9 0
26.7 0.9 0
27 0.9 0
27.3 0.9 0
27.6 0.9 0
27.9 0.9 0
28.2 0.9 0
28.5 0.9 0
28.8 0.9 0
29.1 0.9 0
29.4 0.9 0
29.7 0.9 0
30 0.9 0
30.3 0.9 0
30.6 0.9 0
0 1 0
0.3 1 0
0.6 1 0
0.9 1 0
1.2 1 0
1.5 1 0
1.8 1 0
2.1 1 0
2.4 1 0
2.7 1 0
3 1 0
3.3 1 0
3.6 1 0
3.9 1 0
4.2 1 0
4.5 1 0
4.8 1 0
5.1 1 0
5.4 1 0
5.7 1 0
6 1 0
6.3 1 0
6.6 1 0
6.9 1 0
7.2 1 0
7.5 1 0
7.8 1 0
8.1 1 0
8.4 1 0
8.7 1 0
9 1 0
9.3 1 0
9.6 1 0
9.9 1 0
10.2 1 0
10.5 1 0
10.8 1 0
11.1 1 0
11.4 1 0
11.7 1 0
12 1 0
12.3 1 0
12.6 1 0
12.9 1 0
13.2 1 0
13.5 1 0
13.8 1 0
14.1 1 0
14.4 1 0
14.7 1 0
15 1 0
15.3 1 0
15.6 1 0
15.9 1 0
16.2 1 0
16.5 1 0
16.8 1 0
17.1 1 0
17.4 1 0
17.7 1 0
18 1 0
18.3 1 0
18.6 1 0
18.9 1 0
19.2 1 0
19.5 1 0
19.8 1 0
20.1 1 0
20.4 1 0
20.7 1 0
21 1 0
21.3 1 0
21.6 1 0
21.9 1 0
22.2 1 0
22.5 1 0
22.8 1 0
23.1 1 0
23.4 1 0
23.7 1 0
24 1 0
24.3 1 0
24.6 1 0
24.9 1 0
25.2 1 0
25.5 1 0
25.8 1 0
26.1 1 0
26.4 1 0
26.7 1 0
27 1 0
27.3 1 0
27.6 1 0
27.9 1 0
28.2 1 0
28.5 1 0
28.8 1 0
29.1 1 0
29.4 1 0
29.7 1 0
30 1 0
30.3 1 0
30.6 1 0
0 1.1 0
0.3 1.1 0
0.6 1.1 0
0.9 1.1 0
1.2 1.1 0
1.5 1.1 0
1.8 1.1 0
2.1 1.1 0
2.4 1.1 0
2.7 1.1 0
3 1.1 0
3.3 1.1 0
3.6 1.1 0
3.9 1.1 0
4.2 1.1 0
4.5 1.1 0
4.8 1.1 0
5.1 1.1 0
5.4 1.1 0
5.7 1.1 0
6 1.1 0
6.3 1.1 0
6.6 1.1 0
6.9 1.1 0
7.2 1.1 0
7.5 1.1 0
7.8 1.1 0
8.1 1.1 0
8.4 1.1 0
8.7 1.1 0
9 1.1 0
9.3 1.1 0
9.6 1.1 0
9.9 1.1 0
10.2 1.1 0
10.5 1.1 0
10.8 1.1 0
11.1 1.1 0
11.4 1.1 0
11.7 1.1 0
12 1.1 0
12.3 1.1 0
12.6 1.1 0
12.9 1.1 0
13.2 1.1 0
13.5 1.1 0
13.8 1.1 0
14.1 1.1 0
14.4 1.1 0
14.7 1.1 0
15 1.1 0
15.3 1.1 0
15.6 1.1 0
15.9 1.1 0
16.2 1.1 0
16.5 1.1 0
16.8 1.1 0
17.1 1.1 0
17.4 1.1 0
17.7 1.1 0
18 1.1 0
18.3 1.1 0
18.6 1.1 0
18.9 1.1 0
19.2 1.1 0
19.5 1.1 0
19.8 1.1 0
20.1 1.1 0
20.4 1.1 0
20.7 1.1 0
21 1.1 0
21.3 1.1 0
21.6 1.1 0
21.9 1.1 0
22.2 1.1 0
22.5 1.1 0
22.8 1.1 0
23.1 1.1 0
23.4 1.1 0
23.7 1.1 0
24 1.1 0
24.3 1.1 0
24.6 1.1 0
24.9 1.1 0
25.2 1.1 0
25.5 1.1 0
25.8 1.1 0
26.1 1.1 0
26.4 1.1 0
26.7 1.1 0
27 1.1 0
27.3 1.1 0
27.6 1.1 0
27.9 1.1 0
28.2 1.1 0
28.5 1.1 0
28.8 1.1 0
29.1 1.1 0
29.4 1.1 0
29.7 1.1 0
30 1.1 0
30.3 1.1 0
30.6 1.1 0
0 1.2 0
0.3 1.2 0
0.6 1.2 0
0.9 1.2 0
1.2 1.2 0
1.5 1.2 0
1.8 1.2 0
2.1 1.2 0
2.4 1.2 0
2.7 1.2 0
3 1.2 0
3.3 1.2 0
3.6 1.2 0
3.9 1.2 0
4.2 1.2 0
4.5 1.2 0
4.8 1.2 0
5.1 1.2 0
5.4 1.2 0
5.7 1.2 0
6 1.2 0
6.3 1.2 0
6.6 1.2 0
6.9 1.2 0
7.2 1.2 0
7.5 1.2 0
7.8 1.2 0
8.1 1.2 0
8.4 1.2 0
8.7 1.2 0
9 1.2 0
9.3 1.2 0
9.6 1.2 0
9.9 1.2 0
10.2 1.2 0
10.5 1.2 0
10.8 1.2 0
11.1 1.2 0
11.4 1.2 0
11.7 1.2 0
12 1.2 0
12.3 1.2 0
12.6 1.2 0
12.9 1.2 0
13.2 1.2 0
13.5 1.2 0
13.8 1.2 0
14.1 1.2 0
14.4 1.2 0
14.7 1.2 0
15 1.2 0
15.3 1.2 0
15.6 1.2 0
15.9 1.2 0
16.2 1.2 0
16.5 1.2 0
16.8 1.2 0
17.1 1.2 0
17.4 1.2 0
17.7 1.2 0
18 1.2 0
18.3 1.2 0
18.6 1.2 0
18.9 1.2 0
19.2 1.2 0
19.5 1.2 0
19.8 1.2 0
20.1 1.2 0
20.4 1.2 0
20.7 1.2 0
21 1.2 0
21.3 1.2 0
21.6 1.2 0
21.9 1.2 0
22.2 1.2 0
22.5 1.2 0
22.8 1.2 0
23.1 1.2 0
23.4 1.2 0
23.7 1.2 0
24 1.2 0
24.3 1.2 0
24.6 1.2 0
24.9 1.2 0
25.2 1.2 0
25.5 1.2 0
25.8 1.2 0
26.1 1.2 0
26.4 1.2 0
26.7 1.2 0
27 1.2 0
27.3 1.2 0
27.6 1.2 0
27.9 1.2 0
28.2 1.2 0
28.5 1.2 0
28.8 1.2 0
29.1 1.2 0
29.4 1.2 0
29.7 1.2 0
30 1.2 0
30.3 1.2 0
30.6 1.2 0

POINT_DATA 1339

SCALARS pressure double
LOOKUP_TABLE pressure
1.17896
1.17896
1.11411
1.06988
1.03005
0.993478
0.960426
0.930898
0.904542
0.880833
0.859231
0.839268
0.820575
0.802875
0.785969
0.769709
0.75399
0.738734
0.723882
0.709387
0.695213
0.681328
0.667707
0.654327
0.64117
0.628219
0.615459
0.602878
0.590467
0.578219
0.566128
0.554192
0.542409
0.530778
0.519297
0.507962
0.496769
0.485709
0.474773
0.463951
0.453229
0.442596
0.432037
0.42154
0.411094
0.400689
0.390315
0.379966
0.369634
0.359316
0.349008
0.338707
0.328411
0.318118
0.307827
0.297538
0.28725
0.276963
0.266676
0.25639
0.246103
0.235817
0.225531
0.215244
0.204958
0.194672
0.184386
0.1741
0.163814
0.153528
0.143241
0.132955
0.122669
0.112383
0.102097
0.0918109
0.0815248
0.0712387
0.0609526
0.0506665
0.0403804
0.0300943
0.0198082
0.00952209
-0.000764004
-0.0110501
-0.0213362
-0.0316223
-0.0419084
-0.0521945
-0.0624805
-0.0727666
-0.0830527
-0.0933388
-0.103625
-0.113911
-0.124197
-0.134483
-0.144769
-0.155055
-0.165342
-0.175615
0.175615
1.17896
1.17896
1.11411
1.06988
1.03005
0.993478
0.960426
0.930898
0.904542
0.880833
0.859231
0.839268
0.820575
0.802875
0.785969
0.769709
0.75399
0.738734
0.723882
0.709387
0.695213
0.681328
0.667707
0.654327
0.64117
0.628219
0.615459
0.602878
0.590467
0.578219
0.566128
0.554192
0.542409
0.530778
0.519297
0.507962
0.496769
0.485709
0.474773
0.463951
0.453229
0.442596
0.432037
0.42154
0.411094
0.400689
0.390315
0.379966
0.369634
0.359316
0.349008
0.338707
0.328411
0.318118
0.307827
0.297538
0.28725
0.276963
0.266676
0.25639
0.246103
0.235817
0.225531
0.215244
0.204958
0.194672
0.184386
0.1741
0.163814
0.153528
0.143241
0.132955
0.122669
0.112383
0.102097
0.0918109
0.0815248
0.0712387
0.0609526
0.0506665
0.0403804
0.0300943
0.0198082
0.00952209
-0.000764004
-0.0110501
-0.0213362
-0.0316223
-0.0419084
-0.0521945
-0.0624805
-0.0727666
-0.0830527
-0.0933388
-0.103625
-0.113911
-0.124197
-0.134483
-0.144769
-0.155055
-0.165342
-0.175615
0.175615
1.15801
1.15801
1.11212
1.07011
1.03076
0.994274
0.961169
0.931529
0.90505
0.881228
0.859534
0.839501
0.820757
0.80302
0.786086
0.769806
0.754073
0.738806
0.723944
0.709442
0.695262
0.681372
0.667747
0.654364
0.641204
0.62825
0.615487
0.602904
0.59049
0.57824
0.566146
0.554208
0.542423
0.53079
0.519306
0.507969
0.496773
0.485712
0.474775
0.463952
0.45323
0.442596
0.432036
0.42154
0.411094
0.400688
0.390315
0.379965
0.369634
0.359316
0.349008
0.338707
0.328411
0.318118
0.307827
0.297538
0.28725
0.276963
0.266676
0.25639
0.246103
0.235817
0.225531
0.215244
0.204958
0.194672
0.184386
0.1741
0.163814
0.153528
0.143241
0.132955
0.122669
0.112383
0.102097
0.0918109
0.0815248
0.0712387
0.0609526
0.0506665
0.0403804
0.0300943
0.0198082
0.00952209
-0.000764004
-0.0110501
-0.0213362
-0.0316223
-0.0419084
-0.0521945
-0.0624805
-0.0727666
-0.0830527
-0.0933388
-0.103625
-0.113911
-0.124197
-0.134483
-0.144769
-0.155055
-0.165343
-0.175614
0.175614
1.14304
1.14304
1.10924
1.07034
1.03187
0.995599
0.96243
0.932607
0.905911
0.881887
0.860027
0.839866
0.821028
0.803225
0.786244
0.769931
0.754174
0.73889
0.724015
0.709503
0.695315
0.681419
0.667788
0.654401
0.641237
0.62828
0.615514
0.602928
0.590512
0.578259
0.566164
0.554224
0.542436
0.530801
0.519316
0.507977
0.496779
0.485716
0.474778
0.463954
0.453231
0.442596
0.432037
0.421539
0.411093
0.400688
0.390314
0.379965
0.369634
0.359316
0.349008
0.338707
0.328411
0.318118
0.307827
0.297538
0.28725
0.276963
0.266676
0.25639
0.246103
0.235817
0.225531
0.215244
0.204958
0.194672
0.184386
0.1741
0.163814
0.153528
0.143241
0.132955
0.122669
0.112383
0.102097
0.0918109
0.0815248
0.0712387
0.0609526
0.0506665
0.0403804
0.0300943
0.0198082
0.00952209
-0.000764004
-0.0110501
-0.0213362
-0.0316223
-0.0419084
-0.0521945
-0.0624805
-0.0727666
-0.0830527
-0.0933388
-0.103625
-0.113911
-0.124197
-0.134483
-0.144769
-0.155054
-0.165339
-0.175611
0.175611
1.13346
1.13346
1.10676
1.07044
1.03282
0.996793
0.963607
0.933644
0.906764
0.88256
0.860544
0.840261
0.82133
0.803459
0.786429
0.770081
0.754297
0.738993
0.724103
0.709579
0.695381
0.681477
0.66784
0.654447
0.641278
0.628317
0.615548
0.602959
0.590541
0.578285
0.566188
0.554246
0.542457
0.53082
0.519333
0.507992
0.496793
0.485728
0.474789
0.463963
0.453238
0.442602
0.432041
0.421543
0.411096
0.40069
0.390316
0.379966
0.369634
0.359316
0.349008
0.338707
0.328411
0.318118
0.307827
0.297538
0.28725
0.276963
0.266676
0.25639
0.246103
0.235817
0.225531
0.215244
0.204958
0.194672
0.184386
0.1741
0.163814
0.153528
0.143241
0.132955
0.122669
0.112383
0.102097
0.0918109
0.0815248
0.0712387
0.0609526
0.0506665
0.0403804
0.0300943
0.0198082
0.00952209
-0.000764003
-0.0110501
-0.0213362
-0.0316223
-0.0419084
-0.0521945
-0.0624805
-0.0727666
-0.0830527
-0.0933388
-0.103625
-0.113911
-0.124197
-0.134483
-0.144768
-0.155052
-0.165329
-0.175607
0.175607
1.12815
1.12815
1.10513
1.07046
1.03341
0.99756
0.964376
0.934333
0.907342
0.883024
0.860909
0.840545
0.821553
0.803636
0.786572
0.770198
0.754396
0.739077
0.724177
0.709644
0.695438
0.681528
0.667885
0.654488
0.641315
0.628351
0.615579
0.602987
0.590567
0.57831
0.566211
0.554268
0.542478
0.53084
0.519352
0.50801
0.496809
0.485743
0.474801
0.463974
0.453247
0.44261
0.432047
0.421548
0.4111
0.400693
0.390318
0.379967
0.369636
0.359317
0.349009
0.338707
0.328411
0.318118
0.307827
0.297538
0.28725
0.276963
0.266676
0.25639
0.246103
0.235817
0.225531
0.215244
0.204958
0.194672
0.184386
0.1741
0.163814
0.153528
0.143241
0.132955
0.122669
0.112383
0.102097
0.0918109
0.0815248
0.0712387
0.0609526
0.0506665
0.0403804
0.0300943
0.0198082
0.00952209
-0.000764003
-0.0110501
-0.0213362
-0.0316223
-0.0419084
-0.0521945
-0.0624805
-0.0727666
-0.0830527
-0.0933388
-0.103625
-0.113911
-0.124197
-0.134483
-0.144768
-0.15505
-0.165319
-0.175602
0.175602
1.12645
1.12645
1.10458
1.07047
1.03363
0.997834
0.96465
0.934579
0.907548
0.883191
0.861041
0.840649
0.821636
0.803703
0.786627
0.770244
0.754435
0.739111
0.724206
0.70967
0.695461
0.681549
0.667904
0.654505
0.641331
0.628365
0.615592
0.602999
0.590578
0.578321
0.566222
0.554278
0.542488
0.530849
0.51936
0.508018
0.496817
0.48575
0.474807
0.463979
0.453252
0.442613
0.43205
0.42155
0.411102
0.400694
0.390319
0.379968
0.369636
0.359318
0.349009
0.338708
0.328411
0.318118
0.307828
0.297538
0.28725
0.276963
0.266676
0.25639
0.246103
0.235817
0.225531
0.215244
0.204958
0.194672
0.184386
0.1741
0.163814
0.153528
0.143241
0.132955
0.122669
0.112383
0.102097
0.0918109
0.0815248
0.0712387
0.0609526
0.0506665
0.0403804
0.0300943
0.0198082
0.00952209
-0.000764003
-0.0110501
-0.0213362
-0.0316223
-0.0419084
-0.0521945
-0.0624805
-0.0727666
-0.0830527
-0.0933388
-0.103625
-0.113911
-0.124197
-0.134483
-0.144767
-0.155049
-0.165315
-0.1756
0.1756
1.12815
1.12815
1.10513
1.07046
1.03341
0.99756
0.964376
0.934333
0.907342
0.883024
0.860909
0.840545
0.821553
0.803636
0.786572
0.770198
0.754396
0.739077
0.724177
0.709644
0.695438
0.681528
0.667885
0.654488
0.641315
0.628351
0.615579
0.602987
0.590567
0.57831
0.566211
0.554268
0.542478
0.53084
0.519352
0.50801
0.496809
0.485743
0.474801
0.463974
0.453247
0.44261
0.432047
0.421548
0.4111
0.400693
0.390318
0.379967
0.369636
0.359317
0.349009
0.338707
0.328411
0.318118
0.307827
0.297538
0.28725
0.276963
0.266676
0.25639
0.246103
0.235817
0.225531
0.215244
0.204958
0.194672
0.184386
0.1741
0.163814
0.153528
0.143241
0.132955
0.122669
0.112383
0.102097
0.0918109
0.0815248
0.0712387
0.0609526
0.0506665
0.0403804
0.0300943
0.0198082
0.00952209
-0.000764002
-0.0110501
-0.0213362
-0.0316223
-0.0419084
-0.0521945
-0.0624805
-0.0727666
-0.0830527
-0.0933388
-0.103625
-0.113911
-0.124197
-0.134483
-0.144768
-0.15505
-0.165319
-0.175602
0.175602
1.13346
1.13346
1.10676
1.07044
1.03282
0.996793
0.963607
0.933644
0.906764
0.88256
0.860544
0.840261
0.82133
0.803459
0.786429
0.770081
0.754297
0.738993
0.724103
0.709579
0.695381
0.681477
0.66784
0.654447
0.641278
0.628317
0.615548
0.602959
0.590541
0.578285
0.566188
0.554246
0.542457
0.53082
0.519333
0.507992
0.496793
0.485728
0.474789
0.463963
0.453238
0.442602
0.432041
0.421543
0.411096
0.40069
0.390316
0.379966
0.369634
0.359316
0.349008
0.338707
0.328411
0.318118
0.307827
0.297538
0.28725
0.276963
0.266676
0.25639
0.246103
0.235817
0.225531
0.215244
0.204958
0.194672
0.184386
0.1741
0.163814
0.153528
0.143241
0.132955
0.122669
0.112383
0.102097
0.0918109
0.0815248
0.0712387
0.0609526
0.0506665
0.0403804
0.0300943
0.0198082
0.00952209
-0.000764002
-0.0110501
-0.0213362
-0.0316223
-0.0419084
-0.0521945
-0.0624805
-0.0727666
-0.0830527
-0.0933388
-0.103625
-0.113911
-0.124197
-0.134483
-0.144768
-0.155052
-0.165329
-0.175607
0.175607
1.14304
1.14304
1.10924
1.07034
1.03187
0.995599
0.96243
0.932607
0.905911
0.881887
0.860027
0.839866
0.821028
0.803225
0.786244
0.769931
0.754174
0.73889
0.724015
0.709503
0.695315
0.681419
0.667788
0.654401
0.641237
0.62828
0.615514
0.602928
0.590512
0.578259
0.566164
0.554224
0.542436
0.530801
0.519316
0.507977
0.496779
0.485716
0.474778
0.463954
0.453231
0.442596
0.432037
0.421539
0.411093
0.400688
0.390314
0.379965
0.369634
0.359316
0.349008
0.338707
0.328411
0.318118
0.307827
0.297538
0.28725
0.276963
0.266676
0.25639
0.246103
0.235817
0.225531
0.215244
0.204958
0.194672
0.184386
0.1741
0.163814
0.153528
0.143241
0.132955
0.122669
0.112383
0.102097
0.0918109
0.0815248
0.0712387
0.0609526
0.0506665
0.0403804
0.0300943
0.0198082
0.00952209
-0.000764001
-0.0110501
-0.0213362
-0.0316223
-0.0419084
-0.0521945
-0.0624805
-0.0727666
-0.0830527
-0.0933388
-0.103625
-0.113911
-0.124197
-0.134483
-0.144769
-0.155054
-0.165339
-0.175611
0.175611
1.15801
1.15801
1.11212
1.07011
1.03076
0.994274
0.961169
0.931529
0.90505
0.881228
0.859534
0.839501
0.820757
0.80302
0.786086
0.769806
0.754073
0.738806
0.723944
0.709442
0.695262
0.681372
0.667747
0.654364
0.641204
0.62825
0.615487
0.602904
0.59049
0.57824
0.566146
0.554208
0.542423
0.53079
0.519306
0.507969
0.496773
0.485712
0.474775
0.463952
0.45323
0.442596
0.432036
0.42154
0.411094
0.400688
0.390315
0.379965
0.369634
0.359316
0.349008
0.338707
0.328411
0.318118
0.307827
0.297538
0.28725
0.276963
0.266676
0.25639
0.246103
0.235817
0.225531
0.215244
0.204958
0.194672
0.184386
0.1741
0.163814
0.153528
0.143241
0.132955
0.122669
0.112383
0.102097
0.0918109
0.0815248
0.0712387
0.0609526
0.0506665
0.0403804
0.0300943
0.0198082
0.00952209
-0.000764001
-0.0110501
-0.0213362
-0.0316223
-0.0419084
-0.0521945
-0.0624805
-0.0727666
-0.0830527
-0.0933388
-0.103625
-0.113911
-0.124197
-0.134483
-0.144769
-0.155055
-0.165343
-0.175614
0.175614
1.17896
1.17896
1.11411
1.06988
1.03005
0.993478
0.960426
0.930898
0.904542
0.880833
0.859231
0.839268
0.820575
0.802875
0.785969
0.769709
0.75399
0.738734
0.723882
0.709387
0.695213
0.681328
0.667707
0.654327
0.64117
0.628219
0.615459
0.602878
0.590467
0.578219
0.566128
0.554192
0.542409
0.530778
0.519297
0.507962
0.496769
0.485709
0.474773
0.463951
0.453229
0.442596
0.432037
0.42154
0.411094
0.400689
0.390315
0.379966
0.369634
0.359316
0.349008
0.338707
0.328411
0.318118
0.307827
0.297538
0.28725
0.276963
0.266676
0.25639
0.246103
0.235817
0.225531
0.215244
0.204958
0.194672
0.184386
0.1741
0.163814
0.153528
0.143241
0.132955
0.122669
0.112383
0.102097
0.0918109
0.0815248
0.0712387
0.0609526
0.0506665
0.0403804
0.0300943
0.0198082
0.00952209
-0.000764001
-0.0110501
-0.0213362
-0.0316223
-0.0419084
-0.0521945
-0.0624805
-0.0727666
-0.0830527
-0.0933388
-0.103625
-0.113911
-0.124197
-0.134483
-0.144769
-0.155055
-0.165342
-0.175615
0.175615
1.17896
1.17896
1.11411
1.06988
1.03005
0.993478
0.960426
0.930898
0.904542
0.880833
0.859231
0.839268
0.820575
0.802875
0.785969
0.769709
0.75399
0.738734
0.723882
0.709387
0.695213
0.681328
0.667707
0.654327
0.64117
0.628219
0.615459
0.602878
0.590467
0.578219
0.566128
0.554192
0.542409
0.530778
0.519297
0.507962
0.496769
0.485709
0.474773
0.463951
0.453229
0.442596
0.432037
0.42154
0.411094
0.400689
0.390315
0.379966
0.369634
0.359316
0.349008
0.338707
0.328411
0.318118
0.307827
0.297538
0.28725
0.276963
0.266676
0.25639
0.246103
0.235817
0.225531
0.215244
0.204958
0.194672
0.184386
0.1741
0.163814
0.153528
0.143241
0.132955
0.122669
0.112383
0.102097
0.0918109
0.0815248
0.0712387
0.0609526
0.0506665
0.0403804
0.0300943
0.0198082
0.00952209
-0.000764001
-0.0110501
-0.0213362
-0.0316223
-0.0419084
-0.0521945
-0.0624805
-0.0727666
-0.0830527
-0.0933388
-0.103625
-0.113911
-0.124197
-0.134483
-0.144769
-0.155055
-0.165342
-0.175615
0.175615
SCALARS phi double
LOOKUP_TABLE phi
1
1
1
1
0.999998
0.999994
0.999981
0.999956
0.999916
0.999828
0.999662
0.999516
0.999537
0.999461
0.998152
0.993671
0.983911
0.967368
0.943561
0.912976
0.876715
0.836111
0.792454
0.746865
0.70027
0.653414
0.60689
0.561169
0.51661
0.473485
0.431987
0.392252
0.354369
0.318399
0.284383
0.252353
0.222338
0.194368
0.168474
0.144681
0.123009
0.103464
0.0860301
0.0706685
0.0573105
0.045858
0.0361855
0.0281438
0.0215663
0.0162763
0.0120946
0.00884643
0.00636797
0.00451048
0.00314329
0.00215503
0.00145349
0.000964399
0.000629499
0.000404246
0.000255408
0.000158779
9.7133e-05
5.84788e-05
3.46528e-05
2.02135e-05
1.16082e-05
6.56399e-06
3.65522e-06
2.00477e-06
1.08314e-06
5.7655e-07
3.02407e-07
1.56319e-07
7.9646e-08
4.0005e-08
1.98119e-08
9.67538e-09
4.66017e-09
2.21407e-09
1.03777e-09
4.79947e-10
2.19042e-10
9.86657e-11
4.38701e-11
1.92572e-11
8.34637e-12
3.57223e-12
1.50999e-12
6.30462e-13
2.60043e-13
1.05971e-13
4.26711e-14
1.69801e-14
6.67816e-15
2.59616e-15
9.97731e-16
3.79095e-16
1.42429e-16
5.29106e-17
1.94939e-17
6.63005e-18
6.63005e-18
1
1
1
1
0.999998
0.999994
0.999981
0.999956
0.999916
0.999828
0.999662
0.999516
0.999537
0.999461
0.998152
0.993671
0.983911
0.967368
0.943561
0.912976
0.876715
0.836111
0.792454
0.746865
0.70027
0.653414
0.60689
0.561169
0.51661
0.473485
0.431987
0.392252
0.354369
0.318399
0.284383
0.252353
0.222338
0.194368
0.168474
0.144681
0.123009
0.103464
0.0860301
0.0706685
0.0573105
0.045858
0.0361855
0.0281438
0.0215663
0.0162763
0.0120946
0.00884643
0.00636797
0.00451048
0.00314329
0.00215503
0.00145349
0.000964399
0.000629499
0.000404246
0.000255408
0.000158779
9.7133e-05
5.84788e-05
3.46528e-05
2.02135e-05
1.16082e-05
6.56399e-06
3.65522e-06
2.00477e-06
1.08314e-06
5.7655e-07
3.02407e-07
1.56319e-07
7.9646e-08
4.0005e-08
1.98119e-08
9.67538e-09
4.66017e-09
2.21407e-09
1.03777e-09
4.79947e-10
2.19042e-10
9.86657e-11
4.38701e-11
1.92572e-11
8.34637e-12
3.57223e-12
1.50999e-12
6.30462e-13
2.60043e-13
1.05971e-13
4.26711e-14
1.69801e-14
6.67816e-15
2.59616e-15
9.97731e-16
3.79095e-16
1.42429e-16
5.29106e-17
1.94939e-17
6.63005e-18
6.63005e-18
1
1
1
0.999996
0.999983
0.999954
0.999898
0.999803
0.999658
0.999448
0.999151
0.998762
0.998318
0.997835
0.997157
0.995824
0.993064
0.987938
0.979561
0.967288
0.950797
0.930088
0.905416
0.877213
0.846006
0.812369
0.776873
0.740063
0.702434
0.66442
0.626379
0.588594
0.551265
0.514522
0.478434
0.443024
0.408288
0.374222
0.340836
0.308179
0.276348
0.245496
0.215823
0.187569
0.16099
0.136336
0.113824
0.0936136
0.075797
0.0603858
0.0473143
0.0364477
0.027596
0.0205321
0.0150096
0.0107801
0.0076063
0.00527265
0.00359093
0.00240293
0.00158006
0.00102108
0.000648562
0.000404968
0.000248619
0.000150095
8.91234e-05
5.20584e-05
2.99186e-05
1.69209e-05
9.41934e-06
5.16192e-06
2.78533e-06
1.48012e-06
7.74733e-07
3.99503e-07
2.02992e-07
1.0165e-07
5.01738e-08
2.44154e-08
1.1715e-08
5.54349e-09
2.58736e-09
1.19133e-09
5.41223e-10
2.42637e-10
1.07359e-10
4.68903e-11
2.02188e-11
8.60831e-12
3.61932e-12
1.50295e-12
6.16487e-13
2.49819e-13
1.00023e-13
3.95738e-14
1.54738e-14
5.98024e-15
2.28473e-15
8.62831e-16
3.23192e-16
1.11323e-16
1.11323e-16
0.999997
1
0.99998
0.999896
0.999724
0.999434
0.998999
0.998397
0.997612
0.996636
0.995464
0.994096
0.992544
0.990826
0.988952
0.986882
0.984493
0.981565
0.977799
0.972854
0.966392
0.958121
0.947818
0.935347
0.920654
0.903767
0.884782
0.863849
0.841161
0.816939
0.791414
0.764808
0.737324
0.709118
0.680295
0.650888
0.620861
0.590111
0.558488
0.525824
0.491976
0.456869
0.420546
0.383194
0.345162
0.306952
0.26918
0.232531
0.197689
0.165275
0.135793
0.10959
0.0868404
0.0675466
0.0515626
0.038625
0.0283914
0.0204784
0.0144951
0.0100695
0.00686613
0.00459622
0.00302099
0.00195003
0.00123641
0.000770202
0.000471477
0.000283677
0.0001678
9.76026e-05
5.58374e-05
3.14254e-05