# vtk DataFile Version 3.0
FlowField
ASCII
DATASET STRUCTURED_GRID
DIMENSIONS 103 13 1 
POINTS 1339 double
0 0 0
0.3 0 0
0.6 0 0
0.9 0 0
1.2 0 0
1.5 0 0
1.8 0 0
2.1 0 0
2.4 0 0
2.7 0 0
3 0 0
3.3 0 0
3.6 0 0
3.9 0 0
4.2 0 0
4.5 0 0
4.8 0 0
5.1 0 0
5.4 0 0
5.7 0 0
6 0 0
6.3 0 0
6.6 0 0
6.9 0 0
7.2 0 0
7.5 0 0
7.8 0 0
8.1 0 0
8.4 0 0
8.7 0 0
9 0 0
9.3 0 0
9.6 0 0
9.9 0 0
10.2 0 0
10.5 0 0
10.8 0 0
11.1 0 0
11.4 0 0
11.7 0 0
12 0 0
12.3 0 0
12.6 0 0
12.9 0 0
13.2 0 0
13.5 0 0
13.8 0 0
14.1 0 0
14.4 0 0
14.7 0 0
15 0 0
15.3 0 0
15.6 0 0
15.9 0 0
16.2 0 0
16.5 0 0
16.8 0 0
17.1 0 0
17.4 0 0
17.7 0 0
18 0 0
18.3 0 0
18.6 0 0
18.9 0 0
19.2 0 0
19.5 0 0
19.8 0 0
20.1 0 0
20.4 0 0
20.7 0 0
21 0 0
21.3 0 0
21.6 0 0
21.9 0 0
22.2 0 0
22.5 0 0
22.8 0 0
23.1 0 0
23.4 0 0
23.7 0 0
24 0 0
24.3 0 0
24.6 0 0
24.9 0 0
25.2 0 0
25.5 0 0
25.8 0 0
26.1 0 0
26.4 0 0
26.7 0 0
27 0 0
27.3 0 0
27.6 0 0
27.9 0 0
28.2 0 0
28.5 0 0
28.8 0 0
29.1 0 0
29.4 0 0
29.7 0 0
30 0 0
30.3 0 0
30.6 0 0
0 0.1 0
0.3 0.1 0
0.6 0.1 0
0.9 0.1 0
1.2 0.1 0
1.5 0.1 0
1.8 0.1 0
2.1 0.1 0
2.4 0.1 0
2.7 0.1 0
3 0.1 0
3.3 0.1 0
3.6 0.1 0
3.9 0.1 0
4.2 0.1 0
4.5 0.1 0
4.8 0.1 0
5.1 0.1 0
5.4 0.1 0
5.7 0.1 0
6 0.1 0
6.3 0.1 0
6.6 0.1 0
6.9 0.1 0
7.2 0.1 0
7.5 0.1 0
7.8 0.1 0
8.1 0.1 0
8.4 0.1 0
8.7 0.1 0
9 0.1 0
9.3 0.1 0
9.6 0.1 0
9.9 0.1 0
10.2 0.1 0
10.5 0.1 0
10.8 0.1 0
11.1 0.1 0
11.4 0.1 0
11.7 0.1 0
12 0.1 0
12.3 0.1 0
12.6 0.1 0
12.9 0.1 0
13.2 0.1 0
13.5 0.1 0
13.8 0.1 0
14.1 0.1 0
14.4 0.1 0
14.7 0.1 0
15 0.1 0
15.3 0.1 0
15.6 0.1 0
15.9 0.1 0
16.2 0.1 0
16.5 0.1 0
16.8 0.1 0
17.1 0.1 0
17.4 0.1 0
17.7 0.1 0
18 0.1 0
18.3 0.1 0
18.6 0.1 0
18.9 0.1 0
19.2 0.1 0
19.5 0.1 0
19.8 0.1 0
20.1 0.1 0
20.4 0.1 0
20.7 0.1 0
21 0.1 0
21.3 0.1 0
21.6 0.1 0
21.9 0.1 0
22.2 0.1 0
22.5 0.1 0
22.8 0.1 0
23.1 0.1 0
23.4 0.1 0
23.7 0.1 0
24 0.1 0
24.3 0.1 0
24.6 0.1 0
24.9 0.1 0
25.2 0.1 0
25.5 0.1 0
25.8 0.1 0
26.1 0.1 0
26.4 0.1 0
26.7 0.1 0
27 0.1 0
27.3 0.1 0
27.6 0.1 0
27.9 0.1 0
28.2 0.1 0
28.5 0.1 0
28.8 0.1 0
29.1 0.1 0
29.4 0.1 0
29.7 0.1 0
30 0.1 0
30.3 0.1 0
30.6 0.1 0
0 0.2 0
0.3 0.2 0
0.6 0.2 0
0.9 0.2 0
1.2 0.2 0
1.5 0.2 0
1.8 0.2 0
2.1 0.2 0
2.4 0.2 0
2.7 0.2 0
3 0.2 0
3.3 0.2 0
3.6 0.2 0
3.9 0.2 0
4.2 0.2 0
4.5 0.2 0
4.8 0.2 0
5.1 0.2 0
5.4 0.2 0
5.7 0.2 0
6 0.2 0
6.3 0.2 0
6.6 0.2 0
6.9 0.2 0
7.2 0.2 0
7.5 0.2 0
7.8 0.2 0
8.1 0.2 0
8.4 0.2 0
8.7 0.2 0
9 0.2 0
9.3 0.2 0
9.6 0.2 0
9.9 0.2 0
10.2 0.2 0
10.5 0.2 0
10.8 0.2 0
11.1 0.2 0
11.4 0.2 0
11.7 0.2 0
12 0.2 0
12.3 0.2 0
12.6 0.2 0
12.9 0.2 0
13.2 0.2 0
13.5 0.2 0
13.8 0.2 0
14.1 0.2 0
14.4 0.2 0
14.7 0.2 0
15 0.2 0
15.3 0.2 0
15.6 0.2 0
15.9 0.2 0
16.2 0.2 0
16.5 0.2 0
16.8 0.2 0
17.1 0.2 0
17.4 0.2 0
17.7 0.2 0
18 0.2 0
18.3 0.2 0
18.6 0.2 0
18.9 0.2 0
19.2 0.2 0
19.5 0.2 0
19.8 0.2 0
20.1 0.2 0
20.4 0.2 0
20.7 0.2 0
21 0.2 0
21.3 0.2 0
21.6 0.2 0
21.9 0.2 0
22.2 0.2 0
22.5 0.2 0
22.8 0.2 0
23.1 0.2 0
23.4 0.2 0
23.7 0.2 0
24 0.2 0
24.3 0.2 0
24.6 0.2 0
24.9 0.2 0
25.2 0.2 0
25.5 0.2 0
25.8 0.2 0
26.1 0.2 0
26.4 0.2 0
26.7 0.2 0
27 0.2 0
27.3 0.2 0
27.6 0.2 0
27.9 0.2 0
28.2 0.2 0
28.5 0.2 0
28.8 0.2 0
29.1 0.2 0
29.4 0.2 0
29.7 0.2 0
30 0.2 0
30.3 0.2 0
30.6 0.2 0
0 0.3 0
0.3 0.3 0
0.6 0.3 0
0.9 0.3 0
1.2 0.3 0
1.5 0.3 0
1.8 0.3 0
2.1 0.3 0
2.4 0.3 0
2.7 0.3 0
3 0.3 0
3.3 0.3 0
3.6 0.3 0
3.9 0.3 0
4.2 0.3 0
4.5 0.3 0
4.8 0.3 0
5.1 0.3 0
5.4 0.3 0
5.7 0.3 0
6 0.3 0
6.3 0.3 0
6.6 0.3 0
6.9 0.3 0
7.2 0.3 0
7.5 0.3 0
7.8 0.3 0
8.1 0.3 0
8.4 0.3 0
8.7 0.3 0
9 0.3 0
9.3 0.3 0
9.6 0.3 0
9.9 0.3 0
10.2 0.3 0
10.5 0.3 0
10.8 0.3 0
11.1 0.3 0
11.4 0.3 0
11.7 0.3 0
12 0.3 0
12.3 0.3 0
12.6 0.3 0
12.9 0.3 0
13.2 0.3 0
13.5 0.3 0
13.8 0.3 0
14.1 0.3 0
14.4 0.3 0
14.7 0.3 0
15 0.3 0
15.3 0.3 0
15.6 0.3 0
15.9 0.3 0
16.2 0.3 0
16.5 0.3 0
16.8 0.3 0
17.1 0.3 0
17.4 0.3 0
17.7 0.3 0
18 0.3 0
18.3 0.3 0
18.6 0.3 0
18.9 0.3 0
19.2 0.3 0
19.5 0.3 0
19.8 0.3 0
20.1 0.3 0
20.4 0.3 0
20.7 0.3 0
21 0.3 0
21.3 0.3 0
21.6 0.3 0
21.9 0.3 0
22.2 0.3 0
22.5 0.3 0
22.8 0.3 0
23.1 0.3 0
23.4 0.3 0
23.7 0.3 0
24 0.3 0
24.3 0.3 0
24.6 0.3 0
24.9 0.3 0
25.2 0.3 0
25.5 0.3 0
25.8 0.3 0
26.1 0.3 0
26.4 0.3 0
26.7 0.3 0
27 0.3 0
27.3 0.3 0
27.6 0.3 0
27.9 0.3 0
28.2 0.3 0
28.5 0.3 0
28.8 0.3 0
29.1 0.3 0
29.4 0.3 0
29.7 0.3 0
30 0.3 0
30.3 0.3 0
30.6 0.3 0
0 0.4 0
0.3 0.4 0
0.6 0.4 0
0.9 0.4 0
1.2 0.4 0
1.5 0.4 0
1.8 0.4 0
2.1 0.4 0
2.4 0.4 0
2.7 0.4 0
3 0.4 0
3.3 0.4 0
3.6 0.4 0
3.9 0.4 0
4.2 0.4 0
4.5 0.4 0
4.8 0.4 0
5.1 0.4 0
5.4 0.4 0
5.7 0.4 0
6 0.4 0
6.3 0.4 0
6.6 0.4 0
6.9 0.4 0
7.2 0.4 0
7.5 0.4 0
7.8 0.4 0
8.1 0.4 0
8.4 0.4 0
8.7 0.4 0
9 0.4 0
9.3 0.4 0
9.6 0.4 0
9.9 0.4 0
10.2 0.4 0
10.5 0.4 0
10.8 0.4 0
11.1 0.4 0
11.4 0.4 0
11.7 0.4 0
12 0.4 0
12.3 0.4 0
12.6 0.4 0
12.9 0.4 0
13.2 0.4 0
13.5 0.4 0
13.8 0.4 0
14.1 0.4 0
14.4 0.4 0
14.7 0.4 0
15 0.4 0
15.3 0.4 0
15.6 0.4 0
15.9 0.4 0
16.2 0.4 0
16.5 0.4 0
16.8 0.4 0
17.1 0.4 0
17.4 0.4 0
17.7 0.4 0
18 0.4 0
18.3 0.4 0
18.6 0.4 0
18.9 0.4 0
19.2 0.4 0
19.5 0.4 0
19.8 0.4 0
20.1 0.4 0
20.4 0.4 0
20.7 0.4 0
21 0.4 0
21.3 0.4 0
21.6 0.4 0
21.9 0.4 0
22.2 0.4 0
22.5 0.4 0
22.8 0.4 0
23.1 0.4 0
23.4 0.4 0
23.7 0.4 0
24 0.4 0
24.3 0.4 0
24.6 0.4 0
24.9 0.4 0
25.2 0.4 0
25.5 0.4 0
25.8 0.4 0
26.1 0.4 0
26.4 0.4 0
26.7 0.4 0
27 0.4 0
27.3 0.4 0
27.6 0.4 0
27.9 0.4 0
28.2 0.4 0
28.5 0.4 0
28.8 0.4 0
29.1 0.4 0
29.4 0.4 0
29.7 0.4 0
30 0.4 0
30.3 0.4 0
30.6 0.4 0
0 0.5 0
0.3 0.5 0
0.6 0.5 0
0.9 0.5 0
1.2 0.5 0
1.5 0.5 0
1.8 0.5 0
2.1 0.5 0
2.4 0.5 0
2.7 0.5 0
3 0.5 0
3.3 0.5 0
3.6 0.5 0
3.9 0.5 0
4.2 0.5 0
4.5 0.5 0
4.8 0.5 0
5.1 0.5 0
5.4 0.5 0
5.7 0.5 0
6 0.5 0
6.3 0.5 0
6.6 0.5 0
6.9 0.5 0
7.2 0.5 0
7.5 0.5 0
7.8 0.5 0
8.1 0.5 0
8.4 0.5 0
8.7 0.5 0
9 0.5 0
9.3 0.5 0
9.6 0.5 0
9.9 0.5 0
10.2 0.5 0
10.5 0.5 0
10.8 0.5 0
11.1 0.5 0
11.4 0.5 0
11.7 0.5 0
12 0.5 0
12.3 0.5 0
12.6 0.5 0
12.9 0.5 0
13.2 0.5 0
13.5 0.5 0
13.8 0.5 0
14.1 0.5 0
14.4 0.5 0
14.7 0.5 0
15 0.5 0
15.3 0.5 0
15.6 0.5 0
15.9 0.5 0
16.2 0.5 0
16.5 0.5 0
16.8 0.5 0
17.1 0.5 0
17.4 0.5 0
17.7 0.5 0
18 0.5 0
18.3 0.5 0
18.6 0.5 0
18.9 0.5 0
19.2 0.5 0
19.5 0.5 0
19.8 0.5 0
20.1 0.5 0
20.4 0.5 0
20.7 0.5 0
21 0.5 0
21.3 0.5 0
21.6 0.5 0
21.9 0.5 0
22.2 0.5 0
22.5 0.5 0
22.8 0.5 0
23.1 0.5 0
23.4 0.5 0
23.7 0.5 0
24 0.5 0
24.3 0.5 0
24.6 0.5 0
24.9 0.5 0
25.2 0.5 0
25.5 0.5 0
25.8 0.5 0
26.1 0.5 0
26.4 0.5 0
26.7 0.5 0
27 0.5 0
27.3 0.5 0
27.6 0.5 0
27.9 0.5 0
28.2 0.5 0
28.5 0.5 0
28.8 0.5 0
29.1 0.5 0
29.4 0.5 0
29.7 0.5 0
30 0.5 0
30.3 0.5 0
30.6 0.5 0
0 0.6 0
0.3 0.6 0
0.6 0.6 0
0.9 0.6 0
1.2 0.6 0
1.5 0.6 0
1.8 0.6 0
2.1 0.6 0
2.4 0.6 0
2.7 0.6 0
3 0.6 0
3.3 0.6 0
3.6 0.6 0
3.9 0.6 0
4.2 0.6 0
4.5 0.6 0
4.8 0.6 0
5.1 0.6 0
5.4 0.6 0
5.7 0.6 0
6 0.6 0
6.3 0.6 0
6.6 0.6 0
6.9 0.6 0
7.2 0.6 0
7.5 0.6 0
7.8 0.6 0
8.1 0.6 0
8.4 0.6 0
8.7 0.6 0
9 0.6 0
9.3 0.6 0
9.6 0.6 0
9.9 0.6 0
10.2 0.6 0
10.5 0.6 0
10.8 0.6 0
11.1 0.6 0
11.4 0.6 0
11.7 0.6 0
12 0.6 0
12.3 0.6 0
12.6 0.6 0
12.9 0.6 0
13.2 0.6 0
13.5 0.6 0
13.8 0.6 0
14.1 0.6 0
14.4 0.6 0
14.7 0.6 0
15 0.6 0
15.3 0.6 0
15.6 0.6 0
15.9 0.6 0
16.2 0.6 0
16.5 0.6 0
16.8 0.6 0
17.1 0.6 0
17.4 0.6 0
17.7 0.6 0
18 0.6 0
18.3 0.6 0
18.6 0.6 0
18.9 0.6 0
19.2 0.6 0
19.5 0.6 0
19.8 0.6 0
20.1 0.6 0
20.4 0.6 0
20.7 0.6 0
21 0.6 0
21.3 0.6 0
21.6 0.6 0
21.9 0.6 0
22.2 0.6 0
22.5 0.6 0
22.8 0.6 0
23.1 0.6 0
23.4 0.6 0
23.7 0.6 0
24 0.6 0
24.3 0.6 0
24.6 0.6 0
24.9 0.6 0
25.2 0.6 0
25.5 0.6 0
25.8 0.6 0
26.1 0.6 0
26.4 0.6 0
26.7 0.6 0
27 0.6 0
27.3 0.6 0
27.6 0.6 0
27.9 0.6 0
28.2 0.6 0
28.5 0.6 0
28.8 0.6 0
29.1 0.6 0
29.4 0.6 0
29.7 0.6 0
30 0.6 0
30.3 0.6 0
30.6 0.6 0
0 0.7 0
0.3 0.7 0
0.6 0.7 0
0.9 0.7 0
1.2 0.7 0
1.5 0.7 0
1.8 0.7 0
2.1 0.7 0
2.4 0.7 0
2.7 0.7 0
3 0.7 0
3.3 0.7 0
3.6 0.7 0
3.9 0.7 0
4.2 0.7 0
4.5 0.7 0
4.8 0.7 0
5.1 0.7 0
5.4 0.7 0
5.7 0.7 0
6 0.7 0
6.3 0.7 0
6.6 0.7 0
6.9 0.7 0
7.2 0.7 0
7.5 0.7 0
7.8 0.7 0
8.1 0.7 0
8.4 0.7 0
8.7 0.7 0
9 0.7 0
9.3 0.7 0
9.6 0.7 0
9.9 0.7 0
10.2 0.7 0
10.5 0.7 0
10.8 0.7 0
11.1 0.7 0
11.4 0.7 0
11.7 0.7 0
12 0.7 0
12.3 0.7 0
12.6 0.7 0
12.9 0.7 0
13.2 0.7 0
13.5 0.7 0
13.8 0.7 0
14.1 0.7 0
14.4 0.7 0
14.7 0.7 0
15 0.7 0
15.3 0.7 0
15.6 0.7 0
15.9 0.7 0
16.2 0.7 0
16.5 0.7 0
16.8 0.7 0
17.1 0.7 0
17.4 0.7 0
17.7 0.7 0
18 0.7 0
18.3 0.7 0
18.6 0.7 0
18.9 0.7 0
19.2 0.7 0
19.5 0.7 0
19.8 0.7 0
20.1 0.7 0
20.4 0.7 0
20.7 0.7 0
21 0.7 0
21.3 0.7 0
21.6 0.7 0
21.9 0.7 0
22.2 0.7 0
22.5 0.7 0
22.8 0.7 0
23.1 0.7 0
23.4 0.7 0
23.7 0.7 0
24 0.7 0
24.3 0.7 0
24.6 0.7 0
24.9 0.7 0
25.2 0.7 0
25.5 0.7 0
25.8 0.7 0
26.1 0.7 0
26.4 0.7 0
26.7 0.7 0
27 0.7 0
27.3 0.7 0
27.6 0.7 0
27.9 0.7 0
28.2 0.7 0
28.5 0.7 0
28.8 0.7 0
29.1 0.7 0
29.4 0.7 0
29.7 0.7 0
30 0.7 0
30.3 0.7 0
30.6 0.7 0
0 0.8 0
0.3 0.8 0
0.6 0.8 0
0.9 0.8 0
1.2 0.8 0
1.5 0.8 0
1.8 0.8 0
2.1 0.8 0
2.4 0.8 0
2.7 0.8 0
3 0.8 0
3.3 0.8 0
3.6 0.8 0
3.9 0.8 0
4.2 0.8 0
4.5 0.8 0
4.8 0.8 0
5.1 0.8 0
5.4 0.8 0
5.7 0.8 0
6 0.8 0
6.3 0.8 0
6.6 0.8 0
6.9 0.8 0
7.2 0.8 0
7.5 0.8 0
7.8 0.8 0
8.1 0.8 0
8.4 0.8 0
8.7 0.8 0
9 0.8 0
9.3 0.8 0
9.6 0.8 0
9.9 0.8 0
10.2 0.8 0
10.5 0.8 0
10.8 0.8 0
11.1 0.8 0
11.4 0.8 0
11.7 0.8 0
12 0.8 0
12.3 0.8 0
12.6 0.8 0
12.9 0.8 0
13.2 0.8 0
13.5 0.8 0
13.8 0.8 0
14.1 0.8 0
14.4 0.8 0
14.7 0.8 0
15 0.8 0
15.3 0.8 0
15.6 0.8 0
15.9 0.8 0
16.2 0.8 0
16.5 0.8 0
16.8 0.8 0
17.1 0.8 0
17.4 0.8 0
17.7 0.8 0
18 0.8 0
18.3 0.8 0
18.6 0.8 0
18.9 0.8 0
19.2 0.8 0
19.5 0.8 0
19.8 0.8 0
20.1 0.8 0
20.4 0.8 0
20.7 0.8 0
21 0.8 0
21.3 0.8 0
21.6 0.8 0
21.9 0.8 0
22.2 0.8 0
22.5 0.8 0
22.8 0.8 0
23.1 0.8 0
23.4 0.8 0
23.7 0.8 0
24 0.8 0
24.3 0.8 0
24.6 0.8 0
24.9 0.8 0
25.2 0.8 0
25.5 0.8 0
25.8 0.8 0
26.1 0.8 0
26.4 0.8 0
26.7 0.8 0
27 0.8 0
27.3 0.8 0
27.6 0.8 0
27.9 0.8 0
28.2 0.8 0
28.5 0.8 0
28.8 0.8 0
29.1 0.8 0
29.4 0.8 0
29.7 0.8 0
30 0.8 0
30.3 0.8 0
30.6 0.8 0
0 0.9 0
0.3 0.9 0
0.6 0.9 0
0.9 0.9 0
1.2 0.9 0
1.5 0.9 0
1.8 0.9 0
2.1 0.9 0
2.4 0.9 0
2.7 0.9 0
3 0.9 0
3.3 0.9 0
3.6 0.9 0
3.9 0.9 0
4.2 0.9 0
4.5 0.9 0
4.8 0.9 0
5.1 0.9 0
5.4 0.9 0
5.7 0.9 0
6 0.9 0
6.3 0.9 0
6.6 0.9 0
6.9 0.9 0
7.2 0.9 0
7.5 0.9 0
7.8 0.9 0
8.1 0.9 0
8.4 0.9 0
8.7 0.9 0
9 0.9 0
9.3 0.9 0
9.6 0.9 0
9.9 0.9 0
10.2 0.9 0
10.5 0.9 0
10.8 0.9 0
11.1 0.9 0
11.4 0.9 0
11.7 0.9 0
12 0.9 0
12.3 0.9 0
12.6 0.9 0
12.9 0.9 0
13.2 0.9 0
13.5 0.9 0
13.8 0.9 0
14.1 0.9 0
14.4 0.9 0
14.7 0.9 0
15 0.9 0
15.3 0.9 0
15.6 0.9 0
15.9 0.9 0
16.2 0.9 0
16.5 0.9 0
16.8 0.9 0
17.1 0.9 0
17.4 0.9 0
17.7 0.9 0
18 0.9 0
18.3 0.9 0
18.6 0.9 0
18.9 0.9 0
19.2 0.9 0
19.5 0.9 0
19.8 0.9 0
20.1 0.9 0
20.4 0.9 0
20.7 0.9 0
21 0.9 0
21.3 0.9 0
21.6 0.9 0
21.9 0.9 0
22.2 0.9 0
22.5 0.9 0
22.8 0.9 0
23.1 0.9 0
23.4 0.9 0
23.7 0.9 0
24 0.9 0
24.3 0.9 0
24.6 0.9 0
24.9 0.9 0
25.2 0.9 0
25.5 0.9 0
25.8 0.9 0
26.1 0.9 0
26.4 0.9 0
26.7 0.9 0
27 0.9 0
27.3 0.9 0
27.6 0.9 0
27.9 0.9 0
28.2 0.9 0
28.5 0.9 0
28.8 0.9 0
29.1 0.9 0
29.4 0.9 0
29.7 0.9 0
30 0.9 0
30.3 0.9 0
30.6 0.9 0
0 1 0
0.3 1 0
0.6 1 0
0.9 1 0
1.2 1 0
1.5 1 0
1.8 1 0
2.1 1 0
2.4 1 0
2.7 1 0
3 1 0
3.3 1 0
3.6 1 0
3.9 1 0
4.2 1 0
4.5 1 0
4.8 1 0
5.1 1 0
5.4 1 0
5.7 1 0
6 1 0
6.3 1 0
6.6 1 0
6.9 1 0
7.2 1 0
7.5 1 0
7.8 1 0
8.1 1 0
8.4 1 0
8.7 1 0
9 1 0
9.3 1 0
9.6 1 0
9.9 1 0
10.2 1 0
10.5 1 0
10.8 1 0
11.1 1 0
11.4 1 0
11.7 1 0
12 1 0
12.3 1 0
12.6 1 0
12.9 1 0
13.2 1 0
13.5 1 0
13.8 1 0
14.1 1 0
14.4 1 0
14.7 1 0
15 1 0
15.3 1 0
15.6 1 0
15.9 1 0
16.2 1 0
16.5 1 0
16.8 1 0
17.1 1 0
17.4 1 0
17.7 1 0
18 1 0
18.3 1 0
18.6 1 0
18.9 1 0
19.2 1 0
19.5 1 0
19.8 1 0
20.1 1 0
20.4 1 0
20.7 1 0
21 1 0
21.3 1 0
21.6 1 0
21.9 1 0
22.2 1 0
22.5 1 0
22.8 1 0
23.1 1 0
23.4 1 0
23.7 1 0
24 1 0
24.3 1 0
24.6 1 0
24.9 1 0
25.2 1 0
25.5 1 0
25.8 1 0
26.1 1 0
26.4 1 0
26.7 1 0
27 1 0
27.3 1 0
27.6 1 0
27.9 1 0
28.2 1 0
28.5 1 0
28.8 1 0
29.1 1 0
29.4 1 0
29.7 1 0
30 1 0
30.3 1 0
30.6 1 0
0 1.1 0
0.3 1.1 0
0.6 1.1 0
0.9 1.1 0
1.2 1.1 0
1.5 1.1 0
1.8 1.1 0
2.1 1.1 0
2.4 1.1 0
2.7 1.1 0
3 1.1 0
3.3 1.1 0
3.6 1.1 0
3.9 1.1 0
4.2 1.1 0
4.5 1.1 0
4.8 1.1 0
5.1 1.1 0
5.4 1.1 0
5.7 1.1 0
6 1.1 0
6.3 1.1 0
6.6 1.1 0
6.9 1.1 0
7.2 1.1 0
7.5 1.1 0
7.8 1.1 0
8.1 1.1 0
8.4 1.1 0
8.7 1.1 0
9 1.1 0
9.3 1.1 0
9.6 1.1 0
9.9 1.1 0
10.2 1.1 0
10.5 1.1 0
10.8 1.1 0
11.1 1.1 0
11.4 1.1 0
11.7 1.1 0
12 1.1 0
12.3 1.1 0
12.6 1.1 0
12.9 1.1 0
13.2 1.1 0
13.5 1.1 0
13.8 1.1 0
14.1 1.1 0
14.4 1.1 0
14.7 1.1 0
15 1.1 0
15.3 1.1 0
15.6 1.1 0
15.9 1.1 0
16.2 1.1 0
16.5 1.1 0
16.8 1.1 0
17.1 1.1 0
17.4 1.1 0
17.7 1.1 0
18 1.1 0
18.3 1.1 0
18.6 1.1 0
18.9 1.1 0
19.2 1.1 0
19.5 1.1 0
19.8 1.1 0
20.1 1.1 0
20.4 1.1 0
20.7 1.1 0
21 1.1 0
21.3 1.1 0
21.6 1.1 0
21.9 1.1 0
22.2 1.1 0
22.5 1.1 0
22.8 1.1 0
23.1 1.1 0
23.4 1.1 0
23.7 1.1 0
24 1.1 0
24.3 1.1 0
24.6 1.1 0
24.9 1.1 0
25.2 1.1 0
25.5 1.1 0
25.8 1.1 0
26.1 1.1 0
26.4 1.1 0
26.7 1.1 0
27 1.1 0
27.3 1.1 0
27.6 1.1 0
27.9 1.1 0
28.2 1.1 0
28.5 1.1 0
28.8 1.1 0
29.1 1.1 0
29.4 1.1 0
29.7 1.1 0
30 1.1 0
30.3 1.1 0
30.6 1.1 0
0 1.2 0
0.3 1.2 0
0.6 1.2 0
0.9 1.2 0
1.2 1.2 0
1.5 1.2 0
1.8 1.2 0
2.1 1.2 0
2.4 1.2 0
2.7 1.2 0
3 1.2 0
3.3 1.2 0
3.6 1.2 0
3.9 1.2 0
4.2 1.2 0
4.5 1.2 0
4.8 1.2 0
5.1 1.2 0
5.4 1.2 0
5.7 1.2 0
6 1.2 0
6.3 1.2 0
6.6 1.2 0
6.9 1.2 0
7.2 1.2 0
7.5 1.2 0
7.8 1.2 0
8.1 1.2 0
8.4 1.2 0
8.7 1.2 0
9 1.2 0
9.3 1.2 0
9.6 1.2 0
9.9 1.2 0
10.2 1.2 0
10.5 1.2 0
10.8 1.2 0
11.1 1.2 0
11.4 1.2 0
11.7 1.2 0
12 1.2 0
12.3 1.2 0
12.6 1.2 0
12.9 1.2 0
13.2 1.2 0
13.5 1.2 0
13.8 1.2 0
14.1 1.2 0
14.4 1.2 0
14.7 1.2 0
15 1.2 0
15.3 1.2 0
15.6 1.2 0
15.9 1.2 0
16.2 1.2 0
16.5 1.2 0
16.8 1.2 0
17.1 1.2 0
17.4 1.2 0
17.7 1.2 0
18 1.2 0
18.3 1.2 0
18.6 1.2 0
18.9 1.2 0
19.2 1.2 0
19.5 1.2 0
19.8 1.2 0
20.1 1.2 0
20.4 1.2 0
20.7 1.2 0
21 1.2 0
21.3 1.2 0
21.6 1.2 0
21.9 1.2 0
22.2 1.2 0
22.5 1.2 0
22.8 1.2 0
23.1 1.2 0
23.4 1.2 0
23.7 1.2 0
24 1.2 0
24.3 1.2 0
24.6 1.2 0
24.9 1.2 0
25.2 1.2 0
25.5 1.2 0
25.8 1.2 0
26.1 1.2 0
26.4 1.2 0
26.7 1.2 0
27 1.2 0
27.3 1.2 0
27.6 1.2 0
27.9 1.2 0
28.2 1.2 0
28.5 1.2 0
28.8 1.2 0
29.1 1.2 0
29.4 1.2 0
29.7 1.2 0
30 1.2 0
30.3 1.2 0
30.6 1.2 0

POINT_DATA 1339

SCALARS pressure double
LOOKUP_TABLE pressure
1.21993
1.21993
1.15509
1.11085
1.07103
1.03445
1.0014
0.971871
0.945516
0.921807
0.900205
0.880242
0.861549
0.843857
0.82698
0.810797
0.795234
0.780252
0.765828
0.75194
0.738557
0.725635
0.713115
0.700927
0.689
0.677268
0.665674
0.654172
0.642731
0.631326
0.619943
0.608573
0.59721
0.585851
0.574495
0.56314
0.551786
0.540432
0.529079
0.517726
0.506372
0.495019
0.483666
0.472313
0.46096
0.449607
0.438254
0.426901
0.415548
0.404195
0.392842
0.381489
0.370136
0.358783
0.34743
0.336077
0.324723
0.31337
0.302017
0.290664
0.279311
0.267958
0.256605
0.245252
0.233899
0.222546
0.211193
0.19984
0.188487
0.177134
0.165781
0.154428
0.143075
0.131722
0.120369
0.109016
0.0976626
0.0863096
0.0749565
0.0636035
0.0522504
0.0408974
0.0295444
0.0181914
0.00683832
-0.00451471
-0.0158677
-0.0272208
-0.0385738
-0.0499268
-0.0612798
-0.0726329
-0.0839859
-0.0953389
-0.106692
-0.118045
-0.129398
-0.140751
-0.152103
-0.163456
-0.174811
-0.186124
0.186124
1.21993
1.21993
1.15509
1.11085
1.07103
1.03445
1.0014
0.971871
0.945516
0.921807
0.900205
0.880242
0.861549
0.843857
0.82698
0.810797
0.795234
0.780252
0.765828
0.75194
0.738557
0.725635
0.713115
0.700927
0.689
0.677268
0.665674
0.654172
0.642731
0.631326
0.619943
0.608573
0.59721
0.585851
0.574495
0.56314
0.551786
0.540432
0.529079
0.517726
0.506372
0.495019
0.483666
0.472313
0.46096
0.449607
0.438254
0.426901
0.415548
0.404195
0.392842
0.381489
0.370136
0.358783
0.34743
0.336077
0.324723
0.31337
0.302017
0.290664
0.279311
0.267958
0.256605
0.245252
0.233899
0.222546
0.211193
0.19984
0.188487
0.177134
0.165781
0.154428
0.143075
0.131722
0.120369
0.109016
0.0976626
0.0863096
0.0749565
0.0636035
0.0522504
0.0408974
0.0295444
0.0181914
0.00683832
-0.00451471
-0.0158677
-0.0272208
-0.0385738
-0.0499268
-0.0612798
-0.0726329
-0.0839859
-0.0953389
-0.106692
-0.118045
-0.129398
-0.140751
-0.152103
-0.163456
-0.174811
-0.186124
0.186124
1.19899
1.19899
1.1531
1.11108
1.07173
1.03525
1.00214
0.972503
0.946023
0.922202
0.900508
0.880475
0.86173
0.844
0.827094
0.810886
0.795304
0.780305
0.765865
0.751964
0.738571
0.725641
0.713116
0.700925
0.688997
0.677265
0.665671
0.654171
0.642729
0.631325
0.619942
0.608573
0.59721
0.585851
0.574495
0.56314
0.551786
0.540432
0.529079
0.517726
0.506372
0.495019
0.483666
0.472313
0.46096
0.449607
0.438254
0.426901
0.415548
0.404195
0.392842
0.381489
0.370136
0.358783
0.34743
0.336077
0.324723
0.31337
0.302017
0.290664
0.279311
0.267958
0.256605
0.245252
0.233899
0.222546
0.211193
0.19984
0.188487
0.177134
0.165781
0.154428
0.143075
0.131722
0.120369
0.109016
0.0976626
0.0863096
0.0749565
0.0636035
0.0522504
0.0408974
0.0295444
0.0181914
0.00683832
-0.00451471
-0.0158677
-0.0272208
-0.0385738
-0.0499268
-0.0612798
-0.0726329
-0.0839859
-0.0953389
-0.106692
-0.118045
-0.129398
-0.140751
-0.152103
-0.163456
-0.174812
-0.186122
0.186122
1.18401
1.18401
1.15021
1.11131
1.07284
1.03657
1.0034
0.973581
0.946884
0.922861
0.901001
0.88084
0.862002
0.844206
0.827253
0.811012
0.795404
0.780384
0.765928
0.752012
0.738606
0.725667
0.713133
0.700936
0.689004
0.677269
0.665673
0.654171
0.64273
0.631325
0.619942
0.608572
0.59721
0.585851
0.574495
0.56314
0.551786
0.540432
0.529079
0.517726
0.506372
0.495019
0.483666
0.472313
0.46096
0.449607
0.438254
0.426901
0.415548
0.404195
0.392842
0.381489
0.370136
0.358783
0.34743
0.336077
0.324723
0.31337
0.302017
0.290664
0.279311
0.267958
0.256605
0.245252
0.233899
0.222546
0.211193
0.19984
0.188487
0.177134
0.165781
0.154428
0.143075
0.131722
0.120369
0.109016
0.0976626
0.0863096
0.0749565
0.0636035
0.0522504
0.0408974
0.0295444
0.0181914
0.00683832
-0.00451471
-0.0158677
-0.0272208
-0.0385738
-0.0499268
-0.0612798
-0.0726329
-0.0839859
-0.0953389
-0.106692
-0.118045
-0.129398
-0.14075
-0.152102
-0.163452
-0.174798
-0.186114
0.186114
1.17444
1.17444
1.14773
1.11142
1.07379
1.03777
1.00458
0.974617
0.947738
0.923533
0.901518
0.881235
0.862306
0.844444
0.827444
0.81117
0.795538
0.780501
0.766029
0.752098
0.738679
0.725725
0.713178
0.700969
0.689027
0.677284
0.665683
0.654177
0.642733
0.631327
0.619943
0.608573
0.59721
0.585851
0.574495
0.56314
0.551786
0.540432
0.529079
0.517726
0.506372
0.495019
0.483666
0.472313
0.46096
0.449607
0.438254
0.426901
0.415548
0.404195
0.392842
0.381489
0.370136
0.358783
0.34743
0.336077
0.324723
0.31337
0.302017
0.290664
0.279311
0.267958
0.256605
0.245252
0.233899
0.222546
0.211193
0.19984
0.188487
0.177134
0.165781
0.154428
0.143075
0.131722
0.120369
0.109016
0.0976626
0.0863096
0.0749565
0.0636035
0.0522504
0.0408974
0.0295444
0.0181914
0.00683832
-0.00451471
-0.0158677
-0.0272208
-0.0385738
-0.0499268
-0.0612798
-0.0726329
-0.0839859
-0.0953389
-0.106692
-0.118045
-0.129398
-0.14075
-0.1521
-0.163446
-0.17477
-0.186101
0.186101
1.16912
1.16912
1.1461
1.11143
1.07439
1.03853
1.00535
0.975307
0.948315
0.923998
0.901883
0.881519
0.86253
0.844623
0.827592
0.811297
0.79565
0.780601
0.766118
0.752178
0.738748
0.725783
0.713224
0.701005
0.689053
0.677302
0.665695
0.654185
0.642737
0.631329
0.619945
0.608574
0.597211
0.585852
0.574495
0.56314
0.551786
0.540432
0.529079
0.517726
0.506372
0.495019
0.483666
0.472313
0.46096
0.449607
0.438254
0.426901
0.415548
0.404195
0.392842
0.381489
0.370136
0.358783
0.34743
0.336077
0.324723
0.31337
0.302017
0.290664
0.279311
0.267958
0.256605
0.245252
0.233899
0.222546
0.211193
0.19984
0.188487
0.177134
0.165781
0.154428
0.143075
0.131722
0.120369
0.109016
0.0976626
0.0863096
0.0749565
0.0636035
0.0522504
0.0408974
0.0295444
0.0181914
0.00683832
-0.00451471
-0.0158677
-0.0272208
-0.0385738
-0.0499268
-0.0612798
-0.0726329
-0.0839859
-0.0953389
-0.106692
-0.118045
-0.129398
-0.140749
-0.152099
-0.16344
-0.174743
-0.186091
0.186091
1.16742
1.16742
1.14556
1.11145
1.0746
1.03881
1.00562
0.975552
0.948522
0.924165
0.902015
0.881624
0.862613
0.844691
0.827649
0.811346
0.795693
0.78064
0.766154
0.75221
0.738775
0.725806
0.713243
0.701019
0.689064
0.67731
0.6657
0.654188
0.642739
0.631331
0.619945
0.608574
0.597211
0.585852
0.574495
0.56314
0.551786
0.540432
0.529079
0.517726
0.506372
0.495019
0.483666
0.472313
0.46096
0.449607
0.438254
0.426901
0.415548
0.404195
0.392842
0.381489
0.370136
0.358783
0.34743
0.336077
0.324723
0.31337
0.302017
0.290664
0.279311
0.267958
0.256605
0.245252
0.233899
0.222546
0.211193
0.19984
0.188487
0.177134
0.165781
0.154428
0.143075
0.131722
0.120369
0.109016
0.0976626
0.0863096
0.0749565
0.0636035
0.0522505
0.0408974
0.0295444
0.0181914
0.00683832
-0.00451471
-0.0158677
-0.0272208
-0.0385738
-0.0499268
-0.0612798
-0.0726329
-0.0839859
-0.0953389
-0.106692
-0.118045
-0.129397
-0.140749
-0.152098
-0.163437
-0.174733
-0.186086
0.186086
1.16912
1.16912
1.1461
1.11143
1.07439
1.03853
1.00535
0.975307
0.948315
0.923998
0.901883
0.881519
0.86253
0.844623
0.827592
0.811297
0.79565
0.780601
0.766118
0.752178
0.738748
0.725783
0.713224
0.701005
0.689053
0.677302
0.665695
0.654185
0.642737
0.631329
0.619945
0.608574
0.597211
0.585852
0.574495
0.56314
0.551786
0.540432
0.529079
0.517726
0.506372
0.495019
0.483666
0.472313
0.46096
0.449607
0.438254
0.426901
0.415548
0.404195
0.392842
0.381489
0.370136
0.358783
0.34743
0.336077
0.324723
0.31337
0.302017
0.290664
0.279311
0.267958
0.256605
0.245252
0.233899
0.222546
0.211193
0.19984
0.188487
0.177134
0.165781
0.154428
0.143075
0.131722
0.120369
0.109016
0.0976626
0.0863096
0.0749565
0.0636035
0.0522505
0.0408974
0.0295444
0.0181914
0.00683832
-0.00451471
-0.0158677
-0.0272208
-0.0385738
-0.0499268
-0.0612798
-0.0726329
-0.0839859
-0.0953389
-0.106692
-0.118045
-0.129398
-0.140749
-0.152099
-0.16344
-0.174743
-0.186091
0.186091
1.17444
1.17444
1.14773
1.11142
1.07379
1.03777
1.00458
0.974617
0.947738
0.923533
0.901518
0.881235
0.862306
0.844444
0.827444
0.81117
0.795538
0.780501
0.766029
0.752098
0.738679
0.725725
0.713178
0.700969
0.689027
0.677284
0.665683
0.654177
0.642733
0.631327
0.619943
0.608573
0.59721
0.585851
0.574495
0.56314
0.551786
0.540432
0.529079
0.517726
0.506372
0.495019
0.483666
0.472313
0.46096
0.449607
0.438254
0.426901
0.415548
0.404195
0.392842
0.381489
0.370136
0.358783
0.34743
0.336077
0.324723
0.31337
0.302017
0.290664
0.279311
0.267958
0.256605
0.245252
0.233899
0.222546
0.211193
0.19984
0.188487
0.177134
0.165781
0.154428
0.143075
0.131722
0.120369
0.109016
0.0976626
0.0863096
0.0749565
0.0636035
0.0522505
0.0408974
0.0295444
0.0181914
0.00683832
-0.00451471
-0.0158677
-0.0272208
-0.0385738
-0.0499268
-0.0612798
-0.0726329
-0.0839859
-0.0953389
-0.106692
-0.118045
-0.129398
-0.14075
-0.1521
-0.163446
-0.17477
-0.186101
0.186101
1.18401
1.18401
1.15021
1.11131
1.07284
1.03657
1.0034
0.973581
0.946884
0.922861
0.901001
0.88084
0.862002
0.844206
0.827253
0.811012
0.795404
0.780384
0.765928
0.752012
0.738606
0.725667
0.713133
0.700936
0.689004
0.677269
0.665673
0.654171
0.64273
0.631325
0.619942
0.608572
0.59721
0.585851
0.574495
0.56314
0.551786
0.540432
0.529079
0.517726
0.506372
0.495019
0.483666
0.472313
0.46096
0.449607
0.438254
0.426901
0.415548
0.404195
0.392842
0.381489
0.370136
0.358783
0.34743
0.336077
0.324723
0.31337
0.302017
0.290664
0.279311
0.267958
0.256605
0.245252
0.233899
0.222546
0.211193
0.19984
0.188487
0.177134
0.165781
0.154428
0.143075
0.131722
0.120369
0.109016
0.0976626
0.0863096
0.0749565
0.0636035
0.0522505
0.0408974
0.0295444
0.0181914
0.00683832
-0.00451471
-0.0158677
-0.0272208
-0.0385738
-0.0499268
-0.0612798
-0.0726329
-0.0839859
-0.0953389
-0.106692
-0.118045
-0.129398
-0.14075
-0.152102
-0.163452
-0.174798
-0.186114
0.186114
1.19899
1.19899
1.1531
1.11108
1.07173
1.03525
1.00214
0.972503
0.946023
0.922202
0.900508
0.880475
0.86173
0.844
0.827094
0.810886
0.795304
0.780305
0.765865
0.751964
0.738571
0.725641
0.713116
0.700925
0.688997
0.677265
0.665671
0.654171
0.642729
0.631325
0.619942
0.608573
0.59721
0.585851
0.574495
0.56314
0.551786
0.540432
0.529079
0.517726
0.506372
0.495019
0.483666
0.472313
0.46096
0.449607
0.438254
0.426901
0.415548
0.404195
0.392842
0.381489
0.370136
0.358783
0.34743
0.336077
0.324723
0.31337
0.302017
0.290664
0.279311
0.267958
0.256605
0.245252
0.233899
0.222546
0.211193
0.19984
0.188487
0.177134
0.165781
0.154428
0.143075
0.131722
0.120369
0.109016
0.0976626
0.0863096
0.0749565
0.0636035
0.0522505
0.0408974
0.0295444
0.0181914
0.00683832
-0.00451471
-0.0158677
-0.0272208
-0.0385738
-0.0499268
-0.0612798
-0.0726329
-0.0839859
-0.0953389
-0.106692
-0.118045
-0.129398
-0.140751
-0.152103
-0.163456
-0.174812
-0.186122
0.186122
1.21993
1.21993
1.15509
1.11085
1.07103
1.03445
1.0014
0.971871
0.945516
0.921807
0.900205
0.880242
0.861549
0.843857
0.82698
0.810797
0.795234
0.780252
0.765828
0.75194
0.738557
0.725635
0.713115
0.700927
0.689
0.677268
0.665674
0.654172
0.642731
0.631326
0.619943
0.608573
0.59721
0.585851
0.574495
0.56314
0.551786
0.540432
0.529079
0.517726
0.506372
0.495019
0.483666
0.472313
0.46096
0.449607
0.438254
0.426901
0.415548
0.404195
0.392842
0.381489
0.370136
0.358783
0.34743
0.336077
0.324723
0.31337
0.302017
0.290664
0.279311
0.267958
0.256605
0.245252
0.233899
0.222546
0.211193
0.19984
0.188487
0.177134
0.165781
0.154428
0.143075
0.131722
0.120369
0.109016
0.0976626
0.0863096
0.0749565
0.0636035
0.0522505
0.0408974
0.0295444
0.0181914
0.00683832
-0.00451471
-0.0158677
-0.0272208
-0.0385738
-0.0499268
-0.0612798
-0.0726329
-0.0839859
-0.0953389
-0.106692
-0.118045
-0.129398
-0.140751
-0.152103
-0.163456
-0.174811
-0.186124
0.186124
1.21993
1.21993
1.15509
1.11085
1.07103
1.03445
1.0014
0.971871
0.945516
0.921807
0.900205
0.880242
0.861549
0.843857
0.82698
0.810797
0.795234
0.780252
0.765828
0.75194
0.738557
0.725635
0.713115
0.700927
0.689
0.677268
0.665674
0.654172
0.642731
0.631326
0.619943
0.608573
0.59721
0.585851
0.574495
0.56314
0.551786
0.540432
0.529079
0.517726
0.506372
0.495019
0.483666
0.472313
0.46096
0.449607
0.438254
0.426901
0.415548
0.404195
0.392842
0.381489
0.370136
0.358783
0.34743
0.336077
0.324723
0.31337
0.302017
0.290664
0.279311
0.267958
0.256605
0.245252
0.233899
0.222546
0.211193
0.19984
0.188487
0.177134
0.165781
0.154428
0.143075
0.131722
0.120369
0.109016
0.0976626
0.0863096
0.0749565
0.0636035
0.0522505
0.0408974
0.0295444
0.0181914
0.00683832
-0.00451471
-0.0158677
-0.0272208
-0.0385738
-0.0499268
-0.0612798
-0.0726329
-0.0839859
-0.0953389
-0.106692
-0.118045
-0.129398
-0.140751
-0.152103
-0.163456
-0.174811
-0.186124
0.186124
SCALARS phi double
LOOKUP_TABLE phi
1
1
1
0.999982
1.00003
1.00004
0.999662
1.00002
1.00222
1.00156
0.987009
0.94924
0.887414
0.808397
0.721471
0.634061
0.55045
0.472485
0.400723
0.335264
0.276148
0.223461
0.177298
0.137679
0.10448
0.0773826
0.055881
0.0393158
0.0269351
0.0179627
0.0116584
0.00736387
0.00452678
0.00270865
0.00157793
0.00089518
0.000494711
0.000266416
0.000139861
7.16012e-05
3.57607e-05
1.74311e-05
8.29564e-06
3.85617e-06
1.75152e-06
7.77676e-07
3.37655e-07
1.43418e-07
5.96143e-08
2.4259e-08
9.6677e-09
3.77443e-09
1.44412e-09
5.41656e-10
1.99226e-10
7.18793e-11
2.54466e-11
8.84195e-12
3.01635e-12
1.01053e-12
3.32558e-13
1.07534e-13
3.41737e-14
1.06762e-14
3.27955e-15
9.90812e-16
2.9447e-16
8.61106e-17
2.47817e-17
7.02022e-18
1.95796e-18
5.37741e-19
1.45459e-19
3.87599e-20
1.01761e-20
2.63274e-21
6.7133e-22
1.68748e-22
4.182e-23
1.02197e-23
2.46304e-24
5.85524e-25
1.37316e-25
3.17733e-26
7.25485e-27
1.63485e-27
3.63636e-28
7.98456e-29
1.73095e-29
3.70529e-30
7.83276e-31
1.63536e-31
3.37261e-32
6.87106e-33
1.38303e-33
2.75068e-34
5.40623e-35
1.05011e-35
2.01625e-36
3.82675e-37
7.18627e-38
1.27705e-38
1.27705e-38
1
1
1
0.999982
1.00003
1.00004
0.999662
1.00002
1.00222
1.00156
0.987009
0.94924
0.887414
0.808397
0.721471
0.634061
0.55045
0.472485
0.400723
0.335264
0.276148
0.223461
0.177298
0.137679
0.10448
0.0773826
0.055881
0.0393158
0.0269351
0.0179627
0.0116584
0.00736387
0.00452678
0.00270865
0.00157793
0.00089518
0.000494711
0.000266416
0.000139861
7.16012e-05
3.57607e-05
1.74311e-05
8.29564e-06
3.85617e-06
1.75152e-06
7.77676e-07
3.37655e-07
1.43418e-07
5.96143e-08
2.4259e-08
9.6677e-09
3.77443e-09
1.44412e-09
5.41656e-10
1.99226e-10
7.18793e-11
2.54466e-11
8.84195e-12
3.01635e-12
1.01053e-12
3.32558e-13
1.07534e-13
3.41737e-14
1.06762e-14
3.27955e-15
9.90812e-16
2.9447e-16
8.61106e-17
2.47817e-17
7.02022e-18
1.95796e-18
5.37741e-19
1.45459e-19
3.87599e-20
1.01761e-20
2.63274e-21
6.7133e-22
1.68748e-22
4.182e-23
1.02197e-23
2.46304e-24
5.85524e-25
1.37316e-25
3.17733e-26
7.25485e-27
1.63485e-27
3.63636e-28
7.98456e-29
1.73095e-29
3.70529e-30
7.83276e-31
1.63536e-31
3.37261e-32
6.87106e-33
1.38303e-33
2.75068e-34
5.40623e-35
1.05011e-35
2.01625e-36
3.82675e-37
7.18627e-38
1.27705e-38
1.27705e-38
1
1
1
0.999988
0.999982
0.999985
0.999849
0.999676
0.999962
1.00044
0.998841
0.991365
0.974502
0.946572
0.908024
0.860757
0.807137
0.749237
0.688485
0.62569
0.561323
0.495873
0.43014
0.365348
0.303075
0.245017
0.192709
0.147272
0.109265
0.0786601
0.0549338
0.0372156
0.0244608
0.0156025
0.00966152
0.00581047
0.00339541
0.00192888
0.0010658
0.0005731
0.000300054
0.000153042
7.60833e-05
3.68857e-05
1.74475e-05
8.05615e-06
3.63283e-06
1.60061e-06
6.89355e-07
2.90338e-07
1.19633e-07
4.82453e-08
1.90497e-08
7.36739e-09
2.79183e-09
1.03697e-09
3.77651e-10
1.34898e-10
4.72769e-11
1.62612e-11
5.49092e-12
1.82075e-12
5.93042e-13
1.89789e-13
5.96918e-14
1.84556e-14
5.61067e-15
1.67756e-15
4.93419e-16
1.42799e-16
4.06721e-17
1.14031e-17
3.14766e-18
8.55621e-19
2.29078e-19
6.04192e-20
1.57012e-20
4.02101e-21
1.01497e-21
2.52559e-22
6.19626e-23
1.49908e-23
3.57694e-24
8.41895e-25
1.95491e-25
4.47896e-26
1.01268e-26
2.25978e-27
4.97761e-28
1.0824e-28
2.32395e-29
4.92706e-30
1.03163e-30
2.13345e-31
4.35829e-32
8.79578e-33
1.7539e-33
3.45584e-34
6.72957e-35
1.29515e-35
2.46624e-36
4.43246e-37
4.43246e-37
0.999997
1
0.999981
0.999895
0.99972
0.999441
0.999002
0.998365
0.997604
0.996799
0.995734
0.993705
0.989616
0.982293
0.970816
0.954716
0.933959
0.908736
0.879136
0.844855
0.805088
0.7587
0.704666
0.642621
0.573307
0.498717
0.421877
0.346332
0.275522
0.21222
0.158191
0.1141
0.0796448
0.0538179
0.0352197
0.0223338
0.0137314
0.00819046
0.00474268
0.00266773
0.00145861
0.000775702
0.000401492
0.00020237
9.93942e-05
4.75954e-05
2.22329e-05
1.01364e-05
4.51285e-06
1.96294e-06
8.3456e-07
3.46975e-07
1.4113e-07
5.61823e-08
2.18986e-08
8.36057e-09
3.12767e-09
1.1469e-09
4.12384e-10