# vtk DataFile Version 3.0
FlowField
ASCII
DATASET STRUCTURED_GRID
DIMENSIONS 103 13 1 
POINTS 1339 double
0 0 0
0.3 0 0
0.6 0 0
0.9 0 0
1.2 0 0
1.5 0 0
1.8 0 0
2.1 0 0
2.4 0 0
2.7 0 0
3 0 0
3.3 0 0
3.6 0 0
3.9 0 0
4.2 0 0
4.5 0 0
4.8 0 0
5.1 0 0
5.4 0 0
5.7 0 0
6 0 0
6.3 0 0
6.6 0 0
6.9 0 0
7.2 0 0
7.5 0 0
7.8 0 0
8.1 0 0
8.4 0 0
8.7 0 0
9 0 0
9.3 0 0
9.6 0 0
9.9 0 0
10.2 0 0
10.5 0 0
10.8 0 0
11.1 0 0
11.4 0 0
11.7 0 0
12 0 0
12.3 0 0
12.6 0 0
12.9 0 0
13.2 0 0
13.5 0 0
13.8 0 0
14.1 0 0
14.4 0 0
14.7 0 0
15 0 0
15.3 0 0
15.6 0 0
15.9 0 0
16.2 0 0
16.5 0 0
16.8 0 0
17.1 0 0
17.4 0 0
17.7 0 0
18 0 0
18.3 0 0
18.6 0 0
18.9 0 0
19.2 0 0
19.5 0 0
19.8 0 0
20.1 0 0
20.4 0 0
20.7 0 0
21 0 0
21.3 0 0
21.6 0 0
21.9 0 0
22.2 0 0
22.5 0 0
22.8 0 0
23.1 0 0
23.4 0 0
23.7 0 0
24 0 0
24.3 0 0
24.6 0 0
24.9 0 0
25.2 0 0
25.5 0 0
25.8 0 0
26.1 0 0
26.4 0 0
26.7 0 0
27 0 0
27.3 0 0
27.6 0 0
27.9 0 0
28.2 0 0
28.5 0 0
28.8 0 0
29.1 0 0
29.4 0 0
29.7 0 0
30 0 0
30.3 0 0
30.6 0 0
0 0.1 0
0.3 0.1 0
0.6 0.1 0
0.9 0.1 0
1.2 0.1 0
1.5 0.1 0
1.8 0.1 0
2.1 0.1 0
2.4 0.1 0
2.7 0.1 0
3 0.1 0
3.3 0.1 0
3.6 0.1 0
3.9 0.1 0
4.2 0.1 0
4.5 0.1 0
4.8 0.1 0
5.1 0.1 0
5.4 0.1 0
5.7 0.1 0
6 0.1 0
6.3 0.1 0
6.6 0.1 0
6.9 0.1 0
7.2 0.1 0
7.5 0.1 0
7.8 0.1 0
8.1 0.1 0
8.4 0.1 0
8.7 0.1 0
9 0.1 0
9.3 0.1 0
9.6 0.1 0
9.9 0.1 0
10.2 0.1 0
10.5 0.1 0
10.8 0.1 0
11.1 0.1 0
11.4 0.1 0
11.7 0.1 0
12 0.1 0
12.3 0.1 0
12.6 0.1 0
12.9 0.1 0
13.2 0.1 0
13.5 0.1 0
13.8 0.1 0
14.1 0.1 0
14.4 0.1 0
14.7 0.1 0
15 0.1 0
15.3 0.1 0
15.6 0.1 0
15.9 0.1 0
16.2 0.1 0
16.5 0.1 0
16.8 0.1 0
17.1 0.1 0
17.4 0.1 0
17.7 0.1 0
18 0.1 0
18.3 0.1 0
18.6 0.1 0
18.9 0.1 0
19.2 0.1 0
19.5 0.1 0
19.8 0.1 0
20.1 0.1 0
20.4 0.1 0
20.7 0.1 0
21 0.1 0
21.3 0.1 0
21.6 0.1 0
21.9 0.1 0
22.2 0.1 0
22.5 0.1 0
22.8 0.1 0
23.1 0.1 0
23.4 0.1 0
23.7 0.1 0
24 0.1 0
24.3 0.1 0
24.6 0.1 0
24.9 0.1 0
25.2 0.1 0
25.5 0.1 0
25.8 0.1 0
26.1 0.1 0
26.4 0.1 0
26.7 0.1 0
27 0.1 0
27.3 0.1 0
27.6 0.1 0
27.9 0.1 0
28.2 0.1 0
28.5 0.1 0
28.8 0.1 0
29.1 0.1 0
29.4 0.1 0
29.7 0.1 0
30 0.1 0
30.3 0.1 0
30.6 0.1 0
0 0.2 0
0.3 0.2 0
0.6 0.2 0
0.9 0.2 0
1.2 0.2 0
1.5 0.2 0
1.8 0.2 0
2.1 0.2 0
2.4 0.2 0
2.7 0.2 0
3 0.2 0
3.3 0.2 0
3.6 0.2 0
3.9 0.2 0
4.2 0.2 0
4.5 0.2 0
4.8 0.2 0
5.1 0.2 0
5.4 0.2 0
5.7 0.2 0
6 0.2 0
6.3 0.2 0
6.6 0.2 0
6.9 0.2 0
7.2 0.2 0
7.5 0.2 0
7.8 0.2 0
8.1 0.2 0
8.4 0.2 0
8.7 0.2 0
9 0.2 0
9.3 0.2 0
9.6 0.2 0
9.9 0.2 0
10.2 0.2 0
10.5 0.2 0
10.8 0.2 0
11.1 0.2 0
11.4 0.2 0
11.7 0.2 0
12 0.2 0
12.3 0.2 0
12.6 0.2 0
12.9 0.2 0
13.2 0.2 0
13.5 0.2 0
13.8 0.2 0
14.1 0.2 0
14.4 0.2 0
14.7 0.2 0
15 0.2 0
15.3 0.2 0
15.6 0.2 0
15.9 0.2 0
16.2 0.2 0
16.5 0.2 0
16.8 0.2 0
17.1 0.2 0
17.4 0.2 0
17.7 0.2 0
18 0.2 0
18.3 0.2 0
18.6 0.2 0
18.9 0.2 0
19.2 0.2 0
19.5 0.2 0
19.8 0.2 0
20.1 0.2 0
20.4 0.2 0
20.7 0.2 0
21 0.2 0
21.3 0.2 0
21.6 0.2 0
21.9 0.2 0
22.2 0.2 0
22.5 0.2 0
22.8 0.2 0
23.1 0.2 0
23.4 0.2 0
23.7 0.2 0
24 0.2 0
24.3 0.2 0
24.6 0.2 0
24.9 0.2 0
25.2 0.2 0
25.5 0.2 0
25.8 0.2 0
26.1 0.2 0
26.4 0.2 0
26.7 0.2 0
27 0.2 0
27.3 0.2 0
27.6 0.2 0
27.9 0.2 0
28.2 0.2 0
28.5 0.2 0
28.8 0.2 0
29.1 0.2 0
29.4 0.2 0
29.7 0.2 0
30 0.2 0
30.3 0.2 0
30.6 0.2 0
0 0.3 0
0.3 0.3 0
0.6 0.3 0
0.9 0.3 0
1.2 0.3 0
1.5 0.3 0
1.8 0.3 0
2.1 0.3 0
2.4 0.3 0
2.7 0.3 0
3 0.3 0
3.3 0.3 0
3.6 0.3 0
3.9 0.3 0
4.2 0.3 0
4.5 0.3 0
4.8 0.3 0
5.1 0.3 0
5.4 0.3 0
5.7 0.3 0
6 0.3 0
6.3 0.3 0
6.6 0.3 0
6.9 0.3 0
7.2 0.3 0
7.5 0.3 0
7.8 0.3 0
8.1 0.3 0
8.4 0.3 0
8.7 0.3 0
9 0.3 0
9.3 0.3 0
9.6 0.3 0
9.9 0.3 0
10.2 0.3 0
10.5 0.3 0
10.8 0.3 0
11.1 0.3 0
11.4 0.3 0
11.7 0.3 0
12 0.3 0
12.3 0.3 0
12.6 0.3 0
12.9 0.3 0
13.2 0.3 0
13.5 0.3 0
13.8 0.3 0
14.1 0.3 0
14.4 0.3 0
14.7 0.3 0
15 0.3 0
15.3 0.3 0
15.6 0.3 0
15.9 0.3 0
16.2 0.3 0
16.5 0.3 0
16.8 0.3 0
17.1 0.3 0
17.4 0.3 0
17.7 0.3 0
18 0.3 0
18.3 0.3 0
18.6 0.3 0
18.9 0.3 0
19.2 0.3 0
19.5 0.3 0
19.8 0.3 0
20.1 0.3 0
20.4 0.3 0
20.7 0.3 0
21 0.3 0
21.3 0.3 0
21.6 0.3 0
21.9 0.3 0
22.2 0.3 0
22.5 0.3 0
22.8 0.3 0
23.1 0.3 0
23.4 0.3 0
23.7 0.3 0
24 0.3 0
24.3 0.3 0
24.6 0.3 0
24.9 0.3 0
25.2 0.3 0
25.5 0.3 0
25.8 0.3 0
26.1 0.3 0
26.4 0.3 0
26.7 0.3 0
27 0.3 0
27.3 0.3 0
27.6 0.3 0
27.9 0.3 0
28.2 0.3 0
28.5 0.3 0
28.8 0.3 0
29.1 0.3 0
29.4 0.3 0
29.7 0.3 0
30 0.3 0
30.3 0.3 0
30.6 0.3 0
0 0.4 0
0.3 0.4 0
0.6 0.4 0
0.9 0.4 0
1.2 0.4 0
1.5 0.4 0
1.8 0.4 0
2.1 0.4 0
2.4 0.4 0
2.7 0.4 0
3 0.4 0
3.3 0.4 0
3.6 0.4 0
3.9 0.4 0
4.2 0.4 0
4.5 0.4 0
4.8 0.4 0
5.1 0.4 0
5.4 0.4 0
5.7 0.4 0
6 0.4 0
6.3 0.4 0
6.6 0.4 0
6.9 0.4 0
7.2 0.4 0
7.5 0.4 0
7.8 0.4 0
8.1 0.4 0
8.4 0.4 0
8.7 0.4 0
9 0.4 0
9.3 0.4 0
9.6 0.4 0
9.9 0.4 0
10.2 0.4 0
10.5 0.4 0
10.8 0.4 0
11.1 0.4 0
11.4 0.4 0
11.7 0.4 0
12 0.4 0
12.3 0.4 0
12.6 0.4 0
12.9 0.4 0
13.2 0.4 0
13.5 0.4 0
13.8 0.4 0
14.1 0.4 0
14.4 0.4 0
14.7 0.4 0
15 0.4 0
15.3 0.4 0
15.6 0.4 0
15.9 0.4 0
16.2 0.4 0
16.5 0.4 0
16.8 0.4 0
17.1 0.4 0
17.4 0.4 0
17.7 0.4 0
18 0.4 0
18.3 0.4 0
18.6 0.4 0
18.9 0.4 0
19.2 0.4 0
19.5 0.4 0
19.8 0.4 0
20.1 0.4 0
20.4 0.4 0
20.7 0.4 0
21 0.4 0
21.3 0.4 0
21.6 0.4 0
21.9 0.4 0
22.2 0.4 0
22.5 0.4 0
22.8 0.4 0
23.1 0.4 0
23.4 0.4 0
23.7 0.4 0
24 0.4 0
24.3 0.4 0
24.6 0.4 0
24.9 0.4 0
25.2 0.4 0
25.5 0.4 0
25.8 0.4 0
26.1 0.4 0
26.4 0.4 0
26.7 0.4 0
27 0.4 0
27.3 0.4 0
27.6 0.4 0
27.9 0.4 0
28.2 0.4 0
28.5 0.4 0
28.8 0.4 0
29.1 0.4 0
29.4 0.4 0
29.7 0.4 0
30 0.4 0
30.3 0.4 0
30.6 0.4 0
0 0.5 0
0.3 0.5 0
0.6 0.5 0
0.9 0.5 0
1.2 0.5 0
1.5 0.5 0
1.8 0.5 0
2.1 0.5 0
2.4 0.5 0
2.7 0.5 0
3 0.5 0
3.3 0.5 0
3.6 0.5 0
3.9 0.5 0
4.2 0.5 0
4.5 0.5 0
4.8 0.5 0
5.1 0.5 0
5.4 0.5 0
5.7 0.5 0
6 0.5 0
6.3 0.5 0
6.6 0.5 0
6.9 0.5 0
7.2 0.5 0
7.5 0.5 0
7.8 0.5 0
8.1 0.5 0
8.4 0.5 0
8.7 0.5 0
9 0.5 0
9.3 0.5 0
9.6 0.5 0
9.9 0.5 0
10.2 0.5 0
10.5 0.5 0
10.8 0.5 0
11.1 0.5 0
11.4 0.5 0
11.7 0.5 0
12 0.5 0
12.3 0.5 0
12.6 0.5 0
12.9 0.5 0
13.2 0.5 0
13.5 0.5 0
13.8 0.5 0
14.1 0.5 0
14.4 0.5 0
14.7 0.5 0
15 0.5 0
15.3 0.5 0
15.6 0.5 0
15.9 0.5 0
16.2 0.5 0
16.5 0.5 0
16.8 0.5 0
17.1 0.5 0
17.4 0.5 0
17.7 0.5 0
18 0.5 0
18.3 0.5 0
18.6 0.5 0
18.9 0.5 0
19.2 0.5 0
19.5 0.5 0
19.8 0.5 0
20.1 0.5 0
20.4 0.5 0
20.7 0.5 0
21 0.5 0
21.3 0.5 0
21.6 0.5 0
21.9 0.5 0
22.2 0.5 0
22.5 0.5 0
22.8 0.5 0
23.1 0.5 0
23.4 0.5 0
23.7 0.5 0
24 0.5 0
24.3 0.5 0
24.6 0.5 0
24.9 0.5 0
25.2 0.5 0
25.5 0.5 0
25.8 0.5 0
26.1 0.5 0
26.4 0.5 0
26.7 0.5 0
27 0.5 0
27.3 0.5 0
27.6 0.5 0
27.9 0.5 0
28.2 0.5 0
28.5 0.5 0
28.8 0.5 0
29.1 0.5 0
29.4 0.5 0
29.7 0.5 0
30 0.5 0
30.3 0.5 0
30.6 0.5 0
0 0.6 0
0.3 0.6 0
0.6 0.6 0
0.9 0.6 0
1.2 0.6 0
1.5 0.6 0
1.8 0.6 0
2.1 0.6 0
2.4 0.6 0
2.7 0.6 0
3 0.6 0
3.3 0.6 0
3.6 0.6 0
3.9 0.6 0
4.2 0.6 0
4.5 0.6 0
4.8 0.6 0
5.1 0.6 0
5.4 0.6 0
5.7 0.6 0
6 0.6 0
6.3 0.6 0
6.6 0.6 0
6.9 0.6 0
7.2 0.6 0
7.5 0.6 0
7.8 0.6 0
8.1 0.6 0
8.4 0.6 0
8.7 0.6 0
9 0.6 0
9.3 0.6 0
9.6 0.6 0
9.9 0.6 0
10.2 0.6 0
10.5 0.6 0
10.8 0.6 0
11.1 0.6 0
11.4 0.6 0
11.7 0.6 0
12 0.6 0
12.3 0.6 0
12.6 0.6 0
12.9 0.6 0
13.2 0.6 0
13.5 0.6 0
13.8 0.6 0
14.1 0.6 0
14.4 0.6 0
14.7 0.6 0
15 0.6 0
15.3 0.6 0
15.6 0.6 0
15.9 0.6 0
16.2 0.6 0
16.5 0.6 0
16.8 0.6 0
17.1 0.6 0
17.4 0.6 0
17.7 0.6 0
18 0.6 0
18.3 0.6 0
18.6 0.6 0
18.9 0.6 0
19.2 0.6 0
19.5 0.6 0
19.8 0.6 0
20.1 0.6 0
20.4 0.6 0
20.7 0.6 0
21 0.6 0
21.3 0.6 0
21.6 0.6 0
21.9 0.6 0
22.2 0.6 0
22.5 0.6 0
22.8 0.6 0
23.1 0.6 0
23.4 0.6 0
23.7 0.6 0
24 0.6 0
24.3 0.6 0
24.6 0.6 0
24.9 0.6 0
25.2 0.6 0
25.5 0.6 0
25.8 0.6 0
26.1 0.6 0
26.4 0.6 0
26.7 0.6 0
27 0.6 0
27.3 0.6 0
27.6 0.6 0
27.9 0.6 0
28.2 0.6 0
28.5 0.6 0
28.8 0.6 0
29.1 0.6 0
29.4 0.6 0
29.7 0.6 0
30 0.6 0
30.3 0.6 0
30.6 0.6 0
0 0.7 0
0.3 0.7 0
0.6 0.7 0
0.9 0.7 0
1.2 0.7 0
1.5 0.7 0
1.8 0.7 0
2.1 0.7 0
2.4 0.7 0
2.7 0.7 0
3 0.7 0
3.3 0.7 0
3.6 0.7 0
3.9 0.7 0
4.2 0.7 0
4.5 0.7 0
4.8 0.7 0
5.1 0.7 0
5.4 0.7 0
5.7 0.7 0
6 0.7 0
6.3 0.7 0
6.6 0.7 0
6.9 0.7 0
7.2 0.7 0
7.5 0.7 0
7.8 0.7 0
8.1 0.7 0
8.4 0.7 0
8.7 0.7 0
9 0.7 0
9.3 0.7 0
9.6 0.7 0
9.9 0.7 0
10.2 0.7 0
10.5 0.7 0
10.8 0.7 0
11.1 0.7 0
11.4 0.7 0
11.7 0.7 0
12 0.7 0
12.3 0.7 0
12.6 0.7 0
12.9 0.7 0
13.2 0.7 0
13.5 0.7 0
13.8 0.7 0
14.1 0.7 0
14.4 0.7 0
14.7 0.7 0
15 0.7 0
15.3 0.7 0
15.6 0.7 0
15.9 0.7 0
16.2 0.7 0
16.5 0.7 0
16.8 0.7 0
17.1 0.7 0
17.4 0.7 0
17.7 0.7 0
18 0.7 0
18.3 0.7 0
18.6 0.7 0
18.9 0.7 0
19.2 0.7 0
19.5 0.7 0
19.8 0.7 0
20.1 0.7 0
20.4 0.7 0
20.7 0.7 0
21 0.7 0
21.3 0.7 0
21.6 0.7 0
21.9 0.7 0
22.2 0.7 0
22.5 0.7 0
22.8 0.7 0
23.1 0.7 0
23.4 0.7 0
23.7 0.7 0
24 0.7 0
24.3 0.7 0
24.6 0.7 0
24.9 0.7 0
25.2 0.7 0
25.5 0.7 0
25.8 0.7 0
26.1 0.7 0
26.4 0.7 0
26.7 0.7 0
27 0.7 0
27.3 0.7 0
27.6 0.7 0
27.9 0.7 0
28.2 0.7 0
28.5 0.7 0
28.8 0.7 0
29.1 0.7 0
29.4 0.7 0
29.7 0.7 0
30 0.7 0
30.3 0.7 0
30.6 0.7 0
0 0.8 0
0.3 0.8 0
0.6 0.8 0
0.9 0.8 0
1.2 0.8 0
1.5 0.8 0
1.8 0.8 0
2.1 0.8 0
2.4 0.8 0
2.7 0.8 0
3 0.8 0
3.3 0.8 0
3.6 0.8 0
3.9 0.8 0
4.2 0.8 0
4.5 0.8 0
4.8 0.8 0
5.1 0.8 0
5.4 0.8 0
5.7 0.8 0
6 0.8 0
6.3 0.8 0
6.6 0.8 0
6.9 0.8 0
7.2 0.8 0
7.5 0.8 0
7.8 0.8 0
8.1 0.8 0
8.4 0.8 0
8.7 0.8 0
9 0.8 0
9.3 0.8 0
9.6 0.8 0
9.9 0.8 0
10.2 0.8 0
10.5 0.8 0
10.8 0.8 0
11.1 0.8 0
11.4 0.8 0
11.7 0.8 0
12 0.8 0
12.3 0.8 0
12.6 0.8 0
12.9 0.8 0
13.2 0.8 0
13.5 0.8 0
13.8 0.8 0
14.1 0.8 0
14.4 0.8 0
14.7 0.8 0
15 0.8 0
15.3 0.8 0
15.6 0.8 0
15.9 0.8 0
16.2 0.8 0
16.5 0.8 0
16.8 0.8 0
17.1 0.8 0
17.4 0.8 0
17.7 0.8 0
18 0.8 0
18.3 0.8 0
18.6 0.8 0
18.9 0.8 0
19.2 0.8 0
19.5 0.8 0
19.8 0.8 0
20.1 0.8 0
20.4 0.8 0
20.7 0.8 0
21 0.8 0
21.3 0.8 0
21.6 0.8 0
21.9 0.8 0
22.2 0.8 0
22.5 0.8 0
22.8 0.8 0
23.1 0.8 0
23.4 0.8 0
23.7 0.8 0
24 0.8 0
24.3 0.8 0
24.6 0.8 0
24.9 0.8 0
25.2 0.8 0
25.5 0.8 0
25.8 0.8 0
26.1 0.8 0
26.4 0.8 0
26.7 0.8 0
27 0.8 0
27.3 0.8 0
27.6 0.8 0
27.9 0.8 0
28.2 0.8 0
28.5 0.8 0
28.8 0.8 0
29.1 0.8 0
29.4 0.8 0
29.7 0.8 0
30 0.8 0
30.3 0.8 0
30.6 0.8 0
0 0.9 0
0.3 0.9 0
0.6 0.9 0
0.9 0.9 0
1.2 0.9 0
1.5 0.9 0
1.8 0.9 0
2.1 0.9 0
2.4 0.9 0
2.7 0.9 0
3 0.9 0
3.3 0.9 0
3.6 0.9 0
3.9 0.9 0
4.2 0.9 0
4.5 0.9 0
4.8 0.9 0
5.1 0.9 0
5.4 0.9 0
5.7 0.9 0
6 0.9 0
6.3 0.9 0
6.6 0.9 0
6.9 0.9 0
7.2 0.9 0
7.5 0.9 0
7.8 0.9 0
8.1 0.9 0
8.4 0.9 0
8.7 0.9 0
9 0.9 0
9.3 0.9 0
9.6 0.9 0
9.9 0.9 0
10.2 0.9 0
10.5 0.9 0
10.8 0.9 0
11.1 0.9 0
11.4 0.9 0
11.7 0.9 0
12 0.9 0
12.3 0.9 0
12.6 0.9 0
12.9 0.9 0
13.2 0.9 0
13.5 0.9 0
13.8 0.9 0
14.1 0.9 0
14.4 0.9 0
14.7 0.9 0
15 0.9 0
15.3 0.9 0
15.6 0.9 0
15.9 0.9 0
16.2 0.9 0
16.5 0.9 0
16.8 0.9 0
17.1 0.9 0
17.4 0.9 0
17.7 0.9 0
18 0.9 0
18.3 0.9 0
18.6 0.9 0
18.9 0.9 0
19.2 0.9 0
19.5 0.9 0
19.8 0.9 0
20.1 0.9 0
20.4 0.9 0
20.7 0.9 0
21 0.9 0
21.3 0.9 0
21.6 0.9 0
21.9 0.9 0
22.2 0.9 0
22.5 0.9 0
22.8 0.9 0
23.1 0.9 0
23.4 0.9 0
23.7 0.9 0
24 0.9 0
24.3 0.9 0
24.6 0.9 0
24.9 0.9 0
25.2 0.9 0
25.5 0.9 0
25.8 0.9 0
26.1 0.9 0
26.4 0.9 0
26.7 0.9 0
27 0.9 0
27.3 0.9 0
27.6 0.9 0
27.9 0.9 0
28.2 0.9 0
28.5 0.9 0
28.8 0.9 0
29.1 0.9 0
29.4 0.9 0
29.7 0.9 0
30 0.9 0
30.3 0.9 0
30.6 0.9 0
0 1 0
0.3 1 0
0.6 1 0
0.9 1 0
1.2 1 0
1.5 1 0
1.8 1 0
2.1 1 0
2.4 1 0
2.7 1 0
3 1 0
3.3 1 0
3.6 1 0
3.9 1 0
4.2 1 0
4.5 1 0
4.8 1 0
5.1 1 0
5.4 1 0
5.7 1 0
6 1 0
6.3 1 0
6.6 1 0
6.9 1 0
7.2 1 0
7.5 1 0
7.8 1 0
8.1 1 0
8.4 1 0
8.7 1 0
9 1 0
9.3 1 0
9.6 1 0
9.9 1 0
10.2 1 0
10.5 1 0
10.8 1 0
11.1 1 0
11.4 1 0
11.7 1 0
12 1 0
12.3 1 0
12.6 1 0
12.9 1 0
13.2 1 0
13.5 1 0
13.8 1 0
14.1 1 0
14.4 1 0
14.7 1 0
15 1 0
15.3 1 0
15.6 1 0
15.9 1 0
16.2 1 0
16.5 1 0
16.8 1 0
17.1 1 0
17.4 1 0
17.7 1 0
18 1 0
18.3 1 0
18.6 1 0
18.9 1 0
19.2 1 0
19.5 1 0
19.8 1 0
20.1 1 0
20.4 1 0
20.7 1 0
21 1 0
21.3 1 0
21.6 1 0
21.9 1 0
22.2 1 0
22.5 1 0
22.8 1 0
23.1 1 0
23.4 1 0
23.7 1 0
24 1 0
24.3 1 0
24.6 1 0
24.9 1 0
25.2 1 0
25.5 1 0
25.8 1 0
26.1 1 0
26.4 1 0
26.7 1 0
27 1 0
27.3 1 0
27.6 1 0
27.9 1 0
28.2 1 0
28.5 1 0
28.8 1 0
29.1 1 0
29.4 1 0
29.7 1 0
30 1 0
30.3 1 0
30.6 1 0
0 1.1 0
0.3 1.1 0
0.6 1.1 0
0.9 1.1 0
1.2 1.1 0
1.5 1.1 0
1.8 1.1 0
2.1 1.1 0
2.4 1.1 0
2.7 1.1 0
3 1.1 0
3.3 1.1 0
3.6 1.1 0
3.9 1.1 0
4.2 1.1 0
4.5 1.1 0
4.8 1.1 0
5.1 1.1 0
5.4 1.1 0
5.7 1.1 0
6 1.1 0
6.3 1.1 0
6.6 1.1 0
6.9 1.1 0
7.2 1.1 0
7.5 1.1 0
7.8 1.1 0
8.1 1.1 0
8.4 1.1 0
8.7 1.1 0
9 1.1 0
9.3 1.1 0
9.6 1.1 0
9.9 1.1 0
10.2 1.1 0
10.5 1.1 0
10.8 1.1 0
11.1 1.1 0
11.4 1.1 0
11.7 1.1 0
12 1.1 0
12.3 1.1 0
12.6 1.1 0
12.9 1.1 0
13.2 1.1 0
13.5 1.1 0
13.8 1.1 0
14.1 1.1 0
14.4 1.1 0
14.7 1.1 0
15 1.1 0
15.3 1.1 0
15.6 1.1 0
15.9 1.1 0
16.2 1.1 0
16.5 1.1 0
16.8 1.1 0
17.1 1.1 0
17.4 1.1 0
17.7 1.1 0
18 1.1 0
18.3 1.1 0
18.6 1.1 0
18.9 1.1 0
19.2 1.1 0
19.5 1.1 0
19.8 1.1 0
20.1 1.1 0
20.4 1.1 0
20.7 1.1 0
21 1.1 0
21.3 1.1 0
21.6 1.1 0
21.9 1.1 0
22.2 1.1 0
22.5 1.1 0
22.8 1.1 0
23.1 1.1 0
23.4 1.1 0
23.7 1.1 0
24 1.1 0
24.3 1.1 0
24.6 1.1 0
24.9 1.1 0
25.2 1.1 0
25.5 1.1 0
25.8 1.1 0
26.1 1.1 0
26.4 1.1 0
26.7 1.1 0
27 1.1 0
27.3 1.1 0
27.6 1.1 0
27.9 1.1 0
28.2 1.1 0
28.5 1.1 0
28.8 1.1 0
29.1 1.1 0
29.4 1.1 0
29.7 1.1 0
30 1.1 0
30.3 1.1 0
30.6 1.1 0
0 1.2 0
0.3 1.2 0
0.6 1.2 0
0.9 1.2 0
1.2 1.2 0
1.5 1.2 0
1.8 1.2 0
2.1 1.2 0
2.4 1.2 0
2.7 1.2 0
3 1.2 0
3.3 1.2 0
3.6 1.2 0
3.9 1.2 0
4.2 1.2 0
4.5 1.2 0
4.8 1.2 0
5.1 1.2 0
5.4 1.2 0
5.7 1.2 0
6 1.2 0
6.3 1.2 0
6.6 1.2 0
6.9 1.2 0
7.2 1.2 0
7.5 1.2 0
7.8 1.2 0
8.1 1.2 0
8.4 1.2 0
8.7 1.2 0
9 1.2 0
9.3 1.2 0
9.6 1.2 0
9.9 1.2 0
10.2 1.2 0
10.5 1.2 0
10.8 1.2 0
11.1 1.2 0
11.4 1.2 0
11.7 1.2 0
12 1.2 0
12.3 1.2 0
12.6 1.2 0
12.9 1.2 0
13.2 1.2 0
13.5 1.2 0
13.8 1.2 0
14.1 1.2 0
14.4 1.2 0
14.7 1.2 0
15 1.2 0
15.3 1.2 0
15.6 1.2 0
15.9 1.2 0
16.2 1.2 0
16.5 1.2 0
16.8 1.2 0
17.1 1.2 0
17.4 1.2 0
17.7 1.2 0
18 1.2 0
18.3 1.2 0
18.6 1.2 0
18.9 1.2 0
19.2 1.2 0
19.5 1.2 0
19.8 1.2 0
20.1 1.2 0
20.4 1.2 0
20.7 1.2 0
21 1.2 0
21.3 1.2 0
21.6 1.2 0
21.9 1.2 0
22.2 1.2 0
22.5 1.2 0
22.8 1.2 0
23.1 1.2 0
23.4 1.2 0
23.7 1.2 0
24 1.2 0
24.3 1.2 0
24.6 1.2 0
24.9 1.2 0
25.2 1.2 0
25.5 1.2 0
25.8 1.2 0
26.1 1.2 0
26.4 1.2 0
26.7 1.2 0
27 1.2 0
27.3 1.2 0
27.6 1.2 0
27.9 1.2 0
28.2 1.2 0
28.5 1.2 0
28.8 1.2 0
29.1 1.2 0
29.4 1.2 0
29.7 1.2 0
30 1.2 0
30.3 1.2 0
30.6 1.2 0

POINT_DATA 1339

SCALARS pressure double
LOOKUP_TABLE pressure
1.17791
1.17791
1.11307
1.06883
1.02901
0.992435
0.959383
0.929855
0.903499
0.87979
0.858188
0.838225
0.819531
0.801832
0.784925
0.768666
0.752947
0.737691
0.722839
0.708344
0.69417
0.680285
0.666664
0.653285
0.640128
0.627177
0.614416
0.601833
0.589417
0.577158
0.565051
0.55309
0.541274
0.529599
0.518066
0.506671
0.495412
0.484284
0.473282
0.462396
0.451617
0.440935
0.430337
0.419811
0.409347
0.398933
0.388559
0.378218
0.367902
0.357605
0.347322
0.337049
0.326784
0.316525
0.306269
0.296016
0.285764
0.275514
0.265264
0.255015
0.244767
0.234518
0.22427
0.214022
0.203774
0.193526
0.183278
0.17303
0.162782
0.152534
0.142286
0.132038
0.12179
0.111542
0.101294
0.0910459
0.0807979
0.0705499
0.0603019
0.0500539
0.0398059
0.029558
0.01931
0.00906199
-0.00118599
-0.011434
-0.0216819
-0.0319299
-0.0421779
-0.0524259
-0.0626738
-0.0729218
-0.0831698
-0.0934177
-0.103666
-0.113914
-0.124162
-0.13441
-0.144657
-0.154905
-0.165154
-0.17539
0.17539
1.17791
1.17791
1.11307
1.06883
1.02901
0.992435
0.959383
0.929855
0.903499
0.87979
0.858188
0.838225
0.819531
0.801832
0.784925
0.768666
0.752947
0.737691
0.722839
0.708344
0.69417
0.680285
0.666664
0.653285
0.640128
0.627177
0.614416
0.601833
0.589417
0.577158
0.565051
0.55309
0.541274
0.529599
0.518066
0.506671
0.495412
0.484284
0.473282
0.462396
0.451617
0.440935
0.430337
0.419811
0.409347
0.398933
0.388559
0.378218
0.367902
0.357605
0.347322
0.337049
0.326784
0.316525
0.306269
0.296016
0.285764
0.275514
0.265264
0.255015
0.244767
0.234518
0.22427
0.214022
0.203774
0.193526
0.183278
0.17303
0.162782
0.152534
0.142286
0.132038
0.12179
0.111542
0.101294
0.0910459
0.0807979
0.0705499
0.0603019
0.0500539
0.0398059
0.029558
0.01931
0.00906199
-0.00118599
-0.011434
-0.0216819
-0.0319299
-0.0421779
-0.0524259
-0.0626738
-0.0729218
-0.0831698
-0.0934177
-0.103666
-0.113914
-0.124162
-0.13441
-0.144657
-0.154905
-0.165154
-0.17539
0.17539
1.15697
1.15697
1.11108
1.06906
1.02971
0.993231
0.960126
0.930486
0.904006
0.880185
0.858491
0.838458
0.819713
0.801977
0.785043
0.768763
0.75303
0.737762
0.722901
0.708399
0.694219
0.680329
0.666704
0.653321
0.640162
0.627208
0.614445
0.601859
0.58944
0.57718
0.56507
0.553108
0.541289
0.529612
0.518076
0.506679
0.495418
0.484289
0.473285
0.462398
0.451619
0.440935
0.430337
0.419811
0.409346
0.398932
0.388559
0.378218
0.367901
0.357604
0.347321
0.337049
0.326784
0.316524
0.306269
0.296015
0.285764
0.275514
0.265264
0.255015
0.244767
0.234518
0.22427
0.214022
0.203774
0.193526
0.183278
0.17303
0.162782
0.152534
0.142286
0.132038
0.12179
0.111542
0.101294
0.0910459
0.0807979
0.0705499
0.0603019
0.0500539
0.0398059
0.0295579
0.01931
0.00906199
-0.00118599
-0.011434
-0.0216819
-0.0319299
-0.0421779
-0.0524259
-0.0626738
-0.0729218
-0.0831698
-0.0934177
-0.103666
-0.113914
-0.124162
-0.13441
-0.144657
-0.154905
-0.165155
-0.175389
0.175389
1.14199
1.14199
1.1082
1.06929
1.03083
0.994555
0.961387
0.931564
0.904868
0.880844
0.858984
0.838823
0.819985
0.802182
0.785201
0.768888
0.753131
0.737846
0.722972
0.70846
0.694272
0.680376
0.666745
0.653358
0.640195
0.627238
0.614472
0.601884
0.589463
0.5772
0.565088
0.553124
0.541303
0.529625
0.518087
0.506688
0.495426
0.484295
0.473289
0.462401
0.451621
0.440937
0.430337
0.419811
0.409346
0.398932
0.388559
0.378217
0.367901
0.357604
0.347321
0.337049
0.326784
0.316524
0.306269
0.296015
0.285764
0.275514
0.265264
0.255015
0.244767
0.234518
0.22427
0.214022
0.203774
0.193526
0.183278
0.17303
0.162782
0.152534
0.142286
0.132038
0.12179
0.111542
0.101294
0.0910459
0.0807979
0.0705499
0.0603019
0.0500539
0.0398059
0.0295579
0.01931
0.00906199
-0.00118599
-0.011434
-0.0216819
-0.0319299
-0.0421779
-0.0524259
-0.0626738
-0.0729218
-0.0831698
-0.0934177
-0.103666
-0.113914
-0.124162
-0.13441
-0.144657
-0.154905
-0.165151
-0.175386
0.175386
1.13242
1.13242
1.10571
1.0694
1.03178
0.99575
0.962564
0.932601
0.905721
0.881517
0.859501
0.839218
0.820287
0.802416
0.785386
0.769038
0.753254
0.73795
0.72306
0.708536
0.694338
0.680434
0.666797
0.653405
0.640236
0.627275
0.614505
0.601914
0.58949
0.577225
0.565112
0.553146
0.541324
0.529644
0.518105
0.506704
0.49544
0.484308
0.473301
0.462411
0.451629
0.440943
0.430343
0.419816
0.40935
0.398935
0.38856
0.378219
0.367902
0.357605
0.347322
0.337049
0.326784
0.316524
0.306269
0.296015
0.285764
0.275514
0.265264
0.255015
0.244767
0.234518
0.22427
0.214022
0.203774
0.193526
0.183278
0.17303
0.162782
0.152534
0.142286
0.132038
0.12179
0.111542
0.101294
0.0910459
0.0807979
0.0705499
0.0603019
0.0500539
0.0398059
0.0295579
0.01931
0.00906199
-0.00118599
-0.011434
-0.0216819
-0.0319299
-0.0421779
-0.0524259
-0.0626738
-0.0729218
-0.0831698
-0.0934177
-0.103666
-0.113914
-0.124162
-0.134409
-0.144657
-0.154903
-0.165142
-0.175382
0.175382
1.1271
1.1271
1.10408
1.06942
1.03237
0.996517
0.963333
0.93329
0.906299
0.881981
0.859865
0.839502
0.82051
0.802593
0.785529
0.769155
0.753353
0.738034
0.723134
0.708601
0.694395
0.680485
0.666843
0.653445
0.640273
0.627308
0.614536
0.601942
0.589516
0.577249
0.565135
0.553167
0.541344
0.529663
0.518123
0.506722
0.495456
0.484323
0.473314
0.462423
0.451639
0.440953
0.430351
0.419822
0.409355
0.398939
0.388564
0.378221
0.367904
0.357606
0.347323
0.33705
0.326785
0.316525
0.306269
0.296016
0.285764
0.275514
0.265264
0.255015
0.244767
0.234518
0.22427
0.214022
0.203774
0.193526
0.183278
0.17303
0.162782
0.152534
0.142286
0.132038
0.12179
0.111542
0.101294
0.0910459
0.0807979
0.0705499
0.0603019
0.0500539
0.0398059
0.0295579
0.01931
0.00906199
-0.00118599
-0.011434
-0.0216819
-0.0319299
-0.0421779
-0.0524259
-0.0626738
-0.0729218
-0.0831698
-0.0934177
-0.103666
-0.113914
-0.124162
-0.134409
-0.144656
-0.154901
-0.165133
-0.175378
0.175378
1.1254
1.1254
1.10354
1.06943
1.03258
0.996791
0.963607
0.933536
0.906505
0.882148
0.859998
0.839606
0.820593
0.80266
0.785584
0.769201
0.753392
0.738068
0.723163
0.708627
0.694418
0.680506
0.666861
0.653462
0.640289
0.627323
0.614549
0.601954
0.589527
0.57726
0.565144
0.553177
0.541353
0.529672
0.518131
0.50673
0.495464
0.48433
0.473321
0.462429
0.451644
0.440957
0.430354
0.419825
0.409357
0.398941
0.388565
0.378222
0.367905
0.357607
0.347323
0.33705
0.326785
0.316525
0.306269
0.296016
0.285764
0.275514
0.265264
0.255015
0.244767
0.234518
0.22427
0.214022
0.203774
0.193526
0.183278
0.17303
0.162782
0.152534
0.142286
0.132038
0.12179
0.111542
0.101294
0.0910459
0.0807979
0.0705499
0.0603019
0.0500539
0.0398059
0.0295579
0.01931
0.00906199
-0.00118599
-0.011434
-0.0216819
-0.0319299
-0.0421779
-0.0524259
-0.0626738
-0.0729218
-0.0831698
-0.0934177
-0.103666
-0.113914
-0.124162
-0.134409
-0.144656
-0.1549
-0.165129
-0.175376
0.175376
1.1271
1.1271
1.10408
1.06942
1.03237
0.996517
0.963333
0.93329
0.906299
0.881981
0.859865
0.839502
0.82051
0.802593
0.785529
0.769155
0.753353
0.738034
0.723134
0.708601
0.694395
0.680485
0.666843
0.653445
0.640273
0.627308
0.614536
0.601942
0.589516
0.577249
0.565135
0.553167
0.541344
0.529663
0.518123
0.506722
0.495456
0.484323
0.473314
0.462423
0.451639
0.440953
0.430351
0.419822
0.409355
0.398939
0.388564
0.378221
0.367904
0.357606
0.347323
0.33705
0.326785
0.316525
0.306269
0.296016
0.285764
0.275514
0.265264
0.255015
0.244767
0.234518
0.22427
0.214022
0.203774
0.193526
0.183278
0.17303
0.162782
0.152534
0.142286
0.132038
0.12179
0.111542
0.101294
0.0910459
0.0807979
0.0705499
0.0603019
0.0500539
0.0398059
0.029558
0.01931
0.00906199
-0.00118599
-0.011434
-0.0216819
-0.0319299
-0.0421779
-0.0524259
-0.0626738
-0.0729218
-0.0831698
-0.0934177
-0.103666
-0.113914
-0.124162
-0.134409
-0.144656
-0.154901
-0.165133
-0.175378
0.175378
1.13242
1.13242
1.10571
1.0694
1.03178
0.99575
0.962564
0.932601
0.905721
0.881517
0.859501
0.839218
0.820287
0.802416
0.785386
0.769038
0.753254
0.73795
0.72306
0.708536
0.694338
0.680434
0.666797
0.653405
0.640236
0.627275
0.614505
0.601914
0.58949
0.577225
0.565112
0.553146
0.541324
0.529644
0.518105
0.506704
0.49544
0.484308
0.473301
0.462411
0.451629
0.440943
0.430343
0.419816
0.40935
0.398935
0.38856
0.378219
0.367902
0.357605
0.347322
0.337049
0.326784
0.316524
0.306269
0.296015
0.285764
0.275514
0.265264
0.255015
0.244767
0.234518
0.22427
0.214022
0.203774
0.193526
0.183278
0.17303
0.162782
0.152534
0.142286
0.132038
0.12179
0.111542
0.101294
0.0910459
0.0807979
0.0705499
0.0603019
0.0500539
0.0398059
0.029558
0.01931
0.00906199
-0.00118599
-0.011434
-0.0216819
-0.0319299
-0.0421779
-0.0524259
-0.0626738
-0.0729218
-0.0831698
-0.0934177
-0.103666
-0.113914
-0.124162
-0.134409
-0.144657
-0.154903
-0.165142
-0.175382
0.175382
1.14199
1.14199
1.1082
1.06929
1.03083
0.994555
0.961387
0.931564
0.904868
0.880844
0.858984
0.838823
0.819985
0.802182
0.785201
0.768888
0.753131
0.737846
0.722972
0.70846
0.694272
0.680376
0.666745
0.653358
0.640195
0.627238
0.614472
0.601884
0.589463
0.5772
0.565088
0.553124
0.541303
0.529625
0.518087
0.506688
0.495426
0.484295
0.473289
0.462401
0.451621
0.440937
0.430337
0.419811
0.409346
0.398932
0.388559
0.378217
0.367901
0.357604
0.347321
0.337049
0.326784
0.316524
0.306269
0.296015
0.285764
0.275514
0.265264
0.255015
0.244767
0.234518
0.22427
0.214022
0.203774
0.193526
0.183278
0.17303
0.162782
0.152534
0.142286
0.132038
0.12179
0.111542
0.101294
0.0910459
0.0807979
0.0705499
0.0603019
0.0500539
0.0398059
0.029558
0.01931
0.00906199
-0.00118599
-0.011434
-0.0216819
-0.0319299
-0.0421779
-0.0524259
-0.0626738
-0.0729218
-0.0831698
-0.0934177
-0.103666
-0.113914
-0.124162
-0.13441
-0.144657
-0.154905
-0.165151
-0.175386
0.175386
1.15697
1.15697
1.11108
1.06906
1.02971
0.993231
0.960126
0.930486
0.904006
0.880185
0.858491
0.838458
0.819713
0.801977
0.785043
0.768763
0.75303
0.737762
0.722901
0.708399
0.694219
0.680329
0.666704
0.653321
0.640162
0.627208
0.614445
0.601859
0.58944
0.57718
0.56507
0.553108
0.541289
0.529612
0.518076
0.506679
0.495418
0.484289
0.473285
0.462398
0.451619
0.440935
0.430337
0.419811
0.409346
0.398932
0.388559
0.378218
0.367901
0.357604
0.347321
0.337049
0.326784
0.316524
0.306269
0.296015
0.285764
0.275514
0.265264
0.255015
0.244767
0.234518
0.22427
0.214022
0.203774
0.193526
0.183278
0.17303
0.162782
0.152534
0.142286
0.132038
0.12179
0.111542
0.101294
0.0910459
0.0807979
0.0705499
0.0603019
0.0500539
0.0398059
0.029558
0.01931
0.00906199
-0.00118599
-0.011434
-0.0216819
-0.0319299
-0.0421779
-0.0524259
-0.0626738
-0.0729218
-0.0831698
-0.0934177
-0.103666
-0.113914
-0.124162
-0.13441
-0.144657
-0.154905
-0.165155
-0.175389
0.175389
1.17791
1.17791
1.11307
1.06883
1.02901
0.992435
0.959383
0.929855
0.903499
0.87979
0.858188
0.838225
0.819531
0.801832
0.784925
0.768666
0.752947
0.737691
0.722839
0.708344
0.69417
0.680285
0.666664
0.653285
0.640128
0.627177
0.614416
0.601833
0.589417
0.577158
0.565051
0.55309
0.541274
0.529599
0.518066
0.506671
0.495412
0.484284
0.473282
0.462396
0.451617
0.440935
0.430337
0.419811
0.409347
0.398933
0.388559
0.378218
0.367902
0.357605
0.347322
0.337049
0.326784
0.316525
0.306269
0.296016
0.285764
0.275514
0.265264
0.255015
0.244767
0.234518
0.22427
0.214022
0.203774
0.193526
0.183278
0.17303
0.162782
0.152534
0.142286
0.132038
0.12179
0.111542
0.101294
0.0910459
0.0807979
0.0705499
0.0603019
0.0500539
0.0398059
0.029558
0.01931
0.00906199
-0.00118599
-0.011434
-0.0216819
-0.0319299
-0.0421779
-0.0524259
-0.0626738
-0.0729218
-0.0831698
-0.0934177
-0.103666
-0.113914
-0.124162
-0.13441
-0.144657
-0.154905
-0.165154
-0.17539
0.17539
1.17791
1.17791
1.11307
1.06883
1.02901
0.992435
0.959383
0.929855
0.903499
0.87979
0.858188
0.838225
0.819531
0.801832
0.784925
0.768666
0.752947
0.737691
0.722839
0.708344
0.69417
0.680285
0.666664
0.653285
0.640128
0.627177
0.614416
0.601833
0.589417
0.577158
0.565051
0.55309
0.541274
0.529599
0.518066
0.506671
0.495412
0.484284
0.473282
0.462396
0.451617
0.440935
0.430337
0.419811
0.409347
0.398933
0.388559
0.378218
0.367902
0.357605
0.347322
0.337049
0.326784
0.316525
0.306269
0.296016
0.285764
0.275514
0.265264
0.255015
0.244767
0.234518
0.22427
0.214022
0.203774
0.193526
0.183278
0.17303
0.162782
0.152534
0.142286
0.132038
0.12179
0.111542
0.101294
0.0910459
0.0807979
0.0705499
0.0603019
0.0500539
0.0398059
0.029558
0.01931
0.00906199
-0.00118599
-0.011434
-0.0216819
-0.0319299
-0.0421779
-0.0524259
-0.0626738
-0.0729218
-0.0831698
-0.0934177
-0.103666
-0.113914
-0.124162
-0.13441
-0.144657
-0.154905
-0.165154
-0.17539
0.17539
SCALARS phi double
LOOKUP_TABLE phi
1
1
1
1
0.999998
0.999994
0.999982
0.999956
0.999913
0.999833
0.999677
0.999492
0.999418
0.99938
0.998642
0.995669
0.988529
0.975571
0.955932
0.929665
0.897518
0.860603
0.82011
0.777136
0.732627
0.687366
0.641995
0.597032
0.552889
0.509883
0.468255
0.428177
0.389769
0.353111
0.318257
0.285243
0.254096
0.224841
0.197504
0.172111
0.148685
0.127247
0.107806
0.090354
0.0748636
0.0612824
0.0495318
0.0395073
0.0310814
0.0241082
0.0184289
0.0138791
0.010295
0.00751972
0.00540757
0.00382797
0.00266721
0.0018291
0.00123452
0.000820032
0.000536102
0.000344956
0.000218477
0.000136209
8.3599e-05
5.05168e-05
3.00578e-05
1.76123e-05
1.01641e-05
5.7779e-06
3.23578e-06
1.78548e-06
9.70863e-07
5.20298e-07
2.74852e-07
1.4314e-07
7.3502e-08
3.72202e-08
1.85892e-08
9.15816e-09
4.45124e-09
2.13472e-09
1.0103e-09
4.71916e-10
2.17593e-10
9.90491e-11
4.45181e-11
1.97588e-11
8.66118e-12
3.75009e-12
1.60401e-12
6.77842e-13
2.83045e-13
1.16799e-13
4.76357e-14
1.92035e-14
7.65308e-15
3.01539e-15
1.1748e-15
4.52553e-16
1.72939e-16
6.09311e-17
6.09311e-17
1
1
1
1
0.999998
0.999994
0.999982
0.999956
0.999913
0.999833
0.999677
0.999492
0.999418
0.99938
0.998642
0.995669
0.988529
0.975571
0.955932
0.929665
0.897518
0.860603
0.82011
0.777136
0.732627
0.687366
0.641995
0.597032
0.552889
0.509883
0.468255
0.428177
0.389769
0.353111
0.318257
0.285243
0.254096
0.224841
0.197504
0.172111
0.148685
0.127247
0.107806
0.090354
0.0748636
0.0612824
0.0495318
0.0395073
0.0310814
0.0241082
0.0184289
0.0138791
0.010295
0.00751972
0.00540757
0.00382797
0.00266721
0.0018291
0.00123452
0.000820032
0.000536102
0.000344956
0.000218477
0.000136209
8.3599e-05
5.05168e-05
3.00578e-05
1.76123e-05
1.01641e-05
5.7779e-06
3.23578e-06
1.78548e-06
9.70863e-07
5.20298e-07
2.74852e-07
1.4314e-07
7.3502e-08
3.72202e-08
1.85892e-08
9.15816e-09
4.45124e-09
2.13472e-09
1.0103e-09
4.71916e-10
2.17593e-10
9.90491e-11
4.45181e-11
1.97588e-11
8.66118e-12
3.75009e-12
1.60401e-12
6.77842e-13
2.83045e-13
1.16799e-13
4.76357e-14
1.92035e-14
7.65308e-15
3.01539e-15
1.1748e-15
4.52553e-16
1.72939e-16
6.09311e-17
6.09311e-17
1
1
1
0.999996
0.999983
0.999953
0.999898
0.999803
0.999658
0.999448
0.999154
0.998765
0.998301
0.997791
0.997161
0.996096
0.993987
0.990012
0.983315
0.973186
0.959183
0.94116
0.919235
0.89372
0.865052
0.833738
0.800306
0.765278
0.729144
0.692349
0.65528
0.618257
0.581532
0.545288
0.509643
0.474663
0.440371
0.406763
0.373832
0.34158
0.310037
0.279274
0.249409
0.220605
0.193065
0.167014
0.142681
0.120274
0.0999643
0.0818634
0.0660171
0.0524002
0.0409208
0.0314304
0.0237381
0.0176259
0.012865
0.00922993
0.00650878
0.00451149
0.00307382
0.00205877
0.00135564
0.000877696
0.000558803
0.000349905
0.000215518
0.000130596
7.78684e-05
4.5693e-05
2.63919e-05
1.50073e-05
8.40269e-06
4.63337e-06
2.5166e-06
1.34663e-06
7.10021e-07
3.68944e-07
1.88969e-07
9.54183e-08
4.7507e-08
2.3326e-08
1.12966e-08
5.39697e-09
2.54398e-09
1.18333e-09
5.43235e-10
2.46166e-10
1.10125e-10
4.86434e-11
2.12179e-11
9.14067e-12
3.88965e-12
1.63514e-12
6.79155e-13
2.78743e-13
1.13062e-13
4.53265e-14
1.7963e-14
7.03658e-15
2.73464e-15
9.76015e-16
9.76015e-16
0.999997
1
0.99998
0.999896
0.999724
0.999434
0.998999
0.998397
0.997612
0.996636
0.995464
0.994097
0.992543
0.99082
0.988942
0.986892
0.98459
0.981868
0.978475
0.974108
0.968444
0.961187
0.952096
0.940998
0.927801
0.912489
0.895112
0.875781
0.854651
0.831912
0.807775
0.782458
0.756169
0.729097
0.701393
0.673158
0.644437
0.615209
0.585397
0.554876
0.523496
0.491118
0.457651
0.423092
0.387555
0.351296
0.314712
0.278317
0.24271
0.208516
0.176333
0.146681
0.119952
0.0963921
0.0760899
0.0589869
0.0449012
0.0335577
0.0246233
0.0177389
0.0125477
0.00871558
0.00594538
0.00398362
0.00262217
0.00169594
0.00107796
0.000673485
0.000413687
0.000249877
0.000148449
8.67603e-05
4.98935e-05
2.82383e-05
1.57323e-05
8.6297e-06
4.6616e-06
2.48025e-06
1.30006e-06