# vtk DataFile Version 3.0
FlowField
ASCII
DATASET STRUCTURED_GRID
DIMENSIONS 103 13 1 
POINTS 1339 double
0 0 0
0.3 0 0
0.6 0 0
0.9 0 0
1.2 0 0
1.5 0 0
1.8 0 0
2.1 0 0
2.4 0 0
2.7 0 0
3 0 0
3.3 0 0
3.6 0 0
3.9 0 0
4.2 0 0
4.5 0 0
4.8 0 0
5.1 0 0
5.4 0 0
5.7 0 0
6 0 0
6.3 0 0
6.6 0 0
6.9 0 0
7.2 0 0
7.5 0 0
7.8 0 0
8.1 0 0
8.4 0 0
8.7 0 0
9 0 0
9.3 0 0
9.6 0 0
9.9 0 0
10.2 0 0
10.5 0 0
10.8 0 0
11.1 0 0
11.4 0 0
11.7 0 0
12 0 0
12.3 0 0
12.6 0 0
12.9 0 0
13.2 0 0
13.5 0 0
13.8 0 0
14.1 0 0
14.4 0 0
14.7 0 0
15 0 0
15.3 0 0
15.6 0 0
15.9 0 0
16.2 0 0
16.5 0 0
16.8 0 0
17.1 0 0
17.4 0 0
17.7 0 0
18 0 0
18.3 0 0
18.6 0 0
18.9 0 0
19.2 0 0
19.5 0 0
19.8 0 0
20.1 0 0
20.4 0 0
20.7 0 0
21 0 0
21.3 0 0
21.6 0 0
21.9 0 0
22.2 0 0
22.5 0 0
22.8 0 0
23.1 0 0
23.4 0 0
23.7 0 0
24 0 0
24.3 0 0
24.6 0 0
24.9 0 0
25.2 0 0
25.5 0 0
25.8 0 0
26.1 0 0
26.4 0 0
26.7 0 0
27 0 0
27.3 0 0
27.6 0 0
27.9 0 0
28.2 0 0
28.5 0 0
28.8 0 0
29.1 0 0
29.4 0 0
29.7 0 0
30 0 0
30.3 0 0
30.6 0 0
0 0.1 0
0.3 0.1 0
0.6 0.1 0
0.9 0.1 0
1.2 0.1 0
1.5 0.1 0
1.8 0.1 0
2.1 0.1 0
2.4 0.1 0
2.7 0.1 0
3 0.1 0
3.3 0.1 0
3.6 0.1 0
3.9 0.1 0
4.2 0.1 0
4.5 0.1 0
4.8 0.1 0
5.1 0.1 0
5.4 0.1 0
5.7 0.1 0
6 0.1 0
6.3 0.1 0
6.6 0.1 0
6.9 0.1 0
7.2 0.1 0
7.5 0.1 0
7.8 0.1 0
8.1 0.1 0
8.4 0.1 0
8.7 0.1 0
9 0.1 0
9.3 0.1 0
9.6 0.1 0
9.9 0.1 0
10.2 0.1 0
10.5 0.1 0
10.8 0.1 0
11.1 0.1 0
11.4 0.1 0
11.7 0.1 0
12 0.1 0
12.3 0.1 0
12.6 0.1 0
12.9 0.1 0
13.2 0.1 0
13.5 0.1 0
13.8 0.1 0
14.1 0.1 0
14.4 0.1 0
14.7 0.1 0
15 0.1 0
15.3 0.1 0
15.6 0.1 0
15.9 0.1 0
16.2 0.1 0
16.5 0.1 0
16.8 0.1 0
17.1 0.1 0
17.4 0.1 0
17.7 0.1 0
18 0.1 0
18.3 0.1 0
18.6 0.1 0
18.9 0.1 0
19.2 0.1 0
19.5 0.1 0
19.8 0.1 0
20.1 0.1 0
20.4 0.1 0
20.7 0.1 0
21 0.1 0
21.3 0.1 0
21.6 0.1 0
21.9 0.1 0
22.2 0.1 0
22.5 0.1 0
22.8 0.1 0
23.1 0.1 0
23.4 0.1 0
23.7 0.1 0
24 0.1 0
24.3 0.1 0
24.6 0.1 0
24.9 0.1 0
25.2 0.1 0
25.5 0.1 0
25.8 0.1 0
26.1 0.1 0
26.4 0.1 0
26.7 0.1 0
27 0.1 0
27.3 0.1 0
27.6 0.1 0
27.9 0.1 0
28.2 0.1 0
28.5 0.1 0
28.8 0.1 0
29.1 0.1 0
29.4 0.1 0
29.7 0.1 0
30 0.1 0
30.3 0.1 0
30.6 0.1 0
0 0.2 0
0.3 0.2 0
0.6 0.2 0
0.9 0.2 0
1.2 0.2 0
1.5 0.2 0
1.8 0.2 0
2.1 0.2 0
2.4 0.2 0
2.7 0.2 0
3 0.2 0
3.3 0.2 0
3.6 0.2 0
3.9 0.2 0
4.2 0.2 0
4.5 0.2 0
4.8 0.2 0
5.1 0.2 0
5.4 0.2 0
5.7 0.2 0
6 0.2 0
6.3 0.2 0
6.6 0.2 0
6.9 0.2 0
7.2 0.2 0
7.5 0.2 0
7.8 0.2 0
8.1 0.2 0
8.4 0.2 0
8.7 0.2 0
9 0.2 0
9.3 0.2 0
9.6 0.2 0
9.9 0.2 0
10.2 0.2 0
10.5 0.2 0
10.8 0.2 0
11.1 0.2 0
11.4 0.2 0
11.7 0.2 0
12 0.2 0
12.3 0.2 0
12.6 0.2 0
12.9 0.2 0
13.2 0.2 0
13.5 0.2 0
13.8 0.2 0
14.1 0.2 0
14.4 0.2 0
14.7 0.2 0
15 0.2 0
15.3 0.2 0
15.6 0.2 0
15.9 0.2 0
16.2 0.2 0
16.5 0.2 0
16.8 0.2 0
17.1 0.2 0
17.4 0.2 0
17.7 0.2 0
18 0.2 0
18.3 0.2 0
18.6 0.2 0
18.9 0.2 0
19.2 0.2 0
19.5 0.2 0
19.8 0.2 0
20.1 0.2 0
20.4 0.2 0
20.7 0.2 0
21 0.2 0
21.3 0.2 0
21.6 0.2 0
21.9 0.2 0
22.2 0.2 0
22.5 0.2 0
22.8 0.2 0
23.1 0.2 0
23.4 0.2 0
23.7 0.2 0
24 0.2 0
24.3 0.2 0
24.6 0.2 0
24.9 0.2 0
25.2 0.2 0
25.5 0.2 0
25.8 0.2 0
26.1 0.2 0
26.4 0.2 0
26.7 0.2 0
27 0.2 0
27.3 0.2 0
27.6 0.2 0
27.9 0.2 0
28.2 0.2 0
28.5 0.2 0
28.8 0.2 0
29.1 0.2 0
29.4 0.2 0
29.7 0.2 0
30 0.2 0
30.3 0.2 0
30.6 0.2 0
0 0.3 0
0.3 0.3 0
0.6 0.3 0
0.9 0.3 0
1.2 0.3 0
1.5 0.3 0
1.8 0.3 0
2.1 0.3 0
2.4 0.3 0
2.7 0.3 0
3 0.3 0
3.3 0.3 0
3.6 0.3 0
3.9 0.3 0
4.2 0.3 0
4.5 0.3 0
4.8 0.3 0
5.1 0.3 0
5.4 0.3 0
5.7 0.3 0
6 0.3 0
6.3 0.3 0
6.6 0.3 0
6.9 0.3 0
7.2 0.3 0
7.5 0.3 0
7.8 0.3 0
8.1 0.3 0
8.4 0.3 0
8.7 0.3 0
9 0.3 0
9.3 0.3 0
9.6 0.3 0
9.9 0.3 0
10.2 0.3 0
10.5 0.3 0
10.8 0.3 0
11.1 0.3 0
11.4 0.3 0
11.7 0.3 0
12 0.3 0
12.3 0.3 0
12.6 0.3 0
12.9 0.3 0
13.2 0.3 0
13.5 0.3 0
13.8 0.3 0
14.1 0.3 0
14.4 0.3 0
14.7 0.3 0
15 0.3 0
15.3 0.3 0
15.6 0.3 0
15.9 0.3 0
16.2 0.3 0
16.5 0.3 0
16.8 0.3 0
17.1 0.3 0
17.4 0.3 0
17.7 0.3 0
18 0.3 0
18.3 0.3 0
18.6 0.3 0
18.9 0.3 0
19.2 0.3 0
19.5 0.3 0
19.8 0.3 0
20.1 0.3 0
20.4 0.3 0
20.7 0.3 0
21 0.3 0
21.3 0.3 0
21.6 0.3 0
21.9 0.3 0
22.2 0.3 0
22.5 0.3 0
22.8 0.3 0
23.1 0.3 0
23.4 0.3 0
23.7 0.3 0
24 0.3 0
24.3 0.3 0
24.6 0.3 0
24.9 0.3 0
25.2 0.3 0
25.5 0.3 0
25.8 0.3 0
26.1 0.3 0
26.4 0.3 0
26.7 0.3 0
27 0.3 0
27.3 0.3 0
27.6 0.3 0
27.9 0.3 0
28.2 0.3 0
28.5 0.3 0
28.8 0.3 0
29.1 0.3 0
29.4 0.3 0
29.7 0.3 0
30 0.3 0
30.3 0.3 0
30.6 0.3 0
0 0.4 0
0.3 0.4 0
0.6 0.4 0
0.9 0.4 0
1.2 0.4 0
1.5 0.4 0
1.8 0.4 0
2.1 0.4 0
2.4 0.4 0
2.7 0.4 0
3 0.4 0
3.3 0.4 0
3.6 0.4 0
3.9 0.4 0
4.2 0.4 0
4.5 0.4 0
4.8 0.4 0
5.1 0.4 0
5.4 0.4 0
5.7 0.4 0
6 0.4 0
6.3 0.4 0
6.6 0.4 0
6.9 0.4 0
7.2 0.4 0
7.5 0.4 0
7.8 0.4 0
8.1 0.4 0
8.4 0.4 0
8.7 0.4 0
9 0.4 0
9.3 0.4 0
9.6 0.4 0
9.9 0.4 0
10.2 0.4 0
10.5 0.4 0
10.8 0.4 0
11.1 0.4 0
11.4 0.4 0
11.7 0.4 0
12 0.4 0
12.3 0.4 0
12.6 0.4 0
12.9 0.4 0
13.2 0.4 0
13.5 0.4 0
13.8 0.4 0
14.1 0.4 0
14.4 0.4 0
14.7 0.4 0
15 0.4 0
15.3 0.4 0
15.6 0.4 0
15.9 0.4 0
16.2 0.4 0
16.5 0.4 0
16.8 0.4 0
17.1 0.4 0
17.4 0.4 0
17.7 0.4 0
18 0.4 0
18.3 0.4 0
18.6 0.4 0
18.9 0.4 0
19.2 0.4 0
19.5 0.4 0
19.8 0.4 0
20.1 0.4 0
20.4 0.4 0
20.7 0.4 0
21 0.4 0
21.3 0.4 0
21.6 0.4 0
21.9 0.4 0
22.2 0.4 0
22.5 0.4 0
22.8 0.4 0
23.1 0.4 0
23.4 0.4 0
23.7 0.4 0
24 0.4 0
24.3 0.4 0
24.6 0.4 0
24.9 0.4 0
25.2 0.4 0
25.5 0.4 0
25.8 0.4 0
26.1 0.4 0
26.4 0.4 0
26.7 0.4 0
27 0.4 0
27.3 0.4 0
27.6 0.4 0
27.9 0.4 0
28.2 0.4 0
28.5 0.4 0
28.8 0.4 0
29.1 0.4 0
29.4 0.4 0
29.7 0.4 0
30 0.4 0
30.3 0.4 0
30.6 0.4 0
0 0.5 0
0.3 0.5 0
0.6 0.5 0
0.9 0.5 0
1.2 0.5 0
1.5 0.5 0
1.8 0.5 0
2.1 0.5 0
2.4 0.5 0
2.7 0.5 0
3 0.5 0
3.3 0.5 0
3.6 0.5 0
3.9 0.5 0
4.2 0.5 0
4.5 0.5 0
4.8 0.5 0
5.1 0.5 0
5.4 0.5 0
5.7 0.5 0
6 0.5 0
6.3 0.5 0
6.6 0.5 0
6.9 0.5 0
7.2 0.5 0
7.5 0.5 0
7.8 0.5 0
8.1 0.5 0
8.4 0.5 0
8.7 0.5 0
9 0.5 0
9.3 0.5 0
9.6 0.5 0
9.9 0.5 0
10.2 0.5 0
10.5 0.5 0
10.8 0.5 0
11.1 0.5 0
11.4 0.5 0
11.7 0.5 0
12 0.5 0
12.3 0.5 0
12.6 0.5 0
12.9 0.5 0
13.2 0.5 0
13.5 0.5 0
13.8 0.5 0
14.1 0.5 0
14.4 0.5 0
14.7 0.5 0
15 0.5 0
15.3 0.5 0
15.6 0.5 0
15.9 0.5 0
16.2 0.5 0
16.5 0.5 0
16.8 0.5 0
17.1 0.5 0
17.4 0.5 0
17.7 0.5 0
18 0.5 0
18.3 0.5 0
18.6 0.5 0
18.9 0.5 0
19.2 0.5 0
19.5 0.5 0
19.8 0.5 0
20.1 0.5 0
20.4 0.5 0
20.7 0.5 0
21 0.5 0
21.3 0.5 0
21.6 0.5 0
21.9 0.5 0
22.2 0.5 0
22.5 0.5 0
22.8 0.5 0
23.1 0.5 0
23.4 0.5 0
23.7 0.5 0
24 0.5 0
24.3 0.5 0
24.6 0.5 0
24.9 0.5 0
25.2 0.5 0
25.5 0.5 0
25.8 0.5 0
26.1 0.5 0
26.4 0.5 0
26.7 0.5 0
27 0.5 0
27.3 0.5 0
27.6 0.5 0
27.9 0.5 0
28.2 0.5 0
28.5 0.5 0
28.8 0.5 0
29.1 0.5 0
29.4 0.5 0
29.7 0.5 0
30 0.5 0
30.3 0.5 0
30.6 0.5 0
0 0.6 0
0.3 0.6 0
0.6 0.6 0
0.9 0.6 0
1.2 0.6 0
1.5 0.6 0
1.8 0.6 0
2.1 0.6 0
2.4 0.6 0
2.7 0.6 0
3 0.6 0
3.3 0.6 0
3.6 0.6 0
3.9 0.6 0
4.2 0.6 0
4.5 0.6 0
4.8 0.6 0
5.1 0.6 0
5.4 0.6 0
5.7 0.6 0
6 0.6 0
6.3 0.6 0
6.6 0.6 0
6.9 0.6 0
7.2 0.6 0
7.5 0.6 0
7.8 0.6 0
8.1 0.6 0
8.4 0.6 0
8.7 0.6 0
9 0.6 0
9.3 0.6 0
9.6 0.6 0
9.9 0.6 0
10.2 0.6 0
10.5 0.6 0
10.8 0.6 0
11.1 0.6 0
11.4 0.6 0
11.7 0.6 0
12 0.6 0
12.3 0.6 0
12.6 0.6 0
12.9 0.6 0
13.2 0.6 0
13.5 0.6 0
13.8 0.6 0
14.1 0.6 0
14.4 0.6 0
14.7 0.6 0
15 0.6 0
15.3 0.6 0
15.6 0.6 0
15.9 0.6 0
16.2 0.6 0
16.5 0.6 0
16.8 0.6 0
17.1 0.6 0
17.4 0.6 0
17.7 0.6 0
18 0.6 0
18.3 0.6 0
18.6 0.6 0
18.9 0.6 0
19.2 0.6 0
19.5 0.6 0
19.8 0.6 0
20.1 0.6 0
20.4 0.6 0
20.7 0.6 0
21 0.6 0
21.3 0.6 0
21.6 0.6 0
21.9 0.6 0
22.2 0.6 0
22.5 0.6 0
22.8 0.6 0
23.1 0.6 0
23.4 0.6 0
23.7 0.6 0
24 0.6 0
24.3 0.6 0
24.6 0.6 0
24.9 0.6 0
25.2 0.6 0
25.5 0.6 0
25.8 0.6 0
26.1 0.6 0
26.4 0.6 0
26.7 0.6 0
27 0.6 0
27.3 0.6 0
27.6 0.6 0
27.9 0.6 0
28.2 0.6 0
28.5 0.6 0
28.8 0.6 0
29.1 0.6 0
29.4 0.6 0
29.7 0.6 0
30 0.6 0
30.3 0.6 0
30.6 0.6 0
0 0.7 0
0.3 0.7 0
0.6 0.7 0
0.9 0.7 0
1.2 0.7 0
1.5 0.7 0
1.8 0.7 0
2.1 0.7 0
2.4 0.7 0
2.7 0.7 0
3 0.7 0
3.3 0.7 0
3.6 0.7 0
3.9 0.7 0
4.2 0.7 0
4.5 0.7 0
4.8 0.7 0
5.1 0.7 0
5.4 0.7 0
5.7 0.7 0
6 0.7 0
6.3 0.7 0
6.6 0.7 0
6.9 0.7 0
7.2 0.7 0
7.5 0.7 0
7.8 0.7 0
8.1 0.7 0
8.4 0.7 0
8.7 0.7 0
9 0.7 0
9.3 0.7 0
9.6 0.7 0
9.9 0.7 0
10.2 0.7 0
10.5 0.7 0
10.8 0.7 0
11.1 0.7 0
11.4 0.7 0
11.7 0.7 0
12 0.7 0
12.3 0.7 0
12.6 0.7 0
12.9 0.7 0
13.2 0.7 0
13.5 0.7 0
13.8 0.7 0
14.1 0.7 0
14.4 0.7 0
14.7 0.7 0
15 0.7 0
15.3 0.7 0
15.6 0.7 0
15.9 0.7 0
16.2 0.7 0
16.5 0.7 0
16.8 0.7 0
17.1 0.7 0
17.4 0.7 0
17.7 0.7 0
18 0.7 0
18.3 0.7 0
18.6 0.7 0
18.9 0.7 0
19.2 0.7 0
19.5 0.7 0
19.8 0.7 0
20.1 0.7 0
20.4 0.7 0
20.7 0.7 0
21 0.7 0
21.3 0.7 0
21.6 0.7 0
21.9 0.7 0
22.2 0.7 0
22.5 0.7 0
22.8 0.7 0
23.1 0.7 0
23.4 0.7 0
23.7 0.7 0
24 0.7 0
24.3 0.7 0
24.6 0.7 0
24.9 0.7 0
25.2 0.7 0
25.5 0.7 0
25.8 0.7 0
26.1 0.7 0
26.4 0.7 0
26.7 0.7 0
27 0.7 0
27.3 0.7 0
27.6 0.7 0
27.9 0.7 0
28.2 0.7 0
28.5 0.7 0
28.8 0.7 0
29.1 0.7 0
29.4 0.7 0
29.7 0.7 0
30 0.7 0
30.3 0.7 0
30.6 0.7 0
0 0.8 0
0.3 0.8 0
0.6 0.8 0
0.9 0.8 0
1.2 0.8 0
1.5 0.8 0
1.8 0.8 0
2.1 0.8 0
2.4 0.8 0
2.7 0.8 0
3 0.8 0
3.3 0.8 0
3.6 0.8 0
3.9 0.8 0
4.2 0.8 0
4.5 0.8 0
4.8 0.8 0
5.1 0.8 0
5.4 0.8 0
5.7 0.8 0
6 0.8 0
6.3 0.8 0
6.6 0.8 0
6.9 0.8 0
7.2 0.8 0
7.5 0.8 0
7.8 0.8 0
8.1 0.8 0
8.4 0.8 0
8.7 0.8 0
9 0.8 0
9.3 0.8 0
9.6 0.8 0
9.9 0.8 0
10.2 0.8 0
10.5 0.8 0
10.8 0.8 0
11.1 0.8 0
11.4 0.8 0
11.7 0.8 0
12 0.8 0
12.3 0.8 0
12.6 0.8 0
12.9 0.8 0
13.2 0.8 0
13.5 0.8 0
13.8 0.8 0
14.1 0.8 0
14.4 0.8 0
14.7 0.8 0
15 0.8 0
15.3 0.8 0
15.6 0.8 0
15.9 0.8 0
16.2 0.8 0
16.5 0.8 0
16.8 0.8 0
17.1 0.8 0
17.4 0.8 0
17.7 0.8 0
18 0.8 0
18.3 0.8 0
18.6 0.8 0
18.9 0.8 0
19.2 0.8 0
19.5 0.8 0
19.8 0.8 0
20.1 0.8 0
20.4 0.8 0
20.7 0.8 0
21 0.8 0
21.3 0.8 0
21.6 0.8 0
21.9 0.8 0
22.2 0.8 0
22.5 0.8 0
22.8 0.8 0
23.1 0.8 0
23.4 0.8 0
23.7 0.8 0
24 0.8 0
24.3 0.8 0
24.6 0.8 0
24.9 0.8 0
25.2 0.8 0
25.5 0.8 0
25.8 0.8 0
26.1 0.8 0
26.4 0.8 0
26.7 0.8 0
27 0.8 0
27.3 0.8 0
27.6 0.8 0
27.9 0.8 0
28.2 0.8 0
28.5 0.8 0
28.8 0.8 0
29.1 0.8 0
29.4 0.8 0
29.7 0.8 0
30 0.8 0
30.3 0.8 0
30.6 0.8 0
0 0.9 0
0.3 0.9 0
0.6 0.9 0
0.9 0.9 0
1.2 0.9 0
1.5 0.9 0
1.8 0.9 0
2.1 0.9 0
2.4 0.9 0
2.7 0.9 0
3 0.9 0
3.3 0.9 0
3.6 0.9 0
3.9 0.9 0
4.2 0.9 0
4.5 0.9 0
4.8 0.9 0
5.1 0.9 0
5.4 0.9 0
5.7 0.9 0
6 0.9 0
6.3 0.9 0
6.6 0.9 0
6.9 0.9 0
7.2 0.9 0
7.5 0.9 0
7.8 0.9 0
8.1 0.9 0
8.4 0.9 0
8.7 0.9 0
9 0.9 0
9.3 0.9 0
9.6 0.9 0
9.9 0.9 0
10.2 0.9 0
10.5 0.9 0
10.8 0.9 0
11.1 0.9 0
11.4 0.9 0
11.7 0.9 0
12 0.9 0
12.3 0.9 0
12.6 0.9 0
12.9 0.9 0
13.2 0.9 0
13.5 0.9 0
13.8 0.9 0
14.1 0.9 0
14.4 0.9 0
14.7 0.9 0
15 0.9 0
15.3 0.9 0
15.6 0.9 0
15.9 0.9 0
16.2 0.9 0
16.5 0.9 0
16.8 0.9 0
17.1 0.9 0
17.4 0.9 0
17.7 0.9 0
18 0.9 0
18.3 0.9 0
18.6 0.9 0
18.9 0.9 0
19.2 0.9 0
19.5 0.9 0
19.8 0.9 0
20.1 0.9 0
20.4 0.9 0
20.7 0.9 0
21 0.9 0
21.3 0.9 0
21.6 0.9 0
21.9 0.9 0
22.2 0.9 0
22.5 0.9 0
22.8 0.9 0
23.1 0.9 0
23.4 0.9 0
23.7 0.9 0
24 0.9 0
24.3 0.9 0
24.6 0.9 0
24.9 0.9 0
25.2 0.9 0
25.5 0.9 0
25.8 0.9 0
26.1 0.9 0
26.4 0.9 0
26.7 0.9 0
27 0.9 0
27.3 0.9 0
27.6 0.9 0
27.9 0.9 0
28.2 0.9 0
28.5 0.9 0
28.8 0.9 0
29.1 0.9 0
29.4 0.9 0
29.7 0.9 0
30 0.9 0
30.3 0.9 0
30.6 0.9 0
0 1 0
0.3 1 0
0.6 1 0
0.9 1 0
1.2 1 0
1.5 1 0
1.8 1 0
2.1 1 0
2.4 1 0
2.7 1 0
3 1 0
3.3 1 0
3.6 1 0
3.9 1 0
4.2 1 0
4.5 1 0
4.8 1 0
5.1 1 0
5.4 1 0
5.7 1 0
6 1 0
6.3 1 0
6.6 1 0
6.9 1 0
7.2 1 0
7.5 1 0
7.8 1 0
8.1 1 0
8.4 1 0
8.7 1 0
9 1 0
9.3 1 0
9.6 1 0
9.9 1 0
10.2 1 0
10.5 1 0
10.8 1 0
11.1 1 0
11.4 1 0
11.7 1 0
12 1 0
12.3 1 0
12.6 1 0
12.9 1 0
13.2 1 0
13.5 1 0
13.8 1 0
14.1 1 0
14.4 1 0
14.7 1 0
15 1 0
15.3 1 0
15.6 1 0
15.9 1 0
16.2 1 0
16.5 1 0
16.8 1 0
17.1 1 0
17.4 1 0
17.7 1 0
18 1 0
18.3 1 0
18.6 1 0
18.9 1 0
19.2 1 0
19.5 1 0
19.8 1 0
20.1 1 0
20.4 1 0
20.7 1 0
21 1 0
21.3 1 0
21.6 1 0
21.9 1 0
22.2 1 0
22.5 1 0
22.8 1 0
23.1 1 0
23.4 1 0
23.7 1 0
24 1 0
24.3 1 0
24.6 1 0
24.9 1 0
25.2 1 0
25.5 1 0
25.8 1 0
26.1 1 0
26.4 1 0
26.7 1 0
27 1 0
27.3 1 0
27.6 1 0
27.9 1 0
28.2 1 0
28.5 1 0
28.8 1 0
29.1 1 0
29.4 1 0
29.7 1 0
30 1 0
30.3 1 0
30.6 1 0
0 1.1 0
0.3 1.1 0
0.6 1.1 0
0.9 1.1 0
1.2 1.1 0
1.5 1.1 0
1.8 1.1 0
2.1 1.1 0
2.4 1.1 0
2.7 1.1 0
3 1.1 0
3.3 1.1 0
3.6 1.1 0
3.9 1.1 0
4.2 1.1 0
4.5 1.1 0
4.8 1.1 0
5.1 1.1 0
5.4 1.1 0
5.7 1.1 0
6 1.1 0
6.3 1.1 0
6.6 1.1 0
6.9 1.1 0
7.2 1.1 0
7.5 1.1 0
7.8 1.1 0
8.1 1.1 0
8.4 1.1 0
8.7 1.1 0
9 1.1 0
9.3 1.1 0
9.6 1.1 0
9.9 1.1 0
10.2 1.1 0
10.5 1.1 0
10.8 1.1 0
11.1 1.1 0
11.4 1.1 0
11.7 1.1 0
12 1.1 0
12.3 1.1 0
12.6 1.1 0
12.9 1.1 0
13.2 1.1 0
13.5 1.1 0
13.8 1.1 0
14.1 1.1 0
14.4 1.1 0
14.7 1.1 0
15 1.1 0
15.3 1.1 0
15.6 1.1 0
15.9 1.1 0
16.2 1.1 0
16.5 1.1 0
16.8 1.1 0
17.1 1.1 0
17.4 1.1 0
17.7 1.1 0
18 1.1 0
18.3 1.1 0
18.6 1.1 0
18.9 1.1 0
19.2 1.1 0
19.5 1.1 0
19.8 1.1 0
20.1 1.1 0
20.4 1.1 0
20.7 1.1 0
21 1.1 0
21.3 1.1 0
21.6 1.1 0
21.9 1.1 0
22.2 1.1 0
22.5 1.1 0
22.8 1.1 0
23.1 1.1 0
23.4 1.1 0
23.7 1.1 0
24 1.1 0
24.3 1.1 0
24.6 1.1 0
24.9 1.1 0
25.2 1.1 0
25.5 1.1 0
25.8 1.1 0
26.1 1.1 0
26.4 1.1 0
26.7 1.1 0
27 1.1 0
27.3 1.1 0
27.6 1.1 0
27.9 1.1 0
28.2 1.1 0
28.5 1.1 0
28.8 1.1 0
29.1 1.1 0
29.4 1.1 0
29.7 1.1 0
30 1.1 0
30.3 1.1 0
30.6 1.1 0
0 1.2 0
0.3 1.2 0
0.6 1.2 0
0.9 1.2 0
1.2 1.2 0
1.5 1.2 0
1.8 1.2 0
2.1 1.2 0
2.4 1.2 0
2.7 1.2 0
3 1.2 0
3.3 1.2 0
3.6 1.2 0
3.9 1.2 0
4.2 1.2 0
4.5 1.2 0
4.8 1.2 0
5.1 1.2 0
5.4 1.2 0
5.7 1.2 0
6 1.2 0
6.3 1.2 0
6.6 1.2 0
6.9 1.2 0
7.2 1.2 0
7.5 1.2 0
7.8 1.2 0
8.1 1.2 0
8.4 1.2 0
8.7 1.2 0
9 1.2 0
9.3 1.2 0
9.6 1.2 0
9.9 1.2 0
10.2 1.2 0
10.5 1.2 0
10.8 1.2 0
11.1 1.2 0
11.4 1.2 0
11.7 1.2 0
12 1.2 0
12.3 1.2 0
12.6 1.2 0
12.9 1.2 0
13.2 1.2 0
13.5 1.2 0
13.8 1.2 0
14.1 1.2 0
14.4 1.2 0
14.7 1.2 0
15 1.2 0
15.3 1.2 0
15.6 1.2 0
15.9 1.2 0
16.2 1.2 0
16.5 1.2 0
16.8 1.2 0
17.1 1.2 0
17.4 1.2 0
17.7 1.2 0
18 1.2 0
18.3 1.2 0
18.6 1.2 0
18.9 1.2 0
19.2 1.2 0
19.5 1.2 0
19.8 1.2 0
20.1 1.2 0
20.4 1.2 0
20.7 1.2 0
21 1.2 0
21.3 1.2 0
21.6 1.2 0
21.9 1.2 0
22.2 1.2 0
22.5 1.2 0
22.8 1.2 0
23.1 1.2 0
23.4 1.2 0
23.7 1.2 0
24 1.2 0
24.3 1.2 0
24.6 1.2 0
24.9 1.2 0
25.2 1.2 0
25.5 1.2 0
25.8 1.2 0
26.1 1.2 0
26.4 1.2 0
26.7 1.2 0
27 1.2 0
27.3 1.2 0
27.6 1.2 0
27.9 1.2 0
28.2 1.2 0
28.5 1.2 0
28.8 1.2 0
29.1 1.2 0
29.4 1.2 0
29.7 1.2 0
30 1.2 0
30.3 1.2 0
30.6 1.2 0

POINT_DATA 1339

SCALARS pressure double
LOOKUP_TABLE pressure
1.17135
1.17135
1.1065
1.06227
1.02245
0.985871
0.952817
0.923289
0.896936
0.873227
0.851623
0.831659
0.812968
0.795269
0.778362
0.762102
0.746384
0.731128
0.716275
0.701781
0.687606
0.673722
0.660101
0.646722
0.633567
0.620616
0.607857
0.595275
0.582857
0.570592
0.558472
0.546485
0.534624
0.522881
0.511248
0.499719
0.488288
0.476948
0.465695
0.454523
0.443428
0.432405
0.421451
0.410561
0.399732
0.388961
0.378244
0.367578
0.356961
0.34639
0.335862
0.325375
0.314927
0.304516
0.29414
0.283797
0.273485
0.263202
0.252948
0.24272
0.232517
0.222337
0.21218
0.202044
0.191929
0.181832
0.171754
0.161692
0.151647
0.141617
0.131601
0.121599
0.111611
0.101635
0.0916706
0.0817179
0.0717761
0.0618449
0.0519238
0.0420125
0.0321106
0.0222178
0.0123338
0.00245812
-0.00740944
-0.0172693
-0.0271219
-0.0369674
-0.0468065
-0.0566395
-0.0664667
-0.0762887
-0.0861059
-0.0959188
-0.105728
-0.115533
-0.125335
-0.135135
-0.144932
-0.154727
-0.16452
-0.174312
0.174312
1.17135
1.17135
1.1065
1.06227
1.02245
0.985871
0.952817
0.923289
0.896936
0.873227
0.851623
0.831659
0.812968
0.795269
0.778362
0.762102
0.746384
0.731128
0.716275
0.701781
0.687606
0.673722
0.660101
0.646722
0.633567
0.620616
0.607857
0.595275
0.582857
0.570592
0.558472
0.546485
0.534624
0.522881
0.511248
0.499719
0.488288
0.476948
0.465695
0.454523
0.443428
0.432405
0.421451
0.410561
0.399732
0.388961
0.378244
0.367578
0.356961
0.34639
0.335862
0.325375
0.314927
0.304516
0.29414
0.283797
0.273485
0.263202
0.252948
0.24272
0.232517
0.222337
0.21218
0.202044
0.191929
0.181832
0.171754
0.161692
0.151647
0.141617
0.131601
0.121599
0.111611
0.101635
0.0916706
0.0817179
0.0717761
0.0618449
0.0519238
0.0420125
0.0321106
0.0222178
0.0123338
0.00245812
-0.00740944
-0.0172693
-0.0271219
-0.0369674
-0.0468065
-0.0566395
-0.0664667
-0.0762887
-0.0861059
-0.0959188
-0.105728
-0.115533
-0.125335
-0.135135
-0.144932
-0.154727
-0.16452
-0.174312
0.174312
1.1504
1.1504
1.10451
1.0625
1.02315
0.986667
0.95356
0.923921
0.897443
0.873622
0.851926
0.831893
0.81315
0.795413
0.778479
0.762199
0.746466
0.731199
0.716338
0.701836
0.687656
0.673766
0.660141
0.646759
0.6336
0.620647
0.607885
0.595301
0.582881
0.570615
0.558493
0.546505
0.534642
0.522898
0.511264
0.499734
0.488301
0.476961
0.465707
0.454534
0.443438
0.432415
0.42146
0.41057
0.39974
0.388968
0.378251
0.367585
0.356967
0.346396
0.335868
0.325381
0.314933
0.304521
0.294145
0.283801
0.273489
0.263206
0.252952
0.242723
0.23252
0.22234
0.212183
0.202047
0.191931
0.181835
0.171756
0.161694
0.151649
0.141619
0.131603
0.121601
0.111613
0.101636
0.0916721
0.0817193
0.0717774
0.0618461
0.0519249
0.0420135
0.0321115
0.0222186
0.0123345
0.00245876
-0.00740887
-0.0172688
-0.0271214
-0.0369671
-0.0468062
-0.0566392
-0.0664665
-0.0762885
-0.0861058
-0.0959187
-0.105728
-0.115533
-0.125335
-0.135135
-0.144932
-0.154727
-0.16452
-0.174312
0.174312
1.13543
1.13543
1.10163
1.06273
1.02426
0.987991
0.954822
0.925
0.898305
0.87428
0.852419
0.832258
0.813421
0.795618
0.778637
0.762324
0.746567
0.731283
0.716409
0.701897
0.687709
0.673812
0.660182
0.646796
0.633633
0.620677
0.607912
0.595325
0.582903
0.570635
0.558511
0.546522
0.534658
0.522912
0.511277
0.499746
0.488313
0.476972
0.465717
0.454544
0.443447
0.432423
0.421468
0.410577
0.399747
0.388975
0.378257
0.36759
0.356972
0.346401
0.335872
0.325385
0.314937
0.304525
0.294149
0.283805
0.273492
0.263209
0.252954
0.242726
0.232522
0.222343
0.212185
0.202049
0.191934
0.181837
0.171758
0.161696
0.151651
0.14162
0.131605
0.121603
0.111614
0.101638
0.0916732
0.0817203
0.0717784
0.061847
0.0519258
0.0420143
0.0321122
0.0222193
0.0123351
0.00245927
-0.00740843
-0.0172684
-0.0271211
-0.0369668
-0.046806
-0.056639
-0.0664663
-0.0762884
-0.0861057
-0.0959186
-0.105728
-0.115533
-0.125335
-0.135135
-0.144932
-0.154727
-0.16452
-0.17431
0.17431
1.12586
1.12586
1.09915
1.06284
1.02521
0.989185
0.955998
0.926037
0.899158
0.874953
0.852936
0.832653
0.813723
0.795852
0.778822
0.762474
0.74669
0.731386
0.716497
0.701973
0.687775
0.673871
0.660234
0.646842
0.633674
0.620714
0.607946
0.595356
0.582931
0.570661
0.558535
0.546543
0.534678
0.52293
0.511294
0.499762
0.488327
0.476985
0.465729
0.454555
0.443458
0.432433
0.421477
0.410585
0.399755
0.388982
0.378264
0.367597
0.356979
0.346406
0.335878
0.32539
0.314941
0.30453
0.294153
0.283809
0.273496
0.263213
0.252958
0.242729
0.232525
0.222345
0.212188
0.202052
0.191936
0.181839
0.17176
0.161698
0.151652
0.141622
0.131606
0.121604
0.111615
0.101639
0.0916745
0.0817216
0.0717796
0.0618481
0.0519268
0.0420153
0.0321132
0.0222202
0.0123359
0.00246004
-0.00740772
-0.0172678
-0.0271205
-0.0369662
-0.0468055
-0.0566386
-0.0664659
-0.0762881
-0.0861054
-0.0959183
-0.105727
-0.115533
-0.125335
-0.135135
-0.144932
-0.154727
-0.164519
-0.174308
0.174308
1.12054
1.12054
1.09752
1.06285
1.02581
0.989952
0.956768
0.926726
0.899735
0.875416
0.853301
0.832938
0.813946
0.796029
0.778965
0.762592
0.746789
0.731471
0.71657
0.702037
0.687832
0.673921
0.66028
0.646883
0.633711
0.620748
0.607976
0.595384
0.582956
0.570684
0.558556
0.546563
0.534696
0.522947
0.511309
0.499776
0.48834
0.476997
0.46574
0.454566
0.443468
0.432442
0.421486
0.410594
0.399763
0.388989
0.37827
0.367603
0.356984
0.346412
0.335883
0.325395
0.314946
0.304534
0.294157
0.283813
0.2735
0.263216
0.252961
0.242732
0.232528
0.222348
0.212191
0.202054
0.191938
0.181841
0.171762
0.1617
0.151654
0.141624
0.131608
0.121606
0.111617
0.10164
0.0916759
0.0817228
0.0717808
0.0618493
0.0519279
0.0420163
0.0321142
0.0222211
0.0123368
0.00246091
-0.0074069
-0.017267
-0.0271198
-0.0369656
-0.0468049
-0.056638
-0.0664654
-0.0762876
-0.086105
-0.095918
-0.105727
-0.115532
-0.125335
-0.135134
-0.144931
-0.154726
-0.164518
-0.174305
0.174305
1.11884
1.11884
1.09697
1.06287
1.02602
0.990226
0.957041
0.926971
0.899941
0.875583
0.853434
0.833042
0.814029
0.796095
0.77902
0.762637
0.746828
0.731504
0.716599
0.702063
0.687855
0.673942
0.660298
0.6469
0.633727
0.620762
0.607989
0.595395
0.582967
0.570694
0.558565
0.546571
0.534704
0.522954
0.511316
0.499782
0.488346
0.477003
0.465746
0.45457
0.443472
0.432447
0.42149
0.410597
0.399766
0.388992
0.378273
0.367606
0.356987
0.346414
0.335885
0.325397
0.314948
0.304536
0.294159
0.283814
0.273501
0.263218
0.252962
0.242733
0.232529
0.222349
0.212192
0.202055
0.191939
0.181842
0.171763
0.161701
0.151655
0.141624
0.131608
0.121606
0.111617
0.101641
0.0916764
0.0817234
0.0717813
0.0618498
0.0519284
0.0420168
0.0321146
0.0222215
0.0123372
0.00246132
-0.00740653
-0.0172667
-0.0271194
-0.0369653
-0.0468046
-0.0566377
-0.0664652
-0.0762874
-0.0861048
-0.0959178
-0.105727
-0.115532
-0.125335
-0.135134
-0.144931
-0.154726
-0.164517
-0.174303
0.174303
1.12054
1.12054
1.09752
1.06285
1.02581
0.989952
0.956768
0.926726
0.899734
0.875416
0.853301
0.832938
0.813946
0.796029
0.778965
0.762592
0.746789
0.731471
0.71657
0.702037
0.687832
0.673922
0.66028
0.646883
0.633711
0.620748
0.607977
0.595384
0.582956
0.570684
0.558556
0.546563
0.534696
0.522947
0.511309
0.499776
0.48834
0.476997
0.46574
0.454566
0.443468
0.432442
0.421486
0.410594
0.399763
0.388989
0.37827
0.367603
0.356985
0.346412
0.335883
0.325395
0.314946
0.304534
0.294157
0.283813
0.2735
0.263216
0.252961
0.242732
0.232528
0.222348
0.212191
0.202054
0.191938
0.181841
0.171762
0.1617
0.151654
0.141624
0.131608
0.121606
0.111617
0.10164
0.0916758
0.0817228
0.0717808
0.0618493
0.0519279
0.0420163
0.0321142
0.0222211
0.0123368
0.00246092
-0.00740691
-0.017267
-0.0271198
-0.0369656
-0.0468048
-0.056638
-0.0664654
-0.0762876
-0.086105
-0.095918
-0.105727
-0.115532
-0.125335
-0.135134
-0.144931
-0.154726
-0.164518
-0.174305
0.174305
1.12586
1.12586
1.09915
1.06284
1.02521
0.989185
0.955999
0.926037
0.899157
0.874952
0.852937
0.832654
0.813723
0.795852
0.778822
0.762474
0.74669
0.731386
0.716497
0.701973
0.687775
0.673871
0.660234
0.646842
0.633674
0.620714
0.607946
0.595356
0.582931
0.570661
0.558535
0.546543
0.534678
0.52293
0.511294
0.499762
0.488327
0.476985
0.465729
0.454555
0.443458
0.432433
0.421477
0.410585
0.399755
0.388982
0.378264
0.367597
0.356979
0.346406
0.335878
0.32539
0.314941
0.30453
0.294153
0.283809
0.273496
0.263213
0.252958
0.242729
0.232525
0.222345
0.212188
0.202052
0.191936
0.181839
0.17176
0.161698
0.151652
0.141622
0.131606
0.121604
0.111615
0.101639
0.0916745
0.0817216
0.0717796
0.0618481
0.0519268
0.0420153
0.0321132
0.0222202
0.0123359
0.00246005
-0.00740773
-0.0172678
-0.0271205
-0.0369663
-0.0468055
-0.0566385
-0.0664659
-0.0762881
-0.0861054
-0.0959183
-0.105727
-0.115533
-0.125335
-0.135135
-0.144932
-0.154727
-0.164519
-0.174308
0.174308
1.13543
1.13543
1.10163
1.06273
1.02426
0.987991
0.954822
0.925
0.898303
0.87428
0.852419
0.832259
0.813421
0.795618
0.778637
0.762324
0.746567
0.731283
0.716409
0.701897
0.687709
0.673812
0.660183
0.646796
0.633633
0.620677
0.607912
0.595325
0.582903
0.570636
0.558512
0.546522
0.534658
0.522913
0.511277
0.499746
0.488313
0.476972
0.465717
0.454544
0.443447
0.432423
0.421468
0.410577
0.399747
0.388975
0.378257
0.36759
0.356973
0.346401
0.335872
0.325385
0.314937
0.304525
0.294148
0.283805
0.273492
0.263209
0.252954
0.242726
0.232522
0.222343
0.212185
0.202049
0.191934
0.181837
0.171758
0.161696
0.151651
0.14162
0.131605
0.121603
0.111614
0.101638
0.0916732
0.0817203
0.0717784
0.061847
0.0519258
0.0420143
0.0321122
0.0222193
0.0123351
0.00245928
-0.00740844
-0.0172684
-0.0271211
-0.0369668
-0.046806
-0.056639
-0.0664663
-0.0762884
-0.0861057
-0.0959186
-0.105728
-0.115533
-0.125335
-0.135135
-0.144932
-0.154727
-0.16452
-0.17431
0.17431
1.1504
1.1504
1.10451
1.0625
1.02315
0.986666
0.953561
0.923922
0.897442
0.873621
0.851927
0.831894
0.813149
0.795413
0.778479
0.762199
0.746466
0.731199
0.716338
0.701836
0.687655
0.673766
0.660141
0.646759
0.6336
0.620647
0.607885
0.5953
0.582881
0.570615
0.558493
0.546505
0.534642
0.522898
0.511264
0.499734
0.488301
0.476961
0.465707
0.454534
0.443438
0.432415
0.42146
0.41057
0.39974
0.388968
0.378251
0.367585
0.356967
0.346396
0.335868
0.325381
0.314933
0.304521
0.294145
0.283801
0.273489
0.263206
0.252952
0.242723
0.23252
0.22234
0.212183
0.202047
0.191931
0.181835
0.171756
0.161694
0.151649
0.141619
0.131603
0.121601
0.111613
0.101636
0.0916721
0.0817193
0.0717774
0.0618461
0.0519249
0.0420135
0.0321115
0.0222186
0.0123345
0.00245879
-0.00740887
-0.0172688
-0.0271214
-0.0369671
-0.0468062
-0.0566392
-0.0664665
-0.0762886
-0.0861058
-0.0959187
-0.105728
-0.115533
-0.125335
-0.135135
-0.144932
-0.154727
-0.16452
-0.174312
0.174312
1.17135
1.17135
1.1065
1.06227
1.02245
0.98587
0.952818
0.923291
0.896935
0.873225
0.851623
0.83166
0.812967
0.795268
0.778362
0.762102
0.746383
0.731128
0.716276
0.701781
0.687606
0.673721
0.660101
0.646722
0.633566
0.620616
0.607857
0.595274
0.582857
0.570593
0.558472
0.546485
0.534624
0.522881
0.511248
0.499719
0.488288
0.476948
0.465695
0.454523
0.443428
0.432405
0.421451
0.410561
0.399732
0.388961
0.378244
0.367578
0.356961
0.34639
0.335862
0.325375
0.314927
0.304516
0.29414
0.283797
0.273485
0.263202
0.252948
0.24272
0.232517
0.222337
0.21218
0.202044
0.191929
0.181832
0.171754
0.161692
0.151647
0.141617
0.131601
0.121599
0.111611
0.101635
0.0916706
0.0817179
0.0717762
0.0618449
0.0519238
0.0420125
0.0321106
0.0222178
0.0123338
0.00245814
-0.00740943
-0.0172693
-0.0271218
-0.0369674
-0.0468065
-0.0566394
-0.0664667
-0.0762887
-0.0861059
-0.0959188
-0.105728
-0.115533
-0.125335
-0.135135
-0.144932
-0.154727
-0.164521
-0.174312
0.174312
1.17135
1.17135
1.1065
1.06227
1.02245
0.98587
0.952818
0.923291
0.896935
0.873225
0.851623
0.83166
0.812967
0.795268
0.778362
0.762102
0.746383
0.731128
0.716276
0.701781
0.687606
0.673721
0.660101
0.646722
0.633566
0.620616
0.607857
0.595274
0.582857
0.570593
0.558472
0.546485
0.534624
0.522881
0.511248
0.499719
0.488288
0.476948
0.465695
0.454523
0.443428
0.432405
0.421451
0.410561
0.399732
0.388961
0.378244
0.367578
0.356961
0.34639
0.335862
0.325375
0.314927
0.304516
0.29414
0.283797
0.273485
0.263202
0.252948
0.24272
0.232517
0.222337
0.21218
0.202044
0.191929
0.181832
0.171754
0.161692
0.151647
0.141617
0.131601
0.121599
0.111611
0.101635
0.0916706
0.0817179
0.0717762
0.0618449
0.0519238
0.0420125
0.0321106
0.0222178
0.0123338
0.00245814
-0.00740943
-0.0172693
-0.0271218
-0.0369674
-0.0468065
-0.0566394
-0.0664667
-0.0762887
-0.0861059
-0.0959188
-0.105728
-0.115533
-0.125335
-0.135135
-0.144932
-0.154727
-0.164521
-0.174312
0.174312
SCALARS phi double
LOOKUP_TABLE phi
1
1
1
1
0.999999
0.999994
0.999983
0.999958
0.99991
0.99983
0.999706
0.999526
0.999278
0.998951
0.998536
0.998024
0.997407
0.996678
0.995834
0.994869
0.993783
0.992573
0.991241
0.989788
0.988215
0.986522
0.984698
0.982721
0.980549
0.978123
0.975362
0.972172
0.968449
0.964087
0.958986
0.953054
0.946215
0.938409
0.929597
0.919755
0.908883
0.896993
0.884115
0.870292
0.855577
0.840033
0.823729
0.806739
0.78914
0.771009
0.752423
0.733458
0.714189
0.694685
0.675014
0.655238
0.635417
0.615605
0.595851
0.576202
0.556699
0.537379
0.518276
0.499418
0.480833
0.462543
0.444567
0.426922
0.409622
0.392679
0.376103
0.359901
0.344077
0.328637
0.313583
0.298916
0.284635
0.270741
0.257231
0.244103
0.231355
0.218982
0.206982
0.19535
0.184084
0.173179
0.162633
0.152442
0.142603
0.133114
0.123973
0.115179
0.106731
0.0986284
0.0908716
0.0834601
0.0763986
0.0696754
0.0633367
0.0572246
0.0519082
0.0453104
0.0453104
1
1
1
1
0.999999
0.999994
0.999983
0.999958
0.99991
0.99983
0.999706
0.999526
0.999278
0.998951
0.998536
0.998024
0.997407
0.996678
0.995834
0.994869
0.993783
0.992573
0.991241
0.989788
0.988215
0.986522
0.984698
0.982721
0.980549
0.978123
0.975362
0.972172
0.968449
0.964087
0.958986
0.953054
0.946215
0.938409
0.929597
0.919755
0.908883
0.896993
0.884115
0.870292
0.855577
0.840033
0.823729
0.806739
0.78914
0.771009
0.752423
0.733458
0.714189
0.694685
0.675014
0.655238
0.635417
0.615605
0.595851
0.576202
0.556699
0.537379
0.518276
0.499418
0.480833
0.462543
0.444567
0.426922
0.409622
0.392679
0.376103
0.359901
0.344077
0.328637
0.313583
0.298916
0.284635
0.270741
0.257231
0.244103
0.231355
0.218982
0.206982
0.19535
0.184084
0.173179
0.162633
0.152442
0.142603
0.133114
0.123973
0.115179
0.106731
0.0986284
0.0908716
0.0834601
0.0763986
0.0696754
0.0633367
0.0572246
0.0519082
0.0453104
0.0453104
1
1
1
0.999996
0.999983
0.999954
0.999898
0.999804
0.999658
0.999447
0.999157
0.998778
0.9983
0.997714
0.997014
0.996196
0.995256
0.994192
0.993003
0.991689
0.990252
0.988694
0.987016
0.985224
0.98332
0.981309
0.979193
0.976971
0.974636
0.972172
0.96955
0.966734
0.963674
0.96031
0.956577
0.952405
0.947725
0.94247
0.93658
0.930002
0.922695
0.914627
0.905779
0.896143
0.885723
0.874531
0.862591
0.849934
0.836597
0.822625
0.808065
0.792968
0.777387
0.761377
0.744992
0.728287
0.711313
0.694122
0.676765
0.659286
0.641733
0.624145
0.606562
0.589021
0.571555
0.554194
0.536968
0.5199
0.503015
0.486332
0.469869
0.453644
0.437669
0.421956
0.406516
0.391357
0.376485
0.361905
0.347621
0.333635
0.319947
0.306559
0.293467
0.280671
0.268166
0.255949
0.244016
0.232362
0.220981
0.209867
0.199016
0.188422
0.17808
0.167984
0.158133
0.148521
0.139156
0.130009
0.121182
0.112343
0.104639
0.0942138
0.0942138
0.999997
1
0.99998
0.999897
0.999724
0.999434
0.998999
0.998397
0.997613
0.996636
0.995464
0.994099
0.992547
0.990816
0.988916
0.986859
0.984656
0.982317
0.979854
0.977278
0.974598
0.971826
0.968969
0.966037
0.963036
0.959976
0.956863
0.953702
0.950497
0.94725
0.94396
0.94062
0.937219
0.933741
0.930163
0.926457
0.922592
0.918531
0.914237
0.909669
0.904789
0.899558
0.893942
0.887908
0.88143
0.874486
0.867058
0.859136
0.850713
0.84179
0.83237
0.822465
0.812087
0.801254
0.789987
0.778309
0.766247
0.753828
0.741082
0.728037
0.714725
0.701176
0.687419
0.673486
0.659404
0.645203
0.630909
0.616549
0.602149
0.58773
0.573317
0.55893
0.544588
0.53031
0.516112
0.50201
0.488016
0.474144
0.460403
0.446803
0.433351
0.420052
0.406912
0.393932
0.381114
0.368457
0.355959
0.343618
0.331427
0.31938
0.30747
0.295687
0.284022
0.272462
0.260996
0.249609
0.238304
0.227015
0.215912
0.204413
0.194365
0.179836
0.179836
0.999999
1
0.99943
0.998224
0.996402
0.994008
0.991093
0.987716
0.983939
0.979828
0.975446
0.970853
0.966103
0.961239
0.9563
0.951318
0.946317
0.94132
0.936342
0.931396
0.926494
0.921643
0.91685
0.91212