# vtk DataFile Version 3.0
FlowField
ASCII
DATASET STRUCTURED_GRID
DIMENSIONS 103 13 1 
POINTS 1339 double
0 0 0
0.3 0 0
0.6 0 0
0.9 0 0
1.2 0 0
1.5 0 0
1.8 0 0
2.1 0 0
2.4 0 0
2.7 0 0
3 0 0
3.3 0 0
3.6 0 0
3.9 0 0
4.2 0 0
4.5 0 0
4.8 0 0
5.1 0 0
5.4 0 0
5.7 0 0
6 0 0
6.3 0 0
6.6 0 0
6.9 0 0
7.2 0 0
7.5 0 0
7.8 0 0
8.1 0 0
8.4 0 0
8.7 0 0
9 0 0
9.3 0 0
9.6 0 0
9.9 0 0
10.2 0 0
10.5 0 0
10.8 0 0
11.1 0 0
11.4 0 0
11.7 0 0
12 0 0
12.3 0 0
12.6 0 0
12.9 0 0
13.2 0 0
13.5 0 0
13.8 0 0
14.1 0 0
14.4 0 0
14.7 0 0
15 0 0
15.3 0 0
15.6 0 0
15.9 0 0
16.2 0 0
16.5 0 0
16.8 0 0
17.1 0 0
17.4 0 0
17.7 0 0
18 0 0
18.3 0 0
18.6 0 0
18.9 0 0
19.2 0 0
19.5 0 0
19.8 0 0
20.1 0 0
20.4 0 0
20.7 0 0
21 0 0
21.3 0 0
21.6 0 0
21.9 0 0
22.2 0 0
22.5 0 0
22.8 0 0
23.1 0 0
23.4 0 0
23.7 0 0
24 0 0
24.3 0 0
24.6 0 0
24.9 0 0
25.2 0 0
25.5 0 0
25.8 0 0
26.1 0 0
26.4 0 0
26.7 0 0
27 0 0
27.3 0 0
27.6 0 0
27.9 0 0
28.2 0 0
28.5 0 0
28.8 0 0
29.1 0 0
29.4 0 0
29.7 0 0
30 0 0
30.3 0 0
30.6 0 0
0 0.1 0
0.3 0.1 0
0.6 0.1 0
0.9 0.1 0
1.2 0.1 0
1.5 0.1 0
1.8 0.1 0
2.1 0.1 0
2.4 0.1 0
2.7 0.1 0
3 0.1 0
3.3 0.1 0
3.6 0.1 0
3.9 0.1 0
4.2 0.1 0
4.5 0.1 0
4.8 0.1 0
5.1 0.1 0
5.4 0.1 0
5.7 0.1 0
6 0.1 0
6.3 0.1 0
6.6 0.1 0
6.9 0.1 0
7.2 0.1 0
7.5 0.1 0
7.8 0.1 0
8.1 0.1 0
8.4 0.1 0
8.7 0.1 0
9 0.1 0
9.3 0.1 0
9.6 0.1 0
9.9 0.1 0
10.2 0.1 0
10.5 0.1 0
10.8 0.1 0
11.1 0.1 0
11.4 0.1 0
11.7 0.1 0
12 0.1 0
12.3 0.1 0
12.6 0.1 0
12.9 0.1 0
13.2 0.1 0
13.5 0.1 0
13.8 0.1 0
14.1 0.1 0
14.4 0.1 0
14.7 0.1 0
15 0.1 0
15.3 0.1 0
15.6 0.1 0
15.9 0.1 0
16.2 0.1 0
16.5 0.1 0
16.8 0.1 0
17.1 0.1 0
17.4 0.1 0
17.7 0.1 0
18 0.1 0
18.3 0.1 0
18.6 0.1 0
18.9 0.1 0
19.2 0.1 0
19.5 0.1 0
19.8 0.1 0
20.1 0.1 0
20.4 0.1 0
20.7 0.1 0
21 0.1 0
21.3 0.1 0
21.6 0.1 0
21.9 0.1 0
22.2 0.1 0
22.5 0.1 0
22.8 0.1 0
23.1 0.1 0
23.4 0.1 0
23.7 0.1 0
24 0.1 0
24.3 0.1 0
24.6 0.1 0
24.9 0.1 0
25.2 0.1 0
25.5 0.1 0
25.8 0.1 0
26.1 0.1 0
26.4 0.1 0
26.7 0.1 0
27 0.1 0
27.3 0.1 0
27.6 0.1 0
27.9 0.1 0
28.2 0.1 0
28.5 0.1 0
28.8 0.1 0
29.1 0.1 0
29.4 0.1 0
29.7 0.1 0
30 0.1 0
30.3 0.1 0
30.6 0.1 0
0 0.2 0
0.3 0.2 0
0.6 0.2 0
0.9 0.2 0
1.2 0.2 0
1.5 0.2 0
1.8 0.2 0
2.1 0.2 0
2.4 0.2 0
2.7 0.2 0
3 0.2 0
3.3 0.2 0
3.6 0.2 0
3.9 0.2 0
4.2 0.2 0
4.5 0.2 0
4.8 0.2 0
5.1 0.2 0
5.4 0.2 0
5.7 0.2 0
6 0.2 0
6.3 0.2 0
6.6 0.2 0
6.9 0.2 0
7.2 0.2 0
7.5 0.2 0
7.8 0.2 0
8.1 0.2 0
8.4 0.2 0
8.7 0.2 0
9 0.2 0
9.3 0.2 0
9.6 0.2 0
9.9 0.2 0
10.2 0.2 0
10.5 0.2 0
10.8 0.2 0
11.1 0.2 0
11.4 0.2 0
11.7 0.2 0
12 0.2 0
12.3 0.2 0
12.6 0.2 0
12.9 0.2 0
13.2 0.2 0
13.5 0.2 0
13.8 0.2 0
14.1 0.2 0
14.4 0.2 0
14.7 0.2 0
15 0.2 0
15.3 0.2 0
15.6 0.2 0
15.9 0.2 0
16.2 0.2 0
16.5 0.2 0
16.8 0.2 0
17.1 0.2 0
17.4 0.2 0
17.7 0.2 0
18 0.2 0
18.3 0.2 0
18.6 0.2 0
18.9 0.2 0
19.2 0.2 0
19.5 0.2 0
19.8 0.2 0
20.1 0.2 0
20.4 0.2 0
20.7 0.2 0
21 0.2 0
21.3 0.2 0
21.6 0.2 0
21.9 0.2 0
22.2 0.2 0
22.5 0.2 0
22.8 0.2 0
23.1 0.2 0
23.4 0.2 0
23.7 0.2 0
24 0.2 0
24.3 0.2 0
24.6 0.2 0
24.9 0.2 0
25.2 0.2 0
25.5 0.2 0
25.8 0.2 0
26.1 0.2 0
26.4 0.2 0
26.7 0.2 0
27 0.2 0
27.3 0.2 0
27.6 0.2 0
27.9 0.2 0
28.2 0.2 0
28.5 0.2 0
28.8 0.2 0
29.1 0.2 0
29.4 0.2 0
29.7 0.2 0
30 0.2 0
30.3 0.2 0
30.6 0.2 0
0 0.3 0
0.3 0.3 0
0.6 0.3 0
0.9 0.3 0
1.2 0.3 0
1.5 0.3 0
1.8 0.3 0
2.1 0.3 0
2.4 0.3 0
2.7 0.3 0
3 0.3 0
3.3 0.3 0
3.6 0.3 0
3.9 0.3 0
4.2 0.3 0
4.5 0.3 0
4.8 0.3 0
5.1 0.3 0
5.4 0.3 0
5.7 0.3 0
6 0.3 0
6.3 0.3 0
6.6 0.3 0
6.9 0.3 0
7.2 0.3 0
7.5 0.3 0
7.8 0.3 0
8.1 0.3 0
8.4 0.3 0
8.7 0.3 0
9 0.3 0
9.3 0.3 0
9.6 0.3 0
9.9 0.3 0
10.2 0.3 0
10.5 0.3 0
10.8 0.3 0
11.1 0.3 0
11.4 0.3 0
11.7 0.3 0
12 0.3 0
12.3 0.3 0
12.6 0.3 0
12.9 0.3 0
13.2 0.3 0
13.5 0.3 0
13.8 0.3 0
14.1 0.3 0
14.4 0.3 0
14.7 0.3 0
15 0.3 0
15.3 0.3 0
15.6 0.3 0
15.9 0.3 0
16.2 0.3 0
16.5 0.3 0
16.8 0.3 0
17.1 0.3 0
17.4 0.3 0
17.7 0.3 0
18 0.3 0
18.3 0.3 0
18.6 0.3 0
18.9 0.3 0
19.2 0.3 0
19.5 0.3 0
19.8 0.3 0
20.1 0.3 0
20.4 0.3 0
20.7 0.3 0
21 0.3 0
21.3 0.3 0
21.6 0.3 0
21.9 0.3 0
22.2 0.3 0
22.5 0.3 0
22.8 0.3 0
23.1 0.3 0
23.4 0.3 0
23.7 0.3 0
24 0.3 0
24.3 0.3 0
24.6 0.3 0
24.9 0.3 0
25.2 0.3 0
25.5 0.3 0
25.8 0.3 0
26.1 0.3 0
26.4 0.3 0
26.7 0.3 0
27 0.3 0
27.3 0.3 0
27.6 0.3 0
27.9 0.3 0
28.2 0.3 0
28.5 0.3 0
28.8 0.3 0
29.1 0.3 0
29.4 0.3 0
29.7 0.3 0
30 0.3 0
30.3 0.3 0
30.6 0.3 0
0 0.4 0
0.3 0.4 0
0.6 0.4 0
0.9 0.4 0
1.2 0.4 0
1.5 0.4 0
1.8 0.4 0
2.1 0.4 0
2.4 0.4 0
2.7 0.4 0
3 0.4 0
3.3 0.4 0
3.6 0.4 0
3.9 0.4 0
4.2 0.4 0
4.5 0.4 0
4.8 0.4 0
5.1 0.4 0
5.4 0.4 0
5.7 0.4 0
6 0.4 0
6.3 0.4 0
6.6 0.4 0
6.9 0.4 0
7.2 0.4 0
7.5 0.4 0
7.8 0.4 0
8.1 0.4 0
8.4 0.4 0
8.7 0.4 0
9 0.4 0
9.3 0.4 0
9.6 0.4 0
9.9 0.4 0
10.2 0.4 0
10.5 0.4 0
10.8 0.4 0
11.1 0.4 0
11.4 0.4 0
11.7 0.4 0
12 0.4 0
12.3 0.4 0
12.6 0.4 0
12.9 0.4 0
13.2 0.4 0
13.5 0.4 0
13.8 0.4 0
14.1 0.4 0
14.4 0.4 0
14.7 0.4 0
15 0.4 0
15.3 0.4 0
15.6 0.4 0
15.9 0.4 0
16.2 0.4 0
16.5 0.4 0
16.8 0.4 0
17.1 0.4 0
17.4 0.4 0
17.7 0.4 0
18 0.4 0
18.3 0.4 0
18.6 0.4 0
18.9 0.4 0
19.2 0.4 0
19.5 0.4 0
19.8 0.4 0
20.1 0.4 0
20.4 0.4 0
20.7 0.4 0
21 0.4 0
21.3 0.4 0
21.6 0.4 0
21.9 0.4 0
22.2 0.4 0
22.5 0.4 0
22.8 0.4 0
23.1 0.4 0
23.4 0.4 0
23.7 0.4 0
24 0.4 0
24.3 0.4 0
24.6 0.4 0
24.9 0.4 0
25.2 0.4 0
25.5 0.4 0
25.8 0.4 0
26.1 0.4 0
26.4 0.4 0
26.7 0.4 0
27 0.4 0
27.3 0.4 0
27.6 0.4 0
27.9 0.4 0
28.2 0.4 0
28.5 0.4 0
28.8 0.4 0
29.1 0.4 0
29.4 0.4 0
29.7 0.4 0
30 0.4 0
30.3 0.4 0
30.6 0.4 0
0 0.5 0
0.3 0.5 0
0.6 0.5 0
0.9 0.5 0
1.2 0.5 0
1.5 0.5 0
1.8 0.5 0
2.1 0.5 0
2.4 0.5 0
2.7 0.5 0
3 0.5 0
3.3 0.5 0
3.6 0.5 0
3.9 0.5 0
4.2 0.5 0
4.5 0.5 0
4.8 0.5 0
5.1 0.5 0
5.4 0.5 0
5.7 0.5 0
6 0.5 0
6.3 0.5 0
6.6 0.5 0
6.9 0.5 0
7.2 0.5 0
7.5 0.5 0
7.8 0.5 0
8.1 0.5 0
8.4 0.5 0
8.7 0.5 0
9 0.5 0
9.3 0.5 0
9.6 0.5 0
9.9 0.5 0
10.2 0.5 0
10.5 0.5 0
10.8 0.5 0
11.1 0.5 0
11.4 0.5 0
11.7 0.5 0
12 0.5 0
12.3 0.5 0
12.6 0.5 0
12.9 0.5 0
13.2 0.5 0
13.5 0.5 0
13.8 0.5 0
14.1 0.5 0
14.4 0.5 0
14.7 0.5 0
15 0.5 0
15.3 0.5 0
15.6 0.5 0
15.9 0.5 0
16.2 0.5 0
16.5 0.5 0
16.8 0.5 0
17.1 0.5 0
17.4 0.5 0
17.7 0.5 0
18 0.5 0
18.3 0.5 0
18.6 0.5 0
18.9 0.5 0
19.2 0.5 0
19.5 0.5 0
19.8 0.5 0
20.1 0.5 0
20.4 0.5 0
20.7 0.5 0
21 0.5 0
21.3 0.5 0
21.6 0.5 0
21.9 0.5 0
22.2 0.5 0
22.5 0.5 0
22.8 0.5 0
23.1 0.5 0
23.4 0.5 0
23.7 0.5 0
24 0.5 0
24.3 0.5 0
24.6 0.5 0
24.9 0.5 0
25.2 0.5 0
25.5 0.5 0
25.8 0.5 0
26.1 0.5 0
26.4 0.5 0
26.7 0.5 0
27 0.5 0
27.3 0.5 0
27.6 0.5 0
27.9 0.5 0
28.2 0.5 0
28.5 0.5 0
28.8 0.5 0
29.1 0.5 0
29.4 0.5 0
29.7 0.5 0
30 0.5 0
30.3 0.5 0
30.6 0.5 0
0 0.6 0
0.3 0.6 0
0.6 0.6 0
0.9 0.6 0
1.2 0.6 0
1.5 0.6 0
1.8 0.6 0
2.1 0.6 0
2.4 0.6 0
2.7 0.6 0
3 0.6 0
3.3 0.6 0
3.6 0.6 0
3.9 0.6 0
4.2 0.6 0
4.5 0.6 0
4.8 0.6 0
5.1 0.6 0
5.4 0.6 0
5.7 0.6 0
6 0.6 0
6.3 0.6 0
6.6 0.6 0
6.9 0.6 0
7.2 0.6 0
7.5 0.6 0
7.8 0.6 0
8.1 0.6 0
8.4 0.6 0
8.7 0.6 0
9 0.6 0
9.3 0.6 0
9.6 0.6 0
9.9 0.6 0
10.2 0.6 0
10.5 0.6 0
10.8 0.6 0
11.1 0.6 0
11.4 0.6 0
11.7 0.6 0
12 0.6 0
12.3 0.6 0
12.6 0.6 0
12.9 0.6 0
13.2 0.6 0
13.5 0.6 0
13.8 0.6 0
14.1 0.6 0
14.4 0.6 0
14.7 0.6 0
15 0.6 0
15.3 0.6 0
15.6 0.6 0
15.9 0.6 0
16.2 0.6 0
16.5 0.6 0
16.8 0.6 0
17.1 0.6 0
17.4 0.6 0
17.7 0.6 0
18 0.6 0
18.3 0.6 0
18.6 0.6 0
18.9 0.6 0
19.2 0.6 0
19.5 0.6 0
19.8 0.6 0
20.1 0.6 0
20.4 0.6 0
20.7 0.6 0
21 0.6 0
21.3 0.6 0
21.6 0.6 0
21.9 0.6 0
22.2 0.6 0
22.5 0.6 0
22.8 0.6 0
23.1 0.6 0
23.4 0.6 0
23.7 0.6 0
24 0.6 0
24.3 0.6 0
24.6 0.6 0
24.9 0.6 0
25.2 0.6 0
25.5 0.6 0
25.8 0.6 0
26.1 0.6 0
26.4 0.6 0
26.7 0.6 0
27 0.6 0
27.3 0.6 0
27.6 0.6 0
27.9 0.6 0
28.2 0.6 0
28.5 0.6 0
28.8 0.6 0
29.1 0.6 0
29.4 0.6 0
29.7 0.6 0
30 0.6 0
30.3 0.6 0
30.6 0.6 0
0 0.7 0
0.3 0.7 0
0.6 0.7 0
0.9 0.7 0
1.2 0.7 0
1.5 0.7 0
1.8 0.7 0
2.1 0.7 0
2.4 0.7 0
2.7 0.7 0
3 0.7 0
3.3 0.7 0
3.6 0.7 0
3.9 0.7 0
4.2 0.7 0
4.5 0.7 0
4.8 0.7 0
5.1 0.7 0
5.4 0.7 0
5.7 0.7 0
6 0.7 0
6.3 0.7 0
6.6 0.7 0
6.9 0.7 0
7.2 0.7 0
7.5 0.7 0
7.8 0.7 0
8.1 0.7 0
8.4 0.7 0
8.7 0.7 0
9 0.7 0
9.3 0.7 0
9.6 0.7 0
9.9 0.7 0
10.2 0.7 0
10.5 0.7 0
10.8 0.7 0
11.1 0.7 0
11.4 0.7 0
11.7 0.7 0
12 0.7 0
12.3 0.7 0
12.6 0.7 0
12.9 0.7 0
13.2 0.7 0
13.5 0.7 0
13.8 0.7 0
14.1 0.7 0
14.4 0.7 0
14.7 0.7 0
15 0.7 0
15.3 0.7 0
15.6 0.7 0
15.9 0.7 0
16.2 0.7 0
16.5 0.7 0
16.8 0.7 0
17.1 0.7 0
17.4 0.7 0
17.7 0.7 0
18 0.7 0
18.3 0.7 0
18.6 0.7 0
18.9 0.7 0
19.2 0.7 0
19.5 0.7 0
19.8 0.7 0
20.1 0.7 0
20.4 0.7 0
20.7 0.7 0
21 0.7 0
21.3 0.7 0
21.6 0.7 0
21.9 0.7 0
22.2 0.7 0
22.5 0.7 0
22.8 0.7 0
23.1 0.7 0
23.4 0.7 0
23.7 0.7 0
24 0.7 0
24.3 0.7 0
24.6 0.7 0
24.9 0.7 0
25.2 0.7 0
25.5 0.7 0
25.8 0.7 0
26.1 0.7 0
26.4 0.7 0
26.7 0.7 0
27 0.7 0
27.3 0.7 0
27.6 0.7 0
27.9 0.7 0
28.2 0.7 0
28.5 0.7 0
28.8 0.7 0
29.1 0.7 0
29.4 0.7 0
29.7 0.7 0
30 0.7 0
30.3 0.7 0
30.6 0.7 0
0 0.8 0
0.3 0.8 0
0.6 0.8 0
0.9 0.8 0
1.2 0.8 0
1.5 0.8 0
1.8 0.8 0
2.1 0.8 0
2.4 0.8 0
2.7 0.8 0
3 0.8 0
3.3 0.8 0
3.6 0.8 0
3.9 0.8 0
4.2 0.8 0
4.5 0.8 0
4.8 0.8 0
5.1 0.8 0
5.4 0.8 0
5.7 0.8 0
6 0.8 0
6.3 0.8 0
6.6 0.8 0
6.9 0.8 0
7.2 0.8 0
7.5 0.8 0
7.8 0.8 0
8.1 0.8 0
8.4 0.8 0
8.7 0.8 0
9 0.8 0
9.3 0.8 0
9.6 0.8 0
9.9 0.8 0
10.2 0.8 0
10.5 0.8 0
10.8 0.8 0
11.1 0.8 0
11.4 0.8 0
11.7 0.8 0
12 0.8 0
12.3 0.8 0
12.6 0.8 0
12.9 0.8 0
13.2 0.8 0
13.5 0.8 0
13.8 0.8 0
14.1 0.8 0
14.4 0.8 0
14.7 0.8 0
15 0.8 0
15.3 0.8 0
15.6 0.8 0
15.9 0.8 0
16.2 0.8 0
16.5 0.8 0
16.8 0.8 0
17.1 0.8 0
17.4 0.8 0
17.7 0.8 0
18 0.8 0
18.3 0.8 0
18.6 0.8 0
18.9 0.8 0
19.2 0.8 0
19.5 0.8 0
19.8 0.8 0
20.1 0.8 0
20.4 0.8 0
20.7 0.8 0
21 0.8 0
21.3 0.8 0
21.6 0.8 0
21.9 0.8 0
22.2 0.8 0
22.5 0.8 0
22.8 0.8 0
23.1 0.8 0
23.4 0.8 0
23.7 0.8 0
24 0.8 0
24.3 0.8 0
24.6 0.8 0
24.9 0.8 0
25.2 0.8 0
25.5 0.8 0
25.8 0.8 0
26.1 0.8 0
26.4 0.8 0
26.7 0.8 0
27 0.8 0
27.3 0.8 0
27.6 0.8 0
27.9 0.8 0
28.2 0.8 0
28.5 0.8 0
28.8 0.8 0
29.1 0.8 0
29.4 0.8 0
29.7 0.8 0
30 0.8 0
30.3 0.8 0
30.6 0.8 0
0 0.9 0
0.3 0.9 0
0.6 0.9 0
0.9 0.9 0
1.2 0.9 0
1.5 0.9 0
1.8 0.9 0
2.1 0.9 0
2.4 0.9 0
2.7 0.9 0
3 0.9 0
3.3 0.9 0
3.6 0.9 0
3.9 0.9 0
4.2 0.9 0
4.5 0.9 0
4.8 0.9 0
5.1 0.9 0
5.4 0.9 0
5.7 0.9 0
6 0.9 0
6.3 0.9 0
6.6 0.9 0
6.9 0.9 0
7.2 0.9 0
7.5 0.9 0
7.8 0.9 0
8.1 0.9 0
8.4 0.9 0
8.7 0.9 0
9 0.9 0
9.3 0.9 0
9.6 0.9 0
9.9 0.9 0
10.2 0.9 0
10.5 0.9 0
10.8 0.9 0
11.1 0.9 0
11.4 0.9 0
11.7 0.9 0
12 0.9 0
12.3 0.9 0
12.6 0.9 0
12.9 0.9 0
13.2 0.9 0
13.5 0.9 0
13.8 0.9 0
14.1 0.9 0
14.4 0.9 0
14.7 0.9 0
15 0.9 0
15.3 0.9 0
15.6 0.9 0
15.9 0.9 0
16.2 0.9 0
16.5 0.9 0
16.8 0.9 0
17.1 0.9 0
17.4 0.9 0
17.7 0.9 0
18 0.9 0
18.3 0.9 0
18.6 0.9 0
18.9 0.9 0
19.2 0.9 0
19.5 0.9 0
19.8 0.9 0
20.1 0.9 0
20.4 0.9 0
20.7 0.9 0
21 0.9 0
21.3 0.9 0
21.6 0.9 0
21.9 0.9 0
22.2 0.9 0
22.5 0.9 0
22.8 0.9 0
23.1 0.9 0
23.4 0.9 0
23.7 0.9 0
24 0.9 0
24.3 0.9 0
24.6 0.9 0
24.9 0.9 0
25.2 0.9 0
25.5 0.9 0
25.8 0.9 0
26.1 0.9 0
26.4 0.9 0
26.7 0.9 0
27 0.9 0
27.3 0.9 0
27.6 0.9 0
27.9 0.9 0
28.2 0.9 0
28.5 0.9 0
28.8 0.9 0
29.1 0.9 0
29.4 0.9 0
29.7 0.9 0
30 0.9 0
30.3 0.9 0
30.6 0.9 0
0 1 0
0.3 1 0
0.6 1 0
0.9 1 0
1.2 1 0
1.5 1 0
1.8 1 0
2.1 1 0
2.4 1 0
2.7 1 0
3 1 0
3.3 1 0
3.6 1 0
3.9 1 0
4.2 1 0
4.5 1 0
4.8 1 0
5.1 1 0
5.4 1 0
5.7 1 0
6 1 0
6.3 1 0
6.6 1 0
6.9 1 0
7.2 1 0
7.5 1 0
7.8 1 0
8.1 1 0
8.4 1 0
8.7 1 0
9 1 0
9.3 1 0
9.6 1 0
9.9 1 0
10.2 1 0
10.5 1 0
10.8 1 0
11.1 1 0
11.4 1 0
11.7 1 0
12 1 0
12.3 1 0
12.6 1 0
12.9 1 0
13.2 1 0
13.5 1 0
13.8 1 0
14.1 1 0
14.4 1 0
14.7 1 0
15 1 0
15.3 1 0
15.6 1 0
15.9 1 0
16.2 1 0
16.5 1 0
16.8 1 0
17.1 1 0
17.4 1 0
17.7 1 0
18 1 0
18.3 1 0
18.6 1 0
18.9 1 0
19.2 1 0
19.5 1 0
19.8 1 0
20.1 1 0
20.4 1 0
20.7 1 0
21 1 0
21.3 1 0
21.6 1 0
21.9 1 0
22.2 1 0
22.5 1 0
22.8 1 0
23.1 1 0
23.4 1 0
23.7 1 0
24 1 0
24.3 1 0
24.6 1 0
24.9 1 0
25.2 1 0
25.5 1 0
25.8 1 0
26.1 1 0
26.4 1 0
26.7 1 0
27 1 0
27.3 1 0
27.6 1 0
27.9 1 0
28.2 1 0
28.5 1 0
28.8 1 0
29.1 1 0
29.4 1 0
29.7 1 0
30 1 0
30.3 1 0
30.6 1 0
0 1.1 0
0.3 1.1 0
0.6 1.1 0
0.9 1.1 0
1.2 1.1 0
1.5 1.1 0
1.8 1.1 0
2.1 1.1 0
2.4 1.1 0
2.7 1.1 0
3 1.1 0
3.3 1.1 0
3.6 1.1 0
3.9 1.1 0
4.2 1.1 0
4.5 1.1 0
4.8 1.1 0
5.1 1.1 0
5.4 1.1 0
5.7 1.1 0
6 1.1 0
6.3 1.1 0
6.6 1.1 0
6.9 1.1 0
7.2 1.1 0
7.5 1.1 0
7.8 1.1 0
8.1 1.1 0
8.4 1.1 0
8.7 1.1 0
9 1.1 0
9.3 1.1 0
9.6 1.1 0
9.9 1.1 0
10.2 1.1 0
10.5 1.1 0
10.8 1.1 0
11.1 1.1 0
11.4 1.1 0
11.7 1.1 0
12 1.1 0
12.3 1.1 0
12.6 1.1 0
12.9 1.1 0
13.2 1.1 0
13.5 1.1 0
13.8 1.1 0
14.1 1.1 0
14.4 1.1 0
14.7 1.1 0
15 1.1 0
15.3 1.1 0
15.6 1.1 0
15.9 1.1 0
16.2 1.1 0
16.5 1.1 0
16.8 1.1 0
17.1 1.1 0
17.4 1.1 0
17.7 1.1 0
18 1.1 0
18.3 1.1 0
18.6 1.1 0
18.9 1.1 0
19.2 1.1 0
19.5 1.1 0
19.8 1.1 0
20.1 1.1 0
20.4 1.1 0
20.7 1.1 0
21 1.1 0
21.3 1.1 0
21.6 1.1 0
21.9 1.1 0
22.2 1.1 0
22.5 1.1 0
22.8 1.1 0
23.1 1.1 0
23.4 1.1 0
23.7 1.1 0
24 1.1 0
24.3 1.1 0
24.6 1.1 0
24.9 1.1 0
25.2 1.1 0
25.5 1.1 0
25.8 1.1 0
26.1 1.1 0
26.4 1.1 0
26.7 1.1 0
27 1.1 0
27.3 1.1 0
27.6 1.1 0
27.9 1.1 0
28.2 1.1 0
28.5 1.1 0
28.8 1.1 0
29.1 1.1 0
29.4 1.1 0
29.7 1.1 0
30 1.1 0
30.3 1.1 0
30.6 1.1 0
0 1.2 0
0.3 1.2 0
0.6 1.2 0
0.9 1.2 0
1.2 1.2 0
1.5 1.2 0
1.8 1.2 0
2.1 1.2 0
2.4 1.2 0
2.7 1.2 0
3 1.2 0
3.3 1.2 0
3.6 1.2 0
3.9 1.2 0
4.2 1.2 0
4.5 1.2 0
4.8 1.2 0
5.1 1.2 0
5.4 1.2 0
5.7 1.2 0
6 1.2 0
6.3 1.2 0
6.6 1.2 0
6.9 1.2 0
7.2 1.2 0
7.5 1.2 0
7.8 1.2 0
8.1 1.2 0
8.4 1.2 0
8.7 1.2 0
9 1.2 0
9.3 1.2 0
9.6 1.2 0
9.9 1.2 0
10.2 1.2 0
10.5 1.2 0
10.8 1.2 0
11.1 1.2 0
11.4 1.2 0
11.7 1.2 0
12 1.2 0
12.3 1.2 0
12.6 1.2 0
12.9 1.2 0
13.2 1.2 0
13.5 1.2 0
13.8 1.2 0
14.1 1.2 0
14.4 1.2 0
14.7 1.2 0
15 1.2 0
15.3 1.2 0
15.6 1.2 0
15.9 1.2 0
16.2 1.2 0
16.5 1.2 0
16.8 1.2 0
17.1 1.2 0
17.4 1.2 0
17.7 1.2 0
18 1.2 0
18.3 1.2 0
18.6 1.2 0
18.9 1.2 0
19.2 1.2 0
19.5 1.2 0
19.8 1.2 0
20.1 1.2 0
20.4 1.2 0
20.7 1.2 0
21 1.2 0
21.3 1.2 0
21.6 1.2 0
21.9 1.2 0
22.2 1.2 0
22.5 1.2 0
22.8 1.2 0
23.1 1.2 0
23.4 1.2 0
23.7 1.2 0
24 1.2 0
24.3 1.2 0
24.6 1.2 0
24.9 1.2 0
25.2 1.2 0
25.5 1.2 0
25.8 1.2 0
26.1 1.2 0
26.4 1.2 0
26.7 1.2 0
27 1.2 0
27.3 1.2 0
27.6 1.2 0
27.9 1.2 0
28.2 1.2 0
28.5 1.2 0
28.8 1.2 0
29.1 1.2 0
29.4 1.2 0
29.7 1.2 0
30 1.2 0
30.3 1.2 0
30.6 1.2 0

POINT_DATA 1339

SCALARS pressure double
LOOKUP_TABLE pressure
1.17596
1.17596
1.11111
1.06688
1.02705
0.99048
0.957428
0.9279
0.901544
0.877835
0.856233
0.83627
0.817577
0.799877
0.78297
0.766711
0.750992
0.735736
0.720884
0.706389
0.692215
0.67833
0.664709
0.65133
0.638174
0.625224
0.612464
0.59988
0.587461
0.575196
0.563075
0.551091
0.539237
0.52751
0.515905
0.504421
0.493057
0.48181
0.470679
0.459661
0.448751
0.437945
0.427234
0.416612
0.406069
0.395595
0.385182
0.37482
0.364501
0.354216
0.34396
0.333725
0.323508
0.313303
0.303108
0.29292
0.282737
0.272558
0.262381
0.252206
0.242033
0.23186
0.221688
0.211516
0.201345
0.191173
0.181002
0.170831
0.160659
0.150488
0.140317
0.130146
0.119975
0.109804
0.0996326
0.0894615
0.0792904
0.0691193
0.0589482
0.048777
0.0386059
0.0284348
0.0182637
0.0080926
-0.00207851
-0.0122496
-0.0224207
-0.0325918
-0.0427629
-0.052934
-0.0631051
-0.0732762
-0.0834473
-0.0936184
-0.103789
-0.113961
-0.124132
-0.134303
-0.144474
-0.154645
-0.164817
-0.174978
0.174978
1.17596
1.17596
1.11111
1.06688
1.02705
0.99048
0.957428
0.9279
0.901544
0.877835
0.856233
0.83627
0.817577
0.799877
0.78297
0.766711
0.750992
0.735736
0.720884
0.706389
0.692215
0.67833
0.664709
0.65133
0.638174
0.625224
0.612464
0.59988
0.587461
0.575196
0.563075
0.551091
0.539237
0.52751
0.515905
0.504421
0.493057
0.48181
0.470679
0.459661
0.448751
0.437945
0.427234
0.416612
0.406069
0.395595
0.385182
0.37482
0.364501
0.354216
0.34396
0.333725
0.323508
0.313303
0.303108
0.29292
0.282737
0.272558
0.262381
0.252206
0.242033
0.23186
0.221688
0.211516
0.201345
0.191173
0.181002
0.170831
0.160659
0.150488
0.140317
0.130146
0.119975
0.109804
0.0996326
0.0894615
0.0792904
0.0691193
0.0589482
0.048777
0.0386059
0.0284348
0.0182637
0.0080926
-0.00207851
-0.0122496
-0.0224207
-0.0325918
-0.0427629
-0.052934
-0.0631051
-0.0732762
-0.0834473
-0.0936184
-0.103789
-0.113961
-0.124132
-0.134303
-0.144474
-0.154645
-0.164817
-0.174978
0.174978
1.15501
1.15501
1.10912
1.06711
1.02776
0.991276
0.958171
0.928531
0.902052
0.87823
0.856536
0.836503
0.817759
0.800022
0.783088
0.766808
0.751075
0.735808
0.720946
0.706444
0.692264
0.678374
0.664749
0.651367
0.638208
0.625255
0.612492
0.599906
0.587485
0.575218
0.563096
0.55111
0.539254
0.527525
0.515919
0.504433
0.493067
0.481818
0.470686
0.459666
0.448755
0.437948
0.427236
0.416613
0.406069
0.395595
0.385182
0.37482
0.3645
0.354216
0.343959
0.333725
0.323507
0.313303
0.303108
0.29292
0.282737
0.272558
0.262381
0.252206
0.242033
0.23186
0.221688
0.211516
0.201345
0.191173
0.181002
0.170831
0.160659
0.150488
0.140317
0.130146
0.119975
0.109804
0.0996326
0.0894615
0.0792904
0.0691193
0.0589481
0.048777
0.0386059
0.0284348
0.0182637
0.00809259
-0.00207851
-0.0122496
-0.0224207
-0.0325918
-0.0427629
-0.052934
-0.0631051
-0.0732762
-0.0834473
-0.0936184
-0.103789
-0.113961
-0.124132
-0.134303
-0.144474
-0.154645
-0.164817
-0.174977
0.174977
1.14004
1.14004
1.10624
1.06734
1.02887
0.9926
0.959432
0.929609
0.902913
0.878889
0.857029
0.836868
0.81803
0.800227
0.783246
0.766933
0.751176
0.735891
0.721017
0.706505
0.692317
0.678421
0.664791
0.651404
0.638241
0.625285
0.612519
0.599931
0.587508
0.575239
0.563114
0.551127
0.53927
0.527539
0.515931
0.504444
0.493076
0.481827
0.470693
0.459672
0.44876
0.437951
0.427238
0.416614
0.40607
0.395596
0.385182
0.37482
0.3645
0.354216
0.343959
0.333725
0.323507
0.313302
0.303107
0.29292
0.282737
0.272558
0.262381
0.252206
0.242033
0.23186
0.221688
0.211516
0.201345
0.191173
0.181002
0.170831
0.160659
0.150488
0.140317
0.130146
0.119975
0.109804
0.0996326
0.0894615
0.0792904
0.0691193
0.0589481
0.048777
0.0386059
0.0284348
0.0182637
0.00809259
-0.00207851
-0.0122496
-0.0224207
-0.0325918
-0.0427629
-0.052934
-0.0631051
-0.0732762
-0.0834473
-0.0936184
-0.103789
-0.113961
-0.124132
-0.134303
-0.144473
-0.154644
-0.164814
-0.174974
0.174974
1.13047
1.13047
1.10376
1.06745
1.02982
0.993795
0.960609
0.930646
0.903766
0.879562
0.857546
0.837263
0.818332
0.800461
0.783431
0.767083
0.751299
0.735995
0.721105
0.706581
0.692383
0.678479
0.664842
0.65145
0.638282
0.625322
0.612553
0.599961
0.587536
0.575264
0.563137
0.551148
0.53929
0.527557
0.515948
0.50446
0.493091
0.48184
0.470705
0.459683
0.44877
0.43796
0.427246
0.416621
0.406075
0.3956
0.385185
0.374822
0.364502
0.354217
0.34396
0.333725
0.323508
0.313303
0.303108
0.29292
0.282737
0.272558
0.262381
0.252206
0.242033
0.23186
0.221688
0.211516
0.201345
0.191173
0.181002
0.170831
0.160659
0.150488
0.140317
0.130146
0.119975
0.109804
0.0996326
0.0894615
0.0792904
0.0691193
0.0589481
0.048777
0.0386059
0.0284348
0.0182637
0.00809259
-0.00207851
-0.0122496
-0.0224207
-0.0325918
-0.0427629
-0.052934
-0.0631051
-0.0732762
-0.0834473
-0.0936184
-0.103789
-0.113961
-0.124132
-0.134303
-0.144473
-0.154643
-0.164807
-0.174971
0.174971
1.12515
1.12515
1.10213
1.06746
1.03041
0.994562
0.961378
0.931335
0.904344
0.880026
0.857911
0.837547
0.818555
0.800638
0.783574
0.7672
0.751398
0.736079
0.721179
0.706646
0.69244
0.67853
0.664888
0.651491
0.638319
0.625355
0.612583
0.599989
0.587561
0.575287
0.563159
0.551168
0.539309
0.527575
0.515965
0.504476
0.493107
0.481855
0.470719
0.459696
0.448782
0.437971
0.427256
0.416629
0.406083
0.395606
0.385191
0.374827
0.364506
0.35422
0.343962
0.333727
0.323509
0.313304
0.303108
0.29292
0.282737
0.272558
0.262381
0.252206
0.242033
0.23186
0.221688
0.211516
0.201345
0.191173
0.181002
0.170831
0.160659
0.150488
0.140317
0.130146
0.119975
0.109804
0.0996326
0.0894615
0.0792904
0.0691193
0.0589481
0.048777
0.0386059
0.0284348
0.0182637
0.00809259
-0.00207851
-0.0122496
-0.0224207
-0.0325918
-0.0427629
-0.052934
-0.0631051
-0.0732762
-0.0834473
-0.0936184
-0.103789
-0.113961
-0.124132
-0.134302
-0.144473
-0.154641
-0.164798
-0.174967
0.174967
1.12345
1.12345
1.10158
1.06748
1.03063
0.994836
0.961652
0.931581
0.90455
0.880193
0.858043
0.837651
0.818638
0.800705
0.783629
0.767246
0.751437
0.736113
0.721208
0.706672
0.692463
0.678551
0.664907
0.651508
0.638335
0.625369
0.612596
0.600001
0.587572
0.575297
0.563168
0.551177
0.539317
0.527583
0.515973
0.504484
0.493114
0.481862
0.470725
0.459702
0.448787
0.437976
0.42726
0.416633
0.406086
0.395609
0.385193
0.374829
0.364507
0.354221
0.343963
0.333728
0.323509
0.313304
0.303109
0.29292
0.282737
0.272558
0.262381
0.252207
0.242033
0.23186
0.221688
0.211516
0.201345
0.191173
0.181002
0.170831
0.160659
0.150488
0.140317
0.130146
0.119975
0.109804
0.0996326
0.0894615
0.0792904
0.0691193
0.0589481
0.048777
0.0386059
0.0284348
0.0182637
0.0080926
-0.00207851
-0.0122496
-0.0224207
-0.0325918
-0.0427629
-0.052934
-0.0631051
-0.0732762
-0.0834473
-0.0936184
-0.103789
-0.113961
-0.124132
-0.134302
-0.144473
-0.15464
-0.164795
-0.174966
0.174966
1.12515
1.12515
1.10213
1.06746
1.03041
0.994562
0.961378
0.931335
0.904344
0.880026
0.857911
0.837547
0.818555
0.800638
0.783574
0.7672
0.751398
0.736079
0.721179
0.706646
0.69244
0.67853
0.664888
0.651491
0.638319
0.625355
0.612583
0.599989
0.587561
0.575287
0.563159
0.551168
0.539309
0.527575
0.515965
0.504476
0.493107
0.481855
0.470719
0.459696
0.448782
0.437971
0.427256
0.416629
0.406083
0.395606
0.385191
0.374827
0.364506
0.35422
0.343962
0.333727
0.323509
0.313304
0.303108
0.29292
0.282737
0.272558
0.262381
0.252206
0.242033
0.23186
0.221688
0.211516
0.201345
0.191173
0.181002
0.170831
0.160659
0.150488
0.140317
0.130146
0.119975
0.109804
0.0996326
0.0894615
0.0792904
0.0691193
0.0589482
0.048777
0.0386059
0.0284348
0.0182637
0.0080926
-0.00207851
-0.0122496
-0.0224207
-0.0325918
-0.0427629
-0.052934
-0.0631051
-0.0732762
-0.0834473
-0.0936184
-0.103789
-0.113961
-0.124132
-0.134302
-0.144473
-0.154641
-0.164798
-0.174967
0.174967
1.13047
1.13047
1.10376
1.06745
1.02982
0.993795
0.960609
0.930646
0.903766
0.879562
0.857546
0.837263
0.818332
0.800461
0.783431
0.767083
0.751299
0.735995
0.721105
0.706581
0.692383
0.678479
0.664842
0.65145
0.638282
0.625322
0.612553
0.599961
0.587536
0.575264
0.563137
0.551148
0.53929
0.527557
0.515948
0.50446
0.493091
0.48184
0.470705
0.459683
0.44877
0.43796
0.427246
0.416621
0.406075
0.3956
0.385185
0.374822
0.364502
0.354217
0.34396
0.333725
0.323508
0.313303
0.303108
0.29292
0.282737
0.272558
0.262381
0.252206
0.242033
0.23186
0.221688
0.211516
0.201345
0.191173
0.181002
0.170831
0.160659
0.150488
0.140317
0.130146
0.119975
0.109804
0.0996326
0.0894615
0.0792904
0.0691193
0.0589482
0.048777
0.0386059
0.0284348
0.0182637
0.0080926
-0.00207851
-0.0122496
-0.0224207
-0.0325918
-0.0427629
-0.052934
-0.0631051
-0.0732762
-0.0834473
-0.0936184
-0.103789
-0.113961
-0.124132
-0.134303
-0.144473
-0.154643
-0.164807
-0.174971
0.174971
1.14004
1.14004
1.10624
1.06734
1.02887
0.992601
0.959432
0.929609
0.902913
0.878889
0.857029
0.836868
0.81803
0.800227
0.783246
0.766933
0.751176
0.735891
0.721017
0.706505
0.692317
0.678421
0.664791
0.651404
0.638241
0.625285
0.612519
0.599931
0.587508
0.575239
0.563114
0.551127
0.53927
0.527539
0.515931
0.504444
0.493076
0.481827
0.470693
0.459672
0.44876
0.437951
0.427238
0.416614
0.40607
0.395596
0.385182
0.37482
0.3645
0.354216
0.343959
0.333725
0.323507
0.313302
0.303107
0.29292
0.282737
0.272558
0.262381
0.252206
0.242033
0.23186
0.221688
0.211516
0.201345
0.191173
0.181002
0.170831
0.160659
0.150488
0.140317
0.130146
0.119975
0.109804
0.0996326
0.0894615
0.0792904
0.0691193
0.0589482
0.048777
0.0386059
0.0284348
0.0182637
0.0080926
-0.00207851
-0.0122496
-0.0224207
-0.0325918
-0.0427629
-0.052934
-0.0631051
-0.0732762
-0.0834473
-0.0936184
-0.103789
-0.113961
-0.124132
-0.134303
-0.144473
-0.154644
-0.164814
-0.174974
0.174974
1.15501
1.15501
1.10912
1.06711
1.02776
0.991276
0.958171
0.928531
0.902052
0.87823
0.856536
0.836503
0.817759
0.800022
0.783088
0.766808
0.751075
0.735808
0.720946
0.706444
0.692264
0.678374
0.664749
0.651367
0.638208
0.625255
0.612492
0.599906
0.587485
0.575218
0.563096
0.55111
0.539254
0.527525
0.515919
0.504433
0.493067
0.481818
0.470686
0.459666
0.448755
0.437948
0.427236
0.416613
0.406069
0.395595
0.385182
0.37482
0.3645
0.354216
0.343959
0.333725
0.323507
0.313303
0.303108
0.29292
0.282737
0.272558
0.262381
0.252206
0.242033
0.23186
0.221688
0.211516
0.201345
0.191173
0.181002
0.170831
0.160659
0.150488
0.140317
0.130146
0.119975
0.109804
0.0996326
0.0894615
0.0792904
0.0691193
0.0589482
0.048777
0.0386059
0.0284348
0.0182637
0.0080926
-0.00207851
-0.0122496
-0.0224207
-0.0325918
-0.0427629
-0.052934
-0.0631051
-0.0732762
-0.0834473
-0.0936184
-0.103789
-0.113961
-0.124132
-0.134303
-0.144474
-0.154645
-0.164817
-0.174977
0.174977
1.17596
1.17596
1.11111
1.06688
1.02705
0.99048
0.957428
0.9279
0.901544
0.877835
0.856233
0.83627
0.817577
0.799877
0.78297
0.766711
0.750992
0.735736
0.720884
0.706389
0.692215
0.67833
0.664709
0.65133
0.638174
0.625224
0.612464
0.59988
0.587461
0.575196
0.563075
0.551091
0.539237
0.52751
0.515905
0.504421
0.493057
0.48181
0.470679
0.459661
0.448751
0.437945
0.427234
0.416612
0.406069
0.395595
0.385182
0.37482
0.364501
0.354216
0.34396
0.333725
0.323508
0.313303
0.303108
0.29292
0.282737
0.272558
0.262381
0.252206
0.242033
0.23186
0.221688
0.211516
0.201345
0.191173
0.181002
0.170831
0.160659
0.150488
0.140317
0.130146
0.119975
0.109804
0.0996326
0.0894615
0.0792904
0.0691193
0.0589482
0.048777
0.0386059
0.0284348
0.0182637
0.0080926
-0.00207851
-0.0122496
-0.0224207
-0.0325918
-0.0427629
-0.052934
-0.0631051
-0.0732762
-0.0834473
-0.0936184
-0.103789
-0.113961
-0.124132
-0.134303
-0.144474
-0.154645
-0.164817
-0.174978
0.174978
1.17596
1.17596
1.11111
1.06688
1.02705
0.99048
0.957428
0.9279
0.901544
0.877835
0.856233
0.83627
0.817577
0.799877
0.78297
0.766711
0.750992
0.735736
0.720884
0.706389
0.692215
0.67833
0.664709
0.65133
0.638174
0.625224
0.612464
0.59988
0.587461
0.575196
0.563075
0.551091
0.539237
0.52751
0.515905
0.504421
0.493057
0.48181
0.470679
0.459661
0.448751
0.437945
0.427234
0.416612
0.406069
0.395595
0.385182
0.37482
0.364501
0.354216
0.34396
0.333725
0.323508
0.313303
0.303108
0.29292
0.282737
0.272558
0.262381
0.252206
0.242033
0.23186
0.221688
0.211516
0.201345
0.191173
0.181002
0.170831
0.160659
0.150488
0.140317
0.130146
0.119975
0.109804
0.0996326
0.0894615
0.0792904
0.0691193
0.0589482
0.048777
0.0386059
0.0284348
0.0182637
0.0080926
-0.00207851
-0.0122496
-0.0224207
-0.0325918
-0.0427629
-0.052934
-0.0631051
-0.0732762
-0.0834473
-0.0936184
-0.103789
-0.113961
-0.124132
-0.134303
-0.144474
-0.154645
-0.164817
-0.174978
0.174978
SCALARS phi double
LOOKUP_TABLE phi
1
1
1
1
0.999998
0.999994
0.999982
0.999956
0.99991
0.999834
0.999701
0.999495
0.999279
0.999134
0.99888
0.997785
0.994543
0.987612
0.975695
0.958093
0.934779
0.906261
0.873353
0.83697
0.798001
0.757248
0.71541
0.67308
0.630759
0.588857
0.547707
0.507569
0.468642
0.431073
0.394964
0.360385
0.327383
0.295988
0.266222
0.238101
0.211643
0.186866
0.163788
0.142427
0.122796
0.104903
0.0887415
0.0742905
0.0615109
0.0503432
0.0407072
0.0325038
0.0256178
0.0199215
0.0152802
0.0115566
0.00861619
0.00633133
0.00458453
0.00327081
0.00229898
0.00159185
0.00108578
0.000729536
0.000482857
0.000314825
0.000202217
0.000127965
7.97849e-05
4.90163e-05
2.96751e-05
1.7706e-05
1.04128e-05
6.03657e-06
3.45011e-06
1.94424e-06
1.08043e-06
5.92146e-07
3.20109e-07
1.70712e-07
8.98215e-08
4.66342e-08
2.38942e-08
1.20838e-08
6.03235e-09
2.97306e-09
1.44679e-09
6.95263e-10
3.2998e-10
1.54694e-10
7.16407e-11
3.27792e-11
1.48198e-11
6.62121e-12
2.92373e-12
1.27611e-12
5.50609e-13
2.34879e-13
9.90723e-14
4.13159e-14
1.71026e-14
6.51084e-15
6.51084e-15
1
1
1
1
0.999998
0.999994
0.999982
0.999956
0.99991
0.999834
0.999701
0.999495
0.999279
0.999134
0.99888
0.997785
0.994543
0.987612
0.975695
0.958093
0.934779
0.906261
0.873353
0.83697
0.798001
0.757248
0.71541
0.67308
0.630759
0.588857
0.547707
0.507569
0.468642
0.431073
0.394964
0.360385
0.327383
0.295988
0.266222
0.238101
0.211643
0.186866
0.163788
0.142427
0.122796
0.104903
0.0887415
0.0742905
0.0615109
0.0503432
0.0407072
0.0325038
0.0256178
0.0199215
0.0152802
0.0115566
0.00861619
0.00633133
0.00458453
0.00327081
0.00229898
0.00159185
0.00108578
0.000729536
0.000482857
0.000314825
0.000202217
0.000127965
7.97849e-05
4.90163e-05
2.96751e-05
1.7706e-05
1.04128e-05
6.03657e-06
3.45011e-06
1.94424e-06
1.08043e-06
5.92146e-07
3.20109e-07
1.70712e-07
8.98215e-08
4.66342e-08
2.38942e-08
1.20838e-08
6.03235e-09
2.97306e-09
1.44679e-09
6.95263e-10
3.2998e-10
1.54694e-10
7.16407e-11
3.27792e-11
1.48198e-11
6.62121e-12
2.92373e-12
1.27611e-12
5.50609e-13
2.34879e-13
9.90723e-14
4.13159e-14
1.71026e-14
6.51084e-15
6.51084e-15
1
1
1
0.999996
0.999983
0.999953
0.999898
0.999804
0.999657
0.999447
0.999158
0.998773
0.99829
0.997729
0.997097
0.996294
0.995018
0.99274
0.988772
0.982409
0.973057
0.960326
0.944056
0.924297
0.901266
0.875294
0.846781
0.816162
0.783876
0.75035
0.715983
0.681137
0.646125
0.611215
0.57662
0.5425
0.508968
0.476092
0.443904
0.412411
0.381604
0.351472
0.322016
0.293256
0.265243
0.238063
0.211838
0.186719
0.162878
0.140493
0.119736
0.100752
0.0836477
0.0684813
0.0552571
0.0439254
0.0343873
0.026504
0.0201074
0.0150126
0.0110297
0.00797343
0.00567131
0.00396898
0.00273303
0.00185184
0.00123477
0.000810275
0.000523349
0.000332746
0.000208283
0.000128373
7.79172e-05
4.658e-05
2.74306e-05
1.59152e-05
9.09897e-06
5.12682e-06
2.84739e-06
1.55904e-06
8.4168e-07
4.48109e-07
2.35306e-07
1.21889e-07
6.22932e-08
3.14143e-08
1.56346e-08
7.68044e-09
3.72462e-09
1.78336e-09
8.43168e-10
3.93702e-10
1.81575e-10
8.27251e-11
3.72362e-11
1.65614e-11
7.27921e-12
3.16212e-12
1.35783e-12
5.76265e-13
2.4279e-13
9.36898e-14
9.36898e-14
0.999997
1
0.99998
0.999896
0.999724
0.999434
0.998999
0.998397
0.997612
0.996636
0.995464
0.994099
0.992545
0.990814
0.988924
0.986883
0.984672
0.982213
0.979359
0.975897
0.971567
0.966098
0.959232
0.950753
0.940501
0.928378
0.91435
0.898441
0.880724
0.861317
0.840369
0.81805
0.794549
0.770053
0.744747
0.718797
0.692346
0.665502
0.638333
0.61086
0.583058
0.554862
0.526169
0.496866
0.466843
0.436023
0.404394
0.372029
0.339103
0.305901
0.272805
0.240275
0.208806
0.178897
0.151
0.125488
0.102627
0.0825636
0.0653195
0.0508076
0.0388488
0.0291978
0.0215689
0.0156608
0.0111771
0.00784149
0.00540843
0.00366774
0.00244591
0.00160421
0.00103499
0.000656948
0.000410326
0.000252235
0.000152631
9.09322e-05
5.33473e-05
3.08254e-05
1.75463e-05
9.84057e-06
5.43869e-06