# vtk DataFile Version 3.0
FlowField
ASCII
DATASET STRUCTURED_GRID
DIMENSIONS 103 13 1 
POINTS 1339 double
0 0 0
0.3 0 0
0.6 0 0
0.9 0 0
1.2 0 0
1.5 0 0
1.8 0 0
2.1 0 0
2.4 0 0
2.7 0 0
3 0 0
3.3 0 0
3.6 0 0
3.9 0 0
4.2 0 0
4.5 0 0
4.8 0 0
5.1 0 0
5.4 0 0
5.7 0 0
6 0 0
6.3 0 0
6.6 0 0
6.9 0 0
7.2 0 0
7.5 0 0
7.8 0 0
8.1 0 0
8.4 0 0
8.7 0 0
9 0 0
9.3 0 0
9.6 0 0
9.9 0 0
10.2 0 0
10.5 0 0
10.8 0 0
11.1 0 0
11.4 0 0
11.7 0 0
12 0 0
12.3 0 0
12.6 0 0
12.9 0 0
13.2 0 0
13.5 0 0
13.8 0 0
14.1 0 0
14.4 0 0
14.7 0 0
15 0 0
15.3 0 0
15.6 0 0
15.9 0 0
16.2 0 0
16.5 0 0
16.8 0 0
17.1 0 0
17.4 0 0
17.7 0 0
18 0 0
18.3 0 0
18.6 0 0
18.9 0 0
19.2 0 0
19.5 0 0
19.8 0 0
20.1 0 0
20.4 0 0
20.7 0 0
21 0 0
21.3 0 0
21.6 0 0
21.9 0 0
22.2 0 0
22.5 0 0
22.8 0 0
23.1 0 0
23.4 0 0
23.7 0 0
24 0 0
24.3 0 0
24.6 0 0
24.9 0 0
25.2 0 0
25.5 0 0
25.8 0 0
26.1 0 0
26.4 0 0
26.7 0 0
27 0 0
27.3 0 0
27.6 0 0
27.9 0 0
28.2 0 0
28.5 0 0
28.8 0 0
29.1 0 0
29.4 0 0
29.7 0 0
30 0 0
30.3 0 0
30.6 0 0
0 0.1 0
0.3 0.1 0
0.6 0.1 0
0.9 0.1 0
1.2 0.1 0
1.5 0.1 0
1.8 0.1 0
2.1 0.1 0
2.4 0.1 0
2.7 0.1 0
3 0.1 0
3.3 0.1 0
3.6 0.1 0
3.9 0.1 0
4.2 0.1 0
4.5 0.1 0
4.8 0.1 0
5.1 0.1 0
5.4 0.1 0
5.7 0.1 0
6 0.1 0
6.3 0.1 0
6.6 0.1 0
6.9 0.1 0
7.2 0.1 0
7.5 0.1 0
7.8 0.1 0
8.1 0.1 0
8.4 0.1 0
8.7 0.1 0
9 0.1 0
9.3 0.1 0
9.6 0.1 0
9.9 0.1 0
10.2 0.1 0
10.5 0.1 0
10.8 0.1 0
11.1 0.1 0
11.4 0.1 0
11.7 0.1 0
12 0.1 0
12.3 0.1 0
12.6 0.1 0
12.9 0.1 0
13.2 0.1 0
13.5 0.1 0
13.8 0.1 0
14.1 0.1 0
14.4 0.1 0
14.7 0.1 0
15 0.1 0
15.3 0.1 0
15.6 0.1 0
15.9 0.1 0
16.2 0.1 0
16.5 0.1 0
16.8 0.1 0
17.1 0.1 0
17.4 0.1 0
17.7 0.1 0
18 0.1 0
18.3 0.1 0
18.6 0.1 0
18.9 0.1 0
19.2 0.1 0
19.5 0.1 0
19.8 0.1 0
20.1 0.1 0
20.4 0.1 0
20.7 0.1 0
21 0.1 0
21.3 0.1 0
21.6 0.1 0
21.9 0.1 0
22.2 0.1 0
22.5 0.1 0
22.8 0.1 0
23.1 0.1 0
23.4 0.1 0
23.7 0.1 0
24 0.1 0
24.3 0.1 0
24.6 0.1 0
24.9 0.1 0
25.2 0.1 0
25.5 0.1 0
25.8 0.1 0
26.1 0.1 0
26.4 0.1 0
26.7 0.1 0
27 0.1 0
27.3 0.1 0
27.6 0.1 0
27.9 0.1 0
28.2 0.1 0
28.5 0.1 0
28.8 0.1 0
29.1 0.1 0
29.4 0.1 0
29.7 0.1 0
30 0.1 0
30.3 0.1 0
30.6 0.1 0
0 0.2 0
0.3 0.2 0
0.6 0.2 0
0.9 0.2 0
1.2 0.2 0
1.5 0.2 0
1.8 0.2 0
2.1 0.2 0
2.4 0.2 0
2.7 0.2 0
3 0.2 0
3.3 0.2 0
3.6 0.2 0
3.9 0.2 0
4.2 0.2 0
4.5 0.2 0
4.8 0.2 0
5.1 0.2 0
5.4 0.2 0
5.7 0.2 0
6 0.2 0
6.3 0.2 0
6.6 0.2 0
6.9 0.2 0
7.2 0.2 0
7.5 0.2 0
7.8 0.2 0
8.1 0.2 0
8.4 0.2 0
8.7 0.2 0
9 0.2 0
9.3 0.2 0
9.6 0.2 0
9.9 0.2 0
10.2 0.2 0
10.5 0.2 0
10.8 0.2 0
11.1 0.2 0
11.4 0.2 0
11.7 0.2 0
12 0.2 0
12.3 0.2 0
12.6 0.2 0
12.9 0.2 0
13.2 0.2 0
13.5 0.2 0
13.8 0.2 0
14.1 0.2 0
14.4 0.2 0
14.7 0.2 0
15 0.2 0
15.3 0.2 0
15.6 0.2 0
15.9 0.2 0
16.2 0.2 0
16.5 0.2 0
16.8 0.2 0
17.1 0.2 0
17.4 0.2 0
17.7 0.2 0
18 0.2 0
18.3 0.2 0
18.6 0.2 0
18.9 0.2 0
19.2 0.2 0
19.5 0.2 0
19.8 0.2 0
20.1 0.2 0
20.4 0.2 0
20.7 0.2 0
21 0.2 0
21.3 0.2 0
21.6 0.2 0
21.9 0.2 0
22.2 0.2 0
22.5 0.2 0
22.8 0.2 0
23.1 0.2 0
23.4 0.2 0
23.7 0.2 0
24 0.2 0
24.3 0.2 0
24.6 0.2 0
24.9 0.2 0
25.2 0.2 0
25.5 0.2 0
25.8 0.2 0
26.1 0.2 0
26.4 0.2 0
26.7 0.2 0
27 0.2 0
27.3 0.2 0
27.6 0.2 0
27.9 0.2 0
28.2 0.2 0
28.5 0.2 0
28.8 0.2 0
29.1 0.2 0
29.4 0.2 0
29.7 0.2 0
30 0.2 0
30.3 0.2 0
30.6 0.2 0
0 0.3 0
0.3 0.3 0
0.6 0.3 0
0.9 0.3 0
1.2 0.3 0
1.5 0.3 0
1.8 0.3 0
2.1 0.3 0
2.4 0.3 0
2.7 0.3 0
3 0.3 0
3.3 0.3 0
3.6 0.3 0
3.9 0.3 0
4.2 0.3 0
4.5 0.3 0
4.8 0.3 0
5.1 0.3 0
5.4 0.3 0
5.7 0.3 0
6 0.3 0
6.3 0.3 0
6.6 0.3 0
6.9 0.3 0
7.2 0.3 0
7.5 0.3 0
7.8 0.3 0
8.1 0.3 0
8.4 0.3 0
8.7 0.3 0
9 0.3 0
9.3 0.3 0
9.6 0.3 0
9.9 0.3 0
10.2 0.3 0
10.5 0.3 0
10.8 0.3 0
11.1 0.3 0
11.4 0.3 0
11.7 0.3 0
12 0.3 0
12.3 0.3 0
12.6 0.3 0
12.9 0.3 0
13.2 0.3 0
13.5 0.3 0
13.8 0.3 0
14.1 0.3 0
14.4 0.3 0
14.7 0.3 0
15 0.3 0
15.3 0.3 0
15.6 0.3 0
15.9 0.3 0
16.2 0.3 0
16.5 0.3 0
16.8 0.3 0
17.1 0.3 0
17.4 0.3 0
17.7 0.3 0
18 0.3 0
18.3 0.3 0
18.6 0.3 0
18.9 0.3 0
19.2 0.3 0
19.5 0.3 0
19.8 0.3 0
20.1 0.3 0
20.4 0.3 0
20.7 0.3 0
21 0.3 0
21.3 0.3 0
21.6 0.3 0
21.9 0.3 0
22.2 0.3 0
22.5 0.3 0
22.8 0.3 0
23.1 0.3 0
23.4 0.3 0
23.7 0.3 0
24 0.3 0
24.3 0.3 0
24.6 0.3 0
24.9 0.3 0
25.2 0.3 0
25.5 0.3 0
25.8 0.3 0
26.1 0.3 0
26.4 0.3 0
26.7 0.3 0
27 0.3 0
27.3 0.3 0
27.6 0.3 0
27.9 0.3 0
28.2 0.3 0
28.5 0.3 0
28.8 0.3 0
29.1 0.3 0
29.4 0.3 0
29.7 0.3 0
30 0.3 0
30.3 0.3 0
30.6 0.3 0
0 0.4 0
0.3 0.4 0
0.6 0.4 0
0.9 0.4 0
1.2 0.4 0
1.5 0.4 0
1.8 0.4 0
2.1 0.4 0
2.4 0.4 0
2.7 0.4 0
3 0.4 0
3.3 0.4 0
3.6 0.4 0
3.9 0.4 0
4.2 0.4 0
4.5 0.4 0
4.8 0.4 0
5.1 0.4 0
5.4 0.4 0
5.7 0.4 0
6 0.4 0
6.3 0.4 0
6.6 0.4 0
6.9 0.4 0
7.2 0.4 0
7.5 0.4 0
7.8 0.4 0
8.1 0.4 0
8.4 0.4 0
8.7 0.4 0
9 0.4 0
9.3 0.4 0
9.6 0.4 0
9.9 0.4 0
10.2 0.4 0
10.5 0.4 0
10.8 0.4 0
11.1 0.4 0
11.4 0.4 0
11.7 0.4 0
12 0.4 0
12.3 0.4 0
12.6 0.4 0
12.9 0.4 0
13.2 0.4 0
13.5 0.4 0
13.8 0.4 0
14.1 0.4 0
14.4 0.4 0
14.7 0.4 0
15 0.4 0
15.3 0.4 0
15.6 0.4 0
15.9 0.4 0
16.2 0.4 0
16.5 0.4 0
16.8 0.4 0
17.1 0.4 0
17.4 0.4 0
17.7 0.4 0
18 0.4 0
18.3 0.4 0
18.6 0.4 0
18.9 0.4 0
19.2 0.4 0
19.5 0.4 0
19.8 0.4 0
20.1 0.4 0
20.4 0.4 0
20.7 0.4 0
21 0.4 0
21.3 0.4 0
21.6 0.4 0
21.9 0.4 0
22.2 0.4 0
22.5 0.4 0
22.8 0.4 0
23.1 0.4 0
23.4 0.4 0
23.7 0.4 0
24 0.4 0
24.3 0.4 0
24.6 0.4 0
24.9 0.4 0
25.2 0.4 0
25.5 0.4 0
25.8 0.4 0
26.1 0.4 0
26.4 0.4 0
26.7 0.4 0
27 0.4 0
27.3 0.4 0
27.6 0.4 0
27.9 0.4 0
28.2 0.4 0
28.5 0.4 0
28.8 0.4 0
29.1 0.4 0
29.4 0.4 0
29.7 0.4 0
30 0.4 0
30.3 0.4 0
30.6 0.4 0
0 0.5 0
0.3 0.5 0
0.6 0.5 0
0.9 0.5 0
1.2 0.5 0
1.5 0.5 0
1.8 0.5 0
2.1 0.5 0
2.4 0.5 0
2.7 0.5 0
3 0.5 0
3.3 0.5 0
3.6 0.5 0
3.9 0.5 0
4.2 0.5 0
4.5 0.5 0
4.8 0.5 0
5.1 0.5 0
5.4 0.5 0
5.7 0.5 0
6 0.5 0
6.3 0.5 0
6.6 0.5 0
6.9 0.5 0
7.2 0.5 0
7.5 0.5 0
7.8 0.5 0
8.1 0.5 0
8.4 0.5 0
8.7 0.5 0
9 0.5 0
9.3 0.5 0
9.6 0.5 0
9.9 0.5 0
10.2 0.5 0
10.5 0.5 0
10.8 0.5 0
11.1 0.5 0
11.4 0.5 0
11.7 0.5 0
12 0.5 0
12.3 0.5 0
12.6 0.5 0
12.9 0.5 0
13.2 0.5 0
13.5 0.5 0
13.8 0.5 0
14.1 0.5 0
14.4 0.5 0
14.7 0.5 0
15 0.5 0
15.3 0.5 0
15.6 0.5 0
15.9 0.5 0
16.2 0.5 0
16.5 0.5 0
16.8 0.5 0
17.1 0.5 0
17.4 0.5 0
17.7 0.5 0
18 0.5 0
18.3 0.5 0
18.6 0.5 0
18.9 0.5 0
19.2 0.5 0
19.5 0.5 0
19.8 0.5 0
20.1 0.5 0
20.4 0.5 0
20.7 0.5 0
21 0.5 0
21.3 0.5 0
21.6 0.5 0
21.9 0.5 0
22.2 0.5 0
22.5 0.5 0
22.8 0.5 0
23.1 0.5 0
23.4 0.5 0
23.7 0.5 0
24 0.5 0
24.3 0.5 0
24.6 0.5 0
24.9 0.5 0
25.2 0.5 0
25.5 0.5 0
25.8 0.5 0
26.1 0.5 0
26.4 0.5 0
26.7 0.5 0
27 0.5 0
27.3 0.5 0
27.6 0.5 0
27.9 0.5 0
28.2 0.5 0
28.5 0.5 0
28.8 0.5 0
29.1 0.5 0
29.4 0.5 0
29.7 0.5 0
30 0.5 0
30.3 0.5 0
30.6 0.5 0
0 0.6 0
0.3 0.6 0
0.6 0.6 0
0.9 0.6 0
1.2 0.6 0
1.5 0.6 0
1.8 0.6 0
2.1 0.6 0
2.4 0.6 0
2.7 0.6 0
3 0.6 0
3.3 0.6 0
3.6 0.6 0
3.9 0.6 0
4.2 0.6 0
4.5 0.6 0
4.8 0.6 0
5.1 0.6 0
5.4 0.6 0
5.7 0.6 0
6 0.6 0
6.3 0.6 0
6.6 0.6 0
6.9 0.6 0
7.2 0.6 0
7.5 0.6 0
7.8 0.6 0
8.1 0.6 0
8.4 0.6 0
8.7 0.6 0
9 0.6 0
9.3 0.6 0
9.6 0.6 0
9.9 0.6 0
10.2 0.6 0
10.5 0.6 0
10.8 0.6 0
11.1 0.6 0
11.4 0.6 0
11.7 0.6 0
12 0.6 0
12.3 0.6 0
12.6 0.6 0
12.9 0.6 0
13.2 0.6 0
13.5 0.6 0
13.8 0.6 0
14.1 0.6 0
14.4 0.6 0
14.7 0.6 0
15 0.6 0
15.3 0.6 0
15.6 0.6 0
15.9 0.6 0
16.2 0.6 0
16.5 0.6 0
16.8 0.6 0
17.1 0.6 0
17.4 0.6 0
17.7 0.6 0
18 0.6 0
18.3 0.6 0
18.6 0.6 0
18.9 0.6 0
19.2 0.6 0
19.5 0.6 0
19.8 0.6 0
20.1 0.6 0
20.4 0.6 0
20.7 0.6 0
21 0.6 0
21.3 0.6 0
21.6 0.6 0
21.9 0.6 0
22.2 0.6 0
22.5 0.6 0
22.8 0.6 0
23.1 0.6 0
23.4 0.6 0
23.7 0.6 0
24 0.6 0
24.3 0.6 0
24.6 0.6 0
24.9 0.6 0
25.2 0.6 0
25.5 0.6 0
25.8 0.6 0
26.1 0.6 0
26.4 0.6 0
26.7 0.6 0
27 0.6 0
27.3 0.6 0
27.6 0.6 0
27.9 0.6 0
28.2 0.6 0
28.5 0.6 0
28.8 0.6 0
29.1 0.6 0
29.4 0.6 0
29.7 0.6 0
30 0.6 0
30.3 0.6 0
30.6 0.6 0
0 0.7 0
0.3 0.7 0
0.6 0.7 0
0.9 0.7 0
1.2 0.7 0
1.5 0.7 0
1.8 0.7 0
2.1 0.7 0
2.4 0.7 0
2.7 0.7 0
3 0.7 0
3.3 0.7 0
3.6 0.7 0
3.9 0.7 0
4.2 0.7 0
4.5 0.7 0
4.8 0.7 0
5.1 0.7 0
5.4 0.7 0
5.7 0.7 0
6 0.7 0
6.3 0.7 0
6.6 0.7 0
6.9 0.7 0
7.2 0.7 0
7.5 0.7 0
7.8 0.7 0
8.1 0.7 0
8.4 0.7 0
8.7 0.7 0
9 0.7 0
9.3 0.7 0
9.6 0.7 0
9.9 0.7 0
10.2 0.7 0
10.5 0.7 0
10.8 0.7 0
11.1 0.7 0
11.4 0.7 0
11.7 0.7 0
12 0.7 0
12.3 0.7 0
12.6 0.7 0
12.9 0.7 0
13.2 0.7 0
13.5 0.7 0
13.8 0.7 0
14.1 0.7 0
14.4 0.7 0
14.7 0.7 0
15 0.7 0
15.3 0.7 0
15.6 0.7 0
15.9 0.7 0
16.2 0.7 0
16.5 0.7 0
16.8 0.7 0
17.1 0.7 0
17.4 0.7 0
17.7 0.7 0
18 0.7 0
18.3 0.7 0
18.6 0.7 0
18.9 0.7 0
19.2 0.7 0
19.5 0.7 0
19.8 0.7 0
20.1 0.7 0
20.4 0.7 0
20.7 0.7 0
21 0.7 0
21.3 0.7 0
21.6 0.7 0
21.9 0.7 0
22.2 0.7 0
22.5 0.7 0
22.8 0.7 0
23.1 0.7 0
23.4 0.7 0
23.7 0.7 0
24 0.7 0
24.3 0.7 0
24.6 0.7 0
24.9 0.7 0
25.2 0.7 0
25.5 0.7 0
25.8 0.7 0
26.1 0.7 0
26.4 0.7 0
26.7 0.7 0
27 0.7 0
27.3 0.7 0
27.6 0.7 0
27.9 0.7 0
28.2 0.7 0
28.5 0.7 0
28.8 0.7 0
29.1 0.7 0
29.4 0.7 0
29.7 0.7 0
30 0.7 0
30.3 0.7 0
30.6 0.7 0
0 0.8 0
0.3 0.8 0
0.6 0.8 0
0.9 0.8 0
1.2 0.8 0
1.5 0.8 0
1.8 0.8 0
2.1 0.8 0
2.4 0.8 0
2.7 0.8 0
3 0.8 0
3.3 0.8 0
3.6 0.8 0
3.9 0.8 0
4.2 0.8 0
4.5 0.8 0
4.8 0.8 0
5.1 0.8 0
5.4 0.8 0
5.7 0.8 0
6 0.8 0
6.3 0.8 0
6.6 0.8 0
6.9 0.8 0
7.2 0.8 0
7.5 0.8 0
7.8 0.8 0
8.1 0.8 0
8.4 0.8 0
8.7 0.8 0
9 0.8 0
9.3 0.8 0
9.6 0.8 0
9.9 0.8 0
10.2 0.8 0
10.5 0.8 0
10.8 0.8 0
11.1 0.8 0
11.4 0.8 0
11.7 0.8 0
12 0.8 0
12.3 0.8 0
12.6 0.8 0
12.9 0.8 0
13.2 0.8 0
13.5 0.8 0
13.8 0.8 0
14.1 0.8 0
14.4 0.8 0
14.7 0.8 0
15 0.8 0
15.3 0.8 0
15.6 0.8 0
15.9 0.8 0
16.2 0.8 0
16.5 0.8 0
16.8 0.8 0
17.1 0.8 0
17.4 0.8 0
17.7 0.8 0
18 0.8 0
18.3 0.8 0
18.6 0.8 0
18.9 0.8 0
19.2 0.8 0
19.5 0.8 0
19.8 0.8 0
20.1 0.8 0
20.4 0.8 0
20.7 0.8 0
21 0.8 0
21.3 0.8 0
21.6 0.8 0
21.9 0.8 0
22.2 0.8 0
22.5 0.8 0
22.8 0.8 0
23.1 0.8 0
23.4 0.8 0
23.7 0.8 0
24 0.8 0
24.3 0.8 0
24.6 0.8 0
24.9 0.8 0
25.2 0.8 0
25.5 0.8 0
25.8 0.8 0
26.1 0.8 0
26.4 0.8 0
26.7 0.8 0
27 0.8 0
27.3 0.8 0
27.6 0.8 0
27.9 0.8 0
28.2 0.8 0
28.5 0.8 0
28.8 0.8 0
29.1 0.8 0
29.4 0.8 0
29.7 0.8 0
30 0.8 0
30.3 0.8 0
30.6 0.8 0
0 0.9 0
0.3 0.9 0
0.6 0.9 0
0.9 0.9 0
1.2 0.9 0
1.5 0.9 0
1.8 0.9 0
2.1 0.9 0
2.4 0.9 0
2.7 0.9 0
3 0.9 0
3.3 0.9 0
3.6 0.9 0
3.9 0.9 0
4.2 0.9 0
4.5 0.9 0
4.8 0.9 0
5.1 0.9 0
5.4 0.9 0
5.7 0.9 0
6 0.9 0
6.3 0.9 0
6.6 0.9 0
6.9 0.9 0
7.2 0.9 0
7.5 0.9 0
7.8 0.9 0
8.1 0.9 0
8.4 0.9 0
8.7 0.9 0
9 0.9 0
9.3 0.9 0
9.6 0.9 0
9.9 0.9 0
10.2 0.9 0
10.5 0.9 0
10.8 0.9 0
11.1 0.9 0
11.4 0.9 0
11.7 0.9 0
12 0.9 0
12.3 0.9 0
12.6 0.9 0
12.9 0.9 0
13.2 0.9 0
13.5 0.9 0
13.8 0.9 0
14.1 0.9 0
14.4 0.9 0
14.7 0.9 0
15 0.9 0
15.3 0.9 0
15.6 0.9 0
15.9 0.9 0
16.2 0.9 0
16.5 0.9 0
16.8 0.9 0
17.1 0.9 0
17.4 0.9 0
17.7 0.9 0
18 0.9 0
18.3 0.9 0
18.6 0.9 0
18.9 0.9 0
19.2 0.9 0
19.5 0.9 0
19.8 0.9 0
20.1 0.9 0
20.4 0.9 0
20.7 0.9 0
21 0.9 0
21.3 0.9 0
21.6 0.9 0
21.9 0.9 0
22.2 0.9 0
22.5 0.9 0
22.8 0.9 0
23.1 0.9 0
23.4 0.9 0
23.7 0.9 0
24 0.9 0
24.3 0.9 0
24.6 0.9 0
24.9 0.9 0
25.2 0.9 0
25.5 0.9 0
25.8 0.9 0
26.1 0.9 0
26.4 0.9 0
26.7 0.9 0
27 0.9 0
27.3 0.9 0
27.6 0.9 0
27.9 0.9 0
28.2 0.9 0
28.5 0.9 0
28.8 0.9 0
29.1 0.9 0
29.4 0.9 0
29.7 0.9 0
30 0.9 0
30.3 0.9 0
30.6 0.9 0
0 1 0
0.3 1 0
0.6 1 0
0.9 1 0
1.2 1 0
1.5 1 0
1.8 1 0
2.1 1 0
2.4 1 0
2.7 1 0
3 1 0
3.3 1 0
3.6 1 0
3.9 1 0
4.2 1 0
4.5 1 0
4.8 1 0
5.1 1 0
5.4 1 0
5.7 1 0
6 1 0
6.3 1 0
6.6 1 0
6.9 1 0
7.2 1 0
7.5 1 0
7.8 1 0
8.1 1 0
8.4 1 0
8.7 1 0
9 1 0
9.3 1 0
9.6 1 0
9.9 1 0
10.2 1 0
10.5 1 0
10.8 1 0
11.1 1 0
11.4 1 0
11.7 1 0
12 1 0
12.3 1 0
12.6 1 0
12.9 1 0
13.2 1 0
13.5 1 0
13.8 1 0
14.1 1 0
14.4 1 0
14.7 1 0
15 1 0
15.3 1 0
15.6 1 0
15.9 1 0
16.2 1 0
16.5 1 0
16.8 1 0
17.1 1 0
17.4 1 0
17.7 1 0
18 1 0
18.3 1 0
18.6 1 0
18.9 1 0
19.2 1 0
19.5 1 0
19.8 1 0
20.1 1 0
20.4 1 0
20.7 1 0
21 1 0
21.3 1 0
21.6 1 0
21.9 1 0
22.2 1 0
22.5 1 0
22.8 1 0
23.1 1 0
23.4 1 0
23.7 1 0
24 1 0
24.3 1 0
24.6 1 0
24.9 1 0
25.2 1 0
25.5 1 0
25.8 1 0
26.1 1 0
26.4 1 0
26.7 1 0
27 1 0
27.3 1 0
27.6 1 0
27.9 1 0
28.2 1 0
28.5 1 0
28.8 1 0
29.1 1 0
29.4 1 0
29.7 1 0
30 1 0
30.3 1 0
30.6 1 0
0 1.1 0
0.3 1.1 0
0.6 1.1 0
0.9 1.1 0
1.2 1.1 0
1.5 1.1 0
1.8 1.1 0
2.1 1.1 0
2.4 1.1 0
2.7 1.1 0
3 1.1 0
3.3 1.1 0
3.6 1.1 0
3.9 1.1 0
4.2 1.1 0
4.5 1.1 0
4.8 1.1 0
5.1 1.1 0
5.4 1.1 0
5.7 1.1 0
6 1.1 0
6.3 1.1 0
6.6 1.1 0
6.9 1.1 0
7.2 1.1 0
7.5 1.1 0
7.8 1.1 0
8.1 1.1 0
8.4 1.1 0
8.7 1.1 0
9 1.1 0
9.3 1.1 0
9.6 1.1 0
9.9 1.1 0
10.2 1.1 0
10.5 1.1 0
10.8 1.1 0
11.1 1.1 0
11.4 1.1 0
11.7 1.1 0
12 1.1 0
12.3 1.1 0
12.6 1.1 0
12.9 1.1 0
13.2 1.1 0
13.5 1.1 0
13.8 1.1 0
14.1 1.1 0
14.4 1.1 0
14.7 1.1 0
15 1.1 0
15.3 1.1 0
15.6 1.1 0
15.9 1.1 0
16.2 1.1 0
16.5 1.1 0
16.8 1.1 0
17.1 1.1 0
17.4 1.1 0
17.7 1.1 0
18 1.1 0
18.3 1.1 0
18.6 1.1 0
18.9 1.1 0
19.2 1.1 0
19.5 1.1 0
19.8 1.1 0
20.1 1.1 0
20.4 1.1 0
20.7 1.1 0
21 1.1 0
21.3 1.1 0
21.6 1.1 0
21.9 1.1 0
22.2 1.1 0
22.5 1.1 0
22.8 1.1 0
23.1 1.1 0
23.4 1.1 0
23.7 1.1 0
24 1.1 0
24.3 1.1 0
24.6 1.1 0
24.9 1.1 0
25.2 1.1 0
25.5 1.1 0
25.8 1.1 0
26.1 1.1 0
26.4 1.1 0
26.7 1.1 0
27 1.1 0
27.3 1.1 0
27.6 1.1 0
27.9 1.1 0
28.2 1.1 0
28.5 1.1 0
28.8 1.1 0
29.1 1.1 0
29.4 1.1 0
29.7 1.1 0
30 1.1 0
30.3 1.1 0
30.6 1.1 0
0 1.2 0
0.3 1.2 0
0.6 1.2 0
0.9 1.2 0
1.2 1.2 0
1.5 1.2 0
1.8 1.2 0
2.1 1.2 0
2.4 1.2 0
2.7 1.2 0
3 1.2 0
3.3 1.2 0
3.6 1.2 0
3.9 1.2 0
4.2 1.2 0
4.5 1.2 0
4.8 1.2 0
5.1 1.2 0
5.4 1.2 0
5.7 1.2 0
6 1.2 0
6.3 1.2 0
6.6 1.2 0
6.9 1.2 0
7.2 1.2 0
7.5 1.2 0
7.8 1.2 0
8.1 1.2 0
8.4 1.2 0
8.7 1.2 0
9 1.2 0
9.3 1.2 0
9.6 1.2 0
9.9 1.2 0
10.2 1.2 0
10.5 1.2 0
10.8 1.2 0
11.1 1.2 0
11.4 1.2 0
11.7 1.2 0
12 1.2 0
12.3 1.2 0
12.6 1.2 0
12.9 1.2 0
13.2 1.2 0
13.5 1.2 0
13.8 1.2 0
14.1 1.2 0
14.4 1.2 0
14.7 1.2 0
15 1.2 0
15.3 1.2 0
15.6 1.2 0
15.9 1.2 0
16.2 1.2 0
16.5 1.2 0
16.8 1.2 0
17.1 1.2 0
17.4 1.2 0
17.7 1.2 0
18 1.2 0
18.3 1.2 0
18.6 1.2 0
18.9 1.2 0
19.2 1.2 0
19.5 1.2 0
19.8 1.2 0
20.1 1.2 0
20.4 1.2 0
20.7 1.2 0
21 1.2 0
21.3 1.2 0
21.6 1.2 0
21.9 1.2 0
22.2 1.2 0
22.5 1.2 0
22.8 1.2 0
23.1 1.2 0
23.4 1.2 0
23.7 1.2 0
24 1.2 0
24.3 1.2 0
24.6 1.2 0
24.9 1.2 0
25.2 1.2 0
25.5 1.2 0
25.8 1.2 0
26.1 1.2 0
26.4 1.2 0
26.7 1.2 0
27 1.2 0
27.3 1.2 0
27.6 1.2 0
27.9 1.2 0
28.2 1.2 0
28.5 1.2 0
28.8 1.2 0
29.1 1.2 0
29.4 1.2 0
29.7 1.2 0
30 1.2 0
30.3 1.2 0
30.6 1.2 0

POINT_DATA 1339

SCALARS pressure double
LOOKUP_TABLE pressure
1.17107
1.17107
1.10623
1.06199
1.02217
0.985593
0.952541
0.923013
0.896657
0.872949
0.851346
0.831383
0.81269
0.794991
0.778084
0.761825
0.746106
0.73085
0.715998
0.701503
0.687329
0.673444
0.659823
0.646445
0.633289
0.62034
0.60758
0.594997
0.582579
0.570316
0.558195
0.546208
0.534347
0.522604
0.510971
0.499442
0.488011
0.476671
0.465418
0.454246
0.443151
0.432129
0.421174
0.410284
0.399455
0.388684
0.377967
0.367301
0.356684
0.346113
0.335585
0.325098
0.31465
0.304239
0.293863
0.283519
0.273206
0.262924
0.252669
0.242441
0.232239
0.222062
0.211909
0.20178
0.191671
0.181584
0.17152
0.161476
0.151449
0.141443
0.131455
0.121484
0.11153
0.10159
0.0916647
0.0817525
0.0718525
0.0619634
0.0520839
0.0422129
0.0323495
0.0224928
0.0126419
0.00279569
-0.00704654
-0.0168852
-0.026721
-0.0365547
-0.0463865
-0.0562167
-0.0660458
-0.0758739
-0.0857013
-0.0955282
-0.105355
-0.115181
-0.125007
-0.134832
-0.144658
-0.154483
-0.164309
-0.174132
0.174132
1.17107
1.17107
1.10623
1.06199
1.02217
0.985593
0.952541
0.923013
0.896657
0.872949
0.851346
0.831383
0.81269
0.794991
0.778084
0.761825
0.746106
0.73085
0.715998
0.701503
0.687329
0.673444
0.659823
0.646445
0.633289
0.62034
0.60758
0.594997
0.582579
0.570316
0.558195
0.546208
0.534347
0.522604
0.510971
0.499442
0.488011
0.476671
0.465418
0.454246
0.443151
0.432129
0.421174
0.410284
0.399455
0.388684
0.377967
0.367301
0.356684
0.346113
0.335585
0.325098
0.31465
0.304239
0.293863
0.283519
0.273206
0.262924
0.252669
0.242441
0.232239
0.222062
0.211909
0.20178
0.191671
0.181584
0.17152
0.161476
0.151449
0.141443
0.131455
0.121484
0.11153
0.10159
0.0916647
0.0817525
0.0718525
0.0619634
0.0520839
0.0422129
0.0323495
0.0224928
0.0126419
0.00279569
-0.00704654
-0.0168852
-0.026721
-0.0365547
-0.0463865
-0.0562167
-0.0660458
-0.0758739
-0.0857013
-0.0955282
-0.105355
-0.115181
-0.125007
-0.134832
-0.144658
-0.154483
-0.164309
-0.174132
0.174132
1.15013
1.15013
1.10424
1.06222
1.02287
0.98639
0.953284
0.923644
0.897165
0.873344
0.85165
0.831617
0.812872
0.795135
0.778202
0.761922
0.746189
0.730922
0.716061
0.701559
0.687378
0.673489
0.659864
0.646481
0.633323
0.62037
0.607608
0.595023
0.582603
0.570338
0.558216
0.546228
0.534365
0.522621
0.510987
0.499457
0.488024
0.476684
0.46543
0.454257
0.443162
0.432138
0.421184
0.410293
0.399463
0.388692
0.377975
0.367308
0.356691
0.346119
0.335591
0.325104
0.314656
0.304244
0.293867
0.283523
0.273211
0.262928
0.252673
0.242445
0.232242
0.222065
0.211912
0.201782
0.191673
0.181586
0.171522
0.161477
0.151451
0.141444
0.131456
0.121485
0.11153
0.101591
0.0916651
0.0817529
0.0718528
0.0619636
0.052084
0.042213
0.0323495
0.0224929
0.0126419
0.00279564
-0.00704655
-0.0168852
-0.0267211
-0.0365548
-0.0463865
-0.0562167
-0.0660458
-0.0758739
-0.0857013
-0.0955282
-0.105355
-0.115181
-0.125007
-0.134832
-0.144658
-0.154483
-0.164309
-0.174132
0.174132
1.13515
1.13515
1.10136
1.06245
1.02398
0.987714
0.954545
0.924723
0.898026
0.874003
0.852142
0.831982
0.813144
0.795341
0.77836
0.762047
0.74629
0.731006
0.716131
0.70162
0.687432
0.673535
0.659905
0.646518
0.633356
0.6204
0.607635
0.595048
0.582626
0.570359
0.558235
0.546245
0.534381
0.522635
0.511001
0.499469
0.488036
0.476695
0.46544
0.454267
0.44317
0.432147
0.421191
0.4103
0.39947
0.388698
0.37798
0.367314
0.356696
0.346124
0.335596
0.325108
0.31466
0.304248
0.293871
0.283527
0.273214
0.262931
0.252675
0.242447
0.232245
0.222067
0.211914
0.201783
0.191674
0.181588
0.171523
0.161478
0.151452
0.141445
0.131457
0.121486
0.111531
0.101591
0.0916655
0.0817532
0.071853
0.0619637
0.0520841
0.042213
0.0323496
0.0224929
0.0126419
0.00279559
-0.00704655
-0.0168852
-0.0267211
-0.0365548
-0.0463865
-0.0562167
-0.0660458
-0.0758739
-0.0857013
-0.0955282
-0.105355
-0.115181
-0.125007
-0.134832
-0.144658
-0.154483
-0.164308
-0.174132
0.174132
1.12558
1.12558
1.09887
1.06256
1.02494
0.988908
0.955722
0.925759
0.898879
0.874675
0.85266
0.832376
0.813446
0.795575
0.778545
0.762197
0.746413
0.731109
0.716219
0.701696
0.687498
0.673594
0.659957
0.646565
0.633397
0.620437
0.607669
0.595078
0.582654
0.570384
0.558258
0.546266
0.5344
0.522653
0.511017
0.499485
0.48805
0.476708
0.465452
0.454278
0.443181
0.432156
0.4212
0.410309
0.399478
0.388706
0.377987
0.36732
0.356702
0.34613
0.335601
0.325113
0.314665
0.304253
0.293875
0.283531
0.273218
0.262934
0.252679
0.24245
0.232248
0.22207
0.211917
0.201786
0.191677
0.181591
0.171525
0.16148
0.151454
0.141447
0.131458
0.121487
0.111532
0.101592
0.0916665
0.0817541
0.0718538
0.0619643
0.0520846
0.0422135
0.03235
0.0224933
0.0126421
0.0027958
-0.00704635
-0.0168851
-0.0267211
-0.0365547
-0.0463865
-0.0562167
-0.0660457
-0.0758739
-0.0857013
-0.0955282
-0.105355
-0.115181
-0.125007
-0.134832
-0.144658
-0.154483
-0.164307
-0.174131
0.174131
1.12026
1.12026
1.09724
1.06257
1.02553
0.989675
0.956491
0.926449
0.899457
0.875139
0.853024
0.83266
0.813669
0.795752
0.778688
0.762314
0.746512
0.731193
0.716293
0.70176
0.687555
0.673644
0.660002
0.646606
0.633435
0.620471
0.607699
0.595106
0.582679
0.570407
0.558279
0.546286
0.534419
0.52267
0.511033
0.499499
0.488063
0.47672
0.465464
0.454289
0.443191
0.432166
0.421209
0.410317
0.399486
0.388713
0.377994
0.367326
0.356708
0.346135
0.335606
0.325118
0.314669
0.304257
0.293879
0.283535
0.273221
0.262937
0.252682
0.242454
0.232251
0.222073
0.211919
0.201788
0.19168
0.181593
0.171527
0.161482
0.151456
0.141449
0.13146
0.121489
0.111533
0.101593
0.0916679
0.0817554
0.0718549
0.0619653
0.0520854
0.0422142
0.0323507
0.0224938
0.0126426
0.0027962
-0.00704601
-0.0168848
-0.0267209
-0.0365545
-0.0463863
-0.0562166
-0.0660457
-0.0758738
-0.0857013
-0.0955281
-0.105355
-0.115181
-0.125007
-0.134832
-0.144658
-0.154482
-0.164306
-0.17413
0.17413
1.11856
1.11856
1.0967
1.06259
1.02574
0.989949
0.956765
0.926694
0.899664
0.875306
0.853157
0.832765
0.813751
0.795818
0.778743
0.76236
0.746551
0.731227
0.716322
0.701786
0.687578
0.673665
0.660021
0.646623
0.63345
0.620485
0.607712
0.595118
0.58269
0.570417
0.558288
0.546294
0.534427
0.522678
0.511039
0.499505
0.488069
0.476726
0.465469
0.454293
0.443195
0.43217
0.421213
0.41032
0.399489
0.388716
0.377997
0.367329
0.356711
0.346138
0.335609
0.32512
0.314671
0.304259
0.293881
0.283536
0.273223
0.262939
0.252683
0.242455
0.232252
0.222074
0.21192
0.201789
0.191681
0.181594
0.171528
0.161483
0.151457
0.14145
0.131461
0.12149
0.111534
0.101594
0.0916685
0.0817559
0.0718554
0.0619657
0.0520858
0.0422146
0.032351
0.0224941
0.0126428
0.00279642
-0.00704585
-0.0168847
-0.0267207
-0.0365544
-0.0463862
-0.0562165
-0.0660456
-0.0758738
-0.0857012
-0.0955281
-0.105355
-0.115181
-0.125006
-0.134832
-0.144657
-0.154482
-0.164305
-0.17413
0.17413
1.12026
1.12026
1.09724
1.06257
1.02553
0.989675
0.956491
0.926449
0.899457
0.875139
0.853024
0.83266
0.813669
0.795752
0.778688
0.762314
0.746512
0.731193
0.716293
0.70176
0.687555
0.673644
0.660002
0.646606
0.633435
0.620471
0.607699
0.595106
0.58268
0.570407
0.558279
0.546286
0.534419
0.52267
0.511032
0.499499
0.488063
0.47672
0.465464
0.454289
0.443191
0.432166
0.421209
0.410317
0.399486
0.388713
0.377994
0.367327
0.356708
0.346135
0.335606
0.325118
0.314669
0.304257
0.293879
0.283535
0.273221
0.262937
0.252682
0.242454
0.232251
0.222073
0.211919
0.201788
0.19168
0.181593
0.171527
0.161482
0.151456
0.141449
0.13146
0.121489
0.111533
0.101594
0.0916679
0.0817553
0.0718548
0.0619652
0.0520854
0.0422143
0.0323507
0.0224938
0.0126426
0.00279624
-0.00704603
-0.0168849
-0.0267208
-0.0365545
-0.0463863
-0.0562166
-0.0660457
-0.0758738
-0.0857013
-0.0955281
-0.105355
-0.115181
-0.125006
-0.134832
-0.144658
-0.154483
-0.164306
-0.17413
0.17413
1.12558
1.12558
1.09887
1.06256
1.02494
0.988908
0.955722
0.925759
0.898879
0.874675
0.85266
0.832376
0.813446
0.795575
0.778545
0.762197
0.746413
0.731109
0.71622
0.701696
0.687498
0.673594
0.659957
0.646565
0.633397
0.620437
0.607669
0.595078
0.582654
0.570384
0.558257
0.546266
0.534401
0.522653
0.511017
0.499485
0.48805
0.476708
0.465452
0.454278
0.443181
0.432156
0.4212
0.410309
0.399478
0.388706
0.377987
0.36732
0.356702
0.34613
0.335601
0.325113
0.314665
0.304252
0.293875
0.283531
0.273217
0.262934
0.252679
0.242451
0.232248
0.22207
0.211917
0.201786
0.191677
0.18159
0.171525
0.16148
0.151454
0.141447
0.131458
0.121487
0.111532
0.101592
0.0916666
0.0817541
0.0718538
0.0619643
0.0520846
0.0422135
0.0323501
0.0224932
0.0126421
0.00279587
-0.00704635
-0.0168851
-0.026721
-0.0365547
-0.0463864
-0.0562167
-0.0660458
-0.0758739
-0.0857013
-0.0955282
-0.105355
-0.115181
-0.125007
-0.134832
-0.144658
-0.154483
-0.164307
-0.174131
0.174131
1.13515
1.13515
1.10136
1.06245
1.02398
0.987714
0.954545
0.924723
0.898026
0.874003
0.852142
0.831982
0.813144
0.795341
0.77836
0.762047
0.74629
0.731006
0.716132
0.70162
0.687431
0.673535
0.659905
0.646519
0.633356
0.6204
0.607635
0.595048
0.582626
0.570359
0.558234
0.546245
0.534381
0.522636
0.511
0.499469
0.488036
0.476695
0.46544
0.454267
0.44317
0.432147
0.421191
0.4103
0.39947
0.388698
0.37798
0.367314
0.356696
0.346124
0.335596
0.325108
0.31466
0.304248
0.293871
0.283527
0.273214
0.26293
0.252676
0.242447
0.232245
0.222067
0.211914
0.201783
0.191675
0.181588
0.171523
0.161478
0.151452
0.141445
0.131457
0.121486
0.111531
0.101591
0.0916656
0.0817532
0.071853
0.0619637
0.0520841
0.0422131
0.0323497
0.0224929
0.0126419
0.00279565
-0.00704653
-0.0168852
-0.0267211
-0.0365547
-0.0463865
-0.0562167
-0.0660458
-0.0758739
-0.0857013
-0.0955282
-0.105355
-0.115181
-0.125007
-0.134832
-0.144658
-0.154483
-0.164308
-0.174132
0.174132
1.15013
1.15013
1.10424
1.06222
1.02287
0.986389
0.953284
0.923645
0.897165
0.873344
0.85165
0.831617
0.812872
0.795136
0.778202
0.761922
0.746189
0.730922
0.716061
0.701559
0.687378
0.673489
0.659864
0.646482
0.633323
0.62037
0.607608
0.595023
0.582604
0.570338
0.558215
0.546227
0.534365
0.522621
0.510987
0.499457
0.488024
0.476684
0.46543
0.454257
0.443162
0.432138
0.421183
0.410293
0.399464
0.388692
0.377974
0.367308
0.356691
0.346119
0.335591
0.325104
0.314656
0.304244
0.293867
0.283523
0.27321
0.262928
0.252673
0.242445
0.232242
0.222065
0.211912
0.201781
0.191673
0.181587
0.171522
0.161476
0.151451
0.141444
0.131456
0.121485
0.11153
0.101591
0.0916652
0.081753
0.0718528
0.0619635
0.052084
0.042213
0.0323497
0.0224929
0.0126419
0.00279566
-0.0070465
-0.0168852
-0.0267211
-0.0365547
-0.0463865
-0.0562167
-0.0660458
-0.0758739
-0.0857013
-0.0955282
-0.105355
-0.115181
-0.125007
-0.134832
-0.144658
-0.154483
-0.164309
-0.174132
0.174132
1.17107
1.17107
1.10623
1.06199
1.02217
0.985593
0.952541
0.923013
0.896658
0.872948
0.851346
0.831383
0.81269
0.794991
0.778084
0.761825
0.746106
0.73085
0.715998
0.701503
0.687329
0.673444
0.659824
0.646445
0.633289
0.620339
0.60758
0.594997
0.58258
0.570316
0.558195
0.546208
0.534347
0.522604
0.510971
0.499442
0.488011
0.476671
0.465418
0.454246
0.443151
0.432128
0.421174
0.410284
0.399455
0.388684
0.377967
0.367301
0.356684
0.346113
0.335585
0.325099
0.314651
0.304239
0.293863
0.283519
0.273206
0.262924
0.252669
0.242441
0.232239
0.222062
0.211909
0.201779
0.191671
0.181585
0.17152
0.161475
0.15145
0.141443
0.131455
0.121484
0.111529
0.10159
0.0916648
0.0817527
0.0718526
0.0619634
0.0520838
0.0422129
0.0323496
0.0224929
0.0126419
0.00279566
-0.00704647
-0.0168852
-0.0267211
-0.0365547
-0.0463864
-0.0562167
-0.0660458
-0.0758739
-0.0857013
-0.0955282
-0.105355
-0.115181
-0.125007
-0.134832
-0.144658
-0.154483
-0.164309
-0.174132
0.174132
1.17107
1.17107
1.10623
1.06199
1.02217
0.985593
0.952541
0.923013
0.896658
0.872948
0.851346
0.831383
0.81269
0.794991
0.778084
0.761825
0.746106
0.73085
0.715998
0.701503
0.687329
0.673444
0.659824
0.646445
0.633289
0.620339
0.60758
0.594997
0.58258
0.570316
0.558195
0.546208
0.534347
0.522604
0.510971
0.499442
0.488011
0.476671
0.465418
0.454246
0.443151
0.432128
0.421174
0.410284
0.399455
0.388684
0.377967
0.367301
0.356684
0.346113
0.335585
0.325099
0.314651
0.304239
0.293863
0.283519
0.273206
0.262924
0.252669
0.242441
0.232239
0.222062
0.211909
0.201779
0.191671
0.181585
0.17152
0.161475
0.15145
0.141443
0.131455
0.121484
0.111529
0.10159
0.0916648
0.0817527
0.0718526
0.0619634
0.0520838
0.0422129
0.0323496
0.0224929
0.0126419
0.00279566
-0.00704647
-0.0168852
-0.0267211
-0.0365547
-0.0463864
-0.0562167
-0.0660458
-0.0758739
-0.0857013
-0.0955282
-0.105355
-0.115181
-0.125007
-0.134832
-0.144658
-0.154483
-0.164309
-0.174132
0.174132
SCALARS phi double
LOOKUP_TABLE phi
1
1
1
1
0.999999
0.999994
0.999982
0.999957
0.99991
0.99983
0.999706
0.999525
0.999277
0.998951
0.998536
0.998023
0.997406
0.996677
0.995832
0.99487
0.993793
0.992594
0.991245
0.989677
0.987773
0.985368
0.982258
0.978222
0.973047
0.966546
0.958572
0.949026
0.937855
0.925052
0.910653
0.894724
0.877361
0.858679
0.838811
0.817895
0.796076
0.7735
0.750309
0.726638
0.702619
0.678372
0.654008
0.629629
0.605327
0.581183
0.55727
0.533652
0.510383
0.487511
0.465076
0.443111
0.421644
0.400697
0.380288
0.360429
0.34113
0.322398
0.304235
0.286644
0.269624
0.253172
0.237287
0.221963
0.207198
0.192987
0.179326
0.166211
0.153638
0.141605
0.13011
0.11915
0.108726
0.0988353
0.0894793
0.0806572
0.0723686
0.0646125
0.0573868
0.0506879
0.0445104
0.0388463
0.0336853
0.0290137
0.0248151
0.0210696
0.0177546
0.0148447
0.0123121
0.0101275
0.00826024
0.00667914
0.00535328
0.00425196
0.00334782
0.00260644
0.00203254
0.00147559
0.00147559
1
1
1
1
0.999999
0.999994
0.999982
0.999957
0.99991
0.99983
0.999706
0.999525
0.999277
0.998951
0.998536
0.998023
0.997406
0.996677
0.995832
0.99487
0.993793
0.992594
0.991245
0.989677
0.987773
0.985368
0.982258
0.978222
0.973047
0.966546
0.958572
0.949026
0.937855
0.925052
0.910653
0.894724
0.877361
0.858679
0.838811
0.817895
0.796076
0.7735
0.750309
0.726638
0.702619
0.678372
0.654008
0.629629
0.605327
0.581183
0.55727
0.533652
0.510383
0.487511
0.465076
0.443111
0.421644
0.400697
0.380288
0.360429
0.34113
0.322398
0.304235
0.286644
0.269624
0.253172
0.237287
0.221963
0.207198
0.192987
0.179326
0.166211
0.153638
0.141605
0.13011
0.11915
0.108726
0.0988353
0.0894793
0.0806572
0.0723686
0.0646125
0.0573868
0.0506879
0.0445104
0.0388463
0.0336853
0.0290137
0.0248151
0.0210696
0.0177546
0.0148447
0.0123121
0.0101275
0.00826024
0.00667914
0.00535328
0.00425196
0.00334782
0.00260644
0.00203254
0.00147559
0.00147559
1
1
1
0.999996
0.999983
0.999954
0.999898
0.999804
0.999658
0.999446
0.999157
0.998778
0.998299
0.997713
0.997014
0.996196
0.995256
0.994191
0.993002
0.991688
0.990253
0.988698
0.987023
0.985219
0.983258
0.981091
0.978642
0.975808
0.97247
0.968496
0.963753
0.958116
0.951476
0.943744
0.934856
0.924774
0.913485
0.901001
0.887355
0.872597
0.856795
0.840027
0.822382
0.803951
0.784833
0.765125
0.744922
0.72432
0.703408
0.682272
0.660991
0.639642
0.618292
0.597005
0.575836
0.554838
0.534055
0.513527
0.493291
0.473374
0.453804
0.434601
0.415781
0.397357
0.379339
0.361732
0.344539
0.32776
0.311393
0.295434
0.279877
0.264715
0.24994
0.235544
0.22152
0.20786
0.194558
0.181611
0.169018
0.156779
0.144901
0.133394
0.122269
0.111547
0.101247
0.0913948
0.082016
0.0731375
0.0647853
0.0569824
0.0497479
0.043095
0.0370302
0.0315521
0.0266517
0.0223117
0.0185081
0.0152081
0.0123835
0.00996175
0.00803285
0.00602049
0.00602049
0.999997
1
0.99998
0.999896
0.999724
0.999434
0.998999
0.998397
0.997613
0.996636
0.995464
0.994099
0.992547
0.990816
0.988916
0.986859
0.984655
0.982316
0.979854
0.977277
0.974598
0.971826
0.96897
0.966038
0.963034
0.959955
0.956793
0.953526
0.950123
0.946542
0.942729
0.938624
0.934161
0.929273
0.923893
0.917959
0.911417
0.904219
0.896328
0.88772
0.878378
0.868298
0.857487
0.845961
0.833742
0.820863
0.807361
0.793278
0.77866
0.763555
0.748015
0.73209
0.715831
0.69929
0.682515
0.665554
0.648454
0.631258
0.614007
0.59674
0.579492
0.562295
0.545178
0.528168
0.511284
0.494547
0.47797
0.461563
0.445333
0.429283
0.413412
0.397716
0.382185
0.366809
0.351574
0.336463
0.321457
0.306536
0.29168
0.276871
0.262094
0.247339
0.232603
0.217893
0.203228
0.188641
0.174177
0.159895
0.145867
0.132175
0.118909
0.106158
0.0940133
0.0825564
0.0718595
0.0619791
0.0529567
0.0448059
0.0375574
0.0310797
0.025785
0.0199143
0.0199143
0.999999
1
0.99943
0.998224
0.996402
0.994008
0.991093
0.987716
0.983939
0.979828
0.975446
0.970853
0.966102
0.961239
0.9563
0.951318
0.946317