# vtk DataFile Version 3.0
FlowField
ASCII
DATASET STRUCTURED_GRID
DIMENSIONS 103 13 1 
POINTS 1339 double
0 0 0
0.3 0 0
0.6 0 0
0.9 0 0
1.2 0 0
1.5 0 0
1.8 0 0
2.1 0 0
2.4 0 0
2.7 0 0
3 0 0
3.3 0 0
3.6 0 0
3.9 0 0
4.2 0 0
4.5 0 0
4.8 0 0
5.1 0 0
5.4 0 0
5.7 0 0
6 0 0
6.3 0 0
6.6 0 0
6.9 0 0
7.2 0 0
7.5 0 0
7.8 0 0
8.1 0 0
8.4 0 0
8.7 0 0
9 0 0
9.3 0 0
9.6 0 0
9.9 0 0
10.2 0 0
10.5 0 0
10.8 0 0
11.1 0 0
11.4 0 0
11.7 0 0
12 0 0
12.3 0 0
12.6 0 0
12.9 0 0
13.2 0 0
13.5 0 0
13.8 0 0
14.1 0 0
14.4 0 0
14.7 0 0
15 0 0
15.3 0 0
15.6 0 0
15.9 0 0
16.2 0 0
16.5 0 0
16.8 0 0
17.1 0 0
17.4 0 0
17.7 0 0
18 0 0
18.3 0 0
18.6 0 0
18.9 0 0
19.2 0 0
19.5 0 0
19.8 0 0
20.1 0 0
20.4 0 0
20.7 0 0
21 0 0
21.3 0 0
21.6 0 0
21.9 0 0
22.2 0 0
22.5 0 0
22.8 0 0
23.1 0 0
23.4 0 0
23.7 0 0
24 0 0
24.3 0 0
24.6 0 0
24.9 0 0
25.2 0 0
25.5 0 0
25.8 0 0
26.1 0 0
26.4 0 0
26.7 0 0
27 0 0
27.3 0 0
27.6 0 0
27.9 0 0
28.2 0 0
28.5 0 0
28.8 0 0
29.1 0 0
29.4 0 0
29.7 0 0
30 0 0
30.3 0 0
30.6 0 0
0 0.1 0
0.3 0.1 0
0.6 0.1 0
0.9 0.1 0
1.2 0.1 0
1.5 0.1 0
1.8 0.1 0
2.1 0.1 0
2.4 0.1 0
2.7 0.1 0
3 0.1 0
3.3 0.1 0
3.6 0.1 0
3.9 0.1 0
4.2 0.1 0
4.5 0.1 0
4.8 0.1 0
5.1 0.1 0
5.4 0.1 0
5.7 0.1 0
6 0.1 0
6.3 0.1 0
6.6 0.1 0
6.9 0.1 0
7.2 0.1 0
7.5 0.1 0
7.8 0.1 0
8.1 0.1 0
8.4 0.1 0
8.7 0.1 0
9 0.1 0
9.3 0.1 0
9.6 0.1 0
9.9 0.1 0
10.2 0.1 0
10.5 0.1 0
10.8 0.1 0
11.1 0.1 0
11.4 0.1 0
11.7 0.1 0
12 0.1 0
12.3 0.1 0
12.6 0.1 0
12.9 0.1 0
13.2 0.1 0
13.5 0.1 0
13.8 0.1 0
14.1 0.1 0
14.4 0.1 0
14.7 0.1 0
15 0.1 0
15.3 0.1 0
15.6 0.1 0
15.9 0.1 0
16.2 0.1 0
16.5 0.1 0
16.8 0.1 0
17.1 0.1 0
17.4 0.1 0
17.7 0.1 0
18 0.1 0
18.3 0.1 0
18.6 0.1 0
18.9 0.1 0
19.2 0.1 0
19.5 0.1 0
19.8 0.1 0
20.1 0.1 0
20.4 0.1 0
20.7 0.1 0
21 0.1 0
21.3 0.1 0
21.6 0.1 0
21.9 0.1 0
22.2 0.1 0
22.5 0.1 0
22.8 0.1 0
23.1 0.1 0
23.4 0.1 0
23.7 0.1 0
24 0.1 0
24.3 0.1 0
24.6 0.1 0
24.9 0.1 0
25.2 0.1 0
25.5 0.1 0
25.8 0.1 0
26.1 0.1 0
26.4 0.1 0
26.7 0.1 0
27 0.1 0
27.3 0.1 0
27.6 0.1 0
27.9 0.1 0
28.2 0.1 0
28.5 0.1 0
28.8 0.1 0
29.1 0.1 0
29.4 0.1 0
29.7 0.1 0
30 0.1 0
30.3 0.1 0
30.6 0.1 0
0 0.2 0
0.3 0.2 0
0.6 0.2 0
0.9 0.2 0
1.2 0.2 0
1.5 0.2 0
1.8 0.2 0
2.1 0.2 0
2.4 0.2 0
2.7 0.2 0
3 0.2 0
3.3 0.2 0
3.6 0.2 0
3.9 0.2 0
4.2 0.2 0
4.5 0.2 0
4.8 0.2 0
5.1 0.2 0
5.4 0.2 0
5.7 0.2 0
6 0.2 0
6.3 0.2 0
6.6 0.2 0
6.9 0.2 0
7.2 0.2 0
7.5 0.2 0
7.8 0.2 0
8.1 0.2 0
8.4 0.2 0
8.7 0.2 0
9 0.2 0
9.3 0.2 0
9.6 0.2 0
9.9 0.2 0
10.2 0.2 0
10.5 0.2 0
10.8 0.2 0
11.1 0.2 0
11.4 0.2 0
11.7 0.2 0
12 0.2 0
12.3 0.2 0
12.6 0.2 0
12.9 0.2 0
13.2 0.2 0
13.5 0.2 0
13.8 0.2 0
14.1 0.2 0
14.4 0.2 0
14.7 0.2 0
15 0.2 0
15.3 0.2 0
15.6 0.2 0
15.9 0.2 0
16.2 0.2 0
16.5 0.2 0
16.8 0.2 0
17.1 0.2 0
17.4 0.2 0
17.7 0.2 0
18 0.2 0
18.3 0.2 0
18.6 0.2 0
18.9 0.2 0
19.2 0.2 0
19.5 0.2 0
19.8 0.2 0
20.1 0.2 0
20.4 0.2 0
20.7 0.2 0
21 0.2 0
21.3 0.2 0
21.6 0.2 0
21.9 0.2 0
22.2 0.2 0
22.5 0.2 0
22.8 0.2 0
23.1 0.2 0
23.4 0.2 0
23.7 0.2 0
24 0.2 0
24.3 0.2 0
24.6 0.2 0
24.9 0.2 0
25.2 0.2 0
25.5 0.2 0
25.8 0.2 0
26.1 0.2 0
26.4 0.2 0
26.7 0.2 0
27 0.2 0
27.3 0.2 0
27.6 0.2 0
27.9 0.2 0
28.2 0.2 0
28.5 0.2 0
28.8 0.2 0
29.1 0.2 0
29.4 0.2 0
29.7 0.2 0
30 0.2 0
30.3 0.2 0
30.6 0.2 0
0 0.3 0
0.3 0.3 0
0.6 0.3 0
0.9 0.3 0
1.2 0.3 0
1.5 0.3 0
1.8 0.3 0
2.1 0.3 0
2.4 0.3 0
2.7 0.3 0
3 0.3 0
3.3 0.3 0
3.6 0.3 0
3.9 0.3 0
4.2 0.3 0
4.5 0.3 0
4.8 0.3 0
5.1 0.3 0
5.4 0.3 0
5.7 0.3 0
6 0.3 0
6.3 0.3 0
6.6 0.3 0
6.9 0.3 0
7.2 0.3 0
7.5 0.3 0
7.8 0.3 0
8.1 0.3 0
8.4 0.3 0
8.7 0.3 0
9 0.3 0
9.3 0.3 0
9.6 0.3 0
9.9 0.3 0
10.2 0.3 0
10.5 0.3 0
10.8 0.3 0
11.1 0.3 0
11.4 0.3 0
11.7 0.3 0
12 0.3 0
12.3 0.3 0
12.6 0.3 0
12.9 0.3 0
13.2 0.3 0
13.5 0.3 0
13.8 0.3 0
14.1 0.3 0
14.4 0.3 0
14.7 0.3 0
15 0.3 0
15.3 0.3 0
15.6 0.3 0
15.9 0.3 0
16.2 0.3 0
16.5 0.3 0
16.8 0.3 0
17.1 0.3 0
17.4 0.3 0
17.7 0.3 0
18 0.3 0
18.3 0.3 0
18.6 0.3 0
18.9 0.3 0
19.2 0.3 0
19.5 0.3 0
19.8 0.3 0
20.1 0.3 0
20.4 0.3 0
20.7 0.3 0
21 0.3 0
21.3 0.3 0
21.6 0.3 0
21.9 0.3 0
22.2 0.3 0
22.5 0.3 0
22.8 0.3 0
23.1 0.3 0
23.4 0.3 0
23.7 0.3 0
24 0.3 0
24.3 0.3 0
24.6 0.3 0
24.9 0.3 0
25.2 0.3 0
25.5 0.3 0
25.8 0.3 0
26.1 0.3 0
26.4 0.3 0
26.7 0.3 0
27 0.3 0
27.3 0.3 0
27.6 0.3 0
27.9 0.3 0
28.2 0.3 0
28.5 0.3 0
28.8 0.3 0
29.1 0.3 0
29.4 0.3 0
29.7 0.3 0
30 0.3 0
30.3 0.3 0
30.6 0.3 0
0 0.4 0
0.3 0.4 0
0.6 0.4 0
0.9 0.4 0
1.2 0.4 0
1.5 0.4 0
1.8 0.4 0
2.1 0.4 0
2.4 0.4 0
2.7 0.4 0
3 0.4 0
3.3 0.4 0
3.6 0.4 0
3.9 0.4 0
4.2 0.4 0
4.5 0.4 0
4.8 0.4 0
5.1 0.4 0
5.4 0.4 0
5.7 0.4 0
6 0.4 0
6.3 0.4 0
6.6 0.4 0
6.9 0.4 0
7.2 0.4 0
7.5 0.4 0
7.8 0.4 0
8.1 0.4 0
8.4 0.4 0
8.7 0.4 0
9 0.4 0
9.3 0.4 0
9.6 0.4 0
9.9 0.4 0
10.2 0.4 0
10.5 0.4 0
10.8 0.4 0
11.1 0.4 0
11.4 0.4 0
11.7 0.4 0
12 0.4 0
12.3 0.4 0
12.6 0.4 0
12.9 0.4 0
13.2 0.4 0
13.5 0.4 0
13.8 0.4 0
14.1 0.4 0
14.4 0.4 0
14.7 0.4 0
15 0.4 0
15.3 0.4 0
15.6 0.4 0
15.9 0.4 0
16.2 0.4 0
16.5 0.4 0
16.8 0.4 0
17.1 0.4 0
17.4 0.4 0
17.7 0.4 0
18 0.4 0
18.3 0.4 0
18.6 0.4 0
18.9 0.4 0
19.2 0.4 0
19.5 0.4 0
19.8 0.4 0
20.1 0.4 0
20.4 0.4 0
20.7 0.4 0
21 0.4 0
21.3 0.4 0
21.6 0.4 0
21.9 0.4 0
22.2 0.4 0
22.5 0.4 0
22.8 0.4 0
23.1 0.4 0
23.4 0.4 0
23.7 0.4 0
24 0.4 0
24.3 0.4 0
24.6 0.4 0
24.9 0.4 0
25.2 0.4 0
25.5 0.4 0
25.8 0.4 0
26.1 0.4 0
26.4 0.4 0
26.7 0.4 0
27 0.4 0
27.3 0.4 0
27.6 0.4 0
27.9 0.4 0
28.2 0.4 0
28.5 0.4 0
28.8 0.4 0
29.1 0.4 0
29.4 0.4 0
29.7 0.4 0
30 0.4 0
30.3 0.4 0
30.6 0.4 0
0 0.5 0
0.3 0.5 0
0.6 0.5 0
0.9 0.5 0
1.2 0.5 0
1.5 0.5 0
1.8 0.5 0
2.1 0.5 0
2.4 0.5 0
2.7 0.5 0
3 0.5 0
3.3 0.5 0
3.6 0.5 0
3.9 0.5 0
4.2 0.5 0
4.5 0.5 0
4.8 0.5 0
5.1 0.5 0
5.4 0.5 0
5.7 0.5 0
6 0.5 0
6.3 0.5 0
6.6 0.5 0
6.9 0.5 0
7.2 0.5 0
7.5 0.5 0
7.8 0.5 0
8.1 0.5 0
8.4 0.5 0
8.7 0.5 0
9 0.5 0
9.3 0.5 0
9.6 0.5 0
9.9 0.5 0
10.2 0.5 0
10.5 0.5 0
10.8 0.5 0
11.1 0.5 0
11.4 0.5 0
11.7 0.5 0
12 0.5 0
12.3 0.5 0
12.6 0.5 0
12.9 0.5 0
13.2 0.5 0
13.5 0.5 0
13.8 0.5 0
14.1 0.5 0
14.4 0.5 0
14.7 0.5 0
15 0.5 0
15.3 0.5 0
15.6 0.5 0
15.9 0.5 0
16.2 0.5 0
16.5 0.5 0
16.8 0.5 0
17.1 0.5 0
17.4 0.5 0
17.7 0.5 0
18 0.5 0
18.3 0.5 0
18.6 0.5 0
18.9 0.5 0
19.2 0.5 0
19.5 0.5 0
19.8 0.5 0
20.1 0.5 0
20.4 0.5 0
20.7 0.5 0
21 0.5 0
21.3 0.5 0
21.6 0.5 0
21.9 0.5 0
22.2 0.5 0
22.5 0.5 0
22.8 0.5 0
23.1 0.5 0
23.4 0.5 0
23.7 0.5 0
24 0.5 0
24.3 0.5 0
24.6 0.5 0
24.9 0.5 0
25.2 0.5 0
25.5 0.5 0
25.8 0.5 0
26.1 0.5 0
26.4 0.5 0
26.7 0.5 0
27 0.5 0
27.3 0.5 0
27.6 0.5 0
27.9 0.5 0
28.2 0.5 0
28.5 0.5 0
28.8 0.5 0
29.1 0.5 0
29.4 0.5 0
29.7 0.5 0
30 0.5 0
30.3 0.5 0
30.6 0.5 0
0 0.6 0
0.3 0.6 0
0.6 0.6 0
0.9 0.6 0
1.2 0.6 0
1.5 0.6 0
1.8 0.6 0
2.1 0.6 0
2.4 0.6 0
2.7 0.6 0
3 0.6 0
3.3 0.6 0
3.6 0.6 0
3.9 0.6 0
4.2 0.6 0
4.5 0.6 0
4.8 0.6 0
5.1 0.6 0
5.4 0.6 0
5.7 0.6 0
6 0.6 0
6.3 0.6 0
6.6 0.6 0
6.9 0.6 0
7.2 0.6 0
7.5 0.6 0
7.8 0.6 0
8.1 0.6 0
8.4 0.6 0
8.7 0.6 0
9 0.6 0
9.3 0.6 0
9.6 0.6 0
9.9 0.6 0
10.2 0.6 0
10.5 0.6 0
10.8 0.6 0
11.1 0.6 0
11.4 0.6 0
11.7 0.6 0
12 0.6 0
12.3 0.6 0
12.6 0.6 0
12.9 0.6 0
13.2 0.6 0
13.5 0.6 0
13.8 0.6 0
14.1 0.6 0
14.4 0.6 0
14.7 0.6 0
15 0.6 0
15.3 0.6 0
15.6 0.6 0
15.9 0.6 0
16.2 0.6 0
16.5 0.6 0
16.8 0.6 0
17.1 0.6 0
17.4 0.6 0
17.7 0.6 0
18 0.6 0
18.3 0.6 0
18.6 0.6 0
18.9 0.6 0
19.2 0.6 0
19.5 0.6 0
19.8 0.6 0
20.1 0.6 0
20.4 0.6 0
20.7 0.6 0
21 0.6 0
21.3 0.6 0
21.6 0.6 0
21.9 0.6 0
22.2 0.6 0
22.5 0.6 0
22.8 0.6 0
23.1 0.6 0
23.4 0.6 0
23.7 0.6 0
24 0.6 0
24.3 0.6 0
24.6 0.6 0
24.9 0.6 0
25.2 0.6 0
25.5 0.6 0
25.8 0.6 0
26.1 0.6 0
26.4 0.6 0
26.7 0.6 0
27 0.6 0
27.3 0.6 0
27.6 0.6 0
27.9 0.6 0
28.2 0.6 0
28.5 0.6 0
28.8 0.6 0
29.1 0.6 0
29.4 0.6 0
29.7 0.6 0
30 0.6 0
30.3 0.6 0
30.6 0.6 0
0 0.7 0
0.3 0.7 0
0.6 0.7 0
0.9 0.7 0
1.2 0.7 0
1.5 0.7 0
1.8 0.7 0
2.1 0.7 0
2.4 0.7 0
2.7 0.7 0
3 0.7 0
3.3 0.7 0
3.6 0.7 0
3.9 0.7 0
4.2 0.7 0
4.5 0.7 0
4.8 0.7 0
5.1 0.7 0
5.4 0.7 0
5.7 0.7 0
6 0.7 0
6.3 0.7 0
6.6 0.7 0
6.9 0.7 0
7.2 0.7 0
7.5 0.7 0
7.8 0.7 0
8.1 0.7 0
8.4 0.7 0
8.7 0.7 0
9 0.7 0
9.3 0.7 0
9.6 0.7 0
9.9 0.7 0
10.2 0.7 0
10.5 0.7 0
10.8 0.7 0
11.1 0.7 0
11.4 0.7 0
11.7 0.7 0
12 0.7 0
12.3 0.7 0
12.6 0.7 0
12.9 0.7 0
13.2 0.7 0
13.5 0.7 0
13.8 0.7 0
14.1 0.7 0
14.4 0.7 0
14.7 0.7 0
15 0.7 0
15.3 0.7 0
15.6 0.7 0
15.9 0.7 0
16.2 0.7 0
16.5 0.7 0
16.8 0.7 0
17.1 0.7 0
17.4 0.7 0
17.7 0.7 0
18 0.7 0
18.3 0.7 0
18.6 0.7 0
18.9 0.7 0
19.2 0.7 0
19.5 0.7 0
19.8 0.7 0
20.1 0.7 0
20.4 0.7 0
20.7 0.7 0
21 0.7 0
21.3 0.7 0
21.6 0.7 0
21.9 0.7 0
22.2 0.7 0
22.5 0.7 0
22.8 0.7 0
23.1 0.7 0
23.4 0.7 0
23.7 0.7 0
24 0.7 0
24.3 0.7 0
24.6 0.7 0
24.9 0.7 0
25.2 0.7 0
25.5 0.7 0
25.8 0.7 0
26.1 0.7 0
26.4 0.7 0
26.7 0.7 0
27 0.7 0
27.3 0.7 0
27.6 0.7 0
27.9 0.7 0
28.2 0.7 0
28.5 0.7 0
28.8 0.7 0
29.1 0.7 0
29.4 0.7 0
29.7 0.7 0
30 0.7 0
30.3 0.7 0
30.6 0.7 0
0 0.8 0
0.3 0.8 0
0.6 0.8 0
0.9 0.8 0
1.2 0.8 0
1.5 0.8 0
1.8 0.8 0
2.1 0.8 0
2.4 0.8 0
2.7 0.8 0
3 0.8 0
3.3 0.8 0
3.6 0.8 0
3.9 0.8 0
4.2 0.8 0
4.5 0.8 0
4.8 0.8 0
5.1 0.8 0
5.4 0.8 0
5.7 0.8 0
6 0.8 0
6.3 0.8 0
6.6 0.8 0
6.9 0.8 0
7.2 0.8 0
7.5 0.8 0
7.8 0.8 0
8.1 0.8 0
8.4 0.8 0
8.7 0.8 0
9 0.8 0
9.3 0.8 0
9.6 0.8 0
9.9 0.8 0
10.2 0.8 0
10.5 0.8 0
10.8 0.8 0
11.1 0.8 0
11.4 0.8 0
11.7 0.8 0
12 0.8 0
12.3 0.8 0
12.6 0.8 0
12.9 0.8 0
13.2 0.8 0
13.5 0.8 0
13.8 0.8 0
14.1 0.8 0
14.4 0.8 0
14.7 0.8 0
15 0.8 0
15.3 0.8 0
15.6 0.8 0
15.9 0.8 0
16.2 0.8 0
16.5 0.8 0
16.8 0.8 0
17.1 0.8 0
17.4 0.8 0
17.7 0.8 0
18 0.8 0
18.3 0.8 0
18.6 0.8 0
18.9 0.8 0
19.2 0.8 0
19.5 0.8 0
19.8 0.8 0
20.1 0.8 0
20.4 0.8 0
20.7 0.8 0
21 0.8 0
21.3 0.8 0
21.6 0.8 0
21.9 0.8 0
22.2 0.8 0
22.5 0.8 0
22.8 0.8 0
23.1 0.8 0
23.4 0.8 0
23.7 0.8 0
24 0.8 0
24.3 0.8 0
24.6 0.8 0
24.9 0.8 0
25.2 0.8 0
25.5 0.8 0
25.8 0.8 0
26.1 0.8 0
26.4 0.8 0
26.7 0.8 0
27 0.8 0
27.3 0.8 0
27.6 0.8 0
27.9 0.8 0
28.2 0.8 0
28.5 0.8 0
28.8 0.8 0
29.1 0.8 0
29.4 0.8 0
29.7 0.8 0
30 0.8 0
30.3 0.8 0
30.6 0.8 0
0 0.9 0
0.3 0.9 0
0.6 0.9 0
0.9 0.9 0
1.2 0.9 0
1.5 0.9 0
1.8 0.9 0
2.1 0.9 0
2.4 0.9 0
2.7 0.9 0
3 0.9 0
3.3 0.9 0
3.6 0.9 0
3.9 0.9 0
4.2 0.9 0
4.5 0.9 0
4.8 0.9 0
5.1 0.9 0
5.4 0.9 0
5.7 0.9 0
6 0.9 0
6.3 0.9 0
6.6 0.9 0
6.9 0.9 0
7.2 0.9 0
7.5 0.9 0
7.8 0.9 0
8.1 0.9 0
8.4 0.9 0
8.7 0.9 0
9 0.9 0
9.3 0.9 0
9.6 0.9 0
9.9 0.9 0
10.2 0.9 0
10.5 0.9 0
10.8 0.9 0
11.1 0.9 0
11.4 0.9 0
11.7 0.9 0
12 0.9 0
12.3 0.9 0
12.6 0.9 0
12.9 0.9 0
13.2 0.9 0
13.5 0.9 0
13.8 0.9 0
14.1 0.9 0
14.4 0.9 0
14.7 0.9 0
15 0.9 0
15.3 0.9 0
15.6 0.9 0
15.9 0.9 0
16.2 0.9 0
16.5 0.9 0
16.8 0.9 0
17.1 0.9 0
17.4 0.9 0
17.7 0.9 0
18 0.9 0
18.3 0.9 0
18.6 0.9 0
18.9 0.9 0
19.2 0.9 0
19.5 0.9 0
19.8 0.9 0
20.1 0.9 0
20.4 0.9 0
20.7 0.9 0
21 0.9 0
21.3 0.9 0
21.6 0.9 0
21.9 0.9 0
22.2 0.9 0
22.5 0.9 0
22.8 0.9 0
23.1 0.9 0
23.4 0.9 0
23.7 0.9 0
24 0.9 0
24.3 0.9 0
24.6 0.9 0
24.9 0.9 0
25.2 0.9 0
25.5 0.9 0
25.8 0.9 0
26.1 0.9 0
26.4 0.9 0
26.7 0.9 0
27 0.9 0
27.3 0.9 0
27.6 0.9 0
27.9 0.9 0
28.2 0.9 0
28.5 0.9 0
28.8 0.9 0
29.1 0.9 0
29.4 0.9 0
29.7 0.9 0
30 0.9 0
30.3 0.9 0
30.6 0.9 0
0 1 0
0.3 1 0
0.6 1 0
0.9 1 0
1.2 1 0
1.5 1 0
1.8 1 0
2.1 1 0
2.4 1 0
2.7 1 0
3 1 0
3.3 1 0
3.6 1 0
3.9 1 0
4.2 1 0
4.5 1 0
4.8 1 0
5.1 1 0
5.4 1 0
5.7 1 0
6 1 0
6.3 1 0
6.6 1 0
6.9 1 0
7.2 1 0
7.5 1 0
7.8 1 0
8.1 1 0
8.4 1 0
8.7 1 0
9 1 0
9.3 1 0
9.6 1 0
9.9 1 0
10.2 1 0
10.5 1 0
10.8 1 0
11.1 1 0
11.4 1 0
11.7 1 0
12 1 0
12.3 1 0
12.6 1 0
12.9 1 0
13.2 1 0
13.5 1 0
13.8 1 0
14.1 1 0
14.4 1 0
14.7 1 0
15 1 0
15.3 1 0
15.6 1 0
15.9 1 0
16.2 1 0
16.5 1 0
16.8 1 0
17.1 1 0
17.4 1 0
17.7 1 0
18 1 0
18.3 1 0
18.6 1 0
18.9 1 0
19.2 1 0
19.5 1 0
19.8 1 0
20.1 1 0
20.4 1 0
20.7 1 0
21 1 0
21.3 1 0
21.6 1 0
21.9 1 0
22.2 1 0
22.5 1 0
22.8 1 0
23.1 1 0
23.4 1 0
23.7 1 0
24 1 0
24.3 1 0
24.6 1 0
24.9 1 0
25.2 1 0
25.5 1 0
25.8 1 0
26.1 1 0
26.4 1 0
26.7 1 0
27 1 0
27.3 1 0
27.6 1 0
27.9 1 0
28.2 1 0
28.5 1 0
28.8 1 0
29.1 1 0
29.4 1 0
29.7 1 0
30 1 0
30.3 1 0
30.6 1 0
0 1.1 0
0.3 1.1 0
0.6 1.1 0
0.9 1.1 0
1.2 1.1 0
1.5 1.1 0
1.8 1.1 0
2.1 1.1 0
2.4 1.1 0
2.7 1.1 0
3 1.1 0
3.3 1.1 0
3.6 1.1 0
3.9 1.1 0
4.2 1.1 0
4.5 1.1 0
4.8 1.1 0
5.1 1.1 0
5.4 1.1 0
5.7 1.1 0
6 1.1 0
6.3 1.1 0
6.6 1.1 0
6.9 1.1 0
7.2 1.1 0
7.5 1.1 0
7.8 1.1 0
8.1 1.1 0
8.4 1.1 0
8.7 1.1 0
9 1.1 0
9.3 1.1 0
9.6 1.1 0
9.9 1.1 0
10.2 1.1 0
10.5 1.1 0
10.8 1.1 0
11.1 1.1 0
11.4 1.1 0
11.7 1.1 0
12 1.1 0
12.3 1.1 0
12.6 1.1 0
12.9 1.1 0
13.2 1.1 0
13.5 1.1 0
13.8 1.1 0
14.1 1.1 0
14.4 1.1 0
14.7 1.1 0
15 1.1 0
15.3 1.1 0
15.6 1.1 0
15.9 1.1 0
16.2 1.1 0
16.5 1.1 0
16.8 1.1 0
17.1 1.1 0
17.4 1.1 0
17.7 1.1 0
18 1.1 0
18.3 1.1 0
18.6 1.1 0
18.9 1.1 0
19.2 1.1 0
19.5 1.1 0
19.8 1.1 0
20.1 1.1 0
20.4 1.1 0
20.7 1.1 0
21 1.1 0
21.3 1.1 0
21.6 1.1 0
21.9 1.1 0
22.2 1.1 0
22.5 1.1 0
22.8 1.1 0
23.1 1.1 0
23.4 1.1 0
23.7 1.1 0
24 1.1 0
24.3 1.1 0
24.6 1.1 0
24.9 1.1 0
25.2 1.1 0
25.5 1.1 0
25.8 1.1 0
26.1 1.1 0
26.4 1.1 0
26.7 1.1 0
27 1.1 0
27.3 1.1 0
27.6 1.1 0
27.9 1.1 0
28.2 1.1 0
28.5 1.1 0
28.8 1.1 0
29.1 1.1 0
29.4 1.1 0
29.7 1.1 0
30 1.1 0
30.3 1.1 0
30.6 1.1 0
0 1.2 0
0.3 1.2 0
0.6 1.2 0
0.9 1.2 0
1.2 1.2 0
1.5 1.2 0
1.8 1.2 0
2.1 1.2 0
2.4 1.2 0
2.7 1.2 0
3 1.2 0
3.3 1.2 0
3.6 1.2 0
3.9 1.2 0
4.2 1.2 0
4.5 1.2 0
4.8 1.2 0
5.1 1.2 0
5.4 1.2 0
5.7 1.2 0
6 1.2 0
6.3 1.2 0
6.6 1.2 0
6.9 1.2 0
7.2 1.2 0
7.5 1.2 0
7.8 1.2 0
8.1 1.2 0
8.4 1.2 0
8.7 1.2 0
9 1.2 0
9.3 1.2 0
9.6 1.2 0
9.9 1.2 0
10.2 1.2 0
10.5 1.2 0
10.8 1.2 0
11.1 1.2 0
11.4 1.2 0
11.7 1.2 0
12 1.2 0
12.3 1.2 0
12.6 1.2 0
12.9 1.2 0
13.2 1.2 0
13.5 1.2 0
13.8 1.2 0
14.1 1.2 0
14.4 1.2 0
14.7 1.2 0
15 1.2 0
15.3 1.2 0
15.6 1.2 0
15.9 1.2 0
16.2 1.2 0
16.5 1.2 0
16.8 1.2 0
17.1 1.2 0
17.4 1.2 0
17.7 1.2 0
18 1.2 0
18.3 1.2 0
18.6 1.2 0
18.9 1.2 0
19.2 1.2 0
19.5 1.2 0
19.8 1.2 0
20.1 1.2 0
20.4 1.2 0
20.7 1.2 0
21 1.2 0
21.3 1.2 0
21.6 1.2 0
21.9 1.2 0
22.2 1.2 0
22.5 1.2 0
22.8 1.2 0
23.1 1.2 0
23.4 1.2 0
23.7 1.2 0
24 1.2 0
24.3 1.2 0
24.6 1.2 0
24.9 1.2 0
25.2 1.2 0
25.5 1.2 0
25.8 1.2 0
26.1 1.2 0
26.4 1.2 0
26.7 1.2 0
27 1.2 0
27.3 1.2 0
27.6 1.2 0
27.9 1.2 0
28.2 1.2 0
28.5 1.2 0
28.8 1.2 0
29.1 1.2 0
29.4 1.2 0
29.7 1.2 0
30 1.2 0
30.3 1.2 0
30.6 1.2 0

POINT_DATA 1339

SCALARS pressure double
LOOKUP_TABLE pressure
1.17173
1.17173
1.10689
1.06265
1.02283
0.98625
0.9532
0.923673
0.897316
0.873606
0.852005
0.832043
0.813349
0.795649
0.778743
0.762484
0.746764
0.731509
0.716657
0.702162
0.687987
0.674102
0.660482
0.647104
0.633947
0.620997
0.608238
0.595656
0.583238
0.570973
0.558852
0.546866
0.535005
0.523261
0.511628
0.5001
0.488668
0.477328
0.466075
0.454903
0.443808
0.432785
0.421831
0.410941
0.400112
0.389341
0.378623
0.367958
0.357341
0.346769
0.336242
0.325755
0.315307
0.304896
0.29452
0.284176
0.273864
0.263582
0.253327
0.243099
0.232896
0.222716
0.212559
0.202424
0.192308
0.182211
0.172133
0.162071
0.152026
0.141996
0.131981
0.121979
0.111991
0.102014
0.0920497
0.0820961
0.072153
0.0622198
0.052296
0.0423811
0.0324746
0.0225761
0.0126852
0.00280134
-0.0070757
-0.0169463
-0.0268109
-0.0366697
-0.0465231
-0.0563714
-0.0662147
-0.0760534
-0.0858878
-0.095718
-0.105544
-0.115367
-0.125186
-0.135001
-0.144813
-0.154622
-0.164429
-0.174233
0.174233
1.17173
1.17173
1.10689
1.06265
1.02283
0.98625
0.9532
0.923673
0.897316
0.873606
0.852005
0.832043
0.813349
0.795649
0.778743
0.762484
0.746764
0.731509
0.716657
0.702162
0.687987
0.674102
0.660482
0.647104
0.633947
0.620997
0.608238
0.595656
0.583238
0.570973
0.558852
0.546866
0.535005
0.523261
0.511628
0.5001
0.488668
0.477328
0.466075
0.454903
0.443808
0.432785
0.421831
0.410941
0.400112
0.389341
0.378623
0.367958
0.357341
0.346769
0.336242
0.325755
0.315307
0.304896
0.29452
0.284176
0.273864
0.263582
0.253327
0.243099
0.232896
0.222716
0.212559
0.202424
0.192308
0.182211
0.172133
0.162071
0.152026
0.141996
0.131981
0.121979
0.111991
0.102014
0.0920497
0.0820961
0.072153
0.0622198
0.052296
0.0423811
0.0324746
0.0225761
0.0126852
0.00280134
-0.0070757
-0.0169463
-0.0268109
-0.0366697
-0.0465231
-0.0563714
-0.0662147
-0.0760534
-0.0858878
-0.095718
-0.105544
-0.115367
-0.125186
-0.135001
-0.144813
-0.154622
-0.164429
-0.174233
0.174233
1.15078
1.15078
1.1049
1.06288
1.02353
0.987047
0.953944
0.924304
0.897823
0.874001
0.852309
0.832276
0.813531
0.795794
0.778861
0.762581
0.746847
0.73158
0.71672
0.702217
0.688036
0.674147
0.660523
0.64714
0.633981
0.621027
0.608266
0.595682
0.583262
0.570995
0.558873
0.546885
0.535023
0.523278
0.511644
0.500114
0.488682
0.477341
0.466087
0.454914
0.443819
0.432795
0.42184
0.41095
0.40012
0.389348
0.378631
0.367965
0.357347
0.346776
0.336247
0.32576
0.315312
0.304901
0.294524
0.284181
0.273868
0.263586
0.253331
0.243102
0.232899
0.222719
0.212562
0.202426
0.192311
0.182214
0.172135
0.162074
0.152028
0.141998
0.131983
0.121981
0.111992
0.102016
0.0920512
0.0820976
0.0721544
0.0622211
0.0522972
0.0423823
0.0324757
0.0225771
0.0126861
0.00280225
-0.00707484
-0.0169455
-0.0268101
-0.036669
-0.0465224
-0.0563707
-0.0662141
-0.0760529
-0.0858872
-0.0957174
-0.105544
-0.115366
-0.125185
-0.135001
-0.144813
-0.154622
-0.164429
-0.174232
0.174232
1.13581
1.13581
1.10202
1.06311
1.02464
0.988372
0.955205
0.925382
0.898684
0.874661
0.852801
0.832641
0.813802
0.795999
0.779019
0.762706
0.746948
0.731664
0.71679
0.702278
0.688089
0.674194
0.660564
0.647177
0.634014
0.621058
0.608293
0.595706
0.583284
0.571016
0.558892
0.546903
0.535039
0.523293
0.511658
0.500127
0.488693
0.477352
0.466097
0.454924
0.443827
0.432803
0.421848
0.410957
0.400127
0.389355
0.378637
0.36797
0.357352
0.34678
0.336252
0.325765
0.315316
0.304905
0.294528
0.284184
0.273872
0.263589
0.253334
0.243105
0.232902
0.222722
0.212565
0.202428
0.192313
0.182216
0.172137
0.162075
0.15203
0.142
0.131984
0.121982
0.111994
0.102017
0.0920524
0.0820986
0.0721554
0.0622221
0.0522982
0.0423831
0.0324765
0.0225779
0.0126869
0.00280296
-0.00707418
-0.0169449
-0.0268096
-0.0366684
-0.0465219
-0.0563702
-0.0662136
-0.0760524
-0.0858868
-0.095717
-0.105543
-0.115366
-0.125185
-0.135
-0.144813
-0.154621
-0.164427
-0.174226
0.174226
1.12624
1.12624
1.09953
1.06322
1.02559
0.989567
0.956382
0.926418
0.899537
0.875334
0.853319
0.833035
0.814104
0.796234
0.779204
0.762855
0.747071
0.731768
0.716878
0.702354
0.688156
0.674252
0.660615
0.647223
0.634055
0.621095
0.608327
0.595737
0.583312
0.571041
0.558915
0.546924
0.535058
0.523311
0.511674
0.500142
0.488707
0.477365
0.466109
0.454935
0.443838
0.432813
0.421857
0.410966
0.400135
0.389362
0.378644
0.367977
0.357358
0.346786
0.336257
0.32577
0.315321
0.304909
0.294532
0.284188
0.273875
0.263592
0.253337
0.243108
0.232905
0.222725
0.212567
0.202431
0.192315
0.182218
0.172139
0.162077
0.152032
0.142002
0.131986
0.121984
0.111995
0.102019
0.0920537
0.0820999
0.0721566
0.0622232
0.0522992
0.0423841
0.0324775
0.0225788
0.0126877
0.00280375
-0.00707342
-0.0169442
-0.0268089
-0.0366678
-0.0465213
-0.0563696
-0.0662131
-0.0760519
-0.0858863
-0.0957166
-0.105543
-0.115365
-0.125184
-0.135
-0.144812
-0.15462
-0.164425
-0.174214
0.174214
1.12092
1.12092
1.0979
1.06323
1.02619
0.990334
0.95715
0.927107
0.900115
0.875798
0.853683
0.833319
0.814327
0.79641
0.779347
0.762973
0.74717
0.731852
0.716951
0.702418
0.688213
0.674303
0.660661
0.647264
0.634092
0.621129
0.608357
0.595764
0.583337
0.571065
0.558937
0.546943
0.535076
0.523328
0.51169
0.500156
0.488721
0.477377
0.466121
0.454946
0.443848
0.432822
0.421866
0.410974
0.400143
0.389369
0.37865
0.367983
0.357364
0.346792
0.336262
0.325775
0.315326
0.304913
0.294536
0.284192
0.273879
0.263596
0.25334
0.243111
0.232907
0.222727
0.21257
0.202433
0.192317
0.18222
0.172141
0.162079
0.152034
0.142003
0.131988
0.121986
0.111997
0.10202
0.092055
0.0821011
0.0721577
0.0622243
0.0523002
0.0423851
0.0324784
0.0225797
0.0126885
0.00280453
-0.00707269
-0.0169435
-0.0268082
-0.0366672
-0.0465207
-0.0563691
-0.0662126
-0.0760514
-0.0858858
-0.0957161
-0.105542
-0.115365
-0.125184
-0.134999
-0.144812
-0.154619
-0.164422
-0.174202
0.174202
1.11922
1.11922
1.09736
1.06325
1.0264
0.990608
0.957424
0.927353
0.900322
0.875965
0.853815
0.833424
0.81441
0.796477
0.779401
0.763018
0.747209
0.731886
0.716981
0.702444
0.688236
0.674324
0.660679
0.647281
0.634108
0.621143
0.60837
0.595776
0.583348
0.571075
0.558946
0.546952
0.535084
0.523335
0.511697
0.500162
0.488727
0.477383
0.466126
0.45495
0.443852
0.432827
0.421869
0.410977
0.400146
0.389372
0.378653
0.367986
0.357367
0.346794
0.336265
0.325777
0.315328
0.304915
0.294538
0.284194
0.273881
0.263597
0.253342
0.243113
0.232909
0.222728
0.212571
0.202434
0.192318
0.182221
0.172142
0.16208
0.152034
0.142004
0.131988
0.121986
0.111997
0.102021
0.0920555
0.0821016
0.0721582
0.0622248
0.0523007
0.0423855
0.0324788
0.0225801
0.0126889
0.00280487
-0.00707237
-0.0169432
-0.0268079
-0.0366669
-0.0465205
-0.0563688
-0.0662123
-0.0760512
-0.0858856
-0.0957159
-0.105542
-0.115365
-0.125184
-0.134999
-0.144811
-0.154619
-0.164421
-0.174196
0.174196
1.12092
1.12092
1.0979
1.06323
1.02619
0.990334
0.95715
0.927108
0.900116
0.875798
0.853683
0.833319
0.814327
0.79641
0.779347
0.762973
0.74717
0.731852
0.716951
0.702418
0.688213
0.674303
0.660661
0.647264
0.634092
0.621129
0.608357
0.595764
0.583337
0.571065
0.558937
0.546943
0.535076
0.523328
0.51169
0.500156
0.488721
0.477377
0.466121
0.454946
0.443848
0.432822
0.421866
0.410974
0.400143
0.389369
0.37865
0.367983
0.357364
0.346792
0.336262
0.325775
0.315326
0.304913
0.294536
0.284192
0.273879
0.263596
0.25334
0.243111
0.232907
0.222727
0.21257
0.202433
0.192317
0.18222
0.172141
0.162079
0.152034
0.142003
0.131988
0.121986
0.111997
0.10202
0.092055
0.0821011
0.0721577
0.0622243
0.0523002
0.0423851
0.0324784
0.0225797
0.0126885
0.00280453
-0.00707269
-0.0169435
-0.0268082
-0.0366672
-0.0465207
-0.0563691
-0.0662126
-0.0760514
-0.0858858
-0.0957161
-0.105542
-0.115365
-0.125184
-0.134999
-0.144812
-0.154619
-0.164422
-0.174202
0.174202
1.12624
1.12624
1.09953
1.06322
1.0256
0.989567
0.956381
0.926418
0.899538
0.875333
0.853318
0.833035
0.814105
0.796234
0.779204
0.762855
0.747071
0.731767
0.716878
0.702354
0.688156
0.674252
0.660615
0.647223
0.634055
0.621095
0.608327
0.595737
0.583312
0.571041
0.558915
0.546924
0.535058
0.523311
0.511674
0.500142
0.488708
0.477365
0.466109
0.454935
0.443838
0.432813
0.421857
0.410965
0.400135
0.389362
0.378644
0.367977
0.357358
0.346786
0.336257
0.32577
0.315321
0.304909
0.294532
0.284188
0.273875
0.263592
0.253337
0.243108
0.232905
0.222725
0.212567
0.202431
0.192315
0.182218
0.172139
0.162077
0.152032
0.142002
0.131986
0.121984
0.111995
0.102019
0.0920537
0.0820999
0.0721566
0.0622232
0.0522992
0.0423841
0.0324775
0.0225788
0.0126877
0.00280375
-0.00707342
-0.0169442
-0.0268089
-0.0366678
-0.0465213
-0.0563696
-0.0662131
-0.0760519
-0.0858863
-0.0957166
-0.105543
-0.115365
-0.125184
-0.135
-0.144812
-0.15462
-0.164425
-0.174214
0.174214
1.13581
1.13581
1.10202
1.06311
1.02464
0.988372
0.955205
0.925382
0.898685
0.874661
0.852801
0.83264
0.813802
0.795999
0.779019
0.762706
0.746948
0.731664
0.71679
0.702278
0.68809
0.674193
0.660564
0.647177
0.634014
0.621058
0.608293
0.595706
0.583284
0.571016
0.558892
0.546903
0.535039
0.523293
0.511658
0.500127
0.488693
0.477352
0.466097
0.454924
0.443827
0.432803
0.421848
0.410957
0.400127
0.389355
0.378637
0.36797
0.357352
0.34678
0.336252
0.325765
0.315316
0.304905
0.294528
0.284184
0.273872
0.263589
0.253334
0.243105
0.232902
0.222722
0.212565
0.202428
0.192313
0.182216
0.172137
0.162075
0.15203
0.142
0.131984
0.121982
0.111994
0.102017
0.0920524
0.0820986
0.0721554
0.0622221
0.0522982
0.0423831
0.0324765
0.0225779
0.0126869
0.00280295
-0.00707418
-0.0169449
-0.0268096
-0.0366684
-0.0465219
-0.0563702
-0.0662136
-0.0760524
-0.0858868
-0.095717
-0.105543
-0.115366
-0.125185
-0.135
-0.144813
-0.154621
-0.164427
-0.174226
0.174226
1.15079
1.15079
1.1049
1.06288
1.02353
0.987048
0.953943
0.924304
0.897823
0.874002
0.852309
0.832275
0.813531
0.795794
0.77886
0.762581
0.746847
0.73158
0.716719
0.702217
0.688036
0.674147
0.660522
0.64714
0.633981
0.621028
0.608266
0.595681
0.583262
0.570996
0.558873
0.546885
0.535023
0.523278
0.511644
0.500114
0.488682
0.477341
0.466087
0.454914
0.443819
0.432795
0.42184
0.41095
0.40012
0.389348
0.378631
0.367965
0.357347
0.346775
0.336247
0.32576
0.315312
0.304901
0.294524
0.284181
0.273868
0.263586
0.253331
0.243102
0.232899
0.222719
0.212562
0.202426
0.192311
0.182214
0.172135
0.162074
0.152028
0.141998
0.131983
0.121981
0.111992
0.102016
0.0920512
0.0820976
0.0721544
0.0622211
0.0522972
0.0423823
0.0324757
0.0225771
0.0126861
0.00280225
-0.00707484
-0.0169455
-0.0268101
-0.036669
-0.0465224
-0.0563707
-0.0662141
-0.0760529
-0.0858872
-0.0957174
-0.105544
-0.115366
-0.125185
-0.135001
-0.144813
-0.154622
-0.164429
-0.174232
0.174232
1.17173
1.17173
1.10689
1.06265
1.02283
0.986252
0.9532
0.923672
0.897316
0.873607
0.852005
0.832042
0.813349
0.79565
0.778743
0.762483
0.746765
0.731509
0.716657
0.702162
0.687987
0.674102
0.660482
0.647103
0.633947
0.620997
0.608238
0.595655
0.583237
0.570973
0.558853
0.546866
0.535005
0.523261
0.511629
0.5001
0.488668
0.477328
0.466075
0.454903
0.443808
0.432785
0.421831
0.410941
0.400112
0.38934
0.378623
0.367958
0.357341
0.346769
0.336242
0.325755
0.315307
0.304896
0.29452
0.284176
0.273864
0.263582
0.253327
0.243099
0.232896
0.222716
0.212559
0.202424
0.192308
0.182211
0.172133
0.162071
0.152026
0.141996
0.131981
0.121979
0.111991
0.102014
0.0920497
0.0820961
0.072153
0.0622198
0.052296
0.0423811
0.0324746
0.0225761
0.0126852
0.00280134
-0.00707571
-0.0169463
-0.0268109
-0.0366697
-0.0465231
-0.0563714
-0.0662147
-0.0760534
-0.0858878
-0.095718
-0.105544
-0.115367
-0.125186
-0.135001
-0.144813
-0.154622
-0.164429
-0.174233
0.174233
1.17173
1.17173
1.10689
1.06265
1.02283
0.986252
0.9532
0.923672
0.897316
0.873607
0.852005
0.832042
0.813349
0.79565
0.778743
0.762483
0.746765
0.731509
0.716657
0.702162
0.687987
0.674102
0.660482
0.647103
0.633947
0.620997
0.608238
0.595655
0.583237
0.570973
0.558853
0.546866
0.535005
0.523261
0.511629
0.5001
0.488668
0.477328
0.466075
0.454903
0.443808
0.432785
0.421831
0.410941
0.400112
0.38934
0.378623
0.367958
0.357341
0.346769
0.336242
0.325755
0.315307
0.304896
0.29452
0.284176
0.273864
0.263582
0.253327
0.243099
0.232896
0.222716
0.212559
0.202424
0.192308
0.182211
0.172133
0.162071
0.152026
0.141996
0.131981
0.121979
0.111991
0.102014
0.0920497
0.0820961
0.072153
0.0622198
0.052296
0.0423811
0.0324746
0.0225761
0.0126852
0.00280134
-0.00707571
-0.0169463
-0.0268109
-0.0366697
-0.0465231
-0.0563714
-0.0662147
-0.0760534
-0.0858878
-0.095718
-0.105544
-0.115367
-0.125186
-0.135001
-0.144813
-0.154622
-0.164429
-0.174233
0.174233
SCALARS phi double
LOOKUP_TABLE phi
1
1
1
1
0.999999
0.999994
0.999983
0.999958
0.99991
0.99983
0.999706
0.999526
0.999278
0.998952
0.998537
0.998024
0.997407
0.996679
0.995834
0.99487
0.993784
0.992574
0.991242
0.989787
0.988211
0.986517
0.984708
0.982788
0.980761
0.978631
0.976403
0.974079
0.971663
0.969151
0.966539
0.963816
0.960965
0.957962
0.954779
0.951382
0.947732
0.943788
0.93951
0.934856
0.929787
0.924266
0.918263
0.91175
0.904706
0.897117
0.888973
0.880272
0.871016
0.861215
0.850882
0.840033
0.828693
0.816885
0.804637
0.791979
0.778944
0.765565
0.751873
0.737905
0.723692
0.70927
0.69467
0.679925
0.665064
0.650119
0.635117
0.620085
0.605049
0.590032
0.575058
0.560146
0.545316
0.530586
0.515973
0.501492
0.487156
0.472978
0.458968
0.445138
0.431495
0.418048
0.404803
0.391766
0.378943
0.366336
0.353951
0.341789
0.329852
0.318142
0.306661
0.295406
0.284386
0.273571
0.26306
0.252513
0.243109
0.230631
0.230631
1
1
1
1
0.999999
0.999994
0.999983
0.999958
0.99991
0.99983
0.999706
0.999526
0.999278
0.998952
0.998537
0.998024
0.997407
0.996679
0.995834
0.99487
0.993784
0.992574
0.991242
0.989787
0.988211
0.986517
0.984708
0.982788
0.980761
0.978631
0.976403
0.974079
0.971663
0.969151
0.966539
0.963816
0.960965
0.957962
0.954779
0.951382
0.947732
0.943788
0.93951
0.934856
0.929787
0.924266
0.918263
0.91175
0.904706
0.897117
0.888973
0.880272
0.871016
0.861215
0.850882
0.840033
0.828693
0.816885
0.804637
0.791979
0.778944
0.765565
0.751873
0.737905
0.723692
0.70927
0.69467
0.679925
0.665064
0.650119
0.635117
0.620085
0.605049
0.590032
0.575058
0.560146
0.545316
0.530586
0.515973
0.501492
0.487156
0.472978
0.458968
0.445138
0.431495
0.418048
0.404803
0.391766
0.378943
0.366336
0.353951
0.341789
0.329852
0.318142
0.306661
0.295406
0.284386
0.273571
0.26306
0.252513
0.243109
0.230631
0.230631
1
1
1
0.999996
0.999983
0.999954
0.999898
0.999804
0.999658
0.999447
0.999157
0.998778
0.9983
0.997714
0.997014
0.996196
0.995256
0.994192
0.993003
0.991689
0.990252
0.988694
0.987017
0.985224
0.98332
0.981308
0.979192
0.976979
0.974672
0.972276
0.969796
0.967238
0.964606
0.961902
0.959129
0.956286
0.95337
0.950374
0.947287
0.944095
0.940778
0.937314
0.933677
0.929839
0.925771
0.921441
0.916821
0.911881
0.906594
0.900935
0.894885
0.888424
0.881541
0.874224
0.866469
0.858274
0.849642
0.84058
0.831096
0.821204
0.810919
0.800258
0.789242
0.777892
0.766231
0.754282
0.742069
0.729619
0.716954
0.704101
0.691084
0.677927
0.664654
0.651288
0.63785
0.624362
0.610845
0.597318
0.583799
0.570305
0.556854
0.543459
0.530135
0.516895
0.503752
0.490717
0.4778
0.46501
0.452356
0.439845
0.427485
0.415281
0.403239
0.391363
0.379658
0.368125
0.356777
0.345578
0.334663
0.32358
0.313859
0.300356
0.300356
0.999997
1
0.99998
0.999896
0.999724
0.999434
0.998999
0.998397
0.997613
0.996636
0.995464
0.994099
0.992547
0.990816
0.988916
0.986859
0.984656
0.982317
0.979854
0.977278
0.974599
0.971826
0.968969
0.966037
0.963037
0.959976
0.956863
0.953702
0.9505
0.947262
0.943993
0.940699
0.937382
0.934046
0.930695
0.927331
0.923955
0.920567
0.917166
0.913749
0.91031
0.906843
0.903337
0.899781
0.896161
0.892461
0.888665
0.884754
0.880709
0.876509
0.872137
0.867572
0.862796
0.857793
0.852547
0.847044
0.841272
0.835222
0.828886
0.822259
0.815337
0.80812
0.80061
0.792809
0.784721
0.776355
0.767719
0.758821
0.749673
0.740287
0.730675
0.720851
0.71083
0.700624
0.690251
0.679723
0.669057
0.658267
0.647368
0.636374
0.625301
0.61416
0.602968
0.591735
0.580475
0.5692
0.557921
0.54665
0.535397
0.524171
0.512982
0.501838
0.490748
0.479719
0.468759
0.457871
0.447074
0.436325
0.425791
0.414952
0.405501
0.391996
0.391996
0.999999
1
0.99943
0.998224
0.996402
0.994008
0.991093
0.987716
0.983939
0.979828
0.975446
0.970853
0.966102
0.961239
0.9563
0.951318
0.946317
0.94132
0.936342
0.931396
0.926494
0.921643
0.91685
0.91212
0.907457
0.902862
0.898338