# vtk DataFile Version 3.0
FlowField
ASCII
DATASET STRUCTURED_GRID
DIMENSIONS 103 13 1 
POINTS 1339 double
0 0 0
0.3 0 0
0.6 0 0
0.9 0 0
1.2 0 0
1.5 0 0
1.8 0 0
2.1 0 0
2.4 0 0
2.7 0 0
3 0 0
3.3 0 0
3.6 0 0
3.9 0 0
4.2 0 0
4.5 0 0
4.8 0 0
5.1 0 0
5.4 0 0
5.7 0 0
6 0 0
6.3 0 0
6.6 0 0
6.9 0 0
7.2 0 0
7.5 0 0
7.8 0 0
8.1 0 0
8.4 0 0
8.7 0 0
9 0 0
9.3 0 0
9.6 0 0
9.9 0 0
10.2 0 0
10.5 0 0
10.8 0 0
11.1 0 0
11.4 0 0
11.7 0 0
12 0 0
12.3 0 0
12.6 0 0
12.9 0 0
13.2 0 0
13.5 0 0
13.8 0 0
14.1 0 0
14.4 0 0
14.7 0 0
15 0 0
15.3 0 0
15.6 0 0
15.9 0 0
16.2 0 0
16.5 0 0
16.8 0 0
17.1 0 0
17.4 0 0
17.7 0 0
18 0 0
18.3 0 0
18.6 0 0
18.9 0 0
19.2 0 0
19.5 0 0
19.8 0 0
20.1 0 0
20.4 0 0
20.7 0 0
21 0 0
21.3 0 0
21.6 0 0
21.9 0 0
22.2 0 0
22.5 0 0
22.8 0 0
23.1 0 0
23.4 0 0
23.7 0 0
24 0 0
24.3 0 0
24.6 0 0
24.9 0 0
25.2 0 0
25.5 0 0
25.8 0 0
26.1 0 0
26.4 0 0
26.7 0 0
27 0 0
27.3 0 0
27.6 0 0
27.9 0 0
28.2 0 0
28.5 0 0
28.8 0 0
29.1 0 0
29.4 0 0
29.7 0 0
30 0 0
30.3 0 0
30.6 0 0
0 0.1 0
0.3 0.1 0
0.6 0.1 0
0.9 0.1 0
1.2 0.1 0
1.5 0.1 0
1.8 0.1 0
2.1 0.1 0
2.4 0.1 0
2.7 0.1 0
3 0.1 0
3.3 0.1 0
3.6 0.1 0
3.9 0.1 0
4.2 0.1 0
4.5 0.1 0
4.8 0.1 0
5.1 0.1 0
5.4 0.1 0
5.7 0.1 0
6 0.1 0
6.3 0.1 0
6.6 0.1 0
6.9 0.1 0
7.2 0.1 0
7.5 0.1 0
7.8 0.1 0
8.1 0.1 0
8.4 0.1 0
8.7 0.1 0
9 0.1 0
9.3 0.1 0
9.6 0.1 0
9.9 0.1 0
10.2 0.1 0
10.5 0.1 0
10.8 0.1 0
11.1 0.1 0
11.4 0.1 0
11.7 0.1 0
12 0.1 0
12.3 0.1 0
12.6 0.1 0
12.9 0.1 0
13.2 0.1 0
13.5 0.1 0
13.8 0.1 0
14.1 0.1 0
14.4 0.1 0
14.7 0.1 0
15 0.1 0
15.3 0.1 0
15.6 0.1 0
15.9 0.1 0
16.2 0.1 0
16.5 0.1 0
16.8 0.1 0
17.1 0.1 0
17.4 0.1 0
17.7 0.1 0
18 0.1 0
18.3 0.1 0
18.6 0.1 0
18.9 0.1 0
19.2 0.1 0
19.5 0.1 0
19.8 0.1 0
20.1 0.1 0
20.4 0.1 0
20.7 0.1 0
21 0.1 0
21.3 0.1 0
21.6 0.1 0
21.9 0.1 0
22.2 0.1 0
22.5 0.1 0
22.8 0.1 0
23.1 0.1 0
23.4 0.1 0
23.7 0.1 0
24 0.1 0
24.3 0.1 0
24.6 0.1 0
24.9 0.1 0
25.2 0.1 0
25.5 0.1 0
25.8 0.1 0
26.1 0.1 0
26.4 0.1 0
26.7 0.1 0
27 0.1 0
27.3 0.1 0
27.6 0.1 0
27.9 0.1 0
28.2 0.1 0
28.5 0.1 0
28.8 0.1 0
29.1 0.1 0
29.4 0.1 0
29.7 0.1 0
30 0.1 0
30.3 0.1 0
30.6 0.1 0
0 0.2 0
0.3 0.2 0
0.6 0.2 0
0.9 0.2 0
1.2 0.2 0
1.5 0.2 0
1.8 0.2 0
2.1 0.2 0
2.4 0.2 0
2.7 0.2 0
3 0.2 0
3.3 0.2 0
3.6 0.2 0
3.9 0.2 0
4.2 0.2 0
4.5 0.2 0
4.8 0.2 0
5.1 0.2 0
5.4 0.2 0
5.7 0.2 0
6 0.2 0
6.3 0.2 0
6.6 0.2 0
6.9 0.2 0
7.2 0.2 0
7.5 0.2 0
7.8 0.2 0
8.1 0.2 0
8.4 0.2 0
8.7 0.2 0
9 0.2 0
9.3 0.2 0
9.6 0.2 0
9.9 0.2 0
10.2 0.2 0
10.5 0.2 0
10.8 0.2 0
11.1 0.2 0
11.4 0.2 0
11.7 0.2 0
12 0.2 0
12.3 0.2 0
12.6 0.2 0
12.9 0.2 0
13.2 0.2 0
13.5 0.2 0
13.8 0.2 0
14.1 0.2 0
14.4 0.2 0
14.7 0.2 0
15 0.2 0
15.3 0.2 0
15.6 0.2 0
15.9 0.2 0
16.2 0.2 0
16.5 0.2 0
16.8 0.2 0
17.1 0.2 0
17.4 0.2 0
17.7 0.2 0
18 0.2 0
18.3 0.2 0
18.6 0.2 0
18.9 0.2 0
19.2 0.2 0
19.5 0.2 0
19.8 0.2 0
20.1 0.2 0
20.4 0.2 0
20.7 0.2 0
21 0.2 0
21.3 0.2 0
21.6 0.2 0
21.9 0.2 0
22.2 0.2 0
22.5 0.2 0
22.8 0.2 0
23.1 0.2 0
23.4 0.2 0
23.7 0.2 0
24 0.2 0
24.3 0.2 0
24.6 0.2 0
24.9 0.2 0
25.2 0.2 0
25.5 0.2 0
25.8 0.2 0
26.1 0.2 0
26.4 0.2 0
26.7 0.2 0
27 0.2 0
27.3 0.2 0
27.6 0.2 0
27.9 0.2 0
28.2 0.2 0
28.5 0.2 0
28.8 0.2 0
29.1 0.2 0
29.4 0.2 0
29.7 0.2 0
30 0.2 0
30.3 0.2 0
30.6 0.2 0
0 0.3 0
0.3 0.3 0
0.6 0.3 0
0.9 0.3 0
1.2 0.3 0
1.5 0.3 0
1.8 0.3 0
2.1 0.3 0
2.4 0.3 0
2.7 0.3 0
3 0.3 0
3.3 0.3 0
3.6 0.3 0
3.9 0.3 0
4.2 0.3 0
4.5 0.3 0
4.8 0.3 0
5.1 0.3 0
5.4 0.3 0
5.7 0.3 0
6 0.3 0
6.3 0.3 0
6.6 0.3 0
6.9 0.3 0
7.2 0.3 0
7.5 0.3 0
7.8 0.3 0
8.1 0.3 0
8.4 0.3 0
8.7 0.3 0
9 0.3 0
9.3 0.3 0
9.6 0.3 0
9.9 0.3 0
10.2 0.3 0
10.5 0.3 0
10.8 0.3 0
11.1 0.3 0
11.4 0.3 0
11.7 0.3 0
12 0.3 0
12.3 0.3 0
12.6 0.3 0
12.9 0.3 0
13.2 0.3 0
13.5 0.3 0
13.8 0.3 0
14.1 0.3 0
14.4 0.3 0
14.7 0.3 0
15 0.3 0
15.3 0.3 0
15.6 0.3 0
15.9 0.3 0
16.2 0.3 0
16.5 0.3 0
16.8 0.3 0
17.1 0.3 0
17.4 0.3 0
17.7 0.3 0
18 0.3 0
18.3 0.3 0
18.6 0.3 0
18.9 0.3 0
19.2 0.3 0
19.5 0.3 0
19.8 0.3 0
20.1 0.3 0
20.4 0.3 0
20.7 0.3 0
21 0.3 0
21.3 0.3 0
21.6 0.3 0
21.9 0.3 0
22.2 0.3 0
22.5 0.3 0
22.8 0.3 0
23.1 0.3 0
23.4 0.3 0
23.7 0.3 0
24 0.3 0
24.3 0.3 0
24.6 0.3 0
24.9 0.3 0
25.2 0.3 0
25.5 0.3 0
25.8 0.3 0
26.1 0.3 0
26.4 0.3 0
26.7 0.3 0
27 0.3 0
27.3 0.3 0
27.6 0.3 0
27.9 0.3 0
28.2 0.3 0
28.5 0.3 0
28.8 0.3 0
29.1 0.3 0
29.4 0.3 0
29.7 0.3 0
30 0.3 0
30.3 0.3 0
30.6 0.3 0
0 0.4 0
0.3 0.4 0
0.6 0.4 0
0.9 0.4 0
1.2 0.4 0
1.5 0.4 0
1.8 0.4 0
2.1 0.4 0
2.4 0.4 0
2.7 0.4 0
3 0.4 0
3.3 0.4 0
3.6 0.4 0
3.9 0.4 0
4.2 0.4 0
4.5 0.4 0
4.8 0.4 0
5.1 0.4 0
5.4 0.4 0
5.7 0.4 0
6 0.4 0
6.3 0.4 0
6.6 0.4 0
6.9 0.4 0
7.2 0.4 0
7.5 0.4 0
7.8 0.4 0
8.1 0.4 0
8.4 0.4 0
8.7 0.4 0
9 0.4 0
9.3 0.4 0
9.6 0.4 0
9.9 0.4 0
10.2 0.4 0
10.5 0.4 0
10.8 0.4 0
11.1 0.4 0
11.4 0.4 0
11.7 0.4 0
12 0.4 0
12.3 0.4 0
12.6 0.4 0
12.9 0.4 0
13.2 0.4 0
13.5 0.4 0
13.8 0.4 0
14.1 0.4 0
14.4 0.4 0
14.7 0.4 0
15 0.4 0
15.3 0.4 0
15.6 0.4 0
15.9 0.4 0
16.2 0.4 0
16.5 0.4 0
16.8 0.4 0
17.1 0.4 0
17.4 0.4 0
17.7 0.4 0
18 0.4 0
18.3 0.4 0
18.6 0.4 0
18.9 0.4 0
19.2 0.4 0
19.5 0.4 0
19.8 0.4 0
20.1 0.4 0
20.4 0.4 0
20.7 0.4 0
21 0.4 0
21.3 0.4 0
21.6 0.4 0
21.9 0.4 0
22.2 0.4 0
22.5 0.4 0
22.8 0.4 0
23.1 0.4 0
23.4 0.4 0
23.7 0.4 0
24 0.4 0
24.3 0.4 0
24.6 0.4 0
24.9 0.4 0
25.2 0.4 0
25.5 0.4 0
25.8 0.4 0
26.1 0.4 0
26.4 0.4 0
26.7 0.4 0
27 0.4 0
27.3 0.4 0
27.6 0.4 0
27.9 0.4 0
28.2 0.4 0
28.5 0.4 0
28.8 0.4 0
29.1 0.4 0
29.4 0.4 0
29.7 0.4 0
30 0.4 0
30.3 0.4 0
30.6 0.4 0
0 0.5 0
0.3 0.5 0
0.6 0.5 0
0.9 0.5 0
1.2 0.5 0
1.5 0.5 0
1.8 0.5 0
2.1 0.5 0
2.4 0.5 0
2.7 0.5 0
3 0.5 0
3.3 0.5 0
3.6 0.5 0
3.9 0.5 0
4.2 0.5 0
4.5 0.5 0
4.8 0.5 0
5.1 0.5 0
5.4 0.5 0
5.7 0.5 0
6 0.5 0
6.3 0.5 0
6.6 0.5 0
6.9 0.5 0
7.2 0.5 0
7.5 0.5 0
7.8 0.5 0
8.1 0.5 0
8.4 0.5 0
8.7 0.5 0
9 0.5 0
9.3 0.5 0
9.6 0.5 0
9.9 0.5 0
10.2 0.5 0
10.5 0.5 0
10.8 0.5 0
11.1 0.5 0
11.4 0.5 0
11.7 0.5 0
12 0.5 0
12.3 0.5 0
12.6 0.5 0
12.9 0.5 0
13.2 0.5 0
13.5 0.5 0
13.8 0.5 0
14.1 0.5 0
14.4 0.5 0
14.7 0.5 0
15 0.5 0
15.3 0.5 0
15.6 0.5 0
15.9 0.5 0
16.2 0.5 0
16.5 0.5 0
16.8 0.5 0
17.1 0.5 0
17.4 0.5 0
17.7 0.5 0
18 0.5 0
18.3 0.5 0
18.6 0.5 0
18.9 0.5 0
19.2 0.5 0
19.5 0.5 0
19.8 0.5 0
20.1 0.5 0
20.4 0.5 0
20.7 0.5 0
21 0.5 0
21.3 0.5 0
21.6 0.5 0
21.9 0.5 0
22.2 0.5 0
22.5 0.5 0
22.8 0.5 0
23.1 0.5 0
23.4 0.5 0
23.7 0.5 0
24 0.5 0
24.3 0.5 0
24.6 0.5 0
24.9 0.5 0
25.2 0.5 0
25.5 0.5 0
25.8 0.5 0
26.1 0.5 0
26.4 0.5 0
26.7 0.5 0
27 0.5 0
27.3 0.5 0
27.6 0.5 0
27.9 0.5 0
28.2 0.5 0
28.5 0.5 0
28.8 0.5 0
29.1 0.5 0
29.4 0.5 0
29.7 0.5 0
30 0.5 0
30.3 0.5 0
30.6 0.5 0
0 0.6 0
0.3 0.6 0
0.6 0.6 0
0.9 0.6 0
1.2 0.6 0
1.5 0.6 0
1.8 0.6 0
2.1 0.6 0
2.4 0.6 0
2.7 0.6 0
3 0.6 0
3.3 0.6 0
3.6 0.6 0
3.9 0.6 0
4.2 0.6 0
4.5 0.6 0
4.8 0.6 0
5.1 0.6 0
5.4 0.6 0
5.7 0.6 0
6 0.6 0
6.3 0.6 0
6.6 0.6 0
6.9 0.6 0
7.2 0.6 0
7.5 0.6 0
7.8 0.6 0
8.1 0.6 0
8.4 0.6 0
8.7 0.6 0
9 0.6 0
9.3 0.6 0
9.6 0.6 0
9.9 0.6 0
10.2 0.6 0
10.5 0.6 0
10.8 0.6 0
11.1 0.6 0
11.4 0.6 0
11.7 0.6 0
12 0.6 0
12.3 0.6 0
12.6 0.6 0
12.9 0.6 0
13.2 0.6 0
13.5 0.6 0
13.8 0.6 0
14.1 0.6 0
14.4 0.6 0
14.7 0.6 0
15 0.6 0
15.3 0.6 0
15.6 0.6 0
15.9 0.6 0
16.2 0.6 0
16.5 0.6 0
16.8 0.6 0
17.1 0.6 0
17.4 0.6 0
17.7 0.6 0
18 0.6 0
18.3 0.6 0
18.6 0.6 0
18.9 0.6 0
19.2 0.6 0
19.5 0.6 0
19.8 0.6 0
20.1 0.6 0
20.4 0.6 0
20.7 0.6 0
21 0.6 0
21.3 0.6 0
21.6 0.6 0
21.9 0.6 0
22.2 0.6 0
22.5 0.6 0
22.8 0.6 0
23.1 0.6 0
23.4 0.6 0
23.7 0.6 0
24 0.6 0
24.3 0.6 0
24.6 0.6 0
24.9 0.6 0
25.2 0.6 0
25.5 0.6 0
25.8 0.6 0
26.1 0.6 0
26.4 0.6 0
26.7 0.6 0
27 0.6 0
27.3 0.6 0
27.6 0.6 0
27.9 0.6 0
28.2 0.6 0
28.5 0.6 0
28.8 0.6 0
29.1 0.6 0
29.4 0.6 0
29.7 0.6 0
30 0.6 0
30.3 0.6 0
30.6 0.6 0
0 0.7 0
0.3 0.7 0
0.6 0.7 0
0.9 0.7 0
1.2 0.7 0
1.5 0.7 0
1.8 0.7 0
2.1 0.7 0
2.4 0.7 0
2.7 0.7 0
3 0.7 0
3.3 0.7 0
3.6 0.7 0
3.9 0.7 0
4.2 0.7 0
4.5 0.7 0
4.8 0.7 0
5.1 0.7 0
5.4 0.7 0
5.7 0.7 0
6 0.7 0
6.3 0.7 0
6.6 0.7 0
6.9 0.7 0
7.2 0.7 0
7.5 0.7 0
7.8 0.7 0
8.1 0.7 0
8.4 0.7 0
8.7 0.7 0
9 0.7 0
9.3 0.7 0
9.6 0.7 0
9.9 0.7 0
10.2 0.7 0
10.5 0.7 0
10.8 0.7 0
11.1 0.7 0
11.4 0.7 0
11.7 0.7 0
12 0.7 0
12.3 0.7 0
12.6 0.7 0
12.9 0.7 0
13.2 0.7 0
13.5 0.7 0
13.8 0.7 0
14.1 0.7 0
14.4 0.7 0
14.7 0.7 0
15 0.7 0
15.3 0.7 0
15.6 0.7 0
15.9 0.7 0
16.2 0.7 0
16.5 0.7 0
16.8 0.7 0
17.1 0.7 0
17.4 0.7 0
17.7 0.7 0
18 0.7 0
18.3 0.7 0
18.6 0.7 0
18.9 0.7 0
19.2 0.7 0
19.5 0.7 0
19.8 0.7 0
20.1 0.7 0
20.4 0.7 0
20.7 0.7 0
21 0.7 0
21.3 0.7 0
21.6 0.7 0
21.9 0.7 0
22.2 0.7 0
22.5 0.7 0
22.8 0.7 0
23.1 0.7 0
23.4 0.7 0
23.7 0.7 0
24 0.7 0
24.3 0.7 0
24.6 0.7 0
24.9 0.7 0
25.2 0.7 0
25.5 0.7 0
25.8 0.7 0
26.1 0.7 0
26.4 0.7 0
26.7 0.7 0
27 0.7 0
27.3 0.7 0
27.6 0.7 0
27.9 0.7 0
28.2 0.7 0
28.5 0.7 0
28.8 0.7 0
29.1 0.7 0
29.4 0.7 0
29.7 0.7 0
30 0.7 0
30.3 0.7 0
30.6 0.7 0
0 0.8 0
0.3 0.8 0
0.6 0.8 0
0.9 0.8 0
1.2 0.8 0
1.5 0.8 0
1.8 0.8 0
2.1 0.8 0
2.4 0.8 0
2.7 0.8 0
3 0.8 0
3.3 0.8 0
3.6 0.8 0
3.9 0.8 0
4.2 0.8 0
4.5 0.8 0
4.8 0.8 0
5.1 0.8 0
5.4 0.8 0
5.7 0.8 0
6 0.8 0
6.3 0.8 0
6.6 0.8 0
6.9 0.8 0
7.2 0.8 0
7.5 0.8 0
7.8 0.8 0
8.1 0.8 0
8.4 0.8 0
8.7 0.8 0
9 0.8 0
9.3 0.8 0
9.6 0.8 0
9.9 0.8 0
10.2 0.8 0
10.5 0.8 0
10.8 0.8 0
11.1 0.8 0
11.4 0.8 0
11.7 0.8 0
12 0.8 0
12.3 0.8 0
12.6 0.8 0
12.9 0.8 0
13.2 0.8 0
13.5 0.8 0
13.8 0.8 0
14.1 0.8 0
14.4 0.8 0
14.7 0.8 0
15 0.8 0
15.3 0.8 0
15.6 0.8 0
15.9 0.8 0
16.2 0.8 0
16.5 0.8 0
16.8 0.8 0
17.1 0.8 0
17.4 0.8 0
17.7 0.8 0
18 0.8 0
18.3 0.8 0
18.6 0.8 0
18.9 0.8 0
19.2 0.8 0
19.5 0.8 0
19.8 0.8 0
20.1 0.8 0
20.4 0.8 0
20.7 0.8 0
21 0.8 0
21.3 0.8 0
21.6 0.8 0
21.9 0.8 0
22.2 0.8 0
22.5 0.8 0
22.8 0.8 0
23.1 0.8 0
23.4 0.8 0
23.7 0.8 0
24 0.8 0
24.3 0.8 0
24.6 0.8 0
24.9 0.8 0
25.2 0.8 0
25.5 0.8 0
25.8 0.8 0
26.1 0.8 0
26.4 0.8 0
26.7 0.8 0
27 0.8 0
27.3 0.8 0
27.6 0.8 0
27.9 0.8 0
28.2 0.8 0
28.5 0.8 0
28.8 0.8 0
29.1 0.8 0
29.4 0.8 0
29.7 0.8 0
30 0.8 0
30.3 0.8 0
30.6 0.8 0
0 0.9 0
0.3 0.9 0
0.6 0.9 0
0.9 0.9 0
1.2 0.9 0
1.5 0.9 0
1.8 0.9 0
2.1 0.9 0
2.4 0.9 0
2.7 0.9 0
3 0.9 0
3.3 0.9 0
3.6 0.9 0
3.9 0.9 0
4.2 0.9 0
4.5 0.9 0
4.8 0.9 0
5.1 0.9 0
5.4 0.9 0
5.7 0.9 0
6 0.9 0
6.3 0.9 0
6.6 0.9 0
6.9 0.9 0
7.2 0.9 0
7.5 0.9 0
7.8 0.9 0
8.1 0.9 0
8.4 0.9 0
8.7 0.9 0
9 0.9 0
9.3 0.9 0
9.6 0.9 0
9.9 0.9 0
10.2 0.9 0
10.5 0.9 0
10.8 0.9 0
11.1 0.9 0
11.4 0.9 0
11.7 0.9 0
12 0.9 0
12.3 0.9 0
12.6 0.9 0
12.9 0.9 0
13.2 0.9 0
13.5 0.9 0
13.8 0.9 0
14.1 0.9 0
14.4 0.9 0
14.7 0.9 0
15 0.9 0
15.3 0.9 0
15.6 0.9 0
15.9 0.9 0
16.2 0.9 0
16.5 0.9 0
16.8 0.9 0
17.1 0.9 0
17.4 0.9 0
17.7 0.9 0
18 0.9 0
18.3 0.9 0
18.6 0.9 0
18.9 0.9 0
19.2 0.9 0
19.5 0.9 0
19.8 0.9 0
20.1 0.9 0
20.4 0.9 0
20.7 0.9 0
21 0.9 0
21.3 0.9 0
21.6 0.9 0
21.9 0.9 0
22.2 0.9 0
22.5 0.9 0
22.8 0.9 0
23.1 0.9 0
23.4 0.9 0
23.7 0.9 0
24 0.9 0
24.3 0.9 0
24.6 0.9 0
24.9 0.9 0
25.2 0.9 0
25.5 0.9 0
25.8 0.9 0
26.1 0.9 0
26.4 0.9 0
26.7 0.9 0
27 0.9 0
27.3 0.9 0
27.6 0.9 0
27.9 0.9 0
28.2 0.9 0
28.5 0.9 0
28.8 0.9 0
29.1 0.9 0
29.4 0.9 0
29.7 0.9 0
30 0.9 0
30.3 0.9 0
30.6 0.9 0
0 1 0
0.3 1 0
0.6 1 0
0.9 1 0
1.2 1 0
1.5 1 0
1.8 1 0
2.1 1 0
2.4 1 0
2.7 1 0
3 1 0
3.3 1 0
3.6 1 0
3.9 1 0
4.2 1 0
4.5 1 0
4.8 1 0
5.1 1 0
5.4 1 0
5.7 1 0
6 1 0
6.3 1 0
6.6 1 0
6.9 1 0
7.2 1 0
7.5 1 0
7.8 1 0
8.1 1 0
8.4 1 0
8.7 1 0
9 1 0
9.3 1 0
9.6 1 0
9.9 1 0
10.2 1 0
10.5 1 0
10.8 1 0
11.1 1 0
11.4 1 0
11.7 1 0
12 1 0
12.3 1 0
12.6 1 0
12.9 1 0
13.2 1 0
13.5 1 0
13.8 1 0
14.1 1 0
14.4 1 0
14.7 1 0
15 1 0
15.3 1 0
15.6 1 0
15.9 1 0
16.2 1 0
16.5 1 0
16.8 1 0
17.1 1 0
17.4 1 0
17.7 1 0
18 1 0
18.3 1 0
18.6 1 0
18.9 1 0
19.2 1 0
19.5 1 0
19.8 1 0
20.1 1 0
20.4 1 0
20.7 1 0
21 1 0
21.3 1 0
21.6 1 0
21.9 1 0
22.2 1 0
22.5 1 0
22.8 1 0
23.1 1 0
23.4 1 0
23.7 1 0
24 1 0
24.3 1 0
24.6 1 0
24.9 1 0
25.2 1 0
25.5 1 0
25.8 1 0
26.1 1 0
26.4 1 0
26.7 1 0
27 1 0
27.3 1 0
27.6 1 0
27.9 1 0
28.2 1 0
28.5 1 0
28.8 1 0
29.1 1 0
29.4 1 0
29.7 1 0
30 1 0
30.3 1 0
30.6 1 0
0 1.1 0
0.3 1.1 0
0.6 1.1 0
0.9 1.1 0
1.2 1.1 0
1.5 1.1 0
1.8 1.1 0
2.1 1.1 0
2.4 1.1 0
2.7 1.1 0
3 1.1 0
3.3 1.1 0
3.6 1.1 0
3.9 1.1 0
4.2 1.1 0
4.5 1.1 0
4.8 1.1 0
5.1 1.1 0
5.4 1.1 0
5.7 1.1 0
6 1.1 0
6.3 1.1 0
6.6 1.1 0
6.9 1.1 0
7.2 1.1 0
7.5 1.1 0
7.8 1.1 0
8.1 1.1 0
8.4 1.1 0
8.7 1.1 0
9 1.1 0
9.3 1.1 0
9.6 1.1 0
9.9 1.1 0
10.2 1.1 0
10.5 1.1 0
10.8 1.1 0
11.1 1.1 0
11.4 1.1 0
11.7 1.1 0
12 1.1 0
12.3 1.1 0
12.6 1.1 0
12.9 1.1 0
13.2 1.1 0
13.5 1.1 0
13.8 1.1 0
14.1 1.1 0
14.4 1.1 0
14.7 1.1 0
15 1.1 0
15.3 1.1 0
15.6 1.1 0
15.9 1.1 0
16.2 1.1 0
16.5 1.1 0
16.8 1.1 0
17.1 1.1 0
17.4 1.1 0
17.7 1.1 0
18 1.1 0
18.3 1.1 0
18.6 1.1 0
18.9 1.1 0
19.2 1.1 0
19.5 1.1 0
19.8 1.1 0
20.1 1.1 0
20.4 1.1 0
20.7 1.1 0
21 1.1 0
21.3 1.1 0
21.6 1.1 0
21.9 1.1 0
22.2 1.1 0
22.5 1.1 0
22.8 1.1 0
23.1 1.1 0
23.4 1.1 0
23.7 1.1 0
24 1.1 0
24.3 1.1 0
24.6 1.1 0
24.9 1.1 0
25.2 1.1 0
25.5 1.1 0
25.8 1.1 0
26.1 1.1 0
26.4 1.1 0
26.7 1.1 0
27 1.1 0
27.3 1.1 0
27.6 1.1 0
27.9 1.1 0
28.2 1.1 0
28.5 1.1 0
28.8 1.1 0
29.1 1.1 0
29.4 1.1 0
29.7 1.1 0
30 1.1 0
30.3 1.1 0
30.6 1.1 0
0 1.2 0
0.3 1.2 0
0.6 1.2 0
0.9 1.2 0
1.2 1.2 0
1.5 1.2 0
1.8 1.2 0
2.1 1.2 0
2.4 1.2 0
2.7 1.2 0
3 1.2 0
3.3 1.2 0
3.6 1.2 0
3.9 1.2 0
4.2 1.2 0
4.5 1.2 0
4.8 1.2 0
5.1 1.2 0
5.4 1.2 0
5.7 1.2 0
6 1.2 0
6.3 1.2 0
6.6 1.2 0
6.9 1.2 0
7.2 1.2 0
7.5 1.2 0
7.8 1.2 0
8.1 1.2 0
8.4 1.2 0
8.7 1.2 0
9 1.2 0
9.3 1.2 0
9.6 1.2 0
9.9 1.2 0
10.2 1.2 0
10.5 1.2 0
10.8 1.2 0
11.1 1.2 0
11.4 1.2 0
11.7 1.2 0
12 1.2 0
12.3 1.2 0
12.6 1.2 0
12.9 1.2 0
13.2 1.2 0
13.5 1.2 0
13.8 1.2 0
14.1 1.2 0
14.4 1.2 0
14.7 1.2 0
15 1.2 0
15.3 1.2 0
15.6 1.2 0
15.9 1.2 0
16.2 1.2 0
16.5 1.2 0
16.8 1.2 0
17.1 1.2 0
17.4 1.2 0
17.7 1.2 0
18 1.2 0
18.3 1.2 0
18.6 1.2 0
18.9 1.2 0
19.2 1.2 0
19.5 1.2 0
19.8 1.2 0
20.1 1.2 0
20.4 1.2 0
20.7 1.2 0
21 1.2 0
21.3 1.2 0
21.6 1.2 0
21.9 1.2 0
22.2 1.2 0
22.5 1.2 0
22.8 1.2 0
23.1 1.2 0
23.4 1.2 0
23.7 1.2 0
24 1.2 0
24.3 1.2 0
24.6 1.2 0
24.9 1.2 0
25.2 1.2 0
25.5 1.2 0
25.8 1.2 0
26.1 1.2 0
26.4 1.2 0
26.7 1.2 0
27 1.2 0
27.3 1.2 0
27.6 1.2 0
27.9 1.2 0
28.2 1.2 0
28.5 1.2 0
28.8 1.2 0
29.1 1.2 0
29.4 1.2 0
29.7 1.2 0
30 1.2 0
30.3 1.2 0
30.6 1.2 0

POINT_DATA 1339

SCALARS pressure double
LOOKUP_TABLE pressure
1.17397
1.17397
1.10913
1.06489
1.02507
0.988496
0.955444
0.925916
0.89956
0.875851
0.854249
0.834286
0.815592
0.797893
0.780986
0.764727
0.749008
0.733752
0.7189
0.704405
0.690231
0.676346
0.662725
0.649346
0.63619
0.62324
0.610481
0.597898
0.58548
0.573215
0.561094
0.549106
0.537244
0.525499
0.513867
0.502341
0.490917
0.479592
0.468364
0.457231
0.446192
0.435244
0.424387
0.413618
0.402932
0.392327
0.381797
0.371336
0.360937
0.350594
0.3403
0.330047
0.319831
0.309644
0.299481
0.289338
0.27921
0.269094
0.258987
0.248888
0.238793
0.228703
0.218615
0.208529
0.198444
0.18836
0.178277
0.168195
0.158113
0.148031
0.137949
0.127867
0.117785
0.107704
0.097622
0.0875404
0.0774588
0.0673771
0.0572955
0.0472139
0.0371323
0.0270506
0.016969
0.00688742
-0.00319419
-0.0132758
-0.0233574
-0.033439
-0.0435206
-0.0536022
-0.0636838
-0.0737654
-0.083847
-0.0939286
-0.10401
-0.114092
-0.124173
-0.134255
-0.144336
-0.154418
-0.1645
-0.174574
0.174574
1.17397
1.17397
1.10913
1.06489
1.02507
0.988496
0.955444
0.925916
0.89956
0.875851
0.854249
0.834286
0.815592
0.797893
0.780986
0.764727
0.749008
0.733752
0.7189
0.704405
0.690231
0.676346
0.662725
0.649346
0.63619
0.62324
0.610481
0.597898
0.58548
0.573215
0.561094
0.549106
0.537244
0.525499
0.513867
0.502341
0.490917
0.479592
0.468364
0.457231
0.446192
0.435244
0.424387
0.413618
0.402932
0.392327
0.381797
0.371336
0.360937
0.350594
0.3403
0.330047
0.319831
0.309644
0.299481
0.289338
0.27921
0.269094
0.258987
0.248888
0.238793
0.228703
0.218615
0.208529
0.198444
0.18836
0.178277
0.168195
0.158113
0.148031
0.137949
0.127867
0.117785
0.107704
0.097622
0.0875404
0.0774588
0.0673771
0.0572955
0.0472139
0.0371323
0.0270506
0.016969
0.00688742
-0.00319419
-0.0132758
-0.0233574
-0.033439
-0.0435206
-0.0536022
-0.0636838
-0.0737654
-0.083847
-0.0939286
-0.10401
-0.114092
-0.124173
-0.134255
-0.144336
-0.154418
-0.1645
-0.174574
0.174574
1.15303
1.15303
1.10714
1.06512
1.02577
0.989292
0.956187
0.926547
0.900067
0.876246
0.854552
0.834519
0.815774
0.798038
0.781104
0.764824
0.749091
0.733823
0.718962
0.70446
0.69028
0.67639
0.662765
0.649383
0.636224
0.623271
0.610509
0.597924
0.585504
0.573238
0.561115
0.549125
0.537262
0.525516
0.513882
0.502355
0.49093
0.479604
0.468374
0.45724
0.446199
0.435251
0.424392
0.413622
0.402936
0.39233
0.381799
0.371337
0.360937
0.350594
0.3403
0.330047
0.319831
0.309644
0.299481
0.289337
0.27921
0.269094
0.258987
0.248888
0.238793
0.228702
0.218615
0.208529
0.198444
0.18836
0.178277
0.168195
0.158113
0.148031
0.137949
0.127867
0.117785
0.107704
0.097622
0.0875404
0.0774588
0.0673771
0.0572955
0.0472139
0.0371323
0.0270506
0.016969
0.00688742
-0.00319419
-0.0132758
-0.0233574
-0.033439
-0.0435206
-0.0536022
-0.0636838
-0.0737654
-0.083847
-0.0939286
-0.10401
-0.114092
-0.124173
-0.134255
-0.144336
-0.154418
-0.164501
-0.174573
0.174573
1.13805
1.13805
1.10426
1.06535
1.02689
0.990616
0.957448
0.927625
0.900929
0.876905
0.855045
0.834884
0.816046
0.798243
0.781262
0.764949
0.749192
0.733907
0.719033
0.704521
0.690333
0.676437
0.662807
0.64942
0.636257
0.623301
0.610536
0.597949
0.585527
0.573258
0.561133
0.549143
0.537278
0.525531
0.513896
0.502367
0.490941
0.479614
0.468383
0.457248
0.446206
0.435257
0.424398
0.413626
0.402939
0.392332
0.3818
0.371338
0.360938
0.350594
0.3403
0.330047
0.31983
0.309643
0.299481
0.289337
0.279209
0.269094
0.258987
0.248887
0.238793
0.228702
0.218614
0.208529
0.198444
0.18836
0.178277
0.168195
0.158113
0.148031
0.137949
0.127867
0.117785
0.107704
0.097622
0.0875404
0.0774588
0.0673771
0.0572955
0.0472139
0.0371323
0.0270506
0.016969
0.00688742
-0.00319419
-0.0132758
-0.0233574
-0.033439
-0.0435206
-0.0536022
-0.0636838
-0.0737654
-0.083847
-0.0939286
-0.10401
-0.114092
-0.124173
-0.134255
-0.144336
-0.154417
-0.164498
-0.174571
0.174571
1.12848
1.12848
1.10177
1.06546
1.02784
0.991811
0.958625
0.928662
0.901782
0.877578
0.855562
0.835279
0.816348
0.798477
0.781447
0.765099
0.749315
0.734011
0.719121
0.704597
0.690399
0.676495
0.662858
0.649466
0.636298
0.623338
0.61057
0.597979
0.585554
0.573284
0.561157
0.549164
0.537297
0.525549
0.513912
0.502383
0.490955
0.479627
0.468396
0.45726
0.446217
0.435267
0.424407
0.413634
0.402946
0.392339
0.381806
0.371343
0.360942
0.350598
0.340303
0.330049
0.319832
0.309645
0.299482
0.289338
0.27921
0.269094
0.258987
0.248888
0.238793
0.228702
0.218615
0.208529
0.198444
0.18836
0.178277
0.168195
0.158113
0.148031
0.137949
0.127867
0.117785
0.107704
0.097622
0.0875404
0.0774588
0.0673771
0.0572955
0.0472139
0.0371323
0.0270506
0.016969
0.00688742
-0.00319419
-0.0132758
-0.0233574
-0.033439
-0.0435206
-0.0536022
-0.0636838
-0.0737654
-0.083847
-0.0939286
-0.10401
-0.114092
-0.124173
-0.134255
-0.144336
-0.154416
-0.164492
-0.174568
0.174568
1.12316
1.12316
1.10015
1.06548
1.02843
0.992578
0.959394
0.929351
0.90236
0.878042
0.855926
0.835563
0.816571
0.798654
0.78159
0.765216
0.749414
0.734095
0.719195
0.704662
0.690456
0.676546
0.662904
0.649507
0.636336
0.623372
0.6106
0.598007
0.58558
0.573307
0.561178
0.549184
0.537315
0.525566
0.513928
0.502397
0.490969
0.479641
0.468409
0.457272
0.446229
0.435278
0.424417
0.413644
0.402956
0.392347
0.381814
0.371349
0.360948
0.350603
0.340307
0.330053
0.319835
0.309647
0.299483
0.289339
0.279211
0.269095
0.258988
0.248888
0.238794
0.228703
0.218615
0.208529
0.198444
0.18836
0.178277
0.168195
0.158113
0.148031
0.137949
0.127867
0.117785
0.107704
0.097622
0.0875404
0.0774588
0.0673771
0.0572955
0.0472139
0.0371323
0.0270506
0.016969
0.00688742
-0.00319419
-0.0132758
-0.0233574
-0.033439
-0.0435206
-0.0536022
-0.0636838
-0.0737654
-0.083847
-0.0939286
-0.10401
-0.114092
-0.124173
-0.134255
-0.144336
-0.154415
-0.164486
-0.174566
0.174566
1.12147
1.12147
1.0996
1.06549
1.02865
0.992852
0.959668
0.929597
0.902566
0.878209
0.856059
0.835667
0.816654
0.798721
0.781645
0.765262
0.749453
0.734129
0.719224
0.704688
0.690479
0.676567
0.662923
0.649524
0.636351
0.623386
0.610613
0.598019
0.585591
0.573317
0.561187
0.549192
0.537323
0.525573
0.513935
0.502404
0.490975
0.479646
0.468414
0.457278
0.446234
0.435283
0.424422
0.413649
0.40296
0.392351
0.381817
0.371353
0.360951
0.350605
0.340309
0.330055
0.319836
0.309648
0.299484
0.28934
0.279212
0.269095
0.258988
0.248888
0.238794
0.228703
0.218615
0.208529
0.198444
0.18836
0.178278
0.168195
0.158113
0.148031
0.137949
0.127867
0.117785
0.107704
0.097622
0.0875404
0.0774588
0.0673771
0.0572955
0.0472139
0.0371323
0.0270506
0.016969
0.00688742
-0.00319419
-0.0132758
-0.0233574
-0.033439
-0.0435206
-0.0536022
-0.0636838
-0.0737654
-0.083847
-0.0939286
-0.10401
-0.114092
-0.124173
-0.134255
-0.144335
-0.154414
-0.164483
-0.174564
0.174564
1.12316
1.12316
1.10015
1.06548
1.02843
0.992578
0.959394
0.929351
0.90236
0.878042
0.855926
0.835563
0.816571
0.798654
0.78159
0.765216
0.749414
0.734095
0.719195
0.704662
0.690456
0.676546
0.662904
0.649507
0.636336
0.623372
0.6106
0.598007
0.58558
0.573307
0.561178
0.549184
0.537315
0.525566
0.513928
0.502397
0.490969
0.479641
0.468409
0.457272
0.446229
0.435278
0.424417
0.413644
0.402956
0.392347
0.381814
0.371349
0.360948
0.350603
0.340307
0.330053
0.319835
0.309647
0.299483
0.289339
0.279211
0.269095
0.258988
0.248888
0.238794
0.228703
0.218615
0.208529
0.198444
0.18836
0.178277
0.168195
0.158113
0.148031
0.137949
0.127867
0.117785
0.107704
0.097622
0.0875404
0.0774588
0.0673771
0.0572955
0.0472139
0.0371323
0.0270506
0.016969
0.00688742
-0.00319419
-0.0132758
-0.0233574
-0.033439
-0.0435206
-0.0536022
-0.0636838
-0.0737654
-0.083847
-0.0939286
-0.10401
-0.114092
-0.124173
-0.134255
-0.144336
-0.154415
-0.164486
-0.174566
0.174566
1.12848
1.12848
1.10177
1.06546
1.02784
0.991811
0.958625
0.928662
0.901782
0.877578
0.855562
0.835279
0.816348
0.798477
0.781447
0.765099
0.749315
0.734011
0.719121
0.704597
0.690399
0.676495
0.662858
0.649466
0.636298
0.623338
0.61057
0.597979
0.585554
0.573284
0.561157
0.549164
0.537297
0.525549
0.513912
0.502383
0.490955
0.479627
0.468396
0.45726
0.446217
0.435267
0.424407
0.413634
0.402946
0.392339
0.381806
0.371343
0.360942
0.350598
0.340303
0.330049
0.319832
0.309645
0.299482
0.289338
0.27921
0.269094
0.258987
0.248888
0.238793
0.228702
0.218615
0.208529
0.198444
0.18836
0.178277
0.168195
0.158113
0.148031
0.137949
0.127867
0.117785
0.107704
0.097622
0.0875404
0.0774588
0.0673771
0.0572955
0.0472139
0.0371323
0.0270506
0.016969
0.00688742
-0.00319419
-0.0132758
-0.0233574
-0.033439
-0.0435206
-0.0536022
-0.0636838
-0.0737654
-0.083847
-0.0939286
-0.10401
-0.114092
-0.124173
-0.134255
-0.144336
-0.154416
-0.164492
-0.174568
0.174568
1.13805
1.13805
1.10426
1.06535
1.02689
0.990616
0.957448
0.927625
0.900929
0.876905
0.855045
0.834884
0.816046
0.798243
0.781262
0.764949
0.749192
0.733907
0.719033
0.704521
0.690333
0.676437
0.662807
0.64942
0.636257
0.623301
0.610536
0.597949
0.585527
0.573258
0.561133
0.549143
0.537278
0.525531
0.513896
0.502367
0.490941
0.479614
0.468383
0.457248
0.446206
0.435257
0.424398
0.413626
0.402939
0.392332
0.3818
0.371338
0.360938
0.350594
0.3403
0.330047
0.31983
0.309643
0.299481
0.289337
0.279209
0.269094
0.258987
0.248887
0.238793
0.228702
0.218614
0.208529
0.198444
0.18836
0.178277
0.168195
0.158113
0.148031
0.137949
0.127867
0.117785
0.107704
0.097622
0.0875404
0.0774588
0.0673771
0.0572955
0.0472139
0.0371323
0.0270506
0.016969
0.00688742
-0.00319419
-0.0132758
-0.0233574
-0.033439
-0.0435206
-0.0536022
-0.0636838
-0.0737654
-0.083847
-0.0939286
-0.10401
-0.114092
-0.124173
-0.134255
-0.144336
-0.154417
-0.164498
-0.174571
0.174571
1.15303
1.15303
1.10714
1.06512
1.02577
0.989292
0.956187
0.926547
0.900067
0.876246
0.854552
0.834519
0.815774
0.798038
0.781104
0.764824
0.749091
0.733823
0.718962
0.70446
0.69028
0.67639
0.662765
0.649383
0.636224
0.623271
0.610509
0.597924
0.585504
0.573238
0.561115
0.549125
0.537262
0.525516
0.513882
0.502355
0.49093
0.479604
0.468374
0.45724
0.446199
0.435251
0.424392
0.413622
0.402936
0.39233
0.381799
0.371337
0.360937
0.350594
0.3403
0.330047
0.319831
0.309644
0.299481
0.289337
0.27921
0.269094
0.258987
0.248888
0.238793
0.228702
0.218615
0.208529
0.198444
0.18836
0.178277
0.168195
0.158113
0.148031
0.137949
0.127867
0.117785
0.107704
0.097622
0.0875404
0.0774588
0.0673771
0.0572955
0.0472139
0.0371323
0.0270507
0.016969
0.00688742
-0.00319419
-0.0132758
-0.0233574
-0.033439
-0.0435206
-0.0536022
-0.0636838
-0.0737654
-0.083847
-0.0939286
-0.10401
-0.114092
-0.124173
-0.134255
-0.144336
-0.154418
-0.164501
-0.174573
0.174573
1.17397
1.17397
1.10913
1.06489
1.02507
0.988496
0.955444
0.925916
0.89956
0.875851
0.854249
0.834286
0.815592
0.797893
0.780986
0.764727
0.749008
0.733752
0.7189
0.704405
0.690231
0.676346
0.662725
0.649346
0.63619
0.62324
0.610481
0.597898
0.58548
0.573215
0.561094
0.549106
0.537244
0.525499
0.513867
0.502341
0.490917
0.479592
0.468364
0.457231
0.446192
0.435244
0.424387
0.413618
0.402932
0.392327
0.381797
0.371336
0.360937
0.350594
0.3403
0.330047
0.319831
0.309644
0.299481
0.289338
0.27921
0.269094
0.258987
0.248888
0.238793
0.228703
0.218615
0.208529
0.198444
0.18836
0.178277
0.168195
0.158113
0.148031
0.137949
0.127867
0.117785
0.107704
0.097622
0.0875404
0.0774588
0.0673771
0.0572955
0.0472139
0.0371323
0.0270506
0.016969
0.00688742
-0.00319419
-0.0132758
-0.0233574
-0.033439
-0.0435206
-0.0536022
-0.0636838
-0.0737654
-0.083847
-0.0939286
-0.10401
-0.114092
-0.124173
-0.134255
-0.144336
-0.154418
-0.1645
-0.174574
0.174574
1.17397
1.17397
1.10913
1.06489
1.02507
0.988496
0.955444
0.925916
0.89956
0.875851
0.854249
0.834286
0.815592
0.797893
0.780986
0.764727
0.749008
0.733752
0.7189
0.704405
0.690231
0.676346
0.662725
0.649346
0.63619
0.62324
0.610481
0.597898
0.58548
0.573215
0.561094
0.549106
0.537244
0.525499
0.513867
0.502341
0.490917
0.479592
0.468364
0.457231
0.446192
0.435244
0.424387
0.413618
0.402932
0.392327
0.381797
0.371336
0.360937
0.350594
0.3403
0.330047
0.319831
0.309644
0.299481
0.289338
0.27921
0.269094
0.258987
0.248888
0.238793
0.228703
0.218615
0.208529
0.198444
0.18836
0.178277
0.168195
0.158113
0.148031
0.137949
0.127867
0.117785
0.107704
0.097622
0.0875404
0.0774588
0.0673771
0.0572955
0.0472139
0.0371323
0.0270506
0.016969
0.00688742
-0.00319419
-0.0132758
-0.0233574
-0.033439
-0.0435206
-0.0536022
-0.0636838
-0.0737654
-0.083847
-0.0939286
-0.10401
-0.114092
-0.124173
-0.134255
-0.144336
-0.154418
-0.1645
-0.174574
0.174574
SCALARS phi double
LOOKUP_TABLE phi
1
1
1
1
0.999998
0.999994
0.999982
0.999957
0.999909
0.99983
0.999708
0.99952
0.999257
0.998958
0.998665
0.998256
0.997248
0.994754
0.989654
0.980895
0.967747
0.949926
0.927561
0.901079
0.87107
0.838181
0.803054
0.766285
0.728419
0.689934
0.651248
0.612718
0.574639
0.537255
0.500757
0.465296
0.430982
0.397896
0.366095
0.335616
0.306483
0.278712
0.252314
0.227299
0.203675
0.181452
0.160641
0.141253
0.123298
0.10678
0.0916996
0.0780454
0.0657956
0.0549151
0.0453539
0.0370479
0.0299191
0.0238777
0.0188251
0.0146569
0.0112663
0.00854752
0.00639926
0.00472682
0.00344425
0.00247545
0.00175473
0.00122668
0.000845681
0.00057494
0.000385462
0.000254853
0.000166173
0.000106861
6.77769e-05
4.24017e-05
2.61671e-05
1.59307e-05
9.56881e-06
5.67111e-06
3.31671e-06
1.91435e-06
1.09057e-06
6.13276e-07
3.40464e-07
1.86616e-07
1.01004e-07
5.39872e-08
2.85004e-08
1.48617e-08
7.6559e-09
3.89654e-09
1.9596e-09
9.73883e-10
4.78352e-10
2.32239e-10
1.1146e-10
5.28861e-11
2.48122e-11
1.15077e-11
5.30294e-12
2.24112e-12
2.24112e-12
1
1
1
1
0.999998
0.999994
0.999982
0.999957
0.999909
0.99983
0.999708
0.99952
0.999257
0.998958
0.998665
0.998256
0.997248
0.994754
0.989654
0.980895
0.967747
0.949926
0.927561
0.901079
0.87107
0.838181
0.803054
0.766285
0.728419
0.689934
0.651248
0.612718
0.574639
0.537255
0.500757
0.465296
0.430982
0.397896
0.366095
0.335616
0.306483
0.278712
0.252314
0.227299
0.203675
0.181452
0.160641
0.141253
0.123298
0.10678
0.0916996
0.0780454
0.0657956
0.0549151
0.0453539
0.0370479
0.0299191
0.0238777
0.0188251
0.0146569
0.0112663
0.00854752
0.00639926
0.00472682
0.00344425
0.00247545
0.00175473
0.00122668
0.000845681
0.00057494
0.000385462
0.000254853
0.000166173
0.000106861
6.77769e-05
4.24017e-05
2.61671e-05
1.59307e-05
9.56881e-06
5.67111e-06
3.31671e-06
1.91435e-06
1.09057e-06
6.13276e-07
3.40464e-07
1.86616e-07
1.01004e-07
5.39872e-08
2.85004e-08
1.48617e-08
7.6559e-09
3.89654e-09
1.9596e-09
9.73883e-10
4.78352e-10
2.32239e-10
1.1146e-10
5.28861e-11
2.48122e-11
1.15077e-11
5.30294e-12
2.24112e-12
2.24112e-12
1
1
1
0.999996
0.999983
0.999953
0.999898
0.999804
0.999658
0.999446
0.999157
0.998778
0.998296
0.997708
0.997026
0.996253
0.995323
0.994034
0.992021
0.988786
0.983779
0.976489
0.966525
0.953649
0.937784
0.918997
0.897465
0.873445
0.847248
0.819208
0.789672
0.758978
0.727448
0.695381
0.663046
0.630679
0.598479
0.566612
0.535208
0.504362
0.474139
0.444575
0.415688
0.387476
0.359929
0.333036
0.306791
0.281198
0.256283
0.23209
0.20869
0.186176
0.164661
0.144268
0.125125
0.107351
0.0910495
0.076295
0.0631289
0.0515546
0.0415366
0.033004
0.025855
0.0199646
0.0151925
0.0113916
0.00841561
0.00612491
0.00439148
0.00310182
0.00215835
0.00147961
0.000999343
0.000665053
0.000436123
0.000281848
0.000179523
0.000112713
6.97634e-05
4.25732e-05
2.56186e-05
1.52035e-05
8.89927e-06
5.13866e-06
2.92744e-06
1.64562e-06
9.12913e-07
4.99862e-07
2.70177e-07
1.44173e-07
7.59646e-08
3.95267e-08
2.03131e-08
1.03116e-08
5.17118e-09
2.56228e-09
1.25455e-09
6.0705e-10
2.90339e-10
1.37218e-10
6.44465e-11
2.76401e-11
2.76401e-11
0.999997
1
0.99998
0.999896
0.999724
0.999434
0.998999
0.998397
0.997613
0.996636
0.995464
0.994099
0.992546
0.990814
0.988915
0.986864
0.984672
0.982328
0.979786
0.976945
0.973655
0.969723
0.964934
0.959069
0.951933
0.943363
0.93324
0.921494
0.908101
0.893081
0.876495
0.858432
0.839011
0.818367
0.796648
0.77401
0.750608
0.726591
0.702098
0.677251
0.65215
0.626868
0.601452
0.575917
0.550245
0.524394
0.498296
0.471871
0.445035
0.417722
0.389895
0.361566
0.332812
0.303782
0.2747
0.245857
0.217593
0.19028
0.164286
0.139954
0.117569
0.0973454
0.0794108
0.0638033
0.0504774
0.039315
0.0301419
0.0227456
0.0168936
0.0123493
0.00888532
0.0062927
0.00438701
0.00301099
0.00203473
0.00135399
0.000887351
0.000572803
0.000364259
0.000228231
0.000140919
8.57549e-05
5.14416e-05
3.04231e-05
1.77417e-05
1.02038e-05