# vtk DataFile Version 3.0
FlowField
ASCII
DATASET STRUCTURED_GRID
DIMENSIONS 103 13 1 
POINTS 1339 double
0 0 0
0.3 0 0
0.6 0 0
0.9 0 0
1.2 0 0
1.5 0 0
1.8 0 0
2.1 0 0
2.4 0 0
2.7 0 0
3 0 0
3.3 0 0
3.6 0 0
3.9 0 0
4.2 0 0
4.5 0 0
4.8 0 0
5.1 0 0
5.4 0 0
5.7 0 0
6 0 0
6.3 0 0
6.6 0 0
6.9 0 0
7.2 0 0
7.5 0 0
7.8 0 0
8.1 0 0
8.4 0 0
8.7 0 0
9 0 0
9.3 0 0
9.6 0 0
9.9 0 0
10.2 0 0
10.5 0 0
10.8 0 0
11.1 0 0
11.4 0 0
11.7 0 0
12 0 0
12.3 0 0
12.6 0 0
12.9 0 0
13.2 0 0
13.5 0 0
13.8 0 0
14.1 0 0
14.4 0 0
14.7 0 0
15 0 0
15.3 0 0
15.6 0 0
15.9 0 0
16.2 0 0
16.5 0 0
16.8 0 0
17.1 0 0
17.4 0 0
17.7 0 0
18 0 0
18.3 0 0
18.6 0 0
18.9 0 0
19.2 0 0
19.5 0 0
19.8 0 0
20.1 0 0
20.4 0 0
20.7 0 0
21 0 0
21.3 0 0
21.6 0 0
21.9 0 0
22.2 0 0
22.5 0 0
22.8 0 0
23.1 0 0
23.4 0 0
23.7 0 0
24 0 0
24.3 0 0
24.6 0 0
24.9 0 0
25.2 0 0
25.5 0 0
25.8 0 0
26.1 0 0
26.4 0 0
26.7 0 0
27 0 0
27.3 0 0
27.6 0 0
27.9 0 0
28.2 0 0
28.5 0 0
28.8 0 0
29.1 0 0
29.4 0 0
29.7 0 0
30 0 0
30.3 0 0
30.6 0 0
0 0.1 0
0.3 0.1 0
0.6 0.1 0
0.9 0.1 0
1.2 0.1 0
1.5 0.1 0
1.8 0.1 0
2.1 0.1 0
2.4 0.1 0
2.7 0.1 0
3 0.1 0
3.3 0.1 0
3.6 0.1 0
3.9 0.1 0
4.2 0.1 0
4.5 0.1 0
4.8 0.1 0
5.1 0.1 0
5.4 0.1 0
5.7 0.1 0
6 0.1 0
6.3 0.1 0
6.6 0.1 0
6.9 0.1 0
7.2 0.1 0
7.5 0.1 0
7.8 0.1 0
8.1 0.1 0
8.4 0.1 0
8.7 0.1 0
9 0.1 0
9.3 0.1 0
9.6 0.1 0
9.9 0.1 0
10.2 0.1 0
10.5 0.1 0
10.8 0.1 0
11.1 0.1 0
11.4 0.1 0
11.7 0.1 0
12 0.1 0
12.3 0.1 0
12.6 0.1 0
12.9 0.1 0
13.2 0.1 0
13.5 0.1 0
13.8 0.1 0
14.1 0.1 0
14.4 0.1 0
14.7 0.1 0
15 0.1 0
15.3 0.1 0
15.6 0.1 0
15.9 0.1 0
16.2 0.1 0
16.5 0.1 0
16.8 0.1 0
17.1 0.1 0
17.4 0.1 0
17.7 0.1 0
18 0.1 0
18.3 0.1 0
18.6 0.1 0
18.9 0.1 0
19.2 0.1 0
19.5 0.1 0
19.8 0.1 0
20.1 0.1 0
20.4 0.1 0
20.7 0.1 0
21 0.1 0
21.3 0.1 0
21.6 0.1 0
21.9 0.1 0
22.2 0.1 0
22.5 0.1 0
22.8 0.1 0
23.1 0.1 0
23.4 0.1 0
23.7 0.1 0
24 0.1 0
24.3 0.1 0
24.6 0.1 0
24.9 0.1 0
25.2 0.1 0
25.5 0.1 0
25.8 0.1 0
26.1 0.1 0
26.4 0.1 0
26.7 0.1 0
27 0.1 0
27.3 0.1 0
27.6 0.1 0
27.9 0.1 0
28.2 0.1 0
28.5 0.1 0
28.8 0.1 0
29.1 0.1 0
29.4 0.1 0
29.7 0.1 0
30 0.1 0
30.3 0.1 0
30.6 0.1 0
0 0.2 0
0.3 0.2 0
0.6 0.2 0
0.9 0.2 0
1.2 0.2 0
1.5 0.2 0
1.8 0.2 0
2.1 0.2 0
2.4 0.2 0
2.7 0.2 0
3 0.2 0
3.3 0.2 0
3.6 0.2 0
3.9 0.2 0
4.2 0.2 0
4.5 0.2 0
4.8 0.2 0
5.1 0.2 0
5.4 0.2 0
5.7 0.2 0
6 0.2 0
6.3 0.2 0
6.6 0.2 0
6.9 0.2 0
7.2 0.2 0
7.5 0.2 0
7.8 0.2 0
8.1 0.2 0
8.4 0.2 0
8.7 0.2 0
9 0.2 0
9.3 0.2 0
9.6 0.2 0
9.9 0.2 0
10.2 0.2 0
10.5 0.2 0
10.8 0.2 0
11.1 0.2 0
11.4 0.2 0
11.7 0.2 0
12 0.2 0
12.3 0.2 0
12.6 0.2 0
12.9 0.2 0
13.2 0.2 0
13.5 0.2 0
13.8 0.2 0
14.1 0.2 0
14.4 0.2 0
14.7 0.2 0
15 0.2 0
15.3 0.2 0
15.6 0.2 0
15.9 0.2 0
16.2 0.2 0
16.5 0.2 0
16.8 0.2 0
17.1 0.2 0
17.4 0.2 0
17.7 0.2 0
18 0.2 0
18.3 0.2 0
18.6 0.2 0
18.9 0.2 0
19.2 0.2 0
19.5 0.2 0
19.8 0.2 0
20.1 0.2 0
20.4 0.2 0
20.7 0.2 0
21 0.2 0
21.3 0.2 0
21.6 0.2 0
21.9 0.2 0
22.2 0.2 0
22.5 0.2 0
22.8 0.2 0
23.1 0.2 0
23.4 0.2 0
23.7 0.2 0
24 0.2 0
24.3 0.2 0
24.6 0.2 0
24.9 0.2 0
25.2 0.2 0
25.5 0.2 0
25.8 0.2 0
26.1 0.2 0
26.4 0.2 0
26.7 0.2 0
27 0.2 0
27.3 0.2 0
27.6 0.2 0
27.9 0.2 0
28.2 0.2 0
28.5 0.2 0
28.8 0.2 0
29.1 0.2 0
29.4 0.2 0
29.7 0.2 0
30 0.2 0
30.3 0.2 0
30.6 0.2 0
0 0.3 0
0.3 0.3 0
0.6 0.3 0
0.9 0.3 0
1.2 0.3 0
1.5 0.3 0
1.8 0.3 0
2.1 0.3 0
2.4 0.3 0
2.7 0.3 0
3 0.3 0
3.3 0.3 0
3.6 0.3 0
3.9 0.3 0
4.2 0.3 0
4.5 0.3 0
4.8 0.3 0
5.1 0.3 0
5.4 0.3 0
5.7 0.3 0
6 0.3 0
6.3 0.3 0
6.6 0.3 0
6.9 0.3 0
7.2 0.3 0
7.5 0.3 0
7.8 0.3 0
8.1 0.3 0
8.4 0.3 0
8.7 0.3 0
9 0.3 0
9.3 0.3 0
9.6 0.3 0
9.9 0.3 0
10.2 0.3 0
10.5 0.3 0
10.8 0.3 0
11.1 0.3 0
11.4 0.3 0
11.7 0.3 0
12 0.3 0
12.3 0.3 0
12.6 0.3 0
12.9 0.3 0
13.2 0.3 0
13.5 0.3 0
13.8 0.3 0
14.1 0.3 0
14.4 0.3 0
14.7 0.3 0
15 0.3 0
15.3 0.3 0
15.6 0.3 0
15.9 0.3 0
16.2 0.3 0
16.5 0.3 0
16.8 0.3 0
17.1 0.3 0
17.4 0.3 0
17.7 0.3 0
18 0.3 0
18.3 0.3 0
18.6 0.3 0
18.9 0.3 0
19.2 0.3 0
19.5 0.3 0
19.8 0.3 0
20.1 0.3 0
20.4 0.3 0
20.7 0.3 0
21 0.3 0
21.3 0.3 0
21.6 0.3 0
21.9 0.3 0
22.2 0.3 0
22.5 0.3 0
22.8 0.3 0
23.1 0.3 0
23.4 0.3 0
23.7 0.3 0
24 0.3 0
24.3 0.3 0
24.6 0.3 0
24.9 0.3 0
25.2 0.3 0
25.5 0.3 0
25.8 0.3 0
26.1 0.3 0
26.4 0.3 0
26.7 0.3 0
27 0.3 0
27.3 0.3 0
27.6 0.3 0
27.9 0.3 0
28.2 0.3 0
28.5 0.3 0
28.8 0.3 0
29.1 0.3 0
29.4 0.3 0
29.7 0.3 0
30 0.3 0
30.3 0.3 0
30.6 0.3 0
0 0.4 0
0.3 0.4 0
0.6 0.4 0
0.9 0.4 0
1.2 0.4 0
1.5 0.4 0
1.8 0.4 0
2.1 0.4 0
2.4 0.4 0
2.7 0.4 0
3 0.4 0
3.3 0.4 0
3.6 0.4 0
3.9 0.4 0
4.2 0.4 0
4.5 0.4 0
4.8 0.4 0
5.1 0.4 0
5.4 0.4 0
5.7 0.4 0
6 0.4 0
6.3 0.4 0
6.6 0.4 0
6.9 0.4 0
7.2 0.4 0
7.5 0.4 0
7.8 0.4 0
8.1 0.4 0
8.4 0.4 0
8.7 0.4 0
9 0.4 0
9.3 0.4 0
9.6 0.4 0
9.9 0.4 0
10.2 0.4 0
10.5 0.4 0
10.8 0.4 0
11.1 0.4 0
11.4 0.4 0
11.7 0.4 0
12 0.4 0
12.3 0.4 0
12.6 0.4 0
12.9 0.4 0
13.2 0.4 0
13.5 0.4 0
13.8 0.4 0
14.1 0.4 0
14.4 0.4 0
14.7 0.4 0
15 0.4 0
15.3 0.4 0
15.6 0.4 0
15.9 0.4 0
16.2 0.4 0
16.5 0.4 0
16.8 0.4 0
17.1 0.4 0
17.4 0.4 0
17.7 0.4 0
18 0.4 0
18.3 0.4 0
18.6 0.4 0
18.9 0.4 0
19.2 0.4 0
19.5 0.4 0
19.8 0.4 0
20.1 0.4 0
20.4 0.4 0
20.7 0.4 0
21 0.4 0
21.3 0.4 0
21.6 0.4 0
21.9 0.4 0
22.2 0.4 0
22.5 0.4 0
22.8 0.4 0
23.1 0.4 0
23.4 0.4 0
23.7 0.4 0
24 0.4 0
24.3 0.4 0
24.6 0.4 0
24.9 0.4 0
25.2 0.4 0
25.5 0.4 0
25.8 0.4 0
26.1 0.4 0
26.4 0.4 0
26.7 0.4 0
27 0.4 0
27.3 0.4 0
27.6 0.4 0
27.9 0.4 0
28.2 0.4 0
28.5 0.4 0
28.8 0.4 0
29.1 0.4 0
29.4 0.4 0
29.7 0.4 0
30 0.4 0
30.3 0.4 0
30.6 0.4 0
0 0.5 0
0.3 0.5 0
0.6 0.5 0
0.9 0.5 0
1.2 0.5 0
1.5 0.5 0
1.8 0.5 0
2.1 0.5 0
2.4 0.5 0
2.7 0.5 0
3 0.5 0
3.3 0.5 0
3.6 0.5 0
3.9 0.5 0
4.2 0.5 0
4.5 0.5 0
4.8 0.5 0
5.1 0.5 0
5.4 0.5 0
5.7 0.5 0
6 0.5 0
6.3 0.5 0
6.6 0.5 0
6.9 0.5 0
7.2 0.5 0
7.5 0.5 0
7.8 0.5 0
8.1 0.5 0
8.4 0.5 0
8.7 0.5 0
9 0.5 0
9.3 0.5 0
9.6 0.5 0
9.9 0.5 0
10.2 0.5 0
10.5 0.5 0
10.8 0.5 0
11.1 0.5 0
11.4 0.5 0
11.7 0.5 0
12 0.5 0
12.3 0.5 0
12.6 0.5 0
12.9 0.5 0
13.2 0.5 0
13.5 0.5 0
13.8 0.5 0
14.1 0.5 0
14.4 0.5 0
14.7 0.5 0
15 0.5 0
15.3 0.5 0
15.6 0.5 0
15.9 0.5 0
16.2 0.5 0
16.5 0.5 0
16.8 0.5 0
17.1 0.5 0
17.4 0.5 0
17.7 0.5 0
18 0.5 0
18.3 0.5 0
18.6 0.5 0
18.9 0.5 0
19.2 0.5 0
19.5 0.5 0
19.8 0.5 0
20.1 0.5 0
20.4 0.5 0
20.7 0.5 0
21 0.5 0
21.3 0.5 0
21.6 0.5 0
21.9 0.5 0
22.2 0.5 0
22.5 0.5 0
22.8 0.5 0
23.1 0.5 0
23.4 0.5 0
23.7 0.5 0
24 0.5 0
24.3 0.5 0
24.6 0.5 0
24.9 0.5 0
25.2 0.5 0
25.5 0.5 0
25.8 0.5 0
26.1 0.5 0
26.4 0.5 0
26.7 0.5 0
27 0.5 0
27.3 0.5 0
27.6 0.5 0
27.9 0.5 0
28.2 0.5 0
28.5 0.5 0
28.8 0.5 0
29.1 0.5 0
29.4 0.5 0
29.7 0.5 0
30 0.5 0
30.3 0.5 0
30.6 0.5 0
0 0.6 0
0.3 0.6 0
0.6 0.6 0
0.9 0.6 0
1.2 0.6 0
1.5 0.6 0
1.8 0.6 0
2.1 0.6 0
2.4 0.6 0
2.7 0.6 0
3 0.6 0
3.3 0.6 0
3.6 0.6 0
3.9 0.6 0
4.2 0.6 0
4.5 0.6 0
4.8 0.6 0
5.1 0.6 0
5.4 0.6 0
5.7 0.6 0
6 0.6 0
6.3 0.6 0
6.6 0.6 0
6.9 0.6 0
7.2 0.6 0
7.5 0.6 0
7.8 0.6 0
8.1 0.6 0
8.4 0.6 0
8.7 0.6 0
9 0.6 0
9.3 0.6 0
9.6 0.6 0
9.9 0.6 0
10.2 0.6 0
10.5 0.6 0
10.8 0.6 0
11.1 0.6 0
11.4 0.6 0
11.7 0.6 0
12 0.6 0
12.3 0.6 0
12.6 0.6 0
12.9 0.6 0
13.2 0.6 0
13.5 0.6 0
13.8 0.6 0
14.1 0.6 0
14.4 0.6 0
14.7 0.6 0
15 0.6 0
15.3 0.6 0
15.6 0.6 0
15.9 0.6 0
16.2 0.6 0
16.5 0.6 0
16.8 0.6 0
17.1 0.6 0
17.4 0.6 0
17.7 0.6 0
18 0.6 0
18.3 0.6 0
18.6 0.6 0
18.9 0.6 0
19.2 0.6 0
19.5 0.6 0
19.8 0.6 0
20.1 0.6 0
20.4 0.6 0
20.7 0.6 0
21 0.6 0
21.3 0.6 0
21.6 0.6 0
21.9 0.6 0
22.2 0.6 0
22.5 0.6 0
22.8 0.6 0
23.1 0.6 0
23.4 0.6 0
23.7 0.6 0
24 0.6 0
24.3 0.6 0
24.6 0.6 0
24.9 0.6 0
25.2 0.6 0
25.5 0.6 0
25.8 0.6 0
26.1 0.6 0
26.4 0.6 0
26.7 0.6 0
27 0.6 0
27.3 0.6 0
27.6 0.6 0
27.9 0.6 0
28.2 0.6 0
28.5 0.6 0
28.8 0.6 0
29.1 0.6 0
29.4 0.6 0
29.7 0.6 0
30 0.6 0
30.3 0.6 0
30.6 0.6 0
0 0.7 0
0.3 0.7 0
0.6 0.7 0
0.9 0.7 0
1.2 0.7 0
1.5 0.7 0
1.8 0.7 0
2.1 0.7 0
2.4 0.7 0
2.7 0.7 0
3 0.7 0
3.3 0.7 0
3.6 0.7 0
3.9 0.7 0
4.2 0.7 0
4.5 0.7 0
4.8 0.7 0
5.1 0.7 0
5.4 0.7 0
5.7 0.7 0
6 0.7 0
6.3 0.7 0
6.6 0.7 0
6.9 0.7 0
7.2 0.7 0
7.5 0.7 0
7.8 0.7 0
8.1 0.7 0
8.4 0.7 0
8.7 0.7 0
9 0.7 0
9.3 0.7 0
9.6 0.7 0
9.9 0.7 0
10.2 0.7 0
10.5 0.7 0
10.8 0.7 0
11.1 0.7 0
11.4 0.7 0
11.7 0.7 0
12 0.7 0
12.3 0.7 0
12.6 0.7 0
12.9 0.7 0
13.2 0.7 0
13.5 0.7 0
13.8 0.7 0
14.1 0.7 0
14.4 0.7 0
14.7 0.7 0
15 0.7 0
15.3 0.7 0
15.6 0.7 0
15.9 0.7 0
16.2 0.7 0
16.5 0.7 0
16.8 0.7 0
17.1 0.7 0
17.4 0.7 0
17.7 0.7 0
18 0.7 0
18.3 0.7 0
18.6 0.7 0
18.9 0.7 0
19.2 0.7 0
19.5 0.7 0
19.8 0.7 0
20.1 0.7 0
20.4 0.7 0
20.7 0.7 0
21 0.7 0
21.3 0.7 0
21.6 0.7 0
21.9 0.7 0
22.2 0.7 0
22.5 0.7 0
22.8 0.7 0
23.1 0.7 0
23.4 0.7 0
23.7 0.7 0
24 0.7 0
24.3 0.7 0
24.6 0.7 0
24.9 0.7 0
25.2 0.7 0
25.5 0.7 0
25.8 0.7 0
26.1 0.7 0
26.4 0.7 0
26.7 0.7 0
27 0.7 0
27.3 0.7 0
27.6 0.7 0
27.9 0.7 0
28.2 0.7 0
28.5 0.7 0
28.8 0.7 0
29.1 0.7 0
29.4 0.7 0
29.7 0.7 0
30 0.7 0
30.3 0.7 0
30.6 0.7 0
0 0.8 0
0.3 0.8 0
0.6 0.8 0
0.9 0.8 0
1.2 0.8 0
1.5 0.8 0
1.8 0.8 0
2.1 0.8 0
2.4 0.8 0
2.7 0.8 0
3 0.8 0
3.3 0.8 0
3.6 0.8 0
3.9 0.8 0
4.2 0.8 0
4.5 0.8 0
4.8 0.8 0
5.1 0.8 0
5.4 0.8 0
5.7 0.8 0
6 0.8 0
6.3 0.8 0
6.6 0.8 0
6.9 0.8 0
7.2 0.8 0
7.5 0.8 0
7.8 0.8 0
8.1 0.8 0
8.4 0.8 0
8.7 0.8 0
9 0.8 0
9.3 0.8 0
9.6 0.8 0
9.9 0.8 0
10.2 0.8 0
10.5 0.8 0
10.8 0.8 0
11.1 0.8 0
11.4 0.8 0
11.7 0.8 0
12 0.8 0
12.3 0.8 0
12.6 0.8 0
12.9 0.8 0
13.2 0.8 0
13.5 0.8 0
13.8 0.8 0
14.1 0.8 0
14.4 0.8 0
14.7 0.8 0
15 0.8 0
15.3 0.8 0
15.6 0.8 0
15.9 0.8 0
16.2 0.8 0
16.5 0.8 0
16.8 0.8 0
17.1 0.8 0
17.4 0.8 0
17.7 0.8 0
18 0.8 0
18.3 0.8 0
18.6 0.8 0
18.9 0.8 0
19.2 0.8 0
19.5 0.8 0
19.8 0.8 0
20.1 0.8 0
20.4 0.8 0
20.7 0.8 0
21 0.8 0
21.3 0.8 0
21.6 0.8 0
21.9 0.8 0
22.2 0.8 0
22.5 0.8 0
22.8 0.8 0
23.1 0.8 0
23.4 0.8 0
23.7 0.8 0
24 0.8 0
24.3 0.8 0
24.6 0.8 0
24.9 0.8 0
25.2 0.8 0
25.5 0.8 0
25.8 0.8 0
26.1 0.8 0
26.4 0.8 0
26.7 0.8 0
27 0.8 0
27.3 0.8 0
27.6 0.8 0
27.9 0.8 0
28.2 0.8 0
28.5 0.8 0
28.8 0.8 0
29.1 0.8 0
29.4 0.8 0
29.7 0.8 0
30 0.8 0
30.3 0.8 0
30.6 0.8 0
0 0.9 0
0.3 0.9 0
0.6 0.9 0
0.9 0.9 0
1.2 0.9 0
1.5 0.9 0
1.8 0.9 0
2.1 0.9 0
2.4 0.9 0
2.7 0.9 0
3 0.9 0
3.3 0.9 0
3.6 0.9 0
3.9 0.9 0
4.2 0.9 0
4.5 0.9 0
4.8 0.9 0
5.1 0.9 0
5.4 0.9 0
5.7 0.9 0
6 0.9 0
6.3 0.9 0
6.6 0.9 0
6.9 0.9 0
7.2 0.9 0
7.5 0.9 0
7.8 0.9 0
8.1 0.9 0
8.4 0.9 0
8.7 0.9 0
9 0.9 0
9.3 0.9 0
9.6 0.9 0
9.9 0.9 0
10.2 0.9 0
10.5 0.9 0
10.8 0.9 0
11.1 0.9 0
11.4 0.9 0
11.7 0.9 0
12 0.9 0
12.3 0.9 0
12.6 0.9 0
12.9 0.9 0
13.2 0.9 0
13.5 0.9 0
13.8 0.9 0
14.1 0.9 0
14.4 0.9 0
14.7 0.9 0
15 0.9 0
15.3 0.9 0
15.6 0.9 0
15.9 0.9 0
16.2 0.9 0
16.5 0.9 0
16.8 0.9 0
17.1 0.9 0
17.4 0.9 0
17.7 0.9 0
18 0.9 0
18.3 0.9 0
18.6 0.9 0
18.9 0.9 0
19.2 0.9 0
19.5 0.9 0
19.8 0.9 0
20.1 0.9 0
20.4 0.9 0
20.7 0.9 0
21 0.9 0
21.3 0.9 0
21.6 0.9 0
21.9 0.9 0
22.2 0.9 0
22.5 0.9 0
22.8 0.9 0
23.1 0.9 0
23.4 0.9 0
23.7 0.9 0
24 0.9 0
24.3 0.9 0
24.6 0.9 0
24.9 0.9 0
25.2 0.9 0
25.5 0.9 0
25.8 0.9 0
26.1 0.9 0
26.4 0.9 0
26.7 0.9 0
27 0.9 0
27.3 0.9 0
27.6 0.9 0
27.9 0.9 0
28.2 0.9 0
28.5 0.9 0
28.8 0.9 0
29.1 0.9 0
29.4 0.9 0
29.7 0.9 0
30 0.9 0
30.3 0.9 0
30.6 0.9 0
0 1 0
0.3 1 0
0.6 1 0
0.9 1 0
1.2 1 0
1.5 1 0
1.8 1 0
2.1 1 0
2.4 1 0
2.7 1 0
3 1 0
3.3 1 0
3.6 1 0
3.9 1 0
4.2 1 0
4.5 1 0
4.8 1 0
5.1 1 0
5.4 1 0
5.7 1 0
6 1 0
6.3 1 0
6.6 1 0
6.9 1 0
7.2 1 0
7.5 1 0
7.8 1 0
8.1 1 0
8.4 1 0
8.7 1 0
9 1 0
9.3 1 0
9.6 1 0
9.9 1 0
10.2 1 0
10.5 1 0
10.8 1 0
11.1 1 0
11.4 1 0
11.7 1 0
12 1 0
12.3 1 0
12.6 1 0
12.9 1 0
13.2 1 0
13.5 1 0
13.8 1 0
14.1 1 0
14.4 1 0
14.7 1 0
15 1 0
15.3 1 0
15.6 1 0
15.9 1 0
16.2 1 0
16.5 1 0
16.8 1 0
17.1 1 0
17.4 1 0
17.7 1 0
18 1 0
18.3 1 0
18.6 1 0
18.9 1 0
19.2 1 0
19.5 1 0
19.8 1 0
20.1 1 0
20.4 1 0
20.7 1 0
21 1 0
21.3 1 0
21.6 1 0
21.9 1 0
22.2 1 0
22.5 1 0
22.8 1 0
23.1 1 0
23.4 1 0
23.7 1 0
24 1 0
24.3 1 0
24.6 1 0
24.9 1 0
25.2 1 0
25.5 1 0
25.8 1 0
26.1 1 0
26.4 1 0
26.7 1 0
27 1 0
27.3 1 0
27.6 1 0
27.9 1 0
28.2 1 0
28.5 1 0
28.8 1 0
29.1 1 0
29.4 1 0
29.7 1 0
30 1 0
30.3 1 0
30.6 1 0
0 1.1 0
0.3 1.1 0
0.6 1.1 0
0.9 1.1 0
1.2 1.1 0
1.5 1.1 0
1.8 1.1 0
2.1 1.1 0
2.4 1.1 0
2.7 1.1 0
3 1.1 0
3.3 1.1 0
3.6 1.1 0
3.9 1.1 0
4.2 1.1 0
4.5 1.1 0
4.8 1.1 0
5.1 1.1 0
5.4 1.1 0
5.7 1.1 0
6 1.1 0
6.3 1.1 0
6.6 1.1 0
6.9 1.1 0
7.2 1.1 0
7.5 1.1 0
7.8 1.1 0
8.1 1.1 0
8.4 1.1 0
8.7 1.1 0
9 1.1 0
9.3 1.1 0
9.6 1.1 0
9.9 1.1 0
10.2 1.1 0
10.5 1.1 0
10.8 1.1 0
11.1 1.1 0
11.4 1.1 0
11.7 1.1 0
12 1.1 0
12.3 1.1 0
12.6 1.1 0
12.9 1.1 0
13.2 1.1 0
13.5 1.1 0
13.8 1.1 0
14.1 1.1 0
14.4 1.1 0
14.7 1.1 0
15 1.1 0
15.3 1.1 0
15.6 1.1 0
15.9 1.1 0
16.2 1.1 0
16.5 1.1 0
16.8 1.1 0
17.1 1.1 0
17.4 1.1 0
17.7 1.1 0
18 1.1 0
18.3 1.1 0
18.6 1.1 0
18.9 1.1 0
19.2 1.1 0
19.5 1.1 0
19.8 1.1 0
20.1 1.1 0
20.4 1.1 0
20.7 1.1 0
21 1.1 0
21.3 1.1 0
21.6 1.1 0
21.9 1.1 0
22.2 1.1 0
22.5 1.1 0
22.8 1.1 0
23.1 1.1 0
23.4 1.1 0
23.7 1.1 0
24 1.1 0
24.3 1.1 0
24.6 1.1 0
24.9 1.1 0
25.2 1.1 0
25.5 1.1 0
25.8 1.1 0
26.1 1.1 0
26.4 1.1 0
26.7 1.1 0
27 1.1 0
27.3 1.1 0
27.6 1.1 0
27.9 1.1 0
28.2 1.1 0
28.5 1.1 0
28.8 1.1 0
29.1 1.1 0
29.4 1.1 0
29.7 1.1 0
30 1.1 0
30.3 1.1 0
30.6 1.1 0
0 1.2 0
0.3 1.2 0
0.6 1.2 0
0.9 1.2 0
1.2 1.2 0
1.5 1.2 0
1.8 1.2 0
2.1 1.2 0
2.4 1.2 0
2.7 1.2 0
3 1.2 0
3.3 1.2 0
3.6 1.2 0
3.9 1.2 0
4.2 1.2 0
4.5 1.2 0
4.8 1.2 0
5.1 1.2 0
5.4 1.2 0
5.7 1.2 0
6 1.2 0
6.3 1.2 0
6.6 1.2 0
6.9 1.2 0
7.2 1.2 0
7.5 1.2 0
7.8 1.2 0
8.1 1.2 0
8.4 1.2 0
8.7 1.2 0
9 1.2 0
9.3 1.2 0
9.6 1.2 0
9.9 1.2 0
10.2 1.2 0
10.5 1.2 0
10.8 1.2 0
11.1 1.2 0
11.4 1.2 0
11.7 1.2 0
12 1.2 0
12.3 1.2 0
12.6 1.2 0
12.9 1.2 0
13.2 1.2 0
13.5 1.2 0
13.8 1.2 0
14.1 1.2 0
14.4 1.2 0
14.7 1.2 0
15 1.2 0
15.3 1.2 0
15.6 1.2 0
15.9 1.2 0
16.2 1.2 0
16.5 1.2 0
16.8 1.2 0
17.1 1.2 0
17.4 1.2 0
17.7 1.2 0
18 1.2 0
18.3 1.2 0
18.6 1.2 0
18.9 1.2 0
19.2 1.2 0
19.5 1.2 0
19.8 1.2 0
20.1 1.2 0
20.4 1.2 0
20.7 1.2 0
21 1.2 0
21.3 1.2 0
21.6 1.2 0
21.9 1.2 0
22.2 1.2 0
22.5 1.2 0
22.8 1.2 0
23.1 1.2 0
23.4 1.2 0
23.7 1.2 0
24 1.2 0
24.3 1.2 0
24.6 1.2 0
24.9 1.2 0
25.2 1.2 0
25.5 1.2 0
25.8 1.2 0
26.1 1.2 0
26.4 1.2 0
26.7 1.2 0
27 1.2 0
27.3 1.2 0
27.6 1.2 0
27.9 1.2 0
28.2 1.2 0
28.5 1.2 0
28.8 1.2 0
29.1 1.2 0
29.4 1.2 0
29.7 1.2 0
30 1.2 0
30.3 1.2 0
30.6 1.2 0

POINT_DATA 1339

SCALARS pressure double
LOOKUP_TABLE pressure
1.17329
1.17329
1.10844
1.06421
1.02439
0.987811
0.954759
0.925231
0.898875
0.875166
0.853564
0.833601
0.814908
0.797208
0.780301
0.764042
0.748323
0.733067
0.718215
0.70372
0.689546
0.675661
0.66204
0.648661
0.635505
0.622555
0.609796
0.597213
0.584795
0.572531
0.56041
0.548423
0.536561
0.524816
0.513182
0.501652
0.490221
0.478885
0.46764
0.456483
0.445412
0.434427
0.423524
0.412704
0.401963
0.3913
0.380712
0.370195
0.359743
0.349353
0.339018
0.328733
0.318491
0.308287
0.298115
0.28797
0.277848
0.267743
0.257652
0.247573
0.237502
0.227438
0.217379
0.207324
0.197272
0.187221
0.177172
0.167124
0.157076
0.147029
0.136983
0.126936
0.11689
0.106844
0.0967974
0.0867513
0.0767052
0.0666592
0.0566131
0.0465671
0.036521
0.026475
0.0164289
0.00638289
-0.00366314
-0.0137092
-0.0237552
-0.0338012
-0.0438473
-0.0538933
-0.0639393
-0.0739853
-0.0840314
-0.0940774
-0.104123
-0.114169
-0.124215
-0.134261
-0.144307
-0.154353
-0.1644
-0.174439
0.174439
1.17329
1.17329
1.10844
1.06421
1.02439
0.987811
0.954759
0.925231
0.898875
0.875166
0.853564
0.833601
0.814908
0.797208
0.780301
0.764042
0.748323
0.733067
0.718215
0.70372
0.689546
0.675661
0.66204
0.648661
0.635505
0.622555
0.609796
0.597213
0.584795
0.572531
0.56041
0.548423
0.536561
0.524816
0.513182
0.501652
0.490221
0.478885
0.46764
0.456483
0.445412
0.434427
0.423524
0.412704
0.401963
0.3913
0.380712
0.370195
0.359743
0.349353
0.339018
0.328733
0.318491
0.308287
0.298115
0.28797
0.277848
0.267743
0.257652
0.247573
0.237502
0.227438
0.217379
0.207324
0.197272
0.187221
0.177172
0.167124
0.157076
0.147029
0.136983
0.126936
0.11689
0.106844
0.0967974
0.0867513
0.0767052
0.0666592
0.0566131
0.0465671
0.036521
0.026475
0.0164289
0.00638289
-0.00366314
-0.0137092
-0.0237552
-0.0338012
-0.0438473
-0.0538933
-0.0639393
-0.0739853
-0.0840314
-0.0940774
-0.104123
-0.114169
-0.124215
-0.134261
-0.144307
-0.154353
-0.1644
-0.174439
0.174439
1.15234
1.15234
1.10645
1.06444
1.02509
0.988607
0.955502
0.925862
0.899382
0.875561
0.853867
0.833834
0.815089
0.797353
0.780419
0.764139
0.748406
0.733139
0.718277
0.703775
0.689595
0.675705
0.66208
0.648698
0.635539
0.622586
0.609824
0.597239
0.58482
0.572553
0.560431
0.548442
0.536579
0.524833
0.513198
0.501667
0.490235
0.478897
0.467651
0.456493
0.445422
0.434435
0.423531
0.41271
0.401968
0.391304
0.380715
0.370197
0.359745
0.349354
0.339019
0.328733
0.318491
0.308287
0.298115
0.28797
0.277847
0.267742
0.257652
0.247573
0.237502
0.227438
0.217379
0.207324
0.197272
0.187221
0.177172
0.167124
0.157076
0.147029
0.136983
0.126936
0.11689
0.106844
0.0967974
0.0867513
0.0767052
0.0666592
0.0566131
0.0465671
0.036521
0.026475
0.0164289
0.00638289
-0.00366314
-0.0137092
-0.0237552
-0.0338012
-0.0438473
-0.0538933
-0.0639393
-0.0739853
-0.0840314
-0.0940774
-0.104123
-0.114169
-0.124215
-0.134261
-0.144307
-0.154353
-0.1644
-0.174438
0.174438
1.13737
1.13737
1.10357
1.06467
1.0262
0.989931
0.956763
0.92694
0.900244
0.87622
0.85436
0.834199
0.815361
0.797558
0.780577
0.764264
0.748507
0.733223
0.718348
0.703836
0.689648
0.675752
0.662122
0.648735
0.635572
0.622616
0.609851
0.597264
0.584842
0.572574
0.56045
0.548459
0.536595
0.524848
0.513211
0.501679
0.490246
0.478908
0.467661
0.456502
0.445429
0.434442
0.423537
0.412715
0.401972
0.391308
0.380718
0.370199
0.359746
0.349355
0.339019
0.328734
0.318491
0.308287
0.298115
0.28797
0.277847
0.267742
0.257652
0.247572
0.237502
0.227438
0.217379
0.207324
0.197271
0.187221
0.177172
0.167124
0.157076
0.147029
0.136983
0.126936
0.11689
0.106844
0.0967974
0.0867513
0.0767052
0.0666592
0.0566131
0.0465671
0.036521
0.026475
0.0164289
0.00638289
-0.00366314
-0.0137092
-0.0237552
-0.0338012
-0.0438473
-0.0538933
-0.0639393
-0.0739853
-0.0840314
-0.0940774
-0.104123
-0.114169
-0.124215
-0.134261
-0.144307
-0.154353
-0.164398
-0.174437
0.174437
1.1278
1.1278
1.10109
1.06478
1.02715
0.991126
0.95794
0.927977
0.901097
0.876893
0.854877
0.834594
0.815663
0.797792
0.780762
0.764414
0.74863
0.733326
0.718436
0.703912
0.689714
0.67581
0.662173
0.648781
0.635614
0.622653
0.609885
0.597295
0.58487
0.572599
0.560473
0.548481
0.536614
0.524866
0.513228
0.501695
0.490261
0.478921
0.467673
0.456514
0.44544
0.434452
0.423547
0.412724
0.40198
0.391315
0.380724
0.370205
0.359751
0.349359
0.339023
0.328737
0.318494
0.308289
0.298117
0.287971
0.277848
0.267743
0.257652
0.247573
0.237502
0.227438
0.217379
0.207324
0.197272
0.187221
0.177172
0.167124
0.157076
0.147029
0.136983
0.126936
0.11689
0.106844
0.0967974
0.0867513
0.0767052
0.0666592
0.0566131
0.0465671
0.036521
0.026475
0.0164289
0.00638289
-0.00366314
-0.0137092
-0.0237552
-0.0338012
-0.0438473
-0.0538933
-0.0639393
-0.0739853
-0.0840314
-0.0940774
-0.104123
-0.114169
-0.124215
-0.134261
-0.144307
-0.154352
-0.164393
-0.174434
0.174434
1.12248
1.12248
1.09946
1.06479
1.02775
0.991893
0.958709
0.928666
0.901675
0.877357
0.855241
0.834878
0.815886
0.797969
0.780905
0.764531
0.748729
0.73341
0.71851
0.703977
0.689771
0.675861
0.662219
0.648822
0.635651
0.622687
0.609915
0.597322
0.584895
0.572623
0.560494
0.5485
0.536632
0.524882
0.513243
0.501709
0.490274
0.478934
0.467685
0.456525
0.445451
0.434462
0.423557
0.412733
0.40199
0.391324
0.380732
0.370212
0.359758
0.349365
0.339028
0.328741
0.318498
0.308292
0.298119
0.287973
0.27785
0.267744
0.257653
0.247574
0.237503
0.227439
0.21738
0.207324
0.197272
0.187221
0.177172
0.167124
0.157076
0.147029
0.136983
0.126936
0.11689
0.106844
0.0967974
0.0867513
0.0767052
0.0666592
0.0566131
0.0465671
0.036521
0.026475
0.0164289
0.00638289
-0.00366314
-0.0137092
-0.0237552
-0.0338012
-0.0438473
-0.0538933
-0.0639393
-0.0739853
-0.0840314
-0.0940774
-0.104123
-0.114169
-0.124215
-0.134261
-0.144307
-0.154351
-0.164387
-0.174431
0.174431
1.12078
1.12078
1.09891
1.06481
1.02796
0.992167
0.958983
0.928912
0.901881
0.877524
0.855374
0.834982
0.815969
0.798036
0.78096
0.764577
0.748768
0.733444
0.718539
0.704003
0.689794
0.675882
0.662238
0.648839
0.635666
0.622701
0.609928
0.597334
0.584906
0.572633
0.560503
0.548509
0.53664
0.52489
0.51325
0.501715
0.49028
0.47894
0.467691
0.45653
0.445456
0.434467
0.423561
0.412738
0.401994
0.391328
0.380736
0.370215
0.359761
0.349368
0.339031
0.328743
0.3185
0.308294
0.298121
0.287974
0.277851
0.267745
0.257654
0.247574
0.237503
0.227439
0.21738
0.207324
0.197272
0.187221
0.177172
0.167124
0.157076
0.147029
0.136983
0.126936
0.11689
0.106844
0.0967974
0.0867513
0.0767052
0.0666592
0.0566131
0.0465671
0.036521
0.026475
0.0164289
0.00638289
-0.00366314
-0.0137092
-0.0237552
-0.0338012
-0.0438473
-0.0538933
-0.0639393
-0.0739853
-0.0840313
-0.0940774
-0.104123
-0.114169
-0.124215
-0.134261
-0.144307
-0.15435
-0.164385
-0.17443
0.17443
1.12248
1.12248
1.09946
1.06479
1.02775
0.991893
0.958709
0.928666
0.901675
0.877357
0.855241
0.834878
0.815886
0.797969
0.780905
0.764531
0.748729
0.73341
0.71851
0.703977
0.689771
0.675861
0.662219
0.648822
0.635651
0.622687
0.609915
0.597322
0.584895
0.572623
0.560494
0.5485
0.536632
0.524882
0.513243
0.501709
0.490274
0.478934
0.467685
0.456525
0.445451
0.434462
0.423557
0.412733
0.40199
0.391324
0.380732
0.370212
0.359758
0.349365
0.339028
0.328741
0.318498
0.308292
0.298119
0.287973
0.27785
0.267744
0.257653
0.247574
0.237503
0.227439
0.21738
0.207324
0.197272
0.187221
0.177172
0.167124
0.157076
0.147029
0.136983
0.126936
0.11689
0.106844
0.0967974
0.0867513
0.0767052
0.0666592
0.0566131
0.0465671
0.036521
0.026475
0.0164289
0.00638289
-0.00366314
-0.0137092
-0.0237552
-0.0338012
-0.0438473
-0.0538933
-0.0639393
-0.0739853
-0.0840313
-0.0940774
-0.104123
-0.114169
-0.124215
-0.134261
-0.144307
-0.154351
-0.164387
-0.174431
0.174431
1.1278
1.1278
1.10109
1.06478
1.02715
0.991126
0.95794
0.927977
0.901097
0.876893
0.854877
0.834594
0.815663
0.797792
0.780762
0.764414
0.74863
0.733326
0.718436
0.703912
0.689714
0.67581
0.662173
0.648781
0.635614
0.622653
0.609885
0.597295
0.58487
0.572599
0.560473
0.548481
0.536614
0.524866
0.513228
0.501695
0.490261
0.478921
0.467673
0.456514
0.44544
0.434452
0.423547
0.412724
0.40198
0.391315
0.380724
0.370205
0.359751
0.349359
0.339023
0.328737
0.318494
0.308289
0.298117
0.287971
0.277848
0.267743
0.257652
0.247573
0.237502
0.227438
0.217379
0.207324
0.197272
0.187221
0.177172
0.167124
0.157076
0.147029
0.136983
0.126936
0.11689
0.106844
0.0967974
0.0867513
0.0767052
0.0666592
0.0566131
0.0465671
0.036521
0.026475
0.0164289
0.00638289
-0.00366314
-0.0137092
-0.0237552
-0.0338012
-0.0438473
-0.0538933
-0.0639393
-0.0739853
-0.0840313
-0.0940774
-0.104123
-0.114169
-0.124215
-0.134261
-0.144307
-0.154352
-0.164393
-0.174434
0.174434
1.13737
1.13737
1.10357
1.06467
1.0262
0.989931
0.956763
0.92694
0.900244
0.87622
0.85436
0.834199
0.815361
0.797558
0.780577
0.764264
0.748507
0.733223
0.718348
0.703836
0.689648
0.675752
0.662122
0.648735
0.635572
0.622616
0.609851
0.597264
0.584842
0.572574
0.56045
0.548459
0.536595
0.524848
0.513211
0.501679
0.490246
0.478908
0.467661
0.456502
0.445429
0.434442
0.423537
0.412715
0.401972
0.391308
0.380718
0.370199
0.359746
0.349355
0.339019
0.328734
0.318491
0.308287
0.298115
0.28797
0.277847
0.267742
0.257652
0.247572
0.237502
0.227438
0.217379
0.207324
0.197271
0.187221
0.177172
0.167124
0.157076
0.147029
0.136983
0.126936
0.11689
0.106844
0.0967974
0.0867513
0.0767052
0.0666592
0.0566131
0.0465671
0.036521
0.026475
0.0164289
0.00638289
-0.00366314
-0.0137092
-0.0237552
-0.0338012
-0.0438473
-0.0538933
-0.0639393
-0.0739853
-0.0840313
-0.0940774
-0.104123
-0.114169
-0.124215
-0.134261
-0.144307
-0.154353
-0.164398
-0.174437
0.174437
1.15234
1.15234
1.10645
1.06444
1.02509
0.988607
0.955502
0.925862
0.899382
0.875561
0.853867
0.833834
0.815089
0.797353
0.780419
0.764139
0.748406
0.733139
0.718277
0.703775
0.689595
0.675705
0.66208
0.648698
0.635539
0.622586
0.609824
0.597239
0.58482
0.572553
0.560431
0.548442
0.536579
0.524833
0.513198
0.501667
0.490235
0.478897
0.467651
0.456493
0.445422
0.434435
0.423531
0.41271
0.401968
0.391304
0.380715
0.370197
0.359745
0.349354
0.339019
0.328733
0.318491
0.308287
0.298115
0.28797
0.277847
0.267742
0.257652
0.247573
0.237502
0.227438
0.217379
0.207324
0.197272
0.187221
0.177172
0.167124
0.157076
0.147029
0.136983
0.126936
0.11689
0.106844
0.0967974
0.0867513
0.0767052
0.0666592
0.0566131
0.0465671
0.036521
0.026475
0.0164289
0.00638289
-0.00366314
-0.0137092
-0.0237552
-0.0338012
-0.0438473
-0.0538933
-0.0639393
-0.0739853
-0.0840313
-0.0940774
-0.104123
-0.114169
-0.124215
-0.134261
-0.144307
-0.154353
-0.1644
-0.174438
0.174438
1.17329
1.17329
1.10844
1.06421
1.02439
0.987811
0.954759
0.925231
0.898875
0.875166
0.853564
0.833601
0.814908
0.797208
0.780301
0.764042
0.748323
0.733067
0.718215
0.70372
0.689546
0.675661
0.66204
0.648661
0.635505
0.622555
0.609796
0.597213
0.584795
0.572531
0.56041
0.548423
0.536561
0.524816
0.513182
0.501652
0.490221
0.478885
0.46764
0.456483
0.445412
0.434427
0.423524
0.412704
0.401963
0.3913
0.380712
0.370195
0.359743
0.349353
0.339018
0.328733
0.318491
0.308287
0.298115
0.28797
0.277848
0.267743
0.257652
0.247573
0.237502
0.227438
0.217379
0.207324
0.197272
0.187221
0.177172
0.167124
0.157076
0.147029
0.136983
0.126936
0.11689
0.106844
0.0967974
0.0867513
0.0767052
0.0666592
0.0566131
0.0465671
0.036521
0.026475
0.0164289
0.00638289
-0.00366314
-0.0137092
-0.0237552
-0.0338012
-0.0438473
-0.0538933
-0.0639393
-0.0739853
-0.0840313
-0.0940774
-0.104123
-0.114169
-0.124215
-0.134261
-0.144307
-0.154353
-0.1644
-0.174439
0.174439
1.17329
1.17329
1.10844
1.06421
1.02439
0.987811
0.954759
0.925231
0.898875
0.875166
0.853564
0.833601
0.814908
0.797208
0.780301
0.764042
0.748323
0.733067
0.718215
0.70372
0.689546
0.675661
0.66204
0.648661
0.635505
0.622555
0.609796
0.597213
0.584795
0.572531
0.56041
0.548423
0.536561
0.524816
0.513182
0.501652
0.490221
0.478885
0.46764
0.456483
0.445412
0.434427
0.423524
0.412704
0.401963
0.3913
0.380712
0.370195
0.359743
0.349353
0.339018
0.328733
0.318491
0.308287
0.298115
0.28797
0.277848
0.267743
0.257652
0.247573
0.237502
0.227438
0.217379
0.207324
0.197272
0.187221
0.177172
0.167124
0.157076
0.147029
0.136983
0.126936
0.11689
0.106844
0.0967974
0.0867513
0.0767052
0.0666592
0.0566131
0.0465671
0.036521
0.026475
0.0164289
0.00638289
-0.00366314
-0.0137092
-0.0237552
-0.0338012
-0.0438473
-0.0538933
-0.0639393
-0.0739853
-0.0840313
-0.0940774
-0.104123
-0.114169
-0.124215
-0.134261
-0.144307
-0.154353
-0.1644
-0.174439
0.174439
SCALARS phi double
LOOKUP_TABLE phi
1
1
1
1
0.999998
0.999994
0.999982
0.999957
0.999909
0.999829
0.999707
0.999525
0.999265
0.998939
0.998588
0.998196
0.99752
0.995979
0.992695
0.986687
0.977109
0.963437
0.945512
0.9235
0.897791
0.868894
0.837367
0.803763
0.768607
0.732381
0.695518
0.658398
0.62135
0.584652
0.548534
0.513181
0.478739
0.445321
0.413011
0.381867
0.351932
0.323232
0.295785
0.269601
0.244688
0.221053
0.1987
0.177639
0.157877
0.139422
0.122282
0.106462
0.0919596
0.0787683
0.0668705
0.0562381
0.0468306
0.0385953
0.031467
0.02537
0.0202193
0.0159239
0.0123891
0.00951963
0.00722256
0.00540963
0.00399923
0.00291782
0.00210072
0.00149234
0.00104601
0.000723352
0.000493523
0.000332206
0.000220626
0.000144566
9.3467e-05
5.96284e-05
3.75385e-05
2.33218e-05
1.43002e-05
8.65469e-06
5.17047e-06
3.04942e-06
1.77563e-06
1.0209e-06
5.79631e-07
3.25013e-07
1.80002e-07
9.84751e-08
5.32224e-08
2.84202e-08
1.49959e-08
7.81939e-09
4.02974e-09
2.05272e-09
1.03366e-09
5.14593e-10
2.53309e-10
1.23255e-10
5.9619e-11
2.64223e-11
2.64223e-11
1
1
1
1
0.999998
0.999994
0.999982
0.999957
0.999909
0.999829
0.999707
0.999525
0.999265
0.998939
0.998588
0.998196
0.99752
0.995979
0.992695
0.986687
0.977109
0.963437
0.945512
0.9235
0.897791
0.868894
0.837367
0.803763
0.768607
0.732381
0.695518
0.658398
0.62135
0.584652
0.548534
0.513181
0.478739
0.445321
0.413011
0.381867
0.351932
0.323232
0.295785
0.269601
0.244688
0.221053
0.1987
0.177639
0.157877
0.139422
0.122282
0.106462
0.0919596
0.0787683
0.0668705
0.0562381
0.0468306
0.0385953
0.031467
0.02537
0.0202193
0.0159239
0.0123891
0.00951963
0.00722256
0.00540963
0.00399923
0.00291782
0.00210072
0.00149234
0.00104601
0.000723352
0.000493523
0.000332206
0.000220626
0.000144566
9.3467e-05
5.96284e-05
3.75385e-05
2.33218e-05
1.43002e-05
8.65469e-06
5.17047e-06
3.04942e-06
1.77563e-06
1.0209e-06
5.79631e-07
3.25013e-07
1.80002e-07
9.84751e-08
5.32224e-08
2.84202e-08
1.49959e-08
7.81939e-09
4.02974e-09
2.05272e-09
1.03366e-09
5.14593e-10
2.53309e-10
1.23255e-10
5.9619e-11
2.64223e-11
2.64223e-11
1
1
1
0.999996
0.999983
0.999953
0.999898
0.999804
0.999658
0.999446
0.999157
0.998778
0.998298
0.997708
0.997014
0.996225
0.995319
0.994191
0.9926
0.990173
0.986442
0.980923
0.973186
0.962915
0.949928
0.934177
0.915734
0.894765
0.8715
0.846216
0.819214
0.790802
0.761285
0.730955
0.700082
0.668914
0.63767
0.60654
0.575683
0.545229
0.515279
0.485905
0.457157
0.429061
0.401628
0.374852
0.348726
0.323237
0.298377
0.274149
0.250568
0.227671
0.205512
0.184164
0.16372
0.144283
0.125963
0.108865
0.0930844
0.0786956
0.0657468
0.0542546
0.0442028
0.0355427
0.0281969
0.022064
0.0170257
0.0129535
0.00971574
0.00718333
0.00523494
0.00376027
0.00266222
0.00185779
0.00127787
0.000866448
0.000579149
0.00038165
0.000247974
0.000158874
0.000100382
6.2555e-05
3.84521e-05
2.33175e-05
1.39509e-05
8.23632e-06
4.79878e-06
2.75963e-06
1.56656e-06
8.77961e-07
4.85838e-07
2.65491e-07
1.43287e-07
7.63858e-08
4.02276e-08
2.09312e-08
1.07616e-08
5.46785e-09
2.74593e-09
1.36251e-09
6.72216e-10
3.02539e-10
3.02539e-10
0.999997
1
0.99998
0.999896
0.999724
0.999434
0.998999
0.998397
0.997613
0.996636
0.995464
0.994099
0.992546
0.990815
0.988915
0.98686
0.984665
0.982332
0.979841
0.977133
0.974101
0.970595
0.966432
0.961416
0.955354
0.948072
0.939429
0.929324
0.917698
0.904531
0.889846
0.873695
0.856163
0.837355
0.817394
0.796413
0.774553
0.751956
0.728761
0.705099
0.681089
0.656832
0.632414
0.607893
0.583306
0.558663
0.533949
0.509126
0.484138
0.458914
0.433385
0.407487
0.381183
0.354474
0.32741
0.3001
0.27272
0.245504
0.218734
0.192727
0.167808
0.144292
0.122453
0.102512
0.0846203
0.0688508
0.0552019
0.0436027
0.0339244
0.0259957
0.0196177
0.0145794
0.0106702
0.00769063
0.0054592
0.00381685
0.00262863
0.00178339
0.00119208
0.000785166
0.000509648
0.000326056
0.00020563
0.000127855
7.83879e-05
4.73963e-05
2.82663e-05