# vtk DataFile Version 3.0
FlowField
ASCII
DATASET STRUCTURED_GRID
DIMENSIONS 103 13 1 
POINTS 1339 double
0 0 0
0.3 0 0
0.6 0 0
0.9 0 0
1.2 0 0
1.5 0 0
1.8 0 0
2.1 0 0
2.4 0 0
2.7 0 0
3 0 0
3.3 0 0
3.6 0 0
3.9 0 0
4.2 0 0
4.5 0 0
4.8 0 0
5.1 0 0
5.4 0 0
5.7 0 0
6 0 0
6.3 0 0
6.6 0 0
6.9 0 0
7.2 0 0
7.5 0 0
7.8 0 0
8.1 0 0
8.4 0 0
8.7 0 0
9 0 0
9.3 0 0
9.6 0 0
9.9 0 0
10.2 0 0
10.5 0 0
10.8 0 0
11.1 0 0
11.4 0 0
11.7 0 0
12 0 0
12.3 0 0
12.6 0 0
12.9 0 0
13.2 0 0
13.5 0 0
13.8 0 0
14.1 0 0
14.4 0 0
14.7 0 0
15 0 0
15.3 0 0
15.6 0 0
15.9 0 0
16.2 0 0
16.5 0 0
16.8 0 0
17.1 0 0
17.4 0 0
17.7 0 0
18 0 0
18.3 0 0
18.6 0 0
18.9 0 0
19.2 0 0
19.5 0 0
19.8 0 0
20.1 0 0
20.4 0 0
20.7 0 0
21 0 0
21.3 0 0
21.6 0 0
21.9 0 0
22.2 0 0
22.5 0 0
22.8 0 0
23.1 0 0
23.4 0 0
23.7 0 0
24 0 0
24.3 0 0
24.6 0 0
24.9 0 0
25.2 0 0
25.5 0 0
25.8 0 0
26.1 0 0
26.4 0 0
26.7 0 0
27 0 0
27.3 0 0
27.6 0 0
27.9 0 0
28.2 0 0
28.5 0 0
28.8 0 0
29.1 0 0
29.4 0 0
29.7 0 0
30 0 0
30.3 0 0
30.6 0 0
0 0.1 0
0.3 0.1 0
0.6 0.1 0
0.9 0.1 0
1.2 0.1 0
1.5 0.1 0
1.8 0.1 0
2.1 0.1 0
2.4 0.1 0
2.7 0.1 0
3 0.1 0
3.3 0.1 0
3.6 0.1 0
3.9 0.1 0
4.2 0.1 0
4.5 0.1 0
4.8 0.1 0
5.1 0.1 0
5.4 0.1 0
5.7 0.1 0
6 0.1 0
6.3 0.1 0
6.6 0.1 0
6.9 0.1 0
7.2 0.1 0
7.5 0.1 0
7.8 0.1 0
8.1 0.1 0
8.4 0.1 0
8.7 0.1 0
9 0.1 0
9.3 0.1 0
9.6 0.1 0
9.9 0.1 0
10.2 0.1 0
10.5 0.1 0
10.8 0.1 0
11.1 0.1 0
11.4 0.1 0
11.7 0.1 0
12 0.1 0
12.3 0.1 0
12.6 0.1 0
12.9 0.1 0
13.2 0.1 0
13.5 0.1 0
13.8 0.1 0
14.1 0.1 0
14.4 0.1 0
14.7 0.1 0
15 0.1 0
15.3 0.1 0
15.6 0.1 0
15.9 0.1 0
16.2 0.1 0
16.5 0.1 0
16.8 0.1 0
17.1 0.1 0
17.4 0.1 0
17.7 0.1 0
18 0.1 0
18.3 0.1 0
18.6 0.1 0
18.9 0.1 0
19.2 0.1 0
19.5 0.1 0
19.8 0.1 0
20.1 0.1 0
20.4 0.1 0
20.7 0.1 0
21 0.1 0
21.3 0.1 0
21.6 0.1 0
21.9 0.1 0
22.2 0.1 0
22.5 0.1 0
22.8 0.1 0
23.1 0.1 0
23.4 0.1 0
23.7 0.1 0
24 0.1 0
24.3 0.1 0
24.6 0.1 0
24.9 0.1 0
25.2 0.1 0
25.5 0.1 0
25.8 0.1 0
26.1 0.1 0
26.4 0.1 0
26.7 0.1 0
27 0.1 0
27.3 0.1 0
27.6 0.1 0
27.9 0.1 0
28.2 0.1 0
28.5 0.1 0
28.8 0.1 0
29.1 0.1 0
29.4 0.1 0
29.7 0.1 0
30 0.1 0
30.3 0.1 0
30.6 0.1 0
0 0.2 0
0.3 0.2 0
0.6 0.2 0
0.9 0.2 0
1.2 0.2 0
1.5 0.2 0
1.8 0.2 0
2.1 0.2 0
2.4 0.2 0
2.7 0.2 0
3 0.2 0
3.3 0.2 0
3.6 0.2 0
3.9 0.2 0
4.2 0.2 0
4.5 0.2 0
4.8 0.2 0
5.1 0.2 0
5.4 0.2 0
5.7 0.2 0
6 0.2 0
6.3 0.2 0
6.6 0.2 0
6.9 0.2 0
7.2 0.2 0
7.5 0.2 0
7.8 0.2 0
8.1 0.2 0
8.4 0.2 0
8.7 0.2 0
9 0.2 0
9.3 0.2 0
9.6 0.2 0
9.9 0.2 0
10.2 0.2 0
10.5 0.2 0
10.8 0.2 0
11.1 0.2 0
11.4 0.2 0
11.7 0.2 0
12 0.2 0
12.3 0.2 0
12.6 0.2 0
12.9 0.2 0
13.2 0.2 0
13.5 0.2 0
13.8 0.2 0
14.1 0.2 0
14.4 0.2 0
14.7 0.2 0
15 0.2 0
15.3 0.2 0
15.6 0.2 0
15.9 0.2 0
16.2 0.2 0
16.5 0.2 0
16.8 0.2 0
17.1 0.2 0
17.4 0.2 0
17.7 0.2 0
18 0.2 0
18.3 0.2 0
18.6 0.2 0
18.9 0.2 0
19.2 0.2 0
19.5 0.2 0
19.8 0.2 0
20.1 0.2 0
20.4 0.2 0
20.7 0.2 0
21 0.2 0
21.3 0.2 0
21.6 0.2 0
21.9 0.2 0
22.2 0.2 0
22.5 0.2 0
22.8 0.2 0
23.1 0.2 0
23.4 0.2 0
23.7 0.2 0
24 0.2 0
24.3 0.2 0
24.6 0.2 0
24.9 0.2 0
25.2 0.2 0
25.5 0.2 0
25.8 0.2 0
26.1 0.2 0
26.4 0.2 0
26.7 0.2 0
27 0.2 0
27.3 0.2 0
27.6 0.2 0
27.9 0.2 0
28.2 0.2 0
28.5 0.2 0
28.8 0.2 0
29.1 0.2 0
29.4 0.2 0
29.7 0.2 0
30 0.2 0
30.3 0.2 0
30.6 0.2 0
0 0.3 0
0.3 0.3 0
0.6 0.3 0
0.9 0.3 0
1.2 0.3 0
1.5 0.3 0
1.8 0.3 0
2.1 0.3 0
2.4 0.3 0
2.7 0.3 0
3 0.3 0
3.3 0.3 0
3.6 0.3 0
3.9 0.3 0
4.2 0.3 0
4.5 0.3 0
4.8 0.3 0
5.1 0.3 0
5.4 0.3 0
5.7 0.3 0
6 0.3 0
6.3 0.3 0
6.6 0.3 0
6.9 0.3 0
7.2 0.3 0
7.5 0.3 0
7.8 0.3 0
8.1 0.3 0
8.4 0.3 0
8.7 0.3 0
9 0.3 0
9.3 0.3 0
9.6 0.3 0
9.9 0.3 0
10.2 0.3 0
10.5 0.3 0
10.8 0.3 0
11.1 0.3 0
11.4 0.3 0
11.7 0.3 0
12 0.3 0
12.3 0.3 0
12.6 0.3 0
12.9 0.3 0
13.2 0.3 0
13.5 0.3 0
13.8 0.3 0
14.1 0.3 0
14.4 0.3 0
14.7 0.3 0
15 0.3 0
15.3 0.3 0
15.6 0.3 0
15.9 0.3 0
16.2 0.3 0
16.5 0.3 0
16.8 0.3 0
17.1 0.3 0
17.4 0.3 0
17.7 0.3 0
18 0.3 0
18.3 0.3 0
18.6 0.3 0
18.9 0.3 0
19.2 0.3 0
19.5 0.3 0
19.8 0.3 0
20.1 0.3 0
20.4 0.3 0
20.7 0.3 0
21 0.3 0
21.3 0.3 0
21.6 0.3 0
21.9 0.3 0
22.2 0.3 0
22.5 0.3 0
22.8 0.3 0
23.1 0.3 0
23.4 0.3 0
23.7 0.3 0
24 0.3 0
24.3 0.3 0
24.6 0.3 0
24.9 0.3 0
25.2 0.3 0
25.5 0.3 0
25.8 0.3 0
26.1 0.3 0
26.4 0.3 0
26.7 0.3 0
27 0.3 0
27.3 0.3 0
27.6 0.3 0
27.9 0.3 0
28.2 0.3 0
28.5 0.3 0
28.8 0.3 0
29.1 0.3 0
29.4 0.3 0
29.7 0.3 0
30 0.3 0
30.3 0.3 0
30.6 0.3 0
0 0.4 0
0.3 0.4 0
0.6 0.4 0
0.9 0.4 0
1.2 0.4 0
1.5 0.4 0
1.8 0.4 0
2.1 0.4 0
2.4 0.4 0
2.7 0.4 0
3 0.4 0
3.3 0.4 0
3.6 0.4 0
3.9 0.4 0
4.2 0.4 0
4.5 0.4 0
4.8 0.4 0
5.1 0.4 0
5.4 0.4 0
5.7 0.4 0
6 0.4 0
6.3 0.4 0
6.6 0.4 0
6.9 0.4 0
7.2 0.4 0
7.5 0.4 0
7.8 0.4 0
8.1 0.4 0
8.4 0.4 0
8.7 0.4 0
9 0.4 0
9.3 0.4 0
9.6 0.4 0
9.9 0.4 0
10.2 0.4 0
10.5 0.4 0
10.8 0.4 0
11.1 0.4 0
11.4 0.4 0
11.7 0.4 0
12 0.4 0
12.3 0.4 0
12.6 0.4 0
12.9 0.4 0
13.2 0.4 0
13.5 0.4 0
13.8 0.4 0
14.1 0.4 0
14.4 0.4 0
14.7 0.4 0
15 0.4 0
15.3 0.4 0
15.6 0.4 0
15.9 0.4 0
16.2 0.4 0
16.5 0.4 0
16.8 0.4 0
17.1 0.4 0
17.4 0.4 0
17.7 0.4 0
18 0.4 0
18.3 0.4 0
18.6 0.4 0
18.9 0.4 0
19.2 0.4 0
19.5 0.4 0
19.8 0.4 0
20.1 0.4 0
20.4 0.4 0
20.7 0.4 0
21 0.4 0
21.3 0.4 0
21.6 0.4 0
21.9 0.4 0
22.2 0.4 0
22.5 0.4 0
22.8 0.4 0
23.1 0.4 0
23.4 0.4 0
23.7 0.4 0
24 0.4 0
24.3 0.4 0
24.6 0.4 0
24.9 0.4 0
25.2 0.4 0
25.5 0.4 0
25.8 0.4 0
26.1 0.4 0
26.4 0.4 0
26.7 0.4 0
27 0.4 0
27.3 0.4 0
27.6 0.4 0
27.9 0.4 0
28.2 0.4 0
28.5 0.4 0
28.8 0.4 0
29.1 0.4 0
29.4 0.4 0
29.7 0.4 0
30 0.4 0
30.3 0.4 0
30.6 0.4 0
0 0.5 0
0.3 0.5 0
0.6 0.5 0
0.9 0.5 0
1.2 0.5 0
1.5 0.5 0
1.8 0.5 0
2.1 0.5 0
2.4 0.5 0
2.7 0.5 0
3 0.5 0
3.3 0.5 0
3.6 0.5 0
3.9 0.5 0
4.2 0.5 0
4.5 0.5 0
4.8 0.5 0
5.1 0.5 0
5.4 0.5 0
5.7 0.5 0
6 0.5 0
6.3 0.5 0
6.6 0.5 0
6.9 0.5 0
7.2 0.5 0
7.5 0.5 0
7.8 0.5 0
8.1 0.5 0
8.4 0.5 0
8.7 0.5 0
9 0.5 0
9.3 0.5 0
9.6 0.5 0
9.9 0.5 0
10.2 0.5 0
10.5 0.5 0
10.8 0.5 0
11.1 0.5 0
11.4 0.5 0
11.7 0.5 0
12 0.5 0
12.3 0.5 0
12.6 0.5 0
12.9 0.5 0
13.2 0.5 0
13.5 0.5 0
13.8 0.5 0
14.1 0.5 0
14.4 0.5 0
14.7 0.5 0
15 0.5 0
15.3 0.5 0
15.6 0.5 0
15.9 0.5 0
16.2 0.5 0
16.5 0.5 0
16.8 0.5 0
17.1 0.5 0
17.4 0.5 0
17.7 0.5 0
18 0.5 0
18.3 0.5 0
18.6 0.5 0
18.9 0.5 0
19.2 0.5 0
19.5 0.5 0
19.8 0.5 0
20.1 0.5 0
20.4 0.5 0
20.7 0.5 0
21 0.5 0
21.3 0.5 0
21.6 0.5 0
21.9 0.5 0
22.2 0.5 0
22.5 0.5 0
22.8 0.5 0
23.1 0.5 0
23.4 0.5 0
23.7 0.5 0
24 0.5 0
24.3 0.5 0
24.6 0.5 0
24.9 0.5 0
25.2 0.5 0
25.5 0.5 0
25.8 0.5 0
26.1 0.5 0
26.4 0.5 0
26.7 0.5 0
27 0.5 0
27.3 0.5 0
27.6 0.5 0
27.9 0.5 0
28.2 0.5 0
28.5 0.5 0
28.8 0.5 0
29.1 0.5 0
29.4 0.5 0
29.7 0.5 0
30 0.5 0
30.3 0.5 0
30.6 0.5 0
0 0.6 0
0.3 0.6 0
0.6 0.6 0
0.9 0.6 0
1.2 0.6 0
1.5 0.6 0
1.8 0.6 0
2.1 0.6 0
2.4 0.6 0
2.7 0.6 0
3 0.6 0
3.3 0.6 0
3.6 0.6 0
3.9 0.6 0
4.2 0.6 0
4.5 0.6 0
4.8 0.6 0
5.1 0.6 0
5.4 0.6 0
5.7 0.6 0
6 0.6 0
6.3 0.6 0
6.6 0.6 0
6.9 0.6 0
7.2 0.6 0
7.5 0.6 0
7.8 0.6 0
8.1 0.6 0
8.4 0.6 0
8.7 0.6 0
9 0.6 0
9.3 0.6 0
9.6 0.6 0
9.9 0.6 0
10.2 0.6 0
10.5 0.6 0
10.8 0.6 0
11.1 0.6 0
11.4 0.6 0
11.7 0.6 0
12 0.6 0
12.3 0.6 0
12.6 0.6 0
12.9 0.6 0
13.2 0.6 0
13.5 0.6 0
13.8 0.6 0
14.1 0.6 0
14.4 0.6 0
14.7 0.6 0
15 0.6 0
15.3 0.6 0
15.6 0.6 0
15.9 0.6 0
16.2 0.6 0
16.5 0.6 0
16.8 0.6 0
17.1 0.6 0
17.4 0.6 0
17.7 0.6 0
18 0.6 0
18.3 0.6 0
18.6 0.6 0
18.9 0.6 0
19.2 0.6 0
19.5 0.6 0
19.8 0.6 0
20.1 0.6 0
20.4 0.6 0
20.7 0.6 0
21 0.6 0
21.3 0.6 0
21.6 0.6 0
21.9 0.6 0
22.2 0.6 0
22.5 0.6 0
22.8 0.6 0
23.1 0.6 0
23.4 0.6 0
23.7 0.6 0
24 0.6 0
24.3 0.6 0
24.6 0.6 0
24.9 0.6 0
25.2 0.6 0
25.5 0.6 0
25.8 0.6 0
26.1 0.6 0
26.4 0.6 0
26.7 0.6 0
27 0.6 0
27.3 0.6 0
27.6 0.6 0
27.9 0.6 0
28.2 0.6 0
28.5 0.6 0
28.8 0.6 0
29.1 0.6 0
29.4 0.6 0
29.7 0.6 0
30 0.6 0
30.3 0.6 0
30.6 0.6 0
0 0.7 0
0.3 0.7 0
0.6 0.7 0
0.9 0.7 0
1.2 0.7 0
1.5 0.7 0
1.8 0.7 0
2.1 0.7 0
2.4 0.7 0
2.7 0.7 0
3 0.7 0
3.3 0.7 0
3.6 0.7 0
3.9 0.7 0
4.2 0.7 0
4.5 0.7 0
4.8 0.7 0
5.1 0.7 0
5.4 0.7 0
5.7 0.7 0
6 0.7 0
6.3 0.7 0
6.6 0.7 0
6.9 0.7 0
7.2 0.7 0
7.5 0.7 0
7.8 0.7 0
8.1 0.7 0
8.4 0.7 0
8.7 0.7 0
9 0.7 0
9.3 0.7 0
9.6 0.7 0
9.9 0.7 0
10.2 0.7 0
10.5 0.7 0
10.8 0.7 0
11.1 0.7 0
11.4 0.7 0
11.7 0.7 0
12 0.7 0
12.3 0.7 0
12.6 0.7 0
12.9 0.7 0
13.2 0.7 0
13.5 0.7 0
13.8 0.7 0
14.1 0.7 0
14.4 0.7 0
14.7 0.7 0
15 0.7 0
15.3 0.7 0
15.6 0.7 0
15.9 0.7 0
16.2 0.7 0
16.5 0.7 0
16.8 0.7 0
17.1 0.7 0
17.4 0.7 0
17.7 0.7 0
18 0.7 0
18.3 0.7 0
18.6 0.7 0
18.9 0.7 0
19.2 0.7 0
19.5 0.7 0
19.8 0.7 0
20.1 0.7 0
20.4 0.7 0
20.7 0.7 0
21 0.7 0
21.3 0.7 0
21.6 0.7 0
21.9 0.7 0
22.2 0.7 0
22.5 0.7 0
22.8 0.7 0
23.1 0.7 0
23.4 0.7 0
23.7 0.7 0
24 0.7 0
24.3 0.7 0
24.6 0.7 0
24.9 0.7 0
25.2 0.7 0
25.5 0.7 0
25.8 0.7 0
26.1 0.7 0
26.4 0.7 0
26.7 0.7 0
27 0.7 0
27.3 0.7 0
27.6 0.7 0
27.9 0.7 0
28.2 0.7 0
28.5 0.7 0
28.8 0.7 0
29.1 0.7 0
29.4 0.7 0
29.7 0.7 0
30 0.7 0
30.3 0.7 0
30.6 0.7 0
0 0.8 0
0.3 0.8 0
0.6 0.8 0
0.9 0.8 0
1.2 0.8 0
1.5 0.8 0
1.8 0.8 0
2.1 0.8 0
2.4 0.8 0
2.7 0.8 0
3 0.8 0
3.3 0.8 0
3.6 0.8 0
3.9 0.8 0
4.2 0.8 0
4.5 0.8 0
4.8 0.8 0
5.1 0.8 0
5.4 0.8 0
5.7 0.8 0
6 0.8 0
6.3 0.8 0
6.6 0.8 0
6.9 0.8 0
7.2 0.8 0
7.5 0.8 0
7.8 0.8 0
8.1 0.8 0
8.4 0.8 0
8.7 0.8 0
9 0.8 0
9.3 0.8 0
9.6 0.8 0
9.9 0.8 0
10.2 0.8 0
10.5 0.8 0
10.8 0.8 0
11.1 0.8 0
11.4 0.8 0
11.7 0.8 0
12 0.8 0
12.3 0.8 0
12.6 0.8 0
12.9 0.8 0
13.2 0.8 0
13.5 0.8 0
13.8 0.8 0
14.1 0.8 0
14.4 0.8 0
14.7 0.8 0
15 0.8 0
15.3 0.8 0
15.6 0.8 0
15.9 0.8 0
16.2 0.8 0
16.5 0.8 0
16.8 0.8 0
17.1 0.8 0
17.4 0.8 0
17.7 0.8 0
18 0.8 0
18.3 0.8 0
18.6 0.8 0
18.9 0.8 0
19.2 0.8 0
19.5 0.8 0
19.8 0.8 0
20.1 0.8 0
20.4 0.8 0
20.7 0.8 0
21 0.8 0
21.3 0.8 0
21.6 0.8 0
21.9 0.8 0
22.2 0.8 0
22.5 0.8 0
22.8 0.8 0
23.1 0.8 0
23.4 0.8 0
23.7 0.8 0
24 0.8 0
24.3 0.8 0
24.6 0.8 0
24.9 0.8 0
25.2 0.8 0
25.5 0.8 0
25.8 0.8 0
26.1 0.8 0
26.4 0.8 0
26.7 0.8 0
27 0.8 0
27.3 0.8 0
27.6 0.8 0
27.9 0.8 0
28.2 0.8 0
28.5 0.8 0
28.8 0.8 0
29.1 0.8 0
29.4 0.8 0
29.7 0.8 0
30 0.8 0
30.3 0.8 0
30.6 0.8 0
0 0.9 0
0.3 0.9 0
0.6 0.9 0
0.9 0.9 0
1.2 0.9 0
1.5 0.9 0
1.8 0.9 0
2.1 0.9 0
2.4 0.9 0
2.7 0.9 0
3 0.9 0
3.3 0.9 0
3.6 0.9 0
3.9 0.9 0
4.2 0.9 0
4.5 0.9 0
4.8 0.9 0
5.1 0.9 0
5.4 0.9 0
5.7 0.9 0
6 0.9 0
6.3 0.9 0
6.6 0.9 0
6.9 0.9 0
7.2 0.9 0
7.5 0.9 0
7.8 0.9 0
8.1 0.9 0
8.4 0.9 0
8.7 0.9 0
9 0.9 0
9.3 0.9 0
9.6 0.9 0
9.9 0.9 0
10.2 0.9 0
10.5 0.9 0
10.8 0.9 0
11.1 0.9 0
11.4 0.9 0
11.7 0.9 0
12 0.9 0
12.3 0.9 0
12.6 0.9 0
12.9 0.9 0
13.2 0.9 0
13.5 0.9 0
13.8 0.9 0
14.1 0.9 0
14.4 0.9 0
14.7 0.9 0
15 0.9 0
15.3 0.9 0
15.6 0.9 0
15.9 0.9 0
16.2 0.9 0
16.5 0.9 0
16.8 0.9 0
17.1 0.9 0
17.4 0.9 0
17.7 0.9 0
18 0.9 0
18.3 0.9 0
18.6 0.9 0
18.9 0.9 0
19.2 0.9 0
19.5 0.9 0
19.8 0.9 0
20.1 0.9 0
20.4 0.9 0
20.7 0.9 0
21 0.9 0
21.3 0.9 0
21.6 0.9 0
21.9 0.9 0
22.2 0.9 0
22.5 0.9 0
22.8 0.9 0
23.1 0.9 0
23.4 0.9 0
23.7 0.9 0
24 0.9 0
24.3 0.9 0
24.6 0.9 0
24.9 0.9 0
25.2 0.9 0
25.5 0.9 0
25.8 0.9 0
26.1 0.9 0
26.4 0.9 0
26.7 0.9 0
27 0.9 0
27.3 0.9 0
27.6 0.9 0
27.9 0.9 0
28.2 0.9 0
28.5 0.9 0
28.8 0.9 0
29.1 0.9 0
29.4 0.9 0
29.7 0.9 0
30 0.9 0
30.3 0.9 0
30.6 0.9 0
0 1 0
0.3 1 0
0.6 1 0
0.9 1 0
1.2 1 0
1.5 1 0
1.8 1 0
2.1 1 0
2.4 1 0
2.7 1 0
3 1 0
3.3 1 0
3.6 1 0
3.9 1 0
4.2 1 0
4.5 1 0
4.8 1 0
5.1 1 0
5.4 1 0
5.7 1 0
6 1 0
6.3 1 0
6.6 1 0
6.9 1 0
7.2 1 0
7.5 1 0
7.8 1 0
8.1 1 0
8.4 1 0
8.7 1 0
9 1 0
9.3 1 0
9.6 1 0
9.9 1 0
10.2 1 0
10.5 1 0
10.8 1 0
11.1 1 0
11.4 1 0
11.7 1 0
12 1 0
12.3 1 0
12.6 1 0
12.9 1 0
13.2 1 0
13.5 1 0
13.8 1 0
14.1 1 0
14.4 1 0
14.7 1 0
15 1 0
15.3 1 0
15.6 1 0
15.9 1 0
16.2 1 0
16.5 1 0
16.8 1 0
17.1 1 0
17.4 1 0
17.7 1 0
18 1 0
18.3 1 0
18.6 1 0
18.9 1 0
19.2 1 0
19.5 1 0
19.8 1 0
20.1 1 0
20.4 1 0
20.7 1 0
21 1 0
21.3 1 0
21.6 1 0
21.9 1 0
22.2 1 0
22.5 1 0
22.8 1 0
23.1 1 0
23.4 1 0
23.7 1 0
24 1 0
24.3 1 0
24.6 1 0
24.9 1 0
25.2 1 0
25.5 1 0
25.8 1 0
26.1 1 0
26.4 1 0
26.7 1 0
27 1 0
27.3 1 0
27.6 1 0
27.9 1 0
28.2 1 0
28.5 1 0
28.8 1 0
29.1 1 0
29.4 1 0
29.7 1 0
30 1 0
30.3 1 0
30.6 1 0
0 1.1 0
0.3 1.1 0
0.6 1.1 0
0.9 1.1 0
1.2 1.1 0
1.5 1.1 0
1.8 1.1 0
2.1 1.1 0
2.4 1.1 0
2.7 1.1 0
3 1.1 0
3.3 1.1 0
3.6 1.1 0
3.9 1.1 0
4.2 1.1 0
4.5 1.1 0
4.8 1.1 0
5.1 1.1 0
5.4 1.1 0
5.7 1.1 0
6 1.1 0
6.3 1.1 0
6.6 1.1 0
6.9 1.1 0
7.2 1.1 0
7.5 1.1 0
7.8 1.1 0
8.1 1.1 0
8.4 1.1 0
8.7 1.1 0
9 1.1 0
9.3 1.1 0
9.6 1.1 0
9.9 1.1 0
10.2 1.1 0
10.5 1.1 0
10.8 1.1 0
11.1 1.1 0
11.4 1.1 0
11.7 1.1 0
12 1.1 0
12.3 1.1 0
12.6 1.1 0
12.9 1.1 0
13.2 1.1 0
13.5 1.1 0
13.8 1.1 0
14.1 1.1 0
14.4 1.1 0
14.7 1.1 0
15 1.1 0
15.3 1.1 0
15.6 1.1 0
15.9 1.1 0
16.2 1.1 0
16.5 1.1 0
16.8 1.1 0
17.1 1.1 0
17.4 1.1 0
17.7 1.1 0
18 1.1 0
18.3 1.1 0
18.6 1.1 0
18.9 1.1 0
19.2 1.1 0
19.5 1.1 0
19.8 1.1 0
20.1 1.1 0
20.4 1.1 0
20.7 1.1 0
21 1.1 0
21.3 1.1 0
21.6 1.1 0
21.9 1.1 0
22.2 1.1 0
22.5 1.1 0
22.8 1.1 0
23.1 1.1 0
23.4 1.1 0
23.7 1.1 0
24 1.1 0
24.3 1.1 0
24.6 1.1 0
24.9 1.1 0
25.2 1.1 0
25.5 1.1 0
25.8 1.1 0
26.1 1.1 0
26.4 1.1 0
26.7 1.1 0
27 1.1 0
27.3 1.1 0
27.6 1.1 0
27.9 1.1 0
28.2 1.1 0
28.5 1.1 0
28.8 1.1 0
29.1 1.1 0
29.4 1.1 0
29.7 1.1 0
30 1.1 0
30.3 1.1 0
30.6 1.1 0
0 1.2 0
0.3 1.2 0
0.6 1.2 0
0.9 1.2 0
1.2 1.2 0
1.5 1.2 0
1.8 1.2 0
2.1 1.2 0
2.4 1.2 0
2.7 1.2 0
3 1.2 0
3.3 1.2 0
3.6 1.2 0
3.9 1.2 0
4.2 1.2 0
4.5 1.2 0
4.8 1.2 0
5.1 1.2 0
5.4 1.2 0
5.7 1.2 0
6 1.2 0
6.3 1.2 0
6.6 1.2 0
6.9 1.2 0
7.2 1.2 0
7.5 1.2 0
7.8 1.2 0
8.1 1.2 0
8.4 1.2 0
8.7 1.2 0
9 1.2 0
9.3 1.2 0
9.6 1.2 0
9.9 1.2 0
10.2 1.2 0
10.5 1.2 0
10.8 1.2 0
11.1 1.2 0
11.4 1.2 0
11.7 1.2 0
12 1.2 0
12.3 1.2 0
12.6 1.2 0
12.9 1.2 0
13.2 1.2 0
13.5 1.2 0
13.8 1.2 0
14.1 1.2 0
14.4 1.2 0
14.7 1.2 0
15 1.2 0
15.3 1.2 0
15.6 1.2 0
15.9 1.2 0
16.2 1.2 0
16.5 1.2 0
16.8 1.2 0
17.1 1.2 0
17.4 1.2 0
17.7 1.2 0
18 1.2 0
18.3 1.2 0
18.6 1.2 0
18.9 1.2 0
19.2 1.2 0
19.5 1.2 0
19.8 1.2 0
20.1 1.2 0
20.4 1.2 0
20.7 1.2 0
21 1.2 0
21.3 1.2 0
21.6 1.2 0
21.9 1.2 0
22.2 1.2 0
22.5 1.2 0
22.8 1.2 0
23.1 1.2 0
23.4 1.2 0
23.7 1.2 0
24 1.2 0
24.3 1.2 0
24.6 1.2 0
24.9 1.2 0
25.2 1.2 0
25.5 1.2 0
25.8 1.2 0
26.1 1.2 0
26.4 1.2 0
26.7 1.2 0
27 1.2 0
27.3 1.2 0
27.6 1.2 0
27.9 1.2 0
28.2 1.2 0
28.5 1.2 0
28.8 1.2 0
29.1 1.2 0
29.4 1.2 0
29.7 1.2 0
30 1.2 0
30.3 1.2 0
30.6 1.2 0

POINT_DATA 1339

SCALARS pressure double
LOOKUP_TABLE pressure
1.1714
1.1714
1.10656
1.06233
1.0225
0.985927
0.952876
0.923347
0.89699
0.873283
0.851681
0.831717
0.813024
0.795326
0.778418
0.762158
0.746441
0.731185
0.716331
0.701837
0.687663
0.673778
0.660157
0.646779
0.633623
0.620673
0.607914
0.595331
0.582913
0.570649
0.558529
0.546542
0.534681
0.522938
0.511305
0.499776
0.488344
0.477005
0.465751
0.45458
0.443485
0.432462
0.421508
0.410618
0.399789
0.389017
0.3783
0.367635
0.357018
0.346446
0.335919
0.325432
0.314984
0.304573
0.294197
0.283854
0.273542
0.263259
0.253005
0.242777
0.232574
0.222394
0.212237
0.202102
0.191986
0.181889
0.171811
0.161749
0.151704
0.141674
0.131659
0.121657
0.111668
0.101692
0.091727
0.0817736
0.0718309
0.0618984
0.0519757
0.0420624
0.0321583
0.0222628
0.0123757
0.00249677
-0.00737438
-0.0172381
-0.0270945
-0.0369441
-0.0467871
-0.056624
-0.066455
-0.0762805
-0.0861009
-0.0959166
-0.105728
-0.115535
-0.125339
-0.13514
-0.144938
-0.154733
-0.164526
-0.174317
0.174317
1.1714
1.1714
1.10656
1.06233
1.0225
0.985927
0.952876
0.923347
0.89699
0.873283
0.851681
0.831717
0.813024
0.795326
0.778418
0.762158
0.746441
0.731185
0.716331
0.701837
0.687663
0.673778
0.660157
0.646779
0.633623
0.620673
0.607914
0.595331
0.582913
0.570649
0.558529
0.546542
0.534681
0.522938
0.511305
0.499776
0.488344
0.477005
0.465751
0.45458
0.443485
0.432462
0.421508
0.410618
0.399789
0.389017
0.3783
0.367635
0.357018
0.346446
0.335919
0.325432
0.314984
0.304573
0.294197
0.283854
0.273542
0.263259
0.253005
0.242777
0.232574
0.222394
0.212237
0.202102
0.191986
0.181889
0.171811
0.161749
0.151704
0.141674
0.131659
0.121657
0.111668
0.101692
0.091727
0.0817736
0.0718309
0.0618984
0.0519757
0.0420624
0.0321583
0.0222628
0.0123757
0.00249677
-0.00737438
-0.0172381
-0.0270945
-0.0369441
-0.0467871
-0.056624
-0.066455
-0.0762805
-0.0861009
-0.0959166
-0.105728
-0.115535
-0.125339
-0.13514
-0.144938
-0.154733
-0.164526
-0.174317
0.174317
1.15046
1.15046
1.10457
1.06255
1.02321
0.986724
0.953619
0.923978
0.897498
0.873678
0.851984
0.83195
0.813206
0.79547
0.778535
0.762255
0.746523
0.731256
0.716394
0.701893
0.687713
0.673822
0.660198
0.646816
0.633656
0.620704
0.607942
0.595357
0.582937
0.570672
0.558549
0.546561
0.534699
0.522954
0.51132
0.49979
0.488358
0.477017
0.465763
0.454591
0.443495
0.432472
0.421517
0.410627
0.399797
0.389025
0.378308
0.367642
0.357024
0.346453
0.335925
0.325438
0.31499
0.304578
0.294202
0.283858
0.273546
0.263263
0.253008
0.24278
0.232577
0.222397
0.21224
0.202104
0.191989
0.181892
0.171813
0.161752
0.151706
0.141676
0.13166
0.121659
0.11167
0.101693
0.0917285
0.081775
0.0718322
0.0618996
0.0519768
0.0420635
0.0321592
0.0222637
0.0123765
0.00249751
-0.00737373
-0.0172375
-0.027094
-0.0369436
-0.0467867
-0.0566236
-0.0664547
-0.0762803
-0.0861007
-0.0959165
-0.105728
-0.115535
-0.125339
-0.13514
-0.144938
-0.154733
-0.164526
-0.174317
0.174317
1.13548
1.13548
1.10169
1.06279
1.02432
0.988048
0.95488
0.925056
0.89836
0.874337
0.852476
0.832315
0.813478
0.795675
0.778693
0.762381
0.746625
0.731339
0.716465
0.701954
0.687766
0.673869
0.660239
0.646853
0.63369
0.620734
0.607969
0.595382
0.58296
0.570692
0.558568
0.546579
0.534715
0.522969
0.511334
0.499803
0.48837
0.477028
0.465774
0.4546
0.443504
0.43248
0.421525
0.410634
0.399804
0.389032
0.378314
0.367647
0.357029
0.346458
0.335929
0.325442
0.314994
0.304582
0.294205
0.283862
0.273549
0.263266
0.253011
0.242783
0.232579
0.2224
0.212242
0.202106
0.191991
0.181894
0.171815
0.161753
0.151708
0.141678
0.131662
0.12166
0.111671
0.101694
0.0917296
0.0817761
0.0718332
0.0619005
0.0519777
0.0420643
0.03216
0.0222644
0.0123772
0.00249807
-0.00737322
-0.017237
-0.0270936
-0.0369433
-0.0467864
-0.0566234
-0.0664545
-0.0762801
-0.0861006
-0.0959164
-0.105728
-0.115535
-0.125339
-0.13514
-0.144938
-0.154733
-0.164526
-0.174315
0.174315
1.12591
1.12591
1.0992
1.06289
1.02527
0.989243
0.956056
0.926093
0.899213
0.875009
0.852993
0.83271
0.813781
0.795909
0.778878
0.762531
0.746748
0.731442
0.716553
0.70203
0.687832
0.673927
0.660291
0.646899
0.633731
0.620771
0.608003
0.595412
0.582988
0.570718
0.558591
0.5466
0.534734
0.522987
0.511351
0.499818
0.488384
0.477041
0.465786
0.454612
0.443514
0.43249
0.421534
0.410642
0.399812
0.389039
0.378321
0.367654
0.357035
0.346463
0.335935
0.325447
0.314998
0.304587
0.29421
0.283866
0.273553
0.26327
0.253015
0.242786
0.232582
0.222402
0.212245
0.202109
0.191993
0.181896
0.171817
0.161755
0.15171
0.141679
0.131664
0.121661
0.111672
0.101696
0.091731
0.0817773
0.0718344
0.0619017
0.0519788
0.0420653
0.0321609
0.0222653
0.012378
0.00249887
-0.00737248
-0.0172363
-0.027093
-0.0369427
-0.0467859
-0.0566229
-0.066454
-0.0762797
-0.0861002
-0.095916
-0.105728
-0.115535
-0.125339
-0.13514
-0.144937
-0.154732
-0.164525
-0.174312
0.174312
1.1206
1.1206
1.09758
1.06291
1.02586
0.99001
0.956825
0.926782
0.899791
0.875473
0.853358
0.832994
0.814003
0.796086
0.779021
0.762649
0.746846
0.731527
0.716627
0.702094
0.687889
0.673978
0.660337
0.64694
0.633768
0.620805
0.608033
0.59544
0.583013
0.570741
0.558613
0.546619
0.534752
0.523004
0.511366
0.499833
0.488397
0.477054
0.465797
0.454622
0.443524
0.432499
0.421542
0.41065
0.399819
0.389046
0.378327
0.36766
0.357041
0.346469
0.33594
0.325452
0.315003
0.304591
0.294214
0.28387
0.273557
0.263273
0.253018
0.242789
0.232585
0.222405
0.212248
0.202111
0.191995
0.181898
0.171819
0.161757
0.151711
0.141681
0.131665
0.121663
0.111674
0.101697
0.0917323
0.0817786
0.0718355
0.0619028
0.0519799
0.0420664
0.0321619
0.0222662
0.0123789
0.00249972
-0.00737167
-0.0172356
-0.0270922
-0.036942
-0.0467853
-0.0566223
-0.0664535
-0.0762792
-0.0860998
-0.0959156
-0.105727
-0.115535
-0.125339
-0.135139
-0.144937
-0.154732
-0.164523
-0.174308
0.174308
1.1189
1.1189
1.09703
1.06292
1.02608
0.990284
0.957099
0.927028
0.899998
0.87564
0.85349
0.833099
0.814086
0.796152
0.779076
0.762694
0.746885
0.73156
0.716656
0.70212
0.687912
0.673999
0.660355
0.646957
0.633783
0.620819
0.608046
0.595452
0.583024
0.570751
0.558622
0.546628
0.53476
0.523011
0.511373
0.499839
0.488403
0.477059
0.465802
0.454627
0.443529
0.432503
0.421546
0.410654
0.399823
0.389049
0.37833
0.367663
0.357044
0.346471
0.335942
0.325454
0.315005
0.304593
0.294215
0.283871
0.273558
0.263275
0.253019
0.24279
0.232586
0.222406
0.212249
0.202112
0.191996
0.181899
0.17182
0.161758
0.151712
0.141682
0.131666
0.121664
0.111675
0.101698
0.0917328
0.0817791
0.0718361
0.0619033
0.0519803
0.0420668
0.0321623
0.0222666
0.0123793
0.0025001
-0.0073713
-0.0172352
-0.0270919
-0.0369417
-0.046785
-0.056622
-0.0664532
-0.0762789
-0.0860995
-0.0959154
-0.105727
-0.115534
-0.125338
-0.135139
-0.144937
-0.154732
-0.164523
-0.174306
0.174306
1.1206
1.1206
1.09758
1.06291
1.02586
0.990009
0.956825
0.926782
0.899791
0.875473
0.853358
0.832995
0.814003
0.796085
0.779022
0.762649
0.746846
0.731527
0.716627
0.702094
0.687888
0.673978
0.660337
0.64694
0.633768
0.620805
0.608033
0.59544
0.583013
0.570741
0.558613
0.546619
0.534753
0.523004
0.511366
0.499833
0.488397
0.477054
0.465797
0.454622
0.443524
0.432499
0.421542
0.41065
0.399819
0.389046
0.378327
0.36766
0.357041
0.346469
0.33594
0.325452
0.315003
0.304591
0.294214
0.28387
0.273557
0.263273
0.253018
0.242789
0.232585
0.222405
0.212248
0.202111
0.191995
0.181898
0.171819
0.161757
0.151711
0.141681
0.131665
0.121663
0.111674
0.101697
0.0917323
0.0817786
0.0718355
0.0619028
0.0519799
0.0420664
0.0321619
0.0222662
0.0123789
0.00249972
-0.00737167
-0.0172355
-0.0270922
-0.036942
-0.0467853
-0.0566223
-0.0664535
-0.0762792
-0.0860998
-0.0959156
-0.105727
-0.115535
-0.125339
-0.135139
-0.144937
-0.154732
-0.164523
-0.174308
0.174308
1.12591
1.12591
1.0992
1.06289
1.02527
0.989242
0.956056
0.926093
0.899214
0.875009
0.852993
0.83271
0.81378
0.795909
0.778879
0.762531
0.746747
0.731442
0.716554
0.70203
0.687831
0.673928
0.660291
0.646899
0.633731
0.620771
0.608003
0.595412
0.582988
0.570718
0.558591
0.5466
0.534734
0.522987
0.511351
0.499818
0.488384
0.477041
0.465786
0.454612
0.443514
0.43249
0.421534
0.410642
0.399812
0.389039
0.378321
0.367654
0.357035
0.346463
0.335935
0.325447
0.314998
0.304587
0.29421
0.283866
0.273553
0.26327
0.253015
0.242786
0.232582
0.222402
0.212245
0.202109
0.191993
0.181896
0.171817
0.161755
0.15171
0.141679
0.131664
0.121661
0.111672
0.101696
0.091731
0.0817773
0.0718344
0.0619017
0.0519788
0.0420653
0.0321609
0.0222653
0.012378
0.00249886
-0.00737248
-0.0172363
-0.027093
-0.0369427
-0.0467859
-0.0566229
-0.066454
-0.0762797
-0.0861002
-0.095916
-0.105727
-0.115535
-0.125339
-0.13514
-0.144937
-0.154732
-0.164525
-0.174312
0.174312
1.13549
1.13549
1.10169
1.06279
1.02432
0.988048
0.954879
0.925057
0.89836
0.874336
0.852476
0.832316
0.813478
0.795674
0.778694
0.762381
0.746624
0.731339
0.716466
0.701954
0.687765
0.673869
0.660239
0.646852
0.63369
0.620734
0.607969
0.595382
0.58296
0.570692
0.558568
0.546579
0.534715
0.522969
0.511334
0.499803
0.48837
0.477028
0.465774
0.4546
0.443504
0.43248
0.421525
0.410634
0.399804
0.389032
0.378314
0.367647
0.357029
0.346458
0.335929
0.325442
0.314994
0.304582
0.294205
0.283862
0.273549
0.263266
0.253011
0.242783
0.232579
0.2224
0.212242
0.202106
0.191991
0.181894
0.171815
0.161753
0.151708
0.141678
0.131662
0.12166
0.111671
0.101694
0.0917296
0.0817761
0.0718332
0.0619006
0.0519777
0.0420643
0.03216
0.0222644
0.0123772
0.00249807
-0.00737322
-0.017237
-0.0270936
-0.0369433
-0.0467864
-0.0566234
-0.0664545
-0.0762801
-0.0861006
-0.0959164
-0.105728
-0.115535
-0.125339
-0.13514
-0.144938
-0.154733
-0.164526
-0.174315
0.174315
1.15046
1.15046
1.10457
1.06255
1.02321
0.986723
0.953618
0.923979
0.897499
0.873677
0.851984
0.831951
0.813206
0.795469
0.778536
0.762256
0.746522
0.731256
0.716395
0.701893
0.687712
0.673823
0.660198
0.646815
0.633657
0.620704
0.607942
0.595357
0.582938
0.570672
0.558549
0.546561
0.534699
0.522954
0.51132
0.49979
0.488358
0.477017
0.465763
0.454591
0.443495
0.432472
0.421517
0.410627
0.399797
0.389025
0.378308
0.367642
0.357024
0.346453
0.335925
0.325438
0.31499
0.304578
0.294202
0.283858
0.273546
0.263263
0.253008
0.24278
0.232577
0.222397
0.21224
0.202104
0.191989
0.181892
0.171813
0.161752
0.151706
0.141676
0.13166
0.121659
0.11167
0.101693
0.0917285
0.081775
0.0718322
0.0618996
0.0519769
0.0420635
0.0321592
0.0222637
0.0123765
0.00249751
-0.00737373
-0.0172375
-0.027094
-0.0369436
-0.0467867
-0.0566236
-0.0664547
-0.0762803
-0.0861007
-0.0959165
-0.105728
-0.115535
-0.125339
-0.13514
-0.144938
-0.154733
-0.164526
-0.174317
0.174317
1.1714
1.1714
1.10656
1.06233
1.0225
0.985927
0.952875
0.923347
0.896991
0.873282
0.85168
0.831717
0.813024
0.795325
0.778418
0.762159
0.74644
0.731184
0.716332
0.701837
0.687663
0.673778
0.660157
0.646779
0.633623
0.620673
0.607913
0.595331
0.582913
0.570649
0.558529
0.546542
0.534681
0.522938
0.511305
0.499776
0.488344
0.477005
0.465751
0.45458
0.443485
0.432462
0.421508
0.410618
0.399789
0.389017
0.3783
0.367635
0.357018
0.346446
0.335919
0.325432
0.314984
0.304573
0.294197
0.283854
0.273542
0.263259
0.253005
0.242777
0.232574
0.222394
0.212237
0.202102
0.191986
0.181889
0.171811
0.161749
0.151704
0.141674
0.131659
0.121657
0.111668
0.101692
0.091727
0.0817736
0.0718309
0.0618984
0.0519757
0.0420625
0.0321583
0.0222628
0.0123757
0.00249677
-0.00737439
-0.017238
-0.0270945
-0.0369441
-0.0467871
-0.056624
-0.066455
-0.0762805
-0.0861009
-0.0959166
-0.105728
-0.115535
-0.125339
-0.13514
-0.144938
-0.154733
-0.164526
-0.174318
0.174318
1.1714
1.1714
1.10656
1.06233
1.0225
0.985927
0.952875
0.923347
0.896991
0.873282
0.85168
0.831717
0.813024
0.795325
0.778418
0.762159
0.74644
0.731184
0.716332
0.701837
0.687663
0.673778
0.660157
0.646779
0.633623
0.620673
0.607913
0.595331
0.582913
0.570649
0.558529
0.546542
0.534681
0.522938
0.511305
0.499776
0.488344
0.477005
0.465751
0.45458
0.443485
0.432462
0.421508
0.410618
0.399789
0.389017
0.3783
0.367635
0.357018
0.346446
0.335919
0.325432
0.314984
0.304573
0.294197
0.283854
0.273542
0.263259
0.253005
0.242777
0.232574
0.222394
0.212237
0.202102
0.191986
0.181889
0.171811
0.161749
0.151704
0.141674
0.131659
0.121657
0.111668
0.101692
0.091727
0.0817736
0.0718309
0.0618984
0.0519757
0.0420625
0.0321583
0.0222628
0.0123757
0.00249677
-0.00737439
-0.017238
-0.0270945
-0.0369441
-0.0467871
-0.056624
-0.066455
-0.0762805
-0.0861009
-0.0959166
-0.105728
-0.115535
-0.125339
-0.13514
-0.144938
-0.154733
-0.164526
-0.174318
0.174318
SCALARS phi double
LOOKUP_TABLE phi
1
1
1
1
0.999999
0.999994
0.999983
0.999958
0.99991
0.99983
0.999706
0.999526
0.999278
0.998952
0.998537
0.998024
0.997407
0.996678
0.995834
0.994869
0.993783
0.992574
0.991241
0.989787
0.988213
0.986522
0.984708
0.982762
0.980655
0.978347
0.975777
0.972869
0.969534
0.965678
0.961205
0.956024
0.950052
0.943223
0.935482
0.926793
0.917137
0.906511
0.894926
0.882409
0.868998
0.854742
0.839697
0.823925
0.807493
0.790473
0.772934
0.754949
0.736588
0.717919
0.699008
0.679919
0.66071
0.641439
0.622155
0.602908
0.583742
0.564696
0.545807
0.527107
0.508627
0.490391
0.472423
0.454743
0.437367
0.42031
0.403585
0.387202
0.371169
0.355492
0.340176
0.325225
0.31064
0.296423
0.282572
0.269088
0.255969
0.243212
0.230815
0.218773
0.207085
0.195747
0.184755
0.174105
0.163795
0.153822
0.144182
0.134873
0.125894
0.117243
0.108919
0.100921
0.0932528
0.0858999
0.0789168
0.0721169
0.0661667
0.0586573
0.0586573
1
1
1
1
0.999999
0.999994
0.999983
0.999958
0.99991
0.99983
0.999706
0.999526
0.999278
0.998952
0.998537
0.998024
0.997407
0.996678
0.995834
0.994869
0.993783
0.992574
0.991241
0.989787
0.988213
0.986522
0.984708
0.982762
0.980655
0.978347
0.975777
0.972869
0.969534
0.965678
0.961205
0.956024
0.950052
0.943223
0.935482
0.926793
0.917137
0.906511
0.894926
0.882409
0.868998
0.854742
0.839697
0.823925
0.807493
0.790473
0.772934
0.754949
0.736588
0.717919
0.699008
0.679919
0.66071
0.641439
0.622155
0.602908
0.583742
0.564696
0.545807
0.527107
0.508627
0.490391
0.472423
0.454743
0.437367
0.42031
0.403585
0.387202
0.371169
0.355492
0.340176
0.325225
0.31064
0.296423
0.282572
0.269088
0.255969
0.243212
0.230815
0.218773
0.207085
0.195747
0.184755
0.174105
0.163795
0.153822
0.144182
0.134873
0.125894
0.117243
0.108919
0.100921
0.0932528
0.0858999
0.0789168
0.0721169
0.0661667
0.0586573
0.0586573
1
1
1
0.999996
0.999983
0.999954
0.999898
0.999804
0.999658
0.999447
0.999157
0.998778
0.9983
0.997714
0.997014
0.996196
0.995256
0.994192
0.993003
0.991689
0.990252
0.988694
0.987016
0.985224
0.98332
0.981308
0.979194
0.976977
0.974657
0.972223
0.969658
0.966935
0.964017
0.960855
0.957394
0.953573
0.949328
0.944594
0.939312
0.933426
0.926889
0.919663
0.911718
0.903037
0.893612
0.883446
0.87255
0.860945
0.848659
0.835725
0.822184
0.808078
0.793455
0.778362
0.762852
0.746972
0.730775
0.714309
0.697622
0.68076
0.663769
0.64669
0.629563
0.612426
0.595313
0.578257
0.561287
0.544432
0.527715
0.511159
0.494786
0.478612
0.462655
0.446928
0.431443
0.416212
0.401242
0.386542
0.372117
0.357972
0.344109
0.330531
0.317238
0.30423
0.291506
0.279063
0.2669
0.255011
0.243395
0.232044
0.220956
0.210124
0.199544
0.18921
0.179118
0.169261
0.159645
0.150233
0.141133
0.131983
0.123998
0.113088
0.113088
0.999997
1
0.99998
0.999897
0.999724
0.999434
0.998999
0.998397
0.997613
0.996636
0.995464
0.994099
0.992547
0.990816
0.988916
0.986859
0.984656
0.982317
0.979854
0.977278
0.974599
0.971826
0.968969
0.966037
0.963036
0.959976
0.956863
0.953702
0.950499
0.947257
0.943976
0.940654
0.937284
0.933855
0.930349
0.926745
0.923016
0.919131
0.915058
0.910759
0.906199
0.90134
0.896147
0.890588
0.884633
0.878257
0.871439
0.864164
0.85642
0.848201
0.839507
0.830341
0.820712
0.810631
0.800116
0.789183
0.777856
0.766157
0.754112
0.741748
0.729092
0.716173
0.703018
0.689656
0.676115
0.662423
0.648606
0.634691
0.620701
0.606662
0.592595
0.578523
0.564465
0.550441
0.536468
0.522563
0.508741
0.495015
0.481398
0.467901
0.454533
0.441302
0.428215
0.415278
0.402495
0.389868
0.377397
0.365084
0.352927
0.340921
0.329064
0.31735
0.305771
0.29432
0.282988
0.27176
0.260643
0.24957
0.238706
0.227473
0.217679
0.203508
0.203508
0.999999
1
0.99943
0.998224
0.996402
0.994008
0.991093
0.987716
0.983939
0.979828
0.975446
0.970853
0.966103
0.961239
0.9563
0.951318
0.946317
0.94132
0.936342
0.931396
0.926494
0.921643
0.91685
0.91212
0.907457
0.902862
0.898338
0.893885
0.889505