# vtk DataFile Version 3.0
FlowField
ASCII
DATASET STRUCTURED_GRID
DIMENSIONS 103 13 1 
POINTS 1339 double
0 0 0
0.3 0 0
0.6 0 0
0.9 0 0
1.2 0 0
1.5 0 0
1.8 0 0
2.1 0 0
2.4 0 0
2.7 0 0
3 0 0
3.3 0 0
3.6 0 0
3.9 0 0
4.2 0 0
4.5 0 0
4.8 0 0
5.1 0 0
5.4 0 0
5.7 0 0
6 0 0
6.3 0 0
6.6 0 0
6.9 0 0
7.2 0 0
7.5 0 0
7.8 0 0
8.1 0 0
8.4 0 0
8.7 0 0
9 0 0
9.3 0 0
9.6 0 0
9.9 0 0
10.2 0 0
10.5 0 0
10.8 0 0
11.1 0 0
11.4 0 0
11.7 0 0
12 0 0
12.3 0 0
12.6 0 0
12.9 0 0
13.2 0 0
13.5 0 0
13.8 0 0
14.1 0 0
14.4 0 0
14.7 0 0
15 0 0
15.3 0 0
15.6 0 0
15.9 0 0
16.2 0 0
16.5 0 0
16.8 0 0
17.1 0 0
17.4 0 0
17.7 0 0
18 0 0
18.3 0 0
18.6 0 0
18.9 0 0
19.2 0 0
19.5 0 0
19.8 0 0
20.1 0 0
20.4 0 0
20.7 0 0
21 0 0
21.3 0 0
21.6 0 0
21.9 0 0
22.2 0 0
22.5 0 0
22.8 0 0
23.1 0 0
23.4 0 0
23.7 0 0
24 0 0
24.3 0 0
24.6 0 0
24.9 0 0
25.2 0 0
25.5 0 0
25.8 0 0
26.1 0 0
26.4 0 0
26.7 0 0
27 0 0
27.3 0 0
27.6 0 0
27.9 0 0
28.2 0 0
28.5 0 0
28.8 0 0
29.1 0 0
29.4 0 0
29.7 0 0
30 0 0
30.3 0 0
30.6 0 0
0 0.1 0
0.3 0.1 0
0.6 0.1 0
0.9 0.1 0
1.2 0.1 0
1.5 0.1 0
1.8 0.1 0
2.1 0.1 0
2.4 0.1 0
2.7 0.1 0
3 0.1 0
3.3 0.1 0
3.6 0.1 0
3.9 0.1 0
4.2 0.1 0
4.5 0.1 0
4.8 0.1 0
5.1 0.1 0
5.4 0.1 0
5.7 0.1 0
6 0.1 0
6.3 0.1 0
6.6 0.1 0
6.9 0.1 0
7.2 0.1 0
7.5 0.1 0
7.8 0.1 0
8.1 0.1 0
8.4 0.1 0
8.7 0.1 0
9 0.1 0
9.3 0.1 0
9.6 0.1 0
9.9 0.1 0
10.2 0.1 0
10.5 0.1 0
10.8 0.1 0
11.1 0.1 0
11.4 0.1 0
11.7 0.1 0
12 0.1 0
12.3 0.1 0
12.6 0.1 0
12.9 0.1 0
13.2 0.1 0
13.5 0.1 0
13.8 0.1 0
14.1 0.1 0
14.4 0.1 0
14.7 0.1 0
15 0.1 0
15.3 0.1 0
15.6 0.1 0
15.9 0.1 0
16.2 0.1 0
16.5 0.1 0
16.8 0.1 0
17.1 0.1 0
17.4 0.1 0
17.7 0.1 0
18 0.1 0
18.3 0.1 0
18.6 0.1 0
18.9 0.1 0
19.2 0.1 0
19.5 0.1 0
19.8 0.1 0
20.1 0.1 0
20.4 0.1 0
20.7 0.1 0
21 0.1 0
21.3 0.1 0
21.6 0.1 0
21.9 0.1 0
22.2 0.1 0
22.5 0.1 0
22.8 0.1 0
23.1 0.1 0
23.4 0.1 0
23.7 0.1 0
24 0.1 0
24.3 0.1 0
24.6 0.1 0
24.9 0.1 0
25.2 0.1 0
25.5 0.1 0
25.8 0.1 0
26.1 0.1 0
26.4 0.1 0
26.7 0.1 0
27 0.1 0
27.3 0.1 0
27.6 0.1 0
27.9 0.1 0
28.2 0.1 0
28.5 0.1 0
28.8 0.1 0
29.1 0.1 0
29.4 0.1 0
29.7 0.1 0
30 0.1 0
30.3 0.1 0
30.6 0.1 0
0 0.2 0
0.3 0.2 0
0.6 0.2 0
0.9 0.2 0
1.2 0.2 0
1.5 0.2 0
1.8 0.2 0
2.1 0.2 0
2.4 0.2 0
2.7 0.2 0
3 0.2 0
3.3 0.2 0
3.6 0.2 0
3.9 0.2 0
4.2 0.2 0
4.5 0.2 0
4.8 0.2 0
5.1 0.2 0
5.4 0.2 0
5.7 0.2 0
6 0.2 0
6.3 0.2 0
6.6 0.2 0
6.9 0.2 0
7.2 0.2 0
7.5 0.2 0
7.8 0.2 0
8.1 0.2 0
8.4 0.2 0
8.7 0.2 0
9 0.2 0
9.3 0.2 0
9.6 0.2 0
9.9 0.2 0
10.2 0.2 0
10.5 0.2 0
10.8 0.2 0
11.1 0.2 0
11.4 0.2 0
11.7 0.2 0
12 0.2 0
12.3 0.2 0
12.6 0.2 0
12.9 0.2 0
13.2 0.2 0
13.5 0.2 0
13.8 0.2 0
14.1 0.2 0
14.4 0.2 0
14.7 0.2 0
15 0.2 0
15.3 0.2 0
15.6 0.2 0
15.9 0.2 0
16.2 0.2 0
16.5 0.2 0
16.8 0.2 0
17.1 0.2 0
17.4 0.2 0
17.7 0.2 0
18 0.2 0
18.3 0.2 0
18.6 0.2 0
18.9 0.2 0
19.2 0.2 0
19.5 0.2 0
19.8 0.2 0
20.1 0.2 0
20.4 0.2 0
20.7 0.2 0
21 0.2 0
21.3 0.2 0
21.6 0.2 0
21.9 0.2 0
22.2 0.2 0
22.5 0.2 0
22.8 0.2 0
23.1 0.2 0
23.4 0.2 0
23.7 0.2 0
24 0.2 0
24.3 0.2 0
24.6 0.2 0
24.9 0.2 0
25.2 0.2 0
25.5 0.2 0
25.8 0.2 0
26.1 0.2 0
26.4 0.2 0
26.7 0.2 0
27 0.2 0
27.3 0.2 0
27.6 0.2 0
27.9 0.2 0
28.2 0.2 0
28.5 0.2 0
28.8 0.2 0
29.1 0.2 0
29.4 0.2 0
29.7 0.2 0
30 0.2 0
30.3 0.2 0
30.6 0.2 0
0 0.3 0
0.3 0.3 0
0.6 0.3 0
0.9 0.3 0
1.2 0.3 0
1.5 0.3 0
1.8 0.3 0
2.1 0.3 0
2.4 0.3 0
2.7 0.3 0
3 0.3 0
3.3 0.3 0
3.6 0.3 0
3.9 0.3 0
4.2 0.3 0
4.5 0.3 0
4.8 0.3 0
5.1 0.3 0
5.4 0.3 0
5.7 0.3 0
6 0.3 0
6.3 0.3 0
6.6 0.3 0
6.9 0.3 0
7.2 0.3 0
7.5 0.3 0
7.8 0.3 0
8.1 0.3 0
8.4 0.3 0
8.7 0.3 0
9 0.3 0
9.3 0.3 0
9.6 0.3 0
9.9 0.3 0
10.2 0.3 0
10.5 0.3 0
10.8 0.3 0
11.1 0.3 0
11.4 0.3 0
11.7 0.3 0
12 0.3 0
12.3 0.3 0
12.6 0.3 0
12.9 0.3 0
13.2 0.3 0
13.5 0.3 0
13.8 0.3 0
14.1 0.3 0
14.4 0.3 0
14.7 0.3 0
15 0.3 0
15.3 0.3 0
15.6 0.3 0
15.9 0.3 0
16.2 0.3 0
16.5 0.3 0
16.8 0.3 0
17.1 0.3 0
17.4 0.3 0
17.7 0.3 0
18 0.3 0
18.3 0.3 0
18.6 0.3 0
18.9 0.3 0
19.2 0.3 0
19.5 0.3 0
19.8 0.3 0
20.1 0.3 0
20.4 0.3 0
20.7 0.3 0
21 0.3 0
21.3 0.3 0
21.6 0.3 0
21.9 0.3 0
22.2 0.3 0
22.5 0.3 0
22.8 0.3 0
23.1 0.3 0
23.4 0.3 0
23.7 0.3 0
24 0.3 0
24.3 0.3 0
24.6 0.3 0
24.9 0.3 0
25.2 0.3 0
25.5 0.3 0
25.8 0.3 0
26.1 0.3 0
26.4 0.3 0
26.7 0.3 0
27 0.3 0
27.3 0.3 0
27.6 0.3 0
27.9 0.3 0
28.2 0.3 0
28.5 0.3 0
28.8 0.3 0
29.1 0.3 0
29.4 0.3 0
29.7 0.3 0
30 0.3 0
30.3 0.3 0
30.6 0.3 0
0 0.4 0
0.3 0.4 0
0.6 0.4 0
0.9 0.4 0
1.2 0.4 0
1.5 0.4 0
1.8 0.4 0
2.1 0.4 0
2.4 0.4 0
2.7 0.4 0
3 0.4 0
3.3 0.4 0
3.6 0.4 0
3.9 0.4 0
4.2 0.4 0
4.5 0.4 0
4.8 0.4 0
5.1 0.4 0
5.4 0.4 0
5.7 0.4 0
6 0.4 0
6.3 0.4 0
6.6 0.4 0
6.9 0.4 0
7.2 0.4 0
7.5 0.4 0
7.8 0.4 0
8.1 0.4 0
8.4 0.4 0
8.7 0.4 0
9 0.4 0
9.3 0.4 0
9.6 0.4 0
9.9 0.4 0
10.2 0.4 0
10.5 0.4 0
10.8 0.4 0
11.1 0.4 0
11.4 0.4 0
11.7 0.4 0
12 0.4 0
12.3 0.4 0
12.6 0.4 0
12.9 0.4 0
13.2 0.4 0
13.5 0.4 0
13.8 0.4 0
14.1 0.4 0
14.4 0.4 0
14.7 0.4 0
15 0.4 0
15.3 0.4 0
15.6 0.4 0
15.9 0.4 0
16.2 0.4 0
16.5 0.4 0
16.8 0.4 0
17.1 0.4 0
17.4 0.4 0
17.7 0.4 0
18 0.4 0
18.3 0.4 0
18.6 0.4 0
18.9 0.4 0
19.2 0.4 0
19.5 0.4 0
19.8 0.4 0
20.1 0.4 0
20.4 0.4 0
20.7 0.4 0
21 0.4 0
21.3 0.4 0
21.6 0.4 0
21.9 0.4 0
22.2 0.4 0
22.5 0.4 0
22.8 0.4 0
23.1 0.4 0
23.4 0.4 0
23.7 0.4 0
24 0.4 0
24.3 0.4 0
24.6 0.4 0
24.9 0.4 0
25.2 0.4 0
25.5 0.4 0
25.8 0.4 0
26.1 0.4 0
26.4 0.4 0
26.7 0.4 0
27 0.4 0
27.3 0.4 0
27.6 0.4 0
27.9 0.4 0
28.2 0.4 0
28.5 0.4 0
28.8 0.4 0
29.1 0.4 0
29.4 0.4 0
29.7 0.4 0
30 0.4 0
30.3 0.4 0
30.6 0.4 0
0 0.5 0
0.3 0.5 0
0.6 0.5 0
0.9 0.5 0
1.2 0.5 0
1.5 0.5 0
1.8 0.5 0
2.1 0.5 0
2.4 0.5 0
2.7 0.5 0
3 0.5 0
3.3 0.5 0
3.6 0.5 0
3.9 0.5 0
4.2 0.5 0
4.5 0.5 0
4.8 0.5 0
5.1 0.5 0
5.4 0.5 0
5.7 0.5 0
6 0.5 0
6.3 0.5 0
6.6 0.5 0
6.9 0.5 0
7.2 0.5 0
7.5 0.5 0
7.8 0.5 0
8.1 0.5 0
8.4 0.5 0
8.7 0.5 0
9 0.5 0
9.3 0.5 0
9.6 0.5 0
9.9 0.5 0
10.2 0.5 0
10.5 0.5 0
10.8 0.5 0
11.1 0.5 0
11.4 0.5 0
11.7 0.5 0
12 0.5 0
12.3 0.5 0
12.6 0.5 0
12.9 0.5 0
13.2 0.5 0
13.5 0.5 0
13.8 0.5 0
14.1 0.5 0
14.4 0.5 0
14.7 0.5 0
15 0.5 0
15.3 0.5 0
15.6 0.5 0
15.9 0.5 0
16.2 0.5 0
16.5 0.5 0
16.8 0.5 0
17.1 0.5 0
17.4 0.5 0
17.7 0.5 0
18 0.5 0
18.3 0.5 0
18.6 0.5 0
18.9 0.5 0
19.2 0.5 0
19.5 0.5 0
19.8 0.5 0
20.1 0.5 0
20.4 0.5 0
20.7 0.5 0
21 0.5 0
21.3 0.5 0
21.6 0.5 0
21.9 0.5 0
22.2 0.5 0
22.5 0.5 0
22.8 0.5 0
23.1 0.5 0
23.4 0.5 0
23.7 0.5 0
24 0.5 0
24.3 0.5 0
24.6 0.5 0
24.9 0.5 0
25.2 0.5 0
25.5 0.5 0
25.8 0.5 0
26.1 0.5 0
26.4 0.5 0
26.7 0.5 0
27 0.5 0
27.3 0.5 0
27.6 0.5 0
27.9 0.5 0
28.2 0.5 0
28.5 0.5 0
28.8 0.5 0
29.1 0.5 0
29.4 0.5 0
29.7 0.5 0
30 0.5 0
30.3 0.5 0
30.6 0.5 0
0 0.6 0
0.3 0.6 0
0.6 0.6 0
0.9 0.6 0
1.2 0.6 0
1.5 0.6 0
1.8 0.6 0
2.1 0.6 0
2.4 0.6 0
2.7 0.6 0
3 0.6 0
3.3 0.6 0
3.6 0.6 0
3.9 0.6 0
4.2 0.6 0
4.5 0.6 0
4.8 0.6 0
5.1 0.6 0
5.4 0.6 0
5.7 0.6 0
6 0.6 0
6.3 0.6 0
6.6 0.6 0
6.9 0.6 0
7.2 0.6 0
7.5 0.6 0
7.8 0.6 0
8.1 0.6 0
8.4 0.6 0
8.7 0.6 0
9 0.6 0
9.3 0.6 0
9.6 0.6 0
9.9 0.6 0
10.2 0.6 0
10.5 0.6 0
10.8 0.6 0
11.1 0.6 0
11.4 0.6 0
11.7 0.6 0
12 0.6 0
12.3 0.6 0
12.6 0.6 0
12.9 0.6 0
13.2 0.6 0
13.5 0.6 0
13.8 0.6 0
14.1 0.6 0
14.4 0.6 0
14.7 0.6 0
15 0.6 0
15.3 0.6 0
15.6 0.6 0
15.9 0.6 0
16.2 0.6 0
16.5 0.6 0
16.8 0.6 0
17.1 0.6 0
17.4 0.6 0
17.7 0.6 0
18 0.6 0
18.3 0.6 0
18.6 0.6 0
18.9 0.6 0
19.2 0.6 0
19.5 0.6 0
19.8 0.6 0
20.1 0.6 0
20.4 0.6 0
20.7 0.6 0
21 0.6 0
21.3 0.6 0
21.6 0.6 0
21.9 0.6 0
22.2 0.6 0
22.5 0.6 0
22.8 0.6 0
23.1 0.6 0
23.4 0.6 0
23.7 0.6 0
24 0.6 0
24.3 0.6 0
24.6 0.6 0
24.9 0.6 0
25.2 0.6 0
25.5 0.6 0
25.8 0.6 0
26.1 0.6 0
26.4 0.6 0
26.7 0.6 0
27 0.6 0
27.3 0.6 0
27.6 0.6 0
27.9 0.6 0
28.2 0.6 0
28.5 0.6 0
28.8 0.6 0
29.1 0.6 0
29.4 0.6 0
29.7 0.6 0
30 0.6 0
30.3 0.6 0
30.6 0.6 0
0 0.7 0
0.3 0.7 0
0.6 0.7 0
0.9 0.7 0
1.2 0.7 0
1.5 0.7 0
1.8 0.7 0
2.1 0.7 0
2.4 0.7 0
2.7 0.7 0
3 0.7 0
3.3 0.7 0
3.6 0.7 0
3.9 0.7 0
4.2 0.7 0
4.5 0.7 0
4.8 0.7 0
5.1 0.7 0
5.4 0.7 0
5.7 0.7 0
6 0.7 0
6.3 0.7 0
6.6 0.7 0
6.9 0.7 0
7.2 0.7 0
7.5 0.7 0
7.8 0.7 0
8.1 0.7 0
8.4 0.7 0
8.7 0.7 0
9 0.7 0
9.3 0.7 0
9.6 0.7 0
9.9 0.7 0
10.2 0.7 0
10.5 0.7 0
10.8 0.7 0
11.1 0.7 0
11.4 0.7 0
11.7 0.7 0
12 0.7 0
12.3 0.7 0
12.6 0.7 0
12.9 0.7 0
13.2 0.7 0
13.5 0.7 0
13.8 0.7 0
14.1 0.7 0
14.4 0.7 0
14.7 0.7 0
15 0.7 0
15.3 0.7 0
15.6 0.7 0
15.9 0.7 0
16.2 0.7 0
16.5 0.7 0
16.8 0.7 0
17.1 0.7 0
17.4 0.7 0
17.7 0.7 0
18 0.7 0
18.3 0.7 0
18.6 0.7 0
18.9 0.7 0
19.2 0.7 0
19.5 0.7 0
19.8 0.7 0
20.1 0.7 0
20.4 0.7 0
20.7 0.7 0
21 0.7 0
21.3 0.7 0
21.6 0.7 0
21.9 0.7 0
22.2 0.7 0
22.5 0.7 0
22.8 0.7 0
23.1 0.7 0
23.4 0.7 0
23.7 0.7 0
24 0.7 0
24.3 0.7 0
24.6 0.7 0
24.9 0.7 0
25.2 0.7 0
25.5 0.7 0
25.8 0.7 0
26.1 0.7 0
26.4 0.7 0
26.7 0.7 0
27 0.7 0
27.3 0.7 0
27.6 0.7 0
27.9 0.7 0
28.2 0.7 0
28.5 0.7 0
28.8 0.7 0
29.1 0.7 0
29.4 0.7 0
29.7 0.7 0
30 0.7 0
30.3 0.7 0
30.6 0.7 0
0 0.8 0
0.3 0.8 0
0.6 0.8 0
0.9 0.8 0
1.2 0.8 0
1.5 0.8 0
1.8 0.8 0
2.1 0.8 0
2.4 0.8 0
2.7 0.8 0
3 0.8 0
3.3 0.8 0
3.6 0.8 0
3.9 0.8 0
4.2 0.8 0
4.5 0.8 0
4.8 0.8 0
5.1 0.8 0
5.4 0.8 0
5.7 0.8 0
6 0.8 0
6.3 0.8 0
6.6 0.8 0
6.9 0.8 0
7.2 0.8 0
7.5 0.8 0
7.8 0.8 0
8.1 0.8 0
8.4 0.8 0
8.7 0.8 0
9 0.8 0
9.3 0.8 0
9.6 0.8 0
9.9 0.8 0
10.2 0.8 0
10.5 0.8 0
10.8 0.8 0
11.1 0.8 0
11.4 0.8 0
11.7 0.8 0
12 0.8 0
12.3 0.8 0
12.6 0.8 0
12.9 0.8 0
13.2 0.8 0
13.5 0.8 0
13.8 0.8 0
14.1 0.8 0
14.4 0.8 0
14.7 0.8 0
15 0.8 0
15.3 0.8 0
15.6 0.8 0
15.9 0.8 0
16.2 0.8 0
16.5 0.8 0
16.8 0.8 0
17.1 0.8 0
17.4 0.8 0
17.7 0.8 0
18 0.8 0
18.3 0.8 0
18.6 0.8 0
18.9 0.8 0
19.2 0.8 0
19.5 0.8 0
19.8 0.8 0
20.1 0.8 0
20.4 0.8 0
20.7 0.8 0
21 0.8 0
21.3 0.8 0
21.6 0.8 0
21.9 0.8 0
22.2 0.8 0
22.5 0.8 0
22.8 0.8 0
23.1 0.8 0
23.4 0.8 0
23.7 0.8 0
24 0.8 0
24.3 0.8 0
24.6 0.8 0
24.9 0.8 0
25.2 0.8 0
25.5 0.8 0
25.8 0.8 0
26.1 0.8 0
26.4 0.8 0
26.7 0.8 0
27 0.8 0
27.3 0.8 0
27.6 0.8 0
27.9 0.8 0
28.2 0.8 0
28.5 0.8 0
28.8 0.8 0
29.1 0.8 0
29.4 0.8 0
29.7 0.8 0
30 0.8 0
30.3 0.8 0
30.6 0.8 0
0 0.9 0
0.3 0.9 0
0.6 0.9 0
0.9 0.9 0
1.2 0.9 0
1.5 0.9 0
1.8 0.9 0
2.1 0.9 0
2.4 0.9 0
2.7 0.9 0
3 0.9 0
3.3 0.9 0
3.6 0.9 0
3.9 0.9 0
4.2 0.9 0
4.5 0.9 0
4.8 0.9 0
5.1 0.9 0
5.4 0.9 0
5.7 0.9 0
6 0.9 0
6.3 0.9 0
6.6 0.9 0
6.9 0.9 0
7.2 0.9 0
7.5 0.9 0
7.8 0.9 0
8.1 0.9 0
8.4 0.9 0
8.7 0.9 0
9 0.9 0
9.3 0.9 0
9.6 0.9 0
9.9 0.9 0
10.2 0.9 0
10.5 0.9 0
10.8 0.9 0
11.1 0.9 0
11.4 0.9 0
11.7 0.9 0
12 0.9 0
12.3 0.9 0
12.6 0.9 0
12.9 0.9 0
13.2 0.9 0
13.5 0.9 0
13.8 0.9 0
14.1 0.9 0
14.4 0.9 0
14.7 0.9 0
15 0.9 0
15.3 0.9 0
15.6 0.9 0
15.9 0.9 0
16.2 0.9 0
16.5 0.9 0
16.8 0.9 0
17.1 0.9 0
17.4 0.9 0
17.7 0.9 0
18 0.9 0
18.3 0.9 0
18.6 0.9 0
18.9 0.9 0
19.2 0.9 0
19.5 0.9 0
19.8 0.9 0
20.1 0.9 0
20.4 0.9 0
20.7 0.9 0
21 0.9 0
21.3 0.9 0
21.6 0.9 0
21.9 0.9 0
22.2 0.9 0
22.5 0.9 0
22.8 0.9 0
23.1 0.9 0
23.4 0.9 0
23.7 0.9 0
24 0.9 0
24.3 0.9 0
24.6 0.9 0
24.9 0.9 0
25.2 0.9 0
25.5 0.9 0
25.8 0.9 0
26.1 0.9 0
26.4 0.9 0
26.7 0.9 0
27 0.9 0
27.3 0.9 0
27.6 0.9 0
27.9 0.9 0
28.2 0.9 0
28.5 0.9 0
28.8 0.9 0
29.1 0.9 0
29.4 0.9 0
29.7 0.9 0
30 0.9 0
30.3 0.9 0
30.6 0.9 0
0 1 0
0.3 1 0
0.6 1 0
0.9 1 0
1.2 1 0
1.5 1 0
1.8 1 0
2.1 1 0
2.4 1 0
2.7 1 0
3 1 0
3.3 1 0
3.6 1 0
3.9 1 0
4.2 1 0
4.5 1 0
4.8 1 0
5.1 1 0
5.4 1 0
5.7 1 0
6 1 0
6.3 1 0
6.6 1 0
6.9 1 0
7.2 1 0
7.5 1 0
7.8 1 0
8.1 1 0
8.4 1 0
8.7 1 0
9 1 0
9.3 1 0
9.6 1 0
9.9 1 0
10.2 1 0
10.5 1 0
10.8 1 0
11.1 1 0
11.4 1 0
11.7 1 0
12 1 0
12.3 1 0
12.6 1 0
12.9 1 0
13.2 1 0
13.5 1 0
13.8 1 0
14.1 1 0
14.4 1 0
14.7 1 0
15 1 0
15.3 1 0
15.6 1 0
15.9 1 0
16.2 1 0
16.5 1 0
16.8 1 0
17.1 1 0
17.4 1 0
17.7 1 0
18 1 0
18.3 1 0
18.6 1 0
18.9 1 0
19.2 1 0
19.5 1 0
19.8 1 0
20.1 1 0
20.4 1 0
20.7 1 0
21 1 0
21.3 1 0
21.6 1 0
21.9 1 0
22.2 1 0
22.5 1 0
22.8 1 0
23.1 1 0
23.4 1 0
23.7 1 0
24 1 0
24.3 1 0
24.6 1 0
24.9 1 0
25.2 1 0
25.5 1 0
25.8 1 0
26.1 1 0
26.4 1 0
26.7 1 0
27 1 0
27.3 1 0
27.6 1 0
27.9 1 0
28.2 1 0
28.5 1 0
28.8 1 0
29.1 1 0
29.4 1 0
29.7 1 0
30 1 0
30.3 1 0
30.6 1 0
0 1.1 0
0.3 1.1 0
0.6 1.1 0
0.9 1.1 0
1.2 1.1 0
1.5 1.1 0
1.8 1.1 0
2.1 1.1 0
2.4 1.1 0
2.7 1.1 0
3 1.1 0
3.3 1.1 0
3.6 1.1 0
3.9 1.1 0
4.2 1.1 0
4.5 1.1 0
4.8 1.1 0
5.1 1.1 0
5.4 1.1 0
5.7 1.1 0
6 1.1 0
6.3 1.1 0
6.6 1.1 0
6.9 1.1 0
7.2 1.1 0
7.5 1.1 0
7.8 1.1 0
8.1 1.1 0
8.4 1.1 0
8.7 1.1 0
9 1.1 0
9.3 1.1 0
9.6 1.1 0
9.9 1.1 0
10.2 1.1 0
10.5 1.1 0
10.8 1.1 0
11.1 1.1 0
11.4 1.1 0
11.7 1.1 0
12 1.1 0
12.3 1.1 0
12.6 1.1 0
12.9 1.1 0
13.2 1.1 0
13.5 1.1 0
13.8 1.1 0
14.1 1.1 0
14.4 1.1 0
14.7 1.1 0
15 1.1 0
15.3 1.1 0
15.6 1.1 0
15.9 1.1 0
16.2 1.1 0
16.5 1.1 0
16.8 1.1 0
17.1 1.1 0
17.4 1.1 0
17.7 1.1 0
18 1.1 0
18.3 1.1 0
18.6 1.1 0
18.9 1.1 0
19.2 1.1 0
19.5 1.1 0
19.8 1.1 0
20.1 1.1 0
20.4 1.1 0
20.7 1.1 0
21 1.1 0
21.3 1.1 0
21.6 1.1 0
21.9 1.1 0
22.2 1.1 0
22.5 1.1 0
22.8 1.1 0
23.1 1.1 0
23.4 1.1 0
23.7 1.1 0
24 1.1 0
24.3 1.1 0
24.6 1.1 0
24.9 1.1 0
25.2 1.1 0
25.5 1.1 0
25.8 1.1 0
26.1 1.1 0
26.4 1.1 0
26.7 1.1 0
27 1.1 0
27.3 1.1 0
27.6 1.1 0
27.9 1.1 0
28.2 1.1 0
28.5 1.1 0
28.8 1.1 0
29.1 1.1 0
29.4 1.1 0
29.7 1.1 0
30 1.1 0
30.3 1.1 0
30.6 1.1 0
0 1.2 0
0.3 1.2 0
0.6 1.2 0
0.9 1.2 0
1.2 1.2 0
1.5 1.2 0
1.8 1.2 0
2.1 1.2 0
2.4 1.2 0
2.7 1.2 0
3 1.2 0
3.3 1.2 0
3.6 1.2 0
3.9 1.2 0
4.2 1.2 0
4.5 1.2 0
4.8 1.2 0
5.1 1.2 0
5.4 1.2 0
5.7 1.2 0
6 1.2 0
6.3 1.2 0
6.6 1.2 0
6.9 1.2 0
7.2 1.2 0
7.5 1.2 0
7.8 1.2 0
8.1 1.2 0
8.4 1.2 0
8.7 1.2 0
9 1.2 0
9.3 1.2 0
9.6 1.2 0
9.9 1.2 0
10.2 1.2 0
10.5 1.2 0
10.8 1.2 0
11.1 1.2 0
11.4 1.2 0
11.7 1.2 0
12 1.2 0
12.3 1.2 0
12.6 1.2 0
12.9 1.2 0
13.2 1.2 0
13.5 1.2 0
13.8 1.2 0
14.1 1.2 0
14.4 1.2 0
14.7 1.2 0
15 1.2 0
15.3 1.2 0
15.6 1.2 0
15.9 1.2 0
16.2 1.2 0
16.5 1.2 0
16.8 1.2 0
17.1 1.2 0
17.4 1.2 0
17.7 1.2 0
18 1.2 0
18.3 1.2 0
18.6 1.2 0
18.9 1.2 0
19.2 1.2 0
19.5 1.2 0
19.8 1.2 0
20.1 1.2 0
20.4 1.2 0
20.7 1.2 0
21 1.2 0
21.3 1.2 0
21.6 1.2 0
21.9 1.2 0
22.2 1.2 0
22.5 1.2 0
22.8 1.2 0
23.1 1.2 0
23.4 1.2 0
23.7 1.2 0
24 1.2 0
24.3 1.2 0
24.6 1.2 0
24.9 1.2 0
25.2 1.2 0
25.5 1.2 0
25.8 1.2 0
26.1 1.2 0
26.4 1.2 0
26.7 1.2 0
27 1.2 0
27.3 1.2 0
27.6 1.2 0
27.9 1.2 0
28.2 1.2 0
28.5 1.2 0
28.8 1.2 0
29.1 1.2 0
29.4 1.2 0
29.7 1.2 0
30 1.2 0
30.3 1.2 0
30.6 1.2 0

POINT_DATA 1339

SCALARS pressure double
LOOKUP_TABLE pressure
1.17137
1.17137
1.10652
1.06229
1.02246
0.985889
0.952837
0.923309
0.896953
0.873244
0.851642
0.831679
0.812986
0.795286
0.77838
0.76212
0.746401
0.731146
0.716293
0.701799
0.687624
0.673739
0.660118
0.64674
0.633584
0.620634
0.607874
0.595292
0.582874
0.57061
0.558489
0.546502
0.534641
0.522898
0.511265
0.499736
0.488305
0.476965
0.465711
0.454539
0.443444
0.432421
0.421466
0.410575
0.399745
0.388973
0.378256
0.367592
0.356978
0.346413
0.335895
0.325424
0.314997
0.304615
0.294275
0.283977
0.273719
0.263499
0.253316
0.243168
0.233051
0.222964
0.212905
0.202869
0.192855
0.18286
0.172881
0.162916
0.152963
0.14302
0.133084
0.123156
0.113232
0.103313
0.0933974
0.0834841
0.0735727
0.0636627
0.0537539
0.0438458
0.0339384
0.0240314
0.0141246
0.00421815
-0.00568818
-0.0155944
-0.0255006
-0.0354067
-0.0453127
-0.0552188
-0.0651248
-0.0750308
-0.0849368
-0.0948428
-0.104749
-0.114655
-0.124561
-0.134467
-0.144373
-0.154279
-0.164185
-0.174087
0.174087
1.17137
1.17137
1.10652
1.06229
1.02246
0.985889
0.952837
0.923309
0.896953
0.873244
0.851642
0.831679
0.812986
0.795286
0.77838
0.76212
0.746401
0.731146
0.716293
0.701799
0.687624
0.673739
0.660118
0.64674
0.633584
0.620634
0.607874
0.595292
0.582874
0.57061
0.558489
0.546502
0.534641
0.522898
0.511265
0.499736
0.488305
0.476965
0.465711
0.454539
0.443444
0.432421
0.421466
0.410575
0.399745
0.388973
0.378256
0.367592
0.356978
0.346413
0.335895
0.325424
0.314997
0.304615
0.294275
0.283977
0.273719
0.263499
0.253316
0.243168
0.233051
0.222964
0.212905
0.202869
0.192855
0.18286
0.172881
0.162916
0.152963
0.14302
0.133084
0.123156
0.113232
0.103313
0.0933974
0.0834841
0.0735727
0.0636627
0.0537539
0.0438458
0.0339384
0.0240314
0.0141246
0.00421815
-0.00568818
-0.0155944
-0.0255006
-0.0354067
-0.0453127
-0.0552188
-0.0651248
-0.0750308
-0.0849368
-0.0948428
-0.104749
-0.114655
-0.124561
-0.134467
-0.144373
-0.154279
-0.164185
-0.174087
0.174087
1.15042
1.15042
1.10453
1.06252
1.02317
0.986685
0.95358
0.92394
0.897461
0.873639
0.851945
0.831912
0.813168
0.795431
0.778497
0.762217
0.746484
0.731217
0.716356
0.701854
0.687673
0.673784
0.660159
0.646776
0.633617
0.620665
0.607903
0.595318
0.582898
0.570632
0.55851
0.546522
0.534659
0.522915
0.511281
0.499751
0.488318
0.476978
0.465723
0.454551
0.443454
0.432431
0.421475
0.410584
0.399753
0.388981
0.378263
0.367598
0.356984
0.346418
0.3359
0.325428
0.315001
0.304618
0.294278
0.283979
0.273721
0.263501
0.253318
0.243169
0.233052
0.222965
0.212905
0.202869
0.192855
0.18286
0.172881
0.162916
0.152963
0.14302
0.133084
0.123156
0.113232
0.103313
0.0933974
0.083484
0.0735726
0.0636627
0.0537538
0.0438458
0.0339384
0.0240313
0.0141246
0.00421815
-0.00568819
-0.0155944
-0.0255006
-0.0354067
-0.0453127
-0.0552188
-0.0651248
-0.0750308
-0.0849368
-0.0948428
-0.104749
-0.114655
-0.124561
-0.134467
-0.144373
-0.154279
-0.164185
-0.174087
0.174087
1.13545
1.13545
1.10165
1.06275
1.02428
0.98801
0.954841
0.925018
0.898322
0.874298
0.852438
0.832277
0.813439
0.795636
0.778655
0.762342
0.746585
0.731301
0.716427
0.701915
0.687726
0.67383
0.6602
0.646813
0.633651
0.620694
0.60793
0.595343
0.582921
0.570653
0.558529
0.546539
0.534675
0.52293
0.511294
0.499763
0.48833
0.476988
0.465734
0.45456
0.443463
0.432439
0.421483
0.410591
0.39976
0.388987
0.378269
0.367604
0.356989
0.346423
0.335905
0.325432
0.315005
0.304621
0.294281
0.283982
0.273723
0.263502
0.253319
0.24317
0.233053
0.222966
0.212905
0.20287
0.192855
0.18286
0.172881
0.162916
0.152963
0.143019
0.133084
0.123156
0.113232
0.103313
0.0933973
0.083484
0.0735726
0.0636627
0.0537538
0.0438458
0.0339383
0.0240313
0.0141246
0.00421814
-0.00568819
-0.0155944
-0.0255006
-0.0354067
-0.0453127
-0.0552188
-0.0651248
-0.0750308
-0.0849368
-0.0948428
-0.104749
-0.114655
-0.124561
-0.134467
-0.144373
-0.154279
-0.164184
-0.174086
0.174086
1.12587
1.12587
1.09917
1.06285
1.02523
0.989204
0.956018
0.926055
0.899175
0.874971
0.852955
0.832672
0.813741
0.795871
0.778841
0.762492
0.746708
0.731404
0.716515
0.701991
0.687793
0.673889
0.660252
0.64686
0.633692
0.620732
0.607963
0.595373
0.582948
0.570678
0.558552
0.54656
0.534695
0.522947
0.511311
0.499779
0.488344
0.477001
0.465746
0.454571
0.443474
0.432449
0.421492
0.410599
0.399768
0.388994
0.378276
0.36761
0.356995
0.346429
0.33591
0.325437
0.31501
0.304626
0.294285
0.283985
0.273726
0.263506
0.253322
0.243172
0.233055
0.222968
0.212907
0.202871
0.192856
0.182861
0.172882
0.162917
0.152963
0.14302
0.133085
0.123156
0.113233
0.103313
0.0933974
0.0834841
0.0735726
0.0636627
0.0537538
0.0438458
0.0339384
0.0240313
0.0141246
0.00421814
-0.00568819
-0.0155944
-0.0255006
-0.0354067
-0.0453127
-0.0552188
-0.0651248
-0.0750308
-0.0849368
-0.0948428
-0.104749
-0.114655
-0.124561
-0.134467
-0.144373
-0.154278
-0.164181
-0.174085
0.174085
1.12056
1.12056
1.09754
1.06287
1.02582
0.989971
0.956787
0.926744
0.899753
0.875435
0.85332
0.832956
0.813964
0.796047
0.778983
0.76261
0.746807
0.731489
0.716588
0.702055
0.68785
0.673939
0.660297
0.646901
0.633729
0.620765
0.607994
0.595401
0.582974
0.570701
0.558573
0.54658
0.534713
0.522964
0.511326
0.499793
0.488357
0.477014
0.465757
0.454582
0.443484
0.432458
0.4215
0.410607
0.399776
0.389002
0.378283
0.367617
0.357001
0.346435
0.335916
0.325443
0.315015
0.304631
0.29429
0.28399
0.27373
0.26351
0.253325
0.243176
0.233058
0.22297
0.21291
0.202873
0.192858
0.182862
0.172883
0.162918
0.152964
0.143021
0.133085
0.123156
0.113233
0.103314
0.0933976
0.0834842
0.0735728
0.0636628
0.0537539
0.0438459
0.0339384
0.0240314
0.0141247
0.00421816
-0.00568818
-0.0155944
-0.0255006
-0.0354067
-0.0453127
-0.0552188
-0.0651248
-0.0750308
-0.0849368
-0.0948428
-0.104749
-0.114655
-0.124561
-0.134467
-0.144372
-0.154277
-0.164178
-0.174083
0.174083
1.11886
1.11886
1.09699
1.06289
1.02604
0.990245
0.957061
0.92699
0.899959
0.875602
0.853452
0.83306
0.814047
0.796114
0.779038
0.762655
0.746846
0.731522
0.716617
0.702081
0.687873
0.67396
0.660316
0.646918
0.633744
0.620779
0.608007
0.595413
0.582985
0.570711
0.558582
0.546588
0.534721
0.522971
0.511333
0.499799
0.488363
0.477019
0.465762
0.454587
0.443488
0.432462
0.421504
0.410611
0.399779
0.389005
0.378286
0.36762
0.357004
0.346437
0.335918
0.325445
0.315017
0.304633
0.294292
0.283992
0.273732
0.263511
0.253327
0.243177
0.23306
0.222972
0.212911
0.202874
0.192859
0.182863
0.172884
0.162918
0.152965
0.143021
0.133085
0.123157
0.113233
0.103314
0.0933977
0.0834843
0.0735728
0.0636628
0.0537539
0.0438459
0.0339384
0.0240314
0.0141247
0.00421816
-0.00568817
-0.0155944
-0.0255006
-0.0354067
-0.0453127
-0.0552188
-0.0651248
-0.0750308
-0.0849368
-0.0948428
-0.104749
-0.114655
-0.124561
-0.134467
-0.144372
-0.154277
-0.164177
-0.174083
0.174083
1.12056
1.12056
1.09754
1.06287
1.02582
0.989971
0.956787
0.926744
0.899753
0.875435
0.85332
0.832956
0.813964
0.796047
0.778983
0.76261
0.746807
0.731489
0.716588
0.702055
0.68785
0.673939
0.660297
0.646901
0.633729
0.620765
0.607994
0.595401
0.582974
0.570701
0.558573
0.54658
0.534713
0.522964
0.511326
0.499793
0.488357
0.477014
0.465757
0.454582
0.443484
0.432458
0.4215
0.410607
0.399776
0.389002
0.378283
0.367617
0.357001
0.346435
0.335916
0.325443
0.315015
0.304631
0.29429
0.28399
0.273731
0.26351
0.253325
0.243176
0.233058
0.22297
0.21291
0.202873
0.192858
0.182862
0.172883
0.162918
0.152964
0.143021
0.133085
0.123156
0.113233
0.103314
0.0933976
0.0834842
0.0735728
0.0636628
0.0537539
0.0438459
0.0339384
0.0240314
0.0141247
0.00421816
-0.00568818
-0.0155944
-0.0255006
-0.0354067
-0.0453127
-0.0552188
-0.0651248
-0.0750308
-0.0849368
-0.0948428
-0.104749
-0.114655
-0.124561
-0.134467
-0.144372
-0.154277
-0.164178
-0.174083
0.174083
1.12587
1.12587
1.09917
1.06285
1.02523
0.989204
0.956018
0.926055
0.899175
0.874971
0.852955
0.832672
0.813741
0.795871
0.778841
0.762492
0.746708
0.731404
0.716515
0.701991
0.687793
0.673889
0.660252
0.64686
0.633692
0.620732
0.607963
0.595373
0.582948
0.570678
0.558552
0.54656
0.534695
0.522947
0.511311
0.499779
0.488344
0.477001
0.465746
0.454571
0.443474
0.432449
0.421492
0.410599
0.399768
0.388994
0.378276
0.36761
0.356995
0.346429
0.33591
0.325437
0.31501
0.304626
0.294285
0.283985
0.273726
0.263506
0.253322
0.243172
0.233055
0.222968
0.212907
0.202871
0.192856
0.182861
0.172882
0.162917
0.152963
0.14302
0.133085
0.123156
0.113233
0.103313
0.0933974
0.0834841
0.0735726
0.0636627
0.0537538
0.0438458
0.0339384
0.0240313
0.0141246
0.00421815
-0.00568819
-0.0155944
-0.0255006
-0.0354067
-0.0453127
-0.0552188
-0.0651248
-0.0750308
-0.0849368
-0.0948428
-0.104749
-0.114655
-0.124561
-0.134467
-0.144373
-0.154278
-0.164181
-0.174085
0.174085
1.13545
1.13545
1.10165
1.06275
1.02428
0.98801
0.954841
0.925018
0.898322
0.874298
0.852438
0.832277
0.813439
0.795636
0.778655
0.762342
0.746585
0.731301
0.716427
0.701915
0.687726
0.67383
0.6602
0.646813
0.633651
0.620694
0.60793
0.595343
0.582921
0.570653
0.558529
0.546539
0.534675
0.52293
0.511294
0.499763
0.48833
0.476988
0.465734
0.45456
0.443463
0.432439
0.421483
0.410591
0.39976
0.388987
0.378269
0.367604
0.356989
0.346423
0.335905
0.325432
0.315005
0.304621
0.294281
0.283982
0.273723
0.263502
0.253319
0.24317
0.233053
0.222966
0.212905
0.202869
0.192855
0.18286
0.172881
0.162916
0.152963
0.143019
0.133084
0.123156
0.113232
0.103313
0.0933973
0.083484
0.0735726
0.0636627
0.0537538
0.0438458
0.0339383
0.0240313
0.0141246
0.00421814
-0.00568819
-0.0155944
-0.0255006
-0.0354067
-0.0453127
-0.0552188
-0.0651248
-0.0750308
-0.0849368
-0.0948428
-0.104749
-0.114655
-0.124561
-0.134467
-0.144373
-0.154279
-0.164184
-0.174086
0.174086
1.15042
1.15042
1.10453
1.06252
1.02317
0.986685
0.95358
0.92394
0.897461
0.873639
0.851945
0.831912
0.813168
0.795431
0.778497
0.762217
0.746484
0.731217
0.716356
0.701854
0.687673
0.673784
0.660159
0.646776
0.633617
0.620665
0.607903
0.595318
0.582898
0.570632
0.55851
0.546522
0.534659
0.522915
0.511281
0.499751
0.488318
0.476978
0.465723
0.454551
0.443454
0.432431
0.421475
0.410584
0.399753
0.388981
0.378263
0.367598
0.356984
0.346418
0.3359
0.325428
0.315001
0.304618
0.294278
0.283979
0.273721
0.263501
0.253318
0.243169
0.233052
0.222965
0.212905
0.202869
0.192855
0.18286
0.172881
0.162916
0.152963
0.14302
0.133084
0.123156
0.113232
0.103313
0.0933974
0.083484
0.0735726
0.0636627
0.0537538
0.0438458
0.0339384
0.0240313
0.0141246
0.00421815
-0.00568818
-0.0155944
-0.0255006
-0.0354067
-0.0453127
-0.0552188
-0.0651248
-0.0750308
-0.0849368
-0.0948428
-0.104749
-0.114655
-0.124561
-0.134467
-0.144373
-0.154279
-0.164185
-0.174087
0.174087
1.17137
1.17137
1.10652
1.06229
1.02246
0.985889
0.952837
0.923309
0.896953
0.873244
0.851642
0.831679
0.812986
0.795286
0.77838
0.76212
0.746401
0.731146
0.716293
0.701799
0.687624
0.673739
0.660118
0.64674
0.633584
0.620634
0.607874
0.595292
0.582874
0.57061
0.558489
0.546502
0.534641
0.522898
0.511265
0.499736
0.488305
0.476965
0.465711
0.454539
0.443444
0.432421
0.421466
0.410575
0.399745
0.388973
0.378256
0.367592
0.356978
0.346413
0.335895
0.325424
0.314997
0.304615
0.294275
0.283977
0.273719
0.263499
0.253316
0.243168
0.233051
0.222964
0.212905
0.202869
0.192855
0.18286
0.172881
0.162916
0.152963
0.14302
0.133084
0.123156
0.113232
0.103313
0.0933974
0.0834841
0.0735727
0.0636627
0.0537539
0.0438458
0.0339384
0.0240314
0.0141246
0.00421816
-0.00568818
-0.0155944
-0.0255006
-0.0354067
-0.0453127
-0.0552188
-0.0651248
-0.0750308
-0.0849368
-0.0948428
-0.104749
-0.114655
-0.124561
-0.134467
-0.144373
-0.154279
-0.164185
-0.174087
0.174087
1.17137
1.17137
1.10652
1.06229
1.02246
0.985889
0.952837
0.923309
0.896953
0.873244
0.851642
0.831679
0.812986
0.795286
0.77838
0.76212
0.746401
0.731146
0.716293
0.701799
0.687624
0.673739
0.660118
0.64674
0.633584
0.620634
0.607874
0.595292
0.582874
0.57061
0.558489
0.546502
0.534641
0.522898
0.511265
0.499736
0.488305
0.476965
0.465711
0.454539
0.443444
0.432421
0.421466
0.410575
0.399745
0.388973
0.378256
0.367592
0.356978
0.346413
0.335895
0.325424
0.314997
0.304615
0.294275
0.283977
0.273719
0.263499
0.253316
0.243168
0.233051
0.222964
0.212905
0.202869
0.192855
0.18286
0.172881
0.162916
0.152963
0.14302
0.133084
0.123156
0.113232
0.103313
0.0933974
0.0834841
0.0735727
0.0636627
0.0537539
0.0438458
0.0339384
0.0240314
0.0141246
0.00421816
-0.00568818
-0.0155944
-0.0255006
-0.0354067
-0.0453127
-0.0552188
-0.0651248
-0.0750308
-0.0849368
-0.0948428
-0.104749
-0.114655
-0.124561
-0.134467
-0.144373
-0.154279
-0.164185
-0.174087
0.174087
SCALARS phi double
LOOKUP_TABLE phi
1
1
1
1
0.999998
0.999994
0.999982
0.999957
0.99991
0.999829
0.999705
0.999525
0.999277
0.998951
0.998533
0.998018
0.997409
0.996713
0.995902
0.994862
0.993353
0.991003
0.98736
0.981962
0.97441
0.96442
0.95184
0.936648
0.918925
0.898835
0.876594
0.852455
0.82669
0.799575
0.771383
0.742373
0.712792
0.682863
0.65279
0.622751
0.592905
0.563386
0.53431
0.505772
0.477852
0.450614
0.424109
0.398374
0.373439
0.349324
0.326044
0.303606
0.282015
0.261273
0.241377
0.222328
0.204122
0.186758
0.170235
0.154551
0.139707
0.125703
0.11254
0.100218
0.088736
0.0780924
0.0682814
0.0592942
0.0511174
0.0437326
0.0371158
0.0312372
0.0260612
0.0215466
0.017648
0.0143158
0.011498
0.00914144
0.00719276
0.0055999
0.00431316
0.00328607
0.0024761
0.00184512
0.00135959
0.00099058
0.000713583
0.000508227
0.000357865
0.00024913
0.000171465
0.000116675
7.84939e-05
5.22116e-05
3.43389e-05
2.23312e-05
1.43604e-05
9.13196e-06
5.7437e-06
3.56943e-06
2.21261e-06
1.25686e-06
1.25686e-06
1
1
1
1
0.999998
0.999994
0.999982
0.999957
0.99991
0.999829
0.999705
0.999525
0.999277
0.998951
0.998533
0.998018
0.997409
0.996713
0.995902
0.994862
0.993353
0.991003
0.98736
0.981962
0.97441
0.96442
0.95184
0.936648
0.918925
0.898835
0.876594
0.852455
0.82669
0.799575
0.771383
0.742373
0.712792
0.682863
0.65279
0.622751
0.592905
0.563386
0.53431
0.505772
0.477852
0.450614
0.424109
0.398374
0.373439
0.349324
0.326044
0.303606
0.282015
0.261273
0.241377
0.222328
0.204122
0.186758
0.170235
0.154551
0.139707
0.125703
0.11254
0.100218
0.088736
0.0780924
0.0682814
0.0592942
0.0511174
0.0437326
0.0371158
0.0312372
0.0260612
0.0215466
0.017648
0.0143158
0.011498
0.00914144
0.00719276
0.0055999
0.00431316
0.00328607
0.0024761
0.00184512
0.00135959
0.00099058
0.000713583
0.000508227
0.000357865
0.00024913
0.000171465
0.000116675
7.84939e-05
5.22116e-05
3.43389e-05
2.23312e-05
1.43604e-05
9.13196e-06
5.7437e-06
3.56943e-06
2.21261e-06
1.25686e-06
1.25686e-06
1
1
1
0.999996
0.999983
0.999954
0.999898
0.999804
0.999658
0.999446
0.999157
0.998777
0.998299
0.997713
0.997014
0.996194
0.995254
0.994195
0.993018
0.991712
0.990227
0.988463
0.986258
0.983394
0.979621
0.974684
0.968345
0.960413
0.950746
0.939265
0.925947
0.910824
0.893969
0.875496
0.855542
0.834265
0.811835
0.788425
0.764209
0.739355
0.714025
0.68837
0.662528
0.636627
0.610781
0.58509
0.559642
0.534513
0.509766
0.485454
0.461616
0.438285
0.415481
0.393217
0.3715
0.350329
0.329699
0.309602
0.290028
0.270967
0.252411
0.234353
0.216794
0.199739
0.1832
0.167201
0.151769
0.136943
0.122767
0.109289
0.096562
0.0846334
0.073548
0.0633416
0.0540387
0.0456501
0.0381712
0.0315822
0.0258481
0.020921
0.0167418
0.0132436
0.0103543
0.00799997
0.00610752
0.00460697
0.00343332
0.00252781
0.00183866
0.00132123
0.000937967
0.000657862
0.000455867
0.000312116
0.000211151
0.000141155
9.32516e-05
6.08828e-05
3.92931e-05
2.50375e-05
1.5921e-05
9.23698e-06
9.23698e-06
0.999997
1
0.99998
0.999896
0.999724
0.999434
0.998999
0.998397
0.997613
0.996636
0.995464
0.994099
0.992546
0.990816
0.988916
0.986859
0.984655
0.982316
0.979855
0.977282
0.974603
0.971813
0.968891
0.965792
0.962449
0.958776
0.954666
0.950006
0.944679
0.938576
0.9316
0.923667
0.914719
0.904714
0.893635
0.881485
0.868284
0.854073
0.838903
0.822839
0.805955
0.788329
0.770046
0.751191
0.73185
0.712108
0.692048
0.671746
0.651277
0.630707
0.610097
0.589499
0.568956
0.548503
0.528164
0.507956
0.487882
0.467939
0.448113
0.428383
0.408721
0.389094
0.369467
0.349805
0.33008
0.310273
0.290381
0.27042
0.250431
0.230484
0.210675
0.191127
0.171986
0.153413
0.135573
0.11863
0.102734
0.088011
0.074558
0.0624362
0.0516698
0.0422461
0.0341191
0.0272144
0.0214356
0.0166711
0.0128015
0.00970524
0.00726429
0.00536815
0.0039166
0.00282139
0.00200682
0.00140952
0.000977647
0.000669691
0.000453093
0.000302795