# vtk DataFile Version 3.0
FlowField
ASCII
DATASET STRUCTURED_GRID
DIMENSIONS 103 13 1 
POINTS 1339 double
0 0 0
0.3 0 0
0.6 0 0
0.9 0 0
1.2 0 0
1.5 0 0
1.8 0 0
2.1 0 0
2.4 0 0
2.7 0 0
3 0 0
3.3 0 0
3.6 0 0
3.9 0 0
4.2 0 0
4.5 0 0
4.8 0 0
5.1 0 0
5.4 0 0
5.7 0 0
6 0 0
6.3 0 0
6.6 0 0
6.9 0 0
7.2 0 0
7.5 0 0
7.8 0 0
8.1 0 0
8.4 0 0
8.7 0 0
9 0 0
9.3 0 0
9.6 0 0
9.9 0 0
10.2 0 0
10.5 0 0
10.8 0 0
11.1 0 0
11.4 0 0
11.7 0 0
12 0 0
12.3 0 0
12.6 0 0
12.9 0 0
13.2 0 0
13.5 0 0
13.8 0 0
14.1 0 0
14.4 0 0
14.7 0 0
15 0 0
15.3 0 0
15.6 0 0
15.9 0 0
16.2 0 0
16.5 0 0
16.8 0 0
17.1 0 0
17.4 0 0
17.7 0 0
18 0 0
18.3 0 0
18.6 0 0
18.9 0 0
19.2 0 0
19.5 0 0
19.8 0 0
20.1 0 0
20.4 0 0
20.7 0 0
21 0 0
21.3 0 0
21.6 0 0
21.9 0 0
22.2 0 0
22.5 0 0
22.8 0 0
23.1 0 0
23.4 0 0
23.7 0 0
24 0 0
24.3 0 0
24.6 0 0
24.9 0 0
25.2 0 0
25.5 0 0
25.8 0 0
26.1 0 0
26.4 0 0
26.7 0 0
27 0 0
27.3 0 0
27.6 0 0
27.9 0 0
28.2 0 0
28.5 0 0
28.8 0 0
29.1 0 0
29.4 0 0
29.7 0 0
30 0 0
30.3 0 0
30.6 0 0
0 0.1 0
0.3 0.1 0
0.6 0.1 0
0.9 0.1 0
1.2 0.1 0
1.5 0.1 0
1.8 0.1 0
2.1 0.1 0
2.4 0.1 0
2.7 0.1 0
3 0.1 0
3.3 0.1 0
3.6 0.1 0
3.9 0.1 0
4.2 0.1 0
4.5 0.1 0
4.8 0.1 0
5.1 0.1 0
5.4 0.1 0
5.7 0.1 0
6 0.1 0
6.3 0.1 0
6.6 0.1 0
6.9 0.1 0
7.2 0.1 0
7.5 0.1 0
7.8 0.1 0
8.1 0.1 0
8.4 0.1 0
8.7 0.1 0
9 0.1 0
9.3 0.1 0
9.6 0.1 0
9.9 0.1 0
10.2 0.1 0
10.5 0.1 0
10.8 0.1 0
11.1 0.1 0
11.4 0.1 0
11.7 0.1 0
12 0.1 0
12.3 0.1 0
12.6 0.1 0
12.9 0.1 0
13.2 0.1 0
13.5 0.1 0
13.8 0.1 0
14.1 0.1 0
14.4 0.1 0
14.7 0.1 0
15 0.1 0
15.3 0.1 0
15.6 0.1 0
15.9 0.1 0
16.2 0.1 0
16.5 0.1 0
16.8 0.1 0
17.1 0.1 0
17.4 0.1 0
17.7 0.1 0
18 0.1 0
18.3 0.1 0
18.6 0.1 0
18.9 0.1 0
19.2 0.1 0
19.5 0.1 0
19.8 0.1 0
20.1 0.1 0
20.4 0.1 0
20.7 0.1 0
21 0.1 0
21.3 0.1 0
21.6 0.1 0
21.9 0.1 0
22.2 0.1 0
22.5 0.1 0
22.8 0.1 0
23.1 0.1 0
23.4 0.1 0
23.7 0.1 0
24 0.1 0
24.3 0.1 0
24.6 0.1 0
24.9 0.1 0
25.2 0.1 0
25.5 0.1 0
25.8 0.1 0
26.1 0.1 0
26.4 0.1 0
26.7 0.1 0
27 0.1 0
27.3 0.1 0
27.6 0.1 0
27.9 0.1 0
28.2 0.1 0
28.5 0.1 0
28.8 0.1 0
29.1 0.1 0
29.4 0.1 0
29.7 0.1 0
30 0.1 0
30.3 0.1 0
30.6 0.1 0
0 0.2 0
0.3 0.2 0
0.6 0.2 0
0.9 0.2 0
1.2 0.2 0
1.5 0.2 0
1.8 0.2 0
2.1 0.2 0
2.4 0.2 0
2.7 0.2 0
3 0.2 0
3.3 0.2 0
3.6 0.2 0
3.9 0.2 0
4.2 0.2 0
4.5 0.2 0
4.8 0.2 0
5.1 0.2 0
5.4 0.2 0
5.7 0.2 0
6 0.2 0
6.3 0.2 0
6.6 0.2 0
6.9 0.2 0
7.2 0.2 0
7.5 0.2 0
7.8 0.2 0
8.1 0.2 0
8.4 0.2 0
8.7 0.2 0
9 0.2 0
9.3 0.2 0
9.6 0.2 0
9.9 0.2 0
10.2 0.2 0
10.5 0.2 0
10.8 0.2 0
11.1 0.2 0
11.4 0.2 0
11.7 0.2 0
12 0.2 0
12.3 0.2 0
12.6 0.2 0
12.9 0.2 0
13.2 0.2 0
13.5 0.2 0
13.8 0.2 0
14.1 0.2 0
14.4 0.2 0
14.7 0.2 0
15 0.2 0
15.3 0.2 0
15.6 0.2 0
15.9 0.2 0
16.2 0.2 0
16.5 0.2 0
16.8 0.2 0
17.1 0.2 0
17.4 0.2 0
17.7 0.2 0
18 0.2 0
18.3 0.2 0
18.6 0.2 0
18.9 0.2 0
19.2 0.2 0
19.5 0.2 0
19.8 0.2 0
20.1 0.2 0
20.4 0.2 0
20.7 0.2 0
21 0.2 0
21.3 0.2 0
21.6 0.2 0
21.9 0.2 0
22.2 0.2 0
22.5 0.2 0
22.8 0.2 0
23.1 0.2 0
23.4 0.2 0
23.7 0.2 0
24 0.2 0
24.3 0.2 0
24.6 0.2 0
24.9 0.2 0
25.2 0.2 0
25.5 0.2 0
25.8 0.2 0
26.1 0.2 0
26.4 0.2 0
26.7 0.2 0
27 0.2 0
27.3 0.2 0
27.6 0.2 0
27.9 0.2 0
28.2 0.2 0
28.5 0.2 0
28.8 0.2 0
29.1 0.2 0
29.4 0.2 0
29.7 0.2 0
30 0.2 0
30.3 0.2 0
30.6 0.2 0
0 0.3 0
0.3 0.3 0
0.6 0.3 0
0.9 0.3 0
1.2 0.3 0
1.5 0.3 0
1.8 0.3 0
2.1 0.3 0
2.4 0.3 0
2.7 0.3 0
3 0.3 0
3.3 0.3 0
3.6 0.3 0
3.9 0.3 0
4.2 0.3 0
4.5 0.3 0
4.8 0.3 0
5.1 0.3 0
5.4 0.3 0
5.7 0.3 0
6 0.3 0
6.3 0.3 0
6.6 0.3 0
6.9 0.3 0
7.2 0.3 0
7.5 0.3 0
7.8 0.3 0
8.1 0.3 0
8.4 0.3 0
8.7 0.3 0
9 0.3 0
9.3 0.3 0
9.6 0.3 0
9.9 0.3 0
10.2 0.3 0
10.5 0.3 0
10.8 0.3 0
11.1 0.3 0
11.4 0.3 0
11.7 0.3 0
12 0.3 0
12.3 0.3 0
12.6 0.3 0
12.9 0.3 0
13.2 0.3 0
13.5 0.3 0
13.8 0.3 0
14.1 0.3 0
14.4 0.3 0
14.7 0.3 0
15 0.3 0
15.3 0.3 0
15.6 0.3 0
15.9 0.3 0
16.2 0.3 0
16.5 0.3 0
16.8 0.3 0
17.1 0.3 0
17.4 0.3 0
17.7 0.3 0
18 0.3 0
18.3 0.3 0
18.6 0.3 0
18.9 0.3 0
19.2 0.3 0
19.5 0.3 0
19.8 0.3 0
20.1 0.3 0
20.4 0.3 0
20.7 0.3 0
21 0.3 0
21.3 0.3 0
21.6 0.3 0
21.9 0.3 0
22.2 0.3 0
22.5 0.3 0
22.8 0.3 0
23.1 0.3 0
23.4 0.3 0
23.7 0.3 0
24 0.3 0
24.3 0.3 0
24.6 0.3 0
24.9 0.3 0
25.2 0.3 0
25.5 0.3 0
25.8 0.3 0
26.1 0.3 0
26.4 0.3 0
26.7 0.3 0
27 0.3 0
27.3 0.3 0
27.6 0.3 0
27.9 0.3 0
28.2 0.3 0
28.5 0.3 0
28.8 0.3 0
29.1 0.3 0
29.4 0.3 0
29.7 0.3 0
30 0.3 0
30.3 0.3 0
30.6 0.3 0
0 0.4 0
0.3 0.4 0
0.6 0.4 0
0.9 0.4 0
1.2 0.4 0
1.5 0.4 0
1.8 0.4 0
2.1 0.4 0
2.4 0.4 0
2.7 0.4 0
3 0.4 0
3.3 0.4 0
3.6 0.4 0
3.9 0.4 0
4.2 0.4 0
4.5 0.4 0
4.8 0.4 0
5.1 0.4 0
5.4 0.4 0
5.7 0.4 0
6 0.4 0
6.3 0.4 0
6.6 0.4 0
6.9 0.4 0
7.2 0.4 0
7.5 0.4 0
7.8 0.4 0
8.1 0.4 0
8.4 0.4 0
8.7 0.4 0
9 0.4 0
9.3 0.4 0
9.6 0.4 0
9.9 0.4 0
10.2 0.4 0
10.5 0.4 0
10.8 0.4 0
11.1 0.4 0
11.4 0.4 0
11.7 0.4 0
12 0.4 0
12.3 0.4 0
12.6 0.4 0
12.9 0.4 0
13.2 0.4 0
13.5 0.4 0
13.8 0.4 0
14.1 0.4 0
14.4 0.4 0
14.7 0.4 0
15 0.4 0
15.3 0.4 0
15.6 0.4 0
15.9 0.4 0
16.2 0.4 0
16.5 0.4 0
16.8 0.4 0
17.1 0.4 0
17.4 0.4 0
17.7 0.4 0
18 0.4 0
18.3 0.4 0
18.6 0.4 0
18.9 0.4 0
19.2 0.4 0
19.5 0.4 0
19.8 0.4 0
20.1 0.4 0
20.4 0.4 0
20.7 0.4 0
21 0.4 0
21.3 0.4 0
21.6 0.4 0
21.9 0.4 0
22.2 0.4 0
22.5 0.4 0
22.8 0.4 0
23.1 0.4 0
23.4 0.4 0
23.7 0.4 0
24 0.4 0
24.3 0.4 0
24.6 0.4 0
24.9 0.4 0
25.2 0.4 0
25.5 0.4 0
25.8 0.4 0
26.1 0.4 0
26.4 0.4 0
26.7 0.4 0
27 0.4 0
27.3 0.4 0
27.6 0.4 0
27.9 0.4 0
28.2 0.4 0
28.5 0.4 0
28.8 0.4 0
29.1 0.4 0
29.4 0.4 0
29.7 0.4 0
30 0.4 0
30.3 0.4 0
30.6 0.4 0
0 0.5 0
0.3 0.5 0
0.6 0.5 0
0.9 0.5 0
1.2 0.5 0
1.5 0.5 0
1.8 0.5 0
2.1 0.5 0
2.4 0.5 0
2.7 0.5 0
3 0.5 0
3.3 0.5 0
3.6 0.5 0
3.9 0.5 0
4.2 0.5 0
4.5 0.5 0
4.8 0.5 0
5.1 0.5 0
5.4 0.5 0
5.7 0.5 0
6 0.5 0
6.3 0.5 0
6.6 0.5 0
6.9 0.5 0
7.2 0.5 0
7.5 0.5 0
7.8 0.5 0
8.1 0.5 0
8.4 0.5 0
8.7 0.5 0
9 0.5 0
9.3 0.5 0
9.6 0.5 0
9.9 0.5 0
10.2 0.5 0
10.5 0.5 0
10.8 0.5 0
11.1 0.5 0
11.4 0.5 0
11.7 0.5 0
12 0.5 0
12.3 0.5 0
12.6 0.5 0
12.9 0.5 0
13.2 0.5 0
13.5 0.5 0
13.8 0.5 0
14.1 0.5 0
14.4 0.5 0
14.7 0.5 0
15 0.5 0
15.3 0.5 0
15.6 0.5 0
15.9 0.5 0
16.2 0.5 0
16.5 0.5 0
16.8 0.5 0
17.1 0.5 0
17.4 0.5 0
17.7 0.5 0
18 0.5 0
18.3 0.5 0
18.6 0.5 0
18.9 0.5 0
19.2 0.5 0
19.5 0.5 0
19.8 0.5 0
20.1 0.5 0
20.4 0.5 0
20.7 0.5 0
21 0.5 0
21.3 0.5 0
21.6 0.5 0
21.9 0.5 0
22.2 0.5 0
22.5 0.5 0
22.8 0.5 0
23.1 0.5 0
23.4 0.5 0
23.7 0.5 0
24 0.5 0
24.3 0.5 0
24.6 0.5 0
24.9 0.5 0
25.2 0.5 0
25.5 0.5 0
25.8 0.5 0
26.1 0.5 0
26.4 0.5 0
26.7 0.5 0
27 0.5 0
27.3 0.5 0
27.6 0.5 0
27.9 0.5 0
28.2 0.5 0
28.5 0.5 0
28.8 0.5 0
29.1 0.5 0
29.4 0.5 0
29.7 0.5 0
30 0.5 0
30.3 0.5 0
30.6 0.5 0
0 0.6 0
0.3 0.6 0
0.6 0.6 0
0.9 0.6 0
1.2 0.6 0
1.5 0.6 0
1.8 0.6 0
2.1 0.6 0
2.4 0.6 0
2.7 0.6 0
3 0.6 0
3.3 0.6 0
3.6 0.6 0
3.9 0.6 0
4.2 0.6 0
4.5 0.6 0
4.8 0.6 0
5.1 0.6 0
5.4 0.6 0
5.7 0.6 0
6 0.6 0
6.3 0.6 0
6.6 0.6 0
6.9 0.6 0
7.2 0.6 0
7.5 0.6 0
7.8 0.6 0
8.1 0.6 0
8.4 0.6 0
8.7 0.6 0
9 0.6 0
9.3 0.6 0
9.6 0.6 0
9.9 0.6 0
10.2 0.6 0
10.5 0.6 0
10.8 0.6 0
11.1 0.6 0
11.4 0.6 0
11.7 0.6 0
12 0.6 0
12.3 0.6 0
12.6 0.6 0
12.9 0.6 0
13.2 0.6 0
13.5 0.6 0
13.8 0.6 0
14.1 0.6 0
14.4 0.6 0
14.7 0.6 0
15 0.6 0
15.3 0.6 0
15.6 0.6 0
15.9 0.6 0
16.2 0.6 0
16.5 0.6 0
16.8 0.6 0
17.1 0.6 0
17.4 0.6 0
17.7 0.6 0
18 0.6 0
18.3 0.6 0
18.6 0.6 0
18.9 0.6 0
19.2 0.6 0
19.5 0.6 0
19.8 0.6 0
20.1 0.6 0
20.4 0.6 0
20.7 0.6 0
21 0.6 0
21.3 0.6 0
21.6 0.6 0
21.9 0.6 0
22.2 0.6 0
22.5 0.6 0
22.8 0.6 0
23.1 0.6 0
23.4 0.6 0
23.7 0.6 0
24 0.6 0
24.3 0.6 0
24.6 0.6 0
24.9 0.6 0
25.2 0.6 0
25.5 0.6 0
25.8 0.6 0
26.1 0.6 0
26.4 0.6 0
26.7 0.6 0
27 0.6 0
27.3 0.6 0
27.6 0.6 0
27.9 0.6 0
28.2 0.6 0
28.5 0.6 0
28.8 0.6 0
29.1 0.6 0
29.4 0.6 0
29.7 0.6 0
30 0.6 0
30.3 0.6 0
30.6 0.6 0
0 0.7 0
0.3 0.7 0
0.6 0.7 0
0.9 0.7 0
1.2 0.7 0
1.5 0.7 0
1.8 0.7 0
2.1 0.7 0
2.4 0.7 0
2.7 0.7 0
3 0.7 0
3.3 0.7 0
3.6 0.7 0
3.9 0.7 0
4.2 0.7 0
4.5 0.7 0
4.8 0.7 0
5.1 0.7 0
5.4 0.7 0
5.7 0.7 0
6 0.7 0
6.3 0.7 0
6.6 0.7 0
6.9 0.7 0
7.2 0.7 0
7.5 0.7 0
7.8 0.7 0
8.1 0.7 0
8.4 0.7 0
8.7 0.7 0
9 0.7 0
9.3 0.7 0
9.6 0.7 0
9.9 0.7 0
10.2 0.7 0
10.5 0.7 0
10.8 0.7 0
11.1 0.7 0
11.4 0.7 0
11.7 0.7 0
12 0.7 0
12.3 0.7 0
12.6 0.7 0
12.9 0.7 0
13.2 0.7 0
13.5 0.7 0
13.8 0.7 0
14.1 0.7 0
14.4 0.7 0
14.7 0.7 0
15 0.7 0
15.3 0.7 0
15.6 0.7 0
15.9 0.7 0
16.2 0.7 0
16.5 0.7 0
16.8 0.7 0
17.1 0.7 0
17.4 0.7 0
17.7 0.7 0
18 0.7 0
18.3 0.7 0
18.6 0.7 0
18.9 0.7 0
19.2 0.7 0
19.5 0.7 0
19.8 0.7 0
20.1 0.7 0
20.4 0.7 0
20.7 0.7 0
21 0.7 0
21.3 0.7 0
21.6 0.7 0
21.9 0.7 0
22.2 0.7 0
22.5 0.7 0
22.8 0.7 0
23.1 0.7 0
23.4 0.7 0
23.7 0.7 0
24 0.7 0
24.3 0.7 0
24.6 0.7 0
24.9 0.7 0
25.2 0.7 0
25.5 0.7 0
25.8 0.7 0
26.1 0.7 0
26.4 0.7 0
26.7 0.7 0
27 0.7 0
27.3 0.7 0
27.6 0.7 0
27.9 0.7 0
28.2 0.7 0
28.5 0.7 0
28.8 0.7 0
29.1 0.7 0
29.4 0.7 0
29.7 0.7 0
30 0.7 0
30.3 0.7 0
30.6 0.7 0
0 0.8 0
0.3 0.8 0
0.6 0.8 0
0.9 0.8 0
1.2 0.8 0
1.5 0.8 0
1.8 0.8 0
2.1 0.8 0
2.4 0.8 0
2.7 0.8 0
3 0.8 0
3.3 0.8 0
3.6 0.8 0
3.9 0.8 0
4.2 0.8 0
4.5 0.8 0
4.8 0.8 0
5.1 0.8 0
5.4 0.8 0
5.7 0.8 0
6 0.8 0
6.3 0.8 0
6.6 0.8 0
6.9 0.8 0
7.2 0.8 0
7.5 0.8 0
7.8 0.8 0
8.1 0.8 0
8.4 0.8 0
8.7 0.8 0
9 0.8 0
9.3 0.8 0
9.6 0.8 0
9.9 0.8 0
10.2 0.8 0
10.5 0.8 0
10.8 0.8 0
11.1 0.8 0
11.4 0.8 0
11.7 0.8 0
12 0.8 0
12.3 0.8 0
12.6 0.8 0
12.9 0.8 0
13.2 0.8 0
13.5 0.8 0
13.8 0.8 0
14.1 0.8 0
14.4 0.8 0
14.7 0.8 0
15 0.8 0
15.3 0.8 0
15.6 0.8 0
15.9 0.8 0
16.2 0.8 0
16.5 0.8 0
16.8 0.8 0
17.1 0.8 0
17.4 0.8 0
17.7 0.8 0
18 0.8 0
18.3 0.8 0
18.6 0.8 0
18.9 0.8 0
19.2 0.8 0
19.5 0.8 0
19.8 0.8 0
20.1 0.8 0
20.4 0.8 0
20.7 0.8 0
21 0.8 0
21.3 0.8 0
21.6 0.8 0
21.9 0.8 0
22.2 0.8 0
22.5 0.8 0
22.8 0.8 0
23.1 0.8 0
23.4 0.8 0
23.7 0.8 0
24 0.8 0
24.3 0.8 0
24.6 0.8 0
24.9 0.8 0
25.2 0.8 0
25.5 0.8 0
25.8 0.8 0
26.1 0.8 0
26.4 0.8 0
26.7 0.8 0
27 0.8 0
27.3 0.8 0
27.6 0.8 0
27.9 0.8 0
28.2 0.8 0
28.5 0.8 0
28.8 0.8 0
29.1 0.8 0
29.4 0.8 0
29.7 0.8 0
30 0.8 0
30.3 0.8 0
30.6 0.8 0
0 0.9 0
0.3 0.9 0
0.6 0.9 0
0.9 0.9 0
1.2 0.9 0
1.5 0.9 0
1.8 0.9 0
2.1 0.9 0
2.4 0.9 0
2.7 0.9 0
3 0.9 0
3.3 0.9 0
3.6 0.9 0
3.9 0.9 0
4.2 0.9 0
4.5 0.9 0
4.8 0.9 0
5.1 0.9 0
5.4 0.9 0
5.7 0.9 0
6 0.9 0
6.3 0.9 0
6.6 0.9 0
6.9 0.9 0
7.2 0.9 0
7.5 0.9 0
7.8 0.9 0
8.1 0.9 0
8.4 0.9 0
8.7 0.9 0
9 0.9 0
9.3 0.9 0
9.6 0.9 0
9.9 0.9 0
10.2 0.9 0
10.5 0.9 0
10.8 0.9 0
11.1 0.9 0
11.4 0.9 0
11.7 0.9 0
12 0.9 0
12.3 0.9 0
12.6 0.9 0
12.9 0.9 0
13.2 0.9 0
13.5 0.9 0
13.8 0.9 0
14.1 0.9 0
14.4 0.9 0
14.7 0.9 0
15 0.9 0
15.3 0.9 0
15.6 0.9 0
15.9 0.9 0
16.2 0.9 0
16.5 0.9 0
16.8 0.9 0
17.1 0.9 0
17.4 0.9 0
17.7 0.9 0
18 0.9 0
18.3 0.9 0
18.6 0.9 0
18.9 0.9 0
19.2 0.9 0
19.5 0.9 0
19.8 0.9 0
20.1 0.9 0
20.4 0.9 0
20.7 0.9 0
21 0.9 0
21.3 0.9 0
21.6 0.9 0
21.9 0.9 0
22.2 0.9 0
22.5 0.9 0
22.8 0.9 0
23.1 0.9 0
23.4 0.9 0
23.7 0.9 0
24 0.9 0
24.3 0.9 0
24.6 0.9 0
24.9 0.9 0
25.2 0.9 0
25.5 0.9 0
25.8 0.9 0
26.1 0.9 0
26.4 0.9 0
26.7 0.9 0
27 0.9 0
27.3 0.9 0
27.6 0.9 0
27.9 0.9 0
28.2 0.9 0
28.5 0.9 0
28.8 0.9 0
29.1 0.9 0
29.4 0.9 0
29.7 0.9 0
30 0.9 0
30.3 0.9 0
30.6 0.9 0
0 1 0
0.3 1 0
0.6 1 0
0.9 1 0
1.2 1 0
1.5 1 0
1.8 1 0
2.1 1 0
2.4 1 0
2.7 1 0
3 1 0
3.3 1 0
3.6 1 0
3.9 1 0
4.2 1 0
4.5 1 0
4.8 1 0
5.1 1 0
5.4 1 0
5.7 1 0
6 1 0
6.3 1 0
6.6 1 0
6.9 1 0
7.2 1 0
7.5 1 0
7.8 1 0
8.1 1 0
8.4 1 0
8.7 1 0
9 1 0
9.3 1 0
9.6 1 0
9.9 1 0
10.2 1 0
10.5 1 0
10.8 1 0
11.1 1 0
11.4 1 0
11.7 1 0
12 1 0
12.3 1 0
12.6 1 0
12.9 1 0
13.2 1 0
13.5 1 0
13.8 1 0
14.1 1 0
14.4 1 0
14.7 1 0
15 1 0
15.3 1 0
15.6 1 0
15.9 1 0
16.2 1 0
16.5 1 0
16.8 1 0
17.1 1 0
17.4 1 0
17.7 1 0
18 1 0
18.3 1 0
18.6 1 0
18.9 1 0
19.2 1 0
19.5 1 0
19.8 1 0
20.1 1 0
20.4 1 0
20.7 1 0
21 1 0
21.3 1 0
21.6 1 0
21.9 1 0
22.2 1 0
22.5 1 0
22.8 1 0
23.1 1 0
23.4 1 0
23.7 1 0
24 1 0
24.3 1 0
24.6 1 0
24.9 1 0
25.2 1 0
25.5 1 0
25.8 1 0
26.1 1 0
26.4 1 0
26.7 1 0
27 1 0
27.3 1 0
27.6 1 0
27.9 1 0
28.2 1 0
28.5 1 0
28.8 1 0
29.1 1 0
29.4 1 0
29.7 1 0
30 1 0
30.3 1 0
30.6 1 0
0 1.1 0
0.3 1.1 0
0.6 1.1 0
0.9 1.1 0
1.2 1.1 0
1.5 1.1 0
1.8 1.1 0
2.1 1.1 0
2.4 1.1 0
2.7 1.1 0
3 1.1 0
3.3 1.1 0
3.6 1.1 0
3.9 1.1 0
4.2 1.1 0
4.5 1.1 0
4.8 1.1 0
5.1 1.1 0
5.4 1.1 0
5.7 1.1 0
6 1.1 0
6.3 1.1 0
6.6 1.1 0
6.9 1.1 0
7.2 1.1 0
7.5 1.1 0
7.8 1.1 0
8.1 1.1 0
8.4 1.1 0
8.7 1.1 0
9 1.1 0
9.3 1.1 0
9.6 1.1 0
9.9 1.1 0
10.2 1.1 0
10.5 1.1 0
10.8 1.1 0
11.1 1.1 0
11.4 1.1 0
11.7 1.1 0
12 1.1 0
12.3 1.1 0
12.6 1.1 0
12.9 1.1 0
13.2 1.1 0
13.5 1.1 0
13.8 1.1 0
14.1 1.1 0
14.4 1.1 0
14.7 1.1 0
15 1.1 0
15.3 1.1 0
15.6 1.1 0
15.9 1.1 0
16.2 1.1 0
16.5 1.1 0
16.8 1.1 0
17.1 1.1 0
17.4 1.1 0
17.7 1.1 0
18 1.1 0
18.3 1.1 0
18.6 1.1 0
18.9 1.1 0
19.2 1.1 0
19.5 1.1 0
19.8 1.1 0
20.1 1.1 0
20.4 1.1 0
20.7 1.1 0
21 1.1 0
21.3 1.1 0
21.6 1.1 0
21.9 1.1 0
22.2 1.1 0
22.5 1.1 0
22.8 1.1 0
23.1 1.1 0
23.4 1.1 0
23.7 1.1 0
24 1.1 0
24.3 1.1 0
24.6 1.1 0
24.9 1.1 0
25.2 1.1 0
25.5 1.1 0
25.8 1.1 0
26.1 1.1 0
26.4 1.1 0
26.7 1.1 0
27 1.1 0
27.3 1.1 0
27.6 1.1 0
27.9 1.1 0
28.2 1.1 0
28.5 1.1 0
28.8 1.1 0
29.1 1.1 0
29.4 1.1 0
29.7 1.1 0
30 1.1 0
30.3 1.1 0
30.6 1.1 0
0 1.2 0
0.3 1.2 0
0.6 1.2 0
0.9 1.2 0
1.2 1.2 0
1.5 1.2 0
1.8 1.2 0
2.1 1.2 0
2.4 1.2 0
2.7 1.2 0
3 1.2 0
3.3 1.2 0
3.6 1.2 0
3.9 1.2 0
4.2 1.2 0
4.5 1.2 0
4.8 1.2 0
5.1 1.2 0
5.4 1.2 0
5.7 1.2 0
6 1.2 0
6.3 1.2 0
6.6 1.2 0
6.9 1.2 0
7.2 1.2 0
7.5 1.2 0
7.8 1.2 0
8.1 1.2 0
8.4 1.2 0
8.7 1.2 0
9 1.2 0
9.3 1.2 0
9.6 1.2 0
9.9 1.2 0
10.2 1.2 0
10.5 1.2 0
10.8 1.2 0
11.1 1.2 0
11.4 1.2 0
11.7 1.2 0
12 1.2 0
12.3 1.2 0
12.6 1.2 0
12.9 1.2 0
13.2 1.2 0
13.5 1.2 0
13.8 1.2 0
14.1 1.2 0
14.4 1.2 0
14.7 1.2 0
15 1.2 0
15.3 1.2 0
15.6 1.2 0
15.9 1.2 0
16.2 1.2 0
16.5 1.2 0
16.8 1.2 0
17.1 1.2 0
17.4 1.2 0
17.7 1.2 0
18 1.2 0
18.3 1.2 0
18.6 1.2 0
18.9 1.2 0
19.2 1.2 0
19.5 1.2 0
19.8 1.2 0
20.1 1.2 0
20.4 1.2 0
20.7 1.2 0
21 1.2 0
21.3 1.2 0
21.6 1.2 0
21.9 1.2 0
22.2 1.2 0
22.5 1.2 0
22.8 1.2 0
23.1 1.2 0
23.4 1.2 0
23.7 1.2 0
24 1.2 0
24.3 1.2 0
24.6 1.2 0
24.9 1.2 0
25.2 1.2 0
25.5 1.2 0
25.8 1.2 0
26.1 1.2 0
26.4 1.2 0
26.7 1.2 0
27 1.2 0
27.3 1.2 0
27.6 1.2 0
27.9 1.2 0
28.2 1.2 0
28.5 1.2 0
28.8 1.2 0
29.1 1.2 0
29.4 1.2 0
29.7 1.2 0
30 1.2 0
30.3 1.2 0
30.6 1.2 0

POINT_DATA 1339

SCALARS pressure double
LOOKUP_TABLE pressure
1.19419
1.19419
1.12934
1.08511
1.04528
1.00871
0.975656
0.946128
0.919772
0.896063
0.874461
0.854498
0.835805
0.818106
0.801199
0.784939
0.76922
0.753964
0.739113
0.724627
0.710475
0.696638
0.683106
0.669874
0.65694
0.644301
0.63195
0.619873
0.608049
0.596453
0.585053
0.573817
0.562714
0.551714
0.540793
0.529928
0.519104
0.508309
0.497532
0.486769
0.476013
0.465263
0.454516
0.443772
0.433028
0.422286
0.411544
0.400802
0.390061
0.37932
0.368578
0.357837
0.347096
0.336355
0.325613
0.314872
0.304131
0.29339
0.282649
0.271908
0.261166
0.250425
0.239684
0.228943
0.218202
0.207461
0.196719
0.185978
0.175237
0.164496
0.153755
0.143014
0.132272
0.121531
0.11079
0.100049
0.0893077
0.0785665
0.0678254
0.0570842
0.0463431
0.0356019
0.0248608
0.0141196
0.00337846
-0.0073627
-0.0181038
-0.028845
-0.0395861
-0.0503273
-0.0610684
-0.0718096
-0.0825507
-0.0932919
-0.104033
-0.114774
-0.125515
-0.136256
-0.146997
-0.157738
-0.168481
-0.179198
0.179198
1.19419
1.19419
1.12934
1.08511
1.04528
1.00871
0.975656
0.946128
0.919772
0.896063
0.874461
0.854498
0.835805
0.818106
0.801199
0.784939
0.76922
0.753964
0.739113
0.724627
0.710475
0.696638
0.683106
0.669874
0.65694
0.644301
0.63195
0.619873
0.608049
0.596453
0.585053
0.573817
0.562714
0.551714
0.540793
0.529928
0.519104
0.508309
0.497532
0.486769
0.476013
0.465263
0.454516
0.443772
0.433028
0.422286
0.411544
0.400802
0.390061
0.37932
0.368578
0.357837
0.347096
0.336355
0.325613
0.314872
0.304131
0.29339
0.282649
0.271908
0.261166
0.250425
0.239684
0.228943
0.218202
0.207461
0.196719
0.185978
0.175237
0.164496
0.153755
0.143014
0.132272
0.121531
0.11079
0.100049
0.0893077
0.0785665
0.0678254
0.0570842
0.0463431
0.0356019
0.0248608
0.0141196
0.00337846
-0.0073627
-0.0181038
-0.028845
-0.0395861
-0.0503273
-0.0610684
-0.0718096
-0.0825507
-0.0932919
-0.104033
-0.114774
-0.125515
-0.136256
-0.146997
-0.157738
-0.168481
-0.179198
0.179198
1.17324
1.17324
1.12735
1.08534
1.04599
1.0095
0.976399
0.946759
0.92028
0.896458
0.874764
0.854731
0.835987
0.81825
0.801316
0.785036
0.769302
0.754035
0.739175
0.724681
0.710522
0.696679
0.68314
0.669902
0.656962
0.644317
0.631961
0.619879
0.608052
0.596454
0.585052
0.573816
0.562713
0.551713
0.540791
0.529927
0.519103
0.508308
0.497532
0.486768
0.476013
0.465263
0.454516
0.443772
0.433028
0.422286
0.411544
0.400802
0.390061
0.37932
0.368578
0.357837
0.347096
0.336355
0.325613
0.314872
0.304131
0.29339
0.282649
0.271908
0.261166
0.250425
0.239684
0.228943
0.218202
0.207461
0.196719
0.185978
0.175237
0.164496
0.153755
0.143014
0.132272
0.121531
0.11079
0.100049
0.0893077
0.0785665
0.0678254
0.0570842
0.0463431
0.0356019
0.0248608
0.0141196
0.00337845
-0.0073627
-0.0181038
-0.028845
-0.0395861
-0.0503273
-0.0610684
-0.0718096
-0.0825507
-0.0932919
-0.104033
-0.114774
-0.125515
-0.136256
-0.146997
-0.157738
-0.168482
-0.179196
0.179196
1.15827
1.15827
1.12447
1.08557
1.0471
1.01083
0.97766
0.947838
0.921141
0.897117
0.875257
0.855096
0.836258
0.818455
0.801474
0.785161
0.769403
0.754119
0.739246
0.724742
0.710574
0.696724
0.683179
0.669935
0.656989
0.644339
0.631978
0.619892
0.608062
0.59646
0.585056
0.573818
0.562714
0.551713
0.540791
0.529927
0.519103
0.508308
0.497532
0.486768
0.476013
0.465263
0.454516
0.443772
0.433028
0.422286
0.411544
0.400802
0.390061
0.379319
0.368578
0.357837
0.347096
0.336355
0.325613
0.314872
0.304131
0.29339
0.282649
0.271908
0.261166
0.250425
0.239684
0.228943
0.218202
0.207461
0.196719
0.185978
0.175237
0.164496
0.153755
0.143014
0.132272
0.121531
0.11079
0.100049
0.0893077
0.0785665
0.0678254
0.0570842
0.0463431
0.0356019
0.0248608
0.0141196
0.00337845
-0.0073627
-0.0181038
-0.028845
-0.0395861
-0.0503273
-0.0610684
-0.0718096
-0.0825507
-0.0932919
-0.104033
-0.114774
-0.125515
-0.136256
-0.146996
-0.157736
-0.168474
-0.179191
0.179191
1.14869
1.14869
1.12199
1.08567
1.04805
1.01202
0.978837
0.948874
0.921994
0.89779
0.875774
0.855491
0.836561
0.81869
0.80166
0.785311
0.769526
0.754222
0.739335
0.724819
0.710643
0.696785
0.683235
0.669985
0.657035
0.64438
0.632014
0.619923
0.608087
0.596481
0.585073
0.57383
0.562723
0.551719
0.540795
0.52993
0.519105
0.508309
0.497532
0.486768
0.476013
0.465263
0.454516
0.443772
0.433028
0.422286
0.411544
0.400802
0.390061
0.37932
0.368578
0.357837
0.347096
0.336355
0.325613
0.314872
0.304131
0.29339
0.282649
0.271908
0.261166
0.250425
0.239684
0.228943
0.218202
0.207461
0.196719
0.185978
0.175237
0.164496
0.153755
0.143014
0.132272
0.121531
0.11079
0.100049
0.0893077
0.0785665
0.0678254
0.0570842
0.0463431
0.0356019
0.0248608
0.0141196
0.00337846
-0.0073627
-0.0181038
-0.028845
-0.0395861
-0.0503273
-0.0610684
-0.0718096
-0.0825507
-0.0932919
-0.104033
-0.114774
-0.125515
-0.136256
-0.146995
-0.157732
-0.168456
-0.179183
0.179183
1.14338
1.14338
1.12036
1.08569
1.04864
1.01279
0.979606
0.949564
0.922572
0.898254
0.876139
0.855775
0.836783
0.818866
0.801802
0.785428
0.769626
0.754307
0.739409
0.724885
0.710702
0.69684
0.683286
0.670033
0.65708
0.644422
0.632052
0.619957
0.608116
0.596505
0.585092
0.573846
0.562734
0.551728
0.540802
0.529934
0.519108
0.508311
0.497534
0.486769
0.476014
0.465263
0.454516
0.443772
0.433028
0.422286
0.411544
0.400802
0.390061
0.37932
0.368578
0.357837
0.347096
0.336355
0.325613
0.314872
0.304131
0.29339
0.282649
0.271908
0.261166
0.250425
0.239684
0.228943
0.218202
0.207461
0.196719
0.185978
0.175237
0.164496
0.153755
0.143014
0.132272
0.121531
0.11079
0.100049
0.0893077
0.0785665
0.0678254
0.0570842
0.0463431
0.0356019
0.0248608
0.0141196
0.00337846
-0.0073627
-0.0181038
-0.028845
-0.0395861
-0.0503273
-0.0610684
-0.0718096
-0.0825507
-0.0932919
-0.104033
-0.114774
-0.125515
-0.136256
-0.146994
-0.157728
-0.168438
-0.179175
0.179175
1.14168
1.14168
1.11981
1.0857
1.04886
1.01306
0.97988
0.949809
0.922778
0.898421
0.876271
0.85588
0.836866
0.818933
0.801857
0.785474
0.769664
0.754341
0.739438
0.724911
0.710727
0.696863
0.683307
0.670053
0.657099
0.64444
0.632068
0.619971
0.608129
0.596516
0.585101
0.573853
0.56274
0.551732
0.540805
0.529936
0.519109
0.508312
0.497534
0.48677
0.476014
0.465263
0.454517
0.443772
0.433028
0.422286
0.411544
0.400802
0.390061
0.37932
0.368578
0.357837
0.347096
0.336355
0.325613
0.314872
0.304131
0.29339
0.282649
0.271908
0.261166
0.250425
0.239684
0.228943
0.218202
0.207461
0.196719
0.185978
0.175237
0.164496
0.153755
0.143014
0.132272
0.121531
0.11079
0.100049
0.0893077
0.0785665
0.0678254
0.0570842
0.0463431
0.0356019
0.0248608
0.0141196
0.00337846
-0.0073627
-0.0181038
-0.028845
-0.0395861
-0.0503273
-0.0610684
-0.0718096
-0.0825507
-0.0932919
-0.104033
-0.114774
-0.125515
-0.136256
-0.146994
-0.157727
-0.168431
-0.179172
0.179172
1.14338
1.14338
1.12036
1.08569
1.04864
1.01279
0.979606
0.949564
0.922572
0.898254
0.876139
0.855775
0.836783
0.818866
0.801802
0.785428
0.769626
0.754307
0.739409
0.724885
0.710702
0.69684
0.683286
0.670033
0.65708
0.644422
0.632052
0.619957
0.608116
0.596505
0.585092
0.573846
0.562734
0.551728
0.540802
0.529934
0.519108
0.508311
0.497534
0.486769
0.476014
0.465263
0.454516
0.443772
0.433028
0.422286
0.411544
0.400802
0.390061
0.37932
0.368578
0.357837
0.347096
0.336355
0.325613
0.314872
0.304131
0.29339
0.282649
0.271908
0.261166
0.250425
0.239684
0.228943
0.218202
0.207461
0.196719
0.185978
0.175237
0.164496
0.153755
0.143014
0.132272
0.121531
0.11079
0.100049
0.0893077
0.0785665
0.0678254
0.0570842
0.0463431
0.0356019
0.0248608
0.0141196
0.00337846
-0.0073627
-0.0181038
-0.028845
-0.0395861
-0.0503273
-0.0610684
-0.0718096
-0.0825507
-0.0932919
-0.104033
-0.114774
-0.125515
-0.136256
-0.146994
-0.157728
-0.168438
-0.179175
0.179175
1.14869
1.14869
1.12199
1.08567
1.04805
1.01202
0.978837
0.948874
0.921994
0.89779
0.875774
0.855491
0.836561
0.81869
0.80166
0.785311
0.769526
0.754222
0.739335
0.724819
0.710643
0.696785
0.683235
0.669985
0.657035
0.64438
0.632014
0.619923
0.608087
0.596481
0.585073
0.57383
0.562723
0.551719
0.540795
0.52993
0.519105
0.508309
0.497532
0.486768
0.476013
0.465263
0.454516
0.443772
0.433028
0.422286
0.411544
0.400802
0.390061
0.37932
0.368578
0.357837
0.347096
0.336355
0.325613
0.314872
0.304131
0.29339
0.282649
0.271908
0.261166
0.250425
0.239684
0.228943
0.218202
0.207461
0.196719
0.185978
0.175237
0.164496
0.153755
0.143014
0.132272
0.121531
0.11079
0.100049
0.0893077
0.0785665
0.0678254
0.0570842
0.0463431
0.0356019
0.0248608
0.0141196
0.00337846
-0.00736269
-0.0181038
-0.028845
-0.0395861
-0.0503273
-0.0610684
-0.0718096
-0.0825507
-0.0932919
-0.104033
-0.114774
-0.125515
-0.136256
-0.146995
-0.157732
-0.168456
-0.179183
0.179183
1.15827
1.15827
1.12447
1.08557
1.0471
1.01083
0.97766
0.947838
0.921141
0.897117
0.875257
0.855096
0.836258
0.818455
0.801474
0.785161
0.769403
0.754119
0.739246
0.724742
0.710574
0.696724
0.683179
0.669935
0.656989
0.644339
0.631978
0.619892
0.608062
0.59646
0.585056
0.573818
0.562714
0.551713
0.540791
0.529927
0.519103
0.508308
0.497532
0.486768
0.476013
0.465263
0.454516
0.443772
0.433028
0.422286
0.411544
0.400802
0.390061
0.379319
0.368578
0.357837
0.347096
0.336355
0.325613
0.314872
0.304131
0.29339
0.282649
0.271908
0.261166
0.250425
0.239684
0.228943
0.218202
0.207461
0.196719
0.185978
0.175237
0.164496
0.153755
0.143014
0.132272
0.121531
0.11079
0.100049
0.0893077
0.0785665
0.0678254
0.0570842
0.0463431
0.0356019
0.0248608
0.0141196
0.00337846
-0.00736269
-0.0181038
-0.028845
-0.0395861
-0.0503273
-0.0610684
-0.0718096
-0.0825507
-0.0932919
-0.104033
-0.114774
-0.125515
-0.136256
-0.146996
-0.157736
-0.168474
-0.179191
0.179191
1.17324
1.17324
1.12735
1.08534
1.04599
1.0095
0.976399
0.946759
0.92028
0.896458
0.874764
0.854731
0.835987
0.81825
0.801316
0.785036
0.769302
0.754035
0.739175
0.724681
0.710522
0.696679
0.68314
0.669902
0.656962
0.644317
0.631961
0.619879
0.608052
0.596454
0.585052
0.573816
0.562713
0.551713
0.540791
0.529927
0.519103
0.508308
0.497532
0.486768
0.476013
0.465263
0.454516
0.443772
0.433028
0.422286
0.411544
0.400802
0.390061
0.37932
0.368578
0.357837
0.347096
0.336355
0.325613
0.314872
0.304131
0.29339
0.282649
0.271908
0.261166
0.250425
0.239684
0.228943
0.218202
0.207461
0.196719
0.185978
0.175237
0.164496
0.153755
0.143014
0.132272
0.121531
0.11079
0.100049
0.0893077
0.0785665
0.0678254
0.0570842
0.0463431
0.0356019
0.0248608
0.0141196
0.00337846
-0.00736269
-0.0181038
-0.028845
-0.0395861
-0.0503273
-0.0610684
-0.0718096
-0.0825507
-0.0932919
-0.104033
-0.114774
-0.125515
-0.136256
-0.146997
-0.157738
-0.168482
-0.179196
0.179196
1.19419
1.19419
1.12934
1.08511
1.04528
1.00871
0.975656
0.946128
0.919772
0.896063
0.874461
0.854498
0.835805
0.818106
0.801199
0.784939
0.76922
0.753964
0.739113
0.724627
0.710475
0.696638
0.683106
0.669874
0.65694
0.644301
0.63195
0.619873
0.608049
0.596453
0.585053
0.573817
0.562714
0.551714
0.540793
0.529928
0.519104
0.508309
0.497532
0.486769
0.476013
0.465263
0.454516
0.443772
0.433028
0.422286
0.411544
0.400802
0.390061
0.37932
0.368578
0.357837
0.347096
0.336355
0.325613
0.314872
0.304131
0.29339
0.282649
0.271908
0.261166
0.250425
0.239684
0.228943
0.218202
0.207461
0.196719
0.185978
0.175237
0.164496
0.153755
0.143014
0.132272
0.121531
0.11079
0.100049
0.0893077
0.0785665
0.0678254
0.0570842
0.0463431
0.0356019
0.0248608
0.0141196
0.00337846
-0.00736269
-0.0181038
-0.028845
-0.0395861
-0.0503273
-0.0610684
-0.0718096
-0.0825507
-0.0932919
-0.104033
-0.114774
-0.125515
-0.136256
-0.146997
-0.157738
-0.168481
-0.179198
0.179198
1.19419
1.19419
1.12934
1.08511
1.04528
1.00871
0.975656
0.946128
0.919772
0.896063
0.874461
0.854498
0.835805
0.818106
0.801199
0.784939
0.76922
0.753964
0.739113
0.724627
0.710475
0.696638
0.683106
0.669874
0.65694
0.644301
0.63195
0.619873
0.608049
0.596453
0.585053
0.573817
0.562714
0.551714
0.540793
0.529928
0.519104
0.508309
0.497532
0.486769
0.476013
0.465263
0.454516
0.443772
0.433028
0.422286
0.411544
0.400802
0.390061
0.37932
0.368578
0.357837
0.347096
0.336355
0.325613
0.314872
0.304131
0.29339
0.282649
0.271908
0.261166
0.250425
0.239684
0.228943
0.218202
0.207461
0.196719
0.185978
0.175237
0.164496
0.153755
0.143014
0.132272
0.121531
0.11079
0.100049
0.0893077
0.0785665
0.0678254
0.0570842
0.0463431
0.0356019
0.0248608
0.0141196
0.00337846
-0.00736269
-0.0181038
-0.028845
-0.0395861
-0.0503273
-0.0610684
-0.0718096
-0.0825507
-0.0932919
-0.104033
-0.114774
-0.125515
-0.136256
-0.146997
-0.157738
-0.168481
-0.179198
0.179198
SCALARS phi double
LOOKUP_TABLE phi
1
1
1
1
0.999997
0.999989
1.00001
0.999937
0.999752
0.999997
1.00088
1.00025
0.993304
0.974993
0.94277
0.897511
0.842438
0.781423
0.717791
0.653908
0.591274
0.530793
0.473
0.41822
0.366661
0.31847
0.273764
0.232649
0.195221
0.161558
0.131705
0.105647
0.083303
0.064508
0.0490204
0.0365313
0.0266835
0.0190954
0.0133839
0.00918558
0.00617221
0.00406028
0.00261487
0.0016487
0.00101783
0.000615322
0.000364331
0.000211317
0.00012009
6.68815e-05
3.65119e-05
1.95431e-05
1.02587e-05
5.28241e-06
2.66888e-06
1.32339e-06
6.44192e-07
3.07909e-07
1.44549e-07
6.6665e-08
3.02117e-08
1.34571e-08
5.89281e-09
2.53741e-09
1.07461e-09
4.47713e-10
1.83539e-10
7.40505e-11
2.94095e-11
1.14999e-11
4.42824e-12
1.67951e-12
6.27525e-13
2.31022e-13
8.3816e-14
2.99728e-14
1.05665e-14
3.67287e-15
1.25899e-15
4.25652e-16
1.41959e-16
4.6711e-17
1.51664e-17
4.85981e-18
1.53705e-18
4.799e-19
1.47933e-19
4.50284e-20
1.35355e-20
4.01864e-21
1.17858e-21
3.41479e-22
9.77567e-23
2.76538e-23
7.73109e-24
2.13624e-24
5.83491e-25
1.57556e-25
4.20648e-26
1.11045e-26
2.90277e-27
7.09494e-28
7.09494e-28
1
1
1
1
0.999997
0.999989
1.00001
0.999937
0.999752
0.999997
1.00088
1.00025
0.993304
0.974993
0.94277
0.897511
0.842438
0.781423
0.717791
0.653908
0.591274
0.530793
0.473
0.41822
0.366661
0.31847
0.273764
0.232649
0.195221
0.161558
0.131705
0.105647
0.083303
0.064508
0.0490204
0.0365313
0.0266835
0.0190954
0.0133839
0.00918558
0.00617221
0.00406028
0.00261487
0.0016487
0.00101783
0.000615322
0.000364331
0.000211317
0.00012009
6.68815e-05
3.65119e-05
1.95431e-05
1.02587e-05
5.28241e-06
2.66888e-06
1.32339e-06
6.44192e-07
3.07909e-07
1.44549e-07
6.6665e-08
3.02117e-08
1.34571e-08
5.89281e-09
2.53741e-09
1.07461e-09
4.47713e-10
1.83539e-10
7.40505e-11
2.94095e-11
1.14999e-11
4.42824e-12
1.67951e-12
6.27525e-13
2.31022e-13
8.3816e-14
2.99728e-14
1.05665e-14
3.67287e-15
1.25899e-15
4.25652e-16
1.41959e-16
4.6711e-17
1.51664e-17
4.85981e-18
1.53705e-18
4.799e-19
1.47933e-19
4.50284e-20
1.35355e-20
4.01864e-21
1.17858e-21
3.41479e-22
9.77567e-23
2.76538e-23
7.73109e-24
2.13624e-24
5.83491e-25
1.57556e-25
4.20648e-26
1.11045e-26
2.90277e-27
7.09494e-28
7.09494e-28
1
1
0.999999
0.999996
0.999983
0.999951
0.999902
0.999811
0.999626
0.999409
0.999325
0.999225
0.998156
0.994355
0.985795
0.970886
0.948896
0.919975
0.884929
0.84492
0.801213
0.755001
0.707289
0.658839
0.610152
0.561511
0.51304
0.464808
0.416923
0.369613
0.323267
0.278436
0.235785
0.196014
0.159764
0.127535
0.0996265
0.0761081
0.0568326
0.0414706
0.0295654
0.020592
0.0140119
0.00931588
0.00605267
0.00384375
0.00238645
0.00144896
0.000860575
0.00050013
0.000284493
0.00015845
8.64338e-05
4.61937e-05
2.41951e-05
1.24237e-05
6.25591e-06
3.09013e-06
1.49775e-06
7.12528e-07
3.32806e-07
1.52661e-07
6.87905e-08
3.04585e-08
1.3255e-08
5.67089e-09
2.38577e-09
9.87228e-10
4.01898e-10
1.60998e-10
6.34792e-11
2.46398e-11
9.41737e-12
3.54484e-12
1.31438e-12
4.80166e-13
1.72856e-13
6.1331e-14
2.14514e-14
7.39751e-15
2.51561e-15
8.43723e-16
2.79142e-16
9.1114e-17
2.93459e-17
9.32775e-18
2.92641e-18
9.06325e-19
2.7713e-19
8.3674e-20
2.49497e-20
7.34785e-21
2.13763e-21
6.14375e-22
1.74468e-22
4.8959e-23
1.35779e-23
3.72188e-24
1.00853e-24
2.70158e-25
7.16621e-26
1.77178e-26
1.77178e-26
0.999997
1
0.99998
0.999896
0.999724
0.999433
0.998999
0.9984
0.997611
0.996623
0.995465
0.994168
0.992658
0.990655
0.98766
0.983033
0.976117
0.966362
0.953396
0.937054
0.917374
0.894559
0.868923
0.84081
0.810508
0.778156
0.743685
0.70681
0.667095
0.624083
0.577473
0.527297
0.47404
0.418677
0.362593
0.307426
0.25485
0.206358
0.163097
0.125762
0.0945843
0.069375
0.0496262
0.0346256
0.0235694
0.0156558
0.0101511
0.00642697
0.00397475
0.00240206
0.00141904
0.000819794
0.000463322
0.000256267
0.00013877
7.35959e-05
3.82402e-05
1.94738e-05
9.72277e-06
4.76087e-06
2.28708e-06
1.07822e-06
4.99004e-07
2.26775e-07
1.0123e-07