# vtk DataFile Version 3.0
FlowField
ASCII
DATASET STRUCTURED_GRID
DIMENSIONS 103 13 1 
POINTS 1339 double
0 0 0
0.3 0 0
0.6 0 0
0.9 0 0
1.2 0 0
1.5 0 0
1.8 0 0
2.1 0 0
2.4 0 0
2.7 0 0
3 0 0
3.3 0 0
3.6 0 0
3.9 0 0
4.2 0 0
4.5 0 0
4.8 0 0
5.1 0 0
5.4 0 0
5.7 0 0
6 0 0
6.3 0 0
6.6 0 0
6.9 0 0
7.2 0 0
7.5 0 0
7.8 0 0
8.1 0 0
8.4 0 0
8.7 0 0
9 0 0
9.3 0 0
9.6 0 0
9.9 0 0
10.2 0 0
10.5 0 0
10.8 0 0
11.1 0 0
11.4 0 0
11.7 0 0
12 0 0
12.3 0 0
12.6 0 0
12.9 0 0
13.2 0 0
13.5 0 0
13.8 0 0
14.1 0 0
14.4 0 0
14.7 0 0
15 0 0
15.3 0 0
15.6 0 0
15.9 0 0
16.2 0 0
16.5 0 0
16.8 0 0
17.1 0 0
17.4 0 0
17.7 0 0
18 0 0
18.3 0 0
18.6 0 0
18.9 0 0
19.2 0 0
19.5 0 0
19.8 0 0
20.1 0 0
20.4 0 0
20.7 0 0
21 0 0
21.3 0 0
21.6 0 0
21.9 0 0
22.2 0 0
22.5 0 0
22.8 0 0
23.1 0 0
23.4 0 0
23.7 0 0
24 0 0
24.3 0 0
24.6 0 0
24.9 0 0
25.2 0 0
25.5 0 0
25.8 0 0
26.1 0 0
26.4 0 0
26.7 0 0
27 0 0
27.3 0 0
27.6 0 0
27.9 0 0
28.2 0 0
28.5 0 0
28.8 0 0
29.1 0 0
29.4 0 0
29.7 0 0
30 0 0
30.3 0 0
30.6 0 0
0 0.1 0
0.3 0.1 0
0.6 0.1 0
0.9 0.1 0
1.2 0.1 0
1.5 0.1 0
1.8 0.1 0
2.1 0.1 0
2.4 0.1 0
2.7 0.1 0
3 0.1 0
3.3 0.1 0
3.6 0.1 0
3.9 0.1 0
4.2 0.1 0
4.5 0.1 0
4.8 0.1 0
5.1 0.1 0
5.4 0.1 0
5.7 0.1 0
6 0.1 0
6.3 0.1 0
6.6 0.1 0
6.9 0.1 0
7.2 0.1 0
7.5 0.1 0
7.8 0.1 0
8.1 0.1 0
8.4 0.1 0
8.7 0.1 0
9 0.1 0
9.3 0.1 0
9.6 0.1 0
9.9 0.1 0
10.2 0.1 0
10.5 0.1 0
10.8 0.1 0
11.1 0.1 0
11.4 0.1 0
11.7 0.1 0
12 0.1 0
12.3 0.1 0
12.6 0.1 0
12.9 0.1 0
13.2 0.1 0
13.5 0.1 0
13.8 0.1 0
14.1 0.1 0
14.4 0.1 0
14.7 0.1 0
15 0.1 0
15.3 0.1 0
15.6 0.1 0
15.9 0.1 0
16.2 0.1 0
16.5 0.1 0
16.8 0.1 0
17.1 0.1 0
17.4 0.1 0
17.7 0.1 0
18 0.1 0
18.3 0.1 0
18.6 0.1 0
18.9 0.1 0
19.2 0.1 0
19.5 0.1 0
19.8 0.1 0
20.1 0.1 0
20.4 0.1 0
20.7 0.1 0
21 0.1 0
21.3 0.1 0
21.6 0.1 0
21.9 0.1 0
22.2 0.1 0
22.5 0.1 0
22.8 0.1 0
23.1 0.1 0
23.4 0.1 0
23.7 0.1 0
24 0.1 0
24.3 0.1 0
24.6 0.1 0
24.9 0.1 0
25.2 0.1 0
25.5 0.1 0
25.8 0.1 0
26.1 0.1 0
26.4 0.1 0
26.7 0.1 0
27 0.1 0
27.3 0.1 0
27.6 0.1 0
27.9 0.1 0
28.2 0.1 0
28.5 0.1 0
28.8 0.1 0
29.1 0.1 0
29.4 0.1 0
29.7 0.1 0
30 0.1 0
30.3 0.1 0
30.6 0.1 0
0 0.2 0
0.3 0.2 0
0.6 0.2 0
0.9 0.2 0
1.2 0.2 0
1.5 0.2 0
1.8 0.2 0
2.1 0.2 0
2.4 0.2 0
2.7 0.2 0
3 0.2 0
3.3 0.2 0
3.6 0.2 0
3.9 0.2 0
4.2 0.2 0
4.5 0.2 0
4.8 0.2 0
5.1 0.2 0
5.4 0.2 0
5.7 0.2 0
6 0.2 0
6.3 0.2 0
6.6 0.2 0
6.9 0.2 0
7.2 0.2 0
7.5 0.2 0
7.8 0.2 0
8.1 0.2 0
8.4 0.2 0
8.7 0.2 0
9 0.2 0
9.3 0.2 0
9.6 0.2 0
9.9 0.2 0
10.2 0.2 0
10.5 0.2 0
10.8 0.2 0
11.1 0.2 0
11.4 0.2 0
11.7 0.2 0
12 0.2 0
12.3 0.2 0
12.6 0.2 0
12.9 0.2 0
13.2 0.2 0
13.5 0.2 0
13.8 0.2 0
14.1 0.2 0
14.4 0.2 0
14.7 0.2 0
15 0.2 0
15.3 0.2 0
15.6 0.2 0
15.9 0.2 0
16.2 0.2 0
16.5 0.2 0
16.8 0.2 0
17.1 0.2 0
17.4 0.2 0
17.7 0.2 0
18 0.2 0
18.3 0.2 0
18.6 0.2 0
18.9 0.2 0
19.2 0.2 0
19.5 0.2 0
19.8 0.2 0
20.1 0.2 0
20.4 0.2 0
20.7 0.2 0
21 0.2 0
21.3 0.2 0
21.6 0.2 0
21.9 0.2 0
22.2 0.2 0
22.5 0.2 0
22.8 0.2 0
23.1 0.2 0
23.4 0.2 0
23.7 0.2 0
24 0.2 0
24.3 0.2 0
24.6 0.2 0
24.9 0.2 0
25.2 0.2 0
25.5 0.2 0
25.8 0.2 0
26.1 0.2 0
26.4 0.2 0
26.7 0.2 0
27 0.2 0
27.3 0.2 0
27.6 0.2 0
27.9 0.2 0
28.2 0.2 0
28.5 0.2 0
28.8 0.2 0
29.1 0.2 0
29.4 0.2 0
29.7 0.2 0
30 0.2 0
30.3 0.2 0
30.6 0.2 0
0 0.3 0
0.3 0.3 0
0.6 0.3 0
0.9 0.3 0
1.2 0.3 0
1.5 0.3 0
1.8 0.3 0
2.1 0.3 0
2.4 0.3 0
2.7 0.3 0
3 0.3 0
3.3 0.3 0
3.6 0.3 0
3.9 0.3 0
4.2 0.3 0
4.5 0.3 0
4.8 0.3 0
5.1 0.3 0
5.4 0.3 0
5.7 0.3 0
6 0.3 0
6.3 0.3 0
6.6 0.3 0
6.9 0.3 0
7.2 0.3 0
7.5 0.3 0
7.8 0.3 0
8.1 0.3 0
8.4 0.3 0
8.7 0.3 0
9 0.3 0
9.3 0.3 0
9.6 0.3 0
9.9 0.3 0
10.2 0.3 0
10.5 0.3 0
10.8 0.3 0
11.1 0.3 0
11.4 0.3 0
11.7 0.3 0
12 0.3 0
12.3 0.3 0
12.6 0.3 0
12.9 0.3 0
13.2 0.3 0
13.5 0.3 0
13.8 0.3 0
14.1 0.3 0
14.4 0.3 0
14.7 0.3 0
15 0.3 0
15.3 0.3 0
15.6 0.3 0
15.9 0.3 0
16.2 0.3 0
16.5 0.3 0
16.8 0.3 0
17.1 0.3 0
17.4 0.3 0
17.7 0.3 0
18 0.3 0
18.3 0.3 0
18.6 0.3 0
18.9 0.3 0
19.2 0.3 0
19.5 0.3 0
19.8 0.3 0
20.1 0.3 0
20.4 0.3 0
20.7 0.3 0
21 0.3 0
21.3 0.3 0
21.6 0.3 0
21.9 0.3 0
22.2 0.3 0
22.5 0.3 0
22.8 0.3 0
23.1 0.3 0
23.4 0.3 0
23.7 0.3 0
24 0.3 0
24.3 0.3 0
24.6 0.3 0
24.9 0.3 0
25.2 0.3 0
25.5 0.3 0
25.8 0.3 0
26.1 0.3 0
26.4 0.3 0
26.7 0.3 0
27 0.3 0
27.3 0.3 0
27.6 0.3 0
27.9 0.3 0
28.2 0.3 0
28.5 0.3 0
28.8 0.3 0
29.1 0.3 0
29.4 0.3 0
29.7 0.3 0
30 0.3 0
30.3 0.3 0
30.6 0.3 0
0 0.4 0
0.3 0.4 0
0.6 0.4 0
0.9 0.4 0
1.2 0.4 0
1.5 0.4 0
1.8 0.4 0
2.1 0.4 0
2.4 0.4 0
2.7 0.4 0
3 0.4 0
3.3 0.4 0
3.6 0.4 0
3.9 0.4 0
4.2 0.4 0
4.5 0.4 0
4.8 0.4 0
5.1 0.4 0
5.4 0.4 0
5.7 0.4 0
6 0.4 0
6.3 0.4 0
6.6 0.4 0
6.9 0.4 0
7.2 0.4 0
7.5 0.4 0
7.8 0.4 0
8.1 0.4 0
8.4 0.4 0
8.7 0.4 0
9 0.4 0
9.3 0.4 0
9.6 0.4 0
9.9 0.4 0
10.2 0.4 0
10.5 0.4 0
10.8 0.4 0
11.1 0.4 0
11.4 0.4 0
11.7 0.4 0
12 0.4 0
12.3 0.4 0
12.6 0.4 0
12.9 0.4 0
13.2 0.4 0
13.5 0.4 0
13.8 0.4 0
14.1 0.4 0
14.4 0.4 0
14.7 0.4 0
15 0.4 0
15.3 0.4 0
15.6 0.4 0
15.9 0.4 0
16.2 0.4 0
16.5 0.4 0
16.8 0.4 0
17.1 0.4 0
17.4 0.4 0
17.7 0.4 0
18 0.4 0
18.3 0.4 0
18.6 0.4 0
18.9 0.4 0
19.2 0.4 0
19.5 0.4 0
19.8 0.4 0
20.1 0.4 0
20.4 0.4 0
20.7 0.4 0
21 0.4 0
21.3 0.4 0
21.6 0.4 0
21.9 0.4 0
22.2 0.4 0
22.5 0.4 0
22.8 0.4 0
23.1 0.4 0
23.4 0.4 0
23.7 0.4 0
24 0.4 0
24.3 0.4 0
24.6 0.4 0
24.9 0.4 0
25.2 0.4 0
25.5 0.4 0
25.8 0.4 0
26.1 0.4 0
26.4 0.4 0
26.7 0.4 0
27 0.4 0
27.3 0.4 0
27.6 0.4 0
27.9 0.4 0
28.2 0.4 0
28.5 0.4 0
28.8 0.4 0
29.1 0.4 0
29.4 0.4 0
29.7 0.4 0
30 0.4 0
30.3 0.4 0
30.6 0.4 0
0 0.5 0
0.3 0.5 0
0.6 0.5 0
0.9 0.5 0
1.2 0.5 0
1.5 0.5 0
1.8 0.5 0
2.1 0.5 0
2.4 0.5 0
2.7 0.5 0
3 0.5 0
3.3 0.5 0
3.6 0.5 0
3.9 0.5 0
4.2 0.5 0
4.5 0.5 0
4.8 0.5 0
5.1 0.5 0
5.4 0.5 0
5.7 0.5 0
6 0.5 0
6.3 0.5 0
6.6 0.5 0
6.9 0.5 0
7.2 0.5 0
7.5 0.5 0
7.8 0.5 0
8.1 0.5 0
8.4 0.5 0
8.7 0.5 0
9 0.5 0
9.3 0.5 0
9.6 0.5 0
9.9 0.5 0
10.2 0.5 0
10.5 0.5 0
10.8 0.5 0
11.1 0.5 0
11.4 0.5 0
11.7 0.5 0
12 0.5 0
12.3 0.5 0
12.6 0.5 0
12.9 0.5 0
13.2 0.5 0
13.5 0.5 0
13.8 0.5 0
14.1 0.5 0
14.4 0.5 0
14.7 0.5 0
15 0.5 0
15.3 0.5 0
15.6 0.5 0
15.9 0.5 0
16.2 0.5 0
16.5 0.5 0
16.8 0.5 0
17.1 0.5 0
17.4 0.5 0
17.7 0.5 0
18 0.5 0
18.3 0.5 0
18.6 0.5 0
18.9 0.5 0
19.2 0.5 0
19.5 0.5 0
19.8 0.5 0
20.1 0.5 0
20.4 0.5 0
20.7 0.5 0
21 0.5 0
21.3 0.5 0
21.6 0.5 0
21.9 0.5 0
22.2 0.5 0
22.5 0.5 0
22.8 0.5 0
23.1 0.5 0
23.4 0.5 0
23.7 0.5 0
24 0.5 0
24.3 0.5 0
24.6 0.5 0
24.9 0.5 0
25.2 0.5 0
25.5 0.5 0
25.8 0.5 0
26.1 0.5 0
26.4 0.5 0
26.7 0.5 0
27 0.5 0
27.3 0.5 0
27.6 0.5 0
27.9 0.5 0
28.2 0.5 0
28.5 0.5 0
28.8 0.5 0
29.1 0.5 0
29.4 0.5 0
29.7 0.5 0
30 0.5 0
30.3 0.5 0
30.6 0.5 0
0 0.6 0
0.3 0.6 0
0.6 0.6 0
0.9 0.6 0
1.2 0.6 0
1.5 0.6 0
1.8 0.6 0
2.1 0.6 0
2.4 0.6 0
2.7 0.6 0
3 0.6 0
3.3 0.6 0
3.6 0.6 0
3.9 0.6 0
4.2 0.6 0
4.5 0.6 0
4.8 0.6 0
5.1 0.6 0
5.4 0.6 0
5.7 0.6 0
6 0.6 0
6.3 0.6 0
6.6 0.6 0
6.9 0.6 0
7.2 0.6 0
7.5 0.6 0
7.8 0.6 0
8.1 0.6 0
8.4 0.6 0
8.7 0.6 0
9 0.6 0
9.3 0.6 0
9.6 0.6 0
9.9 0.6 0
10.2 0.6 0
10.5 0.6 0
10.8 0.6 0
11.1 0.6 0
11.4 0.6 0
11.7 0.6 0
12 0.6 0
12.3 0.6 0
12.6 0.6 0
12.9 0.6 0
13.2 0.6 0
13.5 0.6 0
13.8 0.6 0
14.1 0.6 0
14.4 0.6 0
14.7 0.6 0
15 0.6 0
15.3 0.6 0
15.6 0.6 0
15.9 0.6 0
16.2 0.6 0
16.5 0.6 0
16.8 0.6 0
17.1 0.6 0
17.4 0.6 0
17.7 0.6 0
18 0.6 0
18.3 0.6 0
18.6 0.6 0
18.9 0.6 0
19.2 0.6 0
19.5 0.6 0
19.8 0.6 0
20.1 0.6 0
20.4 0.6 0
20.7 0.6 0
21 0.6 0
21.3 0.6 0
21.6 0.6 0
21.9 0.6 0
22.2 0.6 0
22.5 0.6 0
22.8 0.6 0
23.1 0.6 0
23.4 0.6 0
23.7 0.6 0
24 0.6 0
24.3 0.6 0
24.6 0.6 0
24.9 0.6 0
25.2 0.6 0
25.5 0.6 0
25.8 0.6 0
26.1 0.6 0
26.4 0.6 0
26.7 0.6 0
27 0.6 0
27.3 0.6 0
27.6 0.6 0
27.9 0.6 0
28.2 0.6 0
28.5 0.6 0
28.8 0.6 0
29.1 0.6 0
29.4 0.6 0
29.7 0.6 0
30 0.6 0
30.3 0.6 0
30.6 0.6 0
0 0.7 0
0.3 0.7 0
0.6 0.7 0
0.9 0.7 0
1.2 0.7 0
1.5 0.7 0
1.8 0.7 0
2.1 0.7 0
2.4 0.7 0
2.7 0.7 0
3 0.7 0
3.3 0.7 0
3.6 0.7 0
3.9 0.7 0
4.2 0.7 0
4.5 0.7 0
4.8 0.7 0
5.1 0.7 0
5.4 0.7 0
5.7 0.7 0
6 0.7 0
6.3 0.7 0
6.6 0.7 0
6.9 0.7 0
7.2 0.7 0
7.5 0.7 0
7.8 0.7 0
8.1 0.7 0
8.4 0.7 0
8.7 0.7 0
9 0.7 0
9.3 0.7 0
9.6 0.7 0
9.9 0.7 0
10.2 0.7 0
10.5 0.7 0
10.8 0.7 0
11.1 0.7 0
11.4 0.7 0
11.7 0.7 0
12 0.7 0
12.3 0.7 0
12.6 0.7 0
12.9 0.7 0
13.2 0.7 0
13.5 0.7 0
13.8 0.7 0
14.1 0.7 0
14.4 0.7 0
14.7 0.7 0
15 0.7 0
15.3 0.7 0
15.6 0.7 0
15.9 0.7 0
16.2 0.7 0
16.5 0.7 0
16.8 0.7 0
17.1 0.7 0
17.4 0.7 0
17.7 0.7 0
18 0.7 0
18.3 0.7 0
18.6 0.7 0
18.9 0.7 0
19.2 0.7 0
19.5 0.7 0
19.8 0.7 0
20.1 0.7 0
20.4 0.7 0
20.7 0.7 0
21 0.7 0
21.3 0.7 0
21.6 0.7 0
21.9 0.7 0
22.2 0.7 0
22.5 0.7 0
22.8 0.7 0
23.1 0.7 0
23.4 0.7 0
23.7 0.7 0
24 0.7 0
24.3 0.7 0
24.6 0.7 0
24.9 0.7 0
25.2 0.7 0
25.5 0.7 0
25.8 0.7 0
26.1 0.7 0
26.4 0.7 0
26.7 0.7 0
27 0.7 0
27.3 0.7 0
27.6 0.7 0
27.9 0.7 0
28.2 0.7 0
28.5 0.7 0
28.8 0.7 0
29.1 0.7 0
29.4 0.7 0
29.7 0.7 0
30 0.7 0
30.3 0.7 0
30.6 0.7 0
0 0.8 0
0.3 0.8 0
0.6 0.8 0
0.9 0.8 0
1.2 0.8 0
1.5 0.8 0
1.8 0.8 0
2.1 0.8 0
2.4 0.8 0
2.7 0.8 0
3 0.8 0
3.3 0.8 0
3.6 0.8 0
3.9 0.8 0
4.2 0.8 0
4.5 0.8 0
4.8 0.8 0
5.1 0.8 0
5.4 0.8 0
5.7 0.8 0
6 0.8 0
6.3 0.8 0
6.6 0.8 0
6.9 0.8 0
7.2 0.8 0
7.5 0.8 0
7.8 0.8 0
8.1 0.8 0
8.4 0.8 0
8.7 0.8 0
9 0.8 0
9.3 0.8 0
9.6 0.8 0
9.9 0.8 0
10.2 0.8 0
10.5 0.8 0
10.8 0.8 0
11.1 0.8 0
11.4 0.8 0
11.7 0.8 0
12 0.8 0
12.3 0.8 0
12.6 0.8 0
12.9 0.8 0
13.2 0.8 0
13.5 0.8 0
13.8 0.8 0
14.1 0.8 0
14.4 0.8 0
14.7 0.8 0
15 0.8 0
15.3 0.8 0
15.6 0.8 0
15.9 0.8 0
16.2 0.8 0
16.5 0.8 0
16.8 0.8 0
17.1 0.8 0
17.4 0.8 0
17.7 0.8 0
18 0.8 0
18.3 0.8 0
18.6 0.8 0
18.9 0.8 0
19.2 0.8 0
19.5 0.8 0
19.8 0.8 0
20.1 0.8 0
20.4 0.8 0
20.7 0.8 0
21 0.8 0
21.3 0.8 0
21.6 0.8 0
21.9 0.8 0
22.2 0.8 0
22.5 0.8 0
22.8 0.8 0
23.1 0.8 0
23.4 0.8 0
23.7 0.8 0
24 0.8 0
24.3 0.8 0
24.6 0.8 0
24.9 0.8 0
25.2 0.8 0
25.5 0.8 0
25.8 0.8 0
26.1 0.8 0
26.4 0.8 0
26.7 0.8 0
27 0.8 0
27.3 0.8 0
27.6 0.8 0
27.9 0.8 0
28.2 0.8 0
28.5 0.8 0
28.8 0.8 0
29.1 0.8 0
29.4 0.8 0
29.7 0.8 0
30 0.8 0
30.3 0.8 0
30.6 0.8 0
0 0.9 0
0.3 0.9 0
0.6 0.9 0
0.9 0.9 0
1.2 0.9 0
1.5 0.9 0
1.8 0.9 0
2.1 0.9 0
2.4 0.9 0
2.7 0.9 0
3 0.9 0
3.3 0.9 0
3.6 0.9 0
3.9 0.9 0
4.2 0.9 0
4.5 0.9 0
4.8 0.9 0
5.1 0.9 0
5.4 0.9 0
5.7 0.9 0
6 0.9 0
6.3 0.9 0
6.6 0.9 0
6.9 0.9 0
7.2 0.9 0
7.5 0.9 0
7.8 0.9 0
8.1 0.9 0
8.4 0.9 0
8.7 0.9 0
9 0.9 0
9.3 0.9 0
9.6 0.9 0
9.9 0.9 0
10.2 0.9 0
10.5 0.9 0
10.8 0.9 0
11.1 0.9 0
11.4 0.9 0
11.7 0.9 0
12 0.9 0
12.3 0.9 0
12.6 0.9 0
12.9 0.9 0
13.2 0.9 0
13.5 0.9 0
13.8 0.9 0
14.1 0.9 0
14.4 0.9 0
14.7 0.9 0
15 0.9 0
15.3 0.9 0
15.6 0.9 0
15.9 0.9 0
16.2 0.9 0
16.5 0.9 0
16.8 0.9 0
17.1 0.9 0
17.4 0.9 0
17.7 0.9 0
18 0.9 0
18.3 0.9 0
18.6 0.9 0
18.9 0.9 0
19.2 0.9 0
19.5 0.9 0
19.8 0.9 0
20.1 0.9 0
20.4 0.9 0
20.7 0.9 0
21 0.9 0
21.3 0.9 0
21.6 0.9 0
21.9 0.9 0
22.2 0.9 0
22.5 0.9 0
22.8 0.9 0
23.1 0.9 0
23.4 0.9 0
23.7 0.9 0
24 0.9 0
24.3 0.9 0
24.6 0.9 0
24.9 0.9 0
25.2 0.9 0
25.5 0.9 0
25.8 0.9 0
26.1 0.9 0
26.4 0.9 0
26.7 0.9 0
27 0.9 0
27.3 0.9 0
27.6 0.9 0
27.9 0.9 0
28.2 0.9 0
28.5 0.9 0
28.8 0.9 0
29.1 0.9 0
29.4 0.9 0
29.7 0.9 0
30 0.9 0
30.3 0.9 0
30.6 0.9 0
0 1 0
0.3 1 0
0.6 1 0
0.9 1 0
1.2 1 0
1.5 1 0
1.8 1 0
2.1 1 0
2.4 1 0
2.7 1 0
3 1 0
3.3 1 0
3.6 1 0
3.9 1 0
4.2 1 0
4.5 1 0
4.8 1 0
5.1 1 0
5.4 1 0
5.7 1 0
6 1 0
6.3 1 0
6.6 1 0
6.9 1 0
7.2 1 0
7.5 1 0
7.8 1 0
8.1 1 0
8.4 1 0
8.7 1 0
9 1 0
9.3 1 0
9.6 1 0
9.9 1 0
10.2 1 0
10.5 1 0
10.8 1 0
11.1 1 0
11.4 1 0
11.7 1 0
12 1 0
12.3 1 0
12.6 1 0
12.9 1 0
13.2 1 0
13.5 1 0
13.8 1 0
14.1 1 0
14.4 1 0
14.7 1 0
15 1 0
15.3 1 0
15.6 1 0
15.9 1 0
16.2 1 0
16.5 1 0
16.8 1 0
17.1 1 0
17.4 1 0
17.7 1 0
18 1 0
18.3 1 0
18.6 1 0
18.9 1 0
19.2 1 0
19.5 1 0
19.8 1 0
20.1 1 0
20.4 1 0
20.7 1 0
21 1 0
21.3 1 0
21.6 1 0
21.9 1 0
22.2 1 0
22.5 1 0
22.8 1 0
23.1 1 0
23.4 1 0
23.7 1 0
24 1 0
24.3 1 0
24.6 1 0
24.9 1 0
25.2 1 0
25.5 1 0
25.8 1 0
26.1 1 0
26.4 1 0
26.7 1 0
27 1 0
27.3 1 0
27.6 1 0
27.9 1 0
28.2 1 0
28.5 1 0
28.8 1 0
29.1 1 0
29.4 1 0
29.7 1 0
30 1 0
30.3 1 0
30.6 1 0
0 1.1 0
0.3 1.1 0
0.6 1.1 0
0.9 1.1 0
1.2 1.1 0
1.5 1.1 0
1.8 1.1 0
2.1 1.1 0
2.4 1.1 0
2.7 1.1 0
3 1.1 0
3.3 1.1 0
3.6 1.1 0
3.9 1.1 0
4.2 1.1 0
4.5 1.1 0
4.8 1.1 0
5.1 1.1 0
5.4 1.1 0
5.7 1.1 0
6 1.1 0
6.3 1.1 0
6.6 1.1 0
6.9 1.1 0
7.2 1.1 0
7.5 1.1 0
7.8 1.1 0
8.1 1.1 0
8.4 1.1 0
8.7 1.1 0
9 1.1 0
9.3 1.1 0
9.6 1.1 0
9.9 1.1 0
10.2 1.1 0
10.5 1.1 0
10.8 1.1 0
11.1 1.1 0
11.4 1.1 0
11.7 1.1 0
12 1.1 0
12.3 1.1 0
12.6 1.1 0
12.9 1.1 0
13.2 1.1 0
13.5 1.1 0
13.8 1.1 0
14.1 1.1 0
14.4 1.1 0
14.7 1.1 0
15 1.1 0
15.3 1.1 0
15.6 1.1 0
15.9 1.1 0
16.2 1.1 0
16.5 1.1 0
16.8 1.1 0
17.1 1.1 0
17.4 1.1 0
17.7 1.1 0
18 1.1 0
18.3 1.1 0
18.6 1.1 0
18.9 1.1 0
19.2 1.1 0
19.5 1.1 0
19.8 1.1 0
20.1 1.1 0
20.4 1.1 0
20.7 1.1 0
21 1.1 0
21.3 1.1 0
21.6 1.1 0
21.9 1.1 0
22.2 1.1 0
22.5 1.1 0
22.8 1.1 0
23.1 1.1 0
23.4 1.1 0
23.7 1.1 0
24 1.1 0
24.3 1.1 0
24.6 1.1 0
24.9 1.1 0
25.2 1.1 0
25.5 1.1 0
25.8 1.1 0
26.1 1.1 0
26.4 1.1 0
26.7 1.1 0
27 1.1 0
27.3 1.1 0
27.6 1.1 0
27.9 1.1 0
28.2 1.1 0
28.5 1.1 0
28.8 1.1 0
29.1 1.1 0
29.4 1.1 0
29.7 1.1 0
30 1.1 0
30.3 1.1 0
30.6 1.1 0
0 1.2 0
0.3 1.2 0
0.6 1.2 0
0.9 1.2 0
1.2 1.2 0
1.5 1.2 0
1.8 1.2 0
2.1 1.2 0
2.4 1.2 0
2.7 1.2 0
3 1.2 0
3.3 1.2 0
3.6 1.2 0
3.9 1.2 0
4.2 1.2 0
4.5 1.2 0
4.8 1.2 0
5.1 1.2 0
5.4 1.2 0
5.7 1.2 0
6 1.2 0
6.3 1.2 0
6.6 1.2 0
6.9 1.2 0
7.2 1.2 0
7.5 1.2 0
7.8 1.2 0
8.1 1.2 0
8.4 1.2 0
8.7 1.2 0
9 1.2 0
9.3 1.2 0
9.6 1.2 0
9.9 1.2 0
10.2 1.2 0
10.5 1.2 0
10.8 1.2 0
11.1 1.2 0
11.4 1.2 0
11.7 1.2 0
12 1.2 0
12.3 1.2 0
12.6 1.2 0
12.9 1.2 0
13.2 1.2 0
13.5 1.2 0
13.8 1.2 0
14.1 1.2 0
14.4 1.2 0
14.7 1.2 0
15 1.2 0
15.3 1.2 0
15.6 1.2 0
15.9 1.2 0
16.2 1.2 0
16.5 1.2 0
16.8 1.2 0
17.1 1.2 0
17.4 1.2 0
17.7 1.2 0
18 1.2 0
18.3 1.2 0
18.6 1.2 0
18.9 1.2 0
19.2 1.2 0
19.5 1.2 0
19.8 1.2 0
20.1 1.2 0
20.4 1.2 0
20.7 1.2 0
21 1.2 0
21.3 1.2 0
21.6 1.2 0
21.9 1.2 0
22.2 1.2 0
22.5 1.2 0
22.8 1.2 0
23.1 1.2 0
23.4 1.2 0
23.7 1.2 0
24 1.2 0
24.3 1.2 0
24.6 1.2 0
24.9 1.2 0
25.2 1.2 0
25.5 1.2 0
25.8 1.2 0
26.1 1.2 0
26.4 1.2 0
26.7 1.2 0
27 1.2 0
27.3 1.2 0
27.6 1.2 0
27.9 1.2 0
28.2 1.2 0
28.5 1.2 0
28.8 1.2 0
29.1 1.2 0
29.4 1.2 0
29.7 1.2 0
30 1.2 0
30.3 1.2 0
30.6 1.2 0

POINT_DATA 1339

SCALARS pressure double
LOOKUP_TABLE pressure
1.17169
1.17169
1.10684
1.06261
1.02278
0.986207
0.953154
0.923627
0.897271
0.873562
0.85196
0.831997
0.813304
0.795605
0.778697
0.762438
0.74672
0.731465
0.716611
0.702116
0.687943
0.674058
0.660437
0.647058
0.633903
0.620953
0.608193
0.59561
0.583193
0.570929
0.558808
0.546821
0.53496
0.523217
0.511584
0.500055
0.488623
0.477283
0.46603
0.454858
0.443763
0.43274
0.421786
0.410896
0.400067
0.389296
0.378578
0.367913
0.357296
0.346725
0.336197
0.32571
0.315262
0.304851
0.294475
0.284132
0.273819
0.263537
0.253282
0.243054
0.232851
0.222671
0.212514
0.202379
0.192263
0.182166
0.172088
0.162026
0.151981
0.141951
0.131936
0.121934
0.111946
0.101969
0.0920046
0.082051
0.0721079
0.0621747
0.0522508
0.0423359
0.0324294
0.0225308
0.0126398
0.00275584
-0.00712123
-0.0169919
-0.0268565
-0.0367154
-0.0465688
-0.0564169
-0.06626
-0.0760984
-0.0859323
-0.0957618
-0.105587
-0.115408
-0.125226
-0.13504
-0.14485
-0.154657
-0.164461
-0.174262
0.174262
1.17169
1.17169
1.10684
1.06261
1.02278
0.986207
0.953154
0.923627
0.897271
0.873562
0.85196
0.831997
0.813304
0.795605
0.778697
0.762438
0.74672
0.731465
0.716611
0.702116
0.687943
0.674058
0.660437
0.647058
0.633903
0.620953
0.608193
0.59561
0.583193
0.570929
0.558808
0.546821
0.53496
0.523217
0.511584
0.500055
0.488623
0.477283
0.46603
0.454858
0.443763
0.43274
0.421786
0.410896
0.400067
0.389296
0.378578
0.367913
0.357296
0.346725
0.336197
0.32571
0.315262
0.304851
0.294475
0.284132
0.273819
0.263537
0.253282
0.243054
0.232851
0.222671
0.212514
0.202379
0.192263
0.182166
0.172088
0.162026
0.151981
0.141951
0.131936
0.121934
0.111946
0.101969
0.0920046
0.082051
0.0721079
0.0621747
0.0522508
0.0423359
0.0324294
0.0225308
0.0126398
0.00275584
-0.00712123
-0.0169919
-0.0268565
-0.0367154
-0.0465688
-0.0564169
-0.06626
-0.0760984
-0.0859323
-0.0957618
-0.105587
-0.115408
-0.125226
-0.13504
-0.14485
-0.154657
-0.164461
-0.174262
0.174262
1.15074
1.15074
1.10485
1.06284
1.02349
0.987003
0.953897
0.924259
0.897778
0.873957
0.852264
0.832231
0.813486
0.795749
0.778815
0.762536
0.746803
0.731536
0.716673
0.702172
0.687992
0.674102
0.660477
0.647095
0.633936
0.620983
0.608221
0.595636
0.583217
0.570951
0.558829
0.54684
0.534978
0.523234
0.5116
0.500069
0.488637
0.477296
0.466042
0.45487
0.443774
0.43275
0.421795
0.410905
0.400076
0.389304
0.378586
0.36792
0.357302
0.346731
0.336202
0.325715
0.315267
0.304856
0.294479
0.284136
0.273824
0.263541
0.253286
0.243057
0.232854
0.222674
0.212517
0.202381
0.192266
0.182169
0.17209
0.162029
0.151983
0.141953
0.131938
0.121936
0.111947
0.101971
0.0920061
0.0820524
0.0721092
0.0621759
0.0522521
0.0423371
0.0324305
0.0225318
0.0126407
0.00275677
-0.00712035
-0.0169911
-0.0268558
-0.0367147
-0.0465681
-0.0564162
-0.0662594
-0.0760978
-0.0859317
-0.0957613
-0.105587
-0.115408
-0.125226
-0.135039
-0.14485
-0.154656
-0.164461
-0.174261
0.174261
1.13576
1.13576
1.10197
1.06307
1.0246
0.988327
0.95516
0.925337
0.89864
0.874616
0.852756
0.832596
0.813758
0.795954
0.778973
0.762661
0.746904
0.731619
0.716744
0.702233
0.688045
0.674149
0.660518
0.647132
0.633969
0.621013
0.608248
0.595661
0.583239
0.570972
0.558847
0.546858
0.534994
0.523248
0.511613
0.500082
0.488648
0.477307
0.466052
0.454879
0.443783
0.432759
0.421803
0.410912
0.400082
0.38931
0.378592
0.367925
0.357307
0.346736
0.336207
0.32572
0.315271
0.30486
0.294483
0.284139
0.273827
0.263544
0.253289
0.24306
0.232857
0.222677
0.21252
0.202383
0.192268
0.182171
0.172092
0.16203
0.151985
0.141955
0.131939
0.121937
0.111949
0.101972
0.0920073
0.0820535
0.0721102
0.0621769
0.052253
0.0423379
0.0324313
0.0225326
0.0126415
0.00275749
-0.00711969
-0.0169905
-0.0268552
-0.0367141
-0.0465676
-0.0564157
-0.066259
-0.0760974
-0.0859313
-0.0957609
-0.105586
-0.115408
-0.125225
-0.135039
-0.144849
-0.154656
-0.16446
-0.174256
0.174256
1.12619
1.12619
1.09948
1.06317
1.02555
0.989522
0.956336
0.926373
0.899493
0.875289
0.853274
0.83299
0.81406
0.796189
0.779159
0.76281
0.747027
0.731722
0.716833
0.702309
0.688111
0.674207
0.66057
0.647178
0.634011
0.62105
0.608282
0.595692
0.583267
0.570997
0.55887
0.546879
0.535013
0.523266
0.51163
0.500097
0.488663
0.47732
0.466064
0.45489
0.443793
0.432768
0.421812
0.410921
0.40009
0.389317
0.378599
0.367932
0.357314
0.346741
0.336212
0.325725
0.315276
0.304864
0.294487
0.284143
0.27383
0.263547
0.253292
0.243063
0.23286
0.22268
0.212522
0.202386
0.19227
0.182173
0.172094
0.162032
0.151987
0.141957
0.131941
0.121939
0.11195
0.101973
0.0920086
0.0820548
0.0721114
0.062178
0.052254
0.0423389
0.0324322
0.0225335
0.0126423
0.0027583
-0.00711893
-0.0169898
-0.0268545
-0.0367135
-0.0465669
-0.0564152
-0.0662584
-0.0760969
-0.0859308
-0.0957604
-0.105586
-0.115407
-0.125225
-0.135039
-0.144849
-0.154655
-0.164457
-0.174246
0.174246
1.12087
1.12087
1.09786
1.06319
1.02614
0.990289
0.957106
0.927063
0.900071
0.875753
0.853638
0.833274
0.814282
0.796366
0.779302
0.762928
0.747126
0.731807
0.716906
0.702374
0.688168
0.674258
0.660616
0.647219
0.634048
0.621084
0.608313
0.595719
0.583292
0.57102
0.558892
0.546899
0.535032
0.523283
0.511645
0.500111
0.488676
0.477333
0.466076
0.454901
0.443803
0.432778
0.421821
0.410929
0.400098
0.389324
0.378605
0.367938
0.357319
0.346747
0.336218
0.32573
0.315281
0.304869
0.294491
0.284147
0.273834
0.263551
0.253295
0.243066
0.232862
0.222682
0.212525
0.202388
0.192272
0.182175
0.172096
0.162034
0.151989
0.141958
0.131942
0.12194
0.111951
0.101975
0.0920099
0.082056
0.0721126
0.0621791
0.0522551
0.0423399
0.0324331
0.0225344
0.0126431
0.00275908
-0.0071182
-0.0169891
-0.0268539
-0.0367129
-0.0465663
-0.0564146
-0.0662579
-0.0760964
-0.0859304
-0.09576
-0.105585
-0.115407
-0.125224
-0.135038
-0.144848
-0.154654
-0.164455
-0.174234
0.174234
1.11918
1.11918
1.09731
1.0632
1.02636
0.990563
0.957379
0.927308
0.900277
0.87592
0.85377
0.833378
0.814365
0.796432
0.779356
0.762974
0.747165
0.73184
0.716936
0.7024
0.688191
0.674279
0.660635
0.647236
0.634063
0.621098
0.608325
0.595731
0.583303
0.57103
0.558901
0.546907
0.535039
0.52329
0.511652
0.500118
0.488682
0.477338
0.466081
0.454906
0.443807
0.432782
0.421825
0.410932
0.400101
0.389327
0.378608
0.367941
0.357322
0.346749
0.33622
0.325732
0.315283
0.30487
0.294493
0.284149
0.273836
0.263552
0.253297
0.243068
0.232864
0.222683
0.212526
0.202389
0.192273
0.182176
0.172097
0.162035
0.151989
0.141959
0.131943
0.121941
0.111952
0.101975
0.0920104
0.0820565
0.0721131
0.0621796
0.0522555
0.0423403
0.0324335
0.0225348
0.0126435
0.00275942
-0.00711788
-0.0169888
-0.0268536
-0.0367126
-0.0465661
-0.0564143
-0.0662576
-0.0760962
-0.0859301
-0.0957598
-0.105585
-0.115407
-0.125224
-0.135038
-0.144848
-0.154654
-0.164453
-0.174229
0.174229
1.12088
1.12088
1.09786
1.06319
1.02614
0.990289
0.957105
0.927062
0.900071
0.875753
0.853638
0.833274
0.814283
0.796366
0.779302
0.762928
0.747126
0.731807
0.716907
0.702373
0.688168
0.674258
0.660616
0.647219
0.634048
0.621084
0.608312
0.595719
0.583293
0.57102
0.558892
0.546899
0.535032
0.523283
0.511645
0.500112
0.488676
0.477333
0.466076
0.454901
0.443803
0.432778
0.421821
0.410929
0.400098
0.389324
0.378605
0.367938
0.357319
0.346747
0.336218
0.32573
0.315281
0.304869
0.294491
0.284147
0.273834
0.263551
0.253295
0.243066
0.232862
0.222682
0.212525
0.202388
0.192272
0.182175
0.172096
0.162034
0.151989
0.141958
0.131942
0.12194
0.111951
0.101975
0.0920099
0.082056
0.0721126
0.0621791
0.0522551
0.0423399
0.0324331
0.0225344
0.0126431
0.00275908
-0.00711821
-0.0169891
-0.0268539
-0.0367128
-0.0465663
-0.0564146
-0.0662579
-0.0760964
-0.0859304
-0.09576
-0.105585
-0.115407
-0.125224
-0.135038
-0.144848
-0.154654
-0.164455
-0.174234
0.174234
1.12619
1.12619
1.09948
1.06317
1.02555
0.989522
0.956336
0.926373
0.899493
0.875289
0.853273
0.83299
0.81406
0.796189
0.779159
0.76281
0.747027
0.731723
0.716833
0.702309
0.688111
0.674207
0.66057
0.647178
0.634011
0.62105
0.608282
0.595692
0.583267
0.570997
0.55887
0.546879
0.535013
0.523266
0.51163
0.500097
0.488663
0.47732
0.466064
0.45489
0.443793
0.432768
0.421812
0.410921
0.40009
0.389317
0.378599
0.367932
0.357313
0.346741
0.336212
0.325725
0.315276
0.304864
0.294487
0.284143
0.27383
0.263547
0.253292
0.243063
0.23286
0.22268
0.212522
0.202386
0.19227
0.182173
0.172094
0.162032
0.151987
0.141957
0.131941
0.121939
0.11195
0.101973
0.0920086
0.0820548
0.0721115
0.062178
0.052254
0.0423389
0.0324322
0.0225335
0.0126423
0.0027583
-0.00711895
-0.0169898
-0.0268545
-0.0367135
-0.0465669
-0.0564152
-0.0662584
-0.0760969
-0.0859308
-0.0957604
-0.105586
-0.115407
-0.125225
-0.135039
-0.144849
-0.154655
-0.164457
-0.174246
0.174246
1.13577
1.13577
1.10197
1.06307
1.0246
0.988328
0.955159
0.925336
0.89864
0.874616
0.852756
0.832595
0.813758
0.795954
0.778973
0.762661
0.746904
0.731619
0.716745
0.702233
0.688045
0.674149
0.660519
0.647132
0.633969
0.621013
0.608248
0.595661
0.583239
0.570972
0.558847
0.546858
0.534994
0.523248
0.511613
0.500082
0.488649
0.477307
0.466052
0.454879
0.443783
0.432759
0.421803
0.410912
0.400082
0.38931
0.378592
0.367925
0.357307
0.346736
0.336207
0.32572
0.315271
0.30486
0.294483
0.284139
0.273827
0.263544
0.253289
0.24306
0.232857
0.222677
0.21252
0.202383
0.192268
0.182171
0.172092
0.16203
0.151985
0.141955
0.131939
0.121937
0.111949
0.101972
0.0920073
0.0820535
0.0721103
0.0621769
0.052253
0.0423379
0.0324313
0.0225326
0.0126415
0.0027575
-0.0071197
-0.0169905
-0.0268552
-0.0367141
-0.0465675
-0.0564157
-0.066259
-0.0760974
-0.0859313
-0.0957609
-0.105586
-0.115408
-0.125225
-0.135039
-0.144849
-0.154656
-0.16446
-0.174256
0.174256
1.15074
1.15074
1.10485
1.06284
1.02349
0.987003
0.953898
0.924258
0.897779
0.873957
0.852263
0.832231
0.813486
0.795749
0.778815
0.762536
0.746803
0.731535
0.716674
0.702172
0.687992
0.674102
0.660477
0.647095
0.633936
0.620983
0.608221
0.595636
0.583217
0.570951
0.558828
0.54684
0.534978
0.523233
0.511599
0.500069
0.488637
0.477296
0.466042
0.45487
0.443774
0.43275
0.421795
0.410905
0.400075
0.389303
0.378586
0.36792
0.357302
0.346731
0.336202
0.325715
0.315267
0.304856
0.294479
0.284136
0.273824
0.263541
0.253286
0.243057
0.232854
0.222674
0.212517
0.202381
0.192266
0.182169
0.17209
0.162029
0.151983
0.141953
0.131938
0.121936
0.111947
0.101971
0.0920061
0.0820524
0.0721092
0.0621759
0.0522521
0.0423371
0.0324305
0.0225318
0.0126407
0.0027568
-0.00712037
-0.0169911
-0.0268558
-0.0367147
-0.0465681
-0.0564162
-0.0662594
-0.0760979
-0.0859317
-0.0957613
-0.105587
-0.115408
-0.125226
-0.135039
-0.14485
-0.154656
-0.164461
-0.174261
0.174261
1.17168
1.17168
1.10684
1.06261
1.02278
0.986207
0.953155
0.923627
0.897271
0.873562
0.85196
0.831997
0.813304
0.795605
0.778698
0.762438
0.74672
0.731464
0.716612
0.702117
0.687943
0.674058
0.660437
0.647058
0.633903
0.620952
0.608193
0.59561
0.583193
0.570929
0.558808
0.546821
0.53496
0.523217
0.511584
0.500055
0.488623
0.477283
0.46603
0.454858
0.443763
0.43274
0.421786
0.410896
0.400067
0.389296
0.378579
0.367913
0.357296
0.346724
0.336197
0.32571
0.315262
0.304851
0.294475
0.284132
0.273819
0.263537
0.253282
0.243054
0.232851
0.222671
0.212514
0.202379
0.192263
0.182166
0.172088
0.162026
0.151981
0.141951
0.131936
0.121934
0.111946
0.101969
0.0920046
0.082051
0.0721079
0.0621747
0.0522509
0.0423359
0.0324294
0.0225308
0.0126398
0.00275589
-0.00712123
-0.0169919
-0.0268566
-0.0367154
-0.0465688
-0.0564169
-0.06626
-0.0760984
-0.0859323
-0.0957618
-0.105587
-0.115408
-0.125226
-0.13504
-0.14485
-0.154657
-0.164461
-0.174262
0.174262
1.17168
1.17168
1.10684
1.06261
1.02278
0.986207
0.953155
0.923627
0.897271
0.873562
0.85196
0.831997
0.813304
0.795605
0.778698
0.762438
0.74672
0.731464
0.716612
0.702117
0.687943
0.674058
0.660437
0.647058
0.633903
0.620952
0.608193
0.59561
0.583193
0.570929
0.558808
0.546821
0.53496
0.523217
0.511584
0.500055
0.488623
0.477283
0.46603
0.454858
0.443763
0.43274
0.421786
0.410896
0.400067
0.389296
0.378579
0.367913
0.357296
0.346724
0.336197
0.32571
0.315262
0.304851
0.294475
0.284132
0.273819
0.263537
0.253282
0.243054
0.232851
0.222671
0.212514
0.202379
0.192263
0.182166
0.172088
0.162026
0.151981
0.141951
0.131936
0.121934
0.111946
0.101969
0.0920046
0.082051
0.0721079
0.0621747
0.0522509
0.0423359
0.0324294
0.0225308
0.0126398
0.00275589
-0.00712123
-0.0169919
-0.0268566
-0.0367154
-0.0465688
-0.0564169
-0.06626
-0.0760984
-0.0859323
-0.0957618
-0.105587
-0.115408
-0.125226
-0.13504
-0.14485
-0.154657
-0.164461
-0.174262
0.174262
SCALARS phi double
LOOKUP_TABLE phi
1
1
1
1
0.999999
0.999994
0.999983
0.999958
0.99991
0.99983
0.999706
0.999526
0.999278
0.998952
0.998537
0.998024
0.997407
0.996679
0.995834
0.99487
0.993784
0.992574
0.991242
0.989786
0.988211
0.986517
0.984708
0.982789
0.980762
0.978631
0.976398
0.974058
0.971604
0.969019
0.966281
0.963356
0.960205
0.956781
0.953035
0.948913
0.944362
0.939333
0.933778
0.927658
0.920937
0.913591
0.9056
0.896955
0.887653
0.877701
0.867111
0.855903
0.8441
0.831734
0.818836
0.805445
0.791599
0.777338
0.762705
0.747742
0.73249
0.716992
0.701287
0.685416
0.669416
0.653323
0.637172
0.620996
0.604825
0.588687
0.57261
0.556618
0.540733
0.524977
0.509368
0.493923
0.478658
0.463587
0.448721
0.434072
0.419648
0.405459
0.391511
0.37781
0.36436
0.351166
0.33823
0.325555
0.313142
0.300991
0.289103
0.277478
0.266115
0.255012
0.244169
0.233581
0.223255
0.213161
0.203387
0.193624
0.184942
0.173497
0.173497
1
1
1
1
0.999999
0.999994
0.999983
0.999958
0.99991
0.99983
0.999706
0.999526
0.999278
0.998952
0.998537
0.998024
0.997407
0.996679
0.995834
0.99487
0.993784
0.992574
0.991242
0.989786
0.988211
0.986517
0.984708
0.982789
0.980762
0.978631
0.976398
0.974058
0.971604
0.969019
0.966281
0.963356
0.960205
0.956781
0.953035
0.948913
0.944362
0.939333
0.933778
0.927658
0.920937
0.913591
0.9056
0.896955
0.887653
0.877701
0.867111
0.855903
0.8441
0.831734
0.818836
0.805445
0.791599
0.777338
0.762705
0.747742
0.73249
0.716992
0.701287
0.685416
0.669416
0.653323
0.637172
0.620996
0.604825
0.588687
0.57261
0.556618
0.540733
0.524977
0.509368
0.493923
0.478658
0.463587
0.448721
0.434072
0.419648
0.405459
0.391511
0.37781
0.36436
0.351166
0.33823
0.325555
0.313142
0.300991
0.289103
0.277478
0.266115
0.255012
0.244169
0.233581
0.223255
0.213161
0.203387
0.193624
0.184942
0.173497
0.173497
1
1
1
0.999996
0.999983
0.999954
0.999898
0.999804
0.999658
0.999447
0.999157
0.998778
0.9983
0.997714
0.997015
0.996196
0.995256
0.994192
0.993003
0.99169
0.990252
0.988694
0.987017
0.985224
0.98332
0.981308
0.979192
0.976979
0.974672
0.972276
0.969796
0.967235
0.964595
0.961873
0.959065
0.95616
0.953143
0.949994
0.946687
0.943191
0.939473
0.935497
0.931224
0.926619
0.921643
0.916264
0.910451
0.904178
0.897425
0.890174
0.882416
0.874144
0.865359
0.856066
0.846275
0.835998
0.825255
0.814066
0.802454
0.790445
0.778067
0.76535
0.752323
0.739016
0.725461
0.711688
0.697727
0.683607
0.669358
0.655007
0.640581
0.626105
0.611605
0.597102
0.582619
0.568175
0.553791
0.539483
0.525268
0.511161
0.497175
0.483324
0.469619
0.456069
0.442685
0.429473
0.416443
0.403599
0.390948
0.378493
0.366239
0.354189
0.342345
0.330709
0.319282
0.308062
0.297061
0.286239
0.275725
0.265084
0.255769
0.242888
0.242888
0.999997
1
0.99998
0.999896
0.999724
0.999434
0.998999
0.998397
0.997613
0.996636
0.995464
0.994099
0.992547
0.990816
0.988917
0.986859
0.984656
0.982317
0.979854
0.977278
0.974599
0.971826
0.968969
0.966037
0.963037
0.959976
0.956863
0.953702
0.9505
0.947262
0.943994
0.940698
0.937381
0.934042
0.930686
0.92731
0.923914
0.920493
0.917039
0.913543
0.909992
0.906371
0.902662
0.898845
0.894898
0.890799
0.886523
0.882048
0.877351
0.872409
0.867202
0.861711
0.855922
0.849819
0.843393
0.836635
0.829539
0.822104
0.814329
0.806218
0.797776
0.78901
0.77993
0.770547
0.760874
0.750926
0.740718
0.730266
0.719587
0.708699
0.69762
0.686367
0.674959
0.663414
0.65175
0.639983
0.628132
0.616212
0.60424
0.59223
0.580199
0.568159
0.556124
0.544107
0.53212
0.520174
0.508279
0.496446
0.484683
0.472999
0.461401
0.449897
0.438492
0.427192
0.416003
0.404924
0.393975
0.383108
0.372487
0.361593
0.352108
0.338603
0.338603
0.999999
1
0.99943
0.998224
0.996402
0.994008
0.991093
0.987716
0.983939
0.979828
0.975446
0.970853
0.966102
0.961239
0.9563
0.951318
0.946317
0.94132
0.936342
0.931396
0.926494
0.921643
0.91685
0.91212
0.907457
0.902862
0.898338
0.893885
0.889505
0.885196