# vtk DataFile Version 3.0
FlowField
ASCII
DATASET STRUCTURED_GRID
DIMENSIONS 103 13 1 
POINTS 1339 double
0 0 0
0.3 0 0
0.6 0 0
0.9 0 0
1.2 0 0
1.5 0 0
1.8 0 0
2.1 0 0
2.4 0 0
2.7 0 0
3 0 0
3.3 0 0
3.6 0 0
3.9 0 0
4.2 0 0
4.5 0 0
4.8 0 0
5.1 0 0
5.4 0 0
5.7 0 0
6 0 0
6.3 0 0
6.6 0 0
6.9 0 0
7.2 0 0
7.5 0 0
7.8 0 0
8.1 0 0
8.4 0 0
8.7 0 0
9 0 0
9.3 0 0
9.6 0 0
9.9 0 0
10.2 0 0
10.5 0 0
10.8 0 0
11.1 0 0
11.4 0 0
11.7 0 0
12 0 0
12.3 0 0
12.6 0 0
12.9 0 0
13.2 0 0
13.5 0 0
13.8 0 0
14.1 0 0
14.4 0 0
14.7 0 0
15 0 0
15.3 0 0
15.6 0 0
15.9 0 0
16.2 0 0
16.5 0 0
16.8 0 0
17.1 0 0
17.4 0 0
17.7 0 0
18 0 0
18.3 0 0
18.6 0 0
18.9 0 0
19.2 0 0
19.5 0 0
19.8 0 0
20.1 0 0
20.4 0 0
20.7 0 0
21 0 0
21.3 0 0
21.6 0 0
21.9 0 0
22.2 0 0
22.5 0 0
22.8 0 0
23.1 0 0
23.4 0 0
23.7 0 0
24 0 0
24.3 0 0
24.6 0 0
24.9 0 0
25.2 0 0
25.5 0 0
25.8 0 0
26.1 0 0
26.4 0 0
26.7 0 0
27 0 0
27.3 0 0
27.6 0 0
27.9 0 0
28.2 0 0
28.5 0 0
28.8 0 0
29.1 0 0
29.4 0 0
29.7 0 0
30 0 0
30.3 0 0
30.6 0 0
0 0.1 0
0.3 0.1 0
0.6 0.1 0
0.9 0.1 0
1.2 0.1 0
1.5 0.1 0
1.8 0.1 0
2.1 0.1 0
2.4 0.1 0
2.7 0.1 0
3 0.1 0
3.3 0.1 0
3.6 0.1 0
3.9 0.1 0
4.2 0.1 0
4.5 0.1 0
4.8 0.1 0
5.1 0.1 0
5.4 0.1 0
5.7 0.1 0
6 0.1 0
6.3 0.1 0
6.6 0.1 0
6.9 0.1 0
7.2 0.1 0
7.5 0.1 0
7.8 0.1 0
8.1 0.1 0
8.4 0.1 0
8.7 0.1 0
9 0.1 0
9.3 0.1 0
9.6 0.1 0
9.9 0.1 0
10.2 0.1 0
10.5 0.1 0
10.8 0.1 0
11.1 0.1 0
11.4 0.1 0
11.7 0.1 0
12 0.1 0
12.3 0.1 0
12.6 0.1 0
12.9 0.1 0
13.2 0.1 0
13.5 0.1 0
13.8 0.1 0
14.1 0.1 0
14.4 0.1 0
14.7 0.1 0
15 0.1 0
15.3 0.1 0
15.6 0.1 0
15.9 0.1 0
16.2 0.1 0
16.5 0.1 0
16.8 0.1 0
17.1 0.1 0
17.4 0.1 0
17.7 0.1 0
18 0.1 0
18.3 0.1 0
18.6 0.1 0
18.9 0.1 0
19.2 0.1 0
19.5 0.1 0
19.8 0.1 0
20.1 0.1 0
20.4 0.1 0
20.7 0.1 0
21 0.1 0
21.3 0.1 0
21.6 0.1 0
21.9 0.1 0
22.2 0.1 0
22.5 0.1 0
22.8 0.1 0
23.1 0.1 0
23.4 0.1 0
23.7 0.1 0
24 0.1 0
24.3 0.1 0
24.6 0.1 0
24.9 0.1 0
25.2 0.1 0
25.5 0.1 0
25.8 0.1 0
26.1 0.1 0
26.4 0.1 0
26.7 0.1 0
27 0.1 0
27.3 0.1 0
27.6 0.1 0
27.9 0.1 0
28.2 0.1 0
28.5 0.1 0
28.8 0.1 0
29.1 0.1 0
29.4 0.1 0
29.7 0.1 0
30 0.1 0
30.3 0.1 0
30.6 0.1 0
0 0.2 0
0.3 0.2 0
0.6 0.2 0
0.9 0.2 0
1.2 0.2 0
1.5 0.2 0
1.8 0.2 0
2.1 0.2 0
2.4 0.2 0
2.7 0.2 0
3 0.2 0
3.3 0.2 0
3.6 0.2 0
3.9 0.2 0
4.2 0.2 0
4.5 0.2 0
4.8 0.2 0
5.1 0.2 0
5.4 0.2 0
5.7 0.2 0
6 0.2 0
6.3 0.2 0
6.6 0.2 0
6.9 0.2 0
7.2 0.2 0
7.5 0.2 0
7.8 0.2 0
8.1 0.2 0
8.4 0.2 0
8.7 0.2 0
9 0.2 0
9.3 0.2 0
9.6 0.2 0
9.9 0.2 0
10.2 0.2 0
10.5 0.2 0
10.8 0.2 0
11.1 0.2 0
11.4 0.2 0
11.7 0.2 0
12 0.2 0
12.3 0.2 0
12.6 0.2 0
12.9 0.2 0
13.2 0.2 0
13.5 0.2 0
13.8 0.2 0
14.1 0.2 0
14.4 0.2 0
14.7 0.2 0
15 0.2 0
15.3 0.2 0
15.6 0.2 0
15.9 0.2 0
16.2 0.2 0
16.5 0.2 0
16.8 0.2 0
17.1 0.2 0
17.4 0.2 0
17.7 0.2 0
18 0.2 0
18.3 0.2 0
18.6 0.2 0
18.9 0.2 0
19.2 0.2 0
19.5 0.2 0
19.8 0.2 0
20.1 0.2 0
20.4 0.2 0
20.7 0.2 0
21 0.2 0
21.3 0.2 0
21.6 0.2 0
21.9 0.2 0
22.2 0.2 0
22.5 0.2 0
22.8 0.2 0
23.1 0.2 0
23.4 0.2 0
23.7 0.2 0
24 0.2 0
24.3 0.2 0
24.6 0.2 0
24.9 0.2 0
25.2 0.2 0
25.5 0.2 0
25.8 0.2 0
26.1 0.2 0
26.4 0.2 0
26.7 0.2 0
27 0.2 0
27.3 0.2 0
27.6 0.2 0
27.9 0.2 0
28.2 0.2 0
28.5 0.2 0
28.8 0.2 0
29.1 0.2 0
29.4 0.2 0
29.7 0.2 0
30 0.2 0
30.3 0.2 0
30.6 0.2 0
0 0.3 0
0.3 0.3 0
0.6 0.3 0
0.9 0.3 0
1.2 0.3 0
1.5 0.3 0
1.8 0.3 0
2.1 0.3 0
2.4 0.3 0
2.7 0.3 0
3 0.3 0
3.3 0.3 0
3.6 0.3 0
3.9 0.3 0
4.2 0.3 0
4.5 0.3 0
4.8 0.3 0
5.1 0.3 0
5.4 0.3 0
5.7 0.3 0
6 0.3 0
6.3 0.3 0
6.6 0.3 0
6.9 0.3 0
7.2 0.3 0
7.5 0.3 0
7.8 0.3 0
8.1 0.3 0
8.4 0.3 0
8.7 0.3 0
9 0.3 0
9.3 0.3 0
9.6 0.3 0
9.9 0.3 0
10.2 0.3 0
10.5 0.3 0
10.8 0.3 0
11.1 0.3 0
11.4 0.3 0
11.7 0.3 0
12 0.3 0
12.3 0.3 0
12.6 0.3 0
12.9 0.3 0
13.2 0.3 0
13.5 0.3 0
13.8 0.3 0
14.1 0.3 0
14.4 0.3 0
14.7 0.3 0
15 0.3 0
15.3 0.3 0
15.6 0.3 0
15.9 0.3 0
16.2 0.3 0
16.5 0.3 0
16.8 0.3 0
17.1 0.3 0
17.4 0.3 0
17.7 0.3 0
18 0.3 0
18.3 0.3 0
18.6 0.3 0
18.9 0.3 0
19.2 0.3 0
19.5 0.3 0
19.8 0.3 0
20.1 0.3 0
20.4 0.3 0
20.7 0.3 0
21 0.3 0
21.3 0.3 0
21.6 0.3 0
21.9 0.3 0
22.2 0.3 0
22.5 0.3 0
22.8 0.3 0
23.1 0.3 0
23.4 0.3 0
23.7 0.3 0
24 0.3 0
24.3 0.3 0
24.6 0.3 0
24.9 0.3 0
25.2 0.3 0
25.5 0.3 0
25.8 0.3 0
26.1 0.3 0
26.4 0.3 0
26.7 0.3 0
27 0.3 0
27.3 0.3 0
27.6 0.3 0
27.9 0.3 0
28.2 0.3 0
28.5 0.3 0
28.8 0.3 0
29.1 0.3 0
29.4 0.3 0
29.7 0.3 0
30 0.3 0
30.3 0.3 0
30.6 0.3 0
0 0.4 0
0.3 0.4 0
0.6 0.4 0
0.9 0.4 0
1.2 0.4 0
1.5 0.4 0
1.8 0.4 0
2.1 0.4 0
2.4 0.4 0
2.7 0.4 0
3 0.4 0
3.3 0.4 0
3.6 0.4 0
3.9 0.4 0
4.2 0.4 0
4.5 0.4 0
4.8 0.4 0
5.1 0.4 0
5.4 0.4 0
5.7 0.4 0
6 0.4 0
6.3 0.4 0
6.6 0.4 0
6.9 0.4 0
7.2 0.4 0
7.5 0.4 0
7.8 0.4 0
8.1 0.4 0
8.4 0.4 0
8.7 0.4 0
9 0.4 0
9.3 0.4 0
9.6 0.4 0
9.9 0.4 0
10.2 0.4 0
10.5 0.4 0
10.8 0.4 0
11.1 0.4 0
11.4 0.4 0
11.7 0.4 0
12 0.4 0
12.3 0.4 0
12.6 0.4 0
12.9 0.4 0
13.2 0.4 0
13.5 0.4 0
13.8 0.4 0
14.1 0.4 0
14.4 0.4 0
14.7 0.4 0
15 0.4 0
15.3 0.4 0
15.6 0.4 0
15.9 0.4 0
16.2 0.4 0
16.5 0.4 0
16.8 0.4 0
17.1 0.4 0
17.4 0.4 0
17.7 0.4 0
18 0.4 0
18.3 0.4 0
18.6 0.4 0
18.9 0.4 0
19.2 0.4 0
19.5 0.4 0
19.8 0.4 0
20.1 0.4 0
20.4 0.4 0
20.7 0.4 0
21 0.4 0
21.3 0.4 0
21.6 0.4 0
21.9 0.4 0
22.2 0.4 0
22.5 0.4 0
22.8 0.4 0
23.1 0.4 0
23.4 0.4 0
23.7 0.4 0
24 0.4 0
24.3 0.4 0
24.6 0.4 0
24.9 0.4 0
25.2 0.4 0
25.5 0.4 0
25.8 0.4 0
26.1 0.4 0
26.4 0.4 0
26.7 0.4 0
27 0.4 0
27.3 0.4 0
27.6 0.4 0
27.9 0.4 0
28.2 0.4 0
28.5 0.4 0
28.8 0.4 0
29.1 0.4 0
29.4 0.4 0
29.7 0.4 0
30 0.4 0
30.3 0.4 0
30.6 0.4 0
0 0.5 0
0.3 0.5 0
0.6 0.5 0
0.9 0.5 0
1.2 0.5 0
1.5 0.5 0
1.8 0.5 0
2.1 0.5 0
2.4 0.5 0
2.7 0.5 0
3 0.5 0
3.3 0.5 0
3.6 0.5 0
3.9 0.5 0
4.2 0.5 0
4.5 0.5 0
4.8 0.5 0
5.1 0.5 0
5.4 0.5 0
5.7 0.5 0
6 0.5 0
6.3 0.5 0
6.6 0.5 0
6.9 0.5 0
7.2 0.5 0
7.5 0.5 0
7.8 0.5 0
8.1 0.5 0
8.4 0.5 0
8.7 0.5 0
9 0.5 0
9.3 0.5 0
9.6 0.5 0
9.9 0.5 0
10.2 0.5 0
10.5 0.5 0
10.8 0.5 0
11.1 0.5 0
11.4 0.5 0
11.7 0.5 0
12 0.5 0
12.3 0.5 0
12.6 0.5 0
12.9 0.5 0
13.2 0.5 0
13.5 0.5 0
13.8 0.5 0
14.1 0.5 0
14.4 0.5 0
14.7 0.5 0
15 0.5 0
15.3 0.5 0
15.6 0.5 0
15.9 0.5 0
16.2 0.5 0
16.5 0.5 0
16.8 0.5 0
17.1 0.5 0
17.4 0.5 0
17.7 0.5 0
18 0.5 0
18.3 0.5 0
18.6 0.5 0
18.9 0.5 0
19.2 0.5 0
19.5 0.5 0
19.8 0.5 0
20.1 0.5 0
20.4 0.5 0
20.7 0.5 0
21 0.5 0
21.3 0.5 0
21.6 0.5 0
21.9 0.5 0
22.2 0.5 0
22.5 0.5 0
22.8 0.5 0
23.1 0.5 0
23.4 0.5 0
23.7 0.5 0
24 0.5 0
24.3 0.5 0
24.6 0.5 0
24.9 0.5 0
25.2 0.5 0
25.5 0.5 0
25.8 0.5 0
26.1 0.5 0
26.4 0.5 0
26.7 0.5 0
27 0.5 0
27.3 0.5 0
27.6 0.5 0
27.9 0.5 0
28.2 0.5 0
28.5 0.5 0
28.8 0.5 0
29.1 0.5 0
29.4 0.5 0
29.7 0.5 0
30 0.5 0
30.3 0.5 0
30.6 0.5 0
0 0.6 0
0.3 0.6 0
0.6 0.6 0
0.9 0.6 0
1.2 0.6 0
1.5 0.6 0
1.8 0.6 0
2.1 0.6 0
2.4 0.6 0
2.7 0.6 0
3 0.6 0
3.3 0.6 0
3.6 0.6 0
3.9 0.6 0
4.2 0.6 0
4.5 0.6 0
4.8 0.6 0
5.1 0.6 0
5.4 0.6 0
5.7 0.6 0
6 0.6 0
6.3 0.6 0
6.6 0.6 0
6.9 0.6 0
7.2 0.6 0
7.5 0.6 0
7.8 0.6 0
8.1 0.6 0
8.4 0.6 0
8.7 0.6 0
9 0.6 0
9.3 0.6 0
9.6 0.6 0
9.9 0.6 0
10.2 0.6 0
10.5 0.6 0
10.8 0.6 0
11.1 0.6 0
11.4 0.6 0
11.7 0.6 0
12 0.6 0
12.3 0.6 0
12.6 0.6 0
12.9 0.6 0
13.2 0.6 0
13.5 0.6 0
13.8 0.6 0
14.1 0.6 0
14.4 0.6 0
14.7 0.6 0
15 0.6 0
15.3 0.6 0
15.6 0.6 0
15.9 0.6 0
16.2 0.6 0
16.5 0.6 0
16.8 0.6 0
17.1 0.6 0
17.4 0.6 0
17.7 0.6 0
18 0.6 0
18.3 0.6 0
18.6 0.6 0
18.9 0.6 0
19.2 0.6 0
19.5 0.6 0
19.8 0.6 0
20.1 0.6 0
20.4 0.6 0
20.7 0.6 0
21 0.6 0
21.3 0.6 0
21.6 0.6 0
21.9 0.6 0
22.2 0.6 0
22.5 0.6 0
22.8 0.6 0
23.1 0.6 0
23.4 0.6 0
23.7 0.6 0
24 0.6 0
24.3 0.6 0
24.6 0.6 0
24.9 0.6 0
25.2 0.6 0
25.5 0.6 0
25.8 0.6 0
26.1 0.6 0
26.4 0.6 0
26.7 0.6 0
27 0.6 0
27.3 0.6 0
27.6 0.6 0
27.9 0.6 0
28.2 0.6 0
28.5 0.6 0
28.8 0.6 0
29.1 0.6 0
29.4 0.6 0
29.7 0.6 0
30 0.6 0
30.3 0.6 0
30.6 0.6 0
0 0.7 0
0.3 0.7 0
0.6 0.7 0
0.9 0.7 0
1.2 0.7 0
1.5 0.7 0
1.8 0.7 0
2.1 0.7 0
2.4 0.7 0
2.7 0.7 0
3 0.7 0
3.3 0.7 0
3.6 0.7 0
3.9 0.7 0
4.2 0.7 0
4.5 0.7 0
4.8 0.7 0
5.1 0.7 0
5.4 0.7 0
5.7 0.7 0
6 0.7 0
6.3 0.7 0
6.6 0.7 0
6.9 0.7 0
7.2 0.7 0
7.5 0.7 0
7.8 0.7 0
8.1 0.7 0
8.4 0.7 0
8.7 0.7 0
9 0.7 0
9.3 0.7 0
9.6 0.7 0
9.9 0.7 0
10.2 0.7 0
10.5 0.7 0
10.8 0.7 0
11.1 0.7 0
11.4 0.7 0
11.7 0.7 0
12 0.7 0
12.3 0.7 0
12.6 0.7 0
12.9 0.7 0
13.2 0.7 0
13.5 0.7 0
13.8 0.7 0
14.1 0.7 0
14.4 0.7 0
14.7 0.7 0
15 0.7 0
15.3 0.7 0
15.6 0.7 0
15.9 0.7 0
16.2 0.7 0
16.5 0.7 0
16.8 0.7 0
17.1 0.7 0
17.4 0.7 0
17.7 0.7 0
18 0.7 0
18.3 0.7 0
18.6 0.7 0
18.9 0.7 0
19.2 0.7 0
19.5 0.7 0
19.8 0.7 0
20.1 0.7 0
20.4 0.7 0
20.7 0.7 0
21 0.7 0
21.3 0.7 0
21.6 0.7 0
21.9 0.7 0
22.2 0.7 0
22.5 0.7 0
22.8 0.7 0
23.1 0.7 0
23.4 0.7 0
23.7 0.7 0
24 0.7 0
24.3 0.7 0
24.6 0.7 0
24.9 0.7 0
25.2 0.7 0
25.5 0.7 0
25.8 0.7 0
26.1 0.7 0
26.4 0.7 0
26.7 0.7 0
27 0.7 0
27.3 0.7 0
27.6 0.7 0
27.9 0.7 0
28.2 0.7 0
28.5 0.7 0
28.8 0.7 0
29.1 0.7 0
29.4 0.7 0
29.7 0.7 0
30 0.7 0
30.3 0.7 0
30.6 0.7 0
0 0.8 0
0.3 0.8 0
0.6 0.8 0
0.9 0.8 0
1.2 0.8 0
1.5 0.8 0
1.8 0.8 0
2.1 0.8 0
2.4 0.8 0
2.7 0.8 0
3 0.8 0
3.3 0.8 0
3.6 0.8 0
3.9 0.8 0
4.2 0.8 0
4.5 0.8 0
4.8 0.8 0
5.1 0.8 0
5.4 0.8 0
5.7 0.8 0
6 0.8 0
6.3 0.8 0
6.6 0.8 0
6.9 0.8 0
7.2 0.8 0
7.5 0.8 0
7.8 0.8 0
8.1 0.8 0
8.4 0.8 0
8.7 0.8 0
9 0.8 0
9.3 0.8 0
9.6 0.8 0
9.9 0.8 0
10.2 0.8 0
10.5 0.8 0
10.8 0.8 0
11.1 0.8 0
11.4 0.8 0
11.7 0.8 0
12 0.8 0
12.3 0.8 0
12.6 0.8 0
12.9 0.8 0
13.2 0.8 0
13.5 0.8 0
13.8 0.8 0
14.1 0.8 0
14.4 0.8 0
14.7 0.8 0
15 0.8 0
15.3 0.8 0
15.6 0.8 0
15.9 0.8 0
16.2 0.8 0
16.5 0.8 0
16.8 0.8 0
17.1 0.8 0
17.4 0.8 0
17.7 0.8 0
18 0.8 0
18.3 0.8 0
18.6 0.8 0
18.9 0.8 0
19.2 0.8 0
19.5 0.8 0
19.8 0.8 0
20.1 0.8 0
20.4 0.8 0
20.7 0.8 0
21 0.8 0
21.3 0.8 0
21.6 0.8 0
21.9 0.8 0
22.2 0.8 0
22.5 0.8 0
22.8 0.8 0
23.1 0.8 0
23.4 0.8 0
23.7 0.8 0
24 0.8 0
24.3 0.8 0
24.6 0.8 0
24.9 0.8 0
25.2 0.8 0
25.5 0.8 0
25.8 0.8 0
26.1 0.8 0
26.4 0.8 0
26.7 0.8 0
27 0.8 0
27.3 0.8 0
27.6 0.8 0
27.9 0.8 0
28.2 0.8 0
28.5 0.8 0
28.8 0.8 0
29.1 0.8 0
29.4 0.8 0
29.7 0.8 0
30 0.8 0
30.3 0.8 0
30.6 0.8 0
0 0.9 0
0.3 0.9 0
0.6 0.9 0
0.9 0.9 0
1.2 0.9 0
1.5 0.9 0
1.8 0.9 0
2.1 0.9 0
2.4 0.9 0
2.7 0.9 0
3 0.9 0
3.3 0.9 0
3.6 0.9 0
3.9 0.9 0
4.2 0.9 0
4.5 0.9 0
4.8 0.9 0
5.1 0.9 0
5.4 0.9 0
5.7 0.9 0
6 0.9 0
6.3 0.9 0
6.6 0.9 0
6.9 0.9 0
7.2 0.9 0
7.5 0.9 0
7.8 0.9 0
8.1 0.9 0
8.4 0.9 0
8.7 0.9 0
9 0.9 0
9.3 0.9 0
9.6 0.9 0
9.9 0.9 0
10.2 0.9 0
10.5 0.9 0
10.8 0.9 0
11.1 0.9 0
11.4 0.9 0
11.7 0.9 0
12 0.9 0
12.3 0.9 0
12.6 0.9 0
12.9 0.9 0
13.2 0.9 0
13.5 0.9 0
13.8 0.9 0
14.1 0.9 0
14.4 0.9 0
14.7 0.9 0
15 0.9 0
15.3 0.9 0
15.6 0.9 0
15.9 0.9 0
16.2 0.9 0
16.5 0.9 0
16.8 0.9 0
17.1 0.9 0
17.4 0.9 0
17.7 0.9 0
18 0.9 0
18.3 0.9 0
18.6 0.9 0
18.9 0.9 0
19.2 0.9 0
19.5 0.9 0
19.8 0.9 0
20.1 0.9 0
20.4 0.9 0
20.7 0.9 0
21 0.9 0
21.3 0.9 0
21.6 0.9 0
21.9 0.9 0
22.2 0.9 0
22.5 0.9 0
22.8 0.9 0
23.1 0.9 0
23.4 0.9 0
23.7 0.9 0
24 0.9 0
24.3 0.9 0
24.6 0.9 0
24.9 0.9 0
25.2 0.9 0
25.5 0.9 0
25.8 0.9 0
26.1 0.9 0
26.4 0.9 0
26.7 0.9 0
27 0.9 0
27.3 0.9 0
27.6 0.9 0
27.9 0.9 0
28.2 0.9 0
28.5 0.9 0
28.8 0.9 0
29.1 0.9 0
29.4 0.9 0
29.7 0.9 0
30 0.9 0
30.3 0.9 0
30.6 0.9 0
0 1 0
0.3 1 0
0.6 1 0
0.9 1 0
1.2 1 0
1.5 1 0
1.8 1 0
2.1 1 0
2.4 1 0
2.7 1 0
3 1 0
3.3 1 0
3.6 1 0
3.9 1 0
4.2 1 0
4.5 1 0
4.8 1 0
5.1 1 0
5.4 1 0
5.7 1 0
6 1 0
6.3 1 0
6.6 1 0
6.9 1 0
7.2 1 0
7.5 1 0
7.8 1 0
8.1 1 0
8.4 1 0
8.7 1 0
9 1 0
9.3 1 0
9.6 1 0
9.9 1 0
10.2 1 0
10.5 1 0
10.8 1 0
11.1 1 0
11.4 1 0
11.7 1 0
12 1 0
12.3 1 0
12.6 1 0
12.9 1 0
13.2 1 0
13.5 1 0
13.8 1 0
14.1 1 0
14.4 1 0
14.7 1 0
15 1 0
15.3 1 0
15.6 1 0
15.9 1 0
16.2 1 0
16.5 1 0
16.8 1 0
17.1 1 0
17.4 1 0
17.7 1 0
18 1 0
18.3 1 0
18.6 1 0
18.9 1 0
19.2 1 0
19.5 1 0
19.8 1 0
20.1 1 0
20.4 1 0
20.7 1 0
21 1 0
21.3 1 0
21.6 1 0
21.9 1 0
22.2 1 0
22.5 1 0
22.8 1 0
23.1 1 0
23.4 1 0
23.7 1 0
24 1 0
24.3 1 0
24.6 1 0
24.9 1 0
25.2 1 0
25.5 1 0
25.8 1 0
26.1 1 0
26.4 1 0
26.7 1 0
27 1 0
27.3 1 0
27.6 1 0
27.9 1 0
28.2 1 0
28.5 1 0
28.8 1 0
29.1 1 0
29.4 1 0
29.7 1 0
30 1 0
30.3 1 0
30.6 1 0
0 1.1 0
0.3 1.1 0
0.6 1.1 0
0.9 1.1 0
1.2 1.1 0
1.5 1.1 0
1.8 1.1 0
2.1 1.1 0
2.4 1.1 0
2.7 1.1 0
3 1.1 0
3.3 1.1 0
3.6 1.1 0
3.9 1.1 0
4.2 1.1 0
4.5 1.1 0
4.8 1.1 0
5.1 1.1 0
5.4 1.1 0
5.7 1.1 0
6 1.1 0
6.3 1.1 0
6.6 1.1 0
6.9 1.1 0
7.2 1.1 0
7.5 1.1 0
7.8 1.1 0
8.1 1.1 0
8.4 1.1 0
8.7 1.1 0
9 1.1 0
9.3 1.1 0
9.6 1.1 0
9.9 1.1 0
10.2 1.1 0
10.5 1.1 0
10.8 1.1 0
11.1 1.1 0
11.4 1.1 0
11.7 1.1 0
12 1.1 0
12.3 1.1 0
12.6 1.1 0
12.9 1.1 0
13.2 1.1 0
13.5 1.1 0
13.8 1.1 0
14.1 1.1 0
14.4 1.1 0
14.7 1.1 0
15 1.1 0
15.3 1.1 0
15.6 1.1 0
15.9 1.1 0
16.2 1.1 0
16.5 1.1 0
16.8 1.1 0
17.1 1.1 0
17.4 1.1 0
17.7 1.1 0
18 1.1 0
18.3 1.1 0
18.6 1.1 0
18.9 1.1 0
19.2 1.1 0
19.5 1.1 0
19.8 1.1 0
20.1 1.1 0
20.4 1.1 0
20.7 1.1 0
21 1.1 0
21.3 1.1 0
21.6 1.1 0
21.9 1.1 0
22.2 1.1 0
22.5 1.1 0
22.8 1.1 0
23.1 1.1 0
23.4 1.1 0
23.7 1.1 0
24 1.1 0
24.3 1.1 0
24.6 1.1 0
24.9 1.1 0
25.2 1.1 0
25.5 1.1 0
25.8 1.1 0
26.1 1.1 0
26.4 1.1 0
26.7 1.1 0
27 1.1 0
27.3 1.1 0
27.6 1.1 0
27.9 1.1 0
28.2 1.1 0
28.5 1.1 0
28.8 1.1 0
29.1 1.1 0
29.4 1.1 0
29.7 1.1 0
30 1.1 0
30.3 1.1 0
30.6 1.1 0
0 1.2 0
0.3 1.2 0
0.6 1.2 0
0.9 1.2 0
1.2 1.2 0
1.5 1.2 0
1.8 1.2 0
2.1 1.2 0
2.4 1.2 0
2.7 1.2 0
3 1.2 0
3.3 1.2 0
3.6 1.2 0
3.9 1.2 0
4.2 1.2 0
4.5 1.2 0
4.8 1.2 0
5.1 1.2 0
5.4 1.2 0
5.7 1.2 0
6 1.2 0
6.3 1.2 0
6.6 1.2 0
6.9 1.2 0
7.2 1.2 0
7.5 1.2 0
7.8 1.2 0
8.1 1.2 0
8.4 1.2 0
8.7 1.2 0
9 1.2 0
9.3 1.2 0
9.6 1.2 0
9.9 1.2 0
10.2 1.2 0
10.5 1.2 0
10.8 1.2 0
11.1 1.2 0
11.4 1.2 0
11.7 1.2 0
12 1.2 0
12.3 1.2 0
12.6 1.2 0
12.9 1.2 0
13.2 1.2 0
13.5 1.2 0
13.8 1.2 0
14.1 1.2 0
14.4 1.2 0
14.7 1.2 0
15 1.2 0
15.3 1.2 0
15.6 1.2 0
15.9 1.2 0
16.2 1.2 0
16.5 1.2 0
16.8 1.2 0
17.1 1.2 0
17.4 1.2 0
17.7 1.2 0
18 1.2 0
18.3 1.2 0
18.6 1.2 0
18.9 1.2 0
19.2 1.2 0
19.5 1.2 0
19.8 1.2 0
20.1 1.2 0
20.4 1.2 0
20.7 1.2 0
21 1.2 0
21.3 1.2 0
21.6 1.2 0
21.9 1.2 0
22.2 1.2 0
22.5 1.2 0
22.8 1.2 0
23.1 1.2 0
23.4 1.2 0
23.7 1.2 0
24 1.2 0
24.3 1.2 0
24.6 1.2 0
24.9 1.2 0
25.2 1.2 0
25.5 1.2 0
25.8 1.2 0
26.1 1.2 0
26.4 1.2 0
26.7 1.2 0
27 1.2 0
27.3 1.2 0
27.6 1.2 0
27.9 1.2 0
28.2 1.2 0
28.5 1.2 0
28.8 1.2 0
29.1 1.2 0
29.4 1.2 0
29.7 1.2 0
30 1.2 0
30.3 1.2 0
30.6 1.2 0

POINT_DATA 1339

SCALARS pressure double
LOOKUP_TABLE pressure
1.26895
1.26895
1.20411
1.15987
1.12005
1.08347
1.05042
1.0209
0.994539
0.970841
0.94932
0.929601
0.911421
0.894585
0.878914
0.864225
0.850322
0.837006
0.824097
0.811449
0.798954
0.786541
0.774168
0.761813
0.749464
0.737119
0.724774
0.712429
0.700084
0.68774
0.675396
0.663051
0.650707
0.638363
0.626018
0.613674
0.60133
0.588986
0.576641
0.564297
0.551953
0.539608
0.527264
0.51492
0.502576
0.490231
0.477887
0.465543
0.453199
0.440854
0.42851
0.416166
0.403822
0.391477
0.379133
0.366789
0.354444
0.3421
0.329756
0.317412
0.305067
0.292723
0.280379
0.268035
0.25569
0.243346
0.231002
0.218658
0.206313
0.193969
0.181625
0.169281
0.156936
0.144592
0.132248
0.119904
0.107559
0.0952152
0.0828709
0.0705267
0.0581824
0.0458382
0.0334939
0.0211497
0.00880546
-0.00353878
-0.015883
-0.0282273
-0.0405715
-0.0529157
-0.06526
-0.0776042
-0.0899484
-0.102293
-0.114637
-0.126981
-0.139325
-0.15167
-0.164012
-0.176357
-0.188702
-0.200977
0.200977
1.26895
1.26895
1.20411
1.15987
1.12005
1.08347
1.05042
1.0209
0.994539
0.970841
0.94932
0.929601
0.911421
0.894585
0.878914
0.864225
0.850322
0.837006
0.824097
0.811449
0.798954
0.786541
0.774168
0.761813
0.749464
0.737119
0.724774
0.712429
0.700084
0.68774
0.675396
0.663051
0.650707
0.638363
0.626018
0.613674
0.60133
0.588986
0.576641
0.564297
0.551953
0.539608
0.527264
0.51492
0.502576
0.490231
0.477887
0.465543
0.453199
0.440854
0.42851
0.416166
0.403822
0.391477
0.379133
0.366789
0.354444
0.3421
0.329756
0.317412
0.305067
0.292723
0.280379
0.268035
0.25569
0.243346
0.231002
0.218658
0.206313
0.193969
0.181625
0.169281
0.156936
0.144592
0.132248
0.119904
0.107559
0.0952152
0.0828709
0.0705267
0.0581824
0.0458382
0.0334939
0.0211497
0.00880546
-0.00353878
-0.015883
-0.0282273
-0.0405715
-0.0529157
-0.06526
-0.0776042
-0.0899484
-0.102293
-0.114637
-0.126981
-0.139325
-0.15167
-0.164012
-0.176357
-0.188702
-0.200977
0.200977
1.24801
1.24801
1.20212
1.1601
1.12075
1.08427
1.05117
1.02153
0.995046
0.971233
0.949613
0.929812
0.911565
0.894675
0.878965
0.86425
0.85033
0.837006
0.824095
0.811446
0.798952
0.78654
0.774167
0.761812
0.749464
0.737118
0.724774
0.712429
0.700084
0.68774
0.675396
0.663051
0.650707
0.638363
0.626018
0.613674
0.60133
0.588986
0.576641
0.564297
0.551953
0.539608
0.527264
0.51492
0.502576
0.490231
0.477887
0.465543
0.453199
0.440854
0.42851
0.416166
0.403822
0.391477
0.379133
0.366789
0.354444
0.3421
0.329756
0.317412
0.305067
0.292723
0.280379
0.268035
0.25569
0.243346
0.231002
0.218658
0.206313
0.193969
0.181625
0.169281
0.156936
0.144592
0.132248
0.119904
0.107559
0.0952152
0.0828709
0.0705267
0.0581824
0.0458382
0.0334939
0.0211497
0.00880546
-0.00353878
-0.015883
-0.0282273
-0.0405715
-0.0529157
-0.06526
-0.0776042
-0.0899484
-0.102293
-0.114637
-0.126981
-0.139325
-0.151669
-0.164012
-0.176356
-0.188701
-0.200975
0.200975
1.23303
1.23303
1.19924
1.16033
1.12186
1.08559
1.05243
1.02261
0.99591
0.9719
0.950117
0.930189
0.911844
0.894876
0.879105
0.864343
0.850389
0.83704
0.824113
0.811456
0.798956
0.786541
0.774168
0.761812
0.749464
0.737118
0.724773
0.712429
0.700084
0.68774
0.675396
0.663051
0.650707
0.638363
0.626018
0.613674
0.60133
0.588986
0.576641
0.564297
0.551953
0.539608
0.527264
0.51492
0.502576
0.490231
0.477887
0.465543
0.453199
0.440854
0.42851
0.416166
0.403822
0.391477
0.379133
0.366789
0.354444
0.3421
0.329756
0.317412
0.305067
0.292723
0.280379
0.268035
0.25569
0.243346
0.231002
0.218658
0.206313
0.193969
0.181625
0.169281
0.156936
0.144592
0.132248
0.119904
0.107559
0.0952152
0.0828709
0.0705267
0.0581824
0.0458382
0.0334939
0.0211497
0.00880546
-0.00353878
-0.015883
-0.0282273
-0.0405715
-0.0529157
-0.06526
-0.0776042
-0.0899484
-0.102293
-0.114637
-0.126981
-0.139325
-0.151668
-0.164009
-0.176348
-0.188675
-0.200964
0.200964
1.22346
1.22346
1.19675
1.16044
1.12282
1.08679
1.0536
1.02364
0.996767
0.972585
0.95066
0.930621
0.912187
0.895148
0.879314
0.864498
0.850498
0.837113
0.824158
0.811481
0.798969
0.786547
0.77417
0.761813
0.749464
0.737118
0.724773
0.712429
0.700084
0.68774
0.675396
0.663051
0.650707
0.638363
0.626018
0.613674
0.60133
0.588986
0.576641
0.564297
0.551953
0.539608
0.527264
0.51492
0.502576
0.490231
0.477887
0.465543
0.453199
0.440854
0.42851
0.416166
0.403822
0.391477
0.379133
0.366789
0.354444
0.3421
0.329756
0.317412
0.305067
0.292723
0.280379
0.268035
0.25569
0.243346
0.231002
0.218658
0.206313
0.193969
0.181625
0.169281
0.156936
0.144592
0.132248
0.119904
0.107559
0.0952152
0.0828709
0.0705267
0.0581824
0.0458382
0.0334939
0.0211497
0.00880546
-0.00353878
-0.015883
-0.0282273
-0.0405715
-0.0529157
-0.06526
-0.0776042
-0.0899484
-0.102293
-0.114637
-0.126981
-0.139325
-0.151667
-0.164006
-0.176337
-0.188632
-0.200948
0.200948
1.21814
1.21814
1.19512
1.16046
1.12341
1.08756
1.05437
1.02433
0.997348
0.973059
0.951044
0.930934
0.912445
0.895358
0.879483
0.864627
0.850592
0.837177
0.824199
0.811505
0.798982
0.786554
0.774173
0.761814
0.749464
0.737118
0.724773
0.712429
0.700084
0.68774
0.675396
0.663051
0.650707
0.638363
0.626018
0.613674
0.60133
0.588986
0.576641
0.564297
0.551953
0.539608
0.527264
0.51492
0.502576
0.490231
0.477887
0.465543
0.453199
0.440854
0.42851
0.416166
0.403822
0.391477
0.379133
0.366789
0.354444
0.3421
0.329756
0.317412
0.305067
0.292723
0.280379
0.268035
0.25569
0.243346
0.231002
0.218658
0.206313
0.193969
0.181625
0.169281
0.156936
0.144592
0.132248
0.119904
0.107559
0.0952152
0.0828709
0.0705267
0.0581824
0.0458382
0.0334939
0.0211497
0.00880546
-0.00353878
-0.015883
-0.0282273
-0.0405715
-0.0529157
-0.06526
-0.0776042
-0.0899484
-0.102293
-0.114637
-0.126981
-0.139324
-0.151667
-0.164004
-0.176328
-0.188596
-0.200933
0.200933
1.21644
1.21644
1.19458
1.16047
1.12362
1.08783
1.05465
1.02458
0.997556
0.973229
0.951183
0.931049
0.91254
0.895436
0.879545
0.864675
0.850627
0.837201
0.824214
0.811514
0.798987
0.786556
0.774174
0.761815
0.749465
0.737118
0.724773
0.712429
0.700084
0.68774
0.675396
0.663051
0.650707
0.638363
0.626018
0.613674
0.60133
0.588986
0.576641
0.564297
0.551953
0.539608
0.527264
0.51492
0.502576
0.490231
0.477887
0.465543
0.453199
0.440854
0.42851
0.416166
0.403822
0.391477
0.379133
0.366789
0.354444
0.3421
0.329756
0.317412
0.305067
0.292723
0.280379
0.268035
0.25569
0.243346
0.231002
0.218658
0.206313
0.193969
0.181625
0.169281
0.156936
0.144592
0.132248
0.119904
0.107559
0.0952152
0.0828709
0.0705267
0.0581824
0.0458382
0.0334939
0.0211497
0.00880546
-0.00353878
-0.015883
-0.0282273
-0.0405715
-0.0529157
-0.06526
-0.0776042
-0.0899484
-0.102293
-0.114637
-0.126981
-0.139324
-0.151666
-0.164003
-0.176324
-0.188583
-0.200928
0.200928
1.21814
1.21814
1.19512
1.16046
1.12341
1.08756
1.05437
1.02433
0.997348
0.973059
0.951044
0.930934
0.912445
0.895358
0.879483
0.864627
0.850592
0.837177
0.824199
0.811505
0.798982
0.786554
0.774173
0.761814
0.749464
0.737118
0.724773
0.712429
0.700084
0.68774
0.675396
0.663051
0.650707
0.638363
0.626018
0.613674
0.60133
0.588986
0.576641
0.564297
0.551953
0.539608
0.527264
0.51492
0.502576
0.490231
0.477887
0.465543
0.453199
0.440854
0.42851
0.416166
0.403822
0.391477
0.379133
0.366789
0.354444
0.3421
0.329756
0.317412
0.305067
0.292723
0.280379
0.268035
0.25569
0.243346
0.231002
0.218658
0.206313
0.193969
0.181625
0.169281
0.156936
0.144592
0.132248
0.119904
0.107559
0.0952152
0.0828709
0.0705267
0.0581824
0.0458382
0.0334939
0.0211497
0.00880546
-0.00353878
-0.015883
-0.0282273
-0.0405715
-0.0529157
-0.06526
-0.0776042
-0.0899484
-0.102293
-0.114637
-0.126981
-0.139324
-0.151667
-0.164004
-0.176328
-0.188596
-0.200933
0.200933
1.22346
1.22346
1.19675
1.16044
1.12282
1.08679
1.0536
1.02364
0.996767
0.972585
0.95066
0.930621
0.912187
0.895148
0.879314
0.864498
0.850498
0.837113
0.824158
0.811481
0.798969
0.786547
0.77417
0.761813
0.749464
0.737118
0.724773
0.712429
0.700084
0.68774
0.675396
0.663051
0.650707
0.638363
0.626018
0.613674
0.60133
0.588986
0.576641
0.564297
0.551953
0.539608
0.527264
0.51492
0.502576
0.490231
0.477887
0.465543
0.453199
0.440854
0.42851
0.416166
0.403822
0.391477
0.379133
0.366789
0.354444
0.3421
0.329756
0.317412
0.305067
0.292723
0.280379
0.268035
0.25569
0.243346
0.231002
0.218658
0.206313
0.193969
0.181625
0.169281
0.156936
0.144592
0.132248
0.119904
0.107559
0.0952152
0.0828709
0.0705267
0.0581824
0.0458382
0.0334939
0.0211497
0.00880546
-0.00353878
-0.015883
-0.0282273
-0.0405715
-0.0529157
-0.06526
-0.0776042
-0.0899484
-0.102293
-0.114637
-0.126981
-0.139325
-0.151667
-0.164006
-0.176337
-0.188632
-0.200948
0.200948
1.23303
1.23303
1.19924
1.16033
1.12186
1.08559
1.05243
1.02261
0.99591
0.9719
0.950117
0.930189
0.911844
0.894876
0.879105
0.864343
0.850389
0.83704
0.824113
0.811456
0.798956
0.786541
0.774168
0.761812
0.749464
0.737118
0.724773
0.712429
0.700084
0.68774
0.675396
0.663051
0.650707
0.638363
0.626018
0.613674
0.60133
0.588986
0.576641
0.564297
0.551953
0.539608
0.527264
0.51492
0.502576
0.490231
0.477887
0.465543
0.453199
0.440854
0.42851
0.416166
0.403822
0.391477
0.379133
0.366789
0.354444
0.3421
0.329756
0.317412
0.305067
0.292723
0.280379
0.268035
0.25569
0.243346
0.231002
0.218658
0.206313
0.193969
0.181625
0.169281
0.156936
0.144592
0.132248
0.119904
0.107559
0.0952152
0.0828709
0.0705267
0.0581824
0.0458382
0.0334939
0.0211497
0.00880546
-0.00353878
-0.015883
-0.0282273
-0.0405715
-0.0529157
-0.06526
-0.0776042
-0.0899484
-0.102293
-0.114637
-0.126981
-0.139325
-0.151668
-0.164009
-0.176348
-0.188675
-0.200964
0.200964
1.24801
1.24801
1.20212
1.1601
1.12075
1.08427
1.05117
1.02153
0.995046
0.971233
0.949613
0.929812
0.911565
0.894675
0.878965
0.86425
0.85033
0.837006
0.824095
0.811446
0.798952
0.78654
0.774167
0.761812
0.749464
0.737118
0.724774
0.712429
0.700084
0.68774
0.675396
0.663051
0.650707
0.638363
0.626018
0.613674
0.60133
0.588986
0.576641
0.564297
0.551953
0.539608
0.527264
0.51492
0.502576
0.490231
0.477887
0.465543
0.453199
0.440854
0.42851
0.416166
0.403822
0.391477
0.379133
0.366789
0.354444
0.3421
0.329756
0.317412
0.305067
0.292723
0.280379
0.268035
0.25569
0.243346
0.231002
0.218658
0.206313
0.193969
0.181625
0.169281
0.156936
0.144592
0.132248
0.119904
0.107559
0.0952152
0.0828709
0.0705267
0.0581824
0.0458382
0.0334939
0.0211497
0.00880546
-0.00353878
-0.015883
-0.0282273
-0.0405715
-0.0529157
-0.06526
-0.0776042
-0.0899484
-0.102293
-0.114637
-0.126981
-0.139325
-0.151669
-0.164012
-0.176356
-0.188701
-0.200975
0.200975
1.26895
1.26895
1.20411
1.15987
1.12005
1.08347
1.05042
1.0209
0.994539
0.970841
0.94932
0.929601
0.911421
0.894585
0.878914
0.864225
0.850322
0.837006
0.824097
0.811449
0.798954
0.786541
0.774168
0.761813
0.749464
0.737119
0.724774
0.712429
0.700084
0.68774
0.675396
0.663051
0.650707
0.638363
0.626018
0.613674
0.60133
0.588986
0.576641
0.564297
0.551953
0.539608
0.527264
0.51492
0.502576
0.490231
0.477887
0.465543
0.453199
0.440854
0.42851
0.416166
0.403822
0.391477
0.379133
0.366789
0.354444
0.3421
0.329756
0.317412
0.305067
0.292723
0.280379
0.268035
0.25569
0.243346
0.231002
0.218658
0.206313
0.193969
0.181625
0.169281
0.156936
0.144592
0.132248
0.119904
0.107559
0.0952152
0.0828709
0.0705267
0.0581824
0.0458382
0.0334939
0.0211497
0.00880546
-0.00353878
-0.015883
-0.0282273
-0.0405715
-0.0529157
-0.06526
-0.0776042
-0.0899484
-0.102293
-0.114637
-0.126981
-0.139325
-0.15167
-0.164012
-0.176357
-0.188702
-0.200977
0.200977
1.26895
1.26895
1.20411
1.15987
1.12005
1.08347
1.05042
1.0209
0.994539
0.970841
0.94932
0.929601
0.911421
0.894585
0.878914
0.864225
0.850322
0.837006
0.824097
0.811449
0.798954
0.786541
0.774168
0.761813
0.749464
0.737119
0.724774
0.712429
0.700084
0.68774
0.675396
0.663051
0.650707
0.638363
0.626018
0.613674
0.60133
0.588986
0.576641
0.564297
0.551953
0.539608
0.527264
0.51492
0.502576
0.490231
0.477887
0.465543
0.453199
0.440854
0.42851
0.416166
0.403822
0.391477
0.379133
0.366789
0.354444
0.3421
0.329756
0.317412
0.305067
0.292723
0.280379
0.268035
0.25569
0.243346
0.231002
0.218658
0.206313
0.193969
0.181625
0.169281
0.156936
0.144592
0.132248
0.119904
0.107559
0.0952152
0.0828709
0.0705267
0.0581824
0.0458382
0.0334939
0.0211497
0.00880546
-0.00353878
-0.015883
-0.0282273
-0.0405715
-0.0529157
-0.06526
-0.0776042
-0.0899484
-0.102293
-0.114637
-0.126981
-0.139325
-0.15167
-0.164012
-0.176357
-0.188702
-0.200977
0.200977
SCALARS phi double
LOOKUP_TABLE phi
1.00001
0.999992
1.00001
1.00018
0.999546
0.999469
1.00386
1.00446
0.977545
0.906549
0.798082
0.672979
0.550061
0.439261
0.343502
0.262581
0.195528
0.141327
0.0988699
0.066813
0.0435596
0.0273822
0.0165938
0.00969571
0.00546427
0.00297184
0.00156072
0.000791985
0.000388602
0.000184501
8.48209e-05
3.77857e-05
1.6322e-05
6.8412e-06
2.78416e-06
1.10087e-06
4.23183e-07
1.58245e-07
5.75961e-08
2.04155e-08
7.05125e-09
2.3743e-09
7.79808e-10
2.49937e-10
7.82108e-11
2.39051e-11
7.13989e-12
2.08473e-12
5.95304e-13
1.66314e-13
4.54759e-14
1.21746e-14
3.19225e-15
8.20084e-16
2.0648e-16
5.09676e-17
1.23378e-17
2.92978e-18
6.8267e-19
1.56129e-19
3.50568e-20
7.7301e-21
1.6743e-21
3.56302e-22
7.45151e-23
1.53183e-23
3.09607e-24
6.15374e-25
1.20306e-25
2.31387e-26
4.37907e-27
8.15639e-28
1.49543e-28
2.6994e-29
4.79817e-30
8.3997e-31
1.44845e-31
2.46075e-32
4.11928e-33
6.79565e-34
1.105e-34
1.77123e-35
2.7992e-36
4.36212e-37
6.70383e-38
1.01617e-38
1.51945e-39
2.24148e-40
3.2626e-41
4.68624e-42
6.64307e-43
9.29489e-44
1.28381e-44
1.75058e-45
2.35687e-46
3.13334e-47
4.11383e-48
5.33444e-49
6.83336e-50
8.64735e-51
1.08206e-51
1.2968e-52
1.2968e-52
1.00001
0.999992
1.00001
1.00018
0.999546
0.999469
1.00386
1.00446
0.977545
0.906549
0.798082
0.672979
0.550061
0.439261
0.343502
0.262581
0.195528
0.141327
0.0988699
0.066813
0.0435596
0.0273822
0.0165938
0.00969571
0.00546427
0.00297184
0.00156072
0.000791985
0.000388602
0.000184501
8.48209e-05
3.77857e-05
1.6322e-05
6.8412e-06
2.78416e-06
1.10087e-06
4.23183e-07
1.58245e-07
5.75961e-08
2.04155e-08
7.05125e-09
2.3743e-09
7.79808e-10
2.49937e-10
7.82108e-11
2.39051e-11
7.13989e-12
2.08473e-12
5.95304e-13
1.66314e-13
4.54759e-14
1.21746e-14
3.19225e-15
8.20084e-16
2.0648e-16
5.09676e-17
1.23378e-17
2.92978e-18
6.8267e-19
1.56129e-19
3.50568e-20
7.7301e-21
1.6743e-21
3.56302e-22
7.45151e-23
1.53183e-23
3.09607e-24
6.15374e-25
1.20306e-25
2.31387e-26
4.37907e-27
8.15639e-28
1.49543e-28
2.6994e-29
4.79817e-30
8.3997e-31
1.44845e-31
2.46075e-32
4.11928e-33
6.79565e-34
1.105e-34
1.77123e-35
2.7992e-36
4.36212e-37
6.70383e-38
1.01617e-38
1.51945e-39
2.24148e-40
3.2626e-41
4.68624e-42
6.64307e-43
9.29489e-44
1.28381e-44
1.75058e-45
2.35687e-46
3.13334e-47
4.11383e-48
5.33444e-49
6.83336e-50
8.64735e-51
1.08206e-51
1.2968e-52
1.2968e-52
1
0.999997
0.999988
1.00009
0.999947
0.999563
1.00031
1.00196
0.999366
0.984804
0.953165
0.904155
0.84057
0.765664
0.682018
0.591989
0.498577
0.405761
0.318034
0.239507
0.173057
0.119899
0.0796487
0.0507512
0.0310388
0.0182355
0.0103013
0.00560092
0.00293396
0.00148222
0.00072287
0.000340651
0.00015526
6.85001e-05
2.92803e-05
1.21356e-05
4.88072e-06
1.90619e-06
7.23453e-07
2.67e-07
9.58841e-08
3.35262e-08
1.14203e-08
3.79201e-09
1.22799e-09
3.88039e-10
1.19709e-10
3.60703e-11
1.06205e-11
3.05703e-12
8.60586e-13
2.3703e-13
6.38991e-14
1.68666e-14
4.36073e-15
1.10468e-15
2.74287e-16
6.67731e-17
1.59426e-17
3.73431e-18
8.58375e-19
1.93678e-19
4.29076e-20
9.33585e-21
1.99548e-21
4.19101e-22
8.65109e-23
1.75551e-23
3.50274e-24
6.87356e-25
1.32682e-25
2.51993e-26
4.70968e-27
8.66377e-28
1.56897e-28
2.79761e-29
4.91254e-30
8.49653e-31
1.44765e-31
2.43022e-32
4.02024e-33
6.55462e-34
1.05341e-34
1.66904e-35
2.60741e-36
4.0169e-37
6.10331e-38
9.14724e-39
1.35245e-39
1.97291e-40
2.83992e-41
4.03429e-42
5.65637e-43
7.82833e-44
1.06957e-44
1.44278e-45
1.92173e-46
2.52773e-47
3.28388e-48
4.21377e-49
5.34581e-50
6.48223e-51
6.48223e-51
0.999997
1
0.99997
0.999924
0.999759
0.999344
0.998912
0.998723
0.99819
0.995691
0.989256
0.977258
0.958325
0.930643
0.891506
0.837815
0.767502
0.681083
0.58239
0.477997
0.375618
0.282233
0.202689
0.139159
0.091398
0.0574774
0.0346462
0.0200403
0.0111367
0.00595274
0.00306399
0.00152038
0.000728081
0.000336836
0.000150694
6.5256e-05
2.73766e-05
1.11364e-05
4.39604e-06
1.68526e-06
6.2788e-07
2.27505e-07
8.02226e-08
2.75465e-08
9.21637e-09
3.00625e-09
9.56526e-10
2.97031e-10
9.0065e-11
2.66787e-11
7.72368e-12
2.18638e-12