# vtk DataFile Version 3.0
FlowField
ASCII
DATASET STRUCTURED_GRID
DIMENSIONS 103 13 1 
POINTS 1339 double
0 0 0
0.3 0 0
0.6 0 0
0.9 0 0
1.2 0 0
1.5 0 0
1.8 0 0
2.1 0 0
2.4 0 0
2.7 0 0
3 0 0
3.3 0 0
3.6 0 0
3.9 0 0
4.2 0 0
4.5 0 0
4.8 0 0
5.1 0 0
5.4 0 0
5.7 0 0
6 0 0
6.3 0 0
6.6 0 0
6.9 0 0
7.2 0 0
7.5 0 0
7.8 0 0
8.1 0 0
8.4 0 0
8.7 0 0
9 0 0
9.3 0 0
9.6 0 0
9.9 0 0
10.2 0 0
10.5 0 0
10.8 0 0
11.1 0 0
11.4 0 0
11.7 0 0
12 0 0
12.3 0 0
12.6 0 0
12.9 0 0
13.2 0 0
13.5 0 0
13.8 0 0
14.1 0 0
14.4 0 0
14.7 0 0
15 0 0
15.3 0 0
15.6 0 0
15.9 0 0
16.2 0 0
16.5 0 0
16.8 0 0
17.1 0 0
17.4 0 0
17.7 0 0
18 0 0
18.3 0 0
18.6 0 0
18.9 0 0
19.2 0 0
19.5 0 0
19.8 0 0
20.1 0 0
20.4 0 0
20.7 0 0
21 0 0
21.3 0 0
21.6 0 0
21.9 0 0
22.2 0 0
22.5 0 0
22.8 0 0
23.1 0 0
23.4 0 0
23.7 0 0
24 0 0
24.3 0 0
24.6 0 0
24.9 0 0
25.2 0 0
25.5 0 0
25.8 0 0
26.1 0 0
26.4 0 0
26.7 0 0
27 0 0
27.3 0 0
27.6 0 0
27.9 0 0
28.2 0 0
28.5 0 0
28.8 0 0
29.1 0 0
29.4 0 0
29.7 0 0
30 0 0
30.3 0 0
30.6 0 0
0 0.1 0
0.3 0.1 0
0.6 0.1 0
0.9 0.1 0
1.2 0.1 0
1.5 0.1 0
1.8 0.1 0
2.1 0.1 0
2.4 0.1 0
2.7 0.1 0
3 0.1 0
3.3 0.1 0
3.6 0.1 0
3.9 0.1 0
4.2 0.1 0
4.5 0.1 0
4.8 0.1 0
5.1 0.1 0
5.4 0.1 0
5.7 0.1 0
6 0.1 0
6.3 0.1 0
6.6 0.1 0
6.9 0.1 0
7.2 0.1 0
7.5 0.1 0
7.8 0.1 0
8.1 0.1 0
8.4 0.1 0
8.7 0.1 0
9 0.1 0
9.3 0.1 0
9.6 0.1 0
9.9 0.1 0
10.2 0.1 0
10.5 0.1 0
10.8 0.1 0
11.1 0.1 0
11.4 0.1 0
11.7 0.1 0
12 0.1 0
12.3 0.1 0
12.6 0.1 0
12.9 0.1 0
13.2 0.1 0
13.5 0.1 0
13.8 0.1 0
14.1 0.1 0
14.4 0.1 0
14.7 0.1 0
15 0.1 0
15.3 0.1 0
15.6 0.1 0
15.9 0.1 0
16.2 0.1 0
16.5 0.1 0
16.8 0.1 0
17.1 0.1 0
17.4 0.1 0
17.7 0.1 0
18 0.1 0
18.3 0.1 0
18.6 0.1 0
18.9 0.1 0
19.2 0.1 0
19.5 0.1 0
19.8 0.1 0
20.1 0.1 0
20.4 0.1 0
20.7 0.1 0
21 0.1 0
21.3 0.1 0
21.6 0.1 0
21.9 0.1 0
22.2 0.1 0
22.5 0.1 0
22.8 0.1 0
23.1 0.1 0
23.4 0.1 0
23.7 0.1 0
24 0.1 0
24.3 0.1 0
24.6 0.1 0
24.9 0.1 0
25.2 0.1 0
25.5 0.1 0
25.8 0.1 0
26.1 0.1 0
26.4 0.1 0
26.7 0.1 0
27 0.1 0
27.3 0.1 0
27.6 0.1 0
27.9 0.1 0
28.2 0.1 0
28.5 0.1 0
28.8 0.1 0
29.1 0.1 0
29.4 0.1 0
29.7 0.1 0
30 0.1 0
30.3 0.1 0
30.6 0.1 0
0 0.2 0
0.3 0.2 0
0.6 0.2 0
0.9 0.2 0
1.2 0.2 0
1.5 0.2 0
1.8 0.2 0
2.1 0.2 0
2.4 0.2 0
2.7 0.2 0
3 0.2 0
3.3 0.2 0
3.6 0.2 0
3.9 0.2 0
4.2 0.2 0
4.5 0.2 0
4.8 0.2 0
5.1 0.2 0
5.4 0.2 0
5.7 0.2 0
6 0.2 0
6.3 0.2 0
6.6 0.2 0
6.9 0.2 0
7.2 0.2 0
7.5 0.2 0
7.8 0.2 0
8.1 0.2 0
8.4 0.2 0
8.7 0.2 0
9 0.2 0
9.3 0.2 0
9.6 0.2 0
9.9 0.2 0
10.2 0.2 0
10.5 0.2 0
10.8 0.2 0
11.1 0.2 0
11.4 0.2 0
11.7 0.2 0
12 0.2 0
12.3 0.2 0
12.6 0.2 0
12.9 0.2 0
13.2 0.2 0
13.5 0.2 0
13.8 0.2 0
14.1 0.2 0
14.4 0.2 0
14.7 0.2 0
15 0.2 0
15.3 0.2 0
15.6 0.2 0
15.9 0.2 0
16.2 0.2 0
16.5 0.2 0
16.8 0.2 0
17.1 0.2 0
17.4 0.2 0
17.7 0.2 0
18 0.2 0
18.3 0.2 0
18.6 0.2 0
18.9 0.2 0
19.2 0.2 0
19.5 0.2 0
19.8 0.2 0
20.1 0.2 0
20.4 0.2 0
20.7 0.2 0
21 0.2 0
21.3 0.2 0
21.6 0.2 0
21.9 0.2 0
22.2 0.2 0
22.5 0.2 0
22.8 0.2 0
23.1 0.2 0
23.4 0.2 0
23.7 0.2 0
24 0.2 0
24.3 0.2 0
24.6 0.2 0
24.9 0.2 0
25.2 0.2 0
25.5 0.2 0
25.8 0.2 0
26.1 0.2 0
26.4 0.2 0
26.7 0.2 0
27 0.2 0
27.3 0.2 0
27.6 0.2 0
27.9 0.2 0
28.2 0.2 0
28.5 0.2 0
28.8 0.2 0
29.1 0.2 0
29.4 0.2 0
29.7 0.2 0
30 0.2 0
30.3 0.2 0
30.6 0.2 0
0 0.3 0
0.3 0.3 0
0.6 0.3 0
0.9 0.3 0
1.2 0.3 0
1.5 0.3 0
1.8 0.3 0
2.1 0.3 0
2.4 0.3 0
2.7 0.3 0
3 0.3 0
3.3 0.3 0
3.6 0.3 0
3.9 0.3 0
4.2 0.3 0
4.5 0.3 0
4.8 0.3 0
5.1 0.3 0
5.4 0.3 0
5.7 0.3 0
6 0.3 0
6.3 0.3 0
6.6 0.3 0
6.9 0.3 0
7.2 0.3 0
7.5 0.3 0
7.8 0.3 0
8.1 0.3 0
8.4 0.3 0
8.7 0.3 0
9 0.3 0
9.3 0.3 0
9.6 0.3 0
9.9 0.3 0
10.2 0.3 0
10.5 0.3 0
10.8 0.3 0
11.1 0.3 0
11.4 0.3 0
11.7 0.3 0
12 0.3 0
12.3 0.3 0
12.6 0.3 0
12.9 0.3 0
13.2 0.3 0
13.5 0.3 0
13.8 0.3 0
14.1 0.3 0
14.4 0.3 0
14.7 0.3 0
15 0.3 0
15.3 0.3 0
15.6 0.3 0
15.9 0.3 0
16.2 0.3 0
16.5 0.3 0
16.8 0.3 0
17.1 0.3 0
17.4 0.3 0
17.7 0.3 0
18 0.3 0
18.3 0.3 0
18.6 0.3 0
18.9 0.3 0
19.2 0.3 0
19.5 0.3 0
19.8 0.3 0
20.1 0.3 0
20.4 0.3 0
20.7 0.3 0
21 0.3 0
21.3 0.3 0
21.6 0.3 0
21.9 0.3 0
22.2 0.3 0
22.5 0.3 0
22.8 0.3 0
23.1 0.3 0
23.4 0.3 0
23.7 0.3 0
24 0.3 0
24.3 0.3 0
24.6 0.3 0
24.9 0.3 0
25.2 0.3 0
25.5 0.3 0
25.8 0.3 0
26.1 0.3 0
26.4 0.3 0
26.7 0.3 0
27 0.3 0
27.3 0.3 0
27.6 0.3 0
27.9 0.3 0
28.2 0.3 0
28.5 0.3 0
28.8 0.3 0
29.1 0.3 0
29.4 0.3 0
29.7 0.3 0
30 0.3 0
30.3 0.3 0
30.6 0.3 0
0 0.4 0
0.3 0.4 0
0.6 0.4 0
0.9 0.4 0
1.2 0.4 0
1.5 0.4 0
1.8 0.4 0
2.1 0.4 0
2.4 0.4 0
2.7 0.4 0
3 0.4 0
3.3 0.4 0
3.6 0.4 0
3.9 0.4 0
4.2 0.4 0
4.5 0.4 0
4.8 0.4 0
5.1 0.4 0
5.4 0.4 0
5.7 0.4 0
6 0.4 0
6.3 0.4 0
6.6 0.4 0
6.9 0.4 0
7.2 0.4 0
7.5 0.4 0
7.8 0.4 0
8.1 0.4 0
8.4 0.4 0
8.7 0.4 0
9 0.4 0
9.3 0.4 0
9.6 0.4 0
9.9 0.4 0
10.2 0.4 0
10.5 0.4 0
10.8 0.4 0
11.1 0.4 0
11.4 0.4 0
11.7 0.4 0
12 0.4 0
12.3 0.4 0
12.6 0.4 0
12.9 0.4 0
13.2 0.4 0
13.5 0.4 0
13.8 0.4 0
14.1 0.4 0
14.4 0.4 0
14.7 0.4 0
15 0.4 0
15.3 0.4 0
15.6 0.4 0
15.9 0.4 0
16.2 0.4 0
16.5 0.4 0
16.8 0.4 0
17.1 0.4 0
17.4 0.4 0
17.7 0.4 0
18 0.4 0
18.3 0.4 0
18.6 0.4 0
18.9 0.4 0
19.2 0.4 0
19.5 0.4 0
19.8 0.4 0
20.1 0.4 0
20.4 0.4 0
20.7 0.4 0
21 0.4 0
21.3 0.4 0
21.6 0.4 0
21.9 0.4 0
22.2 0.4 0
22.5 0.4 0
22.8 0.4 0
23.1 0.4 0
23.4 0.4 0
23.7 0.4 0
24 0.4 0
24.3 0.4 0
24.6 0.4 0
24.9 0.4 0
25.2 0.4 0
25.5 0.4 0
25.8 0.4 0
26.1 0.4 0
26.4 0.4 0
26.7 0.4 0
27 0.4 0
27.3 0.4 0
27.6 0.4 0
27.9 0.4 0
28.2 0.4 0
28.5 0.4 0
28.8 0.4 0
29.1 0.4 0
29.4 0.4 0
29.7 0.4 0
30 0.4 0
30.3 0.4 0
30.6 0.4 0
0 0.5 0
0.3 0.5 0
0.6 0.5 0
0.9 0.5 0
1.2 0.5 0
1.5 0.5 0
1.8 0.5 0
2.1 0.5 0
2.4 0.5 0
2.7 0.5 0
3 0.5 0
3.3 0.5 0
3.6 0.5 0
3.9 0.5 0
4.2 0.5 0
4.5 0.5 0
4.8 0.5 0
5.1 0.5 0
5.4 0.5 0
5.7 0.5 0
6 0.5 0
6.3 0.5 0
6.6 0.5 0
6.9 0.5 0
7.2 0.5 0
7.5 0.5 0
7.8 0.5 0
8.1 0.5 0
8.4 0.5 0
8.7 0.5 0
9 0.5 0
9.3 0.5 0
9.6 0.5 0
9.9 0.5 0
10.2 0.5 0
10.5 0.5 0
10.8 0.5 0
11.1 0.5 0
11.4 0.5 0
11.7 0.5 0
12 0.5 0
12.3 0.5 0
12.6 0.5 0
12.9 0.5 0
13.2 0.5 0
13.5 0.5 0
13.8 0.5 0
14.1 0.5 0
14.4 0.5 0
14.7 0.5 0
15 0.5 0
15.3 0.5 0
15.6 0.5 0
15.9 0.5 0
16.2 0.5 0
16.5 0.5 0
16.8 0.5 0
17.1 0.5 0
17.4 0.5 0
17.7 0.5 0
18 0.5 0
18.3 0.5 0
18.6 0.5 0
18.9 0.5 0
19.2 0.5 0
19.5 0.5 0
19.8 0.5 0
20.1 0.5 0
20.4 0.5 0
20.7 0.5 0
21 0.5 0
21.3 0.5 0
21.6 0.5 0
21.9 0.5 0
22.2 0.5 0
22.5 0.5 0
22.8 0.5 0
23.1 0.5 0
23.4 0.5 0
23.7 0.5 0
24 0.5 0
24.3 0.5 0
24.6 0.5 0
24.9 0.5 0
25.2 0.5 0
25.5 0.5 0
25.8 0.5 0
26.1 0.5 0
26.4 0.5 0
26.7 0.5 0
27 0.5 0
27.3 0.5 0
27.6 0.5 0
27.9 0.5 0
28.2 0.5 0
28.5 0.5 0
28.8 0.5 0
29.1 0.5 0
29.4 0.5 0
29.7 0.5 0
30 0.5 0
30.3 0.5 0
30.6 0.5 0
0 0.6 0
0.3 0.6 0
0.6 0.6 0
0.9 0.6 0
1.2 0.6 0
1.5 0.6 0
1.8 0.6 0
2.1 0.6 0
2.4 0.6 0
2.7 0.6 0
3 0.6 0
3.3 0.6 0
3.6 0.6 0
3.9 0.6 0
4.2 0.6 0
4.5 0.6 0
4.8 0.6 0
5.1 0.6 0
5.4 0.6 0
5.7 0.6 0
6 0.6 0
6.3 0.6 0
6.6 0.6 0
6.9 0.6 0
7.2 0.6 0
7.5 0.6 0
7.8 0.6 0
8.1 0.6 0
8.4 0.6 0
8.7 0.6 0
9 0.6 0
9.3 0.6 0
9.6 0.6 0
9.9 0.6 0
10.2 0.6 0
10.5 0.6 0
10.8 0.6 0
11.1 0.6 0
11.4 0.6 0
11.7 0.6 0
12 0.6 0
12.3 0.6 0
12.6 0.6 0
12.9 0.6 0
13.2 0.6 0
13.5 0.6 0
13.8 0.6 0
14.1 0.6 0
14.4 0.6 0
14.7 0.6 0
15 0.6 0
15.3 0.6 0
15.6 0.6 0
15.9 0.6 0
16.2 0.6 0
16.5 0.6 0
16.8 0.6 0
17.1 0.6 0
17.4 0.6 0
17.7 0.6 0
18 0.6 0
18.3 0.6 0
18.6 0.6 0
18.9 0.6 0
19.2 0.6 0
19.5 0.6 0
19.8 0.6 0
20.1 0.6 0
20.4 0.6 0
20.7 0.6 0
21 0.6 0
21.3 0.6 0
21.6 0.6 0
21.9 0.6 0
22.2 0.6 0
22.5 0.6 0
22.8 0.6 0
23.1 0.6 0
23.4 0.6 0
23.7 0.6 0
24 0.6 0
24.3 0.6 0
24.6 0.6 0
24.9 0.6 0
25.2 0.6 0
25.5 0.6 0
25.8 0.6 0
26.1 0.6 0
26.4 0.6 0
26.7 0.6 0
27 0.6 0
27.3 0.6 0
27.6 0.6 0
27.9 0.6 0
28.2 0.6 0
28.5 0.6 0
28.8 0.6 0
29.1 0.6 0
29.4 0.6 0
29.7 0.6 0
30 0.6 0
30.3 0.6 0
30.6 0.6 0
0 0.7 0
0.3 0.7 0
0.6 0.7 0
0.9 0.7 0
1.2 0.7 0
1.5 0.7 0
1.8 0.7 0
2.1 0.7 0
2.4 0.7 0
2.7 0.7 0
3 0.7 0
3.3 0.7 0
3.6 0.7 0
3.9 0.7 0
4.2 0.7 0
4.5 0.7 0
4.8 0.7 0
5.1 0.7 0
5.4 0.7 0
5.7 0.7 0
6 0.7 0
6.3 0.7 0
6.6 0.7 0
6.9 0.7 0
7.2 0.7 0
7.5 0.7 0
7.8 0.7 0
8.1 0.7 0
8.4 0.7 0
8.7 0.7 0
9 0.7 0
9.3 0.7 0
9.6 0.7 0
9.9 0.7 0
10.2 0.7 0
10.5 0.7 0
10.8 0.7 0
11.1 0.7 0
11.4 0.7 0
11.7 0.7 0
12 0.7 0
12.3 0.7 0
12.6 0.7 0
12.9 0.7 0
13.2 0.7 0
13.5 0.7 0
13.8 0.7 0
14.1 0.7 0
14.4 0.7 0
14.7 0.7 0
15 0.7 0
15.3 0.7 0
15.6 0.7 0
15.9 0.7 0
16.2 0.7 0
16.5 0.7 0
16.8 0.7 0
17.1 0.7 0
17.4 0.7 0
17.7 0.7 0
18 0.7 0
18.3 0.7 0
18.6 0.7 0
18.9 0.7 0
19.2 0.7 0
19.5 0.7 0
19.8 0.7 0
20.1 0.7 0
20.4 0.7 0
20.7 0.7 0
21 0.7 0
21.3 0.7 0
21.6 0.7 0
21.9 0.7 0
22.2 0.7 0
22.5 0.7 0
22.8 0.7 0
23.1 0.7 0
23.4 0.7 0
23.7 0.7 0
24 0.7 0
24.3 0.7 0
24.6 0.7 0
24.9 0.7 0
25.2 0.7 0
25.5 0.7 0
25.8 0.7 0
26.1 0.7 0
26.4 0.7 0
26.7 0.7 0
27 0.7 0
27.3 0.7 0
27.6 0.7 0
27.9 0.7 0
28.2 0.7 0
28.5 0.7 0
28.8 0.7 0
29.1 0.7 0
29.4 0.7 0
29.7 0.7 0
30 0.7 0
30.3 0.7 0
30.6 0.7 0
0 0.8 0
0.3 0.8 0
0.6 0.8 0
0.9 0.8 0
1.2 0.8 0
1.5 0.8 0
1.8 0.8 0
2.1 0.8 0
2.4 0.8 0
2.7 0.8 0
3 0.8 0
3.3 0.8 0
3.6 0.8 0
3.9 0.8 0
4.2 0.8 0
4.5 0.8 0
4.8 0.8 0
5.1 0.8 0
5.4 0.8 0
5.7 0.8 0
6 0.8 0
6.3 0.8 0
6.6 0.8 0
6.9 0.8 0
7.2 0.8 0
7.5 0.8 0
7.8 0.8 0
8.1 0.8 0
8.4 0.8 0
8.7 0.8 0
9 0.8 0
9.3 0.8 0
9.6 0.8 0
9.9 0.8 0
10.2 0.8 0
10.5 0.8 0
10.8 0.8 0
11.1 0.8 0
11.4 0.8 0
11.7 0.8 0
12 0.8 0
12.3 0.8 0
12.6 0.8 0
12.9 0.8 0
13.2 0.8 0
13.5 0.8 0
13.8 0.8 0
14.1 0.8 0
14.4 0.8 0
14.7 0.8 0
15 0.8 0
15.3 0.8 0
15.6 0.8 0
15.9 0.8 0
16.2 0.8 0
16.5 0.8 0
16.8 0.8 0
17.1 0.8 0
17.4 0.8 0
17.7 0.8 0
18 0.8 0
18.3 0.8 0
18.6 0.8 0
18.9 0.8 0
19.2 0.8 0
19.5 0.8 0
19.8 0.8 0
20.1 0.8 0
20.4 0.8 0
20.7 0.8 0
21 0.8 0
21.3 0.8 0
21.6 0.8 0
21.9 0.8 0
22.2 0.8 0
22.5 0.8 0
22.8 0.8 0
23.1 0.8 0
23.4 0.8 0
23.7 0.8 0
24 0.8 0
24.3 0.8 0
24.6 0.8 0
24.9 0.8 0
25.2 0.8 0
25.5 0.8 0
25.8 0.8 0
26.1 0.8 0
26.4 0.8 0
26.7 0.8 0
27 0.8 0
27.3 0.8 0
27.6 0.8 0
27.9 0.8 0
28.2 0.8 0
28.5 0.8 0
28.8 0.8 0
29.1 0.8 0
29.4 0.8 0
29.7 0.8 0
30 0.8 0
30.3 0.8 0
30.6 0.8 0
0 0.9 0
0.3 0.9 0
0.6 0.9 0
0.9 0.9 0
1.2 0.9 0
1.5 0.9 0
1.8 0.9 0
2.1 0.9 0
2.4 0.9 0
2.7 0.9 0
3 0.9 0
3.3 0.9 0
3.6 0.9 0
3.9 0.9 0
4.2 0.9 0
4.5 0.9 0
4.8 0.9 0
5.1 0.9 0
5.4 0.9 0
5.7 0.9 0
6 0.9 0
6.3 0.9 0
6.6 0.9 0
6.9 0.9 0
7.2 0.9 0
7.5 0.9 0
7.8 0.9 0
8.1 0.9 0
8.4 0.9 0
8.7 0.9 0
9 0.9 0
9.3 0.9 0
9.6 0.9 0
9.9 0.9 0
10.2 0.9 0
10.5 0.9 0
10.8 0.9 0
11.1 0.9 0
11.4 0.9 0
11.7 0.9 0
12 0.9 0
12.3 0.9 0
12.6 0.9 0
12.9 0.9 0
13.2 0.9 0
13.5 0.9 0
13.8 0.9 0
14.1 0.9 0
14.4 0.9 0
14.7 0.9 0
15 0.9 0
15.3 0.9 0
15.6 0.9 0
15.9 0.9 0
16.2 0.9 0
16.5 0.9 0
16.8 0.9 0
17.1 0.9 0
17.4 0.9 0
17.7 0.9 0
18 0.9 0
18.3 0.9 0
18.6 0.9 0
18.9 0.9 0
19.2 0.9 0
19.5 0.9 0
19.8 0.9 0
20.1 0.9 0
20.4 0.9 0
20.7 0.9 0
21 0.9 0
21.3 0.9 0
21.6 0.9 0
21.9 0.9 0
22.2 0.9 0
22.5 0.9 0
22.8 0.9 0
23.1 0.9 0
23.4 0.9 0
23.7 0.9 0
24 0.9 0
24.3 0.9 0
24.6 0.9 0
24.9 0.9 0
25.2 0.9 0
25.5 0.9 0
25.8 0.9 0
26.1 0.9 0
26.4 0.9 0
26.7 0.9 0
27 0.9 0
27.3 0.9 0
27.6 0.9 0
27.9 0.9 0
28.2 0.9 0
28.5 0.9 0
28.8 0.9 0
29.1 0.9 0
29.4 0.9 0
29.7 0.9 0
30 0.9 0
30.3 0.9 0
30.6 0.9 0
0 1 0
0.3 1 0
0.6 1 0
0.9 1 0
1.2 1 0
1.5 1 0
1.8 1 0
2.1 1 0
2.4 1 0
2.7 1 0
3 1 0
3.3 1 0
3.6 1 0
3.9 1 0
4.2 1 0
4.5 1 0
4.8 1 0
5.1 1 0
5.4 1 0
5.7 1 0
6 1 0
6.3 1 0
6.6 1 0
6.9 1 0
7.2 1 0
7.5 1 0
7.8 1 0
8.1 1 0
8.4 1 0
8.7 1 0
9 1 0
9.3 1 0
9.6 1 0
9.9 1 0
10.2 1 0
10.5 1 0
10.8 1 0
11.1 1 0
11.4 1 0
11.7 1 0
12 1 0
12.3 1 0
12.6 1 0
12.9 1 0
13.2 1 0
13.5 1 0
13.8 1 0
14.1 1 0
14.4 1 0
14.7 1 0
15 1 0
15.3 1 0
15.6 1 0
15.9 1 0
16.2 1 0
16.5 1 0
16.8 1 0
17.1 1 0
17.4 1 0
17.7 1 0
18 1 0
18.3 1 0
18.6 1 0
18.9 1 0
19.2 1 0
19.5 1 0
19.8 1 0
20.1 1 0
20.4 1 0
20.7 1 0
21 1 0
21.3 1 0
21.6 1 0
21.9 1 0
22.2 1 0
22.5 1 0
22.8 1 0
23.1 1 0
23.4 1 0
23.7 1 0
24 1 0
24.3 1 0
24.6 1 0
24.9 1 0
25.2 1 0
25.5 1 0
25.8 1 0
26.1 1 0
26.4 1 0
26.7 1 0
27 1 0
27.3 1 0
27.6 1 0
27.9 1 0
28.2 1 0
28.5 1 0
28.8 1 0
29.1 1 0
29.4 1 0
29.7 1 0
30 1 0
30.3 1 0
30.6 1 0
0 1.1 0
0.3 1.1 0
0.6 1.1 0
0.9 1.1 0
1.2 1.1 0
1.5 1.1 0
1.8 1.1 0
2.1 1.1 0
2.4 1.1 0
2.7 1.1 0
3 1.1 0
3.3 1.1 0
3.6 1.1 0
3.9 1.1 0
4.2 1.1 0
4.5 1.1 0
4.8 1.1 0
5.1 1.1 0
5.4 1.1 0
5.7 1.1 0
6 1.1 0
6.3 1.1 0
6.6 1.1 0
6.9 1.1 0
7.2 1.1 0
7.5 1.1 0
7.8 1.1 0
8.1 1.1 0
8.4 1.1 0
8.7 1.1 0
9 1.1 0
9.3 1.1 0
9.6 1.1 0
9.9 1.1 0
10.2 1.1 0
10.5 1.1 0
10.8 1.1 0
11.1 1.1 0
11.4 1.1 0
11.7 1.1 0
12 1.1 0
12.3 1.1 0
12.6 1.1 0
12.9 1.1 0
13.2 1.1 0
13.5 1.1 0
13.8 1.1 0
14.1 1.1 0
14.4 1.1 0
14.7 1.1 0
15 1.1 0
15.3 1.1 0
15.6 1.1 0
15.9 1.1 0
16.2 1.1 0
16.5 1.1 0
16.8 1.1 0
17.1 1.1 0
17.4 1.1 0
17.7 1.1 0
18 1.1 0
18.3 1.1 0
18.6 1.1 0
18.9 1.1 0
19.2 1.1 0
19.5 1.1 0
19.8 1.1 0
20.1 1.1 0
20.4 1.1 0
20.7 1.1 0
21 1.1 0
21.3 1.1 0
21.6 1.1 0
21.9 1.1 0
22.2 1.1 0
22.5 1.1 0
22.8 1.1 0
23.1 1.1 0
23.4 1.1 0
23.7 1.1 0
24 1.1 0
24.3 1.1 0
24.6 1.1 0
24.9 1.1 0
25.2 1.1 0
25.5 1.1 0
25.8 1.1 0
26.1 1.1 0
26.4 1.1 0
26.7 1.1 0
27 1.1 0
27.3 1.1 0
27.6 1.1 0
27.9 1.1 0
28.2 1.1 0
28.5 1.1 0
28.8 1.1 0
29.1 1.1 0
29.4 1.1 0
29.7 1.1 0
30 1.1 0
30.3 1.1 0
30.6 1.1 0
0 1.2 0
0.3 1.2 0
0.6 1.2 0
0.9 1.2 0
1.2 1.2 0
1.5 1.2 0
1.8 1.2 0
2.1 1.2 0
2.4 1.2 0
2.7 1.2 0
3 1.2 0
3.3 1.2 0
3.6 1.2 0
3.9 1.2 0
4.2 1.2 0
4.5 1.2 0
4.8 1.2 0
5.1 1.2 0
5.4 1.2 0
5.7 1.2 0
6 1.2 0
6.3 1.2 0
6.6 1.2 0
6.9 1.2 0
7.2 1.2 0
7.5 1.2 0
7.8 1.2 0
8.1 1.2 0
8.4 1.2 0
8.7 1.2 0
9 1.2 0
9.3 1.2 0
9.6 1.2 0
9.9 1.2 0
10.2 1.2 0
10.5 1.2 0
10.8 1.2 0
11.1 1.2 0
11.4 1.2 0
11.7 1.2 0
12 1.2 0
12.3 1.2 0
12.6 1.2 0
12.9 1.2 0
13.2 1.2 0
13.5 1.2 0
13.8 1.2 0
14.1 1.2 0
14.4 1.2 0
14.7 1.2 0
15 1.2 0
15.3 1.2 0
15.6 1.2 0
15.9 1.2 0
16.2 1.2 0
16.5 1.2 0
16.8 1.2 0
17.1 1.2 0
17.4 1.2 0
17.7 1.2 0
18 1.2 0
18.3 1.2 0
18.6 1.2 0
18.9 1.2 0
19.2 1.2 0
19.5 1.2 0
19.8 1.2 0
20.1 1.2 0
20.4 1.2 0
20.7 1.2 0
21 1.2 0
21.3 1.2 0
21.6 1.2 0
21.9 1.2 0
22.2 1.2 0
22.5 1.2 0
22.8 1.2 0
23.1 1.2 0
23.4 1.2 0
23.7 1.2 0
24 1.2 0
24.3 1.2 0
24.6 1.2 0
24.9 1.2 0
25.2 1.2 0
25.5 1.2 0
25.8 1.2 0
26.1 1.2 0
26.4 1.2 0
26.7 1.2 0
27 1.2 0
27.3 1.2 0
27.6 1.2 0
27.9 1.2 0
28.2 1.2 0
28.5 1.2 0
28.8 1.2 0
29.1 1.2 0
29.4 1.2 0
29.7 1.2 0
30 1.2 0
30.3 1.2 0
30.6 1.2 0

POINT_DATA 1339

SCALARS pressure double
LOOKUP_TABLE pressure
1.17173
1.17173
1.10689
1.06266
1.02284
0.98626
0.953206
0.923678
0.897323
0.873613
0.85201
0.832048
0.813355
0.795655
0.778749
0.76249
0.746771
0.731515
0.716663
0.702168
0.687993
0.674109
0.660488
0.647109
0.633953
0.621003
0.608244
0.595661
0.583243
0.570979
0.558859
0.546872
0.535011
0.523267
0.511635
0.500106
0.488674
0.477334
0.466081
0.454909
0.443814
0.432791
0.421837
0.410947
0.400118
0.389346
0.378629
0.367964
0.357347
0.346775
0.336247
0.325761
0.315313
0.304902
0.294526
0.284182
0.27387
0.263588
0.253333
0.243105
0.232902
0.222722
0.212565
0.20243
0.192314
0.182217
0.172139
0.162078
0.152032
0.142002
0.131987
0.121985
0.111997
0.10202
0.0920558
0.0821022
0.0721591
0.0622259
0.0523021
0.0423872
0.0324807
0.0225822
0.0126913
0.00280744
-0.0070696
-0.0169402
-0.0268048
-0.0366636
-0.0465169
-0.0563652
-0.0662085
-0.0760472
-0.0858816
-0.0957117
-0.105538
-0.11536
-0.125179
-0.134995
-0.144807
-0.154617
-0.164424
-0.174228
0.174228
1.17173
1.17173
1.10689
1.06266
1.02284
0.98626
0.953206
0.923678
0.897323
0.873613
0.85201
0.832048
0.813355
0.795655
0.778749
0.76249
0.746771
0.731515
0.716663
0.702168
0.687993
0.674109
0.660488
0.647109
0.633953
0.621003
0.608244
0.595661
0.583243
0.570979
0.558859
0.546872
0.535011
0.523267
0.511635
0.500106
0.488674
0.477334
0.466081
0.454909
0.443814
0.432791
0.421837
0.410947
0.400118
0.389346
0.378629
0.367964
0.357347
0.346775
0.336247
0.325761
0.315313
0.304902
0.294526
0.284182
0.27387
0.263588
0.253333
0.243105
0.232902
0.222722
0.212565
0.20243
0.192314
0.182217
0.172139
0.162078
0.152032
0.142002
0.131987
0.121985
0.111997
0.10202
0.0920558
0.0821022
0.0721591
0.0622259
0.0523021
0.0423872
0.0324807
0.0225822
0.0126913
0.00280744
-0.0070696
-0.0169402
-0.0268048
-0.0366636
-0.0465169
-0.0563652
-0.0662085
-0.0760472
-0.0858816
-0.0957117
-0.105538
-0.11536
-0.125179
-0.134995
-0.144807
-0.154617
-0.164424
-0.174228
0.174228
1.15079
1.15079
1.1049
1.06289
1.02354
0.987055
0.953949
0.92431
0.89783
0.874008
0.852314
0.832281
0.813537
0.7958
0.778866
0.762587
0.746853
0.731586
0.716725
0.702223
0.688043
0.674153
0.660528
0.647146
0.633987
0.621034
0.608272
0.595687
0.583267
0.571002
0.558879
0.546891
0.535029
0.523284
0.51165
0.50012
0.488688
0.477347
0.466093
0.45492
0.443824
0.432801
0.421846
0.410956
0.400126
0.389354
0.378637
0.367971
0.357353
0.346781
0.336253
0.325766
0.315318
0.304907
0.29453
0.284187
0.273875
0.263592
0.253337
0.243108
0.232905
0.222725
0.212568
0.202432
0.192317
0.18222
0.172141
0.16208
0.152034
0.142004
0.131989
0.121987
0.111998
0.102022
0.0920573
0.0821036
0.0721605
0.0622272
0.0523033
0.0423883
0.0324818
0.0225832
0.0126922
0.00280835
-0.00706874
-0.0169394
-0.026804
-0.0366628
-0.0465163
-0.0563645
-0.0662079
-0.0760466
-0.085881
-0.0957112
-0.105537
-0.11536
-0.125179
-0.134995
-0.144807
-0.154616
-0.164423
-0.174227
0.174227
1.13581
1.13581
1.10202
1.06312
1.02465
0.988379
0.955211
0.925388
0.898692
0.874667
0.852807
0.832646
0.813808
0.796005
0.779025
0.762712
0.746954
0.73167
0.716796
0.702284
0.688096
0.6742
0.66057
0.647183
0.63402
0.621064
0.608299
0.595712
0.58329
0.571022
0.558898
0.546909
0.535045
0.523299
0.511664
0.500133
0.488699
0.477358
0.466103
0.45493
0.443833
0.432809
0.421854
0.410963
0.400133
0.389361
0.378643
0.367976
0.357358
0.346786
0.336258
0.325771
0.315322
0.304911
0.294534
0.28419
0.273878
0.263595
0.25334
0.243111
0.232908
0.222728
0.212571
0.202435
0.192319
0.182222
0.172143
0.162081
0.152036
0.142006
0.13199
0.121988
0.112
0.102023
0.0920584
0.0821047
0.0721615
0.0622282
0.0523042
0.0423892
0.0324826
0.022584
0.012693
0.00280905
-0.00706807
-0.0169388
-0.0268034
-0.0366623
-0.0465157
-0.056364
-0.0662074
-0.0760462
-0.0858806
-0.0957108
-0.105537
-0.11536
-0.125179
-0.134994
-0.144807
-0.154615
-0.164422
-0.174221
0.174221
1.12624
1.12624
1.09953
1.06322
1.0256
0.989573
0.956387
0.926425
0.899545
0.87534
0.853324
0.833041
0.81411
0.79624
0.77921
0.762861
0.747077
0.731773
0.716884
0.70236
0.688162
0.674258
0.660621
0.647229
0.634061
0.621101
0.608333
0.595742
0.583318
0.571048
0.558921
0.54693
0.535064
0.523317
0.51168
0.500148
0.488713
0.477371
0.466115
0.454941
0.443844
0.432819
0.421863
0.410971
0.400141
0.389368
0.37865
0.367983
0.357364
0.346792
0.336263
0.325776
0.315327
0.304915
0.294538
0.284194
0.273881
0.263598
0.253343
0.243114
0.232911
0.222731
0.212573
0.202437
0.192321
0.182224
0.172145
0.162083
0.152038
0.142008
0.131992
0.12199
0.112001
0.102025
0.0920597
0.082106
0.0721627
0.0622293
0.0523053
0.0423902
0.0324836
0.0225849
0.0126938
0.00280985
-0.0070673
-0.016938
-0.0268027
-0.0366616
-0.0465151
-0.0563634
-0.0662069
-0.0760457
-0.0858801
-0.0957103
-0.105537
-0.115359
-0.125178
-0.134994
-0.144806
-0.154615
-0.164419
-0.174209
0.174209
1.12093
1.12093
1.09791
1.06324
1.02619
0.99034
0.957156
0.927114
0.900122
0.875804
0.853689
0.833325
0.814333
0.796416
0.779353
0.762979
0.747176
0.731858
0.716957
0.702424
0.688219
0.674309
0.660667
0.64727
0.634098
0.621135
0.608363
0.59577
0.583343
0.571071
0.558943
0.546949
0.535082
0.523334
0.511696
0.500162
0.488727
0.477383
0.466127
0.454952
0.443854
0.432828
0.421872
0.41098
0.400148
0.389375
0.378656
0.367989
0.35737
0.346798
0.336268
0.325781
0.315332
0.304919
0.294542
0.284198
0.273885
0.263602
0.253346
0.243117
0.232913
0.222733
0.212576
0.202439
0.192323
0.182226
0.172147
0.162085
0.15204
0.142009
0.131994
0.121992
0.112003
0.102026
0.092061
0.0821072
0.0721638
0.0622304
0.0523063
0.0423912
0.0324845
0.0225858
0.0126946
0.00281063
-0.00706657
-0.0169374
-0.0268021
-0.036661
-0.0465145
-0.0563629
-0.0662063
-0.0760452
-0.0858796
-0.0957099
-0.105536
-0.115359
-0.125178
-0.134993
-0.144806
-0.154614
-0.164416
-0.174196
0.174196
1.11923
1.11923
1.09736
1.06325
1.02641
0.990614
0.95743
0.927359
0.900328
0.875971
0.853821
0.83343
0.814416
0.796483
0.779407
0.763025
0.747215
0.731891
0.716987
0.70245
0.688242
0.674329
0.660685
0.647287
0.634114
0.621149
0.608376
0.595782
0.583354
0.571081
0.558952
0.546958
0.53509
0.523341
0.511703
0.500169
0.488733
0.477389
0.466132
0.454956
0.443858
0.432833
0.421876
0.410983
0.400152
0.389378
0.378659
0.367992
0.357373
0.3468
0.336271
0.325783
0.315334
0.304921
0.294544
0.2842
0.273887
0.263603
0.253348
0.243119
0.232915
0.222734
0.212577
0.20244
0.192324
0.182227
0.172148
0.162086
0.15204
0.14201
0.131994
0.121992
0.112003
0.102027
0.0920616
0.0821077
0.0721643
0.0622308
0.0523068
0.0423916
0.0324849
0.0225862
0.012695
0.00281098
-0.00706625
-0.0169371
-0.0268018
-0.0366607
-0.0465143
-0.0563626
-0.0662061
-0.0760449
-0.0858794
-0.0957097
-0.105536
-0.115359
-0.125178
-0.134993
-0.144806
-0.154614
-0.164415
-0.174191
0.174191
1.12093
1.12093
1.09791
1.06324
1.02619
0.99034
0.957156
0.927113
0.900122
0.875804
0.853689
0.833325
0.814333
0.796416
0.779353
0.762979
0.747177
0.731858
0.716957
0.702424
0.688219
0.674309
0.660667
0.64727
0.634098
0.621135
0.608363
0.59577
0.583343
0.571071
0.558943
0.546949
0.535082
0.523334
0.511696
0.500162
0.488727
0.477383
0.466127
0.454952
0.443854
0.432828
0.421872
0.41098
0.400149
0.389375
0.378656
0.367989
0.35737
0.346798
0.336268
0.325781
0.315332
0.304919
0.294542
0.284198
0.273885
0.263602
0.253346
0.243117
0.232913
0.222733
0.212576
0.202439
0.192323
0.182226
0.172147
0.162085
0.15204
0.142009
0.131994
0.121992
0.112003
0.102026
0.092061
0.0821072
0.0721638
0.0622304
0.0523063
0.0423912
0.0324845
0.0225858
0.0126946
0.00281063
-0.00706657
-0.0169374
-0.0268021
-0.036661
-0.0465145
-0.0563629
-0.0662063
-0.0760452
-0.0858796
-0.0957099
-0.105536
-0.115359
-0.125178
-0.134993
-0.144806
-0.154614
-0.164416
-0.174196
0.174196
1.12624
1.12624
1.09953
1.06322
1.0256
0.989574
0.956387
0.926424
0.899544
0.87534
0.853324
0.833041
0.814111
0.79624
0.77921
0.762861
0.747078
0.731773
0.716884
0.70236
0.688162
0.674258
0.660621
0.647229
0.634061
0.621101
0.608333
0.595742
0.583318
0.571047
0.558921
0.54693
0.535064
0.523317
0.51168
0.500148
0.488713
0.477371
0.466115
0.454941
0.443844
0.432819
0.421863
0.410971
0.400141
0.389368
0.37865
0.367983
0.357364
0.346792
0.336263
0.325776
0.315327
0.304915
0.294538
0.284194
0.273881
0.263598
0.253343
0.243114
0.232911
0.222731
0.212573
0.202437
0.192321
0.182224
0.172145
0.162083
0.152038
0.142008
0.131992
0.12199
0.112001
0.102025
0.0920598
0.082106
0.0721627
0.0622293
0.0523053
0.0423902
0.0324836
0.0225849
0.0126938
0.00280986
-0.00706731
-0.0169381
-0.0268027
-0.0366616
-0.0465151
-0.0563634
-0.0662069
-0.0760457
-0.0858801
-0.0957103
-0.105537
-0.115359
-0.125178
-0.134994
-0.144806
-0.154615
-0.164419
-0.174209
0.174209
1.13582
1.13582
1.10202
1.06312
1.02465
0.988379
0.95521
0.925388
0.898691
0.874667
0.852807
0.832646
0.813808
0.796005
0.779024
0.762712
0.746955
0.73167
0.716796
0.702284
0.688096
0.6742
0.66057
0.647183
0.63402
0.621064
0.608299
0.595712
0.58329
0.571022
0.558898
0.546909
0.535045
0.523299
0.511664
0.500133
0.488699
0.477358
0.466103
0.45493
0.443833
0.432809
0.421854
0.410963
0.400133
0.389361
0.378643
0.367976
0.357358
0.346786
0.336258
0.325771
0.315322
0.304911
0.294534
0.28419
0.273878
0.263595
0.25334
0.243111
0.232908
0.222728
0.212571
0.202435
0.192319
0.182222
0.172143
0.162081
0.152036
0.142006
0.13199
0.121988
0.112
0.102023
0.0920584
0.0821047
0.0721615
0.0622282
0.0523042
0.0423892
0.0324826
0.022584
0.012693
0.00280906
-0.00706806
-0.0169388
-0.0268034
-0.0366623
-0.0465157
-0.056364
-0.0662074
-0.0760462
-0.0858806
-0.0957108
-0.105537
-0.11536
-0.125179
-0.134994
-0.144807
-0.154615
-0.164422
-0.174221
0.174221
1.15079
1.15079
1.1049
1.06289
1.02354
0.987054
0.953949
0.92431
0.89783
0.874008
0.852315
0.832282
0.813537
0.7958
0.778866
0.762587
0.746853
0.731586
0.716725
0.702223
0.688043
0.674153
0.660528
0.647146
0.633987
0.621034
0.608272
0.595687
0.583268
0.571002
0.558879
0.546891
0.535029
0.523284
0.51165
0.50012
0.488688
0.477347
0.466093
0.45492
0.443824
0.432801
0.421846
0.410956
0.400126
0.389354
0.378637
0.367971
0.357353
0.346781
0.336253
0.325766
0.315318
0.304907
0.29453
0.284187
0.273874
0.263592
0.253337
0.243108
0.232905
0.222725
0.212568
0.202432
0.192317
0.18222
0.172141
0.16208
0.152034
0.142004
0.131989
0.121987
0.111998
0.102022
0.0920573
0.0821036
0.0721604
0.0622272
0.0523033
0.0423883
0.0324818
0.0225832
0.0126922
0.00280836
-0.00706873
-0.0169394
-0.026804
-0.0366628
-0.0465163
-0.0563645
-0.0662079
-0.0760466
-0.085881
-0.0957112
-0.105537
-0.11536
-0.125179
-0.134995
-0.144807
-0.154616
-0.164423
-0.174227
0.174227
1.17173
1.17173
1.10689
1.06266
1.02283
0.986258
0.953206
0.923678
0.897322
0.873613
0.852011
0.832048
0.813355
0.795656
0.778749
0.762489
0.746771
0.731515
0.716663
0.702168
0.687993
0.674109
0.660488
0.647109
0.633953
0.621003
0.608244
0.595661
0.583243
0.570979
0.558859
0.546872
0.535011
0.523267
0.511635
0.500105
0.488674
0.477334
0.466081
0.454909
0.443814
0.432791
0.421837
0.410947
0.400118
0.389346
0.378629
0.367964
0.357347
0.346775
0.336248
0.325761
0.315313
0.304902
0.294526
0.284182
0.27387
0.263588
0.253333
0.243105
0.232902
0.222722
0.212565
0.20243
0.192314
0.182217
0.172139
0.162078
0.152032
0.142002
0.131987
0.121985
0.111997
0.10202
0.0920558
0.0821022
0.0721591
0.0622259
0.0523021
0.0423872
0.0324807
0.0225822
0.0126913
0.00280745
-0.00706959
-0.0169402
-0.0268048
-0.0366636
-0.0465169
-0.0563652
-0.0662085
-0.0760472
-0.0858816
-0.0957117
-0.105538
-0.11536
-0.125179
-0.134995
-0.144807
-0.154617
-0.164424
-0.174228
0.174228
1.17173
1.17173
1.10689
1.06266
1.02283
0.986258
0.953206
0.923678
0.897322
0.873613
0.852011
0.832048
0.813355
0.795656
0.778749
0.762489
0.746771
0.731515
0.716663
0.702168
0.687993
0.674109
0.660488
0.647109
0.633953
0.621003
0.608244
0.595661
0.583243
0.570979
0.558859
0.546872
0.535011
0.523267
0.511635
0.500105
0.488674
0.477334
0.466081
0.454909
0.443814
0.432791
0.421837
0.410947
0.400118
0.389346
0.378629
0.367964
0.357347
0.346775
0.336248
0.325761
0.315313
0.304902
0.294526
0.284182
0.27387
0.263588
0.253333
0.243105
0.232902
0.222722
0.212565
0.20243
0.192314
0.182217
0.172139
0.162078
0.152032
0.142002
0.131987
0.121985
0.111997
0.10202
0.0920558
0.0821022
0.0721591
0.0622259
0.0523021
0.0423872
0.0324807
0.0225822
0.0126913
0.00280745
-0.00706959
-0.0169402
-0.0268048
-0.0366636
-0.0465169
-0.0563652
-0.0662085
-0.0760472
-0.0858816
-0.0957117
-0.105538
-0.11536
-0.125179
-0.134995
-0.144807
-0.154617
-0.164424
-0.174228
0.174228
SCALARS phi double
LOOKUP_TABLE phi
1
1
1
1
0.999999
0.999994
0.999983
0.999957
0.99991
0.99983
0.999706
0.999526
0.999278
0.998952
0.998537
0.998024
0.997407
0.996679
0.995834
0.99487
0.993784
0.992574
0.991242
0.989787
0.988211
0.986517
0.984708
0.982788
0.980761
0.978631
0.976403
0.97408
0.971666
0.969162
0.966563
0.963863
0.961049
0.958103
0.955001
0.951713
0.948205
0.944441
0.940382
0.935989
0.931222
0.926047
0.920429
0.91434
0.907756
0.900658
0.893034
0.884877
0.876184
0.86696
0.857213
0.846957
0.836209
0.82499
0.813324
0.801238
0.788761
0.775923
0.762754
0.749287
0.735554
0.721587
0.707417
0.693076
0.678594
0.664001
0.649324
0.63459
0.619826
0.605055
0.590301
0.575584
0.560926
0.546344
0.531856
0.517478
0.503225
0.489109
0.475143
0.461337
0.447703
0.434247
0.420978
0.407903
0.395027
0.382356
0.369893
0.357643
0.345607
0.333789
0.322189
0.310808
0.299653
0.288697
0.278038
0.267333
0.257782
0.245089
0.245089
1
1
1
1
0.999999
0.999994
0.999983
0.999957
0.99991
0.99983
0.999706
0.999526
0.999278
0.998952
0.998537
0.998024
0.997407
0.996679
0.995834
0.99487
0.993784
0.992574
0.991242
0.989787
0.988211
0.986517
0.984708
0.982788
0.980761
0.978631
0.976403
0.97408
0.971666
0.969162
0.966563
0.963863
0.961049
0.958103
0.955001
0.951713
0.948205
0.944441
0.940382
0.935989
0.931222
0.926047
0.920429
0.91434
0.907756
0.900658
0.893034
0.884877
0.876184
0.86696
0.857213
0.846957
0.836209
0.82499
0.813324
0.801238
0.788761
0.775923
0.762754
0.749287
0.735554
0.721587
0.707417
0.693076
0.678594
0.664001
0.649324
0.63459
0.619826
0.605055
0.590301
0.575584
0.560926
0.546344
0.531856
0.517478
0.503225
0.489109
0.475143
0.461337
0.447703
0.434247
0.420978
0.407903
0.395027
0.382356
0.369893
0.357643
0.345607
0.333789
0.322189
0.310808
0.299653
0.288697
0.278038
0.267333
0.257782
0.245089
0.245089
1
1
1
0.999996
0.999983
0.999954
0.999898
0.999804
0.999658
0.999447
0.999157
0.998778
0.9983
0.997714
0.997014
0.996196
0.995256
0.994192
0.993003
0.991689
0.990252
0.988694
0.987017
0.985224
0.98332
0.981308
0.979192
0.976979
0.974672
0.972276
0.969796
0.967238
0.964606
0.961904
0.959134
0.956297
0.953393
0.950415
0.947357
0.944207
0.940949
0.937563
0.934027
0.930317
0.926403
0.922259
0.917856
0.913164
0.908157
0.90281
0.897101
0.89101
0.884522
0.877624
0.870308
0.862569
0.854408
0.845826
0.836831
0.827432
0.817641
0.807473
0.796945
0.786076
0.774887
0.763398
0.751633
0.739615
0.727367
0.714914
0.702277
0.689483
0.676552
0.663508
0.650372
0.637167
0.623911
0.610625
0.597327
0.584034
0.570764
0.557532
0.544352
0.531239
0.518205
0.505262
0.49242
0.479691
0.467082
0.454603
0.44226
0.430061
0.418012
0.406117
0.394382
0.382808
0.371411
0.360152
0.34917
0.338009
0.328215
0.314592
0.314592
0.999997
1
0.99998
0.999896
0.999724
0.999434
0.998999
0.998397
0.997613
0.996636
0.995464
0.994099
0.992547
0.990816
0.988916
0.986859
0.984656
0.982317
0.979854
0.977278
0.974599
0.971826
0.968969
0.966037
0.963037
0.959976
0.956863
0.953702
0.9505
0.947262
0.943993
0.940699
0.937382
0.934046
0.930696
0.927332
0.923959
0.920575
0.91718
0.913773
0.910349
0.906903
0.903427
0.89991
0.896342
0.892707
0.888992
0.885178
0.881248
0.877183
0.872966
0.868576
0.863997
0.85921
0.854201
0.848953
0.843456
0.837697
0.831668
0.825362
0.818774
0.811902
0.804745
0.797304
0.789582
0.781585
0.773318
0.764791
0.756011
0.74699
0.737739
0.728271
0.718597
0.708732
0.698689
0.688482
0.678126
0.667635
0.657022
0.646304
0.635492
0.624601
0.613645
0.602635
0.591586
0.580508
0.569413
0.558313
0.547219
0.536139
0.525083
0.514062
0.503082
0.492152
0.48128
0.470469
0.45974
0.449049
0.438562
0.427764
0.418343
0.404865
0.404865
0.999999
1
0.99943
0.998224
0.996402
0.994008
0.991093
0.987716
0.983939
0.979828
0.975446
0.970853
0.966102
0.961239
0.9563
0.951318
0.946317
0.94132
0.936342
0.931396
0.926494
0.921643
0.91685
0.91212
0.907457
0.902862
0.898338
0.893885