# vtk DataFile Version 3.0
FlowField
ASCII
DATASET STRUCTURED_GRID
DIMENSIONS 103 13 1 
POINTS 1339 double
0 0 0
0.3 0 0
0.6 0 0
0.9 0 0
1.2 0 0
1.5 0 0
1.8 0 0
2.1 0 0
2.4 0 0
2.7 0 0
3 0 0
3.3 0 0
3.6 0 0
3.9 0 0
4.2 0 0
4.5 0 0
4.8 0 0
5.1 0 0
5.4 0 0
5.7 0 0
6 0 0
6.3 0 0
6.6 0 0
6.9 0 0
7.2 0 0
7.5 0 0
7.8 0 0
8.1 0 0
8.4 0 0
8.7 0 0
9 0 0
9.3 0 0
9.6 0 0
9.9 0 0
10.2 0 0
10.5 0 0
10.8 0 0
11.1 0 0
11.4 0 0
11.7 0 0
12 0 0
12.3 0 0
12.6 0 0
12.9 0 0
13.2 0 0
13.5 0 0
13.8 0 0
14.1 0 0
14.4 0 0
14.7 0 0
15 0 0
15.3 0 0
15.6 0 0
15.9 0 0
16.2 0 0
16.5 0 0
16.8 0 0
17.1 0 0
17.4 0 0
17.7 0 0
18 0 0
18.3 0 0
18.6 0 0
18.9 0 0
19.2 0 0
19.5 0 0
19.8 0 0
20.1 0 0
20.4 0 0
20.7 0 0
21 0 0
21.3 0 0
21.6 0 0
21.9 0 0
22.2 0 0
22.5 0 0
22.8 0 0
23.1 0 0
23.4 0 0
23.7 0 0
24 0 0
24.3 0 0
24.6 0 0
24.9 0 0
25.2 0 0
25.5 0 0
25.8 0 0
26.1 0 0
26.4 0 0
26.7 0 0
27 0 0
27.3 0 0
27.6 0 0
27.9 0 0
28.2 0 0
28.5 0 0
28.8 0 0
29.1 0 0
29.4 0 0
29.7 0 0
30 0 0
30.3 0 0
30.6 0 0
0 0.1 0
0.3 0.1 0
0.6 0.1 0
0.9 0.1 0
1.2 0.1 0
1.5 0.1 0
1.8 0.1 0
2.1 0.1 0
2.4 0.1 0
2.7 0.1 0
3 0.1 0
3.3 0.1 0
3.6 0.1 0
3.9 0.1 0
4.2 0.1 0
4.5 0.1 0
4.8 0.1 0
5.1 0.1 0
5.4 0.1 0
5.7 0.1 0
6 0.1 0
6.3 0.1 0
6.6 0.1 0
6.9 0.1 0
7.2 0.1 0
7.5 0.1 0
7.8 0.1 0
8.1 0.1 0
8.4 0.1 0
8.7 0.1 0
9 0.1 0
9.3 0.1 0
9.6 0.1 0
9.9 0.1 0
10.2 0.1 0
10.5 0.1 0
10.8 0.1 0
11.1 0.1 0
11.4 0.1 0
11.7 0.1 0
12 0.1 0
12.3 0.1 0
12.6 0.1 0
12.9 0.1 0
13.2 0.1 0
13.5 0.1 0
13.8 0.1 0
14.1 0.1 0
14.4 0.1 0
14.7 0.1 0
15 0.1 0
15.3 0.1 0
15.6 0.1 0
15.9 0.1 0
16.2 0.1 0
16.5 0.1 0
16.8 0.1 0
17.1 0.1 0
17.4 0.1 0
17.7 0.1 0
18 0.1 0
18.3 0.1 0
18.6 0.1 0
18.9 0.1 0
19.2 0.1 0
19.5 0.1 0
19.8 0.1 0
20.1 0.1 0
20.4 0.1 0
20.7 0.1 0
21 0.1 0
21.3 0.1 0
21.6 0.1 0
21.9 0.1 0
22.2 0.1 0
22.5 0.1 0
22.8 0.1 0
23.1 0.1 0
23.4 0.1 0
23.7 0.1 0
24 0.1 0
24.3 0.1 0
24.6 0.1 0
24.9 0.1 0
25.2 0.1 0
25.5 0.1 0
25.8 0.1 0
26.1 0.1 0
26.4 0.1 0
26.7 0.1 0
27 0.1 0
27.3 0.1 0
27.6 0.1 0
27.9 0.1 0
28.2 0.1 0
28.5 0.1 0
28.8 0.1 0
29.1 0.1 0
29.4 0.1 0
29.7 0.1 0
30 0.1 0
30.3 0.1 0
30.6 0.1 0
0 0.2 0
0.3 0.2 0
0.6 0.2 0
0.9 0.2 0
1.2 0.2 0
1.5 0.2 0
1.8 0.2 0
2.1 0.2 0
2.4 0.2 0
2.7 0.2 0
3 0.2 0
3.3 0.2 0
3.6 0.2 0
3.9 0.2 0
4.2 0.2 0
4.5 0.2 0
4.8 0.2 0
5.1 0.2 0
5.4 0.2 0
5.7 0.2 0
6 0.2 0
6.3 0.2 0
6.6 0.2 0
6.9 0.2 0
7.2 0.2 0
7.5 0.2 0
7.8 0.2 0
8.1 0.2 0
8.4 0.2 0
8.7 0.2 0
9 0.2 0
9.3 0.2 0
9.6 0.2 0
9.9 0.2 0
10.2 0.2 0
10.5 0.2 0
10.8 0.2 0
11.1 0.2 0
11.4 0.2 0
11.7 0.2 0
12 0.2 0
12.3 0.2 0
12.6 0.2 0
12.9 0.2 0
13.2 0.2 0
13.5 0.2 0
13.8 0.2 0
14.1 0.2 0
14.4 0.2 0
14.7 0.2 0
15 0.2 0
15.3 0.2 0
15.6 0.2 0
15.9 0.2 0
16.2 0.2 0
16.5 0.2 0
16.8 0.2 0
17.1 0.2 0
17.4 0.2 0
17.7 0.2 0
18 0.2 0
18.3 0.2 0
18.6 0.2 0
18.9 0.2 0
19.2 0.2 0
19.5 0.2 0
19.8 0.2 0
20.1 0.2 0
20.4 0.2 0
20.7 0.2 0
21 0.2 0
21.3 0.2 0
21.6 0.2 0
21.9 0.2 0
22.2 0.2 0
22.5 0.2 0
22.8 0.2 0
23.1 0.2 0
23.4 0.2 0
23.7 0.2 0
24 0.2 0
24.3 0.2 0
24.6 0.2 0
24.9 0.2 0
25.2 0.2 0
25.5 0.2 0
25.8 0.2 0
26.1 0.2 0
26.4 0.2 0
26.7 0.2 0
27 0.2 0
27.3 0.2 0
27.6 0.2 0
27.9 0.2 0
28.2 0.2 0
28.5 0.2 0
28.8 0.2 0
29.1 0.2 0
29.4 0.2 0
29.7 0.2 0
30 0.2 0
30.3 0.2 0
30.6 0.2 0
0 0.3 0
0.3 0.3 0
0.6 0.3 0
0.9 0.3 0
1.2 0.3 0
1.5 0.3 0
1.8 0.3 0
2.1 0.3 0
2.4 0.3 0
2.7 0.3 0
3 0.3 0
3.3 0.3 0
3.6 0.3 0
3.9 0.3 0
4.2 0.3 0
4.5 0.3 0
4.8 0.3 0
5.1 0.3 0
5.4 0.3 0
5.7 0.3 0
6 0.3 0
6.3 0.3 0
6.6 0.3 0
6.9 0.3 0
7.2 0.3 0
7.5 0.3 0
7.8 0.3 0
8.1 0.3 0
8.4 0.3 0
8.7 0.3 0
9 0.3 0
9.3 0.3 0
9.6 0.3 0
9.9 0.3 0
10.2 0.3 0
10.5 0.3 0
10.8 0.3 0
11.1 0.3 0
11.4 0.3 0
11.7 0.3 0
12 0.3 0
12.3 0.3 0
12.6 0.3 0
12.9 0.3 0
13.2 0.3 0
13.5 0.3 0
13.8 0.3 0
14.1 0.3 0
14.4 0.3 0
14.7 0.3 0
15 0.3 0
15.3 0.3 0
15.6 0.3 0
15.9 0.3 0
16.2 0.3 0
16.5 0.3 0
16.8 0.3 0
17.1 0.3 0
17.4 0.3 0
17.7 0.3 0
18 0.3 0
18.3 0.3 0
18.6 0.3 0
18.9 0.3 0
19.2 0.3 0
19.5 0.3 0
19.8 0.3 0
20.1 0.3 0
20.4 0.3 0
20.7 0.3 0
21 0.3 0
21.3 0.3 0
21.6 0.3 0
21.9 0.3 0
22.2 0.3 0
22.5 0.3 0
22.8 0.3 0
23.1 0.3 0
23.4 0.3 0
23.7 0.3 0
24 0.3 0
24.3 0.3 0
24.6 0.3 0
24.9 0.3 0
25.2 0.3 0
25.5 0.3 0
25.8 0.3 0
26.1 0.3 0
26.4 0.3 0
26.7 0.3 0
27 0.3 0
27.3 0.3 0
27.6 0.3 0
27.9 0.3 0
28.2 0.3 0
28.5 0.3 0
28.8 0.3 0
29.1 0.3 0
29.4 0.3 0
29.7 0.3 0
30 0.3 0
30.3 0.3 0
30.6 0.3 0
0 0.4 0
0.3 0.4 0
0.6 0.4 0
0.9 0.4 0
1.2 0.4 0
1.5 0.4 0
1.8 0.4 0
2.1 0.4 0
2.4 0.4 0
2.7 0.4 0
3 0.4 0
3.3 0.4 0
3.6 0.4 0
3.9 0.4 0
4.2 0.4 0
4.5 0.4 0
4.8 0.4 0
5.1 0.4 0
5.4 0.4 0
5.7 0.4 0
6 0.4 0
6.3 0.4 0
6.6 0.4 0
6.9 0.4 0
7.2 0.4 0
7.5 0.4 0
7.8 0.4 0
8.1 0.4 0
8.4 0.4 0
8.7 0.4 0
9 0.4 0
9.3 0.4 0
9.6 0.4 0
9.9 0.4 0
10.2 0.4 0
10.5 0.4 0
10.8 0.4 0
11.1 0.4 0
11.4 0.4 0
11.7 0.4 0
12 0.4 0
12.3 0.4 0
12.6 0.4 0
12.9 0.4 0
13.2 0.4 0
13.5 0.4 0
13.8 0.4 0
14.1 0.4 0
14.4 0.4 0
14.7 0.4 0
15 0.4 0
15.3 0.4 0
15.6 0.4 0
15.9 0.4 0
16.2 0.4 0
16.5 0.4 0
16.8 0.4 0
17.1 0.4 0
17.4 0.4 0
17.7 0.4 0
18 0.4 0
18.3 0.4 0
18.6 0.4 0
18.9 0.4 0
19.2 0.4 0
19.5 0.4 0
19.8 0.4 0
20.1 0.4 0
20.4 0.4 0
20.7 0.4 0
21 0.4 0
21.3 0.4 0
21.6 0.4 0
21.9 0.4 0
22.2 0.4 0
22.5 0.4 0
22.8 0.4 0
23.1 0.4 0
23.4 0.4 0
23.7 0.4 0
24 0.4 0
24.3 0.4 0
24.6 0.4 0
24.9 0.4 0
25.2 0.4 0
25.5 0.4 0
25.8 0.4 0
26.1 0.4 0
26.4 0.4 0
26.7 0.4 0
27 0.4 0
27.3 0.4 0
27.6 0.4 0
27.9 0.4 0
28.2 0.4 0
28.5 0.4 0
28.8 0.4 0
29.1 0.4 0
29.4 0.4 0
29.7 0.4 0
30 0.4 0
30.3 0.4 0
30.6 0.4 0
0 0.5 0
0.3 0.5 0
0.6 0.5 0
0.9 0.5 0
1.2 0.5 0
1.5 0.5 0
1.8 0.5 0
2.1 0.5 0
2.4 0.5 0
2.7 0.5 0
3 0.5 0
3.3 0.5 0
3.6 0.5 0
3.9 0.5 0
4.2 0.5 0
4.5 0.5 0
4.8 0.5 0
5.1 0.5 0
5.4 0.5 0
5.7 0.5 0
6 0.5 0
6.3 0.5 0
6.6 0.5 0
6.9 0.5 0
7.2 0.5 0
7.5 0.5 0
7.8 0.5 0
8.1 0.5 0
8.4 0.5 0
8.7 0.5 0
9 0.5 0
9.3 0.5 0
9.6 0.5 0
9.9 0.5 0
10.2 0.5 0
10.5 0.5 0
10.8 0.5 0
11.1 0.5 0
11.4 0.5 0
11.7 0.5 0
12 0.5 0
12.3 0.5 0
12.6 0.5 0
12.9 0.5 0
13.2 0.5 0
13.5 0.5 0
13.8 0.5 0
14.1 0.5 0
14.4 0.5 0
14.7 0.5 0
15 0.5 0
15.3 0.5 0
15.6 0.5 0
15.9 0.5 0
16.2 0.5 0
16.5 0.5 0
16.8 0.5 0
17.1 0.5 0
17.4 0.5 0
17.7 0.5 0
18 0.5 0
18.3 0.5 0
18.6 0.5 0
18.9 0.5 0
19.2 0.5 0
19.5 0.5 0
19.8 0.5 0
20.1 0.5 0
20.4 0.5 0
20.7 0.5 0
21 0.5 0
21.3 0.5 0
21.6 0.5 0
21.9 0.5 0
22.2 0.5 0
22.5 0.5 0
22.8 0.5 0
23.1 0.5 0
23.4 0.5 0
23.7 0.5 0
24 0.5 0
24.3 0.5 0
24.6 0.5 0
24.9 0.5 0
25.2 0.5 0
25.5 0.5 0
25.8 0.5 0
26.1 0.5 0
26.4 0.5 0
26.7 0.5 0
27 0.5 0
27.3 0.5 0
27.6 0.5 0
27.9 0.5 0
28.2 0.5 0
28.5 0.5 0
28.8 0.5 0
29.1 0.5 0
29.4 0.5 0
29.7 0.5 0
30 0.5 0
30.3 0.5 0
30.6 0.5 0
0 0.6 0
0.3 0.6 0
0.6 0.6 0
0.9 0.6 0
1.2 0.6 0
1.5 0.6 0
1.8 0.6 0
2.1 0.6 0
2.4 0.6 0
2.7 0.6 0
3 0.6 0
3.3 0.6 0
3.6 0.6 0
3.9 0.6 0
4.2 0.6 0
4.5 0.6 0
4.8 0.6 0
5.1 0.6 0
5.4 0.6 0
5.7 0.6 0
6 0.6 0
6.3 0.6 0
6.6 0.6 0
6.9 0.6 0
7.2 0.6 0
7.5 0.6 0
7.8 0.6 0
8.1 0.6 0
8.4 0.6 0
8.7 0.6 0
9 0.6 0
9.3 0.6 0
9.6 0.6 0
9.9 0.6 0
10.2 0.6 0
10.5 0.6 0
10.8 0.6 0
11.1 0.6 0
11.4 0.6 0
11.7 0.6 0
12 0.6 0
12.3 0.6 0
12.6 0.6 0
12.9 0.6 0
13.2 0.6 0
13.5 0.6 0
13.8 0.6 0
14.1 0.6 0
14.4 0.6 0
14.7 0.6 0
15 0.6 0
15.3 0.6 0
15.6 0.6 0
15.9 0.6 0
16.2 0.6 0
16.5 0.6 0
16.8 0.6 0
17.1 0.6 0
17.4 0.6 0
17.7 0.6 0
18 0.6 0
18.3 0.6 0
18.6 0.6 0
18.9 0.6 0
19.2 0.6 0
19.5 0.6 0
19.8 0.6 0
20.1 0.6 0
20.4 0.6 0
20.7 0.6 0
21 0.6 0
21.3 0.6 0
21.6 0.6 0
21.9 0.6 0
22.2 0.6 0
22.5 0.6 0
22.8 0.6 0
23.1 0.6 0
23.4 0.6 0
23.7 0.6 0
24 0.6 0
24.3 0.6 0
24.6 0.6 0
24.9 0.6 0
25.2 0.6 0
25.5 0.6 0
25.8 0.6 0
26.1 0.6 0
26.4 0.6 0
26.7 0.6 0
27 0.6 0
27.3 0.6 0
27.6 0.6 0
27.9 0.6 0
28.2 0.6 0
28.5 0.6 0
28.8 0.6 0
29.1 0.6 0
29.4 0.6 0
29.7 0.6 0
30 0.6 0
30.3 0.6 0
30.6 0.6 0
0 0.7 0
0.3 0.7 0
0.6 0.7 0
0.9 0.7 0
1.2 0.7 0
1.5 0.7 0
1.8 0.7 0
2.1 0.7 0
2.4 0.7 0
2.7 0.7 0
3 0.7 0
3.3 0.7 0
3.6 0.7 0
3.9 0.7 0
4.2 0.7 0
4.5 0.7 0
4.8 0.7 0
5.1 0.7 0
5.4 0.7 0
5.7 0.7 0
6 0.7 0
6.3 0.7 0
6.6 0.7 0
6.9 0.7 0
7.2 0.7 0
7.5 0.7 0
7.8 0.7 0
8.1 0.7 0
8.4 0.7 0
8.7 0.7 0
9 0.7 0
9.3 0.7 0
9.6 0.7 0
9.9 0.7 0
10.2 0.7 0
10.5 0.7 0
10.8 0.7 0
11.1 0.7 0
11.4 0.7 0
11.7 0.7 0
12 0.7 0
12.3 0.7 0
12.6 0.7 0
12.9 0.7 0
13.2 0.7 0
13.5 0.7 0
13.8 0.7 0
14.1 0.7 0
14.4 0.7 0
14.7 0.7 0
15 0.7 0
15.3 0.7 0
15.6 0.7 0
15.9 0.7 0
16.2 0.7 0
16.5 0.7 0
16.8 0.7 0
17.1 0.7 0
17.4 0.7 0
17.7 0.7 0
18 0.7 0
18.3 0.7 0
18.6 0.7 0
18.9 0.7 0
19.2 0.7 0
19.5 0.7 0
19.8 0.7 0
20.1 0.7 0
20.4 0.7 0
20.7 0.7 0
21 0.7 0
21.3 0.7 0
21.6 0.7 0
21.9 0.7 0
22.2 0.7 0
22.5 0.7 0
22.8 0.7 0
23.1 0.7 0
23.4 0.7 0
23.7 0.7 0
24 0.7 0
24.3 0.7 0
24.6 0.7 0
24.9 0.7 0
25.2 0.7 0
25.5 0.7 0
25.8 0.7 0
26.1 0.7 0
26.4 0.7 0
26.7 0.7 0
27 0.7 0
27.3 0.7 0
27.6 0.7 0
27.9 0.7 0
28.2 0.7 0
28.5 0.7 0
28.8 0.7 0
29.1 0.7 0
29.4 0.7 0
29.7 0.7 0
30 0.7 0
30.3 0.7 0
30.6 0.7 0
0 0.8 0
0.3 0.8 0
0.6 0.8 0
0.9 0.8 0
1.2 0.8 0
1.5 0.8 0
1.8 0.8 0
2.1 0.8 0
2.4 0.8 0
2.7 0.8 0
3 0.8 0
3.3 0.8 0
3.6 0.8 0
3.9 0.8 0
4.2 0.8 0
4.5 0.8 0
4.8 0.8 0
5.1 0.8 0
5.4 0.8 0
5.7 0.8 0
6 0.8 0
6.3 0.8 0
6.6 0.8 0
6.9 0.8 0
7.2 0.8 0
7.5 0.8 0
7.8 0.8 0
8.1 0.8 0
8.4 0.8 0
8.7 0.8 0
9 0.8 0
9.3 0.8 0
9.6 0.8 0
9.9 0.8 0
10.2 0.8 0
10.5 0.8 0
10.8 0.8 0
11.1 0.8 0
11.4 0.8 0
11.7 0.8 0
12 0.8 0
12.3 0.8 0
12.6 0.8 0
12.9 0.8 0
13.2 0.8 0
13.5 0.8 0
13.8 0.8 0
14.1 0.8 0
14.4 0.8 0
14.7 0.8 0
15 0.8 0
15.3 0.8 0
15.6 0.8 0
15.9 0.8 0
16.2 0.8 0
16.5 0.8 0
16.8 0.8 0
17.1 0.8 0
17.4 0.8 0
17.7 0.8 0
18 0.8 0
18.3 0.8 0
18.6 0.8 0
18.9 0.8 0
19.2 0.8 0
19.5 0.8 0
19.8 0.8 0
20.1 0.8 0
20.4 0.8 0
20.7 0.8 0
21 0.8 0
21.3 0.8 0
21.6 0.8 0
21.9 0.8 0
22.2 0.8 0
22.5 0.8 0
22.8 0.8 0
23.1 0.8 0
23.4 0.8 0
23.7 0.8 0
24 0.8 0
24.3 0.8 0
24.6 0.8 0
24.9 0.8 0
25.2 0.8 0
25.5 0.8 0
25.8 0.8 0
26.1 0.8 0
26.4 0.8 0
26.7 0.8 0
27 0.8 0
27.3 0.8 0
27.6 0.8 0
27.9 0.8 0
28.2 0.8 0
28.5 0.8 0
28.8 0.8 0
29.1 0.8 0
29.4 0.8 0
29.7 0.8 0
30 0.8 0
30.3 0.8 0
30.6 0.8 0
0 0.9 0
0.3 0.9 0
0.6 0.9 0
0.9 0.9 0
1.2 0.9 0
1.5 0.9 0
1.8 0.9 0
2.1 0.9 0
2.4 0.9 0
2.7 0.9 0
3 0.9 0
3.3 0.9 0
3.6 0.9 0
3.9 0.9 0
4.2 0.9 0
4.5 0.9 0
4.8 0.9 0
5.1 0.9 0
5.4 0.9 0
5.7 0.9 0
6 0.9 0
6.3 0.9 0
6.6 0.9 0
6.9 0.9 0
7.2 0.9 0
7.5 0.9 0
7.8 0.9 0
8.1 0.9 0
8.4 0.9 0
8.7 0.9 0
9 0.9 0
9.3 0.9 0
9.6 0.9 0
9.9 0.9 0
10.2 0.9 0
10.5 0.9 0
10.8 0.9 0
11.1 0.9 0
11.4 0.9 0
11.7 0.9 0
12 0.9 0
12.3 0.9 0
12.6 0.9 0
12.9 0.9 0
13.2 0.9 0
13.5 0.9 0
13.8 0.9 0
14.1 0.9 0
14.4 0.9 0
14.7 0.9 0
15 0.9 0
15.3 0.9 0
15.6 0.9 0
15.9 0.9 0
16.2 0.9 0
16.5 0.9 0
16.8 0.9 0
17.1 0.9 0
17.4 0.9 0
17.7 0.9 0
18 0.9 0
18.3 0.9 0
18.6 0.9 0
18.9 0.9 0
19.2 0.9 0
19.5 0.9 0
19.8 0.9 0
20.1 0.9 0
20.4 0.9 0
20.7 0.9 0
21 0.9 0
21.3 0.9 0
21.6 0.9 0
21.9 0.9 0
22.2 0.9 0
22.5 0.9 0
22.8 0.9 0
23.1 0.9 0
23.4 0.9 0
23.7 0.9 0
24 0.9 0
24.3 0.9 0
24.6 0.9 0
24.9 0.9 0
25.2 0.9 0
25.5 0.9 0
25.8 0.9 0
26.1 0.9 0
26.4 0.9 0
26.7 0.9 0
27 0.9 0
27.3 0.9 0
27.6 0.9 0
27.9 0.9 0
28.2 0.9 0
28.5 0.9 0
28.8 0.9 0
29.1 0.9 0
29.4 0.9 0
29.7 0.9 0
30 0.9 0
30.3 0.9 0
30.6 0.9 0
0 1 0
0.3 1 0
0.6 1 0
0.9 1 0
1.2 1 0
1.5 1 0
1.8 1 0
2.1 1 0
2.4 1 0
2.7 1 0
3 1 0
3.3 1 0
3.6 1 0
3.9 1 0
4.2 1 0
4.5 1 0
4.8 1 0
5.1 1 0
5.4 1 0
5.7 1 0
6 1 0
6.3 1 0
6.6 1 0
6.9 1 0
7.2 1 0
7.5 1 0
7.8 1 0
8.1 1 0
8.4 1 0
8.7 1 0
9 1 0
9.3 1 0
9.6 1 0
9.9 1 0
10.2 1 0
10.5 1 0
10.8 1 0
11.1 1 0
11.4 1 0
11.7 1 0
12 1 0
12.3 1 0
12.6 1 0
12.9 1 0
13.2 1 0
13.5 1 0
13.8 1 0
14.1 1 0
14.4 1 0
14.7 1 0
15 1 0
15.3 1 0
15.6 1 0
15.9 1 0
16.2 1 0
16.5 1 0
16.8 1 0
17.1 1 0
17.4 1 0
17.7 1 0
18 1 0
18.3 1 0
18.6 1 0
18.9 1 0
19.2 1 0
19.5 1 0
19.8 1 0
20.1 1 0
20.4 1 0
20.7 1 0
21 1 0
21.3 1 0
21.6 1 0
21.9 1 0
22.2 1 0
22.5 1 0
22.8 1 0
23.1 1 0
23.4 1 0
23.7 1 0
24 1 0
24.3 1 0
24.6 1 0
24.9 1 0
25.2 1 0
25.5 1 0
25.8 1 0
26.1 1 0
26.4 1 0
26.7 1 0
27 1 0
27.3 1 0
27.6 1 0
27.9 1 0
28.2 1 0
28.5 1 0
28.8 1 0
29.1 1 0
29.4 1 0
29.7 1 0
30 1 0
30.3 1 0
30.6 1 0
0 1.1 0
0.3 1.1 0
0.6 1.1 0
0.9 1.1 0
1.2 1.1 0
1.5 1.1 0
1.8 1.1 0
2.1 1.1 0
2.4 1.1 0
2.7 1.1 0
3 1.1 0
3.3 1.1 0
3.6 1.1 0
3.9 1.1 0
4.2 1.1 0
4.5 1.1 0
4.8 1.1 0
5.1 1.1 0
5.4 1.1 0
5.7 1.1 0
6 1.1 0
6.3 1.1 0
6.6 1.1 0
6.9 1.1 0
7.2 1.1 0
7.5 1.1 0
7.8 1.1 0
8.1 1.1 0
8.4 1.1 0
8.7 1.1 0
9 1.1 0
9.3 1.1 0
9.6 1.1 0
9.9 1.1 0
10.2 1.1 0
10.5 1.1 0
10.8 1.1 0
11.1 1.1 0
11.4 1.1 0
11.7 1.1 0
12 1.1 0
12.3 1.1 0
12.6 1.1 0
12.9 1.1 0
13.2 1.1 0
13.5 1.1 0
13.8 1.1 0
14.1 1.1 0
14.4 1.1 0
14.7 1.1 0
15 1.1 0
15.3 1.1 0
15.6 1.1 0
15.9 1.1 0
16.2 1.1 0
16.5 1.1 0
16.8 1.1 0
17.1 1.1 0
17.4 1.1 0
17.7 1.1 0
18 1.1 0
18.3 1.1 0
18.6 1.1 0
18.9 1.1 0
19.2 1.1 0
19.5 1.1 0
19.8 1.1 0
20.1 1.1 0
20.4 1.1 0
20.7 1.1 0
21 1.1 0
21.3 1.1 0
21.6 1.1 0
21.9 1.1 0
22.2 1.1 0
22.5 1.1 0
22.8 1.1 0
23.1 1.1 0
23.4 1.1 0
23.7 1.1 0
24 1.1 0
24.3 1.1 0
24.6 1.1 0
24.9 1.1 0
25.2 1.1 0
25.5 1.1 0
25.8 1.1 0
26.1 1.1 0
26.4 1.1 0
26.7 1.1 0
27 1.1 0
27.3 1.1 0
27.6 1.1 0
27.9 1.1 0
28.2 1.1 0
28.5 1.1 0
28.8 1.1 0
29.1 1.1 0
29.4 1.1 0
29.7 1.1 0
30 1.1 0
30.3 1.1 0
30.6 1.1 0
0 1.2 0
0.3 1.2 0
0.6 1.2 0
0.9 1.2 0
1.2 1.2 0
1.5 1.2 0
1.8 1.2 0
2.1 1.2 0
2.4 1.2 0
2.7 1.2 0
3 1.2 0
3.3 1.2 0
3.6 1.2 0
3.9 1.2 0
4.2 1.2 0
4.5 1.2 0
4.8 1.2 0
5.1 1.2 0
5.4 1.2 0
5.7 1.2 0
6 1.2 0
6.3 1.2 0
6.6 1.2 0
6.9 1.2 0
7.2 1.2 0
7.5 1.2 0
7.8 1.2 0
8.1 1.2 0
8.4 1.2 0
8.7 1.2 0
9 1.2 0
9.3 1.2 0
9.6 1.2 0
9.9 1.2 0
10.2 1.2 0
10.5 1.2 0
10.8 1.2 0
11.1 1.2 0
11.4 1.2 0
11.7 1.2 0
12 1.2 0
12.3 1.2 0
12.6 1.2 0
12.9 1.2 0
13.2 1.2 0
13.5 1.2 0
13.8 1.2 0
14.1 1.2 0
14.4 1.2 0
14.7 1.2 0
15 1.2 0
15.3 1.2 0
15.6 1.2 0
15.9 1.2 0
16.2 1.2 0
16.5 1.2 0
16.8 1.2 0
17.1 1.2 0
17.4 1.2 0
17.7 1.2 0
18 1.2 0
18.3 1.2 0
18.6 1.2 0
18.9 1.2 0
19.2 1.2 0
19.5 1.2 0
19.8 1.2 0
20.1 1.2 0
20.4 1.2 0
20.7 1.2 0
21 1.2 0
21.3 1.2 0
21.6 1.2 0
21.9 1.2 0
22.2 1.2 0
22.5 1.2 0
22.8 1.2 0
23.1 1.2 0
23.4 1.2 0
23.7 1.2 0
24 1.2 0
24.3 1.2 0
24.6 1.2 0
24.9 1.2 0
25.2 1.2 0
25.5 1.2 0
25.8 1.2 0
26.1 1.2 0
26.4 1.2 0
26.7 1.2 0
27 1.2 0
27.3 1.2 0
27.6 1.2 0
27.9 1.2 0
28.2 1.2 0
28.5 1.2 0
28.8 1.2 0
29.1 1.2 0
29.4 1.2 0
29.7 1.2 0
30 1.2 0
30.3 1.2 0
30.6 1.2 0

POINT_DATA 1339

SCALARS pressure double
LOOKUP_TABLE pressure
1.17419
1.17419
1.10934
1.06511
1.02528
0.988709
0.955657
0.926129
0.899773
0.876064
0.854462
0.834499
0.815806
0.798107
0.7812
0.76494
0.749221
0.733966
0.719113
0.704619
0.690444
0.676559
0.662938
0.64956
0.636404
0.623454
0.610694
0.598111
0.585693
0.573429
0.561307
0.549319
0.537457
0.525713
0.514081
0.502557
0.491137
0.479817
0.468597
0.457473
0.446446
0.435512
0.42467
0.413918
0.40325
0.392662
0.382148
0.371702
0.361317
0.350986
0.340701
0.330455
0.320243
0.310058
0.299895
0.28975
0.279618
0.269497
0.259384
0.249276
0.239174
0.229074
0.218977
0.208881
0.198787
0.188693
0.1786
0.168507
0.158415
0.148323
0.13823
0.128138
0.118046
0.107954
0.0978617
0.0877696
0.0776775
0.0675854
0.0574933
0.0474012
0.0373092
0.0272171
0.017125
0.00703293
-0.00305914
-0.0131512
-0.0232433
-0.0333353
-0.0434274
-0.0535195
-0.0636115
-0.0737036
-0.0837957
-0.0938877
-0.10398
-0.114072
-0.124164
-0.134256
-0.144348
-0.15444
-0.164533
-0.174616
0.174616
1.17419
1.17419
1.10934
1.06511
1.02528
0.988709
0.955657
0.926129
0.899773
0.876064
0.854462
0.834499
0.815806
0.798107
0.7812
0.76494
0.749221
0.733966
0.719113
0.704619
0.690444
0.676559
0.662938
0.64956
0.636404
0.623454
0.610694
0.598111
0.585693
0.573429
0.561307
0.549319
0.537457
0.525713
0.514081
0.502557
0.491137
0.479817
0.468597
0.457473
0.446446
0.435512
0.42467
0.413918
0.40325
0.392662
0.382148
0.371702
0.361317
0.350986
0.340701
0.330455
0.320243
0.310058
0.299895
0.28975
0.279618
0.269497
0.259384
0.249276
0.239174
0.229074
0.218977
0.208881
0.198787
0.188693
0.1786
0.168507
0.158415
0.148323
0.13823
0.128138
0.118046
0.107954
0.0978617
0.0877696
0.0776775
0.0675854
0.0574933
0.0474012
0.0373092
0.0272171
0.017125
0.00703293
-0.00305914
-0.0131512
-0.0232433
-0.0333353
-0.0434274
-0.0535195
-0.0636115
-0.0737036
-0.0837957
-0.0938877
-0.10398
-0.114072
-0.124164
-0.134256
-0.144348
-0.15444
-0.164533
-0.174616
0.174616
1.15324
1.15324
1.10735
1.06534
1.02599
0.989506
0.9564
0.926761
0.900281
0.876459
0.854766
0.834733
0.815988
0.798251
0.781317
0.765038
0.749304
0.734037
0.719176
0.704674
0.690493
0.676604
0.662979
0.649596
0.636437
0.623484
0.610722
0.598138
0.585718
0.573451
0.561328
0.549338
0.537475
0.525729
0.514097
0.502571
0.49115
0.479829
0.468607
0.457482
0.446453
0.435518
0.424675
0.413922
0.403253
0.392664
0.38215
0.371703
0.361318
0.350986
0.340701
0.330455
0.320243
0.310058
0.299895
0.289749
0.279618
0.269496
0.259383
0.249276
0.239174
0.229074
0.218977
0.208881
0.198787
0.188693
0.1786
0.168507
0.158415
0.148323
0.13823
0.128138
0.118046
0.107954
0.0978617
0.0877696
0.0776775
0.0675854
0.0574933
0.0474012
0.0373092
0.0272171
0.017125
0.00703293
-0.00305914
-0.0131512
-0.0232433
-0.0333353
-0.0434274
-0.0535195
-0.0636115
-0.0737036
-0.0837957
-0.0938877
-0.10398
-0.114072
-0.124164
-0.134256
-0.144348
-0.15444
-0.164533
-0.174616
0.174616
1.13827
1.13827
1.10447
1.06557
1.0271
0.99083
0.957662
0.927839
0.901142
0.877119
0.855258
0.835097
0.816259
0.798456
0.781475
0.765163
0.749405
0.734121
0.719247
0.704735
0.690546
0.67665
0.66302
0.649633
0.636471
0.623514
0.61075
0.598162
0.58574
0.573472
0.561346
0.549356
0.53749
0.525744
0.51411
0.502584
0.491161
0.479839
0.468616
0.45749
0.44646
0.435524
0.42468
0.413925
0.403256
0.392666
0.382151
0.371704
0.361318
0.350986
0.340701
0.330455
0.320242
0.310057
0.299894
0.289749
0.279617
0.269496
0.259383
0.249276
0.239174
0.229074
0.218977
0.208881
0.198787
0.188693
0.1786
0.168507
0.158415
0.148323
0.13823
0.128138
0.118046
0.107954
0.0978617
0.0877696
0.0776775
0.0675854
0.0574933
0.0474012
0.0373092
0.0272171
0.017125
0.00703293
-0.00305914
-0.0131512
-0.0232433
-0.0333353
-0.0434274
-0.0535195
-0.0636115
-0.0737036
-0.0837957
-0.0938877
-0.10398
-0.114072
-0.124164
-0.134256
-0.144348
-0.154439
-0.164531
-0.174614
0.174614
1.1287
1.1287
1.10199
1.06567
1.02805
0.992024
0.958838
0.928875
0.901995
0.877791
0.855775
0.835492
0.816562
0.798691
0.781661
0.765312
0.749528
0.734224
0.719335
0.704811
0.690613
0.676709
0.663072
0.64968
0.636512
0.623552
0.610783
0.598193
0.585768
0.573497
0.561369
0.549377
0.53751
0.525762
0.514127
0.502599
0.491175
0.479852
0.468628
0.457502
0.446471
0.435534
0.424689
0.413934
0.403263
0.392673
0.382157
0.371709
0.361322
0.350989
0.340703
0.330457
0.320244
0.310059
0.299895
0.28975
0.279618
0.269497
0.259384
0.249276
0.239174
0.229074
0.218977
0.208881
0.198787
0.188693
0.1786
0.168507
0.158415
0.148323
0.13823
0.128138
0.118046
0.107954
0.0978617
0.0877696
0.0776775
0.0675854
0.0574933
0.0474012
0.0373092
0.0272171
0.017125
0.00703293
-0.00305914
-0.0131512
-0.0232433
-0.0333353
-0.0434274
-0.0535195
-0.0636115
-0.0737036
-0.0837957
-0.0938877
-0.10398
-0.114072
-0.124164
-0.134256
-0.144347
-0.154438
-0.164524
-0.174611
0.174611
1.12338
1.12338
1.10036
1.06569
1.02864
0.992791
0.959607
0.929565
0.902573
0.878255
0.85614
0.835776
0.816784
0.798867
0.781804
0.76543
0.749627
0.734309
0.719408
0.704875
0.69067
0.676759
0.663117
0.649721
0.636549
0.623585
0.610814
0.598221
0.585793
0.57352
0.561391
0.549396
0.537528
0.525779
0.514143
0.502614
0.491189
0.479866
0.468641
0.457514
0.446483
0.435545
0.4247
0.413943
0.403272
0.392681
0.382164
0.371715
0.361328
0.350994
0.340707
0.33046
0.320247
0.310061
0.299897
0.289751
0.279619
0.269497
0.259384
0.249277
0.239174
0.229074
0.218977
0.208882
0.198787
0.188693
0.1786
0.168507
0.158415
0.148323
0.13823
0.128138
0.118046
0.107954
0.0978617
0.0877696
0.0776775
0.0675854
0.0574933
0.0474012
0.0373092
0.0272171
0.017125
0.00703293
-0.00305914
-0.0131512
-0.0232433
-0.0333353
-0.0434274
-0.0535195
-0.0636115
-0.0737036
-0.0837957
-0.0938877
-0.10398
-0.114072
-0.124164
-0.134256
-0.144347
-0.154437
-0.164518
-0.174608
0.174608
1.12168
1.12168
1.09981
1.06571
1.02886
0.993065
0.959881
0.92981
0.90278
0.878422
0.856272
0.835881
0.816867
0.798934
0.781858
0.765475
0.749666
0.734342
0.719437
0.704901
0.690693
0.67678
0.663136
0.649738
0.636564
0.623599
0.610827
0.598232
0.585804
0.57353
0.5614
0.549405
0.537536
0.525786
0.514149
0.50262
0.491196
0.479872
0.468647
0.457519
0.446488
0.43555
0.424705
0.413948
0.403276
0.392685
0.382167
0.371718
0.36133
0.350996
0.340709
0.330462
0.320248
0.310062
0.299898
0.289752
0.279619
0.269498
0.259384
0.249277
0.239174
0.229075
0.218977
0.208882
0.198787
0.188693
0.1786
0.168507
0.158415
0.148323
0.13823
0.128138
0.118046
0.107954
0.0978617
0.0877696
0.0776775
0.0675854
0.0574933
0.0474012
0.0373092
0.0272171
0.017125
0.00703293
-0.00305914
-0.0131512
-0.0232433
-0.0333353
-0.0434274
-0.0535195
-0.0636115
-0.0737036
-0.0837957
-0.0938877
-0.10398
-0.114072
-0.124164
-0.134256
-0.144347
-0.154436
-0.164515
-0.174607
0.174607
1.12338
1.12338
1.10036
1.06569
1.02864
0.992791
0.959607
0.929565
0.902573
0.878255
0.85614
0.835776
0.816784
0.798867
0.781804
0.76543
0.749627
0.734309
0.719408
0.704875
0.69067
0.676759
0.663117
0.649721
0.636549
0.623585
0.610814
0.598221
0.585793
0.57352
0.561391
0.549396
0.537528
0.525779
0.514143
0.502614
0.491189
0.479866
0.468641
0.457514
0.446483
0.435545
0.4247
0.413943
0.403272
0.392681
0.382164
0.371715
0.361328
0.350994
0.340707
0.33046
0.320247
0.310061
0.299897
0.289751
0.279619
0.269497
0.259384
0.249277
0.239174
0.229074
0.218977
0.208882
0.198787
0.188693
0.1786
0.168507
0.158415
0.148323
0.13823
0.128138
0.118046
0.107954
0.0978617
0.0877696
0.0776775
0.0675854
0.0574933
0.0474012
0.0373092
0.0272171
0.017125
0.00703293
-0.00305914
-0.0131512
-0.0232433
-0.0333353
-0.0434274
-0.0535195
-0.0636115
-0.0737036
-0.0837957
-0.0938877
-0.10398
-0.114072
-0.124164
-0.134256
-0.144347
-0.154437
-0.164518
-0.174608
0.174608
1.1287
1.1287
1.10199
1.06567
1.02805
0.992024
0.958838
0.928875
0.901995
0.877791
0.855775
0.835492
0.816562
0.798691
0.781661
0.765312
0.749528
0.734224
0.719335
0.704811
0.690613
0.676709
0.663072
0.64968
0.636512
0.623552
0.610783
0.598193
0.585768
0.573497
0.56137
0.549377
0.53751
0.525762
0.514127
0.502599
0.491175
0.479852
0.468628
0.457502
0.446471
0.435534
0.424689
0.413934
0.403263
0.392673
0.382157
0.371709
0.361322
0.350989
0.340703
0.330457
0.320244
0.310059
0.299895
0.28975
0.279618
0.269497
0.259384
0.249276
0.239174
0.229074
0.218977
0.208881
0.198787
0.188693
0.1786
0.168507
0.158415
0.148323
0.13823
0.128138
0.118046
0.107954
0.0978617
0.0877696
0.0776775
0.0675854
0.0574933
0.0474012
0.0373092
0.0272171
0.017125
0.00703293
-0.00305914
-0.0131512
-0.0232433
-0.0333353
-0.0434274
-0.0535195
-0.0636115
-0.0737036
-0.0837957
-0.0938877
-0.10398
-0.114072
-0.124164
-0.134256
-0.144347
-0.154438
-0.164524
-0.174611
0.174611
1.13827
1.13827
1.10447
1.06557
1.0271
0.99083
0.957662
0.927839
0.901142
0.877119
0.855258
0.835097
0.816259
0.798456
0.781475
0.765163
0.749405
0.734121
0.719247
0.704735
0.690546
0.67665
0.66302
0.649633
0.636471
0.623514
0.61075
0.598162
0.58574
0.573472
0.561346
0.549356
0.53749
0.525744
0.51411
0.502584
0.491161
0.479839
0.468616
0.45749
0.44646
0.435524
0.42468
0.413925
0.403256
0.392666
0.382151
0.371704
0.361318
0.350986
0.340701
0.330455
0.320242
0.310057
0.299894
0.289749
0.279617
0.269496
0.259383
0.249276
0.239174
0.229074
0.218977
0.208881
0.198787
0.188693
0.1786
0.168507
0.158415
0.148323
0.13823
0.128138
0.118046
0.107954
0.0978617
0.0877696
0.0776775
0.0675854
0.0574933
0.0474012
0.0373092
0.0272171
0.017125
0.00703293
-0.00305914
-0.0131512
-0.0232433
-0.0333353
-0.0434274
-0.0535195
-0.0636115
-0.0737036
-0.0837957
-0.0938877
-0.10398
-0.114072
-0.124164
-0.134256
-0.144348
-0.154439
-0.164531
-0.174614
0.174614
1.15324
1.15324
1.10735
1.06534
1.02599
0.989506
0.9564
0.926761
0.900281
0.876459
0.854766
0.834733
0.815988
0.798251
0.781317
0.765038
0.749304
0.734037
0.719176
0.704674
0.690493
0.676604
0.662979
0.649596
0.636437
0.623484
0.610722
0.598138
0.585718
0.573451
0.561328
0.549338
0.537475
0.525729
0.514097
0.502571
0.49115
0.479829
0.468607
0.457482
0.446453
0.435518
0.424675
0.413922
0.403253
0.392664
0.38215
0.371703
0.361318
0.350986
0.340701
0.330455
0.320243
0.310058
0.299895
0.289749
0.279618
0.269496
0.259383
0.249276
0.239174
0.229074
0.218977
0.208881
0.198787
0.188693
0.1786
0.168507
0.158415
0.148323
0.13823
0.128138
0.118046
0.107954
0.0978617
0.0877696
0.0776775
0.0675854
0.0574933
0.0474012
0.0373092
0.0272171
0.017125
0.00703293
-0.00305914
-0.0131512
-0.0232433
-0.0333353
-0.0434274
-0.0535195
-0.0636115
-0.0737036
-0.0837957
-0.0938877
-0.10398
-0.114072
-0.124164
-0.134256
-0.144348
-0.15444
-0.164533
-0.174616
0.174616
1.17419
1.17419
1.10934
1.06511
1.02528
0.988709
0.955657
0.926129
0.899773
0.876064
0.854462
0.834499
0.815806
0.798107
0.7812
0.76494
0.749221
0.733966
0.719113
0.704619
0.690444
0.676559
0.662938
0.64956
0.636404
0.623454
0.610694
0.598111
0.585693
0.573429
0.561307
0.549319
0.537457
0.525713
0.514081
0.502557
0.491137
0.479817
0.468597
0.457473
0.446446
0.435512
0.42467
0.413918
0.40325
0.392662
0.382148
0.371702
0.361317
0.350986
0.340701
0.330455
0.320243
0.310058
0.299895
0.28975
0.279618
0.269497
0.259384
0.249276
0.239174
0.229074
0.218977
0.208881
0.198787
0.188693
0.1786
0.168507
0.158415
0.148323
0.13823
0.128138
0.118046
0.107954
0.0978617
0.0877696
0.0776775
0.0675854
0.0574933
0.0474012
0.0373092
0.0272171
0.017125
0.00703293
-0.00305914
-0.0131512
-0.0232433
-0.0333353
-0.0434274
-0.0535195
-0.0636115
-0.0737036
-0.0837957
-0.0938877
-0.10398
-0.114072
-0.124164
-0.134256
-0.144348
-0.15444
-0.164533
-0.174616
0.174616
1.17419
1.17419
1.10934
1.06511
1.02528
0.988709
0.955657
0.926129
0.899773
0.876064
0.854462
0.834499
0.815806
0.798107
0.7812
0.76494
0.749221
0.733966
0.719113
0.704619
0.690444
0.676559
0.662938
0.64956
0.636404
0.623454
0.610694
0.598111
0.585693
0.573429
0.561307
0.549319
0.537457
0.525713
0.514081
0.502557
0.491137
0.479817
0.468597
0.457473
0.446446
0.435512
0.42467
0.413918
0.40325
0.392662
0.382148
0.371702
0.361317
0.350986
0.340701
0.330455
0.320243
0.310058
0.299895
0.28975
0.279618
0.269497
0.259384
0.249276
0.239174
0.229074
0.218977
0.208881
0.198787
0.188693
0.1786
0.168507
0.158415
0.148323
0.13823
0.128138
0.118046
0.107954
0.0978617
0.0877696
0.0776775
0.0675854
0.0574933
0.0474012
0.0373092
0.0272171
0.017125
0.00703293
-0.00305914
-0.0131512
-0.0232433
-0.0333353
-0.0434274
-0.0535195
-0.0636115
-0.0737036
-0.0837957
-0.0938877
-0.10398
-0.114072
-0.124164
-0.134256
-0.144348
-0.15444
-0.164533
-0.174616
0.174616
SCALARS phi double
LOOKUP_TABLE phi
1
1
1
1
0.999998
0.999994
0.999982
0.999957
0.999909
0.99983
0.999708
0.999518
0.999255
0.998968
0.998693
0.99826
0.997103
0.994244
0.988508
0.978842
0.964572
0.945499
0.921839
0.89409
0.862893
0.828926
0.792847
0.755261
0.716711
0.677672
0.638556
0.599709
0.561417
0.523911
0.487373
0.451941
0.417717
0.384773
0.35316
0.322909
0.294043
0.266574
0.240513
0.215871
0.192657
0.170883
0.15056
0.131701
0.114312
0.0983966
0.0839476
0.0709479
0.0593665
0.0491576
0.0402603
0.0325989
0.0260848
0.0206187
0.0160946
0.0124024
0.00943251
0.00707854
0.00524048
0.00382685
0.00275613
0.00195751
0.00137095
0.000946756
0.000644672
0.000432836
0.00028655
0.00018706
0.000120416
7.64423e-05
4.78587e-05
2.95528e-05
1.80003e-05
1.08155e-05
6.41125e-06
3.74979e-06
2.16415e-06
1.23262e-06
6.92915e-07
3.84494e-07
2.10623e-07
1.13915e-07
6.0836e-08
3.20846e-08
1.67124e-08
8.59881e-09
4.37062e-09
2.19484e-09
1.08909e-09
5.34049e-10
2.5882e-10
1.23983e-10
5.87111e-11
2.74865e-11
1.27239e-11
5.82278e-12
2.64718e-12
1.10406e-12
1.10406e-12
1
1
1
1
0.999998
0.999994
0.999982
0.999957
0.999909
0.99983
0.999708
0.999518
0.999255
0.998968
0.998693
0.99826
0.997103
0.994244
0.988508
0.978842
0.964572
0.945499
0.921839
0.89409
0.862893
0.828926
0.792847
0.755261
0.716711
0.677672
0.638556
0.599709
0.561417
0.523911
0.487373
0.451941
0.417717
0.384773
0.35316
0.322909
0.294043
0.266574
0.240513
0.215871
0.192657
0.170883
0.15056
0.131701
0.114312
0.0983966
0.0839476
0.0709479
0.0593665
0.0491576
0.0402603
0.0325989
0.0260848
0.0206187
0.0160946
0.0124024
0.00943251
0.00707854
0.00524048
0.00382685
0.00275613
0.00195751
0.00137095
0.000946756
0.000644672
0.000432836
0.00028655
0.00018706
0.000120416
7.64423e-05
4.78587e-05
2.95528e-05
1.80003e-05
1.08155e-05
6.41125e-06
3.74979e-06
2.16415e-06
1.23262e-06
6.92915e-07
3.84494e-07
2.10623e-07
1.13915e-07
6.0836e-08
3.20846e-08
1.67124e-08
8.59881e-09
4.37062e-09
2.19484e-09
1.08909e-09
5.34049e-10
2.5882e-10
1.23983e-10
5.87111e-11
2.74865e-11
1.27239e-11
5.82278e-12
2.64718e-12
1.10406e-12
1.10406e-12
1
1
1
0.999996
0.999983
0.999953
0.999898
0.999804
0.999658
0.999446
0.999157
0.998778
0.998295
0.997708
0.997031
0.996262
0.995316
0.993959
0.991785
0.988265
0.982829
0.974969
0.96431
0.950644
0.933928
0.914261
0.891851
0.866979
0.839975
0.81119
0.78098
0.749689
0.717644
0.685142
0.652449
0.619796
0.587376
0.555344
0.52382
0.492887
0.462601
0.432988
0.404055
0.375798
0.348203
0.321261
0.294973
0.269355
0.244446
0.220309
0.197032
0.174725
0.153516
0.133536
0.114914
0.0977663
0.0821809
0.068214
0.0558828
0.0451643
0.0359964
0.0282835
0.0219031
0.0167141
0.0125661
0.00930688
0.00678988
0.00487927
0.00345364
0.00240787
0.00165364
0.00111872
0.000745603
0.000489594
0.000316773
0.000201972
0.000126915
7.86087e-05
4.79971e-05
2.88937e-05
1.71512e-05
1.00403e-05
5.79721e-06
3.30196e-06
1.85553e-06
1.02887e-06
5.63014e-07
3.04086e-07
1.62126e-07
8.53391e-08
4.43547e-08
2.27659e-08
1.15409e-08
5.7791e-09
2.85892e-09
1.39739e-09
6.7494e-10
3.22174e-10
1.52007e-10
7.08721e-11
3.28326e-11
1.38941e-11
1.38941e-11
0.999997
1
0.99998
0.999896
0.999724
0.999434
0.998999
0.998397
0.997613
0.996636
0.995464
0.994099
0.992546
0.990814
0.988916
0.986866
0.984674
0.982324
0.97976
0.976869
0.973487
0.96941
0.964412
0.958275
0.950802
0.941836
0.931267
0.919033
0.905123
0.889568
0.872439
0.853838
0.83389
0.81274
0.790543
0.767459
0.743646
0.719253
0.694417
0.669252
0.643852
0.618277
0.592559
0.566697
0.540658
0.514381
0.487787
0.46079
0.43331
0.405293
0.376731
0.347676
0.318253
0.288667
0.259197
0.23018
0.201994
0.175026
0.149644
0.126165
0.104839
0.0858269
0.0691969
0.054928
0.0429196
0.0330072
0.0249811
0.0186056
0.0136364
0.00983535
0.00698135
0.0048773
0.00335391
0.00227041
0.00151319
0.000993057
0.000641817
0.000408572
0.00025622
0.000158312
9.63918e-05
5.78445e-05
3.42176e-05
1.9956e-05
1.14764e-05