# vtk DataFile Version 3.0
FlowField
ASCII
DATASET STRUCTURED_GRID
DIMENSIONS 103 13 1 
POINTS 1339 double
0 0 0
0.3 0 0
0.6 0 0
0.9 0 0
1.2 0 0
1.5 0 0
1.8 0 0
2.1 0 0
2.4 0 0
2.7 0 0
3 0 0
3.3 0 0
3.6 0 0
3.9 0 0
4.2 0 0
4.5 0 0
4.8 0 0
5.1 0 0
5.4 0 0
5.7 0 0
6 0 0
6.3 0 0
6.6 0 0
6.9 0 0
7.2 0 0
7.5 0 0
7.8 0 0
8.1 0 0
8.4 0 0
8.7 0 0
9 0 0
9.3 0 0
9.6 0 0
9.9 0 0
10.2 0 0
10.5 0 0
10.8 0 0
11.1 0 0
11.4 0 0
11.7 0 0
12 0 0
12.3 0 0
12.6 0 0
12.9 0 0
13.2 0 0
13.5 0 0
13.8 0 0
14.1 0 0
14.4 0 0
14.7 0 0
15 0 0
15.3 0 0
15.6 0 0
15.9 0 0
16.2 0 0
16.5 0 0
16.8 0 0
17.1 0 0
17.4 0 0
17.7 0 0
18 0 0
18.3 0 0
18.6 0 0
18.9 0 0
19.2 0 0
19.5 0 0
19.8 0 0
20.1 0 0
20.4 0 0
20.7 0 0
21 0 0
21.3 0 0
21.6 0 0
21.9 0 0
22.2 0 0
22.5 0 0
22.8 0 0
23.1 0 0
23.4 0 0
23.7 0 0
24 0 0
24.3 0 0
24.6 0 0
24.9 0 0
25.2 0 0
25.5 0 0
25.8 0 0
26.1 0 0
26.4 0 0
26.7 0 0
27 0 0
27.3 0 0
27.6 0 0
27.9 0 0
28.2 0 0
28.5 0 0
28.8 0 0
29.1 0 0
29.4 0 0
29.7 0 0
30 0 0
30.3 0 0
30.6 0 0
0 0.1 0
0.3 0.1 0
0.6 0.1 0
0.9 0.1 0
1.2 0.1 0
1.5 0.1 0
1.8 0.1 0
2.1 0.1 0
2.4 0.1 0
2.7 0.1 0
3 0.1 0
3.3 0.1 0
3.6 0.1 0
3.9 0.1 0
4.2 0.1 0
4.5 0.1 0
4.8 0.1 0
5.1 0.1 0
5.4 0.1 0
5.7 0.1 0
6 0.1 0
6.3 0.1 0
6.6 0.1 0
6.9 0.1 0
7.2 0.1 0
7.5 0.1 0
7.8 0.1 0
8.1 0.1 0
8.4 0.1 0
8.7 0.1 0
9 0.1 0
9.3 0.1 0
9.6 0.1 0
9.9 0.1 0
10.2 0.1 0
10.5 0.1 0
10.8 0.1 0
11.1 0.1 0
11.4 0.1 0
11.7 0.1 0
12 0.1 0
12.3 0.1 0
12.6 0.1 0
12.9 0.1 0
13.2 0.1 0
13.5 0.1 0
13.8 0.1 0
14.1 0.1 0
14.4 0.1 0
14.7 0.1 0
15 0.1 0
15.3 0.1 0
15.6 0.1 0
15.9 0.1 0
16.2 0.1 0
16.5 0.1 0
16.8 0.1 0
17.1 0.1 0
17.4 0.1 0
17.7 0.1 0
18 0.1 0
18.3 0.1 0
18.6 0.1 0
18.9 0.1 0
19.2 0.1 0
19.5 0.1 0
19.8 0.1 0
20.1 0.1 0
20.4 0.1 0
20.7 0.1 0
21 0.1 0
21.3 0.1 0
21.6 0.1 0
21.9 0.1 0
22.2 0.1 0
22.5 0.1 0
22.8 0.1 0
23.1 0.1 0
23.4 0.1 0
23.7 0.1 0
24 0.1 0
24.3 0.1 0
24.6 0.1 0
24.9 0.1 0
25.2 0.1 0
25.5 0.1 0
25.8 0.1 0
26.1 0.1 0
26.4 0.1 0
26.7 0.1 0
27 0.1 0
27.3 0.1 0
27.6 0.1 0
27.9 0.1 0
28.2 0.1 0
28.5 0.1 0
28.8 0.1 0
29.1 0.1 0
29.4 0.1 0
29.7 0.1 0
30 0.1 0
30.3 0.1 0
30.6 0.1 0
0 0.2 0
0.3 0.2 0
0.6 0.2 0
0.9 0.2 0
1.2 0.2 0
1.5 0.2 0
1.8 0.2 0
2.1 0.2 0
2.4 0.2 0
2.7 0.2 0
3 0.2 0
3.3 0.2 0
3.6 0.2 0
3.9 0.2 0
4.2 0.2 0
4.5 0.2 0
4.8 0.2 0
5.1 0.2 0
5.4 0.2 0
5.7 0.2 0
6 0.2 0
6.3 0.2 0
6.6 0.2 0
6.9 0.2 0
7.2 0.2 0
7.5 0.2 0
7.8 0.2 0
8.1 0.2 0
8.4 0.2 0
8.7 0.2 0
9 0.2 0
9.3 0.2 0
9.6 0.2 0
9.9 0.2 0
10.2 0.2 0
10.5 0.2 0
10.8 0.2 0
11.1 0.2 0
11.4 0.2 0
11.7 0.2 0
12 0.2 0
12.3 0.2 0
12.6 0.2 0
12.9 0.2 0
13.2 0.2 0
13.5 0.2 0
13.8 0.2 0
14.1 0.2 0
14.4 0.2 0
14.7 0.2 0
15 0.2 0
15.3 0.2 0
15.6 0.2 0
15.9 0.2 0
16.2 0.2 0
16.5 0.2 0
16.8 0.2 0
17.1 0.2 0
17.4 0.2 0
17.7 0.2 0
18 0.2 0
18.3 0.2 0
18.6 0.2 0
18.9 0.2 0
19.2 0.2 0
19.5 0.2 0
19.8 0.2 0
20.1 0.2 0
20.4 0.2 0
20.7 0.2 0
21 0.2 0
21.3 0.2 0
21.6 0.2 0
21.9 0.2 0
22.2 0.2 0
22.5 0.2 0
22.8 0.2 0
23.1 0.2 0
23.4 0.2 0
23.7 0.2 0
24 0.2 0
24.3 0.2 0
24.6 0.2 0
24.9 0.2 0
25.2 0.2 0
25.5 0.2 0
25.8 0.2 0
26.1 0.2 0
26.4 0.2 0
26.7 0.2 0
27 0.2 0
27.3 0.2 0
27.6 0.2 0
27.9 0.2 0
28.2 0.2 0
28.5 0.2 0
28.8 0.2 0
29.1 0.2 0
29.4 0.2 0
29.7 0.2 0
30 0.2 0
30.3 0.2 0
30.6 0.2 0
0 0.3 0
0.3 0.3 0
0.6 0.3 0
0.9 0.3 0
1.2 0.3 0
1.5 0.3 0
1.8 0.3 0
2.1 0.3 0
2.4 0.3 0
2.7 0.3 0
3 0.3 0
3.3 0.3 0
3.6 0.3 0
3.9 0.3 0
4.2 0.3 0
4.5 0.3 0
4.8 0.3 0
5.1 0.3 0
5.4 0.3 0
5.7 0.3 0
6 0.3 0
6.3 0.3 0
6.6 0.3 0
6.9 0.3 0
7.2 0.3 0
7.5 0.3 0
7.8 0.3 0
8.1 0.3 0
8.4 0.3 0
8.7 0.3 0
9 0.3 0
9.3 0.3 0
9.6 0.3 0
9.9 0.3 0
10.2 0.3 0
10.5 0.3 0
10.8 0.3 0
11.1 0.3 0
11.4 0.3 0
11.7 0.3 0
12 0.3 0
12.3 0.3 0
12.6 0.3 0
12.9 0.3 0
13.2 0.3 0
13.5 0.3 0
13.8 0.3 0
14.1 0.3 0
14.4 0.3 0
14.7 0.3 0
15 0.3 0
15.3 0.3 0
15.6 0.3 0
15.9 0.3 0
16.2 0.3 0
16.5 0.3 0
16.8 0.3 0
17.1 0.3 0
17.4 0.3 0
17.7 0.3 0
18 0.3 0
18.3 0.3 0
18.6 0.3 0
18.9 0.3 0
19.2 0.3 0
19.5 0.3 0
19.8 0.3 0
20.1 0.3 0
20.4 0.3 0
20.7 0.3 0
21 0.3 0
21.3 0.3 0
21.6 0.3 0
21.9 0.3 0
22.2 0.3 0
22.5 0.3 0
22.8 0.3 0
23.1 0.3 0
23.4 0.3 0
23.7 0.3 0
24 0.3 0
24.3 0.3 0
24.6 0.3 0
24.9 0.3 0
25.2 0.3 0
25.5 0.3 0
25.8 0.3 0
26.1 0.3 0
26.4 0.3 0
26.7 0.3 0
27 0.3 0
27.3 0.3 0
27.6 0.3 0
27.9 0.3 0
28.2 0.3 0
28.5 0.3 0
28.8 0.3 0
29.1 0.3 0
29.4 0.3 0
29.7 0.3 0
30 0.3 0
30.3 0.3 0
30.6 0.3 0
0 0.4 0
0.3 0.4 0
0.6 0.4 0
0.9 0.4 0
1.2 0.4 0
1.5 0.4 0
1.8 0.4 0
2.1 0.4 0
2.4 0.4 0
2.7 0.4 0
3 0.4 0
3.3 0.4 0
3.6 0.4 0
3.9 0.4 0
4.2 0.4 0
4.5 0.4 0
4.8 0.4 0
5.1 0.4 0
5.4 0.4 0
5.7 0.4 0
6 0.4 0
6.3 0.4 0
6.6 0.4 0
6.9 0.4 0
7.2 0.4 0
7.5 0.4 0
7.8 0.4 0
8.1 0.4 0
8.4 0.4 0
8.7 0.4 0
9 0.4 0
9.3 0.4 0
9.6 0.4 0
9.9 0.4 0
10.2 0.4 0
10.5 0.4 0
10.8 0.4 0
11.1 0.4 0
11.4 0.4 0
11.7 0.4 0
12 0.4 0
12.3 0.4 0
12.6 0.4 0
12.9 0.4 0
13.2 0.4 0
13.5 0.4 0
13.8 0.4 0
14.1 0.4 0
14.4 0.4 0
14.7 0.4 0
15 0.4 0
15.3 0.4 0
15.6 0.4 0
15.9 0.4 0
16.2 0.4 0
16.5 0.4 0
16.8 0.4 0
17.1 0.4 0
17.4 0.4 0
17.7 0.4 0
18 0.4 0
18.3 0.4 0
18.6 0.4 0
18.9 0.4 0
19.2 0.4 0
19.5 0.4 0
19.8 0.4 0
20.1 0.4 0
20.4 0.4 0
20.7 0.4 0
21 0.4 0
21.3 0.4 0
21.6 0.4 0
21.9 0.4 0
22.2 0.4 0
22.5 0.4 0
22.8 0.4 0
23.1 0.4 0
23.4 0.4 0
23.7 0.4 0
24 0.4 0
24.3 0.4 0
24.6 0.4 0
24.9 0.4 0
25.2 0.4 0
25.5 0.4 0
25.8 0.4 0
26.1 0.4 0
26.4 0.4 0
26.7 0.4 0
27 0.4 0
27.3 0.4 0
27.6 0.4 0
27.9 0.4 0
28.2 0.4 0
28.5 0.4 0
28.8 0.4 0
29.1 0.4 0
29.4 0.4 0
29.7 0.4 0
30 0.4 0
30.3 0.4 0
30.6 0.4 0
0 0.5 0
0.3 0.5 0
0.6 0.5 0
0.9 0.5 0
1.2 0.5 0
1.5 0.5 0
1.8 0.5 0
2.1 0.5 0
2.4 0.5 0
2.7 0.5 0
3 0.5 0
3.3 0.5 0
3.6 0.5 0
3.9 0.5 0
4.2 0.5 0
4.5 0.5 0
4.8 0.5 0
5.1 0.5 0
5.4 0.5 0
5.7 0.5 0
6 0.5 0
6.3 0.5 0
6.6 0.5 0
6.9 0.5 0
7.2 0.5 0
7.5 0.5 0
7.8 0.5 0
8.1 0.5 0
8.4 0.5 0
8.7 0.5 0
9 0.5 0
9.3 0.5 0
9.6 0.5 0
9.9 0.5 0
10.2 0.5 0
10.5 0.5 0
10.8 0.5 0
11.1 0.5 0
11.4 0.5 0
11.7 0.5 0
12 0.5 0
12.3 0.5 0
12.6 0.5 0
12.9 0.5 0
13.2 0.5 0
13.5 0.5 0
13.8 0.5 0
14.1 0.5 0
14.4 0.5 0
14.7 0.5 0
15 0.5 0
15.3 0.5 0
15.6 0.5 0
15.9 0.5 0
16.2 0.5 0
16.5 0.5 0
16.8 0.5 0
17.1 0.5 0
17.4 0.5 0
17.7 0.5 0
18 0.5 0
18.3 0.5 0
18.6 0.5 0
18.9 0.5 0
19.2 0.5 0
19.5 0.5 0
19.8 0.5 0
20.1 0.5 0
20.4 0.5 0
20.7 0.5 0
21 0.5 0
21.3 0.5 0
21.6 0.5 0
21.9 0.5 0
22.2 0.5 0
22.5 0.5 0
22.8 0.5 0
23.1 0.5 0
23.4 0.5 0
23.7 0.5 0
24 0.5 0
24.3 0.5 0
24.6 0.5 0
24.9 0.5 0
25.2 0.5 0
25.5 0.5 0
25.8 0.5 0
26.1 0.5 0
26.4 0.5 0
26.7 0.5 0
27 0.5 0
27.3 0.5 0
27.6 0.5 0
27.9 0.5 0
28.2 0.5 0
28.5 0.5 0
28.8 0.5 0
29.1 0.5 0
29.4 0.5 0
29.7 0.5 0
30 0.5 0
30.3 0.5 0
30.6 0.5 0
0 0.6 0
0.3 0.6 0
0.6 0.6 0
0.9 0.6 0
1.2 0.6 0
1.5 0.6 0
1.8 0.6 0
2.1 0.6 0
2.4 0.6 0
2.7 0.6 0
3 0.6 0
3.3 0.6 0
3.6 0.6 0
3.9 0.6 0
4.2 0.6 0
4.5 0.6 0
4.8 0.6 0
5.1 0.6 0
5.4 0.6 0
5.7 0.6 0
6 0.6 0
6.3 0.6 0
6.6 0.6 0
6.9 0.6 0
7.2 0.6 0
7.5 0.6 0
7.8 0.6 0
8.1 0.6 0
8.4 0.6 0
8.7 0.6 0
9 0.6 0
9.3 0.6 0
9.6 0.6 0
9.9 0.6 0
10.2 0.6 0
10.5 0.6 0
10.8 0.6 0
11.1 0.6 0
11.4 0.6 0
11.7 0.6 0
12 0.6 0
12.3 0.6 0
12.6 0.6 0
12.9 0.6 0
13.2 0.6 0
13.5 0.6 0
13.8 0.6 0
14.1 0.6 0
14.4 0.6 0
14.7 0.6 0
15 0.6 0
15.3 0.6 0
15.6 0.6 0
15.9 0.6 0
16.2 0.6 0
16.5 0.6 0
16.8 0.6 0
17.1 0.6 0
17.4 0.6 0
17.7 0.6 0
18 0.6 0
18.3 0.6 0
18.6 0.6 0
18.9 0.6 0
19.2 0.6 0
19.5 0.6 0
19.8 0.6 0
20.1 0.6 0
20.4 0.6 0
20.7 0.6 0
21 0.6 0
21.3 0.6 0
21.6 0.6 0
21.9 0.6 0
22.2 0.6 0
22.5 0.6 0
22.8 0.6 0
23.1 0.6 0
23.4 0.6 0
23.7 0.6 0
24 0.6 0
24.3 0.6 0
24.6 0.6 0
24.9 0.6 0
25.2 0.6 0
25.5 0.6 0
25.8 0.6 0
26.1 0.6 0
26.4 0.6 0
26.7 0.6 0
27 0.6 0
27.3 0.6 0
27.6 0.6 0
27.9 0.6 0
28.2 0.6 0
28.5 0.6 0
28.8 0.6 0
29.1 0.6 0
29.4 0.6 0
29.7 0.6 0
30 0.6 0
30.3 0.6 0
30.6 0.6 0
0 0.7 0
0.3 0.7 0
0.6 0.7 0
0.9 0.7 0
1.2 0.7 0
1.5 0.7 0
1.8 0.7 0
2.1 0.7 0
2.4 0.7 0
2.7 0.7 0
3 0.7 0
3.3 0.7 0
3.6 0.7 0
3.9 0.7 0
4.2 0.7 0
4.5 0.7 0
4.8 0.7 0
5.1 0.7 0
5.4 0.7 0
5.7 0.7 0
6 0.7 0
6.3 0.7 0
6.6 0.7 0
6.9 0.7 0
7.2 0.7 0
7.5 0.7 0
7.8 0.7 0
8.1 0.7 0
8.4 0.7 0
8.7 0.7 0
9 0.7 0
9.3 0.7 0
9.6 0.7 0
9.9 0.7 0
10.2 0.7 0
10.5 0.7 0
10.8 0.7 0
11.1 0.7 0
11.4 0.7 0
11.7 0.7 0
12 0.7 0
12.3 0.7 0
12.6 0.7 0
12.9 0.7 0
13.2 0.7 0
13.5 0.7 0
13.8 0.7 0
14.1 0.7 0
14.4 0.7 0
14.7 0.7 0
15 0.7 0
15.3 0.7 0
15.6 0.7 0
15.9 0.7 0
16.2 0.7 0
16.5 0.7 0
16.8 0.7 0
17.1 0.7 0
17.4 0.7 0
17.7 0.7 0
18 0.7 0
18.3 0.7 0
18.6 0.7 0
18.9 0.7 0
19.2 0.7 0
19.5 0.7 0
19.8 0.7 0
20.1 0.7 0
20.4 0.7 0
20.7 0.7 0
21 0.7 0
21.3 0.7 0
21.6 0.7 0
21.9 0.7 0
22.2 0.7 0
22.5 0.7 0
22.8 0.7 0
23.1 0.7 0
23.4 0.7 0
23.7 0.7 0
24 0.7 0
24.3 0.7 0
24.6 0.7 0
24.9 0.7 0
25.2 0.7 0
25.5 0.7 0
25.8 0.7 0
26.1 0.7 0
26.4 0.7 0
26.7 0.7 0
27 0.7 0
27.3 0.7 0
27.6 0.7 0
27.9 0.7 0
28.2 0.7 0
28.5 0.7 0
28.8 0.7 0
29.1 0.7 0
29.4 0.7 0
29.7 0.7 0
30 0.7 0
30.3 0.7 0
30.6 0.7 0
0 0.8 0
0.3 0.8 0
0.6 0.8 0
0.9 0.8 0
1.2 0.8 0
1.5 0.8 0
1.8 0.8 0
2.1 0.8 0
2.4 0.8 0
2.7 0.8 0
3 0.8 0
3.3 0.8 0
3.6 0.8 0
3.9 0.8 0
4.2 0.8 0
4.5 0.8 0
4.8 0.8 0
5.1 0.8 0
5.4 0.8 0
5.7 0.8 0
6 0.8 0
6.3 0.8 0
6.6 0.8 0
6.9 0.8 0
7.2 0.8 0
7.5 0.8 0
7.8 0.8 0
8.1 0.8 0
8.4 0.8 0
8.7 0.8 0
9 0.8 0
9.3 0.8 0
9.6 0.8 0
9.9 0.8 0
10.2 0.8 0
10.5 0.8 0
10.8 0.8 0
11.1 0.8 0
11.4 0.8 0
11.7 0.8 0
12 0.8 0
12.3 0.8 0
12.6 0.8 0
12.9 0.8 0
13.2 0.8 0
13.5 0.8 0
13.8 0.8 0
14.1 0.8 0
14.4 0.8 0
14.7 0.8 0
15 0.8 0
15.3 0.8 0
15.6 0.8 0
15.9 0.8 0
16.2 0.8 0
16.5 0.8 0
16.8 0.8 0
17.1 0.8 0
17.4 0.8 0
17.7 0.8 0
18 0.8 0
18.3 0.8 0
18.6 0.8 0
18.9 0.8 0
19.2 0.8 0
19.5 0.8 0
19.8 0.8 0
20.1 0.8 0
20.4 0.8 0
20.7 0.8 0
21 0.8 0
21.3 0.8 0
21.6 0.8 0
21.9 0.8 0
22.2 0.8 0
22.5 0.8 0
22.8 0.8 0
23.1 0.8 0
23.4 0.8 0
23.7 0.8 0
24 0.8 0
24.3 0.8 0
24.6 0.8 0
24.9 0.8 0
25.2 0.8 0
25.5 0.8 0
25.8 0.8 0
26.1 0.8 0
26.4 0.8 0
26.7 0.8 0
27 0.8 0
27.3 0.8 0
27.6 0.8 0
27.9 0.8 0
28.2 0.8 0
28.5 0.8 0
28.8 0.8 0
29.1 0.8 0
29.4 0.8 0
29.7 0.8 0
30 0.8 0
30.3 0.8 0
30.6 0.8 0
0 0.9 0
0.3 0.9 0
0.6 0.9 0
0.9 0.9 0
1.2 0.9 0
1.5 0.9 0
1.8 0.9 0
2.1 0.9 0
2.4 0.9 0
2.7 0.9 0
3 0.9 0
3.3 0.9 0
3.6 0.9 0
3.9 0.9 0
4.2 0.9 0
4.5 0.9 0
4.8 0.9 0
5.1 0.9 0
5.4 0.9 0
5.7 0.9 0
6 0.9 0
6.3 0.9 0
6.6 0.9 0
6.9 0.9 0
7.2 0.9 0
7.5 0.9 0
7.8 0.9 0
8.1 0.9 0
8.4 0.9 0
8.7 0.9 0
9 0.9 0
9.3 0.9 0
9.6 0.9 0
9.9 0.9 0
10.2 0.9 0
10.5 0.9 0
10.8 0.9 0
11.1 0.9 0
11.4 0.9 0
11.7 0.9 0
12 0.9 0
12.3 0.9 0
12.6 0.9 0
12.9 0.9 0
13.2 0.9 0
13.5 0.9 0
13.8 0.9 0
14.1 0.9 0
14.4 0.9 0
14.7 0.9 0
15 0.9 0
15.3 0.9 0
15.6 0.9 0
15.9 0.9 0
16.2 0.9 0
16.5 0.9 0
16.8 0.9 0
17.1 0.9 0
17.4 0.9 0
17.7 0.9 0
18 0.9 0
18.3 0.9 0
18.6 0.9 0
18.9 0.9 0
19.2 0.9 0
19.5 0.9 0
19.8 0.9 0
20.1 0.9 0
20.4 0.9 0
20.7 0.9 0
21 0.9 0
21.3 0.9 0
21.6 0.9 0
21.9 0.9 0
22.2 0.9 0
22.5 0.9 0
22.8 0.9 0
23.1 0.9 0
23.4 0.9 0
23.7 0.9 0
24 0.9 0
24.3 0.9 0
24.6 0.9 0
24.9 0.9 0
25.2 0.9 0
25.5 0.9 0
25.8 0.9 0
26.1 0.9 0
26.4 0.9 0
26.7 0.9 0
27 0.9 0
27.3 0.9 0
27.6 0.9 0
27.9 0.9 0
28.2 0.9 0
28.5 0.9 0
28.8 0.9 0
29.1 0.9 0
29.4 0.9 0
29.7 0.9 0
30 0.9 0
30.3 0.9 0
30.6 0.9 0
0 1 0
0.3 1 0
0.6 1 0
0.9 1 0
1.2 1 0
1.5 1 0
1.8 1 0
2.1 1 0
2.4 1 0
2.7 1 0
3 1 0
3.3 1 0
3.6 1 0
3.9 1 0
4.2 1 0
4.5 1 0
4.8 1 0
5.1 1 0
5.4 1 0
5.7 1 0
6 1 0
6.3 1 0
6.6 1 0
6.9 1 0
7.2 1 0
7.5 1 0
7.8 1 0
8.1 1 0
8.4 1 0
8.7 1 0
9 1 0
9.3 1 0
9.6 1 0
9.9 1 0
10.2 1 0
10.5 1 0
10.8 1 0
11.1 1 0
11.4 1 0
11.7 1 0
12 1 0
12.3 1 0
12.6 1 0
12.9 1 0
13.2 1 0
13.5 1 0
13.8 1 0
14.1 1 0
14.4 1 0
14.7 1 0
15 1 0
15.3 1 0
15.6 1 0
15.9 1 0
16.2 1 0
16.5 1 0
16.8 1 0
17.1 1 0
17.4 1 0
17.7 1 0
18 1 0
18.3 1 0
18.6 1 0
18.9 1 0
19.2 1 0
19.5 1 0
19.8 1 0
20.1 1 0
20.4 1 0
20.7 1 0
21 1 0
21.3 1 0
21.6 1 0
21.9 1 0
22.2 1 0
22.5 1 0
22.8 1 0
23.1 1 0
23.4 1 0
23.7 1 0
24 1 0
24.3 1 0
24.6 1 0
24.9 1 0
25.2 1 0
25.5 1 0
25.8 1 0
26.1 1 0
26.4 1 0
26.7 1 0
27 1 0
27.3 1 0
27.6 1 0
27.9 1 0
28.2 1 0
28.5 1 0
28.8 1 0
29.1 1 0
29.4 1 0
29.7 1 0
30 1 0
30.3 1 0
30.6 1 0
0 1.1 0
0.3 1.1 0
0.6 1.1 0
0.9 1.1 0
1.2 1.1 0
1.5 1.1 0
1.8 1.1 0
2.1 1.1 0
2.4 1.1 0
2.7 1.1 0
3 1.1 0
3.3 1.1 0
3.6 1.1 0
3.9 1.1 0
4.2 1.1 0
4.5 1.1 0
4.8 1.1 0
5.1 1.1 0
5.4 1.1 0
5.7 1.1 0
6 1.1 0
6.3 1.1 0
6.6 1.1 0
6.9 1.1 0
7.2 1.1 0
7.5 1.1 0
7.8 1.1 0
8.1 1.1 0
8.4 1.1 0
8.7 1.1 0
9 1.1 0
9.3 1.1 0
9.6 1.1 0
9.9 1.1 0
10.2 1.1 0
10.5 1.1 0
10.8 1.1 0
11.1 1.1 0
11.4 1.1 0
11.7 1.1 0
12 1.1 0
12.3 1.1 0
12.6 1.1 0
12.9 1.1 0
13.2 1.1 0
13.5 1.1 0
13.8 1.1 0
14.1 1.1 0
14.4 1.1 0
14.7 1.1 0
15 1.1 0
15.3 1.1 0
15.6 1.1 0
15.9 1.1 0
16.2 1.1 0
16.5 1.1 0
16.8 1.1 0
17.1 1.1 0
17.4 1.1 0
17.7 1.1 0
18 1.1 0
18.3 1.1 0
18.6 1.1 0
18.9 1.1 0
19.2 1.1 0
19.5 1.1 0
19.8 1.1 0
20.1 1.1 0
20.4 1.1 0
20.7 1.1 0
21 1.1 0
21.3 1.1 0
21.6 1.1 0
21.9 1.1 0
22.2 1.1 0
22.5 1.1 0
22.8 1.1 0
23.1 1.1 0
23.4 1.1 0
23.7 1.1 0
24 1.1 0
24.3 1.1 0
24.6 1.1 0
24.9 1.1 0
25.2 1.1 0
25.5 1.1 0
25.8 1.1 0
26.1 1.1 0
26.4 1.1 0
26.7 1.1 0
27 1.1 0
27.3 1.1 0
27.6 1.1 0
27.9 1.1 0
28.2 1.1 0
28.5 1.1 0
28.8 1.1 0
29.1 1.1 0
29.4 1.1 0
29.7 1.1 0
30 1.1 0
30.3 1.1 0
30.6 1.1 0
0 1.2 0
0.3 1.2 0
0.6 1.2 0
0.9 1.2 0
1.2 1.2 0
1.5 1.2 0
1.8 1.2 0
2.1 1.2 0
2.4 1.2 0
2.7 1.2 0
3 1.2 0
3.3 1.2 0
3.6 1.2 0
3.9 1.2 0
4.2 1.2 0
4.5 1.2 0
4.8 1.2 0
5.1 1.2 0
5.4 1.2 0
5.7 1.2 0
6 1.2 0
6.3 1.2 0
6.6 1.2 0
6.9 1.2 0
7.2 1.2 0
7.5 1.2 0
7.8 1.2 0
8.1 1.2 0
8.4 1.2 0
8.7 1.2 0
9 1.2 0
9.3 1.2 0
9.6 1.2 0
9.9 1.2 0
10.2 1.2 0
10.5 1.2 0
10.8 1.2 0
11.1 1.2 0
11.4 1.2 0
11.7 1.2 0
12 1.2 0
12.3 1.2 0
12.6 1.2 0
12.9 1.2 0
13.2 1.2 0
13.5 1.2 0
13.8 1.2 0
14.1 1.2 0
14.4 1.2 0
14.7 1.2 0
15 1.2 0
15.3 1.2 0
15.6 1.2 0
15.9 1.2 0
16.2 1.2 0
16.5 1.2 0
16.8 1.2 0
17.1 1.2 0
17.4 1.2 0
17.7 1.2 0
18 1.2 0
18.3 1.2 0
18.6 1.2 0
18.9 1.2 0
19.2 1.2 0
19.5 1.2 0
19.8 1.2 0
20.1 1.2 0
20.4 1.2 0
20.7 1.2 0
21 1.2 0
21.3 1.2 0
21.6 1.2 0
21.9 1.2 0
22.2 1.2 0
22.5 1.2 0
22.8 1.2 0
23.1 1.2 0
23.4 1.2 0
23.7 1.2 0
24 1.2 0
24.3 1.2 0
24.6 1.2 0
24.9 1.2 0
25.2 1.2 0
25.5 1.2 0
25.8 1.2 0
26.1 1.2 0
26.4 1.2 0
26.7 1.2 0
27 1.2 0
27.3 1.2 0
27.6 1.2 0
27.9 1.2 0
28.2 1.2 0
28.5 1.2 0
28.8 1.2 0
29.1 1.2 0
29.4 1.2 0
29.7 1.2 0
30 1.2 0
30.3 1.2 0
30.6 1.2 0

POINT_DATA 1339

SCALARS pressure double
LOOKUP_TABLE pressure
1.24237
1.24237
1.17752
1.13329
1.09347
1.05689
1.02384
0.994311
0.967956
0.944247
0.922645
0.9027
0.884079
0.866559
0.850002
0.834319
0.819437
0.805279
0.791751
0.778741
0.766134
0.75382
0.741705
0.729717
0.717804
0.705933
0.694085
0.682248
0.670417
0.658589
0.646762
0.634936
0.623111
0.611286
0.59946
0.587635
0.57581
0.563985
0.55216
0.540335
0.52851
0.516685
0.50486
0.493035
0.48121
0.469385
0.45756
0.445735
0.43391
0.422085
0.41026
0.398435
0.38661
0.374785
0.36296
0.351136
0.339311
0.327486
0.315661
0.303836
0.292011
0.280186
0.268361
0.256536
0.244711
0.232886
0.221061
0.209236
0.197411
0.185586
0.173761
0.161936
0.150111
0.138286
0.126461
0.114636
0.102811
0.0909861
0.0791611
0.0673362
0.0555112
0.0436862
0.0318613
0.0200363
0.00821134
-0.00361362
-0.0154386
-0.0272635
-0.0390885
-0.0509135
-0.0627384
-0.0745634
-0.0863883
-0.0982133
-0.110038
-0.121863
-0.133688
-0.145513
-0.157337
-0.169162
-0.180989
-0.19276
0.19276
1.24237
1.24237
1.17752
1.13329
1.09347
1.05689
1.02384
0.994311
0.967956
0.944247
0.922645
0.9027
0.884079
0.866559
0.850002
0.834319
0.819437
0.805279
0.791751
0.778741
0.766134
0.75382
0.741705
0.729717
0.717804
0.705933
0.694085
0.682248
0.670417
0.658589
0.646762
0.634936
0.623111
0.611286
0.59946
0.587635
0.57581
0.563985
0.55216
0.540335
0.52851
0.516685
0.50486
0.493035
0.48121
0.469385
0.45756
0.445735
0.43391
0.422085
0.41026
0.398435
0.38661
0.374785
0.36296
0.351136
0.339311
0.327486
0.315661
0.303836
0.292011
0.280186
0.268361
0.256536
0.244711
0.232886
0.221061
0.209236
0.197411
0.185586
0.173761
0.161936
0.150111
0.138286
0.126461
0.114636
0.102811
0.0909861
0.0791611
0.0673362
0.0555112
0.0436862
0.0318613
0.0200363
0.00821134
-0.00361362
-0.0154386
-0.0272635
-0.0390885
-0.0509135
-0.0627384
-0.0745634
-0.0863883
-0.0982133
-0.110038
-0.121863
-0.133688
-0.145513
-0.157337
-0.169162
-0.180989
-0.19276
0.19276
1.22142
1.22142
1.17553
1.13352
1.09417
1.05769
1.02458
0.994942
0.968463
0.944642
0.922948
0.902931
0.884252
0.866687
0.850093
0.834379
0.819474
0.805299
0.791759
0.778742
0.766132
0.753817
0.741702
0.729715
0.717802
0.705932
0.694085
0.682248
0.670417
0.658589
0.646762
0.634936
0.623111
0.611286
0.59946
0.587635
0.57581
0.563985
0.55216
0.540335
0.52851
0.516685
0.50486
0.493035
0.48121
0.469385
0.45756
0.445735
0.43391
0.422085
0.41026
0.398435
0.38661
0.374785
0.36296
0.351135
0.339311
0.327486
0.315661
0.303836
0.292011
0.280186
0.268361
0.256536
0.244711
0.232886
0.221061
0.209236
0.197411
0.185586
0.173761
0.161936
0.150111
0.138286
0.126461
0.114636
0.102811
0.0909861
0.0791611
0.0673362
0.0555112
0.0436862
0.0318613
0.0200363
0.00821134
-0.00361362
-0.0154386
-0.0272635
-0.0390885
-0.0509135
-0.0627384
-0.0745634
-0.0863883
-0.0982133
-0.110038
-0.121863
-0.133688
-0.145513
-0.157336
-0.169161
-0.180988
-0.192758
0.192758
1.20645
1.20645
1.17265
1.13375
1.09528
1.05901
1.02584
0.99602
0.969325
0.945301
0.923442
0.903299
0.884528
0.866895
0.850251
0.834498
0.819561
0.80536
0.7918
0.778769
0.766148
0.753826
0.741707
0.729717
0.717803
0.705932
0.694084
0.682248
0.670417
0.658589
0.646762
0.634936
0.623111
0.611286
0.59946
0.587635
0.57581
0.563985
0.55216
0.540335
0.52851
0.516685
0.50486
0.493035
0.48121
0.469385
0.45756
0.445735
0.43391
0.422085
0.41026
0.398435
0.38661
0.374785
0.36296
0.351135
0.339311
0.327486
0.315661
0.303836
0.292011
0.280186
0.268361
0.256536
0.244711
0.232886
0.221061
0.209236
0.197411
0.185586
0.173761
0.161936
0.150111
0.138286
0.126461
0.114636
0.102811
0.0909861
0.0791611
0.0673362
0.0555112
0.0436862
0.0318613
0.0200363
0.00821134
-0.00361362
-0.0154386
-0.0272635
-0.0390885
-0.0509135
-0.0627384
-0.0745634
-0.0863883
-0.0982133
-0.110038
-0.121863
-0.133688
-0.145512
-0.157335
-0.169156
-0.180969
-0.192748
0.192748
1.19688
1.19688
1.17017
1.13386
1.09623
1.06021
1.02702
0.997057
0.970178
0.945974
0.923963
0.903702
0.884846
0.867151
0.85046
0.834671
0.819702
0.805473
0.791886
0.778832
0.766191
0.753854
0.741724
0.729726
0.717808
0.705935
0.694086
0.682248
0.670417
0.658589
0.646762
0.634936
0.623111
0.611286
0.59946
0.587635
0.57581
0.563985
0.55216
0.540335
0.52851
0.516685
0.50486
0.493035
0.48121
0.469385
0.45756
0.445735
0.43391
0.422085
0.41026
0.398435
0.38661
0.374785
0.36296
0.351135
0.339311
0.327486
0.315661
0.303836
0.292011
0.280186
0.268361
0.256536
0.244711
0.232886
0.221061
0.209236
0.197411
0.185586
0.173761
0.161936
0.150111
0.138286
0.126461
0.114636
0.102811
0.0909861
0.0791611
0.0673362
0.0555112
0.0436862
0.0318613
0.0200363
0.00821134
-0.00361362
-0.0154386
-0.0272635
-0.0390885
-0.0509135
-0.0627384
-0.0745634
-0.0863883
-0.0982133
-0.110038
-0.121863
-0.133688
-0.145512
-0.157332
-0.169147
-0.180934
-0.192733
0.192733
1.19156
1.19156
1.16854
1.13387
1.09682
1.06097
1.02779
0.997746
0.970756
0.946439
0.92433
0.903993
0.885081
0.867346
0.850626
0.834813
0.819823
0.805572
0.791965
0.778891
0.766234
0.753883
0.741742
0.729737
0.717814
0.705938
0.694087
0.682249
0.670418
0.658589
0.646762
0.634936
0.623111
0.611286
0.59946
0.587635
0.57581
0.563985
0.55216
0.540335
0.52851
0.516685
0.50486
0.493035
0.48121
0.469385
0.45756
0.445735
0.43391
0.422085
0.41026
0.398435
0.38661
0.374785
0.36296
0.351135
0.339311
0.327486
0.315661
0.303836
0.292011
0.280186
0.268361
0.256536
0.244711
0.232886
0.221061
0.209236
0.197411
0.185586
0.173761
0.161936
0.150111
0.138286
0.126461
0.114636
0.102811
0.0909861
0.0791611
0.0673362
0.0555112
0.0436862
0.0318613
0.0200363
0.00821134
-0.00361362
-0.0154386
-0.0272635
-0.0390885
-0.0509135
-0.0627384
-0.0745634
-0.0863883
-0.0982133
-0.110038
-0.121863
-0.133687
-0.145511
-0.157331
-0.16914
-0.180902
-0.192721
0.192721
1.18986
1.18986
1.16799
1.13389
1.09704
1.06125
1.02806
0.997992
0.970962
0.946607
0.924464
0.9041
0.885168
0.867419
0.850689
0.834867
0.819869
0.805611
0.791996
0.778914
0.766251
0.753894
0.741749
0.729741
0.717816
0.705939
0.694088
0.682249
0.670418
0.658589
0.646762
0.634936
0.623111
0.611286
0.59946
0.587635
0.57581
0.563985
0.55216
0.540335
0.52851
0.516685
0.50486
0.493035
0.48121
0.469385
0.45756
0.445735
0.43391
0.422085
0.41026
0.398435
0.38661
0.374785
0.36296
0.351135
0.339311
0.327486
0.315661
0.303836
0.292011
0.280186
0.268361
0.256536
0.244711
0.232886
0.221061
0.209236
0.197411
0.185586
0.173761
0.161936
0.150111
0.138286
0.126461
0.114636
0.102811
0.0909861
0.0791611
0.0673362
0.0555112
0.0436862
0.0318613
0.0200363
0.00821134
-0.00361362
-0.0154386
-0.0272635
-0.0390885
-0.0509135
-0.0627384
-0.0745634
-0.0863883
-0.0982133
-0.110038
-0.121863
-0.133687
-0.145511
-0.15733
-0.169137
-0.18089
-0.192716
0.192716
1.19156
1.19156
1.16854
1.13387
1.09682
1.06097
1.02779
0.997746
0.970756
0.946439
0.92433
0.903993
0.885081
0.867346
0.850626
0.834813
0.819823
0.805572
0.791965
0.778891
0.766234
0.753883
0.741742
0.729737
0.717814
0.705938
0.694087
0.682249
0.670418
0.658589
0.646762
0.634936
0.623111
0.611286
0.59946
0.587635
0.57581
0.563985
0.55216
0.540335
0.52851
0.516685
0.50486
0.493035
0.48121
0.469385
0.45756
0.445735
0.43391
0.422085
0.41026
0.398435
0.38661
0.374785
0.36296
0.351135
0.339311
0.327486
0.315661
0.303836
0.292011
0.280186
0.268361
0.256536
0.244711
0.232886
0.221061
0.209236
0.197411
0.185586
0.173761
0.161936
0.150111
0.138286
0.126461
0.114636
0.102811
0.0909861
0.0791611
0.0673362
0.0555112
0.0436862
0.0318613
0.0200363
0.00821134
-0.00361362
-0.0154386
-0.0272635
-0.0390885
-0.0509135
-0.0627384
-0.0745634
-0.0863883
-0.0982133
-0.110038
-0.121863
-0.133687
-0.145511
-0.157331
-0.16914
-0.180902
-0.192721
0.192721
1.19688
1.19688
1.17017
1.13386
1.09623
1.06021
1.02702
0.997057
0.970178
0.945974
0.923963
0.903702
0.884846
0.867151
0.85046
0.834671
0.819702
0.805473
0.791886
0.778832
0.766191
0.753854
0.741724
0.729726
0.717808
0.705935
0.694086
0.682248
0.670417
0.658589
0.646762
0.634936
0.623111
0.611286
0.59946
0.587635
0.57581
0.563985
0.55216
0.540335
0.52851
0.516685
0.50486
0.493035
0.48121
0.469385
0.45756
0.445735
0.43391
0.422085
0.41026
0.398435
0.38661
0.374785
0.36296
0.351136
0.339311
0.327486
0.315661
0.303836
0.292011
0.280186
0.268361
0.256536
0.244711
0.232886
0.221061
0.209236
0.197411
0.185586
0.173761
0.161936
0.150111
0.138286
0.126461
0.114636
0.102811
0.0909861
0.0791611
0.0673362
0.0555112
0.0436862
0.0318613
0.0200363
0.00821134
-0.00361362
-0.0154386
-0.0272635
-0.0390885
-0.0509135
-0.0627384
-0.0745634
-0.0863883
-0.0982133
-0.110038
-0.121863
-0.133688
-0.145512
-0.157332
-0.169147
-0.180934
-0.192733
0.192733
1.20645
1.20645
1.17265
1.13375
1.09528
1.05901
1.02584
0.99602
0.969325
0.945301
0.923442
0.903299
0.884528
0.866895
0.850251
0.834498
0.819561
0.80536
0.7918
0.778769
0.766148
0.753826
0.741707
0.729717
0.717803
0.705932
0.694084
0.682248
0.670417
0.658589
0.646762
0.634936
0.623111
0.611286
0.59946
0.587635
0.57581
0.563985
0.55216
0.540335
0.52851
0.516685
0.50486
0.493035
0.48121
0.469385
0.45756
0.445735
0.43391
0.422085
0.41026
0.398435
0.38661
0.374785
0.36296
0.351136
0.339311
0.327486
0.315661
0.303836
0.292011
0.280186
0.268361
0.256536
0.244711
0.232886
0.221061
0.209236
0.197411
0.185586
0.173761
0.161936
0.150111
0.138286
0.126461
0.114636
0.102811
0.0909861
0.0791611
0.0673362
0.0555112
0.0436862
0.0318613
0.0200363
0.00821134
-0.00361362
-0.0154386
-0.0272635
-0.0390885
-0.0509135
-0.0627384
-0.0745634
-0.0863883
-0.0982133
-0.110038
-0.121863
-0.133688
-0.145512
-0.157335
-0.169156
-0.180969
-0.192748
0.192748
1.22142
1.22142
1.17553
1.13352
1.09417
1.05769
1.02458
0.994942
0.968463
0.944642
0.922948
0.902931
0.884252
0.866687
0.850093
0.834379
0.819474
0.805299
0.791759
0.778742
0.766132
0.753817
0.741702
0.729715
0.717802
0.705932
0.694085
0.682248
0.670417
0.658589
0.646762
0.634936
0.623111
0.611286
0.59946
0.587635
0.57581
0.563985
0.55216
0.540335
0.52851
0.516685
0.50486
0.493035
0.48121
0.469385
0.45756
0.445735
0.43391
0.422085
0.41026
0.398435
0.38661
0.374785
0.36296
0.351136
0.339311
0.327486
0.315661
0.303836
0.292011
0.280186
0.268361
0.256536
0.244711
0.232886
0.221061
0.209236
0.197411
0.185586
0.173761
0.161936
0.150111
0.138286
0.126461
0.114636
0.102811
0.0909861
0.0791611
0.0673362
0.0555112
0.0436862
0.0318613
0.0200363
0.00821134
-0.00361362
-0.0154386
-0.0272635
-0.0390885
-0.0509135
-0.0627384
-0.0745634
-0.0863883
-0.0982133
-0.110038
-0.121863
-0.133688
-0.145513
-0.157336
-0.169161
-0.180988
-0.192758
0.192758
1.24237
1.24237
1.17752
1.13329
1.09347
1.05689
1.02384
0.994311
0.967956
0.944247
0.922645
0.9027
0.884079
0.866559
0.850002
0.834319
0.819437
0.805279
0.791751
0.778741
0.766134
0.75382
0.741705
0.729717
0.717804
0.705933
0.694085
0.682248
0.670417
0.658589
0.646762
0.634936
0.623111
0.611286
0.59946
0.587635
0.57581
0.563985
0.55216
0.540335
0.52851
0.516685
0.50486
0.493035
0.48121
0.469385
0.45756
0.445735
0.43391
0.422085
0.41026
0.398435
0.38661
0.374785
0.36296
0.351136
0.339311
0.327486
0.315661
0.303836
0.292011
0.280186
0.268361
0.256536
0.244711
0.232886
0.221061
0.209236
0.197411
0.185586
0.173761
0.161936
0.150111
0.138286
0.126461
0.114636
0.102811
0.0909861
0.0791611
0.0673362
0.0555112
0.0436862
0.0318613
0.0200363
0.00821134
-0.00361362
-0.0154386
-0.0272635
-0.0390885
-0.0509135
-0.0627384
-0.0745634
-0.0863883
-0.0982133
-0.110038
-0.121863
-0.133688
-0.145513
-0.157337
-0.169162
-0.180989
-0.19276
0.19276
1.24237
1.24237
1.17752
1.13329
1.09347
1.05689
1.02384
0.994311
0.967956
0.944247
0.922645
0.9027
0.884079
0.866559
0.850002
0.834319
0.819437
0.805279
0.791751
0.778741
0.766134
0.75382
0.741705
0.729717
0.717804
0.705933
0.694085
0.682248
0.670417
0.658589
0.646762
0.634936
0.623111
0.611286
0.59946
0.587635
0.57581
0.563985
0.55216
0.540335
0.52851
0.516685
0.50486
0.493035
0.48121
0.469385
0.45756
0.445735
0.43391
0.422085
0.41026
0.398435
0.38661
0.374785
0.36296
0.351136
0.339311
0.327486
0.315661
0.303836
0.292011
0.280186
0.268361
0.256536
0.244711
0.232886
0.221061
0.209236
0.197411
0.185586
0.173761
0.161936
0.150111
0.138286
0.126461
0.114636
0.102811
0.0909861
0.0791611
0.0673362
0.0555112
0.0436862
0.0318613
0.0200363
0.00821134
-0.00361362
-0.0154386
-0.0272635
-0.0390885
-0.0509135
-0.0627384
-0.0745634
-0.0863883
-0.0982133
-0.110038
-0.121863
-0.133688
-0.145513
-0.157337
-0.169162
-0.180989
-0.19276
0.19276
SCALARS phi double
LOOKUP_TABLE phi
0.999996
1
0.999978
1.00003
1.0001
0.999536
0.99995
1.00337
1.00219
0.979315
0.922944
0.836384
0.733179
0.627094
0.526719
0.435595
0.354468
0.28315
0.221362
0.16889
0.125454
0.0905614
0.0634451
0.0430983
0.0283723
0.0180963
0.0111823
0.00669528
0.00388522
0.00218584
0.00119276
0.000631563
0.000324654
0.000162101
7.86566e-05
3.71107e-05
1.70336e-05
7.60998e-06
3.31096e-06
1.40359e-06
5.80038e-07
2.33785e-07
9.19442e-08
3.53006e-08
1.32368e-08
4.84974e-09
1.73688e-09
6.08298e-10
2.08415e-10
6.98836e-11
2.29412e-11
7.37576e-12
2.32327e-12
7.17198e-13
2.17054e-13
6.442e-14
1.87557e-14
5.35832e-15
1.50257e-15
4.13686e-16
1.11854e-16
2.97091e-17
7.75347e-18
1.98872e-18
5.01451e-19
1.24324e-19
3.03148e-20
7.27141e-21
1.71608e-21
3.98564e-22
9.11148e-23
2.05065e-23
4.54451e-24
9.91868e-25
2.1324e-25
4.51654e-26
9.42624e-27
1.93881e-27
3.93067e-28
7.85595e-29
1.54809e-29
3.00832e-30
5.76556e-31
1.08996e-31
2.03278e-32
3.74058e-33
6.79219e-34
1.21719e-34
2.15299e-35
3.75931e-36
6.4805e-37
1.10305e-37
1.85402e-38
3.07762e-39
5.04595e-40
8.17231e-41
1.30758e-41
2.06707e-42
3.22917e-43
4.9852e-44
7.61229e-45
1.10721e-45
1.10721e-45
0.999996
1
0.999978
1.00003
1.0001
0.999536
0.99995
1.00337
1.00219
0.979315
0.922944
0.836384
0.733179
0.627094
0.526719
0.435595
0.354468
0.28315
0.221362
0.16889
0.125454
0.0905614
0.0634451
0.0430983
0.0283723
0.0180963
0.0111823
0.00669528
0.00388522
0.00218584
0.00119276
0.000631563
0.000324654
0.000162101
7.86566e-05
3.71107e-05
1.70336e-05
7.60998e-06
3.31096e-06
1.40359e-06
5.80038e-07
2.33785e-07
9.19442e-08
3.53006e-08
1.32368e-08
4.84974e-09
1.73688e-09
6.08298e-10
2.08415e-10
6.98836e-11
2.29412e-11
7.37576e-12
2.32327e-12
7.17198e-13
2.17054e-13
6.442e-14
1.87557e-14
5.35832e-15
1.50257e-15
4.13686e-16
1.11854e-16
2.97091e-17
7.75347e-18
1.98872e-18
5.01451e-19
1.24324e-19
3.03148e-20
7.27141e-21
1.71608e-21
3.98564e-22
9.11148e-23
2.05065e-23
4.54451e-24
9.91868e-25
2.1324e-25
4.51654e-26
9.42624e-27
1.93881e-27
3.93067e-28
7.85595e-29
1.54809e-29
3.00832e-30
5.76556e-31
1.08996e-31
2.03278e-32
3.74058e-33
6.79219e-34
1.21719e-34
2.15299e-35
3.75931e-36
6.4805e-37
1.10305e-37
1.85402e-38
3.07762e-39
5.04595e-40
8.17231e-41
1.30758e-41
2.06707e-42
3.22917e-43
4.9852e-44
7.61229e-45
1.10721e-45
1.10721e-45
0.999997
1
0.999989
0.999992
1.00005
0.999888
0.99967
1.00027
1.0012
0.99865
0.986975
0.961995
0.92288
0.871588
0.811099
0.743965
0.671854
0.595896
0.517348
0.438065
0.360557
0.287659
0.221994
0.165481
0.119052
0.0826339
0.0553356
0.0357593
0.0223101
0.0134456
0.00783263
0.00441344
0.00240714
0.00127172
0.000651271
0.000323536
0.000156019
7.30846e-05
3.32777e-05
1.4738e-05
6.35258e-06
2.66655e-06
1.09066e-06
4.34915e-07
1.69173e-07
6.42232e-08
2.38068e-08
8.62109e-09
3.05123e-09
1.05592e-09
3.57447e-10
1.18411e-10
3.84014e-11
1.21965e-11
3.79501e-12
1.15727e-12
3.45976e-13
1.01435e-13
2.91737e-14
8.23367e-15
2.28096e-15
6.20424e-16
1.65738e-16
4.34944e-17
1.12159e-17
2.84267e-18
7.08303e-19
1.73544e-19
4.18212e-20
9.91455e-21
2.31276e-21
5.30954e-22
1.19988e-22
2.66969e-23
5.84926e-24
1.26224e-24
2.68322e-25
5.61979e-26
1.15986e-26
2.35931e-27
4.73068e-28
9.35169e-29
1.82284e-29
3.504e-30
6.6435e-31
1.24253e-31
2.29273e-32
4.17439e-33
7.50037e-34
1.33007e-34
2.32823e-35
4.02332e-36
6.8644e-37
1.15646e-37
1.92405e-38
3.1616e-39
5.13158e-40
8.22795e-41
1.30347e-41
2.04028e-42
3.15862e-43
4.64706e-44
4.64706e-44
0.999996
1
0.999977
0.999889
0.999742
0.999446
0.99894
0.99838
0.997894
0.997044
0.994624
0.989051
0.978961
0.963568
0.942505
0.915311
0.880928
0.837614
0.783459
0.717324
0.639758
0.55342
0.46277
0.37317
0.289753
0.216468
0.155564
0.10756
0.0715852
0.0458885
0.0283547
0.0169024
0.00972862
0.00541147
0.00291154
0.00151651
0.000765337
0.000374536
0.000177873
8.20412e-05
3.67765e-05
1.60334e-05
6.80281e-06
2.81081e-06
1.13167e-06
4.44225e-07
1.70107e-07
6.35782e-08
2.32049e-08
8.27465e-09
2.88415e-09
9.83056e-10
3.27806e-10
1.06982e-10
3.41846e-11