# vtk DataFile Version 3.0
FlowField
ASCII
DATASET STRUCTURED_GRID
DIMENSIONS 103 13 1 
POINTS 1339 double
0 0 0
0.3 0 0
0.6 0 0
0.9 0 0
1.2 0 0
1.5 0 0
1.8 0 0
2.1 0 0
2.4 0 0
2.7 0 0
3 0 0
3.3 0 0
3.6 0 0
3.9 0 0
4.2 0 0
4.5 0 0
4.8 0 0
5.1 0 0
5.4 0 0
5.7 0 0
6 0 0
6.3 0 0
6.6 0 0
6.9 0 0
7.2 0 0
7.5 0 0
7.8 0 0
8.1 0 0
8.4 0 0
8.7 0 0
9 0 0
9.3 0 0
9.6 0 0
9.9 0 0
10.2 0 0
10.5 0 0
10.8 0 0
11.1 0 0
11.4 0 0
11.7 0 0
12 0 0
12.3 0 0
12.6 0 0
12.9 0 0
13.2 0 0
13.5 0 0
13.8 0 0
14.1 0 0
14.4 0 0
14.7 0 0
15 0 0
15.3 0 0
15.6 0 0
15.9 0 0
16.2 0 0
16.5 0 0
16.8 0 0
17.1 0 0
17.4 0 0
17.7 0 0
18 0 0
18.3 0 0
18.6 0 0
18.9 0 0
19.2 0 0
19.5 0 0
19.8 0 0
20.1 0 0
20.4 0 0
20.7 0 0
21 0 0
21.3 0 0
21.6 0 0
21.9 0 0
22.2 0 0
22.5 0 0
22.8 0 0
23.1 0 0
23.4 0 0
23.7 0 0
24 0 0
24.3 0 0
24.6 0 0
24.9 0 0
25.2 0 0
25.5 0 0
25.8 0 0
26.1 0 0
26.4 0 0
26.7 0 0
27 0 0
27.3 0 0
27.6 0 0
27.9 0 0
28.2 0 0
28.5 0 0
28.8 0 0
29.1 0 0
29.4 0 0
29.7 0 0
30 0 0
30.3 0 0
30.6 0 0
0 0.1 0
0.3 0.1 0
0.6 0.1 0
0.9 0.1 0
1.2 0.1 0
1.5 0.1 0
1.8 0.1 0
2.1 0.1 0
2.4 0.1 0
2.7 0.1 0
3 0.1 0
3.3 0.1 0
3.6 0.1 0
3.9 0.1 0
4.2 0.1 0
4.5 0.1 0
4.8 0.1 0
5.1 0.1 0
5.4 0.1 0
5.7 0.1 0
6 0.1 0
6.3 0.1 0
6.6 0.1 0
6.9 0.1 0
7.2 0.1 0
7.5 0.1 0
7.8 0.1 0
8.1 0.1 0
8.4 0.1 0
8.7 0.1 0
9 0.1 0
9.3 0.1 0
9.6 0.1 0
9.9 0.1 0
10.2 0.1 0
10.5 0.1 0
10.8 0.1 0
11.1 0.1 0
11.4 0.1 0
11.7 0.1 0
12 0.1 0
12.3 0.1 0
12.6 0.1 0
12.9 0.1 0
13.2 0.1 0
13.5 0.1 0
13.8 0.1 0
14.1 0.1 0
14.4 0.1 0
14.7 0.1 0
15 0.1 0
15.3 0.1 0
15.6 0.1 0
15.9 0.1 0
16.2 0.1 0
16.5 0.1 0
16.8 0.1 0
17.1 0.1 0
17.4 0.1 0
17.7 0.1 0
18 0.1 0
18.3 0.1 0
18.6 0.1 0
18.9 0.1 0
19.2 0.1 0
19.5 0.1 0
19.8 0.1 0
20.1 0.1 0
20.4 0.1 0
20.7 0.1 0
21 0.1 0
21.3 0.1 0
21.6 0.1 0
21.9 0.1 0
22.2 0.1 0
22.5 0.1 0
22.8 0.1 0
23.1 0.1 0
23.4 0.1 0
23.7 0.1 0
24 0.1 0
24.3 0.1 0
24.6 0.1 0
24.9 0.1 0
25.2 0.1 0
25.5 0.1 0
25.8 0.1 0
26.1 0.1 0
26.4 0.1 0
26.7 0.1 0
27 0.1 0
27.3 0.1 0
27.6 0.1 0
27.9 0.1 0
28.2 0.1 0
28.5 0.1 0
28.8 0.1 0
29.1 0.1 0
29.4 0.1 0
29.7 0.1 0
30 0.1 0
30.3 0.1 0
30.6 0.1 0
0 0.2 0
0.3 0.2 0
0.6 0.2 0
0.9 0.2 0
1.2 0.2 0
1.5 0.2 0
1.8 0.2 0
2.1 0.2 0
2.4 0.2 0
2.7 0.2 0
3 0.2 0
3.3 0.2 0
3.6 0.2 0
3.9 0.2 0
4.2 0.2 0
4.5 0.2 0
4.8 0.2 0
5.1 0.2 0
5.4 0.2 0
5.7 0.2 0
6 0.2 0
6.3 0.2 0
6.6 0.2 0
6.9 0.2 0
7.2 0.2 0
7.5 0.2 0
7.8 0.2 0
8.1 0.2 0
8.4 0.2 0
8.7 0.2 0
9 0.2 0
9.3 0.2 0
9.6 0.2 0
9.9 0.2 0
10.2 0.2 0
10.5 0.2 0
10.8 0.2 0
11.1 0.2 0
11.4 0.2 0
11.7 0.2 0
12 0.2 0
12.3 0.2 0
12.6 0.2 0
12.9 0.2 0
13.2 0.2 0
13.5 0.2 0
13.8 0.2 0
14.1 0.2 0
14.4 0.2 0
14.7 0.2 0
15 0.2 0
15.3 0.2 0
15.6 0.2 0
15.9 0.2 0
16.2 0.2 0
16.5 0.2 0
16.8 0.2 0
17.1 0.2 0
17.4 0.2 0
17.7 0.2 0
18 0.2 0
18.3 0.2 0
18.6 0.2 0
18.9 0.2 0
19.2 0.2 0
19.5 0.2 0
19.8 0.2 0
20.1 0.2 0
20.4 0.2 0
20.7 0.2 0
21 0.2 0
21.3 0.2 0
21.6 0.2 0
21.9 0.2 0
22.2 0.2 0
22.5 0.2 0
22.8 0.2 0
23.1 0.2 0
23.4 0.2 0
23.7 0.2 0
24 0.2 0
24.3 0.2 0
24.6 0.2 0
24.9 0.2 0
25.2 0.2 0
25.5 0.2 0
25.8 0.2 0
26.1 0.2 0
26.4 0.2 0
26.7 0.2 0
27 0.2 0
27.3 0.2 0
27.6 0.2 0
27.9 0.2 0
28.2 0.2 0
28.5 0.2 0
28.8 0.2 0
29.1 0.2 0
29.4 0.2 0
29.7 0.2 0
30 0.2 0
30.3 0.2 0
30.6 0.2 0
0 0.3 0
0.3 0.3 0
0.6 0.3 0
0.9 0.3 0
1.2 0.3 0
1.5 0.3 0
1.8 0.3 0
2.1 0.3 0
2.4 0.3 0
2.7 0.3 0
3 0.3 0
3.3 0.3 0
3.6 0.3 0
3.9 0.3 0
4.2 0.3 0
4.5 0.3 0
4.8 0.3 0
5.1 0.3 0
5.4 0.3 0
5.7 0.3 0
6 0.3 0
6.3 0.3 0
6.6 0.3 0
6.9 0.3 0
7.2 0.3 0
7.5 0.3 0
7.8 0.3 0
8.1 0.3 0
8.4 0.3 0
8.7 0.3 0
9 0.3 0
9.3 0.3 0
9.6 0.3 0
9.9 0.3 0
10.2 0.3 0
10.5 0.3 0
10.8 0.3 0
11.1 0.3 0
11.4 0.3 0
11.7 0.3 0
12 0.3 0
12.3 0.3 0
12.6 0.3 0
12.9 0.3 0
13.2 0.3 0
13.5 0.3 0
13.8 0.3 0
14.1 0.3 0
14.4 0.3 0
14.7 0.3 0
15 0.3 0
15.3 0.3 0
15.6 0.3 0
15.9 0.3 0
16.2 0.3 0
16.5 0.3 0
16.8 0.3 0
17.1 0.3 0
17.4 0.3 0
17.7 0.3 0
18 0.3 0
18.3 0.3 0
18.6 0.3 0
18.9 0.3 0
19.2 0.3 0
19.5 0.3 0
19.8 0.3 0
20.1 0.3 0
20.4 0.3 0
20.7 0.3 0
21 0.3 0
21.3 0.3 0
21.6 0.3 0
21.9 0.3 0
22.2 0.3 0
22.5 0.3 0
22.8 0.3 0
23.1 0.3 0
23.4 0.3 0
23.7 0.3 0
24 0.3 0
24.3 0.3 0
24.6 0.3 0
24.9 0.3 0
25.2 0.3 0
25.5 0.3 0
25.8 0.3 0
26.1 0.3 0
26.4 0.3 0
26.7 0.3 0
27 0.3 0
27.3 0.3 0
27.6 0.3 0
27.9 0.3 0
28.2 0.3 0
28.5 0.3 0
28.8 0.3 0
29.1 0.3 0
29.4 0.3 0
29.7 0.3 0
30 0.3 0
30.3 0.3 0
30.6 0.3 0
0 0.4 0
0.3 0.4 0
0.6 0.4 0
0.9 0.4 0
1.2 0.4 0
1.5 0.4 0
1.8 0.4 0
2.1 0.4 0
2.4 0.4 0
2.7 0.4 0
3 0.4 0
3.3 0.4 0
3.6 0.4 0
3.9 0.4 0
4.2 0.4 0
4.5 0.4 0
4.8 0.4 0
5.1 0.4 0
5.4 0.4 0
5.7 0.4 0
6 0.4 0
6.3 0.4 0
6.6 0.4 0
6.9 0.4 0
7.2 0.4 0
7.5 0.4 0
7.8 0.4 0
8.1 0.4 0
8.4 0.4 0
8.7 0.4 0
9 0.4 0
9.3 0.4 0
9.6 0.4 0
9.9 0.4 0
10.2 0.4 0
10.5 0.4 0
10.8 0.4 0
11.1 0.4 0
11.4 0.4 0
11.7 0.4 0
12 0.4 0
12.3 0.4 0
12.6 0.4 0
12.9 0.4 0
13.2 0.4 0
13.5 0.4 0
13.8 0.4 0
14.1 0.4 0
14.4 0.4 0
14.7 0.4 0
15 0.4 0
15.3 0.4 0
15.6 0.4 0
15.9 0.4 0
16.2 0.4 0
16.5 0.4 0
16.8 0.4 0
17.1 0.4 0
17.4 0.4 0
17.7 0.4 0
18 0.4 0
18.3 0.4 0
18.6 0.4 0
18.9 0.4 0
19.2 0.4 0
19.5 0.4 0
19.8 0.4 0
20.1 0.4 0
20.4 0.4 0
20.7 0.4 0
21 0.4 0
21.3 0.4 0
21.6 0.4 0
21.9 0.4 0
22.2 0.4 0
22.5 0.4 0
22.8 0.4 0
23.1 0.4 0
23.4 0.4 0
23.7 0.4 0
24 0.4 0
24.3 0.4 0
24.6 0.4 0
24.9 0.4 0
25.2 0.4 0
25.5 0.4 0
25.8 0.4 0
26.1 0.4 0
26.4 0.4 0
26.7 0.4 0
27 0.4 0
27.3 0.4 0
27.6 0.4 0
27.9 0.4 0
28.2 0.4 0
28.5 0.4 0
28.8 0.4 0
29.1 0.4 0
29.4 0.4 0
29.7 0.4 0
30 0.4 0
30.3 0.4 0
30.6 0.4 0
0 0.5 0
0.3 0.5 0
0.6 0.5 0
0.9 0.5 0
1.2 0.5 0
1.5 0.5 0
1.8 0.5 0
2.1 0.5 0
2.4 0.5 0
2.7 0.5 0
3 0.5 0
3.3 0.5 0
3.6 0.5 0
3.9 0.5 0
4.2 0.5 0
4.5 0.5 0
4.8 0.5 0
5.1 0.5 0
5.4 0.5 0
5.7 0.5 0
6 0.5 0
6.3 0.5 0
6.6 0.5 0
6.9 0.5 0
7.2 0.5 0
7.5 0.5 0
7.8 0.5 0
8.1 0.5 0
8.4 0.5 0
8.7 0.5 0
9 0.5 0
9.3 0.5 0
9.6 0.5 0
9.9 0.5 0
10.2 0.5 0
10.5 0.5 0
10.8 0.5 0
11.1 0.5 0
11.4 0.5 0
11.7 0.5 0
12 0.5 0
12.3 0.5 0
12.6 0.5 0
12.9 0.5 0
13.2 0.5 0
13.5 0.5 0
13.8 0.5 0
14.1 0.5 0
14.4 0.5 0
14.7 0.5 0
15 0.5 0
15.3 0.5 0
15.6 0.5 0
15.9 0.5 0
16.2 0.5 0
16.5 0.5 0
16.8 0.5 0
17.1 0.5 0
17.4 0.5 0
17.7 0.5 0
18 0.5 0
18.3 0.5 0
18.6 0.5 0
18.9 0.5 0
19.2 0.5 0
19.5 0.5 0
19.8 0.5 0
20.1 0.5 0
20.4 0.5 0
20.7 0.5 0
21 0.5 0
21.3 0.5 0
21.6 0.5 0
21.9 0.5 0
22.2 0.5 0
22.5 0.5 0
22.8 0.5 0
23.1 0.5 0
23.4 0.5 0
23.7 0.5 0
24 0.5 0
24.3 0.5 0
24.6 0.5 0
24.9 0.5 0
25.2 0.5 0
25.5 0.5 0
25.8 0.5 0
26.1 0.5 0
26.4 0.5 0
26.7 0.5 0
27 0.5 0
27.3 0.5 0
27.6 0.5 0
27.9 0.5 0
28.2 0.5 0
28.5 0.5 0
28.8 0.5 0
29.1 0.5 0
29.4 0.5 0
29.7 0.5 0
30 0.5 0
30.3 0.5 0
30.6 0.5 0
0 0.6 0
0.3 0.6 0
0.6 0.6 0
0.9 0.6 0
1.2 0.6 0
1.5 0.6 0
1.8 0.6 0
2.1 0.6 0
2.4 0.6 0
2.7 0.6 0
3 0.6 0
3.3 0.6 0
3.6 0.6 0
3.9 0.6 0
4.2 0.6 0
4.5 0.6 0
4.8 0.6 0
5.1 0.6 0
5.4 0.6 0
5.7 0.6 0
6 0.6 0
6.3 0.6 0
6.6 0.6 0
6.9 0.6 0
7.2 0.6 0
7.5 0.6 0
7.8 0.6 0
8.1 0.6 0
8.4 0.6 0
8.7 0.6 0
9 0.6 0
9.3 0.6 0
9.6 0.6 0
9.9 0.6 0
10.2 0.6 0
10.5 0.6 0
10.8 0.6 0
11.1 0.6 0
11.4 0.6 0
11.7 0.6 0
12 0.6 0
12.3 0.6 0
12.6 0.6 0
12.9 0.6 0
13.2 0.6 0
13.5 0.6 0
13.8 0.6 0
14.1 0.6 0
14.4 0.6 0
14.7 0.6 0
15 0.6 0
15.3 0.6 0
15.6 0.6 0
15.9 0.6 0
16.2 0.6 0
16.5 0.6 0
16.8 0.6 0
17.1 0.6 0
17.4 0.6 0
17.7 0.6 0
18 0.6 0
18.3 0.6 0
18.6 0.6 0
18.9 0.6 0
19.2 0.6 0
19.5 0.6 0
19.8 0.6 0
20.1 0.6 0
20.4 0.6 0
20.7 0.6 0
21 0.6 0
21.3 0.6 0
21.6 0.6 0
21.9 0.6 0
22.2 0.6 0
22.5 0.6 0
22.8 0.6 0
23.1 0.6 0
23.4 0.6 0
23.7 0.6 0
24 0.6 0
24.3 0.6 0
24.6 0.6 0
24.9 0.6 0
25.2 0.6 0
25.5 0.6 0
25.8 0.6 0
26.1 0.6 0
26.4 0.6 0
26.7 0.6 0
27 0.6 0
27.3 0.6 0
27.6 0.6 0
27.9 0.6 0
28.2 0.6 0
28.5 0.6 0
28.8 0.6 0
29.1 0.6 0
29.4 0.6 0
29.7 0.6 0
30 0.6 0
30.3 0.6 0
30.6 0.6 0
0 0.7 0
0.3 0.7 0
0.6 0.7 0
0.9 0.7 0
1.2 0.7 0
1.5 0.7 0
1.8 0.7 0
2.1 0.7 0
2.4 0.7 0
2.7 0.7 0
3 0.7 0
3.3 0.7 0
3.6 0.7 0
3.9 0.7 0
4.2 0.7 0
4.5 0.7 0
4.8 0.7 0
5.1 0.7 0
5.4 0.7 0
5.7 0.7 0
6 0.7 0
6.3 0.7 0
6.6 0.7 0
6.9 0.7 0
7.2 0.7 0
7.5 0.7 0
7.8 0.7 0
8.1 0.7 0
8.4 0.7 0
8.7 0.7 0
9 0.7 0
9.3 0.7 0
9.6 0.7 0
9.9 0.7 0
10.2 0.7 0
10.5 0.7 0
10.8 0.7 0
11.1 0.7 0
11.4 0.7 0
11.7 0.7 0
12 0.7 0
12.3 0.7 0
12.6 0.7 0
12.9 0.7 0
13.2 0.7 0
13.5 0.7 0
13.8 0.7 0
14.1 0.7 0
14.4 0.7 0
14.7 0.7 0
15 0.7 0
15.3 0.7 0
15.6 0.7 0
15.9 0.7 0
16.2 0.7 0
16.5 0.7 0
16.8 0.7 0
17.1 0.7 0
17.4 0.7 0
17.7 0.7 0
18 0.7 0
18.3 0.7 0
18.6 0.7 0
18.9 0.7 0
19.2 0.7 0
19.5 0.7 0
19.8 0.7 0
20.1 0.7 0
20.4 0.7 0
20.7 0.7 0
21 0.7 0
21.3 0.7 0
21.6 0.7 0
21.9 0.7 0
22.2 0.7 0
22.5 0.7 0
22.8 0.7 0
23.1 0.7 0
23.4 0.7 0
23.7 0.7 0
24 0.7 0
24.3 0.7 0
24.6 0.7 0
24.9 0.7 0
25.2 0.7 0
25.5 0.7 0
25.8 0.7 0
26.1 0.7 0
26.4 0.7 0
26.7 0.7 0
27 0.7 0
27.3 0.7 0
27.6 0.7 0
27.9 0.7 0
28.2 0.7 0
28.5 0.7 0
28.8 0.7 0
29.1 0.7 0
29.4 0.7 0
29.7 0.7 0
30 0.7 0
30.3 0.7 0
30.6 0.7 0
0 0.8 0
0.3 0.8 0
0.6 0.8 0
0.9 0.8 0
1.2 0.8 0
1.5 0.8 0
1.8 0.8 0
2.1 0.8 0
2.4 0.8 0
2.7 0.8 0
3 0.8 0
3.3 0.8 0
3.6 0.8 0
3.9 0.8 0
4.2 0.8 0
4.5 0.8 0
4.8 0.8 0
5.1 0.8 0
5.4 0.8 0
5.7 0.8 0
6 0.8 0
6.3 0.8 0
6.6 0.8 0
6.9 0.8 0
7.2 0.8 0
7.5 0.8 0
7.8 0.8 0
8.1 0.8 0
8.4 0.8 0
8.7 0.8 0
9 0.8 0
9.3 0.8 0
9.6 0.8 0
9.9 0.8 0
10.2 0.8 0
10.5 0.8 0
10.8 0.8 0
11.1 0.8 0
11.4 0.8 0
11.7 0.8 0
12 0.8 0
12.3 0.8 0
12.6 0.8 0
12.9 0.8 0
13.2 0.8 0
13.5 0.8 0
13.8 0.8 0
14.1 0.8 0
14.4 0.8 0
14.7 0.8 0
15 0.8 0
15.3 0.8 0
15.6 0.8 0
15.9 0.8 0
16.2 0.8 0
16.5 0.8 0
16.8 0.8 0
17.1 0.8 0
17.4 0.8 0
17.7 0.8 0
18 0.8 0
18.3 0.8 0
18.6 0.8 0
18.9 0.8 0
19.2 0.8 0
19.5 0.8 0
19.8 0.8 0
20.1 0.8 0
20.4 0.8 0
20.7 0.8 0
21 0.8 0
21.3 0.8 0
21.6 0.8 0
21.9 0.8 0
22.2 0.8 0
22.5 0.8 0
22.8 0.8 0
23.1 0.8 0
23.4 0.8 0
23.7 0.8 0
24 0.8 0
24.3 0.8 0
24.6 0.8 0
24.9 0.8 0
25.2 0.8 0
25.5 0.8 0
25.8 0.8 0
26.1 0.8 0
26.4 0.8 0
26.7 0.8 0
27 0.8 0
27.3 0.8 0
27.6 0.8 0
27.9 0.8 0
28.2 0.8 0
28.5 0.8 0
28.8 0.8 0
29.1 0.8 0
29.4 0.8 0
29.7 0.8 0
30 0.8 0
30.3 0.8 0
30.6 0.8 0
0 0.9 0
0.3 0.9 0
0.6 0.9 0
0.9 0.9 0
1.2 0.9 0
1.5 0.9 0
1.8 0.9 0
2.1 0.9 0
2.4 0.9 0
2.7 0.9 0
3 0.9 0
3.3 0.9 0
3.6 0.9 0
3.9 0.9 0
4.2 0.9 0
4.5 0.9 0
4.8 0.9 0
5.1 0.9 0
5.4 0.9 0
5.7 0.9 0
6 0.9 0
6.3 0.9 0
6.6 0.9 0
6.9 0.9 0
7.2 0.9 0
7.5 0.9 0
7.8 0.9 0
8.1 0.9 0
8.4 0.9 0
8.7 0.9 0
9 0.9 0
9.3 0.9 0
9.6 0.9 0
9.9 0.9 0
10.2 0.9 0
10.5 0.9 0
10.8 0.9 0
11.1 0.9 0
11.4 0.9 0
11.7 0.9 0
12 0.9 0
12.3 0.9 0
12.6 0.9 0
12.9 0.9 0
13.2 0.9 0
13.5 0.9 0
13.8 0.9 0
14.1 0.9 0
14.4 0.9 0
14.7 0.9 0
15 0.9 0
15.3 0.9 0
15.6 0.9 0
15.9 0.9 0
16.2 0.9 0
16.5 0.9 0
16.8 0.9 0
17.1 0.9 0
17.4 0.9 0
17.7 0.9 0
18 0.9 0
18.3 0.9 0
18.6 0.9 0
18.9 0.9 0
19.2 0.9 0
19.5 0.9 0
19.8 0.9 0
20.1 0.9 0
20.4 0.9 0
20.7 0.9 0
21 0.9 0
21.3 0.9 0
21.6 0.9 0
21.9 0.9 0
22.2 0.9 0
22.5 0.9 0
22.8 0.9 0
23.1 0.9 0
23.4 0.9 0
23.7 0.9 0
24 0.9 0
24.3 0.9 0
24.6 0.9 0
24.9 0.9 0
25.2 0.9 0
25.5 0.9 0
25.8 0.9 0
26.1 0.9 0
26.4 0.9 0
26.7 0.9 0
27 0.9 0
27.3 0.9 0
27.6 0.9 0
27.9 0.9 0
28.2 0.9 0
28.5 0.9 0
28.8 0.9 0
29.1 0.9 0
29.4 0.9 0
29.7 0.9 0
30 0.9 0
30.3 0.9 0
30.6 0.9 0
0 1 0
0.3 1 0
0.6 1 0
0.9 1 0
1.2 1 0
1.5 1 0
1.8 1 0
2.1 1 0
2.4 1 0
2.7 1 0
3 1 0
3.3 1 0
3.6 1 0
3.9 1 0
4.2 1 0
4.5 1 0
4.8 1 0
5.1 1 0
5.4 1 0
5.7 1 0
6 1 0
6.3 1 0
6.6 1 0
6.9 1 0
7.2 1 0
7.5 1 0
7.8 1 0
8.1 1 0
8.4 1 0
8.7 1 0
9 1 0
9.3 1 0
9.6 1 0
9.9 1 0
10.2 1 0
10.5 1 0
10.8 1 0
11.1 1 0
11.4 1 0
11.7 1 0
12 1 0
12.3 1 0
12.6 1 0
12.9 1 0
13.2 1 0
13.5 1 0
13.8 1 0
14.1 1 0
14.4 1 0
14.7 1 0
15 1 0
15.3 1 0
15.6 1 0
15.9 1 0
16.2 1 0
16.5 1 0
16.8 1 0
17.1 1 0
17.4 1 0
17.7 1 0
18 1 0
18.3 1 0
18.6 1 0
18.9 1 0
19.2 1 0
19.5 1 0
19.8 1 0
20.1 1 0
20.4 1 0
20.7 1 0
21 1 0
21.3 1 0
21.6 1 0
21.9 1 0
22.2 1 0
22.5 1 0
22.8 1 0
23.1 1 0
23.4 1 0
23.7 1 0
24 1 0
24.3 1 0
24.6 1 0
24.9 1 0
25.2 1 0
25.5 1 0
25.8 1 0
26.1 1 0
26.4 1 0
26.7 1 0
27 1 0
27.3 1 0
27.6 1 0
27.9 1 0
28.2 1 0
28.5 1 0
28.8 1 0
29.1 1 0
29.4 1 0
29.7 1 0
30 1 0
30.3 1 0
30.6 1 0
0 1.1 0
0.3 1.1 0
0.6 1.1 0
0.9 1.1 0
1.2 1.1 0
1.5 1.1 0
1.8 1.1 0
2.1 1.1 0
2.4 1.1 0
2.7 1.1 0
3 1.1 0
3.3 1.1 0
3.6 1.1 0
3.9 1.1 0
4.2 1.1 0
4.5 1.1 0
4.8 1.1 0
5.1 1.1 0
5.4 1.1 0
5.7 1.1 0
6 1.1 0
6.3 1.1 0
6.6 1.1 0
6.9 1.1 0
7.2 1.1 0
7.5 1.1 0
7.8 1.1 0
8.1 1.1 0
8.4 1.1 0
8.7 1.1 0
9 1.1 0
9.3 1.1 0
9.6 1.1 0
9.9 1.1 0
10.2 1.1 0
10.5 1.1 0
10.8 1.1 0
11.1 1.1 0
11.4 1.1 0
11.7 1.1 0
12 1.1 0
12.3 1.1 0
12.6 1.1 0
12.9 1.1 0
13.2 1.1 0
13.5 1.1 0
13.8 1.1 0
14.1 1.1 0
14.4 1.1 0
14.7 1.1 0
15 1.1 0
15.3 1.1 0
15.6 1.1 0
15.9 1.1 0
16.2 1.1 0
16.5 1.1 0
16.8 1.1 0
17.1 1.1 0
17.4 1.1 0
17.7 1.1 0
18 1.1 0
18.3 1.1 0
18.6 1.1 0
18.9 1.1 0
19.2 1.1 0
19.5 1.1 0
19.8 1.1 0
20.1 1.1 0
20.4 1.1 0
20.7 1.1 0
21 1.1 0
21.3 1.1 0
21.6 1.1 0
21.9 1.1 0
22.2 1.1 0
22.5 1.1 0
22.8 1.1 0
23.1 1.1 0
23.4 1.1 0
23.7 1.1 0
24 1.1 0
24.3 1.1 0
24.6 1.1 0
24.9 1.1 0
25.2 1.1 0
25.5 1.1 0
25.8 1.1 0
26.1 1.1 0
26.4 1.1 0
26.7 1.1 0
27 1.1 0
27.3 1.1 0
27.6 1.1 0
27.9 1.1 0
28.2 1.1 0
28.5 1.1 0
28.8 1.1 0
29.1 1.1 0
29.4 1.1 0
29.7 1.1 0
30 1.1 0
30.3 1.1 0
30.6 1.1 0
0 1.2 0
0.3 1.2 0
0.6 1.2 0
0.9 1.2 0
1.2 1.2 0
1.5 1.2 0
1.8 1.2 0
2.1 1.2 0
2.4 1.2 0
2.7 1.2 0
3 1.2 0
3.3 1.2 0
3.6 1.2 0
3.9 1.2 0
4.2 1.2 0
4.5 1.2 0
4.8 1.2 0
5.1 1.2 0
5.4 1.2 0
5.7 1.2 0
6 1.2 0
6.3 1.2 0
6.6 1.2 0
6.9 1.2 0
7.2 1.2 0
7.5 1.2 0
7.8 1.2 0
8.1 1.2 0
8.4 1.2 0
8.7 1.2 0
9 1.2 0
9.3 1.2 0
9.6 1.2 0
9.9 1.2 0
10.2 1.2 0
10.5 1.2 0
10.8 1.2 0
11.1 1.2 0
11.4 1.2 0
11.7 1.2 0
12 1.2 0
12.3 1.2 0
12.6 1.2 0
12.9 1.2 0
13.2 1.2 0
13.5 1.2 0
13.8 1.2 0
14.1 1.2 0
14.4 1.2 0
14.7 1.2 0
15 1.2 0
15.3 1.2 0
15.6 1.2 0
15.9 1.2 0
16.2 1.2 0
16.5 1.2 0
16.8 1.2 0
17.1 1.2 0
17.4 1.2 0
17.7 1.2 0
18 1.2 0
18.3 1.2 0
18.6 1.2 0
18.9 1.2 0
19.2 1.2 0
19.5 1.2 0
19.8 1.2 0
20.1 1.2 0
20.4 1.2 0
20.7 1.2 0
21 1.2 0
21.3 1.2 0
21.6 1.2 0
21.9 1.2 0
22.2 1.2 0
22.5 1.2 0
22.8 1.2 0
23.1 1.2 0
23.4 1.2 0
23.7 1.2 0
24 1.2 0
24.3 1.2 0
24.6 1.2 0
24.9 1.2 0
25.2 1.2 0
25.5 1.2 0
25.8 1.2 0
26.1 1.2 0
26.4 1.2 0
26.7 1.2 0
27 1.2 0
27.3 1.2 0
27.6 1.2 0
27.9 1.2 0
28.2 1.2 0
28.5 1.2 0
28.8 1.2 0
29.1 1.2 0
29.4 1.2 0
29.7 1.2 0
30 1.2 0
30.3 1.2 0
30.6 1.2 0

POINT_DATA 1339

SCALARS pressure double
LOOKUP_TABLE pressure
1.17141
1.17141
1.10657
1.06233
1.02251
0.985934
0.95288
0.923351
0.896997
0.873288
0.851684
0.831722
0.81303
0.79533
0.778423
0.762164
0.746446
0.731189
0.716337
0.701843
0.687668
0.673783
0.660162
0.646784
0.633628
0.620678
0.607918
0.595336
0.582918
0.570654
0.558533
0.546547
0.534686
0.522942
0.51131
0.499781
0.488349
0.477009
0.465756
0.454584
0.443489
0.432467
0.421512
0.410623
0.399794
0.389022
0.378305
0.367639
0.357022
0.346451
0.335924
0.325437
0.314989
0.304578
0.294202
0.283859
0.273547
0.263264
0.25301
0.242781
0.232578
0.222399
0.212242
0.202106
0.191991
0.181894
0.171816
0.161754
0.151709
0.141679
0.131663
0.121662
0.111673
0.101696
0.0917317
0.0817783
0.0718355
0.0619029
0.0519802
0.0420668
0.0321625
0.0222669
0.0123796
0.00250042
-0.00737097
-0.0172349
-0.0270916
-0.0369415
-0.0467849
-0.056622
-0.0664533
-0.0762791
-0.0860998
-0.0959157
-0.105727
-0.115535
-0.125339
-0.13514
-0.144938
-0.154733
-0.164526
-0.174317
0.174317
1.17141
1.17141
1.10657
1.06233
1.02251
0.985934
0.95288
0.923351
0.896997
0.873288
0.851684
0.831722
0.81303
0.79533
0.778423
0.762164
0.746446
0.731189
0.716337
0.701843
0.687668
0.673783
0.660162
0.646784
0.633628
0.620678
0.607918
0.595336
0.582918
0.570654
0.558533
0.546547
0.534686
0.522942
0.51131
0.499781
0.488349
0.477009
0.465756
0.454584
0.443489
0.432467
0.421512
0.410623
0.399794
0.389022
0.378305
0.367639
0.357022
0.346451
0.335924
0.325437
0.314989
0.304578
0.294202
0.283859
0.273547
0.263264
0.25301
0.242781
0.232578
0.222399
0.212242
0.202106
0.191991
0.181894
0.171816
0.161754
0.151709
0.141679
0.131663
0.121662
0.111673
0.101696
0.0917317
0.0817783
0.0718355
0.0619029
0.0519802
0.0420668
0.0321625
0.0222669
0.0123796
0.00250042
-0.00737097
-0.0172349
-0.0270916
-0.0369415
-0.0467849
-0.056622
-0.0664533
-0.0762791
-0.0860998
-0.0959157
-0.105727
-0.115535
-0.125339
-0.13514
-0.144938
-0.154733
-0.164526
-0.174317
0.174317
1.15047
1.15047
1.10458
1.06256
1.02321
0.98673
0.953623
0.923983
0.897505
0.873683
0.851988
0.831956
0.813212
0.795474
0.77854
0.762262
0.746528
0.73126
0.7164
0.701898
0.687717
0.673827
0.660203
0.64682
0.633661
0.620709
0.607947
0.595362
0.582942
0.570677
0.558554
0.546566
0.534704
0.522959
0.511325
0.499795
0.488363
0.477022
0.465768
0.454596
0.4435
0.432477
0.421522
0.410631
0.399802
0.38903
0.378312
0.367646
0.357029
0.346457
0.335929
0.325442
0.314994
0.304583
0.294207
0.283863
0.273551
0.263268
0.253013
0.242785
0.232582
0.222402
0.212245
0.202109
0.191993
0.181897
0.171818
0.161756
0.151711
0.141681
0.131665
0.121663
0.111674
0.101698
0.0917332
0.0817797
0.0718368
0.0619042
0.0519813
0.0420679
0.0321635
0.0222678
0.0123804
0.00250117
-0.00737031
-0.0172343
-0.0270911
-0.0369411
-0.0467845
-0.0566217
-0.066453
-0.0762789
-0.0860996
-0.0959156
-0.105727
-0.115535
-0.125339
-0.13514
-0.144938
-0.154733
-0.164526
-0.174317
0.174317
1.13549
1.13549
1.1017
1.06279
1.02432
0.988054
0.954884
0.925062
0.898366
0.874342
0.85248
0.832321
0.813483
0.795679
0.778699
0.762387
0.746629
0.731344
0.716471
0.701959
0.68777
0.673874
0.660244
0.646857
0.633695
0.620739
0.607974
0.595387
0.582965
0.570697
0.558573
0.546583
0.53472
0.522974
0.511339
0.499808
0.488374
0.477033
0.465778
0.454605
0.443509
0.432485
0.421529
0.410639
0.399809
0.389036
0.378318
0.367652
0.357034
0.346462
0.335934
0.325447
0.314998
0.304587
0.29421
0.283867
0.273554
0.263271
0.253016
0.242788
0.232584
0.222404
0.212247
0.202111
0.191995
0.181899
0.17182
0.161758
0.151713
0.141682
0.131667
0.121665
0.111676
0.101699
0.0917343
0.0817807
0.0718378
0.0619051
0.0519822
0.0420687
0.0321642
0.0222684
0.012381
0.00250174
-0.00736979
-0.0172338
-0.0270907
-0.0369407
-0.0467842
-0.0566214
-0.0664528
-0.0762787
-0.0860994
-0.0959155
-0.105727
-0.115535
-0.125339
-0.13514
-0.144938
-0.154733
-0.164526
-0.174315
0.174315
1.12592
1.12592
1.09921
1.0629
1.02528
0.989248
0.956061
0.926099
0.899219
0.875014
0.852998
0.832716
0.813785
0.795913
0.778884
0.762536
0.746752
0.731447
0.716559
0.702035
0.687836
0.673933
0.660296
0.646903
0.633736
0.620776
0.608007
0.595417
0.582993
0.570722
0.558596
0.546605
0.534739
0.522992
0.511355
0.499823
0.488389
0.477046
0.46579
0.454616
0.443519
0.432495
0.421539
0.410647
0.399817
0.389044
0.378325
0.367658
0.35704
0.346468
0.335939
0.325452
0.315003
0.304591
0.294214
0.28387
0.273558
0.263275
0.253019
0.242791
0.232587
0.222407
0.21225
0.202114
0.191998
0.181901
0.171822
0.16176
0.151714
0.141684
0.131668
0.121666
0.111677
0.101701
0.0917357
0.081782
0.071839
0.0619062
0.0519833
0.0420697
0.0321652
0.0222693
0.0123819
0.00250253
-0.00736905
-0.0172332
-0.0270901
-0.0369401
-0.0467836
-0.0566209
-0.0664523
-0.0762783
-0.0860991
-0.0959151
-0.105727
-0.115535
-0.125339
-0.135139
-0.144937
-0.154732
-0.164525
-0.174312
0.174312
1.1206
1.1206
1.09758
1.06291
1.02587
0.990014
0.95683
0.926788
0.899797
0.875478
0.853363
0.833
0.814008
0.79609
0.779027
0.762654
0.746851
0.731532
0.716632
0.702099
0.687893
0.673983
0.660341
0.646944
0.633773
0.620809
0.608038
0.595445
0.583018
0.570746
0.558617
0.546624
0.534757
0.523009
0.511371
0.499837
0.488402
0.477059
0.465802
0.454627
0.443529
0.432504
0.421547
0.410655
0.399824
0.389051
0.378332
0.367665
0.357046
0.346474
0.335945
0.325457
0.315008
0.304596
0.294218
0.283874
0.273561
0.263278
0.253023
0.242794
0.23259
0.22241
0.212252
0.202116
0.192
0.181903
0.171824
0.161762
0.151716
0.141686
0.13167
0.121668
0.111679
0.101702
0.091737
0.0817832
0.0718402
0.0619074
0.0519843
0.0420707
0.0321661
0.0222703
0.0123828
0.00250338
-0.00736824
-0.0172324
-0.0270893
-0.0369394
-0.046783
-0.0566203
-0.0664518
-0.0762778
-0.0860986
-0.0959147
-0.105726
-0.115534
-0.125338
-0.135139
-0.144937
-0.154732
-0.164523
-0.174308
0.174308
1.1189
1.1189
1.09704
1.06293
1.02608
0.990288
0.957104
0.927034
0.900003
0.875645
0.853495
0.833104
0.81409
0.796157
0.779082
0.762699
0.746889
0.731566
0.716661
0.702125
0.687917
0.674004
0.66036
0.646961
0.633789
0.620824
0.608051
0.595457
0.583029
0.570756
0.558627
0.546633
0.534765
0.523016
0.511378
0.499844
0.488408
0.477064
0.465807
0.454632
0.443534
0.432508
0.421551
0.410659
0.399828
0.389054
0.378335
0.367668
0.357049
0.346476
0.335947
0.325459
0.31501
0.304598
0.29422
0.283876
0.273563
0.263279
0.253024
0.242795
0.232591
0.222411
0.212253
0.202117
0.192001
0.181904
0.171825
0.161763
0.151717
0.141687
0.131671
0.121668
0.111679
0.101703
0.0917375
0.0817838
0.0718407
0.0619079
0.0519848
0.0420712
0.0321666
0.0222707
0.0123832
0.00250377
-0.00736787
-0.017232
-0.027089
-0.0369391
-0.0467827
-0.05662
-0.0664515
-0.0762775
-0.0860984
-0.0959145
-0.105726
-0.115534
-0.125338
-0.135139
-0.144937
-0.154732
-0.164523
-0.174306
0.174306
1.1206
1.1206
1.09758
1.06291
1.02587
0.990014
0.95683
0.926788
0.899796
0.875478
0.853363
0.833
0.814007
0.79609
0.779027
0.762653
0.746851
0.731532
0.716632
0.702099
0.687893
0.673983
0.660341
0.646944
0.633773
0.620809
0.608038
0.595445
0.583018
0.570746
0.558618
0.546624
0.534757
0.523009
0.511371
0.499837
0.488402
0.477059
0.465802
0.454627
0.443529
0.432504
0.421547
0.410655
0.399824
0.389051
0.378332
0.367665
0.357046
0.346474
0.335944
0.325457
0.315008
0.304596
0.294218
0.283874
0.273561
0.263278
0.253023
0.242794
0.23259
0.22241
0.212252
0.202116
0.192
0.181903
0.171824
0.161762
0.151716
0.141686
0.13167
0.121668
0.111679
0.101702
0.091737
0.0817832
0.0718402
0.0619074
0.0519843
0.0420707
0.0321661
0.0222703
0.0123828
0.00250339
-0.00736824
-0.0172324
-0.0270893
-0.0369394
-0.046783
-0.0566203
-0.0664518
-0.0762778
-0.0860986
-0.0959147
-0.105726
-0.115534
-0.125338
-0.135139
-0.144937
-0.154732
-0.164523
-0.174308
0.174308
1.12592
1.12592
1.09921
1.0629
1.02528
0.989247
0.956061
0.926099
0.899218
0.875014
0.852999
0.832716
0.813785
0.795914
0.778884
0.762535
0.746752
0.731448
0.716558
0.702034
0.687837
0.673933
0.660296
0.646903
0.633736
0.620776
0.608007
0.595417
0.582993
0.570722
0.558596
0.546605
0.534739
0.522992
0.511355
0.499823
0.488389
0.477046
0.46579
0.454616
0.443519
0.432495
0.421538
0.410647
0.399817
0.389044
0.378325
0.367658
0.35704
0.346468
0.335939
0.325452
0.315003
0.304591
0.294214
0.28387
0.273558
0.263275
0.253019
0.242791
0.232587
0.222407
0.21225
0.202114
0.191998
0.181901
0.171822
0.16176
0.151714
0.141684
0.131668
0.121666
0.111677
0.101701
0.0917357
0.081782
0.071839
0.0619062
0.0519833
0.0420697
0.0321652
0.0222693
0.0123819
0.00250254
-0.00736905
-0.0172331
-0.0270901
-0.0369401
-0.0467836
-0.0566209
-0.0664523
-0.0762783
-0.0860991
-0.0959151
-0.105727
-0.115535
-0.125339
-0.135139
-0.144937
-0.154732
-0.164525
-0.174312
0.174312
1.13549
1.13549
1.1017
1.06279
1.02432
0.988052
0.954885
0.925062
0.898365
0.874341
0.852482
0.832321
0.813482
0.79568
0.778699
0.762386
0.746629
0.731345
0.71647
0.701958
0.68777
0.673874
0.660244
0.646857
0.633695
0.620739
0.607974
0.595387
0.582965
0.570697
0.558573
0.546583
0.53472
0.522974
0.511339
0.499808
0.488375
0.477033
0.465778
0.454605
0.443509
0.432485
0.421529
0.410639
0.399809
0.389036
0.378318
0.367652
0.357034
0.346462
0.335934
0.325447
0.314998
0.304587
0.29421
0.283867
0.273554
0.263271
0.253016
0.242788
0.232584
0.222404
0.212247
0.202111
0.191995
0.181898
0.17182
0.161758
0.151713
0.141682
0.131667
0.121665
0.111676
0.101699
0.0917343
0.0817807
0.0718378
0.0619051
0.0519822
0.0420687
0.0321642
0.0222684
0.0123811
0.00250174
-0.00736979
-0.0172338
-0.0270907
-0.0369407
-0.0467842
-0.0566214
-0.0664528
-0.0762787
-0.0860994
-0.0959155
-0.105727
-0.115535
-0.125339
-0.13514
-0.144938
-0.154733
-0.164526
-0.174315
0.174315
1.15047
1.15047
1.10458
1.06256
1.02321
0.986728
0.953623
0.923984
0.897504
0.873682
0.851989
0.831956
0.813211
0.795475
0.778541
0.762261
0.746528
0.731261
0.716399
0.701898
0.687717
0.673827
0.660203
0.64682
0.633661
0.620709
0.607947
0.595362
0.582942
0.570676
0.558554
0.546566
0.534704
0.522959
0.511325
0.499795
0.488363
0.477022
0.465768
0.454596
0.4435
0.432477
0.421522
0.410631
0.399802
0.38903
0.378312
0.367646
0.357029
0.346457
0.335929
0.325442
0.314994
0.304583
0.294207
0.283863
0.273551
0.263268
0.253013
0.242785
0.232582
0.222402
0.212245
0.202109
0.191993
0.181897
0.171818
0.161756
0.151711
0.141681
0.131665
0.121663
0.111674
0.101698
0.0917332
0.0817797
0.0718368
0.0619042
0.0519813
0.0420679
0.0321635
0.0222678
0.0123804
0.00250117
-0.0073703
-0.0172343
-0.0270911
-0.0369411
-0.0467845
-0.0566217
-0.066453
-0.0762789
-0.0860996
-0.0959156
-0.105727
-0.115535
-0.125339
-0.13514
-0.144938
-0.154733
-0.164526
-0.174317
0.174317
1.17141
1.17141
1.10657
1.06233
1.02251
0.985932
0.95288
0.923352
0.896996
0.873287
0.851686
0.831722
0.813029
0.79533
0.778423
0.762164
0.746445
0.731189
0.716337
0.701842
0.687668
0.673783
0.660162
0.646784
0.633628
0.620678
0.607918
0.595336
0.582918
0.570654
0.558533
0.546547
0.534686
0.522942
0.51131
0.499781
0.488349
0.477009
0.465756
0.454584
0.443489
0.432467
0.421512
0.410623
0.399794
0.389022
0.378305
0.36764
0.357022
0.346451
0.335924
0.325437
0.314989
0.304578
0.294202
0.283859
0.273547
0.263264
0.25301
0.242781
0.232578
0.222399
0.212242
0.202106
0.191991
0.181894
0.171816
0.161754
0.151709
0.141679
0.131663
0.121662
0.111673
0.101696
0.0917317
0.0817783
0.0718355
0.061903
0.0519802
0.0420668
0.0321625
0.0222669
0.0123796
0.00250043
-0.00737096
-0.0172349
-0.0270916
-0.0369415
-0.0467849
-0.056622
-0.0664533
-0.0762791
-0.0860998
-0.0959157
-0.105727
-0.115535
-0.125339
-0.13514
-0.144938
-0.154733
-0.164526
-0.174318
0.174318
1.17141
1.17141
1.10657
1.06233
1.02251
0.985932
0.95288
0.923352
0.896996
0.873287
0.851686
0.831722
0.813029
0.79533
0.778423
0.762164
0.746445
0.731189
0.716337
0.701842
0.687668
0.673783
0.660162
0.646784
0.633628
0.620678
0.607918
0.595336
0.582918
0.570654
0.558533
0.546547
0.534686
0.522942
0.51131
0.499781
0.488349
0.477009
0.465756
0.454584
0.443489
0.432467
0.421512
0.410623
0.399794
0.389022
0.378305
0.36764
0.357022
0.346451
0.335924
0.325437
0.314989
0.304578
0.294202
0.283859
0.273547
0.263264
0.25301
0.242781
0.232578
0.222399
0.212242
0.202106
0.191991
0.181894
0.171816
0.161754
0.151709
0.141679
0.131663
0.121662
0.111673
0.101696
0.0917317
0.0817783
0.0718355
0.061903
0.0519802
0.0420668
0.0321625
0.0222669
0.0123796
0.00250043
-0.00737096
-0.0172349
-0.0270916
-0.0369415
-0.0467849
-0.056622
-0.0664533
-0.0762791
-0.0860998
-0.0959157
-0.105727
-0.115535
-0.125339
-0.13514
-0.144938
-0.154733
-0.164526
-0.174318
0.174318
SCALARS phi double
LOOKUP_TABLE phi
1
1
1
1
0.999999
0.999994
0.999983
0.999958
0.99991
0.99983
0.999706
0.999526
0.999278
0.998952
0.998537
0.998024
0.997407
0.996678
0.995834
0.994869
0.993783
0.992574
0.991241
0.989787
0.988213
0.986521
0.984709
0.982764
0.980662
0.978361
0.975804
0.972915
0.969608
0.965789
0.961362
0.956236
0.950331
0.943576
0.935918
0.927319
0.917759
0.907233
0.895752
0.88334
0.870035
0.855884
0.840942
0.825271
0.808938
0.79201
0.77456
0.756659
0.738375
0.719778
0.700934
0.681905
0.662751
0.643527
0.624286
0.605076
0.585942
0.566922
0.548055
0.529372
0.510904
0.492676
0.474712
0.457032
0.439653
0.42259
0.405855
0.38946
0.373412
0.357718
0.342383
0.32741
0.312803
0.29856
0.284684
0.271173
0.258025
0.245237
0.232809
0.220736
0.209015
0.197642
0.186615
0.175929
0.165583
0.155571
0.145892
0.136543
0.127523
0.118829
0.110461
0.102418
0.0947027
0.0873011
0.0802682
0.0734148
0.0674154
0.0598347
0.0598347
1
1
1
1
0.999999
0.999994
0.999983
0.999958
0.99991
0.99983
0.999706
0.999526
0.999278
0.998952
0.998537
0.998024
0.997407
0.996678
0.995834
0.994869
0.993783
0.992574
0.991241
0.989787
0.988213
0.986521
0.984709
0.982764
0.980662
0.978361
0.975804
0.972915
0.969608
0.965789
0.961362
0.956236
0.950331
0.943576
0.935918
0.927319
0.917759
0.907233
0.895752
0.88334
0.870035
0.855884
0.840942
0.825271
0.808938
0.79201
0.77456
0.756659
0.738375
0.719778
0.700934
0.681905
0.662751
0.643527
0.624286
0.605076
0.585942
0.566922
0.548055
0.529372
0.510904
0.492676
0.474712
0.457032
0.439653
0.42259
0.405855
0.38946
0.373412
0.357718
0.342383
0.32741
0.312803
0.29856
0.284684
0.271173
0.258025
0.245237
0.232809
0.220736
0.209015
0.197642
0.186615
0.175929
0.165583
0.155571
0.145892
0.136543
0.127523
0.118829
0.110461
0.102418
0.0947027
0.0873011
0.0802682
0.0734148
0.0674154
0.0598347
0.0598347
1
1
1
0.999996
0.999983
0.999954
0.999898
0.999804
0.999658
0.999447
0.999157
0.998778
0.9983
0.997714
0.997014
0.996196
0.995256
0.994192
0.993003
0.991689
0.990252
0.988694
0.987016
0.985224
0.98332
0.981308
0.979194
0.976978
0.974658
0.972226
0.969665
0.966948
0.96404
0.960892
0.957451
0.953655
0.949441
0.944747
0.939511
0.933678
0.9272
0.920039
0.912164
0.903559
0.894213
0.884129
0.873317
0.861797
0.849596
0.836747
0.82329
0.809266
0.794723
0.779707
0.76427
0.748461
0.732329
0.715925
0.699296
0.682488
0.665546
0.648512
0.631425
0.614324
0.597243
0.580215
0.56327
0.546434
0.529734
0.513192
0.496829
0.480662
0.464709
0.448983
0.433497
0.418262
0.403286
0.388578
0.374144
0.359987
0.346111
0.332518
0.31921
0.306185
0.293444
0.280984
0.268801
0.256894
0.245258
0.233889
0.222781
0.21193
0.20133
0.190976
0.180865
0.170988
0.161351
0.15192
0.142799
0.133625
0.12562
0.114675
0.114675
0.999997
1
0.99998
0.999897
0.999724
0.999434
0.998999
0.998397
0.997613
0.996636
0.995464
0.994099
0.992547
0.990816
0.988916
0.986859
0.984656
0.982317
0.979854
0.977278
0.974599
0.971826
0.968969
0.966037
0.963036
0.959976
0.956863
0.953702
0.950499
0.947257
0.943977
0.940657
0.937289
0.933862
0.930361
0.926764
0.923045
0.919174
0.915116
0.910838
0.906301
0.90147
0.896309
0.890787
0.884872
0.878541
0.871771
0.864546
0.856856
0.848693
0.840057
0.830951
0.821382
0.811363
0.800909
0.790037
0.77877
0.767131
0.755144
0.742837
0.730236
0.717369
0.704265
0.690952
0.677457
0.663809
0.650033
0.636155
0.622202
0.608195
0.594159
0.580115
0.566082
0.552081
0.538128
0.524242
0.510435
0.496723
0.483118
0.46963
0.45627
0.443046
0.429965
0.417032
0.404252
0.391627
0.379159
0.366848
0.354692
0.342688
0.330834
0.319123
0.307549
0.296104
0.284779
0.273561
0.262456
0.251396
0.240549
0.229335
0.219559
0.205416
0.205416
0.999999
1
0.99943
0.998224
0.996402
0.994008
0.991093
0.987716
0.983939
0.979828
0.975446
0.970853
0.966103
0.961239
0.9563
0.951318
0.946317
0.94132
0.936342
0.931396
0.926494
0.921643
0.91685
0.91212
0.907457