# vtk DataFile Version 3.0
FlowField
ASCII
DATASET STRUCTURED_GRID
DIMENSIONS 103 13 1 
POINTS 1339 double
0 0 0
0.3 0 0
0.6 0 0
0.9 0 0
1.2 0 0
1.5 0 0
1.8 0 0
2.1 0 0
2.4 0 0
2.7 0 0
3 0 0
3.3 0 0
3.6 0 0
3.9 0 0
4.2 0 0
4.5 0 0
4.8 0 0
5.1 0 0
5.4 0 0
5.7 0 0
6 0 0
6.3 0 0
6.6 0 0
6.9 0 0
7.2 0 0
7.5 0 0
7.8 0 0
8.1 0 0
8.4 0 0
8.7 0 0
9 0 0
9.3 0 0
9.6 0 0
9.9 0 0
10.2 0 0
10.5 0 0
10.8 0 0
11.1 0 0
11.4 0 0
11.7 0 0
12 0 0
12.3 0 0
12.6 0 0
12.9 0 0
13.2 0 0
13.5 0 0
13.8 0 0
14.1 0 0
14.4 0 0
14.7 0 0
15 0 0
15.3 0 0
15.6 0 0
15.9 0 0
16.2 0 0
16.5 0 0
16.8 0 0
17.1 0 0
17.4 0 0
17.7 0 0
18 0 0
18.3 0 0
18.6 0 0
18.9 0 0
19.2 0 0
19.5 0 0
19.8 0 0
20.1 0 0
20.4 0 0
20.7 0 0
21 0 0
21.3 0 0
21.6 0 0
21.9 0 0
22.2 0 0
22.5 0 0
22.8 0 0
23.1 0 0
23.4 0 0
23.7 0 0
24 0 0
24.3 0 0
24.6 0 0
24.9 0 0
25.2 0 0
25.5 0 0
25.8 0 0
26.1 0 0
26.4 0 0
26.7 0 0
27 0 0
27.3 0 0
27.6 0 0
27.9 0 0
28.2 0 0
28.5 0 0
28.8 0 0
29.1 0 0
29.4 0 0
29.7 0 0
30 0 0
30.3 0 0
30.6 0 0
0 0.1 0
0.3 0.1 0
0.6 0.1 0
0.9 0.1 0
1.2 0.1 0
1.5 0.1 0
1.8 0.1 0
2.1 0.1 0
2.4 0.1 0
2.7 0.1 0
3 0.1 0
3.3 0.1 0
3.6 0.1 0
3.9 0.1 0
4.2 0.1 0
4.5 0.1 0
4.8 0.1 0
5.1 0.1 0
5.4 0.1 0
5.7 0.1 0
6 0.1 0
6.3 0.1 0
6.6 0.1 0
6.9 0.1 0
7.2 0.1 0
7.5 0.1 0
7.8 0.1 0
8.1 0.1 0
8.4 0.1 0
8.7 0.1 0
9 0.1 0
9.3 0.1 0
9.6 0.1 0
9.9 0.1 0
10.2 0.1 0
10.5 0.1 0
10.8 0.1 0
11.1 0.1 0
11.4 0.1 0
11.7 0.1 0
12 0.1 0
12.3 0.1 0
12.6 0.1 0
12.9 0.1 0
13.2 0.1 0
13.5 0.1 0
13.8 0.1 0
14.1 0.1 0
14.4 0.1 0
14.7 0.1 0
15 0.1 0
15.3 0.1 0
15.6 0.1 0
15.9 0.1 0
16.2 0.1 0
16.5 0.1 0
16.8 0.1 0
17.1 0.1 0
17.4 0.1 0
17.7 0.1 0
18 0.1 0
18.3 0.1 0
18.6 0.1 0
18.9 0.1 0
19.2 0.1 0
19.5 0.1 0
19.8 0.1 0
20.1 0.1 0
20.4 0.1 0
20.7 0.1 0
21 0.1 0
21.3 0.1 0
21.6 0.1 0
21.9 0.1 0
22.2 0.1 0
22.5 0.1 0
22.8 0.1 0
23.1 0.1 0
23.4 0.1 0
23.7 0.1 0
24 0.1 0
24.3 0.1 0
24.6 0.1 0
24.9 0.1 0
25.2 0.1 0
25.5 0.1 0
25.8 0.1 0
26.1 0.1 0
26.4 0.1 0
26.7 0.1 0
27 0.1 0
27.3 0.1 0
27.6 0.1 0
27.9 0.1 0
28.2 0.1 0
28.5 0.1 0
28.8 0.1 0
29.1 0.1 0
29.4 0.1 0
29.7 0.1 0
30 0.1 0
30.3 0.1 0
30.6 0.1 0
0 0.2 0
0.3 0.2 0
0.6 0.2 0
0.9 0.2 0
1.2 0.2 0
1.5 0.2 0
1.8 0.2 0
2.1 0.2 0
2.4 0.2 0
2.7 0.2 0
3 0.2 0
3.3 0.2 0
3.6 0.2 0
3.9 0.2 0
4.2 0.2 0
4.5 0.2 0
4.8 0.2 0
5.1 0.2 0
5.4 0.2 0
5.7 0.2 0
6 0.2 0
6.3 0.2 0
6.6 0.2 0
6.9 0.2 0
7.2 0.2 0
7.5 0.2 0
7.8 0.2 0
8.1 0.2 0
8.4 0.2 0
8.7 0.2 0
9 0.2 0
9.3 0.2 0
9.6 0.2 0
9.9 0.2 0
10.2 0.2 0
10.5 0.2 0
10.8 0.2 0
11.1 0.2 0
11.4 0.2 0
11.7 0.2 0
12 0.2 0
12.3 0.2 0
12.6 0.2 0
12.9 0.2 0
13.2 0.2 0
13.5 0.2 0
13.8 0.2 0
14.1 0.2 0
14.4 0.2 0
14.7 0.2 0
15 0.2 0
15.3 0.2 0
15.6 0.2 0
15.9 0.2 0
16.2 0.2 0
16.5 0.2 0
16.8 0.2 0
17.1 0.2 0
17.4 0.2 0
17.7 0.2 0
18 0.2 0
18.3 0.2 0
18.6 0.2 0
18.9 0.2 0
19.2 0.2 0
19.5 0.2 0
19.8 0.2 0
20.1 0.2 0
20.4 0.2 0
20.7 0.2 0
21 0.2 0
21.3 0.2 0
21.6 0.2 0
21.9 0.2 0
22.2 0.2 0
22.5 0.2 0
22.8 0.2 0
23.1 0.2 0
23.4 0.2 0
23.7 0.2 0
24 0.2 0
24.3 0.2 0
24.6 0.2 0
24.9 0.2 0
25.2 0.2 0
25.5 0.2 0
25.8 0.2 0
26.1 0.2 0
26.4 0.2 0
26.7 0.2 0
27 0.2 0
27.3 0.2 0
27.6 0.2 0
27.9 0.2 0
28.2 0.2 0
28.5 0.2 0
28.8 0.2 0
29.1 0.2 0
29.4 0.2 0
29.7 0.2 0
30 0.2 0
30.3 0.2 0
30.6 0.2 0
0 0.3 0
0.3 0.3 0
0.6 0.3 0
0.9 0.3 0
1.2 0.3 0
1.5 0.3 0
1.8 0.3 0
2.1 0.3 0
2.4 0.3 0
2.7 0.3 0
3 0.3 0
3.3 0.3 0
3.6 0.3 0
3.9 0.3 0
4.2 0.3 0
4.5 0.3 0
4.8 0.3 0
5.1 0.3 0
5.4 0.3 0
5.7 0.3 0
6 0.3 0
6.3 0.3 0
6.6 0.3 0
6.9 0.3 0
7.2 0.3 0
7.5 0.3 0
7.8 0.3 0
8.1 0.3 0
8.4 0.3 0
8.7 0.3 0
9 0.3 0
9.3 0.3 0
9.6 0.3 0
9.9 0.3 0
10.2 0.3 0
10.5 0.3 0
10.8 0.3 0
11.1 0.3 0
11.4 0.3 0
11.7 0.3 0
12 0.3 0
12.3 0.3 0
12.6 0.3 0
12.9 0.3 0
13.2 0.3 0
13.5 0.3 0
13.8 0.3 0
14.1 0.3 0
14.4 0.3 0
14.7 0.3 0
15 0.3 0
15.3 0.3 0
15.6 0.3 0
15.9 0.3 0
16.2 0.3 0
16.5 0.3 0
16.8 0.3 0
17.1 0.3 0
17.4 0.3 0
17.7 0.3 0
18 0.3 0
18.3 0.3 0
18.6 0.3 0
18.9 0.3 0
19.2 0.3 0
19.5 0.3 0
19.8 0.3 0
20.1 0.3 0
20.4 0.3 0
20.7 0.3 0
21 0.3 0
21.3 0.3 0
21.6 0.3 0
21.9 0.3 0
22.2 0.3 0
22.5 0.3 0
22.8 0.3 0
23.1 0.3 0
23.4 0.3 0
23.7 0.3 0
24 0.3 0
24.3 0.3 0
24.6 0.3 0
24.9 0.3 0
25.2 0.3 0
25.5 0.3 0
25.8 0.3 0
26.1 0.3 0
26.4 0.3 0
26.7 0.3 0
27 0.3 0
27.3 0.3 0
27.6 0.3 0
27.9 0.3 0
28.2 0.3 0
28.5 0.3 0
28.8 0.3 0
29.1 0.3 0
29.4 0.3 0
29.7 0.3 0
30 0.3 0
30.3 0.3 0
30.6 0.3 0
0 0.4 0
0.3 0.4 0
0.6 0.4 0
0.9 0.4 0
1.2 0.4 0
1.5 0.4 0
1.8 0.4 0
2.1 0.4 0
2.4 0.4 0
2.7 0.4 0
3 0.4 0
3.3 0.4 0
3.6 0.4 0
3.9 0.4 0
4.2 0.4 0
4.5 0.4 0
4.8 0.4 0
5.1 0.4 0
5.4 0.4 0
5.7 0.4 0
6 0.4 0
6.3 0.4 0
6.6 0.4 0
6.9 0.4 0
7.2 0.4 0
7.5 0.4 0
7.8 0.4 0
8.1 0.4 0
8.4 0.4 0
8.7 0.4 0
9 0.4 0
9.3 0.4 0
9.6 0.4 0
9.9 0.4 0
10.2 0.4 0
10.5 0.4 0
10.8 0.4 0
11.1 0.4 0
11.4 0.4 0
11.7 0.4 0
12 0.4 0
12.3 0.4 0
12.6 0.4 0
12.9 0.4 0
13.2 0.4 0
13.5 0.4 0
13.8 0.4 0
14.1 0.4 0
14.4 0.4 0
14.7 0.4 0
15 0.4 0
15.3 0.4 0
15.6 0.4 0
15.9 0.4 0
16.2 0.4 0
16.5 0.4 0
16.8 0.4 0
17.1 0.4 0
17.4 0.4 0
17.7 0.4 0
18 0.4 0
18.3 0.4 0
18.6 0.4 0
18.9 0.4 0
19.2 0.4 0
19.5 0.4 0
19.8 0.4 0
20.1 0.4 0
20.4 0.4 0
20.7 0.4 0
21 0.4 0
21.3 0.4 0
21.6 0.4 0
21.9 0.4 0
22.2 0.4 0
22.5 0.4 0
22.8 0.4 0
23.1 0.4 0
23.4 0.4 0
23.7 0.4 0
24 0.4 0
24.3 0.4 0
24.6 0.4 0
24.9 0.4 0
25.2 0.4 0
25.5 0.4 0
25.8 0.4 0
26.1 0.4 0
26.4 0.4 0
26.7 0.4 0
27 0.4 0
27.3 0.4 0
27.6 0.4 0
27.9 0.4 0
28.2 0.4 0
28.5 0.4 0
28.8 0.4 0
29.1 0.4 0
29.4 0.4 0
29.7 0.4 0
30 0.4 0
30.3 0.4 0
30.6 0.4 0
0 0.5 0
0.3 0.5 0
0.6 0.5 0
0.9 0.5 0
1.2 0.5 0
1.5 0.5 0
1.8 0.5 0
2.1 0.5 0
2.4 0.5 0
2.7 0.5 0
3 0.5 0
3.3 0.5 0
3.6 0.5 0
3.9 0.5 0
4.2 0.5 0
4.5 0.5 0
4.8 0.5 0
5.1 0.5 0
5.4 0.5 0
5.7 0.5 0
6 0.5 0
6.3 0.5 0
6.6 0.5 0
6.9 0.5 0
7.2 0.5 0
7.5 0.5 0
7.8 0.5 0
8.1 0.5 0
8.4 0.5 0
8.7 0.5 0
9 0.5 0
9.3 0.5 0
9.6 0.5 0
9.9 0.5 0
10.2 0.5 0
10.5 0.5 0
10.8 0.5 0
11.1 0.5 0
11.4 0.5 0
11.7 0.5 0
12 0.5 0
12.3 0.5 0
12.6 0.5 0
12.9 0.5 0
13.2 0.5 0
13.5 0.5 0
13.8 0.5 0
14.1 0.5 0
14.4 0.5 0
14.7 0.5 0
15 0.5 0
15.3 0.5 0
15.6 0.5 0
15.9 0.5 0
16.2 0.5 0
16.5 0.5 0
16.8 0.5 0
17.1 0.5 0
17.4 0.5 0
17.7 0.5 0
18 0.5 0
18.3 0.5 0
18.6 0.5 0
18.9 0.5 0
19.2 0.5 0
19.5 0.5 0
19.8 0.5 0
20.1 0.5 0
20.4 0.5 0
20.7 0.5 0
21 0.5 0
21.3 0.5 0
21.6 0.5 0
21.9 0.5 0
22.2 0.5 0
22.5 0.5 0
22.8 0.5 0
23.1 0.5 0
23.4 0.5 0
23.7 0.5 0
24 0.5 0
24.3 0.5 0
24.6 0.5 0
24.9 0.5 0
25.2 0.5 0
25.5 0.5 0
25.8 0.5 0
26.1 0.5 0
26.4 0.5 0
26.7 0.5 0
27 0.5 0
27.3 0.5 0
27.6 0.5 0
27.9 0.5 0
28.2 0.5 0
28.5 0.5 0
28.8 0.5 0
29.1 0.5 0
29.4 0.5 0
29.7 0.5 0
30 0.5 0
30.3 0.5 0
30.6 0.5 0
0 0.6 0
0.3 0.6 0
0.6 0.6 0
0.9 0.6 0
1.2 0.6 0
1.5 0.6 0
1.8 0.6 0
2.1 0.6 0
2.4 0.6 0
2.7 0.6 0
3 0.6 0
3.3 0.6 0
3.6 0.6 0
3.9 0.6 0
4.2 0.6 0
4.5 0.6 0
4.8 0.6 0
5.1 0.6 0
5.4 0.6 0
5.7 0.6 0
6 0.6 0
6.3 0.6 0
6.6 0.6 0
6.9 0.6 0
7.2 0.6 0
7.5 0.6 0
7.8 0.6 0
8.1 0.6 0
8.4 0.6 0
8.7 0.6 0
9 0.6 0
9.3 0.6 0
9.6 0.6 0
9.9 0.6 0
10.2 0.6 0
10.5 0.6 0
10.8 0.6 0
11.1 0.6 0
11.4 0.6 0
11.7 0.6 0
12 0.6 0
12.3 0.6 0
12.6 0.6 0
12.9 0.6 0
13.2 0.6 0
13.5 0.6 0
13.8 0.6 0
14.1 0.6 0
14.4 0.6 0
14.7 0.6 0
15 0.6 0
15.3 0.6 0
15.6 0.6 0
15.9 0.6 0
16.2 0.6 0
16.5 0.6 0
16.8 0.6 0
17.1 0.6 0
17.4 0.6 0
17.7 0.6 0
18 0.6 0
18.3 0.6 0
18.6 0.6 0
18.9 0.6 0
19.2 0.6 0
19.5 0.6 0
19.8 0.6 0
20.1 0.6 0
20.4 0.6 0
20.7 0.6 0
21 0.6 0
21.3 0.6 0
21.6 0.6 0
21.9 0.6 0
22.2 0.6 0
22.5 0.6 0
22.8 0.6 0
23.1 0.6 0
23.4 0.6 0
23.7 0.6 0
24 0.6 0
24.3 0.6 0
24.6 0.6 0
24.9 0.6 0
25.2 0.6 0
25.5 0.6 0
25.8 0.6 0
26.1 0.6 0
26.4 0.6 0
26.7 0.6 0
27 0.6 0
27.3 0.6 0
27.6 0.6 0
27.9 0.6 0
28.2 0.6 0
28.5 0.6 0
28.8 0.6 0
29.1 0.6 0
29.4 0.6 0
29.7 0.6 0
30 0.6 0
30.3 0.6 0
30.6 0.6 0
0 0.7 0
0.3 0.7 0
0.6 0.7 0
0.9 0.7 0
1.2 0.7 0
1.5 0.7 0
1.8 0.7 0
2.1 0.7 0
2.4 0.7 0
2.7 0.7 0
3 0.7 0
3.3 0.7 0
3.6 0.7 0
3.9 0.7 0
4.2 0.7 0
4.5 0.7 0
4.8 0.7 0
5.1 0.7 0
5.4 0.7 0
5.7 0.7 0
6 0.7 0
6.3 0.7 0
6.6 0.7 0
6.9 0.7 0
7.2 0.7 0
7.5 0.7 0
7.8 0.7 0
8.1 0.7 0
8.4 0.7 0
8.7 0.7 0
9 0.7 0
9.3 0.7 0
9.6 0.7 0
9.9 0.7 0
10.2 0.7 0
10.5 0.7 0
10.8 0.7 0
11.1 0.7 0
11.4 0.7 0
11.7 0.7 0
12 0.7 0
12.3 0.7 0
12.6 0.7 0
12.9 0.7 0
13.2 0.7 0
13.5 0.7 0
13.8 0.7 0
14.1 0.7 0
14.4 0.7 0
14.7 0.7 0
15 0.7 0
15.3 0.7 0
15.6 0.7 0
15.9 0.7 0
16.2 0.7 0
16.5 0.7 0
16.8 0.7 0
17.1 0.7 0
17.4 0.7 0
17.7 0.7 0
18 0.7 0
18.3 0.7 0
18.6 0.7 0
18.9 0.7 0
19.2 0.7 0
19.5 0.7 0
19.8 0.7 0
20.1 0.7 0
20.4 0.7 0
20.7 0.7 0
21 0.7 0
21.3 0.7 0
21.6 0.7 0
21.9 0.7 0
22.2 0.7 0
22.5 0.7 0
22.8 0.7 0
23.1 0.7 0
23.4 0.7 0
23.7 0.7 0
24 0.7 0
24.3 0.7 0
24.6 0.7 0
24.9 0.7 0
25.2 0.7 0
25.5 0.7 0
25.8 0.7 0
26.1 0.7 0
26.4 0.7 0
26.7 0.7 0
27 0.7 0
27.3 0.7 0
27.6 0.7 0
27.9 0.7 0
28.2 0.7 0
28.5 0.7 0
28.8 0.7 0
29.1 0.7 0
29.4 0.7 0
29.7 0.7 0
30 0.7 0
30.3 0.7 0
30.6 0.7 0
0 0.8 0
0.3 0.8 0
0.6 0.8 0
0.9 0.8 0
1.2 0.8 0
1.5 0.8 0
1.8 0.8 0
2.1 0.8 0
2.4 0.8 0
2.7 0.8 0
3 0.8 0
3.3 0.8 0
3.6 0.8 0
3.9 0.8 0
4.2 0.8 0
4.5 0.8 0
4.8 0.8 0
5.1 0.8 0
5.4 0.8 0
5.7 0.8 0
6 0.8 0
6.3 0.8 0
6.6 0.8 0
6.9 0.8 0
7.2 0.8 0
7.5 0.8 0
7.8 0.8 0
8.1 0.8 0
8.4 0.8 0
8.7 0.8 0
9 0.8 0
9.3 0.8 0
9.6 0.8 0
9.9 0.8 0
10.2 0.8 0
10.5 0.8 0
10.8 0.8 0
11.1 0.8 0
11.4 0.8 0
11.7 0.8 0
12 0.8 0
12.3 0.8 0
12.6 0.8 0
12.9 0.8 0
13.2 0.8 0
13.5 0.8 0
13.8 0.8 0
14.1 0.8 0
14.4 0.8 0
14.7 0.8 0
15 0.8 0
15.3 0.8 0
15.6 0.8 0
15.9 0.8 0
16.2 0.8 0
16.5 0.8 0
16.8 0.8 0
17.1 0.8 0
17.4 0.8 0
17.7 0.8 0
18 0.8 0
18.3 0.8 0
18.6 0.8 0
18.9 0.8 0
19.2 0.8 0
19.5 0.8 0
19.8 0.8 0
20.1 0.8 0
20.4 0.8 0
20.7 0.8 0
21 0.8 0
21.3 0.8 0
21.6 0.8 0
21.9 0.8 0
22.2 0.8 0
22.5 0.8 0
22.8 0.8 0
23.1 0.8 0
23.4 0.8 0
23.7 0.8 0
24 0.8 0
24.3 0.8 0
24.6 0.8 0
24.9 0.8 0
25.2 0.8 0
25.5 0.8 0
25.8 0.8 0
26.1 0.8 0
26.4 0.8 0
26.7 0.8 0
27 0.8 0
27.3 0.8 0
27.6 0.8 0
27.9 0.8 0
28.2 0.8 0
28.5 0.8 0
28.8 0.8 0
29.1 0.8 0
29.4 0.8 0
29.7 0.8 0
30 0.8 0
30.3 0.8 0
30.6 0.8 0
0 0.9 0
0.3 0.9 0
0.6 0.9 0
0.9 0.9 0
1.2 0.9 0
1.5 0.9 0
1.8 0.9 0
2.1 0.9 0
2.4 0.9 0
2.7 0.9 0
3 0.9 0
3.3 0.9 0
3.6 0.9 0
3.9 0.9 0
4.2 0.9 0
4.5 0.9 0
4.8 0.9 0
5.1 0.9 0
5.4 0.9 0
5.7 0.9 0
6 0.9 0
6.3 0.9 0
6.6 0.9 0
6.9 0.9 0
7.2 0.9 0
7.5 0.9 0
7.8 0.9 0
8.1 0.9 0
8.4 0.9 0
8.7 0.9 0
9 0.9 0
9.3 0.9 0
9.6 0.9 0
9.9 0.9 0
10.2 0.9 0
10.5 0.9 0
10.8 0.9 0
11.1 0.9 0
11.4 0.9 0
11.7 0.9 0
12 0.9 0
12.3 0.9 0
12.6 0.9 0
12.9 0.9 0
13.2 0.9 0
13.5 0.9 0
13.8 0.9 0
14.1 0.9 0
14.4 0.9 0
14.7 0.9 0
15 0.9 0
15.3 0.9 0
15.6 0.9 0
15.9 0.9 0
16.2 0.9 0
16.5 0.9 0
16.8 0.9 0
17.1 0.9 0
17.4 0.9 0
17.7 0.9 0
18 0.9 0
18.3 0.9 0
18.6 0.9 0
18.9 0.9 0
19.2 0.9 0
19.5 0.9 0
19.8 0.9 0
20.1 0.9 0
20.4 0.9 0
20.7 0.9 0
21 0.9 0
21.3 0.9 0
21.6 0.9 0
21.9 0.9 0
22.2 0.9 0
22.5 0.9 0
22.8 0.9 0
23.1 0.9 0
23.4 0.9 0
23.7 0.9 0
24 0.9 0
24.3 0.9 0
24.6 0.9 0
24.9 0.9 0
25.2 0.9 0
25.5 0.9 0
25.8 0.9 0
26.1 0.9 0
26.4 0.9 0
26.7 0.9 0
27 0.9 0
27.3 0.9 0
27.6 0.9 0
27.9 0.9 0
28.2 0.9 0
28.5 0.9 0
28.8 0.9 0
29.1 0.9 0
29.4 0.9 0
29.7 0.9 0
30 0.9 0
30.3 0.9 0
30.6 0.9 0
0 1 0
0.3 1 0
0.6 1 0
0.9 1 0
1.2 1 0
1.5 1 0
1.8 1 0
2.1 1 0
2.4 1 0
2.7 1 0
3 1 0
3.3 1 0
3.6 1 0
3.9 1 0
4.2 1 0
4.5 1 0
4.8 1 0
5.1 1 0
5.4 1 0
5.7 1 0
6 1 0
6.3 1 0
6.6 1 0
6.9 1 0
7.2 1 0
7.5 1 0
7.8 1 0
8.1 1 0
8.4 1 0
8.7 1 0
9 1 0
9.3 1 0
9.6 1 0
9.9 1 0
10.2 1 0
10.5 1 0
10.8 1 0
11.1 1 0
11.4 1 0
11.7 1 0
12 1 0
12.3 1 0
12.6 1 0
12.9 1 0
13.2 1 0
13.5 1 0
13.8 1 0
14.1 1 0
14.4 1 0
14.7 1 0
15 1 0
15.3 1 0
15.6 1 0
15.9 1 0
16.2 1 0
16.5 1 0
16.8 1 0
17.1 1 0
17.4 1 0
17.7 1 0
18 1 0
18.3 1 0
18.6 1 0
18.9 1 0
19.2 1 0
19.5 1 0
19.8 1 0
20.1 1 0
20.4 1 0
20.7 1 0
21 1 0
21.3 1 0
21.6 1 0
21.9 1 0
22.2 1 0
22.5 1 0
22.8 1 0
23.1 1 0
23.4 1 0
23.7 1 0
24 1 0
24.3 1 0
24.6 1 0
24.9 1 0
25.2 1 0
25.5 1 0
25.8 1 0
26.1 1 0
26.4 1 0
26.7 1 0
27 1 0
27.3 1 0
27.6 1 0
27.9 1 0
28.2 1 0
28.5 1 0
28.8 1 0
29.1 1 0
29.4 1 0
29.7 1 0
30 1 0
30.3 1 0
30.6 1 0
0 1.1 0
0.3 1.1 0
0.6 1.1 0
0.9 1.1 0
1.2 1.1 0
1.5 1.1 0
1.8 1.1 0
2.1 1.1 0
2.4 1.1 0
2.7 1.1 0
3 1.1 0
3.3 1.1 0
3.6 1.1 0
3.9 1.1 0
4.2 1.1 0
4.5 1.1 0
4.8 1.1 0
5.1 1.1 0
5.4 1.1 0
5.7 1.1 0
6 1.1 0
6.3 1.1 0
6.6 1.1 0
6.9 1.1 0
7.2 1.1 0
7.5 1.1 0
7.8 1.1 0
8.1 1.1 0
8.4 1.1 0
8.7 1.1 0
9 1.1 0
9.3 1.1 0
9.6 1.1 0
9.9 1.1 0
10.2 1.1 0
10.5 1.1 0
10.8 1.1 0
11.1 1.1 0
11.4 1.1 0
11.7 1.1 0
12 1.1 0
12.3 1.1 0
12.6 1.1 0
12.9 1.1 0
13.2 1.1 0
13.5 1.1 0
13.8 1.1 0
14.1 1.1 0
14.4 1.1 0
14.7 1.1 0
15 1.1 0
15.3 1.1 0
15.6 1.1 0
15.9 1.1 0
16.2 1.1 0
16.5 1.1 0
16.8 1.1 0
17.1 1.1 0
17.4 1.1 0
17.7 1.1 0
18 1.1 0
18.3 1.1 0
18.6 1.1 0
18.9 1.1 0
19.2 1.1 0
19.5 1.1 0
19.8 1.1 0
20.1 1.1 0
20.4 1.1 0
20.7 1.1 0
21 1.1 0
21.3 1.1 0
21.6 1.1 0
21.9 1.1 0
22.2 1.1 0
22.5 1.1 0
22.8 1.1 0
23.1 1.1 0
23.4 1.1 0
23.7 1.1 0
24 1.1 0
24.3 1.1 0
24.6 1.1 0
24.9 1.1 0
25.2 1.1 0
25.5 1.1 0
25.8 1.1 0
26.1 1.1 0
26.4 1.1 0
26.7 1.1 0
27 1.1 0
27.3 1.1 0
27.6 1.1 0
27.9 1.1 0
28.2 1.1 0
28.5 1.1 0
28.8 1.1 0
29.1 1.1 0
29.4 1.1 0
29.7 1.1 0
30 1.1 0
30.3 1.1 0
30.6 1.1 0
0 1.2 0
0.3 1.2 0
0.6 1.2 0
0.9 1.2 0
1.2 1.2 0
1.5 1.2 0
1.8 1.2 0
2.1 1.2 0
2.4 1.2 0
2.7 1.2 0
3 1.2 0
3.3 1.2 0
3.6 1.2 0
3.9 1.2 0
4.2 1.2 0
4.5 1.2 0
4.8 1.2 0
5.1 1.2 0
5.4 1.2 0
5.7 1.2 0
6 1.2 0
6.3 1.2 0
6.6 1.2 0
6.9 1.2 0
7.2 1.2 0
7.5 1.2 0
7.8 1.2 0
8.1 1.2 0
8.4 1.2 0
8.7 1.2 0
9 1.2 0
9.3 1.2 0
9.6 1.2 0
9.9 1.2 0
10.2 1.2 0
10.5 1.2 0
10.8 1.2 0
11.1 1.2 0
11.4 1.2 0
11.7 1.2 0
12 1.2 0
12.3 1.2 0
12.6 1.2 0
12.9 1.2 0
13.2 1.2 0
13.5 1.2 0
13.8 1.2 0
14.1 1.2 0
14.4 1.2 0
14.7 1.2 0
15 1.2 0
15.3 1.2 0
15.6 1.2 0
15.9 1.2 0
16.2 1.2 0
16.5 1.2 0
16.8 1.2 0
17.1 1.2 0
17.4 1.2 0
17.7 1.2 0
18 1.2 0
18.3 1.2 0
18.6 1.2 0
18.9 1.2 0
19.2 1.2 0
19.5 1.2 0
19.8 1.2 0
20.1 1.2 0
20.4 1.2 0
20.7 1.2 0
21 1.2 0
21.3 1.2 0
21.6 1.2 0
21.9 1.2 0
22.2 1.2 0
22.5 1.2 0
22.8 1.2 0
23.1 1.2 0
23.4 1.2 0
23.7 1.2 0
24 1.2 0
24.3 1.2 0
24.6 1.2 0
24.9 1.2 0
25.2 1.2 0
25.5 1.2 0
25.8 1.2 0
26.1 1.2 0
26.4 1.2 0
26.7 1.2 0
27 1.2 0
27.3 1.2 0
27.6 1.2 0
27.9 1.2 0
28.2 1.2 0
28.5 1.2 0
28.8 1.2 0
29.1 1.2 0
29.4 1.2 0
29.7 1.2 0
30 1.2 0
30.3 1.2 0
30.6 1.2 0

POINT_DATA 1339

SCALARS pressure double
LOOKUP_TABLE pressure
1.17288
1.17288
1.10803
1.0638
1.02397
0.987398
0.954346
0.924818
0.898462
0.874753
0.853151
0.833188
0.814495
0.796795
0.779889
0.763629
0.74791
0.732654
0.717802
0.703307
0.689133
0.675248
0.661627
0.648248
0.635093
0.622142
0.609383
0.5968
0.584383
0.572118
0.559997
0.54801
0.536149
0.524405
0.512771
0.50124
0.489808
0.478468
0.467217
0.456051
0.444968
0.433965
0.42304
0.412193
0.401422
0.390725
0.3801
0.369545
0.359056
0.34863
0.338262
0.327947
0.31768
0.307455
0.297268
0.287113
0.276985
0.26688
0.256794
0.246722
0.236662
0.226612
0.216569
0.206531
0.196498
0.186467
0.176439
0.166413
0.156388
0.146363
0.136339
0.126316
0.116293
0.10627
0.0962468
0.086224
0.0762013
0.0661785
0.0561559
0.0461332
0.0361105
0.0260878
0.0160652
0.00604252
-0.00398014
-0.0140028
-0.0240254
-0.0340481
-0.0440707
-0.0540934
-0.064116
-0.0741387
-0.0841613
-0.0941839
-0.104207
-0.114229
-0.124252
-0.134274
-0.144297
-0.15432
-0.164343
-0.174359
0.174359
1.17288
1.17288
1.10803
1.0638
1.02397
0.987398
0.954346
0.924818
0.898462
0.874753
0.853151
0.833188
0.814495
0.796795
0.779889
0.763629
0.74791
0.732654
0.717802
0.703307
0.689133
0.675248
0.661627
0.648248
0.635093
0.622142
0.609383
0.5968
0.584383
0.572118
0.559997
0.54801
0.536149
0.524405
0.512771
0.50124
0.489808
0.478468
0.467217
0.456051
0.444968
0.433965
0.42304
0.412193
0.401422
0.390725
0.3801
0.369545
0.359056
0.34863
0.338262
0.327947
0.31768
0.307455
0.297268
0.287113
0.276985
0.26688
0.256794
0.246722
0.236662
0.226612
0.216569
0.206531
0.196498
0.186467
0.176439
0.166413
0.156388
0.146363
0.136339
0.126316
0.116293
0.10627
0.0962468
0.086224
0.0762013
0.0661785
0.0561559
0.0461332
0.0361105
0.0260878
0.0160652
0.00604252
-0.00398014
-0.0140028
-0.0240254
-0.0340481
-0.0440707
-0.0540934
-0.064116
-0.0741387
-0.0841613
-0.0941839
-0.104207
-0.114229
-0.124252
-0.134274
-0.144297
-0.15432
-0.164343
-0.174359
0.174359
1.15193
1.15193
1.10604
1.06403
1.02468
0.988194
0.955089
0.925449
0.89897
0.875148
0.853454
0.833421
0.814677
0.79694
0.780006
0.763726
0.747993
0.732726
0.717864
0.703362
0.689182
0.675292
0.661667
0.648285
0.635126
0.622173
0.609411
0.596826
0.584407
0.572141
0.560018
0.54803
0.536167
0.524421
0.512786
0.501255
0.489822
0.478481
0.467229
0.456062
0.444978
0.433973
0.423048
0.4122
0.401427
0.390729
0.380104
0.369548
0.359058
0.348631
0.338263
0.327947
0.31768
0.307456
0.297268
0.287113
0.276985
0.26688
0.256793
0.246722
0.236662
0.226612
0.216569
0.206531
0.196498
0.186467
0.176439
0.166413
0.156388
0.146363
0.136339
0.126316
0.116293
0.10627
0.0962468
0.086224
0.0762013
0.0661785
0.0561558
0.0461332
0.0361105
0.0260878
0.0160652
0.00604252
-0.00398014
-0.0140028
-0.0240254
-0.0340481
-0.0440707
-0.0540934
-0.064116
-0.0741387
-0.0841613
-0.0941839
-0.104207
-0.114229
-0.124252
-0.134274
-0.144297
-0.15432
-0.164343
-0.174358
0.174358
1.13696
1.13696
1.10316
1.06426
1.02579
0.989518
0.95635
0.926527
0.899831
0.875807
0.853947
0.833786
0.814948
0.797145
0.780164
0.763851
0.748094
0.73281
0.717935
0.703423
0.689235
0.675339
0.661709
0.648322
0.635159
0.622203
0.609438
0.596851
0.584429
0.572161
0.560037
0.548047
0.536183
0.524436
0.5128
0.501268
0.489833
0.478492
0.467239
0.456071
0.444986
0.433981
0.423054
0.412205
0.401432
0.390734
0.380107
0.369551
0.35906
0.348633
0.338264
0.327948
0.317681
0.307456
0.297268
0.287113
0.276985
0.26688
0.256793
0.246721
0.236662
0.226611
0.216568
0.206531
0.196498
0.186467
0.176439
0.166413
0.156388
0.146363
0.136339
0.126316
0.116293
0.10627
0.0962468
0.086224
0.0762013
0.0661785
0.0561558
0.0461332
0.0361105
0.0260878
0.0160652
0.00604252
-0.00398014
-0.0140028
-0.0240254
-0.0340481
-0.0440707
-0.0540934
-0.064116
-0.0741387
-0.0841613
-0.0941839
-0.104207
-0.114229
-0.124252
-0.134274
-0.144297
-0.154319
-0.164341
-0.174357
0.174357
1.12738
1.12738
1.10068
1.06436
1.02674
0.990713
0.957527
0.927564
0.900684
0.87648
0.854464
0.834181
0.81525
0.797379
0.780349
0.764001
0.748217
0.732913
0.718023
0.703499
0.689301
0.675397
0.661761
0.648368
0.635201
0.62224
0.609472
0.596882
0.584457
0.572187
0.56006
0.548068
0.536202
0.524454
0.512816
0.501283
0.489847
0.478505
0.467251
0.456083
0.444997
0.433991
0.423064
0.412214
0.401441
0.390741
0.380114
0.369557
0.359066
0.348638
0.338268
0.327952
0.317684
0.307458
0.29727
0.287115
0.276986
0.266881
0.256794
0.246722
0.236662
0.226612
0.216569
0.206531
0.196498
0.186467
0.176439
0.166413
0.156388
0.146363
0.136339
0.126316
0.116293
0.10627
0.0962468
0.086224
0.0762013
0.0661785
0.0561558
0.0461332
0.0361105
0.0260878
0.0160652
0.00604252
-0.00398014
-0.0140028
-0.0240254
-0.0340481
-0.0440707
-0.0540934
-0.064116
-0.0741387
-0.0841613
-0.0941839
-0.104207
-0.114229
-0.124252
-0.134274
-0.144297
-0.154318
-0.164336
-0.174354
0.174354
1.12207
1.12207
1.09905
1.06438
1.02733
0.99148
0.958296
0.928253
0.901262
0.876944
0.854829
0.834465
0.815473
0.797556
0.780492
0.764118
0.748316
0.732997
0.718097
0.703564
0.689358
0.675448
0.661806
0.648409
0.635238
0.622274
0.609502
0.596909
0.584482
0.57221
0.560082
0.548088
0.53622
0.524471
0.512832
0.501297
0.489861
0.478517
0.467263
0.456094
0.445007
0.434001
0.423074
0.412224
0.40145
0.39075
0.380122
0.369564
0.359073
0.348644
0.338274
0.327957
0.317688
0.307462
0.297274
0.287117
0.276989
0.266883
0.256795
0.246723
0.236663
0.226612
0.216569
0.206531
0.196498
0.186468
0.176439
0.166413
0.156388
0.146363
0.136339
0.126316
0.116293
0.10627
0.0962468
0.086224
0.0762013
0.0661785
0.0561558
0.0461332
0.0361105
0.0260878
0.0160652
0.00604252
-0.00398014
-0.0140028
-0.0240254
-0.0340481
-0.0440707
-0.0540934
-0.064116
-0.0741387
-0.0841613
-0.0941839
-0.104207
-0.114229
-0.124252
-0.134274
-0.144296
-0.154317
-0.164331
-0.174352
0.174352
1.12037
1.12037
1.0985
1.06439
1.02755
0.991754
0.95857
0.928499
0.901468
0.877111
0.854961
0.834569
0.815556
0.797623
0.780547
0.764164
0.748355
0.733031
0.718126
0.70359
0.689381
0.675469
0.661825
0.648426
0.635253
0.622288
0.609515
0.596921
0.584493
0.57222
0.560091
0.548096
0.536228
0.524478
0.512839
0.501303
0.489867
0.478523
0.467268
0.456099
0.445012
0.434006
0.423078
0.412228
0.401454
0.390754
0.380126
0.369568
0.359076
0.348647
0.338276
0.327959
0.31769
0.307464
0.297275
0.287119
0.27699
0.266883
0.256796
0.246724
0.236663
0.226613
0.216569
0.206532
0.196498
0.186468
0.17644
0.166413
0.156388
0.146363
0.136339
0.126316
0.116293
0.10627
0.0962468
0.086224
0.0762013
0.0661785
0.0561559
0.0461332
0.0361105
0.0260878
0.0160652
0.00604252
-0.00398014
-0.0140028
-0.0240254
-0.0340481
-0.0440707
-0.0540934
-0.064116
-0.0741387
-0.0841613
-0.0941839
-0.104207
-0.114229
-0.124252
-0.134274
-0.144296
-0.154317
-0.164329
-0.174351
0.174351
1.12207
1.12207
1.09905
1.06438
1.02733
0.99148
0.958296
0.928253
0.901262
0.876944
0.854829
0.834465
0.815473
0.797556
0.780492
0.764118
0.748316
0.732997
0.718097
0.703564
0.689358
0.675448
0.661806
0.648409
0.635238
0.622274
0.609502
0.596909
0.584482
0.57221
0.560082
0.548088
0.53622
0.524471
0.512832
0.501297
0.489861
0.478517
0.467263
0.456094
0.445007
0.434001
0.423074
0.412224
0.40145
0.39075
0.380122
0.369564
0.359073
0.348644
0.338274
0.327957
0.317688
0.307462
0.297274
0.287117
0.276989
0.266883
0.256795
0.246723
0.236663
0.226612
0.216569
0.206531
0.196498
0.186468
0.176439
0.166413
0.156388
0.146363
0.136339
0.126316
0.116293
0.10627
0.0962468
0.086224
0.0762013
0.0661785
0.0561559
0.0461332
0.0361105
0.0260878
0.0160652
0.00604252
-0.00398014
-0.0140028
-0.0240254
-0.0340481
-0.0440707
-0.0540934
-0.064116
-0.0741387
-0.0841613
-0.0941839
-0.104207
-0.114229
-0.124252
-0.134274
-0.144296
-0.154317
-0.164331
-0.174352
0.174352
1.12738
1.12738
1.10068
1.06436
1.02674
0.990713
0.957527
0.927564
0.900684
0.87648
0.854464
0.834181
0.81525
0.797379
0.780349
0.764001
0.748217
0.732913
0.718023
0.703499
0.689301
0.675397
0.661761
0.648368
0.635201
0.62224
0.609472
0.596882
0.584457
0.572187
0.56006
0.548068
0.536202
0.524454
0.512816
0.501283
0.489847
0.478505
0.467251
0.456083
0.444996
0.433991
0.423064
0.412214
0.401441
0.390741
0.380114
0.369557
0.359066
0.348638
0.338268
0.327952
0.317684
0.307458
0.29727
0.287115
0.276986
0.266881
0.256794
0.246722
0.236662
0.226612
0.216569
0.206531
0.196498
0.186467
0.176439
0.166413
0.156388
0.146363
0.136339
0.126316
0.116293
0.10627
0.0962468
0.086224
0.0762013
0.0661785
0.0561558
0.0461332
0.0361105
0.0260878
0.0160652
0.00604252
-0.00398014
-0.0140028
-0.0240254
-0.0340481
-0.0440707
-0.0540934
-0.064116
-0.0741387
-0.0841613
-0.0941839
-0.104207
-0.114229
-0.124252
-0.134274
-0.144297
-0.154318
-0.164336
-0.174354
0.174354
1.13696
1.13696
1.10316
1.06426
1.02579
0.989518
0.95635
0.926527
0.899831
0.875807
0.853947
0.833786
0.814948
0.797145
0.780164
0.763851
0.748094
0.73281
0.717935
0.703423
0.689235
0.675339
0.661709
0.648322
0.635159
0.622203
0.609438
0.596851
0.584429
0.572161
0.560037
0.548047
0.536183
0.524436
0.5128
0.501268
0.489833
0.478492
0.467239
0.456071
0.444986
0.433981
0.423054
0.412205
0.401432
0.390734
0.380107
0.369551
0.35906
0.348633
0.338264
0.327948
0.317681
0.307456
0.297268
0.287113
0.276985
0.26688
0.256793
0.246721
0.236662
0.226611
0.216568
0.206531
0.196498
0.186467
0.176439
0.166413
0.156388
0.146363
0.136339
0.126316
0.116293
0.10627
0.0962468
0.086224
0.0762013
0.0661785
0.0561559
0.0461332
0.0361105
0.0260878
0.0160652
0.00604252
-0.00398014
-0.0140028
-0.0240254
-0.0340481
-0.0440707
-0.0540934
-0.064116
-0.0741387
-0.0841613
-0.0941839
-0.104207
-0.114229
-0.124252
-0.134274
-0.144297
-0.154319
-0.164341
-0.174357
0.174357
1.15193
1.15193
1.10604
1.06403
1.02468
0.988194
0.955089
0.925449
0.89897
0.875148
0.853454
0.833421
0.814677
0.79694
0.780006
0.763726
0.747993
0.732726
0.717864
0.703362
0.689182
0.675292
0.661667
0.648285
0.635126
0.622173
0.609411
0.596826
0.584407
0.572141
0.560018
0.54803
0.536167
0.524421
0.512786
0.501255
0.489822
0.478481
0.467229
0.456062
0.444978
0.433973
0.423048
0.4122
0.401427
0.390729
0.380104
0.369548
0.359058
0.348631
0.338263
0.327947
0.31768
0.307456
0.297268
0.287113
0.276985
0.26688
0.256793
0.246722
0.236662
0.226612
0.216569
0.206531
0.196498
0.186467
0.176439
0.166413
0.156388
0.146363
0.136339
0.126316
0.116293
0.10627
0.0962468
0.086224
0.0762013
0.0661785
0.0561559
0.0461332
0.0361105
0.0260878
0.0160652
0.00604252
-0.00398014
-0.0140028
-0.0240254
-0.0340481
-0.0440707
-0.0540934
-0.064116
-0.0741387
-0.0841613
-0.0941839
-0.104207
-0.114229
-0.124252
-0.134274
-0.144297
-0.15432
-0.164343
-0.174358
0.174358
1.17287
1.17287
1.10803
1.0638
1.02397
0.987398
0.954346
0.924818
0.898462
0.874753
0.853151
0.833188
0.814495
0.796795
0.779889
0.763629
0.74791
0.732654
0.717802
0.703307
0.689133
0.675248
0.661627
0.648248
0.635093
0.622142
0.609383
0.5968
0.584383
0.572118
0.559997
0.54801
0.536149
0.524405
0.512771
0.50124
0.489808
0.478468
0.467217
0.456051
0.444968
0.433965
0.42304
0.412193
0.401422
0.390725
0.3801
0.369545
0.359056
0.34863
0.338262
0.327947
0.31768
0.307455
0.297268
0.287113
0.276985
0.26688
0.256794
0.246722
0.236662
0.226612
0.216569
0.206531
0.196498
0.186467
0.176439
0.166413
0.156388
0.146363
0.136339
0.126316
0.116293
0.10627
0.0962468
0.086224
0.0762013
0.0661785
0.0561559
0.0461332
0.0361105
0.0260878
0.0160652
0.00604252
-0.00398014
-0.0140028
-0.0240254
-0.0340481
-0.0440707
-0.0540934
-0.064116
-0.0741387
-0.0841613
-0.0941839
-0.104207
-0.114229
-0.124252
-0.134274
-0.144297
-0.15432
-0.164343
-0.174359
0.174359
1.17287
1.17287
1.10803
1.0638
1.02397
0.987398
0.954346
0.924818
0.898462
0.874753
0.853151
0.833188
0.814495
0.796795
0.779889
0.763629
0.74791
0.732654
0.717802
0.703307
0.689133
0.675248
0.661627
0.648248
0.635093
0.622142
0.609383
0.5968
0.584383
0.572118
0.559997
0.54801
0.536149
0.524405
0.512771
0.50124
0.489808
0.478468
0.467217
0.456051
0.444968
0.433965
0.42304
0.412193
0.401422
0.390725
0.3801
0.369545
0.359056
0.34863
0.338262
0.327947
0.31768
0.307455
0.297268
0.287113
0.276985
0.26688
0.256794
0.246722
0.236662
0.226612
0.216569
0.206531
0.196498
0.186467
0.176439
0.166413
0.156388
0.146363
0.136339
0.126316
0.116293
0.10627
0.0962468
0.086224
0.0762013
0.0661785
0.0561559
0.0461332
0.0361105
0.0260878
0.0160652
0.00604252
-0.00398014
-0.0140028
-0.0240254
-0.0340481
-0.0440707
-0.0540934
-0.064116
-0.0741387
-0.0841613
-0.0941839
-0.104207
-0.114229
-0.124252
-0.134274
-0.144297
-0.15432
-0.164343
-0.174359
0.174359
SCALARS phi double
LOOKUP_TABLE phi
1
1
1
1
0.999998
0.999994
0.999982
0.999957
0.999909
0.999829
0.999706
0.999526
0.99927
0.998936
0.998555
0.998141
0.997566
0.996431
0.99404
0.989521
0.982025
0.970917
0.955874
0.936884
0.914185
0.88817
0.859318
0.828132
0.795108
0.760718
0.725394
0.689526
0.653457
0.617485
0.581862
0.546797
0.512461
0.478988
0.446482
0.415022
0.384663
0.355446
0.327396
0.30053
0.274859
0.250388
0.227122
0.205067
0.184227
0.164608
0.146217
0.129061
0.113145
0.0984708
0.0850343
0.0728252
0.0618242
0.0520018
0.0433173
0.0357189
0.0291439
0.0235204
0.0187687
0.014804
0.0115386
0.00888472
0.00675703
0.00507466
0.00376292
0.00275457
0.00199043
0.00141961
0.000999301
0.000694239
0.000475993
0.000322084
0.00021509
0.000141764
9.22196e-05
5.92122e-05
3.75281e-05
2.34793e-05
1.45021e-05
8.84357e-06
5.32488e-06
3.16604e-06
1.85903e-06
1.07811e-06
6.17565e-07
3.49456e-07
1.95359e-07
1.07907e-07
5.88963e-08
3.17679e-08
1.69355e-08
8.92397e-09
4.64853e-09
2.39393e-09
1.21902e-09
6.13554e-10
3.07107e-10
1.40767e-10
1.40767e-10
1
1
1
1
0.999998
0.999994
0.999982
0.999957
0.999909
0.999829
0.999706
0.999526
0.99927
0.998936
0.998555
0.998141
0.997566
0.996431
0.99404
0.989521
0.982025
0.970917
0.955874
0.936884
0.914185
0.88817
0.859318
0.828132
0.795108
0.760718
0.725394
0.689526
0.653457
0.617485
0.581862
0.546797
0.512461
0.478988
0.446482
0.415022
0.384663
0.355446
0.327396
0.30053
0.274859
0.250388
0.227122
0.205067
0.184227
0.164608
0.146217
0.129061
0.113145
0.0984708
0.0850343
0.0728252
0.0618242
0.0520018
0.0433173
0.0357189
0.0291439
0.0235204
0.0187687
0.014804
0.0115386
0.00888472
0.00675703
0.00507466
0.00376292
0.00275457
0.00199043
0.00141961
0.000999301
0.000694239
0.000475993
0.000322084
0.00021509
0.000141764
9.22196e-05
5.92122e-05
3.75281e-05
2.34793e-05
1.45021e-05
8.84357e-06
5.32488e-06
3.16604e-06
1.85903e-06
1.07811e-06
6.17565e-07
3.49456e-07
1.95359e-07
1.07907e-07
5.88963e-08
3.17679e-08
1.69355e-08
8.92397e-09
4.64853e-09
2.39393e-09
1.21902e-09
6.13554e-10
3.07107e-10
1.40767e-10
1.40767e-10
1
1
1
0.999996
0.999983
0.999953
0.999898
0.999804
0.999658
0.999446
0.999157
0.998778
0.998299
0.99771
0.997011
0.99621
0.995304
0.994231
0.992824
0.990792
0.98774
0.98322
0.976806
0.968146
0.956999
0.943252
0.926902
0.908048
0.886863
0.863576
0.83845
0.811765
0.783807
0.754856
0.725179
0.695024
0.664616
0.634157
0.60382
0.573754
0.54408
0.514892
0.486262
0.458239
0.430851
0.404111
0.378019
0.352568
0.327745
0.30354
0.279949
0.256979
0.234649
0.212997
0.192078
0.171964
0.152741
0.134504
0.117351
0.101375
0.0866568
0.0732591
0.0612185
0.0505434
0.0412124
0.0331755
0.0263573
0.0206616
0.0159778
0.0121866
0.00916663
0.00679913
0.00497264
0.00358588
0.00254961
0.00178743
0.00123558
0.000842214
0.000566122
0.000375288
0.00024537
0.000158242
0.000100672
6.31871e-05
3.91315e-05
2.3914e-05
1.4423e-05
8.58599e-06
5.04553e-06
2.92723e-06
1.67685e-06
9.4858e-07
5.29964e-07
2.92458e-07
1.59434e-07
8.5871e-08
4.57e-08
2.40346e-08
1.24934e-08
6.41601e-09
3.27754e-09
1.52645e-09
1.52645e-09
0.999997
1
0.99998
0.999896
0.999724
0.999434
0.998999
0.998397
0.997613
0.996636
0.995464
0.994099
0.992547
0.990815
0.988915
0.986859
0.984661
0.98233
0.979858
0.977207
0.974299
0.971014
0.967195
0.962663
0.957236
0.950739
0.943023
0.933968
0.923496
0.911562
0.898164
0.883329
0.867118
0.849613
0.830918
0.81115
0.790435
0.768906
0.746696
0.723934
0.700742
0.677234
0.653505
0.629639
0.605696
0.581718
0.557721
0.533703
0.509637
0.48548
0.461173
0.436654
0.411859
0.38674
0.361274
0.335477
0.309411
0.283195
0.257003
0.231061
0.205635
0.181018
0.157504
0.135375
0.114872
0.0961865
0.0794429
0.064698
0.0519398
0.0410952
0.0320398
0.024612
0.0186266
0.0138877
0.0102008
0.00738176
0.00526288
0.00369705
0.00255911
0.00174569
0.00117365
0.000777763
0.000508104
0.000327271
0.00020786
0.000130197
8.04381e-05
4.90242e-05