# vtk DataFile Version 3.0
FlowField
ASCII
DATASET STRUCTURED_GRID
DIMENSIONS 103 13 1 
POINTS 1339 double
0 0 0
0.3 0 0
0.6 0 0
0.9 0 0
1.2 0 0
1.5 0 0
1.8 0 0
2.1 0 0
2.4 0 0
2.7 0 0
3 0 0
3.3 0 0
3.6 0 0
3.9 0 0
4.2 0 0
4.5 0 0
4.8 0 0
5.1 0 0
5.4 0 0
5.7 0 0
6 0 0
6.3 0 0
6.6 0 0
6.9 0 0
7.2 0 0
7.5 0 0
7.8 0 0
8.1 0 0
8.4 0 0
8.7 0 0
9 0 0
9.3 0 0
9.6 0 0
9.9 0 0
10.2 0 0
10.5 0 0
10.8 0 0
11.1 0 0
11.4 0 0
11.7 0 0
12 0 0
12.3 0 0
12.6 0 0
12.9 0 0
13.2 0 0
13.5 0 0
13.8 0 0
14.1 0 0
14.4 0 0
14.7 0 0
15 0 0
15.3 0 0
15.6 0 0
15.9 0 0
16.2 0 0
16.5 0 0
16.8 0 0
17.1 0 0
17.4 0 0
17.7 0 0
18 0 0
18.3 0 0
18.6 0 0
18.9 0 0
19.2 0 0
19.5 0 0
19.8 0 0
20.1 0 0
20.4 0 0
20.7 0 0
21 0 0
21.3 0 0
21.6 0 0
21.9 0 0
22.2 0 0
22.5 0 0
22.8 0 0
23.1 0 0
23.4 0 0
23.7 0 0
24 0 0
24.3 0 0
24.6 0 0
24.9 0 0
25.2 0 0
25.5 0 0
25.8 0 0
26.1 0 0
26.4 0 0
26.7 0 0
27 0 0
27.3 0 0
27.6 0 0
27.9 0 0
28.2 0 0
28.5 0 0
28.8 0 0
29.1 0 0
29.4 0 0
29.7 0 0
30 0 0
30.3 0 0
30.6 0 0
0 0.1 0
0.3 0.1 0
0.6 0.1 0
0.9 0.1 0
1.2 0.1 0
1.5 0.1 0
1.8 0.1 0
2.1 0.1 0
2.4 0.1 0
2.7 0.1 0
3 0.1 0
3.3 0.1 0
3.6 0.1 0
3.9 0.1 0
4.2 0.1 0
4.5 0.1 0
4.8 0.1 0
5.1 0.1 0
5.4 0.1 0
5.7 0.1 0
6 0.1 0
6.3 0.1 0
6.6 0.1 0
6.9 0.1 0
7.2 0.1 0
7.5 0.1 0
7.8 0.1 0
8.1 0.1 0
8.4 0.1 0
8.7 0.1 0
9 0.1 0
9.3 0.1 0
9.6 0.1 0
9.9 0.1 0
10.2 0.1 0
10.5 0.1 0
10.8 0.1 0
11.1 0.1 0
11.4 0.1 0
11.7 0.1 0
12 0.1 0
12.3 0.1 0
12.6 0.1 0
12.9 0.1 0
13.2 0.1 0
13.5 0.1 0
13.8 0.1 0
14.1 0.1 0
14.4 0.1 0
14.7 0.1 0
15 0.1 0
15.3 0.1 0
15.6 0.1 0
15.9 0.1 0
16.2 0.1 0
16.5 0.1 0
16.8 0.1 0
17.1 0.1 0
17.4 0.1 0
17.7 0.1 0
18 0.1 0
18.3 0.1 0
18.6 0.1 0
18.9 0.1 0
19.2 0.1 0
19.5 0.1 0
19.8 0.1 0
20.1 0.1 0
20.4 0.1 0
20.7 0.1 0
21 0.1 0
21.3 0.1 0
21.6 0.1 0
21.9 0.1 0
22.2 0.1 0
22.5 0.1 0
22.8 0.1 0
23.1 0.1 0
23.4 0.1 0
23.7 0.1 0
24 0.1 0
24.3 0.1 0
24.6 0.1 0
24.9 0.1 0
25.2 0.1 0
25.5 0.1 0
25.8 0.1 0
26.1 0.1 0
26.4 0.1 0
26.7 0.1 0
27 0.1 0
27.3 0.1 0
27.6 0.1 0
27.9 0.1 0
28.2 0.1 0
28.5 0.1 0
28.8 0.1 0
29.1 0.1 0
29.4 0.1 0
29.7 0.1 0
30 0.1 0
30.3 0.1 0
30.6 0.1 0
0 0.2 0
0.3 0.2 0
0.6 0.2 0
0.9 0.2 0
1.2 0.2 0
1.5 0.2 0
1.8 0.2 0
2.1 0.2 0
2.4 0.2 0
2.7 0.2 0
3 0.2 0
3.3 0.2 0
3.6 0.2 0
3.9 0.2 0
4.2 0.2 0
4.5 0.2 0
4.8 0.2 0
5.1 0.2 0
5.4 0.2 0
5.7 0.2 0
6 0.2 0
6.3 0.2 0
6.6 0.2 0
6.9 0.2 0
7.2 0.2 0
7.5 0.2 0
7.8 0.2 0
8.1 0.2 0
8.4 0.2 0
8.7 0.2 0
9 0.2 0
9.3 0.2 0
9.6 0.2 0
9.9 0.2 0
10.2 0.2 0
10.5 0.2 0
10.8 0.2 0
11.1 0.2 0
11.4 0.2 0
11.7 0.2 0
12 0.2 0
12.3 0.2 0
12.6 0.2 0
12.9 0.2 0
13.2 0.2 0
13.5 0.2 0
13.8 0.2 0
14.1 0.2 0
14.4 0.2 0
14.7 0.2 0
15 0.2 0
15.3 0.2 0
15.6 0.2 0
15.9 0.2 0
16.2 0.2 0
16.5 0.2 0
16.8 0.2 0
17.1 0.2 0
17.4 0.2 0
17.7 0.2 0
18 0.2 0
18.3 0.2 0
18.6 0.2 0
18.9 0.2 0
19.2 0.2 0
19.5 0.2 0
19.8 0.2 0
20.1 0.2 0
20.4 0.2 0
20.7 0.2 0
21 0.2 0
21.3 0.2 0
21.6 0.2 0
21.9 0.2 0
22.2 0.2 0
22.5 0.2 0
22.8 0.2 0
23.1 0.2 0
23.4 0.2 0
23.7 0.2 0
24 0.2 0
24.3 0.2 0
24.6 0.2 0
24.9 0.2 0
25.2 0.2 0
25.5 0.2 0
25.8 0.2 0
26.1 0.2 0
26.4 0.2 0
26.7 0.2 0
27 0.2 0
27.3 0.2 0
27.6 0.2 0
27.9 0.2 0
28.2 0.2 0
28.5 0.2 0
28.8 0.2 0
29.1 0.2 0
29.4 0.2 0
29.7 0.2 0
30 0.2 0
30.3 0.2 0
30.6 0.2 0
0 0.3 0
0.3 0.3 0
0.6 0.3 0
0.9 0.3 0
1.2 0.3 0
1.5 0.3 0
1.8 0.3 0
2.1 0.3 0
2.4 0.3 0
2.7 0.3 0
3 0.3 0
3.3 0.3 0
3.6 0.3 0
3.9 0.3 0
4.2 0.3 0
4.5 0.3 0
4.8 0.3 0
5.1 0.3 0
5.4 0.3 0
5.7 0.3 0
6 0.3 0
6.3 0.3 0
6.6 0.3 0
6.9 0.3 0
7.2 0.3 0
7.5 0.3 0
7.8 0.3 0
8.1 0.3 0
8.4 0.3 0
8.7 0.3 0
9 0.3 0
9.3 0.3 0
9.6 0.3 0
9.9 0.3 0
10.2 0.3 0
10.5 0.3 0
10.8 0.3 0
11.1 0.3 0
11.4 0.3 0
11.7 0.3 0
12 0.3 0
12.3 0.3 0
12.6 0.3 0
12.9 0.3 0
13.2 0.3 0
13.5 0.3 0
13.8 0.3 0
14.1 0.3 0
14.4 0.3 0
14.7 0.3 0
15 0.3 0
15.3 0.3 0
15.6 0.3 0
15.9 0.3 0
16.2 0.3 0
16.5 0.3 0
16.8 0.3 0
17.1 0.3 0
17.4 0.3 0
17.7 0.3 0
18 0.3 0
18.3 0.3 0
18.6 0.3 0
18.9 0.3 0
19.2 0.3 0
19.5 0.3 0
19.8 0.3 0
20.1 0.3 0
20.4 0.3 0
20.7 0.3 0
21 0.3 0
21.3 0.3 0
21.6 0.3 0
21.9 0.3 0
22.2 0.3 0
22.5 0.3 0
22.8 0.3 0
23.1 0.3 0
23.4 0.3 0
23.7 0.3 0
24 0.3 0
24.3 0.3 0
24.6 0.3 0
24.9 0.3 0
25.2 0.3 0
25.5 0.3 0
25.8 0.3 0
26.1 0.3 0
26.4 0.3 0
26.7 0.3 0
27 0.3 0
27.3 0.3 0
27.6 0.3 0
27.9 0.3 0
28.2 0.3 0
28.5 0.3 0
28.8 0.3 0
29.1 0.3 0
29.4 0.3 0
29.7 0.3 0
30 0.3 0
30.3 0.3 0
30.6 0.3 0
0 0.4 0
0.3 0.4 0
0.6 0.4 0
0.9 0.4 0
1.2 0.4 0
1.5 0.4 0
1.8 0.4 0
2.1 0.4 0
2.4 0.4 0
2.7 0.4 0
3 0.4 0
3.3 0.4 0
3.6 0.4 0
3.9 0.4 0
4.2 0.4 0
4.5 0.4 0
4.8 0.4 0
5.1 0.4 0
5.4 0.4 0
5.7 0.4 0
6 0.4 0
6.3 0.4 0
6.6 0.4 0
6.9 0.4 0
7.2 0.4 0
7.5 0.4 0
7.8 0.4 0
8.1 0.4 0
8.4 0.4 0
8.7 0.4 0
9 0.4 0
9.3 0.4 0
9.6 0.4 0
9.9 0.4 0
10.2 0.4 0
10.5 0.4 0
10.8 0.4 0
11.1 0.4 0
11.4 0.4 0
11.7 0.4 0
12 0.4 0
12.3 0.4 0
12.6 0.4 0
12.9 0.4 0
13.2 0.4 0
13.5 0.4 0
13.8 0.4 0
14.1 0.4 0
14.4 0.4 0
14.7 0.4 0
15 0.4 0
15.3 0.4 0
15.6 0.4 0
15.9 0.4 0
16.2 0.4 0
16.5 0.4 0
16.8 0.4 0
17.1 0.4 0
17.4 0.4 0
17.7 0.4 0
18 0.4 0
18.3 0.4 0
18.6 0.4 0
18.9 0.4 0
19.2 0.4 0
19.5 0.4 0
19.8 0.4 0
20.1 0.4 0
20.4 0.4 0
20.7 0.4 0
21 0.4 0
21.3 0.4 0
21.6 0.4 0
21.9 0.4 0
22.2 0.4 0
22.5 0.4 0
22.8 0.4 0
23.1 0.4 0
23.4 0.4 0
23.7 0.4 0
24 0.4 0
24.3 0.4 0
24.6 0.4 0
24.9 0.4 0
25.2 0.4 0
25.5 0.4 0
25.8 0.4 0
26.1 0.4 0
26.4 0.4 0
26.7 0.4 0
27 0.4 0
27.3 0.4 0
27.6 0.4 0
27.9 0.4 0
28.2 0.4 0
28.5 0.4 0
28.8 0.4 0
29.1 0.4 0
29.4 0.4 0
29.7 0.4 0
30 0.4 0
30.3 0.4 0
30.6 0.4 0
0 0.5 0
0.3 0.5 0
0.6 0.5 0
0.9 0.5 0
1.2 0.5 0
1.5 0.5 0
1.8 0.5 0
2.1 0.5 0
2.4 0.5 0
2.7 0.5 0
3 0.5 0
3.3 0.5 0
3.6 0.5 0
3.9 0.5 0
4.2 0.5 0
4.5 0.5 0
4.8 0.5 0
5.1 0.5 0
5.4 0.5 0
5.7 0.5 0
6 0.5 0
6.3 0.5 0
6.6 0.5 0
6.9 0.5 0
7.2 0.5 0
7.5 0.5 0
7.8 0.5 0
8.1 0.5 0
8.4 0.5 0
8.7 0.5 0
9 0.5 0
9.3 0.5 0
9.6 0.5 0
9.9 0.5 0
10.2 0.5 0
10.5 0.5 0
10.8 0.5 0
11.1 0.5 0
11.4 0.5 0
11.7 0.5 0
12 0.5 0
12.3 0.5 0
12.6 0.5 0
12.9 0.5 0
13.2 0.5 0
13.5 0.5 0
13.8 0.5 0
14.1 0.5 0
14.4 0.5 0
14.7 0.5 0
15 0.5 0
15.3 0.5 0
15.6 0.5 0
15.9 0.5 0
16.2 0.5 0
16.5 0.5 0
16.8 0.5 0
17.1 0.5 0
17.4 0.5 0
17.7 0.5 0
18 0.5 0
18.3 0.5 0
18.6 0.5 0
18.9 0.5 0
19.2 0.5 0
19.5 0.5 0
19.8 0.5 0
20.1 0.5 0
20.4 0.5 0
20.7 0.5 0
21 0.5 0
21.3 0.5 0
21.6 0.5 0
21.9 0.5 0
22.2 0.5 0
22.5 0.5 0
22.8 0.5 0
23.1 0.5 0
23.4 0.5 0
23.7 0.5 0
24 0.5 0
24.3 0.5 0
24.6 0.5 0
24.9 0.5 0
25.2 0.5 0
25.5 0.5 0
25.8 0.5 0
26.1 0.5 0
26.4 0.5 0
26.7 0.5 0
27 0.5 0
27.3 0.5 0
27.6 0.5 0
27.9 0.5 0
28.2 0.5 0
28.5 0.5 0
28.8 0.5 0
29.1 0.5 0
29.4 0.5 0
29.7 0.5 0
30 0.5 0
30.3 0.5 0
30.6 0.5 0
0 0.6 0
0.3 0.6 0
0.6 0.6 0
0.9 0.6 0
1.2 0.6 0
1.5 0.6 0
1.8 0.6 0
2.1 0.6 0
2.4 0.6 0
2.7 0.6 0
3 0.6 0
3.3 0.6 0
3.6 0.6 0
3.9 0.6 0
4.2 0.6 0
4.5 0.6 0
4.8 0.6 0
5.1 0.6 0
5.4 0.6 0
5.7 0.6 0
6 0.6 0
6.3 0.6 0
6.6 0.6 0
6.9 0.6 0
7.2 0.6 0
7.5 0.6 0
7.8 0.6 0
8.1 0.6 0
8.4 0.6 0
8.7 0.6 0
9 0.6 0
9.3 0.6 0
9.6 0.6 0
9.9 0.6 0
10.2 0.6 0
10.5 0.6 0
10.8 0.6 0
11.1 0.6 0
11.4 0.6 0
11.7 0.6 0
12 0.6 0
12.3 0.6 0
12.6 0.6 0
12.9 0.6 0
13.2 0.6 0
13.5 0.6 0
13.8 0.6 0
14.1 0.6 0
14.4 0.6 0
14.7 0.6 0
15 0.6 0
15.3 0.6 0
15.6 0.6 0
15.9 0.6 0
16.2 0.6 0
16.5 0.6 0
16.8 0.6 0
17.1 0.6 0
17.4 0.6 0
17.7 0.6 0
18 0.6 0
18.3 0.6 0
18.6 0.6 0
18.9 0.6 0
19.2 0.6 0
19.5 0.6 0
19.8 0.6 0
20.1 0.6 0
20.4 0.6 0
20.7 0.6 0
21 0.6 0
21.3 0.6 0
21.6 0.6 0
21.9 0.6 0
22.2 0.6 0
22.5 0.6 0
22.8 0.6 0
23.1 0.6 0
23.4 0.6 0
23.7 0.6 0
24 0.6 0
24.3 0.6 0
24.6 0.6 0
24.9 0.6 0
25.2 0.6 0
25.5 0.6 0
25.8 0.6 0
26.1 0.6 0
26.4 0.6 0
26.7 0.6 0
27 0.6 0
27.3 0.6 0
27.6 0.6 0
27.9 0.6 0
28.2 0.6 0
28.5 0.6 0
28.8 0.6 0
29.1 0.6 0
29.4 0.6 0
29.7 0.6 0
30 0.6 0
30.3 0.6 0
30.6 0.6 0
0 0.7 0
0.3 0.7 0
0.6 0.7 0
0.9 0.7 0
1.2 0.7 0
1.5 0.7 0
1.8 0.7 0
2.1 0.7 0
2.4 0.7 0
2.7 0.7 0
3 0.7 0
3.3 0.7 0
3.6 0.7 0
3.9 0.7 0
4.2 0.7 0
4.5 0.7 0
4.8 0.7 0
5.1 0.7 0
5.4 0.7 0
5.7 0.7 0
6 0.7 0
6.3 0.7 0
6.6 0.7 0
6.9 0.7 0
7.2 0.7 0
7.5 0.7 0
7.8 0.7 0
8.1 0.7 0
8.4 0.7 0
8.7 0.7 0
9 0.7 0
9.3 0.7 0
9.6 0.7 0
9.9 0.7 0
10.2 0.7 0
10.5 0.7 0
10.8 0.7 0
11.1 0.7 0
11.4 0.7 0
11.7 0.7 0
12 0.7 0
12.3 0.7 0
12.6 0.7 0
12.9 0.7 0
13.2 0.7 0
13.5 0.7 0
13.8 0.7 0
14.1 0.7 0
14.4 0.7 0
14.7 0.7 0
15 0.7 0
15.3 0.7 0
15.6 0.7 0
15.9 0.7 0
16.2 0.7 0
16.5 0.7 0
16.8 0.7 0
17.1 0.7 0
17.4 0.7 0
17.7 0.7 0
18 0.7 0
18.3 0.7 0
18.6 0.7 0
18.9 0.7 0
19.2 0.7 0
19.5 0.7 0
19.8 0.7 0
20.1 0.7 0
20.4 0.7 0
20.7 0.7 0
21 0.7 0
21.3 0.7 0
21.6 0.7 0
21.9 0.7 0
22.2 0.7 0
22.5 0.7 0
22.8 0.7 0
23.1 0.7 0
23.4 0.7 0
23.7 0.7 0
24 0.7 0
24.3 0.7 0
24.6 0.7 0
24.9 0.7 0
25.2 0.7 0
25.5 0.7 0
25.8 0.7 0
26.1 0.7 0
26.4 0.7 0
26.7 0.7 0
27 0.7 0
27.3 0.7 0
27.6 0.7 0
27.9 0.7 0
28.2 0.7 0
28.5 0.7 0
28.8 0.7 0
29.1 0.7 0
29.4 0.7 0
29.7 0.7 0
30 0.7 0
30.3 0.7 0
30.6 0.7 0
0 0.8 0
0.3 0.8 0
0.6 0.8 0
0.9 0.8 0
1.2 0.8 0
1.5 0.8 0
1.8 0.8 0
2.1 0.8 0
2.4 0.8 0
2.7 0.8 0
3 0.8 0
3.3 0.8 0
3.6 0.8 0
3.9 0.8 0
4.2 0.8 0
4.5 0.8 0
4.8 0.8 0
5.1 0.8 0
5.4 0.8 0
5.7 0.8 0
6 0.8 0
6.3 0.8 0
6.6 0.8 0
6.9 0.8 0
7.2 0.8 0
7.5 0.8 0
7.8 0.8 0
8.1 0.8 0
8.4 0.8 0
8.7 0.8 0
9 0.8 0
9.3 0.8 0
9.6 0.8 0
9.9 0.8 0
10.2 0.8 0
10.5 0.8 0
10.8 0.8 0
11.1 0.8 0
11.4 0.8 0
11.7 0.8 0
12 0.8 0
12.3 0.8 0
12.6 0.8 0
12.9 0.8 0
13.2 0.8 0
13.5 0.8 0
13.8 0.8 0
14.1 0.8 0
14.4 0.8 0
14.7 0.8 0
15 0.8 0
15.3 0.8 0
15.6 0.8 0
15.9 0.8 0
16.2 0.8 0
16.5 0.8 0
16.8 0.8 0
17.1 0.8 0
17.4 0.8 0
17.7 0.8 0
18 0.8 0
18.3 0.8 0
18.6 0.8 0
18.9 0.8 0
19.2 0.8 0
19.5 0.8 0
19.8 0.8 0
20.1 0.8 0
20.4 0.8 0
20.7 0.8 0
21 0.8 0
21.3 0.8 0
21.6 0.8 0
21.9 0.8 0
22.2 0.8 0
22.5 0.8 0
22.8 0.8 0
23.1 0.8 0
23.4 0.8 0
23.7 0.8 0
24 0.8 0
24.3 0.8 0
24.6 0.8 0
24.9 0.8 0
25.2 0.8 0
25.5 0.8 0
25.8 0.8 0
26.1 0.8 0
26.4 0.8 0
26.7 0.8 0
27 0.8 0
27.3 0.8 0
27.6 0.8 0
27.9 0.8 0
28.2 0.8 0
28.5 0.8 0
28.8 0.8 0
29.1 0.8 0
29.4 0.8 0
29.7 0.8 0
30 0.8 0
30.3 0.8 0
30.6 0.8 0
0 0.9 0
0.3 0.9 0
0.6 0.9 0
0.9 0.9 0
1.2 0.9 0
1.5 0.9 0
1.8 0.9 0
2.1 0.9 0
2.4 0.9 0
2.7 0.9 0
3 0.9 0
3.3 0.9 0
3.6 0.9 0
3.9 0.9 0
4.2 0.9 0
4.5 0.9 0
4.8 0.9 0
5.1 0.9 0
5.4 0.9 0
5.7 0.9 0
6 0.9 0
6.3 0.9 0
6.6 0.9 0
6.9 0.9 0
7.2 0.9 0
7.5 0.9 0
7.8 0.9 0
8.1 0.9 0
8.4 0.9 0
8.7 0.9 0
9 0.9 0
9.3 0.9 0
9.6 0.9 0
9.9 0.9 0
10.2 0.9 0
10.5 0.9 0
10.8 0.9 0
11.1 0.9 0
11.4 0.9 0
11.7 0.9 0
12 0.9 0
12.3 0.9 0
12.6 0.9 0
12.9 0.9 0
13.2 0.9 0
13.5 0.9 0
13.8 0.9 0
14.1 0.9 0
14.4 0.9 0
14.7 0.9 0
15 0.9 0
15.3 0.9 0
15.6 0.9 0
15.9 0.9 0
16.2 0.9 0
16.5 0.9 0
16.8 0.9 0
17.1 0.9 0
17.4 0.9 0
17.7 0.9 0
18 0.9 0
18.3 0.9 0
18.6 0.9 0
18.9 0.9 0
19.2 0.9 0
19.5 0.9 0
19.8 0.9 0
20.1 0.9 0
20.4 0.9 0
20.7 0.9 0
21 0.9 0
21.3 0.9 0
21.6 0.9 0
21.9 0.9 0
22.2 0.9 0
22.5 0.9 0
22.8 0.9 0
23.1 0.9 0
23.4 0.9 0
23.7 0.9 0
24 0.9 0
24.3 0.9 0
24.6 0.9 0
24.9 0.9 0
25.2 0.9 0
25.5 0.9 0
25.8 0.9 0
26.1 0.9 0
26.4 0.9 0
26.7 0.9 0
27 0.9 0
27.3 0.9 0
27.6 0.9 0
27.9 0.9 0
28.2 0.9 0
28.5 0.9 0
28.8 0.9 0
29.1 0.9 0
29.4 0.9 0
29.7 0.9 0
30 0.9 0
30.3 0.9 0
30.6 0.9 0
0 1 0
0.3 1 0
0.6 1 0
0.9 1 0
1.2 1 0
1.5 1 0
1.8 1 0
2.1 1 0
2.4 1 0
2.7 1 0
3 1 0
3.3 1 0
3.6 1 0
3.9 1 0
4.2 1 0
4.5 1 0
4.8 1 0
5.1 1 0
5.4 1 0
5.7 1 0
6 1 0
6.3 1 0
6.6 1 0
6.9 1 0
7.2 1 0
7.5 1 0
7.8 1 0
8.1 1 0
8.4 1 0
8.7 1 0
9 1 0
9.3 1 0
9.6 1 0
9.9 1 0
10.2 1 0
10.5 1 0
10.8 1 0
11.1 1 0
11.4 1 0
11.7 1 0
12 1 0
12.3 1 0
12.6 1 0
12.9 1 0
13.2 1 0
13.5 1 0
13.8 1 0
14.1 1 0
14.4 1 0
14.7 1 0
15 1 0
15.3 1 0
15.6 1 0
15.9 1 0
16.2 1 0
16.5 1 0
16.8 1 0
17.1 1 0
17.4 1 0
17.7 1 0
18 1 0
18.3 1 0
18.6 1 0
18.9 1 0
19.2 1 0
19.5 1 0
19.8 1 0
20.1 1 0
20.4 1 0
20.7 1 0
21 1 0
21.3 1 0
21.6 1 0
21.9 1 0
22.2 1 0
22.5 1 0
22.8 1 0
23.1 1 0
23.4 1 0
23.7 1 0
24 1 0
24.3 1 0
24.6 1 0
24.9 1 0
25.2 1 0
25.5 1 0
25.8 1 0
26.1 1 0
26.4 1 0
26.7 1 0
27 1 0
27.3 1 0
27.6 1 0
27.9 1 0
28.2 1 0
28.5 1 0
28.8 1 0
29.1 1 0
29.4 1 0
29.7 1 0
30 1 0
30.3 1 0
30.6 1 0
0 1.1 0
0.3 1.1 0
0.6 1.1 0
0.9 1.1 0
1.2 1.1 0
1.5 1.1 0
1.8 1.1 0
2.1 1.1 0
2.4 1.1 0
2.7 1.1 0
3 1.1 0
3.3 1.1 0
3.6 1.1 0
3.9 1.1 0
4.2 1.1 0
4.5 1.1 0
4.8 1.1 0
5.1 1.1 0
5.4 1.1 0
5.7 1.1 0
6 1.1 0
6.3 1.1 0
6.6 1.1 0
6.9 1.1 0
7.2 1.1 0
7.5 1.1 0
7.8 1.1 0
8.1 1.1 0
8.4 1.1 0
8.7 1.1 0
9 1.1 0
9.3 1.1 0
9.6 1.1 0
9.9 1.1 0
10.2 1.1 0
10.5 1.1 0
10.8 1.1 0
11.1 1.1 0
11.4 1.1 0
11.7 1.1 0
12 1.1 0
12.3 1.1 0
12.6 1.1 0
12.9 1.1 0
13.2 1.1 0
13.5 1.1 0
13.8 1.1 0
14.1 1.1 0
14.4 1.1 0
14.7 1.1 0
15 1.1 0
15.3 1.1 0
15.6 1.1 0
15.9 1.1 0
16.2 1.1 0
16.5 1.1 0
16.8 1.1 0
17.1 1.1 0
17.4 1.1 0
17.7 1.1 0
18 1.1 0
18.3 1.1 0
18.6 1.1 0
18.9 1.1 0
19.2 1.1 0
19.5 1.1 0
19.8 1.1 0
20.1 1.1 0
20.4 1.1 0
20.7 1.1 0
21 1.1 0
21.3 1.1 0
21.6 1.1 0
21.9 1.1 0
22.2 1.1 0
22.5 1.1 0
22.8 1.1 0
23.1 1.1 0
23.4 1.1 0
23.7 1.1 0
24 1.1 0
24.3 1.1 0
24.6 1.1 0
24.9 1.1 0
25.2 1.1 0
25.5 1.1 0
25.8 1.1 0
26.1 1.1 0
26.4 1.1 0
26.7 1.1 0
27 1.1 0
27.3 1.1 0
27.6 1.1 0
27.9 1.1 0
28.2 1.1 0
28.5 1.1 0
28.8 1.1 0
29.1 1.1 0
29.4 1.1 0
29.7 1.1 0
30 1.1 0
30.3 1.1 0
30.6 1.1 0
0 1.2 0
0.3 1.2 0
0.6 1.2 0
0.9 1.2 0
1.2 1.2 0
1.5 1.2 0
1.8 1.2 0
2.1 1.2 0
2.4 1.2 0
2.7 1.2 0
3 1.2 0
3.3 1.2 0
3.6 1.2 0
3.9 1.2 0
4.2 1.2 0
4.5 1.2 0
4.8 1.2 0
5.1 1.2 0
5.4 1.2 0
5.7 1.2 0
6 1.2 0
6.3 1.2 0
6.6 1.2 0
6.9 1.2 0
7.2 1.2 0
7.5 1.2 0
7.8 1.2 0
8.1 1.2 0
8.4 1.2 0
8.7 1.2 0
9 1.2 0
9.3 1.2 0
9.6 1.2 0
9.9 1.2 0
10.2 1.2 0
10.5 1.2 0
10.8 1.2 0
11.1 1.2 0
11.4 1.2 0
11.7 1.2 0
12 1.2 0
12.3 1.2 0
12.6 1.2 0
12.9 1.2 0
13.2 1.2 0
13.5 1.2 0
13.8 1.2 0
14.1 1.2 0
14.4 1.2 0
14.7 1.2 0
15 1.2 0
15.3 1.2 0
15.6 1.2 0
15.9 1.2 0
16.2 1.2 0
16.5 1.2 0
16.8 1.2 0
17.1 1.2 0
17.4 1.2 0
17.7 1.2 0
18 1.2 0
18.3 1.2 0
18.6 1.2 0
18.9 1.2 0
19.2 1.2 0
19.5 1.2 0
19.8 1.2 0
20.1 1.2 0
20.4 1.2 0
20.7 1.2 0
21 1.2 0
21.3 1.2 0
21.6 1.2 0
21.9 1.2 0
22.2 1.2 0
22.5 1.2 0
22.8 1.2 0
23.1 1.2 0
23.4 1.2 0
23.7 1.2 0
24 1.2 0
24.3 1.2 0
24.6 1.2 0
24.9 1.2 0
25.2 1.2 0
25.5 1.2 0
25.8 1.2 0
26.1 1.2 0
26.4 1.2 0
26.7 1.2 0
27 1.2 0
27.3 1.2 0
27.6 1.2 0
27.9 1.2 0
28.2 1.2 0
28.5 1.2 0
28.8 1.2 0
29.1 1.2 0
29.4 1.2 0
29.7 1.2 0
30 1.2 0
30.3 1.2 0
30.6 1.2 0

POINT_DATA 1339

SCALARS pressure double
LOOKUP_TABLE pressure
1.17126
1.17126
1.10641
1.06218
1.02235
0.98578
0.952727
0.9232
0.896844
0.873135
0.851532
0.831569
0.812876
0.795177
0.77827
0.762011
0.746292
0.731036
0.716184
0.701689
0.687515
0.67363
0.660009
0.64663
0.633475
0.620524
0.607765
0.595182
0.582765
0.570501
0.55838
0.546393
0.534532
0.522789
0.511156
0.499627
0.488195
0.476856
0.465602
0.45443
0.443335
0.432312
0.421357
0.410467
0.399637
0.388865
0.378147
0.367481
0.356864
0.346295
0.335771
0.325291
0.314853
0.304458
0.294102
0.283787
0.273509
0.263269
0.253065
0.242895
0.232757
0.22265
0.212572
0.20252
0.192492
0.182485
0.172497
0.162526
0.15257
0.142626
0.132692
0.122767
0.11285
0.102938
0.0930308
0.0831276
0.0732273
0.0633293
0.0534332
0.0435383
0.0336445
0.0237514
0.0138589
0.00396676
-0.00592507
-0.0158167
-0.0257082
-0.0355995
-0.0454908
-0.0553821
-0.0652733
-0.0751645
-0.0850557
-0.0949468
-0.104838
-0.114729
-0.12462
-0.134511
-0.144402
-0.154294
-0.164185
-0.174073
0.174073
1.17126
1.17126
1.10641
1.06218
1.02235
0.98578
0.952727
0.9232
0.896844
0.873135
0.851532
0.831569
0.812876
0.795177
0.77827
0.762011
0.746292
0.731036
0.716184
0.701689
0.687515
0.67363
0.660009
0.64663
0.633475
0.620524
0.607765
0.595182
0.582765
0.570501
0.55838
0.546393
0.534532
0.522789
0.511156
0.499627
0.488195
0.476856
0.465602
0.45443
0.443335
0.432312
0.421357
0.410467
0.399637
0.388865
0.378147
0.367481
0.356864
0.346295
0.335771
0.325291
0.314853
0.304458
0.294102
0.283787
0.273509
0.263269
0.253065
0.242895
0.232757
0.22265
0.212572
0.20252
0.192492
0.182485
0.172497
0.162526
0.15257
0.142626
0.132692
0.122767
0.11285
0.102938
0.0930308
0.0831276
0.0732273
0.0633293
0.0534332
0.0435383
0.0336445
0.0237514
0.0138589
0.00396676
-0.00592507
-0.0158167
-0.0257082
-0.0355995
-0.0454908
-0.0553821
-0.0652733
-0.0751645
-0.0850557
-0.0949468
-0.104838
-0.114729
-0.12462
-0.134511
-0.144402
-0.154294
-0.164185
-0.174073
0.174073
1.15031
1.15031
1.10442
1.06241
1.02306
0.986576
0.95347
0.923831
0.897351
0.87353
0.851836
0.831803
0.813058
0.795322
0.778388
0.762108
0.746375
0.731107
0.716246
0.701744
0.687564
0.673674
0.660049
0.646667
0.633508
0.620555
0.607793
0.595209
0.582789
0.570523
0.558401
0.546412
0.53455
0.522805
0.511171
0.499641
0.488209
0.476868
0.465614
0.454442
0.443346
0.432322
0.421367
0.410476
0.399645
0.388873
0.378154
0.367488
0.356871
0.346301
0.335776
0.325296
0.314858
0.304462
0.294106
0.28379
0.273512
0.263271
0.253067
0.242896
0.232759
0.222651
0.212573
0.202521
0.192492
0.182485
0.172497
0.162526
0.15257
0.142626
0.132692
0.122767
0.112849
0.102938
0.0930307
0.0831275
0.0732273
0.0633293
0.0534331
0.0435383
0.0336445
0.0237514
0.0138589
0.00396675
-0.00592508
-0.0158167
-0.0257082
-0.0355995
-0.0454908
-0.0553821
-0.0652733
-0.0751645
-0.0850557
-0.0949468
-0.104838
-0.114729
-0.12462
-0.134511
-0.144402
-0.154294
-0.164185
-0.174073
0.174073
1.13534
1.13534
1.10154
1.06264
1.02417
0.9879
0.954732
0.924909
0.898213
0.874189
0.852328
0.832168
0.81333
0.795527
0.778546
0.762233
0.746476
0.731191
0.716317
0.701805
0.687617
0.673721
0.660091
0.646704
0.633541
0.620585
0.60782
0.595233
0.582811
0.570544
0.558419
0.54643
0.534566
0.52282
0.511185
0.499654
0.488221
0.476879
0.465624
0.454451
0.443354
0.43233
0.421374
0.410483
0.399652
0.388879
0.37816
0.367493
0.356876
0.346306
0.335781
0.3253
0.314862
0.304465
0.294109
0.283792
0.273514
0.263273
0.253068
0.242898
0.23276
0.222652
0.212573
0.202521
0.192492
0.182485
0.172498
0.162526
0.15257
0.142626
0.132692
0.122767
0.112849
0.102938
0.0930307
0.0831275
0.0732272
0.0633293
0.0534331
0.0435383
0.0336444
0.0237514
0.0138589
0.00396674
-0.00592509
-0.0158167
-0.0257082
-0.0355995
-0.0454908
-0.0553821
-0.0652733
-0.0751645
-0.0850557
-0.0949468
-0.104838
-0.114729
-0.12462
-0.134511
-0.144402
-0.154293
-0.164184
-0.174072
0.174072
1.12577
1.12577
1.09906
1.06275
1.02512
0.989095
0.955908
0.925946
0.899066
0.874861
0.852846
0.832562
0.813632
0.795761
0.778731
0.762383
0.746599
0.731295
0.716405
0.701881
0.687683
0.673779
0.660143
0.64675
0.633583
0.620622
0.607854
0.595264
0.582839
0.570569
0.558442
0.546451
0.534585
0.522838
0.511202
0.499669
0.488235
0.476892
0.465636
0.454462
0.443365
0.43234
0.421383
0.410491
0.39966
0.388886
0.378167
0.3675
0.356882
0.346311
0.335786
0.325305
0.314867
0.30447
0.294113
0.283796
0.273518
0.263277
0.253071
0.2429
0.232762
0.222655
0.212575
0.202523
0.192494
0.182487
0.172499
0.162527
0.15257
0.142626
0.132692
0.122767
0.11285
0.102938
0.0930308
0.0831276
0.0732273
0.0633293
0.0534331
0.0435383
0.0336445
0.0237514
0.0138589
0.00396674
-0.00592508
-0.0158167
-0.0257082
-0.0355995
-0.0454908
-0.0553821
-0.0652733
-0.0751645
-0.0850557
-0.0949468
-0.104838
-0.114729
-0.12462
-0.134511
-0.144402
-0.154293
-0.164182
-0.17407
0.17407
1.12045
1.12045
1.09743
1.06276
1.02571
0.989862
0.956678
0.926635
0.899643
0.875325
0.85321
0.832847
0.813855
0.795938
0.778874
0.7625
0.746698
0.731379
0.716479
0.701946
0.68774
0.67383
0.660188
0.646791
0.63362
0.620656
0.607885
0.595292
0.582865
0.570592
0.558464
0.546471
0.534604
0.522855
0.511217
0.499684
0.488248
0.476905
0.465648
0.454473
0.443375
0.432349
0.421392
0.4105
0.399668
0.388894
0.378174
0.367506
0.356888
0.346317
0.335792
0.32531
0.314872
0.304474
0.294118
0.283801
0.273522
0.263281
0.253075
0.242904
0.232765
0.222657
0.212578
0.202525
0.192496
0.182489
0.1725
0.162529
0.152572
0.142627
0.132693
0.122768
0.11285
0.102938
0.0930312
0.0831278
0.0732275
0.0633295
0.0534332
0.0435384
0.0336445
0.0237514
0.0138589
0.00396677
-0.00592507
-0.0158167
-0.0257082
-0.0355995
-0.0454908
-0.0553821
-0.0652733
-0.0751645
-0.0850557
-0.0949468
-0.104838
-0.114729
-0.12462
-0.134511
-0.144402
-0.154292
-0.164179
-0.174069
0.174069
1.11875
1.11875
1.09688
1.06278
1.02593
0.990136
0.956951
0.926881
0.89985
0.875493
0.853343
0.832951
0.813938
0.796005
0.778929
0.762546
0.746737
0.731413
0.716508
0.701972
0.687763
0.673851
0.660207
0.646808
0.633635
0.62067
0.607897
0.595303
0.582875
0.570602
0.558473
0.546479
0.534611
0.522862
0.511224
0.49969
0.488254
0.47691
0.465653
0.454478
0.443379
0.432353
0.421396
0.410503
0.399671
0.388897
0.378177
0.367509
0.356891
0.34632
0.335794
0.325313
0.314874
0.304477
0.29412
0.283803
0.273524
0.263282
0.253077
0.242906
0.232767
0.222659
0.212579
0.202526
0.192497
0.182489
0.172501
0.162529
0.152572
0.142628
0.132694
0.122768
0.11285
0.102939
0.0930313
0.083128
0.0732276
0.0633296
0.0534333
0.0435384
0.0336446
0.0237515
0.0138589
0.00396678
-0.00592506
-0.0158167
-0.0257082
-0.0355995
-0.0454908
-0.0553821
-0.0652733
-0.0751645
-0.0850557
-0.0949468
-0.104838
-0.114729
-0.12462
-0.134511
-0.144402
-0.154292
-0.164178
-0.174069
0.174069
1.12045
1.12045
1.09743
1.06276
1.02571
0.989862
0.956678
0.926635
0.899643
0.875325
0.85321
0.832847
0.813855
0.795938
0.778874
0.7625
0.746698
0.731379
0.716479
0.701946
0.68774
0.67383
0.660188
0.646791
0.63362
0.620656
0.607885
0.595292
0.582865
0.570592
0.558464
0.546471
0.534604
0.522855
0.511217
0.499684
0.488248
0.476905
0.465648
0.454473
0.443375
0.432349
0.421392
0.4105
0.399668
0.388894
0.378174
0.367506
0.356888
0.346317
0.335792
0.32531
0.314872
0.304474
0.294118
0.283801
0.273522
0.263281
0.253075
0.242904
0.232765
0.222657
0.212578
0.202525
0.192496
0.182489
0.1725
0.162529
0.152572
0.142627
0.132693
0.122768
0.11285
0.102938
0.0930312
0.0831278
0.0732275
0.0633295
0.0534332
0.0435384
0.0336445
0.0237514
0.0138589
0.00396677
-0.00592507
-0.0158167
-0.0257082
-0.0355995
-0.0454908
-0.0553821
-0.0652733
-0.0751645
-0.0850557
-0.0949468
-0.104838
-0.114729
-0.12462
-0.134511
-0.144402
-0.154292
-0.164179
-0.174069
0.174069
1.12577
1.12577
1.09906
1.06275
1.02512
0.989095
0.955908
0.925946
0.899066
0.874861
0.852846
0.832562
0.813632
0.795761
0.778731
0.762383
0.746599
0.731295
0.716405
0.701881
0.687683
0.673779
0.660143
0.64675
0.633583
0.620622
0.607854
0.595264
0.582839
0.570569
0.558442
0.546451
0.534585
0.522838
0.511202
0.499669
0.488235
0.476892
0.465636
0.454462
0.443365
0.43234
0.421383
0.410491
0.39966
0.388886
0.378167
0.3675
0.356882
0.346311
0.335786
0.325305
0.314867
0.30447
0.294113
0.283796
0.273518
0.263277
0.253071
0.2429
0.232762
0.222655
0.212575
0.202523
0.192494
0.182487
0.172499
0.162527
0.15257
0.142626
0.132692
0.122767
0.11285
0.102938
0.0930308
0.0831276
0.0732273
0.0633293
0.0534331
0.0435383
0.0336445
0.0237514
0.0138589
0.00396675
-0.00592508
-0.0158167
-0.0257082
-0.0355995
-0.0454908
-0.0553821
-0.0652733
-0.0751645
-0.0850557
-0.0949468
-0.104838
-0.114729
-0.12462
-0.134511
-0.144402
-0.154293
-0.164182
-0.17407
0.17407
1.13534
1.13534
1.10154
1.06264
1.02417
0.9879
0.954732
0.924909
0.898213
0.874189
0.852328
0.832168
0.81333
0.795527
0.778546
0.762233
0.746476
0.731191
0.716317
0.701805
0.687617
0.673721
0.660091
0.646704
0.633541
0.620585
0.60782
0.595233
0.582811
0.570544
0.558419
0.54643
0.534566
0.52282
0.511185
0.499654
0.488221
0.476879
0.465624
0.454451
0.443354
0.43233
0.421374
0.410483
0.399652
0.388879
0.37816
0.367493
0.356876
0.346306
0.335781
0.3253
0.314862
0.304465
0.294109
0.283792
0.273514
0.263273
0.253068
0.242898
0.23276
0.222652
0.212573
0.202521
0.192492
0.182485
0.172498
0.162526
0.15257
0.142626
0.132692
0.122767
0.112849
0.102938
0.0930307
0.0831274
0.0732272
0.0633293
0.0534331
0.0435383
0.0336444
0.0237514
0.0138589
0.00396674
-0.00592509
-0.0158167
-0.0257082
-0.0355995
-0.0454908
-0.0553821
-0.0652733
-0.0751645
-0.0850557
-0.0949468
-0.104838
-0.114729
-0.12462
-0.134511
-0.144402
-0.154293
-0.164184
-0.174072
0.174072
1.15031
1.15031
1.10442
1.06241
1.02306
0.986576
0.95347
0.923831
0.897351
0.87353
0.851836
0.831803
0.813058
0.795322
0.778388
0.762108
0.746375
0.731107
0.716246
0.701744
0.687564
0.673674
0.660049
0.646667
0.633508
0.620555
0.607793
0.595209
0.582789
0.570523
0.558401
0.546412
0.53455
0.522805
0.511171
0.499641
0.488209
0.476868
0.465614
0.454442
0.443346
0.432322
0.421367
0.410476
0.399645
0.388873
0.378154
0.367488
0.356871
0.346301
0.335776
0.325296
0.314858
0.304462
0.294106
0.28379
0.273512
0.263271
0.253067
0.242896
0.232759
0.222651
0.212573
0.202521
0.192492
0.182485
0.172497
0.162526
0.15257
0.142626
0.132692
0.122767
0.112849
0.102938
0.0930307
0.0831275
0.0732272
0.0633293
0.0534331
0.0435383
0.0336445
0.0237514
0.0138589
0.00396675
-0.00592508
-0.0158167
-0.0257082
-0.0355995
-0.0454908
-0.0553821
-0.0652733
-0.0751645
-0.0850557
-0.0949468
-0.104838
-0.114729
-0.12462
-0.134511
-0.144402
-0.154294
-0.164185
-0.174073
0.174073
1.17126
1.17126
1.10641
1.06218
1.02235
0.98578
0.952728
0.9232
0.896844
0.873135
0.851532
0.831569
0.812876
0.795177
0.77827
0.762011
0.746292
0.731036
0.716184
0.701689
0.687515
0.67363
0.660009
0.64663
0.633475
0.620524
0.607765
0.595183
0.582765
0.570501
0.55838
0.546393
0.534532
0.522789
0.511156
0.499627
0.488195
0.476856
0.465602
0.45443
0.443335
0.432312
0.421357
0.410467
0.399637
0.388865
0.378147
0.367481
0.356864
0.346295
0.335771
0.325291
0.314853
0.304458
0.294102
0.283787
0.273509
0.263269
0.253065
0.242895
0.232757
0.22265
0.212572
0.20252
0.192492
0.182485
0.172497
0.162526
0.15257
0.142626
0.132692
0.122767
0.11285
0.102938
0.0930308
0.0831276
0.0732273
0.0633293
0.0534332
0.0435383
0.0336445
0.0237514
0.0138589
0.00396676
-0.00592507
-0.0158167
-0.0257082
-0.0355995
-0.0454908
-0.0553821
-0.0652733
-0.0751645
-0.0850557
-0.0949468
-0.104838
-0.114729
-0.12462
-0.134511
-0.144402
-0.154294
-0.164185
-0.174073
0.174073
1.17126
1.17126
1.10641
1.06218
1.02235
0.98578
0.952728
0.9232
0.896844
0.873135
0.851532
0.831569
0.812876
0.795177
0.77827
0.762011
0.746292
0.731036
0.716184
0.701689
0.687515
0.67363
0.660009
0.64663
0.633475
0.620524
0.607765
0.595183
0.582765
0.570501
0.55838
0.546393
0.534532
0.522789
0.511156
0.499627
0.488195
0.476856
0.465602
0.45443
0.443335
0.432312
0.421357
0.410467
0.399637
0.388865
0.378147
0.367481
0.356864
0.346295
0.335771
0.325291
0.314853
0.304458
0.294102
0.283787
0.273509
0.263269
0.253065
0.242895
0.232757
0.22265
0.212572
0.20252
0.192492
0.182485
0.172497
0.162526
0.15257
0.142626
0.132692
0.122767
0.11285
0.102938
0.0930308
0.0831276
0.0732273
0.0633293
0.0534332
0.0435383
0.0336445
0.0237514
0.0138589
0.00396676
-0.00592507
-0.0158167
-0.0257082
-0.0355995
-0.0454908
-0.0553821
-0.0652733
-0.0751645
-0.0850557
-0.0949468
-0.104838
-0.114729
-0.12462
-0.134511
-0.144402
-0.154294
-0.164185
-0.174073
0.174073
SCALARS phi double
LOOKUP_TABLE phi
1
1
1
1
0.999998
0.999994
0.999982
0.999957
0.99991
0.99983
0.999705
0.999525
0.999277
0.998951
0.998535
0.998019
0.997404
0.996694
0.995883
0.994912
0.993624
0.991745
0.988906
0.984687
0.978688
0.970583
0.96015
0.947285
0.93199
0.914352
0.894525
0.872711
0.849141
0.824059
0.797718
0.770366
0.742241
0.713569
0.684555
0.655387
0.626232
0.597237
0.568529
0.540218
0.512396
0.48514
0.458511
0.43256
0.407326
0.382839
0.359121
0.336186
0.314045
0.292702
0.27216
0.252419
0.233476
0.215329
0.197976
0.181414
0.165641
0.150656
0.136459
0.123049
0.110426
0.0985916
0.087544
0.0772811
0.0677983
0.0590883
0.0511396
0.0439365
0.0374581
0.0316786
0.0265667
0.022086
0.0181959
0.0148519
0.0120068
0.0096117
0.00761745
0.00597541
0.00463873
0.00356317
0.00270784
0.00203567
0.00151375
0.00111334
0.00080984
0.000582578
0.000414456
0.000291584
0.000202866
0.000139577
9.49704e-05
6.39056e-05
4.25287e-05
2.79913e-05
1.82244e-05
1.17232e-05
7.52652e-06
4.43276e-06
4.43276e-06
1
1
1
1
0.999998
0.999994
0.999982
0.999957
0.99991
0.99983
0.999705
0.999525
0.999277
0.998951
0.998535
0.998019
0.997404
0.996694
0.995883
0.994912
0.993624
0.991745
0.988906
0.984687
0.978688
0.970583
0.96015
0.947285
0.93199
0.914352
0.894525
0.872711
0.849141
0.824059
0.797718
0.770366
0.742241
0.713569
0.684555
0.655387
0.626232
0.597237
0.568529
0.540218
0.512396
0.48514
0.458511
0.43256
0.407326
0.382839
0.359121
0.336186
0.314045
0.292702
0.27216
0.252419
0.233476
0.215329
0.197976
0.181414
0.165641
0.150656
0.136459
0.123049
0.110426
0.0985916
0.087544
0.0772811
0.0677983
0.0590883
0.0511396
0.0439365
0.0374581
0.0316786
0.0265667
0.022086
0.0181959
0.0148519
0.0120068
0.0096117
0.00761745
0.00597541
0.00463873
0.00356317
0.00270784
0.00203567
0.00151375
0.00111334
0.00080984
0.000582578
0.000414456
0.000291584
0.000202866
0.000139577
9.49704e-05
6.39056e-05
4.25287e-05
2.79913e-05
1.82244e-05
1.17232e-05
7.52652e-06
4.43276e-06
4.43276e-06
1
1
1
0.999996
0.999983
0.999954
0.999898
0.999804
0.999658
0.999446
0.999157
0.998777
0.998299
0.997713
0.997014
0.996195
0.995254
0.994192
0.993011
0.991708
0.990258
0.988596
0.986605
0.984114
0.980912
0.976767
0.971448
0.964751
0.956512
0.946617
0.935005
0.921665
0.906632
0.889981
0.871817
0.852269
0.831482
0.809614
0.786824
0.763271
0.739111
0.714493
0.689557
0.664432
0.639236
0.614077
0.589049
0.564237
0.539713
0.515538
0.491765
0.468435
0.445581
0.423226
0.401387
0.380072
0.359285
0.339024
0.319283
0.300053
0.281326
0.263091
0.245339
0.228066
0.211269
0.194953
0.179128
0.163811
0.149029
0.134813
0.121203
0.108241
0.0959736
0.0844456
0.0736985
0.0637671
0.0546768
0.0464409
0.0390597
0.0325192
0.0267917
0.0218371
0.0176044
0.0140343
0.0110618
0.00861927
0.00663852
0.00505347
0.00380186
0.00282664
0.00207683
0.00150794
0.00108197
0.000767199
0.000537615
0.000372324
0.000254848
0.000172409
0.000115312
7.61381e-05
5.02004e-05
3.02349e-05
3.02349e-05
0.999997
1
0.99998
0.999896
0.999724
0.999434
0.998999
0.998397
0.997613
0.996636
0.995464
0.994099
0.992546
0.990816
0.988916
0.986859
0.984655
0.982316
0.979854
0.97728
0.974603
0.971824
0.968933
0.965902
0.962681
0.959201
0.955374
0.9511
0.946273
0.940785
0.934537
0.927443
0.91943
0.910445
0.900455
0.889446
0.877422
0.864406
0.850435
0.835558
0.819836
0.803336
0.786134
0.768305
0.749931
0.73109
0.711862
0.692323
0.672546
0.652602
0.632553
0.612457
0.592367
0.572327
0.552373
0.532533
0.512827
0.493266
0.473853
0.454582
0.43544
0.416408
0.397458
0.378562
0.359686
0.3408
0.321876
0.302897
0.283856
0.264766
0.24566
0.226595
0.207655
0.188947
0.170598
0.152752
0.13556
0.119174
0.103733
0.0893623
0.076158
0.0641874
0.0534843
0.0440486
0.0358488
0.0288255
0.022897
0.0179652
0.013922
0.0106554
0.0080542
0.0060125
0.00443274
0.00322765
0.00232121
0.00164884
0.00115693
0.000801885
0.000549206
0.000371082
0.000250428
0.00015416
0.00015416
0.999999