# vtk DataFile Version 3.0
FlowField
ASCII
DATASET STRUCTURED_GRID
DIMENSIONS 103 13 1 
POINTS 1339 double
0 0 0
0.3 0 0
0.6 0 0
0.9 0 0
1.2 0 0
1.5 0 0
1.8 0 0
2.1 0 0
2.4 0 0
2.7 0 0
3 0 0
3.3 0 0
3.6 0 0
3.9 0 0
4.2 0 0
4.5 0 0
4.8 0 0
5.1 0 0
5.4 0 0
5.7 0 0
6 0 0
6.3 0 0
6.6 0 0
6.9 0 0
7.2 0 0
7.5 0 0
7.8 0 0
8.1 0 0
8.4 0 0
8.7 0 0
9 0 0
9.3 0 0
9.6 0 0
9.9 0 0
10.2 0 0
10.5 0 0
10.8 0 0
11.1 0 0
11.4 0 0
11.7 0 0
12 0 0
12.3 0 0
12.6 0 0
12.9 0 0
13.2 0 0
13.5 0 0
13.8 0 0
14.1 0 0
14.4 0 0
14.7 0 0
15 0 0
15.3 0 0
15.6 0 0
15.9 0 0
16.2 0 0
16.5 0 0
16.8 0 0
17.1 0 0
17.4 0 0
17.7 0 0
18 0 0
18.3 0 0
18.6 0 0
18.9 0 0
19.2 0 0
19.5 0 0
19.8 0 0
20.1 0 0
20.4 0 0
20.7 0 0
21 0 0
21.3 0 0
21.6 0 0
21.9 0 0
22.2 0 0
22.5 0 0
22.8 0 0
23.1 0 0
23.4 0 0
23.7 0 0
24 0 0
24.3 0 0
24.6 0 0
24.9 0 0
25.2 0 0
25.5 0 0
25.8 0 0
26.1 0 0
26.4 0 0
26.7 0 0
27 0 0
27.3 0 0
27.6 0 0
27.9 0 0
28.2 0 0
28.5 0 0
28.8 0 0
29.1 0 0
29.4 0 0
29.7 0 0
30 0 0
30.3 0 0
30.6 0 0
0 0.1 0
0.3 0.1 0
0.6 0.1 0
0.9 0.1 0
1.2 0.1 0
1.5 0.1 0
1.8 0.1 0
2.1 0.1 0
2.4 0.1 0
2.7 0.1 0
3 0.1 0
3.3 0.1 0
3.6 0.1 0
3.9 0.1 0
4.2 0.1 0
4.5 0.1 0
4.8 0.1 0
5.1 0.1 0
5.4 0.1 0
5.7 0.1 0
6 0.1 0
6.3 0.1 0
6.6 0.1 0
6.9 0.1 0
7.2 0.1 0
7.5 0.1 0
7.8 0.1 0
8.1 0.1 0
8.4 0.1 0
8.7 0.1 0
9 0.1 0
9.3 0.1 0
9.6 0.1 0
9.9 0.1 0
10.2 0.1 0
10.5 0.1 0
10.8 0.1 0
11.1 0.1 0
11.4 0.1 0
11.7 0.1 0
12 0.1 0
12.3 0.1 0
12.6 0.1 0
12.9 0.1 0
13.2 0.1 0
13.5 0.1 0
13.8 0.1 0
14.1 0.1 0
14.4 0.1 0
14.7 0.1 0
15 0.1 0
15.3 0.1 0
15.6 0.1 0
15.9 0.1 0
16.2 0.1 0
16.5 0.1 0
16.8 0.1 0
17.1 0.1 0
17.4 0.1 0
17.7 0.1 0
18 0.1 0
18.3 0.1 0
18.6 0.1 0
18.9 0.1 0
19.2 0.1 0
19.5 0.1 0
19.8 0.1 0
20.1 0.1 0
20.4 0.1 0
20.7 0.1 0
21 0.1 0
21.3 0.1 0
21.6 0.1 0
21.9 0.1 0
22.2 0.1 0
22.5 0.1 0
22.8 0.1 0
23.1 0.1 0
23.4 0.1 0
23.7 0.1 0
24 0.1 0
24.3 0.1 0
24.6 0.1 0
24.9 0.1 0
25.2 0.1 0
25.5 0.1 0
25.8 0.1 0
26.1 0.1 0
26.4 0.1 0
26.7 0.1 0
27 0.1 0
27.3 0.1 0
27.6 0.1 0
27.9 0.1 0
28.2 0.1 0
28.5 0.1 0
28.8 0.1 0
29.1 0.1 0
29.4 0.1 0
29.7 0.1 0
30 0.1 0
30.3 0.1 0
30.6 0.1 0
0 0.2 0
0.3 0.2 0
0.6 0.2 0
0.9 0.2 0
1.2 0.2 0
1.5 0.2 0
1.8 0.2 0
2.1 0.2 0
2.4 0.2 0
2.7 0.2 0
3 0.2 0
3.3 0.2 0
3.6 0.2 0
3.9 0.2 0
4.2 0.2 0
4.5 0.2 0
4.8 0.2 0
5.1 0.2 0
5.4 0.2 0
5.7 0.2 0
6 0.2 0
6.3 0.2 0
6.6 0.2 0
6.9 0.2 0
7.2 0.2 0
7.5 0.2 0
7.8 0.2 0
8.1 0.2 0
8.4 0.2 0
8.7 0.2 0
9 0.2 0
9.3 0.2 0
9.6 0.2 0
9.9 0.2 0
10.2 0.2 0
10.5 0.2 0
10.8 0.2 0
11.1 0.2 0
11.4 0.2 0
11.7 0.2 0
12 0.2 0
12.3 0.2 0
12.6 0.2 0
12.9 0.2 0
13.2 0.2 0
13.5 0.2 0
13.8 0.2 0
14.1 0.2 0
14.4 0.2 0
14.7 0.2 0
15 0.2 0
15.3 0.2 0
15.6 0.2 0
15.9 0.2 0
16.2 0.2 0
16.5 0.2 0
16.8 0.2 0
17.1 0.2 0
17.4 0.2 0
17.7 0.2 0
18 0.2 0
18.3 0.2 0
18.6 0.2 0
18.9 0.2 0
19.2 0.2 0
19.5 0.2 0
19.8 0.2 0
20.1 0.2 0
20.4 0.2 0
20.7 0.2 0
21 0.2 0
21.3 0.2 0
21.6 0.2 0
21.9 0.2 0
22.2 0.2 0
22.5 0.2 0
22.8 0.2 0
23.1 0.2 0
23.4 0.2 0
23.7 0.2 0
24 0.2 0
24.3 0.2 0
24.6 0.2 0
24.9 0.2 0
25.2 0.2 0
25.5 0.2 0
25.8 0.2 0
26.1 0.2 0
26.4 0.2 0
26.7 0.2 0
27 0.2 0
27.3 0.2 0
27.6 0.2 0
27.9 0.2 0
28.2 0.2 0
28.5 0.2 0
28.8 0.2 0
29.1 0.2 0
29.4 0.2 0
29.7 0.2 0
30 0.2 0
30.3 0.2 0
30.6 0.2 0
0 0.3 0
0.3 0.3 0
0.6 0.3 0
0.9 0.3 0
1.2 0.3 0
1.5 0.3 0
1.8 0.3 0
2.1 0.3 0
2.4 0.3 0
2.7 0.3 0
3 0.3 0
3.3 0.3 0
3.6 0.3 0
3.9 0.3 0
4.2 0.3 0
4.5 0.3 0
4.8 0.3 0
5.1 0.3 0
5.4 0.3 0
5.7 0.3 0
6 0.3 0
6.3 0.3 0
6.6 0.3 0
6.9 0.3 0
7.2 0.3 0
7.5 0.3 0
7.8 0.3 0
8.1 0.3 0
8.4 0.3 0
8.7 0.3 0
9 0.3 0
9.3 0.3 0
9.6 0.3 0
9.9 0.3 0
10.2 0.3 0
10.5 0.3 0
10.8 0.3 0
11.1 0.3 0
11.4 0.3 0
11.7 0.3 0
12 0.3 0
12.3 0.3 0
12.6 0.3 0
12.9 0.3 0
13.2 0.3 0
13.5 0.3 0
13.8 0.3 0
14.1 0.3 0
14.4 0.3 0
14.7 0.3 0
15 0.3 0
15.3 0.3 0
15.6 0.3 0
15.9 0.3 0
16.2 0.3 0
16.5 0.3 0
16.8 0.3 0
17.1 0.3 0
17.4 0.3 0
17.7 0.3 0
18 0.3 0
18.3 0.3 0
18.6 0.3 0
18.9 0.3 0
19.2 0.3 0
19.5 0.3 0
19.8 0.3 0
20.1 0.3 0
20.4 0.3 0
20.7 0.3 0
21 0.3 0
21.3 0.3 0
21.6 0.3 0
21.9 0.3 0
22.2 0.3 0
22.5 0.3 0
22.8 0.3 0
23.1 0.3 0
23.4 0.3 0
23.7 0.3 0
24 0.3 0
24.3 0.3 0
24.6 0.3 0
24.9 0.3 0
25.2 0.3 0
25.5 0.3 0
25.8 0.3 0
26.1 0.3 0
26.4 0.3 0
26.7 0.3 0
27 0.3 0
27.3 0.3 0
27.6 0.3 0
27.9 0.3 0
28.2 0.3 0
28.5 0.3 0
28.8 0.3 0
29.1 0.3 0
29.4 0.3 0
29.7 0.3 0
30 0.3 0
30.3 0.3 0
30.6 0.3 0
0 0.4 0
0.3 0.4 0
0.6 0.4 0
0.9 0.4 0
1.2 0.4 0
1.5 0.4 0
1.8 0.4 0
2.1 0.4 0
2.4 0.4 0
2.7 0.4 0
3 0.4 0
3.3 0.4 0
3.6 0.4 0
3.9 0.4 0
4.2 0.4 0
4.5 0.4 0
4.8 0.4 0
5.1 0.4 0
5.4 0.4 0
5.7 0.4 0
6 0.4 0
6.3 0.4 0
6.6 0.4 0
6.9 0.4 0
7.2 0.4 0
7.5 0.4 0
7.8 0.4 0
8.1 0.4 0
8.4 0.4 0
8.7 0.4 0
9 0.4 0
9.3 0.4 0
9.6 0.4 0
9.9 0.4 0
10.2 0.4 0
10.5 0.4 0
10.8 0.4 0
11.1 0.4 0
11.4 0.4 0
11.7 0.4 0
12 0.4 0
12.3 0.4 0
12.6 0.4 0
12.9 0.4 0
13.2 0.4 0
13.5 0.4 0
13.8 0.4 0
14.1 0.4 0
14.4 0.4 0
14.7 0.4 0
15 0.4 0
15.3 0.4 0
15.6 0.4 0
15.9 0.4 0
16.2 0.4 0
16.5 0.4 0
16.8 0.4 0
17.1 0.4 0
17.4 0.4 0
17.7 0.4 0
18 0.4 0
18.3 0.4 0
18.6 0.4 0
18.9 0.4 0
19.2 0.4 0
19.5 0.4 0
19.8 0.4 0
20.1 0.4 0
20.4 0.4 0
20.7 0.4 0
21 0.4 0
21.3 0.4 0
21.6 0.4 0
21.9 0.4 0
22.2 0.4 0
22.5 0.4 0
22.8 0.4 0
23.1 0.4 0
23.4 0.4 0
23.7 0.4 0
24 0.4 0
24.3 0.4 0
24.6 0.4 0
24.9 0.4 0
25.2 0.4 0
25.5 0.4 0
25.8 0.4 0
26.1 0.4 0
26.4 0.4 0
26.7 0.4 0
27 0.4 0
27.3 0.4 0
27.6 0.4 0
27.9 0.4 0
28.2 0.4 0
28.5 0.4 0
28.8 0.4 0
29.1 0.4 0
29.4 0.4 0
29.7 0.4 0
30 0.4 0
30.3 0.4 0
30.6 0.4 0
0 0.5 0
0.3 0.5 0
0.6 0.5 0
0.9 0.5 0
1.2 0.5 0
1.5 0.5 0
1.8 0.5 0
2.1 0.5 0
2.4 0.5 0
2.7 0.5 0
3 0.5 0
3.3 0.5 0
3.6 0.5 0
3.9 0.5 0
4.2 0.5 0
4.5 0.5 0
4.8 0.5 0
5.1 0.5 0
5.4 0.5 0
5.7 0.5 0
6 0.5 0
6.3 0.5 0
6.6 0.5 0
6.9 0.5 0
7.2 0.5 0
7.5 0.5 0
7.8 0.5 0
8.1 0.5 0
8.4 0.5 0
8.7 0.5 0
9 0.5 0
9.3 0.5 0
9.6 0.5 0
9.9 0.5 0
10.2 0.5 0
10.5 0.5 0
10.8 0.5 0
11.1 0.5 0
11.4 0.5 0
11.7 0.5 0
12 0.5 0
12.3 0.5 0
12.6 0.5 0
12.9 0.5 0
13.2 0.5 0
13.5 0.5 0
13.8 0.5 0
14.1 0.5 0
14.4 0.5 0
14.7 0.5 0
15 0.5 0
15.3 0.5 0
15.6 0.5 0
15.9 0.5 0
16.2 0.5 0
16.5 0.5 0
16.8 0.5 0
17.1 0.5 0
17.4 0.5 0
17.7 0.5 0
18 0.5 0
18.3 0.5 0
18.6 0.5 0
18.9 0.5 0
19.2 0.5 0
19.5 0.5 0
19.8 0.5 0
20.1 0.5 0
20.4 0.5 0
20.7 0.5 0
21 0.5 0
21.3 0.5 0
21.6 0.5 0
21.9 0.5 0
22.2 0.5 0
22.5 0.5 0
22.8 0.5 0
23.1 0.5 0
23.4 0.5 0
23.7 0.5 0
24 0.5 0
24.3 0.5 0
24.6 0.5 0
24.9 0.5 0
25.2 0.5 0
25.5 0.5 0
25.8 0.5 0
26.1 0.5 0
26.4 0.5 0
26.7 0.5 0
27 0.5 0
27.3 0.5 0
27.6 0.5 0
27.9 0.5 0
28.2 0.5 0
28.5 0.5 0
28.8 0.5 0
29.1 0.5 0
29.4 0.5 0
29.7 0.5 0
30 0.5 0
30.3 0.5 0
30.6 0.5 0
0 0.6 0
0.3 0.6 0
0.6 0.6 0
0.9 0.6 0
1.2 0.6 0
1.5 0.6 0
1.8 0.6 0
2.1 0.6 0
2.4 0.6 0
2.7 0.6 0
3 0.6 0
3.3 0.6 0
3.6 0.6 0
3.9 0.6 0
4.2 0.6 0
4.5 0.6 0
4.8 0.6 0
5.1 0.6 0
5.4 0.6 0
5.7 0.6 0
6 0.6 0
6.3 0.6 0
6.6 0.6 0
6.9 0.6 0
7.2 0.6 0
7.5 0.6 0
7.8 0.6 0
8.1 0.6 0
8.4 0.6 0
8.7 0.6 0
9 0.6 0
9.3 0.6 0
9.6 0.6 0
9.9 0.6 0
10.2 0.6 0
10.5 0.6 0
10.8 0.6 0
11.1 0.6 0
11.4 0.6 0
11.7 0.6 0
12 0.6 0
12.3 0.6 0
12.6 0.6 0
12.9 0.6 0
13.2 0.6 0
13.5 0.6 0
13.8 0.6 0
14.1 0.6 0
14.4 0.6 0
14.7 0.6 0
15 0.6 0
15.3 0.6 0
15.6 0.6 0
15.9 0.6 0
16.2 0.6 0
16.5 0.6 0
16.8 0.6 0
17.1 0.6 0
17.4 0.6 0
17.7 0.6 0
18 0.6 0
18.3 0.6 0
18.6 0.6 0
18.9 0.6 0
19.2 0.6 0
19.5 0.6 0
19.8 0.6 0
20.1 0.6 0
20.4 0.6 0
20.7 0.6 0
21 0.6 0
21.3 0.6 0
21.6 0.6 0
21.9 0.6 0
22.2 0.6 0
22.5 0.6 0
22.8 0.6 0
23.1 0.6 0
23.4 0.6 0
23.7 0.6 0
24 0.6 0
24.3 0.6 0
24.6 0.6 0
24.9 0.6 0
25.2 0.6 0
25.5 0.6 0
25.8 0.6 0
26.1 0.6 0
26.4 0.6 0
26.7 0.6 0
27 0.6 0
27.3 0.6 0
27.6 0.6 0
27.9 0.6 0
28.2 0.6 0
28.5 0.6 0
28.8 0.6 0
29.1 0.6 0
29.4 0.6 0
29.7 0.6 0
30 0.6 0
30.3 0.6 0
30.6 0.6 0
0 0.7 0
0.3 0.7 0
0.6 0.7 0
0.9 0.7 0
1.2 0.7 0
1.5 0.7 0
1.8 0.7 0
2.1 0.7 0
2.4 0.7 0
2.7 0.7 0
3 0.7 0
3.3 0.7 0
3.6 0.7 0
3.9 0.7 0
4.2 0.7 0
4.5 0.7 0
4.8 0.7 0
5.1 0.7 0
5.4 0.7 0
5.7 0.7 0
6 0.7 0
6.3 0.7 0
6.6 0.7 0
6.9 0.7 0
7.2 0.7 0
7.5 0.7 0
7.8 0.7 0
8.1 0.7 0
8.4 0.7 0
8.7 0.7 0
9 0.7 0
9.3 0.7 0
9.6 0.7 0
9.9 0.7 0
10.2 0.7 0
10.5 0.7 0
10.8 0.7 0
11.1 0.7 0
11.4 0.7 0
11.7 0.7 0
12 0.7 0
12.3 0.7 0
12.6 0.7 0
12.9 0.7 0
13.2 0.7 0
13.5 0.7 0
13.8 0.7 0
14.1 0.7 0
14.4 0.7 0
14.7 0.7 0
15 0.7 0
15.3 0.7 0
15.6 0.7 0
15.9 0.7 0
16.2 0.7 0
16.5 0.7 0
16.8 0.7 0
17.1 0.7 0
17.4 0.7 0
17.7 0.7 0
18 0.7 0
18.3 0.7 0
18.6 0.7 0
18.9 0.7 0
19.2 0.7 0
19.5 0.7 0
19.8 0.7 0
20.1 0.7 0
20.4 0.7 0
20.7 0.7 0
21 0.7 0
21.3 0.7 0
21.6 0.7 0
21.9 0.7 0
22.2 0.7 0
22.5 0.7 0
22.8 0.7 0
23.1 0.7 0
23.4 0.7 0
23.7 0.7 0
24 0.7 0
24.3 0.7 0
24.6 0.7 0
24.9 0.7 0
25.2 0.7 0
25.5 0.7 0
25.8 0.7 0
26.1 0.7 0
26.4 0.7 0
26.7 0.7 0
27 0.7 0
27.3 0.7 0
27.6 0.7 0
27.9 0.7 0
28.2 0.7 0
28.5 0.7 0
28.8 0.7 0
29.1 0.7 0
29.4 0.7 0
29.7 0.7 0
30 0.7 0
30.3 0.7 0
30.6 0.7 0
0 0.8 0
0.3 0.8 0
0.6 0.8 0
0.9 0.8 0
1.2 0.8 0
1.5 0.8 0
1.8 0.8 0
2.1 0.8 0
2.4 0.8 0
2.7 0.8 0
3 0.8 0
3.3 0.8 0
3.6 0.8 0
3.9 0.8 0
4.2 0.8 0
4.5 0.8 0
4.8 0.8 0
5.1 0.8 0
5.4 0.8 0
5.7 0.8 0
6 0.8 0
6.3 0.8 0
6.6 0.8 0
6.9 0.8 0
7.2 0.8 0
7.5 0.8 0
7.8 0.8 0
8.1 0.8 0
8.4 0.8 0
8.7 0.8 0
9 0.8 0
9.3 0.8 0
9.6 0.8 0
9.9 0.8 0
10.2 0.8 0
10.5 0.8 0
10.8 0.8 0
11.1 0.8 0
11.4 0.8 0
11.7 0.8 0
12 0.8 0
12.3 0.8 0
12.6 0.8 0
12.9 0.8 0
13.2 0.8 0
13.5 0.8 0
13.8 0.8 0
14.1 0.8 0
14.4 0.8 0
14.7 0.8 0
15 0.8 0
15.3 0.8 0
15.6 0.8 0
15.9 0.8 0
16.2 0.8 0
16.5 0.8 0
16.8 0.8 0
17.1 0.8 0
17.4 0.8 0
17.7 0.8 0
18 0.8 0
18.3 0.8 0
18.6 0.8 0
18.9 0.8 0
19.2 0.8 0
19.5 0.8 0
19.8 0.8 0
20.1 0.8 0
20.4 0.8 0
20.7 0.8 0
21 0.8 0
21.3 0.8 0
21.6 0.8 0
21.9 0.8 0
22.2 0.8 0
22.5 0.8 0
22.8 0.8 0
23.1 0.8 0
23.4 0.8 0
23.7 0.8 0
24 0.8 0
24.3 0.8 0
24.6 0.8 0
24.9 0.8 0
25.2 0.8 0
25.5 0.8 0
25.8 0.8 0
26.1 0.8 0
26.4 0.8 0
26.7 0.8 0
27 0.8 0
27.3 0.8 0
27.6 0.8 0
27.9 0.8 0
28.2 0.8 0
28.5 0.8 0
28.8 0.8 0
29.1 0.8 0
29.4 0.8 0
29.7 0.8 0
30 0.8 0
30.3 0.8 0
30.6 0.8 0
0 0.9 0
0.3 0.9 0
0.6 0.9 0
0.9 0.9 0
1.2 0.9 0
1.5 0.9 0
1.8 0.9 0
2.1 0.9 0
2.4 0.9 0
2.7 0.9 0
3 0.9 0
3.3 0.9 0
3.6 0.9 0
3.9 0.9 0
4.2 0.9 0
4.5 0.9 0
4.8 0.9 0
5.1 0.9 0
5.4 0.9 0
5.7 0.9 0
6 0.9 0
6.3 0.9 0
6.6 0.9 0
6.9 0.9 0
7.2 0.9 0
7.5 0.9 0
7.8 0.9 0
8.1 0.9 0
8.4 0.9 0
8.7 0.9 0
9 0.9 0
9.3 0.9 0
9.6 0.9 0
9.9 0.9 0
10.2 0.9 0
10.5 0.9 0
10.8 0.9 0
11.1 0.9 0
11.4 0.9 0
11.7 0.9 0
12 0.9 0
12.3 0.9 0
12.6 0.9 0
12.9 0.9 0
13.2 0.9 0
13.5 0.9 0
13.8 0.9 0
14.1 0.9 0
14.4 0.9 0
14.7 0.9 0
15 0.9 0
15.3 0.9 0
15.6 0.9 0
15.9 0.9 0
16.2 0.9 0
16.5 0.9 0
16.8 0.9 0
17.1 0.9 0
17.4 0.9 0
17.7 0.9 0
18 0.9 0
18.3 0.9 0
18.6 0.9 0
18.9 0.9 0
19.2 0.9 0
19.5 0.9 0
19.8 0.9 0
20.1 0.9 0
20.4 0.9 0
20.7 0.9 0
21 0.9 0
21.3 0.9 0
21.6 0.9 0
21.9 0.9 0
22.2 0.9 0
22.5 0.9 0
22.8 0.9 0
23.1 0.9 0
23.4 0.9 0
23.7 0.9 0
24 0.9 0
24.3 0.9 0
24.6 0.9 0
24.9 0.9 0
25.2 0.9 0
25.5 0.9 0
25.8 0.9 0
26.1 0.9 0
26.4 0.9 0
26.7 0.9 0
27 0.9 0
27.3 0.9 0
27.6 0.9 0
27.9 0.9 0
28.2 0.9 0
28.5 0.9 0
28.8 0.9 0
29.1 0.9 0
29.4 0.9 0
29.7 0.9 0
30 0.9 0
30.3 0.9 0
30.6 0.9 0
0 1 0
0.3 1 0
0.6 1 0
0.9 1 0
1.2 1 0
1.5 1 0
1.8 1 0
2.1 1 0
2.4 1 0
2.7 1 0
3 1 0
3.3 1 0
3.6 1 0
3.9 1 0
4.2 1 0
4.5 1 0
4.8 1 0
5.1 1 0
5.4 1 0
5.7 1 0
6 1 0
6.3 1 0
6.6 1 0
6.9 1 0
7.2 1 0
7.5 1 0
7.8 1 0
8.1 1 0
8.4 1 0
8.7 1 0
9 1 0
9.3 1 0
9.6 1 0
9.9 1 0
10.2 1 0
10.5 1 0
10.8 1 0
11.1 1 0
11.4 1 0
11.7 1 0
12 1 0
12.3 1 0
12.6 1 0
12.9 1 0
13.2 1 0
13.5 1 0
13.8 1 0
14.1 1 0
14.4 1 0
14.7 1 0
15 1 0
15.3 1 0
15.6 1 0
15.9 1 0
16.2 1 0
16.5 1 0
16.8 1 0
17.1 1 0
17.4 1 0
17.7 1 0
18 1 0
18.3 1 0
18.6 1 0
18.9 1 0
19.2 1 0
19.5 1 0
19.8 1 0
20.1 1 0
20.4 1 0
20.7 1 0
21 1 0
21.3 1 0
21.6 1 0
21.9 1 0
22.2 1 0
22.5 1 0
22.8 1 0
23.1 1 0
23.4 1 0
23.7 1 0
24 1 0
24.3 1 0
24.6 1 0
24.9 1 0
25.2 1 0
25.5 1 0
25.8 1 0
26.1 1 0
26.4 1 0
26.7 1 0
27 1 0
27.3 1 0
27.6 1 0
27.9 1 0
28.2 1 0
28.5 1 0
28.8 1 0
29.1 1 0
29.4 1 0
29.7 1 0
30 1 0
30.3 1 0
30.6 1 0
0 1.1 0
0.3 1.1 0
0.6 1.1 0
0.9 1.1 0
1.2 1.1 0
1.5 1.1 0
1.8 1.1 0
2.1 1.1 0
2.4 1.1 0
2.7 1.1 0
3 1.1 0
3.3 1.1 0
3.6 1.1 0
3.9 1.1 0
4.2 1.1 0
4.5 1.1 0
4.8 1.1 0
5.1 1.1 0
5.4 1.1 0
5.7 1.1 0
6 1.1 0
6.3 1.1 0
6.6 1.1 0
6.9 1.1 0
7.2 1.1 0
7.5 1.1 0
7.8 1.1 0
8.1 1.1 0
8.4 1.1 0
8.7 1.1 0
9 1.1 0
9.3 1.1 0
9.6 1.1 0
9.9 1.1 0
10.2 1.1 0
10.5 1.1 0
10.8 1.1 0
11.1 1.1 0
11.4 1.1 0
11.7 1.1 0
12 1.1 0
12.3 1.1 0
12.6 1.1 0
12.9 1.1 0
13.2 1.1 0
13.5 1.1 0
13.8 1.1 0
14.1 1.1 0
14.4 1.1 0
14.7 1.1 0
15 1.1 0
15.3 1.1 0
15.6 1.1 0
15.9 1.1 0
16.2 1.1 0
16.5 1.1 0
16.8 1.1 0
17.1 1.1 0
17.4 1.1 0
17.7 1.1 0
18 1.1 0
18.3 1.1 0
18.6 1.1 0
18.9 1.1 0
19.2 1.1 0
19.5 1.1 0
19.8 1.1 0
20.1 1.1 0
20.4 1.1 0
20.7 1.1 0
21 1.1 0
21.3 1.1 0
21.6 1.1 0
21.9 1.1 0
22.2 1.1 0
22.5 1.1 0
22.8 1.1 0
23.1 1.1 0
23.4 1.1 0
23.7 1.1 0
24 1.1 0
24.3 1.1 0
24.6 1.1 0
24.9 1.1 0
25.2 1.1 0
25.5 1.1 0
25.8 1.1 0
26.1 1.1 0
26.4 1.1 0
26.7 1.1 0
27 1.1 0
27.3 1.1 0
27.6 1.1 0
27.9 1.1 0
28.2 1.1 0
28.5 1.1 0
28.8 1.1 0
29.1 1.1 0
29.4 1.1 0
29.7 1.1 0
30 1.1 0
30.3 1.1 0
30.6 1.1 0
0 1.2 0
0.3 1.2 0
0.6 1.2 0
0.9 1.2 0
1.2 1.2 0
1.5 1.2 0
1.8 1.2 0
2.1 1.2 0
2.4 1.2 0
2.7 1.2 0
3 1.2 0
3.3 1.2 0
3.6 1.2 0
3.9 1.2 0
4.2 1.2 0
4.5 1.2 0
4.8 1.2 0
5.1 1.2 0
5.4 1.2 0
5.7 1.2 0
6 1.2 0
6.3 1.2 0
6.6 1.2 0
6.9 1.2 0
7.2 1.2 0
7.5 1.2 0
7.8 1.2 0
8.1 1.2 0
8.4 1.2 0
8.7 1.2 0
9 1.2 0
9.3 1.2 0
9.6 1.2 0
9.9 1.2 0
10.2 1.2 0
10.5 1.2 0
10.8 1.2 0
11.1 1.2 0
11.4 1.2 0
11.7 1.2 0
12 1.2 0
12.3 1.2 0
12.6 1.2 0
12.9 1.2 0
13.2 1.2 0
13.5 1.2 0
13.8 1.2 0
14.1 1.2 0
14.4 1.2 0
14.7 1.2 0
15 1.2 0
15.3 1.2 0
15.6 1.2 0
15.9 1.2 0
16.2 1.2 0
16.5 1.2 0
16.8 1.2 0
17.1 1.2 0
17.4 1.2 0
17.7 1.2 0
18 1.2 0
18.3 1.2 0
18.6 1.2 0
18.9 1.2 0
19.2 1.2 0
19.5 1.2 0
19.8 1.2 0
20.1 1.2 0
20.4 1.2 0
20.7 1.2 0
21 1.2 0
21.3 1.2 0
21.6 1.2 0
21.9 1.2 0
22.2 1.2 0
22.5 1.2 0
22.8 1.2 0
23.1 1.2 0
23.4 1.2 0
23.7 1.2 0
24 1.2 0
24.3 1.2 0
24.6 1.2 0
24.9 1.2 0
25.2 1.2 0
25.5 1.2 0
25.8 1.2 0
26.1 1.2 0
26.4 1.2 0
26.7 1.2 0
27 1.2 0
27.3 1.2 0
27.6 1.2 0
27.9 1.2 0
28.2 1.2 0
28.5 1.2 0
28.8 1.2 0
29.1 1.2 0
29.4 1.2 0
29.7 1.2 0
30 1.2 0
30.3 1.2 0
30.6 1.2 0

POINT_DATA 1339

SCALARS pressure double
LOOKUP_TABLE pressure
1.17134
1.17134
1.1065
1.06226
1.02244
0.985866
0.952813
0.923285
0.896931
0.873222
0.851618
0.831655
0.812963
0.795264
0.778357
0.762097
0.746379
0.731123
0.716271
0.701776
0.687602
0.673717
0.660096
0.646718
0.633562
0.620612
0.607852
0.59527
0.582852
0.570588
0.558467
0.546481
0.53462
0.522876
0.511244
0.499715
0.488283
0.476944
0.46569
0.454519
0.443423
0.432401
0.421447
0.410557
0.399728
0.388956
0.378239
0.367574
0.356957
0.346385
0.335858
0.325371
0.314923
0.304512
0.294136
0.283793
0.273481
0.263198
0.252944
0.242715
0.232512
0.222333
0.212176
0.20204
0.191925
0.181828
0.171749
0.161688
0.151642
0.141612
0.131597
0.121595
0.111606
0.10163
0.0916663
0.0817137
0.071772
0.0618409
0.05192
0.0420088
0.0321072
0.0222146
0.0123308
0.00245547
-0.00741177
-0.0172713
-0.0271235
-0.0369688
-0.0468075
-0.0566401
-0.0664671
-0.0762888
-0.0861058
-0.0959185
-0.105727
-0.115532
-0.125335
-0.135134
-0.144931
-0.154726
-0.16452
-0.174311
0.174311
1.17134
1.17134
1.1065
1.06226
1.02244
0.985866
0.952813
0.923285
0.896931
0.873222
0.851618
0.831655
0.812963
0.795264
0.778357
0.762097
0.746379
0.731123
0.716271
0.701776
0.687602
0.673717
0.660096
0.646718
0.633562
0.620612
0.607852
0.59527
0.582852
0.570588
0.558467
0.546481
0.53462
0.522876
0.511244
0.499715
0.488283
0.476944
0.46569
0.454519
0.443423
0.432401
0.421447
0.410557
0.399728
0.388956
0.378239
0.367574
0.356957
0.346385
0.335858
0.325371
0.314923
0.304512
0.294136
0.283793
0.273481
0.263198
0.252944
0.242715
0.232512
0.222333
0.212176
0.20204
0.191925
0.181828
0.171749
0.161688
0.151642
0.141612
0.131597
0.121595
0.111606
0.10163
0.0916663
0.0817137
0.071772
0.0618409
0.05192
0.0420088
0.0321072
0.0222146
0.0123308
0.00245547
-0.00741177
-0.0172713
-0.0271235
-0.0369688
-0.0468075
-0.0566401
-0.0664671
-0.0762888
-0.0861058
-0.0959185
-0.105727
-0.115532
-0.125335
-0.135134
-0.144931
-0.154726
-0.16452
-0.174311
0.174311
1.1504
1.1504
1.10451
1.06249
1.02315
0.986662
0.953555
0.923917
0.897439
0.873617
0.851922
0.831889
0.813145
0.795409
0.778474
0.762195
0.746462
0.731194
0.716333
0.701832
0.687651
0.673762
0.660137
0.646754
0.633596
0.620643
0.607881
0.595296
0.582876
0.57061
0.558488
0.5465
0.534638
0.522893
0.511259
0.499729
0.488297
0.476956
0.465702
0.45453
0.443434
0.432411
0.421456
0.410565
0.399736
0.388964
0.378247
0.367581
0.356963
0.346391
0.335863
0.325376
0.314928
0.304517
0.294141
0.283797
0.273485
0.263202
0.252947
0.242719
0.232516
0.222336
0.212179
0.202043
0.191927
0.18183
0.171752
0.16169
0.151644
0.141614
0.131599
0.121597
0.111608
0.101632
0.0916678
0.081715
0.0717733
0.0618421
0.051921
0.0420098
0.0321081
0.0222154
0.0123315
0.00245611
-0.00741121
-0.0172708
-0.0271231
-0.0369684
-0.0468072
-0.0566399
-0.0664669
-0.0762887
-0.0861057
-0.0959184
-0.105727
-0.115532
-0.125335
-0.135134
-0.144931
-0.154726
-0.16452
-0.174311
0.174311
1.13542
1.13542
1.10163
1.06273
1.02426
0.987986
0.954817
0.924996
0.8983
0.874276
0.852414
0.832254
0.813417
0.795613
0.778632
0.76232
0.746563
0.731278
0.716404
0.701893
0.687704
0.673808
0.660178
0.646791
0.633629
0.620673
0.607908
0.595321
0.582899
0.570631
0.558507
0.546518
0.534654
0.522908
0.511273
0.499742
0.488309
0.476967
0.465713
0.454539
0.443443
0.432419
0.421464
0.410573
0.399743
0.38897
0.378253
0.367586
0.356968
0.346396
0.335868
0.325381
0.314932
0.304521
0.294144
0.2838
0.273488
0.263205
0.25295
0.242722
0.232518
0.222338
0.212181
0.202045
0.191929
0.181832
0.171753
0.161692
0.151646
0.141616
0.1316
0.121598
0.111609
0.101633
0.0916689
0.0817161
0.0717742
0.061843
0.0519219
0.0420106
0.0321088
0.022216
0.0123321
0.0024566
-0.00741078
-0.0172704
-0.0271228
-0.0369681
-0.046807
-0.0566397
-0.0664667
-0.0762886
-0.0861056
-0.0959183
-0.105727
-0.115532
-0.125335
-0.135134
-0.144931
-0.154726
-0.164519
-0.17431
0.17431
1.12585
1.12585
1.09914
1.06283
1.02521
0.98918
0.955994
0.926032
0.899153
0.874948
0.852932
0.832649
0.813719
0.795848
0.778818
0.76247
0.746686
0.731381
0.716492
0.701968
0.687771
0.673866
0.66023
0.646838
0.63367
0.62071
0.607941
0.595351
0.582927
0.570656
0.55853
0.546539
0.534673
0.522926
0.51129
0.499757
0.488323
0.47698
0.465725
0.45455
0.443453
0.432429
0.421473
0.410581
0.399751
0.388978
0.37826
0.367593
0.356974
0.346402
0.335873
0.325386
0.314937
0.304525
0.294148
0.283804
0.273492
0.263209
0.252953
0.242725
0.232521
0.222341
0.212184
0.202048
0.191931
0.181834
0.171756
0.161694
0.151648
0.141618
0.131602
0.1216
0.111611
0.101635
0.0916702
0.0817173
0.0717754
0.0618441
0.0519229
0.0420116
0.0321097
0.0222169
0.0123329
0.00245737
-0.00741007
-0.0172698
-0.0271222
-0.0369676
-0.0468065
-0.0566393
-0.0664664
-0.0762882
-0.0861053
-0.095918
-0.105727
-0.115532
-0.125334
-0.135134
-0.144931
-0.154726
-0.164518
-0.174307
0.174307
1.12053
1.12053
1.09752
1.06285
1.0258
0.989947
0.956763
0.926722
0.89973
0.875412
0.853297
0.832933
0.813942
0.796024
0.778961
0.762587
0.746785
0.731466
0.716566
0.702033
0.687827
0.673917
0.660275
0.646879
0.633707
0.620743
0.607972
0.595379
0.582952
0.57068
0.558552
0.546558
0.534691
0.522943
0.511305
0.499772
0.488336
0.476993
0.465736
0.454561
0.443463
0.432438
0.421481
0.410589
0.399758
0.388985
0.378266
0.367599
0.35698
0.346408
0.335879
0.325391
0.314942
0.30453
0.294152
0.283808
0.273495
0.263212
0.252957
0.242728
0.232524
0.222344
0.212186
0.20205
0.191934
0.181837
0.171758
0.161696
0.15165
0.141619
0.131603
0.121601
0.111612
0.101636
0.0916715
0.0817186
0.0717766
0.0618452
0.051924
0.0420126
0.0321107
0.0222179
0.0123338
0.00245824
-0.00740925
-0.017269
-0.0271215
-0.0369669
-0.0468059
-0.0566387
-0.0664658
-0.0762877
-0.0861049
-0.0959176
-0.105727
-0.115532
-0.125334
-0.135134
-0.144931
-0.154725
-0.164517
-0.174304
0.174304
1.11883
1.11883
1.09697
1.06286
1.02602
0.990221
0.957037
0.926967
0.899936
0.875579
0.853429
0.833038
0.814024
0.796091
0.779015
0.762633
0.746824
0.7315
0.716595
0.702059
0.687851
0.673938
0.660294
0.646896
0.633723
0.620757
0.607985
0.595391
0.582963
0.57069
0.558561
0.546567
0.534699
0.52295
0.511312
0.499778
0.488342
0.476998
0.465741
0.454566
0.443468
0.432442
0.421485
0.410593
0.399762
0.388988
0.378269
0.367602
0.356983
0.34641
0.335881
0.325393
0.314944
0.304532
0.294154
0.28381
0.273497
0.263213
0.252958
0.242729
0.232525
0.222345
0.212187
0.202051
0.191935
0.181838
0.171758
0.161696
0.151651
0.14162
0.131604
0.121602
0.111613
0.101637
0.0916721
0.0817191
0.0717772
0.0618457
0.0519245
0.0420131
0.0321112
0.0222183
0.0123342
0.00245864
-0.00740887
-0.0172687
-0.0271211
-0.0369666
-0.0468056
-0.0566384
-0.0664656
-0.0762875
-0.0861047
-0.0959175
-0.105726
-0.115532
-0.125334
-0.135134
-0.144931
-0.154725
-0.164517
-0.174303
0.174303
1.12053
1.12053
1.09752
1.06285
1.0258
0.989947
0.956764
0.926722
0.89973
0.875412
0.853297
0.832934
0.813941
0.796024
0.778961
0.762587
0.746785
0.731466
0.716566
0.702033
0.687827
0.673917
0.660275
0.646879
0.633707
0.620743
0.607972
0.595379
0.582952
0.57068
0.558552
0.546558
0.534691
0.522943
0.511305
0.499772
0.488336
0.476993
0.465736
0.454561
0.443463
0.432438
0.421481
0.410589
0.399758
0.388985
0.378266
0.367599
0.35698
0.346408
0.335879
0.325391
0.314942
0.30453
0.294152
0.283808
0.273495
0.263212
0.252957
0.242728
0.232524
0.222344
0.212186
0.20205
0.191934
0.181837
0.171758
0.161696
0.15165
0.141619
0.131603
0.121601
0.111612
0.101636
0.0916715
0.0817186
0.0717766
0.0618452
0.051924
0.0420126
0.0321107
0.0222179
0.0123338
0.00245825
-0.00740925
-0.017269
-0.0271215
-0.0369669
-0.0468059
-0.0566387
-0.0664658
-0.0762877
-0.0861049
-0.0959176
-0.105727
-0.115532
-0.125334
-0.135134
-0.144931
-0.154725
-0.164517
-0.174304
0.174304
1.12585
1.12585
1.09914
1.06283
1.02521
0.989181
0.955995
0.926032
0.899152
0.874948
0.852933
0.832649
0.813719
0.795848
0.778818
0.76247
0.746686
0.731382
0.716492
0.701968
0.68777
0.673867
0.66023
0.646838
0.63367
0.62071
0.607942
0.595351
0.582927
0.570656
0.55853
0.546539
0.534673
0.522926
0.51129
0.499757
0.488323
0.47698
0.465725
0.454551
0.443453
0.432429
0.421473
0.410581
0.399751
0.388978
0.37826
0.367593
0.356974
0.346402
0.335873
0.325386
0.314937
0.304525
0.294148
0.283804
0.273492
0.263209
0.252953
0.242725
0.232521
0.222341
0.212184
0.202048
0.191931
0.181834
0.171756
0.161694
0.151648
0.141618
0.131602
0.1216
0.111611
0.101635
0.0916702
0.0817173
0.0717754
0.0618441
0.0519229
0.0420116
0.0321097
0.0222169
0.0123329
0.00245738
-0.00741007
-0.0172698
-0.0271222
-0.0369676
-0.0468065
-0.0566393
-0.0664663
-0.0762882
-0.0861053
-0.095918
-0.105727
-0.115532
-0.125334
-0.135134
-0.144931
-0.154726
-0.164518
-0.174307
0.174307
1.13542
1.13542
1.10163
1.06272
1.02426
0.987987
0.954818
0.924995
0.898299
0.874275
0.852415
0.832254
0.813416
0.795613
0.778633
0.76232
0.746563
0.731278
0.716404
0.701892
0.687704
0.673808
0.660178
0.646791
0.633629
0.620673
0.607908
0.595321
0.582899
0.570631
0.558507
0.546518
0.534654
0.522908
0.511273
0.499742
0.488309
0.476967
0.465713
0.454539
0.443443
0.432419
0.421464
0.410573
0.399743
0.38897
0.378253
0.367586
0.356968
0.346396
0.335868
0.325381
0.314932
0.304521
0.294144
0.283801
0.273488
0.263205
0.25295
0.242722
0.232518
0.222338
0.212181
0.202045
0.191929
0.181832
0.171753
0.161692
0.151646
0.141616
0.1316
0.121598
0.111609
0.101633
0.0916689
0.0817161
0.0717742
0.061843
0.0519219
0.0420106
0.0321088
0.022216
0.0123321
0.00245662
-0.00741078
-0.0172704
-0.0271228
-0.0369681
-0.046807
-0.0566397
-0.0664667
-0.0762886
-0.0861056
-0.0959183
-0.105727
-0.115532
-0.125335
-0.135134
-0.144931
-0.154726
-0.164519
-0.17431
0.17431
1.1504
1.1504
1.10451
1.06249
1.02314
0.986662
0.953557
0.923917
0.897437
0.873616
0.851923
0.83189
0.813145
0.795408
0.778475
0.762195
0.746461
0.731194
0.716333
0.701832
0.687651
0.673762
0.660137
0.646754
0.633595
0.620643
0.607881
0.595296
0.582876
0.570611
0.558488
0.5465
0.534638
0.522893
0.511259
0.499729
0.488297
0.476956
0.465702
0.45453
0.443434
0.432411
0.421456
0.410565
0.399736
0.388964
0.378247
0.367581
0.356963
0.346391
0.335863
0.325376
0.314928
0.304517
0.294141
0.283797
0.273485
0.263202
0.252947
0.242719
0.232516
0.222336
0.212179
0.202043
0.191927
0.18183
0.171752
0.16169
0.151644
0.141614
0.131599
0.121597
0.111608
0.101632
0.0916678
0.081715
0.0717733
0.0618421
0.051921
0.0420098
0.0321081
0.0222154
0.0123316
0.00245613
-0.00741121
-0.0172708
-0.0271231
-0.0369684
-0.0468072
-0.0566399
-0.0664669
-0.0762887
-0.0861057
-0.0959184
-0.105727
-0.115532
-0.125335
-0.135134
-0.144931
-0.154726
-0.16452
-0.174311
0.174311
1.17134
1.17134
1.1065
1.06226
1.02244
0.985866
0.952814
0.923286
0.89693
0.873221
0.851619
0.831656
0.812963
0.795264
0.778357
0.762097
0.746379
0.731123
0.716271
0.701776
0.687602
0.673717
0.660096
0.646718
0.633562
0.620612
0.607852
0.59527
0.582852
0.570588
0.558468
0.546481
0.53462
0.522877
0.511244
0.499715
0.488283
0.476944
0.46569
0.454519
0.443424
0.432401
0.421447
0.410557
0.399728
0.388956
0.378239
0.367574
0.356957
0.346385
0.335858
0.325371
0.314923
0.304512
0.294136
0.283793
0.273481
0.263198
0.252944
0.242715
0.232512
0.222333
0.212176
0.20204
0.191925
0.181828
0.171749
0.161688
0.151642
0.141612
0.131597
0.121595
0.111606
0.10163
0.0916663
0.0817137
0.071772
0.0618409
0.05192
0.0420088
0.0321072
0.0222146
0.0123308
0.0024555
-0.00741176
-0.0172713
-0.0271235
-0.0369688
-0.0468075
-0.0566401
-0.0664671
-0.0762888
-0.0861058
-0.0959184
-0.105727
-0.115532
-0.125335
-0.135134
-0.144931
-0.154726
-0.16452
-0.174311
0.174311
1.17134
1.17134
1.1065
1.06226
1.02244
0.985866
0.952814
0.923286
0.89693
0.873221
0.851619
0.831656
0.812963
0.795264
0.778357
0.762097
0.746379
0.731123
0.716271
0.701776
0.687602
0.673717
0.660096
0.646718
0.633562
0.620612
0.607852
0.59527
0.582852
0.570588
0.558468
0.546481
0.53462
0.522877
0.511244
0.499715
0.488283
0.476944
0.46569
0.454519
0.443424
0.432401
0.421447
0.410557
0.399728
0.388956
0.378239
0.367574
0.356957
0.346385
0.335858
0.325371
0.314923
0.304512
0.294136
0.283793
0.273481
0.263198
0.252944
0.242715
0.232512
0.222333
0.212176
0.20204
0.191925
0.181828
0.171749
0.161688
0.151642
0.141612
0.131597
0.121595
0.111606
0.10163
0.0916663
0.0817137
0.071772
0.0618409
0.05192
0.0420088
0.0321072
0.0222146
0.0123308
0.0024555
-0.00741176
-0.0172713
-0.0271235
-0.0369688
-0.0468075
-0.0566401
-0.0664671
-0.0762888
-0.0861058
-0.0959184
-0.105727
-0.115532
-0.125335
-0.135134
-0.144931
-0.154726
-0.16452
-0.174311
0.174311
SCALARS phi double
LOOKUP_TABLE phi
1
1
1
1
0.999999
0.999994
0.999983
0.999958
0.99991
0.99983
0.999706
0.999526
0.999278
0.998951
0.998536
0.998024
0.997407
0.996678
0.995834
0.994869
0.993783
0.992573
0.991241
0.989788
0.988215
0.986522
0.984696
0.982716
0.980537
0.978099
0.975318
0.9721
0.96834
0.96393
0.95877
0.952769
0.94585
0.937957
0.929048
0.919105
0.908125
0.896125
0.883136
0.8692
0.854374
0.838722
0.822312
0.805221
0.787524
0.769301
0.75063
0.731586
0.712243
0.692672
0.67294
0.653111
0.633242
0.613388
0.593599
0.57392
0.554393
0.535054
0.515936
0.497069
0.478479
0.460187
0.442214
0.424576
0.407286
0.390355
0.373794
0.35761
0.341807
0.326389
0.311359
0.296718
0.282465
0.2686
0.255121
0.242025
0.229309
0.216971
0.205006
0.193411
0.182182
0.171315
0.160809
0.150658
0.140861
0.131415
0.122319
0.113571
0.10517
0.0971162
0.0894101
0.0820512
0.075044
0.0683773
0.0620962
0.0560453
0.0507854
0.044268
0.044268
1
1
1
1
0.999999
0.999994
0.999983
0.999958
0.99991
0.99983
0.999706
0.999526
0.999278
0.998951
0.998536
0.998024
0.997407
0.996678
0.995834
0.994869
0.993783
0.992573
0.991241
0.989788
0.988215
0.986522
0.984696
0.982716
0.980537
0.978099
0.975318
0.9721
0.96834
0.96393
0.95877
0.952769
0.94585
0.937957
0.929048
0.919105
0.908125
0.896125
0.883136
0.8692
0.854374
0.838722
0.822312
0.805221
0.787524
0.769301
0.75063
0.731586
0.712243
0.692672
0.67294
0.653111
0.633242
0.613388
0.593599
0.57392
0.554393
0.535054
0.515936
0.497069
0.478479
0.460187
0.442214
0.424576
0.407286
0.390355
0.373794
0.35761
0.341807
0.326389
0.311359
0.296718
0.282465
0.2686
0.255121
0.242025
0.229309
0.216971
0.205006
0.193411
0.182182
0.171315
0.160809
0.150658
0.140861
0.131415
0.122319
0.113571
0.10517
0.0971162
0.0894101
0.0820512
0.075044
0.0683773
0.0620962
0.0560453
0.0507854
0.044268
0.044268
1
1
1
0.999996
0.999983
0.999954
0.999898
0.999804
0.999658
0.999447
0.999157
0.998778
0.9983
0.997714
0.997014
0.996196
0.995256
0.994192
0.993003
0.991689
0.990252
0.988693
0.987016
0.985224
0.98332
0.981309
0.979193
0.976971
0.974634
0.972166
0.969539
0.966713
0.963639
0.960255
0.956496
0.952291
0.94757
0.942267
0.936321
0.92968
0.922304
0.914161
0.905233
0.895514
0.885006
0.873726
0.861696
0.848948
0.835522
0.821462
0.806817
0.791637
0.775977
0.759891
0.743434
0.72666
0.709623
0.692374
0.674963
0.657435
0.639837
0.622209
0.604591
0.587019
0.569526
0.552143
0.534898
0.517815
0.500919
0.484228
0.467761
0.451533
0.43556
0.419851
0.404417
0.389266
0.374404
0.359836
0.345565
0.331594
0.317923
0.304551
0.291478
0.2787
0.266214
0.254017
0.242104
0.230469
0.219108
0.208015
0.197184
0.18661
0.176288
0.166213
0.156383
0.146792
0.13745
0.128326
0.119524
0.110716
0.103038
0.0926609
0.0926609
0.999997
1
0.99998
0.999897
0.999724
0.999434
0.998999
0.998397
0.997613
0.996636
0.995464
0.994099
0.992547
0.990816
0.988916
0.986859
0.984656
0.982317
0.979854
0.977278
0.974598
0.971826
0.968969
0.966037
0.963036
0.959976
0.956863
0.953702
0.950497
0.94725
0.943958
0.940616
0.937212
0.933729
0.930144
0.926428
0.92255
0.918473
0.914158
0.909565
0.904655
0.89939
0.893735
0.887659
0.881134
0.874139
0.866658
0.858678
0.850196
0.841212
0.83173
0.821761
0.811318
0.800421
0.78909
0.77735
0.765226
0.752747
0.739942
0.72684
0.713474
0.699873
0.686067
0.672086
0.657961
0.643718
0.629386
0.614991
0.600557
0.586109
0.571668
0.557257
0.542893
0.528595
0.51438
0.500263
0.486257
0.472374
0.458624
0.445016
0.431558
0.418255
0.40511
0.392127
0.379306
0.366647
0.354147
0.341801
0.329606
0.317555
0.305638
0.293847
0.282171
0.270598
0.259118
0.247713
0.236388
0.225077
0.21395
0.202426
0.192355
0.177797
0.177797
0.999999
1
0.99943
0.998224
0.996402
0.994008
0.991093
0.987716
0.983939
0.979828
0.975446
0.970853
0.966103
0.961239
0.9563
0.951318
0.946317
0.94132
0.936342
0.931396
0.926494
0.921643
0.91685
0.91212
0.907457
0.902862
0.898338
0.893885
0.889504