# vtk DataFile Version 3.0
FlowField
ASCII
DATASET STRUCTURED_GRID
DIMENSIONS 103 13 1 
POINTS 1339 double
0 0 0
0.3 0 0
0.6 0 0
0.9 0 0
1.2 0 0
1.5 0 0
1.8 0 0
2.1 0 0
2.4 0 0
2.7 0 0
3 0 0
3.3 0 0
3.6 0 0
3.9 0 0
4.2 0 0
4.5 0 0
4.8 0 0
5.1 0 0
5.4 0 0
5.7 0 0
6 0 0
6.3 0 0
6.6 0 0
6.9 0 0
7.2 0 0
7.5 0 0
7.8 0 0
8.1 0 0
8.4 0 0
8.7 0 0
9 0 0
9.3 0 0
9.6 0 0
9.9 0 0
10.2 0 0
10.5 0 0
10.8 0 0
11.1 0 0
11.4 0 0
11.7 0 0
12 0 0
12.3 0 0
12.6 0 0
12.9 0 0
13.2 0 0
13.5 0 0
13.8 0 0
14.1 0 0
14.4 0 0
14.7 0 0
15 0 0
15.3 0 0
15.6 0 0
15.9 0 0
16.2 0 0
16.5 0 0
16.8 0 0
17.1 0 0
17.4 0 0
17.7 0 0
18 0 0
18.3 0 0
18.6 0 0
18.9 0 0
19.2 0 0
19.5 0 0
19.8 0 0
20.1 0 0
20.4 0 0
20.7 0 0
21 0 0
21.3 0 0
21.6 0 0
21.9 0 0
22.2 0 0
22.5 0 0
22.8 0 0
23.1 0 0
23.4 0 0
23.7 0 0
24 0 0
24.3 0 0
24.6 0 0
24.9 0 0
25.2 0 0
25.5 0 0
25.8 0 0
26.1 0 0
26.4 0 0
26.7 0 0
27 0 0
27.3 0 0
27.6 0 0
27.9 0 0
28.2 0 0
28.5 0 0
28.8 0 0
29.1 0 0
29.4 0 0
29.7 0 0
30 0 0
30.3 0 0
30.6 0 0
0 0.1 0
0.3 0.1 0
0.6 0.1 0
0.9 0.1 0
1.2 0.1 0
1.5 0.1 0
1.8 0.1 0
2.1 0.1 0
2.4 0.1 0
2.7 0.1 0
3 0.1 0
3.3 0.1 0
3.6 0.1 0
3.9 0.1 0
4.2 0.1 0
4.5 0.1 0
4.8 0.1 0
5.1 0.1 0
5.4 0.1 0
5.7 0.1 0
6 0.1 0
6.3 0.1 0
6.6 0.1 0
6.9 0.1 0
7.2 0.1 0
7.5 0.1 0
7.8 0.1 0
8.1 0.1 0
8.4 0.1 0
8.7 0.1 0
9 0.1 0
9.3 0.1 0
9.6 0.1 0
9.9 0.1 0
10.2 0.1 0
10.5 0.1 0
10.8 0.1 0
11.1 0.1 0
11.4 0.1 0
11.7 0.1 0
12 0.1 0
12.3 0.1 0
12.6 0.1 0
12.9 0.1 0
13.2 0.1 0
13.5 0.1 0
13.8 0.1 0
14.1 0.1 0
14.4 0.1 0
14.7 0.1 0
15 0.1 0
15.3 0.1 0
15.6 0.1 0
15.9 0.1 0
16.2 0.1 0
16.5 0.1 0
16.8 0.1 0
17.1 0.1 0
17.4 0.1 0
17.7 0.1 0
18 0.1 0
18.3 0.1 0
18.6 0.1 0
18.9 0.1 0
19.2 0.1 0
19.5 0.1 0
19.8 0.1 0
20.1 0.1 0
20.4 0.1 0
20.7 0.1 0
21 0.1 0
21.3 0.1 0
21.6 0.1 0
21.9 0.1 0
22.2 0.1 0
22.5 0.1 0
22.8 0.1 0
23.1 0.1 0
23.4 0.1 0
23.7 0.1 0
24 0.1 0
24.3 0.1 0
24.6 0.1 0
24.9 0.1 0
25.2 0.1 0
25.5 0.1 0
25.8 0.1 0
26.1 0.1 0
26.4 0.1 0
26.7 0.1 0
27 0.1 0
27.3 0.1 0
27.6 0.1 0
27.9 0.1 0
28.2 0.1 0
28.5 0.1 0
28.8 0.1 0
29.1 0.1 0
29.4 0.1 0
29.7 0.1 0
30 0.1 0
30.3 0.1 0
30.6 0.1 0
0 0.2 0
0.3 0.2 0
0.6 0.2 0
0.9 0.2 0
1.2 0.2 0
1.5 0.2 0
1.8 0.2 0
2.1 0.2 0
2.4 0.2 0
2.7 0.2 0
3 0.2 0
3.3 0.2 0
3.6 0.2 0
3.9 0.2 0
4.2 0.2 0
4.5 0.2 0
4.8 0.2 0
5.1 0.2 0
5.4 0.2 0
5.7 0.2 0
6 0.2 0
6.3 0.2 0
6.6 0.2 0
6.9 0.2 0
7.2 0.2 0
7.5 0.2 0
7.8 0.2 0
8.1 0.2 0
8.4 0.2 0
8.7 0.2 0
9 0.2 0
9.3 0.2 0
9.6 0.2 0
9.9 0.2 0
10.2 0.2 0
10.5 0.2 0
10.8 0.2 0
11.1 0.2 0
11.4 0.2 0
11.7 0.2 0
12 0.2 0
12.3 0.2 0
12.6 0.2 0
12.9 0.2 0
13.2 0.2 0
13.5 0.2 0
13.8 0.2 0
14.1 0.2 0
14.4 0.2 0
14.7 0.2 0
15 0.2 0
15.3 0.2 0
15.6 0.2 0
15.9 0.2 0
16.2 0.2 0
16.5 0.2 0
16.8 0.2 0
17.1 0.2 0
17.4 0.2 0
17.7 0.2 0
18 0.2 0
18.3 0.2 0
18.6 0.2 0
18.9 0.2 0
19.2 0.2 0
19.5 0.2 0
19.8 0.2 0
20.1 0.2 0
20.4 0.2 0
20.7 0.2 0
21 0.2 0
21.3 0.2 0
21.6 0.2 0
21.9 0.2 0
22.2 0.2 0
22.5 0.2 0
22.8 0.2 0
23.1 0.2 0
23.4 0.2 0
23.7 0.2 0
24 0.2 0
24.3 0.2 0
24.6 0.2 0
24.9 0.2 0
25.2 0.2 0
25.5 0.2 0
25.8 0.2 0
26.1 0.2 0
26.4 0.2 0
26.7 0.2 0
27 0.2 0
27.3 0.2 0
27.6 0.2 0
27.9 0.2 0
28.2 0.2 0
28.5 0.2 0
28.8 0.2 0
29.1 0.2 0
29.4 0.2 0
29.7 0.2 0
30 0.2 0
30.3 0.2 0
30.6 0.2 0
0 0.3 0
0.3 0.3 0
0.6 0.3 0
0.9 0.3 0
1.2 0.3 0
1.5 0.3 0
1.8 0.3 0
2.1 0.3 0
2.4 0.3 0
2.7 0.3 0
3 0.3 0
3.3 0.3 0
3.6 0.3 0
3.9 0.3 0
4.2 0.3 0
4.5 0.3 0
4.8 0.3 0
5.1 0.3 0
5.4 0.3 0
5.7 0.3 0
6 0.3 0
6.3 0.3 0
6.6 0.3 0
6.9 0.3 0
7.2 0.3 0
7.5 0.3 0
7.8 0.3 0
8.1 0.3 0
8.4 0.3 0
8.7 0.3 0
9 0.3 0
9.3 0.3 0
9.6 0.3 0
9.9 0.3 0
10.2 0.3 0
10.5 0.3 0
10.8 0.3 0
11.1 0.3 0
11.4 0.3 0
11.7 0.3 0
12 0.3 0
12.3 0.3 0
12.6 0.3 0
12.9 0.3 0
13.2 0.3 0
13.5 0.3 0
13.8 0.3 0
14.1 0.3 0
14.4 0.3 0
14.7 0.3 0
15 0.3 0
15.3 0.3 0
15.6 0.3 0
15.9 0.3 0
16.2 0.3 0
16.5 0.3 0
16.8 0.3 0
17.1 0.3 0
17.4 0.3 0
17.7 0.3 0
18 0.3 0
18.3 0.3 0
18.6 0.3 0
18.9 0.3 0
19.2 0.3 0
19.5 0.3 0
19.8 0.3 0
20.1 0.3 0
20.4 0.3 0
20.7 0.3 0
21 0.3 0
21.3 0.3 0
21.6 0.3 0
21.9 0.3 0
22.2 0.3 0
22.5 0.3 0
22.8 0.3 0
23.1 0.3 0
23.4 0.3 0
23.7 0.3 0
24 0.3 0
24.3 0.3 0
24.6 0.3 0
24.9 0.3 0
25.2 0.3 0
25.5 0.3 0
25.8 0.3 0
26.1 0.3 0
26.4 0.3 0
26.7 0.3 0
27 0.3 0
27.3 0.3 0
27.6 0.3 0
27.9 0.3 0
28.2 0.3 0
28.5 0.3 0
28.8 0.3 0
29.1 0.3 0
29.4 0.3 0
29.7 0.3 0
30 0.3 0
30.3 0.3 0
30.6 0.3 0
0 0.4 0
0.3 0.4 0
0.6 0.4 0
0.9 0.4 0
1.2 0.4 0
1.5 0.4 0
1.8 0.4 0
2.1 0.4 0
2.4 0.4 0
2.7 0.4 0
3 0.4 0
3.3 0.4 0
3.6 0.4 0
3.9 0.4 0
4.2 0.4 0
4.5 0.4 0
4.8 0.4 0
5.1 0.4 0
5.4 0.4 0
5.7 0.4 0
6 0.4 0
6.3 0.4 0
6.6 0.4 0
6.9 0.4 0
7.2 0.4 0
7.5 0.4 0
7.8 0.4 0
8.1 0.4 0
8.4 0.4 0
8.7 0.4 0
9 0.4 0
9.3 0.4 0
9.6 0.4 0
9.9 0.4 0
10.2 0.4 0
10.5 0.4 0
10.8 0.4 0
11.1 0.4 0
11.4 0.4 0
11.7 0.4 0
12 0.4 0
12.3 0.4 0
12.6 0.4 0
12.9 0.4 0
13.2 0.4 0
13.5 0.4 0
13.8 0.4 0
14.1 0.4 0
14.4 0.4 0
14.7 0.4 0
15 0.4 0
15.3 0.4 0
15.6 0.4 0
15.9 0.4 0
16.2 0.4 0
16.5 0.4 0
16.8 0.4 0
17.1 0.4 0
17.4 0.4 0
17.7 0.4 0
18 0.4 0
18.3 0.4 0
18.6 0.4 0
18.9 0.4 0
19.2 0.4 0
19.5 0.4 0
19.8 0.4 0
20.1 0.4 0
20.4 0.4 0
20.7 0.4 0
21 0.4 0
21.3 0.4 0
21.6 0.4 0
21.9 0.4 0
22.2 0.4 0
22.5 0.4 0
22.8 0.4 0
23.1 0.4 0
23.4 0.4 0
23.7 0.4 0
24 0.4 0
24.3 0.4 0
24.6 0.4 0
24.9 0.4 0
25.2 0.4 0
25.5 0.4 0
25.8 0.4 0
26.1 0.4 0
26.4 0.4 0
26.7 0.4 0
27 0.4 0
27.3 0.4 0
27.6 0.4 0
27.9 0.4 0
28.2 0.4 0
28.5 0.4 0
28.8 0.4 0
29.1 0.4 0
29.4 0.4 0
29.7 0.4 0
30 0.4 0
30.3 0.4 0
30.6 0.4 0
0 0.5 0
0.3 0.5 0
0.6 0.5 0
0.9 0.5 0
1.2 0.5 0
1.5 0.5 0
1.8 0.5 0
2.1 0.5 0
2.4 0.5 0
2.7 0.5 0
3 0.5 0
3.3 0.5 0
3.6 0.5 0
3.9 0.5 0
4.2 0.5 0
4.5 0.5 0
4.8 0.5 0
5.1 0.5 0
5.4 0.5 0
5.7 0.5 0
6 0.5 0
6.3 0.5 0
6.6 0.5 0
6.9 0.5 0
7.2 0.5 0
7.5 0.5 0
7.8 0.5 0
8.1 0.5 0
8.4 0.5 0
8.7 0.5 0
9 0.5 0
9.3 0.5 0
9.6 0.5 0
9.9 0.5 0
10.2 0.5 0
10.5 0.5 0
10.8 0.5 0
11.1 0.5 0
11.4 0.5 0
11.7 0.5 0
12 0.5 0
12.3 0.5 0
12.6 0.5 0
12.9 0.5 0
13.2 0.5 0
13.5 0.5 0
13.8 0.5 0
14.1 0.5 0
14.4 0.5 0
14.7 0.5 0
15 0.5 0
15.3 0.5 0
15.6 0.5 0
15.9 0.5 0
16.2 0.5 0
16.5 0.5 0
16.8 0.5 0
17.1 0.5 0
17.4 0.5 0
17.7 0.5 0
18 0.5 0
18.3 0.5 0
18.6 0.5 0
18.9 0.5 0
19.2 0.5 0
19.5 0.5 0
19.8 0.5 0
20.1 0.5 0
20.4 0.5 0
20.7 0.5 0
21 0.5 0
21.3 0.5 0
21.6 0.5 0
21.9 0.5 0
22.2 0.5 0
22.5 0.5 0
22.8 0.5 0
23.1 0.5 0
23.4 0.5 0
23.7 0.5 0
24 0.5 0
24.3 0.5 0
24.6 0.5 0
24.9 0.5 0
25.2 0.5 0
25.5 0.5 0
25.8 0.5 0
26.1 0.5 0
26.4 0.5 0
26.7 0.5 0
27 0.5 0
27.3 0.5 0
27.6 0.5 0
27.9 0.5 0
28.2 0.5 0
28.5 0.5 0
28.8 0.5 0
29.1 0.5 0
29.4 0.5 0
29.7 0.5 0
30 0.5 0
30.3 0.5 0
30.6 0.5 0
0 0.6 0
0.3 0.6 0
0.6 0.6 0
0.9 0.6 0
1.2 0.6 0
1.5 0.6 0
1.8 0.6 0
2.1 0.6 0
2.4 0.6 0
2.7 0.6 0
3 0.6 0
3.3 0.6 0
3.6 0.6 0
3.9 0.6 0
4.2 0.6 0
4.5 0.6 0
4.8 0.6 0
5.1 0.6 0
5.4 0.6 0
5.7 0.6 0
6 0.6 0
6.3 0.6 0
6.6 0.6 0
6.9 0.6 0
7.2 0.6 0
7.5 0.6 0
7.8 0.6 0
8.1 0.6 0
8.4 0.6 0
8.7 0.6 0
9 0.6 0
9.3 0.6 0
9.6 0.6 0
9.9 0.6 0
10.2 0.6 0
10.5 0.6 0
10.8 0.6 0
11.1 0.6 0
11.4 0.6 0
11.7 0.6 0
12 0.6 0
12.3 0.6 0
12.6 0.6 0
12.9 0.6 0
13.2 0.6 0
13.5 0.6 0
13.8 0.6 0
14.1 0.6 0
14.4 0.6 0
14.7 0.6 0
15 0.6 0
15.3 0.6 0
15.6 0.6 0
15.9 0.6 0
16.2 0.6 0
16.5 0.6 0
16.8 0.6 0
17.1 0.6 0
17.4 0.6 0
17.7 0.6 0
18 0.6 0
18.3 0.6 0
18.6 0.6 0
18.9 0.6 0
19.2 0.6 0
19.5 0.6 0
19.8 0.6 0
20.1 0.6 0
20.4 0.6 0
20.7 0.6 0
21 0.6 0
21.3 0.6 0
21.6 0.6 0
21.9 0.6 0
22.2 0.6 0
22.5 0.6 0
22.8 0.6 0
23.1 0.6 0
23.4 0.6 0
23.7 0.6 0
24 0.6 0
24.3 0.6 0
24.6 0.6 0
24.9 0.6 0
25.2 0.6 0
25.5 0.6 0
25.8 0.6 0
26.1 0.6 0
26.4 0.6 0
26.7 0.6 0
27 0.6 0
27.3 0.6 0
27.6 0.6 0
27.9 0.6 0
28.2 0.6 0
28.5 0.6 0
28.8 0.6 0
29.1 0.6 0
29.4 0.6 0
29.7 0.6 0
30 0.6 0
30.3 0.6 0
30.6 0.6 0
0 0.7 0
0.3 0.7 0
0.6 0.7 0
0.9 0.7 0
1.2 0.7 0
1.5 0.7 0
1.8 0.7 0
2.1 0.7 0
2.4 0.7 0
2.7 0.7 0
3 0.7 0
3.3 0.7 0
3.6 0.7 0
3.9 0.7 0
4.2 0.7 0
4.5 0.7 0
4.8 0.7 0
5.1 0.7 0
5.4 0.7 0
5.7 0.7 0
6 0.7 0
6.3 0.7 0
6.6 0.7 0
6.9 0.7 0
7.2 0.7 0
7.5 0.7 0
7.8 0.7 0
8.1 0.7 0
8.4 0.7 0
8.7 0.7 0
9 0.7 0
9.3 0.7 0
9.6 0.7 0
9.9 0.7 0
10.2 0.7 0
10.5 0.7 0
10.8 0.7 0
11.1 0.7 0
11.4 0.7 0
11.7 0.7 0
12 0.7 0
12.3 0.7 0
12.6 0.7 0
12.9 0.7 0
13.2 0.7 0
13.5 0.7 0
13.8 0.7 0
14.1 0.7 0
14.4 0.7 0
14.7 0.7 0
15 0.7 0
15.3 0.7 0
15.6 0.7 0
15.9 0.7 0
16.2 0.7 0
16.5 0.7 0
16.8 0.7 0
17.1 0.7 0
17.4 0.7 0
17.7 0.7 0
18 0.7 0
18.3 0.7 0
18.6 0.7 0
18.9 0.7 0
19.2 0.7 0
19.5 0.7 0
19.8 0.7 0
20.1 0.7 0
20.4 0.7 0
20.7 0.7 0
21 0.7 0
21.3 0.7 0
21.6 0.7 0
21.9 0.7 0
22.2 0.7 0
22.5 0.7 0
22.8 0.7 0
23.1 0.7 0
23.4 0.7 0
23.7 0.7 0
24 0.7 0
24.3 0.7 0
24.6 0.7 0
24.9 0.7 0
25.2 0.7 0
25.5 0.7 0
25.8 0.7 0
26.1 0.7 0
26.4 0.7 0
26.7 0.7 0
27 0.7 0
27.3 0.7 0
27.6 0.7 0
27.9 0.7 0
28.2 0.7 0
28.5 0.7 0
28.8 0.7 0
29.1 0.7 0
29.4 0.7 0
29.7 0.7 0
30 0.7 0
30.3 0.7 0
30.6 0.7 0
0 0.8 0
0.3 0.8 0
0.6 0.8 0
0.9 0.8 0
1.2 0.8 0
1.5 0.8 0
1.8 0.8 0
2.1 0.8 0
2.4 0.8 0
2.7 0.8 0
3 0.8 0
3.3 0.8 0
3.6 0.8 0
3.9 0.8 0
4.2 0.8 0
4.5 0.8 0
4.8 0.8 0
5.1 0.8 0
5.4 0.8 0
5.7 0.8 0
6 0.8 0
6.3 0.8 0
6.6 0.8 0
6.9 0.8 0
7.2 0.8 0
7.5 0.8 0
7.8 0.8 0
8.1 0.8 0
8.4 0.8 0
8.7 0.8 0
9 0.8 0
9.3 0.8 0
9.6 0.8 0
9.9 0.8 0
10.2 0.8 0
10.5 0.8 0
10.8 0.8 0
11.1 0.8 0
11.4 0.8 0
11.7 0.8 0
12 0.8 0
12.3 0.8 0
12.6 0.8 0
12.9 0.8 0
13.2 0.8 0
13.5 0.8 0
13.8 0.8 0
14.1 0.8 0
14.4 0.8 0
14.7 0.8 0
15 0.8 0
15.3 0.8 0
15.6 0.8 0
15.9 0.8 0
16.2 0.8 0
16.5 0.8 0
16.8 0.8 0
17.1 0.8 0
17.4 0.8 0
17.7 0.8 0
18 0.8 0
18.3 0.8 0
18.6 0.8 0
18.9 0.8 0
19.2 0.8 0
19.5 0.8 0
19.8 0.8 0
20.1 0.8 0
20.4 0.8 0
20.7 0.8 0
21 0.8 0
21.3 0.8 0
21.6 0.8 0
21.9 0.8 0
22.2 0.8 0
22.5 0.8 0
22.8 0.8 0
23.1 0.8 0
23.4 0.8 0
23.7 0.8 0
24 0.8 0
24.3 0.8 0
24.6 0.8 0
24.9 0.8 0
25.2 0.8 0
25.5 0.8 0
25.8 0.8 0
26.1 0.8 0
26.4 0.8 0
26.7 0.8 0
27 0.8 0
27.3 0.8 0
27.6 0.8 0
27.9 0.8 0
28.2 0.8 0
28.5 0.8 0
28.8 0.8 0
29.1 0.8 0
29.4 0.8 0
29.7 0.8 0
30 0.8 0
30.3 0.8 0
30.6 0.8 0
0 0.9 0
0.3 0.9 0
0.6 0.9 0
0.9 0.9 0
1.2 0.9 0
1.5 0.9 0
1.8 0.9 0
2.1 0.9 0
2.4 0.9 0
2.7 0.9 0
3 0.9 0
3.3 0.9 0
3.6 0.9 0
3.9 0.9 0
4.2 0.9 0
4.5 0.9 0
4.8 0.9 0
5.1 0.9 0
5.4 0.9 0
5.7 0.9 0
6 0.9 0
6.3 0.9 0
6.6 0.9 0
6.9 0.9 0
7.2 0.9 0
7.5 0.9 0
7.8 0.9 0
8.1 0.9 0
8.4 0.9 0
8.7 0.9 0
9 0.9 0
9.3 0.9 0
9.6 0.9 0
9.9 0.9 0
10.2 0.9 0
10.5 0.9 0
10.8 0.9 0
11.1 0.9 0
11.4 0.9 0
11.7 0.9 0
12 0.9 0
12.3 0.9 0
12.6 0.9 0
12.9 0.9 0
13.2 0.9 0
13.5 0.9 0
13.8 0.9 0
14.1 0.9 0
14.4 0.9 0
14.7 0.9 0
15 0.9 0
15.3 0.9 0
15.6 0.9 0
15.9 0.9 0
16.2 0.9 0
16.5 0.9 0
16.8 0.9 0
17.1 0.9 0
17.4 0.9 0
17.7 0.9 0
18 0.9 0
18.3 0.9 0
18.6 0.9 0
18.9 0.9 0
19.2 0.9 0
19.5 0.9 0
19.8 0.9 0
20.1 0.9 0
20.4 0.9 0
20.7 0.9 0
21 0.9 0
21.3 0.9 0
21.6 0.9 0
21.9 0.9 0
22.2 0.9 0
22.5 0.9 0
22.8 0.9 0
23.1 0.9 0
23.4 0.9 0
23.7 0.9 0
24 0.9 0
24.3 0.9 0
24.6 0.9 0
24.9 0.9 0
25.2 0.9 0
25.5 0.9 0
25.8 0.9 0
26.1 0.9 0
26.4 0.9 0
26.7 0.9 0
27 0.9 0
27.3 0.9 0
27.6 0.9 0
27.9 0.9 0
28.2 0.9 0
28.5 0.9 0
28.8 0.9 0
29.1 0.9 0
29.4 0.9 0
29.7 0.9 0
30 0.9 0
30.3 0.9 0
30.6 0.9 0
0 1 0
0.3 1 0
0.6 1 0
0.9 1 0
1.2 1 0
1.5 1 0
1.8 1 0
2.1 1 0
2.4 1 0
2.7 1 0
3 1 0
3.3 1 0
3.6 1 0
3.9 1 0
4.2 1 0
4.5 1 0
4.8 1 0
5.1 1 0
5.4 1 0
5.7 1 0
6 1 0
6.3 1 0
6.6 1 0
6.9 1 0
7.2 1 0
7.5 1 0
7.8 1 0
8.1 1 0
8.4 1 0
8.7 1 0
9 1 0
9.3 1 0
9.6 1 0
9.9 1 0
10.2 1 0
10.5 1 0
10.8 1 0
11.1 1 0
11.4 1 0
11.7 1 0
12 1 0
12.3 1 0
12.6 1 0
12.9 1 0
13.2 1 0
13.5 1 0
13.8 1 0
14.1 1 0
14.4 1 0
14.7 1 0
15 1 0
15.3 1 0
15.6 1 0
15.9 1 0
16.2 1 0
16.5 1 0
16.8 1 0
17.1 1 0
17.4 1 0
17.7 1 0
18 1 0
18.3 1 0
18.6 1 0
18.9 1 0
19.2 1 0
19.5 1 0
19.8 1 0
20.1 1 0
20.4 1 0
20.7 1 0
21 1 0
21.3 1 0
21.6 1 0
21.9 1 0
22.2 1 0
22.5 1 0
22.8 1 0
23.1 1 0
23.4 1 0
23.7 1 0
24 1 0
24.3 1 0
24.6 1 0
24.9 1 0
25.2 1 0
25.5 1 0
25.8 1 0
26.1 1 0
26.4 1 0
26.7 1 0
27 1 0
27.3 1 0
27.6 1 0
27.9 1 0
28.2 1 0
28.5 1 0
28.8 1 0
29.1 1 0
29.4 1 0
29.7 1 0
30 1 0
30.3 1 0
30.6 1 0
0 1.1 0
0.3 1.1 0
0.6 1.1 0
0.9 1.1 0
1.2 1.1 0
1.5 1.1 0
1.8 1.1 0
2.1 1.1 0
2.4 1.1 0
2.7 1.1 0
3 1.1 0
3.3 1.1 0
3.6 1.1 0
3.9 1.1 0
4.2 1.1 0
4.5 1.1 0
4.8 1.1 0
5.1 1.1 0
5.4 1.1 0
5.7 1.1 0
6 1.1 0
6.3 1.1 0
6.6 1.1 0
6.9 1.1 0
7.2 1.1 0
7.5 1.1 0
7.8 1.1 0
8.1 1.1 0
8.4 1.1 0
8.7 1.1 0
9 1.1 0
9.3 1.1 0
9.6 1.1 0
9.9 1.1 0
10.2 1.1 0
10.5 1.1 0
10.8 1.1 0
11.1 1.1 0
11.4 1.1 0
11.7 1.1 0
12 1.1 0
12.3 1.1 0
12.6 1.1 0
12.9 1.1 0
13.2 1.1 0
13.5 1.1 0
13.8 1.1 0
14.1 1.1 0
14.4 1.1 0
14.7 1.1 0
15 1.1 0
15.3 1.1 0
15.6 1.1 0
15.9 1.1 0
16.2 1.1 0
16.5 1.1 0
16.8 1.1 0
17.1 1.1 0
17.4 1.1 0
17.7 1.1 0
18 1.1 0
18.3 1.1 0
18.6 1.1 0
18.9 1.1 0
19.2 1.1 0
19.5 1.1 0
19.8 1.1 0
20.1 1.1 0
20.4 1.1 0
20.7 1.1 0
21 1.1 0
21.3 1.1 0
21.6 1.1 0
21.9 1.1 0
22.2 1.1 0
22.5 1.1 0
22.8 1.1 0
23.1 1.1 0
23.4 1.1 0
23.7 1.1 0
24 1.1 0
24.3 1.1 0
24.6 1.1 0
24.9 1.1 0
25.2 1.1 0
25.5 1.1 0
25.8 1.1 0
26.1 1.1 0
26.4 1.1 0
26.7 1.1 0
27 1.1 0
27.3 1.1 0
27.6 1.1 0
27.9 1.1 0
28.2 1.1 0
28.5 1.1 0
28.8 1.1 0
29.1 1.1 0
29.4 1.1 0
29.7 1.1 0
30 1.1 0
30.3 1.1 0
30.6 1.1 0
0 1.2 0
0.3 1.2 0
0.6 1.2 0
0.9 1.2 0
1.2 1.2 0
1.5 1.2 0
1.8 1.2 0
2.1 1.2 0
2.4 1.2 0
2.7 1.2 0
3 1.2 0
3.3 1.2 0
3.6 1.2 0
3.9 1.2 0
4.2 1.2 0
4.5 1.2 0
4.8 1.2 0
5.1 1.2 0
5.4 1.2 0
5.7 1.2 0
6 1.2 0
6.3 1.2 0
6.6 1.2 0
6.9 1.2 0
7.2 1.2 0
7.5 1.2 0
7.8 1.2 0
8.1 1.2 0
8.4 1.2 0
8.7 1.2 0
9 1.2 0
9.3 1.2 0
9.6 1.2 0
9.9 1.2 0
10.2 1.2 0
10.5 1.2 0
10.8 1.2 0
11.1 1.2 0
11.4 1.2 0
11.7 1.2 0
12 1.2 0
12.3 1.2 0
12.6 1.2 0
12.9 1.2 0
13.2 1.2 0
13.5 1.2 0
13.8 1.2 0
14.1 1.2 0
14.4 1.2 0
14.7 1.2 0
15 1.2 0
15.3 1.2 0
15.6 1.2 0
15.9 1.2 0
16.2 1.2 0
16.5 1.2 0
16.8 1.2 0
17.1 1.2 0
17.4 1.2 0
17.7 1.2 0
18 1.2 0
18.3 1.2 0
18.6 1.2 0
18.9 1.2 0
19.2 1.2 0
19.5 1.2 0
19.8 1.2 0
20.1 1.2 0
20.4 1.2 0
20.7 1.2 0
21 1.2 0
21.3 1.2 0
21.6 1.2 0
21.9 1.2 0
22.2 1.2 0
22.5 1.2 0
22.8 1.2 0
23.1 1.2 0
23.4 1.2 0
23.7 1.2 0
24 1.2 0
24.3 1.2 0
24.6 1.2 0
24.9 1.2 0
25.2 1.2 0
25.5 1.2 0
25.8 1.2 0
26.1 1.2 0
26.4 1.2 0
26.7 1.2 0
27 1.2 0
27.3 1.2 0
27.6 1.2 0
27.9 1.2 0
28.2 1.2 0
28.5 1.2 0
28.8 1.2 0
29.1 1.2 0
29.4 1.2 0
29.7 1.2 0
30 1.2 0
30.3 1.2 0
30.6 1.2 0

POINT_DATA 1339

SCALARS pressure double
LOOKUP_TABLE pressure
1.17137
1.17137
1.10653
1.06229
1.02247
0.985893
0.952841
0.923314
0.896958
0.873249
0.851647
0.831684
0.81299
0.795291
0.778385
0.762125
0.746406
0.73115
0.716298
0.701804
0.687629
0.673744
0.660123
0.646745
0.633589
0.620639
0.607879
0.595297
0.58288
0.570615
0.558495
0.546508
0.534647
0.522903
0.511271
0.499742
0.48831
0.47697
0.465717
0.454546
0.44345
0.432428
0.421474
0.410584
0.399755
0.388983
0.378266
0.367601
0.356984
0.346412
0.335885
0.325398
0.31495
0.30454
0.294163
0.28382
0.273508
0.263226
0.252971
0.242743
0.23254
0.222361
0.212204
0.202068
0.191952
0.181856
0.171777
0.161716
0.151671
0.141641
0.131625
0.121623
0.111635
0.101658
0.091694
0.0817409
0.0717987
0.0618669
0.051945
0.0420327
0.0321297
0.0222357
0.0123502
0.00247307
-0.00739612
-0.0172577
-0.027112
-0.0369593
-0.0468001
-0.0566347
-0.0664635
-0.076287
-0.0861056
-0.0959195
-0.105729
-0.115536
-0.125338
-0.135138
-0.144936
-0.154731
-0.164524
-0.174315
0.174315
1.17137
1.17137
1.10653
1.06229
1.02247
0.985893
0.952841
0.923314
0.896958
0.873249
0.851647
0.831684
0.81299
0.795291
0.778385
0.762125
0.746406
0.73115
0.716298
0.701804
0.687629
0.673744
0.660123
0.646745
0.633589
0.620639
0.607879
0.595297
0.58288
0.570615
0.558495
0.546508
0.534647
0.522903
0.511271
0.499742
0.48831
0.47697
0.465717
0.454546
0.44345
0.432428
0.421474
0.410584
0.399755
0.388983
0.378266
0.367601
0.356984
0.346412
0.335885
0.325398
0.31495
0.30454
0.294163
0.28382
0.273508
0.263226
0.252971
0.242743
0.23254
0.222361
0.212204
0.202068
0.191952
0.181856
0.171777
0.161716
0.151671
0.141641
0.131625
0.121623
0.111635
0.101658
0.091694
0.0817409
0.0717987
0.0618669
0.051945
0.0420327
0.0321297
0.0222357
0.0123502
0.00247307
-0.00739612
-0.0172577
-0.027112
-0.0369593
-0.0468001
-0.0566347
-0.0664635
-0.076287
-0.0861056
-0.0959195
-0.105729
-0.115536
-0.125338
-0.135138
-0.144936
-0.154731
-0.164524
-0.174315
0.174315
1.15043
1.15043
1.10454
1.06252
1.02317
0.986689
0.953584
0.923945
0.897465
0.873644
0.851951
0.831917
0.813172
0.795436
0.778502
0.762223
0.746489
0.731221
0.716361
0.701859
0.687679
0.673788
0.660164
0.646782
0.633623
0.62067
0.607908
0.595323
0.582904
0.570637
0.558515
0.546527
0.534665
0.52292
0.511286
0.499756
0.488324
0.476983
0.465729
0.454557
0.443461
0.432438
0.421483
0.410593
0.399763
0.388991
0.378274
0.367608
0.35699
0.346419
0.335891
0.325404
0.314956
0.304544
0.294168
0.283824
0.273512
0.26323
0.252975
0.242746
0.232543
0.222364
0.212207
0.202071
0.191955
0.181858
0.17178
0.161718
0.151673
0.141643
0.131627
0.121625
0.111636
0.10166
0.0916955
0.0817423
0.0718
0.0618681
0.0519461
0.0420338
0.0321307
0.0222365
0.012351
0.00247376
-0.00739552
-0.0172572
-0.0271115
-0.0369589
-0.0467998
-0.0566344
-0.0664633
-0.0762868
-0.0861054
-0.0959194
-0.105729
-0.115536
-0.125338
-0.135138
-0.144936
-0.154731
-0.164524
-0.174315
0.174315
1.13545
1.13545
1.10166
1.06275
1.02428
0.988013
0.954845
0.925024
0.898327
0.874303
0.852443
0.832282
0.813444
0.795641
0.77866
0.762348
0.74659
0.731305
0.716432
0.70192
0.687732
0.673835
0.660205
0.646819
0.633656
0.6207
0.607935
0.595348
0.582926
0.570658
0.558534
0.546545
0.534681
0.522935
0.5113
0.499769
0.488336
0.476994
0.46574
0.454566
0.44347
0.432446
0.421491
0.4106
0.39977
0.388997
0.37828
0.367613
0.356995
0.346424
0.335895
0.325408
0.31496
0.304548
0.294172
0.283828
0.273516
0.263233
0.252978
0.242749
0.232546
0.222366
0.212209
0.202073
0.191957
0.18186
0.171782
0.16172
0.151674
0.141644
0.131628
0.121626
0.111638
0.101661
0.0916966
0.0817434
0.071801
0.061869
0.051947
0.0420345
0.0321314
0.0222372
0.0123516
0.00247429
-0.00739506
-0.0172568
-0.0271112
-0.0369586
-0.0467995
-0.0566342
-0.0664631
-0.0762867
-0.0861053
-0.0959193
-0.105729
-0.115535
-0.125338
-0.135138
-0.144936
-0.15473
-0.164523
-0.174313
0.174313
1.12588
1.12588
1.09917
1.06286
1.02524
0.989208
0.956022
0.92606
0.89918
0.874976
0.85296
0.832676
0.813746
0.795875
0.778846
0.762497
0.746713
0.731409
0.71652
0.701996
0.687798
0.673893
0.660257
0.646865
0.633697
0.620737
0.607969
0.595379
0.582954
0.570683
0.558557
0.546566
0.5347
0.522953
0.511317
0.499784
0.48835
0.477007
0.465752
0.454577
0.44348
0.432456
0.4215
0.410608
0.399778
0.389005
0.378287
0.36762
0.357001
0.346429
0.335901
0.325413
0.314964
0.304553
0.294176
0.283832
0.273519
0.263236
0.252981
0.242752
0.232549
0.222369
0.212211
0.202075
0.191959
0.181863
0.171784
0.161722
0.151676
0.141646
0.13163
0.121628
0.111639
0.101663
0.0916979
0.0817446
0.0718022
0.0618701
0.051948
0.0420355
0.0321323
0.0222381
0.0123524
0.00247507
-0.00739433
-0.0172561
-0.0271105
-0.0369581
-0.046799
-0.0566337
-0.0664627
-0.0762863
-0.086105
-0.095919
-0.105729
-0.115535
-0.125338
-0.135138
-0.144935
-0.15473
-0.164522
-0.17431
0.17431
1.12056
1.12056
1.09754
1.06288
1.02583
0.989975
0.956792
0.926749
0.899757
0.87544
0.853325
0.832961
0.813969
0.796052
0.778988
0.762615
0.746812
0.731493
0.716593
0.70206
0.687855
0.673944
0.660303
0.646906
0.633734
0.62077
0.607999
0.595406
0.582979
0.570707
0.558579
0.546586
0.534718
0.52297
0.511332
0.499799
0.488363
0.47702
0.465763
0.454588
0.44349
0.432465
0.421508
0.410616
0.399785
0.389012
0.378293
0.367626
0.357007
0.346435
0.335906
0.325418
0.314969
0.304557
0.29418
0.283836
0.273523
0.26324
0.252984
0.242755
0.232552
0.222372
0.212214
0.202078
0.191962
0.181865
0.171786
0.161724
0.151678
0.141648
0.131632
0.12163
0.111641
0.101664
0.0916992
0.0817459
0.0718034
0.0618712
0.0519491
0.0420366
0.0321333
0.022239
0.0123533
0.00247593
-0.00739352
-0.0172553
-0.0271098
-0.0369574
-0.0467984
-0.0566332
-0.0664622
-0.0762858
-0.0861045
-0.0959186
-0.105729
-0.115535
-0.125338
-0.135138
-0.144935
-0.15473
-0.164521
-0.174307
0.174307
1.11886
1.11886
1.097
1.06289
1.02604
0.990249
0.957065
0.926995
0.899964
0.875607
0.853457
0.833065
0.814052
0.796119
0.779043
0.76266
0.746851
0.731527
0.716623
0.702086
0.687878
0.673965
0.660322
0.646923
0.63375
0.620785
0.608012
0.595418
0.58299
0.570717
0.558588
0.546594
0.534726
0.522977
0.511339
0.499805
0.488369
0.477025
0.465768
0.454593
0.443495
0.432469
0.421512
0.41062
0.399789
0.389015
0.378296
0.367629
0.35701
0.346437
0.335908
0.32542
0.314971
0.304559
0.294182
0.283837
0.273525
0.263241
0.252986
0.242757
0.232553
0.222373
0.212215
0.202079
0.191963
0.181866
0.171787
0.161725
0.151679
0.141648
0.131632
0.12163
0.111641
0.101665
0.0916998
0.0817464
0.0718039
0.0618717
0.0519496
0.042037
0.0321338
0.0222395
0.0123537
0.00247632
-0.00739314
-0.017255
-0.0271095
-0.0369571
-0.0467981
-0.0566329
-0.0664619
-0.0762856
-0.0861043
-0.0959184
-0.105728
-0.115535
-0.125338
-0.135138
-0.144935
-0.15473
-0.164521
-0.174305
0.174305
1.12056
1.12056
1.09754
1.06288
1.02583
0.989975
0.956792
0.926749
0.899757
0.87544
0.853325
0.832961
0.813969
0.796052
0.778988
0.762615
0.746812
0.731494
0.716593
0.70206
0.687854
0.673944
0.660303
0.646906
0.633734
0.620771
0.607999
0.595406
0.582979
0.570707
0.558579
0.546585
0.534718
0.52297
0.511332
0.499799
0.488363
0.47702
0.465763
0.454588
0.44349
0.432465
0.421508
0.410616
0.399785
0.389012
0.378293
0.367626
0.357007
0.346435
0.335906
0.325418
0.314969
0.304557
0.29418
0.283836
0.273523
0.263239
0.252984
0.242755
0.232552
0.222372
0.212214
0.202078
0.191962
0.181865
0.171786
0.161724
0.151678
0.141648
0.131632
0.12163
0.111641
0.101664
0.0916992
0.0817459
0.0718034
0.0618712
0.0519491
0.0420366
0.0321333
0.022239
0.0123533
0.00247593
-0.00739352
-0.0172553
-0.0271098
-0.0369574
-0.0467984
-0.0566332
-0.0664622
-0.0762858
-0.0861045
-0.0959186
-0.105729
-0.115535
-0.125338
-0.135138
-0.144935
-0.15473
-0.164521
-0.174307
0.174307
1.12588
1.12588
1.09917
1.06286
1.02524
0.989209
0.956023
0.926059
0.899179
0.874976
0.85296
0.832677
0.813746
0.795875
0.778846
0.762497
0.746713
0.731409
0.71652
0.701996
0.687798
0.673894
0.660257
0.646865
0.633697
0.620737
0.607969
0.595378
0.582954
0.570684
0.558557
0.546566
0.5347
0.522953
0.511317
0.499784
0.48835
0.477007
0.465752
0.454577
0.44348
0.432456
0.4215
0.410608
0.399778
0.389005
0.378287
0.36762
0.357001
0.346429
0.335901
0.325413
0.314964
0.304553
0.294176
0.283832
0.273519
0.263236
0.252981
0.242752
0.232549
0.222369
0.212212
0.202075
0.191959
0.181862
0.171784
0.161722
0.151676
0.141646
0.13163
0.121628
0.111639
0.101663
0.0916979
0.0817446
0.0718022
0.0618701
0.051948
0.0420355
0.0321323
0.0222381
0.0123524
0.00247506
-0.00739433
-0.0172561
-0.0271105
-0.0369581
-0.046799
-0.0566338
-0.0664627
-0.0762863
-0.086105
-0.095919
-0.105729
-0.115535
-0.125338
-0.135138
-0.144935
-0.15473
-0.164522
-0.17431
0.17431
1.13545
1.13545
1.10166
1.06275
1.02428
0.988014
0.954846
0.925023
0.898326
0.874303
0.852443
0.832282
0.813444
0.795641
0.77866
0.762347
0.74659
0.731306
0.716432
0.70192
0.687731
0.673836
0.660206
0.646819
0.633656
0.6207
0.607935
0.595348
0.582926
0.570658
0.558534
0.546545
0.534681
0.522935
0.5113
0.499769
0.488336
0.476994
0.465739
0.454566
0.44347
0.432446
0.421491
0.4106
0.39977
0.388998
0.37828
0.367613
0.356995
0.346424
0.335895
0.325408
0.31496
0.304548
0.294172
0.283828
0.273516
0.263233
0.252978
0.242749
0.232546
0.222366
0.212209
0.202073
0.191957
0.18186
0.171782
0.16172
0.151674
0.141644
0.131628
0.121626
0.111638
0.101661
0.0916966
0.0817434
0.071801
0.061869
0.0519469
0.0420345
0.0321314
0.0222372
0.0123516
0.00247428
-0.00739506
-0.0172568
-0.0271112
-0.0369586
-0.0467995
-0.0566342
-0.0664632
-0.0762867
-0.0861053
-0.0959193
-0.105729
-0.115535
-0.125338
-0.135138
-0.144936
-0.15473
-0.164523
-0.174313
0.174313
1.15043
1.15043
1.10454
1.06252
1.02317
0.98669
0.953584
0.923944
0.897465
0.873644
0.85195
0.831917
0.813172
0.795436
0.778502
0.762222
0.746489
0.731222
0.716361
0.701859
0.687678
0.673789
0.660164
0.646782
0.633623
0.62067
0.607908
0.595323
0.582904
0.570638
0.558515
0.546527
0.534665
0.52292
0.511286
0.499756
0.488324
0.476983
0.465729
0.454557
0.443461
0.432438
0.421483
0.410592
0.399763
0.388991
0.378274
0.367608
0.35699
0.346419
0.335891
0.325404
0.314956
0.304544
0.294168
0.283825
0.273512
0.26323
0.252975
0.242747
0.232543
0.222364
0.212207
0.202071
0.191955
0.181858
0.17178
0.161718
0.151673
0.141643
0.131627
0.121625
0.111636
0.10166
0.0916955
0.0817423
0.0718
0.061868
0.0519461
0.0420338
0.0321307
0.0222365
0.012351
0.00247376
-0.00739552
-0.0172572
-0.0271115
-0.0369589
-0.0467998
-0.0566344
-0.0664633
-0.0762868
-0.0861054
-0.0959194
-0.105729
-0.115536
-0.125338
-0.135138
-0.144936
-0.154731
-0.164524
-0.174315
0.174315
1.17137
1.17137
1.10653
1.06229
1.02247
0.985894
0.952841
0.923313
0.896958
0.873249
0.851647
0.831683
0.812991
0.795292
0.778385
0.762125
0.746406
0.731151
0.716299
0.701804
0.687629
0.673744
0.660124
0.646745
0.633589
0.620639
0.60788
0.595297
0.582879
0.570615
0.558495
0.546508
0.534647
0.522904
0.511271
0.499742
0.48831
0.476971
0.465717
0.454545
0.443451
0.432428
0.421473
0.410584
0.399755
0.388983
0.378266
0.367601
0.356984
0.346413
0.335885
0.325398
0.31495
0.30454
0.294163
0.28382
0.273508
0.263226
0.252971
0.242743
0.23254
0.222361
0.212204
0.202068
0.191952
0.181856
0.171777
0.161716
0.151671
0.141641
0.131625
0.121623
0.111635
0.101658
0.091694
0.0817409
0.0717987
0.0618668
0.051945
0.0420327
0.0321297
0.0222357
0.0123502
0.00247307
-0.00739613
-0.0172577
-0.027112
-0.0369593
-0.0468001
-0.0566347
-0.0664636
-0.076287
-0.0861056
-0.0959196
-0.105729
-0.115536
-0.125338
-0.135138
-0.144936
-0.154731
-0.164524
-0.174315
0.174315
1.17137
1.17137
1.10653
1.06229
1.02247
0.985894
0.952841
0.923313
0.896958
0.873249
0.851647
0.831683
0.812991
0.795292
0.778385
0.762125
0.746406
0.731151
0.716299
0.701804
0.687629
0.673744
0.660124
0.646745
0.633589
0.620639
0.60788
0.595297
0.582879
0.570615
0.558495
0.546508
0.534647
0.522904
0.511271
0.499742
0.48831
0.476971
0.465717
0.454545
0.443451
0.432428
0.421473
0.410584
0.399755
0.388983
0.378266
0.367601
0.356984
0.346413
0.335885
0.325398
0.31495
0.30454
0.294163
0.28382
0.273508
0.263226
0.252971
0.242743
0.23254
0.222361
0.212204
0.202068
0.191952
0.181856
0.171777
0.161716
0.151671
0.141641
0.131625
0.121623
0.111635
0.101658
0.091694
0.0817409
0.0717987
0.0618668
0.051945
0.0420327
0.0321297
0.0222357
0.0123502
0.00247307
-0.00739613
-0.0172577
-0.027112
-0.0369593
-0.0468001
-0.0566347
-0.0664636
-0.076287
-0.0861056
-0.0959196
-0.105729
-0.115536
-0.125338
-0.135138
-0.144936
-0.154731
-0.164524
-0.174315
0.174315
SCALARS phi double
LOOKUP_TABLE phi
1
1
1
1
0.999999
0.999994
0.999983
0.999958
0.99991
0.99983
0.999706
0.999526
0.999278
0.998951
0.998536
0.998024
0.997407
0.996678
0.995834
0.994869
0.993783
0.992573
0.991241
0.989787
0.988214
0.986522
0.984704
0.982741
0.980601
0.97823
0.975557
0.972496
0.968949
0.964813
0.959991
0.95439
0.947931
0.94055
0.932201
0.922857
0.912506
0.901155
0.888827
0.875557
0.861392
0.84639
0.830613
0.814132
0.797018
0.779347
0.761194
0.742632
0.723735
0.704572
0.68521
0.665712
0.646137
0.626541
0.606973
0.587482
0.56811
0.548894
0.52987
0.511069
0.492518
0.474241
0.456259
0.43859
0.42125
0.404252
0.387606
0.37132
0.355402
0.339856
0.324686
0.309894
0.29548
0.281445
0.267788
0.254506
0.241597
0.229058
0.216887
0.205079
0.193632
0.18254
0.171802
0.161414
0.151372
0.141674
0.132318
0.123302
0.114624
0.106284
0.0982818
0.0906162
0.083292
0.0762961
0.0696785
0.063269
0.057679
0.050689
0.050689
1
1
1
1
0.999999
0.999994
0.999983
0.999958
0.99991
0.99983
0.999706
0.999526
0.999278
0.998951
0.998536
0.998024
0.997407
0.996678
0.995834
0.994869
0.993783
0.992573
0.991241
0.989787
0.988214
0.986522
0.984704
0.982741
0.980601
0.97823
0.975557
0.972496
0.968949
0.964813
0.959991
0.95439
0.947931
0.94055
0.932201
0.922857
0.912506
0.901155
0.888827
0.875557
0.861392
0.84639
0.830613
0.814132
0.797018
0.779347
0.761194
0.742632
0.723735
0.704572
0.68521
0.665712
0.646137
0.626541
0.606973
0.587482
0.56811
0.548894
0.52987
0.511069
0.492518
0.474241
0.456259
0.43859
0.42125
0.404252
0.387606
0.37132
0.355402
0.339856
0.324686
0.309894
0.29548
0.281445
0.267788
0.254506
0.241597
0.229058
0.216887
0.205079
0.193632
0.18254
0.171802
0.161414
0.151372
0.141674
0.132318
0.123302
0.114624
0.106284
0.0982818
0.0906162
0.083292
0.0762961
0.0696785
0.063269
0.057679
0.050689
0.050689
1
1
1
0.999996
0.999983
0.999954
0.999898
0.999804
0.999658
0.999447
0.999157
0.998778
0.9983
0.997714
0.997014
0.996196
0.995256
0.994192
0.993003
0.991689
0.990252
0.988694
0.987016
0.985224
0.98332
0.981309
0.979194
0.976975
0.974646
0.972196
0.969602
0.966829
0.963834
0.960562
0.956951
0.952936
0.948449
0.943424
0.9378
0.931525
0.924552
0.916847
0.908388
0.899162
0.889167
0.878411
0.866914
0.854702
0.841808
0.828272
0.814139
0.799456
0.784274
0.768646
0.752623
0.736258
0.719604
0.702711
0.685627
0.6684
0.651074
0.633692
0.616292
0.598912
0.581586
0.564345
0.547218
0.530231
0.513409
0.496772
0.480339
0.464128
0.448154
0.432429
0.416964
0.401768
0.38685
0.372215
0.357867
0.34381
0.330045
0.316574
0.303395
0.290507
0.277909
0.265596
0.253565
0.241812
0.230331
0.219118
0.208168
0.197474
0.187032
0.176836
0.166883
0.157166
0.147693
0.138431
0.129483
0.120506
0.112676
0.102031
0.102031
0.999997
1
0.99998
0.999897
0.999724
0.999434
0.998999
0.998397
0.997613
0.996636
0.995464
0.994099
0.992547
0.990816
0.988916
0.986859
0.984656
0.982317
0.979854
0.977278
0.974598
0.971826
0.968969
0.966037
0.963036
0.959976
0.956863
0.953702
0.950498
0.947254
0.943968
0.940636
0.93725
0.933794
0.930249
0.926589
0.922786
0.918804
0.914608
0.910159
0.905419
0.900351
0.89492
0.889093
0.882841
0.876142
0.868977
0.861332
0.853199
0.844576
0.835465
0.825874
0.815812
0.805297
0.794346
0.782982
0.771228
0.75911
0.746657
0.733896
0.720856
0.707568
0.69406
0.680363
0.666504
0.652512
0.638413
0.624235
0.610002
0.595737
0.581464
0.567204
0.552976
0.538799
0.524691
0.510666
0.49674
0.482924
0.469231
0.455671
0.44225
0.428978
0.415858
0.402894
0.39009
0.377446
0.364961
0.352633
0.34046
0.328435
0.316552
0.304805
0.293183
0.281677
0.270278
0.258968
0.247752
0.236564
0.225571
0.214191
0.204257
0.189877
0.189877
0.999999
1
0.99943
0.998224
0.996402
0.994008
0.991093
0.987716
0.983939
0.979828
0.975446
0.970853
0.966103
0.961239
0.9563
0.951318
0.946317
0.94132
0.936342
0.931396
0.926494
0.921643
0.91685
0.91212
0.907457
0.902862
0.898338
0.893885
0.889505
0.885196
0.880957
0.876786
0.872681