# vtk DataFile Version 3.0
FlowField
ASCII
DATASET STRUCTURED_GRID
DIMENSIONS 103 13 1 
POINTS 1339 double
0 0 0
0.3 0 0
0.6 0 0
0.9 0 0
1.2 0 0
1.5 0 0
1.8 0 0
2.1 0 0
2.4 0 0
2.7 0 0
3 0 0
3.3 0 0
3.6 0 0
3.9 0 0
4.2 0 0
4.5 0 0
4.8 0 0
5.1 0 0
5.4 0 0
5.7 0 0
6 0 0
6.3 0 0
6.6 0 0
6.9 0 0
7.2 0 0
7.5 0 0
7.8 0 0
8.1 0 0
8.4 0 0
8.7 0 0
9 0 0
9.3 0 0
9.6 0 0
9.9 0 0
10.2 0 0
10.5 0 0
10.8 0 0
11.1 0 0
11.4 0 0
11.7 0 0
12 0 0
12.3 0 0
12.6 0 0
12.9 0 0
13.2 0 0
13.5 0 0
13.8 0 0
14.1 0 0
14.4 0 0
14.7 0 0
15 0 0
15.3 0 0
15.6 0 0
15.9 0 0
16.2 0 0
16.5 0 0
16.8 0 0
17.1 0 0
17.4 0 0
17.7 0 0
18 0 0
18.3 0 0
18.6 0 0
18.9 0 0
19.2 0 0
19.5 0 0
19.8 0 0
20.1 0 0
20.4 0 0
20.7 0 0
21 0 0
21.3 0 0
21.6 0 0
21.9 0 0
22.2 0 0
22.5 0 0
22.8 0 0
23.1 0 0
23.4 0 0
23.7 0 0
24 0 0
24.3 0 0
24.6 0 0
24.9 0 0
25.2 0 0
25.5 0 0
25.8 0 0
26.1 0 0
26.4 0 0
26.7 0 0
27 0 0
27.3 0 0
27.6 0 0
27.9 0 0
28.2 0 0
28.5 0 0
28.8 0 0
29.1 0 0
29.4 0 0
29.7 0 0
30 0 0
30.3 0 0
30.6 0 0
0 0.1 0
0.3 0.1 0
0.6 0.1 0
0.9 0.1 0
1.2 0.1 0
1.5 0.1 0
1.8 0.1 0
2.1 0.1 0
2.4 0.1 0
2.7 0.1 0
3 0.1 0
3.3 0.1 0
3.6 0.1 0
3.9 0.1 0
4.2 0.1 0
4.5 0.1 0
4.8 0.1 0
5.1 0.1 0
5.4 0.1 0
5.7 0.1 0
6 0.1 0
6.3 0.1 0
6.6 0.1 0
6.9 0.1 0
7.2 0.1 0
7.5 0.1 0
7.8 0.1 0
8.1 0.1 0
8.4 0.1 0
8.7 0.1 0
9 0.1 0
9.3 0.1 0
9.6 0.1 0
9.9 0.1 0
10.2 0.1 0
10.5 0.1 0
10.8 0.1 0
11.1 0.1 0
11.4 0.1 0
11.7 0.1 0
12 0.1 0
12.3 0.1 0
12.6 0.1 0
12.9 0.1 0
13.2 0.1 0
13.5 0.1 0
13.8 0.1 0
14.1 0.1 0
14.4 0.1 0
14.7 0.1 0
15 0.1 0
15.3 0.1 0
15.6 0.1 0
15.9 0.1 0
16.2 0.1 0
16.5 0.1 0
16.8 0.1 0
17.1 0.1 0
17.4 0.1 0
17.7 0.1 0
18 0.1 0
18.3 0.1 0
18.6 0.1 0
18.9 0.1 0
19.2 0.1 0
19.5 0.1 0
19.8 0.1 0
20.1 0.1 0
20.4 0.1 0
20.7 0.1 0
21 0.1 0
21.3 0.1 0
21.6 0.1 0
21.9 0.1 0
22.2 0.1 0
22.5 0.1 0
22.8 0.1 0
23.1 0.1 0
23.4 0.1 0
23.7 0.1 0
24 0.1 0
24.3 0.1 0
24.6 0.1 0
24.9 0.1 0
25.2 0.1 0
25.5 0.1 0
25.8 0.1 0
26.1 0.1 0
26.4 0.1 0
26.7 0.1 0
27 0.1 0
27.3 0.1 0
27.6 0.1 0
27.9 0.1 0
28.2 0.1 0
28.5 0.1 0
28.8 0.1 0
29.1 0.1 0
29.4 0.1 0
29.7 0.1 0
30 0.1 0
30.3 0.1 0
30.6 0.1 0
0 0.2 0
0.3 0.2 0
0.6 0.2 0
0.9 0.2 0
1.2 0.2 0
1.5 0.2 0
1.8 0.2 0
2.1 0.2 0
2.4 0.2 0
2.7 0.2 0
3 0.2 0
3.3 0.2 0
3.6 0.2 0
3.9 0.2 0
4.2 0.2 0
4.5 0.2 0
4.8 0.2 0
5.1 0.2 0
5.4 0.2 0
5.7 0.2 0
6 0.2 0
6.3 0.2 0
6.6 0.2 0
6.9 0.2 0
7.2 0.2 0
7.5 0.2 0
7.8 0.2 0
8.1 0.2 0
8.4 0.2 0
8.7 0.2 0
9 0.2 0
9.3 0.2 0
9.6 0.2 0
9.9 0.2 0
10.2 0.2 0
10.5 0.2 0
10.8 0.2 0
11.1 0.2 0
11.4 0.2 0
11.7 0.2 0
12 0.2 0
12.3 0.2 0
12.6 0.2 0
12.9 0.2 0
13.2 0.2 0
13.5 0.2 0
13.8 0.2 0
14.1 0.2 0
14.4 0.2 0
14.7 0.2 0
15 0.2 0
15.3 0.2 0
15.6 0.2 0
15.9 0.2 0
16.2 0.2 0
16.5 0.2 0
16.8 0.2 0
17.1 0.2 0
17.4 0.2 0
17.7 0.2 0
18 0.2 0
18.3 0.2 0
18.6 0.2 0
18.9 0.2 0
19.2 0.2 0
19.5 0.2 0
19.8 0.2 0
20.1 0.2 0
20.4 0.2 0
20.7 0.2 0
21 0.2 0
21.3 0.2 0
21.6 0.2 0
21.9 0.2 0
22.2 0.2 0
22.5 0.2 0
22.8 0.2 0
23.1 0.2 0
23.4 0.2 0
23.7 0.2 0
24 0.2 0
24.3 0.2 0
24.6 0.2 0
24.9 0.2 0
25.2 0.2 0
25.5 0.2 0
25.8 0.2 0
26.1 0.2 0
26.4 0.2 0
26.7 0.2 0
27 0.2 0
27.3 0.2 0
27.6 0.2 0
27.9 0.2 0
28.2 0.2 0
28.5 0.2 0
28.8 0.2 0
29.1 0.2 0
29.4 0.2 0
29.7 0.2 0
30 0.2 0
30.3 0.2 0
30.6 0.2 0
0 0.3 0
0.3 0.3 0
0.6 0.3 0
0.9 0.3 0
1.2 0.3 0
1.5 0.3 0
1.8 0.3 0
2.1 0.3 0
2.4 0.3 0
2.7 0.3 0
3 0.3 0
3.3 0.3 0
3.6 0.3 0
3.9 0.3 0
4.2 0.3 0
4.5 0.3 0
4.8 0.3 0
5.1 0.3 0
5.4 0.3 0
5.7 0.3 0
6 0.3 0
6.3 0.3 0
6.6 0.3 0
6.9 0.3 0
7.2 0.3 0
7.5 0.3 0
7.8 0.3 0
8.1 0.3 0
8.4 0.3 0
8.7 0.3 0
9 0.3 0
9.3 0.3 0
9.6 0.3 0
9.9 0.3 0
10.2 0.3 0
10.5 0.3 0
10.8 0.3 0
11.1 0.3 0
11.4 0.3 0
11.7 0.3 0
12 0.3 0
12.3 0.3 0
12.6 0.3 0
12.9 0.3 0
13.2 0.3 0
13.5 0.3 0
13.8 0.3 0
14.1 0.3 0
14.4 0.3 0
14.7 0.3 0
15 0.3 0
15.3 0.3 0
15.6 0.3 0
15.9 0.3 0
16.2 0.3 0
16.5 0.3 0
16.8 0.3 0
17.1 0.3 0
17.4 0.3 0
17.7 0.3 0
18 0.3 0
18.3 0.3 0
18.6 0.3 0
18.9 0.3 0
19.2 0.3 0
19.5 0.3 0
19.8 0.3 0
20.1 0.3 0
20.4 0.3 0
20.7 0.3 0
21 0.3 0
21.3 0.3 0
21.6 0.3 0
21.9 0.3 0
22.2 0.3 0
22.5 0.3 0
22.8 0.3 0
23.1 0.3 0
23.4 0.3 0
23.7 0.3 0
24 0.3 0
24.3 0.3 0
24.6 0.3 0
24.9 0.3 0
25.2 0.3 0
25.5 0.3 0
25.8 0.3 0
26.1 0.3 0
26.4 0.3 0
26.7 0.3 0
27 0.3 0
27.3 0.3 0
27.6 0.3 0
27.9 0.3 0
28.2 0.3 0
28.5 0.3 0
28.8 0.3 0
29.1 0.3 0
29.4 0.3 0
29.7 0.3 0
30 0.3 0
30.3 0.3 0
30.6 0.3 0
0 0.4 0
0.3 0.4 0
0.6 0.4 0
0.9 0.4 0
1.2 0.4 0
1.5 0.4 0
1.8 0.4 0
2.1 0.4 0
2.4 0.4 0
2.7 0.4 0
3 0.4 0
3.3 0.4 0
3.6 0.4 0
3.9 0.4 0
4.2 0.4 0
4.5 0.4 0
4.8 0.4 0
5.1 0.4 0
5.4 0.4 0
5.7 0.4 0
6 0.4 0
6.3 0.4 0
6.6 0.4 0
6.9 0.4 0
7.2 0.4 0
7.5 0.4 0
7.8 0.4 0
8.1 0.4 0
8.4 0.4 0
8.7 0.4 0
9 0.4 0
9.3 0.4 0
9.6 0.4 0
9.9 0.4 0
10.2 0.4 0
10.5 0.4 0
10.8 0.4 0
11.1 0.4 0
11.4 0.4 0
11.7 0.4 0
12 0.4 0
12.3 0.4 0
12.6 0.4 0
12.9 0.4 0
13.2 0.4 0
13.5 0.4 0
13.8 0.4 0
14.1 0.4 0
14.4 0.4 0
14.7 0.4 0
15 0.4 0
15.3 0.4 0
15.6 0.4 0
15.9 0.4 0
16.2 0.4 0
16.5 0.4 0
16.8 0.4 0
17.1 0.4 0
17.4 0.4 0
17.7 0.4 0
18 0.4 0
18.3 0.4 0
18.6 0.4 0
18.9 0.4 0
19.2 0.4 0
19.5 0.4 0
19.8 0.4 0
20.1 0.4 0
20.4 0.4 0
20.7 0.4 0
21 0.4 0
21.3 0.4 0
21.6 0.4 0
21.9 0.4 0
22.2 0.4 0
22.5 0.4 0
22.8 0.4 0
23.1 0.4 0
23.4 0.4 0
23.7 0.4 0
24 0.4 0
24.3 0.4 0
24.6 0.4 0
24.9 0.4 0
25.2 0.4 0
25.5 0.4 0
25.8 0.4 0
26.1 0.4 0
26.4 0.4 0
26.7 0.4 0
27 0.4 0
27.3 0.4 0
27.6 0.4 0
27.9 0.4 0
28.2 0.4 0
28.5 0.4 0
28.8 0.4 0
29.1 0.4 0
29.4 0.4 0
29.7 0.4 0
30 0.4 0
30.3 0.4 0
30.6 0.4 0
0 0.5 0
0.3 0.5 0
0.6 0.5 0
0.9 0.5 0
1.2 0.5 0
1.5 0.5 0
1.8 0.5 0
2.1 0.5 0
2.4 0.5 0
2.7 0.5 0
3 0.5 0
3.3 0.5 0
3.6 0.5 0
3.9 0.5 0
4.2 0.5 0
4.5 0.5 0
4.8 0.5 0
5.1 0.5 0
5.4 0.5 0
5.7 0.5 0
6 0.5 0
6.3 0.5 0
6.6 0.5 0
6.9 0.5 0
7.2 0.5 0
7.5 0.5 0
7.8 0.5 0
8.1 0.5 0
8.4 0.5 0
8.7 0.5 0
9 0.5 0
9.3 0.5 0
9.6 0.5 0
9.9 0.5 0
10.2 0.5 0
10.5 0.5 0
10.8 0.5 0
11.1 0.5 0
11.4 0.5 0
11.7 0.5 0
12 0.5 0
12.3 0.5 0
12.6 0.5 0
12.9 0.5 0
13.2 0.5 0
13.5 0.5 0
13.8 0.5 0
14.1 0.5 0
14.4 0.5 0
14.7 0.5 0
15 0.5 0
15.3 0.5 0
15.6 0.5 0
15.9 0.5 0
16.2 0.5 0
16.5 0.5 0
16.8 0.5 0
17.1 0.5 0
17.4 0.5 0
17.7 0.5 0
18 0.5 0
18.3 0.5 0
18.6 0.5 0
18.9 0.5 0
19.2 0.5 0
19.5 0.5 0
19.8 0.5 0
20.1 0.5 0
20.4 0.5 0
20.7 0.5 0
21 0.5 0
21.3 0.5 0
21.6 0.5 0
21.9 0.5 0
22.2 0.5 0
22.5 0.5 0
22.8 0.5 0
23.1 0.5 0
23.4 0.5 0
23.7 0.5 0
24 0.5 0
24.3 0.5 0
24.6 0.5 0
24.9 0.5 0
25.2 0.5 0
25.5 0.5 0
25.8 0.5 0
26.1 0.5 0
26.4 0.5 0
26.7 0.5 0
27 0.5 0
27.3 0.5 0
27.6 0.5 0
27.9 0.5 0
28.2 0.5 0
28.5 0.5 0
28.8 0.5 0
29.1 0.5 0
29.4 0.5 0
29.7 0.5 0
30 0.5 0
30.3 0.5 0
30.6 0.5 0
0 0.6 0
0.3 0.6 0
0.6 0.6 0
0.9 0.6 0
1.2 0.6 0
1.5 0.6 0
1.8 0.6 0
2.1 0.6 0
2.4 0.6 0
2.7 0.6 0
3 0.6 0
3.3 0.6 0
3.6 0.6 0
3.9 0.6 0
4.2 0.6 0
4.5 0.6 0
4.8 0.6 0
5.1 0.6 0
5.4 0.6 0
5.7 0.6 0
6 0.6 0
6.3 0.6 0
6.6 0.6 0
6.9 0.6 0
7.2 0.6 0
7.5 0.6 0
7.8 0.6 0
8.1 0.6 0
8.4 0.6 0
8.7 0.6 0
9 0.6 0
9.3 0.6 0
9.6 0.6 0
9.9 0.6 0
10.2 0.6 0
10.5 0.6 0
10.8 0.6 0
11.1 0.6 0
11.4 0.6 0
11.7 0.6 0
12 0.6 0
12.3 0.6 0
12.6 0.6 0
12.9 0.6 0
13.2 0.6 0
13.5 0.6 0
13.8 0.6 0
14.1 0.6 0
14.4 0.6 0
14.7 0.6 0
15 0.6 0
15.3 0.6 0
15.6 0.6 0
15.9 0.6 0
16.2 0.6 0
16.5 0.6 0
16.8 0.6 0
17.1 0.6 0
17.4 0.6 0
17.7 0.6 0
18 0.6 0
18.3 0.6 0
18.6 0.6 0
18.9 0.6 0
19.2 0.6 0
19.5 0.6 0
19.8 0.6 0
20.1 0.6 0
20.4 0.6 0
20.7 0.6 0
21 0.6 0
21.3 0.6 0
21.6 0.6 0
21.9 0.6 0
22.2 0.6 0
22.5 0.6 0
22.8 0.6 0
23.1 0.6 0
23.4 0.6 0
23.7 0.6 0
24 0.6 0
24.3 0.6 0
24.6 0.6 0
24.9 0.6 0
25.2 0.6 0
25.5 0.6 0
25.8 0.6 0
26.1 0.6 0
26.4 0.6 0
26.7 0.6 0
27 0.6 0
27.3 0.6 0
27.6 0.6 0
27.9 0.6 0
28.2 0.6 0
28.5 0.6 0
28.8 0.6 0
29.1 0.6 0
29.4 0.6 0
29.7 0.6 0
30 0.6 0
30.3 0.6 0
30.6 0.6 0
0 0.7 0
0.3 0.7 0
0.6 0.7 0
0.9 0.7 0
1.2 0.7 0
1.5 0.7 0
1.8 0.7 0
2.1 0.7 0
2.4 0.7 0
2.7 0.7 0
3 0.7 0
3.3 0.7 0
3.6 0.7 0
3.9 0.7 0
4.2 0.7 0
4.5 0.7 0
4.8 0.7 0
5.1 0.7 0
5.4 0.7 0
5.7 0.7 0
6 0.7 0
6.3 0.7 0
6.6 0.7 0
6.9 0.7 0
7.2 0.7 0
7.5 0.7 0
7.8 0.7 0
8.1 0.7 0
8.4 0.7 0
8.7 0.7 0
9 0.7 0
9.3 0.7 0
9.6 0.7 0
9.9 0.7 0
10.2 0.7 0
10.5 0.7 0
10.8 0.7 0
11.1 0.7 0
11.4 0.7 0
11.7 0.7 0
12 0.7 0
12.3 0.7 0
12.6 0.7 0
12.9 0.7 0
13.2 0.7 0
13.5 0.7 0
13.8 0.7 0
14.1 0.7 0
14.4 0.7 0
14.7 0.7 0
15 0.7 0
15.3 0.7 0
15.6 0.7 0
15.9 0.7 0
16.2 0.7 0
16.5 0.7 0
16.8 0.7 0
17.1 0.7 0
17.4 0.7 0
17.7 0.7 0
18 0.7 0
18.3 0.7 0
18.6 0.7 0
18.9 0.7 0
19.2 0.7 0
19.5 0.7 0
19.8 0.7 0
20.1 0.7 0
20.4 0.7 0
20.7 0.7 0
21 0.7 0
21.3 0.7 0
21.6 0.7 0
21.9 0.7 0
22.2 0.7 0
22.5 0.7 0
22.8 0.7 0
23.1 0.7 0
23.4 0.7 0
23.7 0.7 0
24 0.7 0
24.3 0.7 0
24.6 0.7 0
24.9 0.7 0
25.2 0.7 0
25.5 0.7 0
25.8 0.7 0
26.1 0.7 0
26.4 0.7 0
26.7 0.7 0
27 0.7 0
27.3 0.7 0
27.6 0.7 0
27.9 0.7 0
28.2 0.7 0
28.5 0.7 0
28.8 0.7 0
29.1 0.7 0
29.4 0.7 0
29.7 0.7 0
30 0.7 0
30.3 0.7 0
30.6 0.7 0
0 0.8 0
0.3 0.8 0
0.6 0.8 0
0.9 0.8 0
1.2 0.8 0
1.5 0.8 0
1.8 0.8 0
2.1 0.8 0
2.4 0.8 0
2.7 0.8 0
3 0.8 0
3.3 0.8 0
3.6 0.8 0
3.9 0.8 0
4.2 0.8 0
4.5 0.8 0
4.8 0.8 0
5.1 0.8 0
5.4 0.8 0
5.7 0.8 0
6 0.8 0
6.3 0.8 0
6.6 0.8 0
6.9 0.8 0
7.2 0.8 0
7.5 0.8 0
7.8 0.8 0
8.1 0.8 0
8.4 0.8 0
8.7 0.8 0
9 0.8 0
9.3 0.8 0
9.6 0.8 0
9.9 0.8 0
10.2 0.8 0
10.5 0.8 0
10.8 0.8 0
11.1 0.8 0
11.4 0.8 0
11.7 0.8 0
12 0.8 0
12.3 0.8 0
12.6 0.8 0
12.9 0.8 0
13.2 0.8 0
13.5 0.8 0
13.8 0.8 0
14.1 0.8 0
14.4 0.8 0
14.7 0.8 0
15 0.8 0
15.3 0.8 0
15.6 0.8 0
15.9 0.8 0
16.2 0.8 0
16.5 0.8 0
16.8 0.8 0
17.1 0.8 0
17.4 0.8 0
17.7 0.8 0
18 0.8 0
18.3 0.8 0
18.6 0.8 0
18.9 0.8 0
19.2 0.8 0
19.5 0.8 0
19.8 0.8 0
20.1 0.8 0
20.4 0.8 0
20.7 0.8 0
21 0.8 0
21.3 0.8 0
21.6 0.8 0
21.9 0.8 0
22.2 0.8 0
22.5 0.8 0
22.8 0.8 0
23.1 0.8 0
23.4 0.8 0
23.7 0.8 0
24 0.8 0
24.3 0.8 0
24.6 0.8 0
24.9 0.8 0
25.2 0.8 0
25.5 0.8 0
25.8 0.8 0
26.1 0.8 0
26.4 0.8 0
26.7 0.8 0
27 0.8 0
27.3 0.8 0
27.6 0.8 0
27.9 0.8 0
28.2 0.8 0
28.5 0.8 0
28.8 0.8 0
29.1 0.8 0
29.4 0.8 0
29.7 0.8 0
30 0.8 0
30.3 0.8 0
30.6 0.8 0
0 0.9 0
0.3 0.9 0
0.6 0.9 0
0.9 0.9 0
1.2 0.9 0
1.5 0.9 0
1.8 0.9 0
2.1 0.9 0
2.4 0.9 0
2.7 0.9 0
3 0.9 0
3.3 0.9 0
3.6 0.9 0
3.9 0.9 0
4.2 0.9 0
4.5 0.9 0
4.8 0.9 0
5.1 0.9 0
5.4 0.9 0
5.7 0.9 0
6 0.9 0
6.3 0.9 0
6.6 0.9 0
6.9 0.9 0
7.2 0.9 0
7.5 0.9 0
7.8 0.9 0
8.1 0.9 0
8.4 0.9 0
8.7 0.9 0
9 0.9 0
9.3 0.9 0
9.6 0.9 0
9.9 0.9 0
10.2 0.9 0
10.5 0.9 0
10.8 0.9 0
11.1 0.9 0
11.4 0.9 0
11.7 0.9 0
12 0.9 0
12.3 0.9 0
12.6 0.9 0
12.9 0.9 0
13.2 0.9 0
13.5 0.9 0
13.8 0.9 0
14.1 0.9 0
14.4 0.9 0
14.7 0.9 0
15 0.9 0
15.3 0.9 0
15.6 0.9 0
15.9 0.9 0
16.2 0.9 0
16.5 0.9 0
16.8 0.9 0
17.1 0.9 0
17.4 0.9 0
17.7 0.9 0
18 0.9 0
18.3 0.9 0
18.6 0.9 0
18.9 0.9 0
19.2 0.9 0
19.5 0.9 0
19.8 0.9 0
20.1 0.9 0
20.4 0.9 0
20.7 0.9 0
21 0.9 0
21.3 0.9 0
21.6 0.9 0
21.9 0.9 0
22.2 0.9 0
22.5 0.9 0
22.8 0.9 0
23.1 0.9 0
23.4 0.9 0
23.7 0.9 0
24 0.9 0
24.3 0.9 0
24.6 0.9 0
24.9 0.9 0
25.2 0.9 0
25.5 0.9 0
25.8 0.9 0
26.1 0.9 0
26.4 0.9 0
26.7 0.9 0
27 0.9 0
27.3 0.9 0
27.6 0.9 0
27.9 0.9 0
28.2 0.9 0
28.5 0.9 0
28.8 0.9 0
29.1 0.9 0
29.4 0.9 0
29.7 0.9 0
30 0.9 0
30.3 0.9 0
30.6 0.9 0
0 1 0
0.3 1 0
0.6 1 0
0.9 1 0
1.2 1 0
1.5 1 0
1.8 1 0
2.1 1 0
2.4 1 0
2.7 1 0
3 1 0
3.3 1 0
3.6 1 0
3.9 1 0
4.2 1 0
4.5 1 0
4.8 1 0
5.1 1 0
5.4 1 0
5.7 1 0
6 1 0
6.3 1 0
6.6 1 0
6.9 1 0
7.2 1 0
7.5 1 0
7.8 1 0
8.1 1 0
8.4 1 0
8.7 1 0
9 1 0
9.3 1 0
9.6 1 0
9.9 1 0
10.2 1 0
10.5 1 0
10.8 1 0
11.1 1 0
11.4 1 0
11.7 1 0
12 1 0
12.3 1 0
12.6 1 0
12.9 1 0
13.2 1 0
13.5 1 0
13.8 1 0
14.1 1 0
14.4 1 0
14.7 1 0
15 1 0
15.3 1 0
15.6 1 0
15.9 1 0
16.2 1 0
16.5 1 0
16.8 1 0
17.1 1 0
17.4 1 0
17.7 1 0
18 1 0
18.3 1 0
18.6 1 0
18.9 1 0
19.2 1 0
19.5 1 0
19.8 1 0
20.1 1 0
20.4 1 0
20.7 1 0
21 1 0
21.3 1 0
21.6 1 0
21.9 1 0
22.2 1 0
22.5 1 0
22.8 1 0
23.1 1 0
23.4 1 0
23.7 1 0
24 1 0
24.3 1 0
24.6 1 0
24.9 1 0
25.2 1 0
25.5 1 0
25.8 1 0
26.1 1 0
26.4 1 0
26.7 1 0
27 1 0
27.3 1 0
27.6 1 0
27.9 1 0
28.2 1 0
28.5 1 0
28.8 1 0
29.1 1 0
29.4 1 0
29.7 1 0
30 1 0
30.3 1 0
30.6 1 0
0 1.1 0
0.3 1.1 0
0.6 1.1 0
0.9 1.1 0
1.2 1.1 0
1.5 1.1 0
1.8 1.1 0
2.1 1.1 0
2.4 1.1 0
2.7 1.1 0
3 1.1 0
3.3 1.1 0
3.6 1.1 0
3.9 1.1 0
4.2 1.1 0
4.5 1.1 0
4.8 1.1 0
5.1 1.1 0
5.4 1.1 0
5.7 1.1 0
6 1.1 0
6.3 1.1 0
6.6 1.1 0
6.9 1.1 0
7.2 1.1 0
7.5 1.1 0
7.8 1.1 0
8.1 1.1 0
8.4 1.1 0
8.7 1.1 0
9 1.1 0
9.3 1.1 0
9.6 1.1 0
9.9 1.1 0
10.2 1.1 0
10.5 1.1 0
10.8 1.1 0
11.1 1.1 0
11.4 1.1 0
11.7 1.1 0
12 1.1 0
12.3 1.1 0
12.6 1.1 0
12.9 1.1 0
13.2 1.1 0
13.5 1.1 0
13.8 1.1 0
14.1 1.1 0
14.4 1.1 0
14.7 1.1 0
15 1.1 0
15.3 1.1 0
15.6 1.1 0
15.9 1.1 0
16.2 1.1 0
16.5 1.1 0
16.8 1.1 0
17.1 1.1 0
17.4 1.1 0
17.7 1.1 0
18 1.1 0
18.3 1.1 0
18.6 1.1 0
18.9 1.1 0
19.2 1.1 0
19.5 1.1 0
19.8 1.1 0
20.1 1.1 0
20.4 1.1 0
20.7 1.1 0
21 1.1 0
21.3 1.1 0
21.6 1.1 0
21.9 1.1 0
22.2 1.1 0
22.5 1.1 0
22.8 1.1 0
23.1 1.1 0
23.4 1.1 0
23.7 1.1 0
24 1.1 0
24.3 1.1 0
24.6 1.1 0
24.9 1.1 0
25.2 1.1 0
25.5 1.1 0
25.8 1.1 0
26.1 1.1 0
26.4 1.1 0
26.7 1.1 0
27 1.1 0
27.3 1.1 0
27.6 1.1 0
27.9 1.1 0
28.2 1.1 0
28.5 1.1 0
28.8 1.1 0
29.1 1.1 0
29.4 1.1 0
29.7 1.1 0
30 1.1 0
30.3 1.1 0
30.6 1.1 0
0 1.2 0
0.3 1.2 0
0.6 1.2 0
0.9 1.2 0
1.2 1.2 0
1.5 1.2 0
1.8 1.2 0
2.1 1.2 0
2.4 1.2 0
2.7 1.2 0
3 1.2 0
3.3 1.2 0
3.6 1.2 0
3.9 1.2 0
4.2 1.2 0
4.5 1.2 0
4.8 1.2 0
5.1 1.2 0
5.4 1.2 0
5.7 1.2 0
6 1.2 0
6.3 1.2 0
6.6 1.2 0
6.9 1.2 0
7.2 1.2 0
7.5 1.2 0
7.8 1.2 0
8.1 1.2 0
8.4 1.2 0
8.7 1.2 0
9 1.2 0
9.3 1.2 0
9.6 1.2 0
9.9 1.2 0
10.2 1.2 0
10.5 1.2 0
10.8 1.2 0
11.1 1.2 0
11.4 1.2 0
11.7 1.2 0
12 1.2 0
12.3 1.2 0
12.6 1.2 0
12.9 1.2 0
13.2 1.2 0
13.5 1.2 0
13.8 1.2 0
14.1 1.2 0
14.4 1.2 0
14.7 1.2 0
15 1.2 0
15.3 1.2 0
15.6 1.2 0
15.9 1.2 0
16.2 1.2 0
16.5 1.2 0
16.8 1.2 0
17.1 1.2 0
17.4 1.2 0
17.7 1.2 0
18 1.2 0
18.3 1.2 0
18.6 1.2 0
18.9 1.2 0
19.2 1.2 0
19.5 1.2 0
19.8 1.2 0
20.1 1.2 0
20.4 1.2 0
20.7 1.2 0
21 1.2 0
21.3 1.2 0
21.6 1.2 0
21.9 1.2 0
22.2 1.2 0
22.5 1.2 0
22.8 1.2 0
23.1 1.2 0
23.4 1.2 0
23.7 1.2 0
24 1.2 0
24.3 1.2 0
24.6 1.2 0
24.9 1.2 0
25.2 1.2 0
25.5 1.2 0
25.8 1.2 0
26.1 1.2 0
26.4 1.2 0
26.7 1.2 0
27 1.2 0
27.3 1.2 0
27.6 1.2 0
27.9 1.2 0
28.2 1.2 0
28.5 1.2 0
28.8 1.2 0
29.1 1.2 0
29.4 1.2 0
29.7 1.2 0
30 1.2 0
30.3 1.2 0
30.6 1.2 0

POINT_DATA 1339

SCALARS pressure double
LOOKUP_TABLE pressure
1.17113
1.17113
1.10629
1.06205
1.02223
0.985656
0.952603
0.923075
0.89672
0.873011
0.851408
0.831445
0.812752
0.795053
0.778146
0.761887
0.746168
0.730912
0.71606
0.701565
0.687391
0.673506
0.659885
0.646507
0.633351
0.620401
0.607641
0.595059
0.582641
0.570377
0.558256
0.546269
0.534408
0.522665
0.511032
0.499503
0.488071
0.476732
0.465478
0.454307
0.443212
0.432189
0.421234
0.410344
0.399515
0.388743
0.378026
0.36736
0.356742
0.34617
0.335642
0.325156
0.314709
0.304301
0.293931
0.283596
0.273296
0.26303
0.252798
0.242597
0.232428
0.222288
0.212178
0.202094
0.192037
0.182003
0.171992
0.162001
0.152029
0.142073
0.132132
0.122203
0.112285
0.102377
0.092477
0.0825834
0.0726952
0.0628115
0.0529314
0.0430541
0.0331791
0.0233058
0.0134339
0.00356306
-0.00630702
-0.0161765
-0.0260456
-0.0359144
-0.0457829
-0.0556512
-0.0655195
-0.0753876
-0.0852557
-0.0951238
-0.104992
-0.11486
-0.124728
-0.134596
-0.144464
-0.154332
-0.1642
-0.174065
0.174065
1.17113
1.17113
1.10629
1.06205
1.02223
0.985656
0.952603
0.923075
0.89672
0.873011
0.851408
0.831445
0.812752
0.795053
0.778146
0.761887
0.746168
0.730912
0.71606
0.701565
0.687391
0.673506
0.659885
0.646507
0.633351
0.620401
0.607641
0.595059
0.582641
0.570377
0.558256
0.546269
0.534408
0.522665
0.511032
0.499503
0.488071
0.476732
0.465478
0.454307
0.443212
0.432189
0.421234
0.410344
0.399515
0.388743
0.378026
0.36736
0.356742
0.34617
0.335642
0.325156
0.314709
0.304301
0.293931
0.283596
0.273296
0.26303
0.252798
0.242597
0.232428
0.222288
0.212178
0.202094
0.192037
0.182003
0.171992
0.162001
0.152029
0.142073
0.132132
0.122203
0.112285
0.102377
0.092477
0.0825834
0.0726952
0.0628115
0.0529314
0.0430541
0.0331791
0.0233058
0.0134339
0.00356306
-0.00630702
-0.0161765
-0.0260456
-0.0359144
-0.0457829
-0.0556512
-0.0655195
-0.0753876
-0.0852557
-0.0951238
-0.104992
-0.11486
-0.124728
-0.134596
-0.144464
-0.154332
-0.1642
-0.174065
0.174065
1.15019
1.15019
1.1043
1.06228
1.02293
0.986452
0.953346
0.923707
0.897227
0.873406
0.851712
0.831679
0.812934
0.795198
0.778264
0.761984
0.746251
0.730983
0.716122
0.70162
0.68744
0.67355
0.659925
0.646543
0.633384
0.620431
0.607669
0.595085
0.582665
0.570399
0.558277
0.546289
0.534426
0.522682
0.511048
0.499518
0.488085
0.476745
0.46549
0.454318
0.443222
0.432199
0.421244
0.410353
0.399524
0.388751
0.378033
0.367366
0.356748
0.346176
0.335648
0.325161
0.314714
0.304306
0.293935
0.2836
0.2733
0.263033
0.2528
0.242599
0.23243
0.22229
0.212179
0.202096
0.192038
0.182004
0.171993
0.162002
0.152029
0.142073
0.132132
0.122203
0.112285
0.102377
0.092477
0.0825833
0.0726952
0.0628114
0.0529313
0.0430541
0.033179
0.0233058
0.0134339
0.00356304
-0.00630704
-0.0161765
-0.0260456
-0.0359144
-0.0457829
-0.0556512
-0.0655195
-0.0753876
-0.0852557
-0.0951238
-0.104992
-0.11486
-0.124728
-0.134596
-0.144464
-0.154332
-0.1642
-0.174065
0.174065
1.13521
1.13521
1.10142
1.06251
1.02405
0.987776
0.954608
0.924785
0.898088
0.874065
0.852204
0.832044
0.813206
0.795403
0.778422
0.762109
0.746352
0.731067
0.716193
0.701681
0.687493
0.673597
0.659967
0.64658
0.633417
0.620461
0.607696
0.595109
0.582687
0.57042
0.558296
0.546306
0.534442
0.522696
0.511061
0.49953
0.488097
0.476755
0.465501
0.454327
0.443231
0.432207
0.421251
0.41036
0.39953
0.388758
0.378039
0.367372
0.356753
0.346181
0.335652
0.325165
0.314718
0.30431
0.293938
0.283603
0.273302
0.263036
0.252803
0.242601
0.232431
0.222291
0.21218
0.202096
0.192039
0.182005
0.171993
0.162002
0.152029
0.142073
0.132132
0.122203
0.112285
0.102377
0.0924769
0.0825833
0.0726951
0.0628114
0.0529313
0.043054
0.033179
0.0233058
0.0134339
0.00356302
-0.00630706
-0.0161766
-0.0260456
-0.0359144
-0.0457829
-0.0556513
-0.0655195
-0.0753876
-0.0852557
-0.0951238
-0.104992
-0.11486
-0.124728
-0.134596
-0.144464
-0.154332
-0.164199
-0.174064
0.174064
1.12564
1.12564
1.09893
1.06262
1.025
0.988971
0.955784
0.925822
0.898942
0.874737
0.852722
0.832438
0.813508
0.795637
0.778607
0.762258
0.746475
0.731171
0.716281
0.701757
0.687559
0.673655
0.660019
0.646626
0.633459
0.620498
0.60773
0.59514
0.582715
0.570445
0.558319
0.546327
0.534462
0.522714
0.511078
0.499545
0.488111
0.476768
0.465513
0.454339
0.443241
0.432217
0.421261
0.410369
0.399538
0.388765
0.378046
0.367379
0.35676
0.346187
0.335658
0.32517
0.314723
0.304314
0.293943
0.283607
0.273306
0.263039
0.252806
0.242604
0.232434
0.222294
0.212183
0.202099
0.19204
0.182006
0.171995
0.162003
0.152031
0.142074
0.132133
0.122204
0.112286
0.102378
0.0924773
0.0825835
0.0726953
0.0628115
0.0529314
0.0430541
0.0331791
0.0233058
0.0134339
0.00356305
-0.00630704
-0.0161765
-0.0260456
-0.0359144
-0.0457829
-0.0556512
-0.0655195
-0.0753876
-0.0852557
-0.0951238
-0.104992
-0.11486
-0.124728
-0.134596
-0.144464
-0.154331
-0.164197
-0.174063
0.174063
1.12032
1.12032
1.09731
1.06264
1.02559
0.989737
0.956553
0.926511
0.899519
0.875201
0.853086
0.832723
0.813731
0.795814
0.77875
0.762376
0.746574
0.731255
0.716355
0.701822
0.687616
0.673706
0.660064
0.646667
0.633496
0.620532
0.607761
0.595168
0.582741
0.570468
0.55834
0.546347
0.53448
0.522731
0.511093
0.49956
0.488124
0.476781
0.465524
0.454349
0.443251
0.432226
0.421269
0.410377
0.399546
0.388772
0.378053
0.367385
0.356765
0.346192
0.335663
0.325175
0.314728
0.304319
0.293947
0.283611
0.27331
0.263043
0.252809
0.242608
0.232437
0.222297
0.212186
0.202101
0.192043
0.182009
0.171997
0.162005
0.152032
0.142076
0.132134
0.122205
0.112287
0.102378
0.0924779
0.082584
0.0726957
0.0628119
0.0529316
0.0430543
0.0331792
0.0233059
0.013434
0.00356311
-0.00630699
-0.0161765
-0.0260456
-0.0359143
-0.0457829
-0.0556512
-0.0655195
-0.0753876
-0.0852557
-0.0951238
-0.104992
-0.11486
-0.124728
-0.134596
-0.144463
-0.154331
-0.164195
-0.174062
0.174062
1.11862
1.11862
1.09676
1.06265
1.0258
0.990011
0.956827
0.926756
0.899726
0.875368
0.853219
0.832827
0.813813
0.79588
0.778805
0.762422
0.746613
0.731289
0.716384
0.701848
0.687639
0.673727
0.660083
0.646684
0.633511
0.620546
0.607774
0.595179
0.582751
0.570478
0.558349
0.546355
0.534488
0.522738
0.5111
0.499566
0.48813
0.476786
0.465529
0.454354
0.443256
0.43223
0.421273
0.410381
0.399549
0.388775
0.378056
0.367388
0.356768
0.346195
0.335665
0.325177
0.31473
0.304321
0.293949
0.283613
0.273312
0.263045
0.252811
0.24261
0.232439
0.222299
0.212187
0.202103
0.192044
0.18201
0.171998
0.162006
0.152033
0.142076
0.132134
0.122205
0.112287
0.102379
0.0924782
0.0825843
0.0726959
0.062812
0.0529318
0.0430544
0.0331793
0.023306
0.013434
0.00356315
-0.00630697
-0.0161765
-0.0260456
-0.0359143
-0.0457829
-0.0556512
-0.0655195
-0.0753876
-0.0852557
-0.0951238
-0.104992
-0.11486
-0.124728
-0.134596
-0.144463
-0.15433
-0.164194
-0.174062
0.174062
1.12032
1.12032
1.09731
1.06264
1.02559
0.989737
0.956553
0.926511
0.899519
0.875201
0.853086
0.832723
0.813731
0.795814
0.77875
0.762376
0.746574
0.731255
0.716355
0.701822
0.687616
0.673706
0.660064
0.646667
0.633496
0.620532
0.607761
0.595168
0.582741
0.570468
0.55834
0.546347
0.53448
0.522731
0.511093
0.49956
0.488124
0.476781
0.465524
0.454349
0.443251
0.432226
0.421269
0.410377
0.399546
0.388772
0.378053
0.367385
0.356765
0.346192
0.335663
0.325175
0.314728
0.304319
0.293947
0.283611
0.27331
0.263043
0.252809
0.242608
0.232437
0.222297
0.212186
0.202101
0.192043
0.182009
0.171997
0.162005
0.152032
0.142076
0.132134
0.122205
0.112287
0.102378
0.0924779
0.082584
0.0726957
0.0628119
0.0529316
0.0430543
0.0331792
0.0233059
0.013434
0.00356311
-0.00630699
-0.0161765
-0.0260456
-0.0359143
-0.0457829
-0.0556512
-0.0655195
-0.0753876
-0.0852557
-0.0951238
-0.104992
-0.11486
-0.124728
-0.134596
-0.144463
-0.154331
-0.164195
-0.174062
0.174062
1.12564
1.12564
1.09893
1.06262
1.025
0.988971
0.955784
0.925822
0.898942
0.874737
0.852722
0.832438
0.813508
0.795637
0.778607
0.762258
0.746475
0.731171
0.716281
0.701757
0.687559
0.673655
0.660019
0.646626
0.633459
0.620498
0.60773
0.59514
0.582715
0.570445
0.558319
0.546327
0.534462
0.522714
0.511078
0.499545
0.488111
0.476768
0.465513
0.454339
0.443241
0.432217
0.421261
0.410369
0.399538
0.388765
0.378046
0.367379
0.35676
0.346187
0.335658
0.32517
0.314723
0.304314
0.293943
0.283607
0.273306
0.263039
0.252806
0.242604
0.232434
0.222294
0.212183
0.202099
0.19204
0.182006
0.171995
0.162003
0.152031
0.142074
0.132133
0.122204
0.112286
0.102378
0.0924773
0.0825835
0.0726953
0.0628115
0.0529314
0.0430541
0.0331791
0.0233058
0.0134339
0.00356305
-0.00630704
-0.0161765
-0.0260456
-0.0359144
-0.0457829
-0.0556512
-0.0655195
-0.0753876
-0.0852557
-0.0951238
-0.104992
-0.11486
-0.124728
-0.134596
-0.144464
-0.154331
-0.164197
-0.174063
0.174063
1.13521
1.13521
1.10142
1.06251
1.02405
0.987776
0.954608
0.924785
0.898088
0.874065
0.852204
0.832044
0.813206
0.795403
0.778422
0.762109
0.746352
0.731067
0.716193
0.701681
0.687493
0.673597
0.659967
0.64658
0.633417
0.620461
0.607696
0.595109
0.582687
0.57042
0.558296
0.546306
0.534442
0.522696
0.511061
0.49953
0.488097
0.476755
0.465501
0.454327
0.443231
0.432207
0.421251
0.41036
0.39953
0.388758
0.378039
0.367372
0.356753
0.346181
0.335652
0.325165
0.314718
0.30431
0.293938
0.283603
0.273302
0.263036
0.252803
0.242601
0.232431
0.222291
0.21218
0.202096
0.192039
0.182005
0.171993
0.162002
0.152029
0.142073
0.132132
0.122203
0.112285
0.102377
0.0924769
0.0825833
0.0726951
0.0628114
0.0529313
0.043054
0.033179
0.0233058
0.0134339
0.00356302
-0.00630706
-0.0161766
-0.0260456
-0.0359144
-0.0457829
-0.0556512
-0.0655195
-0.0753876
-0.0852557
-0.0951238
-0.104992
-0.11486
-0.124728
-0.134596
-0.144464
-0.154332
-0.164199
-0.174064
0.174064
1.15019
1.15019
1.1043
1.06228
1.02293
0.986452
0.953346
0.923707
0.897227
0.873406
0.851712
0.831679
0.812934
0.795198
0.778264
0.761984
0.746251
0.730983
0.716122
0.70162
0.68744
0.67355
0.659925
0.646543
0.633384
0.620431
0.607669
0.595085
0.582665
0.570399
0.558277
0.546289
0.534426
0.522682
0.511048
0.499518
0.488085
0.476745
0.46549
0.454318
0.443222
0.432199
0.421244
0.410353
0.399524
0.388751
0.378033
0.367366
0.356748
0.346176
0.335648
0.325161
0.314714
0.304306
0.293935
0.2836
0.2733
0.263033
0.2528
0.242599
0.23243
0.22229
0.212179
0.202096
0.192038
0.182004
0.171993
0.162002
0.152029
0.142073
0.132132
0.122203
0.112285
0.102377
0.092477
0.0825833
0.0726951
0.0628114
0.0529313
0.0430541
0.033179
0.0233058
0.0134339
0.00356304
-0.00630704
-0.0161765
-0.0260456
-0.0359144
-0.0457829
-0.0556512
-0.0655195
-0.0753876
-0.0852557
-0.0951238
-0.104992
-0.11486
-0.124728
-0.134596
-0.144464
-0.154332
-0.1642
-0.174065
0.174065
1.17113
1.17113
1.10629
1.06205
1.02223
0.985656
0.952603
0.923075
0.89672
0.873011
0.851408
0.831445
0.812752
0.795053
0.778146
0.761887
0.746168
0.730912
0.71606
0.701565
0.687391
0.673506
0.659885
0.646507
0.633351
0.620401
0.607641
0.595059
0.582641
0.570377
0.558256
0.546269
0.534408
0.522665
0.511032
0.499503
0.488071
0.476732
0.465478
0.454307
0.443212
0.432189
0.421234
0.410344
0.399515
0.388743
0.378026
0.36736
0.356742
0.34617
0.335642
0.325156
0.314709
0.304301
0.293931
0.283596
0.273296
0.26303
0.252798
0.242597
0.232428
0.222288
0.212178
0.202094
0.192037
0.182003
0.171992
0.162001
0.152029
0.142073
0.132132
0.122203
0.112285
0.102377
0.092477
0.0825834
0.0726952
0.0628115
0.0529314
0.0430541
0.0331791
0.0233058
0.0134339
0.00356306
-0.00630703
-0.0161765
-0.0260456
-0.0359144
-0.0457829
-0.0556512
-0.0655195
-0.0753876
-0.0852557
-0.0951238
-0.104992
-0.11486
-0.124728
-0.134596
-0.144464
-0.154332
-0.1642
-0.174065
0.174065
1.17113
1.17113
1.10629
1.06205
1.02223
0.985656
0.952603
0.923075
0.89672
0.873011
0.851408
0.831445
0.812752
0.795053
0.778146
0.761887
0.746168
0.730912
0.71606
0.701565
0.687391
0.673506
0.659885
0.646507
0.633351
0.620401
0.607641
0.595059
0.582641
0.570377
0.558256
0.546269
0.534408
0.522665
0.511032
0.499503
0.488071
0.476732
0.465478
0.454307
0.443212
0.432189
0.421234
0.410344
0.399515
0.388743
0.378026
0.36736
0.356742
0.34617
0.335642
0.325156
0.314709
0.304301
0.293931
0.283596
0.273296
0.26303
0.252798
0.242597
0.232428
0.222288
0.212178
0.202094
0.192037
0.182003
0.171992
0.162001
0.152029
0.142073
0.132132
0.122203
0.112285
0.102377
0.092477
0.0825834
0.0726952
0.0628115
0.0529314
0.0430541
0.0331791
0.0233058
0.0134339
0.00356306
-0.00630703
-0.0161765
-0.0260456
-0.0359144
-0.0457829
-0.0556512
-0.0655195
-0.0753876
-0.0852557
-0.0951238
-0.104992
-0.11486
-0.124728
-0.134596
-0.144464
-0.154332
-0.1642
-0.174065
0.174065
SCALARS phi double
LOOKUP_TABLE phi
1
1
1
1
0.999998
0.999994
0.999982
0.999957
0.99991
0.99983
0.999705
0.999525
0.999277
0.998951
0.998536
0.998022
0.997403
0.996678
0.995852
0.994911
0.993798
0.992375
0.990415
0.987611
0.98362
0.978104
0.970779
0.961436
0.949958
0.936312
0.920539
0.902742
0.883066
0.861693
0.838821
0.81466
0.789426
0.763328
0.736567
0.709335
0.681806
0.654142
0.626485
0.598963
0.571688
0.544756
0.518248
0.492236
0.466775
0.441913
0.417687
0.394128
0.371255
0.349087
0.327633
0.3069
0.286891
0.267607
0.249046
0.231206
0.214083
0.197675
0.181977
0.166988
0.152704
0.139124
0.126248
0.114074
0.102603
0.0918341
0.0817662
0.0723973
0.0637233
0.0557375
0.0484304
0.0417885
0.0357944
0.0304261
0.0256572
0.0214571
0.0177911
0.0146213
0.0119072
0.00960663
0.00767673
0.00607494
0.00475985
0.00369201
0.00283461
0.00215395
0.00161975
0.0012053
0.000887456
0.000646526
0.000466009
0.000332324
0.000234469
0.000163662
0.000113046
7.71486e-05
5.26035e-05
3.29924e-05
3.29924e-05
1
1
1
1
0.999998
0.999994
0.999982
0.999957
0.99991
0.99983
0.999705
0.999525
0.999277
0.998951
0.998536
0.998022
0.997403
0.996678
0.995852
0.994911
0.993798
0.992375
0.990415
0.987611
0.98362
0.978104
0.970779
0.961436
0.949958
0.936312
0.920539
0.902742
0.883066
0.861693
0.838821
0.81466
0.789426
0.763328
0.736567
0.709335
0.681806
0.654142
0.626485
0.598963
0.571688
0.544756
0.518248
0.492236
0.466775
0.441913
0.417687
0.394128
0.371255
0.349087
0.327633
0.3069
0.286891
0.267607
0.249046
0.231206
0.214083
0.197675
0.181977
0.166988
0.152704
0.139124
0.126248
0.114074
0.102603
0.0918341
0.0817662
0.0723973
0.0637233
0.0557375
0.0484304
0.0417885
0.0357944
0.0304261
0.0256572
0.0214571
0.0177911
0.0146213
0.0119072
0.00960663
0.00767673
0.00607494
0.00475985
0.00369201
0.00283461
0.00215395
0.00161975
0.0012053
0.000887456
0.000646526
0.000466009
0.000332324
0.000234469
0.000163662
0.000113046
7.71486e-05
5.26035e-05
3.29924e-05
3.29924e-05
1
1
1
0.999996
0.999983
0.999954
0.999898
0.999804
0.999658
0.999446
0.999157
0.998778
0.998299
0.997713
0.997014
0.996196
0.995255
0.99419
0.993004
0.991697
0.990267
0.988688
0.986905
0.984818
0.982286
0.979131
0.975158
0.97017
0.963987
0.956458
0.94747
0.936954
0.924881
0.911264
0.896148
0.87961
0.861749
0.842682
0.822539
0.801453
0.779566
0.757013
0.733929
0.710443
0.686675
0.662736
0.63873
0.614751
0.590882
0.567198
0.543765
0.52064
0.49787
0.475495
0.453549
0.432057
0.411036
0.390501
0.370457
0.350907
0.331849
0.313278
0.295187
0.277567
0.260409
0.243703
0.227442
0.211621
0.19624
0.181301
0.166815
0.152795
0.139263
0.126247
0.113778
0.101894
0.0906334
0.0800333
0.0701297
0.0609527
0.0525248
0.044859
0.0379569
0.0318088
0.0263931
0.0216774
0.0176194
0.0141697
0.0112729
0.00887059
0.00690338
0.00531275
0.00404291
0.00304201
0.00226309
0.0016646
0.00121056
0.000870381
0.000618892
0.000434406
0.000304824
0.000195997
0.000195997
0.999997
1
0.99998
0.999896
0.999724
0.999434
0.998999
0.998397
0.997613
0.996636
0.995464
0.994099
0.992546
0.990816
0.988916
0.986859
0.984655
0.982316
0.979853
0.977278
0.974601
0.971829
0.968965
0.965998
0.962905
0.959645
0.95616
0.952376
0.948207
0.943561
0.938343
0.932466
0.925848
0.918419
0.910128
0.900934
0.890818
0.879774
0.867813
0.854959
0.841248
0.826726
0.81145
0.79548
0.778881
0.761722
0.744074
0.726005
0.707587
0.688885
0.669964
0.650886
0.631709
0.612485
0.593262
0.574083
0.554984
0.535995
0.517141
0.498437
0.479895
0.461517
0.443301
0.425237
0.40731
0.389502
0.371786
0.354137
0.336528
0.31893
0.301324
0.283694
0.266036
0.248364
0.230705
0.213111
0.195651
0.178416
0.161516
0.145072
0.129212
0.114068
0.0997598
0.0863968
0.0740666
0.0628322
0.0527287
0.0437628
0.0359139
0.0291366
0.0233653
0.0185187
0.0145049
0.0112269
0.00858673
0.00648947
0.00484627
0.00357605
0.00260831
0.00187652
0.00134998
0.000889106
0.000889106
0.999999
1
0.99943
0.998224