# vtk DataFile Version 3.0
FlowField
ASCII
DATASET STRUCTURED_GRID
DIMENSIONS 103 13 1 
POINTS 1339 double
0 0 0
0.3 0 0
0.6 0 0
0.9 0 0
1.2 0 0
1.5 0 0
1.8 0 0
2.1 0 0
2.4 0 0
2.7 0 0
3 0 0
3.3 0 0
3.6 0 0
3.9 0 0
4.2 0 0
4.5 0 0
4.8 0 0
5.1 0 0
5.4 0 0
5.7 0 0
6 0 0
6.3 0 0
6.6 0 0
6.9 0 0
7.2 0 0
7.5 0 0
7.8 0 0
8.1 0 0
8.4 0 0
8.7 0 0
9 0 0
9.3 0 0
9.6 0 0
9.9 0 0
10.2 0 0
10.5 0 0
10.8 0 0
11.1 0 0
11.4 0 0
11.7 0 0
12 0 0
12.3 0 0
12.6 0 0
12.9 0 0
13.2 0 0
13.5 0 0
13.8 0 0
14.1 0 0
14.4 0 0
14.7 0 0
15 0 0
15.3 0 0
15.6 0 0
15.9 0 0
16.2 0 0
16.5 0 0
16.8 0 0
17.1 0 0
17.4 0 0
17.7 0 0
18 0 0
18.3 0 0
18.6 0 0
18.9 0 0
19.2 0 0
19.5 0 0
19.8 0 0
20.1 0 0
20.4 0 0
20.7 0 0
21 0 0
21.3 0 0
21.6 0 0
21.9 0 0
22.2 0 0
22.5 0 0
22.8 0 0
23.1 0 0
23.4 0 0
23.7 0 0
24 0 0
24.3 0 0
24.6 0 0
24.9 0 0
25.2 0 0
25.5 0 0
25.8 0 0
26.1 0 0
26.4 0 0
26.7 0 0
27 0 0
27.3 0 0
27.6 0 0
27.9 0 0
28.2 0 0
28.5 0 0
28.8 0 0
29.1 0 0
29.4 0 0
29.7 0 0
30 0 0
30.3 0 0
30.6 0 0
0 0.1 0
0.3 0.1 0
0.6 0.1 0
0.9 0.1 0
1.2 0.1 0
1.5 0.1 0
1.8 0.1 0
2.1 0.1 0
2.4 0.1 0
2.7 0.1 0
3 0.1 0
3.3 0.1 0
3.6 0.1 0
3.9 0.1 0
4.2 0.1 0
4.5 0.1 0
4.8 0.1 0
5.1 0.1 0
5.4 0.1 0
5.7 0.1 0
6 0.1 0
6.3 0.1 0
6.6 0.1 0
6.9 0.1 0
7.2 0.1 0
7.5 0.1 0
7.8 0.1 0
8.1 0.1 0
8.4 0.1 0
8.7 0.1 0
9 0.1 0
9.3 0.1 0
9.6 0.1 0
9.9 0.1 0
10.2 0.1 0
10.5 0.1 0
10.8 0.1 0
11.1 0.1 0
11.4 0.1 0
11.7 0.1 0
12 0.1 0
12.3 0.1 0
12.6 0.1 0
12.9 0.1 0
13.2 0.1 0
13.5 0.1 0
13.8 0.1 0
14.1 0.1 0
14.4 0.1 0
14.7 0.1 0
15 0.1 0
15.3 0.1 0
15.6 0.1 0
15.9 0.1 0
16.2 0.1 0
16.5 0.1 0
16.8 0.1 0
17.1 0.1 0
17.4 0.1 0
17.7 0.1 0
18 0.1 0
18.3 0.1 0
18.6 0.1 0
18.9 0.1 0
19.2 0.1 0
19.5 0.1 0
19.8 0.1 0
20.1 0.1 0
20.4 0.1 0
20.7 0.1 0
21 0.1 0
21.3 0.1 0
21.6 0.1 0
21.9 0.1 0
22.2 0.1 0
22.5 0.1 0
22.8 0.1 0
23.1 0.1 0
23.4 0.1 0
23.7 0.1 0
24 0.1 0
24.3 0.1 0
24.6 0.1 0
24.9 0.1 0
25.2 0.1 0
25.5 0.1 0
25.8 0.1 0
26.1 0.1 0
26.4 0.1 0
26.7 0.1 0
27 0.1 0
27.3 0.1 0
27.6 0.1 0
27.9 0.1 0
28.2 0.1 0
28.5 0.1 0
28.8 0.1 0
29.1 0.1 0
29.4 0.1 0
29.7 0.1 0
30 0.1 0
30.3 0.1 0
30.6 0.1 0
0 0.2 0
0.3 0.2 0
0.6 0.2 0
0.9 0.2 0
1.2 0.2 0
1.5 0.2 0
1.8 0.2 0
2.1 0.2 0
2.4 0.2 0
2.7 0.2 0
3 0.2 0
3.3 0.2 0
3.6 0.2 0
3.9 0.2 0
4.2 0.2 0
4.5 0.2 0
4.8 0.2 0
5.1 0.2 0
5.4 0.2 0
5.7 0.2 0
6 0.2 0
6.3 0.2 0
6.6 0.2 0
6.9 0.2 0
7.2 0.2 0
7.5 0.2 0
7.8 0.2 0
8.1 0.2 0
8.4 0.2 0
8.7 0.2 0
9 0.2 0
9.3 0.2 0
9.6 0.2 0
9.9 0.2 0
10.2 0.2 0
10.5 0.2 0
10.8 0.2 0
11.1 0.2 0
11.4 0.2 0
11.7 0.2 0
12 0.2 0
12.3 0.2 0
12.6 0.2 0
12.9 0.2 0
13.2 0.2 0
13.5 0.2 0
13.8 0.2 0
14.1 0.2 0
14.4 0.2 0
14.7 0.2 0
15 0.2 0
15.3 0.2 0
15.6 0.2 0
15.9 0.2 0
16.2 0.2 0
16.5 0.2 0
16.8 0.2 0
17.1 0.2 0
17.4 0.2 0
17.7 0.2 0
18 0.2 0
18.3 0.2 0
18.6 0.2 0
18.9 0.2 0
19.2 0.2 0
19.5 0.2 0
19.8 0.2 0
20.1 0.2 0
20.4 0.2 0
20.7 0.2 0
21 0.2 0
21.3 0.2 0
21.6 0.2 0
21.9 0.2 0
22.2 0.2 0
22.5 0.2 0
22.8 0.2 0
23.1 0.2 0
23.4 0.2 0
23.7 0.2 0
24 0.2 0
24.3 0.2 0
24.6 0.2 0
24.9 0.2 0
25.2 0.2 0
25.5 0.2 0
25.8 0.2 0
26.1 0.2 0
26.4 0.2 0
26.7 0.2 0
27 0.2 0
27.3 0.2 0
27.6 0.2 0
27.9 0.2 0
28.2 0.2 0
28.5 0.2 0
28.8 0.2 0
29.1 0.2 0
29.4 0.2 0
29.7 0.2 0
30 0.2 0
30.3 0.2 0
30.6 0.2 0
0 0.3 0
0.3 0.3 0
0.6 0.3 0
0.9 0.3 0
1.2 0.3 0
1.5 0.3 0
1.8 0.3 0
2.1 0.3 0
2.4 0.3 0
2.7 0.3 0
3 0.3 0
3.3 0.3 0
3.6 0.3 0
3.9 0.3 0
4.2 0.3 0
4.5 0.3 0
4.8 0.3 0
5.1 0.3 0
5.4 0.3 0
5.7 0.3 0
6 0.3 0
6.3 0.3 0
6.6 0.3 0
6.9 0.3 0
7.2 0.3 0
7.5 0.3 0
7.8 0.3 0
8.1 0.3 0
8.4 0.3 0
8.7 0.3 0
9 0.3 0
9.3 0.3 0
9.6 0.3 0
9.9 0.3 0
10.2 0.3 0
10.5 0.3 0
10.8 0.3 0
11.1 0.3 0
11.4 0.3 0
11.7 0.3 0
12 0.3 0
12.3 0.3 0
12.6 0.3 0
12.9 0.3 0
13.2 0.3 0
13.5 0.3 0
13.8 0.3 0
14.1 0.3 0
14.4 0.3 0
14.7 0.3 0
15 0.3 0
15.3 0.3 0
15.6 0.3 0
15.9 0.3 0
16.2 0.3 0
16.5 0.3 0
16.8 0.3 0
17.1 0.3 0
17.4 0.3 0
17.7 0.3 0
18 0.3 0
18.3 0.3 0
18.6 0.3 0
18.9 0.3 0
19.2 0.3 0
19.5 0.3 0
19.8 0.3 0
20.1 0.3 0
20.4 0.3 0
20.7 0.3 0
21 0.3 0
21.3 0.3 0
21.6 0.3 0
21.9 0.3 0
22.2 0.3 0
22.5 0.3 0
22.8 0.3 0
23.1 0.3 0
23.4 0.3 0
23.7 0.3 0
24 0.3 0
24.3 0.3 0
24.6 0.3 0
24.9 0.3 0
25.2 0.3 0
25.5 0.3 0
25.8 0.3 0
26.1 0.3 0
26.4 0.3 0
26.7 0.3 0
27 0.3 0
27.3 0.3 0
27.6 0.3 0
27.9 0.3 0
28.2 0.3 0
28.5 0.3 0
28.8 0.3 0
29.1 0.3 0
29.4 0.3 0
29.7 0.3 0
30 0.3 0
30.3 0.3 0
30.6 0.3 0
0 0.4 0
0.3 0.4 0
0.6 0.4 0
0.9 0.4 0
1.2 0.4 0
1.5 0.4 0
1.8 0.4 0
2.1 0.4 0
2.4 0.4 0
2.7 0.4 0
3 0.4 0
3.3 0.4 0
3.6 0.4 0
3.9 0.4 0
4.2 0.4 0
4.5 0.4 0
4.8 0.4 0
5.1 0.4 0
5.4 0.4 0
5.7 0.4 0
6 0.4 0
6.3 0.4 0
6.6 0.4 0
6.9 0.4 0
7.2 0.4 0
7.5 0.4 0
7.8 0.4 0
8.1 0.4 0
8.4 0.4 0
8.7 0.4 0
9 0.4 0
9.3 0.4 0
9.6 0.4 0
9.9 0.4 0
10.2 0.4 0
10.5 0.4 0
10.8 0.4 0
11.1 0.4 0
11.4 0.4 0
11.7 0.4 0
12 0.4 0
12.3 0.4 0
12.6 0.4 0
12.9 0.4 0
13.2 0.4 0
13.5 0.4 0
13.8 0.4 0
14.1 0.4 0
14.4 0.4 0
14.7 0.4 0
15 0.4 0
15.3 0.4 0
15.6 0.4 0
15.9 0.4 0
16.2 0.4 0
16.5 0.4 0
16.8 0.4 0
17.1 0.4 0
17.4 0.4 0
17.7 0.4 0
18 0.4 0
18.3 0.4 0
18.6 0.4 0
18.9 0.4 0
19.2 0.4 0
19.5 0.4 0
19.8 0.4 0
20.1 0.4 0
20.4 0.4 0
20.7 0.4 0
21 0.4 0
21.3 0.4 0
21.6 0.4 0
21.9 0.4 0
22.2 0.4 0
22.5 0.4 0
22.8 0.4 0
23.1 0.4 0
23.4 0.4 0
23.7 0.4 0
24 0.4 0
24.3 0.4 0
24.6 0.4 0
24.9 0.4 0
25.2 0.4 0
25.5 0.4 0
25.8 0.4 0
26.1 0.4 0
26.4 0.4 0
26.7 0.4 0
27 0.4 0
27.3 0.4 0
27.6 0.4 0
27.9 0.4 0
28.2 0.4 0
28.5 0.4 0
28.8 0.4 0
29.1 0.4 0
29.4 0.4 0
29.7 0.4 0
30 0.4 0
30.3 0.4 0
30.6 0.4 0
0 0.5 0
0.3 0.5 0
0.6 0.5 0
0.9 0.5 0
1.2 0.5 0
1.5 0.5 0
1.8 0.5 0
2.1 0.5 0
2.4 0.5 0
2.7 0.5 0
3 0.5 0
3.3 0.5 0
3.6 0.5 0
3.9 0.5 0
4.2 0.5 0
4.5 0.5 0
4.8 0.5 0
5.1 0.5 0
5.4 0.5 0
5.7 0.5 0
6 0.5 0
6.3 0.5 0
6.6 0.5 0
6.9 0.5 0
7.2 0.5 0
7.5 0.5 0
7.8 0.5 0
8.1 0.5 0
8.4 0.5 0
8.7 0.5 0
9 0.5 0
9.3 0.5 0
9.6 0.5 0
9.9 0.5 0
10.2 0.5 0
10.5 0.5 0
10.8 0.5 0
11.1 0.5 0
11.4 0.5 0
11.7 0.5 0
12 0.5 0
12.3 0.5 0
12.6 0.5 0
12.9 0.5 0
13.2 0.5 0
13.5 0.5 0
13.8 0.5 0
14.1 0.5 0
14.4 0.5 0
14.7 0.5 0
15 0.5 0
15.3 0.5 0
15.6 0.5 0
15.9 0.5 0
16.2 0.5 0
16.5 0.5 0
16.8 0.5 0
17.1 0.5 0
17.4 0.5 0
17.7 0.5 0
18 0.5 0
18.3 0.5 0
18.6 0.5 0
18.9 0.5 0
19.2 0.5 0
19.5 0.5 0
19.8 0.5 0
20.1 0.5 0
20.4 0.5 0
20.7 0.5 0
21 0.5 0
21.3 0.5 0
21.6 0.5 0
21.9 0.5 0
22.2 0.5 0
22.5 0.5 0
22.8 0.5 0
23.1 0.5 0
23.4 0.5 0
23.7 0.5 0
24 0.5 0
24.3 0.5 0
24.6 0.5 0
24.9 0.5 0
25.2 0.5 0
25.5 0.5 0
25.8 0.5 0
26.1 0.5 0
26.4 0.5 0
26.7 0.5 0
27 0.5 0
27.3 0.5 0
27.6 0.5 0
27.9 0.5 0
28.2 0.5 0
28.5 0.5 0
28.8 0.5 0
29.1 0.5 0
29.4 0.5 0
29.7 0.5 0
30 0.5 0
30.3 0.5 0
30.6 0.5 0
0 0.6 0
0.3 0.6 0
0.6 0.6 0
0.9 0.6 0
1.2 0.6 0
1.5 0.6 0
1.8 0.6 0
2.1 0.6 0
2.4 0.6 0
2.7 0.6 0
3 0.6 0
3.3 0.6 0
3.6 0.6 0
3.9 0.6 0
4.2 0.6 0
4.5 0.6 0
4.8 0.6 0
5.1 0.6 0
5.4 0.6 0
5.7 0.6 0
6 0.6 0
6.3 0.6 0
6.6 0.6 0
6.9 0.6 0
7.2 0.6 0
7.5 0.6 0
7.8 0.6 0
8.1 0.6 0
8.4 0.6 0
8.7 0.6 0
9 0.6 0
9.3 0.6 0
9.6 0.6 0
9.9 0.6 0
10.2 0.6 0
10.5 0.6 0
10.8 0.6 0
11.1 0.6 0
11.4 0.6 0
11.7 0.6 0
12 0.6 0
12.3 0.6 0
12.6 0.6 0
12.9 0.6 0
13.2 0.6 0
13.5 0.6 0
13.8 0.6 0
14.1 0.6 0
14.4 0.6 0
14.7 0.6 0
15 0.6 0
15.3 0.6 0
15.6 0.6 0
15.9 0.6 0
16.2 0.6 0
16.5 0.6 0
16.8 0.6 0
17.1 0.6 0
17.4 0.6 0
17.7 0.6 0
18 0.6 0
18.3 0.6 0
18.6 0.6 0
18.9 0.6 0
19.2 0.6 0
19.5 0.6 0
19.8 0.6 0
20.1 0.6 0
20.4 0.6 0
20.7 0.6 0
21 0.6 0
21.3 0.6 0
21.6 0.6 0
21.9 0.6 0
22.2 0.6 0
22.5 0.6 0
22.8 0.6 0
23.1 0.6 0
23.4 0.6 0
23.7 0.6 0
24 0.6 0
24.3 0.6 0
24.6 0.6 0
24.9 0.6 0
25.2 0.6 0
25.5 0.6 0
25.8 0.6 0
26.1 0.6 0
26.4 0.6 0
26.7 0.6 0
27 0.6 0
27.3 0.6 0
27.6 0.6 0
27.9 0.6 0
28.2 0.6 0
28.5 0.6 0
28.8 0.6 0
29.1 0.6 0
29.4 0.6 0
29.7 0.6 0
30 0.6 0
30.3 0.6 0
30.6 0.6 0
0 0.7 0
0.3 0.7 0
0.6 0.7 0
0.9 0.7 0
1.2 0.7 0
1.5 0.7 0
1.8 0.7 0
2.1 0.7 0
2.4 0.7 0
2.7 0.7 0
3 0.7 0
3.3 0.7 0
3.6 0.7 0
3.9 0.7 0
4.2 0.7 0
4.5 0.7 0
4.8 0.7 0
5.1 0.7 0
5.4 0.7 0
5.7 0.7 0
6 0.7 0
6.3 0.7 0
6.6 0.7 0
6.9 0.7 0
7.2 0.7 0
7.5 0.7 0
7.8 0.7 0
8.1 0.7 0
8.4 0.7 0
8.7 0.7 0
9 0.7 0
9.3 0.7 0
9.6 0.7 0
9.9 0.7 0
10.2 0.7 0
10.5 0.7 0
10.8 0.7 0
11.1 0.7 0
11.4 0.7 0
11.7 0.7 0
12 0.7 0
12.3 0.7 0
12.6 0.7 0
12.9 0.7 0
13.2 0.7 0
13.5 0.7 0
13.8 0.7 0
14.1 0.7 0
14.4 0.7 0
14.7 0.7 0
15 0.7 0
15.3 0.7 0
15.6 0.7 0
15.9 0.7 0
16.2 0.7 0
16.5 0.7 0
16.8 0.7 0
17.1 0.7 0
17.4 0.7 0
17.7 0.7 0
18 0.7 0
18.3 0.7 0
18.6 0.7 0
18.9 0.7 0
19.2 0.7 0
19.5 0.7 0
19.8 0.7 0
20.1 0.7 0
20.4 0.7 0
20.7 0.7 0
21 0.7 0
21.3 0.7 0
21.6 0.7 0
21.9 0.7 0
22.2 0.7 0
22.5 0.7 0
22.8 0.7 0
23.1 0.7 0
23.4 0.7 0
23.7 0.7 0
24 0.7 0
24.3 0.7 0
24.6 0.7 0
24.9 0.7 0
25.2 0.7 0
25.5 0.7 0
25.8 0.7 0
26.1 0.7 0
26.4 0.7 0
26.7 0.7 0
27 0.7 0
27.3 0.7 0
27.6 0.7 0
27.9 0.7 0
28.2 0.7 0
28.5 0.7 0
28.8 0.7 0
29.1 0.7 0
29.4 0.7 0
29.7 0.7 0
30 0.7 0
30.3 0.7 0
30.6 0.7 0
0 0.8 0
0.3 0.8 0
0.6 0.8 0
0.9 0.8 0
1.2 0.8 0
1.5 0.8 0
1.8 0.8 0
2.1 0.8 0
2.4 0.8 0
2.7 0.8 0
3 0.8 0
3.3 0.8 0
3.6 0.8 0
3.9 0.8 0
4.2 0.8 0
4.5 0.8 0
4.8 0.8 0
5.1 0.8 0
5.4 0.8 0
5.7 0.8 0
6 0.8 0
6.3 0.8 0
6.6 0.8 0
6.9 0.8 0
7.2 0.8 0
7.5 0.8 0
7.8 0.8 0
8.1 0.8 0
8.4 0.8 0
8.7 0.8 0
9 0.8 0
9.3 0.8 0
9.6 0.8 0
9.9 0.8 0
10.2 0.8 0
10.5 0.8 0
10.8 0.8 0
11.1 0.8 0
11.4 0.8 0
11.7 0.8 0
12 0.8 0
12.3 0.8 0
12.6 0.8 0
12.9 0.8 0
13.2 0.8 0
13.5 0.8 0
13.8 0.8 0
14.1 0.8 0
14.4 0.8 0
14.7 0.8 0
15 0.8 0
15.3 0.8 0
15.6 0.8 0
15.9 0.8 0
16.2 0.8 0
16.5 0.8 0
16.8 0.8 0
17.1 0.8 0
17.4 0.8 0
17.7 0.8 0
18 0.8 0
18.3 0.8 0
18.6 0.8 0
18.9 0.8 0
19.2 0.8 0
19.5 0.8 0
19.8 0.8 0
20.1 0.8 0
20.4 0.8 0
20.7 0.8 0
21 0.8 0
21.3 0.8 0
21.6 0.8 0
21.9 0.8 0
22.2 0.8 0
22.5 0.8 0
22.8 0.8 0
23.1 0.8 0
23.4 0.8 0
23.7 0.8 0
24 0.8 0
24.3 0.8 0
24.6 0.8 0
24.9 0.8 0
25.2 0.8 0
25.5 0.8 0
25.8 0.8 0
26.1 0.8 0
26.4 0.8 0
26.7 0.8 0
27 0.8 0
27.3 0.8 0
27.6 0.8 0
27.9 0.8 0
28.2 0.8 0
28.5 0.8 0
28.8 0.8 0
29.1 0.8 0
29.4 0.8 0
29.7 0.8 0
30 0.8 0
30.3 0.8 0
30.6 0.8 0
0 0.9 0
0.3 0.9 0
0.6 0.9 0
0.9 0.9 0
1.2 0.9 0
1.5 0.9 0
1.8 0.9 0
2.1 0.9 0
2.4 0.9 0
2.7 0.9 0
3 0.9 0
3.3 0.9 0
3.6 0.9 0
3.9 0.9 0
4.2 0.9 0
4.5 0.9 0
4.8 0.9 0
5.1 0.9 0
5.4 0.9 0
5.7 0.9 0
6 0.9 0
6.3 0.9 0
6.6 0.9 0
6.9 0.9 0
7.2 0.9 0
7.5 0.9 0
7.8 0.9 0
8.1 0.9 0
8.4 0.9 0
8.7 0.9 0
9 0.9 0
9.3 0.9 0
9.6 0.9 0
9.9 0.9 0
10.2 0.9 0
10.5 0.9 0
10.8 0.9 0
11.1 0.9 0
11.4 0.9 0
11.7 0.9 0
12 0.9 0
12.3 0.9 0
12.6 0.9 0
12.9 0.9 0
13.2 0.9 0
13.5 0.9 0
13.8 0.9 0
14.1 0.9 0
14.4 0.9 0
14.7 0.9 0
15 0.9 0
15.3 0.9 0
15.6 0.9 0
15.9 0.9 0
16.2 0.9 0
16.5 0.9 0
16.8 0.9 0
17.1 0.9 0
17.4 0.9 0
17.7 0.9 0
18 0.9 0
18.3 0.9 0
18.6 0.9 0
18.9 0.9 0
19.2 0.9 0
19.5 0.9 0
19.8 0.9 0
20.1 0.9 0
20.4 0.9 0
20.7 0.9 0
21 0.9 0
21.3 0.9 0
21.6 0.9 0
21.9 0.9 0
22.2 0.9 0
22.5 0.9 0
22.8 0.9 0
23.1 0.9 0
23.4 0.9 0
23.7 0.9 0
24 0.9 0
24.3 0.9 0
24.6 0.9 0
24.9 0.9 0
25.2 0.9 0
25.5 0.9 0
25.8 0.9 0
26.1 0.9 0
26.4 0.9 0
26.7 0.9 0
27 0.9 0
27.3 0.9 0
27.6 0.9 0
27.9 0.9 0
28.2 0.9 0
28.5 0.9 0
28.8 0.9 0
29.1 0.9 0
29.4 0.9 0
29.7 0.9 0
30 0.9 0
30.3 0.9 0
30.6 0.9 0
0 1 0
0.3 1 0
0.6 1 0
0.9 1 0
1.2 1 0
1.5 1 0
1.8 1 0
2.1 1 0
2.4 1 0
2.7 1 0
3 1 0
3.3 1 0
3.6 1 0
3.9 1 0
4.2 1 0
4.5 1 0
4.8 1 0
5.1 1 0
5.4 1 0
5.7 1 0
6 1 0
6.3 1 0
6.6 1 0
6.9 1 0
7.2 1 0
7.5 1 0
7.8 1 0
8.1 1 0
8.4 1 0
8.7 1 0
9 1 0
9.3 1 0
9.6 1 0
9.9 1 0
10.2 1 0
10.5 1 0
10.8 1 0
11.1 1 0
11.4 1 0
11.7 1 0
12 1 0
12.3 1 0
12.6 1 0
12.9 1 0
13.2 1 0
13.5 1 0
13.8 1 0
14.1 1 0
14.4 1 0
14.7 1 0
15 1 0
15.3 1 0
15.6 1 0
15.9 1 0
16.2 1 0
16.5 1 0
16.8 1 0
17.1 1 0
17.4 1 0
17.7 1 0
18 1 0
18.3 1 0
18.6 1 0
18.9 1 0
19.2 1 0
19.5 1 0
19.8 1 0
20.1 1 0
20.4 1 0
20.7 1 0
21 1 0
21.3 1 0
21.6 1 0
21.9 1 0
22.2 1 0
22.5 1 0
22.8 1 0
23.1 1 0
23.4 1 0
23.7 1 0
24 1 0
24.3 1 0
24.6 1 0
24.9 1 0
25.2 1 0
25.5 1 0
25.8 1 0
26.1 1 0
26.4 1 0
26.7 1 0
27 1 0
27.3 1 0
27.6 1 0
27.9 1 0
28.2 1 0
28.5 1 0
28.8 1 0
29.1 1 0
29.4 1 0
29.7 1 0
30 1 0
30.3 1 0
30.6 1 0
0 1.1 0
0.3 1.1 0
0.6 1.1 0
0.9 1.1 0
1.2 1.1 0
1.5 1.1 0
1.8 1.1 0
2.1 1.1 0
2.4 1.1 0
2.7 1.1 0
3 1.1 0
3.3 1.1 0
3.6 1.1 0
3.9 1.1 0
4.2 1.1 0
4.5 1.1 0
4.8 1.1 0
5.1 1.1 0
5.4 1.1 0
5.7 1.1 0
6 1.1 0
6.3 1.1 0
6.6 1.1 0
6.9 1.1 0
7.2 1.1 0
7.5 1.1 0
7.8 1.1 0
8.1 1.1 0
8.4 1.1 0
8.7 1.1 0
9 1.1 0
9.3 1.1 0
9.6 1.1 0
9.9 1.1 0
10.2 1.1 0
10.5 1.1 0
10.8 1.1 0
11.1 1.1 0
11.4 1.1 0
11.7 1.1 0
12 1.1 0
12.3 1.1 0
12.6 1.1 0
12.9 1.1 0
13.2 1.1 0
13.5 1.1 0
13.8 1.1 0
14.1 1.1 0
14.4 1.1 0
14.7 1.1 0
15 1.1 0
15.3 1.1 0
15.6 1.1 0
15.9 1.1 0
16.2 1.1 0
16.5 1.1 0
16.8 1.1 0
17.1 1.1 0
17.4 1.1 0
17.7 1.1 0
18 1.1 0
18.3 1.1 0
18.6 1.1 0
18.9 1.1 0
19.2 1.1 0
19.5 1.1 0
19.8 1.1 0
20.1 1.1 0
20.4 1.1 0
20.7 1.1 0
21 1.1 0
21.3 1.1 0
21.6 1.1 0
21.9 1.1 0
22.2 1.1 0
22.5 1.1 0
22.8 1.1 0
23.1 1.1 0
23.4 1.1 0
23.7 1.1 0
24 1.1 0
24.3 1.1 0
24.6 1.1 0
24.9 1.1 0
25.2 1.1 0
25.5 1.1 0
25.8 1.1 0
26.1 1.1 0
26.4 1.1 0
26.7 1.1 0
27 1.1 0
27.3 1.1 0
27.6 1.1 0
27.9 1.1 0
28.2 1.1 0
28.5 1.1 0
28.8 1.1 0
29.1 1.1 0
29.4 1.1 0
29.7 1.1 0
30 1.1 0
30.3 1.1 0
30.6 1.1 0
0 1.2 0
0.3 1.2 0
0.6 1.2 0
0.9 1.2 0
1.2 1.2 0
1.5 1.2 0
1.8 1.2 0
2.1 1.2 0
2.4 1.2 0
2.7 1.2 0
3 1.2 0
3.3 1.2 0
3.6 1.2 0
3.9 1.2 0
4.2 1.2 0
4.5 1.2 0
4.8 1.2 0
5.1 1.2 0
5.4 1.2 0
5.7 1.2 0
6 1.2 0
6.3 1.2 0
6.6 1.2 0
6.9 1.2 0
7.2 1.2 0
7.5 1.2 0
7.8 1.2 0
8.1 1.2 0
8.4 1.2 0
8.7 1.2 0
9 1.2 0
9.3 1.2 0
9.6 1.2 0
9.9 1.2 0
10.2 1.2 0
10.5 1.2 0
10.8 1.2 0
11.1 1.2 0
11.4 1.2 0
11.7 1.2 0
12 1.2 0
12.3 1.2 0
12.6 1.2 0
12.9 1.2 0
13.2 1.2 0
13.5 1.2 0
13.8 1.2 0
14.1 1.2 0
14.4 1.2 0
14.7 1.2 0
15 1.2 0
15.3 1.2 0
15.6 1.2 0
15.9 1.2 0
16.2 1.2 0
16.5 1.2 0
16.8 1.2 0
17.1 1.2 0
17.4 1.2 0
17.7 1.2 0
18 1.2 0
18.3 1.2 0
18.6 1.2 0
18.9 1.2 0
19.2 1.2 0
19.5 1.2 0
19.8 1.2 0
20.1 1.2 0
20.4 1.2 0
20.7 1.2 0
21 1.2 0
21.3 1.2 0
21.6 1.2 0
21.9 1.2 0
22.2 1.2 0
22.5 1.2 0
22.8 1.2 0
23.1 1.2 0
23.4 1.2 0
23.7 1.2 0
24 1.2 0
24.3 1.2 0
24.6 1.2 0
24.9 1.2 0
25.2 1.2 0
25.5 1.2 0
25.8 1.2 0
26.1 1.2 0
26.4 1.2 0
26.7 1.2 0
27 1.2 0
27.3 1.2 0
27.6 1.2 0
27.9 1.2 0
28.2 1.2 0
28.5 1.2 0
28.8 1.2 0
29.1 1.2 0
29.4 1.2 0
29.7 1.2 0
30 1.2 0
30.3 1.2 0
30.6 1.2 0

POINT_DATA 1339

SCALARS pressure double
LOOKUP_TABLE pressure
1.17346
1.17346
1.10862
1.06438
1.02456
0.987983
0.954931
0.925403
0.899047
0.875338
0.853736
0.833773
0.81508
0.797381
0.780474
0.764214
0.748495
0.73324
0.718387
0.703893
0.689718
0.675833
0.662212
0.648834
0.635678
0.622728
0.609968
0.597386
0.584968
0.572703
0.560582
0.548595
0.536733
0.524988
0.513354
0.501825
0.490395
0.479061
0.467819
0.456667
0.445603
0.434626
0.423735
0.412926
0.402199
0.391551
0.380978
0.370475
0.360039
0.349662
0.339339
0.329064
0.31883
0.308632
0.298464
0.288321
0.278198
0.268092
0.257998
0.247914
0.237838
0.227768
0.217702
0.207639
0.197578
0.187519
0.177462
0.167405
0.157348
0.147292
0.137236
0.127181
0.117125
0.10707
0.0970141
0.0869587
0.0769034
0.066848
0.0567927
0.0467374
0.036682
0.0266267
0.0165714
0.00651606
-0.00353926
-0.0135946
-0.0236499
-0.0337052
-0.0437605
-0.0538158
-0.0638711
-0.0739264
-0.0839817
-0.094037
-0.104092
-0.114148
-0.124203
-0.134258
-0.144313
-0.154369
-0.164425
-0.174473
0.174473
1.17346
1.17346
1.10862
1.06438
1.02456
0.987983
0.954931
0.925403
0.899047
0.875338
0.853736
0.833773
0.81508
0.797381
0.780474
0.764214
0.748495
0.73324
0.718387
0.703893
0.689718
0.675833
0.662212
0.648834
0.635678
0.622728
0.609968
0.597386
0.584968
0.572703
0.560582
0.548595
0.536733
0.524988
0.513354
0.501825
0.490395
0.479061
0.467819
0.456667
0.445603
0.434626
0.423735
0.412926
0.402199
0.391551
0.380978
0.370475
0.360039
0.349662
0.339339
0.329064
0.31883
0.308632
0.298464
0.288321
0.278198
0.268092
0.257998
0.247914
0.237838
0.227768
0.217702
0.207639
0.197578
0.187519
0.177462
0.167405
0.157348
0.147292
0.137236
0.127181
0.117125
0.10707
0.0970141
0.0869587
0.0769034
0.066848
0.0567927
0.0467374
0.036682
0.0266267
0.0165714
0.00651606
-0.00353926
-0.0135946
-0.0236499
-0.0337052
-0.0437605
-0.0538158
-0.0638711
-0.0739264
-0.0839817
-0.094037
-0.104092
-0.114148
-0.124203
-0.134258
-0.144313
-0.154369
-0.164425
-0.174473
0.174473
1.15252
1.15252
1.10663
1.06461
1.02526
0.98878
0.955674
0.926035
0.899555
0.875733
0.85404
0.834007
0.815262
0.797525
0.780591
0.764312
0.748578
0.733311
0.71845
0.703948
0.689767
0.675878
0.662253
0.64887
0.635711
0.622758
0.609997
0.597412
0.584992
0.572726
0.560603
0.548614
0.536751
0.525005
0.51337
0.501839
0.490408
0.479073
0.46783
0.456677
0.445612
0.434634
0.423741
0.412932
0.402204
0.391555
0.380981
0.370477
0.36004
0.349663
0.339339
0.329064
0.31883
0.308632
0.298464
0.288321
0.278198
0.268092
0.257998
0.247914
0.237838
0.227768
0.217702
0.207639
0.197578
0.187519
0.177462
0.167405
0.157348
0.147292
0.137236
0.127181
0.117125
0.10707
0.0970141
0.0869587
0.0769034
0.066848
0.0567927
0.0467374
0.036682
0.0266267
0.0165714
0.00651606
-0.00353926
-0.0135946
-0.0236499
-0.0337052
-0.0437605
-0.0538158
-0.0638711
-0.0739264
-0.0839817
-0.094037
-0.104092
-0.114148
-0.124203
-0.134258
-0.144313
-0.154369
-0.164425
-0.174472
0.174472
1.13754
1.13754
1.10375
1.06484
1.02637
0.990104
0.956936
0.927113
0.900416
0.876393
0.854532
0.834371
0.815533
0.79773
0.780749
0.764437
0.748679
0.733395
0.718521
0.704009
0.68982
0.675924
0.662294
0.648907
0.635745
0.622788
0.610024
0.597436
0.585014
0.572746
0.560622
0.548631
0.536767
0.52502
0.513383
0.501852
0.49042
0.479084
0.46784
0.456686
0.44562
0.434641
0.423747
0.412937
0.402208
0.391558
0.380983
0.370479
0.360041
0.349663
0.33934
0.329064
0.31883
0.308632
0.298464
0.288321
0.278198
0.268091
0.257998
0.247914
0.237838
0.227768
0.217702
0.207639
0.197578
0.187519
0.177462
0.167405
0.157348
0.147292
0.137236
0.127181
0.117125
0.10707
0.0970141
0.0869587
0.0769034
0.066848
0.0567927
0.0467374
0.036682
0.0266267
0.0165714
0.00651606
-0.00353926
-0.0135946
-0.0236499
-0.0337052
-0.0437605
-0.0538158
-0.0638711
-0.0739264
-0.0839817
-0.094037
-0.104092
-0.114148
-0.124203
-0.134258
-0.144313
-0.154368
-0.164423
-0.17447
0.17447
1.12797
1.12797
1.10126
1.06495
1.02733
0.991298
0.958112
0.928149
0.901269
0.877065
0.855049
0.834766
0.815836
0.797965
0.780935
0.764586
0.748802
0.733498
0.718609
0.704085
0.689887
0.675983
0.662346
0.648954
0.635786
0.622826
0.610057
0.597467
0.585042
0.572772
0.560645
0.548653
0.536786
0.525037
0.5134
0.501867
0.490434
0.479097
0.467852
0.456697
0.445631
0.434651
0.423756
0.412945
0.402216
0.391565
0.38099
0.370485
0.360046
0.349668
0.339343
0.329067
0.318832
0.308634
0.298465
0.288322
0.278199
0.268092
0.257998
0.247914
0.237838
0.227768
0.217702
0.207639
0.197578
0.187519
0.177462
0.167405
0.157348
0.147292
0.137236
0.127181
0.117125
0.10707
0.0970141
0.0869587
0.0769034
0.066848
0.0567927
0.0467374
0.036682
0.0266267
0.0165714
0.00651606
-0.00353926
-0.0135946
-0.0236499
-0.0337052
-0.0437605
-0.0538158
-0.0638711
-0.0739264
-0.0839817
-0.094037
-0.104092
-0.114148
-0.124203
-0.134258
-0.144313
-0.154367
-0.164417
-0.174468
0.174468
1.12265
1.12265
1.09963
1.06497
1.02792
0.992065
0.958881
0.928839
0.901847
0.877529
0.855414
0.83505
0.816058
0.798141
0.781078
0.764704
0.748901
0.733583
0.718682
0.704149
0.689944
0.676033
0.662391
0.648995
0.635823
0.622859
0.610088
0.597495
0.585068
0.572795
0.560666
0.548672
0.536804
0.525054
0.513415
0.501882
0.490448
0.47911
0.467864
0.456709
0.445642
0.434662
0.423767
0.412955
0.402225
0.391574
0.380997
0.370492
0.360052
0.349673
0.339348
0.329071
0.318836
0.308637
0.298468
0.288324
0.2782
0.268093
0.257999
0.247915
0.237839
0.227768
0.217702
0.207639
0.197578
0.187519
0.177462
0.167405
0.157348
0.147292
0.137236
0.127181
0.117125
0.10707
0.0970141
0.0869587
0.0769034
0.066848
0.0567927
0.0467374
0.036682
0.0266267
0.0165714
0.00651606
-0.00353926
-0.0135946
-0.0236499
-0.0337052
-0.0437605
-0.0538158
-0.0638711
-0.0739264
-0.0839817
-0.094037
-0.104092
-0.114148
-0.124203
-0.134258
-0.144313
-0.154366
-0.164411
-0.174465
0.174465
1.12095
1.12095
1.09909
1.06498
1.02813
0.992339
0.959155
0.929084
0.902054
0.877696
0.855546
0.835155
0.816141
0.798208
0.781132
0.764749
0.74894
0.733616
0.718711
0.704175
0.689967
0.676054
0.66241
0.649012
0.635838
0.622873
0.610101
0.597507
0.585078
0.572805
0.560676
0.548681
0.536812
0.525061
0.513422
0.501888
0.490454
0.479116
0.46787
0.456714
0.445647
0.434667
0.423771
0.412959
0.402229
0.391578
0.381001
0.370495
0.360055
0.349676
0.33935
0.329073
0.318838
0.308638
0.298469
0.288325
0.278201
0.268094
0.258
0.247915
0.237839
0.227768
0.217702
0.207639
0.197579
0.187519
0.177462
0.167405
0.157348
0.147292
0.137236
0.127181
0.117125
0.10707
0.0970141
0.0869587
0.0769034
0.066848
0.0567927
0.0467374
0.036682
0.0266267
0.0165714
0.00651606
-0.00353926
-0.0135946
-0.0236499
-0.0337052
-0.0437605
-0.0538158
-0.0638711
-0.0739264
-0.0839817
-0.094037
-0.104092
-0.114148
-0.124203
-0.134258
-0.144313
-0.154365
-0.164409
-0.174464
0.174464
1.12265
1.12265
1.09963
1.06496
1.02792
0.992065
0.958881
0.928839
0.901847
0.877529
0.855414
0.83505
0.816058
0.798141
0.781078
0.764704
0.748901
0.733583
0.718682
0.704149
0.689944
0.676033
0.662391
0.648995
0.635823
0.622859
0.610088
0.597495
0.585068
0.572795
0.560666
0.548672
0.536804
0.525054
0.513415
0.501882
0.490448
0.47911
0.467864
0.456709
0.445642
0.434662
0.423767
0.412955
0.402225
0.391574
0.380997
0.370492
0.360052
0.349673
0.339348
0.329071
0.318836
0.308637
0.298468
0.288324
0.2782
0.268093
0.257999
0.247915
0.237839
0.227768
0.217702
0.207639
0.197578
0.187519
0.177462
0.167405
0.157348
0.147292
0.137236
0.127181
0.117125
0.10707
0.0970141
0.0869587
0.0769034
0.066848
0.0567927
0.0467374
0.036682
0.0266267
0.0165714
0.00651606
-0.00353926
-0.0135946
-0.0236499
-0.0337052
-0.0437605
-0.0538158
-0.0638711
-0.0739264
-0.0839817
-0.094037
-0.104092
-0.114148
-0.124203
-0.134258
-0.144313
-0.154366
-0.164411
-0.174465
0.174465
1.12797
1.12797
1.10126
1.06495
1.02733
0.991298
0.958112
0.928149
0.901269
0.877065
0.855049
0.834766
0.815836
0.797965
0.780935
0.764586
0.748802
0.733498
0.718609
0.704085
0.689887
0.675983
0.662346
0.648954
0.635786
0.622826
0.610057
0.597467
0.585042
0.572772
0.560645
0.548653
0.536786
0.525037
0.5134
0.501867
0.490434
0.479097
0.467852
0.456697
0.445631
0.434651
0.423756
0.412945
0.402216
0.391565
0.38099
0.370485
0.360046
0.349668
0.339343
0.329067
0.318832
0.308634
0.298465
0.288322
0.278199
0.268092
0.257998
0.247914
0.237838
0.227768
0.217702
0.207639
0.197578
0.187519
0.177462
0.167405
0.157348
0.147292
0.137236
0.127181
0.117125
0.10707
0.0970141
0.0869587
0.0769034
0.066848
0.0567927
0.0467374
0.036682
0.0266267
0.0165714
0.00651606
-0.00353926
-0.0135946
-0.0236499
-0.0337052
-0.0437605
-0.0538158
-0.0638711
-0.0739264
-0.0839817
-0.094037
-0.104092
-0.114148
-0.124203
-0.134258
-0.144313
-0.154367
-0.164417
-0.174468
0.174468
1.13754
1.13754
1.10375
1.06484
1.02637
0.990104
0.956936
0.927113
0.900416
0.876393
0.854532
0.834371
0.815533
0.79773
0.780749
0.764437
0.748679
0.733395
0.718521
0.704009
0.68982
0.675924
0.662294
0.648907
0.635745
0.622788
0.610024
0.597436
0.585014
0.572746
0.560622
0.548631
0.536767
0.52502
0.513383
0.501852
0.49042
0.479084
0.46784
0.456686
0.44562
0.434641
0.423747
0.412937
0.402208
0.391558
0.380983
0.370479
0.360041
0.349663
0.33934
0.329064
0.31883
0.308632
0.298464
0.288321
0.278198
0.268091
0.257998
0.247914
0.237838
0.227768
0.217702
0.207639
0.197578
0.187519
0.177462
0.167405
0.157348
0.147292
0.137236
0.127181
0.117125
0.10707
0.0970141
0.0869587
0.0769034
0.066848
0.0567927
0.0467374
0.036682
0.0266267
0.0165714
0.00651606
-0.00353926
-0.0135946
-0.0236499
-0.0337052
-0.0437605
-0.0538158
-0.0638711
-0.0739264
-0.0839817
-0.094037
-0.104092
-0.114148
-0.124203
-0.134258
-0.144313
-0.154368
-0.164423
-0.17447
0.17447
1.15252
1.15252
1.10663
1.06461
1.02526
0.98878
0.955674
0.926035
0.899555
0.875733
0.85404
0.834007
0.815262
0.797525
0.780591
0.764312
0.748578
0.733311
0.71845
0.703948
0.689767
0.675878
0.662253
0.64887
0.635711
0.622758
0.609997
0.597412
0.584992
0.572726
0.560603
0.548614
0.536751
0.525005
0.51337
0.501839
0.490408
0.479073
0.46783
0.456677
0.445612
0.434634
0.423741
0.412932
0.402204
0.391555
0.380981
0.370477
0.36004
0.349663
0.339339
0.329064
0.31883
0.308632
0.298464
0.288321
0.278198
0.268092
0.257998
0.247914
0.237838
0.227768
0.217702
0.207639
0.197578
0.187519
0.177462
0.167405
0.157348
0.147292
0.137236
0.127181
0.117125
0.10707
0.0970141
0.0869587
0.0769034
0.066848
0.0567927
0.0467374
0.036682
0.0266267
0.0165714
0.00651606
-0.00353926
-0.0135946
-0.0236499
-0.0337052
-0.0437605
-0.0538158
-0.0638711
-0.0739264
-0.0839817
-0.094037
-0.104092
-0.114148
-0.124203
-0.134258
-0.144313
-0.154369
-0.164425
-0.174472
0.174472
1.17346
1.17346
1.10862
1.06438
1.02456
0.987983
0.954931
0.925403
0.899047
0.875338
0.853736
0.833773
0.81508
0.797381
0.780474
0.764214
0.748495
0.73324
0.718387
0.703893
0.689718
0.675833
0.662212
0.648834
0.635678
0.622728
0.609968
0.597386
0.584968
0.572703
0.560582
0.548595
0.536733
0.524988
0.513354
0.501825
0.490395
0.479061
0.467819
0.456667
0.445603
0.434626
0.423735
0.412926
0.402199
0.391551
0.380978
0.370475
0.360039
0.349662
0.339339
0.329064
0.31883
0.308632
0.298464
0.288321
0.278198
0.268092
0.257998
0.247914
0.237838
0.227768
0.217702
0.207639
0.197578
0.187519
0.177462
0.167405
0.157348
0.147292
0.137236
0.127181
0.117125
0.10707
0.0970141
0.0869587
0.0769034
0.066848
0.0567927
0.0467374
0.036682
0.0266267
0.0165714
0.00651606
-0.00353926
-0.0135946
-0.0236499
-0.0337052
-0.0437605
-0.0538158
-0.0638711
-0.0739264
-0.0839817
-0.094037
-0.104092
-0.114148
-0.124203
-0.134258
-0.144313
-0.154369
-0.164425
-0.174473
0.174473
1.17346
1.17346
1.10862
1.06438
1.02456
0.987983
0.954931
0.925403
0.899047
0.875338
0.853736
0.833773
0.81508
0.797381
0.780474
0.764214
0.748495
0.73324
0.718387
0.703893
0.689718
0.675833
0.662212
0.648834
0.635678
0.622728
0.609968
0.597386
0.584968
0.572703
0.560582
0.548595
0.536733
0.524988
0.513354
0.501825
0.490395
0.479061
0.467819
0.456667
0.445603
0.434626
0.423735
0.412926
0.402199
0.391551
0.380978
0.370475
0.360039
0.349662
0.339339
0.329064
0.31883
0.308632
0.298464
0.288321
0.278198
0.268092
0.257998
0.247914
0.237838
0.227768
0.217702
0.207639
0.197578
0.187519
0.177462
0.167405
0.157348
0.147292
0.137236
0.127181
0.117125
0.10707
0.0970141
0.0869587
0.0769034
0.066848
0.0567927
0.0467374
0.036682
0.0266267
0.0165714
0.00651606
-0.00353926
-0.0135946
-0.0236499
-0.0337052
-0.0437605
-0.0538158
-0.0638711
-0.0739264
-0.0839817
-0.094037
-0.104092
-0.114148
-0.124203
-0.134258
-0.144313
-0.154369
-0.164425
-0.174473
0.174473
SCALARS phi double
LOOKUP_TABLE phi
1
1
1
1
0.999998
0.999994
0.999982
0.999957
0.999909
0.999829
0.999707
0.999524
0.999263
0.998941
0.998606
0.998216
0.997477
0.995728
0.992023
0.98535
0.974883
0.960149
0.941065
0.917866
0.890998
0.861011
0.828489
0.794
0.758076
0.721201
0.683805
0.646263
0.608897
0.571975
0.535718
0.500301
0.465863
0.432506
0.400307
0.369318
0.339576
0.311103
0.283916
0.258022
0.23343
0.210146
0.188179
0.167535
0.148226
0.130259
0.113641
0.0983728
0.084451
0.0718615
0.0605798
0.0505691
0.0417794
0.0341481
0.0276004
0.0220517
0.0174099
0.0135781
0.0104581
0.00795299
0.00597009
0.00442311
0.00323377
0.00233278
0.00166029
0.00116576
0.000807489
0.000551763
0.000371927
0.000247319
0.000162242
0.000105001
6.70459e-05
4.224e-05
2.62591e-05
1.61092e-05
9.75306e-06
5.82803e-06
3.43761e-06
2.00164e-06
1.15068e-06
6.53142e-07
3.66092e-07
2.0265e-07
1.10796e-07
5.98372e-08
3.19251e-08
1.68289e-08
8.76574e-09
4.51208e-09
2.29544e-09
1.15426e-09
5.73768e-10
2.81972e-10
1.37018e-10
6.58151e-11
3.14222e-11
1.37485e-11
1.37485e-11
1
1
1
1
0.999998
0.999994
0.999982
0.999957
0.999909
0.999829
0.999707
0.999524
0.999263
0.998941
0.998606
0.998216
0.997477
0.995728
0.992023
0.98535
0.974883
0.960149
0.941065
0.917866
0.890998
0.861011
0.828489
0.794
0.758076
0.721201
0.683805
0.646263
0.608897
0.571975
0.535718
0.500301
0.465863
0.432506
0.400307
0.369318
0.339576
0.311103
0.283916
0.258022
0.23343
0.210146
0.188179
0.167535
0.148226
0.130259
0.113641
0.0983728
0.084451
0.0718615
0.0605798
0.0505691
0.0417794
0.0341481
0.0276004
0.0220517
0.0174099
0.0135781
0.0104581
0.00795299
0.00597009
0.00442311
0.00323377
0.00233278
0.00166029
0.00116576
0.000807489
0.000551763
0.000371927
0.000247319
0.000162242
0.000105001
6.70459e-05
4.224e-05
2.62591e-05
1.61092e-05
9.75306e-06
5.82803e-06
3.43761e-06
2.00164e-06
1.15068e-06
6.53142e-07
3.66092e-07
2.0265e-07
1.10796e-07
5.98372e-08
3.19251e-08
1.68289e-08
8.76574e-09
4.51208e-09
2.29544e-09
1.15426e-09
5.73768e-10
2.81972e-10
1.37018e-10
6.58151e-11
3.14222e-11
1.37485e-11
1.37485e-11
1
1
1
0.999996
0.999983
0.999953
0.999898
0.999804
0.999658
0.999446
0.999157
0.998778
0.998297
0.997708
0.997016
0.996232
0.995323
0.994163
0.99248
0.989866
0.985829
0.979875
0.971579
0.960643
0.94691
0.930362
0.9111
0.889312
0.865254
0.839217
0.811516
0.78247
0.752387
0.721563
0.690269
0.658751
0.627223
0.59587
0.564846
0.534271
0.504236
0.474806
0.446021
0.417898
0.390442
0.363644
0.337494
0.31198
0.287101
0.262867
0.239307
0.21647
0.194426
0.173264
0.153088
0.134012
0.116147
0.0995986
0.0844515
0.0707662
0.0585715
0.0478622
0.0385987
0.0307099
0.0240983
0.0186464
0.0142241
0.0106957
0.00792692
0.00579004
0.00416796
0.00295681
0.00206722
0.00142439
0.000967327
0.000647508
0.000427248
0.000277918
0.000178237
0.000112712
7.02882e-05
4.32299e-05
2.62259e-05
1.56954e-05
9.26762e-06
5.39972e-06
3.10483e-06
1.76207e-06
9.87158e-07
5.45987e-07
2.98172e-07
1.60803e-07
8.56489e-08
4.50613e-08
2.34203e-08
1.20266e-08
6.10252e-09
3.06013e-09
1.51671e-09
7.4278e-10
3.61633e-10
1.60653e-10
1.60653e-10
0.999997
1
0.99998
0.999896
0.999724
0.999434
0.998999
0.998397
0.997613
0.996636
0.995464
0.994099
0.992546
0.990815
0.988915
0.986861
0.984666
0.982332
0.979831
0.977094
0.974002
0.970395
0.966081
0.960856
0.954525
0.946916
0.937894
0.927364
0.915276
0.901622
0.886433
0.869772
0.851732
0.832427
0.811987
0.790552
0.768267
0.745277
0.721721
0.697731
0.67342
0.648887
0.624207
0.599429
0.574577
0.549648
0.524613
0.499421
0.474003
0.448287
0.422201
0.395694
0.36875
0.341399
0.313732
0.285905
0.25814
0.230714
0.203947
0.178174
0.153728
0.13091
0.109969
0.0910846
0.0743583
0.0598123
0.0473938
0.0369865
0.028425
0.0215107
0.0160284
0.0117598
0.00849573
0.00604377
0.00423404
0.00292131
0.00198529
0.00132905
0.000876562
0.000569651
0.00036482
0.000230279
0.000143284
8.78976e-05