# vtk DataFile Version 3.0
FlowField
ASCII
DATASET STRUCTURED_GRID
DIMENSIONS 103 13 1 
POINTS 1339 double
0 0 0
0.3 0 0
0.6 0 0
0.9 0 0
1.2 0 0
1.5 0 0
1.8 0 0
2.1 0 0
2.4 0 0
2.7 0 0
3 0 0
3.3 0 0
3.6 0 0
3.9 0 0
4.2 0 0
4.5 0 0
4.8 0 0
5.1 0 0
5.4 0 0
5.7 0 0
6 0 0
6.3 0 0
6.6 0 0
6.9 0 0
7.2 0 0
7.5 0 0
7.8 0 0
8.1 0 0
8.4 0 0
8.7 0 0
9 0 0
9.3 0 0
9.6 0 0
9.9 0 0
10.2 0 0
10.5 0 0
10.8 0 0
11.1 0 0
11.4 0 0
11.7 0 0
12 0 0
12.3 0 0
12.6 0 0
12.9 0 0
13.2 0 0
13.5 0 0
13.8 0 0
14.1 0 0
14.4 0 0
14.7 0 0
15 0 0
15.3 0 0
15.6 0 0
15.9 0 0
16.2 0 0
16.5 0 0
16.8 0 0
17.1 0 0
17.4 0 0
17.7 0 0
18 0 0
18.3 0 0
18.6 0 0
18.9 0 0
19.2 0 0
19.5 0 0
19.8 0 0
20.1 0 0
20.4 0 0
20.7 0 0
21 0 0
21.3 0 0
21.6 0 0
21.9 0 0
22.2 0 0
22.5 0 0
22.8 0 0
23.1 0 0
23.4 0 0
23.7 0 0
24 0 0
24.3 0 0
24.6 0 0
24.9 0 0
25.2 0 0
25.5 0 0
25.8 0 0
26.1 0 0
26.4 0 0
26.7 0 0
27 0 0
27.3 0 0
27.6 0 0
27.9 0 0
28.2 0 0
28.5 0 0
28.8 0 0
29.1 0 0
29.4 0 0
29.7 0 0
30 0 0
30.3 0 0
30.6 0 0
0 0.1 0
0.3 0.1 0
0.6 0.1 0
0.9 0.1 0
1.2 0.1 0
1.5 0.1 0
1.8 0.1 0
2.1 0.1 0
2.4 0.1 0
2.7 0.1 0
3 0.1 0
3.3 0.1 0
3.6 0.1 0
3.9 0.1 0
4.2 0.1 0
4.5 0.1 0
4.8 0.1 0
5.1 0.1 0
5.4 0.1 0
5.7 0.1 0
6 0.1 0
6.3 0.1 0
6.6 0.1 0
6.9 0.1 0
7.2 0.1 0
7.5 0.1 0
7.8 0.1 0
8.1 0.1 0
8.4 0.1 0
8.7 0.1 0
9 0.1 0
9.3 0.1 0
9.6 0.1 0
9.9 0.1 0
10.2 0.1 0
10.5 0.1 0
10.8 0.1 0
11.1 0.1 0
11.4 0.1 0
11.7 0.1 0
12 0.1 0
12.3 0.1 0
12.6 0.1 0
12.9 0.1 0
13.2 0.1 0
13.5 0.1 0
13.8 0.1 0
14.1 0.1 0
14.4 0.1 0
14.7 0.1 0
15 0.1 0
15.3 0.1 0
15.6 0.1 0
15.9 0.1 0
16.2 0.1 0
16.5 0.1 0
16.8 0.1 0
17.1 0.1 0
17.4 0.1 0
17.7 0.1 0
18 0.1 0
18.3 0.1 0
18.6 0.1 0
18.9 0.1 0
19.2 0.1 0
19.5 0.1 0
19.8 0.1 0
20.1 0.1 0
20.4 0.1 0
20.7 0.1 0
21 0.1 0
21.3 0.1 0
21.6 0.1 0
21.9 0.1 0
22.2 0.1 0
22.5 0.1 0
22.8 0.1 0
23.1 0.1 0
23.4 0.1 0
23.7 0.1 0
24 0.1 0
24.3 0.1 0
24.6 0.1 0
24.9 0.1 0
25.2 0.1 0
25.5 0.1 0
25.8 0.1 0
26.1 0.1 0
26.4 0.1 0
26.7 0.1 0
27 0.1 0
27.3 0.1 0
27.6 0.1 0
27.9 0.1 0
28.2 0.1 0
28.5 0.1 0
28.8 0.1 0
29.1 0.1 0
29.4 0.1 0
29.7 0.1 0
30 0.1 0
30.3 0.1 0
30.6 0.1 0
0 0.2 0
0.3 0.2 0
0.6 0.2 0
0.9 0.2 0
1.2 0.2 0
1.5 0.2 0
1.8 0.2 0
2.1 0.2 0
2.4 0.2 0
2.7 0.2 0
3 0.2 0
3.3 0.2 0
3.6 0.2 0
3.9 0.2 0
4.2 0.2 0
4.5 0.2 0
4.8 0.2 0
5.1 0.2 0
5.4 0.2 0
5.7 0.2 0
6 0.2 0
6.3 0.2 0
6.6 0.2 0
6.9 0.2 0
7.2 0.2 0
7.5 0.2 0
7.8 0.2 0
8.1 0.2 0
8.4 0.2 0
8.7 0.2 0
9 0.2 0
9.3 0.2 0
9.6 0.2 0
9.9 0.2 0
10.2 0.2 0
10.5 0.2 0
10.8 0.2 0
11.1 0.2 0
11.4 0.2 0
11.7 0.2 0
12 0.2 0
12.3 0.2 0
12.6 0.2 0
12.9 0.2 0
13.2 0.2 0
13.5 0.2 0
13.8 0.2 0
14.1 0.2 0
14.4 0.2 0
14.7 0.2 0
15 0.2 0
15.3 0.2 0
15.6 0.2 0
15.9 0.2 0
16.2 0.2 0
16.5 0.2 0
16.8 0.2 0
17.1 0.2 0
17.4 0.2 0
17.7 0.2 0
18 0.2 0
18.3 0.2 0
18.6 0.2 0
18.9 0.2 0
19.2 0.2 0
19.5 0.2 0
19.8 0.2 0
20.1 0.2 0
20.4 0.2 0
20.7 0.2 0
21 0.2 0
21.3 0.2 0
21.6 0.2 0
21.9 0.2 0
22.2 0.2 0
22.5 0.2 0
22.8 0.2 0
23.1 0.2 0
23.4 0.2 0
23.7 0.2 0
24 0.2 0
24.3 0.2 0
24.6 0.2 0
24.9 0.2 0
25.2 0.2 0
25.5 0.2 0
25.8 0.2 0
26.1 0.2 0
26.4 0.2 0
26.7 0.2 0
27 0.2 0
27.3 0.2 0
27.6 0.2 0
27.9 0.2 0
28.2 0.2 0
28.5 0.2 0
28.8 0.2 0
29.1 0.2 0
29.4 0.2 0
29.7 0.2 0
30 0.2 0
30.3 0.2 0
30.6 0.2 0
0 0.3 0
0.3 0.3 0
0.6 0.3 0
0.9 0.3 0
1.2 0.3 0
1.5 0.3 0
1.8 0.3 0
2.1 0.3 0
2.4 0.3 0
2.7 0.3 0
3 0.3 0
3.3 0.3 0
3.6 0.3 0
3.9 0.3 0
4.2 0.3 0
4.5 0.3 0
4.8 0.3 0
5.1 0.3 0
5.4 0.3 0
5.7 0.3 0
6 0.3 0
6.3 0.3 0
6.6 0.3 0
6.9 0.3 0
7.2 0.3 0
7.5 0.3 0
7.8 0.3 0
8.1 0.3 0
8.4 0.3 0
8.7 0.3 0
9 0.3 0
9.3 0.3 0
9.6 0.3 0
9.9 0.3 0
10.2 0.3 0
10.5 0.3 0
10.8 0.3 0
11.1 0.3 0
11.4 0.3 0
11.7 0.3 0
12 0.3 0
12.3 0.3 0
12.6 0.3 0
12.9 0.3 0
13.2 0.3 0
13.5 0.3 0
13.8 0.3 0
14.1 0.3 0
14.4 0.3 0
14.7 0.3 0
15 0.3 0
15.3 0.3 0
15.6 0.3 0
15.9 0.3 0
16.2 0.3 0
16.5 0.3 0
16.8 0.3 0
17.1 0.3 0
17.4 0.3 0
17.7 0.3 0
18 0.3 0
18.3 0.3 0
18.6 0.3 0
18.9 0.3 0
19.2 0.3 0
19.5 0.3 0
19.8 0.3 0
20.1 0.3 0
20.4 0.3 0
20.7 0.3 0
21 0.3 0
21.3 0.3 0
21.6 0.3 0
21.9 0.3 0
22.2 0.3 0
22.5 0.3 0
22.8 0.3 0
23.1 0.3 0
23.4 0.3 0
23.7 0.3 0
24 0.3 0
24.3 0.3 0
24.6 0.3 0
24.9 0.3 0
25.2 0.3 0
25.5 0.3 0
25.8 0.3 0
26.1 0.3 0
26.4 0.3 0
26.7 0.3 0
27 0.3 0
27.3 0.3 0
27.6 0.3 0
27.9 0.3 0
28.2 0.3 0
28.5 0.3 0
28.8 0.3 0
29.1 0.3 0
29.4 0.3 0
29.7 0.3 0
30 0.3 0
30.3 0.3 0
30.6 0.3 0
0 0.4 0
0.3 0.4 0
0.6 0.4 0
0.9 0.4 0
1.2 0.4 0
1.5 0.4 0
1.8 0.4 0
2.1 0.4 0
2.4 0.4 0
2.7 0.4 0
3 0.4 0
3.3 0.4 0
3.6 0.4 0
3.9 0.4 0
4.2 0.4 0
4.5 0.4 0
4.8 0.4 0
5.1 0.4 0
5.4 0.4 0
5.7 0.4 0
6 0.4 0
6.3 0.4 0
6.6 0.4 0
6.9 0.4 0
7.2 0.4 0
7.5 0.4 0
7.8 0.4 0
8.1 0.4 0
8.4 0.4 0
8.7 0.4 0
9 0.4 0
9.3 0.4 0
9.6 0.4 0
9.9 0.4 0
10.2 0.4 0
10.5 0.4 0
10.8 0.4 0
11.1 0.4 0
11.4 0.4 0
11.7 0.4 0
12 0.4 0
12.3 0.4 0
12.6 0.4 0
12.9 0.4 0
13.2 0.4 0
13.5 0.4 0
13.8 0.4 0
14.1 0.4 0
14.4 0.4 0
14.7 0.4 0
15 0.4 0
15.3 0.4 0
15.6 0.4 0
15.9 0.4 0
16.2 0.4 0
16.5 0.4 0
16.8 0.4 0
17.1 0.4 0
17.4 0.4 0
17.7 0.4 0
18 0.4 0
18.3 0.4 0
18.6 0.4 0
18.9 0.4 0
19.2 0.4 0
19.5 0.4 0
19.8 0.4 0
20.1 0.4 0
20.4 0.4 0
20.7 0.4 0
21 0.4 0
21.3 0.4 0
21.6 0.4 0
21.9 0.4 0
22.2 0.4 0
22.5 0.4 0
22.8 0.4 0
23.1 0.4 0
23.4 0.4 0
23.7 0.4 0
24 0.4 0
24.3 0.4 0
24.6 0.4 0
24.9 0.4 0
25.2 0.4 0
25.5 0.4 0
25.8 0.4 0
26.1 0.4 0
26.4 0.4 0
26.7 0.4 0
27 0.4 0
27.3 0.4 0
27.6 0.4 0
27.9 0.4 0
28.2 0.4 0
28.5 0.4 0
28.8 0.4 0
29.1 0.4 0
29.4 0.4 0
29.7 0.4 0
30 0.4 0
30.3 0.4 0
30.6 0.4 0
0 0.5 0
0.3 0.5 0
0.6 0.5 0
0.9 0.5 0
1.2 0.5 0
1.5 0.5 0
1.8 0.5 0
2.1 0.5 0
2.4 0.5 0
2.7 0.5 0
3 0.5 0
3.3 0.5 0
3.6 0.5 0
3.9 0.5 0
4.2 0.5 0
4.5 0.5 0
4.8 0.5 0
5.1 0.5 0
5.4 0.5 0
5.7 0.5 0
6 0.5 0
6.3 0.5 0
6.6 0.5 0
6.9 0.5 0
7.2 0.5 0
7.5 0.5 0
7.8 0.5 0
8.1 0.5 0
8.4 0.5 0
8.7 0.5 0
9 0.5 0
9.3 0.5 0
9.6 0.5 0
9.9 0.5 0
10.2 0.5 0
10.5 0.5 0
10.8 0.5 0
11.1 0.5 0
11.4 0.5 0
11.7 0.5 0
12 0.5 0
12.3 0.5 0
12.6 0.5 0
12.9 0.5 0
13.2 0.5 0
13.5 0.5 0
13.8 0.5 0
14.1 0.5 0
14.4 0.5 0
14.7 0.5 0
15 0.5 0
15.3 0.5 0
15.6 0.5 0
15.9 0.5 0
16.2 0.5 0
16.5 0.5 0
16.8 0.5 0
17.1 0.5 0
17.4 0.5 0
17.7 0.5 0
18 0.5 0
18.3 0.5 0
18.6 0.5 0
18.9 0.5 0
19.2 0.5 0
19.5 0.5 0
19.8 0.5 0
20.1 0.5 0
20.4 0.5 0
20.7 0.5 0
21 0.5 0
21.3 0.5 0
21.6 0.5 0
21.9 0.5 0
22.2 0.5 0
22.5 0.5 0
22.8 0.5 0
23.1 0.5 0
23.4 0.5 0
23.7 0.5 0
24 0.5 0
24.3 0.5 0
24.6 0.5 0
24.9 0.5 0
25.2 0.5 0
25.5 0.5 0
25.8 0.5 0
26.1 0.5 0
26.4 0.5 0
26.7 0.5 0
27 0.5 0
27.3 0.5 0
27.6 0.5 0
27.9 0.5 0
28.2 0.5 0
28.5 0.5 0
28.8 0.5 0
29.1 0.5 0
29.4 0.5 0
29.7 0.5 0
30 0.5 0
30.3 0.5 0
30.6 0.5 0
0 0.6 0
0.3 0.6 0
0.6 0.6 0
0.9 0.6 0
1.2 0.6 0
1.5 0.6 0
1.8 0.6 0
2.1 0.6 0
2.4 0.6 0
2.7 0.6 0
3 0.6 0
3.3 0.6 0
3.6 0.6 0
3.9 0.6 0
4.2 0.6 0
4.5 0.6 0
4.8 0.6 0
5.1 0.6 0
5.4 0.6 0
5.7 0.6 0
6 0.6 0
6.3 0.6 0
6.6 0.6 0
6.9 0.6 0
7.2 0.6 0
7.5 0.6 0
7.8 0.6 0
8.1 0.6 0
8.4 0.6 0
8.7 0.6 0
9 0.6 0
9.3 0.6 0
9.6 0.6 0
9.9 0.6 0
10.2 0.6 0
10.5 0.6 0
10.8 0.6 0
11.1 0.6 0
11.4 0.6 0
11.7 0.6 0
12 0.6 0
12.3 0.6 0
12.6 0.6 0
12.9 0.6 0
13.2 0.6 0
13.5 0.6 0
13.8 0.6 0
14.1 0.6 0
14.4 0.6 0
14.7 0.6 0
15 0.6 0
15.3 0.6 0
15.6 0.6 0
15.9 0.6 0
16.2 0.6 0
16.5 0.6 0
16.8 0.6 0
17.1 0.6 0
17.4 0.6 0
17.7 0.6 0
18 0.6 0
18.3 0.6 0
18.6 0.6 0
18.9 0.6 0
19.2 0.6 0
19.5 0.6 0
19.8 0.6 0
20.1 0.6 0
20.4 0.6 0
20.7 0.6 0
21 0.6 0
21.3 0.6 0
21.6 0.6 0
21.9 0.6 0
22.2 0.6 0
22.5 0.6 0
22.8 0.6 0
23.1 0.6 0
23.4 0.6 0
23.7 0.6 0
24 0.6 0
24.3 0.6 0
24.6 0.6 0
24.9 0.6 0
25.2 0.6 0
25.5 0.6 0
25.8 0.6 0
26.1 0.6 0
26.4 0.6 0
26.7 0.6 0
27 0.6 0
27.3 0.6 0
27.6 0.6 0
27.9 0.6 0
28.2 0.6 0
28.5 0.6 0
28.8 0.6 0
29.1 0.6 0
29.4 0.6 0
29.7 0.6 0
30 0.6 0
30.3 0.6 0
30.6 0.6 0
0 0.7 0
0.3 0.7 0
0.6 0.7 0
0.9 0.7 0
1.2 0.7 0
1.5 0.7 0
1.8 0.7 0
2.1 0.7 0
2.4 0.7 0
2.7 0.7 0
3 0.7 0
3.3 0.7 0
3.6 0.7 0
3.9 0.7 0
4.2 0.7 0
4.5 0.7 0
4.8 0.7 0
5.1 0.7 0
5.4 0.7 0
5.7 0.7 0
6 0.7 0
6.3 0.7 0
6.6 0.7 0
6.9 0.7 0
7.2 0.7 0
7.5 0.7 0
7.8 0.7 0
8.1 0.7 0
8.4 0.7 0
8.7 0.7 0
9 0.7 0
9.3 0.7 0
9.6 0.7 0
9.9 0.7 0
10.2 0.7 0
10.5 0.7 0
10.8 0.7 0
11.1 0.7 0
11.4 0.7 0
11.7 0.7 0
12 0.7 0
12.3 0.7 0
12.6 0.7 0
12.9 0.7 0
13.2 0.7 0
13.5 0.7 0
13.8 0.7 0
14.1 0.7 0
14.4 0.7 0
14.7 0.7 0
15 0.7 0
15.3 0.7 0
15.6 0.7 0
15.9 0.7 0
16.2 0.7 0
16.5 0.7 0
16.8 0.7 0
17.1 0.7 0
17.4 0.7 0
17.7 0.7 0
18 0.7 0
18.3 0.7 0
18.6 0.7 0
18.9 0.7 0
19.2 0.7 0
19.5 0.7 0
19.8 0.7 0
20.1 0.7 0
20.4 0.7 0
20.7 0.7 0
21 0.7 0
21.3 0.7 0
21.6 0.7 0
21.9 0.7 0
22.2 0.7 0
22.5 0.7 0
22.8 0.7 0
23.1 0.7 0
23.4 0.7 0
23.7 0.7 0
24 0.7 0
24.3 0.7 0
24.6 0.7 0
24.9 0.7 0
25.2 0.7 0
25.5 0.7 0
25.8 0.7 0
26.1 0.7 0
26.4 0.7 0
26.7 0.7 0
27 0.7 0
27.3 0.7 0
27.6 0.7 0
27.9 0.7 0
28.2 0.7 0
28.5 0.7 0
28.8 0.7 0
29.1 0.7 0
29.4 0.7 0
29.7 0.7 0
30 0.7 0
30.3 0.7 0
30.6 0.7 0
0 0.8 0
0.3 0.8 0
0.6 0.8 0
0.9 0.8 0
1.2 0.8 0
1.5 0.8 0
1.8 0.8 0
2.1 0.8 0
2.4 0.8 0
2.7 0.8 0
3 0.8 0
3.3 0.8 0
3.6 0.8 0
3.9 0.8 0
4.2 0.8 0
4.5 0.8 0
4.8 0.8 0
5.1 0.8 0
5.4 0.8 0
5.7 0.8 0
6 0.8 0
6.3 0.8 0
6.6 0.8 0
6.9 0.8 0
7.2 0.8 0
7.5 0.8 0
7.8 0.8 0
8.1 0.8 0
8.4 0.8 0
8.7 0.8 0
9 0.8 0
9.3 0.8 0
9.6 0.8 0
9.9 0.8 0
10.2 0.8 0
10.5 0.8 0
10.8 0.8 0
11.1 0.8 0
11.4 0.8 0
11.7 0.8 0
12 0.8 0
12.3 0.8 0
12.6 0.8 0
12.9 0.8 0
13.2 0.8 0
13.5 0.8 0
13.8 0.8 0
14.1 0.8 0
14.4 0.8 0
14.7 0.8 0
15 0.8 0
15.3 0.8 0
15.6 0.8 0
15.9 0.8 0
16.2 0.8 0
16.5 0.8 0
16.8 0.8 0
17.1 0.8 0
17.4 0.8 0
17.7 0.8 0
18 0.8 0
18.3 0.8 0
18.6 0.8 0
18.9 0.8 0
19.2 0.8 0
19.5 0.8 0
19.8 0.8 0
20.1 0.8 0
20.4 0.8 0
20.7 0.8 0
21 0.8 0
21.3 0.8 0
21.6 0.8 0
21.9 0.8 0
22.2 0.8 0
22.5 0.8 0
22.8 0.8 0
23.1 0.8 0
23.4 0.8 0
23.7 0.8 0
24 0.8 0
24.3 0.8 0
24.6 0.8 0
24.9 0.8 0
25.2 0.8 0
25.5 0.8 0
25.8 0.8 0
26.1 0.8 0
26.4 0.8 0
26.7 0.8 0
27 0.8 0
27.3 0.8 0
27.6 0.8 0
27.9 0.8 0
28.2 0.8 0
28.5 0.8 0
28.8 0.8 0
29.1 0.8 0
29.4 0.8 0
29.7 0.8 0
30 0.8 0
30.3 0.8 0
30.6 0.8 0
0 0.9 0
0.3 0.9 0
0.6 0.9 0
0.9 0.9 0
1.2 0.9 0
1.5 0.9 0
1.8 0.9 0
2.1 0.9 0
2.4 0.9 0
2.7 0.9 0
3 0.9 0
3.3 0.9 0
3.6 0.9 0
3.9 0.9 0
4.2 0.9 0
4.5 0.9 0
4.8 0.9 0
5.1 0.9 0
5.4 0.9 0
5.7 0.9 0
6 0.9 0
6.3 0.9 0
6.6 0.9 0
6.9 0.9 0
7.2 0.9 0
7.5 0.9 0
7.8 0.9 0
8.1 0.9 0
8.4 0.9 0
8.7 0.9 0
9 0.9 0
9.3 0.9 0
9.6 0.9 0
9.9 0.9 0
10.2 0.9 0
10.5 0.9 0
10.8 0.9 0
11.1 0.9 0
11.4 0.9 0
11.7 0.9 0
12 0.9 0
12.3 0.9 0
12.6 0.9 0
12.9 0.9 0
13.2 0.9 0
13.5 0.9 0
13.8 0.9 0
14.1 0.9 0
14.4 0.9 0
14.7 0.9 0
15 0.9 0
15.3 0.9 0
15.6 0.9 0
15.9 0.9 0
16.2 0.9 0
16.5 0.9 0
16.8 0.9 0
17.1 0.9 0
17.4 0.9 0
17.7 0.9 0
18 0.9 0
18.3 0.9 0
18.6 0.9 0
18.9 0.9 0
19.2 0.9 0
19.5 0.9 0
19.8 0.9 0
20.1 0.9 0
20.4 0.9 0
20.7 0.9 0
21 0.9 0
21.3 0.9 0
21.6 0.9 0
21.9 0.9 0
22.2 0.9 0
22.5 0.9 0
22.8 0.9 0
23.1 0.9 0
23.4 0.9 0
23.7 0.9 0
24 0.9 0
24.3 0.9 0
24.6 0.9 0
24.9 0.9 0
25.2 0.9 0
25.5 0.9 0
25.8 0.9 0
26.1 0.9 0
26.4 0.9 0
26.7 0.9 0
27 0.9 0
27.3 0.9 0
27.6 0.9 0
27.9 0.9 0
28.2 0.9 0
28.5 0.9 0
28.8 0.9 0
29.1 0.9 0
29.4 0.9 0
29.7 0.9 0
30 0.9 0
30.3 0.9 0
30.6 0.9 0
0 1 0
0.3 1 0
0.6 1 0
0.9 1 0
1.2 1 0
1.5 1 0
1.8 1 0
2.1 1 0
2.4 1 0
2.7 1 0
3 1 0
3.3 1 0
3.6 1 0
3.9 1 0
4.2 1 0
4.5 1 0
4.8 1 0
5.1 1 0
5.4 1 0
5.7 1 0
6 1 0
6.3 1 0
6.6 1 0
6.9 1 0
7.2 1 0
7.5 1 0
7.8 1 0
8.1 1 0
8.4 1 0
8.7 1 0
9 1 0
9.3 1 0
9.6 1 0
9.9 1 0
10.2 1 0
10.5 1 0
10.8 1 0
11.1 1 0
11.4 1 0
11.7 1 0
12 1 0
12.3 1 0
12.6 1 0
12.9 1 0
13.2 1 0
13.5 1 0
13.8 1 0
14.1 1 0
14.4 1 0
14.7 1 0
15 1 0
15.3 1 0
15.6 1 0
15.9 1 0
16.2 1 0
16.5 1 0
16.8 1 0
17.1 1 0
17.4 1 0
17.7 1 0
18 1 0
18.3 1 0
18.6 1 0
18.9 1 0
19.2 1 0
19.5 1 0
19.8 1 0
20.1 1 0
20.4 1 0
20.7 1 0
21 1 0
21.3 1 0
21.6 1 0
21.9 1 0
22.2 1 0
22.5 1 0
22.8 1 0
23.1 1 0
23.4 1 0
23.7 1 0
24 1 0
24.3 1 0
24.6 1 0
24.9 1 0
25.2 1 0
25.5 1 0
25.8 1 0
26.1 1 0
26.4 1 0
26.7 1 0
27 1 0
27.3 1 0
27.6 1 0
27.9 1 0
28.2 1 0
28.5 1 0
28.8 1 0
29.1 1 0
29.4 1 0
29.7 1 0
30 1 0
30.3 1 0
30.6 1 0
0 1.1 0
0.3 1.1 0
0.6 1.1 0
0.9 1.1 0
1.2 1.1 0
1.5 1.1 0
1.8 1.1 0
2.1 1.1 0
2.4 1.1 0
2.7 1.1 0
3 1.1 0
3.3 1.1 0
3.6 1.1 0
3.9 1.1 0
4.2 1.1 0
4.5 1.1 0
4.8 1.1 0
5.1 1.1 0
5.4 1.1 0
5.7 1.1 0
6 1.1 0
6.3 1.1 0
6.6 1.1 0
6.9 1.1 0
7.2 1.1 0
7.5 1.1 0
7.8 1.1 0
8.1 1.1 0
8.4 1.1 0
8.7 1.1 0
9 1.1 0
9.3 1.1 0
9.6 1.1 0
9.9 1.1 0
10.2 1.1 0
10.5 1.1 0
10.8 1.1 0
11.1 1.1 0
11.4 1.1 0
11.7 1.1 0
12 1.1 0
12.3 1.1 0
12.6 1.1 0
12.9 1.1 0
13.2 1.1 0
13.5 1.1 0
13.8 1.1 0
14.1 1.1 0
14.4 1.1 0
14.7 1.1 0
15 1.1 0
15.3 1.1 0
15.6 1.1 0
15.9 1.1 0
16.2 1.1 0
16.5 1.1 0
16.8 1.1 0
17.1 1.1 0
17.4 1.1 0
17.7 1.1 0
18 1.1 0
18.3 1.1 0
18.6 1.1 0
18.9 1.1 0
19.2 1.1 0
19.5 1.1 0
19.8 1.1 0
20.1 1.1 0
20.4 1.1 0
20.7 1.1 0
21 1.1 0
21.3 1.1 0
21.6 1.1 0
21.9 1.1 0
22.2 1.1 0
22.5 1.1 0
22.8 1.1 0
23.1 1.1 0
23.4 1.1 0
23.7 1.1 0
24 1.1 0
24.3 1.1 0
24.6 1.1 0
24.9 1.1 0
25.2 1.1 0
25.5 1.1 0
25.8 1.1 0
26.1 1.1 0
26.4 1.1 0
26.7 1.1 0
27 1.1 0
27.3 1.1 0
27.6 1.1 0
27.9 1.1 0
28.2 1.1 0
28.5 1.1 0
28.8 1.1 0
29.1 1.1 0
29.4 1.1 0
29.7 1.1 0
30 1.1 0
30.3 1.1 0
30.6 1.1 0
0 1.2 0
0.3 1.2 0
0.6 1.2 0
0.9 1.2 0
1.2 1.2 0
1.5 1.2 0
1.8 1.2 0
2.1 1.2 0
2.4 1.2 0
2.7 1.2 0
3 1.2 0
3.3 1.2 0
3.6 1.2 0
3.9 1.2 0
4.2 1.2 0
4.5 1.2 0
4.8 1.2 0
5.1 1.2 0
5.4 1.2 0
5.7 1.2 0
6 1.2 0
6.3 1.2 0
6.6 1.2 0
6.9 1.2 0
7.2 1.2 0
7.5 1.2 0
7.8 1.2 0
8.1 1.2 0
8.4 1.2 0
8.7 1.2 0
9 1.2 0
9.3 1.2 0
9.6 1.2 0
9.9 1.2 0
10.2 1.2 0
10.5 1.2 0
10.8 1.2 0
11.1 1.2 0
11.4 1.2 0
11.7 1.2 0
12 1.2 0
12.3 1.2 0
12.6 1.2 0
12.9 1.2 0
13.2 1.2 0
13.5 1.2 0
13.8 1.2 0
14.1 1.2 0
14.4 1.2 0
14.7 1.2 0
15 1.2 0
15.3 1.2 0
15.6 1.2 0
15.9 1.2 0
16.2 1.2 0
16.5 1.2 0
16.8 1.2 0
17.1 1.2 0
17.4 1.2 0
17.7 1.2 0
18 1.2 0
18.3 1.2 0
18.6 1.2 0
18.9 1.2 0
19.2 1.2 0
19.5 1.2 0
19.8 1.2 0
20.1 1.2 0
20.4 1.2 0
20.7 1.2 0
21 1.2 0
21.3 1.2 0
21.6 1.2 0
21.9 1.2 0
22.2 1.2 0
22.5 1.2 0
22.8 1.2 0
23.1 1.2 0
23.4 1.2 0
23.7 1.2 0
24 1.2 0
24.3 1.2 0
24.6 1.2 0
24.9 1.2 0
25.2 1.2 0
25.5 1.2 0
25.8 1.2 0
26.1 1.2 0
26.4 1.2 0
26.7 1.2 0
27 1.2 0
27.3 1.2 0
27.6 1.2 0
27.9 1.2 0
28.2 1.2 0
28.5 1.2 0
28.8 1.2 0
29.1 1.2 0
29.4 1.2 0
29.7 1.2 0
30 1.2 0
30.3 1.2 0
30.6 1.2 0

POINT_DATA 1339

SCALARS pressure double
LOOKUP_TABLE pressure
1.17117
1.17117
1.10633
1.06209
1.02227
0.985694
0.952642
0.923114
0.896758
0.873049
0.851447
0.831484
0.812791
0.795091
0.778185
0.761925
0.746206
0.730951
0.716098
0.701604
0.687429
0.673544
0.659923
0.646545
0.633389
0.620439
0.607679
0.595097
0.582679
0.570415
0.558294
0.546308
0.534447
0.522703
0.51107
0.499541
0.48811
0.47677
0.465517
0.454345
0.44325
0.432227
0.421272
0.410382
0.399553
0.388781
0.378063
0.367397
0.356779
0.346208
0.33568
0.325196
0.314751
0.304347
0.29398
0.283651
0.273358
0.263101
0.252877
0.242687
0.232529
0.222401
0.212302
0.202231
0.192185
0.182162
0.172161
0.162179
0.152214
0.142264
0.132327
0.122401
0.112485
0.102577
0.0926752
0.0827792
0.0728876
0.0629995
0.0531143
0.0432312
0.0333498
0.0234697
0.0135906
0.0037122
-0.00616564
-0.0160431
-0.0259202
-0.0357972
-0.045674
-0.0555506
-0.0654272
-0.0753038
-0.0851803
-0.0950568
-0.104933
-0.11481
-0.124686
-0.134563
-0.144439
-0.154315
-0.164192
-0.174065
0.174065
1.17117
1.17117
1.10633
1.06209
1.02227
0.985694
0.952642
0.923114
0.896758
0.873049
0.851447
0.831484
0.812791
0.795091
0.778185
0.761925
0.746206
0.730951
0.716098
0.701604
0.687429
0.673544
0.659923
0.646545
0.633389
0.620439
0.607679
0.595097
0.582679
0.570415
0.558294
0.546308
0.534447
0.522703
0.51107
0.499541
0.48811
0.47677
0.465517
0.454345
0.44325
0.432227
0.421272
0.410382
0.399553
0.388781
0.378063
0.367397
0.356779
0.346208
0.33568
0.325196
0.314751
0.304347
0.29398
0.283651
0.273358
0.263101
0.252877
0.242687
0.232529
0.222401
0.212302
0.202231
0.192185
0.182162
0.172161
0.162179
0.152214
0.142264
0.132327
0.122401
0.112485
0.102577
0.0926752
0.0827792
0.0728876
0.0629995
0.0531143
0.0432312
0.0333498
0.0234697
0.0135906
0.0037122
-0.00616564
-0.0160431
-0.0259202
-0.0357972
-0.045674
-0.0555506
-0.0654272
-0.0753038
-0.0851803
-0.0950568
-0.104933
-0.11481
-0.124686
-0.134563
-0.144439
-0.154315
-0.164192
-0.174065
0.174065
1.15023
1.15023
1.10434
1.06232
1.02297
0.98649
0.953385
0.923745
0.897265
0.873444
0.85175
0.831717
0.812973
0.795236
0.778302
0.762022
0.746289
0.731022
0.716161
0.701659
0.687478
0.673589
0.659964
0.646581
0.633422
0.62047
0.607708
0.595123
0.582703
0.570437
0.558315
0.546327
0.534464
0.52272
0.511086
0.499556
0.488123
0.476783
0.465529
0.454356
0.44326
0.432237
0.421282
0.410391
0.399561
0.388789
0.378071
0.367404
0.356786
0.346214
0.335686
0.325201
0.314756
0.304351
0.293985
0.283655
0.273362
0.263104
0.25288
0.242689
0.232531
0.222403
0.212304
0.202232
0.192186
0.182163
0.172161
0.162179
0.152214
0.142264
0.132327
0.122401
0.112485
0.102577
0.0926752
0.0827791
0.0728876
0.0629995
0.0531142
0.0432311
0.0333498
0.0234697
0.0135906
0.00371218
-0.00616566
-0.0160431
-0.0259202
-0.0357972
-0.045674
-0.0555506
-0.0654272
-0.0753038
-0.0851803
-0.0950568
-0.104933
-0.11481
-0.124686
-0.134563
-0.144439
-0.154315
-0.164192
-0.174065
0.174065
1.13525
1.13525
1.10146
1.06255
1.02408
0.987814
0.954646
0.924823
0.898127
0.874103
0.852243
0.832082
0.813244
0.795441
0.77846
0.762147
0.74639
0.731106
0.716232
0.70172
0.687531
0.673635
0.660005
0.646618
0.633456
0.6205
0.607735
0.595148
0.582726
0.570458
0.558334
0.546344
0.53448
0.522735
0.5111
0.499568
0.488135
0.476794
0.465539
0.454366
0.443269
0.432245
0.42129
0.410398
0.399568
0.388795
0.378076
0.367409
0.356791
0.346219
0.335691
0.325205
0.31476
0.304355
0.293988
0.283658
0.273364
0.263106
0.252882
0.242691
0.232532
0.222404
0.212305
0.202233
0.192186
0.182163
0.172161
0.162179
0.152214
0.142264
0.132327
0.122401
0.112485
0.102577
0.0926751
0.0827791
0.0728875
0.0629994
0.0531142
0.0432311
0.0333497
0.0234696
0.0135905
0.00371216
-0.00616567
-0.0160431
-0.0259202
-0.0357972
-0.045674
-0.0555506
-0.0654272
-0.0753038
-0.0851803
-0.0950568
-0.104933
-0.11481
-0.124686
-0.134563
-0.144439
-0.154315
-0.164191
-0.174065
0.174065
1.12568
1.12568
1.09897
1.06266
1.02504
0.989009
0.955823
0.92586
0.89898
0.874776
0.85276
0.832477
0.813546
0.795675
0.778645
0.762297
0.746513
0.731209
0.71632
0.701796
0.687598
0.673694
0.660057
0.646665
0.633497
0.620537
0.607768
0.595178
0.582753
0.570483
0.558357
0.546365
0.5345
0.522753
0.511116
0.499584
0.488149
0.476807
0.465551
0.454377
0.44328
0.432255
0.421299
0.410407
0.399576
0.388802
0.378083
0.367416
0.356797
0.346224
0.335696
0.32521
0.314765
0.304359
0.293992
0.283662
0.273368
0.263109
0.252885
0.242694
0.232535
0.222406
0.212307
0.202235
0.192188
0.182165
0.172163
0.16218
0.152215
0.142264
0.132327
0.122401
0.112485
0.102577
0.0926754
0.0827793
0.0728876
0.0629996
0.0531143
0.0432312
0.0333498
0.0234697
0.0135906
0.00371218
-0.00616566
-0.0160431
-0.0259202
-0.0357972
-0.045674
-0.0555506
-0.0654272
-0.0753038
-0.0851803
-0.0950568
-0.104933
-0.11481
-0.124686
-0.134563
-0.144439
-0.154315
-0.164189
-0.174063
0.174063
1.12036
1.12036
1.09734
1.06268
1.02563
0.989776
0.956592
0.926549
0.899558
0.87524
0.853125
0.832761
0.813769
0.795852
0.778788
0.762415
0.746612
0.731294
0.716393
0.70186
0.687655
0.673744
0.660102
0.646706
0.633534
0.62057
0.607799
0.595206
0.582779
0.570507
0.558378
0.546385
0.534518
0.522769
0.511132
0.499598
0.488162
0.476819
0.465562
0.454388
0.44329
0.432264
0.421307
0.410415
0.399584
0.38881
0.37809
0.367422
0.356803
0.34623
0.335701
0.325215
0.31477
0.304364
0.293996
0.283666
0.273372
0.263113
0.252889
0.242697
0.232538
0.222409
0.21231
0.202237
0.19219
0.182167
0.172165
0.162182
0.152216
0.142266
0.132328
0.122402
0.112486
0.102577
0.0926758
0.0827797
0.072888
0.0629998
0.0531145
0.0432313
0.0333499
0.0234698
0.0135906
0.00371222
-0.00616563
-0.0160431
-0.0259202
-0.0357972
-0.0456739
-0.0555506
-0.0654272
-0.0753038
-0.0851803
-0.0950568
-0.104933
-0.11481
-0.124686
-0.134562
-0.144439
-0.154314
-0.164187
-0.174062
0.174062
1.11866
1.11866
1.0968
1.06269
1.02584
0.99005
0.956866
0.926795
0.899764
0.875407
0.853257
0.832865
0.813852
0.795919
0.778843
0.76246
0.746651
0.731327
0.716422
0.701886
0.687678
0.673765
0.660121
0.646723
0.63355
0.620584
0.607812
0.595218
0.58279
0.570516
0.558388
0.546394
0.534526
0.522777
0.511138
0.499604
0.488168
0.476825
0.465567
0.454392
0.443294
0.432268
0.421311
0.410419
0.399587
0.388813
0.378093
0.367425
0.356805
0.346232
0.335704
0.325217
0.314772
0.304366
0.293998
0.283668
0.273374
0.263115
0.25289
0.242699
0.23254
0.222411
0.212311
0.202238
0.192191
0.182168
0.172166
0.162183
0.152217
0.142266
0.132329
0.122403
0.112486
0.102578
0.0926761
0.0827799
0.0728881
0.0629999
0.0531146
0.0432314
0.0333499
0.0234698
0.0135907
0.00371225
-0.00616561
-0.0160431
-0.0259202
-0.0357972
-0.0456739
-0.0555506
-0.0654272
-0.0753038
-0.0851803
-0.0950568
-0.104933
-0.11481
-0.124686
-0.134562
-0.144439
-0.154314
-0.164186
-0.174062
0.174062
1.12036
1.12036
1.09734
1.06268
1.02563
0.989776
0.956592
0.926549
0.899558
0.87524
0.853125
0.832761
0.813769
0.795852
0.778788
0.762415
0.746612
0.731294
0.716393
0.70186
0.687655
0.673744
0.660102
0.646706
0.633534
0.62057
0.607799
0.595206
0.582779
0.570507
0.558378
0.546385
0.534518
0.522769
0.511132
0.499598
0.488162
0.476819
0.465562
0.454388
0.44329
0.432264
0.421307
0.410415
0.399584
0.38881
0.37809
0.367422
0.356803
0.34623
0.335701
0.325215
0.31477
0.304364
0.293996
0.283666
0.273372
0.263113
0.252889
0.242697
0.232538
0.222409
0.21231
0.202237
0.19219
0.182167
0.172165
0.162182
0.152216
0.142266
0.132328
0.122402
0.112486
0.102577
0.0926758
0.0827797
0.072888
0.0629998
0.0531145
0.0432313
0.0333499
0.0234698
0.0135906
0.00371222
-0.00616563
-0.0160431
-0.0259202
-0.0357972
-0.0456739
-0.0555506
-0.0654272
-0.0753038
-0.0851803
-0.0950568
-0.104933
-0.11481
-0.124686
-0.134562
-0.144439
-0.154314
-0.164187
-0.174062
0.174062
1.12568
1.12568
1.09897
1.06266
1.02504
0.989009
0.955823
0.92586
0.89898
0.874776
0.85276
0.832477
0.813546
0.795675
0.778645
0.762297
0.746513
0.731209
0.71632
0.701796
0.687598
0.673694
0.660057
0.646665
0.633497
0.620537
0.607768
0.595178
0.582753
0.570483
0.558357
0.546365
0.5345
0.522753
0.511116
0.499584
0.488149
0.476807
0.465551
0.454377
0.44328
0.432255
0.421299
0.410407
0.399576
0.388802
0.378083
0.367416
0.356797
0.346224
0.335696
0.32521
0.314765
0.304359
0.293992
0.283662
0.273368
0.263109
0.252885
0.242694
0.232535
0.222406
0.212307
0.202235
0.192188
0.182165
0.172163
0.16218
0.152215
0.142264
0.132327
0.122401
0.112485
0.102577
0.0926754
0.0827793
0.0728876
0.0629996
0.0531143
0.0432312
0.0333498
0.0234697
0.0135906
0.00371218
-0.00616566
-0.0160431
-0.0259202
-0.0357972
-0.045674
-0.0555506
-0.0654272
-0.0753038
-0.0851803
-0.0950568
-0.104933
-0.11481
-0.124686
-0.134563
-0.144439
-0.154315
-0.164189
-0.174063
0.174063
1.13525
1.13525
1.10146
1.06255
1.02408
0.987814
0.954646
0.924823
0.898127
0.874103
0.852243
0.832082
0.813244
0.795441
0.77846
0.762147
0.74639
0.731106
0.716232
0.70172
0.687531
0.673635
0.660005
0.646618
0.633456
0.6205
0.607735
0.595148
0.582726
0.570458
0.558334
0.546344
0.53448
0.522735
0.5111
0.499568
0.488135
0.476794
0.465539
0.454366
0.443269
0.432245
0.42129
0.410398
0.399568
0.388795
0.378076
0.367409
0.356791
0.346219
0.335691
0.325205
0.31476
0.304355
0.293988
0.283658
0.273364
0.263106
0.252882
0.242691
0.232532
0.222404
0.212305
0.202233
0.192186
0.182163
0.172161
0.162179
0.152214
0.142264
0.132327
0.122401
0.112485
0.102577
0.0926751
0.0827791
0.0728875
0.0629994
0.0531142
0.0432311
0.0333497
0.0234696
0.0135905
0.00371216
-0.00616567
-0.0160431
-0.0259202
-0.0357972
-0.045674
-0.0555506
-0.0654272
-0.0753038
-0.0851803
-0.0950568
-0.104933
-0.11481
-0.124686
-0.134563
-0.144439
-0.154315
-0.164191
-0.174065
0.174065
1.15023
1.15023
1.10434
1.06232
1.02297
0.98649
0.953385
0.923745
0.897265
0.873444
0.85175
0.831717
0.812973
0.795236
0.778302
0.762022
0.746289
0.731022
0.716161
0.701659
0.687478
0.673589
0.659964
0.646581
0.633422
0.62047
0.607708
0.595123
0.582703
0.570437
0.558315
0.546327
0.534464
0.52272
0.511086
0.499556
0.488123
0.476783
0.465529
0.454356
0.44326
0.432237
0.421282
0.410391
0.399561
0.388789
0.378071
0.367404
0.356786
0.346214
0.335686
0.325201
0.314756
0.304351
0.293985
0.283655
0.273362
0.263104
0.25288
0.242689
0.232531
0.222403
0.212304
0.202232
0.192186
0.182163
0.172161
0.162179
0.152214
0.142264
0.132327
0.122401
0.112485
0.102577
0.0926752
0.0827791
0.0728876
0.0629995
0.0531142
0.0432311
0.0333498
0.0234697
0.0135906
0.00371218
-0.00616566
-0.0160431
-0.0259202
-0.0357972
-0.045674
-0.0555506
-0.0654272
-0.0753038
-0.0851803
-0.0950568
-0.104933
-0.11481
-0.124686
-0.134563
-0.144439
-0.154315
-0.164192
-0.174065
0.174065
1.17117
1.17117
1.10633
1.06209
1.02227
0.985694
0.952642
0.923114
0.896758
0.873049
0.851447
0.831484
0.812791
0.795091
0.778185
0.761925
0.746206
0.730951
0.716098
0.701604
0.687429
0.673544
0.659924
0.646545
0.633389
0.620439
0.607679
0.595097
0.582679
0.570415
0.558294
0.546308
0.534447
0.522703
0.51107
0.499541
0.48811
0.47677
0.465517
0.454345
0.44325
0.432227
0.421272
0.410382
0.399553
0.388781
0.378063
0.367397
0.356779
0.346208
0.33568
0.325196
0.314751
0.304347
0.29398
0.283651
0.273358
0.263101
0.252877
0.242687
0.232529
0.222401
0.212302
0.202231
0.192185
0.182162
0.172161
0.162179
0.152214
0.142264
0.132327
0.122401
0.112485
0.102577
0.0926752
0.0827792
0.0728876
0.0629995
0.0531143
0.0432312
0.0333498
0.0234697
0.0135906
0.00371219
-0.00616565
-0.0160431
-0.0259202
-0.0357972
-0.0456739
-0.0555506
-0.0654272
-0.0753038
-0.0851803
-0.0950568
-0.104933
-0.11481
-0.124686
-0.134563
-0.144439
-0.154315
-0.164192
-0.174066
0.174066
1.17117
1.17117
1.10633
1.06209
1.02227
0.985694
0.952642
0.923114
0.896758
0.873049
0.851447
0.831484
0.812791
0.795091
0.778185
0.761925
0.746206
0.730951
0.716098
0.701604
0.687429
0.673544
0.659924
0.646545
0.633389
0.620439
0.607679
0.595097
0.582679
0.570415
0.558294
0.546308
0.534447
0.522703
0.51107
0.499541
0.48811
0.47677
0.465517
0.454345
0.44325
0.432227
0.421272
0.410382
0.399553
0.388781
0.378063
0.367397
0.356779
0.346208
0.33568
0.325196
0.314751
0.304347
0.29398
0.283651
0.273358
0.263101
0.252877
0.242687
0.232529
0.222401
0.212302
0.202231
0.192185
0.182162
0.172161
0.162179
0.152214
0.142264
0.132327
0.122401
0.112485
0.102577
0.0926752
0.0827792
0.0728876
0.0629995
0.0531143
0.0432312
0.0333498
0.0234697
0.0135906
0.00371219
-0.00616565
-0.0160431
-0.0259202
-0.0357972
-0.0456739
-0.0555506
-0.0654272
-0.0753038
-0.0851803
-0.0950568
-0.104933
-0.11481
-0.124686
-0.134563
-0.144439
-0.154315
-0.164192
-0.174066
0.174066
SCALARS phi double
LOOKUP_TABLE phi
1
1
1
1
0.999998
0.999994
0.999982
0.999957
0.99991
0.99983
0.999705
0.999525
0.999277
0.998951
0.998535
0.998021
0.997402
0.996682
0.995862
0.994918
0.993761
0.992207
0.989976
0.986715
0.982052
0.975645
0.967225
0.956616
0.943743
0.928617
0.911321
0.891998
0.870826
0.848013
0.823781
0.798357
0.771966
0.744826
0.717142
0.689106
0.660891
0.632654
0.604532
0.576648
0.549105
0.521993
0.495386
0.469348
0.443928
0.419167
0.395096
0.371739
0.349112
0.327227
0.306091
0.285708
0.266077
0.247198
0.229069
0.211686
0.195045
0.179146
0.163984
0.149557
0.135866
0.122909
0.110686
0.0991976
0.0884424
0.0784191
0.0691244
0.0605526
0.052695
0.0455391
0.0390682
0.0332611
0.0280916
0.023529
0.0195382
0.0160803
0.0131134
0.0105935
0.00847566
0.00671464
0.00526634
0.00408849
0.00314139
0.00238854
0.00179701
0.00133764
0.000985073
0.000717652
0.0005172
0.000368715
0.000260019
0.000181383
0.000125162
8.54334e-05
5.76973e-05
3.84986e-05
2.56548e-05
1.57069e-05
1.57069e-05
1
1
1
1
0.999998
0.999994
0.999982
0.999957
0.99991
0.99983
0.999705
0.999525
0.999277
0.998951
0.998535
0.998021
0.997402
0.996682
0.995862
0.994918
0.993761
0.992207
0.989976
0.986715
0.982052
0.975645
0.967225
0.956616
0.943743
0.928617
0.911321
0.891998
0.870826
0.848013
0.823781
0.798357
0.771966
0.744826
0.717142
0.689106
0.660891
0.632654
0.604532
0.576648
0.549105
0.521993
0.495386
0.469348
0.443928
0.419167
0.395096
0.371739
0.349112
0.327227
0.306091
0.285708
0.266077
0.247198
0.229069
0.211686
0.195045
0.179146
0.163984
0.149557
0.135866
0.122909
0.110686
0.0991976
0.0884424
0.0784191
0.0691244
0.0605526
0.052695
0.0455391
0.0390682
0.0332611
0.0280916
0.023529
0.0195382
0.0160803
0.0131134
0.0105935
0.00847566
0.00671464
0.00526634
0.00408849
0.00314139
0.00238854
0.00179701
0.00133764
0.000985073
0.000717652
0.0005172
0.000368715
0.000260019
0.000181383
0.000125162
8.54334e-05
5.76973e-05
3.84986e-05
2.56548e-05
1.57069e-05
1.57069e-05
1
1
1
0.999996
0.999983
0.999954
0.999898
0.999804
0.999658
0.999446
0.999157
0.998777
0.998299
0.997713
0.997014
0.996195
0.995254
0.99419
0.993006
0.991701
0.990267
0.988667
0.986823
0.984613
0.981866
0.978384
0.973955
0.968376
0.961469
0.953093
0.943154
0.931601
0.918429
0.903674
0.887405
0.869718
0.850731
0.830577
0.809398
0.787339
0.764548
0.741167
0.717333
0.693176
0.668817
0.644367
0.619925
0.595583
0.571421
0.547509
0.523908
0.50067
0.477837
0.455444
0.433517
0.412075
0.391132
0.370694
0.350764
0.331337
0.312409
0.293972
0.276016
0.258532
0.241511
0.224947
0.208836
0.19318
0.177986
0.163267
0.149042
0.135339
0.122189
0.10963
0.0977018
0.0864461
0.075902
0.0661042
0.0570802
0.0488479
0.0414139
0.0347726
0.0289055
0.0237824
0.0193622
0.0155949
0.012424
0.00978855
0.00762605
0.00587434
0.00447364
0.00336806
0.00250666
0.00184416
0.00134118
0.000964177
0.000685207
0.000481368
0.000334385
0.000229298
0.000157121
9.85192e-05
9.85192e-05
0.999997
1
0.99998
0.999896
0.999724
0.999434
0.998999
0.998397
0.997613
0.996636
0.995464
0.994099
0.992546
0.990816
0.988916
0.986859
0.984655
0.982316
0.979853
0.977279
0.974602
0.971829
0.968957
0.965972
0.96284
0.95951
0.955914
0.951967
0.947575
0.942638
0.93706
0.930751
0.923633
0.915641
0.906729
0.896867
0.886042
0.874261
0.861543
0.847922
0.833444
0.818164
0.802144
0.785452
0.768161
0.750342
0.732069
0.713417
0.694455
0.675253
0.655876
0.636385
0.616835
0.597278
0.577759
0.558315
0.538977
0.519771
0.500711
0.481809
0.463066
0.444477
0.42603
0.407707
0.389486
0.37134
0.353239
0.335156
0.317063
0.29894
0.280779
0.262584
0.244376
0.226198
0.208116
0.190216
0.172608
0.155414
0.13877
0.122813
0.107678
0.0934859
0.0803383
0.0683124
0.0574563
0.0477878
0.0392949
0.0319381
0.0256547
0.0203636
0.0159709
0.0123755
0.00947398
0.00716523
0.00535369
0.0039519
0.00288206
0.00207654
0.00147866
0.00103862
0.000729175
0.000467917