# vtk DataFile Version 3.0
FlowField
ASCII
DATASET STRUCTURED_GRID
DIMENSIONS 103 13 1 
POINTS 1339 double
0 0 0
0.3 0 0
0.6 0 0
0.9 0 0
1.2 0 0
1.5 0 0
1.8 0 0
2.1 0 0
2.4 0 0
2.7 0 0
3 0 0
3.3 0 0
3.6 0 0
3.9 0 0
4.2 0 0
4.5 0 0
4.8 0 0
5.1 0 0
5.4 0 0
5.7 0 0
6 0 0
6.3 0 0
6.6 0 0
6.9 0 0
7.2 0 0
7.5 0 0
7.8 0 0
8.1 0 0
8.4 0 0
8.7 0 0
9 0 0
9.3 0 0
9.6 0 0
9.9 0 0
10.2 0 0
10.5 0 0
10.8 0 0
11.1 0 0
11.4 0 0
11.7 0 0
12 0 0
12.3 0 0
12.6 0 0
12.9 0 0
13.2 0 0
13.5 0 0
13.8 0 0
14.1 0 0
14.4 0 0
14.7 0 0
15 0 0
15.3 0 0
15.6 0 0
15.9 0 0
16.2 0 0
16.5 0 0
16.8 0 0
17.1 0 0
17.4 0 0
17.7 0 0
18 0 0
18.3 0 0
18.6 0 0
18.9 0 0
19.2 0 0
19.5 0 0
19.8 0 0
20.1 0 0
20.4 0 0
20.7 0 0
21 0 0
21.3 0 0
21.6 0 0
21.9 0 0
22.2 0 0
22.5 0 0
22.8 0 0
23.1 0 0
23.4 0 0
23.7 0 0
24 0 0
24.3 0 0
24.6 0 0
24.9 0 0
25.2 0 0
25.5 0 0
25.8 0 0
26.1 0 0
26.4 0 0
26.7 0 0
27 0 0
27.3 0 0
27.6 0 0
27.9 0 0
28.2 0 0
28.5 0 0
28.8 0 0
29.1 0 0
29.4 0 0
29.7 0 0
30 0 0
30.3 0 0
30.6 0 0
0 0.1 0
0.3 0.1 0
0.6 0.1 0
0.9 0.1 0
1.2 0.1 0
1.5 0.1 0
1.8 0.1 0
2.1 0.1 0
2.4 0.1 0
2.7 0.1 0
3 0.1 0
3.3 0.1 0
3.6 0.1 0
3.9 0.1 0
4.2 0.1 0
4.5 0.1 0
4.8 0.1 0
5.1 0.1 0
5.4 0.1 0
5.7 0.1 0
6 0.1 0
6.3 0.1 0
6.6 0.1 0
6.9 0.1 0
7.2 0.1 0
7.5 0.1 0
7.8 0.1 0
8.1 0.1 0
8.4 0.1 0
8.7 0.1 0
9 0.1 0
9.3 0.1 0
9.6 0.1 0
9.9 0.1 0
10.2 0.1 0
10.5 0.1 0
10.8 0.1 0
11.1 0.1 0
11.4 0.1 0
11.7 0.1 0
12 0.1 0
12.3 0.1 0
12.6 0.1 0
12.9 0.1 0
13.2 0.1 0
13.5 0.1 0
13.8 0.1 0
14.1 0.1 0
14.4 0.1 0
14.7 0.1 0
15 0.1 0
15.3 0.1 0
15.6 0.1 0
15.9 0.1 0
16.2 0.1 0
16.5 0.1 0
16.8 0.1 0
17.1 0.1 0
17.4 0.1 0
17.7 0.1 0
18 0.1 0
18.3 0.1 0
18.6 0.1 0
18.9 0.1 0
19.2 0.1 0
19.5 0.1 0
19.8 0.1 0
20.1 0.1 0
20.4 0.1 0
20.7 0.1 0
21 0.1 0
21.3 0.1 0
21.6 0.1 0
21.9 0.1 0
22.2 0.1 0
22.5 0.1 0
22.8 0.1 0
23.1 0.1 0
23.4 0.1 0
23.7 0.1 0
24 0.1 0
24.3 0.1 0
24.6 0.1 0
24.9 0.1 0
25.2 0.1 0
25.5 0.1 0
25.8 0.1 0
26.1 0.1 0
26.4 0.1 0
26.7 0.1 0
27 0.1 0
27.3 0.1 0
27.6 0.1 0
27.9 0.1 0
28.2 0.1 0
28.5 0.1 0
28.8 0.1 0
29.1 0.1 0
29.4 0.1 0
29.7 0.1 0
30 0.1 0
30.3 0.1 0
30.6 0.1 0
0 0.2 0
0.3 0.2 0
0.6 0.2 0
0.9 0.2 0
1.2 0.2 0
1.5 0.2 0
1.8 0.2 0
2.1 0.2 0
2.4 0.2 0
2.7 0.2 0
3 0.2 0
3.3 0.2 0
3.6 0.2 0
3.9 0.2 0
4.2 0.2 0
4.5 0.2 0
4.8 0.2 0
5.1 0.2 0
5.4 0.2 0
5.7 0.2 0
6 0.2 0
6.3 0.2 0
6.6 0.2 0
6.9 0.2 0
7.2 0.2 0
7.5 0.2 0
7.8 0.2 0
8.1 0.2 0
8.4 0.2 0
8.7 0.2 0
9 0.2 0
9.3 0.2 0
9.6 0.2 0
9.9 0.2 0
10.2 0.2 0
10.5 0.2 0
10.8 0.2 0
11.1 0.2 0
11.4 0.2 0
11.7 0.2 0
12 0.2 0
12.3 0.2 0
12.6 0.2 0
12.9 0.2 0
13.2 0.2 0
13.5 0.2 0
13.8 0.2 0
14.1 0.2 0
14.4 0.2 0
14.7 0.2 0
15 0.2 0
15.3 0.2 0
15.6 0.2 0
15.9 0.2 0
16.2 0.2 0
16.5 0.2 0
16.8 0.2 0
17.1 0.2 0
17.4 0.2 0
17.7 0.2 0
18 0.2 0
18.3 0.2 0
18.6 0.2 0
18.9 0.2 0
19.2 0.2 0
19.5 0.2 0
19.8 0.2 0
20.1 0.2 0
20.4 0.2 0
20.7 0.2 0
21 0.2 0
21.3 0.2 0
21.6 0.2 0
21.9 0.2 0
22.2 0.2 0
22.5 0.2 0
22.8 0.2 0
23.1 0.2 0
23.4 0.2 0
23.7 0.2 0
24 0.2 0
24.3 0.2 0
24.6 0.2 0
24.9 0.2 0
25.2 0.2 0
25.5 0.2 0
25.8 0.2 0
26.1 0.2 0
26.4 0.2 0
26.7 0.2 0
27 0.2 0
27.3 0.2 0
27.6 0.2 0
27.9 0.2 0
28.2 0.2 0
28.5 0.2 0
28.8 0.2 0
29.1 0.2 0
29.4 0.2 0
29.7 0.2 0
30 0.2 0
30.3 0.2 0
30.6 0.2 0
0 0.3 0
0.3 0.3 0
0.6 0.3 0
0.9 0.3 0
1.2 0.3 0
1.5 0.3 0
1.8 0.3 0
2.1 0.3 0
2.4 0.3 0
2.7 0.3 0
3 0.3 0
3.3 0.3 0
3.6 0.3 0
3.9 0.3 0
4.2 0.3 0
4.5 0.3 0
4.8 0.3 0
5.1 0.3 0
5.4 0.3 0
5.7 0.3 0
6 0.3 0
6.3 0.3 0
6.6 0.3 0
6.9 0.3 0
7.2 0.3 0
7.5 0.3 0
7.8 0.3 0
8.1 0.3 0
8.4 0.3 0
8.7 0.3 0
9 0.3 0
9.3 0.3 0
9.6 0.3 0
9.9 0.3 0
10.2 0.3 0
10.5 0.3 0
10.8 0.3 0
11.1 0.3 0
11.4 0.3 0
11.7 0.3 0
12 0.3 0
12.3 0.3 0
12.6 0.3 0
12.9 0.3 0
13.2 0.3 0
13.5 0.3 0
13.8 0.3 0
14.1 0.3 0
14.4 0.3 0
14.7 0.3 0
15 0.3 0
15.3 0.3 0
15.6 0.3 0
15.9 0.3 0
16.2 0.3 0
16.5 0.3 0
16.8 0.3 0
17.1 0.3 0
17.4 0.3 0
17.7 0.3 0
18 0.3 0
18.3 0.3 0
18.6 0.3 0
18.9 0.3 0
19.2 0.3 0
19.5 0.3 0
19.8 0.3 0
20.1 0.3 0
20.4 0.3 0
20.7 0.3 0
21 0.3 0
21.3 0.3 0
21.6 0.3 0
21.9 0.3 0
22.2 0.3 0
22.5 0.3 0
22.8 0.3 0
23.1 0.3 0
23.4 0.3 0
23.7 0.3 0
24 0.3 0
24.3 0.3 0
24.6 0.3 0
24.9 0.3 0
25.2 0.3 0
25.5 0.3 0
25.8 0.3 0
26.1 0.3 0
26.4 0.3 0
26.7 0.3 0
27 0.3 0
27.3 0.3 0
27.6 0.3 0
27.9 0.3 0
28.2 0.3 0
28.5 0.3 0
28.8 0.3 0
29.1 0.3 0
29.4 0.3 0
29.7 0.3 0
30 0.3 0
30.3 0.3 0
30.6 0.3 0
0 0.4 0
0.3 0.4 0
0.6 0.4 0
0.9 0.4 0
1.2 0.4 0
1.5 0.4 0
1.8 0.4 0
2.1 0.4 0
2.4 0.4 0
2.7 0.4 0
3 0.4 0
3.3 0.4 0
3.6 0.4 0
3.9 0.4 0
4.2 0.4 0
4.5 0.4 0
4.8 0.4 0
5.1 0.4 0
5.4 0.4 0
5.7 0.4 0
6 0.4 0
6.3 0.4 0
6.6 0.4 0
6.9 0.4 0
7.2 0.4 0
7.5 0.4 0
7.8 0.4 0
8.1 0.4 0
8.4 0.4 0
8.7 0.4 0
9 0.4 0
9.3 0.4 0
9.6 0.4 0
9.9 0.4 0
10.2 0.4 0
10.5 0.4 0
10.8 0.4 0
11.1 0.4 0
11.4 0.4 0
11.7 0.4 0
12 0.4 0
12.3 0.4 0
12.6 0.4 0
12.9 0.4 0
13.2 0.4 0
13.5 0.4 0
13.8 0.4 0
14.1 0.4 0
14.4 0.4 0
14.7 0.4 0
15 0.4 0
15.3 0.4 0
15.6 0.4 0
15.9 0.4 0
16.2 0.4 0
16.5 0.4 0
16.8 0.4 0
17.1 0.4 0
17.4 0.4 0
17.7 0.4 0
18 0.4 0
18.3 0.4 0
18.6 0.4 0
18.9 0.4 0
19.2 0.4 0
19.5 0.4 0
19.8 0.4 0
20.1 0.4 0
20.4 0.4 0
20.7 0.4 0
21 0.4 0
21.3 0.4 0
21.6 0.4 0
21.9 0.4 0
22.2 0.4 0
22.5 0.4 0
22.8 0.4 0
23.1 0.4 0
23.4 0.4 0
23.7 0.4 0
24 0.4 0
24.3 0.4 0
24.6 0.4 0
24.9 0.4 0
25.2 0.4 0
25.5 0.4 0
25.8 0.4 0
26.1 0.4 0
26.4 0.4 0
26.7 0.4 0
27 0.4 0
27.3 0.4 0
27.6 0.4 0
27.9 0.4 0
28.2 0.4 0
28.5 0.4 0
28.8 0.4 0
29.1 0.4 0
29.4 0.4 0
29.7 0.4 0
30 0.4 0
30.3 0.4 0
30.6 0.4 0
0 0.5 0
0.3 0.5 0
0.6 0.5 0
0.9 0.5 0
1.2 0.5 0
1.5 0.5 0
1.8 0.5 0
2.1 0.5 0
2.4 0.5 0
2.7 0.5 0
3 0.5 0
3.3 0.5 0
3.6 0.5 0
3.9 0.5 0
4.2 0.5 0
4.5 0.5 0
4.8 0.5 0
5.1 0.5 0
5.4 0.5 0
5.7 0.5 0
6 0.5 0
6.3 0.5 0
6.6 0.5 0
6.9 0.5 0
7.2 0.5 0
7.5 0.5 0
7.8 0.5 0
8.1 0.5 0
8.4 0.5 0
8.7 0.5 0
9 0.5 0
9.3 0.5 0
9.6 0.5 0
9.9 0.5 0
10.2 0.5 0
10.5 0.5 0
10.8 0.5 0
11.1 0.5 0
11.4 0.5 0
11.7 0.5 0
12 0.5 0
12.3 0.5 0
12.6 0.5 0
12.9 0.5 0
13.2 0.5 0
13.5 0.5 0
13.8 0.5 0
14.1 0.5 0
14.4 0.5 0
14.7 0.5 0
15 0.5 0
15.3 0.5 0
15.6 0.5 0
15.9 0.5 0
16.2 0.5 0
16.5 0.5 0
16.8 0.5 0
17.1 0.5 0
17.4 0.5 0
17.7 0.5 0
18 0.5 0
18.3 0.5 0
18.6 0.5 0
18.9 0.5 0
19.2 0.5 0
19.5 0.5 0
19.8 0.5 0
20.1 0.5 0
20.4 0.5 0
20.7 0.5 0
21 0.5 0
21.3 0.5 0
21.6 0.5 0
21.9 0.5 0
22.2 0.5 0
22.5 0.5 0
22.8 0.5 0
23.1 0.5 0
23.4 0.5 0
23.7 0.5 0
24 0.5 0
24.3 0.5 0
24.6 0.5 0
24.9 0.5 0
25.2 0.5 0
25.5 0.5 0
25.8 0.5 0
26.1 0.5 0
26.4 0.5 0
26.7 0.5 0
27 0.5 0
27.3 0.5 0
27.6 0.5 0
27.9 0.5 0
28.2 0.5 0
28.5 0.5 0
28.8 0.5 0
29.1 0.5 0
29.4 0.5 0
29.7 0.5 0
30 0.5 0
30.3 0.5 0
30.6 0.5 0
0 0.6 0
0.3 0.6 0
0.6 0.6 0
0.9 0.6 0
1.2 0.6 0
1.5 0.6 0
1.8 0.6 0
2.1 0.6 0
2.4 0.6 0
2.7 0.6 0
3 0.6 0
3.3 0.6 0
3.6 0.6 0
3.9 0.6 0
4.2 0.6 0
4.5 0.6 0
4.8 0.6 0
5.1 0.6 0
5.4 0.6 0
5.7 0.6 0
6 0.6 0
6.3 0.6 0
6.6 0.6 0
6.9 0.6 0
7.2 0.6 0
7.5 0.6 0
7.8 0.6 0
8.1 0.6 0
8.4 0.6 0
8.7 0.6 0
9 0.6 0
9.3 0.6 0
9.6 0.6 0
9.9 0.6 0
10.2 0.6 0
10.5 0.6 0
10.8 0.6 0
11.1 0.6 0
11.4 0.6 0
11.7 0.6 0
12 0.6 0
12.3 0.6 0
12.6 0.6 0
12.9 0.6 0
13.2 0.6 0
13.5 0.6 0
13.8 0.6 0
14.1 0.6 0
14.4 0.6 0
14.7 0.6 0
15 0.6 0
15.3 0.6 0
15.6 0.6 0
15.9 0.6 0
16.2 0.6 0
16.5 0.6 0
16.8 0.6 0
17.1 0.6 0
17.4 0.6 0
17.7 0.6 0
18 0.6 0
18.3 0.6 0
18.6 0.6 0
18.9 0.6 0
19.2 0.6 0
19.5 0.6 0
19.8 0.6 0
20.1 0.6 0
20.4 0.6 0
20.7 0.6 0
21 0.6 0
21.3 0.6 0
21.6 0.6 0
21.9 0.6 0
22.2 0.6 0
22.5 0.6 0
22.8 0.6 0
23.1 0.6 0
23.4 0.6 0
23.7 0.6 0
24 0.6 0
24.3 0.6 0
24.6 0.6 0
24.9 0.6 0
25.2 0.6 0
25.5 0.6 0
25.8 0.6 0
26.1 0.6 0
26.4 0.6 0
26.7 0.6 0
27 0.6 0
27.3 0.6 0
27.6 0.6 0
27.9 0.6 0
28.2 0.6 0
28.5 0.6 0
28.8 0.6 0
29.1 0.6 0
29.4 0.6 0
29.7 0.6 0
30 0.6 0
30.3 0.6 0
30.6 0.6 0
0 0.7 0
0.3 0.7 0
0.6 0.7 0
0.9 0.7 0
1.2 0.7 0
1.5 0.7 0
1.8 0.7 0
2.1 0.7 0
2.4 0.7 0
2.7 0.7 0
3 0.7 0
3.3 0.7 0
3.6 0.7 0
3.9 0.7 0
4.2 0.7 0
4.5 0.7 0
4.8 0.7 0
5.1 0.7 0
5.4 0.7 0
5.7 0.7 0
6 0.7 0
6.3 0.7 0
6.6 0.7 0
6.9 0.7 0
7.2 0.7 0
7.5 0.7 0
7.8 0.7 0
8.1 0.7 0
8.4 0.7 0
8.7 0.7 0
9 0.7 0
9.3 0.7 0
9.6 0.7 0
9.9 0.7 0
10.2 0.7 0
10.5 0.7 0
10.8 0.7 0
11.1 0.7 0
11.4 0.7 0
11.7 0.7 0
12 0.7 0
12.3 0.7 0
12.6 0.7 0
12.9 0.7 0
13.2 0.7 0
13.5 0.7 0
13.8 0.7 0
14.1 0.7 0
14.4 0.7 0
14.7 0.7 0
15 0.7 0
15.3 0.7 0
15.6 0.7 0
15.9 0.7 0
16.2 0.7 0
16.5 0.7 0
16.8 0.7 0
17.1 0.7 0
17.4 0.7 0
17.7 0.7 0
18 0.7 0
18.3 0.7 0
18.6 0.7 0
18.9 0.7 0
19.2 0.7 0
19.5 0.7 0
19.8 0.7 0
20.1 0.7 0
20.4 0.7 0
20.7 0.7 0
21 0.7 0
21.3 0.7 0
21.6 0.7 0
21.9 0.7 0
22.2 0.7 0
22.5 0.7 0
22.8 0.7 0
23.1 0.7 0
23.4 0.7 0
23.7 0.7 0
24 0.7 0
24.3 0.7 0
24.6 0.7 0
24.9 0.7 0
25.2 0.7 0
25.5 0.7 0
25.8 0.7 0
26.1 0.7 0
26.4 0.7 0
26.7 0.7 0
27 0.7 0
27.3 0.7 0
27.6 0.7 0
27.9 0.7 0
28.2 0.7 0
28.5 0.7 0
28.8 0.7 0
29.1 0.7 0
29.4 0.7 0
29.7 0.7 0
30 0.7 0
30.3 0.7 0
30.6 0.7 0
0 0.8 0
0.3 0.8 0
0.6 0.8 0
0.9 0.8 0
1.2 0.8 0
1.5 0.8 0
1.8 0.8 0
2.1 0.8 0
2.4 0.8 0
2.7 0.8 0
3 0.8 0
3.3 0.8 0
3.6 0.8 0
3.9 0.8 0
4.2 0.8 0
4.5 0.8 0
4.8 0.8 0
5.1 0.8 0
5.4 0.8 0
5.7 0.8 0
6 0.8 0
6.3 0.8 0
6.6 0.8 0
6.9 0.8 0
7.2 0.8 0
7.5 0.8 0
7.8 0.8 0
8.1 0.8 0
8.4 0.8 0
8.7 0.8 0
9 0.8 0
9.3 0.8 0
9.6 0.8 0
9.9 0.8 0
10.2 0.8 0
10.5 0.8 0
10.8 0.8 0
11.1 0.8 0
11.4 0.8 0
11.7 0.8 0
12 0.8 0
12.3 0.8 0
12.6 0.8 0
12.9 0.8 0
13.2 0.8 0
13.5 0.8 0
13.8 0.8 0
14.1 0.8 0
14.4 0.8 0
14.7 0.8 0
15 0.8 0
15.3 0.8 0
15.6 0.8 0
15.9 0.8 0
16.2 0.8 0
16.5 0.8 0
16.8 0.8 0
17.1 0.8 0
17.4 0.8 0
17.7 0.8 0
18 0.8 0
18.3 0.8 0
18.6 0.8 0
18.9 0.8 0
19.2 0.8 0
19.5 0.8 0
19.8 0.8 0
20.1 0.8 0
20.4 0.8 0
20.7 0.8 0
21 0.8 0
21.3 0.8 0
21.6 0.8 0
21.9 0.8 0
22.2 0.8 0
22.5 0.8 0
22.8 0.8 0
23.1 0.8 0
23.4 0.8 0
23.7 0.8 0
24 0.8 0
24.3 0.8 0
24.6 0.8 0
24.9 0.8 0
25.2 0.8 0
25.5 0.8 0
25.8 0.8 0
26.1 0.8 0
26.4 0.8 0
26.7 0.8 0
27 0.8 0
27.3 0.8 0
27.6 0.8 0
27.9 0.8 0
28.2 0.8 0
28.5 0.8 0
28.8 0.8 0
29.1 0.8 0
29.4 0.8 0
29.7 0.8 0
30 0.8 0
30.3 0.8 0
30.6 0.8 0
0 0.9 0
0.3 0.9 0
0.6 0.9 0
0.9 0.9 0
1.2 0.9 0
1.5 0.9 0
1.8 0.9 0
2.1 0.9 0
2.4 0.9 0
2.7 0.9 0
3 0.9 0
3.3 0.9 0
3.6 0.9 0
3.9 0.9 0
4.2 0.9 0
4.5 0.9 0
4.8 0.9 0
5.1 0.9 0
5.4 0.9 0
5.7 0.9 0
6 0.9 0
6.3 0.9 0
6.6 0.9 0
6.9 0.9 0
7.2 0.9 0
7.5 0.9 0
7.8 0.9 0
8.1 0.9 0
8.4 0.9 0
8.7 0.9 0
9 0.9 0
9.3 0.9 0
9.6 0.9 0
9.9 0.9 0
10.2 0.9 0
10.5 0.9 0
10.8 0.9 0
11.1 0.9 0
11.4 0.9 0
11.7 0.9 0
12 0.9 0
12.3 0.9 0
12.6 0.9 0
12.9 0.9 0
13.2 0.9 0
13.5 0.9 0
13.8 0.9 0
14.1 0.9 0
14.4 0.9 0
14.7 0.9 0
15 0.9 0
15.3 0.9 0
15.6 0.9 0
15.9 0.9 0
16.2 0.9 0
16.5 0.9 0
16.8 0.9 0
17.1 0.9 0
17.4 0.9 0
17.7 0.9 0
18 0.9 0
18.3 0.9 0
18.6 0.9 0
18.9 0.9 0
19.2 0.9 0
19.5 0.9 0
19.8 0.9 0
20.1 0.9 0
20.4 0.9 0
20.7 0.9 0
21 0.9 0
21.3 0.9 0
21.6 0.9 0
21.9 0.9 0
22.2 0.9 0
22.5 0.9 0
22.8 0.9 0
23.1 0.9 0
23.4 0.9 0
23.7 0.9 0
24 0.9 0
24.3 0.9 0
24.6 0.9 0
24.9 0.9 0
25.2 0.9 0
25.5 0.9 0
25.8 0.9 0
26.1 0.9 0
26.4 0.9 0
26.7 0.9 0
27 0.9 0
27.3 0.9 0
27.6 0.9 0
27.9 0.9 0
28.2 0.9 0
28.5 0.9 0
28.8 0.9 0
29.1 0.9 0
29.4 0.9 0
29.7 0.9 0
30 0.9 0
30.3 0.9 0
30.6 0.9 0
0 1 0
0.3 1 0
0.6 1 0
0.9 1 0
1.2 1 0
1.5 1 0
1.8 1 0
2.1 1 0
2.4 1 0
2.7 1 0
3 1 0
3.3 1 0
3.6 1 0
3.9 1 0
4.2 1 0
4.5 1 0
4.8 1 0
5.1 1 0
5.4 1 0
5.7 1 0
6 1 0
6.3 1 0
6.6 1 0
6.9 1 0
7.2 1 0
7.5 1 0
7.8 1 0
8.1 1 0
8.4 1 0
8.7 1 0
9 1 0
9.3 1 0
9.6 1 0
9.9 1 0
10.2 1 0
10.5 1 0
10.8 1 0
11.1 1 0
11.4 1 0
11.7 1 0
12 1 0
12.3 1 0
12.6 1 0
12.9 1 0
13.2 1 0
13.5 1 0
13.8 1 0
14.1 1 0
14.4 1 0
14.7 1 0
15 1 0
15.3 1 0
15.6 1 0
15.9 1 0
16.2 1 0
16.5 1 0
16.8 1 0
17.1 1 0
17.4 1 0
17.7 1 0
18 1 0
18.3 1 0
18.6 1 0
18.9 1 0
19.2 1 0
19.5 1 0
19.8 1 0
20.1 1 0
20.4 1 0
20.7 1 0
21 1 0
21.3 1 0
21.6 1 0
21.9 1 0
22.2 1 0
22.5 1 0
22.8 1 0
23.1 1 0
23.4 1 0
23.7 1 0
24 1 0
24.3 1 0
24.6 1 0
24.9 1 0
25.2 1 0
25.5 1 0
25.8 1 0
26.1 1 0
26.4 1 0
26.7 1 0
27 1 0
27.3 1 0
27.6 1 0
27.9 1 0
28.2 1 0
28.5 1 0
28.8 1 0
29.1 1 0
29.4 1 0
29.7 1 0
30 1 0
30.3 1 0
30.6 1 0
0 1.1 0
0.3 1.1 0
0.6 1.1 0
0.9 1.1 0
1.2 1.1 0
1.5 1.1 0
1.8 1.1 0
2.1 1.1 0
2.4 1.1 0
2.7 1.1 0
3 1.1 0
3.3 1.1 0
3.6 1.1 0
3.9 1.1 0
4.2 1.1 0
4.5 1.1 0
4.8 1.1 0
5.1 1.1 0
5.4 1.1 0
5.7 1.1 0
6 1.1 0
6.3 1.1 0
6.6 1.1 0
6.9 1.1 0
7.2 1.1 0
7.5 1.1 0
7.8 1.1 0
8.1 1.1 0
8.4 1.1 0
8.7 1.1 0
9 1.1 0
9.3 1.1 0
9.6 1.1 0
9.9 1.1 0
10.2 1.1 0
10.5 1.1 0
10.8 1.1 0
11.1 1.1 0
11.4 1.1 0
11.7 1.1 0
12 1.1 0
12.3 1.1 0
12.6 1.1 0
12.9 1.1 0
13.2 1.1 0
13.5 1.1 0
13.8 1.1 0
14.1 1.1 0
14.4 1.1 0
14.7 1.1 0
15 1.1 0
15.3 1.1 0
15.6 1.1 0
15.9 1.1 0
16.2 1.1 0
16.5 1.1 0
16.8 1.1 0
17.1 1.1 0
17.4 1.1 0
17.7 1.1 0
18 1.1 0
18.3 1.1 0
18.6 1.1 0
18.9 1.1 0
19.2 1.1 0
19.5 1.1 0
19.8 1.1 0
20.1 1.1 0
20.4 1.1 0
20.7 1.1 0
21 1.1 0
21.3 1.1 0
21.6 1.1 0
21.9 1.1 0
22.2 1.1 0
22.5 1.1 0
22.8 1.1 0
23.1 1.1 0
23.4 1.1 0
23.7 1.1 0
24 1.1 0
24.3 1.1 0
24.6 1.1 0
24.9 1.1 0
25.2 1.1 0
25.5 1.1 0
25.8 1.1 0
26.1 1.1 0
26.4 1.1 0
26.7 1.1 0
27 1.1 0
27.3 1.1 0
27.6 1.1 0
27.9 1.1 0
28.2 1.1 0
28.5 1.1 0
28.8 1.1 0
29.1 1.1 0
29.4 1.1 0
29.7 1.1 0
30 1.1 0
30.3 1.1 0
30.6 1.1 0
0 1.2 0
0.3 1.2 0
0.6 1.2 0
0.9 1.2 0
1.2 1.2 0
1.5 1.2 0
1.8 1.2 0
2.1 1.2 0
2.4 1.2 0
2.7 1.2 0
3 1.2 0
3.3 1.2 0
3.6 1.2 0
3.9 1.2 0
4.2 1.2 0
4.5 1.2 0
4.8 1.2 0
5.1 1.2 0
5.4 1.2 0
5.7 1.2 0
6 1.2 0
6.3 1.2 0
6.6 1.2 0
6.9 1.2 0
7.2 1.2 0
7.5 1.2 0
7.8 1.2 0
8.1 1.2 0
8.4 1.2 0
8.7 1.2 0
9 1.2 0
9.3 1.2 0
9.6 1.2 0
9.9 1.2 0
10.2 1.2 0
10.5 1.2 0
10.8 1.2 0
11.1 1.2 0
11.4 1.2 0
11.7 1.2 0
12 1.2 0
12.3 1.2 0
12.6 1.2 0
12.9 1.2 0
13.2 1.2 0
13.5 1.2 0
13.8 1.2 0
14.1 1.2 0
14.4 1.2 0
14.7 1.2 0
15 1.2 0
15.3 1.2 0
15.6 1.2 0
15.9 1.2 0
16.2 1.2 0
16.5 1.2 0
16.8 1.2 0
17.1 1.2 0
17.4 1.2 0
17.7 1.2 0
18 1.2 0
18.3 1.2 0
18.6 1.2 0
18.9 1.2 0
19.2 1.2 0
19.5 1.2 0
19.8 1.2 0
20.1 1.2 0
20.4 1.2 0
20.7 1.2 0
21 1.2 0
21.3 1.2 0
21.6 1.2 0
21.9 1.2 0
22.2 1.2 0
22.5 1.2 0
22.8 1.2 0
23.1 1.2 0
23.4 1.2 0
23.7 1.2 0
24 1.2 0
24.3 1.2 0
24.6 1.2 0
24.9 1.2 0
25.2 1.2 0
25.5 1.2 0
25.8 1.2 0
26.1 1.2 0
26.4 1.2 0
26.7 1.2 0
27 1.2 0
27.3 1.2 0
27.6 1.2 0
27.9 1.2 0
28.2 1.2 0
28.5 1.2 0
28.8 1.2 0
29.1 1.2 0
29.4 1.2 0
29.7 1.2 0
30 1.2 0
30.3 1.2 0
30.6 1.2 0

POINT_DATA 1339

SCALARS pressure double
LOOKUP_TABLE pressure
1.17118
1.17118
1.10634
1.06211
1.02229
0.985709
0.952658
0.923131
0.896774
0.873064
0.851463
0.831501
0.812808
0.795108
0.778201
0.761942
0.746223
0.730967
0.716115
0.701621
0.687446
0.673561
0.659941
0.646562
0.633406
0.620456
0.607697
0.595114
0.582696
0.570432
0.558312
0.546325
0.534464
0.522721
0.511088
0.499559
0.488128
0.476788
0.465534
0.454363
0.443268
0.432245
0.421291
0.410401
0.399572
0.388801
0.378084
0.367418
0.356801
0.34623
0.335702
0.325215
0.314768
0.304357
0.293981
0.283638
0.273325
0.263043
0.252788
0.24256
0.232357
0.222177
0.21202
0.201884
0.191769
0.181672
0.171594
0.161533
0.151488
0.14146
0.131446
0.121448
0.111464
0.101493
0.0915355
0.0815909
0.0716588
0.0617385
0.0518295
0.0419314
0.0320437
0.0221657
0.0122968
0.00243647
-0.00741604
-0.0172614
-0.0271002
-0.036933
-0.0467606
-0.0565836
-0.0664024
-0.0762177
-0.0860299
-0.0958396
-0.105647
-0.115453
-0.125257
-0.135059
-0.144861
-0.154662
-0.164462
-0.174261
0.174261
1.17118
1.17118
1.10634
1.06211
1.02229
0.985709
0.952658
0.923131
0.896774
0.873064
0.851463
0.831501
0.812808
0.795108
0.778201
0.761942
0.746223
0.730967
0.716115
0.701621
0.687446
0.673561
0.659941
0.646562
0.633406
0.620456
0.607697
0.595114
0.582696
0.570432
0.558312
0.546325
0.534464
0.522721
0.511088
0.499559
0.488128
0.476788
0.465534
0.454363
0.443268
0.432245
0.421291
0.410401
0.399572
0.388801
0.378084
0.367418
0.356801
0.34623
0.335702
0.325215
0.314768
0.304357
0.293981
0.283638
0.273325
0.263043
0.252788
0.24256
0.232357
0.222177
0.21202
0.201884
0.191769
0.181672
0.171594
0.161533
0.151488
0.14146
0.131446
0.121448
0.111464
0.101493
0.0915355
0.0815909
0.0716588
0.0617385
0.0518295
0.0419314
0.0320437
0.0221657
0.0122968
0.00243647
-0.00741604
-0.0172614
-0.0271002
-0.036933
-0.0467606
-0.0565836
-0.0664024
-0.0762177
-0.0860299
-0.0958396
-0.105647
-0.115453
-0.125257
-0.135059
-0.144861
-0.154662
-0.164462
-0.174261
0.174261
1.15024
1.15024
1.10435
1.06234
1.02299
0.986506
0.953402
0.923762
0.897281
0.87346
0.851767
0.831734
0.812989
0.795252
0.778319
0.762039
0.746306
0.731038
0.716177
0.701676
0.687495
0.673605
0.659981
0.646599
0.633439
0.620487
0.607725
0.59514
0.58272
0.570455
0.558333
0.546345
0.534482
0.522737
0.511104
0.499574
0.488141
0.476801
0.465546
0.454374
0.443278
0.432255
0.4213
0.41041
0.39958
0.388808
0.378091
0.367425
0.356807
0.346236
0.335708
0.325221
0.314773
0.304361
0.293985
0.283642
0.273329
0.263047
0.252792
0.242564
0.23236
0.22218
0.212023
0.201887
0.191771
0.181674
0.171596
0.161535
0.15149
0.141461
0.131448
0.121449
0.111465
0.101494
0.0915367
0.081592
0.0716597
0.0617393
0.0518303
0.0419321
0.0320442
0.0221661
0.0122972
0.00243676
-0.00741581
-0.0172612
-0.0271
-0.0369329
-0.0467606
-0.0565835
-0.0664024
-0.0762177
-0.08603
-0.0958396
-0.105647
-0.115453
-0.125257
-0.135059
-0.144861
-0.154662
-0.164462
-0.174261
0.174261
1.13527
1.13527
1.10147
1.06257
1.0241
0.987831
0.954663
0.92484
0.898143
0.874119
0.852259
0.832099
0.813261
0.795457
0.778477
0.762164
0.746407
0.731122
0.716249
0.701737
0.687548
0.673652
0.660022
0.646636
0.633473
0.620517
0.607752
0.595165
0.582743
0.570475
0.558351
0.546362
0.534498
0.522752
0.511117
0.499586
0.488153
0.476811
0.465557
0.454383
0.443287
0.432263
0.421308
0.410417
0.399587
0.388815
0.378097
0.36743
0.356812
0.346241
0.335712
0.325225
0.314777
0.304365
0.293989
0.283645
0.273333
0.26305
0.252795
0.242566
0.232363
0.222183
0.212025
0.201889
0.191773
0.181676
0.171598
0.161536
0.151492
0.141463
0.131449
0.121451
0.111466
0.101495
0.0915377
0.0815929
0.0716605
0.06174
0.0518308
0.0419326
0.0320446
0.0221665
0.0122975
0.00243699
-0.00741564
-0.0172611
-0.0270999
-0.0369329
-0.0467605
-0.0565835
-0.0664024
-0.0762177
-0.08603
-0.0958396
-0.105647
-0.115453
-0.125257
-0.135059
-0.144861
-0.154662
-0.164462
-0.17426
0.17426
1.1257
1.1257
1.09899
1.06268
1.02505
0.989026
0.95584
0.925876
0.898996
0.874792
0.852777
0.832493
0.813563
0.795692
0.778662
0.762314
0.74653
0.731226
0.716337
0.701813
0.687614
0.673711
0.660074
0.646682
0.633514
0.620554
0.607786
0.595195
0.582771
0.570501
0.558375
0.546383
0.534517
0.52277
0.511134
0.499601
0.488167
0.476824
0.465569
0.454395
0.443298
0.432273
0.421317
0.410425
0.399595
0.388822
0.378104
0.367437
0.356819
0.346246
0.335718
0.32523
0.314782
0.30437
0.293993
0.283649
0.273336
0.263053
0.252798
0.242569
0.232366
0.222186
0.212028
0.201892
0.191776
0.181679
0.1716
0.161538
0.151494
0.141465
0.131451
0.121452
0.111468
0.101497
0.091539
0.0815941
0.0716616
0.061741
0.0518318
0.0419335
0.0320455
0.0221672
0.0122981
0.00243758
-0.00741513
-0.0172606
-0.0270995
-0.0369325
-0.0467602
-0.0565833
-0.0664022
-0.0762175
-0.0860298
-0.0958395
-0.105647
-0.115452
-0.125256
-0.135059
-0.144861
-0.154662
-0.164461
-0.174259
0.174259
1.12038
1.12038
1.09736
1.06269
1.02564
0.989792
0.956609
0.926566
0.899574
0.875256
0.853141
0.832777
0.813785
0.795869
0.778805
0.762431
0.746629
0.73131
0.71641
0.701877
0.687671
0.673761
0.66012
0.646723
0.633551
0.620588
0.607816
0.595223
0.582796
0.570524
0.558396
0.546403
0.534536
0.522787
0.511149
0.499616
0.48818
0.476837
0.46558
0.454405
0.443308
0.432282
0.421326
0.410433
0.399603
0.388829
0.37811
0.367443
0.356825
0.346252
0.335723
0.325235
0.314786
0.304374
0.293997
0.283653
0.27334
0.263057
0.252801
0.242572
0.232368
0.222188
0.212031
0.201894
0.191778
0.181681
0.171602
0.16154
0.151495
0.141466
0.131453
0.121454
0.111469
0.101498
0.0915404
0.0815955
0.0716629
0.0617422
0.0518329
0.0419345
0.0320465
0.0221681
0.012299
0.00243836
-0.00741442
-0.01726
-0.027099
-0.036932
-0.0467598
-0.0565829
-0.0664019
-0.0762173
-0.0860296
-0.0958393
-0.105647
-0.115452
-0.125256
-0.135059
-0.144861
-0.154661
-0.16446
-0.174258
0.174258
1.11868
1.11868
1.09681
1.06271
1.02586
0.990066
0.956882
0.926811
0.89978
0.875423
0.853274
0.832882
0.813868
0.795935
0.77886
0.762477
0.746668
0.731344
0.716439
0.701903
0.687695
0.673782
0.660138
0.64674
0.633567
0.620602
0.607829
0.595235
0.582807
0.570534
0.558405
0.546411
0.534543
0.522794
0.511156
0.499622
0.488186
0.476842
0.465585
0.45441
0.443312
0.432286
0.421329
0.410437
0.399606
0.388832
0.378113
0.367446
0.356827
0.346254
0.335725
0.325237
0.314788
0.304376
0.293999
0.283655
0.273342
0.263058
0.252803
0.242574
0.23237
0.22219
0.212032
0.201895
0.191779
0.181682
0.171603
0.161541
0.151496
0.141467
0.131454
0.121455
0.11147
0.101499
0.091541
0.0815961
0.0716635
0.0617428
0.0518335
0.041935
0.0320469
0.0221686
0.0122994
0.00243874
-0.00741407
-0.0172597
-0.0270987
-0.0369317
-0.0467596
-0.0565827
-0.0664017
-0.0762171
-0.0860295
-0.0958392
-0.105647
-0.115452
-0.125256
-0.135059
-0.144861
-0.154661
-0.16446
-0.174258
0.174258
1.12038
1.12038
1.09736
1.06269
1.02564
0.989792
0.956608
0.926566
0.899574
0.875256
0.853141
0.832777
0.813785
0.795869
0.778805
0.762431
0.746629
0.73131
0.71641
0.701877
0.687671
0.673761
0.66012
0.646723
0.633551
0.620588
0.607816
0.595223
0.582796
0.570524
0.558396
0.546403
0.534536
0.522787
0.511149
0.499616
0.48818
0.476837
0.46558
0.454405
0.443308
0.432282
0.421326
0.410434
0.399603
0.388829
0.37811
0.367443
0.356825
0.346252
0.335723
0.325235
0.314786
0.304374
0.293997
0.283653
0.27334
0.263057
0.252801
0.242572
0.232368
0.222188
0.212031
0.201894
0.191778
0.181681
0.171602
0.16154
0.151495
0.141466
0.131453
0.121454
0.111469
0.101498
0.0915404
0.0815955
0.0716629
0.0617422
0.0518329
0.0419345
0.0320465
0.0221682
0.012299
0.00243836
-0.00741442
-0.01726
-0.0270989
-0.036932
-0.0467598
-0.0565829
-0.0664019
-0.0762173
-0.0860296
-0.0958393
-0.105647
-0.115452
-0.125256
-0.135059
-0.144861
-0.154661
-0.16446
-0.174258
0.174258
1.1257
1.1257
1.09899
1.06268
1.02505
0.989025
0.955839
0.925876
0.898996
0.874792
0.852777
0.832493
0.813563
0.795692
0.778662
0.762314
0.74653
0.731226
0.716337
0.701813
0.687614
0.673711
0.660074
0.646682
0.633514
0.620554
0.607786
0.595195
0.582771
0.570501
0.558374
0.546383
0.534517
0.52277
0.511134
0.499601
0.488167
0.476825
0.465569
0.454395
0.443298
0.432273
0.421317
0.410425
0.399595
0.388822
0.378104
0.367437
0.356819
0.346246
0.335718
0.32523
0.314782
0.30437
0.293993
0.283649
0.273336
0.263053
0.252798
0.242569
0.232366
0.222186
0.212028
0.201892
0.191776
0.181679
0.1716
0.161538
0.151494
0.141465
0.131451
0.121452
0.111468
0.101497
0.091539
0.0815941
0.0716616
0.061741
0.0518318
0.0419335
0.0320455
0.0221672
0.0122981
0.00243757
-0.00741513
-0.0172606
-0.0270995
-0.0369325
-0.0467602
-0.0565833
-0.0664022
-0.0762175
-0.0860298
-0.0958395
-0.105647
-0.115452
-0.125256
-0.135059
-0.144861
-0.154662
-0.164461
-0.174259
0.174259
1.13527
1.13527
1.10147
1.06257
1.0241
0.98783
0.954663
0.92484
0.898143
0.874119
0.852259
0.832099
0.813261
0.795458
0.778477
0.762164
0.746407
0.731123
0.716249
0.701737
0.687548
0.673652
0.660022
0.646636
0.633473
0.620517
0.607752
0.595165
0.582743
0.570475
0.558351
0.546362
0.534498
0.522752
0.511117
0.499586
0.488153
0.476811
0.465557
0.454383
0.443287
0.432263
0.421308
0.410417
0.399587
0.388815
0.378097
0.36743
0.356813
0.346241
0.335712
0.325225
0.314777
0.304365
0.293989
0.283645
0.273333
0.26305
0.252795
0.242566
0.232363
0.222183
0.212025
0.201889
0.191773
0.181676
0.171598
0.161536
0.151492
0.141463
0.131449
0.121451
0.111466
0.101495
0.0915377
0.0815929
0.0716605
0.06174
0.0518308
0.0419326
0.0320446
0.0221665
0.0122975
0.00243698
-0.00741565
-0.0172611
-0.0270999
-0.0369328
-0.0467605
-0.0565835
-0.0664024
-0.0762177
-0.0860299
-0.0958396
-0.105647
-0.115453
-0.125257
-0.135059
-0.144861
-0.154662
-0.164462
-0.174261
0.174261
1.15024
1.15024
1.10435
1.06234
1.02299
0.986506
0.953401
0.923762
0.897282
0.87346
0.851767
0.831734
0.812989
0.795253
0.778319
0.762039
0.746306
0.731039
0.716178
0.701676
0.687495
0.673606
0.659981
0.646599
0.63344
0.620487
0.607725
0.59514
0.582721
0.570455
0.558332
0.546344
0.534482
0.522737
0.511104
0.499574
0.488141
0.476801
0.465547
0.454374
0.443278
0.432255
0.4213
0.41041
0.39958
0.388808
0.378091
0.367425
0.356807
0.346236
0.335708
0.325221
0.314773
0.304362
0.293985
0.283642
0.273329
0.263047
0.252792
0.242564
0.23236
0.22218
0.212023
0.201887
0.191771
0.181674
0.171596
0.161535
0.15149
0.141461
0.131448
0.121449
0.111465
0.101494
0.0915367
0.081592
0.0716597
0.0617393
0.0518302
0.0419321
0.0320442
0.0221661
0.0122972
0.00243675
-0.00741582
-0.0172612
-0.0271
-0.0369329
-0.0467606
-0.0565835
-0.0664024
-0.0762177
-0.0860299
-0.0958396
-0.105647
-0.115453
-0.125257
-0.135059
-0.144861
-0.154662
-0.164462
-0.174261
0.174261
1.17119
1.17119
1.10634
1.06211
1.02228
0.98571
0.952658
0.92313
0.896774
0.873065
0.851463
0.8315
0.812807
0.795108
0.778201
0.761942
0.746223
0.730967
0.716115
0.70162
0.687446
0.673561
0.659941
0.646562
0.633406
0.620456
0.607697
0.595114
0.582696
0.570432
0.558312
0.546325
0.534464
0.522721
0.511088
0.499559
0.488127
0.476788
0.465535
0.454363
0.443268
0.432245
0.421291
0.410401
0.399572
0.388801
0.378084
0.367418
0.356801
0.34623
0.335702
0.325215
0.314768
0.304357
0.293981
0.283637
0.273325
0.263043
0.252788
0.24256
0.232357
0.222177
0.21202
0.201884
0.191769
0.181672
0.171594
0.161533
0.151488
0.14146
0.131446
0.121448
0.111463
0.101493
0.0915355
0.081591
0.0716588
0.0617384
0.0518295
0.0419314
0.0320437
0.0221657
0.0122968
0.00243646
-0.00741605
-0.0172614
-0.0271001
-0.036933
-0.0467606
-0.0565836
-0.0664024
-0.0762177
-0.0860299
-0.0958396
-0.105647
-0.115453
-0.125257
-0.135059
-0.144861
-0.154662
-0.164462
-0.174261
0.174261
1.17119
1.17119
1.10634
1.06211
1.02228
0.98571
0.952658
0.92313
0.896774
0.873065
0.851463
0.8315
0.812807
0.795108
0.778201
0.761942
0.746223
0.730967
0.716115
0.70162
0.687446
0.673561
0.659941
0.646562
0.633406
0.620456
0.607697
0.595114
0.582696
0.570432
0.558312
0.546325
0.534464
0.522721
0.511088
0.499559
0.488127
0.476788
0.465535
0.454363
0.443268
0.432245
0.421291
0.410401
0.399572
0.388801
0.378084
0.367418
0.356801
0.34623
0.335702
0.325215
0.314768
0.304357
0.293981
0.283637
0.273325
0.263043
0.252788
0.24256
0.232357
0.222177
0.21202
0.201884
0.191769
0.181672
0.171594
0.161533
0.151488
0.14146
0.131446
0.121448
0.111463
0.101493
0.0915355
0.081591
0.0716588
0.0617384
0.0518295
0.0419314
0.0320437
0.0221657
0.0122968
0.00243646
-0.00741605
-0.0172614
-0.0271001
-0.036933
-0.0467606
-0.0565836
-0.0664024
-0.0762177
-0.0860299
-0.0958396
-0.105647
-0.115453
-0.125257
-0.135059
-0.144861
-0.154662
-0.164462
-0.174261
0.174261
SCALARS phi double
LOOKUP_TABLE phi
1
1
1
1
0.999999
0.999994
0.999983
0.999958
0.99991
0.99983
0.999706
0.999526
0.999278
0.998951
0.998536
0.998024
0.997406
0.996678
0.995833
0.994869
0.993782
0.992574
0.991246
0.989796
0.988212
0.986464
0.984497
0.982224
0.979535
0.976295
0.972363
0.967599
0.961873
0.955075
0.947122
0.937957
0.927548
0.915894
0.903014
0.888952
0.873765
0.85753
0.840331
0.822261
0.803418
0.783903
0.763815
0.743254
0.722315
0.701089
0.679663
0.658116
0.636523
0.614954
0.593469
0.572125
0.550972
0.530056
0.509415
0.489084
0.469093
0.449468
0.430229
0.411396
0.392982
0.375
0.357457
0.340361
0.323717
0.307526
0.29179
0.276508
0.261679
0.247301
0.23337
0.219882
0.206835
0.194223
0.182043
0.170291
0.158963
0.148057
0.137568
0.127496
0.117838
0.108593
0.0997611
0.0913416
0.0833351
0.075742
0.068563
0.0617985
0.0554484
0.0495119
0.0439871
0.0388702
0.0341574
0.0298366
0.025917
0.0223178
0.019285
0.0158084
0.0158084
1
1
1
1
0.999999
0.999994
0.999983
0.999958
0.99991
0.99983
0.999706
0.999526
0.999278
0.998951
0.998536
0.998024
0.997406
0.996678
0.995833
0.994869
0.993782
0.992574
0.991246
0.989796
0.988212
0.986464
0.984497
0.982224
0.979535
0.976295
0.972363
0.967599
0.961873
0.955075
0.947122
0.937957
0.927548
0.915894
0.903014
0.888952
0.873765
0.85753
0.840331
0.822261
0.803418
0.783903
0.763815
0.743254
0.722315
0.701089
0.679663
0.658116
0.636523
0.614954
0.593469
0.572125
0.550972
0.530056
0.509415
0.489084
0.469093
0.449468
0.430229
0.411396
0.392982
0.375
0.357457
0.340361
0.323717
0.307526
0.29179
0.276508
0.261679
0.247301
0.23337
0.219882
0.206835
0.194223
0.182043
0.170291
0.158963
0.148057
0.137568
0.127496
0.117838
0.108593
0.0997611
0.0913416
0.0833351
0.075742
0.068563
0.0617985
0.0554484
0.0495119
0.0439871
0.0388702
0.0341574
0.0298366
0.025917
0.0223178
0.019285
0.0158084
0.0158084
1
1
1
0.999996
0.999983
0.999954
0.999898
0.999804
0.999658
0.999447
0.999157
0.998778
0.9983
0.997714
0.997014
0.996196
0.995256
0.994192
0.993003
0.991689
0.990252
0.988693
0.987017
0.985226
0.983322
0.981305
0.979163
0.976873
0.974399
0.971686
0.968665
0.965256
0.961369
0.956913
0.9518
0.945948
0.939288
0.931762
0.923329
0.913964
0.903659
0.892419
0.880264
0.867226
0.85335
0.838687
0.823294
0.807237
0.790581
0.773396
0.75575
0.737714
0.719354
0.700735
0.681919
0.662966
0.643932
0.624867
0.605821
0.586838
0.567957
0.549217
0.53065
0.512286
0.494151
0.476268
0.458659
0.441339
0.424324
0.407626
0.391255
0.375217
0.359518
0.344161
0.329148
0.314478
0.30015
0.286162
0.272507
0.259183
0.246183
0.2335
0.221129
0.209062
0.197294
0.185818
0.17463
0.163726
0.153104
0.142764
0.13271
0.122945
0.113478
0.104321
0.0954881
0.0869939
0.0788616
0.0710952
0.0637708
0.0567052
0.0506396
0.0430062
0.0430062
0.999997
1
0.99998
0.999896
0.999724
0.999434
0.998999
0.998397
0.997613
0.996636
0.995464
0.994099
0.992547
0.990816
0.988916
0.986859
0.984655
0.982317
0.979854
0.977278
0.974598
0.971826
0.968969
0.966037
0.963037
0.959977
0.956861
0.953691
0.950466
0.947175
0.943804
0.94033
0.936723
0.932945
0.928954
0.924703
0.920143
0.915224
0.9099
0.904126
0.897862
0.891075
0.883737
0.875829
0.867337
0.858257
0.84859
0.838345
0.827536
0.816183
0.80431
0.791946
0.779121
0.765871
0.752231
0.738238
0.723929
0.709343
0.694516
0.679487
0.664289
0.64896
0.633531
0.618035
0.602503
0.586962
0.571439
0.555959
0.540545
0.525217
0.509994
0.494892
0.479926
0.465107
0.450446
0.435949
0.421622
0.407468
0.393486
0.379677
0.366036
0.352557
0.339232
0.326052
0.313005
0.300079
0.287257
0.274527
0.261873
0.249281
0.236738
0.224236
0.211771
0.199342
0.186962
0.174642
0.162422
0.150298
0.138454
0.126471
0.116012
0.101752
0.101752
0.999999
1
0.99943
0.998224
0.996402
0.994008
0.991093
0.987716
0.983939
0.979828
0.975446
0.970853
0.966102
0.961239
0.9563
0.951318
0.946317
0.94132
0.936342
0.931396
0.926494
0.921643
0.91685
0.91212