# vtk DataFile Version 3.0
FlowField
ASCII
DATASET STRUCTURED_GRID
DIMENSIONS 103 13 1 
POINTS 1339 double
0 0 0
0.3 0 0
0.6 0 0
0.9 0 0
1.2 0 0
1.5 0 0
1.8 0 0
2.1 0 0
2.4 0 0
2.7 0 0
3 0 0
3.3 0 0
3.6 0 0
3.9 0 0
4.2 0 0
4.5 0 0
4.8 0 0
5.1 0 0
5.4 0 0
5.7 0 0
6 0 0
6.3 0 0
6.6 0 0
6.9 0 0
7.2 0 0
7.5 0 0
7.8 0 0
8.1 0 0
8.4 0 0
8.7 0 0
9 0 0
9.3 0 0
9.6 0 0
9.9 0 0
10.2 0 0
10.5 0 0
10.8 0 0
11.1 0 0
11.4 0 0
11.7 0 0
12 0 0
12.3 0 0
12.6 0 0
12.9 0 0
13.2 0 0
13.5 0 0
13.8 0 0
14.1 0 0
14.4 0 0
14.7 0 0
15 0 0
15.3 0 0
15.6 0 0
15.9 0 0
16.2 0 0
16.5 0 0
16.8 0 0
17.1 0 0
17.4 0 0
17.7 0 0
18 0 0
18.3 0 0
18.6 0 0
18.9 0 0
19.2 0 0
19.5 0 0
19.8 0 0
20.1 0 0
20.4 0 0
20.7 0 0
21 0 0
21.3 0 0
21.6 0 0
21.9 0 0
22.2 0 0
22.5 0 0
22.8 0 0
23.1 0 0
23.4 0 0
23.7 0 0
24 0 0
24.3 0 0
24.6 0 0
24.9 0 0
25.2 0 0
25.5 0 0
25.8 0 0
26.1 0 0
26.4 0 0
26.7 0 0
27 0 0
27.3 0 0
27.6 0 0
27.9 0 0
28.2 0 0
28.5 0 0
28.8 0 0
29.1 0 0
29.4 0 0
29.7 0 0
30 0 0
30.3 0 0
30.6 0 0
0 0.1 0
0.3 0.1 0
0.6 0.1 0
0.9 0.1 0
1.2 0.1 0
1.5 0.1 0
1.8 0.1 0
2.1 0.1 0
2.4 0.1 0
2.7 0.1 0
3 0.1 0
3.3 0.1 0
3.6 0.1 0
3.9 0.1 0
4.2 0.1 0
4.5 0.1 0
4.8 0.1 0
5.1 0.1 0
5.4 0.1 0
5.7 0.1 0
6 0.1 0
6.3 0.1 0
6.6 0.1 0
6.9 0.1 0
7.2 0.1 0
7.5 0.1 0
7.8 0.1 0
8.1 0.1 0
8.4 0.1 0
8.7 0.1 0
9 0.1 0
9.3 0.1 0
9.6 0.1 0
9.9 0.1 0
10.2 0.1 0
10.5 0.1 0
10.8 0.1 0
11.1 0.1 0
11.4 0.1 0
11.7 0.1 0
12 0.1 0
12.3 0.1 0
12.6 0.1 0
12.9 0.1 0
13.2 0.1 0
13.5 0.1 0
13.8 0.1 0
14.1 0.1 0
14.4 0.1 0
14.7 0.1 0
15 0.1 0
15.3 0.1 0
15.6 0.1 0
15.9 0.1 0
16.2 0.1 0
16.5 0.1 0
16.8 0.1 0
17.1 0.1 0
17.4 0.1 0
17.7 0.1 0
18 0.1 0
18.3 0.1 0
18.6 0.1 0
18.9 0.1 0
19.2 0.1 0
19.5 0.1 0
19.8 0.1 0
20.1 0.1 0
20.4 0.1 0
20.7 0.1 0
21 0.1 0
21.3 0.1 0
21.6 0.1 0
21.9 0.1 0
22.2 0.1 0
22.5 0.1 0
22.8 0.1 0
23.1 0.1 0
23.4 0.1 0
23.7 0.1 0
24 0.1 0
24.3 0.1 0
24.6 0.1 0
24.9 0.1 0
25.2 0.1 0
25.5 0.1 0
25.8 0.1 0
26.1 0.1 0
26.4 0.1 0
26.7 0.1 0
27 0.1 0
27.3 0.1 0
27.6 0.1 0
27.9 0.1 0
28.2 0.1 0
28.5 0.1 0
28.8 0.1 0
29.1 0.1 0
29.4 0.1 0
29.7 0.1 0
30 0.1 0
30.3 0.1 0
30.6 0.1 0
0 0.2 0
0.3 0.2 0
0.6 0.2 0
0.9 0.2 0
1.2 0.2 0
1.5 0.2 0
1.8 0.2 0
2.1 0.2 0
2.4 0.2 0
2.7 0.2 0
3 0.2 0
3.3 0.2 0
3.6 0.2 0
3.9 0.2 0
4.2 0.2 0
4.5 0.2 0
4.8 0.2 0
5.1 0.2 0
5.4 0.2 0
5.7 0.2 0
6 0.2 0
6.3 0.2 0
6.6 0.2 0
6.9 0.2 0
7.2 0.2 0
7.5 0.2 0
7.8 0.2 0
8.1 0.2 0
8.4 0.2 0
8.7 0.2 0
9 0.2 0
9.3 0.2 0
9.6 0.2 0
9.9 0.2 0
10.2 0.2 0
10.5 0.2 0
10.8 0.2 0
11.1 0.2 0
11.4 0.2 0
11.7 0.2 0
12 0.2 0
12.3 0.2 0
12.6 0.2 0
12.9 0.2 0
13.2 0.2 0
13.5 0.2 0
13.8 0.2 0
14.1 0.2 0
14.4 0.2 0
14.7 0.2 0
15 0.2 0
15.3 0.2 0
15.6 0.2 0
15.9 0.2 0
16.2 0.2 0
16.5 0.2 0
16.8 0.2 0
17.1 0.2 0
17.4 0.2 0
17.7 0.2 0
18 0.2 0
18.3 0.2 0
18.6 0.2 0
18.9 0.2 0
19.2 0.2 0
19.5 0.2 0
19.8 0.2 0
20.1 0.2 0
20.4 0.2 0
20.7 0.2 0
21 0.2 0
21.3 0.2 0
21.6 0.2 0
21.9 0.2 0
22.2 0.2 0
22.5 0.2 0
22.8 0.2 0
23.1 0.2 0
23.4 0.2 0
23.7 0.2 0
24 0.2 0
24.3 0.2 0
24.6 0.2 0
24.9 0.2 0
25.2 0.2 0
25.5 0.2 0
25.8 0.2 0
26.1 0.2 0
26.4 0.2 0
26.7 0.2 0
27 0.2 0
27.3 0.2 0
27.6 0.2 0
27.9 0.2 0
28.2 0.2 0
28.5 0.2 0
28.8 0.2 0
29.1 0.2 0
29.4 0.2 0
29.7 0.2 0
30 0.2 0
30.3 0.2 0
30.6 0.2 0
0 0.3 0
0.3 0.3 0
0.6 0.3 0
0.9 0.3 0
1.2 0.3 0
1.5 0.3 0
1.8 0.3 0
2.1 0.3 0
2.4 0.3 0
2.7 0.3 0
3 0.3 0
3.3 0.3 0
3.6 0.3 0
3.9 0.3 0
4.2 0.3 0
4.5 0.3 0
4.8 0.3 0
5.1 0.3 0
5.4 0.3 0
5.7 0.3 0
6 0.3 0
6.3 0.3 0
6.6 0.3 0
6.9 0.3 0
7.2 0.3 0
7.5 0.3 0
7.8 0.3 0
8.1 0.3 0
8.4 0.3 0
8.7 0.3 0
9 0.3 0
9.3 0.3 0
9.6 0.3 0
9.9 0.3 0
10.2 0.3 0
10.5 0.3 0
10.8 0.3 0
11.1 0.3 0
11.4 0.3 0
11.7 0.3 0
12 0.3 0
12.3 0.3 0
12.6 0.3 0
12.9 0.3 0
13.2 0.3 0
13.5 0.3 0
13.8 0.3 0
14.1 0.3 0
14.4 0.3 0
14.7 0.3 0
15 0.3 0
15.3 0.3 0
15.6 0.3 0
15.9 0.3 0
16.2 0.3 0
16.5 0.3 0
16.8 0.3 0
17.1 0.3 0
17.4 0.3 0
17.7 0.3 0
18 0.3 0
18.3 0.3 0
18.6 0.3 0
18.9 0.3 0
19.2 0.3 0
19.5 0.3 0
19.8 0.3 0
20.1 0.3 0
20.4 0.3 0
20.7 0.3 0
21 0.3 0
21.3 0.3 0
21.6 0.3 0
21.9 0.3 0
22.2 0.3 0
22.5 0.3 0
22.8 0.3 0
23.1 0.3 0
23.4 0.3 0
23.7 0.3 0
24 0.3 0
24.3 0.3 0
24.6 0.3 0
24.9 0.3 0
25.2 0.3 0
25.5 0.3 0
25.8 0.3 0
26.1 0.3 0
26.4 0.3 0
26.7 0.3 0
27 0.3 0
27.3 0.3 0
27.6 0.3 0
27.9 0.3 0
28.2 0.3 0
28.5 0.3 0
28.8 0.3 0
29.1 0.3 0
29.4 0.3 0
29.7 0.3 0
30 0.3 0
30.3 0.3 0
30.6 0.3 0
0 0.4 0
0.3 0.4 0
0.6 0.4 0
0.9 0.4 0
1.2 0.4 0
1.5 0.4 0
1.8 0.4 0
2.1 0.4 0
2.4 0.4 0
2.7 0.4 0
3 0.4 0
3.3 0.4 0
3.6 0.4 0
3.9 0.4 0
4.2 0.4 0
4.5 0.4 0
4.8 0.4 0
5.1 0.4 0
5.4 0.4 0
5.7 0.4 0
6 0.4 0
6.3 0.4 0
6.6 0.4 0
6.9 0.4 0
7.2 0.4 0
7.5 0.4 0
7.8 0.4 0
8.1 0.4 0
8.4 0.4 0
8.7 0.4 0
9 0.4 0
9.3 0.4 0
9.6 0.4 0
9.9 0.4 0
10.2 0.4 0
10.5 0.4 0
10.8 0.4 0
11.1 0.4 0
11.4 0.4 0
11.7 0.4 0
12 0.4 0
12.3 0.4 0
12.6 0.4 0
12.9 0.4 0
13.2 0.4 0
13.5 0.4 0
13.8 0.4 0
14.1 0.4 0
14.4 0.4 0
14.7 0.4 0
15 0.4 0
15.3 0.4 0
15.6 0.4 0
15.9 0.4 0
16.2 0.4 0
16.5 0.4 0
16.8 0.4 0
17.1 0.4 0
17.4 0.4 0
17.7 0.4 0
18 0.4 0
18.3 0.4 0
18.6 0.4 0
18.9 0.4 0
19.2 0.4 0
19.5 0.4 0
19.8 0.4 0
20.1 0.4 0
20.4 0.4 0
20.7 0.4 0
21 0.4 0
21.3 0.4 0
21.6 0.4 0
21.9 0.4 0
22.2 0.4 0
22.5 0.4 0
22.8 0.4 0
23.1 0.4 0
23.4 0.4 0
23.7 0.4 0
24 0.4 0
24.3 0.4 0
24.6 0.4 0
24.9 0.4 0
25.2 0.4 0
25.5 0.4 0
25.8 0.4 0
26.1 0.4 0
26.4 0.4 0
26.7 0.4 0
27 0.4 0
27.3 0.4 0
27.6 0.4 0
27.9 0.4 0
28.2 0.4 0
28.5 0.4 0
28.8 0.4 0
29.1 0.4 0
29.4 0.4 0
29.7 0.4 0
30 0.4 0
30.3 0.4 0
30.6 0.4 0
0 0.5 0
0.3 0.5 0
0.6 0.5 0
0.9 0.5 0
1.2 0.5 0
1.5 0.5 0
1.8 0.5 0
2.1 0.5 0
2.4 0.5 0
2.7 0.5 0
3 0.5 0
3.3 0.5 0
3.6 0.5 0
3.9 0.5 0
4.2 0.5 0
4.5 0.5 0
4.8 0.5 0
5.1 0.5 0
5.4 0.5 0
5.7 0.5 0
6 0.5 0
6.3 0.5 0
6.6 0.5 0
6.9 0.5 0
7.2 0.5 0
7.5 0.5 0
7.8 0.5 0
8.1 0.5 0
8.4 0.5 0
8.7 0.5 0
9 0.5 0
9.3 0.5 0
9.6 0.5 0
9.9 0.5 0
10.2 0.5 0
10.5 0.5 0
10.8 0.5 0
11.1 0.5 0
11.4 0.5 0
11.7 0.5 0
12 0.5 0
12.3 0.5 0
12.6 0.5 0
12.9 0.5 0
13.2 0.5 0
13.5 0.5 0
13.8 0.5 0
14.1 0.5 0
14.4 0.5 0
14.7 0.5 0
15 0.5 0
15.3 0.5 0
15.6 0.5 0
15.9 0.5 0
16.2 0.5 0
16.5 0.5 0
16.8 0.5 0
17.1 0.5 0
17.4 0.5 0
17.7 0.5 0
18 0.5 0
18.3 0.5 0
18.6 0.5 0
18.9 0.5 0
19.2 0.5 0
19.5 0.5 0
19.8 0.5 0
20.1 0.5 0
20.4 0.5 0
20.7 0.5 0
21 0.5 0
21.3 0.5 0
21.6 0.5 0
21.9 0.5 0
22.2 0.5 0
22.5 0.5 0
22.8 0.5 0
23.1 0.5 0
23.4 0.5 0
23.7 0.5 0
24 0.5 0
24.3 0.5 0
24.6 0.5 0
24.9 0.5 0
25.2 0.5 0
25.5 0.5 0
25.8 0.5 0
26.1 0.5 0
26.4 0.5 0
26.7 0.5 0
27 0.5 0
27.3 0.5 0
27.6 0.5 0
27.9 0.5 0
28.2 0.5 0
28.5 0.5 0
28.8 0.5 0
29.1 0.5 0
29.4 0.5 0
29.7 0.5 0
30 0.5 0
30.3 0.5 0
30.6 0.5 0
0 0.6 0
0.3 0.6 0
0.6 0.6 0
0.9 0.6 0
1.2 0.6 0
1.5 0.6 0
1.8 0.6 0
2.1 0.6 0
2.4 0.6 0
2.7 0.6 0
3 0.6 0
3.3 0.6 0
3.6 0.6 0
3.9 0.6 0
4.2 0.6 0
4.5 0.6 0
4.8 0.6 0
5.1 0.6 0
5.4 0.6 0
5.7 0.6 0
6 0.6 0
6.3 0.6 0
6.6 0.6 0
6.9 0.6 0
7.2 0.6 0
7.5 0.6 0
7.8 0.6 0
8.1 0.6 0
8.4 0.6 0
8.7 0.6 0
9 0.6 0
9.3 0.6 0
9.6 0.6 0
9.9 0.6 0
10.2 0.6 0
10.5 0.6 0
10.8 0.6 0
11.1 0.6 0
11.4 0.6 0
11.7 0.6 0
12 0.6 0
12.3 0.6 0
12.6 0.6 0
12.9 0.6 0
13.2 0.6 0
13.5 0.6 0
13.8 0.6 0
14.1 0.6 0
14.4 0.6 0
14.7 0.6 0
15 0.6 0
15.3 0.6 0
15.6 0.6 0
15.9 0.6 0
16.2 0.6 0
16.5 0.6 0
16.8 0.6 0
17.1 0.6 0
17.4 0.6 0
17.7 0.6 0
18 0.6 0
18.3 0.6 0
18.6 0.6 0
18.9 0.6 0
19.2 0.6 0
19.5 0.6 0
19.8 0.6 0
20.1 0.6 0
20.4 0.6 0
20.7 0.6 0
21 0.6 0
21.3 0.6 0
21.6 0.6 0
21.9 0.6 0
22.2 0.6 0
22.5 0.6 0
22.8 0.6 0
23.1 0.6 0
23.4 0.6 0
23.7 0.6 0
24 0.6 0
24.3 0.6 0
24.6 0.6 0
24.9 0.6 0
25.2 0.6 0
25.5 0.6 0
25.8 0.6 0
26.1 0.6 0
26.4 0.6 0
26.7 0.6 0
27 0.6 0
27.3 0.6 0
27.6 0.6 0
27.9 0.6 0
28.2 0.6 0
28.5 0.6 0
28.8 0.6 0
29.1 0.6 0
29.4 0.6 0
29.7 0.6 0
30 0.6 0
30.3 0.6 0
30.6 0.6 0
0 0.7 0
0.3 0.7 0
0.6 0.7 0
0.9 0.7 0
1.2 0.7 0
1.5 0.7 0
1.8 0.7 0
2.1 0.7 0
2.4 0.7 0
2.7 0.7 0
3 0.7 0
3.3 0.7 0
3.6 0.7 0
3.9 0.7 0
4.2 0.7 0
4.5 0.7 0
4.8 0.7 0
5.1 0.7 0
5.4 0.7 0
5.7 0.7 0
6 0.7 0
6.3 0.7 0
6.6 0.7 0
6.9 0.7 0
7.2 0.7 0
7.5 0.7 0
7.8 0.7 0
8.1 0.7 0
8.4 0.7 0
8.7 0.7 0
9 0.7 0
9.3 0.7 0
9.6 0.7 0
9.9 0.7 0
10.2 0.7 0
10.5 0.7 0
10.8 0.7 0
11.1 0.7 0
11.4 0.7 0
11.7 0.7 0
12 0.7 0
12.3 0.7 0
12.6 0.7 0
12.9 0.7 0
13.2 0.7 0
13.5 0.7 0
13.8 0.7 0
14.1 0.7 0
14.4 0.7 0
14.7 0.7 0
15 0.7 0
15.3 0.7 0
15.6 0.7 0
15.9 0.7 0
16.2 0.7 0
16.5 0.7 0
16.8 0.7 0
17.1 0.7 0
17.4 0.7 0
17.7 0.7 0
18 0.7 0
18.3 0.7 0
18.6 0.7 0
18.9 0.7 0
19.2 0.7 0
19.5 0.7 0
19.8 0.7 0
20.1 0.7 0
20.4 0.7 0
20.7 0.7 0
21 0.7 0
21.3 0.7 0
21.6 0.7 0
21.9 0.7 0
22.2 0.7 0
22.5 0.7 0
22.8 0.7 0
23.1 0.7 0
23.4 0.7 0
23.7 0.7 0
24 0.7 0
24.3 0.7 0
24.6 0.7 0
24.9 0.7 0
25.2 0.7 0
25.5 0.7 0
25.8 0.7 0
26.1 0.7 0
26.4 0.7 0
26.7 0.7 0
27 0.7 0
27.3 0.7 0
27.6 0.7 0
27.9 0.7 0
28.2 0.7 0
28.5 0.7 0
28.8 0.7 0
29.1 0.7 0
29.4 0.7 0
29.7 0.7 0
30 0.7 0
30.3 0.7 0
30.6 0.7 0
0 0.8 0
0.3 0.8 0
0.6 0.8 0
0.9 0.8 0
1.2 0.8 0
1.5 0.8 0
1.8 0.8 0
2.1 0.8 0
2.4 0.8 0
2.7 0.8 0
3 0.8 0
3.3 0.8 0
3.6 0.8 0
3.9 0.8 0
4.2 0.8 0
4.5 0.8 0
4.8 0.8 0
5.1 0.8 0
5.4 0.8 0
5.7 0.8 0
6 0.8 0
6.3 0.8 0
6.6 0.8 0
6.9 0.8 0
7.2 0.8 0
7.5 0.8 0
7.8 0.8 0
8.1 0.8 0
8.4 0.8 0
8.7 0.8 0
9 0.8 0
9.3 0.8 0
9.6 0.8 0
9.9 0.8 0
10.2 0.8 0
10.5 0.8 0
10.8 0.8 0
11.1 0.8 0
11.4 0.8 0
11.7 0.8 0
12 0.8 0
12.3 0.8 0
12.6 0.8 0
12.9 0.8 0
13.2 0.8 0
13.5 0.8 0
13.8 0.8 0
14.1 0.8 0
14.4 0.8 0
14.7 0.8 0
15 0.8 0
15.3 0.8 0
15.6 0.8 0
15.9 0.8 0
16.2 0.8 0
16.5 0.8 0
16.8 0.8 0
17.1 0.8 0
17.4 0.8 0
17.7 0.8 0
18 0.8 0
18.3 0.8 0
18.6 0.8 0
18.9 0.8 0
19.2 0.8 0
19.5 0.8 0
19.8 0.8 0
20.1 0.8 0
20.4 0.8 0
20.7 0.8 0
21 0.8 0
21.3 0.8 0
21.6 0.8 0
21.9 0.8 0
22.2 0.8 0
22.5 0.8 0
22.8 0.8 0
23.1 0.8 0
23.4 0.8 0
23.7 0.8 0
24 0.8 0
24.3 0.8 0
24.6 0.8 0
24.9 0.8 0
25.2 0.8 0
25.5 0.8 0
25.8 0.8 0
26.1 0.8 0
26.4 0.8 0
26.7 0.8 0
27 0.8 0
27.3 0.8 0
27.6 0.8 0
27.9 0.8 0
28.2 0.8 0
28.5 0.8 0
28.8 0.8 0
29.1 0.8 0
29.4 0.8 0
29.7 0.8 0
30 0.8 0
30.3 0.8 0
30.6 0.8 0
0 0.9 0
0.3 0.9 0
0.6 0.9 0
0.9 0.9 0
1.2 0.9 0
1.5 0.9 0
1.8 0.9 0
2.1 0.9 0
2.4 0.9 0
2.7 0.9 0
3 0.9 0
3.3 0.9 0
3.6 0.9 0
3.9 0.9 0
4.2 0.9 0
4.5 0.9 0
4.8 0.9 0
5.1 0.9 0
5.4 0.9 0
5.7 0.9 0
6 0.9 0
6.3 0.9 0
6.6 0.9 0
6.9 0.9 0
7.2 0.9 0
7.5 0.9 0
7.8 0.9 0
8.1 0.9 0
8.4 0.9 0
8.7 0.9 0
9 0.9 0
9.3 0.9 0
9.6 0.9 0
9.9 0.9 0
10.2 0.9 0
10.5 0.9 0
10.8 0.9 0
11.1 0.9 0
11.4 0.9 0
11.7 0.9 0
12 0.9 0
12.3 0.9 0
12.6 0.9 0
12.9 0.9 0
13.2 0.9 0
13.5 0.9 0
13.8 0.9 0
14.1 0.9 0
14.4 0.9 0
14.7 0.9 0
15 0.9 0
15.3 0.9 0
15.6 0.9 0
15.9 0.9 0
16.2 0.9 0
16.5 0.9 0
16.8 0.9 0
17.1 0.9 0
17.4 0.9 0
17.7 0.9 0
18 0.9 0
18.3 0.9 0
18.6 0.9 0
18.9 0.9 0
19.2 0.9 0
19.5 0.9 0
19.8 0.9 0
20.1 0.9 0
20.4 0.9 0
20.7 0.9 0
21 0.9 0
21.3 0.9 0
21.6 0.9 0
21.9 0.9 0
22.2 0.9 0
22.5 0.9 0
22.8 0.9 0
23.1 0.9 0
23.4 0.9 0
23.7 0.9 0
24 0.9 0
24.3 0.9 0
24.6 0.9 0
24.9 0.9 0
25.2 0.9 0
25.5 0.9 0
25.8 0.9 0
26.1 0.9 0
26.4 0.9 0
26.7 0.9 0
27 0.9 0
27.3 0.9 0
27.6 0.9 0
27.9 0.9 0
28.2 0.9 0
28.5 0.9 0
28.8 0.9 0
29.1 0.9 0
29.4 0.9 0
29.7 0.9 0
30 0.9 0
30.3 0.9 0
30.6 0.9 0
0 1 0
0.3 1 0
0.6 1 0
0.9 1 0
1.2 1 0
1.5 1 0
1.8 1 0
2.1 1 0
2.4 1 0
2.7 1 0
3 1 0
3.3 1 0
3.6 1 0
3.9 1 0
4.2 1 0
4.5 1 0
4.8 1 0
5.1 1 0
5.4 1 0
5.7 1 0
6 1 0
6.3 1 0
6.6 1 0
6.9 1 0
7.2 1 0
7.5 1 0
7.8 1 0
8.1 1 0
8.4 1 0
8.7 1 0
9 1 0
9.3 1 0
9.6 1 0
9.9 1 0
10.2 1 0
10.5 1 0
10.8 1 0
11.1 1 0
11.4 1 0
11.7 1 0
12 1 0
12.3 1 0
12.6 1 0
12.9 1 0
13.2 1 0
13.5 1 0
13.8 1 0
14.1 1 0
14.4 1 0
14.7 1 0
15 1 0
15.3 1 0
15.6 1 0
15.9 1 0
16.2 1 0
16.5 1 0
16.8 1 0
17.1 1 0
17.4 1 0
17.7 1 0
18 1 0
18.3 1 0
18.6 1 0
18.9 1 0
19.2 1 0
19.5 1 0
19.8 1 0
20.1 1 0
20.4 1 0
20.7 1 0
21 1 0
21.3 1 0
21.6 1 0
21.9 1 0
22.2 1 0
22.5 1 0
22.8 1 0
23.1 1 0
23.4 1 0
23.7 1 0
24 1 0
24.3 1 0
24.6 1 0
24.9 1 0
25.2 1 0
25.5 1 0
25.8 1 0
26.1 1 0
26.4 1 0
26.7 1 0
27 1 0
27.3 1 0
27.6 1 0
27.9 1 0
28.2 1 0
28.5 1 0
28.8 1 0
29.1 1 0
29.4 1 0
29.7 1 0
30 1 0
30.3 1 0
30.6 1 0
0 1.1 0
0.3 1.1 0
0.6 1.1 0
0.9 1.1 0
1.2 1.1 0
1.5 1.1 0
1.8 1.1 0
2.1 1.1 0
2.4 1.1 0
2.7 1.1 0
3 1.1 0
3.3 1.1 0
3.6 1.1 0
3.9 1.1 0
4.2 1.1 0
4.5 1.1 0
4.8 1.1 0
5.1 1.1 0
5.4 1.1 0
5.7 1.1 0
6 1.1 0
6.3 1.1 0
6.6 1.1 0
6.9 1.1 0
7.2 1.1 0
7.5 1.1 0
7.8 1.1 0
8.1 1.1 0
8.4 1.1 0
8.7 1.1 0
9 1.1 0
9.3 1.1 0
9.6 1.1 0
9.9 1.1 0
10.2 1.1 0
10.5 1.1 0
10.8 1.1 0
11.1 1.1 0
11.4 1.1 0
11.7 1.1 0
12 1.1 0
12.3 1.1 0
12.6 1.1 0
12.9 1.1 0
13.2 1.1 0
13.5 1.1 0
13.8 1.1 0
14.1 1.1 0
14.4 1.1 0
14.7 1.1 0
15 1.1 0
15.3 1.1 0
15.6 1.1 0
15.9 1.1 0
16.2 1.1 0
16.5 1.1 0
16.8 1.1 0
17.1 1.1 0
17.4 1.1 0
17.7 1.1 0
18 1.1 0
18.3 1.1 0
18.6 1.1 0
18.9 1.1 0
19.2 1.1 0
19.5 1.1 0
19.8 1.1 0
20.1 1.1 0
20.4 1.1 0
20.7 1.1 0
21 1.1 0
21.3 1.1 0
21.6 1.1 0
21.9 1.1 0
22.2 1.1 0
22.5 1.1 0
22.8 1.1 0
23.1 1.1 0
23.4 1.1 0
23.7 1.1 0
24 1.1 0
24.3 1.1 0
24.6 1.1 0
24.9 1.1 0
25.2 1.1 0
25.5 1.1 0
25.8 1.1 0
26.1 1.1 0
26.4 1.1 0
26.7 1.1 0
27 1.1 0
27.3 1.1 0
27.6 1.1 0
27.9 1.1 0
28.2 1.1 0
28.5 1.1 0
28.8 1.1 0
29.1 1.1 0
29.4 1.1 0
29.7 1.1 0
30 1.1 0
30.3 1.1 0
30.6 1.1 0
0 1.2 0
0.3 1.2 0
0.6 1.2 0
0.9 1.2 0
1.2 1.2 0
1.5 1.2 0
1.8 1.2 0
2.1 1.2 0
2.4 1.2 0
2.7 1.2 0
3 1.2 0
3.3 1.2 0
3.6 1.2 0
3.9 1.2 0
4.2 1.2 0
4.5 1.2 0
4.8 1.2 0
5.1 1.2 0
5.4 1.2 0
5.7 1.2 0
6 1.2 0
6.3 1.2 0
6.6 1.2 0
6.9 1.2 0
7.2 1.2 0
7.5 1.2 0
7.8 1.2 0
8.1 1.2 0
8.4 1.2 0
8.7 1.2 0
9 1.2 0
9.3 1.2 0
9.6 1.2 0
9.9 1.2 0
10.2 1.2 0
10.5 1.2 0
10.8 1.2 0
11.1 1.2 0
11.4 1.2 0
11.7 1.2 0
12 1.2 0
12.3 1.2 0
12.6 1.2 0
12.9 1.2 0
13.2 1.2 0
13.5 1.2 0
13.8 1.2 0
14.1 1.2 0
14.4 1.2 0
14.7 1.2 0
15 1.2 0
15.3 1.2 0
15.6 1.2 0
15.9 1.2 0
16.2 1.2 0
16.5 1.2 0
16.8 1.2 0
17.1 1.2 0
17.4 1.2 0
17.7 1.2 0
18 1.2 0
18.3 1.2 0
18.6 1.2 0
18.9 1.2 0
19.2 1.2 0
19.5 1.2 0
19.8 1.2 0
20.1 1.2 0
20.4 1.2 0
20.7 1.2 0
21 1.2 0
21.3 1.2 0
21.6 1.2 0
21.9 1.2 0
22.2 1.2 0
22.5 1.2 0
22.8 1.2 0
23.1 1.2 0
23.4 1.2 0
23.7 1.2 0
24 1.2 0
24.3 1.2 0
24.6 1.2 0
24.9 1.2 0
25.2 1.2 0
25.5 1.2 0
25.8 1.2 0
26.1 1.2 0
26.4 1.2 0
26.7 1.2 0
27 1.2 0
27.3 1.2 0
27.6 1.2 0
27.9 1.2 0
28.2 1.2 0
28.5 1.2 0
28.8 1.2 0
29.1 1.2 0
29.4 1.2 0
29.7 1.2 0
30 1.2 0
30.3 1.2 0
30.6 1.2 0

POINT_DATA 1339

SCALARS pressure double
LOOKUP_TABLE pressure
1.23982
1.23982
1.17497
1.13074
1.09091
1.05434
1.02129
0.991759
0.965404
0.941695
0.920093
0.900141
0.881502
0.863945
0.847328
0.831563
0.816583
0.802321
0.788695
0.775606
0.762943
0.750598
0.738477
0.726502
0.714617
0.702785
0.690981
0.679192
0.667411
0.655633
0.643858
0.632083
0.620309
0.608536
0.596762
0.584989
0.573216
0.561443
0.549669
0.537896
0.526123
0.51435
0.502577
0.490804
0.479031
0.467258
0.455484
0.443711
0.431938
0.420165
0.408392
0.396619
0.384846
0.373073
0.361299
0.349526
0.337753
0.32598
0.314207
0.302434
0.290661
0.278888
0.267115
0.255341
0.243568
0.231795
0.220022
0.208249
0.196476
0.184703
0.17293
0.161157
0.149383
0.13761
0.125837
0.114064
0.102291
0.090518
0.0787449
0.0669718
0.0551987
0.0434256
0.0316525
0.0198794
0.00810629
-0.0036668
-0.0154399
-0.027213
-0.0389861
-0.0507592
-0.0625323
-0.0743054
-0.0860785
-0.0978515
-0.109625
-0.121398
-0.133171
-0.144944
-0.156716
-0.168489
-0.180264
-0.191984
0.191984
1.23982
1.23982
1.17497
1.13074
1.09091
1.05434
1.02129
0.991759
0.965404
0.941695
0.920093
0.900141
0.881502
0.863945
0.847328
0.831563
0.816583
0.802321
0.788695
0.775606
0.762943
0.750598
0.738477
0.726502
0.714617
0.702785
0.690981
0.679192
0.667411
0.655633
0.643858
0.632083
0.620309
0.608536
0.596762
0.584989
0.573216
0.561443
0.549669
0.537896
0.526123
0.51435
0.502577
0.490804
0.479031
0.467258
0.455484
0.443711
0.431938
0.420165
0.408392
0.396619
0.384846
0.373073
0.361299
0.349526
0.337753
0.32598
0.314207
0.302434
0.290661
0.278888
0.267115
0.255341
0.243568
0.231795
0.220022
0.208249
0.196476
0.184703
0.17293
0.161157
0.149383
0.13761
0.125837
0.114064
0.102291
0.090518
0.0787449
0.0669718
0.0551987
0.0434256
0.0316525
0.0198794
0.00810629
-0.0036668
-0.0154399
-0.027213
-0.0389861
-0.0507592
-0.0625323
-0.0743054
-0.0860785
-0.0978515
-0.109625
-0.121398
-0.133171
-0.144944
-0.156716
-0.168489
-0.180264
-0.191984
0.191984
1.21887
1.21887
1.17298
1.13097
1.09162
1.05513
1.02203
0.99239
0.965911
0.94209
0.920396
0.900373
0.881677
0.864076
0.847423
0.831628
0.816624
0.802344
0.788705
0.775608
0.762941
0.750595
0.738474
0.7265
0.714616
0.702784
0.69098
0.679191
0.66741
0.655633
0.643857
0.632083
0.620309
0.608536
0.596762
0.584989
0.573216
0.561443
0.549669
0.537896
0.526123
0.51435
0.502577
0.490804
0.479031
0.467258
0.455484
0.443711
0.431938
0.420165
0.408392
0.396619
0.384846
0.373073
0.361299
0.349526
0.337753
0.32598
0.314207
0.302434
0.290661
0.278888
0.267115
0.255341
0.243568
0.231795
0.220022
0.208249
0.196476
0.184703
0.17293
0.161157
0.149383
0.13761
0.125837
0.114064
0.102291
0.090518
0.0787449
0.0669718
0.0551987
0.0434256
0.0316525
0.0198794
0.00810629
-0.0036668
-0.0154399
-0.027213
-0.0389861
-0.0507592
-0.0625323
-0.0743054
-0.0860785
-0.0978515
-0.109625
-0.121398
-0.133171
-0.144944
-0.156715
-0.168488
-0.180264
-0.191983
0.191983
1.2039
1.2039
1.1701
1.1312
1.09273
1.05646
1.02329
0.993468
0.966773
0.942749
0.920889
0.90074
0.881952
0.864284
0.847581
0.831747
0.816713
0.802408
0.78875
0.775637
0.762959
0.750606
0.73848
0.726502
0.714617
0.702784
0.69098
0.679191
0.66741
0.655633
0.643857
0.632083
0.620309
0.608536
0.596762
0.584989
0.573216
0.561443
0.549669
0.537896
0.526123
0.51435
0.502577
0.490804
0.479031
0.467258
0.455484
0.443711
0.431938
0.420165
0.408392
0.396619
0.384846
0.373073
0.361299
0.349526
0.337753
0.32598
0.314207
0.302434
0.290661
0.278888
0.267115
0.255341
0.243568
0.231795
0.220022
0.208249
0.196476
0.184703
0.17293
0.161157
0.149383
0.13761
0.125837
0.114064
0.102291
0.090518
0.0787449
0.0669718
0.0551987
0.0434256
0.0316525
0.0198794
0.00810629
-0.0036668
-0.0154399
-0.027213
-0.0389861
-0.0507592
-0.0625323
-0.0743054
-0.0860785
-0.0978515
-0.109625
-0.121398
-0.13317
-0.144943
-0.156714
-0.168483
-0.180245
-0.191973
0.191973
1.19432
1.19432
1.16762
1.1313
1.09368
1.05765
1.02447
0.994505
0.967626
0.943422
0.921409
0.901142
0.882267
0.864537
0.847789
0.83192
0.816855
0.802523
0.788839
0.775704
0.763006
0.750637
0.738499
0.726514
0.714623
0.702787
0.690982
0.679192
0.66741
0.655633
0.643857
0.632083
0.620309
0.608536
0.596762
0.584989
0.573216
0.561443
0.549669
0.537896
0.526123
0.51435
0.502577
0.490804
0.479031
0.467258
0.455484
0.443711
0.431938
0.420165
0.408392
0.396619
0.384846
0.373073
0.361299
0.349526
0.337753
0.32598
0.314207
0.302434
0.290661
0.278888
0.267115
0.255341
0.243568
0.231795
0.220022
0.208249
0.196476
0.184703
0.17293
0.161157
0.149383
0.13761
0.125837
0.114064
0.102291
0.090518
0.0787449
0.0669718
0.0551987
0.0434256
0.0316525
0.0198794
0.00810629
-0.0036668
-0.0154399
-0.027213
-0.0389861
-0.0507592
-0.0625323
-0.0743054
-0.0860784
-0.0978515
-0.109625
-0.121398
-0.13317
-0.144942
-0.156712
-0.168475
-0.18021
-0.191959
0.191959
1.18901
1.18901
1.16599
1.13132
1.09427
1.05842
1.02524
0.995194
0.968203
0.943887
0.921776
0.901431
0.8825
0.86473
0.847953
0.832061
0.816976
0.802624
0.788921
0.775766
0.763052
0.750668
0.73852
0.726526
0.71463
0.702791
0.690984
0.679193
0.667411
0.655633
0.643858
0.632083
0.620309
0.608536
0.596762
0.584989
0.573216
0.561443
0.549669
0.537896
0.526123
0.51435
0.502577
0.490804
0.479031
0.467258
0.455484
0.443711
0.431938
0.420165
0.408392
0.396619
0.384846
0.373073
0.361299
0.349526
0.337753
0.32598
0.314207
0.302434
0.290661
0.278888
0.267115
0.255341
0.243568
0.231795
0.220022
0.208249
0.196476
0.184703
0.17293
0.161157
0.149383
0.13761
0.125837
0.114064
0.102291
0.090518
0.0787449
0.0669718
0.0551987
0.0434256
0.0316525
0.0198794
0.00810629
-0.0036668
-0.0154399
-0.027213
-0.0389861
-0.0507592
-0.0625323
-0.0743054
-0.0860784
-0.0978515
-0.109625
-0.121398
-0.13317
-0.144942
-0.15671
-0.168467
-0.180179
-0.191946
0.191946
1.18731
1.18731
1.16544
1.13134
1.09449
1.05869
1.02551
0.99544
0.96841
0.944054
0.921909
0.901538
0.882587
0.864803
0.848015
0.832115
0.817022
0.802663
0.788953
0.775791
0.76307
0.750681
0.738528
0.726531
0.714633
0.702793
0.690984
0.679193
0.667411
0.655633
0.643858
0.632083
0.620309
0.608536
0.596762
0.584989
0.573216
0.561443
0.549669
0.537896
0.526123
0.51435
0.502577
0.490804
0.479031
0.467258
0.455484
0.443711
0.431938
0.420165
0.408392
0.396619
0.384846
0.373073
0.361299
0.349526
0.337753
0.32598
0.314207
0.302434
0.290661
0.278888
0.267115
0.255341
0.243568
0.231795
0.220022
0.208249
0.196476
0.184703
0.17293
0.161157
0.149383
0.13761
0.125837
0.114064
0.102291
0.090518
0.0787449
0.0669718
0.0551987
0.0434256
0.0316525
0.0198794
0.00810629
-0.0036668
-0.0154399
-0.027213
-0.0389861
-0.0507592
-0.0625323
-0.0743054
-0.0860784
-0.0978515
-0.109625
-0.121398
-0.13317
-0.144942
-0.156709
-0.168464
-0.180167
-0.191941
0.191941
1.18901
1.18901
1.16599
1.13132
1.09427
1.05842
1.02524
0.995194
0.968203
0.943887
0.921776
0.901431
0.882501
0.86473
0.847953
0.832061
0.816976
0.802624
0.788921
0.775766
0.763052
0.750668
0.73852
0.726526
0.71463
0.702791
0.690984
0.679193
0.667411
0.655633
0.643858
0.632083
0.620309
0.608536
0.596762
0.584989
0.573216
0.561443
0.549669
0.537896
0.526123
0.51435
0.502577
0.490804
0.479031
0.467258
0.455484
0.443711
0.431938
0.420165
0.408392
0.396619
0.384846
0.373073
0.361299
0.349526
0.337753
0.32598
0.314207
0.302434
0.290661
0.278888
0.267115
0.255341
0.243568
0.231795
0.220022
0.208249
0.196476
0.184703
0.17293
0.161157
0.149383
0.13761
0.125837
0.114064
0.102291
0.090518
0.0787449
0.0669718
0.0551987
0.0434256
0.0316525
0.0198794
0.00810629
-0.0036668
-0.0154399
-0.027213
-0.0389861
-0.0507592
-0.0625323
-0.0743054
-0.0860784
-0.0978515
-0.109625
-0.121398
-0.13317
-0.144942
-0.15671
-0.168467
-0.180179
-0.191946
0.191946
1.19432
1.19432
1.16762
1.1313
1.09368
1.05765
1.02447
0.994505
0.967626
0.943422
0.921409
0.901142
0.882267
0.864537
0.847789
0.83192
0.816855
0.802523
0.788839
0.775704
0.763006
0.750637
0.738499
0.726514
0.714623
0.702787
0.690982
0.679192
0.66741
0.655633
0.643857
0.632083
0.620309
0.608536
0.596762
0.584989
0.573216
0.561443
0.549669
0.537896
0.526123
0.51435
0.502577
0.490804
0.479031
0.467258
0.455484
0.443711
0.431938
0.420165
0.408392
0.396619
0.384846
0.373073
0.361299
0.349526
0.337753
0.32598
0.314207
0.302434
0.290661
0.278888
0.267115
0.255341
0.243568
0.231795
0.220022
0.208249
0.196476
0.184703
0.17293
0.161157
0.149383
0.13761
0.125837
0.114064
0.102291
0.090518
0.0787449
0.0669718
0.0551987
0.0434256
0.0316525
0.0198794
0.00810629
-0.0036668
-0.0154399
-0.027213
-0.0389861
-0.0507592
-0.0625323
-0.0743054
-0.0860784
-0.0978515
-0.109625
-0.121398
-0.13317
-0.144942
-0.156712
-0.168475
-0.18021
-0.191959
0.191959
1.2039
1.2039
1.1701
1.1312
1.09273
1.05646
1.02329
0.993468
0.966773
0.942749
0.920889
0.90074
0.881952
0.864284
0.847581
0.831747
0.816713
0.802408
0.78875
0.775637
0.762959
0.750606
0.73848
0.726502
0.714617
0.702784
0.69098
0.679191
0.66741
0.655633
0.643857
0.632083
0.620309
0.608536
0.596762
0.584989
0.573216
0.561443
0.549669
0.537896
0.526123
0.51435
0.502577
0.490804
0.479031
0.467258
0.455484
0.443711
0.431938
0.420165
0.408392
0.396619
0.384846
0.373073
0.361299
0.349526
0.337753
0.32598
0.314207
0.302434
0.290661
0.278888
0.267115
0.255341
0.243568
0.231795
0.220022
0.208249
0.196476
0.184703
0.17293
0.161157
0.149383
0.13761
0.125837
0.114064
0.102291
0.090518
0.0787449
0.0669718
0.0551987
0.0434256
0.0316525
0.0198794
0.00810629
-0.0036668
-0.0154399
-0.027213
-0.0389861
-0.0507592
-0.0625323
-0.0743054
-0.0860785
-0.0978515
-0.109625
-0.121398
-0.13317
-0.144943
-0.156714
-0.168483
-0.180245
-0.191973
0.191973
1.21887
1.21887
1.17298
1.13097
1.09162
1.05513
1.02203
0.99239
0.965911
0.94209
0.920396
0.900373
0.881677
0.864076
0.847423
0.831628
0.816624
0.802344
0.788705
0.775608
0.762941
0.750595
0.738474
0.7265
0.714616
0.702784
0.69098
0.679191
0.66741
0.655633
0.643857
0.632083
0.620309
0.608536
0.596762
0.584989
0.573216
0.561443
0.549669
0.537896
0.526123
0.51435
0.502577
0.490804
0.479031
0.467258
0.455484
0.443711
0.431938
0.420165
0.408392
0.396619
0.384846
0.373073
0.361299
0.349526
0.337753
0.32598
0.314207
0.302434
0.290661
0.278888
0.267115
0.255341
0.243568
0.231795
0.220022
0.208249
0.196476
0.184703
0.17293
0.161157
0.149383
0.13761
0.125837
0.114064
0.102291
0.090518
0.0787449
0.0669718
0.0551987
0.0434256
0.0316525
0.0198794
0.0081063
-0.0036668
-0.0154399
-0.027213
-0.0389861
-0.0507592
-0.0625323
-0.0743054
-0.0860785
-0.0978515
-0.109625
-0.121398
-0.133171
-0.144944
-0.156715
-0.168488
-0.180264
-0.191983
0.191983
1.23982
1.23982
1.17497
1.13074
1.09091
1.05434
1.02129
0.991759
0.965404
0.941695
0.920093
0.900141
0.881502
0.863945
0.847328
0.831563
0.816583
0.802321
0.788695
0.775606
0.762943
0.750598
0.738477
0.726502
0.714617
0.702785
0.690981
0.679192
0.667411
0.655633
0.643858
0.632083
0.620309
0.608536
0.596762
0.584989
0.573216
0.561443
0.549669
0.537896
0.526123
0.51435
0.502577
0.490804
0.479031
0.467258
0.455484
0.443711
0.431938
0.420165
0.408392
0.396619
0.384846
0.373073
0.361299
0.349526
0.337753
0.32598
0.314207
0.302434
0.290661
0.278888
0.267115
0.255341
0.243568
0.231795
0.220022
0.208249
0.196476
0.184703
0.17293
0.161157
0.149383
0.13761
0.125837
0.114064
0.102291
0.090518
0.0787449
0.0669718
0.0551987
0.0434256
0.0316525
0.0198794
0.0081063
-0.0036668
-0.0154399
-0.027213
-0.0389861
-0.0507592
-0.0625323
-0.0743054
-0.0860785
-0.0978515
-0.109625
-0.121398
-0.133171
-0.144944
-0.156716
-0.168489
-0.180264
-0.191984
0.191984
1.23982
1.23982
1.17497
1.13074
1.09091
1.05434
1.02129
0.991759
0.965404
0.941695
0.920093
0.900141
0.881502
0.863945
0.847328
0.831563
0.816583
0.802321
0.788695
0.775606
0.762943
0.750598
0.738477
0.726502
0.714617
0.702785
0.690981
0.679192
0.667411
0.655633
0.643858
0.632083
0.620309
0.608536
0.596762
0.584989
0.573216
0.561443
0.549669
0.537896
0.526123
0.51435
0.502577
0.490804
0.479031
0.467258
0.455484
0.443711
0.431938
0.420165
0.408392
0.396619
0.384846
0.373073
0.361299
0.349526
0.337753
0.32598
0.314207
0.302434
0.290661
0.278888
0.267115
0.255341
0.243568
0.231795
0.220022
0.208249
0.196476
0.184703
0.17293
0.161157
0.149383
0.13761
0.125837
0.114064
0.102291
0.090518
0.0787449
0.0669718
0.0551987
0.0434256
0.0316525
0.0198794
0.0081063
-0.0036668
-0.0154399
-0.027213
-0.0389861
-0.0507592
-0.0625323
-0.0743054
-0.0860785
-0.0978515
-0.109625
-0.121398
-0.133171
-0.144944
-0.156716
-0.168489
-0.180264
-0.191984
0.191984
SCALARS phi double
LOOKUP_TABLE phi
0.999997
1
0.999981
1.00002
1.00011
0.999614
0.999785
1.0029
1.00287
0.983687
0.932678
0.851205
0.751493
0.64714
0.547202
0.455725
0.373755
0.301215
0.237866
0.183539
0.138039
0.100997
0.0717814
0.0495075
0.0331132
0.0214707
0.0134942
0.00822111
0.00485594
0.00278164
0.00154586
0.000833792
0.000436682
0.000222177
0.000109869
5.28341e-05
2.47194e-05
1.12582e-05
4.99372e-06
2.15836e-06
9.09454e-07
3.73769e-07
1.49898e-07
5.86887e-08
2.24428e-08
8.38587e-09
3.06304e-09
1.09412e-09
3.82351e-10
1.30769e-10
4.37879e-11
1.43604e-11
4.61419e-12
1.45306e-12
4.48613e-13
1.35831e-13
4.03455e-14
1.17595e-14
3.36438e-15
9.45068e-16
2.60722e-16
7.06584e-17
1.8816e-17
4.92467e-18
1.26711e-18
3.20581e-19
7.97708e-20
1.95266e-20
4.70303e-21
1.11477e-21
2.60095e-22
5.97453e-23
1.35139e-23
3.01054e-24
6.60643e-25
1.42832e-25
3.04292e-26
6.38902e-27
1.32229e-27
2.69792e-28
5.42767e-29
1.07681e-29
2.10703e-30
4.06692e-31
7.74435e-32
1.45508e-32
2.69789e-33
4.9369e-34
8.91725e-35
1.59003e-35
2.79917e-36
4.86577e-37
8.3526e-38
1.41608e-38
2.37135e-39
3.92276e-40
6.41099e-41
1.03522e-41
1.65199e-42
2.60525e-43
4.06394e-44
6.03461e-45
6.03461e-45
0.999997
1
0.999981
1.00002
1.00011
0.999614
0.999785
1.0029
1.00287
0.983687
0.932678
0.851205
0.751493
0.64714
0.547202
0.455725
0.373755
0.301215
0.237866
0.183539
0.138039
0.100997
0.0717814
0.0495075
0.0331132
0.0214707
0.0134942
0.00822111
0.00485594
0.00278164
0.00154586
0.000833792
0.000436682
0.000222177
0.000109869
5.28341e-05
2.47194e-05
1.12582e-05
4.99372e-06
2.15836e-06
9.09454e-07
3.73769e-07
1.49898e-07
5.86887e-08
2.24428e-08
8.38587e-09
3.06304e-09
1.09412e-09
3.82351e-10
1.30769e-10
4.37879e-11
1.43604e-11
4.61419e-12
1.45306e-12
4.48613e-13
1.35831e-13
4.03455e-14
1.17595e-14
3.36438e-15
9.45068e-16
2.60722e-16
7.06584e-17
1.8816e-17
4.92467e-18
1.26711e-18
3.20581e-19
7.97708e-20
1.95266e-20
4.70303e-21
1.11477e-21
2.60095e-22
5.97453e-23
1.35139e-23
3.01054e-24
6.60643e-25
1.42832e-25
3.04292e-26
6.38902e-27
1.32229e-27
2.69792e-28
5.42767e-29
1.07681e-29
2.10703e-30
4.06692e-31
7.74435e-32
1.45508e-32
2.69789e-33
4.9369e-34
8.91725e-35
1.59003e-35
2.79917e-36
4.86577e-37
8.3526e-38
1.41608e-38
2.37135e-39
3.92276e-40
6.41099e-41
1.03522e-41
1.65199e-42
2.60525e-43
4.06394e-44
6.03461e-45
6.03461e-45
0.999997
1
0.999991
0.999988
1.00004
0.999914
0.999675
1.00015
1.0011
0.999222
0.989119
0.966406
0.929813
0.880941
0.822668
0.757648
0.687672
0.613862
0.537276
0.459443
0.382548
0.309228
0.242107
0.183299
0.134057
0.0946585
0.064522
0.042461
0.0269871
0.0165735
0.00984047
0.00565247
0.00314323
0.00169328
0.000884306
0.00044802
0.00022035
0.000105279
4.88951e-05
2.20883e-05
9.7118e-06
4.15849e-06
1.73507e-06
7.05811e-07
2.80077e-07
1.08469e-07
4.10197e-08
1.51544e-08
5.47195e-09
1.93195e-09
6.67239e-10
2.25515e-10
7.46189e-11
2.41804e-11
7.67676e-12
2.3886e-12
7.28625e-13
2.17974e-13
6.39702e-14
1.84228e-14
5.20795e-15
1.44555e-15
3.94067e-16
1.05534e-16
2.77726e-17
7.18362e-18
1.82675e-18
4.56796e-19
1.1235e-19
2.71846e-20
6.47239e-21
1.51665e-21
3.49844e-22
7.94536e-23
1.77698e-23
3.91438e-24
8.49433e-25
1.81617e-25
3.82664e-26
7.94664e-27
1.62675e-27
3.28322e-28
6.53406e-29
1.28243e-29
2.48265e-30
4.74119e-31
8.93323e-32
1.66087e-32
3.04737e-33
5.51865e-34
9.86528e-35
1.74104e-35
3.03377e-36
5.22009e-37
8.87044e-38
1.48878e-38
2.46823e-39
4.0425e-40
6.54182e-41
1.04602e-41
1.6543e-42
2.4847e-43
2.4847e-43
0.999996
1
0.999978
0.999889
0.999738
0.999449
0.998949
0.998366
0.997847
0.997052
0.994899
0.989861
0.980543
0.966086
0.946133
0.920389
0.888094
0.847788
0.797628
0.736172
0.663317
0.580892
0.492625
0.403468
0.318557
0.242215
0.177281
0.124904
0.0847393
0.0553894
0.034906
0.0212248
0.0124627
0.00707263
0.00388254
0.0020634
0.00106254
0.000530582
0.000257122
0.000121013
5.53533e-05
2.46249e-05
1.06613e-05
4.49498e-06
1.84667e-06
7.39686e-07
2.89029e-07
1.10231e-07
4.10536e-08
1.49382e-08
5.31307e-09
1.84794e-09