# vtk DataFile Version 3.0
FlowField
ASCII
DATASET STRUCTURED_GRID
DIMENSIONS 103 13 1 
POINTS 1339 double
0 0 0
0.3 0 0
0.6 0 0
0.9 0 0
1.2 0 0
1.5 0 0
1.8 0 0
2.1 0 0
2.4 0 0
2.7 0 0
3 0 0
3.3 0 0
3.6 0 0
3.9 0 0
4.2 0 0
4.5 0 0
4.8 0 0
5.1 0 0
5.4 0 0
5.7 0 0
6 0 0
6.3 0 0
6.6 0 0
6.9 0 0
7.2 0 0
7.5 0 0
7.8 0 0
8.1 0 0
8.4 0 0
8.7 0 0
9 0 0
9.3 0 0
9.6 0 0
9.9 0 0
10.2 0 0
10.5 0 0
10.8 0 0
11.1 0 0
11.4 0 0
11.7 0 0
12 0 0
12.3 0 0
12.6 0 0
12.9 0 0
13.2 0 0
13.5 0 0
13.8 0 0
14.1 0 0
14.4 0 0
14.7 0 0
15 0 0
15.3 0 0
15.6 0 0
15.9 0 0
16.2 0 0
16.5 0 0
16.8 0 0
17.1 0 0
17.4 0 0
17.7 0 0
18 0 0
18.3 0 0
18.6 0 0
18.9 0 0
19.2 0 0
19.5 0 0
19.8 0 0
20.1 0 0
20.4 0 0
20.7 0 0
21 0 0
21.3 0 0
21.6 0 0
21.9 0 0
22.2 0 0
22.5 0 0
22.8 0 0
23.1 0 0
23.4 0 0
23.7 0 0
24 0 0
24.3 0 0
24.6 0 0
24.9 0 0
25.2 0 0
25.5 0 0
25.8 0 0
26.1 0 0
26.4 0 0
26.7 0 0
27 0 0
27.3 0 0
27.6 0 0
27.9 0 0
28.2 0 0
28.5 0 0
28.8 0 0
29.1 0 0
29.4 0 0
29.7 0 0
30 0 0
30.3 0 0
30.6 0 0
0 0.1 0
0.3 0.1 0
0.6 0.1 0
0.9 0.1 0
1.2 0.1 0
1.5 0.1 0
1.8 0.1 0
2.1 0.1 0
2.4 0.1 0
2.7 0.1 0
3 0.1 0
3.3 0.1 0
3.6 0.1 0
3.9 0.1 0
4.2 0.1 0
4.5 0.1 0
4.8 0.1 0
5.1 0.1 0
5.4 0.1 0
5.7 0.1 0
6 0.1 0
6.3 0.1 0
6.6 0.1 0
6.9 0.1 0
7.2 0.1 0
7.5 0.1 0
7.8 0.1 0
8.1 0.1 0
8.4 0.1 0
8.7 0.1 0
9 0.1 0
9.3 0.1 0
9.6 0.1 0
9.9 0.1 0
10.2 0.1 0
10.5 0.1 0
10.8 0.1 0
11.1 0.1 0
11.4 0.1 0
11.7 0.1 0
12 0.1 0
12.3 0.1 0
12.6 0.1 0
12.9 0.1 0
13.2 0.1 0
13.5 0.1 0
13.8 0.1 0
14.1 0.1 0
14.4 0.1 0
14.7 0.1 0
15 0.1 0
15.3 0.1 0
15.6 0.1 0
15.9 0.1 0
16.2 0.1 0
16.5 0.1 0
16.8 0.1 0
17.1 0.1 0
17.4 0.1 0
17.7 0.1 0
18 0.1 0
18.3 0.1 0
18.6 0.1 0
18.9 0.1 0
19.2 0.1 0
19.5 0.1 0
19.8 0.1 0
20.1 0.1 0
20.4 0.1 0
20.7 0.1 0
21 0.1 0
21.3 0.1 0
21.6 0.1 0
21.9 0.1 0
22.2 0.1 0
22.5 0.1 0
22.8 0.1 0
23.1 0.1 0
23.4 0.1 0
23.7 0.1 0
24 0.1 0
24.3 0.1 0
24.6 0.1 0
24.9 0.1 0
25.2 0.1 0
25.5 0.1 0
25.8 0.1 0
26.1 0.1 0
26.4 0.1 0
26.7 0.1 0
27 0.1 0
27.3 0.1 0
27.6 0.1 0
27.9 0.1 0
28.2 0.1 0
28.5 0.1 0
28.8 0.1 0
29.1 0.1 0
29.4 0.1 0
29.7 0.1 0
30 0.1 0
30.3 0.1 0
30.6 0.1 0
0 0.2 0
0.3 0.2 0
0.6 0.2 0
0.9 0.2 0
1.2 0.2 0
1.5 0.2 0
1.8 0.2 0
2.1 0.2 0
2.4 0.2 0
2.7 0.2 0
3 0.2 0
3.3 0.2 0
3.6 0.2 0
3.9 0.2 0
4.2 0.2 0
4.5 0.2 0
4.8 0.2 0
5.1 0.2 0
5.4 0.2 0
5.7 0.2 0
6 0.2 0
6.3 0.2 0
6.6 0.2 0
6.9 0.2 0
7.2 0.2 0
7.5 0.2 0
7.8 0.2 0
8.1 0.2 0
8.4 0.2 0
8.7 0.2 0
9 0.2 0
9.3 0.2 0
9.6 0.2 0
9.9 0.2 0
10.2 0.2 0
10.5 0.2 0
10.8 0.2 0
11.1 0.2 0
11.4 0.2 0
11.7 0.2 0
12 0.2 0
12.3 0.2 0
12.6 0.2 0
12.9 0.2 0
13.2 0.2 0
13.5 0.2 0
13.8 0.2 0
14.1 0.2 0
14.4 0.2 0
14.7 0.2 0
15 0.2 0
15.3 0.2 0
15.6 0.2 0
15.9 0.2 0
16.2 0.2 0
16.5 0.2 0
16.8 0.2 0
17.1 0.2 0
17.4 0.2 0
17.7 0.2 0
18 0.2 0
18.3 0.2 0
18.6 0.2 0
18.9 0.2 0
19.2 0.2 0
19.5 0.2 0
19.8 0.2 0
20.1 0.2 0
20.4 0.2 0
20.7 0.2 0
21 0.2 0
21.3 0.2 0
21.6 0.2 0
21.9 0.2 0
22.2 0.2 0
22.5 0.2 0
22.8 0.2 0
23.1 0.2 0
23.4 0.2 0
23.7 0.2 0
24 0.2 0
24.3 0.2 0
24.6 0.2 0
24.9 0.2 0
25.2 0.2 0
25.5 0.2 0
25.8 0.2 0
26.1 0.2 0
26.4 0.2 0
26.7 0.2 0
27 0.2 0
27.3 0.2 0
27.6 0.2 0
27.9 0.2 0
28.2 0.2 0
28.5 0.2 0
28.8 0.2 0
29.1 0.2 0
29.4 0.2 0
29.7 0.2 0
30 0.2 0
30.3 0.2 0
30.6 0.2 0
0 0.3 0
0.3 0.3 0
0.6 0.3 0
0.9 0.3 0
1.2 0.3 0
1.5 0.3 0
1.8 0.3 0
2.1 0.3 0
2.4 0.3 0
2.7 0.3 0
3 0.3 0
3.3 0.3 0
3.6 0.3 0
3.9 0.3 0
4.2 0.3 0
4.5 0.3 0
4.8 0.3 0
5.1 0.3 0
5.4 0.3 0
5.7 0.3 0
6 0.3 0
6.3 0.3 0
6.6 0.3 0
6.9 0.3 0
7.2 0.3 0
7.5 0.3 0
7.8 0.3 0
8.1 0.3 0
8.4 0.3 0
8.7 0.3 0
9 0.3 0
9.3 0.3 0
9.6 0.3 0
9.9 0.3 0
10.2 0.3 0
10.5 0.3 0
10.8 0.3 0
11.1 0.3 0
11.4 0.3 0
11.7 0.3 0
12 0.3 0
12.3 0.3 0
12.6 0.3 0
12.9 0.3 0
13.2 0.3 0
13.5 0.3 0
13.8 0.3 0
14.1 0.3 0
14.4 0.3 0
14.7 0.3 0
15 0.3 0
15.3 0.3 0
15.6 0.3 0
15.9 0.3 0
16.2 0.3 0
16.5 0.3 0
16.8 0.3 0
17.1 0.3 0
17.4 0.3 0
17.7 0.3 0
18 0.3 0
18.3 0.3 0
18.6 0.3 0
18.9 0.3 0
19.2 0.3 0
19.5 0.3 0
19.8 0.3 0
20.1 0.3 0
20.4 0.3 0
20.7 0.3 0
21 0.3 0
21.3 0.3 0
21.6 0.3 0
21.9 0.3 0
22.2 0.3 0
22.5 0.3 0
22.8 0.3 0
23.1 0.3 0
23.4 0.3 0
23.7 0.3 0
24 0.3 0
24.3 0.3 0
24.6 0.3 0
24.9 0.3 0
25.2 0.3 0
25.5 0.3 0
25.8 0.3 0
26.1 0.3 0
26.4 0.3 0
26.7 0.3 0
27 0.3 0
27.3 0.3 0
27.6 0.3 0
27.9 0.3 0
28.2 0.3 0
28.5 0.3 0
28.8 0.3 0
29.1 0.3 0
29.4 0.3 0
29.7 0.3 0
30 0.3 0
30.3 0.3 0
30.6 0.3 0
0 0.4 0
0.3 0.4 0
0.6 0.4 0
0.9 0.4 0
1.2 0.4 0
1.5 0.4 0
1.8 0.4 0
2.1 0.4 0
2.4 0.4 0
2.7 0.4 0
3 0.4 0
3.3 0.4 0
3.6 0.4 0
3.9 0.4 0
4.2 0.4 0
4.5 0.4 0
4.8 0.4 0
5.1 0.4 0
5.4 0.4 0
5.7 0.4 0
6 0.4 0
6.3 0.4 0
6.6 0.4 0
6.9 0.4 0
7.2 0.4 0
7.5 0.4 0
7.8 0.4 0
8.1 0.4 0
8.4 0.4 0
8.7 0.4 0
9 0.4 0
9.3 0.4 0
9.6 0.4 0
9.9 0.4 0
10.2 0.4 0
10.5 0.4 0
10.8 0.4 0
11.1 0.4 0
11.4 0.4 0
11.7 0.4 0
12 0.4 0
12.3 0.4 0
12.6 0.4 0
12.9 0.4 0
13.2 0.4 0
13.5 0.4 0
13.8 0.4 0
14.1 0.4 0
14.4 0.4 0
14.7 0.4 0
15 0.4 0
15.3 0.4 0
15.6 0.4 0
15.9 0.4 0
16.2 0.4 0
16.5 0.4 0
16.8 0.4 0
17.1 0.4 0
17.4 0.4 0
17.7 0.4 0
18 0.4 0
18.3 0.4 0
18.6 0.4 0
18.9 0.4 0
19.2 0.4 0
19.5 0.4 0
19.8 0.4 0
20.1 0.4 0
20.4 0.4 0
20.7 0.4 0
21 0.4 0
21.3 0.4 0
21.6 0.4 0
21.9 0.4 0
22.2 0.4 0
22.5 0.4 0
22.8 0.4 0
23.1 0.4 0
23.4 0.4 0
23.7 0.4 0
24 0.4 0
24.3 0.4 0
24.6 0.4 0
24.9 0.4 0
25.2 0.4 0
25.5 0.4 0
25.8 0.4 0
26.1 0.4 0
26.4 0.4 0
26.7 0.4 0
27 0.4 0
27.3 0.4 0
27.6 0.4 0
27.9 0.4 0
28.2 0.4 0
28.5 0.4 0
28.8 0.4 0
29.1 0.4 0
29.4 0.4 0
29.7 0.4 0
30 0.4 0
30.3 0.4 0
30.6 0.4 0
0 0.5 0
0.3 0.5 0
0.6 0.5 0
0.9 0.5 0
1.2 0.5 0
1.5 0.5 0
1.8 0.5 0
2.1 0.5 0
2.4 0.5 0
2.7 0.5 0
3 0.5 0
3.3 0.5 0
3.6 0.5 0
3.9 0.5 0
4.2 0.5 0
4.5 0.5 0
4.8 0.5 0
5.1 0.5 0
5.4 0.5 0
5.7 0.5 0
6 0.5 0
6.3 0.5 0
6.6 0.5 0
6.9 0.5 0
7.2 0.5 0
7.5 0.5 0
7.8 0.5 0
8.1 0.5 0
8.4 0.5 0
8.7 0.5 0
9 0.5 0
9.3 0.5 0
9.6 0.5 0
9.9 0.5 0
10.2 0.5 0
10.5 0.5 0
10.8 0.5 0
11.1 0.5 0
11.4 0.5 0
11.7 0.5 0
12 0.5 0
12.3 0.5 0
12.6 0.5 0
12.9 0.5 0
13.2 0.5 0
13.5 0.5 0
13.8 0.5 0
14.1 0.5 0
14.4 0.5 0
14.7 0.5 0
15 0.5 0
15.3 0.5 0
15.6 0.5 0
15.9 0.5 0
16.2 0.5 0
16.5 0.5 0
16.8 0.5 0
17.1 0.5 0
17.4 0.5 0
17.7 0.5 0
18 0.5 0
18.3 0.5 0
18.6 0.5 0
18.9 0.5 0
19.2 0.5 0
19.5 0.5 0
19.8 0.5 0
20.1 0.5 0
20.4 0.5 0
20.7 0.5 0
21 0.5 0
21.3 0.5 0
21.6 0.5 0
21.9 0.5 0
22.2 0.5 0
22.5 0.5 0
22.8 0.5 0
23.1 0.5 0
23.4 0.5 0
23.7 0.5 0
24 0.5 0
24.3 0.5 0
24.6 0.5 0
24.9 0.5 0
25.2 0.5 0
25.5 0.5 0
25.8 0.5 0
26.1 0.5 0
26.4 0.5 0
26.7 0.5 0
27 0.5 0
27.3 0.5 0
27.6 0.5 0
27.9 0.5 0
28.2 0.5 0
28.5 0.5 0
28.8 0.5 0
29.1 0.5 0
29.4 0.5 0
29.7 0.5 0
30 0.5 0
30.3 0.5 0
30.6 0.5 0
0 0.6 0
0.3 0.6 0
0.6 0.6 0
0.9 0.6 0
1.2 0.6 0
1.5 0.6 0
1.8 0.6 0
2.1 0.6 0
2.4 0.6 0
2.7 0.6 0
3 0.6 0
3.3 0.6 0
3.6 0.6 0
3.9 0.6 0
4.2 0.6 0
4.5 0.6 0
4.8 0.6 0
5.1 0.6 0
5.4 0.6 0
5.7 0.6 0
6 0.6 0
6.3 0.6 0
6.6 0.6 0
6.9 0.6 0
7.2 0.6 0
7.5 0.6 0
7.8 0.6 0
8.1 0.6 0
8.4 0.6 0
8.7 0.6 0
9 0.6 0
9.3 0.6 0
9.6 0.6 0
9.9 0.6 0
10.2 0.6 0
10.5 0.6 0
10.8 0.6 0
11.1 0.6 0
11.4 0.6 0
11.7 0.6 0
12 0.6 0
12.3 0.6 0
12.6 0.6 0
12.9 0.6 0
13.2 0.6 0
13.5 0.6 0
13.8 0.6 0
14.1 0.6 0
14.4 0.6 0
14.7 0.6 0
15 0.6 0
15.3 0.6 0
15.6 0.6 0
15.9 0.6 0
16.2 0.6 0
16.5 0.6 0
16.8 0.6 0
17.1 0.6 0
17.4 0.6 0
17.7 0.6 0
18 0.6 0
18.3 0.6 0
18.6 0.6 0
18.9 0.6 0
19.2 0.6 0
19.5 0.6 0
19.8 0.6 0
20.1 0.6 0
20.4 0.6 0
20.7 0.6 0
21 0.6 0
21.3 0.6 0
21.6 0.6 0
21.9 0.6 0
22.2 0.6 0
22.5 0.6 0
22.8 0.6 0
23.1 0.6 0
23.4 0.6 0
23.7 0.6 0
24 0.6 0
24.3 0.6 0
24.6 0.6 0
24.9 0.6 0
25.2 0.6 0
25.5 0.6 0
25.8 0.6 0
26.1 0.6 0
26.4 0.6 0
26.7 0.6 0
27 0.6 0
27.3 0.6 0
27.6 0.6 0
27.9 0.6 0
28.2 0.6 0
28.5 0.6 0
28.8 0.6 0
29.1 0.6 0
29.4 0.6 0
29.7 0.6 0
30 0.6 0
30.3 0.6 0
30.6 0.6 0
0 0.7 0
0.3 0.7 0
0.6 0.7 0
0.9 0.7 0
1.2 0.7 0
1.5 0.7 0
1.8 0.7 0
2.1 0.7 0
2.4 0.7 0
2.7 0.7 0
3 0.7 0
3.3 0.7 0
3.6 0.7 0
3.9 0.7 0
4.2 0.7 0
4.5 0.7 0
4.8 0.7 0
5.1 0.7 0
5.4 0.7 0
5.7 0.7 0
6 0.7 0
6.3 0.7 0
6.6 0.7 0
6.9 0.7 0
7.2 0.7 0
7.5 0.7 0
7.8 0.7 0
8.1 0.7 0
8.4 0.7 0
8.7 0.7 0
9 0.7 0
9.3 0.7 0
9.6 0.7 0
9.9 0.7 0
10.2 0.7 0
10.5 0.7 0
10.8 0.7 0
11.1 0.7 0
11.4 0.7 0
11.7 0.7 0
12 0.7 0
12.3 0.7 0
12.6 0.7 0
12.9 0.7 0
13.2 0.7 0
13.5 0.7 0
13.8 0.7 0
14.1 0.7 0
14.4 0.7 0
14.7 0.7 0
15 0.7 0
15.3 0.7 0
15.6 0.7 0
15.9 0.7 0
16.2 0.7 0
16.5 0.7 0
16.8 0.7 0
17.1 0.7 0
17.4 0.7 0
17.7 0.7 0
18 0.7 0
18.3 0.7 0
18.6 0.7 0
18.9 0.7 0
19.2 0.7 0
19.5 0.7 0
19.8 0.7 0
20.1 0.7 0
20.4 0.7 0
20.7 0.7 0
21 0.7 0
21.3 0.7 0
21.6 0.7 0
21.9 0.7 0
22.2 0.7 0
22.5 0.7 0
22.8 0.7 0
23.1 0.7 0
23.4 0.7 0
23.7 0.7 0
24 0.7 0
24.3 0.7 0
24.6 0.7 0
24.9 0.7 0
25.2 0.7 0
25.5 0.7 0
25.8 0.7 0
26.1 0.7 0
26.4 0.7 0
26.7 0.7 0
27 0.7 0
27.3 0.7 0
27.6 0.7 0
27.9 0.7 0
28.2 0.7 0
28.5 0.7 0
28.8 0.7 0
29.1 0.7 0
29.4 0.7 0
29.7 0.7 0
30 0.7 0
30.3 0.7 0
30.6 0.7 0
0 0.8 0
0.3 0.8 0
0.6 0.8 0
0.9 0.8 0
1.2 0.8 0
1.5 0.8 0
1.8 0.8 0
2.1 0.8 0
2.4 0.8 0
2.7 0.8 0
3 0.8 0
3.3 0.8 0
3.6 0.8 0
3.9 0.8 0
4.2 0.8 0
4.5 0.8 0
4.8 0.8 0
5.1 0.8 0
5.4 0.8 0
5.7 0.8 0
6 0.8 0
6.3 0.8 0
6.6 0.8 0
6.9 0.8 0
7.2 0.8 0
7.5 0.8 0
7.8 0.8 0
8.1 0.8 0
8.4 0.8 0
8.7 0.8 0
9 0.8 0
9.3 0.8 0
9.6 0.8 0
9.9 0.8 0
10.2 0.8 0
10.5 0.8 0
10.8 0.8 0
11.1 0.8 0
11.4 0.8 0
11.7 0.8 0
12 0.8 0
12.3 0.8 0
12.6 0.8 0
12.9 0.8 0
13.2 0.8 0
13.5 0.8 0
13.8 0.8 0
14.1 0.8 0
14.4 0.8 0
14.7 0.8 0
15 0.8 0
15.3 0.8 0
15.6 0.8 0
15.9 0.8 0
16.2 0.8 0
16.5 0.8 0
16.8 0.8 0
17.1 0.8 0
17.4 0.8 0
17.7 0.8 0
18 0.8 0
18.3 0.8 0
18.6 0.8 0
18.9 0.8 0
19.2 0.8 0
19.5 0.8 0
19.8 0.8 0
20.1 0.8 0
20.4 0.8 0
20.7 0.8 0
21 0.8 0
21.3 0.8 0
21.6 0.8 0
21.9 0.8 0
22.2 0.8 0
22.5 0.8 0
22.8 0.8 0
23.1 0.8 0
23.4 0.8 0
23.7 0.8 0
24 0.8 0
24.3 0.8 0
24.6 0.8 0
24.9 0.8 0
25.2 0.8 0
25.5 0.8 0
25.8 0.8 0
26.1 0.8 0
26.4 0.8 0
26.7 0.8 0
27 0.8 0
27.3 0.8 0
27.6 0.8 0
27.9 0.8 0
28.2 0.8 0
28.5 0.8 0
28.8 0.8 0
29.1 0.8 0
29.4 0.8 0
29.7 0.8 0
30 0.8 0
30.3 0.8 0
30.6 0.8 0
0 0.9 0
0.3 0.9 0
0.6 0.9 0
0.9 0.9 0
1.2 0.9 0
1.5 0.9 0
1.8 0.9 0
2.1 0.9 0
2.4 0.9 0
2.7 0.9 0
3 0.9 0
3.3 0.9 0
3.6 0.9 0
3.9 0.9 0
4.2 0.9 0
4.5 0.9 0
4.8 0.9 0
5.1 0.9 0
5.4 0.9 0
5.7 0.9 0
6 0.9 0
6.3 0.9 0
6.6 0.9 0
6.9 0.9 0
7.2 0.9 0
7.5 0.9 0
7.8 0.9 0
8.1 0.9 0
8.4 0.9 0
8.7 0.9 0
9 0.9 0
9.3 0.9 0
9.6 0.9 0
9.9 0.9 0
10.2 0.9 0
10.5 0.9 0
10.8 0.9 0
11.1 0.9 0
11.4 0.9 0
11.7 0.9 0
12 0.9 0
12.3 0.9 0
12.6 0.9 0
12.9 0.9 0
13.2 0.9 0
13.5 0.9 0
13.8 0.9 0
14.1 0.9 0
14.4 0.9 0
14.7 0.9 0
15 0.9 0
15.3 0.9 0
15.6 0.9 0
15.9 0.9 0
16.2 0.9 0
16.5 0.9 0
16.8 0.9 0
17.1 0.9 0
17.4 0.9 0
17.7 0.9 0
18 0.9 0
18.3 0.9 0
18.6 0.9 0
18.9 0.9 0
19.2 0.9 0
19.5 0.9 0
19.8 0.9 0
20.1 0.9 0
20.4 0.9 0
20.7 0.9 0
21 0.9 0
21.3 0.9 0
21.6 0.9 0
21.9 0.9 0
22.2 0.9 0
22.5 0.9 0
22.8 0.9 0
23.1 0.9 0
23.4 0.9 0
23.7 0.9 0
24 0.9 0
24.3 0.9 0
24.6 0.9 0
24.9 0.9 0
25.2 0.9 0
25.5 0.9 0
25.8 0.9 0
26.1 0.9 0
26.4 0.9 0
26.7 0.9 0
27 0.9 0
27.3 0.9 0
27.6 0.9 0
27.9 0.9 0
28.2 0.9 0
28.5 0.9 0
28.8 0.9 0
29.1 0.9 0
29.4 0.9 0
29.7 0.9 0
30 0.9 0
30.3 0.9 0
30.6 0.9 0
0 1 0
0.3 1 0
0.6 1 0
0.9 1 0
1.2 1 0
1.5 1 0
1.8 1 0
2.1 1 0
2.4 1 0
2.7 1 0
3 1 0
3.3 1 0
3.6 1 0
3.9 1 0
4.2 1 0
4.5 1 0
4.8 1 0
5.1 1 0
5.4 1 0
5.7 1 0
6 1 0
6.3 1 0
6.6 1 0
6.9 1 0
7.2 1 0
7.5 1 0
7.8 1 0
8.1 1 0
8.4 1 0
8.7 1 0
9 1 0
9.3 1 0
9.6 1 0
9.9 1 0
10.2 1 0
10.5 1 0
10.8 1 0
11.1 1 0
11.4 1 0
11.7 1 0
12 1 0
12.3 1 0
12.6 1 0
12.9 1 0
13.2 1 0
13.5 1 0
13.8 1 0
14.1 1 0
14.4 1 0
14.7 1 0
15 1 0
15.3 1 0
15.6 1 0
15.9 1 0
16.2 1 0
16.5 1 0
16.8 1 0
17.1 1 0
17.4 1 0
17.7 1 0
18 1 0
18.3 1 0
18.6 1 0
18.9 1 0
19.2 1 0
19.5 1 0
19.8 1 0
20.1 1 0
20.4 1 0
20.7 1 0
21 1 0
21.3 1 0
21.6 1 0
21.9 1 0
22.2 1 0
22.5 1 0
22.8 1 0
23.1 1 0
23.4 1 0
23.7 1 0
24 1 0
24.3 1 0
24.6 1 0
24.9 1 0
25.2 1 0
25.5 1 0
25.8 1 0
26.1 1 0
26.4 1 0
26.7 1 0
27 1 0
27.3 1 0
27.6 1 0
27.9 1 0
28.2 1 0
28.5 1 0
28.8 1 0
29.1 1 0
29.4 1 0
29.7 1 0
30 1 0
30.3 1 0
30.6 1 0
0 1.1 0
0.3 1.1 0
0.6 1.1 0
0.9 1.1 0
1.2 1.1 0
1.5 1.1 0
1.8 1.1 0
2.1 1.1 0
2.4 1.1 0
2.7 1.1 0
3 1.1 0
3.3 1.1 0
3.6 1.1 0
3.9 1.1 0
4.2 1.1 0
4.5 1.1 0
4.8 1.1 0
5.1 1.1 0
5.4 1.1 0
5.7 1.1 0
6 1.1 0
6.3 1.1 0
6.6 1.1 0
6.9 1.1 0
7.2 1.1 0
7.5 1.1 0
7.8 1.1 0
8.1 1.1 0
8.4 1.1 0
8.7 1.1 0
9 1.1 0
9.3 1.1 0
9.6 1.1 0
9.9 1.1 0
10.2 1.1 0
10.5 1.1 0
10.8 1.1 0
11.1 1.1 0
11.4 1.1 0
11.7 1.1 0
12 1.1 0
12.3 1.1 0
12.6 1.1 0
12.9 1.1 0
13.2 1.1 0
13.5 1.1 0
13.8 1.1 0
14.1 1.1 0
14.4 1.1 0
14.7 1.1 0
15 1.1 0
15.3 1.1 0
15.6 1.1 0
15.9 1.1 0
16.2 1.1 0
16.5 1.1 0
16.8 1.1 0
17.1 1.1 0
17.4 1.1 0
17.7 1.1 0
18 1.1 0
18.3 1.1 0
18.6 1.1 0
18.9 1.1 0
19.2 1.1 0
19.5 1.1 0
19.8 1.1 0
20.1 1.1 0
20.4 1.1 0
20.7 1.1 0
21 1.1 0
21.3 1.1 0
21.6 1.1 0
21.9 1.1 0
22.2 1.1 0
22.5 1.1 0
22.8 1.1 0
23.1 1.1 0
23.4 1.1 0
23.7 1.1 0
24 1.1 0
24.3 1.1 0
24.6 1.1 0
24.9 1.1 0
25.2 1.1 0
25.5 1.1 0
25.8 1.1 0
26.1 1.1 0
26.4 1.1 0
26.7 1.1 0
27 1.1 0
27.3 1.1 0
27.6 1.1 0
27.9 1.1 0
28.2 1.1 0
28.5 1.1 0
28.8 1.1 0
29.1 1.1 0
29.4 1.1 0
29.7 1.1 0
30 1.1 0
30.3 1.1 0
30.6 1.1 0
0 1.2 0
0.3 1.2 0
0.6 1.2 0
0.9 1.2 0
1.2 1.2 0
1.5 1.2 0
1.8 1.2 0
2.1 1.2 0
2.4 1.2 0
2.7 1.2 0
3 1.2 0
3.3 1.2 0
3.6 1.2 0
3.9 1.2 0
4.2 1.2 0
4.5 1.2 0
4.8 1.2 0
5.1 1.2 0
5.4 1.2 0
5.7 1.2 0
6 1.2 0
6.3 1.2 0
6.6 1.2 0
6.9 1.2 0
7.2 1.2 0
7.5 1.2 0
7.8 1.2 0
8.1 1.2 0
8.4 1.2 0
8.7 1.2 0
9 1.2 0
9.3 1.2 0
9.6 1.2 0
9.9 1.2 0
10.2 1.2 0
10.5 1.2 0
10.8 1.2 0
11.1 1.2 0
11.4 1.2 0
11.7 1.2 0
12 1.2 0
12.3 1.2 0
12.6 1.2 0
12.9 1.2 0
13.2 1.2 0
13.5 1.2 0
13.8 1.2 0
14.1 1.2 0
14.4 1.2 0
14.7 1.2 0
15 1.2 0
15.3 1.2 0
15.6 1.2 0
15.9 1.2 0
16.2 1.2 0
16.5 1.2 0
16.8 1.2 0
17.1 1.2 0
17.4 1.2 0
17.7 1.2 0
18 1.2 0
18.3 1.2 0
18.6 1.2 0
18.9 1.2 0
19.2 1.2 0
19.5 1.2 0
19.8 1.2 0
20.1 1.2 0
20.4 1.2 0
20.7 1.2 0
21 1.2 0
21.3 1.2 0
21.6 1.2 0
21.9 1.2 0
22.2 1.2 0
22.5 1.2 0
22.8 1.2 0
23.1 1.2 0
23.4 1.2 0
23.7 1.2 0
24 1.2 0
24.3 1.2 0
24.6 1.2 0
24.9 1.2 0
25.2 1.2 0
25.5 1.2 0
25.8 1.2 0
26.1 1.2 0
26.4 1.2 0
26.7 1.2 0
27 1.2 0
27.3 1.2 0
27.6 1.2 0
27.9 1.2 0
28.2 1.2 0
28.5 1.2 0
28.8 1.2 0
29.1 1.2 0
29.4 1.2 0
29.7 1.2 0
30 1.2 0
30.3 1.2 0
30.6 1.2 0

POINT_DATA 1339

SCALARS pressure double
LOOKUP_TABLE pressure
1.26352
1.26352
1.19868
1.15444
1.11462
1.07804
1.04499
1.01546
0.989107
0.965402
0.943848
0.924053
0.905744
0.888729
0.872854
0.857963
0.843889
0.830452
0.81748
0.804822
0.79236
0.78001
0.767719
0.755457
0.743207
0.730962
0.718719
0.706478
0.694236
0.681995
0.669754
0.657512
0.645271
0.63303
0.620789
0.608548
0.596307
0.584066
0.571825
0.559584
0.547343
0.535102
0.522861
0.51062
0.498379
0.486138
0.473897
0.461656
0.449415
0.437174
0.424933
0.412692
0.400451
0.38821
0.375969
0.363728
0.351487
0.339246
0.327005
0.314764
0.302523
0.290282
0.278041
0.2658
0.253559
0.241318
0.229077
0.216836
0.204595
0.192354
0.180113
0.167872
0.155631
0.14339
0.131149
0.118908
0.106667
0.0944255
0.0821845
0.0699435
0.0577025
0.0454615
0.0332205
0.0209795
0.00873852
-0.00350248
-0.0157435
-0.0279845
-0.0402255
-0.0524665
-0.0647075
-0.0769485
-0.0891895
-0.10143
-0.113671
-0.125912
-0.138153
-0.150394
-0.162634
-0.174875
-0.187117
-0.199292
0.199292
1.26352
1.26352
1.19868
1.15444
1.11462
1.07804
1.04499
1.01546
0.989107
0.965402
0.943848
0.924053
0.905744
0.888729
0.872854
0.857963
0.843889
0.830452
0.81748
0.804822
0.79236
0.78001
0.767719
0.755457
0.743207
0.730962
0.718719
0.706478
0.694236
0.681995
0.669754
0.657512
0.645271
0.63303
0.620789
0.608548
0.596307
0.584066
0.571825
0.559584
0.547343
0.535102
0.522861
0.51062
0.498379
0.486138
0.473897
0.461656
0.449415
0.437174
0.424933
0.412692
0.400451
0.38821
0.375969
0.363728
0.351487
0.339246
0.327005
0.314764
0.302523
0.290282
0.278041
0.2658
0.253559
0.241318
0.229077
0.216836
0.204595
0.192354
0.180113
0.167872
0.155631
0.14339
0.131149
0.118908
0.106667
0.0944255
0.0821845
0.0699435
0.0577025
0.0454615
0.0332205
0.0209795
0.00873852
-0.00350248
-0.0157435
-0.0279845
-0.0402255
-0.0524665
-0.0647075
-0.0769485
-0.0891895
-0.10143
-0.113671
-0.125912
-0.138153
-0.150394
-0.162634
-0.174875
-0.187117
-0.199292
0.199292
1.24258
1.24258
1.19669
1.15467
1.11532
1.07884
1.04573
1.0161
0.989614
0.965795
0.944145
0.92427
0.905895
0.888828
0.872913
0.857994
0.843901
0.830454
0.817478
0.804819
0.792358
0.780008
0.767718
0.755456
0.743206
0.730962
0.718719
0.706478
0.694236
0.681995
0.669754
0.657512
0.645271
0.63303
0.620789
0.608548
0.596307
0.584066
0.571825
0.559584
0.547343
0.535102
0.522861
0.51062
0.498379
0.486138
0.473897
0.461656
0.449415
0.437174
0.424933
0.412692
0.400451
0.38821
0.375969
0.363728
0.351487
0.339246
0.327005
0.314764
0.302523
0.290282
0.278041
0.2658
0.253559
0.241318
0.229077
0.216836
0.204595
0.192354
0.180113
0.167872
0.155631
0.14339
0.131149
0.118908
0.106667
0.0944255
0.0821845
0.0699435
0.0577025
0.0454615
0.0332205
0.0209795
0.00873852
-0.00350248
-0.0157435
-0.0279845
-0.0402255
-0.0524665
-0.0647075
-0.0769485
-0.0891895
-0.10143
-0.113671
-0.125912
-0.138153
-0.150394
-0.162633
-0.174874
-0.187116
-0.19929
0.19929
1.2276
1.2276
1.1938
1.1549
1.11643
1.08016
1.04699
1.01717
0.990477
0.966459
0.944646
0.924646
0.906174
0.889032
0.873058
0.858093
0.843965
0.830494
0.817501
0.804831
0.792363
0.780011
0.767719
0.755456
0.743206
0.730962
0.718719
0.706478
0.694236
0.681995
0.669754
0.657512
0.645271
0.63303
0.620789
0.608548
0.596307
0.584066
0.571825
0.559584
0.547343
0.535102
0.522861
0.51062
0.498379
0.486138
0.473897
0.461656
0.449415
0.437174
0.424933
0.412692
0.400451
0.38821
0.375969
0.363728
0.351487
0.339246
0.327005
0.314764
0.302523
0.290282
0.278041
0.2658
0.253559
0.241318
0.229077
0.216836
0.204595
0.192354
0.180113
0.167872
0.155631
0.14339
0.131149
0.118908
0.106667
0.0944255
0.0821845
0.0699435
0.0577025
0.0454615
0.0332205
0.0209795
0.00873852
-0.00350248
-0.0157435
-0.0279845
-0.0402255
-0.0524665
-0.0647075
-0.0769485
-0.0891894
-0.10143
-0.113671
-0.125912
-0.138153
-0.150393
-0.162631
-0.174867
-0.187092
-0.199279
0.199279
1.21803
1.21803
1.19132
1.15501
1.11738
1.08136
1.04817
1.01821
0.991332
0.967141
0.945183
0.92507
0.906514
0.889303
0.873271
0.858255
0.844084
0.830575
0.817554
0.804863
0.792381
0.780019
0.767723
0.755458
0.743207
0.730962
0.718719
0.706477
0.694236
0.681995
0.669754
0.657512
0.645271
0.63303
0.620789
0.608548
0.596307
0.584066
0.571825
0.559584
0.547343
0.535102
0.522861
0.51062
0.498379
0.486138
0.473897
0.461656
0.449415
0.437174
0.424933
0.412692
0.400451
0.38821
0.375969
0.363728
0.351487
0.339246
0.327005
0.314764
0.302523
0.290282
0.278041
0.2658
0.253559
0.241318
0.229077
0.216836
0.204595
0.192354
0.180113
0.167872
0.155631
0.14339
0.131149
0.118908
0.106667
0.0944255
0.0821845
0.0699435
0.0577025
0.0454615
0.0332205
0.0209795
0.00873852
-0.00350248
-0.0157435
-0.0279845
-0.0402255
-0.0524665
-0.0647075
-0.0769485
-0.0891894
-0.10143
-0.113671
-0.125912
-0.138153
-0.150392
-0.162628
-0.174856
-0.18705
-0.199263
0.199263
1.21271
1.21271
1.18969
1.15502
1.11798
1.08212
1.04894
1.0189
0.991912
0.967611
0.945562
0.925379
0.906767
0.889513
0.873442
0.85839
0.844186
0.830648
0.817602
0.804893
0.792398
0.780029
0.767727
0.755459
0.743208
0.730962
0.718719
0.706477
0.694236
0.681995
0.669753
0.657512
0.645271
0.63303
0.620789
0.608548
0.596307
0.584066
0.571825
0.559584
0.547343
0.535102
0.522861
0.51062
0.498379
0.486138
0.473897
0.461656
0.449415
0.437174
0.424933
0.412692
0.400451
0.38821
0.375969
0.363728
0.351487
0.339246
0.327005
0.314764
0.302523
0.290282
0.278041
0.2658
0.253559
0.241318
0.229077
0.216836
0.204595
0.192354
0.180113
0.167872
0.155631
0.14339
0.131149
0.118908
0.106667
0.0944255
0.0821845
0.0699435
0.0577025
0.0454615
0.0332205
0.0209795
0.00873852
-0.00350248
-0.0157435
-0.0279845
-0.0402255
-0.0524665
-0.0647075
-0.0769485
-0.0891894
-0.10143
-0.113671
-0.125912
-0.138153
-0.150392
-0.162626
-0.174848
-0.187015
-0.199249
0.199249
1.21101
1.21101
1.18915
1.15504
1.11819
1.0824
1.04921
1.01915
0.992119
0.967781
0.9457
0.925492
0.906861
0.88959
0.873505
0.858441
0.844224
0.830676
0.817621
0.804905
0.792405
0.780032
0.767729
0.75546
0.743208
0.730962
0.718719
0.706477
0.694236
0.681995
0.669753
0.657512
0.645271
0.63303
0.620789
0.608548
0.596307
0.584066
0.571825
0.559584
0.547343
0.535102
0.522861
0.51062
0.498379
0.486138
0.473897
0.461656
0.449415
0.437174
0.424933
0.412692
0.400451
0.38821
0.375969
0.363728
0.351487
0.339246
0.327005
0.314764
0.302523
0.290282
0.278041
0.2658
0.253559
0.241318
0.229077
0.216836
0.204595
0.192354
0.180113
0.167872
0.155631
0.14339
0.131149
0.118908
0.106667
0.0944255
0.0821845
0.0699435
0.0577025
0.0454615
0.0332205
0.0209795
0.00873852
-0.00350248
-0.0157435
-0.0279845
-0.0402255
-0.0524665
-0.0647075
-0.0769485
-0.0891894
-0.10143
-0.113671
-0.125912
-0.138152
-0.150391
-0.162625
-0.174844
-0.187002
-0.199244
0.199244
1.21271
1.21271
1.18969
1.15502
1.11798
1.08212
1.04894
1.0189
0.991912
0.967611
0.945562
0.925379
0.906767
0.889513
0.873442
0.85839
0.844186
0.830648
0.817602
0.804893
0.792398
0.780029
0.767727
0.755459
0.743208
0.730962
0.718719
0.706477
0.694236
0.681995
0.669753
0.657512
0.645271
0.63303
0.620789
0.608548
0.596307
0.584066
0.571825
0.559584
0.547343
0.535102
0.522861
0.51062
0.498379
0.486138
0.473897
0.461656
0.449415
0.437174
0.424933
0.412692
0.400451
0.38821
0.375969
0.363728
0.351487
0.339246
0.327005
0.314764
0.302523
0.290282
0.278041
0.2658
0.253559
0.241318
0.229077
0.216836
0.204595
0.192354
0.180113
0.167872
0.155631
0.14339
0.131149
0.118908
0.106667
0.0944255
0.0821845
0.0699435
0.0577025
0.0454615
0.0332205
0.0209795
0.00873852
-0.00350248
-0.0157435
-0.0279845
-0.0402255
-0.0524665
-0.0647075
-0.0769485
-0.0891894
-0.10143
-0.113671
-0.125912
-0.138153
-0.150392
-0.162626
-0.174848
-0.187015
-0.199249
0.199249
1.21803
1.21803
1.19132
1.15501
1.11738
1.08136
1.04817
1.01821
0.991333
0.967141
0.945183
0.92507
0.906514
0.889303
0.873271
0.858255
0.844084
0.830575
0.817554
0.804863
0.792381
0.780019
0.767723
0.755458
0.743207
0.730962
0.718719
0.706477
0.694236
0.681995
0.669753
0.657512
0.645271
0.63303
0.620789
0.608548
0.596307
0.584066
0.571825
0.559584
0.547343
0.535102
0.522861
0.51062
0.498379
0.486138
0.473897
0.461656
0.449415
0.437174
0.424933
0.412692
0.400451
0.38821
0.375969
0.363728
0.351487
0.339246
0.327005
0.314764
0.302523
0.290282
0.278041
0.2658
0.253559
0.241318
0.229077
0.216836
0.204595
0.192354
0.180113
0.167872
0.155631
0.14339
0.131149
0.118908
0.106667
0.0944255
0.0821845
0.0699435
0.0577025
0.0454615
0.0332205
0.0209795
0.00873852
-0.00350248
-0.0157435
-0.0279845
-0.0402255
-0.0524665
-0.0647075
-0.0769485
-0.0891894
-0.10143
-0.113671
-0.125912
-0.138153
-0.150392
-0.162628
-0.174856
-0.18705
-0.199263
0.199263
1.2276
1.2276
1.1938
1.1549
1.11643
1.08016
1.04699
1.01717
0.990477
0.966459
0.944646
0.924646
0.906174
0.889032
0.873058
0.858093
0.843965
0.830494
0.817501
0.804831
0.792363
0.780011
0.767719
0.755456
0.743206
0.730962
0.718719
0.706478
0.694236
0.681995
0.669754
0.657512
0.645271
0.63303
0.620789
0.608548
0.596307
0.584066
0.571825
0.559584
0.547343
0.535102
0.522861
0.51062
0.498379
0.486138
0.473897
0.461656
0.449415
0.437174
0.424933
0.412692
0.400451
0.38821
0.375969
0.363728
0.351487
0.339246
0.327005
0.314764
0.302523
0.290282
0.278041
0.2658
0.253559
0.241318
0.229077
0.216836
0.204595
0.192354
0.180113
0.167872
0.155631
0.14339
0.131149
0.118908
0.106667
0.0944255
0.0821845
0.0699435
0.0577025
0.0454615
0.0332205
0.0209795
0.00873852
-0.00350248
-0.0157435
-0.0279845
-0.0402255
-0.0524665
-0.0647075
-0.0769485
-0.0891894
-0.10143
-0.113671
-0.125912
-0.138153
-0.150393
-0.162631
-0.174867
-0.187092
-0.199279
0.199279
1.24258
1.24258
1.19669
1.15467
1.11532
1.07884
1.04573
1.0161
0.989614
0.965795
0.944145
0.92427
0.905895
0.888828
0.872913
0.857994
0.843901
0.830454
0.817478
0.804819
0.792358
0.780008
0.767718
0.755456
0.743206
0.730962
0.718719
0.706478
0.694236
0.681995
0.669754
0.657512
0.645271
0.63303
0.620789
0.608548
0.596307
0.584066
0.571825
0.559584
0.547343
0.535102
0.522861
0.51062
0.498379
0.486138
0.473897
0.461656
0.449415
0.437174
0.424933
0.412692
0.400451
0.38821
0.375969
0.363728
0.351487
0.339246
0.327005
0.314764
0.302523
0.290282
0.278041
0.2658
0.253559
0.241318
0.229077
0.216836
0.204595
0.192354
0.180113
0.167872
0.155631
0.14339
0.131149
0.118908
0.106667
0.0944255
0.0821845
0.0699435
0.0577025
0.0454615
0.0332205
0.0209795
0.00873852
-0.00350248
-0.0157435
-0.0279845
-0.0402255
-0.0524665
-0.0647075
-0.0769485
-0.0891894
-0.10143
-0.113671
-0.125912
-0.138153
-0.150394
-0.162633
-0.174874
-0.187116
-0.19929
0.19929
1.26352
1.26352
1.19868
1.15444
1.11462
1.07804
1.04499
1.01546
0.989107
0.965402
0.943848
0.924053
0.905744
0.888729
0.872854
0.857963
0.843889
0.830452
0.81748
0.804822
0.79236
0.78001
0.767719
0.755457
0.743207
0.730962
0.718719
0.706478
0.694236
0.681995
0.669754
0.657512
0.645271
0.63303
0.620789
0.608548
0.596307
0.584066
0.571825
0.559584
0.547343
0.535102
0.522861
0.51062
0.498379
0.486138
0.473897
0.461656
0.449415
0.437174
0.424933
0.412692
0.400451
0.38821
0.375969
0.363728
0.351487
0.339246
0.327005
0.314764
0.302523
0.290282
0.278041
0.2658
0.253559
0.241318
0.229077
0.216836
0.204595
0.192354
0.180113
0.167872
0.155631
0.14339
0.131149
0.118908
0.106667
0.0944255
0.0821845
0.0699435
0.0577025
0.0454615
0.0332205
0.0209795
0.00873852
-0.00350248
-0.0157435
-0.0279845
-0.0402255
-0.0524665
-0.0647075
-0.0769485
-0.0891894
-0.10143
-0.113671
-0.125912
-0.138153
-0.150394
-0.162634
-0.174875
-0.187117
-0.199292
0.199292
1.26352
1.26352
1.19868
1.15444
1.11462
1.07804
1.04499
1.01546
0.989107
0.965402
0.943848
0.924053
0.905744
0.888729
0.872854
0.857963
0.843889
0.830452
0.81748
0.804822
0.79236
0.78001
0.767719
0.755457
0.743207
0.730962
0.718719
0.706478
0.694236
0.681995
0.669754
0.657512
0.645271
0.63303
0.620789
0.608548
0.596307
0.584066
0.571825
0.559584
0.547343
0.535102
0.522861
0.51062
0.498379
0.486138
0.473897
0.461656
0.449415
0.437174
0.424933
0.412692
0.400451
0.38821
0.375969
0.363728
0.351487
0.339246
0.327005
0.314764
0.302523
0.290282
0.278041
0.2658
0.253559
0.241318
0.229077
0.216836
0.204595
0.192354
0.180113
0.167872
0.155631
0.14339
0.131149
0.118908
0.106667
0.0944255
0.0821845
0.0699435
0.0577025
0.0454615
0.0332205
0.0209795
0.00873852
-0.00350248
-0.0157435
-0.0279845
-0.0402255
-0.0524665
-0.0647075
-0.0769485
-0.0891894
-0.10143
-0.113671
-0.125912
-0.138153
-0.150394
-0.162634
-0.174875
-0.187117
-0.199292
0.199292
SCALARS phi double
LOOKUP_TABLE phi
1
0.999996
0.99999
1.00016
0.999716
0.999295
1.00283
1.0052
0.98543
0.924999
0.826002
0.706549
0.585533
0.47416
0.376421
0.292646
0.222106
0.163977
0.117405
0.0813379
0.0544454
0.0351821
0.0219389
0.0132017
0.0076677
0.00430025
0.0023299
0.00122025
0.000618164
0.0003031
0.000143942
6.62515e-05
2.95735e-05
1.28112e-05
5.38937e-06
2.20301e-06
8.7557e-07
3.38545e-07
1.27421e-07
4.67092e-08
1.66854e-08
5.81118e-09
1.97426e-09
6.54579e-10
2.11905e-10
6.70094e-11
2.07077e-11
6.25624e-12
1.84864e-12
5.34461e-13
1.51241e-13
4.19053e-14
1.13727e-14
3.02417e-15
7.88191e-16
2.01409e-16
5.04756e-17
1.24098e-17
2.99402e-18
7.09038e-19
1.64864e-19
3.76474e-20
8.44512e-21
1.86142e-21
4.03228e-22
8.58667e-23
1.79789e-23
3.70219e-24
7.49895e-25
1.49444e-25
2.93072e-26
5.65683e-27
1.07487e-27
2.01094e-28
3.70491e-29
6.72308e-30
1.20183e-30
2.11674e-31
3.67378e-32
6.28414e-33
1.05957e-33
1.76128e-34
2.88671e-35
4.66566e-36
7.43731e-37
1.16942e-37
1.81397e-38
2.77619e-39
4.19258e-40
6.24853e-41
9.19157e-42
1.33464e-42
1.91317e-43
2.70769e-44
3.78399e-45
5.22217e-46
7.11789e-47
9.58273e-48
1.27456e-48
1.67482e-49
2.17629e-50
2.70581e-51
2.70581e-51
1
0.999996
0.99999
1.00016
0.999716
0.999295
1.00283
1.0052
0.98543
0.924999
0.826002
0.706549
0.585533
0.47416
0.376421
0.292646
0.222106
0.163977
0.117405
0.0813379
0.0544454
0.0351821
0.0219389
0.0132017
0.0076677
0.00430025
0.0023299
0.00122025
0.000618164
0.0003031
0.000143942
6.62515e-05
2.95735e-05
1.28112e-05
5.38937e-06
2.20301e-06
8.7557e-07
3.38545e-07
1.27421e-07
4.67092e-08
1.66854e-08
5.81118e-09
1.97426e-09
6.54579e-10
2.11905e-10
6.70094e-11
2.07077e-11
6.25624e-12
1.84864e-12
5.34461e-13
1.51241e-13
4.19053e-14
1.13727e-14
3.02417e-15
7.88191e-16
2.01409e-16
5.04756e-17
1.24098e-17
2.99402e-18
7.09038e-19
1.64864e-19
3.76474e-20
8.44512e-21
1.86142e-21
4.03228e-22
8.58667e-23
1.79789e-23
3.70219e-24
7.49895e-25
1.49444e-25
2.93072e-26
5.65683e-27
1.07487e-27
2.01094e-28
3.70491e-29
6.72308e-30
1.20183e-30
2.11674e-31
3.67378e-32
6.28414e-33
1.05957e-33
1.76128e-34
2.88671e-35
4.66566e-36
7.43731e-37
1.16942e-37
1.81397e-38
2.77619e-39
4.19258e-40
6.24853e-41
9.19157e-42
1.33464e-42
1.91317e-43
2.70769e-44
3.78399e-45
5.22217e-46
7.11789e-47
9.58273e-48
1.27456e-48
1.67482e-49
2.17629e-50
2.70581e-51
2.70581e-51
1
1
0.999983
1.00007
0.999998
0.999615
1.00007
1.00165
1.00031
0.988848
0.961616
0.917456
0.858694
0.788598
0.709815
0.624413
0.534709
0.443887
0.355912
0.27486
0.204063
0.145494
0.0995844
0.0654406
0.0413055
0.025059
0.0146241
0.008217
0.00444937
0.002324
0.00117202
0.000571202
0.000269272
0.000122889
5.43399e-05
2.32998e-05
9.69493e-06
3.91756e-06
1.5384e-06
5.87482e-07
2.18309e-07
7.89889e-08
2.7844e-08
9.56782e-09
3.20658e-09
1.04868e-09
3.34835e-10
1.04426e-10
3.18256e-11
9.48248e-12
2.76328e-12
7.87885e-13
2.19888e-13
6.00901e-14
1.60851e-14
4.21901e-15
1.0847e-15
2.73439e-16
6.76078e-17
1.64001e-17
3.90424e-18
9.12403e-19
2.0937e-19
4.71878e-20
1.04483e-20
2.27333e-21
4.8617e-22
1.02216e-22
2.11324e-23
4.29709e-24
8.59574e-25
1.69186e-25
3.27718e-26
6.24851e-27
1.17293e-27
2.16801e-28
3.94661e-29
7.07672e-30
1.25013e-30
2.17605e-31
3.73278e-32
6.31128e-33
1.05193e-33
1.72863e-34
2.80106e-35
4.47622e-36
7.05543e-37
1.09702e-37
1.68285e-38
2.54719e-39
3.8047e-40
5.60883e-41
8.16143e-42
1.17233e-42
1.66255e-43
2.32801e-44
3.21905e-45
4.39589e-46
5.92949e-47
7.90033e-48
1.04079e-48
1.30921e-49
1.30921e-49
0.999996
1
0.99997
0.999914
0.999763
0.999373
0.998901
0.998632
0.998187
0.996165
0.990676
0.980096
0.963248
0.938848
0.904863
0.858514
0.797237
0.72016
0.629256
0.529451
0.42761
0.330872
0.245055
0.173695
0.117865
0.076623
0.0477641
0.0285798
0.0164325
0.0090891
0.00484161
0.00248647
0.00123242
0.000590147
0.000273281
0.000122493
5.3193e-05
2.23978e-05
9.15193e-06
3.63171e-06
1.40062e-06
5.25334e-07
1.91756e-07
6.81607e-08
2.36075e-08
7.97158e-09
2.62577e-09
8.44134e-10
2.64988e-10
8.12658e-11
2.43587e-11