# vtk DataFile Version 3.0
FlowField
ASCII
DATASET STRUCTURED_GRID
DIMENSIONS 103 13 1 
POINTS 1339 double
0 0 0
0.3 0 0
0.6 0 0
0.9 0 0
1.2 0 0
1.5 0 0
1.8 0 0
2.1 0 0
2.4 0 0
2.7 0 0
3 0 0
3.3 0 0
3.6 0 0
3.9 0 0
4.2 0 0
4.5 0 0
4.8 0 0
5.1 0 0
5.4 0 0
5.7 0 0
6 0 0
6.3 0 0
6.6 0 0
6.9 0 0
7.2 0 0
7.5 0 0
7.8 0 0
8.1 0 0
8.4 0 0
8.7 0 0
9 0 0
9.3 0 0
9.6 0 0
9.9 0 0
10.2 0 0
10.5 0 0
10.8 0 0
11.1 0 0
11.4 0 0
11.7 0 0
12 0 0
12.3 0 0
12.6 0 0
12.9 0 0
13.2 0 0
13.5 0 0
13.8 0 0
14.1 0 0
14.4 0 0
14.7 0 0
15 0 0
15.3 0 0
15.6 0 0
15.9 0 0
16.2 0 0
16.5 0 0
16.8 0 0
17.1 0 0
17.4 0 0
17.7 0 0
18 0 0
18.3 0 0
18.6 0 0
18.9 0 0
19.2 0 0
19.5 0 0
19.8 0 0
20.1 0 0
20.4 0 0
20.7 0 0
21 0 0
21.3 0 0
21.6 0 0
21.9 0 0
22.2 0 0
22.5 0 0
22.8 0 0
23.1 0 0
23.4 0 0
23.7 0 0
24 0 0
24.3 0 0
24.6 0 0
24.9 0 0
25.2 0 0
25.5 0 0
25.8 0 0
26.1 0 0
26.4 0 0
26.7 0 0
27 0 0
27.3 0 0
27.6 0 0
27.9 0 0
28.2 0 0
28.5 0 0
28.8 0 0
29.1 0 0
29.4 0 0
29.7 0 0
30 0 0
30.3 0 0
30.6 0 0
0 0.1 0
0.3 0.1 0
0.6 0.1 0
0.9 0.1 0
1.2 0.1 0
1.5 0.1 0
1.8 0.1 0
2.1 0.1 0
2.4 0.1 0
2.7 0.1 0
3 0.1 0
3.3 0.1 0
3.6 0.1 0
3.9 0.1 0
4.2 0.1 0
4.5 0.1 0
4.8 0.1 0
5.1 0.1 0
5.4 0.1 0
5.7 0.1 0
6 0.1 0
6.3 0.1 0
6.6 0.1 0
6.9 0.1 0
7.2 0.1 0
7.5 0.1 0
7.8 0.1 0
8.1 0.1 0
8.4 0.1 0
8.7 0.1 0
9 0.1 0
9.3 0.1 0
9.6 0.1 0
9.9 0.1 0
10.2 0.1 0
10.5 0.1 0
10.8 0.1 0
11.1 0.1 0
11.4 0.1 0
11.7 0.1 0
12 0.1 0
12.3 0.1 0
12.6 0.1 0
12.9 0.1 0
13.2 0.1 0
13.5 0.1 0
13.8 0.1 0
14.1 0.1 0
14.4 0.1 0
14.7 0.1 0
15 0.1 0
15.3 0.1 0
15.6 0.1 0
15.9 0.1 0
16.2 0.1 0
16.5 0.1 0
16.8 0.1 0
17.1 0.1 0
17.4 0.1 0
17.7 0.1 0
18 0.1 0
18.3 0.1 0
18.6 0.1 0
18.9 0.1 0
19.2 0.1 0
19.5 0.1 0
19.8 0.1 0
20.1 0.1 0
20.4 0.1 0
20.7 0.1 0
21 0.1 0
21.3 0.1 0
21.6 0.1 0
21.9 0.1 0
22.2 0.1 0
22.5 0.1 0
22.8 0.1 0
23.1 0.1 0
23.4 0.1 0
23.7 0.1 0
24 0.1 0
24.3 0.1 0
24.6 0.1 0
24.9 0.1 0
25.2 0.1 0
25.5 0.1 0
25.8 0.1 0
26.1 0.1 0
26.4 0.1 0
26.7 0.1 0
27 0.1 0
27.3 0.1 0
27.6 0.1 0
27.9 0.1 0
28.2 0.1 0
28.5 0.1 0
28.8 0.1 0
29.1 0.1 0
29.4 0.1 0
29.7 0.1 0
30 0.1 0
30.3 0.1 0
30.6 0.1 0
0 0.2 0
0.3 0.2 0
0.6 0.2 0
0.9 0.2 0
1.2 0.2 0
1.5 0.2 0
1.8 0.2 0
2.1 0.2 0
2.4 0.2 0
2.7 0.2 0
3 0.2 0
3.3 0.2 0
3.6 0.2 0
3.9 0.2 0
4.2 0.2 0
4.5 0.2 0
4.8 0.2 0
5.1 0.2 0
5.4 0.2 0
5.7 0.2 0
6 0.2 0
6.3 0.2 0
6.6 0.2 0
6.9 0.2 0
7.2 0.2 0
7.5 0.2 0
7.8 0.2 0
8.1 0.2 0
8.4 0.2 0
8.7 0.2 0
9 0.2 0
9.3 0.2 0
9.6 0.2 0
9.9 0.2 0
10.2 0.2 0
10.5 0.2 0
10.8 0.2 0
11.1 0.2 0
11.4 0.2 0
11.7 0.2 0
12 0.2 0
12.3 0.2 0
12.6 0.2 0
12.9 0.2 0
13.2 0.2 0
13.5 0.2 0
13.8 0.2 0
14.1 0.2 0
14.4 0.2 0
14.7 0.2 0
15 0.2 0
15.3 0.2 0
15.6 0.2 0
15.9 0.2 0
16.2 0.2 0
16.5 0.2 0
16.8 0.2 0
17.1 0.2 0
17.4 0.2 0
17.7 0.2 0
18 0.2 0
18.3 0.2 0
18.6 0.2 0
18.9 0.2 0
19.2 0.2 0
19.5 0.2 0
19.8 0.2 0
20.1 0.2 0
20.4 0.2 0
20.7 0.2 0
21 0.2 0
21.3 0.2 0
21.6 0.2 0
21.9 0.2 0
22.2 0.2 0
22.5 0.2 0
22.8 0.2 0
23.1 0.2 0
23.4 0.2 0
23.7 0.2 0
24 0.2 0
24.3 0.2 0
24.6 0.2 0
24.9 0.2 0
25.2 0.2 0
25.5 0.2 0
25.8 0.2 0
26.1 0.2 0
26.4 0.2 0
26.7 0.2 0
27 0.2 0
27.3 0.2 0
27.6 0.2 0
27.9 0.2 0
28.2 0.2 0
28.5 0.2 0
28.8 0.2 0
29.1 0.2 0
29.4 0.2 0
29.7 0.2 0
30 0.2 0
30.3 0.2 0
30.6 0.2 0
0 0.3 0
0.3 0.3 0
0.6 0.3 0
0.9 0.3 0
1.2 0.3 0
1.5 0.3 0
1.8 0.3 0
2.1 0.3 0
2.4 0.3 0
2.7 0.3 0
3 0.3 0
3.3 0.3 0
3.6 0.3 0
3.9 0.3 0
4.2 0.3 0
4.5 0.3 0
4.8 0.3 0
5.1 0.3 0
5.4 0.3 0
5.7 0.3 0
6 0.3 0
6.3 0.3 0
6.6 0.3 0
6.9 0.3 0
7.2 0.3 0
7.5 0.3 0
7.8 0.3 0
8.1 0.3 0
8.4 0.3 0
8.7 0.3 0
9 0.3 0
9.3 0.3 0
9.6 0.3 0
9.9 0.3 0
10.2 0.3 0
10.5 0.3 0
10.8 0.3 0
11.1 0.3 0
11.4 0.3 0
11.7 0.3 0
12 0.3 0
12.3 0.3 0
12.6 0.3 0
12.9 0.3 0
13.2 0.3 0
13.5 0.3 0
13.8 0.3 0
14.1 0.3 0
14.4 0.3 0
14.7 0.3 0
15 0.3 0
15.3 0.3 0
15.6 0.3 0
15.9 0.3 0
16.2 0.3 0
16.5 0.3 0
16.8 0.3 0
17.1 0.3 0
17.4 0.3 0
17.7 0.3 0
18 0.3 0
18.3 0.3 0
18.6 0.3 0
18.9 0.3 0
19.2 0.3 0
19.5 0.3 0
19.8 0.3 0
20.1 0.3 0
20.4 0.3 0
20.7 0.3 0
21 0.3 0
21.3 0.3 0
21.6 0.3 0
21.9 0.3 0
22.2 0.3 0
22.5 0.3 0
22.8 0.3 0
23.1 0.3 0
23.4 0.3 0
23.7 0.3 0
24 0.3 0
24.3 0.3 0
24.6 0.3 0
24.9 0.3 0
25.2 0.3 0
25.5 0.3 0
25.8 0.3 0
26.1 0.3 0
26.4 0.3 0
26.7 0.3 0
27 0.3 0
27.3 0.3 0
27.6 0.3 0
27.9 0.3 0
28.2 0.3 0
28.5 0.3 0
28.8 0.3 0
29.1 0.3 0
29.4 0.3 0
29.7 0.3 0
30 0.3 0
30.3 0.3 0
30.6 0.3 0
0 0.4 0
0.3 0.4 0
0.6 0.4 0
0.9 0.4 0
1.2 0.4 0
1.5 0.4 0
1.8 0.4 0
2.1 0.4 0
2.4 0.4 0
2.7 0.4 0
3 0.4 0
3.3 0.4 0
3.6 0.4 0
3.9 0.4 0
4.2 0.4 0
4.5 0.4 0
4.8 0.4 0
5.1 0.4 0
5.4 0.4 0
5.7 0.4 0
6 0.4 0
6.3 0.4 0
6.6 0.4 0
6.9 0.4 0
7.2 0.4 0
7.5 0.4 0
7.8 0.4 0
8.1 0.4 0
8.4 0.4 0
8.7 0.4 0
9 0.4 0
9.3 0.4 0
9.6 0.4 0
9.9 0.4 0
10.2 0.4 0
10.5 0.4 0
10.8 0.4 0
11.1 0.4 0
11.4 0.4 0
11.7 0.4 0
12 0.4 0
12.3 0.4 0
12.6 0.4 0
12.9 0.4 0
13.2 0.4 0
13.5 0.4 0
13.8 0.4 0
14.1 0.4 0
14.4 0.4 0
14.7 0.4 0
15 0.4 0
15.3 0.4 0
15.6 0.4 0
15.9 0.4 0
16.2 0.4 0
16.5 0.4 0
16.8 0.4 0
17.1 0.4 0
17.4 0.4 0
17.7 0.4 0
18 0.4 0
18.3 0.4 0
18.6 0.4 0
18.9 0.4 0
19.2 0.4 0
19.5 0.4 0
19.8 0.4 0
20.1 0.4 0
20.4 0.4 0
20.7 0.4 0
21 0.4 0
21.3 0.4 0
21.6 0.4 0
21.9 0.4 0
22.2 0.4 0
22.5 0.4 0
22.8 0.4 0
23.1 0.4 0
23.4 0.4 0
23.7 0.4 0
24 0.4 0
24.3 0.4 0
24.6 0.4 0
24.9 0.4 0
25.2 0.4 0
25.5 0.4 0
25.8 0.4 0
26.1 0.4 0
26.4 0.4 0
26.7 0.4 0
27 0.4 0
27.3 0.4 0
27.6 0.4 0
27.9 0.4 0
28.2 0.4 0
28.5 0.4 0
28.8 0.4 0
29.1 0.4 0
29.4 0.4 0
29.7 0.4 0
30 0.4 0
30.3 0.4 0
30.6 0.4 0
0 0.5 0
0.3 0.5 0
0.6 0.5 0
0.9 0.5 0
1.2 0.5 0
1.5 0.5 0
1.8 0.5 0
2.1 0.5 0
2.4 0.5 0
2.7 0.5 0
3 0.5 0
3.3 0.5 0
3.6 0.5 0
3.9 0.5 0
4.2 0.5 0
4.5 0.5 0
4.8 0.5 0
5.1 0.5 0
5.4 0.5 0
5.7 0.5 0
6 0.5 0
6.3 0.5 0
6.6 0.5 0
6.9 0.5 0
7.2 0.5 0
7.5 0.5 0
7.8 0.5 0
8.1 0.5 0
8.4 0.5 0
8.7 0.5 0
9 0.5 0
9.3 0.5 0
9.6 0.5 0
9.9 0.5 0
10.2 0.5 0
10.5 0.5 0
10.8 0.5 0
11.1 0.5 0
11.4 0.5 0
11.7 0.5 0
12 0.5 0
12.3 0.5 0
12.6 0.5 0
12.9 0.5 0
13.2 0.5 0
13.5 0.5 0
13.8 0.5 0
14.1 0.5 0
14.4 0.5 0
14.7 0.5 0
15 0.5 0
15.3 0.5 0
15.6 0.5 0
15.9 0.5 0
16.2 0.5 0
16.5 0.5 0
16.8 0.5 0
17.1 0.5 0
17.4 0.5 0
17.7 0.5 0
18 0.5 0
18.3 0.5 0
18.6 0.5 0
18.9 0.5 0
19.2 0.5 0
19.5 0.5 0
19.8 0.5 0
20.1 0.5 0
20.4 0.5 0
20.7 0.5 0
21 0.5 0
21.3 0.5 0
21.6 0.5 0
21.9 0.5 0
22.2 0.5 0
22.5 0.5 0
22.8 0.5 0
23.1 0.5 0
23.4 0.5 0
23.7 0.5 0
24 0.5 0
24.3 0.5 0
24.6 0.5 0
24.9 0.5 0
25.2 0.5 0
25.5 0.5 0
25.8 0.5 0
26.1 0.5 0
26.4 0.5 0
26.7 0.5 0
27 0.5 0
27.3 0.5 0
27.6 0.5 0
27.9 0.5 0
28.2 0.5 0
28.5 0.5 0
28.8 0.5 0
29.1 0.5 0
29.4 0.5 0
29.7 0.5 0
30 0.5 0
30.3 0.5 0
30.6 0.5 0
0 0.6 0
0.3 0.6 0
0.6 0.6 0
0.9 0.6 0
1.2 0.6 0
1.5 0.6 0
1.8 0.6 0
2.1 0.6 0
2.4 0.6 0
2.7 0.6 0
3 0.6 0
3.3 0.6 0
3.6 0.6 0
3.9 0.6 0
4.2 0.6 0
4.5 0.6 0
4.8 0.6 0
5.1 0.6 0
5.4 0.6 0
5.7 0.6 0
6 0.6 0
6.3 0.6 0
6.6 0.6 0
6.9 0.6 0
7.2 0.6 0
7.5 0.6 0
7.8 0.6 0
8.1 0.6 0
8.4 0.6 0
8.7 0.6 0
9 0.6 0
9.3 0.6 0
9.6 0.6 0
9.9 0.6 0
10.2 0.6 0
10.5 0.6 0
10.8 0.6 0
11.1 0.6 0
11.4 0.6 0
11.7 0.6 0
12 0.6 0
12.3 0.6 0
12.6 0.6 0
12.9 0.6 0
13.2 0.6 0
13.5 0.6 0
13.8 0.6 0
14.1 0.6 0
14.4 0.6 0
14.7 0.6 0
15 0.6 0
15.3 0.6 0
15.6 0.6 0
15.9 0.6 0
16.2 0.6 0
16.5 0.6 0
16.8 0.6 0
17.1 0.6 0
17.4 0.6 0
17.7 0.6 0
18 0.6 0
18.3 0.6 0
18.6 0.6 0
18.9 0.6 0
19.2 0.6 0
19.5 0.6 0
19.8 0.6 0
20.1 0.6 0
20.4 0.6 0
20.7 0.6 0
21 0.6 0
21.3 0.6 0
21.6 0.6 0
21.9 0.6 0
22.2 0.6 0
22.5 0.6 0
22.8 0.6 0
23.1 0.6 0
23.4 0.6 0
23.7 0.6 0
24 0.6 0
24.3 0.6 0
24.6 0.6 0
24.9 0.6 0
25.2 0.6 0
25.5 0.6 0
25.8 0.6 0
26.1 0.6 0
26.4 0.6 0
26.7 0.6 0
27 0.6 0
27.3 0.6 0
27.6 0.6 0
27.9 0.6 0
28.2 0.6 0
28.5 0.6 0
28.8 0.6 0
29.1 0.6 0
29.4 0.6 0
29.7 0.6 0
30 0.6 0
30.3 0.6 0
30.6 0.6 0
0 0.7 0
0.3 0.7 0
0.6 0.7 0
0.9 0.7 0
1.2 0.7 0
1.5 0.7 0
1.8 0.7 0
2.1 0.7 0
2.4 0.7 0
2.7 0.7 0
3 0.7 0
3.3 0.7 0
3.6 0.7 0
3.9 0.7 0
4.2 0.7 0
4.5 0.7 0
4.8 0.7 0
5.1 0.7 0
5.4 0.7 0
5.7 0.7 0
6 0.7 0
6.3 0.7 0
6.6 0.7 0
6.9 0.7 0
7.2 0.7 0
7.5 0.7 0
7.8 0.7 0
8.1 0.7 0
8.4 0.7 0
8.7 0.7 0
9 0.7 0
9.3 0.7 0
9.6 0.7 0
9.9 0.7 0
10.2 0.7 0
10.5 0.7 0
10.8 0.7 0
11.1 0.7 0
11.4 0.7 0
11.7 0.7 0
12 0.7 0
12.3 0.7 0
12.6 0.7 0
12.9 0.7 0
13.2 0.7 0
13.5 0.7 0
13.8 0.7 0
14.1 0.7 0
14.4 0.7 0
14.7 0.7 0
15 0.7 0
15.3 0.7 0
15.6 0.7 0
15.9 0.7 0
16.2 0.7 0
16.5 0.7 0
16.8 0.7 0
17.1 0.7 0
17.4 0.7 0
17.7 0.7 0
18 0.7 0
18.3 0.7 0
18.6 0.7 0
18.9 0.7 0
19.2 0.7 0
19.5 0.7 0
19.8 0.7 0
20.1 0.7 0
20.4 0.7 0
20.7 0.7 0
21 0.7 0
21.3 0.7 0
21.6 0.7 0
21.9 0.7 0
22.2 0.7 0
22.5 0.7 0
22.8 0.7 0
23.1 0.7 0
23.4 0.7 0
23.7 0.7 0
24 0.7 0
24.3 0.7 0
24.6 0.7 0
24.9 0.7 0
25.2 0.7 0
25.5 0.7 0
25.8 0.7 0
26.1 0.7 0
26.4 0.7 0
26.7 0.7 0
27 0.7 0
27.3 0.7 0
27.6 0.7 0
27.9 0.7 0
28.2 0.7 0
28.5 0.7 0
28.8 0.7 0
29.1 0.7 0
29.4 0.7 0
29.7 0.7 0
30 0.7 0
30.3 0.7 0
30.6 0.7 0
0 0.8 0
0.3 0.8 0
0.6 0.8 0
0.9 0.8 0
1.2 0.8 0
1.5 0.8 0
1.8 0.8 0
2.1 0.8 0
2.4 0.8 0
2.7 0.8 0
3 0.8 0
3.3 0.8 0
3.6 0.8 0
3.9 0.8 0
4.2 0.8 0
4.5 0.8 0
4.8 0.8 0
5.1 0.8 0
5.4 0.8 0
5.7 0.8 0
6 0.8 0
6.3 0.8 0
6.6 0.8 0
6.9 0.8 0
7.2 0.8 0
7.5 0.8 0
7.8 0.8 0
8.1 0.8 0
8.4 0.8 0
8.7 0.8 0
9 0.8 0
9.3 0.8 0
9.6 0.8 0
9.9 0.8 0
10.2 0.8 0
10.5 0.8 0
10.8 0.8 0
11.1 0.8 0
11.4 0.8 0
11.7 0.8 0
12 0.8 0
12.3 0.8 0
12.6 0.8 0
12.9 0.8 0
13.2 0.8 0
13.5 0.8 0
13.8 0.8 0
14.1 0.8 0
14.4 0.8 0
14.7 0.8 0
15 0.8 0
15.3 0.8 0
15.6 0.8 0
15.9 0.8 0
16.2 0.8 0
16.5 0.8 0
16.8 0.8 0
17.1 0.8 0
17.4 0.8 0
17.7 0.8 0
18 0.8 0
18.3 0.8 0
18.6 0.8 0
18.9 0.8 0
19.2 0.8 0
19.5 0.8 0
19.8 0.8 0
20.1 0.8 0
20.4 0.8 0
20.7 0.8 0
21 0.8 0
21.3 0.8 0
21.6 0.8 0
21.9 0.8 0
22.2 0.8 0
22.5 0.8 0
22.8 0.8 0
23.1 0.8 0
23.4 0.8 0
23.7 0.8 0
24 0.8 0
24.3 0.8 0
24.6 0.8 0
24.9 0.8 0
25.2 0.8 0
25.5 0.8 0
25.8 0.8 0
26.1 0.8 0
26.4 0.8 0
26.7 0.8 0
27 0.8 0
27.3 0.8 0
27.6 0.8 0
27.9 0.8 0
28.2 0.8 0
28.5 0.8 0
28.8 0.8 0
29.1 0.8 0
29.4 0.8 0
29.7 0.8 0
30 0.8 0
30.3 0.8 0
30.6 0.8 0
0 0.9 0
0.3 0.9 0
0.6 0.9 0
0.9 0.9 0
1.2 0.9 0
1.5 0.9 0
1.8 0.9 0
2.1 0.9 0
2.4 0.9 0
2.7 0.9 0
3 0.9 0
3.3 0.9 0
3.6 0.9 0
3.9 0.9 0
4.2 0.9 0
4.5 0.9 0
4.8 0.9 0
5.1 0.9 0
5.4 0.9 0
5.7 0.9 0
6 0.9 0
6.3 0.9 0
6.6 0.9 0
6.9 0.9 0
7.2 0.9 0
7.5 0.9 0
7.8 0.9 0
8.1 0.9 0
8.4 0.9 0
8.7 0.9 0
9 0.9 0
9.3 0.9 0
9.6 0.9 0
9.9 0.9 0
10.2 0.9 0
10.5 0.9 0
10.8 0.9 0
11.1 0.9 0
11.4 0.9 0
11.7 0.9 0
12 0.9 0
12.3 0.9 0
12.6 0.9 0
12.9 0.9 0
13.2 0.9 0
13.5 0.9 0
13.8 0.9 0
14.1 0.9 0
14.4 0.9 0
14.7 0.9 0
15 0.9 0
15.3 0.9 0
15.6 0.9 0
15.9 0.9 0
16.2 0.9 0
16.5 0.9 0
16.8 0.9 0
17.1 0.9 0
17.4 0.9 0
17.7 0.9 0
18 0.9 0
18.3 0.9 0
18.6 0.9 0
18.9 0.9 0
19.2 0.9 0
19.5 0.9 0
19.8 0.9 0
20.1 0.9 0
20.4 0.9 0
20.7 0.9 0
21 0.9 0
21.3 0.9 0
21.6 0.9 0
21.9 0.9 0
22.2 0.9 0
22.5 0.9 0
22.8 0.9 0
23.1 0.9 0
23.4 0.9 0
23.7 0.9 0
24 0.9 0
24.3 0.9 0
24.6 0.9 0
24.9 0.9 0
25.2 0.9 0
25.5 0.9 0
25.8 0.9 0
26.1 0.9 0
26.4 0.9 0
26.7 0.9 0
27 0.9 0
27.3 0.9 0
27.6 0.9 0
27.9 0.9 0
28.2 0.9 0
28.5 0.9 0
28.8 0.9 0
29.1 0.9 0
29.4 0.9 0
29.7 0.9 0
30 0.9 0
30.3 0.9 0
30.6 0.9 0
0 1 0
0.3 1 0
0.6 1 0
0.9 1 0
1.2 1 0
1.5 1 0
1.8 1 0
2.1 1 0
2.4 1 0
2.7 1 0
3 1 0
3.3 1 0
3.6 1 0
3.9 1 0
4.2 1 0
4.5 1 0
4.8 1 0
5.1 1 0
5.4 1 0
5.7 1 0
6 1 0
6.3 1 0
6.6 1 0
6.9 1 0
7.2 1 0
7.5 1 0
7.8 1 0
8.1 1 0
8.4 1 0
8.7 1 0
9 1 0
9.3 1 0
9.6 1 0
9.9 1 0
10.2 1 0
10.5 1 0
10.8 1 0
11.1 1 0
11.4 1 0
11.7 1 0
12 1 0
12.3 1 0
12.6 1 0
12.9 1 0
13.2 1 0
13.5 1 0
13.8 1 0
14.1 1 0
14.4 1 0
14.7 1 0
15 1 0
15.3 1 0
15.6 1 0
15.9 1 0
16.2 1 0
16.5 1 0
16.8 1 0
17.1 1 0
17.4 1 0
17.7 1 0
18 1 0
18.3 1 0
18.6 1 0
18.9 1 0
19.2 1 0
19.5 1 0
19.8 1 0
20.1 1 0
20.4 1 0
20.7 1 0
21 1 0
21.3 1 0
21.6 1 0
21.9 1 0
22.2 1 0
22.5 1 0
22.8 1 0
23.1 1 0
23.4 1 0
23.7 1 0
24 1 0
24.3 1 0
24.6 1 0
24.9 1 0
25.2 1 0
25.5 1 0
25.8 1 0
26.1 1 0
26.4 1 0
26.7 1 0
27 1 0
27.3 1 0
27.6 1 0
27.9 1 0
28.2 1 0
28.5 1 0
28.8 1 0
29.1 1 0
29.4 1 0
29.7 1 0
30 1 0
30.3 1 0
30.6 1 0
0 1.1 0
0.3 1.1 0
0.6 1.1 0
0.9 1.1 0
1.2 1.1 0
1.5 1.1 0
1.8 1.1 0
2.1 1.1 0
2.4 1.1 0
2.7 1.1 0
3 1.1 0
3.3 1.1 0
3.6 1.1 0
3.9 1.1 0
4.2 1.1 0
4.5 1.1 0
4.8 1.1 0
5.1 1.1 0
5.4 1.1 0
5.7 1.1 0
6 1.1 0
6.3 1.1 0
6.6 1.1 0
6.9 1.1 0
7.2 1.1 0
7.5 1.1 0
7.8 1.1 0
8.1 1.1 0
8.4 1.1 0
8.7 1.1 0
9 1.1 0
9.3 1.1 0
9.6 1.1 0
9.9 1.1 0
10.2 1.1 0
10.5 1.1 0
10.8 1.1 0
11.1 1.1 0
11.4 1.1 0
11.7 1.1 0
12 1.1 0
12.3 1.1 0
12.6 1.1 0
12.9 1.1 0
13.2 1.1 0
13.5 1.1 0
13.8 1.1 0
14.1 1.1 0
14.4 1.1 0
14.7 1.1 0
15 1.1 0
15.3 1.1 0
15.6 1.1 0
15.9 1.1 0
16.2 1.1 0
16.5 1.1 0
16.8 1.1 0
17.1 1.1 0
17.4 1.1 0
17.7 1.1 0
18 1.1 0
18.3 1.1 0
18.6 1.1 0
18.9 1.1 0
19.2 1.1 0
19.5 1.1 0
19.8 1.1 0
20.1 1.1 0
20.4 1.1 0
20.7 1.1 0
21 1.1 0
21.3 1.1 0
21.6 1.1 0
21.9 1.1 0
22.2 1.1 0
22.5 1.1 0
22.8 1.1 0
23.1 1.1 0
23.4 1.1 0
23.7 1.1 0
24 1.1 0
24.3 1.1 0
24.6 1.1 0
24.9 1.1 0
25.2 1.1 0
25.5 1.1 0
25.8 1.1 0
26.1 1.1 0
26.4 1.1 0
26.7 1.1 0
27 1.1 0
27.3 1.1 0
27.6 1.1 0
27.9 1.1 0
28.2 1.1 0
28.5 1.1 0
28.8 1.1 0
29.1 1.1 0
29.4 1.1 0
29.7 1.1 0
30 1.1 0
30.3 1.1 0
30.6 1.1 0
0 1.2 0
0.3 1.2 0
0.6 1.2 0
0.9 1.2 0
1.2 1.2 0
1.5 1.2 0
1.8 1.2 0
2.1 1.2 0
2.4 1.2 0
2.7 1.2 0
3 1.2 0
3.3 1.2 0
3.6 1.2 0
3.9 1.2 0
4.2 1.2 0
4.5 1.2 0
4.8 1.2 0
5.1 1.2 0
5.4 1.2 0
5.7 1.2 0
6 1.2 0
6.3 1.2 0
6.6 1.2 0
6.9 1.2 0
7.2 1.2 0
7.5 1.2 0
7.8 1.2 0
8.1 1.2 0
8.4 1.2 0
8.7 1.2 0
9 1.2 0
9.3 1.2 0
9.6 1.2 0
9.9 1.2 0
10.2 1.2 0
10.5 1.2 0
10.8 1.2 0
11.1 1.2 0
11.4 1.2 0
11.7 1.2 0
12 1.2 0
12.3 1.2 0
12.6 1.2 0
12.9 1.2 0
13.2 1.2 0
13.5 1.2 0
13.8 1.2 0
14.1 1.2 0
14.4 1.2 0
14.7 1.2 0
15 1.2 0
15.3 1.2 0
15.6 1.2 0
15.9 1.2 0
16.2 1.2 0
16.5 1.2 0
16.8 1.2 0
17.1 1.2 0
17.4 1.2 0
17.7 1.2 0
18 1.2 0
18.3 1.2 0
18.6 1.2 0
18.9 1.2 0
19.2 1.2 0
19.5 1.2 0
19.8 1.2 0
20.1 1.2 0
20.4 1.2 0
20.7 1.2 0
21 1.2 0
21.3 1.2 0
21.6 1.2 0
21.9 1.2 0
22.2 1.2 0
22.5 1.2 0
22.8 1.2 0
23.1 1.2 0
23.4 1.2 0
23.7 1.2 0
24 1.2 0
24.3 1.2 0
24.6 1.2 0
24.9 1.2 0
25.2 1.2 0
25.5 1.2 0
25.8 1.2 0
26.1 1.2 0
26.4 1.2 0
26.7 1.2 0
27 1.2 0
27.3 1.2 0
27.6 1.2 0
27.9 1.2 0
28.2 1.2 0
28.5 1.2 0
28.8 1.2 0
29.1 1.2 0
29.4 1.2 0
29.7 1.2 0
30 1.2 0
30.3 1.2 0
30.6 1.2 0

POINT_DATA 1339

SCALARS pressure double
LOOKUP_TABLE pressure
1.17154
1.17154
1.1067
1.06246
1.02264
0.986066
0.953014
0.923485
0.89713
0.873421
0.851818
0.831856
0.813163
0.795463
0.778556
0.762298
0.746579
0.731321
0.716471
0.701977
0.687802
0.673916
0.660295
0.646918
0.633762
0.620811
0.608051
0.59547
0.583052
0.570787
0.558667
0.546681
0.534819
0.523076
0.511443
0.499914
0.488483
0.477143
0.46589
0.454718
0.443623
0.4326
0.421646
0.410756
0.399927
0.389156
0.378439
0.367773
0.357156
0.346584
0.336057
0.32557
0.315122
0.304711
0.294335
0.283992
0.27368
0.263397
0.253143
0.242914
0.232711
0.222532
0.212375
0.202239
0.192123
0.182027
0.171948
0.161887
0.151842
0.141812
0.131796
0.121795
0.111806
0.10183
0.0918649
0.0819112
0.071968
0.0620347
0.0521108
0.0421958
0.0322894
0.0223911
0.0125005
0.00261728
-0.00725881
-0.0171281
-0.0269908
-0.0368472
-0.0466976
-0.0565421
-0.0663811
-0.0762146
-0.086043
-0.0958665
-0.105685
-0.1155
-0.12531
-0.135116
-0.144919
-0.154718
-0.164515
-0.174309
0.174309
1.17154
1.17154
1.1067
1.06246
1.02264
0.986066
0.953014
0.923485
0.89713
0.873421
0.851818
0.831856
0.813163
0.795463
0.778556
0.762298
0.746579
0.731321
0.716471
0.701977
0.687802
0.673916
0.660295
0.646918
0.633762
0.620811
0.608051
0.59547
0.583052
0.570787
0.558667
0.546681
0.534819
0.523076
0.511443
0.499914
0.488483
0.477143
0.46589
0.454718
0.443623
0.4326
0.421646
0.410756
0.399927
0.389156
0.378439
0.367773
0.357156
0.346584
0.336057
0.32557
0.315122
0.304711
0.294335
0.283992
0.27368
0.263397
0.253143
0.242914
0.232711
0.222532
0.212375
0.202239
0.192123
0.182027
0.171948
0.161887
0.151842
0.141812
0.131796
0.121795
0.111806
0.10183
0.0918649
0.0819112
0.071968
0.0620347
0.0521108
0.0421958
0.0322894
0.0223911
0.0125005
0.00261728
-0.00725881
-0.0171281
-0.0269908
-0.0368472
-0.0466976
-0.0565421
-0.0663811
-0.0762146
-0.086043
-0.0958665
-0.105685
-0.1155
-0.12531
-0.135116
-0.144919
-0.154718
-0.164515
-0.174309
0.174309
1.1506
1.1506
1.10471
1.06269
1.02334
0.986862
0.953757
0.924117
0.897638
0.873816
0.852122
0.83209
0.813345
0.795607
0.778674
0.762396
0.746661
0.731393
0.716533
0.702032
0.68785
0.67396
0.660336
0.646955
0.633795
0.620842
0.60808
0.595496
0.583076
0.57081
0.558688
0.5467
0.534837
0.523092
0.511459
0.499929
0.488496
0.477155
0.465902
0.454729
0.443633
0.43261
0.421655
0.410764
0.399935
0.389163
0.378446
0.367779
0.357162
0.346591
0.336062
0.325575
0.315127
0.304716
0.29434
0.283996
0.273684
0.263401
0.253146
0.242918
0.232714
0.222535
0.212378
0.202242
0.192126
0.182029
0.171951
0.161889
0.151844
0.141814
0.131798
0.121796
0.111808
0.101831
0.0918664
0.0819126
0.0719694
0.062036
0.052112
0.042197
0.0322905
0.0223921
0.0125014
0.00261816
-0.00725799
-0.0171273
-0.0269901
-0.0368466
-0.046697
-0.0565416
-0.0663806
-0.0762142
-0.0860427
-0.0958662
-0.105685
-0.1155
-0.12531
-0.135116
-0.144919
-0.154718
-0.164515
-0.174309
0.174309
1.13562
1.13562
1.10183
1.06292
1.02446
0.988186
0.955018
0.925195
0.898499
0.874475
0.852614
0.832454
0.813617
0.795812
0.778832
0.76252
0.746762
0.731477
0.716605
0.702093
0.687903
0.674007
0.660378
0.646991
0.633828
0.620872
0.608107
0.595521
0.583099
0.57083
0.558707
0.546717
0.534853
0.523107
0.511472
0.499941
0.488508
0.477166
0.465912
0.454738
0.443642
0.432618
0.421663
0.410772
0.399942
0.38917
0.378452
0.367785
0.357167
0.346595
0.336067
0.32558
0.315131
0.30472
0.294343
0.283999
0.273687
0.263404
0.253149
0.24292
0.232717
0.222537
0.21238
0.202244
0.192128
0.182031
0.171952
0.161891
0.151845
0.141815
0.1318
0.121798
0.111809
0.101832
0.0918676
0.0819137
0.0719704
0.0620369
0.0521129
0.0421978
0.0322913
0.0223928
0.0125021
0.00261883
-0.00725737
-0.0171267
-0.0269896
-0.0368461
-0.0466966
-0.0565412
-0.0663802
-0.0762139
-0.0860424
-0.0958659
-0.105685
-0.115499
-0.12531
-0.135116
-0.144919
-0.154718
-0.164514
-0.174305
0.174305
1.12605
1.12605
1.09934
1.06303
1.02541
0.989381
0.956194
0.926231
0.899353
0.875148
0.853131
0.832849
0.813919
0.796047
0.779018
0.76267
0.746885
0.731581
0.716692
0.702168
0.68797
0.674066
0.660429
0.647037
0.63387
0.620909
0.608141
0.595551
0.583126
0.570856
0.55873
0.546738
0.534872
0.523125
0.511489
0.499957
0.488522
0.477179
0.465924
0.45475
0.443653
0.432628
0.421672
0.41078
0.39995
0.389177
0.378459
0.367792
0.357173
0.346601
0.336072
0.325585
0.315136
0.304724
0.294347
0.284003
0.273691
0.263408
0.253152
0.242924
0.23272
0.22254
0.212382
0.202246
0.19213
0.182033
0.171955
0.161893
0.151847
0.141817
0.131801
0.121799
0.11181
0.101834
0.0918689
0.081915
0.0719716
0.0620381
0.052114
0.0421988
0.0322922
0.0223937
0.012503
0.00261963
-0.0072566
-0.017126
-0.0269889
-0.0368455
-0.046696
-0.0565406
-0.0663797
-0.0762134
-0.0860419
-0.0958655
-0.105684
-0.115499
-0.125309
-0.135116
-0.144919
-0.154717
-0.164513
-0.174299
0.174299
1.12073
1.12073
1.09772
1.06305
1.026
0.990148
0.956963
0.926921
0.89993
0.875611
0.853496
0.833134
0.814141
0.796224
0.779161
0.762787
0.746984
0.731666
0.716766
0.702232
0.688027
0.674117
0.660475
0.647078
0.633906
0.620943
0.608172
0.595579
0.583151
0.570879
0.558751
0.546758
0.534891
0.523142
0.511504
0.499971
0.488535
0.477192
0.465935
0.45476
0.443663
0.432637
0.42168
0.410788
0.399958
0.389184
0.378465
0.367798
0.357179
0.346607
0.336078
0.32559
0.315141
0.304729
0.294351
0.284007
0.273694
0.263411
0.253155
0.242927
0.232723
0.222543
0.212385
0.202249
0.192133
0.182036
0.171957
0.161895
0.151849
0.141819
0.131803
0.121801
0.111812
0.101835
0.0918702
0.0819162
0.0719727
0.0620391
0.052115
0.0421998
0.0322932
0.0223946
0.0125038
0.00262044
-0.00725584
-0.0171253
-0.0269882
-0.0368448
-0.0466953
-0.05654
-0.0663791
-0.0762128
-0.0860414
-0.095865
-0.105684
-0.115499
-0.125309
-0.135115
-0.144918
-0.154717
-0.164511
-0.174291
0.174291
1.11903
1.11903
1.09717
1.06306
1.02622
0.990421
0.957236
0.927167
0.900137
0.875778
0.853629
0.833238
0.814224
0.79629
0.779215
0.762833
0.747023
0.731699
0.716795
0.702258
0.68805
0.674137
0.660494
0.647095
0.633922
0.620957
0.608184
0.595591
0.583162
0.570889
0.55876
0.546766
0.534899
0.523149
0.511511
0.499977
0.488541
0.477197
0.46594
0.454765
0.443667
0.432641
0.421684
0.410792
0.399961
0.389187
0.378468
0.367801
0.357182
0.346609
0.33608
0.325592
0.315143
0.304731
0.294353
0.284009
0.273696
0.263412
0.253157
0.242928
0.232724
0.222544
0.212386
0.20225
0.192134
0.182036
0.171957
0.161896
0.15185
0.141819
0.131804
0.121802
0.111813
0.101836
0.0918707
0.0819167
0.0719732
0.0620396
0.0521155
0.0422002
0.0322936
0.022395
0.0125042
0.00262079
-0.00725549
-0.017125
-0.0269879
-0.0368445
-0.046695
-0.0565398
-0.0663789
-0.0762126
-0.0860412
-0.0958648
-0.105684
-0.115498
-0.125309
-0.135115
-0.144918
-0.154717
-0.16451
-0.174288
0.174288
1.12073
1.12073
1.09771
1.06305
1.026
0.990147
0.956963
0.926922
0.89993
0.875611
0.853496
0.833134
0.814141
0.796224
0.779161
0.762787
0.746984
0.731666
0.716765
0.702232
0.688027
0.674117
0.660475
0.647078
0.633906
0.620943
0.608172
0.595579
0.583151
0.570879
0.558751
0.546758
0.534891
0.523142
0.511504
0.499971
0.488535
0.477192
0.465935
0.45476
0.443663
0.432637
0.421681
0.410788
0.399957
0.389184
0.378465
0.367798
0.357179
0.346607
0.336078
0.32559
0.315141
0.304729
0.294351
0.284007
0.273694
0.263411
0.253155
0.242927
0.232723
0.222543
0.212385
0.202249
0.192133
0.182036
0.171957
0.161895
0.151849
0.141819
0.131803
0.121801
0.111812
0.101835
0.0918702
0.0819162
0.0719727
0.0620391
0.052115
0.0421998
0.0322932
0.0223946
0.0125038
0.00262044
-0.00725584
-0.0171253
-0.0269882
-0.0368448
-0.0466953
-0.05654
-0.0663791
-0.0762128
-0.0860414
-0.095865
-0.105684
-0.115499
-0.125309
-0.135115
-0.144918
-0.154717
-0.164511
-0.174291
0.174291
1.12605
1.12605
1.09934
1.06303
1.02541
0.98938
0.956194
0.926233
0.899352
0.875147
0.853132
0.83285
0.813918
0.796047
0.779018
0.762669
0.746885
0.731581
0.716692
0.702168
0.68797
0.674066
0.660429
0.647037
0.633869
0.620909
0.608141
0.595551
0.583126
0.570856
0.55873
0.546738
0.534872
0.523125
0.511489
0.499956
0.488522
0.47718
0.465924
0.45475
0.443653
0.432628
0.421672
0.41078
0.39995
0.389177
0.378459
0.367792
0.357173
0.346601
0.336072
0.325585
0.315136
0.304724
0.294347
0.284003
0.273691
0.263407
0.253152
0.242924
0.23272
0.22254
0.212383
0.202246
0.19213
0.182033
0.171955
0.161893
0.151847
0.141817
0.131801
0.121799
0.11181
0.101834
0.0918689
0.081915
0.0719716
0.0620381
0.052114
0.0421988
0.0322922
0.0223937
0.012503
0.00261963
-0.0072566
-0.017126
-0.0269889
-0.0368455
-0.046696
-0.0565406
-0.0663797
-0.0762134
-0.0860419
-0.0958655
-0.105684
-0.115499
-0.125309
-0.135116
-0.144919
-0.154717
-0.164513
-0.174299
0.174299
1.13562
1.13562
1.10183
1.06292
1.02446
0.988186
0.955018
0.925196
0.898498
0.874474
0.852615
0.832455
0.813616
0.795813
0.778833
0.76252
0.746762
0.731478
0.716604
0.702092
0.687904
0.674007
0.660378
0.646991
0.633828
0.620872
0.608107
0.59552
0.583098
0.570831
0.558707
0.546717
0.534853
0.523107
0.511472
0.499941
0.488508
0.477167
0.465912
0.454738
0.443642
0.432618
0.421663
0.410772
0.399942
0.38917
0.378452
0.367785
0.357167
0.346595
0.336067
0.32558
0.315131
0.30472
0.294343
0.283999
0.273687
0.263404
0.253149
0.24292
0.232717
0.222537
0.21238
0.202244
0.192128
0.182031
0.171952
0.161891
0.151845
0.141815
0.1318
0.121798
0.111809
0.101832
0.0918676
0.0819137
0.0719704
0.0620369
0.0521129
0.0421978
0.0322913
0.0223928
0.0125021
0.00261883
-0.00725736
-0.0171267
-0.0269896
-0.0368461
-0.0466966
-0.0565412
-0.0663802
-0.0762139
-0.0860424
-0.0958659
-0.105685
-0.115499
-0.12531
-0.135116
-0.144919
-0.154718
-0.164514
-0.174305
0.174305
1.1506
1.1506
1.10471
1.06269
1.02334
0.986861
0.953757
0.924118
0.897637
0.873816
0.852123
0.832089
0.813344
0.795608
0.778675
0.762394
0.746661
0.731394
0.716533
0.702031
0.68785
0.673961
0.660336
0.646954
0.633795
0.620842
0.60808
0.595495
0.583076
0.57081
0.558688
0.546699
0.534837
0.523093
0.511459
0.499929
0.488496
0.477156
0.465902
0.454729
0.443633
0.43261
0.421655
0.410765
0.399935
0.389163
0.378446
0.36778
0.357162
0.346591
0.336062
0.325575
0.315127
0.304716
0.29434
0.283996
0.273684
0.263401
0.253146
0.242918
0.232714
0.222535
0.212378
0.202242
0.192126
0.182029
0.171951
0.161889
0.151844
0.141814
0.131798
0.121796
0.111808
0.101831
0.0918664
0.0819126
0.0719693
0.062036
0.052112
0.042197
0.0322905
0.0223921
0.0125014
0.00261816
-0.00725799
-0.0171273
-0.0269901
-0.0368466
-0.046697
-0.0565416
-0.0663806
-0.0762142
-0.0860427
-0.0958662
-0.105685
-0.1155
-0.12531
-0.135116
-0.144919
-0.154718
-0.164515
-0.174309
0.174309
1.17154
1.17154
1.1067
1.06246
1.02264
0.986066
0.953014
0.923486
0.897129
0.873421
0.851819
0.831856
0.813162
0.795464
0.778557
0.762297
0.746578
0.731323
0.716471
0.701976
0.687801
0.673916
0.660296
0.646917
0.633761
0.620811
0.608052
0.595469
0.583052
0.570788
0.558667
0.54668
0.534819
0.523076
0.511443
0.499914
0.488483
0.477143
0.46589
0.454718
0.443623
0.4326
0.421646
0.410756
0.399927
0.389155
0.378438
0.367773
0.357156
0.346584
0.336057
0.32557
0.315122
0.304711
0.294335
0.283992
0.27368
0.263397
0.253142
0.242914
0.232711
0.222532
0.212375
0.202239
0.192123
0.182027
0.171948
0.161887
0.151842
0.141812
0.131796
0.121795
0.111806
0.10183
0.0918649
0.0819112
0.071968
0.0620347
0.0521108
0.0421958
0.0322894
0.0223911
0.0125005
0.00261728
-0.0072588
-0.0171281
-0.0269908
-0.0368472
-0.0466976
-0.0565421
-0.0663811
-0.0762146
-0.086043
-0.0958665
-0.105685
-0.1155
-0.12531
-0.135116
-0.144919
-0.154718
-0.164515
-0.174309
0.174309
1.17154
1.17154
1.1067
1.06246
1.02264
0.986066
0.953014
0.923486
0.897129
0.873421
0.851819
0.831856
0.813162
0.795464
0.778557
0.762297
0.746578
0.731323
0.716471
0.701976
0.687801
0.673916
0.660296
0.646917
0.633761
0.620811
0.608052
0.595469
0.583052
0.570788
0.558667
0.54668
0.534819
0.523076
0.511443
0.499914
0.488483
0.477143
0.46589
0.454718
0.443623
0.4326
0.421646
0.410756
0.399927
0.389155
0.378438
0.367773
0.357156
0.346584
0.336057
0.32557
0.315122
0.304711
0.294335
0.283992
0.27368
0.263397
0.253142
0.242914
0.232711
0.222532
0.212375
0.202239
0.192123
0.182027
0.171948
0.161887
0.151842
0.141812
0.131796
0.121795
0.111806
0.10183
0.0918649
0.0819112
0.071968
0.0620347
0.0521108
0.0421958
0.0322894
0.0223911
0.0125005
0.00261728
-0.0072588
-0.0171281
-0.0269908
-0.0368472
-0.0466976
-0.0565421
-0.0663811
-0.0762146
-0.086043
-0.0958665
-0.105685
-0.1155
-0.12531
-0.135116
-0.144919
-0.154718
-0.164515
-0.174309
0.174309
SCALARS phi double
LOOKUP_TABLE phi
1
1
1
1
0.999999
0.999994
0.999983
0.999958
0.99991
0.99983
0.999706
0.999526
0.999278
0.998952
0.998537
0.998024
0.997407
0.996679
0.995834
0.99487
0.993783
0.992574
0.991241
0.989786
0.988211
0.986518
0.984711
0.98279
0.980752
0.978585
0.976268
0.973766
0.971032
0.968007
0.964623
0.960806
0.956481
0.951575
0.946021
0.939759
0.932743
0.924934
0.91631
0.906858
0.896579
0.885485
0.873599
0.860951
0.84758
0.833531
0.818855
0.803604
0.787834
0.771603
0.754968
0.737987
0.720716
0.703209
0.685519
0.667695
0.649786
0.631836
0.613886
0.595974
0.578137
0.560407
0.542814
0.525385
0.508144
0.491113
0.474311
0.457755
0.441461
0.42544
0.409704
0.394262
0.379123
0.364291
0.349771
0.335568
0.321684
0.30812
0.294877
0.281955
0.269352
0.257068
0.2451
0.233446
0.222104
0.21107
0.200342
0.189916
0.179791
0.169961
0.160426
0.15118
0.142229
0.133547
0.125207
0.116958
0.109671
0.100221
0.100221
1
1
1
1
0.999999
0.999994
0.999983
0.999958
0.99991
0.99983
0.999706
0.999526
0.999278
0.998952
0.998537
0.998024
0.997407
0.996679
0.995834
0.99487
0.993783
0.992574
0.991241
0.989786
0.988211
0.986518
0.984711
0.98279
0.980752
0.978585
0.976268
0.973766
0.971032
0.968007
0.964623
0.960806
0.956481
0.951575
0.946021
0.939759
0.932743
0.924934
0.91631
0.906858
0.896579
0.885485
0.873599
0.860951
0.84758
0.833531
0.818855
0.803604
0.787834
0.771603
0.754968
0.737987
0.720716
0.703209
0.685519
0.667695
0.649786
0.631836
0.613886
0.595974
0.578137
0.560407
0.542814
0.525385
0.508144
0.491113
0.474311
0.457755
0.441461
0.42544
0.409704
0.394262
0.379123
0.364291
0.349771
0.335568
0.321684
0.30812
0.294877
0.281955
0.269352
0.257068
0.2451
0.233446
0.222104
0.21107
0.200342
0.189916
0.179791
0.169961
0.160426
0.15118
0.142229
0.133547
0.125207
0.116958
0.109671
0.100221
0.100221
1
1
1
0.999996
0.999983
0.999954
0.999898
0.999804
0.999658
0.999447
0.999157
0.998778
0.9983
0.997714
0.997015
0.996196
0.995256
0.994192
0.993003
0.991689
0.990252
0.988694
0.987017
0.985224
0.983319
0.981307
0.979193
0.97698
0.974672
0.97227
0.969773
0.967172
0.964454
0.961595
0.958568
0.955333
0.951848
0.948063
0.943929
0.939394
0.934407
0.928922
0.922897
0.916297
0.909094
0.901267
0.892804
0.883701
0.87396
0.863592
0.852614
0.841048
0.828921
0.816265
0.803116
0.78951
0.775487
0.761087
0.746352
0.731322
0.716039
0.700543
0.684871
0.669063
0.653154
0.637178
0.621167
0.605152
0.589163
0.573224
0.557362
0.541598
0.525954
0.510449
0.495099
0.479922
0.464929
0.450135
0.435549
0.421182
0.407041
0.393133
0.379464
0.36604
0.352862
0.339934
0.327258
0.314834
0.302662
0.290741
0.279071
0.267649
0.256472
0.245537
0.234842
0.224379
0.214156
0.204132
0.194422
0.184624
0.176065
0.164271
0.164271
0.999997
1
0.99998
0.999897
0.999724
0.999434
0.998999
0.998397
0.997613
0.996636
0.995464
0.994099
0.992547
0.990816
0.988917
0.986859
0.984656
0.982317
0.979854
0.977278
0.974599
0.971826
0.968969
0.966037
0.963037
0.959976
0.956863
0.953702
0.9505
0.947262
0.943991
0.940691
0.93736
0.933997
0.930596
0.927147
0.923636
0.920046
0.916355
0.912539
0.90857
0.904419
0.900055
0.895448
0.890568
0.885385
0.879875
0.874013
0.867779
0.861157
0.854134
0.846701
0.838854
0.830592
0.821919
0.812839
0.803364
0.793505
0.783279
0.772701
0.761791
0.75057
0.739059
0.727281
0.71526
0.703018
0.69058
0.677968
0.665207
0.652319
0.639326
0.62625
0.613111
0.59993
0.586725
0.573515
0.560317
0.547146
0.534018
0.520946
0.507945
0.495025
0.482198
0.469473
0.45686
0.444366
0.431998
0.419761
0.407661
0.395701
0.383883
0.37221
0.360681
0.349296
0.338056
0.326951
0.315997
0.305134
0.294526
0.283631
0.274156
0.260592
0.260592
0.999999
1
0.99943
0.998224
0.996402
0.994008
0.991093
0.987716
0.983939
0.979828
0.975446
0.970853
0.966103
0.961239
0.9563
0.951318
0.946318
0.94132
0.936342
0.931396
0.926494
0.921643
0.91685
0.91212
0.907457
0.902862
0.898338
0.893885
0.889505
0.885196
0.880959
0.876793
0.872695