# vtk DataFile Version 3.0
FlowField
ASCII
DATASET STRUCTURED_GRID
DIMENSIONS 103 13 1 
POINTS 1339 double
0 0 0
0.3 0 0
0.6 0 0
0.9 0 0
1.2 0 0
1.5 0 0
1.8 0 0
2.1 0 0
2.4 0 0
2.7 0 0
3 0 0
3.3 0 0
3.6 0 0
3.9 0 0
4.2 0 0
4.5 0 0
4.8 0 0
5.1 0 0
5.4 0 0
5.7 0 0
6 0 0
6.3 0 0
6.6 0 0
6.9 0 0
7.2 0 0
7.5 0 0
7.8 0 0
8.1 0 0
8.4 0 0
8.7 0 0
9 0 0
9.3 0 0
9.6 0 0
9.9 0 0
10.2 0 0
10.5 0 0
10.8 0 0
11.1 0 0
11.4 0 0
11.7 0 0
12 0 0
12.3 0 0
12.6 0 0
12.9 0 0
13.2 0 0
13.5 0 0
13.8 0 0
14.1 0 0
14.4 0 0
14.7 0 0
15 0 0
15.3 0 0
15.6 0 0
15.9 0 0
16.2 0 0
16.5 0 0
16.8 0 0
17.1 0 0
17.4 0 0
17.7 0 0
18 0 0
18.3 0 0
18.6 0 0
18.9 0 0
19.2 0 0
19.5 0 0
19.8 0 0
20.1 0 0
20.4 0 0
20.7 0 0
21 0 0
21.3 0 0
21.6 0 0
21.9 0 0
22.2 0 0
22.5 0 0
22.8 0 0
23.1 0 0
23.4 0 0
23.7 0 0
24 0 0
24.3 0 0
24.6 0 0
24.9 0 0
25.2 0 0
25.5 0 0
25.8 0 0
26.1 0 0
26.4 0 0
26.7 0 0
27 0 0
27.3 0 0
27.6 0 0
27.9 0 0
28.2 0 0
28.5 0 0
28.8 0 0
29.1 0 0
29.4 0 0
29.7 0 0
30 0 0
30.3 0 0
30.6 0 0
0 0.1 0
0.3 0.1 0
0.6 0.1 0
0.9 0.1 0
1.2 0.1 0
1.5 0.1 0
1.8 0.1 0
2.1 0.1 0
2.4 0.1 0
2.7 0.1 0
3 0.1 0
3.3 0.1 0
3.6 0.1 0
3.9 0.1 0
4.2 0.1 0
4.5 0.1 0
4.8 0.1 0
5.1 0.1 0
5.4 0.1 0
5.7 0.1 0
6 0.1 0
6.3 0.1 0
6.6 0.1 0
6.9 0.1 0
7.2 0.1 0
7.5 0.1 0
7.8 0.1 0
8.1 0.1 0
8.4 0.1 0
8.7 0.1 0
9 0.1 0
9.3 0.1 0
9.6 0.1 0
9.9 0.1 0
10.2 0.1 0
10.5 0.1 0
10.8 0.1 0
11.1 0.1 0
11.4 0.1 0
11.7 0.1 0
12 0.1 0
12.3 0.1 0
12.6 0.1 0
12.9 0.1 0
13.2 0.1 0
13.5 0.1 0
13.8 0.1 0
14.1 0.1 0
14.4 0.1 0
14.7 0.1 0
15 0.1 0
15.3 0.1 0
15.6 0.1 0
15.9 0.1 0
16.2 0.1 0
16.5 0.1 0
16.8 0.1 0
17.1 0.1 0
17.4 0.1 0
17.7 0.1 0
18 0.1 0
18.3 0.1 0
18.6 0.1 0
18.9 0.1 0
19.2 0.1 0
19.5 0.1 0
19.8 0.1 0
20.1 0.1 0
20.4 0.1 0
20.7 0.1 0
21 0.1 0
21.3 0.1 0
21.6 0.1 0
21.9 0.1 0
22.2 0.1 0
22.5 0.1 0
22.8 0.1 0
23.1 0.1 0
23.4 0.1 0
23.7 0.1 0
24 0.1 0
24.3 0.1 0
24.6 0.1 0
24.9 0.1 0
25.2 0.1 0
25.5 0.1 0
25.8 0.1 0
26.1 0.1 0
26.4 0.1 0
26.7 0.1 0
27 0.1 0
27.3 0.1 0
27.6 0.1 0
27.9 0.1 0
28.2 0.1 0
28.5 0.1 0
28.8 0.1 0
29.1 0.1 0
29.4 0.1 0
29.7 0.1 0
30 0.1 0
30.3 0.1 0
30.6 0.1 0
0 0.2 0
0.3 0.2 0
0.6 0.2 0
0.9 0.2 0
1.2 0.2 0
1.5 0.2 0
1.8 0.2 0
2.1 0.2 0
2.4 0.2 0
2.7 0.2 0
3 0.2 0
3.3 0.2 0
3.6 0.2 0
3.9 0.2 0
4.2 0.2 0
4.5 0.2 0
4.8 0.2 0
5.1 0.2 0
5.4 0.2 0
5.7 0.2 0
6 0.2 0
6.3 0.2 0
6.6 0.2 0
6.9 0.2 0
7.2 0.2 0
7.5 0.2 0
7.8 0.2 0
8.1 0.2 0
8.4 0.2 0
8.7 0.2 0
9 0.2 0
9.3 0.2 0
9.6 0.2 0
9.9 0.2 0
10.2 0.2 0
10.5 0.2 0
10.8 0.2 0
11.1 0.2 0
11.4 0.2 0
11.7 0.2 0
12 0.2 0
12.3 0.2 0
12.6 0.2 0
12.9 0.2 0
13.2 0.2 0
13.5 0.2 0
13.8 0.2 0
14.1 0.2 0
14.4 0.2 0
14.7 0.2 0
15 0.2 0
15.3 0.2 0
15.6 0.2 0
15.9 0.2 0
16.2 0.2 0
16.5 0.2 0
16.8 0.2 0
17.1 0.2 0
17.4 0.2 0
17.7 0.2 0
18 0.2 0
18.3 0.2 0
18.6 0.2 0
18.9 0.2 0
19.2 0.2 0
19.5 0.2 0
19.8 0.2 0
20.1 0.2 0
20.4 0.2 0
20.7 0.2 0
21 0.2 0
21.3 0.2 0
21.6 0.2 0
21.9 0.2 0
22.2 0.2 0
22.5 0.2 0
22.8 0.2 0
23.1 0.2 0
23.4 0.2 0
23.7 0.2 0
24 0.2 0
24.3 0.2 0
24.6 0.2 0
24.9 0.2 0
25.2 0.2 0
25.5 0.2 0
25.8 0.2 0
26.1 0.2 0
26.4 0.2 0
26.7 0.2 0
27 0.2 0
27.3 0.2 0
27.6 0.2 0
27.9 0.2 0
28.2 0.2 0
28.5 0.2 0
28.8 0.2 0
29.1 0.2 0
29.4 0.2 0
29.7 0.2 0
30 0.2 0
30.3 0.2 0
30.6 0.2 0
0 0.3 0
0.3 0.3 0
0.6 0.3 0
0.9 0.3 0
1.2 0.3 0
1.5 0.3 0
1.8 0.3 0
2.1 0.3 0
2.4 0.3 0
2.7 0.3 0
3 0.3 0
3.3 0.3 0
3.6 0.3 0
3.9 0.3 0
4.2 0.3 0
4.5 0.3 0
4.8 0.3 0
5.1 0.3 0
5.4 0.3 0
5.7 0.3 0
6 0.3 0
6.3 0.3 0
6.6 0.3 0
6.9 0.3 0
7.2 0.3 0
7.5 0.3 0
7.8 0.3 0
8.1 0.3 0
8.4 0.3 0
8.7 0.3 0
9 0.3 0
9.3 0.3 0
9.6 0.3 0
9.9 0.3 0
10.2 0.3 0
10.5 0.3 0
10.8 0.3 0
11.1 0.3 0
11.4 0.3 0
11.7 0.3 0
12 0.3 0
12.3 0.3 0
12.6 0.3 0
12.9 0.3 0
13.2 0.3 0
13.5 0.3 0
13.8 0.3 0
14.1 0.3 0
14.4 0.3 0
14.7 0.3 0
15 0.3 0
15.3 0.3 0
15.6 0.3 0
15.9 0.3 0
16.2 0.3 0
16.5 0.3 0
16.8 0.3 0
17.1 0.3 0
17.4 0.3 0
17.7 0.3 0
18 0.3 0
18.3 0.3 0
18.6 0.3 0
18.9 0.3 0
19.2 0.3 0
19.5 0.3 0
19.8 0.3 0
20.1 0.3 0
20.4 0.3 0
20.7 0.3 0
21 0.3 0
21.3 0.3 0
21.6 0.3 0
21.9 0.3 0
22.2 0.3 0
22.5 0.3 0
22.8 0.3 0
23.1 0.3 0
23.4 0.3 0
23.7 0.3 0
24 0.3 0
24.3 0.3 0
24.6 0.3 0
24.9 0.3 0
25.2 0.3 0
25.5 0.3 0
25.8 0.3 0
26.1 0.3 0
26.4 0.3 0
26.7 0.3 0
27 0.3 0
27.3 0.3 0
27.6 0.3 0
27.9 0.3 0
28.2 0.3 0
28.5 0.3 0
28.8 0.3 0
29.1 0.3 0
29.4 0.3 0
29.7 0.3 0
30 0.3 0
30.3 0.3 0
30.6 0.3 0
0 0.4 0
0.3 0.4 0
0.6 0.4 0
0.9 0.4 0
1.2 0.4 0
1.5 0.4 0
1.8 0.4 0
2.1 0.4 0
2.4 0.4 0
2.7 0.4 0
3 0.4 0
3.3 0.4 0
3.6 0.4 0
3.9 0.4 0
4.2 0.4 0
4.5 0.4 0
4.8 0.4 0
5.1 0.4 0
5.4 0.4 0
5.7 0.4 0
6 0.4 0
6.3 0.4 0
6.6 0.4 0
6.9 0.4 0
7.2 0.4 0
7.5 0.4 0
7.8 0.4 0
8.1 0.4 0
8.4 0.4 0
8.7 0.4 0
9 0.4 0
9.3 0.4 0
9.6 0.4 0
9.9 0.4 0
10.2 0.4 0
10.5 0.4 0
10.8 0.4 0
11.1 0.4 0
11.4 0.4 0
11.7 0.4 0
12 0.4 0
12.3 0.4 0
12.6 0.4 0
12.9 0.4 0
13.2 0.4 0
13.5 0.4 0
13.8 0.4 0
14.1 0.4 0
14.4 0.4 0
14.7 0.4 0
15 0.4 0
15.3 0.4 0
15.6 0.4 0
15.9 0.4 0
16.2 0.4 0
16.5 0.4 0
16.8 0.4 0
17.1 0.4 0
17.4 0.4 0
17.7 0.4 0
18 0.4 0
18.3 0.4 0
18.6 0.4 0
18.9 0.4 0
19.2 0.4 0
19.5 0.4 0
19.8 0.4 0
20.1 0.4 0
20.4 0.4 0
20.7 0.4 0
21 0.4 0
21.3 0.4 0
21.6 0.4 0
21.9 0.4 0
22.2 0.4 0
22.5 0.4 0
22.8 0.4 0
23.1 0.4 0
23.4 0.4 0
23.7 0.4 0
24 0.4 0
24.3 0.4 0
24.6 0.4 0
24.9 0.4 0
25.2 0.4 0
25.5 0.4 0
25.8 0.4 0
26.1 0.4 0
26.4 0.4 0
26.7 0.4 0
27 0.4 0
27.3 0.4 0
27.6 0.4 0
27.9 0.4 0
28.2 0.4 0
28.5 0.4 0
28.8 0.4 0
29.1 0.4 0
29.4 0.4 0
29.7 0.4 0
30 0.4 0
30.3 0.4 0
30.6 0.4 0
0 0.5 0
0.3 0.5 0
0.6 0.5 0
0.9 0.5 0
1.2 0.5 0
1.5 0.5 0
1.8 0.5 0
2.1 0.5 0
2.4 0.5 0
2.7 0.5 0
3 0.5 0
3.3 0.5 0
3.6 0.5 0
3.9 0.5 0
4.2 0.5 0
4.5 0.5 0
4.8 0.5 0
5.1 0.5 0
5.4 0.5 0
5.7 0.5 0
6 0.5 0
6.3 0.5 0
6.6 0.5 0
6.9 0.5 0
7.2 0.5 0
7.5 0.5 0
7.8 0.5 0
8.1 0.5 0
8.4 0.5 0
8.7 0.5 0
9 0.5 0
9.3 0.5 0
9.6 0.5 0
9.9 0.5 0
10.2 0.5 0
10.5 0.5 0
10.8 0.5 0
11.1 0.5 0
11.4 0.5 0
11.7 0.5 0
12 0.5 0
12.3 0.5 0
12.6 0.5 0
12.9 0.5 0
13.2 0.5 0
13.5 0.5 0
13.8 0.5 0
14.1 0.5 0
14.4 0.5 0
14.7 0.5 0
15 0.5 0
15.3 0.5 0
15.6 0.5 0
15.9 0.5 0
16.2 0.5 0
16.5 0.5 0
16.8 0.5 0
17.1 0.5 0
17.4 0.5 0
17.7 0.5 0
18 0.5 0
18.3 0.5 0
18.6 0.5 0
18.9 0.5 0
19.2 0.5 0
19.5 0.5 0
19.8 0.5 0
20.1 0.5 0
20.4 0.5 0
20.7 0.5 0
21 0.5 0
21.3 0.5 0
21.6 0.5 0
21.9 0.5 0
22.2 0.5 0
22.5 0.5 0
22.8 0.5 0
23.1 0.5 0
23.4 0.5 0
23.7 0.5 0
24 0.5 0
24.3 0.5 0
24.6 0.5 0
24.9 0.5 0
25.2 0.5 0
25.5 0.5 0
25.8 0.5 0
26.1 0.5 0
26.4 0.5 0
26.7 0.5 0
27 0.5 0
27.3 0.5 0
27.6 0.5 0
27.9 0.5 0
28.2 0.5 0
28.5 0.5 0
28.8 0.5 0
29.1 0.5 0
29.4 0.5 0
29.7 0.5 0
30 0.5 0
30.3 0.5 0
30.6 0.5 0
0 0.6 0
0.3 0.6 0
0.6 0.6 0
0.9 0.6 0
1.2 0.6 0
1.5 0.6 0
1.8 0.6 0
2.1 0.6 0
2.4 0.6 0
2.7 0.6 0
3 0.6 0
3.3 0.6 0
3.6 0.6 0
3.9 0.6 0
4.2 0.6 0
4.5 0.6 0
4.8 0.6 0
5.1 0.6 0
5.4 0.6 0
5.7 0.6 0
6 0.6 0
6.3 0.6 0
6.6 0.6 0
6.9 0.6 0
7.2 0.6 0
7.5 0.6 0
7.8 0.6 0
8.1 0.6 0
8.4 0.6 0
8.7 0.6 0
9 0.6 0
9.3 0.6 0
9.6 0.6 0
9.9 0.6 0
10.2 0.6 0
10.5 0.6 0
10.8 0.6 0
11.1 0.6 0
11.4 0.6 0
11.7 0.6 0
12 0.6 0
12.3 0.6 0
12.6 0.6 0
12.9 0.6 0
13.2 0.6 0
13.5 0.6 0
13.8 0.6 0
14.1 0.6 0
14.4 0.6 0
14.7 0.6 0
15 0.6 0
15.3 0.6 0
15.6 0.6 0
15.9 0.6 0
16.2 0.6 0
16.5 0.6 0
16.8 0.6 0
17.1 0.6 0
17.4 0.6 0
17.7 0.6 0
18 0.6 0
18.3 0.6 0
18.6 0.6 0
18.9 0.6 0
19.2 0.6 0
19.5 0.6 0
19.8 0.6 0
20.1 0.6 0
20.4 0.6 0
20.7 0.6 0
21 0.6 0
21.3 0.6 0
21.6 0.6 0
21.9 0.6 0
22.2 0.6 0
22.5 0.6 0
22.8 0.6 0
23.1 0.6 0
23.4 0.6 0
23.7 0.6 0
24 0.6 0
24.3 0.6 0
24.6 0.6 0
24.9 0.6 0
25.2 0.6 0
25.5 0.6 0
25.8 0.6 0
26.1 0.6 0
26.4 0.6 0
26.7 0.6 0
27 0.6 0
27.3 0.6 0
27.6 0.6 0
27.9 0.6 0
28.2 0.6 0
28.5 0.6 0
28.8 0.6 0
29.1 0.6 0
29.4 0.6 0
29.7 0.6 0
30 0.6 0
30.3 0.6 0
30.6 0.6 0
0 0.7 0
0.3 0.7 0
0.6 0.7 0
0.9 0.7 0
1.2 0.7 0
1.5 0.7 0
1.8 0.7 0
2.1 0.7 0
2.4 0.7 0
2.7 0.7 0
3 0.7 0
3.3 0.7 0
3.6 0.7 0
3.9 0.7 0
4.2 0.7 0
4.5 0.7 0
4.8 0.7 0
5.1 0.7 0
5.4 0.7 0
5.7 0.7 0
6 0.7 0
6.3 0.7 0
6.6 0.7 0
6.9 0.7 0
7.2 0.7 0
7.5 0.7 0
7.8 0.7 0
8.1 0.7 0
8.4 0.7 0
8.7 0.7 0
9 0.7 0
9.3 0.7 0
9.6 0.7 0
9.9 0.7 0
10.2 0.7 0
10.5 0.7 0
10.8 0.7 0
11.1 0.7 0
11.4 0.7 0
11.7 0.7 0
12 0.7 0
12.3 0.7 0
12.6 0.7 0
12.9 0.7 0
13.2 0.7 0
13.5 0.7 0
13.8 0.7 0
14.1 0.7 0
14.4 0.7 0
14.7 0.7 0
15 0.7 0
15.3 0.7 0
15.6 0.7 0
15.9 0.7 0
16.2 0.7 0
16.5 0.7 0
16.8 0.7 0
17.1 0.7 0
17.4 0.7 0
17.7 0.7 0
18 0.7 0
18.3 0.7 0
18.6 0.7 0
18.9 0.7 0
19.2 0.7 0
19.5 0.7 0
19.8 0.7 0
20.1 0.7 0
20.4 0.7 0
20.7 0.7 0
21 0.7 0
21.3 0.7 0
21.6 0.7 0
21.9 0.7 0
22.2 0.7 0
22.5 0.7 0
22.8 0.7 0
23.1 0.7 0
23.4 0.7 0
23.7 0.7 0
24 0.7 0
24.3 0.7 0
24.6 0.7 0
24.9 0.7 0
25.2 0.7 0
25.5 0.7 0
25.8 0.7 0
26.1 0.7 0
26.4 0.7 0
26.7 0.7 0
27 0.7 0
27.3 0.7 0
27.6 0.7 0
27.9 0.7 0
28.2 0.7 0
28.5 0.7 0
28.8 0.7 0
29.1 0.7 0
29.4 0.7 0
29.7 0.7 0
30 0.7 0
30.3 0.7 0
30.6 0.7 0
0 0.8 0
0.3 0.8 0
0.6 0.8 0
0.9 0.8 0
1.2 0.8 0
1.5 0.8 0
1.8 0.8 0
2.1 0.8 0
2.4 0.8 0
2.7 0.8 0
3 0.8 0
3.3 0.8 0
3.6 0.8 0
3.9 0.8 0
4.2 0.8 0
4.5 0.8 0
4.8 0.8 0
5.1 0.8 0
5.4 0.8 0
5.7 0.8 0
6 0.8 0
6.3 0.8 0
6.6 0.8 0
6.9 0.8 0
7.2 0.8 0
7.5 0.8 0
7.8 0.8 0
8.1 0.8 0
8.4 0.8 0
8.7 0.8 0
9 0.8 0
9.3 0.8 0
9.6 0.8 0
9.9 0.8 0
10.2 0.8 0
10.5 0.8 0
10.8 0.8 0
11.1 0.8 0
11.4 0.8 0
11.7 0.8 0
12 0.8 0
12.3 0.8 0
12.6 0.8 0
12.9 0.8 0
13.2 0.8 0
13.5 0.8 0
13.8 0.8 0
14.1 0.8 0
14.4 0.8 0
14.7 0.8 0
15 0.8 0
15.3 0.8 0
15.6 0.8 0
15.9 0.8 0
16.2 0.8 0
16.5 0.8 0
16.8 0.8 0
17.1 0.8 0
17.4 0.8 0
17.7 0.8 0
18 0.8 0
18.3 0.8 0
18.6 0.8 0
18.9 0.8 0
19.2 0.8 0
19.5 0.8 0
19.8 0.8 0
20.1 0.8 0
20.4 0.8 0
20.7 0.8 0
21 0.8 0
21.3 0.8 0
21.6 0.8 0
21.9 0.8 0
22.2 0.8 0
22.5 0.8 0
22.8 0.8 0
23.1 0.8 0
23.4 0.8 0
23.7 0.8 0
24 0.8 0
24.3 0.8 0
24.6 0.8 0
24.9 0.8 0
25.2 0.8 0
25.5 0.8 0
25.8 0.8 0
26.1 0.8 0
26.4 0.8 0
26.7 0.8 0
27 0.8 0
27.3 0.8 0
27.6 0.8 0
27.9 0.8 0
28.2 0.8 0
28.5 0.8 0
28.8 0.8 0
29.1 0.8 0
29.4 0.8 0
29.7 0.8 0
30 0.8 0
30.3 0.8 0
30.6 0.8 0
0 0.9 0
0.3 0.9 0
0.6 0.9 0
0.9 0.9 0
1.2 0.9 0
1.5 0.9 0
1.8 0.9 0
2.1 0.9 0
2.4 0.9 0
2.7 0.9 0
3 0.9 0
3.3 0.9 0
3.6 0.9 0
3.9 0.9 0
4.2 0.9 0
4.5 0.9 0
4.8 0.9 0
5.1 0.9 0
5.4 0.9 0
5.7 0.9 0
6 0.9 0
6.3 0.9 0
6.6 0.9 0
6.9 0.9 0
7.2 0.9 0
7.5 0.9 0
7.8 0.9 0
8.1 0.9 0
8.4 0.9 0
8.7 0.9 0
9 0.9 0
9.3 0.9 0
9.6 0.9 0
9.9 0.9 0
10.2 0.9 0
10.5 0.9 0
10.8 0.9 0
11.1 0.9 0
11.4 0.9 0
11.7 0.9 0
12 0.9 0
12.3 0.9 0
12.6 0.9 0
12.9 0.9 0
13.2 0.9 0
13.5 0.9 0
13.8 0.9 0
14.1 0.9 0
14.4 0.9 0
14.7 0.9 0
15 0.9 0
15.3 0.9 0
15.6 0.9 0
15.9 0.9 0
16.2 0.9 0
16.5 0.9 0
16.8 0.9 0
17.1 0.9 0
17.4 0.9 0
17.7 0.9 0
18 0.9 0
18.3 0.9 0
18.6 0.9 0
18.9 0.9 0
19.2 0.9 0
19.5 0.9 0
19.8 0.9 0
20.1 0.9 0
20.4 0.9 0
20.7 0.9 0
21 0.9 0
21.3 0.9 0
21.6 0.9 0
21.9 0.9 0
22.2 0.9 0
22.5 0.9 0
22.8 0.9 0
23.1 0.9 0
23.4 0.9 0
23.7 0.9 0
24 0.9 0
24.3 0.9 0
24.6 0.9 0
24.9 0.9 0
25.2 0.9 0
25.5 0.9 0
25.8 0.9 0
26.1 0.9 0
26.4 0.9 0
26.7 0.9 0
27 0.9 0
27.3 0.9 0
27.6 0.9 0
27.9 0.9 0
28.2 0.9 0
28.5 0.9 0
28.8 0.9 0
29.1 0.9 0
29.4 0.9 0
29.7 0.9 0
30 0.9 0
30.3 0.9 0
30.6 0.9 0
0 1 0
0.3 1 0
0.6 1 0
0.9 1 0
1.2 1 0
1.5 1 0
1.8 1 0
2.1 1 0
2.4 1 0
2.7 1 0
3 1 0
3.3 1 0
3.6 1 0
3.9 1 0
4.2 1 0
4.5 1 0
4.8 1 0
5.1 1 0
5.4 1 0
5.7 1 0
6 1 0
6.3 1 0
6.6 1 0
6.9 1 0
7.2 1 0
7.5 1 0
7.8 1 0
8.1 1 0
8.4 1 0
8.7 1 0
9 1 0
9.3 1 0
9.6 1 0
9.9 1 0
10.2 1 0
10.5 1 0
10.8 1 0
11.1 1 0
11.4 1 0
11.7 1 0
12 1 0
12.3 1 0
12.6 1 0
12.9 1 0
13.2 1 0
13.5 1 0
13.8 1 0
14.1 1 0
14.4 1 0
14.7 1 0
15 1 0
15.3 1 0
15.6 1 0
15.9 1 0
16.2 1 0
16.5 1 0
16.8 1 0
17.1 1 0
17.4 1 0
17.7 1 0
18 1 0
18.3 1 0
18.6 1 0
18.9 1 0
19.2 1 0
19.5 1 0
19.8 1 0
20.1 1 0
20.4 1 0
20.7 1 0
21 1 0
21.3 1 0
21.6 1 0
21.9 1 0
22.2 1 0
22.5 1 0
22.8 1 0
23.1 1 0
23.4 1 0
23.7 1 0
24 1 0
24.3 1 0
24.6 1 0
24.9 1 0
25.2 1 0
25.5 1 0
25.8 1 0
26.1 1 0
26.4 1 0
26.7 1 0
27 1 0
27.3 1 0
27.6 1 0
27.9 1 0
28.2 1 0
28.5 1 0
28.8 1 0
29.1 1 0
29.4 1 0
29.7 1 0
30 1 0
30.3 1 0
30.6 1 0
0 1.1 0
0.3 1.1 0
0.6 1.1 0
0.9 1.1 0
1.2 1.1 0
1.5 1.1 0
1.8 1.1 0
2.1 1.1 0
2.4 1.1 0
2.7 1.1 0
3 1.1 0
3.3 1.1 0
3.6 1.1 0
3.9 1.1 0
4.2 1.1 0
4.5 1.1 0
4.8 1.1 0
5.1 1.1 0
5.4 1.1 0
5.7 1.1 0
6 1.1 0
6.3 1.1 0
6.6 1.1 0
6.9 1.1 0
7.2 1.1 0
7.5 1.1 0
7.8 1.1 0
8.1 1.1 0
8.4 1.1 0
8.7 1.1 0
9 1.1 0
9.3 1.1 0
9.6 1.1 0
9.9 1.1 0
10.2 1.1 0
10.5 1.1 0
10.8 1.1 0
11.1 1.1 0
11.4 1.1 0
11.7 1.1 0
12 1.1 0
12.3 1.1 0
12.6 1.1 0
12.9 1.1 0
13.2 1.1 0
13.5 1.1 0
13.8 1.1 0
14.1 1.1 0
14.4 1.1 0
14.7 1.1 0
15 1.1 0
15.3 1.1 0
15.6 1.1 0
15.9 1.1 0
16.2 1.1 0
16.5 1.1 0
16.8 1.1 0
17.1 1.1 0
17.4 1.1 0
17.7 1.1 0
18 1.1 0
18.3 1.1 0
18.6 1.1 0
18.9 1.1 0
19.2 1.1 0
19.5 1.1 0
19.8 1.1 0
20.1 1.1 0
20.4 1.1 0
20.7 1.1 0
21 1.1 0
21.3 1.1 0
21.6 1.1 0
21.9 1.1 0
22.2 1.1 0
22.5 1.1 0
22.8 1.1 0
23.1 1.1 0
23.4 1.1 0
23.7 1.1 0
24 1.1 0
24.3 1.1 0
24.6 1.1 0
24.9 1.1 0
25.2 1.1 0
25.5 1.1 0
25.8 1.1 0
26.1 1.1 0
26.4 1.1 0
26.7 1.1 0
27 1.1 0
27.3 1.1 0
27.6 1.1 0
27.9 1.1 0
28.2 1.1 0
28.5 1.1 0
28.8 1.1 0
29.1 1.1 0
29.4 1.1 0
29.7 1.1 0
30 1.1 0
30.3 1.1 0
30.6 1.1 0
0 1.2 0
0.3 1.2 0
0.6 1.2 0
0.9 1.2 0
1.2 1.2 0
1.5 1.2 0
1.8 1.2 0
2.1 1.2 0
2.4 1.2 0
2.7 1.2 0
3 1.2 0
3.3 1.2 0
3.6 1.2 0
3.9 1.2 0
4.2 1.2 0
4.5 1.2 0
4.8 1.2 0
5.1 1.2 0
5.4 1.2 0
5.7 1.2 0
6 1.2 0
6.3 1.2 0
6.6 1.2 0
6.9 1.2 0
7.2 1.2 0
7.5 1.2 0
7.8 1.2 0
8.1 1.2 0
8.4 1.2 0
8.7 1.2 0
9 1.2 0
9.3 1.2 0
9.6 1.2 0
9.9 1.2 0
10.2 1.2 0
10.5 1.2 0
10.8 1.2 0
11.1 1.2 0
11.4 1.2 0
11.7 1.2 0
12 1.2 0
12.3 1.2 0
12.6 1.2 0
12.9 1.2 0
13.2 1.2 0
13.5 1.2 0
13.8 1.2 0
14.1 1.2 0
14.4 1.2 0
14.7 1.2 0
15 1.2 0
15.3 1.2 0
15.6 1.2 0
15.9 1.2 0
16.2 1.2 0
16.5 1.2 0
16.8 1.2 0
17.1 1.2 0
17.4 1.2 0
17.7 1.2 0
18 1.2 0
18.3 1.2 0
18.6 1.2 0
18.9 1.2 0
19.2 1.2 0
19.5 1.2 0
19.8 1.2 0
20.1 1.2 0
20.4 1.2 0
20.7 1.2 0
21 1.2 0
21.3 1.2 0
21.6 1.2 0
21.9 1.2 0
22.2 1.2 0
22.5 1.2 0
22.8 1.2 0
23.1 1.2 0
23.4 1.2 0
23.7 1.2 0
24 1.2 0
24.3 1.2 0
24.6 1.2 0
24.9 1.2 0
25.2 1.2 0
25.5 1.2 0
25.8 1.2 0
26.1 1.2 0
26.4 1.2 0
26.7 1.2 0
27 1.2 0
27.3 1.2 0
27.6 1.2 0
27.9 1.2 0
28.2 1.2 0
28.5 1.2 0
28.8 1.2 0
29.1 1.2 0
29.4 1.2 0
29.7 1.2 0
30 1.2 0
30.3 1.2 0
30.6 1.2 0

POINT_DATA 1339

SCALARS pressure double
LOOKUP_TABLE pressure
1.17699
1.17699
1.11215
1.06791
1.02809
0.991511
0.958459
0.928931
0.902575
0.878866
0.857264
0.837301
0.818608
0.800909
0.784002
0.767742
0.752023
0.736768
0.721915
0.70742
0.693246
0.679361
0.66574
0.652361
0.639205
0.626254
0.613494
0.60091
0.588491
0.576228
0.564112
0.552137
0.540298
0.528594
0.517022
0.50558
0.494267
0.483081
0.472016
0.461069
0.450231
0.439495
0.42885
0.418286
0.407792
0.397358
0.386974
0.37663
0.366319
0.356033
0.345767
0.335516
0.325276
0.315045
0.304819
0.294597
0.284378
0.274162
0.263946
0.253732
0.243518
0.233304
0.223091
0.212878
0.202665
0.192453
0.18224
0.172027
0.161814
0.151602
0.141389
0.131176
0.120963
0.110751
0.100538
0.0903254
0.0801127
0.0699
0.0596873
0.0494746
0.039262
0.0290493
0.0188366
0.00862392
-0.00158876
-0.0118014
-0.0220141
-0.0322268
-0.0424395
-0.0526521
-0.0628648
-0.0730775
-0.0832902
-0.0935028
-0.103716
-0.113928
-0.124141
-0.134354
-0.144566
-0.154779
-0.164992
-0.175194
0.175194
1.17699
1.17699
1.11215
1.06791
1.02809
0.991511
0.958459
0.928931
0.902575
0.878866
0.857264
0.837301
0.818608
0.800909
0.784002
0.767742
0.752023
0.736768
0.721915
0.70742
0.693246
0.679361
0.66574
0.652361
0.639205
0.626254
0.613494
0.60091
0.588491
0.576228
0.564112
0.552137
0.540298
0.528594
0.517022
0.50558
0.494267
0.483081
0.472016
0.461069
0.450231
0.439495
0.42885
0.418286
0.407792
0.397358
0.386974
0.37663
0.366319
0.356033
0.345767
0.335516
0.325276
0.315045
0.304819
0.294597
0.284378
0.274162
0.263946
0.253732
0.243518
0.233304
0.223091
0.212878
0.202665
0.192453
0.18224
0.172027
0.161814
0.151602
0.141389
0.131176
0.120963
0.110751
0.100538
0.0903254
0.0801127
0.0699
0.0596873
0.0494746
0.039262
0.0290493
0.0188366
0.00862392
-0.00158876
-0.0118014
-0.0220141
-0.0322268
-0.0424395
-0.0526521
-0.0628648
-0.0730775
-0.0832902
-0.0935028
-0.103716
-0.113928
-0.124141
-0.134354
-0.144566
-0.154779
-0.164992
-0.175194
0.175194
1.15605
1.15605
1.11016
1.06814
1.02879
0.992307
0.959202
0.929562
0.903083
0.879261
0.857568
0.837534
0.81879
0.801053
0.784119
0.767839
0.752106
0.736839
0.721978
0.707476
0.693295
0.679406
0.665781
0.652398
0.639239
0.626285
0.613522
0.600936
0.588515
0.57625
0.564132
0.552155
0.540315
0.528608
0.517034
0.50559
0.494276
0.483087
0.472021
0.461072
0.450234
0.439496
0.428851
0.418286
0.407792
0.397357
0.386973
0.376629
0.366318
0.356033
0.345767
0.335516
0.325276
0.315044
0.304819
0.294597
0.284378
0.274161
0.263946
0.253732
0.243518
0.233304
0.223091
0.212878
0.202665
0.192453
0.18224
0.172027
0.161814
0.151602
0.141389
0.131176
0.120963
0.110751
0.100538
0.0903254
0.0801127
0.0699
0.0596873
0.0494746
0.039262
0.0290493
0.0188366
0.00862392
-0.00158876
-0.0118014
-0.0220141
-0.0322268
-0.0424395
-0.0526521
-0.0628648
-0.0730775
-0.0832902
-0.0935028
-0.103716
-0.113928
-0.124141
-0.134353
-0.144566
-0.154779
-0.164993
-0.175193
0.175193
1.14107
1.14107
1.10727
1.06837
1.0299
0.993632
0.960463
0.930641
0.903944
0.87992
0.85806
0.837899
0.819061
0.801258
0.784277
0.767964
0.752207
0.736923
0.722049
0.707537
0.693348
0.679452
0.665822
0.652435
0.639272
0.626315
0.613549
0.600961
0.588538
0.57627
0.56415
0.552172
0.54033
0.528622
0.517046
0.5056
0.494284
0.483094
0.472027
0.461077
0.450237
0.439498
0.428852
0.418287
0.407792
0.397357
0.386973
0.376629
0.366318
0.356032
0.345766
0.335516
0.325276
0.315044
0.304818
0.294597
0.284378
0.274161
0.263946
0.253732
0.243518
0.233304
0.223091
0.212878
0.202665
0.192453
0.18224
0.172027
0.161814
0.151602
0.141389
0.131176
0.120963
0.110751
0.100538
0.0903254
0.0801127
0.0699
0.0596873
0.0494746
0.039262
0.0290493
0.0188366
0.00862392
-0.00158876
-0.0118014
-0.0220141
-0.0322268
-0.0424395
-0.0526521
-0.0628648
-0.0730775
-0.0832902
-0.0935028
-0.103715
-0.113928
-0.124141
-0.134353
-0.144566
-0.154778
-0.164989
-0.17519
0.17519
1.1315
1.1315
1.10479
1.06848
1.03085
0.994826
0.96164
0.931677
0.904797
0.880593
0.858577
0.838294
0.819364
0.801493
0.784463
0.768114
0.75233
0.737026
0.722137
0.707613
0.693415
0.679511
0.665874
0.652481
0.639313
0.626352
0.613583
0.600991
0.588566
0.576296
0.564174
0.552193
0.54035
0.52864
0.517063
0.505616
0.494299
0.483107
0.472039
0.461087
0.450246
0.439506
0.428858
0.418292
0.407796
0.397361
0.386975
0.376631
0.366319
0.356033
0.345767
0.335516
0.325276
0.315044
0.304819
0.294597
0.284378
0.274161
0.263946
0.253732
0.243518
0.233304
0.223091
0.212878
0.202665
0.192453
0.18224
0.172027
0.161814
0.151602
0.141389
0.131176
0.120963
0.110751
0.100538
0.0903254
0.0801127
0.0699
0.0596873
0.0494746
0.039262
0.0290493
0.0188366
0.00862392
-0.00158876
-0.0118014
-0.0220141
-0.0322268
-0.0424395
-0.0526521
-0.0628648
-0.0730775
-0.0832902
-0.0935028
-0.103715
-0.113928
-0.124141
-0.134353
-0.144565
-0.154776
-0.164981
-0.175186
0.175186
1.12618
1.12618
1.10316
1.06849
1.03145
0.995593
0.962409
0.932367
0.905375
0.881057
0.858942
0.838578
0.819586
0.801669
0.784605
0.768232
0.752429
0.737111
0.72221
0.707677
0.693471
0.679561
0.665919
0.652522
0.63935
0.626386
0.613613
0.601019
0.588591
0.57632
0.564196
0.552214
0.54037
0.528659
0.517081
0.505633
0.494315
0.483122
0.472053
0.4611
0.450257
0.439516
0.428867
0.418299
0.407802
0.397366
0.386979
0.376634
0.366322
0.356035
0.345769
0.335517
0.325277
0.315045
0.304819
0.294597
0.284378
0.274162
0.263946
0.253732
0.243518
0.233304
0.223091
0.212878
0.202665
0.192453
0.18224
0.172027
0.161814
0.151602
0.141389
0.131176
0.120963
0.110751
0.100538
0.0903254
0.0801127
0.0699
0.0596873
0.0494746
0.039262
0.0290493
0.0188366
0.00862392
-0.00158876
-0.0118014
-0.0220141
-0.0322268
-0.0424395
-0.0526521
-0.0628648
-0.0730775
-0.0832902
-0.0935028
-0.103715
-0.113928
-0.124141
-0.134353
-0.144565
-0.154774
-0.164972
-0.175182
0.175182
1.12448
1.12448
1.10262
1.06851
1.03166
0.995867
0.962683
0.932612
0.905581
0.881224
0.859074
0.838683
0.819669
0.801736
0.78466
0.768277
0.752468
0.737144
0.722239
0.707703
0.693495
0.679582
0.665938
0.652539
0.639366
0.6264
0.613626
0.601031
0.588602
0.57633
0.564206
0.552223
0.540378
0.528667
0.517089
0.505641
0.494322
0.483129
0.472059
0.461106
0.450263
0.439521
0.428871
0.418303
0.407805
0.397368
0.386981
0.376636
0.366323
0.356036
0.345769
0.335518
0.325277
0.315045
0.304819
0.294597
0.284378
0.274162
0.263946
0.253732
0.243518
0.233304
0.223091
0.212878
0.202665
0.192453
0.18224
0.172027
0.161814
0.151602
0.141389
0.131176
0.120963
0.110751
0.100538
0.0903254
0.0801127
0.0699
0.0596873
0.0494746
0.039262
0.0290493
0.0188366
0.00862392
-0.00158876
-0.0118014
-0.0220141
-0.0322268
-0.0424395
-0.0526521
-0.0628648
-0.0730775
-0.0832902
-0.0935028
-0.103715
-0.113928
-0.124141
-0.134353
-0.144565
-0.154774
-0.164968
-0.175181
0.175181
1.12618
1.12618
1.10316
1.06849
1.03145
0.995593
0.962409
0.932367
0.905375
0.881057
0.858942
0.838578
0.819586
0.801669
0.784605
0.768232
0.752429
0.737111
0.72221
0.707677
0.693471
0.679561
0.665919
0.652522
0.63935
0.626386
0.613613
0.601019
0.588591
0.57632
0.564196
0.552214
0.54037
0.528659
0.517081
0.505633
0.494315
0.483122
0.472053
0.4611
0.450257
0.439516
0.428867
0.418299
0.407802
0.397366
0.386979
0.376634
0.366322
0.356035
0.345769
0.335517
0.325277
0.315045
0.304819
0.294597
0.284378
0.274162
0.263946
0.253732
0.243518
0.233304
0.223091
0.212878
0.202665
0.192453
0.18224
0.172027
0.161814
0.151602
0.141389
0.131176
0.120963
0.110751
0.100538
0.0903254
0.0801127
0.0699
0.0596873
0.0494746
0.039262
0.0290493
0.0188366
0.00862392
-0.00158876
-0.0118014
-0.0220141
-0.0322268
-0.0424395
-0.0526521
-0.0628648
-0.0730775
-0.0832902
-0.0935028
-0.103715
-0.113928
-0.124141
-0.134353
-0.144565
-0.154774
-0.164972
-0.175182
0.175182
1.1315
1.1315
1.10479
1.06848
1.03085
0.994826
0.96164
0.931677
0.904797
0.880593
0.858577
0.838294
0.819364
0.801493
0.784463
0.768114
0.75233
0.737026
0.722137
0.707613
0.693415
0.679511
0.665874
0.652481
0.639313
0.626352
0.613583
0.600991
0.588566
0.576296
0.564174
0.552193
0.54035
0.52864
0.517063
0.505616
0.494299
0.483107
0.472039
0.461087
0.450246
0.439506
0.428858
0.418292
0.407796
0.397361
0.386975
0.376631
0.366319
0.356033
0.345767
0.335516
0.325276
0.315044
0.304819
0.294597
0.284378
0.274161
0.263946
0.253732
0.243518
0.233304
0.223091
0.212878
0.202665
0.192453
0.18224
0.172027
0.161814
0.151602
0.141389
0.131176
0.120963
0.110751
0.100538
0.0903254
0.0801127
0.0699
0.0596873
0.0494746
0.039262
0.0290493
0.0188366
0.00862392
-0.00158876
-0.0118014
-0.0220141
-0.0322268
-0.0424395
-0.0526521
-0.0628648
-0.0730775
-0.0832902
-0.0935028
-0.103715
-0.113928
-0.124141
-0.134353
-0.144565
-0.154776
-0.164981
-0.175186
0.175186
1.14107
1.14107
1.10727
1.06837
1.0299
0.993632
0.960463
0.930641
0.903944
0.87992
0.85806
0.837899
0.819061
0.801258
0.784277
0.767964
0.752207
0.736923
0.722049
0.707537
0.693348
0.679452
0.665822
0.652435
0.639272
0.626315
0.613549
0.600961
0.588538
0.57627
0.56415
0.552172
0.54033
0.528622
0.517046
0.5056
0.494284
0.483094
0.472027
0.461077
0.450237
0.439498
0.428852
0.418287
0.407792
0.397357
0.386973
0.376629
0.366318
0.356032
0.345766
0.335516
0.325276
0.315044
0.304818
0.294597
0.284378
0.274161
0.263946
0.253732
0.243518
0.233304
0.223091
0.212878
0.202665
0.192453
0.18224
0.172027
0.161814
0.151602
0.141389
0.131176
0.120963
0.110751
0.100538
0.0903254
0.0801127
0.0699
0.0596873
0.0494747
0.039262
0.0290493
0.0188366
0.00862392
-0.00158876
-0.0118014
-0.0220141
-0.0322268
-0.0424395
-0.0526521
-0.0628648
-0.0730775
-0.0832902
-0.0935028
-0.103715
-0.113928
-0.124141
-0.134353
-0.144566
-0.154778
-0.164989
-0.17519
0.17519
1.15605
1.15605
1.11016
1.06814
1.02879
0.992307
0.959202
0.929562
0.903083
0.879261
0.857568
0.837534
0.81879
0.801053
0.784119
0.767839
0.752106
0.736839
0.721978
0.707476
0.693295
0.679406
0.665781
0.652398
0.639239
0.626285
0.613522
0.600936
0.588515
0.57625
0.564132
0.552155
0.540315
0.528608
0.517034
0.50559
0.494276
0.483087
0.472021
0.461072
0.450234
0.439496
0.428851
0.418286
0.407792
0.397357
0.386973
0.376629
0.366318
0.356033
0.345767
0.335516
0.325276
0.315044
0.304819
0.294597
0.284378
0.274161
0.263946
0.253732
0.243518
0.233304
0.223091
0.212878
0.202665
0.192453
0.18224
0.172027
0.161814
0.151602
0.141389
0.131176
0.120963
0.110751
0.100538
0.0903254
0.0801127
0.0699
0.0596873
0.0494747
0.039262
0.0290493
0.0188366
0.00862392
-0.00158876
-0.0118014
-0.0220141
-0.0322268
-0.0424395
-0.0526521
-0.0628648
-0.0730775
-0.0832902
-0.0935028
-0.103715
-0.113928
-0.124141
-0.134353
-0.144566
-0.154779
-0.164993
-0.175193
0.175193
1.17699
1.17699
1.11215
1.06791
1.02809
0.991511
0.958459
0.928931
0.902575
0.878866
0.857264
0.837301
0.818608
0.800909
0.784002
0.767742
0.752023
0.736768
0.721915
0.70742
0.693246
0.679361
0.66574
0.652361
0.639205
0.626254
0.613494
0.60091
0.588491
0.576228
0.564112
0.552137
0.540298
0.528594
0.517022
0.50558
0.494267
0.483081
0.472016
0.461069
0.450231
0.439495
0.42885
0.418286
0.407792
0.397358
0.386974
0.37663
0.366319
0.356033
0.345767
0.335516
0.325276
0.315045
0.304819
0.294597
0.284378
0.274162
0.263946
0.253732
0.243518
0.233304
0.223091
0.212878
0.202665
0.192453
0.18224
0.172027
0.161814
0.151602
0.141389
0.131176
0.120963
0.110751
0.100538
0.0903254
0.0801127
0.0699
0.0596873
0.0494746
0.039262
0.0290493
0.0188366
0.00862392
-0.00158876
-0.0118014
-0.0220141
-0.0322268
-0.0424395
-0.0526521
-0.0628648
-0.0730775
-0.0832902
-0.0935028
-0.103715
-0.113928
-0.124141
-0.134354
-0.144566
-0.154779
-0.164992
-0.175194
0.175194
1.17699
1.17699
1.11215
1.06791
1.02809
0.991511
0.958459
0.928931
0.902575
0.878866
0.857264
0.837301
0.818608
0.800909
0.784002
0.767742
0.752023
0.736768
0.721915
0.70742
0.693246
0.679361
0.66574
0.652361
0.639205
0.626254
0.613494
0.60091
0.588491
0.576228
0.564112
0.552137
0.540298
0.528594
0.517022
0.50558
0.494267
0.483081
0.472016
0.461069
0.450231
0.439495
0.42885
0.418286
0.407792
0.397358
0.386974
0.37663
0.366319
0.356033
0.345767
0.335516
0.325276
0.315045
0.304819
0.294597
0.284378
0.274162
0.263946
0.253732
0.243518
0.233304
0.223091
0.212878
0.202665
0.192453
0.18224
0.172027
0.161814
0.151602
0.141389
0.131176
0.120963
0.110751
0.100538
0.0903254
0.0801127
0.0699
0.0596873
0.0494746
0.039262
0.0290493
0.0188366
0.00862392
-0.00158876
-0.0118014
-0.0220141
-0.0322268
-0.0424395
-0.0526521
-0.0628648
-0.0730775
-0.0832902
-0.0935028
-0.103715
-0.113928
-0.124141
-0.134354
-0.144566
-0.154779
-0.164992
-0.175194
0.175194
SCALARS phi double
LOOKUP_TABLE phi
1
1
1
1
0.999998
0.999994
0.999982
0.999956
0.999911
0.999835
0.99969
0.999488
0.999337
0.999268
0.998845
0.996916
0.991802
0.981836
0.965893
0.943647
0.915494
0.882291
0.845083
0.804911
0.762711
0.71929
0.675321
0.631363
0.587872
0.54521
0.503659
0.463432
0.424683
0.387518
0.35201
0.318204
0.286135
0.255824
0.227294
0.200565
0.17566
0.152602
0.131409
0.112091
0.0946473
0.0790597
0.0652887
0.0532722
0.0429244
0.0341373
0.0267841
0.0207241
0.0158076
0.0118829
0.00880094
0.00642092
0.00461376
0.00326472
0.00227473
0.00156056
0.00105411
0.000701042
0.000459053
0.000295977
0.000187912
0.000117485
7.23402e-05
4.38719e-05
2.62088e-05
1.54245e-05
8.94395e-06
5.11041e-06
2.8777e-06
1.59719e-06
8.73869e-07
4.71382e-07
2.50724e-07
1.31515e-07
6.80411e-08
3.47251e-08
1.74844e-08
8.68662e-09
4.25897e-09
2.06097e-09
9.84478e-10
4.64267e-10
2.16178e-10
9.9402e-11
4.5141e-11
2.02486e-11
8.97262e-12
3.92823e-12
1.69934e-12
7.26472e-13
3.06947e-13
1.28193e-13
5.29259e-14
2.16034e-14
8.71941e-15
3.47958e-15
1.37783e-15
5.02439e-16
5.02439e-16
1
1
1
1
0.999998
0.999994
0.999982
0.999956
0.999911
0.999835
0.99969
0.999488
0.999337
0.999268
0.998845
0.996916
0.991802
0.981836
0.965893
0.943647
0.915494
0.882291
0.845083
0.804911
0.762711
0.71929
0.675321
0.631363
0.587872
0.54521
0.503659
0.463432
0.424683
0.387518
0.35201
0.318204
0.286135
0.255824
0.227294
0.200565
0.17566
0.152602
0.131409
0.112091
0.0946473
0.0790597
0.0652887
0.0532722
0.0429244
0.0341373
0.0267841
0.0207241
0.0158076
0.0118829
0.00880094
0.00642092
0.00461376
0.00326472
0.00227473
0.00156056
0.00105411
0.000701042
0.000459053
0.000295977
0.000187912
0.000117485
7.23402e-05
4.38719e-05
2.62088e-05
1.54245e-05
8.94395e-06
5.11041e-06
2.8777e-06
1.59719e-06
8.73869e-07
4.71382e-07
2.50724e-07
1.31515e-07
6.80411e-08
3.47251e-08
1.74844e-08
8.68662e-09
4.25897e-09
2.06097e-09
9.84478e-10
4.64267e-10
2.16178e-10
9.9402e-11
4.5141e-11
2.02486e-11
8.97262e-12
3.92823e-12
1.69934e-12
7.26472e-13
3.06947e-13
1.28193e-13
5.29259e-14
2.16034e-14
8.71941e-15
3.47958e-15
1.37783e-15
5.02439e-16
5.02439e-16
1
1
1
0.999996
0.999983
0.999953
0.999898
0.999803
0.999657
0.999448
0.999157
0.998769
0.998292
0.997757
0.997138
0.996233
0.994581
0.991489
0.98616
0.977865
0.966073
0.950517
0.931182
0.908264
0.882104
0.853136
0.821835
0.788691
0.754177
0.718736
0.682768
0.646618
0.610574
0.574862
0.539649
0.505044
0.471107
0.437863
0.405309
0.373437
0.342242
0.31174
0.281982
0.253057
0.225096
0.198268
0.172767
0.148801
0.126566
0.106232
0.087928
0.0717238
0.0576285
0.0455888
0.0354951
0.0271922
0.0204921
0.015189
0.0110719
0.00793666
0.00559461
0.00387813
0.00264372
0.00177247
0.00116883
0.000758191
0.000483855
0.000303822
0.000187738
0.000114177
6.83548e-05
4.02895e-05
2.33839e-05
1.33666e-05
7.52611e-06
4.17487e-06
2.28197e-06
1.22926e-06
6.52701e-07
3.41662e-07
1.76343e-07
8.97578e-08
4.50614e-08
2.23164e-08
1.09043e-08
5.25764e-09
2.50189e-09
1.17515e-09
5.44914e-10
2.49479e-10
1.1279e-10
5.03612e-11
2.22111e-11
9.67715e-12
4.16567e-12
1.77189e-12
7.44825e-13
3.09451e-13
1.2709e-13
5.15902e-14
2.07824e-14
7.6791e-15
7.6791e-15
0.999997
1
0.99998
0.999896
0.999724
0.999434
0.998999
0.998397
0.997612
0.996636
0.995464
0.994098
0.992544
0.990816
0.988932
0.986891
0.984643
0.982064
0.978954
0.975045
0.970042
0.963654
0.955625
0.94576
0.933933
0.920088
0.904237
0.886448
0.866843
0.845578
0.822839
0.798826
0.773745
0.74779
0.721138
0.693932
0.666272
0.638208
0.609735
0.580794
0.551283
0.521072
0.49003
0.458057
0.425118
0.391272
0.356699
0.321702
0.286703
0.252214
0.218795
0.18701
0.157372
0.130302
0.106102
0.0849308
0.0668107
0.0516383
0.0392087
0.0292443
0.021426
0.0154202
0.0109023
0.00757288
0.00516862
0.00346671
0.00228538
0.00148106
0.000943697
0.000591321
0.000364441
0.000220968
0.00013183
7.74047e-05
4.4738e-05
2.54581e-05
1.4266e-05
7.87386e-06