# vtk DataFile Version 3.0
FlowField
ASCII
DATASET STRUCTURED_GRID
DIMENSIONS 103 13 1 
POINTS 1339 double
0 0 0
0.3 0 0
0.6 0 0
0.9 0 0
1.2 0 0
1.5 0 0
1.8 0 0
2.1 0 0
2.4 0 0
2.7 0 0
3 0 0
3.3 0 0
3.6 0 0
3.9 0 0
4.2 0 0
4.5 0 0
4.8 0 0
5.1 0 0
5.4 0 0
5.7 0 0
6 0 0
6.3 0 0
6.6 0 0
6.9 0 0
7.2 0 0
7.5 0 0
7.8 0 0
8.1 0 0
8.4 0 0
8.7 0 0
9 0 0
9.3 0 0
9.6 0 0
9.9 0 0
10.2 0 0
10.5 0 0
10.8 0 0
11.1 0 0
11.4 0 0
11.7 0 0
12 0 0
12.3 0 0
12.6 0 0
12.9 0 0
13.2 0 0
13.5 0 0
13.8 0 0
14.1 0 0
14.4 0 0
14.7 0 0
15 0 0
15.3 0 0
15.6 0 0
15.9 0 0
16.2 0 0
16.5 0 0
16.8 0 0
17.1 0 0
17.4 0 0
17.7 0 0
18 0 0
18.3 0 0
18.6 0 0
18.9 0 0
19.2 0 0
19.5 0 0
19.8 0 0
20.1 0 0
20.4 0 0
20.7 0 0
21 0 0
21.3 0 0
21.6 0 0
21.9 0 0
22.2 0 0
22.5 0 0
22.8 0 0
23.1 0 0
23.4 0 0
23.7 0 0
24 0 0
24.3 0 0
24.6 0 0
24.9 0 0
25.2 0 0
25.5 0 0
25.8 0 0
26.1 0 0
26.4 0 0
26.7 0 0
27 0 0
27.3 0 0
27.6 0 0
27.9 0 0
28.2 0 0
28.5 0 0
28.8 0 0
29.1 0 0
29.4 0 0
29.7 0 0
30 0 0
30.3 0 0
30.6 0 0
0 0.1 0
0.3 0.1 0
0.6 0.1 0
0.9 0.1 0
1.2 0.1 0
1.5 0.1 0
1.8 0.1 0
2.1 0.1 0
2.4 0.1 0
2.7 0.1 0
3 0.1 0
3.3 0.1 0
3.6 0.1 0
3.9 0.1 0
4.2 0.1 0
4.5 0.1 0
4.8 0.1 0
5.1 0.1 0
5.4 0.1 0
5.7 0.1 0
6 0.1 0
6.3 0.1 0
6.6 0.1 0
6.9 0.1 0
7.2 0.1 0
7.5 0.1 0
7.8 0.1 0
8.1 0.1 0
8.4 0.1 0
8.7 0.1 0
9 0.1 0
9.3 0.1 0
9.6 0.1 0
9.9 0.1 0
10.2 0.1 0
10.5 0.1 0
10.8 0.1 0
11.1 0.1 0
11.4 0.1 0
11.7 0.1 0
12 0.1 0
12.3 0.1 0
12.6 0.1 0
12.9 0.1 0
13.2 0.1 0
13.5 0.1 0
13.8 0.1 0
14.1 0.1 0
14.4 0.1 0
14.7 0.1 0
15 0.1 0
15.3 0.1 0
15.6 0.1 0
15.9 0.1 0
16.2 0.1 0
16.5 0.1 0
16.8 0.1 0
17.1 0.1 0
17.4 0.1 0
17.7 0.1 0
18 0.1 0
18.3 0.1 0
18.6 0.1 0
18.9 0.1 0
19.2 0.1 0
19.5 0.1 0
19.8 0.1 0
20.1 0.1 0
20.4 0.1 0
20.7 0.1 0
21 0.1 0
21.3 0.1 0
21.6 0.1 0
21.9 0.1 0
22.2 0.1 0
22.5 0.1 0
22.8 0.1 0
23.1 0.1 0
23.4 0.1 0
23.7 0.1 0
24 0.1 0
24.3 0.1 0
24.6 0.1 0
24.9 0.1 0
25.2 0.1 0
25.5 0.1 0
25.8 0.1 0
26.1 0.1 0
26.4 0.1 0
26.7 0.1 0
27 0.1 0
27.3 0.1 0
27.6 0.1 0
27.9 0.1 0
28.2 0.1 0
28.5 0.1 0
28.8 0.1 0
29.1 0.1 0
29.4 0.1 0
29.7 0.1 0
30 0.1 0
30.3 0.1 0
30.6 0.1 0
0 0.2 0
0.3 0.2 0
0.6 0.2 0
0.9 0.2 0
1.2 0.2 0
1.5 0.2 0
1.8 0.2 0
2.1 0.2 0
2.4 0.2 0
2.7 0.2 0
3 0.2 0
3.3 0.2 0
3.6 0.2 0
3.9 0.2 0
4.2 0.2 0
4.5 0.2 0
4.8 0.2 0
5.1 0.2 0
5.4 0.2 0
5.7 0.2 0
6 0.2 0
6.3 0.2 0
6.6 0.2 0
6.9 0.2 0
7.2 0.2 0
7.5 0.2 0
7.8 0.2 0
8.1 0.2 0
8.4 0.2 0
8.7 0.2 0
9 0.2 0
9.3 0.2 0
9.6 0.2 0
9.9 0.2 0
10.2 0.2 0
10.5 0.2 0
10.8 0.2 0
11.1 0.2 0
11.4 0.2 0
11.7 0.2 0
12 0.2 0
12.3 0.2 0
12.6 0.2 0
12.9 0.2 0
13.2 0.2 0
13.5 0.2 0
13.8 0.2 0
14.1 0.2 0
14.4 0.2 0
14.7 0.2 0
15 0.2 0
15.3 0.2 0
15.6 0.2 0
15.9 0.2 0
16.2 0.2 0
16.5 0.2 0
16.8 0.2 0
17.1 0.2 0
17.4 0.2 0
17.7 0.2 0
18 0.2 0
18.3 0.2 0
18.6 0.2 0
18.9 0.2 0
19.2 0.2 0
19.5 0.2 0
19.8 0.2 0
20.1 0.2 0
20.4 0.2 0
20.7 0.2 0
21 0.2 0
21.3 0.2 0
21.6 0.2 0
21.9 0.2 0
22.2 0.2 0
22.5 0.2 0
22.8 0.2 0
23.1 0.2 0
23.4 0.2 0
23.7 0.2 0
24 0.2 0
24.3 0.2 0
24.6 0.2 0
24.9 0.2 0
25.2 0.2 0
25.5 0.2 0
25.8 0.2 0
26.1 0.2 0
26.4 0.2 0
26.7 0.2 0
27 0.2 0
27.3 0.2 0
27.6 0.2 0
27.9 0.2 0
28.2 0.2 0
28.5 0.2 0
28.8 0.2 0
29.1 0.2 0
29.4 0.2 0
29.7 0.2 0
30 0.2 0
30.3 0.2 0
30.6 0.2 0
0 0.3 0
0.3 0.3 0
0.6 0.3 0
0.9 0.3 0
1.2 0.3 0
1.5 0.3 0
1.8 0.3 0
2.1 0.3 0
2.4 0.3 0
2.7 0.3 0
3 0.3 0
3.3 0.3 0
3.6 0.3 0
3.9 0.3 0
4.2 0.3 0
4.5 0.3 0
4.8 0.3 0
5.1 0.3 0
5.4 0.3 0
5.7 0.3 0
6 0.3 0
6.3 0.3 0
6.6 0.3 0
6.9 0.3 0
7.2 0.3 0
7.5 0.3 0
7.8 0.3 0
8.1 0.3 0
8.4 0.3 0
8.7 0.3 0
9 0.3 0
9.3 0.3 0
9.6 0.3 0
9.9 0.3 0
10.2 0.3 0
10.5 0.3 0
10.8 0.3 0
11.1 0.3 0
11.4 0.3 0
11.7 0.3 0
12 0.3 0
12.3 0.3 0
12.6 0.3 0
12.9 0.3 0
13.2 0.3 0
13.5 0.3 0
13.8 0.3 0
14.1 0.3 0
14.4 0.3 0
14.7 0.3 0
15 0.3 0
15.3 0.3 0
15.6 0.3 0
15.9 0.3 0
16.2 0.3 0
16.5 0.3 0
16.8 0.3 0
17.1 0.3 0
17.4 0.3 0
17.7 0.3 0
18 0.3 0
18.3 0.3 0
18.6 0.3 0
18.9 0.3 0
19.2 0.3 0
19.5 0.3 0
19.8 0.3 0
20.1 0.3 0
20.4 0.3 0
20.7 0.3 0
21 0.3 0
21.3 0.3 0
21.6 0.3 0
21.9 0.3 0
22.2 0.3 0
22.5 0.3 0
22.8 0.3 0
23.1 0.3 0
23.4 0.3 0
23.7 0.3 0
24 0.3 0
24.3 0.3 0
24.6 0.3 0
24.9 0.3 0
25.2 0.3 0
25.5 0.3 0
25.8 0.3 0
26.1 0.3 0
26.4 0.3 0
26.7 0.3 0
27 0.3 0
27.3 0.3 0
27.6 0.3 0
27.9 0.3 0
28.2 0.3 0
28.5 0.3 0
28.8 0.3 0
29.1 0.3 0
29.4 0.3 0
29.7 0.3 0
30 0.3 0
30.3 0.3 0
30.6 0.3 0
0 0.4 0
0.3 0.4 0
0.6 0.4 0
0.9 0.4 0
1.2 0.4 0
1.5 0.4 0
1.8 0.4 0
2.1 0.4 0
2.4 0.4 0
2.7 0.4 0
3 0.4 0
3.3 0.4 0
3.6 0.4 0
3.9 0.4 0
4.2 0.4 0
4.5 0.4 0
4.8 0.4 0
5.1 0.4 0
5.4 0.4 0
5.7 0.4 0
6 0.4 0
6.3 0.4 0
6.6 0.4 0
6.9 0.4 0
7.2 0.4 0
7.5 0.4 0
7.8 0.4 0
8.1 0.4 0
8.4 0.4 0
8.7 0.4 0
9 0.4 0
9.3 0.4 0
9.6 0.4 0
9.9 0.4 0
10.2 0.4 0
10.5 0.4 0
10.8 0.4 0
11.1 0.4 0
11.4 0.4 0
11.7 0.4 0
12 0.4 0
12.3 0.4 0
12.6 0.4 0
12.9 0.4 0
13.2 0.4 0
13.5 0.4 0
13.8 0.4 0
14.1 0.4 0
14.4 0.4 0
14.7 0.4 0
15 0.4 0
15.3 0.4 0
15.6 0.4 0
15.9 0.4 0
16.2 0.4 0
16.5 0.4 0
16.8 0.4 0
17.1 0.4 0
17.4 0.4 0
17.7 0.4 0
18 0.4 0
18.3 0.4 0
18.6 0.4 0
18.9 0.4 0
19.2 0.4 0
19.5 0.4 0
19.8 0.4 0
20.1 0.4 0
20.4 0.4 0
20.7 0.4 0
21 0.4 0
21.3 0.4 0
21.6 0.4 0
21.9 0.4 0
22.2 0.4 0
22.5 0.4 0
22.8 0.4 0
23.1 0.4 0
23.4 0.4 0
23.7 0.4 0
24 0.4 0
24.3 0.4 0
24.6 0.4 0
24.9 0.4 0
25.2 0.4 0
25.5 0.4 0
25.8 0.4 0
26.1 0.4 0
26.4 0.4 0
26.7 0.4 0
27 0.4 0
27.3 0.4 0
27.6 0.4 0
27.9 0.4 0
28.2 0.4 0
28.5 0.4 0
28.8 0.4 0
29.1 0.4 0
29.4 0.4 0
29.7 0.4 0
30 0.4 0
30.3 0.4 0
30.6 0.4 0
0 0.5 0
0.3 0.5 0
0.6 0.5 0
0.9 0.5 0
1.2 0.5 0
1.5 0.5 0
1.8 0.5 0
2.1 0.5 0
2.4 0.5 0
2.7 0.5 0
3 0.5 0
3.3 0.5 0
3.6 0.5 0
3.9 0.5 0
4.2 0.5 0
4.5 0.5 0
4.8 0.5 0
5.1 0.5 0
5.4 0.5 0
5.7 0.5 0
6 0.5 0
6.3 0.5 0
6.6 0.5 0
6.9 0.5 0
7.2 0.5 0
7.5 0.5 0
7.8 0.5 0
8.1 0.5 0
8.4 0.5 0
8.7 0.5 0
9 0.5 0
9.3 0.5 0
9.6 0.5 0
9.9 0.5 0
10.2 0.5 0
10.5 0.5 0
10.8 0.5 0
11.1 0.5 0
11.4 0.5 0
11.7 0.5 0
12 0.5 0
12.3 0.5 0
12.6 0.5 0
12.9 0.5 0
13.2 0.5 0
13.5 0.5 0
13.8 0.5 0
14.1 0.5 0
14.4 0.5 0
14.7 0.5 0
15 0.5 0
15.3 0.5 0
15.6 0.5 0
15.9 0.5 0
16.2 0.5 0
16.5 0.5 0
16.8 0.5 0
17.1 0.5 0
17.4 0.5 0
17.7 0.5 0
18 0.5 0
18.3 0.5 0
18.6 0.5 0
18.9 0.5 0
19.2 0.5 0
19.5 0.5 0
19.8 0.5 0
20.1 0.5 0
20.4 0.5 0
20.7 0.5 0
21 0.5 0
21.3 0.5 0
21.6 0.5 0
21.9 0.5 0
22.2 0.5 0
22.5 0.5 0
22.8 0.5 0
23.1 0.5 0
23.4 0.5 0
23.7 0.5 0
24 0.5 0
24.3 0.5 0
24.6 0.5 0
24.9 0.5 0
25.2 0.5 0
25.5 0.5 0
25.8 0.5 0
26.1 0.5 0
26.4 0.5 0
26.7 0.5 0
27 0.5 0
27.3 0.5 0
27.6 0.5 0
27.9 0.5 0
28.2 0.5 0
28.5 0.5 0
28.8 0.5 0
29.1 0.5 0
29.4 0.5 0
29.7 0.5 0
30 0.5 0
30.3 0.5 0
30.6 0.5 0
0 0.6 0
0.3 0.6 0
0.6 0.6 0
0.9 0.6 0
1.2 0.6 0
1.5 0.6 0
1.8 0.6 0
2.1 0.6 0
2.4 0.6 0
2.7 0.6 0
3 0.6 0
3.3 0.6 0
3.6 0.6 0
3.9 0.6 0
4.2 0.6 0
4.5 0.6 0
4.8 0.6 0
5.1 0.6 0
5.4 0.6 0
5.7 0.6 0
6 0.6 0
6.3 0.6 0
6.6 0.6 0
6.9 0.6 0
7.2 0.6 0
7.5 0.6 0
7.8 0.6 0
8.1 0.6 0
8.4 0.6 0
8.7 0.6 0
9 0.6 0
9.3 0.6 0
9.6 0.6 0
9.9 0.6 0
10.2 0.6 0
10.5 0.6 0
10.8 0.6 0
11.1 0.6 0
11.4 0.6 0
11.7 0.6 0
12 0.6 0
12.3 0.6 0
12.6 0.6 0
12.9 0.6 0
13.2 0.6 0
13.5 0.6 0
13.8 0.6 0
14.1 0.6 0
14.4 0.6 0
14.7 0.6 0
15 0.6 0
15.3 0.6 0
15.6 0.6 0
15.9 0.6 0
16.2 0.6 0
16.5 0.6 0
16.8 0.6 0
17.1 0.6 0
17.4 0.6 0
17.7 0.6 0
18 0.6 0
18.3 0.6 0
18.6 0.6 0
18.9 0.6 0
19.2 0.6 0
19.5 0.6 0
19.8 0.6 0
20.1 0.6 0
20.4 0.6 0
20.7 0.6 0
21 0.6 0
21.3 0.6 0
21.6 0.6 0
21.9 0.6 0
22.2 0.6 0
22.5 0.6 0
22.8 0.6 0
23.1 0.6 0
23.4 0.6 0
23.7 0.6 0
24 0.6 0
24.3 0.6 0
24.6 0.6 0
24.9 0.6 0
25.2 0.6 0
25.5 0.6 0
25.8 0.6 0
26.1 0.6 0
26.4 0.6 0
26.7 0.6 0
27 0.6 0
27.3 0.6 0
27.6 0.6 0
27.9 0.6 0
28.2 0.6 0
28.5 0.6 0
28.8 0.6 0
29.1 0.6 0
29.4 0.6 0
29.7 0.6 0
30 0.6 0
30.3 0.6 0
30.6 0.6 0
0 0.7 0
0.3 0.7 0
0.6 0.7 0
0.9 0.7 0
1.2 0.7 0
1.5 0.7 0
1.8 0.7 0
2.1 0.7 0
2.4 0.7 0
2.7 0.7 0
3 0.7 0
3.3 0.7 0
3.6 0.7 0
3.9 0.7 0
4.2 0.7 0
4.5 0.7 0
4.8 0.7 0
5.1 0.7 0
5.4 0.7 0
5.7 0.7 0
6 0.7 0
6.3 0.7 0
6.6 0.7 0
6.9 0.7 0
7.2 0.7 0
7.5 0.7 0
7.8 0.7 0
8.1 0.7 0
8.4 0.7 0
8.7 0.7 0
9 0.7 0
9.3 0.7 0
9.6 0.7 0
9.9 0.7 0
10.2 0.7 0
10.5 0.7 0
10.8 0.7 0
11.1 0.7 0
11.4 0.7 0
11.7 0.7 0
12 0.7 0
12.3 0.7 0
12.6 0.7 0
12.9 0.7 0
13.2 0.7 0
13.5 0.7 0
13.8 0.7 0
14.1 0.7 0
14.4 0.7 0
14.7 0.7 0
15 0.7 0
15.3 0.7 0
15.6 0.7 0
15.9 0.7 0
16.2 0.7 0
16.5 0.7 0
16.8 0.7 0
17.1 0.7 0
17.4 0.7 0
17.7 0.7 0
18 0.7 0
18.3 0.7 0
18.6 0.7 0
18.9 0.7 0
19.2 0.7 0
19.5 0.7 0
19.8 0.7 0
20.1 0.7 0
20.4 0.7 0
20.7 0.7 0
21 0.7 0
21.3 0.7 0
21.6 0.7 0
21.9 0.7 0
22.2 0.7 0
22.5 0.7 0
22.8 0.7 0
23.1 0.7 0
23.4 0.7 0
23.7 0.7 0
24 0.7 0
24.3 0.7 0
24.6 0.7 0
24.9 0.7 0
25.2 0.7 0
25.5 0.7 0
25.8 0.7 0
26.1 0.7 0
26.4 0.7 0
26.7 0.7 0
27 0.7 0
27.3 0.7 0
27.6 0.7 0
27.9 0.7 0
28.2 0.7 0
28.5 0.7 0
28.8 0.7 0
29.1 0.7 0
29.4 0.7 0
29.7 0.7 0
30 0.7 0
30.3 0.7 0
30.6 0.7 0
0 0.8 0
0.3 0.8 0
0.6 0.8 0
0.9 0.8 0
1.2 0.8 0
1.5 0.8 0
1.8 0.8 0
2.1 0.8 0
2.4 0.8 0
2.7 0.8 0
3 0.8 0
3.3 0.8 0
3.6 0.8 0
3.9 0.8 0
4.2 0.8 0
4.5 0.8 0
4.8 0.8 0
5.1 0.8 0
5.4 0.8 0
5.7 0.8 0
6 0.8 0
6.3 0.8 0
6.6 0.8 0
6.9 0.8 0
7.2 0.8 0
7.5 0.8 0
7.8 0.8 0
8.1 0.8 0
8.4 0.8 0
8.7 0.8 0
9 0.8 0
9.3 0.8 0
9.6 0.8 0
9.9 0.8 0
10.2 0.8 0
10.5 0.8 0
10.8 0.8 0
11.1 0.8 0
11.4 0.8 0
11.7 0.8 0
12 0.8 0
12.3 0.8 0
12.6 0.8 0
12.9 0.8 0
13.2 0.8 0
13.5 0.8 0
13.8 0.8 0
14.1 0.8 0
14.4 0.8 0
14.7 0.8 0
15 0.8 0
15.3 0.8 0
15.6 0.8 0
15.9 0.8 0
16.2 0.8 0
16.5 0.8 0
16.8 0.8 0
17.1 0.8 0
17.4 0.8 0
17.7 0.8 0
18 0.8 0
18.3 0.8 0
18.6 0.8 0
18.9 0.8 0
19.2 0.8 0
19.5 0.8 0
19.8 0.8 0
20.1 0.8 0
20.4 0.8 0
20.7 0.8 0
21 0.8 0
21.3 0.8 0
21.6 0.8 0
21.9 0.8 0
22.2 0.8 0
22.5 0.8 0
22.8 0.8 0
23.1 0.8 0
23.4 0.8 0
23.7 0.8 0
24 0.8 0
24.3 0.8 0
24.6 0.8 0
24.9 0.8 0
25.2 0.8 0
25.5 0.8 0
25.8 0.8 0
26.1 0.8 0
26.4 0.8 0
26.7 0.8 0
27 0.8 0
27.3 0.8 0
27.6 0.8 0
27.9 0.8 0
28.2 0.8 0
28.5 0.8 0
28.8 0.8 0
29.1 0.8 0
29.4 0.8 0
29.7 0.8 0
30 0.8 0
30.3 0.8 0
30.6 0.8 0
0 0.9 0
0.3 0.9 0
0.6 0.9 0
0.9 0.9 0
1.2 0.9 0
1.5 0.9 0
1.8 0.9 0
2.1 0.9 0
2.4 0.9 0
2.7 0.9 0
3 0.9 0
3.3 0.9 0
3.6 0.9 0
3.9 0.9 0
4.2 0.9 0
4.5 0.9 0
4.8 0.9 0
5.1 0.9 0
5.4 0.9 0
5.7 0.9 0
6 0.9 0
6.3 0.9 0
6.6 0.9 0
6.9 0.9 0
7.2 0.9 0
7.5 0.9 0
7.8 0.9 0
8.1 0.9 0
8.4 0.9 0
8.7 0.9 0
9 0.9 0
9.3 0.9 0
9.6 0.9 0
9.9 0.9 0
10.2 0.9 0
10.5 0.9 0
10.8 0.9 0
11.1 0.9 0
11.4 0.9 0
11.7 0.9 0
12 0.9 0
12.3 0.9 0
12.6 0.9 0
12.9 0.9 0
13.2 0.9 0
13.5 0.9 0
13.8 0.9 0
14.1 0.9 0
14.4 0.9 0
14.7 0.9 0
15 0.9 0
15.3 0.9 0
15.6 0.9 0
15.9 0.9 0
16.2 0.9 0
16.5 0.9 0
16.8 0.9 0
17.1 0.9 0
17.4 0.9 0
17.7 0.9 0
18 0.9 0
18.3 0.9 0
18.6 0.9 0
18.9 0.9 0
19.2 0.9 0
19.5 0.9 0
19.8 0.9 0
20.1 0.9 0
20.4 0.9 0
20.7 0.9 0
21 0.9 0
21.3 0.9 0
21.6 0.9 0
21.9 0.9 0
22.2 0.9 0
22.5 0.9 0
22.8 0.9 0
23.1 0.9 0
23.4 0.9 0
23.7 0.9 0
24 0.9 0
24.3 0.9 0
24.6 0.9 0
24.9 0.9 0
25.2 0.9 0
25.5 0.9 0
25.8 0.9 0
26.1 0.9 0
26.4 0.9 0
26.7 0.9 0
27 0.9 0
27.3 0.9 0
27.6 0.9 0
27.9 0.9 0
28.2 0.9 0
28.5 0.9 0
28.8 0.9 0
29.1 0.9 0
29.4 0.9 0
29.7 0.9 0
30 0.9 0
30.3 0.9 0
30.6 0.9 0
0 1 0
0.3 1 0
0.6 1 0
0.9 1 0
1.2 1 0
1.5 1 0
1.8 1 0
2.1 1 0
2.4 1 0
2.7 1 0
3 1 0
3.3 1 0
3.6 1 0
3.9 1 0
4.2 1 0
4.5 1 0
4.8 1 0
5.1 1 0
5.4 1 0
5.7 1 0
6 1 0
6.3 1 0
6.6 1 0
6.9 1 0
7.2 1 0
7.5 1 0
7.8 1 0
8.1 1 0
8.4 1 0
8.7 1 0
9 1 0
9.3 1 0
9.6 1 0
9.9 1 0
10.2 1 0
10.5 1 0
10.8 1 0
11.1 1 0
11.4 1 0
11.7 1 0
12 1 0
12.3 1 0
12.6 1 0
12.9 1 0
13.2 1 0
13.5 1 0
13.8 1 0
14.1 1 0
14.4 1 0
14.7 1 0
15 1 0
15.3 1 0
15.6 1 0
15.9 1 0
16.2 1 0
16.5 1 0
16.8 1 0
17.1 1 0
17.4 1 0
17.7 1 0
18 1 0
18.3 1 0
18.6 1 0
18.9 1 0
19.2 1 0
19.5 1 0
19.8 1 0
20.1 1 0
20.4 1 0
20.7 1 0
21 1 0
21.3 1 0
21.6 1 0
21.9 1 0
22.2 1 0
22.5 1 0
22.8 1 0
23.1 1 0
23.4 1 0
23.7 1 0
24 1 0
24.3 1 0
24.6 1 0
24.9 1 0
25.2 1 0
25.5 1 0
25.8 1 0
26.1 1 0
26.4 1 0
26.7 1 0
27 1 0
27.3 1 0
27.6 1 0
27.9 1 0
28.2 1 0
28.5 1 0
28.8 1 0
29.1 1 0
29.4 1 0
29.7 1 0
30 1 0
30.3 1 0
30.6 1 0
0 1.1 0
0.3 1.1 0
0.6 1.1 0
0.9 1.1 0
1.2 1.1 0
1.5 1.1 0
1.8 1.1 0
2.1 1.1 0
2.4 1.1 0
2.7 1.1 0
3 1.1 0
3.3 1.1 0
3.6 1.1 0
3.9 1.1 0
4.2 1.1 0
4.5 1.1 0
4.8 1.1 0
5.1 1.1 0
5.4 1.1 0
5.7 1.1 0
6 1.1 0
6.3 1.1 0
6.6 1.1 0
6.9 1.1 0
7.2 1.1 0
7.5 1.1 0
7.8 1.1 0
8.1 1.1 0
8.4 1.1 0
8.7 1.1 0
9 1.1 0
9.3 1.1 0
9.6 1.1 0
9.9 1.1 0
10.2 1.1 0
10.5 1.1 0
10.8 1.1 0
11.1 1.1 0
11.4 1.1 0
11.7 1.1 0
12 1.1 0
12.3 1.1 0
12.6 1.1 0
12.9 1.1 0
13.2 1.1 0
13.5 1.1 0
13.8 1.1 0
14.1 1.1 0
14.4 1.1 0
14.7 1.1 0
15 1.1 0
15.3 1.1 0
15.6 1.1 0
15.9 1.1 0
16.2 1.1 0
16.5 1.1 0
16.8 1.1 0
17.1 1.1 0
17.4 1.1 0
17.7 1.1 0
18 1.1 0
18.3 1.1 0
18.6 1.1 0
18.9 1.1 0
19.2 1.1 0
19.5 1.1 0
19.8 1.1 0
20.1 1.1 0
20.4 1.1 0
20.7 1.1 0
21 1.1 0
21.3 1.1 0
21.6 1.1 0
21.9 1.1 0
22.2 1.1 0
22.5 1.1 0
22.8 1.1 0
23.1 1.1 0
23.4 1.1 0
23.7 1.1 0
24 1.1 0
24.3 1.1 0
24.6 1.1 0
24.9 1.1 0
25.2 1.1 0
25.5 1.1 0
25.8 1.1 0
26.1 1.1 0
26.4 1.1 0
26.7 1.1 0
27 1.1 0
27.3 1.1 0
27.6 1.1 0
27.9 1.1 0
28.2 1.1 0
28.5 1.1 0
28.8 1.1 0
29.1 1.1 0
29.4 1.1 0
29.7 1.1 0
30 1.1 0
30.3 1.1 0
30.6 1.1 0
0 1.2 0
0.3 1.2 0
0.6 1.2 0
0.9 1.2 0
1.2 1.2 0
1.5 1.2 0
1.8 1.2 0
2.1 1.2 0
2.4 1.2 0
2.7 1.2 0
3 1.2 0
3.3 1.2 0
3.6 1.2 0
3.9 1.2 0
4.2 1.2 0
4.5 1.2 0
4.8 1.2 0
5.1 1.2 0
5.4 1.2 0
5.7 1.2 0
6 1.2 0
6.3 1.2 0
6.6 1.2 0
6.9 1.2 0
7.2 1.2 0
7.5 1.2 0
7.8 1.2 0
8.1 1.2 0
8.4 1.2 0
8.7 1.2 0
9 1.2 0
9.3 1.2 0
9.6 1.2 0
9.9 1.2 0
10.2 1.2 0
10.5 1.2 0
10.8 1.2 0
11.1 1.2 0
11.4 1.2 0
11.7 1.2 0
12 1.2 0
12.3 1.2 0
12.6 1.2 0
12.9 1.2 0
13.2 1.2 0
13.5 1.2 0
13.8 1.2 0
14.1 1.2 0
14.4 1.2 0
14.7 1.2 0
15 1.2 0
15.3 1.2 0
15.6 1.2 0
15.9 1.2 0
16.2 1.2 0
16.5 1.2 0
16.8 1.2 0
17.1 1.2 0
17.4 1.2 0
17.7 1.2 0
18 1.2 0
18.3 1.2 0
18.6 1.2 0
18.9 1.2 0
19.2 1.2 0
19.5 1.2 0
19.8 1.2 0
20.1 1.2 0
20.4 1.2 0
20.7 1.2 0
21 1.2 0
21.3 1.2 0
21.6 1.2 0
21.9 1.2 0
22.2 1.2 0
22.5 1.2 0
22.8 1.2 0
23.1 1.2 0
23.4 1.2 0
23.7 1.2 0
24 1.2 0
24.3 1.2 0
24.6 1.2 0
24.9 1.2 0
25.2 1.2 0
25.5 1.2 0
25.8 1.2 0
26.1 1.2 0
26.4 1.2 0
26.7 1.2 0
27 1.2 0
27.3 1.2 0
27.6 1.2 0
27.9 1.2 0
28.2 1.2 0
28.5 1.2 0
28.8 1.2 0
29.1 1.2 0
29.4 1.2 0
29.7 1.2 0
30 1.2 0
30.3 1.2 0
30.6 1.2 0

POINT_DATA 1339

SCALARS pressure double
LOOKUP_TABLE pressure
1.1713
1.1713
1.10646
1.06223
1.0224
0.985826
0.952776
0.923248
0.896891
0.873182
0.851581
0.831617
0.812923
0.795225
0.778319
0.762059
0.746339
0.731084
0.716232
0.701737
0.687563
0.673678
0.660057
0.646679
0.633523
0.620573
0.607813
0.595231
0.582814
0.570549
0.558428
0.546442
0.534581
0.522837
0.511205
0.499676
0.488244
0.476904
0.465652
0.454479
0.443384
0.432361
0.421408
0.410518
0.399688
0.388917
0.3782
0.367534
0.356917
0.346346
0.335818
0.325332
0.314884
0.304473
0.294097
0.283754
0.273442
0.263159
0.252905
0.242677
0.232474
0.222294
0.212137
0.202002
0.191886
0.181789
0.171711
0.161649
0.151604
0.141574
0.131559
0.121557
0.111569
0.101593
0.09163
0.0816783
0.0717379
0.0618082
0.051889
0.0419799
0.0320805
0.0221904
0.0123093
0.00243686
-0.00742739
-0.0172839
-0.0271331
-0.0369754
-0.0468113
-0.0566412
-0.0664658
-0.0762854
-0.0861005
-0.0959116
-0.105719
-0.115524
-0.125325
-0.135125
-0.144922
-0.154717
-0.164512
-0.174304
0.174304
1.1713
1.1713
1.10646
1.06223
1.0224
0.985826
0.952776
0.923248
0.896891
0.873182
0.851581
0.831617
0.812923
0.795225
0.778319
0.762059
0.746339
0.731084
0.716232
0.701737
0.687563
0.673678
0.660057
0.646679
0.633523
0.620573
0.607813
0.595231
0.582814
0.570549
0.558428
0.546442
0.534581
0.522837
0.511205
0.499676
0.488244
0.476904
0.465652
0.454479
0.443384
0.432361
0.421408
0.410518
0.399688
0.388917
0.3782
0.367534
0.356917
0.346346
0.335818
0.325332
0.314884
0.304473
0.294097
0.283754
0.273442
0.263159
0.252905
0.242677
0.232474
0.222294
0.212137
0.202002
0.191886
0.181789
0.171711
0.161649
0.151604
0.141574
0.131559
0.121557
0.111569
0.101593
0.09163
0.0816783
0.0717379
0.0618082
0.051889
0.0419799
0.0320805
0.0221904
0.0123093
0.00243686
-0.00742739
-0.0172839
-0.0271331
-0.0369754
-0.0468113
-0.0566412
-0.0664658
-0.0762854
-0.0861005
-0.0959116
-0.105719
-0.115524
-0.125325
-0.135125
-0.144922
-0.154717
-0.164512
-0.174304
0.174304
1.15036
1.15036
1.10447
1.06245
1.0231
0.986622
0.953519
0.923879
0.897398
0.873577
0.851885
0.83185
0.813105
0.795369
0.778436
0.762156
0.746422
0.731155
0.716295
0.701793
0.687612
0.673722
0.660097
0.646715
0.633557
0.620603
0.607841
0.595257
0.582838
0.570571
0.558449
0.546461
0.534599
0.522854
0.51122
0.49969
0.488257
0.476917
0.465664
0.45449
0.443394
0.432372
0.421417
0.410526
0.399697
0.388925
0.378207
0.367541
0.356924
0.346352
0.335824
0.325337
0.314889
0.304478
0.294101
0.283758
0.273446
0.263163
0.252908
0.24268
0.232477
0.222297
0.21214
0.202004
0.191889
0.181792
0.171713
0.161652
0.151606
0.141576
0.131561
0.121559
0.111571
0.101595
0.0916315
0.0816797
0.0717391
0.0618093
0.05189
0.0419808
0.0320813
0.0221911
0.01231
0.00243744
-0.0074269
-0.0172835
-0.0271327
-0.0369751
-0.046811
-0.0566411
-0.0664656
-0.0762853
-0.0861004
-0.0959115
-0.105719
-0.115524
-0.125325
-0.135125
-0.144922
-0.154717
-0.164512
-0.174304
0.174304
1.13538
1.13538
1.10159
1.06269
1.02422
0.987947
0.95478
0.924956
0.898259
0.874237
0.852377
0.832215
0.813377
0.795574
0.778594
0.762281
0.746523
0.731239
0.716366
0.701853
0.687665
0.673769
0.660139
0.646752
0.63359
0.620633
0.607868
0.595282
0.58286
0.570592
0.558468
0.546478
0.534615
0.522869
0.511234
0.499703
0.488269
0.476928
0.465674
0.4545
0.443403
0.43238
0.421425
0.410533
0.399703
0.388931
0.378213
0.367547
0.356929
0.346357
0.335829
0.325342
0.314893
0.304482
0.294105
0.283762
0.273449
0.263166
0.252911
0.242683
0.232479
0.2223
0.212142
0.202006
0.191891
0.181794
0.171715
0.161653
0.151608
0.141578
0.131562
0.12156
0.111572
0.101596
0.0916326
0.0816807
0.07174
0.0618102
0.0518908
0.0419815
0.032082
0.0221917
0.0123105
0.00243788
-0.00742654
-0.0172832
-0.0271325
-0.0369749
-0.0468109
-0.0566409
-0.0664655
-0.0762852
-0.0861003
-0.0959115
-0.105719
-0.115524
-0.125325
-0.135125
-0.144922
-0.154717
-0.164511
-0.174303
0.174303
1.12581
1.12581
1.0991
1.06279
1.02517
0.989142
0.955957
0.925993
0.899112
0.874909
0.852894
0.83261
0.813679
0.795809
0.778779
0.76243
0.746646
0.731343
0.716453
0.701929
0.687731
0.673827
0.660191
0.646799
0.633631
0.62067
0.607902
0.595312
0.582888
0.570617
0.558491
0.5465
0.534634
0.522887
0.51125
0.499718
0.488283
0.476941
0.465686
0.454511
0.443414
0.43239
0.421434
0.410542
0.399711
0.388939
0.37822
0.367553
0.356935
0.346363
0.335834
0.325347
0.314898
0.304486
0.294109
0.283766
0.273453
0.26317
0.252915
0.242686
0.232482
0.222303
0.212145
0.202009
0.191893
0.181796
0.171717
0.161655
0.15161
0.141579
0.131564
0.121562
0.111573
0.101598
0.0916339
0.0816819
0.0717412
0.0618113
0.0518919
0.0419825
0.0320829
0.0221926
0.0123113
0.00243862
-0.00742587
-0.0172826
-0.0271319
-0.0369744
-0.0468104
-0.0566405
-0.0664652
-0.0762849
-0.0861001
-0.0959113
-0.105719
-0.115523
-0.125325
-0.135124
-0.144922
-0.154717
-0.16451
-0.174301
0.174301
1.1205
1.1205
1.09748
1.06281
1.02576
0.989909
0.956726
0.926682
0.89969
0.875373
0.853259
0.832894
0.813902
0.795986
0.778922
0.762548
0.746745
0.731427
0.716527
0.701994
0.687788
0.673878
0.660236
0.64684
0.633668
0.620704
0.607933
0.59534
0.582913
0.57064
0.558512
0.546519
0.534652
0.522903
0.511266
0.499732
0.488297
0.476954
0.465697
0.454522
0.443424
0.432399
0.421442
0.41055
0.399719
0.388946
0.378227
0.36756
0.356941
0.346368
0.335839
0.325352
0.314903
0.304491
0.294113
0.283769
0.273457
0.263173
0.252918
0.242689
0.232485
0.222305
0.212148
0.202011
0.191895
0.181798
0.171719
0.161657
0.151611
0.141581
0.131565
0.121563
0.111575
0.101599
0.0916352
0.0816832
0.0717424
0.0618125
0.051893
0.0419836
0.0320839
0.0221935
0.0123122
0.00243948
-0.00742506
-0.0172818
-0.0271312
-0.0369737
-0.0468098
-0.05664
-0.0664647
-0.0762844
-0.0860997
-0.0959109
-0.105719
-0.115523
-0.125325
-0.135124
-0.144921
-0.154717
-0.164509
-0.174298
0.174298
1.1188
1.1188
1.09693
1.06282
1.02598
0.990184
0.956999
0.926927
0.899897
0.875541
0.853391
0.832998
0.813985
0.796053
0.778977
0.762593
0.746784
0.731461
0.716556
0.70202
0.687811
0.673899
0.660255
0.646857
0.633683
0.620718
0.607946
0.595352
0.582924
0.57065
0.558522
0.546528
0.53466
0.522911
0.511273
0.499738
0.488302
0.476959
0.465702
0.454526
0.443428
0.432403
0.421446
0.410554
0.399723
0.388949
0.37823
0.367562
0.356944
0.346371
0.335842
0.325354
0.314905
0.304493
0.294115
0.283771
0.273458
0.263175
0.252919
0.24269
0.232487
0.222306
0.212149
0.202012
0.191896
0.181799
0.17172
0.161658
0.151612
0.141582
0.131566
0.121564
0.111575
0.1016
0.0916358
0.0816838
0.071743
0.061813
0.0518935
0.0419841
0.0320843
0.022194
0.0123126
0.00243988
-0.00742468
-0.0172814
-0.0271309
-0.0369734
-0.0468095
-0.0566397
-0.0664644
-0.0762842
-0.0860995
-0.0959108
-0.105718
-0.115523
-0.125325
-0.135124
-0.144921
-0.154716
-0.164509
-0.174297
0.174297
1.1205
1.1205
1.09748
1.06281
1.02576
0.98991
0.956725
0.926682
0.89969
0.875374
0.853258
0.832894
0.813902
0.795986
0.778922
0.762548
0.746746
0.731427
0.716527
0.701994
0.687788
0.673878
0.660236
0.64684
0.633668
0.620704
0.607933
0.59534
0.582913
0.57064
0.558513
0.546519
0.534652
0.522903
0.511266
0.499732
0.488297
0.476954
0.465697
0.454522
0.443424
0.432399
0.421442
0.41055
0.399719
0.388946
0.378227
0.36756
0.356941
0.346368
0.335839
0.325352
0.314903
0.304491
0.294113
0.283769
0.273456
0.263173
0.252918
0.242689
0.232485
0.222305
0.212148
0.202011
0.191895
0.181798
0.171719
0.161657
0.151611
0.141581
0.131565
0.121563
0.111575
0.101599
0.0916352
0.0816832
0.0717424
0.0618125
0.051893
0.0419836
0.0320839
0.0221935
0.0123122
0.00243948
-0.00742506
-0.0172818
-0.0271312
-0.0369737
-0.0468098
-0.05664
-0.0664647
-0.0762844
-0.0860997
-0.0959109
-0.105719
-0.115523
-0.125325
-0.135124
-0.144921
-0.154717
-0.164509
-0.174298
0.174298
1.12581
1.12581
1.0991
1.06279
1.02517
0.989143
0.955956
0.925992
0.899113
0.87491
0.852894
0.832609
0.81368
0.795809
0.778779
0.76243
0.746647
0.731343
0.716453
0.701929
0.687731
0.673827
0.660191
0.646799
0.633631
0.62067
0.607902
0.595312
0.582887
0.570617
0.558491
0.546499
0.534634
0.522887
0.51125
0.499718
0.488283
0.476941
0.465685
0.454511
0.443414
0.432389
0.421433
0.410542
0.399712
0.388939
0.37822
0.367553
0.356935
0.346363
0.335834
0.325347
0.314898
0.304486
0.294109
0.283766
0.273453
0.26317
0.252915
0.242686
0.232482
0.222302
0.212145
0.202009
0.191893
0.181796
0.171717
0.161655
0.15161
0.141579
0.131564
0.121562
0.111573
0.101598
0.0916339
0.0816819
0.0717412
0.0618113
0.0518919
0.0419825
0.0320829
0.0221926
0.0123113
0.00243861
-0.00742586
-0.0172825
-0.0271319
-0.0369744
-0.0468104
-0.0566405
-0.0664652
-0.0762849
-0.0861001
-0.0959113
-0.105719
-0.115523
-0.125325
-0.135124
-0.144922
-0.154717
-0.16451
-0.174301
0.174301
1.13539
1.13539
1.10159
1.06268
1.02422
0.987948
0.954779
0.924956
0.89826
0.874237
0.852376
0.832215
0.813378
0.795575
0.778594
0.762281
0.746524
0.731239
0.716365
0.701853
0.687665
0.673769
0.660139
0.646752
0.633589
0.620633
0.607869
0.595282
0.58286
0.570592
0.558468
0.546478
0.534614
0.522869
0.511234
0.499703
0.488269
0.476928
0.465673
0.4545
0.443404
0.43238
0.421424
0.410533
0.399704
0.388931
0.378213
0.367547
0.356929
0.346357
0.335829
0.325342
0.314893
0.304482
0.294105
0.283762
0.273449
0.263166
0.252911
0.242683
0.232479
0.2223
0.212143
0.202007
0.191891
0.181794
0.171715
0.161653
0.151608
0.141578
0.131562
0.12156
0.111572
0.101596
0.0916326
0.0816807
0.07174
0.0618102
0.0518908
0.0419815
0.0320819
0.0221917
0.0123105
0.00243787
-0.00742654
-0.0172832
-0.0271325
-0.0369749
-0.0468109
-0.0566409
-0.0664655
-0.0762852
-0.0861003
-0.0959115
-0.105719
-0.115524
-0.125325
-0.135125
-0.144922
-0.154717
-0.164511
-0.174303
0.174303
1.15036
1.15036
1.10447
1.06245
1.02311
0.986624
0.953517
0.923878
0.897399
0.873578
0.851883
0.83185
0.813106
0.79537
0.778435
0.762156
0.746422
0.731155
0.716294
0.701792
0.687612
0.673722
0.660098
0.646715
0.633556
0.620603
0.607842
0.595257
0.582837
0.570571
0.558449
0.546461
0.534599
0.522854
0.51122
0.49969
0.488258
0.476917
0.465663
0.45449
0.443395
0.432371
0.421417
0.410526
0.399697
0.388925
0.378207
0.367541
0.356924
0.346352
0.335824
0.325337
0.314889
0.304478
0.294102
0.283758
0.273446
0.263163
0.252908
0.24268
0.232477
0.222297
0.21214
0.202004
0.191889
0.181792
0.171713
0.161652
0.151606
0.141576
0.13156
0.121559
0.111571
0.101595
0.0916315
0.0816796
0.0717391
0.0618093
0.05189
0.0419808
0.0320813
0.0221912
0.01231
0.00243744
-0.00742691
-0.0172835
-0.0271327
-0.0369751
-0.046811
-0.0566411
-0.0664656
-0.0762853
-0.0861004
-0.0959115
-0.105719
-0.115524
-0.125325
-0.135125
-0.144922
-0.154717
-0.164512
-0.174304
0.174304
1.1713
1.1713
1.10646
1.06223
1.0224
0.985827
0.952774
0.923247
0.896892
0.873182
0.85158
0.831617
0.812924
0.795225
0.778318
0.762058
0.74634
0.731084
0.716232
0.701737
0.687563
0.673678
0.660057
0.646679
0.633523
0.620573
0.607813
0.595231
0.582813
0.570549
0.558428
0.546442
0.534581
0.522837
0.511204
0.499675
0.488244
0.476904
0.465651
0.454479
0.443384
0.432362
0.421407
0.410517
0.399688
0.388917
0.3782
0.367534
0.356917
0.346346
0.335818
0.325332
0.314884
0.304473
0.294097
0.283754
0.273442
0.263159
0.252905
0.242677
0.232474
0.222294
0.212137
0.202002
0.191886
0.181789
0.171711
0.161649
0.151604
0.141574
0.131559
0.121557
0.111569
0.101593
0.09163
0.0816783
0.0717378
0.0618082
0.051889
0.0419799
0.0320805
0.0221904
0.0123094
0.00243688
-0.00742739
-0.0172839
-0.0271331
-0.0369754
-0.0468113
-0.0566412
-0.0664658
-0.0762854
-0.0861005
-0.0959116
-0.105719
-0.115524
-0.125325
-0.135125
-0.144922
-0.154717
-0.164512
-0.174304
0.174304
1.1713
1.1713
1.10646
1.06223
1.0224
0.985827
0.952774
0.923247
0.896892
0.873182
0.85158
0.831617
0.812924
0.795225
0.778318
0.762058
0.74634
0.731084
0.716232
0.701737
0.687563
0.673678
0.660057
0.646679
0.633523
0.620573
0.607813
0.595231
0.582813
0.570549
0.558428
0.546442
0.534581
0.522837
0.511204
0.499675
0.488244
0.476904
0.465651
0.454479
0.443384
0.432362
0.421407
0.410517
0.399688
0.388917
0.3782
0.367534
0.356917
0.346346
0.335818
0.325332
0.314884
0.304473
0.294097
0.283754
0.273442
0.263159
0.252905
0.242677
0.232474
0.222294
0.212137
0.202002
0.191886
0.181789
0.171711
0.161649
0.151604
0.141574
0.131559
0.121557
0.111569
0.101593
0.09163
0.0816783
0.0717378
0.0618082
0.051889
0.0419799
0.0320805
0.0221904
0.0123094
0.00243688
-0.00742739
-0.0172839
-0.0271331
-0.0369754
-0.0468113
-0.0566412
-0.0664658
-0.0762854
-0.0861005
-0.0959116
-0.105719
-0.115524
-0.125325
-0.135125
-0.144922
-0.154717
-0.164512
-0.174304
0.174304
SCALARS phi double
LOOKUP_TABLE phi
1
1
1
1
0.999999
0.999994
0.999983
0.999958
0.99991
0.99983
0.999706
0.999526
0.999278
0.998951
0.998536
0.998024
0.997407
0.996678
0.995834
0.994869
0.993783
0.992573
0.991241
0.989789
0.988217
0.986519
0.98468
0.982665
0.980419
0.977865
0.974908
0.97144
0.967346
0.962516
0.956846
0.95025
0.942657
0.93402
0.924309
0.913516
0.901653
0.888748
0.874844
0.859997
0.844271
0.82774
0.810482
0.792578
0.774112
0.755165
0.735818
0.71615
0.696236
0.676148
0.655952
0.63571
0.61548
0.595315
0.575262
0.555366
0.535665
0.516194
0.496984
0.478061
0.45945
0.441169
0.423237
0.405667
0.388471
0.371659
0.355237
0.339212
0.323586
0.308362
0.293541
0.279122
0.265104
0.251485
0.238263
0.225434
0.212995
0.200941
0.18927
0.177978
0.167061
0.156515
0.146338
0.136527
0.12708
0.117996
0.109273
0.100911
0.0929089
0.0852685
0.0779902
0.0710742
0.0645246
0.0583316
0.0525337
0.0469948
0.0422048
0.0363524
0.0363524
1
1
1
1
0.999999
0.999994
0.999983
0.999958
0.99991
0.99983
0.999706
0.999526
0.999278
0.998951
0.998536
0.998024
0.997407
0.996678
0.995834
0.994869
0.993783
0.992573
0.991241
0.989789
0.988217
0.986519
0.98468
0.982665
0.980419
0.977865
0.974908
0.97144
0.967346
0.962516
0.956846
0.95025
0.942657
0.93402
0.924309
0.913516
0.901653
0.888748
0.874844
0.859997
0.844271
0.82774
0.810482
0.792578
0.774112
0.755165
0.735818
0.71615
0.696236
0.676148
0.655952
0.63571
0.61548
0.595315
0.575262
0.555366
0.535665
0.516194
0.496984
0.478061
0.45945
0.441169
0.423237
0.405667
0.388471
0.371659
0.355237
0.339212
0.323586
0.308362
0.293541
0.279122
0.265104
0.251485
0.238263
0.225434
0.212995
0.200941
0.18927
0.177978
0.167061
0.156515
0.146338
0.136527
0.12708
0.117996
0.109273
0.100911
0.0929089
0.0852685
0.0779902
0.0710742
0.0645246
0.0583316
0.0525337
0.0469948
0.0422048
0.0363524
0.0363524
1
1
1
0.999996
0.999983
0.999954
0.999898
0.999804
0.999658
0.999447
0.999157
0.998778
0.9983
0.997714
0.997014
0.996196
0.995256
0.994192
0.993003
0.991689
0.990252
0.988693
0.987016
0.985224
0.98332
0.981309
0.979191
0.976962
0.974609
0.972109
0.969427
0.966514
0.963311
0.959751
0.955761
0.951265
0.946191
0.940474
0.934053
0.926881
0.918922
0.910152
0.90056
0.890147
0.878924
0.866915
0.854152
0.840673
0.826524
0.811755
0.796422
0.780578
0.764284
0.747595
0.730569
0.713263
0.695731
0.678026
0.660196
0.642289
0.624349
0.606417
0.588531
0.570727
0.553037
0.535489
0.51811
0.500924
0.483953
0.467214
0.450724
0.434497
0.418546
0.40288
0.387507
0.372433
0.357664
0.343203
0.32905
0.315207
0.301672
0.288445
0.275521
0.262897
0.250568
0.238531
0.226778
0.215305
0.204105
0.193174
0.182505
0.172093
0.161935
0.152029
0.142372
0.132964
0.123814
0.114902
0.106325
0.0977823
0.0903479
0.0804042
0.0804042
0.999997
1
0.99998
0.999897
0.999724
0.999434
0.998999
0.998397
0.997613
0.996636
0.995464
0.994099
0.992547
0.990816
0.988916
0.986859
0.984656
0.982317
0.979854
0.977278
0.974598
0.971826
0.968969
0.966037
0.963037
0.959976
0.956863
0.953701
0.950494
0.947242
0.94394
0.94058
0.937146
0.933618
0.929969
0.926165
0.922171
0.917947
0.913451
0.908642
0.90348
0.897925
0.891944
0.885507
0.87859
0.871173
0.863242
0.854792
0.845821
0.836333
0.826337
0.815848
0.804883
0.793465
0.781618
0.769369
0.756748
0.743785
0.730511
0.716959
0.70316
0.689147
0.674951
0.660602
0.64613
0.631565
0.616934
0.602262
0.587575
0.572895
0.558246
0.543647
0.529117
0.514673
0.50033
0.486103
0.472004
0.458042
0.444228
0.430567
0.417066
0.403727
0.390553
0.377544
0.364699
0.352013
0.339483
0.327102
0.314861
0.302753
0.290766
0.278888
0.267107
0.255409
0.243784
0.232215
0.220708
0.209203
0.197871
0.186144
0.175882
0.161122
0.161122
0.999999
1
0.99943
0.998224
0.996402
0.994008
0.991093
0.987716
0.983939
0.979828
0.975446
0.970853
0.966103
0.961239
0.9563
0.951318
0.946317
0.94132
0.936342
0.931396
0.926494
0.921643
0.91685
0.91212
0.907456
0.902862
0.898338