# vtk DataFile Version 3.0
FlowField
ASCII
DATASET STRUCTURED_GRID
DIMENSIONS 103 13 1 
POINTS 1339 double
0 0 0
0.3 0 0
0.6 0 0
0.9 0 0
1.2 0 0
1.5 0 0
1.8 0 0
2.1 0 0
2.4 0 0
2.7 0 0
3 0 0
3.3 0 0
3.6 0 0
3.9 0 0
4.2 0 0
4.5 0 0
4.8 0 0
5.1 0 0
5.4 0 0
5.7 0 0
6 0 0
6.3 0 0
6.6 0 0
6.9 0 0
7.2 0 0
7.5 0 0
7.8 0 0
8.1 0 0
8.4 0 0
8.7 0 0
9 0 0
9.3 0 0
9.6 0 0
9.9 0 0
10.2 0 0
10.5 0 0
10.8 0 0
11.1 0 0
11.4 0 0
11.7 0 0
12 0 0
12.3 0 0
12.6 0 0
12.9 0 0
13.2 0 0
13.5 0 0
13.8 0 0
14.1 0 0
14.4 0 0
14.7 0 0
15 0 0
15.3 0 0
15.6 0 0
15.9 0 0
16.2 0 0
16.5 0 0
16.8 0 0
17.1 0 0
17.4 0 0
17.7 0 0
18 0 0
18.3 0 0
18.6 0 0
18.9 0 0
19.2 0 0
19.5 0 0
19.8 0 0
20.1 0 0
20.4 0 0
20.7 0 0
21 0 0
21.3 0 0
21.6 0 0
21.9 0 0
22.2 0 0
22.5 0 0
22.8 0 0
23.1 0 0
23.4 0 0
23.7 0 0
24 0 0
24.3 0 0
24.6 0 0
24.9 0 0
25.2 0 0
25.5 0 0
25.8 0 0
26.1 0 0
26.4 0 0
26.7 0 0
27 0 0
27.3 0 0
27.6 0 0
27.9 0 0
28.2 0 0
28.5 0 0
28.8 0 0
29.1 0 0
29.4 0 0
29.7 0 0
30 0 0
30.3 0 0
30.6 0 0
0 0.1 0
0.3 0.1 0
0.6 0.1 0
0.9 0.1 0
1.2 0.1 0
1.5 0.1 0
1.8 0.1 0
2.1 0.1 0
2.4 0.1 0
2.7 0.1 0
3 0.1 0
3.3 0.1 0
3.6 0.1 0
3.9 0.1 0
4.2 0.1 0
4.5 0.1 0
4.8 0.1 0
5.1 0.1 0
5.4 0.1 0
5.7 0.1 0
6 0.1 0
6.3 0.1 0
6.6 0.1 0
6.9 0.1 0
7.2 0.1 0
7.5 0.1 0
7.8 0.1 0
8.1 0.1 0
8.4 0.1 0
8.7 0.1 0
9 0.1 0
9.3 0.1 0
9.6 0.1 0
9.9 0.1 0
10.2 0.1 0
10.5 0.1 0
10.8 0.1 0
11.1 0.1 0
11.4 0.1 0
11.7 0.1 0
12 0.1 0
12.3 0.1 0
12.6 0.1 0
12.9 0.1 0
13.2 0.1 0
13.5 0.1 0
13.8 0.1 0
14.1 0.1 0
14.4 0.1 0
14.7 0.1 0
15 0.1 0
15.3 0.1 0
15.6 0.1 0
15.9 0.1 0
16.2 0.1 0
16.5 0.1 0
16.8 0.1 0
17.1 0.1 0
17.4 0.1 0
17.7 0.1 0
18 0.1 0
18.3 0.1 0
18.6 0.1 0
18.9 0.1 0
19.2 0.1 0
19.5 0.1 0
19.8 0.1 0
20.1 0.1 0
20.4 0.1 0
20.7 0.1 0
21 0.1 0
21.3 0.1 0
21.6 0.1 0
21.9 0.1 0
22.2 0.1 0
22.5 0.1 0
22.8 0.1 0
23.1 0.1 0
23.4 0.1 0
23.7 0.1 0
24 0.1 0
24.3 0.1 0
24.6 0.1 0
24.9 0.1 0
25.2 0.1 0
25.5 0.1 0
25.8 0.1 0
26.1 0.1 0
26.4 0.1 0
26.7 0.1 0
27 0.1 0
27.3 0.1 0
27.6 0.1 0
27.9 0.1 0
28.2 0.1 0
28.5 0.1 0
28.8 0.1 0
29.1 0.1 0
29.4 0.1 0
29.7 0.1 0
30 0.1 0
30.3 0.1 0
30.6 0.1 0
0 0.2 0
0.3 0.2 0
0.6 0.2 0
0.9 0.2 0
1.2 0.2 0
1.5 0.2 0
1.8 0.2 0
2.1 0.2 0
2.4 0.2 0
2.7 0.2 0
3 0.2 0
3.3 0.2 0
3.6 0.2 0
3.9 0.2 0
4.2 0.2 0
4.5 0.2 0
4.8 0.2 0
5.1 0.2 0
5.4 0.2 0
5.7 0.2 0
6 0.2 0
6.3 0.2 0
6.6 0.2 0
6.9 0.2 0
7.2 0.2 0
7.5 0.2 0
7.8 0.2 0
8.1 0.2 0
8.4 0.2 0
8.7 0.2 0
9 0.2 0
9.3 0.2 0
9.6 0.2 0
9.9 0.2 0
10.2 0.2 0
10.5 0.2 0
10.8 0.2 0
11.1 0.2 0
11.4 0.2 0
11.7 0.2 0
12 0.2 0
12.3 0.2 0
12.6 0.2 0
12.9 0.2 0
13.2 0.2 0
13.5 0.2 0
13.8 0.2 0
14.1 0.2 0
14.4 0.2 0
14.7 0.2 0
15 0.2 0
15.3 0.2 0
15.6 0.2 0
15.9 0.2 0
16.2 0.2 0
16.5 0.2 0
16.8 0.2 0
17.1 0.2 0
17.4 0.2 0
17.7 0.2 0
18 0.2 0
18.3 0.2 0
18.6 0.2 0
18.9 0.2 0
19.2 0.2 0
19.5 0.2 0
19.8 0.2 0
20.1 0.2 0
20.4 0.2 0
20.7 0.2 0
21 0.2 0
21.3 0.2 0
21.6 0.2 0
21.9 0.2 0
22.2 0.2 0
22.5 0.2 0
22.8 0.2 0
23.1 0.2 0
23.4 0.2 0
23.7 0.2 0
24 0.2 0
24.3 0.2 0
24.6 0.2 0
24.9 0.2 0
25.2 0.2 0
25.5 0.2 0
25.8 0.2 0
26.1 0.2 0
26.4 0.2 0
26.7 0.2 0
27 0.2 0
27.3 0.2 0
27.6 0.2 0
27.9 0.2 0
28.2 0.2 0
28.5 0.2 0
28.8 0.2 0
29.1 0.2 0
29.4 0.2 0
29.7 0.2 0
30 0.2 0
30.3 0.2 0
30.6 0.2 0
0 0.3 0
0.3 0.3 0
0.6 0.3 0
0.9 0.3 0
1.2 0.3 0
1.5 0.3 0
1.8 0.3 0
2.1 0.3 0
2.4 0.3 0
2.7 0.3 0
3 0.3 0
3.3 0.3 0
3.6 0.3 0
3.9 0.3 0
4.2 0.3 0
4.5 0.3 0
4.8 0.3 0
5.1 0.3 0
5.4 0.3 0
5.7 0.3 0
6 0.3 0
6.3 0.3 0
6.6 0.3 0
6.9 0.3 0
7.2 0.3 0
7.5 0.3 0
7.8 0.3 0
8.1 0.3 0
8.4 0.3 0
8.7 0.3 0
9 0.3 0
9.3 0.3 0
9.6 0.3 0
9.9 0.3 0
10.2 0.3 0
10.5 0.3 0
10.8 0.3 0
11.1 0.3 0
11.4 0.3 0
11.7 0.3 0
12 0.3 0
12.3 0.3 0
12.6 0.3 0
12.9 0.3 0
13.2 0.3 0
13.5 0.3 0
13.8 0.3 0
14.1 0.3 0
14.4 0.3 0
14.7 0.3 0
15 0.3 0
15.3 0.3 0
15.6 0.3 0
15.9 0.3 0
16.2 0.3 0
16.5 0.3 0
16.8 0.3 0
17.1 0.3 0
17.4 0.3 0
17.7 0.3 0
18 0.3 0
18.3 0.3 0
18.6 0.3 0
18.9 0.3 0
19.2 0.3 0
19.5 0.3 0
19.8 0.3 0
20.1 0.3 0
20.4 0.3 0
20.7 0.3 0
21 0.3 0
21.3 0.3 0
21.6 0.3 0
21.9 0.3 0
22.2 0.3 0
22.5 0.3 0
22.8 0.3 0
23.1 0.3 0
23.4 0.3 0
23.7 0.3 0
24 0.3 0
24.3 0.3 0
24.6 0.3 0
24.9 0.3 0
25.2 0.3 0
25.5 0.3 0
25.8 0.3 0
26.1 0.3 0
26.4 0.3 0
26.7 0.3 0
27 0.3 0
27.3 0.3 0
27.6 0.3 0
27.9 0.3 0
28.2 0.3 0
28.5 0.3 0
28.8 0.3 0
29.1 0.3 0
29.4 0.3 0
29.7 0.3 0
30 0.3 0
30.3 0.3 0
30.6 0.3 0
0 0.4 0
0.3 0.4 0
0.6 0.4 0
0.9 0.4 0
1.2 0.4 0
1.5 0.4 0
1.8 0.4 0
2.1 0.4 0
2.4 0.4 0
2.7 0.4 0
3 0.4 0
3.3 0.4 0
3.6 0.4 0
3.9 0.4 0
4.2 0.4 0
4.5 0.4 0
4.8 0.4 0
5.1 0.4 0
5.4 0.4 0
5.7 0.4 0
6 0.4 0
6.3 0.4 0
6.6 0.4 0
6.9 0.4 0
7.2 0.4 0
7.5 0.4 0
7.8 0.4 0
8.1 0.4 0
8.4 0.4 0
8.7 0.4 0
9 0.4 0
9.3 0.4 0
9.6 0.4 0
9.9 0.4 0
10.2 0.4 0
10.5 0.4 0
10.8 0.4 0
11.1 0.4 0
11.4 0.4 0
11.7 0.4 0
12 0.4 0
12.3 0.4 0
12.6 0.4 0
12.9 0.4 0
13.2 0.4 0
13.5 0.4 0
13.8 0.4 0
14.1 0.4 0
14.4 0.4 0
14.7 0.4 0
15 0.4 0
15.3 0.4 0
15.6 0.4 0
15.9 0.4 0
16.2 0.4 0
16.5 0.4 0
16.8 0.4 0
17.1 0.4 0
17.4 0.4 0
17.7 0.4 0
18 0.4 0
18.3 0.4 0
18.6 0.4 0
18.9 0.4 0
19.2 0.4 0
19.5 0.4 0
19.8 0.4 0
20.1 0.4 0
20.4 0.4 0
20.7 0.4 0
21 0.4 0
21.3 0.4 0
21.6 0.4 0
21.9 0.4 0
22.2 0.4 0
22.5 0.4 0
22.8 0.4 0
23.1 0.4 0
23.4 0.4 0
23.7 0.4 0
24 0.4 0
24.3 0.4 0
24.6 0.4 0
24.9 0.4 0
25.2 0.4 0
25.5 0.4 0
25.8 0.4 0
26.1 0.4 0
26.4 0.4 0
26.7 0.4 0
27 0.4 0
27.3 0.4 0
27.6 0.4 0
27.9 0.4 0
28.2 0.4 0
28.5 0.4 0
28.8 0.4 0
29.1 0.4 0
29.4 0.4 0
29.7 0.4 0
30 0.4 0
30.3 0.4 0
30.6 0.4 0
0 0.5 0
0.3 0.5 0
0.6 0.5 0
0.9 0.5 0
1.2 0.5 0
1.5 0.5 0
1.8 0.5 0
2.1 0.5 0
2.4 0.5 0
2.7 0.5 0
3 0.5 0
3.3 0.5 0
3.6 0.5 0
3.9 0.5 0
4.2 0.5 0
4.5 0.5 0
4.8 0.5 0
5.1 0.5 0
5.4 0.5 0
5.7 0.5 0
6 0.5 0
6.3 0.5 0
6.6 0.5 0
6.9 0.5 0
7.2 0.5 0
7.5 0.5 0
7.8 0.5 0
8.1 0.5 0
8.4 0.5 0
8.7 0.5 0
9 0.5 0
9.3 0.5 0
9.6 0.5 0
9.9 0.5 0
10.2 0.5 0
10.5 0.5 0
10.8 0.5 0
11.1 0.5 0
11.4 0.5 0
11.7 0.5 0
12 0.5 0
12.3 0.5 0
12.6 0.5 0
12.9 0.5 0
13.2 0.5 0
13.5 0.5 0
13.8 0.5 0
14.1 0.5 0
14.4 0.5 0
14.7 0.5 0
15 0.5 0
15.3 0.5 0
15.6 0.5 0
15.9 0.5 0
16.2 0.5 0
16.5 0.5 0
16.8 0.5 0
17.1 0.5 0
17.4 0.5 0
17.7 0.5 0
18 0.5 0
18.3 0.5 0
18.6 0.5 0
18.9 0.5 0
19.2 0.5 0
19.5 0.5 0
19.8 0.5 0
20.1 0.5 0
20.4 0.5 0
20.7 0.5 0
21 0.5 0
21.3 0.5 0
21.6 0.5 0
21.9 0.5 0
22.2 0.5 0
22.5 0.5 0
22.8 0.5 0
23.1 0.5 0
23.4 0.5 0
23.7 0.5 0
24 0.5 0
24.3 0.5 0
24.6 0.5 0
24.9 0.5 0
25.2 0.5 0
25.5 0.5 0
25.8 0.5 0
26.1 0.5 0
26.4 0.5 0
26.7 0.5 0
27 0.5 0
27.3 0.5 0
27.6 0.5 0
27.9 0.5 0
28.2 0.5 0
28.5 0.5 0
28.8 0.5 0
29.1 0.5 0
29.4 0.5 0
29.7 0.5 0
30 0.5 0
30.3 0.5 0
30.6 0.5 0
0 0.6 0
0.3 0.6 0
0.6 0.6 0
0.9 0.6 0
1.2 0.6 0
1.5 0.6 0
1.8 0.6 0
2.1 0.6 0
2.4 0.6 0
2.7 0.6 0
3 0.6 0
3.3 0.6 0
3.6 0.6 0
3.9 0.6 0
4.2 0.6 0
4.5 0.6 0
4.8 0.6 0
5.1 0.6 0
5.4 0.6 0
5.7 0.6 0
6 0.6 0
6.3 0.6 0
6.6 0.6 0
6.9 0.6 0
7.2 0.6 0
7.5 0.6 0
7.8 0.6 0
8.1 0.6 0
8.4 0.6 0
8.7 0.6 0
9 0.6 0
9.3 0.6 0
9.6 0.6 0
9.9 0.6 0
10.2 0.6 0
10.5 0.6 0
10.8 0.6 0
11.1 0.6 0
11.4 0.6 0
11.7 0.6 0
12 0.6 0
12.3 0.6 0
12.6 0.6 0
12.9 0.6 0
13.2 0.6 0
13.5 0.6 0
13.8 0.6 0
14.1 0.6 0
14.4 0.6 0
14.7 0.6 0
15 0.6 0
15.3 0.6 0
15.6 0.6 0
15.9 0.6 0
16.2 0.6 0
16.5 0.6 0
16.8 0.6 0
17.1 0.6 0
17.4 0.6 0
17.7 0.6 0
18 0.6 0
18.3 0.6 0
18.6 0.6 0
18.9 0.6 0
19.2 0.6 0
19.5 0.6 0
19.8 0.6 0
20.1 0.6 0
20.4 0.6 0
20.7 0.6 0
21 0.6 0
21.3 0.6 0
21.6 0.6 0
21.9 0.6 0
22.2 0.6 0
22.5 0.6 0
22.8 0.6 0
23.1 0.6 0
23.4 0.6 0
23.7 0.6 0
24 0.6 0
24.3 0.6 0
24.6 0.6 0
24.9 0.6 0
25.2 0.6 0
25.5 0.6 0
25.8 0.6 0
26.1 0.6 0
26.4 0.6 0
26.7 0.6 0
27 0.6 0
27.3 0.6 0
27.6 0.6 0
27.9 0.6 0
28.2 0.6 0
28.5 0.6 0
28.8 0.6 0
29.1 0.6 0
29.4 0.6 0
29.7 0.6 0
30 0.6 0
30.3 0.6 0
30.6 0.6 0
0 0.7 0
0.3 0.7 0
0.6 0.7 0
0.9 0.7 0
1.2 0.7 0
1.5 0.7 0
1.8 0.7 0
2.1 0.7 0
2.4 0.7 0
2.7 0.7 0
3 0.7 0
3.3 0.7 0
3.6 0.7 0
3.9 0.7 0
4.2 0.7 0
4.5 0.7 0
4.8 0.7 0
5.1 0.7 0
5.4 0.7 0
5.7 0.7 0
6 0.7 0
6.3 0.7 0
6.6 0.7 0
6.9 0.7 0
7.2 0.7 0
7.5 0.7 0
7.8 0.7 0
8.1 0.7 0
8.4 0.7 0
8.7 0.7 0
9 0.7 0
9.3 0.7 0
9.6 0.7 0
9.9 0.7 0
10.2 0.7 0
10.5 0.7 0
10.8 0.7 0
11.1 0.7 0
11.4 0.7 0
11.7 0.7 0
12 0.7 0
12.3 0.7 0
12.6 0.7 0
12.9 0.7 0
13.2 0.7 0
13.5 0.7 0
13.8 0.7 0
14.1 0.7 0
14.4 0.7 0
14.7 0.7 0
15 0.7 0
15.3 0.7 0
15.6 0.7 0
15.9 0.7 0
16.2 0.7 0
16.5 0.7 0
16.8 0.7 0
17.1 0.7 0
17.4 0.7 0
17.7 0.7 0
18 0.7 0
18.3 0.7 0
18.6 0.7 0
18.9 0.7 0
19.2 0.7 0
19.5 0.7 0
19.8 0.7 0
20.1 0.7 0
20.4 0.7 0
20.7 0.7 0
21 0.7 0
21.3 0.7 0
21.6 0.7 0
21.9 0.7 0
22.2 0.7 0
22.5 0.7 0
22.8 0.7 0
23.1 0.7 0
23.4 0.7 0
23.7 0.7 0
24 0.7 0
24.3 0.7 0
24.6 0.7 0
24.9 0.7 0
25.2 0.7 0
25.5 0.7 0
25.8 0.7 0
26.1 0.7 0
26.4 0.7 0
26.7 0.7 0
27 0.7 0
27.3 0.7 0
27.6 0.7 0
27.9 0.7 0
28.2 0.7 0
28.5 0.7 0
28.8 0.7 0
29.1 0.7 0
29.4 0.7 0
29.7 0.7 0
30 0.7 0
30.3 0.7 0
30.6 0.7 0
0 0.8 0
0.3 0.8 0
0.6 0.8 0
0.9 0.8 0
1.2 0.8 0
1.5 0.8 0
1.8 0.8 0
2.1 0.8 0
2.4 0.8 0
2.7 0.8 0
3 0.8 0
3.3 0.8 0
3.6 0.8 0
3.9 0.8 0
4.2 0.8 0
4.5 0.8 0
4.8 0.8 0
5.1 0.8 0
5.4 0.8 0
5.7 0.8 0
6 0.8 0
6.3 0.8 0
6.6 0.8 0
6.9 0.8 0
7.2 0.8 0
7.5 0.8 0
7.8 0.8 0
8.1 0.8 0
8.4 0.8 0
8.7 0.8 0
9 0.8 0
9.3 0.8 0
9.6 0.8 0
9.9 0.8 0
10.2 0.8 0
10.5 0.8 0
10.8 0.8 0
11.1 0.8 0
11.4 0.8 0
11.7 0.8 0
12 0.8 0
12.3 0.8 0
12.6 0.8 0
12.9 0.8 0
13.2 0.8 0
13.5 0.8 0
13.8 0.8 0
14.1 0.8 0
14.4 0.8 0
14.7 0.8 0
15 0.8 0
15.3 0.8 0
15.6 0.8 0
15.9 0.8 0
16.2 0.8 0
16.5 0.8 0
16.8 0.8 0
17.1 0.8 0
17.4 0.8 0
17.7 0.8 0
18 0.8 0
18.3 0.8 0
18.6 0.8 0
18.9 0.8 0
19.2 0.8 0
19.5 0.8 0
19.8 0.8 0
20.1 0.8 0
20.4 0.8 0
20.7 0.8 0
21 0.8 0
21.3 0.8 0
21.6 0.8 0
21.9 0.8 0
22.2 0.8 0
22.5 0.8 0
22.8 0.8 0
23.1 0.8 0
23.4 0.8 0
23.7 0.8 0
24 0.8 0
24.3 0.8 0
24.6 0.8 0
24.9 0.8 0
25.2 0.8 0
25.5 0.8 0
25.8 0.8 0
26.1 0.8 0
26.4 0.8 0
26.7 0.8 0
27 0.8 0
27.3 0.8 0
27.6 0.8 0
27.9 0.8 0
28.2 0.8 0
28.5 0.8 0
28.8 0.8 0
29.1 0.8 0
29.4 0.8 0
29.7 0.8 0
30 0.8 0
30.3 0.8 0
30.6 0.8 0
0 0.9 0
0.3 0.9 0
0.6 0.9 0
0.9 0.9 0
1.2 0.9 0
1.5 0.9 0
1.8 0.9 0
2.1 0.9 0
2.4 0.9 0
2.7 0.9 0
3 0.9 0
3.3 0.9 0
3.6 0.9 0
3.9 0.9 0
4.2 0.9 0
4.5 0.9 0
4.8 0.9 0
5.1 0.9 0
5.4 0.9 0
5.7 0.9 0
6 0.9 0
6.3 0.9 0
6.6 0.9 0
6.9 0.9 0
7.2 0.9 0
7.5 0.9 0
7.8 0.9 0
8.1 0.9 0
8.4 0.9 0
8.7 0.9 0
9 0.9 0
9.3 0.9 0
9.6 0.9 0
9.9 0.9 0
10.2 0.9 0
10.5 0.9 0
10.8 0.9 0
11.1 0.9 0
11.4 0.9 0
11.7 0.9 0
12 0.9 0
12.3 0.9 0
12.6 0.9 0
12.9 0.9 0
13.2 0.9 0
13.5 0.9 0
13.8 0.9 0
14.1 0.9 0
14.4 0.9 0
14.7 0.9 0
15 0.9 0
15.3 0.9 0
15.6 0.9 0
15.9 0.9 0
16.2 0.9 0
16.5 0.9 0
16.8 0.9 0
17.1 0.9 0
17.4 0.9 0
17.7 0.9 0
18 0.9 0
18.3 0.9 0
18.6 0.9 0
18.9 0.9 0
19.2 0.9 0
19.5 0.9 0
19.8 0.9 0
20.1 0.9 0
20.4 0.9 0
20.7 0.9 0
21 0.9 0
21.3 0.9 0
21.6 0.9 0
21.9 0.9 0
22.2 0.9 0
22.5 0.9 0
22.8 0.9 0
23.1 0.9 0
23.4 0.9 0
23.7 0.9 0
24 0.9 0
24.3 0.9 0
24.6 0.9 0
24.9 0.9 0
25.2 0.9 0
25.5 0.9 0
25.8 0.9 0
26.1 0.9 0
26.4 0.9 0
26.7 0.9 0
27 0.9 0
27.3 0.9 0
27.6 0.9 0
27.9 0.9 0
28.2 0.9 0
28.5 0.9 0
28.8 0.9 0
29.1 0.9 0
29.4 0.9 0
29.7 0.9 0
30 0.9 0
30.3 0.9 0
30.6 0.9 0
0 1 0
0.3 1 0
0.6 1 0
0.9 1 0
1.2 1 0
1.5 1 0
1.8 1 0
2.1 1 0
2.4 1 0
2.7 1 0
3 1 0
3.3 1 0
3.6 1 0
3.9 1 0
4.2 1 0
4.5 1 0
4.8 1 0
5.1 1 0
5.4 1 0
5.7 1 0
6 1 0
6.3 1 0
6.6 1 0
6.9 1 0
7.2 1 0
7.5 1 0
7.8 1 0
8.1 1 0
8.4 1 0
8.7 1 0
9 1 0
9.3 1 0
9.6 1 0
9.9 1 0
10.2 1 0
10.5 1 0
10.8 1 0
11.1 1 0
11.4 1 0
11.7 1 0
12 1 0
12.3 1 0
12.6 1 0
12.9 1 0
13.2 1 0
13.5 1 0
13.8 1 0
14.1 1 0
14.4 1 0
14.7 1 0
15 1 0
15.3 1 0
15.6 1 0
15.9 1 0
16.2 1 0
16.5 1 0
16.8 1 0
17.1 1 0
17.4 1 0
17.7 1 0
18 1 0
18.3 1 0
18.6 1 0
18.9 1 0
19.2 1 0
19.5 1 0
19.8 1 0
20.1 1 0
20.4 1 0
20.7 1 0
21 1 0
21.3 1 0
21.6 1 0
21.9 1 0
22.2 1 0
22.5 1 0
22.8 1 0
23.1 1 0
23.4 1 0
23.7 1 0
24 1 0
24.3 1 0
24.6 1 0
24.9 1 0
25.2 1 0
25.5 1 0
25.8 1 0
26.1 1 0
26.4 1 0
26.7 1 0
27 1 0
27.3 1 0
27.6 1 0
27.9 1 0
28.2 1 0
28.5 1 0
28.8 1 0
29.1 1 0
29.4 1 0
29.7 1 0
30 1 0
30.3 1 0
30.6 1 0
0 1.1 0
0.3 1.1 0
0.6 1.1 0
0.9 1.1 0
1.2 1.1 0
1.5 1.1 0
1.8 1.1 0
2.1 1.1 0
2.4 1.1 0
2.7 1.1 0
3 1.1 0
3.3 1.1 0
3.6 1.1 0
3.9 1.1 0
4.2 1.1 0
4.5 1.1 0
4.8 1.1 0
5.1 1.1 0
5.4 1.1 0
5.7 1.1 0
6 1.1 0
6.3 1.1 0
6.6 1.1 0
6.9 1.1 0
7.2 1.1 0
7.5 1.1 0
7.8 1.1 0
8.1 1.1 0
8.4 1.1 0
8.7 1.1 0
9 1.1 0
9.3 1.1 0
9.6 1.1 0
9.9 1.1 0
10.2 1.1 0
10.5 1.1 0
10.8 1.1 0
11.1 1.1 0
11.4 1.1 0
11.7 1.1 0
12 1.1 0
12.3 1.1 0
12.6 1.1 0
12.9 1.1 0
13.2 1.1 0
13.5 1.1 0
13.8 1.1 0
14.1 1.1 0
14.4 1.1 0
14.7 1.1 0
15 1.1 0
15.3 1.1 0
15.6 1.1 0
15.9 1.1 0
16.2 1.1 0
16.5 1.1 0
16.8 1.1 0
17.1 1.1 0
17.4 1.1 0
17.7 1.1 0
18 1.1 0
18.3 1.1 0
18.6 1.1 0
18.9 1.1 0
19.2 1.1 0
19.5 1.1 0
19.8 1.1 0
20.1 1.1 0
20.4 1.1 0
20.7 1.1 0
21 1.1 0
21.3 1.1 0
21.6 1.1 0
21.9 1.1 0
22.2 1.1 0
22.5 1.1 0
22.8 1.1 0
23.1 1.1 0
23.4 1.1 0
23.7 1.1 0
24 1.1 0
24.3 1.1 0
24.6 1.1 0
24.9 1.1 0
25.2 1.1 0
25.5 1.1 0
25.8 1.1 0
26.1 1.1 0
26.4 1.1 0
26.7 1.1 0
27 1.1 0
27.3 1.1 0
27.6 1.1 0
27.9 1.1 0
28.2 1.1 0
28.5 1.1 0
28.8 1.1 0
29.1 1.1 0
29.4 1.1 0
29.7 1.1 0
30 1.1 0
30.3 1.1 0
30.6 1.1 0
0 1.2 0
0.3 1.2 0
0.6 1.2 0
0.9 1.2 0
1.2 1.2 0
1.5 1.2 0
1.8 1.2 0
2.1 1.2 0
2.4 1.2 0
2.7 1.2 0
3 1.2 0
3.3 1.2 0
3.6 1.2 0
3.9 1.2 0
4.2 1.2 0
4.5 1.2 0
4.8 1.2 0
5.1 1.2 0
5.4 1.2 0
5.7 1.2 0
6 1.2 0
6.3 1.2 0
6.6 1.2 0
6.9 1.2 0
7.2 1.2 0
7.5 1.2 0
7.8 1.2 0
8.1 1.2 0
8.4 1.2 0
8.7 1.2 0
9 1.2 0
9.3 1.2 0
9.6 1.2 0
9.9 1.2 0
10.2 1.2 0
10.5 1.2 0
10.8 1.2 0
11.1 1.2 0
11.4 1.2 0
11.7 1.2 0
12 1.2 0
12.3 1.2 0
12.6 1.2 0
12.9 1.2 0
13.2 1.2 0
13.5 1.2 0
13.8 1.2 0
14.1 1.2 0
14.4 1.2 0
14.7 1.2 0
15 1.2 0
15.3 1.2 0
15.6 1.2 0
15.9 1.2 0
16.2 1.2 0
16.5 1.2 0
16.8 1.2 0
17.1 1.2 0
17.4 1.2 0
17.7 1.2 0
18 1.2 0
18.3 1.2 0
18.6 1.2 0
18.9 1.2 0
19.2 1.2 0
19.5 1.2 0
19.8 1.2 0
20.1 1.2 0
20.4 1.2 0
20.7 1.2 0
21 1.2 0
21.3 1.2 0
21.6 1.2 0
21.9 1.2 0
22.2 1.2 0
22.5 1.2 0
22.8 1.2 0
23.1 1.2 0
23.4 1.2 0
23.7 1.2 0
24 1.2 0
24.3 1.2 0
24.6 1.2 0
24.9 1.2 0
25.2 1.2 0
25.5 1.2 0
25.8 1.2 0
26.1 1.2 0
26.4 1.2 0
26.7 1.2 0
27 1.2 0
27.3 1.2 0
27.6 1.2 0
27.9 1.2 0
28.2 1.2 0
28.5 1.2 0
28.8 1.2 0
29.1 1.2 0
29.4 1.2 0
29.7 1.2 0
30 1.2 0
30.3 1.2 0
30.6 1.2 0

POINT_DATA 1339

SCALARS pressure double
LOOKUP_TABLE pressure
1.17107
1.17107
1.10623
1.06199
1.02217
0.985592
0.95254
0.923012
0.896656
0.872947
0.851345
0.831382
0.812689
0.79499
0.778083
0.761823
0.746105
0.730849
0.715997
0.701502
0.687328
0.673443
0.659822
0.646444
0.633288
0.620338
0.607578
0.594996
0.582578
0.570314
0.558193
0.546207
0.534346
0.522602
0.510969
0.49944
0.488009
0.476669
0.465416
0.454244
0.443149
0.432127
0.421172
0.410282
0.399453
0.388682
0.377965
0.367299
0.356682
0.34611
0.335582
0.325095
0.314647
0.304235
0.293859
0.283516
0.273205
0.262926
0.252676
0.242454
0.232261
0.222095
0.211955
0.201841
0.191752
0.181686
0.171643
0.161622
0.151622
0.14164
0.131676
0.121729
0.111796
0.101877
0.09197
0.0820732
0.0721855
0.0623057
0.0524326
0.0425652
0.0327025
0.0228437
0.0129881
0.00313496
-0.00671608
-0.0165655
-0.0264135
-0.0362606
-0.0461069
-0.0559527
-0.0657981
-0.0756432
-0.0854881
-0.0953327
-0.105177
-0.115022
-0.124866
-0.13471
-0.144554
-0.154399
-0.164243
-0.174085
0.174085
1.17107
1.17107
1.10623
1.06199
1.02217
0.985592
0.95254
0.923012
0.896656
0.872947
0.851345
0.831382
0.812689
0.79499
0.778083
0.761823
0.746105
0.730849
0.715997
0.701502
0.687328
0.673443
0.659822
0.646444
0.633288
0.620338
0.607578
0.594996
0.582578
0.570314
0.558193
0.546207
0.534346
0.522602
0.510969
0.49944
0.488009
0.476669
0.465416
0.454244
0.443149
0.432127
0.421172
0.410282
0.399453
0.388682
0.377965
0.367299
0.356682
0.34611
0.335582
0.325095
0.314647
0.304235
0.293859
0.283516
0.273205
0.262926
0.252676
0.242454
0.232261
0.222095
0.211955
0.201841
0.191752
0.181686
0.171643
0.161622
0.151622
0.14164
0.131676
0.121729
0.111796
0.101877
0.09197
0.0820732
0.0721855
0.0623057
0.0524326
0.0425652
0.0327025
0.0228437
0.0129881
0.00313496
-0.00671608
-0.0165655
-0.0264135
-0.0362606
-0.0461069
-0.0559527
-0.0657981
-0.0756432
-0.0854881
-0.0953327
-0.105177
-0.115022
-0.124866
-0.13471
-0.144554
-0.154399
-0.164243
-0.174085
0.174085
1.15013
1.15013
1.10424
1.06222
1.02287
0.986388
0.953283
0.923643
0.897164
0.873342
0.851649
0.831616
0.812871
0.795134
0.7782
0.761921
0.746187
0.73092
0.716059
0.701557
0.687377
0.673487
0.659862
0.64648
0.633321
0.620368
0.607606
0.595022
0.582602
0.570336
0.558214
0.546226
0.534363
0.522619
0.510985
0.499455
0.488023
0.476682
0.465428
0.454255
0.44316
0.432136
0.421182
0.410291
0.399462
0.38869
0.377972
0.367306
0.356688
0.346116
0.335588
0.3251
0.314652
0.30424
0.293864
0.28352
0.273209
0.262929
0.252679
0.242458
0.232264
0.222098
0.211958
0.201843
0.191754
0.181688
0.171645
0.161623
0.151622
0.141641
0.131677
0.121729
0.111797
0.101877
0.0919701
0.0820733
0.0721855
0.0623057
0.0524326
0.0425652
0.0327025
0.0228437
0.012988
0.00313493
-0.0067161
-0.0165655
-0.0264136
-0.0362606
-0.0461069
-0.0559527
-0.0657981
-0.0756432
-0.0854881
-0.0953327
-0.105177
-0.115021
-0.124866
-0.13471
-0.144554
-0.154399
-0.164243
-0.174085
0.174085
1.13515
1.13515
1.10136
1.06245
1.02398
0.987713
0.954544
0.924722
0.898025
0.874001
0.852141
0.83198
0.813142
0.795339
0.778359
0.762046
0.746289
0.731004
0.71613
0.701618
0.68743
0.673534
0.659904
0.646517
0.633354
0.620398
0.607634
0.595047
0.582625
0.570357
0.558233
0.546243
0.534379
0.522634
0.510999
0.499468
0.488034
0.476693
0.465438
0.454265
0.443169
0.432145
0.421189
0.410298
0.399468
0.388696
0.377978
0.367312
0.356694
0.346121
0.335593
0.325105
0.314656
0.304244
0.293867
0.283524
0.273213
0.262932
0.252682
0.24246
0.232266
0.2221
0.211959
0.201845
0.191755
0.181689
0.171646
0.161624
0.151623
0.141641
0.131677
0.12173
0.111797
0.101878
0.0919702
0.0820733
0.0721855
0.0623057
0.0524325
0.0425651
0.0327024
0.0228436
0.012988
0.00313488
-0.00671614
-0.0165655
-0.0264136
-0.0362606
-0.0461069
-0.0559527
-0.0657981
-0.0756432
-0.0854881
-0.0953327
-0.105177
-0.115021
-0.124866
-0.13471
-0.144554
-0.154399
-0.164243
-0.174085
0.174085
1.12558
1.12558
1.09887
1.06256
1.02494
0.988907
0.955721
0.925758
0.898878
0.874674
0.852658
0.832375
0.813445
0.795574
0.778544
0.762195
0.746412
0.731107
0.716218
0.701694
0.687496
0.673592
0.659956
0.646563
0.633396
0.620436
0.607667
0.595077
0.582652
0.570382
0.558256
0.546264
0.534399
0.522652
0.511015
0.499483
0.488048
0.476706
0.46545
0.454276
0.443179
0.432154
0.421198
0.410307
0.399476
0.388704
0.377985
0.367318
0.3567
0.346127
0.335598
0.32511
0.314661
0.304248
0.293871
0.283528
0.273216
0.262936
0.252685
0.242463
0.232269
0.222102
0.211962
0.201847
0.191757
0.181691
0.171648
0.161626
0.151625
0.141643
0.131679
0.121731
0.111798
0.101878
0.0919709
0.0820739
0.072186
0.0623061
0.0524329
0.0425654
0.0327026
0.0228438
0.0129881
0.00313498
-0.00671606
-0.0165654
-0.0264135
-0.0362606
-0.0461069
-0.0559527
-0.0657981
-0.0756432
-0.0854881
-0.0953327
-0.105177
-0.115021
-0.124866
-0.13471
-0.144554
-0.154398
-0.164241
-0.174084
0.174084
1.12026
1.12026
1.09724
1.06257
1.02553
0.989674
0.95649
0.926448
0.899456
0.875138
0.853023
0.832659
0.813667
0.795751
0.778687
0.762313
0.746511
0.731192
0.716292
0.701759
0.687553
0.673643
0.660001
0.646604
0.633433
0.620469
0.607698
0.595105
0.582678
0.570405
0.558277
0.546284
0.534417
0.522668
0.511031
0.499497
0.488062
0.476718
0.465462
0.454287
0.443189
0.432164
0.421207
0.410315
0.399484
0.388711
0.377992
0.367324
0.356706
0.346133
0.335603
0.325115
0.314665
0.304253
0.293875
0.283532
0.27322
0.262939
0.252688
0.242466
0.232272
0.222105
0.211965
0.20185
0.19176
0.181693
0.17165
0.161628
0.151627
0.141644
0.13168
0.121732
0.111799
0.10188
0.0919719
0.0820747
0.0721867
0.0623067
0.0524334
0.0425658
0.032703
0.022844
0.0129883
0.00313515
-0.00671592
-0.0165653
-0.0264134
-0.0362605
-0.0461069
-0.0559527
-0.0657981
-0.0756432
-0.0854881
-0.0953327
-0.105177
-0.115021
-0.124866
-0.13471
-0.144554
-0.154398
-0.164239
-0.174083
0.174083
1.11856
1.11856
1.0967
1.06259
1.02574
0.989948
0.956764
0.926693
0.899662
0.875305
0.853155
0.832764
0.81375
0.795817
0.778741
0.762359
0.74655
0.731226
0.716321
0.701785
0.687576
0.673664
0.66002
0.646621
0.633448
0.620483
0.607711
0.595117
0.582689
0.570415
0.558287
0.546293
0.534425
0.522676
0.511037
0.499503
0.488068
0.476724
0.465467
0.454292
0.443193
0.432168
0.421211
0.410319
0.399487
0.388714
0.377995
0.367327
0.356708
0.346135
0.335605
0.325117
0.314667
0.304255
0.293877
0.283533
0.273222
0.262941
0.25269
0.242468
0.232274
0.222107
0.211966
0.201851
0.191761
0.181695
0.171651
0.161629
0.151628
0.141645
0.131681
0.121733
0.1118
0.10188
0.0919724
0.0820751
0.0721871
0.062307
0.0524337
0.042566
0.0327032
0.0228442
0.0129884
0.00313525
-0.00671584
-0.0165653
-0.0264134
-0.0362605
-0.0461069
-0.0559527
-0.0657981
-0.0756432
-0.085488
-0.0953327
-0.105177
-0.115021
-0.124866
-0.13471
-0.144554
-0.154398
-0.164239
-0.174083
0.174083
1.12026
1.12026
1.09724
1.06257
1.02553
0.989674
0.95649
0.926448
0.899456
0.875138
0.853023
0.832659
0.813667
0.795751
0.778687
0.762313
0.746511
0.731192
0.716292
0.701759
0.687553
0.673643
0.660001
0.646604
0.633433
0.620469
0.607698
0.595105
0.582678
0.570405
0.558277
0.546284
0.534417
0.522668
0.511031
0.499497
0.488062
0.476718
0.465462
0.454287
0.443189
0.432164
0.421207
0.410315
0.399484
0.388711
0.377992
0.367324
0.356706
0.346133
0.335603
0.325115
0.314665
0.304253
0.293875
0.283532
0.27322
0.262939
0.252688
0.242466
0.232272
0.222105
0.211965
0.20185
0.19176
0.181693
0.17165
0.161628
0.151627
0.141644
0.13168
0.121732
0.111799
0.10188
0.0919719
0.0820747
0.0721867
0.0623067
0.0524334
0.0425658
0.032703
0.022844
0.0129883
0.00313515
-0.00671591
-0.0165653
-0.0264134
-0.0362605
-0.0461069
-0.0559527
-0.0657981
-0.0756432
-0.085488
-0.0953327
-0.105177
-0.115021
-0.124866
-0.13471
-0.144554
-0.154398
-0.164239
-0.174083
0.174083
1.12558
1.12558
1.09887
1.06256
1.02494
0.988907
0.955721
0.925758
0.898878
0.874674
0.852658
0.832375
0.813445
0.795574
0.778544
0.762195
0.746412
0.731107
0.716218
0.701694
0.687496
0.673592
0.659956
0.646563
0.633396
0.620436
0.607667
0.595077
0.582652
0.570382
0.558256
0.546264
0.534399
0.522652
0.511015
0.499483
0.488048
0.476706
0.46545
0.454276
0.443179
0.432154
0.421198
0.410307
0.399476
0.388704
0.377985
0.367318
0.3567
0.346127
0.335598
0.32511
0.314661
0.304248
0.293871
0.283528
0.273216
0.262936
0.252685
0.242463
0.232269
0.222102
0.211962
0.201847
0.191757
0.181691
0.171648
0.161626
0.151625
0.141643
0.131679
0.121731
0.111798
0.101878
0.0919709
0.0820738
0.072186
0.0623061
0.0524329
0.0425654
0.0327026
0.0228437
0.0129881
0.00313497
-0.00671605
-0.0165654
-0.0264135
-0.0362606
-0.046107
-0.0559528
-0.0657982
-0.0756432
-0.0854881
-0.0953327
-0.105177
-0.115021
-0.124866
-0.13471
-0.144554
-0.154398
-0.164241
-0.174084
0.174084
1.13515
1.13515
1.10136
1.06245
1.02398
0.987713
0.954544
0.924722
0.898025
0.874001
0.852141
0.83198
0.813142
0.795339
0.778359
0.762046
0.746289
0.731004
0.71613
0.701618
0.68743
0.673534
0.659904
0.646517
0.633354
0.620398
0.607634
0.595047
0.582625
0.570357
0.558233
0.546243
0.534379
0.522634
0.510999
0.499468
0.488034
0.476693
0.465438
0.454265
0.443169
0.432145
0.421189
0.410298
0.399468
0.388696
0.377978
0.367312
0.356694
0.346121
0.335593
0.325105
0.314656
0.304244
0.293867
0.283524
0.273213
0.262932
0.252682
0.24246
0.232266
0.2221
0.211959
0.201845
0.191755
0.181689
0.171646
0.161624
0.151623
0.141641
0.131677
0.12173
0.111797
0.101878
0.0919702
0.0820733
0.0721855
0.0623057
0.0524326
0.0425651
0.0327024
0.0228436
0.0129879
0.00313488
-0.00671611
-0.0165655
-0.0264135
-0.0362606
-0.046107
-0.0559528
-0.0657982
-0.0756432
-0.085488
-0.0953326
-0.105177
-0.115021
-0.124866
-0.13471
-0.144554
-0.154399
-0.164243
-0.174084
0.174084
1.15013
1.15013
1.10424
1.06222
1.02287
0.986388
0.953283
0.923643
0.897164
0.873342
0.851649
0.831616
0.812871
0.795134
0.7782
0.761921
0.746187
0.73092
0.716059
0.701557
0.687377
0.673487
0.659862
0.64648
0.633321
0.620368
0.607606
0.595022
0.582602
0.570336
0.558214
0.546226
0.534363
0.522619
0.510985
0.499455
0.488023
0.476682
0.465428
0.454255
0.44316
0.432136
0.421182
0.410291
0.399462
0.38869
0.377972
0.367306
0.356688
0.346116
0.335588
0.3251
0.314652
0.30424
0.293863
0.28352
0.273209
0.262929
0.252679
0.242458
0.232264
0.222098
0.211958
0.201843
0.191754
0.181688
0.171645
0.161623
0.151622
0.141641
0.131677
0.121729
0.111797
0.101877
0.0919701
0.0820732
0.0721855
0.0623057
0.0524326
0.0425652
0.0327025
0.0228436
0.012988
0.00313492
-0.00671607
-0.0165654
-0.0264135
-0.0362606
-0.046107
-0.0559528
-0.0657982
-0.0756432
-0.085488
-0.0953326
-0.105177
-0.115021
-0.124866
-0.13471
-0.144554
-0.154399
-0.164243
-0.174085
0.174085
1.17107
1.17107
1.10623
1.06199
1.02217
0.985592
0.95254
0.923012
0.896656
0.872947
0.851345
0.831382
0.812689
0.79499
0.778083
0.761823
0.746105
0.730849
0.715997
0.701502
0.687328
0.673443
0.659822
0.646444
0.633288
0.620338
0.607578
0.594996
0.582578
0.570314
0.558193
0.546207
0.534346
0.522602
0.510969
0.49944
0.488009
0.476669
0.465416
0.454244
0.443149
0.432127
0.421172
0.410282
0.399453
0.388682
0.377965
0.367299
0.356682
0.34611
0.335582
0.325095
0.314647
0.304235
0.293859
0.283516
0.273205
0.262926
0.252676
0.242454
0.232261
0.222095
0.211955
0.201841
0.191752
0.181686
0.171643
0.161622
0.151622
0.14164
0.131676
0.121729
0.111796
0.101877
0.09197
0.0820732
0.0721855
0.0623057
0.0524326
0.0425652
0.0327025
0.0228437
0.012988
0.00313495
-0.00671604
-0.0165654
-0.0264135
-0.0362606
-0.046107
-0.0559528
-0.0657982
-0.0756432
-0.085488
-0.0953326
-0.105177
-0.115021
-0.124866
-0.13471
-0.144554
-0.154399
-0.164243
-0.174085
0.174085
1.17107
1.17107
1.10623
1.06199
1.02217
0.985592
0.95254
0.923012
0.896656
0.872947
0.851345
0.831382
0.812689
0.79499
0.778083
0.761823
0.746105
0.730849
0.715997
0.701502
0.687328
0.673443
0.659822
0.646444
0.633288
0.620338
0.607578
0.594996
0.582578
0.570314
0.558193
0.546207
0.534346
0.522602
0.510969
0.49944
0.488009
0.476669
0.465416
0.454244
0.443149
0.432127
0.421172
0.410282
0.399453
0.388682
0.377965
0.367299
0.356682
0.34611
0.335582
0.325095
0.314647
0.304235
0.293859
0.283516
0.273205
0.262926
0.252676
0.242454
0.232261
0.222095
0.211955
0.201841
0.191752
0.181686
0.171643
0.161622
0.151622
0.14164
0.131676
0.121729
0.111796
0.101877
0.09197
0.0820732
0.0721855
0.0623057
0.0524326
0.0425652
0.0327025
0.0228437
0.012988
0.00313495
-0.00671604
-0.0165654
-0.0264135
-0.0362606
-0.046107
-0.0559528
-0.0657982
-0.0756432
-0.085488
-0.0953326
-0.105177
-0.115021
-0.124866
-0.13471
-0.144554
-0.154399
-0.164243
-0.174085
0.174085
SCALARS phi double
LOOKUP_TABLE phi
1
1
1
1
0.999998
0.999994
0.999982
0.999957
0.99991
0.99983
0.999705
0.999525
0.999277
0.998951
0.998536
0.998023
0.997405
0.996675
0.995834
0.994883
0.993812
0.992582
0.991095
0.989188
0.986636
0.983172
0.978524
0.972439
0.964714
0.955208
0.943844
0.930605
0.915531
0.898705
0.880243
0.86029
0.839006
0.816562
0.793134
0.768896
0.744017
0.718657
0.692969
0.66709
0.641147
0.615255
0.589515
0.564017
0.538836
0.514042
0.489689
0.465827
0.442494
0.419723
0.397539
0.375961
0.355005
0.334679
0.31499
0.295943
0.277537
0.259772
0.242645
0.226154
0.210293
0.19506
0.18045
0.16646
0.153087
0.140328
0.128181
0.116647
0.105723
0.0954094
0.0857062
0.0766122
0.0681259
0.060244
0.0529617
0.0462715
0.040163
0.0346228
0.0296335
0.0251744
0.0212207
0.0177446
0.0147151
0.0120989
0.00986082
0.00796483
0.00637459
0.00505435
0.00396964
0.0030878
0.00237853
0.00181421
0.00137009
0.00102433
0.000758371
0.000554864
0.000406139
0.000274845
0.000274845
1
1
1
1
0.999998
0.999994
0.999982
0.999957
0.99991
0.99983
0.999705
0.999525
0.999277
0.998951
0.998536
0.998023
0.997405
0.996675
0.995834
0.994883
0.993812
0.992582
0.991095
0.989188
0.986636
0.983172
0.978524
0.972439
0.964714
0.955208
0.943844
0.930605
0.915531
0.898705
0.880243
0.86029
0.839006
0.816562
0.793134
0.768896
0.744017
0.718657
0.692969
0.66709
0.641147
0.615255
0.589515
0.564017
0.538836
0.514042
0.489689
0.465827
0.442494
0.419723
0.397539
0.375961
0.355005
0.334679
0.31499
0.295943
0.277537
0.259772
0.242645
0.226154
0.210293
0.19506
0.18045
0.16646
0.153087
0.140328
0.128181
0.116647
0.105723
0.0954094
0.0857062
0.0766122
0.0681259
0.060244
0.0529617
0.0462715
0.040163
0.0346228
0.0296335
0.0251744
0.0212207
0.0177446
0.0147151
0.0120989
0.00986082
0.00796483
0.00637459
0.00505435
0.00396964
0.0030878
0.00237853
0.00181421
0.00137009
0.00102433
0.000758371
0.000554864
0.000406139
0.000274845
0.000274845
1
1
1
0.999996
0.999983
0.999954
0.999898
0.999804
0.999658
0.999446
0.999157
0.998778
0.998299
0.997713
0.997014
0.996196
0.995255
0.994191
0.993002
0.99169
0.990258
0.988704
0.987011
0.985142
0.983025
0.980556
0.977601
0.974005
0.969607
0.96425
0.957794
0.950124
0.941156
0.930839
0.919155
0.906115
0.891759
0.876149
0.859367
0.841507
0.822677
0.802988
0.782556
0.761497
0.739924
0.717947
0.695669
0.67319
0.650599
0.627981
0.605412
0.58296
0.560686
0.538646
0.516886
0.495448
0.474366
0.453668
0.433379
0.413515
0.39409
0.375113
0.356587
0.338514
0.320892
0.303716
0.28698
0.270675
0.254792
0.239325
0.224263
0.209601
0.195335
0.181463
0.167988
0.154916
0.14226
0.130037
0.118268
0.106979
0.0961994
0.0859613
0.0762962
0.0672339
0.0588008
0.0510174
0.0438969
0.037444
0.0316538
0.0265118
0.0219942
0.0180691
0.014697
0.0118335
0.00943027
0.00743707
0.00580372
0.00448095
0.0034241
0.00258323
0.00195104
0.00135831
0.00135831
0.999997
1
0.99998
0.999896
0.999724
0.999434
0.998999
0.998397
0.997613
0.996636
0.995464
0.994099
0.992547
0.990816
0.988916
0.986859
0.984655
0.982316
0.979853
0.977277
0.974599
0.971827
0.968971
0.966033
0.963008
0.959881
0.956622
0.953189
0.949525
0.945563
0.941227
0.936438
0.931118
0.925193
0.918596
0.911271
0.903173
0.894272
0.884549
0.874001
0.862635
0.850472
0.837539
0.823877
0.809529
0.794547
0.778985
0.762901
0.746355
0.729406
0.712114
0.694537
0.676732
0.658752
0.64065
0.622475
0.60427
0.586078
0.567935
0.549874
0.531923
0.514106
0.49644
0.478939
0.461611
0.444459
0.427482
0.410672
0.394019
0.377509
0.361121
0.344836
0.328631
0.312481
0.296366
0.280267
0.264172
0.248079
0.231997
0.21595
0.199976
0.184133
0.168493
0.153144
0.138186
0.123725
0.109869
0.0967214
0.0843775
0.0729163
0.0623982
0.0528616
0.0443217
0.0367709
0.0301802
0.0245019
0.0196738
0.0156209
0.0122698
0.00950733
0.00737668
0.00527643
0.00527643
0.999999
1
0.99943
0.998224
0.996402
0.994008
0.991093
0.987716
0.983939
0.979828