# vtk DataFile Version 3.0
FlowField
ASCII
DATASET STRUCTURED_GRID
DIMENSIONS 103 13 1 
POINTS 1339 double
0 0 0
0.3 0 0
0.6 0 0
0.9 0 0
1.2 0 0
1.5 0 0
1.8 0 0
2.1 0 0
2.4 0 0
2.7 0 0
3 0 0
3.3 0 0
3.6 0 0
3.9 0 0
4.2 0 0
4.5 0 0
4.8 0 0
5.1 0 0
5.4 0 0
5.7 0 0
6 0 0
6.3 0 0
6.6 0 0
6.9 0 0
7.2 0 0
7.5 0 0
7.8 0 0
8.1 0 0
8.4 0 0
8.7 0 0
9 0 0
9.3 0 0
9.6 0 0
9.9 0 0
10.2 0 0
10.5 0 0
10.8 0 0
11.1 0 0
11.4 0 0
11.7 0 0
12 0 0
12.3 0 0
12.6 0 0
12.9 0 0
13.2 0 0
13.5 0 0
13.8 0 0
14.1 0 0
14.4 0 0
14.7 0 0
15 0 0
15.3 0 0
15.6 0 0
15.9 0 0
16.2 0 0
16.5 0 0
16.8 0 0
17.1 0 0
17.4 0 0
17.7 0 0
18 0 0
18.3 0 0
18.6 0 0
18.9 0 0
19.2 0 0
19.5 0 0
19.8 0 0
20.1 0 0
20.4 0 0
20.7 0 0
21 0 0
21.3 0 0
21.6 0 0
21.9 0 0
22.2 0 0
22.5 0 0
22.8 0 0
23.1 0 0
23.4 0 0
23.7 0 0
24 0 0
24.3 0 0
24.6 0 0
24.9 0 0
25.2 0 0
25.5 0 0
25.8 0 0
26.1 0 0
26.4 0 0
26.7 0 0
27 0 0
27.3 0 0
27.6 0 0
27.9 0 0
28.2 0 0
28.5 0 0
28.8 0 0
29.1 0 0
29.4 0 0
29.7 0 0
30 0 0
30.3 0 0
30.6 0 0
0 0.1 0
0.3 0.1 0
0.6 0.1 0
0.9 0.1 0
1.2 0.1 0
1.5 0.1 0
1.8 0.1 0
2.1 0.1 0
2.4 0.1 0
2.7 0.1 0
3 0.1 0
3.3 0.1 0
3.6 0.1 0
3.9 0.1 0
4.2 0.1 0
4.5 0.1 0
4.8 0.1 0
5.1 0.1 0
5.4 0.1 0
5.7 0.1 0
6 0.1 0
6.3 0.1 0
6.6 0.1 0
6.9 0.1 0
7.2 0.1 0
7.5 0.1 0
7.8 0.1 0
8.1 0.1 0
8.4 0.1 0
8.7 0.1 0
9 0.1 0
9.3 0.1 0
9.6 0.1 0
9.9 0.1 0
10.2 0.1 0
10.5 0.1 0
10.8 0.1 0
11.1 0.1 0
11.4 0.1 0
11.7 0.1 0
12 0.1 0
12.3 0.1 0
12.6 0.1 0
12.9 0.1 0
13.2 0.1 0
13.5 0.1 0
13.8 0.1 0
14.1 0.1 0
14.4 0.1 0
14.7 0.1 0
15 0.1 0
15.3 0.1 0
15.6 0.1 0
15.9 0.1 0
16.2 0.1 0
16.5 0.1 0
16.8 0.1 0
17.1 0.1 0
17.4 0.1 0
17.7 0.1 0
18 0.1 0
18.3 0.1 0
18.6 0.1 0
18.9 0.1 0
19.2 0.1 0
19.5 0.1 0
19.8 0.1 0
20.1 0.1 0
20.4 0.1 0
20.7 0.1 0
21 0.1 0
21.3 0.1 0
21.6 0.1 0
21.9 0.1 0
22.2 0.1 0
22.5 0.1 0
22.8 0.1 0
23.1 0.1 0
23.4 0.1 0
23.7 0.1 0
24 0.1 0
24.3 0.1 0
24.6 0.1 0
24.9 0.1 0
25.2 0.1 0
25.5 0.1 0
25.8 0.1 0
26.1 0.1 0
26.4 0.1 0
26.7 0.1 0
27 0.1 0
27.3 0.1 0
27.6 0.1 0
27.9 0.1 0
28.2 0.1 0
28.5 0.1 0
28.8 0.1 0
29.1 0.1 0
29.4 0.1 0
29.7 0.1 0
30 0.1 0
30.3 0.1 0
30.6 0.1 0
0 0.2 0
0.3 0.2 0
0.6 0.2 0
0.9 0.2 0
1.2 0.2 0
1.5 0.2 0
1.8 0.2 0
2.1 0.2 0
2.4 0.2 0
2.7 0.2 0
3 0.2 0
3.3 0.2 0
3.6 0.2 0
3.9 0.2 0
4.2 0.2 0
4.5 0.2 0
4.8 0.2 0
5.1 0.2 0
5.4 0.2 0
5.7 0.2 0
6 0.2 0
6.3 0.2 0
6.6 0.2 0
6.9 0.2 0
7.2 0.2 0
7.5 0.2 0
7.8 0.2 0
8.1 0.2 0
8.4 0.2 0
8.7 0.2 0
9 0.2 0
9.3 0.2 0
9.6 0.2 0
9.9 0.2 0
10.2 0.2 0
10.5 0.2 0
10.8 0.2 0
11.1 0.2 0
11.4 0.2 0
11.7 0.2 0
12 0.2 0
12.3 0.2 0
12.6 0.2 0
12.9 0.2 0
13.2 0.2 0
13.5 0.2 0
13.8 0.2 0
14.1 0.2 0
14.4 0.2 0
14.7 0.2 0
15 0.2 0
15.3 0.2 0
15.6 0.2 0
15.9 0.2 0
16.2 0.2 0
16.5 0.2 0
16.8 0.2 0
17.1 0.2 0
17.4 0.2 0
17.7 0.2 0
18 0.2 0
18.3 0.2 0
18.6 0.2 0
18.9 0.2 0
19.2 0.2 0
19.5 0.2 0
19.8 0.2 0
20.1 0.2 0
20.4 0.2 0
20.7 0.2 0
21 0.2 0
21.3 0.2 0
21.6 0.2 0
21.9 0.2 0
22.2 0.2 0
22.5 0.2 0
22.8 0.2 0
23.1 0.2 0
23.4 0.2 0
23.7 0.2 0
24 0.2 0
24.3 0.2 0
24.6 0.2 0
24.9 0.2 0
25.2 0.2 0
25.5 0.2 0
25.8 0.2 0
26.1 0.2 0
26.4 0.2 0
26.7 0.2 0
27 0.2 0
27.3 0.2 0
27.6 0.2 0
27.9 0.2 0
28.2 0.2 0
28.5 0.2 0
28.8 0.2 0
29.1 0.2 0
29.4 0.2 0
29.7 0.2 0
30 0.2 0
30.3 0.2 0
30.6 0.2 0
0 0.3 0
0.3 0.3 0
0.6 0.3 0
0.9 0.3 0
1.2 0.3 0
1.5 0.3 0
1.8 0.3 0
2.1 0.3 0
2.4 0.3 0
2.7 0.3 0
3 0.3 0
3.3 0.3 0
3.6 0.3 0
3.9 0.3 0
4.2 0.3 0
4.5 0.3 0
4.8 0.3 0
5.1 0.3 0
5.4 0.3 0
5.7 0.3 0
6 0.3 0
6.3 0.3 0
6.6 0.3 0
6.9 0.3 0
7.2 0.3 0
7.5 0.3 0
7.8 0.3 0
8.1 0.3 0
8.4 0.3 0
8.7 0.3 0
9 0.3 0
9.3 0.3 0
9.6 0.3 0
9.9 0.3 0
10.2 0.3 0
10.5 0.3 0
10.8 0.3 0
11.1 0.3 0
11.4 0.3 0
11.7 0.3 0
12 0.3 0
12.3 0.3 0
12.6 0.3 0
12.9 0.3 0
13.2 0.3 0
13.5 0.3 0
13.8 0.3 0
14.1 0.3 0
14.4 0.3 0
14.7 0.3 0
15 0.3 0
15.3 0.3 0
15.6 0.3 0
15.9 0.3 0
16.2 0.3 0
16.5 0.3 0
16.8 0.3 0
17.1 0.3 0
17.4 0.3 0
17.7 0.3 0
18 0.3 0
18.3 0.3 0
18.6 0.3 0
18.9 0.3 0
19.2 0.3 0
19.5 0.3 0
19.8 0.3 0
20.1 0.3 0
20.4 0.3 0
20.7 0.3 0
21 0.3 0
21.3 0.3 0
21.6 0.3 0
21.9 0.3 0
22.2 0.3 0
22.5 0.3 0
22.8 0.3 0
23.1 0.3 0
23.4 0.3 0
23.7 0.3 0
24 0.3 0
24.3 0.3 0
24.6 0.3 0
24.9 0.3 0
25.2 0.3 0
25.5 0.3 0
25.8 0.3 0
26.1 0.3 0
26.4 0.3 0
26.7 0.3 0
27 0.3 0
27.3 0.3 0
27.6 0.3 0
27.9 0.3 0
28.2 0.3 0
28.5 0.3 0
28.8 0.3 0
29.1 0.3 0
29.4 0.3 0
29.7 0.3 0
30 0.3 0
30.3 0.3 0
30.6 0.3 0
0 0.4 0
0.3 0.4 0
0.6 0.4 0
0.9 0.4 0
1.2 0.4 0
1.5 0.4 0
1.8 0.4 0
2.1 0.4 0
2.4 0.4 0
2.7 0.4 0
3 0.4 0
3.3 0.4 0
3.6 0.4 0
3.9 0.4 0
4.2 0.4 0
4.5 0.4 0
4.8 0.4 0
5.1 0.4 0
5.4 0.4 0
5.7 0.4 0
6 0.4 0
6.3 0.4 0
6.6 0.4 0
6.9 0.4 0
7.2 0.4 0
7.5 0.4 0
7.8 0.4 0
8.1 0.4 0
8.4 0.4 0
8.7 0.4 0
9 0.4 0
9.3 0.4 0
9.6 0.4 0
9.9 0.4 0
10.2 0.4 0
10.5 0.4 0
10.8 0.4 0
11.1 0.4 0
11.4 0.4 0
11.7 0.4 0
12 0.4 0
12.3 0.4 0
12.6 0.4 0
12.9 0.4 0
13.2 0.4 0
13.5 0.4 0
13.8 0.4 0
14.1 0.4 0
14.4 0.4 0
14.7 0.4 0
15 0.4 0
15.3 0.4 0
15.6 0.4 0
15.9 0.4 0
16.2 0.4 0
16.5 0.4 0
16.8 0.4 0
17.1 0.4 0
17.4 0.4 0
17.7 0.4 0
18 0.4 0
18.3 0.4 0
18.6 0.4 0
18.9 0.4 0
19.2 0.4 0
19.5 0.4 0
19.8 0.4 0
20.1 0.4 0
20.4 0.4 0
20.7 0.4 0
21 0.4 0
21.3 0.4 0
21.6 0.4 0
21.9 0.4 0
22.2 0.4 0
22.5 0.4 0
22.8 0.4 0
23.1 0.4 0
23.4 0.4 0
23.7 0.4 0
24 0.4 0
24.3 0.4 0
24.6 0.4 0
24.9 0.4 0
25.2 0.4 0
25.5 0.4 0
25.8 0.4 0
26.1 0.4 0
26.4 0.4 0
26.7 0.4 0
27 0.4 0
27.3 0.4 0
27.6 0.4 0
27.9 0.4 0
28.2 0.4 0
28.5 0.4 0
28.8 0.4 0
29.1 0.4 0
29.4 0.4 0
29.7 0.4 0
30 0.4 0
30.3 0.4 0
30.6 0.4 0
0 0.5 0
0.3 0.5 0
0.6 0.5 0
0.9 0.5 0
1.2 0.5 0
1.5 0.5 0
1.8 0.5 0
2.1 0.5 0
2.4 0.5 0
2.7 0.5 0
3 0.5 0
3.3 0.5 0
3.6 0.5 0
3.9 0.5 0
4.2 0.5 0
4.5 0.5 0
4.8 0.5 0
5.1 0.5 0
5.4 0.5 0
5.7 0.5 0
6 0.5 0
6.3 0.5 0
6.6 0.5 0
6.9 0.5 0
7.2 0.5 0
7.5 0.5 0
7.8 0.5 0
8.1 0.5 0
8.4 0.5 0
8.7 0.5 0
9 0.5 0
9.3 0.5 0
9.6 0.5 0
9.9 0.5 0
10.2 0.5 0
10.5 0.5 0
10.8 0.5 0
11.1 0.5 0
11.4 0.5 0
11.7 0.5 0
12 0.5 0
12.3 0.5 0
12.6 0.5 0
12.9 0.5 0
13.2 0.5 0
13.5 0.5 0
13.8 0.5 0
14.1 0.5 0
14.4 0.5 0
14.7 0.5 0
15 0.5 0
15.3 0.5 0
15.6 0.5 0
15.9 0.5 0
16.2 0.5 0
16.5 0.5 0
16.8 0.5 0
17.1 0.5 0
17.4 0.5 0
17.7 0.5 0
18 0.5 0
18.3 0.5 0
18.6 0.5 0
18.9 0.5 0
19.2 0.5 0
19.5 0.5 0
19.8 0.5 0
20.1 0.5 0
20.4 0.5 0
20.7 0.5 0
21 0.5 0
21.3 0.5 0
21.6 0.5 0
21.9 0.5 0
22.2 0.5 0
22.5 0.5 0
22.8 0.5 0
23.1 0.5 0
23.4 0.5 0
23.7 0.5 0
24 0.5 0
24.3 0.5 0
24.6 0.5 0
24.9 0.5 0
25.2 0.5 0
25.5 0.5 0
25.8 0.5 0
26.1 0.5 0
26.4 0.5 0
26.7 0.5 0
27 0.5 0
27.3 0.5 0
27.6 0.5 0
27.9 0.5 0
28.2 0.5 0
28.5 0.5 0
28.8 0.5 0
29.1 0.5 0
29.4 0.5 0
29.7 0.5 0
30 0.5 0
30.3 0.5 0
30.6 0.5 0
0 0.6 0
0.3 0.6 0
0.6 0.6 0
0.9 0.6 0
1.2 0.6 0
1.5 0.6 0
1.8 0.6 0
2.1 0.6 0
2.4 0.6 0
2.7 0.6 0
3 0.6 0
3.3 0.6 0
3.6 0.6 0
3.9 0.6 0
4.2 0.6 0
4.5 0.6 0
4.8 0.6 0
5.1 0.6 0
5.4 0.6 0
5.7 0.6 0
6 0.6 0
6.3 0.6 0
6.6 0.6 0
6.9 0.6 0
7.2 0.6 0
7.5 0.6 0
7.8 0.6 0
8.1 0.6 0
8.4 0.6 0
8.7 0.6 0
9 0.6 0
9.3 0.6 0
9.6 0.6 0
9.9 0.6 0
10.2 0.6 0
10.5 0.6 0
10.8 0.6 0
11.1 0.6 0
11.4 0.6 0
11.7 0.6 0
12 0.6 0
12.3 0.6 0
12.6 0.6 0
12.9 0.6 0
13.2 0.6 0
13.5 0.6 0
13.8 0.6 0
14.1 0.6 0
14.4 0.6 0
14.7 0.6 0
15 0.6 0
15.3 0.6 0
15.6 0.6 0
15.9 0.6 0
16.2 0.6 0
16.5 0.6 0
16.8 0.6 0
17.1 0.6 0
17.4 0.6 0
17.7 0.6 0
18 0.6 0
18.3 0.6 0
18.6 0.6 0
18.9 0.6 0
19.2 0.6 0
19.5 0.6 0
19.8 0.6 0
20.1 0.6 0
20.4 0.6 0
20.7 0.6 0
21 0.6 0
21.3 0.6 0
21.6 0.6 0
21.9 0.6 0
22.2 0.6 0
22.5 0.6 0
22.8 0.6 0
23.1 0.6 0
23.4 0.6 0
23.7 0.6 0
24 0.6 0
24.3 0.6 0
24.6 0.6 0
24.9 0.6 0
25.2 0.6 0
25.5 0.6 0
25.8 0.6 0
26.1 0.6 0
26.4 0.6 0
26.7 0.6 0
27 0.6 0
27.3 0.6 0
27.6 0.6 0
27.9 0.6 0
28.2 0.6 0
28.5 0.6 0
28.8 0.6 0
29.1 0.6 0
29.4 0.6 0
29.7 0.6 0
30 0.6 0
30.3 0.6 0
30.6 0.6 0
0 0.7 0
0.3 0.7 0
0.6 0.7 0
0.9 0.7 0
1.2 0.7 0
1.5 0.7 0
1.8 0.7 0
2.1 0.7 0
2.4 0.7 0
2.7 0.7 0
3 0.7 0
3.3 0.7 0
3.6 0.7 0
3.9 0.7 0
4.2 0.7 0
4.5 0.7 0
4.8 0.7 0
5.1 0.7 0
5.4 0.7 0
5.7 0.7 0
6 0.7 0
6.3 0.7 0
6.6 0.7 0
6.9 0.7 0
7.2 0.7 0
7.5 0.7 0
7.8 0.7 0
8.1 0.7 0
8.4 0.7 0
8.7 0.7 0
9 0.7 0
9.3 0.7 0
9.6 0.7 0
9.9 0.7 0
10.2 0.7 0
10.5 0.7 0
10.8 0.7 0
11.1 0.7 0
11.4 0.7 0
11.7 0.7 0
12 0.7 0
12.3 0.7 0
12.6 0.7 0
12.9 0.7 0
13.2 0.7 0
13.5 0.7 0
13.8 0.7 0
14.1 0.7 0
14.4 0.7 0
14.7 0.7 0
15 0.7 0
15.3 0.7 0
15.6 0.7 0
15.9 0.7 0
16.2 0.7 0
16.5 0.7 0
16.8 0.7 0
17.1 0.7 0
17.4 0.7 0
17.7 0.7 0
18 0.7 0
18.3 0.7 0
18.6 0.7 0
18.9 0.7 0
19.2 0.7 0
19.5 0.7 0
19.8 0.7 0
20.1 0.7 0
20.4 0.7 0
20.7 0.7 0
21 0.7 0
21.3 0.7 0
21.6 0.7 0
21.9 0.7 0
22.2 0.7 0
22.5 0.7 0
22.8 0.7 0
23.1 0.7 0
23.4 0.7 0
23.7 0.7 0
24 0.7 0
24.3 0.7 0
24.6 0.7 0
24.9 0.7 0
25.2 0.7 0
25.5 0.7 0
25.8 0.7 0
26.1 0.7 0
26.4 0.7 0
26.7 0.7 0
27 0.7 0
27.3 0.7 0
27.6 0.7 0
27.9 0.7 0
28.2 0.7 0
28.5 0.7 0
28.8 0.7 0
29.1 0.7 0
29.4 0.7 0
29.7 0.7 0
30 0.7 0
30.3 0.7 0
30.6 0.7 0
0 0.8 0
0.3 0.8 0
0.6 0.8 0
0.9 0.8 0
1.2 0.8 0
1.5 0.8 0
1.8 0.8 0
2.1 0.8 0
2.4 0.8 0
2.7 0.8 0
3 0.8 0
3.3 0.8 0
3.6 0.8 0
3.9 0.8 0
4.2 0.8 0
4.5 0.8 0
4.8 0.8 0
5.1 0.8 0
5.4 0.8 0
5.7 0.8 0
6 0.8 0
6.3 0.8 0
6.6 0.8 0
6.9 0.8 0
7.2 0.8 0
7.5 0.8 0
7.8 0.8 0
8.1 0.8 0
8.4 0.8 0
8.7 0.8 0
9 0.8 0
9.3 0.8 0
9.6 0.8 0
9.9 0.8 0
10.2 0.8 0
10.5 0.8 0
10.8 0.8 0
11.1 0.8 0
11.4 0.8 0
11.7 0.8 0
12 0.8 0
12.3 0.8 0
12.6 0.8 0
12.9 0.8 0
13.2 0.8 0
13.5 0.8 0
13.8 0.8 0
14.1 0.8 0
14.4 0.8 0
14.7 0.8 0
15 0.8 0
15.3 0.8 0
15.6 0.8 0
15.9 0.8 0
16.2 0.8 0
16.5 0.8 0
16.8 0.8 0
17.1 0.8 0
17.4 0.8 0
17.7 0.8 0
18 0.8 0
18.3 0.8 0
18.6 0.8 0
18.9 0.8 0
19.2 0.8 0
19.5 0.8 0
19.8 0.8 0
20.1 0.8 0
20.4 0.8 0
20.7 0.8 0
21 0.8 0
21.3 0.8 0
21.6 0.8 0
21.9 0.8 0
22.2 0.8 0
22.5 0.8 0
22.8 0.8 0
23.1 0.8 0
23.4 0.8 0
23.7 0.8 0
24 0.8 0
24.3 0.8 0
24.6 0.8 0
24.9 0.8 0
25.2 0.8 0
25.5 0.8 0
25.8 0.8 0
26.1 0.8 0
26.4 0.8 0
26.7 0.8 0
27 0.8 0
27.3 0.8 0
27.6 0.8 0
27.9 0.8 0
28.2 0.8 0
28.5 0.8 0
28.8 0.8 0
29.1 0.8 0
29.4 0.8 0
29.7 0.8 0
30 0.8 0
30.3 0.8 0
30.6 0.8 0
0 0.9 0
0.3 0.9 0
0.6 0.9 0
0.9 0.9 0
1.2 0.9 0
1.5 0.9 0
1.8 0.9 0
2.1 0.9 0
2.4 0.9 0
2.7 0.9 0
3 0.9 0
3.3 0.9 0
3.6 0.9 0
3.9 0.9 0
4.2 0.9 0
4.5 0.9 0
4.8 0.9 0
5.1 0.9 0
5.4 0.9 0
5.7 0.9 0
6 0.9 0
6.3 0.9 0
6.6 0.9 0
6.9 0.9 0
7.2 0.9 0
7.5 0.9 0
7.8 0.9 0
8.1 0.9 0
8.4 0.9 0
8.7 0.9 0
9 0.9 0
9.3 0.9 0
9.6 0.9 0
9.9 0.9 0
10.2 0.9 0
10.5 0.9 0
10.8 0.9 0
11.1 0.9 0
11.4 0.9 0
11.7 0.9 0
12 0.9 0
12.3 0.9 0
12.6 0.9 0
12.9 0.9 0
13.2 0.9 0
13.5 0.9 0
13.8 0.9 0
14.1 0.9 0
14.4 0.9 0
14.7 0.9 0
15 0.9 0
15.3 0.9 0
15.6 0.9 0
15.9 0.9 0
16.2 0.9 0
16.5 0.9 0
16.8 0.9 0
17.1 0.9 0
17.4 0.9 0
17.7 0.9 0
18 0.9 0
18.3 0.9 0
18.6 0.9 0
18.9 0.9 0
19.2 0.9 0
19.5 0.9 0
19.8 0.9 0
20.1 0.9 0
20.4 0.9 0
20.7 0.9 0
21 0.9 0
21.3 0.9 0
21.6 0.9 0
21.9 0.9 0
22.2 0.9 0
22.5 0.9 0
22.8 0.9 0
23.1 0.9 0
23.4 0.9 0
23.7 0.9 0
24 0.9 0
24.3 0.9 0
24.6 0.9 0
24.9 0.9 0
25.2 0.9 0
25.5 0.9 0
25.8 0.9 0
26.1 0.9 0
26.4 0.9 0
26.7 0.9 0
27 0.9 0
27.3 0.9 0
27.6 0.9 0
27.9 0.9 0
28.2 0.9 0
28.5 0.9 0
28.8 0.9 0
29.1 0.9 0
29.4 0.9 0
29.7 0.9 0
30 0.9 0
30.3 0.9 0
30.6 0.9 0
0 1 0
0.3 1 0
0.6 1 0
0.9 1 0
1.2 1 0
1.5 1 0
1.8 1 0
2.1 1 0
2.4 1 0
2.7 1 0
3 1 0
3.3 1 0
3.6 1 0
3.9 1 0
4.2 1 0
4.5 1 0
4.8 1 0
5.1 1 0
5.4 1 0
5.7 1 0
6 1 0
6.3 1 0
6.6 1 0
6.9 1 0
7.2 1 0
7.5 1 0
7.8 1 0
8.1 1 0
8.4 1 0
8.7 1 0
9 1 0
9.3 1 0
9.6 1 0
9.9 1 0
10.2 1 0
10.5 1 0
10.8 1 0
11.1 1 0
11.4 1 0
11.7 1 0
12 1 0
12.3 1 0
12.6 1 0
12.9 1 0
13.2 1 0
13.5 1 0
13.8 1 0
14.1 1 0
14.4 1 0
14.7 1 0
15 1 0
15.3 1 0
15.6 1 0
15.9 1 0
16.2 1 0
16.5 1 0
16.8 1 0
17.1 1 0
17.4 1 0
17.7 1 0
18 1 0
18.3 1 0
18.6 1 0
18.9 1 0
19.2 1 0
19.5 1 0
19.8 1 0
20.1 1 0
20.4 1 0
20.7 1 0
21 1 0
21.3 1 0
21.6 1 0
21.9 1 0
22.2 1 0
22.5 1 0
22.8 1 0
23.1 1 0
23.4 1 0
23.7 1 0
24 1 0
24.3 1 0
24.6 1 0
24.9 1 0
25.2 1 0
25.5 1 0
25.8 1 0
26.1 1 0
26.4 1 0
26.7 1 0
27 1 0
27.3 1 0
27.6 1 0
27.9 1 0
28.2 1 0
28.5 1 0
28.8 1 0
29.1 1 0
29.4 1 0
29.7 1 0
30 1 0
30.3 1 0
30.6 1 0
0 1.1 0
0.3 1.1 0
0.6 1.1 0
0.9 1.1 0
1.2 1.1 0
1.5 1.1 0
1.8 1.1 0
2.1 1.1 0
2.4 1.1 0
2.7 1.1 0
3 1.1 0
3.3 1.1 0
3.6 1.1 0
3.9 1.1 0
4.2 1.1 0
4.5 1.1 0
4.8 1.1 0
5.1 1.1 0
5.4 1.1 0
5.7 1.1 0
6 1.1 0
6.3 1.1 0
6.6 1.1 0
6.9 1.1 0
7.2 1.1 0
7.5 1.1 0
7.8 1.1 0
8.1 1.1 0
8.4 1.1 0
8.7 1.1 0
9 1.1 0
9.3 1.1 0
9.6 1.1 0
9.9 1.1 0
10.2 1.1 0
10.5 1.1 0
10.8 1.1 0
11.1 1.1 0
11.4 1.1 0
11.7 1.1 0
12 1.1 0
12.3 1.1 0
12.6 1.1 0
12.9 1.1 0
13.2 1.1 0
13.5 1.1 0
13.8 1.1 0
14.1 1.1 0
14.4 1.1 0
14.7 1.1 0
15 1.1 0
15.3 1.1 0
15.6 1.1 0
15.9 1.1 0
16.2 1.1 0
16.5 1.1 0
16.8 1.1 0
17.1 1.1 0
17.4 1.1 0
17.7 1.1 0
18 1.1 0
18.3 1.1 0
18.6 1.1 0
18.9 1.1 0
19.2 1.1 0
19.5 1.1 0
19.8 1.1 0
20.1 1.1 0
20.4 1.1 0
20.7 1.1 0
21 1.1 0
21.3 1.1 0
21.6 1.1 0
21.9 1.1 0
22.2 1.1 0
22.5 1.1 0
22.8 1.1 0
23.1 1.1 0
23.4 1.1 0
23.7 1.1 0
24 1.1 0
24.3 1.1 0
24.6 1.1 0
24.9 1.1 0
25.2 1.1 0
25.5 1.1 0
25.8 1.1 0
26.1 1.1 0
26.4 1.1 0
26.7 1.1 0
27 1.1 0
27.3 1.1 0
27.6 1.1 0
27.9 1.1 0
28.2 1.1 0
28.5 1.1 0
28.8 1.1 0
29.1 1.1 0
29.4 1.1 0
29.7 1.1 0
30 1.1 0
30.3 1.1 0
30.6 1.1 0
0 1.2 0
0.3 1.2 0
0.6 1.2 0
0.9 1.2 0
1.2 1.2 0
1.5 1.2 0
1.8 1.2 0
2.1 1.2 0
2.4 1.2 0
2.7 1.2 0
3 1.2 0
3.3 1.2 0
3.6 1.2 0
3.9 1.2 0
4.2 1.2 0
4.5 1.2 0
4.8 1.2 0
5.1 1.2 0
5.4 1.2 0
5.7 1.2 0
6 1.2 0
6.3 1.2 0
6.6 1.2 0
6.9 1.2 0
7.2 1.2 0
7.5 1.2 0
7.8 1.2 0
8.1 1.2 0
8.4 1.2 0
8.7 1.2 0
9 1.2 0
9.3 1.2 0
9.6 1.2 0
9.9 1.2 0
10.2 1.2 0
10.5 1.2 0
10.8 1.2 0
11.1 1.2 0
11.4 1.2 0
11.7 1.2 0
12 1.2 0
12.3 1.2 0
12.6 1.2 0
12.9 1.2 0
13.2 1.2 0
13.5 1.2 0
13.8 1.2 0
14.1 1.2 0
14.4 1.2 0
14.7 1.2 0
15 1.2 0
15.3 1.2 0
15.6 1.2 0
15.9 1.2 0
16.2 1.2 0
16.5 1.2 0
16.8 1.2 0
17.1 1.2 0
17.4 1.2 0
17.7 1.2 0
18 1.2 0
18.3 1.2 0
18.6 1.2 0
18.9 1.2 0
19.2 1.2 0
19.5 1.2 0
19.8 1.2 0
20.1 1.2 0
20.4 1.2 0
20.7 1.2 0
21 1.2 0
21.3 1.2 0
21.6 1.2 0
21.9 1.2 0
22.2 1.2 0
22.5 1.2 0
22.8 1.2 0
23.1 1.2 0
23.4 1.2 0
23.7 1.2 0
24 1.2 0
24.3 1.2 0
24.6 1.2 0
24.9 1.2 0
25.2 1.2 0
25.5 1.2 0
25.8 1.2 0
26.1 1.2 0
26.4 1.2 0
26.7 1.2 0
27 1.2 0
27.3 1.2 0
27.6 1.2 0
27.9 1.2 0
28.2 1.2 0
28.5 1.2 0
28.8 1.2 0
29.1 1.2 0
29.4 1.2 0
29.7 1.2 0
30 1.2 0
30.3 1.2 0
30.6 1.2 0

POINT_DATA 1339

SCALARS pressure double
LOOKUP_TABLE pressure
1.17545
1.17545
1.11061
1.06637
1.02655
0.989975
0.956923
0.927395
0.901039
0.87733
0.855728
0.835765
0.817071
0.799372
0.782465
0.766206
0.750487
0.735231
0.720379
0.705884
0.69171
0.677825
0.664204
0.650825
0.637669
0.624719
0.611959
0.599376
0.586957
0.574692
0.56257
0.550583
0.538725
0.52699
0.515375
0.503875
0.49249
0.481218
0.470057
0.459005
0.44806
0.437217
0.42647
0.415813
0.405239
0.394739
0.384304
0.373926
0.363596
0.353306
0.343048
0.332817
0.322606
0.312412
0.30223
0.292057
0.28189
0.271729
0.261572
0.251417
0.241263
0.231111
0.22096
0.210809
0.200658
0.190508
0.180358
0.170208
0.160059
0.149909
0.139759
0.129609
0.119459
0.10931
0.09916
0.0890102
0.0788605
0.0687108
0.0585611
0.0484113
0.0382616
0.0281119
0.0179622
0.00781247
-0.00233724
-0.012487
-0.0226367
-0.0327864
-0.0429361
-0.0530858
-0.0632355
-0.0733852
-0.0835349
-0.0936846
-0.103834
-0.113984
-0.124134
-0.134283
-0.144433
-0.154583
-0.164733
-0.174873
0.174873
1.17545
1.17545
1.11061
1.06637
1.02655
0.989975
0.956923
0.927395
0.901039
0.87733
0.855728
0.835765
0.817071
0.799372
0.782465
0.766206
0.750487
0.735231
0.720379
0.705884
0.69171
0.677825
0.664204
0.650825
0.637669
0.624719
0.611959
0.599376
0.586957
0.574692
0.56257
0.550583
0.538725
0.52699
0.515375
0.503875
0.49249
0.481218
0.470057
0.459005
0.44806
0.437217
0.42647
0.415813
0.405239
0.394739
0.384304
0.373926
0.363596
0.353306
0.343048
0.332817
0.322606
0.312412
0.30223
0.292057
0.28189
0.271729
0.261572
0.251417
0.241263
0.231111
0.22096
0.210809
0.200658
0.190508
0.180358
0.170208
0.160059
0.149909
0.139759
0.129609
0.119459
0.10931
0.09916
0.0890102
0.0788605
0.0687108
0.0585611
0.0484113
0.0382616
0.0281119
0.0179622
0.00781247
-0.00233724
-0.012487
-0.0226367
-0.0327864
-0.0429361
-0.0530858
-0.0632355
-0.0733852
-0.0835349
-0.0936846
-0.103834
-0.113984
-0.124134
-0.134283
-0.144433
-0.154583
-0.164733
-0.174873
0.174873
1.15451
1.15451
1.10862
1.0666
1.02725
0.990771
0.957666
0.928026
0.901546
0.877725
0.856031
0.835998
0.817253
0.799517
0.782583
0.766303
0.75057
0.735302
0.720441
0.705939
0.691759
0.677869
0.664244
0.650862
0.637703
0.62475
0.611987
0.599402
0.586981
0.574714
0.562591
0.550602
0.538743
0.527006
0.515389
0.503888
0.492501
0.481227
0.470065
0.459012
0.448065
0.43722
0.426473
0.415815
0.40524
0.39474
0.384304
0.373926
0.363595
0.353305
0.343048
0.332816
0.322606
0.312411
0.302229
0.292056
0.28189
0.271729
0.261572
0.251416
0.241263
0.231111
0.22096
0.210809
0.200658
0.190508
0.180358
0.170208
0.160059
0.149909
0.139759
0.129609
0.119459
0.10931
0.09916
0.0890102
0.0788605
0.0687108
0.0585611
0.0484113
0.0382616
0.0281119
0.0179622
0.00781247
-0.00233724
-0.012487
-0.0226367
-0.0327864
-0.0429361
-0.0530858
-0.0632355
-0.0733852
-0.0835349
-0.0936846
-0.103834
-0.113984
-0.124134
-0.134283
-0.144433
-0.154583
-0.164734
-0.174873
0.174873
1.13953
1.13953
1.10574
1.06683
1.02837
0.992095
0.958927
0.929104
0.902408
0.878384
0.856524
0.836363
0.817525
0.799722
0.782741
0.766428
0.750671
0.735386
0.720512
0.706
0.691812
0.677916
0.664286
0.650899
0.637736
0.62478
0.612015
0.599427
0.587004
0.574735
0.562609
0.55062
0.538758
0.527021
0.515402
0.503899
0.492511
0.481236
0.470072
0.459018
0.44807
0.437224
0.426475
0.415817
0.405242
0.39474
0.384305
0.373926
0.363595
0.353305
0.343047
0.332816
0.322606
0.312411
0.302229
0.292056
0.28189
0.271729
0.261571
0.251416
0.241263
0.231111
0.22096
0.210809
0.200658
0.190508
0.180358
0.170208
0.160059
0.149909
0.139759
0.129609
0.119459
0.10931
0.09916
0.0890102
0.0788605
0.0687108
0.0585611
0.0484113
0.0382616
0.0281119
0.0179622
0.00781247
-0.00233724
-0.012487
-0.0226367
-0.0327864
-0.0429361
-0.0530858
-0.0632355
-0.0733852
-0.0835349
-0.0936846
-0.103834
-0.113984
-0.124134
-0.134283
-0.144433
-0.154582
-0.164731
-0.17487
0.17487
1.12996
1.12996
1.10325
1.06694
1.02932
0.99329
0.960104
0.930141
0.903261
0.879057
0.857041
0.836758
0.817827
0.799956
0.782926
0.766578
0.750794
0.73549
0.7206
0.706076
0.691878
0.677974
0.664337
0.650945
0.637777
0.624817
0.612048
0.599457
0.587031
0.57476
0.562632
0.550641
0.538778
0.527039
0.515419
0.503915
0.492526
0.48125
0.470085
0.459029
0.44808
0.437233
0.426484
0.415824
0.405248
0.394745
0.384309
0.373929
0.363598
0.353307
0.343049
0.332817
0.322606
0.312412
0.302229
0.292056
0.28189
0.271729
0.261572
0.251416
0.241263
0.231111
0.22096
0.210809
0.200658
0.190508
0.180358
0.170208
0.160059
0.149909
0.139759
0.129609
0.119459
0.10931
0.09916
0.0890102
0.0788605
0.0687108
0.0585611
0.0484113
0.0382616
0.0281119
0.0179622
0.00781247
-0.00233724
-0.012487
-0.0226367
-0.0327864
-0.0429361
-0.0530858
-0.0632355
-0.0733852
-0.0835349
-0.0936846
-0.103834
-0.113984
-0.124134
-0.134283
-0.144432
-0.154581
-0.164724
-0.174867
0.174867
1.12464
1.12464
1.10162
1.06696
1.02991
0.994057
0.960873
0.93083
0.903839
0.879521
0.857405
0.837042
0.81805
0.800133
0.783069
0.766695
0.750893
0.735574
0.720674
0.706141
0.691935
0.678025
0.664383
0.650986
0.637814
0.624851
0.612079
0.599485
0.587057
0.574783
0.562654
0.550661
0.538797
0.527056
0.515435
0.503931
0.492541
0.481264
0.470099
0.459042
0.448092
0.437245
0.426494
0.415833
0.405256
0.394752
0.384315
0.373934
0.363602
0.35331
0.343051
0.332819
0.322608
0.312413
0.30223
0.292057
0.281891
0.271729
0.261572
0.251417
0.241263
0.231111
0.22096
0.210809
0.200658
0.190508
0.180358
0.170208
0.160059
0.149909
0.139759
0.129609
0.119459
0.10931
0.09916
0.0890102
0.0788605
0.0687108
0.0585611
0.0484113
0.0382616
0.0281119
0.0179622
0.00781247
-0.00233724
-0.012487
-0.0226367
-0.0327864
-0.0429361
-0.0530858
-0.0632355
-0.0733852
-0.0835349
-0.0936846
-0.103834
-0.113984
-0.124134
-0.134283
-0.144432
-0.154579
-0.164716
-0.174863
0.174863
1.12294
1.12294
1.10108
1.06697
1.03012
0.994331
0.961147
0.931076
0.904045
0.879688
0.857538
0.837146
0.818133
0.8002
0.783124
0.766741
0.750932
0.735608
0.720703
0.706167
0.691958
0.678046
0.664402
0.651003
0.63783
0.624865
0.612092
0.599497
0.587068
0.574793
0.562663
0.550669
0.538805
0.527064
0.515443
0.503938
0.492548
0.481271
0.470105
0.459048
0.448098
0.43725
0.426499
0.415838
0.405259
0.394756
0.384318
0.373936
0.363604
0.353312
0.343053
0.33282
0.322609
0.312413
0.302231
0.292057
0.281891
0.27173
0.261572
0.251417
0.241263
0.231111
0.22096
0.210809
0.200658
0.190508
0.180358
0.170208
0.160059
0.149909
0.139759
0.129609
0.119459
0.10931
0.09916
0.0890102
0.0788605
0.0687108
0.0585611
0.0484113
0.0382616
0.0281119
0.0179622
0.00781247
-0.00233724
-0.012487
-0.0226367
-0.0327864
-0.0429361
-0.0530858
-0.0632355
-0.0733852
-0.0835349
-0.0936846
-0.103834
-0.113984
-0.124134
-0.134283
-0.144432
-0.154578
-0.164712
-0.174862
0.174862
1.12464
1.12464
1.10162
1.06696
1.02991
0.994057
0.960873
0.93083
0.903839
0.879521
0.857405
0.837042
0.81805
0.800133
0.783069
0.766695
0.750893
0.735574
0.720674
0.706141
0.691935
0.678025
0.664383
0.650986
0.637814
0.624851
0.612079
0.599485
0.587057
0.574783
0.562654
0.550661
0.538797
0.527056
0.515435
0.503931
0.492541
0.481264
0.470099
0.459042
0.448092
0.437245
0.426494
0.415833
0.405256
0.394752
0.384315
0.373934
0.363602
0.35331
0.343051
0.332819
0.322608
0.312413
0.30223
0.292057
0.281891
0.271729
0.261572
0.251417
0.241263
0.231111
0.22096
0.210809
0.200658
0.190508
0.180358
0.170208
0.160059
0.149909
0.139759
0.129609
0.119459
0.10931
0.09916
0.0890102
0.0788605
0.0687108
0.0585611
0.0484113
0.0382616
0.0281119
0.0179622
0.00781247
-0.00233724
-0.012487
-0.0226367
-0.0327864
-0.0429361
-0.0530858
-0.0632355
-0.0733852
-0.0835349
-0.0936846
-0.103834
-0.113984
-0.124134
-0.134283
-0.144432
-0.154579
-0.164716
-0.174863
0.174863
1.12996
1.12996
1.10325
1.06694
1.02932
0.99329
0.960104
0.930141
0.903261
0.879057
0.857041
0.836758
0.817827
0.799956
0.782926
0.766578
0.750794
0.73549
0.7206
0.706076
0.691878
0.677974
0.664337
0.650945
0.637777
0.624817
0.612048
0.599457
0.587031
0.57476
0.562632
0.550641
0.538778
0.527039
0.515419
0.503915
0.492526
0.48125
0.470085
0.459029
0.44808
0.437233
0.426484
0.415824
0.405248
0.394745
0.384309
0.373929
0.363598
0.353307
0.343049
0.332817
0.322606
0.312412
0.302229
0.292056
0.28189
0.271729
0.261572
0.251416
0.241263
0.231111
0.22096
0.210809
0.200658
0.190508
0.180358
0.170208
0.160059
0.149909
0.139759
0.129609
0.119459
0.10931
0.09916
0.0890102
0.0788605
0.0687108
0.0585611
0.0484113
0.0382616
0.0281119
0.0179622
0.00781247
-0.00233724
-0.012487
-0.0226367
-0.0327864
-0.0429361
-0.0530858
-0.0632355
-0.0733852
-0.0835349
-0.0936846
-0.103834
-0.113984
-0.124134
-0.134283
-0.144432
-0.154581
-0.164724
-0.174867
0.174867
1.13953
1.13953
1.10574
1.06683
1.02837
0.992095
0.958927
0.929104
0.902408
0.878384
0.856524
0.836363
0.817525
0.799722
0.782741
0.766428
0.750671
0.735386
0.720512
0.706
0.691812
0.677916
0.664286
0.650899
0.637736
0.62478
0.612015
0.599427
0.587004
0.574735
0.562609
0.55062
0.538758
0.527021
0.515402
0.503899
0.492511
0.481236
0.470072
0.459018
0.44807
0.437224
0.426475
0.415817
0.405242
0.39474
0.384305
0.373926
0.363595
0.353305
0.343047
0.332816
0.322606
0.312411
0.302229
0.292056
0.28189
0.271729
0.261571
0.251416
0.241263
0.231111
0.22096
0.210809
0.200658
0.190508
0.180358
0.170208
0.160059
0.149909
0.139759
0.129609
0.119459
0.10931
0.09916
0.0890102
0.0788605
0.0687108
0.0585611
0.0484113
0.0382616
0.0281119
0.0179622
0.00781247
-0.00233724
-0.012487
-0.0226367
-0.0327864
-0.0429361
-0.0530858
-0.0632355
-0.0733852
-0.0835349
-0.0936846
-0.103834
-0.113984
-0.124134
-0.134283
-0.144433
-0.154582
-0.164731
-0.17487
0.17487
1.15451
1.15451
1.10862
1.0666
1.02725
0.990771
0.957666
0.928026
0.901546
0.877725
0.856031
0.835998
0.817253
0.799517
0.782583
0.766303
0.75057
0.735302
0.720441
0.705939
0.691759
0.677869
0.664244
0.650862
0.637703
0.62475
0.611987
0.599402
0.586981
0.574714
0.562591
0.550602
0.538743
0.527006
0.515389
0.503888
0.492501
0.481227
0.470065
0.459012
0.448065
0.43722
0.426473
0.415815
0.40524
0.39474
0.384304
0.373926
0.363595
0.353305
0.343048
0.332816
0.322606
0.312411
0.302229
0.292056
0.28189
0.271729
0.261572
0.251416
0.241263
0.231111
0.22096
0.210809
0.200658
0.190508
0.180358
0.170208
0.160059
0.149909
0.139759
0.129609
0.119459
0.10931
0.09916
0.0890102
0.0788605
0.0687108
0.0585611
0.0484113
0.0382616
0.0281119
0.0179622
0.00781247
-0.00233724
-0.012487
-0.0226367
-0.0327864
-0.0429361
-0.0530858
-0.0632355
-0.0733852
-0.0835349
-0.0936846
-0.103834
-0.113984
-0.124134
-0.134283
-0.144433
-0.154583
-0.164734
-0.174873
0.174873
1.17545
1.17545
1.11061
1.06637
1.02655
0.989975
0.956923
0.927395
0.901039
0.87733
0.855728
0.835765
0.817071
0.799372
0.782465
0.766206
0.750487
0.735231
0.720379
0.705884
0.69171
0.677825
0.664204
0.650825
0.637669
0.624719
0.611959
0.599376
0.586957
0.574692
0.56257
0.550583
0.538725
0.52699
0.515375
0.503875
0.49249
0.481218
0.470057
0.459005
0.44806
0.437217
0.42647
0.415813
0.405239
0.394739
0.384304
0.373926
0.363596
0.353306
0.343048
0.332817
0.322606
0.312412
0.30223
0.292057
0.28189
0.271729
0.261572
0.251417
0.241263
0.231111
0.22096
0.210809
0.200658
0.190508
0.180358
0.170208
0.160059
0.149909
0.139759
0.129609
0.119459
0.10931
0.09916
0.0890102
0.0788605
0.0687108
0.0585611
0.0484113
0.0382616
0.0281119
0.0179622
0.00781247
-0.00233724
-0.012487
-0.0226367
-0.0327864
-0.0429361
-0.0530858
-0.0632355
-0.0733852
-0.0835349
-0.0936846
-0.103834
-0.113984
-0.124134
-0.134283
-0.144433
-0.154583
-0.164733
-0.174873
0.174873
1.17545
1.17545
1.11061
1.06637
1.02655
0.989975
0.956923
0.927395
0.901039
0.87733
0.855728
0.835765
0.817071
0.799372
0.782465
0.766206
0.750487
0.735231
0.720379
0.705884
0.69171
0.677825
0.664204
0.650825
0.637669
0.624719
0.611959
0.599376
0.586957
0.574692
0.56257
0.550583
0.538725
0.52699
0.515375
0.503875
0.49249
0.481218
0.470057
0.459005
0.44806
0.437217
0.42647
0.415813
0.405239
0.394739
0.384304
0.373926
0.363596
0.353306
0.343048
0.332817
0.322606
0.312412
0.30223
0.292057
0.28189
0.271729
0.261572
0.251417
0.241263
0.231111
0.22096
0.210809
0.200658
0.190508
0.180358
0.170208
0.160059
0.149909
0.139759
0.129609
0.119459
0.10931
0.09916
0.0890102
0.0788605
0.0687108
0.0585611
0.0484113
0.0382616
0.0281119
0.0179622
0.00781247
-0.00233724
-0.012487
-0.0226367
-0.0327864
-0.0429361
-0.0530858
-0.0632355
-0.0733852
-0.0835349
-0.0936846
-0.103834
-0.113984
-0.124134
-0.134283
-0.144433
-0.154583
-0.164733
-0.174873
0.174873
SCALARS phi double
LOOKUP_TABLE phi
1
1
1
1
0.999998
0.999994
0.999982
0.999956
0.999909
0.999833
0.999705
0.999502
0.999264
0.999074
0.998846
0.998034
0.995539
0.989938
0.97991
0.964605
0.943794
0.91779
0.887262
0.853036
0.815956
0.776809
0.736294
0.695017
0.653496
0.612165
0.57138
0.531426
0.492526
0.454849
0.418518
0.383617
0.350205
0.31832
0.287986
0.259223
0.232044
0.206465
0.182502
0.160171
0.139489
0.120467
0.103111
0.0874141
0.0733569
0.0609023
0.0499945
0.0405586
0.032502
0.0257168
0.0200832
0.0154743
0.0117603
0.00881347
0.00651177
0.00474242
0.003404
0.00240779
0.00167825
0.00115261
0.000779983
0.000520073
0.000341687
0.000221204
0.000141118
8.87197e-05
5.49721e-05
3.35727e-05
2.02113e-05
1.19952e-05
7.01893e-06
4.04984e-06
2.30439e-06
1.29323e-06
7.15903e-07
3.90968e-07
2.10664e-07
1.1201e-07
5.87757e-08
3.04414e-08
1.55637e-08
7.85591e-09
3.91535e-09
1.92702e-09
9.36697e-10
4.49739e-10
2.13316e-10
9.99625e-11
4.62865e-11
2.11799e-11
9.57849e-12
4.28175e-12
1.8921e-12
8.26633e-13
3.57098e-13
1.52513e-13
6.46687e-14
2.52006e-14
2.52006e-14
1
1
1
1
0.999998
0.999994
0.999982
0.999956
0.999909
0.999833
0.999705
0.999502
0.999264
0.999074
0.998846
0.998034
0.995539
0.989938
0.97991
0.964605
0.943794
0.91779
0.887262
0.853036
0.815956
0.776809
0.736294
0.695017
0.653496
0.612165
0.57138
0.531426
0.492526
0.454849
0.418518
0.383617
0.350205
0.31832
0.287986
0.259223
0.232044
0.206465
0.182502
0.160171
0.139489
0.120467
0.103111
0.0874141
0.0733569
0.0609023
0.0499945
0.0405586
0.032502
0.0257168
0.0200832
0.0154743
0.0117603
0.00881347
0.00651177
0.00474242
0.003404
0.00240779
0.00167825
0.00115261
0.000779983
0.000520073
0.000341687
0.000221204
0.000141118
8.87197e-05
5.49721e-05
3.35727e-05
2.02113e-05
1.19952e-05
7.01893e-06
4.04984e-06
2.30439e-06
1.29323e-06
7.15903e-07
3.90968e-07
2.10664e-07
1.1201e-07
5.87757e-08
3.04414e-08
1.55637e-08
7.85591e-09
3.91535e-09
1.92702e-09
9.36697e-10
4.49739e-10
2.13316e-10
9.99625e-11
4.62865e-11
2.11799e-11
9.57849e-12
4.28175e-12
1.8921e-12
8.26633e-13
3.57098e-13
1.52513e-13
6.46687e-14
2.52006e-14
2.52006e-14
1
1
1
0.999996
0.999983
0.999953
0.999898
0.999804
0.999657
0.999447
0.999158
0.998775
0.99829
0.997719
0.997076
0.996298
0.995155
0.993202
0.989824
0.984344
0.976158
0.964825
0.950117
0.93201
0.910651
0.886313
0.859351
0.830164
0.799168
0.766776
0.733381
0.699344
0.66499
0.630598
0.596402
0.562585
0.529286
0.496597
0.464575
0.433243
0.402602
0.372644
0.343357
0.314742
0.286818
0.259633
0.233267
0.207832
0.183469
0.160335
0.138597
0.118414
0.0999229
0.0832251
0.0683787
0.0553916
0.0442218
0.0347809
0.0269418
0.020549
0.0154297
0.0114043
0.00829636
0.0059401
0.00418583
0.00290307
0.00198172
0.00133157
0.000880752
0.000573533
0.000367726
0.000232169
0.000144362
8.84165e-05
5.3346e-05
3.17121e-05
1.85765e-05
1.07248e-05
6.10322e-06
3.4241e-06
1.89415e-06
1.03331e-06
5.55976e-07
2.95095e-07
1.54529e-07
7.9848e-08
4.07181e-08
2.04948e-08
1.01834e-08
4.99565e-09
2.41995e-09
1.15769e-09
5.47026e-10
2.55334e-10
1.17747e-10
5.3652e-11
2.41587e-11
1.07513e-11
4.72946e-12
2.05617e-12
8.87625e-13
3.50697e-13
3.50697e-13
0.999997
1
0.99998
0.999896
0.999724
0.999434
0.998999
0.998397
0.997612
0.996636
0.995464
0.994099
0.992545
0.990814
0.98892
0.986878
0.984677
0.982261
0.979509
0.976237
0.972208
0.967164
0.960852
0.95305
0.943583
0.932336
0.919251
0.904328
0.887618
0.869215
0.849248
0.827871
0.805258
0.781588
0.757042
0.731792
0.705991
0.679766
0.653213
0.626388
0.599306
0.571939
0.54422
0.516057
0.487339
0.457969
0.427875
0.397048
0.365553
0.333554
0.301312
0.269182
0.237587
0.206991
0.177861
0.150627
0.125647
0.103185
0.0833896
0.0662985
0.0518426
0.0398646
0.0301411
0.0224067
0.0163772
0.0117695
0.00831687
0.00577938
0.00394975
0.0026551
0.0017558
0.00114241
0.000731453
0.000460941
0.000285937
0.000174639
0.000105035
6.2219e-05
3.6307e-05
2.08743e-05
1.18267e-05
6.60427e-06