# vtk DataFile Version 3.0
FlowField
ASCII
DATASET STRUCTURED_GRID
DIMENSIONS 103 13 1 
POINTS 1339 double
0 0 0
0.3 0 0
0.6 0 0
0.9 0 0
1.2 0 0
1.5 0 0
1.8 0 0
2.1 0 0
2.4 0 0
2.7 0 0
3 0 0
3.3 0 0
3.6 0 0
3.9 0 0
4.2 0 0
4.5 0 0
4.8 0 0
5.1 0 0
5.4 0 0
5.7 0 0
6 0 0
6.3 0 0
6.6 0 0
6.9 0 0
7.2 0 0
7.5 0 0
7.8 0 0
8.1 0 0
8.4 0 0
8.7 0 0
9 0 0
9.3 0 0
9.6 0 0
9.9 0 0
10.2 0 0
10.5 0 0
10.8 0 0
11.1 0 0
11.4 0 0
11.7 0 0
12 0 0
12.3 0 0
12.6 0 0
12.9 0 0
13.2 0 0
13.5 0 0
13.8 0 0
14.1 0 0
14.4 0 0
14.7 0 0
15 0 0
15.3 0 0
15.6 0 0
15.9 0 0
16.2 0 0
16.5 0 0
16.8 0 0
17.1 0 0
17.4 0 0
17.7 0 0
18 0 0
18.3 0 0
18.6 0 0
18.9 0 0
19.2 0 0
19.5 0 0
19.8 0 0
20.1 0 0
20.4 0 0
20.7 0 0
21 0 0
21.3 0 0
21.6 0 0
21.9 0 0
22.2 0 0
22.5 0 0
22.8 0 0
23.1 0 0
23.4 0 0
23.7 0 0
24 0 0
24.3 0 0
24.6 0 0
24.9 0 0
25.2 0 0
25.5 0 0
25.8 0 0
26.1 0 0
26.4 0 0
26.7 0 0
27 0 0
27.3 0 0
27.6 0 0
27.9 0 0
28.2 0 0
28.5 0 0
28.8 0 0
29.1 0 0
29.4 0 0
29.7 0 0
30 0 0
30.3 0 0
30.6 0 0
0 0.1 0
0.3 0.1 0
0.6 0.1 0
0.9 0.1 0
1.2 0.1 0
1.5 0.1 0
1.8 0.1 0
2.1 0.1 0
2.4 0.1 0
2.7 0.1 0
3 0.1 0
3.3 0.1 0
3.6 0.1 0
3.9 0.1 0
4.2 0.1 0
4.5 0.1 0
4.8 0.1 0
5.1 0.1 0
5.4 0.1 0
5.7 0.1 0
6 0.1 0
6.3 0.1 0
6.6 0.1 0
6.9 0.1 0
7.2 0.1 0
7.5 0.1 0
7.8 0.1 0
8.1 0.1 0
8.4 0.1 0
8.7 0.1 0
9 0.1 0
9.3 0.1 0
9.6 0.1 0
9.9 0.1 0
10.2 0.1 0
10.5 0.1 0
10.8 0.1 0
11.1 0.1 0
11.4 0.1 0
11.7 0.1 0
12 0.1 0
12.3 0.1 0
12.6 0.1 0
12.9 0.1 0
13.2 0.1 0
13.5 0.1 0
13.8 0.1 0
14.1 0.1 0
14.4 0.1 0
14.7 0.1 0
15 0.1 0
15.3 0.1 0
15.6 0.1 0
15.9 0.1 0
16.2 0.1 0
16.5 0.1 0
16.8 0.1 0
17.1 0.1 0
17.4 0.1 0
17.7 0.1 0
18 0.1 0
18.3 0.1 0
18.6 0.1 0
18.9 0.1 0
19.2 0.1 0
19.5 0.1 0
19.8 0.1 0
20.1 0.1 0
20.4 0.1 0
20.7 0.1 0
21 0.1 0
21.3 0.1 0
21.6 0.1 0
21.9 0.1 0
22.2 0.1 0
22.5 0.1 0
22.8 0.1 0
23.1 0.1 0
23.4 0.1 0
23.7 0.1 0
24 0.1 0
24.3 0.1 0
24.6 0.1 0
24.9 0.1 0
25.2 0.1 0
25.5 0.1 0
25.8 0.1 0
26.1 0.1 0
26.4 0.1 0
26.7 0.1 0
27 0.1 0
27.3 0.1 0
27.6 0.1 0
27.9 0.1 0
28.2 0.1 0
28.5 0.1 0
28.8 0.1 0
29.1 0.1 0
29.4 0.1 0
29.7 0.1 0
30 0.1 0
30.3 0.1 0
30.6 0.1 0
0 0.2 0
0.3 0.2 0
0.6 0.2 0
0.9 0.2 0
1.2 0.2 0
1.5 0.2 0
1.8 0.2 0
2.1 0.2 0
2.4 0.2 0
2.7 0.2 0
3 0.2 0
3.3 0.2 0
3.6 0.2 0
3.9 0.2 0
4.2 0.2 0
4.5 0.2 0
4.8 0.2 0
5.1 0.2 0
5.4 0.2 0
5.7 0.2 0
6 0.2 0
6.3 0.2 0
6.6 0.2 0
6.9 0.2 0
7.2 0.2 0
7.5 0.2 0
7.8 0.2 0
8.1 0.2 0
8.4 0.2 0
8.7 0.2 0
9 0.2 0
9.3 0.2 0
9.6 0.2 0
9.9 0.2 0
10.2 0.2 0
10.5 0.2 0
10.8 0.2 0
11.1 0.2 0
11.4 0.2 0
11.7 0.2 0
12 0.2 0
12.3 0.2 0
12.6 0.2 0
12.9 0.2 0
13.2 0.2 0
13.5 0.2 0
13.8 0.2 0
14.1 0.2 0
14.4 0.2 0
14.7 0.2 0
15 0.2 0
15.3 0.2 0
15.6 0.2 0
15.9 0.2 0
16.2 0.2 0
16.5 0.2 0
16.8 0.2 0
17.1 0.2 0
17.4 0.2 0
17.7 0.2 0
18 0.2 0
18.3 0.2 0
18.6 0.2 0
18.9 0.2 0
19.2 0.2 0
19.5 0.2 0
19.8 0.2 0
20.1 0.2 0
20.4 0.2 0
20.7 0.2 0
21 0.2 0
21.3 0.2 0
21.6 0.2 0
21.9 0.2 0
22.2 0.2 0
22.5 0.2 0
22.8 0.2 0
23.1 0.2 0
23.4 0.2 0
23.7 0.2 0
24 0.2 0
24.3 0.2 0
24.6 0.2 0
24.9 0.2 0
25.2 0.2 0
25.5 0.2 0
25.8 0.2 0
26.1 0.2 0
26.4 0.2 0
26.7 0.2 0
27 0.2 0
27.3 0.2 0
27.6 0.2 0
27.9 0.2 0
28.2 0.2 0
28.5 0.2 0
28.8 0.2 0
29.1 0.2 0
29.4 0.2 0
29.7 0.2 0
30 0.2 0
30.3 0.2 0
30.6 0.2 0
0 0.3 0
0.3 0.3 0
0.6 0.3 0
0.9 0.3 0
1.2 0.3 0
1.5 0.3 0
1.8 0.3 0
2.1 0.3 0
2.4 0.3 0
2.7 0.3 0
3 0.3 0
3.3 0.3 0
3.6 0.3 0
3.9 0.3 0
4.2 0.3 0
4.5 0.3 0
4.8 0.3 0
5.1 0.3 0
5.4 0.3 0
5.7 0.3 0
6 0.3 0
6.3 0.3 0
6.6 0.3 0
6.9 0.3 0
7.2 0.3 0
7.5 0.3 0
7.8 0.3 0
8.1 0.3 0
8.4 0.3 0
8.7 0.3 0
9 0.3 0
9.3 0.3 0
9.6 0.3 0
9.9 0.3 0
10.2 0.3 0
10.5 0.3 0
10.8 0.3 0
11.1 0.3 0
11.4 0.3 0
11.7 0.3 0
12 0.3 0
12.3 0.3 0
12.6 0.3 0
12.9 0.3 0
13.2 0.3 0
13.5 0.3 0
13.8 0.3 0
14.1 0.3 0
14.4 0.3 0
14.7 0.3 0
15 0.3 0
15.3 0.3 0
15.6 0.3 0
15.9 0.3 0
16.2 0.3 0
16.5 0.3 0
16.8 0.3 0
17.1 0.3 0
17.4 0.3 0
17.7 0.3 0
18 0.3 0
18.3 0.3 0
18.6 0.3 0
18.9 0.3 0
19.2 0.3 0
19.5 0.3 0
19.8 0.3 0
20.1 0.3 0
20.4 0.3 0
20.7 0.3 0
21 0.3 0
21.3 0.3 0
21.6 0.3 0
21.9 0.3 0
22.2 0.3 0
22.5 0.3 0
22.8 0.3 0
23.1 0.3 0
23.4 0.3 0
23.7 0.3 0
24 0.3 0
24.3 0.3 0
24.6 0.3 0
24.9 0.3 0
25.2 0.3 0
25.5 0.3 0
25.8 0.3 0
26.1 0.3 0
26.4 0.3 0
26.7 0.3 0
27 0.3 0
27.3 0.3 0
27.6 0.3 0
27.9 0.3 0
28.2 0.3 0
28.5 0.3 0
28.8 0.3 0
29.1 0.3 0
29.4 0.3 0
29.7 0.3 0
30 0.3 0
30.3 0.3 0
30.6 0.3 0
0 0.4 0
0.3 0.4 0
0.6 0.4 0
0.9 0.4 0
1.2 0.4 0
1.5 0.4 0
1.8 0.4 0
2.1 0.4 0
2.4 0.4 0
2.7 0.4 0
3 0.4 0
3.3 0.4 0
3.6 0.4 0
3.9 0.4 0
4.2 0.4 0
4.5 0.4 0
4.8 0.4 0
5.1 0.4 0
5.4 0.4 0
5.7 0.4 0
6 0.4 0
6.3 0.4 0
6.6 0.4 0
6.9 0.4 0
7.2 0.4 0
7.5 0.4 0
7.8 0.4 0
8.1 0.4 0
8.4 0.4 0
8.7 0.4 0
9 0.4 0
9.3 0.4 0
9.6 0.4 0
9.9 0.4 0
10.2 0.4 0
10.5 0.4 0
10.8 0.4 0
11.1 0.4 0
11.4 0.4 0
11.7 0.4 0
12 0.4 0
12.3 0.4 0
12.6 0.4 0
12.9 0.4 0
13.2 0.4 0
13.5 0.4 0
13.8 0.4 0
14.1 0.4 0
14.4 0.4 0
14.7 0.4 0
15 0.4 0
15.3 0.4 0
15.6 0.4 0
15.9 0.4 0
16.2 0.4 0
16.5 0.4 0
16.8 0.4 0
17.1 0.4 0
17.4 0.4 0
17.7 0.4 0
18 0.4 0
18.3 0.4 0
18.6 0.4 0
18.9 0.4 0
19.2 0.4 0
19.5 0.4 0
19.8 0.4 0
20.1 0.4 0
20.4 0.4 0
20.7 0.4 0
21 0.4 0
21.3 0.4 0
21.6 0.4 0
21.9 0.4 0
22.2 0.4 0
22.5 0.4 0
22.8 0.4 0
23.1 0.4 0
23.4 0.4 0
23.7 0.4 0
24 0.4 0
24.3 0.4 0
24.6 0.4 0
24.9 0.4 0
25.2 0.4 0
25.5 0.4 0
25.8 0.4 0
26.1 0.4 0
26.4 0.4 0
26.7 0.4 0
27 0.4 0
27.3 0.4 0
27.6 0.4 0
27.9 0.4 0
28.2 0.4 0
28.5 0.4 0
28.8 0.4 0
29.1 0.4 0
29.4 0.4 0
29.7 0.4 0
30 0.4 0
30.3 0.4 0
30.6 0.4 0
0 0.5 0
0.3 0.5 0
0.6 0.5 0
0.9 0.5 0
1.2 0.5 0
1.5 0.5 0
1.8 0.5 0
2.1 0.5 0
2.4 0.5 0
2.7 0.5 0
3 0.5 0
3.3 0.5 0
3.6 0.5 0
3.9 0.5 0
4.2 0.5 0
4.5 0.5 0
4.8 0.5 0
5.1 0.5 0
5.4 0.5 0
5.7 0.5 0
6 0.5 0
6.3 0.5 0
6.6 0.5 0
6.9 0.5 0
7.2 0.5 0
7.5 0.5 0
7.8 0.5 0
8.1 0.5 0
8.4 0.5 0
8.7 0.5 0
9 0.5 0
9.3 0.5 0
9.6 0.5 0
9.9 0.5 0
10.2 0.5 0
10.5 0.5 0
10.8 0.5 0
11.1 0.5 0
11.4 0.5 0
11.7 0.5 0
12 0.5 0
12.3 0.5 0
12.6 0.5 0
12.9 0.5 0
13.2 0.5 0
13.5 0.5 0
13.8 0.5 0
14.1 0.5 0
14.4 0.5 0
14.7 0.5 0
15 0.5 0
15.3 0.5 0
15.6 0.5 0
15.9 0.5 0
16.2 0.5 0
16.5 0.5 0
16.8 0.5 0
17.1 0.5 0
17.4 0.5 0
17.7 0.5 0
18 0.5 0
18.3 0.5 0
18.6 0.5 0
18.9 0.5 0
19.2 0.5 0
19.5 0.5 0
19.8 0.5 0
20.1 0.5 0
20.4 0.5 0
20.7 0.5 0
21 0.5 0
21.3 0.5 0
21.6 0.5 0
21.9 0.5 0
22.2 0.5 0
22.5 0.5 0
22.8 0.5 0
23.1 0.5 0
23.4 0.5 0
23.7 0.5 0
24 0.5 0
24.3 0.5 0
24.6 0.5 0
24.9 0.5 0
25.2 0.5 0
25.5 0.5 0
25.8 0.5 0
26.1 0.5 0
26.4 0.5 0
26.7 0.5 0
27 0.5 0
27.3 0.5 0
27.6 0.5 0
27.9 0.5 0
28.2 0.5 0
28.5 0.5 0
28.8 0.5 0
29.1 0.5 0
29.4 0.5 0
29.7 0.5 0
30 0.5 0
30.3 0.5 0
30.6 0.5 0
0 0.6 0
0.3 0.6 0
0.6 0.6 0
0.9 0.6 0
1.2 0.6 0
1.5 0.6 0
1.8 0.6 0
2.1 0.6 0
2.4 0.6 0
2.7 0.6 0
3 0.6 0
3.3 0.6 0
3.6 0.6 0
3.9 0.6 0
4.2 0.6 0
4.5 0.6 0
4.8 0.6 0
5.1 0.6 0
5.4 0.6 0
5.7 0.6 0
6 0.6 0
6.3 0.6 0
6.6 0.6 0
6.9 0.6 0
7.2 0.6 0
7.5 0.6 0
7.8 0.6 0
8.1 0.6 0
8.4 0.6 0
8.7 0.6 0
9 0.6 0
9.3 0.6 0
9.6 0.6 0
9.9 0.6 0
10.2 0.6 0
10.5 0.6 0
10.8 0.6 0
11.1 0.6 0
11.4 0.6 0
11.7 0.6 0
12 0.6 0
12.3 0.6 0
12.6 0.6 0
12.9 0.6 0
13.2 0.6 0
13.5 0.6 0
13.8 0.6 0
14.1 0.6 0
14.4 0.6 0
14.7 0.6 0
15 0.6 0
15.3 0.6 0
15.6 0.6 0
15.9 0.6 0
16.2 0.6 0
16.5 0.6 0
16.8 0.6 0
17.1 0.6 0
17.4 0.6 0
17.7 0.6 0
18 0.6 0
18.3 0.6 0
18.6 0.6 0
18.9 0.6 0
19.2 0.6 0
19.5 0.6 0
19.8 0.6 0
20.1 0.6 0
20.4 0.6 0
20.7 0.6 0
21 0.6 0
21.3 0.6 0
21.6 0.6 0
21.9 0.6 0
22.2 0.6 0
22.5 0.6 0
22.8 0.6 0
23.1 0.6 0
23.4 0.6 0
23.7 0.6 0
24 0.6 0
24.3 0.6 0
24.6 0.6 0
24.9 0.6 0
25.2 0.6 0
25.5 0.6 0
25.8 0.6 0
26.1 0.6 0
26.4 0.6 0
26.7 0.6 0
27 0.6 0
27.3 0.6 0
27.6 0.6 0
27.9 0.6 0
28.2 0.6 0
28.5 0.6 0
28.8 0.6 0
29.1 0.6 0
29.4 0.6 0
29.7 0.6 0
30 0.6 0
30.3 0.6 0
30.6 0.6 0
0 0.7 0
0.3 0.7 0
0.6 0.7 0
0.9 0.7 0
1.2 0.7 0
1.5 0.7 0
1.8 0.7 0
2.1 0.7 0
2.4 0.7 0
2.7 0.7 0
3 0.7 0
3.3 0.7 0
3.6 0.7 0
3.9 0.7 0
4.2 0.7 0
4.5 0.7 0
4.8 0.7 0
5.1 0.7 0
5.4 0.7 0
5.7 0.7 0
6 0.7 0
6.3 0.7 0
6.6 0.7 0
6.9 0.7 0
7.2 0.7 0
7.5 0.7 0
7.8 0.7 0
8.1 0.7 0
8.4 0.7 0
8.7 0.7 0
9 0.7 0
9.3 0.7 0
9.6 0.7 0
9.9 0.7 0
10.2 0.7 0
10.5 0.7 0
10.8 0.7 0
11.1 0.7 0
11.4 0.7 0
11.7 0.7 0
12 0.7 0
12.3 0.7 0
12.6 0.7 0
12.9 0.7 0
13.2 0.7 0
13.5 0.7 0
13.8 0.7 0
14.1 0.7 0
14.4 0.7 0
14.7 0.7 0
15 0.7 0
15.3 0.7 0
15.6 0.7 0
15.9 0.7 0
16.2 0.7 0
16.5 0.7 0
16.8 0.7 0
17.1 0.7 0
17.4 0.7 0
17.7 0.7 0
18 0.7 0
18.3 0.7 0
18.6 0.7 0
18.9 0.7 0
19.2 0.7 0
19.5 0.7 0
19.8 0.7 0
20.1 0.7 0
20.4 0.7 0
20.7 0.7 0
21 0.7 0
21.3 0.7 0
21.6 0.7 0
21.9 0.7 0
22.2 0.7 0
22.5 0.7 0
22.8 0.7 0
23.1 0.7 0
23.4 0.7 0
23.7 0.7 0
24 0.7 0
24.3 0.7 0
24.6 0.7 0
24.9 0.7 0
25.2 0.7 0
25.5 0.7 0
25.8 0.7 0
26.1 0.7 0
26.4 0.7 0
26.7 0.7 0
27 0.7 0
27.3 0.7 0
27.6 0.7 0
27.9 0.7 0
28.2 0.7 0
28.5 0.7 0
28.8 0.7 0
29.1 0.7 0
29.4 0.7 0
29.7 0.7 0
30 0.7 0
30.3 0.7 0
30.6 0.7 0
0 0.8 0
0.3 0.8 0
0.6 0.8 0
0.9 0.8 0
1.2 0.8 0
1.5 0.8 0
1.8 0.8 0
2.1 0.8 0
2.4 0.8 0
2.7 0.8 0
3 0.8 0
3.3 0.8 0
3.6 0.8 0
3.9 0.8 0
4.2 0.8 0
4.5 0.8 0
4.8 0.8 0
5.1 0.8 0
5.4 0.8 0
5.7 0.8 0
6 0.8 0
6.3 0.8 0
6.6 0.8 0
6.9 0.8 0
7.2 0.8 0
7.5 0.8 0
7.8 0.8 0
8.1 0.8 0
8.4 0.8 0
8.7 0.8 0
9 0.8 0
9.3 0.8 0
9.6 0.8 0
9.9 0.8 0
10.2 0.8 0
10.5 0.8 0
10.8 0.8 0
11.1 0.8 0
11.4 0.8 0
11.7 0.8 0
12 0.8 0
12.3 0.8 0
12.6 0.8 0
12.9 0.8 0
13.2 0.8 0
13.5 0.8 0
13.8 0.8 0
14.1 0.8 0
14.4 0.8 0
14.7 0.8 0
15 0.8 0
15.3 0.8 0
15.6 0.8 0
15.9 0.8 0
16.2 0.8 0
16.5 0.8 0
16.8 0.8 0
17.1 0.8 0
17.4 0.8 0
17.7 0.8 0
18 0.8 0
18.3 0.8 0
18.6 0.8 0
18.9 0.8 0
19.2 0.8 0
19.5 0.8 0
19.8 0.8 0
20.1 0.8 0
20.4 0.8 0
20.7 0.8 0
21 0.8 0
21.3 0.8 0
21.6 0.8 0
21.9 0.8 0
22.2 0.8 0
22.5 0.8 0
22.8 0.8 0
23.1 0.8 0
23.4 0.8 0
23.7 0.8 0
24 0.8 0
24.3 0.8 0
24.6 0.8 0
24.9 0.8 0
25.2 0.8 0
25.5 0.8 0
25.8 0.8 0
26.1 0.8 0
26.4 0.8 0
26.7 0.8 0
27 0.8 0
27.3 0.8 0
27.6 0.8 0
27.9 0.8 0
28.2 0.8 0
28.5 0.8 0
28.8 0.8 0
29.1 0.8 0
29.4 0.8 0
29.7 0.8 0
30 0.8 0
30.3 0.8 0
30.6 0.8 0
0 0.9 0
0.3 0.9 0
0.6 0.9 0
0.9 0.9 0
1.2 0.9 0
1.5 0.9 0
1.8 0.9 0
2.1 0.9 0
2.4 0.9 0
2.7 0.9 0
3 0.9 0
3.3 0.9 0
3.6 0.9 0
3.9 0.9 0
4.2 0.9 0
4.5 0.9 0
4.8 0.9 0
5.1 0.9 0
5.4 0.9 0
5.7 0.9 0
6 0.9 0
6.3 0.9 0
6.6 0.9 0
6.9 0.9 0
7.2 0.9 0
7.5 0.9 0
7.8 0.9 0
8.1 0.9 0
8.4 0.9 0
8.7 0.9 0
9 0.9 0
9.3 0.9 0
9.6 0.9 0
9.9 0.9 0
10.2 0.9 0
10.5 0.9 0
10.8 0.9 0
11.1 0.9 0
11.4 0.9 0
11.7 0.9 0
12 0.9 0
12.3 0.9 0
12.6 0.9 0
12.9 0.9 0
13.2 0.9 0
13.5 0.9 0
13.8 0.9 0
14.1 0.9 0
14.4 0.9 0
14.7 0.9 0
15 0.9 0
15.3 0.9 0
15.6 0.9 0
15.9 0.9 0
16.2 0.9 0
16.5 0.9 0
16.8 0.9 0
17.1 0.9 0
17.4 0.9 0
17.7 0.9 0
18 0.9 0
18.3 0.9 0
18.6 0.9 0
18.9 0.9 0
19.2 0.9 0
19.5 0.9 0
19.8 0.9 0
20.1 0.9 0
20.4 0.9 0
20.7 0.9 0
21 0.9 0
21.3 0.9 0
21.6 0.9 0
21.9 0.9 0
22.2 0.9 0
22.5 0.9 0
22.8 0.9 0
23.1 0.9 0
23.4 0.9 0
23.7 0.9 0
24 0.9 0
24.3 0.9 0
24.6 0.9 0
24.9 0.9 0
25.2 0.9 0
25.5 0.9 0
25.8 0.9 0
26.1 0.9 0
26.4 0.9 0
26.7 0.9 0
27 0.9 0
27.3 0.9 0
27.6 0.9 0
27.9 0.9 0
28.2 0.9 0
28.5 0.9 0
28.8 0.9 0
29.1 0.9 0
29.4 0.9 0
29.7 0.9 0
30 0.9 0
30.3 0.9 0
30.6 0.9 0
0 1 0
0.3 1 0
0.6 1 0
0.9 1 0
1.2 1 0
1.5 1 0
1.8 1 0
2.1 1 0
2.4 1 0
2.7 1 0
3 1 0
3.3 1 0
3.6 1 0
3.9 1 0
4.2 1 0
4.5 1 0
4.8 1 0
5.1 1 0
5.4 1 0
5.7 1 0
6 1 0
6.3 1 0
6.6 1 0
6.9 1 0
7.2 1 0
7.5 1 0
7.8 1 0
8.1 1 0
8.4 1 0
8.7 1 0
9 1 0
9.3 1 0
9.6 1 0
9.9 1 0
10.2 1 0
10.5 1 0
10.8 1 0
11.1 1 0
11.4 1 0
11.7 1 0
12 1 0
12.3 1 0
12.6 1 0
12.9 1 0
13.2 1 0
13.5 1 0
13.8 1 0
14.1 1 0
14.4 1 0
14.7 1 0
15 1 0
15.3 1 0
15.6 1 0
15.9 1 0
16.2 1 0
16.5 1 0
16.8 1 0
17.1 1 0
17.4 1 0
17.7 1 0
18 1 0
18.3 1 0
18.6 1 0
18.9 1 0
19.2 1 0
19.5 1 0
19.8 1 0
20.1 1 0
20.4 1 0
20.7 1 0
21 1 0
21.3 1 0
21.6 1 0
21.9 1 0
22.2 1 0
22.5 1 0
22.8 1 0
23.1 1 0
23.4 1 0
23.7 1 0
24 1 0
24.3 1 0
24.6 1 0
24.9 1 0
25.2 1 0
25.5 1 0
25.8 1 0
26.1 1 0
26.4 1 0
26.7 1 0
27 1 0
27.3 1 0
27.6 1 0
27.9 1 0
28.2 1 0
28.5 1 0
28.8 1 0
29.1 1 0
29.4 1 0
29.7 1 0
30 1 0
30.3 1 0
30.6 1 0
0 1.1 0
0.3 1.1 0
0.6 1.1 0
0.9 1.1 0
1.2 1.1 0
1.5 1.1 0
1.8 1.1 0
2.1 1.1 0
2.4 1.1 0
2.7 1.1 0
3 1.1 0
3.3 1.1 0
3.6 1.1 0
3.9 1.1 0
4.2 1.1 0
4.5 1.1 0
4.8 1.1 0
5.1 1.1 0
5.4 1.1 0
5.7 1.1 0
6 1.1 0
6.3 1.1 0
6.6 1.1 0
6.9 1.1 0
7.2 1.1 0
7.5 1.1 0
7.8 1.1 0
8.1 1.1 0
8.4 1.1 0
8.7 1.1 0
9 1.1 0
9.3 1.1 0
9.6 1.1 0
9.9 1.1 0
10.2 1.1 0
10.5 1.1 0
10.8 1.1 0
11.1 1.1 0
11.4 1.1 0
11.7 1.1 0
12 1.1 0
12.3 1.1 0
12.6 1.1 0
12.9 1.1 0
13.2 1.1 0
13.5 1.1 0
13.8 1.1 0
14.1 1.1 0
14.4 1.1 0
14.7 1.1 0
15 1.1 0
15.3 1.1 0
15.6 1.1 0
15.9 1.1 0
16.2 1.1 0
16.5 1.1 0
16.8 1.1 0
17.1 1.1 0
17.4 1.1 0
17.7 1.1 0
18 1.1 0
18.3 1.1 0
18.6 1.1 0
18.9 1.1 0
19.2 1.1 0
19.5 1.1 0
19.8 1.1 0
20.1 1.1 0
20.4 1.1 0
20.7 1.1 0
21 1.1 0
21.3 1.1 0
21.6 1.1 0
21.9 1.1 0
22.2 1.1 0
22.5 1.1 0
22.8 1.1 0
23.1 1.1 0
23.4 1.1 0
23.7 1.1 0
24 1.1 0
24.3 1.1 0
24.6 1.1 0
24.9 1.1 0
25.2 1.1 0
25.5 1.1 0
25.8 1.1 0
26.1 1.1 0
26.4 1.1 0
26.7 1.1 0
27 1.1 0
27.3 1.1 0
27.6 1.1 0
27.9 1.1 0
28.2 1.1 0
28.5 1.1 0
28.8 1.1 0
29.1 1.1 0
29.4 1.1 0
29.7 1.1 0
30 1.1 0
30.3 1.1 0
30.6 1.1 0
0 1.2 0
0.3 1.2 0
0.6 1.2 0
0.9 1.2 0
1.2 1.2 0
1.5 1.2 0
1.8 1.2 0
2.1 1.2 0
2.4 1.2 0
2.7 1.2 0
3 1.2 0
3.3 1.2 0
3.6 1.2 0
3.9 1.2 0
4.2 1.2 0
4.5 1.2 0
4.8 1.2 0
5.1 1.2 0
5.4 1.2 0
5.7 1.2 0
6 1.2 0
6.3 1.2 0
6.6 1.2 0
6.9 1.2 0
7.2 1.2 0
7.5 1.2 0
7.8 1.2 0
8.1 1.2 0
8.4 1.2 0
8.7 1.2 0
9 1.2 0
9.3 1.2 0
9.6 1.2 0
9.9 1.2 0
10.2 1.2 0
10.5 1.2 0
10.8 1.2 0
11.1 1.2 0
11.4 1.2 0
11.7 1.2 0
12 1.2 0
12.3 1.2 0
12.6 1.2 0
12.9 1.2 0
13.2 1.2 0
13.5 1.2 0
13.8 1.2 0
14.1 1.2 0
14.4 1.2 0
14.7 1.2 0
15 1.2 0
15.3 1.2 0
15.6 1.2 0
15.9 1.2 0
16.2 1.2 0
16.5 1.2 0
16.8 1.2 0
17.1 1.2 0
17.4 1.2 0
17.7 1.2 0
18 1.2 0
18.3 1.2 0
18.6 1.2 0
18.9 1.2 0
19.2 1.2 0
19.5 1.2 0
19.8 1.2 0
20.1 1.2 0
20.4 1.2 0
20.7 1.2 0
21 1.2 0
21.3 1.2 0
21.6 1.2 0
21.9 1.2 0
22.2 1.2 0
22.5 1.2 0
22.8 1.2 0
23.1 1.2 0
23.4 1.2 0
23.7 1.2 0
24 1.2 0
24.3 1.2 0
24.6 1.2 0
24.9 1.2 0
25.2 1.2 0
25.5 1.2 0
25.8 1.2 0
26.1 1.2 0
26.4 1.2 0
26.7 1.2 0
27 1.2 0
27.3 1.2 0
27.6 1.2 0
27.9 1.2 0
28.2 1.2 0
28.5 1.2 0
28.8 1.2 0
29.1 1.2 0
29.4 1.2 0
29.7 1.2 0
30 1.2 0
30.3 1.2 0
30.6 1.2 0

POINT_DATA 1339

SCALARS pressure double
LOOKUP_TABLE pressure
1.17364
1.17364
1.1088
1.06457
1.02474
0.988166
0.955114
0.925586
0.899231
0.875521
0.853919
0.833956
0.815263
0.797564
0.780657
0.764397
0.748679
0.733423
0.718571
0.704076
0.689901
0.676016
0.662396
0.649017
0.635861
0.622911
0.610151
0.597569
0.585151
0.572886
0.560765
0.548777
0.536915
0.525171
0.513537
0.502008
0.49058
0.479249
0.468012
0.456866
0.44581
0.434843
0.423963
0.413168
0.402456
0.391823
0.381266
0.370779
0.360356
0.349993
0.339681
0.329415
0.319189
0.308996
0.298831
0.288689
0.278565
0.268456
0.258358
0.248269
0.238187
0.228109
0.218035
0.207964
0.197895
0.187827
0.17776
0.167694
0.157628
0.147563
0.137497
0.127432
0.117367
0.107302
0.0972371
0.0871721
0.0771072
0.0670422
0.0569773
0.0469124
0.0368474
0.0267825
0.0167176
0.00665265
-0.00341227
-0.0134772
-0.0235421
-0.033607
-0.0436719
-0.0537369
-0.0638018
-0.0738667
-0.0839316
-0.0939965
-0.104061
-0.114126
-0.124191
-0.134256
-0.144321
-0.154386
-0.164451
-0.174509
0.174509
1.17364
1.17364
1.1088
1.06457
1.02474
0.988166
0.955114
0.925586
0.899231
0.875521
0.853919
0.833956
0.815263
0.797564
0.780657
0.764397
0.748679
0.733423
0.718571
0.704076
0.689901
0.676016
0.662396
0.649017
0.635861
0.622911
0.610151
0.597569
0.585151
0.572886
0.560765
0.548777
0.536915
0.525171
0.513537
0.502008
0.49058
0.479249
0.468012
0.456866
0.44581
0.434843
0.423963
0.413168
0.402456
0.391823
0.381266
0.370779
0.360356
0.349993
0.339681
0.329415
0.319189
0.308996
0.298831
0.288689
0.278565
0.268456
0.258358
0.248269
0.238187
0.228109
0.218035
0.207964
0.197895
0.187827
0.17776
0.167694
0.157628
0.147563
0.137497
0.127432
0.117367
0.107302
0.0972371
0.0871721
0.0771072
0.0670422
0.0569773
0.0469124
0.0368474
0.0267825
0.0167176
0.00665265
-0.00341227
-0.0134772
-0.0235421
-0.033607
-0.0436719
-0.0537369
-0.0638018
-0.0738667
-0.0839316
-0.0939965
-0.104061
-0.114126
-0.124191
-0.134256
-0.144321
-0.154386
-0.164451
-0.174509
0.174509
1.1527
1.1527
1.10681
1.06479
1.02545
0.988963
0.955857
0.926218
0.899738
0.875916
0.854223
0.83419
0.815445
0.797708
0.780774
0.764495
0.748761
0.733494
0.718633
0.704131
0.68995
0.676061
0.662436
0.649053
0.635894
0.622942
0.61018
0.597595
0.585175
0.572909
0.560786
0.548797
0.536933
0.525187
0.513552
0.502023
0.490594
0.479261
0.468022
0.456875
0.445819
0.43485
0.423969
0.413173
0.40246
0.391827
0.381268
0.37078
0.360357
0.349993
0.339681
0.329415
0.319189
0.308996
0.298831
0.288689
0.278565
0.268456
0.258358
0.248269
0.238186
0.228109
0.218035
0.207964
0.197895
0.187827
0.17776
0.167694
0.157628
0.147563
0.137497
0.127432
0.117367
0.107302
0.0972371
0.0871721
0.0771072
0.0670422
0.0569773
0.0469124
0.0368474
0.0267825
0.0167176
0.00665265
-0.00341227
-0.0134772
-0.0235421
-0.033607
-0.0436719
-0.0537369
-0.0638018
-0.0738667
-0.0839316
-0.0939965
-0.104061
-0.114126
-0.124191
-0.134256
-0.144321
-0.154386
-0.164452
-0.174508
0.174508
1.13772
1.13772
1.10393
1.06503
1.02656
0.990287
0.957119
0.927296
0.900599
0.876576
0.854715
0.834554
0.815716
0.797913
0.780932
0.76462
0.748862
0.733578
0.718704
0.704192
0.690003
0.676107
0.662477
0.64909
0.635928
0.622971
0.610207
0.597619
0.585197
0.572929
0.560805
0.548814
0.536949
0.525202
0.513566
0.502035
0.490605
0.479272
0.468032
0.456884
0.445826
0.434857
0.423975
0.413178
0.402464
0.391829
0.381271
0.370782
0.360359
0.349994
0.339682
0.329416
0.319189
0.308996
0.298831
0.288688
0.278565
0.268455
0.258358
0.248269
0.238186
0.228109
0.218035
0.207964
0.197895
0.187827
0.17776
0.167694
0.157628
0.147563
0.137497
0.127432
0.117367
0.107302
0.0972371
0.0871721
0.0771072
0.0670422
0.0569773
0.0469124
0.0368474
0.0267825
0.0167176
0.00665265
-0.00341227
-0.0134772
-0.0235421
-0.033607
-0.0436719
-0.0537369
-0.0638018
-0.0738667
-0.0839316
-0.0939965
-0.104061
-0.114126
-0.124191
-0.134256
-0.144321
-0.154385
-0.164449
-0.174506
0.174506
1.12815
1.12815
1.10144
1.06513
1.02751
0.991482
0.958295
0.928332
0.901452
0.877248
0.855232
0.834949
0.816019
0.798148
0.781118
0.764769
0.748985
0.733681
0.718792
0.704268
0.69007
0.676166
0.662529
0.649137
0.635969
0.623009
0.61024
0.59765
0.585225
0.572954
0.560828
0.548835
0.536968
0.52522
0.513582
0.502051
0.490619
0.479285
0.468044
0.456896
0.445837
0.434867
0.423984
0.413186
0.402472
0.391836
0.381277
0.370787
0.360363
0.349998
0.339685
0.329418
0.319191
0.308998
0.298832
0.288689
0.278565
0.268456
0.258358
0.248269
0.238187
0.228109
0.218035
0.207964
0.197895
0.187827
0.17776
0.167694
0.157628
0.147563
0.137497
0.127432
0.117367
0.107302
0.0972371
0.0871721
0.0771072
0.0670422
0.0569773
0.0469124
0.0368474
0.0267825
0.0167176
0.00665265
-0.00341227
-0.0134772
-0.0235421
-0.033607
-0.0436719
-0.0537369
-0.0638018
-0.0738667
-0.0839316
-0.0939965
-0.104061
-0.114126
-0.124191
-0.134256
-0.14432
-0.154384
-0.164444
-0.174503
0.174503
1.12284
1.12284
1.09982
1.06515
1.0281
0.992248
0.959064
0.929022
0.90203
0.877712
0.855597
0.835233
0.816241
0.798324
0.781261
0.764887
0.749084
0.733766
0.718865
0.704332
0.690127
0.676216
0.662574
0.649178
0.636006
0.623042
0.610271
0.597678
0.585251
0.572978
0.560849
0.548855
0.536987
0.525237
0.513598
0.502065
0.490633
0.479298
0.468057
0.456907
0.445848
0.434878
0.423994
0.413196
0.402481
0.391845
0.381284
0.370794
0.360369
0.350003
0.33969
0.329422
0.319194
0.309
0.298834
0.288691
0.278567
0.268457
0.258359
0.24827
0.238187
0.228109
0.218036
0.207964
0.197895
0.187827
0.17776
0.167694
0.157628
0.147563
0.137497
0.127432
0.117367
0.107302
0.0972371
0.0871721
0.0771072
0.0670422
0.0569773
0.0469124
0.0368474
0.0267825
0.0167176
0.00665265
-0.00341227
-0.0134772
-0.0235421
-0.033607
-0.0436719
-0.0537369
-0.0638018
-0.0738667
-0.0839316
-0.0939965
-0.104061
-0.114126
-0.124191
-0.134256
-0.14432
-0.154383
-0.164438
-0.174501
0.174501
1.12114
1.12114
1.09927
1.06516
1.02832
0.992522
0.959338
0.929267
0.902237
0.877879
0.855729
0.835338
0.816324
0.798391
0.781315
0.764932
0.749123
0.733799
0.718895
0.704358
0.69015
0.676237
0.662593
0.649195
0.636021
0.623056
0.610284
0.59769
0.585261
0.572988
0.560858
0.548863
0.536995
0.525244
0.513605
0.502072
0.490639
0.479304
0.468062
0.456913
0.445853
0.434883
0.423999
0.413201
0.402485
0.391849
0.381288
0.370798
0.360372
0.350006
0.339692
0.329424
0.319196
0.309002
0.298835
0.288692
0.278567
0.268458
0.258359
0.24827
0.238187
0.22811
0.218036
0.207965
0.197895
0.187827
0.17776
0.167694
0.157628
0.147563
0.137497
0.127432
0.117367
0.107302
0.0972371
0.0871721
0.0771072
0.0670422
0.0569773
0.0469124
0.0368474
0.0267825
0.0167176
0.00665265
-0.00341227
-0.0134772
-0.0235421
-0.033607
-0.0436719
-0.0537369
-0.0638018
-0.0738667
-0.0839316
-0.0939965
-0.104061
-0.114126
-0.124191
-0.134256
-0.14432
-0.154382
-0.164435
-0.1745
0.1745
1.12284
1.12284
1.09982
1.06515
1.0281
0.992248
0.959064
0.929022
0.90203
0.877712
0.855597
0.835233
0.816241
0.798324
0.781261
0.764887
0.749084
0.733766
0.718865
0.704332
0.690127
0.676216
0.662574
0.649178
0.636006
0.623042
0.610271
0.597678
0.585251
0.572978
0.560849
0.548855
0.536987
0.525237
0.513598
0.502065
0.490633
0.479298
0.468057
0.456907
0.445848
0.434878
0.423994
0.413196
0.402481
0.391845
0.381284
0.370794
0.360369
0.350003
0.33969
0.329422
0.319194
0.309
0.298834
0.288691
0.278567
0.268457
0.258359
0.24827
0.238187
0.228109
0.218036
0.207964
0.197895
0.187827
0.17776
0.167694
0.157628
0.147563
0.137497
0.127432
0.117367
0.107302
0.0972371
0.0871721
0.0771072
0.0670422
0.0569773
0.0469124
0.0368474
0.0267825
0.0167176
0.00665265
-0.00341227
-0.0134772
-0.0235421
-0.033607
-0.0436719
-0.0537369
-0.0638018
-0.0738667
-0.0839316
-0.0939965
-0.104061
-0.114126
-0.124191
-0.134256
-0.14432
-0.154383
-0.164438
-0.174501
0.174501
1.12815
1.12815
1.10144
1.06513
1.02751
0.991482
0.958295
0.928332
0.901452
0.877248
0.855232
0.834949
0.816019
0.798148
0.781118
0.764769
0.748985
0.733681
0.718792
0.704268
0.69007
0.676166
0.662529
0.649137
0.635969
0.623009
0.61024
0.59765
0.585225
0.572954
0.560828
0.548835
0.536968
0.52522
0.513582
0.502051
0.490619
0.479285
0.468044
0.456896
0.445837
0.434867
0.423984
0.413186
0.402472
0.391836
0.381277
0.370787
0.360363
0.349998
0.339685
0.329418
0.319191
0.308998
0.298832
0.288689
0.278565
0.268456
0.258358
0.248269
0.238187
0.228109
0.218035
0.207964
0.197895
0.187827
0.17776
0.167694
0.157628
0.147563
0.137497
0.127432
0.117367
0.107302
0.0972371
0.0871721
0.0771072
0.0670422
0.0569773
0.0469124
0.0368474
0.0267825
0.0167176
0.00665265
-0.00341227
-0.0134772
-0.0235421
-0.033607
-0.0436719
-0.0537369
-0.0638018
-0.0738667
-0.0839316
-0.0939965
-0.104061
-0.114126
-0.124191
-0.134256
-0.14432
-0.154384
-0.164444
-0.174503
0.174503
1.13772
1.13772
1.10393
1.06503
1.02656
0.990287
0.957119
0.927296
0.900599
0.876576
0.854715
0.834554
0.815716
0.797913
0.780932
0.76462
0.748862
0.733578
0.718704
0.704192
0.690003
0.676107
0.662477
0.64909
0.635928
0.622971
0.610207
0.597619
0.585197
0.572929
0.560805
0.548814
0.536949
0.525202
0.513566
0.502035
0.490605
0.479272
0.468032
0.456884
0.445826
0.434857
0.423975
0.413178
0.402464
0.391829
0.381271
0.370782
0.360359
0.349994
0.339682
0.329416
0.319189
0.308996
0.298831
0.288688
0.278565
0.268455
0.258358
0.248269
0.238186
0.228109
0.218035
0.207964
0.197895
0.187827
0.17776
0.167694
0.157628
0.147563
0.137497
0.127432
0.117367
0.107302
0.0972371
0.0871721
0.0771072
0.0670422
0.0569773
0.0469124
0.0368474
0.0267825
0.0167176
0.00665265
-0.00341227
-0.0134772
-0.0235421
-0.033607
-0.0436719
-0.0537369
-0.0638018
-0.0738667
-0.0839316
-0.0939965
-0.104061
-0.114126
-0.124191
-0.134256
-0.144321
-0.154385
-0.164449
-0.174506
0.174506
1.1527
1.1527
1.10681
1.06479
1.02545
0.988963
0.955857
0.926218
0.899738
0.875916
0.854223
0.83419
0.815445
0.797708
0.780774
0.764495
0.748761
0.733494
0.718633
0.704131
0.68995
0.676061
0.662436
0.649053
0.635894
0.622942
0.61018
0.597595
0.585175
0.572909
0.560786
0.548797
0.536933
0.525187
0.513552
0.502023
0.490594
0.479261
0.468022
0.456875
0.445819
0.43485
0.423969
0.413173
0.40246
0.391827
0.381268
0.37078
0.360357
0.349993
0.339681
0.329415
0.319189
0.308996
0.298831
0.288689
0.278565
0.268456
0.258358
0.248269
0.238186
0.228109
0.218035
0.207964
0.197895
0.187827
0.17776
0.167694
0.157628
0.147563
0.137497
0.127432
0.117367
0.107302
0.0972371
0.0871721
0.0771072
0.0670422
0.0569773
0.0469124
0.0368474
0.0267825
0.0167176
0.00665265
-0.00341227
-0.0134772
-0.0235421
-0.033607
-0.0436719
-0.0537369
-0.0638018
-0.0738667
-0.0839316
-0.0939965
-0.104061
-0.114126
-0.124191
-0.134256
-0.144321
-0.154386
-0.164452
-0.174508
0.174508
1.17364
1.17364
1.1088
1.06457
1.02474
0.988166
0.955114
0.925586
0.899231
0.875521
0.853919
0.833956
0.815263
0.797564
0.780657
0.764397
0.748679
0.733423
0.718571
0.704076
0.689901
0.676016
0.662396
0.649017
0.635861
0.622911
0.610151
0.597569
0.585151
0.572886
0.560765
0.548777
0.536915
0.525171
0.513537
0.502008
0.49058
0.479249
0.468012
0.456866
0.44581
0.434843
0.423963
0.413168
0.402456
0.391823
0.381266
0.370779
0.360356
0.349993
0.339681
0.329415
0.319189
0.308996
0.298831
0.288689
0.278565
0.268456
0.258358
0.248269
0.238187
0.228109
0.218035
0.207964
0.197895
0.187827
0.17776
0.167694
0.157628
0.147563
0.137497
0.127432
0.117367
0.107302
0.0972371
0.0871721
0.0771072
0.0670422
0.0569773
0.0469124
0.0368474
0.0267825
0.0167176
0.00665265
-0.00341227
-0.0134772
-0.0235421
-0.033607
-0.0436719
-0.0537369
-0.0638018
-0.0738667
-0.0839316
-0.0939965
-0.104061
-0.114126
-0.124191
-0.134256
-0.144321
-0.154386
-0.164451
-0.174509
0.174509
1.17364
1.17364
1.1088
1.06457
1.02474
0.988166
0.955114
0.925586
0.899231
0.875521
0.853919
0.833956
0.815263
0.797564
0.780657
0.764397
0.748679
0.733423
0.718571
0.704076
0.689901
0.676016
0.662396
0.649017
0.635861
0.622911
0.610151
0.597569
0.585151
0.572886
0.560765
0.548777
0.536915
0.525171
0.513537
0.502008
0.49058
0.479249
0.468012
0.456866
0.44581
0.434843
0.423963
0.413168
0.402456
0.391823
0.381266
0.370779
0.360356
0.349993
0.339681
0.329415
0.319189
0.308996
0.298831
0.288689
0.278565
0.268456
0.258358
0.248269
0.238187
0.228109
0.218035
0.207964
0.197895
0.187827
0.17776
0.167694
0.157628
0.147563
0.137497
0.127432
0.117367
0.107302
0.0972371
0.0871721
0.0771072
0.0670422
0.0569773
0.0469124
0.0368474
0.0267825
0.0167176
0.00665265
-0.00341227
-0.0134772
-0.0235421
-0.033607
-0.0436719
-0.0537369
-0.0638018
-0.0738667
-0.0839316
-0.0939965
-0.104061
-0.114126
-0.124191
-0.134256
-0.144321
-0.154386
-0.164451
-0.174509
0.174509
SCALARS phi double
LOOKUP_TABLE phi
1
1
1
1
0.999998
0.999994
0.999982
0.999957
0.999909
0.999829
0.999708
0.999523
0.99926
0.998946
0.998626
0.998235
0.997413
0.99542
0.991241
0.983841
0.972421
0.956573
0.93629
0.911878
0.883839
0.852762
0.819253
0.783894
0.747223
0.709722
0.671819
0.633883
0.596226
0.559107
0.522738
0.487283
0.452872
0.419598
0.387531
0.356716
0.327186
0.29896
0.272051
0.246468
0.222219
0.199311
0.177754
0.157557
0.138729
0.12128
0.105213
0.0905265
0.0772113
0.0652462
0.0545984
0.0452212
0.0370545
0.0300254
0.0240499
0.0190351
0.0148824
0.0114904
0.00875869
0.00658997
0.00489315
0.00358499
0.00259135
0.00184784
0.00129978
0.000901831
0.000617187
0.000416622
0.0002774
0.000182189
0.000118033
7.54356e-05
4.75625e-05
2.95869e-05
1.816e-05
1.09989e-05
6.5741e-06
3.87813e-06
2.25813e-06
1.29795e-06
7.3654e-07
4.12677e-07
2.28321e-07
1.24753e-07
6.73244e-08
3.58887e-08
1.88997e-08
9.83358e-09
5.05563e-09
2.56858e-09
1.28977e-09
6.40146e-10
3.1408e-10
1.52349e-10
7.30701e-11
3.46439e-11
1.63236e-11
7.05054e-12
7.05054e-12
1
1
1
1
0.999998
0.999994
0.999982
0.999957
0.999909
0.999829
0.999708
0.999523
0.99926
0.998946
0.998626
0.998235
0.997413
0.99542
0.991241
0.983841
0.972421
0.956573
0.93629
0.911878
0.883839
0.852762
0.819253
0.783894
0.747223
0.709722
0.671819
0.633883
0.596226
0.559107
0.522738
0.487283
0.452872
0.419598
0.387531
0.356716
0.327186
0.29896
0.272051
0.246468
0.222219
0.199311
0.177754
0.157557
0.138729
0.12128
0.105213
0.0905265
0.0772113
0.0652462
0.0545984
0.0452212
0.0370545
0.0300254
0.0240499
0.0190351
0.0148824
0.0114904
0.00875869
0.00658997
0.00489315
0.00358499
0.00259135
0.00184784
0.00129978
0.000901831
0.000617187
0.000416622
0.0002774
0.000182189
0.000118033
7.54356e-05
4.75625e-05
2.95869e-05
1.816e-05
1.09989e-05
6.5741e-06
3.87813e-06
2.25813e-06
1.29795e-06
7.3654e-07
4.12677e-07
2.28321e-07
1.24753e-07
6.73244e-08
3.58887e-08
1.88997e-08
9.83358e-09
5.05563e-09
2.56858e-09
1.28977e-09
6.40146e-10
3.1408e-10
1.52349e-10
7.30701e-11
3.46439e-11
1.63236e-11
7.05054e-12
7.05054e-12
1
1
1
0.999996
0.999983
0.999953
0.999898
0.999804
0.999658
0.999446
0.999157
0.998778
0.998297
0.997708
0.997019
0.996239
0.995326
0.994125
0.992333
0.989509
0.985136
0.978712
0.969821
0.958186
0.943677
0.926309
0.906209
0.883592
0.858734
0.831945
0.803551
0.773877
0.743241
0.711937
0.680239
0.648387
0.616593
0.585035
0.553857
0.523172
0.493061
0.46358
0.434758
0.406606
0.379121
0.352294
0.326113
0.30057
0.275672
0.251441
0.227919
0.205171
0.183283
0.162358
0.142512
0.123863
0.106525
0.090594
0.0761427
0.063213
0.0518115
0.0419089
0.0334419
0.0263177
0.0204207
0.0156196
0.0117754
0.00874871
0.00640526
0.00462099
0.00328497
0.00230107
0.00158834
0.00108042
0.000724278
0.000478537
0.000311647
0.000200074
0.000126632
7.90264e-05
4.86327e-05
2.95165e-05
1.767e-05
1.04352e-05
6.08011e-06
3.49564e-06
1.98338e-06
1.11071e-06
6.1401e-07
3.35106e-07
1.80584e-07
9.60999e-08
5.05089e-08
2.62223e-08
1.34488e-08
6.81495e-09
3.41239e-09
1.68859e-09
8.25901e-10
3.9915e-10
1.91748e-10
8.40736e-11
8.40736e-11
0.999997
1
0.99998
0.999896
0.999724
0.999434
0.998999
0.998397
0.997613
0.996636
0.995464
0.994099
0.992546
0.990815
0.988915
0.986862
0.984668
0.982332
0.979817
0.977046
0.973888
0.970169
0.965689
0.960238
0.953621
0.945667
0.936248
0.925276
0.912711
0.898556
0.882852
0.865672
0.847118
0.827313
0.806394
0.784505
0.761798
0.738419
0.714508
0.690194
0.665586
0.640776
0.615828
0.59078
0.565644
0.5404
0.515005
0.489396
0.463497
0.43723
0.410533
0.383373
0.355759
0.327762
0.299519
0.271235
0.24318
0.215671
0.189055
0.163679
0.13987
0.117906
0.0979967
0.0802738
0.0647856
0.0515006
0.0403169
0.0310771
0.0235848
0.0176213
0.0129615
0.00938623
0.00669212
0.00469789
0.00324748
0.00221075
0.00148229
0.000978993
0.000636998
0.000408385
0.000258011