# vtk DataFile Version 3.0
FlowField
ASCII
DATASET STRUCTURED_GRID
DIMENSIONS 103 13 1 
POINTS 1339 double
0 0 0
0.3 0 0
0.6 0 0
0.9 0 0
1.2 0 0
1.5 0 0
1.8 0 0
2.1 0 0
2.4 0 0
2.7 0 0
3 0 0
3.3 0 0
3.6 0 0
3.9 0 0
4.2 0 0
4.5 0 0
4.8 0 0
5.1 0 0
5.4 0 0
5.7 0 0
6 0 0
6.3 0 0
6.6 0 0
6.9 0 0
7.2 0 0
7.5 0 0
7.8 0 0
8.1 0 0
8.4 0 0
8.7 0 0
9 0 0
9.3 0 0
9.6 0 0
9.9 0 0
10.2 0 0
10.5 0 0
10.8 0 0
11.1 0 0
11.4 0 0
11.7 0 0
12 0 0
12.3 0 0
12.6 0 0
12.9 0 0
13.2 0 0
13.5 0 0
13.8 0 0
14.1 0 0
14.4 0 0
14.7 0 0
15 0 0
15.3 0 0
15.6 0 0
15.9 0 0
16.2 0 0
16.5 0 0
16.8 0 0
17.1 0 0
17.4 0 0
17.7 0 0
18 0 0
18.3 0 0
18.6 0 0
18.9 0 0
19.2 0 0
19.5 0 0
19.8 0 0
20.1 0 0
20.4 0 0
20.7 0 0
21 0 0
21.3 0 0
21.6 0 0
21.9 0 0
22.2 0 0
22.5 0 0
22.8 0 0
23.1 0 0
23.4 0 0
23.7 0 0
24 0 0
24.3 0 0
24.6 0 0
24.9 0 0
25.2 0 0
25.5 0 0
25.8 0 0
26.1 0 0
26.4 0 0
26.7 0 0
27 0 0
27.3 0 0
27.6 0 0
27.9 0 0
28.2 0 0
28.5 0 0
28.8 0 0
29.1 0 0
29.4 0 0
29.7 0 0
30 0 0
30.3 0 0
30.6 0 0
0 0.1 0
0.3 0.1 0
0.6 0.1 0
0.9 0.1 0
1.2 0.1 0
1.5 0.1 0
1.8 0.1 0
2.1 0.1 0
2.4 0.1 0
2.7 0.1 0
3 0.1 0
3.3 0.1 0
3.6 0.1 0
3.9 0.1 0
4.2 0.1 0
4.5 0.1 0
4.8 0.1 0
5.1 0.1 0
5.4 0.1 0
5.7 0.1 0
6 0.1 0
6.3 0.1 0
6.6 0.1 0
6.9 0.1 0
7.2 0.1 0
7.5 0.1 0
7.8 0.1 0
8.1 0.1 0
8.4 0.1 0
8.7 0.1 0
9 0.1 0
9.3 0.1 0
9.6 0.1 0
9.9 0.1 0
10.2 0.1 0
10.5 0.1 0
10.8 0.1 0
11.1 0.1 0
11.4 0.1 0
11.7 0.1 0
12 0.1 0
12.3 0.1 0
12.6 0.1 0
12.9 0.1 0
13.2 0.1 0
13.5 0.1 0
13.8 0.1 0
14.1 0.1 0
14.4 0.1 0
14.7 0.1 0
15 0.1 0
15.3 0.1 0
15.6 0.1 0
15.9 0.1 0
16.2 0.1 0
16.5 0.1 0
16.8 0.1 0
17.1 0.1 0
17.4 0.1 0
17.7 0.1 0
18 0.1 0
18.3 0.1 0
18.6 0.1 0
18.9 0.1 0
19.2 0.1 0
19.5 0.1 0
19.8 0.1 0
20.1 0.1 0
20.4 0.1 0
20.7 0.1 0
21 0.1 0
21.3 0.1 0
21.6 0.1 0
21.9 0.1 0
22.2 0.1 0
22.5 0.1 0
22.8 0.1 0
23.1 0.1 0
23.4 0.1 0
23.7 0.1 0
24 0.1 0
24.3 0.1 0
24.6 0.1 0
24.9 0.1 0
25.2 0.1 0
25.5 0.1 0
25.8 0.1 0
26.1 0.1 0
26.4 0.1 0
26.7 0.1 0
27 0.1 0
27.3 0.1 0
27.6 0.1 0
27.9 0.1 0
28.2 0.1 0
28.5 0.1 0
28.8 0.1 0
29.1 0.1 0
29.4 0.1 0
29.7 0.1 0
30 0.1 0
30.3 0.1 0
30.6 0.1 0
0 0.2 0
0.3 0.2 0
0.6 0.2 0
0.9 0.2 0
1.2 0.2 0
1.5 0.2 0
1.8 0.2 0
2.1 0.2 0
2.4 0.2 0
2.7 0.2 0
3 0.2 0
3.3 0.2 0
3.6 0.2 0
3.9 0.2 0
4.2 0.2 0
4.5 0.2 0
4.8 0.2 0
5.1 0.2 0
5.4 0.2 0
5.7 0.2 0
6 0.2 0
6.3 0.2 0
6.6 0.2 0
6.9 0.2 0
7.2 0.2 0
7.5 0.2 0
7.8 0.2 0
8.1 0.2 0
8.4 0.2 0
8.7 0.2 0
9 0.2 0
9.3 0.2 0
9.6 0.2 0
9.9 0.2 0
10.2 0.2 0
10.5 0.2 0
10.8 0.2 0
11.1 0.2 0
11.4 0.2 0
11.7 0.2 0
12 0.2 0
12.3 0.2 0
12.6 0.2 0
12.9 0.2 0
13.2 0.2 0
13.5 0.2 0
13.8 0.2 0
14.1 0.2 0
14.4 0.2 0
14.7 0.2 0
15 0.2 0
15.3 0.2 0
15.6 0.2 0
15.9 0.2 0
16.2 0.2 0
16.5 0.2 0
16.8 0.2 0
17.1 0.2 0
17.4 0.2 0
17.7 0.2 0
18 0.2 0
18.3 0.2 0
18.6 0.2 0
18.9 0.2 0
19.2 0.2 0
19.5 0.2 0
19.8 0.2 0
20.1 0.2 0
20.4 0.2 0
20.7 0.2 0
21 0.2 0
21.3 0.2 0
21.6 0.2 0
21.9 0.2 0
22.2 0.2 0
22.5 0.2 0
22.8 0.2 0
23.1 0.2 0
23.4 0.2 0
23.7 0.2 0
24 0.2 0
24.3 0.2 0
24.6 0.2 0
24.9 0.2 0
25.2 0.2 0
25.5 0.2 0
25.8 0.2 0
26.1 0.2 0
26.4 0.2 0
26.7 0.2 0
27 0.2 0
27.3 0.2 0
27.6 0.2 0
27.9 0.2 0
28.2 0.2 0
28.5 0.2 0
28.8 0.2 0
29.1 0.2 0
29.4 0.2 0
29.7 0.2 0
30 0.2 0
30.3 0.2 0
30.6 0.2 0
0 0.3 0
0.3 0.3 0
0.6 0.3 0
0.9 0.3 0
1.2 0.3 0
1.5 0.3 0
1.8 0.3 0
2.1 0.3 0
2.4 0.3 0
2.7 0.3 0
3 0.3 0
3.3 0.3 0
3.6 0.3 0
3.9 0.3 0
4.2 0.3 0
4.5 0.3 0
4.8 0.3 0
5.1 0.3 0
5.4 0.3 0
5.7 0.3 0
6 0.3 0
6.3 0.3 0
6.6 0.3 0
6.9 0.3 0
7.2 0.3 0
7.5 0.3 0
7.8 0.3 0
8.1 0.3 0
8.4 0.3 0
8.7 0.3 0
9 0.3 0
9.3 0.3 0
9.6 0.3 0
9.9 0.3 0
10.2 0.3 0
10.5 0.3 0
10.8 0.3 0
11.1 0.3 0
11.4 0.3 0
11.7 0.3 0
12 0.3 0
12.3 0.3 0
12.6 0.3 0
12.9 0.3 0
13.2 0.3 0
13.5 0.3 0
13.8 0.3 0
14.1 0.3 0
14.4 0.3 0
14.7 0.3 0
15 0.3 0
15.3 0.3 0
15.6 0.3 0
15.9 0.3 0
16.2 0.3 0
16.5 0.3 0
16.8 0.3 0
17.1 0.3 0
17.4 0.3 0
17.7 0.3 0
18 0.3 0
18.3 0.3 0
18.6 0.3 0
18.9 0.3 0
19.2 0.3 0
19.5 0.3 0
19.8 0.3 0
20.1 0.3 0
20.4 0.3 0
20.7 0.3 0
21 0.3 0
21.3 0.3 0
21.6 0.3 0
21.9 0.3 0
22.2 0.3 0
22.5 0.3 0
22.8 0.3 0
23.1 0.3 0
23.4 0.3 0
23.7 0.3 0
24 0.3 0
24.3 0.3 0
24.6 0.3 0
24.9 0.3 0
25.2 0.3 0
25.5 0.3 0
25.8 0.3 0
26.1 0.3 0
26.4 0.3 0
26.7 0.3 0
27 0.3 0
27.3 0.3 0
27.6 0.3 0
27.9 0.3 0
28.2 0.3 0
28.5 0.3 0
28.8 0.3 0
29.1 0.3 0
29.4 0.3 0
29.7 0.3 0
30 0.3 0
30.3 0.3 0
30.6 0.3 0
0 0.4 0
0.3 0.4 0
0.6 0.4 0
0.9 0.4 0
1.2 0.4 0
1.5 0.4 0
1.8 0.4 0
2.1 0.4 0
2.4 0.4 0
2.7 0.4 0
3 0.4 0
3.3 0.4 0
3.6 0.4 0
3.9 0.4 0
4.2 0.4 0
4.5 0.4 0
4.8 0.4 0
5.1 0.4 0
5.4 0.4 0
5.7 0.4 0
6 0.4 0
6.3 0.4 0
6.6 0.4 0
6.9 0.4 0
7.2 0.4 0
7.5 0.4 0
7.8 0.4 0
8.1 0.4 0
8.4 0.4 0
8.7 0.4 0
9 0.4 0
9.3 0.4 0
9.6 0.4 0
9.9 0.4 0
10.2 0.4 0
10.5 0.4 0
10.8 0.4 0
11.1 0.4 0
11.4 0.4 0
11.7 0.4 0
12 0.4 0
12.3 0.4 0
12.6 0.4 0
12.9 0.4 0
13.2 0.4 0
13.5 0.4 0
13.8 0.4 0
14.1 0.4 0
14.4 0.4 0
14.7 0.4 0
15 0.4 0
15.3 0.4 0
15.6 0.4 0
15.9 0.4 0
16.2 0.4 0
16.5 0.4 0
16.8 0.4 0
17.1 0.4 0
17.4 0.4 0
17.7 0.4 0
18 0.4 0
18.3 0.4 0
18.6 0.4 0
18.9 0.4 0
19.2 0.4 0
19.5 0.4 0
19.8 0.4 0
20.1 0.4 0
20.4 0.4 0
20.7 0.4 0
21 0.4 0
21.3 0.4 0
21.6 0.4 0
21.9 0.4 0
22.2 0.4 0
22.5 0.4 0
22.8 0.4 0
23.1 0.4 0
23.4 0.4 0
23.7 0.4 0
24 0.4 0
24.3 0.4 0
24.6 0.4 0
24.9 0.4 0
25.2 0.4 0
25.5 0.4 0
25.8 0.4 0
26.1 0.4 0
26.4 0.4 0
26.7 0.4 0
27 0.4 0
27.3 0.4 0
27.6 0.4 0
27.9 0.4 0
28.2 0.4 0
28.5 0.4 0
28.8 0.4 0
29.1 0.4 0
29.4 0.4 0
29.7 0.4 0
30 0.4 0
30.3 0.4 0
30.6 0.4 0
0 0.5 0
0.3 0.5 0
0.6 0.5 0
0.9 0.5 0
1.2 0.5 0
1.5 0.5 0
1.8 0.5 0
2.1 0.5 0
2.4 0.5 0
2.7 0.5 0
3 0.5 0
3.3 0.5 0
3.6 0.5 0
3.9 0.5 0
4.2 0.5 0
4.5 0.5 0
4.8 0.5 0
5.1 0.5 0
5.4 0.5 0
5.7 0.5 0
6 0.5 0
6.3 0.5 0
6.6 0.5 0
6.9 0.5 0
7.2 0.5 0
7.5 0.5 0
7.8 0.5 0
8.1 0.5 0
8.4 0.5 0
8.7 0.5 0
9 0.5 0
9.3 0.5 0
9.6 0.5 0
9.9 0.5 0
10.2 0.5 0
10.5 0.5 0
10.8 0.5 0
11.1 0.5 0
11.4 0.5 0
11.7 0.5 0
12 0.5 0
12.3 0.5 0
12.6 0.5 0
12.9 0.5 0
13.2 0.5 0
13.5 0.5 0
13.8 0.5 0
14.1 0.5 0
14.4 0.5 0
14.7 0.5 0
15 0.5 0
15.3 0.5 0
15.6 0.5 0
15.9 0.5 0
16.2 0.5 0
16.5 0.5 0
16.8 0.5 0
17.1 0.5 0
17.4 0.5 0
17.7 0.5 0
18 0.5 0
18.3 0.5 0
18.6 0.5 0
18.9 0.5 0
19.2 0.5 0
19.5 0.5 0
19.8 0.5 0
20.1 0.5 0
20.4 0.5 0
20.7 0.5 0
21 0.5 0
21.3 0.5 0
21.6 0.5 0
21.9 0.5 0
22.2 0.5 0
22.5 0.5 0
22.8 0.5 0
23.1 0.5 0
23.4 0.5 0
23.7 0.5 0
24 0.5 0
24.3 0.5 0
24.6 0.5 0
24.9 0.5 0
25.2 0.5 0
25.5 0.5 0
25.8 0.5 0
26.1 0.5 0
26.4 0.5 0
26.7 0.5 0
27 0.5 0
27.3 0.5 0
27.6 0.5 0
27.9 0.5 0
28.2 0.5 0
28.5 0.5 0
28.8 0.5 0
29.1 0.5 0
29.4 0.5 0
29.7 0.5 0
30 0.5 0
30.3 0.5 0
30.6 0.5 0
0 0.6 0
0.3 0.6 0
0.6 0.6 0
0.9 0.6 0
1.2 0.6 0
1.5 0.6 0
1.8 0.6 0
2.1 0.6 0
2.4 0.6 0
2.7 0.6 0
3 0.6 0
3.3 0.6 0
3.6 0.6 0
3.9 0.6 0
4.2 0.6 0
4.5 0.6 0
4.8 0.6 0
5.1 0.6 0
5.4 0.6 0
5.7 0.6 0
6 0.6 0
6.3 0.6 0
6.6 0.6 0
6.9 0.6 0
7.2 0.6 0
7.5 0.6 0
7.8 0.6 0
8.1 0.6 0
8.4 0.6 0
8.7 0.6 0
9 0.6 0
9.3 0.6 0
9.6 0.6 0
9.9 0.6 0
10.2 0.6 0
10.5 0.6 0
10.8 0.6 0
11.1 0.6 0
11.4 0.6 0
11.7 0.6 0
12 0.6 0
12.3 0.6 0
12.6 0.6 0
12.9 0.6 0
13.2 0.6 0
13.5 0.6 0
13.8 0.6 0
14.1 0.6 0
14.4 0.6 0
14.7 0.6 0
15 0.6 0
15.3 0.6 0
15.6 0.6 0
15.9 0.6 0
16.2 0.6 0
16.5 0.6 0
16.8 0.6 0
17.1 0.6 0
17.4 0.6 0
17.7 0.6 0
18 0.6 0
18.3 0.6 0
18.6 0.6 0
18.9 0.6 0
19.2 0.6 0
19.5 0.6 0
19.8 0.6 0
20.1 0.6 0
20.4 0.6 0
20.7 0.6 0
21 0.6 0
21.3 0.6 0
21.6 0.6 0
21.9 0.6 0
22.2 0.6 0
22.5 0.6 0
22.8 0.6 0
23.1 0.6 0
23.4 0.6 0
23.7 0.6 0
24 0.6 0
24.3 0.6 0
24.6 0.6 0
24.9 0.6 0
25.2 0.6 0
25.5 0.6 0
25.8 0.6 0
26.1 0.6 0
26.4 0.6 0
26.7 0.6 0
27 0.6 0
27.3 0.6 0
27.6 0.6 0
27.9 0.6 0
28.2 0.6 0
28.5 0.6 0
28.8 0.6 0
29.1 0.6 0
29.4 0.6 0
29.7 0.6 0
30 0.6 0
30.3 0.6 0
30.6 0.6 0
0 0.7 0
0.3 0.7 0
0.6 0.7 0
0.9 0.7 0
1.2 0.7 0
1.5 0.7 0
1.8 0.7 0
2.1 0.7 0
2.4 0.7 0
2.7 0.7 0
3 0.7 0
3.3 0.7 0
3.6 0.7 0
3.9 0.7 0
4.2 0.7 0
4.5 0.7 0
4.8 0.7 0
5.1 0.7 0
5.4 0.7 0
5.7 0.7 0
6 0.7 0
6.3 0.7 0
6.6 0.7 0
6.9 0.7 0
7.2 0.7 0
7.5 0.7 0
7.8 0.7 0
8.1 0.7 0
8.4 0.7 0
8.7 0.7 0
9 0.7 0
9.3 0.7 0
9.6 0.7 0
9.9 0.7 0
10.2 0.7 0
10.5 0.7 0
10.8 0.7 0
11.1 0.7 0
11.4 0.7 0
11.7 0.7 0
12 0.7 0
12.3 0.7 0
12.6 0.7 0
12.9 0.7 0
13.2 0.7 0
13.5 0.7 0
13.8 0.7 0
14.1 0.7 0
14.4 0.7 0
14.7 0.7 0
15 0.7 0
15.3 0.7 0
15.6 0.7 0
15.9 0.7 0
16.2 0.7 0
16.5 0.7 0
16.8 0.7 0
17.1 0.7 0
17.4 0.7 0
17.7 0.7 0
18 0.7 0
18.3 0.7 0
18.6 0.7 0
18.9 0.7 0
19.2 0.7 0
19.5 0.7 0
19.8 0.7 0
20.1 0.7 0
20.4 0.7 0
20.7 0.7 0
21 0.7 0
21.3 0.7 0
21.6 0.7 0
21.9 0.7 0
22.2 0.7 0
22.5 0.7 0
22.8 0.7 0
23.1 0.7 0
23.4 0.7 0
23.7 0.7 0
24 0.7 0
24.3 0.7 0
24.6 0.7 0
24.9 0.7 0
25.2 0.7 0
25.5 0.7 0
25.8 0.7 0
26.1 0.7 0
26.4 0.7 0
26.7 0.7 0
27 0.7 0
27.3 0.7 0
27.6 0.7 0
27.9 0.7 0
28.2 0.7 0
28.5 0.7 0
28.8 0.7 0
29.1 0.7 0
29.4 0.7 0
29.7 0.7 0
30 0.7 0
30.3 0.7 0
30.6 0.7 0
0 0.8 0
0.3 0.8 0
0.6 0.8 0
0.9 0.8 0
1.2 0.8 0
1.5 0.8 0
1.8 0.8 0
2.1 0.8 0
2.4 0.8 0
2.7 0.8 0
3 0.8 0
3.3 0.8 0
3.6 0.8 0
3.9 0.8 0
4.2 0.8 0
4.5 0.8 0
4.8 0.8 0
5.1 0.8 0
5.4 0.8 0
5.7 0.8 0
6 0.8 0
6.3 0.8 0
6.6 0.8 0
6.9 0.8 0
7.2 0.8 0
7.5 0.8 0
7.8 0.8 0
8.1 0.8 0
8.4 0.8 0
8.7 0.8 0
9 0.8 0
9.3 0.8 0
9.6 0.8 0
9.9 0.8 0
10.2 0.8 0
10.5 0.8 0
10.8 0.8 0
11.1 0.8 0
11.4 0.8 0
11.7 0.8 0
12 0.8 0
12.3 0.8 0
12.6 0.8 0
12.9 0.8 0
13.2 0.8 0
13.5 0.8 0
13.8 0.8 0
14.1 0.8 0
14.4 0.8 0
14.7 0.8 0
15 0.8 0
15.3 0.8 0
15.6 0.8 0
15.9 0.8 0
16.2 0.8 0
16.5 0.8 0
16.8 0.8 0
17.1 0.8 0
17.4 0.8 0
17.7 0.8 0
18 0.8 0
18.3 0.8 0
18.6 0.8 0
18.9 0.8 0
19.2 0.8 0
19.5 0.8 0
19.8 0.8 0
20.1 0.8 0
20.4 0.8 0
20.7 0.8 0
21 0.8 0
21.3 0.8 0
21.6 0.8 0
21.9 0.8 0
22.2 0.8 0
22.5 0.8 0
22.8 0.8 0
23.1 0.8 0
23.4 0.8 0
23.7 0.8 0
24 0.8 0
24.3 0.8 0
24.6 0.8 0
24.9 0.8 0
25.2 0.8 0
25.5 0.8 0
25.8 0.8 0
26.1 0.8 0
26.4 0.8 0
26.7 0.8 0
27 0.8 0
27.3 0.8 0
27.6 0.8 0
27.9 0.8 0
28.2 0.8 0
28.5 0.8 0
28.8 0.8 0
29.1 0.8 0
29.4 0.8 0
29.7 0.8 0
30 0.8 0
30.3 0.8 0
30.6 0.8 0
0 0.9 0
0.3 0.9 0
0.6 0.9 0
0.9 0.9 0
1.2 0.9 0
1.5 0.9 0
1.8 0.9 0
2.1 0.9 0
2.4 0.9 0
2.7 0.9 0
3 0.9 0
3.3 0.9 0
3.6 0.9 0
3.9 0.9 0
4.2 0.9 0
4.5 0.9 0
4.8 0.9 0
5.1 0.9 0
5.4 0.9 0
5.7 0.9 0
6 0.9 0
6.3 0.9 0
6.6 0.9 0
6.9 0.9 0
7.2 0.9 0
7.5 0.9 0
7.8 0.9 0
8.1 0.9 0
8.4 0.9 0
8.7 0.9 0
9 0.9 0
9.3 0.9 0
9.6 0.9 0
9.9 0.9 0
10.2 0.9 0
10.5 0.9 0
10.8 0.9 0
11.1 0.9 0
11.4 0.9 0
11.7 0.9 0
12 0.9 0
12.3 0.9 0
12.6 0.9 0
12.9 0.9 0
13.2 0.9 0
13.5 0.9 0
13.8 0.9 0
14.1 0.9 0
14.4 0.9 0
14.7 0.9 0
15 0.9 0
15.3 0.9 0
15.6 0.9 0
15.9 0.9 0
16.2 0.9 0
16.5 0.9 0
16.8 0.9 0
17.1 0.9 0
17.4 0.9 0
17.7 0.9 0
18 0.9 0
18.3 0.9 0
18.6 0.9 0
18.9 0.9 0
19.2 0.9 0
19.5 0.9 0
19.8 0.9 0
20.1 0.9 0
20.4 0.9 0
20.7 0.9 0
21 0.9 0
21.3 0.9 0
21.6 0.9 0
21.9 0.9 0
22.2 0.9 0
22.5 0.9 0
22.8 0.9 0
23.1 0.9 0
23.4 0.9 0
23.7 0.9 0
24 0.9 0
24.3 0.9 0
24.6 0.9 0
24.9 0.9 0
25.2 0.9 0
25.5 0.9 0
25.8 0.9 0
26.1 0.9 0
26.4 0.9 0
26.7 0.9 0
27 0.9 0
27.3 0.9 0
27.6 0.9 0
27.9 0.9 0
28.2 0.9 0
28.5 0.9 0
28.8 0.9 0
29.1 0.9 0
29.4 0.9 0
29.7 0.9 0
30 0.9 0
30.3 0.9 0
30.6 0.9 0
0 1 0
0.3 1 0
0.6 1 0
0.9 1 0
1.2 1 0
1.5 1 0
1.8 1 0
2.1 1 0
2.4 1 0
2.7 1 0
3 1 0
3.3 1 0
3.6 1 0
3.9 1 0
4.2 1 0
4.5 1 0
4.8 1 0
5.1 1 0
5.4 1 0
5.7 1 0
6 1 0
6.3 1 0
6.6 1 0
6.9 1 0
7.2 1 0
7.5 1 0
7.8 1 0
8.1 1 0
8.4 1 0
8.7 1 0
9 1 0
9.3 1 0
9.6 1 0
9.9 1 0
10.2 1 0
10.5 1 0
10.8 1 0
11.1 1 0
11.4 1 0
11.7 1 0
12 1 0
12.3 1 0
12.6 1 0
12.9 1 0
13.2 1 0
13.5 1 0
13.8 1 0
14.1 1 0
14.4 1 0
14.7 1 0
15 1 0
15.3 1 0
15.6 1 0
15.9 1 0
16.2 1 0
16.5 1 0
16.8 1 0
17.1 1 0
17.4 1 0
17.7 1 0
18 1 0
18.3 1 0
18.6 1 0
18.9 1 0
19.2 1 0
19.5 1 0
19.8 1 0
20.1 1 0
20.4 1 0
20.7 1 0
21 1 0
21.3 1 0
21.6 1 0
21.9 1 0
22.2 1 0
22.5 1 0
22.8 1 0
23.1 1 0
23.4 1 0
23.7 1 0
24 1 0
24.3 1 0
24.6 1 0
24.9 1 0
25.2 1 0
25.5 1 0
25.8 1 0
26.1 1 0
26.4 1 0
26.7 1 0
27 1 0
27.3 1 0
27.6 1 0
27.9 1 0
28.2 1 0
28.5 1 0
28.8 1 0
29.1 1 0
29.4 1 0
29.7 1 0
30 1 0
30.3 1 0
30.6 1 0
0 1.1 0
0.3 1.1 0
0.6 1.1 0
0.9 1.1 0
1.2 1.1 0
1.5 1.1 0
1.8 1.1 0
2.1 1.1 0
2.4 1.1 0
2.7 1.1 0
3 1.1 0
3.3 1.1 0
3.6 1.1 0
3.9 1.1 0
4.2 1.1 0
4.5 1.1 0
4.8 1.1 0
5.1 1.1 0
5.4 1.1 0
5.7 1.1 0
6 1.1 0
6.3 1.1 0
6.6 1.1 0
6.9 1.1 0
7.2 1.1 0
7.5 1.1 0
7.8 1.1 0
8.1 1.1 0
8.4 1.1 0
8.7 1.1 0
9 1.1 0
9.3 1.1 0
9.6 1.1 0
9.9 1.1 0
10.2 1.1 0
10.5 1.1 0
10.8 1.1 0
11.1 1.1 0
11.4 1.1 0
11.7 1.1 0
12 1.1 0
12.3 1.1 0
12.6 1.1 0
12.9 1.1 0
13.2 1.1 0
13.5 1.1 0
13.8 1.1 0
14.1 1.1 0
14.4 1.1 0
14.7 1.1 0
15 1.1 0
15.3 1.1 0
15.6 1.1 0
15.9 1.1 0
16.2 1.1 0
16.5 1.1 0
16.8 1.1 0
17.1 1.1 0
17.4 1.1 0
17.7 1.1 0
18 1.1 0
18.3 1.1 0
18.6 1.1 0
18.9 1.1 0
19.2 1.1 0
19.5 1.1 0
19.8 1.1 0
20.1 1.1 0
20.4 1.1 0
20.7 1.1 0
21 1.1 0
21.3 1.1 0
21.6 1.1 0
21.9 1.1 0
22.2 1.1 0
22.5 1.1 0
22.8 1.1 0
23.1 1.1 0
23.4 1.1 0
23.7 1.1 0
24 1.1 0
24.3 1.1 0
24.6 1.1 0
24.9 1.1 0
25.2 1.1 0
25.5 1.1 0
25.8 1.1 0
26.1 1.1 0
26.4 1.1 0
26.7 1.1 0
27 1.1 0
27.3 1.1 0
27.6 1.1 0
27.9 1.1 0
28.2 1.1 0
28.5 1.1 0
28.8 1.1 0
29.1 1.1 0
29.4 1.1 0
29.7 1.1 0
30 1.1 0
30.3 1.1 0
30.6 1.1 0
0 1.2 0
0.3 1.2 0
0.6 1.2 0
0.9 1.2 0
1.2 1.2 0
1.5 1.2 0
1.8 1.2 0
2.1 1.2 0
2.4 1.2 0
2.7 1.2 0
3 1.2 0
3.3 1.2 0
3.6 1.2 0
3.9 1.2 0
4.2 1.2 0
4.5 1.2 0
4.8 1.2 0
5.1 1.2 0
5.4 1.2 0
5.7 1.2 0
6 1.2 0
6.3 1.2 0
6.6 1.2 0
6.9 1.2 0
7.2 1.2 0
7.5 1.2 0
7.8 1.2 0
8.1 1.2 0
8.4 1.2 0
8.7 1.2 0
9 1.2 0
9.3 1.2 0
9.6 1.2 0
9.9 1.2 0
10.2 1.2 0
10.5 1.2 0
10.8 1.2 0
11.1 1.2 0
11.4 1.2 0
11.7 1.2 0
12 1.2 0
12.3 1.2 0
12.6 1.2 0
12.9 1.2 0
13.2 1.2 0
13.5 1.2 0
13.8 1.2 0
14.1 1.2 0
14.4 1.2 0
14.7 1.2 0
15 1.2 0
15.3 1.2 0
15.6 1.2 0
15.9 1.2 0
16.2 1.2 0
16.5 1.2 0
16.8 1.2 0
17.1 1.2 0
17.4 1.2 0
17.7 1.2 0
18 1.2 0
18.3 1.2 0
18.6 1.2 0
18.9 1.2 0
19.2 1.2 0
19.5 1.2 0
19.8 1.2 0
20.1 1.2 0
20.4 1.2 0
20.7 1.2 0
21 1.2 0
21.3 1.2 0
21.6 1.2 0
21.9 1.2 0
22.2 1.2 0
22.5 1.2 0
22.8 1.2 0
23.1 1.2 0
23.4 1.2 0
23.7 1.2 0
24 1.2 0
24.3 1.2 0
24.6 1.2 0
24.9 1.2 0
25.2 1.2 0
25.5 1.2 0
25.8 1.2 0
26.1 1.2 0
26.4 1.2 0
26.7 1.2 0
27 1.2 0
27.3 1.2 0
27.6 1.2 0
27.9 1.2 0
28.2 1.2 0
28.5 1.2 0
28.8 1.2 0
29.1 1.2 0
29.4 1.2 0
29.7 1.2 0
30 1.2 0
30.3 1.2 0
30.6 1.2 0

POINT_DATA 1339

SCALARS pressure double
LOOKUP_TABLE pressure
1.17106
1.17106
1.10622
1.06199
1.02216
0.985587
0.952535
0.923007
0.896651
0.872942
0.85134
0.831377
0.812684
0.794984
0.778078
0.761818
0.746099
0.730844
0.715992
0.701497
0.687322
0.673437
0.659817
0.646438
0.633282
0.620332
0.607573
0.59499
0.582573
0.570309
0.558188
0.546201
0.53434
0.522597
0.510964
0.499435
0.488004
0.476664
0.465411
0.454239
0.443144
0.432121
0.421167
0.410277
0.399448
0.388677
0.37796
0.367294
0.356677
0.346105
0.335577
0.32509
0.314642
0.304231
0.293854
0.283511
0.273199
0.262917
0.252665
0.242441
0.232244
0.222073
0.211928
0.201807
0.19171
0.181637
0.171586
0.161556
0.151547
0.141557
0.131586
0.121631
0.111692
0.101767
0.0918548
0.0819542
0.0720638
0.0621823
0.0523084
0.0424413
0.0325797
0.0227229
0.0128699
0.00302021
-0.00682692
-0.016672
-0.0265153
-0.0363574
-0.0461984
-0.0560385
-0.0658781
-0.0757172
-0.085556
-0.0953946
-0.105233
-0.115071
-0.124909
-0.134747
-0.144585
-0.154423
-0.164261
-0.174097
0.174097
1.17106
1.17106
1.10622
1.06199
1.02216
0.985587
0.952535
0.923007
0.896651
0.872942
0.85134
0.831377
0.812684
0.794984
0.778078
0.761818
0.746099
0.730844
0.715992
0.701497
0.687322
0.673437
0.659817
0.646438
0.633282
0.620332
0.607573
0.59499
0.582573
0.570309
0.558188
0.546201
0.53434
0.522597
0.510964
0.499435
0.488004
0.476664
0.465411
0.454239
0.443144
0.432121
0.421167
0.410277
0.399448
0.388677
0.37796
0.367294
0.356677
0.346105
0.335577
0.32509
0.314642
0.304231
0.293854
0.283511
0.273199
0.262917
0.252665
0.242441
0.232244
0.222073
0.211928
0.201807
0.19171
0.181637
0.171586
0.161556
0.151547
0.141557
0.131586
0.121631
0.111692
0.101767
0.0918548
0.0819542
0.0720638
0.0621823
0.0523084
0.0424413
0.0325797
0.0227229
0.0128699
0.00302021
-0.00682692
-0.016672
-0.0265153
-0.0363574
-0.0461984
-0.0560385
-0.0658781
-0.0757172
-0.085556
-0.0953946
-0.105233
-0.115071
-0.124909
-0.134747
-0.144585
-0.154423
-0.164261
-0.174097
0.174097
1.15012
1.15012
1.10423
1.06221
1.02287
0.986383
0.953278
0.923638
0.897158
0.873337
0.851643
0.83161
0.812866
0.795129
0.778195
0.761915
0.746182
0.730915
0.716054
0.701552
0.687372
0.673482
0.659857
0.646475
0.633316
0.620363
0.607601
0.595016
0.582597
0.570331
0.558209
0.54622
0.534358
0.522614
0.51098
0.49945
0.488017
0.476677
0.465423
0.45425
0.443154
0.432131
0.421176
0.410286
0.399456
0.388684
0.377967
0.367301
0.356683
0.346111
0.335583
0.325096
0.314647
0.304235
0.293859
0.283515
0.273203
0.262921
0.252669
0.242444
0.232247
0.222076
0.21193
0.201809
0.191712
0.181639
0.171587
0.161558
0.151548
0.141558
0.131586
0.121632
0.111692
0.101767
0.091855
0.0819543
0.0720639
0.0621823
0.0523085
0.0424413
0.0325797
0.0227228
0.0128699
0.00302018
-0.00682696
-0.016672
-0.0265154
-0.0363574
-0.0461984
-0.0560385
-0.0658781
-0.0757172
-0.085556
-0.0953946
-0.105233
-0.115071
-0.124909
-0.134747
-0.144585
-0.154423
-0.164261
-0.174097
0.174097
1.13514
1.13514
1.10135
1.06245
1.02398
0.987707
0.954539
0.924716
0.89802
0.873996
0.852136
0.831975
0.813137
0.795334
0.778353
0.76204
0.746283
0.730999
0.716125
0.701613
0.687425
0.673529
0.659898
0.646512
0.633349
0.620393
0.607628
0.595041
0.582619
0.570351
0.558227
0.546238
0.534374
0.522628
0.510993
0.499462
0.488029
0.476688
0.465433
0.45426
0.443163
0.432139
0.421184
0.410293
0.399463
0.388691
0.377973
0.367306
0.356688
0.346116
0.335588
0.3251
0.314651
0.304239
0.293862
0.283518
0.273206
0.262924
0.252671
0.242447
0.232249
0.222078
0.211932
0.201811
0.191714
0.18164
0.171588
0.161558
0.151549
0.141559
0.131587
0.121632
0.111693
0.101767
0.0918552
0.0819544
0.0720639
0.0621823
0.0523085
0.0424412
0.0325797
0.0227228
0.0128699
0.00302015
-0.00682699
-0.016672
-0.0265154
-0.0363574
-0.0461984
-0.0560385
-0.0658781
-0.0757172
-0.0855561
-0.0953946
-0.105233
-0.115071
-0.124909
-0.134747
-0.144585
-0.154423
-0.164261
-0.174097
0.174097
1.12557
1.12557
1.09886
1.06255
1.02493
0.988902
0.955716
0.925753
0.898873
0.874669
0.852653
0.83237
0.813439
0.795568
0.778539
0.76219
0.746406
0.731102
0.716213
0.701689
0.687491
0.673587
0.65995
0.646558
0.63339
0.62043
0.607662
0.595072
0.582647
0.570377
0.558251
0.546259
0.534394
0.522646
0.51101
0.499477
0.488043
0.476701
0.465445
0.454271
0.443174
0.432149
0.421193
0.410301
0.399471
0.388698
0.37798
0.367313
0.356695
0.346122
0.335593
0.325105
0.314656
0.304244
0.293866
0.283522
0.27321
0.262928
0.252675
0.24245
0.232252
0.222081
0.211934
0.201813
0.191716
0.181642
0.17159
0.16156
0.151551
0.14156
0.131588
0.121633
0.111694
0.101768
0.0918559
0.0819551
0.0720645
0.0621828
0.0523088
0.0424416
0.0325799
0.022723
0.01287
0.00302027
-0.0068269
-0.016672
-0.0265153
-0.0363574
-0.0461983
-0.0560385
-0.0658781
-0.0757172
-0.0855561
-0.0953946
-0.105233
-0.115071
-0.124909
-0.134747
-0.144585
-0.154423
-0.164259
-0.174096
0.174096
1.12026
1.12026
1.09724
1.06257
1.02552
0.989669
0.956485
0.926442
0.899451
0.875133
0.853018
0.832654
0.813662
0.795745
0.778681
0.762308
0.746505
0.731187
0.716286
0.701753
0.687548
0.673638
0.659996
0.646599
0.633427
0.620464
0.607692
0.595099
0.582672
0.5704
0.558272
0.546279
0.534412
0.522663
0.511025
0.499492
0.488056
0.476713
0.465456
0.454281
0.443184
0.432158
0.421202
0.41031
0.399479
0.388705
0.377987
0.367319
0.3567
0.346128
0.335598
0.32511
0.314661
0.304248
0.293871
0.283526
0.273214
0.262931
0.252678
0.242453
0.232255
0.222083
0.211937
0.201816
0.191719
0.181644
0.171593
0.161562
0.151553
0.141562
0.13159
0.121635
0.111695
0.10177
0.0918571
0.0819561
0.0720653
0.0621835
0.0523095
0.0424421
0.0325804
0.0227234
0.0128703
0.00302049
-0.00682672
-0.0166718
-0.0265152
-0.0363573
-0.0461983
-0.0560385
-0.0658781
-0.0757172
-0.085556
-0.0953946
-0.105233
-0.115071
-0.124909
-0.134747
-0.144585
-0.154422
-0.164258
-0.174095
0.174095
1.11856
1.11856
1.09669
1.06258
1.02574
0.989943
0.956758
0.926688
0.899657
0.8753
0.85315
0.832758
0.813745
0.795812
0.778736
0.762353
0.746544
0.73122
0.716316
0.701779
0.687571
0.673658
0.660014
0.646616
0.633443
0.620478
0.607705
0.595111
0.582683
0.57041
0.558281
0.546287
0.53442
0.52267
0.511032
0.499498
0.488062
0.476718
0.465461
0.454286
0.443188
0.432162
0.421205
0.410313
0.399482
0.388708
0.377989
0.367322
0.356703
0.34613
0.335601
0.325112
0.314663
0.30425
0.293872
0.283528
0.273215
0.262933
0.25268
0.242454
0.232256
0.222085
0.211939
0.201817
0.19172
0.181646
0.171594
0.161563
0.151554
0.141563
0.131591
0.121635
0.111696
0.10177
0.0918576
0.0819566
0.0720658
0.0621839
0.0523098
0.0424424
0.0325806
0.0227236
0.0128705
0.00302063
-0.00682661
-0.0166717
-0.0265151
-0.0363572
-0.0461982
-0.0560384
-0.065878
-0.0757172
-0.085556
-0.0953946
-0.105233
-0.115071
-0.124909
-0.134747
-0.144585
-0.154422
-0.164257
-0.174095
0.174095
1.12026
1.12026
1.09724
1.06257
1.02552
0.989669
0.956485
0.926442
0.899451
0.875133
0.853018
0.832654
0.813662
0.795745
0.778681
0.762308
0.746505
0.731187
0.716286
0.701753
0.687548
0.673638
0.659996
0.646599
0.633427
0.620464
0.607692
0.595099
0.582672
0.5704
0.558272
0.546279
0.534412
0.522663
0.511025
0.499492
0.488056
0.476713
0.465456
0.454281
0.443184
0.432158
0.421202
0.41031
0.399479
0.388705
0.377987
0.367319
0.3567
0.346128
0.335598
0.32511
0.314661
0.304248
0.293871
0.283526
0.273214
0.262931
0.252678
0.242453
0.232255
0.222083
0.211937
0.201816
0.191719
0.181644
0.171593
0.161562
0.151553
0.141562
0.13159
0.121635
0.111695
0.10177
0.0918571
0.0819561
0.0720653
0.0621835
0.0523095
0.0424421
0.0325804
0.0227234
0.0128703
0.0030205
-0.00682671
-0.0166718
-0.0265152
-0.0363572
-0.0461983
-0.0560385
-0.0658781
-0.0757172
-0.085556
-0.0953946
-0.105233
-0.115071
-0.124909
-0.134747
-0.144585
-0.154422
-0.164258
-0.174095
0.174095
1.12557
1.12557
1.09886
1.06255
1.02493
0.988902
0.955716
0.925753
0.898873
0.874669
0.852653
0.83237
0.813439
0.795569
0.778539
0.76219
0.746406
0.731102
0.716213
0.701689
0.687491
0.673587
0.65995
0.646558
0.63339
0.62043
0.607662
0.595072
0.582647
0.570377
0.558251
0.546259
0.534394
0.522646
0.51101
0.499477
0.488043
0.476701
0.465445
0.454271
0.443174
0.432149
0.421193
0.410301
0.399471
0.388698
0.37798
0.367313
0.356695
0.346122
0.335593
0.325105
0.314656
0.304244
0.293866
0.283522
0.27321
0.262928
0.252675
0.24245
0.232252
0.22208
0.211934
0.201813
0.191716
0.181642
0.17159
0.16156
0.151551
0.14156
0.131588
0.121633
0.111694
0.101768
0.091856
0.0819551
0.0720645
0.0621828
0.0523089
0.0424416
0.03258
0.022723
0.0128701
0.00302027
-0.00682689
-0.0166719
-0.0265153
-0.0363573
-0.0461983
-0.0560385
-0.0658781
-0.0757172
-0.0855561
-0.0953946
-0.105233
-0.115071
-0.124909
-0.134747
-0.144585
-0.154423
-0.164259
-0.174096
0.174096
1.13514
1.13514
1.10135
1.06245
1.02398
0.987707
0.954539
0.924716
0.89802
0.873996
0.852136
0.831975
0.813137
0.795334
0.778353
0.76204
0.746283
0.730999
0.716125
0.701613
0.687425
0.673529
0.659898
0.646512
0.633349
0.620393
0.607628
0.595041
0.582619
0.570351
0.558227
0.546238
0.534374
0.522628
0.510993
0.499462
0.488029
0.476688
0.465433
0.45426
0.443163
0.432139
0.421184
0.410293
0.399463
0.388691
0.377973
0.367306
0.356688
0.346116
0.335588
0.3251
0.314651
0.304239
0.293862
0.283518
0.273206
0.262924
0.252671
0.242447
0.232249
0.222078
0.211932
0.201811
0.191714
0.18164
0.171588
0.161558
0.151549
0.141559
0.131587
0.121632
0.111693
0.101767
0.0918552
0.0819545
0.072064
0.0621824
0.0523085
0.0424413
0.0325797
0.0227229
0.0128699
0.00302016
-0.00682698
-0.016672
-0.0265153
-0.0363574
-0.0461983
-0.0560385
-0.0658781
-0.0757173
-0.0855561
-0.0953946
-0.105233
-0.115071
-0.124909
-0.134747
-0.144585
-0.154423
-0.164261
-0.174097
0.174097
1.15012
1.15012
1.10423
1.06221
1.02287
0.986383
0.953278
0.923638
0.897158
0.873337
0.851643
0.83161
0.812866
0.795129
0.778195
0.761915
0.746182
0.730915
0.716054
0.701552
0.687372
0.673482
0.659857
0.646475
0.633316
0.620363
0.607601
0.595016
0.582597
0.570331
0.558209
0.54622
0.534358
0.522614
0.51098
0.49945
0.488017
0.476677
0.465423
0.45425
0.443154
0.432131
0.421176
0.410286
0.399456
0.388684
0.377967
0.367301
0.356683
0.346111
0.335583
0.325096
0.314647
0.304235
0.293859
0.283515
0.273203
0.262921
0.252669
0.242444
0.232247
0.222076
0.21193
0.201809
0.191712
0.181639
0.171587
0.161558
0.151548
0.141558
0.131586
0.121632
0.111692
0.101767
0.0918551
0.0819544
0.0720639
0.0621824
0.0523085
0.0424413
0.0325798
0.0227229
0.0128699
0.0030202
-0.00682694
-0.016672
-0.0265153
-0.0363573
-0.0461983
-0.0560385
-0.0658781
-0.0757173
-0.0855561
-0.0953946
-0.105233
-0.115071
-0.124909
-0.134747
-0.144585
-0.154423
-0.164262
-0.174097
0.174097
1.17106
1.17106
1.10622
1.06199
1.02216
0.985587
0.952535
0.923007
0.896651
0.872942
0.85134
0.831377
0.812684
0.794984
0.778078
0.761818
0.746099
0.730844
0.715992
0.701497
0.687322
0.673437
0.659817
0.646438
0.633282
0.620332
0.607573
0.59499
0.582573
0.570309
0.558188
0.546201
0.53434
0.522597
0.510964
0.499435
0.488004
0.476664
0.465411
0.454239
0.443144
0.432121
0.421167
0.410277
0.399448
0.388677
0.37796
0.367294
0.356677
0.346105
0.335577
0.32509
0.314642
0.304231
0.293854
0.283511
0.273199
0.262917
0.252665
0.242441
0.232244
0.222073
0.211927
0.201807
0.19171
0.181637
0.171586
0.161556
0.151547
0.141557
0.131586
0.121631
0.111692
0.101767
0.0918549
0.0819543
0.0720638
0.0621823
0.0523085
0.0424413
0.0325798
0.0227229
0.01287
0.00302022
-0.00682691
-0.0166719
-0.0265153
-0.0363573
-0.0461983
-0.0560385
-0.0658781
-0.0757172
-0.0855561
-0.0953946
-0.105233
-0.115071
-0.124909
-0.134747
-0.144585
-0.154423
-0.164261
-0.174097
0.174097
1.17106
1.17106
1.10622
1.06199
1.02216
0.985587
0.952535
0.923007
0.896651
0.872942
0.85134
0.831377
0.812684
0.794984
0.778078
0.761818
0.746099
0.730844
0.715992
0.701497
0.687322
0.673437
0.659817
0.646438
0.633282
0.620332
0.607573
0.59499
0.582573
0.570309
0.558188
0.546201
0.53434
0.522597
0.510964
0.499435
0.488004
0.476664
0.465411
0.454239
0.443144
0.432121
0.421167
0.410277
0.399448
0.388677
0.37796
0.367294
0.356677
0.346105
0.335577
0.32509
0.314642
0.304231
0.293854
0.283511
0.273199
0.262917
0.252665
0.242441
0.232244
0.222073
0.211927
0.201807
0.19171
0.181637
0.171586
0.161556
0.151547
0.141557
0.131586
0.121631
0.111692
0.101767
0.0918549
0.0819543
0.0720638
0.0621823
0.0523085
0.0424413
0.0325798
0.0227229
0.01287
0.00302022
-0.00682691
-0.0166719
-0.0265153
-0.0363573
-0.0461983
-0.0560385
-0.0658781
-0.0757172
-0.0855561
-0.0953946
-0.105233
-0.115071
-0.124909
-0.134747
-0.144585
-0.154423
-0.164261
-0.174097
0.174097
SCALARS phi double
LOOKUP_TABLE phi
1
1
1
1
0.999999
0.999994
0.999982
0.999957
0.99991
0.99983
0.999705
0.999525
0.999277
0.998951
0.998536
0.998023
0.997405
0.996676
0.995832
0.994877
0.993806
0.992594
0.99117
0.989407
0.987116
0.984059
0.979981
0.974634
0.967806
0.959332
0.94911
0.937093
0.923291
0.907756
0.890581
0.871886
0.851813
0.830518
0.808163
0.784914
0.760934
0.736382
0.711406
0.686148
0.660736
0.635286
0.609905
0.584687
0.559714
0.535058
0.510781
0.486936
0.463568
0.440714
0.418402
0.396659
0.3755
0.354941
0.334992
0.315657
0.29694
0.278842
0.261363
0.244499
0.228248
0.212605
0.197567
0.183129
0.169288
0.156041
0.143384
0.131316
0.119835
0.10894
0.0986318
0.0889089
0.0797711
0.0712173
0.0632456
0.0558524
0.0490321
0.0427767
0.0370753
0.0319136
0.0272741
0.0231355
0.0194733
0.0162599
0.013465
0.011056
0.00899914
0.0072599
0.00580374
0.00459687
0.00360687
0.00280323
0.00215775
0.00164472
0.0012418
0.000926687
0.000692092
0.000478799
0.000478799
1
1
1
1
0.999999
0.999994
0.999982
0.999957
0.99991
0.99983
0.999705
0.999525
0.999277
0.998951
0.998536
0.998023
0.997405
0.996676
0.995832
0.994877
0.993806
0.992594
0.99117
0.989407
0.987116
0.984059
0.979981
0.974634
0.967806
0.959332
0.94911
0.937093
0.923291
0.907756
0.890581
0.871886
0.851813
0.830518
0.808163
0.784914
0.760934
0.736382
0.711406
0.686148
0.660736
0.635286
0.609905
0.584687
0.559714
0.535058
0.510781
0.486936
0.463568
0.440714
0.418402
0.396659
0.3755
0.354941
0.334992
0.315657
0.29694
0.278842
0.261363
0.244499
0.228248
0.212605
0.197567
0.183129
0.169288
0.156041
0.143384
0.131316
0.119835
0.10894
0.0986318
0.0889089
0.0797711
0.0712173
0.0632456
0.0558524
0.0490321
0.0427767
0.0370753
0.0319136
0.0272741
0.0231355
0.0194733
0.0162599
0.013465
0.011056
0.00899914
0.0072599
0.00580374
0.00459687
0.00360687
0.00280323
0.00215775
0.00164472
0.0012418
0.000926687
0.000692092
0.000478799
0.000478799
1
1
1
0.999996
0.999983
0.999954
0.999898
0.999804
0.999658
0.999446
0.999157
0.998778
0.998299
0.997713
0.997014
0.996196
0.995255
0.994191
0.993002
0.991689
0.990256
0.988702
0.987019
0.98518
0.983129
0.980781
0.978022
0.974713
0.970703
0.965841
0.959985
0.953016
0.944837
0.935383
0.92462
0.912543
0.899173
0.884557
0.868762
0.851869
0.833972
0.815175
0.795586
0.775314
0.754468
0.733156
0.71148
0.689538
0.667422
0.645215
0.622997
0.600838
0.578803
0.556949
0.535327
0.513981
0.49295
0.472266
0.451958
0.432045
0.412547
0.393475
0.374838
0.35664
0.338884
0.321566
0.304684
0.288231
0.2722
0.256583
0.24137
0.226555
0.212129
0.198088
0.184428
0.171151
0.158259
0.145763
0.133674
0.122012
0.110798
0.100058
0.0898227
0.0801208
0.0709821
0.062434
0.0544994
0.0471954
0.0405314
0.0345086
0.029119
0.0243455
0.0201628
0.0165378
0.0134311
0.0107991
0.0085949
0.00677001
0.00527948
0.00406531
0.00313514
0.00223378
0.00223378
0.999997
1
0.99998
0.999896
0.999724
0.999434
0.998999
0.998397
0.997613
0.996636
0.995464
0.994099
0.992547
0.990816
0.988916
0.986859
0.984655
0.982316
0.979853
0.977277
0.974598
0.971827
0.968971
0.966036
0.96302
0.959914
0.956694
0.953326
0.949762
0.945942
0.941797
0.937253
0.932236
0.926671
0.920491
0.913637
0.90606
0.897723
0.888602
0.878685
0.867972
0.856474
0.844215
0.831224
0.817542
0.803212
0.788285
0.772813
0.756852
0.74046
0.723692
0.706606
0.689257
0.671698
0.65398
0.636154
0.618264
0.600352
0.582459
0.564619
0.546863
0.529218
0.511708
0.494349
0.477155
0.460135
0.443292
0.426626
0.410133
0.393803
0.377623
0.361577
0.345646
0.329807
0.31404
0.298322
0.282635
0.266963
0.251299
0.235646
0.220018
0.204444
0.188969
0.173653
0.158571
0.143813
0.129475
0.11566
0.102469
0.0899975
0.0783308
0.0675375
0.0576677
0.04875
0.0407911
0.0337765
0.0276729
0.0224272
0.0179874
0.0142337
0.0112828
0.00826711
0.00826711
0.999999
1
0.99943
0.998224
0.996402
0.994008
0.991093
0.987716
0.983939
0.979828
0.975446
0.970853
0.966102