# vtk DataFile Version 3.0
FlowField
ASCII
DATASET STRUCTURED_GRID
DIMENSIONS 103 13 1 
POINTS 1339 double
0 0 0
0.3 0 0
0.6 0 0
0.9 0 0
1.2 0 0
1.5 0 0
1.8 0 0
2.1 0 0
2.4 0 0
2.7 0 0
3 0 0
3.3 0 0
3.6 0 0
3.9 0 0
4.2 0 0
4.5 0 0
4.8 0 0
5.1 0 0
5.4 0 0
5.7 0 0
6 0 0
6.3 0 0
6.6 0 0
6.9 0 0
7.2 0 0
7.5 0 0
7.8 0 0
8.1 0 0
8.4 0 0
8.7 0 0
9 0 0
9.3 0 0
9.6 0 0
9.9 0 0
10.2 0 0
10.5 0 0
10.8 0 0
11.1 0 0
11.4 0 0
11.7 0 0
12 0 0
12.3 0 0
12.6 0 0
12.9 0 0
13.2 0 0
13.5 0 0
13.8 0 0
14.1 0 0
14.4 0 0
14.7 0 0
15 0 0
15.3 0 0
15.6 0 0
15.9 0 0
16.2 0 0
16.5 0 0
16.8 0 0
17.1 0 0
17.4 0 0
17.7 0 0
18 0 0
18.3 0 0
18.6 0 0
18.9 0 0
19.2 0 0
19.5 0 0
19.8 0 0
20.1 0 0
20.4 0 0
20.7 0 0
21 0 0
21.3 0 0
21.6 0 0
21.9 0 0
22.2 0 0
22.5 0 0
22.8 0 0
23.1 0 0
23.4 0 0
23.7 0 0
24 0 0
24.3 0 0
24.6 0 0
24.9 0 0
25.2 0 0
25.5 0 0
25.8 0 0
26.1 0 0
26.4 0 0
26.7 0 0
27 0 0
27.3 0 0
27.6 0 0
27.9 0 0
28.2 0 0
28.5 0 0
28.8 0 0
29.1 0 0
29.4 0 0
29.7 0 0
30 0 0
30.3 0 0
30.6 0 0
0 0.1 0
0.3 0.1 0
0.6 0.1 0
0.9 0.1 0
1.2 0.1 0
1.5 0.1 0
1.8 0.1 0
2.1 0.1 0
2.4 0.1 0
2.7 0.1 0
3 0.1 0
3.3 0.1 0
3.6 0.1 0
3.9 0.1 0
4.2 0.1 0
4.5 0.1 0
4.8 0.1 0
5.1 0.1 0
5.4 0.1 0
5.7 0.1 0
6 0.1 0
6.3 0.1 0
6.6 0.1 0
6.9 0.1 0
7.2 0.1 0
7.5 0.1 0
7.8 0.1 0
8.1 0.1 0
8.4 0.1 0
8.7 0.1 0
9 0.1 0
9.3 0.1 0
9.6 0.1 0
9.9 0.1 0
10.2 0.1 0
10.5 0.1 0
10.8 0.1 0
11.1 0.1 0
11.4 0.1 0
11.7 0.1 0
12 0.1 0
12.3 0.1 0
12.6 0.1 0
12.9 0.1 0
13.2 0.1 0
13.5 0.1 0
13.8 0.1 0
14.1 0.1 0
14.4 0.1 0
14.7 0.1 0
15 0.1 0
15.3 0.1 0
15.6 0.1 0
15.9 0.1 0
16.2 0.1 0
16.5 0.1 0
16.8 0.1 0
17.1 0.1 0
17.4 0.1 0
17.7 0.1 0
18 0.1 0
18.3 0.1 0
18.6 0.1 0
18.9 0.1 0
19.2 0.1 0
19.5 0.1 0
19.8 0.1 0
20.1 0.1 0
20.4 0.1 0
20.7 0.1 0
21 0.1 0
21.3 0.1 0
21.6 0.1 0
21.9 0.1 0
22.2 0.1 0
22.5 0.1 0
22.8 0.1 0
23.1 0.1 0
23.4 0.1 0
23.7 0.1 0
24 0.1 0
24.3 0.1 0
24.6 0.1 0
24.9 0.1 0
25.2 0.1 0
25.5 0.1 0
25.8 0.1 0
26.1 0.1 0
26.4 0.1 0
26.7 0.1 0
27 0.1 0
27.3 0.1 0
27.6 0.1 0
27.9 0.1 0
28.2 0.1 0
28.5 0.1 0
28.8 0.1 0
29.1 0.1 0
29.4 0.1 0
29.7 0.1 0
30 0.1 0
30.3 0.1 0
30.6 0.1 0
0 0.2 0
0.3 0.2 0
0.6 0.2 0
0.9 0.2 0
1.2 0.2 0
1.5 0.2 0
1.8 0.2 0
2.1 0.2 0
2.4 0.2 0
2.7 0.2 0
3 0.2 0
3.3 0.2 0
3.6 0.2 0
3.9 0.2 0
4.2 0.2 0
4.5 0.2 0
4.8 0.2 0
5.1 0.2 0
5.4 0.2 0
5.7 0.2 0
6 0.2 0
6.3 0.2 0
6.6 0.2 0
6.9 0.2 0
7.2 0.2 0
7.5 0.2 0
7.8 0.2 0
8.1 0.2 0
8.4 0.2 0
8.7 0.2 0
9 0.2 0
9.3 0.2 0
9.6 0.2 0
9.9 0.2 0
10.2 0.2 0
10.5 0.2 0
10.8 0.2 0
11.1 0.2 0
11.4 0.2 0
11.7 0.2 0
12 0.2 0
12.3 0.2 0
12.6 0.2 0
12.9 0.2 0
13.2 0.2 0
13.5 0.2 0
13.8 0.2 0
14.1 0.2 0
14.4 0.2 0
14.7 0.2 0
15 0.2 0
15.3 0.2 0
15.6 0.2 0
15.9 0.2 0
16.2 0.2 0
16.5 0.2 0
16.8 0.2 0
17.1 0.2 0
17.4 0.2 0
17.7 0.2 0
18 0.2 0
18.3 0.2 0
18.6 0.2 0
18.9 0.2 0
19.2 0.2 0
19.5 0.2 0
19.8 0.2 0
20.1 0.2 0
20.4 0.2 0
20.7 0.2 0
21 0.2 0
21.3 0.2 0
21.6 0.2 0
21.9 0.2 0
22.2 0.2 0
22.5 0.2 0
22.8 0.2 0
23.1 0.2 0
23.4 0.2 0
23.7 0.2 0
24 0.2 0
24.3 0.2 0
24.6 0.2 0
24.9 0.2 0
25.2 0.2 0
25.5 0.2 0
25.8 0.2 0
26.1 0.2 0
26.4 0.2 0
26.7 0.2 0
27 0.2 0
27.3 0.2 0
27.6 0.2 0
27.9 0.2 0
28.2 0.2 0
28.5 0.2 0
28.8 0.2 0
29.1 0.2 0
29.4 0.2 0
29.7 0.2 0
30 0.2 0
30.3 0.2 0
30.6 0.2 0
0 0.3 0
0.3 0.3 0
0.6 0.3 0
0.9 0.3 0
1.2 0.3 0
1.5 0.3 0
1.8 0.3 0
2.1 0.3 0
2.4 0.3 0
2.7 0.3 0
3 0.3 0
3.3 0.3 0
3.6 0.3 0
3.9 0.3 0
4.2 0.3 0
4.5 0.3 0
4.8 0.3 0
5.1 0.3 0
5.4 0.3 0
5.7 0.3 0
6 0.3 0
6.3 0.3 0
6.6 0.3 0
6.9 0.3 0
7.2 0.3 0
7.5 0.3 0
7.8 0.3 0
8.1 0.3 0
8.4 0.3 0
8.7 0.3 0
9 0.3 0
9.3 0.3 0
9.6 0.3 0
9.9 0.3 0
10.2 0.3 0
10.5 0.3 0
10.8 0.3 0
11.1 0.3 0
11.4 0.3 0
11.7 0.3 0
12 0.3 0
12.3 0.3 0
12.6 0.3 0
12.9 0.3 0
13.2 0.3 0
13.5 0.3 0
13.8 0.3 0
14.1 0.3 0
14.4 0.3 0
14.7 0.3 0
15 0.3 0
15.3 0.3 0
15.6 0.3 0
15.9 0.3 0
16.2 0.3 0
16.5 0.3 0
16.8 0.3 0
17.1 0.3 0
17.4 0.3 0
17.7 0.3 0
18 0.3 0
18.3 0.3 0
18.6 0.3 0
18.9 0.3 0
19.2 0.3 0
19.5 0.3 0
19.8 0.3 0
20.1 0.3 0
20.4 0.3 0
20.7 0.3 0
21 0.3 0
21.3 0.3 0
21.6 0.3 0
21.9 0.3 0
22.2 0.3 0
22.5 0.3 0
22.8 0.3 0
23.1 0.3 0
23.4 0.3 0
23.7 0.3 0
24 0.3 0
24.3 0.3 0
24.6 0.3 0
24.9 0.3 0
25.2 0.3 0
25.5 0.3 0
25.8 0.3 0
26.1 0.3 0
26.4 0.3 0
26.7 0.3 0
27 0.3 0
27.3 0.3 0
27.6 0.3 0
27.9 0.3 0
28.2 0.3 0
28.5 0.3 0
28.8 0.3 0
29.1 0.3 0
29.4 0.3 0
29.7 0.3 0
30 0.3 0
30.3 0.3 0
30.6 0.3 0
0 0.4 0
0.3 0.4 0
0.6 0.4 0
0.9 0.4 0
1.2 0.4 0
1.5 0.4 0
1.8 0.4 0
2.1 0.4 0
2.4 0.4 0
2.7 0.4 0
3 0.4 0
3.3 0.4 0
3.6 0.4 0
3.9 0.4 0
4.2 0.4 0
4.5 0.4 0
4.8 0.4 0
5.1 0.4 0
5.4 0.4 0
5.7 0.4 0
6 0.4 0
6.3 0.4 0
6.6 0.4 0
6.9 0.4 0
7.2 0.4 0
7.5 0.4 0
7.8 0.4 0
8.1 0.4 0
8.4 0.4 0
8.7 0.4 0
9 0.4 0
9.3 0.4 0
9.6 0.4 0
9.9 0.4 0
10.2 0.4 0
10.5 0.4 0
10.8 0.4 0
11.1 0.4 0
11.4 0.4 0
11.7 0.4 0
12 0.4 0
12.3 0.4 0
12.6 0.4 0
12.9 0.4 0
13.2 0.4 0
13.5 0.4 0
13.8 0.4 0
14.1 0.4 0
14.4 0.4 0
14.7 0.4 0
15 0.4 0
15.3 0.4 0
15.6 0.4 0
15.9 0.4 0
16.2 0.4 0
16.5 0.4 0
16.8 0.4 0
17.1 0.4 0
17.4 0.4 0
17.7 0.4 0
18 0.4 0
18.3 0.4 0
18.6 0.4 0
18.9 0.4 0
19.2 0.4 0
19.5 0.4 0
19.8 0.4 0
20.1 0.4 0
20.4 0.4 0
20.7 0.4 0
21 0.4 0
21.3 0.4 0
21.6 0.4 0
21.9 0.4 0
22.2 0.4 0
22.5 0.4 0
22.8 0.4 0
23.1 0.4 0
23.4 0.4 0
23.7 0.4 0
24 0.4 0
24.3 0.4 0
24.6 0.4 0
24.9 0.4 0
25.2 0.4 0
25.5 0.4 0
25.8 0.4 0
26.1 0.4 0
26.4 0.4 0
26.7 0.4 0
27 0.4 0
27.3 0.4 0
27.6 0.4 0
27.9 0.4 0
28.2 0.4 0
28.5 0.4 0
28.8 0.4 0
29.1 0.4 0
29.4 0.4 0
29.7 0.4 0
30 0.4 0
30.3 0.4 0
30.6 0.4 0
0 0.5 0
0.3 0.5 0
0.6 0.5 0
0.9 0.5 0
1.2 0.5 0
1.5 0.5 0
1.8 0.5 0
2.1 0.5 0
2.4 0.5 0
2.7 0.5 0
3 0.5 0
3.3 0.5 0
3.6 0.5 0
3.9 0.5 0
4.2 0.5 0
4.5 0.5 0
4.8 0.5 0
5.1 0.5 0
5.4 0.5 0
5.7 0.5 0
6 0.5 0
6.3 0.5 0
6.6 0.5 0
6.9 0.5 0
7.2 0.5 0
7.5 0.5 0
7.8 0.5 0
8.1 0.5 0
8.4 0.5 0
8.7 0.5 0
9 0.5 0
9.3 0.5 0
9.6 0.5 0
9.9 0.5 0
10.2 0.5 0
10.5 0.5 0
10.8 0.5 0
11.1 0.5 0
11.4 0.5 0
11.7 0.5 0
12 0.5 0
12.3 0.5 0
12.6 0.5 0
12.9 0.5 0
13.2 0.5 0
13.5 0.5 0
13.8 0.5 0
14.1 0.5 0
14.4 0.5 0
14.7 0.5 0
15 0.5 0
15.3 0.5 0
15.6 0.5 0
15.9 0.5 0
16.2 0.5 0
16.5 0.5 0
16.8 0.5 0
17.1 0.5 0
17.4 0.5 0
17.7 0.5 0
18 0.5 0
18.3 0.5 0
18.6 0.5 0
18.9 0.5 0
19.2 0.5 0
19.5 0.5 0
19.8 0.5 0
20.1 0.5 0
20.4 0.5 0
20.7 0.5 0
21 0.5 0
21.3 0.5 0
21.6 0.5 0
21.9 0.5 0
22.2 0.5 0
22.5 0.5 0
22.8 0.5 0
23.1 0.5 0
23.4 0.5 0
23.7 0.5 0
24 0.5 0
24.3 0.5 0
24.6 0.5 0
24.9 0.5 0
25.2 0.5 0
25.5 0.5 0
25.8 0.5 0
26.1 0.5 0
26.4 0.5 0
26.7 0.5 0
27 0.5 0
27.3 0.5 0
27.6 0.5 0
27.9 0.5 0
28.2 0.5 0
28.5 0.5 0
28.8 0.5 0
29.1 0.5 0
29.4 0.5 0
29.7 0.5 0
30 0.5 0
30.3 0.5 0
30.6 0.5 0
0 0.6 0
0.3 0.6 0
0.6 0.6 0
0.9 0.6 0
1.2 0.6 0
1.5 0.6 0
1.8 0.6 0
2.1 0.6 0
2.4 0.6 0
2.7 0.6 0
3 0.6 0
3.3 0.6 0
3.6 0.6 0
3.9 0.6 0
4.2 0.6 0
4.5 0.6 0
4.8 0.6 0
5.1 0.6 0
5.4 0.6 0
5.7 0.6 0
6 0.6 0
6.3 0.6 0
6.6 0.6 0
6.9 0.6 0
7.2 0.6 0
7.5 0.6 0
7.8 0.6 0
8.1 0.6 0
8.4 0.6 0
8.7 0.6 0
9 0.6 0
9.3 0.6 0
9.6 0.6 0
9.9 0.6 0
10.2 0.6 0
10.5 0.6 0
10.8 0.6 0
11.1 0.6 0
11.4 0.6 0
11.7 0.6 0
12 0.6 0
12.3 0.6 0
12.6 0.6 0
12.9 0.6 0
13.2 0.6 0
13.5 0.6 0
13.8 0.6 0
14.1 0.6 0
14.4 0.6 0
14.7 0.6 0
15 0.6 0
15.3 0.6 0
15.6 0.6 0
15.9 0.6 0
16.2 0.6 0
16.5 0.6 0
16.8 0.6 0
17.1 0.6 0
17.4 0.6 0
17.7 0.6 0
18 0.6 0
18.3 0.6 0
18.6 0.6 0
18.9 0.6 0
19.2 0.6 0
19.5 0.6 0
19.8 0.6 0
20.1 0.6 0
20.4 0.6 0
20.7 0.6 0
21 0.6 0
21.3 0.6 0
21.6 0.6 0
21.9 0.6 0
22.2 0.6 0
22.5 0.6 0
22.8 0.6 0
23.1 0.6 0
23.4 0.6 0
23.7 0.6 0
24 0.6 0
24.3 0.6 0
24.6 0.6 0
24.9 0.6 0
25.2 0.6 0
25.5 0.6 0
25.8 0.6 0
26.1 0.6 0
26.4 0.6 0
26.7 0.6 0
27 0.6 0
27.3 0.6 0
27.6 0.6 0
27.9 0.6 0
28.2 0.6 0
28.5 0.6 0
28.8 0.6 0
29.1 0.6 0
29.4 0.6 0
29.7 0.6 0
30 0.6 0
30.3 0.6 0
30.6 0.6 0
0 0.7 0
0.3 0.7 0
0.6 0.7 0
0.9 0.7 0
1.2 0.7 0
1.5 0.7 0
1.8 0.7 0
2.1 0.7 0
2.4 0.7 0
2.7 0.7 0
3 0.7 0
3.3 0.7 0
3.6 0.7 0
3.9 0.7 0
4.2 0.7 0
4.5 0.7 0
4.8 0.7 0
5.1 0.7 0
5.4 0.7 0
5.7 0.7 0
6 0.7 0
6.3 0.7 0
6.6 0.7 0
6.9 0.7 0
7.2 0.7 0
7.5 0.7 0
7.8 0.7 0
8.1 0.7 0
8.4 0.7 0
8.7 0.7 0
9 0.7 0
9.3 0.7 0
9.6 0.7 0
9.9 0.7 0
10.2 0.7 0
10.5 0.7 0
10.8 0.7 0
11.1 0.7 0
11.4 0.7 0
11.7 0.7 0
12 0.7 0
12.3 0.7 0
12.6 0.7 0
12.9 0.7 0
13.2 0.7 0
13.5 0.7 0
13.8 0.7 0
14.1 0.7 0
14.4 0.7 0
14.7 0.7 0
15 0.7 0
15.3 0.7 0
15.6 0.7 0
15.9 0.7 0
16.2 0.7 0
16.5 0.7 0
16.8 0.7 0
17.1 0.7 0
17.4 0.7 0
17.7 0.7 0
18 0.7 0
18.3 0.7 0
18.6 0.7 0
18.9 0.7 0
19.2 0.7 0
19.5 0.7 0
19.8 0.7 0
20.1 0.7 0
20.4 0.7 0
20.7 0.7 0
21 0.7 0
21.3 0.7 0
21.6 0.7 0
21.9 0.7 0
22.2 0.7 0
22.5 0.7 0
22.8 0.7 0
23.1 0.7 0
23.4 0.7 0
23.7 0.7 0
24 0.7 0
24.3 0.7 0
24.6 0.7 0
24.9 0.7 0
25.2 0.7 0
25.5 0.7 0
25.8 0.7 0
26.1 0.7 0
26.4 0.7 0
26.7 0.7 0
27 0.7 0
27.3 0.7 0
27.6 0.7 0
27.9 0.7 0
28.2 0.7 0
28.5 0.7 0
28.8 0.7 0
29.1 0.7 0
29.4 0.7 0
29.7 0.7 0
30 0.7 0
30.3 0.7 0
30.6 0.7 0
0 0.8 0
0.3 0.8 0
0.6 0.8 0
0.9 0.8 0
1.2 0.8 0
1.5 0.8 0
1.8 0.8 0
2.1 0.8 0
2.4 0.8 0
2.7 0.8 0
3 0.8 0
3.3 0.8 0
3.6 0.8 0
3.9 0.8 0
4.2 0.8 0
4.5 0.8 0
4.8 0.8 0
5.1 0.8 0
5.4 0.8 0
5.7 0.8 0
6 0.8 0
6.3 0.8 0
6.6 0.8 0
6.9 0.8 0
7.2 0.8 0
7.5 0.8 0
7.8 0.8 0
8.1 0.8 0
8.4 0.8 0
8.7 0.8 0
9 0.8 0
9.3 0.8 0
9.6 0.8 0
9.9 0.8 0
10.2 0.8 0
10.5 0.8 0
10.8 0.8 0
11.1 0.8 0
11.4 0.8 0
11.7 0.8 0
12 0.8 0
12.3 0.8 0
12.6 0.8 0
12.9 0.8 0
13.2 0.8 0
13.5 0.8 0
13.8 0.8 0
14.1 0.8 0
14.4 0.8 0
14.7 0.8 0
15 0.8 0
15.3 0.8 0
15.6 0.8 0
15.9 0.8 0
16.2 0.8 0
16.5 0.8 0
16.8 0.8 0
17.1 0.8 0
17.4 0.8 0
17.7 0.8 0
18 0.8 0
18.3 0.8 0
18.6 0.8 0
18.9 0.8 0
19.2 0.8 0
19.5 0.8 0
19.8 0.8 0
20.1 0.8 0
20.4 0.8 0
20.7 0.8 0
21 0.8 0
21.3 0.8 0
21.6 0.8 0
21.9 0.8 0
22.2 0.8 0
22.5 0.8 0
22.8 0.8 0
23.1 0.8 0
23.4 0.8 0
23.7 0.8 0
24 0.8 0
24.3 0.8 0
24.6 0.8 0
24.9 0.8 0
25.2 0.8 0
25.5 0.8 0
25.8 0.8 0
26.1 0.8 0
26.4 0.8 0
26.7 0.8 0
27 0.8 0
27.3 0.8 0
27.6 0.8 0
27.9 0.8 0
28.2 0.8 0
28.5 0.8 0
28.8 0.8 0
29.1 0.8 0
29.4 0.8 0
29.7 0.8 0
30 0.8 0
30.3 0.8 0
30.6 0.8 0
0 0.9 0
0.3 0.9 0
0.6 0.9 0
0.9 0.9 0
1.2 0.9 0
1.5 0.9 0
1.8 0.9 0
2.1 0.9 0
2.4 0.9 0
2.7 0.9 0
3 0.9 0
3.3 0.9 0
3.6 0.9 0
3.9 0.9 0
4.2 0.9 0
4.5 0.9 0
4.8 0.9 0
5.1 0.9 0
5.4 0.9 0
5.7 0.9 0
6 0.9 0
6.3 0.9 0
6.6 0.9 0
6.9 0.9 0
7.2 0.9 0
7.5 0.9 0
7.8 0.9 0
8.1 0.9 0
8.4 0.9 0
8.7 0.9 0
9 0.9 0
9.3 0.9 0
9.6 0.9 0
9.9 0.9 0
10.2 0.9 0
10.5 0.9 0
10.8 0.9 0
11.1 0.9 0
11.4 0.9 0
11.7 0.9 0
12 0.9 0
12.3 0.9 0
12.6 0.9 0
12.9 0.9 0
13.2 0.9 0
13.5 0.9 0
13.8 0.9 0
14.1 0.9 0
14.4 0.9 0
14.7 0.9 0
15 0.9 0
15.3 0.9 0
15.6 0.9 0
15.9 0.9 0
16.2 0.9 0
16.5 0.9 0
16.8 0.9 0
17.1 0.9 0
17.4 0.9 0
17.7 0.9 0
18 0.9 0
18.3 0.9 0
18.6 0.9 0
18.9 0.9 0
19.2 0.9 0
19.5 0.9 0
19.8 0.9 0
20.1 0.9 0
20.4 0.9 0
20.7 0.9 0
21 0.9 0
21.3 0.9 0
21.6 0.9 0
21.9 0.9 0
22.2 0.9 0
22.5 0.9 0
22.8 0.9 0
23.1 0.9 0
23.4 0.9 0
23.7 0.9 0
24 0.9 0
24.3 0.9 0
24.6 0.9 0
24.9 0.9 0
25.2 0.9 0
25.5 0.9 0
25.8 0.9 0
26.1 0.9 0
26.4 0.9 0
26.7 0.9 0
27 0.9 0
27.3 0.9 0
27.6 0.9 0
27.9 0.9 0
28.2 0.9 0
28.5 0.9 0
28.8 0.9 0
29.1 0.9 0
29.4 0.9 0
29.7 0.9 0
30 0.9 0
30.3 0.9 0
30.6 0.9 0
0 1 0
0.3 1 0
0.6 1 0
0.9 1 0
1.2 1 0
1.5 1 0
1.8 1 0
2.1 1 0
2.4 1 0
2.7 1 0
3 1 0
3.3 1 0
3.6 1 0
3.9 1 0
4.2 1 0
4.5 1 0
4.8 1 0
5.1 1 0
5.4 1 0
5.7 1 0
6 1 0
6.3 1 0
6.6 1 0
6.9 1 0
7.2 1 0
7.5 1 0
7.8 1 0
8.1 1 0
8.4 1 0
8.7 1 0
9 1 0
9.3 1 0
9.6 1 0
9.9 1 0
10.2 1 0
10.5 1 0
10.8 1 0
11.1 1 0
11.4 1 0
11.7 1 0
12 1 0
12.3 1 0
12.6 1 0
12.9 1 0
13.2 1 0
13.5 1 0
13.8 1 0
14.1 1 0
14.4 1 0
14.7 1 0
15 1 0
15.3 1 0
15.6 1 0
15.9 1 0
16.2 1 0
16.5 1 0
16.8 1 0
17.1 1 0
17.4 1 0
17.7 1 0
18 1 0
18.3 1 0
18.6 1 0
18.9 1 0
19.2 1 0
19.5 1 0
19.8 1 0
20.1 1 0
20.4 1 0
20.7 1 0
21 1 0
21.3 1 0
21.6 1 0
21.9 1 0
22.2 1 0
22.5 1 0
22.8 1 0
23.1 1 0
23.4 1 0
23.7 1 0
24 1 0
24.3 1 0
24.6 1 0
24.9 1 0
25.2 1 0
25.5 1 0
25.8 1 0
26.1 1 0
26.4 1 0
26.7 1 0
27 1 0
27.3 1 0
27.6 1 0
27.9 1 0
28.2 1 0
28.5 1 0
28.8 1 0
29.1 1 0
29.4 1 0
29.7 1 0
30 1 0
30.3 1 0
30.6 1 0
0 1.1 0
0.3 1.1 0
0.6 1.1 0
0.9 1.1 0
1.2 1.1 0
1.5 1.1 0
1.8 1.1 0
2.1 1.1 0
2.4 1.1 0
2.7 1.1 0
3 1.1 0
3.3 1.1 0
3.6 1.1 0
3.9 1.1 0
4.2 1.1 0
4.5 1.1 0
4.8 1.1 0
5.1 1.1 0
5.4 1.1 0
5.7 1.1 0
6 1.1 0
6.3 1.1 0
6.6 1.1 0
6.9 1.1 0
7.2 1.1 0
7.5 1.1 0
7.8 1.1 0
8.1 1.1 0
8.4 1.1 0
8.7 1.1 0
9 1.1 0
9.3 1.1 0
9.6 1.1 0
9.9 1.1 0
10.2 1.1 0
10.5 1.1 0
10.8 1.1 0
11.1 1.1 0
11.4 1.1 0
11.7 1.1 0
12 1.1 0
12.3 1.1 0
12.6 1.1 0
12.9 1.1 0
13.2 1.1 0
13.5 1.1 0
13.8 1.1 0
14.1 1.1 0
14.4 1.1 0
14.7 1.1 0
15 1.1 0
15.3 1.1 0
15.6 1.1 0
15.9 1.1 0
16.2 1.1 0
16.5 1.1 0
16.8 1.1 0
17.1 1.1 0
17.4 1.1 0
17.7 1.1 0
18 1.1 0
18.3 1.1 0
18.6 1.1 0
18.9 1.1 0
19.2 1.1 0
19.5 1.1 0
19.8 1.1 0
20.1 1.1 0
20.4 1.1 0
20.7 1.1 0
21 1.1 0
21.3 1.1 0
21.6 1.1 0
21.9 1.1 0
22.2 1.1 0
22.5 1.1 0
22.8 1.1 0
23.1 1.1 0
23.4 1.1 0
23.7 1.1 0
24 1.1 0
24.3 1.1 0
24.6 1.1 0
24.9 1.1 0
25.2 1.1 0
25.5 1.1 0
25.8 1.1 0
26.1 1.1 0
26.4 1.1 0
26.7 1.1 0
27 1.1 0
27.3 1.1 0
27.6 1.1 0
27.9 1.1 0
28.2 1.1 0
28.5 1.1 0
28.8 1.1 0
29.1 1.1 0
29.4 1.1 0
29.7 1.1 0
30 1.1 0
30.3 1.1 0
30.6 1.1 0
0 1.2 0
0.3 1.2 0
0.6 1.2 0
0.9 1.2 0
1.2 1.2 0
1.5 1.2 0
1.8 1.2 0
2.1 1.2 0
2.4 1.2 0
2.7 1.2 0
3 1.2 0
3.3 1.2 0
3.6 1.2 0
3.9 1.2 0
4.2 1.2 0
4.5 1.2 0
4.8 1.2 0
5.1 1.2 0
5.4 1.2 0
5.7 1.2 0
6 1.2 0
6.3 1.2 0
6.6 1.2 0
6.9 1.2 0
7.2 1.2 0
7.5 1.2 0
7.8 1.2 0
8.1 1.2 0
8.4 1.2 0
8.7 1.2 0
9 1.2 0
9.3 1.2 0
9.6 1.2 0
9.9 1.2 0
10.2 1.2 0
10.5 1.2 0
10.8 1.2 0
11.1 1.2 0
11.4 1.2 0
11.7 1.2 0
12 1.2 0
12.3 1.2 0
12.6 1.2 0
12.9 1.2 0
13.2 1.2 0
13.5 1.2 0
13.8 1.2 0
14.1 1.2 0
14.4 1.2 0
14.7 1.2 0
15 1.2 0
15.3 1.2 0
15.6 1.2 0
15.9 1.2 0
16.2 1.2 0
16.5 1.2 0
16.8 1.2 0
17.1 1.2 0
17.4 1.2 0
17.7 1.2 0
18 1.2 0
18.3 1.2 0
18.6 1.2 0
18.9 1.2 0
19.2 1.2 0
19.5 1.2 0
19.8 1.2 0
20.1 1.2 0
20.4 1.2 0
20.7 1.2 0
21 1.2 0
21.3 1.2 0
21.6 1.2 0
21.9 1.2 0
22.2 1.2 0
22.5 1.2 0
22.8 1.2 0
23.1 1.2 0
23.4 1.2 0
23.7 1.2 0
24 1.2 0
24.3 1.2 0
24.6 1.2 0
24.9 1.2 0
25.2 1.2 0
25.5 1.2 0
25.8 1.2 0
26.1 1.2 0
26.4 1.2 0
26.7 1.2 0
27 1.2 0
27.3 1.2 0
27.6 1.2 0
27.9 1.2 0
28.2 1.2 0
28.5 1.2 0
28.8 1.2 0
29.1 1.2 0
29.4 1.2 0
29.7 1.2 0
30 1.2 0
30.3 1.2 0
30.6 1.2 0

POINT_DATA 1339

SCALARS pressure double
LOOKUP_TABLE pressure
1.17173
1.17173
1.10688
1.06265
1.02283
0.98625
0.953198
0.92367
0.897315
0.873605
0.852003
0.83204
0.813347
0.795648
0.778741
0.762481
0.746763
0.731507
0.716655
0.70216
0.687985
0.6741
0.66048
0.647101
0.633945
0.620995
0.608235
0.595653
0.583235
0.570971
0.55885
0.546864
0.535003
0.523259
0.511626
0.500097
0.488665
0.477325
0.466071
0.454898
0.443802
0.432779
0.421824
0.410935
0.400108
0.389342
0.378635
0.367985
0.357391
0.346852
0.336366
0.325932
0.315549
0.305214
0.294926
0.284681
0.274477
0.26431
0.254177
0.244076
0.234001
0.22395
0.21392
0.203907
0.193908
0.183922
0.173945
0.163976
0.154014
0.144056
0.134103
0.124152
0.114203
0.104256
0.0943105
0.0843656
0.0744214
0.0644776
0.0545341
0.0445909
0.0346478
0.0247048
0.0147619
0.00481908
-0.00512375
-0.0150665
-0.0250093
-0.0349521
-0.0448949
-0.0548376
-0.0647804
-0.0747231
-0.0846659
-0.0946086
-0.104551
-0.114494
-0.124437
-0.13438
-0.144322
-0.154265
-0.164208
-0.174146
0.174146
1.17173
1.17173
1.10688
1.06265
1.02283
0.98625
0.953198
0.92367
0.897315
0.873605
0.852003
0.83204
0.813347
0.795648
0.778741
0.762481
0.746763
0.731507
0.716655
0.70216
0.687985
0.6741
0.66048
0.647101
0.633945
0.620995
0.608235
0.595653
0.583235
0.570971
0.55885
0.546864
0.535003
0.523259
0.511626
0.500097
0.488665
0.477325
0.466071
0.454898
0.443802
0.432779
0.421824
0.410935
0.400108
0.389342
0.378635
0.367985
0.357391
0.346852
0.336366
0.325932
0.315549
0.305214
0.294926
0.284681
0.274477
0.26431
0.254177
0.244076
0.234001
0.22395
0.21392
0.203907
0.193908
0.183922
0.173945
0.163976
0.154014
0.144056
0.134103
0.124152
0.114203
0.104256
0.0943105
0.0843656
0.0744214
0.0644776
0.0545341
0.0445909
0.0346478
0.0247048
0.0147619
0.00481908
-0.00512375
-0.0150665
-0.0250093
-0.0349521
-0.0448949
-0.0548376
-0.0647804
-0.0747231
-0.0846659
-0.0946086
-0.104551
-0.114494
-0.124437
-0.13438
-0.144322
-0.154265
-0.164208
-0.174146
0.174146
1.15078
1.15078
1.10489
1.06288
1.02353
0.987047
0.953941
0.924302
0.897822
0.874
0.852307
0.832274
0.813529
0.795792
0.778858
0.762579
0.746845
0.731578
0.716717
0.702215
0.688035
0.674145
0.66052
0.647138
0.633979
0.621026
0.608264
0.595679
0.583259
0.570993
0.558871
0.546883
0.53502
0.523276
0.511642
0.500112
0.488679
0.477338
0.466083
0.45491
0.443813
0.432788
0.421833
0.410943
0.400116
0.38935
0.378642
0.367991
0.357397
0.346857
0.33637
0.325936
0.315552
0.305216
0.294927
0.284682
0.274478
0.264311
0.254178
0.244076
0.234001
0.22395
0.21392
0.203907
0.193908
0.183922
0.173945
0.163976
0.154014
0.144056
0.134103
0.124152
0.114203
0.104256
0.0943105
0.0843656
0.0744214
0.0644776
0.0545341
0.0445909
0.0346478
0.0247048
0.0147619
0.00481908
-0.00512375
-0.0150666
-0.0250093
-0.0349521
-0.0448949
-0.0548376
-0.0647804
-0.0747231
-0.0846659
-0.0946086
-0.104551
-0.114494
-0.124437
-0.13438
-0.144322
-0.154265
-0.164208
-0.174146
0.174146
1.13581
1.13581
1.10201
1.06311
1.02464
0.988371
0.955203
0.92538
0.898683
0.87466
0.852799
0.832638
0.813801
0.795997
0.779017
0.762704
0.746947
0.731662
0.716788
0.702276
0.688088
0.674192
0.660561
0.647175
0.634012
0.621056
0.608291
0.595704
0.583282
0.571014
0.55889
0.5469
0.535036
0.523291
0.511655
0.500124
0.488691
0.477349
0.466093
0.454919
0.443822
0.432797
0.421841
0.41095
0.400123
0.389356
0.378647
0.367996
0.357401
0.346861
0.336374
0.325939
0.315554
0.305218
0.294929
0.284683
0.274478
0.264311
0.254178
0.244076
0.234001
0.22395
0.21392
0.203906
0.193908
0.183921
0.173945
0.163976
0.154014
0.144056
0.134102
0.124152
0.114203
0.104256
0.0943104
0.0843656
0.0744214
0.0644776
0.0545341
0.0445909
0.0346478
0.0247048
0.0147619
0.00481907
-0.00512375
-0.0150666
-0.0250093
-0.0349521
-0.0448949
-0.0548376
-0.0647804
-0.0747231
-0.0846659
-0.0946086
-0.104551
-0.114494
-0.124437
-0.13438
-0.144322
-0.154265
-0.164207
-0.174145
0.174145
1.12624
1.12624
1.09953
1.06322
1.02559
0.989566
0.956379
0.926416
0.899536
0.875332
0.853317
0.833033
0.814103
0.796232
0.779202
0.762853
0.74707
0.731765
0.716876
0.702352
0.688154
0.67425
0.660613
0.647221
0.634053
0.621093
0.608325
0.595734
0.58331
0.571039
0.558913
0.546921
0.535056
0.523308
0.511672
0.500139
0.488705
0.477362
0.466105
0.45493
0.443832
0.432806
0.42185
0.410959
0.400131
0.389363
0.378655
0.368003
0.357407
0.346867
0.336379
0.325944
0.315559
0.305223
0.294933
0.284687
0.274481
0.264314
0.254181
0.244078
0.234003
0.223951
0.213921
0.203907
0.193909
0.183922
0.173945
0.163976
0.154014
0.144056
0.134103
0.124152
0.114203
0.104256
0.0943105
0.0843656
0.0744214
0.0644776
0.0545341
0.0445909
0.0346478
0.0247048
0.0147619
0.00481907
-0.00512375
-0.0150666
-0.0250093
-0.0349521
-0.0448949
-0.0548376
-0.0647804
-0.0747231
-0.0846659
-0.0946086
-0.104551
-0.114494
-0.124437
-0.13438
-0.144322
-0.154264
-0.164204
-0.174143
0.174143
1.12092
1.12092
1.0979
1.06323
1.02618
0.990332
0.957148
0.927106
0.900114
0.875796
0.853681
0.833317
0.814325
0.796409
0.779345
0.762971
0.747169
0.73185
0.716949
0.702416
0.688211
0.674301
0.660659
0.647262
0.63409
0.621126
0.608355
0.595762
0.583335
0.571063
0.558934
0.546941
0.535074
0.523325
0.511687
0.500154
0.488718
0.477374
0.466117
0.454941
0.443842
0.432816
0.421859
0.410967
0.400139
0.389371
0.378662
0.36801
0.357414
0.346873
0.336385
0.325949
0.315564
0.305228
0.294937
0.284691
0.274485
0.264317
0.254184
0.244081
0.234005
0.223953
0.213922
0.203909
0.19391
0.183923
0.173946
0.163977
0.154014
0.144057
0.134103
0.124152
0.114203
0.104256
0.0943105
0.0843657
0.0744214
0.0644776
0.0545342
0.0445909
0.0346478
0.0247048
0.0147619
0.00481908
-0.00512375
-0.0150665
-0.0250093
-0.0349521
-0.0448949
-0.0548376
-0.0647804
-0.0747231
-0.0846659
-0.0946086
-0.104551
-0.114494
-0.124437
-0.134379
-0.144322
-0.154263
-0.1642
-0.174141
0.174141
1.11922
1.11922
1.09735
1.06325
1.0264
0.990606
0.957422
0.927351
0.900321
0.875963
0.853813
0.833422
0.814408
0.796475
0.779399
0.763017
0.747207
0.731883
0.716979
0.702442
0.688234
0.674321
0.660677
0.647279
0.634106
0.621141
0.608368
0.595774
0.583346
0.571073
0.558944
0.54695
0.535082
0.523333
0.511694
0.50016
0.488724
0.47738
0.466122
0.454946
0.443846
0.43282
0.421862
0.410971
0.400142
0.389374
0.378665
0.368013
0.357417
0.346876
0.336388
0.325952
0.315567
0.30523
0.29494
0.284693
0.274487
0.264319
0.254185
0.244082
0.234006
0.223954
0.213923
0.203909
0.19391
0.183923
0.173946
0.163977
0.154015
0.144057
0.134103
0.124152
0.114203
0.104256
0.0943106
0.0843657
0.0744214
0.0644776
0.0545342
0.0445909
0.0346478
0.0247048
0.0147619
0.00481908
-0.00512375
-0.0150665
-0.0250093
-0.0349521
-0.0448949
-0.0548376
-0.0647804
-0.0747231
-0.0846659
-0.0946086
-0.104551
-0.114494
-0.124437
-0.134379
-0.144322
-0.154263
-0.164198
-0.174141
0.174141
1.12092
1.12092
1.0979
1.06323
1.02618
0.990332
0.957148
0.927106
0.900114
0.875796
0.853681
0.833317
0.814325
0.796409
0.779345
0.762971
0.747169
0.73185
0.716949
0.702416
0.688211
0.674301
0.660659
0.647262
0.63409
0.621126
0.608355
0.595762
0.583335
0.571063
0.558934
0.546941
0.535074
0.523325
0.511687
0.500154
0.488718
0.477374
0.466117
0.454941
0.443842
0.432816
0.421859
0.410967
0.400139
0.389371
0.378662
0.36801
0.357414
0.346873
0.336385
0.325949
0.315564
0.305228
0.294937
0.284691
0.274485
0.264317
0.254184
0.244081
0.234005
0.223953
0.213922
0.203909
0.19391
0.183923
0.173946
0.163977
0.154014
0.144057
0.134103
0.124152
0.114203
0.104256
0.0943105
0.0843657
0.0744214
0.0644776
0.0545342
0.0445909
0.0346478
0.0247048
0.0147619
0.00481908
-0.00512375
-0.0150665
-0.0250093
-0.0349521
-0.0448949
-0.0548376
-0.0647804
-0.0747231
-0.0846659
-0.0946086
-0.104551
-0.114494
-0.124437
-0.134379
-0.144322
-0.154263
-0.1642
-0.174141
0.174141
1.12624
1.12624
1.09953
1.06322
1.02559
0.989566
0.956379
0.926416
0.899536
0.875332
0.853317
0.833033
0.814103
0.796232
0.779202
0.762853
0.74707
0.731765
0.716876
0.702352
0.688154
0.67425
0.660613
0.647221
0.634053
0.621093
0.608325
0.595734
0.58331
0.571039
0.558913
0.546921
0.535056
0.523308
0.511672
0.500139
0.488705
0.477362
0.466105
0.45493
0.443832
0.432806
0.42185
0.410959
0.400131
0.389363
0.378655
0.368003
0.357407
0.346867
0.336379
0.325944
0.315559
0.305223
0.294933
0.284687
0.274481
0.264314
0.254181
0.244078
0.234003
0.223951
0.213921
0.203907
0.193909
0.183922
0.173945
0.163976
0.154014
0.144056
0.134103
0.124152
0.114203
0.104256
0.0943105
0.0843656
0.0744214
0.0644776
0.0545341
0.0445909
0.0346478
0.0247048
0.0147619
0.00481908
-0.00512375
-0.0150665
-0.0250093
-0.0349521
-0.0448949
-0.0548376
-0.0647804
-0.0747231
-0.0846659
-0.0946086
-0.104551
-0.114494
-0.124437
-0.13438
-0.144322
-0.154264
-0.164204
-0.174143
0.174143
1.13581
1.13581
1.10201
1.06311
1.02464
0.988371
0.955203
0.92538
0.898683
0.87466
0.852799
0.832638
0.813801
0.795997
0.779017
0.762704
0.746947
0.731662
0.716788
0.702276
0.688088
0.674192
0.660561
0.647175
0.634012
0.621056
0.608291
0.595704
0.583282
0.571014
0.55889
0.5469
0.535036
0.523291
0.511655
0.500124
0.488691
0.477349
0.466093
0.454919
0.443822
0.432797
0.421841
0.41095
0.400123
0.389356
0.378647
0.367996
0.357401
0.346861
0.336374
0.325939
0.315554
0.305218
0.294929
0.284683
0.274478
0.264311
0.254178
0.244076
0.234001
0.22395
0.21392
0.203907
0.193908
0.183921
0.173945
0.163976
0.154014
0.144056
0.134102
0.124152
0.114203
0.104256
0.0943104
0.0843656
0.0744214
0.0644776
0.0545341
0.0445909
0.0346478
0.0247048
0.0147619
0.00481908
-0.00512375
-0.0150665
-0.0250093
-0.0349521
-0.0448949
-0.0548376
-0.0647804
-0.0747231
-0.0846659
-0.0946086
-0.104551
-0.114494
-0.124437
-0.13438
-0.144322
-0.154265
-0.164207
-0.174145
0.174145
1.15078
1.15078
1.10489
1.06288
1.02353
0.987047
0.953941
0.924302
0.897822
0.874
0.852307
0.832274
0.813529
0.795792
0.778858
0.762579
0.746845
0.731578
0.716717
0.702215
0.688035
0.674145
0.66052
0.647138
0.633979
0.621026
0.608264
0.595679
0.583259
0.570993
0.558871
0.546883
0.53502
0.523276
0.511642
0.500112
0.488679
0.477338
0.466083
0.45491
0.443813
0.432788
0.421833
0.410943
0.400116
0.38935
0.378642
0.367991
0.357397
0.346857
0.33637
0.325936
0.315552
0.305216
0.294927
0.284682
0.274478
0.264311
0.254178
0.244076
0.234001
0.22395
0.21392
0.203907
0.193908
0.183922
0.173945
0.163976
0.154014
0.144056
0.134103
0.124152
0.114203
0.104256
0.0943105
0.0843656
0.0744214
0.0644776
0.0545341
0.0445909
0.0346478
0.0247048
0.0147619
0.00481908
-0.00512375
-0.0150665
-0.0250093
-0.0349521
-0.0448949
-0.0548376
-0.0647804
-0.0747231
-0.0846659
-0.0946086
-0.104551
-0.114494
-0.124437
-0.13438
-0.144322
-0.154265
-0.164208
-0.174146
0.174146
1.17173
1.17173
1.10688
1.06265
1.02283
0.98625
0.953198
0.92367
0.897315
0.873605
0.852003
0.83204
0.813347
0.795648
0.778741
0.762481
0.746763
0.731507
0.716655
0.70216
0.687985
0.6741
0.66048
0.647101
0.633945
0.620995
0.608235
0.595653
0.583235
0.570971
0.55885
0.546864
0.535003
0.523259
0.511626
0.500097
0.488665
0.477325
0.466071
0.454898
0.443802
0.432779
0.421824
0.410935
0.400108
0.389342
0.378635
0.367985
0.357391
0.346852
0.336366
0.325932
0.315549
0.305214
0.294926
0.284681
0.274477
0.26431
0.254177
0.244076
0.234001
0.22395
0.21392
0.203907
0.193908
0.183922
0.173945
0.163976
0.154014
0.144056
0.134103
0.124152
0.114203
0.104256
0.0943105
0.0843656
0.0744214
0.0644776
0.0545341
0.0445909
0.0346478
0.0247048
0.0147619
0.00481908
-0.00512375
-0.0150665
-0.0250093
-0.0349521
-0.0448949
-0.0548376
-0.0647804
-0.0747231
-0.0846659
-0.0946086
-0.104551
-0.114494
-0.124437
-0.13438
-0.144322
-0.154265
-0.164208
-0.174146
0.174146
1.17173
1.17173
1.10688
1.06265
1.02283
0.98625
0.953198
0.92367
0.897315
0.873605
0.852003
0.83204
0.813347
0.795648
0.778741
0.762481
0.746763
0.731507
0.716655
0.70216
0.687985
0.6741
0.66048
0.647101
0.633945
0.620995
0.608235
0.595653
0.583235
0.570971
0.55885
0.546864
0.535003
0.523259
0.511626
0.500097
0.488665
0.477325
0.466071
0.454898
0.443802
0.432779
0.421824
0.410935
0.400108
0.389342
0.378635
0.367985
0.357391
0.346852
0.336366
0.325932
0.315549
0.305214
0.294926
0.284681
0.274477
0.26431
0.254177
0.244076
0.234001
0.22395
0.21392
0.203907
0.193908
0.183922
0.173945
0.163976
0.154014
0.144056
0.134103
0.124152
0.114203
0.104256
0.0943105
0.0843656
0.0744214
0.0644776
0.0545341
0.0445909
0.0346478
0.0247048
0.0147619
0.00481908
-0.00512375
-0.0150665
-0.0250093
-0.0349521
-0.0448949
-0.0548376
-0.0647804
-0.0747231
-0.0846659
-0.0946086
-0.104551
-0.114494
-0.124437
-0.13438
-0.144322
-0.154265
-0.164208
-0.174146
0.174146
SCALARS phi double
LOOKUP_TABLE phi
1
1
1
1
0.999998
0.999994
0.999982
0.999957
0.99991
0.999829
0.999705
0.999525
0.999278
0.998948
0.998528
0.998023
0.997448
0.996772
0.995851
0.994364
0.99182
0.987635
0.98124
0.972179
0.960171
0.945117
0.92708
0.906246
0.882878
0.857292
0.829824
0.800813
0.770595
0.739484
0.707775
0.675732
0.643593
0.611566
0.579829
0.548533
0.517803
0.487744
0.458437
0.429946
0.40232
0.375595
0.349798
0.324943
0.301043
0.278103
0.256124
0.235108
0.215054
0.195962
0.177833
0.160666
0.144465
0.129231
0.114965
0.10167
0.0893448
0.0779848
0.0675822
0.0581237
0.0495898
0.0419538
0.0351819
0.0292329
0.0240587
0.0196055
0.0158143
0.0126231
0.00996809
0.00778555
0.00601322
0.00459185
0.00346629
0.00258631
0.00190716
0.00138979
0.00100077
0.000712075
0.000500617
0.000347751
0.000238677
0.000161859
0.000108457
7.18092e-05
4.69814e-05
3.03748e-05
1.94073e-05
1.22548e-05
7.64833e-06
4.71816e-06
2.8771e-06
1.7344e-06
1.03368e-06
6.09116e-07
3.54945e-07
2.04389e-07
1.17254e-07
6.15663e-08
6.15663e-08
1
1
1
1
0.999998
0.999994
0.999982
0.999957
0.99991
0.999829
0.999705
0.999525
0.999278
0.998948
0.998528
0.998023
0.997448
0.996772
0.995851
0.994364
0.99182
0.987635
0.98124
0.972179
0.960171
0.945117
0.92708
0.906246
0.882878
0.857292
0.829824
0.800813
0.770595
0.739484
0.707775
0.675732
0.643593
0.611566
0.579829
0.548533
0.517803
0.487744
0.458437
0.429946
0.40232
0.375595
0.349798
0.324943
0.301043
0.278103
0.256124
0.235108
0.215054
0.195962
0.177833
0.160666
0.144465
0.129231
0.114965
0.10167
0.0893448
0.0779848
0.0675822
0.0581237
0.0495898
0.0419538
0.0351819
0.0292329
0.0240587
0.0196055
0.0158143
0.0126231
0.00996809
0.00778555
0.00601322
0.00459185
0.00346629
0.00258631
0.00190716
0.00138979
0.00100077
0.000712075
0.000500617
0.000347751
0.000238677
0.000161859
0.000108457
7.18092e-05
4.69814e-05
3.03748e-05
1.94073e-05
1.22548e-05
7.64833e-06
4.71816e-06
2.8771e-06
1.7344e-06
1.03368e-06
6.09116e-07
3.54945e-07
2.04389e-07
1.17254e-07
6.15663e-08
6.15663e-08
1
1
1
0.999996
0.999983
0.999953
0.999898
0.999804
0.999658
0.999446
0.999157
0.998777
0.998299
0.997713
0.997012
0.996193
0.995258
0.994211
0.993035
0.991668
0.989976
0.987746
0.984697
0.980518
0.9749
0.967575
0.958338
0.947063
0.933698
0.918262
0.900835
0.881546
0.860559
0.838062
0.814259
0.789356
0.763563
0.73708
0.710097
0.682791
0.655323
0.627838
0.600466
0.573318
0.546488
0.520058
0.494089
0.468631
0.44372
0.41938
0.395624
0.372454
0.34987
0.327862
0.30642
0.285534
0.265194
0.245399
0.22615
0.207459
0.18935
0.171854
0.155016
0.138888
0.123532
0.109011
0.0953869
0.0827187
0.0710544
0.0604285
0.0508583
0.0423425
0.0348599
0.0283709
0.0228188
0.0181335
0.0142349
0.0110365
0.0084501
0.00638845
0.0047687
0.00351442
0.00255707
0.00183681
0.00130262
0.000912047
0.000630487
0.000430344
0.000290042
0.000193036
0.000126877
8.23625e-05
5.28096e-05
3.34481e-05
2.09289e-05
1.29384e-05
7.9034e-06
4.77075e-06
2.84634e-06
1.67706e-06
9.84801e-07
5.26913e-07
5.26913e-07
0.999997
1
0.99998
0.999896
0.999724
0.999434
0.998999
0.998397
0.997613
0.996636
0.995464
0.994099
0.992546
0.990816
0.988916
0.986858
0.984655
0.982318
0.979859
0.977285
0.974585
0.97173
0.968662
0.965291
0.961507
0.957179
0.95217
0.946346
0.939583
0.931778
0.922851
0.912749
0.901443
0.888932
0.87524
0.86041
0.844504
0.827596
0.809773
0.791129
0.771763
0.751776
0.731268
0.710338
0.68908
0.667583
0.645927
0.624184
0.602414
0.580669
0.558984
0.537383
0.515877
0.494464
0.473129
0.451846
0.43058
0.409289
0.38793
0.366463
0.344856
0.323093
0.30118
0.279155
0.257087
0.235083
0.213282
0.191856
0.170998
0.150912
0.1318
0.11385
0.0972225
0.082041
0.0683858
0.0562906
0.0457433
0.0366901
0.0290421
0.0226835
0.0174806
0.0132905
0.00996895
0.00737704
0.00538575
0.00387932
0.00275697
0.00193333
0.00133785
0.000913635
0.000615806
0.000409698
0.000269078
0.000174474