# vtk DataFile Version 3.0
FlowField
ASCII
DATASET STRUCTURED_GRID
DIMENSIONS 103 13 1 
POINTS 1339 double
0 0 0
0.3 0 0
0.6 0 0
0.9 0 0
1.2 0 0
1.5 0 0
1.8 0 0
2.1 0 0
2.4 0 0
2.7 0 0
3 0 0
3.3 0 0
3.6 0 0
3.9 0 0
4.2 0 0
4.5 0 0
4.8 0 0
5.1 0 0
5.4 0 0
5.7 0 0
6 0 0
6.3 0 0
6.6 0 0
6.9 0 0
7.2 0 0
7.5 0 0
7.8 0 0
8.1 0 0
8.4 0 0
8.7 0 0
9 0 0
9.3 0 0
9.6 0 0
9.9 0 0
10.2 0 0
10.5 0 0
10.8 0 0
11.1 0 0
11.4 0 0
11.7 0 0
12 0 0
12.3 0 0
12.6 0 0
12.9 0 0
13.2 0 0
13.5 0 0
13.8 0 0
14.1 0 0
14.4 0 0
14.7 0 0
15 0 0
15.3 0 0
15.6 0 0
15.9 0 0
16.2 0 0
16.5 0 0
16.8 0 0
17.1 0 0
17.4 0 0
17.7 0 0
18 0 0
18.3 0 0
18.6 0 0
18.9 0 0
19.2 0 0
19.5 0 0
19.8 0 0
20.1 0 0
20.4 0 0
20.7 0 0
21 0 0
21.3 0 0
21.6 0 0
21.9 0 0
22.2 0 0
22.5 0 0
22.8 0 0
23.1 0 0
23.4 0 0
23.7 0 0
24 0 0
24.3 0 0
24.6 0 0
24.9 0 0
25.2 0 0
25.5 0 0
25.8 0 0
26.1 0 0
26.4 0 0
26.7 0 0
27 0 0
27.3 0 0
27.6 0 0
27.9 0 0
28.2 0 0
28.5 0 0
28.8 0 0
29.1 0 0
29.4 0 0
29.7 0 0
30 0 0
30.3 0 0
30.6 0 0
0 0.1 0
0.3 0.1 0
0.6 0.1 0
0.9 0.1 0
1.2 0.1 0
1.5 0.1 0
1.8 0.1 0
2.1 0.1 0
2.4 0.1 0
2.7 0.1 0
3 0.1 0
3.3 0.1 0
3.6 0.1 0
3.9 0.1 0
4.2 0.1 0
4.5 0.1 0
4.8 0.1 0
5.1 0.1 0
5.4 0.1 0
5.7 0.1 0
6 0.1 0
6.3 0.1 0
6.6 0.1 0
6.9 0.1 0
7.2 0.1 0
7.5 0.1 0
7.8 0.1 0
8.1 0.1 0
8.4 0.1 0
8.7 0.1 0
9 0.1 0
9.3 0.1 0
9.6 0.1 0
9.9 0.1 0
10.2 0.1 0
10.5 0.1 0
10.8 0.1 0
11.1 0.1 0
11.4 0.1 0
11.7 0.1 0
12 0.1 0
12.3 0.1 0
12.6 0.1 0
12.9 0.1 0
13.2 0.1 0
13.5 0.1 0
13.8 0.1 0
14.1 0.1 0
14.4 0.1 0
14.7 0.1 0
15 0.1 0
15.3 0.1 0
15.6 0.1 0
15.9 0.1 0
16.2 0.1 0
16.5 0.1 0
16.8 0.1 0
17.1 0.1 0
17.4 0.1 0
17.7 0.1 0
18 0.1 0
18.3 0.1 0
18.6 0.1 0
18.9 0.1 0
19.2 0.1 0
19.5 0.1 0
19.8 0.1 0
20.1 0.1 0
20.4 0.1 0
20.7 0.1 0
21 0.1 0
21.3 0.1 0
21.6 0.1 0
21.9 0.1 0
22.2 0.1 0
22.5 0.1 0
22.8 0.1 0
23.1 0.1 0
23.4 0.1 0
23.7 0.1 0
24 0.1 0
24.3 0.1 0
24.6 0.1 0
24.9 0.1 0
25.2 0.1 0
25.5 0.1 0
25.8 0.1 0
26.1 0.1 0
26.4 0.1 0
26.7 0.1 0
27 0.1 0
27.3 0.1 0
27.6 0.1 0
27.9 0.1 0
28.2 0.1 0
28.5 0.1 0
28.8 0.1 0
29.1 0.1 0
29.4 0.1 0
29.7 0.1 0
30 0.1 0
30.3 0.1 0
30.6 0.1 0
0 0.2 0
0.3 0.2 0
0.6 0.2 0
0.9 0.2 0
1.2 0.2 0
1.5 0.2 0
1.8 0.2 0
2.1 0.2 0
2.4 0.2 0
2.7 0.2 0
3 0.2 0
3.3 0.2 0
3.6 0.2 0
3.9 0.2 0
4.2 0.2 0
4.5 0.2 0
4.8 0.2 0
5.1 0.2 0
5.4 0.2 0
5.7 0.2 0
6 0.2 0
6.3 0.2 0
6.6 0.2 0
6.9 0.2 0
7.2 0.2 0
7.5 0.2 0
7.8 0.2 0
8.1 0.2 0
8.4 0.2 0
8.7 0.2 0
9 0.2 0
9.3 0.2 0
9.6 0.2 0
9.9 0.2 0
10.2 0.2 0
10.5 0.2 0
10.8 0.2 0
11.1 0.2 0
11.4 0.2 0
11.7 0.2 0
12 0.2 0
12.3 0.2 0
12.6 0.2 0
12.9 0.2 0
13.2 0.2 0
13.5 0.2 0
13.8 0.2 0
14.1 0.2 0
14.4 0.2 0
14.7 0.2 0
15 0.2 0
15.3 0.2 0
15.6 0.2 0
15.9 0.2 0
16.2 0.2 0
16.5 0.2 0
16.8 0.2 0
17.1 0.2 0
17.4 0.2 0
17.7 0.2 0
18 0.2 0
18.3 0.2 0
18.6 0.2 0
18.9 0.2 0
19.2 0.2 0
19.5 0.2 0
19.8 0.2 0
20.1 0.2 0
20.4 0.2 0
20.7 0.2 0
21 0.2 0
21.3 0.2 0
21.6 0.2 0
21.9 0.2 0
22.2 0.2 0
22.5 0.2 0
22.8 0.2 0
23.1 0.2 0
23.4 0.2 0
23.7 0.2 0
24 0.2 0
24.3 0.2 0
24.6 0.2 0
24.9 0.2 0
25.2 0.2 0
25.5 0.2 0
25.8 0.2 0
26.1 0.2 0
26.4 0.2 0
26.7 0.2 0
27 0.2 0
27.3 0.2 0
27.6 0.2 0
27.9 0.2 0
28.2 0.2 0
28.5 0.2 0
28.8 0.2 0
29.1 0.2 0
29.4 0.2 0
29.7 0.2 0
30 0.2 0
30.3 0.2 0
30.6 0.2 0
0 0.3 0
0.3 0.3 0
0.6 0.3 0
0.9 0.3 0
1.2 0.3 0
1.5 0.3 0
1.8 0.3 0
2.1 0.3 0
2.4 0.3 0
2.7 0.3 0
3 0.3 0
3.3 0.3 0
3.6 0.3 0
3.9 0.3 0
4.2 0.3 0
4.5 0.3 0
4.8 0.3 0
5.1 0.3 0
5.4 0.3 0
5.7 0.3 0
6 0.3 0
6.3 0.3 0
6.6 0.3 0
6.9 0.3 0
7.2 0.3 0
7.5 0.3 0
7.8 0.3 0
8.1 0.3 0
8.4 0.3 0
8.7 0.3 0
9 0.3 0
9.3 0.3 0
9.6 0.3 0
9.9 0.3 0
10.2 0.3 0
10.5 0.3 0
10.8 0.3 0
11.1 0.3 0
11.4 0.3 0
11.7 0.3 0
12 0.3 0
12.3 0.3 0
12.6 0.3 0
12.9 0.3 0
13.2 0.3 0
13.5 0.3 0
13.8 0.3 0
14.1 0.3 0
14.4 0.3 0
14.7 0.3 0
15 0.3 0
15.3 0.3 0
15.6 0.3 0
15.9 0.3 0
16.2 0.3 0
16.5 0.3 0
16.8 0.3 0
17.1 0.3 0
17.4 0.3 0
17.7 0.3 0
18 0.3 0
18.3 0.3 0
18.6 0.3 0
18.9 0.3 0
19.2 0.3 0
19.5 0.3 0
19.8 0.3 0
20.1 0.3 0
20.4 0.3 0
20.7 0.3 0
21 0.3 0
21.3 0.3 0
21.6 0.3 0
21.9 0.3 0
22.2 0.3 0
22.5 0.3 0
22.8 0.3 0
23.1 0.3 0
23.4 0.3 0
23.7 0.3 0
24 0.3 0
24.3 0.3 0
24.6 0.3 0
24.9 0.3 0
25.2 0.3 0
25.5 0.3 0
25.8 0.3 0
26.1 0.3 0
26.4 0.3 0
26.7 0.3 0
27 0.3 0
27.3 0.3 0
27.6 0.3 0
27.9 0.3 0
28.2 0.3 0
28.5 0.3 0
28.8 0.3 0
29.1 0.3 0
29.4 0.3 0
29.7 0.3 0
30 0.3 0
30.3 0.3 0
30.6 0.3 0
0 0.4 0
0.3 0.4 0
0.6 0.4 0
0.9 0.4 0
1.2 0.4 0
1.5 0.4 0
1.8 0.4 0
2.1 0.4 0
2.4 0.4 0
2.7 0.4 0
3 0.4 0
3.3 0.4 0
3.6 0.4 0
3.9 0.4 0
4.2 0.4 0
4.5 0.4 0
4.8 0.4 0
5.1 0.4 0
5.4 0.4 0
5.7 0.4 0
6 0.4 0
6.3 0.4 0
6.6 0.4 0
6.9 0.4 0
7.2 0.4 0
7.5 0.4 0
7.8 0.4 0
8.1 0.4 0
8.4 0.4 0
8.7 0.4 0
9 0.4 0
9.3 0.4 0
9.6 0.4 0
9.9 0.4 0
10.2 0.4 0
10.5 0.4 0
10.8 0.4 0
11.1 0.4 0
11.4 0.4 0
11.7 0.4 0
12 0.4 0
12.3 0.4 0
12.6 0.4 0
12.9 0.4 0
13.2 0.4 0
13.5 0.4 0
13.8 0.4 0
14.1 0.4 0
14.4 0.4 0
14.7 0.4 0
15 0.4 0
15.3 0.4 0
15.6 0.4 0
15.9 0.4 0
16.2 0.4 0
16.5 0.4 0
16.8 0.4 0
17.1 0.4 0
17.4 0.4 0
17.7 0.4 0
18 0.4 0
18.3 0.4 0
18.6 0.4 0
18.9 0.4 0
19.2 0.4 0
19.5 0.4 0
19.8 0.4 0
20.1 0.4 0
20.4 0.4 0
20.7 0.4 0
21 0.4 0
21.3 0.4 0
21.6 0.4 0
21.9 0.4 0
22.2 0.4 0
22.5 0.4 0
22.8 0.4 0
23.1 0.4 0
23.4 0.4 0
23.7 0.4 0
24 0.4 0
24.3 0.4 0
24.6 0.4 0
24.9 0.4 0
25.2 0.4 0
25.5 0.4 0
25.8 0.4 0
26.1 0.4 0
26.4 0.4 0
26.7 0.4 0
27 0.4 0
27.3 0.4 0
27.6 0.4 0
27.9 0.4 0
28.2 0.4 0
28.5 0.4 0
28.8 0.4 0
29.1 0.4 0
29.4 0.4 0
29.7 0.4 0
30 0.4 0
30.3 0.4 0
30.6 0.4 0
0 0.5 0
0.3 0.5 0
0.6 0.5 0
0.9 0.5 0
1.2 0.5 0
1.5 0.5 0
1.8 0.5 0
2.1 0.5 0
2.4 0.5 0
2.7 0.5 0
3 0.5 0
3.3 0.5 0
3.6 0.5 0
3.9 0.5 0
4.2 0.5 0
4.5 0.5 0
4.8 0.5 0
5.1 0.5 0
5.4 0.5 0
5.7 0.5 0
6 0.5 0
6.3 0.5 0
6.6 0.5 0
6.9 0.5 0
7.2 0.5 0
7.5 0.5 0
7.8 0.5 0
8.1 0.5 0
8.4 0.5 0
8.7 0.5 0
9 0.5 0
9.3 0.5 0
9.6 0.5 0
9.9 0.5 0
10.2 0.5 0
10.5 0.5 0
10.8 0.5 0
11.1 0.5 0
11.4 0.5 0
11.7 0.5 0
12 0.5 0
12.3 0.5 0
12.6 0.5 0
12.9 0.5 0
13.2 0.5 0
13.5 0.5 0
13.8 0.5 0
14.1 0.5 0
14.4 0.5 0
14.7 0.5 0
15 0.5 0
15.3 0.5 0
15.6 0.5 0
15.9 0.5 0
16.2 0.5 0
16.5 0.5 0
16.8 0.5 0
17.1 0.5 0
17.4 0.5 0
17.7 0.5 0
18 0.5 0
18.3 0.5 0
18.6 0.5 0
18.9 0.5 0
19.2 0.5 0
19.5 0.5 0
19.8 0.5 0
20.1 0.5 0
20.4 0.5 0
20.7 0.5 0
21 0.5 0
21.3 0.5 0
21.6 0.5 0
21.9 0.5 0
22.2 0.5 0
22.5 0.5 0
22.8 0.5 0
23.1 0.5 0
23.4 0.5 0
23.7 0.5 0
24 0.5 0
24.3 0.5 0
24.6 0.5 0
24.9 0.5 0
25.2 0.5 0
25.5 0.5 0
25.8 0.5 0
26.1 0.5 0
26.4 0.5 0
26.7 0.5 0
27 0.5 0
27.3 0.5 0
27.6 0.5 0
27.9 0.5 0
28.2 0.5 0
28.5 0.5 0
28.8 0.5 0
29.1 0.5 0
29.4 0.5 0
29.7 0.5 0
30 0.5 0
30.3 0.5 0
30.6 0.5 0
0 0.6 0
0.3 0.6 0
0.6 0.6 0
0.9 0.6 0
1.2 0.6 0
1.5 0.6 0
1.8 0.6 0
2.1 0.6 0
2.4 0.6 0
2.7 0.6 0
3 0.6 0
3.3 0.6 0
3.6 0.6 0
3.9 0.6 0
4.2 0.6 0
4.5 0.6 0
4.8 0.6 0
5.1 0.6 0
5.4 0.6 0
5.7 0.6 0
6 0.6 0
6.3 0.6 0
6.6 0.6 0
6.9 0.6 0
7.2 0.6 0
7.5 0.6 0
7.8 0.6 0
8.1 0.6 0
8.4 0.6 0
8.7 0.6 0
9 0.6 0
9.3 0.6 0
9.6 0.6 0
9.9 0.6 0
10.2 0.6 0
10.5 0.6 0
10.8 0.6 0
11.1 0.6 0
11.4 0.6 0
11.7 0.6 0
12 0.6 0
12.3 0.6 0
12.6 0.6 0
12.9 0.6 0
13.2 0.6 0
13.5 0.6 0
13.8 0.6 0
14.1 0.6 0
14.4 0.6 0
14.7 0.6 0
15 0.6 0
15.3 0.6 0
15.6 0.6 0
15.9 0.6 0
16.2 0.6 0
16.5 0.6 0
16.8 0.6 0
17.1 0.6 0
17.4 0.6 0
17.7 0.6 0
18 0.6 0
18.3 0.6 0
18.6 0.6 0
18.9 0.6 0
19.2 0.6 0
19.5 0.6 0
19.8 0.6 0
20.1 0.6 0
20.4 0.6 0
20.7 0.6 0
21 0.6 0
21.3 0.6 0
21.6 0.6 0
21.9 0.6 0
22.2 0.6 0
22.5 0.6 0
22.8 0.6 0
23.1 0.6 0
23.4 0.6 0
23.7 0.6 0
24 0.6 0
24.3 0.6 0
24.6 0.6 0
24.9 0.6 0
25.2 0.6 0
25.5 0.6 0
25.8 0.6 0
26.1 0.6 0
26.4 0.6 0
26.7 0.6 0
27 0.6 0
27.3 0.6 0
27.6 0.6 0
27.9 0.6 0
28.2 0.6 0
28.5 0.6 0
28.8 0.6 0
29.1 0.6 0
29.4 0.6 0
29.7 0.6 0
30 0.6 0
30.3 0.6 0
30.6 0.6 0
0 0.7 0
0.3 0.7 0
0.6 0.7 0
0.9 0.7 0
1.2 0.7 0
1.5 0.7 0
1.8 0.7 0
2.1 0.7 0
2.4 0.7 0
2.7 0.7 0
3 0.7 0
3.3 0.7 0
3.6 0.7 0
3.9 0.7 0
4.2 0.7 0
4.5 0.7 0
4.8 0.7 0
5.1 0.7 0
5.4 0.7 0
5.7 0.7 0
6 0.7 0
6.3 0.7 0
6.6 0.7 0
6.9 0.7 0
7.2 0.7 0
7.5 0.7 0
7.8 0.7 0
8.1 0.7 0
8.4 0.7 0
8.7 0.7 0
9 0.7 0
9.3 0.7 0
9.6 0.7 0
9.9 0.7 0
10.2 0.7 0
10.5 0.7 0
10.8 0.7 0
11.1 0.7 0
11.4 0.7 0
11.7 0.7 0
12 0.7 0
12.3 0.7 0
12.6 0.7 0
12.9 0.7 0
13.2 0.7 0
13.5 0.7 0
13.8 0.7 0
14.1 0.7 0
14.4 0.7 0
14.7 0.7 0
15 0.7 0
15.3 0.7 0
15.6 0.7 0
15.9 0.7 0
16.2 0.7 0
16.5 0.7 0
16.8 0.7 0
17.1 0.7 0
17.4 0.7 0
17.7 0.7 0
18 0.7 0
18.3 0.7 0
18.6 0.7 0
18.9 0.7 0
19.2 0.7 0
19.5 0.7 0
19.8 0.7 0
20.1 0.7 0
20.4 0.7 0
20.7 0.7 0
21 0.7 0
21.3 0.7 0
21.6 0.7 0
21.9 0.7 0
22.2 0.7 0
22.5 0.7 0
22.8 0.7 0
23.1 0.7 0
23.4 0.7 0
23.7 0.7 0
24 0.7 0
24.3 0.7 0
24.6 0.7 0
24.9 0.7 0
25.2 0.7 0
25.5 0.7 0
25.8 0.7 0
26.1 0.7 0
26.4 0.7 0
26.7 0.7 0
27 0.7 0
27.3 0.7 0
27.6 0.7 0
27.9 0.7 0
28.2 0.7 0
28.5 0.7 0
28.8 0.7 0
29.1 0.7 0
29.4 0.7 0
29.7 0.7 0
30 0.7 0
30.3 0.7 0
30.6 0.7 0
0 0.8 0
0.3 0.8 0
0.6 0.8 0
0.9 0.8 0
1.2 0.8 0
1.5 0.8 0
1.8 0.8 0
2.1 0.8 0
2.4 0.8 0
2.7 0.8 0
3 0.8 0
3.3 0.8 0
3.6 0.8 0
3.9 0.8 0
4.2 0.8 0
4.5 0.8 0
4.8 0.8 0
5.1 0.8 0
5.4 0.8 0
5.7 0.8 0
6 0.8 0
6.3 0.8 0
6.6 0.8 0
6.9 0.8 0
7.2 0.8 0
7.5 0.8 0
7.8 0.8 0
8.1 0.8 0
8.4 0.8 0
8.7 0.8 0
9 0.8 0
9.3 0.8 0
9.6 0.8 0
9.9 0.8 0
10.2 0.8 0
10.5 0.8 0
10.8 0.8 0
11.1 0.8 0
11.4 0.8 0
11.7 0.8 0
12 0.8 0
12.3 0.8 0
12.6 0.8 0
12.9 0.8 0
13.2 0.8 0
13.5 0.8 0
13.8 0.8 0
14.1 0.8 0
14.4 0.8 0
14.7 0.8 0
15 0.8 0
15.3 0.8 0
15.6 0.8 0
15.9 0.8 0
16.2 0.8 0
16.5 0.8 0
16.8 0.8 0
17.1 0.8 0
17.4 0.8 0
17.7 0.8 0
18 0.8 0
18.3 0.8 0
18.6 0.8 0
18.9 0.8 0
19.2 0.8 0
19.5 0.8 0
19.8 0.8 0
20.1 0.8 0
20.4 0.8 0
20.7 0.8 0
21 0.8 0
21.3 0.8 0
21.6 0.8 0
21.9 0.8 0
22.2 0.8 0
22.5 0.8 0
22.8 0.8 0
23.1 0.8 0
23.4 0.8 0
23.7 0.8 0
24 0.8 0
24.3 0.8 0
24.6 0.8 0
24.9 0.8 0
25.2 0.8 0
25.5 0.8 0
25.8 0.8 0
26.1 0.8 0
26.4 0.8 0
26.7 0.8 0
27 0.8 0
27.3 0.8 0
27.6 0.8 0
27.9 0.8 0
28.2 0.8 0
28.5 0.8 0
28.8 0.8 0
29.1 0.8 0
29.4 0.8 0
29.7 0.8 0
30 0.8 0
30.3 0.8 0
30.6 0.8 0
0 0.9 0
0.3 0.9 0
0.6 0.9 0
0.9 0.9 0
1.2 0.9 0
1.5 0.9 0
1.8 0.9 0
2.1 0.9 0
2.4 0.9 0
2.7 0.9 0
3 0.9 0
3.3 0.9 0
3.6 0.9 0
3.9 0.9 0
4.2 0.9 0
4.5 0.9 0
4.8 0.9 0
5.1 0.9 0
5.4 0.9 0
5.7 0.9 0
6 0.9 0
6.3 0.9 0
6.6 0.9 0
6.9 0.9 0
7.2 0.9 0
7.5 0.9 0
7.8 0.9 0
8.1 0.9 0
8.4 0.9 0
8.7 0.9 0
9 0.9 0
9.3 0.9 0
9.6 0.9 0
9.9 0.9 0
10.2 0.9 0
10.5 0.9 0
10.8 0.9 0
11.1 0.9 0
11.4 0.9 0
11.7 0.9 0
12 0.9 0
12.3 0.9 0
12.6 0.9 0
12.9 0.9 0
13.2 0.9 0
13.5 0.9 0
13.8 0.9 0
14.1 0.9 0
14.4 0.9 0
14.7 0.9 0
15 0.9 0
15.3 0.9 0
15.6 0.9 0
15.9 0.9 0
16.2 0.9 0
16.5 0.9 0
16.8 0.9 0
17.1 0.9 0
17.4 0.9 0
17.7 0.9 0
18 0.9 0
18.3 0.9 0
18.6 0.9 0
18.9 0.9 0
19.2 0.9 0
19.5 0.9 0
19.8 0.9 0
20.1 0.9 0
20.4 0.9 0
20.7 0.9 0
21 0.9 0
21.3 0.9 0
21.6 0.9 0
21.9 0.9 0
22.2 0.9 0
22.5 0.9 0
22.8 0.9 0
23.1 0.9 0
23.4 0.9 0
23.7 0.9 0
24 0.9 0
24.3 0.9 0
24.6 0.9 0
24.9 0.9 0
25.2 0.9 0
25.5 0.9 0
25.8 0.9 0
26.1 0.9 0
26.4 0.9 0
26.7 0.9 0
27 0.9 0
27.3 0.9 0
27.6 0.9 0
27.9 0.9 0
28.2 0.9 0
28.5 0.9 0
28.8 0.9 0
29.1 0.9 0
29.4 0.9 0
29.7 0.9 0
30 0.9 0
30.3 0.9 0
30.6 0.9 0
0 1 0
0.3 1 0
0.6 1 0
0.9 1 0
1.2 1 0
1.5 1 0
1.8 1 0
2.1 1 0
2.4 1 0
2.7 1 0
3 1 0
3.3 1 0
3.6 1 0
3.9 1 0
4.2 1 0
4.5 1 0
4.8 1 0
5.1 1 0
5.4 1 0
5.7 1 0
6 1 0
6.3 1 0
6.6 1 0
6.9 1 0
7.2 1 0
7.5 1 0
7.8 1 0
8.1 1 0
8.4 1 0
8.7 1 0
9 1 0
9.3 1 0
9.6 1 0
9.9 1 0
10.2 1 0
10.5 1 0
10.8 1 0
11.1 1 0
11.4 1 0
11.7 1 0
12 1 0
12.3 1 0
12.6 1 0
12.9 1 0
13.2 1 0
13.5 1 0
13.8 1 0
14.1 1 0
14.4 1 0
14.7 1 0
15 1 0
15.3 1 0
15.6 1 0
15.9 1 0
16.2 1 0
16.5 1 0
16.8 1 0
17.1 1 0
17.4 1 0
17.7 1 0
18 1 0
18.3 1 0
18.6 1 0
18.9 1 0
19.2 1 0
19.5 1 0
19.8 1 0
20.1 1 0
20.4 1 0
20.7 1 0
21 1 0
21.3 1 0
21.6 1 0
21.9 1 0
22.2 1 0
22.5 1 0
22.8 1 0
23.1 1 0
23.4 1 0
23.7 1 0
24 1 0
24.3 1 0
24.6 1 0
24.9 1 0
25.2 1 0
25.5 1 0
25.8 1 0
26.1 1 0
26.4 1 0
26.7 1 0
27 1 0
27.3 1 0
27.6 1 0
27.9 1 0
28.2 1 0
28.5 1 0
28.8 1 0
29.1 1 0
29.4 1 0
29.7 1 0
30 1 0
30.3 1 0
30.6 1 0
0 1.1 0
0.3 1.1 0
0.6 1.1 0
0.9 1.1 0
1.2 1.1 0
1.5 1.1 0
1.8 1.1 0
2.1 1.1 0
2.4 1.1 0
2.7 1.1 0
3 1.1 0
3.3 1.1 0
3.6 1.1 0
3.9 1.1 0
4.2 1.1 0
4.5 1.1 0
4.8 1.1 0
5.1 1.1 0
5.4 1.1 0
5.7 1.1 0
6 1.1 0
6.3 1.1 0
6.6 1.1 0
6.9 1.1 0
7.2 1.1 0
7.5 1.1 0
7.8 1.1 0
8.1 1.1 0
8.4 1.1 0
8.7 1.1 0
9 1.1 0
9.3 1.1 0
9.6 1.1 0
9.9 1.1 0
10.2 1.1 0
10.5 1.1 0
10.8 1.1 0
11.1 1.1 0
11.4 1.1 0
11.7 1.1 0
12 1.1 0
12.3 1.1 0
12.6 1.1 0
12.9 1.1 0
13.2 1.1 0
13.5 1.1 0
13.8 1.1 0
14.1 1.1 0
14.4 1.1 0
14.7 1.1 0
15 1.1 0
15.3 1.1 0
15.6 1.1 0
15.9 1.1 0
16.2 1.1 0
16.5 1.1 0
16.8 1.1 0
17.1 1.1 0
17.4 1.1 0
17.7 1.1 0
18 1.1 0
18.3 1.1 0
18.6 1.1 0
18.9 1.1 0
19.2 1.1 0
19.5 1.1 0
19.8 1.1 0
20.1 1.1 0
20.4 1.1 0
20.7 1.1 0
21 1.1 0
21.3 1.1 0
21.6 1.1 0
21.9 1.1 0
22.2 1.1 0
22.5 1.1 0
22.8 1.1 0
23.1 1.1 0
23.4 1.1 0
23.7 1.1 0
24 1.1 0
24.3 1.1 0
24.6 1.1 0
24.9 1.1 0
25.2 1.1 0
25.5 1.1 0
25.8 1.1 0
26.1 1.1 0
26.4 1.1 0
26.7 1.1 0
27 1.1 0
27.3 1.1 0
27.6 1.1 0
27.9 1.1 0
28.2 1.1 0
28.5 1.1 0
28.8 1.1 0
29.1 1.1 0
29.4 1.1 0
29.7 1.1 0
30 1.1 0
30.3 1.1 0
30.6 1.1 0
0 1.2 0
0.3 1.2 0
0.6 1.2 0
0.9 1.2 0
1.2 1.2 0
1.5 1.2 0
1.8 1.2 0
2.1 1.2 0
2.4 1.2 0
2.7 1.2 0
3 1.2 0
3.3 1.2 0
3.6 1.2 0
3.9 1.2 0
4.2 1.2 0
4.5 1.2 0
4.8 1.2 0
5.1 1.2 0
5.4 1.2 0
5.7 1.2 0
6 1.2 0
6.3 1.2 0
6.6 1.2 0
6.9 1.2 0
7.2 1.2 0
7.5 1.2 0
7.8 1.2 0
8.1 1.2 0
8.4 1.2 0
8.7 1.2 0
9 1.2 0
9.3 1.2 0
9.6 1.2 0
9.9 1.2 0
10.2 1.2 0
10.5 1.2 0
10.8 1.2 0
11.1 1.2 0
11.4 1.2 0
11.7 1.2 0
12 1.2 0
12.3 1.2 0
12.6 1.2 0
12.9 1.2 0
13.2 1.2 0
13.5 1.2 0
13.8 1.2 0
14.1 1.2 0
14.4 1.2 0
14.7 1.2 0
15 1.2 0
15.3 1.2 0
15.6 1.2 0
15.9 1.2 0
16.2 1.2 0
16.5 1.2 0
16.8 1.2 0
17.1 1.2 0
17.4 1.2 0
17.7 1.2 0
18 1.2 0
18.3 1.2 0
18.6 1.2 0
18.9 1.2 0
19.2 1.2 0
19.5 1.2 0
19.8 1.2 0
20.1 1.2 0
20.4 1.2 0
20.7 1.2 0
21 1.2 0
21.3 1.2 0
21.6 1.2 0
21.9 1.2 0
22.2 1.2 0
22.5 1.2 0
22.8 1.2 0
23.1 1.2 0
23.4 1.2 0
23.7 1.2 0
24 1.2 0
24.3 1.2 0
24.6 1.2 0
24.9 1.2 0
25.2 1.2 0
25.5 1.2 0
25.8 1.2 0
26.1 1.2 0
26.4 1.2 0
26.7 1.2 0
27 1.2 0
27.3 1.2 0
27.6 1.2 0
27.9 1.2 0
28.2 1.2 0
28.5 1.2 0
28.8 1.2 0
29.1 1.2 0
29.4 1.2 0
29.7 1.2 0
30 1.2 0
30.3 1.2 0
30.6 1.2 0

POINT_DATA 1339

SCALARS pressure double
LOOKUP_TABLE pressure
1.17173
1.17173
1.10689
1.06265
1.02283
0.986257
0.953202
0.923673
0.897319
0.873611
0.852008
0.832044
0.813351
0.795653
0.778746
0.762485
0.746767
0.731513
0.71666
0.702164
0.68799
0.674106
0.660485
0.647105
0.63395
0.621
0.608241
0.595658
0.58324
0.570976
0.558855
0.546869
0.535008
0.523264
0.511631
0.500102
0.488671
0.477331
0.466078
0.454906
0.443811
0.432788
0.421834
0.410944
0.400115
0.389343
0.378626
0.367961
0.357343
0.346772
0.336244
0.325758
0.31531
0.304899
0.294523
0.284179
0.273867
0.263585
0.25333
0.243102
0.232899
0.222719
0.212562
0.202427
0.192311
0.182214
0.172136
0.162074
0.152029
0.141999
0.131984
0.121982
0.111994
0.102017
0.0920527
0.0820991
0.072156
0.0622228
0.052299
0.0423841
0.0324776
0.0225791
0.0126881
0.00280432
-0.00707273
-0.0169434
-0.0268079
-0.0366667
-0.0465201
-0.0563684
-0.0662117
-0.0760504
-0.0858848
-0.0957149
-0.105541
-0.115364
-0.125183
-0.134998
-0.14481
-0.154619
-0.164427
-0.174231
0.174231
1.17173
1.17173
1.10689
1.06265
1.02283
0.986257
0.953202
0.923673
0.897319
0.873611
0.852008
0.832044
0.813351
0.795653
0.778746
0.762485
0.746767
0.731513
0.71666
0.702164
0.68799
0.674106
0.660485
0.647105
0.63395
0.621
0.608241
0.595658
0.58324
0.570976
0.558855
0.546869
0.535008
0.523264
0.511631
0.500102
0.488671
0.477331
0.466078
0.454906
0.443811
0.432788
0.421834
0.410944
0.400115
0.389343
0.378626
0.367961
0.357343
0.346772
0.336244
0.325758
0.31531
0.304899
0.294523
0.284179
0.273867
0.263585
0.25333
0.243102
0.232899
0.222719
0.212562
0.202427
0.192311
0.182214
0.172136
0.162074
0.152029
0.141999
0.131984
0.121982
0.111994
0.102017
0.0920527
0.0820991
0.072156
0.0622228
0.052299
0.0423841
0.0324776
0.0225791
0.0126881
0.00280432
-0.00707273
-0.0169434
-0.0268079
-0.0366667
-0.0465201
-0.0563684
-0.0662117
-0.0760504
-0.0858848
-0.0957149
-0.105541
-0.115364
-0.125183
-0.134998
-0.14481
-0.154619
-0.164427
-0.174231
0.174231
1.15079
1.15079
1.1049
1.06288
1.02354
0.987052
0.953945
0.924305
0.897827
0.874006
0.852311
0.832278
0.813534
0.795798
0.778863
0.762582
0.74685
0.731584
0.716722
0.702219
0.68804
0.674151
0.660525
0.647142
0.633983
0.621031
0.608269
0.595684
0.583264
0.570998
0.558876
0.546888
0.535026
0.523281
0.511647
0.500117
0.488684
0.477344
0.46609
0.454917
0.443821
0.432798
0.421843
0.410953
0.400123
0.389351
0.378634
0.367967
0.35735
0.346778
0.33625
0.325763
0.315315
0.304904
0.294527
0.284184
0.273871
0.263589
0.253334
0.243105
0.232902
0.222722
0.212565
0.202429
0.192314
0.182217
0.172138
0.162077
0.152031
0.142001
0.131986
0.121984
0.111995
0.102019
0.0920542
0.0821005
0.0721573
0.0622241
0.0523002
0.0423852
0.0324787
0.0225801
0.0126891
0.00280523
-0.00707187
-0.0169426
-0.0268072
-0.036666
-0.0465194
-0.0563677
-0.0662111
-0.0760498
-0.0858842
-0.0957144
-0.105541
-0.115363
-0.125182
-0.134998
-0.14481
-0.154619
-0.164426
-0.17423
0.17423
1.13581
1.13581
1.10202
1.06311
1.02465
0.988376
0.955206
0.925384
0.898688
0.874664
0.852803
0.832643
0.813805
0.796003
0.779021
0.762708
0.746952
0.731668
0.716793
0.70228
0.688093
0.674197
0.660566
0.647179
0.634017
0.621061
0.608296
0.595709
0.583287
0.571019
0.558895
0.546905
0.535042
0.523296
0.511661
0.50013
0.488696
0.477355
0.4661
0.454927
0.44383
0.432806
0.421851
0.41096
0.40013
0.389358
0.37864
0.367973
0.357355
0.346783
0.336255
0.325768
0.315319
0.304908
0.294531
0.284187
0.273875
0.263592
0.253337
0.243108
0.232905
0.222725
0.212567
0.202431
0.192316
0.182219
0.17214
0.162078
0.152033
0.142003
0.131987
0.121985
0.111997
0.10202
0.0920553
0.0821016
0.0721584
0.062225
0.0523011
0.0423861
0.0324795
0.0225809
0.0126898
0.00280593
-0.00707121
-0.0169419
-0.0268066
-0.0366655
-0.0465189
-0.0563672
-0.0662106
-0.0760494
-0.0858838
-0.095714
-0.10554
-0.115363
-0.125182
-0.134997
-0.14481
-0.154618
-0.164425
-0.174224
0.174224
1.12624
1.12624
1.09953
1.06322
1.0256
0.98957
0.956383
0.926421
0.899541
0.875337
0.853321
0.833038
0.814108
0.796237
0.779206
0.762857
0.747075
0.731771
0.71688
0.702356
0.688159
0.674255
0.660618
0.647226
0.634058
0.621098
0.60833
0.595739
0.583315
0.571044
0.558918
0.546927
0.535061
0.523314
0.511677
0.500145
0.48871
0.477368
0.466112
0.454938
0.443841
0.432816
0.42186
0.410968
0.400138
0.389365
0.378646
0.36798
0.357361
0.346789
0.33626
0.325773
0.315324
0.304912
0.294535
0.284191
0.273878
0.263595
0.25334
0.243111
0.232907
0.222728
0.21257
0.202434
0.192318
0.182221
0.172142
0.16208
0.152035
0.142005
0.131989
0.121987
0.111998
0.102021
0.0920566
0.0821028
0.0721595
0.0622262
0.0523022
0.0423871
0.0324804
0.0225818
0.0126907
0.00280672
-0.00707045
-0.0169412
-0.0268059
-0.0366648
-0.0465183
-0.0563666
-0.0662101
-0.0760489
-0.0858833
-0.0957136
-0.10554
-0.115362
-0.125181
-0.134997
-0.144809
-0.154618
-0.164422
-0.174212
0.174212
1.12092
1.12092
1.0979
1.06324
1.02619
0.990336
0.957153
0.927111
0.900119
0.875801
0.853686
0.833322
0.81433
0.796414
0.779349
0.762976
0.747174
0.731855
0.716954
0.702421
0.688216
0.674306
0.660663
0.647267
0.634095
0.621132
0.60836
0.595767
0.58334
0.571068
0.55894
0.546946
0.535079
0.523331
0.511693
0.500159
0.488724
0.47738
0.466124
0.454949
0.443851
0.432825
0.421869
0.410976
0.400145
0.389372
0.378653
0.367986
0.357367
0.346795
0.336265
0.325777
0.315329
0.304916
0.294539
0.284195
0.273882
0.263599
0.253343
0.243114
0.23291
0.22273
0.212573
0.202436
0.19232
0.182223
0.172144
0.162082
0.152037
0.142006
0.13199
0.121988
0.111999
0.102023
0.0920579
0.0821041
0.0721607
0.0622272
0.0523032
0.0423881
0.0324814
0.0225826
0.0126915
0.0028075
-0.00706972
-0.0169405
-0.0268052
-0.0366642
-0.0465177
-0.0563661
-0.0662095
-0.0760484
-0.0858828
-0.0957131
-0.105539
-0.115362
-0.125181
-0.134997
-0.144809
-0.154617
-0.164419
-0.174199
0.174199
1.11922
1.11922
1.09736
1.06325
1.0264
0.990611
0.957427
0.927356
0.900325
0.875968
0.853818
0.833426
0.814413
0.79648
0.779404
0.763021
0.747212
0.731888
0.716983
0.702447
0.688239
0.674326
0.660682
0.647284
0.634111
0.621146
0.608373
0.595779
0.583351
0.571078
0.558949
0.546955
0.535087
0.523338
0.511699
0.500165
0.488729
0.477386
0.466129
0.454953
0.443855
0.432829
0.421872
0.41098
0.400149
0.389375
0.378656
0.367989
0.35737
0.346797
0.336268
0.32578
0.315331
0.304918
0.294541
0.284197
0.273884
0.2636
0.253345
0.243115
0.232912
0.222731
0.212574
0.202437
0.192321
0.182224
0.172145
0.162083
0.152037
0.142007
0.131991
0.121989
0.112
0.102023
0.0920585
0.0821046
0.0721612
0.0622277
0.0523036
0.0423885
0.0324818
0.022583
0.0126918
0.00280784
-0.0070694
-0.0169402
-0.0268049
-0.0366639
-0.0465174
-0.0563658
-0.0662093
-0.0760482
-0.0858826
-0.0957129
-0.105539
-0.115362
-0.125181
-0.134996
-0.144809
-0.154616
-0.164418
-0.174194
0.174194
1.12092
1.12092
1.0979
1.06324
1.02619
0.990337
0.957153
0.92711
0.900119
0.875801
0.853686
0.833322
0.81433
0.796414
0.779349
0.762976
0.747173
0.731855
0.716954
0.702421
0.688216
0.674306
0.660664
0.647267
0.634095
0.621132
0.60836
0.595767
0.58334
0.571068
0.55894
0.546946
0.535079
0.52333
0.511693
0.500159
0.488724
0.47738
0.466124
0.454949
0.443851
0.432825
0.421869
0.410976
0.400145
0.389372
0.378653
0.367986
0.357367
0.346795
0.336265
0.325777
0.315328
0.304916
0.294539
0.284195
0.273882
0.263599
0.253343
0.243114
0.23291
0.22273
0.212573
0.202436
0.19232
0.182223
0.172144
0.162082
0.152037
0.142006
0.13199
0.121988
0.111999
0.102023
0.0920579
0.0821041
0.0721607
0.0622272
0.0523032
0.0423881
0.0324814
0.0225826
0.0126915
0.00280749
-0.00706972
-0.0169405
-0.0268052
-0.0366642
-0.0465177
-0.0563661
-0.0662095
-0.0760484
-0.0858828
-0.0957131
-0.105539
-0.115362
-0.125181
-0.134997
-0.144809
-0.154617
-0.164419
-0.174199
0.174199
1.12624
1.12624
1.09953
1.06322
1.0256
0.98957
0.956384
0.926421
0.899541
0.875337
0.853321
0.833038
0.814108
0.796237
0.779207
0.762858
0.747074
0.73177
0.716881
0.702357
0.688159
0.674255
0.660618
0.647226
0.634058
0.621098
0.60833
0.595739
0.583315
0.571044
0.558918
0.546927
0.535061
0.523314
0.511677
0.500145
0.48871
0.477368
0.466112
0.454938
0.443841
0.432816
0.42186
0.410968
0.400138
0.389365
0.378647
0.36798
0.357361
0.346789
0.33626
0.325773
0.315324
0.304912
0.294535
0.284191
0.273878
0.263595
0.25334
0.243111
0.232907
0.222728
0.21257
0.202434
0.192318
0.182221
0.172142
0.16208
0.152035
0.142005
0.131989
0.121987
0.111998
0.102021
0.0920566
0.0821028
0.0721595
0.0622261
0.0523022
0.0423871
0.0324804
0.0225818
0.0126907
0.00280672
-0.00707045
-0.0169412
-0.0268059
-0.0366648
-0.0465183
-0.0563666
-0.0662101
-0.0760489
-0.0858833
-0.0957136
-0.10554
-0.115362
-0.125181
-0.134997
-0.144809
-0.154618
-0.164422
-0.174212
0.174212
1.13581
1.13581
1.10202
1.06311
1.02465
0.988376
0.955207
0.925384
0.898688
0.874665
0.852804
0.832643
0.813805
0.796002
0.779021
0.762708
0.746951
0.731667
0.716793
0.702281
0.688093
0.674197
0.660566
0.64718
0.634017
0.621061
0.608296
0.595709
0.583287
0.571019
0.558895
0.546905
0.535042
0.523296
0.511661
0.50013
0.488696
0.477355
0.4661
0.454927
0.44383
0.432806
0.421851
0.41096
0.40013
0.389358
0.37864
0.367973
0.357355
0.346783
0.336255
0.325768
0.315319
0.304908
0.294531
0.284187
0.273875
0.263592
0.253337
0.243108
0.232905
0.222725
0.212567
0.202431
0.192316
0.182219
0.17214
0.162078
0.152033
0.142003
0.131987
0.121985
0.111997
0.10202
0.0920553
0.0821016
0.0721584
0.062225
0.0523011
0.0423861
0.0324795
0.0225809
0.0126898
0.00280592
-0.00707121
-0.0169419
-0.0268066
-0.0366655
-0.0465189
-0.0563672
-0.0662106
-0.0760494
-0.0858838
-0.095714
-0.10554
-0.115363
-0.125182
-0.134997
-0.14481
-0.154618
-0.164425
-0.174224
0.174224
1.15079
1.15079
1.1049
1.06288
1.02353
0.987051
0.953945
0.924306
0.897827
0.874005
0.852311
0.832278
0.813534
0.795797
0.778863
0.762583
0.74685
0.731583
0.716722
0.70222
0.68804
0.67415
0.660525
0.647143
0.633984
0.621031
0.608269
0.595684
0.583264
0.570998
0.558876
0.546888
0.535026
0.523281
0.511647
0.500117
0.488684
0.477344
0.46609
0.454917
0.443821
0.432798
0.421843
0.410953
0.400123
0.389351
0.378634
0.367967
0.35735
0.346778
0.33625
0.325763
0.315315
0.304904
0.294527
0.284184
0.273871
0.263589
0.253334
0.243105
0.232902
0.222722
0.212565
0.202429
0.192314
0.182217
0.172138
0.162077
0.152031
0.142001
0.131986
0.121984
0.111995
0.102019
0.0920542
0.0821005
0.0721573
0.0622241
0.0523002
0.0423852
0.0324787
0.0225801
0.0126891
0.00280522
-0.00707187
-0.0169426
-0.0268072
-0.036666
-0.0465194
-0.0563677
-0.0662111
-0.0760498
-0.0858842
-0.0957144
-0.105541
-0.115363
-0.125182
-0.134998
-0.14481
-0.154619
-0.164426
-0.17423
0.17423
1.17173
1.17173
1.10689
1.06265
1.02283
0.986255
0.953202
0.923675
0.89732
0.87361
0.852008
0.832045
0.813352
0.795653
0.778746
0.762486
0.746768
0.731512
0.716659
0.702165
0.68799
0.674106
0.660485
0.647106
0.63395
0.621
0.608241
0.595658
0.58324
0.570976
0.558855
0.546869
0.535008
0.523264
0.511631
0.500102
0.488671
0.477331
0.466078
0.454906
0.443811
0.432788
0.421834
0.410944
0.400115
0.389343
0.378626
0.367961
0.357343
0.346772
0.336244
0.325758
0.31531
0.304899
0.294523
0.284179
0.273867
0.263585
0.25333
0.243102
0.232899
0.222719
0.212562
0.202427
0.192311
0.182214
0.172136
0.162074
0.152029
0.141999
0.131984
0.121982
0.111994
0.102017
0.0920527
0.0820991
0.072156
0.0622228
0.052299
0.0423841
0.0324776
0.0225791
0.0126881
0.00280431
-0.00707273
-0.0169434
-0.0268079
-0.0366667
-0.0465201
-0.0563684
-0.0662117
-0.0760504
-0.0858848
-0.0957149
-0.105541
-0.115364
-0.125183
-0.134998
-0.14481
-0.154619
-0.164427
-0.174231
0.174231
1.17173
1.17173
1.10689
1.06265
1.02283
0.986255
0.953202
0.923675
0.89732
0.87361
0.852008
0.832045
0.813352
0.795653
0.778746
0.762486
0.746768
0.731512
0.716659
0.702165
0.68799
0.674106
0.660485
0.647106
0.63395
0.621
0.608241
0.595658
0.58324
0.570976
0.558855
0.546869
0.535008
0.523264
0.511631
0.500102
0.488671
0.477331
0.466078
0.454906
0.443811
0.432788
0.421834
0.410944
0.400115
0.389343
0.378626
0.367961
0.357343
0.346772
0.336244
0.325758
0.31531
0.304899
0.294523
0.284179
0.273867
0.263585
0.25333
0.243102
0.232899
0.222719
0.212562
0.202427
0.192311
0.182214
0.172136
0.162074
0.152029
0.141999
0.131984
0.121982
0.111994
0.102017
0.0920527
0.0820991
0.072156
0.0622228
0.052299
0.0423841
0.0324776
0.0225791
0.0126881
0.00280431
-0.00707273
-0.0169434
-0.0268079
-0.0366667
-0.0465201
-0.0563684
-0.0662117
-0.0760504
-0.0858848
-0.0957149
-0.105541
-0.115364
-0.125183
-0.134998
-0.14481
-0.154619
-0.164427
-0.174231
0.174231
SCALARS phi double
LOOKUP_TABLE phi
1
1
1
1
0.999999
0.999994
0.999983
0.999957
0.99991
0.99983
0.999706
0.999526
0.999278
0.998952
0.998537
0.998024
0.997407
0.996679
0.995834
0.99487
0.993784
0.992574
0.991242
0.989787
0.988211
0.986517
0.984708
0.982788
0.980761
0.978631
0.976403
0.97408
0.971665
0.969156
0.966551
0.963839
0.961006
0.95803
0.954885
0.951539
0.947956
0.944096
0.93992
0.935386
0.930456
0.925094
0.919267
0.912947
0.906113
0.898747
0.890839
0.882384
0.873383
0.863841
0.853772
0.843189
0.832114
0.82057
0.808582
0.79618
0.783393
0.770254
0.756794
0.743048
0.729047
0.714826
0.700416
0.685848
0.671154
0.656363
0.641503
0.626601
0.611683
0.596773
0.581893
0.567066
0.552309
0.537642
0.523082
0.508644
0.494341
0.480188
0.466195
0.452373
0.438731
0.425277
0.412019
0.398963
0.386114
0.373476
0.361054
0.34885
0.336868
0.325107
0.313571
0.302258
0.291176
0.280297
0.269718
0.259099
0.249628
0.237052
0.237052
1
1
1
1
0.999999
0.999994
0.999983
0.999957
0.99991
0.99983
0.999706
0.999526
0.999278
0.998952
0.998537
0.998024
0.997407
0.996679
0.995834
0.99487
0.993784
0.992574
0.991242
0.989787
0.988211
0.986517
0.984708
0.982788
0.980761
0.978631
0.976403
0.97408
0.971665
0.969156
0.966551
0.963839
0.961006
0.95803
0.954885
0.951539
0.947956
0.944096
0.93992
0.935386
0.930456
0.925094
0.919267
0.912947
0.906113
0.898747
0.890839
0.882384
0.873383
0.863841
0.853772
0.843189
0.832114
0.82057
0.808582
0.79618
0.783393
0.770254
0.756794
0.743048
0.729047
0.714826
0.700416
0.685848
0.671154
0.656363
0.641503
0.626601
0.611683
0.596773
0.581893
0.567066
0.552309
0.537642
0.523082
0.508644
0.494341
0.480188
0.466195
0.452373
0.438731
0.425277
0.412019
0.398963
0.386114
0.373476
0.361054
0.34885
0.336868
0.325107
0.313571
0.302258
0.291176
0.280297
0.269718
0.259099
0.249628
0.237052
0.237052
1
1
1
0.999996
0.999983
0.999954
0.999898
0.999804
0.999658
0.999447
0.999157
0.998778
0.9983
0.997714
0.997014
0.996196
0.995256
0.994192
0.993003
0.991689
0.990252
0.988694
0.987017
0.985224
0.98332
0.981308
0.979192
0.976979
0.974672
0.972276
0.969796
0.967238
0.964606
0.961903
0.959131
0.956292
0.953381
0.950394
0.947321
0.944148
0.940859
0.937432
0.933842
0.930064
0.926067
0.921824
0.917303
0.912477
0.907318
0.901803
0.895908
0.889616
0.882911
0.875784
0.868228
0.86024
0.85182
0.842974
0.83371
0.824039
0.813975
0.803535
0.792737
0.781602
0.770151
0.758407
0.746393
0.734134
0.721654
0.708978
0.696129
0.683132
0.67001
0.656785
0.64348
0.630116
0.616713
0.603291
0.589868
0.576461
0.563088
0.549763
0.536501
0.523316
0.510219
0.497222
0.484336
0.471571
0.458935
0.446436
0.434081
0.421878
0.40983
0.397944
0.386224
0.37467
0.363299
0.352071
0.341125
0.330006
0.32025
0.306692
0.306692
0.999997
1
0.99998
0.999896
0.999724
0.999434
0.998999
0.998397
0.997613
0.996636
0.995464
0.994099
0.992547
0.990816
0.988916
0.986859
0.984656
0.982317
0.979854
0.977278
0.974599
0.971826
0.968969
0.966037
0.963037
0.959976
0.956863
0.953702
0.9505
0.947262
0.943993
0.940699
0.937382
0.934046
0.930695
0.927332
0.923957
0.920571
0.917173
0.913761
0.910329
0.906872
0.90338
0.899842
0.896246
0.892577
0.888818
0.884952
0.88096
0.876823
0.872522
0.868037
0.863351
0.858447
0.853309
0.847922
0.842275
0.836357
0.83016
0.823678
0.816907
0.809846
0.802494
0.794855
0.786932
0.778731
0.770261
0.761528
0.752545
0.743322
0.733871
0.724206
0.714339
0.704285
0.694058
0.683673
0.673144
0.662486
0.651714
0.640842
0.629884
0.618853
0.607764
0.59663
0.585462
0.574274
0.563075
0.551879
0.540694
0.529532
0.518401
0.50731
0.496268
0.485281
0.474359
0.463503
0.452735
0.442011
0.431496
0.420674
0.411235
0.39774
0.39774
0.999999
1
0.99943
0.998224
0.996402
0.994008
0.991093
0.987716
0.983939
0.979828
0.975446
0.970853
0.966102
0.961239
0.9563
0.951318
0.946317
0.94132
0.936342
0.931396
0.926494
0.921643
0.91685
0.91212
0.907457
0.902862
0.898338
0.893885
0.889505
0.885196
0.880959