# vtk DataFile Version 3.0
FlowField
ASCII
DATASET STRUCTURED_GRID
DIMENSIONS 103 13 1 
POINTS 1339 double
0 0 0
0.3 0 0
0.6 0 0
0.9 0 0
1.2 0 0
1.5 0 0
1.8 0 0
2.1 0 0
2.4 0 0
2.7 0 0
3 0 0
3.3 0 0
3.6 0 0
3.9 0 0
4.2 0 0
4.5 0 0
4.8 0 0
5.1 0 0
5.4 0 0
5.7 0 0
6 0 0
6.3 0 0
6.6 0 0
6.9 0 0
7.2 0 0
7.5 0 0
7.8 0 0
8.1 0 0
8.4 0 0
8.7 0 0
9 0 0
9.3 0 0
9.6 0 0
9.9 0 0
10.2 0 0
10.5 0 0
10.8 0 0
11.1 0 0
11.4 0 0
11.7 0 0
12 0 0
12.3 0 0
12.6 0 0
12.9 0 0
13.2 0 0
13.5 0 0
13.8 0 0
14.1 0 0
14.4 0 0
14.7 0 0
15 0 0
15.3 0 0
15.6 0 0
15.9 0 0
16.2 0 0
16.5 0 0
16.8 0 0
17.1 0 0
17.4 0 0
17.7 0 0
18 0 0
18.3 0 0
18.6 0 0
18.9 0 0
19.2 0 0
19.5 0 0
19.8 0 0
20.1 0 0
20.4 0 0
20.7 0 0
21 0 0
21.3 0 0
21.6 0 0
21.9 0 0
22.2 0 0
22.5 0 0
22.8 0 0
23.1 0 0
23.4 0 0
23.7 0 0
24 0 0
24.3 0 0
24.6 0 0
24.9 0 0
25.2 0 0
25.5 0 0
25.8 0 0
26.1 0 0
26.4 0 0
26.7 0 0
27 0 0
27.3 0 0
27.6 0 0
27.9 0 0
28.2 0 0
28.5 0 0
28.8 0 0
29.1 0 0
29.4 0 0
29.7 0 0
30 0 0
30.3 0 0
30.6 0 0
0 0.1 0
0.3 0.1 0
0.6 0.1 0
0.9 0.1 0
1.2 0.1 0
1.5 0.1 0
1.8 0.1 0
2.1 0.1 0
2.4 0.1 0
2.7 0.1 0
3 0.1 0
3.3 0.1 0
3.6 0.1 0
3.9 0.1 0
4.2 0.1 0
4.5 0.1 0
4.8 0.1 0
5.1 0.1 0
5.4 0.1 0
5.7 0.1 0
6 0.1 0
6.3 0.1 0
6.6 0.1 0
6.9 0.1 0
7.2 0.1 0
7.5 0.1 0
7.8 0.1 0
8.1 0.1 0
8.4 0.1 0
8.7 0.1 0
9 0.1 0
9.3 0.1 0
9.6 0.1 0
9.9 0.1 0
10.2 0.1 0
10.5 0.1 0
10.8 0.1 0
11.1 0.1 0
11.4 0.1 0
11.7 0.1 0
12 0.1 0
12.3 0.1 0
12.6 0.1 0
12.9 0.1 0
13.2 0.1 0
13.5 0.1 0
13.8 0.1 0
14.1 0.1 0
14.4 0.1 0
14.7 0.1 0
15 0.1 0
15.3 0.1 0
15.6 0.1 0
15.9 0.1 0
16.2 0.1 0
16.5 0.1 0
16.8 0.1 0
17.1 0.1 0
17.4 0.1 0
17.7 0.1 0
18 0.1 0
18.3 0.1 0
18.6 0.1 0
18.9 0.1 0
19.2 0.1 0
19.5 0.1 0
19.8 0.1 0
20.1 0.1 0
20.4 0.1 0
20.7 0.1 0
21 0.1 0
21.3 0.1 0
21.6 0.1 0
21.9 0.1 0
22.2 0.1 0
22.5 0.1 0
22.8 0.1 0
23.1 0.1 0
23.4 0.1 0
23.7 0.1 0
24 0.1 0
24.3 0.1 0
24.6 0.1 0
24.9 0.1 0
25.2 0.1 0
25.5 0.1 0
25.8 0.1 0
26.1 0.1 0
26.4 0.1 0
26.7 0.1 0
27 0.1 0
27.3 0.1 0
27.6 0.1 0
27.9 0.1 0
28.2 0.1 0
28.5 0.1 0
28.8 0.1 0
29.1 0.1 0
29.4 0.1 0
29.7 0.1 0
30 0.1 0
30.3 0.1 0
30.6 0.1 0
0 0.2 0
0.3 0.2 0
0.6 0.2 0
0.9 0.2 0
1.2 0.2 0
1.5 0.2 0
1.8 0.2 0
2.1 0.2 0
2.4 0.2 0
2.7 0.2 0
3 0.2 0
3.3 0.2 0
3.6 0.2 0
3.9 0.2 0
4.2 0.2 0
4.5 0.2 0
4.8 0.2 0
5.1 0.2 0
5.4 0.2 0
5.7 0.2 0
6 0.2 0
6.3 0.2 0
6.6 0.2 0
6.9 0.2 0
7.2 0.2 0
7.5 0.2 0
7.8 0.2 0
8.1 0.2 0
8.4 0.2 0
8.7 0.2 0
9 0.2 0
9.3 0.2 0
9.6 0.2 0
9.9 0.2 0
10.2 0.2 0
10.5 0.2 0
10.8 0.2 0
11.1 0.2 0
11.4 0.2 0
11.7 0.2 0
12 0.2 0
12.3 0.2 0
12.6 0.2 0
12.9 0.2 0
13.2 0.2 0
13.5 0.2 0
13.8 0.2 0
14.1 0.2 0
14.4 0.2 0
14.7 0.2 0
15 0.2 0
15.3 0.2 0
15.6 0.2 0
15.9 0.2 0
16.2 0.2 0
16.5 0.2 0
16.8 0.2 0
17.1 0.2 0
17.4 0.2 0
17.7 0.2 0
18 0.2 0
18.3 0.2 0
18.6 0.2 0
18.9 0.2 0
19.2 0.2 0
19.5 0.2 0
19.8 0.2 0
20.1 0.2 0
20.4 0.2 0
20.7 0.2 0
21 0.2 0
21.3 0.2 0
21.6 0.2 0
21.9 0.2 0
22.2 0.2 0
22.5 0.2 0
22.8 0.2 0
23.1 0.2 0
23.4 0.2 0
23.7 0.2 0
24 0.2 0
24.3 0.2 0
24.6 0.2 0
24.9 0.2 0
25.2 0.2 0
25.5 0.2 0
25.8 0.2 0
26.1 0.2 0
26.4 0.2 0
26.7 0.2 0
27 0.2 0
27.3 0.2 0
27.6 0.2 0
27.9 0.2 0
28.2 0.2 0
28.5 0.2 0
28.8 0.2 0
29.1 0.2 0
29.4 0.2 0
29.7 0.2 0
30 0.2 0
30.3 0.2 0
30.6 0.2 0
0 0.3 0
0.3 0.3 0
0.6 0.3 0
0.9 0.3 0
1.2 0.3 0
1.5 0.3 0
1.8 0.3 0
2.1 0.3 0
2.4 0.3 0
2.7 0.3 0
3 0.3 0
3.3 0.3 0
3.6 0.3 0
3.9 0.3 0
4.2 0.3 0
4.5 0.3 0
4.8 0.3 0
5.1 0.3 0
5.4 0.3 0
5.7 0.3 0
6 0.3 0
6.3 0.3 0
6.6 0.3 0
6.9 0.3 0
7.2 0.3 0
7.5 0.3 0
7.8 0.3 0
8.1 0.3 0
8.4 0.3 0
8.7 0.3 0
9 0.3 0
9.3 0.3 0
9.6 0.3 0
9.9 0.3 0
10.2 0.3 0
10.5 0.3 0
10.8 0.3 0
11.1 0.3 0
11.4 0.3 0
11.7 0.3 0
12 0.3 0
12.3 0.3 0
12.6 0.3 0
12.9 0.3 0
13.2 0.3 0
13.5 0.3 0
13.8 0.3 0
14.1 0.3 0
14.4 0.3 0
14.7 0.3 0
15 0.3 0
15.3 0.3 0
15.6 0.3 0
15.9 0.3 0
16.2 0.3 0
16.5 0.3 0
16.8 0.3 0
17.1 0.3 0
17.4 0.3 0
17.7 0.3 0
18 0.3 0
18.3 0.3 0
18.6 0.3 0
18.9 0.3 0
19.2 0.3 0
19.5 0.3 0
19.8 0.3 0
20.1 0.3 0
20.4 0.3 0
20.7 0.3 0
21 0.3 0
21.3 0.3 0
21.6 0.3 0
21.9 0.3 0
22.2 0.3 0
22.5 0.3 0
22.8 0.3 0
23.1 0.3 0
23.4 0.3 0
23.7 0.3 0
24 0.3 0
24.3 0.3 0
24.6 0.3 0
24.9 0.3 0
25.2 0.3 0
25.5 0.3 0
25.8 0.3 0
26.1 0.3 0
26.4 0.3 0
26.7 0.3 0
27 0.3 0
27.3 0.3 0
27.6 0.3 0
27.9 0.3 0
28.2 0.3 0
28.5 0.3 0
28.8 0.3 0
29.1 0.3 0
29.4 0.3 0
29.7 0.3 0
30 0.3 0
30.3 0.3 0
30.6 0.3 0
0 0.4 0
0.3 0.4 0
0.6 0.4 0
0.9 0.4 0
1.2 0.4 0
1.5 0.4 0
1.8 0.4 0
2.1 0.4 0
2.4 0.4 0
2.7 0.4 0
3 0.4 0
3.3 0.4 0
3.6 0.4 0
3.9 0.4 0
4.2 0.4 0
4.5 0.4 0
4.8 0.4 0
5.1 0.4 0
5.4 0.4 0
5.7 0.4 0
6 0.4 0
6.3 0.4 0
6.6 0.4 0
6.9 0.4 0
7.2 0.4 0
7.5 0.4 0
7.8 0.4 0
8.1 0.4 0
8.4 0.4 0
8.7 0.4 0
9 0.4 0
9.3 0.4 0
9.6 0.4 0
9.9 0.4 0
10.2 0.4 0
10.5 0.4 0
10.8 0.4 0
11.1 0.4 0
11.4 0.4 0
11.7 0.4 0
12 0.4 0
12.3 0.4 0
12.6 0.4 0
12.9 0.4 0
13.2 0.4 0
13.5 0.4 0
13.8 0.4 0
14.1 0.4 0
14.4 0.4 0
14.7 0.4 0
15 0.4 0
15.3 0.4 0
15.6 0.4 0
15.9 0.4 0
16.2 0.4 0
16.5 0.4 0
16.8 0.4 0
17.1 0.4 0
17.4 0.4 0
17.7 0.4 0
18 0.4 0
18.3 0.4 0
18.6 0.4 0
18.9 0.4 0
19.2 0.4 0
19.5 0.4 0
19.8 0.4 0
20.1 0.4 0
20.4 0.4 0
20.7 0.4 0
21 0.4 0
21.3 0.4 0
21.6 0.4 0
21.9 0.4 0
22.2 0.4 0
22.5 0.4 0
22.8 0.4 0
23.1 0.4 0
23.4 0.4 0
23.7 0.4 0
24 0.4 0
24.3 0.4 0
24.6 0.4 0
24.9 0.4 0
25.2 0.4 0
25.5 0.4 0
25.8 0.4 0
26.1 0.4 0
26.4 0.4 0
26.7 0.4 0
27 0.4 0
27.3 0.4 0
27.6 0.4 0
27.9 0.4 0
28.2 0.4 0
28.5 0.4 0
28.8 0.4 0
29.1 0.4 0
29.4 0.4 0
29.7 0.4 0
30 0.4 0
30.3 0.4 0
30.6 0.4 0
0 0.5 0
0.3 0.5 0
0.6 0.5 0
0.9 0.5 0
1.2 0.5 0
1.5 0.5 0
1.8 0.5 0
2.1 0.5 0
2.4 0.5 0
2.7 0.5 0
3 0.5 0
3.3 0.5 0
3.6 0.5 0
3.9 0.5 0
4.2 0.5 0
4.5 0.5 0
4.8 0.5 0
5.1 0.5 0
5.4 0.5 0
5.7 0.5 0
6 0.5 0
6.3 0.5 0
6.6 0.5 0
6.9 0.5 0
7.2 0.5 0
7.5 0.5 0
7.8 0.5 0
8.1 0.5 0
8.4 0.5 0
8.7 0.5 0
9 0.5 0
9.3 0.5 0
9.6 0.5 0
9.9 0.5 0
10.2 0.5 0
10.5 0.5 0
10.8 0.5 0
11.1 0.5 0
11.4 0.5 0
11.7 0.5 0
12 0.5 0
12.3 0.5 0
12.6 0.5 0
12.9 0.5 0
13.2 0.5 0
13.5 0.5 0
13.8 0.5 0
14.1 0.5 0
14.4 0.5 0
14.7 0.5 0
15 0.5 0
15.3 0.5 0
15.6 0.5 0
15.9 0.5 0
16.2 0.5 0
16.5 0.5 0
16.8 0.5 0
17.1 0.5 0
17.4 0.5 0
17.7 0.5 0
18 0.5 0
18.3 0.5 0
18.6 0.5 0
18.9 0.5 0
19.2 0.5 0
19.5 0.5 0
19.8 0.5 0
20.1 0.5 0
20.4 0.5 0
20.7 0.5 0
21 0.5 0
21.3 0.5 0
21.6 0.5 0
21.9 0.5 0
22.2 0.5 0
22.5 0.5 0
22.8 0.5 0
23.1 0.5 0
23.4 0.5 0
23.7 0.5 0
24 0.5 0
24.3 0.5 0
24.6 0.5 0
24.9 0.5 0
25.2 0.5 0
25.5 0.5 0
25.8 0.5 0
26.1 0.5 0
26.4 0.5 0
26.7 0.5 0
27 0.5 0
27.3 0.5 0
27.6 0.5 0
27.9 0.5 0
28.2 0.5 0
28.5 0.5 0
28.8 0.5 0
29.1 0.5 0
29.4 0.5 0
29.7 0.5 0
30 0.5 0
30.3 0.5 0
30.6 0.5 0
0 0.6 0
0.3 0.6 0
0.6 0.6 0
0.9 0.6 0
1.2 0.6 0
1.5 0.6 0
1.8 0.6 0
2.1 0.6 0
2.4 0.6 0
2.7 0.6 0
3 0.6 0
3.3 0.6 0
3.6 0.6 0
3.9 0.6 0
4.2 0.6 0
4.5 0.6 0
4.8 0.6 0
5.1 0.6 0
5.4 0.6 0
5.7 0.6 0
6 0.6 0
6.3 0.6 0
6.6 0.6 0
6.9 0.6 0
7.2 0.6 0
7.5 0.6 0
7.8 0.6 0
8.1 0.6 0
8.4 0.6 0
8.7 0.6 0
9 0.6 0
9.3 0.6 0
9.6 0.6 0
9.9 0.6 0
10.2 0.6 0
10.5 0.6 0
10.8 0.6 0
11.1 0.6 0
11.4 0.6 0
11.7 0.6 0
12 0.6 0
12.3 0.6 0
12.6 0.6 0
12.9 0.6 0
13.2 0.6 0
13.5 0.6 0
13.8 0.6 0
14.1 0.6 0
14.4 0.6 0
14.7 0.6 0
15 0.6 0
15.3 0.6 0
15.6 0.6 0
15.9 0.6 0
16.2 0.6 0
16.5 0.6 0
16.8 0.6 0
17.1 0.6 0
17.4 0.6 0
17.7 0.6 0
18 0.6 0
18.3 0.6 0
18.6 0.6 0
18.9 0.6 0
19.2 0.6 0
19.5 0.6 0
19.8 0.6 0
20.1 0.6 0
20.4 0.6 0
20.7 0.6 0
21 0.6 0
21.3 0.6 0
21.6 0.6 0
21.9 0.6 0
22.2 0.6 0
22.5 0.6 0
22.8 0.6 0
23.1 0.6 0
23.4 0.6 0
23.7 0.6 0
24 0.6 0
24.3 0.6 0
24.6 0.6 0
24.9 0.6 0
25.2 0.6 0
25.5 0.6 0
25.8 0.6 0
26.1 0.6 0
26.4 0.6 0
26.7 0.6 0
27 0.6 0
27.3 0.6 0
27.6 0.6 0
27.9 0.6 0
28.2 0.6 0
28.5 0.6 0
28.8 0.6 0
29.1 0.6 0
29.4 0.6 0
29.7 0.6 0
30 0.6 0
30.3 0.6 0
30.6 0.6 0
0 0.7 0
0.3 0.7 0
0.6 0.7 0
0.9 0.7 0
1.2 0.7 0
1.5 0.7 0
1.8 0.7 0
2.1 0.7 0
2.4 0.7 0
2.7 0.7 0
3 0.7 0
3.3 0.7 0
3.6 0.7 0
3.9 0.7 0
4.2 0.7 0
4.5 0.7 0
4.8 0.7 0
5.1 0.7 0
5.4 0.7 0
5.7 0.7 0
6 0.7 0
6.3 0.7 0
6.6 0.7 0
6.9 0.7 0
7.2 0.7 0
7.5 0.7 0
7.8 0.7 0
8.1 0.7 0
8.4 0.7 0
8.7 0.7 0
9 0.7 0
9.3 0.7 0
9.6 0.7 0
9.9 0.7 0
10.2 0.7 0
10.5 0.7 0
10.8 0.7 0
11.1 0.7 0
11.4 0.7 0
11.7 0.7 0
12 0.7 0
12.3 0.7 0
12.6 0.7 0
12.9 0.7 0
13.2 0.7 0
13.5 0.7 0
13.8 0.7 0
14.1 0.7 0
14.4 0.7 0
14.7 0.7 0
15 0.7 0
15.3 0.7 0
15.6 0.7 0
15.9 0.7 0
16.2 0.7 0
16.5 0.7 0
16.8 0.7 0
17.1 0.7 0
17.4 0.7 0
17.7 0.7 0
18 0.7 0
18.3 0.7 0
18.6 0.7 0
18.9 0.7 0
19.2 0.7 0
19.5 0.7 0
19.8 0.7 0
20.1 0.7 0
20.4 0.7 0
20.7 0.7 0
21 0.7 0
21.3 0.7 0
21.6 0.7 0
21.9 0.7 0
22.2 0.7 0
22.5 0.7 0
22.8 0.7 0
23.1 0.7 0
23.4 0.7 0
23.7 0.7 0
24 0.7 0
24.3 0.7 0
24.6 0.7 0
24.9 0.7 0
25.2 0.7 0
25.5 0.7 0
25.8 0.7 0
26.1 0.7 0
26.4 0.7 0
26.7 0.7 0
27 0.7 0
27.3 0.7 0
27.6 0.7 0
27.9 0.7 0
28.2 0.7 0
28.5 0.7 0
28.8 0.7 0
29.1 0.7 0
29.4 0.7 0
29.7 0.7 0
30 0.7 0
30.3 0.7 0
30.6 0.7 0
0 0.8 0
0.3 0.8 0
0.6 0.8 0
0.9 0.8 0
1.2 0.8 0
1.5 0.8 0
1.8 0.8 0
2.1 0.8 0
2.4 0.8 0
2.7 0.8 0
3 0.8 0
3.3 0.8 0
3.6 0.8 0
3.9 0.8 0
4.2 0.8 0
4.5 0.8 0
4.8 0.8 0
5.1 0.8 0
5.4 0.8 0
5.7 0.8 0
6 0.8 0
6.3 0.8 0
6.6 0.8 0
6.9 0.8 0
7.2 0.8 0
7.5 0.8 0
7.8 0.8 0
8.1 0.8 0
8.4 0.8 0
8.7 0.8 0
9 0.8 0
9.3 0.8 0
9.6 0.8 0
9.9 0.8 0
10.2 0.8 0
10.5 0.8 0
10.8 0.8 0
11.1 0.8 0
11.4 0.8 0
11.7 0.8 0
12 0.8 0
12.3 0.8 0
12.6 0.8 0
12.9 0.8 0
13.2 0.8 0
13.5 0.8 0
13.8 0.8 0
14.1 0.8 0
14.4 0.8 0
14.7 0.8 0
15 0.8 0
15.3 0.8 0
15.6 0.8 0
15.9 0.8 0
16.2 0.8 0
16.5 0.8 0
16.8 0.8 0
17.1 0.8 0
17.4 0.8 0
17.7 0.8 0
18 0.8 0
18.3 0.8 0
18.6 0.8 0
18.9 0.8 0
19.2 0.8 0
19.5 0.8 0
19.8 0.8 0
20.1 0.8 0
20.4 0.8 0
20.7 0.8 0
21 0.8 0
21.3 0.8 0
21.6 0.8 0
21.9 0.8 0
22.2 0.8 0
22.5 0.8 0
22.8 0.8 0
23.1 0.8 0
23.4 0.8 0
23.7 0.8 0
24 0.8 0
24.3 0.8 0
24.6 0.8 0
24.9 0.8 0
25.2 0.8 0
25.5 0.8 0
25.8 0.8 0
26.1 0.8 0
26.4 0.8 0
26.7 0.8 0
27 0.8 0
27.3 0.8 0
27.6 0.8 0
27.9 0.8 0
28.2 0.8 0
28.5 0.8 0
28.8 0.8 0
29.1 0.8 0
29.4 0.8 0
29.7 0.8 0
30 0.8 0
30.3 0.8 0
30.6 0.8 0
0 0.9 0
0.3 0.9 0
0.6 0.9 0
0.9 0.9 0
1.2 0.9 0
1.5 0.9 0
1.8 0.9 0
2.1 0.9 0
2.4 0.9 0
2.7 0.9 0
3 0.9 0
3.3 0.9 0
3.6 0.9 0
3.9 0.9 0
4.2 0.9 0
4.5 0.9 0
4.8 0.9 0
5.1 0.9 0
5.4 0.9 0
5.7 0.9 0
6 0.9 0
6.3 0.9 0
6.6 0.9 0
6.9 0.9 0
7.2 0.9 0
7.5 0.9 0
7.8 0.9 0
8.1 0.9 0
8.4 0.9 0
8.7 0.9 0
9 0.9 0
9.3 0.9 0
9.6 0.9 0
9.9 0.9 0
10.2 0.9 0
10.5 0.9 0
10.8 0.9 0
11.1 0.9 0
11.4 0.9 0
11.7 0.9 0
12 0.9 0
12.3 0.9 0
12.6 0.9 0
12.9 0.9 0
13.2 0.9 0
13.5 0.9 0
13.8 0.9 0
14.1 0.9 0
14.4 0.9 0
14.7 0.9 0
15 0.9 0
15.3 0.9 0
15.6 0.9 0
15.9 0.9 0
16.2 0.9 0
16.5 0.9 0
16.8 0.9 0
17.1 0.9 0
17.4 0.9 0
17.7 0.9 0
18 0.9 0
18.3 0.9 0
18.6 0.9 0
18.9 0.9 0
19.2 0.9 0
19.5 0.9 0
19.8 0.9 0
20.1 0.9 0
20.4 0.9 0
20.7 0.9 0
21 0.9 0
21.3 0.9 0
21.6 0.9 0
21.9 0.9 0
22.2 0.9 0
22.5 0.9 0
22.8 0.9 0
23.1 0.9 0
23.4 0.9 0
23.7 0.9 0
24 0.9 0
24.3 0.9 0
24.6 0.9 0
24.9 0.9 0
25.2 0.9 0
25.5 0.9 0
25.8 0.9 0
26.1 0.9 0
26.4 0.9 0
26.7 0.9 0
27 0.9 0
27.3 0.9 0
27.6 0.9 0
27.9 0.9 0
28.2 0.9 0
28.5 0.9 0
28.8 0.9 0
29.1 0.9 0
29.4 0.9 0
29.7 0.9 0
30 0.9 0
30.3 0.9 0
30.6 0.9 0
0 1 0
0.3 1 0
0.6 1 0
0.9 1 0
1.2 1 0
1.5 1 0
1.8 1 0
2.1 1 0
2.4 1 0
2.7 1 0
3 1 0
3.3 1 0
3.6 1 0
3.9 1 0
4.2 1 0
4.5 1 0
4.8 1 0
5.1 1 0
5.4 1 0
5.7 1 0
6 1 0
6.3 1 0
6.6 1 0
6.9 1 0
7.2 1 0
7.5 1 0
7.8 1 0
8.1 1 0
8.4 1 0
8.7 1 0
9 1 0
9.3 1 0
9.6 1 0
9.9 1 0
10.2 1 0
10.5 1 0
10.8 1 0
11.1 1 0
11.4 1 0
11.7 1 0
12 1 0
12.3 1 0
12.6 1 0
12.9 1 0
13.2 1 0
13.5 1 0
13.8 1 0
14.1 1 0
14.4 1 0
14.7 1 0
15 1 0
15.3 1 0
15.6 1 0
15.9 1 0
16.2 1 0
16.5 1 0
16.8 1 0
17.1 1 0
17.4 1 0
17.7 1 0
18 1 0
18.3 1 0
18.6 1 0
18.9 1 0
19.2 1 0
19.5 1 0
19.8 1 0
20.1 1 0
20.4 1 0
20.7 1 0
21 1 0
21.3 1 0
21.6 1 0
21.9 1 0
22.2 1 0
22.5 1 0
22.8 1 0
23.1 1 0
23.4 1 0
23.7 1 0
24 1 0
24.3 1 0
24.6 1 0
24.9 1 0
25.2 1 0
25.5 1 0
25.8 1 0
26.1 1 0
26.4 1 0
26.7 1 0
27 1 0
27.3 1 0
27.6 1 0
27.9 1 0
28.2 1 0
28.5 1 0
28.8 1 0
29.1 1 0
29.4 1 0
29.7 1 0
30 1 0
30.3 1 0
30.6 1 0
0 1.1 0
0.3 1.1 0
0.6 1.1 0
0.9 1.1 0
1.2 1.1 0
1.5 1.1 0
1.8 1.1 0
2.1 1.1 0
2.4 1.1 0
2.7 1.1 0
3 1.1 0
3.3 1.1 0
3.6 1.1 0
3.9 1.1 0
4.2 1.1 0
4.5 1.1 0
4.8 1.1 0
5.1 1.1 0
5.4 1.1 0
5.7 1.1 0
6 1.1 0
6.3 1.1 0
6.6 1.1 0
6.9 1.1 0
7.2 1.1 0
7.5 1.1 0
7.8 1.1 0
8.1 1.1 0
8.4 1.1 0
8.7 1.1 0
9 1.1 0
9.3 1.1 0
9.6 1.1 0
9.9 1.1 0
10.2 1.1 0
10.5 1.1 0
10.8 1.1 0
11.1 1.1 0
11.4 1.1 0
11.7 1.1 0
12 1.1 0
12.3 1.1 0
12.6 1.1 0
12.9 1.1 0
13.2 1.1 0
13.5 1.1 0
13.8 1.1 0
14.1 1.1 0
14.4 1.1 0
14.7 1.1 0
15 1.1 0
15.3 1.1 0
15.6 1.1 0
15.9 1.1 0
16.2 1.1 0
16.5 1.1 0
16.8 1.1 0
17.1 1.1 0
17.4 1.1 0
17.7 1.1 0
18 1.1 0
18.3 1.1 0
18.6 1.1 0
18.9 1.1 0
19.2 1.1 0
19.5 1.1 0
19.8 1.1 0
20.1 1.1 0
20.4 1.1 0
20.7 1.1 0
21 1.1 0
21.3 1.1 0
21.6 1.1 0
21.9 1.1 0
22.2 1.1 0
22.5 1.1 0
22.8 1.1 0
23.1 1.1 0
23.4 1.1 0
23.7 1.1 0
24 1.1 0
24.3 1.1 0
24.6 1.1 0
24.9 1.1 0
25.2 1.1 0
25.5 1.1 0
25.8 1.1 0
26.1 1.1 0
26.4 1.1 0
26.7 1.1 0
27 1.1 0
27.3 1.1 0
27.6 1.1 0
27.9 1.1 0
28.2 1.1 0
28.5 1.1 0
28.8 1.1 0
29.1 1.1 0
29.4 1.1 0
29.7 1.1 0
30 1.1 0
30.3 1.1 0
30.6 1.1 0
0 1.2 0
0.3 1.2 0
0.6 1.2 0
0.9 1.2 0
1.2 1.2 0
1.5 1.2 0
1.8 1.2 0
2.1 1.2 0
2.4 1.2 0
2.7 1.2 0
3 1.2 0
3.3 1.2 0
3.6 1.2 0
3.9 1.2 0
4.2 1.2 0
4.5 1.2 0
4.8 1.2 0
5.1 1.2 0
5.4 1.2 0
5.7 1.2 0
6 1.2 0
6.3 1.2 0
6.6 1.2 0
6.9 1.2 0
7.2 1.2 0
7.5 1.2 0
7.8 1.2 0
8.1 1.2 0
8.4 1.2 0
8.7 1.2 0
9 1.2 0
9.3 1.2 0
9.6 1.2 0
9.9 1.2 0
10.2 1.2 0
10.5 1.2 0
10.8 1.2 0
11.1 1.2 0
11.4 1.2 0
11.7 1.2 0
12 1.2 0
12.3 1.2 0
12.6 1.2 0
12.9 1.2 0
13.2 1.2 0
13.5 1.2 0
13.8 1.2 0
14.1 1.2 0
14.4 1.2 0
14.7 1.2 0
15 1.2 0
15.3 1.2 0
15.6 1.2 0
15.9 1.2 0
16.2 1.2 0
16.5 1.2 0
16.8 1.2 0
17.1 1.2 0
17.4 1.2 0
17.7 1.2 0
18 1.2 0
18.3 1.2 0
18.6 1.2 0
18.9 1.2 0
19.2 1.2 0
19.5 1.2 0
19.8 1.2 0
20.1 1.2 0
20.4 1.2 0
20.7 1.2 0
21 1.2 0
21.3 1.2 0
21.6 1.2 0
21.9 1.2 0
22.2 1.2 0
22.5 1.2 0
22.8 1.2 0
23.1 1.2 0
23.4 1.2 0
23.7 1.2 0
24 1.2 0
24.3 1.2 0
24.6 1.2 0
24.9 1.2 0
25.2 1.2 0
25.5 1.2 0
25.8 1.2 0
26.1 1.2 0
26.4 1.2 0
26.7 1.2 0
27 1.2 0
27.3 1.2 0
27.6 1.2 0
27.9 1.2 0
28.2 1.2 0
28.5 1.2 0
28.8 1.2 0
29.1 1.2 0
29.4 1.2 0
29.7 1.2 0
30 1.2 0
30.3 1.2 0
30.6 1.2 0

POINT_DATA 1339

SCALARS pressure double
LOOKUP_TABLE pressure
1.17167
1.17167
1.10683
1.0626
1.02277
0.986197
0.953147
0.923619
0.897261
0.873552
0.851951
0.831988
0.813295
0.795594
0.778688
0.76243
0.746711
0.731454
0.716602
0.702108
0.687933
0.674048
0.660427
0.647049
0.633893
0.620943
0.608183
0.595601
0.583183
0.570919
0.558798
0.546812
0.53495
0.523207
0.511574
0.500045
0.488614
0.477274
0.466021
0.454849
0.443754
0.432731
0.421776
0.410887
0.400058
0.389286
0.378569
0.367903
0.357286
0.346715
0.336187
0.3257
0.315253
0.304842
0.294465
0.284122
0.27381
0.263527
0.253273
0.243045
0.232841
0.222662
0.212505
0.202369
0.192254
0.182157
0.172079
0.162017
0.151972
0.141942
0.131926
0.121925
0.111936
0.10196
0.0919952
0.0820416
0.0720985
0.0621653
0.0522414
0.0423265
0.0324199
0.0225213
0.0126303
0.00274635
-0.0071308
-0.0170015
-0.0268661
-0.036725
-0.0465783
-0.0564263
-0.0662693
-0.0761076
-0.0859412
-0.0957705
-0.105595
-0.115416
-0.125234
-0.135047
-0.144857
-0.154663
-0.164467
-0.174267
0.174267
1.17167
1.17167
1.10683
1.0626
1.02277
0.986197
0.953147
0.923619
0.897261
0.873552
0.851951
0.831988
0.813295
0.795594
0.778688
0.76243
0.746711
0.731454
0.716602
0.702108
0.687933
0.674048
0.660427
0.647049
0.633893
0.620943
0.608183
0.595601
0.583183
0.570919
0.558798
0.546812
0.53495
0.523207
0.511574
0.500045
0.488614
0.477274
0.466021
0.454849
0.443754
0.432731
0.421776
0.410887
0.400058
0.389286
0.378569
0.367903
0.357286
0.346715
0.336187
0.3257
0.315253
0.304842
0.294465
0.284122
0.27381
0.263527
0.253273
0.243045
0.232841
0.222662
0.212505
0.202369
0.192254
0.182157
0.172079
0.162017
0.151972
0.141942
0.131926
0.121925
0.111936
0.10196
0.0919952
0.0820416
0.0720985
0.0621653
0.0522414
0.0423265
0.0324199
0.0225213
0.0126303
0.00274635
-0.0071308
-0.0170015
-0.0268661
-0.036725
-0.0465783
-0.0564263
-0.0662693
-0.0761076
-0.0859412
-0.0957705
-0.105595
-0.115416
-0.125234
-0.135047
-0.144857
-0.154663
-0.164467
-0.174267
0.174267
1.15073
1.15073
1.10484
1.06283
1.02347
0.986994
0.95389
0.924249
0.897769
0.873948
0.852255
0.832222
0.813476
0.795739
0.778806
0.762527
0.746793
0.731525
0.716665
0.702163
0.687982
0.674092
0.660468
0.647086
0.633927
0.620973
0.608211
0.595627
0.583207
0.570941
0.558819
0.546831
0.534968
0.523224
0.51159
0.50006
0.488627
0.477287
0.466033
0.45486
0.443764
0.432741
0.421786
0.410895
0.400066
0.389294
0.378576
0.36791
0.357293
0.346721
0.336193
0.325706
0.315258
0.304846
0.29447
0.284126
0.273814
0.263531
0.253276
0.243048
0.232845
0.222665
0.212508
0.202372
0.192256
0.182159
0.172081
0.162019
0.151974
0.141944
0.131928
0.121927
0.111938
0.101961
0.0919967
0.082043
0.0720998
0.0621666
0.0522426
0.0423276
0.032421
0.0225223
0.0126312
0.00274726
-0.00712994
-0.0170007
-0.0268654
-0.0367242
-0.0465776
-0.0564257
-0.0662687
-0.076107
-0.0859407
-0.09577
-0.105595
-0.115416
-0.125233
-0.135047
-0.144856
-0.154662
-0.164466
-0.174266
0.174266
1.13575
1.13575
1.10196
1.06306
1.02459
0.988318
0.955151
0.925327
0.89863
0.874607
0.852747
0.832586
0.813748
0.795944
0.778964
0.762652
0.746894
0.731609
0.716736
0.702224
0.688035
0.674139
0.660509
0.647123
0.63396
0.621003
0.608239
0.595652
0.58323
0.570962
0.558838
0.546848
0.534984
0.523239
0.511604
0.500072
0.488639
0.477298
0.466043
0.454869
0.443773
0.432749
0.421793
0.410903
0.400073
0.3893
0.378582
0.367916
0.357298
0.346726
0.336198
0.32571
0.315262
0.30485
0.294474
0.28413
0.273817
0.263534
0.253279
0.243051
0.232847
0.222668
0.21251
0.202374
0.192258
0.182161
0.172083
0.162021
0.151976
0.141945
0.13193
0.121928
0.111939
0.101963
0.0919979
0.0820441
0.0721009
0.0621675
0.0522436
0.0423285
0.0324218
0.0225231
0.012632
0.00274796
-0.00712928
-0.0170001
-0.0268648
-0.0367237
-0.046577
-0.0564252
-0.0662683
-0.0761066
-0.0859403
-0.0957696
-0.105595
-0.115416
-0.125233
-0.135046
-0.144856
-0.154662
-0.164465
-0.174261
0.174261
1.12618
1.12618
1.09948
1.06316
1.02554
0.989513
0.956327
0.926363
0.899484
0.87528
0.853264
0.832981
0.81405
0.796179
0.77915
0.762801
0.747017
0.731713
0.716824
0.7023
0.688101
0.674198
0.660561
0.647169
0.634001
0.621041
0.608272
0.595682
0.583257
0.570987
0.558861
0.546869
0.535004
0.523256
0.51162
0.500087
0.488653
0.477311
0.466055
0.454881
0.443783
0.432759
0.421803
0.410911
0.400081
0.389308
0.378589
0.367922
0.357304
0.346732
0.336203
0.325715
0.315267
0.304855
0.294478
0.284134
0.273821
0.263538
0.253283
0.243054
0.23285
0.22267
0.212513
0.202377
0.192261
0.182164
0.172085
0.162023
0.151977
0.141947
0.131931
0.12193
0.111941
0.101964
0.0919992
0.0820454
0.0721021
0.0621686
0.0522446
0.0423295
0.0324227
0.022524
0.0126328
0.00274875
-0.00712852
-0.0169994
-0.0268641
-0.036723
-0.0465764
-0.0564246
-0.0662677
-0.0761061
-0.0859398
-0.0957691
-0.105594
-0.115415
-0.125232
-0.135046
-0.144856
-0.154661
-0.164463
-0.174251
0.174251
1.12087
1.12087
1.09785
1.06318
1.02613
0.99028
0.957096
0.927053
0.900061
0.875744
0.853629
0.833265
0.814273
0.796356
0.779292
0.762919
0.747116
0.731798
0.716897
0.702364
0.688158
0.674248
0.660606
0.64721
0.634038
0.621074
0.608303
0.59571
0.583283
0.57101
0.558882
0.546889
0.535022
0.523273
0.511635
0.500102
0.488666
0.477323
0.466066
0.454891
0.443793
0.432768
0.421811
0.410919
0.400088
0.389315
0.378596
0.367929
0.35731
0.346737
0.336208
0.32572
0.315271
0.304859
0.294482
0.284138
0.273825
0.263541
0.253286
0.243057
0.232853
0.222673
0.212515
0.202379
0.192263
0.182166
0.172087
0.162025
0.151979
0.141949
0.131933
0.121931
0.111942
0.101965
0.0920005
0.0820466
0.0721032
0.0621697
0.0522456
0.0423304
0.0324237
0.0225249
0.0126336
0.00274953
-0.00712778
-0.0169987
-0.0268634
-0.0367224
-0.0465758
-0.056424
-0.0662672
-0.0761056
-0.0859393
-0.0957687
-0.105594
-0.115415
-0.125232
-0.135045
-0.144855
-0.15466
-0.16446
-0.17424
0.17424
1.11917
1.11917
1.0973
1.06319
1.02635
0.990554
0.957369
0.927299
0.900268
0.875911
0.853761
0.833369
0.814356
0.796423
0.779347
0.762964
0.747155
0.731831
0.716926
0.70239
0.688182
0.674269
0.660625
0.647227
0.634054
0.621088
0.608316
0.595722
0.583294
0.57102
0.558892
0.546897
0.53503
0.523281
0.511642
0.500108
0.488672
0.477328
0.466071
0.454896
0.443798
0.432772
0.421815
0.410923
0.400091
0.389318
0.378599
0.367931
0.357312
0.34674
0.33621
0.325722
0.315273
0.304861
0.294484
0.284139
0.273826
0.263543
0.253287
0.243058
0.232854
0.222674
0.212516
0.20238
0.192264
0.182167
0.172088
0.162026
0.15198
0.14195
0.131934
0.121932
0.111943
0.101966
0.092001
0.0820471
0.0721037
0.0621702
0.0522461
0.0423309
0.0324241
0.0225252
0.012634
0.00274987
-0.00712746
-0.0169984
-0.0268631
-0.0367221
-0.0465756
-0.0564238
-0.0662669
-0.0761053
-0.0859391
-0.0957685
-0.105594
-0.115415
-0.125232
-0.135045
-0.144855
-0.15466
-0.164459
-0.174235
0.174235
1.12087
1.12087
1.09785
1.06318
1.02613
0.99028
0.957096
0.927053
0.900062
0.875743
0.853628
0.833265
0.814273
0.796356
0.779292
0.762919
0.747116
0.731798
0.716897
0.702364
0.688159
0.674248
0.660606
0.64721
0.634038
0.621074
0.608303
0.59571
0.583283
0.57101
0.558882
0.546889
0.535022
0.523273
0.511635
0.500102
0.488666
0.477323
0.466066
0.454891
0.443793
0.432768
0.421811
0.410919
0.400088
0.389315
0.378596
0.367929
0.35731
0.346737
0.336208
0.32572
0.315271
0.304859
0.294482
0.284138
0.273825
0.263541
0.253286
0.243057
0.232853
0.222673
0.212515
0.202379
0.192263
0.182166
0.172087
0.162025
0.151979
0.141949
0.131933
0.121931
0.111942
0.101965
0.0920005
0.0820466
0.0721032
0.0621697
0.0522456
0.0423304
0.0324237
0.0225249
0.0126336
0.00274953
-0.00712778
-0.0169987
-0.0268634
-0.0367224
-0.0465758
-0.056424
-0.0662672
-0.0761055
-0.0859393
-0.0957687
-0.105594
-0.115415
-0.125232
-0.135045
-0.144855
-0.15466
-0.16446
-0.17424
0.17424
1.12618
1.12618
1.09947
1.06316
1.02554
0.989513
0.956327
0.926364
0.899484
0.875279
0.853264
0.832981
0.81405
0.796179
0.779149
0.762801
0.747017
0.731713
0.716824
0.7023
0.688102
0.674198
0.660561
0.647169
0.634001
0.621041
0.608272
0.595682
0.583257
0.570987
0.558861
0.546869
0.535004
0.523256
0.51162
0.500088
0.488653
0.477311
0.466055
0.454881
0.443783
0.432759
0.421803
0.410911
0.400081
0.389308
0.378589
0.367922
0.357304
0.346732
0.336203
0.325715
0.315267
0.304855
0.294478
0.284134
0.273821
0.263538
0.253283
0.243054
0.23285
0.22267
0.212513
0.202377
0.192261
0.182164
0.172085
0.162023
0.151977
0.141947
0.131931
0.12193
0.111941
0.101964
0.0919992
0.0820454
0.072102
0.0621686
0.0522446
0.0423295
0.0324227
0.022524
0.0126328
0.00274875
-0.00712852
-0.0169994
-0.0268641
-0.036723
-0.0465764
-0.0564246
-0.0662677
-0.0761061
-0.0859398
-0.0957691
-0.105594
-0.115415
-0.125232
-0.135046
-0.144856
-0.154661
-0.164463
-0.174251
0.174251
1.13576
1.13576
1.10196
1.06306
1.02459
0.988318
0.95515
0.925328
0.898631
0.874607
0.852747
0.832586
0.813748
0.795945
0.778964
0.762651
0.746894
0.73161
0.716736
0.702224
0.688035
0.674139
0.660509
0.647123
0.63396
0.621003
0.608239
0.595652
0.58323
0.570962
0.558838
0.546848
0.534984
0.523239
0.511603
0.500072
0.488639
0.477297
0.466043
0.454869
0.443773
0.432749
0.421793
0.410903
0.400073
0.3893
0.378582
0.367916
0.357298
0.346726
0.336198
0.32571
0.315262
0.30485
0.294474
0.28413
0.273817
0.263534
0.253279
0.243051
0.232847
0.222667
0.21251
0.202374
0.192258
0.182161
0.172083
0.162021
0.151976
0.141945
0.13193
0.121928
0.111939
0.101963
0.0919979
0.0820441
0.0721009
0.0621675
0.0522435
0.0423285
0.0324218
0.0225231
0.012632
0.00274795
-0.00712927
-0.0170001
-0.0268648
-0.0367237
-0.046577
-0.0564252
-0.0662683
-0.0761066
-0.0859403
-0.0957696
-0.105595
-0.115416
-0.125233
-0.135046
-0.144856
-0.154662
-0.164465
-0.174261
0.174261
1.15073
1.15073
1.10484
1.06282
1.02348
0.986994
0.953889
0.924249
0.897769
0.873948
0.852255
0.832221
0.813476
0.79574
0.778806
0.762526
0.746793
0.731526
0.716665
0.702163
0.687982
0.674092
0.660468
0.647086
0.633926
0.620973
0.608212
0.595627
0.583207
0.570941
0.558819
0.546831
0.534968
0.523224
0.51159
0.50006
0.488627
0.477287
0.466033
0.45486
0.443764
0.432741
0.421786
0.410895
0.400066
0.389294
0.378576
0.36791
0.357293
0.346721
0.336193
0.325706
0.315258
0.304846
0.29447
0.284126
0.273814
0.263531
0.253276
0.243048
0.232845
0.222665
0.212508
0.202372
0.192256
0.182159
0.172081
0.162019
0.151974
0.141944
0.131928
0.121927
0.111938
0.101961
0.0919967
0.082043
0.0720998
0.0621665
0.0522426
0.0423276
0.032421
0.0225223
0.0126312
0.00274725
-0.00712994
-0.0170007
-0.0268654
-0.0367242
-0.0465776
-0.0564257
-0.0662687
-0.076107
-0.0859407
-0.09577
-0.105595
-0.115416
-0.125233
-0.135046
-0.144856
-0.154662
-0.164466
-0.174266
0.174266
1.17167
1.17167
1.10683
1.0626
1.02277
0.986198
0.953146
0.923618
0.897262
0.873553
0.851951
0.831988
0.813294
0.795595
0.778689
0.762429
0.74671
0.731454
0.716602
0.702108
0.687933
0.674048
0.660428
0.647049
0.633893
0.620943
0.608183
0.595601
0.583183
0.570919
0.558798
0.546812
0.53495
0.523207
0.511574
0.500045
0.488614
0.477274
0.466021
0.454849
0.443754
0.432731
0.421776
0.410887
0.400058
0.389286
0.378569
0.367903
0.357286
0.346715
0.336187
0.3257
0.315253
0.304842
0.294465
0.284122
0.27381
0.263527
0.253273
0.243045
0.232841
0.222662
0.212505
0.202369
0.192254
0.182157
0.172079
0.162017
0.151972
0.141942
0.131927
0.121925
0.111936
0.10196
0.0919952
0.0820416
0.0720985
0.0621653
0.0522414
0.0423265
0.0324199
0.0225213
0.0126302
0.00274634
-0.0071308
-0.0170015
-0.0268661
-0.036725
-0.0465783
-0.0564263
-0.0662693
-0.0761076
-0.0859412
-0.0957705
-0.105595
-0.115416
-0.125234
-0.135047
-0.144857
-0.154663
-0.164467
-0.174267
0.174267
1.17167
1.17167
1.10683
1.0626
1.02277
0.986198
0.953146
0.923618
0.897262
0.873553
0.851951
0.831988
0.813294
0.795595
0.778689
0.762429
0.74671
0.731454
0.716602
0.702108
0.687933
0.674048
0.660428
0.647049
0.633893
0.620943
0.608183
0.595601
0.583183
0.570919
0.558798
0.546812
0.53495
0.523207
0.511574
0.500045
0.488614
0.477274
0.466021
0.454849
0.443754
0.432731
0.421776
0.410887
0.400058
0.389286
0.378569
0.367903
0.357286
0.346715
0.336187
0.3257
0.315253
0.304842
0.294465
0.284122
0.27381
0.263527
0.253273
0.243045
0.232841
0.222662
0.212505
0.202369
0.192254
0.182157
0.172079
0.162017
0.151972
0.141942
0.131927
0.121925
0.111936
0.10196
0.0919952
0.0820416
0.0720985
0.0621653
0.0522414
0.0423265
0.0324199
0.0225213
0.0126302
0.00274634
-0.0071308
-0.0170015
-0.0268661
-0.036725
-0.0465783
-0.0564263
-0.0662693
-0.0761076
-0.0859412
-0.0957705
-0.105595
-0.115416
-0.125234
-0.135047
-0.144857
-0.154663
-0.164467
-0.174267
0.174267
SCALARS phi double
LOOKUP_TABLE phi
1
1
1
1
0.999999
0.999994
0.999983
0.999958
0.99991
0.99983
0.999706
0.999526
0.999278
0.998952
0.998537
0.998024
0.997407
0.996679
0.995834
0.99487
0.993784
0.992574
0.991242
0.989786
0.988211
0.986517
0.984709
0.982789
0.980762
0.978631
0.976395
0.97405
0.971584
0.968979
0.966208
0.963234
0.960014
0.956498
0.952633
0.948363
0.943635
0.938399
0.932608
0.926223
0.919211
0.91155
0.903224
0.894227
0.884559
0.874231
0.863258
0.851663
0.839475
0.826726
0.813452
0.799692
0.785489
0.770884
0.755921
0.740643
0.725093
0.709315
0.693348
0.677233
0.661008
0.644709
0.628371
0.612025
0.595703
0.579432
0.563239
0.547147
0.531178
0.515353
0.49969
0.484206
0.468914
0.453829
0.438961
0.424321
0.409918
0.395758
0.381849
0.368195
0.354801
0.34167
0.328804
0.316206
0.303875
0.291812
0.280017
0.26849
0.257228
0.246231
0.235498
0.225023
0.214813
0.204839
0.195187
0.185551
0.176988
0.16571
0.16571
1
1
1
1
0.999999
0.999994
0.999983
0.999958
0.99991
0.99983
0.999706
0.999526
0.999278
0.998952
0.998537
0.998024
0.997407
0.996679
0.995834
0.99487
0.993784
0.992574
0.991242
0.989786
0.988211
0.986517
0.984709
0.982789
0.980762
0.978631
0.976395
0.97405
0.971584
0.968979
0.966208
0.963234
0.960014
0.956498
0.952633
0.948363
0.943635
0.938399
0.932608
0.926223
0.919211
0.91155
0.903224
0.894227
0.884559
0.874231
0.863258
0.851663
0.839475
0.826726
0.813452
0.799692
0.785489
0.770884
0.755921
0.740643
0.725093
0.709315
0.693348
0.677233
0.661008
0.644709
0.628371
0.612025
0.595703
0.579432
0.563239
0.547147
0.531178
0.515353
0.49969
0.484206
0.468914
0.453829
0.438961
0.424321
0.409918
0.395758
0.381849
0.368195
0.354801
0.34167
0.328804
0.316206
0.303875
0.291812
0.280017
0.26849
0.257228
0.246231
0.235498
0.225023
0.214813
0.204839
0.195187
0.185551
0.176988
0.16571
0.16571
1
1
1
0.999996
0.999983
0.999954
0.999898
0.999804
0.999658
0.999447
0.999157
0.998778
0.9983
0.997714
0.997015
0.996196
0.995256
0.994192
0.993003
0.99169
0.990252
0.988694
0.987017
0.985224
0.98332
0.981308
0.979192
0.976979
0.974672
0.972276
0.969796
0.967234
0.964591
0.961863
0.959045
0.956124
0.953083
0.949897
0.946541
0.942979
0.939178
0.935098
0.9307
0.925948
0.920803
0.915232
0.909207
0.902702
0.895697
0.888179
0.880139
0.871573
0.862484
0.85288
0.842773
0.832178
0.821116
0.80961
0.797686
0.78537
0.772693
0.759685
0.746377
0.732801
0.718988
0.704969
0.690776
0.676438
0.661985
0.647444
0.632841
0.618204
0.603555
0.588918
0.574314
0.559763
0.545284
0.530894
0.516609
0.502443
0.48841
0.474522
0.46079
0.447223
0.433831
0.420621
0.4076
0.394773
0.382146
0.369722
0.357506
0.345499
0.333703
0.32212
0.310751
0.299593
0.288657
0.277904
0.267461
0.256897
0.24765
0.234871
0.234871
0.999997
1
0.99998
0.999896
0.999724
0.999434
0.998999
0.998397
0.997613
0.996636
0.995464
0.994099
0.992547
0.990816
0.988917
0.986859
0.984656
0.982317
0.979854
0.977278
0.974599
0.971826
0.968969
0.966037
0.963037
0.959976
0.956863
0.953702
0.9505
0.947262
0.943994
0.940698
0.93738
0.934041
0.930683
0.927304
0.923903
0.920472
0.917006
0.913492
0.909916
0.906262
0.90251
0.89864
0.894628
0.890451
0.886085
0.881505
0.876688
0.871613
0.866259
0.860609
0.854647
0.84836
0.841739
0.834776
0.827467
0.819812
0.811812
0.80347
0.794795
0.785794
0.776478
0.76686
0.756955
0.746776
0.736342
0.725668
0.714773
0.703675
0.692392
0.680944
0.669348
0.657623
0.645787
0.633857
0.621851
0.609786
0.597677
0.58554
0.573389
0.561239
0.549103
0.536993
0.524922
0.512899
0.500936
0.489042
0.477226
0.465495
0.453857
0.44232
0.430887
0.419566
0.40836
0.39727
0.386313
0.375443
0.364821
0.353929
0.344449
0.330952
0.330952
0.999999
1
0.99943
0.998224
0.996402
0.994008
0.991093
0.987716
0.983939
0.979828
0.975446
0.970853
0.966103
0.961239
0.9563
0.951318
0.946317
0.94132
0.936342
0.931396
0.926494
0.921643
0.91685
0.91212
0.907457
0.902862
0.898338
0.893885
0.889505
0.885196