# vtk DataFile Version 3.0
FlowField
ASCII
DATASET STRUCTURED_GRID
DIMENSIONS 103 13 1 
POINTS 1339 double
0 0 0
0.3 0 0
0.6 0 0
0.9 0 0
1.2 0 0
1.5 0 0
1.8 0 0
2.1 0 0
2.4 0 0
2.7 0 0
3 0 0
3.3 0 0
3.6 0 0
3.9 0 0
4.2 0 0
4.5 0 0
4.8 0 0
5.1 0 0
5.4 0 0
5.7 0 0
6 0 0
6.3 0 0
6.6 0 0
6.9 0 0
7.2 0 0
7.5 0 0
7.8 0 0
8.1 0 0
8.4 0 0
8.7 0 0
9 0 0
9.3 0 0
9.6 0 0
9.9 0 0
10.2 0 0
10.5 0 0
10.8 0 0
11.1 0 0
11.4 0 0
11.7 0 0
12 0 0
12.3 0 0
12.6 0 0
12.9 0 0
13.2 0 0
13.5 0 0
13.8 0 0
14.1 0 0
14.4 0 0
14.7 0 0
15 0 0
15.3 0 0
15.6 0 0
15.9 0 0
16.2 0 0
16.5 0 0
16.8 0 0
17.1 0 0
17.4 0 0
17.7 0 0
18 0 0
18.3 0 0
18.6 0 0
18.9 0 0
19.2 0 0
19.5 0 0
19.8 0 0
20.1 0 0
20.4 0 0
20.7 0 0
21 0 0
21.3 0 0
21.6 0 0
21.9 0 0
22.2 0 0
22.5 0 0
22.8 0 0
23.1 0 0
23.4 0 0
23.7 0 0
24 0 0
24.3 0 0
24.6 0 0
24.9 0 0
25.2 0 0
25.5 0 0
25.8 0 0
26.1 0 0
26.4 0 0
26.7 0 0
27 0 0
27.3 0 0
27.6 0 0
27.9 0 0
28.2 0 0
28.5 0 0
28.8 0 0
29.1 0 0
29.4 0 0
29.7 0 0
30 0 0
30.3 0 0
30.6 0 0
0 0.1 0
0.3 0.1 0
0.6 0.1 0
0.9 0.1 0
1.2 0.1 0
1.5 0.1 0
1.8 0.1 0
2.1 0.1 0
2.4 0.1 0
2.7 0.1 0
3 0.1 0
3.3 0.1 0
3.6 0.1 0
3.9 0.1 0
4.2 0.1 0
4.5 0.1 0
4.8 0.1 0
5.1 0.1 0
5.4 0.1 0
5.7 0.1 0
6 0.1 0
6.3 0.1 0
6.6 0.1 0
6.9 0.1 0
7.2 0.1 0
7.5 0.1 0
7.8 0.1 0
8.1 0.1 0
8.4 0.1 0
8.7 0.1 0
9 0.1 0
9.3 0.1 0
9.6 0.1 0
9.9 0.1 0
10.2 0.1 0
10.5 0.1 0
10.8 0.1 0
11.1 0.1 0
11.4 0.1 0
11.7 0.1 0
12 0.1 0
12.3 0.1 0
12.6 0.1 0
12.9 0.1 0
13.2 0.1 0
13.5 0.1 0
13.8 0.1 0
14.1 0.1 0
14.4 0.1 0
14.7 0.1 0
15 0.1 0
15.3 0.1 0
15.6 0.1 0
15.9 0.1 0
16.2 0.1 0
16.5 0.1 0
16.8 0.1 0
17.1 0.1 0
17.4 0.1 0
17.7 0.1 0
18 0.1 0
18.3 0.1 0
18.6 0.1 0
18.9 0.1 0
19.2 0.1 0
19.5 0.1 0
19.8 0.1 0
20.1 0.1 0
20.4 0.1 0
20.7 0.1 0
21 0.1 0
21.3 0.1 0
21.6 0.1 0
21.9 0.1 0
22.2 0.1 0
22.5 0.1 0
22.8 0.1 0
23.1 0.1 0
23.4 0.1 0
23.7 0.1 0
24 0.1 0
24.3 0.1 0
24.6 0.1 0
24.9 0.1 0
25.2 0.1 0
25.5 0.1 0
25.8 0.1 0
26.1 0.1 0
26.4 0.1 0
26.7 0.1 0
27 0.1 0
27.3 0.1 0
27.6 0.1 0
27.9 0.1 0
28.2 0.1 0
28.5 0.1 0
28.8 0.1 0
29.1 0.1 0
29.4 0.1 0
29.7 0.1 0
30 0.1 0
30.3 0.1 0
30.6 0.1 0
0 0.2 0
0.3 0.2 0
0.6 0.2 0
0.9 0.2 0
1.2 0.2 0
1.5 0.2 0
1.8 0.2 0
2.1 0.2 0
2.4 0.2 0
2.7 0.2 0
3 0.2 0
3.3 0.2 0
3.6 0.2 0
3.9 0.2 0
4.2 0.2 0
4.5 0.2 0
4.8 0.2 0
5.1 0.2 0
5.4 0.2 0
5.7 0.2 0
6 0.2 0
6.3 0.2 0
6.6 0.2 0
6.9 0.2 0
7.2 0.2 0
7.5 0.2 0
7.8 0.2 0
8.1 0.2 0
8.4 0.2 0
8.7 0.2 0
9 0.2 0
9.3 0.2 0
9.6 0.2 0
9.9 0.2 0
10.2 0.2 0
10.5 0.2 0
10.8 0.2 0
11.1 0.2 0
11.4 0.2 0
11.7 0.2 0
12 0.2 0
12.3 0.2 0
12.6 0.2 0
12.9 0.2 0
13.2 0.2 0
13.5 0.2 0
13.8 0.2 0
14.1 0.2 0
14.4 0.2 0
14.7 0.2 0
15 0.2 0
15.3 0.2 0
15.6 0.2 0
15.9 0.2 0
16.2 0.2 0
16.5 0.2 0
16.8 0.2 0
17.1 0.2 0
17.4 0.2 0
17.7 0.2 0
18 0.2 0
18.3 0.2 0
18.6 0.2 0
18.9 0.2 0
19.2 0.2 0
19.5 0.2 0
19.8 0.2 0
20.1 0.2 0
20.4 0.2 0
20.7 0.2 0
21 0.2 0
21.3 0.2 0
21.6 0.2 0
21.9 0.2 0
22.2 0.2 0
22.5 0.2 0
22.8 0.2 0
23.1 0.2 0
23.4 0.2 0
23.7 0.2 0
24 0.2 0
24.3 0.2 0
24.6 0.2 0
24.9 0.2 0
25.2 0.2 0
25.5 0.2 0
25.8 0.2 0
26.1 0.2 0
26.4 0.2 0
26.7 0.2 0
27 0.2 0
27.3 0.2 0
27.6 0.2 0
27.9 0.2 0
28.2 0.2 0
28.5 0.2 0
28.8 0.2 0
29.1 0.2 0
29.4 0.2 0
29.7 0.2 0
30 0.2 0
30.3 0.2 0
30.6 0.2 0
0 0.3 0
0.3 0.3 0
0.6 0.3 0
0.9 0.3 0
1.2 0.3 0
1.5 0.3 0
1.8 0.3 0
2.1 0.3 0
2.4 0.3 0
2.7 0.3 0
3 0.3 0
3.3 0.3 0
3.6 0.3 0
3.9 0.3 0
4.2 0.3 0
4.5 0.3 0
4.8 0.3 0
5.1 0.3 0
5.4 0.3 0
5.7 0.3 0
6 0.3 0
6.3 0.3 0
6.6 0.3 0
6.9 0.3 0
7.2 0.3 0
7.5 0.3 0
7.8 0.3 0
8.1 0.3 0
8.4 0.3 0
8.7 0.3 0
9 0.3 0
9.3 0.3 0
9.6 0.3 0
9.9 0.3 0
10.2 0.3 0
10.5 0.3 0
10.8 0.3 0
11.1 0.3 0
11.4 0.3 0
11.7 0.3 0
12 0.3 0
12.3 0.3 0
12.6 0.3 0
12.9 0.3 0
13.2 0.3 0
13.5 0.3 0
13.8 0.3 0
14.1 0.3 0
14.4 0.3 0
14.7 0.3 0
15 0.3 0
15.3 0.3 0
15.6 0.3 0
15.9 0.3 0
16.2 0.3 0
16.5 0.3 0
16.8 0.3 0
17.1 0.3 0
17.4 0.3 0
17.7 0.3 0
18 0.3 0
18.3 0.3 0
18.6 0.3 0
18.9 0.3 0
19.2 0.3 0
19.5 0.3 0
19.8 0.3 0
20.1 0.3 0
20.4 0.3 0
20.7 0.3 0
21 0.3 0
21.3 0.3 0
21.6 0.3 0
21.9 0.3 0
22.2 0.3 0
22.5 0.3 0
22.8 0.3 0
23.1 0.3 0
23.4 0.3 0
23.7 0.3 0
24 0.3 0
24.3 0.3 0
24.6 0.3 0
24.9 0.3 0
25.2 0.3 0
25.5 0.3 0
25.8 0.3 0
26.1 0.3 0
26.4 0.3 0
26.7 0.3 0
27 0.3 0
27.3 0.3 0
27.6 0.3 0
27.9 0.3 0
28.2 0.3 0
28.5 0.3 0
28.8 0.3 0
29.1 0.3 0
29.4 0.3 0
29.7 0.3 0
30 0.3 0
30.3 0.3 0
30.6 0.3 0
0 0.4 0
0.3 0.4 0
0.6 0.4 0
0.9 0.4 0
1.2 0.4 0
1.5 0.4 0
1.8 0.4 0
2.1 0.4 0
2.4 0.4 0
2.7 0.4 0
3 0.4 0
3.3 0.4 0
3.6 0.4 0
3.9 0.4 0
4.2 0.4 0
4.5 0.4 0
4.8 0.4 0
5.1 0.4 0
5.4 0.4 0
5.7 0.4 0
6 0.4 0
6.3 0.4 0
6.6 0.4 0
6.9 0.4 0
7.2 0.4 0
7.5 0.4 0
7.8 0.4 0
8.1 0.4 0
8.4 0.4 0
8.7 0.4 0
9 0.4 0
9.3 0.4 0
9.6 0.4 0
9.9 0.4 0
10.2 0.4 0
10.5 0.4 0
10.8 0.4 0
11.1 0.4 0
11.4 0.4 0
11.7 0.4 0
12 0.4 0
12.3 0.4 0
12.6 0.4 0
12.9 0.4 0
13.2 0.4 0
13.5 0.4 0
13.8 0.4 0
14.1 0.4 0
14.4 0.4 0
14.7 0.4 0
15 0.4 0
15.3 0.4 0
15.6 0.4 0
15.9 0.4 0
16.2 0.4 0
16.5 0.4 0
16.8 0.4 0
17.1 0.4 0
17.4 0.4 0
17.7 0.4 0
18 0.4 0
18.3 0.4 0
18.6 0.4 0
18.9 0.4 0
19.2 0.4 0
19.5 0.4 0
19.8 0.4 0
20.1 0.4 0
20.4 0.4 0
20.7 0.4 0
21 0.4 0
21.3 0.4 0
21.6 0.4 0
21.9 0.4 0
22.2 0.4 0
22.5 0.4 0
22.8 0.4 0
23.1 0.4 0
23.4 0.4 0
23.7 0.4 0
24 0.4 0
24.3 0.4 0
24.6 0.4 0
24.9 0.4 0
25.2 0.4 0
25.5 0.4 0
25.8 0.4 0
26.1 0.4 0
26.4 0.4 0
26.7 0.4 0
27 0.4 0
27.3 0.4 0
27.6 0.4 0
27.9 0.4 0
28.2 0.4 0
28.5 0.4 0
28.8 0.4 0
29.1 0.4 0
29.4 0.4 0
29.7 0.4 0
30 0.4 0
30.3 0.4 0
30.6 0.4 0
0 0.5 0
0.3 0.5 0
0.6 0.5 0
0.9 0.5 0
1.2 0.5 0
1.5 0.5 0
1.8 0.5 0
2.1 0.5 0
2.4 0.5 0
2.7 0.5 0
3 0.5 0
3.3 0.5 0
3.6 0.5 0
3.9 0.5 0
4.2 0.5 0
4.5 0.5 0
4.8 0.5 0
5.1 0.5 0
5.4 0.5 0
5.7 0.5 0
6 0.5 0
6.3 0.5 0
6.6 0.5 0
6.9 0.5 0
7.2 0.5 0
7.5 0.5 0
7.8 0.5 0
8.1 0.5 0
8.4 0.5 0
8.7 0.5 0
9 0.5 0
9.3 0.5 0
9.6 0.5 0
9.9 0.5 0
10.2 0.5 0
10.5 0.5 0
10.8 0.5 0
11.1 0.5 0
11.4 0.5 0
11.7 0.5 0
12 0.5 0
12.3 0.5 0
12.6 0.5 0
12.9 0.5 0
13.2 0.5 0
13.5 0.5 0
13.8 0.5 0
14.1 0.5 0
14.4 0.5 0
14.7 0.5 0
15 0.5 0
15.3 0.5 0
15.6 0.5 0
15.9 0.5 0
16.2 0.5 0
16.5 0.5 0
16.8 0.5 0
17.1 0.5 0
17.4 0.5 0
17.7 0.5 0
18 0.5 0
18.3 0.5 0
18.6 0.5 0
18.9 0.5 0
19.2 0.5 0
19.5 0.5 0
19.8 0.5 0
20.1 0.5 0
20.4 0.5 0
20.7 0.5 0
21 0.5 0
21.3 0.5 0
21.6 0.5 0
21.9 0.5 0
22.2 0.5 0
22.5 0.5 0
22.8 0.5 0
23.1 0.5 0
23.4 0.5 0
23.7 0.5 0
24 0.5 0
24.3 0.5 0
24.6 0.5 0
24.9 0.5 0
25.2 0.5 0
25.5 0.5 0
25.8 0.5 0
26.1 0.5 0
26.4 0.5 0
26.7 0.5 0
27 0.5 0
27.3 0.5 0
27.6 0.5 0
27.9 0.5 0
28.2 0.5 0
28.5 0.5 0
28.8 0.5 0
29.1 0.5 0
29.4 0.5 0
29.7 0.5 0
30 0.5 0
30.3 0.5 0
30.6 0.5 0
0 0.6 0
0.3 0.6 0
0.6 0.6 0
0.9 0.6 0
1.2 0.6 0
1.5 0.6 0
1.8 0.6 0
2.1 0.6 0
2.4 0.6 0
2.7 0.6 0
3 0.6 0
3.3 0.6 0
3.6 0.6 0
3.9 0.6 0
4.2 0.6 0
4.5 0.6 0
4.8 0.6 0
5.1 0.6 0
5.4 0.6 0
5.7 0.6 0
6 0.6 0
6.3 0.6 0
6.6 0.6 0
6.9 0.6 0
7.2 0.6 0
7.5 0.6 0
7.8 0.6 0
8.1 0.6 0
8.4 0.6 0
8.7 0.6 0
9 0.6 0
9.3 0.6 0
9.6 0.6 0
9.9 0.6 0
10.2 0.6 0
10.5 0.6 0
10.8 0.6 0
11.1 0.6 0
11.4 0.6 0
11.7 0.6 0
12 0.6 0
12.3 0.6 0
12.6 0.6 0
12.9 0.6 0
13.2 0.6 0
13.5 0.6 0
13.8 0.6 0
14.1 0.6 0
14.4 0.6 0
14.7 0.6 0
15 0.6 0
15.3 0.6 0
15.6 0.6 0
15.9 0.6 0
16.2 0.6 0
16.5 0.6 0
16.8 0.6 0
17.1 0.6 0
17.4 0.6 0
17.7 0.6 0
18 0.6 0
18.3 0.6 0
18.6 0.6 0
18.9 0.6 0
19.2 0.6 0
19.5 0.6 0
19.8 0.6 0
20.1 0.6 0
20.4 0.6 0
20.7 0.6 0
21 0.6 0
21.3 0.6 0
21.6 0.6 0
21.9 0.6 0
22.2 0.6 0
22.5 0.6 0
22.8 0.6 0
23.1 0.6 0
23.4 0.6 0
23.7 0.6 0
24 0.6 0
24.3 0.6 0
24.6 0.6 0
24.9 0.6 0
25.2 0.6 0
25.5 0.6 0
25.8 0.6 0
26.1 0.6 0
26.4 0.6 0
26.7 0.6 0
27 0.6 0
27.3 0.6 0
27.6 0.6 0
27.9 0.6 0
28.2 0.6 0
28.5 0.6 0
28.8 0.6 0
29.1 0.6 0
29.4 0.6 0
29.7 0.6 0
30 0.6 0
30.3 0.6 0
30.6 0.6 0
0 0.7 0
0.3 0.7 0
0.6 0.7 0
0.9 0.7 0
1.2 0.7 0
1.5 0.7 0
1.8 0.7 0
2.1 0.7 0
2.4 0.7 0
2.7 0.7 0
3 0.7 0
3.3 0.7 0
3.6 0.7 0
3.9 0.7 0
4.2 0.7 0
4.5 0.7 0
4.8 0.7 0
5.1 0.7 0
5.4 0.7 0
5.7 0.7 0
6 0.7 0
6.3 0.7 0
6.6 0.7 0
6.9 0.7 0
7.2 0.7 0
7.5 0.7 0
7.8 0.7 0
8.1 0.7 0
8.4 0.7 0
8.7 0.7 0
9 0.7 0
9.3 0.7 0
9.6 0.7 0
9.9 0.7 0
10.2 0.7 0
10.5 0.7 0
10.8 0.7 0
11.1 0.7 0
11.4 0.7 0
11.7 0.7 0
12 0.7 0
12.3 0.7 0
12.6 0.7 0
12.9 0.7 0
13.2 0.7 0
13.5 0.7 0
13.8 0.7 0
14.1 0.7 0
14.4 0.7 0
14.7 0.7 0
15 0.7 0
15.3 0.7 0
15.6 0.7 0
15.9 0.7 0
16.2 0.7 0
16.5 0.7 0
16.8 0.7 0
17.1 0.7 0
17.4 0.7 0
17.7 0.7 0
18 0.7 0
18.3 0.7 0
18.6 0.7 0
18.9 0.7 0
19.2 0.7 0
19.5 0.7 0
19.8 0.7 0
20.1 0.7 0
20.4 0.7 0
20.7 0.7 0
21 0.7 0
21.3 0.7 0
21.6 0.7 0
21.9 0.7 0
22.2 0.7 0
22.5 0.7 0
22.8 0.7 0
23.1 0.7 0
23.4 0.7 0
23.7 0.7 0
24 0.7 0
24.3 0.7 0
24.6 0.7 0
24.9 0.7 0
25.2 0.7 0
25.5 0.7 0
25.8 0.7 0
26.1 0.7 0
26.4 0.7 0
26.7 0.7 0
27 0.7 0
27.3 0.7 0
27.6 0.7 0
27.9 0.7 0
28.2 0.7 0
28.5 0.7 0
28.8 0.7 0
29.1 0.7 0
29.4 0.7 0
29.7 0.7 0
30 0.7 0
30.3 0.7 0
30.6 0.7 0
0 0.8 0
0.3 0.8 0
0.6 0.8 0
0.9 0.8 0
1.2 0.8 0
1.5 0.8 0
1.8 0.8 0
2.1 0.8 0
2.4 0.8 0
2.7 0.8 0
3 0.8 0
3.3 0.8 0
3.6 0.8 0
3.9 0.8 0
4.2 0.8 0
4.5 0.8 0
4.8 0.8 0
5.1 0.8 0
5.4 0.8 0
5.7 0.8 0
6 0.8 0
6.3 0.8 0
6.6 0.8 0
6.9 0.8 0
7.2 0.8 0
7.5 0.8 0
7.8 0.8 0
8.1 0.8 0
8.4 0.8 0
8.7 0.8 0
9 0.8 0
9.3 0.8 0
9.6 0.8 0
9.9 0.8 0
10.2 0.8 0
10.5 0.8 0
10.8 0.8 0
11.1 0.8 0
11.4 0.8 0
11.7 0.8 0
12 0.8 0
12.3 0.8 0
12.6 0.8 0
12.9 0.8 0
13.2 0.8 0
13.5 0.8 0
13.8 0.8 0
14.1 0.8 0
14.4 0.8 0
14.7 0.8 0
15 0.8 0
15.3 0.8 0
15.6 0.8 0
15.9 0.8 0
16.2 0.8 0
16.5 0.8 0
16.8 0.8 0
17.1 0.8 0
17.4 0.8 0
17.7 0.8 0
18 0.8 0
18.3 0.8 0
18.6 0.8 0
18.9 0.8 0
19.2 0.8 0
19.5 0.8 0
19.8 0.8 0
20.1 0.8 0
20.4 0.8 0
20.7 0.8 0
21 0.8 0
21.3 0.8 0
21.6 0.8 0
21.9 0.8 0
22.2 0.8 0
22.5 0.8 0
22.8 0.8 0
23.1 0.8 0
23.4 0.8 0
23.7 0.8 0
24 0.8 0
24.3 0.8 0
24.6 0.8 0
24.9 0.8 0
25.2 0.8 0
25.5 0.8 0
25.8 0.8 0
26.1 0.8 0
26.4 0.8 0
26.7 0.8 0
27 0.8 0
27.3 0.8 0
27.6 0.8 0
27.9 0.8 0
28.2 0.8 0
28.5 0.8 0
28.8 0.8 0
29.1 0.8 0
29.4 0.8 0
29.7 0.8 0
30 0.8 0
30.3 0.8 0
30.6 0.8 0
0 0.9 0
0.3 0.9 0
0.6 0.9 0
0.9 0.9 0
1.2 0.9 0
1.5 0.9 0
1.8 0.9 0
2.1 0.9 0
2.4 0.9 0
2.7 0.9 0
3 0.9 0
3.3 0.9 0
3.6 0.9 0
3.9 0.9 0
4.2 0.9 0
4.5 0.9 0
4.8 0.9 0
5.1 0.9 0
5.4 0.9 0
5.7 0.9 0
6 0.9 0
6.3 0.9 0
6.6 0.9 0
6.9 0.9 0
7.2 0.9 0
7.5 0.9 0
7.8 0.9 0
8.1 0.9 0
8.4 0.9 0
8.7 0.9 0
9 0.9 0
9.3 0.9 0
9.6 0.9 0
9.9 0.9 0
10.2 0.9 0
10.5 0.9 0
10.8 0.9 0
11.1 0.9 0
11.4 0.9 0
11.7 0.9 0
12 0.9 0
12.3 0.9 0
12.6 0.9 0
12.9 0.9 0
13.2 0.9 0
13.5 0.9 0
13.8 0.9 0
14.1 0.9 0
14.4 0.9 0
14.7 0.9 0
15 0.9 0
15.3 0.9 0
15.6 0.9 0
15.9 0.9 0
16.2 0.9 0
16.5 0.9 0
16.8 0.9 0
17.1 0.9 0
17.4 0.9 0
17.7 0.9 0
18 0.9 0
18.3 0.9 0
18.6 0.9 0
18.9 0.9 0
19.2 0.9 0
19.5 0.9 0
19.8 0.9 0
20.1 0.9 0
20.4 0.9 0
20.7 0.9 0
21 0.9 0
21.3 0.9 0
21.6 0.9 0
21.9 0.9 0
22.2 0.9 0
22.5 0.9 0
22.8 0.9 0
23.1 0.9 0
23.4 0.9 0
23.7 0.9 0
24 0.9 0
24.3 0.9 0
24.6 0.9 0
24.9 0.9 0
25.2 0.9 0
25.5 0.9 0
25.8 0.9 0
26.1 0.9 0
26.4 0.9 0
26.7 0.9 0
27 0.9 0
27.3 0.9 0
27.6 0.9 0
27.9 0.9 0
28.2 0.9 0
28.5 0.9 0
28.8 0.9 0
29.1 0.9 0
29.4 0.9 0
29.7 0.9 0
30 0.9 0
30.3 0.9 0
30.6 0.9 0
0 1 0
0.3 1 0
0.6 1 0
0.9 1 0
1.2 1 0
1.5 1 0
1.8 1 0
2.1 1 0
2.4 1 0
2.7 1 0
3 1 0
3.3 1 0
3.6 1 0
3.9 1 0
4.2 1 0
4.5 1 0
4.8 1 0
5.1 1 0
5.4 1 0
5.7 1 0
6 1 0
6.3 1 0
6.6 1 0
6.9 1 0
7.2 1 0
7.5 1 0
7.8 1 0
8.1 1 0
8.4 1 0
8.7 1 0
9 1 0
9.3 1 0
9.6 1 0
9.9 1 0
10.2 1 0
10.5 1 0
10.8 1 0
11.1 1 0
11.4 1 0
11.7 1 0
12 1 0
12.3 1 0
12.6 1 0
12.9 1 0
13.2 1 0
13.5 1 0
13.8 1 0
14.1 1 0
14.4 1 0
14.7 1 0
15 1 0
15.3 1 0
15.6 1 0
15.9 1 0
16.2 1 0
16.5 1 0
16.8 1 0
17.1 1 0
17.4 1 0
17.7 1 0
18 1 0
18.3 1 0
18.6 1 0
18.9 1 0
19.2 1 0
19.5 1 0
19.8 1 0
20.1 1 0
20.4 1 0
20.7 1 0
21 1 0
21.3 1 0
21.6 1 0
21.9 1 0
22.2 1 0
22.5 1 0
22.8 1 0
23.1 1 0
23.4 1 0
23.7 1 0
24 1 0
24.3 1 0
24.6 1 0
24.9 1 0
25.2 1 0
25.5 1 0
25.8 1 0
26.1 1 0
26.4 1 0
26.7 1 0
27 1 0
27.3 1 0
27.6 1 0
27.9 1 0
28.2 1 0
28.5 1 0
28.8 1 0
29.1 1 0
29.4 1 0
29.7 1 0
30 1 0
30.3 1 0
30.6 1 0
0 1.1 0
0.3 1.1 0
0.6 1.1 0
0.9 1.1 0
1.2 1.1 0
1.5 1.1 0
1.8 1.1 0
2.1 1.1 0
2.4 1.1 0
2.7 1.1 0
3 1.1 0
3.3 1.1 0
3.6 1.1 0
3.9 1.1 0
4.2 1.1 0
4.5 1.1 0
4.8 1.1 0
5.1 1.1 0
5.4 1.1 0
5.7 1.1 0
6 1.1 0
6.3 1.1 0
6.6 1.1 0
6.9 1.1 0
7.2 1.1 0
7.5 1.1 0
7.8 1.1 0
8.1 1.1 0
8.4 1.1 0
8.7 1.1 0
9 1.1 0
9.3 1.1 0
9.6 1.1 0
9.9 1.1 0
10.2 1.1 0
10.5 1.1 0
10.8 1.1 0
11.1 1.1 0
11.4 1.1 0
11.7 1.1 0
12 1.1 0
12.3 1.1 0
12.6 1.1 0
12.9 1.1 0
13.2 1.1 0
13.5 1.1 0
13.8 1.1 0
14.1 1.1 0
14.4 1.1 0
14.7 1.1 0
15 1.1 0
15.3 1.1 0
15.6 1.1 0
15.9 1.1 0
16.2 1.1 0
16.5 1.1 0
16.8 1.1 0
17.1 1.1 0
17.4 1.1 0
17.7 1.1 0
18 1.1 0
18.3 1.1 0
18.6 1.1 0
18.9 1.1 0
19.2 1.1 0
19.5 1.1 0
19.8 1.1 0
20.1 1.1 0
20.4 1.1 0
20.7 1.1 0
21 1.1 0
21.3 1.1 0
21.6 1.1 0
21.9 1.1 0
22.2 1.1 0
22.5 1.1 0
22.8 1.1 0
23.1 1.1 0
23.4 1.1 0
23.7 1.1 0
24 1.1 0
24.3 1.1 0
24.6 1.1 0
24.9 1.1 0
25.2 1.1 0
25.5 1.1 0
25.8 1.1 0
26.1 1.1 0
26.4 1.1 0
26.7 1.1 0
27 1.1 0
27.3 1.1 0
27.6 1.1 0
27.9 1.1 0
28.2 1.1 0
28.5 1.1 0
28.8 1.1 0
29.1 1.1 0
29.4 1.1 0
29.7 1.1 0
30 1.1 0
30.3 1.1 0
30.6 1.1 0
0 1.2 0
0.3 1.2 0
0.6 1.2 0
0.9 1.2 0
1.2 1.2 0
1.5 1.2 0
1.8 1.2 0
2.1 1.2 0
2.4 1.2 0
2.7 1.2 0
3 1.2 0
3.3 1.2 0
3.6 1.2 0
3.9 1.2 0
4.2 1.2 0
4.5 1.2 0
4.8 1.2 0
5.1 1.2 0
5.4 1.2 0
5.7 1.2 0
6 1.2 0
6.3 1.2 0
6.6 1.2 0
6.9 1.2 0
7.2 1.2 0
7.5 1.2 0
7.8 1.2 0
8.1 1.2 0
8.4 1.2 0
8.7 1.2 0
9 1.2 0
9.3 1.2 0
9.6 1.2 0
9.9 1.2 0
10.2 1.2 0
10.5 1.2 0
10.8 1.2 0
11.1 1.2 0
11.4 1.2 0
11.7 1.2 0
12 1.2 0
12.3 1.2 0
12.6 1.2 0
12.9 1.2 0
13.2 1.2 0
13.5 1.2 0
13.8 1.2 0
14.1 1.2 0
14.4 1.2 0
14.7 1.2 0
15 1.2 0
15.3 1.2 0
15.6 1.2 0
15.9 1.2 0
16.2 1.2 0
16.5 1.2 0
16.8 1.2 0
17.1 1.2 0
17.4 1.2 0
17.7 1.2 0
18 1.2 0
18.3 1.2 0
18.6 1.2 0
18.9 1.2 0
19.2 1.2 0
19.5 1.2 0
19.8 1.2 0
20.1 1.2 0
20.4 1.2 0
20.7 1.2 0
21 1.2 0
21.3 1.2 0
21.6 1.2 0
21.9 1.2 0
22.2 1.2 0
22.5 1.2 0
22.8 1.2 0
23.1 1.2 0
23.4 1.2 0
23.7 1.2 0
24 1.2 0
24.3 1.2 0
24.6 1.2 0
24.9 1.2 0
25.2 1.2 0
25.5 1.2 0
25.8 1.2 0
26.1 1.2 0
26.4 1.2 0
26.7 1.2 0
27 1.2 0
27.3 1.2 0
27.6 1.2 0
27.9 1.2 0
28.2 1.2 0
28.5 1.2 0
28.8 1.2 0
29.1 1.2 0
29.4 1.2 0
29.7 1.2 0
30 1.2 0
30.3 1.2 0
30.6 1.2 0

POINT_DATA 1339

SCALARS pressure double
LOOKUP_TABLE pressure
1.17135
1.17135
1.10651
1.06227
1.02245
0.985876
0.952824
0.923294
0.896939
0.87323
0.851627
0.831664
0.812971
0.795273
0.778366
0.762106
0.746388
0.731132
0.716279
0.701784
0.687611
0.673726
0.660105
0.646726
0.633571
0.62062
0.607861
0.595279
0.582861
0.570597
0.558476
0.546489
0.534628
0.522885
0.511252
0.499723
0.488292
0.476952
0.465699
0.454527
0.443432
0.432409
0.421455
0.410565
0.399736
0.388964
0.378247
0.367582
0.356965
0.346394
0.335866
0.325379
0.314931
0.30452
0.294144
0.283801
0.273489
0.263206
0.252952
0.242724
0.232521
0.222341
0.212184
0.202049
0.191933
0.181836
0.171758
0.161696
0.151651
0.141621
0.131605
0.121604
0.111615
0.101639
0.0916749
0.0817221
0.0717802
0.0618489
0.0519277
0.0420161
0.0321141
0.0222211
0.0123367
0.00246076
-0.00740708
-0.0172673
-0.0271202
-0.0369661
-0.0468055
-0.0566387
-0.0664663
-0.0762886
-0.0861061
-0.0959191
-0.105728
-0.115534
-0.125336
-0.135136
-0.144933
-0.154728
-0.164521
-0.174313
0.174313
1.17135
1.17135
1.10651
1.06227
1.02245
0.985876
0.952824
0.923294
0.896939
0.87323
0.851627
0.831664
0.812971
0.795273
0.778366
0.762106
0.746388
0.731132
0.716279
0.701784
0.687611
0.673726
0.660105
0.646726
0.633571
0.62062
0.607861
0.595279
0.582861
0.570597
0.558476
0.546489
0.534628
0.522885
0.511252
0.499723
0.488292
0.476952
0.465699
0.454527
0.443432
0.432409
0.421455
0.410565
0.399736
0.388964
0.378247
0.367582
0.356965
0.346394
0.335866
0.325379
0.314931
0.30452
0.294144
0.283801
0.273489
0.263206
0.252952
0.242724
0.232521
0.222341
0.212184
0.202049
0.191933
0.181836
0.171758
0.161696
0.151651
0.141621
0.131605
0.121604
0.111615
0.101639
0.0916749
0.0817221
0.0717802
0.0618489
0.0519277
0.0420161
0.0321141
0.0222211
0.0123367
0.00246076
-0.00740708
-0.0172673
-0.0271202
-0.0369661
-0.0468055
-0.0566387
-0.0664663
-0.0762886
-0.0861061
-0.0959191
-0.105728
-0.115534
-0.125336
-0.135136
-0.144933
-0.154728
-0.164521
-0.174313
0.174313
1.15041
1.15041
1.10452
1.0625
1.02315
0.986672
0.953566
0.923926
0.897446
0.873625
0.851931
0.831898
0.813153
0.795417
0.778483
0.762203
0.74647
0.731203
0.716342
0.70184
0.68766
0.67377
0.660145
0.646763
0.633604
0.620651
0.607889
0.595305
0.582885
0.570619
0.558497
0.546509
0.534646
0.522902
0.511268
0.499738
0.488305
0.476965
0.465711
0.454538
0.443442
0.432419
0.421464
0.410574
0.399744
0.388972
0.378255
0.367589
0.356971
0.3464
0.335872
0.325385
0.314937
0.304525
0.294149
0.283805
0.273493
0.26321
0.252956
0.242727
0.232524
0.222344
0.212187
0.202051
0.191936
0.181839
0.17176
0.161699
0.151653
0.141623
0.131607
0.121605
0.111617
0.101641
0.0916763
0.0817234
0.0717815
0.0618501
0.0519288
0.0420171
0.032115
0.0222219
0.0123374
0.00246143
-0.00740651
-0.0172668
-0.0271198
-0.0369658
-0.0468052
-0.0566385
-0.0664661
-0.0762884
-0.0861059
-0.095919
-0.105728
-0.115534
-0.125336
-0.135136
-0.144933
-0.154728
-0.164521
-0.174312
0.174312
1.13543
1.13543
1.10164
1.06273
1.02426
0.987996
0.954827
0.925004
0.898308
0.874284
0.852423
0.832262
0.813425
0.795622
0.778641
0.762328
0.746572
0.731287
0.716413
0.701901
0.687713
0.673817
0.660186
0.6468
0.633637
0.620681
0.607916
0.59533
0.582908
0.570639
0.558516
0.546526
0.534662
0.522917
0.511281
0.49975
0.488317
0.476976
0.465721
0.454548
0.443451
0.432427
0.421472
0.410581
0.399751
0.388979
0.378261
0.367594
0.356976
0.346405
0.335876
0.325389
0.314941
0.304529
0.294153
0.283809
0.273496
0.263213
0.252958
0.24273
0.232526
0.222347
0.212189
0.202053
0.191938
0.181841
0.171762
0.1617
0.151655
0.141624
0.131609
0.121607
0.111618
0.101642
0.0916775
0.0817245
0.0717825
0.061851
0.0519296
0.0420179
0.0321157
0.0222225
0.012338
0.00246194
-0.00740608
-0.0172664
-0.0271194
-0.0369655
-0.0468049
-0.0566383
-0.0664659
-0.0762883
-0.0861058
-0.0959189
-0.105728
-0.115534
-0.125336
-0.135135
-0.144933
-0.154727
-0.164521
-0.174311
0.174311
1.12586
1.12586
1.09915
1.06284
1.02522
0.98919
0.956003
0.926041
0.899161
0.874957
0.852941
0.832657
0.813727
0.795857
0.778826
0.762478
0.746695
0.73139
0.7165
0.701977
0.687779
0.673875
0.660238
0.646846
0.633679
0.620718
0.60795
0.59536
0.582935
0.570665
0.558539
0.546547
0.534682
0.522934
0.511298
0.499766
0.488331
0.476989
0.465733
0.454559
0.443462
0.432437
0.421481
0.41059
0.399759
0.388986
0.378268
0.367601
0.356983
0.34641
0.335882
0.325394
0.314945
0.304534
0.294157
0.283813
0.2735
0.263217
0.252962
0.242733
0.232529
0.22235
0.212192
0.202056
0.19194
0.181843
0.171764
0.161702
0.151657
0.141626
0.13161
0.121608
0.11162
0.101643
0.0916788
0.0817257
0.0717837
0.0618521
0.0519306
0.0420189
0.0321167
0.0222234
0.0123388
0.00246272
-0.00740538
-0.0172658
-0.0271188
-0.0369649
-0.0468044
-0.0566379
-0.0664655
-0.0762879
-0.0861055
-0.0959186
-0.105728
-0.115533
-0.125336
-0.135135
-0.144932
-0.154727
-0.16452
-0.174308
0.174308
1.12054
1.12054
1.09752
1.06285
1.02581
0.989957
0.956772
0.92673
0.899739
0.875421
0.853305
0.832942
0.81395
0.796033
0.778969
0.762596
0.746794
0.731475
0.716574
0.702041
0.687836
0.673926
0.660284
0.646887
0.633716
0.620752
0.607981
0.595388
0.582961
0.570688
0.55856
0.546567
0.5347
0.522951
0.511314
0.49978
0.488344
0.477001
0.465745
0.45457
0.443472
0.432446
0.42149
0.410598
0.399767
0.388993
0.378274
0.367607
0.356988
0.346416
0.335887
0.325399
0.31495
0.304538
0.294161
0.283817
0.273504
0.26322
0.252965
0.242736
0.232532
0.222352
0.212195
0.202058
0.191942
0.181845
0.171766
0.161704
0.151658
0.141628
0.131612
0.12161
0.111621
0.101645
0.0916801
0.081727
0.0717849
0.0618533
0.0519317
0.04202
0.0321176
0.0222243
0.0123397
0.00246359
-0.00740457
-0.017265
-0.0271181
-0.0369642
-0.0468038
-0.0566373
-0.066465
-0.0762875
-0.0861051
-0.0959182
-0.105727
-0.115533
-0.125335
-0.135135
-0.144932
-0.154727
-0.164518
-0.174305
0.174305
1.11885
1.11885
1.09698
1.06287
1.02602
0.990231
0.957046
0.926975
0.899945
0.875588
0.853438
0.833046
0.814033
0.7961
0.779024
0.762641
0.746832
0.731508
0.716603
0.702067
0.687859
0.673946
0.660302
0.646904
0.633731
0.620766
0.607993
0.5954
0.582971
0.570698
0.558569
0.546575
0.534708
0.522959
0.51132
0.499786
0.48835
0.477007
0.46575
0.454574
0.443476
0.432451
0.421494
0.410601
0.39977
0.388996
0.378277
0.36761
0.356991
0.346418
0.335889
0.325401
0.314952
0.30454
0.294163
0.283818
0.273505
0.263222
0.252966
0.242737
0.232533
0.222353
0.212196
0.202059
0.191943
0.181846
0.171767
0.161705
0.151659
0.141629
0.131613
0.121611
0.111622
0.101645
0.0916807
0.0817275
0.0717854
0.0618538
0.0519322
0.0420205
0.0321181
0.0222247
0.0123402
0.00246398
-0.0074042
-0.0172646
-0.0271178
-0.0369639
-0.0468035
-0.056637
-0.0664648
-0.0762872
-0.0861049
-0.0959181
-0.105727
-0.115533
-0.125335
-0.135135
-0.144932
-0.154727
-0.164518
-0.174304
0.174304
1.12054
1.12054
1.09752
1.06286
1.02581
0.989956
0.956772
0.92673
0.899739
0.875421
0.853305
0.832942
0.81395
0.796033
0.778969
0.762596
0.746794
0.731475
0.716574
0.702041
0.687836
0.673925
0.660284
0.646887
0.633716
0.620752
0.607981
0.595388
0.582961
0.570688
0.55856
0.546567
0.5347
0.522951
0.511313
0.49978
0.488344
0.477001
0.465745
0.45457
0.443472
0.432446
0.42149
0.410598
0.399767
0.388993
0.378274
0.367607
0.356988
0.346416
0.335887
0.325399
0.31495
0.304538
0.294161
0.283817
0.273504
0.26322
0.252965
0.242736
0.232532
0.222352
0.212195
0.202058
0.191942
0.181845
0.171766
0.161704
0.151658
0.141628
0.131612
0.12161
0.111621
0.101645
0.0916801
0.081727
0.0717849
0.0618533
0.0519317
0.04202
0.0321176
0.0222243
0.0123398
0.00246357
-0.00740458
-0.017265
-0.0271181
-0.0369642
-0.0468038
-0.0566373
-0.066465
-0.0762875
-0.0861051
-0.0959182
-0.105727
-0.115533
-0.125335
-0.135135
-0.144932
-0.154727
-0.164518
-0.174305
0.174305
1.12586
1.12586
1.09915
1.06284
1.02522
0.98919
0.956003
0.926041
0.899161
0.874956
0.852941
0.832658
0.813727
0.795856
0.778826
0.762478
0.746695
0.73139
0.716501
0.701977
0.687779
0.673875
0.660238
0.646846
0.633678
0.620718
0.60795
0.59536
0.582935
0.570665
0.558539
0.546547
0.534682
0.522934
0.511298
0.499766
0.488331
0.476989
0.465733
0.454559
0.443462
0.432437
0.421481
0.410589
0.399759
0.388986
0.378268
0.367601
0.356983
0.34641
0.335882
0.325394
0.314945
0.304534
0.294157
0.283813
0.2735
0.263217
0.252962
0.242733
0.232529
0.22235
0.212192
0.202056
0.19194
0.181843
0.171764
0.161702
0.151657
0.141626
0.13161
0.121608
0.11162
0.101643
0.0916788
0.0817257
0.0717837
0.0618521
0.0519306
0.042019
0.0321166
0.0222234
0.0123388
0.0024627
-0.0074054
-0.0172658
-0.0271188
-0.0369649
-0.0468045
-0.0566379
-0.0664655
-0.076288
-0.0861055
-0.0959186
-0.105728
-0.115533
-0.125336
-0.135135
-0.144932
-0.154727
-0.16452
-0.174308
0.174308
1.13543
1.13543
1.10164
1.06273
1.02427
0.987995
0.954826
0.925004
0.898308
0.874284
0.852424
0.832263
0.813425
0.795622
0.778641
0.762329
0.746571
0.731287
0.716413
0.701901
0.687713
0.673816
0.660187
0.6468
0.633637
0.620681
0.607916
0.595329
0.582907
0.57064
0.558516
0.546526
0.534662
0.522917
0.511281
0.49975
0.488317
0.476976
0.465721
0.454548
0.443451
0.432427
0.421472
0.410581
0.399751
0.388979
0.378261
0.367594
0.356976
0.346405
0.335876
0.325389
0.314941
0.304529
0.294153
0.283809
0.273496
0.263213
0.252958
0.24273
0.232526
0.222347
0.212189
0.202053
0.191938
0.181841
0.171762
0.1617
0.151655
0.141624
0.131609
0.121607
0.111618
0.101642
0.0916774
0.0817245
0.0717825
0.061851
0.0519296
0.042018
0.0321157
0.0222225
0.012338
0.00246193
-0.00740611
-0.0172664
-0.0271194
-0.0369655
-0.046805
-0.0566383
-0.0664659
-0.0762883
-0.0861058
-0.0959189
-0.105728
-0.115534
-0.125336
-0.135135
-0.144933
-0.154728
-0.164521
-0.174311
0.174311
1.15041
1.15041
1.10452
1.0625
1.02315
0.986671
0.953565
0.923926
0.897446
0.873625
0.851931
0.831898
0.813154
0.795417
0.778483
0.762204
0.74647
0.731203
0.716342
0.70184
0.687659
0.67377
0.660145
0.646763
0.633604
0.620651
0.607889
0.595305
0.582885
0.570619
0.558497
0.546509
0.534646
0.522902
0.511268
0.499738
0.488305
0.476965
0.465711
0.454538
0.443442
0.432419
0.421464
0.410574
0.399744
0.388972
0.378255
0.367589
0.356971
0.3464
0.335872
0.325385
0.314937
0.304525
0.294149
0.283805
0.273493
0.26321
0.252956
0.242727
0.232524
0.222344
0.212187
0.202051
0.191936
0.181839
0.17176
0.161699
0.151653
0.141623
0.131607
0.121605
0.111617
0.101641
0.0916763
0.0817234
0.0717815
0.0618501
0.0519288
0.0420172
0.032115
0.0222219
0.0123375
0.00246142
-0.00740654
-0.0172668
-0.0271197
-0.0369657
-0.0468052
-0.0566385
-0.0664661
-0.0762884
-0.0861059
-0.095919
-0.105728
-0.115534
-0.125336
-0.135136
-0.144933
-0.154728
-0.164521
-0.174312
0.174312
1.17135
1.17135
1.10651
1.06227
1.02245
0.985874
0.952822
0.923295
0.896939
0.87323
0.851628
0.831665
0.812972
0.795272
0.778366
0.762106
0.746387
0.731132
0.71628
0.701785
0.68761
0.673726
0.660105
0.646726
0.63357
0.62062
0.607861
0.595279
0.582861
0.570597
0.558476
0.546489
0.534628
0.522885
0.511252
0.499723
0.488292
0.476952
0.465699
0.454527
0.443432
0.432409
0.421455
0.410565
0.399736
0.388965
0.378248
0.367582
0.356965
0.346394
0.335866
0.325379
0.314931
0.30452
0.294144
0.283801
0.273489
0.263206
0.252952
0.242724
0.232521
0.222341
0.212184
0.202049
0.191933
0.181836
0.171758
0.161696
0.151651
0.141621
0.131605
0.121604
0.111615
0.101639
0.0916748
0.0817221
0.0717802
0.0618489
0.0519277
0.0420162
0.0321141
0.022221
0.0123367
0.00246077
-0.00740712
-0.0172673
-0.0271202
-0.0369661
-0.0468055
-0.0566388
-0.0664663
-0.0762886
-0.086106
-0.0959191
-0.105728
-0.115534
-0.125336
-0.135136
-0.144933
-0.154728
-0.164521
-0.174313
0.174313
1.17135
1.17135
1.10651
1.06227
1.02245
0.985874
0.952822
0.923295
0.896939
0.87323
0.851628
0.831665
0.812972
0.795272
0.778366
0.762106
0.746387
0.731132
0.71628
0.701785
0.68761
0.673726
0.660105
0.646726
0.63357
0.62062
0.607861
0.595279
0.582861
0.570597
0.558476
0.546489
0.534628
0.522885
0.511252
0.499723
0.488292
0.476952
0.465699
0.454527
0.443432
0.432409
0.421455
0.410565
0.399736
0.388965
0.378248
0.367582
0.356965
0.346394
0.335866
0.325379
0.314931
0.30452
0.294144
0.283801
0.273489
0.263206
0.252952
0.242724
0.232521
0.222341
0.212184
0.202049
0.191933
0.181836
0.171758
0.161696
0.151651
0.141621
0.131605
0.121604
0.111615
0.101639
0.0916748
0.0817221
0.0717802
0.0618489
0.0519277
0.0420162
0.0321141
0.022221
0.0123367
0.00246077
-0.00740712
-0.0172673
-0.0271202
-0.0369661
-0.0468055
-0.0566388
-0.0664663
-0.0762886
-0.086106
-0.0959191
-0.105728
-0.115534
-0.125336
-0.135136
-0.144933
-0.154728
-0.164521
-0.174313
0.174313
SCALARS phi double
LOOKUP_TABLE phi
1
1
1
1
0.999999
0.999994
0.999983
0.999958
0.99991
0.99983
0.999706
0.999526
0.999278
0.998951
0.998536
0.998024
0.997407
0.996678
0.995834
0.994869
0.993783
0.992573
0.991241
0.989788
0.988215
0.986522
0.984699
0.982725
0.980561
0.978146
0.975404
0.972241
0.968555
0.964241
0.959197
0.953333
0.946572
0.938854
0.930136
0.920396
0.909629
0.897848
0.885082
0.87137
0.856766
0.841331
0.825133
0.808245
0.790742
0.772703
0.754203
0.735318
0.716122
0.696686
0.677076
0.657354
0.637581
0.617811
0.598094
0.578475
0.558997
0.539697
0.520608
0.501761
0.483181
0.464893
0.446914
0.429264
0.411955
0.395
0.378409
0.362189
0.346346
0.330884
0.315806
0.301113
0.286805
0.272882
0.259342
0.246182
0.233401
0.220995
0.208959
0.197292
0.185989
0.175046
0.164461
0.154229
0.144349
0.134818
0.125633
0.116794
0.108298
0.100147
0.0923401
0.0848766
0.0777614
0.0709824
0.0645867
0.0584139
0.0530417
0.0463641
0.0463641
1
1
1
1
0.999999
0.999994
0.999983
0.999958
0.99991
0.99983
0.999706
0.999526
0.999278
0.998951
0.998536
0.998024
0.997407
0.996678
0.995834
0.994869
0.993783
0.992573
0.991241
0.989788
0.988215
0.986522
0.984699
0.982725
0.980561
0.978146
0.975404
0.972241
0.968555
0.964241
0.959197
0.953333
0.946572
0.938854
0.930136
0.920396
0.909629
0.897848
0.885082
0.87137
0.856766
0.841331
0.825133
0.808245
0.790742
0.772703
0.754203
0.735318
0.716122
0.696686
0.677076
0.657354
0.637581
0.617811
0.598094
0.578475
0.558997
0.539697
0.520608
0.501761
0.483181
0.464893
0.446914
0.429264
0.411955
0.395
0.378409
0.362189
0.346346
0.330884
0.315806
0.301113
0.286805
0.272882
0.259342
0.246182
0.233401
0.220995
0.208959
0.197292
0.185989
0.175046
0.164461
0.154229
0.144349
0.134818
0.125633
0.116794
0.108298
0.100147
0.0923401
0.0848766
0.0777614
0.0709824
0.0645867
0.0584139
0.0530417
0.0463641
0.0463641
1
1
1
0.999996
0.999983
0.999954
0.999898
0.999804
0.999658
0.999447
0.999157
0.998778
0.9983
0.997714
0.997014
0.996196
0.995256
0.994192
0.993003
0.991689
0.990252
0.988694
0.987016
0.985224
0.98332
0.981309
0.979193
0.976972
0.974639
0.972177
0.969562
0.966755
0.963708
0.960364
0.956656
0.952517
0.947877
0.942669
0.936834
0.930318
0.923079
0.915086
0.906317
0.896764
0.88643
0.875327
0.863476
0.850908
0.837661
0.823776
0.809302
0.794288
0.778787
0.762853
0.74654
0.729902
0.712992
0.69586
0.678557
0.661128
0.643619
0.626072
0.608525
0.591015
0.573576
0.556239
0.539031
0.521979
0.505105
0.48843
0.471973
0.45575
0.439774
0.424058
0.408612
0.393445
0.378563
0.363972
0.349674
0.335673
0.32197
0.308565
0.295455
0.28264
0.270116
0.25788
0.245927
0.234253
0.222852
0.211719
0.200848
0.190234
0.179871
0.169756
0.159884
0.150251
0.140863
0.131692
0.12284
0.113973
0.106242
0.0957705
0.0957705
0.999997
1
0.99998
0.999897
0.999724
0.999434
0.998999
0.998397
0.997613
0.996636
0.995464
0.994099
0.992547
0.990816
0.988916
0.986859
0.984656
0.982317
0.979854
0.977278
0.974598
0.971826
0.968969
0.966037
0.963036
0.959976
0.956863
0.953702
0.950497
0.947251
0.943962
0.940624
0.937226
0.933752
0.930181
0.926485
0.922633
0.918589
0.914315
0.909772
0.90492
0.899723
0.894145
0.888153
0.881722
0.874827
0.867453
0.859587
0.851223
0.842361
0.833004
0.823162
0.812847
0.802078
0.790875
0.77926
0.76726
0.754902
0.742214
0.729226
0.715968
0.702471
0.688764
0.674877
0.66084
0.64668
0.632425
0.618101
0.603733
0.589345
0.57496
0.560597
0.546278
0.532019
0.517839
0.503752
0.489771
0.47591
0.462178
0.448585
0.435139
0.421845
0.408709
0.395732
0.382917
0.370263
0.357768
0.345429
0.333242
0.321201
0.309297
0.297522
0.285866
0.274318
0.262867
0.251497
0.240211
0.228944
0.217864
0.206389
0.196365
0.181865
0.181865
0.999999
1
0.99943
0.998224
0.996402
0.994008
0.991093
0.987716
0.983939
0.979828
0.975446
0.970853
0.966103
0.961239
0.9563
0.951318
0.946317
0.94132
0.936342
0.931396
0.926494
0.921643
0.91685
0.91212
0.907457
0.902862