# vtk DataFile Version 3.0
FlowField
ASCII
DATASET STRUCTURED_GRID
DIMENSIONS 103 13 1 
POINTS 1339 double
0 0 0
0.3 0 0
0.6 0 0
0.9 0 0
1.2 0 0
1.5 0 0
1.8 0 0
2.1 0 0
2.4 0 0
2.7 0 0
3 0 0
3.3 0 0
3.6 0 0
3.9 0 0
4.2 0 0
4.5 0 0
4.8 0 0
5.1 0 0
5.4 0 0
5.7 0 0
6 0 0
6.3 0 0
6.6 0 0
6.9 0 0
7.2 0 0
7.5 0 0
7.8 0 0
8.1 0 0
8.4 0 0
8.7 0 0
9 0 0
9.3 0 0
9.6 0 0
9.9 0 0
10.2 0 0
10.5 0 0
10.8 0 0
11.1 0 0
11.4 0 0
11.7 0 0
12 0 0
12.3 0 0
12.6 0 0
12.9 0 0
13.2 0 0
13.5 0 0
13.8 0 0
14.1 0 0
14.4 0 0
14.7 0 0
15 0 0
15.3 0 0
15.6 0 0
15.9 0 0
16.2 0 0
16.5 0 0
16.8 0 0
17.1 0 0
17.4 0 0
17.7 0 0
18 0 0
18.3 0 0
18.6 0 0
18.9 0 0
19.2 0 0
19.5 0 0
19.8 0 0
20.1 0 0
20.4 0 0
20.7 0 0
21 0 0
21.3 0 0
21.6 0 0
21.9 0 0
22.2 0 0
22.5 0 0
22.8 0 0
23.1 0 0
23.4 0 0
23.7 0 0
24 0 0
24.3 0 0
24.6 0 0
24.9 0 0
25.2 0 0
25.5 0 0
25.8 0 0
26.1 0 0
26.4 0 0
26.7 0 0
27 0 0
27.3 0 0
27.6 0 0
27.9 0 0
28.2 0 0
28.5 0 0
28.8 0 0
29.1 0 0
29.4 0 0
29.7 0 0
30 0 0
30.3 0 0
30.6 0 0
0 0.1 0
0.3 0.1 0
0.6 0.1 0
0.9 0.1 0
1.2 0.1 0
1.5 0.1 0
1.8 0.1 0
2.1 0.1 0
2.4 0.1 0
2.7 0.1 0
3 0.1 0
3.3 0.1 0
3.6 0.1 0
3.9 0.1 0
4.2 0.1 0
4.5 0.1 0
4.8 0.1 0
5.1 0.1 0
5.4 0.1 0
5.7 0.1 0
6 0.1 0
6.3 0.1 0
6.6 0.1 0
6.9 0.1 0
7.2 0.1 0
7.5 0.1 0
7.8 0.1 0
8.1 0.1 0
8.4 0.1 0
8.7 0.1 0
9 0.1 0
9.3 0.1 0
9.6 0.1 0
9.9 0.1 0
10.2 0.1 0
10.5 0.1 0
10.8 0.1 0
11.1 0.1 0
11.4 0.1 0
11.7 0.1 0
12 0.1 0
12.3 0.1 0
12.6 0.1 0
12.9 0.1 0
13.2 0.1 0
13.5 0.1 0
13.8 0.1 0
14.1 0.1 0
14.4 0.1 0
14.7 0.1 0
15 0.1 0
15.3 0.1 0
15.6 0.1 0
15.9 0.1 0
16.2 0.1 0
16.5 0.1 0
16.8 0.1 0
17.1 0.1 0
17.4 0.1 0
17.7 0.1 0
18 0.1 0
18.3 0.1 0
18.6 0.1 0
18.9 0.1 0
19.2 0.1 0
19.5 0.1 0
19.8 0.1 0
20.1 0.1 0
20.4 0.1 0
20.7 0.1 0
21 0.1 0
21.3 0.1 0
21.6 0.1 0
21.9 0.1 0
22.2 0.1 0
22.5 0.1 0
22.8 0.1 0
23.1 0.1 0
23.4 0.1 0
23.7 0.1 0
24 0.1 0
24.3 0.1 0
24.6 0.1 0
24.9 0.1 0
25.2 0.1 0
25.5 0.1 0
25.8 0.1 0
26.1 0.1 0
26.4 0.1 0
26.7 0.1 0
27 0.1 0
27.3 0.1 0
27.6 0.1 0
27.9 0.1 0
28.2 0.1 0
28.5 0.1 0
28.8 0.1 0
29.1 0.1 0
29.4 0.1 0
29.7 0.1 0
30 0.1 0
30.3 0.1 0
30.6 0.1 0
0 0.2 0
0.3 0.2 0
0.6 0.2 0
0.9 0.2 0
1.2 0.2 0
1.5 0.2 0
1.8 0.2 0
2.1 0.2 0
2.4 0.2 0
2.7 0.2 0
3 0.2 0
3.3 0.2 0
3.6 0.2 0
3.9 0.2 0
4.2 0.2 0
4.5 0.2 0
4.8 0.2 0
5.1 0.2 0
5.4 0.2 0
5.7 0.2 0
6 0.2 0
6.3 0.2 0
6.6 0.2 0
6.9 0.2 0
7.2 0.2 0
7.5 0.2 0
7.8 0.2 0
8.1 0.2 0
8.4 0.2 0
8.7 0.2 0
9 0.2 0
9.3 0.2 0
9.6 0.2 0
9.9 0.2 0
10.2 0.2 0
10.5 0.2 0
10.8 0.2 0
11.1 0.2 0
11.4 0.2 0
11.7 0.2 0
12 0.2 0
12.3 0.2 0
12.6 0.2 0
12.9 0.2 0
13.2 0.2 0
13.5 0.2 0
13.8 0.2 0
14.1 0.2 0
14.4 0.2 0
14.7 0.2 0
15 0.2 0
15.3 0.2 0
15.6 0.2 0
15.9 0.2 0
16.2 0.2 0
16.5 0.2 0
16.8 0.2 0
17.1 0.2 0
17.4 0.2 0
17.7 0.2 0
18 0.2 0
18.3 0.2 0
18.6 0.2 0
18.9 0.2 0
19.2 0.2 0
19.5 0.2 0
19.8 0.2 0
20.1 0.2 0
20.4 0.2 0
20.7 0.2 0
21 0.2 0
21.3 0.2 0
21.6 0.2 0
21.9 0.2 0
22.2 0.2 0
22.5 0.2 0
22.8 0.2 0
23.1 0.2 0
23.4 0.2 0
23.7 0.2 0
24 0.2 0
24.3 0.2 0
24.6 0.2 0
24.9 0.2 0
25.2 0.2 0
25.5 0.2 0
25.8 0.2 0
26.1 0.2 0
26.4 0.2 0
26.7 0.2 0
27 0.2 0
27.3 0.2 0
27.6 0.2 0
27.9 0.2 0
28.2 0.2 0
28.5 0.2 0
28.8 0.2 0
29.1 0.2 0
29.4 0.2 0
29.7 0.2 0
30 0.2 0
30.3 0.2 0
30.6 0.2 0
0 0.3 0
0.3 0.3 0
0.6 0.3 0
0.9 0.3 0
1.2 0.3 0
1.5 0.3 0
1.8 0.3 0
2.1 0.3 0
2.4 0.3 0
2.7 0.3 0
3 0.3 0
3.3 0.3 0
3.6 0.3 0
3.9 0.3 0
4.2 0.3 0
4.5 0.3 0
4.8 0.3 0
5.1 0.3 0
5.4 0.3 0
5.7 0.3 0
6 0.3 0
6.3 0.3 0
6.6 0.3 0
6.9 0.3 0
7.2 0.3 0
7.5 0.3 0
7.8 0.3 0
8.1 0.3 0
8.4 0.3 0
8.7 0.3 0
9 0.3 0
9.3 0.3 0
9.6 0.3 0
9.9 0.3 0
10.2 0.3 0
10.5 0.3 0
10.8 0.3 0
11.1 0.3 0
11.4 0.3 0
11.7 0.3 0
12 0.3 0
12.3 0.3 0
12.6 0.3 0
12.9 0.3 0
13.2 0.3 0
13.5 0.3 0
13.8 0.3 0
14.1 0.3 0
14.4 0.3 0
14.7 0.3 0
15 0.3 0
15.3 0.3 0
15.6 0.3 0
15.9 0.3 0
16.2 0.3 0
16.5 0.3 0
16.8 0.3 0
17.1 0.3 0
17.4 0.3 0
17.7 0.3 0
18 0.3 0
18.3 0.3 0
18.6 0.3 0
18.9 0.3 0
19.2 0.3 0
19.5 0.3 0
19.8 0.3 0
20.1 0.3 0
20.4 0.3 0
20.7 0.3 0
21 0.3 0
21.3 0.3 0
21.6 0.3 0
21.9 0.3 0
22.2 0.3 0
22.5 0.3 0
22.8 0.3 0
23.1 0.3 0
23.4 0.3 0
23.7 0.3 0
24 0.3 0
24.3 0.3 0
24.6 0.3 0
24.9 0.3 0
25.2 0.3 0
25.5 0.3 0
25.8 0.3 0
26.1 0.3 0
26.4 0.3 0
26.7 0.3 0
27 0.3 0
27.3 0.3 0
27.6 0.3 0
27.9 0.3 0
28.2 0.3 0
28.5 0.3 0
28.8 0.3 0
29.1 0.3 0
29.4 0.3 0
29.7 0.3 0
30 0.3 0
30.3 0.3 0
30.6 0.3 0
0 0.4 0
0.3 0.4 0
0.6 0.4 0
0.9 0.4 0
1.2 0.4 0
1.5 0.4 0
1.8 0.4 0
2.1 0.4 0
2.4 0.4 0
2.7 0.4 0
3 0.4 0
3.3 0.4 0
3.6 0.4 0
3.9 0.4 0
4.2 0.4 0
4.5 0.4 0
4.8 0.4 0
5.1 0.4 0
5.4 0.4 0
5.7 0.4 0
6 0.4 0
6.3 0.4 0
6.6 0.4 0
6.9 0.4 0
7.2 0.4 0
7.5 0.4 0
7.8 0.4 0
8.1 0.4 0
8.4 0.4 0
8.7 0.4 0
9 0.4 0
9.3 0.4 0
9.6 0.4 0
9.9 0.4 0
10.2 0.4 0
10.5 0.4 0
10.8 0.4 0
11.1 0.4 0
11.4 0.4 0
11.7 0.4 0
12 0.4 0
12.3 0.4 0
12.6 0.4 0
12.9 0.4 0
13.2 0.4 0
13.5 0.4 0
13.8 0.4 0
14.1 0.4 0
14.4 0.4 0
14.7 0.4 0
15 0.4 0
15.3 0.4 0
15.6 0.4 0
15.9 0.4 0
16.2 0.4 0
16.5 0.4 0
16.8 0.4 0
17.1 0.4 0
17.4 0.4 0
17.7 0.4 0
18 0.4 0
18.3 0.4 0
18.6 0.4 0
18.9 0.4 0
19.2 0.4 0
19.5 0.4 0
19.8 0.4 0
20.1 0.4 0
20.4 0.4 0
20.7 0.4 0
21 0.4 0
21.3 0.4 0
21.6 0.4 0
21.9 0.4 0
22.2 0.4 0
22.5 0.4 0
22.8 0.4 0
23.1 0.4 0
23.4 0.4 0
23.7 0.4 0
24 0.4 0
24.3 0.4 0
24.6 0.4 0
24.9 0.4 0
25.2 0.4 0
25.5 0.4 0
25.8 0.4 0
26.1 0.4 0
26.4 0.4 0
26.7 0.4 0
27 0.4 0
27.3 0.4 0
27.6 0.4 0
27.9 0.4 0
28.2 0.4 0
28.5 0.4 0
28.8 0.4 0
29.1 0.4 0
29.4 0.4 0
29.7 0.4 0
30 0.4 0
30.3 0.4 0
30.6 0.4 0
0 0.5 0
0.3 0.5 0
0.6 0.5 0
0.9 0.5 0
1.2 0.5 0
1.5 0.5 0
1.8 0.5 0
2.1 0.5 0
2.4 0.5 0
2.7 0.5 0
3 0.5 0
3.3 0.5 0
3.6 0.5 0
3.9 0.5 0
4.2 0.5 0
4.5 0.5 0
4.8 0.5 0
5.1 0.5 0
5.4 0.5 0
5.7 0.5 0
6 0.5 0
6.3 0.5 0
6.6 0.5 0
6.9 0.5 0
7.2 0.5 0
7.5 0.5 0
7.8 0.5 0
8.1 0.5 0
8.4 0.5 0
8.7 0.5 0
9 0.5 0
9.3 0.5 0
9.6 0.5 0
9.9 0.5 0
10.2 0.5 0
10.5 0.5 0
10.8 0.5 0
11.1 0.5 0
11.4 0.5 0
11.7 0.5 0
12 0.5 0
12.3 0.5 0
12.6 0.5 0
12.9 0.5 0
13.2 0.5 0
13.5 0.5 0
13.8 0.5 0
14.1 0.5 0
14.4 0.5 0
14.7 0.5 0
15 0.5 0
15.3 0.5 0
15.6 0.5 0
15.9 0.5 0
16.2 0.5 0
16.5 0.5 0
16.8 0.5 0
17.1 0.5 0
17.4 0.5 0
17.7 0.5 0
18 0.5 0
18.3 0.5 0
18.6 0.5 0
18.9 0.5 0
19.2 0.5 0
19.5 0.5 0
19.8 0.5 0
20.1 0.5 0
20.4 0.5 0
20.7 0.5 0
21 0.5 0
21.3 0.5 0
21.6 0.5 0
21.9 0.5 0
22.2 0.5 0
22.5 0.5 0
22.8 0.5 0
23.1 0.5 0
23.4 0.5 0
23.7 0.5 0
24 0.5 0
24.3 0.5 0
24.6 0.5 0
24.9 0.5 0
25.2 0.5 0
25.5 0.5 0
25.8 0.5 0
26.1 0.5 0
26.4 0.5 0
26.7 0.5 0
27 0.5 0
27.3 0.5 0
27.6 0.5 0
27.9 0.5 0
28.2 0.5 0
28.5 0.5 0
28.8 0.5 0
29.1 0.5 0
29.4 0.5 0
29.7 0.5 0
30 0.5 0
30.3 0.5 0
30.6 0.5 0
0 0.6 0
0.3 0.6 0
0.6 0.6 0
0.9 0.6 0
1.2 0.6 0
1.5 0.6 0
1.8 0.6 0
2.1 0.6 0
2.4 0.6 0
2.7 0.6 0
3 0.6 0
3.3 0.6 0
3.6 0.6 0
3.9 0.6 0
4.2 0.6 0
4.5 0.6 0
4.8 0.6 0
5.1 0.6 0
5.4 0.6 0
5.7 0.6 0
6 0.6 0
6.3 0.6 0
6.6 0.6 0
6.9 0.6 0
7.2 0.6 0
7.5 0.6 0
7.8 0.6 0
8.1 0.6 0
8.4 0.6 0
8.7 0.6 0
9 0.6 0
9.3 0.6 0
9.6 0.6 0
9.9 0.6 0
10.2 0.6 0
10.5 0.6 0
10.8 0.6 0
11.1 0.6 0
11.4 0.6 0
11.7 0.6 0
12 0.6 0
12.3 0.6 0
12.6 0.6 0
12.9 0.6 0
13.2 0.6 0
13.5 0.6 0
13.8 0.6 0
14.1 0.6 0
14.4 0.6 0
14.7 0.6 0
15 0.6 0
15.3 0.6 0
15.6 0.6 0
15.9 0.6 0
16.2 0.6 0
16.5 0.6 0
16.8 0.6 0
17.1 0.6 0
17.4 0.6 0
17.7 0.6 0
18 0.6 0
18.3 0.6 0
18.6 0.6 0
18.9 0.6 0
19.2 0.6 0
19.5 0.6 0
19.8 0.6 0
20.1 0.6 0
20.4 0.6 0
20.7 0.6 0
21 0.6 0
21.3 0.6 0
21.6 0.6 0
21.9 0.6 0
22.2 0.6 0
22.5 0.6 0
22.8 0.6 0
23.1 0.6 0
23.4 0.6 0
23.7 0.6 0
24 0.6 0
24.3 0.6 0
24.6 0.6 0
24.9 0.6 0
25.2 0.6 0
25.5 0.6 0
25.8 0.6 0
26.1 0.6 0
26.4 0.6 0
26.7 0.6 0
27 0.6 0
27.3 0.6 0
27.6 0.6 0
27.9 0.6 0
28.2 0.6 0
28.5 0.6 0
28.8 0.6 0
29.1 0.6 0
29.4 0.6 0
29.7 0.6 0
30 0.6 0
30.3 0.6 0
30.6 0.6 0
0 0.7 0
0.3 0.7 0
0.6 0.7 0
0.9 0.7 0
1.2 0.7 0
1.5 0.7 0
1.8 0.7 0
2.1 0.7 0
2.4 0.7 0
2.7 0.7 0
3 0.7 0
3.3 0.7 0
3.6 0.7 0
3.9 0.7 0
4.2 0.7 0
4.5 0.7 0
4.8 0.7 0
5.1 0.7 0
5.4 0.7 0
5.7 0.7 0
6 0.7 0
6.3 0.7 0
6.6 0.7 0
6.9 0.7 0
7.2 0.7 0
7.5 0.7 0
7.8 0.7 0
8.1 0.7 0
8.4 0.7 0
8.7 0.7 0
9 0.7 0
9.3 0.7 0
9.6 0.7 0
9.9 0.7 0
10.2 0.7 0
10.5 0.7 0
10.8 0.7 0
11.1 0.7 0
11.4 0.7 0
11.7 0.7 0
12 0.7 0
12.3 0.7 0
12.6 0.7 0
12.9 0.7 0
13.2 0.7 0
13.5 0.7 0
13.8 0.7 0
14.1 0.7 0
14.4 0.7 0
14.7 0.7 0
15 0.7 0
15.3 0.7 0
15.6 0.7 0
15.9 0.7 0
16.2 0.7 0
16.5 0.7 0
16.8 0.7 0
17.1 0.7 0
17.4 0.7 0
17.7 0.7 0
18 0.7 0
18.3 0.7 0
18.6 0.7 0
18.9 0.7 0
19.2 0.7 0
19.5 0.7 0
19.8 0.7 0
20.1 0.7 0
20.4 0.7 0
20.7 0.7 0
21 0.7 0
21.3 0.7 0
21.6 0.7 0
21.9 0.7 0
22.2 0.7 0
22.5 0.7 0
22.8 0.7 0
23.1 0.7 0
23.4 0.7 0
23.7 0.7 0
24 0.7 0
24.3 0.7 0
24.6 0.7 0
24.9 0.7 0
25.2 0.7 0
25.5 0.7 0
25.8 0.7 0
26.1 0.7 0
26.4 0.7 0
26.7 0.7 0
27 0.7 0
27.3 0.7 0
27.6 0.7 0
27.9 0.7 0
28.2 0.7 0
28.5 0.7 0
28.8 0.7 0
29.1 0.7 0
29.4 0.7 0
29.7 0.7 0
30 0.7 0
30.3 0.7 0
30.6 0.7 0
0 0.8 0
0.3 0.8 0
0.6 0.8 0
0.9 0.8 0
1.2 0.8 0
1.5 0.8 0
1.8 0.8 0
2.1 0.8 0
2.4 0.8 0
2.7 0.8 0
3 0.8 0
3.3 0.8 0
3.6 0.8 0
3.9 0.8 0
4.2 0.8 0
4.5 0.8 0
4.8 0.8 0
5.1 0.8 0
5.4 0.8 0
5.7 0.8 0
6 0.8 0
6.3 0.8 0
6.6 0.8 0
6.9 0.8 0
7.2 0.8 0
7.5 0.8 0
7.8 0.8 0
8.1 0.8 0
8.4 0.8 0
8.7 0.8 0
9 0.8 0
9.3 0.8 0
9.6 0.8 0
9.9 0.8 0
10.2 0.8 0
10.5 0.8 0
10.8 0.8 0
11.1 0.8 0
11.4 0.8 0
11.7 0.8 0
12 0.8 0
12.3 0.8 0
12.6 0.8 0
12.9 0.8 0
13.2 0.8 0
13.5 0.8 0
13.8 0.8 0
14.1 0.8 0
14.4 0.8 0
14.7 0.8 0
15 0.8 0
15.3 0.8 0
15.6 0.8 0
15.9 0.8 0
16.2 0.8 0
16.5 0.8 0
16.8 0.8 0
17.1 0.8 0
17.4 0.8 0
17.7 0.8 0
18 0.8 0
18.3 0.8 0
18.6 0.8 0
18.9 0.8 0
19.2 0.8 0
19.5 0.8 0
19.8 0.8 0
20.1 0.8 0
20.4 0.8 0
20.7 0.8 0
21 0.8 0
21.3 0.8 0
21.6 0.8 0
21.9 0.8 0
22.2 0.8 0
22.5 0.8 0
22.8 0.8 0
23.1 0.8 0
23.4 0.8 0
23.7 0.8 0
24 0.8 0
24.3 0.8 0
24.6 0.8 0
24.9 0.8 0
25.2 0.8 0
25.5 0.8 0
25.8 0.8 0
26.1 0.8 0
26.4 0.8 0
26.7 0.8 0
27 0.8 0
27.3 0.8 0
27.6 0.8 0
27.9 0.8 0
28.2 0.8 0
28.5 0.8 0
28.8 0.8 0
29.1 0.8 0
29.4 0.8 0
29.7 0.8 0
30 0.8 0
30.3 0.8 0
30.6 0.8 0
0 0.9 0
0.3 0.9 0
0.6 0.9 0
0.9 0.9 0
1.2 0.9 0
1.5 0.9 0
1.8 0.9 0
2.1 0.9 0
2.4 0.9 0
2.7 0.9 0
3 0.9 0
3.3 0.9 0
3.6 0.9 0
3.9 0.9 0
4.2 0.9 0
4.5 0.9 0
4.8 0.9 0
5.1 0.9 0
5.4 0.9 0
5.7 0.9 0
6 0.9 0
6.3 0.9 0
6.6 0.9 0
6.9 0.9 0
7.2 0.9 0
7.5 0.9 0
7.8 0.9 0
8.1 0.9 0
8.4 0.9 0
8.7 0.9 0
9 0.9 0
9.3 0.9 0
9.6 0.9 0
9.9 0.9 0
10.2 0.9 0
10.5 0.9 0
10.8 0.9 0
11.1 0.9 0
11.4 0.9 0
11.7 0.9 0
12 0.9 0
12.3 0.9 0
12.6 0.9 0
12.9 0.9 0
13.2 0.9 0
13.5 0.9 0
13.8 0.9 0
14.1 0.9 0
14.4 0.9 0
14.7 0.9 0
15 0.9 0
15.3 0.9 0
15.6 0.9 0
15.9 0.9 0
16.2 0.9 0
16.5 0.9 0
16.8 0.9 0
17.1 0.9 0
17.4 0.9 0
17.7 0.9 0
18 0.9 0
18.3 0.9 0
18.6 0.9 0
18.9 0.9 0
19.2 0.9 0
19.5 0.9 0
19.8 0.9 0
20.1 0.9 0
20.4 0.9 0
20.7 0.9 0
21 0.9 0
21.3 0.9 0
21.6 0.9 0
21.9 0.9 0
22.2 0.9 0
22.5 0.9 0
22.8 0.9 0
23.1 0.9 0
23.4 0.9 0
23.7 0.9 0
24 0.9 0
24.3 0.9 0
24.6 0.9 0
24.9 0.9 0
25.2 0.9 0
25.5 0.9 0
25.8 0.9 0
26.1 0.9 0
26.4 0.9 0
26.7 0.9 0
27 0.9 0
27.3 0.9 0
27.6 0.9 0
27.9 0.9 0
28.2 0.9 0
28.5 0.9 0
28.8 0.9 0
29.1 0.9 0
29.4 0.9 0
29.7 0.9 0
30 0.9 0
30.3 0.9 0
30.6 0.9 0
0 1 0
0.3 1 0
0.6 1 0
0.9 1 0
1.2 1 0
1.5 1 0
1.8 1 0
2.1 1 0
2.4 1 0
2.7 1 0
3 1 0
3.3 1 0
3.6 1 0
3.9 1 0
4.2 1 0
4.5 1 0
4.8 1 0
5.1 1 0
5.4 1 0
5.7 1 0
6 1 0
6.3 1 0
6.6 1 0
6.9 1 0
7.2 1 0
7.5 1 0
7.8 1 0
8.1 1 0
8.4 1 0
8.7 1 0
9 1 0
9.3 1 0
9.6 1 0
9.9 1 0
10.2 1 0
10.5 1 0
10.8 1 0
11.1 1 0
11.4 1 0
11.7 1 0
12 1 0
12.3 1 0
12.6 1 0
12.9 1 0
13.2 1 0
13.5 1 0
13.8 1 0
14.1 1 0
14.4 1 0
14.7 1 0
15 1 0
15.3 1 0
15.6 1 0
15.9 1 0
16.2 1 0
16.5 1 0
16.8 1 0
17.1 1 0
17.4 1 0
17.7 1 0
18 1 0
18.3 1 0
18.6 1 0
18.9 1 0
19.2 1 0
19.5 1 0
19.8 1 0
20.1 1 0
20.4 1 0
20.7 1 0
21 1 0
21.3 1 0
21.6 1 0
21.9 1 0
22.2 1 0
22.5 1 0
22.8 1 0
23.1 1 0
23.4 1 0
23.7 1 0
24 1 0
24.3 1 0
24.6 1 0
24.9 1 0
25.2 1 0
25.5 1 0
25.8 1 0
26.1 1 0
26.4 1 0
26.7 1 0
27 1 0
27.3 1 0
27.6 1 0
27.9 1 0
28.2 1 0
28.5 1 0
28.8 1 0
29.1 1 0
29.4 1 0
29.7 1 0
30 1 0
30.3 1 0
30.6 1 0
0 1.1 0
0.3 1.1 0
0.6 1.1 0
0.9 1.1 0
1.2 1.1 0
1.5 1.1 0
1.8 1.1 0
2.1 1.1 0
2.4 1.1 0
2.7 1.1 0
3 1.1 0
3.3 1.1 0
3.6 1.1 0
3.9 1.1 0
4.2 1.1 0
4.5 1.1 0
4.8 1.1 0
5.1 1.1 0
5.4 1.1 0
5.7 1.1 0
6 1.1 0
6.3 1.1 0
6.6 1.1 0
6.9 1.1 0
7.2 1.1 0
7.5 1.1 0
7.8 1.1 0
8.1 1.1 0
8.4 1.1 0
8.7 1.1 0
9 1.1 0
9.3 1.1 0
9.6 1.1 0
9.9 1.1 0
10.2 1.1 0
10.5 1.1 0
10.8 1.1 0
11.1 1.1 0
11.4 1.1 0
11.7 1.1 0
12 1.1 0
12.3 1.1 0
12.6 1.1 0
12.9 1.1 0
13.2 1.1 0
13.5 1.1 0
13.8 1.1 0
14.1 1.1 0
14.4 1.1 0
14.7 1.1 0
15 1.1 0
15.3 1.1 0
15.6 1.1 0
15.9 1.1 0
16.2 1.1 0
16.5 1.1 0
16.8 1.1 0
17.1 1.1 0
17.4 1.1 0
17.7 1.1 0
18 1.1 0
18.3 1.1 0
18.6 1.1 0
18.9 1.1 0
19.2 1.1 0
19.5 1.1 0
19.8 1.1 0
20.1 1.1 0
20.4 1.1 0
20.7 1.1 0
21 1.1 0
21.3 1.1 0
21.6 1.1 0
21.9 1.1 0
22.2 1.1 0
22.5 1.1 0
22.8 1.1 0
23.1 1.1 0
23.4 1.1 0
23.7 1.1 0
24 1.1 0
24.3 1.1 0
24.6 1.1 0
24.9 1.1 0
25.2 1.1 0
25.5 1.1 0
25.8 1.1 0
26.1 1.1 0
26.4 1.1 0
26.7 1.1 0
27 1.1 0
27.3 1.1 0
27.6 1.1 0
27.9 1.1 0
28.2 1.1 0
28.5 1.1 0
28.8 1.1 0
29.1 1.1 0
29.4 1.1 0
29.7 1.1 0
30 1.1 0
30.3 1.1 0
30.6 1.1 0
0 1.2 0
0.3 1.2 0
0.6 1.2 0
0.9 1.2 0
1.2 1.2 0
1.5 1.2 0
1.8 1.2 0
2.1 1.2 0
2.4 1.2 0
2.7 1.2 0
3 1.2 0
3.3 1.2 0
3.6 1.2 0
3.9 1.2 0
4.2 1.2 0
4.5 1.2 0
4.8 1.2 0
5.1 1.2 0
5.4 1.2 0
5.7 1.2 0
6 1.2 0
6.3 1.2 0
6.6 1.2 0
6.9 1.2 0
7.2 1.2 0
7.5 1.2 0
7.8 1.2 0
8.1 1.2 0
8.4 1.2 0
8.7 1.2 0
9 1.2 0
9.3 1.2 0
9.6 1.2 0
9.9 1.2 0
10.2 1.2 0
10.5 1.2 0
10.8 1.2 0
11.1 1.2 0
11.4 1.2 0
11.7 1.2 0
12 1.2 0
12.3 1.2 0
12.6 1.2 0
12.9 1.2 0
13.2 1.2 0
13.5 1.2 0
13.8 1.2 0
14.1 1.2 0
14.4 1.2 0
14.7 1.2 0
15 1.2 0
15.3 1.2 0
15.6 1.2 0
15.9 1.2 0
16.2 1.2 0
16.5 1.2 0
16.8 1.2 0
17.1 1.2 0
17.4 1.2 0
17.7 1.2 0
18 1.2 0
18.3 1.2 0
18.6 1.2 0
18.9 1.2 0
19.2 1.2 0
19.5 1.2 0
19.8 1.2 0
20.1 1.2 0
20.4 1.2 0
20.7 1.2 0
21 1.2 0
21.3 1.2 0
21.6 1.2 0
21.9 1.2 0
22.2 1.2 0
22.5 1.2 0
22.8 1.2 0
23.1 1.2 0
23.4 1.2 0
23.7 1.2 0
24 1.2 0
24.3 1.2 0
24.6 1.2 0
24.9 1.2 0
25.2 1.2 0
25.5 1.2 0
25.8 1.2 0
26.1 1.2 0
26.4 1.2 0
26.7 1.2 0
27 1.2 0
27.3 1.2 0
27.6 1.2 0
27.9 1.2 0
28.2 1.2 0
28.5 1.2 0
28.8 1.2 0
29.1 1.2 0
29.4 1.2 0
29.7 1.2 0
30 1.2 0
30.3 1.2 0
30.6 1.2 0

POINT_DATA 1339

SCALARS pressure double
LOOKUP_TABLE pressure
1.17158
1.17158
1.10674
1.06251
1.02268
0.986107
0.953055
0.923527
0.897171
0.873462
0.85186
0.831897
0.813204
0.795504
0.778597
0.762338
0.746619
0.731363
0.716511
0.702016
0.687842
0.673957
0.660336
0.646958
0.633802
0.620851
0.608092
0.595509
0.583092
0.570828
0.558707
0.54672
0.534859
0.523116
0.511483
0.499954
0.488522
0.477182
0.465928
0.454756
0.44366
0.432636
0.421681
0.410791
0.399962
0.389193
0.37848
0.367823
0.35722
0.346669
0.336169
0.325719
0.315318
0.304964
0.294656
0.284391
0.274167
0.263982
0.253833
0.243717
0.233629
0.223568
0.21353
0.203512
0.193511
0.183525
0.17355
0.163585
0.153629
0.143678
0.133733
0.123792
0.113854
0.103918
0.0939834
0.0840506
0.0741186
0.0641874
0.0542567
0.0443263
0.0343962
0.0244662
0.0145364
0.00460664
-0.00532305
-0.0152527
-0.0251823
-0.0351119
-0.0450415
-0.0549711
-0.0649007
-0.0748302
-0.0847598
-0.0946894
-0.104619
-0.114548
-0.124478
-0.134408
-0.144337
-0.154267
-0.164197
-0.174122
0.174122
1.17158
1.17158
1.10674
1.06251
1.02268
0.986107
0.953055
0.923527
0.897171
0.873462
0.85186
0.831897
0.813204
0.795504
0.778597
0.762338
0.746619
0.731363
0.716511
0.702016
0.687842
0.673957
0.660336
0.646958
0.633802
0.620851
0.608092
0.595509
0.583092
0.570828
0.558707
0.54672
0.534859
0.523116
0.511483
0.499954
0.488522
0.477182
0.465928
0.454756
0.44366
0.432636
0.421681
0.410791
0.399962
0.389193
0.37848
0.367823
0.35722
0.346669
0.336169
0.325719
0.315318
0.304964
0.294656
0.284391
0.274167
0.263982
0.253833
0.243717
0.233629
0.223568
0.21353
0.203512
0.193511
0.183525
0.17355
0.163585
0.153629
0.143678
0.133733
0.123792
0.113854
0.103918
0.0939834
0.0840506
0.0741186
0.0641874
0.0542567
0.0443263
0.0343962
0.0244662
0.0145364
0.00460664
-0.00532305
-0.0152527
-0.0251823
-0.0351119
-0.0450415
-0.0549711
-0.0649007
-0.0748302
-0.0847598
-0.0946894
-0.104619
-0.114548
-0.124478
-0.134408
-0.144337
-0.154267
-0.164197
-0.174122
0.174122
1.15064
1.15064
1.10475
1.06273
1.02339
0.986903
0.953798
0.924158
0.897678
0.873857
0.852163
0.83213
0.813385
0.795649
0.778715
0.762435
0.746702
0.731435
0.716573
0.702071
0.687891
0.674001
0.660376
0.646994
0.633835
0.620882
0.60812
0.595536
0.583116
0.57085
0.558727
0.546739
0.534877
0.523132
0.511498
0.499968
0.488536
0.477195
0.46594
0.454767
0.44367
0.432646
0.42169
0.410799
0.39997
0.3892
0.378487
0.367829
0.357225
0.346674
0.336173
0.325723
0.315321
0.304967
0.294658
0.284393
0.274169
0.263984
0.253834
0.243717
0.23363
0.223568
0.21353
0.203512
0.193511
0.183524
0.17355
0.163585
0.153628
0.143678
0.133733
0.123792
0.113853
0.103918
0.0939834
0.0840505
0.0741186
0.0641874
0.0542567
0.0443263
0.0343962
0.0244662
0.0145364
0.00460664
-0.00532305
-0.0152527
-0.0251823
-0.0351119
-0.0450415
-0.0549711
-0.0649007
-0.0748302
-0.0847598
-0.0946894
-0.104619
-0.114548
-0.124478
-0.134408
-0.144337
-0.154267
-0.164197
-0.174122
0.174122
1.13566
1.13566
1.10187
1.06297
1.0245
0.988227
0.955059
0.925236
0.89854
0.874516
0.852656
0.832495
0.813657
0.795854
0.778873
0.76256
0.746803
0.731519
0.716644
0.702132
0.687944
0.674048
0.660418
0.647031
0.633868
0.620912
0.608147
0.59556
0.583138
0.57087
0.558746
0.546757
0.534893
0.523147
0.511512
0.499981
0.488547
0.477206
0.46595
0.454777
0.443679
0.432654
0.421698
0.410806
0.399977
0.389206
0.378493
0.367835
0.35723
0.346678
0.336177
0.325726
0.315324
0.304969
0.29466
0.284394
0.27417
0.263984
0.253835
0.243718
0.23363
0.223569
0.21353
0.203512
0.193511
0.183524
0.17355
0.163585
0.153628
0.143678
0.133733
0.123792
0.113853
0.103918
0.0939834
0.0840505
0.0741186
0.0641874
0.0542566
0.0443263
0.0343962
0.0244662
0.0145364
0.00460664
-0.00532305
-0.0152527
-0.0251823
-0.0351119
-0.0450415
-0.0549711
-0.0649007
-0.0748302
-0.0847598
-0.0946894
-0.104619
-0.114548
-0.124478
-0.134408
-0.144337
-0.154266
-0.164195
-0.17412
0.17412
1.12609
1.12609
1.09938
1.06307
1.02545
0.989422
0.956236
0.926273
0.899393
0.875189
0.853173
0.83289
0.813959
0.796088
0.779058
0.76271
0.746926
0.731622
0.716732
0.702208
0.68801
0.674106
0.66047
0.647077
0.63391
0.620949
0.608181
0.595591
0.583166
0.570896
0.558769
0.546778
0.534912
0.523165
0.511528
0.499996
0.488561
0.477219
0.465963
0.454788
0.44369
0.432664
0.421707
0.410815
0.399985
0.389214
0.3785
0.367841
0.357236
0.346684
0.336182
0.325731
0.315329
0.304973
0.294664
0.284398
0.274173
0.263987
0.253837
0.24372
0.233632
0.22357
0.213532
0.203513
0.193512
0.183525
0.17355
0.163585
0.153629
0.143678
0.133733
0.123792
0.113853
0.103918
0.0939834
0.0840505
0.0741186
0.0641874
0.0542567
0.0443263
0.0343962
0.0244662
0.0145364
0.00460664
-0.00532305
-0.0152527
-0.0251823
-0.0351119
-0.0450415
-0.0549711
-0.0649007
-0.0748302
-0.0847598
-0.0946894
-0.104619
-0.114548
-0.124478
-0.134408
-0.144337
-0.154266
-0.164192
-0.174119
0.174119
1.12078
1.12078
1.09776
1.06309
1.02604
0.990189
0.957005
0.926962
0.899971
0.875653
0.853537
0.833174
0.814182
0.796265
0.779201
0.762827
0.747025
0.731706
0.716806
0.702273
0.688067
0.674157
0.660515
0.647118
0.633947
0.620983
0.608212
0.595619
0.583191
0.570919
0.558791
0.546798
0.534931
0.523182
0.511544
0.50001
0.488575
0.477231
0.465974
0.454798
0.4437
0.432673
0.421716
0.410823
0.399992
0.389221
0.378507
0.367848
0.357243
0.34669
0.336188
0.325737
0.315334
0.304979
0.294669
0.284402
0.274177
0.263991
0.25384
0.243723
0.233634
0.223572
0.213533
0.203515
0.193513
0.183526
0.173551
0.163586
0.153629
0.143679
0.133733
0.123792
0.113854
0.103918
0.0939835
0.0840506
0.0741187
0.0641874
0.0542567
0.0443263
0.0343962
0.0244662
0.0145364
0.00460664
-0.00532305
-0.0152527
-0.0251823
-0.0351119
-0.0450415
-0.0549711
-0.0649007
-0.0748302
-0.0847598
-0.0946894
-0.104619
-0.114548
-0.124478
-0.134407
-0.144337
-0.154265
-0.164189
-0.174117
0.174117
1.11908
1.11908
1.09721
1.0631
1.02626
0.990463
0.957278
0.927208
0.900177
0.87582
0.85367
0.833278
0.814265
0.796332
0.779256
0.762873
0.747064
0.73174
0.716835
0.702299
0.68809
0.674178
0.660534
0.647135
0.633962
0.620997
0.608224
0.59563
0.583202
0.570929
0.5588
0.546806
0.534938
0.523189
0.511551
0.500017
0.488581
0.477236
0.465979
0.454803
0.443704
0.432678
0.42172
0.410827
0.399996
0.389224
0.37851
0.367851
0.357246
0.346693
0.336191
0.325739
0.315336
0.304981
0.294671
0.284404
0.274179
0.263993
0.253842
0.243724
0.233636
0.223573
0.213534
0.203516
0.193514
0.183527
0.173552
0.163587
0.15363
0.143679
0.133734
0.123792
0.113854
0.103918
0.0939836
0.0840506
0.0741187
0.0641874
0.0542567
0.0443263
0.0343962
0.0244662
0.0145364
0.00460664
-0.00532305
-0.0152527
-0.0251823
-0.0351119
-0.0450415
-0.0549711
-0.0649007
-0.0748302
-0.0847598
-0.0946894
-0.104619
-0.114548
-0.124478
-0.134407
-0.144337
-0.154265
-0.164187
-0.174117
0.174117
1.12078
1.12078
1.09776
1.06309
1.02604
0.990189
0.957005
0.926962
0.899971
0.875653
0.853537
0.833174
0.814182
0.796265
0.779201
0.762827
0.747025
0.731706
0.716806
0.702273
0.688067
0.674157
0.660515
0.647118
0.633947
0.620983
0.608212
0.595619
0.583191
0.570919
0.558791
0.546798
0.534931
0.523182
0.511544
0.50001
0.488575
0.477231
0.465974
0.454798
0.4437
0.432673
0.421716
0.410823
0.399992
0.389221
0.378507
0.367848
0.357243
0.34669
0.336188
0.325737
0.315334
0.304979
0.294669
0.284402
0.274177
0.263991
0.25384
0.243723
0.233634
0.223572
0.213533
0.203515
0.193513
0.183526
0.173551
0.163586
0.153629
0.143679
0.133733
0.123792
0.113854
0.103918
0.0939835
0.0840506
0.0741187
0.0641874
0.0542567
0.0443263
0.0343962
0.0244662
0.0145364
0.00460664
-0.00532305
-0.0152527
-0.0251823
-0.0351119
-0.0450415
-0.0549711
-0.0649007
-0.0748302
-0.0847598
-0.0946894
-0.104619
-0.114548
-0.124478
-0.134407
-0.144337
-0.154265
-0.164189
-0.174117
0.174117
1.12609
1.12609
1.09938
1.06307
1.02545
0.989422
0.956236
0.926273
0.899393
0.875189
0.853173
0.83289
0.813959
0.796088
0.779058
0.76271
0.746926
0.731622
0.716732
0.702208
0.68801
0.674106
0.66047
0.647077
0.63391
0.620949
0.608181
0.595591
0.583166
0.570896
0.558769
0.546778
0.534912
0.523165
0.511528
0.499996
0.488561
0.477219
0.465963
0.454788
0.44369
0.432664
0.421707
0.410815
0.399985
0.389214
0.3785
0.367841
0.357236
0.346684
0.336182
0.325731
0.315329
0.304973
0.294664
0.284398
0.274173
0.263987
0.253837
0.24372
0.233632
0.22357
0.213532
0.203513
0.193512
0.183525
0.17355
0.163585
0.153629
0.143678
0.133733
0.123792
0.113853
0.103918
0.0939834
0.0840505
0.0741186
0.0641874
0.0542567
0.0443263
0.0343962
0.0244662
0.0145364
0.00460664
-0.00532305
-0.0152527
-0.0251823
-0.0351119
-0.0450415
-0.0549711
-0.0649007
-0.0748302
-0.0847598
-0.0946894
-0.104619
-0.114548
-0.124478
-0.134408
-0.144337
-0.154266
-0.164192
-0.174119
0.174119
1.13566
1.13566
1.10187
1.06297
1.0245
0.988227
0.955059
0.925236
0.89854
0.874516
0.852656
0.832495
0.813657
0.795854
0.778873
0.76256
0.746803
0.731519
0.716644
0.702132
0.687944
0.674048
0.660418
0.647031
0.633868
0.620912
0.608147
0.59556
0.583138
0.57087
0.558746
0.546757
0.534893
0.523147
0.511512
0.499981
0.488547
0.477206
0.46595
0.454777
0.443679
0.432654
0.421698
0.410806
0.399977
0.389206
0.378493
0.367835
0.35723
0.346678
0.336177
0.325726
0.315324
0.304969
0.29466
0.284394
0.27417
0.263984
0.253835
0.243718
0.23363
0.223569
0.21353
0.203512
0.193511
0.183524
0.17355
0.163585
0.153628
0.143678
0.133733
0.123792
0.113853
0.103918
0.0939834
0.0840505
0.0741186
0.0641874
0.0542566
0.0443263
0.0343962
0.0244662
0.0145364
0.00460664
-0.00532305
-0.0152527
-0.0251823
-0.0351119
-0.0450415
-0.0549711
-0.0649007
-0.0748302
-0.0847598
-0.0946894
-0.104619
-0.114548
-0.124478
-0.134408
-0.144337
-0.154266
-0.164196
-0.17412
0.17412
1.15064
1.15064
1.10475
1.06273
1.02339
0.986903
0.953798
0.924158
0.897678
0.873857
0.852163
0.83213
0.813385
0.795649
0.778715
0.762435
0.746702
0.731435
0.716573
0.702071
0.687891
0.674001
0.660376
0.646994
0.633835
0.620882
0.60812
0.595536
0.583116
0.57085
0.558727
0.546739
0.534877
0.523132
0.511498
0.499968
0.488536
0.477195
0.46594
0.454767
0.44367
0.432646
0.42169
0.410799
0.39997
0.3892
0.378487
0.367829
0.357225
0.346674
0.336173
0.325723
0.315321
0.304967
0.294658
0.284393
0.274169
0.263984
0.253834
0.243717
0.23363
0.223568
0.21353
0.203512
0.193511
0.183524
0.17355
0.163585
0.153628
0.143678
0.133733
0.123792
0.113853
0.103918
0.0939834
0.0840505
0.0741186
0.0641874
0.0542567
0.0443263
0.0343962
0.0244662
0.0145364
0.00460664
-0.00532305
-0.0152527
-0.0251823
-0.0351119
-0.0450415
-0.0549711
-0.0649007
-0.0748302
-0.0847598
-0.0946894
-0.104619
-0.114548
-0.124478
-0.134408
-0.144337
-0.154267
-0.164197
-0.174122
0.174122
1.17158
1.17158
1.10674
1.06251
1.02268
0.986107
0.953055
0.923527
0.897171
0.873462
0.85186
0.831897
0.813204
0.795504
0.778597
0.762338
0.746619
0.731363
0.716511
0.702016
0.687842
0.673957
0.660336
0.646958
0.633802
0.620851
0.608092
0.595509
0.583092
0.570828
0.558707
0.54672
0.534859
0.523116
0.511483
0.499954
0.488522
0.477182
0.465928
0.454756
0.44366
0.432636
0.421681
0.410791
0.399962
0.389193
0.37848
0.367823
0.35722
0.346669
0.336169
0.325719
0.315318
0.304964
0.294656
0.284391
0.274167
0.263982
0.253833
0.243717
0.233629
0.223568
0.21353
0.203512
0.193511
0.183525
0.17355
0.163585
0.153629
0.143678
0.133733
0.123792
0.113854
0.103918
0.0939834
0.0840506
0.0741186
0.0641874
0.0542567
0.0443263
0.0343962
0.0244662
0.0145364
0.00460664
-0.00532305
-0.0152527
-0.0251823
-0.0351119
-0.0450415
-0.0549711
-0.0649007
-0.0748302
-0.0847598
-0.0946894
-0.104619
-0.114548
-0.124478
-0.134408
-0.144337
-0.154267
-0.164197
-0.174122
0.174122
1.17158
1.17158
1.10674
1.06251
1.02268
0.986107
0.953055
0.923527
0.897171
0.873462
0.85186
0.831897
0.813204
0.795504
0.778597
0.762338
0.746619
0.731363
0.716511
0.702016
0.687842
0.673957
0.660336
0.646958
0.633802
0.620851
0.608092
0.595509
0.583092
0.570828
0.558707
0.54672
0.534859
0.523116
0.511483
0.499954
0.488522
0.477182
0.465928
0.454756
0.44366
0.432636
0.421681
0.410791
0.399962
0.389193
0.37848
0.367823
0.35722
0.346669
0.336169
0.325719
0.315318
0.304964
0.294656
0.284391
0.274167
0.263982
0.253833
0.243717
0.233629
0.223568
0.21353
0.203512
0.193511
0.183525
0.17355
0.163585
0.153629
0.143678
0.133733
0.123792
0.113854
0.103918
0.0939834
0.0840506
0.0741186
0.0641874
0.0542567
0.0443263
0.0343962
0.0244662
0.0145364
0.00460664
-0.00532305
-0.0152527
-0.0251823
-0.0351119
-0.0450415
-0.0549711
-0.0649007
-0.0748302
-0.0847598
-0.0946894
-0.104619
-0.114548
-0.124478
-0.134408
-0.144337
-0.154267
-0.164197
-0.174122
0.174122
SCALARS phi double
LOOKUP_TABLE phi
1
1
1
1
0.999998
0.999994
0.999982
0.999957
0.99991
0.999829
0.999705
0.999525
0.999278
0.99895
0.99853
0.998019
0.997429
0.996752
0.995895
0.994623
0.992536
0.989119
0.983827
0.976183
0.965849
0.952649
0.936566
0.917712
0.896292
0.872572
0.84685
0.819444
0.790669
0.760833
0.730225
0.699114
0.667741
0.636323
0.605048
0.57408
0.543554
0.513588
0.484274
0.455687
0.427887
0.40092
0.374818
0.349606
0.325298
0.301905
0.279432
0.25788
0.23725
0.217541
0.198752
0.180882
0.163931
0.147901
0.132792
0.118607
0.105345
0.0930084
0.081593
0.0710937
0.0615005
0.0527979
0.0449646
0.0379726
0.0317871
0.0263667
0.0216639
0.017626
0.0141964
0.0113161
0.00892478
0.00696288
0.00537262
0.00409935
0.00309254
0.00230638
0.00170028
0.00123893
0.000892248
0.000635061
0.000446709
0.000310532
0.000213334
0.000144841
9.71864e-05
6.44492e-05
4.22419e-05
2.73654e-05
1.75234e-05
1.10921e-05
6.94087e-06
4.29389e-06
2.62636e-06
1.58837e-06
9.49987e-07
5.61431e-07
3.30693e-07
1.78324e-07
1.78324e-07
1
1
1
1
0.999998
0.999994
0.999982
0.999957
0.99991
0.999829
0.999705
0.999525
0.999278
0.99895
0.99853
0.998019
0.997429
0.996752
0.995895
0.994623
0.992536
0.989119
0.983827
0.976183
0.965849
0.952649
0.936566
0.917712
0.896292
0.872572
0.84685
0.819444
0.790669
0.760833
0.730225
0.699114
0.667741
0.636323
0.605048
0.57408
0.543554
0.513588
0.484274
0.455687
0.427887
0.40092
0.374818
0.349606
0.325298
0.301905
0.279432
0.25788
0.23725
0.217541
0.198752
0.180882
0.163931
0.147901
0.132792
0.118607
0.105345
0.0930084
0.081593
0.0710937
0.0615005
0.0527979
0.0449646
0.0379726
0.0317871
0.0263667
0.0216639
0.017626
0.0141964
0.0113161
0.00892478
0.00696288
0.00537262
0.00409935
0.00309254
0.00230638
0.00170028
0.00123893
0.000892248
0.000635061
0.000446709
0.000310532
0.000213334
0.000144841
9.71864e-05
6.44492e-05
4.22419e-05
2.73654e-05
1.75234e-05
1.10921e-05
6.94087e-06
4.29389e-06
2.62636e-06
1.58837e-06
9.49987e-07
5.61431e-07
3.30693e-07
1.78324e-07
1.78324e-07
1
1
1
0.999996
0.999983
0.999954
0.999898
0.999804
0.999658
0.999446
0.999157
0.998777
0.998299
0.997713
0.997013
0.996193
0.995256
0.994204
0.993031
0.991697
0.990103
0.988079
0.985385
0.98174
0.976848
0.970439
0.96229
0.952246
0.940218
0.926191
0.910207
0.892362
0.872789
0.851652
0.829134
0.805429
0.780733
0.755239
0.729135
0.702595
0.675784
0.64885
0.621927
0.595133
0.568571
0.542329
0.516481
0.491086
0.46619
0.441827
0.41802
0.394783
0.372119
0.350027
0.3285
0.307529
0.287102
0.267211
0.247849
0.229015
0.210718
0.192971
0.175801
0.159243
0.143342
0.128149
0.113722
0.100121
0.0874018
0.0756146
0.0647992
0.0549812
0.0461697
0.038356
0.0315132
0.025598
0.0205523
0.0163063
0.0127824
0.00989829
0.00757091
0.00571917
0.00426664
0.00314329
0.00228676
0.00164281
0.00116544
0.000816472
0.000564877
0.000385966
0.000260467
0.000173616
0.000114313
7.43528e-05
4.77789e-05
3.03353e-05
1.90315e-05
1.17989e-05
7.23027e-06
4.3751e-06
2.63965e-06
1.45152e-06
1.45152e-06
0.999997
1
0.99998
0.999896
0.999724
0.999434
0.998999
0.998397
0.997613
0.996636
0.995464
0.994099
0.992546
0.990816
0.988916
0.986858
0.984655
0.982317
0.979857
0.977285
0.974596
0.971772
0.968768
0.965513
0.961911
0.957845
0.953189
0.947812
0.941592
0.934421
0.926211
0.916895
0.906435
0.894814
0.88204
0.868142
0.85317
0.837184
0.820261
0.802485
0.783947
0.764741
0.744962
0.724706
0.704066
0.68313
0.661981
0.640694
0.619338
0.59797
0.576637
0.555377
0.534213
0.513158
0.492213
0.471366
0.450598
0.429877
0.409167
0.388429
0.367622
0.346712
0.325678
0.304514
0.283241
0.261907
0.240593
0.219413
0.198511
0.178057
0.158236
0.13924
0.121253
0.10444
0.0889398
0.0748527
0.0622375
0.0511099
0.0414439
0.033177
0.0262159
0.0204454
0.0157361
0.011952
0.00895823
0.00662579
0.0048361
0.00348347
0.00247633
0.00173745
0.00120324
0.000822567
0.000555141
0.000369905
0.000243376
0.000158128