# vtk DataFile Version 3.0
FlowField
ASCII
DATASET STRUCTURED_GRID
DIMENSIONS 103 13 1 
POINTS 1339 double
0 0 0
0.3 0 0
0.6 0 0
0.9 0 0
1.2 0 0
1.5 0 0
1.8 0 0
2.1 0 0
2.4 0 0
2.7 0 0
3 0 0
3.3 0 0
3.6 0 0
3.9 0 0
4.2 0 0
4.5 0 0
4.8 0 0
5.1 0 0
5.4 0 0
5.7 0 0
6 0 0
6.3 0 0
6.6 0 0
6.9 0 0
7.2 0 0
7.5 0 0
7.8 0 0
8.1 0 0
8.4 0 0
8.7 0 0
9 0 0
9.3 0 0
9.6 0 0
9.9 0 0
10.2 0 0
10.5 0 0
10.8 0 0
11.1 0 0
11.4 0 0
11.7 0 0
12 0 0
12.3 0 0
12.6 0 0
12.9 0 0
13.2 0 0
13.5 0 0
13.8 0 0
14.1 0 0
14.4 0 0
14.7 0 0
15 0 0
15.3 0 0
15.6 0 0
15.9 0 0
16.2 0 0
16.5 0 0
16.8 0 0
17.1 0 0
17.4 0 0
17.7 0 0
18 0 0
18.3 0 0
18.6 0 0
18.9 0 0
19.2 0 0
19.5 0 0
19.8 0 0
20.1 0 0
20.4 0 0
20.7 0 0
21 0 0
21.3 0 0
21.6 0 0
21.9 0 0
22.2 0 0
22.5 0 0
22.8 0 0
23.1 0 0
23.4 0 0
23.7 0 0
24 0 0
24.3 0 0
24.6 0 0
24.9 0 0
25.2 0 0
25.5 0 0
25.8 0 0
26.1 0 0
26.4 0 0
26.7 0 0
27 0 0
27.3 0 0
27.6 0 0
27.9 0 0
28.2 0 0
28.5 0 0
28.8 0 0
29.1 0 0
29.4 0 0
29.7 0 0
30 0 0
30.3 0 0
30.6 0 0
0 0.1 0
0.3 0.1 0
0.6 0.1 0
0.9 0.1 0
1.2 0.1 0
1.5 0.1 0
1.8 0.1 0
2.1 0.1 0
2.4 0.1 0
2.7 0.1 0
3 0.1 0
3.3 0.1 0
3.6 0.1 0
3.9 0.1 0
4.2 0.1 0
4.5 0.1 0
4.8 0.1 0
5.1 0.1 0
5.4 0.1 0
5.7 0.1 0
6 0.1 0
6.3 0.1 0
6.6 0.1 0
6.9 0.1 0
7.2 0.1 0
7.5 0.1 0
7.8 0.1 0
8.1 0.1 0
8.4 0.1 0
8.7 0.1 0
9 0.1 0
9.3 0.1 0
9.6 0.1 0
9.9 0.1 0
10.2 0.1 0
10.5 0.1 0
10.8 0.1 0
11.1 0.1 0
11.4 0.1 0
11.7 0.1 0
12 0.1 0
12.3 0.1 0
12.6 0.1 0
12.9 0.1 0
13.2 0.1 0
13.5 0.1 0
13.8 0.1 0
14.1 0.1 0
14.4 0.1 0
14.7 0.1 0
15 0.1 0
15.3 0.1 0
15.6 0.1 0
15.9 0.1 0
16.2 0.1 0
16.5 0.1 0
16.8 0.1 0
17.1 0.1 0
17.4 0.1 0
17.7 0.1 0
18 0.1 0
18.3 0.1 0
18.6 0.1 0
18.9 0.1 0
19.2 0.1 0
19.5 0.1 0
19.8 0.1 0
20.1 0.1 0
20.4 0.1 0
20.7 0.1 0
21 0.1 0
21.3 0.1 0
21.6 0.1 0
21.9 0.1 0
22.2 0.1 0
22.5 0.1 0
22.8 0.1 0
23.1 0.1 0
23.4 0.1 0
23.7 0.1 0
24 0.1 0
24.3 0.1 0
24.6 0.1 0
24.9 0.1 0
25.2 0.1 0
25.5 0.1 0
25.8 0.1 0
26.1 0.1 0
26.4 0.1 0
26.7 0.1 0
27 0.1 0
27.3 0.1 0
27.6 0.1 0
27.9 0.1 0
28.2 0.1 0
28.5 0.1 0
28.8 0.1 0
29.1 0.1 0
29.4 0.1 0
29.7 0.1 0
30 0.1 0
30.3 0.1 0
30.6 0.1 0
0 0.2 0
0.3 0.2 0
0.6 0.2 0
0.9 0.2 0
1.2 0.2 0
1.5 0.2 0
1.8 0.2 0
2.1 0.2 0
2.4 0.2 0
2.7 0.2 0
3 0.2 0
3.3 0.2 0
3.6 0.2 0
3.9 0.2 0
4.2 0.2 0
4.5 0.2 0
4.8 0.2 0
5.1 0.2 0
5.4 0.2 0
5.7 0.2 0
6 0.2 0
6.3 0.2 0
6.6 0.2 0
6.9 0.2 0
7.2 0.2 0
7.5 0.2 0
7.8 0.2 0
8.1 0.2 0
8.4 0.2 0
8.7 0.2 0
9 0.2 0
9.3 0.2 0
9.6 0.2 0
9.9 0.2 0
10.2 0.2 0
10.5 0.2 0
10.8 0.2 0
11.1 0.2 0
11.4 0.2 0
11.7 0.2 0
12 0.2 0
12.3 0.2 0
12.6 0.2 0
12.9 0.2 0
13.2 0.2 0
13.5 0.2 0
13.8 0.2 0
14.1 0.2 0
14.4 0.2 0
14.7 0.2 0
15 0.2 0
15.3 0.2 0
15.6 0.2 0
15.9 0.2 0
16.2 0.2 0
16.5 0.2 0
16.8 0.2 0
17.1 0.2 0
17.4 0.2 0
17.7 0.2 0
18 0.2 0
18.3 0.2 0
18.6 0.2 0
18.9 0.2 0
19.2 0.2 0
19.5 0.2 0
19.8 0.2 0
20.1 0.2 0
20.4 0.2 0
20.7 0.2 0
21 0.2 0
21.3 0.2 0
21.6 0.2 0
21.9 0.2 0
22.2 0.2 0
22.5 0.2 0
22.8 0.2 0
23.1 0.2 0
23.4 0.2 0
23.7 0.2 0
24 0.2 0
24.3 0.2 0
24.6 0.2 0
24.9 0.2 0
25.2 0.2 0
25.5 0.2 0
25.8 0.2 0
26.1 0.2 0
26.4 0.2 0
26.7 0.2 0
27 0.2 0
27.3 0.2 0
27.6 0.2 0
27.9 0.2 0
28.2 0.2 0
28.5 0.2 0
28.8 0.2 0
29.1 0.2 0
29.4 0.2 0
29.7 0.2 0
30 0.2 0
30.3 0.2 0
30.6 0.2 0
0 0.3 0
0.3 0.3 0
0.6 0.3 0
0.9 0.3 0
1.2 0.3 0
1.5 0.3 0
1.8 0.3 0
2.1 0.3 0
2.4 0.3 0
2.7 0.3 0
3 0.3 0
3.3 0.3 0
3.6 0.3 0
3.9 0.3 0
4.2 0.3 0
4.5 0.3 0
4.8 0.3 0
5.1 0.3 0
5.4 0.3 0
5.7 0.3 0
6 0.3 0
6.3 0.3 0
6.6 0.3 0
6.9 0.3 0
7.2 0.3 0
7.5 0.3 0
7.8 0.3 0
8.1 0.3 0
8.4 0.3 0
8.7 0.3 0
9 0.3 0
9.3 0.3 0
9.6 0.3 0
9.9 0.3 0
10.2 0.3 0
10.5 0.3 0
10.8 0.3 0
11.1 0.3 0
11.4 0.3 0
11.7 0.3 0
12 0.3 0
12.3 0.3 0
12.6 0.3 0
12.9 0.3 0
13.2 0.3 0
13.5 0.3 0
13.8 0.3 0
14.1 0.3 0
14.4 0.3 0
14.7 0.3 0
15 0.3 0
15.3 0.3 0
15.6 0.3 0
15.9 0.3 0
16.2 0.3 0
16.5 0.3 0
16.8 0.3 0
17.1 0.3 0
17.4 0.3 0
17.7 0.3 0
18 0.3 0
18.3 0.3 0
18.6 0.3 0
18.9 0.3 0
19.2 0.3 0
19.5 0.3 0
19.8 0.3 0
20.1 0.3 0
20.4 0.3 0
20.7 0.3 0
21 0.3 0
21.3 0.3 0
21.6 0.3 0
21.9 0.3 0
22.2 0.3 0
22.5 0.3 0
22.8 0.3 0
23.1 0.3 0
23.4 0.3 0
23.7 0.3 0
24 0.3 0
24.3 0.3 0
24.6 0.3 0
24.9 0.3 0
25.2 0.3 0
25.5 0.3 0
25.8 0.3 0
26.1 0.3 0
26.4 0.3 0
26.7 0.3 0
27 0.3 0
27.3 0.3 0
27.6 0.3 0
27.9 0.3 0
28.2 0.3 0
28.5 0.3 0
28.8 0.3 0
29.1 0.3 0
29.4 0.3 0
29.7 0.3 0
30 0.3 0
30.3 0.3 0
30.6 0.3 0
0 0.4 0
0.3 0.4 0
0.6 0.4 0
0.9 0.4 0
1.2 0.4 0
1.5 0.4 0
1.8 0.4 0
2.1 0.4 0
2.4 0.4 0
2.7 0.4 0
3 0.4 0
3.3 0.4 0
3.6 0.4 0
3.9 0.4 0
4.2 0.4 0
4.5 0.4 0
4.8 0.4 0
5.1 0.4 0
5.4 0.4 0
5.7 0.4 0
6 0.4 0
6.3 0.4 0
6.6 0.4 0
6.9 0.4 0
7.2 0.4 0
7.5 0.4 0
7.8 0.4 0
8.1 0.4 0
8.4 0.4 0
8.7 0.4 0
9 0.4 0
9.3 0.4 0
9.6 0.4 0
9.9 0.4 0
10.2 0.4 0
10.5 0.4 0
10.8 0.4 0
11.1 0.4 0
11.4 0.4 0
11.7 0.4 0
12 0.4 0
12.3 0.4 0
12.6 0.4 0
12.9 0.4 0
13.2 0.4 0
13.5 0.4 0
13.8 0.4 0
14.1 0.4 0
14.4 0.4 0
14.7 0.4 0
15 0.4 0
15.3 0.4 0
15.6 0.4 0
15.9 0.4 0
16.2 0.4 0
16.5 0.4 0
16.8 0.4 0
17.1 0.4 0
17.4 0.4 0
17.7 0.4 0
18 0.4 0
18.3 0.4 0
18.6 0.4 0
18.9 0.4 0
19.2 0.4 0
19.5 0.4 0
19.8 0.4 0
20.1 0.4 0
20.4 0.4 0
20.7 0.4 0
21 0.4 0
21.3 0.4 0
21.6 0.4 0
21.9 0.4 0
22.2 0.4 0
22.5 0.4 0
22.8 0.4 0
23.1 0.4 0
23.4 0.4 0
23.7 0.4 0
24 0.4 0
24.3 0.4 0
24.6 0.4 0
24.9 0.4 0
25.2 0.4 0
25.5 0.4 0
25.8 0.4 0
26.1 0.4 0
26.4 0.4 0
26.7 0.4 0
27 0.4 0
27.3 0.4 0
27.6 0.4 0
27.9 0.4 0
28.2 0.4 0
28.5 0.4 0
28.8 0.4 0
29.1 0.4 0
29.4 0.4 0
29.7 0.4 0
30 0.4 0
30.3 0.4 0
30.6 0.4 0
0 0.5 0
0.3 0.5 0
0.6 0.5 0
0.9 0.5 0
1.2 0.5 0
1.5 0.5 0
1.8 0.5 0
2.1 0.5 0
2.4 0.5 0
2.7 0.5 0
3 0.5 0
3.3 0.5 0
3.6 0.5 0
3.9 0.5 0
4.2 0.5 0
4.5 0.5 0
4.8 0.5 0
5.1 0.5 0
5.4 0.5 0
5.7 0.5 0
6 0.5 0
6.3 0.5 0
6.6 0.5 0
6.9 0.5 0
7.2 0.5 0
7.5 0.5 0
7.8 0.5 0
8.1 0.5 0
8.4 0.5 0
8.7 0.5 0
9 0.5 0
9.3 0.5 0
9.6 0.5 0
9.9 0.5 0
10.2 0.5 0
10.5 0.5 0
10.8 0.5 0
11.1 0.5 0
11.4 0.5 0
11.7 0.5 0
12 0.5 0
12.3 0.5 0
12.6 0.5 0
12.9 0.5 0
13.2 0.5 0
13.5 0.5 0
13.8 0.5 0
14.1 0.5 0
14.4 0.5 0
14.7 0.5 0
15 0.5 0
15.3 0.5 0
15.6 0.5 0
15.9 0.5 0
16.2 0.5 0
16.5 0.5 0
16.8 0.5 0
17.1 0.5 0
17.4 0.5 0
17.7 0.5 0
18 0.5 0
18.3 0.5 0
18.6 0.5 0
18.9 0.5 0
19.2 0.5 0
19.5 0.5 0
19.8 0.5 0
20.1 0.5 0
20.4 0.5 0
20.7 0.5 0
21 0.5 0
21.3 0.5 0
21.6 0.5 0
21.9 0.5 0
22.2 0.5 0
22.5 0.5 0
22.8 0.5 0
23.1 0.5 0
23.4 0.5 0
23.7 0.5 0
24 0.5 0
24.3 0.5 0
24.6 0.5 0
24.9 0.5 0
25.2 0.5 0
25.5 0.5 0
25.8 0.5 0
26.1 0.5 0
26.4 0.5 0
26.7 0.5 0
27 0.5 0
27.3 0.5 0
27.6 0.5 0
27.9 0.5 0
28.2 0.5 0
28.5 0.5 0
28.8 0.5 0
29.1 0.5 0
29.4 0.5 0
29.7 0.5 0
30 0.5 0
30.3 0.5 0
30.6 0.5 0
0 0.6 0
0.3 0.6 0
0.6 0.6 0
0.9 0.6 0
1.2 0.6 0
1.5 0.6 0
1.8 0.6 0
2.1 0.6 0
2.4 0.6 0
2.7 0.6 0
3 0.6 0
3.3 0.6 0
3.6 0.6 0
3.9 0.6 0
4.2 0.6 0
4.5 0.6 0
4.8 0.6 0
5.1 0.6 0
5.4 0.6 0
5.7 0.6 0
6 0.6 0
6.3 0.6 0
6.6 0.6 0
6.9 0.6 0
7.2 0.6 0
7.5 0.6 0
7.8 0.6 0
8.1 0.6 0
8.4 0.6 0
8.7 0.6 0
9 0.6 0
9.3 0.6 0
9.6 0.6 0
9.9 0.6 0
10.2 0.6 0
10.5 0.6 0
10.8 0.6 0
11.1 0.6 0
11.4 0.6 0
11.7 0.6 0
12 0.6 0
12.3 0.6 0
12.6 0.6 0
12.9 0.6 0
13.2 0.6 0
13.5 0.6 0
13.8 0.6 0
14.1 0.6 0
14.4 0.6 0
14.7 0.6 0
15 0.6 0
15.3 0.6 0
15.6 0.6 0
15.9 0.6 0
16.2 0.6 0
16.5 0.6 0
16.8 0.6 0
17.1 0.6 0
17.4 0.6 0
17.7 0.6 0
18 0.6 0
18.3 0.6 0
18.6 0.6 0
18.9 0.6 0
19.2 0.6 0
19.5 0.6 0
19.8 0.6 0
20.1 0.6 0
20.4 0.6 0
20.7 0.6 0
21 0.6 0
21.3 0.6 0
21.6 0.6 0
21.9 0.6 0
22.2 0.6 0
22.5 0.6 0
22.8 0.6 0
23.1 0.6 0
23.4 0.6 0
23.7 0.6 0
24 0.6 0
24.3 0.6 0
24.6 0.6 0
24.9 0.6 0
25.2 0.6 0
25.5 0.6 0
25.8 0.6 0
26.1 0.6 0
26.4 0.6 0
26.7 0.6 0
27 0.6 0
27.3 0.6 0
27.6 0.6 0
27.9 0.6 0
28.2 0.6 0
28.5 0.6 0
28.8 0.6 0
29.1 0.6 0
29.4 0.6 0
29.7 0.6 0
30 0.6 0
30.3 0.6 0
30.6 0.6 0
0 0.7 0
0.3 0.7 0
0.6 0.7 0
0.9 0.7 0
1.2 0.7 0
1.5 0.7 0
1.8 0.7 0
2.1 0.7 0
2.4 0.7 0
2.7 0.7 0
3 0.7 0
3.3 0.7 0
3.6 0.7 0
3.9 0.7 0
4.2 0.7 0
4.5 0.7 0
4.8 0.7 0
5.1 0.7 0
5.4 0.7 0
5.7 0.7 0
6 0.7 0
6.3 0.7 0
6.6 0.7 0
6.9 0.7 0
7.2 0.7 0
7.5 0.7 0
7.8 0.7 0
8.1 0.7 0
8.4 0.7 0
8.7 0.7 0
9 0.7 0
9.3 0.7 0
9.6 0.7 0
9.9 0.7 0
10.2 0.7 0
10.5 0.7 0
10.8 0.7 0
11.1 0.7 0
11.4 0.7 0
11.7 0.7 0
12 0.7 0
12.3 0.7 0
12.6 0.7 0
12.9 0.7 0
13.2 0.7 0
13.5 0.7 0
13.8 0.7 0
14.1 0.7 0
14.4 0.7 0
14.7 0.7 0
15 0.7 0
15.3 0.7 0
15.6 0.7 0
15.9 0.7 0
16.2 0.7 0
16.5 0.7 0
16.8 0.7 0
17.1 0.7 0
17.4 0.7 0
17.7 0.7 0
18 0.7 0
18.3 0.7 0
18.6 0.7 0
18.9 0.7 0
19.2 0.7 0
19.5 0.7 0
19.8 0.7 0
20.1 0.7 0
20.4 0.7 0
20.7 0.7 0
21 0.7 0
21.3 0.7 0
21.6 0.7 0
21.9 0.7 0
22.2 0.7 0
22.5 0.7 0
22.8 0.7 0
23.1 0.7 0
23.4 0.7 0
23.7 0.7 0
24 0.7 0
24.3 0.7 0
24.6 0.7 0
24.9 0.7 0
25.2 0.7 0
25.5 0.7 0
25.8 0.7 0
26.1 0.7 0
26.4 0.7 0
26.7 0.7 0
27 0.7 0
27.3 0.7 0
27.6 0.7 0
27.9 0.7 0
28.2 0.7 0
28.5 0.7 0
28.8 0.7 0
29.1 0.7 0
29.4 0.7 0
29.7 0.7 0
30 0.7 0
30.3 0.7 0
30.6 0.7 0
0 0.8 0
0.3 0.8 0
0.6 0.8 0
0.9 0.8 0
1.2 0.8 0
1.5 0.8 0
1.8 0.8 0
2.1 0.8 0
2.4 0.8 0
2.7 0.8 0
3 0.8 0
3.3 0.8 0
3.6 0.8 0
3.9 0.8 0
4.2 0.8 0
4.5 0.8 0
4.8 0.8 0
5.1 0.8 0
5.4 0.8 0
5.7 0.8 0
6 0.8 0
6.3 0.8 0
6.6 0.8 0
6.9 0.8 0
7.2 0.8 0
7.5 0.8 0
7.8 0.8 0
8.1 0.8 0
8.4 0.8 0
8.7 0.8 0
9 0.8 0
9.3 0.8 0
9.6 0.8 0
9.9 0.8 0
10.2 0.8 0
10.5 0.8 0
10.8 0.8 0
11.1 0.8 0
11.4 0.8 0
11.7 0.8 0
12 0.8 0
12.3 0.8 0
12.6 0.8 0
12.9 0.8 0
13.2 0.8 0
13.5 0.8 0
13.8 0.8 0
14.1 0.8 0
14.4 0.8 0
14.7 0.8 0
15 0.8 0
15.3 0.8 0
15.6 0.8 0
15.9 0.8 0
16.2 0.8 0
16.5 0.8 0
16.8 0.8 0
17.1 0.8 0
17.4 0.8 0
17.7 0.8 0
18 0.8 0
18.3 0.8 0
18.6 0.8 0
18.9 0.8 0
19.2 0.8 0
19.5 0.8 0
19.8 0.8 0
20.1 0.8 0
20.4 0.8 0
20.7 0.8 0
21 0.8 0
21.3 0.8 0
21.6 0.8 0
21.9 0.8 0
22.2 0.8 0
22.5 0.8 0
22.8 0.8 0
23.1 0.8 0
23.4 0.8 0
23.7 0.8 0
24 0.8 0
24.3 0.8 0
24.6 0.8 0
24.9 0.8 0
25.2 0.8 0
25.5 0.8 0
25.8 0.8 0
26.1 0.8 0
26.4 0.8 0
26.7 0.8 0
27 0.8 0
27.3 0.8 0
27.6 0.8 0
27.9 0.8 0
28.2 0.8 0
28.5 0.8 0
28.8 0.8 0
29.1 0.8 0
29.4 0.8 0
29.7 0.8 0
30 0.8 0
30.3 0.8 0
30.6 0.8 0
0 0.9 0
0.3 0.9 0
0.6 0.9 0
0.9 0.9 0
1.2 0.9 0
1.5 0.9 0
1.8 0.9 0
2.1 0.9 0
2.4 0.9 0
2.7 0.9 0
3 0.9 0
3.3 0.9 0
3.6 0.9 0
3.9 0.9 0
4.2 0.9 0
4.5 0.9 0
4.8 0.9 0
5.1 0.9 0
5.4 0.9 0
5.7 0.9 0
6 0.9 0
6.3 0.9 0
6.6 0.9 0
6.9 0.9 0
7.2 0.9 0
7.5 0.9 0
7.8 0.9 0
8.1 0.9 0
8.4 0.9 0
8.7 0.9 0
9 0.9 0
9.3 0.9 0
9.6 0.9 0
9.9 0.9 0
10.2 0.9 0
10.5 0.9 0
10.8 0.9 0
11.1 0.9 0
11.4 0.9 0
11.7 0.9 0
12 0.9 0
12.3 0.9 0
12.6 0.9 0
12.9 0.9 0
13.2 0.9 0
13.5 0.9 0
13.8 0.9 0
14.1 0.9 0
14.4 0.9 0
14.7 0.9 0
15 0.9 0
15.3 0.9 0
15.6 0.9 0
15.9 0.9 0
16.2 0.9 0
16.5 0.9 0
16.8 0.9 0
17.1 0.9 0
17.4 0.9 0
17.7 0.9 0
18 0.9 0
18.3 0.9 0
18.6 0.9 0
18.9 0.9 0
19.2 0.9 0
19.5 0.9 0
19.8 0.9 0
20.1 0.9 0
20.4 0.9 0
20.7 0.9 0
21 0.9 0
21.3 0.9 0
21.6 0.9 0
21.9 0.9 0
22.2 0.9 0
22.5 0.9 0
22.8 0.9 0
23.1 0.9 0
23.4 0.9 0
23.7 0.9 0
24 0.9 0
24.3 0.9 0
24.6 0.9 0
24.9 0.9 0
25.2 0.9 0
25.5 0.9 0
25.8 0.9 0
26.1 0.9 0
26.4 0.9 0
26.7 0.9 0
27 0.9 0
27.3 0.9 0
27.6 0.9 0
27.9 0.9 0
28.2 0.9 0
28.5 0.9 0
28.8 0.9 0
29.1 0.9 0
29.4 0.9 0
29.7 0.9 0
30 0.9 0
30.3 0.9 0
30.6 0.9 0
0 1 0
0.3 1 0
0.6 1 0
0.9 1 0
1.2 1 0
1.5 1 0
1.8 1 0
2.1 1 0
2.4 1 0
2.7 1 0
3 1 0
3.3 1 0
3.6 1 0
3.9 1 0
4.2 1 0
4.5 1 0
4.8 1 0
5.1 1 0
5.4 1 0
5.7 1 0
6 1 0
6.3 1 0
6.6 1 0
6.9 1 0
7.2 1 0
7.5 1 0
7.8 1 0
8.1 1 0
8.4 1 0
8.7 1 0
9 1 0
9.3 1 0
9.6 1 0
9.9 1 0
10.2 1 0
10.5 1 0
10.8 1 0
11.1 1 0
11.4 1 0
11.7 1 0
12 1 0
12.3 1 0
12.6 1 0
12.9 1 0
13.2 1 0
13.5 1 0
13.8 1 0
14.1 1 0
14.4 1 0
14.7 1 0
15 1 0
15.3 1 0
15.6 1 0
15.9 1 0
16.2 1 0
16.5 1 0
16.8 1 0
17.1 1 0
17.4 1 0
17.7 1 0
18 1 0
18.3 1 0
18.6 1 0
18.9 1 0
19.2 1 0
19.5 1 0
19.8 1 0
20.1 1 0
20.4 1 0
20.7 1 0
21 1 0
21.3 1 0
21.6 1 0
21.9 1 0
22.2 1 0
22.5 1 0
22.8 1 0
23.1 1 0
23.4 1 0
23.7 1 0
24 1 0
24.3 1 0
24.6 1 0
24.9 1 0
25.2 1 0
25.5 1 0
25.8 1 0
26.1 1 0
26.4 1 0
26.7 1 0
27 1 0
27.3 1 0
27.6 1 0
27.9 1 0
28.2 1 0
28.5 1 0
28.8 1 0
29.1 1 0
29.4 1 0
29.7 1 0
30 1 0
30.3 1 0
30.6 1 0
0 1.1 0
0.3 1.1 0
0.6 1.1 0
0.9 1.1 0
1.2 1.1 0
1.5 1.1 0
1.8 1.1 0
2.1 1.1 0
2.4 1.1 0
2.7 1.1 0
3 1.1 0
3.3 1.1 0
3.6 1.1 0
3.9 1.1 0
4.2 1.1 0
4.5 1.1 0
4.8 1.1 0
5.1 1.1 0
5.4 1.1 0
5.7 1.1 0
6 1.1 0
6.3 1.1 0
6.6 1.1 0
6.9 1.1 0
7.2 1.1 0
7.5 1.1 0
7.8 1.1 0
8.1 1.1 0
8.4 1.1 0
8.7 1.1 0
9 1.1 0
9.3 1.1 0
9.6 1.1 0
9.9 1.1 0
10.2 1.1 0
10.5 1.1 0
10.8 1.1 0
11.1 1.1 0
11.4 1.1 0
11.7 1.1 0
12 1.1 0
12.3 1.1 0
12.6 1.1 0
12.9 1.1 0
13.2 1.1 0
13.5 1.1 0
13.8 1.1 0
14.1 1.1 0
14.4 1.1 0
14.7 1.1 0
15 1.1 0
15.3 1.1 0
15.6 1.1 0
15.9 1.1 0
16.2 1.1 0
16.5 1.1 0
16.8 1.1 0
17.1 1.1 0
17.4 1.1 0
17.7 1.1 0
18 1.1 0
18.3 1.1 0
18.6 1.1 0
18.9 1.1 0
19.2 1.1 0
19.5 1.1 0
19.8 1.1 0
20.1 1.1 0
20.4 1.1 0
20.7 1.1 0
21 1.1 0
21.3 1.1 0
21.6 1.1 0
21.9 1.1 0
22.2 1.1 0
22.5 1.1 0
22.8 1.1 0
23.1 1.1 0
23.4 1.1 0
23.7 1.1 0
24 1.1 0
24.3 1.1 0
24.6 1.1 0
24.9 1.1 0
25.2 1.1 0
25.5 1.1 0
25.8 1.1 0
26.1 1.1 0
26.4 1.1 0
26.7 1.1 0
27 1.1 0
27.3 1.1 0
27.6 1.1 0
27.9 1.1 0
28.2 1.1 0
28.5 1.1 0
28.8 1.1 0
29.1 1.1 0
29.4 1.1 0
29.7 1.1 0
30 1.1 0
30.3 1.1 0
30.6 1.1 0
0 1.2 0
0.3 1.2 0
0.6 1.2 0
0.9 1.2 0
1.2 1.2 0
1.5 1.2 0
1.8 1.2 0
2.1 1.2 0
2.4 1.2 0
2.7 1.2 0
3 1.2 0
3.3 1.2 0
3.6 1.2 0
3.9 1.2 0
4.2 1.2 0
4.5 1.2 0
4.8 1.2 0
5.1 1.2 0
5.4 1.2 0
5.7 1.2 0
6 1.2 0
6.3 1.2 0
6.6 1.2 0
6.9 1.2 0
7.2 1.2 0
7.5 1.2 0
7.8 1.2 0
8.1 1.2 0
8.4 1.2 0
8.7 1.2 0
9 1.2 0
9.3 1.2 0
9.6 1.2 0
9.9 1.2 0
10.2 1.2 0
10.5 1.2 0
10.8 1.2 0
11.1 1.2 0
11.4 1.2 0
11.7 1.2 0
12 1.2 0
12.3 1.2 0
12.6 1.2 0
12.9 1.2 0
13.2 1.2 0
13.5 1.2 0
13.8 1.2 0
14.1 1.2 0
14.4 1.2 0
14.7 1.2 0
15 1.2 0
15.3 1.2 0
15.6 1.2 0
15.9 1.2 0
16.2 1.2 0
16.5 1.2 0
16.8 1.2 0
17.1 1.2 0
17.4 1.2 0
17.7 1.2 0
18 1.2 0
18.3 1.2 0
18.6 1.2 0
18.9 1.2 0
19.2 1.2 0
19.5 1.2 0
19.8 1.2 0
20.1 1.2 0
20.4 1.2 0
20.7 1.2 0
21 1.2 0
21.3 1.2 0
21.6 1.2 0
21.9 1.2 0
22.2 1.2 0
22.5 1.2 0
22.8 1.2 0
23.1 1.2 0
23.4 1.2 0
23.7 1.2 0
24 1.2 0
24.3 1.2 0
24.6 1.2 0
24.9 1.2 0
25.2 1.2 0
25.5 1.2 0
25.8 1.2 0
26.1 1.2 0
26.4 1.2 0
26.7 1.2 0
27 1.2 0
27.3 1.2 0
27.6 1.2 0
27.9 1.2 0
28.2 1.2 0
28.5 1.2 0
28.8 1.2 0
29.1 1.2 0
29.4 1.2 0
29.7 1.2 0
30 1.2 0
30.3 1.2 0
30.6 1.2 0

POINT_DATA 1339

SCALARS pressure double
LOOKUP_TABLE pressure
1.17115
1.17115
1.10631
1.06207
1.02225
0.985672
0.95262
0.923093
0.896737
0.873027
0.851426
0.831464
0.81277
0.79507
0.778165
0.761906
0.746186
0.730929
0.716078
0.701584
0.687409
0.673523
0.659903
0.646525
0.633369
0.620419
0.607659
0.595077
0.58266
0.570395
0.558275
0.546289
0.534427
0.522684
0.511051
0.499522
0.488091
0.476751
0.465498
0.454326
0.443231
0.432209
0.421255
0.410364
0.399535
0.388765
0.378048
0.367382
0.356765
0.346194
0.335666
0.325179
0.314732
0.304321
0.293945
0.283601
0.27329
0.263007
0.252752
0.242524
0.232321
0.222141
0.211984
0.201848
0.191732
0.181636
0.171558
0.161498
0.151455
0.141428
0.131417
0.121421
0.111441
0.101474
0.0915208
0.0815811
0.0716542
0.0617394
0.0518361
0.0419438
0.0320617
0.0221891
0.0123254
0.0024698
-0.00737843
-0.0172201
-0.0270558
-0.0368863
-0.0467122
-0.0565342
-0.0663526
-0.0761682
-0.0859813
-0.0957923
-0.105602
-0.115409
-0.125216
-0.135022
-0.144827
-0.154632
-0.164436
-0.174238
0.174238
1.17115
1.17115
1.10631
1.06207
1.02225
0.985672
0.95262
0.923093
0.896737
0.873027
0.851426
0.831464
0.81277
0.79507
0.778165
0.761906
0.746186
0.730929
0.716078
0.701584
0.687409
0.673523
0.659903
0.646525
0.633369
0.620419
0.607659
0.595077
0.58266
0.570395
0.558275
0.546289
0.534427
0.522684
0.511051
0.499522
0.488091
0.476751
0.465498
0.454326
0.443231
0.432209
0.421255
0.410364
0.399535
0.388765
0.378048
0.367382
0.356765
0.346194
0.335666
0.325179
0.314732
0.304321
0.293945
0.283601
0.27329
0.263007
0.252752
0.242524
0.232321
0.222141
0.211984
0.201848
0.191732
0.181636
0.171558
0.161498
0.151455
0.141428
0.131417
0.121421
0.111441
0.101474
0.0915208
0.0815811
0.0716542
0.0617394
0.0518361
0.0419438
0.0320617
0.0221891
0.0123254
0.0024698
-0.00737843
-0.0172201
-0.0270558
-0.0368863
-0.0467122
-0.0565342
-0.0663526
-0.0761682
-0.0859813
-0.0957923
-0.105602
-0.115409
-0.125216
-0.135022
-0.144827
-0.154632
-0.164436
-0.174238
0.174238
1.15021
1.15021
1.10432
1.0623
1.02295
0.986469
0.953364
0.923725
0.897245
0.873422
0.85173
0.831697
0.812952
0.795215
0.778282
0.762003
0.746268
0.731001
0.716141
0.701639
0.687458
0.673568
0.659944
0.646562
0.633403
0.620449
0.607688
0.595104
0.582684
0.570418
0.558296
0.546308
0.534445
0.5227
0.511067
0.499537
0.488104
0.476764
0.46551
0.454337
0.443242
0.432219
0.421264
0.410373
0.399544
0.388773
0.378055
0.367389
0.356771
0.3462
0.335672
0.325185
0.314737
0.304326
0.293949
0.283606
0.273294
0.263011
0.252756
0.242527
0.232324
0.222144
0.211987
0.201851
0.191735
0.181638
0.171561
0.1615
0.151457
0.14143
0.131419
0.121423
0.111442
0.101475
0.0915219
0.0815821
0.071655
0.0617401
0.0518367
0.0419443
0.0320621
0.0221895
0.0123257
0.00247001
-0.00737829
-0.01722
-0.0270558
-0.0368863
-0.0467122
-0.0565341
-0.0663526
-0.0761682
-0.0859813
-0.0957923
-0.105602
-0.115409
-0.125216
-0.135022
-0.144827
-0.154632
-0.164436
-0.174238
0.174238
1.13523
1.13523
1.10144
1.06253
1.02406
0.987793
0.954625
0.924803
0.898106
0.874082
0.852222
0.832062
0.813223
0.79542
0.77844
0.762127
0.746369
0.731085
0.716212
0.7017
0.687511
0.673615
0.659985
0.646599
0.633436
0.620479
0.607715
0.595128
0.582706
0.570438
0.558315
0.546325
0.534461
0.522715
0.511081
0.49955
0.488116
0.476775
0.46552
0.454347
0.443251
0.432227
0.421272
0.41038
0.399551
0.388779
0.378061
0.367394
0.356777
0.346205
0.335676
0.325189
0.314741
0.30433
0.293953
0.283609
0.273297
0.263014
0.252759
0.24253
0.232326
0.222146
0.211989
0.201853
0.191737
0.18164
0.171562
0.161502
0.151458
0.141431
0.13142
0.121424
0.111443
0.101476
0.0915228
0.0815829
0.0716557
0.0617406
0.0518372
0.0419447
0.0320624
0.0221897
0.0123259
0.00247017
-0.00737818
-0.0172199
-0.0270557
-0.0368863
-0.0467122
-0.0565341
-0.0663526
-0.0761682
-0.0859813
-0.0957923
-0.105602
-0.115409
-0.125216
-0.135022
-0.144827
-0.154631
-0.164435
-0.174238
0.174238
1.12566
1.12566
1.09895
1.06264
1.02502
0.988988
0.955802
0.92584
0.898959
0.874754
0.85274
0.832456
0.813525
0.795655
0.778626
0.762277
0.746492
0.731189
0.7163
0.701776
0.687577
0.673673
0.660037
0.646645
0.633477
0.620517
0.607749
0.595159
0.582734
0.570464
0.558338
0.546346
0.53448
0.522733
0.511097
0.499565
0.48813
0.476788
0.465532
0.454358
0.443261
0.432237
0.421281
0.410389
0.399559
0.388786
0.378068
0.367401
0.356783
0.346211
0.335682
0.325194
0.314746
0.304334
0.293957
0.283613
0.273301
0.263017
0.252762
0.242533
0.232329
0.222149
0.211992
0.201855
0.191739
0.181643
0.171564
0.161504
0.15146
0.141433
0.131422
0.121426
0.111444
0.101477
0.0915241
0.0815841
0.0716568
0.0617416
0.0518381
0.0419455
0.0320632
0.0221904
0.0123265
0.00247069
-0.00737774
-0.0172195
-0.0270554
-0.036886
-0.046712
-0.0565339
-0.0663525
-0.0761681
-0.0859812
-0.0957922
-0.105602
-0.115409
-0.125216
-0.135022
-0.144827
-0.154631
-0.164434
-0.174237
0.174237
1.12034
1.12034
1.09732
1.06265
1.02561
0.989755
0.956571
0.926529
0.899536
0.875219
0.853104
0.83274
0.813748
0.795832
0.778768
0.762394
0.746591
0.731273
0.716373
0.70184
0.687634
0.673724
0.660083
0.646686
0.633514
0.620551
0.60778
0.595186
0.582759
0.570487
0.558359
0.546366
0.534499
0.52275
0.511113
0.499579
0.488144
0.4768
0.465544
0.454369
0.443271
0.432246
0.421289
0.410397
0.399566
0.388793
0.378074
0.367407
0.356789
0.346216
0.335687
0.325199
0.314751
0.304338
0.293961
0.283617
0.273304
0.263021
0.252765
0.242536
0.232332
0.222152
0.211994
0.201858
0.191742
0.181645
0.171566
0.161506
0.151462
0.141435
0.131424
0.121427
0.111446
0.101479
0.0915255
0.0815854
0.071658
0.0617428
0.0518392
0.0419466
0.0320641
0.0221913
0.0123273
0.00247141
-0.0073771
-0.017219
-0.0270549
-0.0368855
-0.0467116
-0.0565336
-0.0663522
-0.0761679
-0.085981
-0.0957921
-0.105601
-0.115409
-0.125216
-0.135022
-0.144827
-0.154631
-0.164433
-0.174236
0.174236
1.11864
1.11864
1.09678
1.06267
1.02582
0.990029
0.956845
0.926774
0.899743
0.875386
0.853237
0.832845
0.813831
0.795898
0.778823
0.76244
0.74663
0.731307
0.716402
0.701866
0.687658
0.673745
0.660101
0.646703
0.63353
0.620565
0.607792
0.595198
0.58277
0.570497
0.558368
0.546374
0.534506
0.522758
0.511119
0.499585
0.488149
0.476806
0.465549
0.454374
0.443276
0.43225
0.421293
0.410401
0.39957
0.388796
0.378077
0.36741
0.356791
0.346219
0.335689
0.325201
0.314753
0.30434
0.293963
0.283619
0.273306
0.263022
0.252767
0.242538
0.232333
0.222153
0.211995
0.201859
0.191743
0.181646
0.171567
0.161507
0.151463
0.141436
0.131424
0.121428
0.111447
0.10148
0.0915262
0.0815861
0.0716586
0.0617434
0.0518398
0.0419471
0.0320646
0.0221917
0.0123277
0.00247176
-0.00737679
-0.0172187
-0.0270546
-0.0368853
-0.0467114
-0.0565335
-0.0663521
-0.0761678
-0.0859809
-0.095792
-0.105601
-0.115409
-0.125216
-0.135022
-0.144827
-0.154631
-0.164433
-0.174236
0.174236
1.12034
1.12034
1.09732
1.06265
1.02561
0.989755
0.956571
0.926528
0.899536
0.875219
0.853104
0.83274
0.813748
0.795832
0.778768
0.762394
0.746592
0.731273
0.716373
0.70184
0.687634
0.673724
0.660082
0.646685
0.633514
0.620551
0.607779
0.595186
0.582759
0.570487
0.558359
0.546366
0.534499
0.52275
0.511113
0.499579
0.488144
0.4768
0.465544
0.454369
0.443271
0.432246
0.421289
0.410397
0.399566
0.388793
0.378074
0.367407
0.356789
0.346216
0.335687
0.325199
0.31475
0.304338
0.293961
0.283617
0.273304
0.263021
0.252765
0.242536
0.232332
0.222152
0.211994
0.201858
0.191742
0.181645
0.171566
0.161506
0.151462
0.141435
0.131424
0.121427
0.111446
0.101479
0.0915255
0.0815854
0.071658
0.0617428
0.0518392
0.0419466
0.0320641
0.0221913
0.0123273
0.0024714
-0.00737711
-0.017219
-0.0270549
-0.0368855
-0.0467116
-0.0565336
-0.0663522
-0.0761679
-0.085981
-0.0957921
-0.105601
-0.115409
-0.125216
-0.135022
-0.144827
-0.154631
-0.164433
-0.174236
0.174236
1.12566
1.12566
1.09895
1.06264
1.02502
0.988988
0.955802
0.925839
0.898959
0.874755
0.85274
0.832456
0.813526
0.795655
0.778625
0.762276
0.746493
0.731189
0.716299
0.701775
0.687578
0.673674
0.660037
0.646645
0.633477
0.620517
0.607749
0.595158
0.582734
0.570464
0.558338
0.546346
0.534481
0.522734
0.511097
0.499565
0.48813
0.476788
0.465532
0.454358
0.443261
0.432237
0.421281
0.410389
0.399559
0.388786
0.378068
0.367401
0.356783
0.346211
0.335682
0.325194
0.314746
0.304334
0.293957
0.283613
0.273301
0.263017
0.252762
0.242533
0.232329
0.222149
0.211992
0.201855
0.191739
0.181643
0.171564
0.161504
0.15146
0.141433
0.131422
0.121426
0.111444
0.101477
0.0915241
0.081584
0.0716567
0.0617416
0.0518381
0.0419455
0.0320632
0.0221904
0.0123265
0.00247068
-0.00737776
-0.0172195
-0.0270554
-0.036886
-0.046712
-0.056534
-0.0663525
-0.0761681
-0.0859812
-0.0957922
-0.105602
-0.115409
-0.125216
-0.135022
-0.144827
-0.154631
-0.164434
-0.174237
0.174237
1.13523
1.13523
1.10144
1.06253
1.02406
0.987794
0.954625
0.924802
0.898106
0.874083
0.852222
0.832061
0.813223
0.795421
0.77844
0.762127
0.74637
0.731085
0.716211
0.7017
0.687511
0.673615
0.659985
0.646598
0.633436
0.62048
0.607715
0.595128
0.582706
0.570439
0.558314
0.546325
0.534461
0.522716
0.51108
0.499549
0.488116
0.476775
0.46552
0.454347
0.443251
0.432227
0.421272
0.410381
0.399551
0.388779
0.378061
0.367394
0.356777
0.346205
0.335676
0.325189
0.314741
0.30433
0.293953
0.283609
0.273297
0.263014
0.252759
0.24253
0.232326
0.222147
0.211989
0.201853
0.191737
0.18164
0.171562
0.161502
0.151458
0.141431
0.13142
0.121424
0.111443
0.101476
0.0915228
0.0815828
0.0716556
0.0617406
0.0518372
0.0419447
0.0320624
0.0221897
0.0123259
0.00247016
-0.0073782
-0.0172199
-0.0270557
-0.0368863
-0.0467122
-0.0565341
-0.0663526
-0.0761682
-0.0859813
-0.0957923
-0.105602
-0.115409
-0.125216
-0.135022
-0.144827
-0.154631
-0.164435
-0.174238
0.174238
1.15021
1.15021
1.10432
1.0623
1.02295
0.986469
0.953364
0.923724
0.897245
0.873424
0.85173
0.831696
0.812952
0.795216
0.778282
0.762002
0.746269
0.731001
0.71614
0.701639
0.687458
0.673569
0.659944
0.646562
0.633403
0.62045
0.607688
0.595103
0.582684
0.570418
0.558295
0.546307
0.534445
0.522701
0.511067
0.499537
0.488105
0.476764
0.46551
0.454337
0.443242
0.432219
0.421264
0.410373
0.399544
0.388772
0.378055
0.367389
0.356771
0.3462
0.335672
0.325185
0.314737
0.304326
0.293949
0.283606
0.273294
0.263011
0.252756
0.242527
0.232324
0.222144
0.211987
0.201851
0.191735
0.181638
0.171561
0.1615
0.151457
0.14143
0.131419
0.121423
0.111442
0.101475
0.0915219
0.0815821
0.071655
0.0617401
0.0518367
0.0419443
0.0320621
0.0221895
0.0123257
0.00247001
-0.00737831
-0.01722
-0.0270558
-0.0368863
-0.0467122
-0.0565341
-0.0663526
-0.0761682
-0.0859813
-0.0957923
-0.105602
-0.115409
-0.125216
-0.135022
-0.144827
-0.154631
-0.164436
-0.174238
0.174238
1.17115
1.17115
1.10631
1.06207
1.02225
0.985673
0.952621
0.923093
0.896737
0.873028
0.851426
0.831463
0.81277
0.795071
0.778164
0.761904
0.746186
0.73093
0.716078
0.701583
0.687409
0.673524
0.659903
0.646525
0.633369
0.620419
0.60766
0.595077
0.58266
0.570396
0.558275
0.546288
0.534427
0.522684
0.511051
0.499522
0.488091
0.476751
0.465498
0.454326
0.443231
0.432209
0.421254
0.410365
0.399536
0.388765
0.378048
0.367382
0.356765
0.346194
0.335666
0.32518
0.314732
0.304321
0.293945
0.283602
0.27329
0.263007
0.252752
0.242524
0.232321
0.222141
0.211984
0.201848
0.191732
0.181636
0.171558
0.161498
0.151455
0.141428
0.131417
0.121421
0.111441
0.101474
0.0915208
0.0815811
0.0716542
0.0617394
0.0518361
0.0419438
0.0320617
0.0221892
0.0123254
0.00246981
-0.00737846
-0.0172201
-0.0270558
-0.0368863
-0.0467122
-0.0565342
-0.0663526
-0.0761682
-0.0859813
-0.0957923
-0.105602
-0.115409
-0.125216
-0.135022
-0.144827
-0.154631
-0.164436
-0.174238
0.174238
1.17115
1.17115
1.10631
1.06207
1.02225
0.985673
0.952621
0.923093
0.896737
0.873028
0.851426
0.831463
0.81277
0.795071
0.778164
0.761904
0.746186
0.73093
0.716078
0.701583
0.687409
0.673524
0.659903
0.646525
0.633369
0.620419
0.60766
0.595077
0.58266
0.570396
0.558275
0.546288
0.534427
0.522684
0.511051
0.499522
0.488091
0.476751
0.465498
0.454326
0.443231
0.432209
0.421254
0.410365
0.399536
0.388765
0.378048
0.367382
0.356765
0.346194
0.335666
0.32518
0.314732
0.304321
0.293945
0.283602
0.27329
0.263007
0.252752
0.242524
0.232321
0.222141
0.211984
0.201848
0.191732
0.181636
0.171558
0.161498
0.151455
0.141428
0.131417
0.121421
0.111441
0.101474
0.0915208
0.0815811
0.0716542
0.0617394
0.0518361
0.0419438
0.0320617
0.0221892
0.0123254
0.00246981
-0.00737846
-0.0172201
-0.0270558
-0.0368863
-0.0467122
-0.0565342
-0.0663526
-0.0761682
-0.0859813
-0.0957923
-0.105602
-0.115409
-0.125216
-0.135022
-0.144827
-0.154631
-0.164436
-0.174238
0.174238
SCALARS phi double
LOOKUP_TABLE phi
1
1
1
1
0.999999
0.999994
0.999983
0.999957
0.99991
0.99983
0.999706
0.999525
0.999278
0.998951
0.998536
0.998024
0.997406
0.996678
0.995833
0.994868
0.993782
0.992576
0.99125
0.989797
0.988196
0.986399
0.984327
0.98187
0.978889
0.975232
0.970744
0.965278
0.95871
0.950941
0.941901
0.931553
0.919887
0.906924
0.892706
0.877295
0.86077
0.843224
0.824755
0.805471
0.785477
0.764883
0.743795
0.722316
0.700542
0.678565
0.656473
0.634343
0.612247
0.590252
0.568416
0.546792
0.525426
0.50436
0.483627
0.46326
0.443284
0.423719
0.404586
0.385896
0.367663
0.349893
0.332594
0.315769
0.299419
0.283546
0.268148
0.253223
0.238768
0.22478
0.211255
0.198188
0.185576
0.173415
0.161701
0.15043
0.139599
0.129207
0.119252
0.109731
0.100645
0.0919942
0.0837776
0.0759961
0.0686501
0.0617398
0.0552646
0.0492231
0.0436128
0.0384292
0.0336663
0.0293154
0.0253666
0.0218035
0.018623
0.0157584
0.0133769
0.010727
0.010727
1
1
1
1
0.999999
0.999994
0.999983
0.999957
0.99991
0.99983
0.999706
0.999525
0.999278
0.998951
0.998536
0.998024
0.997406
0.996678
0.995833
0.994868
0.993782
0.992576
0.99125
0.989797
0.988196
0.986399
0.984327
0.98187
0.978889
0.975232
0.970744
0.965278
0.95871
0.950941
0.941901
0.931553
0.919887
0.906924
0.892706
0.877295
0.86077
0.843224
0.824755
0.805471
0.785477
0.764883
0.743795
0.722316
0.700542
0.678565
0.656473
0.634343
0.612247
0.590252
0.568416
0.546792
0.525426
0.50436
0.483627
0.46326
0.443284
0.423719
0.404586
0.385896
0.367663
0.349893
0.332594
0.315769
0.299419
0.283546
0.268148
0.253223
0.238768
0.22478
0.211255
0.198188
0.185576
0.173415
0.161701
0.15043
0.139599
0.129207
0.119252
0.109731
0.100645
0.0919942
0.0837776
0.0759961
0.0686501
0.0617398
0.0552646
0.0492231
0.0436128
0.0384292
0.0336663
0.0293154
0.0253666
0.0218035
0.018623
0.0157584
0.0133769
0.010727
0.010727
1
1
1
0.999996
0.999983
0.999954
0.999898
0.999804
0.999658
0.999447
0.999157
0.998778
0.998299
0.997714
0.997014
0.996196
0.995256
0.994192
0.993002
0.991689
0.990252
0.988693
0.987017
0.985227
0.983322
0.981296
0.97913
0.976792
0.97423
0.971375
0.968143
0.964442
0.960172
0.955237
0.949547
0.943022
0.935598
0.927227
0.91788
0.907543
0.896222
0.883935
0.870717
0.856613
0.841678
0.825975
0.809571
0.792539
0.774953
0.756886
0.738413
0.719604
0.700531
0.681258
0.661849
0.642363
0.622854
0.603374
0.583967
0.564678
0.545543
0.526598
0.507874
0.489396
0.471189
0.453274
0.435667
0.418384
0.401435
0.384829
0.368574
0.352673
0.33713
0.321944
0.307114
0.292637
0.27851
0.264727
0.251283
0.23817
0.225383
0.212914
0.200756
0.188904
0.177353
0.166098
0.155139
0.144476
0.134112
0.124054
0.114309
0.104893
0.0958181
0.0871043
0.0787712
0.0708388
0.0633314
0.0562569
0.0496758
0.0434444
0.0381477
0.031694
0.031694
0.999997
1
0.99998
0.999896
0.999724
0.999434
0.998999
0.998397
0.997613
0.996636
0.995464
0.994099
0.992547
0.990816
0.988916
0.986859
0.984655
0.982317
0.979854
0.977278
0.974598
0.971826
0.968969
0.966037
0.963037
0.959976
0.956858
0.953681
0.95044
0.947121
0.943703
0.940156
0.936442
0.932519
0.928338
0.923845
0.91899
0.913721
0.907989
0.901752
0.894972
0.887619
0.879671
0.871114
0.861941
0.852153
0.841759
0.830774
0.819218
0.807119
0.794505
0.781411
0.767872
0.753928
0.739616
0.724979
0.710054
0.694884
0.679506
0.663958
0.648278
0.632501
0.61666
0.600787
0.584911
0.569061
0.553263
0.537538
0.521909
0.506395
0.49101
0.475771
0.460687
0.445767
0.431019
0.416445
0.402046
0.387823
0.37377
0.359883
0.346153
0.332569
0.31912
0.305791
0.292567
0.279434
0.266374
0.253373
0.240419
0.227503
0.21462
0.201775
0.188977
0.176248
0.163618
0.151126
0.138833
0.126764
0.115101
0.103512
0.0934607
0.0802191
0.0802191
0.999999
1
0.99943
0.998224
0.996402
0.994008
0.991093
0.987716
0.983939
0.979828
0.975446
0.970853
0.966102
0.961239
0.9563
0.951318
0.946317
0.94132
0.936342
0.931396
0.926494