# vtk DataFile Version 3.0
FlowField
ASCII
DATASET STRUCTURED_GRID
DIMENSIONS 103 13 1 
POINTS 1339 double
0 0 0
0.3 0 0
0.6 0 0
0.9 0 0
1.2 0 0
1.5 0 0
1.8 0 0
2.1 0 0
2.4 0 0
2.7 0 0
3 0 0
3.3 0 0
3.6 0 0
3.9 0 0
4.2 0 0
4.5 0 0
4.8 0 0
5.1 0 0
5.4 0 0
5.7 0 0
6 0 0
6.3 0 0
6.6 0 0
6.9 0 0
7.2 0 0
7.5 0 0
7.8 0 0
8.1 0 0
8.4 0 0
8.7 0 0
9 0 0
9.3 0 0
9.6 0 0
9.9 0 0
10.2 0 0
10.5 0 0
10.8 0 0
11.1 0 0
11.4 0 0
11.7 0 0
12 0 0
12.3 0 0
12.6 0 0
12.9 0 0
13.2 0 0
13.5 0 0
13.8 0 0
14.1 0 0
14.4 0 0
14.7 0 0
15 0 0
15.3 0 0
15.6 0 0
15.9 0 0
16.2 0 0
16.5 0 0
16.8 0 0
17.1 0 0
17.4 0 0
17.7 0 0
18 0 0
18.3 0 0
18.6 0 0
18.9 0 0
19.2 0 0
19.5 0 0
19.8 0 0
20.1 0 0
20.4 0 0
20.7 0 0
21 0 0
21.3 0 0
21.6 0 0
21.9 0 0
22.2 0 0
22.5 0 0
22.8 0 0
23.1 0 0
23.4 0 0
23.7 0 0
24 0 0
24.3 0 0
24.6 0 0
24.9 0 0
25.2 0 0
25.5 0 0
25.8 0 0
26.1 0 0
26.4 0 0
26.7 0 0
27 0 0
27.3 0 0
27.6 0 0
27.9 0 0
28.2 0 0
28.5 0 0
28.8 0 0
29.1 0 0
29.4 0 0
29.7 0 0
30 0 0
30.3 0 0
30.6 0 0
0 0.1 0
0.3 0.1 0
0.6 0.1 0
0.9 0.1 0
1.2 0.1 0
1.5 0.1 0
1.8 0.1 0
2.1 0.1 0
2.4 0.1 0
2.7 0.1 0
3 0.1 0
3.3 0.1 0
3.6 0.1 0
3.9 0.1 0
4.2 0.1 0
4.5 0.1 0
4.8 0.1 0
5.1 0.1 0
5.4 0.1 0
5.7 0.1 0
6 0.1 0
6.3 0.1 0
6.6 0.1 0
6.9 0.1 0
7.2 0.1 0
7.5 0.1 0
7.8 0.1 0
8.1 0.1 0
8.4 0.1 0
8.7 0.1 0
9 0.1 0
9.3 0.1 0
9.6 0.1 0
9.9 0.1 0
10.2 0.1 0
10.5 0.1 0
10.8 0.1 0
11.1 0.1 0
11.4 0.1 0
11.7 0.1 0
12 0.1 0
12.3 0.1 0
12.6 0.1 0
12.9 0.1 0
13.2 0.1 0
13.5 0.1 0
13.8 0.1 0
14.1 0.1 0
14.4 0.1 0
14.7 0.1 0
15 0.1 0
15.3 0.1 0
15.6 0.1 0
15.9 0.1 0
16.2 0.1 0
16.5 0.1 0
16.8 0.1 0
17.1 0.1 0
17.4 0.1 0
17.7 0.1 0
18 0.1 0
18.3 0.1 0
18.6 0.1 0
18.9 0.1 0
19.2 0.1 0
19.5 0.1 0
19.8 0.1 0
20.1 0.1 0
20.4 0.1 0
20.7 0.1 0
21 0.1 0
21.3 0.1 0
21.6 0.1 0
21.9 0.1 0
22.2 0.1 0
22.5 0.1 0
22.8 0.1 0
23.1 0.1 0
23.4 0.1 0
23.7 0.1 0
24 0.1 0
24.3 0.1 0
24.6 0.1 0
24.9 0.1 0
25.2 0.1 0
25.5 0.1 0
25.8 0.1 0
26.1 0.1 0
26.4 0.1 0
26.7 0.1 0
27 0.1 0
27.3 0.1 0
27.6 0.1 0
27.9 0.1 0
28.2 0.1 0
28.5 0.1 0
28.8 0.1 0
29.1 0.1 0
29.4 0.1 0
29.7 0.1 0
30 0.1 0
30.3 0.1 0
30.6 0.1 0
0 0.2 0
0.3 0.2 0
0.6 0.2 0
0.9 0.2 0
1.2 0.2 0
1.5 0.2 0
1.8 0.2 0
2.1 0.2 0
2.4 0.2 0
2.7 0.2 0
3 0.2 0
3.3 0.2 0
3.6 0.2 0
3.9 0.2 0
4.2 0.2 0
4.5 0.2 0
4.8 0.2 0
5.1 0.2 0
5.4 0.2 0
5.7 0.2 0
6 0.2 0
6.3 0.2 0
6.6 0.2 0
6.9 0.2 0
7.2 0.2 0
7.5 0.2 0
7.8 0.2 0
8.1 0.2 0
8.4 0.2 0
8.7 0.2 0
9 0.2 0
9.3 0.2 0
9.6 0.2 0
9.9 0.2 0
10.2 0.2 0
10.5 0.2 0
10.8 0.2 0
11.1 0.2 0
11.4 0.2 0
11.7 0.2 0
12 0.2 0
12.3 0.2 0
12.6 0.2 0
12.9 0.2 0
13.2 0.2 0
13.5 0.2 0
13.8 0.2 0
14.1 0.2 0
14.4 0.2 0
14.7 0.2 0
15 0.2 0
15.3 0.2 0
15.6 0.2 0
15.9 0.2 0
16.2 0.2 0
16.5 0.2 0
16.8 0.2 0
17.1 0.2 0
17.4 0.2 0
17.7 0.2 0
18 0.2 0
18.3 0.2 0
18.6 0.2 0
18.9 0.2 0
19.2 0.2 0
19.5 0.2 0
19.8 0.2 0
20.1 0.2 0
20.4 0.2 0
20.7 0.2 0
21 0.2 0
21.3 0.2 0
21.6 0.2 0
21.9 0.2 0
22.2 0.2 0
22.5 0.2 0
22.8 0.2 0
23.1 0.2 0
23.4 0.2 0
23.7 0.2 0
24 0.2 0
24.3 0.2 0
24.6 0.2 0
24.9 0.2 0
25.2 0.2 0
25.5 0.2 0
25.8 0.2 0
26.1 0.2 0
26.4 0.2 0
26.7 0.2 0
27 0.2 0
27.3 0.2 0
27.6 0.2 0
27.9 0.2 0
28.2 0.2 0
28.5 0.2 0
28.8 0.2 0
29.1 0.2 0
29.4 0.2 0
29.7 0.2 0
30 0.2 0
30.3 0.2 0
30.6 0.2 0
0 0.3 0
0.3 0.3 0
0.6 0.3 0
0.9 0.3 0
1.2 0.3 0
1.5 0.3 0
1.8 0.3 0
2.1 0.3 0
2.4 0.3 0
2.7 0.3 0
3 0.3 0
3.3 0.3 0
3.6 0.3 0
3.9 0.3 0
4.2 0.3 0
4.5 0.3 0
4.8 0.3 0
5.1 0.3 0
5.4 0.3 0
5.7 0.3 0
6 0.3 0
6.3 0.3 0
6.6 0.3 0
6.9 0.3 0
7.2 0.3 0
7.5 0.3 0
7.8 0.3 0
8.1 0.3 0
8.4 0.3 0
8.7 0.3 0
9 0.3 0
9.3 0.3 0
9.6 0.3 0
9.9 0.3 0
10.2 0.3 0
10.5 0.3 0
10.8 0.3 0
11.1 0.3 0
11.4 0.3 0
11.7 0.3 0
12 0.3 0
12.3 0.3 0
12.6 0.3 0
12.9 0.3 0
13.2 0.3 0
13.5 0.3 0
13.8 0.3 0
14.1 0.3 0
14.4 0.3 0
14.7 0.3 0
15 0.3 0
15.3 0.3 0
15.6 0.3 0
15.9 0.3 0
16.2 0.3 0
16.5 0.3 0
16.8 0.3 0
17.1 0.3 0
17.4 0.3 0
17.7 0.3 0
18 0.3 0
18.3 0.3 0
18.6 0.3 0
18.9 0.3 0
19.2 0.3 0
19.5 0.3 0
19.8 0.3 0
20.1 0.3 0
20.4 0.3 0
20.7 0.3 0
21 0.3 0
21.3 0.3 0
21.6 0.3 0
21.9 0.3 0
22.2 0.3 0
22.5 0.3 0
22.8 0.3 0
23.1 0.3 0
23.4 0.3 0
23.7 0.3 0
24 0.3 0
24.3 0.3 0
24.6 0.3 0
24.9 0.3 0
25.2 0.3 0
25.5 0.3 0
25.8 0.3 0
26.1 0.3 0
26.4 0.3 0
26.7 0.3 0
27 0.3 0
27.3 0.3 0
27.6 0.3 0
27.9 0.3 0
28.2 0.3 0
28.5 0.3 0
28.8 0.3 0
29.1 0.3 0
29.4 0.3 0
29.7 0.3 0
30 0.3 0
30.3 0.3 0
30.6 0.3 0
0 0.4 0
0.3 0.4 0
0.6 0.4 0
0.9 0.4 0
1.2 0.4 0
1.5 0.4 0
1.8 0.4 0
2.1 0.4 0
2.4 0.4 0
2.7 0.4 0
3 0.4 0
3.3 0.4 0
3.6 0.4 0
3.9 0.4 0
4.2 0.4 0
4.5 0.4 0
4.8 0.4 0
5.1 0.4 0
5.4 0.4 0
5.7 0.4 0
6 0.4 0
6.3 0.4 0
6.6 0.4 0
6.9 0.4 0
7.2 0.4 0
7.5 0.4 0
7.8 0.4 0
8.1 0.4 0
8.4 0.4 0
8.7 0.4 0
9 0.4 0
9.3 0.4 0
9.6 0.4 0
9.9 0.4 0
10.2 0.4 0
10.5 0.4 0
10.8 0.4 0
11.1 0.4 0
11.4 0.4 0
11.7 0.4 0
12 0.4 0
12.3 0.4 0
12.6 0.4 0
12.9 0.4 0
13.2 0.4 0
13.5 0.4 0
13.8 0.4 0
14.1 0.4 0
14.4 0.4 0
14.7 0.4 0
15 0.4 0
15.3 0.4 0
15.6 0.4 0
15.9 0.4 0
16.2 0.4 0
16.5 0.4 0
16.8 0.4 0
17.1 0.4 0
17.4 0.4 0
17.7 0.4 0
18 0.4 0
18.3 0.4 0
18.6 0.4 0
18.9 0.4 0
19.2 0.4 0
19.5 0.4 0
19.8 0.4 0
20.1 0.4 0
20.4 0.4 0
20.7 0.4 0
21 0.4 0
21.3 0.4 0
21.6 0.4 0
21.9 0.4 0
22.2 0.4 0
22.5 0.4 0
22.8 0.4 0
23.1 0.4 0
23.4 0.4 0
23.7 0.4 0
24 0.4 0
24.3 0.4 0
24.6 0.4 0
24.9 0.4 0
25.2 0.4 0
25.5 0.4 0
25.8 0.4 0
26.1 0.4 0
26.4 0.4 0
26.7 0.4 0
27 0.4 0
27.3 0.4 0
27.6 0.4 0
27.9 0.4 0
28.2 0.4 0
28.5 0.4 0
28.8 0.4 0
29.1 0.4 0
29.4 0.4 0
29.7 0.4 0
30 0.4 0
30.3 0.4 0
30.6 0.4 0
0 0.5 0
0.3 0.5 0
0.6 0.5 0
0.9 0.5 0
1.2 0.5 0
1.5 0.5 0
1.8 0.5 0
2.1 0.5 0
2.4 0.5 0
2.7 0.5 0
3 0.5 0
3.3 0.5 0
3.6 0.5 0
3.9 0.5 0
4.2 0.5 0
4.5 0.5 0
4.8 0.5 0
5.1 0.5 0
5.4 0.5 0
5.7 0.5 0
6 0.5 0
6.3 0.5 0
6.6 0.5 0
6.9 0.5 0
7.2 0.5 0
7.5 0.5 0
7.8 0.5 0
8.1 0.5 0
8.4 0.5 0
8.7 0.5 0
9 0.5 0
9.3 0.5 0
9.6 0.5 0
9.9 0.5 0
10.2 0.5 0
10.5 0.5 0
10.8 0.5 0
11.1 0.5 0
11.4 0.5 0
11.7 0.5 0
12 0.5 0
12.3 0.5 0
12.6 0.5 0
12.9 0.5 0
13.2 0.5 0
13.5 0.5 0
13.8 0.5 0
14.1 0.5 0
14.4 0.5 0
14.7 0.5 0
15 0.5 0
15.3 0.5 0
15.6 0.5 0
15.9 0.5 0
16.2 0.5 0
16.5 0.5 0
16.8 0.5 0
17.1 0.5 0
17.4 0.5 0
17.7 0.5 0
18 0.5 0
18.3 0.5 0
18.6 0.5 0
18.9 0.5 0
19.2 0.5 0
19.5 0.5 0
19.8 0.5 0
20.1 0.5 0
20.4 0.5 0
20.7 0.5 0
21 0.5 0
21.3 0.5 0
21.6 0.5 0
21.9 0.5 0
22.2 0.5 0
22.5 0.5 0
22.8 0.5 0
23.1 0.5 0
23.4 0.5 0
23.7 0.5 0
24 0.5 0
24.3 0.5 0
24.6 0.5 0
24.9 0.5 0
25.2 0.5 0
25.5 0.5 0
25.8 0.5 0
26.1 0.5 0
26.4 0.5 0
26.7 0.5 0
27 0.5 0
27.3 0.5 0
27.6 0.5 0
27.9 0.5 0
28.2 0.5 0
28.5 0.5 0
28.8 0.5 0
29.1 0.5 0
29.4 0.5 0
29.7 0.5 0
30 0.5 0
30.3 0.5 0
30.6 0.5 0
0 0.6 0
0.3 0.6 0
0.6 0.6 0
0.9 0.6 0
1.2 0.6 0
1.5 0.6 0
1.8 0.6 0
2.1 0.6 0
2.4 0.6 0
2.7 0.6 0
3 0.6 0
3.3 0.6 0
3.6 0.6 0
3.9 0.6 0
4.2 0.6 0
4.5 0.6 0
4.8 0.6 0
5.1 0.6 0
5.4 0.6 0
5.7 0.6 0
6 0.6 0
6.3 0.6 0
6.6 0.6 0
6.9 0.6 0
7.2 0.6 0
7.5 0.6 0
7.8 0.6 0
8.1 0.6 0
8.4 0.6 0
8.7 0.6 0
9 0.6 0
9.3 0.6 0
9.6 0.6 0
9.9 0.6 0
10.2 0.6 0
10.5 0.6 0
10.8 0.6 0
11.1 0.6 0
11.4 0.6 0
11.7 0.6 0
12 0.6 0
12.3 0.6 0
12.6 0.6 0
12.9 0.6 0
13.2 0.6 0
13.5 0.6 0
13.8 0.6 0
14.1 0.6 0
14.4 0.6 0
14.7 0.6 0
15 0.6 0
15.3 0.6 0
15.6 0.6 0
15.9 0.6 0
16.2 0.6 0
16.5 0.6 0
16.8 0.6 0
17.1 0.6 0
17.4 0.6 0
17.7 0.6 0
18 0.6 0
18.3 0.6 0
18.6 0.6 0
18.9 0.6 0
19.2 0.6 0
19.5 0.6 0
19.8 0.6 0
20.1 0.6 0
20.4 0.6 0
20.7 0.6 0
21 0.6 0
21.3 0.6 0
21.6 0.6 0
21.9 0.6 0
22.2 0.6 0
22.5 0.6 0
22.8 0.6 0
23.1 0.6 0
23.4 0.6 0
23.7 0.6 0
24 0.6 0
24.3 0.6 0
24.6 0.6 0
24.9 0.6 0
25.2 0.6 0
25.5 0.6 0
25.8 0.6 0
26.1 0.6 0
26.4 0.6 0
26.7 0.6 0
27 0.6 0
27.3 0.6 0
27.6 0.6 0
27.9 0.6 0
28.2 0.6 0
28.5 0.6 0
28.8 0.6 0
29.1 0.6 0
29.4 0.6 0
29.7 0.6 0
30 0.6 0
30.3 0.6 0
30.6 0.6 0
0 0.7 0
0.3 0.7 0
0.6 0.7 0
0.9 0.7 0
1.2 0.7 0
1.5 0.7 0
1.8 0.7 0
2.1 0.7 0
2.4 0.7 0
2.7 0.7 0
3 0.7 0
3.3 0.7 0
3.6 0.7 0
3.9 0.7 0
4.2 0.7 0
4.5 0.7 0
4.8 0.7 0
5.1 0.7 0
5.4 0.7 0
5.7 0.7 0
6 0.7 0
6.3 0.7 0
6.6 0.7 0
6.9 0.7 0
7.2 0.7 0
7.5 0.7 0
7.8 0.7 0
8.1 0.7 0
8.4 0.7 0
8.7 0.7 0
9 0.7 0
9.3 0.7 0
9.6 0.7 0
9.9 0.7 0
10.2 0.7 0
10.5 0.7 0
10.8 0.7 0
11.1 0.7 0
11.4 0.7 0
11.7 0.7 0
12 0.7 0
12.3 0.7 0
12.6 0.7 0
12.9 0.7 0
13.2 0.7 0
13.5 0.7 0
13.8 0.7 0
14.1 0.7 0
14.4 0.7 0
14.7 0.7 0
15 0.7 0
15.3 0.7 0
15.6 0.7 0
15.9 0.7 0
16.2 0.7 0
16.5 0.7 0
16.8 0.7 0
17.1 0.7 0
17.4 0.7 0
17.7 0.7 0
18 0.7 0
18.3 0.7 0
18.6 0.7 0
18.9 0.7 0
19.2 0.7 0
19.5 0.7 0
19.8 0.7 0
20.1 0.7 0
20.4 0.7 0
20.7 0.7 0
21 0.7 0
21.3 0.7 0
21.6 0.7 0
21.9 0.7 0
22.2 0.7 0
22.5 0.7 0
22.8 0.7 0
23.1 0.7 0
23.4 0.7 0
23.7 0.7 0
24 0.7 0
24.3 0.7 0
24.6 0.7 0
24.9 0.7 0
25.2 0.7 0
25.5 0.7 0
25.8 0.7 0
26.1 0.7 0
26.4 0.7 0
26.7 0.7 0
27 0.7 0
27.3 0.7 0
27.6 0.7 0
27.9 0.7 0
28.2 0.7 0
28.5 0.7 0
28.8 0.7 0
29.1 0.7 0
29.4 0.7 0
29.7 0.7 0
30 0.7 0
30.3 0.7 0
30.6 0.7 0
0 0.8 0
0.3 0.8 0
0.6 0.8 0
0.9 0.8 0
1.2 0.8 0
1.5 0.8 0
1.8 0.8 0
2.1 0.8 0
2.4 0.8 0
2.7 0.8 0
3 0.8 0
3.3 0.8 0
3.6 0.8 0
3.9 0.8 0
4.2 0.8 0
4.5 0.8 0
4.8 0.8 0
5.1 0.8 0
5.4 0.8 0
5.7 0.8 0
6 0.8 0
6.3 0.8 0
6.6 0.8 0
6.9 0.8 0
7.2 0.8 0
7.5 0.8 0
7.8 0.8 0
8.1 0.8 0
8.4 0.8 0
8.7 0.8 0
9 0.8 0
9.3 0.8 0
9.6 0.8 0
9.9 0.8 0
10.2 0.8 0
10.5 0.8 0
10.8 0.8 0
11.1 0.8 0
11.4 0.8 0
11.7 0.8 0
12 0.8 0
12.3 0.8 0
12.6 0.8 0
12.9 0.8 0
13.2 0.8 0
13.5 0.8 0
13.8 0.8 0
14.1 0.8 0
14.4 0.8 0
14.7 0.8 0
15 0.8 0
15.3 0.8 0
15.6 0.8 0
15.9 0.8 0
16.2 0.8 0
16.5 0.8 0
16.8 0.8 0
17.1 0.8 0
17.4 0.8 0
17.7 0.8 0
18 0.8 0
18.3 0.8 0
18.6 0.8 0
18.9 0.8 0
19.2 0.8 0
19.5 0.8 0
19.8 0.8 0
20.1 0.8 0
20.4 0.8 0
20.7 0.8 0
21 0.8 0
21.3 0.8 0
21.6 0.8 0
21.9 0.8 0
22.2 0.8 0
22.5 0.8 0
22.8 0.8 0
23.1 0.8 0
23.4 0.8 0
23.7 0.8 0
24 0.8 0
24.3 0.8 0
24.6 0.8 0
24.9 0.8 0
25.2 0.8 0
25.5 0.8 0
25.8 0.8 0
26.1 0.8 0
26.4 0.8 0
26.7 0.8 0
27 0.8 0
27.3 0.8 0
27.6 0.8 0
27.9 0.8 0
28.2 0.8 0
28.5 0.8 0
28.8 0.8 0
29.1 0.8 0
29.4 0.8 0
29.7 0.8 0
30 0.8 0
30.3 0.8 0
30.6 0.8 0
0 0.9 0
0.3 0.9 0
0.6 0.9 0
0.9 0.9 0
1.2 0.9 0
1.5 0.9 0
1.8 0.9 0
2.1 0.9 0
2.4 0.9 0
2.7 0.9 0
3 0.9 0
3.3 0.9 0
3.6 0.9 0
3.9 0.9 0
4.2 0.9 0
4.5 0.9 0
4.8 0.9 0
5.1 0.9 0
5.4 0.9 0
5.7 0.9 0
6 0.9 0
6.3 0.9 0
6.6 0.9 0
6.9 0.9 0
7.2 0.9 0
7.5 0.9 0
7.8 0.9 0
8.1 0.9 0
8.4 0.9 0
8.7 0.9 0
9 0.9 0
9.3 0.9 0
9.6 0.9 0
9.9 0.9 0
10.2 0.9 0
10.5 0.9 0
10.8 0.9 0
11.1 0.9 0
11.4 0.9 0
11.7 0.9 0
12 0.9 0
12.3 0.9 0
12.6 0.9 0
12.9 0.9 0
13.2 0.9 0
13.5 0.9 0
13.8 0.9 0
14.1 0.9 0
14.4 0.9 0
14.7 0.9 0
15 0.9 0
15.3 0.9 0
15.6 0.9 0
15.9 0.9 0
16.2 0.9 0
16.5 0.9 0
16.8 0.9 0
17.1 0.9 0
17.4 0.9 0
17.7 0.9 0
18 0.9 0
18.3 0.9 0
18.6 0.9 0
18.9 0.9 0
19.2 0.9 0
19.5 0.9 0
19.8 0.9 0
20.1 0.9 0
20.4 0.9 0
20.7 0.9 0
21 0.9 0
21.3 0.9 0
21.6 0.9 0
21.9 0.9 0
22.2 0.9 0
22.5 0.9 0
22.8 0.9 0
23.1 0.9 0
23.4 0.9 0
23.7 0.9 0
24 0.9 0
24.3 0.9 0
24.6 0.9 0
24.9 0.9 0
25.2 0.9 0
25.5 0.9 0
25.8 0.9 0
26.1 0.9 0
26.4 0.9 0
26.7 0.9 0
27 0.9 0
27.3 0.9 0
27.6 0.9 0
27.9 0.9 0
28.2 0.9 0
28.5 0.9 0
28.8 0.9 0
29.1 0.9 0
29.4 0.9 0
29.7 0.9 0
30 0.9 0
30.3 0.9 0
30.6 0.9 0
0 1 0
0.3 1 0
0.6 1 0
0.9 1 0
1.2 1 0
1.5 1 0
1.8 1 0
2.1 1 0
2.4 1 0
2.7 1 0
3 1 0
3.3 1 0
3.6 1 0
3.9 1 0
4.2 1 0
4.5 1 0
4.8 1 0
5.1 1 0
5.4 1 0
5.7 1 0
6 1 0
6.3 1 0
6.6 1 0
6.9 1 0
7.2 1 0
7.5 1 0
7.8 1 0
8.1 1 0
8.4 1 0
8.7 1 0
9 1 0
9.3 1 0
9.6 1 0
9.9 1 0
10.2 1 0
10.5 1 0
10.8 1 0
11.1 1 0
11.4 1 0
11.7 1 0
12 1 0
12.3 1 0
12.6 1 0
12.9 1 0
13.2 1 0
13.5 1 0
13.8 1 0
14.1 1 0
14.4 1 0
14.7 1 0
15 1 0
15.3 1 0
15.6 1 0
15.9 1 0
16.2 1 0
16.5 1 0
16.8 1 0
17.1 1 0
17.4 1 0
17.7 1 0
18 1 0
18.3 1 0
18.6 1 0
18.9 1 0
19.2 1 0
19.5 1 0
19.8 1 0
20.1 1 0
20.4 1 0
20.7 1 0
21 1 0
21.3 1 0
21.6 1 0
21.9 1 0
22.2 1 0
22.5 1 0
22.8 1 0
23.1 1 0
23.4 1 0
23.7 1 0
24 1 0
24.3 1 0
24.6 1 0
24.9 1 0
25.2 1 0
25.5 1 0
25.8 1 0
26.1 1 0
26.4 1 0
26.7 1 0
27 1 0
27.3 1 0
27.6 1 0
27.9 1 0
28.2 1 0
28.5 1 0
28.8 1 0
29.1 1 0
29.4 1 0
29.7 1 0
30 1 0
30.3 1 0
30.6 1 0
0 1.1 0
0.3 1.1 0
0.6 1.1 0
0.9 1.1 0
1.2 1.1 0
1.5 1.1 0
1.8 1.1 0
2.1 1.1 0
2.4 1.1 0
2.7 1.1 0
3 1.1 0
3.3 1.1 0
3.6 1.1 0
3.9 1.1 0
4.2 1.1 0
4.5 1.1 0
4.8 1.1 0
5.1 1.1 0
5.4 1.1 0
5.7 1.1 0
6 1.1 0
6.3 1.1 0
6.6 1.1 0
6.9 1.1 0
7.2 1.1 0
7.5 1.1 0
7.8 1.1 0
8.1 1.1 0
8.4 1.1 0
8.7 1.1 0
9 1.1 0
9.3 1.1 0
9.6 1.1 0
9.9 1.1 0
10.2 1.1 0
10.5 1.1 0
10.8 1.1 0
11.1 1.1 0
11.4 1.1 0
11.7 1.1 0
12 1.1 0
12.3 1.1 0
12.6 1.1 0
12.9 1.1 0
13.2 1.1 0
13.5 1.1 0
13.8 1.1 0
14.1 1.1 0
14.4 1.1 0
14.7 1.1 0
15 1.1 0
15.3 1.1 0
15.6 1.1 0
15.9 1.1 0
16.2 1.1 0
16.5 1.1 0
16.8 1.1 0
17.1 1.1 0
17.4 1.1 0
17.7 1.1 0
18 1.1 0
18.3 1.1 0
18.6 1.1 0
18.9 1.1 0
19.2 1.1 0
19.5 1.1 0
19.8 1.1 0
20.1 1.1 0
20.4 1.1 0
20.7 1.1 0
21 1.1 0
21.3 1.1 0
21.6 1.1 0
21.9 1.1 0
22.2 1.1 0
22.5 1.1 0
22.8 1.1 0
23.1 1.1 0
23.4 1.1 0
23.7 1.1 0
24 1.1 0
24.3 1.1 0
24.6 1.1 0
24.9 1.1 0
25.2 1.1 0
25.5 1.1 0
25.8 1.1 0
26.1 1.1 0
26.4 1.1 0
26.7 1.1 0
27 1.1 0
27.3 1.1 0
27.6 1.1 0
27.9 1.1 0
28.2 1.1 0
28.5 1.1 0
28.8 1.1 0
29.1 1.1 0
29.4 1.1 0
29.7 1.1 0
30 1.1 0
30.3 1.1 0
30.6 1.1 0
0 1.2 0
0.3 1.2 0
0.6 1.2 0
0.9 1.2 0
1.2 1.2 0
1.5 1.2 0
1.8 1.2 0
2.1 1.2 0
2.4 1.2 0
2.7 1.2 0
3 1.2 0
3.3 1.2 0
3.6 1.2 0
3.9 1.2 0
4.2 1.2 0
4.5 1.2 0
4.8 1.2 0
5.1 1.2 0
5.4 1.2 0
5.7 1.2 0
6 1.2 0
6.3 1.2 0
6.6 1.2 0
6.9 1.2 0
7.2 1.2 0
7.5 1.2 0
7.8 1.2 0
8.1 1.2 0
8.4 1.2 0
8.7 1.2 0
9 1.2 0
9.3 1.2 0
9.6 1.2 0
9.9 1.2 0
10.2 1.2 0
10.5 1.2 0
10.8 1.2 0
11.1 1.2 0
11.4 1.2 0
11.7 1.2 0
12 1.2 0
12.3 1.2 0
12.6 1.2 0
12.9 1.2 0
13.2 1.2 0
13.5 1.2 0
13.8 1.2 0
14.1 1.2 0
14.4 1.2 0
14.7 1.2 0
15 1.2 0
15.3 1.2 0
15.6 1.2 0
15.9 1.2 0
16.2 1.2 0
16.5 1.2 0
16.8 1.2 0
17.1 1.2 0
17.4 1.2 0
17.7 1.2 0
18 1.2 0
18.3 1.2 0
18.6 1.2 0
18.9 1.2 0
19.2 1.2 0
19.5 1.2 0
19.8 1.2 0
20.1 1.2 0
20.4 1.2 0
20.7 1.2 0
21 1.2 0
21.3 1.2 0
21.6 1.2 0
21.9 1.2 0
22.2 1.2 0
22.5 1.2 0
22.8 1.2 0
23.1 1.2 0
23.4 1.2 0
23.7 1.2 0
24 1.2 0
24.3 1.2 0
24.6 1.2 0
24.9 1.2 0
25.2 1.2 0
25.5 1.2 0
25.8 1.2 0
26.1 1.2 0
26.4 1.2 0
26.7 1.2 0
27 1.2 0
27.3 1.2 0
27.6 1.2 0
27.9 1.2 0
28.2 1.2 0
28.5 1.2 0
28.8 1.2 0
29.1 1.2 0
29.4 1.2 0
29.7 1.2 0
30 1.2 0
30.3 1.2 0
30.6 1.2 0

POINT_DATA 1339

SCALARS pressure double
LOOKUP_TABLE pressure
1.17928
1.17928
1.11443
1.0702
1.03038
0.9938
0.960748
0.93122
0.904864
0.881155
0.859553
0.83959
0.820897
0.803198
0.786291
0.770031
0.754312
0.739057
0.724204
0.70971
0.695535
0.68165
0.668029
0.654649
0.641492
0.628541
0.615782
0.603202
0.590793
0.578549
0.566465
0.554539
0.542768
0.531153
0.519689
0.508374
0.4972
0.486161
0.475245
0.46444
0.453734
0.443113
0.432563
0.422073
0.41163
0.401225
0.390849
0.380495
0.370158
0.359832
0.349516
0.339205
0.328899
0.318595
0.308294
0.297994
0.287695
0.277396
0.267098
0.2568
0.246502
0.236204
0.225907
0.215609
0.205312
0.195014
0.184716
0.174419
0.164121
0.153824
0.143526
0.133229
0.122931
0.112633
0.102336
0.0920383
0.0817407
0.0714432
0.0611456
0.050848
0.0405505
0.0302529
0.0199554
0.00965781
-0.000639738
-0.0109373
-0.0212348
-0.0315324
-0.0418299
-0.0521275
-0.062425
-0.0727226
-0.0830201
-0.0933176
-0.103615
-0.113913
-0.12421
-0.134508
-0.144805
-0.155103
-0.165401
-0.175685
0.175685
1.17928
1.17928
1.11443
1.0702
1.03038
0.9938
0.960748
0.93122
0.904864
0.881155
0.859553
0.83959
0.820897
0.803198
0.786291
0.770031
0.754312
0.739057
0.724204
0.70971
0.695535
0.68165
0.668029
0.654649
0.641492
0.628541
0.615782
0.603202
0.590793
0.578549
0.566465
0.554539
0.542768
0.531153
0.519689
0.508374
0.4972
0.486161
0.475245
0.46444
0.453734
0.443113
0.432563
0.422073
0.41163
0.401225
0.390849
0.380495
0.370158
0.359832
0.349516
0.339205
0.328899
0.318595
0.308294
0.297994
0.287695
0.277396
0.267098
0.2568
0.246502
0.236204
0.225907
0.215609
0.205312
0.195014
0.184716
0.174419
0.164121
0.153824
0.143526
0.133229
0.122931
0.112633
0.102336
0.0920383
0.0817407
0.0714432
0.0611456
0.050848
0.0405505
0.0302529
0.0199554
0.00965781
-0.000639738
-0.0109373
-0.0212348
-0.0315324
-0.0418299
-0.0521275
-0.062425
-0.0727226
-0.0830201
-0.0933176
-0.103615
-0.113913
-0.12421
-0.134508
-0.144805
-0.155103
-0.165401
-0.175685
0.175685
1.15833
1.15833
1.11244
1.07043
1.03108
0.994597
0.961491
0.931852
0.905372
0.88155
0.859857
0.839824
0.821079
0.803342
0.786408
0.770128
0.754395
0.739128
0.724267
0.709765
0.695584
0.681694
0.668069
0.654686
0.641526
0.628572
0.61581
0.603228
0.590817
0.57857
0.566483
0.554554
0.542782
0.531163
0.519697
0.50838
0.497205
0.486164
0.475247
0.464441
0.453734
0.443113
0.432563
0.422072
0.411629
0.401224
0.390848
0.380494
0.370157
0.359832
0.349515
0.339205
0.328899
0.318595
0.308294
0.297994
0.287695
0.277396
0.267098
0.2568
0.246502
0.236204
0.225907
0.215609
0.205312
0.195014
0.184716
0.174419
0.164121
0.153824
0.143526
0.133229
0.122931
0.112633
0.102336
0.0920383
0.0817407
0.0714432
0.0611456
0.050848
0.0405505
0.0302529
0.0199554
0.00965781
-0.000639738
-0.0109373
-0.0212348
-0.0315324
-0.0418299
-0.0521275
-0.062425
-0.0727226
-0.0830201
-0.0933176
-0.103615
-0.113913
-0.12421
-0.134508
-0.144805
-0.155103
-0.165402
-0.175685
0.175685
1.14336
1.14336
1.10956
1.07066
1.03219
0.995921
0.962753
0.93293
0.906233
0.88221
0.860349
0.840188
0.82135
0.803547
0.786566
0.770254
0.754496
0.739212
0.724338
0.709826
0.695637
0.681741
0.668111
0.654723
0.641559
0.628602
0.615837
0.603252
0.590839
0.57859
0.566501
0.55457
0.542795
0.531174
0.519706
0.508387
0.49721
0.486168
0.475249
0.464443
0.453735
0.443113
0.432563
0.422072
0.411629
0.401224
0.390848
0.380494
0.370157
0.359832
0.349515
0.339205
0.328899
0.318595
0.308294
0.297994
0.287695
0.277396
0.267098
0.2568
0.246502
0.236204
0.225907
0.215609
0.205312
0.195014
0.184716
0.174419
0.164121
0.153824
0.143526
0.133229
0.122931
0.112633
0.102336
0.0920383
0.0817407
0.0714432
0.0611456
0.050848
0.0405505
0.0302529
0.0199554
0.00965781
-0.000639738
-0.0109373
-0.0212348
-0.0315324
-0.0418299
-0.0521275
-0.062425
-0.0727226
-0.0830201
-0.0933176
-0.103615
-0.113913
-0.12421
-0.134508
-0.144805
-0.155102
-0.165398
-0.175681
0.175681
1.13379
1.13379
1.10708
1.07077
1.03314
0.997115
0.963929
0.933966
0.907086
0.882882
0.860866
0.840583
0.821653
0.803782
0.786752
0.770403
0.754619
0.739315
0.724426
0.709902
0.695704
0.681799
0.668162
0.654769
0.6416
0.628639
0.61587
0.603283
0.590867
0.578616
0.566525
0.554592
0.542816
0.531193
0.519724
0.508403
0.497224
0.48618
0.475259
0.464451
0.453742
0.443118
0.432567
0.422075
0.411631
0.401225
0.390849
0.380495
0.370157
0.359832
0.349515
0.339205
0.328899
0.318595
0.308294
0.297994
0.287695
0.277396
0.267098
0.2568
0.246502
0.236204
0.225907
0.215609
0.205312
0.195014
0.184716
0.174419
0.164121
0.153824
0.143526
0.133229
0.122931
0.112633
0.102336
0.0920383
0.0817407
0.0714432
0.0611456
0.050848
0.0405505
0.0302529
0.0199554
0.00965781
-0.000639738
-0.0109373
-0.0212348
-0.0315324
-0.0418299
-0.0521275
-0.062425
-0.0727226
-0.0830201
-0.0933176
-0.103615
-0.113913
-0.12421
-0.134508
-0.144804
-0.1551
-0.165388
-0.175677
0.175677
1.12847
1.12847
1.10545
1.07078
1.03373
0.997882
0.964698
0.934656
0.907664
0.883346
0.861231
0.840867
0.821875
0.803958
0.786894
0.770521
0.754718
0.7394
0.724499
0.709966
0.695761
0.68185
0.668208
0.65481
0.641637
0.628673
0.615901
0.603311
0.590893
0.578641
0.566549
0.554615
0.542837
0.531214
0.519743
0.50842
0.49724
0.486194
0.475272
0.464462
0.453751
0.443126
0.432573
0.42208
0.411635
0.401228
0.390851
0.380496
0.370159
0.359833
0.349516
0.339205
0.328899
0.318595
0.308294
0.297994
0.287695
0.277396
0.267098
0.2568
0.246502
0.236204
0.225907
0.215609
0.205312
0.195014
0.184716
0.174419
0.164121
0.153824
0.143526
0.133229
0.122931
0.112633
0.102336
0.0920383
0.0817407
0.0714432
0.0611456
0.050848
0.0405505
0.0302529
0.0199554
0.00965781
-0.000639737
-0.0109373
-0.0212348
-0.0315324
-0.0418299
-0.0521275
-0.062425
-0.0727226
-0.0830201
-0.0933176
-0.103615
-0.113913
-0.12421
-0.134507
-0.144804
-0.155098
-0.165377
-0.175672
0.175672
1.12677
1.12677
1.1049
1.0708
1.03395
0.998156
0.964972
0.934901
0.907871
0.883513
0.861363
0.840972
0.821958
0.804025
0.786949
0.770566
0.754757
0.739433
0.724528
0.709992
0.695784
0.681871
0.668226
0.654827
0.641653
0.628687
0.615914
0.603323
0.590905
0.578651
0.566559
0.554624
0.542846
0.531223
0.519751
0.508428
0.497247
0.486201
0.475278
0.464467
0.453756
0.44313
0.432576
0.422082
0.411637
0.40123
0.390852
0.380497
0.370159
0.359833
0.349516
0.339205
0.328899
0.318596
0.308294
0.297994
0.287695
0.277396
0.267098
0.2568
0.246502
0.236204
0.225907
0.215609
0.205312
0.195014
0.184716
0.174419
0.164121
0.153824
0.143526
0.133229
0.122931
0.112633
0.102336
0.0920383
0.0817407
0.0714432
0.0611456
0.050848
0.0405505
0.0302529
0.0199554
0.00965782
-0.000639737
-0.0109373
-0.0212348
-0.0315324
-0.0418299
-0.0521275
-0.062425
-0.0727226
-0.0830201
-0.0933176
-0.103615
-0.113913
-0.12421
-0.134507
-0.144804
-0.155097
-0.165373
-0.17567
0.17567
1.12847
1.12847
1.10545
1.07078
1.03373
0.997882
0.964698
0.934656
0.907664
0.883346
0.861231
0.840867
0.821875
0.803958
0.786894
0.770521
0.754718
0.7394
0.724499
0.709966
0.695761
0.68185
0.668208
0.65481
0.641637
0.628673
0.615901
0.603311
0.590893
0.578641
0.566549
0.554615
0.542837
0.531214
0.519743
0.50842
0.49724
0.486194
0.475272
0.464462
0.453751
0.443126
0.432573
0.42208
0.411635
0.401228
0.390851
0.380496
0.370159
0.359833
0.349516
0.339205
0.328899
0.318595
0.308294
0.297994
0.287695
0.277396
0.267098
0.2568
0.246502
0.236204
0.225907
0.215609
0.205312
0.195014
0.184716
0.174419
0.164121
0.153824
0.143526
0.133229
0.122931
0.112633
0.102336
0.0920383
0.0817407
0.0714432
0.0611456
0.050848
0.0405505
0.0302529
0.0199554
0.00965782
-0.000639737
-0.0109373
-0.0212348
-0.0315324
-0.0418299
-0.0521275
-0.062425
-0.0727226
-0.0830201
-0.0933176
-0.103615
-0.113913
-0.12421
-0.134507
-0.144804
-0.155098
-0.165377
-0.175672
0.175672
1.13379
1.13379
1.10708
1.07077
1.03314
0.997115
0.963929
0.933966
0.907086
0.882882
0.860866
0.840583
0.821653
0.803782
0.786752
0.770403
0.754619
0.739315
0.724426
0.709902
0.695704
0.681799
0.668162
0.654769
0.6416
0.628639
0.61587
0.603283
0.590867
0.578616
0.566525
0.554592
0.542816
0.531193
0.519724
0.508403
0.497224
0.48618
0.475259
0.464451
0.453742
0.443118
0.432567
0.422075
0.411631
0.401225
0.390849
0.380495
0.370157
0.359832
0.349515
0.339205
0.328899
0.318595
0.308294
0.297994
0.287695
0.277396
0.267098
0.2568
0.246502
0.236204
0.225907
0.215609
0.205312
0.195014
0.184716
0.174419
0.164121
0.153824
0.143526
0.133229
0.122931
0.112633
0.102336
0.0920383
0.0817407
0.0714432
0.0611456
0.050848
0.0405505
0.0302529
0.0199554
0.00965782
-0.000639736
-0.0109373
-0.0212348
-0.0315324
-0.0418299
-0.0521275
-0.062425
-0.0727226
-0.0830201
-0.0933176
-0.103615
-0.113913
-0.12421
-0.134508
-0.144804
-0.1551
-0.165388
-0.175677
0.175677
1.14336
1.14336
1.10956
1.07066
1.03219
0.995921
0.962753
0.93293
0.906233
0.88221
0.860349
0.840188
0.82135
0.803547
0.786566
0.770254
0.754496
0.739212
0.724338
0.709826
0.695637
0.681741
0.668111
0.654723
0.641559
0.628602
0.615837
0.603252
0.590839
0.57859
0.566501
0.55457
0.542795
0.531174
0.519706
0.508387
0.49721
0.486168
0.475249
0.464443
0.453735
0.443113
0.432563
0.422072
0.411629
0.401224
0.390848
0.380494
0.370157
0.359832
0.349515
0.339205
0.328899
0.318595
0.308294
0.297994
0.287695
0.277396
0.267098
0.2568
0.246502
0.236204
0.225907
0.215609
0.205312
0.195014
0.184716
0.174419
0.164121
0.153824
0.143526
0.133229
0.122931
0.112633
0.102336
0.0920383
0.0817407
0.0714432
0.0611456
0.050848
0.0405505
0.0302529
0.0199554
0.00965782
-0.000639736
-0.0109373
-0.0212348
-0.0315324
-0.0418299
-0.0521275
-0.062425
-0.0727226
-0.0830201
-0.0933176
-0.103615
-0.113913
-0.12421
-0.134508
-0.144805
-0.155102
-0.165398
-0.175681
0.175681
1.15833
1.15833
1.11244
1.07043
1.03108
0.994597
0.961491
0.931852
0.905372
0.88155
0.859857
0.839824
0.821079
0.803342
0.786408
0.770128
0.754395
0.739128
0.724267
0.709765
0.695584
0.681694
0.668069
0.654686
0.641526
0.628572
0.61581
0.603228
0.590817
0.57857
0.566483
0.554554
0.542782
0.531163
0.519697
0.50838
0.497205
0.486164
0.475247
0.464441
0.453734
0.443113
0.432563
0.422072
0.411629
0.401224
0.390848
0.380494
0.370157
0.359832
0.349515
0.339205
0.328899
0.318595
0.308294
0.297994
0.287695
0.277396
0.267098
0.2568
0.246502
0.236204
0.225907
0.215609
0.205312
0.195014
0.184716
0.174419
0.164121
0.153824
0.143526
0.133229
0.122931
0.112633
0.102336
0.0920383
0.0817407
0.0714432
0.0611456
0.050848
0.0405505
0.0302529
0.0199554
0.00965782
-0.000639736
-0.0109373
-0.0212348
-0.0315324
-0.0418299
-0.0521275
-0.062425
-0.0727226
-0.0830201
-0.0933176
-0.103615
-0.113913
-0.12421
-0.134508
-0.144805
-0.155103
-0.165402
-0.175685
0.175685
1.17928
1.17928
1.11443
1.0702
1.03038
0.9938
0.960748
0.93122
0.904864
0.881155
0.859553
0.83959
0.820897
0.803198
0.786291
0.770031
0.754312
0.739057
0.724204
0.70971
0.695535
0.68165
0.668029
0.654649
0.641492
0.628541
0.615782
0.603202
0.590793
0.578549
0.566465
0.554539
0.542768
0.531153
0.519689
0.508374
0.4972
0.486161
0.475245
0.46444
0.453734
0.443113
0.432563
0.422073
0.41163
0.401225
0.390849
0.380495
0.370158
0.359832
0.349516
0.339205
0.328899
0.318595
0.308294
0.297994
0.287695
0.277396
0.267098
0.2568
0.246502
0.236204
0.225907
0.215609
0.205312
0.195014
0.184716
0.174419
0.164121
0.153824
0.143526
0.133229
0.122931
0.112633
0.102336
0.0920383
0.0817407
0.0714432
0.0611456
0.050848
0.0405505
0.0302529
0.0199554
0.00965782
-0.000639736
-0.0109373
-0.0212348
-0.0315324
-0.0418299
-0.0521275
-0.062425
-0.0727226
-0.0830201
-0.0933176
-0.103615
-0.113913
-0.12421
-0.134508
-0.144805
-0.155103
-0.165401
-0.175685
0.175685
1.17928
1.17928
1.11443
1.0702
1.03038
0.9938
0.960748
0.93122
0.904864
0.881155
0.859553
0.83959
0.820897
0.803198
0.786291
0.770031
0.754312
0.739057
0.724204
0.70971
0.695535
0.68165
0.668029
0.654649
0.641492
0.628541
0.615782
0.603202
0.590793
0.578549
0.566465
0.554539
0.542768
0.531153
0.519689
0.508374
0.4972
0.486161
0.475245
0.46444
0.453734
0.443113
0.432563
0.422073
0.41163
0.401225
0.390849
0.380495
0.370158
0.359832
0.349516
0.339205
0.328899
0.318595
0.308294
0.297994
0.287695
0.277396
0.267098
0.2568
0.246502
0.236204
0.225907
0.215609
0.205312
0.195014
0.184716
0.174419
0.164121
0.153824
0.143526
0.133229
0.122931
0.112633
0.102336
0.0920383
0.0817407
0.0714432
0.0611456
0.050848
0.0405505
0.0302529
0.0199554
0.00965782
-0.000639736
-0.0109373
-0.0212348
-0.0315324
-0.0418299
-0.0521275
-0.062425
-0.0727226
-0.0830201
-0.0933176
-0.103615
-0.113913
-0.12421
-0.134508
-0.144805
-0.155103
-0.165401
-0.175685
0.175685
SCALARS phi double
LOOKUP_TABLE phi
1
1
1
1
0.999998
0.999994
0.999981
0.999956
0.999917
0.999826
0.999658
0.999529
0.999579
0.999469
0.997936
0.992922
0.982293
0.964616
0.939537
0.907674
0.870227
0.828584
0.784055
0.737761
0.690616
0.643352
0.596549
0.550658
0.506025
0.462907
0.421485
0.381884
0.344187
0.30845
0.274711
0.243002
0.213356
0.185802
0.160371
0.137089
0.115972
0.0970174
0.0802015
0.0654719
0.0527463
0.0419124
0.0328306
0.0253397
0.0192636
0.0144191
0.0106237
0.00770301
0.00549548
0.00385706
0.002663
0.00180854
0.00120813
0.000793837
0.000513094
0.000326236
0.000204065
0.000125587
7.60507e-05
4.53206e-05
2.65813e-05
1.53462e-05
8.72223e-06
4.88113e-06
2.68994e-06
1.46002e-06
7.80613e-07
4.11186e-07
2.1342e-07
1.09167e-07
5.50395e-08
2.73559e-08
1.34056e-08
6.47812e-09
3.08745e-09
1.45146e-09
6.73178e-10
3.08059e-10
1.39117e-10
6.20055e-11
2.72799e-11
1.18489e-11
5.08152e-12
2.15202e-12
9.001e-13
3.71864e-13
1.51768e-13
6.11973e-14
2.43832e-14
9.60084e-15
3.73626e-15
1.43722e-15
5.46533e-16
2.05477e-16
7.63879e-17
2.80792e-17
1.02359e-17
3.4458e-18
3.4458e-18
1
1
1
1
0.999998
0.999994
0.999981
0.999956
0.999917
0.999826
0.999658
0.999529
0.999579
0.999469
0.997936
0.992922
0.982293
0.964616
0.939537
0.907674
0.870227
0.828584
0.784055
0.737761
0.690616
0.643352
0.596549
0.550658
0.506025
0.462907
0.421485
0.381884
0.344187
0.30845
0.274711
0.243002
0.213356
0.185802
0.160371
0.137089
0.115972
0.0970174
0.0802015
0.0654719
0.0527463
0.0419124
0.0328306
0.0253397
0.0192636
0.0144191
0.0106237
0.00770301
0.00549548
0.00385706
0.002663
0.00180854
0.00120813
0.000793837
0.000513094
0.000326236
0.000204065
0.000125587
7.60507e-05
4.53206e-05
2.65813e-05
1.53462e-05
8.72223e-06
4.88113e-06
2.68994e-06
1.46002e-06
7.80613e-07
4.11186e-07
2.1342e-07
1.09167e-07
5.50395e-08
2.73559e-08
1.34056e-08
6.47812e-09
3.08745e-09
1.45146e-09
6.73178e-10
3.08059e-10
1.39117e-10
6.20055e-11
2.72799e-11
1.18489e-11
5.08152e-12
2.15202e-12
9.001e-13
3.71864e-13
1.51768e-13
6.11973e-14
2.43832e-14
9.60084e-15
3.73626e-15
1.43722e-15
5.46533e-16
2.05477e-16
7.63879e-17
2.80792e-17
1.02359e-17
3.4458e-18
3.4458e-18
1
1
1
0.999996
0.999983
0.999954
0.999898
0.999803
0.999659
0.999448
0.99915
0.998762
0.998326
0.997849
0.997147
0.995712
0.992722
0.987211
0.978294
0.965349
0.948097
0.926583
0.901102
0.872118
0.840186
0.805894
0.769825
0.732528
0.694498
0.656161
0.617866
0.579878
0.542384
0.505498
0.469272
0.433721
0.398839
0.364624
0.331102
0.29834
0.26646
0.235641
0.206109
0.17812
0.151939
0.127814
0.105947
0.0864742
0.0694569
0.0548725
0.0426212
0.0325379
0.0244084
0.0179888
0.0130236
0.00926184
0.00646995
0.00443971
0.00299284
0.00198211
0.00128985
0.00082484
0.000518427
0.000320302
0.000194563
0.000116216
6.82738e-05
3.94554e-05
2.24338e-05
1.25524e-05
6.91288e-06
3.74786e-06
2.00069e-06
1.05179e-06
5.44647e-07
2.77852e-07
1.3967e-07
6.91928e-08
3.37881e-08
1.62662e-08
7.72147e-09
3.61476e-09
1.66914e-09
7.60344e-10
3.41743e-10
1.51575e-10
6.63526e-11
2.86718e-11
1.22316e-11
5.1523e-12
2.14323e-12
8.80535e-13
3.57347e-13
1.4327e-13
5.67545e-14
2.22165e-14
8.59479e-15
3.28647e-15
1.24229e-15
4.64184e-16
1.72017e-16
5.86427e-17
5.86427e-17
0.999997
1
0.99998
0.999896
0.999724
0.999434
0.998999
0.998397
0.997612
0.996636
0.995464
0.994096
0.992544
0.990829
0.988955
0.986876
0.984453
0.981453
0.977562
0.972427
0.96571
0.957119
0.946442
0.933552
0.91841
0.901054
0.881595
0.860196
0.83706
0.812415
0.786495
0.759524
0.731695
0.703154
0.673985
0.644196
0.613726
0.582448
0.550196
0.516799
0.482132
0.44616
0.40898
0.370852
0.332202
0.293601
0.255722
0.219275
0.184946
0.153327
0.12487
0.0998534
0.0783767
0.0603708
0.0456266
0.0338321
0.0246124
0.0175676
0.0123038
0.00845648
0.00570459
0.00377763
0.00245614
0.00156825
0.000983547
0.000606019
0.000366931
0.000218367
0.000127759
7.35016e-05
4.15908e-05
2.31521e-05
1.26815e-05
6.83648e-06
3.628e-06