# vtk DataFile Version 3.0
FlowField
ASCII
DATASET STRUCTURED_GRID
DIMENSIONS 103 13 1 
POINTS 1339 double
0 0 0
0.3 0 0
0.6 0 0
0.9 0 0
1.2 0 0
1.5 0 0
1.8 0 0
2.1 0 0
2.4 0 0
2.7 0 0
3 0 0
3.3 0 0
3.6 0 0
3.9 0 0
4.2 0 0
4.5 0 0
4.8 0 0
5.1 0 0
5.4 0 0
5.7 0 0
6 0 0
6.3 0 0
6.6 0 0
6.9 0 0
7.2 0 0
7.5 0 0
7.8 0 0
8.1 0 0
8.4 0 0
8.7 0 0
9 0 0
9.3 0 0
9.6 0 0
9.9 0 0
10.2 0 0
10.5 0 0
10.8 0 0
11.1 0 0
11.4 0 0
11.7 0 0
12 0 0
12.3 0 0
12.6 0 0
12.9 0 0
13.2 0 0
13.5 0 0
13.8 0 0
14.1 0 0
14.4 0 0
14.7 0 0
15 0 0
15.3 0 0
15.6 0 0
15.9 0 0
16.2 0 0
16.5 0 0
16.8 0 0
17.1 0 0
17.4 0 0
17.7 0 0
18 0 0
18.3 0 0
18.6 0 0
18.9 0 0
19.2 0 0
19.5 0 0
19.8 0 0
20.1 0 0
20.4 0 0
20.7 0 0
21 0 0
21.3 0 0
21.6 0 0
21.9 0 0
22.2 0 0
22.5 0 0
22.8 0 0
23.1 0 0
23.4 0 0
23.7 0 0
24 0 0
24.3 0 0
24.6 0 0
24.9 0 0
25.2 0 0
25.5 0 0
25.8 0 0
26.1 0 0
26.4 0 0
26.7 0 0
27 0 0
27.3 0 0
27.6 0 0
27.9 0 0
28.2 0 0
28.5 0 0
28.8 0 0
29.1 0 0
29.4 0 0
29.7 0 0
30 0 0
30.3 0 0
30.6 0 0
0 0.1 0
0.3 0.1 0
0.6 0.1 0
0.9 0.1 0
1.2 0.1 0
1.5 0.1 0
1.8 0.1 0
2.1 0.1 0
2.4 0.1 0
2.7 0.1 0
3 0.1 0
3.3 0.1 0
3.6 0.1 0
3.9 0.1 0
4.2 0.1 0
4.5 0.1 0
4.8 0.1 0
5.1 0.1 0
5.4 0.1 0
5.7 0.1 0
6 0.1 0
6.3 0.1 0
6.6 0.1 0
6.9 0.1 0
7.2 0.1 0
7.5 0.1 0
7.8 0.1 0
8.1 0.1 0
8.4 0.1 0
8.7 0.1 0
9 0.1 0
9.3 0.1 0
9.6 0.1 0
9.9 0.1 0
10.2 0.1 0
10.5 0.1 0
10.8 0.1 0
11.1 0.1 0
11.4 0.1 0
11.7 0.1 0
12 0.1 0
12.3 0.1 0
12.6 0.1 0
12.9 0.1 0
13.2 0.1 0
13.5 0.1 0
13.8 0.1 0
14.1 0.1 0
14.4 0.1 0
14.7 0.1 0
15 0.1 0
15.3 0.1 0
15.6 0.1 0
15.9 0.1 0
16.2 0.1 0
16.5 0.1 0
16.8 0.1 0
17.1 0.1 0
17.4 0.1 0
17.7 0.1 0
18 0.1 0
18.3 0.1 0
18.6 0.1 0
18.9 0.1 0
19.2 0.1 0
19.5 0.1 0
19.8 0.1 0
20.1 0.1 0
20.4 0.1 0
20.7 0.1 0
21 0.1 0
21.3 0.1 0
21.6 0.1 0
21.9 0.1 0
22.2 0.1 0
22.5 0.1 0
22.8 0.1 0
23.1 0.1 0
23.4 0.1 0
23.7 0.1 0
24 0.1 0
24.3 0.1 0
24.6 0.1 0
24.9 0.1 0
25.2 0.1 0
25.5 0.1 0
25.8 0.1 0
26.1 0.1 0
26.4 0.1 0
26.7 0.1 0
27 0.1 0
27.3 0.1 0
27.6 0.1 0
27.9 0.1 0
28.2 0.1 0
28.5 0.1 0
28.8 0.1 0
29.1 0.1 0
29.4 0.1 0
29.7 0.1 0
30 0.1 0
30.3 0.1 0
30.6 0.1 0
0 0.2 0
0.3 0.2 0
0.6 0.2 0
0.9 0.2 0
1.2 0.2 0
1.5 0.2 0
1.8 0.2 0
2.1 0.2 0
2.4 0.2 0
2.7 0.2 0
3 0.2 0
3.3 0.2 0
3.6 0.2 0
3.9 0.2 0
4.2 0.2 0
4.5 0.2 0
4.8 0.2 0
5.1 0.2 0
5.4 0.2 0
5.7 0.2 0
6 0.2 0
6.3 0.2 0
6.6 0.2 0
6.9 0.2 0
7.2 0.2 0
7.5 0.2 0
7.8 0.2 0
8.1 0.2 0
8.4 0.2 0
8.7 0.2 0
9 0.2 0
9.3 0.2 0
9.6 0.2 0
9.9 0.2 0
10.2 0.2 0
10.5 0.2 0
10.8 0.2 0
11.1 0.2 0
11.4 0.2 0
11.7 0.2 0
12 0.2 0
12.3 0.2 0
12.6 0.2 0
12.9 0.2 0
13.2 0.2 0
13.5 0.2 0
13.8 0.2 0
14.1 0.2 0
14.4 0.2 0
14.7 0.2 0
15 0.2 0
15.3 0.2 0
15.6 0.2 0
15.9 0.2 0
16.2 0.2 0
16.5 0.2 0
16.8 0.2 0
17.1 0.2 0
17.4 0.2 0
17.7 0.2 0
18 0.2 0
18.3 0.2 0
18.6 0.2 0
18.9 0.2 0
19.2 0.2 0
19.5 0.2 0
19.8 0.2 0
20.1 0.2 0
20.4 0.2 0
20.7 0.2 0
21 0.2 0
21.3 0.2 0
21.6 0.2 0
21.9 0.2 0
22.2 0.2 0
22.5 0.2 0
22.8 0.2 0
23.1 0.2 0
23.4 0.2 0
23.7 0.2 0
24 0.2 0
24.3 0.2 0
24.6 0.2 0
24.9 0.2 0
25.2 0.2 0
25.5 0.2 0
25.8 0.2 0
26.1 0.2 0
26.4 0.2 0
26.7 0.2 0
27 0.2 0
27.3 0.2 0
27.6 0.2 0
27.9 0.2 0
28.2 0.2 0
28.5 0.2 0
28.8 0.2 0
29.1 0.2 0
29.4 0.2 0
29.7 0.2 0
30 0.2 0
30.3 0.2 0
30.6 0.2 0
0 0.3 0
0.3 0.3 0
0.6 0.3 0
0.9 0.3 0
1.2 0.3 0
1.5 0.3 0
1.8 0.3 0
2.1 0.3 0
2.4 0.3 0
2.7 0.3 0
3 0.3 0
3.3 0.3 0
3.6 0.3 0
3.9 0.3 0
4.2 0.3 0
4.5 0.3 0
4.8 0.3 0
5.1 0.3 0
5.4 0.3 0
5.7 0.3 0
6 0.3 0
6.3 0.3 0
6.6 0.3 0
6.9 0.3 0
7.2 0.3 0
7.5 0.3 0
7.8 0.3 0
8.1 0.3 0
8.4 0.3 0
8.7 0.3 0
9 0.3 0
9.3 0.3 0
9.6 0.3 0
9.9 0.3 0
10.2 0.3 0
10.5 0.3 0
10.8 0.3 0
11.1 0.3 0
11.4 0.3 0
11.7 0.3 0
12 0.3 0
12.3 0.3 0
12.6 0.3 0
12.9 0.3 0
13.2 0.3 0
13.5 0.3 0
13.8 0.3 0
14.1 0.3 0
14.4 0.3 0
14.7 0.3 0
15 0.3 0
15.3 0.3 0
15.6 0.3 0
15.9 0.3 0
16.2 0.3 0
16.5 0.3 0
16.8 0.3 0
17.1 0.3 0
17.4 0.3 0
17.7 0.3 0
18 0.3 0
18.3 0.3 0
18.6 0.3 0
18.9 0.3 0
19.2 0.3 0
19.5 0.3 0
19.8 0.3 0
20.1 0.3 0
20.4 0.3 0
20.7 0.3 0
21 0.3 0
21.3 0.3 0
21.6 0.3 0
21.9 0.3 0
22.2 0.3 0
22.5 0.3 0
22.8 0.3 0
23.1 0.3 0
23.4 0.3 0
23.7 0.3 0
24 0.3 0
24.3 0.3 0
24.6 0.3 0
24.9 0.3 0
25.2 0.3 0
25.5 0.3 0
25.8 0.3 0
26.1 0.3 0
26.4 0.3 0
26.7 0.3 0
27 0.3 0
27.3 0.3 0
27.6 0.3 0
27.9 0.3 0
28.2 0.3 0
28.5 0.3 0
28.8 0.3 0
29.1 0.3 0
29.4 0.3 0
29.7 0.3 0
30 0.3 0
30.3 0.3 0
30.6 0.3 0
0 0.4 0
0.3 0.4 0
0.6 0.4 0
0.9 0.4 0
1.2 0.4 0
1.5 0.4 0
1.8 0.4 0
2.1 0.4 0
2.4 0.4 0
2.7 0.4 0
3 0.4 0
3.3 0.4 0
3.6 0.4 0
3.9 0.4 0
4.2 0.4 0
4.5 0.4 0
4.8 0.4 0
5.1 0.4 0
5.4 0.4 0
5.7 0.4 0
6 0.4 0
6.3 0.4 0
6.6 0.4 0
6.9 0.4 0
7.2 0.4 0
7.5 0.4 0
7.8 0.4 0
8.1 0.4 0
8.4 0.4 0
8.7 0.4 0
9 0.4 0
9.3 0.4 0
9.6 0.4 0
9.9 0.4 0
10.2 0.4 0
10.5 0.4 0
10.8 0.4 0
11.1 0.4 0
11.4 0.4 0
11.7 0.4 0
12 0.4 0
12.3 0.4 0
12.6 0.4 0
12.9 0.4 0
13.2 0.4 0
13.5 0.4 0
13.8 0.4 0
14.1 0.4 0
14.4 0.4 0
14.7 0.4 0
15 0.4 0
15.3 0.4 0
15.6 0.4 0
15.9 0.4 0
16.2 0.4 0
16.5 0.4 0
16.8 0.4 0
17.1 0.4 0
17.4 0.4 0
17.7 0.4 0
18 0.4 0
18.3 0.4 0
18.6 0.4 0
18.9 0.4 0
19.2 0.4 0
19.5 0.4 0
19.8 0.4 0
20.1 0.4 0
20.4 0.4 0
20.7 0.4 0
21 0.4 0
21.3 0.4 0
21.6 0.4 0
21.9 0.4 0
22.2 0.4 0
22.5 0.4 0
22.8 0.4 0
23.1 0.4 0
23.4 0.4 0
23.7 0.4 0
24 0.4 0
24.3 0.4 0
24.6 0.4 0
24.9 0.4 0
25.2 0.4 0
25.5 0.4 0
25.8 0.4 0
26.1 0.4 0
26.4 0.4 0
26.7 0.4 0
27 0.4 0
27.3 0.4 0
27.6 0.4 0
27.9 0.4 0
28.2 0.4 0
28.5 0.4 0
28.8 0.4 0
29.1 0.4 0
29.4 0.4 0
29.7 0.4 0
30 0.4 0
30.3 0.4 0
30.6 0.4 0
0 0.5 0
0.3 0.5 0
0.6 0.5 0
0.9 0.5 0
1.2 0.5 0
1.5 0.5 0
1.8 0.5 0
2.1 0.5 0
2.4 0.5 0
2.7 0.5 0
3 0.5 0
3.3 0.5 0
3.6 0.5 0
3.9 0.5 0
4.2 0.5 0
4.5 0.5 0
4.8 0.5 0
5.1 0.5 0
5.4 0.5 0
5.7 0.5 0
6 0.5 0
6.3 0.5 0
6.6 0.5 0
6.9 0.5 0
7.2 0.5 0
7.5 0.5 0
7.8 0.5 0
8.1 0.5 0
8.4 0.5 0
8.7 0.5 0
9 0.5 0
9.3 0.5 0
9.6 0.5 0
9.9 0.5 0
10.2 0.5 0
10.5 0.5 0
10.8 0.5 0
11.1 0.5 0
11.4 0.5 0
11.7 0.5 0
12 0.5 0
12.3 0.5 0
12.6 0.5 0
12.9 0.5 0
13.2 0.5 0
13.5 0.5 0
13.8 0.5 0
14.1 0.5 0
14.4 0.5 0
14.7 0.5 0
15 0.5 0
15.3 0.5 0
15.6 0.5 0
15.9 0.5 0
16.2 0.5 0
16.5 0.5 0
16.8 0.5 0
17.1 0.5 0
17.4 0.5 0
17.7 0.5 0
18 0.5 0
18.3 0.5 0
18.6 0.5 0
18.9 0.5 0
19.2 0.5 0
19.5 0.5 0
19.8 0.5 0
20.1 0.5 0
20.4 0.5 0
20.7 0.5 0
21 0.5 0
21.3 0.5 0
21.6 0.5 0
21.9 0.5 0
22.2 0.5 0
22.5 0.5 0
22.8 0.5 0
23.1 0.5 0
23.4 0.5 0
23.7 0.5 0
24 0.5 0
24.3 0.5 0
24.6 0.5 0
24.9 0.5 0
25.2 0.5 0
25.5 0.5 0
25.8 0.5 0
26.1 0.5 0
26.4 0.5 0
26.7 0.5 0
27 0.5 0
27.3 0.5 0
27.6 0.5 0
27.9 0.5 0
28.2 0.5 0
28.5 0.5 0
28.8 0.5 0
29.1 0.5 0
29.4 0.5 0
29.7 0.5 0
30 0.5 0
30.3 0.5 0
30.6 0.5 0
0 0.6 0
0.3 0.6 0
0.6 0.6 0
0.9 0.6 0
1.2 0.6 0
1.5 0.6 0
1.8 0.6 0
2.1 0.6 0
2.4 0.6 0
2.7 0.6 0
3 0.6 0
3.3 0.6 0
3.6 0.6 0
3.9 0.6 0
4.2 0.6 0
4.5 0.6 0
4.8 0.6 0
5.1 0.6 0
5.4 0.6 0
5.7 0.6 0
6 0.6 0
6.3 0.6 0
6.6 0.6 0
6.9 0.6 0
7.2 0.6 0
7.5 0.6 0
7.8 0.6 0
8.1 0.6 0
8.4 0.6 0
8.7 0.6 0
9 0.6 0
9.3 0.6 0
9.6 0.6 0
9.9 0.6 0
10.2 0.6 0
10.5 0.6 0
10.8 0.6 0
11.1 0.6 0
11.4 0.6 0
11.7 0.6 0
12 0.6 0
12.3 0.6 0
12.6 0.6 0
12.9 0.6 0
13.2 0.6 0
13.5 0.6 0
13.8 0.6 0
14.1 0.6 0
14.4 0.6 0
14.7 0.6 0
15 0.6 0
15.3 0.6 0
15.6 0.6 0
15.9 0.6 0
16.2 0.6 0
16.5 0.6 0
16.8 0.6 0
17.1 0.6 0
17.4 0.6 0
17.7 0.6 0
18 0.6 0
18.3 0.6 0
18.6 0.6 0
18.9 0.6 0
19.2 0.6 0
19.5 0.6 0
19.8 0.6 0
20.1 0.6 0
20.4 0.6 0
20.7 0.6 0
21 0.6 0
21.3 0.6 0
21.6 0.6 0
21.9 0.6 0
22.2 0.6 0
22.5 0.6 0
22.8 0.6 0
23.1 0.6 0
23.4 0.6 0
23.7 0.6 0
24 0.6 0
24.3 0.6 0
24.6 0.6 0
24.9 0.6 0
25.2 0.6 0
25.5 0.6 0
25.8 0.6 0
26.1 0.6 0
26.4 0.6 0
26.7 0.6 0
27 0.6 0
27.3 0.6 0
27.6 0.6 0
27.9 0.6 0
28.2 0.6 0
28.5 0.6 0
28.8 0.6 0
29.1 0.6 0
29.4 0.6 0
29.7 0.6 0
30 0.6 0
30.3 0.6 0
30.6 0.6 0
0 0.7 0
0.3 0.7 0
0.6 0.7 0
0.9 0.7 0
1.2 0.7 0
1.5 0.7 0
1.8 0.7 0
2.1 0.7 0
2.4 0.7 0
2.7 0.7 0
3 0.7 0
3.3 0.7 0
3.6 0.7 0
3.9 0.7 0
4.2 0.7 0
4.5 0.7 0
4.8 0.7 0
5.1 0.7 0
5.4 0.7 0
5.7 0.7 0
6 0.7 0
6.3 0.7 0
6.6 0.7 0
6.9 0.7 0
7.2 0.7 0
7.5 0.7 0
7.8 0.7 0
8.1 0.7 0
8.4 0.7 0
8.7 0.7 0
9 0.7 0
9.3 0.7 0
9.6 0.7 0
9.9 0.7 0
10.2 0.7 0
10.5 0.7 0
10.8 0.7 0
11.1 0.7 0
11.4 0.7 0
11.7 0.7 0
12 0.7 0
12.3 0.7 0
12.6 0.7 0
12.9 0.7 0
13.2 0.7 0
13.5 0.7 0
13.8 0.7 0
14.1 0.7 0
14.4 0.7 0
14.7 0.7 0
15 0.7 0
15.3 0.7 0
15.6 0.7 0
15.9 0.7 0
16.2 0.7 0
16.5 0.7 0
16.8 0.7 0
17.1 0.7 0
17.4 0.7 0
17.7 0.7 0
18 0.7 0
18.3 0.7 0
18.6 0.7 0
18.9 0.7 0
19.2 0.7 0
19.5 0.7 0
19.8 0.7 0
20.1 0.7 0
20.4 0.7 0
20.7 0.7 0
21 0.7 0
21.3 0.7 0
21.6 0.7 0
21.9 0.7 0
22.2 0.7 0
22.5 0.7 0
22.8 0.7 0
23.1 0.7 0
23.4 0.7 0
23.7 0.7 0
24 0.7 0
24.3 0.7 0
24.6 0.7 0
24.9 0.7 0
25.2 0.7 0
25.5 0.7 0
25.8 0.7 0
26.1 0.7 0
26.4 0.7 0
26.7 0.7 0
27 0.7 0
27.3 0.7 0
27.6 0.7 0
27.9 0.7 0
28.2 0.7 0
28.5 0.7 0
28.8 0.7 0
29.1 0.7 0
29.4 0.7 0
29.7 0.7 0
30 0.7 0
30.3 0.7 0
30.6 0.7 0
0 0.8 0
0.3 0.8 0
0.6 0.8 0
0.9 0.8 0
1.2 0.8 0
1.5 0.8 0
1.8 0.8 0
2.1 0.8 0
2.4 0.8 0
2.7 0.8 0
3 0.8 0
3.3 0.8 0
3.6 0.8 0
3.9 0.8 0
4.2 0.8 0
4.5 0.8 0
4.8 0.8 0
5.1 0.8 0
5.4 0.8 0
5.7 0.8 0
6 0.8 0
6.3 0.8 0
6.6 0.8 0
6.9 0.8 0
7.2 0.8 0
7.5 0.8 0
7.8 0.8 0
8.1 0.8 0
8.4 0.8 0
8.7 0.8 0
9 0.8 0
9.3 0.8 0
9.6 0.8 0
9.9 0.8 0
10.2 0.8 0
10.5 0.8 0
10.8 0.8 0
11.1 0.8 0
11.4 0.8 0
11.7 0.8 0
12 0.8 0
12.3 0.8 0
12.6 0.8 0
12.9 0.8 0
13.2 0.8 0
13.5 0.8 0
13.8 0.8 0
14.1 0.8 0
14.4 0.8 0
14.7 0.8 0
15 0.8 0
15.3 0.8 0
15.6 0.8 0
15.9 0.8 0
16.2 0.8 0
16.5 0.8 0
16.8 0.8 0
17.1 0.8 0
17.4 0.8 0
17.7 0.8 0
18 0.8 0
18.3 0.8 0
18.6 0.8 0
18.9 0.8 0
19.2 0.8 0
19.5 0.8 0
19.8 0.8 0
20.1 0.8 0
20.4 0.8 0
20.7 0.8 0
21 0.8 0
21.3 0.8 0
21.6 0.8 0
21.9 0.8 0
22.2 0.8 0
22.5 0.8 0
22.8 0.8 0
23.1 0.8 0
23.4 0.8 0
23.7 0.8 0
24 0.8 0
24.3 0.8 0
24.6 0.8 0
24.9 0.8 0
25.2 0.8 0
25.5 0.8 0
25.8 0.8 0
26.1 0.8 0
26.4 0.8 0
26.7 0.8 0
27 0.8 0
27.3 0.8 0
27.6 0.8 0
27.9 0.8 0
28.2 0.8 0
28.5 0.8 0
28.8 0.8 0
29.1 0.8 0
29.4 0.8 0
29.7 0.8 0
30 0.8 0
30.3 0.8 0
30.6 0.8 0
0 0.9 0
0.3 0.9 0
0.6 0.9 0
0.9 0.9 0
1.2 0.9 0
1.5 0.9 0
1.8 0.9 0
2.1 0.9 0
2.4 0.9 0
2.7 0.9 0
3 0.9 0
3.3 0.9 0
3.6 0.9 0
3.9 0.9 0
4.2 0.9 0
4.5 0.9 0
4.8 0.9 0
5.1 0.9 0
5.4 0.9 0
5.7 0.9 0
6 0.9 0
6.3 0.9 0
6.6 0.9 0
6.9 0.9 0
7.2 0.9 0
7.5 0.9 0
7.8 0.9 0
8.1 0.9 0
8.4 0.9 0
8.7 0.9 0
9 0.9 0
9.3 0.9 0
9.6 0.9 0
9.9 0.9 0
10.2 0.9 0
10.5 0.9 0
10.8 0.9 0
11.1 0.9 0
11.4 0.9 0
11.7 0.9 0
12 0.9 0
12.3 0.9 0
12.6 0.9 0
12.9 0.9 0
13.2 0.9 0
13.5 0.9 0
13.8 0.9 0
14.1 0.9 0
14.4 0.9 0
14.7 0.9 0
15 0.9 0
15.3 0.9 0
15.6 0.9 0
15.9 0.9 0
16.2 0.9 0
16.5 0.9 0
16.8 0.9 0
17.1 0.9 0
17.4 0.9 0
17.7 0.9 0
18 0.9 0
18.3 0.9 0
18.6 0.9 0
18.9 0.9 0
19.2 0.9 0
19.5 0.9 0
19.8 0.9 0
20.1 0.9 0
20.4 0.9 0
20.7 0.9 0
21 0.9 0
21.3 0.9 0
21.6 0.9 0
21.9 0.9 0
22.2 0.9 0
22.5 0.9 0
22.8 0.9 0
23.1 0.9 0
23.4 0.9 0
23.7 0.9 0
24 0.9 0
24.3 0.9 0
24.6 0.9 0
24.9 0.9 0
25.2 0.9 0
25.5 0.9 0
25.8 0.9 0
26.1 0.9 0
26.4 0.9 0
26.7 0.9 0
27 0.9 0
27.3 0.9 0
27.6 0.9 0
27.9 0.9 0
28.2 0.9 0
28.5 0.9 0
28.8 0.9 0
29.1 0.9 0
29.4 0.9 0
29.7 0.9 0
30 0.9 0
30.3 0.9 0
30.6 0.9 0
0 1 0
0.3 1 0
0.6 1 0
0.9 1 0
1.2 1 0
1.5 1 0
1.8 1 0
2.1 1 0
2.4 1 0
2.7 1 0
3 1 0
3.3 1 0
3.6 1 0
3.9 1 0
4.2 1 0
4.5 1 0
4.8 1 0
5.1 1 0
5.4 1 0
5.7 1 0
6 1 0
6.3 1 0
6.6 1 0
6.9 1 0
7.2 1 0
7.5 1 0
7.8 1 0
8.1 1 0
8.4 1 0
8.7 1 0
9 1 0
9.3 1 0
9.6 1 0
9.9 1 0
10.2 1 0
10.5 1 0
10.8 1 0
11.1 1 0
11.4 1 0
11.7 1 0
12 1 0
12.3 1 0
12.6 1 0
12.9 1 0
13.2 1 0
13.5 1 0
13.8 1 0
14.1 1 0
14.4 1 0
14.7 1 0
15 1 0
15.3 1 0
15.6 1 0
15.9 1 0
16.2 1 0
16.5 1 0
16.8 1 0
17.1 1 0
17.4 1 0
17.7 1 0
18 1 0
18.3 1 0
18.6 1 0
18.9 1 0
19.2 1 0
19.5 1 0
19.8 1 0
20.1 1 0
20.4 1 0
20.7 1 0
21 1 0
21.3 1 0
21.6 1 0
21.9 1 0
22.2 1 0
22.5 1 0
22.8 1 0
23.1 1 0
23.4 1 0
23.7 1 0
24 1 0
24.3 1 0
24.6 1 0
24.9 1 0
25.2 1 0
25.5 1 0
25.8 1 0
26.1 1 0
26.4 1 0
26.7 1 0
27 1 0
27.3 1 0
27.6 1 0
27.9 1 0
28.2 1 0
28.5 1 0
28.8 1 0
29.1 1 0
29.4 1 0
29.7 1 0
30 1 0
30.3 1 0
30.6 1 0
0 1.1 0
0.3 1.1 0
0.6 1.1 0
0.9 1.1 0
1.2 1.1 0
1.5 1.1 0
1.8 1.1 0
2.1 1.1 0
2.4 1.1 0
2.7 1.1 0
3 1.1 0
3.3 1.1 0
3.6 1.1 0
3.9 1.1 0
4.2 1.1 0
4.5 1.1 0
4.8 1.1 0
5.1 1.1 0
5.4 1.1 0
5.7 1.1 0
6 1.1 0
6.3 1.1 0
6.6 1.1 0
6.9 1.1 0
7.2 1.1 0
7.5 1.1 0
7.8 1.1 0
8.1 1.1 0
8.4 1.1 0
8.7 1.1 0
9 1.1 0
9.3 1.1 0
9.6 1.1 0
9.9 1.1 0
10.2 1.1 0
10.5 1.1 0
10.8 1.1 0
11.1 1.1 0
11.4 1.1 0
11.7 1.1 0
12 1.1 0
12.3 1.1 0
12.6 1.1 0
12.9 1.1 0
13.2 1.1 0
13.5 1.1 0
13.8 1.1 0
14.1 1.1 0
14.4 1.1 0
14.7 1.1 0
15 1.1 0
15.3 1.1 0
15.6 1.1 0
15.9 1.1 0
16.2 1.1 0
16.5 1.1 0
16.8 1.1 0
17.1 1.1 0
17.4 1.1 0
17.7 1.1 0
18 1.1 0
18.3 1.1 0
18.6 1.1 0
18.9 1.1 0
19.2 1.1 0
19.5 1.1 0
19.8 1.1 0
20.1 1.1 0
20.4 1.1 0
20.7 1.1 0
21 1.1 0
21.3 1.1 0
21.6 1.1 0
21.9 1.1 0
22.2 1.1 0
22.5 1.1 0
22.8 1.1 0
23.1 1.1 0
23.4 1.1 0
23.7 1.1 0
24 1.1 0
24.3 1.1 0
24.6 1.1 0
24.9 1.1 0
25.2 1.1 0
25.5 1.1 0
25.8 1.1 0
26.1 1.1 0
26.4 1.1 0
26.7 1.1 0
27 1.1 0
27.3 1.1 0
27.6 1.1 0
27.9 1.1 0
28.2 1.1 0
28.5 1.1 0
28.8 1.1 0
29.1 1.1 0
29.4 1.1 0
29.7 1.1 0
30 1.1 0
30.3 1.1 0
30.6 1.1 0
0 1.2 0
0.3 1.2 0
0.6 1.2 0
0.9 1.2 0
1.2 1.2 0
1.5 1.2 0
1.8 1.2 0
2.1 1.2 0
2.4 1.2 0
2.7 1.2 0
3 1.2 0
3.3 1.2 0
3.6 1.2 0
3.9 1.2 0
4.2 1.2 0
4.5 1.2 0
4.8 1.2 0
5.1 1.2 0
5.4 1.2 0
5.7 1.2 0
6 1.2 0
6.3 1.2 0
6.6 1.2 0
6.9 1.2 0
7.2 1.2 0
7.5 1.2 0
7.8 1.2 0
8.1 1.2 0
8.4 1.2 0
8.7 1.2 0
9 1.2 0
9.3 1.2 0
9.6 1.2 0
9.9 1.2 0
10.2 1.2 0
10.5 1.2 0
10.8 1.2 0
11.1 1.2 0
11.4 1.2 0
11.7 1.2 0
12 1.2 0
12.3 1.2 0
12.6 1.2 0
12.9 1.2 0
13.2 1.2 0
13.5 1.2 0
13.8 1.2 0
14.1 1.2 0
14.4 1.2 0
14.7 1.2 0
15 1.2 0
15.3 1.2 0
15.6 1.2 0
15.9 1.2 0
16.2 1.2 0
16.5 1.2 0
16.8 1.2 0
17.1 1.2 0
17.4 1.2 0
17.7 1.2 0
18 1.2 0
18.3 1.2 0
18.6 1.2 0
18.9 1.2 0
19.2 1.2 0
19.5 1.2 0
19.8 1.2 0
20.1 1.2 0
20.4 1.2 0
20.7 1.2 0
21 1.2 0
21.3 1.2 0
21.6 1.2 0
21.9 1.2 0
22.2 1.2 0
22.5 1.2 0
22.8 1.2 0
23.1 1.2 0
23.4 1.2 0
23.7 1.2 0
24 1.2 0
24.3 1.2 0
24.6 1.2 0
24.9 1.2 0
25.2 1.2 0
25.5 1.2 0
25.8 1.2 0
26.1 1.2 0
26.4 1.2 0
26.7 1.2 0
27 1.2 0
27.3 1.2 0
27.6 1.2 0
27.9 1.2 0
28.2 1.2 0
28.5 1.2 0
28.8 1.2 0
29.1 1.2 0
29.4 1.2 0
29.7 1.2 0
30 1.2 0
30.3 1.2 0
30.6 1.2 0

POINT_DATA 1339

SCALARS pressure double
LOOKUP_TABLE pressure
1.2601
1.2601
1.19525
1.15102
1.11119
1.07462
1.04157
1.01204
0.985684
0.961977
0.940408
0.920574
0.902193
0.885074
0.869073
0.85405
0.839857
0.826329
0.813301
0.800622
0.788169
0.775851
0.763607
0.7514
0.739212
0.727031
0.714853
0.702676
0.6905
0.678325
0.666149
0.653974
0.641798
0.629623
0.617448
0.605272
0.593097
0.580922
0.568747
0.556572
0.544396
0.532221
0.520046
0.507871
0.495695
0.48352
0.471345
0.45917
0.446994
0.434819
0.422644
0.410469
0.398293
0.386118
0.373943
0.361768
0.349592
0.337417
0.325242
0.313067
0.300891
0.288716
0.276541
0.264366
0.25219
0.240015
0.22784
0.215665
0.20349
0.191314
0.179139
0.166964
0.154789
0.142613
0.130438
0.118263
0.106088
0.0939125
0.0817372
0.069562
0.0573868
0.0452116
0.0330363
0.0208611
0.0086859
-0.00348933
-0.0156645
-0.0278398
-0.040015
-0.0521902
-0.0643654
-0.0765406
-0.0887158
-0.100891
-0.113066
-0.125241
-0.137417
-0.149592
-0.161766
-0.173941
-0.186117
-0.198229
0.198229
1.2601
1.2601
1.19525
1.15102
1.11119
1.07462
1.04157
1.01204
0.985684
0.961977
0.940408
0.920574
0.902193
0.885074
0.869073
0.85405
0.839857
0.826329
0.813301
0.800622
0.788169
0.775851
0.763607
0.7514
0.739212
0.727031
0.714853
0.702676
0.6905
0.678325
0.666149
0.653974
0.641798
0.629623
0.617448
0.605272
0.593097
0.580922
0.568747
0.556572
0.544396
0.532221
0.520046
0.507871
0.495695
0.48352
0.471345
0.45917
0.446994
0.434819
0.422644
0.410469
0.398293
0.386118
0.373943
0.361768
0.349592
0.337417
0.325242
0.313067
0.300891
0.288716
0.276541
0.264366
0.25219
0.240015
0.22784
0.215665
0.20349
0.191314
0.179139
0.166964
0.154789
0.142613
0.130438
0.118263
0.106088
0.0939125
0.0817372
0.069562
0.0573868
0.0452116
0.0330363
0.0208611
0.0086859
-0.00348933
-0.0156645
-0.0278398
-0.040015
-0.0521902
-0.0643654
-0.0765406
-0.0887158
-0.100891
-0.113066
-0.125241
-0.137417
-0.149592
-0.161766
-0.173941
-0.186117
-0.198229
0.198229
1.23915
1.23915
1.19326
1.15125
1.1119
1.07541
1.04231
1.01267
0.986192
0.962371
0.940706
0.920794
0.902349
0.885178
0.869137
0.854085
0.839872
0.826333
0.8133
0.800619
0.788166
0.775849
0.763605
0.7514
0.739211
0.72703
0.714853
0.702676
0.6905
0.678325
0.666149
0.653974
0.641798
0.629623
0.617448
0.605272
0.593097
0.580922
0.568747
0.556572
0.544396
0.532221
0.520046
0.507871
0.495695
0.48352
0.471345
0.45917
0.446994
0.434819
0.422644
0.410469
0.398293
0.386118
0.373943
0.361768
0.349592
0.337417
0.325242
0.313067
0.300891
0.288716
0.276541
0.264366
0.25219
0.240015
0.22784
0.215665
0.20349
0.191314
0.179139
0.166964
0.154789
0.142613
0.130438
0.118263
0.106088
0.0939125
0.0817372
0.069562
0.0573868
0.0452116
0.0330363
0.0208611
0.0086859
-0.00348933
-0.0156645
-0.0278398
-0.040015
-0.0521902
-0.0643654
-0.0765406
-0.0887158
-0.100891
-0.113066
-0.125241
-0.137416
-0.149592
-0.161765
-0.17394
-0.186117
-0.198227
0.198227
1.22418
1.22418
1.19038
1.15148
1.11301
1.07674
1.04357
1.01375
0.987054
0.963034
0.941206
0.921168
0.902628
0.885384
0.869285
0.854188
0.839941
0.826376
0.813325
0.800633
0.788173
0.775852
0.763607
0.7514
0.739211
0.72703
0.714853
0.702676
0.6905
0.678325
0.666149
0.653974
0.641798
0.629623
0.617448
0.605272
0.593097
0.580922
0.568747
0.556572
0.544396
0.532221
0.520046
0.507871
0.495695
0.48352
0.471345
0.45917
0.446994
0.434819
0.422644
0.410469
0.398293
0.386118
0.373943
0.361768
0.349592
0.337417
0.325242
0.313067
0.300891
0.288716
0.276541
0.264366
0.25219
0.240015
0.22784
0.215665
0.20349
0.191314
0.179139
0.166964
0.154789
0.142613
0.130438
0.118263
0.106088
0.0939125
0.0817372
0.069562
0.0573868
0.0452116
0.0330363
0.0208611
0.0086859
-0.00348933
-0.0156645
-0.0278398
-0.040015
-0.0521902
-0.0643654
-0.0765406
-0.0887158
-0.100891
-0.113066
-0.125241
-0.137416
-0.149591
-0.161763
-0.173933
-0.186093
-0.198216
0.198216
1.2146
1.2146
1.1879
1.15158
1.11396
1.07793
1.04475
1.01479
0.987909
0.963713
0.941739
0.921589
0.902964
0.885654
0.869499
0.854354
0.840064
0.826463
0.813383
0.800669
0.788194
0.775863
0.763612
0.751402
0.739212
0.72703
0.714853
0.702676
0.6905
0.678325
0.666149
0.653974
0.641798
0.629623
0.617448
0.605272
0.593097
0.580922
0.568747
0.556572
0.544396
0.532221
0.520046
0.507871
0.495695
0.48352
0.471345
0.45917
0.446994
0.434819
0.422644
0.410469
0.398293
0.386118
0.373943
0.361768
0.349592
0.337417
0.325242
0.313067
0.300891
0.288716
0.276541
0.264366
0.25219
0.240015
0.22784
0.215665
0.20349
0.191314
0.179139
0.166964
0.154789
0.142613
0.130438
0.118263
0.106088
0.0939125
0.0817372
0.069562
0.0573868
0.0452116
0.0330363
0.0208611
0.0086859
-0.00348933
-0.0156645
-0.0278398
-0.040015
-0.0521902
-0.0643654
-0.0765406
-0.0887158
-0.100891
-0.113066
-0.125241
-0.137416
-0.14959
-0.16176
-0.173923
-0.186052
-0.1982
0.1982
1.20929
1.20929
1.18627
1.1516
1.11455
1.0787
1.04552
1.01548
0.988488
0.964182
0.942116
0.921894
0.903215
0.885862
0.869671
0.854492
0.840171
0.826541
0.813437
0.800703
0.788214
0.775874
0.763617
0.751405
0.739213
0.727031
0.714853
0.702676
0.6905
0.678325
0.666149
0.653974
0.641798
0.629623
0.617448
0.605272
0.593097
0.580922
0.568747
0.556572
0.544396
0.532221
0.520046
0.507871
0.495695
0.48352
0.471345
0.45917
0.446994
0.434819
0.422644
0.410469
0.398293
0.386118
0.373943
0.361768
0.349592
0.337417
0.325242
0.313067
0.300891
0.288716
0.276541
0.264366
0.25219
0.240015
0.22784
0.215665
0.20349
0.191314
0.179139
0.166964
0.154789
0.142613
0.130438
0.118263
0.106088
0.0939125
0.0817372
0.069562
0.0573868
0.0452116
0.0330363
0.0208611
0.0086859
-0.00348933
-0.0156645
-0.0278398
-0.040015
-0.0521902
-0.0643654
-0.0765406
-0.0887158
-0.100891
-0.113066
-0.125241
-0.137416
-0.149589
-0.161758
-0.173914
-0.186018
-0.198186
0.198186
1.20759
1.20759
1.18572
1.15162
1.11477
1.07897
1.04579
1.01572
0.988695
0.964351
0.942253
0.922006
0.903307
0.885939
0.869735
0.854544
0.840211
0.826571
0.813457
0.800717
0.788223
0.775879
0.76362
0.751406
0.739214
0.727031
0.714853
0.702676
0.6905
0.678325
0.666149
0.653974
0.641798
0.629623
0.617448
0.605272
0.593097
0.580922
0.568747
0.556572
0.544396
0.532221
0.520046
0.507871
0.495695
0.48352
0.471345
0.45917
0.446994
0.434819
0.422644
0.410469
0.398293
0.386118
0.373943
0.361768
0.349592
0.337417
0.325242
0.313067
0.300891
0.288716
0.276541
0.264366
0.25219
0.240015
0.22784
0.215665
0.20349
0.191314
0.179139
0.166964
0.154789
0.142613
0.130438
0.118263
0.106088
0.0939125
0.0817372
0.069562
0.0573868
0.0452116
0.0330363
0.0208611
0.0086859
-0.00348932
-0.0156645
-0.0278398
-0.040015
-0.0521902
-0.0643654
-0.0765406
-0.0887158
-0.100891
-0.113066
-0.125241
-0.137416
-0.149589
-0.161757
-0.173911
-0.186005
-0.198181
0.198181
1.20929
1.20929
1.18627
1.1516
1.11455
1.0787
1.04552
1.01548
0.988488
0.964182
0.942116
0.921894
0.903215
0.885862
0.869671
0.854492
0.840171
0.826541
0.813437
0.800703
0.788214
0.775874
0.763617
0.751405
0.739213
0.727031
0.714853
0.702676
0.6905
0.678325
0.666149
0.653974
0.641798
0.629623
0.617448
0.605272
0.593097
0.580922
0.568747
0.556572
0.544396
0.532221
0.520046
0.507871
0.495695
0.48352
0.471345
0.45917
0.446994
0.434819
0.422644
0.410469
0.398293
0.386118
0.373943
0.361768
0.349592
0.337417
0.325242
0.313067
0.300891
0.288716
0.276541
0.264366
0.25219
0.240015
0.22784
0.215665
0.20349
0.191314
0.179139
0.166964
0.154789
0.142613
0.130438
0.118263
0.106088
0.0939125
0.0817372
0.069562
0.0573868
0.0452116
0.0330363
0.0208611
0.0086859
-0.00348932
-0.0156645
-0.0278398
-0.040015
-0.0521902
-0.0643654
-0.0765406
-0.0887158
-0.100891
-0.113066
-0.125241
-0.137416
-0.149589
-0.161758
-0.173914
-0.186018
-0.198186
0.198186
1.2146
1.2146
1.1879
1.15158
1.11396
1.07793
1.04475
1.01479
0.987909
0.963713
0.941739
0.921589
0.902964
0.885654
0.869499
0.854354
0.840064
0.826463
0.813383
0.800669
0.788194
0.775863
0.763612
0.751402
0.739212
0.72703
0.714853
0.702676
0.6905
0.678325
0.666149
0.653974
0.641798
0.629623
0.617448
0.605272
0.593097
0.580922
0.568747
0.556572
0.544396
0.532221
0.520046
0.507871
0.495695
0.48352
0.471345
0.45917
0.446994
0.434819
0.422644
0.410469
0.398293
0.386118
0.373943
0.361768
0.349592
0.337417
0.325242
0.313067
0.300891
0.288716
0.276541
0.264366
0.25219
0.240015
0.22784
0.215665
0.20349
0.191314
0.179139
0.166964
0.154789
0.142613
0.130438
0.118263
0.106088
0.0939125
0.0817372
0.069562
0.0573868
0.0452116
0.0330363
0.0208611
0.0086859
-0.00348932
-0.0156645
-0.0278398
-0.040015
-0.0521902
-0.0643654
-0.0765406
-0.0887158
-0.100891
-0.113066
-0.125241
-0.137416
-0.14959
-0.16176
-0.173923
-0.186052
-0.1982
0.1982
1.22418
1.22418
1.19038
1.15148
1.11301
1.07674
1.04357
1.01375
0.987054
0.963034
0.941206
0.921168
0.902628
0.885384
0.869285
0.854188
0.839941
0.826376
0.813325
0.800633
0.788173
0.775852
0.763607
0.7514
0.739211
0.72703
0.714853
0.702676
0.6905
0.678325
0.666149
0.653974
0.641798
0.629623
0.617448
0.605272
0.593097
0.580922
0.568747
0.556572
0.544396
0.532221
0.520046
0.507871
0.495695
0.48352
0.471345
0.45917
0.446994
0.434819
0.422644
0.410469
0.398293
0.386118
0.373943
0.361768
0.349592
0.337417
0.325242
0.313067
0.300891
0.288716
0.276541
0.264366
0.25219
0.240015
0.22784
0.215665
0.20349
0.191314
0.179139
0.166964
0.154789
0.142613
0.130438
0.118263
0.106088
0.0939125
0.0817372
0.069562
0.0573868
0.0452116
0.0330363
0.0208611
0.0086859
-0.00348932
-0.0156645
-0.0278398
-0.040015
-0.0521902
-0.0643654
-0.0765406
-0.0887158
-0.100891
-0.113066
-0.125241
-0.137416
-0.149591
-0.161763
-0.173933
-0.186093
-0.198216
0.198216
1.23915
1.23915
1.19326
1.15125
1.1119
1.07541
1.04231
1.01267
0.986192
0.962371
0.940706
0.920794
0.902349
0.885178
0.869137
0.854085
0.839872
0.826333
0.8133
0.800619
0.788166
0.775849
0.763605
0.7514
0.739211
0.72703
0.714853
0.702676
0.6905
0.678325
0.666149
0.653974
0.641798
0.629623
0.617448
0.605272
0.593097
0.580922
0.568747
0.556572
0.544396
0.532221
0.520046
0.507871
0.495695
0.48352
0.471345
0.45917
0.446994
0.434819
0.422644
0.410469
0.398293
0.386118
0.373943
0.361768
0.349592
0.337417
0.325242
0.313067
0.300891
0.288716
0.276541
0.264366
0.25219
0.240015
0.22784
0.215665
0.20349
0.191314
0.179139
0.166964
0.154789
0.142613
0.130438
0.118263
0.106088
0.0939125
0.0817372
0.069562
0.0573868
0.0452116
0.0330363
0.0208611
0.0086859
-0.00348932
-0.0156645
-0.0278398
-0.040015
-0.0521902
-0.0643654
-0.0765406
-0.0887158
-0.100891
-0.113066
-0.125241
-0.137416
-0.149592
-0.161765
-0.17394
-0.186117
-0.198227
0.198227
1.2601
1.2601
1.19525
1.15102
1.11119
1.07462
1.04157
1.01204
0.985684
0.961977
0.940408
0.920574
0.902193
0.885074
0.869073
0.85405
0.839857
0.826329
0.813301
0.800622
0.788169
0.775851
0.763607
0.7514
0.739212
0.727031
0.714853
0.702676
0.6905
0.678325
0.666149
0.653974
0.641798
0.629623
0.617448
0.605272
0.593097
0.580922
0.568747
0.556572
0.544396
0.532221
0.520046
0.507871
0.495695
0.48352
0.471345
0.45917
0.446994
0.434819
0.422644
0.410469
0.398293
0.386118
0.373943
0.361768
0.349592
0.337417
0.325242
0.313067
0.300891
0.288716
0.276541
0.264366
0.25219
0.240015
0.22784
0.215665
0.20349
0.191314
0.179139
0.166964
0.154789
0.142613
0.130438
0.118263
0.106088
0.0939125
0.0817372
0.069562
0.0573868
0.0452116
0.0330363
0.0208611
0.0086859
-0.00348932
-0.0156645
-0.0278398
-0.040015
-0.0521902
-0.0643654
-0.0765406
-0.0887158
-0.100891
-0.113066
-0.125241
-0.137417
-0.149592
-0.161766
-0.173941
-0.186117
-0.198229
0.198229
1.2601
1.2601
1.19525
1.15102
1.11119
1.07462
1.04157
1.01204
0.985684
0.961977
0.940408
0.920574
0.902193
0.885074
0.869073
0.85405
0.839857
0.826329
0.813301
0.800622
0.788169
0.775851
0.763607
0.7514
0.739212
0.727031
0.714853
0.702676
0.6905
0.678325
0.666149
0.653974
0.641798
0.629623
0.617448
0.605272
0.593097
0.580922
0.568747
0.556572
0.544396
0.532221
0.520046
0.507871
0.495695
0.48352
0.471345
0.45917
0.446994
0.434819
0.422644
0.410469
0.398293
0.386118
0.373943
0.361768
0.349592
0.337417
0.325242
0.313067
0.300891
0.288716
0.276541
0.264366
0.25219
0.240015
0.22784
0.215665
0.20349
0.191314
0.179139
0.166964
0.154789
0.142613
0.130438
0.118263
0.106088
0.0939125
0.0817372
0.069562
0.0573868
0.0452116
0.0330363
0.0208611
0.0086859
-0.00348932
-0.0156645
-0.0278398
-0.040015
-0.0521902
-0.0643654
-0.0765406
-0.0887158
-0.100891
-0.113066
-0.125241
-0.137417
-0.149592
-0.161766
-0.173941
-0.186117
-0.198229
0.198229
SCALARS phi double
LOOKUP_TABLE phi
1
0.999998
0.999982
1.00015
0.999813
0.999248
1.00221
1.00534
0.989628
0.935794
0.843165
0.72785
0.608521
0.497118
0.398354
0.312951
0.240339
0.179801
0.130623
0.0919317
0.0625768
0.0411553
0.0261386
0.0160295
0.00949275
0.00543047
0.00300225
0.0016049
0.000830039
0.000415589
0.000201568
9.47657e-05
4.32148e-05
1.91268e-05
8.22149e-06
3.43421e-06
1.39485e-06
5.51202e-07
2.1204e-07
7.94484e-08
2.90099e-08
1.03281e-08
3.58698e-09
1.21583e-09
4.02398e-10
1.30098e-10
4.11061e-11
1.26982e-11
3.83665e-12
1.13424e-12
3.28219e-13
9.30002e-14
2.58118e-14
7.01963e-15
1.87116e-15
4.89044e-16
1.25359e-16
3.15254e-17
7.78018e-18
1.88478e-18
4.48322e-19
1.04735e-19
2.40364e-20
5.42043e-21
1.20139e-21
2.6177e-22
5.60838e-23
1.18176e-23
2.44956e-24
4.99571e-25
1.00264e-25
1.98068e-26
3.85199e-27
7.37623e-28
1.39104e-28
2.58389e-29
4.72835e-30
8.52543e-31
1.51483e-31
2.65287e-32
4.57971e-33
7.79461e-34
1.30811e-34
2.16497e-35
3.53403e-36
5.6906e-37
9.04009e-38
1.41699e-38
2.19176e-39
3.34583e-40
5.04137e-41
7.49857e-42
1.10113e-42
1.59654e-43
2.28584e-44
3.23208e-45
4.51375e-46
6.22659e-47
8.48627e-48
1.14271e-48
1.52166e-49
1.93753e-50
1.93753e-50
1
0.999998
0.999982
1.00015
0.999813
0.999248
1.00221
1.00534
0.989628
0.935794
0.843165
0.72785
0.608521
0.497118
0.398354
0.312951
0.240339
0.179801
0.130623
0.0919317
0.0625768
0.0411553
0.0261386
0.0160295
0.00949275
0.00543047
0.00300225
0.0016049
0.000830039
0.000415589
0.000201568
9.47657e-05
4.32148e-05
1.91268e-05
8.22149e-06
3.43421e-06
1.39485e-06
5.51202e-07
2.1204e-07
7.94484e-08
2.90099e-08
1.03281e-08
3.58698e-09
1.21583e-09
4.02398e-10
1.30098e-10
4.11061e-11
1.26982e-11
3.83665e-12
1.13424e-12
3.28219e-13
9.30002e-14
2.58118e-14
7.01963e-15
1.87116e-15
4.89044e-16
1.25359e-16
3.15254e-17
7.78018e-18
1.88478e-18
4.48322e-19
1.04735e-19
2.40364e-20
5.42043e-21
1.20139e-21
2.6177e-22
5.60838e-23
1.18176e-23
2.44956e-24
4.99571e-25
1.00264e-25
1.98068e-26
3.85199e-27
7.37623e-28
1.39104e-28
2.58389e-29
4.72835e-30
8.52543e-31
1.51483e-31
2.65287e-32
4.57971e-33
7.79461e-34
1.30811e-34
2.16497e-35
3.53403e-36
5.6906e-37
9.04009e-38
1.41699e-38
2.19176e-39
3.34583e-40
5.04137e-41
7.49857e-42
1.10113e-42
1.59654e-43
2.28584e-44
3.23208e-45
4.51375e-46
6.22659e-47
8.48627e-48
1.14271e-48
1.52166e-49
1.93753e-50
1.93753e-50
0.999999
1
0.999981
1.00005
1.00002
0.999657
0.999941
1.00142
1.00074
0.991076
0.96657
0.925492
0.869788
0.802693
0.726945
0.644538
0.55745
0.468369
0.380837
0.298763
0.225637
0.163838
0.114305
0.0766176
0.0493546
0.0305705
0.0182207
0.0104586
0.00578642
0.00308862
0.00159196
0.000793045
0.000382159
0.000178295
8.06004e-05
3.53331e-05
1.50315e-05
6.21036e-06
2.49358e-06
9.73679e-07
3.69972e-07
1.36883e-07
4.93415e-08
1.7338e-08
5.94218e-09
1.98735e-09
6.4893e-10
2.06978e-10
6.45133e-11
1.96591e-11
5.85932e-12
1.70874e-12
4.87775e-13
1.36345e-13
3.73326e-14
1.00166e-14
2.63436e-15
6.79352e-16
1.71836e-16
4.26445e-17
1.03864e-17
2.48338e-18
5.83059e-19
1.34458e-19
3.04631e-20
6.78237e-21
1.48426e-21
3.19346e-22
6.75661e-23
1.40607e-23
2.87863e-24
5.79899e-25
1.14972e-25
2.24382e-26
4.31142e-27
8.15767e-28
1.5202e-28
2.79061e-29
5.04698e-30
8.99432e-31
1.57971e-31
2.73478e-32
4.66736e-33
7.85389e-34
1.30324e-34
2.13279e-35
3.44282e-36
5.48251e-37
8.61391e-38
1.33545e-38
2.04323e-39
3.08546e-40
4.5992e-41
6.76794e-42
9.83308e-43
1.41068e-43
1.99857e-44
2.79645e-45
3.86513e-46
5.27716e-47
7.12438e-48
9.17748e-49
9.17748e-49
0.999996
1
0.99997
0.999908
0.999763
0.99939
0.998899
0.998578
0.998166
0.996415
0.991497
0.981775
0.966118
0.943499
0.912303
0.870087
0.814214
0.743169
0.657838
0.562001
0.46173
0.363963
0.274912
0.198885
0.137829
0.0915466
0.0583238
0.0356748
0.0209717
0.0118612
0.00646112
0.00339341
0.00172015
0.000842421
0.000398978
0.000182906
8.12363e-05
3.4985e-05
1.46209e-05
5.93416e-06
2.34075e-06
8.9797e-07
3.3525e-07
1.21885e-07
4.31783e-08
1.4913e-08
5.02443e-09
1.65218e-09
5.3051e-10
1.66419e-10
5.10254e-11
1.52979e-11
4.48664e-12
1.28775e-12
3.61851e-13