# vtk DataFile Version 3.0
FlowField
ASCII
DATASET STRUCTURED_GRID
DIMENSIONS 103 13 1 
POINTS 1339 double
0 0 0
0.3 0 0
0.6 0 0
0.9 0 0
1.2 0 0
1.5 0 0
1.8 0 0
2.1 0 0
2.4 0 0
2.7 0 0
3 0 0
3.3 0 0
3.6 0 0
3.9 0 0
4.2 0 0
4.5 0 0
4.8 0 0
5.1 0 0
5.4 0 0
5.7 0 0
6 0 0
6.3 0 0
6.6 0 0
6.9 0 0
7.2 0 0
7.5 0 0
7.8 0 0
8.1 0 0
8.4 0 0
8.7 0 0
9 0 0
9.3 0 0
9.6 0 0
9.9 0 0
10.2 0 0
10.5 0 0
10.8 0 0
11.1 0 0
11.4 0 0
11.7 0 0
12 0 0
12.3 0 0
12.6 0 0
12.9 0 0
13.2 0 0
13.5 0 0
13.8 0 0
14.1 0 0
14.4 0 0
14.7 0 0
15 0 0
15.3 0 0
15.6 0 0
15.9 0 0
16.2 0 0
16.5 0 0
16.8 0 0
17.1 0 0
17.4 0 0
17.7 0 0
18 0 0
18.3 0 0
18.6 0 0
18.9 0 0
19.2 0 0
19.5 0 0
19.8 0 0
20.1 0 0
20.4 0 0
20.7 0 0
21 0 0
21.3 0 0
21.6 0 0
21.9 0 0
22.2 0 0
22.5 0 0
22.8 0 0
23.1 0 0
23.4 0 0
23.7 0 0
24 0 0
24.3 0 0
24.6 0 0
24.9 0 0
25.2 0 0
25.5 0 0
25.8 0 0
26.1 0 0
26.4 0 0
26.7 0 0
27 0 0
27.3 0 0
27.6 0 0
27.9 0 0
28.2 0 0
28.5 0 0
28.8 0 0
29.1 0 0
29.4 0 0
29.7 0 0
30 0 0
30.3 0 0
30.6 0 0
0 0.1 0
0.3 0.1 0
0.6 0.1 0
0.9 0.1 0
1.2 0.1 0
1.5 0.1 0
1.8 0.1 0
2.1 0.1 0
2.4 0.1 0
2.7 0.1 0
3 0.1 0
3.3 0.1 0
3.6 0.1 0
3.9 0.1 0
4.2 0.1 0
4.5 0.1 0
4.8 0.1 0
5.1 0.1 0
5.4 0.1 0
5.7 0.1 0
6 0.1 0
6.3 0.1 0
6.6 0.1 0
6.9 0.1 0
7.2 0.1 0
7.5 0.1 0
7.8 0.1 0
8.1 0.1 0
8.4 0.1 0
8.7 0.1 0
9 0.1 0
9.3 0.1 0
9.6 0.1 0
9.9 0.1 0
10.2 0.1 0
10.5 0.1 0
10.8 0.1 0
11.1 0.1 0
11.4 0.1 0
11.7 0.1 0
12 0.1 0
12.3 0.1 0
12.6 0.1 0
12.9 0.1 0
13.2 0.1 0
13.5 0.1 0
13.8 0.1 0
14.1 0.1 0
14.4 0.1 0
14.7 0.1 0
15 0.1 0
15.3 0.1 0
15.6 0.1 0
15.9 0.1 0
16.2 0.1 0
16.5 0.1 0
16.8 0.1 0
17.1 0.1 0
17.4 0.1 0
17.7 0.1 0
18 0.1 0
18.3 0.1 0
18.6 0.1 0
18.9 0.1 0
19.2 0.1 0
19.5 0.1 0
19.8 0.1 0
20.1 0.1 0
20.4 0.1 0
20.7 0.1 0
21 0.1 0
21.3 0.1 0
21.6 0.1 0
21.9 0.1 0
22.2 0.1 0
22.5 0.1 0
22.8 0.1 0
23.1 0.1 0
23.4 0.1 0
23.7 0.1 0
24 0.1 0
24.3 0.1 0
24.6 0.1 0
24.9 0.1 0
25.2 0.1 0
25.5 0.1 0
25.8 0.1 0
26.1 0.1 0
26.4 0.1 0
26.7 0.1 0
27 0.1 0
27.3 0.1 0
27.6 0.1 0
27.9 0.1 0
28.2 0.1 0
28.5 0.1 0
28.8 0.1 0
29.1 0.1 0
29.4 0.1 0
29.7 0.1 0
30 0.1 0
30.3 0.1 0
30.6 0.1 0
0 0.2 0
0.3 0.2 0
0.6 0.2 0
0.9 0.2 0
1.2 0.2 0
1.5 0.2 0
1.8 0.2 0
2.1 0.2 0
2.4 0.2 0
2.7 0.2 0
3 0.2 0
3.3 0.2 0
3.6 0.2 0
3.9 0.2 0
4.2 0.2 0
4.5 0.2 0
4.8 0.2 0
5.1 0.2 0
5.4 0.2 0
5.7 0.2 0
6 0.2 0
6.3 0.2 0
6.6 0.2 0
6.9 0.2 0
7.2 0.2 0
7.5 0.2 0
7.8 0.2 0
8.1 0.2 0
8.4 0.2 0
8.7 0.2 0
9 0.2 0
9.3 0.2 0
9.6 0.2 0
9.9 0.2 0
10.2 0.2 0
10.5 0.2 0
10.8 0.2 0
11.1 0.2 0
11.4 0.2 0
11.7 0.2 0
12 0.2 0
12.3 0.2 0
12.6 0.2 0
12.9 0.2 0
13.2 0.2 0
13.5 0.2 0
13.8 0.2 0
14.1 0.2 0
14.4 0.2 0
14.7 0.2 0
15 0.2 0
15.3 0.2 0
15.6 0.2 0
15.9 0.2 0
16.2 0.2 0
16.5 0.2 0
16.8 0.2 0
17.1 0.2 0
17.4 0.2 0
17.7 0.2 0
18 0.2 0
18.3 0.2 0
18.6 0.2 0
18.9 0.2 0
19.2 0.2 0
19.5 0.2 0
19.8 0.2 0
20.1 0.2 0
20.4 0.2 0
20.7 0.2 0
21 0.2 0
21.3 0.2 0
21.6 0.2 0
21.9 0.2 0
22.2 0.2 0
22.5 0.2 0
22.8 0.2 0
23.1 0.2 0
23.4 0.2 0
23.7 0.2 0
24 0.2 0
24.3 0.2 0
24.6 0.2 0
24.9 0.2 0
25.2 0.2 0
25.5 0.2 0
25.8 0.2 0
26.1 0.2 0
26.4 0.2 0
26.7 0.2 0
27 0.2 0
27.3 0.2 0
27.6 0.2 0
27.9 0.2 0
28.2 0.2 0
28.5 0.2 0
28.8 0.2 0
29.1 0.2 0
29.4 0.2 0
29.7 0.2 0
30 0.2 0
30.3 0.2 0
30.6 0.2 0
0 0.3 0
0.3 0.3 0
0.6 0.3 0
0.9 0.3 0
1.2 0.3 0
1.5 0.3 0
1.8 0.3 0
2.1 0.3 0
2.4 0.3 0
2.7 0.3 0
3 0.3 0
3.3 0.3 0
3.6 0.3 0
3.9 0.3 0
4.2 0.3 0
4.5 0.3 0
4.8 0.3 0
5.1 0.3 0
5.4 0.3 0
5.7 0.3 0
6 0.3 0
6.3 0.3 0
6.6 0.3 0
6.9 0.3 0
7.2 0.3 0
7.5 0.3 0
7.8 0.3 0
8.1 0.3 0
8.4 0.3 0
8.7 0.3 0
9 0.3 0
9.3 0.3 0
9.6 0.3 0
9.9 0.3 0
10.2 0.3 0
10.5 0.3 0
10.8 0.3 0
11.1 0.3 0
11.4 0.3 0
11.7 0.3 0
12 0.3 0
12.3 0.3 0
12.6 0.3 0
12.9 0.3 0
13.2 0.3 0
13.5 0.3 0
13.8 0.3 0
14.1 0.3 0
14.4 0.3 0
14.7 0.3 0
15 0.3 0
15.3 0.3 0
15.6 0.3 0
15.9 0.3 0
16.2 0.3 0
16.5 0.3 0
16.8 0.3 0
17.1 0.3 0
17.4 0.3 0
17.7 0.3 0
18 0.3 0
18.3 0.3 0
18.6 0.3 0
18.9 0.3 0
19.2 0.3 0
19.5 0.3 0
19.8 0.3 0
20.1 0.3 0
20.4 0.3 0
20.7 0.3 0
21 0.3 0
21.3 0.3 0
21.6 0.3 0
21.9 0.3 0
22.2 0.3 0
22.5 0.3 0
22.8 0.3 0
23.1 0.3 0
23.4 0.3 0
23.7 0.3 0
24 0.3 0
24.3 0.3 0
24.6 0.3 0
24.9 0.3 0
25.2 0.3 0
25.5 0.3 0
25.8 0.3 0
26.1 0.3 0
26.4 0.3 0
26.7 0.3 0
27 0.3 0
27.3 0.3 0
27.6 0.3 0
27.9 0.3 0
28.2 0.3 0
28.5 0.3 0
28.8 0.3 0
29.1 0.3 0
29.4 0.3 0
29.7 0.3 0
30 0.3 0
30.3 0.3 0
30.6 0.3 0
0 0.4 0
0.3 0.4 0
0.6 0.4 0
0.9 0.4 0
1.2 0.4 0
1.5 0.4 0
1.8 0.4 0
2.1 0.4 0
2.4 0.4 0
2.7 0.4 0
3 0.4 0
3.3 0.4 0
3.6 0.4 0
3.9 0.4 0
4.2 0.4 0
4.5 0.4 0
4.8 0.4 0
5.1 0.4 0
5.4 0.4 0
5.7 0.4 0
6 0.4 0
6.3 0.4 0
6.6 0.4 0
6.9 0.4 0
7.2 0.4 0
7.5 0.4 0
7.8 0.4 0
8.1 0.4 0
8.4 0.4 0
8.7 0.4 0
9 0.4 0
9.3 0.4 0
9.6 0.4 0
9.9 0.4 0
10.2 0.4 0
10.5 0.4 0
10.8 0.4 0
11.1 0.4 0
11.4 0.4 0
11.7 0.4 0
12 0.4 0
12.3 0.4 0
12.6 0.4 0
12.9 0.4 0
13.2 0.4 0
13.5 0.4 0
13.8 0.4 0
14.1 0.4 0
14.4 0.4 0
14.7 0.4 0
15 0.4 0
15.3 0.4 0
15.6 0.4 0
15.9 0.4 0
16.2 0.4 0
16.5 0.4 0
16.8 0.4 0
17.1 0.4 0
17.4 0.4 0
17.7 0.4 0
18 0.4 0
18.3 0.4 0
18.6 0.4 0
18.9 0.4 0
19.2 0.4 0
19.5 0.4 0
19.8 0.4 0
20.1 0.4 0
20.4 0.4 0
20.7 0.4 0
21 0.4 0
21.3 0.4 0
21.6 0.4 0
21.9 0.4 0
22.2 0.4 0
22.5 0.4 0
22.8 0.4 0
23.1 0.4 0
23.4 0.4 0
23.7 0.4 0
24 0.4 0
24.3 0.4 0
24.6 0.4 0
24.9 0.4 0
25.2 0.4 0
25.5 0.4 0
25.8 0.4 0
26.1 0.4 0
26.4 0.4 0
26.7 0.4 0
27 0.4 0
27.3 0.4 0
27.6 0.4 0
27.9 0.4 0
28.2 0.4 0
28.5 0.4 0
28.8 0.4 0
29.1 0.4 0
29.4 0.4 0
29.7 0.4 0
30 0.4 0
30.3 0.4 0
30.6 0.4 0
0 0.5 0
0.3 0.5 0
0.6 0.5 0
0.9 0.5 0
1.2 0.5 0
1.5 0.5 0
1.8 0.5 0
2.1 0.5 0
2.4 0.5 0
2.7 0.5 0
3 0.5 0
3.3 0.5 0
3.6 0.5 0
3.9 0.5 0
4.2 0.5 0
4.5 0.5 0
4.8 0.5 0
5.1 0.5 0
5.4 0.5 0
5.7 0.5 0
6 0.5 0
6.3 0.5 0
6.6 0.5 0
6.9 0.5 0
7.2 0.5 0
7.5 0.5 0
7.8 0.5 0
8.1 0.5 0
8.4 0.5 0
8.7 0.5 0
9 0.5 0
9.3 0.5 0
9.6 0.5 0
9.9 0.5 0
10.2 0.5 0
10.5 0.5 0
10.8 0.5 0
11.1 0.5 0
11.4 0.5 0
11.7 0.5 0
12 0.5 0
12.3 0.5 0
12.6 0.5 0
12.9 0.5 0
13.2 0.5 0
13.5 0.5 0
13.8 0.5 0
14.1 0.5 0
14.4 0.5 0
14.7 0.5 0
15 0.5 0
15.3 0.5 0
15.6 0.5 0
15.9 0.5 0
16.2 0.5 0
16.5 0.5 0
16.8 0.5 0
17.1 0.5 0
17.4 0.5 0
17.7 0.5 0
18 0.5 0
18.3 0.5 0
18.6 0.5 0
18.9 0.5 0
19.2 0.5 0
19.5 0.5 0
19.8 0.5 0
20.1 0.5 0
20.4 0.5 0
20.7 0.5 0
21 0.5 0
21.3 0.5 0
21.6 0.5 0
21.9 0.5 0
22.2 0.5 0
22.5 0.5 0
22.8 0.5 0
23.1 0.5 0
23.4 0.5 0
23.7 0.5 0
24 0.5 0
24.3 0.5 0
24.6 0.5 0
24.9 0.5 0
25.2 0.5 0
25.5 0.5 0
25.8 0.5 0
26.1 0.5 0
26.4 0.5 0
26.7 0.5 0
27 0.5 0
27.3 0.5 0
27.6 0.5 0
27.9 0.5 0
28.2 0.5 0
28.5 0.5 0
28.8 0.5 0
29.1 0.5 0
29.4 0.5 0
29.7 0.5 0
30 0.5 0
30.3 0.5 0
30.6 0.5 0
0 0.6 0
0.3 0.6 0
0.6 0.6 0
0.9 0.6 0
1.2 0.6 0
1.5 0.6 0
1.8 0.6 0
2.1 0.6 0
2.4 0.6 0
2.7 0.6 0
3 0.6 0
3.3 0.6 0
3.6 0.6 0
3.9 0.6 0
4.2 0.6 0
4.5 0.6 0
4.8 0.6 0
5.1 0.6 0
5.4 0.6 0
5.7 0.6 0
6 0.6 0
6.3 0.6 0
6.6 0.6 0
6.9 0.6 0
7.2 0.6 0
7.5 0.6 0
7.8 0.6 0
8.1 0.6 0
8.4 0.6 0
8.7 0.6 0
9 0.6 0
9.3 0.6 0
9.6 0.6 0
9.9 0.6 0
10.2 0.6 0
10.5 0.6 0
10.8 0.6 0
11.1 0.6 0
11.4 0.6 0
11.7 0.6 0
12 0.6 0
12.3 0.6 0
12.6 0.6 0
12.9 0.6 0
13.2 0.6 0
13.5 0.6 0
13.8 0.6 0
14.1 0.6 0
14.4 0.6 0
14.7 0.6 0
15 0.6 0
15.3 0.6 0
15.6 0.6 0
15.9 0.6 0
16.2 0.6 0
16.5 0.6 0
16.8 0.6 0
17.1 0.6 0
17.4 0.6 0
17.7 0.6 0
18 0.6 0
18.3 0.6 0
18.6 0.6 0
18.9 0.6 0
19.2 0.6 0
19.5 0.6 0
19.8 0.6 0
20.1 0.6 0
20.4 0.6 0
20.7 0.6 0
21 0.6 0
21.3 0.6 0
21.6 0.6 0
21.9 0.6 0
22.2 0.6 0
22.5 0.6 0
22.8 0.6 0
23.1 0.6 0
23.4 0.6 0
23.7 0.6 0
24 0.6 0
24.3 0.6 0
24.6 0.6 0
24.9 0.6 0
25.2 0.6 0
25.5 0.6 0
25.8 0.6 0
26.1 0.6 0
26.4 0.6 0
26.7 0.6 0
27 0.6 0
27.3 0.6 0
27.6 0.6 0
27.9 0.6 0
28.2 0.6 0
28.5 0.6 0
28.8 0.6 0
29.1 0.6 0
29.4 0.6 0
29.7 0.6 0
30 0.6 0
30.3 0.6 0
30.6 0.6 0
0 0.7 0
0.3 0.7 0
0.6 0.7 0
0.9 0.7 0
1.2 0.7 0
1.5 0.7 0
1.8 0.7 0
2.1 0.7 0
2.4 0.7 0
2.7 0.7 0
3 0.7 0
3.3 0.7 0
3.6 0.7 0
3.9 0.7 0
4.2 0.7 0
4.5 0.7 0
4.8 0.7 0
5.1 0.7 0
5.4 0.7 0
5.7 0.7 0
6 0.7 0
6.3 0.7 0
6.6 0.7 0
6.9 0.7 0
7.2 0.7 0
7.5 0.7 0
7.8 0.7 0
8.1 0.7 0
8.4 0.7 0
8.7 0.7 0
9 0.7 0
9.3 0.7 0
9.6 0.7 0
9.9 0.7 0
10.2 0.7 0
10.5 0.7 0
10.8 0.7 0
11.1 0.7 0
11.4 0.7 0
11.7 0.7 0
12 0.7 0
12.3 0.7 0
12.6 0.7 0
12.9 0.7 0
13.2 0.7 0
13.5 0.7 0
13.8 0.7 0
14.1 0.7 0
14.4 0.7 0
14.7 0.7 0
15 0.7 0
15.3 0.7 0
15.6 0.7 0
15.9 0.7 0
16.2 0.7 0
16.5 0.7 0
16.8 0.7 0
17.1 0.7 0
17.4 0.7 0
17.7 0.7 0
18 0.7 0
18.3 0.7 0
18.6 0.7 0
18.9 0.7 0
19.2 0.7 0
19.5 0.7 0
19.8 0.7 0
20.1 0.7 0
20.4 0.7 0
20.7 0.7 0
21 0.7 0
21.3 0.7 0
21.6 0.7 0
21.9 0.7 0
22.2 0.7 0
22.5 0.7 0
22.8 0.7 0
23.1 0.7 0
23.4 0.7 0
23.7 0.7 0
24 0.7 0
24.3 0.7 0
24.6 0.7 0
24.9 0.7 0
25.2 0.7 0
25.5 0.7 0
25.8 0.7 0
26.1 0.7 0
26.4 0.7 0
26.7 0.7 0
27 0.7 0
27.3 0.7 0
27.6 0.7 0
27.9 0.7 0
28.2 0.7 0
28.5 0.7 0
28.8 0.7 0
29.1 0.7 0
29.4 0.7 0
29.7 0.7 0
30 0.7 0
30.3 0.7 0
30.6 0.7 0
0 0.8 0
0.3 0.8 0
0.6 0.8 0
0.9 0.8 0
1.2 0.8 0
1.5 0.8 0
1.8 0.8 0
2.1 0.8 0
2.4 0.8 0
2.7 0.8 0
3 0.8 0
3.3 0.8 0
3.6 0.8 0
3.9 0.8 0
4.2 0.8 0
4.5 0.8 0
4.8 0.8 0
5.1 0.8 0
5.4 0.8 0
5.7 0.8 0
6 0.8 0
6.3 0.8 0
6.6 0.8 0
6.9 0.8 0
7.2 0.8 0
7.5 0.8 0
7.8 0.8 0
8.1 0.8 0
8.4 0.8 0
8.7 0.8 0
9 0.8 0
9.3 0.8 0
9.6 0.8 0
9.9 0.8 0
10.2 0.8 0
10.5 0.8 0
10.8 0.8 0
11.1 0.8 0
11.4 0.8 0
11.7 0.8 0
12 0.8 0
12.3 0.8 0
12.6 0.8 0
12.9 0.8 0
13.2 0.8 0
13.5 0.8 0
13.8 0.8 0
14.1 0.8 0
14.4 0.8 0
14.7 0.8 0
15 0.8 0
15.3 0.8 0
15.6 0.8 0
15.9 0.8 0
16.2 0.8 0
16.5 0.8 0
16.8 0.8 0
17.1 0.8 0
17.4 0.8 0
17.7 0.8 0
18 0.8 0
18.3 0.8 0
18.6 0.8 0
18.9 0.8 0
19.2 0.8 0
19.5 0.8 0
19.8 0.8 0
20.1 0.8 0
20.4 0.8 0
20.7 0.8 0
21 0.8 0
21.3 0.8 0
21.6 0.8 0
21.9 0.8 0
22.2 0.8 0
22.5 0.8 0
22.8 0.8 0
23.1 0.8 0
23.4 0.8 0
23.7 0.8 0
24 0.8 0
24.3 0.8 0
24.6 0.8 0
24.9 0.8 0
25.2 0.8 0
25.5 0.8 0
25.8 0.8 0
26.1 0.8 0
26.4 0.8 0
26.7 0.8 0
27 0.8 0
27.3 0.8 0
27.6 0.8 0
27.9 0.8 0
28.2 0.8 0
28.5 0.8 0
28.8 0.8 0
29.1 0.8 0
29.4 0.8 0
29.7 0.8 0
30 0.8 0
30.3 0.8 0
30.6 0.8 0
0 0.9 0
0.3 0.9 0
0.6 0.9 0
0.9 0.9 0
1.2 0.9 0
1.5 0.9 0
1.8 0.9 0
2.1 0.9 0
2.4 0.9 0
2.7 0.9 0
3 0.9 0
3.3 0.9 0
3.6 0.9 0
3.9 0.9 0
4.2 0.9 0
4.5 0.9 0
4.8 0.9 0
5.1 0.9 0
5.4 0.9 0
5.7 0.9 0
6 0.9 0
6.3 0.9 0
6.6 0.9 0
6.9 0.9 0
7.2 0.9 0
7.5 0.9 0
7.8 0.9 0
8.1 0.9 0
8.4 0.9 0
8.7 0.9 0
9 0.9 0
9.3 0.9 0
9.6 0.9 0
9.9 0.9 0
10.2 0.9 0
10.5 0.9 0
10.8 0.9 0
11.1 0.9 0
11.4 0.9 0
11.7 0.9 0
12 0.9 0
12.3 0.9 0
12.6 0.9 0
12.9 0.9 0
13.2 0.9 0
13.5 0.9 0
13.8 0.9 0
14.1 0.9 0
14.4 0.9 0
14.7 0.9 0
15 0.9 0
15.3 0.9 0
15.6 0.9 0
15.9 0.9 0
16.2 0.9 0
16.5 0.9 0
16.8 0.9 0
17.1 0.9 0
17.4 0.9 0
17.7 0.9 0
18 0.9 0
18.3 0.9 0
18.6 0.9 0
18.9 0.9 0
19.2 0.9 0
19.5 0.9 0
19.8 0.9 0
20.1 0.9 0
20.4 0.9 0
20.7 0.9 0
21 0.9 0
21.3 0.9 0
21.6 0.9 0
21.9 0.9 0
22.2 0.9 0
22.5 0.9 0
22.8 0.9 0
23.1 0.9 0
23.4 0.9 0
23.7 0.9 0
24 0.9 0
24.3 0.9 0
24.6 0.9 0
24.9 0.9 0
25.2 0.9 0
25.5 0.9 0
25.8 0.9 0
26.1 0.9 0
26.4 0.9 0
26.7 0.9 0
27 0.9 0
27.3 0.9 0
27.6 0.9 0
27.9 0.9 0
28.2 0.9 0
28.5 0.9 0
28.8 0.9 0
29.1 0.9 0
29.4 0.9 0
29.7 0.9 0
30 0.9 0
30.3 0.9 0
30.6 0.9 0
0 1 0
0.3 1 0
0.6 1 0
0.9 1 0
1.2 1 0
1.5 1 0
1.8 1 0
2.1 1 0
2.4 1 0
2.7 1 0
3 1 0
3.3 1 0
3.6 1 0
3.9 1 0
4.2 1 0
4.5 1 0
4.8 1 0
5.1 1 0
5.4 1 0
5.7 1 0
6 1 0
6.3 1 0
6.6 1 0
6.9 1 0
7.2 1 0
7.5 1 0
7.8 1 0
8.1 1 0
8.4 1 0
8.7 1 0
9 1 0
9.3 1 0
9.6 1 0
9.9 1 0
10.2 1 0
10.5 1 0
10.8 1 0
11.1 1 0
11.4 1 0
11.7 1 0
12 1 0
12.3 1 0
12.6 1 0
12.9 1 0
13.2 1 0
13.5 1 0
13.8 1 0
14.1 1 0
14.4 1 0
14.7 1 0
15 1 0
15.3 1 0
15.6 1 0
15.9 1 0
16.2 1 0
16.5 1 0
16.8 1 0
17.1 1 0
17.4 1 0
17.7 1 0
18 1 0
18.3 1 0
18.6 1 0
18.9 1 0
19.2 1 0
19.5 1 0
19.8 1 0
20.1 1 0
20.4 1 0
20.7 1 0
21 1 0
21.3 1 0
21.6 1 0
21.9 1 0
22.2 1 0
22.5 1 0
22.8 1 0
23.1 1 0
23.4 1 0
23.7 1 0
24 1 0
24.3 1 0
24.6 1 0
24.9 1 0
25.2 1 0
25.5 1 0
25.8 1 0
26.1 1 0
26.4 1 0
26.7 1 0
27 1 0
27.3 1 0
27.6 1 0
27.9 1 0
28.2 1 0
28.5 1 0
28.8 1 0
29.1 1 0
29.4 1 0
29.7 1 0
30 1 0
30.3 1 0
30.6 1 0
0 1.1 0
0.3 1.1 0
0.6 1.1 0
0.9 1.1 0
1.2 1.1 0
1.5 1.1 0
1.8 1.1 0
2.1 1.1 0
2.4 1.1 0
2.7 1.1 0
3 1.1 0
3.3 1.1 0
3.6 1.1 0
3.9 1.1 0
4.2 1.1 0
4.5 1.1 0
4.8 1.1 0
5.1 1.1 0
5.4 1.1 0
5.7 1.1 0
6 1.1 0
6.3 1.1 0
6.6 1.1 0
6.9 1.1 0
7.2 1.1 0
7.5 1.1 0
7.8 1.1 0
8.1 1.1 0
8.4 1.1 0
8.7 1.1 0
9 1.1 0
9.3 1.1 0
9.6 1.1 0
9.9 1.1 0
10.2 1.1 0
10.5 1.1 0
10.8 1.1 0
11.1 1.1 0
11.4 1.1 0
11.7 1.1 0
12 1.1 0
12.3 1.1 0
12.6 1.1 0
12.9 1.1 0
13.2 1.1 0
13.5 1.1 0
13.8 1.1 0
14.1 1.1 0
14.4 1.1 0
14.7 1.1 0
15 1.1 0
15.3 1.1 0
15.6 1.1 0
15.9 1.1 0
16.2 1.1 0
16.5 1.1 0
16.8 1.1 0
17.1 1.1 0
17.4 1.1 0
17.7 1.1 0
18 1.1 0
18.3 1.1 0
18.6 1.1 0
18.9 1.1 0
19.2 1.1 0
19.5 1.1 0
19.8 1.1 0
20.1 1.1 0
20.4 1.1 0
20.7 1.1 0
21 1.1 0
21.3 1.1 0
21.6 1.1 0
21.9 1.1 0
22.2 1.1 0
22.5 1.1 0
22.8 1.1 0
23.1 1.1 0
23.4 1.1 0
23.7 1.1 0
24 1.1 0
24.3 1.1 0
24.6 1.1 0
24.9 1.1 0
25.2 1.1 0
25.5 1.1 0
25.8 1.1 0
26.1 1.1 0
26.4 1.1 0
26.7 1.1 0
27 1.1 0
27.3 1.1 0
27.6 1.1 0
27.9 1.1 0
28.2 1.1 0
28.5 1.1 0
28.8 1.1 0
29.1 1.1 0
29.4 1.1 0
29.7 1.1 0
30 1.1 0
30.3 1.1 0
30.6 1.1 0
0 1.2 0
0.3 1.2 0
0.6 1.2 0
0.9 1.2 0
1.2 1.2 0
1.5 1.2 0
1.8 1.2 0
2.1 1.2 0
2.4 1.2 0
2.7 1.2 0
3 1.2 0
3.3 1.2 0
3.6 1.2 0
3.9 1.2 0
4.2 1.2 0
4.5 1.2 0
4.8 1.2 0
5.1 1.2 0
5.4 1.2 0
5.7 1.2 0
6 1.2 0
6.3 1.2 0
6.6 1.2 0
6.9 1.2 0
7.2 1.2 0
7.5 1.2 0
7.8 1.2 0
8.1 1.2 0
8.4 1.2 0
8.7 1.2 0
9 1.2 0
9.3 1.2 0
9.6 1.2 0
9.9 1.2 0
10.2 1.2 0
10.5 1.2 0
10.8 1.2 0
11.1 1.2 0
11.4 1.2 0
11.7 1.2 0
12 1.2 0
12.3 1.2 0
12.6 1.2 0
12.9 1.2 0
13.2 1.2 0
13.5 1.2 0
13.8 1.2 0
14.1 1.2 0
14.4 1.2 0
14.7 1.2 0
15 1.2 0
15.3 1.2 0
15.6 1.2 0
15.9 1.2 0
16.2 1.2 0
16.5 1.2 0
16.8 1.2 0
17.1 1.2 0
17.4 1.2 0
17.7 1.2 0
18 1.2 0
18.3 1.2 0
18.6 1.2 0
18.9 1.2 0
19.2 1.2 0
19.5 1.2 0
19.8 1.2 0
20.1 1.2 0
20.4 1.2 0
20.7 1.2 0
21 1.2 0
21.3 1.2 0
21.6 1.2 0
21.9 1.2 0
22.2 1.2 0
22.5 1.2 0
22.8 1.2 0
23.1 1.2 0
23.4 1.2 0
23.7 1.2 0
24 1.2 0
24.3 1.2 0
24.6 1.2 0
24.9 1.2 0
25.2 1.2 0
25.5 1.2 0
25.8 1.2 0
26.1 1.2 0
26.4 1.2 0
26.7 1.2 0
27 1.2 0
27.3 1.2 0
27.6 1.2 0
27.9 1.2 0
28.2 1.2 0
28.5 1.2 0
28.8 1.2 0
29.1 1.2 0
29.4 1.2 0
29.7 1.2 0
30 1.2 0
30.3 1.2 0
30.6 1.2 0

POINT_DATA 1339

SCALARS pressure double
LOOKUP_TABLE pressure
1.1712
1.1712
1.10635
1.06212
1.0223
0.985721
0.952668
0.923141
0.896786
0.873076
0.851473
0.831511
0.812819
0.795119
0.778211
0.761953
0.746235
0.730978
0.716125
0.701631
0.687457
0.673572
0.659951
0.646573
0.633417
0.620467
0.607708
0.595125
0.582707
0.570443
0.558323
0.546336
0.534475
0.522731
0.511099
0.49957
0.488139
0.476799
0.465545
0.454374
0.443279
0.432256
0.421302
0.410412
0.399583
0.388812
0.378095
0.367429
0.356812
0.346241
0.335713
0.325227
0.314779
0.304368
0.293992
0.283649
0.273337
0.263054
0.2528
0.242571
0.232368
0.222189
0.212032
0.201896
0.19178
0.181683
0.171605
0.161544
0.151499
0.14147
0.131456
0.121457
0.111472
0.101501
0.0915424
0.0815967
0.0716632
0.0617415
0.0518311
0.0419315
0.0320422
0.0221628
0.0122925
0.00243063
-0.00742325
-0.0172698
-0.0271095
-0.0369432
-0.0467715
-0.0565949
-0.0664141
-0.0762296
-0.0860418
-0.0958513
-0.105658
-0.115463
-0.125267
-0.135069
-0.14487
-0.15467
-0.164469
-0.174267
0.174267
1.1712
1.1712
1.10635
1.06212
1.0223
0.985721
0.952668
0.923141
0.896786
0.873076
0.851473
0.831511
0.812819
0.795119
0.778211
0.761953
0.746235
0.730978
0.716125
0.701631
0.687457
0.673572
0.659951
0.646573
0.633417
0.620467
0.607708
0.595125
0.582707
0.570443
0.558323
0.546336
0.534475
0.522731
0.511099
0.49957
0.488139
0.476799
0.465545
0.454374
0.443279
0.432256
0.421302
0.410412
0.399583
0.388812
0.378095
0.367429
0.356812
0.346241
0.335713
0.325227
0.314779
0.304368
0.293992
0.283649
0.273337
0.263054
0.2528
0.242571
0.232368
0.222189
0.212032
0.201896
0.19178
0.181683
0.171605
0.161544
0.151499
0.14147
0.131456
0.121457
0.111472
0.101501
0.0915424
0.0815967
0.0716632
0.0617415
0.0518311
0.0419315
0.0320422
0.0221628
0.0122925
0.00243063
-0.00742325
-0.0172698
-0.0271095
-0.0369432
-0.0467715
-0.0565949
-0.0664141
-0.0762296
-0.0860418
-0.0958513
-0.105658
-0.115463
-0.125267
-0.135069
-0.14487
-0.15467
-0.164469
-0.174267
0.174267
1.15026
1.15026
1.10436
1.06235
1.023
0.986517
0.953411
0.923772
0.897293
0.873471
0.851777
0.831745
0.813001
0.795263
0.778329
0.76205
0.746317
0.731049
0.716188
0.701687
0.687506
0.673616
0.659992
0.646609
0.63345
0.620498
0.607736
0.595151
0.582731
0.570465
0.558343
0.546355
0.534493
0.522748
0.511114
0.499585
0.488152
0.476811
0.465557
0.454385
0.44329
0.432266
0.421311
0.410421
0.399592
0.38882
0.378102
0.367436
0.356819
0.346247
0.335719
0.325232
0.314784
0.304373
0.293996
0.283653
0.273341
0.263058
0.252803
0.242575
0.232372
0.222192
0.212035
0.201898
0.191783
0.181686
0.171607
0.161546
0.151501
0.141472
0.131458
0.121459
0.111474
0.101502
0.0915437
0.0815978
0.0716642
0.0617424
0.0518319
0.0419322
0.0320428
0.0221633
0.0122928
0.00243093
-0.00742301
-0.0172696
-0.0271093
-0.0369431
-0.0467714
-0.0565949
-0.0664141
-0.0762296
-0.0860418
-0.0958513
-0.105658
-0.115463
-0.125267
-0.135069
-0.14487
-0.15467
-0.164469
-0.174267
0.174267
1.13528
1.13528
1.10148
1.06258
1.02411
0.987841
0.954672
0.924851
0.898155
0.87413
0.852269
0.83211
0.813272
0.795468
0.778487
0.762175
0.746418
0.731133
0.716259
0.701748
0.687559
0.673663
0.660033
0.646646
0.633484
0.620528
0.607763
0.595176
0.582754
0.570486
0.558362
0.546373
0.534509
0.522763
0.511128
0.499597
0.488164
0.476822
0.465567
0.454395
0.443298
0.432274
0.421319
0.410428
0.399598
0.388826
0.378108
0.367442
0.356824
0.346252
0.335724
0.325236
0.314788
0.304377
0.294
0.283657
0.273344
0.263061
0.252806
0.242578
0.232374
0.222194
0.212037
0.201901
0.191785
0.181688
0.171609
0.161547
0.151503
0.141474
0.13146
0.12146
0.111475
0.101503
0.0915446
0.0815987
0.071665
0.0617431
0.0518325
0.0419327
0.0320433
0.0221636
0.0122931
0.00243116
-0.00742281
-0.0172694
-0.0271092
-0.036943
-0.0467714
-0.0565949
-0.0664141
-0.0762296
-0.0860418
-0.0958513
-0.105658
-0.115463
-0.125267
-0.135069
-0.14487
-0.15467
-0.164469
-0.174267
0.174267
1.12571
1.12571
1.099
1.06269
1.02506
0.989036
0.955849
0.925887
0.899008
0.874802
0.852787
0.832505
0.813574
0.795702
0.778673
0.762325
0.746541
0.731236
0.716347
0.701824
0.687625
0.673721
0.660085
0.646693
0.633525
0.620565
0.607797
0.595206
0.582781
0.570511
0.558385
0.546394
0.534528
0.522781
0.511144
0.499612
0.488178
0.476835
0.46558
0.454406
0.443309
0.432284
0.421328
0.410437
0.399606
0.388833
0.378115
0.367448
0.35683
0.346258
0.335729
0.325242
0.314793
0.304381
0.294004
0.283661
0.273348
0.263065
0.252809
0.242581
0.232377
0.222197
0.212039
0.201903
0.191787
0.18169
0.171611
0.161549
0.151504
0.141475
0.131461
0.121462
0.111476
0.101505
0.091546
0.0815999
0.0716662
0.0617442
0.0518335
0.0419336
0.0320441
0.0221644
0.0122938
0.00243177
-0.00742226
-0.0172689
-0.0271088
-0.0369427
-0.0467711
-0.0565946
-0.0664139
-0.0762294
-0.0860416
-0.0958511
-0.105658
-0.115463
-0.125267
-0.135069
-0.14487
-0.15467
-0.164468
-0.174265
0.174265
1.12039
1.12039
1.09737
1.0627
1.02566
0.989802
0.956618
0.926577
0.899585
0.875266
0.853152
0.832789
0.813796
0.795879
0.778816
0.762442
0.74664
0.731321
0.716421
0.701888
0.687682
0.673772
0.66013
0.646734
0.633562
0.620598
0.607827
0.595234
0.582807
0.570535
0.558407
0.546413
0.534547
0.522798
0.51116
0.499627
0.488191
0.476848
0.465591
0.454417
0.443319
0.432293
0.421337
0.410445
0.399614
0.38884
0.378122
0.367454
0.356836
0.346263
0.335734
0.325246
0.314798
0.304386
0.294008
0.283664
0.273351
0.263068
0.252813
0.242584
0.23238
0.2222
0.212042
0.201906
0.191789
0.181692
0.171613
0.161551
0.151506
0.141477
0.131463
0.121463
0.111478
0.101506
0.0915473
0.0816013
0.0716674
0.0617454
0.0518346
0.0419347
0.0320451
0.0221653
0.0122946
0.00243257
-0.00742152
-0.0172682
-0.0271082
-0.0369421
-0.0467706
-0.0565942
-0.0664135
-0.0762291
-0.0860414
-0.0958509
-0.105658
-0.115463
-0.125267
-0.135069
-0.14487
-0.154669
-0.164467
-0.174264
0.174264
1.11869
1.11869
1.09682
1.06272
1.02587
0.990076
0.956892
0.926822
0.899792
0.875433
0.853284
0.832893
0.813879
0.795946
0.77887
0.762488
0.746679
0.731355
0.71645
0.701914
0.687705
0.673793
0.660149
0.64675
0.633577
0.620613
0.60784
0.595246
0.582818
0.570545
0.558416
0.546422
0.534554
0.522805
0.511167
0.499633
0.488197
0.476853
0.465596
0.454421
0.443323
0.432297
0.42134
0.410448
0.399617
0.388844
0.378125
0.367457
0.356839
0.346266
0.335737
0.325249
0.3148
0.304387
0.29401
0.283666
0.273353
0.26307
0.252814
0.242585
0.232381
0.222201
0.212043
0.201907
0.19179
0.181693
0.171614
0.161552
0.151507
0.141478
0.131464
0.121464
0.111479
0.101507
0.091548
0.0816019
0.071668
0.061746
0.0518352
0.0419352
0.0320456
0.0221658
0.0122951
0.00243295
-0.00742115
-0.0172679
-0.0271079
-0.0369419
-0.0467704
-0.056594
-0.0664133
-0.0762289
-0.0860413
-0.0958508
-0.105658
-0.115463
-0.125267
-0.135069
-0.14487
-0.154669
-0.164467
-0.174264
0.174264
1.12039
1.12039
1.09737
1.0627
1.02566
0.989802
0.956619
0.926577
0.899585
0.875266
0.853152
0.832789
0.813796
0.795879
0.778816
0.762442
0.74664
0.731321
0.716421
0.701888
0.687682
0.673772
0.66013
0.646733
0.633562
0.620598
0.607827
0.595234
0.582807
0.570535
0.558407
0.546414
0.534547
0.522798
0.51116
0.499627
0.488191
0.476848
0.465591
0.454417
0.443319
0.432293
0.421337
0.410445
0.399614
0.38884
0.378122
0.367454
0.356836
0.346263
0.335734
0.325246
0.314798
0.304386
0.294008
0.283664
0.273351
0.263068
0.252813
0.242584
0.23238
0.2222
0.212042
0.201906
0.191789
0.181692
0.171613
0.161551
0.151506
0.141477
0.131463
0.121463
0.111478
0.101506
0.0915473
0.0816013
0.0716675
0.0617454
0.0518346
0.0419347
0.0320451
0.0221653
0.0122946
0.00243257
-0.0074215
-0.0172682
-0.0271082
-0.0369421
-0.0467706
-0.0565942
-0.0664135
-0.0762291
-0.0860414
-0.0958509
-0.105658
-0.115463
-0.125267
-0.135069
-0.14487
-0.154669
-0.164467
-0.174264
0.174264
1.12571
1.12571
1.099
1.06269
1.02506
0.989035
0.95585
0.925888
0.899007
0.874802
0.852788
0.832505
0.813574
0.795703
0.778673
0.762324
0.746541
0.731237
0.716347
0.701823
0.687625
0.673722
0.660085
0.646692
0.633525
0.620565
0.607797
0.595206
0.582782
0.570511
0.558385
0.546394
0.534528
0.522781
0.511145
0.499612
0.488178
0.476835
0.46558
0.454406
0.443309
0.432284
0.421328
0.410437
0.399606
0.388833
0.378115
0.367448
0.35683
0.346258
0.335729
0.325242
0.314793
0.304381
0.294004
0.28366
0.273348
0.263065
0.252809
0.242581
0.232377
0.222197
0.212039
0.201903
0.191787
0.18169
0.171611
0.161549
0.151504
0.141475
0.131461
0.121462
0.111476
0.101505
0.0915459
0.0815999
0.0716662
0.0617442
0.0518335
0.0419336
0.0320441
0.0221644
0.0122938
0.00243178
-0.00742222
-0.0172689
-0.0271088
-0.0369427
-0.0467711
-0.0565946
-0.0664139
-0.0762294
-0.0860417
-0.0958511
-0.105658
-0.115463
-0.125267
-0.135069
-0.14487
-0.15467
-0.164468
-0.174265
0.174265
1.13528
1.13528
1.10148
1.06258
1.02411
0.987841
0.954673
0.924851
0.898154
0.87413
0.85227
0.83211
0.813271
0.795468
0.778488
0.762175
0.746418
0.731133
0.716259
0.701747
0.687559
0.673663
0.660033
0.646646
0.633484
0.620528
0.607763
0.595176
0.582754
0.570486
0.558362
0.546373
0.534509
0.522763
0.511128
0.499597
0.488164
0.476822
0.465568
0.454395
0.443298
0.432274
0.421319
0.410428
0.399598
0.388826
0.378108
0.367442
0.356824
0.346252
0.335724
0.325237
0.314788
0.304377
0.294
0.283656
0.273344
0.263061
0.252806
0.242578
0.232374
0.222194
0.212037
0.201901
0.191785
0.181688
0.171609
0.161548
0.151503
0.141473
0.13146
0.12146
0.111475
0.101503
0.0915446
0.0815987
0.071665
0.0617431
0.0518325
0.0419327
0.0320433
0.0221636
0.0122931
0.00243116
-0.00742276
-0.0172693
-0.0271092
-0.036943
-0.0467714
-0.0565949
-0.0664141
-0.0762296
-0.0860418
-0.0958513
-0.105658
-0.115463
-0.125267
-0.135069
-0.14487
-0.15467
-0.164469
-0.174267
0.174267
1.15025
1.15025
1.10437
1.06235
1.023
0.986517
0.953412
0.923772
0.897292
0.873471
0.851778
0.831745
0.813
0.795263
0.77833
0.76205
0.746316
0.731049
0.716188
0.701686
0.687506
0.673617
0.659992
0.646609
0.63345
0.620498
0.607736
0.595151
0.582731
0.570465
0.558343
0.546355
0.534493
0.522748
0.511115
0.499585
0.488152
0.476811
0.465558
0.454385
0.443289
0.432266
0.421311
0.410421
0.399591
0.38882
0.378102
0.367436
0.356819
0.346247
0.335719
0.325232
0.314784
0.304373
0.293997
0.283653
0.273341
0.263058
0.252803
0.242575
0.232372
0.222192
0.212035
0.201899
0.191783
0.181686
0.171607
0.161546
0.151501
0.141472
0.131458
0.121459
0.111474
0.101502
0.0915436
0.0815978
0.0716642
0.0617424
0.0518319
0.0419322
0.0320428
0.0221632
0.0122928
0.00243092
-0.00742296
-0.0172695
-0.0271093
-0.0369431
-0.0467714
-0.0565949
-0.0664141
-0.0762296
-0.0860418
-0.0958513
-0.105658
-0.115463
-0.125267
-0.135069
-0.14487
-0.15467
-0.164469
-0.174267
0.174267
1.1712
1.1712
1.10635
1.06212
1.0223
0.985721
0.952669
0.923141
0.896785
0.873076
0.851474
0.831511
0.812818
0.795119
0.778212
0.761953
0.746234
0.730978
0.716126
0.701631
0.687457
0.673572
0.659951
0.646573
0.633417
0.620467
0.607707
0.595125
0.582707
0.570443
0.558323
0.546336
0.534475
0.522732
0.511099
0.49957
0.488138
0.476799
0.465546
0.454374
0.443279
0.432256
0.421302
0.410412
0.399583
0.388812
0.378095
0.367429
0.356812
0.346241
0.335713
0.325227
0.314779
0.304368
0.293992
0.283649
0.273337
0.263054
0.2528
0.242571
0.232368
0.222189
0.212032
0.201896
0.19178
0.181683
0.171605
0.161544
0.151499
0.14147
0.131456
0.121457
0.111472
0.101501
0.0915424
0.0815967
0.0716632
0.0617415
0.0518311
0.0419315
0.0320423
0.0221627
0.0122924
0.0024306
-0.00742321
-0.0172697
-0.0271095
-0.0369432
-0.0467715
-0.056595
-0.0664142
-0.0762296
-0.0860418
-0.0958513
-0.105658
-0.115463
-0.125267
-0.135069
-0.14487
-0.15467
-0.164469
-0.174267
0.174267
1.1712
1.1712
1.10635
1.06212
1.0223
0.985721
0.952669
0.923141
0.896785
0.873076
0.851474
0.831511
0.812818
0.795119
0.778212
0.761953
0.746234
0.730978
0.716126
0.701631
0.687457
0.673572
0.659951
0.646573
0.633417
0.620467
0.607707
0.595125
0.582707
0.570443
0.558323
0.546336
0.534475
0.522732
0.511099
0.49957
0.488138
0.476799
0.465546
0.454374
0.443279
0.432256
0.421302
0.410412
0.399583
0.388812
0.378095
0.367429
0.356812
0.346241
0.335713
0.325227
0.314779
0.304368
0.293992
0.283649
0.273337
0.263054
0.2528
0.242571
0.232368
0.222189
0.212032
0.201896
0.19178
0.181683
0.171605
0.161544
0.151499
0.14147
0.131456
0.121457
0.111472
0.101501
0.0915424
0.0815967
0.0716632
0.0617415
0.0518311
0.0419315
0.0320423
0.0221627
0.0122924
0.0024306
-0.00742321
-0.0172697
-0.0271095
-0.0369432
-0.0467715
-0.056595
-0.0664142
-0.0762296
-0.0860418
-0.0958513
-0.105658
-0.115463
-0.125267
-0.135069
-0.14487
-0.15467
-0.164469
-0.174267
0.174267
SCALARS phi double
LOOKUP_TABLE phi
1
1
1
1
0.999999
0.999994
0.999983
0.999958
0.99991
0.99983
0.999706
0.999526
0.999278
0.998951
0.998536
0.998024
0.997406
0.996678
0.995833
0.994869
0.993782
0.992574
0.991245
0.989795
0.988214
0.986477
0.984533
0.982304
0.979686
0.976551
0.972763
0.968183
0.962683
0.95615
0.948497
0.939661
0.929607
0.918326
0.905832
0.892161
0.877366
0.861518
0.844697
0.826991
0.808496
0.789309
0.769529
0.749252
0.728574
0.707585
0.68637
0.665012
0.643584
0.622155
0.60079
0.579544
0.55847
0.537613
0.517013
0.496707
0.476725
0.457093
0.437836
0.418971
0.400514
0.382479
0.364874
0.347707
0.330983
0.314707
0.298878
0.283498
0.268565
0.254078
0.240033
0.226428
0.213258
0.20052
0.18821
0.176323
0.164857
0.153807
0.14317
0.132944
0.123127
0.113718
0.104715
0.0961184
0.0879284
0.0801454
0.0727699
0.0658026
0.0592438
0.0530934
0.0473502
0.0420117
0.0370754
0.0325304
0.0283892
0.0245665
0.0213336
0.0175968
0.0175968
1
1
1
1
0.999999
0.999994
0.999983
0.999958
0.99991
0.99983
0.999706
0.999526
0.999278
0.998951
0.998536
0.998024
0.997406
0.996678
0.995833
0.994869
0.993782
0.992574
0.991245
0.989795
0.988214
0.986477
0.984533
0.982304
0.979686
0.976551
0.972763
0.968183
0.962683
0.95615
0.948497
0.939661
0.929607
0.918326
0.905832
0.892161
0.877366
0.861518
0.844697
0.826991
0.808496
0.789309
0.769529
0.749252
0.728574
0.707585
0.68637
0.665012
0.643584
0.622155
0.60079
0.579544
0.55847
0.537613
0.517013
0.496707
0.476725
0.457093
0.437836
0.418971
0.400514
0.382479
0.364874
0.347707
0.330983
0.314707
0.298878
0.283498
0.268565
0.254078
0.240033
0.226428
0.213258
0.20052
0.18821
0.176323
0.164857
0.153807
0.14317
0.132944
0.123127
0.113718
0.104715
0.0961184
0.0879284
0.0801454
0.0727699
0.0658026
0.0592438
0.0530934
0.0473502
0.0420117
0.0370754
0.0325304
0.0283892
0.0245665
0.0213336
0.0175968
0.0175968
1
1
1
0.999996
0.999983
0.999954
0.999898
0.999804
0.999658
0.999447
0.999157
0.998778
0.9983
0.997714
0.997014
0.996196
0.995256
0.994192
0.993003
0.991689
0.990252
0.988693
0.987017
0.985225
0.983322
0.981306
0.979169
0.97689
0.974437
0.971758
0.96879
0.965455
0.961668
0.957339
0.95238
0.946711
0.94026
0.932968
0.924792
0.915702
0.905686
0.894746
0.882899
0.870173
0.856608
0.842251
0.82716
0.811394
0.795018
0.778101
0.760708
0.742909
0.724769
0.706354
0.687725
0.668941
0.650058
0.631129
0.612201
0.59332
0.574526
0.555858
0.537348
0.519028
0.500925
0.483062
0.465461
0.448139
0.431113
0.414395
0.397996
0.381924
0.366184
0.350781
0.335718
0.320994
0.306609
0.292561
0.278845
0.265459
0.252395
0.23965
0.227215
0.215085
0.203253
0.191713
0.18046
0.169489
0.158797
0.148384
0.138249
0.128397
0.118833
0.109567
0.100611
0.0919783
0.0836903
0.075749
0.0682342
0.0609496
0.0546808
0.0467226
0.0467226
0.999997
1
0.99998
0.999897
0.999724
0.999434
0.998999
0.998397
0.997613
0.996636
0.995464
0.994099
0.992547
0.990816
0.988916
0.986859
0.984655
0.982317
0.979854
0.977278
0.974598
0.971826
0.968969
0.966037
0.963037
0.959977
0.956861
0.953694
0.950471
0.947187
0.943828
0.940372
0.936791
0.93305
0.929109
0.924921
0.920439
0.915616
0.910402
0.904755
0.898634
0.892005
0.884838
0.877113
0.868815
0.859938
0.850481
0.84045
0.829859
0.818724
0.807069
0.794921
0.782309
0.769267
0.755828
0.742029
0.727907
0.713498
0.69884
0.68397
0.668922
0.653731
0.638432
0.623055
0.607631
0.592188
0.576754
0.561354
0.54601
0.530743
0.515574
0.500518
0.485592
0.470806
0.456173
0.4417
0.427394
0.413259
0.399296
0.385505
0.371884
0.358428
0.34513
0.331982
0.318974
0.306093
0.293327
0.28066
0.268079
0.255569
0.243116
0.23071
0.218342
0.206011
0.193721
0.18148
0.169321
0.15723
0.145391
0.133361
0.122847
0.108386
0.108386
0.999999
1
0.99943
0.998224
0.996402
0.994008
0.991093
0.987716
0.983939
0.979828
0.975446
0.970853
0.966102
0.961239
0.9563
0.951318
0.946317
0.94132
0.936342
0.931396
0.926494
0.921643
0.91685
0.91212
0.907456