# vtk DataFile Version 3.0
FlowField
ASCII
DATASET STRUCTURED_GRID
DIMENSIONS 103 13 1 
POINTS 1339 double
0 0 0
0.3 0 0
0.6 0 0
0.9 0 0
1.2 0 0
1.5 0 0
1.8 0 0
2.1 0 0
2.4 0 0
2.7 0 0
3 0 0
3.3 0 0
3.6 0 0
3.9 0 0
4.2 0 0
4.5 0 0
4.8 0 0
5.1 0 0
5.4 0 0
5.7 0 0
6 0 0
6.3 0 0
6.6 0 0
6.9 0 0
7.2 0 0
7.5 0 0
7.8 0 0
8.1 0 0
8.4 0 0
8.7 0 0
9 0 0
9.3 0 0
9.6 0 0
9.9 0 0
10.2 0 0
10.5 0 0
10.8 0 0
11.1 0 0
11.4 0 0
11.7 0 0
12 0 0
12.3 0 0
12.6 0 0
12.9 0 0
13.2 0 0
13.5 0 0
13.8 0 0
14.1 0 0
14.4 0 0
14.7 0 0
15 0 0
15.3 0 0
15.6 0 0
15.9 0 0
16.2 0 0
16.5 0 0
16.8 0 0
17.1 0 0
17.4 0 0
17.7 0 0
18 0 0
18.3 0 0
18.6 0 0
18.9 0 0
19.2 0 0
19.5 0 0
19.8 0 0
20.1 0 0
20.4 0 0
20.7 0 0
21 0 0
21.3 0 0
21.6 0 0
21.9 0 0
22.2 0 0
22.5 0 0
22.8 0 0
23.1 0 0
23.4 0 0
23.7 0 0
24 0 0
24.3 0 0
24.6 0 0
24.9 0 0
25.2 0 0
25.5 0 0
25.8 0 0
26.1 0 0
26.4 0 0
26.7 0 0
27 0 0
27.3 0 0
27.6 0 0
27.9 0 0
28.2 0 0
28.5 0 0
28.8 0 0
29.1 0 0
29.4 0 0
29.7 0 0
30 0 0
30.3 0 0
30.6 0 0
0 0.1 0
0.3 0.1 0
0.6 0.1 0
0.9 0.1 0
1.2 0.1 0
1.5 0.1 0
1.8 0.1 0
2.1 0.1 0
2.4 0.1 0
2.7 0.1 0
3 0.1 0
3.3 0.1 0
3.6 0.1 0
3.9 0.1 0
4.2 0.1 0
4.5 0.1 0
4.8 0.1 0
5.1 0.1 0
5.4 0.1 0
5.7 0.1 0
6 0.1 0
6.3 0.1 0
6.6 0.1 0
6.9 0.1 0
7.2 0.1 0
7.5 0.1 0
7.8 0.1 0
8.1 0.1 0
8.4 0.1 0
8.7 0.1 0
9 0.1 0
9.3 0.1 0
9.6 0.1 0
9.9 0.1 0
10.2 0.1 0
10.5 0.1 0
10.8 0.1 0
11.1 0.1 0
11.4 0.1 0
11.7 0.1 0
12 0.1 0
12.3 0.1 0
12.6 0.1 0
12.9 0.1 0
13.2 0.1 0
13.5 0.1 0
13.8 0.1 0
14.1 0.1 0
14.4 0.1 0
14.7 0.1 0
15 0.1 0
15.3 0.1 0
15.6 0.1 0
15.9 0.1 0
16.2 0.1 0
16.5 0.1 0
16.8 0.1 0
17.1 0.1 0
17.4 0.1 0
17.7 0.1 0
18 0.1 0
18.3 0.1 0
18.6 0.1 0
18.9 0.1 0
19.2 0.1 0
19.5 0.1 0
19.8 0.1 0
20.1 0.1 0
20.4 0.1 0
20.7 0.1 0
21 0.1 0
21.3 0.1 0
21.6 0.1 0
21.9 0.1 0
22.2 0.1 0
22.5 0.1 0
22.8 0.1 0
23.1 0.1 0
23.4 0.1 0
23.7 0.1 0
24 0.1 0
24.3 0.1 0
24.6 0.1 0
24.9 0.1 0
25.2 0.1 0
25.5 0.1 0
25.8 0.1 0
26.1 0.1 0
26.4 0.1 0
26.7 0.1 0
27 0.1 0
27.3 0.1 0
27.6 0.1 0
27.9 0.1 0
28.2 0.1 0
28.5 0.1 0
28.8 0.1 0
29.1 0.1 0
29.4 0.1 0
29.7 0.1 0
30 0.1 0
30.3 0.1 0
30.6 0.1 0
0 0.2 0
0.3 0.2 0
0.6 0.2 0
0.9 0.2 0
1.2 0.2 0
1.5 0.2 0
1.8 0.2 0
2.1 0.2 0
2.4 0.2 0
2.7 0.2 0
3 0.2 0
3.3 0.2 0
3.6 0.2 0
3.9 0.2 0
4.2 0.2 0
4.5 0.2 0
4.8 0.2 0
5.1 0.2 0
5.4 0.2 0
5.7 0.2 0
6 0.2 0
6.3 0.2 0
6.6 0.2 0
6.9 0.2 0
7.2 0.2 0
7.5 0.2 0
7.8 0.2 0
8.1 0.2 0
8.4 0.2 0
8.7 0.2 0
9 0.2 0
9.3 0.2 0
9.6 0.2 0
9.9 0.2 0
10.2 0.2 0
10.5 0.2 0
10.8 0.2 0
11.1 0.2 0
11.4 0.2 0
11.7 0.2 0
12 0.2 0
12.3 0.2 0
12.6 0.2 0
12.9 0.2 0
13.2 0.2 0
13.5 0.2 0
13.8 0.2 0
14.1 0.2 0
14.4 0.2 0
14.7 0.2 0
15 0.2 0
15.3 0.2 0
15.6 0.2 0
15.9 0.2 0
16.2 0.2 0
16.5 0.2 0
16.8 0.2 0
17.1 0.2 0
17.4 0.2 0
17.7 0.2 0
18 0.2 0
18.3 0.2 0
18.6 0.2 0
18.9 0.2 0
19.2 0.2 0
19.5 0.2 0
19.8 0.2 0
20.1 0.2 0
20.4 0.2 0
20.7 0.2 0
21 0.2 0
21.3 0.2 0
21.6 0.2 0
21.9 0.2 0
22.2 0.2 0
22.5 0.2 0
22.8 0.2 0
23.1 0.2 0
23.4 0.2 0
23.7 0.2 0
24 0.2 0
24.3 0.2 0
24.6 0.2 0
24.9 0.2 0
25.2 0.2 0
25.5 0.2 0
25.8 0.2 0
26.1 0.2 0
26.4 0.2 0
26.7 0.2 0
27 0.2 0
27.3 0.2 0
27.6 0.2 0
27.9 0.2 0
28.2 0.2 0
28.5 0.2 0
28.8 0.2 0
29.1 0.2 0
29.4 0.2 0
29.7 0.2 0
30 0.2 0
30.3 0.2 0
30.6 0.2 0
0 0.3 0
0.3 0.3 0
0.6 0.3 0
0.9 0.3 0
1.2 0.3 0
1.5 0.3 0
1.8 0.3 0
2.1 0.3 0
2.4 0.3 0
2.7 0.3 0
3 0.3 0
3.3 0.3 0
3.6 0.3 0
3.9 0.3 0
4.2 0.3 0
4.5 0.3 0
4.8 0.3 0
5.1 0.3 0
5.4 0.3 0
5.7 0.3 0
6 0.3 0
6.3 0.3 0
6.6 0.3 0
6.9 0.3 0
7.2 0.3 0
7.5 0.3 0
7.8 0.3 0
8.1 0.3 0
8.4 0.3 0
8.7 0.3 0
9 0.3 0
9.3 0.3 0
9.6 0.3 0
9.9 0.3 0
10.2 0.3 0
10.5 0.3 0
10.8 0.3 0
11.1 0.3 0
11.4 0.3 0
11.7 0.3 0
12 0.3 0
12.3 0.3 0
12.6 0.3 0
12.9 0.3 0
13.2 0.3 0
13.5 0.3 0
13.8 0.3 0
14.1 0.3 0
14.4 0.3 0
14.7 0.3 0
15 0.3 0
15.3 0.3 0
15.6 0.3 0
15.9 0.3 0
16.2 0.3 0
16.5 0.3 0
16.8 0.3 0
17.1 0.3 0
17.4 0.3 0
17.7 0.3 0
18 0.3 0
18.3 0.3 0
18.6 0.3 0
18.9 0.3 0
19.2 0.3 0
19.5 0.3 0
19.8 0.3 0
20.1 0.3 0
20.4 0.3 0
20.7 0.3 0
21 0.3 0
21.3 0.3 0
21.6 0.3 0
21.9 0.3 0
22.2 0.3 0
22.5 0.3 0
22.8 0.3 0
23.1 0.3 0
23.4 0.3 0
23.7 0.3 0
24 0.3 0
24.3 0.3 0
24.6 0.3 0
24.9 0.3 0
25.2 0.3 0
25.5 0.3 0
25.8 0.3 0
26.1 0.3 0
26.4 0.3 0
26.7 0.3 0
27 0.3 0
27.3 0.3 0
27.6 0.3 0
27.9 0.3 0
28.2 0.3 0
28.5 0.3 0
28.8 0.3 0
29.1 0.3 0
29.4 0.3 0
29.7 0.3 0
30 0.3 0
30.3 0.3 0
30.6 0.3 0
0 0.4 0
0.3 0.4 0
0.6 0.4 0
0.9 0.4 0
1.2 0.4 0
1.5 0.4 0
1.8 0.4 0
2.1 0.4 0
2.4 0.4 0
2.7 0.4 0
3 0.4 0
3.3 0.4 0
3.6 0.4 0
3.9 0.4 0
4.2 0.4 0
4.5 0.4 0
4.8 0.4 0
5.1 0.4 0
5.4 0.4 0
5.7 0.4 0
6 0.4 0
6.3 0.4 0
6.6 0.4 0
6.9 0.4 0
7.2 0.4 0
7.5 0.4 0
7.8 0.4 0
8.1 0.4 0
8.4 0.4 0
8.7 0.4 0
9 0.4 0
9.3 0.4 0
9.6 0.4 0
9.9 0.4 0
10.2 0.4 0
10.5 0.4 0
10.8 0.4 0
11.1 0.4 0
11.4 0.4 0
11.7 0.4 0
12 0.4 0
12.3 0.4 0
12.6 0.4 0
12.9 0.4 0
13.2 0.4 0
13.5 0.4 0
13.8 0.4 0
14.1 0.4 0
14.4 0.4 0
14.7 0.4 0
15 0.4 0
15.3 0.4 0
15.6 0.4 0
15.9 0.4 0
16.2 0.4 0
16.5 0.4 0
16.8 0.4 0
17.1 0.4 0
17.4 0.4 0
17.7 0.4 0
18 0.4 0
18.3 0.4 0
18.6 0.4 0
18.9 0.4 0
19.2 0.4 0
19.5 0.4 0
19.8 0.4 0
20.1 0.4 0
20.4 0.4 0
20.7 0.4 0
21 0.4 0
21.3 0.4 0
21.6 0.4 0
21.9 0.4 0
22.2 0.4 0
22.5 0.4 0
22.8 0.4 0
23.1 0.4 0
23.4 0.4 0
23.7 0.4 0
24 0.4 0
24.3 0.4 0
24.6 0.4 0
24.9 0.4 0
25.2 0.4 0
25.5 0.4 0
25.8 0.4 0
26.1 0.4 0
26.4 0.4 0
26.7 0.4 0
27 0.4 0
27.3 0.4 0
27.6 0.4 0
27.9 0.4 0
28.2 0.4 0
28.5 0.4 0
28.8 0.4 0
29.1 0.4 0
29.4 0.4 0
29.7 0.4 0
30 0.4 0
30.3 0.4 0
30.6 0.4 0
0 0.5 0
0.3 0.5 0
0.6 0.5 0
0.9 0.5 0
1.2 0.5 0
1.5 0.5 0
1.8 0.5 0
2.1 0.5 0
2.4 0.5 0
2.7 0.5 0
3 0.5 0
3.3 0.5 0
3.6 0.5 0
3.9 0.5 0
4.2 0.5 0
4.5 0.5 0
4.8 0.5 0
5.1 0.5 0
5.4 0.5 0
5.7 0.5 0
6 0.5 0
6.3 0.5 0
6.6 0.5 0
6.9 0.5 0
7.2 0.5 0
7.5 0.5 0
7.8 0.5 0
8.1 0.5 0
8.4 0.5 0
8.7 0.5 0
9 0.5 0
9.3 0.5 0
9.6 0.5 0
9.9 0.5 0
10.2 0.5 0
10.5 0.5 0
10.8 0.5 0
11.1 0.5 0
11.4 0.5 0
11.7 0.5 0
12 0.5 0
12.3 0.5 0
12.6 0.5 0
12.9 0.5 0
13.2 0.5 0
13.5 0.5 0
13.8 0.5 0
14.1 0.5 0
14.4 0.5 0
14.7 0.5 0
15 0.5 0
15.3 0.5 0
15.6 0.5 0
15.9 0.5 0
16.2 0.5 0
16.5 0.5 0
16.8 0.5 0
17.1 0.5 0
17.4 0.5 0
17.7 0.5 0
18 0.5 0
18.3 0.5 0
18.6 0.5 0
18.9 0.5 0
19.2 0.5 0
19.5 0.5 0
19.8 0.5 0
20.1 0.5 0
20.4 0.5 0
20.7 0.5 0
21 0.5 0
21.3 0.5 0
21.6 0.5 0
21.9 0.5 0
22.2 0.5 0
22.5 0.5 0
22.8 0.5 0
23.1 0.5 0
23.4 0.5 0
23.7 0.5 0
24 0.5 0
24.3 0.5 0
24.6 0.5 0
24.9 0.5 0
25.2 0.5 0
25.5 0.5 0
25.8 0.5 0
26.1 0.5 0
26.4 0.5 0
26.7 0.5 0
27 0.5 0
27.3 0.5 0
27.6 0.5 0
27.9 0.5 0
28.2 0.5 0
28.5 0.5 0
28.8 0.5 0
29.1 0.5 0
29.4 0.5 0
29.7 0.5 0
30 0.5 0
30.3 0.5 0
30.6 0.5 0
0 0.6 0
0.3 0.6 0
0.6 0.6 0
0.9 0.6 0
1.2 0.6 0
1.5 0.6 0
1.8 0.6 0
2.1 0.6 0
2.4 0.6 0
2.7 0.6 0
3 0.6 0
3.3 0.6 0
3.6 0.6 0
3.9 0.6 0
4.2 0.6 0
4.5 0.6 0
4.8 0.6 0
5.1 0.6 0
5.4 0.6 0
5.7 0.6 0
6 0.6 0
6.3 0.6 0
6.6 0.6 0
6.9 0.6 0
7.2 0.6 0
7.5 0.6 0
7.8 0.6 0
8.1 0.6 0
8.4 0.6 0
8.7 0.6 0
9 0.6 0
9.3 0.6 0
9.6 0.6 0
9.9 0.6 0
10.2 0.6 0
10.5 0.6 0
10.8 0.6 0
11.1 0.6 0
11.4 0.6 0
11.7 0.6 0
12 0.6 0
12.3 0.6 0
12.6 0.6 0
12.9 0.6 0
13.2 0.6 0
13.5 0.6 0
13.8 0.6 0
14.1 0.6 0
14.4 0.6 0
14.7 0.6 0
15 0.6 0
15.3 0.6 0
15.6 0.6 0
15.9 0.6 0
16.2 0.6 0
16.5 0.6 0
16.8 0.6 0
17.1 0.6 0
17.4 0.6 0
17.7 0.6 0
18 0.6 0
18.3 0.6 0
18.6 0.6 0
18.9 0.6 0
19.2 0.6 0
19.5 0.6 0
19.8 0.6 0
20.1 0.6 0
20.4 0.6 0
20.7 0.6 0
21 0.6 0
21.3 0.6 0
21.6 0.6 0
21.9 0.6 0
22.2 0.6 0
22.5 0.6 0
22.8 0.6 0
23.1 0.6 0
23.4 0.6 0
23.7 0.6 0
24 0.6 0
24.3 0.6 0
24.6 0.6 0
24.9 0.6 0
25.2 0.6 0
25.5 0.6 0
25.8 0.6 0
26.1 0.6 0
26.4 0.6 0
26.7 0.6 0
27 0.6 0
27.3 0.6 0
27.6 0.6 0
27.9 0.6 0
28.2 0.6 0
28.5 0.6 0
28.8 0.6 0
29.1 0.6 0
29.4 0.6 0
29.7 0.6 0
30 0.6 0
30.3 0.6 0
30.6 0.6 0
0 0.7 0
0.3 0.7 0
0.6 0.7 0
0.9 0.7 0
1.2 0.7 0
1.5 0.7 0
1.8 0.7 0
2.1 0.7 0
2.4 0.7 0
2.7 0.7 0
3 0.7 0
3.3 0.7 0
3.6 0.7 0
3.9 0.7 0
4.2 0.7 0
4.5 0.7 0
4.8 0.7 0
5.1 0.7 0
5.4 0.7 0
5.7 0.7 0
6 0.7 0
6.3 0.7 0
6.6 0.7 0
6.9 0.7 0
7.2 0.7 0
7.5 0.7 0
7.8 0.7 0
8.1 0.7 0
8.4 0.7 0
8.7 0.7 0
9 0.7 0
9.3 0.7 0
9.6 0.7 0
9.9 0.7 0
10.2 0.7 0
10.5 0.7 0
10.8 0.7 0
11.1 0.7 0
11.4 0.7 0
11.7 0.7 0
12 0.7 0
12.3 0.7 0
12.6 0.7 0
12.9 0.7 0
13.2 0.7 0
13.5 0.7 0
13.8 0.7 0
14.1 0.7 0
14.4 0.7 0
14.7 0.7 0
15 0.7 0
15.3 0.7 0
15.6 0.7 0
15.9 0.7 0
16.2 0.7 0
16.5 0.7 0
16.8 0.7 0
17.1 0.7 0
17.4 0.7 0
17.7 0.7 0
18 0.7 0
18.3 0.7 0
18.6 0.7 0
18.9 0.7 0
19.2 0.7 0
19.5 0.7 0
19.8 0.7 0
20.1 0.7 0
20.4 0.7 0
20.7 0.7 0
21 0.7 0
21.3 0.7 0
21.6 0.7 0
21.9 0.7 0
22.2 0.7 0
22.5 0.7 0
22.8 0.7 0
23.1 0.7 0
23.4 0.7 0
23.7 0.7 0
24 0.7 0
24.3 0.7 0
24.6 0.7 0
24.9 0.7 0
25.2 0.7 0
25.5 0.7 0
25.8 0.7 0
26.1 0.7 0
26.4 0.7 0
26.7 0.7 0
27 0.7 0
27.3 0.7 0
27.6 0.7 0
27.9 0.7 0
28.2 0.7 0
28.5 0.7 0
28.8 0.7 0
29.1 0.7 0
29.4 0.7 0
29.7 0.7 0
30 0.7 0
30.3 0.7 0
30.6 0.7 0
0 0.8 0
0.3 0.8 0
0.6 0.8 0
0.9 0.8 0
1.2 0.8 0
1.5 0.8 0
1.8 0.8 0
2.1 0.8 0
2.4 0.8 0
2.7 0.8 0
3 0.8 0
3.3 0.8 0
3.6 0.8 0
3.9 0.8 0
4.2 0.8 0
4.5 0.8 0
4.8 0.8 0
5.1 0.8 0
5.4 0.8 0
5.7 0.8 0
6 0.8 0
6.3 0.8 0
6.6 0.8 0
6.9 0.8 0
7.2 0.8 0
7.5 0.8 0
7.8 0.8 0
8.1 0.8 0
8.4 0.8 0
8.7 0.8 0
9 0.8 0
9.3 0.8 0
9.6 0.8 0
9.9 0.8 0
10.2 0.8 0
10.5 0.8 0
10.8 0.8 0
11.1 0.8 0
11.4 0.8 0
11.7 0.8 0
12 0.8 0
12.3 0.8 0
12.6 0.8 0
12.9 0.8 0
13.2 0.8 0
13.5 0.8 0
13.8 0.8 0
14.1 0.8 0
14.4 0.8 0
14.7 0.8 0
15 0.8 0
15.3 0.8 0
15.6 0.8 0
15.9 0.8 0
16.2 0.8 0
16.5 0.8 0
16.8 0.8 0
17.1 0.8 0
17.4 0.8 0
17.7 0.8 0
18 0.8 0
18.3 0.8 0
18.6 0.8 0
18.9 0.8 0
19.2 0.8 0
19.5 0.8 0
19.8 0.8 0
20.1 0.8 0
20.4 0.8 0
20.7 0.8 0
21 0.8 0
21.3 0.8 0
21.6 0.8 0
21.9 0.8 0
22.2 0.8 0
22.5 0.8 0
22.8 0.8 0
23.1 0.8 0
23.4 0.8 0
23.7 0.8 0
24 0.8 0
24.3 0.8 0
24.6 0.8 0
24.9 0.8 0
25.2 0.8 0
25.5 0.8 0
25.8 0.8 0
26.1 0.8 0
26.4 0.8 0
26.7 0.8 0
27 0.8 0
27.3 0.8 0
27.6 0.8 0
27.9 0.8 0
28.2 0.8 0
28.5 0.8 0
28.8 0.8 0
29.1 0.8 0
29.4 0.8 0
29.7 0.8 0
30 0.8 0
30.3 0.8 0
30.6 0.8 0
0 0.9 0
0.3 0.9 0
0.6 0.9 0
0.9 0.9 0
1.2 0.9 0
1.5 0.9 0
1.8 0.9 0
2.1 0.9 0
2.4 0.9 0
2.7 0.9 0
3 0.9 0
3.3 0.9 0
3.6 0.9 0
3.9 0.9 0
4.2 0.9 0
4.5 0.9 0
4.8 0.9 0
5.1 0.9 0
5.4 0.9 0
5.7 0.9 0
6 0.9 0
6.3 0.9 0
6.6 0.9 0
6.9 0.9 0
7.2 0.9 0
7.5 0.9 0
7.8 0.9 0
8.1 0.9 0
8.4 0.9 0
8.7 0.9 0
9 0.9 0
9.3 0.9 0
9.6 0.9 0
9.9 0.9 0
10.2 0.9 0
10.5 0.9 0
10.8 0.9 0
11.1 0.9 0
11.4 0.9 0
11.7 0.9 0
12 0.9 0
12.3 0.9 0
12.6 0.9 0
12.9 0.9 0
13.2 0.9 0
13.5 0.9 0
13.8 0.9 0
14.1 0.9 0
14.4 0.9 0
14.7 0.9 0
15 0.9 0
15.3 0.9 0
15.6 0.9 0
15.9 0.9 0
16.2 0.9 0
16.5 0.9 0
16.8 0.9 0
17.1 0.9 0
17.4 0.9 0
17.7 0.9 0
18 0.9 0
18.3 0.9 0
18.6 0.9 0
18.9 0.9 0
19.2 0.9 0
19.5 0.9 0
19.8 0.9 0
20.1 0.9 0
20.4 0.9 0
20.7 0.9 0
21 0.9 0
21.3 0.9 0
21.6 0.9 0
21.9 0.9 0
22.2 0.9 0
22.5 0.9 0
22.8 0.9 0
23.1 0.9 0
23.4 0.9 0
23.7 0.9 0
24 0.9 0
24.3 0.9 0
24.6 0.9 0
24.9 0.9 0
25.2 0.9 0
25.5 0.9 0
25.8 0.9 0
26.1 0.9 0
26.4 0.9 0
26.7 0.9 0
27 0.9 0
27.3 0.9 0
27.6 0.9 0
27.9 0.9 0
28.2 0.9 0
28.5 0.9 0
28.8 0.9 0
29.1 0.9 0
29.4 0.9 0
29.7 0.9 0
30 0.9 0
30.3 0.9 0
30.6 0.9 0
0 1 0
0.3 1 0
0.6 1 0
0.9 1 0
1.2 1 0
1.5 1 0
1.8 1 0
2.1 1 0
2.4 1 0
2.7 1 0
3 1 0
3.3 1 0
3.6 1 0
3.9 1 0
4.2 1 0
4.5 1 0
4.8 1 0
5.1 1 0
5.4 1 0
5.7 1 0
6 1 0
6.3 1 0
6.6 1 0
6.9 1 0
7.2 1 0
7.5 1 0
7.8 1 0
8.1 1 0
8.4 1 0
8.7 1 0
9 1 0
9.3 1 0
9.6 1 0
9.9 1 0
10.2 1 0
10.5 1 0
10.8 1 0
11.1 1 0
11.4 1 0
11.7 1 0
12 1 0
12.3 1 0
12.6 1 0
12.9 1 0
13.2 1 0
13.5 1 0
13.8 1 0
14.1 1 0
14.4 1 0
14.7 1 0
15 1 0
15.3 1 0
15.6 1 0
15.9 1 0
16.2 1 0
16.5 1 0
16.8 1 0
17.1 1 0
17.4 1 0
17.7 1 0
18 1 0
18.3 1 0
18.6 1 0
18.9 1 0
19.2 1 0
19.5 1 0
19.8 1 0
20.1 1 0
20.4 1 0
20.7 1 0
21 1 0
21.3 1 0
21.6 1 0
21.9 1 0
22.2 1 0
22.5 1 0
22.8 1 0
23.1 1 0
23.4 1 0
23.7 1 0
24 1 0
24.3 1 0
24.6 1 0
24.9 1 0
25.2 1 0
25.5 1 0
25.8 1 0
26.1 1 0
26.4 1 0
26.7 1 0
27 1 0
27.3 1 0
27.6 1 0
27.9 1 0
28.2 1 0
28.5 1 0
28.8 1 0
29.1 1 0
29.4 1 0
29.7 1 0
30 1 0
30.3 1 0
30.6 1 0
0 1.1 0
0.3 1.1 0
0.6 1.1 0
0.9 1.1 0
1.2 1.1 0
1.5 1.1 0
1.8 1.1 0
2.1 1.1 0
2.4 1.1 0
2.7 1.1 0
3 1.1 0
3.3 1.1 0
3.6 1.1 0
3.9 1.1 0
4.2 1.1 0
4.5 1.1 0
4.8 1.1 0
5.1 1.1 0
5.4 1.1 0
5.7 1.1 0
6 1.1 0
6.3 1.1 0
6.6 1.1 0
6.9 1.1 0
7.2 1.1 0
7.5 1.1 0
7.8 1.1 0
8.1 1.1 0
8.4 1.1 0
8.7 1.1 0
9 1.1 0
9.3 1.1 0
9.6 1.1 0
9.9 1.1 0
10.2 1.1 0
10.5 1.1 0
10.8 1.1 0
11.1 1.1 0
11.4 1.1 0
11.7 1.1 0
12 1.1 0
12.3 1.1 0
12.6 1.1 0
12.9 1.1 0
13.2 1.1 0
13.5 1.1 0
13.8 1.1 0
14.1 1.1 0
14.4 1.1 0
14.7 1.1 0
15 1.1 0
15.3 1.1 0
15.6 1.1 0
15.9 1.1 0
16.2 1.1 0
16.5 1.1 0
16.8 1.1 0
17.1 1.1 0
17.4 1.1 0
17.7 1.1 0
18 1.1 0
18.3 1.1 0
18.6 1.1 0
18.9 1.1 0
19.2 1.1 0
19.5 1.1 0
19.8 1.1 0
20.1 1.1 0
20.4 1.1 0
20.7 1.1 0
21 1.1 0
21.3 1.1 0
21.6 1.1 0
21.9 1.1 0
22.2 1.1 0
22.5 1.1 0
22.8 1.1 0
23.1 1.1 0
23.4 1.1 0
23.7 1.1 0
24 1.1 0
24.3 1.1 0
24.6 1.1 0
24.9 1.1 0
25.2 1.1 0
25.5 1.1 0
25.8 1.1 0
26.1 1.1 0
26.4 1.1 0
26.7 1.1 0
27 1.1 0
27.3 1.1 0
27.6 1.1 0
27.9 1.1 0
28.2 1.1 0
28.5 1.1 0
28.8 1.1 0
29.1 1.1 0
29.4 1.1 0
29.7 1.1 0
30 1.1 0
30.3 1.1 0
30.6 1.1 0
0 1.2 0
0.3 1.2 0
0.6 1.2 0
0.9 1.2 0
1.2 1.2 0
1.5 1.2 0
1.8 1.2 0
2.1 1.2 0
2.4 1.2 0
2.7 1.2 0
3 1.2 0
3.3 1.2 0
3.6 1.2 0
3.9 1.2 0
4.2 1.2 0
4.5 1.2 0
4.8 1.2 0
5.1 1.2 0
5.4 1.2 0
5.7 1.2 0
6 1.2 0
6.3 1.2 0
6.6 1.2 0
6.9 1.2 0
7.2 1.2 0
7.5 1.2 0
7.8 1.2 0
8.1 1.2 0
8.4 1.2 0
8.7 1.2 0
9 1.2 0
9.3 1.2 0
9.6 1.2 0
9.9 1.2 0
10.2 1.2 0
10.5 1.2 0
10.8 1.2 0
11.1 1.2 0
11.4 1.2 0
11.7 1.2 0
12 1.2 0
12.3 1.2 0
12.6 1.2 0
12.9 1.2 0
13.2 1.2 0
13.5 1.2 0
13.8 1.2 0
14.1 1.2 0
14.4 1.2 0
14.7 1.2 0
15 1.2 0
15.3 1.2 0
15.6 1.2 0
15.9 1.2 0
16.2 1.2 0
16.5 1.2 0
16.8 1.2 0
17.1 1.2 0
17.4 1.2 0
17.7 1.2 0
18 1.2 0
18.3 1.2 0
18.6 1.2 0
18.9 1.2 0
19.2 1.2 0
19.5 1.2 0
19.8 1.2 0
20.1 1.2 0
20.4 1.2 0
20.7 1.2 0
21 1.2 0
21.3 1.2 0
21.6 1.2 0
21.9 1.2 0
22.2 1.2 0
22.5 1.2 0
22.8 1.2 0
23.1 1.2 0
23.4 1.2 0
23.7 1.2 0
24 1.2 0
24.3 1.2 0
24.6 1.2 0
24.9 1.2 0
25.2 1.2 0
25.5 1.2 0
25.8 1.2 0
26.1 1.2 0
26.4 1.2 0
26.7 1.2 0
27 1.2 0
27.3 1.2 0
27.6 1.2 0
27.9 1.2 0
28.2 1.2 0
28.5 1.2 0
28.8 1.2 0
29.1 1.2 0
29.4 1.2 0
29.7 1.2 0
30 1.2 0
30.3 1.2 0
30.6 1.2 0

POINT_DATA 1339

SCALARS pressure double
LOOKUP_TABLE pressure
1.27681
1.27681
1.21197
1.16773
1.12791
1.09133
1.05828
1.02876
1.0024
0.978721
0.957267
0.937689
0.919729
0.90317
0.887794
0.873372
0.859672
0.846479
0.833611
0.820936
0.808363
0.79584
0.783337
0.770843
0.758351
0.745859
0.733368
0.720877
0.708386
0.695894
0.683403
0.670912
0.658421
0.64593
0.633438
0.620947
0.608456
0.595965
0.583474
0.570983
0.558492
0.546
0.533509
0.521018
0.508527
0.496036
0.483545
0.471054
0.458562
0.446071
0.43358
0.421089
0.408598
0.396107
0.383616
0.371124
0.358633
0.346142
0.333651
0.32116
0.308669
0.296178
0.283686
0.271195
0.258704
0.246213
0.233722
0.221231
0.20874
0.196248
0.183757
0.171266
0.158775
0.146284
0.133793
0.121302
0.10881
0.0963194
0.0838282
0.0713371
0.058846
0.0463549
0.0338637
0.0213726
0.00888149
-0.00360963
-0.0161008
-0.0285919
-0.041083
-0.0535741
-0.0660652
-0.0785563
-0.0910474
-0.103539
-0.11603
-0.128521
-0.141012
-0.153503
-0.165993
-0.178484
-0.190975
-0.203393
0.203393
1.27681
1.27681
1.21197
1.16773
1.12791
1.09133
1.05828
1.02876
1.0024
0.978721
0.957267
0.937689
0.919729
0.90317
0.887794
0.873372
0.859672
0.846479
0.833611
0.820936
0.808363
0.79584
0.783337
0.770843
0.758351
0.745859
0.733368
0.720877
0.708386
0.695894
0.683403
0.670912
0.658421
0.64593
0.633438
0.620947
0.608456
0.595965
0.583474
0.570983
0.558492
0.546
0.533509
0.521018
0.508527
0.496036
0.483545
0.471054
0.458562
0.446071
0.43358
0.421089
0.408598
0.396107
0.383616
0.371124
0.358633
0.346142
0.333651
0.32116
0.308669
0.296178
0.283686
0.271195
0.258704
0.246213
0.233722
0.221231
0.20874
0.196248
0.183757
0.171266
0.158775
0.146284
0.133793
0.121302
0.10881
0.0963194
0.0838282
0.0713371
0.058846
0.0463549
0.0338637
0.0213726
0.00888149
-0.00360963
-0.0161008
-0.0285919
-0.041083
-0.0535741
-0.0660652
-0.0785563
-0.0910474
-0.103539
-0.11603
-0.128521
-0.141012
-0.153503
-0.165993
-0.178484
-0.190975
-0.203393
0.203393
1.25587
1.25587
1.20998
1.16796
1.12861
1.09213
1.05903
1.02939
1.00291
0.979111
0.957554
0.93789
0.919861
0.903248
0.887835
0.87339
0.859677
0.846477
0.833608
0.820933
0.808361
0.795839
0.783337
0.770843
0.758351
0.745859
0.733368
0.720877
0.708386
0.695894
0.683403
0.670912
0.658421
0.64593
0.633438
0.620947
0.608456
0.595965
0.583474
0.570983
0.558492
0.546
0.533509
0.521018
0.508527
0.496036
0.483545
0.471054
0.458562
0.446071
0.43358
0.421089
0.408598
0.396107
0.383616
0.371124
0.358633
0.346142
0.333651
0.32116
0.308669
0.296178
0.283686
0.271195
0.258704
0.246213
0.233722
0.221231
0.20874
0.196248
0.183757
0.171266
0.158775
0.146284
0.133793
0.121302
0.10881
0.0963194
0.0838282
0.0713371
0.058846
0.0463549
0.0338637
0.0213726
0.00888149
-0.00360963
-0.0161008
-0.0285919
-0.041083
-0.0535741
-0.0660652
-0.0785563
-0.0910474
-0.103539
-0.11603
-0.128521
-0.141012
-0.153503
-0.165992
-0.178482
-0.190974
-0.203391
0.203391
1.24089
1.24089
1.2071
1.16819
1.12972
1.09346
1.06029
1.03047
1.00377
0.979781
0.958063
0.93827
0.920137
0.903443
0.887966
0.873473
0.859727
0.846505
0.833622
0.82094
0.808364
0.795839
0.783337
0.770842
0.758351
0.745859
0.733368
0.720877
0.708386
0.695894
0.683403
0.670912
0.658421
0.64593
0.633438
0.620947
0.608456
0.595965
0.583474
0.570983
0.558492
0.546
0.533509
0.521018
0.508527
0.496036
0.483545
0.471054
0.458562
0.446071
0.43358
0.421089
0.408598
0.396107
0.383616
0.371124
0.358633
0.346142
0.333651
0.32116
0.308669
0.296178
0.283686
0.271195
0.258704
0.246213
0.233722
0.221231
0.20874
0.196248
0.183757
0.171266
0.158775
0.146284
0.133793
0.121302
0.10881
0.0963194
0.0838282
0.0713371
0.058846
0.0463549
0.0338637
0.0213726
0.00888149
-0.00360963
-0.0161008
-0.0285919
-0.041083
-0.0535741
-0.0660652
-0.0785563
-0.0910474
-0.103539
-0.11603
-0.128521
-0.141011
-0.153502
-0.165989
-0.178474
-0.190946
-0.20338
0.20338
1.23132
1.23132
1.20461
1.1683
1.13068
1.09465
1.06147
1.03151
1.00463
0.980474
0.958616
0.93871
0.920486
0.903713
0.888167
0.873616
0.859822
0.846564
0.833656
0.820957
0.808372
0.795842
0.783338
0.770843
0.75835
0.745859
0.733368
0.720877
0.708386
0.695894
0.683403
0.670912
0.658421
0.64593
0.633438
0.620947
0.608456
0.595965
0.583474
0.570983
0.558492
0.546
0.533509
0.521018
0.508527
0.496036
0.483545
0.471054
0.458562
0.446071
0.43358
0.421089
0.408598
0.396107
0.383616
0.371124
0.358633
0.346142
0.333651
0.32116
0.308669
0.296178
0.283686
0.271195
0.258704
0.246213
0.233722
0.221231
0.20874
0.196248
0.183757
0.171266
0.158775
0.146284
0.133793
0.121302
0.10881
0.0963194
0.0838282
0.0713371
0.058846
0.0463549
0.0338637
0.0213726
0.00888149
-0.00360963
-0.0161007
-0.0285919
-0.041083
-0.0535741
-0.0660652
-0.0785563
-0.0910474
-0.103539
-0.11603
-0.128521
-0.141011
-0.153501
-0.165986
-0.178463
-0.190902
-0.203363
0.203363
1.226
1.226
1.20298
1.16832
1.13127
1.09542
1.06224
1.0322
1.00522
0.980953
0.959007
0.939031
0.920747
0.903922
0.888329
0.873735
0.859904
0.846617
0.833687
0.820974
0.80838
0.795846
0.783339
0.770843
0.75835
0.745859
0.733368
0.720877
0.708386
0.695894
0.683403
0.670912
0.658421
0.64593
0.633438
0.620947
0.608456
0.595965
0.583474
0.570983
0.558492
0.546
0.533509
0.521018
0.508527
0.496036
0.483545
0.471054
0.458562
0.446071
0.43358
0.421089
0.408598
0.396107
0.383616
0.371124
0.358633
0.346142
0.333651
0.32116
0.308669
0.296178
0.283686
0.271195
0.258704
0.246213
0.233722
0.221231
0.20874
0.196248
0.183757
0.171266
0.158775
0.146284
0.133793
0.121302
0.10881
0.0963194
0.0838282
0.0713371
0.058846
0.0463549
0.0338637
0.0213726
0.00888149
-0.00360963
-0.0161007
-0.0285919
-0.041083
-0.0535741
-0.0660652
-0.0785563
-0.0910474
-0.103539
-0.11603
-0.12852
-0.141011
-0.1535
-0.165984
-0.178453
-0.190865
-0.203349
0.203349
1.2243
1.2243
1.20244
1.16833
1.13148
1.09569
1.06251
1.03244
1.00543
0.981126
0.959149
0.939148
0.920843
0.903999
0.888389
0.873779
0.859935
0.846637
0.833699
0.820981
0.808383
0.795847
0.78334
0.770843
0.758351
0.745859
0.733368
0.720877
0.708386
0.695894
0.683403
0.670912
0.658421
0.64593
0.633438
0.620947
0.608456
0.595965
0.583474
0.570983
0.558492
0.546
0.533509
0.521018
0.508527
0.496036
0.483545
0.471054
0.458562
0.446071
0.43358
0.421089
0.408598
0.396107
0.383616
0.371124
0.358633
0.346142
0.333651
0.32116
0.308669
0.296178
0.283686
0.271195
0.258704
0.246213
0.233722
0.221231
0.20874
0.196248
0.183757
0.171266
0.158775
0.146284
0.133793
0.121302
0.10881
0.0963194
0.0838282
0.0713371
0.058846
0.0463549
0.0338637
0.0213726
0.00888149
-0.00360963
-0.0161007
-0.0285919
-0.041083
-0.0535741
-0.0660652
-0.0785563
-0.0910474
-0.103539
-0.11603
-0.12852
-0.141011
-0.1535
-0.165983
-0.17845
-0.190851
-0.203343
0.203343
1.226
1.226
1.20298
1.16832
1.13127
1.09542
1.06224
1.0322
1.00522
0.980953
0.959007
0.939031
0.920747
0.903922
0.888329
0.873735
0.859904
0.846617
0.833687
0.820974
0.80838
0.795846
0.783339
0.770843
0.75835
0.745859
0.733368
0.720877
0.708386
0.695894
0.683403
0.670912
0.658421
0.64593
0.633438
0.620947
0.608456
0.595965
0.583474
0.570983
0.558492
0.546
0.533509
0.521018
0.508527
0.496036
0.483545
0.471054
0.458562
0.446071
0.43358
0.421089
0.408598
0.396107
0.383616
0.371124
0.358633
0.346142
0.333651
0.32116
0.308669
0.296178
0.283686
0.271195
0.258704
0.246213
0.233722
0.221231
0.20874
0.196248
0.183757
0.171266
0.158775
0.146284
0.133793
0.121302
0.10881
0.0963194
0.0838282
0.0713371
0.058846
0.0463549
0.0338637
0.0213726
0.00888149
-0.00360963
-0.0161007
-0.0285919
-0.041083
-0.0535741
-0.0660652
-0.0785563
-0.0910474
-0.103539
-0.11603
-0.12852
-0.141011
-0.1535
-0.165984
-0.178453
-0.190865
-0.203349
0.203349
1.23132
1.23132
1.20461
1.1683
1.13068
1.09465
1.06147
1.03151
1.00463
0.980474
0.958616
0.93871
0.920486
0.903713
0.888167
0.873616
0.859822
0.846564
0.833656
0.820957
0.808372
0.795842
0.783338
0.770843
0.75835
0.745859
0.733368
0.720877
0.708386
0.695894
0.683403
0.670912
0.658421
0.64593
0.633438
0.620947
0.608456
0.595965
0.583474
0.570983
0.558492
0.546
0.533509
0.521018
0.508527
0.496036
0.483545
0.471054
0.458562
0.446071
0.43358
0.421089
0.408598
0.396107
0.383616
0.371124
0.358633
0.346142
0.333651
0.32116
0.308669
0.296178
0.283686
0.271195
0.258704
0.246213
0.233722
0.221231
0.20874
0.196248
0.183757
0.171266
0.158775
0.146284
0.133793
0.121302
0.10881
0.0963194
0.0838282
0.0713371
0.058846
0.0463549
0.0338637
0.0213726
0.00888149
-0.00360963
-0.0161007
-0.0285919
-0.041083
-0.0535741
-0.0660652
-0.0785563
-0.0910474
-0.103539
-0.11603
-0.128521
-0.141011
-0.153501
-0.165986
-0.178463
-0.190902
-0.203363
0.203363
1.24089
1.24089
1.2071
1.16819
1.12972
1.09346
1.06029
1.03047
1.00377
0.979781
0.958063
0.93827
0.920137
0.903443
0.887966
0.873473
0.859727
0.846505
0.833622
0.82094
0.808364
0.795839
0.783337
0.770842
0.758351
0.745859
0.733368
0.720877
0.708386
0.695894
0.683403
0.670912
0.658421
0.64593
0.633438
0.620947
0.608456
0.595965
0.583474
0.570983
0.558492
0.546
0.533509
0.521018
0.508527
0.496036
0.483545
0.471054
0.458562
0.446071
0.43358
0.421089
0.408598
0.396107
0.383616
0.371124
0.358633
0.346142
0.333651
0.32116
0.308669
0.296178
0.283686
0.271195
0.258704
0.246213
0.233722
0.221231
0.20874
0.196248
0.183757
0.171266
0.158775
0.146284
0.133793
0.121302
0.10881
0.0963194
0.0838282
0.0713371
0.058846
0.0463549
0.0338637
0.0213726
0.00888149
-0.00360963
-0.0161007
-0.0285919
-0.041083
-0.0535741
-0.0660652
-0.0785563
-0.0910474
-0.103539
-0.11603
-0.128521
-0.141011
-0.153502
-0.165989
-0.178474
-0.190946
-0.20338
0.20338
1.25587
1.25587
1.20998
1.16796
1.12861
1.09213
1.05903
1.02939
1.00291
0.979111
0.957554
0.93789
0.919861
0.903248
0.887835
0.87339
0.859677
0.846477
0.833608
0.820933
0.808361
0.795839
0.783337
0.770843
0.758351
0.745859
0.733368
0.720877
0.708386
0.695894
0.683403
0.670912
0.658421
0.64593
0.633438
0.620947
0.608456
0.595965
0.583474
0.570983
0.558492
0.546
0.533509
0.521018
0.508527
0.496036
0.483545
0.471054
0.458562
0.446071
0.43358
0.421089
0.408598
0.396107
0.383616
0.371124
0.358633
0.346142
0.333651
0.32116
0.308669
0.296178
0.283686
0.271195
0.258704
0.246213
0.233722
0.221231
0.20874
0.196248
0.183757
0.171266
0.158775
0.146284
0.133793
0.121302
0.10881
0.0963194
0.0838282
0.0713371
0.058846
0.0463549
0.0338637
0.0213726
0.00888149
-0.00360963
-0.0161007
-0.0285919
-0.041083
-0.0535741
-0.0660652
-0.0785563
-0.0910474
-0.103539
-0.11603
-0.128521
-0.141012
-0.153503
-0.165992
-0.178482
-0.190974
-0.203391
0.203391
1.27681
1.27681
1.21197
1.16773
1.12791
1.09133
1.05828
1.02876
1.0024
0.978721
0.957267
0.937689
0.919729
0.90317
0.887794
0.873372
0.859672
0.846479
0.833611
0.820936
0.808363
0.79584
0.783337
0.770843
0.758351
0.745859
0.733368
0.720877
0.708386
0.695894
0.683403
0.670912
0.658421
0.64593
0.633438
0.620947
0.608456
0.595965
0.583474
0.570983
0.558492
0.546
0.533509
0.521018
0.508527
0.496036
0.483545
0.471054
0.458562
0.446071
0.43358
0.421089
0.408598
0.396107
0.383616
0.371124
0.358633
0.346142
0.333651
0.32116
0.308669
0.296178
0.283686
0.271195
0.258704
0.246213
0.233722
0.221231
0.20874
0.196248
0.183757
0.171266
0.158775
0.146284
0.133793
0.121302
0.10881
0.0963194
0.0838282
0.0713371
0.058846
0.0463549
0.0338637
0.0213726
0.00888149
-0.00360963
-0.0161007
-0.0285919
-0.041083
-0.0535741
-0.0660652
-0.0785563
-0.0910474
-0.103539
-0.11603
-0.128521
-0.141012
-0.153503
-0.165993
-0.178484
-0.190975
-0.203393
0.203393
1.27681
1.27681
1.21197
1.16773
1.12791
1.09133
1.05828
1.02876
1.0024
0.978721
0.957267
0.937689
0.919729
0.90317
0.887794
0.873372
0.859672
0.846479
0.833611
0.820936
0.808363
0.79584
0.783337
0.770843
0.758351
0.745859
0.733368
0.720877
0.708386
0.695894
0.683403
0.670912
0.658421
0.64593
0.633438
0.620947
0.608456
0.595965
0.583474
0.570983
0.558492
0.546
0.533509
0.521018
0.508527
0.496036
0.483545
0.471054
0.458562
0.446071
0.43358
0.421089
0.408598
0.396107
0.383616
0.371124
0.358633
0.346142
0.333651
0.32116
0.308669
0.296178
0.283686
0.271195
0.258704
0.246213
0.233722
0.221231
0.20874
0.196248
0.183757
0.171266
0.158775
0.146284
0.133793
0.121302
0.10881
0.0963194
0.0838282
0.0713371
0.058846
0.0463549
0.0338637
0.0213726
0.00888149
-0.00360963
-0.0161007
-0.0285919
-0.041083
-0.0535741
-0.0660652
-0.0785563
-0.0910474
-0.103539
-0.11603
-0.128521
-0.141012
-0.153503
-0.165993
-0.178484
-0.190975
-0.203393
0.203393
SCALARS phi double
LOOKUP_TABLE phi
1.00001
0.999985
1.00004
1.00016
0.999286
0.999959
1.00534
1.00206
0.963543
0.877426
0.756791
0.62538
0.501171
0.392164
0.299924
0.223607
0.161908
0.113468
0.0767703
0.050064
0.031441
0.0190097
0.0110664
0.00620512
0.00335307
0.00174732
0.000878721
0.000426787
0.000200349
9.09734e-05
3.99877e-05
1.70273e-05
7.02896e-06
2.81493e-06
1.0944e-06
4.13329e-07
1.51743e-07
5.41847e-08
1.88304e-08
6.37234e-09
2.10104e-09
6.75294e-10
2.11687e-10
6.4751e-11
1.93355e-11
5.63917e-12
1.60699e-12
4.47644e-13
1.2194e-13
3.24955e-14
8.47475e-15
2.16378e-15
5.41043e-16
1.32535e-16
3.18164e-17
7.48734e-18
1.7278e-18
3.91087e-19
8.68548e-20
1.89309e-20
4.05063e-21
8.51058e-22
1.75626e-22
3.56054e-23
7.09321e-24
1.38889e-24
2.67353e-25
5.06043e-26
9.42034e-27
1.72508e-27
3.10812e-28
5.51083e-29
9.61716e-30
1.6522e-30
2.79476e-31
4.65544e-32
7.63811e-33
1.23449e-33
1.96579e-34
3.08459e-35
4.77017e-36
7.27124e-37
1.09265e-37
1.61888e-38
2.36518e-39
3.40789e-40
4.84324e-41
6.78999e-42
9.39152e-43
1.28171e-43
1.72615e-44
2.2943e-45
3.00993e-46
3.89799e-47
4.98369e-48
6.29114e-49
7.84199e-50
9.6534e-51
1.17379e-51
1.4098e-52
1.67423e-53
1.9067e-54
1.9067e-54
1.00001
0.999985
1.00004
1.00016
0.999286
0.999959
1.00534
1.00206
0.963543
0.877426
0.756791
0.62538
0.501171
0.392164
0.299924
0.223607
0.161908
0.113468
0.0767703
0.050064
0.031441
0.0190097
0.0110664
0.00620512
0.00335307
0.00174732
0.000878721
0.000426787
0.000200349
9.09734e-05
3.99877e-05
1.70273e-05
7.02896e-06
2.81493e-06
1.0944e-06
4.13329e-07
1.51743e-07
5.41847e-08
1.88304e-08
6.37234e-09
2.10104e-09
6.75294e-10
2.11687e-10
6.4751e-11
1.93355e-11
5.63917e-12
1.60699e-12
4.47644e-13
1.2194e-13
3.24955e-14
8.47475e-15
2.16378e-15
5.41043e-16
1.32535e-16
3.18164e-17
7.48734e-18
1.7278e-18
3.91087e-19
8.68548e-20
1.89309e-20
4.05063e-21
8.51058e-22
1.75626e-22
3.56054e-23
7.09321e-24
1.38889e-24
2.67353e-25
5.06043e-26
9.42034e-27
1.72508e-27
3.10812e-28
5.51083e-29
9.61716e-30
1.6522e-30
2.79476e-31
4.65544e-32
7.63811e-33
1.23449e-33
1.96579e-34
3.08459e-35
4.77017e-36
7.27124e-37
1.09265e-37
1.61888e-38
2.36518e-39
3.40789e-40
4.84324e-41
6.78999e-42
9.39152e-43
1.28171e-43
1.72615e-44
2.2943e-45
3.00993e-46
3.89799e-47
4.98369e-48
6.29114e-49
7.84199e-50
9.6534e-51
1.17379e-51
1.4098e-52
1.67423e-53
1.9067e-54
1.9067e-54
1.00001
0.999993
1
1.00011
0.999846
0.999535
1.00076
1.00226
0.997345
0.97789
0.939761
0.883798
0.813224
0.73124
0.6406
0.54444
0.446921
0.353014
0.267571
0.194282
0.135031
0.0898245
0.0572116
0.0349148
0.0204346
0.0114815
0.00619986
0.00322099
0.00161174
0.00077761
0.000362105
0.000162908
7.08756e-05
2.98462e-05
1.21758e-05
4.81583e-06
1.84822e-06
6.88763e-07
2.49416e-07
8.78237e-08
3.00892e-08
1.00367e-08
3.26138e-09
1.03297e-09
3.1907e-10
9.61647e-11
2.82937e-11
8.13041e-12
2.28286e-12
6.26584e-13
1.68186e-13
4.41661e-14
1.13511e-14
2.85628e-15
7.0393e-16
1.6997e-16
4.02229e-17
9.33191e-18
2.12322e-18
4.7389e-19
1.03786e-19
2.23102e-20
4.70851e-21
9.75868e-22
1.98671e-22
3.97393e-23
7.81173e-24
1.50944e-24
2.8676e-25
5.35735e-26
9.84462e-27
1.77972e-27
3.16588e-28
5.54251e-29
9.55143e-30
1.62053e-30
2.70737e-31
4.45465e-32
7.2198e-33
1.15279e-33
1.81368e-34
2.812e-35
4.29716e-36
6.47323e-37
9.61377e-38
1.40786e-38
2.03316e-39
2.89596e-40
4.06885e-41
5.6398e-42
7.71296e-43
1.04087e-43
1.38622e-44
1.82215e-45
2.36427e-46
3.02843e-47
3.82994e-48
4.78258e-49
5.89803e-50
7.1834e-51
8.64904e-52
9.96704e-53
9.96704e-53
0.999998
1
0.999973
0.99994
0.999744
0.999297
0.998946
0.99886
0.99813
0.994852
0.986965
0.972696
0.950122
0.916488
0.868314
0.802677
0.71904
0.620471
0.513432
0.406211
0.306788
0.221057
0.151997
0.0997992
0.062633
0.037615
0.0216438
0.0119473
0.0063346
0.00323009
0.0015859
0.000750588
0.000342823
0.000151264
6.45403e-05
2.66542e-05
1.06642e-05
4.13703e-06
1.55739e-06
5.6936e-07
2.02289e-07
6.98963e-08
2.35027e-08
7.69541e-09
2.45503e-09
7.63554e-10
2.3164e-10
6.85808e-11
1.98254e-11
5.59855e-12
1.54511e-12
4.16929e-13
1.10043e-13
2.84207e-14
7.18526e-15
1.77888e-15