# vtk DataFile Version 3.0
FlowField
ASCII
DATASET STRUCTURED_GRID
DIMENSIONS 103 13 1 
POINTS 1339 double
0 0 0
0.3 0 0
0.6 0 0
0.9 0 0
1.2 0 0
1.5 0 0
1.8 0 0
2.1 0 0
2.4 0 0
2.7 0 0
3 0 0
3.3 0 0
3.6 0 0
3.9 0 0
4.2 0 0
4.5 0 0
4.8 0 0
5.1 0 0
5.4 0 0
5.7 0 0
6 0 0
6.3 0 0
6.6 0 0
6.9 0 0
7.2 0 0
7.5 0 0
7.8 0 0
8.1 0 0
8.4 0 0
8.7 0 0
9 0 0
9.3 0 0
9.6 0 0
9.9 0 0
10.2 0 0
10.5 0 0
10.8 0 0
11.1 0 0
11.4 0 0
11.7 0 0
12 0 0
12.3 0 0
12.6 0 0
12.9 0 0
13.2 0 0
13.5 0 0
13.8 0 0
14.1 0 0
14.4 0 0
14.7 0 0
15 0 0
15.3 0 0
15.6 0 0
15.9 0 0
16.2 0 0
16.5 0 0
16.8 0 0
17.1 0 0
17.4 0 0
17.7 0 0
18 0 0
18.3 0 0
18.6 0 0
18.9 0 0
19.2 0 0
19.5 0 0
19.8 0 0
20.1 0 0
20.4 0 0
20.7 0 0
21 0 0
21.3 0 0
21.6 0 0
21.9 0 0
22.2 0 0
22.5 0 0
22.8 0 0
23.1 0 0
23.4 0 0
23.7 0 0
24 0 0
24.3 0 0
24.6 0 0
24.9 0 0
25.2 0 0
25.5 0 0
25.8 0 0
26.1 0 0
26.4 0 0
26.7 0 0
27 0 0
27.3 0 0
27.6 0 0
27.9 0 0
28.2 0 0
28.5 0 0
28.8 0 0
29.1 0 0
29.4 0 0
29.7 0 0
30 0 0
30.3 0 0
30.6 0 0
0 0.1 0
0.3 0.1 0
0.6 0.1 0
0.9 0.1 0
1.2 0.1 0
1.5 0.1 0
1.8 0.1 0
2.1 0.1 0
2.4 0.1 0
2.7 0.1 0
3 0.1 0
3.3 0.1 0
3.6 0.1 0
3.9 0.1 0
4.2 0.1 0
4.5 0.1 0
4.8 0.1 0
5.1 0.1 0
5.4 0.1 0
5.7 0.1 0
6 0.1 0
6.3 0.1 0
6.6 0.1 0
6.9 0.1 0
7.2 0.1 0
7.5 0.1 0
7.8 0.1 0
8.1 0.1 0
8.4 0.1 0
8.7 0.1 0
9 0.1 0
9.3 0.1 0
9.6 0.1 0
9.9 0.1 0
10.2 0.1 0
10.5 0.1 0
10.8 0.1 0
11.1 0.1 0
11.4 0.1 0
11.7 0.1 0
12 0.1 0
12.3 0.1 0
12.6 0.1 0
12.9 0.1 0
13.2 0.1 0
13.5 0.1 0
13.8 0.1 0
14.1 0.1 0
14.4 0.1 0
14.7 0.1 0
15 0.1 0
15.3 0.1 0
15.6 0.1 0
15.9 0.1 0
16.2 0.1 0
16.5 0.1 0
16.8 0.1 0
17.1 0.1 0
17.4 0.1 0
17.7 0.1 0
18 0.1 0
18.3 0.1 0
18.6 0.1 0
18.9 0.1 0
19.2 0.1 0
19.5 0.1 0
19.8 0.1 0
20.1 0.1 0
20.4 0.1 0
20.7 0.1 0
21 0.1 0
21.3 0.1 0
21.6 0.1 0
21.9 0.1 0
22.2 0.1 0
22.5 0.1 0
22.8 0.1 0
23.1 0.1 0
23.4 0.1 0
23.7 0.1 0
24 0.1 0
24.3 0.1 0
24.6 0.1 0
24.9 0.1 0
25.2 0.1 0
25.5 0.1 0
25.8 0.1 0
26.1 0.1 0
26.4 0.1 0
26.7 0.1 0
27 0.1 0
27.3 0.1 0
27.6 0.1 0
27.9 0.1 0
28.2 0.1 0
28.5 0.1 0
28.8 0.1 0
29.1 0.1 0
29.4 0.1 0
29.7 0.1 0
30 0.1 0
30.3 0.1 0
30.6 0.1 0
0 0.2 0
0.3 0.2 0
0.6 0.2 0
0.9 0.2 0
1.2 0.2 0
1.5 0.2 0
1.8 0.2 0
2.1 0.2 0
2.4 0.2 0
2.7 0.2 0
3 0.2 0
3.3 0.2 0
3.6 0.2 0
3.9 0.2 0
4.2 0.2 0
4.5 0.2 0
4.8 0.2 0
5.1 0.2 0
5.4 0.2 0
5.7 0.2 0
6 0.2 0
6.3 0.2 0
6.6 0.2 0
6.9 0.2 0
7.2 0.2 0
7.5 0.2 0
7.8 0.2 0
8.1 0.2 0
8.4 0.2 0
8.7 0.2 0
9 0.2 0
9.3 0.2 0
9.6 0.2 0
9.9 0.2 0
10.2 0.2 0
10.5 0.2 0
10.8 0.2 0
11.1 0.2 0
11.4 0.2 0
11.7 0.2 0
12 0.2 0
12.3 0.2 0
12.6 0.2 0
12.9 0.2 0
13.2 0.2 0
13.5 0.2 0
13.8 0.2 0
14.1 0.2 0
14.4 0.2 0
14.7 0.2 0
15 0.2 0
15.3 0.2 0
15.6 0.2 0
15.9 0.2 0
16.2 0.2 0
16.5 0.2 0
16.8 0.2 0
17.1 0.2 0
17.4 0.2 0
17.7 0.2 0
18 0.2 0
18.3 0.2 0
18.6 0.2 0
18.9 0.2 0
19.2 0.2 0
19.5 0.2 0
19.8 0.2 0
20.1 0.2 0
20.4 0.2 0
20.7 0.2 0
21 0.2 0
21.3 0.2 0
21.6 0.2 0
21.9 0.2 0
22.2 0.2 0
22.5 0.2 0
22.8 0.2 0
23.1 0.2 0
23.4 0.2 0
23.7 0.2 0
24 0.2 0
24.3 0.2 0
24.6 0.2 0
24.9 0.2 0
25.2 0.2 0
25.5 0.2 0
25.8 0.2 0
26.1 0.2 0
26.4 0.2 0
26.7 0.2 0
27 0.2 0
27.3 0.2 0
27.6 0.2 0
27.9 0.2 0
28.2 0.2 0
28.5 0.2 0
28.8 0.2 0
29.1 0.2 0
29.4 0.2 0
29.7 0.2 0
30 0.2 0
30.3 0.2 0
30.6 0.2 0
0 0.3 0
0.3 0.3 0
0.6 0.3 0
0.9 0.3 0
1.2 0.3 0
1.5 0.3 0
1.8 0.3 0
2.1 0.3 0
2.4 0.3 0
2.7 0.3 0
3 0.3 0
3.3 0.3 0
3.6 0.3 0
3.9 0.3 0
4.2 0.3 0
4.5 0.3 0
4.8 0.3 0
5.1 0.3 0
5.4 0.3 0
5.7 0.3 0
6 0.3 0
6.3 0.3 0
6.6 0.3 0
6.9 0.3 0
7.2 0.3 0
7.5 0.3 0
7.8 0.3 0
8.1 0.3 0
8.4 0.3 0
8.7 0.3 0
9 0.3 0
9.3 0.3 0
9.6 0.3 0
9.9 0.3 0
10.2 0.3 0
10.5 0.3 0
10.8 0.3 0
11.1 0.3 0
11.4 0.3 0
11.7 0.3 0
12 0.3 0
12.3 0.3 0
12.6 0.3 0
12.9 0.3 0
13.2 0.3 0
13.5 0.3 0
13.8 0.3 0
14.1 0.3 0
14.4 0.3 0
14.7 0.3 0
15 0.3 0
15.3 0.3 0
15.6 0.3 0
15.9 0.3 0
16.2 0.3 0
16.5 0.3 0
16.8 0.3 0
17.1 0.3 0
17.4 0.3 0
17.7 0.3 0
18 0.3 0
18.3 0.3 0
18.6 0.3 0
18.9 0.3 0
19.2 0.3 0
19.5 0.3 0
19.8 0.3 0
20.1 0.3 0
20.4 0.3 0
20.7 0.3 0
21 0.3 0
21.3 0.3 0
21.6 0.3 0
21.9 0.3 0
22.2 0.3 0
22.5 0.3 0
22.8 0.3 0
23.1 0.3 0
23.4 0.3 0
23.7 0.3 0
24 0.3 0
24.3 0.3 0
24.6 0.3 0
24.9 0.3 0
25.2 0.3 0
25.5 0.3 0
25.8 0.3 0
26.1 0.3 0
26.4 0.3 0
26.7 0.3 0
27 0.3 0
27.3 0.3 0
27.6 0.3 0
27.9 0.3 0
28.2 0.3 0
28.5 0.3 0
28.8 0.3 0
29.1 0.3 0
29.4 0.3 0
29.7 0.3 0
30 0.3 0
30.3 0.3 0
30.6 0.3 0
0 0.4 0
0.3 0.4 0
0.6 0.4 0
0.9 0.4 0
1.2 0.4 0
1.5 0.4 0
1.8 0.4 0
2.1 0.4 0
2.4 0.4 0
2.7 0.4 0
3 0.4 0
3.3 0.4 0
3.6 0.4 0
3.9 0.4 0
4.2 0.4 0
4.5 0.4 0
4.8 0.4 0
5.1 0.4 0
5.4 0.4 0
5.7 0.4 0
6 0.4 0
6.3 0.4 0
6.6 0.4 0
6.9 0.4 0
7.2 0.4 0
7.5 0.4 0
7.8 0.4 0
8.1 0.4 0
8.4 0.4 0
8.7 0.4 0
9 0.4 0
9.3 0.4 0
9.6 0.4 0
9.9 0.4 0
10.2 0.4 0
10.5 0.4 0
10.8 0.4 0
11.1 0.4 0
11.4 0.4 0
11.7 0.4 0
12 0.4 0
12.3 0.4 0
12.6 0.4 0
12.9 0.4 0
13.2 0.4 0
13.5 0.4 0
13.8 0.4 0
14.1 0.4 0
14.4 0.4 0
14.7 0.4 0
15 0.4 0
15.3 0.4 0
15.6 0.4 0
15.9 0.4 0
16.2 0.4 0
16.5 0.4 0
16.8 0.4 0
17.1 0.4 0
17.4 0.4 0
17.7 0.4 0
18 0.4 0
18.3 0.4 0
18.6 0.4 0
18.9 0.4 0
19.2 0.4 0
19.5 0.4 0
19.8 0.4 0
20.1 0.4 0
20.4 0.4 0
20.7 0.4 0
21 0.4 0
21.3 0.4 0
21.6 0.4 0
21.9 0.4 0
22.2 0.4 0
22.5 0.4 0
22.8 0.4 0
23.1 0.4 0
23.4 0.4 0
23.7 0.4 0
24 0.4 0
24.3 0.4 0
24.6 0.4 0
24.9 0.4 0
25.2 0.4 0
25.5 0.4 0
25.8 0.4 0
26.1 0.4 0
26.4 0.4 0
26.7 0.4 0
27 0.4 0
27.3 0.4 0
27.6 0.4 0
27.9 0.4 0
28.2 0.4 0
28.5 0.4 0
28.8 0.4 0
29.1 0.4 0
29.4 0.4 0
29.7 0.4 0
30 0.4 0
30.3 0.4 0
30.6 0.4 0
0 0.5 0
0.3 0.5 0
0.6 0.5 0
0.9 0.5 0
1.2 0.5 0
1.5 0.5 0
1.8 0.5 0
2.1 0.5 0
2.4 0.5 0
2.7 0.5 0
3 0.5 0
3.3 0.5 0
3.6 0.5 0
3.9 0.5 0
4.2 0.5 0
4.5 0.5 0
4.8 0.5 0
5.1 0.5 0
5.4 0.5 0
5.7 0.5 0
6 0.5 0
6.3 0.5 0
6.6 0.5 0
6.9 0.5 0
7.2 0.5 0
7.5 0.5 0
7.8 0.5 0
8.1 0.5 0
8.4 0.5 0
8.7 0.5 0
9 0.5 0
9.3 0.5 0
9.6 0.5 0
9.9 0.5 0
10.2 0.5 0
10.5 0.5 0
10.8 0.5 0
11.1 0.5 0
11.4 0.5 0
11.7 0.5 0
12 0.5 0
12.3 0.5 0
12.6 0.5 0
12.9 0.5 0
13.2 0.5 0
13.5 0.5 0
13.8 0.5 0
14.1 0.5 0
14.4 0.5 0
14.7 0.5 0
15 0.5 0
15.3 0.5 0
15.6 0.5 0
15.9 0.5 0
16.2 0.5 0
16.5 0.5 0
16.8 0.5 0
17.1 0.5 0
17.4 0.5 0
17.7 0.5 0
18 0.5 0
18.3 0.5 0
18.6 0.5 0
18.9 0.5 0
19.2 0.5 0
19.5 0.5 0
19.8 0.5 0
20.1 0.5 0
20.4 0.5 0
20.7 0.5 0
21 0.5 0
21.3 0.5 0
21.6 0.5 0
21.9 0.5 0
22.2 0.5 0
22.5 0.5 0
22.8 0.5 0
23.1 0.5 0
23.4 0.5 0
23.7 0.5 0
24 0.5 0
24.3 0.5 0
24.6 0.5 0
24.9 0.5 0
25.2 0.5 0
25.5 0.5 0
25.8 0.5 0
26.1 0.5 0
26.4 0.5 0
26.7 0.5 0
27 0.5 0
27.3 0.5 0
27.6 0.5 0
27.9 0.5 0
28.2 0.5 0
28.5 0.5 0
28.8 0.5 0
29.1 0.5 0
29.4 0.5 0
29.7 0.5 0
30 0.5 0
30.3 0.5 0
30.6 0.5 0
0 0.6 0
0.3 0.6 0
0.6 0.6 0
0.9 0.6 0
1.2 0.6 0
1.5 0.6 0
1.8 0.6 0
2.1 0.6 0
2.4 0.6 0
2.7 0.6 0
3 0.6 0
3.3 0.6 0
3.6 0.6 0
3.9 0.6 0
4.2 0.6 0
4.5 0.6 0
4.8 0.6 0
5.1 0.6 0
5.4 0.6 0
5.7 0.6 0
6 0.6 0
6.3 0.6 0
6.6 0.6 0
6.9 0.6 0
7.2 0.6 0
7.5 0.6 0
7.8 0.6 0
8.1 0.6 0
8.4 0.6 0
8.7 0.6 0
9 0.6 0
9.3 0.6 0
9.6 0.6 0
9.9 0.6 0
10.2 0.6 0
10.5 0.6 0
10.8 0.6 0
11.1 0.6 0
11.4 0.6 0
11.7 0.6 0
12 0.6 0
12.3 0.6 0
12.6 0.6 0
12.9 0.6 0
13.2 0.6 0
13.5 0.6 0
13.8 0.6 0
14.1 0.6 0
14.4 0.6 0
14.7 0.6 0
15 0.6 0
15.3 0.6 0
15.6 0.6 0
15.9 0.6 0
16.2 0.6 0
16.5 0.6 0
16.8 0.6 0
17.1 0.6 0
17.4 0.6 0
17.7 0.6 0
18 0.6 0
18.3 0.6 0
18.6 0.6 0
18.9 0.6 0
19.2 0.6 0
19.5 0.6 0
19.8 0.6 0
20.1 0.6 0
20.4 0.6 0
20.7 0.6 0
21 0.6 0
21.3 0.6 0
21.6 0.6 0
21.9 0.6 0
22.2 0.6 0
22.5 0.6 0
22.8 0.6 0
23.1 0.6 0
23.4 0.6 0
23.7 0.6 0
24 0.6 0
24.3 0.6 0
24.6 0.6 0
24.9 0.6 0
25.2 0.6 0
25.5 0.6 0
25.8 0.6 0
26.1 0.6 0
26.4 0.6 0
26.7 0.6 0
27 0.6 0
27.3 0.6 0
27.6 0.6 0
27.9 0.6 0
28.2 0.6 0
28.5 0.6 0
28.8 0.6 0
29.1 0.6 0
29.4 0.6 0
29.7 0.6 0
30 0.6 0
30.3 0.6 0
30.6 0.6 0
0 0.7 0
0.3 0.7 0
0.6 0.7 0
0.9 0.7 0
1.2 0.7 0
1.5 0.7 0
1.8 0.7 0
2.1 0.7 0
2.4 0.7 0
2.7 0.7 0
3 0.7 0
3.3 0.7 0
3.6 0.7 0
3.9 0.7 0
4.2 0.7 0
4.5 0.7 0
4.8 0.7 0
5.1 0.7 0
5.4 0.7 0
5.7 0.7 0
6 0.7 0
6.3 0.7 0
6.6 0.7 0
6.9 0.7 0
7.2 0.7 0
7.5 0.7 0
7.8 0.7 0
8.1 0.7 0
8.4 0.7 0
8.7 0.7 0
9 0.7 0
9.3 0.7 0
9.6 0.7 0
9.9 0.7 0
10.2 0.7 0
10.5 0.7 0
10.8 0.7 0
11.1 0.7 0
11.4 0.7 0
11.7 0.7 0
12 0.7 0
12.3 0.7 0
12.6 0.7 0
12.9 0.7 0
13.2 0.7 0
13.5 0.7 0
13.8 0.7 0
14.1 0.7 0
14.4 0.7 0
14.7 0.7 0
15 0.7 0
15.3 0.7 0
15.6 0.7 0
15.9 0.7 0
16.2 0.7 0
16.5 0.7 0
16.8 0.7 0
17.1 0.7 0
17.4 0.7 0
17.7 0.7 0
18 0.7 0
18.3 0.7 0
18.6 0.7 0
18.9 0.7 0
19.2 0.7 0
19.5 0.7 0
19.8 0.7 0
20.1 0.7 0
20.4 0.7 0
20.7 0.7 0
21 0.7 0
21.3 0.7 0
21.6 0.7 0
21.9 0.7 0
22.2 0.7 0
22.5 0.7 0
22.8 0.7 0
23.1 0.7 0
23.4 0.7 0
23.7 0.7 0
24 0.7 0
24.3 0.7 0
24.6 0.7 0
24.9 0.7 0
25.2 0.7 0
25.5 0.7 0
25.8 0.7 0
26.1 0.7 0
26.4 0.7 0
26.7 0.7 0
27 0.7 0
27.3 0.7 0
27.6 0.7 0
27.9 0.7 0
28.2 0.7 0
28.5 0.7 0
28.8 0.7 0
29.1 0.7 0
29.4 0.7 0
29.7 0.7 0
30 0.7 0
30.3 0.7 0
30.6 0.7 0
0 0.8 0
0.3 0.8 0
0.6 0.8 0
0.9 0.8 0
1.2 0.8 0
1.5 0.8 0
1.8 0.8 0
2.1 0.8 0
2.4 0.8 0
2.7 0.8 0
3 0.8 0
3.3 0.8 0
3.6 0.8 0
3.9 0.8 0
4.2 0.8 0
4.5 0.8 0
4.8 0.8 0
5.1 0.8 0
5.4 0.8 0
5.7 0.8 0
6 0.8 0
6.3 0.8 0
6.6 0.8 0
6.9 0.8 0
7.2 0.8 0
7.5 0.8 0
7.8 0.8 0
8.1 0.8 0
8.4 0.8 0
8.7 0.8 0
9 0.8 0
9.3 0.8 0
9.6 0.8 0
9.9 0.8 0
10.2 0.8 0
10.5 0.8 0
10.8 0.8 0
11.1 0.8 0
11.4 0.8 0
11.7 0.8 0
12 0.8 0
12.3 0.8 0
12.6 0.8 0
12.9 0.8 0
13.2 0.8 0
13.5 0.8 0
13.8 0.8 0
14.1 0.8 0
14.4 0.8 0
14.7 0.8 0
15 0.8 0
15.3 0.8 0
15.6 0.8 0
15.9 0.8 0
16.2 0.8 0
16.5 0.8 0
16.8 0.8 0
17.1 0.8 0
17.4 0.8 0
17.7 0.8 0
18 0.8 0
18.3 0.8 0
18.6 0.8 0
18.9 0.8 0
19.2 0.8 0
19.5 0.8 0
19.8 0.8 0
20.1 0.8 0
20.4 0.8 0
20.7 0.8 0
21 0.8 0
21.3 0.8 0
21.6 0.8 0
21.9 0.8 0
22.2 0.8 0
22.5 0.8 0
22.8 0.8 0
23.1 0.8 0
23.4 0.8 0
23.7 0.8 0
24 0.8 0
24.3 0.8 0
24.6 0.8 0
24.9 0.8 0
25.2 0.8 0
25.5 0.8 0
25.8 0.8 0
26.1 0.8 0
26.4 0.8 0
26.7 0.8 0
27 0.8 0
27.3 0.8 0
27.6 0.8 0
27.9 0.8 0
28.2 0.8 0
28.5 0.8 0
28.8 0.8 0
29.1 0.8 0
29.4 0.8 0
29.7 0.8 0
30 0.8 0
30.3 0.8 0
30.6 0.8 0
0 0.9 0
0.3 0.9 0
0.6 0.9 0
0.9 0.9 0
1.2 0.9 0
1.5 0.9 0
1.8 0.9 0
2.1 0.9 0
2.4 0.9 0
2.7 0.9 0
3 0.9 0
3.3 0.9 0
3.6 0.9 0
3.9 0.9 0
4.2 0.9 0
4.5 0.9 0
4.8 0.9 0
5.1 0.9 0
5.4 0.9 0
5.7 0.9 0
6 0.9 0
6.3 0.9 0
6.6 0.9 0
6.9 0.9 0
7.2 0.9 0
7.5 0.9 0
7.8 0.9 0
8.1 0.9 0
8.4 0.9 0
8.7 0.9 0
9 0.9 0
9.3 0.9 0
9.6 0.9 0
9.9 0.9 0
10.2 0.9 0
10.5 0.9 0
10.8 0.9 0
11.1 0.9 0
11.4 0.9 0
11.7 0.9 0
12 0.9 0
12.3 0.9 0
12.6 0.9 0
12.9 0.9 0
13.2 0.9 0
13.5 0.9 0
13.8 0.9 0
14.1 0.9 0
14.4 0.9 0
14.7 0.9 0
15 0.9 0
15.3 0.9 0
15.6 0.9 0
15.9 0.9 0
16.2 0.9 0
16.5 0.9 0
16.8 0.9 0
17.1 0.9 0
17.4 0.9 0
17.7 0.9 0
18 0.9 0
18.3 0.9 0
18.6 0.9 0
18.9 0.9 0
19.2 0.9 0
19.5 0.9 0
19.8 0.9 0
20.1 0.9 0
20.4 0.9 0
20.7 0.9 0
21 0.9 0
21.3 0.9 0
21.6 0.9 0
21.9 0.9 0
22.2 0.9 0
22.5 0.9 0
22.8 0.9 0
23.1 0.9 0
23.4 0.9 0
23.7 0.9 0
24 0.9 0
24.3 0.9 0
24.6 0.9 0
24.9 0.9 0
25.2 0.9 0
25.5 0.9 0
25.8 0.9 0
26.1 0.9 0
26.4 0.9 0
26.7 0.9 0
27 0.9 0
27.3 0.9 0
27.6 0.9 0
27.9 0.9 0
28.2 0.9 0
28.5 0.9 0
28.8 0.9 0
29.1 0.9 0
29.4 0.9 0
29.7 0.9 0
30 0.9 0
30.3 0.9 0
30.6 0.9 0
0 1 0
0.3 1 0
0.6 1 0
0.9 1 0
1.2 1 0
1.5 1 0
1.8 1 0
2.1 1 0
2.4 1 0
2.7 1 0
3 1 0
3.3 1 0
3.6 1 0
3.9 1 0
4.2 1 0
4.5 1 0
4.8 1 0
5.1 1 0
5.4 1 0
5.7 1 0
6 1 0
6.3 1 0
6.6 1 0
6.9 1 0
7.2 1 0
7.5 1 0
7.8 1 0
8.1 1 0
8.4 1 0
8.7 1 0
9 1 0
9.3 1 0
9.6 1 0
9.9 1 0
10.2 1 0
10.5 1 0
10.8 1 0
11.1 1 0
11.4 1 0
11.7 1 0
12 1 0
12.3 1 0
12.6 1 0
12.9 1 0
13.2 1 0
13.5 1 0
13.8 1 0
14.1 1 0
14.4 1 0
14.7 1 0
15 1 0
15.3 1 0
15.6 1 0
15.9 1 0
16.2 1 0
16.5 1 0
16.8 1 0
17.1 1 0
17.4 1 0
17.7 1 0
18 1 0
18.3 1 0
18.6 1 0
18.9 1 0
19.2 1 0
19.5 1 0
19.8 1 0
20.1 1 0
20.4 1 0
20.7 1 0
21 1 0
21.3 1 0
21.6 1 0
21.9 1 0
22.2 1 0
22.5 1 0
22.8 1 0
23.1 1 0
23.4 1 0
23.7 1 0
24 1 0
24.3 1 0
24.6 1 0
24.9 1 0
25.2 1 0
25.5 1 0
25.8 1 0
26.1 1 0
26.4 1 0
26.7 1 0
27 1 0
27.3 1 0
27.6 1 0
27.9 1 0
28.2 1 0
28.5 1 0
28.8 1 0
29.1 1 0
29.4 1 0
29.7 1 0
30 1 0
30.3 1 0
30.6 1 0
0 1.1 0
0.3 1.1 0
0.6 1.1 0
0.9 1.1 0
1.2 1.1 0
1.5 1.1 0
1.8 1.1 0
2.1 1.1 0
2.4 1.1 0
2.7 1.1 0
3 1.1 0
3.3 1.1 0
3.6 1.1 0
3.9 1.1 0
4.2 1.1 0
4.5 1.1 0
4.8 1.1 0
5.1 1.1 0
5.4 1.1 0
5.7 1.1 0
6 1.1 0
6.3 1.1 0
6.6 1.1 0
6.9 1.1 0
7.2 1.1 0
7.5 1.1 0
7.8 1.1 0
8.1 1.1 0
8.4 1.1 0
8.7 1.1 0
9 1.1 0
9.3 1.1 0
9.6 1.1 0
9.9 1.1 0
10.2 1.1 0
10.5 1.1 0
10.8 1.1 0
11.1 1.1 0
11.4 1.1 0
11.7 1.1 0
12 1.1 0
12.3 1.1 0
12.6 1.1 0
12.9 1.1 0
13.2 1.1 0
13.5 1.1 0
13.8 1.1 0
14.1 1.1 0
14.4 1.1 0
14.7 1.1 0
15 1.1 0
15.3 1.1 0
15.6 1.1 0
15.9 1.1 0
16.2 1.1 0
16.5 1.1 0
16.8 1.1 0
17.1 1.1 0
17.4 1.1 0
17.7 1.1 0
18 1.1 0
18.3 1.1 0
18.6 1.1 0
18.9 1.1 0
19.2 1.1 0
19.5 1.1 0
19.8 1.1 0
20.1 1.1 0
20.4 1.1 0
20.7 1.1 0
21 1.1 0
21.3 1.1 0
21.6 1.1 0
21.9 1.1 0
22.2 1.1 0
22.5 1.1 0
22.8 1.1 0
23.1 1.1 0
23.4 1.1 0
23.7 1.1 0
24 1.1 0
24.3 1.1 0
24.6 1.1 0
24.9 1.1 0
25.2 1.1 0
25.5 1.1 0
25.8 1.1 0
26.1 1.1 0
26.4 1.1 0
26.7 1.1 0
27 1.1 0
27.3 1.1 0
27.6 1.1 0
27.9 1.1 0
28.2 1.1 0
28.5 1.1 0
28.8 1.1 0
29.1 1.1 0
29.4 1.1 0
29.7 1.1 0
30 1.1 0
30.3 1.1 0
30.6 1.1 0
0 1.2 0
0.3 1.2 0
0.6 1.2 0
0.9 1.2 0
1.2 1.2 0
1.5 1.2 0
1.8 1.2 0
2.1 1.2 0
2.4 1.2 0
2.7 1.2 0
3 1.2 0
3.3 1.2 0
3.6 1.2 0
3.9 1.2 0
4.2 1.2 0
4.5 1.2 0
4.8 1.2 0
5.1 1.2 0
5.4 1.2 0
5.7 1.2 0
6 1.2 0
6.3 1.2 0
6.6 1.2 0
6.9 1.2 0
7.2 1.2 0
7.5 1.2 0
7.8 1.2 0
8.1 1.2 0
8.4 1.2 0
8.7 1.2 0
9 1.2 0
9.3 1.2 0
9.6 1.2 0
9.9 1.2 0
10.2 1.2 0
10.5 1.2 0
10.8 1.2 0
11.1 1.2 0
11.4 1.2 0
11.7 1.2 0
12 1.2 0
12.3 1.2 0
12.6 1.2 0
12.9 1.2 0
13.2 1.2 0
13.5 1.2 0
13.8 1.2 0
14.1 1.2 0
14.4 1.2 0
14.7 1.2 0
15 1.2 0
15.3 1.2 0
15.6 1.2 0
15.9 1.2 0
16.2 1.2 0
16.5 1.2 0
16.8 1.2 0
17.1 1.2 0
17.4 1.2 0
17.7 1.2 0
18 1.2 0
18.3 1.2 0
18.6 1.2 0
18.9 1.2 0
19.2 1.2 0
19.5 1.2 0
19.8 1.2 0
20.1 1.2 0
20.4 1.2 0
20.7 1.2 0
21 1.2 0
21.3 1.2 0
21.6 1.2 0
21.9 1.2 0
22.2 1.2 0
22.5 1.2 0
22.8 1.2 0
23.1 1.2 0
23.4 1.2 0
23.7 1.2 0
24 1.2 0
24.3 1.2 0
24.6 1.2 0
24.9 1.2 0
25.2 1.2 0
25.5 1.2 0
25.8 1.2 0
26.1 1.2 0
26.4 1.2 0
26.7 1.2 0
27 1.2 0
27.3 1.2 0
27.6 1.2 0
27.9 1.2 0
28.2 1.2 0
28.5 1.2 0
28.8 1.2 0
29.1 1.2 0
29.4 1.2 0
29.7 1.2 0
30 1.2 0
30.3 1.2 0
30.6 1.2 0

POINT_DATA 1339

SCALARS pressure double
LOOKUP_TABLE pressure
1.17175
1.17175
1.10691
1.06268
1.02285
0.986274
0.953222
0.923696
0.89734
0.873629
0.852027
0.832065
0.813373
0.795672
0.778765
0.762506
0.746788
0.731532
0.716679
0.702185
0.68801
0.674125
0.660505
0.647126
0.63397
0.62102
0.608261
0.595678
0.58326
0.570996
0.558875
0.546889
0.535028
0.523284
0.511651
0.500122
0.488691
0.477351
0.466098
0.454926
0.443831
0.432808
0.421854
0.410964
0.400135
0.389363
0.378646
0.367981
0.357364
0.346792
0.336265
0.325778
0.31533
0.304919
0.294543
0.2842
0.273887
0.263605
0.25335
0.243122
0.232919
0.22274
0.212583
0.202447
0.192331
0.182235
0.172156
0.162095
0.15205
0.14202
0.132004
0.122003
0.112014
0.102038
0.0920732
0.0821196
0.0721765
0.0622434
0.0523196
0.0424047
0.0324982
0.0225997
0.0127088
0.00282501
-0.007052
-0.0169226
-0.0267871
-0.0366459
-0.0464992
-0.0563474
-0.0661906
-0.0760293
-0.0858635
-0.0956937
-0.10552
-0.115342
-0.125161
-0.134977
-0.144789
-0.154599
-0.164406
-0.174211
0.174211
1.17175
1.17175
1.10691
1.06268
1.02285
0.986274
0.953222
0.923696
0.89734
0.873629
0.852027
0.832065
0.813373
0.795672
0.778765
0.762506
0.746788
0.731532
0.716679
0.702185
0.68801
0.674125
0.660505
0.647126
0.63397
0.62102
0.608261
0.595678
0.58326
0.570996
0.558875
0.546889
0.535028
0.523284
0.511651
0.500122
0.488691
0.477351
0.466098
0.454926
0.443831
0.432808
0.421854
0.410964
0.400135
0.389363
0.378646
0.367981
0.357364
0.346792
0.336265
0.325778
0.31533
0.304919
0.294543
0.2842
0.273887
0.263605
0.25335
0.243122
0.232919
0.22274
0.212583
0.202447
0.192331
0.182235
0.172156
0.162095
0.15205
0.14202
0.132004
0.122003
0.112014
0.102038
0.0920732
0.0821196
0.0721765
0.0622434
0.0523196
0.0424047
0.0324982
0.0225997
0.0127088
0.00282501
-0.007052
-0.0169226
-0.0267871
-0.0366459
-0.0464992
-0.0563474
-0.0661906
-0.0760293
-0.0858635
-0.0956937
-0.10552
-0.115342
-0.125161
-0.134977
-0.144789
-0.154599
-0.164406
-0.174211
0.174211
1.15081
1.15081
1.10492
1.0629
1.02355
0.98707
0.953965
0.924327
0.897847
0.874024
0.852331
0.832299
0.813554
0.795817
0.778883
0.762604
0.74687
0.731603
0.716742
0.70224
0.68806
0.67417
0.660545
0.647163
0.634004
0.621051
0.608289
0.595704
0.583284
0.571019
0.558896
0.546908
0.535046
0.523301
0.511667
0.500137
0.488704
0.477364
0.46611
0.454937
0.443841
0.432818
0.421863
0.410973
0.400143
0.389371
0.378654
0.367988
0.35737
0.346798
0.33627
0.325783
0.315335
0.304924
0.294547
0.284204
0.273892
0.263609
0.253354
0.243126
0.232922
0.222743
0.212585
0.20245
0.192334
0.182237
0.172159
0.162097
0.152052
0.142022
0.132006
0.122004
0.112016
0.102039
0.0920747
0.082121
0.0721779
0.0622446
0.0523208
0.0424058
0.0324993
0.0226007
0.0127098
0.00282592
-0.00705114
-0.0169218
-0.0267863
-0.0366452
-0.0464985
-0.0563467
-0.06619
-0.0760287
-0.085863
-0.0956931
-0.105519
-0.115342
-0.125161
-0.134976
-0.144789
-0.154598
-0.164406
-0.17421
0.17421
1.13583
1.13583
1.10204
1.06314
1.02467
0.988394
0.955227
0.925405
0.898708
0.874684
0.852824
0.832664
0.813825
0.796022
0.779041
0.762729
0.746971
0.731687
0.716813
0.702301
0.688113
0.674216
0.660586
0.6472
0.634037
0.621081
0.608316
0.595729
0.583307
0.571039
0.558915
0.546925
0.535062
0.523316
0.511681
0.50015
0.488716
0.477375
0.46612
0.454947
0.44385
0.432826
0.421871
0.41098
0.40015
0.389378
0.37866
0.367993
0.357375
0.346803
0.336275
0.325788
0.315339
0.304928
0.294551
0.284207
0.273895
0.263612
0.253357
0.243128
0.232925
0.222745
0.212588
0.202452
0.192336
0.182239
0.17216
0.162099
0.152053
0.142023
0.132008
0.122006
0.112017
0.102041
0.0920758
0.0821221
0.0721789
0.0622456
0.0523217
0.0424067
0.0325001
0.0226015
0.0127105
0.00282662
-0.00705048
-0.0169212
-0.0267857
-0.0366446
-0.046498
-0.0563462
-0.0661895
-0.0760282
-0.0858626
-0.0956927
-0.105519
-0.115341
-0.12516
-0.134976
-0.144789
-0.154598
-0.164404
-0.174204
0.174204
1.12626
1.12626
1.09955
1.06324
1.02562
0.98959
0.956404
0.926441
0.899561
0.875356
0.853341
0.833058
0.814127
0.796256
0.779227
0.762878
0.747094
0.73179
0.716901
0.702377
0.688179
0.674275
0.660638
0.647246
0.634078
0.621118
0.60835
0.595759
0.583335
0.571064
0.558938
0.546947
0.535081
0.523334
0.511697
0.500165
0.48873
0.477388
0.466132
0.454958
0.443861
0.432836
0.42188
0.410988
0.400158
0.389385
0.378667
0.368
0.357381
0.346809
0.33628
0.325793
0.315344
0.304932
0.294555
0.284211
0.273899
0.263615
0.25336
0.243131
0.232928
0.222748
0.21259
0.202454
0.192338
0.182241
0.172162
0.162101
0.152055
0.142025
0.132009
0.122007
0.112019
0.102042
0.0920771
0.0821234
0.0721801
0.0622467
0.0523228
0.0424077
0.0325011
0.0226024
0.0127113
0.00282742
-0.00704972
-0.0169204
-0.0267851
-0.0366439
-0.0464974
-0.0563456
-0.066189
-0.0760277
-0.0858621
-0.0956923
-0.105519
-0.115341
-0.12516
-0.134976
-0.144788
-0.154597
-0.164402
-0.174192
0.174192
1.12094
1.12094
1.09792
1.06326
1.02621
0.990357
0.957173
0.92713
0.900139
0.875821
0.853706
0.833342
0.81435
0.796433
0.77937
0.762996
0.747193
0.731875
0.716974
0.702441
0.688236
0.674326
0.660684
0.647287
0.634115
0.621152
0.60838
0.595787
0.58336
0.571088
0.55896
0.546966
0.535099
0.52335
0.511713
0.500179
0.488744
0.4774
0.466144
0.454969
0.443871
0.432845
0.421889
0.410997
0.400165
0.389392
0.378673
0.368006
0.357387
0.346815
0.336286
0.325798
0.315349
0.304937
0.294559
0.284215
0.273902
0.263619
0.253363
0.243134
0.232931
0.22275
0.212593
0.202457
0.19234
0.182243
0.172164
0.162103
0.152057
0.142027
0.132011
0.122009
0.11202
0.102043
0.0920784
0.0821246
0.0721812
0.0622478
0.0523238
0.0424087
0.032502
0.0226033
0.0127122
0.0028282
-0.00704898
-0.0169197
-0.0267844
-0.0366433
-0.0464968
-0.0563451
-0.0661885
-0.0760272
-0.0858616
-0.0956918
-0.105518
-0.115341
-0.12516
-0.134975
-0.144788
-0.154596
-0.164399
-0.174179
0.174179
1.11924
1.11924
1.09738
1.06327
1.02642
0.990631
0.957447
0.927376
0.900345
0.875988
0.853838
0.833446
0.814433
0.7965
0.779424
0.763041
0.747232
0.731908
0.717004
0.702467
0.688259
0.674346
0.660702
0.647304
0.634131
0.621166
0.608393
0.595799
0.583371
0.571098
0.558969
0.546975
0.535107
0.523358
0.511719
0.500185
0.488749
0.477406
0.466149
0.454973
0.443875
0.43285
0.421892
0.411
0.400169
0.389395
0.378676
0.368009
0.35739
0.346817
0.336288
0.3258
0.315351
0.304938
0.294561
0.284217
0.273904
0.26362
0.253365
0.243136
0.232932
0.222752
0.212594
0.202458
0.192341
0.182244
0.172165
0.162103
0.152058
0.142027
0.132012
0.12201
0.112021
0.102044
0.092079
0.0821251
0.0721817
0.0622483
0.0523242
0.0424091
0.0325024
0.0226037
0.0127125
0.00282854
-0.00704866
-0.0169194
-0.0267841
-0.0366431
-0.0464965
-0.0563448
-0.0661882
-0.076027
-0.0858614
-0.0956916
-0.105518
-0.11534
-0.12516
-0.134975
-0.144787
-0.154596
-0.164397
-0.174173
0.174173
1.12094
1.12094
1.09792
1.06326
1.02621
0.990357
0.957173
0.92713
0.900139
0.875821
0.853706
0.833342
0.81435
0.796433
0.779369
0.762996
0.747193
0.731875
0.716974
0.702441
0.688236
0.674326
0.660684
0.647287
0.634115
0.621152
0.60838
0.595787
0.58336
0.571088
0.55896
0.546966
0.535099
0.52335
0.511713
0.500179
0.488744
0.4774
0.466144
0.454969
0.443871
0.432845
0.421889
0.410997
0.400165
0.389392
0.378673
0.368006
0.357387
0.346815
0.336286
0.325798
0.315349
0.304937
0.294559
0.284215
0.273902
0.263619
0.253363
0.243134
0.232931
0.22275
0.212593
0.202457
0.19234
0.182243
0.172164
0.162103
0.152057
0.142027
0.132011
0.122009
0.11202
0.102043
0.0920784
0.0821246
0.0721812
0.0622478
0.0523238
0.0424087
0.032502
0.0226033
0.0127122
0.0028282
-0.00704898
-0.0169197
-0.0267844
-0.0366433
-0.0464968
-0.0563451
-0.0661885
-0.0760272
-0.0858616
-0.0956918
-0.105518
-0.115341
-0.12516
-0.134975
-0.144788
-0.154596
-0.164399
-0.174179
0.174179
1.12626
1.12626
1.09955
1.06324
1.02562
0.98959
0.956403
0.926441
0.899561
0.875357
0.853341
0.833058
0.814128
0.796256
0.779227
0.762878
0.747094
0.73179
0.716901
0.702377
0.688179
0.674275
0.660638
0.647246
0.634078
0.621118
0.60835
0.595759
0.583335
0.571064
0.558938
0.546947
0.535081
0.523334
0.511697
0.500165
0.48873
0.477388
0.466132
0.454958
0.443861
0.432836
0.42188
0.410988
0.400158
0.389385
0.378667
0.368
0.357381
0.346809
0.33628
0.325793
0.315344
0.304932
0.294555
0.284211
0.273899
0.263615
0.25336
0.243131
0.232928
0.222748
0.21259
0.202454
0.192338
0.182241
0.172162
0.162101
0.152055
0.142025
0.132009
0.122007
0.112019
0.102042
0.0920771
0.0821234
0.0721801
0.0622467
0.0523228
0.0424077
0.0325011
0.0226024
0.0127113
0.00282742
-0.00704972
-0.0169204
-0.0267851
-0.0366439
-0.0464974
-0.0563456
-0.066189
-0.0760277
-0.0858621
-0.0956923
-0.105519
-0.115341
-0.12516
-0.134976
-0.144788
-0.154597
-0.164402
-0.174192
0.174192
1.13583
1.13583
1.10204
1.06313
1.02467
0.988395
0.955227
0.925405
0.898708
0.874684
0.852824
0.832663
0.813825
0.796022
0.779041
0.762729
0.746971
0.731687
0.716813
0.702301
0.688113
0.674216
0.660586
0.6472
0.634037
0.621081
0.608316
0.595729
0.583307
0.571039
0.558915
0.546925
0.535062
0.523316
0.511681
0.50015
0.488716
0.477375
0.46612
0.454947
0.44385
0.432826
0.421871
0.41098
0.40015
0.389378
0.37866
0.367993
0.357375
0.346803
0.336275
0.325788
0.315339
0.304928
0.294551
0.284207
0.273895
0.263612
0.253357
0.243128
0.232925
0.222745
0.212588
0.202452
0.192336
0.182239
0.17216
0.162099
0.152053
0.142023
0.132008
0.122006
0.112017
0.102041
0.0920758
0.0821221
0.0721789
0.0622456
0.0523217
0.0424067
0.0325001
0.0226015
0.0127105
0.00282662
-0.00705048
-0.0169212
-0.0267857
-0.0366446
-0.046498
-0.0563462
-0.0661895
-0.0760282
-0.0858626
-0.0956927
-0.105519
-0.115341
-0.12516
-0.134976
-0.144789
-0.154598
-0.164404
-0.174204
0.174204
1.15081
1.15081
1.10492
1.0629
1.02355
0.987071
0.953966
0.924327
0.897847
0.874025
0.852331
0.832299
0.813554
0.795817
0.778883
0.762604
0.74687
0.731603
0.716742
0.70224
0.688059
0.67417
0.660545
0.647163
0.634004
0.621051
0.608289
0.595704
0.583284
0.571018
0.558896
0.546908
0.535046
0.523301
0.511667
0.500137
0.488705
0.477364
0.46611
0.454937
0.443841
0.432818
0.421863
0.410973
0.400143
0.389371
0.378654
0.367988
0.35737
0.346798
0.33627
0.325783
0.315335
0.304924
0.294547
0.284204
0.273892
0.263609
0.253354
0.243126
0.232922
0.222743
0.212585
0.20245
0.192334
0.182237
0.172159
0.162097
0.152052
0.142022
0.132006
0.122004
0.112016
0.102039
0.0920747
0.082121
0.0721779
0.0622446
0.0523208
0.0424058
0.0324993
0.0226007
0.0127098
0.00282592
-0.00705114
-0.0169218
-0.0267863
-0.0366452
-0.0464985
-0.0563467
-0.06619
-0.0760287
-0.085863
-0.0956931
-0.105519
-0.115342
-0.125161
-0.134976
-0.144789
-0.154598
-0.164406
-0.17421
0.17421
1.17175
1.17175
1.10691
1.06267
1.02285
0.986275
0.953223
0.923695
0.897339
0.87363
0.852028
0.832065
0.813372
0.795672
0.778766
0.762506
0.746787
0.731532
0.71668
0.702185
0.68801
0.674125
0.660505
0.647126
0.63397
0.62102
0.608261
0.595678
0.58326
0.570996
0.558875
0.546889
0.535028
0.523284
0.511651
0.500122
0.488691
0.477351
0.466098
0.454926
0.443831
0.432808
0.421854
0.410964
0.400135
0.389363
0.378646
0.367981
0.357364
0.346792
0.336265
0.325778
0.31533
0.304919
0.294543
0.2842
0.273887
0.263605
0.25335
0.243122
0.232919
0.22274
0.212583
0.202447
0.192331
0.182235
0.172156
0.162095
0.15205
0.14202
0.132004
0.122003
0.112014
0.102038
0.0920732
0.0821196
0.0721765
0.0622434
0.0523196
0.0424047
0.0324982
0.0225997
0.0127088
0.00282501
-0.007052
-0.0169226
-0.0267871
-0.0366459
-0.0464992
-0.0563474
-0.0661906
-0.0760293
-0.0858635
-0.0956937
-0.10552
-0.115342
-0.125161
-0.134977
-0.144789
-0.154599
-0.164406
-0.174211
0.174211
1.17175
1.17175
1.10691
1.06267
1.02285
0.986275
0.953223
0.923695
0.897339
0.87363
0.852028
0.832065
0.813372
0.795672
0.778766
0.762506
0.746787
0.731532
0.71668
0.702185
0.68801
0.674125
0.660505
0.647126
0.63397
0.62102
0.608261
0.595678
0.58326
0.570996
0.558875
0.546889
0.535028
0.523284
0.511651
0.500122
0.488691
0.477351
0.466098
0.454926
0.443831
0.432808
0.421854
0.410964
0.400135
0.389363
0.378646
0.367981
0.357364
0.346792
0.336265
0.325778
0.31533
0.304919
0.294543
0.2842
0.273887
0.263605
0.25335
0.243122
0.232919
0.22274
0.212583
0.202447
0.192331
0.182235
0.172156
0.162095
0.15205
0.14202
0.132004
0.122003
0.112014
0.102038
0.0920732
0.0821196
0.0721765
0.0622434
0.0523196
0.0424047
0.0324982
0.0225997
0.0127088
0.00282501
-0.007052
-0.0169226
-0.0267871
-0.0366459
-0.0464992
-0.0563474
-0.0661906
-0.0760293
-0.0858635
-0.0956937
-0.10552
-0.115342
-0.125161
-0.134977
-0.144789
-0.154599
-0.164406
-0.174211
0.174211
SCALARS phi double
LOOKUP_TABLE phi
1
1
1
1
0.999999
0.999994
0.999983
0.999957
0.99991
0.99983
0.999706
0.999525
0.999278
0.998951
0.998536
0.998024
0.997407
0.996678
0.995834
0.994869
0.993783
0.992574
0.991241
0.989786
0.988211
0.986517
0.984708
0.982788
0.980761
0.97863
0.976402
0.97408
0.971669
0.969176
0.966604
0.963958
0.961243
0.958464
0.955623
0.952722
0.949762
0.94674
0.943653
0.940493
0.937252
0.933917
0.930473
0.926905
0.923192
0.919315
0.915254
0.910987
0.906493
0.901752
0.896744
0.891453
0.885862
0.879959
0.873733
0.867174
0.860278
0.853041
0.845463
0.837545
0.829292
0.82071
0.811807
0.802595
0.793084
0.783288
0.773222
0.762901
0.752341
0.74156
0.730574
0.719401
0.708059
0.696565
0.684938
0.673195
0.661353
0.649428
0.637437
0.625396
0.61332
0.601223
0.589119
0.577022
0.564945
0.552898
0.540894
0.528944
0.517056
0.50524
0.493506
0.481858
0.470314
0.458848
0.447576
0.436122
0.425831
0.411932
0.411932
1
1
1
1
0.999999
0.999994
0.999983
0.999957
0.99991
0.99983
0.999706
0.999525
0.999278
0.998951
0.998536
0.998024
0.997407
0.996678
0.995834
0.994869
0.993783
0.992574
0.991241
0.989786
0.988211
0.986517
0.984708
0.982788
0.980761
0.97863
0.976402
0.97408
0.971669
0.969176
0.966604
0.963958
0.961243
0.958464
0.955623
0.952722
0.949762
0.94674
0.943653
0.940493
0.937252
0.933917
0.930473
0.926905
0.923192
0.919315
0.915254
0.910987
0.906493
0.901752
0.896744
0.891453
0.885862
0.879959
0.873733
0.867174
0.860278
0.853041
0.845463
0.837545
0.829292
0.82071
0.811807
0.802595
0.793084
0.783288
0.773222
0.762901
0.752341
0.74156
0.730574
0.719401
0.708059
0.696565
0.684938
0.673195
0.661353
0.649428
0.637437
0.625396
0.61332
0.601223
0.589119
0.577022
0.564945
0.552898
0.540894
0.528944
0.517056
0.50524
0.493506
0.481858
0.470314
0.458848
0.447576
0.436122
0.425831
0.411932
0.411932
1
1
1
0.999996
0.999983
0.999954
0.999898
0.999804
0.999658
0.999446
0.999157
0.998778
0.998299
0.997714
0.997014
0.996196
0.995256
0.994192
0.993003
0.991689
0.990252
0.988694
0.987016
0.985224
0.983319
0.981307
0.979192
0.976979
0.974671
0.972276
0.969796
0.967238
0.964606
0.961906
0.959141
0.956318
0.953439
0.950511
0.947536
0.944518
0.941459
0.938362
0.935227
0.932052
0.928836
0.925573
0.922258
0.918883
0.915438
0.91191
0.908287
0.904554
0.900695
0.896695
0.892538
0.888206
0.883684
0.878957
0.874011
0.868832
0.86341
0.857733
0.851795
0.845589
0.839111
0.832357
0.825327
0.818023
0.810446
0.802602
0.794496
0.786135
0.777527
0.768682
0.759611
0.750324
0.740834
0.731152
0.721292
0.711267
0.70109
0.690775
0.680335
0.669783
0.659134
0.6484
0.637594
0.626728
0.615816
0.604868
0.593896
0.582911
0.571923
0.560944
0.549982
0.539043
0.52815
0.517266
0.506543
0.495511
0.485774
0.471993
0.471993
0.999997
1
0.99998
0.999896
0.999724
0.999434
0.998999
0.998397
0.997613
0.996636
0.995464
0.994099
0.992547
0.990816
0.988916
0.986859
0.984655
0.982317
0.979854
0.977278
0.974598
0.971826
0.968969
0.966037
0.963036
0.959976
0.956862
0.953702
0.9505
0.947262
0.943993
0.940698
0.937381
0.934046
0.930696
0.927335
0.923965
0.920589
0.917211
0.913831
0.910452
0.907076
0.903703
0.900335
0.896971
0.89361
0.890251
0.886891
0.883527
0.880155
0.876768
0.87336
0.869923
0.866448
0.862927
0.859348
0.855701
0.851975
0.848158
0.844239
0.840207
0.83605
0.831758
0.82732
0.822729
0.817974
0.813049
0.807947
0.802663
0.797191
0.79153
0.785676
0.779629
0.773388
0.766954
0.760329
0.753516
0.746519
0.739341
0.731989
0.724467
0.716782
0.708941
0.700951
0.692819
0.684554
0.676164
0.667657
0.65904
0.650324
0.641516
0.632625
0.623659
0.614626
0.605536
0.596393
0.587219
0.577973
0.568817
0.559268
0.5509
0.538707
0.538707
0.999999
1
0.99943
0.998224
0.996402
0.994008
0.991093
0.987716
0.983939
0.979828
0.975446
0.970853
0.966102
0.961239
0.9563
0.951318
0.946317
0.94132
0.936342
0.931396
0.926494
0.921643
0.91685
0.91212
0.907456
0.902862
0.898338
0.893885
0.889504
0.885196
0.880959
0.876793
0.872697
0.868669