# vtk DataFile Version 3.0
FlowField
ASCII
DATASET STRUCTURED_GRID
DIMENSIONS 22 17 12 
POINTS 4488 double
0 0 0
0.1 0 0
0.2 0 0
0.3 0 0
0.4 0 0
0.5 0 0
0.6 0 0
0.7 0 0
0.8 0 0
0.9 0 0
1 0 0
1.1 0 0
1.2 0 0
1.3 0 0
1.4 0 0
1.5 0 0
1.6 0 0
1.7 0 0
1.8 0 0
1.9 0 0
2 0 0
2.1 0 0
0 0.1 0
0.1 0.1 0
0.2 0.1 0
0.3 0.1 0
0.4 0.1 0
0.5 0.1 0
0.6 0.1 0
0.7 0.1 0
0.8 0.1 0
0.9 0.1 0
1 0.1 0
1.1 0.1 0
1.2 0.1 0
1.3 0.1 0
1.4 0.1 0
1.5 0.1 0
1.6 0.1 0
1.7 0.1 0
1.8 0.1 0
1.9 0.1 0
2 0.1 0
2.1 0.1 0
0 0.2 0
0.1 0.2 0
0.2 0.2 0
0.3 0.2 0
0.4 0.2 0
0.5 0.2 0
0.6 0.2 0
0.7 0.2 0
0.8 0.2 0
0.9 0.2 0
1 0.2 0
1.1 0.2 0
1.2 0.2 0
1.3 0.2 0
1.4 0.2 0
1.5 0.2 0
1.6 0.2 0
1.7 0.2 0
1.8 0.2 0
1.9 0.2 0
2 0.2 0
2.1 0.2 0
0 0.3 0
0.1 0.3 0
0.2 0.3 0
0.3 0.3 0
0.4 0.3 0
0.5 0.3 0
0.6 0.3 0
0.7 0.3 0
0.8 0.3 0
0.9 0.3 0
1 0.3 0
1.1 0.3 0
1.2 0.3 0
1.3 0.3 0
1.4 0.3 0
1.5 0.3 0
1.6 0.3 0
1.7 0.3 0
1.8 0.3 0
1.9 0.3 0
2 0.3 0
2.1 0.3 0
0 0.4 0
0.1 0.4 0
0.2 0.4 0
0.3 0.4 0
0.4 0.4 0
0.5 0.4 0
0.6 0.4 0
0.7 0.4 0
0.8 0.4 0
0.9 0.4 0
1 0.4 0
1.1 0.4 0
1.2 0.4 0
1.3 0.4 0
1.4 0.4 0
1.5 0.4 0
1.6 0.4 0
1.7 0.4 0
1.8 0.4 0
1.9 0.4 0
2 0.4 0
2.1 0.4 0
0 0.5 0
0.1 0.5 0
0.2 0.5 0
0.3 0.5 0
0.4 0.5 0
0.5 0.5 0
0.6 0.5 0
0.7 0.5 0
0.8 0.5 0
0.9 0.5 0
1 0.5 0
1.1 0.5 0
1.2 0.5 0
1.3 0.5 0
1.4 0.5 0
1.5 0.5 0
1.6 0.5 0
1.7 0.5 0
1.8 0.5 0
1.9 0.5 0
2 0.5 0
2.1 0.5 0
0 0.6 0
0.1 0.6 0
0.2 0.6 0
0.3 0.6 0
0.4 0.6 0
0.5 0.6 0
0.6 0.6 0
0.7 0.6 0
0.8 0.6 0
0.9 0.6 0
1 0.6 0
1.1 0.6 0
1.2 0.6 0
1.3 0.6 0
1.4 0.6 0
1.5 0.6 0
1.6 0.6 0
1.7 0.6 0
1.8 0.6 0
1.9 0.6 0
2 0.6 0
2.1 0.6 0
0 0.7 0
0.1 0.7 0
0.2 0.7 0
0.3 0.7 0
0.4 0.7 0
0.5 0.7 0
0.6 0.7 0
0.7 0.7 0
0.8 0.7 0
0.9 0.7 0
1 0.7 0
1.1 0.7 0
1.2 0.7 0
1.3 0.7 0
1.4 0.7 0
1.5 0.7 0
1.6 0.7 0
1.7 0.7 0
1.8 0.7 0
1.9 0.7 0
2 0.7 0
2.1 0.7 0
0 0.8 0
0.1 0.8 0
0.2 0.8 0
0.3 0.8 0
0.4 0.8 0
0.5 0.8 0
0.6 0.8 0
0.7 0.8 0
0.8 0.8 0
0.9 0.8 0
1 0.8 0
1.1 0.8 0
1.2 0.8 0
1.3 0.8 0
1.4 0.8 0
1.5 0.8 0
1.6 0.8 0
1.7 0.8 0
1.8 0.8 0
1.9 0.8 0
2 0.8 0
2.1 0.8 0
0 0.9 0
0.1 0.9 0
0.2 0.9 0
0.3 0.9 0
0.4 0.9 0
0.5 0.9 0
0.6 0.9 0
0.7 0.9 0
0.8 0.9 0
0.9 0.9 0
1 0.9 0
1.1 0.9 0
1.2 0.9 0
1.3 0.9 0
1.4 0.9 0
1.5 0.9 0
1.6 0.9 0
1.7 0.9 0
1.8 0.9 0
1.9 0.9 0
2 0.9 0
2.1 0.9 0
0 1 0
0.1 1 0
0.2 1 0
0.3 1 0
0.4 1 0
0.5 1 0
0.6 1 0
0.7 1 0
0.8 1 0
0.9 1 0
1 1 0
1.1 1 0
1.2 1 0
1.3 1 0
1.4 1 0
1.5 1 0
1.6 1 0
1.7 1 0
1.8 1 0
1.9 1 0
2 1 0
2.1 1 0
0 1.1 0
0.1 1.1 0
0.2 1.1 0
0.3 1.1 0
0.4 1.1 0
0.5 1.1 0
0.6 1.1 0
0.7 1.1 0
0.8 1.1 0
0.9 1.1 0
1 1.1 0
1.1 1.1 0
1.2 1.1 0
1.3 1.1 0
1.4 1.1 0
1.5 1.1 0
1.6 1.1 0
1.7 1.1 0
1.8 1.1 0
1.9 1.1 0
2 1.1 0
2.1 1.1 0
0 1.2 0
0.1 1.2 0
0.2 1.2 0
0.3 1.2 0
0.4 1.2 0
0.5 1.2 0
0.6 1.2 0
0.7 1.2 0
0.8 1.2 0
0.9 1.2 0
1 1.2 0
1.1 1.2 0
1.2 1.2 0
1.3 1.2 0
1.4 1.2 0
1.5 1.2 0
1.6 1.2 0
1.7 1.2 0
1.8 1.2 0
1.9 1.2 0
2 1.2 0
2.1 1.2 0
0 1.3 0
0.1 1.3 0
0.2 1.3 0
0.3 1.3 0
0.4 1.3 0
0.5 1.3 0
0.6 1.3 0
0.7 1.3 0
0.8 1.3 0
0.9 1.3 0
1 1.3 0
1.1 1.3 0
1.2 1.3 0
1.3 1.3 0
1.4 1.3 0
1.5 1.3 0
1.6 1.3 0
1.7 1.3 0
1.8 1.3 0
1.9 1.3 0
2 1.3 0
2.1 1.3 0
0 1.4 0
0.1 1.4 0
0.2 1.4 0
0.3 1.4 0
0.4 1.4 0
0.5 1.4 0
0.6 1.4 0
0.7 1.4 0
0.8 1.4 0
0.9 1.4 0
1 1.4 0
1.1 1.4 0
1.2 1.4 0
1.3 1.4 0
1.4 1.4 0
1.5 1.4 0
1.6 1.4 0
1.7 1.4 0
1.8 1.4 0
1.9 1.4 0
2 1.4 0
2.1 1.4 0
0 1.5 0
0.1 1.5 0
0.2 1.5 0
0.3 1.5 0
0.4 1.5 0
0.5 1.5 0
0.6 1.5 0
0.7 1.5 0
0.8 1.5 0
0.9 1.5 0
1 1.5 0
1.1 1.5 0
1.2 1.5 0
1.3 1.5 0
1.4 1.5 0
1.5 1.5 0
1.6 1.5 0
1.7 1.5 0
1.8 1.5 0
1.9 1.5 0
2 1.5 0
2.1 1.5 0
0 1.6 0
0.1 1.6 0
0.2 1.6 0
0.3 1.6 0
0.4 1.6 0
0.5 1.6 0
0.6 1.6 0
0.7 1.6 0
0.8 1.6 0
0.9 1.6 0
1 1.6 0
1.1 1.6 0
1.2 1.6 0
1.3 1.6 0
1.4 1.6 0
1.5 1.6 0
1.6 1.6 0
1.7 1.6 0
1.8 1.6 0
1.9 1.6 0
2 1.6 0
2.1 1.6 0
0 0 0.1
0.1 0 0.1
0.2 0 0.1
0.3 0 0.1
0.4 0 0.1
0.5 0 0.1
0.6 0 0.1
0.7 0 0.1
0.8 0 0.1
0.9 0 0.1
1 0 0.1
1.1 0 0.1
1.2 0 0.1
1.3 0 0.1
1.4 0 0.1
1.5 0 0.1
1.6 0 0.1
1.7 0 0.1
1.8 0 0.1
1.9 0 0.1
2 0 0.1
2.1 0 0.1
0 0.1 0.1
0.1 0.1 0.1
0.2 0.1 0.1
0.3 0.1 0.1
0.4 0.1 0.1
0.5 0.1 0.1
0.6 0.1 0.1
0.7 0.1 0.1
0.8 0.1 0.1
0.9 0.1 0.1
1 0.1 0.1
1.1 0.1 0.1
1.2 0.1 0.1
1.3 0.1 0.1
1.4 0.1 0.1
1.5 0.1 0.1
1.6 0.1 0.1
1.7 0.1 0.1
1.8 0.1 0.1
1.9 0.1 0.1
2 0.1 0.1
2.1 0.1 0.1
0 0.2 0.1
0.1 0.2 0.1
0.2 0.2 0.1
0.3 0.2 0.1
0.4 0.2 0.1
0.5 0.2 0.1
0.6 0.2 0.1
0.7 0.2 0.1
0.8 0.2 0.1
0.9 0.2 0.1
1 0.2 0.1
1.1 0.2 0.1
1.2 0.2 0.1
1.3 0.2 0.1
1.4 0.2 0.1
1.5 0.2 0.1
1.6 0.2 0.1
1.7 0.2 0.1
1.8 0.2 0.1
1.9 0.2 0.1
2 0.2 0.1
2.1 0.2 0.1
0 0.3 0.1
0.1 0.3 0.1
0.2 0.3 0.1
0.3 0.3 0.1
0.4 0.3 0.1
0.5 0.3 0.1
0.6 0.3 0.1
0.7 0.3 0.1
0.8 0.3 0.1
0.9 0.3 0.1
1 0.3 0.1
1.1 0.3 0.1
1.2 0.3 0.1
1.3 0.3 0.1
1.4 0.3 0.1
1.5 0.3 0.1
1.6 0.3 0.1
1.7 0.3 0.1
1.8 0.3 0.1
1.9 0.3 0.1
2 0.3 0.1
2.1 0.3 0.1
0 0.4 0.1
0.1 0.4 0.1
0.2 0.4 0.1
0.3 0.4 0.1
0.4 0.4 0.1
0.5 0.4 0.1
0.6 0.4 0.1
0.7 0.4 0.1
0.8 0.4 0.1
0.9 0.4 0.1
1 0.4 0.1
1.1 0.4 0.1
1.2 0.4 0.1
1.3 0.4 0.1
1.4 0.4 0.1
1.5 0.4 0.1
1.6 0.4 0.1
1.7 0.4 0.1
1.8 0.4 0.1
1.9 0.4 0.1
2 0.4 0.1
2.1 0.4 0.1
0 0.5 0.1
0.1 0.5 0.1
0.2 0.5 0.1
0.3 0.5 0.1
0.4 0.5 0.1
0.5 0.5 0.1
0.6 0.5 0.1
0.7 0.5 0.1
0.8 0.5 0.1
0.9 0.5 0.1
1 0.5 0.1
1.1 0.5 0.1
1.2 0.5 0.1
1.3 0.5 0.1
1.4 0.5 0.1
1.5 0.5 0.1
1.6 0.5 0.1
1.7 0.5 0.1
1.8 0.5 0.1
1.9 0.5 0.1
2 0.5 0.1
2.1 0.5 0.1
0 0.6 0.1
0.1 0.6 0.1
0.2 0.6 0.1
0.3 0.6 0.1
0.4 0.6 0.1
0.5 0.6 0.1
0.6 0.6 0.1
0.7 0.6 0.1
0.8 0.6 0.1
0.9 0.6 0.1
1 0.6 0.1
1.1 0.6 0.1
1.2 0.6 0.1
1.3 0.6 0.1
1.4 0.6 0.1
1.5 0.6 0.1
1.6 0.6 0.1
1.7 0.6 0.1
1.8 0.6 0.1
1.9 0.6 0.1
2 0.6 0.1
2.1 0.6 0.1
0 0.7 0.1
0.1 0.7 0.1
0.2 0.7 0.1
0.3 0.7 0.1
0.4 0.7 0.1
0.5 0.7 0.1
0.6 0.7 0.1
0.7 0.7 0.1
0.8 0.7 0.1
0.9 0.7 0.1
1 0.7 0.1
1.1 0.7 0.1
1.2 0.7 0.1
1.3 0.7 0.1
1.4 0.7 0.1
1.5 0.7 0.1
1.6 0.7 0.1
1.7 0.7 0.1
1.8 0.7 0.1
1.9 0.7 0.1
2 0.7 0.1
2.1 0.7 0.1
0 0.8 0.1
0.1 0.8 0.1
0.2 0.8 0.1
0.3 0.8 0.1
0.4 0.8 0.1
0.5 0.8 0.1
0.6 0.8 0.1
0.7 0.8 0.1
0.8 0.8 0.1
0.9 0.8 0.1
1 0.8 0.1
1.1 0.8 0.1
1.2 0.8 0.1
1.3 0.8 0.1
1.4 0.8 0.1
1.5 0.8 0.1
1.6 0.8 0.1
1.7 0.8 0.1
1.8 0.8 0.1
1.9 0.8 0.1
2 0.8 0.1
2.1 0.8 0.1
0 0.9 0.1
0.1 0.9 0.1
0.2 0.9 0.1
0.3 0.9 0.1
0.4 0.9 0.1
0.5 0.9 0.1
0.6 0.9 0.1
0.7 0.9 0.1
0.8 0.9 0.1
0.9 0.9 0.1
1 0.9 0.1
1.1 0.9 0.1
1.2 0.9 0.1
1.3 0.9 0.1
1.4 0.9 0.1
1.5 0.9 0.1
1.6 0.9 0.1
1.7 0.9 0.1
1.8 0.9 0.1
1.9 0.9 0.1
2 0.9 0.1
2.1 0.9 0.1
0 1 0.1
0.1 1 0.1
0.2 1 0.1
0.3 1 0.1
0.4 1 0.1
0.5 1 0.1
0.6 1 0.1
0.7 1 0.1
0.8 1 0.1
0.9 1 0.1
1 1 0.1
1.1 1 0.1
1.2 1 0.1
1.3 1 0.1
1.4 1 0.1
1.5 1 0.1
1.6 1 0.1
1.7 1 0.1
1.8 1 0.1
1.9 1 0.1
2 1 0.1
2.1 1 0.1
0 1.1 0.1
0.1 1.1 0.1
0.2 1.1 0.1
0.3 1.1 0.1
0.4 1.1 0.1
0.5 1.1 0.1
0.6 1.1 0.1
0.7 1.1 0.1
0.8 1.1 0.1
0.9 1.1 0.1
1 1.1 0.1
1.1 1.1 0.1
1.2 1.1 0.1
1.3 1.1 0.1
1.4 1.1 0.1
1.5 1.1 0.1
1.6 1.1 0.1
1.7 1.1 0.1
1.8 1.1 0.1
1.9 1.1 0.1
2 1.1 0.1
2.1 1.1 0.1
0 1.2 0.1
0.1 1.2 0.1
0.2 1.2 0.1
0.3 1.2 0.1
0.4 1.2 0.1
0.5 1.2 0.1
0.6 1.2 0.1
0.7 1.2 0.1
0.8 1.2 0.1
0.9 1.2 0.1
1 1.2 0.1
1.1 1.2 0.1
1.2 1.2 0.1
1.3 1.2 0.1
1.4 1.2 0.1
1.5 1.2 0.1
1.6 1.2 0.1
1.7 1.2 0.1
1.8 1.2 0.1
1.9 1.2 0.1
2 1.2 0.1
2.1 1.2 0.1
0 1.3 0.1
0.1 1.3 0.1
0.2 1.3 0.1
0.3 1.3 0.1
0.4 1.3 0.1
0.5 1.3 0.1
0.6 1.3 0.1
0.7 1.3 0.1
0.8 1.3 0.1
0.9 1.3 0.1
1 1.3 0.1
1.1 1.3 0.1
1.2 1.3 0.1
1.3 1.3 0.1
1.4 1.3 0.1
1.5 1.3 0.1
1.6 1.3 0.1
1.7 1.3 0.1
1.8 1.3 0.1
1.9 1.3 0.1
2 1.3 0.1
2.1 1.3 0.1
0 1.4 0.1
0.1 1.4 0.1
0.2 1.4 0.1
0.3 1.4 0.1
0.4 1.4 0.1
0.5 1.4 0.1
0.6 1.4 0.1
0.7 1.4 0.1
0.8 1.4 0.1
0.9 1.4 0.1
1 1.4 0.1
1.1 1.4 0.1
1.2 1.4 0.1
1.3 1.4 0.1
1.4 1.4 0.1
1.5 1.4 0.1
1.6 1.4 0.1
1.7 1.4 0.1
1.8 1.4 0.1
1.9 1.4 0.1
2 1.4 0.1
2.1 1.4 0.1
0 1.5 0.1
0.1 1.5 0.1
0.2 1.5 0.1
0.3 1.5 0.1
0.4 1.5 0.1
0.5 1.5 0.1
0.6 1.5 0.1
0.7 1.5 0.1
0.8 1.5 0.1
0.9 1.5 0.1
1 1.5 0.1
1.1 1.5 0.1
1.2 1.5 0.1
1.3 1.5 0.1
1.4 1.5 0.1
1.5 1.5 0.1
1.6 1.5 0.1
1.7 1.5 0.1
1.8 1.5 0.1
1.9 1.5 0.1
2 1.5 0.1
2.1 1.5 0.1
0 1.6 0.1
0.1 1.6 0.1
0.2 1.6 0.1
0.3 1.6 0.1
0.4 1.6 0.1
0.5 1.6 0.1
0.6 1.6 0.1
0.7 1.6 0.1
0.8 1.6 0.1
0.9 1.6 0.1
1 1.6 0.1
1.1 1.6 0.1
1.2 1.6 0.1
1.3 1.6 0.1
1.4 1.6 0.1
1.5 1.6 0.1
1.6 1.6 0.1
1.7 1.6 0.1
1.8 1.6 0.1
1.9 1.6 0.1
2 1.6 0.1
2.1 1.6 0.1
0 0 0.2
0.1 0 0.2
0.2 0 0.2
0.3 0 0.2
0.4 0 0.2
0.5 0 0.2
0.6 0 0.2
0.7 0 0.2
0.8 0 0.2
0.9 0 0.2
1 0 0.2
1.1 0 0.2
1.2 0 0.2
1.3 0 0.2
1.4 0 0.2
1.5 0 0.2
1.6 0 0.2
1.7 0 0.2
1.8 0 0.2
1.9 0 0.2
2 0 0.2
2.1 0 0.2
0 0.1 0.2
0.1 0.1 0.2
0.2 0.1 0.2
0.3 0.1 0.2
0.4 0.1 0.2
0.5 0.1 0.2
0.6 0.1 0.2
0.7 0.1 0.2
0.8 0.1 0.2
0.9 0.1 0.2
1 0.1 0.2
1.1 0.1 0.2
1.2 0.1 0.2
1.3 0.1 0.2
1.4 0.1 0.2
1.5 0.1 0.2
1.6 0.1 0.2
1.7 0.1 0.2
1.8 0.1 0.2
1.9 0.1 0.2
2 0.1 0.2
2.1 0.1 0.2
0 0.2 0.2
0.1 0.2 0.2
0.2 0.2 0.2
0.3 0.2 0.2
0.4 0.2 0.2
0.5 0.2 0.2
0.6 0.2 0.2
0.7 0.2 0.2
0.8 0.2 0.2
0.9 0.2 0.2
1 0.2 0.2
1.1 0.2 0.2
1.2 0.2 0.2
1.3 0.2 0.2
1.4 0.2 0.2
1.5 0.2 0.2
1.6 0.2 0.2
1.7 0.2 0.2
1.8 0.2 0.2
1.9 0.2 0.2
2 0.2 0.2
2.1 0.2 0.2
0 0.3 0.2
0.1 0.3 0.2
0.2 0.3 0.2
0.3 0.3 0.2
0.4 0.3 0.2
0.5 0.3 0.2
0.6 0.3 0.2
0.7 0.3 0.2
0.8 0.3 0.2
0.9 0.3 0.2
1 0.3 0.2
1.1 0.3 0.2
1.2 0.3 0.2
1.3 0.3 0.2
1.4 0.3 0.2
1.5 0.3 0.2
1.6 0.3 0.2
1.7 0.3 0.2
1.8 0.3 0.2
1.9 0.3 0.2
2 0.3 0.2
2.1 0.3 0.2
0 0.4 0.2
0.1 0.4 0.2
0.2 0.4 0.2
0.3 0.4 0.2
0.4 0.4 0.2
0.5 0.4 0.2
0.6 0.4 0.2
0.7 0.4 0.2
0.8 0.4 0.2
0.9 0.4 0.2
1 0.4 0.2
1.1 0.4 0.2
1.2 0.4 0.2
1.3 0.4 0.2
1.4 0.4 0.2
1.5 0.4 0.2
1.6 0.4 0.2
1.7 0.4 0.2
1.8 0.4 0.2
1.9 0.4 0.2
2 0.4 0.2
2.1 0.4 0.2
0 0.5 0.2
0.1 0.5 0.2
0.2 0.5 0.2
0.3 0.5 0.2
0.4 0.5 0.2
0.5 0.5 0.2
0.6 0.5 0.2
0.7 0.5 0.2
0.8 0.5 0.2
0.9 0.5 0.2
1 0.5 0.2
1.1 0.5 0.2
1.2 0.5 0.2
1.3 0.5 0.2
1.4 0.5 0.2
1.5 0.5 0.2
1.6 0.5 0.2
1.7 0.5 0.2
1.8 0.5 0.2
1.9 0.5 0.2
2 0.5 0.2
2.1 0.5 0.2
0 0.6 0.2
0.1 0.6 0.2
0.2 0.6 0.2
0.3 0.6 0.2
0.4 0.6 0.2
0.5 0.6 0.2
0.6 0.6 0.2
0.7 0.6 0.2
0.8 0.6 0.2
0.9 0.6 0.2
1 0.6 0.2
1.1 0.6 0.2
1.2 0.6 0.2
1.3 0.6 0.2
1.4 0.6 0.2
1.5 0.6 0.2
1.6 0.6 0.2
1.7 0.6 0.2
1.8 0.6 0.2
1.9 0.6 0.2
2 0.6 0.2
2.1 0.6 0.2
0 0.7 0.2
0.1 0.7 0.2
0.2 0.7 0.2
0.3 0.7 0.2
0.4 0.7 0.2
0.5 0.7 0.2
0.6 0.7 0.2
0.7 0.7 0.2
0.8 0.7 0.2
0.9 0.7 0.2
1 0.7 0.2
1.1 0.7 0.2
1.2 0.7 0.2
1.3 0.7 0.2
1.4 0.7 0.2
1.5 0.7 0.2
1.6 0.7 0.2
1.7 0.7 0.2
1.8 0.7 0.2
1.9 0.7 0.2
2 0.7 0.2
2.1 0.7 0.2
0 0.8 0.2
0.1 0.8 0.2
[...]
POINT_DATA 4488

SCALARS pressure double
LOOKUP_TABLE pressure
0
0
0
0
0
0
0
0
0
0
0
0
0
0
0
0
0
0
0
0
0
0
0
40.5984
40.593
40.5895
40.5866
40.5846
40.5827
40.5803
40.5772
40.5761
40.5811
40.5797
40.5791
40.5788
40.5783
40.5777
40.5768
40.5756
40.5752
40.5745
40.5728
0
0
40.5926
40.591
40.5889
40.5865
40.5848
40.5833
40.5811
40.5776
40.5777
40.579
40.579
40.5789
40.5787
40.5784
40.5779
40.5769
40.5763
40.5756
40.5748
40.5739
0
0
40.5894
40.589
40.5879
40.5865
40.5852
40.5835
40.5805
40.5789
40.5783
40.5784
40.5788
40.5788
40.5786
40.5784
40.5781
40.5777
40.5773
40.5764
40.5757
40.5751
0
0
40.5875
40.5875
40.587
40.5862
40.5861
40.5848
40.5785
40.5789
40.5783
40.5777
40.579
40.5788
40.5785
40.5783
40.5783
40.5783
40.5779
40.5772
40.5765
40.5762
0
0
40.5862
40.5863
40.586
40.5855
40.585
40.5829
40.5807
40.5797
40.5788
40.5786
40.579
40.5789
40.5783
40.578
40.5785
40.5789
40.5786
40.5778
40.577
40.577
0
0
40.5852
40.5854
40.5852
40.5847
40.584
40.5829
40.5818
40.5808
40.5791
40.5788
40.5791
40.5789
40.5781
40.5776
40.5784
40.5794
40.579
40.5777
40.577
40.5776
0
0
40.5844
40.5846
40.5846
40.5842
40.5835
40.5829
40.5823
40.5822
40.5784
40.5789
40.5789
40.5787
40.5786
40.5785
40.5788
40.5791
40.5783
40.5775
40.5781
40.5776
0
0
40.5837
40.584
40.5841
40.5839
40.5829
40.5825
40.5819
40.5813
40.5799
40.5794
40.5792
40.5792
40.5794
40.5793
40.5791
40.5788
40.5783
40.5783
40.5791
40.5786
0
0
40.5829
40.5836
40.5836
40.5834
40.5827
40.5822
40.5819
40.5814
40.5807
40.5801
40.5798
40.5797
40.5798
40.5797
40.5794
40.579
40.5788
40.5789
40.5794
40.5791
0
0
40.5815
40.5836
40.5834
40.5833
40.5822
40.5818
40.582
40.5817
40.5812
40.5807
40.5803
40.5802
40.5801
40.5801
40.5799
40.5795
40.5794
40.5794
40.5796
40.5794
0
0
40.5822
40.5829
40.5832
40.5834
40.5841
40.5828
40.5823
40.5819
40.5816
40.5811
40.5808
40.5805
40.5804
40.5808
40.5805
40.5802
40.58
40.5796
40.5797
40.5796
0
0
40.5821
40.5826
40.5829
40.5831
40.5832
40.5827
40.5823
40.582
40.5817
40.5814
40.5811
40.5809
40.5807
40.5808
40.5807
40.5807
40.5807
40.5794
40.5796
40.5797
0
0
40.582
40.5823
40.5825
40.5827
40.5827
40.5825
40.5822
40.5819
40.5817
40.5815
40.5813
40.5811
40.5809
40.5809
40.5809
40.5814
40.5829
40.5777
40.5792
40.58
0
0
40.5819
40.5821
40.5823
40.5823
40.5823
40.5822
40.582
40.5817
40.5816
40.5815
40.5814
40.5813
40.5811
40.5809
40.5809
40.581
40.5811
40.5798
40.58
40.5802
0
0
40.5819
40.582
40.582
40.582
40.5819
40.5819
40.5818
40.5813
40.5814
40.5815
40.5816
40.5814
40.5812
40.581
40.5808
40.5807
40.5806
40.5805
40.5806
40.5806
0
0
0
0
0
0
0
0
0
0
0
0
0
0
0
0
0
0
0
0
0
0
0
0
40.5984
40.593
40.5895
40.5866
40.5846
40.5827
40.5803
40.5772
40.5761
40.5811
40.5797
40.5791
40.5788
40.5783
40.5777
40.5768
40.5756
40.5752
40.5745
40.5728
0
40.5984
40.5984
40.593
40.5895
40.5866
40.5846
40.5827
40.5803
40.5772
40.5761
40.5811
40.5797
40.5791
40.5788
40.5783
40.5777
40.5768
40.5756
40.5752
40.5745
40.5728
40.5728
40.5926
40.5926
40.591
40.5889
40.5865
40.5848
40.5833
40.5811
40.5776
40.5777
40.579
40.579
40.5789
40.5787
40.5784
40.5779
40.5769
40.5763
40.5756
40.5748
40.5739
40.5739
40.5894
40.5894
40.589
40.5879
40.5865
40.5852
40.5835
40.5805
40.5789
40.5783
40.5784
40.5788
40.5788
40.5786
40.5784
40.5781
40.5777
40.5773
40.5764
40.5757
40.5751
40.5751
40.5875
40.5875
40.5875
40.587
40.5862
40.5861
40.5848
40.5785
40.5789
40.5783
40.5777
40.579
40.5788
40.5785
40.5783
40.5783
40.5783
40.5779
40.5772
40.5765
40.5762
40.5762
40.5862
40.5862
40.5863
40.586
40.5855
40.585
40.5829
40.5807
40.5797
40.5788
40.5786
40.579
40.5789
40.5783
40.578
40.5785
40.5789
40.5786
40.5778
40.577
40.577
40.577
40.5852
40.5852
40.5854
40.5852
40.5847
40.584
40.5829
40.5818
40.5808
40.5791
40.5788
40.5791
40.5789
40.5781
40.5776
40.5784
40.5794
40.579
40.5777
40.577
40.5776
40.5776
40.5844
40.5844
40.5846
40.5846
40.5842
40.5835
40.5829
40.5823
40.5822
40.5784
40.5789
40.5789
40.5787
40.5786
40.5785
40.5788
40.5791
40.5783
40.5775
40.5781
40.5776
40.5776
40.5837
40.5837
40.584
40.5841
40.5839
40.5829
40.5825
40.5819
40.5813
40.5799
40.5794
40.5792
40.5792
40.5794
40.5793
40.5791
40.5788
40.5783
40.5783
40.5791
40.5786
40.5786
40.5829
40.5829
40.5836
40.5836
40.5834
40.5827
40.5822
40.5819
40.5814
40.5807
40.5801
40.5798
40.5797
40.5798
40.5797
40.5794
40.579
40.5788
40.5789
40.5794
40.5791
40.5791
40.5815
40.5815
40.5836
40.5834
40.5833
40.5822
40.5818
40.582
40.5817
40.5812
40.5807
40.5803
40.5802
40.5801
40.5801
40.5799
40.5795
40.5794
40.5794
40.5796
40.5794
40.5794
40.5822
40.5822
40.5829
40.5832
40.5834
40.5841
40.5828
40.5823
40.5819
40.5816
40.5811
40.5808
40.5805
40.5804
40.5808
40.5805
40.5802
40.58
40.5796
40.5797
40.5796
40.5796
40.5821
40.5821
40.5826
40.5829
40.5831
40.5832
40.5827
40.5823
40.582
40.5817
40.5814
40.5811
40.5809
40.5807
40.5808
40.5807
40.5807
40.5807
40.5794
40.5796
40.5797
40.5797
40.582
40.582
40.5823
40.5825
40.5827
40.5827
40.5825
40.5822
40.5819
40.5817
40.5815
40.5813
40.5811
40.5809
40.5809
40.5809
40.5814
40.5829
40.5777
40.5792
40.58
40.58
40.5819
40.5819
40.5821
40.5823
40.5823
40.5823
40.5822
40.582
40.5817
40.5816
40.5815
40.5814
40.5813
40.5811
40.5809
40.5809
40.581
40.5811
40.5798
40.58
40.5802
40.5802
40.5819
40.5819
40.582
40.582
40.582
40.5819
40.5819
40.5818
40.5813
40.5814
40.5815
40.5816
40.5814
40.5812
40.581
40.5808
40.5807
40.5806
40.5805
40.5806
40.5806
40.5806
0
40.5819
40.582
40.582
40.582
40.5819
40.5819
40.5818
40.5813
40.5814
40.5815
40.5816
40.5814
40.5812
40.581
40.5808
40.5807
40.5806
40.5805
40.5806
40.5806
0
0
40.602
40.5964
40.5924
40.5875
40.5798
40.5754
40.575
40.5758
40.5771
40.579
40.5792
40.5792
40.5789
40.5785
40.5779
40.577
40.576
40.575
40.5735
40.5723
0
40.602
40.602
40.5964
40.5924
40.5875
40.5798
40.5754
40.575
40.5758
40.5771
40.579
40.5792
40.5792
40.5789
40.5785
40.5779
40.577
40.576
40.575
40.5735
40.5723
40.5723
40.5959
40.5959
40.5942
40.5917
40.588
40.5822
40.577
40.5754
40.5755
40.5767
40.5781
40.5787
40.5789
40.5788
40.5785
40.5779
40.5772
40.5764
40.5755
40.5745
40.5736
40.5736
40.5924
40.5924
40.5918
40.5905
40.5881
40.5844
40.5795
40.5764
40.5758
40.5765
40.5775
40.5783
40.5786
40.5786
40.5784
40.578
40.5776
40.577
40.5763
40.5756
40.575
40.575
40.59
40.59
40.5899
40.5892
40.5878
40.5853
40.5813
40.5772
40.5762
40.5765
40.5771
40.578
40.5783
40.5783
40.5782
40.5781
40.5779
40.5775
40.577
40.5765
40.5761
40.5761
40.5883
40.5883
40.5884
40.588
40.5871
40.5854
40.5824
40.5793
40.5777
40.5771
40.5773
40.5778
40.578
40.5781
40.5781
40.5782
40.5782
40.578
40.5775
40.5771
40.5769
40.5769
40.587
40.587
40.5871
40.587
40.5865
40.5855
40.5837
40.5813
40.5793
40.5779
40.5775
40.5777
40.578
40.578
40.578
40.5783
40.5785
40.5782
40.5778
40.5776
40.5775
40.5775
40.5859
40.5859
40.5861
40.586
40.5858
40.5851
40.5838
40.582
40.5802
40.5783
40.5779
40.578
40.5782
40.5783
40.5784
40.5786
40.5786
40.5783
40.578
40.5782
40.578
40.578
40.5849
40.5849
40.5852
40.5852
40.585
40.5844
40.5834
40.5822
40.5808
40.5796
40.579
40.5789
40.5789
40.579
40.579
40.579
40.5788
40.5786
40.5786
40.5788
40.5786
40.5786
40.5841
40.5841
40.5844
40.5845
40.5843
40.5839
40.5833
40.5826
40.5819
40.5811
40.5803
40.5799
40.5797
40.5796
40.5795
40.5794
40.5792
40.5791
40.5791
40.5792
40.5791
40.5791
40.5833
40.5833
40.5839
40.584
40.5839
40.5836
40.5832
40.5829
40.5825
40.5818
40.5812
40.5806
40.5803
40.5801
40.58
40.5798
40.5796
40.5795
40.5795
40.5795
40.5794
40.5794
40.583
40.583
40.5834
40.5836
40.5837
40.5837
40.5833
40.5829
40.5826
40.5821
40.5816
40.5811
40.5807
40.5805
40.5804
40.5803
40.5801
40.5799
40.5797
40.5798
40.5796
40.5796
40.5827
40.5827
40.583
40.5832
40.5833
40.5833
40.583
40.5828
40.5825
40.5821
40.5817
40.5813
40.581
40.5808
40.5807
40.5806
40.5805
40.5804
40.5799
40.5799
40.5798
40.5798
40.5824
40.5824
40.5827
40.5828
40.5829
40.5828
40.5827
40.5825
40.5823
40.582
40.5817
40.5815
40.5812
40.581
40.5809
40.5808
40.5808
40.5809
40.5798
40.5799
40.58
40.58
40.5822
40.5822
40.5824
40.5825
40.5825
40.5825
40.5824
40.5822
40.582
40.5818
40.5817
40.5815
40.5813
40.5811
40.581
40.5809
40.5808
40.5808
40.5803
40.5803
40.5803
40.5803
40.5822
40.5822
40.5822
40.5822
40.5822
40.5821
40.582
40.5819
40.5817
40.5816
40.5816
40.5816
40.5814
40.5812
40.581
40.5809
40.5808
40.5807
40.5807
40.5807
40.5807
40.5807
0
40.5822
40.5822
40.5822
40.5822
40.5821
40.582
40.5819
40.5817
40.5816
40.5816
40.5816
40.5814
40.5812
40.581
40.5809
40.5808
40.5807
40.5807
40.5807
40.5807
0
0
40.6057
40.6005
40.597
40.5896
40.5685
40.5613
40.567
40.5734
40.5771
40.579
40.5796
40.5796
40.5793
40.5788
40.5781
40.5771
40.5761
40.5748
40.5731
40.572
0
40.6057
40.6057
40.6005
40.597
40.5896
40.5685
40.5613
40.567
40.5734
40.5771
40.579
40.5796
40.5796
40.5793
40.5788
40.5781
40.5771
40.5761
40.5748
40.5731
40.572
40.572
40.5993
40.5993
40.5979
40.5958
40.5909
40.5781
40.5656
40.5667
40.5715
40.5754
40.5777
40.5788
40.5793
40.5792
40.5787
40.5781
40.5773
40.5764
40.5754
40.5742
40.5734
40.5734
40.5953
40.5953
40.595
40.594
40.5917
40.5851
40.5735
40.5694
40.5711
40.5742
40.5766
40.578
40.5786
40.5787
40.5784
40.578
40.5775
40.5768
40.5761
40.5755
40.5749
40.5749
40.5924
40.5924
40.5925
40.5921
40.5907
40.5866
40.5778
40.5716
40.5711
40.5734
40.5756
40.5771
40.5779
40.5782
40.5781
40.578
40.5777
40.5773
40.5768
40.5764
40.576
40.576
40.5903
40.5903
40.5905
40.5904
40.5896
40.5869
40.5811
40.5758
40.5741
40.5746
40.5755
40.5765
40.5772
40.5777
40.5779
40.578
40.5779
40.5777
40.5774
40.5771
40.5768
40.5768
40.5886
40.5886
40.5889
40.589
40.589
40.5882
40.5859
40.5816
40.5779
40.576
40.5755
40.576
40.5769
40.5775
40.5779
40.5781
40.5782
40.578
40.5778
40.5777
40.5775
40.5775
40.5872
40.5872
40.5875
40.5877
40.5878
40.5874
40.5857
40.5822
40.5783
40.5758
40.5755
40.5764
40.5772
40.5779
40.5782
40.5784
40.5784
40.5783
40.5782
40.5782
40.578
40.578
40.586
40.586
40.5863
40.5864
40.5864
40.5859
40.5846
40.5821
40.5794
40.5782
40.578
40.5781
40.5784
40.5786
40.5788
40.5788
40.5788
40.5787
40.5787
40.5787
40.5785
40.5785
40.585
40.585
40.5853
40.5854
40.5854
40.5851
40.5844
40.5835
40.5827
40.5818
40.5807
40.5799
40.5795
40.5794
40.5794
40.5793
40.5792
40.5791
40.5791
40.5792
40.579
40.579
40.5842
40.5842
40.5845
40.5846
40.5846
40.5845
40.5843
40.5841
40.5839
40.583
40.5819
40.581
40.5804
40.5801
40.5799
40.5798
40.5796
40.5795
40.5795
40.5795
40.5794
40.5794
40.5836
40.5836
40.5839
40.584
40.5841
40.5841
40.584
40.5838
40.5836
40.583
40.5822
40.5814
40.5809
40.5806
40.5804
40.5802
40.58
40.5799
40.5798
40.5798
40.5797
40.5797
40.5832
40.5832
40.5834
40.5835
40.5836
40.5836
40.5835
40.5834
40.5831
40.5827
40.5821
40.5816
40.5812
40.5809
40.5807
40.5805
40.5804
40.5803
40.5801
40.58
40.5799
40.5799
40.5828
40.5828
40.583
40.5831
40.5831
40.5831
40.583
40.5829
40.5827
40.5824
40.582
40.5817
40.5813
40.5811
40.5809
40.5808
40.5807
40.5805
40.5803
40.5803
40.5802
40.5802
40.5825
40.5825
40.5827
40.5827
40.5827
40.5827
40.5826
40.5825
40.5823
40.5821
40.5819
40.5817
40.5814
40.5812
40.581
40.5809
40.5808
40.5807
40.5805
40.5805
40.5804
40.5804
40.5824
40.5824
40.5825
40.5824
40.5824
40.5823
40.5822
40.5821
40.582
40.5819
40.5818
40.5817
40.5815
40.5813
40.5811
40.581
40.5809
40.5808
40.5808
40.5808
40.5807
40.5807
0
40.5824
40.5825
40.5824
40.5824
40.5823
40.5822
40.5821
40.582
40.5819
40.5818
40.5817
40.5815
40.5813
40.5811
40.581
40.5809
40.5808
40.5808
40.5808
40.5807
0
0
40.6095
40.6056
40.6058
40.5999
40.5327
40.5282
40.5565
40.5732
40.5791
40.5806
40.5807
40.5805
40.5799
40.5791
40.5782
40.5772
40.5761
40.5747
40.5729
40.5717
0
40.6095
40.6095
40.6056
40.6058
40.5999
40.5327
40.5282
40.5565
40.5732
40.5791
40.5806
40.5807
40.5805
40.5799
40.5791
40.5782
40.5772
40.5761
40.5747
40.5729
40.5717
40.5717
40.6024
40.6024
40.602
40.6024
40.5999
40.5762
40.5363
40.5504
40.5675
40.5757
40.5786
40.5797
40.58
40.5797
40.579
40.5781
40.5773
40.5763
40.5753
40.5741
40.5732
40.5732
40.5978
40.5978
40.5982
40.599
40.5999
40.5937
40.562
40.5563
40.5641
40.572
40.5765
40.5786
40.5793
40.5791
40.5786
40.578
40.5774
40.5767
40.576
40.5753
40.5747
40.5747
40.5945
40.5945
40.595
40.5958
40.5966
40.5936
40.5722
40.5575
40.5595
40.5679
40.5738
40.5768
40.5778
40.5781
40.5781
40.5779
40.5776
40.5771
40.5767
40.5763
40.5759
40.5759
40.5919
40.5919
40.5924
40.593
40.5934
40.5896
40.5776
40.5671
40.5662
40.5711
40.574
40.575
40.5762
40.5772
40.5777
40.5778
40.5778
40.5775
40.5773
40.577
40.5767
40.5767
40.59
40.59
40.5904
40.5912
40.5926
40.5937
40.5934
40.5851
40.5774
40.5742
40.5721
40.573
40.5753
40.5768
40.5776
40.5779
40.578
40.5779
40.5778
40.5777
40.5774
40.5774
40.5883
40.5883
40.5887
40.5894
40.5905
40.5913
40.5895
40.5825
40.574
40.5687
40.57
40.5733
40.5758
40.5772
40.5779
40.5783
40.5783
40.5783
40.5782
40.5782
40.578
40.578
40.5869
40.5869
40.5872
40.5876
40.588
40.5878
40.5858
40.5808
40.5745
40.5747
40.576
40.5769
40.5776
40.5782
40.5786
40.5787
40.5788
40.5787
40.5787
40.5787
40.5785
40.5785
40.5857
40.5857
40.586
40.5862
40.5864
40.5863
40.5858
40.5849
40.5854
40.5844
40.5816
40.58
40.5794
40.5793
40.5793
40.5793
40.5792
40.5792
40.5791
40.5791
40.579
40.579
40.5848
40.5848
40.5851
40.5852
40.5853
40.5854
40.5856
40.5861
40.5867
40.5851
40.583
40.5814
40.5805
40.5801
40.5799
40.5797
40.5796
40.5796
40.5795
40.5795
40.5794
40.5794
40.5841
40.5841
40.5843
40.5844
40.5846
40.5847
40.5848
40.5851
40.585
40.5842
40.583
40.5819
40.5811
40.5806
40.5803
40.5802
40.58
40.5799
40.5799
40.5798
40.5797
40.5797
40.5835
40.5835
40.5837
40.5838
40.5839
40.584
40.584
40.5841
40.5839
40.5834
40.5827
40.5819
40.5814
40.5809
40.5807
40.5805
40.5804
40.5802
40.5801
40.5801
40.58
40.58
40.5831
40.5831
40.5833
40.5833
40.5834
40.5834
40.5834
40.5833
40.5831
40.5828
40.5823
40.5819
40.5815
40.5811
40.5809
40.5807
40.5806
40.5805
40.5804
40.5804
40.5803
40.5803
40.5828
40.5828
40.5829
40.5829
40.5829
40.5829
40.5828
40.5827
40.5826
40.5824
40.5821
40.5818
40.5815
40.5813
40.5811
40.5809
40.5808
40.5807
40.5806
40.5806
40.5805
40.5805
40.5826
40.5826
40.5827
40.5826
40.5826
40.5825
40.5824
40.5823
40.5822
40.5821
40.5819
40.5817
40.5815
40.5814
40.5812
40.5811
40.581
40.5809
40.5809
40.5809
40.5808
40.5808
0
40.5826
40.5827
40.5826
40.5826
40.5825
40.5824
40.5823
40.5822
40.5821
40.5819
40.5817
40.5815
40.5814
40.5812
40.5811
40.581
40.5809
40.5809
40.5809
40.5808
0
0
40.6116
40.6098
40.6189
40.6492
40.5589
40.4789
40.5501
40.5781
40.5837
40.5836
40.5826
40.5817
40.5806
40.5793
40.5781
40.577
40.5759
40.5746
40.5728
40.5716
0
40.6116
40.6116
40.6098
40.6189
40.6492
40.5589
40.4789
40.5501
40.5781
40.5837
40.5836
40.5826
40.5817
40.5806
40.5793
40.5781
40.577
40.5759
40.5746
40.5728
40.5716
40.5716
40.6042
40.6042
40.605
40.61
40.6281
40.584
40.5021
40.5364
40.5684
40.5796
40.5821
40.5824
40.5819
40.5807
40.5792
40.578
40.5771
40.5762
40.5751
40.5739
40.5731
40.5731
40.5992
40.5992
40.6001
40.6033
40.6143
40.6161
40.5421
40.5437
40.559
40.5709
40.5779
40.5807
40.5809
40.5798
40.5787
40.5779
40.5773
40.5766
40.5759
40.5752
40.5746
40.5746
40.5955
40.5955
40.5964
40.5986
40.6051
40.6194
40.5653
40.5459
40.5438
40.5599
40.5734
40.5778
40.5784
40.5781
40.5779
40.5777
40.5775
40.577
40.5766
40.5762
40.5758
40.5758
40.5928
40.5928
40.5935
40.595
40.5974
40.601
40.5751
40.5585
40.5505
40.5673
40.5756
40.575
40.5752
40.5764
40.5774
40.5777
40.5777
40.5775
40.5772
40.577
40.5766
40.5766
40.5906
40.5906
40.5913
40.5928
40.596
40.6038
40.6116
40.5921
40.575
40.5755
40.5717
40.5695
40.5728
40.5758
40.5773
40.5778
40.5779
40.5779
40.5777
40.5776
40.5773
40.5773
40.5889
40.5889
40.5894
40.5905
40.5931
40.5993
40.6087
40.5869
40.5664
40.5621
40.5636
40.5683
40.5737
40.5766
40.5778
40.5782
40.5783
40.5783
40.5782
40.5782
40.5779
40.5779
40.5874
40.5874
40.5878
40.5884
40.5895
40.5911
40.5901
40.5765
40.5672
40.5719
40.5723
40.5748
40.577
40.578
40.5785
40.5787
40.5787
40.5787
40.5787
40.5787
40.5785
40.5785
40.5861
40.5861
40.5864
40.5868
40.5872
40.5875
40.587
40.5857
40.5896
40.591
40.584
40.5805
40.5795
40.5793
40.5792
40.5792
40.5792
40.5792
40.5791
40.5791
40.5789
40.5789
40.5851
40.5851
40.5854
40.5856
40.5858
40.5861
40.5867
40.589
40.5951
40.5918
40.5855
40.5821
40.5807
40.5801
40.5799
40.5797
40.5796
40.5796
40.5795
40.5795
40.5793
40.5793
40.5844
40.5844
40.5846
40.5847
40.5849
40.5851
40.5856
40.587
40.589
40.5871
40.5843
40.5823
40.5813
40.5807
40.5804
40.5802
40.58
40.5799
40.5799
40.5799
40.5797
40.5797
40.5838
40.5838
40.584
40.5841
40.5841
40.5843
40.5845
40.5849
40.5852
40.5844
40.5832
40.5822
40.5815
40.581
40.5807
40.5805
40.5803
40.5802
40.5802
40.5802
40.58
40.58
40.5833
40.5833
40.5835
40.5835
40.5836
40.5836
40.5836
40.5837
40.5836
40.5832
40.5826
40.582
40.5816
40.5812
40.5809
40.5808
40.5806
40.5805
40.5805
40.5804
40.5803
40.5803
40.583
40.583
40.5831
40.5831
40.5831
40.5831
40.583
40.583
40.5828
40.5826
40.5823
40.5819
40.5816
40.5813
40.5811
40.581
40.5808
40.5808
40.5807
40.5807
40.5806
40.5806
40.5828
40.5828
40.5828
40.5828
40.5827
40.5826
40.5826
40.5825
40.5824
40.5822
40.582
40.5818
40.5816
40.5814
40.5812
40.5811
40.581
40.581
40.5809
40.5809
40.5809
40.5809
0
40.5828
40.5828
40.5828
40.5827
40.5826
40.5826
40.5825
40.5824
40.5822
40.582
40.5818
40.5816
40.5814
40.5812
40.5811
40.581
40.581
40.5809
40.5809
40.5809
0
0
40.6102
40.6064
40.6069
40.6022
40.5445
40.5292
40.5566
40.5727
40.5786
40.5801
40.5803
40.5802
40.5798
40.5791
40.5782
40.5771
40.576
40.5745
40.5727
40.5715
0
40.6102
40.6102
40.6064
40.6069
40.6022
40.5445
40.5292
40.5566
40.5727
40.5786
40.5801
40.5803
40.5802
40.5798
40.5791
40.5782
40.5771
40.576
40.5745
40.5727
40.5715
40.5715
40.603
40.603
40.6025
40.6026
40.5993
40.5677
40.5384
40.5512
40.5678
40.5762
40.579
40.5797
40.5798
40.5795
40.5789
40.5781
40.5772
40.5762
40.5751
40.5738
40.573
40.573
40.5984
40.5984
40.5986
40.599
40.5986
40.5873
40.5597
40.5557
40.564
40.572
40.5763
40.5784
40.5792
40.579
40.5785
40.5779
40.5773
40.5766
40.5758
40.5751
40.5745
40.5745
40.595
40.595
40.5954
40.5961
40.5967
40.5941
40.5724
40.5595
40.5609
40.568
40.5736
40.5767
40.5779
40.5781
40.578
40.5778
40.5774
40.577
40.5765
40.5761
40.5757
40.5757
40.5925
40.5925
40.5929
40.5936
40.5941
40.5923
40.578
40.5663
40.5656
40.5707
40.5739
40.5754
40.5764
40.5772
40.5777
40.5778
40.5777
40.5774
40.5772
40.5769
40.5766
40.5766
40.5905
40.5905
40.5909
40.5917
40.5931
40.5941
40.59
40.5827
40.5763
40.5738
40.5728
40.5735
40.5753
40.5768
40.5776
40.5779
40.578
40.5779
40.5777
40.5776
40.5773
40.5773
40.5888
40.5888
40.5892
40.5899
40.591
40.5923
40.5917
40.5839
40.5749
40.5705
40.5706
40.5733
40.5758
40.5773
40.578
40.5783
40.5783
40.5783
40.5782
40.5782
40.5779
40.5779
40.5874
40.5874
40.5877
40.5881
40.5886
40.589
40.5876
40.5822
40.5756
40.5736
40.5751
40.5767
40.5777
40.5783
40.5786
40.5787
40.5788
40.5787
40.5787
40.5787
40.5784
40.5784
40.5862
40.5862
40.5865
40.5867
40.5869
40.5869
40.5864
40.5849
40.5835
40.583
40.5813
40.58
40.5795
40.5793
40.5793
40.5793
40.5792
40.5792
40.5791
40.5791
40.5789
40.5789
40.5852
40.5852
40.5855
40.5856
40.5857
40.5858
40.5859
40.5862
40.5869
40.5856
40.5833
40.5816
40.5806
40.5801
40.5799
40.5797
40.5796
40.5796
40.5795
40.5795
40.5793
40.5793
40.5845
40.5845
40.5847
40.5848
40.5849
40.585
40.5851
40.5855
40.5859
40.5849
40.5833
40.582
40.5812
40.5807
40.5804
40.5802
40.58
40.5799
40.5799
40.5799
40.5797
40.5797
40.5839
40.5839
40.5841
40.5842
40.5842
40.5843
40.5843
40.5845
40.5845
40.5839
40.5829
40.5821
40.5815
40.581
40.5807
40.5805
40.5804
40.5803
40.5802
40.5802
40.58
40.58
40.5834
40.5834
40.5836
40.5837
40.5837
40.5837
40.5836
40.5836
40.5835
40.5831
40.5826
40.582
40.5816
40.5812
40.581
40.5808
40.5806
40.5805
40.5805
40.5805
40.5803
40.5803
40.5831
40.5831
40.5833
40.5833
40.5832
40.5832
40.5831
40.583
40.5829
40.5826
40.5823
40.582
40.5816
40.5814
40.5811
40.581
40.5809
40.5808
40.5807
40.5807
40.5806
40.5806
40.583
40.583
40.583
40.5829
40.5829
40.5828
40.5827
40.5826
40.5824
40.5823
40.5821
40.5819
40.5817
40.5815
40.5813
40.5812
40.5811
40.581
40.581
40.581
40.5809
40.5809
0
40.583
40.583
40.5829
40.5829
40.5828
40.5827
40.5826
40.5824