# vtk DataFile Version 3.0
FlowField
ASCII
DATASET STRUCTURED_GRID
DIMENSIONS 102 12 1 
POINTS 1224 double
0 0 0
0.3 0 0
0.6 0 0
0.9 0 0
1.2 0 0
1.5 0 0
1.8 0 0
2.1 0 0
2.4 0 0
2.7 0 0
3 0 0
3.3 0 0
3.6 0 0
3.9 0 0
4.2 0 0
4.5 0 0
4.8 0 0
5.1 0 0
5.4 0 0
5.7 0 0
6 0 0
6.3 0 0
6.6 0 0
6.9 0 0
7.2 0 0
7.5 0 0
7.8 0 0
8.1 0 0
8.4 0 0
8.7 0 0
9 0 0
9.3 0 0
9.6 0 0
9.9 0 0
10.2 0 0
10.5 0 0
10.8 0 0
11.1 0 0
11.4 0 0
11.7 0 0
12 0 0
12.3 0 0
12.6 0 0
12.9 0 0
13.2 0 0
13.5 0 0
13.8 0 0
14.1 0 0
14.4 0 0
14.7 0 0
15 0 0
15.3 0 0
15.6 0 0
15.9 0 0
16.2 0 0
16.5 0 0
16.8 0 0
17.1 0 0
17.4 0 0
17.7 0 0
18 0 0
18.3 0 0
18.6 0 0
18.9 0 0
19.2 0 0
19.5 0 0
19.8 0 0
20.1 0 0
20.4 0 0
20.7 0 0
21 0 0
21.3 0 0
21.6 0 0
21.9 0 0
22.2 0 0
22.5 0 0
22.8 0 0
23.1 0 0
23.4 0 0
23.7 0 0
24 0 0
24.3 0 0
24.6 0 0
24.9 0 0
25.2 0 0
25.5 0 0
25.8 0 0
26.1 0 0
26.4 0 0
26.7 0 0
27 0 0
27.3 0 0
27.6 0 0
27.9 0 0
28.2 0 0
28.5 0 0
28.8 0 0
29.1 0 0
29.4 0 0
29.7 0 0
30 0 0
30.3 0 0
0 0.1 0
0.3 0.1 0
0.6 0.1 0
0.9 0.1 0
1.2 0.1 0
1.5 0.1 0
1.8 0.1 0
2.1 0.1 0
2.4 0.1 0
2.7 0.1 0
3 0.1 0
3.3 0.1 0
3.6 0.1 0
3.9 0.1 0
4.2 0.1 0
4.5 0.1 0
4.8 0.1 0
5.1 0.1 0
5.4 0.1 0
5.7 0.1 0
6 0.1 0
6.3 0.1 0
6.6 0.1 0
6.9 0.1 0
7.2 0.1 0
7.5 0.1 0
7.8 0.1 0
8.1 0.1 0
8.4 0.1 0
8.7 0.1 0
9 0.1 0
9.3 0.1 0
9.6 0.1 0
9.9 0.1 0
10.2 0.1 0
10.5 0.1 0
10.8 0.1 0
11.1 0.1 0
11.4 0.1 0
11.7 0.1 0
12 0.1 0
12.3 0.1 0
12.6 0.1 0
12.9 0.1 0
13.2 0.1 0
13.5 0.1 0
13.8 0.1 0
14.1 0.1 0
14.4 0.1 0
14.7 0.1 0
15 0.1 0
15.3 0.1 0
15.6 0.1 0
15.9 0.1 0
16.2 0.1 0
16.5 0.1 0
16.8 0.1 0
17.1 0.1 0
17.4 0.1 0
17.7 0.1 0
18 0.1 0
18.3 0.1 0
18.6 0.1 0
18.9 0.1 0
19.2 0.1 0
19.5 0.1 0
19.8 0.1 0
20.1 0.1 0
20.4 0.1 0
20.7 0.1 0
21 0.1 0
21.3 0.1 0
21.6 0.1 0
21.9 0.1 0
22.2 0.1 0
22.5 0.1 0
22.8 0.1 0
23.1 0.1 0
23.4 0.1 0
23.7 0.1 0
24 0.1 0
24.3 0.1 0
24.6 0.1 0
24.9 0.1 0
25.2 0.1 0
25.5 0.1 0
25.8 0.1 0
26.1 0.1 0
26.4 0.1 0
26.7 0.1 0
27 0.1 0
27.3 0.1 0
27.6 0.1 0
27.9 0.1 0
28.2 0.1 0
28.5 0.1 0
28.8 0.1 0
29.1 0.1 0
29.4 0.1 0
29.7 0.1 0
30 0.1 0
30.3 0.1 0
0 0.2 0
0.3 0.2 0
0.6 0.2 0
0.9 0.2 0
1.2 0.2 0
1.5 0.2 0
1.8 0.2 0
2.1 0.2 0
2.4 0.2 0
2.7 0.2 0
3 0.2 0
3.3 0.2 0
3.6 0.2 0
3.9 0.2 0
4.2 0.2 0
4.5 0.2 0
4.8 0.2 0
5.1 0.2 0
5.4 0.2 0
5.7 0.2 0
6 0.2 0
6.3 0.2 0
6.6 0.2 0
6.9 0.2 0
7.2 0.2 0
7.5 0.2 0
7.8 0.2 0
8.1 0.2 0
8.4 0.2 0
8.7 0.2 0
9 0.2 0
9.3 0.2 0
9.6 0.2 0
9.9 0.2 0
10.2 0.2 0
10.5 0.2 0
10.8 0.2 0
11.1 0.2 0
11.4 0.2 0
11.7 0.2 0
12 0.2 0
12.3 0.2 0
12.6 0.2 0
12.9 0.2 0
13.2 0.2 0
13.5 0.2 0
13.8 0.2 0
14.1 0.2 0
14.4 0.2 0
14.7 0.2 0
15 0.2 0
15.3 0.2 0
15.6 0.2 0
15.9 0.2 0
16.2 0.2 0
16.5 0.2 0
16.8 0.2 0
17.1 0.2 0
17.4 0.2 0
17.7 0.2 0
18 0.2 0
18.3 0.2 0
18.6 0.2 0
18.9 0.2 0
19.2 0.2 0
19.5 0.2 0
19.8 0.2 0
20.1 0.2 0
20.4 0.2 0
20.7 0.2 0
21 0.2 0
21.3 0.2 0
21.6 0.2 0
21.9 0.2 0
22.2 0.2 0
22.5 0.2 0
22.8 0.2 0
23.1 0.2 0
23.4 0.2 0
23.7 0.2 0
24 0.2 0
24.3 0.2 0
24.6 0.2 0
24.9 0.2 0
25.2 0.2 0
25.5 0.2 0
25.8 0.2 0
26.1 0.2 0
26.4 0.2 0
26.7 0.2 0
27 0.2 0
27.3 0.2 0
27.6 0.2 0
27.9 0.2 0
28.2 0.2 0
28.5 0.2 0
28.8 0.2 0
29.1 0.2 0
29.4 0.2 0
29.7 0.2 0
30 0.2 0
30.3 0.2 0
0 0.3 0
0.3 0.3 0
0.6 0.3 0
0.9 0.3 0
1.2 0.3 0
1.5 0.3 0
1.8 0.3 0
2.1 0.3 0
2.4 0.3 0
2.7 0.3 0
3 0.3 0
3.3 0.3 0
3.6 0.3 0
3.9 0.3 0
4.2 0.3 0
4.5 0.3 0
4.8 0.3 0
5.1 0.3 0
5.4 0.3 0
5.7 0.3 0
6 0.3 0
6.3 0.3 0
6.6 0.3 0
6.9 0.3 0
7.2 0.3 0
7.5 0.3 0
7.8 0.3 0
8.1 0.3 0
8.4 0.3 0
8.7 0.3 0
9 0.3 0
9.3 0.3 0
9.6 0.3 0
9.9 0.3 0
10.2 0.3 0
10.5 0.3 0
10.8 0.3 0
11.1 0.3 0
11.4 0.3 0
11.7 0.3 0
12 0.3 0
12.3 0.3 0
12.6 0.3 0
12.9 0.3 0
13.2 0.3 0
13.5 0.3 0
13.8 0.3 0
14.1 0.3 0
14.4 0.3 0
14.7 0.3 0
15 0.3 0
15.3 0.3 0
15.6 0.3 0
15.9 0.3 0
16.2 0.3 0
16.5 0.3 0
16.8 0.3 0
17.1 0.3 0
17.4 0.3 0
17.7 0.3 0
18 0.3 0
18.3 0.3 0
18.6 0.3 0
18.9 0.3 0
19.2 0.3 0
19.5 0.3 0
19.8 0.3 0
20.1 0.3 0
20.4 0.3 0
20.7 0.3 0
21 0.3 0
21.3 0.3 0
21.6 0.3 0
21.9 0.3 0
22.2 0.3 0
22.5 0.3 0
22.8 0.3 0
23.1 0.3 0
23.4 0.3 0
23.7 0.3 0
24 0.3 0
24.3 0.3 0
24.6 0.3 0
24.9 0.3 0
25.2 0.3 0
25.5 0.3 0
25.8 0.3 0
26.1 0.3 0
26.4 0.3 0
26.7 0.3 0
27 0.3 0
27.3 0.3 0
27.6 0.3 0
27.9 0.3 0
28.2 0.3 0
28.5 0.3 0
28.8 0.3 0
29.1 0.3 0
29.4 0.3 0
29.7 0.3 0
30 0.3 0
30.3 0.3 0
0 0.4 0
0.3 0.4 0
0.6 0.4 0
0.9 0.4 0
1.2 0.4 0
1.5 0.4 0
1.8 0.4 0
2.1 0.4 0
2.4 0.4 0
2.7 0.4 0
3 0.4 0
3.3 0.4 0
3.6 0.4 0
3.9 0.4 0
4.2 0.4 0
4.5 0.4 0
4.8 0.4 0
5.1 0.4 0
5.4 0.4 0
5.7 0.4 0
6 0.4 0
6.3 0.4 0
6.6 0.4 0
6.9 0.4 0
7.2 0.4 0
7.5 0.4 0
7.8 0.4 0
8.1 0.4 0
8.4 0.4 0
8.7 0.4 0
9 0.4 0
9.3 0.4 0
9.6 0.4 0
9.9 0.4 0
10.2 0.4 0
10.5 0.4 0
10.8 0.4 0
11.1 0.4 0
11.4 0.4 0
11.7 0.4 0
12 0.4 0
12.3 0.4 0
12.6 0.4 0
12.9 0.4 0
13.2 0.4 0
13.5 0.4 0
13.8 0.4 0
14.1 0.4 0
14.4 0.4 0
14.7 0.4 0
15 0.4 0
15.3 0.4 0
15.6 0.4 0
15.9 0.4 0
16.2 0.4 0
16.5 0.4 0
16.8 0.4 0
17.1 0.4 0
17.4 0.4 0
17.7 0.4 0
18 0.4 0
18.3 0.4 0
18.6 0.4 0
18.9 0.4 0
19.2 0.4 0
19.5 0.4 0
19.8 0.4 0
20.1 0.4 0
20.4 0.4 0
20.7 0.4 0
21 0.4 0
21.3 0.4 0
21.6 0.4 0
21.9 0.4 0
22.2 0.4 0
22.5 0.4 0
22.8 0.4 0
23.1 0.4 0
23.4 0.4 0
23.7 0.4 0
24 0.4 0
24.3 0.4 0
24.6 0.4 0
24.9 0.4 0
25.2 0.4 0
25.5 0.4 0
25.8 0.4 0
26.1 0.4 0
26.4 0.4 0
26.7 0.4 0
27 0.4 0
27.3 0.4 0
27.6 0.4 0
27.9 0.4 0
28.2 0.4 0
28.5 0.4 0
28.8 0.4 0
29.1 0.4 0
29.4 0.4 0
29.7 0.4 0
30 0.4 0
30.3 0.4 0
0 0.5 0
0.3 0.5 0
0.6 0.5 0
0.9 0.5 0
1.2 0.5 0
1.5 0.5 0
1.8 0.5 0
2.1 0.5 0
2.4 0.5 0
2.7 0.5 0
3 0.5 0
3.3 0.5 0
3.6 0.5 0
3.9 0.5 0
4.2 0.5 0
4.5 0.5 0
4.8 0.5 0
5.1 0.5 0
5.4 0.5 0
5.7 0.5 0
6 0.5 0
6.3 0.5 0
6.6 0.5 0
6.9 0.5 0
7.2 0.5 0
7.5 0.5 0
7.8 0.5 0
8.1 0.5 0
8.4 0.5 0
8.7 0.5 0
9 0.5 0
9.3 0.5 0
9.6 0.5 0
9.9 0.5 0
10.2 0.5 0
10.5 0.5 0
10.8 0.5 0
11.1 0.5 0
11.4 0.5 0
11.7 0.5 0
12 0.5 0
12.3 0.5 0
12.6 0.5 0
12.9 0.5 0
13.2 0.5 0
13.5 0.5 0
13.8 0.5 0
14.1 0.5 0
14.4 0.5 0
14.7 0.5 0
15 0.5 0
15.3 0.5 0
15.6 0.5 0
15.9 0.5 0
16.2 0.5 0
16.5 0.5 0
16.8 0.5 0
17.1 0.5 0
17.4 0.5 0
17.7 0.5 0
18 0.5 0
18.3 0.5 0
18.6 0.5 0
18.9 0.5 0
19.2 0.5 0
19.5 0.5 0
19.8 0.5 0
20.1 0.5 0
20.4 0.5 0
20.7 0.5 0
21 0.5 0
21.3 0.5 0
21.6 0.5 0
21.9 0.5 0
22.2 0.5 0
22.5 0.5 0
22.8 0.5 0
23.1 0.5 0
23.4 0.5 0
23.7 0.5 0
24 0.5 0
24.3 0.5 0
24.6 0.5 0
24.9 0.5 0
25.2 0.5 0
25.5 0.5 0
25.8 0.5 0
26.1 0.5 0
26.4 0.5 0
26.7 0.5 0
27 0.5 0
27.3 0.5 0
27.6 0.5 0
27.9 0.5 0
28.2 0.5 0
28.5 0.5 0
28.8 0.5 0
29.1 0.5 0
29.4 0.5 0
29.7 0.5 0
30 0.5 0
30.3 0.5 0
0 0.6 0
0.3 0.6 0
0.6 0.6 0
0.9 0.6 0
1.2 0.6 0
1.5 0.6 0
1.8 0.6 0
2.1 0.6 0
2.4 0.6 0
2.7 0.6 0
3 0.6 0
3.3 0.6 0
3.6 0.6 0
3.9 0.6 0
4.2 0.6 0
4.5 0.6 0
4.8 0.6 0
5.1 0.6 0
5.4 0.6 0
5.7 0.6 0
6 0.6 0
6.3 0.6 0
6.6 0.6 0
6.9 0.6 0
7.2 0.6 0
7.5 0.6 0
7.8 0.6 0
8.1 0.6 0
8.4 0.6 0
8.7 0.6 0
9 0.6 0
9.3 0.6 0
9.6 0.6 0
9.9 0.6 0
10.2 0.6 0
10.5 0.6 0
10.8 0.6 0
11.1 0.6 0
11.4 0.6 0
11.7 0.6 0
12 0.6 0
12.3 0.6 0
12.6 0.6 0
12.9 0.6 0
13.2 0.6 0
13.5 0.6 0
13.8 0.6 0
14.1 0.6 0
14.4 0.6 0
14.7 0.6 0
15 0.6 0
15.3 0.6 0
15.6 0.6 0
15.9 0.6 0
16.2 0.6 0
16.5 0.6 0
16.8 0.6 0
17.1 0.6 0
17.4 0.6 0
17.7 0.6 0
18 0.6 0
18.3 0.6 0
18.6 0.6 0
18.9 0.6 0
19.2 0.6 0
19.5 0.6 0
19.8 0.6 0
20.1 0.6 0
20.4 0.6 0
20.7 0.6 0
21 0.6 0
21.3 0.6 0
21.6 0.6 0
21.9 0.6 0
22.2 0.6 0
22.5 0.6 0
22.8 0.6 0
23.1 0.6 0
23.4 0.6 0
23.7 0.6 0
24 0.6 0
24.3 0.6 0
24.6 0.6 0
24.9 0.6 0
25.2 0.6 0
25.5 0.6 0
25.8 0.6 0
26.1 0.6 0
26.4 0.6 0
26.7 0.6 0
27 0.6 0
27.3 0.6 0
27.6 0.6 0
27.9 0.6 0
28.2 0.6 0
28.5 0.6 0
28.8 0.6 0
29.1 0.6 0
29.4 0.6 0
29.7 0.6 0
30 0.6 0
30.3 0.6 0
0 0.7 0
0.3 0.7 0
0.6 0.7 0
0.9 0.7 0
1.2 0.7 0
1.5 0.7 0
1.8 0.7 0
2.1 0.7 0
2.4 0.7 0
2.7 0.7 0
3 0.7 0
3.3 0.7 0
3.6 0.7 0
3.9 0.7 0
4.2 0.7 0
4.5 0.7 0
4.8 0.7 0
5.1 0.7 0
5.4 0.7 0
5.7 0.7 0
6 0.7 0
6.3 0.7 0
6.6 0.7 0
6.9 0.7 0
7.2 0.7 0
7.5 0.7 0
7.8 0.7 0
8.1 0.7 0
8.4 0.7 0
8.7 0.7 0
9 0.7 0
9.3 0.7 0
9.6 0.7 0
9.9 0.7 0
10.2 0.7 0
10.5 0.7 0
10.8 0.7 0
11.1 0.7 0
11.4 0.7 0
11.7 0.7 0
12 0.7 0
12.3 0.7 0
12.6 0.7 0
12.9 0.7 0
13.2 0.7 0
13.5 0.7 0
13.8 0.7 0
14.1 0.7 0
14.4 0.7 0
14.7 0.7 0
15 0.7 0
15.3 0.7 0
15.6 0.7 0
15.9 0.7 0
16.2 0.7 0
16.5 0.7 0
16.8 0.7 0
17.1 0.7 0
17.4 0.7 0
17.7 0.7 0
18 0.7 0
18.3 0.7 0
18.6 0.7 0
18.9 0.7 0
19.2 0.7 0
19.5 0.7 0
19.8 0.7 0
20.1 0.7 0
20.4 0.7 0
20.7 0.7 0
21 0.7 0
21.3 0.7 0
21.6 0.7 0
21.9 0.7 0
22.2 0.7 0
22.5 0.7 0
22.8 0.7 0
23.1 0.7 0
23.4 0.7 0
23.7 0.7 0
24 0.7 0
24.3 0.7 0
24.6 0.7 0
24.9 0.7 0
25.2 0.7 0
25.5 0.7 0
25.8 0.7 0
26.1 0.7 0
26.4 0.7 0
26.7 0.7 0
27 0.7 0
27.3 0.7 0
27.6 0.7 0
27.9 0.7 0
28.2 0.7 0
28.5 0.7 0
28.8 0.7 0
29.1 0.7 0
29.4 0.7 0
29.7 0.7 0
30 0.7 0
30.3 0.7 0
0 0.8 0
0.3 0.8 0
0.6 0.8 0
0.9 0.8 0
1.2 0.8 0
1.5 0.8 0
1.8 0.8 0
2.1 0.8 0
2.4 0.8 0
2.7 0.8 0
3 0.8 0
3.3 0.8 0
3.6 0.8 0
3.9 0.8 0
4.2 0.8 0
4.5 0.8 0
4.8 0.8 0
5.1 0.8 0
5.4 0.8 0
5.7 0.8 0
6 0.8 0
6.3 0.8 0
6.6 0.8 0
6.9 0.8 0
7.2 0.8 0
7.5 0.8 0
7.8 0.8 0
8.1 0.8 0
8.4 0.8 0
8.7 0.8 0
9 0.8 0
9.3 0.8 0
9.6 0.8 0
9.9 0.8 0
10.2 0.8 0
10.5 0.8 0
10.8 0.8 0
11.1 0.8 0
11.4 0.8 0
11.7 0.8 0
12 0.8 0
12.3 0.8 0
12.6 0.8 0
12.9 0.8 0
13.2 0.8 0
13.5 0.8 0
13.8 0.8 0
14.1 0.8 0
14.4 0.8 0
14.7 0.8 0
15 0.8 0
15.3 0.8 0
15.6 0.8 0
15.9 0.8 0
16.2 0.8 0
16.5 0.8 0
16.8 0.8 0
17.1 0.8 0
17.4 0.8 0
17.7 0.8 0
18 0.8 0
18.3 0.8 0
18.6 0.8 0
18.9 0.8 0
19.2 0.8 0
19.5 0.8 0
19.8 0.8 0
20.1 0.8 0
20.4 0.8 0
20.7 0.8 0
21 0.8 0
21.3 0.8 0
21.6 0.8 0
21.9 0.8 0
22.2 0.8 0
22.5 0.8 0
22.8 0.8 0
23.1 0.8 0
23.4 0.8 0
23.7 0.8 0
24 0.8 0
24.3 0.8 0
24.6 0.8 0
24.9 0.8 0
25.2 0.8 0
25.5 0.8 0
25.8 0.8 0
26.1 0.8 0
26.4 0.8 0
26.7 0.8 0
27 0.8 0
27.3 0.8 0
27.6 0.8 0
27.9 0.8 0
28.2 0.8 0
28.5 0.8 0
28.8 0.8 0
29.1 0.8 0
29.4 0.8 0
29.7 0.8 0
30 0.8 0
30.3 0.8 0
0 0.9 0
0.3 0.9 0
0.6 0.9 0
0.9 0.9 0
1.2 0.9 0
1.5 0.9 0
1.8 0.9 0
2.1 0.9 0
2.4 0.9 0
2.7 0.9 0
3 0.9 0
3.3 0.9 0
3.6 0.9 0
3.9 0.9 0
4.2 0.9 0
4.5 0.9 0
4.8 0.9 0
5.1 0.9 0
5.4 0.9 0
5.7 0.9 0
6 0.9 0
6.3 0.9 0
6.6 0.9 0
6.9 0.9 0
7.2 0.9 0
7.5 0.9 0
7.8 0.9 0
8.1 0.9 0
8.4 0.9 0
8.7 0.9 0
9 0.9 0
9.3 0.9 0
9.6 0.9 0
9.9 0.9 0
10.2 0.9 0
10.5 0.9 0
10.8 0.9 0
11.1 0.9 0
11.4 0.9 0
11.7 0.9 0
12 0.9 0
12.3 0.9 0
12.6 0.9 0
12.9 0.9 0
13.2 0.9 0
13.5 0.9 0
13.8 0.9 0
14.1 0.9 0
14.4 0.9 0
14.7 0.9 0
15 0.9 0
15.3 0.9 0
15.6 0.9 0
15.9 0.9 0
16.2 0.9 0
16.5 0.9 0
16.8 0.9 0
17.1 0.9 0
17.4 0.9 0
17.7 0.9 0
18 0.9 0
18.3 0.9 0
18.6 0.9 0
18.9 0.9 0
19.2 0.9 0
19.5 0.9 0
19.8 0.9 0
20.1 0.9 0
20.4 0.9 0
20.7 0.9 0
21 0.9 0
21.3 0.9 0
21.6 0.9 0
21.9 0.9 0
22.2 0.9 0
22.5 0.9 0
22.8 0.9 0
23.1 0.9 0
23.4 0.9 0
23.7 0.9 0
24 0.9 0
24.3 0.9 0
24.6 0.9 0
24.9 0.9 0
25.2 0.9 0
25.5 0.9 0
25.8 0.9 0
26.1 0.9 0
26.4 0.9 0
26.7 0.9 0
27 0.9 0
27.3 0.9 0
27.6 0.9 0
27.9 0.9 0
28.2 0.9 0
28.5 0.9 0
28.8 0.9 0
29.1 0.9 0
29.4 0.9 0
29.7 0.9 0
30 0.9 0
30.3 0.9 0
0 1 0
0.3 1 0
0.6 1 0
0.9 1 0
1.2 1 0
1.5 1 0
1.8 1 0
2.1 1 0
2.4 1 0
2.7 1 0
3 1 0
3.3 1 0
3.6 1 0
3.9 1 0
4.2 1 0
4.5 1 0
4.8 1 0
5.1 1 0
5.4 1 0
5.7 1 0
6 1 0
6.3 1 0
6.6 1 0
6.9 1 0
7.2 1 0
7.5 1 0
7.8 1 0
8.1 1 0
8.4 1 0
8.7 1 0
9 1 0
9.3 1 0
9.6 1 0
9.9 1 0
10.2 1 0
10.5 1 0
10.8 1 0
11.1 1 0
11.4 1 0
11.7 1 0
12 1 0
12.3 1 0
12.6 1 0
12.9 1 0
13.2 1 0
13.5 1 0
13.8 1 0
14.1 1 0
14.4 1 0
14.7 1 0
15 1 0
15.3 1 0
15.6 1 0
15.9 1 0
16.2 1 0
16.5 1 0
16.8 1 0
17.1 1 0
17.4 1 0
17.7 1 0
18 1 0
18.3 1 0
18.6 1 0
18.9 1 0
19.2 1 0
19.5 1 0
19.8 1 0
20.1 1 0
20.4 1 0
20.7 1 0
21 1 0
21.3 1 0
21.6 1 0
21.9 1 0
22.2 1 0
22.5 1 0
22.8 1 0
23.1 1 0
23.4 1 0
23.7 1 0
24 1 0
24.3 1 0
24.6 1 0
24.9 1 0
25.2 1 0
25.5 1 0
25.8 1 0
26.1 1 0
26.4 1 0
26.7 1 0
27 1 0
27.3 1 0
27.6 1 0
27.9 1 0
28.2 1 0
28.5 1 0
28.8 1 0
29.1 1 0
29.4 1 0
29.7 1 0
30 1 0
30.3 1 0
0 1.1 0
0.3 1.1 0
0.6 1.1 0
0.9 1.1 0
1.2 1.1 0
1.5 1.1 0
1.8 1.1 0
2.1 1.1 0
2.4 1.1 0
2.7 1.1 0
3 1.1 0
3.3 1.1 0
3.6 1.1 0
3.9 1.1 0
4.2 1.1 0
4.5 1.1 0
4.8 1.1 0
5.1 1.1 0
5.4 1.1 0
5.7 1.1 0
6 1.1 0
6.3 1.1 0
6.6 1.1 0
6.9 1.1 0
7.2 1.1 0
7.5 1.1 0
7.8 1.1 0
8.1 1.1 0
8.4 1.1 0
8.7 1.1 0
9 1.1 0
9.3 1.1 0
9.6 1.1 0
9.9 1.1 0
10.2 1.1 0
10.5 1.1 0
10.8 1.1 0
11.1 1.1 0
11.4 1.1 0
11.7 1.1 0
12 1.1 0
12.3 1.1 0
12.6 1.1 0
12.9 1.1 0
13.2 1.1 0
13.5 1.1 0
13.8 1.1 0
14.1 1.1 0
14.4 1.1 0
14.7 1.1 0
15 1.1 0
15.3 1.1 0
15.6 1.1 0
15.9 1.1 0
16.2 1.1 0
16.5 1.1 0
16.8 1.1 0
17.1 1.1 0
17.4 1.1 0
17.7 1.1 0
18 1.1 0
18.3 1.1 0
18.6 1.1 0
18.9 1.1 0
19.2 1.1 0
19.5 1.1 0
19.8 1.1 0
20.1 1.1 0
20.4 1.1 0
20.7 1.1 0
21 1.1 0
21.3 1.1 0
21.6 1.1 0
21.9 1.1 0
22.2 1.1 0
22.5 1.1 0
22.8 1.1 0
23.1 1.1 0
23.4 1.1 0
23.7 1.1 0
24 1.1 0
24.3 1.1 0
24.6 1.1 0
24.9 1.1 0
25.2 1.1 0
25.5 1.1 0
25.8 1.1 0
26.1 1.1 0
26.4 1.1 0
26.7 1.1 0
27 1.1 0
27.3 1.1 0
27.6 1.1 0
27.9 1.1 0
28.2 1.1 0
28.5 1.1 0
28.8 1.1 0
29.1 1.1 0
29.4 1.1 0
29.7 1.1 0
30 1.1 0
30.3 1.1 0

POINT_DATA 1224

SCALARS pressure double
LOOKUP_TABLE pressure
1.3156
1.3156
1.24908
1.202
1.15905
1.1194
1.08337
1.05099
1.02189
0.995553
0.971441
0.949088
0.928116
0.908235
0.889228
0.870938
0.853248
0.836066
0.819326
0.802976
0.786974
0.771281
0.755871
0.740719
0.725802
0.7111
0.696598
0.682281
0.668131
0.65414
0.640296
0.626588
0.613004
0.599538
0.586182
0.572929
0.55977
0.5467
0.533713
0.520804
0.507967
0.495198
0.482492
0.469845
0.457254
0.444715
0.432224
0.419779
0.407377
0.395015
0.382689
0.3704
0.358142
0.345916
0.333719
0.321548
0.309403
0.297282
0.285183
0.273105
0.261048
0.249009
0.236989
0.224986
0.212999
0.201028
0.189072
0.177131
0.165203
0.153289
0.141386
0.129495
0.117615
0.105744
0.0938829
0.0820296
0.0701836
0.0583441
0.0465103
0.0346815
0.0228569
0.0110359
-0.000781953
-0.0125973
-0.0244105
-0.0362221
-0.0480322
-0.0598413
-0.0716495
-0.0834571
-0.0952642
-0.107071
-0.118877
-0.130683
-0.142489
-0.154295
-0.166101
-0.177907
-0.189712
-0.201518
-0.213322
0.213322
1.3156
1.3156
1.24908
1.202
1.15905
1.1194
1.08337
1.05099
1.02189
0.995553
0.971441
0.949088
0.928116
0.908235
0.889228
0.870938
0.853248
0.836066
0.819326
0.802976
0.786974
0.771281
0.755871
0.740719
0.725802
0.7111
0.696598
0.682281
0.668131
0.65414
0.640296
0.626588
0.613004
0.599538
0.586182
0.572929
0.55977
0.5467
0.533713
0.520804
0.507967
0.495198
0.482492
0.469845
0.457254
0.444715
0.432224
0.419779
0.407377
0.395015
0.382689
0.3704
0.358142
0.345916
0.333719
0.321548
0.309403
0.297282
0.285183
0.273105
0.261048
0.249009
0.236989
0.224986
0.212999
0.201028
0.189072
0.177131
0.165203
0.153289
0.141386
0.129495
0.117615
0.105744
0.0938829
0.0820296
0.0701836
0.0583441
0.0465103
0.0346815
0.0228569
0.0110359
-0.000781953
-0.0125973
-0.0244105
-0.0362221
-0.0480322
-0.0598413
-0.0716495
-0.0834571
-0.0952642
-0.107071
-0.118877
-0.130683
-0.142489
-0.154295
-0.166101
-0.177907
-0.189712
-0.201518
-0.213322
0.213322
1.29495
1.29495
1.24729
1.20232
1.15977
1.12017
1.08408
1.05158
1.02236
0.995922
0.971727
0.949309
0.928289
0.908372
0.889339
0.87103
0.853326
0.836133
0.819384
0.803027
0.787019
0.771321
0.755907
0.740752
0.725831
0.711127
0.696623
0.682303
0.668152
0.654159
0.640314
0.626604
0.613019
0.599552
0.586195
0.572941
0.559781
0.54671
0.533723
0.520813
0.507975
0.495205
0.482499
0.469852
0.45726
0.444721
0.43223
0.419784
0.407382
0.395019
0.382694
0.370404
0.358146
0.34592
0.333722
0.321551
0.309406
0.297284
0.285185
0.273107
0.26105
0.249011
0.236991
0.224987
0.213001
0.20103
0.189074
0.177132
0.165204
0.153289
0.141387
0.129496
0.117615
0.105745
0.0938832
0.0820298
0.0701837
0.0583442
0.0465104
0.0346815
0.0228569
0.0110359
-0.000781956
-0.0125973
-0.0244105
-0.0362221
-0.0480322
-0.0598413
-0.0716495
-0.0834571
-0.0952642
-0.107071
-0.118877
-0.130683
-0.142489
-0.154295
-0.166101
-0.177907
-0.189712
-0.201518
-0.213322
0.213322
1.28056
1.28056
1.24478
1.20271
1.1609
1.12143
1.08525
1.05257
1.02315
0.996529
0.972183
0.94965
0.928545
0.908566
0.889489
0.871149
0.853421
0.836211
0.81945
0.803084
0.787067
0.771363
0.755944
0.740785
0.725861
0.711154
0.696647
0.682325
0.668172
0.654177
0.64033
0.626618
0.613032
0.599565
0.586207
0.572952
0.559791
0.546719
0.533731
0.52082
0.507982
0.495212
0.482505
0.469857
0.457265
0.444726
0.432234
0.419789
0.407386
0.395023
0.382697
0.370407
0.358149
0.345922
0.333724
0.321554
0.309408
0.297286
0.285187
0.273109
0.261051
0.249013
0.236992
0.224989
0.213002
0.201031
0.189075
0.177133
0.165205
0.15329
0.141387
0.129496
0.117616
0.105745
0.0938834
0.08203
0.0701839
0.0583443
0.0465104
0.0346815
0.0228569
0.011036
-0.000781936
-0.0125973
-0.0244105
-0.0362221
-0.0480322
-0.0598413
-0.0716495
-0.0834571
-0.0952642
-0.107071
-0.118877
-0.130683
-0.142489
-0.154295
-0.166101
-0.177907
-0.189712
-0.201518
-0.213322
0.213322
1.27187
1.27187
1.24277
1.20297
1.16183
1.12251
1.08628
1.05347
1.02389
0.997107
0.972631
0.949995
0.928811
0.908773
0.889654
0.871282
0.85353
0.836302
0.819528
0.803151
0.787125
0.771414
0.75599
0.740825
0.725896
0.711185
0.696676
0.68235
0.668195
0.654199
0.64035
0.626636
0.613049
0.59958
0.586221
0.572964
0.559802
0.54673
0.533741
0.520829
0.507991
0.49522
0.482512
0.469864
0.457272
0.444731
0.43224
0.419794
0.40739
0.395027
0.382701
0.370411
0.358153
0.345926
0.333727
0.321556
0.309411
0.297289
0.28519
0.273112
0.261054
0.249015
0.236994
0.22499
0.213003
0.201032
0.189076
0.177134
0.165206
0.153291
0.141388
0.129497
0.117617
0.105746
0.093884
0.0820305
0.0701843
0.0583447
0.0465108
0.0346818
0.0228572
0.0110362
-0.000781774
-0.0125972
-0.0244104
-0.036222
-0.0480322
-0.0598413
-0.0716495
-0.0834571
-0.0952641
-0.107071
-0.118877
-0.130683
-0.142489
-0.154295
-0.166101
-0.177907
-0.189712
-0.201517
-0.213322
0.213322
1.26779
1.26779
1.24169
1.20309
1.16232
1.1231
1.08685
1.05397
1.0243
0.997442
0.972895
0.950202
0.928974
0.908904
0.88976
0.87137
0.853603
0.836364
0.819582
0.803198
0.787166
0.771451
0.756022
0.740854
0.725922
0.711209
0.696697
0.68237
0.668213
0.654215
0.640364
0.626649
0.613061
0.599591
0.586231
0.572974
0.559811
0.546738
0.533749
0.520837
0.507997
0.495226
0.482518
0.469869
0.457277
0.444736
0.432244
0.419798
0.407394
0.39503
0.382704
0.370413
0.358155
0.345928
0.33373
0.321559
0.309413
0.297291
0.285191
0.273113
0.261055
0.249016
0.236995
0.224992
0.213005
0.201033
0.189077
0.177135
0.165207
0.153292
0.141389
0.129498
0.117617
0.105746
0.0938847
0.0820311
0.0701849
0.0583451
0.0465112
0.0346822
0.0228574
0.0110364
-0.000781581
-0.012597
-0.0244103
-0.0362219
-0.0480321
-0.0598412
-0.0716495
-0.0834571
-0.0952641
-0.107071
-0.118877
-0.130683
-0.142489
-0.154295
-0.166101
-0.177906
-0.189712
-0.201516
-0.213321
0.213321
1.26779
1.26779
1.24169
1.20309
1.16232
1.1231
1.08685
1.05397
1.0243
0.997442
0.972895
0.950203
0.928974
0.908904
0.88976
0.87137
0.853603
0.836364
0.819582
0.803198
0.787166
0.771451
0.756023
0.740854
0.725922
0.711209
0.696697
0.68237
0.668213
0.654215
0.640364
0.626649
0.613061
0.599591
0.586231
0.572974
0.559811
0.546738
0.533749
0.520836
0.507997
0.495226
0.482518
0.469869
0.457277
0.444736
0.432244
0.419798
0.407394
0.39503
0.382704
0.370413
0.358155
0.345928
0.33373
0.321559
0.309413
0.297291
0.285191
0.273113
0.261055
0.249016
0.236995
0.224992
0.213005
0.201033
0.189077
0.177135
0.165207
0.153292
0.141389
0.129498
0.117617
0.105746
0.0938847
0.0820311
0.0701849
0.0583451
0.0465112
0.0346822
0.0228574
0.0110364
-0.000781579
-0.012597
-0.0244103
-0.0362219
-0.0480321
-0.0598412
-0.0716495
-0.083457
-0.0952641
-0.107071
-0.118877
-0.130683
-0.142489
-0.154295
-0.166101
-0.177906
-0.189712
-0.201516
-0.213321
0.213321
1.27187
1.27187
1.24277
1.20297
1.16183
1.12251
1.08628
1.05347
1.02389
0.997107
0.972631
0.949995
0.928811
0.908773
0.889654
0.871282
0.85353
0.836302
0.819528
0.803151
0.787124
0.771414
0.75599
0.740825
0.725896
0.711186
0.696676
0.68235
0.668195
0.654199
0.640349
0.626636
0.613049
0.59958
0.586221
0.572964
0.559802
0.54673
0.533741
0.520829
0.507991
0.49522
0.482512
0.469864
0.457272
0.444731
0.43224
0.419794
0.40739
0.395027
0.382701
0.37041
0.358153
0.345926
0.333727
0.321556
0.309411
0.297289
0.28519
0.273112
0.261054
0.249015
0.236994
0.22499
0.213003
0.201032
0.189076
0.177134
0.165206
0.153291
0.141388
0.129497
0.117617
0.105746
0.0938841
0.0820305
0.0701843
0.0583447
0.0465108
0.0346818
0.0228572
0.0110362
-0.000781769
-0.0125972
-0.0244104
-0.036222
-0.0480322
-0.0598413
-0.0716495
-0.0834571
-0.0952641
-0.107071
-0.118877
-0.130683
-0.142489
-0.154295
-0.166101
-0.177907
-0.189712
-0.201517
-0.213322
0.213322
1.28056
1.28056
1.24478
1.20271
1.1609
1.12143
1.08525
1.05257
1.02315
0.996528
0.972183
0.949651
0.928544
0.908565
0.889489
0.871149
0.85342
0.836211
0.819451
0.803084
0.787066
0.771364
0.755945
0.740785
0.72586
0.711154
0.696647
0.682324
0.668172
0.654178
0.64033
0.626618
0.613033
0.599565
0.586207
0.572951
0.559791
0.546719
0.533731
0.52082
0.507982
0.495212
0.482505
0.469857
0.457265
0.444726
0.432234
0.419789
0.407386
0.395023
0.382697
0.370407
0.358149
0.345922
0.333724
0.321554
0.309408
0.297286
0.285187
0.273109
0.261051
0.249013
0.236992
0.224989
0.213002
0.201031
0.189075
0.177133
0.165205
0.15329
0.141387
0.129496
0.117616
0.105745
0.0938834
0.08203
0.0701839
0.0583443
0.0465104
0.0346815
0.0228569
0.011036
-0.000781924
-0.0125973
-0.0244105
-0.0362221
-0.0480322
-0.0598413
-0.0716495
-0.0834571
-0.0952642
-0.107071
-0.118877
-0.130683
-0.142489
-0.154295
-0.166101
-0.177907
-0.189712
-0.201518
-0.213322
0.213322
1.29494
1.29494
1.24729
1.20232
1.15977
1.12017
1.08408
1.05158
1.02236
0.995921
0.971727
0.94931
0.928289
0.908371
0.88934
0.871031
0.853325
0.836132
0.819385
0.803027
0.787018
0.771321
0.755908
0.740751
0.725831
0.711127
0.696623
0.682303
0.668152
0.65416
0.640314
0.626603
0.613019
0.599552
0.586196
0.572941
0.559781
0.54671
0.533723
0.520813
0.507975
0.495205
0.482499
0.469852
0.45726
0.444721
0.43223
0.419784
0.407382
0.395019
0.382694
0.370404
0.358146
0.34592
0.333722
0.321551
0.309406
0.297284
0.285185
0.273107
0.26105
0.249011
0.236991
0.224987
0.213001
0.20103
0.189074
0.177132
0.165204
0.153289
0.141387
0.129496
0.117615
0.105745
0.0938832
0.0820298
0.0701837
0.0583442
0.0465103
0.0346815
0.0228569
0.011036
-0.000781935
-0.0125973
-0.0244105
-0.0362221
-0.0480322
-0.0598413
-0.0716495
-0.0834571
-0.0952641
-0.107071
-0.118877
-0.130683
-0.142489
-0.154295
-0.166101
-0.177907
-0.189712
-0.201518
-0.213322
0.213322
1.31559
1.31559
1.24908
1.20201
1.15905
1.1194
1.08337
1.05099
1.02189
0.995552
0.971441
0.949089
0.928116
0.908234
0.889228
0.870939
0.853247
0.836066
0.819327
0.802977
0.786973
0.771281
0.755871
0.740719
0.725801
0.7111
0.696598
0.68228
0.668131
0.654141
0.640296
0.626587
0.613004
0.599538
0.586183
0.572929
0.55977
0.5467
0.533713
0.520804
0.507967
0.495197
0.482492
0.469845
0.457254
0.444715
0.432224
0.419779
0.407377
0.395014
0.38269
0.3704
0.358142
0.345916
0.333719
0.321548
0.309403
0.297282
0.285183
0.273105
0.261048
0.249009
0.236989
0.224986
0.212999
0.201028
0.189072
0.177131
0.165203
0.153289
0.141386
0.129495
0.117615
0.105744
0.0938829
0.0820296
0.0701836
0.0583441
0.0465103
0.0346815
0.0228569
0.011036
-0.000781928
-0.0125973
-0.0244105
-0.036222
-0.0480322
-0.0598413
-0.0716495
-0.0834571
-0.0952641
-0.107071
-0.118877
-0.130683
-0.142489
-0.154295
-0.166101
-0.177907
-0.189712
-0.201518
-0.213322
0.213322
1.31559
1.31559
1.24908
1.20201
1.15905
1.1194
1.08337
1.05099
1.02189
0.995552
0.971441
0.949089
0.928116
0.908234
0.889228
0.870939
0.853247
0.836066
0.819327
0.802977
0.786973
0.771281
0.755871
0.740719
0.725801
0.7111
0.696598
0.68228
0.668131
0.654141
0.640296
0.626587
0.613004
0.599538
0.586183
0.572929
0.55977
0.5467
0.533713
0.520804
0.507967
0.495197
0.482492
0.469845
0.457254
0.444715
0.432224
0.419779
0.407377
0.395014
0.38269
0.3704
0.358142
0.345916
0.333719
0.321548
0.309403
0.297282
0.285183
0.273105
0.261048
0.249009
0.236989
0.224986
0.212999
0.201028
0.189072
0.177131
0.165203
0.153289
0.141386
0.129495
0.117615
0.105744
0.0938829
0.0820296
0.0701836
0.0583441
0.0465103
0.0346815
0.0228569
0.011036
-0.000781928
-0.0125973
-0.0244105
-0.036222
-0.0480322
-0.0598413
-0.0716495
-0.0834571
-0.0952641
-0.107071
-0.118877
-0.130683
-0.142489
-0.154295
-0.166101
-0.177907
-0.189712
-0.201518
-0.213322
0.213322
SCALARS phi double
LOOKUP_TABLE phi
1
1
1
0.999995
0.999977
0.999931
0.999833
0.999654
0.999363
0.998928
0.998322
0.997523
0.996512
0.995278
0.993814
0.992118
0.990189
0.98803
0.98565
0.983058
0.980269
0.977291
0.974113
0.970689
0.966921
0.962663
0.957724
0.951896
0.94497
0.936766
0.927139
0.915993
0.903282
0.889004
0.873197
0.855935
0.837318
0.817465
0.796512
0.774602
0.751883
0.728502
0.704606
0.680332
0.655813
0.63117
0.606515
0.581952
0.557571
0.533452
0.509668
0.486278
0.463336
0.440884
0.418961
0.397594
0.376807
0.356617
0.337038
0.318076
0.299737
0.282022
0.264929
0.248454
0.232592
0.217336
0.202679
0.188612
0.175126
0.162212
0.149863
0.13807
0.126827
0.116126
0.105961
0.0963287
0.0872239
0.0786431
0.0705832
0.0630408
0.0560123
0.0494931
0.0434773
0.0379574
0.0329234
0.0283627
0.0242602
0.0205975
0.0173534
0.014504
0.0120231
0.00988251
0.00805282
0.0065039
0.00520554
0.00412821
0.00324314
0.0025247
0.0019428
0.00149707
0.00107152
0.00107152
1
1
1
0.999995
0.999977
0.999931
0.999833
0.999654
0.999363
0.998928
0.998322
0.997523
0.996512
0.995278
0.993814
0.992118
0.990189
0.98803
0.98565
0.983058
0.980269
0.977291
0.974113
0.970689
0.966921
0.962663
0.957724
0.951896
0.94497
0.936766
0.927139
0.915993
0.903282
0.889004
0.873197
0.855935
0.837318
0.817465
0.796512
0.774602
0.751883
0.728502
0.704606
0.680332
0.655813
0.63117
0.606515
0.581952
0.557571
0.533452
0.509668
0.486278
0.463336
0.440884
0.418961
0.397594
0.376807
0.356617
0.337038
0.318076
0.299737
0.282022
0.264929
0.248454
0.232592
0.217336
0.202679
0.188612
0.175126
0.162212
0.149863
0.13807
0.126827
0.116126
0.105961
0.0963287
0.0872239
0.0786431
0.0705832
0.0630408
0.0560123
0.0494931
0.0434773
0.0379574
0.0329234
0.0283627
0.0242602
0.0205975
0.0173534
0.014504
0.0120231
0.00988251
0.00805282
0.0065039
0.00520554
0.00412821
0.00324314
0.0025247
0.0019428
0.00149707
0.00107152
0.00107152
0.999998
1
0.999984
0.999921
0.999783
0.999536
0.999146
0.99858
0.997811
0.996819
0.995589
0.994116
0.992397
0.990436
0.98824
0.985816
0.983177
0.980332
0.977296
0.97408
0.9707
0.967169
0.963499
0.959692
0.955734
0.951591
0.947199
0.942472
0.937301
0.931564
0.925137
0.9179
0.909749
0.900597
0.890383
0.879068
0.866639
0.853108
0.838504
0.822879
0.806297
0.788835
0.77058
0.751623
0.732061
0.711989
0.691504
0.6707
0.649665
0.628484
0.607238
0.585999
0.564835
0.543807
0.522971
0.502375
0.482062
0.46207
0.442432
0.423172
0.404315
0.385878
0.367874
0.350312
0.3332
0.316539
0.300329
0.284568
0.269251
0.25437
0.239917
0.225883
0.212256
0.199028
0.186188
0.173726
0.161638
0.149917
0.138563
0.127579
0.116971
0.106753
0.0969378
0.0875467
0.0786015
0.0701261
0.0621445
0.054679
0.0477488
0.0413681
0.0355448
0.0302798
0.0255662
0.0213895
0.0177274
0.0145518
0.0118274
0.00952201
0.00757069
0.00603202
0.00445627
0.00445627
1.00001
0.999992
0.99954
0.998615
0.997207
0.995317
0.992955
0.990144
0.986922
0.983331
0.979421
0.975241
0.970836
0.966247
0.961513
0.956664
0.951728
0.946727
0.941682
0.936608
0.931519
0.926427
0.921341
0.916269
0.911215
0.906176
0.901143
0.896097
0.891007
0.885833
0.880525
0.875025
0.869267
0.863187
0.856719
0.849801
0.842379
0.834403
0.825836
0.816648
0.806821
0.796349
0.785233
0.773485
0.761124
0.748178
0.734682
0.720672
0.706192
0.691287
0.676005
0.660394
0.644503
0.628379
0.612071
0.595623
0.579079
0.562481
0.545868
0.529275
0.512737
0.496282
0.479938
0.463728
0.447673
0.431788
0.416086
0.400577
0.385266
0.370155
0.355241
0.34052
0.325982
0.311615
0.297403
0.283328
0.269371
0.255513
0.241735
0.228023
0.214368
0.200768
0.187234
0.173787
0.160462
0.147307
0.134385
0.121766
0.109532
0.0977648
0.0865489
0.0759621
0.0660729
0.0569365
0.0485919
0.0410617
0.0343438
0.0284446
0.0232492
0.0190461
0.0144864
0.0144864
1.00143
0.99857
0.991252
0.98188
0.971566
0.96086
0.950051
0.939311
0.928756
0.918467
0.908503
0.898898
0.889671
0.880827
0.87236
0.864261
0.856512
0.849098
0.841997
0.835192
0.828664
0.822395
0.816369
0.810569
0.80498
0.799588
0.794378
0.789335
0.784442
0.779679
0.775025
0.770454
0.765936
0.761442
0.756934
0.752378
0.747736
0.742968
0.738038
0.732909
0.727547
0.721922
0.716005
0.709772
0.703204
0.696286
0.689007
0.68136
0.673344
0.664959
0.65621
0.647108
0.637662
0.627888
0.617801
0.607419
0.596762
0.585851
0.574706
0.56335
0.551803
0.540088
0.528224
0.516232
0.504131
0.491937
0.479667
0.467332
0.454944
0.442511
0.430037
0.417523
0.404964
0.392352
0.379674
0.366909
0.354031
0.341009
0.327806
0.314383
0.300701
0.286724
0.272425
0.257788
0.242817
0.227535
0.211993
0.196266
0.180456
0.164687
0.149101
0.133851
0.119091
0.104974
0.0916346
0.0791936
0.0677293
0.0573517
0.0479051
0.0401041
0.0312362
0.0312362
1.0456
0.954401
0.887723
0.838674
0.801641
0.772861
0.749886
0.731119
0.715499
0.702298
0.691001
0.681228
0.672693
0.665173
0.658493
0.652515
0.647126
0.642236
0.637772
0.633674
0.629891
0.626383
0.623115
0.620059
0.61719
0.614489
0.611936
0.609517
0.607218
0.605026
0.602928
0.600913
0.598967
0.597079
0.595233
0.593416
0.59161
0.5898
0.587966
0.58609
0.584153
0.582134
0.580015
0.577775
0.575395
0.572857
0.570144
0.56724
0.564129
0.560799
0.557238
0.553436
0.549385
0.545079
0.540513
0.535684
0.53059
0.52523
0.519608
0.513724
0.507583
0.501189
0.494547
0.487664
0.480546
0.473199
0.465631
0.457845
0.449849
0.441646
0.433237
0.424622
0.415798
0.406756
0.397481
0.387955
0.378149
0.368025
0.35754
0.34664
0.335266
0.323359
0.31086
0.29772
0.283906
0.269408
0.254243
0.238465
0.222162
0.20546
0.188516
0.171515
0.154658
0.138155
0.12221
0.107018
0.0927259
0.0795402
0.0672862
0.057041
0.045056
0.045056
-0.0455988
0.0455988
0.112277
0.161327
0.198359
0.227139
0.250114
0.268881
0.284501
0.297702
0.308999
0.318772
0.327307
0.334827
0.341507
0.347485
0.352874
0.357764
0.362228
0.366327
0.37011
0.373618
0.376885
0.379941
0.38281
0.385511
0.388064
0.390482
0.392779
0.394965
0.397052
0.399045
0.400953
0.402781
0.404533
0.406211
0.407818
0.409355
0.410819
0.41221
0.413523
0.414755
0.4159
0.416952
0.417903
0.418745
0.419469
0.420065
0.420524
0.420835
0.420989
0.420973
0.420779
0.420396
0.419813
0.419021
0.418012
0.416776
0.415305
0.413592
0.411631
0.409416
0.406941
0.404203
0.401196
0.397918
0.394367
0.390537
0.386428
0.382034
0.377351
0.372371