# vtk DataFile Version 3.0
FlowField
ASCII
DATASET STRUCTURED_GRID
DIMENSIONS 22 17 12 
POINTS 4488 double
0 0 0
0.1 0 0
0.2 0 0
0.3 0 0
0.4 0 0
0.5 0 0
0.6 0 0
0.7 0 0
0.8 0 0
0.9 0 0
1 0 0
1.1 0 0
1.2 0 0
1.3 0 0
1.4 0 0
1.5 0 0
1.6 0 0
1.7 0 0
1.8 0 0
1.9 0 0
2 0 0
2.1 0 0
0 0.1 0
0.1 0.1 0
0.2 0.1 0
0.3 0.1 0
0.4 0.1 0
0.5 0.1 0
0.6 0.1 0
0.7 0.1 0
0.8 0.1 0
0.9 0.1 0
1 0.1 0
1.1 0.1 0
1.2 0.1 0
1.3 0.1 0
1.4 0.1 0
1.5 0.1 0
1.6 0.1 0
1.7 0.1 0
1.8 0.1 0
1.9 0.1 0
2 0.1 0
2.1 0.1 0
0 0.2 0
0.1 0.2 0
0.2 0.2 0
0.3 0.2 0
0.4 0.2 0
0.5 0.2 0
0.6 0.2 0
0.7 0.2 0
0.8 0.2 0
0.9 0.2 0
1 0.2 0
1.1 0.2 0
1.2 0.2 0
1.3 0.2 0
1.4 0.2 0
1.5 0.2 0
1.6 0.2 0
1.7 0.2 0
1.8 0.2 0
1.9 0.2 0
2 0.2 0
2.1 0.2 0
0 0.3 0
0.1 0.3 0
0.2 0.3 0
0.3 0.3 0
0.4 0.3 0
0.5 0.3 0
0.6 0.3 0
0.7 0.3 0
0.8 0.3 0
0.9 0.3 0
1 0.3 0
1.1 0.3 0
1.2 0.3 0
1.3 0.3 0
1.4 0.3 0
1.5 0.3 0
1.6 0.3 0
1.7 0.3 0
1.8 0.3 0
1.9 0.3 0
2 0.3 0
2.1 0.3 0
0 0.4 0
0.1 0.4 0
0.2 0.4 0
0.3 0.4 0
0.4 0.4 0
0.5 0.4 0
0.6 0.4 0
0.7 0.4 0
0.8 0.4 0
0.9 0.4 0
1 0.4 0
1.1 0.4 0
1.2 0.4 0
1.3 0.4 0
1.4 0.4 0
1.5 0.4 0
1.6 0.4 0
1.7 0.4 0
1.8 0.4 0
1.9 0.4 0
2 0.4 0
2.1 0.4 0
0 0.5 0
0.1 0.5 0
0.2 0.5 0
0.3 0.5 0
0.4 0.5 0
0.5 0.5 0
0.6 0.5 0
0.7 0.5 0
0.8 0.5 0
0.9 0.5 0
1 0.5 0
1.1 0.5 0
1.2 0.5 0
1.3 0.5 0
1.4 0.5 0
1.5 0.5 0
1.6 0.5 0
1.7 0.5 0
1.8 0.5 0
1.9 0.5 0
2 0.5 0
2.1 0.5 0
0 0.6 0
0.1 0.6 0
0.2 0.6 0
0.3 0.6 0
0.4 0.6 0
0.5 0.6 0
0.6 0.6 0
0.7 0.6 0
0.8 0.6 0
0.9 0.6 0
1 0.6 0
1.1 0.6 0
1.2 0.6 0
1.3 0.6 0
1.4 0.6 0
1.5 0.6 0
1.6 0.6 0
1.7 0.6 0
1.8 0.6 0
1.9 0.6 0
2 0.6 0
2.1 0.6 0
0 0.7 0
0.1 0.7 0
0.2 0.7 0
0.3 0.7 0
0.4 0.7 0
0.5 0.7 0
0.6 0.7 0
0.7 0.7 0
0.8 0.7 0
0.9 0.7 0
1 0.7 0
1.1 0.7 0
1.2 0.7 0
1.3 0.7 0
1.4 0.7 0
1.5 0.7 0
1.6 0.7 0
1.7 0.7 0
1.8 0.7 0
1.9 0.7 0
2 0.7 0
2.1 0.7 0
0 0.8 0
0.1 0.8 0
0.2 0.8 0
0.3 0.8 0
0.4 0.8 0
0.5 0.8 0
0.6 0.8 0
0.7 0.8 0
0.8 0.8 0
0.9 0.8 0
1 0.8 0
1.1 0.8 0
1.2 0.8 0
1.3 0.8 0
1.4 0.8 0
1.5 0.8 0
1.6 0.8 0
1.7 0.8 0
1.8 0.8 0
1.9 0.8 0
2 0.8 0
2.1 0.8 0
0 0.9 0
0.1 0.9 0
0.2 0.9 0
0.3 0.9 0
0.4 0.9 0
0.5 0.9 0
0.6 0.9 0
0.7 0.9 0
0.8 0.9 0
0.9 0.9 0
1 0.9 0
1.1 0.9 0
1.2 0.9 0
1.3 0.9 0
1.4 0.9 0
1.5 0.9 0
1.6 0.9 0
1.7 0.9 0
1.8 0.9 0
1.9 0.9 0
2 0.9 0
2.1 0.9 0
0 1 0
0.1 1 0
0.2 1 0
0.3 1 0
0.4 1 0
0.5 1 0
0.6 1 0
0.7 1 0
0.8 1 0
0.9 1 0
1 1 0
1.1 1 0
1.2 1 0
1.3 1 0
1.4 1 0
1.5 1 0
1.6 1 0
1.7 1 0
1.8 1 0
1.9 1 0
2 1 0
2.1 1 0
0 1.1 0
0.1 1.1 0
0.2 1.1 0
0.3 1.1 0
0.4 1.1 0
0.5 1.1 0
0.6 1.1 0
0.7 1.1 0
0.8 1.1 0
0.9 1.1 0
1 1.1 0
1.1 1.1 0
1.2 1.1 0
1.3 1.1 0
1.4 1.1 0
1.5 1.1 0
1.6 1.1 0
1.7 1.1 0
1.8 1.1 0
1.9 1.1 0
2 1.1 0
2.1 1.1 0
0 1.2 0
0.1 1.2 0
0.2 1.2 0
0.3 1.2 0
0.4 1.2 0
0.5 1.2 0
0.6 1.2 0
0.7 1.2 0
0.8 1.2 0
0.9 1.2 0
1 1.2 0
1.1 1.2 0
1.2 1.2 0
1.3 1.2 0
1.4 1.2 0
1.5 1.2 0
1.6 1.2 0
1.7 1.2 0
1.8 1.2 0
1.9 1.2 0
2 1.2 0
2.1 1.2 0
0 1.3 0
0.1 1.3 0
0.2 1.3 0
0.3 1.3 0
0.4 1.3 0
0.5 1.3 0
0.6 1.3 0
0.7 1.3 0
0.8 1.3 0
0.9 1.3 0
1 1.3 0
1.1 1.3 0
1.2 1.3 0
1.3 1.3 0
1.4 1.3 0
1.5 1.3 0
1.6 1.3 0
1.7 1.3 0
1.8 1.3 0
1.9 1.3 0
2 1.3 0
2.1 1.3 0
0 1.4 0
0.1 1.4 0
0.2 1.4 0
0.3 1.4 0
0.4 1.4 0
0.5 1.4 0
0.6 1.4 0
0.7 1.4 0
0.8 1.4 0
0.9 1.4 0
1 1.4 0
1.1 1.4 0
1.2 1.4 0
1.3 1.4 0
1.4 1.4 0
1.5 1.4 0
1.6 1.4 0
1.7 1.4 0
1.8 1.4 0
1.9 1.4 0
2 1.4 0
2.1 1.4 0
0 1.5 0
0.1 1.5 0
0.2 1.5 0
0.3 1.5 0
0.4 1.5 0
0.5 1.5 0
0.6 1.5 0
0.7 1.5 0
0.8 1.5 0
0.9 1.5 0
1 1.5 0
1.1 1.5 0
1.2 1.5 0
1.3 1.5 0
1.4 1.5 0
1.5 1.5 0
1.6 1.5 0
1.7 1.5 0
1.8 1.5 0
1.9 1.5 0
2 1.5 0
2.1 1.5 0
0 1.6 0
0.1 1.6 0
0.2 1.6 0
0.3 1.6 0
0.4 1.6 0
0.5 1.6 0
0.6 1.6 0
0.7 1.6 0
0.8 1.6 0
0.9 1.6 0
1 1.6 0
1.1 1.6 0
1.2 1.6 0
1.3 1.6 0
1.4 1.6 0
1.5 1.6 0
1.6 1.6 0
1.7 1.6 0
1.8 1.6 0
1.9 1.6 0
2 1.6 0
2.1 1.6 0
0 0 0.1
0.1 0 0.1
0.2 0 0.1
0.3 0 0.1
0.4 0 0.1
0.5 0 0.1
0.6 0 0.1
0.7 0 0.1
0.8 0 0.1
0.9 0 0.1
1 0 0.1
1.1 0 0.1
1.2 0 0.1
1.3 0 0.1
1.4 0 0.1
1.5 0 0.1
1.6 0 0.1
1.7 0 0.1
1.8 0 0.1
1.9 0 0.1
2 0 0.1
2.1 0 0.1
0 0.1 0.1
0.1 0.1 0.1
0.2 0.1 0.1
0.3 0.1 0.1
0.4 0.1 0.1
0.5 0.1 0.1
0.6 0.1 0.1
0.7 0.1 0.1
0.8 0.1 0.1
0.9 0.1 0.1
1 0.1 0.1
1.1 0.1 0.1
1.2 0.1 0.1
1.3 0.1 0.1
1.4 0.1 0.1
1.5 0.1 0.1
1.6 0.1 0.1
1.7 0.1 0.1
1.8 0.1 0.1
1.9 0.1 0.1
2 0.1 0.1
2.1 0.1 0.1
0 0.2 0.1
0.1 0.2 0.1
0.2 0.2 0.1
0.3 0.2 0.1
0.4 0.2 0.1
0.5 0.2 0.1
0.6 0.2 0.1
0.7 0.2 0.1
0.8 0.2 0.1
0.9 0.2 0.1
1 0.2 0.1
1.1 0.2 0.1
1.2 0.2 0.1
1.3 0.2 0.1
1.4 0.2 0.1
1.5 0.2 0.1
1.6 0.2 0.1
1.7 0.2 0.1
1.8 0.2 0.1
1.9 0.2 0.1
2 0.2 0.1
2.1 0.2 0.1
0 0.3 0.1
0.1 0.3 0.1
0.2 0.3 0.1
0.3 0.3 0.1
0.4 0.3 0.1
0.5 0.3 0.1
0.6 0.3 0.1
0.7 0.3 0.1
0.8 0.3 0.1
0.9 0.3 0.1
1 0.3 0.1
1.1 0.3 0.1
1.2 0.3 0.1
1.3 0.3 0.1
1.4 0.3 0.1
1.5 0.3 0.1
1.6 0.3 0.1
1.7 0.3 0.1
1.8 0.3 0.1
1.9 0.3 0.1
2 0.3 0.1
2.1 0.3 0.1
0 0.4 0.1
0.1 0.4 0.1
0.2 0.4 0.1
0.3 0.4 0.1
0.4 0.4 0.1
0.5 0.4 0.1
0.6 0.4 0.1
0.7 0.4 0.1
0.8 0.4 0.1
0.9 0.4 0.1
1 0.4 0.1
1.1 0.4 0.1
1.2 0.4 0.1
1.3 0.4 0.1
1.4 0.4 0.1
1.5 0.4 0.1
1.6 0.4 0.1
1.7 0.4 0.1
1.8 0.4 0.1
1.9 0.4 0.1
2 0.4 0.1
2.1 0.4 0.1
0 0.5 0.1
0.1 0.5 0.1
0.2 0.5 0.1
0.3 0.5 0.1
0.4 0.5 0.1
0.5 0.5 0.1
0.6 0.5 0.1
0.7 0.5 0.1
0.8 0.5 0.1
0.9 0.5 0.1
1 0.5 0.1
1.1 0.5 0.1
1.2 0.5 0.1
1.3 0.5 0.1
1.4 0.5 0.1
1.5 0.5 0.1
1.6 0.5 0.1
1.7 0.5 0.1
1.8 0.5 0.1
1.9 0.5 0.1
2 0.5 0.1
2.1 0.5 0.1
0 0.6 0.1
0.1 0.6 0.1
0.2 0.6 0.1
0.3 0.6 0.1
0.4 0.6 0.1
0.5 0.6 0.1
0.6 0.6 0.1
0.7 0.6 0.1
0.8 0.6 0.1
0.9 0.6 0.1
1 0.6 0.1
1.1 0.6 0.1
1.2 0.6 0.1
1.3 0.6 0.1
1.4 0.6 0.1
1.5 0.6 0.1
1.6 0.6 0.1
1.7 0.6 0.1
1.8 0.6 0.1
1.9 0.6 0.1
2 0.6 0.1
2.1 0.6 0.1
0 0.7 0.1
0.1 0.7 0.1
0.2 0.7 0.1
0.3 0.7 0.1
0.4 0.7 0.1
0.5 0.7 0.1
0.6 0.7 0.1
0.7 0.7 0.1
0.8 0.7 0.1
0.9 0.7 0.1
1 0.7 0.1
1.1 0.7 0.1
1.2 0.7 0.1
1.3 0.7 0.1
1.4 0.7 0.1
1.5 0.7 0.1
1.6 0.7 0.1
1.7 0.7 0.1
1.8 0.7 0.1
1.9 0.7 0.1
2 0.7 0.1
2.1 0.7 0.1
0 0.8 0.1
0.1 0.8 0.1
0.2 0.8 0.1
0.3 0.8 0.1
0.4 0.8 0.1
0.5 0.8 0.1
0.6 0.8 0.1
0.7 0.8 0.1
0.8 0.8 0.1
0.9 0.8 0.1
1 0.8 0.1
1.1 0.8 0.1
1.2 0.8 0.1
1.3 0.8 0.1
1.4 0.8 0.1
1.5 0.8 0.1
1.6 0.8 0.1
1.7 0.8 0.1
1.8 0.8 0.1
1.9 0.8 0.1
2 0.8 0.1
2.1 0.8 0.1
0 0.9 0.1
0.1 0.9 0.1
0.2 0.9 0.1
0.3 0.9 0.1
0.4 0.9 0.1
0.5 0.9 0.1
0.6 0.9 0.1
0.7 0.9 0.1
0.8 0.9 0.1
0.9 0.9 0.1
1 0.9 0.1
1.1 0.9 0.1
1.2 0.9 0.1
1.3 0.9 0.1
1.4 0.9 0.1
1.5 0.9 0.1
1.6 0.9 0.1
1.7 0.9 0.1
1.8 0.9 0.1
1.9 0.9 0.1
2 0.9 0.1
2.1 0.9 0.1
0 1 0.1
0.1 1 0.1
0.2 1 0.1
0.3 1 0.1
0.4 1 0.1
0.5 1 0.1
0.6 1 0.1
0.7 1 0.1
0.8 1 0.1
0.9 1 0.1
1 1 0.1
1.1 1 0.1
1.2 1 0.1
1.3 1 0.1
1.4 1 0.1
1.5 1 0.1
1.6 1 0.1
1.7 1 0.1
1.8 1 0.1
1.9 1 0.1
2 1 0.1
2.1 1 0.1
0 1.1 0.1
0.1 1.1 0.1
0.2 1.1 0.1
0.3 1.1 0.1
0.4 1.1 0.1
0.5 1.1 0.1
0.6 1.1 0.1
0.7 1.1 0.1
0.8 1.1 0.1
0.9 1.1 0.1
1 1.1 0.1
1.1 1.1 0.1
1.2 1.1 0.1
1.3 1.1 0.1
1.4 1.1 0.1
1.5 1.1 0.1
1.6 1.1 0.1
1.7 1.1 0.1
1.8 1.1 0.1
1.9 1.1 0.1
2 1.1 0.1
2.1 1.1 0.1
0 1.2 0.1
0.1 1.2 0.1
0.2 1.2 0.1
0.3 1.2 0.1
0.4 1.2 0.1
0.5 1.2 0.1
0.6 1.2 0.1
0.7 1.2 0.1
0.8 1.2 0.1
0.9 1.2 0.1
1 1.2 0.1
1.1 1.2 0.1
1.2 1.2 0.1
1.3 1.2 0.1
1.4 1.2 0.1
1.5 1.2 0.1
1.6 1.2 0.1
1.7 1.2 0.1
1.8 1.2 0.1
1.9 1.2 0.1
2 1.2 0.1
2.1 1.2 0.1
0 1.3 0.1
0.1 1.3 0.1
0.2 1.3 0.1
0.3 1.3 0.1
0.4 1.3 0.1
0.5 1.3 0.1
0.6 1.3 0.1
0.7 1.3 0.1
0.8 1.3 0.1
0.9 1.3 0.1
1 1.3 0.1
1.1 1.3 0.1
1.2 1.3 0.1
1.3 1.3 0.1
1.4 1.3 0.1
1.5 1.3 0.1
1.6 1.3 0.1
1.7 1.3 0.1
1.8 1.3 0.1
1.9 1.3 0.1
2 1.3 0.1
2.1 1.3 0.1
0 1.4 0.1
0.1 1.4 0.1
0.2 1.4 0.1
0.3 1.4 0.1
0.4 1.4 0.1
0.5 1.4 0.1
0.6 1.4 0.1
0.7 1.4 0.1
0.8 1.4 0.1
0.9 1.4 0.1
1 1.4 0.1
1.1 1.4 0.1
1.2 1.4 0.1
1.3 1.4 0.1
1.4 1.4 0.1
1.5 1.4 0.1
1.6 1.4 0.1
1.7 1.4 0.1
1.8 1.4 0.1
1.9 1.4 0.1
2 1.4 0.1
2.1 1.4 0.1
0 1.5 0.1
0.1 1.5 0.1
0.2 1.5 0.1
0.3 1.5 0.1
0.4 1.5 0.1
0.5 1.5 0.1
0.6 1.5 0.1
0.7 1.5 0.1
0.8 1.5 0.1
0.9 1.5 0.1
1 1.5 0.1
1.1 1.5 0.1
1.2 1.5 0.1
1.3 1.5 0.1
1.4 1.5 0.1
1.5 1.5 0.1
1.6 1.5 0.1
1.7 1.5 0.1
1.8 1.5 0.1
1.9 1.5 0.1
2 1.5 0.1
2.1 1.5 0.1
0 1.6 0.1
0.1 1.6 0.1
0.2 1.6 0.1
0.3 1.6 0.1
0.4 1.6 0.1
0.5 1.6 0.1
0.6 1.6 0.1
0.7 1.6 0.1
0.8 1.6 0.1
0.9 1.6 0.1
1 1.6 0.1
1.1 1.6 0.1
1.2 1.6 0.1
1.3 1.6 0.1
1.4 1.6 0.1
1.5 1.6 0.1
1.6 1.6 0.1
1.7 1.6 0.1
1.8 1.6 0.1
1.9 1.6 0.1
2 1.6 0.1
2.1 1.6 0.1
0 0 0.2
0.1 0 0.2
0.2 0 0.2
0.3 0 0.2
0.4 0 0.2
0.5 0 0.2
0.6 0 0.2
0.7 0 0.2
0.8 0 0.2
0.9 0 0.2
1 0 0.2
1.1 0 0.2
1.2 0 0.2
1.3 0 0.2
1.4 0 0.2
1.5 0 0.2
1.6 0 0.2
1.7 0 0.2
1.8 0 0.2
1.9 0 0.2
2 0 0.2
2.1 0 0.2
0 0.1 0.2
0.1 0.1 0.2
0.2 0.1 0.2
0.3 0.1 0.2
0.4 0.1 0.2
0.5 0.1 0.2
0.6 0.1 0.2
0.7 0.1 0.2
0.8 0.1 0.2
0.9 0.1 0.2
1 0.1 0.2
1.1 0.1 0.2
1.2 0.1 0.2
1.3 0.1 0.2
1.4 0.1 0.2
1.5 0.1 0.2
1.6 0.1 0.2
1.7 0.1 0.2
1.8 0.1 0.2
1.9 0.1 0.2
2 0.1 0.2
2.1 0.1 0.2
0 0.2 0.2
0.1 0.2 0.2
0.2 0.2 0.2
0.3 0.2 0.2
0.4 0.2 0.2
0.5 0.2 0.2
0.6 0.2 0.2
0.7 0.2 0.2
0.8 0.2 0.2
0.9 0.2 0.2
1 0.2 0.2
1.1 0.2 0.2
1.2 0.2 0.2
1.3 0.2 0.2
1.4 0.2 0.2
1.5 0.2 0.2
1.6 0.2 0.2
1.7 0.2 0.2
1.8 0.2 0.2
1.9 0.2 0.2
2 0.2 0.2
2.1 0.2 0.2
0 0.3 0.2
0.1 0.3 0.2
0.2 0.3 0.2
0.3 0.3 0.2
0.4 0.3 0.2
0.5 0.3 0.2
0.6 0.3 0.2
0.7 0.3 0.2
0.8 0.3 0.2
0.9 0.3 0.2
1 0.3 0.2
1.1 0.3 0.2
1.2 0.3 0.2
1.3 0.3 0.2
1.4 0.3 0.2
1.5 0.3 0.2
1.6 0.3 0.2
1.7 0.3 0.2
1.8 0.3 0.2
1.9 0.3 0.2
2 0.3 0.2
2.1 0.3 0.2
0 0.4 0.2
0.1 0.4 0.2
0.2 0.4 0.2
0.3 0.4 0.2
0.4 0.4 0.2
0.5 0.4 0.2
0.6 0.4 0.2
0.7 0.4 0.2
0.8 0.4 0.2
0.9 0.4 0.2
1 0.4 0.2
1.1 0.4 0.2
1.2 0.4 0.2
1.3 0.4 0.2
1.4 0.4 0.2
1.5 0.4 0.2
1.6 0.4 0.2
1.7 0.4 0.2
1.8 0.4 0.2
1.9 0.4 0.2
2 0.4 0.2
2.1 0.4 0.2
0 0.5 0.2
0.1 0.5 0.2
0.2 0.5 0.2
0.3 0.5 0.2
0.4 0.5 0.2
0.5 0.5 0.2
0.6 0.5 0.2
0.7 0.5 0.2
0.8 0.5 0.2
0.9 0.5 0.2
1 0.5 0.2
1.1 0.5 0.2
1.2 0.5 0.2
1.3 0.5 0.2
1.4 0.5 0.2
1.5 0.5 0.2
1.6 0.5 0.2
1.7 0.5 0.2
1.8 0.5 0.2
1.9 0.5 0.2
2 0.5 0.2
2.1 0.5 0.2
0 0.6 0.2
0.1 0.6 0.2
0.2 0.6 0.2
0.3 0.6 0.2
0.4 0.6 0.2
0.5 0.6 0.2
0.6 0.6 0.2
0.7 0.6 0.2
0.8 0.6 0.2
0.9 0.6 0.2
1 0.6 0.2
1.1 0.6 0.2
1.2 0.6 0.2
1.3 0.6 0.2
1.4 0.6 0.2
1.5 0.6 0.2
1.6 0.6 0.2
1.7 0.6 0.2
1.8 0.6 0.2
1.9 0.6 0.2
2 0.6 0.2
2.1 0.6 0.2
0 0.7 0.2
0.1 0.7 0.2
0.2 0.7 0.2
0.3 0.7 0.2
0.4 0.7 0.2
0.5 0.7 0.2
0.6 0.7 0.2
0.7 0.7 0.2
0.8 0.7 0.2
0.9 0.7 0.2
1 0.7 0.2
1.1 0.7 0.2
1.2 0.7 0.2
1.3 0.7 0.2
1.4 0.7 0.2
1.5 0.7 0.2
1.6 0.7 0.2
1.7 0.7 0.2
1.8 0.7 0.2
1.9 0.7 0.2
2 0.7 0.2
2.1 0.7 0.2
0 0.8 0.2
0.1 0.8 0.2
[...]
POINT_DATA 4488

SCALARS pressure double
LOOKUP_TABLE pressure
0
0
0
0
0
0
0
0
0
0
0
0
0
0
0
0
0
0
0
0
0
0
0
140.838
140.834
140.831
140.83
140.828
140.826
140.826
140.826
140.825
140.825
140.824
140.824
140.825
140.824
140.824
140.826
140.826
140.825
140.824
140.823
0
0
140.832
140.832
140.831
140.829
140.828
140.826
140.826
140.825
140.825
140.825
140.824
140.825
140.825
140.825
140.825
140.825
140.827
140.826
140.825
140.825
0
0
140.829
140.83
140.83
140.829
140.826
140.826
140.826
140.825
140.825
140.825
140.825
140.826
140.826
140.826
140.826
140.826
140.827
140.827
140.827
140.827
0
0
140.828
140.828
140.828
140.828
140.827
140.826
140.825
140.825
140.825
140.824
140.824
140.828
140.827
140.827
140.827
140.827
140.828
140.828
140.828
140.829
0
0
140.826
140.827
140.828
140.827
140.827
140.824
140.825
140.826
140.826
140.825
140.825
140.827
140.827
140.827
140.828
140.828
140.829
140.829
140.829
140.83
0
0
140.825
140.826
140.827
140.826
140.826
140.825
140.826
140.826
140.827
140.826
140.825
140.826
140.828
140.828
140.828
140.829
140.83
140.83
140.83
140.831
0
0
140.824
140.826
140.826
140.826
140.825
140.826
140.826
140.826
140.827
140.826
140.826
140.827
140.828
140.829
140.829
140.83
140.83
140.831
140.831
140.832
0
0
140.824
140.825
140.826
140.826
140.827
140.827
140.827
140.827
140.827
140.827
140.827
140.828
140.829
140.829
140.83
140.83
140.831
140.832
140.831
140.833
0
0
140.823
140.825
140.826
140.826
140.827
140.827
140.827
140.827
140.827
140.828
140.828
140.829
140.829
140.83
140.83
140.831
140.832
140.832
140.833
140.834
0
0
140.822
140.825
140.826
140.826
140.827
140.827
140.827
140.828
140.828
140.828
140.829
140.829
140.83
140.831
140.831
140.832
140.832
140.833
140.834
140.835
0
0
140.823
140.825
140.826
140.826
140.827
140.827
140.828
140.828
140.828
140.829
140.829
140.83
140.831
140.832
140.832
140.832
140.833
140.834
140.834
140.835
0
0
140.824
140.825
140.826
140.826
140.827
140.827
140.828
140.828
140.829
140.829
140.83
140.831
140.831
140.833
140.834
140.832
140.834
140.835
140.835
140.836
0
0
140.824
140.825
140.826
140.827
140.827
140.828
140.828
140.829
140.829
140.83
140.831
140.831
140.832
140.834
140.834
140.834
140.835
140.835
140.836
140.837
0
0
140.825
140.826
140.826
140.827
140.828
140.828
140.829
140.829
140.83
140.831
140.831
140.832
140.833
140.834
140.835
140.835
140.836
140.837
140.837
140.838
0
0
140.826
140.826
140.827
140.827
140.828
140.829
140.829
140.83
140.831
140.831
140.832
140.833
140.834
140.834
140.835
140.836
140.837
140.838
140.838
140.839
0
0
0
0
0
0
0
0
0
0
0
0
0
0
0
0
0
0
0
0
0
0
0
0
140.838
140.834
140.831
140.83
140.828
140.826
140.826
140.826
140.825
140.825
140.824
140.824
140.825
140.824
140.824
140.826
140.826
140.825
140.824
140.823
0
140.838
140.838
140.834
140.831
140.83
140.828
140.826
140.826
140.826
140.825
140.825
140.824
140.824
140.825
140.824
140.824
140.826
140.826
140.825
140.824
140.823
140.823
140.832
140.832
140.832
140.831
140.829
140.828
140.826
140.826
140.825
140.825
140.825
140.824
140.825
140.825
140.825
140.825
140.825
140.827
140.826
140.825
140.825
140.825
140.829
140.829
140.83
140.83
140.829
140.826
140.826
140.826
140.825
140.825
140.825
140.825
140.826
140.826
140.826
140.826
140.826
140.827
140.827
140.827
140.827
140.827
140.828
140.828
140.828
140.828
140.828
140.827
140.826
140.825
140.825
140.825
140.824
140.824
140.828
140.827
140.827
140.827
140.827
140.828
140.828
140.828
140.829
140.829
140.826
140.826
140.827
140.828
140.827
140.827
140.824
140.825
140.826
140.826
140.825
140.825
140.827
140.827
140.827
140.828
140.828
140.829
140.829
140.829
140.83
140.83
140.825
140.825
140.826
140.827
140.826
140.826
140.825
140.826
140.826
140.827
140.826
140.825
140.826
140.828
140.828
140.828
140.829
140.83
140.83
140.83
140.831
140.831
140.824
140.824
140.826
140.826
140.826
140.825
140.826
140.826
140.826
140.827
140.826
140.826
140.827
140.828
140.829
140.829
140.83
140.83
140.831
140.831
140.832
140.832
140.824
140.824
140.825
140.826
140.826
140.827
140.827
140.827
140.827
140.827
140.827
140.827
140.828
140.829
140.829
140.83
140.83
140.831
140.832
140.831
140.833
140.833
140.823
140.823
140.825
140.826
140.826
140.827
140.827
140.827
140.827
140.827
140.828
140.828
140.829
140.829
140.83
140.83
140.831
140.832
140.832
140.833
140.834
140.834
140.822
140.822
140.825
140.826
140.826
140.827
140.827
140.827
140.828
140.828
140.828
140.829
140.829
140.83
140.831
140.831
140.832
140.832
140.833
140.834
140.835
140.835
140.823
140.823
140.825
140.826
140.826
140.827
140.827
140.828
140.828
140.828
140.829
140.829
140.83
140.831
140.832
140.832
140.832
140.833
140.834
140.834
140.835
140.835
140.824
140.824
140.825
140.826
140.826
140.827
140.827
140.828
140.828
140.829
140.829
140.83
140.831
140.831
140.833
140.834
140.832
140.834
140.835
140.835
140.836
140.836
140.824
140.824
140.825
140.826
140.827
140.827
140.828
140.828
140.829
140.829
140.83
140.831
140.831
140.832
140.834
140.834
140.834
140.835
140.835
140.836
140.837
140.837
140.825
140.825
140.826
140.826
140.827
140.828
140.828
140.829
140.829
140.83
140.831
140.831
140.832
140.833
140.834
140.835
140.835
140.836
140.837
140.837
140.838
140.838
140.826
140.826
140.826
140.827
140.827
140.828
140.829
140.829
140.83
140.831
140.831
140.832
140.833
140.834
140.834
140.835
140.836
140.837
140.838
140.838
140.839
140.839
0
140.826
140.826
140.827
140.827
140.828
140.829
140.829
140.83
140.831
140.831
140.832
140.833
140.834
140.834
140.835
140.836
140.837
140.838
140.838
140.839
0
0
140.843
140.838
140.835
140.831
140.824
140.82
140.821
140.823
140.825
140.826
140.826
140.826
140.826
140.826
140.826
140.826
140.826
140.826
140.825
140.824
0
140.843
140.843
140.838
140.835
140.831
140.824
140.82
140.821
140.823
140.825
140.826
140.826
140.826
140.826
140.826
140.826
140.826
140.826
140.826
140.825
140.824
140.824
140.837
140.837
140.836
140.834
140.831
140.826
140.821
140.821
140.822
140.824
140.825
140.826
140.826
140.826
140.826
140.826
140.827
140.827
140.826
140.826
140.826
140.826
140.833
140.833
140.834
140.833
140.831
140.827
140.823
140.822
140.822
140.823
140.824
140.825
140.826
140.827
140.827
140.827
140.827
140.827
140.827
140.827
140.828
140.828
140.831
140.831
140.832
140.831
140.83
140.828
140.825
140.823
140.823
140.823
140.824
140.825
140.826
140.827
140.827
140.828
140.828
140.828
140.829
140.829
140.829
140.829
140.829
140.829
140.83
140.83
140.83
140.829
140.826
140.824
140.824
140.824
140.824
140.825
140.826
140.827
140.828
140.828
140.829
140.829
140.83
140.83
140.831
140.831
140.828
140.828
140.829
140.829
140.829
140.829
140.828
140.826
140.825
140.825
140.825
140.825
140.826
140.827
140.828
140.829
140.829
140.83
140.83
140.831
140.832
140.832
140.827
140.827
140.828
140.828
140.829
140.829
140.828
140.828
140.827
140.826
140.826
140.826
140.826
140.827
140.828
140.829
140.83
140.83
140.831
140.832
140.833
140.833
140.826
140.826
140.827
140.828
140.828
140.829
140.829
140.828
140.828
140.828
140.827
140.827
140.827
140.828
140.829
140.829
140.83
140.831
140.832
140.832
140.833
140.833
140.826
140.826
140.827
140.827
140.828
140.829
140.829
140.829
140.829
140.829
140.829
140.829
140.829
140.829
140.83
140.83
140.831
140.832
140.832
140.833
140.834
140.834
140.825
140.825
140.827
140.827
140.828
140.828
140.829
140.829
140.829
140.829
140.83
140.83
140.83
140.83
140.831
140.831
140.832
140.832
140.833
140.834
140.835
140.835
140.825
140.825
140.826
140.827
140.828
140.828
140.829
140.829
140.829
140.83
140.83
140.831
140.831
140.831
140.832
140.832
140.833
140.833
140.834
140.835
140.836
140.836
140.825
140.825
140.826
140.827
140.828
140.828
140.829
140.829
140.83
140.83
140.831
140.831
140.832
140.832
140.833
140.834
140.834
140.834
140.835
140.836
140.837
140.837
140.826
140.826
140.827
140.827
140.828
140.828
140.829
140.829
140.83
140.831
140.831
140.832
140.832
140.833
140.834
140.834
140.835
140.835
140.836
140.837
140.838
140.838
140.826
140.826
140.827
140.828
140.828
140.829
140.829
140.83
140.83
140.831
140.832
140.832
140.833
140.834
140.834
140.835
140.836
140.837
140.837
140.838
140.839
140.839
140.827
140.827
140.827
140.828
140.828
140.829
140.829
140.83
140.831
140.831
140.832
140.833
140.834
140.834
140.835
140.836
140.837
140.838
140.838
140.839
140.84
140.84
0
140.827
140.827
140.828
140.828
140.829
140.829
140.83
140.831
140.831
140.832
140.833
140.834
140.834
140.835
140.836
140.837
140.838
140.838
140.839
140.84
0
0
140.847
140.843
140.84
140.834
140.813
140.807
140.814
140.821
140.825
140.827
140.828
140.828
140.828
140.828
140.828
140.827
140.827
140.827
140.826
140.825
0
140.847
140.847
140.843
140.84
140.834
140.813
140.807
140.814
140.821
140.825
140.827
140.828
140.828
140.828
140.828
140.828
140.827
140.827
140.827
140.826
140.825
140.825
140.841
140.841
140.84
140.839
140.835
140.823
140.811
140.813
140.819
140.823
140.826
140.827
140.828
140.828
140.828
140.828
140.828
140.828
140.827
140.827
140.826
140.826
140.837
140.837
140.837
140.837
140.835
140.828
140.818
140.815
140.818
140.822
140.825
140.826
140.827
140.828
140.828
140.828
140.828
140.828
140.828
140.828
140.829
140.829
140.834
140.834
140.835
140.835
140.834
140.831
140.823
140.818
140.818
140.82
140.823
140.825
140.827
140.828
140.828
140.829
140.829
140.829
140.829
140.83
140.83
140.83
140.832
140.832
140.833
140.834
140.834
140.832
140.827
140.822
140.82
140.82
140.822
140.824
140.826
140.827
140.828
140.829
140.829
140.83
140.83
140.831
140.832
140.832
140.831
140.831
140.832
140.832
140.833
140.832
140.83
140.826
140.823
140.822
140.822
140.823
140.825
140.827
140.828
140.829
140.83
140.83
140.831
140.832
140.833
140.833
140.829
140.829
140.83
140.831
140.832
140.832
140.831
140.83
140.827
140.825
140.824
140.824
140.825
140.826
140.828
140.829
140.83
140.831
140.831
140.832
140.833
140.833
140.828
140.828
140.829
140.83
140.831
140.831
140.831
140.831
140.83
140.828
140.827
140.826
140.826
140.827
140.828
140.829
140.83
140.831
140.832
140.833
140.834
140.834
140.828
140.828
140.829
140.829
140.83
140.831
140.831
140.831
140.831
140.83
140.83
140.829
140.829
140.829
140.829
140.83
140.83
140.832
140.833
140.833
140.835
140.835
140.827
140.827
140.828
140.829
140.83
140.83
140.831
140.831
140.831
140.831
140.831
140.831
140.831
140.831
140.831
140.831
140.832
140.833
140.833
140.834
140.835
140.835
140.827
140.827
140.828
140.829
140.829
140.83
140.83
140.831
140.831
140.831
140.832
140.832
140.832
140.832
140.832
140.833
140.833
140.834
140.834
140.835
140.836
140.836
140.827
140.827
140.828
140.828
140.829
140.83
140.83
140.831
140.831
140.832
140.832
140.832
140.833
140.833
140.834
140.834
140.834
140.835
140.835
140.836
140.837
140.837
140.827
140.827
140.828
140.828
140.829
140.83
140.83
140.831
140.831
140.832
140.832
140.833
140.833
140.834
140.835
140.835
140.836
140.836
140.837
140.838
140.838
140.838
140.827
140.827
140.828
140.829
140.829
140.83
140.83
140.831
140.831
140.832
140.833
140.833
140.834
140.835
140.835
140.836
140.837
140.837
140.838
140.839
140.84
140.84
140.828
140.828
140.829
140.829
140.829
140.83
140.83
140.831
140.832
140.832
140.833
140.834
140.834
140.835
140.836
140.837
140.838
140.838
140.839
140.84
140.841
140.841
0
140.828
140.829
140.829
140.829
140.83
140.83
140.831
140.832
140.832
140.833
140.834
140.834
140.835
140.836
140.837
140.838
140.838
140.839
140.84
140.841
0
0
140.852
140.849
140.85
140.845
140.778
140.776
140.804
140.821
140.828
140.83
140.83
140.83
140.83
140.829
140.829
140.829
140.828
140.828
140.827
140.826
0
140.852
140.852
140.849
140.85
140.845
140.778
140.776
140.804
140.821
140.828
140.83
140.83
140.83
140.83
140.829
140.829
140.829
140.828
140.828
140.827
140.826
140.826
140.845
140.845
140.845
140.846
140.845
140.825
140.785
140.798
140.815
140.825
140.828
140.83
140.83
140.83
140.83
140.829
140.829
140.829
140.828
140.828
140.828
140.828
140.841
140.841
140.841
140.843
140.843
140.835
140.804
140.8
140.811
140.821
140.826
140.828
140.829
140.83
140.83
140.83
140.83
140.829
140.829
140.829
140.83
140.83
140.837
140.837
140.838
140.84
140.841
140.838
140.818
140.806
140.808
140.816
140.822
140.826
140.828
140.829
140.83
140.83
140.83
140.83
140.83
140.831
140.831
140.831
140.835
140.835
140.836
140.838
140.84
140.839
140.83
140.816
140.81
140.813
140.818
140.823
140.826
140.828
140.829
140.83
140.83
140.831
140.831
140.832
140.833
140.833
140.833
140.833
140.834
140.836
140.837
140.838
140.835
140.827
140.819
140.816
140.817
140.82
140.823
140.826
140.828
140.829
140.83
140.831
140.832
140.833
140.834
140.834
140.832
140.832
140.833
140.834
140.835
140.836
140.836
140.834
140.828
140.823
140.82
140.82
140.822
140.824
140.827
140.829
140.83
140.831
140.832
140.833
140.834
140.834
140.83
140.83
140.831
140.832
140.833
140.834
140.835
140.834
140.833
140.83
140.827
140.825
140.824
140.824
140.826
140.828
140.83
140.831
140.832
140.833
140.834
140.834
140.829
140.829
140.83
140.831
140.832
140.833
140.833
140.834
140.834
140.833
140.831
140.829
140.828
140.828
140.828
140.828
140.829
140.831
140.833
140.834
140.835
140.835
140.829
140.829
140.83
140.83
140.831
140.832
140.832
140.833
140.833
140.833
140.833
140.833
140.833
140.831
140.83
140.83
140.831
140.832
140.833
140.834
140.836
140.836
140.828
140.828
140.829
140.83
140.831
140.831
140.832
140.832
140.833
140.833
140.834
140.834
140.833
140.833
140.833
140.834
140.834
140.834
140.833
140.834
140.836
140.836
140.828
140.828
140.829
140.83
140.83
140.831
140.831
140.832
140.832
140.833
140.833
140.834
140.834
140.835
140.836
140.835
140.835
140.835
140.835
140.837
140.838
140.838
140.828
140.828
140.829
140.83
140.83
140.831
140.831
140.832
140.832
140.833
140.833
140.834
140.835
140.835
140.836
140.836
140.836
140.837
140.838
140.839
140.839
140.839
140.829
140.829
140.829
140.83
140.83
140.831
140.831
140.832
140.832
140.833
140.834
140.834
140.835
140.835
140.836
140.837
140.838
140.838
140.839
140.84
140.84
140.84
140.829
140.829
140.83
140.83
140.83
140.831
140.831
140.832
140.832
140.833
140.834
140.834
140.835
140.836
140.837
140.837
140.838
140.839
140.84
140.841
140.841
140.841
0
140.829
140.83
140.83
140.83
140.831
140.831
140.832
140.832
140.833
140.834
140.834
140.835
140.836
140.837
140.837
140.838
140.839
140.84
140.841
140.841
0
0
140.855
140.854
140.864
140.896
140.808
140.729
140.8
140.827
140.833
140.833
140.833
140.832
140.831
140.83
140.83
140.829
140.829
140.828
140.828
140.827
0
140.855
140.855
140.854
140.864
140.896
140.808
140.729
140.8
140.827
140.833
140.833
140.833
140.832
140.831
140.83
140.83
140.829
140.829
140.828
140.828
140.827
140.827
140.848
140.848
140.849
140.855
140.875
140.837
140.757
140.786
140.817
140.829
140.832
140.833
140.832
140.832
140.831
140.83
140.83
140.829
140.829
140.829
140.829
140.829
140.843
140.843
140.844
140.847
140.856
140.852
140.784
140.782
140.805
140.821
140.829
140.831
140.832
140.832
140.831
140.831
140.831
140.831
140.83
140.83
140.831
140.831
140.839
140.839
140.841
140.843
140.849
140.861
140.811
140.791
140.798
140.812
140.823
140.828
140.83
140.831
140.831
140.831
140.831
140.831
140.832
140.832
140.833
140.833
140.837
140.837
140.838
140.841
140.847
140.862
140.835
140.809
140.801
140.805
140.815
140.823
140.827
140.829
140.831
140.831
140.832
140.832
140.832
140.833
140.835
140.835
140.835
140.835
140.836
140.838
140.843
140.852
140.847
140.829
140.814
140.808
140.811
140.817
140.822
140.826
140.829
140.83
140.832
140.832
140.833
140.834
140.835
140.835
140.833
140.833
140.834
140.836
140.838
140.843
140.847
140.843
140.83
140.82
140.816
140.816
140.819
140.823
140.826
140.829
140.831
140.832
140.833
140.834
140.836
140.836
140.832
140.832
140.833
140.834
140.835
140.838
140.841
140.843
140.839
140.834
140.827
140.821
140.821
140.822
140.824
140.827
140.829
140.831
140.832
140.834
140.835
140.835
140.831
140.831
140.832
140.833
140.834
140.835
140.837
140.839
140.84
140.84
140.835
140.83
140.829
140.827
140.826
140.827
140.829
140.83
140.833
140.835
140.835
140.835
140.83
140.83
140.831
140.832
140.832
140.833
140.834
140.836
140.837
140.838
140.837
140.837
140.837
140.832
140.829
140.83
140.831
140.832
140.834
140.834
140.836
140.836
140.83
140.83
140.831
140.831
140.832
140.832
140.833
140.834
140.835
140.836
140.837
140.838
140.837
140.834
140.834
140.837
140.835
140.833
140.832
140.833
140.838
140.838
140.829
140.829
140.83
140.831
140.831
140.832
140.833
140.833
140.834
140.835
140.835
140.836
140.836
140.837
140.839
140.839
140.836
140.834
140.835
140.837
140.839
140.839
140.829
140.829
140.83
140.831
140.831
140.832
140.832
140.833
140.833
140.834
140.835
140.835
140.836
140.837
140.839
140.838
140.837
140.838
140.84
140.841
140.84
140.84
140.83
140.83
140.83
140.831
140.831
140.832
140.832
140.833
140.833
140.834
140.835
140.835
140.836
140.837
140.837
140.838
140.839
140.84
140.841
140.842
140.841
140.841
140.83
140.83
140.831
140.831
140.831
140.832
140.832
140.833
140.833
140.834
140.834
140.835
140.836
140.836
140.837
140.838
140.839
140.84
140.84
140.842
140.842
140.842
0
140.83
140.831
140.831
140.831
140.832
140.832
140.833
140.833
140.834
140.834
140.835
140.836
140.836
140.837
140.838
140.839
140.84
140.84
140.842
140.842
0
0
140.854
140.852
140.853
140.85
140.793
140.779
140.806
140.822
140.829
140.831
140.832
140.832
140.831
140.831
140.83
140.83
140.829
140.829
140.828
140.827
0
140.854
140.854
140.852
140.853
140.85
140.793
140.779
140.806
140.822
140.829
140.831
140.832
140.832
140.831
140.831
140.83
140.83
140.829
140.829
140.828
140.827
140.827
140.847
140.847
140.848
140.849
140.846
140.817
140.788
140.801
140.817
140.827
140.83
140.832
140.832
140.832
140.831
140.831
140.83
140.83
140.829
140.829
140.829
140.829
140.843
140.843
140.844
140.844
140.844
140.833
140.805
140.802
140.812
140.822
140.827
140.83
140.831
140.831
140.831
140.831
140.831
140.831
140.831
140.831
140.831
140.831
140.84
140.84
140.841
140.842
140.843
140.84
140.82
140.808
140.81
140.818
140.824
140.828
140.83
140.831
140.831
140.831
140.831
140.832
140.832
140.832
140.833
140.833
140.837
140.837
140.839
140.84
140.842
140.843
140.831
140.818
140.813
140.815
140.82
140.824
140.828
140.829
140.831
140.831
140.832
140.832
140.833
140.833
140.834
140.834
140.835
140.835
140.837
140.838
140.84
140.842
140.837
140.828
140.821
140.818
140.819
140.822
140.825
140.828
140.83
140.831
140.832
140.833
140.833
140.834
140.835
140.835
140.834
140.834
140.835
140.836
140.838
140.839
140.839
140.835
140.829
140.824
140.822
140.822
140.824
140.826
140.828
140.83
140.831
140.833
140.834
140.835
140.836
140.836
140.833
140.833
140.834
140.835
140.836
140.837
140.838
140.837
140.834
140.831
140.828
140.826
140.825
140.826
140.828
140.829
140.831
140.832
140.834
140.835
140.836
140.836
140.832
140.832
140.833
140.833
140.834
140.835
140.836
140.836
140.836
140.835
140.833
140.831
140.83
140.829
140.829
140.83
140.831
140.833
140.834
140.836
140.837
140.837
140.831
140.831
140.832
140.833
140.833
140.834
140.835
140.835
140.836
140.836
140.835
140.835
140.834
140.833
140.832
140.832
140.833
140.834
140.835
140.836
140.837
140.837
140.831
140.831
140.832
140.832
140.833
140.833
140.834
140.835
140.835
140.835
140.836
140.836
140.836
140.835
140.835
140.835
140.835
140.835
140.835
140.836
140.838
140.838
140.83
140.83
140.831
140.832
140.832
140.833
140.833
140.834
140.835
140.835
140.836
140.836
140.836
140.836
140.837
140.837
140.837
140.836
140.837
140.838
140.839
140.839
140.831
140.831
140.831
140.832
140.832
140.833
140.833
140.834
140.834
140.835
140.835
140.836
140.836
140.837
140.838
140.838
140.838
140.838
140.839
140.841
140.841
140.841
140.831
140.831
140.831
140.832
140.832
140.833
140.833
140.834
140.834
140.835
140.835
140.836
140.837
140.837
140.838
140.839
140.839
140.84
140.841
140.842
140.842
140.842
140.831
140.831
140.832
140.832
140.832
140.833
140.833
140.834
140.834
140.835
140.835
140.836
140.837
140.837
140.838
140.839
140.84
140.841
140.841
140.842
140.843