# vtk DataFile Version 3.0
FlowField
ASCII
DATASET STRUCTURED_GRID
DIMENSIONS 102 12 1 
POINTS 1224 double
0 0 0
0.3 0 0
0.6 0 0
0.9 0 0
1.2 0 0
1.5 0 0
1.8 0 0
2.1 0 0
2.4 0 0
2.7 0 0
3 0 0
3.3 0 0
3.6 0 0
3.9 0 0
4.2 0 0
4.5 0 0
4.8 0 0
5.1 0 0
5.4 0 0
5.7 0 0
6 0 0
6.3 0 0
6.6 0 0
6.9 0 0
7.2 0 0
7.5 0 0
7.8 0 0
8.1 0 0
8.4 0 0
8.7 0 0
9 0 0
9.3 0 0
9.6 0 0
9.9 0 0
10.2 0 0
10.5 0 0
10.8 0 0
11.1 0 0
11.4 0 0
11.7 0 0
12 0 0
12.3 0 0
12.6 0 0
12.9 0 0
13.2 0 0
13.5 0 0
13.8 0 0
14.1 0 0
14.4 0 0
14.7 0 0
15 0 0
15.3 0 0
15.6 0 0
15.9 0 0
16.2 0 0
16.5 0 0
16.8 0 0
17.1 0 0
17.4 0 0
17.7 0 0
18 0 0
18.3 0 0
18.6 0 0
18.9 0 0
19.2 0 0
19.5 0 0
19.8 0 0
20.1 0 0
20.4 0 0
20.7 0 0
21 0 0
21.3 0 0
21.6 0 0
21.9 0 0
22.2 0 0
22.5 0 0
22.8 0 0
23.1 0 0
23.4 0 0
23.7 0 0
24 0 0
24.3 0 0
24.6 0 0
24.9 0 0
25.2 0 0
25.5 0 0
25.8 0 0
26.1 0 0
26.4 0 0
26.7 0 0
27 0 0
27.3 0 0
27.6 0 0
27.9 0 0
28.2 0 0
28.5 0 0
28.8 0 0
29.1 0 0
29.4 0 0
29.7 0 0
30 0 0
30.3 0 0
0 0.1 0
0.3 0.1 0
0.6 0.1 0
0.9 0.1 0
1.2 0.1 0
1.5 0.1 0
1.8 0.1 0
2.1 0.1 0
2.4 0.1 0
2.7 0.1 0
3 0.1 0
3.3 0.1 0
3.6 0.1 0
3.9 0.1 0
4.2 0.1 0
4.5 0.1 0
4.8 0.1 0
5.1 0.1 0
5.4 0.1 0
5.7 0.1 0
6 0.1 0
6.3 0.1 0
6.6 0.1 0
6.9 0.1 0
7.2 0.1 0
7.5 0.1 0
7.8 0.1 0
8.1 0.1 0
8.4 0.1 0
8.7 0.1 0
9 0.1 0
9.3 0.1 0
9.6 0.1 0
9.9 0.1 0
10.2 0.1 0
10.5 0.1 0
10.8 0.1 0
11.1 0.1 0
11.4 0.1 0
11.7 0.1 0
12 0.1 0
12.3 0.1 0
12.6 0.1 0
12.9 0.1 0
13.2 0.1 0
13.5 0.1 0
13.8 0.1 0
14.1 0.1 0
14.4 0.1 0
14.7 0.1 0
15 0.1 0
15.3 0.1 0
15.6 0.1 0
15.9 0.1 0
16.2 0.1 0
16.5 0.1 0
16.8 0.1 0
17.1 0.1 0
17.4 0.1 0
17.7 0.1 0
18 0.1 0
18.3 0.1 0
18.6 0.1 0
18.9 0.1 0
19.2 0.1 0
19.5 0.1 0
19.8 0.1 0
20.1 0.1 0
20.4 0.1 0
20.7 0.1 0
21 0.1 0
21.3 0.1 0
21.6 0.1 0
21.9 0.1 0
22.2 0.1 0
22.5 0.1 0
22.8 0.1 0
23.1 0.1 0
23.4 0.1 0
23.7 0.1 0
24 0.1 0
24.3 0.1 0
24.6 0.1 0
24.9 0.1 0
25.2 0.1 0
25.5 0.1 0
25.8 0.1 0
26.1 0.1 0
26.4 0.1 0
26.7 0.1 0
27 0.1 0
27.3 0.1 0
27.6 0.1 0
27.9 0.1 0
28.2 0.1 0
28.5 0.1 0
28.8 0.1 0
29.1 0.1 0
29.4 0.1 0
29.7 0.1 0
30 0.1 0
30.3 0.1 0
0 0.2 0
0.3 0.2 0
0.6 0.2 0
0.9 0.2 0
1.2 0.2 0
1.5 0.2 0
1.8 0.2 0
2.1 0.2 0
2.4 0.2 0
2.7 0.2 0
3 0.2 0
3.3 0.2 0
3.6 0.2 0
3.9 0.2 0
4.2 0.2 0
4.5 0.2 0
4.8 0.2 0
5.1 0.2 0
5.4 0.2 0
5.7 0.2 0
6 0.2 0
6.3 0.2 0
6.6 0.2 0
6.9 0.2 0
7.2 0.2 0
7.5 0.2 0
7.8 0.2 0
8.1 0.2 0
8.4 0.2 0
8.7 0.2 0
9 0.2 0
9.3 0.2 0
9.6 0.2 0
9.9 0.2 0
10.2 0.2 0
10.5 0.2 0
10.8 0.2 0
11.1 0.2 0
11.4 0.2 0
11.7 0.2 0
12 0.2 0
12.3 0.2 0
12.6 0.2 0
12.9 0.2 0
13.2 0.2 0
13.5 0.2 0
13.8 0.2 0
14.1 0.2 0
14.4 0.2 0
14.7 0.2 0
15 0.2 0
15.3 0.2 0
15.6 0.2 0
15.9 0.2 0
16.2 0.2 0
16.5 0.2 0
16.8 0.2 0
17.1 0.2 0
17.4 0.2 0
17.7 0.2 0
18 0.2 0
18.3 0.2 0
18.6 0.2 0
18.9 0.2 0
19.2 0.2 0
19.5 0.2 0
19.8 0.2 0
20.1 0.2 0
20.4 0.2 0
20.7 0.2 0
21 0.2 0
21.3 0.2 0
21.6 0.2 0
21.9 0.2 0
22.2 0.2 0
22.5 0.2 0
22.8 0.2 0
23.1 0.2 0
23.4 0.2 0
23.7 0.2 0
24 0.2 0
24.3 0.2 0
24.6 0.2 0
24.9 0.2 0
25.2 0.2 0
25.5 0.2 0
25.8 0.2 0
26.1 0.2 0
26.4 0.2 0
26.7 0.2 0
27 0.2 0
27.3 0.2 0
27.6 0.2 0
27.9 0.2 0
28.2 0.2 0
28.5 0.2 0
28.8 0.2 0
29.1 0.2 0
29.4 0.2 0
29.7 0.2 0
30 0.2 0
30.3 0.2 0
0 0.3 0
0.3 0.3 0
0.6 0.3 0
0.9 0.3 0
1.2 0.3 0
1.5 0.3 0
1.8 0.3 0
2.1 0.3 0
2.4 0.3 0
2.7 0.3 0
3 0.3 0
3.3 0.3 0
3.6 0.3 0
3.9 0.3 0
4.2 0.3 0
4.5 0.3 0
4.8 0.3 0
5.1 0.3 0
5.4 0.3 0
5.7 0.3 0
6 0.3 0
6.3 0.3 0
6.6 0.3 0
6.9 0.3 0
7.2 0.3 0
7.5 0.3 0
7.8 0.3 0
8.1 0.3 0
8.4 0.3 0
8.7 0.3 0
9 0.3 0
9.3 0.3 0
9.6 0.3 0
9.9 0.3 0
10.2 0.3 0
10.5 0.3 0
10.8 0.3 0
11.1 0.3 0
11.4 0.3 0
11.7 0.3 0
12 0.3 0
12.3 0.3 0
12.6 0.3 0
12.9 0.3 0
13.2 0.3 0
13.5 0.3 0
13.8 0.3 0
14.1 0.3 0
14.4 0.3 0
14.7 0.3 0
15 0.3 0
15.3 0.3 0
15.6 0.3 0
15.9 0.3 0
16.2 0.3 0
16.5 0.3 0
16.8 0.3 0
17.1 0.3 0
17.4 0.3 0
17.7 0.3 0
18 0.3 0
18.3 0.3 0
18.6 0.3 0
18.9 0.3 0
19.2 0.3 0
19.5 0.3 0
19.8 0.3 0
20.1 0.3 0
20.4 0.3 0
20.7 0.3 0
21 0.3 0
21.3 0.3 0
21.6 0.3 0
21.9 0.3 0
22.2 0.3 0
22.5 0.3 0
22.8 0.3 0
23.1 0.3 0
23.4 0.3 0
23.7 0.3 0
24 0.3 0
24.3 0.3 0
24.6 0.3 0
24.9 0.3 0
25.2 0.3 0
25.5 0.3 0
25.8 0.3 0
26.1 0.3 0
26.4 0.3 0
26.7 0.3 0
27 0.3 0
27.3 0.3 0
27.6 0.3 0
27.9 0.3 0
28.2 0.3 0
28.5 0.3 0
28.8 0.3 0
29.1 0.3 0
29.4 0.3 0
29.7 0.3 0
30 0.3 0
30.3 0.3 0
0 0.4 0
0.3 0.4 0
0.6 0.4 0
0.9 0.4 0
1.2 0.4 0
1.5 0.4 0
1.8 0.4 0
2.1 0.4 0
2.4 0.4 0
2.7 0.4 0
3 0.4 0
3.3 0.4 0
3.6 0.4 0
3.9 0.4 0
4.2 0.4 0
4.5 0.4 0
4.8 0.4 0
5.1 0.4 0
5.4 0.4 0
5.7 0.4 0
6 0.4 0
6.3 0.4 0
6.6 0.4 0
6.9 0.4 0
7.2 0.4 0
7.5 0.4 0
7.8 0.4 0
8.1 0.4 0
8.4 0.4 0
8.7 0.4 0
9 0.4 0
9.3 0.4 0
9.6 0.4 0
9.9 0.4 0
10.2 0.4 0
10.5 0.4 0
10.8 0.4 0
11.1 0.4 0
11.4 0.4 0
11.7 0.4 0
12 0.4 0
12.3 0.4 0
12.6 0.4 0
12.9 0.4 0
13.2 0.4 0
13.5 0.4 0
13.8 0.4 0
14.1 0.4 0
14.4 0.4 0
14.7 0.4 0
15 0.4 0
15.3 0.4 0
15.6 0.4 0
15.9 0.4 0
16.2 0.4 0
16.5 0.4 0
16.8 0.4 0
17.1 0.4 0
17.4 0.4 0
17.7 0.4 0
18 0.4 0
18.3 0.4 0
18.6 0.4 0
18.9 0.4 0
19.2 0.4 0
19.5 0.4 0
19.8 0.4 0
20.1 0.4 0
20.4 0.4 0
20.7 0.4 0
21 0.4 0
21.3 0.4 0
21.6 0.4 0
21.9 0.4 0
22.2 0.4 0
22.5 0.4 0
22.8 0.4 0
23.1 0.4 0
23.4 0.4 0
23.7 0.4 0
24 0.4 0
24.3 0.4 0
24.6 0.4 0
24.9 0.4 0
25.2 0.4 0
25.5 0.4 0
25.8 0.4 0
26.1 0.4 0
26.4 0.4 0
26.7 0.4 0
27 0.4 0
27.3 0.4 0
27.6 0.4 0
27.9 0.4 0
28.2 0.4 0
28.5 0.4 0
28.8 0.4 0
29.1 0.4 0
29.4 0.4 0
29.7 0.4 0
30 0.4 0
30.3 0.4 0
0 0.5 0
0.3 0.5 0
0.6 0.5 0
0.9 0.5 0
1.2 0.5 0
1.5 0.5 0
1.8 0.5 0
2.1 0.5 0
2.4 0.5 0
2.7 0.5 0
3 0.5 0
3.3 0.5 0
3.6 0.5 0
3.9 0.5 0
4.2 0.5 0
4.5 0.5 0
4.8 0.5 0
5.1 0.5 0
5.4 0.5 0
5.7 0.5 0
6 0.5 0
6.3 0.5 0
6.6 0.5 0
6.9 0.5 0
7.2 0.5 0
7.5 0.5 0
7.8 0.5 0
8.1 0.5 0
8.4 0.5 0
8.7 0.5 0
9 0.5 0
9.3 0.5 0
9.6 0.5 0
9.9 0.5 0
10.2 0.5 0
10.5 0.5 0
10.8 0.5 0
11.1 0.5 0
11.4 0.5 0
11.7 0.5 0
12 0.5 0
12.3 0.5 0
12.6 0.5 0
12.9 0.5 0
13.2 0.5 0
13.5 0.5 0
13.8 0.5 0
14.1 0.5 0
14.4 0.5 0
14.7 0.5 0
15 0.5 0
15.3 0.5 0
15.6 0.5 0
15.9 0.5 0
16.2 0.5 0
16.5 0.5 0
16.8 0.5 0
17.1 0.5 0
17.4 0.5 0
17.7 0.5 0
18 0.5 0
18.3 0.5 0
18.6 0.5 0
18.9 0.5 0
19.2 0.5 0
19.5 0.5 0
19.8 0.5 0
20.1 0.5 0
20.4 0.5 0
20.7 0.5 0
21 0.5 0
21.3 0.5 0
21.6 0.5 0
21.9 0.5 0
22.2 0.5 0
22.5 0.5 0
22.8 0.5 0
23.1 0.5 0
23.4 0.5 0
23.7 0.5 0
24 0.5 0
24.3 0.5 0
24.6 0.5 0
24.9 0.5 0
25.2 0.5 0
25.5 0.5 0
25.8 0.5 0
26.1 0.5 0
26.4 0.5 0
26.7 0.5 0
27 0.5 0
27.3 0.5 0
27.6 0.5 0
27.9 0.5 0
28.2 0.5 0
28.5 0.5 0
28.8 0.5 0
29.1 0.5 0
29.4 0.5 0
29.7 0.5 0
30 0.5 0
30.3 0.5 0
0 0.6 0
0.3 0.6 0
0.6 0.6 0
0.9 0.6 0
1.2 0.6 0
1.5 0.6 0
1.8 0.6 0
2.1 0.6 0
2.4 0.6 0
2.7 0.6 0
3 0.6 0
3.3 0.6 0
3.6 0.6 0
3.9 0.6 0
4.2 0.6 0
4.5 0.6 0
4.8 0.6 0
5.1 0.6 0
5.4 0.6 0
5.7 0.6 0
6 0.6 0
6.3 0.6 0
6.6 0.6 0
6.9 0.6 0
7.2 0.6 0
7.5 0.6 0
7.8 0.6 0
8.1 0.6 0
8.4 0.6 0
8.7 0.6 0
9 0.6 0
9.3 0.6 0
9.6 0.6 0
9.9 0.6 0
10.2 0.6 0
10.5 0.6 0
10.8 0.6 0
11.1 0.6 0
11.4 0.6 0
11.7 0.6 0
12 0.6 0
12.3 0.6 0
12.6 0.6 0
12.9 0.6 0
13.2 0.6 0
13.5 0.6 0
13.8 0.6 0
14.1 0.6 0
14.4 0.6 0
14.7 0.6 0
15 0.6 0
15.3 0.6 0
15.6 0.6 0
15.9 0.6 0
16.2 0.6 0
16.5 0.6 0
16.8 0.6 0
17.1 0.6 0
17.4 0.6 0
17.7 0.6 0
18 0.6 0
18.3 0.6 0
18.6 0.6 0
18.9 0.6 0
19.2 0.6 0
19.5 0.6 0
19.8 0.6 0
20.1 0.6 0
20.4 0.6 0
20.7 0.6 0
21 0.6 0
21.3 0.6 0
21.6 0.6 0
21.9 0.6 0
22.2 0.6 0
22.5 0.6 0
22.8 0.6 0
23.1 0.6 0
23.4 0.6 0
23.7 0.6 0
24 0.6 0
24.3 0.6 0
24.6 0.6 0
24.9 0.6 0
25.2 0.6 0
25.5 0.6 0
25.8 0.6 0
26.1 0.6 0
26.4 0.6 0
26.7 0.6 0
27 0.6 0
27.3 0.6 0
27.6 0.6 0
27.9 0.6 0
28.2 0.6 0
28.5 0.6 0
28.8 0.6 0
29.1 0.6 0
29.4 0.6 0
29.7 0.6 0
30 0.6 0
30.3 0.6 0
0 0.7 0
0.3 0.7 0
0.6 0.7 0
0.9 0.7 0
1.2 0.7 0
1.5 0.7 0
1.8 0.7 0
2.1 0.7 0
2.4 0.7 0
2.7 0.7 0
3 0.7 0
3.3 0.7 0
3.6 0.7 0
3.9 0.7 0
4.2 0.7 0
4.5 0.7 0
4.8 0.7 0
5.1 0.7 0
5.4 0.7 0
5.7 0.7 0
6 0.7 0
6.3 0.7 0
6.6 0.7 0
6.9 0.7 0
7.2 0.7 0
7.5 0.7 0
7.8 0.7 0
8.1 0.7 0
8.4 0.7 0
8.7 0.7 0
9 0.7 0
9.3 0.7 0
9.6 0.7 0
9.9 0.7 0
10.2 0.7 0
10.5 0.7 0
10.8 0.7 0
11.1 0.7 0
11.4 0.7 0
11.7 0.7 0
12 0.7 0
12.3 0.7 0
12.6 0.7 0
12.9 0.7 0
13.2 0.7 0
13.5 0.7 0
13.8 0.7 0
14.1 0.7 0
14.4 0.7 0
14.7 0.7 0
15 0.7 0
15.3 0.7 0
15.6 0.7 0
15.9 0.7 0
16.2 0.7 0
16.5 0.7 0
16.8 0.7 0
17.1 0.7 0
17.4 0.7 0
17.7 0.7 0
18 0.7 0
18.3 0.7 0
18.6 0.7 0
18.9 0.7 0
19.2 0.7 0
19.5 0.7 0
19.8 0.7 0
20.1 0.7 0
20.4 0.7 0
20.7 0.7 0
21 0.7 0
21.3 0.7 0
21.6 0.7 0
21.9 0.7 0
22.2 0.7 0
22.5 0.7 0
22.8 0.7 0
23.1 0.7 0
23.4 0.7 0
23.7 0.7 0
24 0.7 0
24.3 0.7 0
24.6 0.7 0
24.9 0.7 0
25.2 0.7 0
25.5 0.7 0
25.8 0.7 0
26.1 0.7 0
26.4 0.7 0
26.7 0.7 0
27 0.7 0
27.3 0.7 0
27.6 0.7 0
27.9 0.7 0
28.2 0.7 0
28.5 0.7 0
28.8 0.7 0
29.1 0.7 0
29.4 0.7 0
29.7 0.7 0
30 0.7 0
30.3 0.7 0
0 0.8 0
0.3 0.8 0
0.6 0.8 0
0.9 0.8 0
1.2 0.8 0
1.5 0.8 0
1.8 0.8 0
2.1 0.8 0
2.4 0.8 0
2.7 0.8 0
3 0.8 0
3.3 0.8 0
3.6 0.8 0
3.9 0.8 0
4.2 0.8 0
4.5 0.8 0
4.8 0.8 0
5.1 0.8 0
5.4 0.8 0
5.7 0.8 0
6 0.8 0
6.3 0.8 0
6.6 0.8 0
6.9 0.8 0
7.2 0.8 0
7.5 0.8 0
7.8 0.8 0
8.1 0.8 0
8.4 0.8 0
8.7 0.8 0
9 0.8 0
9.3 0.8 0
9.6 0.8 0
9.9 0.8 0
10.2 0.8 0
10.5 0.8 0
10.8 0.8 0
11.1 0.8 0
11.4 0.8 0
11.7 0.8 0
12 0.8 0
12.3 0.8 0
12.6 0.8 0
12.9 0.8 0
13.2 0.8 0
13.5 0.8 0
13.8 0.8 0
14.1 0.8 0
14.4 0.8 0
14.7 0.8 0
15 0.8 0
15.3 0.8 0
15.6 0.8 0
15.9 0.8 0
16.2 0.8 0
16.5 0.8 0
16.8 0.8 0
17.1 0.8 0
17.4 0.8 0
17.7 0.8 0
18 0.8 0
18.3 0.8 0
18.6 0.8 0
18.9 0.8 0
19.2 0.8 0
19.5 0.8 0
19.8 0.8 0
20.1 0.8 0
20.4 0.8 0
20.7 0.8 0
21 0.8 0
21.3 0.8 0
21.6 0.8 0
21.9 0.8 0
22.2 0.8 0
22.5 0.8 0
22.8 0.8 0
23.1 0.8 0
23.4 0.8 0
23.7 0.8 0
24 0.8 0
24.3 0.8 0
24.6 0.8 0
24.9 0.8 0
25.2 0.8 0
25.5 0.8 0
25.8 0.8 0
26.1 0.8 0
26.4 0.8 0
26.7 0.8 0
27 0.8 0
27.3 0.8 0
27.6 0.8 0
27.9 0.8 0
28.2 0.8 0
28.5 0.8 0
28.8 0.8 0
29.1 0.8 0
29.4 0.8 0
29.7 0.8 0
30 0.8 0
30.3 0.8 0
0 0.9 0
0.3 0.9 0
0.6 0.9 0
0.9 0.9 0
1.2 0.9 0
1.5 0.9 0
1.8 0.9 0
2.1 0.9 0
2.4 0.9 0
2.7 0.9 0
3 0.9 0
3.3 0.9 0
3.6 0.9 0
3.9 0.9 0
4.2 0.9 0
4.5 0.9 0
4.8 0.9 0
5.1 0.9 0
5.4 0.9 0
5.7 0.9 0
6 0.9 0
6.3 0.9 0
6.6 0.9 0
6.9 0.9 0
7.2 0.9 0
7.5 0.9 0
7.8 0.9 0
8.1 0.9 0
8.4 0.9 0
8.7 0.9 0
9 0.9 0
9.3 0.9 0
9.6 0.9 0
9.9 0.9 0
10.2 0.9 0
10.5 0.9 0
10.8 0.9 0
11.1 0.9 0
11.4 0.9 0
11.7 0.9 0
12 0.9 0
12.3 0.9 0
12.6 0.9 0
12.9 0.9 0
13.2 0.9 0
13.5 0.9 0
13.8 0.9 0
14.1 0.9 0
14.4 0.9 0
14.7 0.9 0
15 0.9 0
15.3 0.9 0
15.6 0.9 0
15.9 0.9 0
16.2 0.9 0
16.5 0.9 0
16.8 0.9 0
17.1 0.9 0
17.4 0.9 0
17.7 0.9 0
18 0.9 0
18.3 0.9 0
18.6 0.9 0
18.9 0.9 0
19.2 0.9 0
19.5 0.9 0
19.8 0.9 0
20.1 0.9 0
20.4 0.9 0
20.7 0.9 0
21 0.9 0
21.3 0.9 0
21.6 0.9 0
21.9 0.9 0
22.2 0.9 0
22.5 0.9 0
22.8 0.9 0
23.1 0.9 0
23.4 0.9 0
23.7 0.9 0
24 0.9 0
24.3 0.9 0
24.6 0.9 0
24.9 0.9 0
25.2 0.9 0
25.5 0.9 0
25.8 0.9 0
26.1 0.9 0
26.4 0.9 0
26.7 0.9 0
27 0.9 0
27.3 0.9 0
27.6 0.9 0
27.9 0.9 0
28.2 0.9 0
28.5 0.9 0
28.8 0.9 0
29.1 0.9 0
29.4 0.9 0
29.7 0.9 0
30 0.9 0
30.3 0.9 0
0 1 0
0.3 1 0
0.6 1 0
0.9 1 0
1.2 1 0
1.5 1 0
1.8 1 0
2.1 1 0
2.4 1 0
2.7 1 0
3 1 0
3.3 1 0
3.6 1 0
3.9 1 0
4.2 1 0
4.5 1 0
4.8 1 0
5.1 1 0
5.4 1 0
5.7 1 0
6 1 0
6.3 1 0
6.6 1 0
6.9 1 0
7.2 1 0
7.5 1 0
7.8 1 0
8.1 1 0
8.4 1 0
8.7 1 0
9 1 0
9.3 1 0
9.6 1 0
9.9 1 0
10.2 1 0
10.5 1 0
10.8 1 0
11.1 1 0
11.4 1 0
11.7 1 0
12 1 0
12.3 1 0
12.6 1 0
12.9 1 0
13.2 1 0
13.5 1 0
13.8 1 0
14.1 1 0
14.4 1 0
14.7 1 0
15 1 0
15.3 1 0
15.6 1 0
15.9 1 0
16.2 1 0
16.5 1 0
16.8 1 0
17.1 1 0
17.4 1 0
17.7 1 0
18 1 0
18.3 1 0
18.6 1 0
18.9 1 0
19.2 1 0
19.5 1 0
19.8 1 0
20.1 1 0
20.4 1 0
20.7 1 0
21 1 0
21.3 1 0
21.6 1 0
21.9 1 0
22.2 1 0
22.5 1 0
22.8 1 0
23.1 1 0
23.4 1 0
23.7 1 0
24 1 0
24.3 1 0
24.6 1 0
24.9 1 0
25.2 1 0
25.5 1 0
25.8 1 0
26.1 1 0
26.4 1 0
26.7 1 0
27 1 0
27.3 1 0
27.6 1 0
27.9 1 0
28.2 1 0
28.5 1 0
28.8 1 0
29.1 1 0
29.4 1 0
29.7 1 0
30 1 0
30.3 1 0
0 1.1 0
0.3 1.1 0
0.6 1.1 0
0.9 1.1 0
1.2 1.1 0
1.5 1.1 0
1.8 1.1 0
2.1 1.1 0
2.4 1.1 0
2.7 1.1 0
3 1.1 0
3.3 1.1 0
3.6 1.1 0
3.9 1.1 0
4.2 1.1 0
4.5 1.1 0
4.8 1.1 0
5.1 1.1 0
5.4 1.1 0
5.7 1.1 0
6 1.1 0
6.3 1.1 0
6.6 1.1 0
6.9 1.1 0
7.2 1.1 0
7.5 1.1 0
7.8 1.1 0
8.1 1.1 0
8.4 1.1 0
8.7 1.1 0
9 1.1 0
9.3 1.1 0
9.6 1.1 0
9.9 1.1 0
10.2 1.1 0
10.5 1.1 0
10.8 1.1 0
11.1 1.1 0
11.4 1.1 0
11.7 1.1 0
12 1.1 0
12.3 1.1 0
12.6 1.1 0
12.9 1.1 0
13.2 1.1 0
13.5 1.1 0
13.8 1.1 0
14.1 1.1 0
14.4 1.1 0
14.7 1.1 0
15 1.1 0
15.3 1.1 0
15.6 1.1 0
15.9 1.1 0
16.2 1.1 0
16.5 1.1 0
16.8 1.1 0
17.1 1.1 0
17.4 1.1 0
17.7 1.1 0
18 1.1 0
18.3 1.1 0
18.6 1.1 0
18.9 1.1 0
19.2 1.1 0
19.5 1.1 0
19.8 1.1 0
20.1 1.1 0
20.4 1.1 0
20.7 1.1 0
21 1.1 0
21.3 1.1 0
21.6 1.1 0
21.9 1.1 0
22.2 1.1 0
22.5 1.1 0
22.8 1.1 0
23.1 1.1 0
23.4 1.1 0
23.7 1.1 0
24 1.1 0
24.3 1.1 0
24.6 1.1 0
24.9 1.1 0
25.2 1.1 0
25.5 1.1 0
25.8 1.1 0
26.1 1.1 0
26.4 1.1 0
26.7 1.1 0
27 1.1 0
27.3 1.1 0
27.6 1.1 0
27.9 1.1 0
28.2 1.1 0
28.5 1.1 0
28.8 1.1 0
29.1 1.1 0
29.4 1.1 0
29.7 1.1 0
30 1.1 0
30.3 1.1 0

POINT_DATA 1224

SCALARS pressure double
LOOKUP_TABLE pressure
1.31584
1.31584
1.24933
1.20225
1.15929
1.11964
1.08362
1.05123
1.02213
0.995793
0.971682
0.949329
0.928357
0.908475
0.889469
0.871179
0.853488
0.836307
0.819568
0.803218
0.787214
0.771522
0.756112
0.74096
0.726043
0.711342
0.696839
0.682521
0.668373
0.654382
0.640537
0.626828
0.613245
0.59978
0.586424
0.57317
0.560011
0.546942
0.533955
0.521045
0.508208
0.495439
0.482733
0.470086
0.457495
0.444955
0.432464
0.420019
0.407616
0.395254
0.38293
0.370641
0.358387
0.346166
0.333975
0.321815
0.309684
0.29758
0.285502
0.27345
0.261421
0.249415
0.23743
0.225464
0.213516
0.201585
0.189667
0.177762
0.165869
0.153984
0.142108
0.130239
0.118375
0.106516
0.0946611
0.0828088
0.0709588
0.0591106
0.0472638
0.0354181
0.0235731
0.0117288
-0.000115177
-0.0119588
-0.0238022
-0.0356455
-0.0474887
-0.0593317
-0.0711748
-0.0830178
-0.0948607
-0.106704
-0.118547
-0.13039
-0.142233
-0.154075
-0.165918
-0.177761
-0.189604
-0.201447
-0.213288
0.213288
1.31584
1.31584
1.24933
1.20225
1.15929
1.11964
1.08362
1.05123
1.02213
0.995793
0.971682
0.949329
0.928357
0.908475
0.889469
0.871179
0.853488
0.836307
0.819568
0.803218
0.787214
0.771522
0.756112
0.74096
0.726043
0.711342
0.696839
0.682521
0.668373
0.654382
0.640537
0.626828
0.613245
0.59978
0.586424
0.57317
0.560011
0.546942
0.533955
0.521045
0.508208
0.495439
0.482733
0.470086
0.457495
0.444955
0.432464
0.420019
0.407616
0.395254
0.38293
0.370641
0.358387
0.346166
0.333975
0.321815
0.309684
0.29758
0.285502
0.27345
0.261421
0.249415
0.23743
0.225464
0.213516
0.201585
0.189667
0.177762
0.165869
0.153984
0.142108
0.130239
0.118375
0.106516
0.0946611
0.0828088
0.0709588
0.0591106
0.0472638
0.0354181
0.0235731
0.0117288
-0.000115177
-0.0119588
-0.0238022
-0.0356455
-0.0474887
-0.0593317
-0.0711748
-0.0830178
-0.0948607
-0.106704
-0.118547
-0.13039
-0.142233
-0.154075
-0.165918
-0.177761
-0.189604
-0.201447
-0.213288
0.213288
1.29519
1.29519
1.24753
1.20256
1.16001
1.12041
1.08432
1.05182
1.0226
0.996163
0.971968
0.94955
0.92853
0.908612
0.88958
0.871272
0.853566
0.836373
0.819626
0.803268
0.787259
0.771562
0.756149
0.740993
0.726072
0.711369
0.696864
0.682544
0.668394
0.654401
0.640555
0.626845
0.613261
0.599794
0.586437
0.573182
0.560023
0.546952
0.533964
0.521054
0.508217
0.495447
0.48274
0.470093
0.457501
0.444961
0.43247
0.420024
0.407621
0.395259
0.382934
0.370645
0.358391
0.346169
0.333978
0.321818
0.309686
0.297581
0.285504
0.273451
0.261422
0.249416
0.237431
0.225465
0.213517
0.201585
0.189667
0.177762
0.165869
0.153984
0.142108
0.130239
0.118375
0.106516
0.0946611
0.0828088
0.0709588
0.0591106
0.0472638
0.0354181
0.0235731
0.0117288
-0.000115187
-0.0119588
-0.0238022
-0.0356455
-0.0474887
-0.0593317
-0.0711748
-0.0830178
-0.0948607
-0.106704
-0.118547
-0.13039
-0.142233
-0.154075
-0.165918
-0.177761
-0.189604
-0.201447
-0.213288
0.213288
1.2808
1.2808
1.24502
1.20295
1.16114
1.12167
1.08549
1.05281
1.02339
0.996769
0.972424
0.949891
0.928785
0.908807
0.88973
0.87139
0.853661
0.836452
0.819691
0.803325
0.787308
0.771605
0.756186
0.741026
0.726102
0.711395
0.696888
0.682565
0.668413
0.654419
0.640571
0.626859
0.613274
0.599806
0.586449
0.573193
0.560032
0.546961
0.533973
0.521062
0.508224
0.495453
0.482746
0.470099
0.457507
0.444966
0.432475
0.420029
0.407625
0.395262
0.382937
0.370648
0.358394
0.346171
0.333981
0.32182
0.309688
0.297583
0.285505
0.273452
0.261423
0.249417
0.237431
0.225466
0.213517
0.201585
0.189668
0.177763
0.165869
0.153985
0.142108
0.130239
0.118375
0.106516
0.0946611
0.0828087
0.0709588
0.0591106
0.0472638
0.0354181
0.0235731
0.0117287
-0.000115193
-0.0119588
-0.0238022
-0.0356455
-0.0474887
-0.0593317
-0.0711748
-0.0830178
-0.0948607
-0.106704
-0.118547
-0.13039
-0.142233
-0.154075
-0.165918
-0.177761
-0.189604
-0.201446
-0.213287
0.213287
1.27211
1.27211
1.24301
1.20321
1.16207
1.12275
1.08652
1.05371
1.02413
0.997348
0.972872
0.950236
0.929051
0.909014
0.889895
0.871523
0.853771
0.836544
0.819769
0.803391
0.787366
0.771656
0.756231
0.741066
0.726138
0.711427
0.696917
0.682591
0.668437
0.65444
0.640591
0.626877
0.61329
0.599821
0.586462
0.573205
0.560044
0.546972
0.533982
0.521071
0.508232
0.495461
0.482754
0.470105
0.457513
0.444972
0.43248
0.420034
0.40763
0.395267
0.382941
0.370652
0.358397
0.346175
0.333984
0.321823
0.30969
0.297586
0.285507
0.273454
0.261425
0.249419
0.237433
0.225467
0.213519
0.201586
0.189669
0.177763
0.165869
0.153985
0.142109
0.130239
0.118376
0.106517
0.0946612
0.0828089
0.0709588
0.0591106
0.0472638
0.0354181
0.0235731
0.0117288
-0.000115179
-0.0119588
-0.0238022
-0.0356455
-0.0474887
-0.0593317
-0.0711748
-0.0830178
-0.0948607
-0.106704
-0.118547
-0.13039
-0.142232
-0.154075
-0.165918
-0.177761
-0.189604
-0.201445
-0.213287
0.213287
1.26803
1.26803
1.24193
1.20333
1.16256
1.12334
1.08709
1.05421
1.02454
0.997683
0.973136
0.950443
0.929215
0.909145
0.890001
0.87161
0.853844
0.836606
0.819823
0.803438
0.787407
0.771692
0.756264
0.741095
0.726164
0.711451
0.696938
0.682611
0.668455
0.654457
0.640605
0.626891
0.613303
0.599833
0.586473
0.573215
0.560053
0.54698
0.53399
0.521078
0.508239
0.495467
0.482759
0.470111
0.457518
0.444977
0.432484
0.420037
0.407634
0.39527
0.382945
0.370655
0.3584
0.346178
0.333986
0.321825
0.309693
0.297588
0.28551
0.273456
0.261427
0.24942
0.237435
0.225468
0.21352
0.201587
0.18967
0.177764
0.16587
0.153986
0.142109
0.13024
0.118376
0.106517
0.0946615
0.082809
0.070959
0.0591107
0.0472639
0.0354181
0.0235732
0.0117288
-0.000115158
-0.0119588
-0.0238022
-0.0356455
-0.0474886
-0.0593317
-0.0711748
-0.0830178
-0.0948607
-0.106704
-0.118547
-0.13039
-0.142232
-0.154075
-0.165918
-0.177761
-0.189604
-0.201444
-0.213286
0.213286
1.26803
1.26803
1.24193
1.20333
1.16256
1.12334
1.08709
1.05421
1.02454
0.997683
0.973136
0.950443
0.929215
0.909145
0.890001
0.87161
0.853844
0.836606
0.819823
0.803438
0.787407
0.771692
0.756264
0.741095
0.726164
0.711451
0.696938
0.682611
0.668455
0.654457
0.640605
0.626891
0.613303
0.599833
0.586473
0.573215
0.560053
0.54698
0.53399
0.521078
0.508239
0.495467
0.482759
0.470111
0.457518
0.444977
0.432484
0.420037
0.407634
0.39527
0.382945
0.370655
0.3584
0.346178
0.333986
0.321825
0.309693
0.297588
0.28551
0.273456
0.261427
0.24942
0.237435
0.225468
0.21352
0.201587
0.18967
0.177764
0.16587
0.153986
0.142109
0.13024
0.118376
0.106517
0.0946615
0.082809
0.070959
0.0591107
0.0472639
0.0354181
0.0235732
0.0117288
-0.000115157
-0.0119588
-0.0238022
-0.0356455
-0.0474886
-0.0593317
-0.0711748
-0.0830178
-0.0948607
-0.106704
-0.118547
-0.13039
-0.142232
-0.154075
-0.165918
-0.177761
-0.189604
-0.201444
-0.213286
0.213286
1.27211
1.27211
1.24301
1.20321
1.16207
1.12275
1.08652
1.05371
1.02413
0.997348
0.972872
0.950236
0.929051
0.909014
0.889895
0.871523
0.853771
0.836544
0.819769
0.803391
0.787366
0.771656
0.756231
0.741066
0.726138
0.711427
0.696917
0.682591
0.668437
0.65444
0.640591
0.626877
0.61329
0.599821
0.586462
0.573205
0.560044
0.546972
0.533982
0.521071
0.508232
0.495461
0.482754
0.470105
0.457513
0.444972
0.43248
0.420034
0.40763
0.395267
0.382941
0.370652
0.358397
0.346175
0.333984
0.321823
0.30969
0.297586
0.285507
0.273454
0.261425
0.249419
0.237433
0.225467
0.213519
0.201586
0.189669
0.177763
0.165869
0.153985
0.142109
0.130239
0.118376
0.106517
0.0946612
0.0828089
0.0709588
0.0591106
0.0472638
0.0354181
0.0235731
0.0117288
-0.000115177
-0.0119588
-0.0238022
-0.0356455
-0.0474887
-0.0593317
-0.0711748
-0.0830178
-0.0948607
-0.106704
-0.118547
-0.13039
-0.142232
-0.154075
-0.165918
-0.177761
-0.189604
-0.201445
-0.213287
0.213287
1.2808
1.2808
1.24502
1.20295
1.16114
1.12167
1.08549
1.05281
1.02339
0.996769
0.972424
0.949891
0.928785
0.908807
0.88973
0.87139
0.853661
0.836452
0.819691
0.803325
0.787308
0.771605
0.756186
0.741026
0.726102
0.711395
0.696888
0.682565
0.668413
0.654419
0.640571
0.626859
0.613274
0.599807
0.586449
0.573193
0.560032
0.546961
0.533973
0.521062
0.508224
0.495453
0.482746
0.470099
0.457507
0.444966
0.432475
0.420029
0.407625
0.395262
0.382937
0.370648
0.358394
0.346171
0.333981
0.32182
0.309688
0.297583
0.285505
0.273452
0.261423
0.249417
0.237431
0.225466
0.213517
0.201585
0.189668
0.177763
0.165869
0.153985
0.142108
0.130239
0.118375
0.106516
0.0946611
0.0828087
0.0709588
0.0591106
0.0472638
0.0354181
0.0235731
0.0117287
-0.00011519
-0.0119588
-0.0238022
-0.0356455
-0.0474887
-0.0593317
-0.0711748
-0.0830178
-0.0948607
-0.106704
-0.118547
-0.13039
-0.142232
-0.154075
-0.165918
-0.177761
-0.189604
-0.201446
-0.213287
0.213287
1.29519
1.29519
1.24753
1.20256
1.16001
1.12041
1.08432
1.05182
1.0226
0.996163
0.971968
0.94955
0.92853
0.908612
0.88958
0.871272
0.853566
0.836373
0.819626
0.803268
0.787259
0.771562
0.756149
0.740993
0.726072
0.711369
0.696864
0.682544
0.668394
0.654401
0.640555
0.626845
0.613261
0.599794
0.586437
0.573182
0.560023
0.546952
0.533964
0.521054
0.508217
0.495447
0.48274
0.470093
0.457501
0.444961
0.43247
0.420024
0.407621
0.395259
0.382934
0.370645
0.358391
0.346169
0.333978
0.321818
0.309686
0.297581
0.285504
0.273451
0.261422
0.249416
0.237431
0.225465
0.213517
0.201585
0.189667
0.177762
0.165869
0.153984
0.142108
0.130239
0.118375
0.106516
0.0946611
0.0828088
0.0709588
0.0591106
0.0472638
0.0354181
0.0235731
0.0117288
-0.000115184
-0.0119588
-0.0238022
-0.0356455
-0.0474887
-0.0593317
-0.0711748
-0.0830178
-0.0948607
-0.106704
-0.118547
-0.13039
-0.142232
-0.154075
-0.165918
-0.177761
-0.189604
-0.201447
-0.213288
0.213288
1.31584
1.31584
1.24933
1.20225
1.15929
1.11964
1.08362
1.05123
1.02213
0.995793
0.971682
0.949329
0.928357
0.908475
0.889469
0.871179
0.853488
0.836307
0.819568
0.803218
0.787214
0.771522
0.756112
0.74096
0.726043
0.711342
0.696839
0.682521
0.668373
0.654382
0.640537
0.626828
0.613245
0.59978
0.586424
0.57317
0.560011
0.546942
0.533955
0.521045
0.508208
0.495439
0.482733
0.470086
0.457495
0.444955
0.432464
0.420019
0.407616
0.395254
0.38293
0.370641
0.358387
0.346166
0.333975
0.321815
0.309684
0.29758
0.285502
0.27345
0.261421
0.249415
0.23743
0.225464
0.213516
0.201585
0.189667
0.177762
0.165869
0.153984
0.142108
0.130239
0.118375
0.106516
0.0946611
0.0828088
0.0709588
0.0591106
0.0472638
0.0354181
0.0235731
0.0117288
-0.000115176
-0.0119588
-0.0238022
-0.0356455
-0.0474887
-0.0593317
-0.0711748
-0.0830178
-0.0948607
-0.106704
-0.118547
-0.13039
-0.142232
-0.154075
-0.165918
-0.177761
-0.189604
-0.201447
-0.213288
0.213288
1.31584
1.31584
1.24933
1.20225
1.15929
1.11964
1.08362
1.05123
1.02213
0.995793
0.971682
0.949329
0.928357
0.908475
0.889469
0.871179
0.853488
0.836307
0.819568
0.803218
0.787214
0.771522
0.756112
0.74096
0.726043
0.711342
0.696839
0.682521
0.668373
0.654382
0.640537
0.626828
0.613245
0.59978
0.586424
0.57317
0.560011
0.546942
0.533955
0.521045
0.508208
0.495439
0.482733
0.470086
0.457495
0.444955
0.432464
0.420019
0.407616
0.395254
0.38293
0.370641
0.358387
0.346166
0.333975
0.321815
0.309684
0.29758
0.285502
0.27345
0.261421
0.249415
0.23743
0.225464
0.213516
0.201585
0.189667
0.177762
0.165869
0.153984
0.142108
0.130239
0.118375
0.106516
0.0946611
0.0828088
0.0709588
0.0591106
0.0472638
0.0354181
0.0235731
0.0117288
-0.000115176
-0.0119588
-0.0238022
-0.0356455
-0.0474887
-0.0593317
-0.0711748
-0.0830178
-0.0948607
-0.106704
-0.118547
-0.13039
-0.142232
-0.154075
-0.165918
-0.177761
-0.189604
-0.201447
-0.213288
0.213288
SCALARS phi double
LOOKUP_TABLE phi
1
1
1
0.999995
0.999977
0.999931
0.999833
0.999654
0.999363
0.998928
0.998322
0.997522
0.996512
0.995278
0.993814
0.992115
0.990184
0.988034
0.985679
0.983113
0.980268
0.976981
0.972988
0.967948
0.961492
0.953281
0.943048
0.930626
0.915949
0.899042
0.880007
0.859
0.836217
0.81188
0.78622
0.759477
0.731883
0.703665
0.675033
0.646185
0.617296
0.588527
0.560017
0.531887
0.504242
0.477167
0.450735
0.425004
0.40002
0.375817
0.35242
0.329847
0.308108
0.287207
0.267143
0.247912
0.229509
0.211922
0.195144
0.179162
0.163966
0.149546
0.135892
0.122994
0.110844
0.0994338
0.0887572
0.0788064
0.0695738
0.0610506
0.0532263
0.0460876
0.0396184
0.0337987
0.0286043
0.024007
0.0199744
0.0164702
0.0134551
0.0108872
0.00872334
0.00691965
0.00543292
0.00422138
0.00324548
0.00246859
0.00185744
0.00138242
0.00101762
0.000740855
0.000533409
0.000379801
0.000267432
0.000186222
0.000128236
8.73299e-05
5.88149e-05
3.91812e-05
2.57841e-05
1.69401e-05
1.02114e-05
1.02114e-05
1
1
1
0.999995
0.999977
0.999931
0.999833
0.999654
0.999363
0.998928
0.998322
0.997522
0.996512
0.995278
0.993814
0.992115
0.990184
0.988034
0.985679
0.983113
0.980268
0.976981
0.972988
0.967948
0.961492
0.953281
0.943048
0.930626
0.915949
0.899042
0.880007
0.859
0.836217
0.81188
0.78622
0.759477
0.731883
0.703665
0.675033
0.646185
0.617296
0.588527
0.560017
0.531887
0.504242
0.477167
0.450735
0.425004
0.40002
0.375817
0.35242
0.329847
0.308108
0.287207
0.267143
0.247912
0.229509
0.211922
0.195144
0.179162
0.163966
0.149546
0.135892
0.122994
0.110844
0.0994338
0.0887572
0.0788064
0.0695738
0.0610506
0.0532263
0.0460876
0.0396184
0.0337987
0.0286043
0.024007
0.0199744
0.0164702
0.0134551
0.0108872
0.00872334
0.00691965
0.00543292
0.00422138
0.00324548
0.00246859
0.00185744
0.00138242
0.00101762
0.000740855
0.000533409
0.000379801
0.000267432
0.000186222
0.000128236
8.73299e-05
5.88149e-05
3.91812e-05
2.57841e-05
1.69401e-05
1.02114e-05
1.02114e-05
0.999998
1
0.999984
0.999921
0.999783
0.999536
0.999146
0.99858
0.997811
0.996819
0.995589
0.994116
0.992397
0.990436
0.98824
0.985816
0.983176
0.980331
0.977299
0.974093
0.970718
0.967154
0.963341
0.959171
0.954491
0.949116
0.942843
0.935478
0.926849
0.916822
0.905307
0.892256
0.87767
0.861586
0.844076
0.825238
0.805192
0.784074
0.762026
0.739196
0.715732
0.691779
0.667475
0.642951
0.618326
0.593714
0.569212
0.544912
0.520891
0.497217
0.473948
0.451133
0.428811
0.407011
0.385758
0.365067
0.344946
0.325399
0.306423
0.288013
0.270159
0.252851
0.236075
0.219818
0.204071
0.188823
0.174072
0.159816
0.146063
0.132827
0.120127
0.107989
0.0964459
0.0855309
0.0752793
0.0657242
0.0568939
0.048809
0.0414808
0.0349092
0.0290821
0.0239756
0.0195547
0.0157749
0.0125842
0.00992548
0.00773899
0.00596448
0.00454337
0.00342036
0.00254468
0.0018709
0.00135932
0.000975996
0.000692526
0.000485626
0.000336549
0.000230567
0.000155903
0.000105301
6.49964e-05
6.49964e-05
1.00001
0.999992
0.99954
0.998615
0.997207
0.995316
0.992954
0.990144
0.986922
0.983331
0.979421
0.975241
0.970836
0.966247
0.961513
0.956664
0.951728
0.946727
0.941682
0.936609
0.931522
0.926431
0.921334
0.916218
0.911054
0.905794
0.900371
0.894704
0.888701
0.882265
0.875302
0.867723
0.859448
0.850412
0.840568
0.829883
0.818342
0.805947
0.792714
0.778673
0.763867
0.748346
0.732169
0.7154
0.698108
0.680363
0.662235
0.643795
0.625111
0.606248
0.58727
0.568233
0.549191
0.530192
0.511277
0.492483
0.473839
0.455367
0.437083
0.418995
0.401105
0.383407
0.36589
0.348534
0.331319
0.314216
0.297199
0.280242
0.263326
0.24644
0.229587
0.21279
0.196089
0.179548
0.163252
0.147303
0.131819
0.116924
0.102744
0.0893964
0.0769831
0.0655856
0.0552595
0.0460316
0.0379005
0.0308374
0.0247901
0.0196874
0.015444
0.0119662
0.00915722
0.00692094
0.00516606
0.00380849
0.00277304
0.0019943
0.00141664
0.00099429
0.000688278
0.000476026
0.000300526
0.000300526
1.00143
0.99857
0.991252
0.98188
0.971566
0.96086
0.950051
0.939311
0.928756
0.918467
0.908503
0.898898
0.889671
0.880827
0.87236
0.864261
0.856512
0.849097
0.841997
0.835192
0.828665
0.822396
0.81637
0.810566
0.804966
0.799546
0.794278
0.78913
0.784063
0.779035
0.773998
0.7689
0.763689
0.758312
0.752716
0.746852
0.740674
0.734142
0.727221
0.719883
0.712106
0.703874
0.69518
0.68602
0.6764
0.666327
0.655817
0.644886
0.633556
0.621852
0.6098
0.597429
0.584767
0.571844
0.558687
0.545324
0.53178
0.518076
0.504233
0.490262
0.476175
0.461971
0.447646
0.433186
0.418565
0.403748
0.388691
0.373338
0.357629
0.341502
0.324901
0.307785
0.290132
0.271954
0.2533
0.23426
0.214968
0.195598
0.176353
0.157459
0.139148
0.121646
0.105158
0.0898557
0.0758703
0.0632857
0.052138
0.0424174
0.0340737
0.0270234
0.0211583
0.0163542
0.0124791
0.00940035
0.00699084
0.0051329
0.0037209
0.00266412
0.00188027
0.00132602
0.00085349
0.00085349
1.0456
0.954401
0.887723
0.838674
0.801641
0.772861
0.749886
0.731119
0.715499
0.702298
0.691001
0.681228
0.672693
0.665173
0.658493
0.652515
0.647126
0.642236
0.637772
0.633674
0.629891
0.626383
0.623115
0.620059
0.61719
0.614485
0.611926
0.609493
0.607168
0.604931
0.602763
0.600641
0.598545
0.596449
0.594329
0.592158
0.589909
0.587556
0.58507
0.582427
0.579601
0.576569
0.573308
0.569799
0.566025
0.561969
0.55762
0.552967
0.548003
0.542723
0.537124
0.531205
0.524967
0.518414
0.511551
0.504382
0.496915
0.489155
0.481108
0.472778
0.464167
0.455274
0.44609
0.4366
0.426778
0.416586
0.405971
0.394863
0.383181
0.370828
0.357703
0.34371
0.328767
0.312818
0.295849
0.277896
0.259054
0.239477
0.219378
0.199014
0.178681
0.158684
0.139331
0.120905
0.10365
0.0877602
0.0733727
0.060562
0.0493442
0.0396827
0.0314971
0.0246735
0.0190757
0.0145555
0.010962
0.00814882
0.00597927
0.00433241
0.00309342
0.00220714
0.00143749
0.00143749
-0.0455988
0.0455988
0.112277
0.161327
0.198359
0.227139
0.250114
0.268881
0.284502
0.297702
0.308999
0.318772
0.327307
0.334827
0.341507
0.347485
0.352874
0.357764
0.362228
0.366327
0.37011
0.373618
0.376885
0.379941
0.38281
0.385511
0.388063
0.39048
0.392773
0.394953
0.397028
0.399004
0.400883
0.402669
0.40436
0.405955
0.407451
0.408842
0.41012
0.411279
0.412308
0.413196
0.413933
0.414506
0.414903
0.41511
0.415115
0.414905
0.414468
0.413791
0.412863