# vtk DataFile Version 3.0
FlowField
ASCII
DATASET STRUCTURED_GRID
DIMENSIONS 22 17 12 
POINTS 4488 double
0 0 0
0.1 0 0
0.2 0 0
0.3 0 0
0.4 0 0
0.5 0 0
0.6 0 0
0.7 0 0
0.8 0 0
0.9 0 0
1 0 0
1.1 0 0
1.2 0 0
1.3 0 0
1.4 0 0
1.5 0 0
1.6 0 0
1.7 0 0
1.8 0 0
1.9 0 0
2 0 0
2.1 0 0
0 0.1 0
0.1 0.1 0
0.2 0.1 0
0.3 0.1 0
0.4 0.1 0
0.5 0.1 0
0.6 0.1 0
0.7 0.1 0
0.8 0.1 0
0.9 0.1 0
1 0.1 0
1.1 0.1 0
1.2 0.1 0
1.3 0.1 0
1.4 0.1 0
1.5 0.1 0
1.6 0.1 0
1.7 0.1 0
1.8 0.1 0
1.9 0.1 0
2 0.1 0
2.1 0.1 0
0 0.2 0
0.1 0.2 0
0.2 0.2 0
0.3 0.2 0
0.4 0.2 0
0.5 0.2 0
0.6 0.2 0
0.7 0.2 0
0.8 0.2 0
0.9 0.2 0
1 0.2 0
1.1 0.2 0
1.2 0.2 0
1.3 0.2 0
1.4 0.2 0
1.5 0.2 0
1.6 0.2 0
1.7 0.2 0
1.8 0.2 0
1.9 0.2 0
2 0.2 0
2.1 0.2 0
0 0.3 0
0.1 0.3 0
0.2 0.3 0
0.3 0.3 0
0.4 0.3 0
0.5 0.3 0
0.6 0.3 0
0.7 0.3 0
0.8 0.3 0
0.9 0.3 0
1 0.3 0
1.1 0.3 0
1.2 0.3 0
1.3 0.3 0
1.4 0.3 0
1.5 0.3 0
1.6 0.3 0
1.7 0.3 0
1.8 0.3 0
1.9 0.3 0
2 0.3 0
2.1 0.3 0
0 0.4 0
0.1 0.4 0
0.2 0.4 0
0.3 0.4 0
0.4 0.4 0
0.5 0.4 0
0.6 0.4 0
0.7 0.4 0
0.8 0.4 0
0.9 0.4 0
1 0.4 0
1.1 0.4 0
1.2 0.4 0
1.3 0.4 0
1.4 0.4 0
1.5 0.4 0
1.6 0.4 0
1.7 0.4 0
1.8 0.4 0
1.9 0.4 0
2 0.4 0
2.1 0.4 0
0 0.5 0
0.1 0.5 0
0.2 0.5 0
0.3 0.5 0
0.4 0.5 0
0.5 0.5 0
0.6 0.5 0
0.7 0.5 0
0.8 0.5 0
0.9 0.5 0
1 0.5 0
1.1 0.5 0
1.2 0.5 0
1.3 0.5 0
1.4 0.5 0
1.5 0.5 0
1.6 0.5 0
1.7 0.5 0
1.8 0.5 0
1.9 0.5 0
2 0.5 0
2.1 0.5 0
0 0.6 0
0.1 0.6 0
0.2 0.6 0
0.3 0.6 0
0.4 0.6 0
0.5 0.6 0
0.6 0.6 0
0.7 0.6 0
0.8 0.6 0
0.9 0.6 0
1 0.6 0
1.1 0.6 0
1.2 0.6 0
1.3 0.6 0
1.4 0.6 0
1.5 0.6 0
1.6 0.6 0
1.7 0.6 0
1.8 0.6 0
1.9 0.6 0
2 0.6 0
2.1 0.6 0
0 0.7 0
0.1 0.7 0
0.2 0.7 0
0.3 0.7 0
0.4 0.7 0
0.5 0.7 0
0.6 0.7 0
0.7 0.7 0
0.8 0.7 0
0.9 0.7 0
1 0.7 0
1.1 0.7 0
1.2 0.7 0
1.3 0.7 0
1.4 0.7 0
1.5 0.7 0
1.6 0.7 0
1.7 0.7 0
1.8 0.7 0
1.9 0.7 0
2 0.7 0
2.1 0.7 0
0 0.8 0
0.1 0.8 0
0.2 0.8 0
0.3 0.8 0
0.4 0.8 0
0.5 0.8 0
0.6 0.8 0
0.7 0.8 0
0.8 0.8 0
0.9 0.8 0
1 0.8 0
1.1 0.8 0
1.2 0.8 0
1.3 0.8 0
1.4 0.8 0
1.5 0.8 0
1.6 0.8 0
1.7 0.8 0
1.8 0.8 0
1.9 0.8 0
2 0.8 0
2.1 0.8 0
0 0.9 0
0.1 0.9 0
0.2 0.9 0
0.3 0.9 0
0.4 0.9 0
0.5 0.9 0
0.6 0.9 0
0.7 0.9 0
0.8 0.9 0
0.9 0.9 0
1 0.9 0
1.1 0.9 0
1.2 0.9 0
1.3 0.9 0
1.4 0.9 0
1.5 0.9 0
1.6 0.9 0
1.7 0.9 0
1.8 0.9 0
1.9 0.9 0
2 0.9 0
2.1 0.9 0
0 1 0
0.1 1 0
0.2 1 0
0.3 1 0
0.4 1 0
0.5 1 0
0.6 1 0
0.7 1 0
0.8 1 0
0.9 1 0
1 1 0
1.1 1 0
1.2 1 0
1.3 1 0
1.4 1 0
1.5 1 0
1.6 1 0
1.7 1 0
1.8 1 0
1.9 1 0
2 1 0
2.1 1 0
0 1.1 0
0.1 1.1 0
0.2 1.1 0
0.3 1.1 0
0.4 1.1 0
0.5 1.1 0
0.6 1.1 0
0.7 1.1 0
0.8 1.1 0
0.9 1.1 0
1 1.1 0
1.1 1.1 0
1.2 1.1 0
1.3 1.1 0
1.4 1.1 0
1.5 1.1 0
1.6 1.1 0
1.7 1.1 0
1.8 1.1 0
1.9 1.1 0
2 1.1 0
2.1 1.1 0
0 1.2 0
0.1 1.2 0
0.2 1.2 0
0.3 1.2 0
0.4 1.2 0
0.5 1.2 0
0.6 1.2 0
0.7 1.2 0
0.8 1.2 0
0.9 1.2 0
1 1.2 0
1.1 1.2 0
1.2 1.2 0
1.3 1.2 0
1.4 1.2 0
1.5 1.2 0
1.6 1.2 0
1.7 1.2 0
1.8 1.2 0
1.9 1.2 0
2 1.2 0
2.1 1.2 0
0 1.3 0
0.1 1.3 0
0.2 1.3 0
0.3 1.3 0
0.4 1.3 0
0.5 1.3 0
0.6 1.3 0
0.7 1.3 0
0.8 1.3 0
0.9 1.3 0
1 1.3 0
1.1 1.3 0
1.2 1.3 0
1.3 1.3 0
1.4 1.3 0
1.5 1.3 0
1.6 1.3 0
1.7 1.3 0
1.8 1.3 0
1.9 1.3 0
2 1.3 0
2.1 1.3 0
0 1.4 0
0.1 1.4 0
0.2 1.4 0
0.3 1.4 0
0.4 1.4 0
0.5 1.4 0
0.6 1.4 0
0.7 1.4 0
0.8 1.4 0
0.9 1.4 0
1 1.4 0
1.1 1.4 0
1.2 1.4 0
1.3 1.4 0
1.4 1.4 0
1.5 1.4 0
1.6 1.4 0
1.7 1.4 0
1.8 1.4 0
1.9 1.4 0
2 1.4 0
2.1 1.4 0
0 1.5 0
0.1 1.5 0
0.2 1.5 0
0.3 1.5 0
0.4 1.5 0
0.5 1.5 0
0.6 1.5 0
0.7 1.5 0
0.8 1.5 0
0.9 1.5 0
1 1.5 0
1.1 1.5 0
1.2 1.5 0
1.3 1.5 0
1.4 1.5 0
1.5 1.5 0
1.6 1.5 0
1.7 1.5 0
1.8 1.5 0
1.9 1.5 0
2 1.5 0
2.1 1.5 0
0 1.6 0
0.1 1.6 0
0.2 1.6 0
0.3 1.6 0
0.4 1.6 0
0.5 1.6 0
0.6 1.6 0
0.7 1.6 0
0.8 1.6 0
0.9 1.6 0
1 1.6 0
1.1 1.6 0
1.2 1.6 0
1.3 1.6 0
1.4 1.6 0
1.5 1.6 0
1.6 1.6 0
1.7 1.6 0
1.8 1.6 0
1.9 1.6 0
2 1.6 0
2.1 1.6 0
0 0 0.1
0.1 0 0.1
0.2 0 0.1
0.3 0 0.1
0.4 0 0.1
0.5 0 0.1
0.6 0 0.1
0.7 0 0.1
0.8 0 0.1
0.9 0 0.1
1 0 0.1
1.1 0 0.1
1.2 0 0.1
1.3 0 0.1
1.4 0 0.1
1.5 0 0.1
1.6 0 0.1
1.7 0 0.1
1.8 0 0.1
1.9 0 0.1
2 0 0.1
2.1 0 0.1
0 0.1 0.1
0.1 0.1 0.1
0.2 0.1 0.1
0.3 0.1 0.1
0.4 0.1 0.1
0.5 0.1 0.1
0.6 0.1 0.1
0.7 0.1 0.1
0.8 0.1 0.1
0.9 0.1 0.1
1 0.1 0.1
1.1 0.1 0.1
1.2 0.1 0.1
1.3 0.1 0.1
1.4 0.1 0.1
1.5 0.1 0.1
1.6 0.1 0.1
1.7 0.1 0.1
1.8 0.1 0.1
1.9 0.1 0.1
2 0.1 0.1
2.1 0.1 0.1
0 0.2 0.1
0.1 0.2 0.1
0.2 0.2 0.1
0.3 0.2 0.1
0.4 0.2 0.1
0.5 0.2 0.1
0.6 0.2 0.1
0.7 0.2 0.1
0.8 0.2 0.1
0.9 0.2 0.1
1 0.2 0.1
1.1 0.2 0.1
1.2 0.2 0.1
1.3 0.2 0.1
1.4 0.2 0.1
1.5 0.2 0.1
1.6 0.2 0.1
1.7 0.2 0.1
1.8 0.2 0.1
1.9 0.2 0.1
2 0.2 0.1
2.1 0.2 0.1
0 0.3 0.1
0.1 0.3 0.1
0.2 0.3 0.1
0.3 0.3 0.1
0.4 0.3 0.1
0.5 0.3 0.1
0.6 0.3 0.1
0.7 0.3 0.1
0.8 0.3 0.1
0.9 0.3 0.1
1 0.3 0.1
1.1 0.3 0.1
1.2 0.3 0.1
1.3 0.3 0.1
1.4 0.3 0.1
1.5 0.3 0.1
1.6 0.3 0.1
1.7 0.3 0.1
1.8 0.3 0.1
1.9 0.3 0.1
2 0.3 0.1
2.1 0.3 0.1
0 0.4 0.1
0.1 0.4 0.1
0.2 0.4 0.1
0.3 0.4 0.1
0.4 0.4 0.1
0.5 0.4 0.1
0.6 0.4 0.1
0.7 0.4 0.1
0.8 0.4 0.1
0.9 0.4 0.1
1 0.4 0.1
1.1 0.4 0.1
1.2 0.4 0.1
1.3 0.4 0.1
1.4 0.4 0.1
1.5 0.4 0.1
1.6 0.4 0.1
1.7 0.4 0.1
1.8 0.4 0.1
1.9 0.4 0.1
2 0.4 0.1
2.1 0.4 0.1
0 0.5 0.1
0.1 0.5 0.1
0.2 0.5 0.1
0.3 0.5 0.1
0.4 0.5 0.1
0.5 0.5 0.1
0.6 0.5 0.1
0.7 0.5 0.1
0.8 0.5 0.1
0.9 0.5 0.1
1 0.5 0.1
1.1 0.5 0.1
1.2 0.5 0.1
1.3 0.5 0.1
1.4 0.5 0.1
1.5 0.5 0.1
1.6 0.5 0.1
1.7 0.5 0.1
1.8 0.5 0.1
1.9 0.5 0.1
2 0.5 0.1
2.1 0.5 0.1
0 0.6 0.1
0.1 0.6 0.1
0.2 0.6 0.1
0.3 0.6 0.1
0.4 0.6 0.1
0.5 0.6 0.1
0.6 0.6 0.1
0.7 0.6 0.1
0.8 0.6 0.1
0.9 0.6 0.1
1 0.6 0.1
1.1 0.6 0.1
1.2 0.6 0.1
1.3 0.6 0.1
1.4 0.6 0.1
1.5 0.6 0.1
1.6 0.6 0.1
1.7 0.6 0.1
1.8 0.6 0.1
1.9 0.6 0.1
2 0.6 0.1
2.1 0.6 0.1
0 0.7 0.1
0.1 0.7 0.1
0.2 0.7 0.1
0.3 0.7 0.1
0.4 0.7 0.1
0.5 0.7 0.1
0.6 0.7 0.1
0.7 0.7 0.1
0.8 0.7 0.1
0.9 0.7 0.1
1 0.7 0.1
1.1 0.7 0.1
1.2 0.7 0.1
1.3 0.7 0.1
1.4 0.7 0.1
1.5 0.7 0.1
1.6 0.7 0.1
1.7 0.7 0.1
1.8 0.7 0.1
1.9 0.7 0.1
2 0.7 0.1
2.1 0.7 0.1
0 0.8 0.1
0.1 0.8 0.1
0.2 0.8 0.1
0.3 0.8 0.1
0.4 0.8 0.1
0.5 0.8 0.1
0.6 0.8 0.1
0.7 0.8 0.1
0.8 0.8 0.1
0.9 0.8 0.1
1 0.8 0.1
1.1 0.8 0.1
1.2 0.8 0.1
1.3 0.8 0.1
1.4 0.8 0.1
1.5 0.8 0.1
1.6 0.8 0.1
1.7 0.8 0.1
1.8 0.8 0.1
1.9 0.8 0.1
2 0.8 0.1
2.1 0.8 0.1
0 0.9 0.1
0.1 0.9 0.1
0.2 0.9 0.1
0.3 0.9 0.1
0.4 0.9 0.1
0.5 0.9 0.1
0.6 0.9 0.1
0.7 0.9 0.1
0.8 0.9 0.1
0.9 0.9 0.1
1 0.9 0.1
1.1 0.9 0.1
1.2 0.9 0.1
1.3 0.9 0.1
1.4 0.9 0.1
1.5 0.9 0.1
1.6 0.9 0.1
1.7 0.9 0.1
1.8 0.9 0.1
1.9 0.9 0.1
2 0.9 0.1
2.1 0.9 0.1
0 1 0.1
0.1 1 0.1
0.2 1 0.1
0.3 1 0.1
0.4 1 0.1
0.5 1 0.1
0.6 1 0.1
0.7 1 0.1
0.8 1 0.1
0.9 1 0.1
1 1 0.1
1.1 1 0.1
1.2 1 0.1
1.3 1 0.1
1.4 1 0.1
1.5 1 0.1
1.6 1 0.1
1.7 1 0.1
1.8 1 0.1
1.9 1 0.1
2 1 0.1
2.1 1 0.1
0 1.1 0.1
0.1 1.1 0.1
0.2 1.1 0.1
0.3 1.1 0.1
0.4 1.1 0.1
0.5 1.1 0.1
0.6 1.1 0.1
0.7 1.1 0.1
0.8 1.1 0.1
0.9 1.1 0.1
1 1.1 0.1
1.1 1.1 0.1
1.2 1.1 0.1
1.3 1.1 0.1
1.4 1.1 0.1
1.5 1.1 0.1
1.6 1.1 0.1
1.7 1.1 0.1
1.8 1.1 0.1
1.9 1.1 0.1
2 1.1 0.1
2.1 1.1 0.1
0 1.2 0.1
0.1 1.2 0.1
0.2 1.2 0.1
0.3 1.2 0.1
0.4 1.2 0.1
0.5 1.2 0.1
0.6 1.2 0.1
0.7 1.2 0.1
0.8 1.2 0.1
0.9 1.2 0.1
1 1.2 0.1
1.1 1.2 0.1
1.2 1.2 0.1
1.3 1.2 0.1
1.4 1.2 0.1
1.5 1.2 0.1
1.6 1.2 0.1
1.7 1.2 0.1
1.8 1.2 0.1
1.9 1.2 0.1
2 1.2 0.1
2.1 1.2 0.1
0 1.3 0.1
0.1 1.3 0.1
0.2 1.3 0.1
0.3 1.3 0.1
0.4 1.3 0.1
0.5 1.3 0.1
0.6 1.3 0.1
0.7 1.3 0.1
0.8 1.3 0.1
0.9 1.3 0.1
1 1.3 0.1
1.1 1.3 0.1
1.2 1.3 0.1
1.3 1.3 0.1
1.4 1.3 0.1
1.5 1.3 0.1
1.6 1.3 0.1
1.7 1.3 0.1
1.8 1.3 0.1
1.9 1.3 0.1
2 1.3 0.1
2.1 1.3 0.1
0 1.4 0.1
0.1 1.4 0.1
0.2 1.4 0.1
0.3 1.4 0.1
0.4 1.4 0.1
0.5 1.4 0.1
0.6 1.4 0.1
0.7 1.4 0.1
0.8 1.4 0.1
0.9 1.4 0.1
1 1.4 0.1
1.1 1.4 0.1
1.2 1.4 0.1
1.3 1.4 0.1
1.4 1.4 0.1
1.5 1.4 0.1
1.6 1.4 0.1
1.7 1.4 0.1
1.8 1.4 0.1
1.9 1.4 0.1
2 1.4 0.1
2.1 1.4 0.1
0 1.5 0.1
0.1 1.5 0.1
0.2 1.5 0.1
0.3 1.5 0.1
0.4 1.5 0.1
0.5 1.5 0.1
0.6 1.5 0.1
0.7 1.5 0.1
0.8 1.5 0.1
0.9 1.5 0.1
1 1.5 0.1
1.1 1.5 0.1
1.2 1.5 0.1
1.3 1.5 0.1
1.4 1.5 0.1
1.5 1.5 0.1
1.6 1.5 0.1
1.7 1.5 0.1
1.8 1.5 0.1
1.9 1.5 0.1
2 1.5 0.1
2.1 1.5 0.1
0 1.6 0.1
0.1 1.6 0.1
0.2 1.6 0.1
0.3 1.6 0.1
0.4 1.6 0.1
0.5 1.6 0.1
0.6 1.6 0.1
0.7 1.6 0.1
0.8 1.6 0.1
0.9 1.6 0.1
1 1.6 0.1
1.1 1.6 0.1
1.2 1.6 0.1
1.3 1.6 0.1
1.4 1.6 0.1
1.5 1.6 0.1
1.6 1.6 0.1
1.7 1.6 0.1
1.8 1.6 0.1
1.9 1.6 0.1
2 1.6 0.1
2.1 1.6 0.1
0 0 0.2
0.1 0 0.2
0.2 0 0.2
0.3 0 0.2
0.4 0 0.2
0.5 0 0.2
0.6 0 0.2
0.7 0 0.2
0.8 0 0.2
0.9 0 0.2
1 0 0.2
1.1 0 0.2
1.2 0 0.2
1.3 0 0.2
1.4 0 0.2
1.5 0 0.2
1.6 0 0.2
1.7 0 0.2
1.8 0 0.2
1.9 0 0.2
2 0 0.2
2.1 0 0.2
0 0.1 0.2
0.1 0.1 0.2
0.2 0.1 0.2
0.3 0.1 0.2
0.4 0.1 0.2
0.5 0.1 0.2
0.6 0.1 0.2
0.7 0.1 0.2
0.8 0.1 0.2
0.9 0.1 0.2
1 0.1 0.2
1.1 0.1 0.2
1.2 0.1 0.2
1.3 0.1 0.2
1.4 0.1 0.2
1.5 0.1 0.2
1.6 0.1 0.2
1.7 0.1 0.2
1.8 0.1 0.2
1.9 0.1 0.2
2 0.1 0.2
2.1 0.1 0.2
0 0.2 0.2
0.1 0.2 0.2
0.2 0.2 0.2
0.3 0.2 0.2
0.4 0.2 0.2
0.5 0.2 0.2
0.6 0.2 0.2
0.7 0.2 0.2
0.8 0.2 0.2
0.9 0.2 0.2
1 0.2 0.2
1.1 0.2 0.2
1.2 0.2 0.2
1.3 0.2 0.2
1.4 0.2 0.2
1.5 0.2 0.2
1.6 0.2 0.2
1.7 0.2 0.2
1.8 0.2 0.2
1.9 0.2 0.2
2 0.2 0.2
2.1 0.2 0.2
0 0.3 0.2
0.1 0.3 0.2
0.2 0.3 0.2
0.3 0.3 0.2
0.4 0.3 0.2
0.5 0.3 0.2
0.6 0.3 0.2
0.7 0.3 0.2
0.8 0.3 0.2
0.9 0.3 0.2
1 0.3 0.2
1.1 0.3 0.2
1.2 0.3 0.2
1.3 0.3 0.2
1.4 0.3 0.2
1.5 0.3 0.2
1.6 0.3 0.2
1.7 0.3 0.2
1.8 0.3 0.2
1.9 0.3 0.2
2 0.3 0.2
2.1 0.3 0.2
0 0.4 0.2
0.1 0.4 0.2
0.2 0.4 0.2
0.3 0.4 0.2
0.4 0.4 0.2
0.5 0.4 0.2
0.6 0.4 0.2
0.7 0.4 0.2
0.8 0.4 0.2
0.9 0.4 0.2
1 0.4 0.2
1.1 0.4 0.2
1.2 0.4 0.2
1.3 0.4 0.2
1.4 0.4 0.2
1.5 0.4 0.2
1.6 0.4 0.2
1.7 0.4 0.2
1.8 0.4 0.2
1.9 0.4 0.2
2 0.4 0.2
2.1 0.4 0.2
0 0.5 0.2
0.1 0.5 0.2
0.2 0.5 0.2
0.3 0.5 0.2
0.4 0.5 0.2
0.5 0.5 0.2
0.6 0.5 0.2
0.7 0.5 0.2
0.8 0.5 0.2
0.9 0.5 0.2
1 0.5 0.2
1.1 0.5 0.2
1.2 0.5 0.2
1.3 0.5 0.2
1.4 0.5 0.2
1.5 0.5 0.2
1.6 0.5 0.2
1.7 0.5 0.2
1.8 0.5 0.2
1.9 0.5 0.2
2 0.5 0.2
2.1 0.5 0.2
0 0.6 0.2
0.1 0.6 0.2
0.2 0.6 0.2
0.3 0.6 0.2
0.4 0.6 0.2
0.5 0.6 0.2
0.6 0.6 0.2
0.7 0.6 0.2
0.8 0.6 0.2
0.9 0.6 0.2
1 0.6 0.2
1.1 0.6 0.2
1.2 0.6 0.2
1.3 0.6 0.2
1.4 0.6 0.2
1.5 0.6 0.2
1.6 0.6 0.2
1.7 0.6 0.2
1.8 0.6 0.2
1.9 0.6 0.2
2 0.6 0.2
2.1 0.6 0.2
0 0.7 0.2
0.1 0.7 0.2
0.2 0.7 0.2
0.3 0.7 0.2
0.4 0.7 0.2
0.5 0.7 0.2
0.6 0.7 0.2
0.7 0.7 0.2
0.8 0.7 0.2
0.9 0.7 0.2
1 0.7 0.2
1.1 0.7 0.2
1.2 0.7 0.2
1.3 0.7 0.2
1.4 0.7 0.2
1.5 0.7 0.2
1.6 0.7 0.2
1.7 0.7 0.2
1.8 0.7 0.2
1.9 0.7 0.2
2 0.7 0.2
2.1 0.7 0.2
0 0.8 0.2
0.1 0.8 0.2
[...]
POINT_DATA 4488

SCALARS pressure double
LOOKUP_TABLE pressure
0
0
0
0
0
0
0
0
0
0
0
0
0
0
0
0
0
0
0
0
0
0
0
124.458
124.454
124.451
124.449
124.448
124.445
124.445
124.444
124.443
124.443
124.442
124.441
124.441
124.44
124.439
124.441
124.44
124.439
124.437
124.436
0
0
124.452
124.452
124.45
124.449
124.447
124.446
124.445
124.444
124.443
124.442
124.442
124.441
124.441
124.44
124.44
124.44
124.441
124.439
124.438
124.437
0
0
124.449
124.45
124.449
124.448
124.445
124.445
124.444
124.444
124.443
124.442
124.442
124.442
124.442
124.441
124.441
124.441
124.441
124.44
124.44
124.439
0
0
124.447
124.448
124.448
124.447
124.446
124.444
124.444
124.444
124.443
124.442
124.441
124.444
124.443
124.442
124.442
124.441
124.441
124.441
124.441
124.441
0
0
124.446
124.447
124.447
124.446
124.446
124.443
124.444
124.444
124.443
124.442
124.442
124.443
124.443
124.443
124.442
124.442
124.442
124.442
124.442
124.442
0
0
124.444
124.445
124.445
124.445
124.444
124.444
124.444
124.444
124.444
124.443
124.441
124.442
124.444
124.443
124.443
124.442
124.443
124.442
124.442
124.442
0
0
124.443
124.444
124.445
124.444
124.443
124.444
124.444
124.444
124.444
124.443
124.443
124.443
124.443
124.443
124.443
124.443
124.443
124.443
124.443
124.443
0
0
124.442
124.443
124.444
124.444
124.445
124.444
124.444
124.444
124.444
124.443
124.443
124.443
124.443
124.443
124.443
124.443
124.444
124.444
124.443
124.443
0
0
124.441
124.443
124.444
124.444
124.444
124.444
124.444
124.444
124.444
124.444
124.444
124.444
124.444
124.444
124.444
124.444
124.444
124.444
124.444
124.443
0
0
124.44
124.443
124.443
124.444
124.444
124.444
124.444
124.444
124.444
124.444
124.444
124.444
124.444
124.444
124.444
124.444
124.444
124.444
124.444
124.444
0
0
124.441
124.442
124.443
124.443
124.444
124.444
124.444
124.444
124.444
124.444
124.444
124.444
124.444
124.444
124.444
124.444
124.444
124.444
124.444
124.444
0
0
124.441
124.442
124.442
124.443
124.443
124.443
124.444
124.444
124.444
124.444
124.444
124.444
124.444
124.445
124.446
124.443
124.444
124.444
124.445
124.445
0
0
124.441
124.442
124.442
124.443
124.443
124.443
124.443
124.444
124.444
124.444
124.444
124.444
124.444
124.445
124.445
124.444
124.444
124.445
124.445
124.445
0
0
124.441
124.442
124.442
124.442
124.443
124.443
124.443
124.443
124.444
124.444
124.444
124.444
124.444
124.445
124.445
124.445
124.445
124.445
124.445
124.445
0
0
124.441
124.442
124.442
124.442
124.443
124.443
124.443
124.443
124.444
124.444
124.444
124.444
124.444
124.445
124.445
124.445
124.445
124.445
124.446
124.446
0
0
0
0
0
0
0
0
0
0
0
0
0
0
0
0
0
0
0
0
0
0
0
0
124.458
124.454
124.451
124.449
124.448
124.445
124.445
124.444
124.443
124.443
124.442
124.441
124.441
124.44
124.439
124.441
124.44
124.439
124.437
124.436
0
124.458
124.458
124.454
124.451
124.449
124.448
124.445
124.445
124.444
124.443
124.443
124.442
124.441
124.441
124.44
124.439
124.441
124.44
124.439
124.437
124.436
124.436
124.452
124.452
124.452
124.45
124.449
124.447
124.446
124.445
124.444
124.443
124.442
124.442
124.441
124.441
124.44
124.44
124.44
124.441
124.439
124.438
124.437
124.437
124.449
124.449
124.45
124.449
124.448
124.445
124.445
124.444
124.444
124.443
124.442
124.442
124.442
124.442
124.441
124.441
124.441
124.441
124.44
124.44
124.439
124.439
124.447
124.447
124.448
124.448
124.447
124.446
124.444
124.444
124.444
124.443
124.442
124.441
124.444
124.443
124.442
124.442
124.441
124.441
124.441
124.441
124.441
124.441
124.446
124.446
124.447
124.447
124.446
124.446
124.443
124.444
124.444
124.443
124.442
124.442
124.443
124.443
124.443
124.442
124.442
124.442
124.442
124.442
124.442
124.442
124.444
124.444
124.445
124.445
124.445
124.444
124.444
124.444
124.444
124.444
124.443
124.441
124.442
124.444
124.443
124.443
124.442
124.443
124.442
124.442
124.442
124.442
124.443
124.443
124.444
124.445
124.444
124.443
124.444
124.444
124.444
124.444
124.443
124.443
124.443
124.443
124.443
124.443
124.443
124.443
124.443
124.443
124.443
124.443
124.442
124.442
124.443
124.444
124.444
124.445
124.444
124.444
124.444
124.444
124.443
124.443
124.443
124.443
124.443
124.443
124.443
124.444
124.444
124.443
124.443
124.443
124.441
124.441
124.443
124.444
124.444
124.444
124.444
124.444
124.444
124.444
124.444
124.444
124.444
124.444
124.444
124.444
124.444
124.444
124.444
124.444
124.443
124.443
124.44
124.44
124.443
124.443
124.444
124.444
124.444
124.444
124.444
124.444
124.444
124.444
124.444
124.444
124.444
124.444
124.444
124.444
124.444
124.444
124.444
124.444
124.441
124.441
124.442
124.443
124.443
124.444
124.444
124.444
124.444
124.444
124.444
124.444
124.444
124.444
124.444
124.444
124.444
124.444
124.444
124.444
124.444
124.444
124.441
124.441
124.442
124.442
124.443
124.443
124.443
124.444
124.444
124.444
124.444
124.444
124.444
124.444
124.445
124.446
124.443
124.444
124.444
124.445
124.445
124.445
124.441
124.441
124.442
124.442
124.443
124.443
124.443
124.443
124.444
124.444
124.444
124.444
124.444
124.444
124.445
124.445
124.444
124.444
124.445
124.445
124.445
124.445
124.441
124.441
124.442
124.442
124.442
124.443
124.443
124.443
124.443
124.444
124.444
124.444
124.444
124.444
124.445
124.445
124.445
124.445
124.445
124.445
124.445
124.445
124.441
124.441
124.442
124.442
124.442
124.443
124.443
124.443
124.443
124.444
124.444
124.444
124.444
124.444
124.445
124.445
124.445
124.445
124.445
124.446
124.446
124.446
0
124.441
124.442
124.442
124.442
124.443
124.443
124.443
124.443
124.444
124.444
124.444
124.444
124.444
124.445
124.445
124.445
124.445
124.445
124.446
124.446
0
0
124.462
124.457
124.454
124.45
124.443
124.439
124.439
124.441
124.442
124.443
124.443
124.442
124.442
124.441
124.441
124.44
124.44
124.439
124.437
124.435
0
124.462
124.462
124.457
124.454
124.45
124.443
124.439
124.439
124.441
124.442
124.443
124.443
124.442
124.442
124.441
124.441
124.44
124.44
124.439
124.437
124.435
124.435
124.456
124.456
124.455
124.453
124.45
124.445
124.44
124.439
124.44
124.441
124.442
124.442
124.442
124.442
124.441
124.441
124.44
124.44
124.439
124.438
124.437
124.437
124.453
124.453
124.453
124.452
124.45
124.446
124.442
124.44
124.44
124.441
124.441
124.442
124.442
124.442
124.442
124.441
124.441
124.441
124.44
124.439
124.439
124.439
124.45
124.45
124.451
124.45
124.449
124.447
124.443
124.441
124.44
124.44
124.441
124.441
124.442
124.442
124.442
124.442
124.441
124.441
124.441
124.44
124.44
124.44
124.448
124.448
124.449
124.449
124.448
124.447
124.444
124.442
124.441
124.44
124.441
124.441
124.442
124.442
124.442
124.442
124.442
124.442
124.442
124.441
124.441
124.441
124.447
124.447
124.447
124.448
124.447
124.447
124.445
124.444
124.442
124.441
124.441
124.441
124.441
124.442
124.442
124.442
124.442
124.442
124.442
124.442
124.442
124.442
124.445
124.445
124.446
124.447
124.447
124.446
124.446
124.445
124.443
124.442
124.442
124.441
124.441
124.442
124.442
124.442
124.442
124.442
124.442
124.442
124.442
124.442
124.444
124.444
124.445
124.446
124.446
124.446
124.446
124.445
124.444
124.444
124.443
124.442
124.442
124.442
124.442
124.442
124.442
124.443
124.443
124.443
124.442
124.442
124.443
124.443
124.444
124.445
124.445
124.445
124.445
124.445
124.445
124.444
124.444
124.443
124.443
124.443
124.443
124.443
124.443
124.443
124.443
124.443
124.443
124.443
124.443
124.443
124.444
124.444
124.445
124.445
124.445
124.445
124.445
124.445
124.444
124.444
124.444
124.443
124.443
124.443
124.443
124.443
124.443
124.443
124.443
124.443
124.442
124.442
124.443
124.444
124.444
124.444
124.444
124.445
124.445
124.444
124.444
124.444
124.444
124.444
124.444
124.444
124.443
124.443
124.444
124.444
124.443
124.443
124.442
124.442
124.443
124.443
124.444
124.444
124.444
124.444
124.444
124.444
124.444
124.444
124.444
124.444
124.444
124.444
124.444
124.444
124.444
124.444
124.444
124.444
124.442
124.442
124.442
124.443
124.443
124.444
124.444
124.444
124.444
124.444
124.444
124.444
124.444
124.444
124.445
124.445
124.444
124.444
124.444
124.445
124.445
124.445
124.442
124.442
124.442
124.443
124.443
124.443
124.443
124.444
124.444
124.444
124.444
124.444
124.444
124.444
124.445
124.445
124.445
124.445
124.445
124.445
124.445
124.445
124.442
124.442
124.442
124.442
124.443
124.443
124.443
124.443
124.443
124.444
124.444
124.444
124.444
124.444
124.445
124.445
124.445
124.445
124.445
124.445
124.445
124.445
0
124.442
124.442
124.442
124.443
124.443
124.443
124.443
124.443
124.444
124.444
124.444
124.444
124.444
124.445
124.445
124.445
124.445
124.445
124.445
124.445
0
0
124.466
124.462
124.459
124.452
124.431
124.425
124.431
124.438
124.442
124.443
124.444
124.443
124.443
124.442
124.441
124.44
124.44
124.438
124.437
124.435
0
124.466
124.466
124.462
124.459
124.452
124.431
124.425
124.431
124.438
124.442
124.443
124.444
124.443
124.443
124.442
124.441
124.44
124.44
124.438
124.437
124.435
124.435
124.46
124.46
124.459
124.458
124.453
124.441
124.429
124.43
124.436
124.44
124.442
124.443
124.443
124.443
124.442
124.441
124.441
124.44
124.439
124.438
124.437
124.437
124.456
124.456
124.456
124.455
124.453
124.446
124.435
124.432
124.435
124.438
124.441
124.442
124.442
124.442
124.442
124.442
124.441
124.44
124.44
124.439
124.438
124.438
124.453
124.453
124.453
124.453
124.452
124.448
124.44
124.435
124.434
124.437
124.439
124.441
124.442
124.442
124.442
124.442
124.441
124.441
124.441
124.44
124.44
124.44
124.451
124.451
124.451
124.452
124.452
124.45
124.444
124.439
124.436
124.436
124.438
124.439
124.44
124.441
124.442
124.442
124.442
124.441
124.441
124.441
124.441
124.441
124.449
124.449
124.45
124.45
124.45
124.45
124.447
124.443
124.44
124.438
124.437
124.438
124.439
124.44
124.441
124.441
124.442
124.442
124.442
124.442
124.442
124.442
124.447
124.447
124.448
124.449
124.449
124.449
124.448
124.446
124.443
124.441
124.439
124.439
124.439
124.44
124.441
124.441
124.441
124.442
124.442
124.442
124.442
124.442
124.446
124.446
124.447
124.447
124.448
124.448
124.448
124.447
124.445
124.444
124.442
124.44
124.44
124.44
124.44
124.441
124.441
124.442
124.442
124.442
124.442
124.442
124.445
124.445
124.446
124.446
124.447
124.447
124.447
124.447
124.446
124.445
124.444
124.443
124.442
124.441
124.441
124.441
124.442
124.442
124.442
124.442
124.442
124.442
124.444
124.444
124.445
124.445
124.446
124.446
124.446
124.446
124.446
124.446
124.445
124.444
124.443
124.443
124.442
124.442
124.442
124.442
124.442
124.442
124.442
124.442
124.443
124.443
124.444
124.444
124.445
124.445
124.445
124.445
124.445
124.445
124.445
124.445
124.444
124.444
124.444
124.443
124.443
124.442
124.443
124.443
124.443
124.443
124.443
124.443
124.444
124.444
124.444
124.445
124.445
124.445
124.445
124.445
124.445
124.445
124.445
124.445
124.444
124.444
124.443
124.443
124.444
124.444
124.443
124.443
124.442
124.442
124.443
124.443
124.444
124.444
124.444
124.444
124.444
124.445
124.445
124.445
124.445
124.445
124.445
124.444
124.444
124.444
124.444
124.444
124.444
124.444
124.442
124.442
124.443
124.443
124.443
124.444
124.444
124.444
124.444
124.444
124.444
124.444
124.444
124.444
124.445
124.445
124.445
124.445
124.445
124.445
124.445
124.445
124.443
124.443
124.443
124.443
124.443
124.443
124.443
124.443
124.444
124.444
124.444
124.444
124.444
124.444
124.444
124.445
124.445
124.445
124.445
124.445
124.445
124.445
0
124.443
124.443
124.443
124.443
124.443
124.443
124.443
124.444
124.444
124.444
124.444
124.444
124.444
124.444
124.445
124.445
124.445
124.445
124.445
124.445
0
0
124.47
124.467
124.468
124.463
124.395
124.393
124.421
124.438
124.444
124.446
124.446
124.445
124.444
124.443
124.442
124.441
124.439
124.438
124.437
124.435
0
124.47
124.47
124.467
124.468
124.463
124.395
124.393
124.421
124.438
124.444
124.446
124.446
124.445
124.444
124.443
124.442
124.441
124.439
124.438
124.437
124.435
124.435
124.463
124.463
124.464
124.464
124.463
124.441
124.401
124.415
124.432
124.441
124.444
124.445
124.444
124.444
124.443
124.442
124.441
124.44
124.439
124.438
124.437
124.437
124.459
124.459
124.459
124.46
124.461
124.453
124.421
124.417
124.427
124.436
124.441
124.443
124.444
124.443
124.443
124.442
124.441
124.441
124.44
124.439
124.438
124.438
124.455
124.455
124.456
124.457
124.459
124.455
124.436
124.422
124.424
124.431
124.437
124.441
124.442
124.443
124.443
124.442
124.442
124.441
124.441
124.44
124.44
124.44
124.453
124.453
124.454
124.455
124.457
124.456
124.446
124.432
124.426
124.428
124.433
124.437
124.44
124.441
124.442
124.442
124.442
124.441
124.441
124.441
124.441
124.441
124.451
124.451
124.452
124.453
124.454
124.455
124.452
124.444
124.435
124.431
124.431
124.434
124.437
124.439
124.44
124.441
124.441
124.441
124.441
124.442
124.442
124.442
124.449
124.449
124.45
124.451
124.452
124.452
124.452
124.449
124.443
124.438
124.435
124.434
124.435
124.437
124.439
124.44
124.441
124.441
124.441
124.442
124.442
124.442
124.447
124.447
124.448
124.449
124.45
124.45
124.45
124.45
124.448
124.445
124.44
124.438
124.437
124.437
124.438
124.439
124.44
124.441
124.441
124.441
124.442
124.442
124.446
124.446
124.447
124.447
124.448
124.448
124.449
124.449
124.448
124.447
124.445
124.444
124.441
124.439
124.438
124.439
124.44
124.441
124.441
124.441
124.442
124.442
124.445
124.445
124.446
124.446
124.447
124.447
124.447
124.447
124.447
124.447
124.447
124.445
124.443
124.442
124.442
124.441
124.441
124.441
124.441
124.441
124.441
124.441
124.444
124.444
124.445
124.445
124.446
124.446
124.446
124.446
124.446
124.446
124.446
124.445
124.445
124.445
124.444
124.443
124.441
124.44
124.441
124.442
124.441
124.441
124.443
124.443
124.444
124.445
124.445
124.445
124.445
124.446
124.446
124.446
124.446
124.445
124.446
124.445
124.444
124.443
124.442
124.443
124.444
124.444
124.442
124.442
124.443
124.443
124.444
124.444
124.444
124.445
124.445
124.445
124.445
124.445
124.445
124.445
124.445
124.445
124.445
124.444
124.445
124.445
124.444
124.444
124.443
124.443
124.443
124.443
124.443
124.444
124.444
124.444
124.444
124.444
124.444
124.444
124.444
124.444
124.445
124.445
124.445
124.445
124.445
124.445
124.444
124.444
124.444
124.444
124.443
124.443
124.443
124.443
124.443
124.443
124.444
124.444
124.444
124.444
124.444
124.444
124.444
124.444
124.444
124.444
124.444
124.444
124.445
124.445
124.444
124.444
0
124.443
124.443
124.443
124.443
124.443
124.444
124.444
124.444
124.444
124.444
124.444
124.444
124.444
124.444
124.444
124.444
124.444
124.445
124.445
124.444
0
0
124.473
124.472
124.482
124.513
124.425
124.345
124.416
124.442
124.448
124.448
124.447
124.446
124.444
124.443
124.442
124.44
124.439
124.438
124.437
124.435
0
124.473
124.473
124.472
124.482
124.513
124.425
124.345
124.416
124.442
124.448
124.448
124.447
124.446
124.444
124.443
124.442
124.44
124.439
124.438
124.437
124.435
124.435
124.465
124.465
124.467
124.472
124.492
124.453
124.372
124.402
124.432
124.444
124.447
124.447
124.446
124.445
124.443
124.442
124.441
124.44
124.439
124.437
124.437
124.437
124.46
124.46
124.462
124.465
124.473
124.47
124.401
124.399
124.421
124.436
124.443
124.445
124.445
124.445
124.444
124.443
124.442
124.441
124.44
124.439
124.439
124.439
124.457
124.457
124.458
124.46
124.466
124.478
124.428
124.407
124.413
124.427
124.437
124.442
124.444
124.444
124.443
124.443
124.442
124.441
124.441
124.44
124.44
124.44
124.454
124.454
124.455
124.458
124.463
124.477
124.45
124.424
124.415
124.421
124.429
124.436
124.44
124.442
124.442
124.442
124.442
124.442
124.441
124.441
124.442
124.442
124.452
124.452
124.453
124.455
124.459
124.468
124.464
124.445
124.428
124.423
124.425
124.43
124.435
124.438
124.44
124.441
124.442
124.442
124.441
124.442
124.442
124.442
124.45
124.45
124.451
124.452
124.454
124.459
124.463
124.455
124.444
124.435
124.429
124.429
124.432
124.434
124.438
124.44
124.44
124.441
124.441
124.442
124.442
124.442
124.448
124.448
124.449
124.45
124.451
124.453
124.456
124.457
124.455
124.447
124.438
124.435
124.433
124.434
124.436
124.437
124.438
124.44
124.441
124.441
124.442
124.442
124.447
124.447
124.447
124.448
124.449
124.45
124.451
124.453
124.454
124.45
124.447
124.446
124.44
124.436
124.436
124.437
124.438
124.44
124.441
124.44
124.442
124.442
124.446
124.446
124.446
124.447
124.447
124.448
124.449
124.449
124.45
124.45
124.452
124.45
124.443
124.44
124.442
124.441
124.44
124.44
124.439
124.439
124.441
124.441
124.445
124.445
124.445
124.446
124.446
124.447
124.447
124.447
124.448
124.448
124.449
124.447
124.446
124.448
124.447
124.443
124.439
124.438
124.441
124.441
124.441
124.441
124.444
124.444
124.445
124.445
124.445
124.446
124.446
124.446
124.446
124.447
124.447
124.446
124.447
124.449
124.446
124.442
124.441
124.443
124.445
124.444
124.441
124.441
124.444
124.444
124.444
124.445
124.445
124.445
124.445
124.445
124.445
124.445
124.445
124.446
124.446
124.446
124.445
124.444
124.445
124.447
124.446
124.444
124.442
124.442
124.443
124.443
124.444
124.444
124.444
124.444
124.444
124.445
124.445
124.445
124.445
124.445
124.445
124.445
124.445
124.445
124.446
124.445
124.445
124.444
124.444
124.444
124.444
124.444
124.444
124.444
124.444
124.444
124.444
124.444
124.444
124.444
124.444
124.444
124.444
124.444
124.444
124.444
124.444
124.443
124.444
124.444
124.444
124.444
0
124.444
124.444
124.444
124.444
124.444
124.444
124.444
124.444
124.444
124.444
124.444
124.444
124.444
124.444
124.444
124.444
124.443
124.444
124.444
124.444
0
0
124.472
124.469
124.47
124.466
124.409
124.394
124.421
124.437
124.443
124.445
124.445
124.444
124.443
124.442
124.441
124.44
124.439
124.437
124.436
124.434
0
124.472
124.472
124.469
124.47
124.466
124.409
124.394
124.421
124.437
124.443
124.445
124.445
124.444
124.443
124.442
124.441
124.44
124.439
124.437
124.436
124.434
124.434
124.465
124.465
124.465
124.465
124.462
124.433
124.404
124.416
124.432
124.441
124.444
124.445
124.444
124.444
124.443
124.441
124.44
124.439
124.438
124.437
124.436
124.436
124.46
124.46
124.46
124.461
124.46
124.449
124.421
124.417
124.427
124.436
124.441
124.443
124.444
124.443
124.443
124.442
124.441
124.44
124.439
124.438
124.438
124.438
124.456
124.456
124.457
124.458
124.459
124.456
124.435
124.423
124.425
124.431
124.437
124.44
124.442
124.442
124.442
124.442
124.441
124.44
124.44
124.439
124.439
124.439
124.454
124.454
124.455
124.456
124.458
124.458
124.445
124.433
124.427
124.429
124.433
124.437
124.44
124.441
124.441
124.441
124.441
124.441
124.441
124.44
124.44
124.44
124.452
124.452
124.453
124.454
124.456
124.457
124.452
124.443
124.435
124.431
124.432
124.434
124.437
124.439
124.44
124.441
124.441
124.441
124.441
124.441
124.441
124.441
124.45
124.45
124.451
124.452
124.453
124.454
124.453
124.449
124.443
124.438
124.435
124.434
124.435
124.437
124.439
124.44
124.44
124.441
124.441
124.441
124.441
124.441
124.448
124.448
124.449
124.45
124.451
124.452
124.452
124.451
124.448
124.444
124.44
124.438
124.437
124.437
124.438
124.439
124.44
124.44
124.441
124.441
124.441
124.441
124.447
124.447
124.448
124.448
124.449
124.449
124.45
124.45
124.449
124.447
124.445
124.443
124.441
124.439
124.438
124.439
124.44
124.44
124.441
124.441
124.441
124.441
124.446
124.446
124.447
124.447
124.448
124.448
124.448
124.448
124.448
124.448
124.447
124.446
124.443
124.441
124.441
124.441
124.441
124.44
124.44
124.441
124.441
124.441
124.445
124.445
124.446
124.446
124.447
124.447
124.447
124.447
124.447
124.447
124.447
124.446
124.445
124.445
124.444
124.443
124.441
124.44
124.441
124.442
124.441
124.441
124.445
124.445
124.445
124.446
124.446
124.446
124.446
124.446
124.446
124.446
124.446
124.446
124.446
124.446
124.445
124.443
124.442
124.442
124.443
124.443
124.442
124.442
124.444
124.444
124.445
124.445
124.445
124.445
124.445
124.445
124.445
124.445
124.445
124.445
124.445
124.445
124.445
124.444
124.444
124.444
124.444
124.444
124.443
124.443
124.444
124.444
124.444
124.445
124.445
124.445
124.445
124.445
124.445
124.445
124.445
124.445
124.445
124.445
124.445
124.444
124.445
124.444
124.444
124.444
124.444
124.444
124.444
124.444
124.444
124.444
124.444
124.444
124.444
124.444
124.444
124.444