# vtk DataFile Version 3.0
FlowField
ASCII
DATASET STRUCTURED_GRID
DIMENSIONS 22 17 12 
POINTS 4488 double
0 0 0
0.1 0 0
0.2 0 0
0.3 0 0
0.4 0 0
0.5 0 0
0.6 0 0
0.7 0 0
0.8 0 0
0.9 0 0
1 0 0
1.1 0 0
1.2 0 0
1.3 0 0
1.4 0 0
1.5 0 0
1.6 0 0
1.7 0 0
1.8 0 0
1.9 0 0
2 0 0
2.1 0 0
0 0.1 0
0.1 0.1 0
0.2 0.1 0
0.3 0.1 0
0.4 0.1 0
0.5 0.1 0
0.6 0.1 0
0.7 0.1 0
0.8 0.1 0
0.9 0.1 0
1 0.1 0
1.1 0.1 0
1.2 0.1 0
1.3 0.1 0
1.4 0.1 0
1.5 0.1 0
1.6 0.1 0
1.7 0.1 0
1.8 0.1 0
1.9 0.1 0
2 0.1 0
2.1 0.1 0
0 0.2 0
0.1 0.2 0
0.2 0.2 0
0.3 0.2 0
0.4 0.2 0
0.5 0.2 0
0.6 0.2 0
0.7 0.2 0
0.8 0.2 0
0.9 0.2 0
1 0.2 0
1.1 0.2 0
1.2 0.2 0
1.3 0.2 0
1.4 0.2 0
1.5 0.2 0
1.6 0.2 0
1.7 0.2 0
1.8 0.2 0
1.9 0.2 0
2 0.2 0
2.1 0.2 0
0 0.3 0
0.1 0.3 0
0.2 0.3 0
0.3 0.3 0
0.4 0.3 0
0.5 0.3 0
0.6 0.3 0
0.7 0.3 0
0.8 0.3 0
0.9 0.3 0
1 0.3 0
1.1 0.3 0
1.2 0.3 0
1.3 0.3 0
1.4 0.3 0
1.5 0.3 0
1.6 0.3 0
1.7 0.3 0
1.8 0.3 0
1.9 0.3 0
2 0.3 0
2.1 0.3 0
0 0.4 0
0.1 0.4 0
0.2 0.4 0
0.3 0.4 0
0.4 0.4 0
0.5 0.4 0
0.6 0.4 0
0.7 0.4 0
0.8 0.4 0
0.9 0.4 0
1 0.4 0
1.1 0.4 0
1.2 0.4 0
1.3 0.4 0
1.4 0.4 0
1.5 0.4 0
1.6 0.4 0
1.7 0.4 0
1.8 0.4 0
1.9 0.4 0
2 0.4 0
2.1 0.4 0
0 0.5 0
0.1 0.5 0
0.2 0.5 0
0.3 0.5 0
0.4 0.5 0
0.5 0.5 0
0.6 0.5 0
0.7 0.5 0
0.8 0.5 0
0.9 0.5 0
1 0.5 0
1.1 0.5 0
1.2 0.5 0
1.3 0.5 0
1.4 0.5 0
1.5 0.5 0
1.6 0.5 0
1.7 0.5 0
1.8 0.5 0
1.9 0.5 0
2 0.5 0
2.1 0.5 0
0 0.6 0
0.1 0.6 0
0.2 0.6 0
0.3 0.6 0
0.4 0.6 0
0.5 0.6 0
0.6 0.6 0
0.7 0.6 0
0.8 0.6 0
0.9 0.6 0
1 0.6 0
1.1 0.6 0
1.2 0.6 0
1.3 0.6 0
1.4 0.6 0
1.5 0.6 0
1.6 0.6 0
1.7 0.6 0
1.8 0.6 0
1.9 0.6 0
2 0.6 0
2.1 0.6 0
0 0.7 0
0.1 0.7 0
0.2 0.7 0
0.3 0.7 0
0.4 0.7 0
0.5 0.7 0
0.6 0.7 0
0.7 0.7 0
0.8 0.7 0
0.9 0.7 0
1 0.7 0
1.1 0.7 0
1.2 0.7 0
1.3 0.7 0
1.4 0.7 0
1.5 0.7 0
1.6 0.7 0
1.7 0.7 0
1.8 0.7 0
1.9 0.7 0
2 0.7 0
2.1 0.7 0
0 0.8 0
0.1 0.8 0
0.2 0.8 0
0.3 0.8 0
0.4 0.8 0
0.5 0.8 0
0.6 0.8 0
0.7 0.8 0
0.8 0.8 0
0.9 0.8 0
1 0.8 0
1.1 0.8 0
1.2 0.8 0
1.3 0.8 0
1.4 0.8 0
1.5 0.8 0
1.6 0.8 0
1.7 0.8 0
1.8 0.8 0
1.9 0.8 0
2 0.8 0
2.1 0.8 0
0 0.9 0
0.1 0.9 0
0.2 0.9 0
0.3 0.9 0
0.4 0.9 0
0.5 0.9 0
0.6 0.9 0
0.7 0.9 0
0.8 0.9 0
0.9 0.9 0
1 0.9 0
1.1 0.9 0
1.2 0.9 0
1.3 0.9 0
1.4 0.9 0
1.5 0.9 0
1.6 0.9 0
1.7 0.9 0
1.8 0.9 0
1.9 0.9 0
2 0.9 0
2.1 0.9 0
0 1 0
0.1 1 0
0.2 1 0
0.3 1 0
0.4 1 0
0.5 1 0
0.6 1 0
0.7 1 0
0.8 1 0
0.9 1 0
1 1 0
1.1 1 0
1.2 1 0
1.3 1 0
1.4 1 0
1.5 1 0
1.6 1 0
1.7 1 0
1.8 1 0
1.9 1 0
2 1 0
2.1 1 0
0 1.1 0
0.1 1.1 0
0.2 1.1 0
0.3 1.1 0
0.4 1.1 0
0.5 1.1 0
0.6 1.1 0
0.7 1.1 0
0.8 1.1 0
0.9 1.1 0
1 1.1 0
1.1 1.1 0
1.2 1.1 0
1.3 1.1 0
1.4 1.1 0
1.5 1.1 0
1.6 1.1 0
1.7 1.1 0
1.8 1.1 0
1.9 1.1 0
2 1.1 0
2.1 1.1 0
0 1.2 0
0.1 1.2 0
0.2 1.2 0
0.3 1.2 0
0.4 1.2 0
0.5 1.2 0
0.6 1.2 0
0.7 1.2 0
0.8 1.2 0
0.9 1.2 0
1 1.2 0
1.1 1.2 0
1.2 1.2 0
1.3 1.2 0
1.4 1.2 0
1.5 1.2 0
1.6 1.2 0
1.7 1.2 0
1.8 1.2 0
1.9 1.2 0
2 1.2 0
2.1 1.2 0
0 1.3 0
0.1 1.3 0
0.2 1.3 0
0.3 1.3 0
0.4 1.3 0
0.5 1.3 0
0.6 1.3 0
0.7 1.3 0
0.8 1.3 0
0.9 1.3 0
1 1.3 0
1.1 1.3 0
1.2 1.3 0
1.3 1.3 0
1.4 1.3 0
1.5 1.3 0
1.6 1.3 0
1.7 1.3 0
1.8 1.3 0
1.9 1.3 0
2 1.3 0
2.1 1.3 0
0 1.4 0
0.1 1.4 0
0.2 1.4 0
0.3 1.4 0
0.4 1.4 0
0.5 1.4 0
0.6 1.4 0
0.7 1.4 0
0.8 1.4 0
0.9 1.4 0
1 1.4 0
1.1 1.4 0
1.2 1.4 0
1.3 1.4 0
1.4 1.4 0
1.5 1.4 0
1.6 1.4 0
1.7 1.4 0
1.8 1.4 0
1.9 1.4 0
2 1.4 0
2.1 1.4 0
0 1.5 0
0.1 1.5 0
0.2 1.5 0
0.3 1.5 0
0.4 1.5 0
0.5 1.5 0
0.6 1.5 0
0.7 1.5 0
0.8 1.5 0
0.9 1.5 0
1 1.5 0
1.1 1.5 0
1.2 1.5 0
1.3 1.5 0
1.4 1.5 0
1.5 1.5 0
1.6 1.5 0
1.7 1.5 0
1.8 1.5 0
1.9 1.5 0
2 1.5 0
2.1 1.5 0
0 1.6 0
0.1 1.6 0
0.2 1.6 0
0.3 1.6 0
0.4 1.6 0
0.5 1.6 0
0.6 1.6 0
0.7 1.6 0
0.8 1.6 0
0.9 1.6 0
1 1.6 0
1.1 1.6 0
1.2 1.6 0
1.3 1.6 0
1.4 1.6 0
1.5 1.6 0
1.6 1.6 0
1.7 1.6 0
1.8 1.6 0
1.9 1.6 0
2 1.6 0
2.1 1.6 0
0 0 0.1
0.1 0 0.1
0.2 0 0.1
0.3 0 0.1
0.4 0 0.1
0.5 0 0.1
0.6 0 0.1
0.7 0 0.1
0.8 0 0.1
0.9 0 0.1
1 0 0.1
1.1 0 0.1
1.2 0 0.1
1.3 0 0.1
1.4 0 0.1
1.5 0 0.1
1.6 0 0.1
1.7 0 0.1
1.8 0 0.1
1.9 0 0.1
2 0 0.1
2.1 0 0.1
0 0.1 0.1
0.1 0.1 0.1
0.2 0.1 0.1
0.3 0.1 0.1
0.4 0.1 0.1
0.5 0.1 0.1
0.6 0.1 0.1
0.7 0.1 0.1
0.8 0.1 0.1
0.9 0.1 0.1
1 0.1 0.1
1.1 0.1 0.1
1.2 0.1 0.1
1.3 0.1 0.1
1.4 0.1 0.1
1.5 0.1 0.1
1.6 0.1 0.1
1.7 0.1 0.1
1.8 0.1 0.1
1.9 0.1 0.1
2 0.1 0.1
2.1 0.1 0.1
0 0.2 0.1
0.1 0.2 0.1
0.2 0.2 0.1
0.3 0.2 0.1
0.4 0.2 0.1
0.5 0.2 0.1
0.6 0.2 0.1
0.7 0.2 0.1
0.8 0.2 0.1
0.9 0.2 0.1
1 0.2 0.1
1.1 0.2 0.1
1.2 0.2 0.1
1.3 0.2 0.1
1.4 0.2 0.1
1.5 0.2 0.1
1.6 0.2 0.1
1.7 0.2 0.1
1.8 0.2 0.1
1.9 0.2 0.1
2 0.2 0.1
2.1 0.2 0.1
0 0.3 0.1
0.1 0.3 0.1
0.2 0.3 0.1
0.3 0.3 0.1
0.4 0.3 0.1
0.5 0.3 0.1
0.6 0.3 0.1
0.7 0.3 0.1
0.8 0.3 0.1
0.9 0.3 0.1
1 0.3 0.1
1.1 0.3 0.1
1.2 0.3 0.1
1.3 0.3 0.1
1.4 0.3 0.1
1.5 0.3 0.1
1.6 0.3 0.1
1.7 0.3 0.1
1.8 0.3 0.1
1.9 0.3 0.1
2 0.3 0.1
2.1 0.3 0.1
0 0.4 0.1
0.1 0.4 0.1
0.2 0.4 0.1
0.3 0.4 0.1
0.4 0.4 0.1
0.5 0.4 0.1
0.6 0.4 0.1
0.7 0.4 0.1
0.8 0.4 0.1
0.9 0.4 0.1
1 0.4 0.1
1.1 0.4 0.1
1.2 0.4 0.1
1.3 0.4 0.1
1.4 0.4 0.1
1.5 0.4 0.1
1.6 0.4 0.1
1.7 0.4 0.1
1.8 0.4 0.1
1.9 0.4 0.1
2 0.4 0.1
2.1 0.4 0.1
0 0.5 0.1
0.1 0.5 0.1
0.2 0.5 0.1
0.3 0.5 0.1
0.4 0.5 0.1
0.5 0.5 0.1
0.6 0.5 0.1
0.7 0.5 0.1
0.8 0.5 0.1
0.9 0.5 0.1
1 0.5 0.1
1.1 0.5 0.1
1.2 0.5 0.1
1.3 0.5 0.1
1.4 0.5 0.1
1.5 0.5 0.1
1.6 0.5 0.1
1.7 0.5 0.1
1.8 0.5 0.1
1.9 0.5 0.1
2 0.5 0.1
2.1 0.5 0.1
0 0.6 0.1
0.1 0.6 0.1
0.2 0.6 0.1
0.3 0.6 0.1
0.4 0.6 0.1
0.5 0.6 0.1
0.6 0.6 0.1
0.7 0.6 0.1
0.8 0.6 0.1
0.9 0.6 0.1
1 0.6 0.1
1.1 0.6 0.1
1.2 0.6 0.1
1.3 0.6 0.1
1.4 0.6 0.1
1.5 0.6 0.1
1.6 0.6 0.1
1.7 0.6 0.1
1.8 0.6 0.1
1.9 0.6 0.1
2 0.6 0.1
2.1 0.6 0.1
0 0.7 0.1
0.1 0.7 0.1
0.2 0.7 0.1
0.3 0.7 0.1
0.4 0.7 0.1
0.5 0.7 0.1
0.6 0.7 0.1
0.7 0.7 0.1
0.8 0.7 0.1
0.9 0.7 0.1
1 0.7 0.1
1.1 0.7 0.1
1.2 0.7 0.1
1.3 0.7 0.1
1.4 0.7 0.1
1.5 0.7 0.1
1.6 0.7 0.1
1.7 0.7 0.1
1.8 0.7 0.1
1.9 0.7 0.1
2 0.7 0.1
2.1 0.7 0.1
0 0.8 0.1
0.1 0.8 0.1
0.2 0.8 0.1
0.3 0.8 0.1
0.4 0.8 0.1
0.5 0.8 0.1
0.6 0.8 0.1
0.7 0.8 0.1
0.8 0.8 0.1
0.9 0.8 0.1
1 0.8 0.1
1.1 0.8 0.1
1.2 0.8 0.1
1.3 0.8 0.1
1.4 0.8 0.1
1.5 0.8 0.1
1.6 0.8 0.1
1.7 0.8 0.1
1.8 0.8 0.1
1.9 0.8 0.1
2 0.8 0.1
2.1 0.8 0.1
0 0.9 0.1
0.1 0.9 0.1
0.2 0.9 0.1
0.3 0.9 0.1
0.4 0.9 0.1
0.5 0.9 0.1
0.6 0.9 0.1
0.7 0.9 0.1
0.8 0.9 0.1
0.9 0.9 0.1
1 0.9 0.1
1.1 0.9 0.1
1.2 0.9 0.1
1.3 0.9 0.1
1.4 0.9 0.1
1.5 0.9 0.1
1.6 0.9 0.1
1.7 0.9 0.1
1.8 0.9 0.1
1.9 0.9 0.1
2 0.9 0.1
2.1 0.9 0.1
0 1 0.1
0.1 1 0.1
0.2 1 0.1
0.3 1 0.1
0.4 1 0.1
0.5 1 0.1
0.6 1 0.1
0.7 1 0.1
0.8 1 0.1
0.9 1 0.1
1 1 0.1
1.1 1 0.1
1.2 1 0.1
1.3 1 0.1
1.4 1 0.1
1.5 1 0.1
1.6 1 0.1
1.7 1 0.1
1.8 1 0.1
1.9 1 0.1
2 1 0.1
2.1 1 0.1
0 1.1 0.1
0.1 1.1 0.1
0.2 1.1 0.1
0.3 1.1 0.1
0.4 1.1 0.1
0.5 1.1 0.1
0.6 1.1 0.1
0.7 1.1 0.1
0.8 1.1 0.1
0.9 1.1 0.1
1 1.1 0.1
1.1 1.1 0.1
1.2 1.1 0.1
1.3 1.1 0.1
1.4 1.1 0.1
1.5 1.1 0.1
1.6 1.1 0.1
1.7 1.1 0.1
1.8 1.1 0.1
1.9 1.1 0.1
2 1.1 0.1
2.1 1.1 0.1
0 1.2 0.1
0.1 1.2 0.1
0.2 1.2 0.1
0.3 1.2 0.1
0.4 1.2 0.1
0.5 1.2 0.1
0.6 1.2 0.1
0.7 1.2 0.1
0.8 1.2 0.1
0.9 1.2 0.1
1 1.2 0.1
1.1 1.2 0.1
1.2 1.2 0.1
1.3 1.2 0.1
1.4 1.2 0.1
1.5 1.2 0.1
1.6 1.2 0.1
1.7 1.2 0.1
1.8 1.2 0.1
1.9 1.2 0.1
2 1.2 0.1
2.1 1.2 0.1
0 1.3 0.1
0.1 1.3 0.1
0.2 1.3 0.1
0.3 1.3 0.1
0.4 1.3 0.1
0.5 1.3 0.1
0.6 1.3 0.1
0.7 1.3 0.1
0.8 1.3 0.1
0.9 1.3 0.1
1 1.3 0.1
1.1 1.3 0.1
1.2 1.3 0.1
1.3 1.3 0.1
1.4 1.3 0.1
1.5 1.3 0.1
1.6 1.3 0.1
1.7 1.3 0.1
1.8 1.3 0.1
1.9 1.3 0.1
2 1.3 0.1
2.1 1.3 0.1
0 1.4 0.1
0.1 1.4 0.1
0.2 1.4 0.1
0.3 1.4 0.1
0.4 1.4 0.1
0.5 1.4 0.1
0.6 1.4 0.1
0.7 1.4 0.1
0.8 1.4 0.1
0.9 1.4 0.1
1 1.4 0.1
1.1 1.4 0.1
1.2 1.4 0.1
1.3 1.4 0.1
1.4 1.4 0.1
1.5 1.4 0.1
1.6 1.4 0.1
1.7 1.4 0.1
1.8 1.4 0.1
1.9 1.4 0.1
2 1.4 0.1
2.1 1.4 0.1
0 1.5 0.1
0.1 1.5 0.1
0.2 1.5 0.1
0.3 1.5 0.1
0.4 1.5 0.1
0.5 1.5 0.1
0.6 1.5 0.1
0.7 1.5 0.1
0.8 1.5 0.1
0.9 1.5 0.1
1 1.5 0.1
1.1 1.5 0.1
1.2 1.5 0.1
1.3 1.5 0.1
1.4 1.5 0.1
1.5 1.5 0.1
1.6 1.5 0.1
1.7 1.5 0.1
1.8 1.5 0.1
1.9 1.5 0.1
2 1.5 0.1
2.1 1.5 0.1
0 1.6 0.1
0.1 1.6 0.1
0.2 1.6 0.1
0.3 1.6 0.1
0.4 1.6 0.1
0.5 1.6 0.1
0.6 1.6 0.1
0.7 1.6 0.1
0.8 1.6 0.1
0.9 1.6 0.1
1 1.6 0.1
1.1 1.6 0.1
1.2 1.6 0.1
1.3 1.6 0.1
1.4 1.6 0.1
1.5 1.6 0.1
1.6 1.6 0.1
1.7 1.6 0.1
1.8 1.6 0.1
1.9 1.6 0.1
2 1.6 0.1
2.1 1.6 0.1
0 0 0.2
0.1 0 0.2
0.2 0 0.2
0.3 0 0.2
0.4 0 0.2
0.5 0 0.2
0.6 0 0.2
0.7 0 0.2
0.8 0 0.2
0.9 0 0.2
1 0 0.2
1.1 0 0.2
1.2 0 0.2
1.3 0 0.2
1.4 0 0.2
1.5 0 0.2
1.6 0 0.2
1.7 0 0.2
1.8 0 0.2
1.9 0 0.2
2 0 0.2
2.1 0 0.2
0 0.1 0.2
0.1 0.1 0.2
0.2 0.1 0.2
0.3 0.1 0.2
0.4 0.1 0.2
0.5 0.1 0.2
0.6 0.1 0.2
0.7 0.1 0.2
0.8 0.1 0.2
0.9 0.1 0.2
1 0.1 0.2
1.1 0.1 0.2
1.2 0.1 0.2
1.3 0.1 0.2
1.4 0.1 0.2
1.5 0.1 0.2
1.6 0.1 0.2
1.7 0.1 0.2
1.8 0.1 0.2
1.9 0.1 0.2
2 0.1 0.2
2.1 0.1 0.2
0 0.2 0.2
0.1 0.2 0.2
0.2 0.2 0.2
0.3 0.2 0.2
0.4 0.2 0.2
0.5 0.2 0.2
0.6 0.2 0.2
0.7 0.2 0.2
0.8 0.2 0.2
0.9 0.2 0.2
1 0.2 0.2
1.1 0.2 0.2
1.2 0.2 0.2
1.3 0.2 0.2
1.4 0.2 0.2
1.5 0.2 0.2
1.6 0.2 0.2
1.7 0.2 0.2
1.8 0.2 0.2
1.9 0.2 0.2
2 0.2 0.2
2.1 0.2 0.2
0 0.3 0.2
0.1 0.3 0.2
0.2 0.3 0.2
0.3 0.3 0.2
0.4 0.3 0.2
0.5 0.3 0.2
0.6 0.3 0.2
0.7 0.3 0.2
0.8 0.3 0.2
0.9 0.3 0.2
1 0.3 0.2
1.1 0.3 0.2
1.2 0.3 0.2
1.3 0.3 0.2
1.4 0.3 0.2
1.5 0.3 0.2
1.6 0.3 0.2
1.7 0.3 0.2
1.8 0.3 0.2
1.9 0.3 0.2
2 0.3 0.2
2.1 0.3 0.2
0 0.4 0.2
0.1 0.4 0.2
0.2 0.4 0.2
0.3 0.4 0.2
0.4 0.4 0.2
0.5 0.4 0.2
0.6 0.4 0.2
0.7 0.4 0.2
0.8 0.4 0.2
0.9 0.4 0.2
1 0.4 0.2
1.1 0.4 0.2
1.2 0.4 0.2
1.3 0.4 0.2
1.4 0.4 0.2
1.5 0.4 0.2
1.6 0.4 0.2
1.7 0.4 0.2
1.8 0.4 0.2
1.9 0.4 0.2
2 0.4 0.2
2.1 0.4 0.2
0 0.5 0.2
0.1 0.5 0.2
0.2 0.5 0.2
0.3 0.5 0.2
0.4 0.5 0.2
0.5 0.5 0.2
0.6 0.5 0.2
0.7 0.5 0.2
0.8 0.5 0.2
0.9 0.5 0.2
1 0.5 0.2
1.1 0.5 0.2
1.2 0.5 0.2
1.3 0.5 0.2
1.4 0.5 0.2
1.5 0.5 0.2
1.6 0.5 0.2
1.7 0.5 0.2
1.8 0.5 0.2
1.9 0.5 0.2
2 0.5 0.2
2.1 0.5 0.2
0 0.6 0.2
0.1 0.6 0.2
0.2 0.6 0.2
0.3 0.6 0.2
0.4 0.6 0.2
0.5 0.6 0.2
0.6 0.6 0.2
0.7 0.6 0.2
0.8 0.6 0.2
0.9 0.6 0.2
1 0.6 0.2
1.1 0.6 0.2
1.2 0.6 0.2
1.3 0.6 0.2
1.4 0.6 0.2
1.5 0.6 0.2
1.6 0.6 0.2
1.7 0.6 0.2
1.8 0.6 0.2
1.9 0.6 0.2
2 0.6 0.2
2.1 0.6 0.2
0 0.7 0.2
0.1 0.7 0.2
0.2 0.7 0.2
0.3 0.7 0.2
0.4 0.7 0.2
0.5 0.7 0.2
0.6 0.7 0.2
0.7 0.7 0.2
0.8 0.7 0.2
0.9 0.7 0.2
1 0.7 0.2
1.1 0.7 0.2
1.2 0.7 0.2
1.3 0.7 0.2
1.4 0.7 0.2
1.5 0.7 0.2
1.6 0.7 0.2
1.7 0.7 0.2
1.8 0.7 0.2
1.9 0.7 0.2
2 0.7 0.2
2.1 0.7 0.2
0 0.8 0.2
0.1 0.8 0.2
[...]
POINT_DATA 4488

SCALARS pressure double
LOOKUP_TABLE pressure
0
0
0
0
0
0
0
0
0
0
0
0
0
0
0
0
0
0
0
0
0
0
0
81.4256
81.4205
81.4175
81.4155
81.4138
81.4111
81.4104
81.4096
81.4087
81.4079
81.4071
81.4062
81.4066
81.4052
81.4044
81.4061
81.406
81.4051
81.4044
81.4045
0
0
81.4198
81.4186
81.4169
81.4151
81.4129
81.4113
81.4102
81.4093
81.4085
81.4077
81.4071
81.4068
81.4066
81.4059
81.4052
81.4052
81.4066
81.4057
81.4053
81.4054
0
0
81.4167
81.4166
81.416
81.4148
81.4115
81.4108
81.4101
81.4093
81.4085
81.4077
81.4073
81.4078
81.4074
81.4069
81.4065
81.4065
81.4069
81.4067
81.4067
81.4069
0
0
81.4147
81.415
81.4145
81.4133
81.4118
81.4104
81.4099
81.4094
81.4086
81.4072
81.4067
81.4098
81.4085
81.4078
81.4075
81.4076
81.4077
81.4077
81.4079
81.4083
0
0
81.4134
81.4139
81.4138
81.4125
81.4121
81.4092
81.4097
81.4096
81.4092
81.4083
81.4079
81.4086
81.4088
81.4085
81.4083
81.4084
81.4086
81.4085
81.4089
81.4095
0
0
81.4121
81.4126
81.4124
81.4118
81.4109
81.4101
81.4101
81.4102
81.4102
81.4088
81.4076
81.4081
81.4096
81.4091
81.4089
81.4088
81.4094
81.4093
81.4097
81.4104
0
0
81.4112
81.4117
81.4117
81.4112
81.41
81.4104
81.4104
81.4103
81.41
81.4094
81.4089
81.4091
81.4096
81.4095
81.4094
81.4095
81.4101
81.4102
81.4104
81.4109
0
0
81.4105
81.4111
81.4113
81.4115
81.4122
81.4111
81.4107
81.4105
81.4102
81.4099
81.4098
81.4099
81.41
81.41
81.41
81.4102
81.4109
81.4113
81.4108
81.4111
0
0
81.4098
81.4107
81.411
81.4112
81.4114
81.4111
81.4109
81.4107
81.4106
81.4105
81.4105
81.4105
81.4106
81.4106
81.4106
81.4108
81.4112
81.4116
81.4117
81.4119
0
0
81.4084
81.4108
81.4109
81.411
81.4111
81.4111
81.4111
81.411
81.4109
81.4109
81.411
81.4111
81.4112
81.4113
81.4114
81.4114
81.4117
81.412
81.4123
81.4126
0
0
81.4093
81.4102
81.4106
81.4109
81.411
81.4111
81.4112
81.4112
81.4111
81.4113
81.4114
81.4116
81.4119
81.4122
81.4124
81.4118
81.4121
81.4125
81.4128
81.4133
0
0
81.4094
81.4101
81.4105
81.4108
81.411
81.4112
81.4113
81.4114
81.4115
81.4117
81.4119
81.4121
81.4125
81.4132
81.4143
81.4113
81.4125
81.4131
81.4135
81.4141
0
0
81.4095
81.4101
81.4105
81.4108
81.411
81.4112
81.4114
81.4117
81.4119
81.4121
81.4123
81.4125
81.4128
81.4139
81.414
81.4133
81.4136
81.414
81.4144
81.4148
0
0
81.4097
81.4102
81.4105
81.4108
81.4111
81.4113
81.4116
81.4119
81.4122
81.4125
81.4128
81.4132
81.4136
81.4141
81.4143
81.4144
81.4147
81.415
81.4154
81.4157
0
0
81.41
81.4104
81.4106
81.4109
81.4112
81.4115
81.4118
81.4122
81.4126
81.4129
81.4133
81.4138
81.4142
81.4146
81.4149
81.4153
81.4157
81.4161
81.4163
81.4166
0
0
0
0
0
0
0
0
0
0
0
0
0
0
0
0
0
0
0
0
0
0
0
0
81.4256
81.4205
81.4175
81.4155
81.4138
81.4111
81.4104
81.4096
81.4087
81.4079
81.4071
81.4062
81.4066
81.4052
81.4044
81.4061
81.406
81.4051
81.4044
81.4045
0
81.4256
81.4256
81.4205
81.4175
81.4155
81.4138
81.4111
81.4104
81.4096
81.4087
81.4079
81.4071
81.4062
81.4066
81.4052
81.4044
81.4061
81.406
81.4051
81.4044
81.4045
81.4045
81.4198
81.4198
81.4186
81.4169
81.4151
81.4129
81.4113
81.4102
81.4093
81.4085
81.4077
81.4071
81.4068
81.4066
81.4059
81.4052
81.4052
81.4066
81.4057
81.4053
81.4054
81.4054
81.4167
81.4167
81.4166
81.416
81.4148
81.4115
81.4108
81.4101
81.4093
81.4085
81.4077
81.4073
81.4078
81.4074
81.4069
81.4065
81.4065
81.4069
81.4067
81.4067
81.4069
81.4069
81.4147
81.4147
81.415
81.4145
81.4133
81.4118
81.4104
81.4099
81.4094
81.4086
81.4072
81.4067
81.4098
81.4085
81.4078
81.4075
81.4076
81.4077
81.4077
81.4079
81.4083
81.4083
81.4134
81.4134
81.4139
81.4138
81.4125
81.4121
81.4092
81.4097
81.4096
81.4092
81.4083
81.4079
81.4086
81.4088
81.4085
81.4083
81.4084
81.4086
81.4085
81.4089
81.4095
81.4095
81.4121
81.4121
81.4126
81.4124
81.4118
81.4109
81.4101
81.4101
81.4102
81.4102
81.4088
81.4076
81.4081
81.4096
81.4091
81.4089
81.4088
81.4094
81.4093
81.4097
81.4104
81.4104
81.4112
81.4112
81.4117
81.4117
81.4112
81.41
81.4104
81.4104
81.4103
81.41
81.4094
81.4089
81.4091
81.4096
81.4095
81.4094
81.4095
81.4101
81.4102
81.4104
81.4109
81.4109
81.4105
81.4105
81.4111
81.4113
81.4115
81.4122
81.4111
81.4107
81.4105
81.4102
81.4099
81.4098
81.4099
81.41
81.41
81.41
81.4102
81.4109
81.4113
81.4108
81.4111
81.4111
81.4098
81.4098
81.4107
81.411
81.4112
81.4114
81.4111
81.4109
81.4107
81.4106
81.4105
81.4105
81.4105
81.4106
81.4106
81.4106
81.4108
81.4112
81.4116
81.4117
81.4119
81.4119
81.4084
81.4084
81.4108
81.4109
81.411
81.4111
81.4111
81.4111
81.411
81.4109
81.4109
81.411
81.4111
81.4112
81.4113
81.4114
81.4114
81.4117
81.412
81.4123
81.4126
81.4126
81.4093
81.4093
81.4102
81.4106
81.4109
81.411
81.4111
81.4112
81.4112
81.4111
81.4113
81.4114
81.4116
81.4119
81.4122
81.4124
81.4118
81.4121
81.4125
81.4128
81.4133
81.4133
81.4094
81.4094
81.4101
81.4105
81.4108
81.411
81.4112
81.4113
81.4114
81.4115
81.4117
81.4119
81.4121
81.4125
81.4132
81.4143
81.4113
81.4125
81.4131
81.4135
81.4141
81.4141
81.4095
81.4095
81.4101
81.4105
81.4108
81.411
81.4112
81.4114
81.4117
81.4119
81.4121
81.4123
81.4125
81.4128
81.4139
81.414
81.4133
81.4136
81.414
81.4144
81.4148
81.4148
81.4097
81.4097
81.4102
81.4105
81.4108
81.4111
81.4113
81.4116
81.4119
81.4122
81.4125
81.4128
81.4132
81.4136
81.4141
81.4143
81.4144
81.4147
81.415
81.4154
81.4157
81.4157
81.41
81.41
81.4104
81.4106
81.4109
81.4112
81.4115
81.4118
81.4122
81.4126
81.4129
81.4133
81.4138
81.4142
81.4146
81.4149
81.4153
81.4157
81.4161
81.4163
81.4166
81.4166
0
81.41
81.4104
81.4106
81.4109
81.4112
81.4115
81.4118
81.4122
81.4126
81.4129
81.4133
81.4138
81.4142
81.4146
81.4149
81.4153
81.4157
81.4161
81.4163
81.4166
0
0
81.4296
81.4244
81.4208
81.4163
81.4088
81.4047
81.4051
81.4067
81.4079
81.4083
81.4083
81.4079
81.4076
81.407
81.4065
81.4064
81.406
81.4054
81.4049
81.4051
0
81.4296
81.4296
81.4244
81.4208
81.4163
81.4088
81.4047
81.4051
81.4067
81.4079
81.4083
81.4083
81.4079
81.4076
81.407
81.4065
81.4064
81.406
81.4054
81.4049
81.4051
81.4051
81.4235
81.4235
81.4221
81.42
81.4165
81.4108
81.406
81.405
81.406
81.4071
81.4077
81.4079
81.4079
81.4076
81.4072
81.4067
81.4065
81.4064
81.406
81.4059
81.4058
81.4058
81.42
81.42
81.4197
81.4185
81.4162
81.4121
81.4077
81.4057
81.4058
81.4066
81.4072
81.4076
81.408
81.408
81.4077
81.4074
81.4073
81.4072
81.4072
81.4073
81.4073
81.4073
81.4176
81.4176
81.4177
81.4171
81.4156
81.4129
81.4093
81.4068
81.4061
81.4063
81.4067
81.4073
81.4083
81.4083
81.4082
81.4081
81.4081
81.4081
81.4082
81.4085
81.4086
81.4086
81.4158
81.4158
81.4162
81.4159
81.415
81.4134
81.4106
81.4084
81.4071
81.4067
81.4068
81.4072
81.408
81.4084
81.4085
81.4086
81.4087
81.4089
81.409
81.4094
81.4097
81.4097
81.4144
81.4144
81.4148
81.4148
81.4143
81.4133
81.4117
81.41
81.4086
81.4078
81.4072
81.4072
81.4078
81.4085
81.4088
81.409
81.4091
81.4095
81.4097
81.4101
81.4105
81.4105
81.4132
81.4132
81.4136
81.4138
81.4136
81.4131
81.4124
81.4114
81.4102
81.4091
81.4083
81.408
81.4083
81.4087
81.4091
81.4093
81.4096
81.4101
81.4104
81.4107
81.4111
81.4111
81.4123
81.4123
81.4128
81.413
81.4132
81.4132
81.4127
81.412
81.4112
81.4103
81.4096
81.4092
81.4091
81.4093
81.4095
81.4098
81.4102
81.4107
81.411
81.4113
81.4116
81.4116
81.4115
81.4115
81.4121
81.4124
81.4127
81.4127
81.4126
81.4123
81.4119
81.4114
81.4109
81.4103
81.41
81.41
81.4102
81.4104
81.4108
81.4111
81.4115
81.4118
81.4121
81.4121
81.4108
81.4108
81.4116
81.412
81.4122
81.4124
81.4124
81.4123
81.4121
81.4119
81.4116
81.4112
81.411
81.4111
81.4112
81.4113
81.4113
81.4116
81.412
81.4124
81.4127
81.4127
81.4106
81.4106
81.4112
81.4116
81.4119
81.4121
81.4122
81.4122
81.4122
81.4122
81.4121
81.412
81.4121
81.4121
81.4122
81.4121
81.4119
81.4121
81.4126
81.413
81.4134
81.4134
81.4105
81.4105
81.411
81.4114
81.4116
81.4119
81.412
81.4122
81.4123
81.4124
81.4125
81.4126
81.4128
81.4129
81.4131
81.4132
81.4127
81.413
81.4135
81.4139
81.4143
81.4143
81.4104
81.4104
81.4109
81.4112
81.4115
81.4118
81.412
81.4122
81.4124
81.4126
81.4128
81.413
81.4132
81.4135
81.4139
81.414
81.4139
81.4141
81.4145
81.4149
81.4152
81.4152
81.4105
81.4105
81.4109
81.4112
81.4115
81.4117
81.412
81.4122
81.4125
81.4128
81.4131
81.4134
81.4137
81.4141
81.4144
81.4147
81.4149
81.4152
81.4155
81.4158
81.4161
81.4161
81.4107
81.4107
81.411
81.4112
81.4114
81.4117
81.412
81.4123
81.4126
81.413
81.4134
81.4138
81.4142
81.4146
81.415
81.4154
81.4157
81.4161
81.4164
81.4167
81.4169
81.4169
0
81.4107
81.411
81.4112
81.4114
81.4117
81.412
81.4123
81.4126
81.413
81.4134
81.4138
81.4142
81.4146
81.415
81.4154
81.4157
81.4161
81.4164
81.4167
81.4169
0
0
81.4337
81.4289
81.4258
81.4189
81.398
81.3913
81.3974
81.4041
81.4079
81.4095
81.4098
81.4095
81.409
81.4084
81.4077
81.4071
81.4065
81.4059
81.4055
81.4057
0
81.4337
81.4337
81.4289
81.4258
81.4189
81.398
81.3913
81.3974
81.4041
81.4079
81.4095
81.4098
81.4095
81.409
81.4084
81.4077
81.4071
81.4065
81.4059
81.4055
81.4057
81.4057
81.4273
81.4273
81.4262
81.4244
81.4199
81.4078
81.3954
81.3965
81.4018
81.406
81.4082
81.409
81.4091
81.4089
81.4084
81.4079
81.4073
81.4068
81.4065
81.4064
81.4064
81.4064
81.4232
81.4232
81.4231
81.4223
81.4197
81.4129
81.4015
81.3982
81.4008
81.4043
81.4068
81.4081
81.4088
81.4088
81.4086
81.4083
81.408
81.4078
81.4077
81.4079
81.4078
81.4078
81.4204
81.4204
81.4206
81.4204
81.4191
81.4149
81.4068
81.4013
81.4009
81.403
81.4053
81.4071
81.4082
81.4087
81.4088
81.4088
81.4087
81.4086
81.4087
81.409
81.4091
81.4091
81.4182
81.4182
81.4187
81.4188
81.4185
81.4165
81.4113
81.4057
81.4028
81.4028
81.4042
81.4059
81.4073
81.4082
81.4087
81.4089
81.4091
81.4092
81.4094
81.4098
81.4101
81.4101
81.4165
81.4165
81.417
81.4173
81.4174
81.4165
81.4138
81.4098
81.4063
81.4046
81.4046
81.4054
81.4066
81.4077
81.4085
81.409
81.4094
81.4097
81.41
81.4105
81.4109
81.4109
81.4151
81.4151
81.4156
81.4159
81.4162
81.4159
81.415
81.4131
81.4103
81.4076
81.4062
81.4061
81.4068
81.4078
81.4085
81.4091
81.4096
81.4102
81.4106
81.4111
81.4116
81.4116
81.4139
81.4139
81.4144
81.4148
81.4151
81.4152
81.4149
81.4139
81.4122
81.4103
81.409
81.4083
81.4082
81.4083
81.4087
81.4093
81.4101
81.4107
81.4112
81.4115
81.4121
81.4121
81.4129
81.4129
81.4135
81.4138
81.4142
81.4143
81.4143
81.4139
81.4133
81.4127
81.4117
81.4103
81.4091
81.4088
81.4093
81.41
81.4106
81.4111
81.4115
81.4119
81.4124
81.4124
81.4122
81.4122
81.4128
81.4131
81.4134
81.4136
81.4137
81.4137
81.4136
81.4132
81.4124
81.4112
81.4105
81.4107
81.411
81.4111
81.4111
81.4113
81.4118
81.4123
81.4128
81.4128
81.4117
81.4117
81.4122
81.4126
81.4129
81.4131
81.4133
81.4134
81.4134
81.4133
81.413
81.4127
81.4127
81.4126
81.4123
81.4119
81.4116
81.4118
81.4124
81.4131
81.4135
81.4135
81.4114
81.4114
81.4119
81.4122
81.4125
81.4127
81.413
81.4131
81.4133
81.4134
81.4134
81.4135
81.4137
81.4135
81.4132
81.4129
81.4126
81.413
81.4136
81.4142
81.4145
81.4145
81.4112
81.4112
81.4117
81.412
81.4122
81.4125
81.4127
81.4129
81.4132
81.4134
81.4136
81.4138
81.414
81.4141
81.4142
81.4142
81.4144
81.4146
81.415
81.4153
81.4155
81.4155
81.4112
81.4112
81.4116
81.4118
81.4121
81.4123
81.4126
81.4128
81.4131
81.4134
81.4137
81.414
81.4143
81.4146
81.4149
81.4152
81.4155
81.4157
81.4159
81.4162
81.4165
81.4165
81.4114
81.4114
81.4116
81.4118
81.412
81.4122
81.4125
81.4128
81.4131
81.4134
81.4138
81.4142
81.4146
81.415
81.4154
81.4159
81.4162
81.4165
81.4168
81.417
81.4173
81.4173
0
81.4114
81.4116
81.4118
81.412
81.4122
81.4125
81.4128
81.4131
81.4134
81.4138
81.4142
81.4146
81.415
81.4154
81.4159
81.4162
81.4165
81.4168
81.417
81.4173
0
0
81.4378
81.4345
81.4352
81.4301
81.3618
81.3592
81.3876
81.4041
81.4103
81.412
81.412
81.4113
81.4105
81.4096
81.4087
81.4079
81.4071
81.4065
81.406
81.4066
0
81.4378
81.4378
81.4345
81.4352
81.4301
81.3618
81.3592
81.3876
81.4041
81.4103
81.412
81.412
81.4113
81.4105
81.4096
81.4087
81.4079
81.4071
81.4065
81.406
81.4066
81.4066
81.4308
81.4308
81.4307
81.4315
81.4298
81.4094
81.3688
81.3813
81.398
81.4068
81.4103
81.4111
81.411
81.4104
81.4097
81.409
81.4082
81.4075
81.407
81.4068
81.4075
81.4075
81.4262
81.4262
81.4266
81.4273
81.4271
81.4192
81.3874
81.3827
81.3932
81.4027
81.4078
81.4098
81.4104
81.4103
81.41
81.4094
81.4089
81.4085
81.4083
81.4084
81.4088
81.4088
81.4228
81.4228
81.4235
81.4244
81.4252
81.4212
81.4016
81.3888
81.3911
81.398
81.4039
81.4074
81.4091
81.4097
81.4098
81.4097
81.4095
81.4093
81.4093
81.4096
81.4101
81.4101
81.4203
81.4203
81.4211
81.4223
81.4241
81.4238
81.4138
81.4
81.3935
81.3951
81.4001
81.4043
81.4069
81.4084
81.4092
81.4096
81.4097
81.4098
81.41
81.4104
81.411
81.411
81.4183
81.4183
81.419
81.4201
81.4216
81.4215
81.4178
81.4096
81.4018
81.3985
81.3997
81.402
81.4046
81.4069
81.4084
81.4092
81.4097
81.41
81.4104
81.4109
81.4117
81.4117
81.4166
81.4166
81.4173
81.4181
81.4191
81.4195
81.4192
81.4175
81.4119
81.4053
81.4017
81.4018
81.4041
81.4067
81.408
81.4088
81.4096
81.4104
81.411
81.4114
81.4123
81.4123
81.4152
81.4152
81.4158
81.4164
81.4171
81.4178
81.418
81.4169
81.4136
81.4099
81.4081
81.4069
81.4071
81.407
81.4072
81.4084
81.4098
81.411
81.4117
81.4118
81.4128
81.4128
81.4141
81.4141
81.4147
81.4151
81.4157
81.4161
81.4163
81.416
81.4155
81.4157
81.414
81.4102
81.4068
81.4058
81.4075
81.4092
81.4106
81.4114
81.4117
81.4118
81.4129
81.4129
81.4133
81.4133
81.4138
81.4142
81.4146
81.4149
81.4152
81.4154
81.4156
81.4153
81.4132
81.4104
81.4084
81.4102
81.4107
81.4109
81.4109
81.4107
81.4111
81.412
81.4129
81.4129
81.4126
81.4126
81.4131
81.4135
81.4138
81.4141
81.4144
81.4147
81.4147
81.4145
81.4141
81.4136
81.4145
81.4139
81.4126
81.4113
81.41
81.4103
81.4118
81.413
81.4135
81.4135
81.4122
81.4122
81.4127
81.413
81.4133
81.4136
81.4138
81.4141
81.4142
81.4144
81.4146
81.415
81.4151
81.4144
81.4134
81.4121
81.4117
81.4129
81.4138
81.4145
81.4147
81.4147
81.412
81.412
81.4124
81.4127
81.4129
81.4132
81.4134
81.4137
81.4139
81.4142
81.4145
81.4148
81.4149
81.4149
81.4147
81.4147
81.4152
81.4155
81.4155
81.4158
81.4159
81.4159
81.4119
81.4119
81.4123
81.4125
81.4127
81.4129
81.4132
81.4134
81.4137
81.414
81.4143
81.4146
81.4149
81.4152
81.4155
81.416
81.4164
81.4165
81.4165
81.4167
81.4168
81.4168
81.412
81.412
81.4122
81.4124
81.4126
81.4128
81.413
81.4133
81.4136
81.4139
81.4142
81.4145
81.4149
81.4154
81.4159
81.4164
81.4168
81.417
81.4172
81.4173
81.4176
81.4176
0
81.412
81.4122
81.4124
81.4126
81.4128
81.413
81.4133
81.4136
81.4139
81.4142
81.4145
81.4149
81.4154
81.4159
81.4164
81.4168
81.417
81.4172
81.4173
81.4176
0
0
81.4404
81.4391
81.4489
81.4801
81.3919
81.3119
81.3827
81.4093
81.415
81.4152
81.4141
81.4128
81.4116
81.4105
81.4094
81.4084
81.4076
81.407
81.4066
81.4073
0
81.4404
81.4404
81.4391
81.4489
81.4801
81.3919
81.3119
81.3827
81.4093
81.415
81.4152
81.4141
81.4128
81.4116
81.4105
81.4094
81.4084
81.4076
81.407
81.4066
81.4073
81.4073
81.433
81.433
81.4341
81.4395
81.4597
81.4223
81.3406
81.3696
81.3992
81.4112
81.4141
81.414
81.413
81.412
81.4109
81.4099
81.409
81.4082
81.4077
81.4075
81.4087
81.4087
81.4279
81.4279
81.4289
81.4316
81.4394
81.4353
81.3676
81.3635
81.3864
81.4032
81.4103
81.4125
81.4126
81.4121
81.4113
81.4106
81.4098
81.4093
81.409
81.409
81.4103
81.4103
81.4242
81.4242
81.4253
81.4274
81.432
81.442
81.394
81.3724
81.3812
81.3946
81.4039
81.409
81.4109
81.4114
81.4112
81.4108
81.4104
81.4101
81.41
81.4103
81.4116
81.4116
81.4216
81.4216
81.4227
81.4251
81.431
81.4468
81.4201
81.3915
81.3849
81.3871
81.3962
81.4041
81.4077
81.4094
81.4103
81.4106
81.4106
81.4105
81.4106
81.4109
81.4125
81.4125
81.4194
81.4194
81.4204
81.4223
81.4264
81.4359
81.4278
81.4091
81.3969
81.39
81.3948
81.3998
81.4029
81.4064
81.4091
81.4099
81.4101
81.4103
81.4108
81.4113
81.4128
81.4128
81.4176
81.4176
81.4184
81.4196
81.4217
81.4255
81.4281
81.4273
81.4152
81.4004
81.3975
81.3976
81.4002
81.4064
81.4085
81.4087
81.4092
81.4104
81.4115
81.412
81.4131
81.4131
81.4161
81.4161
81.4168
81.4176
81.4188
81.4208
81.4242
81.427
81.417
81.4073
81.4086
81.4047
81.4047
81.4069
81.407
81.407
81.4092
81.4116
81.4127
81.4124
81.4138
81.4138
81.415
81.415
81.4155
81.4161
81.4168
81.4178
81.4193
81.42
81.4183
81.4212
81.4208
81.41
81.4028
81.4029
81.4058
81.4077
81.4107
81.4123
81.4123
81.4117
81.4138
81.4138
81.414
81.414
81.4146
81.415
81.4155
81.416
81.4167
81.4174
81.4189
81.4223
81.4175
81.4073
81.4048
81.4112
81.4107
81.4105
81.4107
81.4102
81.4107
81.4114
81.4133
81.4133
81.4134
81.4134
81.4139
81.4142
81.4146
81.415
81.4154
81.4159
81.4168
81.4174
81.4152
81.4138
81.4177
81.4189
81.4138
81.4102
81.4082
81.4087
81.4112
81.413
81.4136
81.4136
81.4129
81.4129
81.4134
81.4137
81.414
81.4143
81.4146
81.4149
81.4153
81.4156
81.4158
81.4172
81.4201
81.4175
81.4135
81.4108
81.4105
81.4127
81.4144
81.4152
81.4151
81.4151
81.4126
81.4126
81.413
81.4133
81.4136
81.4138
81.4141
81.4143
81.4146
81.4149
81.4154
81.4165
81.4171
81.416
81.4151
81.4152
81.4166
81.4174
81.4169
81.4166
81.4164
81.4164
81.4125
81.4125
81.4129
81.4131
81.4133
81.4135
81.4137
81.414
81.4143
81.4146
81.415
81.4155
81.4157
81.4158
81.4162
81.4175
81.4186
81.4182
81.4175
81.4173
81.4173
81.4173
81.4126
81.4126
81.4128
81.4129
81.4131
81.4133
81.4135
81.4138
81.414
81.4143
81.4146
81.4149
81.4152
81.4157
81.4162
81.4171
81.4177
81.4177
81.4176
81.4177
81.4179
81.4179
0
81.4126
81.4128
81.4129
81.4131
81.4133
81.4135
81.4138
81.414
81.4143
81.4146
81.4149
81.4152
81.4157
81.4162
81.4171
81.4177
81.4177
81.4176
81.4177
81.4179
0
0
81.4394
81.4361
81.4372
81.4334
81.3757
81.3614
81.3883
81.4045
81.4107
81.4125
81.4126
81.412
81.4112
81.4103
81.4094
81.4084
81.4076
81.407
81.4066
81.4072
0
81.4394
81.4394
81.4361
81.4372
81.4334
81.3757
81.3614
81.3883
81.4045
81.4107
81.4125
81.4126
81.412
81.4112
81.4103
81.4094
81.4084
81.4076
81.407
81.4066
81.4072
81.4072
81.4322
81.4322
81.432
81.4325
81.4298
81.4006
81.3713
81.3832
81.3996
81.4082
81.4115
81.4123
81.4121
81.4115
81.4107
81.4098
81.4089
81.4081
81.4076
81.4075
81.4079
81.4079
81.4275
81.4275
81.4279
81.4282
81.427
81.4157
81.3874
81.3837
81.394
81.4034
81.4086
81.4107
81.4114
81.4113
81.4108
81.4102
81.4096
81.4091
81.4089
81.4091
81.4094
81.4094
81.4242
81.4242
81.4248
81.4255
81.4261
81.4221
81.4017
81.3904
81.3925
81.3992
81.4049
81.4083
81.4099
81.4106
81.4106
81.4104
81.4102
81.41
81.41
81.4104
81.4108
81.4108
81.4217
81.4217
81.4225
81.4236
81.4255
81.4256
81.4135
81.401
81.3954
81.3969
81.4014
81.4054
81.4079
81.4094
81.4101
81.4104
81.4105
81.4106
81.4107
81.4112
81.4118
81.4118
81.4197
81.4197
81.4204
81.4215
81.4231
81.4243
81.419
81.4096
81.4021
81.3995
81.4009
81.4032
81.4058
81.4079
81.4093
81.4101
81.4105
81.4108
81.4112
81.4117
81.4125
81.4125
81.418
81.418
81.4186
81.4195
81.4206
81.4217
81.4209
81.4171
81.4116
81.4059
81.403
81.403
81.4049
81.4074
81.4088
81.4096
81.4104
81.4111
81.4117
81.4122
81.4131
81.4131
81.4166
81.4166
81.4172
81.4178
81.4186
81.4194
81.4199
81.419
81.415
81.4105
81.4077
81.407
81.4074
81.4076
81.4082
81.4092
81.4105
81.4116
81.4123
81.4126
81.4137
81.4137
81.4155
81.4155
81.416
81.4165
81.417
81.4176
81.418
81.4179
81.4168
81.4156
81.4144
81.4109
81.4078
81.4071
81.4082
81.4099
81.4112
81.412
81.4124
81.4127
81.4138
81.4138
81.4146
81.4146
81.4151
81.4154
81.4159
81.4163
81.4166
81.4169
81.4169
81.417
81.4151
81.4118
81.4095
81.4101
81.4112
81.4116
81.4116
81.4117
81.4121
81.4128
81.4139
81.4139
81.4139
81.4139
81.4144
81.4147
81.415
81.4153
81.4157
81.4159
81.4162
81.4162
81.4153
81.4143
81.4143
81.4147
81.4135
81.4122
81.4112
81.4115
81.4126
81.4139
81.4145
81.4145
81.4135
81.4135
81.4139
81.4142
81.4145
81.4147
81.415
81.4152
81.4155
81.4156
81.4156
81.4158
81.4163
81.4157
81.4144
81.4131
81.4126
81.4133
81.4146
81.4154
81.4156
81.4156
81.4132
81.4132
81.4136
81.4139
81.4141
81.4143
81.4145
81.4148
81.415
81.4152
81.4155
81.4159
81.4161
81.4159
81.4155
81.4152
81.4155
81.4161
81.4164
81.4167
81.4168
81.4168
81.4131
81.4131
81.4134
81.4136
81.4138
81.414
81.4142
81.4145
81.4147
81.415
81.4153
81.4156
81.4159
81.416
81.4163
81.4167
81.4172
81.4174
81.4174
81.4175
81.4177
81.4177
81.4132
81.4132
81.4134
81.4135
81.4136
81.4138
81.414
81.4142
81.4145
81.4148
81.4151
81.4153
81.4157
81.4161
81.4167
81.4173
81.4177
81.4178
81.4179
81.4181
81.4184
81.4184
0