# vtk DataFile Version 3.0
FlowField
ASCII
DATASET STRUCTURED_GRID
DIMENSIONS 102 12 1 
POINTS 1224 double
0 0 0
0.3 0 0
0.6 0 0
0.9 0 0
1.2 0 0
1.5 0 0
1.8 0 0
2.1 0 0
2.4 0 0
2.7 0 0
3 0 0
3.3 0 0
3.6 0 0
3.9 0 0
4.2 0 0
4.5 0 0
4.8 0 0
5.1 0 0
5.4 0 0
5.7 0 0
6 0 0
6.3 0 0
6.6 0 0
6.9 0 0
7.2 0 0
7.5 0 0
7.8 0 0
8.1 0 0
8.4 0 0
8.7 0 0
9 0 0
9.3 0 0
9.6 0 0
9.9 0 0
10.2 0 0
10.5 0 0
10.8 0 0
11.1 0 0
11.4 0 0
11.7 0 0
12 0 0
12.3 0 0
12.6 0 0
12.9 0 0
13.2 0 0
13.5 0 0
13.8 0 0
14.1 0 0
14.4 0 0
14.7 0 0
15 0 0
15.3 0 0
15.6 0 0
15.9 0 0
16.2 0 0
16.5 0 0
16.8 0 0
17.1 0 0
17.4 0 0
17.7 0 0
18 0 0
18.3 0 0
18.6 0 0
18.9 0 0
19.2 0 0
19.5 0 0
19.8 0 0
20.1 0 0
20.4 0 0
20.7 0 0
21 0 0
21.3 0 0
21.6 0 0
21.9 0 0
22.2 0 0
22.5 0 0
22.8 0 0
23.1 0 0
23.4 0 0
23.7 0 0
24 0 0
24.3 0 0
24.6 0 0
24.9 0 0
25.2 0 0
25.5 0 0
25.8 0 0
26.1 0 0
26.4 0 0
26.7 0 0
27 0 0
27.3 0 0
27.6 0 0
27.9 0 0
28.2 0 0
28.5 0 0
28.8 0 0
29.1 0 0
29.4 0 0
29.7 0 0
30 0 0
30.3 0 0
0 0.1 0
0.3 0.1 0
0.6 0.1 0
0.9 0.1 0
1.2 0.1 0
1.5 0.1 0
1.8 0.1 0
2.1 0.1 0
2.4 0.1 0
2.7 0.1 0
3 0.1 0
3.3 0.1 0
3.6 0.1 0
3.9 0.1 0
4.2 0.1 0
4.5 0.1 0
4.8 0.1 0
5.1 0.1 0
5.4 0.1 0
5.7 0.1 0
6 0.1 0
6.3 0.1 0
6.6 0.1 0
6.9 0.1 0
7.2 0.1 0
7.5 0.1 0
7.8 0.1 0
8.1 0.1 0
8.4 0.1 0
8.7 0.1 0
9 0.1 0
9.3 0.1 0
9.6 0.1 0
9.9 0.1 0
10.2 0.1 0
10.5 0.1 0
10.8 0.1 0
11.1 0.1 0
11.4 0.1 0
11.7 0.1 0
12 0.1 0
12.3 0.1 0
12.6 0.1 0
12.9 0.1 0
13.2 0.1 0
13.5 0.1 0
13.8 0.1 0
14.1 0.1 0
14.4 0.1 0
14.7 0.1 0
15 0.1 0
15.3 0.1 0
15.6 0.1 0
15.9 0.1 0
16.2 0.1 0
16.5 0.1 0
16.8 0.1 0
17.1 0.1 0
17.4 0.1 0
17.7 0.1 0
18 0.1 0
18.3 0.1 0
18.6 0.1 0
18.9 0.1 0
19.2 0.1 0
19.5 0.1 0
19.8 0.1 0
20.1 0.1 0
20.4 0.1 0
20.7 0.1 0
21 0.1 0
21.3 0.1 0
21.6 0.1 0
21.9 0.1 0
22.2 0.1 0
22.5 0.1 0
22.8 0.1 0
23.1 0.1 0
23.4 0.1 0
23.7 0.1 0
24 0.1 0
24.3 0.1 0
24.6 0.1 0
24.9 0.1 0
25.2 0.1 0
25.5 0.1 0
25.8 0.1 0
26.1 0.1 0
26.4 0.1 0
26.7 0.1 0
27 0.1 0
27.3 0.1 0
27.6 0.1 0
27.9 0.1 0
28.2 0.1 0
28.5 0.1 0
28.8 0.1 0
29.1 0.1 0
29.4 0.1 0
29.7 0.1 0
30 0.1 0
30.3 0.1 0
0 0.2 0
0.3 0.2 0
0.6 0.2 0
0.9 0.2 0
1.2 0.2 0
1.5 0.2 0
1.8 0.2 0
2.1 0.2 0
2.4 0.2 0
2.7 0.2 0
3 0.2 0
3.3 0.2 0
3.6 0.2 0
3.9 0.2 0
4.2 0.2 0
4.5 0.2 0
4.8 0.2 0
5.1 0.2 0
5.4 0.2 0
5.7 0.2 0
6 0.2 0
6.3 0.2 0
6.6 0.2 0
6.9 0.2 0
7.2 0.2 0
7.5 0.2 0
7.8 0.2 0
8.1 0.2 0
8.4 0.2 0
8.7 0.2 0
9 0.2 0
9.3 0.2 0
9.6 0.2 0
9.9 0.2 0
10.2 0.2 0
10.5 0.2 0
10.8 0.2 0
11.1 0.2 0
11.4 0.2 0
11.7 0.2 0
12 0.2 0
12.3 0.2 0
12.6 0.2 0
12.9 0.2 0
13.2 0.2 0
13.5 0.2 0
13.8 0.2 0
14.1 0.2 0
14.4 0.2 0
14.7 0.2 0
15 0.2 0
15.3 0.2 0
15.6 0.2 0
15.9 0.2 0
16.2 0.2 0
16.5 0.2 0
16.8 0.2 0
17.1 0.2 0
17.4 0.2 0
17.7 0.2 0
18 0.2 0
18.3 0.2 0
18.6 0.2 0
18.9 0.2 0
19.2 0.2 0
19.5 0.2 0
19.8 0.2 0
20.1 0.2 0
20.4 0.2 0
20.7 0.2 0
21 0.2 0
21.3 0.2 0
21.6 0.2 0
21.9 0.2 0
22.2 0.2 0
22.5 0.2 0
22.8 0.2 0
23.1 0.2 0
23.4 0.2 0
23.7 0.2 0
24 0.2 0
24.3 0.2 0
24.6 0.2 0
24.9 0.2 0
25.2 0.2 0
25.5 0.2 0
25.8 0.2 0
26.1 0.2 0
26.4 0.2 0
26.7 0.2 0
27 0.2 0
27.3 0.2 0
27.6 0.2 0
27.9 0.2 0
28.2 0.2 0
28.5 0.2 0
28.8 0.2 0
29.1 0.2 0
29.4 0.2 0
29.7 0.2 0
30 0.2 0
30.3 0.2 0
0 0.3 0
0.3 0.3 0
0.6 0.3 0
0.9 0.3 0
1.2 0.3 0
1.5 0.3 0
1.8 0.3 0
2.1 0.3 0
2.4 0.3 0
2.7 0.3 0
3 0.3 0
3.3 0.3 0
3.6 0.3 0
3.9 0.3 0
4.2 0.3 0
4.5 0.3 0
4.8 0.3 0
5.1 0.3 0
5.4 0.3 0
5.7 0.3 0
6 0.3 0
6.3 0.3 0
6.6 0.3 0
6.9 0.3 0
7.2 0.3 0
7.5 0.3 0
7.8 0.3 0
8.1 0.3 0
8.4 0.3 0
8.7 0.3 0
9 0.3 0
9.3 0.3 0
9.6 0.3 0
9.9 0.3 0
10.2 0.3 0
10.5 0.3 0
10.8 0.3 0
11.1 0.3 0
11.4 0.3 0
11.7 0.3 0
12 0.3 0
12.3 0.3 0
12.6 0.3 0
12.9 0.3 0
13.2 0.3 0
13.5 0.3 0
13.8 0.3 0
14.1 0.3 0
14.4 0.3 0
14.7 0.3 0
15 0.3 0
15.3 0.3 0
15.6 0.3 0
15.9 0.3 0
16.2 0.3 0
16.5 0.3 0
16.8 0.3 0
17.1 0.3 0
17.4 0.3 0
17.7 0.3 0
18 0.3 0
18.3 0.3 0
18.6 0.3 0
18.9 0.3 0
19.2 0.3 0
19.5 0.3 0
19.8 0.3 0
20.1 0.3 0
20.4 0.3 0
20.7 0.3 0
21 0.3 0
21.3 0.3 0
21.6 0.3 0
21.9 0.3 0
22.2 0.3 0
22.5 0.3 0
22.8 0.3 0
23.1 0.3 0
23.4 0.3 0
23.7 0.3 0
24 0.3 0
24.3 0.3 0
24.6 0.3 0
24.9 0.3 0
25.2 0.3 0
25.5 0.3 0
25.8 0.3 0
26.1 0.3 0
26.4 0.3 0
26.7 0.3 0
27 0.3 0
27.3 0.3 0
27.6 0.3 0
27.9 0.3 0
28.2 0.3 0
28.5 0.3 0
28.8 0.3 0
29.1 0.3 0
29.4 0.3 0
29.7 0.3 0
30 0.3 0
30.3 0.3 0
0 0.4 0
0.3 0.4 0
0.6 0.4 0
0.9 0.4 0
1.2 0.4 0
1.5 0.4 0
1.8 0.4 0
2.1 0.4 0
2.4 0.4 0
2.7 0.4 0
3 0.4 0
3.3 0.4 0
3.6 0.4 0
3.9 0.4 0
4.2 0.4 0
4.5 0.4 0
4.8 0.4 0
5.1 0.4 0
5.4 0.4 0
5.7 0.4 0
6 0.4 0
6.3 0.4 0
6.6 0.4 0
6.9 0.4 0
7.2 0.4 0
7.5 0.4 0
7.8 0.4 0
8.1 0.4 0
8.4 0.4 0
8.7 0.4 0
9 0.4 0
9.3 0.4 0
9.6 0.4 0
9.9 0.4 0
10.2 0.4 0
10.5 0.4 0
10.8 0.4 0
11.1 0.4 0
11.4 0.4 0
11.7 0.4 0
12 0.4 0
12.3 0.4 0
12.6 0.4 0
12.9 0.4 0
13.2 0.4 0
13.5 0.4 0
13.8 0.4 0
14.1 0.4 0
14.4 0.4 0
14.7 0.4 0
15 0.4 0
15.3 0.4 0
15.6 0.4 0
15.9 0.4 0
16.2 0.4 0
16.5 0.4 0
16.8 0.4 0
17.1 0.4 0
17.4 0.4 0
17.7 0.4 0
18 0.4 0
18.3 0.4 0
18.6 0.4 0
18.9 0.4 0
19.2 0.4 0
19.5 0.4 0
19.8 0.4 0
20.1 0.4 0
20.4 0.4 0
20.7 0.4 0
21 0.4 0
21.3 0.4 0
21.6 0.4 0
21.9 0.4 0
22.2 0.4 0
22.5 0.4 0
22.8 0.4 0
23.1 0.4 0
23.4 0.4 0
23.7 0.4 0
24 0.4 0
24.3 0.4 0
24.6 0.4 0
24.9 0.4 0
25.2 0.4 0
25.5 0.4 0
25.8 0.4 0
26.1 0.4 0
26.4 0.4 0
26.7 0.4 0
27 0.4 0
27.3 0.4 0
27.6 0.4 0
27.9 0.4 0
28.2 0.4 0
28.5 0.4 0
28.8 0.4 0
29.1 0.4 0
29.4 0.4 0
29.7 0.4 0
30 0.4 0
30.3 0.4 0
0 0.5 0
0.3 0.5 0
0.6 0.5 0
0.9 0.5 0
1.2 0.5 0
1.5 0.5 0
1.8 0.5 0
2.1 0.5 0
2.4 0.5 0
2.7 0.5 0
3 0.5 0
3.3 0.5 0
3.6 0.5 0
3.9 0.5 0
4.2 0.5 0
4.5 0.5 0
4.8 0.5 0
5.1 0.5 0
5.4 0.5 0
5.7 0.5 0
6 0.5 0
6.3 0.5 0
6.6 0.5 0
6.9 0.5 0
7.2 0.5 0
7.5 0.5 0
7.8 0.5 0
8.1 0.5 0
8.4 0.5 0
8.7 0.5 0
9 0.5 0
9.3 0.5 0
9.6 0.5 0
9.9 0.5 0
10.2 0.5 0
10.5 0.5 0
10.8 0.5 0
11.1 0.5 0
11.4 0.5 0
11.7 0.5 0
12 0.5 0
12.3 0.5 0
12.6 0.5 0
12.9 0.5 0
13.2 0.5 0
13.5 0.5 0
13.8 0.5 0
14.1 0.5 0
14.4 0.5 0
14.7 0.5 0
15 0.5 0
15.3 0.5 0
15.6 0.5 0
15.9 0.5 0
16.2 0.5 0
16.5 0.5 0
16.8 0.5 0
17.1 0.5 0
17.4 0.5 0
17.7 0.5 0
18 0.5 0
18.3 0.5 0
18.6 0.5 0
18.9 0.5 0
19.2 0.5 0
19.5 0.5 0
19.8 0.5 0
20.1 0.5 0
20.4 0.5 0
20.7 0.5 0
21 0.5 0
21.3 0.5 0
21.6 0.5 0
21.9 0.5 0
22.2 0.5 0
22.5 0.5 0
22.8 0.5 0
23.1 0.5 0
23.4 0.5 0
23.7 0.5 0
24 0.5 0
24.3 0.5 0
24.6 0.5 0
24.9 0.5 0
25.2 0.5 0
25.5 0.5 0
25.8 0.5 0
26.1 0.5 0
26.4 0.5 0
26.7 0.5 0
27 0.5 0
27.3 0.5 0
27.6 0.5 0
27.9 0.5 0
28.2 0.5 0
28.5 0.5 0
28.8 0.5 0
29.1 0.5 0
29.4 0.5 0
29.7 0.5 0
30 0.5 0
30.3 0.5 0
0 0.6 0
0.3 0.6 0
0.6 0.6 0
0.9 0.6 0
1.2 0.6 0
1.5 0.6 0
1.8 0.6 0
2.1 0.6 0
2.4 0.6 0
2.7 0.6 0
3 0.6 0
3.3 0.6 0
3.6 0.6 0
3.9 0.6 0
4.2 0.6 0
4.5 0.6 0
4.8 0.6 0
5.1 0.6 0
5.4 0.6 0
5.7 0.6 0
6 0.6 0
6.3 0.6 0
6.6 0.6 0
6.9 0.6 0
7.2 0.6 0
7.5 0.6 0
7.8 0.6 0
8.1 0.6 0
8.4 0.6 0
8.7 0.6 0
9 0.6 0
9.3 0.6 0
9.6 0.6 0
9.9 0.6 0
10.2 0.6 0
10.5 0.6 0
10.8 0.6 0
11.1 0.6 0
11.4 0.6 0
11.7 0.6 0
12 0.6 0
12.3 0.6 0
12.6 0.6 0
12.9 0.6 0
13.2 0.6 0
13.5 0.6 0
13.8 0.6 0
14.1 0.6 0
14.4 0.6 0
14.7 0.6 0
15 0.6 0
15.3 0.6 0
15.6 0.6 0
15.9 0.6 0
16.2 0.6 0
16.5 0.6 0
16.8 0.6 0
17.1 0.6 0
17.4 0.6 0
17.7 0.6 0
18 0.6 0
18.3 0.6 0
18.6 0.6 0
18.9 0.6 0
19.2 0.6 0
19.5 0.6 0
19.8 0.6 0
20.1 0.6 0
20.4 0.6 0
20.7 0.6 0
21 0.6 0
21.3 0.6 0
21.6 0.6 0
21.9 0.6 0
22.2 0.6 0
22.5 0.6 0
22.8 0.6 0
23.1 0.6 0
23.4 0.6 0
23.7 0.6 0
24 0.6 0
24.3 0.6 0
24.6 0.6 0
24.9 0.6 0
25.2 0.6 0
25.5 0.6 0
25.8 0.6 0
26.1 0.6 0
26.4 0.6 0
26.7 0.6 0
27 0.6 0
27.3 0.6 0
27.6 0.6 0
27.9 0.6 0
28.2 0.6 0
28.5 0.6 0
28.8 0.6 0
29.1 0.6 0
29.4 0.6 0
29.7 0.6 0
30 0.6 0
30.3 0.6 0
0 0.7 0
0.3 0.7 0
0.6 0.7 0
0.9 0.7 0
1.2 0.7 0
1.5 0.7 0
1.8 0.7 0
2.1 0.7 0
2.4 0.7 0
2.7 0.7 0
3 0.7 0
3.3 0.7 0
3.6 0.7 0
3.9 0.7 0
4.2 0.7 0
4.5 0.7 0
4.8 0.7 0
5.1 0.7 0
5.4 0.7 0
5.7 0.7 0
6 0.7 0
6.3 0.7 0
6.6 0.7 0
6.9 0.7 0
7.2 0.7 0
7.5 0.7 0
7.8 0.7 0
8.1 0.7 0
8.4 0.7 0
8.7 0.7 0
9 0.7 0
9.3 0.7 0
9.6 0.7 0
9.9 0.7 0
10.2 0.7 0
10.5 0.7 0
10.8 0.7 0
11.1 0.7 0
11.4 0.7 0
11.7 0.7 0
12 0.7 0
12.3 0.7 0
12.6 0.7 0
12.9 0.7 0
13.2 0.7 0
13.5 0.7 0
13.8 0.7 0
14.1 0.7 0
14.4 0.7 0
14.7 0.7 0
15 0.7 0
15.3 0.7 0
15.6 0.7 0
15.9 0.7 0
16.2 0.7 0
16.5 0.7 0
16.8 0.7 0
17.1 0.7 0
17.4 0.7 0
17.7 0.7 0
18 0.7 0
18.3 0.7 0
18.6 0.7 0
18.9 0.7 0
19.2 0.7 0
19.5 0.7 0
19.8 0.7 0
20.1 0.7 0
20.4 0.7 0
20.7 0.7 0
21 0.7 0
21.3 0.7 0
21.6 0.7 0
21.9 0.7 0
22.2 0.7 0
22.5 0.7 0
22.8 0.7 0
23.1 0.7 0
23.4 0.7 0
23.7 0.7 0
24 0.7 0
24.3 0.7 0
24.6 0.7 0
24.9 0.7 0
25.2 0.7 0
25.5 0.7 0
25.8 0.7 0
26.1 0.7 0
26.4 0.7 0
26.7 0.7 0
27 0.7 0
27.3 0.7 0
27.6 0.7 0
27.9 0.7 0
28.2 0.7 0
28.5 0.7 0
28.8 0.7 0
29.1 0.7 0
29.4 0.7 0
29.7 0.7 0
30 0.7 0
30.3 0.7 0
0 0.8 0
0.3 0.8 0
0.6 0.8 0
0.9 0.8 0
1.2 0.8 0
1.5 0.8 0
1.8 0.8 0
2.1 0.8 0
2.4 0.8 0
2.7 0.8 0
3 0.8 0
3.3 0.8 0
3.6 0.8 0
3.9 0.8 0
4.2 0.8 0
4.5 0.8 0
4.8 0.8 0
5.1 0.8 0
5.4 0.8 0
5.7 0.8 0
6 0.8 0
6.3 0.8 0
6.6 0.8 0
6.9 0.8 0
7.2 0.8 0
7.5 0.8 0
7.8 0.8 0
8.1 0.8 0
8.4 0.8 0
8.7 0.8 0
9 0.8 0
9.3 0.8 0
9.6 0.8 0
9.9 0.8 0
10.2 0.8 0
10.5 0.8 0
10.8 0.8 0
11.1 0.8 0
11.4 0.8 0
11.7 0.8 0
12 0.8 0
12.3 0.8 0
12.6 0.8 0
12.9 0.8 0
13.2 0.8 0
13.5 0.8 0
13.8 0.8 0
14.1 0.8 0
14.4 0.8 0
14.7 0.8 0
15 0.8 0
15.3 0.8 0
15.6 0.8 0
15.9 0.8 0
16.2 0.8 0
16.5 0.8 0
16.8 0.8 0
17.1 0.8 0
17.4 0.8 0
17.7 0.8 0
18 0.8 0
18.3 0.8 0
18.6 0.8 0
18.9 0.8 0
19.2 0.8 0
19.5 0.8 0
19.8 0.8 0
20.1 0.8 0
20.4 0.8 0
20.7 0.8 0
21 0.8 0
21.3 0.8 0
21.6 0.8 0
21.9 0.8 0
22.2 0.8 0
22.5 0.8 0
22.8 0.8 0
23.1 0.8 0
23.4 0.8 0
23.7 0.8 0
24 0.8 0
24.3 0.8 0
24.6 0.8 0
24.9 0.8 0
25.2 0.8 0
25.5 0.8 0
25.8 0.8 0
26.1 0.8 0
26.4 0.8 0
26.7 0.8 0
27 0.8 0
27.3 0.8 0
27.6 0.8 0
27.9 0.8 0
28.2 0.8 0
28.5 0.8 0
28.8 0.8 0
29.1 0.8 0
29.4 0.8 0
29.7 0.8 0
30 0.8 0
30.3 0.8 0
0 0.9 0
0.3 0.9 0
0.6 0.9 0
0.9 0.9 0
1.2 0.9 0
1.5 0.9 0
1.8 0.9 0
2.1 0.9 0
2.4 0.9 0
2.7 0.9 0
3 0.9 0
3.3 0.9 0
3.6 0.9 0
3.9 0.9 0
4.2 0.9 0
4.5 0.9 0
4.8 0.9 0
5.1 0.9 0
5.4 0.9 0
5.7 0.9 0
6 0.9 0
6.3 0.9 0
6.6 0.9 0
6.9 0.9 0
7.2 0.9 0
7.5 0.9 0
7.8 0.9 0
8.1 0.9 0
8.4 0.9 0
8.7 0.9 0
9 0.9 0
9.3 0.9 0
9.6 0.9 0
9.9 0.9 0
10.2 0.9 0
10.5 0.9 0
10.8 0.9 0
11.1 0.9 0
11.4 0.9 0
11.7 0.9 0
12 0.9 0
12.3 0.9 0
12.6 0.9 0
12.9 0.9 0
13.2 0.9 0
13.5 0.9 0
13.8 0.9 0
14.1 0.9 0
14.4 0.9 0
14.7 0.9 0
15 0.9 0
15.3 0.9 0
15.6 0.9 0
15.9 0.9 0
16.2 0.9 0
16.5 0.9 0
16.8 0.9 0
17.1 0.9 0
17.4 0.9 0
17.7 0.9 0
18 0.9 0
18.3 0.9 0
18.6 0.9 0
18.9 0.9 0
19.2 0.9 0
19.5 0.9 0
19.8 0.9 0
20.1 0.9 0
20.4 0.9 0
20.7 0.9 0
21 0.9 0
21.3 0.9 0
21.6 0.9 0
21.9 0.9 0
22.2 0.9 0
22.5 0.9 0
22.8 0.9 0
23.1 0.9 0
23.4 0.9 0
23.7 0.9 0
24 0.9 0
24.3 0.9 0
24.6 0.9 0
24.9 0.9 0
25.2 0.9 0
25.5 0.9 0
25.8 0.9 0
26.1 0.9 0
26.4 0.9 0
26.7 0.9 0
27 0.9 0
27.3 0.9 0
27.6 0.9 0
27.9 0.9 0
28.2 0.9 0
28.5 0.9 0
28.8 0.9 0
29.1 0.9 0
29.4 0.9 0
29.7 0.9 0
30 0.9 0
30.3 0.9 0
0 1 0
0.3 1 0
0.6 1 0
0.9 1 0
1.2 1 0
1.5 1 0
1.8 1 0
2.1 1 0
2.4 1 0
2.7 1 0
3 1 0
3.3 1 0
3.6 1 0
3.9 1 0
4.2 1 0
4.5 1 0
4.8 1 0
5.1 1 0
5.4 1 0
5.7 1 0
6 1 0
6.3 1 0
6.6 1 0
6.9 1 0
7.2 1 0
7.5 1 0
7.8 1 0
8.1 1 0
8.4 1 0
8.7 1 0
9 1 0
9.3 1 0
9.6 1 0
9.9 1 0
10.2 1 0
10.5 1 0
10.8 1 0
11.1 1 0
11.4 1 0
11.7 1 0
12 1 0
12.3 1 0
12.6 1 0
12.9 1 0
13.2 1 0
13.5 1 0
13.8 1 0
14.1 1 0
14.4 1 0
14.7 1 0
15 1 0
15.3 1 0
15.6 1 0
15.9 1 0
16.2 1 0
16.5 1 0
16.8 1 0
17.1 1 0
17.4 1 0
17.7 1 0
18 1 0
18.3 1 0
18.6 1 0
18.9 1 0
19.2 1 0
19.5 1 0
19.8 1 0
20.1 1 0
20.4 1 0
20.7 1 0
21 1 0
21.3 1 0
21.6 1 0
21.9 1 0
22.2 1 0
22.5 1 0
22.8 1 0
23.1 1 0
23.4 1 0
23.7 1 0
24 1 0
24.3 1 0
24.6 1 0
24.9 1 0
25.2 1 0
25.5 1 0
25.8 1 0
26.1 1 0
26.4 1 0
26.7 1 0
27 1 0
27.3 1 0
27.6 1 0
27.9 1 0
28.2 1 0
28.5 1 0
28.8 1 0
29.1 1 0
29.4 1 0
29.7 1 0
30 1 0
30.3 1 0
0 1.1 0
0.3 1.1 0
0.6 1.1 0
0.9 1.1 0
1.2 1.1 0
1.5 1.1 0
1.8 1.1 0
2.1 1.1 0
2.4 1.1 0
2.7 1.1 0
3 1.1 0
3.3 1.1 0
3.6 1.1 0
3.9 1.1 0
4.2 1.1 0
4.5 1.1 0
4.8 1.1 0
5.1 1.1 0
5.4 1.1 0
5.7 1.1 0
6 1.1 0
6.3 1.1 0
6.6 1.1 0
6.9 1.1 0
7.2 1.1 0
7.5 1.1 0
7.8 1.1 0
8.1 1.1 0
8.4 1.1 0
8.7 1.1 0
9 1.1 0
9.3 1.1 0
9.6 1.1 0
9.9 1.1 0
10.2 1.1 0
10.5 1.1 0
10.8 1.1 0
11.1 1.1 0
11.4 1.1 0
11.7 1.1 0
12 1.1 0
12.3 1.1 0
12.6 1.1 0
12.9 1.1 0
13.2 1.1 0
13.5 1.1 0
13.8 1.1 0
14.1 1.1 0
14.4 1.1 0
14.7 1.1 0
15 1.1 0
15.3 1.1 0
15.6 1.1 0
15.9 1.1 0
16.2 1.1 0
16.5 1.1 0
16.8 1.1 0
17.1 1.1 0
17.4 1.1 0
17.7 1.1 0
18 1.1 0
18.3 1.1 0
18.6 1.1 0
18.9 1.1 0
19.2 1.1 0
19.5 1.1 0
19.8 1.1 0
20.1 1.1 0
20.4 1.1 0
20.7 1.1 0
21 1.1 0
21.3 1.1 0
21.6 1.1 0
21.9 1.1 0
22.2 1.1 0
22.5 1.1 0
22.8 1.1 0
23.1 1.1 0
23.4 1.1 0
23.7 1.1 0
24 1.1 0
24.3 1.1 0
24.6 1.1 0
24.9 1.1 0
25.2 1.1 0
25.5 1.1 0
25.8 1.1 0
26.1 1.1 0
26.4 1.1 0
26.7 1.1 0
27 1.1 0
27.3 1.1 0
27.6 1.1 0
27.9 1.1 0
28.2 1.1 0
28.5 1.1 0
28.8 1.1 0
29.1 1.1 0
29.4 1.1 0
29.7 1.1 0
30 1.1 0
30.3 1.1 0

POINT_DATA 1224

SCALARS pressure double
LOOKUP_TABLE pressure
1.31577
1.31577
1.24926
1.20218
1.15923
1.11957
1.08355
1.05117
1.02207
0.995728
0.971618
0.949264
0.928292
0.908411
0.889405
0.871114
0.853423
0.836243
0.819503
0.803153
0.78715
0.771458
0.756048
0.740896
0.725978
0.711277
0.696775
0.682457
0.668309
0.654318
0.640473
0.626764
0.613181
0.599716
0.58636
0.573106
0.559947
0.546878
0.533891
0.520981
0.508144
0.495375
0.482669
0.470023
0.457431
0.444892
0.432402
0.419957
0.407555
0.395192
0.382867
0.370577
0.35832
0.346094
0.333897
0.321727
0.309582
0.297461
0.285362
0.273284
0.261225
0.249185
0.237162
0.225155
0.213164
0.201186
0.189222
0.177271
0.16533
0.153401
0.141483
0.129573
0.117673
0.105782
0.0938978
0.0820215
0.0701522
0.0582894
0.0464327
0.0345818
0.0227362
0.0108957
-0.000940024
-0.0127713
-0.0245985
-0.0364217
-0.0482413
-0.0600575
-0.0718704
-0.0836804
-0.0954875
-0.107292
-0.119094
-0.130894
-0.142691
-0.154486
-0.16628
-0.178072
-0.189861
-0.20165
-0.213437
0.213437
1.31577
1.31577
1.24926
1.20218
1.15923
1.11957
1.08355
1.05117
1.02207
0.995728
0.971618
0.949264
0.928292
0.908411
0.889405
0.871114
0.853423
0.836243
0.819503
0.803153
0.78715
0.771458
0.756048
0.740896
0.725978
0.711277
0.696775
0.682457
0.668309
0.654318
0.640473
0.626764
0.613181
0.599716
0.58636
0.573106
0.559947
0.546878
0.533891
0.520981
0.508144
0.495375
0.482669
0.470023
0.457431
0.444892
0.432402
0.419957
0.407555
0.395192
0.382867
0.370577
0.35832
0.346094
0.333897
0.321727
0.309582
0.297461
0.285362
0.273284
0.261225
0.249185
0.237162
0.225155
0.213164
0.201186
0.189222
0.177271
0.16533
0.153401
0.141483
0.129573
0.117673
0.105782
0.0938978
0.0820215
0.0701522
0.0582894
0.0464327
0.0345818
0.0227362
0.0108957
-0.000940024
-0.0127713
-0.0245985
-0.0364217
-0.0482413
-0.0600575
-0.0718704
-0.0836804
-0.0954875
-0.107292
-0.119094
-0.130894
-0.142691
-0.154486
-0.16628
-0.178072
-0.189861
-0.20165
-0.213437
0.213437
1.29512
1.29512
1.24746
1.2025
1.15995
1.12034
1.08425
1.05176
1.02254
0.996098
0.971904
0.949485
0.928465
0.908549
0.889516
0.871206
0.853501
0.836309
0.819561
0.803204
0.787195
0.771498
0.756084
0.740928
0.726008
0.711304
0.6968
0.68248
0.668329
0.654337
0.640491
0.62678
0.613196
0.59973
0.586373
0.573118
0.559959
0.546888
0.5339
0.52099
0.508153
0.495383
0.482676
0.470029
0.457438
0.444898
0.432407
0.419962
0.407559
0.395197
0.382871
0.370581
0.358324
0.346098
0.3339
0.32173
0.309585
0.297463
0.285364
0.273286
0.261227
0.249187
0.237164
0.225157
0.213166
0.201188
0.189224
0.177272
0.165332
0.153403
0.141484
0.129574
0.117674
0.105783
0.0938987
0.0820223
0.0701529
0.0582901
0.0464334
0.0345824
0.0227368
0.0108963
-0.000939508
-0.0127709
-0.024598
-0.0364213
-0.0482409
-0.0600571
-0.0718701
-0.08368
-0.0954871
-0.107292
-0.119094
-0.130893
-0.142691
-0.154486
-0.16628
-0.178071
-0.189861
-0.20165
-0.213437
0.213437
1.28074
1.28074
1.24496
1.20289
1.16108
1.12161
1.08543
1.05275
1.02333
0.996705
0.972359
0.949826
0.928721
0.908742
0.889666
0.871325
0.853597
0.836388
0.819627
0.80326
0.787243
0.77154
0.756122
0.740961
0.726038
0.711331
0.696824
0.682501
0.668349
0.654355
0.640507
0.626795
0.61321
0.599742
0.586384
0.573129
0.559968
0.546897
0.533909
0.520998
0.50816
0.495389
0.482683
0.470035
0.457443
0.444903
0.432412
0.419966
0.407563
0.3952
0.382875
0.370585
0.358327
0.3461
0.333903
0.321732
0.309587
0.297465
0.285366
0.273288
0.261229
0.249189
0.237166
0.225159
0.213167
0.201189
0.189225
0.177273
0.165333
0.153404
0.141485
0.129575
0.117675
0.105783
0.0938994
0.082023
0.0701535
0.0582907
0.0464339
0.0345829
0.0227373
0.0108967
-0.000939094
-0.0127705
-0.0245977
-0.036421
-0.0482406
-0.0600568
-0.0718698
-0.0836798
-0.0954869
-0.107291
-0.119093
-0.130893
-0.142691
-0.154486
-0.166279
-0.178071
-0.189861
-0.20165
-0.213433
0.213433
1.27205
1.27205
1.24295
1.20314
1.162
1.12269
1.08646
1.05364
1.02406
0.997283
0.972808
0.950171
0.928987
0.90895
0.889831
0.871458
0.853706
0.836479
0.819705
0.803327
0.787301
0.771591
0.756167
0.741001
0.726073
0.711363
0.696853
0.682527
0.668372
0.654376
0.640526
0.626813
0.613226
0.599757
0.586398
0.573141
0.55998
0.546907
0.533918
0.521007
0.508168
0.495397
0.48269
0.470042
0.457449
0.444909
0.432417
0.419971
0.407568
0.395205
0.382879
0.370588
0.358331
0.346104
0.333906
0.321735
0.309589
0.297468
0.285368
0.27329
0.261231
0.249191
0.237167
0.22516
0.213168
0.201191
0.189226
0.177274
0.165334
0.153405
0.141486
0.129576
0.117676
0.105784
0.0939002
0.0820237
0.0701543
0.0582913
0.0464345
0.0345835
0.0227378
0.0108972
-0.000938616
-0.01277
-0.0245973
-0.0364206
-0.0482402
-0.0600565
-0.0718695
-0.0836795
-0.0954866
-0.107291
-0.119093
-0.130893
-0.14269
-0.154486
-0.166279
-0.178071
-0.189861
-0.201648
-0.213428
0.213428
1.26797
1.26797
1.24186
1.20326
1.1625
1.12328
1.08703
1.05414
1.02448
0.997618
0.973071
0.950379
0.92915
0.90908
0.889936
0.871546
0.853779
0.836541
0.819758
0.803374
0.787343
0.771628
0.756199
0.741031
0.7261
0.711387
0.696874
0.682547
0.66839
0.654392
0.640541
0.626827
0.613239
0.599769
0.586409
0.573151
0.559989
0.546916
0.533926
0.521014
0.508175
0.495403
0.482695
0.470047
0.457454
0.444913
0.432422
0.419975
0.407572
0.395208
0.382882
0.370591
0.358333
0.346106
0.333908
0.321737
0.309592
0.29747
0.28537
0.273292
0.261233
0.249192
0.237169
0.225162
0.21317
0.201192
0.189227
0.177275
0.165335
0.153406
0.141487
0.129577
0.117677
0.105785
0.0939008
0.0820243
0.0701548
0.0582918
0.046435
0.0345839
0.0227383
0.0108976
-0.000938237
-0.0127697
-0.0245969
-0.0364203
-0.0482399
-0.0600562
-0.0718692
-0.0836792
-0.0954864
-0.107291
-0.119093
-0.130893
-0.14269
-0.154486
-0.166279
-0.178071
-0.18986
-0.201647
-0.213423
0.213423
1.26797
1.26797
1.24186
1.20326
1.1625
1.12328
1.08703
1.05415
1.02448
0.997618
0.973072
0.950379
0.92915
0.90908
0.889937
0.871546
0.853779
0.836541
0.819758
0.803374
0.787343
0.771628
0.756199
0.741031
0.7261
0.711387
0.696874
0.682547
0.66839
0.654392
0.640541
0.626827
0.613239
0.599769
0.586409
0.573151
0.559989
0.546916
0.533926
0.521014
0.508175
0.495403
0.482695
0.470047
0.457454
0.444913
0.432422
0.419975
0.407572
0.395208
0.382882
0.370591
0.358333
0.346106
0.333908
0.321737
0.309592
0.29747
0.28537
0.273292
0.261233
0.249192
0.237169
0.225162
0.21317
0.201192
0.189227
0.177275
0.165335
0.153406
0.141487
0.129577
0.117677
0.105785
0.0939008
0.0820243
0.0701548
0.0582918
0.046435
0.0345839
0.0227383
0.0108976
-0.000938237
-0.0127697
-0.0245969
-0.0364203
-0.0482399
-0.0600562
-0.0718692
-0.0836792
-0.0954864
-0.107291
-0.119093
-0.130893
-0.14269
-0.154486
-0.166279
-0.178071
-0.18986
-0.201647
-0.213423
0.213423
1.27205
1.27205
1.24294
1.20314
1.162
1.12269
1.08646
1.05364
1.02406
0.997283
0.972808
0.950171
0.928987
0.90895
0.889831
0.871458
0.853706
0.836479
0.819705
0.803327
0.787301
0.771591
0.756167
0.741001
0.726073
0.711363
0.696853
0.682527
0.668372
0.654376
0.640526
0.626813
0.613226
0.599757
0.586398
0.573141
0.55998
0.546907
0.533918
0.521007
0.508168
0.495397
0.48269
0.470042
0.457449
0.444909
0.432417
0.419971
0.407568
0.395205
0.382879
0.370588
0.358331
0.346104
0.333906
0.321735
0.309589
0.297468
0.285368
0.27329
0.261231
0.249191
0.237167
0.22516
0.213168
0.201191
0.189226
0.177274
0.165334
0.153405
0.141486
0.129576
0.117676
0.105784
0.0939002
0.0820237
0.0701543
0.0582913
0.0464345
0.0345835
0.0227378
0.0108972
-0.000938616
-0.01277
-0.0245973
-0.0364206
-0.0482402
-0.0600565
-0.0718695
-0.0836795
-0.0954866
-0.107291
-0.119093
-0.130893
-0.14269
-0.154486
-0.166279
-0.178071
-0.189861
-0.201648
-0.213428
0.213428
1.28074
1.28074
1.24496
1.20289
1.16108
1.12161
1.08543
1.05275
1.02333
0.996704
0.97236
0.949826
0.92872
0.908742
0.889666
0.871325
0.853597
0.836388
0.819627
0.80326
0.787243
0.77154
0.756122
0.740961
0.726038
0.711331
0.696824
0.682501
0.668349
0.654355
0.640507
0.626795
0.61321
0.599742
0.586384
0.573129
0.559968
0.546897
0.533909
0.520998
0.50816
0.495389
0.482683
0.470035
0.457443
0.444903
0.432412
0.419966
0.407563
0.3952
0.382875
0.370585
0.358327
0.3461
0.333903
0.321732
0.309587
0.297465
0.285366
0.273288
0.261229
0.249189
0.237166
0.225159
0.213167
0.201189
0.189225
0.177273
0.165333
0.153404
0.141485
0.129575
0.117675
0.105783
0.0938994
0.082023
0.0701535
0.0582907
0.0464339
0.0345829
0.0227373
0.0108967
-0.000939094
-0.0127705
-0.0245977
-0.036421
-0.0482406
-0.0600568
-0.0718698
-0.0836798
-0.0954869
-0.107291
-0.119093
-0.130893
-0.142691
-0.154486
-0.166279
-0.178071
-0.189861
-0.20165
-0.213433
0.213433
1.29512
1.29512
1.24746
1.2025
1.15995
1.12034
1.08425
1.05176
1.02254
0.996098
0.971903
0.949486
0.928465
0.908548
0.889516
0.871207
0.853501
0.836309
0.819561
0.803204
0.787195
0.771498
0.756084
0.740928
0.726008
0.711304
0.6968
0.68248
0.668329
0.654337
0.640491
0.62678
0.613196
0.59973
0.586373
0.573118
0.559959
0.546888
0.5339
0.52099
0.508153
0.495383
0.482676
0.470029
0.457438
0.444898
0.432407
0.419962
0.407559
0.395197
0.382871
0.370581
0.358324
0.346098
0.3339
0.32173
0.309585
0.297463
0.285364
0.273286
0.261227
0.249187
0.237164
0.225157
0.213166
0.201188
0.189224
0.177272
0.165332
0.153403
0.141484
0.129574
0.117674
0.105783
0.0938987
0.0820223
0.0701529
0.0582901
0.0464334
0.0345824
0.0227368
0.0108963
-0.000939508
-0.0127709
-0.024598
-0.0364213
-0.0482409
-0.0600571
-0.0718701
-0.08368
-0.0954871
-0.107292
-0.119094
-0.130893
-0.142691
-0.154486
-0.16628
-0.178071
-0.189861
-0.20165
-0.213437
0.213437
1.31577
1.31577
1.24926
1.20218
1.15923
1.11957
1.08355
1.05117
1.02207
0.995728
0.971617
0.949265
0.928292
0.908411
0.889404
0.871115
0.853424
0.836242
0.819503
0.803153
0.78715
0.771458
0.756048
0.740896
0.725978
0.711277
0.696775
0.682457
0.668309
0.654318
0.640473
0.626764
0.613181
0.599716
0.58636
0.573106
0.559947
0.546878
0.533891
0.520981
0.508144
0.495375
0.482669
0.470023
0.457431
0.444892
0.432402
0.419957
0.407555
0.395192
0.382867
0.370577
0.35832
0.346094
0.333897
0.321727
0.309582
0.297461
0.285362
0.273284
0.261225
0.249185
0.237162
0.225155
0.213164
0.201186
0.189222
0.177271
0.16533
0.153401
0.141483
0.129573
0.117673
0.105782
0.0938978
0.0820215
0.0701522
0.0582894
0.0464327
0.0345818
0.0227362
0.0108957
-0.000940024
-0.0127713
-0.0245985
-0.0364217
-0.0482413
-0.0600575
-0.0718704
-0.0836804
-0.0954875
-0.107292
-0.119094
-0.130894
-0.142691
-0.154486
-0.16628
-0.178072
-0.189861
-0.20165
-0.213437
0.213437
1.31577
1.31577
1.24926
1.20218
1.15923
1.11957
1.08355
1.05117
1.02207
0.995728
0.971617
0.949265
0.928292
0.908411
0.889404
0.871115
0.853424
0.836242
0.819503
0.803153
0.78715
0.771458
0.756048
0.740896
0.725978
0.711277
0.696775
0.682457
0.668309
0.654318
0.640473
0.626764
0.613181
0.599716
0.58636
0.573106
0.559947
0.546878
0.533891
0.520981
0.508144
0.495375
0.482669
0.470023
0.457431
0.444892
0.432402
0.419957
0.407555
0.395192
0.382867
0.370577
0.35832
0.346094
0.333897
0.321727
0.309582
0.297461
0.285362
0.273284
0.261225
0.249185
0.237162
0.225155
0.213164
0.201186
0.189222
0.177271
0.16533
0.153401
0.141483
0.129573
0.117673
0.105782
0.0938978
0.0820215
0.0701522
0.0582894
0.0464327
0.0345818
0.0227362
0.0108957
-0.000940024
-0.0127713
-0.0245985
-0.0364217
-0.0482413
-0.0600575
-0.0718704
-0.0836804
-0.0954875
-0.107292
-0.119094
-0.130894
-0.142691
-0.154486
-0.16628
-0.178072
-0.189861
-0.20165
-0.213437
0.213437
SCALARS phi double
LOOKUP_TABLE phi
1
1
1
0.999995
0.999977
0.999931
0.999833
0.999655
0.999364
0.998929
0.998323
0.997523
0.996512
0.995279
0.993815
0.992118
0.990189
0.988032
0.985652
0.983059
0.980261
0.97727
0.974097
0.970755
0.967257
0.963614
0.95984
0.955947
0.951946
0.94785
0.943668
0.939411
0.93509
0.930713
0.92629
0.921827
0.917333
0.912814
0.908274
0.903717
0.899144
0.894555
0.889945
0.885308
0.880634
0.875912
0.871127
0.866261
0.861296
0.856211
0.850985
0.845597
0.840025
0.83425
0.828253
0.822015
0.815523
0.808762
0.801722
0.794394
0.786775
0.77886
0.770649
0.762146
0.753353
0.744278
0.73493
0.725319
0.715456
0.705356
0.695032
0.684501
0.673777
0.662878
0.65182
0.640622
0.629299
0.617869
0.60635
0.594756
0.583106
0.571415
0.559697
0.547967
0.53624
0.524529
0.512845
0.501203
0.489611
0.478082
0.466624
0.455247
0.443959
0.432769
0.42168
0.410709
0.399829
0.389156
0.378318
0.368619
0.355479
0.355479
1
1
1
0.999995
0.999977
0.999931
0.999833
0.999655
0.999364
0.998929
0.998323
0.997523
0.996512
0.995279
0.993815
0.992118
0.990189
0.988032
0.985652
0.983059
0.980261
0.97727
0.974097
0.970755
0.967257
0.963614
0.95984
0.955947
0.951946
0.94785
0.943668
0.939411
0.93509
0.930713
0.92629
0.921827
0.917333
0.912814
0.908274
0.903717
0.899144
0.894555
0.889945
0.885308
0.880634
0.875912
0.871127
0.866261
0.861296
0.856211
0.850985
0.845597
0.840025
0.83425
0.828253
0.822015
0.815523
0.808762
0.801722
0.794394
0.786775
0.77886
0.770649
0.762146
0.753353
0.744278
0.73493
0.725319
0.715456
0.705356
0.695032
0.684501
0.673777
0.662878
0.65182
0.640622
0.629299
0.617869
0.60635
0.594756
0.583106
0.571415
0.559697
0.547967
0.53624
0.524529
0.512845
0.501203
0.489611
0.478082
0.466624
0.455247
0.443959
0.432769
0.42168
0.410709
0.399829
0.389156
0.378318
0.368619
0.355479
0.355479
0.999998
1
0.999984
0.999921
0.999783
0.999536
0.999146
0.99858
0.997812
0.996819
0.99559
0.994116
0.992397
0.990437
0.98824
0.985817
0.983177
0.980333
0.977297
0.974081
0.9707
0.967166
0.963491
0.95969
0.955773
0.951752
0.947639
0.943445
0.939179
0.93485
0.930469
0.926042
0.921579
0.917086
0.912571
0.908039
0.903495
0.898947
0.894397
0.88985
0.885309
0.880776
0.87625
0.871731
0.867216
0.862701
0.858178
0.85364
0.849076
0.844473
0.839819
0.835098
0.830295
0.825392
0.820375
0.815225
0.809927
0.804466
0.798827
0.792997
0.786964
0.780719
0.774253
0.76756
0.760635
0.753475
0.74608
0.73845
0.730588
0.722497
0.714184
0.705656
0.696919
0.687984
0.67886
0.669558
0.66009
0.650467
0.640702
0.630807
0.620795
0.610678
0.600471
0.590185
0.579832
0.569426
0.558977
0.548498
0.538
0.527493
0.516989
0.506496
0.496024
0.485584
0.475178
0.464829
0.454501
0.444341
0.433893
0.424698
0.411665
0.411665
1.00001
0.999992
0.99954
0.998615
0.997207
0.995317
0.992955
0.990145
0.986922
0.983332
0.979422
0.975241
0.970836
0.966248
0.961513
0.956664
0.951728
0.946728
0.941682
0.936608
0.931519
0.926427
0.92134
0.916268
0.911216
0.906189
0.901194
0.896232
0.891307
0.886422
0.881579
0.87678
0.872025
0.867316
0.862654
0.85804
0.853473
0.848955
0.844486
0.840065
0.835693
0.831369
0.827093
0.822863
0.818679
0.814537
0.810435
0.806369
0.802334
0.798325
0.794336
0.790359
0.786385
0.782406
0.778411
0.77439
0.770331
0.766223
0.762054
0.757813
0.753488
0.749068
0.744542
0.7399
0.735133
0.730231
0.725187
0.719995
0.714648
0.709142
0.703474
0.69764
0.691639
0.685472
0.679138
0.672639
0.665977
0.659156
0.65218
0.645052
0.63778
0.630367
0.622821
0.615148
0.607355
0.59945
0.59144
0.583333
0.575137
0.566858
0.558506
0.550088
0.541611
0.533084
0.52451
0.51591
0.507246
0.498671
0.489726
0.481899
0.470474
0.470474
1.00143
0.99857
0.991253
0.98188
0.971566
0.96086
0.950051
0.939311
0.928756
0.918468
0.908503
0.898898
0.889671
0.880827
0.87236
0.864261
0.856513
0.849098
0.841997
0.835192
0.828664
0.822396
0.816369
0.810568
0.80498
0.799588
0.794382
0.789348
0.784477
0.779758
0.775181
0.770738
0.766422
0.762224
0.758139
0.754159
0.75028
0.746495
0.7428
0.739191
0.735663
0.732211
0.728834
0.725526
0.722285
0.719108
0.71599
0.71293
0.709923
0.706965
0.704054
0.701184
0.698352
0.695553
0.692781
0.690031
0.687297
0.684572
0.681851
0.679125
0.676387
0.673631
0.670848
0.668031
0.665171
0.662261
0.659294
0.656262
0.653157
0.649974
0.646705
0.643345
0.639888
0.636329
0.632663
0.628886
0.624995
0.620988
0.616861
0.612613
0.608242
0.603749
0.599132
0.594393
0.589531
0.584549
0.579447
0.574227
0.568893
0.563446
0.557889
0.552226
0.546459
0.540593
0.534628
0.528581
0.522415
0.516256
0.50973
0.504019
0.49546
0.49546
1.0456
0.954401
0.887723
0.838674
0.801641
0.772861
0.749886
0.731119
0.715499
0.702298
0.691001
0.681228
0.672693
0.665173
0.658493
0.652515
0.647126
0.642236
0.637772
0.633673
0.629891
0.626382
0.623115
0.620059
0.61719
0.614489
0.611936
0.609518
0.607221
0.605034
0.602947
0.60095
0.599038
0.597202
0.595437
0.593737
0.592097
0.590514
0.588983
0.587501
0.586064
0.58467
0.583315
0.581999
0.580717
0.579469
0.578252
0.577065
0.575905
0.574771
0.573661
0.572573
0.571506
0.570458
0.569426
0.568408
0.567403
0.566406
0.565417
0.564431
0.563446
0.562458
0.561463
0.560458
0.559438
0.558399
0.557337
0.556248
0.555126
0.553967
0.552765
0.551518
0.550218
0.548863
0.547446
0.545964
0.544412
0.542786
0.541082
0.539294
0.537421
0.535458
0.533403
0.531251
0.529001
0.526649
0.524193
0.521632
0.518964
0.516186
0.513298
0.510299
0.507188
0.503964
0.500625
0.497179
0.493599
0.489969
0.486033
0.482574
0.477204
0.477204
-0.0455988
0.0455988
0.112277
0.161326
0.198359
0.227139
0.250114
0.268881
0.284501
0.297702
0.308999
0.318772
0.327307
0.334827
0.341507
0.347485
0.352874
0.357764
0.362228
0.366327
0.370109
0.373618
0.376885
0.379941
0.38281
0.385511
0.388064
0.390482
0.392779
0.394966
0.397053
0.399049
0.400962
0.402798
0.404563
0.406263
0.407903
0.409486
0.411017
0.412499
0.413936
0.41533
0.416685
0.418001
0.419282
0.42053
0.421747
0.422933
0.424091
0.425222
0.426327
0.427408
0.428465
0.429499
0.430511
0.431501
0.43247
0.433418
0.434345
0.435251
0.436135
0.436998
0.437837
0.438653
0.439445
0.44021
0.440947
0.441656
0.442332
0.442975
0.443583
0.444151
0.444678
0.445161
0.445597
0.445982
0.446312
0.446586
0.446798
0.446945
0.447024
0.44703
0.44696
0.44681
0.446576
0.446255
0.445842
0.445333