# vtk DataFile Version 3.0
FlowField
ASCII
DATASET STRUCTURED_GRID
DIMENSIONS 102 12 1 
POINTS 1224 double
0 0 0
0.3 0 0
0.6 0 0
0.9 0 0
1.2 0 0
1.5 0 0
1.8 0 0
2.1 0 0
2.4 0 0
2.7 0 0
3 0 0
3.3 0 0
3.6 0 0
3.9 0 0
4.2 0 0
4.5 0 0
4.8 0 0
5.1 0 0
5.4 0 0
5.7 0 0
6 0 0
6.3 0 0
6.6 0 0
6.9 0 0
7.2 0 0
7.5 0 0
7.8 0 0
8.1 0 0
8.4 0 0
8.7 0 0
9 0 0
9.3 0 0
9.6 0 0
9.9 0 0
10.2 0 0
10.5 0 0
10.8 0 0
11.1 0 0
11.4 0 0
11.7 0 0
12 0 0
12.3 0 0
12.6 0 0
12.9 0 0
13.2 0 0
13.5 0 0
13.8 0 0
14.1 0 0
14.4 0 0
14.7 0 0
15 0 0
15.3 0 0
15.6 0 0
15.9 0 0
16.2 0 0
16.5 0 0
16.8 0 0
17.1 0 0
17.4 0 0
17.7 0 0
18 0 0
18.3 0 0
18.6 0 0
18.9 0 0
19.2 0 0
19.5 0 0
19.8 0 0
20.1 0 0
20.4 0 0
20.7 0 0
21 0 0
21.3 0 0
21.6 0 0
21.9 0 0
22.2 0 0
22.5 0 0
22.8 0 0
23.1 0 0
23.4 0 0
23.7 0 0
24 0 0
24.3 0 0
24.6 0 0
24.9 0 0
25.2 0 0
25.5 0 0
25.8 0 0
26.1 0 0
26.4 0 0
26.7 0 0
27 0 0
27.3 0 0
27.6 0 0
27.9 0 0
28.2 0 0
28.5 0 0
28.8 0 0
29.1 0 0
29.4 0 0
29.7 0 0
30 0 0
30.3 0 0
0 0.1 0
0.3 0.1 0
0.6 0.1 0
0.9 0.1 0
1.2 0.1 0
1.5 0.1 0
1.8 0.1 0
2.1 0.1 0
2.4 0.1 0
2.7 0.1 0
3 0.1 0
3.3 0.1 0
3.6 0.1 0
3.9 0.1 0
4.2 0.1 0
4.5 0.1 0
4.8 0.1 0
5.1 0.1 0
5.4 0.1 0
5.7 0.1 0
6 0.1 0
6.3 0.1 0
6.6 0.1 0
6.9 0.1 0
7.2 0.1 0
7.5 0.1 0
7.8 0.1 0
8.1 0.1 0
8.4 0.1 0
8.7 0.1 0
9 0.1 0
9.3 0.1 0
9.6 0.1 0
9.9 0.1 0
10.2 0.1 0
10.5 0.1 0
10.8 0.1 0
11.1 0.1 0
11.4 0.1 0
11.7 0.1 0
12 0.1 0
12.3 0.1 0
12.6 0.1 0
12.9 0.1 0
13.2 0.1 0
13.5 0.1 0
13.8 0.1 0
14.1 0.1 0
14.4 0.1 0
14.7 0.1 0
15 0.1 0
15.3 0.1 0
15.6 0.1 0
15.9 0.1 0
16.2 0.1 0
16.5 0.1 0
16.8 0.1 0
17.1 0.1 0
17.4 0.1 0
17.7 0.1 0
18 0.1 0
18.3 0.1 0
18.6 0.1 0
18.9 0.1 0
19.2 0.1 0
19.5 0.1 0
19.8 0.1 0
20.1 0.1 0
20.4 0.1 0
20.7 0.1 0
21 0.1 0
21.3 0.1 0
21.6 0.1 0
21.9 0.1 0
22.2 0.1 0
22.5 0.1 0
22.8 0.1 0
23.1 0.1 0
23.4 0.1 0
23.7 0.1 0
24 0.1 0
24.3 0.1 0
24.6 0.1 0
24.9 0.1 0
25.2 0.1 0
25.5 0.1 0
25.8 0.1 0
26.1 0.1 0
26.4 0.1 0
26.7 0.1 0
27 0.1 0
27.3 0.1 0
27.6 0.1 0
27.9 0.1 0
28.2 0.1 0
28.5 0.1 0
28.8 0.1 0
29.1 0.1 0
29.4 0.1 0
29.7 0.1 0
30 0.1 0
30.3 0.1 0
0 0.2 0
0.3 0.2 0
0.6 0.2 0
0.9 0.2 0
1.2 0.2 0
1.5 0.2 0
1.8 0.2 0
2.1 0.2 0
2.4 0.2 0
2.7 0.2 0
3 0.2 0
3.3 0.2 0
3.6 0.2 0
3.9 0.2 0
4.2 0.2 0
4.5 0.2 0
4.8 0.2 0
5.1 0.2 0
5.4 0.2 0
5.7 0.2 0
6 0.2 0
6.3 0.2 0
6.6 0.2 0
6.9 0.2 0
7.2 0.2 0
7.5 0.2 0
7.8 0.2 0
8.1 0.2 0
8.4 0.2 0
8.7 0.2 0
9 0.2 0
9.3 0.2 0
9.6 0.2 0
9.9 0.2 0
10.2 0.2 0
10.5 0.2 0
10.8 0.2 0
11.1 0.2 0
11.4 0.2 0
11.7 0.2 0
12 0.2 0
12.3 0.2 0
12.6 0.2 0
12.9 0.2 0
13.2 0.2 0
13.5 0.2 0
13.8 0.2 0
14.1 0.2 0
14.4 0.2 0
14.7 0.2 0
15 0.2 0
15.3 0.2 0
15.6 0.2 0
15.9 0.2 0
16.2 0.2 0
16.5 0.2 0
16.8 0.2 0
17.1 0.2 0
17.4 0.2 0
17.7 0.2 0
18 0.2 0
18.3 0.2 0
18.6 0.2 0
18.9 0.2 0
19.2 0.2 0
19.5 0.2 0
19.8 0.2 0
20.1 0.2 0
20.4 0.2 0
20.7 0.2 0
21 0.2 0
21.3 0.2 0
21.6 0.2 0
21.9 0.2 0
22.2 0.2 0
22.5 0.2 0
22.8 0.2 0
23.1 0.2 0
23.4 0.2 0
23.7 0.2 0
24 0.2 0
24.3 0.2 0
24.6 0.2 0
24.9 0.2 0
25.2 0.2 0
25.5 0.2 0
25.8 0.2 0
26.1 0.2 0
26.4 0.2 0
26.7 0.2 0
27 0.2 0
27.3 0.2 0
27.6 0.2 0
27.9 0.2 0
28.2 0.2 0
28.5 0.2 0
28.8 0.2 0
29.1 0.2 0
29.4 0.2 0
29.7 0.2 0
30 0.2 0
30.3 0.2 0
0 0.3 0
0.3 0.3 0
0.6 0.3 0
0.9 0.3 0
1.2 0.3 0
1.5 0.3 0
1.8 0.3 0
2.1 0.3 0
2.4 0.3 0
2.7 0.3 0
3 0.3 0
3.3 0.3 0
3.6 0.3 0
3.9 0.3 0
4.2 0.3 0
4.5 0.3 0
4.8 0.3 0
5.1 0.3 0
5.4 0.3 0
5.7 0.3 0
6 0.3 0
6.3 0.3 0
6.6 0.3 0
6.9 0.3 0
7.2 0.3 0
7.5 0.3 0
7.8 0.3 0
8.1 0.3 0
8.4 0.3 0
8.7 0.3 0
9 0.3 0
9.3 0.3 0
9.6 0.3 0
9.9 0.3 0
10.2 0.3 0
10.5 0.3 0
10.8 0.3 0
11.1 0.3 0
11.4 0.3 0
11.7 0.3 0
12 0.3 0
12.3 0.3 0
12.6 0.3 0
12.9 0.3 0
13.2 0.3 0
13.5 0.3 0
13.8 0.3 0
14.1 0.3 0
14.4 0.3 0
14.7 0.3 0
15 0.3 0
15.3 0.3 0
15.6 0.3 0
15.9 0.3 0
16.2 0.3 0
16.5 0.3 0
16.8 0.3 0
17.1 0.3 0
17.4 0.3 0
17.7 0.3 0
18 0.3 0
18.3 0.3 0
18.6 0.3 0
18.9 0.3 0
19.2 0.3 0
19.5 0.3 0
19.8 0.3 0
20.1 0.3 0
20.4 0.3 0
20.7 0.3 0
21 0.3 0
21.3 0.3 0
21.6 0.3 0
21.9 0.3 0
22.2 0.3 0
22.5 0.3 0
22.8 0.3 0
23.1 0.3 0
23.4 0.3 0
23.7 0.3 0
24 0.3 0
24.3 0.3 0
24.6 0.3 0
24.9 0.3 0
25.2 0.3 0
25.5 0.3 0
25.8 0.3 0
26.1 0.3 0
26.4 0.3 0
26.7 0.3 0
27 0.3 0
27.3 0.3 0
27.6 0.3 0
27.9 0.3 0
28.2 0.3 0
28.5 0.3 0
28.8 0.3 0
29.1 0.3 0
29.4 0.3 0
29.7 0.3 0
30 0.3 0
30.3 0.3 0
0 0.4 0
0.3 0.4 0
0.6 0.4 0
0.9 0.4 0
1.2 0.4 0
1.5 0.4 0
1.8 0.4 0
2.1 0.4 0
2.4 0.4 0
2.7 0.4 0
3 0.4 0
3.3 0.4 0
3.6 0.4 0
3.9 0.4 0
4.2 0.4 0
4.5 0.4 0
4.8 0.4 0
5.1 0.4 0
5.4 0.4 0
5.7 0.4 0
6 0.4 0
6.3 0.4 0
6.6 0.4 0
6.9 0.4 0
7.2 0.4 0
7.5 0.4 0
7.8 0.4 0
8.1 0.4 0
8.4 0.4 0
8.7 0.4 0
9 0.4 0
9.3 0.4 0
9.6 0.4 0
9.9 0.4 0
10.2 0.4 0
10.5 0.4 0
10.8 0.4 0
11.1 0.4 0
11.4 0.4 0
11.7 0.4 0
12 0.4 0
12.3 0.4 0
12.6 0.4 0
12.9 0.4 0
13.2 0.4 0
13.5 0.4 0
13.8 0.4 0
14.1 0.4 0
14.4 0.4 0
14.7 0.4 0
15 0.4 0
15.3 0.4 0
15.6 0.4 0
15.9 0.4 0
16.2 0.4 0
16.5 0.4 0
16.8 0.4 0
17.1 0.4 0
17.4 0.4 0
17.7 0.4 0
18 0.4 0
18.3 0.4 0
18.6 0.4 0
18.9 0.4 0
19.2 0.4 0
19.5 0.4 0
19.8 0.4 0
20.1 0.4 0
20.4 0.4 0
20.7 0.4 0
21 0.4 0
21.3 0.4 0
21.6 0.4 0
21.9 0.4 0
22.2 0.4 0
22.5 0.4 0
22.8 0.4 0
23.1 0.4 0
23.4 0.4 0
23.7 0.4 0
24 0.4 0
24.3 0.4 0
24.6 0.4 0
24.9 0.4 0
25.2 0.4 0
25.5 0.4 0
25.8 0.4 0
26.1 0.4 0
26.4 0.4 0
26.7 0.4 0
27 0.4 0
27.3 0.4 0
27.6 0.4 0
27.9 0.4 0
28.2 0.4 0
28.5 0.4 0
28.8 0.4 0
29.1 0.4 0
29.4 0.4 0
29.7 0.4 0
30 0.4 0
30.3 0.4 0
0 0.5 0
0.3 0.5 0
0.6 0.5 0
0.9 0.5 0
1.2 0.5 0
1.5 0.5 0
1.8 0.5 0
2.1 0.5 0
2.4 0.5 0
2.7 0.5 0
3 0.5 0
3.3 0.5 0
3.6 0.5 0
3.9 0.5 0
4.2 0.5 0
4.5 0.5 0
4.8 0.5 0
5.1 0.5 0
5.4 0.5 0
5.7 0.5 0
6 0.5 0
6.3 0.5 0
6.6 0.5 0
6.9 0.5 0
7.2 0.5 0
7.5 0.5 0
7.8 0.5 0
8.1 0.5 0
8.4 0.5 0
8.7 0.5 0
9 0.5 0
9.3 0.5 0
9.6 0.5 0
9.9 0.5 0
10.2 0.5 0
10.5 0.5 0
10.8 0.5 0
11.1 0.5 0
11.4 0.5 0
11.7 0.5 0
12 0.5 0
12.3 0.5 0
12.6 0.5 0
12.9 0.5 0
13.2 0.5 0
13.5 0.5 0
13.8 0.5 0
14.1 0.5 0
14.4 0.5 0
14.7 0.5 0
15 0.5 0
15.3 0.5 0
15.6 0.5 0
15.9 0.5 0
16.2 0.5 0
16.5 0.5 0
16.8 0.5 0
17.1 0.5 0
17.4 0.5 0
17.7 0.5 0
18 0.5 0
18.3 0.5 0
18.6 0.5 0
18.9 0.5 0
19.2 0.5 0
19.5 0.5 0
19.8 0.5 0
20.1 0.5 0
20.4 0.5 0
20.7 0.5 0
21 0.5 0
21.3 0.5 0
21.6 0.5 0
21.9 0.5 0
22.2 0.5 0
22.5 0.5 0
22.8 0.5 0
23.1 0.5 0
23.4 0.5 0
23.7 0.5 0
24 0.5 0
24.3 0.5 0
24.6 0.5 0
24.9 0.5 0
25.2 0.5 0
25.5 0.5 0
25.8 0.5 0
26.1 0.5 0
26.4 0.5 0
26.7 0.5 0
27 0.5 0
27.3 0.5 0
27.6 0.5 0
27.9 0.5 0
28.2 0.5 0
28.5 0.5 0
28.8 0.5 0
29.1 0.5 0
29.4 0.5 0
29.7 0.5 0
30 0.5 0
30.3 0.5 0
0 0.6 0
0.3 0.6 0
0.6 0.6 0
0.9 0.6 0
1.2 0.6 0
1.5 0.6 0
1.8 0.6 0
2.1 0.6 0
2.4 0.6 0
2.7 0.6 0
3 0.6 0
3.3 0.6 0
3.6 0.6 0
3.9 0.6 0
4.2 0.6 0
4.5 0.6 0
4.8 0.6 0
5.1 0.6 0
5.4 0.6 0
5.7 0.6 0
6 0.6 0
6.3 0.6 0
6.6 0.6 0
6.9 0.6 0
7.2 0.6 0
7.5 0.6 0
7.8 0.6 0
8.1 0.6 0
8.4 0.6 0
8.7 0.6 0
9 0.6 0
9.3 0.6 0
9.6 0.6 0
9.9 0.6 0
10.2 0.6 0
10.5 0.6 0
10.8 0.6 0
11.1 0.6 0
11.4 0.6 0
11.7 0.6 0
12 0.6 0
12.3 0.6 0
12.6 0.6 0
12.9 0.6 0
13.2 0.6 0
13.5 0.6 0
13.8 0.6 0
14.1 0.6 0
14.4 0.6 0
14.7 0.6 0
15 0.6 0
15.3 0.6 0
15.6 0.6 0
15.9 0.6 0
16.2 0.6 0
16.5 0.6 0
16.8 0.6 0
17.1 0.6 0
17.4 0.6 0
17.7 0.6 0
18 0.6 0
18.3 0.6 0
18.6 0.6 0
18.9 0.6 0
19.2 0.6 0
19.5 0.6 0
19.8 0.6 0
20.1 0.6 0
20.4 0.6 0
20.7 0.6 0
21 0.6 0
21.3 0.6 0
21.6 0.6 0
21.9 0.6 0
22.2 0.6 0
22.5 0.6 0
22.8 0.6 0
23.1 0.6 0
23.4 0.6 0
23.7 0.6 0
24 0.6 0
24.3 0.6 0
24.6 0.6 0
24.9 0.6 0
25.2 0.6 0
25.5 0.6 0
25.8 0.6 0
26.1 0.6 0
26.4 0.6 0
26.7 0.6 0
27 0.6 0
27.3 0.6 0
27.6 0.6 0
27.9 0.6 0
28.2 0.6 0
28.5 0.6 0
28.8 0.6 0
29.1 0.6 0
29.4 0.6 0
29.7 0.6 0
30 0.6 0
30.3 0.6 0
0 0.7 0
0.3 0.7 0
0.6 0.7 0
0.9 0.7 0
1.2 0.7 0
1.5 0.7 0
1.8 0.7 0
2.1 0.7 0
2.4 0.7 0
2.7 0.7 0
3 0.7 0
3.3 0.7 0
3.6 0.7 0
3.9 0.7 0
4.2 0.7 0
4.5 0.7 0
4.8 0.7 0
5.1 0.7 0
5.4 0.7 0
5.7 0.7 0
6 0.7 0
6.3 0.7 0
6.6 0.7 0
6.9 0.7 0
7.2 0.7 0
7.5 0.7 0
7.8 0.7 0
8.1 0.7 0
8.4 0.7 0
8.7 0.7 0
9 0.7 0
9.3 0.7 0
9.6 0.7 0
9.9 0.7 0
10.2 0.7 0
10.5 0.7 0
10.8 0.7 0
11.1 0.7 0
11.4 0.7 0
11.7 0.7 0
12 0.7 0
12.3 0.7 0
12.6 0.7 0
12.9 0.7 0
13.2 0.7 0
13.5 0.7 0
13.8 0.7 0
14.1 0.7 0
14.4 0.7 0
14.7 0.7 0
15 0.7 0
15.3 0.7 0
15.6 0.7 0
15.9 0.7 0
16.2 0.7 0
16.5 0.7 0
16.8 0.7 0
17.1 0.7 0
17.4 0.7 0
17.7 0.7 0
18 0.7 0
18.3 0.7 0
18.6 0.7 0
18.9 0.7 0
19.2 0.7 0
19.5 0.7 0
19.8 0.7 0
20.1 0.7 0
20.4 0.7 0
20.7 0.7 0
21 0.7 0
21.3 0.7 0
21.6 0.7 0
21.9 0.7 0
22.2 0.7 0
22.5 0.7 0
22.8 0.7 0
23.1 0.7 0
23.4 0.7 0
23.7 0.7 0
24 0.7 0
24.3 0.7 0
24.6 0.7 0
24.9 0.7 0
25.2 0.7 0
25.5 0.7 0
25.8 0.7 0
26.1 0.7 0
26.4 0.7 0
26.7 0.7 0
27 0.7 0
27.3 0.7 0
27.6 0.7 0
27.9 0.7 0
28.2 0.7 0
28.5 0.7 0
28.8 0.7 0
29.1 0.7 0
29.4 0.7 0
29.7 0.7 0
30 0.7 0
30.3 0.7 0
0 0.8 0
0.3 0.8 0
0.6 0.8 0
0.9 0.8 0
1.2 0.8 0
1.5 0.8 0
1.8 0.8 0
2.1 0.8 0
2.4 0.8 0
2.7 0.8 0
3 0.8 0
3.3 0.8 0
3.6 0.8 0
3.9 0.8 0
4.2 0.8 0
4.5 0.8 0
4.8 0.8 0
5.1 0.8 0
5.4 0.8 0
5.7 0.8 0
6 0.8 0
6.3 0.8 0
6.6 0.8 0
6.9 0.8 0
7.2 0.8 0
7.5 0.8 0
7.8 0.8 0
8.1 0.8 0
8.4 0.8 0
8.7 0.8 0
9 0.8 0
9.3 0.8 0
9.6 0.8 0
9.9 0.8 0
10.2 0.8 0
10.5 0.8 0
10.8 0.8 0
11.1 0.8 0
11.4 0.8 0
11.7 0.8 0
12 0.8 0
12.3 0.8 0
12.6 0.8 0
12.9 0.8 0
13.2 0.8 0
13.5 0.8 0
13.8 0.8 0
14.1 0.8 0
14.4 0.8 0
14.7 0.8 0
15 0.8 0
15.3 0.8 0
15.6 0.8 0
15.9 0.8 0
16.2 0.8 0
16.5 0.8 0
16.8 0.8 0
17.1 0.8 0
17.4 0.8 0
17.7 0.8 0
18 0.8 0
18.3 0.8 0
18.6 0.8 0
18.9 0.8 0
19.2 0.8 0
19.5 0.8 0
19.8 0.8 0
20.1 0.8 0
20.4 0.8 0
20.7 0.8 0
21 0.8 0
21.3 0.8 0
21.6 0.8 0
21.9 0.8 0
22.2 0.8 0
22.5 0.8 0
22.8 0.8 0
23.1 0.8 0
23.4 0.8 0
23.7 0.8 0
24 0.8 0
24.3 0.8 0
24.6 0.8 0
24.9 0.8 0
25.2 0.8 0
25.5 0.8 0
25.8 0.8 0
26.1 0.8 0
26.4 0.8 0
26.7 0.8 0
27 0.8 0
27.3 0.8 0
27.6 0.8 0
27.9 0.8 0
28.2 0.8 0
28.5 0.8 0
28.8 0.8 0
29.1 0.8 0
29.4 0.8 0
29.7 0.8 0
30 0.8 0
30.3 0.8 0
0 0.9 0
0.3 0.9 0
0.6 0.9 0
0.9 0.9 0
1.2 0.9 0
1.5 0.9 0
1.8 0.9 0
2.1 0.9 0
2.4 0.9 0
2.7 0.9 0
3 0.9 0
3.3 0.9 0
3.6 0.9 0
3.9 0.9 0
4.2 0.9 0
4.5 0.9 0
4.8 0.9 0
5.1 0.9 0
5.4 0.9 0
5.7 0.9 0
6 0.9 0
6.3 0.9 0
6.6 0.9 0
6.9 0.9 0
7.2 0.9 0
7.5 0.9 0
7.8 0.9 0
8.1 0.9 0
8.4 0.9 0
8.7 0.9 0
9 0.9 0
9.3 0.9 0
9.6 0.9 0
9.9 0.9 0
10.2 0.9 0
10.5 0.9 0
10.8 0.9 0
11.1 0.9 0
11.4 0.9 0
11.7 0.9 0
12 0.9 0
12.3 0.9 0
12.6 0.9 0
12.9 0.9 0
13.2 0.9 0
13.5 0.9 0
13.8 0.9 0
14.1 0.9 0
14.4 0.9 0
14.7 0.9 0
15 0.9 0
15.3 0.9 0
15.6 0.9 0
15.9 0.9 0
16.2 0.9 0
16.5 0.9 0
16.8 0.9 0
17.1 0.9 0
17.4 0.9 0
17.7 0.9 0
18 0.9 0
18.3 0.9 0
18.6 0.9 0
18.9 0.9 0
19.2 0.9 0
19.5 0.9 0
19.8 0.9 0
20.1 0.9 0
20.4 0.9 0
20.7 0.9 0
21 0.9 0
21.3 0.9 0
21.6 0.9 0
21.9 0.9 0
22.2 0.9 0
22.5 0.9 0
22.8 0.9 0
23.1 0.9 0
23.4 0.9 0
23.7 0.9 0
24 0.9 0
24.3 0.9 0
24.6 0.9 0
24.9 0.9 0
25.2 0.9 0
25.5 0.9 0
25.8 0.9 0
26.1 0.9 0
26.4 0.9 0
26.7 0.9 0
27 0.9 0
27.3 0.9 0
27.6 0.9 0
27.9 0.9 0
28.2 0.9 0
28.5 0.9 0
28.8 0.9 0
29.1 0.9 0
29.4 0.9 0
29.7 0.9 0
30 0.9 0
30.3 0.9 0
0 1 0
0.3 1 0
0.6 1 0
0.9 1 0
1.2 1 0
1.5 1 0
1.8 1 0
2.1 1 0
2.4 1 0
2.7 1 0
3 1 0
3.3 1 0
3.6 1 0
3.9 1 0
4.2 1 0
4.5 1 0
4.8 1 0
5.1 1 0
5.4 1 0
5.7 1 0
6 1 0
6.3 1 0
6.6 1 0
6.9 1 0
7.2 1 0
7.5 1 0
7.8 1 0
8.1 1 0
8.4 1 0
8.7 1 0
9 1 0
9.3 1 0
9.6 1 0
9.9 1 0
10.2 1 0
10.5 1 0
10.8 1 0
11.1 1 0
11.4 1 0
11.7 1 0
12 1 0
12.3 1 0
12.6 1 0
12.9 1 0
13.2 1 0
13.5 1 0
13.8 1 0
14.1 1 0
14.4 1 0
14.7 1 0
15 1 0
15.3 1 0
15.6 1 0
15.9 1 0
16.2 1 0
16.5 1 0
16.8 1 0
17.1 1 0
17.4 1 0
17.7 1 0
18 1 0
18.3 1 0
18.6 1 0
18.9 1 0
19.2 1 0
19.5 1 0
19.8 1 0
20.1 1 0
20.4 1 0
20.7 1 0
21 1 0
21.3 1 0
21.6 1 0
21.9 1 0
22.2 1 0
22.5 1 0
22.8 1 0
23.1 1 0
23.4 1 0
23.7 1 0
24 1 0
24.3 1 0
24.6 1 0
24.9 1 0
25.2 1 0
25.5 1 0
25.8 1 0
26.1 1 0
26.4 1 0
26.7 1 0
27 1 0
27.3 1 0
27.6 1 0
27.9 1 0
28.2 1 0
28.5 1 0
28.8 1 0
29.1 1 0
29.4 1 0
29.7 1 0
30 1 0
30.3 1 0
0 1.1 0
0.3 1.1 0
0.6 1.1 0
0.9 1.1 0
1.2 1.1 0
1.5 1.1 0
1.8 1.1 0
2.1 1.1 0
2.4 1.1 0
2.7 1.1 0
3 1.1 0
3.3 1.1 0
3.6 1.1 0
3.9 1.1 0
4.2 1.1 0
4.5 1.1 0
4.8 1.1 0
5.1 1.1 0
5.4 1.1 0
5.7 1.1 0
6 1.1 0
6.3 1.1 0
6.6 1.1 0
6.9 1.1 0
7.2 1.1 0
7.5 1.1 0
7.8 1.1 0
8.1 1.1 0
8.4 1.1 0
8.7 1.1 0
9 1.1 0
9.3 1.1 0
9.6 1.1 0
9.9 1.1 0
10.2 1.1 0
10.5 1.1 0
10.8 1.1 0
11.1 1.1 0
11.4 1.1 0
11.7 1.1 0
12 1.1 0
12.3 1.1 0
12.6 1.1 0
12.9 1.1 0
13.2 1.1 0
13.5 1.1 0
13.8 1.1 0
14.1 1.1 0
14.4 1.1 0
14.7 1.1 0
15 1.1 0
15.3 1.1 0
15.6 1.1 0
15.9 1.1 0
16.2 1.1 0
16.5 1.1 0
16.8 1.1 0
17.1 1.1 0
17.4 1.1 0
17.7 1.1 0
18 1.1 0
18.3 1.1 0
18.6 1.1 0
18.9 1.1 0
19.2 1.1 0
19.5 1.1 0
19.8 1.1 0
20.1 1.1 0
20.4 1.1 0
20.7 1.1 0
21 1.1 0
21.3 1.1 0
21.6 1.1 0
21.9 1.1 0
22.2 1.1 0
22.5 1.1 0
22.8 1.1 0
23.1 1.1 0
23.4 1.1 0
23.7 1.1 0
24 1.1 0
24.3 1.1 0
24.6 1.1 0
24.9 1.1 0
25.2 1.1 0
25.5 1.1 0
25.8 1.1 0
26.1 1.1 0
26.4 1.1 0
26.7 1.1 0
27 1.1 0
27.3 1.1 0
27.6 1.1 0
27.9 1.1 0
28.2 1.1 0
28.5 1.1 0
28.8 1.1 0
29.1 1.1 0
29.4 1.1 0
29.7 1.1 0
30 1.1 0
30.3 1.1 0

POINT_DATA 1224

SCALARS pressure double
LOOKUP_TABLE pressure
1.31577
1.31577
1.24926
1.20218
1.15923
1.11957
1.08354
1.05116
1.02206
0.995722
0.971612
0.949261
0.928289
0.908406
0.889399
0.87111
0.85342
0.836239
0.819499
0.803148
0.787145
0.771454
0.756044
0.740891
0.725974
0.711273
0.696771
0.682452
0.668304
0.654313
0.640469
0.626759
0.613177
0.599711
0.586355
0.573102
0.559943
0.546873
0.533886
0.520977
0.50814
0.49537
0.482665
0.470018
0.457427
0.444888
0.432397
0.419952
0.40755
0.395188
0.382863
0.370573
0.358316
0.34609
0.333892
0.321722
0.309577
0.297456
0.285357
0.273279
0.261221
0.24918
0.237158
0.225151
0.213159
0.201182
0.189218
0.177266
0.165326
0.153397
0.141478
0.129569
0.117669
0.105777
0.0938931
0.0820168
0.0701475
0.0582847
0.046428
0.034577
0.0227315
0.010891
-0.000944772
-0.0127761
-0.0246033
-0.0364265
-0.0482461
-0.0600623
-0.0718752
-0.0836852
-0.0954923
-0.107297
-0.119099
-0.130898
-0.142696
-0.154491
-0.166285
-0.178077
-0.189866
-0.201655
-0.213442
0.213442
1.31577
1.31577
1.24926
1.20218
1.15923
1.11957
1.08354
1.05116
1.02206
0.995722
0.971612
0.949261
0.928289
0.908406
0.889399
0.87111
0.85342
0.836239
0.819499
0.803148
0.787145
0.771454
0.756044
0.740891
0.725974
0.711273
0.696771
0.682452
0.668304
0.654313
0.640469
0.626759
0.613177
0.599711
0.586355
0.573102
0.559943
0.546873
0.533886
0.520977
0.50814
0.49537
0.482665
0.470018
0.457427
0.444888
0.432397
0.419952
0.40755
0.395188
0.382863
0.370573
0.358316
0.34609
0.333892
0.321722
0.309577
0.297456
0.285357
0.273279
0.261221
0.24918
0.237158
0.225151
0.213159
0.201182
0.189218
0.177266
0.165326
0.153397
0.141478
0.129569
0.117669
0.105777
0.0938931
0.0820168
0.0701475
0.0582847
0.046428
0.034577
0.0227315
0.010891
-0.000944772
-0.0127761
-0.0246033
-0.0364265
-0.0482461
-0.0600623
-0.0718752
-0.0836852
-0.0954923
-0.107297
-0.119099
-0.130898
-0.142696
-0.154491
-0.166285
-0.178077
-0.189866
-0.201655
-0.213442
0.213442
1.29512
1.29512
1.24746
1.20249
1.15994
1.12034
1.08425
1.05175
1.02254
0.996092
0.971898
0.949482
0.928461
0.908543
0.889511
0.871202
0.853497
0.836305
0.819556
0.803199
0.78719
0.771494
0.75608
0.740924
0.726004
0.7113
0.696796
0.682475
0.668325
0.654332
0.640486
0.626776
0.613192
0.599725
0.586368
0.573114
0.559954
0.546883
0.533896
0.520986
0.508148
0.495378
0.482672
0.470025
0.457433
0.444894
0.432403
0.419957
0.407555
0.395192
0.382867
0.370577
0.35832
0.346093
0.333896
0.321725
0.30958
0.297459
0.285359
0.273281
0.261223
0.249183
0.237159
0.225153
0.213161
0.201183
0.189219
0.177267
0.165327
0.153398
0.141479
0.12957
0.11767
0.105778
0.093894
0.0820176
0.0701482
0.0582854
0.0464286
0.0345777
0.0227321
0.0108915
-0.000944256
-0.0127756
-0.0246028
-0.0364261
-0.0482457
-0.0600619
-0.0718749
-0.0836848
-0.095492
-0.107296
-0.119098
-0.130898
-0.142696
-0.154491
-0.166285
-0.178076
-0.189866
-0.201655
-0.213442
0.213442
1.28073
1.28073
1.24495
1.20288
1.16107
1.1216
1.08542
1.05275
1.02333
0.996699
0.972355
0.949823
0.928716
0.908737
0.889661
0.871321
0.853593
0.836383
0.819622
0.803255
0.787239
0.771536
0.756117
0.740957
0.726033
0.711326
0.696819
0.682497
0.668344
0.65435
0.640502
0.626791
0.613205
0.599738
0.58638
0.573124
0.559964
0.546892
0.533904
0.520993
0.508155
0.495385
0.482678
0.47003
0.457439
0.444899
0.432407
0.419962
0.407559
0.395196
0.38287
0.37058
0.358323
0.346096
0.333898
0.321727
0.309582
0.297461
0.285361
0.273283
0.261224
0.249184
0.237161
0.225154
0.213162
0.201185
0.18922
0.177268
0.165328
0.153399
0.14148
0.129571
0.11767
0.105779
0.0938947
0.0820183
0.0701488
0.0582859
0.0464292
0.0345782
0.0227325
0.010892
-0.000943842
-0.0127752
-0.0246024
-0.0364257
-0.0482454
-0.0600616
-0.0718746
-0.0836846
-0.0954917
-0.107296
-0.119098
-0.130898
-0.142695
-0.154491
-0.166284
-0.178076
-0.189866
-0.201654
-0.213438
0.213438
1.27204
1.27204
1.24294
1.20314
1.162
1.12268
1.08645
1.05364
1.02406
0.997278
0.972803
0.950167
0.928982
0.908945
0.889826
0.871454
0.853702
0.836475
0.8197
0.803322
0.787297
0.771587
0.756162
0.740997
0.726069
0.711358
0.696848
0.682523
0.668368
0.654372
0.640522
0.626808
0.613222
0.599753
0.586393
0.573137
0.559975
0.546903
0.533914
0.521002
0.508164
0.495393
0.482685
0.470037
0.457445
0.444904
0.432413
0.419967
0.407563
0.3952
0.382874
0.370584
0.358326
0.346099
0.333901
0.32173
0.309585
0.297463
0.285364
0.273285
0.261227
0.249186
0.237163
0.225156
0.213164
0.201186
0.189222
0.17727
0.165329
0.1534
0.141481
0.129572
0.117671
0.105779
0.0938955
0.082019
0.0701495
0.0582866
0.0464298
0.0345787
0.0227331
0.0108925
-0.000943364
-0.0127748
-0.024602
-0.0364253
-0.048245
-0.0600613
-0.0718743
-0.0836843
-0.0954914
-0.107296
-0.119098
-0.130898
-0.142695
-0.154491
-0.166284
-0.178076
-0.189866
-0.201653
-0.213433
0.213433
1.26796
1.26796
1.24186
1.20326
1.16249
1.12327
1.08702
1.05414
1.02447
0.997613
0.973067
0.950374
0.929146
0.909076
0.889932
0.871541
0.853775
0.836537
0.819754
0.803369
0.787338
0.771623
0.756195
0.741026
0.726095
0.711382
0.69687
0.682542
0.668386
0.654388
0.640537
0.626822
0.613234
0.599764
0.586404
0.573146
0.559984
0.546911
0.533921
0.521009
0.50817
0.495399
0.482691
0.470042
0.45745
0.444909
0.432417
0.419971
0.407567
0.395204
0.382878
0.370587
0.358329
0.346102
0.333904
0.321733
0.309587
0.297465
0.285366
0.273287
0.261228
0.249188
0.237164
0.225157
0.213165
0.201187
0.189223
0.177271
0.16533
0.153401
0.141482
0.129572
0.117672
0.10578
0.0938962
0.0820196
0.0701501
0.0582871
0.0464303
0.0345792
0.0227335
0.0108929
-0.000942985
-0.0127744
-0.0246017
-0.036425
-0.0482447
-0.060061
-0.071874
-0.083684
-0.0954912
-0.107296
-0.119098
-0.130898
-0.142695
-0.154491
-0.166284
-0.178076
-0.189865
-0.201652
-0.213428
0.213428
1.26796
1.26796
1.24186
1.20326
1.16249
1.12327
1.08702
1.05414
1.02447
0.997613
0.973067
0.950374
0.929146
0.909076
0.889932
0.871541
0.853775
0.836537
0.819754
0.803369
0.787338
0.771623
0.756195
0.741026
0.726095
0.711382
0.69687
0.682542
0.668386
0.654388
0.640537
0.626822
0.613234
0.599764
0.586404
0.573146
0.559984
0.546911
0.533921
0.521009
0.50817
0.495399
0.482691
0.470042
0.45745
0.444909
0.432417
0.419971
0.407567
0.395204
0.382878
0.370587
0.358329
0.346102
0.333904
0.321733
0.309587
0.297465
0.285366
0.273287
0.261228
0.249188
0.237164
0.225157
0.213165
0.201187
0.189223
0.177271
0.16533
0.153401
0.141482
0.129572
0.117672
0.10578
0.0938962
0.0820196
0.0701501
0.0582871
0.0464303
0.0345792
0.0227335
0.0108929
-0.000942985
-0.0127744
-0.0246017
-0.036425
-0.0482447
-0.060061
-0.071874
-0.083684
-0.0954912
-0.107296
-0.119098
-0.130898
-0.142695
-0.154491
-0.166284
-0.178076
-0.189865
-0.201652
-0.213428
0.213428
1.27204
1.27204
1.24294
1.20314
1.162
1.12268
1.08645
1.05364
1.02406
0.997279
0.972803
0.950167
0.928982
0.908946
0.889826
0.871454
0.853702
0.836475
0.8197
0.803322
0.787297
0.771587
0.756162
0.740997
0.726069
0.711358
0.696848
0.682523
0.668368
0.654372
0.640522
0.626808
0.613222
0.599753
0.586393
0.573137
0.559975
0.546903
0.533914
0.521002
0.508164
0.495393
0.482685
0.470037
0.457445
0.444904
0.432413
0.419967
0.407563
0.3952
0.382874
0.370584
0.358326
0.346099
0.333901
0.32173
0.309585
0.297463
0.285364
0.273285
0.261227
0.249186
0.237163
0.225156
0.213164
0.201186
0.189222
0.17727
0.165329
0.1534
0.141481
0.129572
0.117671
0.105779
0.0938955
0.082019
0.0701495
0.0582866
0.0464298
0.0345787
0.0227331
0.0108925
-0.000943365
-0.0127748
-0.024602
-0.0364253
-0.048245
-0.0600613
-0.0718743
-0.0836843
-0.0954914
-0.107296
-0.119098
-0.130898
-0.142695
-0.154491
-0.166284
-0.178076
-0.189866
-0.201653
-0.213433
0.213433
1.28073
1.28073
1.24495
1.20288
1.16107
1.1216
1.08542
1.05274
1.02333
0.9967
0.972354
0.949822
0.928716
0.908738
0.889661
0.871321
0.853592
0.836383
0.819622
0.803255
0.787239
0.771536
0.756117
0.740957
0.726033
0.711326
0.696819
0.682497
0.668344
0.65435
0.640502
0.626791
0.613205
0.599738
0.58638
0.573124
0.559964
0.546892
0.533904
0.520993
0.508155
0.495385
0.482678
0.47003
0.457439
0.444899
0.432407
0.419962
0.407559
0.395196
0.38287
0.37058
0.358323
0.346096
0.333898
0.321727
0.309582
0.297461
0.285361
0.273283
0.261224
0.249184
0.237161
0.225154
0.213162
0.201185
0.18922
0.177268
0.165328
0.153399
0.14148
0.129571
0.11767
0.105779
0.0938947
0.0820183
0.0701488
0.0582859
0.0464292
0.0345782
0.0227325
0.010892
-0.000943843
-0.0127752
-0.0246024
-0.0364257
-0.0482454
-0.0600616
-0.0718746
-0.0836846
-0.0954917
-0.107296
-0.119098
-0.130898
-0.142695
-0.154491
-0.166284
-0.178076
-0.189866
-0.201654
-0.213438
0.213438
1.29512
1.29512
1.24746
1.20249
1.15994
1.12034
1.08425
1.05175
1.02254
0.996093
0.971898
0.949481
0.928461
0.908543
0.889511
0.871202
0.853497
0.836304
0.819556
0.803199
0.78719
0.771494
0.75608
0.740924
0.726004
0.7113
0.696795
0.682475
0.668325
0.654332
0.640486
0.626776
0.613192
0.599725
0.586368
0.573114
0.559954
0.546883
0.533896
0.520986
0.508148
0.495378
0.482672
0.470025
0.457433
0.444894
0.432403
0.419957
0.407555
0.395192
0.382867
0.370577
0.35832
0.346093
0.333896
0.321725
0.30958
0.297459
0.285359
0.273281
0.261223
0.249183
0.237159
0.225153
0.213161
0.201183
0.189219
0.177267
0.165327
0.153398
0.141479
0.12957
0.11767
0.105778
0.093894
0.0820176
0.0701482
0.0582854
0.0464286
0.0345777
0.0227321
0.0108915
-0.000944256
-0.0127756
-0.0246028
-0.0364261
-0.0482457
-0.0600619
-0.0718749
-0.0836848
-0.095492
-0.107296
-0.119098
-0.130898
-0.142696
-0.154491
-0.166285
-0.178076
-0.189866
-0.201655
-0.213442
0.213442
1.31577
1.31577
1.24926
1.20218
1.15922
1.11957
1.08355
1.05116
1.02206
0.995723
0.971613
0.94926
0.928288
0.908406
0.8894
0.87111
0.853419
0.836238
0.819499
0.803149
0.787145
0.771453
0.756044
0.740891
0.725974
0.711273
0.696771
0.682452
0.668304
0.654313
0.640468
0.626759
0.613177
0.599711
0.586355
0.573102
0.559943
0.546873
0.533886
0.520977
0.50814
0.49537
0.482665
0.470018
0.457427
0.444888
0.432397
0.419952
0.40755
0.395188
0.382863
0.370573
0.358316
0.34609
0.333892
0.321722
0.309577
0.297456
0.285357
0.273279
0.261221
0.24918
0.237158
0.225151
0.213159
0.201182
0.189218
0.177266
0.165326
0.153397
0.141478
0.129569
0.117669
0.105777
0.0938931
0.0820168
0.0701475
0.0582847
0.046428
0.034577
0.0227315
0.010891
-0.000944772
-0.0127761
-0.0246033
-0.0364265
-0.0482461
-0.0600623
-0.0718752
-0.0836852
-0.0954923
-0.107297
-0.119099
-0.130898
-0.142696
-0.154491
-0.166285
-0.178077
-0.189866
-0.201655
-0.213442
0.213442
1.31577
1.31577
1.24926
1.20218
1.15922
1.11957
1.08355
1.05116
1.02206
0.995723
0.971613
0.94926
0.928288
0.908406
0.8894
0.87111
0.853419
0.836238
0.819499
0.803149
0.787145
0.771453
0.756044
0.740891
0.725974
0.711273
0.696771
0.682452
0.668304
0.654313
0.640468
0.626759
0.613177
0.599711
0.586355
0.573102
0.559943
0.546873
0.533886
0.520977
0.50814
0.49537
0.482665
0.470018
0.457427
0.444888
0.432397
0.419952
0.40755
0.395188
0.382863
0.370573
0.358316
0.34609
0.333892
0.321722
0.309577
0.297456
0.285357
0.273279
0.261221
0.24918
0.237158
0.225151
0.213159
0.201182
0.189218
0.177266
0.165326
0.153397
0.141478
0.129569
0.117669
0.105777
0.0938931
0.0820168
0.0701475
0.0582847
0.046428
0.034577
0.0227315
0.010891
-0.000944772
-0.0127761
-0.0246033
-0.0364265
-0.0482461
-0.0600623
-0.0718752
-0.0836852
-0.0954923
-0.107297
-0.119099
-0.130898
-0.142696
-0.154491
-0.166285
-0.178077
-0.189866
-0.201655
-0.213442
0.213442
SCALARS phi double
LOOKUP_TABLE phi
1
1
1
0.999995
0.999977
0.999931
0.999833
0.999655
0.999364
0.998929
0.998323
0.997523
0.996512
0.995279
0.993815
0.992118
0.990189
0.988032
0.985653
0.983059
0.980261
0.97727
0.974097
0.970755
0.967257
0.963614
0.95984
0.955947
0.951946
0.94785
0.943668
0.939412
0.935091
0.930712
0.92628
0.921799
0.917265
0.912673
0.908009
0.903258
0.898397
0.893399
0.888234
0.882871
0.877276
0.871415
0.865256
0.858769
0.851926
0.844705
0.837085
0.829053
0.820598
0.811714
0.802402
0.792665
0.782512
0.771954
0.761006
0.749687
0.738018
0.726023
0.713725
0.701151
0.688327
0.675282
0.662042
0.648637
0.635092
0.621435
0.607691
0.593887
0.580046
0.566191
0.552344
0.538527
0.524758
0.511055
0.497437
0.483917
0.470511
0.457232
0.444091
0.4311
0.418268
0.405604
0.393115
0.380808
0.368689
0.356763
0.345033
0.333504
0.322178
0.311058
0.300143
0.289442
0.278927
0.268698
0.258413
0.249259
0.237026
0.237026
1
1
1
0.999995
0.999977
0.999931
0.999833
0.999655
0.999364
0.998929
0.998323
0.997523
0.996512
0.995279
0.993815
0.992118
0.990189
0.988032
0.985653
0.983059
0.980261
0.97727
0.974097
0.970755
0.967257
0.963614
0.95984
0.955947
0.951946
0.94785
0.943668
0.939412
0.935091
0.930712
0.92628
0.921799
0.917265
0.912673
0.908009
0.903258
0.898397
0.893399
0.888234
0.882871
0.877276
0.871415
0.865256
0.858769
0.851926
0.844705
0.837085
0.829053
0.820598
0.811714
0.802402
0.792665
0.782512
0.771954
0.761006
0.749687
0.738018
0.726023
0.713725
0.701151
0.688327
0.675282
0.662042
0.648637
0.635092
0.621435
0.607691
0.593887
0.580046
0.566191
0.552344
0.538527
0.524758
0.511055
0.497437
0.483917
0.470511
0.457232
0.444091
0.4311
0.418268
0.405604
0.393115
0.380808
0.368689
0.356763
0.345033
0.333504
0.322178
0.311058
0.300143
0.289442
0.278927
0.268698
0.258413
0.249259
0.237026
0.237026
0.999998
1
0.999984
0.999921
0.999783
0.999536
0.999146
0.99858
0.997812
0.996819
0.99559
0.994116
0.992398
0.990437
0.98824
0.985817
0.983177
0.980333
0.977297
0.974081
0.9707
0.967166
0.963491
0.95969
0.955773
0.951752
0.947639
0.943445
0.939179
0.93485
0.930469
0.926043
0.921579
0.917086
0.91257
0.908034
0.903482
0.898915
0.894331
0.889725
0.885089
0.880412
0.875679
0.870871
0.865969
0.860949
0.855788
0.85046
0.84494
0.839205
0.833229
0.826993
0.820476
0.813663
0.806539
0.799094
0.79132
0.783213
0.774773
0.766002
0.756904
0.747486
0.73776
0.727738
0.717433
0.706861
0.696039
0.684986
0.67372
0.662262
0.65063
0.638846
0.626929
0.614899
0.602776
0.590579
0.578326
0.566036
0.553726
0.541413
0.529111
0.516837
0.504603
0.492424
0.480312
0.468277
0.456331
0.444483
0.432742
0.421116
0.409613
0.398238
0.386999
0.3759
0.364943
0.354144
0.343466
0.333047
0.322439
0.313146
0.30016
0.30016
1.00001
0.999992
0.99954
0.998615
0.997207
0.995317
0.992955
0.990145
0.986922
0.983332
0.979422
0.975241
0.970836
0.966248
0.961513
0.956664
0.951728
0.946728
0.941682
0.936608
0.931519
0.926427
0.921341
0.916268
0.911216
0.906189
0.901194
0.896232
0.891307
0.886422
0.881579
0.87678
0.872025
0.867316
0.862654
0.858039
0.853472
0.848951
0.844476
0.840045
0.835654
0.831299
0.826975
0.822673
0.818386
0.814102
0.809809
0.805493
0.801141
0.796735
0.792259
0.787697
0.783031
0.778244
0.773321
0.768246
0.763004
0.757583
0.75197
0.746155
0.74013
0.733888
0.727425
0.720737
0.713822
0.706681
0.699317
0.691731
0.68393
0.675919
0.667705
0.659297
0.650703
0.641934
0.633
0.623912
0.614681
0.605319
0.595839
0.58625
0.576567
0.5668
0.55696
0.547061
0.537111
0.527123
0.517107
0.507073
0.497031
0.486989
0.476956
0.466941
0.456951
0.446995
0.437075
0.427213
0.417366
0.407693
0.397705
0.388997
0.37647
0.37647
1.00143
0.99857
0.991252
0.98188
0.971566
0.96086
0.950051
0.939311
0.928756
0.918468
0.908503
0.898898
0.889671
0.880827
0.87236
0.864261
0.856513
0.849098
0.841997
0.835192
0.828664
0.822396
0.816369
0.810568
0.80498
0.799588
0.794382
0.789348
0.784477
0.779758
0.775181
0.770738
0.766422
0.762224
0.758139
0.754159
0.75028
0.746495
0.742799
0.739188
0.735657
0.732201
0.728815
0.725495
0.722233
0.719026
0.715866
0.712746
0.709659
0.706597
0.70355
0.700511
0.697467
0.694411
0.691329
0.688212
0.685049
0.681829
0.67854
0.675172
0.671714
0.668157
0.664491
0.660709
0.656801
0.65276
0.648582
0.644259
0.639788
0.635165
0.630387
0.625452
0.62036
0.615111
0.609704
0.604141
0.598425
0.592558
0.586543
0.580384
0.574086
0.567652
0.561089
0.5544
0.547592
0.540671
0.533641
0.52651
0.519283
0.511966
0.504565
0.497086
0.489535
0.481918
0.474237
0.466512
0.458702
0.450956
0.442829
0.435737
0.42526
0.42526
1.0456
0.954401
0.887723
0.838674
0.801641
0.772861
0.749886
0.731119
0.715499
0.702298
0.691001
0.681228
0.672693
0.665173
0.658493
0.652515
0.647126
0.642236
0.637772
0.633673
0.629891
0.626382
0.623115
0.620059
0.61719
0.614489
0.611936
0.609518
0.607221
0.605034
0.602947
0.60095
0.599038
0.597202
0.595437
0.593737
0.592097
0.590514
0.588983
0.5875
0.586063
0.584668
0.583313
0.581994
0.58071
0.579456
0.578231
0.577032
0.575856
0.574699
0.573558
0.572429
0.571309
0.570192
0.569075
0.567952
0.566818
0.565667
0.564493
0.563291
0.562054
0.560775
0.559449
0.558068
0.556626
0.555116
0.553533
0.55187
0.55012
0.548279
0.546341
0.5443
0.542152
0.539892
0.537516
0.535021
0.532402
0.529658
0.526785
0.523782
0.520646
0.517377
0.513973
0.510434
0.506758
0.502947
0.499001
0.494919
0.490703
0.486354
0.481873
0.477262
0.472522
0.467655
0.462661
0.457553
0.452296
0.447007
0.441337
0.436369
0.428786
0.428786
-0.0455988
0.0455988
0.112277
0.161326
0.198359
0.227139
0.250114
0.268881
0.284501
0.297702
0.308999
0.318772
0.327307
0.334827
0.341507
0.347485
0.352874
0.357764
0.362228
0.366326
0.370109
0.373617
0.376885
0.379941
0.38281
0.385511
0.388064
0.390482
0.392779
0.394966
0.397053
0.39905
0.400962
0.402798
0.404563
0.406263
0.407903
0.409486
0.411017
0.412499
0.413936
0.41533
0.416684
0.418001
0.419281
0.420528
0.421743
0.422928
0.424083
0.425209
0.426308
0.427379
0.428424
0.429441
0.430431
0.431393
0.432326
0.433229
0.4341
0.434937
0.435739
0.436502
0.437224
0.437902
0.438533
0.439112
0.439637
0.440102
0.440505
0.440839
0.441102
0.441288
0.441392
0.441411
0.441338
0.441169
0.4409
0.440525
0.44004
0.43944
0.438722
0.43788
0.43691
0.435808
0.434571
0.433196
0.431677
0.430013