# vtk DataFile Version 3.0
FlowField
ASCII
DATASET STRUCTURED_GRID
DIMENSIONS 22 17 12 
POINTS 4488 double
0 0 0
0.1 0 0
0.2 0 0
0.3 0 0
0.4 0 0
0.5 0 0
0.6 0 0
0.7 0 0
0.8 0 0
0.9 0 0
1 0 0
1.1 0 0
1.2 0 0
1.3 0 0
1.4 0 0
1.5 0 0
1.6 0 0
1.7 0 0
1.8 0 0
1.9 0 0
2 0 0
2.1 0 0
0 0.1 0
0.1 0.1 0
0.2 0.1 0
0.3 0.1 0
0.4 0.1 0
0.5 0.1 0
0.6 0.1 0
0.7 0.1 0
0.8 0.1 0
0.9 0.1 0
1 0.1 0
1.1 0.1 0
1.2 0.1 0
1.3 0.1 0
1.4 0.1 0
1.5 0.1 0
1.6 0.1 0
1.7 0.1 0
1.8 0.1 0
1.9 0.1 0
2 0.1 0
2.1 0.1 0
0 0.2 0
0.1 0.2 0
0.2 0.2 0
0.3 0.2 0
0.4 0.2 0
0.5 0.2 0
0.6 0.2 0
0.7 0.2 0
0.8 0.2 0
0.9 0.2 0
1 0.2 0
1.1 0.2 0
1.2 0.2 0
1.3 0.2 0
1.4 0.2 0
1.5 0.2 0
1.6 0.2 0
1.7 0.2 0
1.8 0.2 0
1.9 0.2 0
2 0.2 0
2.1 0.2 0
0 0.3 0
0.1 0.3 0
0.2 0.3 0
0.3 0.3 0
0.4 0.3 0
0.5 0.3 0
0.6 0.3 0
0.7 0.3 0
0.8 0.3 0
0.9 0.3 0
1 0.3 0
1.1 0.3 0
1.2 0.3 0
1.3 0.3 0
1.4 0.3 0
1.5 0.3 0
1.6 0.3 0
1.7 0.3 0
1.8 0.3 0
1.9 0.3 0
2 0.3 0
2.1 0.3 0
0 0.4 0
0.1 0.4 0
0.2 0.4 0
0.3 0.4 0
0.4 0.4 0
0.5 0.4 0
0.6 0.4 0
0.7 0.4 0
0.8 0.4 0
0.9 0.4 0
1 0.4 0
1.1 0.4 0
1.2 0.4 0
1.3 0.4 0
1.4 0.4 0
1.5 0.4 0
1.6 0.4 0
1.7 0.4 0
1.8 0.4 0
1.9 0.4 0
2 0.4 0
2.1 0.4 0
0 0.5 0
0.1 0.5 0
0.2 0.5 0
0.3 0.5 0
0.4 0.5 0
0.5 0.5 0
0.6 0.5 0
0.7 0.5 0
0.8 0.5 0
0.9 0.5 0
1 0.5 0
1.1 0.5 0
1.2 0.5 0
1.3 0.5 0
1.4 0.5 0
1.5 0.5 0
1.6 0.5 0
1.7 0.5 0
1.8 0.5 0
1.9 0.5 0
2 0.5 0
2.1 0.5 0
0 0.6 0
0.1 0.6 0
0.2 0.6 0
0.3 0.6 0
0.4 0.6 0
0.5 0.6 0
0.6 0.6 0
0.7 0.6 0
0.8 0.6 0
0.9 0.6 0
1 0.6 0
1.1 0.6 0
1.2 0.6 0
1.3 0.6 0
1.4 0.6 0
1.5 0.6 0
1.6 0.6 0
1.7 0.6 0
1.8 0.6 0
1.9 0.6 0
2 0.6 0
2.1 0.6 0
0 0.7 0
0.1 0.7 0
0.2 0.7 0
0.3 0.7 0
0.4 0.7 0
0.5 0.7 0
0.6 0.7 0
0.7 0.7 0
0.8 0.7 0
0.9 0.7 0
1 0.7 0
1.1 0.7 0
1.2 0.7 0
1.3 0.7 0
1.4 0.7 0
1.5 0.7 0
1.6 0.7 0
1.7 0.7 0
1.8 0.7 0
1.9 0.7 0
2 0.7 0
2.1 0.7 0
0 0.8 0
0.1 0.8 0
0.2 0.8 0
0.3 0.8 0
0.4 0.8 0
0.5 0.8 0
0.6 0.8 0
0.7 0.8 0
0.8 0.8 0
0.9 0.8 0
1 0.8 0
1.1 0.8 0
1.2 0.8 0
1.3 0.8 0
1.4 0.8 0
1.5 0.8 0
1.6 0.8 0
1.7 0.8 0
1.8 0.8 0
1.9 0.8 0
2 0.8 0
2.1 0.8 0
0 0.9 0
0.1 0.9 0
0.2 0.9 0
0.3 0.9 0
0.4 0.9 0
0.5 0.9 0
0.6 0.9 0
0.7 0.9 0
0.8 0.9 0
0.9 0.9 0
1 0.9 0
1.1 0.9 0
1.2 0.9 0
1.3 0.9 0
1.4 0.9 0
1.5 0.9 0
1.6 0.9 0
1.7 0.9 0
1.8 0.9 0
1.9 0.9 0
2 0.9 0
2.1 0.9 0
0 1 0
0.1 1 0
0.2 1 0
0.3 1 0
0.4 1 0
0.5 1 0
0.6 1 0
0.7 1 0
0.8 1 0
0.9 1 0
1 1 0
1.1 1 0
1.2 1 0
1.3 1 0
1.4 1 0
1.5 1 0
1.6 1 0
1.7 1 0
1.8 1 0
1.9 1 0
2 1 0
2.1 1 0
0 1.1 0
0.1 1.1 0
0.2 1.1 0
0.3 1.1 0
0.4 1.1 0
0.5 1.1 0
0.6 1.1 0
0.7 1.1 0
0.8 1.1 0
0.9 1.1 0
1 1.1 0
1.1 1.1 0
1.2 1.1 0
1.3 1.1 0
1.4 1.1 0
1.5 1.1 0
1.6 1.1 0
1.7 1.1 0
1.8 1.1 0
1.9 1.1 0
2 1.1 0
2.1 1.1 0
0 1.2 0
0.1 1.2 0
0.2 1.2 0
0.3 1.2 0
0.4 1.2 0
0.5 1.2 0
0.6 1.2 0
0.7 1.2 0
0.8 1.2 0
0.9 1.2 0
1 1.2 0
1.1 1.2 0
1.2 1.2 0
1.3 1.2 0
1.4 1.2 0
1.5 1.2 0
1.6 1.2 0
1.7 1.2 0
1.8 1.2 0
1.9 1.2 0
2 1.2 0
2.1 1.2 0
0 1.3 0
0.1 1.3 0
0.2 1.3 0
0.3 1.3 0
0.4 1.3 0
0.5 1.3 0
0.6 1.3 0
0.7 1.3 0
0.8 1.3 0
0.9 1.3 0
1 1.3 0
1.1 1.3 0
1.2 1.3 0
1.3 1.3 0
1.4 1.3 0
1.5 1.3 0
1.6 1.3 0
1.7 1.3 0
1.8 1.3 0
1.9 1.3 0
2 1.3 0
2.1 1.3 0
0 1.4 0
0.1 1.4 0
0.2 1.4 0
0.3 1.4 0
0.4 1.4 0
0.5 1.4 0
0.6 1.4 0
0.7 1.4 0
0.8 1.4 0
0.9 1.4 0
1 1.4 0
1.1 1.4 0
1.2 1.4 0
1.3 1.4 0
1.4 1.4 0
1.5 1.4 0
1.6 1.4 0
1.7 1.4 0
1.8 1.4 0
1.9 1.4 0
2 1.4 0
2.1 1.4 0
0 1.5 0
0.1 1.5 0
0.2 1.5 0
0.3 1.5 0
0.4 1.5 0
0.5 1.5 0
0.6 1.5 0
0.7 1.5 0
0.8 1.5 0
0.9 1.5 0
1 1.5 0
1.1 1.5 0
1.2 1.5 0
1.3 1.5 0
1.4 1.5 0
1.5 1.5 0
1.6 1.5 0
1.7 1.5 0
1.8 1.5 0
1.9 1.5 0
2 1.5 0
2.1 1.5 0
0 1.6 0
0.1 1.6 0
0.2 1.6 0
0.3 1.6 0
0.4 1.6 0
0.5 1.6 0
0.6 1.6 0
0.7 1.6 0
0.8 1.6 0
0.9 1.6 0
1 1.6 0
1.1 1.6 0
1.2 1.6 0
1.3 1.6 0
1.4 1.6 0
1.5 1.6 0
1.6 1.6 0
1.7 1.6 0
1.8 1.6 0
1.9 1.6 0
2 1.6 0
2.1 1.6 0
0 0 0.1
0.1 0 0.1
0.2 0 0.1
0.3 0 0.1
0.4 0 0.1
0.5 0 0.1
0.6 0 0.1
0.7 0 0.1
0.8 0 0.1
0.9 0 0.1
1 0 0.1
1.1 0 0.1
1.2 0 0.1
1.3 0 0.1
1.4 0 0.1
1.5 0 0.1
1.6 0 0.1
1.7 0 0.1
1.8 0 0.1
1.9 0 0.1
2 0 0.1
2.1 0 0.1
0 0.1 0.1
0.1 0.1 0.1
0.2 0.1 0.1
0.3 0.1 0.1
0.4 0.1 0.1
0.5 0.1 0.1
0.6 0.1 0.1
0.7 0.1 0.1
0.8 0.1 0.1
0.9 0.1 0.1
1 0.1 0.1
1.1 0.1 0.1
1.2 0.1 0.1
1.3 0.1 0.1
1.4 0.1 0.1
1.5 0.1 0.1
1.6 0.1 0.1
1.7 0.1 0.1
1.8 0.1 0.1
1.9 0.1 0.1
2 0.1 0.1
2.1 0.1 0.1
0 0.2 0.1
0.1 0.2 0.1
0.2 0.2 0.1
0.3 0.2 0.1
0.4 0.2 0.1
0.5 0.2 0.1
0.6 0.2 0.1
0.7 0.2 0.1
0.8 0.2 0.1
0.9 0.2 0.1
1 0.2 0.1
1.1 0.2 0.1
1.2 0.2 0.1
1.3 0.2 0.1
1.4 0.2 0.1
1.5 0.2 0.1
1.6 0.2 0.1
1.7 0.2 0.1
1.8 0.2 0.1
1.9 0.2 0.1
2 0.2 0.1
2.1 0.2 0.1
0 0.3 0.1
0.1 0.3 0.1
0.2 0.3 0.1
0.3 0.3 0.1
0.4 0.3 0.1
0.5 0.3 0.1
0.6 0.3 0.1
0.7 0.3 0.1
0.8 0.3 0.1
0.9 0.3 0.1
1 0.3 0.1
1.1 0.3 0.1
1.2 0.3 0.1
1.3 0.3 0.1
1.4 0.3 0.1
1.5 0.3 0.1
1.6 0.3 0.1
1.7 0.3 0.1
1.8 0.3 0.1
1.9 0.3 0.1
2 0.3 0.1
2.1 0.3 0.1
0 0.4 0.1
0.1 0.4 0.1
0.2 0.4 0.1
0.3 0.4 0.1
0.4 0.4 0.1
0.5 0.4 0.1
0.6 0.4 0.1
0.7 0.4 0.1
0.8 0.4 0.1
0.9 0.4 0.1
1 0.4 0.1
1.1 0.4 0.1
1.2 0.4 0.1
1.3 0.4 0.1
1.4 0.4 0.1
1.5 0.4 0.1
1.6 0.4 0.1
1.7 0.4 0.1
1.8 0.4 0.1
1.9 0.4 0.1
2 0.4 0.1
2.1 0.4 0.1
0 0.5 0.1
0.1 0.5 0.1
0.2 0.5 0.1
0.3 0.5 0.1
0.4 0.5 0.1
0.5 0.5 0.1
0.6 0.5 0.1
0.7 0.5 0.1
0.8 0.5 0.1
0.9 0.5 0.1
1 0.5 0.1
1.1 0.5 0.1
1.2 0.5 0.1
1.3 0.5 0.1
1.4 0.5 0.1
1.5 0.5 0.1
1.6 0.5 0.1
1.7 0.5 0.1
1.8 0.5 0.1
1.9 0.5 0.1
2 0.5 0.1
2.1 0.5 0.1
0 0.6 0.1
0.1 0.6 0.1
0.2 0.6 0.1
0.3 0.6 0.1
0.4 0.6 0.1
0.5 0.6 0.1
0.6 0.6 0.1
0.7 0.6 0.1
0.8 0.6 0.1
0.9 0.6 0.1
1 0.6 0.1
1.1 0.6 0.1
1.2 0.6 0.1
1.3 0.6 0.1
1.4 0.6 0.1
1.5 0.6 0.1
1.6 0.6 0.1
1.7 0.6 0.1
1.8 0.6 0.1
1.9 0.6 0.1
2 0.6 0.1
2.1 0.6 0.1
0 0.7 0.1
0.1 0.7 0.1
0.2 0.7 0.1
0.3 0.7 0.1
0.4 0.7 0.1
0.5 0.7 0.1
0.6 0.7 0.1
0.7 0.7 0.1
0.8 0.7 0.1
0.9 0.7 0.1
1 0.7 0.1
1.1 0.7 0.1
1.2 0.7 0.1
1.3 0.7 0.1
1.4 0.7 0.1
1.5 0.7 0.1
1.6 0.7 0.1
1.7 0.7 0.1
1.8 0.7 0.1
1.9 0.7 0.1
2 0.7 0.1
2.1 0.7 0.1
0 0.8 0.1
0.1 0.8 0.1
0.2 0.8 0.1
0.3 0.8 0.1
0.4 0.8 0.1
0.5 0.8 0.1
0.6 0.8 0.1
0.7 0.8 0.1
0.8 0.8 0.1
0.9 0.8 0.1
1 0.8 0.1
1.1 0.8 0.1
1.2 0.8 0.1
1.3 0.8 0.1
1.4 0.8 0.1
1.5 0.8 0.1
1.6 0.8 0.1
1.7 0.8 0.1
1.8 0.8 0.1
1.9 0.8 0.1
2 0.8 0.1
2.1 0.8 0.1
0 0.9 0.1
0.1 0.9 0.1
0.2 0.9 0.1
0.3 0.9 0.1
0.4 0.9 0.1
0.5 0.9 0.1
0.6 0.9 0.1
0.7 0.9 0.1
0.8 0.9 0.1
0.9 0.9 0.1
1 0.9 0.1
1.1 0.9 0.1
1.2 0.9 0.1
1.3 0.9 0.1
1.4 0.9 0.1
1.5 0.9 0.1
1.6 0.9 0.1
1.7 0.9 0.1
1.8 0.9 0.1
1.9 0.9 0.1
2 0.9 0.1
2.1 0.9 0.1
0 1 0.1
0.1 1 0.1
0.2 1 0.1
0.3 1 0.1
0.4 1 0.1
0.5 1 0.1
0.6 1 0.1
0.7 1 0.1
0.8 1 0.1
0.9 1 0.1
1 1 0.1
1.1 1 0.1
1.2 1 0.1
1.3 1 0.1
1.4 1 0.1
1.5 1 0.1
1.6 1 0.1
1.7 1 0.1
1.8 1 0.1
1.9 1 0.1
2 1 0.1
2.1 1 0.1
0 1.1 0.1
0.1 1.1 0.1
0.2 1.1 0.1
0.3 1.1 0.1
0.4 1.1 0.1
0.5 1.1 0.1
0.6 1.1 0.1
0.7 1.1 0.1
0.8 1.1 0.1
0.9 1.1 0.1
1 1.1 0.1
1.1 1.1 0.1
1.2 1.1 0.1
1.3 1.1 0.1
1.4 1.1 0.1
1.5 1.1 0.1
1.6 1.1 0.1
1.7 1.1 0.1
1.8 1.1 0.1
1.9 1.1 0.1
2 1.1 0.1
2.1 1.1 0.1
0 1.2 0.1
0.1 1.2 0.1
0.2 1.2 0.1
0.3 1.2 0.1
0.4 1.2 0.1
0.5 1.2 0.1
0.6 1.2 0.1
0.7 1.2 0.1
0.8 1.2 0.1
0.9 1.2 0.1
1 1.2 0.1
1.1 1.2 0.1
1.2 1.2 0.1
1.3 1.2 0.1
1.4 1.2 0.1
1.5 1.2 0.1
1.6 1.2 0.1
1.7 1.2 0.1
1.8 1.2 0.1
1.9 1.2 0.1
2 1.2 0.1
2.1 1.2 0.1
0 1.3 0.1
0.1 1.3 0.1
0.2 1.3 0.1
0.3 1.3 0.1
0.4 1.3 0.1
0.5 1.3 0.1
0.6 1.3 0.1
0.7 1.3 0.1
0.8 1.3 0.1
0.9 1.3 0.1
1 1.3 0.1
1.1 1.3 0.1
1.2 1.3 0.1
1.3 1.3 0.1
1.4 1.3 0.1
1.5 1.3 0.1
1.6 1.3 0.1
1.7 1.3 0.1
1.8 1.3 0.1
1.9 1.3 0.1
2 1.3 0.1
2.1 1.3 0.1
0 1.4 0.1
0.1 1.4 0.1
0.2 1.4 0.1
0.3 1.4 0.1
0.4 1.4 0.1
0.5 1.4 0.1
0.6 1.4 0.1
0.7 1.4 0.1
0.8 1.4 0.1
0.9 1.4 0.1
1 1.4 0.1
1.1 1.4 0.1
1.2 1.4 0.1
1.3 1.4 0.1
1.4 1.4 0.1
1.5 1.4 0.1
1.6 1.4 0.1
1.7 1.4 0.1
1.8 1.4 0.1
1.9 1.4 0.1
2 1.4 0.1
2.1 1.4 0.1
0 1.5 0.1
0.1 1.5 0.1
0.2 1.5 0.1
0.3 1.5 0.1
0.4 1.5 0.1
0.5 1.5 0.1
0.6 1.5 0.1
0.7 1.5 0.1
0.8 1.5 0.1
0.9 1.5 0.1
1 1.5 0.1
1.1 1.5 0.1
1.2 1.5 0.1
1.3 1.5 0.1
1.4 1.5 0.1
1.5 1.5 0.1
1.6 1.5 0.1
1.7 1.5 0.1
1.8 1.5 0.1
1.9 1.5 0.1
2 1.5 0.1
2.1 1.5 0.1
0 1.6 0.1
0.1 1.6 0.1
0.2 1.6 0.1
0.3 1.6 0.1
0.4 1.6 0.1
0.5 1.6 0.1
0.6 1.6 0.1
0.7 1.6 0.1
0.8 1.6 0.1
0.9 1.6 0.1
1 1.6 0.1
1.1 1.6 0.1
1.2 1.6 0.1
1.3 1.6 0.1
1.4 1.6 0.1
1.5 1.6 0.1
1.6 1.6 0.1
1.7 1.6 0.1
1.8 1.6 0.1
1.9 1.6 0.1
2 1.6 0.1
2.1 1.6 0.1
0 0 0.2
0.1 0 0.2
0.2 0 0.2
0.3 0 0.2
0.4 0 0.2
0.5 0 0.2
0.6 0 0.2
0.7 0 0.2
0.8 0 0.2
0.9 0 0.2
1 0 0.2
1.1 0 0.2
1.2 0 0.2
1.3 0 0.2
1.4 0 0.2
1.5 0 0.2
1.6 0 0.2
1.7 0 0.2
1.8 0 0.2
1.9 0 0.2
2 0 0.2
2.1 0 0.2
0 0.1 0.2
0.1 0.1 0.2
0.2 0.1 0.2
0.3 0.1 0.2
0.4 0.1 0.2
0.5 0.1 0.2
0.6 0.1 0.2
0.7 0.1 0.2
0.8 0.1 0.2
0.9 0.1 0.2
1 0.1 0.2
1.1 0.1 0.2
1.2 0.1 0.2
1.3 0.1 0.2
1.4 0.1 0.2
1.5 0.1 0.2
1.6 0.1 0.2
1.7 0.1 0.2
1.8 0.1 0.2
1.9 0.1 0.2
2 0.1 0.2
2.1 0.1 0.2
0 0.2 0.2
0.1 0.2 0.2
0.2 0.2 0.2
0.3 0.2 0.2
0.4 0.2 0.2
0.5 0.2 0.2
0.6 0.2 0.2
0.7 0.2 0.2
0.8 0.2 0.2
0.9 0.2 0.2
1 0.2 0.2
1.1 0.2 0.2
1.2 0.2 0.2
1.3 0.2 0.2
1.4 0.2 0.2
1.5 0.2 0.2
1.6 0.2 0.2
1.7 0.2 0.2
1.8 0.2 0.2
1.9 0.2 0.2
2 0.2 0.2
2.1 0.2 0.2
0 0.3 0.2
0.1 0.3 0.2
0.2 0.3 0.2
0.3 0.3 0.2
0.4 0.3 0.2
0.5 0.3 0.2
0.6 0.3 0.2
0.7 0.3 0.2
0.8 0.3 0.2
0.9 0.3 0.2
1 0.3 0.2
1.1 0.3 0.2
1.2 0.3 0.2
1.3 0.3 0.2
1.4 0.3 0.2
1.5 0.3 0.2
1.6 0.3 0.2
1.7 0.3 0.2
1.8 0.3 0.2
1.9 0.3 0.2
2 0.3 0.2
2.1 0.3 0.2
0 0.4 0.2
0.1 0.4 0.2
0.2 0.4 0.2
0.3 0.4 0.2
0.4 0.4 0.2
0.5 0.4 0.2
0.6 0.4 0.2
0.7 0.4 0.2
0.8 0.4 0.2
0.9 0.4 0.2
1 0.4 0.2
1.1 0.4 0.2
1.2 0.4 0.2
1.3 0.4 0.2
1.4 0.4 0.2
1.5 0.4 0.2
1.6 0.4 0.2
1.7 0.4 0.2
1.8 0.4 0.2
1.9 0.4 0.2
2 0.4 0.2
2.1 0.4 0.2
0 0.5 0.2
0.1 0.5 0.2
0.2 0.5 0.2
0.3 0.5 0.2
0.4 0.5 0.2
0.5 0.5 0.2
0.6 0.5 0.2
0.7 0.5 0.2
0.8 0.5 0.2
0.9 0.5 0.2
1 0.5 0.2
1.1 0.5 0.2
1.2 0.5 0.2
1.3 0.5 0.2
1.4 0.5 0.2
1.5 0.5 0.2
1.6 0.5 0.2
1.7 0.5 0.2
1.8 0.5 0.2
1.9 0.5 0.2
2 0.5 0.2
2.1 0.5 0.2
0 0.6 0.2
0.1 0.6 0.2
0.2 0.6 0.2
0.3 0.6 0.2
0.4 0.6 0.2
0.5 0.6 0.2
0.6 0.6 0.2
0.7 0.6 0.2
0.8 0.6 0.2
0.9 0.6 0.2
1 0.6 0.2
1.1 0.6 0.2
1.2 0.6 0.2
1.3 0.6 0.2
1.4 0.6 0.2
1.5 0.6 0.2
1.6 0.6 0.2
1.7 0.6 0.2
1.8 0.6 0.2
1.9 0.6 0.2
2 0.6 0.2
2.1 0.6 0.2
0 0.7 0.2
0.1 0.7 0.2
0.2 0.7 0.2
0.3 0.7 0.2
0.4 0.7 0.2
0.5 0.7 0.2
0.6 0.7 0.2
0.7 0.7 0.2
0.8 0.7 0.2
0.9 0.7 0.2
1 0.7 0.2
1.1 0.7 0.2
1.2 0.7 0.2
1.3 0.7 0.2
1.4 0.7 0.2
1.5 0.7 0.2
1.6 0.7 0.2
1.7 0.7 0.2
1.8 0.7 0.2
1.9 0.7 0.2
2 0.7 0.2
2.1 0.7 0.2
0 0.8 0.2
0.1 0.8 0.2
[...]
POINT_DATA 4488

SCALARS pressure double
LOOKUP_TABLE pressure
0
0
0
0
0
0
0
0
0
0
0
0
0
0
0
0
0
0
0
0
0
0
0
188.507
188.503
188.501
188.5
188.499
188.497
188.497
188.497
188.496
188.496
188.495
188.495
188.495
188.494
188.494
188.495
188.495
188.494
188.492
188.491
0
0
188.501
188.501
188.501
188.5
188.498
188.497
188.497
188.496
188.496
188.495
188.495
188.495
188.495
188.495
188.494
188.495
188.495
188.494
188.493
188.492
0
0
188.498
188.499
188.5
188.499
188.497
188.497
188.496
188.496
188.496
188.495
188.495
188.496
188.496
188.495
188.495
188.495
188.495
188.495
188.494
188.494
0
0
188.496
188.498
188.498
188.498
188.497
188.496
188.496
188.496
188.496
188.494
188.494
188.498
188.497
188.496
188.496
188.496
188.496
188.496
188.496
188.495
0
0
188.495
188.497
188.497
188.497
188.497
188.495
188.496
188.496
188.496
188.495
188.495
188.496
188.497
188.497
188.496
188.496
188.497
188.496
188.497
188.497
0
0
188.494
188.495
188.496
188.496
188.496
188.495
188.496
188.496
188.497
188.495
188.495
188.495
188.497
188.497
188.497
188.497
188.498
188.497
188.497
188.497
0
0
188.493
188.494
188.495
188.495
188.495
188.495
188.496
188.496
188.496
188.496
188.496
188.496
188.497
188.497
188.497
188.498
188.497
188.498
188.498
188.498
0
0
188.492
188.494
188.495
188.495
188.497
188.496
188.496
188.496
188.496
188.496
188.496
188.497
188.497
188.497
188.498
188.498
188.498
188.498
188.497
188.498
0
0
188.491
188.493
188.494
188.495
188.496
188.496
188.496
188.496
188.496
188.496
188.496
188.497
188.497
188.497
188.498
188.498
188.498
188.498
188.498
188.498
0
0
188.489
188.493
188.494
188.495
188.495
188.496
188.496
188.496
188.496
188.496
188.497
188.497
188.497
188.498
188.498
188.498
188.498
188.498
188.499
188.499
0
0
188.49
188.492
188.494
188.494
188.495
188.495
188.496
188.496
188.496
188.496
188.497
188.497
188.497
188.498
188.498
188.498
188.498
188.498
188.499
188.499
0
0
188.491
188.492
188.493
188.494
188.495
188.495
188.496
188.496
188.496
188.496
188.497
188.497
188.497
188.498
188.499
188.497
188.498
188.499
188.499
188.499
0
0
188.491
188.492
188.493
188.494
188.495
188.495
188.496
188.496
188.496
188.496
188.497
188.497
188.497
188.499
188.499
188.498
188.498
188.499
188.499
188.499
0
0
188.491
188.493
188.493
188.494
188.494
188.495
188.495
188.496
188.496
188.496
188.497
188.497
188.497
188.498
188.498
188.498
188.499
188.499
188.499
188.499
0
0
188.492
188.493
188.493
188.494
188.494
188.495
188.495
188.496
188.496
188.496
188.497
188.497
188.497
188.498
188.498
188.498
188.499
188.499
188.499
188.499
0
0
0
0
0
0
0
0
0
0
0
0
0
0
0
0
0
0
0
0
0
0
0
0
188.507
188.503
188.501
188.5
188.499
188.497
188.497
188.497
188.496
188.496
188.495
188.495
188.495
188.494
188.494
188.495
188.495
188.494
188.492
188.491
0
188.507
188.507
188.503
188.501
188.5
188.499
188.497
188.497
188.497
188.496
188.496
188.495
188.495
188.495
188.494
188.494
188.495
188.495
188.494
188.492
188.491
188.491
188.501
188.501
188.501
188.501
188.5
188.498
188.497
188.497
188.496
188.496
188.495
188.495
188.495
188.495
188.495
188.494
188.495
188.495
188.494
188.493
188.492
188.492
188.498
188.498
188.499
188.5
188.499
188.497
188.497
188.496
188.496
188.496
188.495
188.495
188.496
188.496
188.495
188.495
188.495
188.495
188.495
188.494
188.494
188.494
188.496
188.496
188.498
188.498
188.498
188.497
188.496
188.496
188.496
188.496
188.494
188.494
188.498
188.497
188.496
188.496
188.496
188.496
188.496
188.496
188.495
188.495
188.495
188.495
188.497
188.497
188.497
188.497
188.495
188.496
188.496
188.496
188.495
188.495
188.496
188.497
188.497
188.496
188.496
188.497
188.496
188.497
188.497
188.497
188.494
188.494
188.495
188.496
188.496
188.496
188.495
188.496
188.496
188.497
188.495
188.495
188.495
188.497
188.497
188.497
188.497
188.498
188.497
188.497
188.497
188.497
188.493
188.493
188.494
188.495
188.495
188.495
188.495
188.496
188.496
188.496
188.496
188.496
188.496
188.497
188.497
188.497
188.498
188.497
188.498
188.498
188.498
188.498
188.492
188.492
188.494
188.495
188.495
188.497
188.496
188.496
188.496
188.496
188.496
188.496
188.497
188.497
188.497
188.498
188.498
188.498
188.498
188.497
188.498
188.498
188.491
188.491
188.493
188.494
188.495
188.496
188.496
188.496
188.496
188.496
188.496
188.496
188.497
188.497
188.497
188.498
188.498
188.498
188.498
188.498
188.498
188.498
188.489
188.489
188.493
188.494
188.495
188.495
188.496
188.496
188.496
188.496
188.496
188.497
188.497
188.497
188.498
188.498
188.498
188.498
188.498
188.499
188.499
188.499
188.49
188.49
188.492
188.494
188.494
188.495
188.495
188.496
188.496
188.496
188.496
188.497
188.497
188.497
188.498
188.498
188.498
188.498
188.498
188.499
188.499
188.499
188.491
188.491
188.492
188.493
188.494
188.495
188.495
188.496
188.496
188.496
188.496
188.497
188.497
188.497
188.498
188.499
188.497
188.498
188.499
188.499
188.499
188.499
188.491
188.491
188.492
188.493
188.494
188.495
188.495
188.496
188.496
188.496
188.496
188.497
188.497
188.497
188.499
188.499
188.498
188.498
188.499
188.499
188.499
188.499
188.491
188.491
188.493
188.493
188.494
188.494
188.495
188.495
188.496
188.496
188.496
188.497
188.497
188.497
188.498
188.498
188.498
188.499
188.499
188.499
188.499
188.499
188.492
188.492
188.493
188.493
188.494
188.494
188.495
188.495
188.496
188.496
188.496
188.497
188.497
188.497
188.498
188.498
188.498
188.499
188.499
188.499
188.499
188.499
0
188.492
188.493
188.493
188.494
188.494
188.495
188.495
188.496
188.496
188.496
188.497
188.497
188.497
188.498
188.498
188.498
188.499
188.499
188.499
188.499
0
0
188.511
188.507
188.504
188.501
188.494
188.49
188.491
188.493
188.495
188.496
188.496
188.496
188.496
188.495
188.495
188.495
188.494
188.493
188.492
188.49
0
188.511
188.511
188.507
188.504
188.501
188.494
188.49
188.491
188.493
188.495
188.496
188.496
188.496
188.496
188.495
188.495
188.495
188.494
188.493
188.492
188.49
188.49
188.506
188.506
188.505
188.504
188.501
188.496
188.492
188.491
188.493
188.494
188.495
188.496
188.496
188.496
188.495
188.495
188.495
188.494
188.494
188.493
188.491
188.491
188.502
188.502
188.503
188.502
188.501
188.497
188.493
188.492
188.492
188.493
188.494
188.495
188.496
188.496
188.496
188.495
188.495
188.495
188.494
188.494
188.493
188.493
188.5
188.5
188.501
188.501
188.5
188.498
188.495
188.493
188.492
188.493
188.494
188.494
188.496
188.496
188.496
188.496
188.496
188.496
188.495
188.495
188.495
188.495
188.498
188.498
188.499
188.5
188.499
188.498
188.496
188.494
188.493
188.493
188.493
188.494
188.495
188.496
188.496
188.496
188.496
188.496
188.496
188.496
188.496
188.496
188.496
188.496
188.498
188.498
188.498
188.498
188.497
188.496
188.494
188.494
188.494
188.494
188.495
188.496
188.496
188.496
188.496
188.496
188.497
188.497
188.497
188.497
188.495
188.495
188.496
188.497
188.498
188.498
188.497
188.497
188.496
188.495
188.494
188.494
188.495
188.495
188.496
188.496
188.496
188.497
188.497
188.497
188.497
188.497
188.494
188.494
188.496
188.496
188.497
188.498
188.497
188.497
188.497
188.496
188.495
188.495
188.495
188.495
188.496
188.496
188.496
188.497
188.497
188.497
188.497
188.497
188.493
188.493
188.495
188.496
188.496
188.497
188.497
188.497
188.497
188.497
188.496
188.496
188.496
188.496
188.496
188.496
188.497
188.497
188.497
188.497
188.497
188.497
188.493
188.493
188.494
188.495
188.496
188.496
188.497
188.497
188.497
188.497
188.497
188.497
188.497
188.497
188.497
188.497
188.497
188.497
188.497
188.498
188.497
188.497
188.492
188.492
188.494
188.495
188.495
188.496
188.496
188.497
188.497
188.497
188.497
188.497
188.497
188.497
188.497
188.497
188.497
188.497
188.498
188.498
188.498
188.498
188.492
188.492
188.493
188.494
188.495
188.496
188.496
188.496
188.497
188.497
188.497
188.497
188.497
188.498
188.498
188.498
188.498
188.498
188.498
188.498
188.498
188.498
188.492
188.492
188.493
188.494
188.495
188.495
188.496
188.496
188.496
188.497
188.497
188.497
188.497
188.497
188.498
188.498
188.498
188.498
188.498
188.499
188.499
188.499
188.492
188.492
188.494
188.494
188.495
188.495
188.495
188.496
188.496
188.496
188.497
188.497
188.497
188.497
188.498
188.498
188.498
188.498
188.499
188.499
188.499
188.499
188.493
188.493
188.494
188.494
188.494
188.495
188.495
188.495
188.496
188.496
188.496
188.497
188.497
188.497
188.498
188.498
188.498
188.498
188.499
188.499
188.499
188.499
0
188.493
188.494
188.494
188.494
188.495
188.495
188.495
188.496
188.496
188.496
188.497
188.497
188.497
188.498
188.498
188.498
188.498
188.499
188.499
188.499
0
0
188.516
188.512
188.51
188.503
188.483
188.477
188.483
188.491
188.495
188.497
188.497
188.497
188.497
188.496
188.495
188.495
188.494
188.493
188.491
188.49
0
188.516
188.516
188.512
188.51
188.503
188.483
188.477
188.483
188.491
188.495
188.497
188.497
188.497
188.497
188.496
188.495
188.495
188.494
188.493
188.491
188.49
188.49
188.51
188.51
188.509
188.508
188.504
188.492
188.481
188.482
188.488
188.493
188.495
188.496
188.496
188.496
188.496
188.495
188.495
188.494
188.493
188.492
188.491
188.491
188.506
188.506
188.506
188.506
188.504
188.498
188.487
188.484
188.487
188.491
188.494
188.495
188.496
188.496
188.496
188.496
188.495
188.495
188.494
188.494
188.493
188.493
188.503
188.503
188.504
188.504
188.503
188.5
188.492
188.487
188.487
188.489
188.492
188.494
188.495
188.496
188.496
188.496
188.496
188.495
188.495
188.495
188.494
188.494
188.501
188.501
188.502
188.503
188.503
188.501
188.496
188.491
188.488
188.489
188.49
188.492
188.494
188.495
188.495
188.496
188.496
188.496
188.496
188.496
188.495
188.495
188.499
188.499
188.5
188.501
188.502
188.501
188.499
188.495
188.492
188.49
188.49
188.491
188.493
188.494
188.495
188.495
188.496
188.496
188.496
188.496
188.496
188.496
188.497
188.497
188.499
188.5
188.5
188.5
188.5
188.498
188.495
188.493
188.492
188.492
188.492
188.493
188.494
188.495
188.495
188.496
188.496
188.496
188.496
188.496
188.496
188.496
188.497
188.498
188.499
188.499
188.499
188.499
188.498
188.496
188.494
188.493
188.493
188.493
188.494
188.494
188.495
188.495
188.496
188.496
188.496
188.496
188.495
188.495
188.496
188.497
188.498
188.499
188.499
188.499
188.498
188.498
188.497
188.496
188.495
188.495
188.494
188.495
188.495
188.495
188.496
188.496
188.496
188.496
188.494
188.494
188.496
188.496
188.497
188.498
188.498
188.498
188.498
188.498
188.498
188.497
188.497
188.496
188.496
188.496
188.496
188.496
188.496
188.496
188.496
188.496
188.494
188.494
188.495
188.496
188.496
188.497
188.497
188.498
188.498
188.498
188.498
188.498
188.498
188.497
188.497
188.497
188.497
188.496
188.497
188.497
188.497
188.497
188.493
188.493
188.495
188.495
188.496
188.496
188.497
188.497
188.497
188.497
188.498
188.498
188.498
188.498
188.498
188.498
188.497
188.497
188.498
188.498
188.497
188.497
188.493
188.493
188.494
188.495
188.495
188.496
188.496
188.497
188.497
188.497
188.497
188.497
188.498
188.498
188.498
188.498
188.498
188.498
188.498
188.498
188.498
188.498
188.493
188.493
188.494
188.495
188.495
188.496
188.496
188.496
188.496
188.497
188.497
188.497
188.497
188.497
188.498
188.498
188.498
188.498
188.498
188.498
188.498
188.498
188.494
188.494
188.495
188.495
188.495
188.495
188.495
188.496
188.496
188.496
188.496
188.497
188.497
188.497
188.497
188.498
188.498
188.498
188.498
188.498
188.498
188.498
0
188.494
188.495
188.495
188.495
188.495
188.495
188.496
188.496
188.496
188.496
188.497
188.497
188.497
188.497
188.498
188.498
188.498
188.498
188.498
188.498
0
0
188.52
188.518
188.519
188.514
188.446
188.445
188.474
188.49
188.497
188.499
188.499
188.498
188.497
188.496
188.496
188.495
188.494
188.492
188.491
188.489
0
188.52
188.52
188.518
188.519
188.514
188.446
188.445
188.474
188.49
188.497
188.499
188.499
188.498
188.497
188.496
188.496
188.495
188.494
188.492
188.491
188.489
188.489
188.513
188.513
188.514
188.515
188.514
188.493
188.454
188.467
188.484
188.493
188.497
188.498
188.498
188.497
188.497
188.496
188.495
188.494
188.493
188.492
188.491
188.491
188.509
188.509
188.51
188.511
188.512
188.504
188.473
188.469
188.48
188.489
188.494
188.497
188.497
188.497
188.497
188.496
188.495
188.495
188.494
188.493
188.492
188.492
188.505
188.505
188.507
188.508
188.51
188.507
188.487
188.474
188.477
188.484
188.49
188.494
188.496
188.496
188.496
188.496
188.496
188.495
188.495
188.495
188.494
188.494
188.503
188.503
188.504
188.506
188.508
188.508
188.498
188.485
188.479
188.481
188.486
188.49
188.493
188.495
188.495
188.496
188.496
188.496
188.496
188.495
188.495
188.495
188.501
188.501
188.502
188.504
188.506
188.506
188.503
188.495
188.487
188.483
188.484
188.487
188.49
188.493
188.494
188.495
188.495
188.496
188.496
188.496
188.496
188.496
188.499
188.499
188.501
188.502
188.503
188.504
188.504
188.501
188.496
188.49
188.487
188.487
188.488
188.49
188.492
188.494
188.495
188.495
188.496
188.496
188.496
188.496
188.498
188.498
188.499
188.5
188.501
188.502
188.502
188.502
188.5
188.497
188.494
188.491
188.49
188.49
188.491
188.492
188.493
188.494
188.495
188.496
188.496
188.496
188.496
188.496
188.498
188.499
188.499
188.5
188.501
188.501
188.501
188.5
188.498
188.496
188.494
188.493
188.492
188.492
188.493
188.494
188.494
188.495
188.495
188.495
188.496
188.496
188.497
188.498
188.498
188.499
188.499
188.5
188.5
188.5
188.499
188.499
188.497
188.496
188.495
188.494
188.494
188.494
188.494
188.494
188.495
188.495
188.495
188.495
188.496
188.497
188.497
188.498
188.498
188.499
188.499
188.499
188.499
188.499
188.498
188.498
188.498
188.497
188.496
188.495
188.495
188.496
188.495
188.495
188.494
188.494
188.496
188.496
188.497
188.497
188.497
188.498
188.498
188.498
188.498
188.498
188.498
188.498
188.498
188.498
188.497
188.497
188.497
188.498
188.496
188.496
188.494
188.494
188.495
188.496
188.496
188.497
188.497
188.497
188.497
188.497
188.498
188.498
188.498
188.498
188.498
188.498
188.498
188.498
188.498
188.498
188.497
188.497
188.494
188.494
188.495
188.496
188.496
188.496
188.496
188.497
188.497
188.497
188.497
188.497
188.497
188.497
188.498
188.498
188.498
188.498
188.498
188.498
188.498
188.498
188.495
188.495
188.495
188.495
188.495
188.496
188.496
188.496
188.496
188.496
188.497
188.497
188.497
188.497
188.497
188.497
188.497
188.498
188.498
188.498
188.498
188.498
0
188.495
188.495
188.495
188.495
188.496
188.496
188.496
188.496
188.496
188.497
188.497
188.497
188.497
188.497
188.497
188.497
188.498
188.498
188.498
188.498
0
0
188.523
188.523
188.533
188.564
188.476
188.398
188.468
188.495
188.501
188.501
188.5
188.499
188.498
188.497
188.495
188.494
188.493
188.492
188.491
188.489
0
188.523
188.523
188.523
188.533
188.564
188.476
188.398
188.468
188.495
188.501
188.501
188.5
188.499
188.498
188.497
188.495
188.494
188.493
188.492
188.491
188.489
188.489
188.516
188.516
188.518
188.523
188.543
188.505
188.425
188.455
188.485
188.497
188.5
188.5
188.499
188.498
188.497
188.496
188.495
188.494
188.493
188.492
188.491
188.491
188.511
188.511
188.513
188.516
188.524
188.521
188.452
188.45
188.473
188.489
188.496
188.498
188.499
188.498
188.497
188.496
188.495
188.495
188.494
188.493
188.493
188.493
188.507
188.507
188.509
188.512
188.517
188.529
188.48
188.459
188.466
188.48
188.49
188.495
188.497
188.497
188.497
188.496
188.496
188.495
188.495
188.494
188.495
188.495
188.504
188.504
188.506
188.509
188.515
188.53
188.503
188.476
188.468
188.473
188.482
188.489
188.493
188.495
188.496
188.496
188.496
188.496
188.495
188.495
188.496
188.496
188.502
188.502
188.504
188.506
188.511
188.52
188.515
188.497
188.481
188.475
188.478
188.483
188.488
188.492
188.494
188.495
188.495
188.496
188.496
188.496
188.496
188.496
188.5
188.5
188.502
188.503
188.506
188.51
188.515
188.51
188.497
188.487
188.482
188.481
188.484
188.488
188.491
188.493
188.494
188.495
188.495
188.496
188.496
188.496
188.499
188.499
188.5
188.501
188.503
188.505
188.508
188.51
188.506
188.5
188.493
188.487
188.486
188.486
188.488
188.49
188.492
188.493
188.494
188.495
188.496
188.496
188.497
188.497
188.499
188.5
188.501
188.502
188.503
188.505
188.506
188.505
188.501
188.497
188.494
188.49
188.489
188.489
188.49
188.492
188.493
188.493
188.495
188.495
188.496
188.496
188.498
188.498
188.499
188.5
188.501
188.502
188.503
188.503
188.503
188.502
188.5
188.496
188.494
188.494
188.493
188.492
188.492
188.492
188.494
188.494
188.496
188.496
188.497
188.498
188.498
188.499
188.499
188.5
188.5
188.501
188.501
188.502
188.5
188.5
188.5
188.498
188.495
188.494
188.494
188.494
188.494
188.494
188.495
188.495
188.496
188.497
188.497
188.498
188.498
188.498
188.499
188.499
188.499
188.5
188.5
188.5
188.5
188.498
188.497
188.498
188.498
188.498
188.494
188.494
188.495
188.495
188.496
188.496
188.497
188.497
188.497
188.498
188.498
188.498
188.498
188.498
188.499
188.499
188.499
188.498
188.499
188.5
188.499
188.498
188.496
188.496
188.495
188.495
188.496
188.496
188.496
188.497
188.497
188.497
188.497
188.497
188.497
188.497
188.498
188.498
188.498
188.498
188.498
188.498
188.498
188.497
188.498
188.498
188.496
188.496
188.496
188.496
188.496
188.496
188.496
188.496
188.496
188.497
188.497
188.497
188.497
188.497
188.497
188.497
188.497
188.497
188.497
188.497
188.497
188.497
0
188.496
188.496
188.496
188.496
188.496
188.496
188.496
188.496
188.497
188.497
188.497
188.497
188.497
188.497
188.497
188.497
188.497
188.497
188.497
188.497
0
0
188.522
188.52
188.521
188.518
188.461
188.447
188.473
188.49
188.496
188.498
188.498
188.498
188.497
188.496
188.495
188.494
188.492
188.491
188.49
188.488
0
188.522
188.522
188.52
188.521
188.518
188.461
188.447
188.473
188.49
188.496
188.498
188.498
188.498
188.497
188.496
188.495
188.494
188.492
188.491
188.49
188.488
188.488
188.515
188.515
188.516
188.517
188.514
188.485
188.456
188.468
188.485
188.494
188.497
188.498
188.498
188.497
188.496
188.495
188.494
188.493
188.492
188.491
188.489
188.489
188.51
188.51
188.512
188.512
188.512
188.501
188.472
188.469
188.479
188.489
188.494
188.496
188.497
188.497
188.496
188.495
188.495
188.494
188.493
188.492
188.491
188.491
188.507
188.507
188.508
188.51
188.511
188.508
188.487
188.476
188.477
188.484
188.49
188.494
188.495
188.496
188.496
188.495
188.495
188.494
188.494
188.493
188.493
188.493
188.505
188.505
188.506
188.508
188.51
188.51
188.498
188.485
188.48
188.482
188.486
188.49
188.493
188.494
188.495
188.495
188.495
188.495
188.494
188.494
188.494
188.494
188.503
188.503
188.504
188.505
188.507
188.509
188.504
188.495
188.487
188.484
188.485
188.487
188.49
188.492
188.493
188.494
188.494
188.495
188.495
188.495
188.495
188.495
188.501
188.501
188.502
188.503
188.505
188.506
188.506
188.502
188.496
188.49
188.487
188.487
188.488
188.49
188.492
188.493
188.494
188.494
188.495
188.495
188.495
188.495
188.499
188.499
188.501
188.501
188.503
188.504
188.504
188.503
188.501
188.497
188.493
188.491
188.49
188.49
188.491
188.492
188.493
188.493
188.494
188.495
188.495
188.495
188.498
188.498
188.499
188.5
188.501
188.502
188.502
188.502
188.502
188.5
188.498
188.495
188.494
188.492
188.492
188.492
188.492
188.493
188.493
188.494
188.494
188.494
188.497
188.497
188.498
188.499
188.5
188.5
188.501
188.501
188.501
188.501
188.5
188.499
188.497
188.496
188.494
188.494
188.494
188.493
188.493
188.494
188.494
188.494
188.496
188.496
188.498
188.498
188.499
188.499
188.499
188.5
188.5
188.5
188.5
188.499
188.499
188.498
188.497
188.496
188.495
188.495
188.495
188.495
188.494
188.494
188.496
188.496
188.497
188.497
188.498
188.498
188.498
188.499
188.499
188.499
188.499
188.499
188.499
188.498
188.498
188.497
188.497
188.497
188.497
188.497
188.495
188.495
188.496
188.496
188.497
188.497
188.497
188.498
188.498
188.498
188.498
188.498
188.498
188.498
188.498
188.498
188.498
188.498
188.498
188.498
188.497
188.497
188.496
188.496
188.496
188.496
188.497
188.497
188.497
188.497
188.497
188.497
188.497
188.497
188.497
188.497
188.497
188.497
188.497
188.497
188.497
188.497
188.497
188.497
188.497
188.497
188.496
188.496
188.497
188.497
188.497
188.497
188.497
188.497
188.497
188.497
188.497