# vtk DataFile Version 3.0
FlowField
ASCII
DATASET STRUCTURED_GRID
DIMENSIONS 102 12 1 
POINTS 1224 double
0 0 0
0.3 0 0
0.6 0 0
0.9 0 0
1.2 0 0
1.5 0 0
1.8 0 0
2.1 0 0
2.4 0 0
2.7 0 0
3 0 0
3.3 0 0
3.6 0 0
3.9 0 0
4.2 0 0
4.5 0 0
4.8 0 0
5.1 0 0
5.4 0 0
5.7 0 0
6 0 0
6.3 0 0
6.6 0 0
6.9 0 0
7.2 0 0
7.5 0 0
7.8 0 0
8.1 0 0
8.4 0 0
8.7 0 0
9 0 0
9.3 0 0
9.6 0 0
9.9 0 0
10.2 0 0
10.5 0 0
10.8 0 0
11.1 0 0
11.4 0 0
11.7 0 0
12 0 0
12.3 0 0
12.6 0 0
12.9 0 0
13.2 0 0
13.5 0 0
13.8 0 0
14.1 0 0
14.4 0 0
14.7 0 0
15 0 0
15.3 0 0
15.6 0 0
15.9 0 0
16.2 0 0
16.5 0 0
16.8 0 0
17.1 0 0
17.4 0 0
17.7 0 0
18 0 0
18.3 0 0
18.6 0 0
18.9 0 0
19.2 0 0
19.5 0 0
19.8 0 0
20.1 0 0
20.4 0 0
20.7 0 0
21 0 0
21.3 0 0
21.6 0 0
21.9 0 0
22.2 0 0
22.5 0 0
22.8 0 0
23.1 0 0
23.4 0 0
23.7 0 0
24 0 0
24.3 0 0
24.6 0 0
24.9 0 0
25.2 0 0
25.5 0 0
25.8 0 0
26.1 0 0
26.4 0 0
26.7 0 0
27 0 0
27.3 0 0
27.6 0 0
27.9 0 0
28.2 0 0
28.5 0 0
28.8 0 0
29.1 0 0
29.4 0 0
29.7 0 0
30 0 0
30.3 0 0
0 0.1 0
0.3 0.1 0
0.6 0.1 0
0.9 0.1 0
1.2 0.1 0
1.5 0.1 0
1.8 0.1 0
2.1 0.1 0
2.4 0.1 0
2.7 0.1 0
3 0.1 0
3.3 0.1 0
3.6 0.1 0
3.9 0.1 0
4.2 0.1 0
4.5 0.1 0
4.8 0.1 0
5.1 0.1 0
5.4 0.1 0
5.7 0.1 0
6 0.1 0
6.3 0.1 0
6.6 0.1 0
6.9 0.1 0
7.2 0.1 0
7.5 0.1 0
7.8 0.1 0
8.1 0.1 0
8.4 0.1 0
8.7 0.1 0
9 0.1 0
9.3 0.1 0
9.6 0.1 0
9.9 0.1 0
10.2 0.1 0
10.5 0.1 0
10.8 0.1 0
11.1 0.1 0
11.4 0.1 0
11.7 0.1 0
12 0.1 0
12.3 0.1 0
12.6 0.1 0
12.9 0.1 0
13.2 0.1 0
13.5 0.1 0
13.8 0.1 0
14.1 0.1 0
14.4 0.1 0
14.7 0.1 0
15 0.1 0
15.3 0.1 0
15.6 0.1 0
15.9 0.1 0
16.2 0.1 0
16.5 0.1 0
16.8 0.1 0
17.1 0.1 0
17.4 0.1 0
17.7 0.1 0
18 0.1 0
18.3 0.1 0
18.6 0.1 0
18.9 0.1 0
19.2 0.1 0
19.5 0.1 0
19.8 0.1 0
20.1 0.1 0
20.4 0.1 0
20.7 0.1 0
21 0.1 0
21.3 0.1 0
21.6 0.1 0
21.9 0.1 0
22.2 0.1 0
22.5 0.1 0
22.8 0.1 0
23.1 0.1 0
23.4 0.1 0
23.7 0.1 0
24 0.1 0
24.3 0.1 0
24.6 0.1 0
24.9 0.1 0
25.2 0.1 0
25.5 0.1 0
25.8 0.1 0
26.1 0.1 0
26.4 0.1 0
26.7 0.1 0
27 0.1 0
27.3 0.1 0
27.6 0.1 0
27.9 0.1 0
28.2 0.1 0
28.5 0.1 0
28.8 0.1 0
29.1 0.1 0
29.4 0.1 0
29.7 0.1 0
30 0.1 0
30.3 0.1 0
0 0.2 0
0.3 0.2 0
0.6 0.2 0
0.9 0.2 0
1.2 0.2 0
1.5 0.2 0
1.8 0.2 0
2.1 0.2 0
2.4 0.2 0
2.7 0.2 0
3 0.2 0
3.3 0.2 0
3.6 0.2 0
3.9 0.2 0
4.2 0.2 0
4.5 0.2 0
4.8 0.2 0
5.1 0.2 0
5.4 0.2 0
5.7 0.2 0
6 0.2 0
6.3 0.2 0
6.6 0.2 0
6.9 0.2 0
7.2 0.2 0
7.5 0.2 0
7.8 0.2 0
8.1 0.2 0
8.4 0.2 0
8.7 0.2 0
9 0.2 0
9.3 0.2 0
9.6 0.2 0
9.9 0.2 0
10.2 0.2 0
10.5 0.2 0
10.8 0.2 0
11.1 0.2 0
11.4 0.2 0
11.7 0.2 0
12 0.2 0
12.3 0.2 0
12.6 0.2 0
12.9 0.2 0
13.2 0.2 0
13.5 0.2 0
13.8 0.2 0
14.1 0.2 0
14.4 0.2 0
14.7 0.2 0
15 0.2 0
15.3 0.2 0
15.6 0.2 0
15.9 0.2 0
16.2 0.2 0
16.5 0.2 0
16.8 0.2 0
17.1 0.2 0
17.4 0.2 0
17.7 0.2 0
18 0.2 0
18.3 0.2 0
18.6 0.2 0
18.9 0.2 0
19.2 0.2 0
19.5 0.2 0
19.8 0.2 0
20.1 0.2 0
20.4 0.2 0
20.7 0.2 0
21 0.2 0
21.3 0.2 0
21.6 0.2 0
21.9 0.2 0
22.2 0.2 0
22.5 0.2 0
22.8 0.2 0
23.1 0.2 0
23.4 0.2 0
23.7 0.2 0
24 0.2 0
24.3 0.2 0
24.6 0.2 0
24.9 0.2 0
25.2 0.2 0
25.5 0.2 0
25.8 0.2 0
26.1 0.2 0
26.4 0.2 0
26.7 0.2 0
27 0.2 0
27.3 0.2 0
27.6 0.2 0
27.9 0.2 0
28.2 0.2 0
28.5 0.2 0
28.8 0.2 0
29.1 0.2 0
29.4 0.2 0
29.7 0.2 0
30 0.2 0
30.3 0.2 0
0 0.3 0
0.3 0.3 0
0.6 0.3 0
0.9 0.3 0
1.2 0.3 0
1.5 0.3 0
1.8 0.3 0
2.1 0.3 0
2.4 0.3 0
2.7 0.3 0
3 0.3 0
3.3 0.3 0
3.6 0.3 0
3.9 0.3 0
4.2 0.3 0
4.5 0.3 0
4.8 0.3 0
5.1 0.3 0
5.4 0.3 0
5.7 0.3 0
6 0.3 0
6.3 0.3 0
6.6 0.3 0
6.9 0.3 0
7.2 0.3 0
7.5 0.3 0
7.8 0.3 0
8.1 0.3 0
8.4 0.3 0
8.7 0.3 0
9 0.3 0
9.3 0.3 0
9.6 0.3 0
9.9 0.3 0
10.2 0.3 0
10.5 0.3 0
10.8 0.3 0
11.1 0.3 0
11.4 0.3 0
11.7 0.3 0
12 0.3 0
12.3 0.3 0
12.6 0.3 0
12.9 0.3 0
13.2 0.3 0
13.5 0.3 0
13.8 0.3 0
14.1 0.3 0
14.4 0.3 0
14.7 0.3 0
15 0.3 0
15.3 0.3 0
15.6 0.3 0
15.9 0.3 0
16.2 0.3 0
16.5 0.3 0
16.8 0.3 0
17.1 0.3 0
17.4 0.3 0
17.7 0.3 0
18 0.3 0
18.3 0.3 0
18.6 0.3 0
18.9 0.3 0
19.2 0.3 0
19.5 0.3 0
19.8 0.3 0
20.1 0.3 0
20.4 0.3 0
20.7 0.3 0
21 0.3 0
21.3 0.3 0
21.6 0.3 0
21.9 0.3 0
22.2 0.3 0
22.5 0.3 0
22.8 0.3 0
23.1 0.3 0
23.4 0.3 0
23.7 0.3 0
24 0.3 0
24.3 0.3 0
24.6 0.3 0
24.9 0.3 0
25.2 0.3 0
25.5 0.3 0
25.8 0.3 0
26.1 0.3 0
26.4 0.3 0
26.7 0.3 0
27 0.3 0
27.3 0.3 0
27.6 0.3 0
27.9 0.3 0
28.2 0.3 0
28.5 0.3 0
28.8 0.3 0
29.1 0.3 0
29.4 0.3 0
29.7 0.3 0
30 0.3 0
30.3 0.3 0
0 0.4 0
0.3 0.4 0
0.6 0.4 0
0.9 0.4 0
1.2 0.4 0
1.5 0.4 0
1.8 0.4 0
2.1 0.4 0
2.4 0.4 0
2.7 0.4 0
3 0.4 0
3.3 0.4 0
3.6 0.4 0
3.9 0.4 0
4.2 0.4 0
4.5 0.4 0
4.8 0.4 0
5.1 0.4 0
5.4 0.4 0
5.7 0.4 0
6 0.4 0
6.3 0.4 0
6.6 0.4 0
6.9 0.4 0
7.2 0.4 0
7.5 0.4 0
7.8 0.4 0
8.1 0.4 0
8.4 0.4 0
8.7 0.4 0
9 0.4 0
9.3 0.4 0
9.6 0.4 0
9.9 0.4 0
10.2 0.4 0
10.5 0.4 0
10.8 0.4 0
11.1 0.4 0
11.4 0.4 0
11.7 0.4 0
12 0.4 0
12.3 0.4 0
12.6 0.4 0
12.9 0.4 0
13.2 0.4 0
13.5 0.4 0
13.8 0.4 0
14.1 0.4 0
14.4 0.4 0
14.7 0.4 0
15 0.4 0
15.3 0.4 0
15.6 0.4 0
15.9 0.4 0
16.2 0.4 0
16.5 0.4 0
16.8 0.4 0
17.1 0.4 0
17.4 0.4 0
17.7 0.4 0
18 0.4 0
18.3 0.4 0
18.6 0.4 0
18.9 0.4 0
19.2 0.4 0
19.5 0.4 0
19.8 0.4 0
20.1 0.4 0
20.4 0.4 0
20.7 0.4 0
21 0.4 0
21.3 0.4 0
21.6 0.4 0
21.9 0.4 0
22.2 0.4 0
22.5 0.4 0
22.8 0.4 0
23.1 0.4 0
23.4 0.4 0
23.7 0.4 0
24 0.4 0
24.3 0.4 0
24.6 0.4 0
24.9 0.4 0
25.2 0.4 0
25.5 0.4 0
25.8 0.4 0
26.1 0.4 0
26.4 0.4 0
26.7 0.4 0
27 0.4 0
27.3 0.4 0
27.6 0.4 0
27.9 0.4 0
28.2 0.4 0
28.5 0.4 0
28.8 0.4 0
29.1 0.4 0
29.4 0.4 0
29.7 0.4 0
30 0.4 0
30.3 0.4 0
0 0.5 0
0.3 0.5 0
0.6 0.5 0
0.9 0.5 0
1.2 0.5 0
1.5 0.5 0
1.8 0.5 0
2.1 0.5 0
2.4 0.5 0
2.7 0.5 0
3 0.5 0
3.3 0.5 0
3.6 0.5 0
3.9 0.5 0
4.2 0.5 0
4.5 0.5 0
4.8 0.5 0
5.1 0.5 0
5.4 0.5 0
5.7 0.5 0
6 0.5 0
6.3 0.5 0
6.6 0.5 0
6.9 0.5 0
7.2 0.5 0
7.5 0.5 0
7.8 0.5 0
8.1 0.5 0
8.4 0.5 0
8.7 0.5 0
9 0.5 0
9.3 0.5 0
9.6 0.5 0
9.9 0.5 0
10.2 0.5 0
10.5 0.5 0
10.8 0.5 0
11.1 0.5 0
11.4 0.5 0
11.7 0.5 0
12 0.5 0
12.3 0.5 0
12.6 0.5 0
12.9 0.5 0
13.2 0.5 0
13.5 0.5 0
13.8 0.5 0
14.1 0.5 0
14.4 0.5 0
14.7 0.5 0
15 0.5 0
15.3 0.5 0
15.6 0.5 0
15.9 0.5 0
16.2 0.5 0
16.5 0.5 0
16.8 0.5 0
17.1 0.5 0
17.4 0.5 0
17.7 0.5 0
18 0.5 0
18.3 0.5 0
18.6 0.5 0
18.9 0.5 0
19.2 0.5 0
19.5 0.5 0
19.8 0.5 0
20.1 0.5 0
20.4 0.5 0
20.7 0.5 0
21 0.5 0
21.3 0.5 0
21.6 0.5 0
21.9 0.5 0
22.2 0.5 0
22.5 0.5 0
22.8 0.5 0
23.1 0.5 0
23.4 0.5 0
23.7 0.5 0
24 0.5 0
24.3 0.5 0
24.6 0.5 0
24.9 0.5 0
25.2 0.5 0
25.5 0.5 0
25.8 0.5 0
26.1 0.5 0
26.4 0.5 0
26.7 0.5 0
27 0.5 0
27.3 0.5 0
27.6 0.5 0
27.9 0.5 0
28.2 0.5 0
28.5 0.5 0
28.8 0.5 0
29.1 0.5 0
29.4 0.5 0
29.7 0.5 0
30 0.5 0
30.3 0.5 0
0 0.6 0
0.3 0.6 0
0.6 0.6 0
0.9 0.6 0
1.2 0.6 0
1.5 0.6 0
1.8 0.6 0
2.1 0.6 0
2.4 0.6 0
2.7 0.6 0
3 0.6 0
3.3 0.6 0
3.6 0.6 0
3.9 0.6 0
4.2 0.6 0
4.5 0.6 0
4.8 0.6 0
5.1 0.6 0
5.4 0.6 0
5.7 0.6 0
6 0.6 0
6.3 0.6 0
6.6 0.6 0
6.9 0.6 0
7.2 0.6 0
7.5 0.6 0
7.8 0.6 0
8.1 0.6 0
8.4 0.6 0
8.7 0.6 0
9 0.6 0
9.3 0.6 0
9.6 0.6 0
9.9 0.6 0
10.2 0.6 0
10.5 0.6 0
10.8 0.6 0
11.1 0.6 0
11.4 0.6 0
11.7 0.6 0
12 0.6 0
12.3 0.6 0
12.6 0.6 0
12.9 0.6 0
13.2 0.6 0
13.5 0.6 0
13.8 0.6 0
14.1 0.6 0
14.4 0.6 0
14.7 0.6 0
15 0.6 0
15.3 0.6 0
15.6 0.6 0
15.9 0.6 0
16.2 0.6 0
16.5 0.6 0
16.8 0.6 0
17.1 0.6 0
17.4 0.6 0
17.7 0.6 0
18 0.6 0
18.3 0.6 0
18.6 0.6 0
18.9 0.6 0
19.2 0.6 0
19.5 0.6 0
19.8 0.6 0
20.1 0.6 0
20.4 0.6 0
20.7 0.6 0
21 0.6 0
21.3 0.6 0
21.6 0.6 0
21.9 0.6 0
22.2 0.6 0
22.5 0.6 0
22.8 0.6 0
23.1 0.6 0
23.4 0.6 0
23.7 0.6 0
24 0.6 0
24.3 0.6 0
24.6 0.6 0
24.9 0.6 0
25.2 0.6 0
25.5 0.6 0
25.8 0.6 0
26.1 0.6 0
26.4 0.6 0
26.7 0.6 0
27 0.6 0
27.3 0.6 0
27.6 0.6 0
27.9 0.6 0
28.2 0.6 0
28.5 0.6 0
28.8 0.6 0
29.1 0.6 0
29.4 0.6 0
29.7 0.6 0
30 0.6 0
30.3 0.6 0
0 0.7 0
0.3 0.7 0
0.6 0.7 0
0.9 0.7 0
1.2 0.7 0
1.5 0.7 0
1.8 0.7 0
2.1 0.7 0
2.4 0.7 0
2.7 0.7 0
3 0.7 0
3.3 0.7 0
3.6 0.7 0
3.9 0.7 0
4.2 0.7 0
4.5 0.7 0
4.8 0.7 0
5.1 0.7 0
5.4 0.7 0
5.7 0.7 0
6 0.7 0
6.3 0.7 0
6.6 0.7 0
6.9 0.7 0
7.2 0.7 0
7.5 0.7 0
7.8 0.7 0
8.1 0.7 0
8.4 0.7 0
8.7 0.7 0
9 0.7 0
9.3 0.7 0
9.6 0.7 0
9.9 0.7 0
10.2 0.7 0
10.5 0.7 0
10.8 0.7 0
11.1 0.7 0
11.4 0.7 0
11.7 0.7 0
12 0.7 0
12.3 0.7 0
12.6 0.7 0
12.9 0.7 0
13.2 0.7 0
13.5 0.7 0
13.8 0.7 0
14.1 0.7 0
14.4 0.7 0
14.7 0.7 0
15 0.7 0
15.3 0.7 0
15.6 0.7 0
15.9 0.7 0
16.2 0.7 0
16.5 0.7 0
16.8 0.7 0
17.1 0.7 0
17.4 0.7 0
17.7 0.7 0
18 0.7 0
18.3 0.7 0
18.6 0.7 0
18.9 0.7 0
19.2 0.7 0
19.5 0.7 0
19.8 0.7 0
20.1 0.7 0
20.4 0.7 0
20.7 0.7 0
21 0.7 0
21.3 0.7 0
21.6 0.7 0
21.9 0.7 0
22.2 0.7 0
22.5 0.7 0
22.8 0.7 0
23.1 0.7 0
23.4 0.7 0
23.7 0.7 0
24 0.7 0
24.3 0.7 0
24.6 0.7 0
24.9 0.7 0
25.2 0.7 0
25.5 0.7 0
25.8 0.7 0
26.1 0.7 0
26.4 0.7 0
26.7 0.7 0
27 0.7 0
27.3 0.7 0
27.6 0.7 0
27.9 0.7 0
28.2 0.7 0
28.5 0.7 0
28.8 0.7 0
29.1 0.7 0
29.4 0.7 0
29.7 0.7 0
30 0.7 0
30.3 0.7 0
0 0.8 0
0.3 0.8 0
0.6 0.8 0
0.9 0.8 0
1.2 0.8 0
1.5 0.8 0
1.8 0.8 0
2.1 0.8 0
2.4 0.8 0
2.7 0.8 0
3 0.8 0
3.3 0.8 0
3.6 0.8 0
3.9 0.8 0
4.2 0.8 0
4.5 0.8 0
4.8 0.8 0
5.1 0.8 0
5.4 0.8 0
5.7 0.8 0
6 0.8 0
6.3 0.8 0
6.6 0.8 0
6.9 0.8 0
7.2 0.8 0
7.5 0.8 0
7.8 0.8 0
8.1 0.8 0
8.4 0.8 0
8.7 0.8 0
9 0.8 0
9.3 0.8 0
9.6 0.8 0
9.9 0.8 0
10.2 0.8 0
10.5 0.8 0
10.8 0.8 0
11.1 0.8 0
11.4 0.8 0
11.7 0.8 0
12 0.8 0
12.3 0.8 0
12.6 0.8 0
12.9 0.8 0
13.2 0.8 0
13.5 0.8 0
13.8 0.8 0
14.1 0.8 0
14.4 0.8 0
14.7 0.8 0
15 0.8 0
15.3 0.8 0
15.6 0.8 0
15.9 0.8 0
16.2 0.8 0
16.5 0.8 0
16.8 0.8 0
17.1 0.8 0
17.4 0.8 0
17.7 0.8 0
18 0.8 0
18.3 0.8 0
18.6 0.8 0
18.9 0.8 0
19.2 0.8 0
19.5 0.8 0
19.8 0.8 0
20.1 0.8 0
20.4 0.8 0
20.7 0.8 0
21 0.8 0
21.3 0.8 0
21.6 0.8 0
21.9 0.8 0
22.2 0.8 0
22.5 0.8 0
22.8 0.8 0
23.1 0.8 0
23.4 0.8 0
23.7 0.8 0
24 0.8 0
24.3 0.8 0
24.6 0.8 0
24.9 0.8 0
25.2 0.8 0
25.5 0.8 0
25.8 0.8 0
26.1 0.8 0
26.4 0.8 0
26.7 0.8 0
27 0.8 0
27.3 0.8 0
27.6 0.8 0
27.9 0.8 0
28.2 0.8 0
28.5 0.8 0
28.8 0.8 0
29.1 0.8 0
29.4 0.8 0
29.7 0.8 0
30 0.8 0
30.3 0.8 0
0 0.9 0
0.3 0.9 0
0.6 0.9 0
0.9 0.9 0
1.2 0.9 0
1.5 0.9 0
1.8 0.9 0
2.1 0.9 0
2.4 0.9 0
2.7 0.9 0
3 0.9 0
3.3 0.9 0
3.6 0.9 0
3.9 0.9 0
4.2 0.9 0
4.5 0.9 0
4.8 0.9 0
5.1 0.9 0
5.4 0.9 0
5.7 0.9 0
6 0.9 0
6.3 0.9 0
6.6 0.9 0
6.9 0.9 0
7.2 0.9 0
7.5 0.9 0
7.8 0.9 0
8.1 0.9 0
8.4 0.9 0
8.7 0.9 0
9 0.9 0
9.3 0.9 0
9.6 0.9 0
9.9 0.9 0
10.2 0.9 0
10.5 0.9 0
10.8 0.9 0
11.1 0.9 0
11.4 0.9 0
11.7 0.9 0
12 0.9 0
12.3 0.9 0
12.6 0.9 0
12.9 0.9 0
13.2 0.9 0
13.5 0.9 0
13.8 0.9 0
14.1 0.9 0
14.4 0.9 0
14.7 0.9 0
15 0.9 0
15.3 0.9 0
15.6 0.9 0
15.9 0.9 0
16.2 0.9 0
16.5 0.9 0
16.8 0.9 0
17.1 0.9 0
17.4 0.9 0
17.7 0.9 0
18 0.9 0
18.3 0.9 0
18.6 0.9 0
18.9 0.9 0
19.2 0.9 0
19.5 0.9 0
19.8 0.9 0
20.1 0.9 0
20.4 0.9 0
20.7 0.9 0
21 0.9 0
21.3 0.9 0
21.6 0.9 0
21.9 0.9 0
22.2 0.9 0
22.5 0.9 0
22.8 0.9 0
23.1 0.9 0
23.4 0.9 0
23.7 0.9 0
24 0.9 0
24.3 0.9 0
24.6 0.9 0
24.9 0.9 0
25.2 0.9 0
25.5 0.9 0
25.8 0.9 0
26.1 0.9 0
26.4 0.9 0
26.7 0.9 0
27 0.9 0
27.3 0.9 0
27.6 0.9 0
27.9 0.9 0
28.2 0.9 0
28.5 0.9 0
28.8 0.9 0
29.1 0.9 0
29.4 0.9 0
29.7 0.9 0
30 0.9 0
30.3 0.9 0
0 1 0
0.3 1 0
0.6 1 0
0.9 1 0
1.2 1 0
1.5 1 0
1.8 1 0
2.1 1 0
2.4 1 0
2.7 1 0
3 1 0
3.3 1 0
3.6 1 0
3.9 1 0
4.2 1 0
4.5 1 0
4.8 1 0
5.1 1 0
5.4 1 0
5.7 1 0
6 1 0
6.3 1 0
6.6 1 0
6.9 1 0
7.2 1 0
7.5 1 0
7.8 1 0
8.1 1 0
8.4 1 0
8.7 1 0
9 1 0
9.3 1 0
9.6 1 0
9.9 1 0
10.2 1 0
10.5 1 0
10.8 1 0
11.1 1 0
11.4 1 0
11.7 1 0
12 1 0
12.3 1 0
12.6 1 0
12.9 1 0
13.2 1 0
13.5 1 0
13.8 1 0
14.1 1 0
14.4 1 0
14.7 1 0
15 1 0
15.3 1 0
15.6 1 0
15.9 1 0
16.2 1 0
16.5 1 0
16.8 1 0
17.1 1 0
17.4 1 0
17.7 1 0
18 1 0
18.3 1 0
18.6 1 0
18.9 1 0
19.2 1 0
19.5 1 0
19.8 1 0
20.1 1 0
20.4 1 0
20.7 1 0
21 1 0
21.3 1 0
21.6 1 0
21.9 1 0
22.2 1 0
22.5 1 0
22.8 1 0
23.1 1 0
23.4 1 0
23.7 1 0
24 1 0
24.3 1 0
24.6 1 0
24.9 1 0
25.2 1 0
25.5 1 0
25.8 1 0
26.1 1 0
26.4 1 0
26.7 1 0
27 1 0
27.3 1 0
27.6 1 0
27.9 1 0
28.2 1 0
28.5 1 0
28.8 1 0
29.1 1 0
29.4 1 0
29.7 1 0
30 1 0
30.3 1 0
0 1.1 0
0.3 1.1 0
0.6 1.1 0
0.9 1.1 0
1.2 1.1 0
1.5 1.1 0
1.8 1.1 0
2.1 1.1 0
2.4 1.1 0
2.7 1.1 0
3 1.1 0
3.3 1.1 0
3.6 1.1 0
3.9 1.1 0
4.2 1.1 0
4.5 1.1 0
4.8 1.1 0
5.1 1.1 0
5.4 1.1 0
5.7 1.1 0
6 1.1 0
6.3 1.1 0
6.6 1.1 0
6.9 1.1 0
7.2 1.1 0
7.5 1.1 0
7.8 1.1 0
8.1 1.1 0
8.4 1.1 0
8.7 1.1 0
9 1.1 0
9.3 1.1 0
9.6 1.1 0
9.9 1.1 0
10.2 1.1 0
10.5 1.1 0
10.8 1.1 0
11.1 1.1 0
11.4 1.1 0
11.7 1.1 0
12 1.1 0
12.3 1.1 0
12.6 1.1 0
12.9 1.1 0
13.2 1.1 0
13.5 1.1 0
13.8 1.1 0
14.1 1.1 0
14.4 1.1 0
14.7 1.1 0
15 1.1 0
15.3 1.1 0
15.6 1.1 0
15.9 1.1 0
16.2 1.1 0
16.5 1.1 0
16.8 1.1 0
17.1 1.1 0
17.4 1.1 0
17.7 1.1 0
18 1.1 0
18.3 1.1 0
18.6 1.1 0
18.9 1.1 0
19.2 1.1 0
19.5 1.1 0
19.8 1.1 0
20.1 1.1 0
20.4 1.1 0
20.7 1.1 0
21 1.1 0
21.3 1.1 0
21.6 1.1 0
21.9 1.1 0
22.2 1.1 0
22.5 1.1 0
22.8 1.1 0
23.1 1.1 0
23.4 1.1 0
23.7 1.1 0
24 1.1 0
24.3 1.1 0
24.6 1.1 0
24.9 1.1 0
25.2 1.1 0
25.5 1.1 0
25.8 1.1 0
26.1 1.1 0
26.4 1.1 0
26.7 1.1 0
27 1.1 0
27.3 1.1 0
27.6 1.1 0
27.9 1.1 0
28.2 1.1 0
28.5 1.1 0
28.8 1.1 0
29.1 1.1 0
29.4 1.1 0
29.7 1.1 0
30 1.1 0
30.3 1.1 0

POINT_DATA 1224

SCALARS pressure double
LOOKUP_TABLE pressure
1.31562
1.31562
1.2491
1.20202
1.15907
1.11942
1.08339
1.05101
1.02191
0.995572
0.97146
0.949108
0.928137
0.908254
0.889247
0.870959
0.853268
0.836086
0.819346
0.802997
0.786994
0.771301
0.755891
0.74074
0.725823
0.71112
0.696618
0.682301
0.668152
0.654161
0.640317
0.626608
0.613025
0.599559
0.586204
0.57295
0.559791
0.546721
0.533734
0.520825
0.507988
0.495219
0.482513
0.469866
0.457275
0.444736
0.432246
0.419801
0.407399
0.395036
0.382711
0.370422
0.358165
0.345938
0.333741
0.321571
0.309426
0.297305
0.285206
0.273128
0.26107
0.24903
0.237007
0.225
0.213008
0.201031
0.189067
0.177115
0.165175
0.153246
0.141327
0.129418
0.117518
0.105626
0.0937427
0.0818667
0.0699979
0.0581358
0.0462802
0.0344308
0.0225871
0.010749
-0.00108379
-0.0129116
-0.0247347
-0.0365534
-0.0483678
-0.0601782
-0.071985
-0.0837884
-0.0955886
-0.107386
-0.119181
-0.130973
-0.142763
-0.154552
-0.166339
-0.178124
-0.189908
-0.201691
-0.213474
0.213474
1.31562
1.31562
1.2491
1.20202
1.15907
1.11942
1.08339
1.05101
1.02191
0.995572
0.97146
0.949108
0.928137
0.908254
0.889247
0.870959
0.853268
0.836086
0.819346
0.802997
0.786994
0.771301
0.755891
0.74074
0.725823
0.71112
0.696618
0.682301
0.668152
0.654161
0.640317
0.626608
0.613025
0.599559
0.586204
0.57295
0.559791
0.546721
0.533734
0.520825
0.507988
0.495219
0.482513
0.469866
0.457275
0.444736
0.432246
0.419801
0.407399
0.395036
0.382711
0.370422
0.358165
0.345938
0.333741
0.321571
0.309426
0.297305
0.285206
0.273128
0.26107
0.24903
0.237007
0.225
0.213008
0.201031
0.189067
0.177115
0.165175
0.153246
0.141327
0.129418
0.117518
0.105626
0.0937427
0.0818667
0.0699979
0.0581358
0.0462802
0.0344308
0.0225871
0.010749
-0.00108379
-0.0129116
-0.0247347
-0.0365534
-0.0483678
-0.0601782
-0.071985
-0.0837884
-0.0955886
-0.107386
-0.119181
-0.130973
-0.142763
-0.154552
-0.166339
-0.178124
-0.189908
-0.201691
-0.213474
0.213474
1.29497
1.29497
1.2473
1.20234
1.15979
1.12019
1.0841
1.0516
1.02238
0.995942
0.971746
0.949329
0.928309
0.908391
0.889358
0.871051
0.853346
0.836152
0.819404
0.803048
0.787039
0.771341
0.755927
0.740773
0.725852
0.711147
0.696643
0.682324
0.668173
0.65418
0.640334
0.626624
0.61304
0.599573
0.586217
0.572962
0.559802
0.546732
0.533744
0.520834
0.507996
0.495227
0.48252
0.469873
0.457282
0.444742
0.432251
0.419806
0.407403
0.395041
0.382716
0.370425
0.358168
0.345942
0.333744
0.321574
0.309429
0.297307
0.285208
0.27313
0.261072
0.249032
0.237009
0.225002
0.21301
0.201033
0.189068
0.177117
0.165176
0.153247
0.141328
0.129419
0.117519
0.105627
0.0937435
0.0818675
0.0699986
0.0581365
0.0462809
0.0344314
0.0225877
0.0107495
-0.00108338
-0.0129113
-0.0247344
-0.0365531
-0.0483675
-0.060178
-0.0719848
-0.0837882
-0.0955885
-0.107386
-0.119181
-0.130973
-0.142763
-0.154552
-0.166339
-0.178124
-0.189908
-0.201691
-0.213473
0.213473
1.28058
1.28058
1.2448
1.20273
1.16092
1.12145
1.08527
1.05259
1.02317
0.996548
0.972202
0.94967
0.928565
0.908585
0.889509
0.87117
0.853441
0.83623
0.81947
0.803104
0.787087
0.771383
0.755965
0.740806
0.725881
0.711174
0.696667
0.682345
0.668193
0.654198
0.640351
0.626639
0.613053
0.599586
0.586228
0.572972
0.559812
0.546741
0.533752
0.520842
0.508004
0.495233
0.482526
0.469879
0.457287
0.444747
0.432256
0.41981
0.407407
0.395044
0.382719
0.370429
0.358171
0.345945
0.333747
0.321576
0.309431
0.29731
0.28521
0.273132
0.261074
0.249033
0.23701
0.225003
0.213011
0.201034
0.189069
0.177118
0.165177
0.153248
0.141329
0.12942
0.11752
0.105628
0.0937442
0.0818681
0.0699992
0.058137
0.0462814
0.0344318
0.0225881
0.0107499
-0.00108303
-0.012911
-0.0247342
-0.0365529
-0.0483673
-0.0601778
-0.0719847
-0.0837881
-0.0955884
-0.107386
-0.119181
-0.130973
-0.142763
-0.154552
-0.166339
-0.178124
-0.189908
-0.201691
-0.213473
0.213473
1.27189
1.27189
1.24279
1.20299
1.16184
1.12253
1.0863
1.05349
1.02391
0.997127
0.972651
0.950015
0.928831
0.908793
0.889674
0.871303
0.85355
0.836322
0.819548
0.803171
0.787145
0.771434
0.75601
0.740845
0.725917
0.711206
0.696696
0.682371
0.668216
0.654219
0.64037
0.626657
0.613069
0.599601
0.586242
0.572985
0.559823
0.546751
0.533762
0.520851
0.508012
0.495241
0.482534
0.469886
0.457293
0.444753
0.432261
0.419815
0.407412
0.395049
0.382723
0.370432
0.358175
0.345948
0.33375
0.321579
0.309434
0.297312
0.285213
0.273134
0.261076
0.249035
0.237012
0.225005
0.213013
0.201035
0.189071
0.177119
0.165179
0.153249
0.14133
0.129421
0.117521
0.105629
0.093745
0.0818689
0.0699999
0.0581377
0.046282
0.0344324
0.0225886
0.0107504
-0.00108255
-0.0129105
-0.0247337
-0.0365525
-0.048367
-0.0601775
-0.0719844
-0.0837878
-0.0955881
-0.107386
-0.11918
-0.130973
-0.142763
-0.154552
-0.166338
-0.178124
-0.189908
-0.201691
-0.213471
0.213471
1.26781
1.26781
1.2417
1.20311
1.16234
1.12312
1.08687
1.05399
1.02432
0.997461
0.972915
0.950223
0.928994
0.908923
0.88978
0.87139
0.853623
0.836384
0.819602
0.803218
0.787186
0.771471
0.756043
0.740875
0.725943
0.71123
0.696718
0.682391
0.668234
0.654236
0.640385
0.62667
0.613082
0.599612
0.586252
0.572995
0.559832
0.54676
0.53377
0.520858
0.508018
0.495247
0.482539
0.469891
0.457298
0.444757
0.432265
0.419819
0.407416
0.395052
0.382726
0.370435
0.358177
0.34595
0.333752
0.321581
0.309436
0.297314
0.285215
0.273136
0.261077
0.249037
0.237013
0.225006
0.213014
0.201036
0.189072
0.17712
0.16518
0.15325
0.141331
0.129422
0.117521
0.105629
0.0937457
0.0818695
0.0700005
0.0581383
0.0462825
0.0344329
0.0225891
0.0107508
-0.00108214
-0.0129101
-0.0247334
-0.0365521
-0.0483666
-0.0601772
-0.0719841
-0.0837876
-0.0955879
-0.107385
-0.11918
-0.130973
-0.142763
-0.154552
-0.166338
-0.178124
-0.189908
-0.20169
-0.21347
0.21347
1.26781
1.26781
1.24171
1.20311
1.16234
1.12312
1.08687
1.05399
1.02432
0.997461
0.972915
0.950223
0.928994
0.908923
0.88978
0.87139
0.853623
0.836385
0.819602
0.803218
0.787186
0.771471
0.756043
0.740874
0.725943
0.71123
0.696718
0.68239
0.668234
0.654236
0.640385
0.62667
0.613082
0.599612
0.586252
0.572995
0.559832
0.54676
0.53377
0.520858
0.508018
0.495247
0.482539
0.469891
0.457298
0.444757
0.432265
0.419819
0.407416
0.395052
0.382726
0.370435
0.358177
0.34595
0.333752
0.321581
0.309436
0.297314
0.285215
0.273136
0.261077
0.249037
0.237013
0.225006
0.213014
0.201036
0.189072
0.17712
0.16518
0.15325
0.141331
0.129422
0.117521
0.105629
0.0937457
0.0818695
0.0700005
0.0581383
0.0462825
0.0344329
0.0225891
0.0107508
-0.00108214
-0.0129101
-0.0247334
-0.0365521
-0.0483666
-0.0601772
-0.0719841
-0.0837876
-0.0955879
-0.107385
-0.11918
-0.130973
-0.142763
-0.154552
-0.166338
-0.178124
-0.189908
-0.20169
-0.21347
0.21347
1.27189
1.27189
1.24279
1.20299
1.16184
1.12253
1.0863
1.05349
1.02391
0.997126
0.972651
0.950015
0.92883
0.908793
0.889675
0.871302
0.85355
0.836322
0.819549
0.803171
0.787145
0.771435
0.75601
0.740845
0.725917
0.711206
0.696696
0.682371
0.668216
0.65422
0.64037
0.626656
0.61307
0.599601
0.586242
0.572985
0.559824
0.546751
0.533762
0.520851
0.508012
0.495241
0.482534
0.469886
0.457293
0.444753
0.432261
0.419815
0.407412
0.395049
0.382723
0.370432
0.358175
0.345948
0.33375
0.321579
0.309434
0.297312
0.285213
0.273134
0.261076
0.249035
0.237012
0.225005
0.213013
0.201035
0.189071
0.177119
0.165179
0.153249
0.14133
0.129421
0.117521
0.105629
0.093745
0.0818689
0.0699999
0.0581377
0.046282
0.0344324
0.0225886
0.0107504
-0.00108256
-0.0129105
-0.0247337
-0.0365525
-0.048367
-0.0601775
-0.0719844
-0.0837878
-0.0955881
-0.107386
-0.11918
-0.130973
-0.142763
-0.154552
-0.166338
-0.178124
-0.189908
-0.201691
-0.213471
0.213471
1.28058
1.28058
1.2448
1.20273
1.16092
1.12145
1.08527
1.05259
1.02317
0.996547
0.972203
0.94967
0.928564
0.908585
0.88951
0.871169
0.85344
0.836231
0.819471
0.803104
0.787087
0.771384
0.755965
0.740805
0.725881
0.711174
0.696668
0.682345
0.668193
0.654199
0.640351
0.626639
0.613054
0.599586
0.586228
0.572972
0.559812
0.546741
0.533752
0.520842
0.508003
0.495233
0.482526
0.469879
0.457287
0.444747
0.432256
0.41981
0.407407
0.395044
0.382719
0.370429
0.358171
0.345945
0.333747
0.321576
0.309431
0.29731
0.28521
0.273132
0.261074
0.249033
0.23701
0.225003
0.213011
0.201034
0.189069
0.177118
0.165177
0.153248
0.141329
0.12942
0.11752
0.105628
0.0937442
0.0818681
0.0699992
0.058137
0.0462814
0.0344318
0.0225881
0.0107499
-0.00108304
-0.012911
-0.0247341
-0.0365528
-0.0483673
-0.0601778
-0.0719847
-0.0837881
-0.0955884
-0.107386
-0.119181
-0.130973
-0.142763
-0.154552
-0.166339
-0.178124
-0.189908
-0.201691
-0.213473
0.213473
1.29496
1.29496
1.24731
1.20234
1.15979
1.12019
1.0841
1.0516
1.02238
0.995941
0.971747
0.94933
0.928308
0.908391
0.88936
0.871051
0.853345
0.836153
0.819405
0.803048
0.787038
0.771342
0.755928
0.740772
0.725852
0.711148
0.696644
0.682323
0.668173
0.654181
0.640334
0.626624
0.61304
0.599574
0.586217
0.572962
0.559802
0.546732
0.533744
0.520834
0.507996
0.495227
0.48252
0.469873
0.457282
0.444742
0.432251
0.419806
0.407403
0.395041
0.382716
0.370425
0.358168
0.345942
0.333744
0.321574
0.309429
0.297307
0.285208
0.27313
0.261072
0.249032
0.237009
0.225002
0.21301
0.201033
0.189068
0.177116
0.165176
0.153247
0.141328
0.129419
0.117519
0.105627
0.0937435
0.0818675
0.0699986
0.0581365
0.0462809
0.0344313
0.0225877
0.0107495
-0.00108338
-0.0129113
-0.0247344
-0.0365531
-0.0483675
-0.060178
-0.0719848
-0.0837882
-0.0955885
-0.107386
-0.119181
-0.130973
-0.142763
-0.154552
-0.166339
-0.178124
-0.189908
-0.201691
-0.213473
0.213473
1.31561
1.31561
1.2491
1.20203
1.15907
1.11942
1.08339
1.05101
1.02191
0.995571
0.971461
0.949108
0.928135
0.908254
0.889248
0.870958
0.853267
0.836086
0.819347
0.802997
0.786993
0.771301
0.755892
0.740739
0.725822
0.711121
0.696619
0.6823
0.668152
0.654161
0.640317
0.626608
0.613025
0.59956
0.586204
0.57295
0.559791
0.546721
0.533734
0.520825
0.507988
0.495219
0.482513
0.469866
0.457275
0.444736
0.432246
0.419801
0.407399
0.395036
0.382711
0.370421
0.358165
0.345938
0.333741
0.321571
0.309426
0.297305
0.285206
0.273128
0.26107
0.24903
0.237007
0.225
0.213008
0.201031
0.189067
0.177115
0.165175
0.153246
0.141327
0.129418
0.117518
0.105626
0.0937427
0.0818667
0.0699978
0.0581358
0.0462802
0.0344308
0.0225871
0.010749
-0.00108379
-0.0129116
-0.0247347
-0.0365534
-0.0483678
-0.0601782
-0.071985
-0.0837884
-0.0955886
-0.107386
-0.119181
-0.130973
-0.142763
-0.154552
-0.166339
-0.178124
-0.189908
-0.201691
-0.213474
0.213474
1.31561
1.31561
1.2491
1.20203
1.15907
1.11942
1.08339
1.05101
1.02191
0.995571
0.971461
0.949108
0.928135
0.908254
0.889248
0.870958
0.853267
0.836086
0.819347
0.802997
0.786993
0.771301
0.755892
0.740739
0.725822
0.711121
0.696619
0.6823
0.668152
0.654161
0.640317
0.626608
0.613025
0.59956
0.586204
0.57295
0.559791
0.546721
0.533734
0.520825
0.507988
0.495219
0.482513
0.469866
0.457275
0.444736
0.432246
0.419801
0.407399
0.395036
0.382711
0.370421
0.358165
0.345938
0.333741
0.321571
0.309426
0.297305
0.285206
0.273128
0.26107
0.24903
0.237007
0.225
0.213008
0.201031
0.189067
0.177115
0.165175
0.153246
0.141327
0.129418
0.117518
0.105626
0.0937427
0.0818667
0.0699978
0.0581358
0.0462802
0.0344308
0.0225871
0.010749
-0.00108379
-0.0129116
-0.0247347
-0.0365534
-0.0483678
-0.0601782
-0.071985
-0.0837884
-0.0955886
-0.107386
-0.119181
-0.130973
-0.142763
-0.154552
-0.166339
-0.178124
-0.189908
-0.201691
-0.213474
0.213474
SCALARS phi double
LOOKUP_TABLE phi
1
1
1
0.999995
0.999977
0.999931
0.999833
0.999655
0.999364
0.998929
0.998323
0.997523
0.996512
0.995279
0.993815
0.992118
0.990189
0.988032
0.985652
0.983058
0.98026
0.977269
0.974096
0.970755
0.967259
0.96362
0.959843
0.955925
0.951847
0.947573
0.943046
0.938193
0.932927
0.927157
0.920789
0.913736
0.90592
0.89728
0.887769
0.877356
0.866031
0.853796
0.840671
0.826689
0.811893
0.796337
0.780084
0.763198
0.745752
0.727817
0.709467
0.690775
0.671812
0.652647
0.633346
0.61397
0.594579
0.575224
0.555958
0.536824
0.517863
0.499113
0.480607
0.462372
0.444435
0.426816
0.409536
0.392609
0.376048
0.359863
0.344063
0.328652
0.313637
0.299018
0.284796
0.270972
0.257543
0.244507
0.231861
0.219601
0.207722
0.19622
0.185089
0.174324
0.163921
0.153874
0.144178
0.13483
0.125824
0.117157
0.108827
0.10083
0.0931657
0.0858319
0.0788272
0.0721551
0.0658033
0.0598157
0.0540394
0.0490222
0.0427718
0.0427718
1
1
1
0.999995
0.999977
0.999931
0.999833
0.999655
0.999364
0.998929
0.998323
0.997523
0.996512
0.995279
0.993815
0.992118
0.990189
0.988032
0.985652
0.983058
0.98026
0.977269
0.974096
0.970755
0.967259
0.96362
0.959843
0.955925
0.951847
0.947573
0.943046
0.938193
0.932927
0.927157
0.920789
0.913736
0.90592
0.89728
0.887769
0.877356
0.866031
0.853796
0.840671
0.826689
0.811893
0.796337
0.780084
0.763198
0.745752
0.727817
0.709467
0.690775
0.671812
0.652647
0.633346
0.61397
0.594579
0.575224
0.555958
0.536824
0.517863
0.499113
0.480607
0.462372
0.444435
0.426816
0.409536
0.392609
0.376048
0.359863
0.344063
0.328652
0.313637
0.299018
0.284796
0.270972
0.257543
0.244507
0.231861
0.219601
0.207722
0.19622
0.185089
0.174324
0.163921
0.153874
0.144178
0.13483
0.125824
0.117157
0.108827
0.10083
0.0931657
0.0858319
0.0788272
0.0721551
0.0658033
0.0598157
0.0540394
0.0490222
0.0427718
0.0427718
0.999998
1
0.999984
0.999921
0.999783
0.999536
0.999146
0.99858
0.997812
0.996819
0.99559
0.994116
0.992397
0.990437
0.98824
0.985817
0.983177
0.980333
0.977296
0.974081
0.9707
0.967165
0.963491
0.959689
0.955773
0.951753
0.947641
0.943444
0.939166
0.934802
0.930339
0.925753
0.92101
0.916063
0.910861
0.905343
0.899448
0.893115
0.886284
0.878905
0.870932
0.862329
0.85307
0.843141
0.832536
0.821259
0.809326
0.796757
0.783583
0.769839
0.755566
0.740808
0.725612
0.710027
0.694105
0.677894
0.661445
0.644806
0.628024
0.611146
0.594213
0.577266
0.560343
0.54348
0.526709
0.51006
0.49356
0.477234
0.461104
0.445189
0.429507
0.414072
0.398898
0.383996
0.369374
0.355041
0.341001
0.327259
0.313817
0.300678
0.287841
0.275306
0.26307
0.251132
0.239486
0.22813
0.217058
0.206265
0.195745
0.185491
0.175499
0.165762
0.156274
0.14703
0.138025
0.129265
0.120718
0.112481
0.104239
0.0970685
0.0873518
0.0873518
1.00001
0.999992
0.99954
0.998615
0.997207
0.995317
0.992955
0.990145
0.986922
0.983332
0.979422
0.975241
0.970836
0.966248
0.961513
0.956664
0.951728
0.946728
0.941682
0.936608
0.931519
0.926427
0.92134
0.916268
0.911215
0.906189
0.901194
0.896232
0.891307
0.886418
0.881564
0.87674
0.871936
0.867139
0.862329
0.857485
0.852576
0.847573
0.84244
0.837141
0.831638
0.825895
0.819876
0.81355
0.806885
0.799858
0.792447
0.784636
0.776413
0.767774
0.758716
0.749243
0.739363
0.729086
0.71843
0.707411
0.69605
0.68437
0.672395
0.660152
0.647667
0.634967
0.622079
0.609031
0.595849
0.582559
0.569186
0.555756
0.542291
0.528814
0.515346
0.501906
0.488512
0.475183
0.461932
0.448775
0.435725
0.422792
0.409987
0.397318
0.384794
0.372418
0.360197
0.348132
0.336227
0.32448
0.31289
0.301456
0.290173
0.279036
0.268037
0.257169
0.246421
0.235786
0.225248
0.214811
0.204414
0.194211
0.18367
0.174479
0.161216
0.161216
1.00143
0.99857
0.991253
0.98188
0.971566
0.96086
0.950051
0.939311
0.928756
0.918468
0.908503
0.898898
0.889671
0.880827
0.87236
0.864261
0.856513
0.849098
0.841997
0.835192
0.828664
0.822396
0.816369
0.810568
0.804979
0.799588
0.794382
0.789348
0.784477
0.779757
0.77518
0.770734
0.766412
0.762201
0.758093
0.754073
0.75013
0.746247
0.742408
0.738596
0.73479
0.730969
0.727111
0.723195
0.719197
0.715094
0.710864
0.706486
0.70194
0.697207
0.692271
0.687117
0.681732
0.676106
0.67023
0.6641
0.657711
0.651061
0.644153
0.636987
0.629569
0.621905
0.614002
0.605868
0.597515
0.588951
0.58019
0.571242
0.562121
0.55284
0.54341
0.533846
0.524161
0.514367
0.504476
0.494501
0.484454
0.474345
0.464186
0.453985
0.443754
0.433498
0.423227
0.412947
0.402662
0.392377
0.382095
0.371817
0.361542
0.351269
0.340993
0.330709
0.320406
0.310077
0.299699
0.28928
0.278734
0.268252
0.257158
0.247475
0.232867
0.232867
1.0456
0.954401
0.887723
0.838673
0.801641
0.772861
0.749886
0.731119
0.715499
0.702298
0.691001
0.681228
0.672693
0.665173
0.658493
0.652515
0.647126
0.642236
0.637772
0.633674
0.629891
0.626383
0.623115
0.620059
0.61719
0.614489
0.611936
0.609518
0.607221
0.605034
0.602947
0.60095
0.599037
0.5972
0.595431
0.593726
0.592076
0.590477
0.58892
0.587399
0.585906
0.584432
0.582969
0.581507
0.580035
0.578543
0.577019
0.57545
0.573826
0.572133
0.570359
0.568491
0.566518
0.564428
0.56221
0.559853
0.557347
0.554682
0.551852
0.548848
0.545663
0.542293
0.538733
0.534979
0.531028
0.526879
0.52253
0.517982
0.513235
0.50829
0.503149
0.497814
0.49229
0.486578
0.480683
0.47461
0.468362
0.461944
0.455362
0.44862
0.441724
0.434677
0.427485
0.420153
0.412683
0.40508
0.397347
0.389484
0.381493
0.373373
0.365121
0.356732
0.348198
0.339512
0.330652
0.321626
0.31234
0.302994
0.292884
0.28404
0.270211
0.270211
-0.0455988
0.0455988
0.112277
0.161326
0.198359
0.227139
0.250114
0.268881
0.284501
0.297702
0.308999
0.318772
0.327307
0.334827
0.341507
0.347485
0.352874
0.357764
0.362228
0.366327
0.370109
0.373618
0.376885
0.379941
0.38281
0.385511
0.388064
0.390482
0.392779
0.394966
0.397053
0.39905
0.400962
0.402798
0.404563
0.406262
0.4079
0.409481
0.411008
0.412484
0.41391
0.415289
0.416621
0.417905
0.419143
0.420332
0.42147
0.422555
0.423584
0.424552
0.425456
0.426289
0.427047
0.427724
0.428312
0.428805
0.429197
0.429479
0.429643
0.429684
0.429592
0.429361
0.428982
0.428449
0.427755
0.426892
0.425855
0.424636
0.423231
0.421634
0.41984
0.417844
0.415642
0.413232
0.41061
0.407773
0.40472
0.401448
0.397958
0.394248
0.390319
0.386169
0.381801
0.377214
0.372408
0.367385
0.362145
0.356686