# vtk DataFile Version 3.0
FlowField
ASCII
DATASET STRUCTURED_GRID
DIMENSIONS 22 17 12 
POINTS 4488 double
0 0 0
5 0 0
10 0 0
15 0 0
20 0 0
25 0 0
30 0 0
35 0 0
40 0 0
45 0 0
50 0 0
55 0 0
60 0 0
65 0 0
70 0 0
75 0 0
80 0 0
85 0 0
90 0 0
95 0 0
100 0 0
105 0 0
0 1 0
5 1 0
10 1 0
15 1 0
20 1 0
25 1 0
30 1 0
35 1 0
40 1 0
45 1 0
50 1 0
55 1 0
60 1 0
65 1 0
70 1 0
75 1 0
80 1 0
85 1 0
90 1 0
95 1 0
100 1 0
105 1 0
0 2 0
5 2 0
10 2 0
15 2 0
20 2 0
25 2 0
30 2 0
35 2 0
40 2 0
45 2 0
50 2 0
55 2 0
60 2 0
65 2 0
70 2 0
75 2 0
80 2 0
85 2 0
90 2 0
95 2 0
100 2 0
105 2 0
0 3 0
5 3 0
10 3 0
15 3 0
20 3 0
25 3 0
30 3 0
35 3 0
40 3 0
45 3 0
50 3 0
55 3 0
60 3 0
65 3 0
70 3 0
75 3 0
80 3 0
85 3 0
90 3 0
95 3 0
100 3 0
105 3 0
0 4 0
5 4 0
10 4 0
15 4 0
20 4 0
25 4 0
30 4 0
35 4 0
40 4 0
45 4 0
50 4 0
55 4 0
60 4 0
65 4 0
70 4 0
75 4 0
80 4 0
85 4 0
90 4 0
95 4 0
100 4 0
105 4 0
0 5 0
5 5 0
10 5 0
15 5 0
20 5 0
25 5 0
30 5 0
35 5 0
40 5 0
45 5 0
50 5 0
55 5 0
60 5 0
65 5 0
70 5 0
75 5 0
80 5 0
85 5 0
90 5 0
95 5 0
100 5 0
105 5 0
0 6 0
5 6 0
10 6 0
15 6 0
20 6 0
25 6 0
30 6 0
35 6 0
40 6 0
45 6 0
50 6 0
55 6 0
60 6 0
65 6 0
70 6 0
75 6 0
80 6 0
85 6 0
90 6 0
95 6 0
100 6 0
105 6 0
0 7 0
5 7 0
10 7 0
15 7 0
20 7 0
25 7 0
30 7 0
35 7 0
40 7 0
45 7 0
50 7 0
55 7 0
60 7 0
65 7 0
70 7 0
75 7 0
80 7 0
85 7 0
90 7 0
95 7 0
100 7 0
105 7 0
0 8 0
5 8 0
10 8 0
15 8 0
20 8 0
25 8 0
30 8 0
35 8 0
40 8 0
45 8 0
50 8 0
55 8 0
60 8 0
65 8 0
70 8 0
75 8 0
80 8 0
85 8 0
90 8 0
95 8 0
100 8 0
105 8 0
0 9 0
5 9 0
10 9 0
15 9 0
20 9 0
25 9 0
30 9 0
35 9 0
40 9 0
45 9 0
50 9 0
55 9 0
60 9 0
65 9 0
70 9 0
75 9 0
80 9 0
85 9 0
90 9 0
95 9 0
100 9 0
105 9 0
0 10 0
5 10 0
10 10 0
15 10 0
20 10 0
25 10 0
30 10 0
35 10 0
40 10 0
45 10 0
50 10 0
55 10 0
60 10 0
65 10 0
70 10 0
75 10 0
80 10 0
85 10 0
90 10 0
95 10 0
100 10 0
105 10 0
0 11 0
5 11 0
10 11 0
15 11 0
20 11 0
25 11 0
30 11 0
35 11 0
40 11 0
45 11 0
50 11 0
55 11 0
60 11 0
65 11 0
70 11 0
75 11 0
80 11 0
85 11 0
90 11 0
95 11 0
100 11 0
105 11 0
0 12 0
5 12 0
10 12 0
15 12 0
20 12 0
25 12 0
30 12 0
35 12 0
40 12 0
45 12 0
50 12 0
55 12 0
60 12 0
65 12 0
70 12 0
75 12 0
80 12 0
85 12 0
90 12 0
95 12 0
100 12 0
105 12 0
0 13 0
5 13 0
10 13 0
15 13 0
20 13 0
25 13 0
30 13 0
35 13 0
40 13 0
45 13 0
50 13 0
55 13 0
60 13 0
65 13 0
70 13 0
75 13 0
80 13 0
85 13 0
90 13 0
95 13 0
100 13 0
105 13 0
0 14 0
5 14 0
10 14 0
15 14 0
20 14 0
25 14 0
30 14 0
35 14 0
40 14 0
45 14 0
50 14 0
55 14 0
60 14 0
65 14 0
70 14 0
75 14 0
80 14 0
85 14 0
90 14 0
95 14 0
100 14 0
105 14 0
0 15 0
5 15 0
10 15 0
15 15 0
20 15 0
25 15 0
30 15 0
35 15 0
40 15 0
45 15 0
50 15 0
55 15 0
60 15 0
65 15 0
70 15 0
75 15 0
80 15 0
85 15 0
90 15 0
95 15 0
100 15 0
105 15 0
0 16 0
5 16 0
10 16 0
15 16 0
20 16 0
25 16 0
30 16 0
35 16 0
40 16 0
45 16 0
50 16 0
55 16 0
60 16 0
65 16 0
70 16 0
75 16 0
80 16 0
85 16 0
90 16 0
95 16 0
100 16 0
105 16 0
0 0 1
5 0 1
10 0 1
15 0 1
20 0 1
25 0 1
30 0 1
35 0 1
40 0 1
45 0 1
50 0 1
55 0 1
60 0 1
65 0 1
70 0 1
75 0 1
80 0 1
85 0 1
90 0 1
95 0 1
100 0 1
105 0 1
0 1 1
5 1 1
10 1 1
15 1 1
20 1 1
25 1 1
30 1 1
35 1 1
40 1 1
45 1 1
50 1 1
55 1 1
60 1 1
65 1 1
70 1 1
75 1 1
80 1 1
85 1 1
90 1 1
95 1 1
100 1 1
105 1 1
0 2 1
5 2 1
10 2 1
15 2 1
20 2 1
25 2 1
30 2 1
35 2 1
40 2 1
45 2 1
50 2 1
55 2 1
60 2 1
65 2 1
70 2 1
75 2 1
80 2 1
85 2 1
90 2 1
95 2 1
100 2 1
105 2 1
0 3 1
5 3 1
10 3 1
15 3 1
20 3 1
25 3 1
30 3 1
35 3 1
40 3 1
45 3 1
50 3 1
55 3 1
60 3 1
65 3 1
70 3 1
75 3 1
80 3 1
85 3 1
90 3 1
95 3 1
100 3 1
105 3 1
0 4 1
5 4 1
10 4 1
15 4 1
20 4 1
25 4 1
30 4 1
35 4 1
40 4 1
45 4 1
50 4 1
55 4 1
60 4 1
65 4 1
70 4 1
75 4 1
80 4 1
85 4 1
90 4 1
95 4 1
100 4 1
105 4 1
0 5 1
5 5 1
10 5 1
15 5 1
20 5 1
25 5 1
30 5 1
35 5 1
40 5 1
45 5 1
50 5 1
55 5 1
60 5 1
65 5 1
70 5 1
75 5 1
80 5 1
85 5 1
90 5 1
95 5 1
100 5 1
105 5 1
0 6 1
5 6 1
10 6 1
15 6 1
20 6 1
25 6 1
30 6 1
35 6 1
40 6 1
45 6 1
50 6 1
55 6 1
60 6 1
65 6 1
70 6 1
75 6 1
80 6 1
85 6 1
90 6 1
95 6 1
100 6 1
105 6 1
0 7 1
5 7 1
10 7 1
15 7 1
20 7 1
25 7 1
30 7 1
35 7 1
40 7 1
45 7 1
50 7 1
55 7 1
60 7 1
65 7 1
70 7 1
75 7 1
80 7 1
85 7 1
90 7 1
95 7 1
100 7 1
105 7 1
0 8 1
5 8 1
10 8 1
15 8 1
20 8 1
25 8 1
30 8 1
35 8 1
40 8 1
45 8 1
50 8 1
55 8 1
60 8 1
65 8 1
70 8 1
75 8 1
80 8 1
85 8 1
90 8 1
95 8 1
100 8 1
105 8 1
0 9 1
5 9 1
10 9 1
15 9 1
20 9 1
25 9 1
30 9 1
35 9 1
40 9 1
45 9 1
50 9 1
55 9 1
60 9 1
65 9 1
70 9 1
75 9 1
80 9 1
85 9 1
90 9 1
95 9 1
100 9 1
105 9 1
0 10 1
5 10 1
10 10 1
15 10 1
20 10 1
25 10 1
30 10 1
35 10 1
40 10 1
45 10 1
50 10 1
55 10 1
60 10 1
65 10 1
70 10 1
75 10 1
80 10 1
85 10 1
90 10 1
95 10 1
100 10 1
105 10 1
0 11 1
5 11 1
10 11 1
15 11 1
20 11 1
25 11 1
30 11 1
35 11 1
40 11 1
45 11 1
50 11 1
55 11 1
60 11 1
65 11 1
70 11 1
75 11 1
80 11 1
85 11 1
90 11 1
95 11 1
100 11 1
105 11 1
0 12 1
5 12 1
10 12 1
15 12 1
20 12 1
25 12 1
30 12 1
35 12 1
40 12 1
45 12 1
50 12 1
55 12 1
60 12 1
65 12 1
70 12 1
75 12 1
80 12 1
85 12 1
90 12 1
95 12 1
100 12 1
105 12 1
0 13 1
5 13 1
10 13 1
15 13 1
20 13 1
25 13 1
30 13 1
35 13 1
40 13 1
45 13 1
50 13 1
55 13 1
60 13 1
65 13 1
70 13 1
75 13 1
80 13 1
85 13 1
90 13 1
95 13 1
100 13 1
105 13 1
0 14 1
5 14 1
10 14 1
15 14 1
20 14 1
25 14 1
30 14 1
35 14 1
40 14 1
45 14 1
50 14 1
55 14 1
60 14 1
65 14 1
70 14 1
75 14 1
80 14 1
85 14 1
90 14 1
95 14 1
100 14 1
105 14 1
0 15 1
5 15 1
10 15 1
15 15 1
20 15 1
25 15 1
30 15 1
35 15 1
40 15 1
45 15 1
50 15 1
55 15 1
60 15 1
65 15 1
70 15 1
75 15 1
80 15 1
85 15 1
90 15 1
95 15 1
100 15 1
105 15 1
0 16 1
5 16 1
10 16 1
15 16 1
20 16 1
25 16 1
30 16 1
35 16 1
40 16 1
45 16 1
50 16 1
55 16 1
60 16 1
65 16 1
70 16 1
75 16 1
80 16 1
85 16 1
90 16 1
95 16 1
100 16 1
105 16 1
0 0 2
5 0 2
10 0 2
15 0 2
20 0 2
25 0 2
30 0 2
35 0 2
40 0 2
45 0 2
50 0 2
55 0 2
60 0 2
65 0 2
70 0 2
75 0 2
80 0 2
85 0 2
90 0 2
95 0 2
100 0 2
105 0 2
0 1 2
5 1 2
10 1 2
15 1 2
20 1 2
25 1 2
30 1 2
35 1 2
40 1 2
45 1 2
50 1 2
55 1 2
60 1 2
65 1 2
70 1 2
75 1 2
80 1 2
85 1 2
90 1 2
95 1 2
100 1 2
105 1 2
0 2 2
5 2 2
10 2 2
15 2 2
20 2 2
25 2 2
30 2 2
35 2 2
40 2 2
45 2 2
50 2 2
55 2 2
60 2 2
65 2 2
70 2 2
75 2 2
80 2 2
85 2 2
90 2 2
95 2 2
100 2 2
105 2 2
0 3 2
5 3 2
10 3 2
15 3 2
20 3 2
25 3 2
30 3 2
35 3 2
40 3 2
45 3 2
50 3 2
55 3 2
60 3 2
65 3 2
70 3 2
75 3 2
80 3 2
85 3 2
90 3 2
95 3 2
100 3 2
105 3 2
0 4 2
5 4 2
10 4 2
15 4 2
20 4 2
25 4 2
30 4 2
35 4 2
40 4 2
45 4 2
50 4 2
55 4 2
60 4 2
65 4 2
70 4 2
75 4 2
80 4 2
85 4 2
90 4 2
95 4 2
100 4 2
105 4 2
0 5 2
5 5 2
10 5 2
15 5 2
20 5 2
25 5 2
30 5 2
35 5 2
40 5 2
45 5 2
50 5 2
55 5 2
60 5 2
65 5 2
70 5 2
75 5 2
80 5 2
85 5 2
90 5 2
95 5 2
100 5 2
105 5 2
0 6 2
5 6 2
10 6 2
15 6 2
20 6 2
25 6 2
30 6 2
35 6 2
40 6 2
45 6 2
50 6 2
55 6 2
60 6 2
65 6 2
70 6 2
75 6 2
80 6 2
85 6 2
90 6 2
95 6 2
100 6 2
105 6 2
0 7 2
5 7 2
10 7 2
15 7 2
20 7 2
25 7 2
30 7 2
35 7 2
40 7 2
45 7 2
50 7 2
55 7 2
60 7 2
65 7 2
70 7 2
75 7 2
80 7 2
85 7 2
90 7 2
95 7 2
100 7 2
105 7 2
0 8 2
5 8 2
10 8 2
15 8 2
20 8 2
25 8 2
30 8 2
35 8 2
40 8 2
45 8 2
50 8 2
55 8 2
60 8 2
65 8 2
70 8 2
75 8 2
80 8 2
85 8 2
90 8 2
95 8 2
100 8 2
105 8 2
0 9 2
5 9 2
10 9 2
15 9 2
20 9 2
25 9 2
30 9 2
35 9 2
40 9 2
45 9 2
50 9 2
55 9 2
60 9 2
65 9 2
70 9 2
75 9 2
80 9 2
85 9 2
90 9 2
95 9 2
100 9 2
105 9 2
0 10 2
5 10 2
10 10 2
15 10 2
20 10 2
25 10 2
30 10 2
35 10 2
40 10 2
45 10 2
50 10 2
55 10 2
60 10 2
65 10 2
70 10 2
75 10 2
80 10 2
85 10 2
90 10 2
95 10 2
100 10 2
105 10 2
0 11 2
5 11 2
10 11 2
15 11 2
20 11 2
25 11 2
30 11 2
35 11 2
40 11 2
45 11 2
50 11 2
55 11 2
60 11 2
65 11 2
70 11 2
75 11 2
80 11 2
85 11 2
90 11 2
95 11 2
100 11 2
105 11 2
0 12 2
5 12 2
10 12 2
15 12 2
20 12 2
25 12 2
30 12 2
35 12 2
40 12 2
45 12 2
50 12 2
55 12 2
60 12 2
65 12 2
70 12 2
75 12 2
80 12 2
85 12 2
90 12 2
95 12 2
100 12 2
105 12 2
0 13 2
5 13 2
10 13 2
15 13 2
20 13 2
25 13 2
30 13 2
35 13 2
40 13 2
45 13 2
50 13 2
55 13 2
60 13 2
65 13 2
70 13 2
75 13 2
80 13 2
85 13 2
90 13 2
95 13 2
100 13 2
105 13 2
0 14 2
5 14 2
10 14 2
15 14 2
20 14 2
25 14 2
30 14 2
35 14 2
40 14 2
45 14 2
50 14 2
55 14 2
60 14 2
65 14 2
70 14 2
75 14 2
80 14 2
85 14 2
90 14 2
95 14 2
100 14 2
105 14 2
0 15 2
5 15 2
10 15 2
15 15 2
20 15 2
25 15 2
30 15 2
35 15 2
40 15 2
45 15 2
50 15 2
55 15 2
60 15 2
65 15 2
70 15 2
75 15 2
80 15 2
85 15 2
90 15 2
95 15 2
100 15 2
105 15 2
0 16 2
5 16 2
10 16 2
15 16 2
20 16 2
25 16 2
30 16 2
35 16 2
40 16 2
45 16 2
50 16 2
55 16 2
60 16 2
65 16 2
70 16 2
75 16 2
80 16 2
85 16 2
90 16 2
95 16 2
100 16 2
105 16 2
0 0 3
5 0 3
10 0 3
15 0 3
20 0 3
25 0 3
30 0 3
35 0 3
40 0 3
45 0 3
50 0 3
55 0 3
60 0 3
65 0 3
70 0 3
75 0 3
80 0 3
85 0 3
90 0 3
95 0 3
100 0 3
105 0 3
0 1 3
5 1 3
10 1 3
15 1 3
20 1 3
25 1 3
30 1 3
35 1 3
40 1 3
45 1 3
50 1 3
55 1 3
60 1 3
65 1 3
70 1 3
75 1 3
80 1 3
85 1 3
90 1 3
95 1 3
100 1 3
105 1 3
0 2 3
5 2 3
10 2 3
15 2 3
20 2 3
25 2 3
30 2 3
35 2 3
40 2 3
45 2 3
50 2 3
55 2 3
60 2 3
65 2 3
70 2 3
75 2 3
80 2 3
85 2 3
90 2 3
95 2 3
100 2 3
105 2 3
0 3 3
5 3 3
10 3 3
15 3 3
20 3 3
25 3 3
30 3 3
35 3 3
40 3 3
45 3 3
50 3 3
55 3 3
60 3 3
65 3 3
70 3 3
75 3 3
80 3 3
85 3 3
90 3 3
95 3 3
100 3 3
105 3 3
0 4 3
5 4 3
10 4 3
15 4 3
20 4 3
25 4 3
30 4 3
35 4 3
40 4 3
45 4 3
50 4 3
55 4 3
60 4 3
65 4 3
70 4 3
75 4 3
80 4 3
85 4 3
90 4 3
95 4 3
100 4 3
105 4 3
0 5 3
5 5 3
10 5 3
15 5 3
20 5 3
25 5 3
30 5 3
35 5 3
40 5 3
45 5 3
50 5 3
55 5 3
60 5 3
65 5 3
70 5 3
75 5 3
80 5 3
85 5 3
90 5 3
95 5 3
100 5 3
105 5 3
0 6 3
5 6 3
10 6 3
15 6 3
20 6 3
25 6 3
30 6 3
35 6 3
40 6 3
45 6 3
50 6 3
55 6 3
60 6 3
65 6 3
70 6 3
75 6 3
80 6 3
85 6 3
90 6 3
95 6 3
100 6 3
105 6 3
0 7 3
5 7 3
10 7 3
15 7 3
20 7 3
25 7 3
30 7 3
35 7 3
40 7 3
45 7 3
50 7 3
55 7 3
60 7 3
65 7 3
70 7 3
75 7 3
80 7 3
85 7 3
90 7 3
95 7 3
100 7 3
105 7 3
0 8 3
5 8 3
10 8 3
15 8 3
20 8 3
25 8 3
30 8 3
35 8 3
40 8 3
45 8 3
50 8 3
55 8 3
60 8 3
65 8 3
70 8 3
75 8 3
80 8 3
85 8 3
90 8 3
95 8 3
100 8 3
105 8 3
0 9 3
5 9 3
10 9 3
15 9 3
20 9 3
25 9 3
30 9 3
35 9 3
40 9 3
45 9 3
50 9 3
55 9 3
60 9 3
65 9 3
70 9 3
75 9 3
80 9 3
85 9 3
90 9 3
95 9 3
100 9 3
105 9 3
0 10 3
5 10 3
10 10 3
15 10 3
[...]
POINT_DATA 4488

SCALARS pressure double
LOOKUP_TABLE pressure
0
0
0
0
0
0
0
0
0
0
0
0
0
0
0
0
0
0
0
0
0
0
0
8.90027
8.88701
8.83982
8.66092
8.49854
9.23598
9.88403
10.4253
10.8854
11.2987
11.6945
11.8752
10.9586
10.8748
10.4991
9.91416
9.37355
8.84021
8.45524
8.15193
0
0
8.90083
8.88843
8.84777
8.66203
8.5041
9.24191
9.88749
10.4254
10.8798
11.2955
11.6924
11.86
10.9313
10.8692
10.5028
9.88229
9.37105
8.8346
8.45356
8.15358
0
0
8.90189
8.89311
8.84627
8.67636
8.51144
9.21515
9.89597
10.4269
10.8799
11.2927
11.6954
11.9339
10.8698
10.8718
10.5123
10.2375
9.37073
8.82217
8.44863
8.15557
0
0
8.90337
8.89942
8.85407
8.68594
8.19608
9.22765
9.91016
10.4356
10.8797
11.2897
11.7022
11.8776
10.7841
10.8873
10.5219
10.2196
9.35198
8.80126
8.44024
8.15794
0
0
8.90516
8.90696
8.91905
8.70157
8.139
9.25749
9.9295
10.4406
10.8791
11.2862
11.7115
12.7364
10.731
10.9247
10.5457
10.2458
9.31836
8.77113
8.42813
8.16074
0
0
8.90704
8.91399
8.92813
8.73895
8.01502
9.30421
9.95389
10.4473
10.8807
11.2793
11.6939
12.4585
10.8534
10.9789
10.6216
10.3075
9.26611
8.71165
8.41183
8.16404
0
0
8.90881
8.92106
8.9436
8.79174
7.8091
9.37513
9.9833
10.4545
10.8823
11.2716
11.6619
12.2262
11.0017
11.0601
10.7134
10.4072
9.18943
8.65132
8.39136
8.16789
0
0
8.91047
8.92812
8.9661
8.87317
7.50848
9.48391
10.0172
10.4749
10.8842
11.2632
11.6236
12.033
11.1292
11.1657
10.8111
10.559
9.07328
8.568
8.36523
8.17226
0
0
8.91189
8.93491
8.99455
9.00093
7.06493
9.65205
10.0532
10.4839
10.8857
11.2549
11.5845
11.8842
11.2322
11.3049
10.8985
10.7773
8.90033
8.46202
8.33842
8.17721
0
0
8.91287
8.94099
9.02623
9.18416
11.1736
9.8683
10.0861
10.4939
10.8873
11.2472
11.5475
11.7743
11.3118
11.3334
11.115
11.0813
8.64409
8.32934
8.30454
8.18278
0
0
8.91331
8.94567
9.05658
9.31833
10.932
9.97103
10.129
10.5041
10.8889
11.2407
11.514
11.6949
11.3739
11.3824
11.3245
11.504
8.2435
8.16518
8.26973
8.18926
0
0
8.91305
8.94861
9.0828
9.40129
10.691
10.0288
10.1626
10.5133
10.8905
11.2342
11.4861
11.6382
11.426
11.4424
11.5234
12.0953
7.67241
7.97081
8.23676
8.19699
0
0
8.91203
8.95033
9.1035
9.45063
10.5073
10.0593
10.1882
10.5288
10.8921
11.2301
11.4616
11.5979
11.4698
11.504
12.0456
12.9257
6.86194
7.74932
8.21009
8.20635
0
0
8.91028
8.9549
9.11662
9.47859
10.3888
10.0736
10.2066
10.535
10.8933
11.2209
11.4478
11.569
11.5078
11.6546
12.2653
14.0642
5.71806
7.50877
8.19652
8.21767
0
0
8.90746
8.95767
9.12406
9.49256
10.3359
10.0777
10.2188
10.5395
10.8939
11.2135
11.4355
11.5458
11.5388
11.7014
12.4906
15.6426
4.17315
7.26703
8.20803
8.23195
0
0
0
0
0
0
0
0
0
0
0
0
0
0
0
0
0
0
0
0
0
0
0
0
8.90027
8.88701
8.83982
8.66092
8.49854
9.23598
9.88403
10.4253
10.8854
11.2987
11.6945
11.8752
10.9586
10.8748
10.4991
9.91416
9.37355
8.84021
8.45524
8.15193
0
-8.90027
8.90027
8.88701
8.83982
8.66092
8.49854
9.23598
9.88403
10.4253
10.8854
11.2987
11.6945
11.8752
10.9586
10.8748
10.4991
9.91416
9.37355
8.84021
8.45524
8.15193
8.15193
0.00182236
8.90083
8.88843
8.84777
8.66203
8.5041
9.24191
9.88749
10.4254
10.8798
11.2955
11.6924
11.86
10.9313
10.8692
10.5028
9.88229
9.37105
8.8346
8.45356
8.15358
8.15358
-8.90189
8.90189
8.89311
8.84627
8.67636
8.51144
9.21515
9.89597
10.4269
10.8799
11.2927
11.6954
11.9339
10.8698
10.8718
10.5123
10.2375
9.37073
8.82217
8.44863
8.15557
8.15557
-8.90337
8.90337
8.89942
8.85407
8.68594
8.19608
9.22765
9.91016
10.4356
10.8797
11.2897
11.7022
11.8776
10.7841
10.8873
10.5219
10.2196
9.35198
8.80126
8.44024
8.15794
8.15794
-8.90516
8.90516
8.90696
8.91905
8.70157
8.139
9.25749
9.9295
10.4406
10.8791
11.2862
11.7115
12.7364
10.731
10.9247
10.5457
10.2458
9.31836
8.77113
8.42813
8.16074
8.16074
-8.90704
8.90704
8.91399
8.92813
8.73895
8.01502
9.30421
9.95389
10.4473
10.8807
11.2793
11.6939
12.4585
10.8534
10.9789
10.6216
10.3075
9.26611
8.71165
8.41183
8.16404
8.16404
-8.90881
8.90881
8.92106
8.9436
8.79174
7.8091
9.37513
9.9833
10.4545
10.8823
11.2716
11.6619
12.2262
11.0017
11.0601
10.7134
10.4072
9.18943
8.65132
8.39136
8.16789
8.16789
-8.91047
8.91047
8.92812
8.9661
8.87317
7.50848
9.48391
10.0172
10.4749
10.8842
11.2632
11.6236
12.033
11.1292
11.1657
10.8111
10.559
9.07328
8.568
8.36523
8.17226
8.17226
-8.91189
8.91189
8.93491
8.99455
9.00093
7.06493
9.65205
10.0532
10.4839
10.8857
11.2549
11.5845
11.8842
11.2322
11.3049
10.8985
10.7773
8.90033
8.46202
8.33842
8.17721
8.17721
-8.91287
8.91287
8.94099
9.02623
9.18416
11.1736
9.8683
10.0861
10.4939
10.8873
11.2472
11.5475
11.7743
11.3118
11.3334
11.115
11.0813
8.64409
8.32934
8.30454
8.18278
8.18278
-8.91331
8.91331
8.94567
9.05658
9.31833
10.932
9.97103
10.129
10.5041
10.8889
11.2407
11.514
11.6949
11.3739
11.3824
11.3245
11.504
8.2435
8.16518
8.26973
8.18926
8.18926
-8.91305
8.91305
8.94861
9.0828
9.40129
10.691
10.0288
10.1626
10.5133
10.8905
11.2342
11.4861
11.6382
11.426
11.4424
11.5234
12.0953
7.67241
7.97081
8.23676
8.19699
8.19699
-8.91203
8.91203
8.95033
9.1035
9.45063
10.5073
10.0593
10.1882
10.5288
10.8921
11.2301
11.4616
11.5979
11.4698
11.504
12.0456
12.9257
6.86194
7.74932
8.21009
8.20635
8.20635
-8.91028
8.91028
8.9549
9.11662
9.47859
10.3888
10.0736
10.2066
10.535
10.8933
11.2209
11.4478
11.569
11.5078
11.6546
12.2653
14.0642
5.71806
7.50877
8.19652
8.21767
8.21767
-8.90746
8.90746
8.95767
9.12406
9.49256
10.3359
10.0777
10.2188
10.5395
10.8939
11.2135
11.4355
11.5458
11.5388
11.7014
12.4906
15.6426
4.17315
7.26703
8.20803
8.23195
8.23195
0
8.90746
8.95767
9.12406
9.49256
10.3359
10.0777
10.2188
10.5395
10.8939
11.2135
11.4355
11.5458
11.5388
11.7014
12.4906
15.6426
4.17315
7.26703
8.20803
8.23195
0
0
8.89872
8.89015
8.85065
8.72424
8.65179
9.26213
9.89058
10.4299
10.8868
11.2925
11.6689
12.2799
11.0825
10.9047
10.5258
9.99577
9.3991
8.86283
8.47619
8.17096
0
-8.89872
8.89872
8.89015
8.85065
8.72424
8.65179
9.26213
9.89058
10.4299
10.8868
11.2925
11.6689
12.2799
11.0825
10.9047
10.5258
9.99577
9.3991
8.86283
8.47619
8.17096
8.17096
-8.89929
8.89929
8.89359
8.85511
8.72524
8.698
9.26765
9.88664
10.4303
10.8837
11.2886
11.6634
11.9776
11.0672
10.9055
10.5277
10.0227
9.39733
8.85768
8.47475
8.17271
8.17271
-8.90033
8.90033
8.89549
8.86122
8.73178
8.61249
9.26832
9.9045
10.4331
10.8826
11.2861
11.6613
11.9193
11.0608
10.9134
10.5273
10.1408
9.39296
8.84582
8.47028
8.17484
8.17484
-8.90177
8.90177
8.90033
8.87494
8.74216
8.4845
9.28268
9.92105
10.4388
10.8822
11.2828
11.662
11.9476
11.1134
10.932
10.5063
10.187
9.37617
8.82536
8.46252
8.17737
8.17737
-8.90352
8.90352
8.9066
8.90379
8.7614
8.41643
9.31176
9.94054
10.445
10.8823
11.2788
11.6624
12.1698
11.0259
10.9625
10.4127
10.2312
9.34673
8.79467
8.45132
8.18034
8.18034
-8.90534
8.90534
8.91313
8.9229
8.79572
8.35325
9.35699
9.9641
10.4526
10.8833
11.2732
11.649
12.1257
11.0597
11.0122
10.6064
10.2981
9.30146
8.74851
8.43644
8.18384
8.18384
-8.90711
8.90711
8.92008
8.94265
8.84767
8.29964
9.42369
9.99211
10.462
10.8847
11.2665
11.6251
12.0175
11.1336
11.08
10.7306
10.3933
9.23534
8.68943
8.41736
8.18787
8.18787
-8.90881
8.90881
8.927
8.9663
8.92452
8.31826
9.51922
10.0241
10.475
10.8863
11.2592
11.5955
11.9039
11.2129
11.1629
10.8436
10.533
9.13725
8.61285
8.39334
8.19237
8.19237
-8.91024
8.91024
8.93362
8.99375
9.03335
8.58144
9.64872
10.0584
10.4861
10.888
11.2517
11.5642
11.8051
11.2853
11.252
10.9665
10.7236
9.00553
8.51951
8.36647
8.19743
8.19743
-8.91125
8.91125
8.9394
9.0232
9.16994
9.86713
9.7994
10.0929
10.4967
10.8896
11.2445
11.5338
11.7262
11.3477
11.3144
11.1358
10.9804
8.84946
8.40872
8.33619
8.20314
8.20314
-8.9117
8.9117
8.94318
9.05176
9.28037
10.2167
9.90149
10.1279
10.5072
10.8912
11.2379
11.5062
11.6662
11.4038
11.3765
11.3275
11.3253
8.47311
8.259
8.30458
8.20978
8.20978
-8.91144
8.91144
8.94288
9.078
9.35726
10.257
9.96614
10.158
10.5173
10.8928
11.2317
11.4825
11.6215
11.4431
11.4436
11.5475
11.7887
8.0189
8.09154
8.27448
8.21767
8.21767
-8.9104
8.9104
8.93192
9.10393
9.40719
10.2184
10.0048
10.1819
10.5278
10.8944
11.2263
11.4628
11.5887
11.4801
11.5175
11.845
12.4027
7.42788
7.90779
8.24925
8.22715
8.22715
-8.90872
8.90872
8.94898
9.11015
9.43732
10.1685
10.026
10.1995
10.5349
10.8953
11.2196
11.4476
11.5633
11.513
11.6068
12.0761
13.1864
6.67125
7.71849
8.23394
8.23911
8.23911
-8.90597
8.90597
8.95497
9.11552
9.45389
10.1234
10.0361
10.2116
10.5398
10.8959
11.2138
11.4353
11.5435
11.5412
11.6677
12.2767
14.1243
5.76984
7.54095
8.23027
8.2535
8.2535
0
8.90597
8.95497
9.11552
9.45389
10.1234
10.0361
10.2116
10.5398
10.8959
11.2138
11.4353
11.5435
11.5412
11.6677
12.2767
14.1243
5.76984
7.54095
8.23027
8.2535
0
0
8.89723
8.89156
8.86134
8.77664
8.72629
9.2837
9.90398
10.4349
10.8874
11.2852
11.6362
11.992
11.1678
10.9388
10.556
10.0537
9.42589
8.88747
8.49854
8.1907
0
-8.89723
8.89723
8.89156
8.86134
8.77664
8.72629
9.2837
9.90398
10.4349
10.8874
11.2852
11.6362
11.992
11.1678
10.9388
10.556
10.0537
9.42589
8.88747
8.49854
8.1907
8.1907
-8.89779
8.89779
8.89362
8.8653
8.77957
8.76346
9.2955
9.907
10.4356
10.8855
11.2817
11.6305
11.897
11.1618
10.9419
10.5588
10.0775
9.42448
8.88299
8.49745
8.19256
8.19256
-8.89881
8.89881
8.89646
8.87288
8.78449
8.72769
9.30972
9.91848
10.4384
10.8844
11.2784
11.6261
11.8573
11.1615
10.9517
10.562
10.1314
9.41844
8.87198
8.49351
8.19482
8.19482
-8.90021
8.90021
8.90092
8.88563
8.7958
8.67314
9.33029
9.9336
10.4433
10.884
11.2749
11.623
11.8689
11.1735
10.9699
10.5628
10.1768
9.40363
8.85314
8.48654
8.19749
8.19749
-8.9019
8.9019
8.90641
8.90446
8.81621
8.63922
9.36114
9.95224
10.4496
10.8842
11.2708
11.6187
11.9273
11.163
10.9983
10.5712
10.2256
9.37824
8.82523
8.47646
8.20065
8.20065
-8.90366
8.90366
8.91257
8.92333
8.84947
8.6259
9.40519
9.97464
10.4574
10.8851
11.2659
11.6073
11.9141
11.1827
11.0419
10.6603
10.2889
9.34025
8.78568
8.46311
8.20437
8.20437
-8.90542
8.90542
8.91925
8.94381
8.89889
8.6503
9.46648
10.001
10.4667
10.8864
11.2602
11.5892
11.8614
11.2252
11.0984
10.7609
10.3764
9.2838
8.73177
8.4456
8.2086
8.2086
-8.90712
8.90712
8.926
8.96711
8.96769
8.75857
9.54814
10.0307
10.4776
10.888
11.2539
11.5665
11.796
11.2762
11.1656
10.8674
10.5003
9.20008
8.66382
8.42371
8.2133
8.2133
-8.90856
8.90856
8.93248
8.99287
9.05682
9.03266
9.64952
10.0625
10.4884
10.8896
11.2473
11.5421
11.7331
11.3274
11.2365
10.9882
10.6602
9.08712
8.58157
8.39914
8.21855
8.21855
-8.9096
8.9096
8.93821
9.01971
9.1588
9.5545
9.75893
10.0946
10.4991
10.8913
11.2409
11.518
11.6793
11.3747
11.3019
11.1336
10.8699
8.92852
8.48228
8.37223
8.22448
8.22448
-8.91008
8.91008
8.94244
9.04555
9.2482
9.83684
9.84719
10.1254
10.5094
10.893
11.2348
11.4957
11.6362
11.4177
11.3668
11.3002
11.1412
8.67543
8.36141
8.34451
8.23137
8.23137
-8.90987
8.90987
8.94438
9.06874
9.3163
9.95051
9.91022
10.1524
10.5191
10.8947
11.2292
11.4762
11.6029
11.4539
11.4336
11.4883
11.4899
8.34896
8.22549
8.31807
8.23951
8.23951
-8.90893
8.90893
8.94435
9.08798
9.36386
9.9825
9.95193
10.1742
10.5277
10.8957
11.2234
11.4589
11.5763
11.4859
11.502
11.6977
11.9252
7.94334
8.08211
8.29686
8.24993
8.24993
-8.90722
8.90722
8.95005
9.09893
9.39507
9.97939
9.97809
10.1911
10.5345
10.8966
11.218
11.445
11.5563
11.5148
11.5712
11.8896
12.4488
7.45904
7.93749
8.28145
8.26215
8.26215
-8.90443
8.90443
8.95308
9.10528
9.41364
9.95991
9.99286
10.203
10.5395
10.8973
11.2134
11.4337
11.5403
11.5403
11.628
12.0558
13.0247
6.93305
7.80825
8.27427
8.2765
8.2765
0
8.90443
8.95308
9.10528
9.41364
9.95991
9.99286
10.203
10.5395
10.8973
11.2134
11.4337
11.5403
11.5403
11.628
12.0558
13.0247
6.93305
7.80825
8.27427
8.2765
0
0
8.89572
8.89242
8.87144
8.82928
8.72283
9.2915
9.91734
10.44
10.888
11.2769
11.6016
11.8308
11.2295
10.9727
10.5876
10.0934
9.45341
8.91382
8.5221
8.2111
0
-8.89572
8.89572
8.89242
8.87144
8.82928
8.72283
9.2915
9.91734
10.44
10.888
11.2769
11.6016
11.8308
11.2295
10.9727
10.5876
10.0934
9.45341
8.91382
8.5221
8.2111
8.2111
-8.89627
8.89627
8.89412
8.87523
8.82864
8.87169
9.31824
9.92201
10.4408
10.8864
11.2735
11.5964
11.798
11.2271
10.9765
10.5919
10.11
9.45228
8.9101
8.52134
8.21306
8.21306
-8.89726
8.89726
8.89704
8.88262
8.83152
8.83537
9.34365
9.93206
10.4435
10.8855
11.27
11.5913
11.7773
11.2282
10.9867
10.5999
10.1421
9.44593
8.90022
8.51798
8.21546
8.21546
-8.89862
8.89862
8.90125
8.89398
8.8426
8.81435
9.3703
9.94609
10.448
10.8851
11.2664
11.5865
11.777
11.2344
11.004
10.6144
10.1797
9.43343
8.8836
8.51192
8.21831
8.21831
-8.90026
8.90026
8.90625
8.90921
8.86318
8.80671
9.40304
9.96366
10.4541
10.8854
11.2626
11.5803
11.7889
11.2401
11.0303
10.6446
10.225
9.41214
8.85918
8.50313
8.22169
8.22169
-8.90195
8.90195
8.91214
8.92656
8.89504
8.82212
9.44563
9.98473
10.4617
10.8863
11.2583
11.5704
11.7793
11.2573
11.0682
10.7063
10.2818
9.38104
8.82478
8.4914
8.22564
8.22564
-8.90371
8.90371
8.9185
8.94622
8.94049
8.87435
9.50104
10.0093
10.4706
10.8876
11.2534
11.5563
11.7506
11.2861
11.1161
10.7879
10.36
9.33362
8.77724
8.47565
8.2301
8.2301
-8.90539
8.90539
8.92503
8.96819
9.00012
8.98565
9.57006
10.0366
10.4806
10.8892
11.248
11.539
11.7125
11.3215
11.1724
10.8814
10.4655
9.26469
8.71896
8.45636
8.23504
8.23504
-8.90682
8.90682
8.9314
8.99185
9.07242
9.17965
9.65063
10.0654
10.4908
10.8909
11.2424
11.5202
11.6733
11.3589
11.2329
10.9896
10.5964
9.17237
8.6487
8.43486
8.24055
8.24055
-8.90788
8.90788
8.93711
9.01602
9.15096
9.44353
9.73428
10.0944
10.501
10.8926
11.2369
11.5014
11.6381
11.3954
11.2938
11.1142
10.763
9.04444
8.56546
8.41172
8.24679
8.24679
-8.90839
8.90839
8.94179
9.03907
9.22287
9.63965
9.80738
10.122
10.5109
10.8944
11.2316
11.4839
11.6086
11.43
11.3553
11.2545
10.9713
8.86624
8.46862
8.38821
8.25402
8.25402
-8.9083
8.9083
8.94515
9.05961
9.28134
9.75306
9.86428
10.1461
10.5196
10.8955
11.2259
11.4673
11.5833
11.4605
11.4168
11.4065
11.2259
8.64169
8.36383
8.36739
8.26328
8.26328
-8.90743
8.90743
8.94749
9.07629
9.32523
9.80961
9.90582
10.1665
10.5275
10.8966
11.2208
11.4529
11.5639
11.4885
11.4783
11.5677
11.5333
8.37014
8.25252
8.34884
8.27389
8.27389
-8.90567
8.90567
8.95025
9.08765
9.35556
9.8316
9.93382
10.1824
10.5341
10.8976
11.2163
11.4411
11.5488
11.5143
11.537
11.7205
11.8803
8.06502
8.14482
8.33548
8.28621
8.28621
-8.90281
8.90281
8.95131
9.09433
9.37459
9.83365
9.95133
10.1938
10.5389
10.8984
11.2126
11.4315
11.5364
11.5375
11.5873
11.8529
12.237
7.75539
8.05322
8.32947
8.30062
8.30062
0
8.90281
8.95131
9.09433
9.37459
9.83365
9.95133
10.1938
10.5389
10.8984
11.2126
11.4315
11.5364
11.5375
11.5873
11.8529
12.237
7.75539
8.05322
8.32947
8.30062
0
0
8.89411
8.89288
8.88014
8.88584
8.88477
9.27075
9.92955
10.4449
10.8886
11.2683
11.5685
11.7277
11.2743
11.0044
10.6183
10.123
9.48133
8.94147
8.54659
8.23214
0
-8.89411
8.89411
8.89288
8.88014
8.88584
8.88477
9.27075
9.92955
10.4449
10.8886
11.2683
11.5685
11.7277
11.2743
11.0044
10.6183
10.123
9.48133
8.94147
8.54659
8.23214
8.23214
-8.89464
8.89464
8.89448
8.88373
8.86987
8.9544
9.33583
9.9348
10.4456
10.8871
11.2649
11.5636
11.714
11.2731
11.0083
10.6235
10.135
9.48054
8.93851
8.54619
8.23422
8.23422
-8.89561
8.89561
8.89733
8.89064
8.86951
8.94465
9.37275
9.94436
10.4482
10.8862
11.2615
11.5585
11.7025
11.2751
11.0183
10.6341
10.1578
9.47484
8.93
8.54344
8.23676
8.23676
-8.89693
8.89693
8.90132
8.90097
8.87999
8.9248
9.40349
9.95758
10.4525
10.8859
11.258
11.5531
11.6982
11.281
11.0343
10.6543
10.1886
9.46464
8.91577
8.53836
8.2398
8.2398
-8.89852
8.89852
8.90602
8.91443
8.90033
8.92685
9.43693
9.9741
10.4584
10.8863
11.2545
11.5467
11.6973
11.2899
11.0584
10.6875
10.2277
9.4475
8.895
8.53092
8.24341
8.24341
-8.90017
8.90017
8.91165
8.93037
8.93058
8.95426
9.47747
9.9938
10.4657
10.8872
11.2507
11.5382
11.6893
11.3051
11.0913
10.7391
10.277
9.42262
8.86531
8.52084
8.24762
8.24762
-8.90191
8.90191
8.91771
8.94876
8.9717
9.01166
9.52728
10.0165
10.4741
10.8886
11.2465
11.5271
11.6724
11.3268
11.1327
10.8071
10.3453
9.38377
8.82462
8.50706
8.25233
8.25233
-8.90357
8.90357
8.92398
8.96907
9.02293
9.10587
9.5859
10.0414
10.4834
10.8901
11.242
11.5141
11.6499
11.3532
11.1808
10.8875
10.4322
9.32983
8.77609
8.49067
8.25757
8.25757
-8.90499
8.90499
8.93018
8.99057
9.0822
9.2403
9.65125
10.0676
10.4931
10.8919
11.2374
11.4999
11.6261
11.3819
11.2333
10.9808
10.5379
9.25813
8.71794
8.4725
8.2634
8.2634
-8.90605
8.90605
8.9358
9.01224
9.14453
9.3981
9.71764
10.0936
10.5027
10.8937
11.2328
11.4857
11.6037
11.411
11.2879
11.0858
10.668
9.16265
8.65066
8.4533
8.27002
8.27002
-8.90669
8.90669
8.94079
9.03301
9.20315
9.53336
9.77818
10.1182
10.5117
10.8948
11.2274
11.4711
11.5826
11.4387
11.343
11.2012
10.825
9.03892
8.57585
8.43511
8.27834
8.27834
-8.90664
8.90664
8.94467
9.05136
9.25299
9.62864
9.82847
10.1404
10.52
10.8961
11.2227
11.4579
11.5656
11.465
11.3986
11.3259
11.0136
8.88525
8.49341
8.41739
8.2877
8.2877
-8.90577
8.90577
8.94741
9.06624
9.29186
9.6877
9.86702
10.1591
10.5274
10.8973
11.2184
11.4465
11.5519
11.4897
11.4532
11.453
11.2278
8.70836
8.41012
8.40271
8.29854
8.29854
-8.90398
8.90398
8.94919
9.07694
9.31996
9.72025
9.8947
10.1738
10.5335
10.8984
11.2147
11.4369
11.5411
11.5128
11.5044
11.5734
11.4581
8.51884
8.33252
8.39277
8.31107
8.31107
-8.90109
8.90109
8.94927
9.08331
9.33844
9.73498
9.91319
10.1845
10.5382
10.8993
11.2116
11.4289
11.5322
11.5336
11.5489
11.6773
11.6837
8.33656
8.26933
8.38943
8.32563
8.32563
0
8.90109
8.94927
9.08331
9.33844
9.73498
9.91319
10.1845
10.5382
10.8993
11.2116
11.4289
11.5322
11.5336
11.5489
11.6773
11.6837
8.33656
8.26933
8.38943
8.32563
0
0
8.89233
8.89293
8.88612
8.8886
8.86336
9.34465
9.94164
10.4496
10.889
11.2599
11.5381
11.6543
11.3076
11.0336
10.6468
10.1475
9.50945
8.96999
8.57178
8.2538
0
-8.89233
8.89233
8.89293
8.88612
8.8886
8.86336
9.34465
9.94164
10.4496
10.889
11.2599
11.5381
11.6543
11.3076
11.0336
10.6468
10.1475
9.50945
8.96999
8.57178
8.2538
8.2538
-8.89286
8.89286
8.89449
8.88984
8.88739
8.94173
9.37263
9.94638
10.4502
10.8875
11.2565
11.5333
11.6469
11.3071
11.0374
10.6525
10.1567
9.50897
8.96773
8.57171
8.25599
8.25599
-8.89381
8.89381
8.89725
8.89653
8.89291
8.96748
9.40125
9.95523
10.4526
10.8867
11.2532
11.5283
11.64
11.3095
11.0468
10.6639
10.1741
9.50436
8.96065
8.56959
8.25868
8.25868
-8.89511
8.89511
8.90106
8.90627
8.90579
8.9812
9.43062
9.96763
10.4568
10.8865
11.2499
11.523
11.6358
11.3151
11.0613
10.6856
10.1994
9.49625
8.94875
8.56548
8.26192
8.26192
-8.89665
8.89665
8.90555
8.91875
8.92678
9.00132
9.4632
9.98314
10.4624
10.887
11.2467
11.5172
11.6328
11.3239
11.0832
10.7168
10.2324
9.48307
8.93152
8.55941
8.26577
8.26577
-8.89828
8.89828
8.91093
8.93361
8.95603
9.03699
9.50135
10.0016
10.4693
10.888
11.2434
11.5103
11.6269
11.3371
11.1118
10.762
10.2747
9.46383
8.90628
8.55093
8.27024
8.27024
-8.9
8.9
8.91672
8.95074
8.99352
9.09258
9.54607
10.0226
10.4773
10.8893
11.2399
11.5019
11.6168
11.3546
11.1478
10.8195
10.3333
9.43313
8.87247
8.53926
8.27523
8.27523
-8.90163
8.90163
8.92272
8.96945
9.03794
9.16992
9.59642
10.0453
10.4861
10.8909
11.2363
11.4923
11.6035
11.3757
11.1894
10.8881
10.4036
9.3929
8.83299
8.52579
8.28079
8.28079
-8.90304
8.90304
8.92869
8.98898
9.0874
9.26724
9.65067
10.069
10.4952
10.8927
11.2326
11.4819
11.5894
11.3988
11.235
10.9672
10.4883
9.33962
8.78625
8.51095
8.287
8.287
-8.90423
8.90423
8.93441
9.00888
9.13891
9.37479
9.70583
10.0926
10.504
10.894
11.228
11.4703
11.5743
11.4221
11.2829
11.0557
10.5899
9.27154
8.73304
8.49591
8.29452
8.29452
-8.90487
8.90487
8.93932
9.02746
9.18734
9.47204
9.75663
10.115
10.5125
10.8954
11.2238
11.4592
11.5614
11.4455
11.3323
11.1522
10.7101
9.18561
8.674
8.48086
8.30295
8.30295
-8.90482
8.90482
8.94324
9.04387
9.22945
9.54849
9.80025
10.1351
10.5204
10.8968
11.2198
11.4491
11.5503
11.4683
11.382
11.2534
10.8465
9.08426
8.61237
8.46727
8.3126
8.3126
-8.90396
8.90396
8.94595
9.05723
9.26359
9.60213
9.83511
10.1522
10.5274
10.8981
11.2162
11.4402
11.5414
11.4903
11.4305
11.3545
10.9967
8.9711
8.55169
8.45652
8.32368
8.32368
-8.90214
8.90214
8.94729
9.06696
9.28905
9.63659
9.86113
10.1658
10.5331
10.8992
11.2132
11.4326
11.5343
11.5109
11.4755
11.4494
11.1526
8.85466
8.497
8.45015
8.33646
8.33646
-8.89924
8.89924
8.94689
9.07275
9.30612
9.65685
9.87922
10.1757
10.5375
10.9002
11.2108
11.4263
11.5284
11.5299
11.5148