# vtk DataFile Version 3.0
FlowField
ASCII
DATASET STRUCTURED_GRID
DIMENSIONS 102 12 1 
POINTS 1224 double
0 0 0
0.3 0 0
0.6 0 0
0.9 0 0
1.2 0 0
1.5 0 0
1.8 0 0
2.1 0 0
2.4 0 0
2.7 0 0
3 0 0
3.3 0 0
3.6 0 0
3.9 0 0
4.2 0 0
4.5 0 0
4.8 0 0
5.1 0 0
5.4 0 0
5.7 0 0
6 0 0
6.3 0 0
6.6 0 0
6.9 0 0
7.2 0 0
7.5 0 0
7.8 0 0
8.1 0 0
8.4 0 0
8.7 0 0
9 0 0
9.3 0 0
9.6 0 0
9.9 0 0
10.2 0 0
10.5 0 0
10.8 0 0
11.1 0 0
11.4 0 0
11.7 0 0
12 0 0
12.3 0 0
12.6 0 0
12.9 0 0
13.2 0 0
13.5 0 0
13.8 0 0
14.1 0 0
14.4 0 0
14.7 0 0
15 0 0
15.3 0 0
15.6 0 0
15.9 0 0
16.2 0 0
16.5 0 0
16.8 0 0
17.1 0 0
17.4 0 0
17.7 0 0
18 0 0
18.3 0 0
18.6 0 0
18.9 0 0
19.2 0 0
19.5 0 0
19.8 0 0
20.1 0 0
20.4 0 0
20.7 0 0
21 0 0
21.3 0 0
21.6 0 0
21.9 0 0
22.2 0 0
22.5 0 0
22.8 0 0
23.1 0 0
23.4 0 0
23.7 0 0
24 0 0
24.3 0 0
24.6 0 0
24.9 0 0
25.2 0 0
25.5 0 0
25.8 0 0
26.1 0 0
26.4 0 0
26.7 0 0
27 0 0
27.3 0 0
27.6 0 0
27.9 0 0
28.2 0 0
28.5 0 0
28.8 0 0
29.1 0 0
29.4 0 0
29.7 0 0
30 0 0
30.3 0 0
0 0.1 0
0.3 0.1 0
0.6 0.1 0
0.9 0.1 0
1.2 0.1 0
1.5 0.1 0
1.8 0.1 0
2.1 0.1 0
2.4 0.1 0
2.7 0.1 0
3 0.1 0
3.3 0.1 0
3.6 0.1 0
3.9 0.1 0
4.2 0.1 0
4.5 0.1 0
4.8 0.1 0
5.1 0.1 0
5.4 0.1 0
5.7 0.1 0
6 0.1 0
6.3 0.1 0
6.6 0.1 0
6.9 0.1 0
7.2 0.1 0
7.5 0.1 0
7.8 0.1 0
8.1 0.1 0
8.4 0.1 0
8.7 0.1 0
9 0.1 0
9.3 0.1 0
9.6 0.1 0
9.9 0.1 0
10.2 0.1 0
10.5 0.1 0
10.8 0.1 0
11.1 0.1 0
11.4 0.1 0
11.7 0.1 0
12 0.1 0
12.3 0.1 0
12.6 0.1 0
12.9 0.1 0
13.2 0.1 0
13.5 0.1 0
13.8 0.1 0
14.1 0.1 0
14.4 0.1 0
14.7 0.1 0
15 0.1 0
15.3 0.1 0
15.6 0.1 0
15.9 0.1 0
16.2 0.1 0
16.5 0.1 0
16.8 0.1 0
17.1 0.1 0
17.4 0.1 0
17.7 0.1 0
18 0.1 0
18.3 0.1 0
18.6 0.1 0
18.9 0.1 0
19.2 0.1 0
19.5 0.1 0
19.8 0.1 0
20.1 0.1 0
20.4 0.1 0
20.7 0.1 0
21 0.1 0
21.3 0.1 0
21.6 0.1 0
21.9 0.1 0
22.2 0.1 0
22.5 0.1 0
22.8 0.1 0
23.1 0.1 0
23.4 0.1 0
23.7 0.1 0
24 0.1 0
24.3 0.1 0
24.6 0.1 0
24.9 0.1 0
25.2 0.1 0
25.5 0.1 0
25.8 0.1 0
26.1 0.1 0
26.4 0.1 0
26.7 0.1 0
27 0.1 0
27.3 0.1 0
27.6 0.1 0
27.9 0.1 0
28.2 0.1 0
28.5 0.1 0
28.8 0.1 0
29.1 0.1 0
29.4 0.1 0
29.7 0.1 0
30 0.1 0
30.3 0.1 0
0 0.2 0
0.3 0.2 0
0.6 0.2 0
0.9 0.2 0
1.2 0.2 0
1.5 0.2 0
1.8 0.2 0
2.1 0.2 0
2.4 0.2 0
2.7 0.2 0
3 0.2 0
3.3 0.2 0
3.6 0.2 0
3.9 0.2 0
4.2 0.2 0
4.5 0.2 0
4.8 0.2 0
5.1 0.2 0
5.4 0.2 0
5.7 0.2 0
6 0.2 0
6.3 0.2 0
6.6 0.2 0
6.9 0.2 0
7.2 0.2 0
7.5 0.2 0
7.8 0.2 0
8.1 0.2 0
8.4 0.2 0
8.7 0.2 0
9 0.2 0
9.3 0.2 0
9.6 0.2 0
9.9 0.2 0
10.2 0.2 0
10.5 0.2 0
10.8 0.2 0
11.1 0.2 0
11.4 0.2 0
11.7 0.2 0
12 0.2 0
12.3 0.2 0
12.6 0.2 0
12.9 0.2 0
13.2 0.2 0
13.5 0.2 0
13.8 0.2 0
14.1 0.2 0
14.4 0.2 0
14.7 0.2 0
15 0.2 0
15.3 0.2 0
15.6 0.2 0
15.9 0.2 0
16.2 0.2 0
16.5 0.2 0
16.8 0.2 0
17.1 0.2 0
17.4 0.2 0
17.7 0.2 0
18 0.2 0
18.3 0.2 0
18.6 0.2 0
18.9 0.2 0
19.2 0.2 0
19.5 0.2 0
19.8 0.2 0
20.1 0.2 0
20.4 0.2 0
20.7 0.2 0
21 0.2 0
21.3 0.2 0
21.6 0.2 0
21.9 0.2 0
22.2 0.2 0
22.5 0.2 0
22.8 0.2 0
23.1 0.2 0
23.4 0.2 0
23.7 0.2 0
24 0.2 0
24.3 0.2 0
24.6 0.2 0
24.9 0.2 0
25.2 0.2 0
25.5 0.2 0
25.8 0.2 0
26.1 0.2 0
26.4 0.2 0
26.7 0.2 0
27 0.2 0
27.3 0.2 0
27.6 0.2 0
27.9 0.2 0
28.2 0.2 0
28.5 0.2 0
28.8 0.2 0
29.1 0.2 0
29.4 0.2 0
29.7 0.2 0
30 0.2 0
30.3 0.2 0
0 0.3 0
0.3 0.3 0
0.6 0.3 0
0.9 0.3 0
1.2 0.3 0
1.5 0.3 0
1.8 0.3 0
2.1 0.3 0
2.4 0.3 0
2.7 0.3 0
3 0.3 0
3.3 0.3 0
3.6 0.3 0
3.9 0.3 0
4.2 0.3 0
4.5 0.3 0
4.8 0.3 0
5.1 0.3 0
5.4 0.3 0
5.7 0.3 0
6 0.3 0
6.3 0.3 0
6.6 0.3 0
6.9 0.3 0
7.2 0.3 0
7.5 0.3 0
7.8 0.3 0
8.1 0.3 0
8.4 0.3 0
8.7 0.3 0
9 0.3 0
9.3 0.3 0
9.6 0.3 0
9.9 0.3 0
10.2 0.3 0
10.5 0.3 0
10.8 0.3 0
11.1 0.3 0
11.4 0.3 0
11.7 0.3 0
12 0.3 0
12.3 0.3 0
12.6 0.3 0
12.9 0.3 0
13.2 0.3 0
13.5 0.3 0
13.8 0.3 0
14.1 0.3 0
14.4 0.3 0
14.7 0.3 0
15 0.3 0
15.3 0.3 0
15.6 0.3 0
15.9 0.3 0
16.2 0.3 0
16.5 0.3 0
16.8 0.3 0
17.1 0.3 0
17.4 0.3 0
17.7 0.3 0
18 0.3 0
18.3 0.3 0
18.6 0.3 0
18.9 0.3 0
19.2 0.3 0
19.5 0.3 0
19.8 0.3 0
20.1 0.3 0
20.4 0.3 0
20.7 0.3 0
21 0.3 0
21.3 0.3 0
21.6 0.3 0
21.9 0.3 0
22.2 0.3 0
22.5 0.3 0
22.8 0.3 0
23.1 0.3 0
23.4 0.3 0
23.7 0.3 0
24 0.3 0
24.3 0.3 0
24.6 0.3 0
24.9 0.3 0
25.2 0.3 0
25.5 0.3 0
25.8 0.3 0
26.1 0.3 0
26.4 0.3 0
26.7 0.3 0
27 0.3 0
27.3 0.3 0
27.6 0.3 0
27.9 0.3 0
28.2 0.3 0
28.5 0.3 0
28.8 0.3 0
29.1 0.3 0
29.4 0.3 0
29.7 0.3 0
30 0.3 0
30.3 0.3 0
0 0.4 0
0.3 0.4 0
0.6 0.4 0
0.9 0.4 0
1.2 0.4 0
1.5 0.4 0
1.8 0.4 0
2.1 0.4 0
2.4 0.4 0
2.7 0.4 0
3 0.4 0
3.3 0.4 0
3.6 0.4 0
3.9 0.4 0
4.2 0.4 0
4.5 0.4 0
4.8 0.4 0
5.1 0.4 0
5.4 0.4 0
5.7 0.4 0
6 0.4 0
6.3 0.4 0
6.6 0.4 0
6.9 0.4 0
7.2 0.4 0
7.5 0.4 0
7.8 0.4 0
8.1 0.4 0
8.4 0.4 0
8.7 0.4 0
9 0.4 0
9.3 0.4 0
9.6 0.4 0
9.9 0.4 0
10.2 0.4 0
10.5 0.4 0
10.8 0.4 0
11.1 0.4 0
11.4 0.4 0
11.7 0.4 0
12 0.4 0
12.3 0.4 0
12.6 0.4 0
12.9 0.4 0
13.2 0.4 0
13.5 0.4 0
13.8 0.4 0
14.1 0.4 0
14.4 0.4 0
14.7 0.4 0
15 0.4 0
15.3 0.4 0
15.6 0.4 0
15.9 0.4 0
16.2 0.4 0
16.5 0.4 0
16.8 0.4 0
17.1 0.4 0
17.4 0.4 0
17.7 0.4 0
18 0.4 0
18.3 0.4 0
18.6 0.4 0
18.9 0.4 0
19.2 0.4 0
19.5 0.4 0
19.8 0.4 0
20.1 0.4 0
20.4 0.4 0
20.7 0.4 0
21 0.4 0
21.3 0.4 0
21.6 0.4 0
21.9 0.4 0
22.2 0.4 0
22.5 0.4 0
22.8 0.4 0
23.1 0.4 0
23.4 0.4 0
23.7 0.4 0
24 0.4 0
24.3 0.4 0
24.6 0.4 0
24.9 0.4 0
25.2 0.4 0
25.5 0.4 0
25.8 0.4 0
26.1 0.4 0
26.4 0.4 0
26.7 0.4 0
27 0.4 0
27.3 0.4 0
27.6 0.4 0
27.9 0.4 0
28.2 0.4 0
28.5 0.4 0
28.8 0.4 0
29.1 0.4 0
29.4 0.4 0
29.7 0.4 0
30 0.4 0
30.3 0.4 0
0 0.5 0
0.3 0.5 0
0.6 0.5 0
0.9 0.5 0
1.2 0.5 0
1.5 0.5 0
1.8 0.5 0
2.1 0.5 0
2.4 0.5 0
2.7 0.5 0
3 0.5 0
3.3 0.5 0
3.6 0.5 0
3.9 0.5 0
4.2 0.5 0
4.5 0.5 0
4.8 0.5 0
5.1 0.5 0
5.4 0.5 0
5.7 0.5 0
6 0.5 0
6.3 0.5 0
6.6 0.5 0
6.9 0.5 0
7.2 0.5 0
7.5 0.5 0
7.8 0.5 0
8.1 0.5 0
8.4 0.5 0
8.7 0.5 0
9 0.5 0
9.3 0.5 0
9.6 0.5 0
9.9 0.5 0
10.2 0.5 0
10.5 0.5 0
10.8 0.5 0
11.1 0.5 0
11.4 0.5 0
11.7 0.5 0
12 0.5 0
12.3 0.5 0
12.6 0.5 0
12.9 0.5 0
13.2 0.5 0
13.5 0.5 0
13.8 0.5 0
14.1 0.5 0
14.4 0.5 0
14.7 0.5 0
15 0.5 0
15.3 0.5 0
15.6 0.5 0
15.9 0.5 0
16.2 0.5 0
16.5 0.5 0
16.8 0.5 0
17.1 0.5 0
17.4 0.5 0
17.7 0.5 0
18 0.5 0
18.3 0.5 0
18.6 0.5 0
18.9 0.5 0
19.2 0.5 0
19.5 0.5 0
19.8 0.5 0
20.1 0.5 0
20.4 0.5 0
20.7 0.5 0
21 0.5 0
21.3 0.5 0
21.6 0.5 0
21.9 0.5 0
22.2 0.5 0
22.5 0.5 0
22.8 0.5 0
23.1 0.5 0
23.4 0.5 0
23.7 0.5 0
24 0.5 0
24.3 0.5 0
24.6 0.5 0
24.9 0.5 0
25.2 0.5 0
25.5 0.5 0
25.8 0.5 0
26.1 0.5 0
26.4 0.5 0
26.7 0.5 0
27 0.5 0
27.3 0.5 0
27.6 0.5 0
27.9 0.5 0
28.2 0.5 0
28.5 0.5 0
28.8 0.5 0
29.1 0.5 0
29.4 0.5 0
29.7 0.5 0
30 0.5 0
30.3 0.5 0
0 0.6 0
0.3 0.6 0
0.6 0.6 0
0.9 0.6 0
1.2 0.6 0
1.5 0.6 0
1.8 0.6 0
2.1 0.6 0
2.4 0.6 0
2.7 0.6 0
3 0.6 0
3.3 0.6 0
3.6 0.6 0
3.9 0.6 0
4.2 0.6 0
4.5 0.6 0
4.8 0.6 0
5.1 0.6 0
5.4 0.6 0
5.7 0.6 0
6 0.6 0
6.3 0.6 0
6.6 0.6 0
6.9 0.6 0
7.2 0.6 0
7.5 0.6 0
7.8 0.6 0
8.1 0.6 0
8.4 0.6 0
8.7 0.6 0
9 0.6 0
9.3 0.6 0
9.6 0.6 0
9.9 0.6 0
10.2 0.6 0
10.5 0.6 0
10.8 0.6 0
11.1 0.6 0
11.4 0.6 0
11.7 0.6 0
12 0.6 0
12.3 0.6 0
12.6 0.6 0
12.9 0.6 0
13.2 0.6 0
13.5 0.6 0
13.8 0.6 0
14.1 0.6 0
14.4 0.6 0
14.7 0.6 0
15 0.6 0
15.3 0.6 0
15.6 0.6 0
15.9 0.6 0
16.2 0.6 0
16.5 0.6 0
16.8 0.6 0
17.1 0.6 0
17.4 0.6 0
17.7 0.6 0
18 0.6 0
18.3 0.6 0
18.6 0.6 0
18.9 0.6 0
19.2 0.6 0
19.5 0.6 0
19.8 0.6 0
20.1 0.6 0
20.4 0.6 0
20.7 0.6 0
21 0.6 0
21.3 0.6 0
21.6 0.6 0
21.9 0.6 0
22.2 0.6 0
22.5 0.6 0
22.8 0.6 0
23.1 0.6 0
23.4 0.6 0
23.7 0.6 0
24 0.6 0
24.3 0.6 0
24.6 0.6 0
24.9 0.6 0
25.2 0.6 0
25.5 0.6 0
25.8 0.6 0
26.1 0.6 0
26.4 0.6 0
26.7 0.6 0
27 0.6 0
27.3 0.6 0
27.6 0.6 0
27.9 0.6 0
28.2 0.6 0
28.5 0.6 0
28.8 0.6 0
29.1 0.6 0
29.4 0.6 0
29.7 0.6 0
30 0.6 0
30.3 0.6 0
0 0.7 0
0.3 0.7 0
0.6 0.7 0
0.9 0.7 0
1.2 0.7 0
1.5 0.7 0
1.8 0.7 0
2.1 0.7 0
2.4 0.7 0
2.7 0.7 0
3 0.7 0
3.3 0.7 0
3.6 0.7 0
3.9 0.7 0
4.2 0.7 0
4.5 0.7 0
4.8 0.7 0
5.1 0.7 0
5.4 0.7 0
5.7 0.7 0
6 0.7 0
6.3 0.7 0
6.6 0.7 0
6.9 0.7 0
7.2 0.7 0
7.5 0.7 0
7.8 0.7 0
8.1 0.7 0
8.4 0.7 0
8.7 0.7 0
9 0.7 0
9.3 0.7 0
9.6 0.7 0
9.9 0.7 0
10.2 0.7 0
10.5 0.7 0
10.8 0.7 0
11.1 0.7 0
11.4 0.7 0
11.7 0.7 0
12 0.7 0
12.3 0.7 0
12.6 0.7 0
12.9 0.7 0
13.2 0.7 0
13.5 0.7 0
13.8 0.7 0
14.1 0.7 0
14.4 0.7 0
14.7 0.7 0
15 0.7 0
15.3 0.7 0
15.6 0.7 0
15.9 0.7 0
16.2 0.7 0
16.5 0.7 0
16.8 0.7 0
17.1 0.7 0
17.4 0.7 0
17.7 0.7 0
18 0.7 0
18.3 0.7 0
18.6 0.7 0
18.9 0.7 0
19.2 0.7 0
19.5 0.7 0
19.8 0.7 0
20.1 0.7 0
20.4 0.7 0
20.7 0.7 0
21 0.7 0
21.3 0.7 0
21.6 0.7 0
21.9 0.7 0
22.2 0.7 0
22.5 0.7 0
22.8 0.7 0
23.1 0.7 0
23.4 0.7 0
23.7 0.7 0
24 0.7 0
24.3 0.7 0
24.6 0.7 0
24.9 0.7 0
25.2 0.7 0
25.5 0.7 0
25.8 0.7 0
26.1 0.7 0
26.4 0.7 0
26.7 0.7 0
27 0.7 0
27.3 0.7 0
27.6 0.7 0
27.9 0.7 0
28.2 0.7 0
28.5 0.7 0
28.8 0.7 0
29.1 0.7 0
29.4 0.7 0
29.7 0.7 0
30 0.7 0
30.3 0.7 0
0 0.8 0
0.3 0.8 0
0.6 0.8 0
0.9 0.8 0
1.2 0.8 0
1.5 0.8 0
1.8 0.8 0
2.1 0.8 0
2.4 0.8 0
2.7 0.8 0
3 0.8 0
3.3 0.8 0
3.6 0.8 0
3.9 0.8 0
4.2 0.8 0
4.5 0.8 0
4.8 0.8 0
5.1 0.8 0
5.4 0.8 0
5.7 0.8 0
6 0.8 0
6.3 0.8 0
6.6 0.8 0
6.9 0.8 0
7.2 0.8 0
7.5 0.8 0
7.8 0.8 0
8.1 0.8 0
8.4 0.8 0
8.7 0.8 0
9 0.8 0
9.3 0.8 0
9.6 0.8 0
9.9 0.8 0
10.2 0.8 0
10.5 0.8 0
10.8 0.8 0
11.1 0.8 0
11.4 0.8 0
11.7 0.8 0
12 0.8 0
12.3 0.8 0
12.6 0.8 0
12.9 0.8 0
13.2 0.8 0
13.5 0.8 0
13.8 0.8 0
14.1 0.8 0
14.4 0.8 0
14.7 0.8 0
15 0.8 0
15.3 0.8 0
15.6 0.8 0
15.9 0.8 0
16.2 0.8 0
16.5 0.8 0
16.8 0.8 0
17.1 0.8 0
17.4 0.8 0
17.7 0.8 0
18 0.8 0
18.3 0.8 0
18.6 0.8 0
18.9 0.8 0
19.2 0.8 0
19.5 0.8 0
19.8 0.8 0
20.1 0.8 0
20.4 0.8 0
20.7 0.8 0
21 0.8 0
21.3 0.8 0
21.6 0.8 0
21.9 0.8 0
22.2 0.8 0
22.5 0.8 0
22.8 0.8 0
23.1 0.8 0
23.4 0.8 0
23.7 0.8 0
24 0.8 0
24.3 0.8 0
24.6 0.8 0
24.9 0.8 0
25.2 0.8 0
25.5 0.8 0
25.8 0.8 0
26.1 0.8 0
26.4 0.8 0
26.7 0.8 0
27 0.8 0
27.3 0.8 0
27.6 0.8 0
27.9 0.8 0
28.2 0.8 0
28.5 0.8 0
28.8 0.8 0
29.1 0.8 0
29.4 0.8 0
29.7 0.8 0
30 0.8 0
30.3 0.8 0
0 0.9 0
0.3 0.9 0
0.6 0.9 0
0.9 0.9 0
1.2 0.9 0
1.5 0.9 0
1.8 0.9 0
2.1 0.9 0
2.4 0.9 0
2.7 0.9 0
3 0.9 0
3.3 0.9 0
3.6 0.9 0
3.9 0.9 0
4.2 0.9 0
4.5 0.9 0
4.8 0.9 0
5.1 0.9 0
5.4 0.9 0
5.7 0.9 0
6 0.9 0
6.3 0.9 0
6.6 0.9 0
6.9 0.9 0
7.2 0.9 0
7.5 0.9 0
7.8 0.9 0
8.1 0.9 0
8.4 0.9 0
8.7 0.9 0
9 0.9 0
9.3 0.9 0
9.6 0.9 0
9.9 0.9 0
10.2 0.9 0
10.5 0.9 0
10.8 0.9 0
11.1 0.9 0
11.4 0.9 0
11.7 0.9 0
12 0.9 0
12.3 0.9 0
12.6 0.9 0
12.9 0.9 0
13.2 0.9 0
13.5 0.9 0
13.8 0.9 0
14.1 0.9 0
14.4 0.9 0
14.7 0.9 0
15 0.9 0
15.3 0.9 0
15.6 0.9 0
15.9 0.9 0
16.2 0.9 0
16.5 0.9 0
16.8 0.9 0
17.1 0.9 0
17.4 0.9 0
17.7 0.9 0
18 0.9 0
18.3 0.9 0
18.6 0.9 0
18.9 0.9 0
19.2 0.9 0
19.5 0.9 0
19.8 0.9 0
20.1 0.9 0
20.4 0.9 0
20.7 0.9 0
21 0.9 0
21.3 0.9 0
21.6 0.9 0
21.9 0.9 0
22.2 0.9 0
22.5 0.9 0
22.8 0.9 0
23.1 0.9 0
23.4 0.9 0
23.7 0.9 0
24 0.9 0
24.3 0.9 0
24.6 0.9 0
24.9 0.9 0
25.2 0.9 0
25.5 0.9 0
25.8 0.9 0
26.1 0.9 0
26.4 0.9 0
26.7 0.9 0
27 0.9 0
27.3 0.9 0
27.6 0.9 0
27.9 0.9 0
28.2 0.9 0
28.5 0.9 0
28.8 0.9 0
29.1 0.9 0
29.4 0.9 0
29.7 0.9 0
30 0.9 0
30.3 0.9 0
0 1 0
0.3 1 0
0.6 1 0
0.9 1 0
1.2 1 0
1.5 1 0
1.8 1 0
2.1 1 0
2.4 1 0
2.7 1 0
3 1 0
3.3 1 0
3.6 1 0
3.9 1 0
4.2 1 0
4.5 1 0
4.8 1 0
5.1 1 0
5.4 1 0
5.7 1 0
6 1 0
6.3 1 0
6.6 1 0
6.9 1 0
7.2 1 0
7.5 1 0
7.8 1 0
8.1 1 0
8.4 1 0
8.7 1 0
9 1 0
9.3 1 0
9.6 1 0
9.9 1 0
10.2 1 0
10.5 1 0
10.8 1 0
11.1 1 0
11.4 1 0
11.7 1 0
12 1 0
12.3 1 0
12.6 1 0
12.9 1 0
13.2 1 0
13.5 1 0
13.8 1 0
14.1 1 0
14.4 1 0
14.7 1 0
15 1 0
15.3 1 0
15.6 1 0
15.9 1 0
16.2 1 0
16.5 1 0
16.8 1 0
17.1 1 0
17.4 1 0
17.7 1 0
18 1 0
18.3 1 0
18.6 1 0
18.9 1 0
19.2 1 0
19.5 1 0
19.8 1 0
20.1 1 0
20.4 1 0
20.7 1 0
21 1 0
21.3 1 0
21.6 1 0
21.9 1 0
22.2 1 0
22.5 1 0
22.8 1 0
23.1 1 0
23.4 1 0
23.7 1 0
24 1 0
24.3 1 0
24.6 1 0
24.9 1 0
25.2 1 0
25.5 1 0
25.8 1 0
26.1 1 0
26.4 1 0
26.7 1 0
27 1 0
27.3 1 0
27.6 1 0
27.9 1 0
28.2 1 0
28.5 1 0
28.8 1 0
29.1 1 0
29.4 1 0
29.7 1 0
30 1 0
30.3 1 0
0 1.1 0
0.3 1.1 0
0.6 1.1 0
0.9 1.1 0
1.2 1.1 0
1.5 1.1 0
1.8 1.1 0
2.1 1.1 0
2.4 1.1 0
2.7 1.1 0
3 1.1 0
3.3 1.1 0
3.6 1.1 0
3.9 1.1 0
4.2 1.1 0
4.5 1.1 0
4.8 1.1 0
5.1 1.1 0
5.4 1.1 0
5.7 1.1 0
6 1.1 0
6.3 1.1 0
6.6 1.1 0
6.9 1.1 0
7.2 1.1 0
7.5 1.1 0
7.8 1.1 0
8.1 1.1 0
8.4 1.1 0
8.7 1.1 0
9 1.1 0
9.3 1.1 0
9.6 1.1 0
9.9 1.1 0
10.2 1.1 0
10.5 1.1 0
10.8 1.1 0
11.1 1.1 0
11.4 1.1 0
11.7 1.1 0
12 1.1 0
12.3 1.1 0
12.6 1.1 0
12.9 1.1 0
13.2 1.1 0
13.5 1.1 0
13.8 1.1 0
14.1 1.1 0
14.4 1.1 0
14.7 1.1 0
15 1.1 0
15.3 1.1 0
15.6 1.1 0
15.9 1.1 0
16.2 1.1 0
16.5 1.1 0
16.8 1.1 0
17.1 1.1 0
17.4 1.1 0
17.7 1.1 0
18 1.1 0
18.3 1.1 0
18.6 1.1 0
18.9 1.1 0
19.2 1.1 0
19.5 1.1 0
19.8 1.1 0
20.1 1.1 0
20.4 1.1 0
20.7 1.1 0
21 1.1 0
21.3 1.1 0
21.6 1.1 0
21.9 1.1 0
22.2 1.1 0
22.5 1.1 0
22.8 1.1 0
23.1 1.1 0
23.4 1.1 0
23.7 1.1 0
24 1.1 0
24.3 1.1 0
24.6 1.1 0
24.9 1.1 0
25.2 1.1 0
25.5 1.1 0
25.8 1.1 0
26.1 1.1 0
26.4 1.1 0
26.7 1.1 0
27 1.1 0
27.3 1.1 0
27.6 1.1 0
27.9 1.1 0
28.2 1.1 0
28.5 1.1 0
28.8 1.1 0
29.1 1.1 0
29.4 1.1 0
29.7 1.1 0
30 1.1 0
30.3 1.1 0

POINT_DATA 1224

SCALARS pressure double
LOOKUP_TABLE pressure
1.31576
1.31576
1.24925
1.20217
1.15922
1.11956
1.08354
1.05115
1.02205
0.995716
0.971603
0.94925
0.928279
0.908398
0.889391
0.871101
0.85341
0.836229
0.819491
0.80314
0.787135
0.771444
0.756036
0.740883
0.725965
0.711264
0.696762
0.682444
0.668295
0.654304
0.64046
0.626751
0.613168
0.599703
0.586347
0.573093
0.559934
0.546864
0.533877
0.520968
0.508131
0.495362
0.482656
0.470009
0.457418
0.444879
0.432388
0.419943
0.407541
0.395179
0.382854
0.370564
0.358307
0.346081
0.333884
0.321713
0.309568
0.297447
0.285348
0.27327
0.261212
0.249172
0.237149
0.225142
0.21315
0.201173
0.189209
0.177257
0.165317
0.153388
0.141469
0.12956
0.11766
0.105768
0.0938842
0.0820079
0.0701385
0.0582757
0.046419
0.0345681
0.0227225
0.010882
-0.000953728
-0.0127851
-0.0246122
-0.0364355
-0.0482551
-0.0600713
-0.0718843
-0.0836943
-0.0955014
-0.107306
-0.119108
-0.130907
-0.142705
-0.1545
-0.166294
-0.178085
-0.189875
-0.201663
-0.21345
0.21345
1.31576
1.31576
1.24925
1.20217
1.15922
1.11956
1.08354
1.05115
1.02205
0.995716
0.971603
0.94925
0.928279
0.908398
0.889391
0.871101
0.85341
0.836229
0.819491
0.80314
0.787135
0.771444
0.756036
0.740883
0.725965
0.711264
0.696762
0.682444
0.668295
0.654304
0.64046
0.626751
0.613168
0.599703
0.586347
0.573093
0.559934
0.546864
0.533877
0.520968
0.508131
0.495362
0.482656
0.470009
0.457418
0.444879
0.432388
0.419943
0.407541
0.395179
0.382854
0.370564
0.358307
0.346081
0.333884
0.321713
0.309568
0.297447
0.285348
0.27327
0.261212
0.249172
0.237149
0.225142
0.21315
0.201173
0.189209
0.177257
0.165317
0.153388
0.141469
0.12956
0.11766
0.105768
0.0938842
0.0820079
0.0701385
0.0582757
0.046419
0.0345681
0.0227225
0.010882
-0.000953728
-0.0127851
-0.0246122
-0.0364355
-0.0482551
-0.0600713
-0.0718843
-0.0836943
-0.0955014
-0.107306
-0.119108
-0.130907
-0.142705
-0.1545
-0.166294
-0.178085
-0.189875
-0.201663
-0.21345
0.21345
1.29511
1.29511
1.24745
1.20248
1.15993
1.12033
1.08424
1.05174
1.02253
0.996085
0.971889
0.949472
0.928452
0.908535
0.889502
0.871193
0.853488
0.836296
0.819548
0.80319
0.787181
0.771485
0.756072
0.740915
0.725994
0.711291
0.696787
0.682467
0.668316
0.654323
0.640477
0.626767
0.613183
0.599717
0.58636
0.573105
0.559945
0.546875
0.533887
0.520977
0.508139
0.495369
0.482663
0.470016
0.457424
0.444885
0.432394
0.419949
0.407546
0.395183
0.382858
0.370568
0.358311
0.346084
0.333887
0.321716
0.309571
0.29745
0.285351
0.273272
0.261214
0.249174
0.237151
0.225144
0.213152
0.201174
0.18921
0.177258
0.165318
0.153389
0.14147
0.129561
0.117661
0.105769
0.0938851
0.0820087
0.0701393
0.0582764
0.0464197
0.0345687
0.0227231
0.0108826
-0.000953212
-0.0127846
-0.0246118
-0.0364351
-0.0482547
-0.0600709
-0.0718839
-0.0836939
-0.0955011
-0.107306
-0.119108
-0.130907
-0.142705
-0.1545
-0.166293
-0.178085
-0.189874
-0.201663
-0.213449
0.213449
1.28072
1.28072
1.24494
1.20287
1.16106
1.1216
1.08541
1.05274
1.02332
0.996691
0.972345
0.949813
0.928708
0.908729
0.889652
0.871312
0.853583
0.836375
0.819614
0.803246
0.787229
0.771527
0.756109
0.740948
0.726024
0.711318
0.696811
0.682488
0.668336
0.654341
0.640494
0.626782
0.613197
0.599729
0.586371
0.573115
0.559955
0.546884
0.533895
0.520984
0.508146
0.495376
0.482669
0.470022
0.45743
0.44489
0.432399
0.419953
0.40755
0.395187
0.382862
0.370571
0.358314
0.346087
0.333889
0.321719
0.309573
0.297452
0.285353
0.273274
0.261216
0.249175
0.237152
0.225145
0.213153
0.201176
0.189211
0.177259
0.165319
0.15339
0.141471
0.129562
0.117661
0.10577
0.0938858
0.0820094
0.0701399
0.058277
0.0464202
0.0345692
0.0227236
0.010883
-0.0009528
-0.0127842
-0.0246114
-0.0364347
-0.0482544
-0.0600706
-0.0718837
-0.0836937
-0.0955008
-0.107305
-0.119107
-0.130907
-0.142704
-0.1545
-0.166293
-0.178085
-0.189874
-0.201662
-0.213446
0.213446
1.27203
1.27203
1.24293
1.20313
1.16199
1.12268
1.08645
1.05363
1.02405
0.99727
0.972794
0.950158
0.928974
0.908936
0.889817
0.871445
0.853693
0.836466
0.819692
0.803313
0.787288
0.771578
0.756153
0.740988
0.72606
0.71135
0.696839
0.682514
0.668359
0.654363
0.640513
0.6268
0.613213
0.599744
0.586385
0.573128
0.559967
0.546894
0.533905
0.520994
0.508155
0.495384
0.482676
0.470028
0.457436
0.444896
0.432404
0.419958
0.407555
0.395191
0.382866
0.370575
0.358317
0.34609
0.333892
0.321722
0.309576
0.297454
0.285355
0.273277
0.261218
0.249177
0.237154
0.225147
0.213155
0.201177
0.189213
0.177261
0.16532
0.153391
0.141472
0.129563
0.117662
0.105771
0.0938866
0.0820101
0.0701406
0.0582777
0.0464209
0.0345698
0.0227241
0.0108835
-0.000952324
-0.0127837
-0.024611
-0.0364344
-0.048254
-0.0600703
-0.0718833
-0.0836934
-0.0955005
-0.107305
-0.119107
-0.130907
-0.142704
-0.1545
-0.166293
-0.178084
-0.189874
-0.201661
-0.21344
0.21344
1.26795
1.26795
1.24185
1.20325
1.16248
1.12326
1.08701
1.05413
1.02447
0.997604
0.973058
0.950366
0.929137
0.909067
0.889923
0.871532
0.853766
0.836528
0.819745
0.80336
0.787329
0.771615
0.756186
0.741017
0.726086
0.711373
0.696861
0.682533
0.668377
0.654379
0.640528
0.626813
0.613225
0.599755
0.586395
0.573138
0.559975
0.546902
0.533913
0.521001
0.508161
0.49539
0.482682
0.470034
0.457441
0.4449
0.432408
0.419962
0.407558
0.395195
0.382869
0.370578
0.35832
0.346093
0.333895
0.321724
0.309578
0.297456
0.285357
0.273278
0.261219
0.249179
0.237155
0.225148
0.213156
0.201178
0.189214
0.177262
0.165321
0.153392
0.141473
0.129564
0.117663
0.105771
0.0938872
0.0820107
0.0701412
0.0582782
0.0464214
0.0345703
0.0227246
0.0108839
-0.000951946
-0.0127834
-0.0246107
-0.036434
-0.0482538
-0.06007
-0.0718831
-0.0836931
-0.0955003
-0.107305
-0.119107
-0.130907
-0.142704
-0.154499
-0.166293
-0.178084
-0.189874
-0.20166
-0.213436
0.213436
1.26795
1.26795
1.24185
1.20325
1.16248
1.12326
1.08701
1.05413
1.02447
0.997604
0.973058
0.950365
0.929137
0.909067
0.889923
0.871532
0.853766
0.836528
0.819745
0.803361
0.787329
0.771615
0.756186
0.741017
0.726086
0.711373
0.696861
0.682533
0.668377
0.654379
0.640528
0.626813
0.613225
0.599755
0.586395
0.573138
0.559975
0.546902
0.533913
0.521001
0.508161
0.49539
0.482682
0.470034
0.457441
0.4449
0.432408
0.419962
0.407558
0.395195
0.382869
0.370578
0.35832
0.346093
0.333895
0.321724
0.309578
0.297456
0.285357
0.273278
0.261219
0.249179
0.237155
0.225148
0.213156
0.201178
0.189214
0.177262
0.165321
0.153392
0.141473
0.129564
0.117663
0.105771
0.0938872
0.0820107
0.0701412
0.0582782
0.0464214
0.0345703
0.0227246
0.0108839
-0.000951947
-0.0127834
-0.0246107
-0.036434
-0.0482538
-0.06007
-0.0718831
-0.0836931
-0.0955003
-0.107305
-0.119107
-0.130907
-0.142704
-0.154499
-0.166293
-0.178084
-0.189874
-0.20166
-0.213436
0.213436
1.27203
1.27203
1.24293
1.20313
1.16199
1.12268
1.08645
1.05363
1.02405
0.99727
0.972794
0.950158
0.928973
0.908937
0.889818
0.871445
0.853693
0.836466
0.819692
0.803314
0.787288
0.771578
0.756153
0.740988
0.72606
0.711349
0.696839
0.682514
0.668359
0.654363
0.640513
0.6268
0.613213
0.599744
0.586385
0.573128
0.559966
0.546894
0.533905
0.520994
0.508155
0.495384
0.482676
0.470028
0.457436
0.444896
0.432404
0.419958
0.407555
0.395191
0.382866
0.370575
0.358317
0.34609
0.333892
0.321722
0.309576
0.297454
0.285355
0.273277
0.261218
0.249177
0.237154
0.225147
0.213155
0.201177
0.189213
0.177261
0.16532
0.153391
0.141472
0.129563
0.117662
0.105771
0.0938866
0.0820101
0.0701406
0.0582777
0.0464209
0.0345698
0.0227241
0.0108835
-0.000952326
-0.0127837
-0.024611
-0.0364344
-0.048254
-0.0600703
-0.0718833
-0.0836934
-0.0955005
-0.107305
-0.119107
-0.130907
-0.142704
-0.1545
-0.166293
-0.178084
-0.189874
-0.201661
-0.21344
0.21344
1.28072
1.28072
1.24494
1.20287
1.16106
1.1216
1.08541
1.05274
1.02332
0.996691
0.972346
0.949813
0.928707
0.908729
0.889653
0.871312
0.853583
0.836374
0.819614
0.803247
0.78723
0.771527
0.756108
0.740948
0.726024
0.711317
0.696811
0.682488
0.668336
0.654341
0.640494
0.626782
0.613197
0.599729
0.586371
0.573115
0.559955
0.546884
0.533895
0.520985
0.508146
0.495376
0.482669
0.470022
0.45743
0.44489
0.432399
0.419953
0.40755
0.395187
0.382862
0.370571
0.358314
0.346087
0.333889
0.321719
0.309573
0.297452
0.285353
0.273274
0.261216
0.249175
0.237152
0.225145
0.213153
0.201176
0.189211
0.177259
0.165319
0.15339
0.141471
0.129562
0.117661
0.10577
0.0938858
0.0820094
0.0701399
0.058277
0.0464202
0.0345692
0.0227236
0.010883
-0.000952803
-0.0127842
-0.0246114
-0.0364347
-0.0482544
-0.0600706
-0.0718837
-0.0836937
-0.0955008
-0.107305
-0.119107
-0.130907
-0.142704
-0.1545
-0.166293
-0.178085
-0.189874
-0.201662
-0.213446
0.213446
1.29511
1.29511
1.24745
1.20248
1.15993
1.12033
1.08424
1.05174
1.02253
0.996085
0.97189
0.949472
0.928452
0.908535
0.889503
0.871193
0.853488
0.836296
0.819548
0.803191
0.787181
0.771485
0.756071
0.740915
0.725995
0.711291
0.696787
0.682466
0.668316
0.654324
0.640477
0.626767
0.613183
0.599717
0.58636
0.573105
0.559945
0.546875
0.533887
0.520977
0.508139
0.495369
0.482663
0.470016
0.457424
0.444885
0.432394
0.419949
0.407546
0.395183
0.382858
0.370568
0.358311
0.346084
0.333887
0.321716
0.309571
0.29745
0.285351
0.273272
0.261214
0.249174
0.237151
0.225144
0.213152
0.201174
0.18921
0.177258
0.165318
0.153389
0.14147
0.129561
0.117661
0.105769
0.0938851
0.0820087
0.0701393
0.0582764
0.0464197
0.0345687
0.0227231
0.0108826
-0.000953217
-0.0127846
-0.0246118
-0.0364351
-0.0482547
-0.0600709
-0.0718839
-0.0836939
-0.0955011
-0.107306
-0.119108
-0.130907
-0.142705
-0.1545
-0.166293
-0.178085
-0.189874
-0.201663
-0.213449
0.213449
1.31576
1.31576
1.24925
1.20217
1.15922
1.11956
1.08354
1.05115
1.02205
0.995715
0.971604
0.949251
0.928279
0.908397
0.889391
0.871101
0.85341
0.836229
0.81949
0.80314
0.787136
0.771445
0.756035
0.740882
0.725965
0.711264
0.696762
0.682444
0.668295
0.654304
0.64046
0.626751
0.613168
0.599703
0.586347
0.573093
0.559934
0.546864
0.533877
0.520968
0.508131
0.495362
0.482656
0.470009
0.457418
0.444879
0.432388
0.419943
0.407541
0.395179
0.382854
0.370564
0.358307
0.346081
0.333883
0.321713
0.309568
0.297447
0.285348
0.27327
0.261212
0.249172
0.237149
0.225142
0.21315
0.201173
0.189209
0.177257
0.165317
0.153388
0.141469
0.12956
0.11766
0.105768
0.0938842
0.0820079
0.0701385
0.0582757
0.046419
0.0345681
0.0227225
0.010882
-0.000953733
-0.0127851
-0.0246122
-0.0364355
-0.0482551
-0.0600713
-0.0718843
-0.0836943
-0.0955014
-0.107306
-0.119108
-0.130907
-0.142705
-0.1545
-0.166294
-0.178085
-0.189875
-0.201663
-0.21345
0.21345
1.31576
1.31576
1.24925
1.20217
1.15922
1.11956
1.08354
1.05115
1.02205
0.995715
0.971604
0.949251
0.928279
0.908397
0.889391
0.871101
0.85341
0.836229
0.81949
0.80314
0.787136
0.771445
0.756035
0.740882
0.725965
0.711264
0.696762
0.682444
0.668295
0.654304
0.64046
0.626751
0.613168
0.599703
0.586347
0.573093
0.559934
0.546864
0.533877
0.520968
0.508131
0.495362
0.482656
0.470009
0.457418
0.444879
0.432388
0.419943
0.407541
0.395179
0.382854
0.370564
0.358307
0.346081
0.333883
0.321713
0.309568
0.297447
0.285348
0.27327
0.261212
0.249172
0.237149
0.225142
0.21315
0.201173
0.189209
0.177257
0.165317
0.153388
0.141469
0.12956
0.11766
0.105768
0.0938842
0.0820079
0.0701385
0.0582757
0.046419
0.0345681
0.0227225
0.010882
-0.000953733
-0.0127851
-0.0246122
-0.0364355
-0.0482551
-0.0600713
-0.0718843
-0.0836943
-0.0955014
-0.107306
-0.119108
-0.130907
-0.142705
-0.1545
-0.166294
-0.178085
-0.189875
-0.201663
-0.21345
0.21345
SCALARS phi double
LOOKUP_TABLE phi
1
1
1
0.999995
0.999977
0.999931
0.999833
0.999655
0.999364
0.998929
0.998323
0.997523
0.996513
0.995279
0.993815
0.992118
0.990189
0.988032
0.985653
0.983059
0.980261
0.97727
0.974097
0.970755
0.967257
0.963614
0.95984
0.955947
0.951946
0.94785
0.943669
0.939411
0.935085
0.930691
0.926228
0.921688
0.917055
0.912309
0.90742
0.902355
0.897076
0.891545
0.885718
0.879557
0.873024
0.866083
0.858706
0.850867
0.842547
0.833734
0.824422
0.814609
0.8043
0.793507
0.782245
0.770533
0.758394
0.745856
0.732947
0.719699
0.706142
0.692312
0.678241
0.663964
0.649514
0.634923
0.620224
0.605447
0.590623
0.575779
0.560942
0.546138
0.531389
0.516718
0.502144
0.487687
0.473364
0.45919
0.445179
0.431343
0.417694
0.404242
0.390994
0.377959
0.365143
0.352551
0.340187
0.328055
0.316158
0.304498
0.293076
0.281892
0.270946
0.26024
0.24977
0.239542
0.229529
0.219821
0.210099
0.201466
0.189996
0.189996
1
1
1
0.999995
0.999977
0.999931
0.999833
0.999655
0.999364
0.998929
0.998323
0.997523
0.996513
0.995279
0.993815
0.992118
0.990189
0.988032
0.985653
0.983059
0.980261
0.97727
0.974097
0.970755
0.967257
0.963614
0.95984
0.955947
0.951946
0.94785
0.943669
0.939411
0.935085
0.930691
0.926228
0.921688
0.917055
0.912309
0.90742
0.902355
0.897076
0.891545
0.885718
0.879557
0.873024
0.866083
0.858706
0.850867
0.842547
0.833734
0.824422
0.814609
0.8043
0.793507
0.782245
0.770533
0.758394
0.745856
0.732947
0.719699
0.706142
0.692312
0.678241
0.663964
0.649514
0.634923
0.620224
0.605447
0.590623
0.575779
0.560942
0.546138
0.531389
0.516718
0.502144
0.487687
0.473364
0.45919
0.445179
0.431343
0.417694
0.404242
0.390994
0.377959
0.365143
0.352551
0.340187
0.328055
0.316158
0.304498
0.293076
0.281892
0.270946
0.26024
0.24977
0.239542
0.229529
0.219821
0.210099
0.201466
0.189996
0.189996
0.999998
1
0.999984
0.999921
0.999783
0.999536
0.999146
0.99858
0.997812
0.996819
0.99559
0.994116
0.992398
0.990437
0.98824
0.985817
0.983177
0.980333
0.977297
0.974081
0.9707
0.967166
0.963491
0.95969
0.955773
0.951752
0.947639
0.943445
0.939178
0.93485
0.930469
0.926043
0.921579
0.917083
0.91256
0.908009
0.90343
0.898816
0.894157
0.889439
0.884643
0.879748
0.874726
0.869552
0.864194
0.858624
0.852811
0.846728
0.840347
0.833645
0.826601
0.8192
0.811427
0.803274
0.794736
0.785813
0.776507
0.766826
0.756779
0.746379
0.735641
0.724585
0.713229
0.701595
0.689705
0.677583
0.665252
0.652738
0.640064
0.627253
0.614331
0.60132
0.588243
0.575121
0.561976
0.548826
0.535692
0.52259
0.509537
0.49655
0.483641
0.470826
0.458116
0.445522
0.433054
0.420723
0.408536
0.3965
0.384622
0.372909
0.361364
0.349992
0.338797
0.327782
0.316946
0.306303
0.295815
0.285613
0.275263
0.266213
0.253631
0.253631
1.00001
0.999992
0.99954
0.998615
0.997207
0.995317
0.992955
0.990145
0.986922
0.983332
0.979422
0.975241
0.970836
0.966248
0.961513
0.956664
0.951728
0.946728
0.941682
0.936608
0.931519
0.926427
0.921341
0.916268
0.911216
0.906189
0.901194
0.896232
0.891307
0.886422
0.881579
0.87678
0.872025
0.867316
0.862653
0.858036
0.853464
0.848935
0.844445
0.839989
0.835561
0.831151
0.826748
0.82234
0.817911
0.813445
0.808925
0.804331
0.799643
0.794842
0.789909
0.784822
0.779565
0.77412
0.768471
0.762605
0.75651
0.750175
0.743593
0.73676
0.72967
0.722323
0.714721
0.706866
0.698762
0.690416
0.681836
0.673031
0.664011
0.654788
0.645374
0.635782
0.626025
0.616117
0.606072
0.595903
0.585627
0.575255
0.564802
0.554282
0.543708
0.533092
0.522448
0.511786
0.501118
0.490456
0.479808
0.469185
0.458596
0.44805
0.437553
0.427114
0.416739
0.406436
0.396204
0.386065
0.375975
0.366092
0.355923
0.34707
0.334396
0.334396
1.00143
0.99857
0.991253
0.98188
0.971566
0.96086
0.950051
0.939311
0.928756
0.918468
0.908503
0.898898
0.889671
0.880827
0.87236
0.864261
0.856513
0.849098
0.841997
0.835192
0.828664
0.822396
0.816369
0.810569
0.80498
0.799588
0.794382
0.789348
0.784477
0.779758
0.775181
0.770738
0.766422
0.762224
0.758139
0.754159
0.750279
0.746493
0.742795
0.73918
0.735643
0.732176
0.728775
0.725431
0.722137
0.718885
0.715666
0.71247
0.709286
0.706103
0.70291
0.699694
0.696443
0.693143
0.689782
0.686348
0.682827
0.679208
0.675479
0.67163
0.66765
0.663531
0.659264
0.654842
0.650259
0.645511
0.640593
0.635502
0.630238
0.624798
0.619184
0.613397
0.607439
0.601312
0.59502
0.588568
0.581961
0.575203
0.5683
0.561259
0.554086
0.546788
0.539372
0.531844
0.524212
0.516483
0.508663
0.500761
0.492782
0.484734
0.476622
0.468455
0.460236
0.451974
0.44367
0.435345
0.426955
0.418656
0.40998
0.402418
0.391304
0.391304
1.0456
0.954401
0.887723
0.838674
0.801641
0.772861
0.749886
0.731119
0.715499
0.702298
0.691001
0.681228
0.672693
0.665173
0.658493
0.652515
0.647126
0.642236
0.637772
0.633673
0.629891
0.626382
0.623115
0.620059
0.61719
0.614489
0.611936
0.609518
0.607221
0.605034
0.602947
0.60095
0.599038
0.597202
0.595437
0.593737
0.592097
0.590514
0.588982
0.587499
0.586061
0.584665
0.583307
0.581984
0.580693
0.579431
0.578193
0.576977
0.575777
0.57459
0.573411
0.572234
0.571053
0.569864
0.568659
0.567431
0.566175
0.564882
0.563546
0.562159
0.560714
0.559202
0.557618
0.555953
0.554201
0.552354
0.550407
0.548353
0.546186
0.543901
0.541493
0.538958
0.536292
0.53349
0.530551
0.527471
0.524249
0.520882
0.51737
0.513712
0.509907
0.505955
0.501857
0.497613
0.493224
0.488692
0.484019
0.479205
0.474253
0.469166
0.463944
0.458593
0.453112
0.447507
0.441776
0.435936
0.429948
0.423942
0.417533
0.411922
0.403413
0.403413
-0.0455988
0.0455988
0.112277
0.161326
0.198359
0.227139
0.250114
0.268881
0.284501
0.297702
0.308999
0.318772
0.327307
0.334827
0.341507
0.347485
0.352874
0.357764
0.362228
0.366326
0.370109
0.373617
0.376885
0.379941
0.38281
0.385511
0.388064
0.390482
0.392779
0.394966
0.397053
0.39905
0.400962
0.402798
0.404563
0.406263
0.407903
0.409486
0.411017
0.412499
0.413936
0.41533
0.416683
0.417999
0.419279
0.420524
0.421737
0.422917
0.424067
0.425187
0.426276
0.427336
0.428364
0.429361
0.430326
0.431256
0.43215
0.433006
0.433821
0.434593
0.435317
0.43599
0.436608
0.437168
0.437664
0.438093
0.438448
0.438726
0.438921
0.439028
0.439041
0.438956
0.438767
0.438469
0.438056
0.437524
0.436867
0.436081
0.435161
0.434103
0.432902
0.431555
0.430057
0.428406
0.426597
0.424628
0.422497
0.4202