# vtk DataFile Version 3.0
FlowField
ASCII
DATASET STRUCTURED_GRID
DIMENSIONS 22 17 12 
POINTS 4488 double
0 0 0
0.1 0 0
0.2 0 0
0.3 0 0
0.4 0 0
0.5 0 0
0.6 0 0
0.7 0 0
0.8 0 0
0.9 0 0
1 0 0
1.1 0 0
1.2 0 0
1.3 0 0
1.4 0 0
1.5 0 0
1.6 0 0
1.7 0 0
1.8 0 0
1.9 0 0
2 0 0
2.1 0 0
0 0.1 0
0.1 0.1 0
0.2 0.1 0
0.3 0.1 0
0.4 0.1 0
0.5 0.1 0
0.6 0.1 0
0.7 0.1 0
0.8 0.1 0
0.9 0.1 0
1 0.1 0
1.1 0.1 0
1.2 0.1 0
1.3 0.1 0
1.4 0.1 0
1.5 0.1 0
1.6 0.1 0
1.7 0.1 0
1.8 0.1 0
1.9 0.1 0
2 0.1 0
2.1 0.1 0
0 0.2 0
0.1 0.2 0
0.2 0.2 0
0.3 0.2 0
0.4 0.2 0
0.5 0.2 0
0.6 0.2 0
0.7 0.2 0
0.8 0.2 0
0.9 0.2 0
1 0.2 0
1.1 0.2 0
1.2 0.2 0
1.3 0.2 0
1.4 0.2 0
1.5 0.2 0
1.6 0.2 0
1.7 0.2 0
1.8 0.2 0
1.9 0.2 0
2 0.2 0
2.1 0.2 0
0 0.3 0
0.1 0.3 0
0.2 0.3 0
0.3 0.3 0
0.4 0.3 0
0.5 0.3 0
0.6 0.3 0
0.7 0.3 0
0.8 0.3 0
0.9 0.3 0
1 0.3 0
1.1 0.3 0
1.2 0.3 0
1.3 0.3 0
1.4 0.3 0
1.5 0.3 0
1.6 0.3 0
1.7 0.3 0
1.8 0.3 0
1.9 0.3 0
2 0.3 0
2.1 0.3 0
0 0.4 0
0.1 0.4 0
0.2 0.4 0
0.3 0.4 0
0.4 0.4 0
0.5 0.4 0
0.6 0.4 0
0.7 0.4 0
0.8 0.4 0
0.9 0.4 0
1 0.4 0
1.1 0.4 0
1.2 0.4 0
1.3 0.4 0
1.4 0.4 0
1.5 0.4 0
1.6 0.4 0
1.7 0.4 0
1.8 0.4 0
1.9 0.4 0
2 0.4 0
2.1 0.4 0
0 0.5 0
0.1 0.5 0
0.2 0.5 0
0.3 0.5 0
0.4 0.5 0
0.5 0.5 0
0.6 0.5 0
0.7 0.5 0
0.8 0.5 0
0.9 0.5 0
1 0.5 0
1.1 0.5 0
1.2 0.5 0
1.3 0.5 0
1.4 0.5 0
1.5 0.5 0
1.6 0.5 0
1.7 0.5 0
1.8 0.5 0
1.9 0.5 0
2 0.5 0
2.1 0.5 0
0 0.6 0
0.1 0.6 0
0.2 0.6 0
0.3 0.6 0
0.4 0.6 0
0.5 0.6 0
0.6 0.6 0
0.7 0.6 0
0.8 0.6 0
0.9 0.6 0
1 0.6 0
1.1 0.6 0
1.2 0.6 0
1.3 0.6 0
1.4 0.6 0
1.5 0.6 0
1.6 0.6 0
1.7 0.6 0
1.8 0.6 0
1.9 0.6 0
2 0.6 0
2.1 0.6 0
0 0.7 0
0.1 0.7 0
0.2 0.7 0
0.3 0.7 0
0.4 0.7 0
0.5 0.7 0
0.6 0.7 0
0.7 0.7 0
0.8 0.7 0
0.9 0.7 0
1 0.7 0
1.1 0.7 0
1.2 0.7 0
1.3 0.7 0
1.4 0.7 0
1.5 0.7 0
1.6 0.7 0
1.7 0.7 0
1.8 0.7 0
1.9 0.7 0
2 0.7 0
2.1 0.7 0
0 0.8 0
0.1 0.8 0
0.2 0.8 0
0.3 0.8 0
0.4 0.8 0
0.5 0.8 0
0.6 0.8 0
0.7 0.8 0
0.8 0.8 0
0.9 0.8 0
1 0.8 0
1.1 0.8 0
1.2 0.8 0
1.3 0.8 0
1.4 0.8 0
1.5 0.8 0
1.6 0.8 0
1.7 0.8 0
1.8 0.8 0
1.9 0.8 0
2 0.8 0
2.1 0.8 0
0 0.9 0
0.1 0.9 0
0.2 0.9 0
0.3 0.9 0
0.4 0.9 0
0.5 0.9 0
0.6 0.9 0
0.7 0.9 0
0.8 0.9 0
0.9 0.9 0
1 0.9 0
1.1 0.9 0
1.2 0.9 0
1.3 0.9 0
1.4 0.9 0
1.5 0.9 0
1.6 0.9 0
1.7 0.9 0
1.8 0.9 0
1.9 0.9 0
2 0.9 0
2.1 0.9 0
0 1 0
0.1 1 0
0.2 1 0
0.3 1 0
0.4 1 0
0.5 1 0
0.6 1 0
0.7 1 0
0.8 1 0
0.9 1 0
1 1 0
1.1 1 0
1.2 1 0
1.3 1 0
1.4 1 0
1.5 1 0
1.6 1 0
1.7 1 0
1.8 1 0
1.9 1 0
2 1 0
2.1 1 0
0 1.1 0
0.1 1.1 0
0.2 1.1 0
0.3 1.1 0
0.4 1.1 0
0.5 1.1 0
0.6 1.1 0
0.7 1.1 0
0.8 1.1 0
0.9 1.1 0
1 1.1 0
1.1 1.1 0
1.2 1.1 0
1.3 1.1 0
1.4 1.1 0
1.5 1.1 0
1.6 1.1 0
1.7 1.1 0
1.8 1.1 0
1.9 1.1 0
2 1.1 0
2.1 1.1 0
0 1.2 0
0.1 1.2 0
0.2 1.2 0
0.3 1.2 0
0.4 1.2 0
0.5 1.2 0
0.6 1.2 0
0.7 1.2 0
0.8 1.2 0
0.9 1.2 0
1 1.2 0
1.1 1.2 0
1.2 1.2 0
1.3 1.2 0
1.4 1.2 0
1.5 1.2 0
1.6 1.2 0
1.7 1.2 0
1.8 1.2 0
1.9 1.2 0
2 1.2 0
2.1 1.2 0
0 1.3 0
0.1 1.3 0
0.2 1.3 0
0.3 1.3 0
0.4 1.3 0
0.5 1.3 0
0.6 1.3 0
0.7 1.3 0
0.8 1.3 0
0.9 1.3 0
1 1.3 0
1.1 1.3 0
1.2 1.3 0
1.3 1.3 0
1.4 1.3 0
1.5 1.3 0
1.6 1.3 0
1.7 1.3 0
1.8 1.3 0
1.9 1.3 0
2 1.3 0
2.1 1.3 0
0 1.4 0
0.1 1.4 0
0.2 1.4 0
0.3 1.4 0
0.4 1.4 0
0.5 1.4 0
0.6 1.4 0
0.7 1.4 0
0.8 1.4 0
0.9 1.4 0
1 1.4 0
1.1 1.4 0
1.2 1.4 0
1.3 1.4 0
1.4 1.4 0
1.5 1.4 0
1.6 1.4 0
1.7 1.4 0
1.8 1.4 0
1.9 1.4 0
2 1.4 0
2.1 1.4 0
0 1.5 0
0.1 1.5 0
0.2 1.5 0
0.3 1.5 0
0.4 1.5 0
0.5 1.5 0
0.6 1.5 0
0.7 1.5 0
0.8 1.5 0
0.9 1.5 0
1 1.5 0
1.1 1.5 0
1.2 1.5 0
1.3 1.5 0
1.4 1.5 0
1.5 1.5 0
1.6 1.5 0
1.7 1.5 0
1.8 1.5 0
1.9 1.5 0
2 1.5 0
2.1 1.5 0
0 1.6 0
0.1 1.6 0
0.2 1.6 0
0.3 1.6 0
0.4 1.6 0
0.5 1.6 0
0.6 1.6 0
0.7 1.6 0
0.8 1.6 0
0.9 1.6 0
1 1.6 0
1.1 1.6 0
1.2 1.6 0
1.3 1.6 0
1.4 1.6 0
1.5 1.6 0
1.6 1.6 0
1.7 1.6 0
1.8 1.6 0
1.9 1.6 0
2 1.6 0
2.1 1.6 0
0 0 0.1
0.1 0 0.1
0.2 0 0.1
0.3 0 0.1
0.4 0 0.1
0.5 0 0.1
0.6 0 0.1
0.7 0 0.1
0.8 0 0.1
0.9 0 0.1
1 0 0.1
1.1 0 0.1
1.2 0 0.1
1.3 0 0.1
1.4 0 0.1
1.5 0 0.1
1.6 0 0.1
1.7 0 0.1
1.8 0 0.1
1.9 0 0.1
2 0 0.1
2.1 0 0.1
0 0.1 0.1
0.1 0.1 0.1
0.2 0.1 0.1
0.3 0.1 0.1
0.4 0.1 0.1
0.5 0.1 0.1
0.6 0.1 0.1
0.7 0.1 0.1
0.8 0.1 0.1
0.9 0.1 0.1
1 0.1 0.1
1.1 0.1 0.1
1.2 0.1 0.1
1.3 0.1 0.1
1.4 0.1 0.1
1.5 0.1 0.1
1.6 0.1 0.1
1.7 0.1 0.1
1.8 0.1 0.1
1.9 0.1 0.1
2 0.1 0.1
2.1 0.1 0.1
0 0.2 0.1
0.1 0.2 0.1
0.2 0.2 0.1
0.3 0.2 0.1
0.4 0.2 0.1
0.5 0.2 0.1
0.6 0.2 0.1
0.7 0.2 0.1
0.8 0.2 0.1
0.9 0.2 0.1
1 0.2 0.1
1.1 0.2 0.1
1.2 0.2 0.1
1.3 0.2 0.1
1.4 0.2 0.1
1.5 0.2 0.1
1.6 0.2 0.1
1.7 0.2 0.1
1.8 0.2 0.1
1.9 0.2 0.1
2 0.2 0.1
2.1 0.2 0.1
0 0.3 0.1
0.1 0.3 0.1
0.2 0.3 0.1
0.3 0.3 0.1
0.4 0.3 0.1
0.5 0.3 0.1
0.6 0.3 0.1
0.7 0.3 0.1
0.8 0.3 0.1
0.9 0.3 0.1
1 0.3 0.1
1.1 0.3 0.1
1.2 0.3 0.1
1.3 0.3 0.1
1.4 0.3 0.1
1.5 0.3 0.1
1.6 0.3 0.1
1.7 0.3 0.1
1.8 0.3 0.1
1.9 0.3 0.1
2 0.3 0.1
2.1 0.3 0.1
0 0.4 0.1
0.1 0.4 0.1
0.2 0.4 0.1
0.3 0.4 0.1
0.4 0.4 0.1
0.5 0.4 0.1
0.6 0.4 0.1
0.7 0.4 0.1
0.8 0.4 0.1
0.9 0.4 0.1
1 0.4 0.1
1.1 0.4 0.1
1.2 0.4 0.1
1.3 0.4 0.1
1.4 0.4 0.1
1.5 0.4 0.1
1.6 0.4 0.1
1.7 0.4 0.1
1.8 0.4 0.1
1.9 0.4 0.1
2 0.4 0.1
2.1 0.4 0.1
0 0.5 0.1
0.1 0.5 0.1
0.2 0.5 0.1
0.3 0.5 0.1
0.4 0.5 0.1
0.5 0.5 0.1
0.6 0.5 0.1
0.7 0.5 0.1
0.8 0.5 0.1
0.9 0.5 0.1
1 0.5 0.1
1.1 0.5 0.1
1.2 0.5 0.1
1.3 0.5 0.1
1.4 0.5 0.1
1.5 0.5 0.1
1.6 0.5 0.1
1.7 0.5 0.1
1.8 0.5 0.1
1.9 0.5 0.1
2 0.5 0.1
2.1 0.5 0.1
0 0.6 0.1
0.1 0.6 0.1
0.2 0.6 0.1
0.3 0.6 0.1
0.4 0.6 0.1
0.5 0.6 0.1
0.6 0.6 0.1
0.7 0.6 0.1
0.8 0.6 0.1
0.9 0.6 0.1
1 0.6 0.1
1.1 0.6 0.1
1.2 0.6 0.1
1.3 0.6 0.1
1.4 0.6 0.1
1.5 0.6 0.1
1.6 0.6 0.1
1.7 0.6 0.1
1.8 0.6 0.1
1.9 0.6 0.1
2 0.6 0.1
2.1 0.6 0.1
0 0.7 0.1
0.1 0.7 0.1
0.2 0.7 0.1
0.3 0.7 0.1
0.4 0.7 0.1
0.5 0.7 0.1
0.6 0.7 0.1
0.7 0.7 0.1
0.8 0.7 0.1
0.9 0.7 0.1
1 0.7 0.1
1.1 0.7 0.1
1.2 0.7 0.1
1.3 0.7 0.1
1.4 0.7 0.1
1.5 0.7 0.1
1.6 0.7 0.1
1.7 0.7 0.1
1.8 0.7 0.1
1.9 0.7 0.1
2 0.7 0.1
2.1 0.7 0.1
0 0.8 0.1
0.1 0.8 0.1
0.2 0.8 0.1
0.3 0.8 0.1
0.4 0.8 0.1
0.5 0.8 0.1
0.6 0.8 0.1
0.7 0.8 0.1
0.8 0.8 0.1
0.9 0.8 0.1
1 0.8 0.1
1.1 0.8 0.1
1.2 0.8 0.1
1.3 0.8 0.1
1.4 0.8 0.1
1.5 0.8 0.1
1.6 0.8 0.1
1.7 0.8 0.1
1.8 0.8 0.1
1.9 0.8 0.1
2 0.8 0.1
2.1 0.8 0.1
0 0.9 0.1
0.1 0.9 0.1
0.2 0.9 0.1
0.3 0.9 0.1
0.4 0.9 0.1
0.5 0.9 0.1
0.6 0.9 0.1
0.7 0.9 0.1
0.8 0.9 0.1
0.9 0.9 0.1
1 0.9 0.1
1.1 0.9 0.1
1.2 0.9 0.1
1.3 0.9 0.1
1.4 0.9 0.1
1.5 0.9 0.1
1.6 0.9 0.1
1.7 0.9 0.1
1.8 0.9 0.1
1.9 0.9 0.1
2 0.9 0.1
2.1 0.9 0.1
0 1 0.1
0.1 1 0.1
0.2 1 0.1
0.3 1 0.1
0.4 1 0.1
0.5 1 0.1
0.6 1 0.1
0.7 1 0.1
0.8 1 0.1
0.9 1 0.1
1 1 0.1
1.1 1 0.1
1.2 1 0.1
1.3 1 0.1
1.4 1 0.1
1.5 1 0.1
1.6 1 0.1
1.7 1 0.1
1.8 1 0.1
1.9 1 0.1
2 1 0.1
2.1 1 0.1
0 1.1 0.1
0.1 1.1 0.1
0.2 1.1 0.1
0.3 1.1 0.1
0.4 1.1 0.1
0.5 1.1 0.1
0.6 1.1 0.1
0.7 1.1 0.1
0.8 1.1 0.1
0.9 1.1 0.1
1 1.1 0.1
1.1 1.1 0.1
1.2 1.1 0.1
1.3 1.1 0.1
1.4 1.1 0.1
1.5 1.1 0.1
1.6 1.1 0.1
1.7 1.1 0.1
1.8 1.1 0.1
1.9 1.1 0.1
2 1.1 0.1
2.1 1.1 0.1
0 1.2 0.1
0.1 1.2 0.1
0.2 1.2 0.1
0.3 1.2 0.1
0.4 1.2 0.1
0.5 1.2 0.1
0.6 1.2 0.1
0.7 1.2 0.1
0.8 1.2 0.1
0.9 1.2 0.1
1 1.2 0.1
1.1 1.2 0.1
1.2 1.2 0.1
1.3 1.2 0.1
1.4 1.2 0.1
1.5 1.2 0.1
1.6 1.2 0.1
1.7 1.2 0.1
1.8 1.2 0.1
1.9 1.2 0.1
2 1.2 0.1
2.1 1.2 0.1
0 1.3 0.1
0.1 1.3 0.1
0.2 1.3 0.1
0.3 1.3 0.1
0.4 1.3 0.1
0.5 1.3 0.1
0.6 1.3 0.1
0.7 1.3 0.1
0.8 1.3 0.1
0.9 1.3 0.1
1 1.3 0.1
1.1 1.3 0.1
1.2 1.3 0.1
1.3 1.3 0.1
1.4 1.3 0.1
1.5 1.3 0.1
1.6 1.3 0.1
1.7 1.3 0.1
1.8 1.3 0.1
1.9 1.3 0.1
2 1.3 0.1
2.1 1.3 0.1
0 1.4 0.1
0.1 1.4 0.1
0.2 1.4 0.1
0.3 1.4 0.1
0.4 1.4 0.1
0.5 1.4 0.1
0.6 1.4 0.1
0.7 1.4 0.1
0.8 1.4 0.1
0.9 1.4 0.1
1 1.4 0.1
1.1 1.4 0.1
1.2 1.4 0.1
1.3 1.4 0.1
1.4 1.4 0.1
1.5 1.4 0.1
1.6 1.4 0.1
1.7 1.4 0.1
1.8 1.4 0.1
1.9 1.4 0.1
2 1.4 0.1
2.1 1.4 0.1
0 1.5 0.1
0.1 1.5 0.1
0.2 1.5 0.1
0.3 1.5 0.1
0.4 1.5 0.1
0.5 1.5 0.1
0.6 1.5 0.1
0.7 1.5 0.1
0.8 1.5 0.1
0.9 1.5 0.1
1 1.5 0.1
1.1 1.5 0.1
1.2 1.5 0.1
1.3 1.5 0.1
1.4 1.5 0.1
1.5 1.5 0.1
1.6 1.5 0.1
1.7 1.5 0.1
1.8 1.5 0.1
1.9 1.5 0.1
2 1.5 0.1
2.1 1.5 0.1
0 1.6 0.1
0.1 1.6 0.1
0.2 1.6 0.1
0.3 1.6 0.1
0.4 1.6 0.1
0.5 1.6 0.1
0.6 1.6 0.1
0.7 1.6 0.1
0.8 1.6 0.1
0.9 1.6 0.1
1 1.6 0.1
1.1 1.6 0.1
1.2 1.6 0.1
1.3 1.6 0.1
1.4 1.6 0.1
1.5 1.6 0.1
1.6 1.6 0.1
1.7 1.6 0.1
1.8 1.6 0.1
1.9 1.6 0.1
2 1.6 0.1
2.1 1.6 0.1
0 0 0.2
0.1 0 0.2
0.2 0 0.2
0.3 0 0.2
0.4 0 0.2
0.5 0 0.2
0.6 0 0.2
0.7 0 0.2
0.8 0 0.2
0.9 0 0.2
1 0 0.2
1.1 0 0.2
1.2 0 0.2
1.3 0 0.2
1.4 0 0.2
1.5 0 0.2
1.6 0 0.2
1.7 0 0.2
1.8 0 0.2
1.9 0 0.2
2 0 0.2
2.1 0 0.2
0 0.1 0.2
0.1 0.1 0.2
0.2 0.1 0.2
0.3 0.1 0.2
0.4 0.1 0.2
0.5 0.1 0.2
0.6 0.1 0.2
0.7 0.1 0.2
0.8 0.1 0.2
0.9 0.1 0.2
1 0.1 0.2
1.1 0.1 0.2
1.2 0.1 0.2
1.3 0.1 0.2
1.4 0.1 0.2
1.5 0.1 0.2
1.6 0.1 0.2
1.7 0.1 0.2
1.8 0.1 0.2
1.9 0.1 0.2
2 0.1 0.2
2.1 0.1 0.2
0 0.2 0.2
0.1 0.2 0.2
0.2 0.2 0.2
0.3 0.2 0.2
0.4 0.2 0.2
0.5 0.2 0.2
0.6 0.2 0.2
0.7 0.2 0.2
0.8 0.2 0.2
0.9 0.2 0.2
1 0.2 0.2
1.1 0.2 0.2
1.2 0.2 0.2
1.3 0.2 0.2
1.4 0.2 0.2
1.5 0.2 0.2
1.6 0.2 0.2
1.7 0.2 0.2
1.8 0.2 0.2
1.9 0.2 0.2
2 0.2 0.2
2.1 0.2 0.2
0 0.3 0.2
0.1 0.3 0.2
0.2 0.3 0.2
0.3 0.3 0.2
0.4 0.3 0.2
0.5 0.3 0.2
0.6 0.3 0.2
0.7 0.3 0.2
0.8 0.3 0.2
0.9 0.3 0.2
1 0.3 0.2
1.1 0.3 0.2
1.2 0.3 0.2
1.3 0.3 0.2
1.4 0.3 0.2
1.5 0.3 0.2
1.6 0.3 0.2
1.7 0.3 0.2
1.8 0.3 0.2
1.9 0.3 0.2
2 0.3 0.2
2.1 0.3 0.2
0 0.4 0.2
0.1 0.4 0.2
0.2 0.4 0.2
0.3 0.4 0.2
0.4 0.4 0.2
0.5 0.4 0.2
0.6 0.4 0.2
0.7 0.4 0.2
0.8 0.4 0.2
0.9 0.4 0.2
1 0.4 0.2
1.1 0.4 0.2
1.2 0.4 0.2
1.3 0.4 0.2
1.4 0.4 0.2
1.5 0.4 0.2
1.6 0.4 0.2
1.7 0.4 0.2
1.8 0.4 0.2
1.9 0.4 0.2
2 0.4 0.2
2.1 0.4 0.2
0 0.5 0.2
0.1 0.5 0.2
0.2 0.5 0.2
0.3 0.5 0.2
0.4 0.5 0.2
0.5 0.5 0.2
0.6 0.5 0.2
0.7 0.5 0.2
0.8 0.5 0.2
0.9 0.5 0.2
1 0.5 0.2
1.1 0.5 0.2
1.2 0.5 0.2
1.3 0.5 0.2
1.4 0.5 0.2
1.5 0.5 0.2
1.6 0.5 0.2
1.7 0.5 0.2
1.8 0.5 0.2
1.9 0.5 0.2
2 0.5 0.2
2.1 0.5 0.2
0 0.6 0.2
0.1 0.6 0.2
0.2 0.6 0.2
0.3 0.6 0.2
0.4 0.6 0.2
0.5 0.6 0.2
0.6 0.6 0.2
0.7 0.6 0.2
0.8 0.6 0.2
0.9 0.6 0.2
1 0.6 0.2
1.1 0.6 0.2
1.2 0.6 0.2
1.3 0.6 0.2
1.4 0.6 0.2
1.5 0.6 0.2
1.6 0.6 0.2
1.7 0.6 0.2
1.8 0.6 0.2
1.9 0.6 0.2
2 0.6 0.2
2.1 0.6 0.2
0 0.7 0.2
0.1 0.7 0.2
0.2 0.7 0.2
0.3 0.7 0.2
0.4 0.7 0.2
0.5 0.7 0.2
0.6 0.7 0.2
0.7 0.7 0.2
0.8 0.7 0.2
0.9 0.7 0.2
1 0.7 0.2
1.1 0.7 0.2
1.2 0.7 0.2
1.3 0.7 0.2
1.4 0.7 0.2
1.5 0.7 0.2
1.6 0.7 0.2
1.7 0.7 0.2
1.8 0.7 0.2
1.9 0.7 0.2
2 0.7 0.2
2.1 0.7 0.2
0 0.8 0.2
0.1 0.8 0.2
[...]
POINT_DATA 4488

SCALARS pressure double
LOOKUP_TABLE pressure
0
0
0
0
0
0
0
0
0
0
0
0
0
0
0
0
0
0
0
0
0
0
0
98.241
98.2362
98.2334
98.2314
98.2298
98.2272
98.2265
98.2257
98.2248
98.2239
98.2229
98.2219
98.2221
98.2206
98.2197
98.2211
98.2208
98.2193
98.2177
98.2166
0
0
98.2352
98.2342
98.2327
98.231
98.2289
98.2273
98.2263
98.2254
98.2245
98.2236
98.2229
98.2224
98.222
98.2211
98.2203
98.2202
98.2214
98.2197
98.2185
98.2178
0
0
98.232
98.2322
98.2317
98.2306
98.2274
98.2268
98.226
98.2253
98.2244
98.2234
98.2229
98.2232
98.2227
98.2219
98.2214
98.2212
98.2212
98.2206
98.22
98.2194
0
0
98.23
98.2304
98.2301
98.2291
98.2276
98.2262
98.2257
98.2252
98.2243
98.2228
98.2219
98.225
98.2236
98.2227
98.2222
98.222
98.2219
98.2215
98.2212
98.2208
0
0
98.2285
98.2293
98.2293
98.2281
98.2278
98.2249
98.2253
98.2252
98.2247
98.2237
98.2231
98.2238
98.2238
98.2233
98.2228
98.2226
98.2227
98.2223
98.2221
98.2218
0
0
98.2271
98.2278
98.2278
98.2272
98.2264
98.2256
98.2256
98.2256
98.2256
98.224
98.2226
98.2231
98.2245
98.2238
98.2232
98.2229
98.2236
98.2231
98.2229
98.2226
0
0
98.226
98.2267
98.2269
98.2265
98.2253
98.2257
98.2256
98.2255
98.2251
98.2244
98.2239
98.2238
98.2241
98.224
98.2237
98.2238
98.2239
98.2237
98.2235
98.2233
0
0
98.2251
98.226
98.2263
98.2266
98.2273
98.2262
98.2258
98.2255
98.2252
98.2248
98.2244
98.2243
98.2242
98.2242
98.2242
98.2242
98.2243
98.2245
98.2236
98.2237
0
0
98.2242
98.2254
98.2258
98.2261
98.2263
98.226
98.2257
98.2255
98.2253
98.225
98.2248
98.2246
98.2246
98.2246
98.2245
98.2244
98.2244
98.2244
98.2244
98.2243
0
0
98.2227
98.2253
98.2255
98.2257
98.2258
98.2257
98.2256
98.2255
98.2253
98.2251
98.225
98.2249
98.2249
98.225
98.2249
98.2245
98.2245
98.2246
98.2248
98.2249
0
0
98.2233
98.2245
98.225
98.2252
98.2254
98.2255
98.2255
98.2254
98.2252
98.2252
98.2251
98.2252
98.2252
98.2254
98.2253
98.2245
98.2245
98.2248
98.2251
98.2252
0
0
98.2232
98.2241
98.2246
98.2249
98.2251
98.2252
98.2252
98.2252
98.2252
98.2252
98.2252
98.2252
98.2254
98.2259
98.2267
98.2237
98.2246
98.225
98.2253
98.2256
0
0
98.2231
98.2239
98.2243
98.2246
98.2248
98.225
98.225
98.2251
98.2251
98.2252
98.2252
98.2252
98.2252
98.226
98.2259
98.2251
98.2251
98.2253
98.2255
98.2257
0
0
98.2231
98.2238
98.2241
98.2244
98.2246
98.2247
98.2249
98.225
98.2251
98.2252
98.2252
98.2253
98.2254
98.2257
98.2257
98.2256
98.2256
98.2257
98.2258
98.226
0
0
98.2233
98.2237
98.224
98.2241
98.2243
98.2245
98.2247
98.2248
98.225
98.2251
98.2253
98.2254
98.2255
98.2256
98.2258
98.2259
98.226
98.2261
98.2262
98.2263
0
0
0
0
0
0
0
0
0
0
0
0
0
0
0
0
0
0
0
0
0
0
0
0
98.241
98.2362
98.2334
98.2314
98.2298
98.2272
98.2265
98.2257
98.2248
98.2239
98.2229
98.2219
98.2221
98.2206
98.2197
98.2211
98.2208
98.2193
98.2177
98.2166
0
98.241
98.241
98.2362
98.2334
98.2314
98.2298
98.2272
98.2265
98.2257
98.2248
98.2239
98.2229
98.2219
98.2221
98.2206
98.2197
98.2211
98.2208
98.2193
98.2177
98.2166
98.2166
98.2352
98.2352
98.2342
98.2327
98.231
98.2289
98.2273
98.2263
98.2254
98.2245
98.2236
98.2229
98.2224
98.222
98.2211
98.2203
98.2202
98.2214
98.2197
98.2185
98.2178
98.2178
98.232
98.232
98.2322
98.2317
98.2306
98.2274
98.2268
98.226
98.2253
98.2244
98.2234
98.2229
98.2232
98.2227
98.2219
98.2214
98.2212
98.2212
98.2206
98.22
98.2194
98.2194
98.23
98.23
98.2304
98.2301
98.2291
98.2276
98.2262
98.2257
98.2252
98.2243
98.2228
98.2219
98.225
98.2236
98.2227
98.2222
98.222
98.2219
98.2215
98.2212
98.2208
98.2208
98.2285
98.2285
98.2293
98.2293
98.2281
98.2278
98.2249
98.2253
98.2252
98.2247
98.2237
98.2231
98.2238
98.2238
98.2233
98.2228
98.2226
98.2227
98.2223
98.2221
98.2218
98.2218
98.2271
98.2271
98.2278
98.2278
98.2272
98.2264
98.2256
98.2256
98.2256
98.2256
98.224
98.2226
98.2231
98.2245
98.2238
98.2232
98.2229
98.2236
98.2231
98.2229
98.2226
98.2226
98.226
98.226
98.2267
98.2269
98.2265
98.2253
98.2257
98.2256
98.2255
98.2251
98.2244
98.2239
98.2238
98.2241
98.224
98.2237
98.2238
98.2239
98.2237
98.2235
98.2233
98.2233
98.2251
98.2251
98.226
98.2263
98.2266
98.2273
98.2262
98.2258
98.2255
98.2252
98.2248
98.2244
98.2243
98.2242
98.2242
98.2242
98.2242
98.2243
98.2245
98.2236
98.2237
98.2237
98.2242
98.2242
98.2254
98.2258
98.2261
98.2263
98.226
98.2257
98.2255
98.2253
98.225
98.2248
98.2246
98.2246
98.2246
98.2245
98.2244
98.2244
98.2244
98.2244
98.2243
98.2243
98.2227
98.2227
98.2253
98.2255
98.2257
98.2258
98.2257
98.2256
98.2255
98.2253
98.2251
98.225
98.2249
98.2249
98.225
98.2249
98.2245
98.2245
98.2246
98.2248
98.2249
98.2249
98.2233
98.2233
98.2245
98.225
98.2252
98.2254
98.2255
98.2255
98.2254
98.2252
98.2252
98.2251
98.2252
98.2252
98.2254
98.2253
98.2245
98.2245
98.2248
98.2251
98.2252
98.2252
98.2232
98.2232
98.2241
98.2246
98.2249
98.2251
98.2252
98.2252
98.2252
98.2252
98.2252
98.2252
98.2252
98.2254
98.2259
98.2267
98.2237
98.2246
98.225
98.2253
98.2256
98.2256
98.2231
98.2231
98.2239
98.2243
98.2246
98.2248
98.225
98.225
98.2251
98.2251
98.2252
98.2252
98.2252
98.2252
98.226
98.2259
98.2251
98.2251
98.2253
98.2255
98.2257
98.2257
98.2231
98.2231
98.2238
98.2241
98.2244
98.2246
98.2247
98.2249
98.225
98.2251
98.2252
98.2252
98.2253
98.2254
98.2257
98.2257
98.2256
98.2256
98.2257
98.2258
98.226
98.226
98.2233
98.2233
98.2237
98.224
98.2241
98.2243
98.2245
98.2247
98.2248
98.225
98.2251
98.2253
98.2254
98.2255
98.2256
98.2258
98.2259
98.226
98.2261
98.2262
98.2263
98.2263
0
98.2233
98.2237
98.224
98.2241
98.2243
98.2245
98.2247
98.2248
98.225
98.2251
98.2253
98.2254
98.2255
98.2256
98.2258
98.2259
98.226
98.2261
98.2262
98.2263
0
0
98.2449
98.2399
98.2364
98.232
98.2246
98.2205
98.2208
98.2224
98.2235
98.2239
98.2237
98.2232
98.2227
98.2218
98.2211
98.2209
98.2202
98.219
98.2175
98.2165
0
98.2449
98.2449
98.2399
98.2364
98.232
98.2246
98.2205
98.2208
98.2224
98.2235
98.2239
98.2237
98.2232
98.2227
98.2218
98.2211
98.2209
98.2202
98.219
98.2175
98.2165
98.2165
98.2388
98.2388
98.2376
98.2355
98.2322
98.2265
98.2216
98.2207
98.2217
98.2227
98.2232
98.2233
98.223
98.2226
98.2219
98.2213
98.2209
98.2205
98.2194
98.2183
98.2175
98.2175
98.2352
98.2352
98.2351
98.234
98.2318
98.2277
98.2233
98.2213
98.2214
98.2221
98.2226
98.2228
98.2231
98.2228
98.2223
98.2218
98.2214
98.221
98.2204
98.2198
98.2191
98.2191
98.2328
98.2328
98.233
98.2325
98.2311
98.2285
98.2248
98.2224
98.2216
98.2217
98.2219
98.2223
98.2231
98.223
98.2227
98.2223
98.222
98.2217
98.2214
98.2211
98.2205
98.2205
98.2309
98.2309
98.2314
98.2312
98.2304
98.2288
98.2259
98.2237
98.2223
98.2219
98.2218
98.2221
98.2227
98.2229
98.2228
98.2226
98.2225
98.2224
98.2221
98.222
98.2215
98.2215
98.2293
98.2293
98.2298
98.2299
98.2295
98.2286
98.227
98.2252
98.2237
98.2227
98.2221
98.2219
98.2223
98.2228
98.2229
98.2228
98.2228
98.2229
98.2227
98.2226
98.2222
98.2222
98.228
98.228
98.2285
98.2287
98.2286
98.2281
98.2274
98.2263
98.225
98.2239
98.2229
98.2225
98.2225
98.2228
98.2229
98.223
98.2231
98.2232
98.2232
98.2231
98.2229
98.2229
98.2269
98.2269
98.2275
98.2278
98.228
98.228
98.2275
98.2268
98.2259
98.225
98.2241
98.2234
98.2231
98.2231
98.2232
98.2233
98.2234
98.2235
98.2236
98.2235
98.2234
98.2234
98.2259
98.2259
98.2266
98.227
98.2273
98.2274
98.2272
98.2268
98.2263
98.2257
98.225
98.2244
98.224
98.2238
98.2236
98.2236
98.2236
98.2237
98.2239
98.224
98.224
98.224
98.225
98.225
98.226
98.2263
98.2266
98.2267
98.2267
98.2265
98.2263
98.2259
98.2255
98.2252
98.2248
98.2244
98.2241
98.224
98.2239
98.224
98.2241
98.2243
98.2244
98.2244
98.2246
98.2246
98.2253
98.2257
98.226
98.2262
98.2262
98.2262
98.2261
98.2259
98.2257
98.2255
98.2252
98.2249
98.2248
98.2247
98.2243
98.2243
98.2243
98.2244
98.2247
98.2247
98.2242
98.2242
98.2249
98.2253
98.2255
98.2257
98.2258
98.2258
98.2258
98.2258
98.2257
98.2256
98.2254
98.2254
98.2254
98.2254
98.2246
98.2245
98.2246
98.2247
98.2249
98.2249
98.224
98.224
98.2246
98.2249
98.2251
98.2253
98.2254
98.2255
98.2255
98.2255
98.2255
98.2255
98.2255
98.2255
98.2257
98.2256
98.2252
98.225
98.2251
98.2252
98.2253
98.2253
98.2238
98.2238
98.2243
98.2246
98.2248
98.2249
98.2251
98.2252
98.2253
98.2253
98.2254
98.2255
98.2255
98.2256
98.2257
98.2257
98.2256
98.2256
98.2256
98.2257
98.2257
98.2257
98.224
98.224
98.2242
98.2243
98.2245
98.2246
98.2247
98.2249
98.225
98.2251
98.2252
98.2254
98.2255
98.2256
98.2257
98.2258
98.2259
98.226
98.226
98.2261
98.2261
98.2261
0
98.224
98.2242
98.2243
98.2245
98.2246
98.2247
98.2249
98.225
98.2251
98.2252
98.2254
98.2255
98.2256
98.2257
98.2258
98.2259
98.226
98.226
98.2261
98.2261
0
0
98.2489
98.2442
98.2412
98.2343
98.2135
98.2068
98.2128
98.2194
98.2232
98.2246
98.2248
98.2244
98.2237
98.2227
98.2219
98.2211
98.2201
98.2188
98.2175
98.2165
0
98.2489
98.2489
98.2442
98.2412
98.2343
98.2135
98.2068
98.2128
98.2194
98.2232
98.2246
98.2248
98.2244
98.2237
98.2227
98.2219
98.2211
98.2201
98.2188
98.2175
98.2165
98.2165
98.2424
98.2424
98.2415
98.2397
98.2352
98.2229
98.2106
98.2117
98.2171
98.2212
98.2232
98.224
98.2239
98.2234
98.2227
98.2219
98.2212
98.2204
98.2193
98.2182
98.2174
98.2174
98.2383
98.2383
98.2384
98.2376
98.2351
98.2282
98.2169
98.2136
98.216
98.2194
98.2218
98.223
98.2234
98.2232
98.2228
98.2222
98.2216
98.221
98.2203
98.2197
98.2189
98.2189
98.2354
98.2354
98.2358
98.2356
98.2344
98.2304
98.2222
98.2166
98.216
98.2179
98.2201
98.2217
98.2227
98.223
98.2228
98.2225
98.2221
98.2217
98.2213
98.221
98.2203
98.2203
98.2332
98.2332
98.2337
98.2339
98.2336
98.2315
98.2261
98.2205
98.2176
98.2176
98.2188
98.2203
98.2215
98.2222
98.2225
98.2225
98.2223
98.2222
98.2219
98.2218
98.2213
98.2213
98.2313
98.2313
98.2319
98.2322
98.2323
98.2315
98.2289
98.2249
98.2211
98.2191
98.2188
98.2195
98.2206
98.2215
98.222
98.2223
98.2224
98.2225
98.2224
98.2223
98.2219
98.2219
98.2297
98.2297
98.2303
98.2307
98.231
98.2307
98.2297
98.2275
98.2245
98.222
98.2205
98.2202
98.2204
98.2211
98.2217
98.2221
98.2225
98.2226
98.2227
98.2228
98.2225
98.2225
98.2283
98.2283
98.2289
98.2294
98.2297
98.2297
98.2293
98.2283
98.2269
98.2251
98.2232
98.2218
98.2212
98.2214
98.2219
98.2223
98.2225
98.2228
98.223
98.2232
98.223
98.223
98.2272
98.2272
98.2278
98.2282
98.2285
98.2287
98.2286
98.2282
98.2276
98.2264
98.2249
98.2237
98.2231
98.2228
98.2226
98.2225
98.2226
98.2229
98.2233
98.2236
98.2236
98.2236
98.2263
98.2263
98.2269
98.2273
98.2276
98.2278
98.2278
98.2277
98.2273
98.2268
98.2262
98.2257
98.2248
98.2238
98.223
98.2227
98.223
98.2233
98.2236
98.2238
98.224
98.224
98.2256
98.2256
98.2262
98.2265
98.2268
98.227
98.2271
98.227
98.2269
98.2267
98.2265
98.2261
98.2253
98.2245
98.2239
98.224
98.224
98.2238
98.2237
98.2236
98.2241
98.2241
98.225
98.225
98.2256
98.2259
98.2261
98.2263
98.2264
98.2265
98.2264
98.2264
98.2263
98.226
98.2257
98.2254
98.2254
98.2252
98.2246
98.2242
98.2238
98.2238
98.2243
98.2243
98.2246
98.2246
98.2252
98.2254
98.2256
98.2258
98.2259
98.226
98.226
98.226
98.226
98.2259
98.2258
98.2258
98.2258
98.2255
98.2251
98.2248
98.2246
98.2247
98.2249
98.2249
98.2244
98.2244
98.2249
98.225
98.2252
98.2253
98.2254
98.2255
98.2255
98.2256
98.2256
98.2257
98.2257
98.2257
98.2257
98.2257
98.2256
98.2255
98.2255
98.2255
98.2254
98.2254
98.2245
98.2245
98.2247
98.2247
98.2248
98.2249
98.225
98.2251
98.2251
98.2252
98.2253
98.2254
98.2255
98.2256
98.2256
98.2258
98.2259
98.226
98.226
98.2259
98.2258
98.2258
0
98.2245
98.2247
98.2247
98.2248
98.2249
98.225
98.2251
98.2251
98.2252
98.2253
98.2254
98.2255
98.2256
98.2256
98.2258
98.2259
98.226
98.226
98.2259
98.2258
0
0
98.2528
98.2495
98.2503
98.2453
98.1776
98.1746
98.2027
98.2191
98.2252
98.2267
98.2266
98.2257
98.2246
98.2235
98.2223
98.2212
98.2201
98.2188
98.2175
98.2167
0
98.2528
98.2528
98.2495
98.2503
98.2453
98.1776
98.1746
98.2027
98.2191
98.2252
98.2267
98.2266
98.2257
98.2246
98.2235
98.2223
98.2212
98.2201
98.2188
98.2175
98.2167
98.2167
98.2458
98.2458
98.2458
98.2465
98.2445
98.2234
98.183
98.196
98.2129
98.2217
98.225
98.2257
98.2253
98.2245
98.2235
98.2225
98.2215
98.2204
98.2193
98.2181
98.2178
98.2178
98.2411
98.2411
98.2417
98.2424
98.2423
98.2341
98.2025
98.198
98.2083
98.2175
98.2224
98.2243
98.2247
98.2243
98.2236
98.2229
98.222
98.2212
98.2203
98.2196
98.2192
98.2192
98.2377
98.2377
98.2385
98.2395
98.2406
98.2374
98.2176
98.2041
98.2056
98.2125
98.2183
98.2216
98.2232
98.2236
98.2234
98.223
98.2224
98.2219
98.2213
98.221
98.2205
98.2205
98.235
98.235
98.2359
98.2371
98.2388
98.2378
98.2273
98.2137
98.2076
98.2098
98.2143
98.2182
98.2208
98.2221
98.2226
98.2226
98.2224
98.2222
98.2219
98.2218
98.2214
98.2214
98.2329
98.2329
98.2337
98.2347
98.2362
98.2362
98.2334
98.2255
98.2168
98.2125
98.2127
98.2154
98.2183
98.2203
98.2213
98.2219
98.2222
98.2223
98.2222
98.2221
98.2219
98.2219
98.231
98.231
98.2318
98.2326
98.2337
98.2343
98.2338
98.2304
98.2243
98.219
98.2161
98.2161
98.2172
98.2185
98.22
98.2212
98.2219
98.2222
98.2224
98.2224
98.222
98.222
98.2295
98.2295
98.2301
98.2308
98.2315
98.232
98.2318
98.2308
98.2294
98.2269
98.2226
98.219
98.2176
98.2184
98.2201
98.2214
98.2218
98.222
98.2225
98.223
98.2224
98.2224
98.2282
98.2282
98.2288
98.2293
98.2298
98.2302
98.2304
98.2303
98.2299
98.2279
98.2248
98.2226
98.2221
98.2217
98.2215
98.221
98.221
98.2218
98.2228
98.2237
98.2232
98.2232
98.2271
98.2271
98.2277
98.2281
98.2285
98.2288
98.229
98.229
98.2286
98.228
98.2275
98.2276
98.2256
98.223
98.2205
98.2202
98.2215
98.2225
98.2232
98.2236
98.2238
98.2238
98.2263
98.2263
98.2269
98.2272
98.2275
98.2277
98.2279
98.2279
98.2279
98.2278
98.2278
98.2271
98.2255
98.2234
98.2224
98.2237
98.2236
98.2233
98.2229
98.2222
98.2236
98.2236
98.2257
98.2257
98.2262
98.2265
98.2267
98.2269
98.227
98.2271
98.2271
98.2271
98.227
98.2266
98.2261
98.2258
98.2262
98.2256
98.2245
98.2234
98.2223
98.222
98.2237
98.2237
98.2252
98.2252
98.2257
98.2259
98.2261
98.2262
98.2263
98.2264
98.2264
98.2264
98.2264
98.2264
98.2263
98.2264
98.2262
98.2257
98.225
98.2242
98.2239
98.2242
98.2245
98.2245
98.2249
98.2249
98.2253
98.2255
98.2256
98.2257
98.2257
98.2258
98.2258
98.2259
98.2259
98.2259
98.2259
98.2259
98.2259
98.2258
98.2256
98.2256
98.2257
98.2256
98.2252
98.2252
98.2249
98.2249
98.2251
98.2251
98.2251
98.2252
98.2252
98.2252
98.2253
98.2253
98.2254
98.2255
98.2255
98.2255
98.2256
98.2257
98.2259
98.226
98.226
98.2257
98.2255
98.2255
0
98.2249
98.2251
98.2251
98.2251
98.2252
98.2252
98.2252
98.2253
98.2253
98.2254
98.2255
98.2255
98.2255
98.2256
98.2257
98.2259
98.226
98.226
98.2257
98.2255
0
0
98.2552
98.254
98.2637
98.2952
98.2072
98.1273
98.1972
98.2238
98.2294
98.2294
98.2282
98.2267
98.2252
98.2238
98.2225
98.2212
98.2199
98.2186
98.2173
98.2168
0
98.2552
98.2552
98.254
98.2637
98.2952
98.2072
98.1273
98.1972
98.2238
98.2294
98.2294
98.2282
98.2267
98.2252
98.2238
98.2225
98.2212
98.2199
98.2186
98.2173
98.2168
98.2168
98.2477
98.2477
98.2489
98.2542
98.2737
98.2346
98.1537
98.183
98.2135
98.2256
98.2283
98.228
98.2269
98.2255
98.2242
98.2229
98.2217
98.2204
98.2192
98.2181
98.2182
98.2182
98.2426
98.2426
98.2438
98.2465
98.2544
98.2498
98.1811
98.179
98.2019
98.2177
98.2245
98.2265
98.2264
98.2255
98.2245
98.2234
98.2224
98.2213
98.2204
98.2197
98.2198
98.2198
98.2389
98.2389
98.2401
98.2424
98.2482
98.2608
98.2099
98.1897
98.1952
98.2079
98.218
98.2228
98.2245
98.2247
98.2243
98.2236
98.2228
98.2221
98.2214
98.2211
98.2213
98.2213
98.2361
98.2361
98.2373
98.2396
98.2453
98.2597
98.2308
98.2055
98.1962
98.2015
98.2109
98.2172
98.221
98.2229
98.2233
98.2232
98.2228
98.2224
98.2221
98.2218
98.2222
98.2222
98.2338
98.2338
98.2348
98.2366
98.2405
98.2487
98.2443
98.2279
98.2098
98.2052
98.207
98.2109
98.2166
98.2199
98.2213
98.2219
98.2223
98.2224
98.2222
98.2219
98.2224
98.2224
98.2318
98.2318
98.2327
98.2339
98.2361
98.2404
98.2454
98.2388
98.2233
98.2157
98.2109
98.2108
98.2144
98.2166
98.2182
98.2205
98.2219
98.2221
98.2219
98.2217
98.2218
98.2218
98.2302
98.2302
98.2309
98.2317
98.2329
98.2348
98.2376
98.2367
98.2342
98.2317
98.221
98.2148
98.2146
98.215
98.2177
98.2212
98.2216
98.2213
98.2217
98.2227
98.2214
98.2214
98.2288
98.2288
98.2295
98.23
98.2307
98.2316
98.2328
98.2342
98.2366
98.234
98.2238
98.2205
98.2225
98.2197
98.2199
98.2201
98.2201
98.2204
98.2222
98.2248
98.2221
98.2221
98.2277
98.2277
98.2283
98.2287
98.2291
98.2296
98.2302
98.231
98.232
98.2302
98.2289
98.2321
98.2292
98.2216
98.2167
98.2179
98.2204
98.2214
98.2231
98.2247
98.223
98.223
98.2268
98.2268
98.2274
98.2277
98.228
98.2283
98.2286
98.2289
98.2292
98.2293
98.2307
98.2323
98.2269
98.2207
98.2204
98.2246
98.2239
98.2228
98.222
98.2212
98.2231
98.2231
98.2261
98.2261
98.2267
98.2269
98.2271
98.2273
98.2275
98.2276
98.2277
98.228
98.2287
98.2284
98.2265
98.2259
98.2286
98.2288
98.2251
98.2222
98.2203
98.2198
98.2237
98.2237
98.2257
98.2257
98.2261
98.2263
98.2265
98.2266
98.2267
98.2267
98.2268
98.2269
98.2271
98.2269
98.2268
98.2278
98.2291
98.2273
98.2249
98.2233
98.223
98.2237
98.2248
98.2248
98.2254
98.2254
98.2257
98.2258
98.2259
98.226
98.226
98.2261
98.2261
98.2261
98.2261
98.2262
98.2263
98.2267
98.2268
98.2261
98.2256
98.2257
98.2265
98.2266
98.2257
98.2257
98.2253
98.2253
98.2255
98.2254
98.2254
98.2254
98.2254
98.2254
98.2254
98.2254
98.2255
98.2255
98.2255
98.2254
98.2251
98.2254
98.2257
98.2259
98.2262
98.2258
98.2252
98.2252
0
98.2253
98.2255
98.2254
98.2254
98.2254
98.2254
98.2254
98.2254
98.2254
98.2255
98.2255
98.2255
98.2254
98.2251
98.2254
98.2257
98.2259
98.2262
98.2258
98.2252
0
0
98.2539
98.2506
98.2517
98.248
98.1906
98.1759
98.2026
98.2186
98.2247
98.2263
98.2262
98.2254
98.2243
98.2231
98.2219
98.2207
98.2194
98.218
98.2166
98.2159
0
98.2539
98.2539
98.2506
98.2517
98.248
98.1906
98.1759
98.2026
98.2186
98.2247
98.2263
98.2262
98.2254
98.2243
98.2231
98.2219
98.2207
98.2194
98.218
98.2166
98.2159
98.2159
98.2467
98.2467
98.2466
98.247
98.2441
98.2145
98.1851
98.1971
98.2136
98.2222
98.2253
98.2259
98.2255
98.2245
98.2234
98.2223
98.2211
98.2198
98.2185
98.2173
98.2168
98.2168
98.242
98.242
98.2425
98.2428
98.2417
98.2299
98.2017
98.1981
98.2082
98.2174
98.2223
98.2242
98.2246
98.2242
98.2235
98.2226
98.2217
98.2206
98.2197
98.219
98.2184
98.2184
98.2386
98.2386
98.2393
98.2401
98.2409
98.2374
98.217
98.2051
98.2064
98.2129
98.2184
98.2216
98.2231
98.2234
98.2232
98.2226
98.222
98.2213
98.2207
98.2204
98.2199
98.2199
98.236
98.236
98.2368
98.2379
98.2397
98.2396
98.227
98.2142
98.2087
98.2106
98.2148
98.2185
98.2208
98.222
98.2224
98.2224
98.2221
98.2218
98.2214
98.2213
98.2209
98.2209
98.2338
98.2338
98.2346
98.2357
98.2372
98.2383
98.2332
98.2243
98.2166
98.213
98.2134
98.2158
98.2184
98.2202
98.2213
98.2217
98.2219
98.2219
98.2218
98.2217
98.2214
98.2214
98.232
98.232
98.2327
98.2335
98.2346
98.2358
98.2351
98.2306
98.2239
98.2186
98.216
98.2162
98.2173
98.2186
98.2199
98.221
98.2216
98.2218
98.222
98.222
98.2216
98.2216
98.2304
98.2304
98.2311
98.2317
98.2324
98.2332
98.2334
98.232
98.229
98.2258
98.2221
98.219
98.2179
98.2183
98.2197
98.2209
98.2214
98.2217
98.2221
98.2225
98.2219
98.2219
98.2291
98.2291
98.2297
98.2301
98.2306
98.2311
98.2314
98.2313
98.2307
98.2287
98.2251
98.2223
98.2211
98.2212
98.221
98.2207
98.2209
98.2216
98.2224
98.2231
98.2227
98.2227
98.228
98.228
98.2286
98.2289
98.2293
98.2296
98.2298
98.2299
98.2297
98.2288
98.2275
98.2268
98.2256
98.2229
98.2207
98.2204
98.2212
98.2222
98.2228
98.2231
98.2233
98.2233
98.2272
98.2272
98.2277
98.228
98.2282
98.2284
98.2286
98.2286
98.2286
98.2284
98.2282
98.2279
98.226
98.2237
98.2223
98.2229
98.2234
98.2231
98.2226
98.2221
98.2233
98.2233
98.2265
98.2265
98.227
98.2272
98.2274
98.2275
98.2276
98.2276
98.2276
98.2276
98.2276
98.2272
98.2263
98.2255
98.2256
98.2256
98.2245
98.2233
98.2223
98.2218
98.2233
98.2233
98.226
98.226
98.2265
98.2266
98.2268
98.2268
98.2269
98.2269
98.2269
98.2269
98.2268
98.2266
98.2264
98.2264
98.2265
98.2259
98.225
98.2241
98.2235
98.2236
98.2241
98.2241
98.2257
98.2257
98.2261
98.2262
98.2262
98.2262
98.2262
98.2262
98.2262
98.2262
98.2262
98.2261
98.2261
98.2261
98.2261
98.2258
98.2255
98.2253
98.2253
98.2252
98.2249
98.2249
98.2257
98.2257
98.2259
98.2258
98.2257
98.2257
98.2257
98.2256
98.2256
98.2256
98.2256
98.2256
98.2256
98.2255
98.2255
98.2255
98.2258
98.2259
98.2259