# vtk DataFile Version 3.0
FlowField
ASCII
DATASET STRUCTURED_GRID
DIMENSIONS 102 12 1 
POINTS 1224 double
0 0 0
0.3 0 0
0.6 0 0
0.9 0 0
1.2 0 0
1.5 0 0
1.8 0 0
2.1 0 0
2.4 0 0
2.7 0 0
3 0 0
3.3 0 0
3.6 0 0
3.9 0 0
4.2 0 0
4.5 0 0
4.8 0 0
5.1 0 0
5.4 0 0
5.7 0 0
6 0 0
6.3 0 0
6.6 0 0
6.9 0 0
7.2 0 0
7.5 0 0
7.8 0 0
8.1 0 0
8.4 0 0
8.7 0 0
9 0 0
9.3 0 0
9.6 0 0
9.9 0 0
10.2 0 0
10.5 0 0
10.8 0 0
11.1 0 0
11.4 0 0
11.7 0 0
12 0 0
12.3 0 0
12.6 0 0
12.9 0 0
13.2 0 0
13.5 0 0
13.8 0 0
14.1 0 0
14.4 0 0
14.7 0 0
15 0 0
15.3 0 0
15.6 0 0
15.9 0 0
16.2 0 0
16.5 0 0
16.8 0 0
17.1 0 0
17.4 0 0
17.7 0 0
18 0 0
18.3 0 0
18.6 0 0
18.9 0 0
19.2 0 0
19.5 0 0
19.8 0 0
20.1 0 0
20.4 0 0
20.7 0 0
21 0 0
21.3 0 0
21.6 0 0
21.9 0 0
22.2 0 0
22.5 0 0
22.8 0 0
23.1 0 0
23.4 0 0
23.7 0 0
24 0 0
24.3 0 0
24.6 0 0
24.9 0 0
25.2 0 0
25.5 0 0
25.8 0 0
26.1 0 0
26.4 0 0
26.7 0 0
27 0 0
27.3 0 0
27.6 0 0
27.9 0 0
28.2 0 0
28.5 0 0
28.8 0 0
29.1 0 0
29.4 0 0
29.7 0 0
30 0 0
30.3 0 0
0 0.1 0
0.3 0.1 0
0.6 0.1 0
0.9 0.1 0
1.2 0.1 0
1.5 0.1 0
1.8 0.1 0
2.1 0.1 0
2.4 0.1 0
2.7 0.1 0
3 0.1 0
3.3 0.1 0
3.6 0.1 0
3.9 0.1 0
4.2 0.1 0
4.5 0.1 0
4.8 0.1 0
5.1 0.1 0
5.4 0.1 0
5.7 0.1 0
6 0.1 0
6.3 0.1 0
6.6 0.1 0
6.9 0.1 0
7.2 0.1 0
7.5 0.1 0
7.8 0.1 0
8.1 0.1 0
8.4 0.1 0
8.7 0.1 0
9 0.1 0
9.3 0.1 0
9.6 0.1 0
9.9 0.1 0
10.2 0.1 0
10.5 0.1 0
10.8 0.1 0
11.1 0.1 0
11.4 0.1 0
11.7 0.1 0
12 0.1 0
12.3 0.1 0
12.6 0.1 0
12.9 0.1 0
13.2 0.1 0
13.5 0.1 0
13.8 0.1 0
14.1 0.1 0
14.4 0.1 0
14.7 0.1 0
15 0.1 0
15.3 0.1 0
15.6 0.1 0
15.9 0.1 0
16.2 0.1 0
16.5 0.1 0
16.8 0.1 0
17.1 0.1 0
17.4 0.1 0
17.7 0.1 0
18 0.1 0
18.3 0.1 0
18.6 0.1 0
18.9 0.1 0
19.2 0.1 0
19.5 0.1 0
19.8 0.1 0
20.1 0.1 0
20.4 0.1 0
20.7 0.1 0
21 0.1 0
21.3 0.1 0
21.6 0.1 0
21.9 0.1 0
22.2 0.1 0
22.5 0.1 0
22.8 0.1 0
23.1 0.1 0
23.4 0.1 0
23.7 0.1 0
24 0.1 0
24.3 0.1 0
24.6 0.1 0
24.9 0.1 0
25.2 0.1 0
25.5 0.1 0
25.8 0.1 0
26.1 0.1 0
26.4 0.1 0
26.7 0.1 0
27 0.1 0
27.3 0.1 0
27.6 0.1 0
27.9 0.1 0
28.2 0.1 0
28.5 0.1 0
28.8 0.1 0
29.1 0.1 0
29.4 0.1 0
29.7 0.1 0
30 0.1 0
30.3 0.1 0
0 0.2 0
0.3 0.2 0
0.6 0.2 0
0.9 0.2 0
1.2 0.2 0
1.5 0.2 0
1.8 0.2 0
2.1 0.2 0
2.4 0.2 0
2.7 0.2 0
3 0.2 0
3.3 0.2 0
3.6 0.2 0
3.9 0.2 0
4.2 0.2 0
4.5 0.2 0
4.8 0.2 0
5.1 0.2 0
5.4 0.2 0
5.7 0.2 0
6 0.2 0
6.3 0.2 0
6.6 0.2 0
6.9 0.2 0
7.2 0.2 0
7.5 0.2 0
7.8 0.2 0
8.1 0.2 0
8.4 0.2 0
8.7 0.2 0
9 0.2 0
9.3 0.2 0
9.6 0.2 0
9.9 0.2 0
10.2 0.2 0
10.5 0.2 0
10.8 0.2 0
11.1 0.2 0
11.4 0.2 0
11.7 0.2 0
12 0.2 0
12.3 0.2 0
12.6 0.2 0
12.9 0.2 0
13.2 0.2 0
13.5 0.2 0
13.8 0.2 0
14.1 0.2 0
14.4 0.2 0
14.7 0.2 0
15 0.2 0
15.3 0.2 0
15.6 0.2 0
15.9 0.2 0
16.2 0.2 0
16.5 0.2 0
16.8 0.2 0
17.1 0.2 0
17.4 0.2 0
17.7 0.2 0
18 0.2 0
18.3 0.2 0
18.6 0.2 0
18.9 0.2 0
19.2 0.2 0
19.5 0.2 0
19.8 0.2 0
20.1 0.2 0
20.4 0.2 0
20.7 0.2 0
21 0.2 0
21.3 0.2 0
21.6 0.2 0
21.9 0.2 0
22.2 0.2 0
22.5 0.2 0
22.8 0.2 0
23.1 0.2 0
23.4 0.2 0
23.7 0.2 0
24 0.2 0
24.3 0.2 0
24.6 0.2 0
24.9 0.2 0
25.2 0.2 0
25.5 0.2 0
25.8 0.2 0
26.1 0.2 0
26.4 0.2 0
26.7 0.2 0
27 0.2 0
27.3 0.2 0
27.6 0.2 0
27.9 0.2 0
28.2 0.2 0
28.5 0.2 0
28.8 0.2 0
29.1 0.2 0
29.4 0.2 0
29.7 0.2 0
30 0.2 0
30.3 0.2 0
0 0.3 0
0.3 0.3 0
0.6 0.3 0
0.9 0.3 0
1.2 0.3 0
1.5 0.3 0
1.8 0.3 0
2.1 0.3 0
2.4 0.3 0
2.7 0.3 0
3 0.3 0
3.3 0.3 0
3.6 0.3 0
3.9 0.3 0
4.2 0.3 0
4.5 0.3 0
4.8 0.3 0
5.1 0.3 0
5.4 0.3 0
5.7 0.3 0
6 0.3 0
6.3 0.3 0
6.6 0.3 0
6.9 0.3 0
7.2 0.3 0
7.5 0.3 0
7.8 0.3 0
8.1 0.3 0
8.4 0.3 0
8.7 0.3 0
9 0.3 0
9.3 0.3 0
9.6 0.3 0
9.9 0.3 0
10.2 0.3 0
10.5 0.3 0
10.8 0.3 0
11.1 0.3 0
11.4 0.3 0
11.7 0.3 0
12 0.3 0
12.3 0.3 0
12.6 0.3 0
12.9 0.3 0
13.2 0.3 0
13.5 0.3 0
13.8 0.3 0
14.1 0.3 0
14.4 0.3 0
14.7 0.3 0
15 0.3 0
15.3 0.3 0
15.6 0.3 0
15.9 0.3 0
16.2 0.3 0
16.5 0.3 0
16.8 0.3 0
17.1 0.3 0
17.4 0.3 0
17.7 0.3 0
18 0.3 0
18.3 0.3 0
18.6 0.3 0
18.9 0.3 0
19.2 0.3 0
19.5 0.3 0
19.8 0.3 0
20.1 0.3 0
20.4 0.3 0
20.7 0.3 0
21 0.3 0
21.3 0.3 0
21.6 0.3 0
21.9 0.3 0
22.2 0.3 0
22.5 0.3 0
22.8 0.3 0
23.1 0.3 0
23.4 0.3 0
23.7 0.3 0
24 0.3 0
24.3 0.3 0
24.6 0.3 0
24.9 0.3 0
25.2 0.3 0
25.5 0.3 0
25.8 0.3 0
26.1 0.3 0
26.4 0.3 0
26.7 0.3 0
27 0.3 0
27.3 0.3 0
27.6 0.3 0
27.9 0.3 0
28.2 0.3 0
28.5 0.3 0
28.8 0.3 0
29.1 0.3 0
29.4 0.3 0
29.7 0.3 0
30 0.3 0
30.3 0.3 0
0 0.4 0
0.3 0.4 0
0.6 0.4 0
0.9 0.4 0
1.2 0.4 0
1.5 0.4 0
1.8 0.4 0
2.1 0.4 0
2.4 0.4 0
2.7 0.4 0
3 0.4 0
3.3 0.4 0
3.6 0.4 0
3.9 0.4 0
4.2 0.4 0
4.5 0.4 0
4.8 0.4 0
5.1 0.4 0
5.4 0.4 0
5.7 0.4 0
6 0.4 0
6.3 0.4 0
6.6 0.4 0
6.9 0.4 0
7.2 0.4 0
7.5 0.4 0
7.8 0.4 0
8.1 0.4 0
8.4 0.4 0
8.7 0.4 0
9 0.4 0
9.3 0.4 0
9.6 0.4 0
9.9 0.4 0
10.2 0.4 0
10.5 0.4 0
10.8 0.4 0
11.1 0.4 0
11.4 0.4 0
11.7 0.4 0
12 0.4 0
12.3 0.4 0
12.6 0.4 0
12.9 0.4 0
13.2 0.4 0
13.5 0.4 0
13.8 0.4 0
14.1 0.4 0
14.4 0.4 0
14.7 0.4 0
15 0.4 0
15.3 0.4 0
15.6 0.4 0
15.9 0.4 0
16.2 0.4 0
16.5 0.4 0
16.8 0.4 0
17.1 0.4 0
17.4 0.4 0
17.7 0.4 0
18 0.4 0
18.3 0.4 0
18.6 0.4 0
18.9 0.4 0
19.2 0.4 0
19.5 0.4 0
19.8 0.4 0
20.1 0.4 0
20.4 0.4 0
20.7 0.4 0
21 0.4 0
21.3 0.4 0
21.6 0.4 0
21.9 0.4 0
22.2 0.4 0
22.5 0.4 0
22.8 0.4 0
23.1 0.4 0
23.4 0.4 0
23.7 0.4 0
24 0.4 0
24.3 0.4 0
24.6 0.4 0
24.9 0.4 0
25.2 0.4 0
25.5 0.4 0
25.8 0.4 0
26.1 0.4 0
26.4 0.4 0
26.7 0.4 0
27 0.4 0
27.3 0.4 0
27.6 0.4 0
27.9 0.4 0
28.2 0.4 0
28.5 0.4 0
28.8 0.4 0
29.1 0.4 0
29.4 0.4 0
29.7 0.4 0
30 0.4 0
30.3 0.4 0
0 0.5 0
0.3 0.5 0
0.6 0.5 0
0.9 0.5 0
1.2 0.5 0
1.5 0.5 0
1.8 0.5 0
2.1 0.5 0
2.4 0.5 0
2.7 0.5 0
3 0.5 0
3.3 0.5 0
3.6 0.5 0
3.9 0.5 0
4.2 0.5 0
4.5 0.5 0
4.8 0.5 0
5.1 0.5 0
5.4 0.5 0
5.7 0.5 0
6 0.5 0
6.3 0.5 0
6.6 0.5 0
6.9 0.5 0
7.2 0.5 0
7.5 0.5 0
7.8 0.5 0
8.1 0.5 0
8.4 0.5 0
8.7 0.5 0
9 0.5 0
9.3 0.5 0
9.6 0.5 0
9.9 0.5 0
10.2 0.5 0
10.5 0.5 0
10.8 0.5 0
11.1 0.5 0
11.4 0.5 0
11.7 0.5 0
12 0.5 0
12.3 0.5 0
12.6 0.5 0
12.9 0.5 0
13.2 0.5 0
13.5 0.5 0
13.8 0.5 0
14.1 0.5 0
14.4 0.5 0
14.7 0.5 0
15 0.5 0
15.3 0.5 0
15.6 0.5 0
15.9 0.5 0
16.2 0.5 0
16.5 0.5 0
16.8 0.5 0
17.1 0.5 0
17.4 0.5 0
17.7 0.5 0
18 0.5 0
18.3 0.5 0
18.6 0.5 0
18.9 0.5 0
19.2 0.5 0
19.5 0.5 0
19.8 0.5 0
20.1 0.5 0
20.4 0.5 0
20.7 0.5 0
21 0.5 0
21.3 0.5 0
21.6 0.5 0
21.9 0.5 0
22.2 0.5 0
22.5 0.5 0
22.8 0.5 0
23.1 0.5 0
23.4 0.5 0
23.7 0.5 0
24 0.5 0
24.3 0.5 0
24.6 0.5 0
24.9 0.5 0
25.2 0.5 0
25.5 0.5 0
25.8 0.5 0
26.1 0.5 0
26.4 0.5 0
26.7 0.5 0
27 0.5 0
27.3 0.5 0
27.6 0.5 0
27.9 0.5 0
28.2 0.5 0
28.5 0.5 0
28.8 0.5 0
29.1 0.5 0
29.4 0.5 0
29.7 0.5 0
30 0.5 0
30.3 0.5 0
0 0.6 0
0.3 0.6 0
0.6 0.6 0
0.9 0.6 0
1.2 0.6 0
1.5 0.6 0
1.8 0.6 0
2.1 0.6 0
2.4 0.6 0
2.7 0.6 0
3 0.6 0
3.3 0.6 0
3.6 0.6 0
3.9 0.6 0
4.2 0.6 0
4.5 0.6 0
4.8 0.6 0
5.1 0.6 0
5.4 0.6 0
5.7 0.6 0
6 0.6 0
6.3 0.6 0
6.6 0.6 0
6.9 0.6 0
7.2 0.6 0
7.5 0.6 0
7.8 0.6 0
8.1 0.6 0
8.4 0.6 0
8.7 0.6 0
9 0.6 0
9.3 0.6 0
9.6 0.6 0
9.9 0.6 0
10.2 0.6 0
10.5 0.6 0
10.8 0.6 0
11.1 0.6 0
11.4 0.6 0
11.7 0.6 0
12 0.6 0
12.3 0.6 0
12.6 0.6 0
12.9 0.6 0
13.2 0.6 0
13.5 0.6 0
13.8 0.6 0
14.1 0.6 0
14.4 0.6 0
14.7 0.6 0
15 0.6 0
15.3 0.6 0
15.6 0.6 0
15.9 0.6 0
16.2 0.6 0
16.5 0.6 0
16.8 0.6 0
17.1 0.6 0
17.4 0.6 0
17.7 0.6 0
18 0.6 0
18.3 0.6 0
18.6 0.6 0
18.9 0.6 0
19.2 0.6 0
19.5 0.6 0
19.8 0.6 0
20.1 0.6 0
20.4 0.6 0
20.7 0.6 0
21 0.6 0
21.3 0.6 0
21.6 0.6 0
21.9 0.6 0
22.2 0.6 0
22.5 0.6 0
22.8 0.6 0
23.1 0.6 0
23.4 0.6 0
23.7 0.6 0
24 0.6 0
24.3 0.6 0
24.6 0.6 0
24.9 0.6 0
25.2 0.6 0
25.5 0.6 0
25.8 0.6 0
26.1 0.6 0
26.4 0.6 0
26.7 0.6 0
27 0.6 0
27.3 0.6 0
27.6 0.6 0
27.9 0.6 0
28.2 0.6 0
28.5 0.6 0
28.8 0.6 0
29.1 0.6 0
29.4 0.6 0
29.7 0.6 0
30 0.6 0
30.3 0.6 0
0 0.7 0
0.3 0.7 0
0.6 0.7 0
0.9 0.7 0
1.2 0.7 0
1.5 0.7 0
1.8 0.7 0
2.1 0.7 0
2.4 0.7 0
2.7 0.7 0
3 0.7 0
3.3 0.7 0
3.6 0.7 0
3.9 0.7 0
4.2 0.7 0
4.5 0.7 0
4.8 0.7 0
5.1 0.7 0
5.4 0.7 0
5.7 0.7 0
6 0.7 0
6.3 0.7 0
6.6 0.7 0
6.9 0.7 0
7.2 0.7 0
7.5 0.7 0
7.8 0.7 0
8.1 0.7 0
8.4 0.7 0
8.7 0.7 0
9 0.7 0
9.3 0.7 0
9.6 0.7 0
9.9 0.7 0
10.2 0.7 0
10.5 0.7 0
10.8 0.7 0
11.1 0.7 0
11.4 0.7 0
11.7 0.7 0
12 0.7 0
12.3 0.7 0
12.6 0.7 0
12.9 0.7 0
13.2 0.7 0
13.5 0.7 0
13.8 0.7 0
14.1 0.7 0
14.4 0.7 0
14.7 0.7 0
15 0.7 0
15.3 0.7 0
15.6 0.7 0
15.9 0.7 0
16.2 0.7 0
16.5 0.7 0
16.8 0.7 0
17.1 0.7 0
17.4 0.7 0
17.7 0.7 0
18 0.7 0
18.3 0.7 0
18.6 0.7 0
18.9 0.7 0
19.2 0.7 0
19.5 0.7 0
19.8 0.7 0
20.1 0.7 0
20.4 0.7 0
20.7 0.7 0
21 0.7 0
21.3 0.7 0
21.6 0.7 0
21.9 0.7 0
22.2 0.7 0
22.5 0.7 0
22.8 0.7 0
23.1 0.7 0
23.4 0.7 0
23.7 0.7 0
24 0.7 0
24.3 0.7 0
24.6 0.7 0
24.9 0.7 0
25.2 0.7 0
25.5 0.7 0
25.8 0.7 0
26.1 0.7 0
26.4 0.7 0
26.7 0.7 0
27 0.7 0
27.3 0.7 0
27.6 0.7 0
27.9 0.7 0
28.2 0.7 0
28.5 0.7 0
28.8 0.7 0
29.1 0.7 0
29.4 0.7 0
29.7 0.7 0
30 0.7 0
30.3 0.7 0
0 0.8 0
0.3 0.8 0
0.6 0.8 0
0.9 0.8 0
1.2 0.8 0
1.5 0.8 0
1.8 0.8 0
2.1 0.8 0
2.4 0.8 0
2.7 0.8 0
3 0.8 0
3.3 0.8 0
3.6 0.8 0
3.9 0.8 0
4.2 0.8 0
4.5 0.8 0
4.8 0.8 0
5.1 0.8 0
5.4 0.8 0
5.7 0.8 0
6 0.8 0
6.3 0.8 0
6.6 0.8 0
6.9 0.8 0
7.2 0.8 0
7.5 0.8 0
7.8 0.8 0
8.1 0.8 0
8.4 0.8 0
8.7 0.8 0
9 0.8 0
9.3 0.8 0
9.6 0.8 0
9.9 0.8 0
10.2 0.8 0
10.5 0.8 0
10.8 0.8 0
11.1 0.8 0
11.4 0.8 0
11.7 0.8 0
12 0.8 0
12.3 0.8 0
12.6 0.8 0
12.9 0.8 0
13.2 0.8 0
13.5 0.8 0
13.8 0.8 0
14.1 0.8 0
14.4 0.8 0
14.7 0.8 0
15 0.8 0
15.3 0.8 0
15.6 0.8 0
15.9 0.8 0
16.2 0.8 0
16.5 0.8 0
16.8 0.8 0
17.1 0.8 0
17.4 0.8 0
17.7 0.8 0
18 0.8 0
18.3 0.8 0
18.6 0.8 0
18.9 0.8 0
19.2 0.8 0
19.5 0.8 0
19.8 0.8 0
20.1 0.8 0
20.4 0.8 0
20.7 0.8 0
21 0.8 0
21.3 0.8 0
21.6 0.8 0
21.9 0.8 0
22.2 0.8 0
22.5 0.8 0
22.8 0.8 0
23.1 0.8 0
23.4 0.8 0
23.7 0.8 0
24 0.8 0
24.3 0.8 0
24.6 0.8 0
24.9 0.8 0
25.2 0.8 0
25.5 0.8 0
25.8 0.8 0
26.1 0.8 0
26.4 0.8 0
26.7 0.8 0
27 0.8 0
27.3 0.8 0
27.6 0.8 0
27.9 0.8 0
28.2 0.8 0
28.5 0.8 0
28.8 0.8 0
29.1 0.8 0
29.4 0.8 0
29.7 0.8 0
30 0.8 0
30.3 0.8 0
0 0.9 0
0.3 0.9 0
0.6 0.9 0
0.9 0.9 0
1.2 0.9 0
1.5 0.9 0
1.8 0.9 0
2.1 0.9 0
2.4 0.9 0
2.7 0.9 0
3 0.9 0
3.3 0.9 0
3.6 0.9 0
3.9 0.9 0
4.2 0.9 0
4.5 0.9 0
4.8 0.9 0
5.1 0.9 0
5.4 0.9 0
5.7 0.9 0
6 0.9 0
6.3 0.9 0
6.6 0.9 0
6.9 0.9 0
7.2 0.9 0
7.5 0.9 0
7.8 0.9 0
8.1 0.9 0
8.4 0.9 0
8.7 0.9 0
9 0.9 0
9.3 0.9 0
9.6 0.9 0
9.9 0.9 0
10.2 0.9 0
10.5 0.9 0
10.8 0.9 0
11.1 0.9 0
11.4 0.9 0
11.7 0.9 0
12 0.9 0
12.3 0.9 0
12.6 0.9 0
12.9 0.9 0
13.2 0.9 0
13.5 0.9 0
13.8 0.9 0
14.1 0.9 0
14.4 0.9 0
14.7 0.9 0
15 0.9 0
15.3 0.9 0
15.6 0.9 0
15.9 0.9 0
16.2 0.9 0
16.5 0.9 0
16.8 0.9 0
17.1 0.9 0
17.4 0.9 0
17.7 0.9 0
18 0.9 0
18.3 0.9 0
18.6 0.9 0
18.9 0.9 0
19.2 0.9 0
19.5 0.9 0
19.8 0.9 0
20.1 0.9 0
20.4 0.9 0
20.7 0.9 0
21 0.9 0
21.3 0.9 0
21.6 0.9 0
21.9 0.9 0
22.2 0.9 0
22.5 0.9 0
22.8 0.9 0
23.1 0.9 0
23.4 0.9 0
23.7 0.9 0
24 0.9 0
24.3 0.9 0
24.6 0.9 0
24.9 0.9 0
25.2 0.9 0
25.5 0.9 0
25.8 0.9 0
26.1 0.9 0
26.4 0.9 0
26.7 0.9 0
27 0.9 0
27.3 0.9 0
27.6 0.9 0
27.9 0.9 0
28.2 0.9 0
28.5 0.9 0
28.8 0.9 0
29.1 0.9 0
29.4 0.9 0
29.7 0.9 0
30 0.9 0
30.3 0.9 0
0 1 0
0.3 1 0
0.6 1 0
0.9 1 0
1.2 1 0
1.5 1 0
1.8 1 0
2.1 1 0
2.4 1 0
2.7 1 0
3 1 0
3.3 1 0
3.6 1 0
3.9 1 0
4.2 1 0
4.5 1 0
4.8 1 0
5.1 1 0
5.4 1 0
5.7 1 0
6 1 0
6.3 1 0
6.6 1 0
6.9 1 0
7.2 1 0
7.5 1 0
7.8 1 0
8.1 1 0
8.4 1 0
8.7 1 0
9 1 0
9.3 1 0
9.6 1 0
9.9 1 0
10.2 1 0
10.5 1 0
10.8 1 0
11.1 1 0
11.4 1 0
11.7 1 0
12 1 0
12.3 1 0
12.6 1 0
12.9 1 0
13.2 1 0
13.5 1 0
13.8 1 0
14.1 1 0
14.4 1 0
14.7 1 0
15 1 0
15.3 1 0
15.6 1 0
15.9 1 0
16.2 1 0
16.5 1 0
16.8 1 0
17.1 1 0
17.4 1 0
17.7 1 0
18 1 0
18.3 1 0
18.6 1 0
18.9 1 0
19.2 1 0
19.5 1 0
19.8 1 0
20.1 1 0
20.4 1 0
20.7 1 0
21 1 0
21.3 1 0
21.6 1 0
21.9 1 0
22.2 1 0
22.5 1 0
22.8 1 0
23.1 1 0
23.4 1 0
23.7 1 0
24 1 0
24.3 1 0
24.6 1 0
24.9 1 0
25.2 1 0
25.5 1 0
25.8 1 0
26.1 1 0
26.4 1 0
26.7 1 0
27 1 0
27.3 1 0
27.6 1 0
27.9 1 0
28.2 1 0
28.5 1 0
28.8 1 0
29.1 1 0
29.4 1 0
29.7 1 0
30 1 0
30.3 1 0
0 1.1 0
0.3 1.1 0
0.6 1.1 0
0.9 1.1 0
1.2 1.1 0
1.5 1.1 0
1.8 1.1 0
2.1 1.1 0
2.4 1.1 0
2.7 1.1 0
3 1.1 0
3.3 1.1 0
3.6 1.1 0
3.9 1.1 0
4.2 1.1 0
4.5 1.1 0
4.8 1.1 0
5.1 1.1 0
5.4 1.1 0
5.7 1.1 0
6 1.1 0
6.3 1.1 0
6.6 1.1 0
6.9 1.1 0
7.2 1.1 0
7.5 1.1 0
7.8 1.1 0
8.1 1.1 0
8.4 1.1 0
8.7 1.1 0
9 1.1 0
9.3 1.1 0
9.6 1.1 0
9.9 1.1 0
10.2 1.1 0
10.5 1.1 0
10.8 1.1 0
11.1 1.1 0
11.4 1.1 0
11.7 1.1 0
12 1.1 0
12.3 1.1 0
12.6 1.1 0
12.9 1.1 0
13.2 1.1 0
13.5 1.1 0
13.8 1.1 0
14.1 1.1 0
14.4 1.1 0
14.7 1.1 0
15 1.1 0
15.3 1.1 0
15.6 1.1 0
15.9 1.1 0
16.2 1.1 0
16.5 1.1 0
16.8 1.1 0
17.1 1.1 0
17.4 1.1 0
17.7 1.1 0
18 1.1 0
18.3 1.1 0
18.6 1.1 0
18.9 1.1 0
19.2 1.1 0
19.5 1.1 0
19.8 1.1 0
20.1 1.1 0
20.4 1.1 0
20.7 1.1 0
21 1.1 0
21.3 1.1 0
21.6 1.1 0
21.9 1.1 0
22.2 1.1 0
22.5 1.1 0
22.8 1.1 0
23.1 1.1 0
23.4 1.1 0
23.7 1.1 0
24 1.1 0
24.3 1.1 0
24.6 1.1 0
24.9 1.1 0
25.2 1.1 0
25.5 1.1 0
25.8 1.1 0
26.1 1.1 0
26.4 1.1 0
26.7 1.1 0
27 1.1 0
27.3 1.1 0
27.6 1.1 0
27.9 1.1 0
28.2 1.1 0
28.5 1.1 0
28.8 1.1 0
29.1 1.1 0
29.4 1.1 0
29.7 1.1 0
30 1.1 0
30.3 1.1 0

POINT_DATA 1224

SCALARS pressure double
LOOKUP_TABLE pressure
1.31569
1.31569
1.24918
1.2021
1.15915
1.11949
1.08347
1.05108
1.02198
0.995647
0.971538
0.949183
0.92821
0.90833
0.889323
0.871033
0.853343
0.836162
0.819421
0.803071
0.787069
0.771377
0.755966
0.740814
0.725898
0.711196
0.696693
0.682375
0.668227
0.654237
0.640392
0.626683
0.6131
0.599635
0.586279
0.573025
0.559866
0.546796
0.533809
0.5209
0.508063
0.495294
0.482588
0.469941
0.45735
0.444811
0.432321
0.419876
0.407473
0.395111
0.382786
0.370496
0.358239
0.346013
0.333816
0.321645
0.309501
0.297379
0.28528
0.273202
0.261144
0.249104
0.237081
0.225074
0.213083
0.201105
0.189141
0.177189
0.165249
0.15332
0.141402
0.129492
0.117592
0.1057
0.0938166
0.0819402
0.0700709
0.058208
0.0463513
0.0345003
0.0226548
0.0108144
-0.00102123
-0.0128523
-0.0246791
-0.0365018
-0.0483207
-0.0601358
-0.0719475
-0.083756
-0.0955613
-0.107364
-0.119163
-0.13096
-0.142754
-0.154546
-0.166336
-0.178124
-0.18991
-0.201695
-0.213478
0.213478
1.31569
1.31569
1.24918
1.2021
1.15915
1.11949
1.08347
1.05108
1.02198
0.995647
0.971538
0.949183
0.92821
0.90833
0.889323
0.871033
0.853343
0.836162
0.819421
0.803071
0.787069
0.771377
0.755966
0.740814
0.725898
0.711196
0.696693
0.682375
0.668227
0.654237
0.640392
0.626683
0.6131
0.599635
0.586279
0.573025
0.559866
0.546796
0.533809
0.5209
0.508063
0.495294
0.482588
0.469941
0.45735
0.444811
0.432321
0.419876
0.407473
0.395111
0.382786
0.370496
0.358239
0.346013
0.333816
0.321645
0.309501
0.297379
0.28528
0.273202
0.261144
0.249104
0.237081
0.225074
0.213083
0.201105
0.189141
0.177189
0.165249
0.15332
0.141402
0.129492
0.117592
0.1057
0.0938166
0.0819402
0.0700709
0.058208
0.0463513
0.0345003
0.0226548
0.0108144
-0.00102123
-0.0128523
-0.0246791
-0.0365018
-0.0483207
-0.0601358
-0.0719475
-0.083756
-0.0955613
-0.107364
-0.119163
-0.13096
-0.142754
-0.154546
-0.166336
-0.178124
-0.18991
-0.201695
-0.213478
0.213478
1.29504
1.29504
1.24738
1.20241
1.15986
1.12026
1.08417
1.05167
1.02246
0.996018
0.971823
0.949404
0.928383
0.908467
0.889434
0.871125
0.85342
0.836228
0.819479
0.803123
0.787114
0.771416
0.756002
0.740847
0.725927
0.711223
0.696718
0.682398
0.668248
0.654256
0.640409
0.626699
0.613115
0.599649
0.586292
0.573037
0.559877
0.546807
0.533819
0.520909
0.508072
0.495302
0.482595
0.469948
0.457357
0.444817
0.432326
0.419881
0.407478
0.395116
0.38279
0.3705
0.358243
0.346016
0.333819
0.321649
0.309503
0.297382
0.285283
0.273205
0.261146
0.249106
0.237083
0.225076
0.213084
0.201107
0.189143
0.177191
0.165251
0.153322
0.141403
0.129493
0.117593
0.105701
0.0938175
0.0819411
0.0700716
0.0582087
0.0463519
0.0345009
0.0226554
0.0108149
-0.00102073
-0.0128518
-0.0246787
-0.0365014
-0.0483203
-0.0601355
-0.0719472
-0.0837557
-0.095561
-0.107363
-0.119163
-0.13096
-0.142754
-0.154546
-0.166336
-0.178124
-0.18991
-0.201695
-0.213477
0.213477
1.28066
1.28066
1.24488
1.2028
1.16099
1.12153
1.08535
1.05267
1.02325
0.996624
0.972278
0.949744
0.928639
0.908661
0.889584
0.871244
0.853516
0.836306
0.819545
0.803179
0.787163
0.771459
0.75604
0.740881
0.725957
0.711249
0.696742
0.68242
0.668268
0.654274
0.640426
0.626714
0.613129
0.599661
0.586303
0.573047
0.559887
0.546816
0.533827
0.520917
0.508079
0.495308
0.482601
0.469954
0.457362
0.444822
0.432331
0.419885
0.407482
0.395119
0.382794
0.370503
0.358246
0.346019
0.333822
0.321651
0.309506
0.297384
0.285285
0.273207
0.261148
0.249108
0.237085
0.225077
0.213086
0.201108
0.189144
0.177192
0.165252
0.153322
0.141404
0.129494
0.117594
0.105702
0.0938182
0.0819417
0.0700722
0.0582093
0.0463525
0.0345014
0.0226558
0.0108154
-0.00102033
-0.0128515
-0.0246783
-0.0365011
-0.04832
-0.0601352
-0.071947
-0.0837555
-0.0955608
-0.107363
-0.119163
-0.13096
-0.142754
-0.154546
-0.166336
-0.178124
-0.18991
-0.201694
-0.213475
0.213475
1.27197
1.27197
1.24286
1.20306
1.16192
1.12261
1.08638
1.05356
1.02398
0.997203
0.972726
0.950089
0.928906
0.908869
0.889749
0.871377
0.853626
0.836398
0.819623
0.803246
0.78722
0.771509
0.756085
0.74092
0.725992
0.711281
0.696771
0.682446
0.668291
0.654295
0.640445
0.626732
0.613145
0.599676
0.586317
0.57306
0.559898
0.546826
0.533837
0.520926
0.508087
0.495316
0.482608
0.469961
0.457368
0.444828
0.432336
0.41989
0.407487
0.395124
0.382798
0.370507
0.358249
0.346023
0.333825
0.321654
0.309508
0.297387
0.285287
0.273209
0.26115
0.24911
0.237086
0.225079
0.213087
0.20111
0.189145
0.177193
0.165253
0.153324
0.141405
0.129495
0.117595
0.105703
0.093819
0.0819425
0.0700729
0.0582099
0.0463531
0.034502
0.0226564
0.0108159
-0.00101985
-0.012851
-0.0246779
-0.0365007
-0.0483196
-0.0601349
-0.0719467
-0.0837552
-0.0955605
-0.107363
-0.119163
-0.130959
-0.142754
-0.154546
-0.166336
-0.178124
-0.18991
-0.201694
-0.213472
0.213472
1.26788
1.26788
1.24178
1.20318
1.16241
1.1232
1.08695
1.05406
1.0244
0.997537
0.97299
0.950297
0.929069
0.908999
0.889854
0.871464
0.853699
0.83646
0.819677
0.803293
0.787261
0.771546
0.756118
0.740949
0.726018
0.711305
0.696793
0.682465
0.668309
0.654311
0.64046
0.626745
0.613157
0.599687
0.586327
0.57307
0.559908
0.546835
0.533845
0.520933
0.508093
0.495322
0.482614
0.469966
0.457373
0.444832
0.43234
0.419894
0.407491
0.395127
0.382801
0.37051
0.358252
0.346025
0.333827
0.321656
0.30951
0.297389
0.285289
0.273211
0.261152
0.249111
0.237088
0.225081
0.213089
0.201111
0.189146
0.177194
0.165254
0.153324
0.141405
0.129496
0.117596
0.105704
0.0938196
0.0819431
0.0700735
0.0582105
0.0463536
0.0345025
0.0226568
0.0108163
-0.00101946
-0.0128506
-0.0246775
-0.0365003
-0.0483193
-0.0601346
-0.0719464
-0.0837549
-0.0955603
-0.107363
-0.119162
-0.130959
-0.142754
-0.154546
-0.166336
-0.178124
-0.18991
-0.201693
-0.213469
0.213469
1.26788
1.26788
1.24178
1.20318
1.16241
1.1232
1.08695
1.05406
1.0244
0.997537
0.97299
0.950297
0.929069
0.908999
0.889855
0.871465
0.853698
0.83646
0.819677
0.803293
0.787261
0.771546
0.756118
0.740949
0.726018
0.711305
0.696793
0.682465
0.668309
0.654311
0.64046
0.626745
0.613157
0.599687
0.586327
0.57307
0.559908
0.546835
0.533845
0.520933
0.508093
0.495322
0.482614
0.469966
0.457373
0.444832
0.43234
0.419894
0.407491
0.395127
0.382801
0.37051
0.358252
0.346025
0.333827
0.321656
0.30951
0.297389
0.285289
0.273211
0.261152
0.249111
0.237088
0.225081
0.213089
0.201111
0.189146
0.177194
0.165254
0.153324
0.141405
0.129496
0.117596
0.105704
0.0938196
0.0819431
0.0700735
0.0582105
0.0463536
0.0345025
0.0226568
0.0108163
-0.00101946
-0.0128506
-0.0246775
-0.0365003
-0.0483193
-0.0601346
-0.0719464
-0.0837549
-0.0955603
-0.107363
-0.119162
-0.130959
-0.142754
-0.154546
-0.166336
-0.178124
-0.18991
-0.201693
-0.213469
0.213469
1.27196
1.27196
1.24286
1.20306
1.16192
1.12261
1.08638
1.05356
1.02398
0.997202
0.972726
0.95009
0.928906
0.908868
0.889749
0.871378
0.853625
0.836397
0.819623
0.803246
0.78722
0.77151
0.756085
0.74092
0.725992
0.711282
0.696771
0.682446
0.668291
0.654295
0.640445
0.626732
0.613145
0.599676
0.586317
0.57306
0.559899
0.546826
0.533837
0.520926
0.508087
0.495316
0.482609
0.46996
0.457368
0.444828
0.432336
0.41989
0.407487
0.395124
0.382798
0.370507
0.358249
0.346023
0.333825
0.321654
0.309508
0.297387
0.285287
0.273209
0.26115
0.24911
0.237086
0.225079
0.213087
0.20111
0.189145
0.177193
0.165253
0.153324
0.141405
0.129495
0.117595
0.105703
0.0938189
0.0819425
0.0700729
0.0582099
0.0463531
0.034502
0.0226564
0.0108159
-0.00101985
-0.012851
-0.0246779
-0.0365007
-0.0483196
-0.0601349
-0.0719467
-0.0837552
-0.0955605
-0.107363
-0.119163
-0.130959
-0.142754
-0.154546
-0.166336
-0.178124
-0.18991
-0.201694
-0.213472
0.213472
1.28066
1.28066
1.24488
1.2028
1.16099
1.12153
1.08535
1.05267
1.02325
0.996623
0.972278
0.949745
0.928639
0.90866
0.889584
0.871244
0.853515
0.836306
0.819546
0.803179
0.787162
0.771459
0.75604
0.74088
0.725956
0.71125
0.696743
0.68242
0.668268
0.654274
0.640426
0.626714
0.613129
0.599661
0.586303
0.573047
0.559887
0.546816
0.533827
0.520917
0.508079
0.495308
0.482601
0.469954
0.457362
0.444822
0.432331
0.419885
0.407482
0.395119
0.382794
0.370503
0.358246
0.346019
0.333822
0.321651
0.309506
0.297384
0.285285
0.273207
0.261148
0.249108
0.237085
0.225078
0.213086
0.201108
0.189144
0.177192
0.165252
0.153322
0.141404
0.129494
0.117594
0.105702
0.0938181
0.0819417
0.0700722
0.0582093
0.0463525
0.0345014
0.0226558
0.0108154
-0.00102033
-0.0128515
-0.0246783
-0.0365011
-0.04832
-0.0601352
-0.071947
-0.0837555
-0.0955608
-0.107363
-0.119163
-0.13096
-0.142754
-0.154546
-0.166336
-0.178124
-0.18991
-0.201694
-0.213475
0.213475
1.29504
1.29504
1.24738
1.20241
1.15986
1.12026
1.08417
1.05168
1.02246
0.996016
0.971822
0.949405
0.928384
0.908466
0.889434
0.871126
0.85342
0.836227
0.81948
0.803123
0.787113
0.771417
0.756003
0.740847
0.725927
0.711223
0.696719
0.682398
0.668248
0.654256
0.640409
0.626699
0.613115
0.599649
0.586292
0.573037
0.559877
0.546807
0.533819
0.520909
0.508071
0.495302
0.482595
0.469948
0.457357
0.444817
0.432326
0.419881
0.407478
0.395116
0.38279
0.3705
0.358243
0.346017
0.333819
0.321648
0.309503
0.297382
0.285283
0.273205
0.261146
0.249106
0.237083
0.225076
0.213084
0.201107
0.189143
0.177191
0.165251
0.153321
0.141403
0.129493
0.117593
0.105701
0.0938175
0.081941
0.0700716
0.0582087
0.0463519
0.0345009
0.0226554
0.0108149
-0.00102073
-0.0128518
-0.0246787
-0.0365014
-0.0483203
-0.0601355
-0.0719472
-0.0837557
-0.095561
-0.107363
-0.119163
-0.13096
-0.142754
-0.154546
-0.166336
-0.178124
-0.18991
-0.201695
-0.213477
0.213477
1.31569
1.31569
1.24918
1.2021
1.15915
1.11949
1.08347
1.05108
1.02198
0.995646
0.971536
0.949184
0.928211
0.908329
0.889323
0.871034
0.853342
0.836161
0.819422
0.803072
0.787068
0.771376
0.755967
0.740814
0.725897
0.711196
0.696694
0.682375
0.668227
0.654237
0.640392
0.626683
0.6131
0.599635
0.586279
0.573025
0.559866
0.546796
0.533809
0.5209
0.508063
0.495294
0.482588
0.469941
0.45735
0.444811
0.432321
0.419876
0.407473
0.395111
0.382786
0.370496
0.358239
0.346013
0.333816
0.321645
0.309501
0.297379
0.28528
0.273202
0.261144
0.249104
0.237081
0.225074
0.213083
0.201105
0.189141
0.177189
0.165249
0.15332
0.141401
0.129492
0.117592
0.1057
0.0938166
0.0819402
0.0700708
0.058208
0.0463513
0.0345003
0.0226548
0.0108144
-0.00102124
-0.0128523
-0.0246791
-0.0365018
-0.0483206
-0.0601358
-0.0719475
-0.083756
-0.0955613
-0.107364
-0.119163
-0.13096
-0.142754
-0.154546
-0.166336
-0.178124
-0.18991
-0.201695
-0.213478
0.213478
1.31569
1.31569
1.24918
1.2021
1.15915
1.11949
1.08347
1.05108
1.02198
0.995646
0.971536
0.949184
0.928211
0.908329
0.889323
0.871034
0.853342
0.836161
0.819422
0.803072
0.787068
0.771376
0.755967
0.740814
0.725897
0.711196
0.696694
0.682375
0.668227
0.654237
0.640392
0.626683
0.6131
0.599635
0.586279
0.573025
0.559866
0.546796
0.533809
0.5209
0.508063
0.495294
0.482588
0.469941
0.45735
0.444811
0.432321
0.419876
0.407473
0.395111
0.382786
0.370496
0.358239
0.346013
0.333816
0.321645
0.309501
0.297379
0.28528
0.273202
0.261144
0.249104
0.237081
0.225074
0.213083
0.201105
0.189141
0.177189
0.165249
0.15332
0.141401
0.129492
0.117592
0.1057
0.0938166
0.0819402
0.0700708
0.058208
0.0463513
0.0345003
0.0226548
0.0108144
-0.00102124
-0.0128523
-0.0246791
-0.0365018
-0.0483206
-0.0601358
-0.0719475
-0.083756
-0.0955613
-0.107364
-0.119163
-0.13096
-0.142754
-0.154546
-0.166336
-0.178124
-0.18991
-0.201695
-0.213478
0.213478
SCALARS phi double
LOOKUP_TABLE phi
1
1
1
0.999995
0.999977
0.999931
0.999833
0.999655
0.999364
0.998929
0.998323
0.997523
0.996512
0.995279
0.993815
0.992118
0.990189
0.988032
0.985652
0.983059
0.980261
0.97727
0.974097
0.970755
0.967256
0.963615
0.959842
0.95595
0.951947
0.947834
0.943605
0.939241
0.934712
0.929974
0.924973
0.919648
0.913933
0.907761
0.901068
0.893797
0.885897
0.877329
0.868064
0.858084
0.847383
0.835965
0.823845
0.811047
0.797601
0.783547
0.768927
0.753789
0.738185
0.722167
0.705789
0.689105
0.672169
0.655032
0.637745
0.620357
0.602914
0.585458
0.568031
0.55067
0.533409
0.51628
0.499313
0.482533
0.465963
0.449624
0.433534
0.417709
0.402163
0.386907
0.37195
0.357302
0.342967
0.328952
0.315258
0.301889
0.288846
0.276128
0.263736
0.251667
0.23992
0.228492
0.21738
0.20658
0.19609
0.185906
0.176023
0.166437
0.157146
0.148146
0.139431
0.131005
0.122844
0.115016
0.10728
0.100465
0.0916079
0.0916079
1
1
1
0.999995
0.999977
0.999931
0.999833
0.999655
0.999364
0.998929
0.998323
0.997523
0.996512
0.995279
0.993815
0.992118
0.990189
0.988032
0.985652
0.983059
0.980261
0.97727
0.974097
0.970755
0.967256
0.963615
0.959842
0.95595
0.951947
0.947834
0.943605
0.939241
0.934712
0.929974
0.924973
0.919648
0.913933
0.907761
0.901068
0.893797
0.885897
0.877329
0.868064
0.858084
0.847383
0.835965
0.823845
0.811047
0.797601
0.783547
0.768927
0.753789
0.738185
0.722167
0.705789
0.689105
0.672169
0.655032
0.637745
0.620357
0.602914
0.585458
0.568031
0.55067
0.533409
0.51628
0.499313
0.482533
0.465963
0.449624
0.433534
0.417709
0.402163
0.386907
0.37195
0.357302
0.342967
0.328952
0.315258
0.301889
0.288846
0.276128
0.263736
0.251667
0.23992
0.228492
0.21738
0.20658
0.19609
0.185906
0.176023
0.166437
0.157146
0.148146
0.139431
0.131005
0.122844
0.115016
0.10728
0.100465
0.0916079
0.0916079
0.999998
1
0.999984
0.999921
0.999783
0.999536
0.999146
0.99858
0.997812
0.996819
0.99559
0.994116
0.992398
0.990437
0.98824
0.985817
0.983177
0.980333
0.977297
0.974081
0.9707
0.967166
0.963491
0.95969
0.955772
0.951752
0.947639
0.943445
0.939179
0.934849
0.93046
0.926012
0.921499
0.91691
0.912224
0.907414
0.902446
0.89728
0.891873
0.886178
0.88015
0.873744
0.866919
0.859638
0.851869
0.84359
0.834782
0.825435
0.815545
0.805117
0.794161
0.782691
0.77073
0.758302
0.745436
0.732166
0.718525
0.704549
0.690276
0.675743
0.660988
0.646048
0.63096
0.615759
0.60048
0.585155
0.569815
0.55449
0.539206
0.523989
0.508863
0.493849
0.478968
0.464237
0.449673
0.43529
0.4211
0.407116
0.393348
0.379803
0.366489
0.353412
0.340576
0.327986
0.315644
0.303552
0.29171
0.28012
0.26878
0.257689
0.246845
0.236246
0.225889
0.215771
0.205886
0.196239
0.186793
0.177657
0.168448
0.160424
0.149363
0.149363
1.00001
0.999992
0.99954
0.998615
0.997207
0.995317
0.992955
0.990145
0.986922
0.983332
0.979422
0.975241
0.970836
0.966248
0.961513
0.956664
0.951728
0.946728
0.941682
0.936608
0.931519
0.926427
0.92134
0.916268
0.911216
0.906189
0.901193
0.896232
0.891307
0.886422
0.881579
0.876777
0.872016
0.867292
0.8626
0.857932
0.853275
0.848615
0.843933
0.839208
0.834414
0.829525
0.824512
0.819348
0.814003
0.808448
0.802657
0.796606
0.790271
0.783635
0.776681
0.769397
0.761774
0.753807
0.745494
0.736838
0.727843
0.718518
0.708872
0.698919
0.688674
0.678153
0.667374
0.656358
0.645123
0.63369
0.62208
0.610315
0.598416
0.586402
0.574295
0.562115
0.54988
0.537608
0.525318
0.513026
0.500749
0.4885
0.476294
0.464143
0.452061
0.440056
0.428141
0.416323
0.404611
0.393012
0.381532
0.370176
0.358948
0.347853
0.336892
0.326067
0.315379
0.304829
0.29441
0.284136
0.273956
0.264021
0.253825
0.244971
0.232302
0.232302
1.00143
0.99857
0.991253
0.98188
0.971566
0.96086
0.950051
0.939311
0.928756
0.918468
0.908503
0.898898
0.889671
0.880827
0.87236
0.864261
0.856513
0.849098
0.841997
0.835192
0.828664
0.822396
0.816369
0.810569
0.80498
0.799588
0.794382
0.789348
0.784477
0.779758
0.775181
0.770738
0.766421
0.762222
0.758133
0.754145
0.750252
0.746443
0.742709
0.739039
0.735421
0.731843
0.728289
0.724744
0.721193
0.717617
0.713999
0.710321
0.706564
0.702711
0.698744
0.694647
0.690403
0.685998
0.681419
0.676653
0.671691
0.666524
0.661145
0.655549
0.649733
0.643694
0.637433
0.630951
0.62425
0.617335
0.610211
0.602883
0.595359
0.587647
0.579755
0.571692
0.563469
0.555094
0.546579
0.537932
0.529166
0.520289
0.511312
0.502245
0.493098
0.48388
0.474601
0.465269
0.455893
0.446481
0.43704
0.427576
0.418098
0.408609
0.399116
0.389623
0.380132
0.37065
0.361171
0.351715
0.342226
0.332876
0.323122
0.314645
0.302176
0.302176
1.0456
0.954401
0.887723
0.838673
0.801641
0.772861
0.749886
0.731119
0.715499
0.702298
0.691001
0.681228
0.672693
0.665173
0.658493
0.652515
0.647126
0.642236
0.637772
0.633673
0.629891
0.626382
0.623115
0.620059
0.61719
0.614489
0.611936
0.609518
0.607221
0.605034
0.602947
0.600951
0.599038
0.597202
0.595436
0.593735
0.592094
0.590507
0.58897
0.587478
0.586026
0.584608
0.583218
0.581852
0.580502
0.579161
0.577821
0.576475
0.575114
0.573728
0.572308
0.570845
0.569328
0.567747
0.566093
0.564354
0.562521
0.560585
0.558536
0.556366
0.554065
0.551627
0.549045
0.546312
0.543422
0.54037
0.537153
0.533767
0.530208
0.526475
0.522567
0.518482
0.51422
0.509783
0.50517
0.500383
0.495424
0.490295
0.484999
0.479539
0.473918
0.46814
0.462208
0.456126
0.449898
0.443529
0.437022
0.430382
0.423612
0.416718
0.409702
0.402569
0.395322
0.387965
0.380495
0.372931
0.365221
0.357528
0.349354
0.342223
0.331434
0.331434
-0.0455988
0.0455988
0.112277
0.161326
0.198359
0.227139
0.250114
0.268881
0.284501
0.297702
0.308999
0.318772
0.327307
0.334827
0.341507
0.347485
0.352874
0.357764
0.362228
0.366327
0.370109
0.373618
0.376885
0.379941
0.38281
0.385511
0.388064
0.390482
0.392779
0.394966
0.397053
0.39905
0.400962
0.402798
0.404563
0.406263
0.407903
0.409485
0.411016
0.412496
0.413931
0.415321
0.416669
0.417976
0.419243
0.420471
0.42166
0.422809
0.423917
0.424983
0.426004
0.426978
0.427901
0.428771
0.429583
0.430332
0.431013
0.431622
0.432152
0.432597
0.432951
0.433209
0.433362
0.433406
0.433333
0.433136
0.43281
0.432347
0.431742
0.430988
0.43008
0.429013
0.427779
0.426376
0.424798
0.423041
0.421101
0.418975
0.416659
0.41415
0.411448
0.408549
0.405452
0.402157
0.398663
0.394969
0.391076
0.386984
0.382695