# vtk DataFile Version 3.0
FlowField
ASCII
DATASET STRUCTURED_GRID
DIMENSIONS 102 12 1 
POINTS 1224 double
0 0 0
0.3 0 0
0.6 0 0
0.9 0 0
1.2 0 0
1.5 0 0
1.8 0 0
2.1 0 0
2.4 0 0
2.7 0 0
3 0 0
3.3 0 0
3.6 0 0
3.9 0 0
4.2 0 0
4.5 0 0
4.8 0 0
5.1 0 0
5.4 0 0
5.7 0 0
6 0 0
6.3 0 0
6.6 0 0
6.9 0 0
7.2 0 0
7.5 0 0
7.8 0 0
8.1 0 0
8.4 0 0
8.7 0 0
9 0 0
9.3 0 0
9.6 0 0
9.9 0 0
10.2 0 0
10.5 0 0
10.8 0 0
11.1 0 0
11.4 0 0
11.7 0 0
12 0 0
12.3 0 0
12.6 0 0
12.9 0 0
13.2 0 0
13.5 0 0
13.8 0 0
14.1 0 0
14.4 0 0
14.7 0 0
15 0 0
15.3 0 0
15.6 0 0
15.9 0 0
16.2 0 0
16.5 0 0
16.8 0 0
17.1 0 0
17.4 0 0
17.7 0 0
18 0 0
18.3 0 0
18.6 0 0
18.9 0 0
19.2 0 0
19.5 0 0
19.8 0 0
20.1 0 0
20.4 0 0
20.7 0 0
21 0 0
21.3 0 0
21.6 0 0
21.9 0 0
22.2 0 0
22.5 0 0
22.8 0 0
23.1 0 0
23.4 0 0
23.7 0 0
24 0 0
24.3 0 0
24.6 0 0
24.9 0 0
25.2 0 0
25.5 0 0
25.8 0 0
26.1 0 0
26.4 0 0
26.7 0 0
27 0 0
27.3 0 0
27.6 0 0
27.9 0 0
28.2 0 0
28.5 0 0
28.8 0 0
29.1 0 0
29.4 0 0
29.7 0 0
30 0 0
30.3 0 0
0 0.1 0
0.3 0.1 0
0.6 0.1 0
0.9 0.1 0
1.2 0.1 0
1.5 0.1 0
1.8 0.1 0
2.1 0.1 0
2.4 0.1 0
2.7 0.1 0
3 0.1 0
3.3 0.1 0
3.6 0.1 0
3.9 0.1 0
4.2 0.1 0
4.5 0.1 0
4.8 0.1 0
5.1 0.1 0
5.4 0.1 0
5.7 0.1 0
6 0.1 0
6.3 0.1 0
6.6 0.1 0
6.9 0.1 0
7.2 0.1 0
7.5 0.1 0
7.8 0.1 0
8.1 0.1 0
8.4 0.1 0
8.7 0.1 0
9 0.1 0
9.3 0.1 0
9.6 0.1 0
9.9 0.1 0
10.2 0.1 0
10.5 0.1 0
10.8 0.1 0
11.1 0.1 0
11.4 0.1 0
11.7 0.1 0
12 0.1 0
12.3 0.1 0
12.6 0.1 0
12.9 0.1 0
13.2 0.1 0
13.5 0.1 0
13.8 0.1 0
14.1 0.1 0
14.4 0.1 0
14.7 0.1 0
15 0.1 0
15.3 0.1 0
15.6 0.1 0
15.9 0.1 0
16.2 0.1 0
16.5 0.1 0
16.8 0.1 0
17.1 0.1 0
17.4 0.1 0
17.7 0.1 0
18 0.1 0
18.3 0.1 0
18.6 0.1 0
18.9 0.1 0
19.2 0.1 0
19.5 0.1 0
19.8 0.1 0
20.1 0.1 0
20.4 0.1 0
20.7 0.1 0
21 0.1 0
21.3 0.1 0
21.6 0.1 0
21.9 0.1 0
22.2 0.1 0
22.5 0.1 0
22.8 0.1 0
23.1 0.1 0
23.4 0.1 0
23.7 0.1 0
24 0.1 0
24.3 0.1 0
24.6 0.1 0
24.9 0.1 0
25.2 0.1 0
25.5 0.1 0
25.8 0.1 0
26.1 0.1 0
26.4 0.1 0
26.7 0.1 0
27 0.1 0
27.3 0.1 0
27.6 0.1 0
27.9 0.1 0
28.2 0.1 0
28.5 0.1 0
28.8 0.1 0
29.1 0.1 0
29.4 0.1 0
29.7 0.1 0
30 0.1 0
30.3 0.1 0
0 0.2 0
0.3 0.2 0
0.6 0.2 0
0.9 0.2 0
1.2 0.2 0
1.5 0.2 0
1.8 0.2 0
2.1 0.2 0
2.4 0.2 0
2.7 0.2 0
3 0.2 0
3.3 0.2 0
3.6 0.2 0
3.9 0.2 0
4.2 0.2 0
4.5 0.2 0
4.8 0.2 0
5.1 0.2 0
5.4 0.2 0
5.7 0.2 0
6 0.2 0
6.3 0.2 0
6.6 0.2 0
6.9 0.2 0
7.2 0.2 0
7.5 0.2 0
7.8 0.2 0
8.1 0.2 0
8.4 0.2 0
8.7 0.2 0
9 0.2 0
9.3 0.2 0
9.6 0.2 0
9.9 0.2 0
10.2 0.2 0
10.5 0.2 0
10.8 0.2 0
11.1 0.2 0
11.4 0.2 0
11.7 0.2 0
12 0.2 0
12.3 0.2 0
12.6 0.2 0
12.9 0.2 0
13.2 0.2 0
13.5 0.2 0
13.8 0.2 0
14.1 0.2 0
14.4 0.2 0
14.7 0.2 0
15 0.2 0
15.3 0.2 0
15.6 0.2 0
15.9 0.2 0
16.2 0.2 0
16.5 0.2 0
16.8 0.2 0
17.1 0.2 0
17.4 0.2 0
17.7 0.2 0
18 0.2 0
18.3 0.2 0
18.6 0.2 0
18.9 0.2 0
19.2 0.2 0
19.5 0.2 0
19.8 0.2 0
20.1 0.2 0
20.4 0.2 0
20.7 0.2 0
21 0.2 0
21.3 0.2 0
21.6 0.2 0
21.9 0.2 0
22.2 0.2 0
22.5 0.2 0
22.8 0.2 0
23.1 0.2 0
23.4 0.2 0
23.7 0.2 0
24 0.2 0
24.3 0.2 0
24.6 0.2 0
24.9 0.2 0
25.2 0.2 0
25.5 0.2 0
25.8 0.2 0
26.1 0.2 0
26.4 0.2 0
26.7 0.2 0
27 0.2 0
27.3 0.2 0
27.6 0.2 0
27.9 0.2 0
28.2 0.2 0
28.5 0.2 0
28.8 0.2 0
29.1 0.2 0
29.4 0.2 0
29.7 0.2 0
30 0.2 0
30.3 0.2 0
0 0.3 0
0.3 0.3 0
0.6 0.3 0
0.9 0.3 0
1.2 0.3 0
1.5 0.3 0
1.8 0.3 0
2.1 0.3 0
2.4 0.3 0
2.7 0.3 0
3 0.3 0
3.3 0.3 0
3.6 0.3 0
3.9 0.3 0
4.2 0.3 0
4.5 0.3 0
4.8 0.3 0
5.1 0.3 0
5.4 0.3 0
5.7 0.3 0
6 0.3 0
6.3 0.3 0
6.6 0.3 0
6.9 0.3 0
7.2 0.3 0
7.5 0.3 0
7.8 0.3 0
8.1 0.3 0
8.4 0.3 0
8.7 0.3 0
9 0.3 0
9.3 0.3 0
9.6 0.3 0
9.9 0.3 0
10.2 0.3 0
10.5 0.3 0
10.8 0.3 0
11.1 0.3 0
11.4 0.3 0
11.7 0.3 0
12 0.3 0
12.3 0.3 0
12.6 0.3 0
12.9 0.3 0
13.2 0.3 0
13.5 0.3 0
13.8 0.3 0
14.1 0.3 0
14.4 0.3 0
14.7 0.3 0
15 0.3 0
15.3 0.3 0
15.6 0.3 0
15.9 0.3 0
16.2 0.3 0
16.5 0.3 0
16.8 0.3 0
17.1 0.3 0
17.4 0.3 0
17.7 0.3 0
18 0.3 0
18.3 0.3 0
18.6 0.3 0
18.9 0.3 0
19.2 0.3 0
19.5 0.3 0
19.8 0.3 0
20.1 0.3 0
20.4 0.3 0
20.7 0.3 0
21 0.3 0
21.3 0.3 0
21.6 0.3 0
21.9 0.3 0
22.2 0.3 0
22.5 0.3 0
22.8 0.3 0
23.1 0.3 0
23.4 0.3 0
23.7 0.3 0
24 0.3 0
24.3 0.3 0
24.6 0.3 0
24.9 0.3 0
25.2 0.3 0
25.5 0.3 0
25.8 0.3 0
26.1 0.3 0
26.4 0.3 0
26.7 0.3 0
27 0.3 0
27.3 0.3 0
27.6 0.3 0
27.9 0.3 0
28.2 0.3 0
28.5 0.3 0
28.8 0.3 0
29.1 0.3 0
29.4 0.3 0
29.7 0.3 0
30 0.3 0
30.3 0.3 0
0 0.4 0
0.3 0.4 0
0.6 0.4 0
0.9 0.4 0
1.2 0.4 0
1.5 0.4 0
1.8 0.4 0
2.1 0.4 0
2.4 0.4 0
2.7 0.4 0
3 0.4 0
3.3 0.4 0
3.6 0.4 0
3.9 0.4 0
4.2 0.4 0
4.5 0.4 0
4.8 0.4 0
5.1 0.4 0
5.4 0.4 0
5.7 0.4 0
6 0.4 0
6.3 0.4 0
6.6 0.4 0
6.9 0.4 0
7.2 0.4 0
7.5 0.4 0
7.8 0.4 0
8.1 0.4 0
8.4 0.4 0
8.7 0.4 0
9 0.4 0
9.3 0.4 0
9.6 0.4 0
9.9 0.4 0
10.2 0.4 0
10.5 0.4 0
10.8 0.4 0
11.1 0.4 0
11.4 0.4 0
11.7 0.4 0
12 0.4 0
12.3 0.4 0
12.6 0.4 0
12.9 0.4 0
13.2 0.4 0
13.5 0.4 0
13.8 0.4 0
14.1 0.4 0
14.4 0.4 0
14.7 0.4 0
15 0.4 0
15.3 0.4 0
15.6 0.4 0
15.9 0.4 0
16.2 0.4 0
16.5 0.4 0
16.8 0.4 0
17.1 0.4 0
17.4 0.4 0
17.7 0.4 0
18 0.4 0
18.3 0.4 0
18.6 0.4 0
18.9 0.4 0
19.2 0.4 0
19.5 0.4 0
19.8 0.4 0
20.1 0.4 0
20.4 0.4 0
20.7 0.4 0
21 0.4 0
21.3 0.4 0
21.6 0.4 0
21.9 0.4 0
22.2 0.4 0
22.5 0.4 0
22.8 0.4 0
23.1 0.4 0
23.4 0.4 0
23.7 0.4 0
24 0.4 0
24.3 0.4 0
24.6 0.4 0
24.9 0.4 0
25.2 0.4 0
25.5 0.4 0
25.8 0.4 0
26.1 0.4 0
26.4 0.4 0
26.7 0.4 0
27 0.4 0
27.3 0.4 0
27.6 0.4 0
27.9 0.4 0
28.2 0.4 0
28.5 0.4 0
28.8 0.4 0
29.1 0.4 0
29.4 0.4 0
29.7 0.4 0
30 0.4 0
30.3 0.4 0
0 0.5 0
0.3 0.5 0
0.6 0.5 0
0.9 0.5 0
1.2 0.5 0
1.5 0.5 0
1.8 0.5 0
2.1 0.5 0
2.4 0.5 0
2.7 0.5 0
3 0.5 0
3.3 0.5 0
3.6 0.5 0
3.9 0.5 0
4.2 0.5 0
4.5 0.5 0
4.8 0.5 0
5.1 0.5 0
5.4 0.5 0
5.7 0.5 0
6 0.5 0
6.3 0.5 0
6.6 0.5 0
6.9 0.5 0
7.2 0.5 0
7.5 0.5 0
7.8 0.5 0
8.1 0.5 0
8.4 0.5 0
8.7 0.5 0
9 0.5 0
9.3 0.5 0
9.6 0.5 0
9.9 0.5 0
10.2 0.5 0
10.5 0.5 0
10.8 0.5 0
11.1 0.5 0
11.4 0.5 0
11.7 0.5 0
12 0.5 0
12.3 0.5 0
12.6 0.5 0
12.9 0.5 0
13.2 0.5 0
13.5 0.5 0
13.8 0.5 0
14.1 0.5 0
14.4 0.5 0
14.7 0.5 0
15 0.5 0
15.3 0.5 0
15.6 0.5 0
15.9 0.5 0
16.2 0.5 0
16.5 0.5 0
16.8 0.5 0
17.1 0.5 0
17.4 0.5 0
17.7 0.5 0
18 0.5 0
18.3 0.5 0
18.6 0.5 0
18.9 0.5 0
19.2 0.5 0
19.5 0.5 0
19.8 0.5 0
20.1 0.5 0
20.4 0.5 0
20.7 0.5 0
21 0.5 0
21.3 0.5 0
21.6 0.5 0
21.9 0.5 0
22.2 0.5 0
22.5 0.5 0
22.8 0.5 0
23.1 0.5 0
23.4 0.5 0
23.7 0.5 0
24 0.5 0
24.3 0.5 0
24.6 0.5 0
24.9 0.5 0
25.2 0.5 0
25.5 0.5 0
25.8 0.5 0
26.1 0.5 0
26.4 0.5 0
26.7 0.5 0
27 0.5 0
27.3 0.5 0
27.6 0.5 0
27.9 0.5 0
28.2 0.5 0
28.5 0.5 0
28.8 0.5 0
29.1 0.5 0
29.4 0.5 0
29.7 0.5 0
30 0.5 0
30.3 0.5 0
0 0.6 0
0.3 0.6 0
0.6 0.6 0
0.9 0.6 0
1.2 0.6 0
1.5 0.6 0
1.8 0.6 0
2.1 0.6 0
2.4 0.6 0
2.7 0.6 0
3 0.6 0
3.3 0.6 0
3.6 0.6 0
3.9 0.6 0
4.2 0.6 0
4.5 0.6 0
4.8 0.6 0
5.1 0.6 0
5.4 0.6 0
5.7 0.6 0
6 0.6 0
6.3 0.6 0
6.6 0.6 0
6.9 0.6 0
7.2 0.6 0
7.5 0.6 0
7.8 0.6 0
8.1 0.6 0
8.4 0.6 0
8.7 0.6 0
9 0.6 0
9.3 0.6 0
9.6 0.6 0
9.9 0.6 0
10.2 0.6 0
10.5 0.6 0
10.8 0.6 0
11.1 0.6 0
11.4 0.6 0
11.7 0.6 0
12 0.6 0
12.3 0.6 0
12.6 0.6 0
12.9 0.6 0
13.2 0.6 0
13.5 0.6 0
13.8 0.6 0
14.1 0.6 0
14.4 0.6 0
14.7 0.6 0
15 0.6 0
15.3 0.6 0
15.6 0.6 0
15.9 0.6 0
16.2 0.6 0
16.5 0.6 0
16.8 0.6 0
17.1 0.6 0
17.4 0.6 0
17.7 0.6 0
18 0.6 0
18.3 0.6 0
18.6 0.6 0
18.9 0.6 0
19.2 0.6 0
19.5 0.6 0
19.8 0.6 0
20.1 0.6 0
20.4 0.6 0
20.7 0.6 0
21 0.6 0
21.3 0.6 0
21.6 0.6 0
21.9 0.6 0
22.2 0.6 0
22.5 0.6 0
22.8 0.6 0
23.1 0.6 0
23.4 0.6 0
23.7 0.6 0
24 0.6 0
24.3 0.6 0
24.6 0.6 0
24.9 0.6 0
25.2 0.6 0
25.5 0.6 0
25.8 0.6 0
26.1 0.6 0
26.4 0.6 0
26.7 0.6 0
27 0.6 0
27.3 0.6 0
27.6 0.6 0
27.9 0.6 0
28.2 0.6 0
28.5 0.6 0
28.8 0.6 0
29.1 0.6 0
29.4 0.6 0
29.7 0.6 0
30 0.6 0
30.3 0.6 0
0 0.7 0
0.3 0.7 0
0.6 0.7 0
0.9 0.7 0
1.2 0.7 0
1.5 0.7 0
1.8 0.7 0
2.1 0.7 0
2.4 0.7 0
2.7 0.7 0
3 0.7 0
3.3 0.7 0
3.6 0.7 0
3.9 0.7 0
4.2 0.7 0
4.5 0.7 0
4.8 0.7 0
5.1 0.7 0
5.4 0.7 0
5.7 0.7 0
6 0.7 0
6.3 0.7 0
6.6 0.7 0
6.9 0.7 0
7.2 0.7 0
7.5 0.7 0
7.8 0.7 0
8.1 0.7 0
8.4 0.7 0
8.7 0.7 0
9 0.7 0
9.3 0.7 0
9.6 0.7 0
9.9 0.7 0
10.2 0.7 0
10.5 0.7 0
10.8 0.7 0
11.1 0.7 0
11.4 0.7 0
11.7 0.7 0
12 0.7 0
12.3 0.7 0
12.6 0.7 0
12.9 0.7 0
13.2 0.7 0
13.5 0.7 0
13.8 0.7 0
14.1 0.7 0
14.4 0.7 0
14.7 0.7 0
15 0.7 0
15.3 0.7 0
15.6 0.7 0
15.9 0.7 0
16.2 0.7 0
16.5 0.7 0
16.8 0.7 0
17.1 0.7 0
17.4 0.7 0
17.7 0.7 0
18 0.7 0
18.3 0.7 0
18.6 0.7 0
18.9 0.7 0
19.2 0.7 0
19.5 0.7 0
19.8 0.7 0
20.1 0.7 0
20.4 0.7 0
20.7 0.7 0
21 0.7 0
21.3 0.7 0
21.6 0.7 0
21.9 0.7 0
22.2 0.7 0
22.5 0.7 0
22.8 0.7 0
23.1 0.7 0
23.4 0.7 0
23.7 0.7 0
24 0.7 0
24.3 0.7 0
24.6 0.7 0
24.9 0.7 0
25.2 0.7 0
25.5 0.7 0
25.8 0.7 0
26.1 0.7 0
26.4 0.7 0
26.7 0.7 0
27 0.7 0
27.3 0.7 0
27.6 0.7 0
27.9 0.7 0
28.2 0.7 0
28.5 0.7 0
28.8 0.7 0
29.1 0.7 0
29.4 0.7 0
29.7 0.7 0
30 0.7 0
30.3 0.7 0
0 0.8 0
0.3 0.8 0
0.6 0.8 0
0.9 0.8 0
1.2 0.8 0
1.5 0.8 0
1.8 0.8 0
2.1 0.8 0
2.4 0.8 0
2.7 0.8 0
3 0.8 0
3.3 0.8 0
3.6 0.8 0
3.9 0.8 0
4.2 0.8 0
4.5 0.8 0
4.8 0.8 0
5.1 0.8 0
5.4 0.8 0
5.7 0.8 0
6 0.8 0
6.3 0.8 0
6.6 0.8 0
6.9 0.8 0
7.2 0.8 0
7.5 0.8 0
7.8 0.8 0
8.1 0.8 0
8.4 0.8 0
8.7 0.8 0
9 0.8 0
9.3 0.8 0
9.6 0.8 0
9.9 0.8 0
10.2 0.8 0
10.5 0.8 0
10.8 0.8 0
11.1 0.8 0
11.4 0.8 0
11.7 0.8 0
12 0.8 0
12.3 0.8 0
12.6 0.8 0
12.9 0.8 0
13.2 0.8 0
13.5 0.8 0
13.8 0.8 0
14.1 0.8 0
14.4 0.8 0
14.7 0.8 0
15 0.8 0
15.3 0.8 0
15.6 0.8 0
15.9 0.8 0
16.2 0.8 0
16.5 0.8 0
16.8 0.8 0
17.1 0.8 0
17.4 0.8 0
17.7 0.8 0
18 0.8 0
18.3 0.8 0
18.6 0.8 0
18.9 0.8 0
19.2 0.8 0
19.5 0.8 0
19.8 0.8 0
20.1 0.8 0
20.4 0.8 0
20.7 0.8 0
21 0.8 0
21.3 0.8 0
21.6 0.8 0
21.9 0.8 0
22.2 0.8 0
22.5 0.8 0
22.8 0.8 0
23.1 0.8 0
23.4 0.8 0
23.7 0.8 0
24 0.8 0
24.3 0.8 0
24.6 0.8 0
24.9 0.8 0
25.2 0.8 0
25.5 0.8 0
25.8 0.8 0
26.1 0.8 0
26.4 0.8 0
26.7 0.8 0
27 0.8 0
27.3 0.8 0
27.6 0.8 0
27.9 0.8 0
28.2 0.8 0
28.5 0.8 0
28.8 0.8 0
29.1 0.8 0
29.4 0.8 0
29.7 0.8 0
30 0.8 0
30.3 0.8 0
0 0.9 0
0.3 0.9 0
0.6 0.9 0
0.9 0.9 0
1.2 0.9 0
1.5 0.9 0
1.8 0.9 0
2.1 0.9 0
2.4 0.9 0
2.7 0.9 0
3 0.9 0
3.3 0.9 0
3.6 0.9 0
3.9 0.9 0
4.2 0.9 0
4.5 0.9 0
4.8 0.9 0
5.1 0.9 0
5.4 0.9 0
5.7 0.9 0
6 0.9 0
6.3 0.9 0
6.6 0.9 0
6.9 0.9 0
7.2 0.9 0
7.5 0.9 0
7.8 0.9 0
8.1 0.9 0
8.4 0.9 0
8.7 0.9 0
9 0.9 0
9.3 0.9 0
9.6 0.9 0
9.9 0.9 0
10.2 0.9 0
10.5 0.9 0
10.8 0.9 0
11.1 0.9 0
11.4 0.9 0
11.7 0.9 0
12 0.9 0
12.3 0.9 0
12.6 0.9 0
12.9 0.9 0
13.2 0.9 0
13.5 0.9 0
13.8 0.9 0
14.1 0.9 0
14.4 0.9 0
14.7 0.9 0
15 0.9 0
15.3 0.9 0
15.6 0.9 0
15.9 0.9 0
16.2 0.9 0
16.5 0.9 0
16.8 0.9 0
17.1 0.9 0
17.4 0.9 0
17.7 0.9 0
18 0.9 0
18.3 0.9 0
18.6 0.9 0
18.9 0.9 0
19.2 0.9 0
19.5 0.9 0
19.8 0.9 0
20.1 0.9 0
20.4 0.9 0
20.7 0.9 0
21 0.9 0
21.3 0.9 0
21.6 0.9 0
21.9 0.9 0
22.2 0.9 0
22.5 0.9 0
22.8 0.9 0
23.1 0.9 0
23.4 0.9 0
23.7 0.9 0
24 0.9 0
24.3 0.9 0
24.6 0.9 0
24.9 0.9 0
25.2 0.9 0
25.5 0.9 0
25.8 0.9 0
26.1 0.9 0
26.4 0.9 0
26.7 0.9 0
27 0.9 0
27.3 0.9 0
27.6 0.9 0
27.9 0.9 0
28.2 0.9 0
28.5 0.9 0
28.8 0.9 0
29.1 0.9 0
29.4 0.9 0
29.7 0.9 0
30 0.9 0
30.3 0.9 0
0 1 0
0.3 1 0
0.6 1 0
0.9 1 0
1.2 1 0
1.5 1 0
1.8 1 0
2.1 1 0
2.4 1 0
2.7 1 0
3 1 0
3.3 1 0
3.6 1 0
3.9 1 0
4.2 1 0
4.5 1 0
4.8 1 0
5.1 1 0
5.4 1 0
5.7 1 0
6 1 0
6.3 1 0
6.6 1 0
6.9 1 0
7.2 1 0
7.5 1 0
7.8 1 0
8.1 1 0
8.4 1 0
8.7 1 0
9 1 0
9.3 1 0
9.6 1 0
9.9 1 0
10.2 1 0
10.5 1 0
10.8 1 0
11.1 1 0
11.4 1 0
11.7 1 0
12 1 0
12.3 1 0
12.6 1 0
12.9 1 0
13.2 1 0
13.5 1 0
13.8 1 0
14.1 1 0
14.4 1 0
14.7 1 0
15 1 0
15.3 1 0
15.6 1 0
15.9 1 0
16.2 1 0
16.5 1 0
16.8 1 0
17.1 1 0
17.4 1 0
17.7 1 0
18 1 0
18.3 1 0
18.6 1 0
18.9 1 0
19.2 1 0
19.5 1 0
19.8 1 0
20.1 1 0
20.4 1 0
20.7 1 0
21 1 0
21.3 1 0
21.6 1 0
21.9 1 0
22.2 1 0
22.5 1 0
22.8 1 0
23.1 1 0
23.4 1 0
23.7 1 0
24 1 0
24.3 1 0
24.6 1 0
24.9 1 0
25.2 1 0
25.5 1 0
25.8 1 0
26.1 1 0
26.4 1 0
26.7 1 0
27 1 0
27.3 1 0
27.6 1 0
27.9 1 0
28.2 1 0
28.5 1 0
28.8 1 0
29.1 1 0
29.4 1 0
29.7 1 0
30 1 0
30.3 1 0
0 1.1 0
0.3 1.1 0
0.6 1.1 0
0.9 1.1 0
1.2 1.1 0
1.5 1.1 0
1.8 1.1 0
2.1 1.1 0
2.4 1.1 0
2.7 1.1 0
3 1.1 0
3.3 1.1 0
3.6 1.1 0
3.9 1.1 0
4.2 1.1 0
4.5 1.1 0
4.8 1.1 0
5.1 1.1 0
5.4 1.1 0
5.7 1.1 0
6 1.1 0
6.3 1.1 0
6.6 1.1 0
6.9 1.1 0
7.2 1.1 0
7.5 1.1 0
7.8 1.1 0
8.1 1.1 0
8.4 1.1 0
8.7 1.1 0
9 1.1 0
9.3 1.1 0
9.6 1.1 0
9.9 1.1 0
10.2 1.1 0
10.5 1.1 0
10.8 1.1 0
11.1 1.1 0
11.4 1.1 0
11.7 1.1 0
12 1.1 0
12.3 1.1 0
12.6 1.1 0
12.9 1.1 0
13.2 1.1 0
13.5 1.1 0
13.8 1.1 0
14.1 1.1 0
14.4 1.1 0
14.7 1.1 0
15 1.1 0
15.3 1.1 0
15.6 1.1 0
15.9 1.1 0
16.2 1.1 0
16.5 1.1 0
16.8 1.1 0
17.1 1.1 0
17.4 1.1 0
17.7 1.1 0
18 1.1 0
18.3 1.1 0
18.6 1.1 0
18.9 1.1 0
19.2 1.1 0
19.5 1.1 0
19.8 1.1 0
20.1 1.1 0
20.4 1.1 0
20.7 1.1 0
21 1.1 0
21.3 1.1 0
21.6 1.1 0
21.9 1.1 0
22.2 1.1 0
22.5 1.1 0
22.8 1.1 0
23.1 1.1 0
23.4 1.1 0
23.7 1.1 0
24 1.1 0
24.3 1.1 0
24.6 1.1 0
24.9 1.1 0
25.2 1.1 0
25.5 1.1 0
25.8 1.1 0
26.1 1.1 0
26.4 1.1 0
26.7 1.1 0
27 1.1 0
27.3 1.1 0
27.6 1.1 0
27.9 1.1 0
28.2 1.1 0
28.5 1.1 0
28.8 1.1 0
29.1 1.1 0
29.4 1.1 0
29.7 1.1 0
30 1.1 0
30.3 1.1 0

POINT_DATA 1224

SCALARS pressure double
LOOKUP_TABLE pressure
1.31563
1.31563
1.24912
1.20204
1.15909
1.11943
1.08341
1.05103
1.02193
0.99559
0.97148
0.949126
0.928153
0.908274
0.889267
0.870975
0.853285
0.836105
0.819365
0.803014
0.787011
0.77132
0.75591
0.740756
0.725839
0.71114
0.696637
0.682318
0.66817
0.65418
0.640335
0.626626
0.613043
0.599578
0.586222
0.572968
0.559809
0.546739
0.533752
0.520843
0.508006
0.495237
0.482531
0.469885
0.457294
0.444755
0.432264
0.419819
0.407417
0.395055
0.38273
0.37044
0.358183
0.345957
0.333759
0.321589
0.309444
0.297323
0.285224
0.273146
0.261088
0.249048
0.237025
0.225018
0.213027
0.201049
0.189085
0.177133
0.165193
0.153264
0.141345
0.129436
0.117536
0.105644
0.0937605
0.0818843
0.0700151
0.0581526
0.0462965
0.0344463
0.0226017
0.0107626
-0.0010714
-0.0129005
-0.024725
-0.0365451
-0.0483611
-0.0601731
-0.0719815
-0.0837863
-0.095588
-0.107387
-0.119183
-0.130976
-0.142767
-0.154556
-0.166343
-0.178129
-0.189913
-0.201696
-0.213478
0.213478
1.31563
1.31563
1.24912
1.20204
1.15909
1.11943
1.08341
1.05103
1.02193
0.99559
0.97148
0.949126
0.928153
0.908274
0.889267
0.870975
0.853285
0.836105
0.819365
0.803014
0.787011
0.77132
0.75591
0.740756
0.725839
0.71114
0.696637
0.682318
0.66817
0.65418
0.640335
0.626626
0.613043
0.599578
0.586222
0.572968
0.559809
0.546739
0.533752
0.520843
0.508006
0.495237
0.482531
0.469885
0.457294
0.444755
0.432264
0.419819
0.407417
0.395055
0.38273
0.37044
0.358183
0.345957
0.333759
0.321589
0.309444
0.297323
0.285224
0.273146
0.261088
0.249048
0.237025
0.225018
0.213027
0.201049
0.189085
0.177133
0.165193
0.153264
0.141345
0.129436
0.117536
0.105644
0.0937605
0.0818843
0.0700151
0.0581526
0.0462965
0.0344463
0.0226017
0.0107626
-0.0010714
-0.0129005
-0.024725
-0.0365451
-0.0483611
-0.0601731
-0.0719815
-0.0837863
-0.095588
-0.107387
-0.119183
-0.130976
-0.142767
-0.154556
-0.166343
-0.178129
-0.189913
-0.201696
-0.213478
0.213478
1.29499
1.29499
1.24732
1.20236
1.15981
1.1202
1.08411
1.05162
1.0224
0.99596
0.971765
0.949346
0.928326
0.908411
0.889378
0.871067
0.853363
0.836171
0.819423
0.803065
0.787056
0.77136
0.755946
0.740789
0.72587
0.711167
0.696662
0.682341
0.668192
0.654199
0.640352
0.626642
0.613058
0.599592
0.586235
0.57298
0.559821
0.54675
0.533762
0.520852
0.508015
0.495245
0.482539
0.469891
0.4573
0.44476
0.43227
0.419824
0.407422
0.395059
0.382734
0.370444
0.358187
0.34596
0.333763
0.321592
0.309447
0.297326
0.285227
0.273149
0.26109
0.24905
0.237027
0.22502
0.213028
0.201051
0.189087
0.177135
0.165195
0.153265
0.141347
0.129437
0.117537
0.105645
0.0937614
0.0818851
0.0700159
0.0581533
0.0462971
0.0344469
0.0226023
0.0107631
-0.00107095
-0.0129001
-0.0247247
-0.0365448
-0.0483608
-0.0601729
-0.0719812
-0.0837862
-0.0955878
-0.107387
-0.119182
-0.130976
-0.142767
-0.154556
-0.166343
-0.178129
-0.189913
-0.201696
-0.213478
0.213478
1.2806
1.2806
1.24482
1.20275
1.16094
1.12147
1.08529
1.05261
1.02319
0.996566
0.972221
0.949687
0.928582
0.908605
0.889527
0.871186
0.853459
0.83625
0.819488
0.803121
0.787105
0.771403
0.755983
0.740822
0.725899
0.711193
0.696685
0.682362
0.668211
0.654217
0.640368
0.626657
0.613072
0.599604
0.586246
0.572991
0.55983
0.546759
0.53377
0.52086
0.508022
0.495251
0.482545
0.469897
0.457305
0.444765
0.432274
0.419828
0.407426
0.395063
0.382737
0.370447
0.35819
0.345963
0.333765
0.321595
0.309449
0.297328
0.285229
0.27315
0.261092
0.249051
0.237028
0.225022
0.21303
0.201052
0.189088
0.177136
0.165196
0.153266
0.141347
0.129438
0.117538
0.105646
0.0937621
0.0818857
0.0700165
0.0581539
0.0462976
0.0344473
0.0226027
0.0107635
-0.00107058
-0.0128998
-0.0247244
-0.0365446
-0.0483606
-0.0601727
-0.0719811
-0.083786
-0.0955877
-0.107386
-0.119182
-0.130976
-0.142767
-0.154556
-0.166343
-0.178129
-0.189913
-0.201696
-0.213477
0.213477
1.27191
1.27191
1.24281
1.203
1.16186
1.12255
1.08632
1.05351
1.02392
0.997146
0.972669
0.950032
0.928849
0.908812
0.889692
0.87132
0.853568
0.836341
0.819566
0.803188
0.787163
0.771454
0.756028
0.740862
0.725935
0.711225
0.696714
0.682389
0.668235
0.654238
0.640388
0.626675
0.613088
0.599619
0.58626
0.573003
0.559842
0.546769
0.53378
0.520869
0.50803
0.495259
0.482552
0.469904
0.457311
0.444771
0.432279
0.419833
0.40743
0.395067
0.382741
0.370451
0.358193
0.345966
0.333768
0.321597
0.309452
0.29733
0.285231
0.273153
0.261094
0.249053
0.23703
0.225023
0.213031
0.201054
0.189089
0.177137
0.165197
0.153268
0.141348
0.129439
0.117539
0.105647
0.0937629
0.0818865
0.0700172
0.0581546
0.0462983
0.0344479
0.0226033
0.010764
-0.00107009
-0.0128993
-0.024724
-0.0365442
-0.0483602
-0.0601723
-0.0719808
-0.0837857
-0.0955874
-0.107386
-0.119182
-0.130976
-0.142767
-0.154556
-0.166343
-0.178129
-0.189913
-0.201696
-0.213475
0.213475
1.26783
1.26783
1.24172
1.20312
1.16236
1.12314
1.08689
1.05401
1.02434
0.99748
0.972933
0.950239
0.929012
0.908942
0.889797
0.871407
0.853642
0.836403
0.81962
0.803235
0.787204
0.77149
0.756061
0.740892
0.725962
0.711249
0.696735
0.682408
0.668252
0.654254
0.640403
0.626688
0.613101
0.59963
0.58627
0.573013
0.559851
0.546778
0.533788
0.520876
0.508037
0.495265
0.482557
0.469909
0.457316
0.444776
0.432284
0.419837
0.407434
0.39507
0.382744
0.370454
0.358196
0.345969
0.333771
0.3216
0.309454
0.297332
0.285233
0.273154
0.261095
0.249055
0.237032
0.225024
0.213032
0.201055
0.18909
0.177138
0.165198
0.153268
0.141349
0.12944
0.117539
0.105648
0.0937636
0.0818871
0.0700178
0.0581551
0.0462988
0.0344484
0.0226037
0.0107645
-0.00106969
-0.012899
-0.0247236
-0.0365438
-0.0483599
-0.060172
-0.0719805
-0.0837855
-0.0955872
-0.107386
-0.119182
-0.130975
-0.142767
-0.154556
-0.166343
-0.178129
-0.189913
-0.201695
-0.213473
0.213473
1.26783
1.26783
1.24172
1.20312
1.16236
1.12314
1.08689
1.05401
1.02434
0.99748
0.972933
0.95024
0.929012
0.908942
0.889797
0.871407
0.853641
0.836403
0.81962
0.803235
0.787205
0.77149
0.75606
0.740892
0.725962
0.711248
0.696735
0.682409
0.668252
0.654254
0.640403
0.626688
0.6131
0.59963
0.58627
0.573013
0.559851
0.546778
0.533788
0.520876
0.508037
0.495265
0.482557
0.469909
0.457316
0.444776
0.432284
0.419837
0.407434
0.39507
0.382744
0.370454
0.358196
0.345969
0.333771
0.3216
0.309454
0.297332
0.285233
0.273154
0.261095
0.249055
0.237032
0.225024
0.213032
0.201055
0.18909
0.177138
0.165198
0.153268
0.141349
0.12944
0.117539
0.105648
0.0937636
0.0818871
0.0700178
0.0581551
0.0462988
0.0344484
0.0226037
0.0107645
-0.00106969
-0.012899
-0.0247236
-0.0365438
-0.0483599
-0.060172
-0.0719805
-0.0837855
-0.0955872
-0.107386
-0.119182
-0.130975
-0.142767
-0.154556
-0.166343
-0.178129
-0.189913
-0.201695
-0.213473
0.213473
1.27191
1.27191
1.24281
1.203
1.16186
1.12255
1.08632
1.05351
1.02392
0.997145
0.972669
0.950033
0.928849
0.908811
0.889692
0.87132
0.853568
0.836341
0.819566
0.803188
0.787163
0.771453
0.756028
0.740863
0.725935
0.711224
0.696714
0.682389
0.668234
0.654238
0.640388
0.626675
0.613088
0.599619
0.58626
0.573003
0.559842
0.546769
0.53378
0.520869
0.50803
0.495259
0.482552
0.469904
0.457312
0.444771
0.432279
0.419833
0.40743
0.395067
0.382741
0.370451
0.358193
0.345966
0.333768
0.321597
0.309452
0.29733
0.285231
0.273153
0.261094
0.249053
0.23703
0.225023
0.213031
0.201054
0.189089
0.177137
0.165197
0.153268
0.141348
0.129439
0.117539
0.105647
0.0937629
0.0818865
0.0700172
0.0581546
0.0462983
0.0344479
0.0226033
0.010764
-0.0010701
-0.0128993
-0.024724
-0.0365442
-0.0483602
-0.0601723
-0.0719808
-0.0837857
-0.0955874
-0.107386
-0.119182
-0.130976
-0.142767
-0.154556
-0.166343
-0.178129
-0.189913
-0.201696
-0.213475
0.213475
1.2806
1.2806
1.24482
1.20275
1.16094
1.12147
1.08529
1.05261
1.02319
0.996566
0.97222
0.949688
0.928583
0.908603
0.889527
0.871187
0.853459
0.836249
0.819488
0.803122
0.787105
0.771402
0.755983
0.740823
0.7259
0.711192
0.696685
0.682363
0.668211
0.654216
0.640369
0.626657
0.613072
0.599604
0.586246
0.572991
0.55983
0.546759
0.533771
0.52086
0.508022
0.495251
0.482545
0.469897
0.457305
0.444765
0.432274
0.419829
0.407426
0.395063
0.382737
0.370447
0.35819
0.345963
0.333765
0.321595
0.309449
0.297328
0.285229
0.27315
0.261092
0.249052
0.237028
0.225021
0.21303
0.201052
0.189088
0.177136
0.165196
0.153266
0.141347
0.129438
0.117538
0.105646
0.0937621
0.0818857
0.0700165
0.0581539
0.0462976
0.0344473
0.0226027
0.0107635
-0.00107058
-0.0128998
-0.0247244
-0.0365446
-0.0483606
-0.0601727
-0.0719811
-0.083786
-0.0955877
-0.107386
-0.119182
-0.130976
-0.142767
-0.154556
-0.166343
-0.178129
-0.189913
-0.201696
-0.213477
0.213477
1.29498
1.29498
1.24732
1.20236
1.15981
1.1202
1.08411
1.05162
1.0224
0.995959
0.971764
0.949348
0.928327
0.908409
0.889377
0.871069
0.853363
0.836171
0.819422
0.803066
0.787057
0.77136
0.755946
0.74079
0.72587
0.711166
0.696662
0.682342
0.668191
0.654199
0.640353
0.626642
0.613058
0.599592
0.586235
0.57298
0.55982
0.54675
0.533762
0.520852
0.508015
0.495245
0.482538
0.469891
0.4573
0.44476
0.43227
0.419824
0.407422
0.395059
0.382734
0.370444
0.358186
0.34596
0.333763
0.321592
0.309447
0.297326
0.285227
0.273149
0.26109
0.24905
0.237027
0.22502
0.213028
0.201051
0.189087
0.177135
0.165195
0.153265
0.141347
0.129437
0.117537
0.105645
0.0937614
0.0818851
0.0700159
0.0581533
0.0462971
0.0344468
0.0226023
0.0107631
-0.00107095
-0.0129001
-0.0247247
-0.0365448
-0.0483608
-0.0601729
-0.0719812
-0.0837861
-0.0955878
-0.107387
-0.119182
-0.130976
-0.142767
-0.154556
-0.166343
-0.178129
-0.189913
-0.201696
-0.213478
0.213478
1.31563
1.31563
1.24912
1.20204
1.15909
1.11943
1.08341
1.05103
1.02193
0.995589
0.971479
0.949127
0.928154
0.908272
0.889266
0.870977
0.853286
0.836104
0.819365
0.803015
0.787012
0.771319
0.75591
0.740757
0.72584
0.711139
0.696637
0.682319
0.66817
0.654179
0.640335
0.626626
0.613043
0.599578
0.586222
0.572968
0.559809
0.546739
0.533753
0.520843
0.508006
0.495237
0.482531
0.469885
0.457294
0.444754
0.432264
0.419819
0.407417
0.395054
0.38273
0.37044
0.358183
0.345957
0.333759
0.321589
0.309444
0.297323
0.285224
0.273146
0.261088
0.249048
0.237025
0.225018
0.213027
0.201049
0.189085
0.177133
0.165193
0.153264
0.141345
0.129436
0.117536
0.105644
0.0937605
0.0818843
0.0700151
0.0581526
0.0462965
0.0344463
0.0226017
0.0107626
-0.0010714
-0.0129005
-0.024725
-0.0365451
-0.0483611
-0.0601731
-0.0719814
-0.0837863
-0.095588
-0.107387
-0.119183
-0.130976
-0.142767
-0.154556
-0.166343
-0.178129
-0.189913
-0.201696
-0.213478
0.213478
1.31563
1.31563
1.24912
1.20204
1.15909
1.11943
1.08341
1.05103
1.02193
0.995589
0.971479
0.949127
0.928154
0.908272
0.889266
0.870977
0.853286
0.836104
0.819365
0.803015
0.787012
0.771319
0.75591
0.740757
0.72584
0.711139
0.696637
0.682319
0.66817
0.654179
0.640335
0.626626
0.613043
0.599578
0.586222
0.572968
0.559809
0.546739
0.533753
0.520843
0.508006
0.495237
0.482531
0.469885
0.457294
0.444754
0.432264
0.419819
0.407417
0.395054
0.38273
0.37044
0.358183
0.345957
0.333759
0.321589
0.309444
0.297323
0.285224
0.273146
0.261088
0.249048
0.237025
0.225018
0.213027
0.201049
0.189085
0.177133
0.165193
0.153264
0.141345
0.129436
0.117536
0.105644
0.0937605
0.0818843
0.0700151
0.0581526
0.0462965
0.0344463
0.0226017
0.0107626
-0.0010714
-0.0129005
-0.024725
-0.0365451
-0.0483611
-0.0601731
-0.0719814
-0.0837863
-0.095588
-0.107387
-0.119183
-0.130976
-0.142767
-0.154556
-0.166343
-0.178129
-0.189913
-0.201696
-0.213478
0.213478
SCALARS phi double
LOOKUP_TABLE phi
1
1
1
0.999995
0.999977
0.999931
0.999833
0.999655
0.999364
0.998929
0.998323
0.997523
0.996512
0.995279
0.993815
0.992118
0.990189
0.988032
0.985652
0.983058
0.980261
0.977269
0.974096
0.970755
0.967258
0.963618
0.959845
0.955941
0.951898
0.947693
0.943284
0.938615
0.933614
0.928199
0.922283
0.915783
0.90862
0.900725
0.892043
0.882533
0.872171
0.860946
0.848863
0.835942
0.822212
0.807716
0.792502
0.776628
0.760155
0.74315
0.725678
0.707809
0.68961
0.671147
0.652485
0.633685
0.614806
0.595902
0.577024
0.55822
0.539533
0.521001
0.502661
0.484543
0.466676
0.449086
0.431792
0.414813
0.398166
0.381863
0.365915
0.350329
0.335113
0.320272
0.305807
0.291721
0.278014
0.264684
0.251731
0.239151
0.226941
0.215098
0.203616
0.192492
0.18172
0.171296
0.161215
0.151473
0.142064
0.132985
0.124232
0.115803
0.107693
0.0999016
0.0924259
0.0852689
0.0784156
0.0719166
0.0655955
0.0600787
0.0531072
0.0531072
1
1
1
0.999995
0.999977
0.999931
0.999833
0.999655
0.999364
0.998929
0.998323
0.997523
0.996512
0.995279
0.993815
0.992118
0.990189
0.988032
0.985652
0.983058
0.980261
0.977269
0.974096
0.970755
0.967258
0.963618
0.959845
0.955941
0.951898
0.947693
0.943284
0.938615
0.933614
0.928199
0.922283
0.915783
0.90862
0.900725
0.892043
0.882533
0.872171
0.860946
0.848863
0.835942
0.822212
0.807716
0.792502
0.776628
0.760155
0.74315
0.725678
0.707809
0.68961
0.671147
0.652485
0.633685
0.614806
0.595902
0.577024
0.55822
0.539533
0.521001
0.502661
0.484543
0.466676
0.449086
0.431792
0.414813
0.398166
0.381863
0.365915
0.350329
0.335113
0.320272
0.305807
0.291721
0.278014
0.264684
0.251731
0.239151
0.226941
0.215098
0.203616
0.192492
0.18172
0.171296
0.161215
0.151473
0.142064
0.132985
0.124232
0.115803
0.107693
0.0999016
0.0924259
0.0852689
0.0784156
0.0719166
0.0655955
0.0600787
0.0531072
0.0531072
0.999998
1
0.999984
0.999921
0.999783
0.999536
0.999146
0.99858
0.997812
0.996819
0.99559
0.994116
0.992398
0.990437
0.98824
0.985817
0.983177
0.980333
0.977296
0.974081
0.9707
0.967165
0.963491
0.959689
0.955772
0.951753
0.947641
0.943446
0.939174
0.934826
0.930394
0.925864
0.921208
0.916392
0.911371
0.906093
0.900503
0.894542
0.888155
0.881287
0.873892
0.865928
0.857364
0.848176
0.838352
0.827887
0.816787
0.805063
0.792738
0.779839
0.766399
0.752456
0.73805
0.723227
0.708031
0.692509
0.676708
0.660675
0.644455
0.628092
0.61163
0.595108
0.578566
0.562039
0.54556
0.529162
0.512872
0.496717
0.480721
0.464905
0.449288
0.433887
0.418718
0.403793
0.389122
0.374716
0.360583
0.346727
0.333154
0.319867
0.306869
0.294159
0.281739
0.269606
0.25776
0.246196
0.234912
0.223904
0.213167
0.202695
0.192484
0.182528
0.172821
0.163357
0.154131
0.145145
0.136366
0.127892
0.119384
0.111977
0.101859
0.101859
1.00001
0.999992
0.99954
0.998615
0.997207
0.995317
0.992955
0.990145
0.986922
0.983332
0.979422
0.975241
0.970836
0.966248
0.961513
0.956664
0.951728
0.946728
0.941682
0.936608
0.931519
0.926427
0.92134
0.916268
0.911215
0.906189
0.901193
0.896232
0.891307
0.886421
0.881572
0.876757
0.87197
0.867202
0.862436
0.857655
0.852834
0.847947
0.842963
0.837848
0.832569
0.827089
0.821375
0.815394
0.809115
0.802512
0.79556
0.78824
0.780537
0.772442
0.763949
0.755056
0.745767
0.736089
0.726033
0.715612
0.704844
0.693748
0.682345
0.670658
0.658712
0.64653
0.634138
0.621563
0.608829
0.595962
0.582986
0.569926
0.556805
0.543644
0.530466
0.51729
0.504135
0.491019
0.477958
0.464968
0.452062
0.439253
0.426552
0.41397
0.401515
0.389195
0.377016
0.364982
0.353099
0.341368
0.32979
0.318366
0.307093
0.29597
0.284993
0.274156
0.263453
0.252877
0.242416
0.232074
0.221791
0.211722
0.201331
0.192287
0.179229
0.179229
1.00143
0.99857
0.991253
0.98188
0.971566
0.96086
0.950051
0.939311
0.928756
0.918468
0.908503
0.898898
0.889671
0.880827
0.87236
0.864261
0.856513
0.849098
0.841997
0.835192
0.828664
0.822396
0.816369
0.810568
0.80498
0.799588
0.794382
0.789348
0.784477
0.779758
0.77518
0.770736
0.766416
0.76221
0.758109
0.754102
0.750177
0.74632
0.742518
0.738754
0.735011
0.731268
0.727508
0.723708
0.719847
0.715904
0.711857
0.707686
0.703369
0.698889
0.694228
0.689371
0.684302
0.679011
0.673488
0.667724
0.661715
0.655457
0.648949
0.642191
0.635185
0.627936
0.620448
0.61273
0.604789
0.596633
0.588274
0.579722
0.570988
0.562084
0.553022
0.543815
0.534474
0.525013
0.515443
0.505775
0.496023
0.486196
0.476306
0.466363
0.456376
0.446355
0.436308
0.426243
0.416166
0.406083
0.395998
0.385916
0.375839
0.365767
0.355701
0.345638
0.335574
0.325505
0.315417
0.305319
0.295135
0.285051
0.274427
0.265177
0.251306
0.251306
1.0456
0.954401
0.887723
0.838673
0.801641
0.772861
0.749886
0.731119
0.715499
0.702298
0.691001
0.681228
0.672693
0.665173
0.658493
0.652515
0.647126
0.642236
0.637772
0.633674
0.629891
0.626383
0.623115
0.620059
0.61719
0.614489
0.611936
0.609518
0.607221
0.605034
0.602947
0.60095
0.599037
0.597201
0.595433
0.59373
0.592084
0.590489
0.588939
0.587429
0.58595
0.584495
0.583057
0.581626
0.580193
0.578749
0.577283
0.575783
0.574239
0.572638
0.570969
0.569221
0.567381
0.565437
0.56338
0.561197
0.55888
0.556418
0.553802
0.551026
0.548081
0.544962
0.541663
0.53818
0.534509
0.530648
0.526594
0.522347
0.517906
0.513272
0.508445
0.503428
0.498222
0.492831
0.487257
0.481504
0.475576
0.469477
0.463212
0.456785
0.450201
0.443465
0.436581
0.429555
0.42239
0.41509
0.407661
0.400104
0.392422
0.384618
0.376691
0.368641
0.360465
0.352161
0.343715
0.33514
0.326356
0.317553
0.308091
0.299833
0.287043
0.287043
-0.0455988
0.0455988
0.112277
0.161326
0.198359
0.227139
0.250114
0.268881
0.284501
0.297702
0.308999
0.318772
0.327307
0.334827
0.341507
0.347485
0.352874
0.357764
0.362228
0.366327
0.370109
0.373618
0.376885
0.379941
0.38281
0.385511
0.388064
0.390482
0.392779
0.394966
0.397053
0.39905
0.400962
0.402798
0.404563
0.406263
0.407901
0.409483
0.411011
0.412489
0.413918
0.415301
0.416638
0.417931
0.419178
0.42038
0.421535
0.42264
0.423694
0.424693
0.425633
0.42651
0.427318
0.428053
0.428708
0.429277
0.429753
0.43013
0.4304
0.430556
0.430591
0.430497
0.430268
0.429895
0.429372
0.428692
0.427849
0.426836
0.425647
0.424276
0.422719
0.42097
0.419025
0.41688
0.414531
0.411976
0.409212
0.406237
0.403049
0.399648
0.396032
0.392202
0.388158
0.383899
0.379427
0.374742