# vtk DataFile Version 3.0
FlowField
ASCII
DATASET STRUCTURED_GRID
DIMENSIONS 102 12 1 
POINTS 1224 double
0 0 0
0.3 0 0
0.6 0 0
0.9 0 0
1.2 0 0
1.5 0 0
1.8 0 0
2.1 0 0
2.4 0 0
2.7 0 0
3 0 0
3.3 0 0
3.6 0 0
3.9 0 0
4.2 0 0
4.5 0 0
4.8 0 0
5.1 0 0
5.4 0 0
5.7 0 0
6 0 0
6.3 0 0
6.6 0 0
6.9 0 0
7.2 0 0
7.5 0 0
7.8 0 0
8.1 0 0
8.4 0 0
8.7 0 0
9 0 0
9.3 0 0
9.6 0 0
9.9 0 0
10.2 0 0
10.5 0 0
10.8 0 0
11.1 0 0
11.4 0 0
11.7 0 0
12 0 0
12.3 0 0
12.6 0 0
12.9 0 0
13.2 0 0
13.5 0 0
13.8 0 0
14.1 0 0
14.4 0 0
14.7 0 0
15 0 0
15.3 0 0
15.6 0 0
15.9 0 0
16.2 0 0
16.5 0 0
16.8 0 0
17.1 0 0
17.4 0 0
17.7 0 0
18 0 0
18.3 0 0
18.6 0 0
18.9 0 0
19.2 0 0
19.5 0 0
19.8 0 0
20.1 0 0
20.4 0 0
20.7 0 0
21 0 0
21.3 0 0
21.6 0 0
21.9 0 0
22.2 0 0
22.5 0 0
22.8 0 0
23.1 0 0
23.4 0 0
23.7 0 0
24 0 0
24.3 0 0
24.6 0 0
24.9 0 0
25.2 0 0
25.5 0 0
25.8 0 0
26.1 0 0
26.4 0 0
26.7 0 0
27 0 0
27.3 0 0
27.6 0 0
27.9 0 0
28.2 0 0
28.5 0 0
28.8 0 0
29.1 0 0
29.4 0 0
29.7 0 0
30 0 0
30.3 0 0
0 0.1 0
0.3 0.1 0
0.6 0.1 0
0.9 0.1 0
1.2 0.1 0
1.5 0.1 0
1.8 0.1 0
2.1 0.1 0
2.4 0.1 0
2.7 0.1 0
3 0.1 0
3.3 0.1 0
3.6 0.1 0
3.9 0.1 0
4.2 0.1 0
4.5 0.1 0
4.8 0.1 0
5.1 0.1 0
5.4 0.1 0
5.7 0.1 0
6 0.1 0
6.3 0.1 0
6.6 0.1 0
6.9 0.1 0
7.2 0.1 0
7.5 0.1 0
7.8 0.1 0
8.1 0.1 0
8.4 0.1 0
8.7 0.1 0
9 0.1 0
9.3 0.1 0
9.6 0.1 0
9.9 0.1 0
10.2 0.1 0
10.5 0.1 0
10.8 0.1 0
11.1 0.1 0
11.4 0.1 0
11.7 0.1 0
12 0.1 0
12.3 0.1 0
12.6 0.1 0
12.9 0.1 0
13.2 0.1 0
13.5 0.1 0
13.8 0.1 0
14.1 0.1 0
14.4 0.1 0
14.7 0.1 0
15 0.1 0
15.3 0.1 0
15.6 0.1 0
15.9 0.1 0
16.2 0.1 0
16.5 0.1 0
16.8 0.1 0
17.1 0.1 0
17.4 0.1 0
17.7 0.1 0
18 0.1 0
18.3 0.1 0
18.6 0.1 0
18.9 0.1 0
19.2 0.1 0
19.5 0.1 0
19.8 0.1 0
20.1 0.1 0
20.4 0.1 0
20.7 0.1 0
21 0.1 0
21.3 0.1 0
21.6 0.1 0
21.9 0.1 0
22.2 0.1 0
22.5 0.1 0
22.8 0.1 0
23.1 0.1 0
23.4 0.1 0
23.7 0.1 0
24 0.1 0
24.3 0.1 0
24.6 0.1 0
24.9 0.1 0
25.2 0.1 0
25.5 0.1 0
25.8 0.1 0
26.1 0.1 0
26.4 0.1 0
26.7 0.1 0
27 0.1 0
27.3 0.1 0
27.6 0.1 0
27.9 0.1 0
28.2 0.1 0
28.5 0.1 0
28.8 0.1 0
29.1 0.1 0
29.4 0.1 0
29.7 0.1 0
30 0.1 0
30.3 0.1 0
0 0.2 0
0.3 0.2 0
0.6 0.2 0
0.9 0.2 0
1.2 0.2 0
1.5 0.2 0
1.8 0.2 0
2.1 0.2 0
2.4 0.2 0
2.7 0.2 0
3 0.2 0
3.3 0.2 0
3.6 0.2 0
3.9 0.2 0
4.2 0.2 0
4.5 0.2 0
4.8 0.2 0
5.1 0.2 0
5.4 0.2 0
5.7 0.2 0
6 0.2 0
6.3 0.2 0
6.6 0.2 0
6.9 0.2 0
7.2 0.2 0
7.5 0.2 0
7.8 0.2 0
8.1 0.2 0
8.4 0.2 0
8.7 0.2 0
9 0.2 0
9.3 0.2 0
9.6 0.2 0
9.9 0.2 0
10.2 0.2 0
10.5 0.2 0
10.8 0.2 0
11.1 0.2 0
11.4 0.2 0
11.7 0.2 0
12 0.2 0
12.3 0.2 0
12.6 0.2 0
12.9 0.2 0
13.2 0.2 0
13.5 0.2 0
13.8 0.2 0
14.1 0.2 0
14.4 0.2 0
14.7 0.2 0
15 0.2 0
15.3 0.2 0
15.6 0.2 0
15.9 0.2 0
16.2 0.2 0
16.5 0.2 0
16.8 0.2 0
17.1 0.2 0
17.4 0.2 0
17.7 0.2 0
18 0.2 0
18.3 0.2 0
18.6 0.2 0
18.9 0.2 0
19.2 0.2 0
19.5 0.2 0
19.8 0.2 0
20.1 0.2 0
20.4 0.2 0
20.7 0.2 0
21 0.2 0
21.3 0.2 0
21.6 0.2 0
21.9 0.2 0
22.2 0.2 0
22.5 0.2 0
22.8 0.2 0
23.1 0.2 0
23.4 0.2 0
23.7 0.2 0
24 0.2 0
24.3 0.2 0
24.6 0.2 0
24.9 0.2 0
25.2 0.2 0
25.5 0.2 0
25.8 0.2 0
26.1 0.2 0
26.4 0.2 0
26.7 0.2 0
27 0.2 0
27.3 0.2 0
27.6 0.2 0
27.9 0.2 0
28.2 0.2 0
28.5 0.2 0
28.8 0.2 0
29.1 0.2 0
29.4 0.2 0
29.7 0.2 0
30 0.2 0
30.3 0.2 0
0 0.3 0
0.3 0.3 0
0.6 0.3 0
0.9 0.3 0
1.2 0.3 0
1.5 0.3 0
1.8 0.3 0
2.1 0.3 0
2.4 0.3 0
2.7 0.3 0
3 0.3 0
3.3 0.3 0
3.6 0.3 0
3.9 0.3 0
4.2 0.3 0
4.5 0.3 0
4.8 0.3 0
5.1 0.3 0
5.4 0.3 0
5.7 0.3 0
6 0.3 0
6.3 0.3 0
6.6 0.3 0
6.9 0.3 0
7.2 0.3 0
7.5 0.3 0
7.8 0.3 0
8.1 0.3 0
8.4 0.3 0
8.7 0.3 0
9 0.3 0
9.3 0.3 0
9.6 0.3 0
9.9 0.3 0
10.2 0.3 0
10.5 0.3 0
10.8 0.3 0
11.1 0.3 0
11.4 0.3 0
11.7 0.3 0
12 0.3 0
12.3 0.3 0
12.6 0.3 0
12.9 0.3 0
13.2 0.3 0
13.5 0.3 0
13.8 0.3 0
14.1 0.3 0
14.4 0.3 0
14.7 0.3 0
15 0.3 0
15.3 0.3 0
15.6 0.3 0
15.9 0.3 0
16.2 0.3 0
16.5 0.3 0
16.8 0.3 0
17.1 0.3 0
17.4 0.3 0
17.7 0.3 0
18 0.3 0
18.3 0.3 0
18.6 0.3 0
18.9 0.3 0
19.2 0.3 0
19.5 0.3 0
19.8 0.3 0
20.1 0.3 0
20.4 0.3 0
20.7 0.3 0
21 0.3 0
21.3 0.3 0
21.6 0.3 0
21.9 0.3 0
22.2 0.3 0
22.5 0.3 0
22.8 0.3 0
23.1 0.3 0
23.4 0.3 0
23.7 0.3 0
24 0.3 0
24.3 0.3 0
24.6 0.3 0
24.9 0.3 0
25.2 0.3 0
25.5 0.3 0
25.8 0.3 0
26.1 0.3 0
26.4 0.3 0
26.7 0.3 0
27 0.3 0
27.3 0.3 0
27.6 0.3 0
27.9 0.3 0
28.2 0.3 0
28.5 0.3 0
28.8 0.3 0
29.1 0.3 0
29.4 0.3 0
29.7 0.3 0
30 0.3 0
30.3 0.3 0
0 0.4 0
0.3 0.4 0
0.6 0.4 0
0.9 0.4 0
1.2 0.4 0
1.5 0.4 0
1.8 0.4 0
2.1 0.4 0
2.4 0.4 0
2.7 0.4 0
3 0.4 0
3.3 0.4 0
3.6 0.4 0
3.9 0.4 0
4.2 0.4 0
4.5 0.4 0
4.8 0.4 0
5.1 0.4 0
5.4 0.4 0
5.7 0.4 0
6 0.4 0
6.3 0.4 0
6.6 0.4 0
6.9 0.4 0
7.2 0.4 0
7.5 0.4 0
7.8 0.4 0
8.1 0.4 0
8.4 0.4 0
8.7 0.4 0
9 0.4 0
9.3 0.4 0
9.6 0.4 0
9.9 0.4 0
10.2 0.4 0
10.5 0.4 0
10.8 0.4 0
11.1 0.4 0
11.4 0.4 0
11.7 0.4 0
12 0.4 0
12.3 0.4 0
12.6 0.4 0
12.9 0.4 0
13.2 0.4 0
13.5 0.4 0
13.8 0.4 0
14.1 0.4 0
14.4 0.4 0
14.7 0.4 0
15 0.4 0
15.3 0.4 0
15.6 0.4 0
15.9 0.4 0
16.2 0.4 0
16.5 0.4 0
16.8 0.4 0
17.1 0.4 0
17.4 0.4 0
17.7 0.4 0
18 0.4 0
18.3 0.4 0
18.6 0.4 0
18.9 0.4 0
19.2 0.4 0
19.5 0.4 0
19.8 0.4 0
20.1 0.4 0
20.4 0.4 0
20.7 0.4 0
21 0.4 0
21.3 0.4 0
21.6 0.4 0
21.9 0.4 0
22.2 0.4 0
22.5 0.4 0
22.8 0.4 0
23.1 0.4 0
23.4 0.4 0
23.7 0.4 0
24 0.4 0
24.3 0.4 0
24.6 0.4 0
24.9 0.4 0
25.2 0.4 0
25.5 0.4 0
25.8 0.4 0
26.1 0.4 0
26.4 0.4 0
26.7 0.4 0
27 0.4 0
27.3 0.4 0
27.6 0.4 0
27.9 0.4 0
28.2 0.4 0
28.5 0.4 0
28.8 0.4 0
29.1 0.4 0
29.4 0.4 0
29.7 0.4 0
30 0.4 0
30.3 0.4 0
0 0.5 0
0.3 0.5 0
0.6 0.5 0
0.9 0.5 0
1.2 0.5 0
1.5 0.5 0
1.8 0.5 0
2.1 0.5 0
2.4 0.5 0
2.7 0.5 0
3 0.5 0
3.3 0.5 0
3.6 0.5 0
3.9 0.5 0
4.2 0.5 0
4.5 0.5 0
4.8 0.5 0
5.1 0.5 0
5.4 0.5 0
5.7 0.5 0
6 0.5 0
6.3 0.5 0
6.6 0.5 0
6.9 0.5 0
7.2 0.5 0
7.5 0.5 0
7.8 0.5 0
8.1 0.5 0
8.4 0.5 0
8.7 0.5 0
9 0.5 0
9.3 0.5 0
9.6 0.5 0
9.9 0.5 0
10.2 0.5 0
10.5 0.5 0
10.8 0.5 0
11.1 0.5 0
11.4 0.5 0
11.7 0.5 0
12 0.5 0
12.3 0.5 0
12.6 0.5 0
12.9 0.5 0
13.2 0.5 0
13.5 0.5 0
13.8 0.5 0
14.1 0.5 0
14.4 0.5 0
14.7 0.5 0
15 0.5 0
15.3 0.5 0
15.6 0.5 0
15.9 0.5 0
16.2 0.5 0
16.5 0.5 0
16.8 0.5 0
17.1 0.5 0
17.4 0.5 0
17.7 0.5 0
18 0.5 0
18.3 0.5 0
18.6 0.5 0
18.9 0.5 0
19.2 0.5 0
19.5 0.5 0
19.8 0.5 0
20.1 0.5 0
20.4 0.5 0
20.7 0.5 0
21 0.5 0
21.3 0.5 0
21.6 0.5 0
21.9 0.5 0
22.2 0.5 0
22.5 0.5 0
22.8 0.5 0
23.1 0.5 0
23.4 0.5 0
23.7 0.5 0
24 0.5 0
24.3 0.5 0
24.6 0.5 0
24.9 0.5 0
25.2 0.5 0
25.5 0.5 0
25.8 0.5 0
26.1 0.5 0
26.4 0.5 0
26.7 0.5 0
27 0.5 0
27.3 0.5 0
27.6 0.5 0
27.9 0.5 0
28.2 0.5 0
28.5 0.5 0
28.8 0.5 0
29.1 0.5 0
29.4 0.5 0
29.7 0.5 0
30 0.5 0
30.3 0.5 0
0 0.6 0
0.3 0.6 0
0.6 0.6 0
0.9 0.6 0
1.2 0.6 0
1.5 0.6 0
1.8 0.6 0
2.1 0.6 0
2.4 0.6 0
2.7 0.6 0
3 0.6 0
3.3 0.6 0
3.6 0.6 0
3.9 0.6 0
4.2 0.6 0
4.5 0.6 0
4.8 0.6 0
5.1 0.6 0
5.4 0.6 0
5.7 0.6 0
6 0.6 0
6.3 0.6 0
6.6 0.6 0
6.9 0.6 0
7.2 0.6 0
7.5 0.6 0
7.8 0.6 0
8.1 0.6 0
8.4 0.6 0
8.7 0.6 0
9 0.6 0
9.3 0.6 0
9.6 0.6 0
9.9 0.6 0
10.2 0.6 0
10.5 0.6 0
10.8 0.6 0
11.1 0.6 0
11.4 0.6 0
11.7 0.6 0
12 0.6 0
12.3 0.6 0
12.6 0.6 0
12.9 0.6 0
13.2 0.6 0
13.5 0.6 0
13.8 0.6 0
14.1 0.6 0
14.4 0.6 0
14.7 0.6 0
15 0.6 0
15.3 0.6 0
15.6 0.6 0
15.9 0.6 0
16.2 0.6 0
16.5 0.6 0
16.8 0.6 0
17.1 0.6 0
17.4 0.6 0
17.7 0.6 0
18 0.6 0
18.3 0.6 0
18.6 0.6 0
18.9 0.6 0
19.2 0.6 0
19.5 0.6 0
19.8 0.6 0
20.1 0.6 0
20.4 0.6 0
20.7 0.6 0
21 0.6 0
21.3 0.6 0
21.6 0.6 0
21.9 0.6 0
22.2 0.6 0
22.5 0.6 0
22.8 0.6 0
23.1 0.6 0
23.4 0.6 0
23.7 0.6 0
24 0.6 0
24.3 0.6 0
24.6 0.6 0
24.9 0.6 0
25.2 0.6 0
25.5 0.6 0
25.8 0.6 0
26.1 0.6 0
26.4 0.6 0
26.7 0.6 0
27 0.6 0
27.3 0.6 0
27.6 0.6 0
27.9 0.6 0
28.2 0.6 0
28.5 0.6 0
28.8 0.6 0
29.1 0.6 0
29.4 0.6 0
29.7 0.6 0
30 0.6 0
30.3 0.6 0
0 0.7 0
0.3 0.7 0
0.6 0.7 0
0.9 0.7 0
1.2 0.7 0
1.5 0.7 0
1.8 0.7 0
2.1 0.7 0
2.4 0.7 0
2.7 0.7 0
3 0.7 0
3.3 0.7 0
3.6 0.7 0
3.9 0.7 0
4.2 0.7 0
4.5 0.7 0
4.8 0.7 0
5.1 0.7 0
5.4 0.7 0
5.7 0.7 0
6 0.7 0
6.3 0.7 0
6.6 0.7 0
6.9 0.7 0
7.2 0.7 0
7.5 0.7 0
7.8 0.7 0
8.1 0.7 0
8.4 0.7 0
8.7 0.7 0
9 0.7 0
9.3 0.7 0
9.6 0.7 0
9.9 0.7 0
10.2 0.7 0
10.5 0.7 0
10.8 0.7 0
11.1 0.7 0
11.4 0.7 0
11.7 0.7 0
12 0.7 0
12.3 0.7 0
12.6 0.7 0
12.9 0.7 0
13.2 0.7 0
13.5 0.7 0
13.8 0.7 0
14.1 0.7 0
14.4 0.7 0
14.7 0.7 0
15 0.7 0
15.3 0.7 0
15.6 0.7 0
15.9 0.7 0
16.2 0.7 0
16.5 0.7 0
16.8 0.7 0
17.1 0.7 0
17.4 0.7 0
17.7 0.7 0
18 0.7 0
18.3 0.7 0
18.6 0.7 0
18.9 0.7 0
19.2 0.7 0
19.5 0.7 0
19.8 0.7 0
20.1 0.7 0
20.4 0.7 0
20.7 0.7 0
21 0.7 0
21.3 0.7 0
21.6 0.7 0
21.9 0.7 0
22.2 0.7 0
22.5 0.7 0
22.8 0.7 0
23.1 0.7 0
23.4 0.7 0
23.7 0.7 0
24 0.7 0
24.3 0.7 0
24.6 0.7 0
24.9 0.7 0
25.2 0.7 0
25.5 0.7 0
25.8 0.7 0
26.1 0.7 0
26.4 0.7 0
26.7 0.7 0
27 0.7 0
27.3 0.7 0
27.6 0.7 0
27.9 0.7 0
28.2 0.7 0
28.5 0.7 0
28.8 0.7 0
29.1 0.7 0
29.4 0.7 0
29.7 0.7 0
30 0.7 0
30.3 0.7 0
0 0.8 0
0.3 0.8 0
0.6 0.8 0
0.9 0.8 0
1.2 0.8 0
1.5 0.8 0
1.8 0.8 0
2.1 0.8 0
2.4 0.8 0
2.7 0.8 0
3 0.8 0
3.3 0.8 0
3.6 0.8 0
3.9 0.8 0
4.2 0.8 0
4.5 0.8 0
4.8 0.8 0
5.1 0.8 0
5.4 0.8 0
5.7 0.8 0
6 0.8 0
6.3 0.8 0
6.6 0.8 0
6.9 0.8 0
7.2 0.8 0
7.5 0.8 0
7.8 0.8 0
8.1 0.8 0
8.4 0.8 0
8.7 0.8 0
9 0.8 0
9.3 0.8 0
9.6 0.8 0
9.9 0.8 0
10.2 0.8 0
10.5 0.8 0
10.8 0.8 0
11.1 0.8 0
11.4 0.8 0
11.7 0.8 0
12 0.8 0
12.3 0.8 0
12.6 0.8 0
12.9 0.8 0
13.2 0.8 0
13.5 0.8 0
13.8 0.8 0
14.1 0.8 0
14.4 0.8 0
14.7 0.8 0
15 0.8 0
15.3 0.8 0
15.6 0.8 0
15.9 0.8 0
16.2 0.8 0
16.5 0.8 0
16.8 0.8 0
17.1 0.8 0
17.4 0.8 0
17.7 0.8 0
18 0.8 0
18.3 0.8 0
18.6 0.8 0
18.9 0.8 0
19.2 0.8 0
19.5 0.8 0
19.8 0.8 0
20.1 0.8 0
20.4 0.8 0
20.7 0.8 0
21 0.8 0
21.3 0.8 0
21.6 0.8 0
21.9 0.8 0
22.2 0.8 0
22.5 0.8 0
22.8 0.8 0
23.1 0.8 0
23.4 0.8 0
23.7 0.8 0
24 0.8 0
24.3 0.8 0
24.6 0.8 0
24.9 0.8 0
25.2 0.8 0
25.5 0.8 0
25.8 0.8 0
26.1 0.8 0
26.4 0.8 0
26.7 0.8 0
27 0.8 0
27.3 0.8 0
27.6 0.8 0
27.9 0.8 0
28.2 0.8 0
28.5 0.8 0
28.8 0.8 0
29.1 0.8 0
29.4 0.8 0
29.7 0.8 0
30 0.8 0
30.3 0.8 0
0 0.9 0
0.3 0.9 0
0.6 0.9 0
0.9 0.9 0
1.2 0.9 0
1.5 0.9 0
1.8 0.9 0
2.1 0.9 0
2.4 0.9 0
2.7 0.9 0
3 0.9 0
3.3 0.9 0
3.6 0.9 0
3.9 0.9 0
4.2 0.9 0
4.5 0.9 0
4.8 0.9 0
5.1 0.9 0
5.4 0.9 0
5.7 0.9 0
6 0.9 0
6.3 0.9 0
6.6 0.9 0
6.9 0.9 0
7.2 0.9 0
7.5 0.9 0
7.8 0.9 0
8.1 0.9 0
8.4 0.9 0
8.7 0.9 0
9 0.9 0
9.3 0.9 0
9.6 0.9 0
9.9 0.9 0
10.2 0.9 0
10.5 0.9 0
10.8 0.9 0
11.1 0.9 0
11.4 0.9 0
11.7 0.9 0
12 0.9 0
12.3 0.9 0
12.6 0.9 0
12.9 0.9 0
13.2 0.9 0
13.5 0.9 0
13.8 0.9 0
14.1 0.9 0
14.4 0.9 0
14.7 0.9 0
15 0.9 0
15.3 0.9 0
15.6 0.9 0
15.9 0.9 0
16.2 0.9 0
16.5 0.9 0
16.8 0.9 0
17.1 0.9 0
17.4 0.9 0
17.7 0.9 0
18 0.9 0
18.3 0.9 0
18.6 0.9 0
18.9 0.9 0
19.2 0.9 0
19.5 0.9 0
19.8 0.9 0
20.1 0.9 0
20.4 0.9 0
20.7 0.9 0
21 0.9 0
21.3 0.9 0
21.6 0.9 0
21.9 0.9 0
22.2 0.9 0
22.5 0.9 0
22.8 0.9 0
23.1 0.9 0
23.4 0.9 0
23.7 0.9 0
24 0.9 0
24.3 0.9 0
24.6 0.9 0
24.9 0.9 0
25.2 0.9 0
25.5 0.9 0
25.8 0.9 0
26.1 0.9 0
26.4 0.9 0
26.7 0.9 0
27 0.9 0
27.3 0.9 0
27.6 0.9 0
27.9 0.9 0
28.2 0.9 0
28.5 0.9 0
28.8 0.9 0
29.1 0.9 0
29.4 0.9 0
29.7 0.9 0
30 0.9 0
30.3 0.9 0
0 1 0
0.3 1 0
0.6 1 0
0.9 1 0
1.2 1 0
1.5 1 0
1.8 1 0
2.1 1 0
2.4 1 0
2.7 1 0
3 1 0
3.3 1 0
3.6 1 0
3.9 1 0
4.2 1 0
4.5 1 0
4.8 1 0
5.1 1 0
5.4 1 0
5.7 1 0
6 1 0
6.3 1 0
6.6 1 0
6.9 1 0
7.2 1 0
7.5 1 0
7.8 1 0
8.1 1 0
8.4 1 0
8.7 1 0
9 1 0
9.3 1 0
9.6 1 0
9.9 1 0
10.2 1 0
10.5 1 0
10.8 1 0
11.1 1 0
11.4 1 0
11.7 1 0
12 1 0
12.3 1 0
12.6 1 0
12.9 1 0
13.2 1 0
13.5 1 0
13.8 1 0
14.1 1 0
14.4 1 0
14.7 1 0
15 1 0
15.3 1 0
15.6 1 0
15.9 1 0
16.2 1 0
16.5 1 0
16.8 1 0
17.1 1 0
17.4 1 0
17.7 1 0
18 1 0
18.3 1 0
18.6 1 0
18.9 1 0
19.2 1 0
19.5 1 0
19.8 1 0
20.1 1 0
20.4 1 0
20.7 1 0
21 1 0
21.3 1 0
21.6 1 0
21.9 1 0
22.2 1 0
22.5 1 0
22.8 1 0
23.1 1 0
23.4 1 0
23.7 1 0
24 1 0
24.3 1 0
24.6 1 0
24.9 1 0
25.2 1 0
25.5 1 0
25.8 1 0
26.1 1 0
26.4 1 0
26.7 1 0
27 1 0
27.3 1 0
27.6 1 0
27.9 1 0
28.2 1 0
28.5 1 0
28.8 1 0
29.1 1 0
29.4 1 0
29.7 1 0
30 1 0
30.3 1 0
0 1.1 0
0.3 1.1 0
0.6 1.1 0
0.9 1.1 0
1.2 1.1 0
1.5 1.1 0
1.8 1.1 0
2.1 1.1 0
2.4 1.1 0
2.7 1.1 0
3 1.1 0
3.3 1.1 0
3.6 1.1 0
3.9 1.1 0
4.2 1.1 0
4.5 1.1 0
4.8 1.1 0
5.1 1.1 0
5.4 1.1 0
5.7 1.1 0
6 1.1 0
6.3 1.1 0
6.6 1.1 0
6.9 1.1 0
7.2 1.1 0
7.5 1.1 0
7.8 1.1 0
8.1 1.1 0
8.4 1.1 0
8.7 1.1 0
9 1.1 0
9.3 1.1 0
9.6 1.1 0
9.9 1.1 0
10.2 1.1 0
10.5 1.1 0
10.8 1.1 0
11.1 1.1 0
11.4 1.1 0
11.7 1.1 0
12 1.1 0
12.3 1.1 0
12.6 1.1 0
12.9 1.1 0
13.2 1.1 0
13.5 1.1 0
13.8 1.1 0
14.1 1.1 0
14.4 1.1 0
14.7 1.1 0
15 1.1 0
15.3 1.1 0
15.6 1.1 0
15.9 1.1 0
16.2 1.1 0
16.5 1.1 0
16.8 1.1 0
17.1 1.1 0
17.4 1.1 0
17.7 1.1 0
18 1.1 0
18.3 1.1 0
18.6 1.1 0
18.9 1.1 0
19.2 1.1 0
19.5 1.1 0
19.8 1.1 0
20.1 1.1 0
20.4 1.1 0
20.7 1.1 0
21 1.1 0
21.3 1.1 0
21.6 1.1 0
21.9 1.1 0
22.2 1.1 0
22.5 1.1 0
22.8 1.1 0
23.1 1.1 0
23.4 1.1 0
23.7 1.1 0
24 1.1 0
24.3 1.1 0
24.6 1.1 0
24.9 1.1 0
25.2 1.1 0
25.5 1.1 0
25.8 1.1 0
26.1 1.1 0
26.4 1.1 0
26.7 1.1 0
27 1.1 0
27.3 1.1 0
27.6 1.1 0
27.9 1.1 0
28.2 1.1 0
28.5 1.1 0
28.8 1.1 0
29.1 1.1 0
29.4 1.1 0
29.7 1.1 0
30 1.1 0
30.3 1.1 0

POINT_DATA 1224

SCALARS pressure double
LOOKUP_TABLE pressure
1.31577
1.31577
1.24926
1.20218
1.15923
1.11957
1.08355
1.05117
1.02207
0.995727
0.971617
0.949264
0.928291
0.908409
0.889403
0.871114
0.853423
0.836242
0.819503
0.803153
0.787149
0.771457
0.756047
0.740895
0.725978
0.711277
0.696774
0.682456
0.668308
0.654317
0.640472
0.626763
0.61318
0.599715
0.586359
0.573105
0.559947
0.546877
0.53389
0.52098
0.508143
0.495374
0.482668
0.470022
0.457431
0.444892
0.432401
0.419956
0.407554
0.395191
0.382867
0.370577
0.35832
0.346094
0.333896
0.321726
0.309581
0.29746
0.285361
0.273283
0.261224
0.249184
0.237161
0.225155
0.213163
0.201186
0.189221
0.17727
0.16533
0.153401
0.141482
0.129573
0.117673
0.105781
0.0938971
0.0820208
0.0701514
0.0582886
0.0464319
0.034581
0.0227355
0.010895
-0.000940786
-0.0127721
-0.0245993
-0.0364225
-0.0482421
-0.0600583
-0.0718712
-0.0836811
-0.0954882
-0.107293
-0.119095
-0.130894
-0.142692
-0.154487
-0.166281
-0.178072
-0.189862
-0.201651
-0.213438
0.213438
1.31577
1.31577
1.24926
1.20218
1.15923
1.11957
1.08355
1.05117
1.02207
0.995727
0.971617
0.949264
0.928291
0.908409
0.889403
0.871114
0.853423
0.836242
0.819503
0.803153
0.787149
0.771457
0.756047
0.740895
0.725978
0.711277
0.696774
0.682456
0.668308
0.654317
0.640472
0.626763
0.61318
0.599715
0.586359
0.573105
0.559947
0.546877
0.53389
0.52098
0.508143
0.495374
0.482668
0.470022
0.457431
0.444892
0.432401
0.419956
0.407554
0.395191
0.382867
0.370577
0.35832
0.346094
0.333896
0.321726
0.309581
0.29746
0.285361
0.273283
0.261224
0.249184
0.237161
0.225155
0.213163
0.201186
0.189221
0.17727
0.16533
0.153401
0.141482
0.129573
0.117673
0.105781
0.0938971
0.0820208
0.0701514
0.0582886
0.0464319
0.034581
0.0227355
0.010895
-0.000940786
-0.0127721
-0.0245993
-0.0364225
-0.0482421
-0.0600583
-0.0718712
-0.0836811
-0.0954882
-0.107293
-0.119095
-0.130894
-0.142692
-0.154487
-0.166281
-0.178072
-0.189862
-0.201651
-0.213438
0.213438
1.29512
1.29512
1.24746
1.20249
1.15994
1.12034
1.08425
1.05176
1.02254
0.996097
0.971903
0.949485
0.928464
0.908547
0.889515
0.871206
0.853501
0.836308
0.81956
0.803203
0.787194
0.771497
0.756083
0.740928
0.726007
0.711304
0.696799
0.682479
0.668329
0.654336
0.64049
0.62678
0.613196
0.599729
0.586372
0.573117
0.559958
0.546887
0.5339
0.520989
0.508152
0.495382
0.482676
0.470029
0.457437
0.444898
0.432407
0.419961
0.407559
0.395196
0.382871
0.370581
0.358323
0.346097
0.333899
0.321729
0.309584
0.297462
0.285363
0.273285
0.261227
0.249186
0.237163
0.225157
0.213165
0.201187
0.189223
0.177271
0.165331
0.153402
0.141483
0.129574
0.117674
0.105782
0.093898
0.0820216
0.0701522
0.0582893
0.0464326
0.0345816
0.022736
0.0108955
-0.00094027
-0.0127716
-0.0245988
-0.0364221
-0.0482417
-0.0600579
-0.0718708
-0.0836808
-0.0954879
-0.107292
-0.119094
-0.130894
-0.142692
-0.154487
-0.16628
-0.178072
-0.189862
-0.201651
-0.213437
0.213437
1.28074
1.28074
1.24496
1.20288
1.16107
1.12161
1.08543
1.05275
1.02333
0.996703
0.972359
0.949826
0.92872
0.908741
0.889665
0.871324
0.853596
0.836387
0.819626
0.80326
0.787243
0.77154
0.756121
0.740961
0.726037
0.71133
0.696823
0.6825
0.668348
0.654354
0.640506
0.626794
0.613209
0.599742
0.586384
0.573128
0.559968
0.546896
0.533908
0.520997
0.508159
0.495389
0.482682
0.470034
0.457442
0.444902
0.432411
0.419966
0.407563
0.3952
0.382874
0.370584
0.358326
0.3461
0.333902
0.321731
0.309586
0.297465
0.285365
0.273287
0.261228
0.249188
0.237165
0.225158
0.213166
0.201188
0.189224
0.177272
0.165332
0.153403
0.141484
0.129575
0.117674
0.105783
0.0938987
0.0820222
0.0701528
0.0582899
0.0464331
0.0345821
0.0227365
0.010896
-0.000939856
-0.0127712
-0.0245984
-0.0364217
-0.0482414
-0.0600576
-0.0718706
-0.0836805
-0.0954877
-0.107292
-0.119094
-0.130894
-0.142691
-0.154487
-0.16628
-0.178072
-0.189862
-0.20165
-0.213434
0.213434
1.27205
1.27205
1.24294
1.20314
1.162
1.12269
1.08646
1.05364
1.02406
0.997283
0.972807
0.950171
0.928986
0.908949
0.88983
0.871458
0.853706
0.836478
0.819704
0.803326
0.787301
0.77159
0.756166
0.741001
0.726073
0.711362
0.696852
0.682526
0.668372
0.654375
0.640526
0.626812
0.613225
0.599756
0.586397
0.57314
0.559979
0.546907
0.533918
0.521006
0.508167
0.495396
0.482689
0.470041
0.457449
0.444908
0.432417
0.419971
0.407567
0.395204
0.382878
0.370588
0.35833
0.346103
0.333905
0.321734
0.309589
0.297467
0.285368
0.273289
0.26123
0.24919
0.237167
0.22516
0.213168
0.20119
0.189225
0.177274
0.165333
0.153404
0.141485
0.129576
0.117675
0.105783
0.0938995
0.082023
0.0701535
0.0582906
0.0464338
0.0345827
0.0227371
0.0108965
-0.000939378
-0.0127708
-0.024598
-0.0364213
-0.048241
-0.0600572
-0.0718702
-0.0836802
-0.0954874
-0.107292
-0.119094
-0.130894
-0.142691
-0.154487
-0.16628
-0.178072
-0.189861
-0.201649
-0.213429
0.213429
1.26797
1.26797
1.24186
1.20326
1.16249
1.12328
1.08703
1.05414
1.02448
0.997617
0.973071
0.950378
0.929149
0.90908
0.889936
0.871545
0.853779
0.836541
0.819758
0.803373
0.787342
0.771627
0.756198
0.74103
0.726099
0.711386
0.696873
0.682546
0.66839
0.654392
0.640541
0.626826
0.613238
0.599768
0.586408
0.57315
0.559988
0.546915
0.533925
0.521013
0.508174
0.495403
0.482695
0.470046
0.457453
0.444913
0.432421
0.419974
0.407571
0.395207
0.382881
0.370591
0.358333
0.346106
0.333907
0.321736
0.309591
0.297469
0.28537
0.273291
0.261232
0.249191
0.237168
0.225161
0.213169
0.201191
0.189227
0.177275
0.165334
0.153405
0.141486
0.129576
0.117676
0.105784
0.0939001
0.0820236
0.0701541
0.0582911
0.0464343
0.0345832
0.0227375
0.0108969
-0.000938999
-0.0127704
-0.0245977
-0.036421
-0.0482407
-0.060057
-0.07187
-0.08368
-0.0954872
-0.107292
-0.119094
-0.130893
-0.142691
-0.154486
-0.16628
-0.178072
-0.189861
-0.201648
-0.213424
0.213424
1.26797
1.26797
1.24186
1.20326
1.16249
1.12328
1.08703
1.05414
1.02448
0.997617
0.973071
0.950378
0.929149
0.90908
0.889936
0.871545
0.853779
0.836541
0.819758
0.803373
0.787342
0.771627
0.756198
0.74103
0.726099
0.711386
0.696873
0.682546
0.66839
0.654392
0.640541
0.626826
0.613238
0.599768
0.586408
0.57315
0.559988
0.546915
0.533925
0.521013
0.508174
0.495403
0.482695
0.470046
0.457453
0.444913
0.432421
0.419974
0.407571
0.395207
0.382881
0.370591
0.358333
0.346106
0.333907
0.321736
0.309591
0.297469
0.28537
0.273291
0.261232
0.249191
0.237168
0.225161
0.213169
0.201191
0.189227
0.177275
0.165334
0.153405
0.141486
0.129576
0.117676
0.105784
0.0939001
0.0820236
0.0701541
0.0582911
0.0464343
0.0345832
0.0227375
0.0108969
-0.000938999
-0.0127704
-0.0245977
-0.036421
-0.0482407
-0.060057
-0.07187
-0.08368
-0.0954872
-0.107292
-0.119094
-0.130893
-0.142691
-0.154486
-0.16628
-0.178072
-0.189861
-0.201648
-0.213424
0.213424
1.27204
1.27204
1.24294
1.20314
1.162
1.12269
1.08646
1.05364
1.02406
0.997283
0.972807
0.950171
0.928986
0.908949
0.88983
0.871458
0.853706
0.836478
0.819704
0.803326
0.787301
0.771591
0.756166
0.741
0.726072
0.711362
0.696852
0.682526
0.668372
0.654375
0.640526
0.626812
0.613225
0.599756
0.586397
0.57314
0.559979
0.546907
0.533918
0.521006
0.508167
0.495396
0.482689
0.470041
0.457449
0.444908
0.432417
0.419971
0.407567
0.395204
0.382878
0.370588
0.35833
0.346103
0.333905
0.321734
0.309589
0.297467
0.285368
0.273289
0.26123
0.24919
0.237167
0.22516
0.213168
0.20119
0.189225
0.177274
0.165333
0.153404
0.141485
0.129576
0.117675
0.105783
0.0938995
0.082023
0.0701535
0.0582906
0.0464338
0.0345827
0.0227371
0.0108965
-0.000939378
-0.0127708
-0.024598
-0.0364213
-0.048241
-0.0600572
-0.0718702
-0.0836802
-0.0954874
-0.107292
-0.119094
-0.130894
-0.142691
-0.154487
-0.16628
-0.178072
-0.189861
-0.201649
-0.213429
0.213429
1.28073
1.28073
1.24496
1.20289
1.16108
1.12161
1.08543
1.05275
1.02333
0.996703
0.972359
0.949826
0.92872
0.908741
0.889665
0.871325
0.853596
0.836387
0.819626
0.803259
0.787243
0.77154
0.756121
0.740961
0.726037
0.71133
0.696823
0.6825
0.668348
0.654354
0.640506
0.626794
0.613209
0.599742
0.586384
0.573128
0.559968
0.546896
0.533908
0.520997
0.508159
0.495389
0.482682
0.470034
0.457442
0.444902
0.432411
0.419966
0.407563
0.3952
0.382874
0.370584
0.358326
0.3461
0.333902
0.321731
0.309586
0.297465
0.285365
0.273287
0.261228
0.249188
0.237165
0.225158
0.213166
0.201188
0.189224
0.177272
0.165332
0.153403
0.141484
0.129575
0.117674
0.105783
0.0938987
0.0820222
0.0701528
0.0582899
0.0464331
0.0345821
0.0227365
0.010896
-0.000939856
-0.0127712
-0.0245984
-0.0364217
-0.0482414
-0.0600576
-0.0718706
-0.0836805
-0.0954877
-0.107292
-0.119094
-0.130894
-0.142691
-0.154487
-0.16628
-0.178072
-0.189862
-0.20165
-0.213434
0.213434
1.29512
1.29512
1.24746
1.20249
1.15994
1.12034
1.08425
1.05176
1.02254
0.996097
0.971903
0.949485
0.928464
0.908547
0.889515
0.871206
0.853501
0.836308
0.81956
0.803203
0.787194
0.771497
0.756084
0.740928
0.726007
0.711304
0.696799
0.682479
0.668329
0.654336
0.64049
0.62678
0.613196
0.599729
0.586372
0.573117
0.559958
0.546887
0.5339
0.520989
0.508152
0.495382
0.482676
0.470029
0.457437
0.444898
0.432407
0.419961
0.407559
0.395196
0.382871
0.370581
0.358323
0.346097
0.333899
0.321729
0.309584
0.297462
0.285363
0.273285
0.261227
0.249186
0.237163
0.225157
0.213165
0.201187
0.189223
0.177271
0.165331
0.153402
0.141483
0.129574
0.117674
0.105782
0.093898
0.0820216
0.0701522
0.0582893
0.0464326
0.0345816
0.022736
0.0108955
-0.00094027
-0.0127716
-0.0245988
-0.0364221
-0.0482417
-0.0600579
-0.0718708
-0.0836808
-0.0954879
-0.107292
-0.119094
-0.130894
-0.142692
-0.154487
-0.16628
-0.178072
-0.189862
-0.201651
-0.213437
0.213437
1.31577
1.31577
1.24926
1.20218
1.15923
1.11957
1.08355
1.05117
1.02207
0.995727
0.971617
0.949264
0.928291
0.90841
0.889404
0.871114
0.853423
0.836242
0.819503
0.803153
0.787149
0.771457
0.756047
0.740895
0.725978
0.711276
0.696774
0.682456
0.668308
0.654317
0.640472
0.626763
0.61318
0.599715
0.586359
0.573105
0.559947
0.546877
0.53389
0.52098
0.508143
0.495374
0.482668
0.470022
0.457431
0.444892
0.432401
0.419956
0.407554
0.395191
0.382867
0.370577
0.35832
0.346094
0.333896
0.321726
0.309581
0.29746
0.285361
0.273283
0.261224
0.249184
0.237161
0.225155
0.213163
0.201186
0.189221
0.17727
0.16533
0.153401
0.141482
0.129573
0.117673
0.105781
0.0938971
0.0820208
0.0701514
0.0582886
0.0464319
0.034581
0.0227355
0.010895
-0.000940786
-0.0127721
-0.0245993
-0.0364225
-0.0482421
-0.0600583
-0.0718712
-0.0836811
-0.0954882
-0.107293
-0.119095
-0.130894
-0.142692
-0.154487
-0.166281
-0.178072
-0.189862
-0.201651
-0.213438
0.213438
1.31577
1.31577
1.24926
1.20218
1.15923
1.11957
1.08355
1.05117
1.02207
0.995727
0.971617
0.949264
0.928291
0.90841
0.889404
0.871114
0.853423
0.836242
0.819503
0.803153
0.787149
0.771457
0.756047
0.740895
0.725978
0.711276
0.696774
0.682456
0.668308
0.654317
0.640472
0.626763
0.61318
0.599715
0.586359
0.573105
0.559947
0.546877
0.53389
0.52098
0.508143
0.495374
0.482668
0.470022
0.457431
0.444892
0.432401
0.419956
0.407554
0.395191
0.382867
0.370577
0.35832
0.346094
0.333896
0.321726
0.309581
0.29746
0.285361
0.273283
0.261224
0.249184
0.237161
0.225155
0.213163
0.201186
0.189221
0.17727
0.16533
0.153401
0.141482
0.129573
0.117673
0.105781
0.0938971
0.0820208
0.0701514
0.0582886
0.0464319
0.034581
0.0227355
0.010895
-0.000940786
-0.0127721
-0.0245993
-0.0364225
-0.0482421
-0.0600583
-0.0718712
-0.0836811
-0.0954882
-0.107293
-0.119095
-0.130894
-0.142692
-0.154487
-0.166281
-0.178072
-0.189862
-0.201651
-0.213438
0.213438
SCALARS phi double
LOOKUP_TABLE phi
1
1
1
0.999995
0.999977
0.999931
0.999833
0.999655
0.999364
0.998929
0.998323
0.997523
0.996512
0.995279
0.993815
0.992118
0.990189
0.988032
0.985652
0.983059
0.980261
0.97727
0.974097
0.970755
0.967257
0.963614
0.95984
0.955947
0.951946
0.94785
0.943668
0.939411
0.93509
0.930714
0.92629
0.921826
0.917328
0.912799
0.908241
0.90365
0.899023
0.894349
0.889616
0.884806
0.879901
0.874877
0.869712
0.864378
0.858851
0.853105
0.847115
0.840858
0.834314
0.827464
0.820295
0.812793
0.80495
0.796762
0.788226
0.779345
0.770122
0.760566
0.750686
0.740495
0.730007
0.719238
0.708207
0.696933
0.685434
0.673731
0.661847
0.6498
0.637614
0.625307
0.612903
0.60042
0.587877
0.575296
0.562692
0.550084
0.537489
0.524922
0.512398
0.499931
0.487533
0.475218
0.462995
0.450876
0.43887
0.426985
0.415229
0.403609
0.392131
0.380802
0.369623
0.358608
0.347729
0.337097
0.326347
0.316751
0.303829
0.303829
1
1
1
0.999995
0.999977
0.999931
0.999833
0.999655
0.999364
0.998929
0.998323
0.997523
0.996512
0.995279
0.993815
0.992118
0.990189
0.988032
0.985652
0.983059
0.980261
0.97727
0.974097
0.970755
0.967257
0.963614
0.95984
0.955947
0.951946
0.94785
0.943668
0.939411
0.93509
0.930714
0.92629
0.921826
0.917328
0.912799
0.908241
0.90365
0.899023
0.894349
0.889616
0.884806
0.879901
0.874877
0.869712
0.864378
0.858851
0.853105
0.847115
0.840858
0.834314
0.827464
0.820295
0.812793
0.80495
0.796762
0.788226
0.779345
0.770122
0.760566
0.750686
0.740495
0.730007
0.719238
0.708207
0.696933
0.685434
0.673731
0.661847
0.6498
0.637614
0.625307
0.612903
0.60042
0.587877
0.575296
0.562692
0.550084
0.537489
0.524922
0.512398
0.499931
0.487533
0.475218
0.462995
0.450876
0.43887
0.426985
0.415229
0.403609
0.392131
0.380802
0.369623
0.358608
0.347729
0.337097
0.326347
0.316751
0.303829
0.303829
0.999998
1
0.999984
0.999921
0.999783
0.999536
0.999146
0.99858
0.997812
0.996819
0.99559
0.994116
0.992398
0.990437
0.98824
0.985817
0.983177
0.980333
0.977297
0.974081
0.9707
0.967166
0.963491
0.95969
0.955773
0.951752
0.947639
0.943445
0.939179
0.93485
0.930469
0.926042
0.921579
0.917086
0.912571
0.908038
0.903495
0.898944
0.89439
0.889835
0.885278
0.880718
0.876151
0.87157
0.866967
0.86233
0.857645
0.852898
0.84807
0.843142
0.838096
0.832912
0.82757
0.82205
0.816335
0.810407
0.804252
0.797856
0.791208
0.784299
0.777123
0.769674
0.761952
0.753957
0.745691
0.737158
0.728366
0.719321
0.710035
0.700518
0.690783
0.680841
0.670709
0.660399
0.649927
0.639309
0.62856
0.617695
0.606731
0.595682
0.584563
0.57339
0.562176
0.550935
0.539681
0.528427
0.517184
0.505964
0.494778
0.483636
0.472548
0.461522
0.450568
0.439693
0.428901
0.418211
0.407588
0.397175
0.386515
0.377153
0.363968
0.363968
1.00001
0.999992
0.99954
0.998615
0.997207
0.995317
0.992955
0.990145
0.986922
0.983332
0.979422
0.975241
0.970836
0.966248
0.961513
0.956664
0.951728
0.946728
0.941682
0.936608
0.931519
0.926427
0.92134
0.916268
0.911216
0.906189
0.901194
0.896232
0.891307
0.886422
0.881579
0.87678
0.872025
0.867316
0.862654
0.85804
0.853473
0.848955
0.844485
0.840063
0.835688
0.83136
0.827075
0.822832
0.818626
0.814453
0.810307
0.806182
0.802067
0.797955
0.793834
0.789693
0.785519
0.7813
0.777022
0.772671
0.768233
0.763696
0.759045
0.754269
0.749355
0.744293
0.739073
0.733687
0.728126
0.722386
0.716462
0.71035
0.704048
0.697555
0.690873
0.684002
0.676945
0.669707
0.662292
0.654706
0.646955
0.639047
0.630988
0.622788
0.614454
0.605996
0.597422
0.588742
0.579966
0.571102
0.56216
0.55315
0.54408
0.534959
0.525796
0.5166
0.507378
0.49814
0.488889
0.479646
0.470372
0.461224
0.451725
0.443427
0.431395
0.431395
1.00143
0.99857
0.991252
0.98188
0.971566
0.96086
0.950051
0.939311
0.928756
0.918468
0.908503
0.898898
0.889671
0.880827
0.87236
0.864261
0.856513
0.849098
0.841997
0.835192
0.828664
0.822396
0.816369
0.810568
0.80498
0.799588
0.794382
0.789348
0.784477
0.779758
0.775181
0.770738
0.766422
0.762224
0.758139
0.754159
0.75028
0.746495
0.7428
0.739191
0.735662
0.73221
0.728831
0.725522
0.722277
0.719094
0.715967
0.712894
0.709869
0.706886
0.703942
0.701028
0.69814
0.695271
0.692412
0.689556
0.686695
0.683821
0.680924
0.677995
0.675026
0.672008
0.668931
0.665787
0.662567
0.659263
0.655868
0.652373
0.648773
0.645061
0.641232
0.63728
0.633202
0.628994
0.624654
0.620179
0.615568
0.61082
0.605935
0.600913
0.595755
0.590464
0.58504
0.579487
0.573807
0.568003
0.56208
0.55604
0.549888
0.543629
0.537266
0.530804
0.524248
0.517604
0.510871
0.504069
0.49716
0.49028
0.483022
0.476678
0.467231
0.467231
1.0456
0.954401
0.887723
0.838673
0.801641
0.772861
0.749886
0.731119
0.715499
0.702298
0.691001
0.681228
0.672693
0.665173
0.658493
0.652515
0.647126
0.642236
0.637772
0.633673
0.629891
0.626382
0.623115
0.620059
0.61719
0.614489
0.611936
0.609518
0.607221
0.605034
0.602947
0.60095
0.599038
0.597202
0.595437
0.593737
0.592097
0.590514
0.588983
0.587501
0.586064
0.58467
0.583315
0.581998
0.580716
0.579467
0.578249
0.577059
0.575895
0.574756
0.57364
0.572542
0.571462
0.570397
0.569343
0.568297
0.567256
0.566217
0.565175
0.564125
0.563065
0.561988
0.56089
0.559766
0.558611
0.557419
0.556185
0.554903
0.553568
0.552175
0.550717
0.549191
0.547589
0.545909
0.544144
0.542291
0.540345
0.538302
0.536158
0.53391
0.531554
0.529089
0.52651
0.523817
0.521007
0.518078
0.515029
0.51186
0.508568
0.505155
0.501619
0.497961
0.49418
0.490278
0.486252
0.482114
0.477832
0.473504
0.468836
0.464739
0.458425
0.458425
-0.0455989
0.0455989
0.112277
0.161326
0.198359
0.227139
0.250114
0.268881
0.284501
0.297702
0.308999
0.318772
0.327307
0.334827
0.341507
0.347485
0.352874
0.357764
0.362228
0.366327
0.370109
0.373618
0.376885
0.379941
0.38281
0.385511
0.388064
0.390482
0.392779
0.394966
0.397053
0.399049
0.400962
0.402798
0.404563
0.406263
0.407903
0.409486
0.411017
0.412499
0.413936
0.41533
0.416685
0.418001
0.419282
0.42053
0.421746
0.422932
0.42409
0.42522
0.426324
0.427402
0.428457
0.429487
0.430494
0.431477
0.432437
0.433373
0.434285
0.435172
0.436033
0.436868
0.437673
0.438449
0.439192
0.439901
0.440573
0.441205
0.441794
0.442338
0.442833
0.443276
0.443662
0.443989
0.444251
0.444446
0.444568
0.444615
0.44458
0.444462
0.444254
0.443953
0.443555
0.443055
0.44245
0.441736
0.440908
0.439964
0.438899