# vtk DataFile Version 3.0
FlowField
ASCII
DATASET STRUCTURED_GRID
DIMENSIONS 102 12 1 
POINTS 1224 double
0 0 0
0.3 0 0
0.6 0 0
0.9 0 0
1.2 0 0
1.5 0 0
1.8 0 0
2.1 0 0
2.4 0 0
2.7 0 0
3 0 0
3.3 0 0
3.6 0 0
3.9 0 0
4.2 0 0
4.5 0 0
4.8 0 0
5.1 0 0
5.4 0 0
5.7 0 0
6 0 0
6.3 0 0
6.6 0 0
6.9 0 0
7.2 0 0
7.5 0 0
7.8 0 0
8.1 0 0
8.4 0 0
8.7 0 0
9 0 0
9.3 0 0
9.6 0 0
9.9 0 0
10.2 0 0
10.5 0 0
10.8 0 0
11.1 0 0
11.4 0 0
11.7 0 0
12 0 0
12.3 0 0
12.6 0 0
12.9 0 0
13.2 0 0
13.5 0 0
13.8 0 0
14.1 0 0
14.4 0 0
14.7 0 0
15 0 0
15.3 0 0
15.6 0 0
15.9 0 0
16.2 0 0
16.5 0 0
16.8 0 0
17.1 0 0
17.4 0 0
17.7 0 0
18 0 0
18.3 0 0
18.6 0 0
18.9 0 0
19.2 0 0
19.5 0 0
19.8 0 0
20.1 0 0
20.4 0 0
20.7 0 0
21 0 0
21.3 0 0
21.6 0 0
21.9 0 0
22.2 0 0
22.5 0 0
22.8 0 0
23.1 0 0
23.4 0 0
23.7 0 0
24 0 0
24.3 0 0
24.6 0 0
24.9 0 0
25.2 0 0
25.5 0 0
25.8 0 0
26.1 0 0
26.4 0 0
26.7 0 0
27 0 0
27.3 0 0
27.6 0 0
27.9 0 0
28.2 0 0
28.5 0 0
28.8 0 0
29.1 0 0
29.4 0 0
29.7 0 0
30 0 0
30.3 0 0
0 0.1 0
0.3 0.1 0
0.6 0.1 0
0.9 0.1 0
1.2 0.1 0
1.5 0.1 0
1.8 0.1 0
2.1 0.1 0
2.4 0.1 0
2.7 0.1 0
3 0.1 0
3.3 0.1 0
3.6 0.1 0
3.9 0.1 0
4.2 0.1 0
4.5 0.1 0
4.8 0.1 0
5.1 0.1 0
5.4 0.1 0
5.7 0.1 0
6 0.1 0
6.3 0.1 0
6.6 0.1 0
6.9 0.1 0
7.2 0.1 0
7.5 0.1 0
7.8 0.1 0
8.1 0.1 0
8.4 0.1 0
8.7 0.1 0
9 0.1 0
9.3 0.1 0
9.6 0.1 0
9.9 0.1 0
10.2 0.1 0
10.5 0.1 0
10.8 0.1 0
11.1 0.1 0
11.4 0.1 0
11.7 0.1 0
12 0.1 0
12.3 0.1 0
12.6 0.1 0
12.9 0.1 0
13.2 0.1 0
13.5 0.1 0
13.8 0.1 0
14.1 0.1 0
14.4 0.1 0
14.7 0.1 0
15 0.1 0
15.3 0.1 0
15.6 0.1 0
15.9 0.1 0
16.2 0.1 0
16.5 0.1 0
16.8 0.1 0
17.1 0.1 0
17.4 0.1 0
17.7 0.1 0
18 0.1 0
18.3 0.1 0
18.6 0.1 0
18.9 0.1 0
19.2 0.1 0
19.5 0.1 0
19.8 0.1 0
20.1 0.1 0
20.4 0.1 0
20.7 0.1 0
21 0.1 0
21.3 0.1 0
21.6 0.1 0
21.9 0.1 0
22.2 0.1 0
22.5 0.1 0
22.8 0.1 0
23.1 0.1 0
23.4 0.1 0
23.7 0.1 0
24 0.1 0
24.3 0.1 0
24.6 0.1 0
24.9 0.1 0
25.2 0.1 0
25.5 0.1 0
25.8 0.1 0
26.1 0.1 0
26.4 0.1 0
26.7 0.1 0
27 0.1 0
27.3 0.1 0
27.6 0.1 0
27.9 0.1 0
28.2 0.1 0
28.5 0.1 0
28.8 0.1 0
29.1 0.1 0
29.4 0.1 0
29.7 0.1 0
30 0.1 0
30.3 0.1 0
0 0.2 0
0.3 0.2 0
0.6 0.2 0
0.9 0.2 0
1.2 0.2 0
1.5 0.2 0
1.8 0.2 0
2.1 0.2 0
2.4 0.2 0
2.7 0.2 0
3 0.2 0
3.3 0.2 0
3.6 0.2 0
3.9 0.2 0
4.2 0.2 0
4.5 0.2 0
4.8 0.2 0
5.1 0.2 0
5.4 0.2 0
5.7 0.2 0
6 0.2 0
6.3 0.2 0
6.6 0.2 0
6.9 0.2 0
7.2 0.2 0
7.5 0.2 0
7.8 0.2 0
8.1 0.2 0
8.4 0.2 0
8.7 0.2 0
9 0.2 0
9.3 0.2 0
9.6 0.2 0
9.9 0.2 0
10.2 0.2 0
10.5 0.2 0
10.8 0.2 0
11.1 0.2 0
11.4 0.2 0
11.7 0.2 0
12 0.2 0
12.3 0.2 0
12.6 0.2 0
12.9 0.2 0
13.2 0.2 0
13.5 0.2 0
13.8 0.2 0
14.1 0.2 0
14.4 0.2 0
14.7 0.2 0
15 0.2 0
15.3 0.2 0
15.6 0.2 0
15.9 0.2 0
16.2 0.2 0
16.5 0.2 0
16.8 0.2 0
17.1 0.2 0
17.4 0.2 0
17.7 0.2 0
18 0.2 0
18.3 0.2 0
18.6 0.2 0
18.9 0.2 0
19.2 0.2 0
19.5 0.2 0
19.8 0.2 0
20.1 0.2 0
20.4 0.2 0
20.7 0.2 0
21 0.2 0
21.3 0.2 0
21.6 0.2 0
21.9 0.2 0
22.2 0.2 0
22.5 0.2 0
22.8 0.2 0
23.1 0.2 0
23.4 0.2 0
23.7 0.2 0
24 0.2 0
24.3 0.2 0
24.6 0.2 0
24.9 0.2 0
25.2 0.2 0
25.5 0.2 0
25.8 0.2 0
26.1 0.2 0
26.4 0.2 0
26.7 0.2 0
27 0.2 0
27.3 0.2 0
27.6 0.2 0
27.9 0.2 0
28.2 0.2 0
28.5 0.2 0
28.8 0.2 0
29.1 0.2 0
29.4 0.2 0
29.7 0.2 0
30 0.2 0
30.3 0.2 0
0 0.3 0
0.3 0.3 0
0.6 0.3 0
0.9 0.3 0
1.2 0.3 0
1.5 0.3 0
1.8 0.3 0
2.1 0.3 0
2.4 0.3 0
2.7 0.3 0
3 0.3 0
3.3 0.3 0
3.6 0.3 0
3.9 0.3 0
4.2 0.3 0
4.5 0.3 0
4.8 0.3 0
5.1 0.3 0
5.4 0.3 0
5.7 0.3 0
6 0.3 0
6.3 0.3 0
6.6 0.3 0
6.9 0.3 0
7.2 0.3 0
7.5 0.3 0
7.8 0.3 0
8.1 0.3 0
8.4 0.3 0
8.7 0.3 0
9 0.3 0
9.3 0.3 0
9.6 0.3 0
9.9 0.3 0
10.2 0.3 0
10.5 0.3 0
10.8 0.3 0
11.1 0.3 0
11.4 0.3 0
11.7 0.3 0
12 0.3 0
12.3 0.3 0
12.6 0.3 0
12.9 0.3 0
13.2 0.3 0
13.5 0.3 0
13.8 0.3 0
14.1 0.3 0
14.4 0.3 0
14.7 0.3 0
15 0.3 0
15.3 0.3 0
15.6 0.3 0
15.9 0.3 0
16.2 0.3 0
16.5 0.3 0
16.8 0.3 0
17.1 0.3 0
17.4 0.3 0
17.7 0.3 0
18 0.3 0
18.3 0.3 0
18.6 0.3 0
18.9 0.3 0
19.2 0.3 0
19.5 0.3 0
19.8 0.3 0
20.1 0.3 0
20.4 0.3 0
20.7 0.3 0
21 0.3 0
21.3 0.3 0
21.6 0.3 0
21.9 0.3 0
22.2 0.3 0
22.5 0.3 0
22.8 0.3 0
23.1 0.3 0
23.4 0.3 0
23.7 0.3 0
24 0.3 0
24.3 0.3 0
24.6 0.3 0
24.9 0.3 0
25.2 0.3 0
25.5 0.3 0
25.8 0.3 0
26.1 0.3 0
26.4 0.3 0
26.7 0.3 0
27 0.3 0
27.3 0.3 0
27.6 0.3 0
27.9 0.3 0
28.2 0.3 0
28.5 0.3 0
28.8 0.3 0
29.1 0.3 0
29.4 0.3 0
29.7 0.3 0
30 0.3 0
30.3 0.3 0
0 0.4 0
0.3 0.4 0
0.6 0.4 0
0.9 0.4 0
1.2 0.4 0
1.5 0.4 0
1.8 0.4 0
2.1 0.4 0
2.4 0.4 0
2.7 0.4 0
3 0.4 0
3.3 0.4 0
3.6 0.4 0
3.9 0.4 0
4.2 0.4 0
4.5 0.4 0
4.8 0.4 0
5.1 0.4 0
5.4 0.4 0
5.7 0.4 0
6 0.4 0
6.3 0.4 0
6.6 0.4 0
6.9 0.4 0
7.2 0.4 0
7.5 0.4 0
7.8 0.4 0
8.1 0.4 0
8.4 0.4 0
8.7 0.4 0
9 0.4 0
9.3 0.4 0
9.6 0.4 0
9.9 0.4 0
10.2 0.4 0
10.5 0.4 0
10.8 0.4 0
11.1 0.4 0
11.4 0.4 0
11.7 0.4 0
12 0.4 0
12.3 0.4 0
12.6 0.4 0
12.9 0.4 0
13.2 0.4 0
13.5 0.4 0
13.8 0.4 0
14.1 0.4 0
14.4 0.4 0
14.7 0.4 0
15 0.4 0
15.3 0.4 0
15.6 0.4 0
15.9 0.4 0
16.2 0.4 0
16.5 0.4 0
16.8 0.4 0
17.1 0.4 0
17.4 0.4 0
17.7 0.4 0
18 0.4 0
18.3 0.4 0
18.6 0.4 0
18.9 0.4 0
19.2 0.4 0
19.5 0.4 0
19.8 0.4 0
20.1 0.4 0
20.4 0.4 0
20.7 0.4 0
21 0.4 0
21.3 0.4 0
21.6 0.4 0
21.9 0.4 0
22.2 0.4 0
22.5 0.4 0
22.8 0.4 0
23.1 0.4 0
23.4 0.4 0
23.7 0.4 0
24 0.4 0
24.3 0.4 0
24.6 0.4 0
24.9 0.4 0
25.2 0.4 0
25.5 0.4 0
25.8 0.4 0
26.1 0.4 0
26.4 0.4 0
26.7 0.4 0
27 0.4 0
27.3 0.4 0
27.6 0.4 0
27.9 0.4 0
28.2 0.4 0
28.5 0.4 0
28.8 0.4 0
29.1 0.4 0
29.4 0.4 0
29.7 0.4 0
30 0.4 0
30.3 0.4 0
0 0.5 0
0.3 0.5 0
0.6 0.5 0
0.9 0.5 0
1.2 0.5 0
1.5 0.5 0
1.8 0.5 0
2.1 0.5 0
2.4 0.5 0
2.7 0.5 0
3 0.5 0
3.3 0.5 0
3.6 0.5 0
3.9 0.5 0
4.2 0.5 0
4.5 0.5 0
4.8 0.5 0
5.1 0.5 0
5.4 0.5 0
5.7 0.5 0
6 0.5 0
6.3 0.5 0
6.6 0.5 0
6.9 0.5 0
7.2 0.5 0
7.5 0.5 0
7.8 0.5 0
8.1 0.5 0
8.4 0.5 0
8.7 0.5 0
9 0.5 0
9.3 0.5 0
9.6 0.5 0
9.9 0.5 0
10.2 0.5 0
10.5 0.5 0
10.8 0.5 0
11.1 0.5 0
11.4 0.5 0
11.7 0.5 0
12 0.5 0
12.3 0.5 0
12.6 0.5 0
12.9 0.5 0
13.2 0.5 0
13.5 0.5 0
13.8 0.5 0
14.1 0.5 0
14.4 0.5 0
14.7 0.5 0
15 0.5 0
15.3 0.5 0
15.6 0.5 0
15.9 0.5 0
16.2 0.5 0
16.5 0.5 0
16.8 0.5 0
17.1 0.5 0
17.4 0.5 0
17.7 0.5 0
18 0.5 0
18.3 0.5 0
18.6 0.5 0
18.9 0.5 0
19.2 0.5 0
19.5 0.5 0
19.8 0.5 0
20.1 0.5 0
20.4 0.5 0
20.7 0.5 0
21 0.5 0
21.3 0.5 0
21.6 0.5 0
21.9 0.5 0
22.2 0.5 0
22.5 0.5 0
22.8 0.5 0
23.1 0.5 0
23.4 0.5 0
23.7 0.5 0
24 0.5 0
24.3 0.5 0
24.6 0.5 0
24.9 0.5 0
25.2 0.5 0
25.5 0.5 0
25.8 0.5 0
26.1 0.5 0
26.4 0.5 0
26.7 0.5 0
27 0.5 0
27.3 0.5 0
27.6 0.5 0
27.9 0.5 0
28.2 0.5 0
28.5 0.5 0
28.8 0.5 0
29.1 0.5 0
29.4 0.5 0
29.7 0.5 0
30 0.5 0
30.3 0.5 0
0 0.6 0
0.3 0.6 0
0.6 0.6 0
0.9 0.6 0
1.2 0.6 0
1.5 0.6 0
1.8 0.6 0
2.1 0.6 0
2.4 0.6 0
2.7 0.6 0
3 0.6 0
3.3 0.6 0
3.6 0.6 0
3.9 0.6 0
4.2 0.6 0
4.5 0.6 0
4.8 0.6 0
5.1 0.6 0
5.4 0.6 0
5.7 0.6 0
6 0.6 0
6.3 0.6 0
6.6 0.6 0
6.9 0.6 0
7.2 0.6 0
7.5 0.6 0
7.8 0.6 0
8.1 0.6 0
8.4 0.6 0
8.7 0.6 0
9 0.6 0
9.3 0.6 0
9.6 0.6 0
9.9 0.6 0
10.2 0.6 0
10.5 0.6 0
10.8 0.6 0
11.1 0.6 0
11.4 0.6 0
11.7 0.6 0
12 0.6 0
12.3 0.6 0
12.6 0.6 0
12.9 0.6 0
13.2 0.6 0
13.5 0.6 0
13.8 0.6 0
14.1 0.6 0
14.4 0.6 0
14.7 0.6 0
15 0.6 0
15.3 0.6 0
15.6 0.6 0
15.9 0.6 0
16.2 0.6 0
16.5 0.6 0
16.8 0.6 0
17.1 0.6 0
17.4 0.6 0
17.7 0.6 0
18 0.6 0
18.3 0.6 0
18.6 0.6 0
18.9 0.6 0
19.2 0.6 0
19.5 0.6 0
19.8 0.6 0
20.1 0.6 0
20.4 0.6 0
20.7 0.6 0
21 0.6 0
21.3 0.6 0
21.6 0.6 0
21.9 0.6 0
22.2 0.6 0
22.5 0.6 0
22.8 0.6 0
23.1 0.6 0
23.4 0.6 0
23.7 0.6 0
24 0.6 0
24.3 0.6 0
24.6 0.6 0
24.9 0.6 0
25.2 0.6 0
25.5 0.6 0
25.8 0.6 0
26.1 0.6 0
26.4 0.6 0
26.7 0.6 0
27 0.6 0
27.3 0.6 0
27.6 0.6 0
27.9 0.6 0
28.2 0.6 0
28.5 0.6 0
28.8 0.6 0
29.1 0.6 0
29.4 0.6 0
29.7 0.6 0
30 0.6 0
30.3 0.6 0
0 0.7 0
0.3 0.7 0
0.6 0.7 0
0.9 0.7 0
1.2 0.7 0
1.5 0.7 0
1.8 0.7 0
2.1 0.7 0
2.4 0.7 0
2.7 0.7 0
3 0.7 0
3.3 0.7 0
3.6 0.7 0
3.9 0.7 0
4.2 0.7 0
4.5 0.7 0
4.8 0.7 0
5.1 0.7 0
5.4 0.7 0
5.7 0.7 0
6 0.7 0
6.3 0.7 0
6.6 0.7 0
6.9 0.7 0
7.2 0.7 0
7.5 0.7 0
7.8 0.7 0
8.1 0.7 0
8.4 0.7 0
8.7 0.7 0
9 0.7 0
9.3 0.7 0
9.6 0.7 0
9.9 0.7 0
10.2 0.7 0
10.5 0.7 0
10.8 0.7 0
11.1 0.7 0
11.4 0.7 0
11.7 0.7 0
12 0.7 0
12.3 0.7 0
12.6 0.7 0
12.9 0.7 0
13.2 0.7 0
13.5 0.7 0
13.8 0.7 0
14.1 0.7 0
14.4 0.7 0
14.7 0.7 0
15 0.7 0
15.3 0.7 0
15.6 0.7 0
15.9 0.7 0
16.2 0.7 0
16.5 0.7 0
16.8 0.7 0
17.1 0.7 0
17.4 0.7 0
17.7 0.7 0
18 0.7 0
18.3 0.7 0
18.6 0.7 0
18.9 0.7 0
19.2 0.7 0
19.5 0.7 0
19.8 0.7 0
20.1 0.7 0
20.4 0.7 0
20.7 0.7 0
21 0.7 0
21.3 0.7 0
21.6 0.7 0
21.9 0.7 0
22.2 0.7 0
22.5 0.7 0
22.8 0.7 0
23.1 0.7 0
23.4 0.7 0
23.7 0.7 0
24 0.7 0
24.3 0.7 0
24.6 0.7 0
24.9 0.7 0
25.2 0.7 0
25.5 0.7 0
25.8 0.7 0
26.1 0.7 0
26.4 0.7 0
26.7 0.7 0
27 0.7 0
27.3 0.7 0
27.6 0.7 0
27.9 0.7 0
28.2 0.7 0
28.5 0.7 0
28.8 0.7 0
29.1 0.7 0
29.4 0.7 0
29.7 0.7 0
30 0.7 0
30.3 0.7 0
0 0.8 0
0.3 0.8 0
0.6 0.8 0
0.9 0.8 0
1.2 0.8 0
1.5 0.8 0
1.8 0.8 0
2.1 0.8 0
2.4 0.8 0
2.7 0.8 0
3 0.8 0
3.3 0.8 0
3.6 0.8 0
3.9 0.8 0
4.2 0.8 0
4.5 0.8 0
4.8 0.8 0
5.1 0.8 0
5.4 0.8 0
5.7 0.8 0
6 0.8 0
6.3 0.8 0
6.6 0.8 0
6.9 0.8 0
7.2 0.8 0
7.5 0.8 0
7.8 0.8 0
8.1 0.8 0
8.4 0.8 0
8.7 0.8 0
9 0.8 0
9.3 0.8 0
9.6 0.8 0
9.9 0.8 0
10.2 0.8 0
10.5 0.8 0
10.8 0.8 0
11.1 0.8 0
11.4 0.8 0
11.7 0.8 0
12 0.8 0
12.3 0.8 0
12.6 0.8 0
12.9 0.8 0
13.2 0.8 0
13.5 0.8 0
13.8 0.8 0
14.1 0.8 0
14.4 0.8 0
14.7 0.8 0
15 0.8 0
15.3 0.8 0
15.6 0.8 0
15.9 0.8 0
16.2 0.8 0
16.5 0.8 0
16.8 0.8 0
17.1 0.8 0
17.4 0.8 0
17.7 0.8 0
18 0.8 0
18.3 0.8 0
18.6 0.8 0
18.9 0.8 0
19.2 0.8 0
19.5 0.8 0
19.8 0.8 0
20.1 0.8 0
20.4 0.8 0
20.7 0.8 0
21 0.8 0
21.3 0.8 0
21.6 0.8 0
21.9 0.8 0
22.2 0.8 0
22.5 0.8 0
22.8 0.8 0
23.1 0.8 0
23.4 0.8 0
23.7 0.8 0
24 0.8 0
24.3 0.8 0
24.6 0.8 0
24.9 0.8 0
25.2 0.8 0
25.5 0.8 0
25.8 0.8 0
26.1 0.8 0
26.4 0.8 0
26.7 0.8 0
27 0.8 0
27.3 0.8 0
27.6 0.8 0
27.9 0.8 0
28.2 0.8 0
28.5 0.8 0
28.8 0.8 0
29.1 0.8 0
29.4 0.8 0
29.7 0.8 0
30 0.8 0
30.3 0.8 0
0 0.9 0
0.3 0.9 0
0.6 0.9 0
0.9 0.9 0
1.2 0.9 0
1.5 0.9 0
1.8 0.9 0
2.1 0.9 0
2.4 0.9 0
2.7 0.9 0
3 0.9 0
3.3 0.9 0
3.6 0.9 0
3.9 0.9 0
4.2 0.9 0
4.5 0.9 0
4.8 0.9 0
5.1 0.9 0
5.4 0.9 0
5.7 0.9 0
6 0.9 0
6.3 0.9 0
6.6 0.9 0
6.9 0.9 0
7.2 0.9 0
7.5 0.9 0
7.8 0.9 0
8.1 0.9 0
8.4 0.9 0
8.7 0.9 0
9 0.9 0
9.3 0.9 0
9.6 0.9 0
9.9 0.9 0
10.2 0.9 0
10.5 0.9 0
10.8 0.9 0
11.1 0.9 0
11.4 0.9 0
11.7 0.9 0
12 0.9 0
12.3 0.9 0
12.6 0.9 0
12.9 0.9 0
13.2 0.9 0
13.5 0.9 0
13.8 0.9 0
14.1 0.9 0
14.4 0.9 0
14.7 0.9 0
15 0.9 0
15.3 0.9 0
15.6 0.9 0
15.9 0.9 0
16.2 0.9 0
16.5 0.9 0
16.8 0.9 0
17.1 0.9 0
17.4 0.9 0
17.7 0.9 0
18 0.9 0
18.3 0.9 0
18.6 0.9 0
18.9 0.9 0
19.2 0.9 0
19.5 0.9 0
19.8 0.9 0
20.1 0.9 0
20.4 0.9 0
20.7 0.9 0
21 0.9 0
21.3 0.9 0
21.6 0.9 0
21.9 0.9 0
22.2 0.9 0
22.5 0.9 0
22.8 0.9 0
23.1 0.9 0
23.4 0.9 0
23.7 0.9 0
24 0.9 0
24.3 0.9 0
24.6 0.9 0
24.9 0.9 0
25.2 0.9 0
25.5 0.9 0
25.8 0.9 0
26.1 0.9 0
26.4 0.9 0
26.7 0.9 0
27 0.9 0
27.3 0.9 0
27.6 0.9 0
27.9 0.9 0
28.2 0.9 0
28.5 0.9 0
28.8 0.9 0
29.1 0.9 0
29.4 0.9 0
29.7 0.9 0
30 0.9 0
30.3 0.9 0
0 1 0
0.3 1 0
0.6 1 0
0.9 1 0
1.2 1 0
1.5 1 0
1.8 1 0
2.1 1 0
2.4 1 0
2.7 1 0
3 1 0
3.3 1 0
3.6 1 0
3.9 1 0
4.2 1 0
4.5 1 0
4.8 1 0
5.1 1 0
5.4 1 0
5.7 1 0
6 1 0
6.3 1 0
6.6 1 0
6.9 1 0
7.2 1 0
7.5 1 0
7.8 1 0
8.1 1 0
8.4 1 0
8.7 1 0
9 1 0
9.3 1 0
9.6 1 0
9.9 1 0
10.2 1 0
10.5 1 0
10.8 1 0
11.1 1 0
11.4 1 0
11.7 1 0
12 1 0
12.3 1 0
12.6 1 0
12.9 1 0
13.2 1 0
13.5 1 0
13.8 1 0
14.1 1 0
14.4 1 0
14.7 1 0
15 1 0
15.3 1 0
15.6 1 0
15.9 1 0
16.2 1 0
16.5 1 0
16.8 1 0
17.1 1 0
17.4 1 0
17.7 1 0
18 1 0
18.3 1 0
18.6 1 0
18.9 1 0
19.2 1 0
19.5 1 0
19.8 1 0
20.1 1 0
20.4 1 0
20.7 1 0
21 1 0
21.3 1 0
21.6 1 0
21.9 1 0
22.2 1 0
22.5 1 0
22.8 1 0
23.1 1 0
23.4 1 0
23.7 1 0
24 1 0
24.3 1 0
24.6 1 0
24.9 1 0
25.2 1 0
25.5 1 0
25.8 1 0
26.1 1 0
26.4 1 0
26.7 1 0
27 1 0
27.3 1 0
27.6 1 0
27.9 1 0
28.2 1 0
28.5 1 0
28.8 1 0
29.1 1 0
29.4 1 0
29.7 1 0
30 1 0
30.3 1 0
0 1.1 0
0.3 1.1 0
0.6 1.1 0
0.9 1.1 0
1.2 1.1 0
1.5 1.1 0
1.8 1.1 0
2.1 1.1 0
2.4 1.1 0
2.7 1.1 0
3 1.1 0
3.3 1.1 0
3.6 1.1 0
3.9 1.1 0
4.2 1.1 0
4.5 1.1 0
4.8 1.1 0
5.1 1.1 0
5.4 1.1 0
5.7 1.1 0
6 1.1 0
6.3 1.1 0
6.6 1.1 0
6.9 1.1 0
7.2 1.1 0
7.5 1.1 0
7.8 1.1 0
8.1 1.1 0
8.4 1.1 0
8.7 1.1 0
9 1.1 0
9.3 1.1 0
9.6 1.1 0
9.9 1.1 0
10.2 1.1 0
10.5 1.1 0
10.8 1.1 0
11.1 1.1 0
11.4 1.1 0
11.7 1.1 0
12 1.1 0
12.3 1.1 0
12.6 1.1 0
12.9 1.1 0
13.2 1.1 0
13.5 1.1 0
13.8 1.1 0
14.1 1.1 0
14.4 1.1 0
14.7 1.1 0
15 1.1 0
15.3 1.1 0
15.6 1.1 0
15.9 1.1 0
16.2 1.1 0
16.5 1.1 0
16.8 1.1 0
17.1 1.1 0
17.4 1.1 0
17.7 1.1 0
18 1.1 0
18.3 1.1 0
18.6 1.1 0
18.9 1.1 0
19.2 1.1 0
19.5 1.1 0
19.8 1.1 0
20.1 1.1 0
20.4 1.1 0
20.7 1.1 0
21 1.1 0
21.3 1.1 0
21.6 1.1 0
21.9 1.1 0
22.2 1.1 0
22.5 1.1 0
22.8 1.1 0
23.1 1.1 0
23.4 1.1 0
23.7 1.1 0
24 1.1 0
24.3 1.1 0
24.6 1.1 0
24.9 1.1 0
25.2 1.1 0
25.5 1.1 0
25.8 1.1 0
26.1 1.1 0
26.4 1.1 0
26.7 1.1 0
27 1.1 0
27.3 1.1 0
27.6 1.1 0
27.9 1.1 0
28.2 1.1 0
28.5 1.1 0
28.8 1.1 0
29.1 1.1 0
29.4 1.1 0
29.7 1.1 0
30 1.1 0
30.3 1.1 0

POINT_DATA 1224

SCALARS pressure double
LOOKUP_TABLE pressure
1.31572
1.31572
1.24921
1.20213
1.15918
1.11952
1.0835
1.05111
1.02201
0.995676
0.971565
0.949213
0.92824
0.908358
0.889352
0.871062
0.853371
0.83619
0.819451
0.803101
0.787097
0.771405
0.755995
0.740843
0.725926
0.711225
0.696722
0.682404
0.668256
0.654265
0.64042
0.626711
0.613128
0.599663
0.586307
0.573053
0.559894
0.546825
0.533838
0.520928
0.508091
0.495322
0.482616
0.46997
0.457378
0.444839
0.432348
0.419903
0.407501
0.395138
0.382813
0.370523
0.358266
0.34604
0.333844
0.321677
0.309536
0.297421
0.285331
0.273265
0.261221
0.249198
0.237197
0.225215
0.213251
0.201304
0.189374
0.177457
0.165554
0.153663
0.141782
0.12991
0.118046
0.106189
0.094337
0.0824902
0.0706472
0.0588075
0.0469703
0.0351351
0.0233015
0.0114692
-0.000362226
-0.0121929
-0.0240231
-0.0358529
-0.0476824
-0.0595117
-0.0713408
-0.0831698
-0.0949988
-0.106828
-0.118657
-0.130486
-0.142314
-0.154143
-0.165972
-0.177801
-0.18963
-0.201458
-0.213286
0.213286
1.31572
1.31572
1.24921
1.20213
1.15918
1.11952
1.0835
1.05111
1.02201
0.995676
0.971565
0.949213
0.92824
0.908358
0.889352
0.871062
0.853371
0.83619
0.819451
0.803101
0.787097
0.771405
0.755995
0.740843
0.725926
0.711225
0.696722
0.682404
0.668256
0.654265
0.64042
0.626711
0.613128
0.599663
0.586307
0.573053
0.559894
0.546825
0.533838
0.520928
0.508091
0.495322
0.482616
0.46997
0.457378
0.444839
0.432348
0.419903
0.407501
0.395138
0.382813
0.370523
0.358266
0.34604
0.333844
0.321677
0.309536
0.297421
0.285331
0.273265
0.261221
0.249198
0.237197
0.225215
0.213251
0.201304
0.189374
0.177457
0.165554
0.153663
0.141782
0.12991
0.118046
0.106189
0.094337
0.0824902
0.0706472
0.0588075
0.0469703
0.0351351
0.0233015
0.0114692
-0.000362226
-0.0121929
-0.0240231
-0.0358529
-0.0476824
-0.0595117
-0.0713408
-0.0831698
-0.0949988
-0.106828
-0.118657
-0.130486
-0.142314
-0.154143
-0.165972
-0.177801
-0.18963
-0.201458
-0.213286
0.213286
1.29507
1.29507
1.24741
1.20244
1.15989
1.12029
1.0842
1.05171
1.02249
0.996046
0.971851
0.949433
0.928413
0.908495
0.889463
0.871155
0.853449
0.836256
0.819509
0.803151
0.787142
0.771445
0.756032
0.740876
0.725955
0.711252
0.696747
0.682427
0.668277
0.654284
0.640438
0.626728
0.613144
0.599677
0.58632
0.573065
0.559906
0.546835
0.533847
0.520937
0.5081
0.49533
0.482623
0.469976
0.457385
0.444845
0.432354
0.419908
0.407505
0.395142
0.382817
0.370527
0.358269
0.346044
0.333848
0.32168
0.309539
0.297424
0.285333
0.273266
0.261222
0.2492
0.237198
0.225216
0.213252
0.201305
0.189374
0.177458
0.165554
0.153663
0.141782
0.12991
0.118046
0.106189
0.094337
0.0824901
0.0706472
0.0588074
0.0469702
0.0351351
0.0233015
0.0114692
-0.000362242
-0.0121929
-0.0240231
-0.0358529
-0.0476824
-0.0595117
-0.0713408
-0.0831698
-0.0949988
-0.106828
-0.118657
-0.130486
-0.142314
-0.154143
-0.165972
-0.177801
-0.18963
-0.201458
-0.213286
0.213286
1.28068
1.28068
1.2449
1.20283
1.16102
1.12156
1.08538
1.0527
1.02328
0.996652
0.972307
0.949774
0.928668
0.90869
0.889613
0.871273
0.853544
0.836335
0.819574
0.803208
0.787191
0.771488
0.756069
0.740909
0.725985
0.711278
0.696771
0.682448
0.668296
0.654302
0.640454
0.626742
0.613157
0.59969
0.586332
0.573076
0.559915
0.546844
0.533856
0.520945
0.508107
0.495336
0.48263
0.469982
0.45739
0.44485
0.432359
0.419913
0.407509
0.395146
0.38282
0.37053
0.358272
0.346046
0.33385
0.321682
0.309541
0.297426
0.285335
0.273268
0.261224
0.249201
0.237199
0.225217
0.213252
0.201306
0.189375
0.177458
0.165555
0.153663
0.141782
0.12991
0.118046
0.106189
0.094337
0.0824902
0.0706472
0.0588074
0.0469702
0.0351351
0.0233015
0.0114692
-0.000362252
-0.012193
-0.0240231
-0.0358529
-0.0476824
-0.0595117
-0.0713408
-0.0831698
-0.0949988
-0.106828
-0.118657
-0.130486
-0.142314
-0.154143
-0.165972
-0.177801
-0.189629
-0.201458
-0.213285
0.213285
1.27199
1.27199
1.24289
1.20309
1.16195
1.12264
1.08641
1.05359
1.02401
0.997231
0.972755
0.950119
0.928934
0.908897
0.889778
0.871406
0.853654
0.836427
0.819652
0.803274
0.787249
0.771539
0.756114
0.740949
0.726021
0.71131
0.6968
0.682474
0.66832
0.654323
0.640474
0.62676
0.613173
0.599704
0.586345
0.573088
0.559927
0.546855
0.533865
0.520954
0.508115
0.495344
0.482637
0.469989
0.457396
0.444856
0.432364
0.419918
0.407514
0.39515
0.382824
0.370534
0.358276
0.34605
0.333853
0.321685
0.309544
0.297428
0.285337
0.27327
0.261226
0.249203
0.237201
0.225218
0.213254
0.201307
0.189376
0.177459
0.165556
0.153664
0.141783
0.129911
0.118046
0.106189
0.0943373
0.0824904
0.0706474
0.0588076
0.0469704
0.0351352
0.0233016
0.0114692
-0.000362216
-0.0121929
-0.0240231
-0.0358529
-0.0476824
-0.0595116
-0.0713408
-0.0831698
-0.0949988
-0.106828
-0.118657
-0.130486
-0.142314
-0.154143
-0.165972
-0.177801
-0.189629
-0.201457
-0.213285
0.213285
1.26791
1.26791
1.24181
1.20321
1.16244
1.12322
1.08698
1.05409
1.02443
0.997566
0.973019
0.950326
0.929098
0.909028
0.889884
0.871493
0.853727
0.836489
0.819706
0.803321
0.78729
0.771575
0.756147
0.740978
0.726047
0.711334
0.696821
0.682494
0.668338
0.65434
0.640488
0.626774
0.613186
0.599716
0.586356
0.573098
0.559936
0.546863
0.533873
0.520961
0.508122
0.49535
0.482642
0.469994
0.457401
0.44486
0.432368
0.419922
0.407518
0.395154
0.382828
0.370537
0.358279
0.346052
0.333856
0.321687
0.309546
0.29743
0.285339
0.273272
0.261228
0.249205
0.237202
0.22522
0.213255
0.201308
0.189377
0.17746
0.165556
0.153665
0.141783
0.129911
0.118047
0.106189
0.0943377
0.0824907
0.0706476
0.0588078
0.0469705
0.0351353
0.0233017
0.0114693
-0.000362166
-0.0121929
-0.0240231
-0.0358529
-0.0476824
-0.0595116
-0.0713408
-0.0831698
-0.0949988
-0.106828
-0.118657
-0.130486
-0.142314
-0.154143
-0.165972
-0.177801
-0.189629
-0.201456
-0.213284
0.213284
1.26791
1.26791
1.24181
1.20321
1.16244
1.12322
1.08698
1.05409
1.02443
0.997566
0.973019
0.950326
0.929098
0.909028
0.889884
0.871493
0.853727
0.836489
0.819706
0.803321
0.78729
0.771575
0.756147
0.740978
0.726047
0.711334
0.696821
0.682494
0.668338
0.65434
0.640488
0.626774
0.613186
0.599716
0.586356
0.573098
0.559936
0.546863
0.533873
0.520961
0.508122
0.49535
0.482642
0.469994
0.457401
0.44486
0.432368
0.419922
0.407518
0.395154
0.382828
0.370537
0.358279
0.346052
0.333856
0.321687
0.309546
0.29743
0.285339
0.273272
0.261228
0.249205
0.237202
0.22522
0.213255
0.201308
0.189377
0.17746
0.165556
0.153665
0.141783
0.129911
0.118047
0.106189
0.0943377
0.0824907
0.0706476
0.0588078
0.0469705
0.0351353
0.0233017
0.0114693
-0.000362166
-0.0121929
-0.0240231
-0.0358529
-0.0476824
-0.0595116
-0.0713408
-0.0831698
-0.0949988
-0.106828
-0.118657
-0.130486
-0.142314
-0.154143
-0.165972
-0.177801
-0.189629
-0.201456
-0.213284
0.213284
1.27199
1.27199
1.24289
1.20309
1.16195
1.12264
1.08641
1.05359
1.02401
0.997231
0.972755
0.950119
0.928934
0.908897
0.889778
0.871406
0.853654
0.836427
0.819652
0.803274
0.787249
0.771539
0.756114
0.740949
0.726021
0.71131
0.6968
0.682474
0.66832
0.654323
0.640474
0.62676
0.613173
0.599704
0.586345
0.573088
0.559927
0.546855
0.533865
0.520954
0.508115
0.495344
0.482637
0.469989
0.457396
0.444856
0.432364
0.419918
0.407514
0.39515
0.382824
0.370534
0.358276
0.34605
0.333853
0.321685
0.309544
0.297428
0.285337
0.27327
0.261226
0.249203
0.237201
0.225218
0.213254
0.201307
0.189376
0.177459
0.165556
0.153664
0.141783
0.129911
0.118046
0.106189
0.0943373
0.0824904
0.0706474
0.0588076
0.0469704
0.0351352
0.0233016
0.0114692
-0.000362214
-0.0121929
-0.0240231
-0.0358529
-0.0476824
-0.0595116
-0.0713408
-0.0831698
-0.0949988
-0.106828
-0.118657
-0.130486
-0.142314
-0.154143
-0.165972
-0.177801
-0.189629
-0.201457
-0.213285
0.213285
1.28068
1.28068
1.2449
1.20283
1.16102
1.12156
1.08538
1.0527
1.02328
0.996652
0.972307
0.949774
0.928668
0.90869
0.889613
0.871273
0.853544
0.836335
0.819574
0.803208
0.787191
0.771488
0.756069
0.740909
0.725985
0.711278
0.696771
0.682448
0.668296
0.654302
0.640454
0.626742
0.613157
0.59969
0.586332
0.573076
0.559915
0.546844
0.533856
0.520945
0.508107
0.495336
0.48263
0.469982
0.45739
0.44485
0.432359
0.419913
0.407509
0.395146
0.38282
0.37053
0.358272
0.346046
0.33385
0.321682
0.309541
0.297426
0.285335
0.273268
0.261224
0.249201
0.237199
0.225217
0.213252
0.201306
0.189375
0.177458
0.165555
0.153663
0.141782
0.12991
0.118046
0.106189
0.094337
0.0824902
0.0706472
0.0588075
0.0469703
0.0351351
0.0233015
0.0114692
-0.00036225
-0.012193
-0.0240231
-0.0358529
-0.0476824
-0.0595117
-0.0713408
-0.0831698
-0.0949988
-0.106828
-0.118657
-0.130486
-0.142314
-0.154143
-0.165972
-0.177801
-0.18963
-0.201458
-0.213285
0.213285
1.29507
1.29507
1.24741
1.20244
1.15989
1.12029
1.0842
1.05171
1.02249
0.996046
0.971851
0.949433
0.928413
0.908495
0.889463
0.871155
0.853449
0.836256
0.819509
0.803151
0.787142
0.771445
0.756032
0.740876
0.725955
0.711252
0.696747
0.682427
0.668277
0.654284
0.640438
0.626728
0.613144
0.599677
0.58632
0.573065
0.559906
0.546835
0.533847
0.520937
0.5081
0.49533
0.482623
0.469976
0.457385
0.444845
0.432354
0.419908
0.407505
0.395142
0.382817
0.370527
0.358269
0.346044
0.333848
0.32168
0.309539
0.297424
0.285333
0.273266
0.261222
0.2492
0.237198
0.225216
0.213252
0.201305
0.189374
0.177458
0.165554
0.153663
0.141782
0.12991
0.118046
0.106189
0.094337
0.0824902
0.0706472
0.0588075
0.0469703
0.0351351
0.0233015
0.0114692
-0.000362239
-0.0121929
-0.0240231
-0.0358529
-0.0476824
-0.0595116
-0.0713408
-0.0831698
-0.0949988
-0.106828
-0.118657
-0.130486
-0.142314
-0.154143
-0.165972
-0.177801
-0.18963
-0.201459
-0.213286
0.213286
1.31572
1.31572
1.24921
1.20213
1.15918
1.11952
1.0835
1.05111
1.02201
0.995676
0.971565
0.949213
0.92824
0.908358
0.889352
0.871062
0.853371
0.83619
0.819451
0.803101
0.787097
0.771405
0.755995
0.740843
0.725926
0.711225
0.696722
0.682404
0.668256
0.654265
0.64042
0.626711
0.613128
0.599663
0.586307
0.573053
0.559894
0.546825
0.533838
0.520928
0.508091
0.495322
0.482616
0.46997
0.457378
0.444839
0.432348
0.419903
0.407501
0.395138
0.382813
0.370523
0.358266
0.34604
0.333844
0.321677
0.309536
0.297421
0.285331
0.273265
0.261221
0.249198
0.237197
0.225215
0.213251
0.201304
0.189374
0.177457
0.165554
0.153663
0.141782
0.12991
0.118046
0.106189
0.094337
0.0824902
0.0706473
0.0588075
0.0469703
0.0351351
0.0233016
0.0114692
-0.000362225
-0.0121929
-0.0240231
-0.0358529
-0.0476824
-0.0595116
-0.0713408
-0.0831698
-0.0949988
-0.106828
-0.118657
-0.130486
-0.142314
-0.154143
-0.165972
-0.177801
-0.18963
-0.201459
-0.213286
0.213286
1.31572
1.31572
1.24921
1.20213
1.15918
1.11952
1.0835
1.05111
1.02201
0.995676
0.971565
0.949213
0.92824
0.908358
0.889352
0.871062
0.853371
0.83619
0.819451
0.803101
0.787097
0.771405
0.755995
0.740843
0.725926
0.711225
0.696722
0.682404
0.668256
0.654265
0.64042
0.626711
0.613128
0.599663
0.586307
0.573053
0.559894
0.546825
0.533838
0.520928
0.508091
0.495322
0.482616
0.46997
0.457378
0.444839
0.432348
0.419903
0.407501
0.395138
0.382813
0.370523
0.358266
0.34604
0.333844
0.321677
0.309536
0.297421
0.285331
0.273265
0.261221
0.249198
0.237197
0.225215
0.213251
0.201304
0.189374
0.177457
0.165554
0.153663
0.141782
0.12991
0.118046
0.106189
0.094337
0.0824902
0.0706473
0.0588075
0.0469703
0.0351351
0.0233016
0.0114692
-0.000362225
-0.0121929
-0.0240231
-0.0358529
-0.0476824
-0.0595116
-0.0713408
-0.0831698
-0.0949988
-0.106828
-0.118657
-0.130486
-0.142314
-0.154143
-0.165972
-0.177801
-0.18963
-0.201459
-0.213286
0.213286
SCALARS phi double
LOOKUP_TABLE phi
1
1
1
0.999995
0.999977
0.999931
0.999833
0.999654
0.999363
0.998928
0.998322
0.997523
0.996512
0.995278
0.993814
0.992117
0.990186
0.988029
0.985658
0.983087
0.980302
0.977237
0.973747
0.969604
0.964522
0.958193
0.950328
0.940695
0.929136
0.915576
0.900013
0.882512
0.863185
0.842186
0.819692
0.795898
0.771008
0.745224
0.718747
0.691768
0.664467
0.63701
0.609549
0.582218
0.555137
0.528411
0.502128
0.476366
0.451186
0.42664
0.40277
0.379606
0.357174
0.335488
0.314559
0.294393
0.274989
0.256345
0.238457
0.221315
0.204911
0.189236
0.174279
0.16003
0.146478
0.133616
0.121435
0.109926
0.0990832
0.0889005
0.079372
0.0704915
0.0622527
0.0546477
0.047667
0.0412987
0.0355279
0.0303363
0.0257018
0.021599
0.0179983
0.0148672
0.0121705
0.009871
0.00793019
0.00630936
0.00497033
0.00387624
0.00299227
0.00228612
0.00172847
0.00129315
0.000957268
0.000701112
0.000508037
0.000364205
0.000258296
0.000181265
0.000125665
8.70607e-05
5.54921e-05
5.54921e-05
1
1
1
0.999995
0.999977
0.999931
0.999833
0.999654
0.999363
0.998928
0.998322
0.997523
0.996512
0.995278
0.993814
0.992117
0.990186
0.988029
0.985658
0.983087
0.980302
0.977237
0.973747
0.969604
0.964522
0.958193
0.950328
0.940695
0.929136
0.915576
0.900013
0.882512
0.863185
0.842186
0.819692
0.795898
0.771008
0.745224
0.718747
0.691768
0.664467
0.63701
0.609549
0.582218
0.555137
0.528411
0.502128
0.476366
0.451186
0.42664
0.40277
0.379606
0.357174
0.335488
0.314559
0.294393
0.274989
0.256345
0.238457
0.221315
0.204911
0.189236
0.174279
0.16003
0.146478
0.133616
0.121435
0.109926
0.0990832
0.0889005
0.079372
0.0704915
0.0622527
0.0546477
0.047667
0.0412987
0.0355279
0.0303363
0.0257018
0.021599
0.0179983
0.0148672
0.0121705
0.009871
0.00793019
0.00630936
0.00497033
0.00387624
0.00299227
0.00228612
0.00172847
0.00129315
0.000957268
0.000701112
0.000508037
0.000364205
0.000258296
0.000181265
0.000125665
8.70607e-05
5.54921e-05
5.54921e-05
0.999998
1
0.999984
0.999921
0.999783
0.999536
0.999146
0.99858
0.997811
0.996819
0.995589
0.994116
0.992397
0.990436
0.98824
0.985816
0.983176
0.980331
0.977296
0.974084
0.970711
0.967178
0.963464
0.959515
0.955238
0.950502
0.945148
0.939002
0.931897
0.923679
0.914227
0.90345
0.891298
0.877756
0.862843
0.84661
0.829133
0.810506
0.790841
0.770259
0.748886
0.726853
0.704287
0.681314
0.658054
0.634618
0.611113
0.587632
0.564264
0.541085
0.518166
0.495565
0.473335
0.451519
0.430153
0.409266
0.38888
0.36901
0.349668
0.330858
0.312581
0.294834
0.277611
0.260901
0.244695
0.22898
0.213744
0.198977
0.184668
0.170812
0.157407
0.144455
0.131966
0.119953
0.108437
0.097442
0.0869979
0.0771351
0.067884
0.0592725
0.0513238
0.0440537
0.0374692
0.0315677
0.0263358
0.02175
0.0177774
0.0143775
0.0115031
0.00910319
0.00712465
0.00551411
0.00421982
0.00319294
0.00238861
0.00176665
0.00129176
0.000934052
0.000666583
0.000475672
0.000311187
0.000311187
1.00001
0.999992
0.99954
0.998615
0.997207
0.995316
0.992954
0.990144
0.986922
0.983331
0.979421
0.975241
0.970836
0.966247
0.961513
0.956664
0.951728
0.946727
0.941682
0.936608
0.93152
0.92643
0.921342
0.916257
0.91116
0.906024
0.900808
0.895452
0.889886
0.884031
0.877799
0.871107
0.863874
0.856027
0.847504
0.838257
0.828251
0.817467
0.805898
0.793554
0.780455
0.766632
0.752125
0.736983
0.721261
0.705016
0.688309
0.671203
0.653761
0.636046
0.618116
0.600032
0.581847
0.563613
0.545379
0.527188
0.509078
0.491083
0.473232
0.455547
0.438047
0.420742
0.40364
0.38674
0.370037
0.353521
0.337176
0.320981
0.304915
0.288952
0.273068
0.257243
0.241464
0.225727
0.210043
0.194438
0.178958
0.163665
0.148643
0.133985
0.119798
0.106193
0.093277
0.08115
0.0698969
0.0595829
0.0502502
0.0419165
0.0345748
0.028195
0.0227276
0.018107
0.0142563
0.0110918
0.00852731
0.00647782
0.00486207
0.0036071
0.00263906
0.00193111
0.00129469
0.00129469
1.00143
0.99857
0.991252
0.98188
0.971566
0.96086
0.950051
0.939311
0.928756
0.918467
0.908503
0.898898
0.889671
0.880827
0.87236
0.864261
0.856512
0.849097
0.841997
0.835192
0.828664
0.822396
0.816369
0.810569
0.804976
0.799573
0.794339
0.789247
0.78427
0.779373
0.774518
0.769662
0.76476
0.759765
0.754628
0.749303
0.743744
0.737909
0.731758
0.725259
0.718384
0.711109
0.703418
0.6953
0.68675
0.677768
0.66836
0.658535
0.648306
0.637693
0.626713
0.615391
0.60375
0.591816
0.579615
0.567175
0.554521
0.541678
0.528671
0.515521
0.502248
0.488867
0.47539
0.461826
0.448175
0.434434
0.420591
0.406626
0.39251
0.378206
0.36367
0.348849
0.333689
0.318141
0.30216
0.285722
0.268822
0.251486
0.233777
0.215791
0.197661
0.179551
0.161651
0.144162
0.127286
0.11122
0.0961336
0.0821702
0.069434
0.0579887
0.0478566
0.039021
0.0314312
0.0250088
0.0196547
0.0152572
0.0116971
0.00886077
0.00661562
0.00494052
0.00338164
0.00338164
1.0456
0.954401
0.887723
0.838674
0.801641
0.772861
0.749886
0.731119
0.715499
0.702298
0.691001
0.681228
0.672693
0.665173
0.658493
0.652515
0.647126
0.642236
0.637772
0.633674
0.629891
0.626383
0.623115
0.620059
0.61719
0.614488
0.611933
0.609508
0.607197
0.604983
0.602851
0.600781
0.598757
0.596756
0.59476
0.592744
0.590685
0.58856
0.586344
0.584012
0.581541
0.578907
0.576088
0.573063
0.569813
0.566321
0.562573
0.558555
0.554256
0.549669
0.544787
0.539606
0.534124
0.52834
0.522258
0.515879
0.509209
0.502252
0.495016
0.487506
0.47973
0.471692
0.463398
0.45485
0.446045
0.436979
0.42764
0.418006
0.408048
0.397722
0.386974
0.375736
0.363928
0.351467
0.338266
0.324251
0.309363
0.293576
0.276901
0.259397
0.241174
0.222393
0.203259
0.184017
0.164932
0.146276
0.128315
0.11129
0.0954057
0.0808191
0.067637
0.0559131
0.0456505
0.036808
0.0293073
0.023043
0.0178894
0.0137199
0.0103673
0.00783602
0.00543092
0.00543092
-0.0455988
0.0455988
0.112277
0.161327
0.198359
0.227139
0.250114
0.268881
0.284502
0.297702
0.308999
0.318772
0.327307
0.334827
0.341507
0.347485
0.352874
0.357764
0.362228
0.366327
0.37011
0.373618
0.376885
0.379941
0.38281
0.385511
0.388064
0.390481
0.392777
0.39496
0.397041
0.399026
0.40092
0.402726
0.404446
0.40608
0.407626
0.409082
0.410442
0.4117
0.412849
0.41388
0.414785
0.415551
0.416169
0.416627
0.416913
0.417014
0.416918
0.416615
0.416092
0.415337
0.414341
0.413094
0.411586
0.40981
0.407757
0.405422
0.402798
0.399879