# vtk DataFile Version 3.0
FlowField
ASCII
DATASET STRUCTURED_GRID
DIMENSIONS 22 17 12 
POINTS 4488 double
0 0 0
0.1 0 0
0.2 0 0
0.3 0 0
0.4 0 0
0.5 0 0
0.6 0 0
0.7 0 0
0.8 0 0
0.9 0 0
1 0 0
1.1 0 0
1.2 0 0
1.3 0 0
1.4 0 0
1.5 0 0
1.6 0 0
1.7 0 0
1.8 0 0
1.9 0 0
2 0 0
2.1 0 0
0 0.1 0
0.1 0.1 0
0.2 0.1 0
0.3 0.1 0
0.4 0.1 0
0.5 0.1 0
0.6 0.1 0
0.7 0.1 0
0.8 0.1 0
0.9 0.1 0
1 0.1 0
1.1 0.1 0
1.2 0.1 0
1.3 0.1 0
1.4 0.1 0
1.5 0.1 0
1.6 0.1 0
1.7 0.1 0
1.8 0.1 0
1.9 0.1 0
2 0.1 0
2.1 0.1 0
0 0.2 0
0.1 0.2 0
0.2 0.2 0
0.3 0.2 0
0.4 0.2 0
0.5 0.2 0
0.6 0.2 0
0.7 0.2 0
0.8 0.2 0
0.9 0.2 0
1 0.2 0
1.1 0.2 0
1.2 0.2 0
1.3 0.2 0
1.4 0.2 0
1.5 0.2 0
1.6 0.2 0
1.7 0.2 0
1.8 0.2 0
1.9 0.2 0
2 0.2 0
2.1 0.2 0
0 0.3 0
0.1 0.3 0
0.2 0.3 0
0.3 0.3 0
0.4 0.3 0
0.5 0.3 0
0.6 0.3 0
0.7 0.3 0
0.8 0.3 0
0.9 0.3 0
1 0.3 0
1.1 0.3 0
1.2 0.3 0
1.3 0.3 0
1.4 0.3 0
1.5 0.3 0
1.6 0.3 0
1.7 0.3 0
1.8 0.3 0
1.9 0.3 0
2 0.3 0
2.1 0.3 0
0 0.4 0
0.1 0.4 0
0.2 0.4 0
0.3 0.4 0
0.4 0.4 0
0.5 0.4 0
0.6 0.4 0
0.7 0.4 0
0.8 0.4 0
0.9 0.4 0
1 0.4 0
1.1 0.4 0
1.2 0.4 0
1.3 0.4 0
1.4 0.4 0
1.5 0.4 0
1.6 0.4 0
1.7 0.4 0
1.8 0.4 0
1.9 0.4 0
2 0.4 0
2.1 0.4 0
0 0.5 0
0.1 0.5 0
0.2 0.5 0
0.3 0.5 0
0.4 0.5 0
0.5 0.5 0
0.6 0.5 0
0.7 0.5 0
0.8 0.5 0
0.9 0.5 0
1 0.5 0
1.1 0.5 0
1.2 0.5 0
1.3 0.5 0
1.4 0.5 0
1.5 0.5 0
1.6 0.5 0
1.7 0.5 0
1.8 0.5 0
1.9 0.5 0
2 0.5 0
2.1 0.5 0
0 0.6 0
0.1 0.6 0
0.2 0.6 0
0.3 0.6 0
0.4 0.6 0
0.5 0.6 0
0.6 0.6 0
0.7 0.6 0
0.8 0.6 0
0.9 0.6 0
1 0.6 0
1.1 0.6 0
1.2 0.6 0
1.3 0.6 0
1.4 0.6 0
1.5 0.6 0
1.6 0.6 0
1.7 0.6 0
1.8 0.6 0
1.9 0.6 0
2 0.6 0
2.1 0.6 0
0 0.7 0
0.1 0.7 0
0.2 0.7 0
0.3 0.7 0
0.4 0.7 0
0.5 0.7 0
0.6 0.7 0
0.7 0.7 0
0.8 0.7 0
0.9 0.7 0
1 0.7 0
1.1 0.7 0
1.2 0.7 0
1.3 0.7 0
1.4 0.7 0
1.5 0.7 0
1.6 0.7 0
1.7 0.7 0
1.8 0.7 0
1.9 0.7 0
2 0.7 0
2.1 0.7 0
0 0.8 0
0.1 0.8 0
0.2 0.8 0
0.3 0.8 0
0.4 0.8 0
0.5 0.8 0
0.6 0.8 0
0.7 0.8 0
0.8 0.8 0
0.9 0.8 0
1 0.8 0
1.1 0.8 0
1.2 0.8 0
1.3 0.8 0
1.4 0.8 0
1.5 0.8 0
1.6 0.8 0
1.7 0.8 0
1.8 0.8 0
1.9 0.8 0
2 0.8 0
2.1 0.8 0
0 0.9 0
0.1 0.9 0
0.2 0.9 0
0.3 0.9 0
0.4 0.9 0
0.5 0.9 0
0.6 0.9 0
0.7 0.9 0
0.8 0.9 0
0.9 0.9 0
1 0.9 0
1.1 0.9 0
1.2 0.9 0
1.3 0.9 0
1.4 0.9 0
1.5 0.9 0
1.6 0.9 0
1.7 0.9 0
1.8 0.9 0
1.9 0.9 0
2 0.9 0
2.1 0.9 0
0 1 0
0.1 1 0
0.2 1 0
0.3 1 0
0.4 1 0
0.5 1 0
0.6 1 0
0.7 1 0
0.8 1 0
0.9 1 0
1 1 0
1.1 1 0
1.2 1 0
1.3 1 0
1.4 1 0
1.5 1 0
1.6 1 0
1.7 1 0
1.8 1 0
1.9 1 0
2 1 0
2.1 1 0
0 1.1 0
0.1 1.1 0
0.2 1.1 0
0.3 1.1 0
0.4 1.1 0
0.5 1.1 0
0.6 1.1 0
0.7 1.1 0
0.8 1.1 0
0.9 1.1 0
1 1.1 0
1.1 1.1 0
1.2 1.1 0
1.3 1.1 0
1.4 1.1 0
1.5 1.1 0
1.6 1.1 0
1.7 1.1 0
1.8 1.1 0
1.9 1.1 0
2 1.1 0
2.1 1.1 0
0 1.2 0
0.1 1.2 0
0.2 1.2 0
0.3 1.2 0
0.4 1.2 0
0.5 1.2 0
0.6 1.2 0
0.7 1.2 0
0.8 1.2 0
0.9 1.2 0
1 1.2 0
1.1 1.2 0
1.2 1.2 0
1.3 1.2 0
1.4 1.2 0
1.5 1.2 0
1.6 1.2 0
1.7 1.2 0
1.8 1.2 0
1.9 1.2 0
2 1.2 0
2.1 1.2 0
0 1.3 0
0.1 1.3 0
0.2 1.3 0
0.3 1.3 0
0.4 1.3 0
0.5 1.3 0
0.6 1.3 0
0.7 1.3 0
0.8 1.3 0
0.9 1.3 0
1 1.3 0
1.1 1.3 0
1.2 1.3 0
1.3 1.3 0
1.4 1.3 0
1.5 1.3 0
1.6 1.3 0
1.7 1.3 0
1.8 1.3 0
1.9 1.3 0
2 1.3 0
2.1 1.3 0
0 1.4 0
0.1 1.4 0
0.2 1.4 0
0.3 1.4 0
0.4 1.4 0
0.5 1.4 0
0.6 1.4 0
0.7 1.4 0
0.8 1.4 0
0.9 1.4 0
1 1.4 0
1.1 1.4 0
1.2 1.4 0
1.3 1.4 0
1.4 1.4 0
1.5 1.4 0
1.6 1.4 0
1.7 1.4 0
1.8 1.4 0
1.9 1.4 0
2 1.4 0
2.1 1.4 0
0 1.5 0
0.1 1.5 0
0.2 1.5 0
0.3 1.5 0
0.4 1.5 0
0.5 1.5 0
0.6 1.5 0
0.7 1.5 0
0.8 1.5 0
0.9 1.5 0
1 1.5 0
1.1 1.5 0
1.2 1.5 0
1.3 1.5 0
1.4 1.5 0
1.5 1.5 0
1.6 1.5 0
1.7 1.5 0
1.8 1.5 0
1.9 1.5 0
2 1.5 0
2.1 1.5 0
0 1.6 0
0.1 1.6 0
0.2 1.6 0
0.3 1.6 0
0.4 1.6 0
0.5 1.6 0
0.6 1.6 0
0.7 1.6 0
0.8 1.6 0
0.9 1.6 0
1 1.6 0
1.1 1.6 0
1.2 1.6 0
1.3 1.6 0
1.4 1.6 0
1.5 1.6 0
1.6 1.6 0
1.7 1.6 0
1.8 1.6 0
1.9 1.6 0
2 1.6 0
2.1 1.6 0
0 0 0.1
0.1 0 0.1
0.2 0 0.1
0.3 0 0.1
0.4 0 0.1
0.5 0 0.1
0.6 0 0.1
0.7 0 0.1
0.8 0 0.1
0.9 0 0.1
1 0 0.1
1.1 0 0.1
1.2 0 0.1
1.3 0 0.1
1.4 0 0.1
1.5 0 0.1
1.6 0 0.1
1.7 0 0.1
1.8 0 0.1
1.9 0 0.1
2 0 0.1
2.1 0 0.1
0 0.1 0.1
0.1 0.1 0.1
0.2 0.1 0.1
0.3 0.1 0.1
0.4 0.1 0.1
0.5 0.1 0.1
0.6 0.1 0.1
0.7 0.1 0.1
0.8 0.1 0.1
0.9 0.1 0.1
1 0.1 0.1
1.1 0.1 0.1
1.2 0.1 0.1
1.3 0.1 0.1
1.4 0.1 0.1
1.5 0.1 0.1
1.6 0.1 0.1
1.7 0.1 0.1
1.8 0.1 0.1
1.9 0.1 0.1
2 0.1 0.1
2.1 0.1 0.1
0 0.2 0.1
0.1 0.2 0.1
0.2 0.2 0.1
0.3 0.2 0.1
0.4 0.2 0.1
0.5 0.2 0.1
0.6 0.2 0.1
0.7 0.2 0.1
0.8 0.2 0.1
0.9 0.2 0.1
1 0.2 0.1
1.1 0.2 0.1
1.2 0.2 0.1
1.3 0.2 0.1
1.4 0.2 0.1
1.5 0.2 0.1
1.6 0.2 0.1
1.7 0.2 0.1
1.8 0.2 0.1
1.9 0.2 0.1
2 0.2 0.1
2.1 0.2 0.1
0 0.3 0.1
0.1 0.3 0.1
0.2 0.3 0.1
0.3 0.3 0.1
0.4 0.3 0.1
0.5 0.3 0.1
0.6 0.3 0.1
0.7 0.3 0.1
0.8 0.3 0.1
0.9 0.3 0.1
1 0.3 0.1
1.1 0.3 0.1
1.2 0.3 0.1
1.3 0.3 0.1
1.4 0.3 0.1
1.5 0.3 0.1
1.6 0.3 0.1
1.7 0.3 0.1
1.8 0.3 0.1
1.9 0.3 0.1
2 0.3 0.1
2.1 0.3 0.1
0 0.4 0.1
0.1 0.4 0.1
0.2 0.4 0.1
0.3 0.4 0.1
0.4 0.4 0.1
0.5 0.4 0.1
0.6 0.4 0.1
0.7 0.4 0.1
0.8 0.4 0.1
0.9 0.4 0.1
1 0.4 0.1
1.1 0.4 0.1
1.2 0.4 0.1
1.3 0.4 0.1
1.4 0.4 0.1
1.5 0.4 0.1
1.6 0.4 0.1
1.7 0.4 0.1
1.8 0.4 0.1
1.9 0.4 0.1
2 0.4 0.1
2.1 0.4 0.1
0 0.5 0.1
0.1 0.5 0.1
0.2 0.5 0.1
0.3 0.5 0.1
0.4 0.5 0.1
0.5 0.5 0.1
0.6 0.5 0.1
0.7 0.5 0.1
0.8 0.5 0.1
0.9 0.5 0.1
1 0.5 0.1
1.1 0.5 0.1
1.2 0.5 0.1
1.3 0.5 0.1
1.4 0.5 0.1
1.5 0.5 0.1
1.6 0.5 0.1
1.7 0.5 0.1
1.8 0.5 0.1
1.9 0.5 0.1
2 0.5 0.1
2.1 0.5 0.1
0 0.6 0.1
0.1 0.6 0.1
0.2 0.6 0.1
0.3 0.6 0.1
0.4 0.6 0.1
0.5 0.6 0.1
0.6 0.6 0.1
0.7 0.6 0.1
0.8 0.6 0.1
0.9 0.6 0.1
1 0.6 0.1
1.1 0.6 0.1
1.2 0.6 0.1
1.3 0.6 0.1
1.4 0.6 0.1
1.5 0.6 0.1
1.6 0.6 0.1
1.7 0.6 0.1
1.8 0.6 0.1
1.9 0.6 0.1
2 0.6 0.1
2.1 0.6 0.1
0 0.7 0.1
0.1 0.7 0.1
0.2 0.7 0.1
0.3 0.7 0.1
0.4 0.7 0.1
0.5 0.7 0.1
0.6 0.7 0.1
0.7 0.7 0.1
0.8 0.7 0.1
0.9 0.7 0.1
1 0.7 0.1
1.1 0.7 0.1
1.2 0.7 0.1
1.3 0.7 0.1
1.4 0.7 0.1
1.5 0.7 0.1
1.6 0.7 0.1
1.7 0.7 0.1
1.8 0.7 0.1
1.9 0.7 0.1
2 0.7 0.1
2.1 0.7 0.1
0 0.8 0.1
0.1 0.8 0.1
0.2 0.8 0.1
0.3 0.8 0.1
0.4 0.8 0.1
0.5 0.8 0.1
0.6 0.8 0.1
0.7 0.8 0.1
0.8 0.8 0.1
0.9 0.8 0.1
1 0.8 0.1
1.1 0.8 0.1
1.2 0.8 0.1
1.3 0.8 0.1
1.4 0.8 0.1
1.5 0.8 0.1
1.6 0.8 0.1
1.7 0.8 0.1
1.8 0.8 0.1
1.9 0.8 0.1
2 0.8 0.1
2.1 0.8 0.1
0 0.9 0.1
0.1 0.9 0.1
0.2 0.9 0.1
0.3 0.9 0.1
0.4 0.9 0.1
0.5 0.9 0.1
0.6 0.9 0.1
0.7 0.9 0.1
0.8 0.9 0.1
0.9 0.9 0.1
1 0.9 0.1
1.1 0.9 0.1
1.2 0.9 0.1
1.3 0.9 0.1
1.4 0.9 0.1
1.5 0.9 0.1
1.6 0.9 0.1
1.7 0.9 0.1
1.8 0.9 0.1
1.9 0.9 0.1
2 0.9 0.1
2.1 0.9 0.1
0 1 0.1
0.1 1 0.1
0.2 1 0.1
0.3 1 0.1
0.4 1 0.1
0.5 1 0.1
0.6 1 0.1
0.7 1 0.1
0.8 1 0.1
0.9 1 0.1
1 1 0.1
1.1 1 0.1
1.2 1 0.1
1.3 1 0.1
1.4 1 0.1
1.5 1 0.1
1.6 1 0.1
1.7 1 0.1
1.8 1 0.1
1.9 1 0.1
2 1 0.1
2.1 1 0.1
0 1.1 0.1
0.1 1.1 0.1
0.2 1.1 0.1
0.3 1.1 0.1
0.4 1.1 0.1
0.5 1.1 0.1
0.6 1.1 0.1
0.7 1.1 0.1
0.8 1.1 0.1
0.9 1.1 0.1
1 1.1 0.1
1.1 1.1 0.1
1.2 1.1 0.1
1.3 1.1 0.1
1.4 1.1 0.1
1.5 1.1 0.1
1.6 1.1 0.1
1.7 1.1 0.1
1.8 1.1 0.1
1.9 1.1 0.1
2 1.1 0.1
2.1 1.1 0.1
0 1.2 0.1
0.1 1.2 0.1
0.2 1.2 0.1
0.3 1.2 0.1
0.4 1.2 0.1
0.5 1.2 0.1
0.6 1.2 0.1
0.7 1.2 0.1
0.8 1.2 0.1
0.9 1.2 0.1
1 1.2 0.1
1.1 1.2 0.1
1.2 1.2 0.1
1.3 1.2 0.1
1.4 1.2 0.1
1.5 1.2 0.1
1.6 1.2 0.1
1.7 1.2 0.1
1.8 1.2 0.1
1.9 1.2 0.1
2 1.2 0.1
2.1 1.2 0.1
0 1.3 0.1
0.1 1.3 0.1
0.2 1.3 0.1
0.3 1.3 0.1
0.4 1.3 0.1
0.5 1.3 0.1
0.6 1.3 0.1
0.7 1.3 0.1
0.8 1.3 0.1
0.9 1.3 0.1
1 1.3 0.1
1.1 1.3 0.1
1.2 1.3 0.1
1.3 1.3 0.1
1.4 1.3 0.1
1.5 1.3 0.1
1.6 1.3 0.1
1.7 1.3 0.1
1.8 1.3 0.1
1.9 1.3 0.1
2 1.3 0.1
2.1 1.3 0.1
0 1.4 0.1
0.1 1.4 0.1
0.2 1.4 0.1
0.3 1.4 0.1
0.4 1.4 0.1
0.5 1.4 0.1
0.6 1.4 0.1
0.7 1.4 0.1
0.8 1.4 0.1
0.9 1.4 0.1
1 1.4 0.1
1.1 1.4 0.1
1.2 1.4 0.1
1.3 1.4 0.1
1.4 1.4 0.1
1.5 1.4 0.1
1.6 1.4 0.1
1.7 1.4 0.1
1.8 1.4 0.1
1.9 1.4 0.1
2 1.4 0.1
2.1 1.4 0.1
0 1.5 0.1
0.1 1.5 0.1
0.2 1.5 0.1
0.3 1.5 0.1
0.4 1.5 0.1
0.5 1.5 0.1
0.6 1.5 0.1
0.7 1.5 0.1
0.8 1.5 0.1
0.9 1.5 0.1
1 1.5 0.1
1.1 1.5 0.1
1.2 1.5 0.1
1.3 1.5 0.1
1.4 1.5 0.1
1.5 1.5 0.1
1.6 1.5 0.1
1.7 1.5 0.1
1.8 1.5 0.1
1.9 1.5 0.1
2 1.5 0.1
2.1 1.5 0.1
0 1.6 0.1
0.1 1.6 0.1
0.2 1.6 0.1
0.3 1.6 0.1
0.4 1.6 0.1
0.5 1.6 0.1
0.6 1.6 0.1
0.7 1.6 0.1
0.8 1.6 0.1
0.9 1.6 0.1
1 1.6 0.1
1.1 1.6 0.1
1.2 1.6 0.1
1.3 1.6 0.1
1.4 1.6 0.1
1.5 1.6 0.1
1.6 1.6 0.1
1.7 1.6 0.1
1.8 1.6 0.1
1.9 1.6 0.1
2 1.6 0.1
2.1 1.6 0.1
0 0 0.2
0.1 0 0.2
0.2 0 0.2
0.3 0 0.2
0.4 0 0.2
0.5 0 0.2
0.6 0 0.2
0.7 0 0.2
0.8 0 0.2
0.9 0 0.2
1 0 0.2
1.1 0 0.2
1.2 0 0.2
1.3 0 0.2
1.4 0 0.2
1.5 0 0.2
1.6 0 0.2
1.7 0 0.2
1.8 0 0.2
1.9 0 0.2
2 0 0.2
2.1 0 0.2
0 0.1 0.2
0.1 0.1 0.2
0.2 0.1 0.2
0.3 0.1 0.2
0.4 0.1 0.2
0.5 0.1 0.2
0.6 0.1 0.2
0.7 0.1 0.2
0.8 0.1 0.2
0.9 0.1 0.2
1 0.1 0.2
1.1 0.1 0.2
1.2 0.1 0.2
1.3 0.1 0.2
1.4 0.1 0.2
1.5 0.1 0.2
1.6 0.1 0.2
1.7 0.1 0.2
1.8 0.1 0.2
1.9 0.1 0.2
2 0.1 0.2
2.1 0.1 0.2
0 0.2 0.2
0.1 0.2 0.2
0.2 0.2 0.2
0.3 0.2 0.2
0.4 0.2 0.2
0.5 0.2 0.2
0.6 0.2 0.2
0.7 0.2 0.2
0.8 0.2 0.2
0.9 0.2 0.2
1 0.2 0.2
1.1 0.2 0.2
1.2 0.2 0.2
1.3 0.2 0.2
1.4 0.2 0.2
1.5 0.2 0.2
1.6 0.2 0.2
1.7 0.2 0.2
1.8 0.2 0.2
1.9 0.2 0.2
2 0.2 0.2
2.1 0.2 0.2
0 0.3 0.2
0.1 0.3 0.2
0.2 0.3 0.2
0.3 0.3 0.2
0.4 0.3 0.2
0.5 0.3 0.2
0.6 0.3 0.2
0.7 0.3 0.2
0.8 0.3 0.2
0.9 0.3 0.2
1 0.3 0.2
1.1 0.3 0.2
1.2 0.3 0.2
1.3 0.3 0.2
1.4 0.3 0.2
1.5 0.3 0.2
1.6 0.3 0.2
1.7 0.3 0.2
1.8 0.3 0.2
1.9 0.3 0.2
2 0.3 0.2
2.1 0.3 0.2
0 0.4 0.2
0.1 0.4 0.2
0.2 0.4 0.2
0.3 0.4 0.2
0.4 0.4 0.2
0.5 0.4 0.2
0.6 0.4 0.2
0.7 0.4 0.2
0.8 0.4 0.2
0.9 0.4 0.2
1 0.4 0.2
1.1 0.4 0.2
1.2 0.4 0.2
1.3 0.4 0.2
1.4 0.4 0.2
1.5 0.4 0.2
1.6 0.4 0.2
1.7 0.4 0.2
1.8 0.4 0.2
1.9 0.4 0.2
2 0.4 0.2
2.1 0.4 0.2
0 0.5 0.2
0.1 0.5 0.2
0.2 0.5 0.2
0.3 0.5 0.2
0.4 0.5 0.2
0.5 0.5 0.2
0.6 0.5 0.2
0.7 0.5 0.2
0.8 0.5 0.2
0.9 0.5 0.2
1 0.5 0.2
1.1 0.5 0.2
1.2 0.5 0.2
1.3 0.5 0.2
1.4 0.5 0.2
1.5 0.5 0.2
1.6 0.5 0.2
1.7 0.5 0.2
1.8 0.5 0.2
1.9 0.5 0.2
2 0.5 0.2
2.1 0.5 0.2
0 0.6 0.2
0.1 0.6 0.2
0.2 0.6 0.2
0.3 0.6 0.2
0.4 0.6 0.2
0.5 0.6 0.2
0.6 0.6 0.2
0.7 0.6 0.2
0.8 0.6 0.2
0.9 0.6 0.2
1 0.6 0.2
1.1 0.6 0.2
1.2 0.6 0.2
1.3 0.6 0.2
1.4 0.6 0.2
1.5 0.6 0.2
1.6 0.6 0.2
1.7 0.6 0.2
1.8 0.6 0.2
1.9 0.6 0.2
2 0.6 0.2
2.1 0.6 0.2
0 0.7 0.2
0.1 0.7 0.2
0.2 0.7 0.2
0.3 0.7 0.2
0.4 0.7 0.2
0.5 0.7 0.2
0.6 0.7 0.2
0.7 0.7 0.2
0.8 0.7 0.2
0.9 0.7 0.2
1 0.7 0.2
1.1 0.7 0.2
1.2 0.7 0.2
1.3 0.7 0.2
1.4 0.7 0.2
1.5 0.7 0.2
1.6 0.7 0.2
1.7 0.7 0.2
1.8 0.7 0.2
1.9 0.7 0.2
2 0.7 0.2
2.1 0.7 0.2
0 0.8 0.2
0.1 0.8 0.2
[...]
POINT_DATA 4488

SCALARS pressure double
LOOKUP_TABLE pressure
0
0
0
0
0
0
0
0
0
0
0
0
0
0
0
0
0
0
0
0
0
0
0
180.952
180.948
180.946
180.945
180.944
180.942
180.942
180.942
180.942
180.942
180.942
180.942
180.943
180.942
180.942
180.945
180.945
180.944
180.944
180.943
0
0
180.947
180.947
180.946
180.945
180.943
180.942
180.942
180.942
180.942
180.942
180.942
180.942
180.943
180.943
180.943
180.944
180.945
180.945
180.944
180.944
0
0
180.944
180.945
180.945
180.945
180.942
180.942
180.942
180.942
180.942
180.942
180.942
180.943
180.944
180.944
180.944
180.945
180.946
180.946
180.946
180.947
0
0
180.942
180.943
180.944
180.943
180.942
180.942
180.942
180.942
180.942
180.941
180.941
180.946
180.945
180.945
180.945
180.946
180.947
180.947
180.948
180.948
0
0
180.941
180.942
180.943
180.943
180.943
180.94
180.942
180.942
180.943
180.942
180.943
180.944
180.945
180.946
180.946
180.947
180.948
180.948
180.949
180.95
0
0
180.94
180.941
180.942
180.942
180.942
180.942
180.942
180.943
180.944
180.943
180.942
180.944
180.946
180.947
180.947
180.948
180.949
180.949
180.95
180.951
0
0
180.939
180.941
180.941
180.942
180.941
180.942
180.943
180.943
180.944
180.944
180.944
180.945
180.946
180.947
180.948
180.949
180.949
180.95
180.951
180.952
0
0
180.939
180.94
180.941
180.942
180.944
180.943
180.943
180.944
180.944
180.944
180.945
180.946
180.947
180.948
180.949
180.95
180.95
180.951
180.951
180.953
0
0
180.938
180.94
180.941
180.942
180.943
180.943
180.944
180.944
180.945
180.945
180.946
180.947
180.948
180.948
180.949
180.95
180.951
180.952
180.953
180.954
0
0
180.937
180.941
180.942
180.942
180.943
180.944
180.944
180.945
180.945
180.946
180.947
180.947
180.948
180.949
180.95
180.951
180.952
180.953
180.954
180.955
0
0
180.939
180.941
180.942
180.943
180.943
180.944
180.945
180.945
180.946
180.947
180.947
180.948
180.949
180.95
180.951
180.952
180.953
180.954
180.955
180.956
0
0
180.939
180.941
180.942
180.943
180.944
180.944
180.945
180.946
180.947
180.947
180.948
180.949
180.95
180.951
180.953
180.952
180.953
180.955
180.956
180.957
0
0
180.94
180.942
180.943
180.943
180.944
180.945
180.946
180.946
180.947
180.948
180.949
180.95
180.95
180.953
180.953
180.954
180.955
180.956
180.957
180.958
0
0
180.941
180.942
180.943
180.944
180.945
180.946
180.946
180.947
180.948
180.949
180.95
180.951
180.952
180.953
180.954
180.955
180.956
180.957
180.958
180.959
0
0
180.942
180.943
180.944
180.945
180.945
180.946
180.947
180.948
180.949
180.95
180.951
180.952
180.953
180.954
180.955
180.956
180.957
180.958
180.959
180.96
0
0
0
0
0
0
0
0
0
0
0
0
0
0
0
0
0
0
0
0
0
0
0
0
180.952
180.948
180.946
180.945
180.944
180.942
180.942
180.942
180.942
180.942
180.942
180.942
180.943
180.942
180.942
180.945
180.945
180.944
180.944
180.943
0
180.952
180.952
180.948
180.946
180.945
180.944
180.942
180.942
180.942
180.942
180.942
180.942
180.942
180.943
180.942
180.942
180.945
180.945
180.944
180.944
180.943
180.943
180.947
180.947
180.947
180.946
180.945
180.943
180.942
180.942
180.942
180.942
180.942
180.942
180.942
180.943
180.943
180.943
180.944
180.945
180.945
180.944
180.944
180.944
180.944
180.944
180.945
180.945
180.945
180.942
180.942
180.942
180.942
180.942
180.942
180.942
180.943
180.944
180.944
180.944
180.945
180.946
180.946
180.946
180.947
180.947
180.942
180.942
180.943
180.944
180.943
180.942
180.942
180.942
180.942
180.942
180.941
180.941
180.946
180.945
180.945
180.945
180.946
180.947
180.947
180.948
180.948
180.948
180.941
180.941
180.942
180.943
180.943
180.943
180.94
180.942
180.942
180.943
180.942
180.943
180.944
180.945
180.946
180.946
180.947
180.948
180.948
180.949
180.95
180.95
180.94
180.94
180.941
180.942
180.942
180.942
180.942
180.942
180.943
180.944
180.943
180.942
180.944
180.946
180.947
180.947
180.948
180.949
180.949
180.95
180.951
180.951
180.939
180.939
180.941
180.941
180.942
180.941
180.942
180.943
180.943
180.944
180.944
180.944
180.945
180.946
180.947
180.948
180.949
180.949
180.95
180.951
180.952
180.952
180.939
180.939
180.94
180.941
180.942
180.944
180.943
180.943
180.944
180.944
180.944
180.945
180.946
180.947
180.948
180.949
180.95
180.95
180.951
180.951
180.953
180.953
180.938
180.938
180.94
180.941
180.942
180.943
180.943
180.944
180.944
180.945
180.945
180.946
180.947
180.948
180.948
180.949
180.95
180.951
180.952
180.953
180.954
180.954
180.937
180.937
180.941
180.942
180.942
180.943
180.944
180.944
180.945
180.945
180.946
180.947
180.947
180.948
180.949
180.95
180.951
180.952
180.953
180.954
180.955
180.955
180.939
180.939
180.941
180.942
180.943
180.943
180.944
180.945
180.945
180.946
180.947
180.947
180.948
180.949
180.95
180.951
180.952
180.953
180.954
180.955
180.956
180.956
180.939
180.939
180.941
180.942
180.943
180.944
180.944
180.945
180.946
180.947
180.947
180.948
180.949
180.95
180.951
180.953
180.952
180.953
180.955
180.956
180.957
180.957
180.94
180.94
180.942
180.943
180.943
180.944
180.945
180.946
180.946
180.947
180.948
180.949
180.95
180.95
180.953
180.953
180.954
180.955
180.956
180.957
180.958
180.958
180.941
180.941
180.942
180.943
180.944
180.945
180.946
180.946
180.947
180.948
180.949
180.95
180.951
180.952
180.953
180.954
180.955
180.956
180.957
180.958
180.959
180.959
180.942
180.942
180.943
180.944
180.945
180.945
180.946
180.947
180.948
180.949
180.95
180.951
180.952
180.953
180.954
180.955
180.956
180.957
180.958
180.959
180.96
180.96
0
180.942
180.943
180.944
180.945
180.945
180.946
180.947
180.948
180.949
180.95
180.951
180.952
180.953
180.954
180.955
180.956
180.957
180.958
180.959
180.96
0
0
180.957
180.953
180.95
180.946
180.94
180.936
180.937
180.94
180.942
180.943
180.943
180.944
180.944
180.944
180.945
180.945
180.945
180.945
180.945
180.944
0
180.957
180.957
180.953
180.95
180.946
180.94
180.936
180.937
180.94
180.942
180.943
180.943
180.944
180.944
180.944
180.945
180.945
180.945
180.945
180.945
180.944
180.944
180.951
180.951
180.951
180.949
180.947
180.942
180.938
180.937
180.939
180.941
180.942
180.943
180.944
180.944
180.945
180.945
180.946
180.946
180.946
180.945
180.945
180.945
180.948
180.948
180.949
180.948
180.947
180.943
180.939
180.938
180.939
180.941
180.942
180.943
180.944
180.945
180.945
180.946
180.946
180.947
180.947
180.947
180.948
180.948
180.946
180.946
180.947
180.947
180.946
180.944
180.941
180.939
180.939
180.94
180.941
180.943
180.944
180.945
180.946
180.946
180.947
180.948
180.948
180.949
180.949
180.949
180.944
180.944
180.946
180.946
180.946
180.945
180.943
180.941
180.94
180.941
180.941
180.943
180.944
180.945
180.946
180.947
180.948
180.948
180.949
180.95
180.951
180.951
180.943
180.943
180.944
180.945
180.945
180.945
180.944
180.943
180.942
180.942
180.942
180.943
180.944
180.946
180.947
180.947
180.948
180.949
180.95
180.951
180.952
180.952
180.942
180.942
180.944
180.944
180.945
180.945
180.945
180.944
180.944
180.943
180.943
180.944
180.945
180.946
180.947
180.948
180.949
180.95
180.951
180.952
180.953
180.953
180.942
180.942
180.943
180.944
180.945
180.945
180.945
180.945
180.945
180.945
180.945
180.945
180.946
180.946
180.947
180.948
180.949
180.951
180.951
180.952
180.954
180.954
180.941
180.941
180.943
180.944
180.944
180.945
180.945
180.946
180.946
180.946
180.946
180.947
180.947
180.948
180.948
180.949
180.95
180.951
180.952
180.953
180.954
180.954
180.941
180.941
180.943
180.943
180.944
180.945
180.946
180.946
180.947
180.947
180.947
180.948
180.948
180.949
180.95
180.95
180.951
180.952
180.953
180.954
180.955
180.955
180.941
180.941
180.943
180.943
180.944
180.945
180.946
180.946
180.947
180.948
180.948
180.949
180.949
180.95
180.951
180.952
180.952
180.953
180.954
180.955
180.957
180.957
180.941
180.941
180.943
180.944
180.945
180.945
180.946
180.947
180.947
180.948
180.949
180.95
180.95
180.951
180.952
180.953
180.954
180.955
180.956
180.957
180.958
180.958
180.942
180.942
180.943
180.944
180.945
180.946
180.946
180.947
180.948
180.949
180.949
180.95
180.951
180.952
180.953
180.954
180.955
180.956
180.957
180.958
180.959
180.959
180.943
180.943
180.944
180.945
180.945
180.946
180.947
180.948
180.948
180.949
180.95
180.951
180.952
180.953
180.954
180.955
180.956
180.957
180.958
180.959
180.96
180.96
180.944
180.944
180.945
180.945
180.946
180.947
180.947
180.948
180.949
180.95
180.951
180.952
180.953
180.954
180.955
180.956
180.957
180.958
180.959
180.96
180.961
180.961
0
180.944
180.945
180.945
180.946
180.947
180.947
180.948
180.949
180.95
180.951
180.952
180.953
180.954
180.955
180.956
180.957
180.958
180.959
180.96
180.961
0
0
180.962
180.958
180.956
180.949
180.929
180.924
180.93
180.938
180.942
180.945
180.946
180.946
180.946
180.946
180.946
180.947
180.947
180.946
180.946
180.945
0
180.962
180.962
180.958
180.956
180.949
180.929
180.924
180.93
180.938
180.942
180.945
180.946
180.946
180.946
180.946
180.946
180.947
180.947
180.946
180.946
180.945
180.945
180.956
180.956
180.956
180.955
180.951
180.939
180.928
180.93
180.936
180.941
180.943
180.945
180.946
180.946
180.947
180.947
180.947
180.947
180.947
180.947
180.946
180.946
180.952
180.952
180.953
180.953
180.951
180.945
180.934
180.931
180.935
180.939
180.942
180.944
180.946
180.946
180.947
180.947
180.947
180.948
180.948
180.948
180.949
180.949
180.95
180.95
180.951
180.951
180.95
180.947
180.939
180.935
180.935
180.938
180.941
180.943
180.945
180.946
180.947
180.948
180.948
180.949
180.949
180.95
180.95
180.95
180.948
180.948
180.949
180.95
180.95
180.948
180.944
180.939
180.937
180.937
180.94
180.942
180.944
180.946
180.947
180.948
180.949
180.949
180.95
180.951
180.952
180.952
180.946
180.946
180.947
180.948
180.949
180.949
180.947
180.943
180.94
180.939
180.94
180.941
180.943
180.945
180.947
180.948
180.949
180.95
180.951
180.952
180.953
180.953
180.945
180.945
180.946
180.947
180.948
180.948
180.948
180.947
180.944
180.943
180.942
180.942
180.943
180.945
180.946
180.948
180.949
180.95
180.951
180.953
180.954
180.954
180.944
180.944
180.945
180.946
180.947
180.948
180.948
180.948
180.947
180.946
180.945
180.944
180.945
180.946
180.947
180.948
180.949
180.951
180.952
180.953
180.954
180.954
180.944
180.944
180.945
180.946
180.947
180.947
180.948
180.948
180.948
180.948
180.948
180.947
180.947
180.947
180.948
180.949
180.95
180.951
180.952
180.954
180.955
180.955
180.943
180.943
180.944
180.945
180.946
180.947
180.948
180.948
180.949
180.949
180.949
180.949
180.949
180.95
180.95
180.951
180.951
180.952
180.953
180.955
180.956
180.956
180.943
180.943
180.944
180.945
180.946
180.947
180.948
180.948
180.949
180.949
180.95
180.95
180.951
180.951
180.952
180.952
180.953
180.954
180.955
180.956
180.957
180.957
180.943
180.943
180.944
180.945
180.946
180.947
180.948
180.948
180.949
180.95
180.95
180.951
180.952
180.953
180.953
180.954
180.955
180.956
180.956
180.957
180.958
180.958
180.944
180.944
180.945
180.946
180.946
180.947
180.948
180.949
180.949
180.95
180.951
180.952
180.952
180.953
180.954
180.955
180.956
180.957
180.958
180.959
180.96
180.96
180.944
180.944
180.945
180.946
180.947
180.947
180.948
180.949
180.95
180.95
180.951
180.952
180.953
180.954
180.955
180.956
180.957
180.958
180.959
180.96
180.961
180.961
180.945
180.945
180.946
180.947
180.947
180.948
180.948
180.949
180.95
180.951
180.952
180.953
180.954
180.955
180.956
180.957
180.958
180.959
180.96
180.961
180.962
180.962
0
180.945
180.946
180.947
180.947
180.948
180.948
180.949
180.95
180.951
180.952
180.953
180.954
180.955
180.956
180.957
180.958
180.959
180.96
180.961
180.962
0
0
180.967
180.965
180.966
180.961
180.894
180.892
180.921
180.939
180.945
180.948
180.948
180.949
180.948
180.948
180.948
180.948
180.948
180.947
180.947
180.946
0
180.967
180.967
180.965
180.966
180.961
180.894
180.892
180.921
180.939
180.945
180.948
180.948
180.949
180.948
180.948
180.948
180.948
180.948
180.947
180.947
180.946
180.946
180.96
180.96
180.961
180.962
180.961
180.941
180.901
180.915
180.933
180.942
180.946
180.948
180.948
180.948
180.948
180.948
180.948
180.948
180.948
180.948
180.948
180.948
180.956
180.956
180.957
180.959
180.959
180.952
180.921
180.917
180.928
180.938
180.944
180.947
180.948
180.948
180.949
180.949
180.949
180.949
180.949
180.949
180.95
180.95
180.953
180.953
180.954
180.956
180.958
180.955
180.935
180.923
180.925
180.933
180.94
180.944
180.947
180.948
180.949
180.949
180.95
180.95
180.95
180.951
180.952
180.952
180.951
180.951
180.952
180.954
180.956
180.956
180.946
180.933
180.928
180.931
180.936
180.941
180.944
180.947
180.948
180.949
180.95
180.951
180.951
180.952
180.953
180.953
180.949
180.949
180.95
180.952
180.954
180.955
180.952
180.945
180.937
180.933
180.935
180.938
180.942
180.945
180.947
180.949
180.95
180.951
180.952
180.953
180.954
180.954
180.947
180.947
180.949
180.95
180.952
180.953
180.953
180.951
180.946
180.941
180.938
180.938
180.94
180.943
180.946
180.948
180.95
180.951
180.952
180.954
180.955
180.955
180.946
180.946
180.948
180.949
180.95
180.951
180.952
180.952
180.951
180.948
180.945
180.943
180.942
180.943
180.945
180.947
180.949
180.951
180.952
180.954
180.955
180.955
180.946
180.946
180.947
180.948
180.949
180.95
180.951
180.951
180.951
180.951
180.95
180.949
180.947
180.946
180.947
180.948
180.949
180.951
180.952
180.954
180.956
180.956
180.945
180.945
180.946
180.947
180.948
180.949
180.95
180.951
180.951
180.951
180.952
180.952
180.951
180.95
180.95
180.951
180.951
180.952
180.953
180.954
180.956
180.956
180.945
180.945
180.946
180.947
180.948
180.949
180.949
180.95
180.951
180.951
180.952
180.952
180.953
180.953
180.954
180.953
180.953
180.954
180.955
180.957
180.957
180.957
180.945
180.945
180.946
180.947
180.948
180.948
180.949
180.95
180.951
180.951
180.952
180.953
180.954
180.954
180.955
180.955
180.956
180.957
180.958
180.959
180.959
180.959
180.945
180.945
180.946
180.947
180.948
180.948
180.949
180.95
180.951
180.951
180.952
180.953
180.954
180.955
180.955
180.956
180.957
180.958
180.959
180.959
180.961
180.961
180.946
180.946
180.947
180.947
180.948
180.949
180.949
180.95
180.951
180.952
180.952
180.953
180.954
180.955
180.956
180.957
180.958
180.959
180.96
180.961
180.963
180.963
180.947
180.947
180.947
180.948
180.948
180.949
180.95
180.95
180.951
180.952
180.953
180.954
180.955
180.956
180.957
180.958
180.959
180.96
180.961
180.962
180.963
180.963
0
180.947
180.947
180.948
180.948
180.949
180.95
180.95
180.951
180.952
180.953
180.954
180.955
180.956
180.957
180.958
180.959
180.96
180.961
180.962
180.963
0
0
180.971
180.97
180.98
181.012
180.925
180.846
180.917
180.944
180.95
180.951
180.951
180.95
180.95
180.95
180.949
180.949
180.949
180.948
180.948
180.948
0
180.971
180.971
180.97
180.98
181.012
180.925
180.846
180.917
180.944
180.95
180.951
180.951
180.95
180.95
180.95
180.949
180.949
180.949
180.948
180.948
180.948
180.948
180.963
180.963
180.965
180.971
180.991
180.953
180.873
180.903
180.934
180.947
180.95
180.951
180.951
180.95
180.95
180.95
180.95
180.949
180.949
180.949
180.95
180.95
180.959
180.959
180.96
180.964
180.972
180.969
180.901
180.899
180.922
180.939
180.947
180.95
180.951
180.951
180.951
180.95
180.95
180.95
180.951
180.951
180.952
180.952
180.955
180.955
180.957
180.96
180.966
180.978
180.929
180.909
180.916
180.93
180.941
180.946
180.949
180.95
180.951
180.951
180.951
180.951
180.952
180.952
180.954
180.954
180.953
180.953
180.955
180.957
180.964
180.979
180.952
180.926
180.918
180.924
180.933
180.941
180.946
180.948
180.95
180.951
180.952
180.952
180.953
180.954
180.955
180.955
180.951
180.951
180.953
180.955
180.96
180.969
180.965
180.947
180.931
180.927
180.929
180.935
180.941
180.945
180.948
180.95
180.951
180.952
180.953
180.955
180.956
180.956
180.949
180.949
180.951
180.953
180.955
180.96
180.965
180.96
180.948
180.938
180.934
180.934
180.938
180.942
180.945
180.948
180.95
180.952
180.954
180.955
180.957
180.957
180.948
180.948
180.949
180.951
180.953
180.955
180.959
180.96
180.958
180.952
180.945
180.94
180.94
180.941
180.943
180.946
180.949
180.951
180.953
180.955
180.957
180.957
180.947
180.947
180.949
180.95
180.951
180.952
180.954
180.957
180.958
180.957
180.954
180.951
180.948
180.945
180.945
180.946
180.948
180.951
180.952
180.953
180.957
180.957
180.947
180.947
180.948
180.949
180.95
180.951
180.952
180.954
180.955
180.956
180.957
180.957
180.954
180.951
180.952
180.951
180.951
180.951
180.952
180.953
180.957
180.957
180.946
180.946
180.948
180.948
180.949
180.95
180.951
180.952
180.953
180.954
180.956
180.956
180.956
180.957
180.957
180.955
180.953
180.954
180.956
180.957
180.957
180.957
180.946
180.946
180.948
180.948
180.949
180.95
180.951
180.951
180.952
180.953
180.954
180.955
180.956
180.958
180.958
180.956
180.957
180.96
180.96
180.96
180.958
180.958
180.947
180.947
180.948
180.949
180.949
180.95
180.951
180.951
180.952
180.953
180.954
180.955
180.956
180.957
180.957
180.958
180.96
180.961
180.961
180.96
180.962
180.962
180.947
180.947
180.948
180.949
180.949
180.95
180.951
180.951
180.952
180.953
180.954
180.955
180.956
180.956
180.957
180.959
180.96
180.961
180.961
180.962
180.964
180.964
180.948
180.948
180.949
180.949
180.95
180.95
180.951
180.952
180.952
180.953
180.954
180.955
180.956
180.957
180.958
180.958
180.959
180.96
180.962
180.962
180.965
180.965
0
180.948
180.949
180.949
180.95
180.95
180.951
180.952
180.952
180.953
180.954
180.955
180.956
180.957
180.958
180.958
180.959
180.96
180.962
180.962
180.965
0
0
180.97
180.968
180.97
180.966
180.91
180.896
180.923
180.94
180.947
180.949
180.95
180.95
180.95
180.95
180.95
180.95
180.949
180.949
180.949
180.948
0
180.97
180.97
180.968
180.97
180.966
180.91
180.896
180.923
180.94
180.947
180.949
180.95
180.95
180.95
180.95
180.95
180.95
180.949
180.949
180.949
180.948
180.948
180.964
180.964
180.964
180.965
180.963
180.934
180.905
180.918
180.935
180.945
180.949
180.95
180.951
180.951
180.95
180.95
180.95
180.95
180.95
180.95
180.95
180.95
180.959
180.959
180.96
180.961
180.961
180.95
180.922
180.919
180.93
180.94
180.946
180.949
180.95
180.95
180.951
180.951
180.951
180.951
180.951
180.951
180.952
180.952
180.956
180.956
180.957
180.959
180.96
180.957
180.937
180.926
180.928
180.936
180.942
180.946
180.948
180.95
180.951
180.951
180.951
180.952
180.952
180.953
180.954
180.954
180.954
180.954
180.955
180.957
180.959
180.96
180.948
180.936
180.931
180.933
180.939
180.943
180.946
180.949
180.95
180.951
180.952
180.953
180.953
180.954
180.955
180.955
180.952
180.952
180.953
180.955
180.957
180.959
180.955
180.946
180.939
180.936
180.937
180.941
180.944
180.947
180.949
180.951
180.952
180.953
180.954
180.955
180.957
180.957
180.951
180.951
180.952
180.953
180.955
180.957
180.957
180.953
180.947
180.943
180.94
180.941
180.943
180.945
180.948
180.95
180.952
180.953
180.954
180.956
180.957
180.957
180.949
180.949
180.951
180.952
180.953
180.955
180.956
180.955
180.953
180.95
180.947
180.945
180.945
180.946
180.947
180.949
180.951
180.953
180.954
180.956
180.958
180.958
180.949
180.949
180.95
180.951
180.952
180.953
180.954
180.955
180.955
180.954
180.952
180.95
180.949
180.949
180.949
180.95
180.951
180.953
180.954
180.956
180.958
180.958
180.948
180.948
180.949
180.95
180.951
180.952
180.953
180.954
180.954
180.954
180.954
180.954
180.953
180.952
180.952
180.953
180.953
180.954
180.955
180.957
180.958
180.958
180.948
180.948
180.949
180.95
180.951
180.951
180.952
180.953
180.954
180.954
180.955
180.955
180.955
180.956
180.956
180.956
180.955
180.956
180.957
180.959
180.959
180.959
180.948
180.948
180.949
180.95
180.95
180.951
180.952
180.953
180.953
180.954
180.955
180.955
180.956
180.957
180.957
180.957
180.958
180.959
180.96
180.961
180.961
180.961
180.948
180.948
180.949
180.95
180.95
180.951
180.952
180.952
180.953
180.954
180.955
180.955
180.956
180.957
180.958
180.959
180.96
180.961
180.961
180.962
180.963
180.963
180.949
180.949
180.95
180.95
180.951
180.951
180.952
180.953
180.953
180.954
180.955
180.956
180.956
180.957
180.958
180.959
180.96
180.961
180.962
180.963
180.965
180.965
180.95
180.95
180.95
180.951
180.951
180.952
180.952
180.953
180.953
180.954
180.955
180.956
180.957
180.958
180.959
180.96
180.961
180.962
180.963
180.964
180.966