# vtk DataFile Version 3.0
FlowField
ASCII
DATASET STRUCTURED_GRID
DIMENSIONS 22 17 12 
POINTS 4488 double
0 0 0
5 0 0
10 0 0
15 0 0
20 0 0
25 0 0
30 0 0
35 0 0
40 0 0
45 0 0
50 0 0
55 0 0
60 0 0
65 0 0
70 0 0
75 0 0
80 0 0
85 0 0
90 0 0
95 0 0
100 0 0
105 0 0
0 1 0
5 1 0
10 1 0
15 1 0
20 1 0
25 1 0
30 1 0
35 1 0
40 1 0
45 1 0
50 1 0
55 1 0
60 1 0
65 1 0
70 1 0
75 1 0
80 1 0
85 1 0
90 1 0
95 1 0
100 1 0
105 1 0
0 2 0
5 2 0
10 2 0
15 2 0
20 2 0
25 2 0
30 2 0
35 2 0
40 2 0
45 2 0
50 2 0
55 2 0
60 2 0
65 2 0
70 2 0
75 2 0
80 2 0
85 2 0
90 2 0
95 2 0
100 2 0
105 2 0
0 3 0
5 3 0
10 3 0
15 3 0
20 3 0
25 3 0
30 3 0
35 3 0
40 3 0
45 3 0
50 3 0
55 3 0
60 3 0
65 3 0
70 3 0
75 3 0
80 3 0
85 3 0
90 3 0
95 3 0
100 3 0
105 3 0
0 4 0
5 4 0
10 4 0
15 4 0
20 4 0
25 4 0
30 4 0
35 4 0
40 4 0
45 4 0
50 4 0
55 4 0
60 4 0
65 4 0
70 4 0
75 4 0
80 4 0
85 4 0
90 4 0
95 4 0
100 4 0
105 4 0
0 5 0
5 5 0
10 5 0
15 5 0
20 5 0
25 5 0
30 5 0
35 5 0
40 5 0
45 5 0
50 5 0
55 5 0
60 5 0
65 5 0
70 5 0
75 5 0
80 5 0
85 5 0
90 5 0
95 5 0
100 5 0
105 5 0
0 6 0
5 6 0
10 6 0
15 6 0
20 6 0
25 6 0
30 6 0
35 6 0
40 6 0
45 6 0
50 6 0
55 6 0
60 6 0
65 6 0
70 6 0
75 6 0
80 6 0
85 6 0
90 6 0
95 6 0
100 6 0
105 6 0
0 7 0
5 7 0
10 7 0
15 7 0
20 7 0
25 7 0
30 7 0
35 7 0
40 7 0
45 7 0
50 7 0
55 7 0
60 7 0
65 7 0
70 7 0
75 7 0
80 7 0
85 7 0
90 7 0
95 7 0
100 7 0
105 7 0
0 8 0
5 8 0
10 8 0
15 8 0
20 8 0
25 8 0
30 8 0
35 8 0
40 8 0
45 8 0
50 8 0
55 8 0
60 8 0
65 8 0
70 8 0
75 8 0
80 8 0
85 8 0
90 8 0
95 8 0
100 8 0
105 8 0
0 9 0
5 9 0
10 9 0
15 9 0
20 9 0
25 9 0
30 9 0
35 9 0
40 9 0
45 9 0
50 9 0
55 9 0
60 9 0
65 9 0
70 9 0
75 9 0
80 9 0
85 9 0
90 9 0
95 9 0
100 9 0
105 9 0
0 10 0
5 10 0
10 10 0
15 10 0
20 10 0
25 10 0
30 10 0
35 10 0
40 10 0
45 10 0
50 10 0
55 10 0
60 10 0
65 10 0
70 10 0
75 10 0
80 10 0
85 10 0
90 10 0
95 10 0
100 10 0
105 10 0
0 11 0
5 11 0
10 11 0
15 11 0
20 11 0
25 11 0
30 11 0
35 11 0
40 11 0
45 11 0
50 11 0
55 11 0
60 11 0
65 11 0
70 11 0
75 11 0
80 11 0
85 11 0
90 11 0
95 11 0
100 11 0
105 11 0
0 12 0
5 12 0
10 12 0
15 12 0
20 12 0
25 12 0
30 12 0
35 12 0
40 12 0
45 12 0
50 12 0
55 12 0
60 12 0
65 12 0
70 12 0
75 12 0
80 12 0
85 12 0
90 12 0
95 12 0
100 12 0
105 12 0
0 13 0
5 13 0
10 13 0
15 13 0
20 13 0
25 13 0
30 13 0
35 13 0
40 13 0
45 13 0
50 13 0
55 13 0
60 13 0
65 13 0
70 13 0
75 13 0
80 13 0
85 13 0
90 13 0
95 13 0
100 13 0
105 13 0
0 14 0
5 14 0
10 14 0
15 14 0
20 14 0
25 14 0
30 14 0
35 14 0
40 14 0
45 14 0
50 14 0
55 14 0
60 14 0
65 14 0
70 14 0
75 14 0
80 14 0
85 14 0
90 14 0
95 14 0
100 14 0
105 14 0
0 15 0
5 15 0
10 15 0
15 15 0
20 15 0
25 15 0
30 15 0
35 15 0
40 15 0
45 15 0
50 15 0
55 15 0
60 15 0
65 15 0
70 15 0
75 15 0
80 15 0
85 15 0
90 15 0
95 15 0
100 15 0
105 15 0
0 16 0
5 16 0
10 16 0
15 16 0
20 16 0
25 16 0
30 16 0
35 16 0
40 16 0
45 16 0
50 16 0
55 16 0
60 16 0
65 16 0
70 16 0
75 16 0
80 16 0
85 16 0
90 16 0
95 16 0
100 16 0
105 16 0
0 0 1
5 0 1
10 0 1
15 0 1
20 0 1
25 0 1
30 0 1
35 0 1
40 0 1
45 0 1
50 0 1
55 0 1
60 0 1
65 0 1
70 0 1
75 0 1
80 0 1
85 0 1
90 0 1
95 0 1
100 0 1
105 0 1
0 1 1
5 1 1
10 1 1
15 1 1
20 1 1
25 1 1
30 1 1
35 1 1
40 1 1
45 1 1
50 1 1
55 1 1
60 1 1
65 1 1
70 1 1
75 1 1
80 1 1
85 1 1
90 1 1
95 1 1
100 1 1
105 1 1
0 2 1
5 2 1
10 2 1
15 2 1
20 2 1
25 2 1
30 2 1
35 2 1
40 2 1
45 2 1
50 2 1
55 2 1
60 2 1
65 2 1
70 2 1
75 2 1
80 2 1
85 2 1
90 2 1
95 2 1
100 2 1
105 2 1
0 3 1
5 3 1
10 3 1
15 3 1
20 3 1
25 3 1
30 3 1
35 3 1
40 3 1
45 3 1
50 3 1
55 3 1
60 3 1
65 3 1
70 3 1
75 3 1
80 3 1
85 3 1
90 3 1
95 3 1
100 3 1
105 3 1
0 4 1
5 4 1
10 4 1
15 4 1
20 4 1
25 4 1
30 4 1
35 4 1
40 4 1
45 4 1
50 4 1
55 4 1
60 4 1
65 4 1
70 4 1
75 4 1
80 4 1
85 4 1
90 4 1
95 4 1
100 4 1
105 4 1
0 5 1
5 5 1
10 5 1
15 5 1
20 5 1
25 5 1
30 5 1
35 5 1
40 5 1
45 5 1
50 5 1
55 5 1
60 5 1
65 5 1
70 5 1
75 5 1
80 5 1
85 5 1
90 5 1
95 5 1
100 5 1
105 5 1
0 6 1
5 6 1
10 6 1
15 6 1
20 6 1
25 6 1
30 6 1
35 6 1
40 6 1
45 6 1
50 6 1
55 6 1
60 6 1
65 6 1
70 6 1
75 6 1
80 6 1
85 6 1
90 6 1
95 6 1
100 6 1
105 6 1
0 7 1
5 7 1
10 7 1
15 7 1
20 7 1
25 7 1
30 7 1
35 7 1
40 7 1
45 7 1
50 7 1
55 7 1
60 7 1
65 7 1
70 7 1
75 7 1
80 7 1
85 7 1
90 7 1
95 7 1
100 7 1
105 7 1
0 8 1
5 8 1
10 8 1
15 8 1
20 8 1
25 8 1
30 8 1
35 8 1
40 8 1
45 8 1
50 8 1
55 8 1
60 8 1
65 8 1
70 8 1
75 8 1
80 8 1
85 8 1
90 8 1
95 8 1
100 8 1
105 8 1
0 9 1
5 9 1
10 9 1
15 9 1
20 9 1
25 9 1
30 9 1
35 9 1
40 9 1
45 9 1
50 9 1
55 9 1
60 9 1
65 9 1
70 9 1
75 9 1
80 9 1
85 9 1
90 9 1
95 9 1
100 9 1
105 9 1
0 10 1
5 10 1
10 10 1
15 10 1
20 10 1
25 10 1
30 10 1
35 10 1
40 10 1
45 10 1
50 10 1
55 10 1
60 10 1
65 10 1
70 10 1
75 10 1
80 10 1
85 10 1
90 10 1
95 10 1
100 10 1
105 10 1
0 11 1
5 11 1
10 11 1
15 11 1
20 11 1
25 11 1
30 11 1
35 11 1
40 11 1
45 11 1
50 11 1
55 11 1
60 11 1
65 11 1
70 11 1
75 11 1
80 11 1
85 11 1
90 11 1
95 11 1
100 11 1
105 11 1
0 12 1
5 12 1
10 12 1
15 12 1
20 12 1
25 12 1
30 12 1
35 12 1
40 12 1
45 12 1
50 12 1
55 12 1
60 12 1
65 12 1
70 12 1
75 12 1
80 12 1
85 12 1
90 12 1
95 12 1
100 12 1
105 12 1
0 13 1
5 13 1
10 13 1
15 13 1
20 13 1
25 13 1
30 13 1
35 13 1
40 13 1
45 13 1
50 13 1
55 13 1
60 13 1
65 13 1
70 13 1
75 13 1
80 13 1
85 13 1
90 13 1
95 13 1
100 13 1
105 13 1
0 14 1
5 14 1
10 14 1
15 14 1
20 14 1
25 14 1
30 14 1
35 14 1
40 14 1
45 14 1
50 14 1
55 14 1
60 14 1
65 14 1
70 14 1
75 14 1
80 14 1
85 14 1
90 14 1
95 14 1
100 14 1
105 14 1
0 15 1
5 15 1
10 15 1
15 15 1
20 15 1
25 15 1
30 15 1
35 15 1
40 15 1
45 15 1
50 15 1
55 15 1
60 15 1
65 15 1
70 15 1
75 15 1
80 15 1
85 15 1
90 15 1
95 15 1
100 15 1
105 15 1
0 16 1
5 16 1
10 16 1
15 16 1
20 16 1
25 16 1
30 16 1
35 16 1
40 16 1
45 16 1
50 16 1
55 16 1
60 16 1
65 16 1
70 16 1
75 16 1
80 16 1
85 16 1
90 16 1
95 16 1
100 16 1
105 16 1
0 0 2
5 0 2
10 0 2
15 0 2
20 0 2
25 0 2
30 0 2
35 0 2
40 0 2
45 0 2
50 0 2
55 0 2
60 0 2
65 0 2
70 0 2
75 0 2
80 0 2
85 0 2
90 0 2
95 0 2
100 0 2
105 0 2
0 1 2
5 1 2
10 1 2
15 1 2
20 1 2
25 1 2
30 1 2
35 1 2
40 1 2
45 1 2
50 1 2
55 1 2
60 1 2
65 1 2
70 1 2
75 1 2
80 1 2
85 1 2
90 1 2
95 1 2
100 1 2
105 1 2
0 2 2
5 2 2
10 2 2
15 2 2
20 2 2
25 2 2
30 2 2
35 2 2
40 2 2
45 2 2
50 2 2
55 2 2
60 2 2
65 2 2
70 2 2
75 2 2
80 2 2
85 2 2
90 2 2
95 2 2
100 2 2
105 2 2
0 3 2
5 3 2
10 3 2
15 3 2
20 3 2
25 3 2
30 3 2
35 3 2
40 3 2
45 3 2
50 3 2
55 3 2
60 3 2
65 3 2
70 3 2
75 3 2
80 3 2
85 3 2
90 3 2
95 3 2
100 3 2
105 3 2
0 4 2
5 4 2
10 4 2
15 4 2
20 4 2
25 4 2
30 4 2
35 4 2
40 4 2
45 4 2
50 4 2
55 4 2
60 4 2
65 4 2
70 4 2
75 4 2
80 4 2
85 4 2
90 4 2
95 4 2
100 4 2
105 4 2
0 5 2
5 5 2
10 5 2
15 5 2
20 5 2
25 5 2
30 5 2
35 5 2
40 5 2
45 5 2
50 5 2
55 5 2
60 5 2
65 5 2
70 5 2
75 5 2
80 5 2
85 5 2
90 5 2
95 5 2
100 5 2
105 5 2
0 6 2
5 6 2
10 6 2
15 6 2
20 6 2
25 6 2
30 6 2
35 6 2
40 6 2
45 6 2
50 6 2
55 6 2
60 6 2
65 6 2
70 6 2
75 6 2
80 6 2
85 6 2
90 6 2
95 6 2
100 6 2
105 6 2
0 7 2
5 7 2
10 7 2
15 7 2
20 7 2
25 7 2
30 7 2
35 7 2
40 7 2
45 7 2
50 7 2
55 7 2
60 7 2
65 7 2
70 7 2
75 7 2
80 7 2
85 7 2
90 7 2
95 7 2
100 7 2
105 7 2
0 8 2
5 8 2
10 8 2
15 8 2
20 8 2
25 8 2
30 8 2
35 8 2
40 8 2
45 8 2
50 8 2
55 8 2
60 8 2
65 8 2
70 8 2
75 8 2
80 8 2
85 8 2
90 8 2
95 8 2
100 8 2
105 8 2
0 9 2
5 9 2
10 9 2
15 9 2
20 9 2
25 9 2
30 9 2
35 9 2
40 9 2
45 9 2
50 9 2
55 9 2
60 9 2
65 9 2
70 9 2
75 9 2
80 9 2
85 9 2
90 9 2
95 9 2
100 9 2
105 9 2
0 10 2
5 10 2
10 10 2
15 10 2
20 10 2
25 10 2
30 10 2
35 10 2
40 10 2
45 10 2
50 10 2
55 10 2
60 10 2
65 10 2
70 10 2
75 10 2
80 10 2
85 10 2
90 10 2
95 10 2
100 10 2
105 10 2
0 11 2
5 11 2
10 11 2
15 11 2
20 11 2
25 11 2
30 11 2
35 11 2
40 11 2
45 11 2
50 11 2
55 11 2
60 11 2
65 11 2
70 11 2
75 11 2
80 11 2
85 11 2
90 11 2
95 11 2
100 11 2
105 11 2
0 12 2
5 12 2
10 12 2
15 12 2
20 12 2
25 12 2
30 12 2
35 12 2
40 12 2
45 12 2
50 12 2
55 12 2
60 12 2
65 12 2
70 12 2
75 12 2
80 12 2
85 12 2
90 12 2
95 12 2
100 12 2
105 12 2
0 13 2
5 13 2
10 13 2
15 13 2
20 13 2
25 13 2
30 13 2
35 13 2
40 13 2
45 13 2
50 13 2
55 13 2
60 13 2
65 13 2
70 13 2
75 13 2
80 13 2
85 13 2
90 13 2
95 13 2
100 13 2
105 13 2
0 14 2
5 14 2
10 14 2
15 14 2
20 14 2
25 14 2
30 14 2
35 14 2
40 14 2
45 14 2
50 14 2
55 14 2
60 14 2
65 14 2
70 14 2
75 14 2
80 14 2
85 14 2
90 14 2
95 14 2
100 14 2
105 14 2
0 15 2
5 15 2
10 15 2
15 15 2
20 15 2
25 15 2
30 15 2
35 15 2
40 15 2
45 15 2
50 15 2
55 15 2
60 15 2
65 15 2
70 15 2
75 15 2
80 15 2
85 15 2
90 15 2
95 15 2
100 15 2
105 15 2
0 16 2
5 16 2
10 16 2
15 16 2
20 16 2
25 16 2
30 16 2
35 16 2
40 16 2
45 16 2
50 16 2
55 16 2
60 16 2
65 16 2
70 16 2
75 16 2
80 16 2
85 16 2
90 16 2
95 16 2
100 16 2
105 16 2
0 0 3
5 0 3
10 0 3
15 0 3
20 0 3
25 0 3
30 0 3
35 0 3
40 0 3
45 0 3
50 0 3
55 0 3
60 0 3
65 0 3
70 0 3
75 0 3
80 0 3
85 0 3
90 0 3
95 0 3
100 0 3
105 0 3
0 1 3
5 1 3
10 1 3
15 1 3
20 1 3
25 1 3
30 1 3
35 1 3
40 1 3
45 1 3
50 1 3
55 1 3
60 1 3
65 1 3
70 1 3
75 1 3
80 1 3
85 1 3
90 1 3
95 1 3
100 1 3
105 1 3
0 2 3
5 2 3
10 2 3
15 2 3
20 2 3
25 2 3
30 2 3
35 2 3
40 2 3
45 2 3
50 2 3
55 2 3
60 2 3
65 2 3
70 2 3
75 2 3
80 2 3
85 2 3
90 2 3
95 2 3
100 2 3
105 2 3
0 3 3
5 3 3
10 3 3
15 3 3
20 3 3
25 3 3
30 3 3
35 3 3
40 3 3
45 3 3
50 3 3
55 3 3
60 3 3
65 3 3
70 3 3
75 3 3
80 3 3
85 3 3
90 3 3
95 3 3
100 3 3
105 3 3
0 4 3
5 4 3
10 4 3
15 4 3
20 4 3
25 4 3
30 4 3
35 4 3
40 4 3
45 4 3
50 4 3
55 4 3
60 4 3
65 4 3
70 4 3
75 4 3
80 4 3
85 4 3
90 4 3
95 4 3
100 4 3
105 4 3
0 5 3
5 5 3
10 5 3
15 5 3
20 5 3
25 5 3
30 5 3
35 5 3
40 5 3
45 5 3
50 5 3
55 5 3
60 5 3
65 5 3
70 5 3
75 5 3
80 5 3
85 5 3
90 5 3
95 5 3
100 5 3
105 5 3
0 6 3
5 6 3
10 6 3
15 6 3
20 6 3
25 6 3
30 6 3
35 6 3
40 6 3
45 6 3
50 6 3
55 6 3
60 6 3
65 6 3
70 6 3
75 6 3
80 6 3
85 6 3
90 6 3
95 6 3
100 6 3
105 6 3
0 7 3
5 7 3
10 7 3
15 7 3
20 7 3
25 7 3
30 7 3
35 7 3
40 7 3
45 7 3
50 7 3
55 7 3
60 7 3
65 7 3
70 7 3
75 7 3
80 7 3
85 7 3
90 7 3
95 7 3
100 7 3
105 7 3
0 8 3
5 8 3
10 8 3
15 8 3
20 8 3
25 8 3
30 8 3
35 8 3
40 8 3
45 8 3
50 8 3
55 8 3
60 8 3
65 8 3
70 8 3
75 8 3
80 8 3
85 8 3
90 8 3
95 8 3
100 8 3
105 8 3
0 9 3
5 9 3
10 9 3
15 9 3
20 9 3
25 9 3
30 9 3
35 9 3
40 9 3
45 9 3
50 9 3
55 9 3
60 9 3
65 9 3
70 9 3
75 9 3
80 9 3
85 9 3
90 9 3
95 9 3
100 9 3
105 9 3
0 10 3
5 10 3
10 10 3
15 10 3
[...]
POINT_DATA 4488

SCALARS pressure double
LOOKUP_TABLE pressure
0
0
0
0
0
0
0
0
0
0
0
0
0
0
0
0
0
0
0
0
0
0
0
4.61436e+06
4.61426e+06
4.61426e+06
4.61439e+06
4.61391e+06
4.61373e+06
4.61349e+06
4.61354e+06
4.61365e+06
4.61325e+06
4.61465e+06
4.6208e+06
4.63521e+06
4.61993e+06
4.61393e+06
4.61243e+06
4.61253e+06
4.61214e+06
4.61222e+06
4.61218e+06
0
0
4.61435e+06
4.61426e+06
4.61426e+06
4.61434e+06
4.61392e+06
4.6137e+06
4.61348e+06
4.61349e+06
4.61323e+06
4.61318e+06
4.61445e+06
4.62038e+06
4.63564e+06
4.61947e+06
4.61367e+06
4.6124e+06
4.61226e+06
4.61208e+06
4.61221e+06
4.61216e+06
0
0
4.61434e+06
4.6142e+06
4.61425e+06
4.61428e+06
4.61389e+06
4.61369e+06
4.61344e+06
4.61345e+06
4.61318e+06
4.61302e+06
4.61403e+06
4.6192e+06
4.63613e+06
4.61857e+06
4.61327e+06
4.61229e+06
4.61222e+06
4.61208e+06
4.61218e+06
4.61214e+06
0
0
4.61431e+06
4.61421e+06
4.61422e+06
4.61423e+06
4.61391e+06
4.61368e+06
4.61342e+06
4.61328e+06
4.61302e+06
4.61284e+06
4.61342e+06
4.6177e+06
4.63186e+06
4.61706e+06
4.61272e+06
4.61208e+06
4.61217e+06
4.61207e+06
4.61213e+06
4.61211e+06
0
0
4.61428e+06
4.61396e+06
4.6142e+06
4.61414e+06
4.61396e+06
4.61369e+06
4.6134e+06
4.6132e+06
4.61294e+06
4.61261e+06
4.61262e+06
4.61535e+06
4.64061e+06
4.61477e+06
4.61198e+06
4.61196e+06
4.61209e+06
4.61203e+06
4.61208e+06
4.61209e+06
0
0
4.61426e+06
4.61378e+06
4.61414e+06
4.61409e+06
4.61388e+06
4.61366e+06
4.61339e+06
4.61316e+06
4.61287e+06
4.61236e+06
4.61169e+06
4.61209e+06
4.64124e+06
4.61132e+06
4.61112e+06
4.61176e+06
4.61196e+06
4.61201e+06
4.61203e+06
4.61206e+06
0
0
4.61423e+06
4.61401e+06
4.61412e+06
4.61406e+06
4.61378e+06
4.61359e+06
4.61336e+06
4.61314e+06
4.61271e+06
4.61211e+06
4.61071e+06
4.60753e+06
4.63257e+06
4.60669e+06
4.61017e+06
4.61139e+06
4.61185e+06
4.61196e+06
4.61198e+06
4.61203e+06
0
0
4.61419e+06
4.61422e+06
4.6141e+06
4.61401e+06
4.6138e+06
4.61357e+06
4.61333e+06
4.61313e+06
4.61258e+06
4.61187e+06
4.60987e+06
4.60268e+06
4.61024e+06
4.60186e+06
4.60935e+06
4.61107e+06
4.61173e+06
4.61191e+06
4.61194e+06
4.61201e+06
0
0
4.61417e+06
4.61416e+06
4.61408e+06
4.61397e+06
4.61383e+06
4.61357e+06
4.61331e+06
4.61305e+06
4.61251e+06
4.61166e+06
4.60934e+06
4.60022e+06
4.58674e+06
4.59954e+06
4.60889e+06
4.61107e+06
4.61162e+06
4.61184e+06
4.6119e+06
4.61198e+06
0
0
4.61416e+06
4.61407e+06
4.61404e+06
4.61395e+06
4.61372e+06
4.61354e+06
4.61327e+06
4.61292e+06
4.61244e+06
4.6115e+06
4.60923e+06
4.60353e+06
4.62223e+06
4.60316e+06
4.60884e+06
4.61089e+06
4.61154e+06
4.61178e+06
4.61191e+06
4.61195e+06
0
0
4.61413e+06
4.61409e+06
4.61402e+06
4.61392e+06
4.61366e+06
4.6135e+06
4.61323e+06
4.61283e+06
4.61236e+06
4.61138e+06
4.6093e+06
4.60819e+06
4.68761e+06
4.60805e+06
4.60892e+06
4.61073e+06
4.61149e+06
4.61171e+06
4.61185e+06
4.61192e+06
0
0
4.61411e+06
4.6141e+06
4.61401e+06
4.61388e+06
4.61365e+06
4.61347e+06
4.6132e+06
4.61282e+06
4.61228e+06
4.61128e+06
4.60931e+06
4.60855e+06
4.63797e+06
4.60876e+06
4.60896e+06
4.61066e+06
4.61143e+06
4.61168e+06
4.61176e+06
4.6119e+06
0
0
4.61409e+06
4.61404e+06
4.614e+06
4.61384e+06
4.61363e+06
4.61344e+06
4.61316e+06
4.61277e+06
4.61221e+06
4.6112e+06
4.60927e+06
4.60836e+06
4.66824e+06
4.60858e+06
4.60909e+06
4.61058e+06
4.61136e+06
4.61168e+06
4.61175e+06
4.61187e+06
0
0
4.61406e+06
4.61399e+06
4.61399e+06
4.61382e+06
4.6136e+06
4.61341e+06
4.61313e+06
4.61273e+06
4.61216e+06
4.61114e+06
4.60921e+06
4.60756e+06
4.63956e+06
4.60805e+06
4.609e+06
4.61051e+06
4.61131e+06
4.61165e+06
4.61178e+06
4.61184e+06
0
0
4.61406e+06
4.61402e+06
4.61396e+06
4.61381e+06
4.61357e+06
4.61339e+06
4.61311e+06
4.61272e+06
4.61214e+06
4.61112e+06
4.6092e+06
4.60756e+06
4.63896e+06
4.60795e+06
4.60895e+06
4.6105e+06
4.61128e+06
4.61162e+06
4.61178e+06
4.61183e+06
0
0
0
0
0
0
0
0
0
0
0
0
0
0
0
0
0
0
0
0
0
0
0
0
4.61436e+06
4.61426e+06
4.61426e+06
4.61439e+06
4.61391e+06
4.61373e+06
4.61349e+06
4.61354e+06
4.61365e+06
4.61325e+06
4.61465e+06
4.6208e+06
4.63521e+06
4.61993e+06
4.61393e+06
4.61243e+06
4.61253e+06
4.61214e+06
4.61222e+06
4.61218e+06
0
-4.61436e+06
4.61436e+06
4.61426e+06
4.61426e+06
4.61439e+06
4.61391e+06
4.61373e+06
4.61349e+06
4.61354e+06
4.61365e+06
4.61325e+06
4.61465e+06
4.6208e+06
4.63521e+06
4.61993e+06
4.61393e+06
4.61243e+06
4.61253e+06
4.61214e+06
4.61222e+06
4.61218e+06
4.61218e+06
32.6858
4.61435e+06
4.61426e+06
4.61426e+06
4.61434e+06
4.61392e+06
4.6137e+06
4.61348e+06
4.61349e+06
4.61323e+06
4.61318e+06
4.61445e+06
4.62038e+06
4.63564e+06
4.61947e+06
4.61367e+06
4.6124e+06
4.61226e+06
4.61208e+06
4.61221e+06
4.61216e+06
4.61216e+06
-4.61434e+06
4.61434e+06
4.6142e+06
4.61425e+06
4.61428e+06
4.61389e+06
4.61369e+06
4.61344e+06
4.61345e+06
4.61318e+06
4.61302e+06
4.61403e+06
4.6192e+06
4.63613e+06
4.61857e+06
4.61327e+06
4.61229e+06
4.61222e+06
4.61208e+06
4.61218e+06
4.61214e+06
4.61214e+06
-4.61431e+06
4.61431e+06
4.61421e+06
4.61422e+06
4.61423e+06
4.61391e+06
4.61368e+06
4.61342e+06
4.61328e+06
4.61302e+06
4.61284e+06
4.61342e+06
4.6177e+06
4.63186e+06
4.61706e+06
4.61272e+06
4.61208e+06
4.61217e+06
4.61207e+06
4.61213e+06
4.61211e+06
4.61211e+06
-4.61428e+06
4.61428e+06
4.61396e+06
4.6142e+06
4.61414e+06
4.61396e+06
4.61369e+06
4.6134e+06
4.6132e+06
4.61294e+06
4.61261e+06
4.61262e+06
4.61535e+06
4.64061e+06
4.61477e+06
4.61198e+06
4.61196e+06
4.61209e+06
4.61203e+06
4.61208e+06
4.61209e+06
4.61209e+06
-4.61426e+06
4.61426e+06
4.61378e+06
4.61414e+06
4.61409e+06
4.61388e+06
4.61366e+06
4.61339e+06
4.61316e+06
4.61287e+06
4.61236e+06
4.61169e+06
4.61209e+06
4.64124e+06
4.61132e+06
4.61112e+06
4.61176e+06
4.61196e+06
4.61201e+06
4.61203e+06
4.61206e+06
4.61206e+06
-4.61423e+06
4.61423e+06
4.61401e+06
4.61412e+06
4.61406e+06
4.61378e+06
4.61359e+06
4.61336e+06
4.61314e+06
4.61271e+06
4.61211e+06
4.61071e+06
4.60753e+06
4.63257e+06
4.60669e+06
4.61017e+06
4.61139e+06
4.61185e+06
4.61196e+06
4.61198e+06
4.61203e+06
4.61203e+06
-4.61419e+06
4.61419e+06
4.61422e+06
4.6141e+06
4.61401e+06
4.6138e+06
4.61357e+06
4.61333e+06
4.61313e+06
4.61258e+06
4.61187e+06
4.60987e+06
4.60268e+06
4.61024e+06
4.60186e+06
4.60935e+06
4.61107e+06
4.61173e+06
4.61191e+06
4.61194e+06
4.61201e+06
4.61201e+06
-4.61417e+06
4.61417e+06
4.61416e+06
4.61408e+06
4.61397e+06
4.61383e+06
4.61357e+06
4.61331e+06
4.61305e+06
4.61251e+06
4.61166e+06
4.60934e+06
4.60022e+06
4.58674e+06
4.59954e+06
4.60889e+06
4.61107e+06
4.61162e+06
4.61184e+06
4.6119e+06
4.61198e+06
4.61198e+06
-4.61416e+06
4.61416e+06
4.61407e+06
4.61404e+06
4.61395e+06
4.61372e+06
4.61354e+06
4.61327e+06
4.61292e+06
4.61244e+06
4.6115e+06
4.60923e+06
4.60353e+06
4.62223e+06
4.60316e+06
4.60884e+06
4.61089e+06
4.61154e+06
4.61178e+06
4.61191e+06
4.61195e+06
4.61195e+06
-4.61413e+06
4.61413e+06
4.61409e+06
4.61402e+06
4.61392e+06
4.61366e+06
4.6135e+06
4.61323e+06
4.61283e+06
4.61236e+06
4.61138e+06
4.6093e+06
4.60819e+06
4.68761e+06
4.60805e+06
4.60892e+06
4.61073e+06
4.61149e+06
4.61171e+06
4.61185e+06
4.61192e+06
4.61192e+06
-4.61411e+06
4.61411e+06
4.6141e+06
4.61401e+06
4.61388e+06
4.61365e+06
4.61347e+06
4.6132e+06
4.61282e+06
4.61228e+06
4.61128e+06
4.60931e+06
4.60855e+06
4.63797e+06
4.60876e+06
4.60896e+06
4.61066e+06
4.61143e+06
4.61168e+06
4.61176e+06
4.6119e+06
4.6119e+06
-4.61409e+06
4.61409e+06
4.61404e+06
4.614e+06
4.61384e+06
4.61363e+06
4.61344e+06
4.61316e+06
4.61277e+06
4.61221e+06
4.6112e+06
4.60927e+06
4.60836e+06
4.66824e+06
4.60858e+06
4.60909e+06
4.61058e+06
4.61136e+06
4.61168e+06
4.61175e+06
4.61187e+06
4.61187e+06
-4.61406e+06
4.61406e+06
4.61399e+06
4.61399e+06
4.61382e+06
4.6136e+06
4.61341e+06
4.61313e+06
4.61273e+06
4.61216e+06
4.61114e+06
4.60921e+06
4.60756e+06
4.63956e+06
4.60805e+06
4.609e+06
4.61051e+06
4.61131e+06
4.61165e+06
4.61178e+06
4.61184e+06
4.61184e+06
-4.61406e+06
4.61406e+06
4.61402e+06
4.61396e+06
4.61381e+06
4.61357e+06
4.61339e+06
4.61311e+06
4.61272e+06
4.61214e+06
4.61112e+06
4.6092e+06
4.60756e+06
4.63896e+06
4.60795e+06
4.60895e+06
4.6105e+06
4.61128e+06
4.61162e+06
4.61178e+06
4.61183e+06
4.61183e+06
0
4.61406e+06
4.61402e+06
4.61396e+06
4.61381e+06
4.61357e+06
4.61339e+06
4.61311e+06
4.61272e+06
4.61214e+06
4.61112e+06
4.6092e+06
4.60756e+06
4.63896e+06
4.60795e+06
4.60895e+06
4.6105e+06
4.61128e+06
4.61162e+06
4.61178e+06
4.61183e+06
0
0
4.61437e+06
4.61427e+06
4.61428e+06
4.61429e+06
4.61395e+06
4.61377e+06
4.61353e+06
4.61346e+06
4.61337e+06
4.61327e+06
4.61468e+06
4.62073e+06
4.63589e+06
4.62008e+06
4.61403e+06
4.61247e+06
4.61234e+06
4.61218e+06
4.61222e+06
4.6122e+06
0
-4.61437e+06
4.61437e+06
4.61427e+06
4.61428e+06
4.61429e+06
4.61395e+06
4.61377e+06
4.61353e+06
4.61346e+06
4.61337e+06
4.61327e+06
4.61468e+06
4.62073e+06
4.63589e+06
4.62008e+06
4.61403e+06
4.61247e+06
4.61234e+06
4.61218e+06
4.61222e+06
4.6122e+06
4.6122e+06
-4.61434e+06
4.61434e+06
4.61428e+06
4.61424e+06
4.61419e+06
4.6139e+06
4.61372e+06
4.61348e+06
4.61336e+06
4.61326e+06
4.61316e+06
4.61445e+06
4.62035e+06
4.63698e+06
4.61957e+06
4.61371e+06
4.61236e+06
4.612e+06
4.61207e+06
4.61218e+06
4.61216e+06
4.61216e+06
-4.61436e+06
4.61436e+06
4.61409e+06
4.61427e+06
4.61426e+06
4.61387e+06
4.61369e+06
4.61348e+06
4.6134e+06
4.6132e+06
4.61305e+06
4.61406e+06
4.61948e+06
4.63975e+06
4.6187e+06
4.61328e+06
4.61231e+06
4.61221e+06
4.61206e+06
4.61218e+06
4.61215e+06
4.61215e+06
-4.61436e+06
4.61436e+06
4.61446e+06
4.61427e+06
4.61425e+06
4.61389e+06
4.61366e+06
4.61344e+06
4.61335e+06
4.61302e+06
4.61286e+06
4.61346e+06
4.61782e+06
4.64645e+06
4.61719e+06
4.61271e+06
4.61211e+06
4.61217e+06
4.61207e+06
4.61215e+06
4.61213e+06
4.61213e+06
-4.61432e+06
4.61432e+06
4.61424e+06
4.61423e+06
4.61417e+06
4.614e+06
4.61369e+06
4.6134e+06
4.61322e+06
4.6129e+06
4.61263e+06
4.61266e+06
4.61554e+06
4.64977e+06
4.61495e+06
4.61199e+06
4.61188e+06
4.6121e+06
4.61204e+06
4.6121e+06
4.6121e+06
4.6121e+06
-4.61428e+06
4.61428e+06
4.61385e+06
4.61415e+06
4.61408e+06
4.61396e+06
4.6137e+06
4.61338e+06
4.61312e+06
4.61288e+06
4.61237e+06
4.6117e+06
4.61203e+06
4.65322e+06
4.6113e+06
4.6111e+06
4.61178e+06
4.61196e+06
4.612e+06
4.61205e+06
4.61207e+06
4.61207e+06
-4.61424e+06
4.61424e+06
4.61375e+06
4.6141e+06
4.61406e+06
4.61379e+06
4.61362e+06
4.61337e+06
4.61314e+06
4.61276e+06
4.61212e+06
4.61067e+06
4.60672e+06
4.64825e+06
4.60578e+06
4.61012e+06
4.61143e+06
4.61184e+06
4.61196e+06
4.61199e+06
4.61204e+06
4.61204e+06
-4.6142e+06
4.6142e+06
4.61419e+06
4.6141e+06
4.61403e+06
4.6137e+06
4.61355e+06
4.61335e+06
4.61313e+06
4.61259e+06
4.61189e+06
4.60975e+06
4.59971e+06
4.60965e+06
4.59869e+06
4.60919e+06
4.61105e+06
4.61174e+06
4.61192e+06
4.61193e+06
4.61202e+06
4.61202e+06
-4.61418e+06
4.61418e+06
4.61427e+06
4.61409e+06
4.61398e+06
4.61381e+06
4.61356e+06
4.61332e+06
4.61309e+06
4.6125e+06
4.61168e+06
4.60918e+06
4.59433e+06
4.51458e+06
4.59349e+06
4.60871e+06
4.61096e+06
4.61162e+06
4.61188e+06
4.61192e+06
4.61199e+06
4.61199e+06
-4.61417e+06
4.61417e+06
4.6141e+06
4.61406e+06
4.61395e+06
4.61382e+06
4.61356e+06
4.61329e+06
4.61296e+06
4.61245e+06
4.61152e+06
4.60918e+06
4.60058e+06
4.57022e+06
4.60037e+06
4.60885e+06
4.61094e+06
4.61154e+06
4.61181e+06
4.61197e+06
4.61195e+06
4.61195e+06
-4.61415e+06
4.61415e+06
4.61406e+06
4.61402e+06
4.61393e+06
4.61372e+06
4.61351e+06
4.61323e+06
4.61278e+06
4.61238e+06
4.61141e+06
4.60933e+06
4.60892e+06
4.70011e+06
4.60891e+06
4.60902e+06
4.61078e+06
4.61149e+06
4.6117e+06
4.61194e+06
4.61193e+06
4.61193e+06
-4.61412e+06
4.61412e+06
4.61411e+06
4.61401e+06
4.61389e+06
4.61366e+06
4.61348e+06
4.6132e+06
4.61278e+06
4.6123e+06
4.61131e+06
4.60932e+06
4.60708e+06
4.3541e+06
4.60751e+06
4.609e+06
4.6107e+06
4.61144e+06
4.61162e+06
4.61179e+06
4.61191e+06
4.61191e+06
-4.6141e+06
4.6141e+06
4.61409e+06
4.61401e+06
4.61386e+06
4.61367e+06
4.61346e+06
4.61317e+06
4.61282e+06
4.61223e+06
4.61124e+06
4.60925e+06
4.60604e+06
4.60296e+06
4.60644e+06
4.60899e+06
4.61064e+06
4.61136e+06
4.61165e+06
4.61168e+06
4.61188e+06
4.61188e+06
-4.61408e+06
4.61408e+06
4.61404e+06
4.614e+06
4.61384e+06
4.61363e+06
4.61343e+06
4.61315e+06
4.61277e+06
4.61218e+06
4.61118e+06
4.60919e+06
4.60542e+06
4.62176e+06
4.60579e+06
4.60898e+06
4.61057e+06
4.61132e+06
4.61167e+06
4.61175e+06
4.61186e+06
4.61186e+06
-4.61409e+06
4.61409e+06
4.61404e+06
4.61399e+06
4.61384e+06
4.61361e+06
4.61342e+06
4.61314e+06
4.61274e+06
4.61217e+06
4.61116e+06
4.6092e+06
4.60609e+06
4.63934e+06
4.60652e+06
4.60895e+06
4.61055e+06
4.61131e+06
4.61165e+06
4.61183e+06
4.61186e+06
4.61186e+06
0
4.61409e+06
4.61404e+06
4.61399e+06
4.61384e+06
4.61361e+06
4.61342e+06
4.61314e+06
4.61274e+06
4.61217e+06
4.61116e+06
4.6092e+06
4.60609e+06
4.63934e+06
4.60652e+06
4.60895e+06
4.61055e+06
4.61131e+06
4.61165e+06
4.61183e+06
4.61186e+06
0
0
4.61439e+06
4.61452e+06
4.6143e+06
4.61415e+06
4.614e+06
4.61378e+06
4.61355e+06
4.61332e+06
4.61314e+06
4.6133e+06
4.6147e+06
4.62069e+06
4.63643e+06
4.62024e+06
4.6141e+06
4.61246e+06
4.61215e+06
4.61222e+06
4.61222e+06
4.61221e+06
0
-4.61439e+06
4.61439e+06
4.61452e+06
4.6143e+06
4.61415e+06
4.614e+06
4.61378e+06
4.61355e+06
4.61332e+06
4.61314e+06
4.6133e+06
4.6147e+06
4.62069e+06
4.63643e+06
4.62024e+06
4.6141e+06
4.61246e+06
4.61215e+06
4.61222e+06
4.61222e+06
4.61221e+06
4.61221e+06
-4.61434e+06
4.61434e+06
4.61453e+06
4.61424e+06
4.61407e+06
4.61393e+06
4.61373e+06
4.6135e+06
4.61324e+06
4.61311e+06
4.61319e+06
4.61447e+06
4.62035e+06
4.63817e+06
4.61973e+06
4.61379e+06
4.61235e+06
4.61169e+06
4.61209e+06
4.61216e+06
4.61216e+06
4.61216e+06
-4.61437e+06
4.61437e+06
4.61442e+06
4.61426e+06
4.61416e+06
4.61386e+06
4.61371e+06
4.61349e+06
4.61331e+06
4.61317e+06
4.61308e+06
4.61409e+06
4.61968e+06
4.64247e+06
4.6189e+06
4.61334e+06
4.61225e+06
4.61201e+06
4.61203e+06
4.61215e+06
4.61214e+06
4.61214e+06
-4.61437e+06
4.61437e+06
4.61445e+06
4.61428e+06
4.61422e+06
4.61379e+06
4.61365e+06
4.61347e+06
4.61334e+06
4.61307e+06
4.6129e+06
4.61351e+06
4.61833e+06
4.65117e+06
4.6175e+06
4.61273e+06
4.61216e+06
4.61217e+06
4.61205e+06
4.61215e+06
4.61213e+06
4.61213e+06
-4.61436e+06
4.61436e+06
4.61445e+06
4.61428e+06
4.61419e+06
4.61391e+06
4.61363e+06
4.61342e+06
4.61327e+06
4.61287e+06
4.61266e+06
4.61272e+06
4.61589e+06
4.66073e+06
4.61522e+06
4.61198e+06
4.61181e+06
4.61213e+06
4.61204e+06
4.61211e+06
4.61211e+06
4.61211e+06
-4.61432e+06
4.61432e+06
4.61432e+06
4.61422e+06
4.6141e+06
4.61404e+06
4.6137e+06
4.61338e+06
4.61311e+06
4.61281e+06
4.6124e+06
4.61174e+06
4.61199e+06
4.67699e+06
4.61131e+06
4.61108e+06
4.61167e+06
4.61197e+06
4.61199e+06
4.61207e+06
4.61208e+06
4.61208e+06
-4.61426e+06
4.61426e+06
4.61377e+06
4.61411e+06
4.61405e+06
4.61394e+06
4.61369e+06
4.61336e+06
4.61308e+06
4.61279e+06
4.61214e+06
4.61064e+06
4.60538e+06
4.69631e+06
4.60439e+06
4.61006e+06
4.61154e+06
4.61183e+06
4.61195e+06
4.61202e+06
4.61205e+06
4.61205e+06
-4.61421e+06
4.61421e+06
4.61389e+06
4.61406e+06
4.61404e+06
4.61367e+06
4.61357e+06
4.61334e+06
4.61311e+06
4.61266e+06
4.61191e+06
4.60958e+06
4.59373e+06
4.66292e+06
4.59235e+06
4.60897e+06
4.61125e+06
4.61175e+06
4.61192e+06
4.61193e+06
4.61202e+06
4.61202e+06
-4.61418e+06
4.61418e+06
4.61429e+06
4.61408e+06
4.61399e+06
4.61366e+06
4.61353e+06
4.61332e+06
4.6131e+06
4.6125e+06
4.61171e+06
4.60891e+06
4.5784e+06
3.94595e+06
4.57692e+06
4.60834e+06
4.61086e+06
4.61164e+06
4.61189e+06
4.61187e+06
4.61199e+06
4.61199e+06
-4.61417e+06
4.61417e+06
4.61424e+06
4.61408e+06
4.61395e+06
4.61381e+06
4.61355e+06
4.6133e+06
4.61305e+06
4.61244e+06
4.61156e+06
4.60921e+06
4.59472e+06
4.13401e+06
4.59513e+06
4.60887e+06
4.61094e+06
4.61155e+06
4.61186e+06
4.61191e+06
4.61196e+06
4.61196e+06
-4.61416e+06
4.61416e+06
4.61405e+06
4.61402e+06
4.61393e+06
4.61379e+06
4.61353e+06
4.61326e+06
4.61286e+06
4.61239e+06
4.61145e+06
4.60945e+06
4.60619e+06
4.61584e+06
4.60622e+06
4.60922e+06
4.61085e+06
4.6115e+06
4.61176e+06
4.612e+06
4.61193e+06
4.61193e+06
-4.61414e+06
4.61414e+06
4.61407e+06
4.61399e+06
4.61391e+06
4.61369e+06
4.61348e+06
4.6132e+06
4.61272e+06
4.61232e+06
4.61136e+06
4.60938e+06
4.58924e+06
3.93471e+06
4.59005e+06
4.60916e+06
4.61073e+06
4.61143e+06
4.61161e+06
4.61196e+06
4.61191e+06
4.61191e+06
-4.61412e+06
4.61412e+06
4.61412e+06
4.614e+06
4.61387e+06
4.61368e+06
4.61346e+06
4.61317e+06
4.61278e+06
4.61225e+06
4.61129e+06
4.60924e+06
4.59739e+06
4.61554e+06
4.598e+06
4.60895e+06
4.61069e+06
4.61134e+06
4.61158e+06
4.61176e+06
4.6119e+06
4.6119e+06
-4.6141e+06
4.6141e+06
4.61409e+06
4.614e+06
4.61385e+06
4.61367e+06
4.61345e+06
4.61316e+06
4.6128e+06
4.61221e+06
4.61123e+06
4.60917e+06
4.59988e+06
4.61632e+06
4.60035e+06
4.6089e+06
4.61064e+06
4.61132e+06
4.61165e+06
4.61171e+06
4.61188e+06
4.61188e+06
-4.61411e+06
4.61411e+06
4.61406e+06
4.61401e+06
4.61386e+06
4.61364e+06
4.61345e+06
4.61316e+06
4.61277e+06
4.6122e+06
4.61122e+06
4.60922e+06
4.60371e+06
4.64442e+06
4.60404e+06
4.609e+06
4.6106e+06
4.61136e+06
4.6117e+06
4.61183e+06
4.61188e+06
4.61188e+06
0
4.61411e+06
4.61406e+06
4.61401e+06
4.61386e+06
4.61364e+06
4.61345e+06
4.61316e+06
4.61277e+06
4.6122e+06
4.61122e+06
4.60922e+06
4.60371e+06
4.64442e+06
4.60404e+06
4.609e+06
4.6106e+06
4.61136e+06
4.6117e+06
4.61183e+06
4.61188e+06
0
0
4.61442e+06
4.61453e+06
4.61433e+06
4.61421e+06
4.61403e+06
4.6138e+06
4.61357e+06
4.61336e+06
4.61321e+06
4.61332e+06
4.61474e+06
4.62067e+06
4.63623e+06
4.62034e+06
4.61418e+06
4.61247e+06
4.61232e+06
4.61225e+06
4.61223e+06
4.61222e+06
0
-4.61442e+06
4.61442e+06
4.61453e+06
4.61433e+06
4.61421e+06
4.61403e+06
4.6138e+06
4.61357e+06
4.61336e+06
4.61321e+06
4.61332e+06
4.61474e+06
4.62067e+06
4.63623e+06
4.62034e+06
4.61418e+06
4.61247e+06
4.61232e+06
4.61225e+06
4.61223e+06
4.61222e+06
4.61222e+06
-4.61437e+06
4.61437e+06
4.61452e+06
4.61427e+06
4.61415e+06
4.614e+06
4.61374e+06
4.61351e+06
4.6133e+06
4.61313e+06
4.61322e+06
4.61451e+06
4.62034e+06
4.63819e+06
4.61985e+06
4.61387e+06
4.61241e+06
4.61198e+06
4.61215e+06
4.61217e+06
4.61217e+06
4.61217e+06
-4.61436e+06
4.61436e+06
4.61449e+06
4.61425e+06
4.61411e+06
4.61392e+06
4.61372e+06
4.61348e+06
4.61325e+06
4.61309e+06
4.61309e+06
4.61413e+06
4.61968e+06
4.6428e+06
4.61904e+06
4.61342e+06
4.61221e+06
4.61179e+06
4.61204e+06
4.61214e+06
4.61215e+06
4.61215e+06
-4.61437e+06
4.61437e+06
4.61447e+06
4.61426e+06
4.61415e+06
4.61375e+06
4.61369e+06
4.61347e+06
4.61326e+06
4.61308e+06
4.61292e+06
4.61357e+06
4.61852e+06
4.65159e+06
4.61768e+06
4.61283e+06
4.61214e+06
4.61209e+06
4.61202e+06
4.61213e+06
4.61213e+06
4.61213e+06
-4.61437e+06
4.61437e+06
4.61444e+06
4.61427e+06
4.61417e+06
4.61371e+06
4.61362e+06
4.61344e+06
4.61327e+06
4.61293e+06
4.61271e+06
4.61282e+06
4.61632e+06
4.6674e+06
4.61541e+06
4.61208e+06
4.61194e+06
4.61213e+06
4.61202e+06
4.61211e+06
4.61211e+06
4.61211e+06
-4.61435e+06
4.61435e+06
4.61443e+06
4.61426e+06
4.61412e+06
4.61394e+06
4.61363e+06
4.61339e+06
4.61317e+06
4.61276e+06
4.61245e+06
4.61186e+06
4.61231e+06
4.70156e+06
4.61149e+06
4.6112e+06
4.61161e+06
4.612e+06
4.61199e+06
4.61208e+06
4.61209e+06
4.61209e+06
-4.61431e+06
4.61431e+06
4.61422e+06
4.61419e+06
4.61405e+06
4.61407e+06
4.61369e+06
4.61335e+06
4.61305e+06
4.61274e+06
4.61218e+06
4.61073e+06
4.60475e+06
4.78795e+06
4.60374e+06
4.61015e+06
4.61154e+06
4.61182e+06
4.61194e+06
4.61204e+06
4.61205e+06
4.61205e+06
-4.61425e+06
4.61425e+06
4.61383e+06
4.61408e+06
4.61403e+06
4.6139e+06
4.61365e+06
4.61334e+06
4.61305e+06
4.6127e+06
4.61195e+06
4.60956e+06
4.58682e+06
4.99834e+06
4.58498e+06
4.60892e+06
4.61137e+06
4.61171e+06
4.6119e+06
4.61197e+06
4.61202e+06
4.61202e+06
-4.61419e+06
4.61419e+06
4.61406e+06
4.61406e+06
4.61401e+06
4.61359e+06
4.61354e+06
4.61332e+06
4.61306e+06
4.61256e+06
4.61176e+06
4.60871e+06
4.52611e+06
4.13883e+06
4.52186e+06
4.60798e+06
4.611e+06
4.61163e+06
4.61188e+06
4.61187e+06
4.61199e+06
4.61199e+06
-4.61417e+06
4.61417e+06
4.61429e+06
4.61409e+06
4.61396e+06
4.61367e+06
4.61353e+06
4.61331e+06
4.61305e+06
4.61245e+06
4.61163e+06
4.60969e+06
4.57674e+06
4.09363e+06
4.57773e+06
4.60931e+06
4.61089e+06
4.6116e+06
4.61186e+06
4.61182e+06
4.61197e+06
4.61197e+06
-4.61417e+06
4.61417e+06
4.61418e+06
4.61407e+06
4.61393e+06
4.61379e+06