# vtk DataFile Version 3.0
FlowField
ASCII
DATASET STRUCTURED_GRID
DIMENSIONS 102 12 1 
POINTS 1224 double
0 0 0
0.3 0 0
0.6 0 0
0.9 0 0
1.2 0 0
1.5 0 0
1.8 0 0
2.1 0 0
2.4 0 0
2.7 0 0
3 0 0
3.3 0 0
3.6 0 0
3.9 0 0
4.2 0 0
4.5 0 0
4.8 0 0
5.1 0 0
5.4 0 0
5.7 0 0
6 0 0
6.3 0 0
6.6 0 0
6.9 0 0
7.2 0 0
7.5 0 0
7.8 0 0
8.1 0 0
8.4 0 0
8.7 0 0
9 0 0
9.3 0 0
9.6 0 0
9.9 0 0
10.2 0 0
10.5 0 0
10.8 0 0
11.1 0 0
11.4 0 0
11.7 0 0
12 0 0
12.3 0 0
12.6 0 0
12.9 0 0
13.2 0 0
13.5 0 0
13.8 0 0
14.1 0 0
14.4 0 0
14.7 0 0
15 0 0
15.3 0 0
15.6 0 0
15.9 0 0
16.2 0 0
16.5 0 0
16.8 0 0
17.1 0 0
17.4 0 0
17.7 0 0
18 0 0
18.3 0 0
18.6 0 0
18.9 0 0
19.2 0 0
19.5 0 0
19.8 0 0
20.1 0 0
20.4 0 0
20.7 0 0
21 0 0
21.3 0 0
21.6 0 0
21.9 0 0
22.2 0 0
22.5 0 0
22.8 0 0
23.1 0 0
23.4 0 0
23.7 0 0
24 0 0
24.3 0 0
24.6 0 0
24.9 0 0
25.2 0 0
25.5 0 0
25.8 0 0
26.1 0 0
26.4 0 0
26.7 0 0
27 0 0
27.3 0 0
27.6 0 0
27.9 0 0
28.2 0 0
28.5 0 0
28.8 0 0
29.1 0 0
29.4 0 0
29.7 0 0
30 0 0
30.3 0 0
0 0.1 0
0.3 0.1 0
0.6 0.1 0
0.9 0.1 0
1.2 0.1 0
1.5 0.1 0
1.8 0.1 0
2.1 0.1 0
2.4 0.1 0
2.7 0.1 0
3 0.1 0
3.3 0.1 0
3.6 0.1 0
3.9 0.1 0
4.2 0.1 0
4.5 0.1 0
4.8 0.1 0
5.1 0.1 0
5.4 0.1 0
5.7 0.1 0
6 0.1 0
6.3 0.1 0
6.6 0.1 0
6.9 0.1 0
7.2 0.1 0
7.5 0.1 0
7.8 0.1 0
8.1 0.1 0
8.4 0.1 0
8.7 0.1 0
9 0.1 0
9.3 0.1 0
9.6 0.1 0
9.9 0.1 0
10.2 0.1 0
10.5 0.1 0
10.8 0.1 0
11.1 0.1 0
11.4 0.1 0
11.7 0.1 0
12 0.1 0
12.3 0.1 0
12.6 0.1 0
12.9 0.1 0
13.2 0.1 0
13.5 0.1 0
13.8 0.1 0
14.1 0.1 0
14.4 0.1 0
14.7 0.1 0
15 0.1 0
15.3 0.1 0
15.6 0.1 0
15.9 0.1 0
16.2 0.1 0
16.5 0.1 0
16.8 0.1 0
17.1 0.1 0
17.4 0.1 0
17.7 0.1 0
18 0.1 0
18.3 0.1 0
18.6 0.1 0
18.9 0.1 0
19.2 0.1 0
19.5 0.1 0
19.8 0.1 0
20.1 0.1 0
20.4 0.1 0
20.7 0.1 0
21 0.1 0
21.3 0.1 0
21.6 0.1 0
21.9 0.1 0
22.2 0.1 0
22.5 0.1 0
22.8 0.1 0
23.1 0.1 0
23.4 0.1 0
23.7 0.1 0
24 0.1 0
24.3 0.1 0
24.6 0.1 0
24.9 0.1 0
25.2 0.1 0
25.5 0.1 0
25.8 0.1 0
26.1 0.1 0
26.4 0.1 0
26.7 0.1 0
27 0.1 0
27.3 0.1 0
27.6 0.1 0
27.9 0.1 0
28.2 0.1 0
28.5 0.1 0
28.8 0.1 0
29.1 0.1 0
29.4 0.1 0
29.7 0.1 0
30 0.1 0
30.3 0.1 0
0 0.2 0
0.3 0.2 0
0.6 0.2 0
0.9 0.2 0
1.2 0.2 0
1.5 0.2 0
1.8 0.2 0
2.1 0.2 0
2.4 0.2 0
2.7 0.2 0
3 0.2 0
3.3 0.2 0
3.6 0.2 0
3.9 0.2 0
4.2 0.2 0
4.5 0.2 0
4.8 0.2 0
5.1 0.2 0
5.4 0.2 0
5.7 0.2 0
6 0.2 0
6.3 0.2 0
6.6 0.2 0
6.9 0.2 0
7.2 0.2 0
7.5 0.2 0
7.8 0.2 0
8.1 0.2 0
8.4 0.2 0
8.7 0.2 0
9 0.2 0
9.3 0.2 0
9.6 0.2 0
9.9 0.2 0
10.2 0.2 0
10.5 0.2 0
10.8 0.2 0
11.1 0.2 0
11.4 0.2 0
11.7 0.2 0
12 0.2 0
12.3 0.2 0
12.6 0.2 0
12.9 0.2 0
13.2 0.2 0
13.5 0.2 0
13.8 0.2 0
14.1 0.2 0
14.4 0.2 0
14.7 0.2 0
15 0.2 0
15.3 0.2 0
15.6 0.2 0
15.9 0.2 0
16.2 0.2 0
16.5 0.2 0
16.8 0.2 0
17.1 0.2 0
17.4 0.2 0
17.7 0.2 0
18 0.2 0
18.3 0.2 0
18.6 0.2 0
18.9 0.2 0
19.2 0.2 0
19.5 0.2 0
19.8 0.2 0
20.1 0.2 0
20.4 0.2 0
20.7 0.2 0
21 0.2 0
21.3 0.2 0
21.6 0.2 0
21.9 0.2 0
22.2 0.2 0
22.5 0.2 0
22.8 0.2 0
23.1 0.2 0
23.4 0.2 0
23.7 0.2 0
24 0.2 0
24.3 0.2 0
24.6 0.2 0
24.9 0.2 0
25.2 0.2 0
25.5 0.2 0
25.8 0.2 0
26.1 0.2 0
26.4 0.2 0
26.7 0.2 0
27 0.2 0
27.3 0.2 0
27.6 0.2 0
27.9 0.2 0
28.2 0.2 0
28.5 0.2 0
28.8 0.2 0
29.1 0.2 0
29.4 0.2 0
29.7 0.2 0
30 0.2 0
30.3 0.2 0
0 0.3 0
0.3 0.3 0
0.6 0.3 0
0.9 0.3 0
1.2 0.3 0
1.5 0.3 0
1.8 0.3 0
2.1 0.3 0
2.4 0.3 0
2.7 0.3 0
3 0.3 0
3.3 0.3 0
3.6 0.3 0
3.9 0.3 0
4.2 0.3 0
4.5 0.3 0
4.8 0.3 0
5.1 0.3 0
5.4 0.3 0
5.7 0.3 0
6 0.3 0
6.3 0.3 0
6.6 0.3 0
6.9 0.3 0
7.2 0.3 0
7.5 0.3 0
7.8 0.3 0
8.1 0.3 0
8.4 0.3 0
8.7 0.3 0
9 0.3 0
9.3 0.3 0
9.6 0.3 0
9.9 0.3 0
10.2 0.3 0
10.5 0.3 0
10.8 0.3 0
11.1 0.3 0
11.4 0.3 0
11.7 0.3 0
12 0.3 0
12.3 0.3 0
12.6 0.3 0
12.9 0.3 0
13.2 0.3 0
13.5 0.3 0
13.8 0.3 0
14.1 0.3 0
14.4 0.3 0
14.7 0.3 0
15 0.3 0
15.3 0.3 0
15.6 0.3 0
15.9 0.3 0
16.2 0.3 0
16.5 0.3 0
16.8 0.3 0
17.1 0.3 0
17.4 0.3 0
17.7 0.3 0
18 0.3 0
18.3 0.3 0
18.6 0.3 0
18.9 0.3 0
19.2 0.3 0
19.5 0.3 0
19.8 0.3 0
20.1 0.3 0
20.4 0.3 0
20.7 0.3 0
21 0.3 0
21.3 0.3 0
21.6 0.3 0
21.9 0.3 0
22.2 0.3 0
22.5 0.3 0
22.8 0.3 0
23.1 0.3 0
23.4 0.3 0
23.7 0.3 0
24 0.3 0
24.3 0.3 0
24.6 0.3 0
24.9 0.3 0
25.2 0.3 0
25.5 0.3 0
25.8 0.3 0
26.1 0.3 0
26.4 0.3 0
26.7 0.3 0
27 0.3 0
27.3 0.3 0
27.6 0.3 0
27.9 0.3 0
28.2 0.3 0
28.5 0.3 0
28.8 0.3 0
29.1 0.3 0
29.4 0.3 0
29.7 0.3 0
30 0.3 0
30.3 0.3 0
0 0.4 0
0.3 0.4 0
0.6 0.4 0
0.9 0.4 0
1.2 0.4 0
1.5 0.4 0
1.8 0.4 0
2.1 0.4 0
2.4 0.4 0
2.7 0.4 0
3 0.4 0
3.3 0.4 0
3.6 0.4 0
3.9 0.4 0
4.2 0.4 0
4.5 0.4 0
4.8 0.4 0
5.1 0.4 0
5.4 0.4 0
5.7 0.4 0
6 0.4 0
6.3 0.4 0
6.6 0.4 0
6.9 0.4 0
7.2 0.4 0
7.5 0.4 0
7.8 0.4 0
8.1 0.4 0
8.4 0.4 0
8.7 0.4 0
9 0.4 0
9.3 0.4 0
9.6 0.4 0
9.9 0.4 0
10.2 0.4 0
10.5 0.4 0
10.8 0.4 0
11.1 0.4 0
11.4 0.4 0
11.7 0.4 0
12 0.4 0
12.3 0.4 0
12.6 0.4 0
12.9 0.4 0
13.2 0.4 0
13.5 0.4 0
13.8 0.4 0
14.1 0.4 0
14.4 0.4 0
14.7 0.4 0
15 0.4 0
15.3 0.4 0
15.6 0.4 0
15.9 0.4 0
16.2 0.4 0
16.5 0.4 0
16.8 0.4 0
17.1 0.4 0
17.4 0.4 0
17.7 0.4 0
18 0.4 0
18.3 0.4 0
18.6 0.4 0
18.9 0.4 0
19.2 0.4 0
19.5 0.4 0
19.8 0.4 0
20.1 0.4 0
20.4 0.4 0
20.7 0.4 0
21 0.4 0
21.3 0.4 0
21.6 0.4 0
21.9 0.4 0
22.2 0.4 0
22.5 0.4 0
22.8 0.4 0
23.1 0.4 0
23.4 0.4 0
23.7 0.4 0
24 0.4 0
24.3 0.4 0
24.6 0.4 0
24.9 0.4 0
25.2 0.4 0
25.5 0.4 0
25.8 0.4 0
26.1 0.4 0
26.4 0.4 0
26.7 0.4 0
27 0.4 0
27.3 0.4 0
27.6 0.4 0
27.9 0.4 0
28.2 0.4 0
28.5 0.4 0
28.8 0.4 0
29.1 0.4 0
29.4 0.4 0
29.7 0.4 0
30 0.4 0
30.3 0.4 0
0 0.5 0
0.3 0.5 0
0.6 0.5 0
0.9 0.5 0
1.2 0.5 0
1.5 0.5 0
1.8 0.5 0
2.1 0.5 0
2.4 0.5 0
2.7 0.5 0
3 0.5 0
3.3 0.5 0
3.6 0.5 0
3.9 0.5 0
4.2 0.5 0
4.5 0.5 0
4.8 0.5 0
5.1 0.5 0
5.4 0.5 0
5.7 0.5 0
6 0.5 0
6.3 0.5 0
6.6 0.5 0
6.9 0.5 0
7.2 0.5 0
7.5 0.5 0
7.8 0.5 0
8.1 0.5 0
8.4 0.5 0
8.7 0.5 0
9 0.5 0
9.3 0.5 0
9.6 0.5 0
9.9 0.5 0
10.2 0.5 0
10.5 0.5 0
10.8 0.5 0
11.1 0.5 0
11.4 0.5 0
11.7 0.5 0
12 0.5 0
12.3 0.5 0
12.6 0.5 0
12.9 0.5 0
13.2 0.5 0
13.5 0.5 0
13.8 0.5 0
14.1 0.5 0
14.4 0.5 0
14.7 0.5 0
15 0.5 0
15.3 0.5 0
15.6 0.5 0
15.9 0.5 0
16.2 0.5 0
16.5 0.5 0
16.8 0.5 0
17.1 0.5 0
17.4 0.5 0
17.7 0.5 0
18 0.5 0
18.3 0.5 0
18.6 0.5 0
18.9 0.5 0
19.2 0.5 0
19.5 0.5 0
19.8 0.5 0
20.1 0.5 0
20.4 0.5 0
20.7 0.5 0
21 0.5 0
21.3 0.5 0
21.6 0.5 0
21.9 0.5 0
22.2 0.5 0
22.5 0.5 0
22.8 0.5 0
23.1 0.5 0
23.4 0.5 0
23.7 0.5 0
24 0.5 0
24.3 0.5 0
24.6 0.5 0
24.9 0.5 0
25.2 0.5 0
25.5 0.5 0
25.8 0.5 0
26.1 0.5 0
26.4 0.5 0
26.7 0.5 0
27 0.5 0
27.3 0.5 0
27.6 0.5 0
27.9 0.5 0
28.2 0.5 0
28.5 0.5 0
28.8 0.5 0
29.1 0.5 0
29.4 0.5 0
29.7 0.5 0
30 0.5 0
30.3 0.5 0
0 0.6 0
0.3 0.6 0
0.6 0.6 0
0.9 0.6 0
1.2 0.6 0
1.5 0.6 0
1.8 0.6 0
2.1 0.6 0
2.4 0.6 0
2.7 0.6 0
3 0.6 0
3.3 0.6 0
3.6 0.6 0
3.9 0.6 0
4.2 0.6 0
4.5 0.6 0
4.8 0.6 0
5.1 0.6 0
5.4 0.6 0
5.7 0.6 0
6 0.6 0
6.3 0.6 0
6.6 0.6 0
6.9 0.6 0
7.2 0.6 0
7.5 0.6 0
7.8 0.6 0
8.1 0.6 0
8.4 0.6 0
8.7 0.6 0
9 0.6 0
9.3 0.6 0
9.6 0.6 0
9.9 0.6 0
10.2 0.6 0
10.5 0.6 0
10.8 0.6 0
11.1 0.6 0
11.4 0.6 0
11.7 0.6 0
12 0.6 0
12.3 0.6 0
12.6 0.6 0
12.9 0.6 0
13.2 0.6 0
13.5 0.6 0
13.8 0.6 0
14.1 0.6 0
14.4 0.6 0
14.7 0.6 0
15 0.6 0
15.3 0.6 0
15.6 0.6 0
15.9 0.6 0
16.2 0.6 0
16.5 0.6 0
16.8 0.6 0
17.1 0.6 0
17.4 0.6 0
17.7 0.6 0
18 0.6 0
18.3 0.6 0
18.6 0.6 0
18.9 0.6 0
19.2 0.6 0
19.5 0.6 0
19.8 0.6 0
20.1 0.6 0
20.4 0.6 0
20.7 0.6 0
21 0.6 0
21.3 0.6 0
21.6 0.6 0
21.9 0.6 0
22.2 0.6 0
22.5 0.6 0
22.8 0.6 0
23.1 0.6 0
23.4 0.6 0
23.7 0.6 0
24 0.6 0
24.3 0.6 0
24.6 0.6 0
24.9 0.6 0
25.2 0.6 0
25.5 0.6 0
25.8 0.6 0
26.1 0.6 0
26.4 0.6 0
26.7 0.6 0
27 0.6 0
27.3 0.6 0
27.6 0.6 0
27.9 0.6 0
28.2 0.6 0
28.5 0.6 0
28.8 0.6 0
29.1 0.6 0
29.4 0.6 0
29.7 0.6 0
30 0.6 0
30.3 0.6 0
0 0.7 0
0.3 0.7 0
0.6 0.7 0
0.9 0.7 0
1.2 0.7 0
1.5 0.7 0
1.8 0.7 0
2.1 0.7 0
2.4 0.7 0
2.7 0.7 0
3 0.7 0
3.3 0.7 0
3.6 0.7 0
3.9 0.7 0
4.2 0.7 0
4.5 0.7 0
4.8 0.7 0
5.1 0.7 0
5.4 0.7 0
5.7 0.7 0
6 0.7 0
6.3 0.7 0
6.6 0.7 0
6.9 0.7 0
7.2 0.7 0
7.5 0.7 0
7.8 0.7 0
8.1 0.7 0
8.4 0.7 0
8.7 0.7 0
9 0.7 0
9.3 0.7 0
9.6 0.7 0
9.9 0.7 0
10.2 0.7 0
10.5 0.7 0
10.8 0.7 0
11.1 0.7 0
11.4 0.7 0
11.7 0.7 0
12 0.7 0
12.3 0.7 0
12.6 0.7 0
12.9 0.7 0
13.2 0.7 0
13.5 0.7 0
13.8 0.7 0
14.1 0.7 0
14.4 0.7 0
14.7 0.7 0
15 0.7 0
15.3 0.7 0
15.6 0.7 0
15.9 0.7 0
16.2 0.7 0
16.5 0.7 0
16.8 0.7 0
17.1 0.7 0
17.4 0.7 0
17.7 0.7 0
18 0.7 0
18.3 0.7 0
18.6 0.7 0
18.9 0.7 0
19.2 0.7 0
19.5 0.7 0
19.8 0.7 0
20.1 0.7 0
20.4 0.7 0
20.7 0.7 0
21 0.7 0
21.3 0.7 0
21.6 0.7 0
21.9 0.7 0
22.2 0.7 0
22.5 0.7 0
22.8 0.7 0
23.1 0.7 0
23.4 0.7 0
23.7 0.7 0
24 0.7 0
24.3 0.7 0
24.6 0.7 0
24.9 0.7 0
25.2 0.7 0
25.5 0.7 0
25.8 0.7 0
26.1 0.7 0
26.4 0.7 0
26.7 0.7 0
27 0.7 0
27.3 0.7 0
27.6 0.7 0
27.9 0.7 0
28.2 0.7 0
28.5 0.7 0
28.8 0.7 0
29.1 0.7 0
29.4 0.7 0
29.7 0.7 0
30 0.7 0
30.3 0.7 0
0 0.8 0
0.3 0.8 0
0.6 0.8 0
0.9 0.8 0
1.2 0.8 0
1.5 0.8 0
1.8 0.8 0
2.1 0.8 0
2.4 0.8 0
2.7 0.8 0
3 0.8 0
3.3 0.8 0
3.6 0.8 0
3.9 0.8 0
4.2 0.8 0
4.5 0.8 0
4.8 0.8 0
5.1 0.8 0
5.4 0.8 0
5.7 0.8 0
6 0.8 0
6.3 0.8 0
6.6 0.8 0
6.9 0.8 0
7.2 0.8 0
7.5 0.8 0
7.8 0.8 0
8.1 0.8 0
8.4 0.8 0
8.7 0.8 0
9 0.8 0
9.3 0.8 0
9.6 0.8 0
9.9 0.8 0
10.2 0.8 0
10.5 0.8 0
10.8 0.8 0
11.1 0.8 0
11.4 0.8 0
11.7 0.8 0
12 0.8 0
12.3 0.8 0
12.6 0.8 0
12.9 0.8 0
13.2 0.8 0
13.5 0.8 0
13.8 0.8 0
14.1 0.8 0
14.4 0.8 0
14.7 0.8 0
15 0.8 0
15.3 0.8 0
15.6 0.8 0
15.9 0.8 0
16.2 0.8 0
16.5 0.8 0
16.8 0.8 0
17.1 0.8 0
17.4 0.8 0
17.7 0.8 0
18 0.8 0
18.3 0.8 0
18.6 0.8 0
18.9 0.8 0
19.2 0.8 0
19.5 0.8 0
19.8 0.8 0
20.1 0.8 0
20.4 0.8 0
20.7 0.8 0
21 0.8 0
21.3 0.8 0
21.6 0.8 0
21.9 0.8 0
22.2 0.8 0
22.5 0.8 0
22.8 0.8 0
23.1 0.8 0
23.4 0.8 0
23.7 0.8 0
24 0.8 0
24.3 0.8 0
24.6 0.8 0
24.9 0.8 0
25.2 0.8 0
25.5 0.8 0
25.8 0.8 0
26.1 0.8 0
26.4 0.8 0
26.7 0.8 0
27 0.8 0
27.3 0.8 0
27.6 0.8 0
27.9 0.8 0
28.2 0.8 0
28.5 0.8 0
28.8 0.8 0
29.1 0.8 0
29.4 0.8 0
29.7 0.8 0
30 0.8 0
30.3 0.8 0
0 0.9 0
0.3 0.9 0
0.6 0.9 0
0.9 0.9 0
1.2 0.9 0
1.5 0.9 0
1.8 0.9 0
2.1 0.9 0
2.4 0.9 0
2.7 0.9 0
3 0.9 0
3.3 0.9 0
3.6 0.9 0
3.9 0.9 0
4.2 0.9 0
4.5 0.9 0
4.8 0.9 0
5.1 0.9 0
5.4 0.9 0
5.7 0.9 0
6 0.9 0
6.3 0.9 0
6.6 0.9 0
6.9 0.9 0
7.2 0.9 0
7.5 0.9 0
7.8 0.9 0
8.1 0.9 0
8.4 0.9 0
8.7 0.9 0
9 0.9 0
9.3 0.9 0
9.6 0.9 0
9.9 0.9 0
10.2 0.9 0
10.5 0.9 0
10.8 0.9 0
11.1 0.9 0
11.4 0.9 0
11.7 0.9 0
12 0.9 0
12.3 0.9 0
12.6 0.9 0
12.9 0.9 0
13.2 0.9 0
13.5 0.9 0
13.8 0.9 0
14.1 0.9 0
14.4 0.9 0
14.7 0.9 0
15 0.9 0
15.3 0.9 0
15.6 0.9 0
15.9 0.9 0
16.2 0.9 0
16.5 0.9 0
16.8 0.9 0
17.1 0.9 0
17.4 0.9 0
17.7 0.9 0
18 0.9 0
18.3 0.9 0
18.6 0.9 0
18.9 0.9 0
19.2 0.9 0
19.5 0.9 0
19.8 0.9 0
20.1 0.9 0
20.4 0.9 0
20.7 0.9 0
21 0.9 0
21.3 0.9 0
21.6 0.9 0
21.9 0.9 0
22.2 0.9 0
22.5 0.9 0
22.8 0.9 0
23.1 0.9 0
23.4 0.9 0
23.7 0.9 0
24 0.9 0
24.3 0.9 0
24.6 0.9 0
24.9 0.9 0
25.2 0.9 0
25.5 0.9 0
25.8 0.9 0
26.1 0.9 0
26.4 0.9 0
26.7 0.9 0
27 0.9 0
27.3 0.9 0
27.6 0.9 0
27.9 0.9 0
28.2 0.9 0
28.5 0.9 0
28.8 0.9 0
29.1 0.9 0
29.4 0.9 0
29.7 0.9 0
30 0.9 0
30.3 0.9 0
0 1 0
0.3 1 0
0.6 1 0
0.9 1 0
1.2 1 0
1.5 1 0
1.8 1 0
2.1 1 0
2.4 1 0
2.7 1 0
3 1 0
3.3 1 0
3.6 1 0
3.9 1 0
4.2 1 0
4.5 1 0
4.8 1 0
5.1 1 0
5.4 1 0
5.7 1 0
6 1 0
6.3 1 0
6.6 1 0
6.9 1 0
7.2 1 0
7.5 1 0
7.8 1 0
8.1 1 0
8.4 1 0
8.7 1 0
9 1 0
9.3 1 0
9.6 1 0
9.9 1 0
10.2 1 0
10.5 1 0
10.8 1 0
11.1 1 0
11.4 1 0
11.7 1 0
12 1 0
12.3 1 0
12.6 1 0
12.9 1 0
13.2 1 0
13.5 1 0
13.8 1 0
14.1 1 0
14.4 1 0
14.7 1 0
15 1 0
15.3 1 0
15.6 1 0
15.9 1 0
16.2 1 0
16.5 1 0
16.8 1 0
17.1 1 0
17.4 1 0
17.7 1 0
18 1 0
18.3 1 0
18.6 1 0
18.9 1 0
19.2 1 0
19.5 1 0
19.8 1 0
20.1 1 0
20.4 1 0
20.7 1 0
21 1 0
21.3 1 0
21.6 1 0
21.9 1 0
22.2 1 0
22.5 1 0
22.8 1 0
23.1 1 0
23.4 1 0
23.7 1 0
24 1 0
24.3 1 0
24.6 1 0
24.9 1 0
25.2 1 0
25.5 1 0
25.8 1 0
26.1 1 0
26.4 1 0
26.7 1 0
27 1 0
27.3 1 0
27.6 1 0
27.9 1 0
28.2 1 0
28.5 1 0
28.8 1 0
29.1 1 0
29.4 1 0
29.7 1 0
30 1 0
30.3 1 0
0 1.1 0
0.3 1.1 0
0.6 1.1 0
0.9 1.1 0
1.2 1.1 0
1.5 1.1 0
1.8 1.1 0
2.1 1.1 0
2.4 1.1 0
2.7 1.1 0
3 1.1 0
3.3 1.1 0
3.6 1.1 0
3.9 1.1 0
4.2 1.1 0
4.5 1.1 0
4.8 1.1 0
5.1 1.1 0
5.4 1.1 0
5.7 1.1 0
6 1.1 0
6.3 1.1 0
6.6 1.1 0
6.9 1.1 0
7.2 1.1 0
7.5 1.1 0
7.8 1.1 0
8.1 1.1 0
8.4 1.1 0
8.7 1.1 0
9 1.1 0
9.3 1.1 0
9.6 1.1 0
9.9 1.1 0
10.2 1.1 0
10.5 1.1 0
10.8 1.1 0
11.1 1.1 0
11.4 1.1 0
11.7 1.1 0
12 1.1 0
12.3 1.1 0
12.6 1.1 0
12.9 1.1 0
13.2 1.1 0
13.5 1.1 0
13.8 1.1 0
14.1 1.1 0
14.4 1.1 0
14.7 1.1 0
15 1.1 0
15.3 1.1 0
15.6 1.1 0
15.9 1.1 0
16.2 1.1 0
16.5 1.1 0
16.8 1.1 0
17.1 1.1 0
17.4 1.1 0
17.7 1.1 0
18 1.1 0
18.3 1.1 0
18.6 1.1 0
18.9 1.1 0
19.2 1.1 0
19.5 1.1 0
19.8 1.1 0
20.1 1.1 0
20.4 1.1 0
20.7 1.1 0
21 1.1 0
21.3 1.1 0
21.6 1.1 0
21.9 1.1 0
22.2 1.1 0
22.5 1.1 0
22.8 1.1 0
23.1 1.1 0
23.4 1.1 0
23.7 1.1 0
24 1.1 0
24.3 1.1 0
24.6 1.1 0
24.9 1.1 0
25.2 1.1 0
25.5 1.1 0
25.8 1.1 0
26.1 1.1 0
26.4 1.1 0
26.7 1.1 0
27 1.1 0
27.3 1.1 0
27.6 1.1 0
27.9 1.1 0
28.2 1.1 0
28.5 1.1 0
28.8 1.1 0
29.1 1.1 0
29.4 1.1 0
29.7 1.1 0
30 1.1 0
30.3 1.1 0

POINT_DATA 1224

SCALARS pressure double
LOOKUP_TABLE pressure
1.31576
1.31576
1.24925
1.20217
1.15922
1.11956
1.08354
1.05116
1.02206
0.995718
0.971608
0.949255
0.928283
0.908401
0.889395
0.871105
0.853414
0.836233
0.819495
0.803144
0.787139
0.771448
0.756039
0.740887
0.725968
0.711267
0.696766
0.682448
0.668299
0.654308
0.640464
0.626754
0.613171
0.599706
0.586351
0.573097
0.559938
0.546868
0.533881
0.520972
0.508135
0.495365
0.482659
0.470013
0.457422
0.444883
0.432392
0.419947
0.407545
0.395183
0.382858
0.370568
0.358311
0.346085
0.333887
0.321717
0.309572
0.297451
0.285352
0.273274
0.261215
0.249175
0.237152
0.225146
0.213154
0.201177
0.189212
0.177261
0.165321
0.153392
0.141473
0.129564
0.117663
0.105772
0.093888
0.0820117
0.0701423
0.0582795
0.0464228
0.0345719
0.0227263
0.0108858
-0.000949962
-0.0127813
-0.0246085
-0.0364317
-0.0482513
-0.0600675
-0.0718805
-0.0836904
-0.0954976
-0.107302
-0.119104
-0.130904
-0.142701
-0.154497
-0.16629
-0.178082
-0.189871
-0.20166
-0.213447
0.213447
1.31576
1.31576
1.24925
1.20217
1.15922
1.11956
1.08354
1.05116
1.02206
0.995718
0.971608
0.949255
0.928283
0.908401
0.889395
0.871105
0.853414
0.836233
0.819495
0.803144
0.787139
0.771448
0.756039
0.740887
0.725968
0.711267
0.696766
0.682448
0.668299
0.654308
0.640464
0.626754
0.613171
0.599706
0.586351
0.573097
0.559938
0.546868
0.533881
0.520972
0.508135
0.495365
0.482659
0.470013
0.457422
0.444883
0.432392
0.419947
0.407545
0.395183
0.382858
0.370568
0.358311
0.346085
0.333887
0.321717
0.309572
0.297451
0.285352
0.273274
0.261215
0.249175
0.237152
0.225146
0.213154
0.201177
0.189212
0.177261
0.165321
0.153392
0.141473
0.129564
0.117663
0.105772
0.093888
0.0820117
0.0701423
0.0582795
0.0464228
0.0345719
0.0227263
0.0108858
-0.000949962
-0.0127813
-0.0246085
-0.0364317
-0.0482513
-0.0600675
-0.0718805
-0.0836904
-0.0954976
-0.107302
-0.119104
-0.130904
-0.142701
-0.154497
-0.16629
-0.178082
-0.189871
-0.20166
-0.213447
0.213447
1.29511
1.29511
1.24745
1.20248
1.15994
1.12033
1.08424
1.05175
1.02253
0.996088
0.971893
0.949476
0.928456
0.908538
0.889506
0.871197
0.853491
0.836299
0.819552
0.803194
0.787184
0.771488
0.756076
0.740919
0.725998
0.711294
0.696791
0.68247
0.668319
0.654327
0.640481
0.626771
0.613187
0.59972
0.586364
0.573108
0.559949
0.546878
0.533891
0.520981
0.508143
0.495373
0.482667
0.47002
0.457428
0.444889
0.432398
0.419952
0.40755
0.395187
0.382862
0.370572
0.358314
0.346088
0.33389
0.32172
0.309575
0.297453
0.285354
0.273276
0.261218
0.249177
0.237154
0.225148
0.213156
0.201178
0.189214
0.177262
0.165322
0.153393
0.141474
0.129565
0.117664
0.105773
0.0938889
0.0820125
0.0701431
0.0582802
0.0464235
0.0345725
0.0227269
0.0108864
-0.000949446
-0.0127808
-0.024608
-0.0364313
-0.0482509
-0.0600671
-0.0718801
-0.0836901
-0.0954973
-0.107302
-0.119104
-0.130903
-0.142701
-0.154496
-0.16629
-0.178081
-0.189871
-0.20166
-0.213446
0.213446
1.28073
1.28073
1.24495
1.20288
1.16107
1.1216
1.08542
1.05274
1.02332
0.996695
0.97235
0.949817
0.928711
0.908732
0.889656
0.871316
0.853587
0.836378
0.819618
0.80325
0.787233
0.771531
0.756113
0.740952
0.726027
0.711321
0.696815
0.682492
0.668339
0.654345
0.640498
0.626785
0.6132
0.599733
0.586375
0.573119
0.559959
0.546887
0.533899
0.520988
0.50815
0.49538
0.482673
0.470025
0.457434
0.444894
0.432402
0.419957
0.407554
0.395191
0.382865
0.370575
0.358317
0.346091
0.333893
0.321722
0.309577
0.297456
0.285356
0.273278
0.261219
0.249179
0.237156
0.225149
0.213157
0.201179
0.189215
0.177263
0.165323
0.153394
0.141475
0.129566
0.117665
0.105773
0.0938895
0.0820131
0.0701437
0.0582808
0.046424
0.034573
0.0227274
0.0108868
-0.000949033
-0.0127804
-0.0246076
-0.036431
-0.0482506
-0.0600668
-0.0718799
-0.0836898
-0.095497
-0.107302
-0.119104
-0.130903
-0.142701
-0.154496
-0.16629
-0.178081
-0.189871
-0.201659
-0.213443
0.213443
1.27204
1.27204
1.24294
1.20313
1.16199
1.12268
1.08645
1.05363
1.02405
0.997274
0.972798
0.950162
0.928977
0.90894
0.889821
0.871449
0.853697
0.83647
0.819695
0.803317
0.787291
0.771582
0.756157
0.740992
0.726063
0.711353
0.696843
0.682517
0.668363
0.654367
0.640517
0.626803
0.613217
0.599748
0.586388
0.573132
0.55997
0.546898
0.533909
0.520997
0.508158
0.495387
0.48268
0.470032
0.45744
0.444899
0.432408
0.419962
0.407558
0.395195
0.382869
0.370579
0.358321
0.346094
0.333896
0.321725
0.30958
0.297458
0.285359
0.27328
0.261221
0.249181
0.237158
0.225151
0.213159
0.201181
0.189216
0.177264
0.165324
0.153395
0.141476
0.129566
0.117666
0.105774
0.0938904
0.0820139
0.0701444
0.0582814
0.0464246
0.0345736
0.0227279
0.0108873
-0.000948555
-0.01278
-0.0246072
-0.0364306
-0.0482502
-0.0600665
-0.0718795
-0.0836895
-0.0954967
-0.107301
-0.119103
-0.130903
-0.1427
-0.154496
-0.166289
-0.178081
-0.189871
-0.201658
-0.213437
0.213437
1.26796
1.26796
1.24185
1.20325
1.16249
1.12327
1.08702
1.05414
1.02447
0.997608
0.973062
0.950369
0.92914
0.909071
0.889927
0.871536
0.85377
0.836532
0.819749
0.803364
0.787333
0.771618
0.75619
0.741021
0.72609
0.711377
0.696865
0.682537
0.668381
0.654383
0.640532
0.626817
0.613229
0.599759
0.586399
0.573141
0.559979
0.546906
0.533916
0.521004
0.508165
0.495394
0.482686
0.470037
0.457445
0.444904
0.432412
0.419966
0.407562
0.395198
0.382872
0.370582
0.358324
0.346097
0.333899
0.321727
0.309582
0.29746
0.285361
0.273282
0.261223
0.249182
0.237159
0.225152
0.21316
0.201182
0.189218
0.177265
0.165325
0.153396
0.141477
0.129567
0.117667
0.105775
0.093891
0.0820145
0.0701449
0.058282
0.0464251
0.034574
0.0227283
0.0108877
-0.000948176
-0.0127796
-0.0246069
-0.0364303
-0.04825
-0.0600662
-0.0718793
-0.0836893
-0.0954965
-0.107301
-0.119103
-0.130903
-0.1427
-0.154496
-0.166289
-0.178081
-0.18987
-0.201657
-0.213433
0.213433
1.26796
1.26796
1.24185
1.20325
1.16249
1.12327
1.08702
1.05414
1.02447
0.997608
0.973062
0.950369
0.92914
0.909071
0.889927
0.871536
0.85377
0.836532
0.819749
0.803364
0.787333
0.771618
0.75619
0.741021
0.72609
0.711377
0.696865
0.682537
0.668381
0.654383
0.640532
0.626817
0.613229
0.599759
0.586399
0.573141
0.559979
0.546906
0.533916
0.521004
0.508165
0.495394
0.482686
0.470037
0.457445
0.444904
0.432412
0.419966
0.407562
0.395198
0.382872
0.370582
0.358324
0.346097
0.333899
0.321727
0.309582
0.29746
0.285361
0.273282
0.261223
0.249182
0.237159
0.225152
0.21316
0.201182
0.189218
0.177265
0.165325
0.153396
0.141477
0.129567
0.117667
0.105775
0.093891
0.0820145
0.0701449
0.058282
0.0464251
0.034574
0.0227283
0.0108877
-0.000948177
-0.0127796
-0.0246069
-0.0364303
-0.04825
-0.0600662
-0.0718793
-0.0836893
-0.0954965
-0.107301
-0.119103
-0.130903
-0.1427
-0.154496
-0.166289
-0.178081
-0.18987
-0.201657
-0.213433
0.213433
1.27204
1.27204
1.24294
1.20313
1.16199
1.12268
1.08645
1.05363
1.02405
0.997274
0.972798
0.950162
0.928977
0.90894
0.889821
0.871449
0.853696
0.836469
0.819695
0.803317
0.787292
0.771581
0.756157
0.740992
0.726064
0.711353
0.696843
0.682518
0.668363
0.654366
0.640517
0.626803
0.613216
0.599748
0.586388
0.573132
0.55997
0.546898
0.533909
0.520997
0.508158
0.495388
0.48268
0.470032
0.45744
0.444899
0.432408
0.419962
0.407558
0.395195
0.382869
0.370579
0.358321
0.346094
0.333896
0.321725
0.30958
0.297458
0.285359
0.27328
0.261221
0.249181
0.237158
0.225151
0.213159
0.201181
0.189216
0.177264
0.165324
0.153395
0.141476
0.129566
0.117666
0.105774
0.0938904
0.0820139
0.0701444
0.0582814
0.0464246
0.0345736
0.0227279
0.0108873
-0.000948556
-0.01278
-0.0246072
-0.0364306
-0.0482502
-0.0600665
-0.0718795
-0.0836895
-0.0954967
-0.107301
-0.119103
-0.130903
-0.1427
-0.154496
-0.166289
-0.178081
-0.189871
-0.201658
-0.213437
0.213437
1.28073
1.28073
1.24495
1.20288
1.16107
1.1216
1.08542
1.05274
1.02332
0.996695
0.97235
0.949817
0.928711
0.908733
0.889656
0.871316
0.853587
0.836378
0.819618
0.803251
0.787233
0.771531
0.756112
0.740952
0.726028
0.711321
0.696814
0.682492
0.668339
0.654345
0.640497
0.626786
0.6132
0.599733
0.586375
0.573119
0.559959
0.546887
0.533899
0.520988
0.50815
0.49538
0.482673
0.470025
0.457433
0.444894
0.432402
0.419957
0.407554
0.395191
0.382865
0.370575
0.358317
0.346091
0.333893
0.321722
0.309577
0.297456
0.285356
0.273278
0.261219
0.249179
0.237156
0.225149
0.213157
0.201179
0.189215
0.177263
0.165323
0.153394
0.141475
0.129566
0.117665
0.105773
0.0938895
0.0820131
0.0701437
0.0582808
0.046424
0.034573
0.0227274
0.0108868
-0.000949034
-0.0127804
-0.0246076
-0.036431
-0.0482506
-0.0600668
-0.0718799
-0.0836898
-0.095497
-0.107302
-0.119104
-0.130903
-0.142701
-0.154496
-0.16629
-0.178081
-0.189871
-0.201659
-0.213443
0.213443
1.29511
1.29511
1.24745
1.20249
1.15994
1.12033
1.08424
1.05175
1.02253
0.996088
0.971894
0.949476
0.928455
0.908538
0.889506
0.871197
0.853492
0.836299
0.819552
0.803194
0.787185
0.771488
0.756075
0.740919
0.725998
0.711295
0.696791
0.68247
0.66832
0.654327
0.640481
0.626771
0.613187
0.59972
0.586363
0.573109
0.559949
0.546878
0.533891
0.520981
0.508143
0.495373
0.482667
0.47002
0.457428
0.444889
0.432398
0.419952
0.40755
0.395187
0.382862
0.370572
0.358314
0.346088
0.33389
0.32172
0.309575
0.297453
0.285354
0.273276
0.261218
0.249177
0.237154
0.225148
0.213156
0.201178
0.189214
0.177262
0.165322
0.153393
0.141474
0.129565
0.117664
0.105773
0.0938889
0.0820125
0.0701431
0.0582802
0.0464235
0.0345725
0.0227269
0.0108864
-0.000949448
-0.0127808
-0.024608
-0.0364313
-0.0482509
-0.0600671
-0.0718801
-0.0836901
-0.0954973
-0.107302
-0.119104
-0.130903
-0.142701
-0.154496
-0.16629
-0.178081
-0.189871
-0.20166
-0.213446
0.213446
1.31576
1.31576
1.24925
1.20217
1.15922
1.11956
1.08354
1.05116
1.02206
0.995719
0.971608
0.949255
0.928283
0.908401
0.889395
0.871105
0.853414
0.836233
0.819494
0.803144
0.78714
0.771448
0.756039
0.740886
0.725969
0.711268
0.696766
0.682447
0.668299
0.654308
0.640463
0.626754
0.613172
0.599706
0.58635
0.573096
0.559938
0.546868
0.533881
0.520972
0.508135
0.495365
0.482659
0.470013
0.457422
0.444883
0.432392
0.419947
0.407545
0.395183
0.382858
0.370568
0.358311
0.346085
0.333887
0.321717
0.309572
0.297451
0.285352
0.273274
0.261215
0.249175
0.237152
0.225146
0.213154
0.201177
0.189212
0.177261
0.165321
0.153392
0.141473
0.129564
0.117663
0.105772
0.093888
0.0820117
0.0701423
0.0582795
0.0464228
0.0345719
0.0227263
0.0108858
-0.000949964
-0.0127813
-0.0246085
-0.0364317
-0.0482513
-0.0600675
-0.0718805
-0.0836904
-0.0954976
-0.107302
-0.119104
-0.130904
-0.142701
-0.154497
-0.16629
-0.178082
-0.189871
-0.20166
-0.213447
0.213447
1.31576
1.31576
1.24925
1.20217
1.15922
1.11956
1.08354
1.05116
1.02206
0.995719
0.971608
0.949255
0.928283
0.908401
0.889395
0.871105
0.853414
0.836233
0.819494
0.803144
0.78714
0.771448
0.756039
0.740886
0.725969
0.711268
0.696766
0.682447
0.668299
0.654308
0.640463
0.626754
0.613172
0.599706
0.58635
0.573096
0.559938
0.546868
0.533881
0.520972
0.508135
0.495365
0.482659
0.470013
0.457422
0.444883
0.432392
0.419947
0.407545
0.395183
0.382858
0.370568
0.358311
0.346085
0.333887
0.321717
0.309572
0.297451
0.285352
0.273274
0.261215
0.249175
0.237152
0.225146
0.213154
0.201177
0.189212
0.177261
0.165321
0.153392
0.141473
0.129564
0.117663
0.105772
0.093888
0.0820117
0.0701423
0.0582795
0.0464228
0.0345719
0.0227263
0.0108858
-0.000949964
-0.0127813
-0.0246085
-0.0364317
-0.0482513
-0.0600675
-0.0718805
-0.0836904
-0.0954976
-0.107302
-0.119104
-0.130904
-0.142701
-0.154497
-0.16629
-0.178082
-0.189871
-0.20166
-0.213447
0.213447
SCALARS phi double
LOOKUP_TABLE phi
1
1
1
0.999995
0.999977
0.999931
0.999833
0.999655
0.999364
0.998929
0.998323
0.997523
0.996512
0.995279
0.993815
0.992118
0.990189
0.988032
0.985653
0.983059
0.980261
0.97727
0.974097
0.970755
0.967257
0.963614
0.95984
0.955947
0.951946
0.94785
0.943669
0.939412
0.935088
0.930702
0.926254
0.921741
0.917152
0.912472
0.907678
0.902742
0.897632
0.892312
0.886743
0.880888
0.874709
0.868171
0.861243
0.853896
0.846109
0.837864
0.829149
0.819959
0.810293
0.800157
0.78956
0.778516
0.767043
0.755164
0.742903
0.730288
0.717346
0.704108
0.690605
0.67687
0.662933
0.648825
0.634579
0.620224
0.605789
0.591302
0.57679
0.562279
0.547793
0.533354
0.518983
0.5047
0.490522
0.476467
0.462549
0.448782
0.435179
0.42175
0.408505
0.395452
0.3826
0.369954
0.357521
0.345304
0.333307
0.321534
0.309986
0.298665
0.287572
0.276709
0.266071
0.255669
0.245471
0.235574
0.225649
0.21683
0.205089
0.205089
1
1
1
0.999995
0.999977
0.999931
0.999833
0.999655
0.999364
0.998929
0.998323
0.997523
0.996512
0.995279
0.993815
0.992118
0.990189
0.988032
0.985653
0.983059
0.980261
0.97727
0.974097
0.970755
0.967257
0.963614
0.95984
0.955947
0.951946
0.94785
0.943669
0.939412
0.935088
0.930702
0.926254
0.921741
0.917152
0.912472
0.907678
0.902742
0.897632
0.892312
0.886743
0.880888
0.874709
0.868171
0.861243
0.853896
0.846109
0.837864
0.829149
0.819959
0.810293
0.800157
0.78956
0.778516
0.767043
0.755164
0.742903
0.730288
0.717346
0.704108
0.690605
0.67687
0.662933
0.648825
0.634579
0.620224
0.605789
0.591302
0.57679
0.562279
0.547793
0.533354
0.518983
0.5047
0.490522
0.476467
0.462549
0.448782
0.435179
0.42175
0.408505
0.395452
0.3826
0.369954
0.357521
0.345304
0.333307
0.321534
0.309986
0.298665
0.287572
0.276709
0.266071
0.255669
0.245471
0.235574
0.225649
0.21683
0.205089
0.205089
0.999998
1
0.999984
0.999921
0.999783
0.999536
0.999146
0.99858
0.997812
0.996819
0.99559
0.994116
0.992398
0.990437
0.98824
0.985817
0.983177
0.980333
0.977297
0.974081
0.9707
0.967166
0.963491
0.95969
0.955773
0.951752
0.947639
0.943445
0.939178
0.93485
0.930469
0.926043
0.921579
0.917085
0.912565
0.908022
0.903455
0.898862
0.894235
0.889565
0.884836
0.88003
0.875124
0.870094
0.864914
0.859555
0.85399
0.848189
0.842128
0.83578
0.829124
0.822142
0.814817
0.807137
0.799095
0.790686
0.781909
0.772767
0.763267
0.753417
0.74323
0.73272
0.721904
0.7108
0.699428
0.687809
0.675965
0.663919
0.651693
0.63931
0.626793
0.614164
0.601446
0.588659
0.575824
0.562961
0.55009
0.537227
0.52439
0.511596
0.498859
0.486193
0.473611
0.461125
0.448746
0.436485
0.42435
0.41235
0.400492
0.388782
0.377226
0.36583
0.354597
0.343533
0.332636
0.321921
0.311351
0.301059
0.290606
0.28146
0.268725
0.268725
1.00001
0.999992
0.99954
0.998615
0.997207
0.995317
0.992955
0.990145
0.986922
0.983332
0.979422
0.975241
0.970836
0.966248
0.961513
0.956664
0.951728
0.946728
0.941682
0.936608
0.931519
0.926427
0.921341
0.916268
0.911216
0.906189
0.901194
0.896232
0.891307
0.886422
0.881579
0.87678
0.872025
0.867316
0.862654
0.858038
0.853468
0.848943
0.84446
0.840015
0.835602
0.831216
0.826845
0.822481
0.818109
0.813715
0.809284
0.804798
0.800238
0.795587
0.790825
0.785933
0.780893
0.775689
0.770303
0.764721
0.758929
0.752918
0.746677
0.740199
0.733479
0.726514
0.719302
0.711845
0.704144
0.696205
0.688032
0.679634
0.671019
0.662196
0.653176
0.643971
0.634592
0.625053
0.615365
0.605543
0.595599
0.585548
0.575402
0.565174
0.554877
0.544525
0.534128
0.5237
0.513251
0.502792
0.492334
0.481886
0.471458
0.461058
0.450696
0.440378
0.430111
0.419903
0.409756
0.399691
0.389663
0.379833
0.369707
0.360887
0.348242
0.348242
1.00143
0.99857
0.991253
0.98188
0.971566
0.96086
0.950051
0.939311
0.928756
0.918468
0.908503
0.898898
0.889671
0.880827
0.87236
0.864261
0.856513
0.849098
0.841997
0.835192
0.828664
0.822396
0.816369
0.810569
0.80498
0.799588
0.794382
0.789348
0.784477
0.779758
0.775181
0.770738
0.766422
0.762224
0.758139
0.754159
0.750279
0.746494
0.742797
0.739184
0.735649
0.732188
0.728793
0.725458
0.722178
0.718944
0.715749
0.712583
0.709438
0.706302
0.703166
0.700017
0.696845
0.693636
0.69038
0.687063
0.683673
0.6802
0.67663
0.672954
0.669161
0.665242
0.661188
0.656991
0.652644
0.648142
0.64348
0.638655
0.633663
0.628502
0.623173
0.617674
0.612008
0.606176
0.60018
0.594025
0.587713
0.58125
0.57464
0.567889
0.561002
0.553986
0.546847
0.539591
0.532225
0.524756
0.517191
0.509535
0.501796
0.49398
0.486094
0.478144
0.470135
0.462076
0.453967
0.445829
0.43762
0.429493
0.420987
0.413571
0.402653
0.402653
1.0456
0.954401
0.887723
0.838674
0.801641
0.772861
0.749886
0.731119
0.715499
0.702298
0.691001
0.681228
0.672693
0.665173
0.658493
0.652515
0.647126
0.642236
0.637772
0.633673
0.629891
0.626382
0.623115
0.620059
0.61719
0.614489
0.611936
0.609518
0.607221
0.605034
0.602947
0.60095
0.599038
0.597202
0.595437
0.593737
0.592097
0.590514
0.588983
0.5875
0.586062
0.584667
0.58331
0.581989
0.5807
0.579442
0.578209
0.577
0.57581
0.574635
0.573471
0.572313
0.571156
0.569994
0.568823
0.567635
0.566425
0.565185
0.56391
0.562591
0.561222
0.559796
0.558305
0.556743
0.555102
0.553376
0.551559
0.549643
0.547624
0.545495
0.543252
0.540889
0.538403
0.535789
0.533044
0.530165
0.52715
0.523996
0.520701
0.517265
0.513687
0.509966
0.506101
0.502094
0.497944
0.493653
0.489222
0.484652
0.479944
0.475101
0.470124
0.465017
0.45978
0.454417
0.448928
0.443327
0.437578
0.431806
0.425637
0.420235
0.412027
0.412027
-0.0455988
0.0455988
0.112277
0.161326
0.198359
0.227139
0.250114
0.268881
0.284501
0.297702
0.308999
0.318772
0.327307
0.334827
0.341507
0.347485
0.352874
0.357764
0.362228
0.366326
0.370109
0.373617
0.376885
0.379941
0.38281
0.385511
0.388064
0.390482
0.392779
0.394966
0.397053
0.39905
0.400962
0.402798
0.404563
0.406263
0.407903
0.409486
0.411017
0.412499
0.413936
0.41533
0.416684
0.418
0.41928
0.420526
0.42174
0.422922
0.424074
0.425196
0.426289
0.427354
0.428389
0.429394
0.430368
0.431311
0.43222
0.433094
0.433931
0.434727
0.43548
0.436187
0.436844
0.437448
0.437994
0.438478
0.438895
0.439241
0.439511
0.4397
0.439803
0.439815
0.439731
0.439545
0.439253
0.438849
0.438328
0.437687
0.436919
0.436021
0.434988
0.433815
0.4325
0.431038
0.429426
0.427661
0.425739