# vtk DataFile Version 3.0
FlowField
ASCII
DATASET STRUCTURED_GRID
DIMENSIONS 102 12 1 
POINTS 1224 double
0 0 0
0.3 0 0
0.6 0 0
0.9 0 0
1.2 0 0
1.5 0 0
1.8 0 0
2.1 0 0
2.4 0 0
2.7 0 0
3 0 0
3.3 0 0
3.6 0 0
3.9 0 0
4.2 0 0
4.5 0 0
4.8 0 0
5.1 0 0
5.4 0 0
5.7 0 0
6 0 0
6.3 0 0
6.6 0 0
6.9 0 0
7.2 0 0
7.5 0 0
7.8 0 0
8.1 0 0
8.4 0 0
8.7 0 0
9 0 0
9.3 0 0
9.6 0 0
9.9 0 0
10.2 0 0
10.5 0 0
10.8 0 0
11.1 0 0
11.4 0 0
11.7 0 0
12 0 0
12.3 0 0
12.6 0 0
12.9 0 0
13.2 0 0
13.5 0 0
13.8 0 0
14.1 0 0
14.4 0 0
14.7 0 0
15 0 0
15.3 0 0
15.6 0 0
15.9 0 0
16.2 0 0
16.5 0 0
16.8 0 0
17.1 0 0
17.4 0 0
17.7 0 0
18 0 0
18.3 0 0
18.6 0 0
18.9 0 0
19.2 0 0
19.5 0 0
19.8 0 0
20.1 0 0
20.4 0 0
20.7 0 0
21 0 0
21.3 0 0
21.6 0 0
21.9 0 0
22.2 0 0
22.5 0 0
22.8 0 0
23.1 0 0
23.4 0 0
23.7 0 0
24 0 0
24.3 0 0
24.6 0 0
24.9 0 0
25.2 0 0
25.5 0 0
25.8 0 0
26.1 0 0
26.4 0 0
26.7 0 0
27 0 0
27.3 0 0
27.6 0 0
27.9 0 0
28.2 0 0
28.5 0 0
28.8 0 0
29.1 0 0
29.4 0 0
29.7 0 0
30 0 0
30.3 0 0
0 0.1 0
0.3 0.1 0
0.6 0.1 0
0.9 0.1 0
1.2 0.1 0
1.5 0.1 0
1.8 0.1 0
2.1 0.1 0
2.4 0.1 0
2.7 0.1 0
3 0.1 0
3.3 0.1 0
3.6 0.1 0
3.9 0.1 0
4.2 0.1 0
4.5 0.1 0
4.8 0.1 0
5.1 0.1 0
5.4 0.1 0
5.7 0.1 0
6 0.1 0
6.3 0.1 0
6.6 0.1 0
6.9 0.1 0
7.2 0.1 0
7.5 0.1 0
7.8 0.1 0
8.1 0.1 0
8.4 0.1 0
8.7 0.1 0
9 0.1 0
9.3 0.1 0
9.6 0.1 0
9.9 0.1 0
10.2 0.1 0
10.5 0.1 0
10.8 0.1 0
11.1 0.1 0
11.4 0.1 0
11.7 0.1 0
12 0.1 0
12.3 0.1 0
12.6 0.1 0
12.9 0.1 0
13.2 0.1 0
13.5 0.1 0
13.8 0.1 0
14.1 0.1 0
14.4 0.1 0
14.7 0.1 0
15 0.1 0
15.3 0.1 0
15.6 0.1 0
15.9 0.1 0
16.2 0.1 0
16.5 0.1 0
16.8 0.1 0
17.1 0.1 0
17.4 0.1 0
17.7 0.1 0
18 0.1 0
18.3 0.1 0
18.6 0.1 0
18.9 0.1 0
19.2 0.1 0
19.5 0.1 0
19.8 0.1 0
20.1 0.1 0
20.4 0.1 0
20.7 0.1 0
21 0.1 0
21.3 0.1 0
21.6 0.1 0
21.9 0.1 0
22.2 0.1 0
22.5 0.1 0
22.8 0.1 0
23.1 0.1 0
23.4 0.1 0
23.7 0.1 0
24 0.1 0
24.3 0.1 0
24.6 0.1 0
24.9 0.1 0
25.2 0.1 0
25.5 0.1 0
25.8 0.1 0
26.1 0.1 0
26.4 0.1 0
26.7 0.1 0
27 0.1 0
27.3 0.1 0
27.6 0.1 0
27.9 0.1 0
28.2 0.1 0
28.5 0.1 0
28.8 0.1 0
29.1 0.1 0
29.4 0.1 0
29.7 0.1 0
30 0.1 0
30.3 0.1 0
0 0.2 0
0.3 0.2 0
0.6 0.2 0
0.9 0.2 0
1.2 0.2 0
1.5 0.2 0
1.8 0.2 0
2.1 0.2 0
2.4 0.2 0
2.7 0.2 0
3 0.2 0
3.3 0.2 0
3.6 0.2 0
3.9 0.2 0
4.2 0.2 0
4.5 0.2 0
4.8 0.2 0
5.1 0.2 0
5.4 0.2 0
5.7 0.2 0
6 0.2 0
6.3 0.2 0
6.6 0.2 0
6.9 0.2 0
7.2 0.2 0
7.5 0.2 0
7.8 0.2 0
8.1 0.2 0
8.4 0.2 0
8.7 0.2 0
9 0.2 0
9.3 0.2 0
9.6 0.2 0
9.9 0.2 0
10.2 0.2 0
10.5 0.2 0
10.8 0.2 0
11.1 0.2 0
11.4 0.2 0
11.7 0.2 0
12 0.2 0
12.3 0.2 0
12.6 0.2 0
12.9 0.2 0
13.2 0.2 0
13.5 0.2 0
13.8 0.2 0
14.1 0.2 0
14.4 0.2 0
14.7 0.2 0
15 0.2 0
15.3 0.2 0
15.6 0.2 0
15.9 0.2 0
16.2 0.2 0
16.5 0.2 0
16.8 0.2 0
17.1 0.2 0
17.4 0.2 0
17.7 0.2 0
18 0.2 0
18.3 0.2 0
18.6 0.2 0
18.9 0.2 0
19.2 0.2 0
19.5 0.2 0
19.8 0.2 0
20.1 0.2 0
20.4 0.2 0
20.7 0.2 0
21 0.2 0
21.3 0.2 0
21.6 0.2 0
21.9 0.2 0
22.2 0.2 0
22.5 0.2 0
22.8 0.2 0
23.1 0.2 0
23.4 0.2 0
23.7 0.2 0
24 0.2 0
24.3 0.2 0
24.6 0.2 0
24.9 0.2 0
25.2 0.2 0
25.5 0.2 0
25.8 0.2 0
26.1 0.2 0
26.4 0.2 0
26.7 0.2 0
27 0.2 0
27.3 0.2 0
27.6 0.2 0
27.9 0.2 0
28.2 0.2 0
28.5 0.2 0
28.8 0.2 0
29.1 0.2 0
29.4 0.2 0
29.7 0.2 0
30 0.2 0
30.3 0.2 0
0 0.3 0
0.3 0.3 0
0.6 0.3 0
0.9 0.3 0
1.2 0.3 0
1.5 0.3 0
1.8 0.3 0
2.1 0.3 0
2.4 0.3 0
2.7 0.3 0
3 0.3 0
3.3 0.3 0
3.6 0.3 0
3.9 0.3 0
4.2 0.3 0
4.5 0.3 0
4.8 0.3 0
5.1 0.3 0
5.4 0.3 0
5.7 0.3 0
6 0.3 0
6.3 0.3 0
6.6 0.3 0
6.9 0.3 0
7.2 0.3 0
7.5 0.3 0
7.8 0.3 0
8.1 0.3 0
8.4 0.3 0
8.7 0.3 0
9 0.3 0
9.3 0.3 0
9.6 0.3 0
9.9 0.3 0
10.2 0.3 0
10.5 0.3 0
10.8 0.3 0
11.1 0.3 0
11.4 0.3 0
11.7 0.3 0
12 0.3 0
12.3 0.3 0
12.6 0.3 0
12.9 0.3 0
13.2 0.3 0
13.5 0.3 0
13.8 0.3 0
14.1 0.3 0
14.4 0.3 0
14.7 0.3 0
15 0.3 0
15.3 0.3 0
15.6 0.3 0
15.9 0.3 0
16.2 0.3 0
16.5 0.3 0
16.8 0.3 0
17.1 0.3 0
17.4 0.3 0
17.7 0.3 0
18 0.3 0
18.3 0.3 0
18.6 0.3 0
18.9 0.3 0
19.2 0.3 0
19.5 0.3 0
19.8 0.3 0
20.1 0.3 0
20.4 0.3 0
20.7 0.3 0
21 0.3 0
21.3 0.3 0
21.6 0.3 0
21.9 0.3 0
22.2 0.3 0
22.5 0.3 0
22.8 0.3 0
23.1 0.3 0
23.4 0.3 0
23.7 0.3 0
24 0.3 0
24.3 0.3 0
24.6 0.3 0
24.9 0.3 0
25.2 0.3 0
25.5 0.3 0
25.8 0.3 0
26.1 0.3 0
26.4 0.3 0
26.7 0.3 0
27 0.3 0
27.3 0.3 0
27.6 0.3 0
27.9 0.3 0
28.2 0.3 0
28.5 0.3 0
28.8 0.3 0
29.1 0.3 0
29.4 0.3 0
29.7 0.3 0
30 0.3 0
30.3 0.3 0
0 0.4 0
0.3 0.4 0
0.6 0.4 0
0.9 0.4 0
1.2 0.4 0
1.5 0.4 0
1.8 0.4 0
2.1 0.4 0
2.4 0.4 0
2.7 0.4 0
3 0.4 0
3.3 0.4 0
3.6 0.4 0
3.9 0.4 0
4.2 0.4 0
4.5 0.4 0
4.8 0.4 0
5.1 0.4 0
5.4 0.4 0
5.7 0.4 0
6 0.4 0
6.3 0.4 0
6.6 0.4 0
6.9 0.4 0
7.2 0.4 0
7.5 0.4 0
7.8 0.4 0
8.1 0.4 0
8.4 0.4 0
8.7 0.4 0
9 0.4 0
9.3 0.4 0
9.6 0.4 0
9.9 0.4 0
10.2 0.4 0
10.5 0.4 0
10.8 0.4 0
11.1 0.4 0
11.4 0.4 0
11.7 0.4 0
12 0.4 0
12.3 0.4 0
12.6 0.4 0
12.9 0.4 0
13.2 0.4 0
13.5 0.4 0
13.8 0.4 0
14.1 0.4 0
14.4 0.4 0
14.7 0.4 0
15 0.4 0
15.3 0.4 0
15.6 0.4 0
15.9 0.4 0
16.2 0.4 0
16.5 0.4 0
16.8 0.4 0
17.1 0.4 0
17.4 0.4 0
17.7 0.4 0
18 0.4 0
18.3 0.4 0
18.6 0.4 0
18.9 0.4 0
19.2 0.4 0
19.5 0.4 0
19.8 0.4 0
20.1 0.4 0
20.4 0.4 0
20.7 0.4 0
21 0.4 0
21.3 0.4 0
21.6 0.4 0
21.9 0.4 0
22.2 0.4 0
22.5 0.4 0
22.8 0.4 0
23.1 0.4 0
23.4 0.4 0
23.7 0.4 0
24 0.4 0
24.3 0.4 0
24.6 0.4 0
24.9 0.4 0
25.2 0.4 0
25.5 0.4 0
25.8 0.4 0
26.1 0.4 0
26.4 0.4 0
26.7 0.4 0
27 0.4 0
27.3 0.4 0
27.6 0.4 0
27.9 0.4 0
28.2 0.4 0
28.5 0.4 0
28.8 0.4 0
29.1 0.4 0
29.4 0.4 0
29.7 0.4 0
30 0.4 0
30.3 0.4 0
0 0.5 0
0.3 0.5 0
0.6 0.5 0
0.9 0.5 0
1.2 0.5 0
1.5 0.5 0
1.8 0.5 0
2.1 0.5 0
2.4 0.5 0
2.7 0.5 0
3 0.5 0
3.3 0.5 0
3.6 0.5 0
3.9 0.5 0
4.2 0.5 0
4.5 0.5 0
4.8 0.5 0
5.1 0.5 0
5.4 0.5 0
5.7 0.5 0
6 0.5 0
6.3 0.5 0
6.6 0.5 0
6.9 0.5 0
7.2 0.5 0
7.5 0.5 0
7.8 0.5 0
8.1 0.5 0
8.4 0.5 0
8.7 0.5 0
9 0.5 0
9.3 0.5 0
9.6 0.5 0
9.9 0.5 0
10.2 0.5 0
10.5 0.5 0
10.8 0.5 0
11.1 0.5 0
11.4 0.5 0
11.7 0.5 0
12 0.5 0
12.3 0.5 0
12.6 0.5 0
12.9 0.5 0
13.2 0.5 0
13.5 0.5 0
13.8 0.5 0
14.1 0.5 0
14.4 0.5 0
14.7 0.5 0
15 0.5 0
15.3 0.5 0
15.6 0.5 0
15.9 0.5 0
16.2 0.5 0
16.5 0.5 0
16.8 0.5 0
17.1 0.5 0
17.4 0.5 0
17.7 0.5 0
18 0.5 0
18.3 0.5 0
18.6 0.5 0
18.9 0.5 0
19.2 0.5 0
19.5 0.5 0
19.8 0.5 0
20.1 0.5 0
20.4 0.5 0
20.7 0.5 0
21 0.5 0
21.3 0.5 0
21.6 0.5 0
21.9 0.5 0
22.2 0.5 0
22.5 0.5 0
22.8 0.5 0
23.1 0.5 0
23.4 0.5 0
23.7 0.5 0
24 0.5 0
24.3 0.5 0
24.6 0.5 0
24.9 0.5 0
25.2 0.5 0
25.5 0.5 0
25.8 0.5 0
26.1 0.5 0
26.4 0.5 0
26.7 0.5 0
27 0.5 0
27.3 0.5 0
27.6 0.5 0
27.9 0.5 0
28.2 0.5 0
28.5 0.5 0
28.8 0.5 0
29.1 0.5 0
29.4 0.5 0
29.7 0.5 0
30 0.5 0
30.3 0.5 0
0 0.6 0
0.3 0.6 0
0.6 0.6 0
0.9 0.6 0
1.2 0.6 0
1.5 0.6 0
1.8 0.6 0
2.1 0.6 0
2.4 0.6 0
2.7 0.6 0
3 0.6 0
3.3 0.6 0
3.6 0.6 0
3.9 0.6 0
4.2 0.6 0
4.5 0.6 0
4.8 0.6 0
5.1 0.6 0
5.4 0.6 0
5.7 0.6 0
6 0.6 0
6.3 0.6 0
6.6 0.6 0
6.9 0.6 0
7.2 0.6 0
7.5 0.6 0
7.8 0.6 0
8.1 0.6 0
8.4 0.6 0
8.7 0.6 0
9 0.6 0
9.3 0.6 0
9.6 0.6 0
9.9 0.6 0
10.2 0.6 0
10.5 0.6 0
10.8 0.6 0
11.1 0.6 0
11.4 0.6 0
11.7 0.6 0
12 0.6 0
12.3 0.6 0
12.6 0.6 0
12.9 0.6 0
13.2 0.6 0
13.5 0.6 0
13.8 0.6 0
14.1 0.6 0
14.4 0.6 0
14.7 0.6 0
15 0.6 0
15.3 0.6 0
15.6 0.6 0
15.9 0.6 0
16.2 0.6 0
16.5 0.6 0
16.8 0.6 0
17.1 0.6 0
17.4 0.6 0
17.7 0.6 0
18 0.6 0
18.3 0.6 0
18.6 0.6 0
18.9 0.6 0
19.2 0.6 0
19.5 0.6 0
19.8 0.6 0
20.1 0.6 0
20.4 0.6 0
20.7 0.6 0
21 0.6 0
21.3 0.6 0
21.6 0.6 0
21.9 0.6 0
22.2 0.6 0
22.5 0.6 0
22.8 0.6 0
23.1 0.6 0
23.4 0.6 0
23.7 0.6 0
24 0.6 0
24.3 0.6 0
24.6 0.6 0
24.9 0.6 0
25.2 0.6 0
25.5 0.6 0
25.8 0.6 0
26.1 0.6 0
26.4 0.6 0
26.7 0.6 0
27 0.6 0
27.3 0.6 0
27.6 0.6 0
27.9 0.6 0
28.2 0.6 0
28.5 0.6 0
28.8 0.6 0
29.1 0.6 0
29.4 0.6 0
29.7 0.6 0
30 0.6 0
30.3 0.6 0
0 0.7 0
0.3 0.7 0
0.6 0.7 0
0.9 0.7 0
1.2 0.7 0
1.5 0.7 0
1.8 0.7 0
2.1 0.7 0
2.4 0.7 0
2.7 0.7 0
3 0.7 0
3.3 0.7 0
3.6 0.7 0
3.9 0.7 0
4.2 0.7 0
4.5 0.7 0
4.8 0.7 0
5.1 0.7 0
5.4 0.7 0
5.7 0.7 0
6 0.7 0
6.3 0.7 0
6.6 0.7 0
6.9 0.7 0
7.2 0.7 0
7.5 0.7 0
7.8 0.7 0
8.1 0.7 0
8.4 0.7 0
8.7 0.7 0
9 0.7 0
9.3 0.7 0
9.6 0.7 0
9.9 0.7 0
10.2 0.7 0
10.5 0.7 0
10.8 0.7 0
11.1 0.7 0
11.4 0.7 0
11.7 0.7 0
12 0.7 0
12.3 0.7 0
12.6 0.7 0
12.9 0.7 0
13.2 0.7 0
13.5 0.7 0
13.8 0.7 0
14.1 0.7 0
14.4 0.7 0
14.7 0.7 0
15 0.7 0
15.3 0.7 0
15.6 0.7 0
15.9 0.7 0
16.2 0.7 0
16.5 0.7 0
16.8 0.7 0
17.1 0.7 0
17.4 0.7 0
17.7 0.7 0
18 0.7 0
18.3 0.7 0
18.6 0.7 0
18.9 0.7 0
19.2 0.7 0
19.5 0.7 0
19.8 0.7 0
20.1 0.7 0
20.4 0.7 0
20.7 0.7 0
21 0.7 0
21.3 0.7 0
21.6 0.7 0
21.9 0.7 0
22.2 0.7 0
22.5 0.7 0
22.8 0.7 0
23.1 0.7 0
23.4 0.7 0
23.7 0.7 0
24 0.7 0
24.3 0.7 0
24.6 0.7 0
24.9 0.7 0
25.2 0.7 0
25.5 0.7 0
25.8 0.7 0
26.1 0.7 0
26.4 0.7 0
26.7 0.7 0
27 0.7 0
27.3 0.7 0
27.6 0.7 0
27.9 0.7 0
28.2 0.7 0
28.5 0.7 0
28.8 0.7 0
29.1 0.7 0
29.4 0.7 0
29.7 0.7 0
30 0.7 0
30.3 0.7 0
0 0.8 0
0.3 0.8 0
0.6 0.8 0
0.9 0.8 0
1.2 0.8 0
1.5 0.8 0
1.8 0.8 0
2.1 0.8 0
2.4 0.8 0
2.7 0.8 0
3 0.8 0
3.3 0.8 0
3.6 0.8 0
3.9 0.8 0
4.2 0.8 0
4.5 0.8 0
4.8 0.8 0
5.1 0.8 0
5.4 0.8 0
5.7 0.8 0
6 0.8 0
6.3 0.8 0
6.6 0.8 0
6.9 0.8 0
7.2 0.8 0
7.5 0.8 0
7.8 0.8 0
8.1 0.8 0
8.4 0.8 0
8.7 0.8 0
9 0.8 0
9.3 0.8 0
9.6 0.8 0
9.9 0.8 0
10.2 0.8 0
10.5 0.8 0
10.8 0.8 0
11.1 0.8 0
11.4 0.8 0
11.7 0.8 0
12 0.8 0
12.3 0.8 0
12.6 0.8 0
12.9 0.8 0
13.2 0.8 0
13.5 0.8 0
13.8 0.8 0
14.1 0.8 0
14.4 0.8 0
14.7 0.8 0
15 0.8 0
15.3 0.8 0
15.6 0.8 0
15.9 0.8 0
16.2 0.8 0
16.5 0.8 0
16.8 0.8 0
17.1 0.8 0
17.4 0.8 0
17.7 0.8 0
18 0.8 0
18.3 0.8 0
18.6 0.8 0
18.9 0.8 0
19.2 0.8 0
19.5 0.8 0
19.8 0.8 0
20.1 0.8 0
20.4 0.8 0
20.7 0.8 0
21 0.8 0
21.3 0.8 0
21.6 0.8 0
21.9 0.8 0
22.2 0.8 0
22.5 0.8 0
22.8 0.8 0
23.1 0.8 0
23.4 0.8 0
23.7 0.8 0
24 0.8 0
24.3 0.8 0
24.6 0.8 0
24.9 0.8 0
25.2 0.8 0
25.5 0.8 0
25.8 0.8 0
26.1 0.8 0
26.4 0.8 0
26.7 0.8 0
27 0.8 0
27.3 0.8 0
27.6 0.8 0
27.9 0.8 0
28.2 0.8 0
28.5 0.8 0
28.8 0.8 0
29.1 0.8 0
29.4 0.8 0
29.7 0.8 0
30 0.8 0
30.3 0.8 0
0 0.9 0
0.3 0.9 0
0.6 0.9 0
0.9 0.9 0
1.2 0.9 0
1.5 0.9 0
1.8 0.9 0
2.1 0.9 0
2.4 0.9 0
2.7 0.9 0
3 0.9 0
3.3 0.9 0
3.6 0.9 0
3.9 0.9 0
4.2 0.9 0
4.5 0.9 0
4.8 0.9 0
5.1 0.9 0
5.4 0.9 0
5.7 0.9 0
6 0.9 0
6.3 0.9 0
6.6 0.9 0
6.9 0.9 0
7.2 0.9 0
7.5 0.9 0
7.8 0.9 0
8.1 0.9 0
8.4 0.9 0
8.7 0.9 0
9 0.9 0
9.3 0.9 0
9.6 0.9 0
9.9 0.9 0
10.2 0.9 0
10.5 0.9 0
10.8 0.9 0
11.1 0.9 0
11.4 0.9 0
11.7 0.9 0
12 0.9 0
12.3 0.9 0
12.6 0.9 0
12.9 0.9 0
13.2 0.9 0
13.5 0.9 0
13.8 0.9 0
14.1 0.9 0
14.4 0.9 0
14.7 0.9 0
15 0.9 0
15.3 0.9 0
15.6 0.9 0
15.9 0.9 0
16.2 0.9 0
16.5 0.9 0
16.8 0.9 0
17.1 0.9 0
17.4 0.9 0
17.7 0.9 0
18 0.9 0
18.3 0.9 0
18.6 0.9 0
18.9 0.9 0
19.2 0.9 0
19.5 0.9 0
19.8 0.9 0
20.1 0.9 0
20.4 0.9 0
20.7 0.9 0
21 0.9 0
21.3 0.9 0
21.6 0.9 0
21.9 0.9 0
22.2 0.9 0
22.5 0.9 0
22.8 0.9 0
23.1 0.9 0
23.4 0.9 0
23.7 0.9 0
24 0.9 0
24.3 0.9 0
24.6 0.9 0
24.9 0.9 0
25.2 0.9 0
25.5 0.9 0
25.8 0.9 0
26.1 0.9 0
26.4 0.9 0
26.7 0.9 0
27 0.9 0
27.3 0.9 0
27.6 0.9 0
27.9 0.9 0
28.2 0.9 0
28.5 0.9 0
28.8 0.9 0
29.1 0.9 0
29.4 0.9 0
29.7 0.9 0
30 0.9 0
30.3 0.9 0
0 1 0
0.3 1 0
0.6 1 0
0.9 1 0
1.2 1 0
1.5 1 0
1.8 1 0
2.1 1 0
2.4 1 0
2.7 1 0
3 1 0
3.3 1 0
3.6 1 0
3.9 1 0
4.2 1 0
4.5 1 0
4.8 1 0
5.1 1 0
5.4 1 0
5.7 1 0
6 1 0
6.3 1 0
6.6 1 0
6.9 1 0
7.2 1 0
7.5 1 0
7.8 1 0
8.1 1 0
8.4 1 0
8.7 1 0
9 1 0
9.3 1 0
9.6 1 0
9.9 1 0
10.2 1 0
10.5 1 0
10.8 1 0
11.1 1 0
11.4 1 0
11.7 1 0
12 1 0
12.3 1 0
12.6 1 0
12.9 1 0
13.2 1 0
13.5 1 0
13.8 1 0
14.1 1 0
14.4 1 0
14.7 1 0
15 1 0
15.3 1 0
15.6 1 0
15.9 1 0
16.2 1 0
16.5 1 0
16.8 1 0
17.1 1 0
17.4 1 0
17.7 1 0
18 1 0
18.3 1 0
18.6 1 0
18.9 1 0
19.2 1 0
19.5 1 0
19.8 1 0
20.1 1 0
20.4 1 0
20.7 1 0
21 1 0
21.3 1 0
21.6 1 0
21.9 1 0
22.2 1 0
22.5 1 0
22.8 1 0
23.1 1 0
23.4 1 0
23.7 1 0
24 1 0
24.3 1 0
24.6 1 0
24.9 1 0
25.2 1 0
25.5 1 0
25.8 1 0
26.1 1 0
26.4 1 0
26.7 1 0
27 1 0
27.3 1 0
27.6 1 0
27.9 1 0
28.2 1 0
28.5 1 0
28.8 1 0
29.1 1 0
29.4 1 0
29.7 1 0
30 1 0
30.3 1 0
0 1.1 0
0.3 1.1 0
0.6 1.1 0
0.9 1.1 0
1.2 1.1 0
1.5 1.1 0
1.8 1.1 0
2.1 1.1 0
2.4 1.1 0
2.7 1.1 0
3 1.1 0
3.3 1.1 0
3.6 1.1 0
3.9 1.1 0
4.2 1.1 0
4.5 1.1 0
4.8 1.1 0
5.1 1.1 0
5.4 1.1 0
5.7 1.1 0
6 1.1 0
6.3 1.1 0
6.6 1.1 0
6.9 1.1 0
7.2 1.1 0
7.5 1.1 0
7.8 1.1 0
8.1 1.1 0
8.4 1.1 0
8.7 1.1 0
9 1.1 0
9.3 1.1 0
9.6 1.1 0
9.9 1.1 0
10.2 1.1 0
10.5 1.1 0
10.8 1.1 0
11.1 1.1 0
11.4 1.1 0
11.7 1.1 0
12 1.1 0
12.3 1.1 0
12.6 1.1 0
12.9 1.1 0
13.2 1.1 0
13.5 1.1 0
13.8 1.1 0
14.1 1.1 0
14.4 1.1 0
14.7 1.1 0
15 1.1 0
15.3 1.1 0
15.6 1.1 0
15.9 1.1 0
16.2 1.1 0
16.5 1.1 0
16.8 1.1 0
17.1 1.1 0
17.4 1.1 0
17.7 1.1 0
18 1.1 0
18.3 1.1 0
18.6 1.1 0
18.9 1.1 0
19.2 1.1 0
19.5 1.1 0
19.8 1.1 0
20.1 1.1 0
20.4 1.1 0
20.7 1.1 0
21 1.1 0
21.3 1.1 0
21.6 1.1 0
21.9 1.1 0
22.2 1.1 0
22.5 1.1 0
22.8 1.1 0
23.1 1.1 0
23.4 1.1 0
23.7 1.1 0
24 1.1 0
24.3 1.1 0
24.6 1.1 0
24.9 1.1 0
25.2 1.1 0
25.5 1.1 0
25.8 1.1 0
26.1 1.1 0
26.4 1.1 0
26.7 1.1 0
27 1.1 0
27.3 1.1 0
27.6 1.1 0
27.9 1.1 0
28.2 1.1 0
28.5 1.1 0
28.8 1.1 0
29.1 1.1 0
29.4 1.1 0
29.7 1.1 0
30 1.1 0
30.3 1.1 0

POINT_DATA 1224

SCALARS pressure double
LOOKUP_TABLE pressure
1.31577
1.31577
1.24926
1.20218
1.15922
1.11957
1.08355
1.05116
1.02206
0.995723
0.971614
0.949261
0.928287
0.908405
0.8894
0.871111
0.85342
0.836238
0.819499
0.803149
0.787146
0.771453
0.756043
0.740891
0.725974
0.711273
0.696771
0.682452
0.668304
0.654313
0.640469
0.62676
0.613177
0.599712
0.586356
0.573102
0.559943
0.546873
0.533886
0.520977
0.50814
0.495371
0.482665
0.470018
0.457427
0.444888
0.432397
0.419952
0.40755
0.395188
0.382863
0.370573
0.358316
0.34609
0.333892
0.321722
0.309577
0.297456
0.285357
0.273279
0.261221
0.249181
0.237158
0.225151
0.213159
0.201182
0.189218
0.177266
0.165326
0.153397
0.141478
0.129569
0.117669
0.105777
0.0938933
0.082017
0.0701476
0.0582848
0.0464281
0.0345772
0.0227317
0.0108912
-0.000944594
-0.0127759
-0.0246031
-0.0364263
-0.0482459
-0.0600621
-0.071875
-0.083685
-0.0954921
-0.107297
-0.119099
-0.130898
-0.142696
-0.154491
-0.166285
-0.178076
-0.189866
-0.201655
-0.213442
0.213442
1.31577
1.31577
1.24926
1.20218
1.15922
1.11957
1.08355
1.05116
1.02206
0.995723
0.971614
0.949261
0.928287
0.908405
0.8894
0.871111
0.85342
0.836238
0.819499
0.803149
0.787146
0.771453
0.756043
0.740891
0.725974
0.711273
0.696771
0.682452
0.668304
0.654313
0.640469
0.62676
0.613177
0.599712
0.586356
0.573102
0.559943
0.546873
0.533886
0.520977
0.50814
0.495371
0.482665
0.470018
0.457427
0.444888
0.432397
0.419952
0.40755
0.395188
0.382863
0.370573
0.358316
0.34609
0.333892
0.321722
0.309577
0.297456
0.285357
0.273279
0.261221
0.249181
0.237158
0.225151
0.213159
0.201182
0.189218
0.177266
0.165326
0.153397
0.141478
0.129569
0.117669
0.105777
0.0938933
0.082017
0.0701476
0.0582848
0.0464281
0.0345772
0.0227317
0.0108912
-0.000944594
-0.0127759
-0.0246031
-0.0364263
-0.0482459
-0.0600621
-0.071875
-0.083685
-0.0954921
-0.107297
-0.119099
-0.130898
-0.142696
-0.154491
-0.166285
-0.178076
-0.189866
-0.201655
-0.213442
0.213442
1.29512
1.29512
1.24746
1.20249
1.15994
1.12034
1.08425
1.05175
1.02253
0.996093
0.9719
0.949482
0.92846
0.908543
0.889512
0.871203
0.853497
0.836304
0.819557
0.8032
0.787191
0.771494
0.75608
0.740924
0.726004
0.7113
0.696796
0.682475
0.668325
0.654333
0.640486
0.626776
0.613192
0.599726
0.586369
0.573114
0.559954
0.546884
0.533896
0.520986
0.508148
0.495378
0.482672
0.470025
0.457433
0.444894
0.432403
0.419958
0.407555
0.395192
0.382867
0.370577
0.35832
0.346093
0.333896
0.321725
0.30958
0.297459
0.28536
0.273281
0.261223
0.249183
0.23716
0.225153
0.213161
0.201183
0.189219
0.177267
0.165327
0.153398
0.141479
0.12957
0.11767
0.105778
0.0938942
0.0820178
0.0701484
0.0582855
0.0464288
0.0345778
0.0227323
0.0108917
-0.000944078
-0.0127754
-0.0246026
-0.0364259
-0.0482455
-0.0600617
-0.0718747
-0.0836847
-0.0954918
-0.107296
-0.119098
-0.130898
-0.142695
-0.154491
-0.166284
-0.178076
-0.189866
-0.201655
-0.213441
0.213441
1.28073
1.28073
1.24495
1.20288
1.16107
1.12161
1.08542
1.05274
1.02332
0.9967
0.972356
0.949822
0.928716
0.908737
0.889662
0.871321
0.853592
0.836383
0.819623
0.803256
0.787239
0.771536
0.756117
0.740957
0.726033
0.711327
0.696819
0.682497
0.668345
0.65435
0.640503
0.626791
0.613206
0.599738
0.58638
0.573124
0.559964
0.546893
0.533904
0.520993
0.508155
0.495385
0.482678
0.470031
0.457439
0.444899
0.432408
0.419962
0.407559
0.395196
0.382871
0.37058
0.358323
0.346096
0.333898
0.321728
0.309582
0.297461
0.285362
0.273283
0.261225
0.249184
0.237161
0.225154
0.213162
0.201185
0.18922
0.177269
0.165328
0.153399
0.14148
0.129571
0.117671
0.105779
0.0938949
0.0820185
0.070149
0.0582861
0.0464294
0.0345783
0.0227327
0.0108922
-0.000943664
-0.012775
-0.0246023
-0.0364256
-0.0482452
-0.0600614
-0.0718744
-0.0836844
-0.0954916
-0.107296
-0.119098
-0.130898
-0.142695
-0.154491
-0.166284
-0.178076
-0.189866
-0.201654
-0.213438
0.213438
1.27204
1.27204
1.24294
1.20314
1.162
1.12268
1.08645
1.05364
1.02406
0.997279
0.972804
0.950167
0.928982
0.908946
0.889827
0.871454
0.853702
0.836475
0.8197
0.803323
0.787297
0.771587
0.756162
0.740997
0.726069
0.711358
0.696848
0.682523
0.668368
0.654372
0.640522
0.626809
0.613222
0.599753
0.586394
0.573137
0.559975
0.546903
0.533914
0.521003
0.508164
0.495393
0.482685
0.470037
0.457445
0.444905
0.432413
0.419967
0.407564
0.3952
0.382875
0.370584
0.358326
0.346099
0.333901
0.321731
0.309585
0.297463
0.285364
0.273286
0.261227
0.249186
0.237163
0.225156
0.213164
0.201186
0.189222
0.17727
0.16533
0.1534
0.141481
0.129572
0.117671
0.10578
0.0938957
0.0820192
0.0701497
0.0582868
0.04643
0.0345789
0.0227333
0.0108927
-0.000943187
-0.0127746
-0.0246018
-0.0364252
-0.0482448
-0.0600611
-0.0718741
-0.0836841
-0.0954913
-0.107296
-0.119098
-0.130898
-0.142695
-0.154491
-0.166284
-0.178076
-0.189865
-0.201653
-0.213432
0.213432
1.26796
1.26796
1.24186
1.20326
1.16249
1.12327
1.08702
1.05414
1.02447
0.997614
0.973067
0.950374
0.929146
0.909076
0.889932
0.871541
0.853775
0.836537
0.819754
0.803369
0.787338
0.771623
0.756195
0.741026
0.726095
0.711382
0.69687
0.682542
0.668386
0.654388
0.640537
0.626822
0.613234
0.599764
0.586404
0.573147
0.559984
0.546911
0.533922
0.52101
0.50817
0.495399
0.482691
0.470043
0.45745
0.444909
0.432417
0.419971
0.407567
0.395204
0.382878
0.370587
0.358329
0.346102
0.333904
0.321733
0.309587
0.297465
0.285366
0.273287
0.261228
0.249188
0.237164
0.225157
0.213165
0.201187
0.189223
0.177271
0.16533
0.153401
0.141482
0.129573
0.117672
0.10578
0.0938963
0.0820198
0.0701503
0.0582873
0.0464305
0.0345794
0.0227337
0.0108931
-0.000942807
-0.0127742
-0.0246015
-0.0364249
-0.0482445
-0.0600608
-0.0718738
-0.0836839
-0.095491
-0.107296
-0.119098
-0.130897
-0.142695
-0.15449
-0.166284
-0.178076
-0.189865
-0.201652
-0.213428
0.213428
1.26796
1.26796
1.24186
1.20326
1.16249
1.12327
1.08702
1.05414
1.02447
0.997613
0.973067
0.950374
0.929146
0.909076
0.889932
0.871541
0.853775
0.836537
0.819754
0.803369
0.787338
0.771624
0.756195
0.741026
0.726095
0.711382
0.69687
0.682542
0.668386
0.654388
0.640537
0.626822
0.613234
0.599764
0.586404
0.573147
0.559984
0.546911
0.533922
0.52101
0.50817
0.495399
0.482691
0.470043
0.45745
0.444909
0.432417
0.419971
0.407567
0.395204
0.382878
0.370587
0.358329
0.346102
0.333904
0.321733
0.309587
0.297465
0.285366
0.273287
0.261228
0.249188
0.237164
0.225157
0.213165
0.201187
0.189223
0.177271
0.16533
0.153401
0.141482
0.129573
0.117672
0.10578
0.0938963
0.0820198
0.0701503
0.0582873
0.0464305
0.0345794
0.0227337
0.0108931
-0.000942807
-0.0127742
-0.0246015
-0.0364249
-0.0482445
-0.0600608
-0.0718738
-0.0836839
-0.095491
-0.107296
-0.119098
-0.130897
-0.142695
-0.15449
-0.166284
-0.178076
-0.189865
-0.201652
-0.213428
0.213428
1.27204
1.27204
1.24294
1.20314
1.162
1.12268
1.08645
1.05364
1.02406
0.997279
0.972803
0.950167
0.928982
0.908945
0.889826
0.871454
0.853702
0.836475
0.8197
0.803323
0.787297
0.771587
0.756162
0.740997
0.726069
0.711358
0.696848
0.682523
0.668368
0.654372
0.640522
0.626809
0.613222
0.599753
0.586394
0.573137
0.559975
0.546903
0.533914
0.521003
0.508164
0.495393
0.482685
0.470037
0.457445
0.444905
0.432413
0.419967
0.407564
0.3952
0.382875
0.370584
0.358326
0.346099
0.333901
0.321731
0.309585
0.297463
0.285364
0.273286
0.261227
0.249186
0.237163
0.225156
0.213164
0.201186
0.189222
0.17727
0.16533
0.1534
0.141481
0.129572
0.117671
0.10578
0.0938957
0.0820192
0.0701497
0.0582868
0.04643
0.0345789
0.0227333
0.0108927
-0.000943187
-0.0127746
-0.0246018
-0.0364252
-0.0482448
-0.0600611
-0.0718741
-0.0836841
-0.0954913
-0.107296
-0.119098
-0.130898
-0.142695
-0.154491
-0.166284
-0.178076
-0.189865
-0.201653
-0.213432
0.213432
1.28073
1.28073
1.24495
1.20288
1.16107
1.12161
1.08542
1.05274
1.02332
0.9967
0.972355
0.949822
0.928716
0.908737
0.889661
0.871321
0.853593
0.836383
0.819622
0.803256
0.787239
0.771536
0.756117
0.740957
0.726033
0.711326
0.696819
0.682497
0.668345
0.65435
0.640503
0.626791
0.613206
0.599738
0.58638
0.573124
0.559964
0.546893
0.533904
0.520993
0.508155
0.495385
0.482678
0.470031
0.457439
0.444899
0.432408
0.419962
0.407559
0.395196
0.382871
0.37058
0.358323
0.346096
0.333898
0.321728
0.309582
0.297461
0.285362
0.273283
0.261225
0.249184
0.237161
0.225154
0.213162
0.201185
0.18922
0.177269
0.165328
0.153399
0.14148
0.129571
0.117671
0.105779
0.0938949
0.0820185
0.070149
0.0582861
0.0464294
0.0345783
0.0227327
0.0108922
-0.000943665
-0.012775
-0.0246023
-0.0364256
-0.0482452
-0.0600614
-0.0718744
-0.0836844
-0.0954916
-0.107296
-0.119098
-0.130898
-0.142695
-0.154491
-0.166284
-0.178076
-0.189866
-0.201654
-0.213438
0.213438
1.29512
1.29512
1.24746
1.20249
1.15994
1.12034
1.08425
1.05175
1.02253
0.996093
0.971899
0.949482
0.92846
0.908543
0.889512
0.871203
0.853497
0.836304
0.819557
0.8032
0.78719
0.771494
0.75608
0.740924
0.726004
0.7113
0.696796
0.682475
0.668325
0.654333
0.640486
0.626776
0.613192
0.599726
0.586369
0.573114
0.559954
0.546884
0.533896
0.520986
0.508148
0.495378
0.482672
0.470025
0.457433
0.444894
0.432403
0.419958
0.407555
0.395192
0.382867
0.370577
0.35832
0.346093
0.333896
0.321725
0.30958
0.297459
0.28536
0.273281
0.261223
0.249183
0.23716
0.225153
0.213161
0.201183
0.189219
0.177267
0.165327
0.153398
0.141479
0.12957
0.11767
0.105778
0.0938942
0.0820178
0.0701484
0.0582855
0.0464288
0.0345778
0.0227323
0.0108917
-0.000944078
-0.0127754
-0.0246026
-0.0364259
-0.0482455
-0.0600617
-0.0718747
-0.0836847
-0.0954918
-0.107296
-0.119098
-0.130898
-0.142695
-0.154491
-0.166284
-0.178076
-0.189866
-0.201655
-0.213441
0.213441
1.31577
1.31577
1.24926
1.20218
1.15922
1.11957
1.08355
1.05116
1.02206
0.995724
0.971614
0.949261
0.928288
0.908406
0.8894
0.871111
0.853419
0.836238
0.819499
0.803149
0.787145
0.771453
0.756044
0.740891
0.725974
0.711273
0.696771
0.682453
0.668304
0.654313
0.640469
0.62676
0.613177
0.599712
0.586356
0.573102
0.559943
0.546873
0.533886
0.520977
0.50814
0.495371
0.482665
0.470018
0.457427
0.444888
0.432397
0.419952
0.40755
0.395188
0.382863
0.370573
0.358316
0.34609
0.333892
0.321722
0.309577
0.297456
0.285357
0.273279
0.261221
0.249181
0.237158
0.225151
0.213159
0.201182
0.189218
0.177266
0.165326
0.153397
0.141478
0.129569
0.117669
0.105777
0.0938933
0.082017
0.0701476
0.0582848
0.0464281
0.0345772
0.0227317
0.0108912
-0.000944595
-0.0127759
-0.0246031
-0.0364263
-0.0482459
-0.0600621
-0.071875
-0.083685
-0.0954921
-0.107297
-0.119099
-0.130898
-0.142696
-0.154491
-0.166285
-0.178076
-0.189866
-0.201655
-0.213442
0.213442
1.31577
1.31577
1.24926
1.20218
1.15922
1.11957
1.08355
1.05116
1.02206
0.995724
0.971614
0.949261
0.928288
0.908406
0.8894
0.871111
0.853419
0.836238
0.819499
0.803149
0.787145
0.771453
0.756044
0.740891
0.725974
0.711273
0.696771
0.682453
0.668304
0.654313
0.640469
0.62676
0.613177
0.599712
0.586356
0.573102
0.559943
0.546873
0.533886
0.520977
0.50814
0.495371
0.482665
0.470018
0.457427
0.444888
0.432397
0.419952
0.40755
0.395188
0.382863
0.370573
0.358316
0.34609
0.333892
0.321722
0.309577
0.297456
0.285357
0.273279
0.261221
0.249181
0.237158
0.225151
0.213159
0.201182
0.189218
0.177266
0.165326
0.153397
0.141478
0.129569
0.117669
0.105777
0.0938933
0.082017
0.0701476
0.0582848
0.0464281
0.0345772
0.0227317
0.0108912
-0.000944595
-0.0127759
-0.0246031
-0.0364263
-0.0482459
-0.0600621
-0.071875
-0.083685
-0.0954921
-0.107297
-0.119099
-0.130898
-0.142696
-0.154491
-0.166285
-0.178076
-0.189866
-0.201655
-0.213442
0.213442
SCALARS phi double
LOOKUP_TABLE phi
1
1
1
0.999995
0.999977
0.999931
0.999833
0.999655
0.999364
0.998929
0.998323
0.997523
0.996512
0.995279
0.993815
0.992118
0.990189
0.988032
0.985653
0.983059
0.980261
0.97727
0.974097
0.970755
0.967257
0.963614
0.95984
0.955947
0.951946
0.94785
0.943668
0.939412
0.935091
0.930712
0.926281
0.9218
0.917268
0.912679
0.90802
0.903275
0.898423
0.893437
0.888288
0.882943
0.877371
0.871537
0.865409
0.858957
0.852154
0.844976
0.837404
0.829421
0.821019
0.812191
0.802936
0.793257
0.783163
0.772665
0.761778
0.75052
0.73891
0.726973
0.714732
0.702214
0.689444
0.67645
0.66326
0.649902
0.636401
0.622786
0.609081
0.595313
0.581506
0.567681
0.553863
0.540071
0.526324
0.512642
0.499041
0.485536
0.472143
0.458874
0.445742
0.432757
0.419929
0.407267
0.394778
0.38247
0.370348
0.358418
0.346682
0.335146
0.323812
0.312682
0.301755
0.291043
0.280515
0.270272
0.259972
0.250805
0.238551
0.238551
1
1
1
0.999995
0.999977
0.999931
0.999833
0.999655
0.999364
0.998929
0.998323
0.997523
0.996512
0.995279
0.993815
0.992118
0.990189
0.988032
0.985653
0.983059
0.980261
0.97727
0.974097
0.970755
0.967257
0.963614
0.95984
0.955947
0.951946
0.94785
0.943668
0.939412
0.935091
0.930712
0.926281
0.9218
0.917268
0.912679
0.90802
0.903275
0.898423
0.893437
0.888288
0.882943
0.877371
0.871537
0.865409
0.858957
0.852154
0.844976
0.837404
0.829421
0.821019
0.812191
0.802936
0.793257
0.783163
0.772665
0.761778
0.75052
0.73891
0.726973
0.714732
0.702214
0.689444
0.67645
0.66326
0.649902
0.636401
0.622786
0.609081
0.595313
0.581506
0.567681
0.553863
0.540071
0.526324
0.512642
0.499041
0.485536
0.472143
0.458874
0.445742
0.432757
0.419929
0.407267
0.394778
0.38247
0.370348
0.358418
0.346682
0.335146
0.323812
0.312682
0.301755
0.291043
0.280515
0.270272
0.259972
0.250805
0.238551
0.238551
0.999998
1
0.999984
0.999921
0.999783
0.999536
0.999146
0.99858
0.997812
0.996819
0.99559
0.994116
0.992398
0.990437
0.98824
0.985817
0.983177
0.980333
0.977297
0.974081
0.9707
0.967166
0.963491
0.95969
0.955773
0.951752
0.947639
0.943445
0.939179
0.93485
0.930469
0.926043
0.921579
0.917086
0.91257
0.908034
0.903483
0.898916
0.894334
0.88973
0.885097
0.880425
0.875698
0.870899
0.866007
0.861
0.855855
0.850546
0.845048
0.839337
0.83339
0.827185
0.820702
0.813926
0.806841
0.799438
0.791708
0.783648
0.775255
0.766532
0.757483
0.748116
0.73844
0.728467
0.718212
0.707689
0.696916
0.68591
0.67469
0.663276
0.651688
0.639945
0.628067
0.616075
0.603987
0.591823
0.579602
0.567342
0.555059
0.542771
0.530492
0.518239
0.506025
0.493863
0.481766
0.469744
0.45781
0.445971
0.434238
0.422619
0.411121
0.39975
0.388512
0.377414
0.366457
0.355656
0.344975
0.334552
0.323939
0.31464
0.301645
0.301645
1.00001
0.999992
0.99954
0.998615
0.997207
0.995317
0.992955
0.990145
0.986922
0.983332
0.979422
0.975241
0.970836
0.966248
0.961513
0.956664
0.951728
0.946728
0.941682
0.936608
0.931519
0.926427
0.921341
0.916268
0.911216
0.906189
0.901194
0.896232
0.891307
0.886422
0.881579
0.87678
0.872025
0.867316
0.862654
0.858039
0.853472
0.848951
0.844476
0.840045
0.835655
0.831302
0.826979
0.82268
0.818396
0.814116
0.809828
0.805519
0.801174
0.796778
0.792313
0.787764
0.783114
0.778345
0.773441
0.768387
0.763168
0.757772
0.752186
0.7464
0.740405
0.734195
0.727765
0.721111
0.714232
0.707127
0.699799
0.692251
0.684487
0.676514
0.668337
0.659966
0.651409
0.642676
0.633778
0.624725
0.615528
0.6062
0.596751
0.587194
0.57754
0.567802
0.55799
0.548117
0.538192
0.528228
0.518235
0.508222
0.498199
0.488175
0.47816
0.468161
0.458186
0.448244
0.438336
0.428485
0.418648
0.408984
0.399004
0.390303
0.377784
0.377784
1.00143
0.99857
0.991252
0.98188
0.971566
0.96086
0.950051
0.939311
0.928756
0.918468
0.908503
0.898898
0.889671
0.880827
0.87236
0.864261
0.856513
0.849098
0.841997
0.835192
0.828664
0.822396
0.816369
0.810568
0.80498
0.799588
0.794382
0.789348
0.784477
0.779758
0.775181
0.770738
0.766422
0.762224
0.758139
0.754159
0.75028
0.746495
0.742799
0.739188
0.735658
0.732202
0.728816
0.725496
0.722235
0.719029
0.71587
0.712752
0.709667
0.706608
0.703565
0.700529
0.697491
0.69444
0.691366
0.688257
0.685103
0.681893
0.678616
0.67526
0.671817
0.668275
0.664626
0.660862
0.656973
0.652952
0.648795
0.644494
0.640046
0.635447
0.630694
0.625785
0.620719
0.615495
0.610116
0.60458
0.598891
0.593052
0.587064
0.580933
0.574662
0.568256
0.561719
0.555057
0.548276
0.54138
0.534376
0.52727
0.520068
0.512775
0.505397
0.497941
0.490412
0.482817
0.475157
0.467452
0.459662
0.451935
0.443826
0.43675
0.426295
0.426295
1.0456
0.954401
0.887723
0.838674
0.801641
0.772861
0.749886
0.731119
0.715499
0.702298
0.691001
0.681228
0.672693
0.665173
0.658493
0.652515
0.647126
0.642236
0.637772
0.633673
0.629891
0.626382
0.623115
0.620059
0.61719
0.614489
0.611936
0.609518
0.607221
0.605034
0.602947
0.60095
0.599038
0.597202
0.595437
0.593737
0.592097
0.590514
0.588983
0.5875
0.586063
0.584668
0.583313
0.581994
0.58071
0.579457
0.578232
0.577033
0.575857
0.574701
0.573561
0.572433
0.571314
0.570199
0.569084
0.567964
0.566833
0.565685
0.564516
0.563318
0.562086
0.560814
0.559494
0.558121
0.556687
0.555187
0.553614
0.551961
0.550223
0.548395
0.54647
0.544443
0.542309
0.540065
0.537705
0.535227
0.532626
0.5299
0.527046
0.524063
0.520947
0.517698
0.514315
0.510797
0.507143
0.503354
0.49943
0.49537
0.491177
0.486851
0.482393
0.477805
0.473087
0.468244
0.463273
0.458188
0.452954
0.447688
0.442042
0.437094
0.42954
0.42954
-0.0455988
0.0455988
0.112277
0.161326
0.198359
0.227139
0.250114
0.268881
0.284501
0.297702
0.308999
0.318772
0.327307
0.334827
0.341507
0.347485
0.352874
0.357764
0.362228
0.366326
0.370109
0.373617
0.376885
0.379941
0.38281
0.385511
0.388064
0.390482
0.392779
0.394966
0.397053
0.39905
0.400962
0.402798
0.404563
0.406263
0.407903
0.409486
0.411017
0.412499
0.413936
0.41533
0.416684
0.418001
0.419281
0.420528
0.421743
0.422928
0.424083
0.425209
0.426308
0.42738
0.428425
0.429443
0.430433
0.431396
0.43233
0.433234
0.434106
0.434945
0.435749
0.436514
0.437239
0.43792
0.438554
0.439137
0.439666
0.440137
0.440545
0.440886
0.441155
0.441348
0.441461
0.441488
0.441424
0.441266
0.441007
0.440644
0.440171
0.439585
0.43888
0.438052
0.437097
0.436012
0.434792
0.433433
0.431933
0.430287