# vtk DataFile Version 3.0
FlowField
ASCII
DATASET STRUCTURED_GRID
DIMENSIONS 22 17 12 
POINTS 4488 double
0 0 0
0.1 0 0
0.2 0 0
0.3 0 0
0.4 0 0
0.5 0 0
0.6 0 0
0.7 0 0
0.8 0 0
0.9 0 0
1 0 0
1.1 0 0
1.2 0 0
1.3 0 0
1.4 0 0
1.5 0 0
1.6 0 0
1.7 0 0
1.8 0 0
1.9 0 0
2 0 0
2.1 0 0
0 0.1 0
0.1 0.1 0
0.2 0.1 0
0.3 0.1 0
0.4 0.1 0
0.5 0.1 0
0.6 0.1 0
0.7 0.1 0
0.8 0.1 0
0.9 0.1 0
1 0.1 0
1.1 0.1 0
1.2 0.1 0
1.3 0.1 0
1.4 0.1 0
1.5 0.1 0
1.6 0.1 0
1.7 0.1 0
1.8 0.1 0
1.9 0.1 0
2 0.1 0
2.1 0.1 0
0 0.2 0
0.1 0.2 0
0.2 0.2 0
0.3 0.2 0
0.4 0.2 0
0.5 0.2 0
0.6 0.2 0
0.7 0.2 0
0.8 0.2 0
0.9 0.2 0
1 0.2 0
1.1 0.2 0
1.2 0.2 0
1.3 0.2 0
1.4 0.2 0
1.5 0.2 0
1.6 0.2 0
1.7 0.2 0
1.8 0.2 0
1.9 0.2 0
2 0.2 0
2.1 0.2 0
0 0.3 0
0.1 0.3 0
0.2 0.3 0
0.3 0.3 0
0.4 0.3 0
0.5 0.3 0
0.6 0.3 0
0.7 0.3 0
0.8 0.3 0
0.9 0.3 0
1 0.3 0
1.1 0.3 0
1.2 0.3 0
1.3 0.3 0
1.4 0.3 0
1.5 0.3 0
1.6 0.3 0
1.7 0.3 0
1.8 0.3 0
1.9 0.3 0
2 0.3 0
2.1 0.3 0
0 0.4 0
0.1 0.4 0
0.2 0.4 0
0.3 0.4 0
0.4 0.4 0
0.5 0.4 0
0.6 0.4 0
0.7 0.4 0
0.8 0.4 0
0.9 0.4 0
1 0.4 0
1.1 0.4 0
1.2 0.4 0
1.3 0.4 0
1.4 0.4 0
1.5 0.4 0
1.6 0.4 0
1.7 0.4 0
1.8 0.4 0
1.9 0.4 0
2 0.4 0
2.1 0.4 0
0 0.5 0
0.1 0.5 0
0.2 0.5 0
0.3 0.5 0
0.4 0.5 0
0.5 0.5 0
0.6 0.5 0
0.7 0.5 0
0.8 0.5 0
0.9 0.5 0
1 0.5 0
1.1 0.5 0
1.2 0.5 0
1.3 0.5 0
1.4 0.5 0
1.5 0.5 0
1.6 0.5 0
1.7 0.5 0
1.8 0.5 0
1.9 0.5 0
2 0.5 0
2.1 0.5 0
0 0.6 0
0.1 0.6 0
0.2 0.6 0
0.3 0.6 0
0.4 0.6 0
0.5 0.6 0
0.6 0.6 0
0.7 0.6 0
0.8 0.6 0
0.9 0.6 0
1 0.6 0
1.1 0.6 0
1.2 0.6 0
1.3 0.6 0
1.4 0.6 0
1.5 0.6 0
1.6 0.6 0
1.7 0.6 0
1.8 0.6 0
1.9 0.6 0
2 0.6 0
2.1 0.6 0
0 0.7 0
0.1 0.7 0
0.2 0.7 0
0.3 0.7 0
0.4 0.7 0
0.5 0.7 0
0.6 0.7 0
0.7 0.7 0
0.8 0.7 0
0.9 0.7 0
1 0.7 0
1.1 0.7 0
1.2 0.7 0
1.3 0.7 0
1.4 0.7 0
1.5 0.7 0
1.6 0.7 0
1.7 0.7 0
1.8 0.7 0
1.9 0.7 0
2 0.7 0
2.1 0.7 0
0 0.8 0
0.1 0.8 0
0.2 0.8 0
0.3 0.8 0
0.4 0.8 0
0.5 0.8 0
0.6 0.8 0
0.7 0.8 0
0.8 0.8 0
0.9 0.8 0
1 0.8 0
1.1 0.8 0
1.2 0.8 0
1.3 0.8 0
1.4 0.8 0
1.5 0.8 0
1.6 0.8 0
1.7 0.8 0
1.8 0.8 0
1.9 0.8 0
2 0.8 0
2.1 0.8 0
0 0.9 0
0.1 0.9 0
0.2 0.9 0
0.3 0.9 0
0.4 0.9 0
0.5 0.9 0
0.6 0.9 0
0.7 0.9 0
0.8 0.9 0
0.9 0.9 0
1 0.9 0
1.1 0.9 0
1.2 0.9 0
1.3 0.9 0
1.4 0.9 0
1.5 0.9 0
1.6 0.9 0
1.7 0.9 0
1.8 0.9 0
1.9 0.9 0
2 0.9 0
2.1 0.9 0
0 1 0
0.1 1 0
0.2 1 0
0.3 1 0
0.4 1 0
0.5 1 0
0.6 1 0
0.7 1 0
0.8 1 0
0.9 1 0
1 1 0
1.1 1 0
1.2 1 0
1.3 1 0
1.4 1 0
1.5 1 0
1.6 1 0
1.7 1 0
1.8 1 0
1.9 1 0
2 1 0
2.1 1 0
0 1.1 0
0.1 1.1 0
0.2 1.1 0
0.3 1.1 0
0.4 1.1 0
0.5 1.1 0
0.6 1.1 0
0.7 1.1 0
0.8 1.1 0
0.9 1.1 0
1 1.1 0
1.1 1.1 0
1.2 1.1 0
1.3 1.1 0
1.4 1.1 0
1.5 1.1 0
1.6 1.1 0
1.7 1.1 0
1.8 1.1 0
1.9 1.1 0
2 1.1 0
2.1 1.1 0
0 1.2 0
0.1 1.2 0
0.2 1.2 0
0.3 1.2 0
0.4 1.2 0
0.5 1.2 0
0.6 1.2 0
0.7 1.2 0
0.8 1.2 0
0.9 1.2 0
1 1.2 0
1.1 1.2 0
1.2 1.2 0
1.3 1.2 0
1.4 1.2 0
1.5 1.2 0
1.6 1.2 0
1.7 1.2 0
1.8 1.2 0
1.9 1.2 0
2 1.2 0
2.1 1.2 0
0 1.3 0
0.1 1.3 0
0.2 1.3 0
0.3 1.3 0
0.4 1.3 0
0.5 1.3 0
0.6 1.3 0
0.7 1.3 0
0.8 1.3 0
0.9 1.3 0
1 1.3 0
1.1 1.3 0
1.2 1.3 0
1.3 1.3 0
1.4 1.3 0
1.5 1.3 0
1.6 1.3 0
1.7 1.3 0
1.8 1.3 0
1.9 1.3 0
2 1.3 0
2.1 1.3 0
0 1.4 0
0.1 1.4 0
0.2 1.4 0
0.3 1.4 0
0.4 1.4 0
0.5 1.4 0
0.6 1.4 0
0.7 1.4 0
0.8 1.4 0
0.9 1.4 0
1 1.4 0
1.1 1.4 0
1.2 1.4 0
1.3 1.4 0
1.4 1.4 0
1.5 1.4 0
1.6 1.4 0
1.7 1.4 0
1.8 1.4 0
1.9 1.4 0
2 1.4 0
2.1 1.4 0
0 1.5 0
0.1 1.5 0
0.2 1.5 0
0.3 1.5 0
0.4 1.5 0
0.5 1.5 0
0.6 1.5 0
0.7 1.5 0
0.8 1.5 0
0.9 1.5 0
1 1.5 0
1.1 1.5 0
1.2 1.5 0
1.3 1.5 0
1.4 1.5 0
1.5 1.5 0
1.6 1.5 0
1.7 1.5 0
1.8 1.5 0
1.9 1.5 0
2 1.5 0
2.1 1.5 0
0 1.6 0
0.1 1.6 0
0.2 1.6 0
0.3 1.6 0
0.4 1.6 0
0.5 1.6 0
0.6 1.6 0
0.7 1.6 0
0.8 1.6 0
0.9 1.6 0
1 1.6 0
1.1 1.6 0
1.2 1.6 0
1.3 1.6 0
1.4 1.6 0
1.5 1.6 0
1.6 1.6 0
1.7 1.6 0
1.8 1.6 0
1.9 1.6 0
2 1.6 0
2.1 1.6 0
0 0 0.1
0.1 0 0.1
0.2 0 0.1
0.3 0 0.1
0.4 0 0.1
0.5 0 0.1
0.6 0 0.1
0.7 0 0.1
0.8 0 0.1
0.9 0 0.1
1 0 0.1
1.1 0 0.1
1.2 0 0.1
1.3 0 0.1
1.4 0 0.1
1.5 0 0.1
1.6 0 0.1
1.7 0 0.1
1.8 0 0.1
1.9 0 0.1
2 0 0.1
2.1 0 0.1
0 0.1 0.1
0.1 0.1 0.1
0.2 0.1 0.1
0.3 0.1 0.1
0.4 0.1 0.1
0.5 0.1 0.1
0.6 0.1 0.1
0.7 0.1 0.1
0.8 0.1 0.1
0.9 0.1 0.1
1 0.1 0.1
1.1 0.1 0.1
1.2 0.1 0.1
1.3 0.1 0.1
1.4 0.1 0.1
1.5 0.1 0.1
1.6 0.1 0.1
1.7 0.1 0.1
1.8 0.1 0.1
1.9 0.1 0.1
2 0.1 0.1
2.1 0.1 0.1
0 0.2 0.1
0.1 0.2 0.1
0.2 0.2 0.1
0.3 0.2 0.1
0.4 0.2 0.1
0.5 0.2 0.1
0.6 0.2 0.1
0.7 0.2 0.1
0.8 0.2 0.1
0.9 0.2 0.1
1 0.2 0.1
1.1 0.2 0.1
1.2 0.2 0.1
1.3 0.2 0.1
1.4 0.2 0.1
1.5 0.2 0.1
1.6 0.2 0.1
1.7 0.2 0.1
1.8 0.2 0.1
1.9 0.2 0.1
2 0.2 0.1
2.1 0.2 0.1
0 0.3 0.1
0.1 0.3 0.1
0.2 0.3 0.1
0.3 0.3 0.1
0.4 0.3 0.1
0.5 0.3 0.1
0.6 0.3 0.1
0.7 0.3 0.1
0.8 0.3 0.1
0.9 0.3 0.1
1 0.3 0.1
1.1 0.3 0.1
1.2 0.3 0.1
1.3 0.3 0.1
1.4 0.3 0.1
1.5 0.3 0.1
1.6 0.3 0.1
1.7 0.3 0.1
1.8 0.3 0.1
1.9 0.3 0.1
2 0.3 0.1
2.1 0.3 0.1
0 0.4 0.1
0.1 0.4 0.1
0.2 0.4 0.1
0.3 0.4 0.1
0.4 0.4 0.1
0.5 0.4 0.1
0.6 0.4 0.1
0.7 0.4 0.1
0.8 0.4 0.1
0.9 0.4 0.1
1 0.4 0.1
1.1 0.4 0.1
1.2 0.4 0.1
1.3 0.4 0.1
1.4 0.4 0.1
1.5 0.4 0.1
1.6 0.4 0.1
1.7 0.4 0.1
1.8 0.4 0.1
1.9 0.4 0.1
2 0.4 0.1
2.1 0.4 0.1
0 0.5 0.1
0.1 0.5 0.1
0.2 0.5 0.1
0.3 0.5 0.1
0.4 0.5 0.1
0.5 0.5 0.1
0.6 0.5 0.1
0.7 0.5 0.1
0.8 0.5 0.1
0.9 0.5 0.1
1 0.5 0.1
1.1 0.5 0.1
1.2 0.5 0.1
1.3 0.5 0.1
1.4 0.5 0.1
1.5 0.5 0.1
1.6 0.5 0.1
1.7 0.5 0.1
1.8 0.5 0.1
1.9 0.5 0.1
2 0.5 0.1
2.1 0.5 0.1
0 0.6 0.1
0.1 0.6 0.1
0.2 0.6 0.1
0.3 0.6 0.1
0.4 0.6 0.1
0.5 0.6 0.1
0.6 0.6 0.1
0.7 0.6 0.1
0.8 0.6 0.1
0.9 0.6 0.1
1 0.6 0.1
1.1 0.6 0.1
1.2 0.6 0.1
1.3 0.6 0.1
1.4 0.6 0.1
1.5 0.6 0.1
1.6 0.6 0.1
1.7 0.6 0.1
1.8 0.6 0.1
1.9 0.6 0.1
2 0.6 0.1
2.1 0.6 0.1
0 0.7 0.1
0.1 0.7 0.1
0.2 0.7 0.1
0.3 0.7 0.1
0.4 0.7 0.1
0.5 0.7 0.1
0.6 0.7 0.1
0.7 0.7 0.1
0.8 0.7 0.1
0.9 0.7 0.1
1 0.7 0.1
1.1 0.7 0.1
1.2 0.7 0.1
1.3 0.7 0.1
1.4 0.7 0.1
1.5 0.7 0.1
1.6 0.7 0.1
1.7 0.7 0.1
1.8 0.7 0.1
1.9 0.7 0.1
2 0.7 0.1
2.1 0.7 0.1
0 0.8 0.1
0.1 0.8 0.1
0.2 0.8 0.1
0.3 0.8 0.1
0.4 0.8 0.1
0.5 0.8 0.1
0.6 0.8 0.1
0.7 0.8 0.1
0.8 0.8 0.1
0.9 0.8 0.1
1 0.8 0.1
1.1 0.8 0.1
1.2 0.8 0.1
1.3 0.8 0.1
1.4 0.8 0.1
1.5 0.8 0.1
1.6 0.8 0.1
1.7 0.8 0.1
1.8 0.8 0.1
1.9 0.8 0.1
2 0.8 0.1
2.1 0.8 0.1
0 0.9 0.1
0.1 0.9 0.1
0.2 0.9 0.1
0.3 0.9 0.1
0.4 0.9 0.1
0.5 0.9 0.1
0.6 0.9 0.1
0.7 0.9 0.1
0.8 0.9 0.1
0.9 0.9 0.1
1 0.9 0.1
1.1 0.9 0.1
1.2 0.9 0.1
1.3 0.9 0.1
1.4 0.9 0.1
1.5 0.9 0.1
1.6 0.9 0.1
1.7 0.9 0.1
1.8 0.9 0.1
1.9 0.9 0.1
2 0.9 0.1
2.1 0.9 0.1
0 1 0.1
0.1 1 0.1
0.2 1 0.1
0.3 1 0.1
0.4 1 0.1
0.5 1 0.1
0.6 1 0.1
0.7 1 0.1
0.8 1 0.1
0.9 1 0.1
1 1 0.1
1.1 1 0.1
1.2 1 0.1
1.3 1 0.1
1.4 1 0.1
1.5 1 0.1
1.6 1 0.1
1.7 1 0.1
1.8 1 0.1
1.9 1 0.1
2 1 0.1
2.1 1 0.1
0 1.1 0.1
0.1 1.1 0.1
0.2 1.1 0.1
0.3 1.1 0.1
0.4 1.1 0.1
0.5 1.1 0.1
0.6 1.1 0.1
0.7 1.1 0.1
0.8 1.1 0.1
0.9 1.1 0.1
1 1.1 0.1
1.1 1.1 0.1
1.2 1.1 0.1
1.3 1.1 0.1
1.4 1.1 0.1
1.5 1.1 0.1
1.6 1.1 0.1
1.7 1.1 0.1
1.8 1.1 0.1
1.9 1.1 0.1
2 1.1 0.1
2.1 1.1 0.1
0 1.2 0.1
0.1 1.2 0.1
0.2 1.2 0.1
0.3 1.2 0.1
0.4 1.2 0.1
0.5 1.2 0.1
0.6 1.2 0.1
0.7 1.2 0.1
0.8 1.2 0.1
0.9 1.2 0.1
1 1.2 0.1
1.1 1.2 0.1
1.2 1.2 0.1
1.3 1.2 0.1
1.4 1.2 0.1
1.5 1.2 0.1
1.6 1.2 0.1
1.7 1.2 0.1
1.8 1.2 0.1
1.9 1.2 0.1
2 1.2 0.1
2.1 1.2 0.1
0 1.3 0.1
0.1 1.3 0.1
0.2 1.3 0.1
0.3 1.3 0.1
0.4 1.3 0.1
0.5 1.3 0.1
0.6 1.3 0.1
0.7 1.3 0.1
0.8 1.3 0.1
0.9 1.3 0.1
1 1.3 0.1
1.1 1.3 0.1
1.2 1.3 0.1
1.3 1.3 0.1
1.4 1.3 0.1
1.5 1.3 0.1
1.6 1.3 0.1
1.7 1.3 0.1
1.8 1.3 0.1
1.9 1.3 0.1
2 1.3 0.1
2.1 1.3 0.1
0 1.4 0.1
0.1 1.4 0.1
0.2 1.4 0.1
0.3 1.4 0.1
0.4 1.4 0.1
0.5 1.4 0.1
0.6 1.4 0.1
0.7 1.4 0.1
0.8 1.4 0.1
0.9 1.4 0.1
1 1.4 0.1
1.1 1.4 0.1
1.2 1.4 0.1
1.3 1.4 0.1
1.4 1.4 0.1
1.5 1.4 0.1
1.6 1.4 0.1
1.7 1.4 0.1
1.8 1.4 0.1
1.9 1.4 0.1
2 1.4 0.1
2.1 1.4 0.1
0 1.5 0.1
0.1 1.5 0.1
0.2 1.5 0.1
0.3 1.5 0.1
0.4 1.5 0.1
0.5 1.5 0.1
0.6 1.5 0.1
0.7 1.5 0.1
0.8 1.5 0.1
0.9 1.5 0.1
1 1.5 0.1
1.1 1.5 0.1
1.2 1.5 0.1
1.3 1.5 0.1
1.4 1.5 0.1
1.5 1.5 0.1
1.6 1.5 0.1
1.7 1.5 0.1
1.8 1.5 0.1
1.9 1.5 0.1
2 1.5 0.1
2.1 1.5 0.1
0 1.6 0.1
0.1 1.6 0.1
0.2 1.6 0.1
0.3 1.6 0.1
0.4 1.6 0.1
0.5 1.6 0.1
0.6 1.6 0.1
0.7 1.6 0.1
0.8 1.6 0.1
0.9 1.6 0.1
1 1.6 0.1
1.1 1.6 0.1
1.2 1.6 0.1
1.3 1.6 0.1
1.4 1.6 0.1
1.5 1.6 0.1
1.6 1.6 0.1
1.7 1.6 0.1
1.8 1.6 0.1
1.9 1.6 0.1
2 1.6 0.1
2.1 1.6 0.1
0 0 0.2
0.1 0 0.2
0.2 0 0.2
0.3 0 0.2
0.4 0 0.2
0.5 0 0.2
0.6 0 0.2
0.7 0 0.2
0.8 0 0.2
0.9 0 0.2
1 0 0.2
1.1 0 0.2
1.2 0 0.2
1.3 0 0.2
1.4 0 0.2
1.5 0 0.2
1.6 0 0.2
1.7 0 0.2
1.8 0 0.2
1.9 0 0.2
2 0 0.2
2.1 0 0.2
0 0.1 0.2
0.1 0.1 0.2
0.2 0.1 0.2
0.3 0.1 0.2
0.4 0.1 0.2
0.5 0.1 0.2
0.6 0.1 0.2
0.7 0.1 0.2
0.8 0.1 0.2
0.9 0.1 0.2
1 0.1 0.2
1.1 0.1 0.2
1.2 0.1 0.2
1.3 0.1 0.2
1.4 0.1 0.2
1.5 0.1 0.2
1.6 0.1 0.2
1.7 0.1 0.2
1.8 0.1 0.2
1.9 0.1 0.2
2 0.1 0.2
2.1 0.1 0.2
0 0.2 0.2
0.1 0.2 0.2
0.2 0.2 0.2
0.3 0.2 0.2
0.4 0.2 0.2
0.5 0.2 0.2
0.6 0.2 0.2
0.7 0.2 0.2
0.8 0.2 0.2
0.9 0.2 0.2
1 0.2 0.2
1.1 0.2 0.2
1.2 0.2 0.2
1.3 0.2 0.2
1.4 0.2 0.2
1.5 0.2 0.2
1.6 0.2 0.2
1.7 0.2 0.2
1.8 0.2 0.2
1.9 0.2 0.2
2 0.2 0.2
2.1 0.2 0.2
0 0.3 0.2
0.1 0.3 0.2
0.2 0.3 0.2
0.3 0.3 0.2
0.4 0.3 0.2
0.5 0.3 0.2
0.6 0.3 0.2
0.7 0.3 0.2
0.8 0.3 0.2
0.9 0.3 0.2
1 0.3 0.2
1.1 0.3 0.2
1.2 0.3 0.2
1.3 0.3 0.2
1.4 0.3 0.2
1.5 0.3 0.2
1.6 0.3 0.2
1.7 0.3 0.2
1.8 0.3 0.2
1.9 0.3 0.2
2 0.3 0.2
2.1 0.3 0.2
0 0.4 0.2
0.1 0.4 0.2
0.2 0.4 0.2
0.3 0.4 0.2
0.4 0.4 0.2
0.5 0.4 0.2
0.6 0.4 0.2
0.7 0.4 0.2
0.8 0.4 0.2
0.9 0.4 0.2
1 0.4 0.2
1.1 0.4 0.2
1.2 0.4 0.2
1.3 0.4 0.2
1.4 0.4 0.2
1.5 0.4 0.2
1.6 0.4 0.2
1.7 0.4 0.2
1.8 0.4 0.2
1.9 0.4 0.2
2 0.4 0.2
2.1 0.4 0.2
0 0.5 0.2
0.1 0.5 0.2
0.2 0.5 0.2
0.3 0.5 0.2
0.4 0.5 0.2
0.5 0.5 0.2
0.6 0.5 0.2
0.7 0.5 0.2
0.8 0.5 0.2
0.9 0.5 0.2
1 0.5 0.2
1.1 0.5 0.2
1.2 0.5 0.2
1.3 0.5 0.2
1.4 0.5 0.2
1.5 0.5 0.2
1.6 0.5 0.2
1.7 0.5 0.2
1.8 0.5 0.2
1.9 0.5 0.2
2 0.5 0.2
2.1 0.5 0.2
0 0.6 0.2
0.1 0.6 0.2
0.2 0.6 0.2
0.3 0.6 0.2
0.4 0.6 0.2
0.5 0.6 0.2
0.6 0.6 0.2
0.7 0.6 0.2
0.8 0.6 0.2
0.9 0.6 0.2
1 0.6 0.2
1.1 0.6 0.2
1.2 0.6 0.2
1.3 0.6 0.2
1.4 0.6 0.2
1.5 0.6 0.2
1.6 0.6 0.2
1.7 0.6 0.2
1.8 0.6 0.2
1.9 0.6 0.2
2 0.6 0.2
2.1 0.6 0.2
0 0.7 0.2
0.1 0.7 0.2
0.2 0.7 0.2
0.3 0.7 0.2
0.4 0.7 0.2
0.5 0.7 0.2
0.6 0.7 0.2
0.7 0.7 0.2
0.8 0.7 0.2
0.9 0.7 0.2
1 0.7 0.2
1.1 0.7 0.2
1.2 0.7 0.2
1.3 0.7 0.2
1.4 0.7 0.2
1.5 0.7 0.2
1.6 0.7 0.2
1.7 0.7 0.2
1.8 0.7 0.2
1.9 0.7 0.2
2 0.7 0.2
2.1 0.7 0.2
0 0.8 0.2
0.1 0.8 0.2
[...]
POINT_DATA 4488

SCALARS pressure double
LOOKUP_TABLE pressure
0
0
0
0
0
0
0
0
0
0
0
0
0
0
0
0
0
0
0
0
0
0
0
45.4368
45.4314
45.428
45.4257
45.4237
45.4202
45.4187
45.4171
45.4164
45.4169
45.4164
45.4159
45.4162
45.4158
45.4154
45.4154
45.4149
45.4147
45.4139
45.4131
0
0
45.4309
45.4294
45.4274
45.4253
45.4229
45.4207
45.4188
45.4172
45.4166
45.4164
45.4161
45.416
45.4161
45.416
45.416
45.4152
45.4146
45.4151
45.4149
45.4144
0
0
45.4278
45.4274
45.4266
45.4252
45.4217
45.4205
45.4188
45.4176
45.4168
45.4163
45.4161
45.4164
45.4165
45.4164
45.4162
45.4159
45.4159
45.416
45.4161
45.4159
0
0
45.426
45.4259
45.4253
45.4241
45.4226
45.4207
45.4186
45.4178
45.417
45.416
45.4152
45.4174
45.417
45.4167
45.4164
45.4163
45.4166
45.4169
45.4171
45.4171
0
0
45.4247
45.425
45.4248
45.4233
45.4229
45.4196
45.419
45.4183
45.4175
45.4167
45.4164
45.417
45.4172
45.4169
45.4165
45.4164
45.417
45.4177
45.4179
45.4181
0
0
45.4237
45.4239
45.4236
45.4228
45.4218
45.4205
45.4197
45.419
45.4184
45.4173
45.4169
45.4168
45.417
45.4171
45.4166
45.4159
45.4168
45.4182
45.4181
45.4186
0
0
45.4229
45.4231
45.4229
45.4223
45.4209
45.4209
45.4204
45.4198
45.4186
45.418
45.4178
45.4176
45.4175
45.4175
45.4175
45.4173
45.4172
45.4182
45.4183
45.4175
0
0
45.4223
45.4226
45.4226
45.4225
45.4227
45.4214
45.4207
45.4201
45.4192
45.4187
45.4184
45.4182
45.4181
45.4183
45.4184
45.4182
45.4174
45.4181
45.4208
45.4186
0
0
45.4216
45.4223
45.4223
45.4222
45.422
45.4214
45.4209
45.4203
45.4198
45.4194
45.4191
45.4189
45.4189
45.4191
45.4192
45.419
45.4188
45.4191
45.4198
45.4194
0
0
45.4203
45.4224
45.4222
45.4221
45.4218
45.4214
45.4211
45.4207
45.4204
45.4201
45.4199
45.4197
45.4198
45.42
45.42
45.4198
45.4196
45.4197
45.42
45.4201
0
0
45.4211
45.4218
45.422
45.4221
45.4222
45.4217
45.4214
45.4212
45.4209
45.4208
45.4206
45.4206
45.4206
45.4209
45.4211
45.4203
45.4203
45.4203
45.4205
45.4207
0
0
45.4212
45.4216
45.4219
45.422
45.4221
45.4219
45.4216
45.4215
45.4214
45.4213
45.4213
45.4212
45.4213
45.4218
45.4231
45.4198
45.4209
45.4208
45.4209
45.4212
0
0
45.4212
45.4216
45.4218
45.4219
45.422
45.4219
45.4218
45.4217
45.4217
45.4217
45.4218
45.4218
45.4215
45.4223
45.4225
45.4219
45.4221
45.4212
45.4214
45.4221
0
0
45.4212
45.4215
45.4217
45.4218
45.4219
45.4219
45.4219
45.4218
45.4219
45.4221
45.4222
45.4223
45.4224
45.4228
45.4229
45.4227
45.4225
45.4222
45.4223
45.4226
0
0
45.4213
45.4215
45.4216
45.4217
45.4218
45.4219
45.4219
45.4218
45.422
45.4223
45.4226
45.4228
45.4231
45.4235
45.4235
45.4232
45.423
45.4231
45.4231
45.4232
0
0
0
0
0
0
0
0
0
0
0
0
0
0
0
0
0
0
0
0
0
0
0
0
45.4368
45.4314
45.428
45.4257
45.4237
45.4202
45.4187
45.4171
45.4164
45.4169
45.4164
45.4159
45.4162
45.4158
45.4154
45.4154
45.4149
45.4147
45.4139
45.4131
0
45.4368
45.4368
45.4314
45.428
45.4257
45.4237
45.4202
45.4187
45.4171
45.4164
45.4169
45.4164
45.4159
45.4162
45.4158
45.4154
45.4154
45.4149
45.4147
45.4139
45.4131
45.4131
45.4309
45.4309
45.4294
45.4274
45.4253
45.4229
45.4207
45.4188
45.4172
45.4166
45.4164
45.4161
45.416
45.4161
45.416
45.416
45.4152
45.4146
45.4151
45.4149
45.4144
45.4144
45.4278
45.4278
45.4274
45.4266
45.4252
45.4217
45.4205
45.4188
45.4176
45.4168
45.4163
45.4161
45.4164
45.4165
45.4164
45.4162
45.4159
45.4159
45.416
45.4161
45.4159
45.4159
45.426
45.426
45.4259
45.4253
45.4241
45.4226
45.4207
45.4186
45.4178
45.417
45.416
45.4152
45.4174
45.417
45.4167
45.4164
45.4163
45.4166
45.4169
45.4171
45.4171
45.4171
45.4247
45.4247
45.425
45.4248
45.4233
45.4229
45.4196
45.419
45.4183
45.4175
45.4167
45.4164
45.417
45.4172
45.4169
45.4165
45.4164
45.417
45.4177
45.4179
45.4181
45.4181
45.4237
45.4237
45.4239
45.4236
45.4228
45.4218
45.4205
45.4197
45.419
45.4184
45.4173
45.4169
45.4168
45.417
45.4171
45.4166
45.4159
45.4168
45.4182
45.4181
45.4186
45.4186
45.4229
45.4229
45.4231
45.4229
45.4223
45.4209
45.4209
45.4204
45.4198
45.4186
45.418
45.4178
45.4176
45.4175
45.4175
45.4175
45.4173
45.4172
45.4182
45.4183
45.4175
45.4175
45.4223
45.4223
45.4226
45.4226
45.4225
45.4227
45.4214
45.4207
45.4201
45.4192
45.4187
45.4184
45.4182
45.4181
45.4183
45.4184
45.4182
45.4174
45.4181
45.4208
45.4186
45.4186
45.4216
45.4216
45.4223
45.4223
45.4222
45.422
45.4214
45.4209
45.4203
45.4198
45.4194
45.4191
45.4189
45.4189
45.4191
45.4192
45.419
45.4188
45.4191
45.4198
45.4194
45.4194
45.4203
45.4203
45.4224
45.4222
45.4221
45.4218
45.4214
45.4211
45.4207
45.4204
45.4201
45.4199
45.4197
45.4198
45.42
45.42
45.4198
45.4196
45.4197
45.42
45.4201
45.4201
45.4211
45.4211
45.4218
45.422
45.4221
45.4222
45.4217
45.4214
45.4212
45.4209
45.4208
45.4206
45.4206
45.4206
45.4209
45.4211
45.4203
45.4203
45.4203
45.4205
45.4207
45.4207
45.4212
45.4212
45.4216
45.4219
45.422
45.4221
45.4219
45.4216
45.4215
45.4214
45.4213
45.4213
45.4212
45.4213
45.4218
45.4231
45.4198
45.4209
45.4208
45.4209
45.4212
45.4212
45.4212
45.4212
45.4216
45.4218
45.4219
45.422
45.4219
45.4218
45.4217
45.4217
45.4217
45.4218
45.4218
45.4215
45.4223
45.4225
45.4219
45.4221
45.4212
45.4214
45.4221
45.4221
45.4212
45.4212
45.4215
45.4217
45.4218
45.4219
45.4219
45.4219
45.4218
45.4219
45.4221
45.4222
45.4223
45.4224
45.4228
45.4229
45.4227
45.4225
45.4222
45.4223
45.4226
45.4226
45.4213
45.4213
45.4215
45.4216
45.4217
45.4218
45.4219
45.4219
45.4218
45.422
45.4223
45.4226
45.4228
45.4231
45.4235
45.4235
45.4232
45.423
45.4231
45.4231
45.4232
45.4232
0
45.4213
45.4215
45.4216
45.4217
45.4218
45.4219
45.4219
45.4218
45.422
45.4223
45.4226
45.4228
45.4231
45.4235
45.4235
45.4232
45.423
45.4231
45.4231
45.4232
0
0
45.4405
45.435
45.4311
45.4264
45.4186
45.4139
45.4137
45.4149
45.4161
45.4168
45.4168
45.4167
45.4167
45.4165
45.4163
45.4159
45.4154
45.4148
45.4137
45.4131
0
45.4405
45.4405
45.435
45.4311
45.4264
45.4186
45.4139
45.4137
45.4149
45.4161
45.4168
45.4168
45.4167
45.4167
45.4165
45.4163
45.4159
45.4154
45.4148
45.4137
45.4131
45.4131
45.4344
45.4344
45.4327
45.4303
45.4266
45.4205
45.4152
45.4138
45.4144
45.4154
45.4161
45.4164
45.4166
45.4167
45.4167
45.4165
45.4161
45.4157
45.4153
45.4148
45.4144
45.4144
45.4309
45.4309
45.4303
45.4289
45.4263
45.4219
45.417
45.4146
45.4144
45.4151
45.4158
45.4162
45.4167
45.4168
45.4168
45.4167
45.4164
45.4163
45.4162
45.416
45.4158
45.4158
45.4286
45.4286
45.4285
45.4277
45.426
45.4231
45.4191
45.4161
45.415
45.415
45.4154
45.4159
45.4167
45.4169
45.4169
45.4168
45.4168
45.4168
45.4169
45.4171
45.417
45.417
45.4269
45.4269
45.427
45.4266
45.4255
45.4237
45.4204
45.4176
45.416
45.4155
45.4156
45.416
45.4166
45.4169
45.417
45.4169
45.417
45.4172
45.4175
45.4178
45.4179
45.4179
45.4256
45.4256
45.4257
45.4255
45.4249
45.4235
45.4215
45.4194
45.4178
45.4168
45.4164
45.4164
45.4166
45.4169
45.4171
45.4171
45.4171
45.4175
45.418
45.4182
45.4184
45.4184
45.4245
45.4245
45.4247
45.4246
45.4243
45.4235
45.4225
45.4211
45.4195
45.418
45.4172
45.4169
45.417
45.4173
45.4175
45.4177
45.4178
45.4179
45.4183
45.4187
45.4185
45.4185
45.4237
45.4237
45.4239
45.424
45.4239
45.4236
45.4228
45.4217
45.4202
45.4188
45.4179
45.4177
45.4178
45.418
45.4183
45.4184
45.4185
45.4185
45.4189
45.4196
45.4193
45.4193
45.4229
45.4229
45.4233
45.4234
45.4234
45.4231
45.4226
45.4218
45.4208
45.4198
45.4192
45.419
45.4189
45.419
45.4191
45.4192
45.4193
45.4193
45.4195
45.4199
45.4199
45.4199
45.4223
45.4223
45.4229
45.423
45.423
45.4228
45.4225
45.4221
45.4215
45.4211
45.4206
45.4203
45.42
45.42
45.42
45.4201
45.42
45.42
45.4201
45.4204
45.4205
45.4205
45.4221
45.4221
45.4225
45.4227
45.4227
45.4227
45.4225
45.4222
45.422
45.4218
45.4215
45.4212
45.4209
45.4208
45.4209
45.4209
45.4207
45.4206
45.4207
45.4209
45.421
45.421
45.4219
45.4219
45.4222
45.4224
45.4225
45.4225
45.4224
45.4223
45.4222
45.4221
45.4219
45.4217
45.4216
45.4215
45.4217
45.4218
45.4212
45.4213
45.4213
45.4214
45.4216
45.4216
45.4218
45.4218
45.422
45.4222
45.4223
45.4224
45.4223
45.4223
45.4223
45.4222
45.4222
45.4221
45.4221
45.422
45.4222
45.4223
45.4221
45.422
45.4219
45.422
45.4222
45.4222
45.4217
45.4217
45.4219
45.4221
45.4222
45.4222
45.4223
45.4223
45.4223
45.4223
45.4224
45.4225
45.4225
45.4226
45.4228
45.4228
45.4227
45.4226
45.4226
45.4227
45.4228
45.4228
45.4217
45.4217
45.4219
45.4219
45.422
45.4221
45.4222
45.4222
45.4222
45.4224
45.4226
45.4228
45.423
45.4232
45.4233
45.4234
45.4232
45.4231
45.4232
45.4233
45.4234
45.4234
0
45.4217
45.4219
45.4219
45.422
45.4221
45.4222
45.4222
45.4222
45.4224
45.4226
45.4228
45.423
45.4232
45.4233
45.4234
45.4232
45.4231
45.4232
45.4233
45.4234
0
0
45.4444
45.4394
45.4361
45.429
45.408
45.4006
45.4062
45.4125
45.4161
45.4176
45.4178
45.4177
45.4176
45.4174
45.417
45.4165
45.4159
45.4151
45.4138
45.4132
0
45.4444
45.4444
45.4394
45.4361
45.429
45.408
45.4006
45.4062
45.4125
45.4161
45.4176
45.4178
45.4177
45.4176
45.4174
45.417
45.4165
45.4159
45.4151
45.4138
45.4132
45.4132
45.4379
45.4379
45.4366
45.4345
45.4297
45.4173
45.4044
45.4051
45.4103
45.4142
45.4162
45.417
45.4173
45.4175
45.4174
45.4171
45.4167
45.4162
45.4156
45.4149
45.4145
45.4145
45.4339
45.4339
45.4335
45.4323
45.4293
45.4218
45.4103
45.407
45.4096
45.4129
45.4152
45.4164
45.4171
45.4173
45.4174
45.4172
45.4169
45.4166
45.4163
45.4161
45.4159
45.4159
45.4311
45.4311
45.4312
45.4307
45.4293
45.4251
45.4168
45.4111
45.4103
45.412
45.4141
45.4156
45.4166
45.4171
45.4172
45.4172
45.4171
45.4171
45.4171
45.4171
45.417
45.417
45.4291
45.4291
45.4293
45.4293
45.4288
45.4266
45.4207
45.4145
45.4115
45.4119
45.4137
45.4152
45.4162
45.4168
45.4171
45.4172
45.4173
45.4175
45.4177
45.4178
45.4179
45.4179
45.4274
45.4274
45.4277
45.4278
45.4275
45.426
45.4225
45.4183
45.4155
45.4147
45.4151
45.4156
45.416
45.4166
45.4171
45.4174
45.4176
45.4179
45.4182
45.4184
45.4185
45.4185
45.426
45.426
45.4263
45.4265
45.4264
45.426
45.4249
45.423
45.4198
45.4172
45.4158
45.4155
45.416
45.4167
45.4174
45.4178
45.4181
45.4184
45.4186
45.4189
45.419
45.419
45.4249
45.4249
45.4252
45.4254
45.4255
45.4254
45.4249
45.4233
45.4204
45.4175
45.4159
45.416
45.4168
45.4175
45.4181
45.4185
45.4187
45.4189
45.4192
45.4196
45.4197
45.4197
45.4241
45.4241
45.4243
45.4245
45.4246
45.4245
45.4241
45.4229
45.421
45.4191
45.4185
45.4185
45.4186
45.4189
45.4191
45.4193
45.4195
45.4196
45.4199
45.4201
45.4203
45.4203
45.4233
45.4233
45.4237
45.4238
45.4239
45.4239
45.4236
45.4231
45.4225
45.422
45.4215
45.4208
45.4203
45.4201
45.4201
45.4202
45.4202
45.4203
45.4205
45.4207
45.4208
45.4208
45.4229
45.4229
45.4231
45.4233
45.4234
45.4234
45.4233
45.4232
45.4231
45.423
45.4226
45.4219
45.4214
45.4211
45.421
45.421
45.4209
45.4209
45.4211
45.4212
45.4214
45.4214
45.4225
45.4225
45.4228
45.4229
45.423
45.4231
45.4231
45.4231
45.4231
45.423
45.4227
45.4224
45.422
45.4218
45.4217
45.4217
45.4216
45.4216
45.4216
45.4218
45.4219
45.4219
45.4223
45.4223
45.4225
45.4226
45.4227
45.4228
45.4228
45.4229
45.4229
45.4229
45.4228
45.4226
45.4224
45.4223
45.4223
45.4223
45.4222
45.4222
45.4222
45.4224
45.4225
45.4225
45.4221
45.4221
45.4223
45.4224
45.4225
45.4226
45.4226
45.4227
45.4227
45.4228
45.4228
45.4228
45.4228
45.4228
45.4228
45.4228
45.4228
45.4228
45.4228
45.423
45.423
45.423
45.4221
45.4221
45.4222
45.4223
45.4223
45.4224
45.4225
45.4225
45.4226
45.4227
45.4229
45.423
45.4231
45.4232
45.4233
45.4233
45.4233
45.4233
45.4234
45.4235
45.4236
45.4236
0
45.4221
45.4222
45.4223
45.4223
45.4224
45.4225
45.4225
45.4226
45.4227
45.4229
45.423
45.4231
45.4232
45.4233
45.4233
45.4233
45.4233
45.4234
45.4235
45.4236
0
0
45.4484
45.4447
45.4455
45.4407
45.3725
45.3688
45.3965
45.4125
45.4184
45.4198
45.4195
45.419
45.4185
45.4181
45.4176
45.417
45.4163
45.4153
45.414
45.4133
0
45.4484
45.4484
45.4447
45.4455
45.4407
45.3725
45.3688
45.3965
45.4125
45.4184
45.4198
45.4195
45.419
45.4185
45.4181
45.4176
45.417
45.4163
45.4153
45.414
45.4133
45.4133
45.4412
45.4412
45.4409
45.4413
45.4391
45.4189
45.3775
45.3893
45.4061
45.4149
45.418
45.4185
45.4185
45.4184
45.4182
45.4177
45.4172
45.4165
45.4158
45.415
45.4146
45.4146
45.4366
45.4366
45.4368
45.437
45.4357
45.4252
45.3938
45.3905
45.402
45.4112
45.4157
45.4175
45.4181
45.4183
45.4181
45.4177
45.4173
45.4169
45.4165
45.4162
45.4161
45.4161
45.4333
45.4333
45.4338
45.4345
45.4356
45.432
45.4132
45.4012
45.4022
45.4071
45.4122
45.4154
45.4171
45.4177
45.4177
45.4176
45.4175
45.4173
45.4172
45.4172
45.4171
45.4171
45.4309
45.4309
45.4315
45.4326
45.4345
45.4346
45.4228
45.4076
45.4007
45.4041
45.4103
45.4144
45.4161
45.4167
45.4172
45.4175
45.4176
45.4177
45.4178
45.418
45.418
45.418
45.4289
45.4289
45.4294
45.4301
45.431
45.4292
45.4231
45.4148
45.4102
45.4109
45.4141
45.4153
45.4151
45.4159
45.4168
45.4175
45.4179
45.4182
45.4184
45.4186
45.4187
45.4187
45.4273
45.4273
45.4277
45.4282
45.4289
45.4293
45.4297
45.4292
45.4221
45.4165
45.414
45.4127
45.4138
45.4156
45.417
45.4178
45.4183
45.4187
45.4189
45.4192
45.4193
45.4193
45.426
45.426
45.4263
45.4267
45.4273
45.4281
45.4285
45.4259
45.4202
45.4132
45.4096
45.412
45.4149
45.4167
45.4179
45.4185
45.419
45.4193
45.4195
45.4198
45.4199
45.4199
45.4249
45.4249
45.4252
45.4255
45.4259
45.4262
45.4258
45.4241
45.4204
45.416
45.4169
45.4179
45.4182
45.4187
45.4191
45.4194
45.4197
45.4199
45.4201
45.4204
45.4205
45.4205
45.4241
45.4241
45.4244
45.4246
45.4248
45.4249
45.4248
45.4244
45.4239
45.4246
45.424
45.422
45.4208
45.4203
45.4203
45.4203
45.4204
45.4206
45.4207
45.421
45.4211
45.4211
45.4235
45.4235
45.4237
45.4239
45.4241
45.4242
45.4242
45.4243
45.4247
45.4252
45.4244
45.423
45.422
45.4214
45.4212
45.4211
45.4211
45.4212
45.4213
45.4215
45.4216
45.4216
45.423
45.423
45.4233
45.4234
45.4235
45.4236
45.4237
45.4239
45.4241
45.4242
45.4238
45.4232
45.4225
45.4221
45.4219
45.4218
45.4218
45.4218
45.4219
45.4221
45.4222
45.4222
45.4227
45.4227
45.4229
45.423
45.4231
45.4232
45.4233
45.4234
45.4236
45.4236
45.4235
45.4231
45.4228
45.4226
45.4224
45.4224
45.4224
45.4224
45.4225
45.4226
45.4227
45.4227
45.4225
45.4225
45.4227
45.4228
45.4228
45.4229
45.423
45.4231
45.4232
45.4233
45.4232
45.4231
45.423
45.423
45.4229
45.4229
45.4229
45.4229
45.423
45.4232
45.4233
45.4233
45.4224
45.4224
45.4225
45.4226
45.4226
45.4227
45.4228
45.4228
45.4229
45.423
45.4232
45.4232
45.4233
45.4233
45.4234
45.4234
45.4234
45.4234
45.4235
45.4237
45.4238
45.4238
0
45.4224
45.4225
45.4226
45.4226
45.4227
45.4228
45.4228
45.4229
45.423
45.4232
45.4232
45.4233
45.4233
45.4234
45.4234
45.4234
45.4234
45.4235
45.4237
45.4238
0
0
45.4507
45.4492
45.459
45.4912
45.4042
45.3217
45.3919
45.4177
45.4231
45.423
45.4217
45.4205
45.4197
45.4189
45.4181
45.4173
45.4164
45.4154
45.4141
45.4135
0
45.4507
45.4507
45.4492
45.459
45.4912
45.4042
45.3217
45.3919
45.4177
45.4231
45.423
45.4217
45.4205
45.4197
45.4189
45.4181
45.4173
45.4164
45.4154
45.4141
45.4135
45.4135
45.4431
45.4431
45.4439
45.4489
45.4685
45.4315
45.3502
45.3764
45.4067
45.4191
45.4217
45.4213
45.4206
45.42
45.4193
45.4184
45.4175
45.4167
45.416
45.4151
45.4148
45.4148
45.4381
45.4381
45.4388
45.4408
45.4459
45.4358
45.3699
45.3669
45.3953
45.4117
45.4177
45.4195
45.4201
45.42
45.4192
45.4183
45.4176
45.4171
45.4167
45.4164
45.4162
45.4162
45.4345
45.4345
45.4353
45.4375
45.4427
45.4548
45.4062
45.387
45.3973
45.4038
45.4103
45.4158
45.4184
45.4189
45.4184
45.4179
45.4177
45.4176
45.4174
45.4174
45.4173
45.4173
45.4319
45.4319
45.4328
45.4353
45.4427
45.4626
45.4272
45.4002
45.393
45.3922
45.405
45.4149
45.417
45.417
45.4171
45.4175
45.4178
45.418
45.4181
45.4182
45.4182
45.4182
45.4298
45.4298
45.4305
45.432
45.4352
45.441
45.4224
45.4119
45.405
45.4016
45.4137
45.418
45.4154
45.4149
45.4163
45.4175
45.4181
45.4184
45.4186
45.4188
45.4189
45.4189
45.428
45.428
45.4285
45.4294
45.431
45.4333
45.437
45.4444
45.4272
45.4153
45.4134
45.4119
45.4109
45.4138
45.4165
45.4179
45.4186
45.4189
45.4192
45.4195
45.4196
45.4196
45.4266
45.4266
45.427
45.4276
45.4287
45.4312
45.4372
45.4406
45.4211
45.4059
45.4032
45.4075
45.4115
45.4155
45.4177
45.4187
45.4192
45.4195
45.4198
45.4201
45.4202
45.4202
45.4255
45.4255
45.4258
45.4262
45.4268
45.428
45.4298
45.4274
45.4174
45.4113
45.4158
45.4167
45.4176
45.4186
45.4192
45.4196
45.4199
45.4202
45.4204
45.4207
45.4208
45.4208
45.4246
45.4246
45.4249
45.4251
45.4255
45.4259
45.4262
45.4256
45.425
45.4285
45.4304
45.425
45.4217
45.4207
45.4205
45.4205
45.4207
45.4208
45.421
45.4212
45.4213
45.4213
45.4239
45.4239
45.4242
45.4243
45.4245
45.4247
45.425
45.4254
45.427
45.4313
45.4296
45.4253
45.4228
45.4218
45.4214
45.4213
45.4213
45.4214
45.4216
45.4218
45.4219
45.4219
45.4234
45.4234
45.4236
45.4238
45.4239
45.4241
45.4242
45.4246
45.4256
45.4271
45.4261
45.4243
45.423
45.4224
45.4221
45.422
45.422
45.422
45.4222
45.4224
45.4224
45.4224
45.423
45.423
45.4233
45.4234
45.4235
45.4236
45.4237
45.4239
45.4243
45.4247
45.4243
45.4237
45.4231
45.4228
45.4226
45.4225
45.4225
45.4226
45.4227
45.4229
45.423
45.423
45.4228
45.4228
45.423
45.4231
45.4231
45.4232
45.4233
45.4234
45.4236
45.4237
45.4237
45.4235
45.4233
45.4231
45.423
45.423
45.423
45.4231
45.4232
45.4234
45.4235
45.4235
45.4227
45.4227
45.4228
45.4228
45.4229
45.4229
45.423
45.4231
45.4232
45.4233
45.4234
45.4234
45.4234
45.4234
45.4234
45.4235
45.4235
45.4236
45.4237
45.4239
45.424
45.424
0
45.4227
45.4228
45.4228
45.4229
45.4229
45.423
45.4231
45.4232
45.4233
45.4234
45.4234
45.4234
45.4234
45.4234
45.4235
45.4235
45.4236
45.4237
45.4239
45.424
0
0
45.4494
45.4458
45.4469
45.4432
45.385
45.3701
45.3967
45.4127
45.4184
45.4198
45.4197
45.4192
45.4189
45.4186
45.4182
45.4176
45.4168
45.4158
45.4144
45.4137
0
45.4494
45.4494
45.4458
45.4469
45.4432
45.385
45.3701
45.3967
45.4127
45.4184
45.4198
45.4197
45.4192
45.4189
45.4186
45.4182
45.4176
45.4168
45.4158
45.4144
45.4137
45.4137
45.4422
45.4422
45.4416
45.4418
45.4384
45.4094
45.3796
45.3911
45.4073
45.4158
45.4188
45.4193
45.419
45.4188
45.4186
45.4183
45.4177
45.417
45.4163
45.4154
45.415
45.415
45.4375
45.4375
45.4375
45.4374
45.4353
45.4222
45.3938
45.391
45.402
45.4113
45.4161
45.4179
45.4186
45.4188
45.4187
45.4183
45.4178
45.4174
45.417
45.4166
45.4164
45.4164
45.4342
45.4342
45.4346
45.4352
45.4359
45.4311
45.4114
45.4016
45.4029
45.4081
45.4129
45.4159
45.4175
45.4183
45.4184
45.4182
45.418
45.4178
45.4177
45.4176
45.4175
45.4175
45.4317
45.4317
45.4323
45.4333
45.4353
45.4358
45.423
45.4089
45.4033
45.4054
45.4108
45.4148
45.4166
45.4174
45.4178
45.418
45.4182
45.4183
45.4183
45.4184
45.4184
45.4184
45.4297
45.4297
45.4303
45.4311
45.4322
45.4322
45.4248
45.4145
45.4089
45.4105
45.414
45.4156
45.4159
45.4165
45.4174
45.4181
45.4185
45.4187
45.4189
45.4191
45.4191
45.4191
45.4281
45.4281
45.4285
45.4291
45.4299
45.4306
45.4295
45.4267
45.4215
45.4164
45.4143
45.4139
45.4146
45.4162
45.4176
45.4184
45.4189
45.4192
45.4195
45.4197
45.4198
45.4198
45.4268
45.4268
45.4271
45.4275
45.4282
45.429
45.4298
45.4283
45.4217
45.4148
45.4117
45.4127
45.4151
45.4172
45.4184
45.4191
45.4195
45.4198
45.4201
45.4203
45.4204
45.4204
45.4257
45.4257
45.426
45.4263
45.4267
45.4272
45.4274
45.4258
45.4216
45.4169
45.416
45.4175
45.4185
45.4191
45.4196
45.4199
45.4202
45.4204
45.4207
45.4209
45.421
45.421
45.4248
45.4248
45.4251
45.4253
45.4255
45.4258
45.4258
45.4252
45.4242
45.4235
45.4235
45.4222
45.4212
45.4207
45.4207
45.4208
45.4209
45.4211
45.4213
45.4215
45.4216
45.4216
45.4241
45.4241
45.4244
45.4246
45.4247
45.4248
45.4249
45.4249
45.4252
45.4258
45.4252
45.4236
45.4224
45.4218
45.4215
45.4215
45.4215
45.4217
45.4218
45.422
45.4221
45.4221
45.4237
45.4237
45.4239
45.424
45.4241
45.4242
45.4243
45.4245
45.4248
45.4251
45.4247
45.4238
45.423
45.4225
45.4222
45.4221
45.4221
45.4222
45.4224
45.4226
45.4227
45.4227
45.4233
45.4233
45.4235
45.4236
45.4237
45.4238
45.4239
45.424
45.4242
45.4243
45.4241
45.4236
45.4232
45.4229
45.4227
45.4227
45.4227
45.4228
45.4229
45.4231
45.4232
45.4232
45.4231
45.4231
45.4233
45.4233
45.4234
45.4234
45.4235
45.4236
45.4237
45.4238
45.4237
45.4235
45.4234
45.4232
45.4231
45.4231
45.4232
45.4233
45.4234
45.4236
45.4237
45.4237
45.423
45.423
45.4231
45.4231
45.4231
45.4232
45.4232
45.4233
45.4234
45.4235
45.4235
45.4236
45.4235
45.4235
45.4235
45.4236
45.4236
45.4237
45.4239
45.424
45.4242