# vtk DataFile Version 3.0
FlowField
ASCII
DATASET STRUCTURED_GRID
DIMENSIONS 22 17 12 
POINTS 4488 double
0 0 0
5 0 0
10 0 0
15 0 0
20 0 0
25 0 0
30 0 0
35 0 0
40 0 0
45 0 0
50 0 0
55 0 0
60 0 0
65 0 0
70 0 0
75 0 0
80 0 0
85 0 0
90 0 0
95 0 0
100 0 0
105 0 0
0 1 0
5 1 0
10 1 0
15 1 0
20 1 0
25 1 0
30 1 0
35 1 0
40 1 0
45 1 0
50 1 0
55 1 0
60 1 0
65 1 0
70 1 0
75 1 0
80 1 0
85 1 0
90 1 0
95 1 0
100 1 0
105 1 0
0 2 0
5 2 0
10 2 0
15 2 0
20 2 0
25 2 0
30 2 0
35 2 0
40 2 0
45 2 0
50 2 0
55 2 0
60 2 0
65 2 0
70 2 0
75 2 0
80 2 0
85 2 0
90 2 0
95 2 0
100 2 0
105 2 0
0 3 0
5 3 0
10 3 0
15 3 0
20 3 0
25 3 0
30 3 0
35 3 0
40 3 0
45 3 0
50 3 0
55 3 0
60 3 0
65 3 0
70 3 0
75 3 0
80 3 0
85 3 0
90 3 0
95 3 0
100 3 0
105 3 0
0 4 0
5 4 0
10 4 0
15 4 0
20 4 0
25 4 0
30 4 0
35 4 0
40 4 0
45 4 0
50 4 0
55 4 0
60 4 0
65 4 0
70 4 0
75 4 0
80 4 0
85 4 0
90 4 0
95 4 0
100 4 0
105 4 0
0 5 0
5 5 0
10 5 0
15 5 0
20 5 0
25 5 0
30 5 0
35 5 0
40 5 0
45 5 0
50 5 0
55 5 0
60 5 0
65 5 0
70 5 0
75 5 0
80 5 0
85 5 0
90 5 0
95 5 0
100 5 0
105 5 0
0 6 0
5 6 0
10 6 0
15 6 0
20 6 0
25 6 0
30 6 0
35 6 0
40 6 0
45 6 0
50 6 0
55 6 0
60 6 0
65 6 0
70 6 0
75 6 0
80 6 0
85 6 0
90 6 0
95 6 0
100 6 0
105 6 0
0 7 0
5 7 0
10 7 0
15 7 0
20 7 0
25 7 0
30 7 0
35 7 0
40 7 0
45 7 0
50 7 0
55 7 0
60 7 0
65 7 0
70 7 0
75 7 0
80 7 0
85 7 0
90 7 0
95 7 0
100 7 0
105 7 0
0 8 0
5 8 0
10 8 0
15 8 0
20 8 0
25 8 0
30 8 0
35 8 0
40 8 0
45 8 0
50 8 0
55 8 0
60 8 0
65 8 0
70 8 0
75 8 0
80 8 0
85 8 0
90 8 0
95 8 0
100 8 0
105 8 0
0 9 0
5 9 0
10 9 0
15 9 0
20 9 0
25 9 0
30 9 0
35 9 0
40 9 0
45 9 0
50 9 0
55 9 0
60 9 0
65 9 0
70 9 0
75 9 0
80 9 0
85 9 0
90 9 0
95 9 0
100 9 0
105 9 0
0 10 0
5 10 0
10 10 0
15 10 0
20 10 0
25 10 0
30 10 0
35 10 0
40 10 0
45 10 0
50 10 0
55 10 0
60 10 0
65 10 0
70 10 0
75 10 0
80 10 0
85 10 0
90 10 0
95 10 0
100 10 0
105 10 0
0 11 0
5 11 0
10 11 0
15 11 0
20 11 0
25 11 0
30 11 0
35 11 0
40 11 0
45 11 0
50 11 0
55 11 0
60 11 0
65 11 0
70 11 0
75 11 0
80 11 0
85 11 0
90 11 0
95 11 0
100 11 0
105 11 0
0 12 0
5 12 0
10 12 0
15 12 0
20 12 0
25 12 0
30 12 0
35 12 0
40 12 0
45 12 0
50 12 0
55 12 0
60 12 0
65 12 0
70 12 0
75 12 0
80 12 0
85 12 0
90 12 0
95 12 0
100 12 0
105 12 0
0 13 0
5 13 0
10 13 0
15 13 0
20 13 0
25 13 0
30 13 0
35 13 0
40 13 0
45 13 0
50 13 0
55 13 0
60 13 0
65 13 0
70 13 0
75 13 0
80 13 0
85 13 0
90 13 0
95 13 0
100 13 0
105 13 0
0 14 0
5 14 0
10 14 0
15 14 0
20 14 0
25 14 0
30 14 0
35 14 0
40 14 0
45 14 0
50 14 0
55 14 0
60 14 0
65 14 0
70 14 0
75 14 0
80 14 0
85 14 0
90 14 0
95 14 0
100 14 0
105 14 0
0 15 0
5 15 0
10 15 0
15 15 0
20 15 0
25 15 0
30 15 0
35 15 0
40 15 0
45 15 0
50 15 0
55 15 0
60 15 0
65 15 0
70 15 0
75 15 0
80 15 0
85 15 0
90 15 0
95 15 0
100 15 0
105 15 0
0 16 0
5 16 0
10 16 0
15 16 0
20 16 0
25 16 0
30 16 0
35 16 0
40 16 0
45 16 0
50 16 0
55 16 0
60 16 0
65 16 0
70 16 0
75 16 0
80 16 0
85 16 0
90 16 0
95 16 0
100 16 0
105 16 0
0 0 1
5 0 1
10 0 1
15 0 1
20 0 1
25 0 1
30 0 1
35 0 1
40 0 1
45 0 1
50 0 1
55 0 1
60 0 1
65 0 1
70 0 1
75 0 1
80 0 1
85 0 1
90 0 1
95 0 1
100 0 1
105 0 1
0 1 1
5 1 1
10 1 1
15 1 1
20 1 1
25 1 1
30 1 1
35 1 1
40 1 1
45 1 1
50 1 1
55 1 1
60 1 1
65 1 1
70 1 1
75 1 1
80 1 1
85 1 1
90 1 1
95 1 1
100 1 1
105 1 1
0 2 1
5 2 1
10 2 1
15 2 1
20 2 1
25 2 1
30 2 1
35 2 1
40 2 1
45 2 1
50 2 1
55 2 1
60 2 1
65 2 1
70 2 1
75 2 1
80 2 1
85 2 1
90 2 1
95 2 1
100 2 1
105 2 1
0 3 1
5 3 1
10 3 1
15 3 1
20 3 1
25 3 1
30 3 1
35 3 1
40 3 1
45 3 1
50 3 1
55 3 1
60 3 1
65 3 1
70 3 1
75 3 1
80 3 1
85 3 1
90 3 1
95 3 1
100 3 1
105 3 1
0 4 1
5 4 1
10 4 1
15 4 1
20 4 1
25 4 1
30 4 1
35 4 1
40 4 1
45 4 1
50 4 1
55 4 1
60 4 1
65 4 1
70 4 1
75 4 1
80 4 1
85 4 1
90 4 1
95 4 1
100 4 1
105 4 1
0 5 1
5 5 1
10 5 1
15 5 1
20 5 1
25 5 1
30 5 1
35 5 1
40 5 1
45 5 1
50 5 1
55 5 1
60 5 1
65 5 1
70 5 1
75 5 1
80 5 1
85 5 1
90 5 1
95 5 1
100 5 1
105 5 1
0 6 1
5 6 1
10 6 1
15 6 1
20 6 1
25 6 1
30 6 1
35 6 1
40 6 1
45 6 1
50 6 1
55 6 1
60 6 1
65 6 1
70 6 1
75 6 1
80 6 1
85 6 1
90 6 1
95 6 1
100 6 1
105 6 1
0 7 1
5 7 1
10 7 1
15 7 1
20 7 1
25 7 1
30 7 1
35 7 1
40 7 1
45 7 1
50 7 1
55 7 1
60 7 1
65 7 1
70 7 1
75 7 1
80 7 1
85 7 1
90 7 1
95 7 1
100 7 1
105 7 1
0 8 1
5 8 1
10 8 1
15 8 1
20 8 1
25 8 1
30 8 1
35 8 1
40 8 1
45 8 1
50 8 1
55 8 1
60 8 1
65 8 1
70 8 1
75 8 1
80 8 1
85 8 1
90 8 1
95 8 1
100 8 1
105 8 1
0 9 1
5 9 1
10 9 1
15 9 1
20 9 1
25 9 1
30 9 1
35 9 1
40 9 1
45 9 1
50 9 1
55 9 1
60 9 1
65 9 1
70 9 1
75 9 1
80 9 1
85 9 1
90 9 1
95 9 1
100 9 1
105 9 1
0 10 1
5 10 1
10 10 1
15 10 1
20 10 1
25 10 1
30 10 1
35 10 1
40 10 1
45 10 1
50 10 1
55 10 1
60 10 1
65 10 1
70 10 1
75 10 1
80 10 1
85 10 1
90 10 1
95 10 1
100 10 1
105 10 1
0 11 1
5 11 1
10 11 1
15 11 1
20 11 1
25 11 1
30 11 1
35 11 1
40 11 1
45 11 1
50 11 1
55 11 1
60 11 1
65 11 1
70 11 1
75 11 1
80 11 1
85 11 1
90 11 1
95 11 1
100 11 1
105 11 1
0 12 1
5 12 1
10 12 1
15 12 1
20 12 1
25 12 1
30 12 1
35 12 1
40 12 1
45 12 1
50 12 1
55 12 1
60 12 1
65 12 1
70 12 1
75 12 1
80 12 1
85 12 1
90 12 1
95 12 1
100 12 1
105 12 1
0 13 1
5 13 1
10 13 1
15 13 1
20 13 1
25 13 1
30 13 1
35 13 1
40 13 1
45 13 1
50 13 1
55 13 1
60 13 1
65 13 1
70 13 1
75 13 1
80 13 1
85 13 1
90 13 1
95 13 1
100 13 1
105 13 1
0 14 1
5 14 1
10 14 1
15 14 1
20 14 1
25 14 1
30 14 1
35 14 1
40 14 1
45 14 1
50 14 1
55 14 1
60 14 1
65 14 1
70 14 1
75 14 1
80 14 1
85 14 1
90 14 1
95 14 1
100 14 1
105 14 1
0 15 1
5 15 1
10 15 1
15 15 1
20 15 1
25 15 1
30 15 1
35 15 1
40 15 1
45 15 1
50 15 1
55 15 1
60 15 1
65 15 1
70 15 1
75 15 1
80 15 1
85 15 1
90 15 1
95 15 1
100 15 1
105 15 1
0 16 1
5 16 1
10 16 1
15 16 1
20 16 1
25 16 1
30 16 1
35 16 1
40 16 1
45 16 1
50 16 1
55 16 1
60 16 1
65 16 1
70 16 1
75 16 1
80 16 1
85 16 1
90 16 1
95 16 1
100 16 1
105 16 1
0 0 2
5 0 2
10 0 2
15 0 2
20 0 2
25 0 2
30 0 2
35 0 2
40 0 2
45 0 2
50 0 2
55 0 2
60 0 2
65 0 2
70 0 2
75 0 2
80 0 2
85 0 2
90 0 2
95 0 2
100 0 2
105 0 2
0 1 2
5 1 2
10 1 2
15 1 2
20 1 2
25 1 2
30 1 2
35 1 2
40 1 2
45 1 2
50 1 2
55 1 2
60 1 2
65 1 2
70 1 2
75 1 2
80 1 2
85 1 2
90 1 2
95 1 2
100 1 2
105 1 2
0 2 2
5 2 2
10 2 2
15 2 2
20 2 2
25 2 2
30 2 2
35 2 2
40 2 2
45 2 2
50 2 2
55 2 2
60 2 2
65 2 2
70 2 2
75 2 2
80 2 2
85 2 2
90 2 2
95 2 2
100 2 2
105 2 2
0 3 2
5 3 2
10 3 2
15 3 2
20 3 2
25 3 2
30 3 2
35 3 2
40 3 2
45 3 2
50 3 2
55 3 2
60 3 2
65 3 2
70 3 2
75 3 2
80 3 2
85 3 2
90 3 2
95 3 2
100 3 2
105 3 2
0 4 2
5 4 2
10 4 2
15 4 2
20 4 2
25 4 2
30 4 2
35 4 2
40 4 2
45 4 2
50 4 2
55 4 2
60 4 2
65 4 2
70 4 2
75 4 2
80 4 2
85 4 2
90 4 2
95 4 2
100 4 2
105 4 2
0 5 2
5 5 2
10 5 2
15 5 2
20 5 2
25 5 2
30 5 2
35 5 2
40 5 2
45 5 2
50 5 2
55 5 2
60 5 2
65 5 2
70 5 2
75 5 2
80 5 2
85 5 2
90 5 2
95 5 2
100 5 2
105 5 2
0 6 2
5 6 2
10 6 2
15 6 2
20 6 2
25 6 2
30 6 2
35 6 2
40 6 2
45 6 2
50 6 2
55 6 2
60 6 2
65 6 2
70 6 2
75 6 2
80 6 2
85 6 2
90 6 2
95 6 2
100 6 2
105 6 2
0 7 2
5 7 2
10 7 2
15 7 2
20 7 2
25 7 2
30 7 2
35 7 2
40 7 2
45 7 2
50 7 2
55 7 2
60 7 2
65 7 2
70 7 2
75 7 2
80 7 2
85 7 2
90 7 2
95 7 2
100 7 2
105 7 2
0 8 2
5 8 2
10 8 2
15 8 2
20 8 2
25 8 2
30 8 2
35 8 2
40 8 2
45 8 2
50 8 2
55 8 2
60 8 2
65 8 2
70 8 2
75 8 2
80 8 2
85 8 2
90 8 2
95 8 2
100 8 2
105 8 2
0 9 2
5 9 2
10 9 2
15 9 2
20 9 2
25 9 2
30 9 2
35 9 2
40 9 2
45 9 2
50 9 2
55 9 2
60 9 2
65 9 2
70 9 2
75 9 2
80 9 2
85 9 2
90 9 2
95 9 2
100 9 2
105 9 2
0 10 2
5 10 2
10 10 2
15 10 2
20 10 2
25 10 2
30 10 2
35 10 2
40 10 2
45 10 2
50 10 2
55 10 2
60 10 2
65 10 2
70 10 2
75 10 2
80 10 2
85 10 2
90 10 2
95 10 2
100 10 2
105 10 2
0 11 2
5 11 2
10 11 2
15 11 2
20 11 2
25 11 2
30 11 2
35 11 2
40 11 2
45 11 2
50 11 2
55 11 2
60 11 2
65 11 2
70 11 2
75 11 2
80 11 2
85 11 2
90 11 2
95 11 2
100 11 2
105 11 2
0 12 2
5 12 2
10 12 2
15 12 2
20 12 2
25 12 2
30 12 2
35 12 2
40 12 2
45 12 2
50 12 2
55 12 2
60 12 2
65 12 2
70 12 2
75 12 2
80 12 2
85 12 2
90 12 2
95 12 2
100 12 2
105 12 2
0 13 2
5 13 2
10 13 2
15 13 2
20 13 2
25 13 2
30 13 2
35 13 2
40 13 2
45 13 2
50 13 2
55 13 2
60 13 2
65 13 2
70 13 2
75 13 2
80 13 2
85 13 2
90 13 2
95 13 2
100 13 2
105 13 2
0 14 2
5 14 2
10 14 2
15 14 2
20 14 2
25 14 2
30 14 2
35 14 2
40 14 2
45 14 2
50 14 2
55 14 2
60 14 2
65 14 2
70 14 2
75 14 2
80 14 2
85 14 2
90 14 2
95 14 2
100 14 2
105 14 2
0 15 2
5 15 2
10 15 2
15 15 2
20 15 2
25 15 2
30 15 2
35 15 2
40 15 2
45 15 2
50 15 2
55 15 2
60 15 2
65 15 2
70 15 2
75 15 2
80 15 2
85 15 2
90 15 2
95 15 2
100 15 2
105 15 2
0 16 2
5 16 2
10 16 2
15 16 2
20 16 2
25 16 2
30 16 2
35 16 2
40 16 2
45 16 2
50 16 2
55 16 2
60 16 2
65 16 2
70 16 2
75 16 2
80 16 2
85 16 2
90 16 2
95 16 2
100 16 2
105 16 2
0 0 3
5 0 3
10 0 3
15 0 3
20 0 3
25 0 3
30 0 3
35 0 3
40 0 3
45 0 3
50 0 3
55 0 3
60 0 3
65 0 3
70 0 3
75 0 3
80 0 3
85 0 3
90 0 3
95 0 3
100 0 3
105 0 3
0 1 3
5 1 3
10 1 3
15 1 3
20 1 3
25 1 3
30 1 3
35 1 3
40 1 3
45 1 3
50 1 3
55 1 3
60 1 3
65 1 3
70 1 3
75 1 3
80 1 3
85 1 3
90 1 3
95 1 3
100 1 3
105 1 3
0 2 3
5 2 3
10 2 3
15 2 3
20 2 3
25 2 3
30 2 3
35 2 3
40 2 3
45 2 3
50 2 3
55 2 3
60 2 3
65 2 3
70 2 3
75 2 3
80 2 3
85 2 3
90 2 3
95 2 3
100 2 3
105 2 3
0 3 3
5 3 3
10 3 3
15 3 3
20 3 3
25 3 3
30 3 3
35 3 3
40 3 3
45 3 3
50 3 3
55 3 3
60 3 3
65 3 3
70 3 3
75 3 3
80 3 3
85 3 3
90 3 3
95 3 3
100 3 3
105 3 3
0 4 3
5 4 3
10 4 3
15 4 3
20 4 3
25 4 3
30 4 3
35 4 3
40 4 3
45 4 3
50 4 3
55 4 3
60 4 3
65 4 3
70 4 3
75 4 3
80 4 3
85 4 3
90 4 3
95 4 3
100 4 3
105 4 3
0 5 3
5 5 3
10 5 3
15 5 3
20 5 3
25 5 3
30 5 3
35 5 3
40 5 3
45 5 3
50 5 3
55 5 3
60 5 3
65 5 3
70 5 3
75 5 3
80 5 3
85 5 3
90 5 3
95 5 3
100 5 3
105 5 3
0 6 3
5 6 3
10 6 3
15 6 3
20 6 3
25 6 3
30 6 3
35 6 3
40 6 3
45 6 3
50 6 3
55 6 3
60 6 3
65 6 3
70 6 3
75 6 3
80 6 3
85 6 3
90 6 3
95 6 3
100 6 3
105 6 3
0 7 3
5 7 3
10 7 3
15 7 3
20 7 3
25 7 3
30 7 3
35 7 3
40 7 3
45 7 3
50 7 3
55 7 3
60 7 3
65 7 3
70 7 3
75 7 3
80 7 3
85 7 3
90 7 3
95 7 3
100 7 3
105 7 3
0 8 3
5 8 3
10 8 3
15 8 3
20 8 3
25 8 3
30 8 3
35 8 3
40 8 3
45 8 3
50 8 3
55 8 3
60 8 3
65 8 3
70 8 3
75 8 3
80 8 3
85 8 3
90 8 3
95 8 3
100 8 3
105 8 3
0 9 3
5 9 3
10 9 3
15 9 3
20 9 3
25 9 3
30 9 3
35 9 3
40 9 3
45 9 3
50 9 3
55 9 3
60 9 3
65 9 3
70 9 3
75 9 3
80 9 3
85 9 3
90 9 3
95 9 3
100 9 3
105 9 3
0 10 3
5 10 3
10 10 3
15 10 3
[...]
POINT_DATA 4488

SCALARS pressure double
LOOKUP_TABLE pressure
0
0
0
0
0
0
0
0
0
0
0
0
0
0
0
0
0
0
0
0
0
0
0
11.0082
10.6338
9.92353
9.03877
7.90622
8.29537
8.54498
8.73353
8.8501
8.90921
8.98963
9.44587
7.16267
6.54841
5.78014
4.95803
4.11397
3.44935
3.01835
2.78106
0
0
10.9919
10.6237
9.92013
9.04994
7.97864
8.32137
8.55329
8.73644
8.85368
8.9039
8.98066
9.26524
7.09008
6.53035
5.78422
4.95466
4.1155
3.45117
3.02323
2.7879
0
0
10.9771
10.6132
9.91587
9.06588
8.07848
8.27792
8.5659
8.74128
8.85056
8.8978
8.97467
9.37131
6.91871
6.51686
5.78993
5.0536
4.11346
3.44767
3.02558
2.79403
0
0
10.9636
10.6054
9.91236
9.08129
7.76809
8.31496
8.5848
8.7456
8.84858
8.89085
8.97007
9.33751
6.62446
6.50987
5.79643
5.06425
4.10296
3.43837
3.02539
2.79951
0
0
10.9512
10.6009
10.0102
9.10438
7.77693
8.36345
8.60828
8.75389
8.84742
8.8828
8.96261
10.3251
6.21838
6.52155
5.81073
5.09748
4.08318
3.42273
3.02265
2.80445
0
0
10.9399
10.5973
10.0097
9.13827
7.67763
8.41936
8.63565
8.76357
8.84702
8.87314
8.92071
9.65498
6.58218
6.56531
5.87268
5.15138
4.0507
3.39618
3.01732
2.80899
0
0
10.9294
10.5945
10.0181
9.18156
7.43653
8.48969
8.66659
8.77396
8.84716
8.86277
8.86586
9.16341
6.91078
6.6327
5.94279
5.22917
4.00004
3.36369
3.00958
2.81329
0
0
10.9196
10.5924
10.0335
9.24849
7.02618
8.59099
8.70071
8.78249
8.84787
8.85272
8.81083
8.83368
7.14049
6.71528
6.01256
5.33835
3.92245
3.32007
2.99948
2.81756
0
0
10.9105
10.5909
10.0539
9.36166
6.40913
8.75297
8.73664
8.79378
8.84937
8.84409
8.76147
8.61753
7.29591
6.81894
6.072
5.49242
3.80401
3.26355
2.98781
2.82205
0
0
10.9019
10.5894
10.0763
9.53541
11.1865
8.95565
8.76893
8.80501
8.85167
8.83799
8.71976
8.47629
7.40233
6.84534
6.21778
5.71483
3.62108
3.19181
2.97422
2.82703
0
0
10.8937
10.5876
10.0962
9.64692
10.752
9.03855
8.80095
8.81535
8.85477
8.83566
8.68566
8.38463
7.47791
6.88819
6.35609
6.03896
3.32758
3.10192
2.96007
2.83281
0
0
10.8859
10.5852
10.1113
9.7028
10.3465
9.07573
8.82397
8.8238
8.85866
8.83075
8.66571
8.32667
7.5299
6.93533
6.49376
6.52242
2.87648
2.9944
2.94672
2.83974
0
0
10.8785
10.582
10.1205
9.72552
10.0578
9.08736
8.83974
8.8366
8.86355
8.83112
8.65203
8.29241
7.5702
6.97984
6.71113
7.25942
2.17569
2.87158
2.93627
2.84818
0
0
10.8717
10.5777
10.1215
9.7286
9.87418
9.08474
8.84913
8.84248
8.86934
8.83187
8.64924
8.27569
7.60398
7.05095
6.85937
8.38937
1.08019
2.74163
2.9318
2.85846
0
0
10.8655
10.5726
10.1172
9.71908
9.78026
9.07329
8.85279
8.84791
8.87627
8.83755
8.65265
8.27254
7.63333
7.08427
6.99481
10.0833
-0.573268
2.62566
2.93797
2.87086
0
0
0
0
0
0
0
0
0
0
0
0
0
0
0
0
0
0
0
0
0
0
0
0
11.0082
10.6338
9.92353
9.03877
7.90622
8.29537
8.54498
8.73353
8.8501
8.90921
8.98963
9.44587
7.16267
6.54841
5.78014
4.95803
4.11397
3.44935
3.01835
2.78106
0
-11.0082
11.0082
10.6338
9.92353
9.03877
7.90622
8.29537
8.54498
8.73353
8.8501
8.90921
8.98963
9.44587
7.16267
6.54841
5.78014
4.95803
4.11397
3.44935
3.01835
2.78106
2.78106
0.000340523
10.9919
10.6237
9.92013
9.04994
7.97864
8.32137
8.55329
8.73644
8.85368
8.9039
8.98066
9.26524
7.09008
6.53035
5.78422
4.95466
4.1155
3.45117
3.02323
2.7879
2.7879
-10.9771
10.9771
10.6132
9.91587
9.06588
8.07848
8.27792
8.5659
8.74128
8.85056
8.8978
8.97467
9.37131
6.91871
6.51686
5.78993
5.0536
4.11346
3.44767
3.02558
2.79403
2.79403
-10.9636
10.9636
10.6054
9.91236
9.08129
7.76809
8.31496
8.5848
8.7456
8.84858
8.89085
8.97007
9.33751
6.62446
6.50987
5.79643
5.06425
4.10296
3.43837
3.02539
2.79951
2.79951
-10.9512
10.9512
10.6009
10.0102
9.10438
7.77693
8.36345
8.60828
8.75389
8.84742
8.8828
8.96261
10.3251
6.21838
6.52155
5.81073
5.09748
4.08318
3.42273
3.02265
2.80445
2.80445
-10.9399
10.9399
10.5973
10.0097
9.13827
7.67763
8.41936
8.63565
8.76357
8.84702
8.87314
8.92071
9.65498
6.58218
6.56531
5.87268
5.15138
4.0507
3.39618
3.01732
2.80899
2.80899
-10.9294
10.9294
10.5945
10.0181
9.18156
7.43653
8.48969
8.66659
8.77396
8.84716
8.86277
8.86586
9.16341
6.91078
6.6327
5.94279
5.22917
4.00004
3.36369
3.00958
2.81329
2.81329
-10.9196
10.9196
10.5924
10.0335
9.24849
7.02618
8.59099
8.70071
8.78249
8.84787
8.85272
8.81083
8.83368
7.14049
6.71528
6.01256
5.33835
3.92245
3.32007
2.99948
2.81756
2.81756
-10.9105
10.9105
10.5909
10.0539
9.36166
6.40913
8.75297
8.73664
8.79378
8.84937
8.84409
8.76147
8.61753
7.29591
6.81894
6.072
5.49242
3.80401
3.26355
2.98781
2.82205
2.82205
-10.9019
10.9019
10.5894
10.0763
9.53541
11.1865
8.95565
8.76893
8.80501
8.85167
8.83799
8.71976
8.47629
7.40233
6.84534
6.21778
5.71483
3.62108
3.19181
2.97422
2.82703
2.82703
-10.8937
10.8937
10.5876
10.0962
9.64692
10.752
9.03855
8.80095
8.81535
8.85477
8.83566
8.68566
8.38463
7.47791
6.88819
6.35609
6.03896
3.32758
3.10192
2.96007
2.83281
2.83281
-10.8859
10.8859
10.5852
10.1113
9.7028
10.3465
9.07573
8.82397
8.8238
8.85866
8.83075
8.66571
8.32667
7.5299
6.93533
6.49376
6.52242
2.87648
2.9944
2.94672
2.83974
2.83974
-10.8785
10.8785
10.582
10.1205
9.72552
10.0578
9.08736
8.83974
8.8366
8.86355
8.83112
8.65203
8.29241
7.5702
6.97984
6.71113
7.25942
2.17569
2.87158
2.93627
2.84818
2.84818
-10.8717
10.8717
10.5777
10.1215
9.7286
9.87418
9.08474
8.84913
8.84248
8.86934
8.83187
8.64924
8.27569
7.60398
7.05095
6.85937
8.38937
1.08019
2.74163
2.9318
2.85846
2.85846
-10.8655
10.8655
10.5726
10.1172
9.71908
9.78026
9.07329
8.85279
8.84791
8.87627
8.83755
8.65265
8.27254
7.63333
7.08427
6.99481
10.0833
-0.573268
2.62566
2.93797
2.87086
2.87086
0
10.8655
10.5726
10.1172
9.71908
9.78026
9.07329
8.85279
8.84791
8.87627
8.83755
8.65265
8.27254
7.63333
7.08427
6.99481
10.0833
-0.573268
2.62566
2.93797
2.87086
0
0
11.0061
10.6351
9.93861
9.09891
8.16273
8.32381
8.5531
8.73937
8.86027
8.91336
8.97439
9.69018
7.27279
6.5681
5.79975
4.98465
4.13017
3.46403
3.03172
2.79359
0
-11.0061
11.0061
10.6351
9.93861
9.09891
8.16273
8.32381
8.5531
8.73937
8.86027
8.91336
8.97439
9.69018
7.27279
6.5681
5.79975
4.98465
4.13017
3.46403
3.03172
2.79359
2.79359
-10.99
10.99
10.6305
9.93676
9.09911
8.26699
8.33907
8.55627
8.74269
8.85892
8.90791
8.96303
9.2767
7.22311
6.56237
5.8041
4.99842
4.13179
3.466
3.03666
2.80045
2.80045
-10.9752
10.9752
10.6144
9.93861
9.108
8.19662
8.34268
8.57513
8.74733
8.85697
8.90173
8.95203
9.18636
7.1466
6.55797
5.80876
5.03924
4.12924
3.46282
3.03916
2.80662
2.80662
-10.9617
10.9617
10.6052
9.94938
9.12195
8.08348
8.36909
8.59493
8.75302
8.85542
8.89471
8.94089
9.19874
7.10174
6.56061
5.80811
5.06769
4.11987
3.454
3.03921
2.81217
2.81217
-10.9493
10.9493
10.5997
9.98472
9.14463
8.0408
8.40994
8.61793
8.7607
8.85445
8.88668
8.92518
9.39656
6.88768
6.57448
5.78268
5.10406
4.1019
3.43874
3.0368
2.8172
2.8172
-10.938
10.938
10.5958
10.0011
9.17749
7.98776
8.46249
8.64437
8.76976
8.85411
8.8775
8.89103
9.19478
6.9653
6.61124
5.88342
5.15752
4.07234
3.41554
3.03196
2.82185
2.82185
-10.9275
10.9275
10.5929
10.0158
9.22329
7.91602
8.53045
8.67401
8.77961
8.85434
8.86775
8.84657
8.93911
7.11338
6.66589
5.96084
5.23119
4.02654
3.3846
3.02483
2.82628
2.82628
-10.9178
10.9178
10.5908
10.0329
9.29034
7.89274
8.62239
8.70626
8.78955
8.85518
8.8583
8.80039
8.72456
7.2505
6.73137
6.0361
5.33224
3.95756
3.34398
3.01557
2.8307
2.8307
-10.9087
10.9087
10.5892
10.0527
9.38866
8.1613
8.74672
8.73971
8.80033
8.85675
8.85003
8.75782
8.56501
7.3595
6.8003
6.11835
5.47179
3.85574
3.29224
3.0046
2.83536
2.83536
-10.9001
10.9001
10.5876
10.0734
9.51563
9.60926
8.88928
8.7716
8.81114
8.85909
8.8437
8.72154
8.45256
7.4435
6.84976
6.23043
5.66667
3.71007
3.22844
2.99228
2.84052
2.84052
-10.8919
10.8919
10.5855
10.092
9.60975
9.93099
8.97902
8.80015
8.82141
8.86222
8.83963
8.69284
8.37613
7.51248
6.89808
6.35421
5.9399
3.45617
3.147
2.97949
2.84649
2.84649
-10.8841
10.8841
10.5823
10.107
9.66568
9.90576
9.02793
8.8224
8.83084
8.86617
8.8368
8.67341
8.32641
7.55201
6.94658
6.48894
6.32469
3.10111
3.05344
2.96764
2.85361
2.85361
-10.8767
10.8767
10.5766
10.1193
9.69291
9.80373
9.04983
8.83815
8.84028
8.87106
8.83689
8.66174
8.29675
7.58737
6.9949
6.64409
6.86152
2.59899
2.95104
2.95858
2.8622
2.8622
-10.8699
10.8699
10.5747
10.1167
9.70026
9.7038
9.0545
8.84772
8.84727
8.87691
8.83949
8.65825
8.28255
7.61865
7.04556
6.7804
7.57908
1.91871
2.84939
2.95464
2.87258
2.87258
-10.8638
10.8638
10.5703
10.1115
9.69378
9.62046
9.04754
8.8516
8.85289
8.88388
8.84576
8.66169
8.28068
7.64678
7.08294
6.89179
8.42675
1.11067
2.76799
2.95814
2.88501
2.88501
0
10.8638
10.5703
10.1115
9.69378
9.62046
9.04754
8.8516
8.85289
8.88388
8.84576
8.66169
8.28068
7.64678
7.08294
6.89179
8.42675
1.11067
2.76799
2.95814
2.88501
0
0
11.0028
10.6317
9.95227
9.13868
8.27755
8.34458
8.5656
8.74772
8.86699
8.91433
8.94184
9.18978
7.35453
6.59858
5.82274
5.00789
4.14733
3.48025
3.04617
2.80683
0
-11.0028
11.0028
10.6317
9.95227
9.13868
8.27755
8.34458
8.5656
8.74772
8.86699
8.91433
8.94184
9.18978
7.35453
6.59858
5.82274
5.00789
4.14733
3.48025
3.04617
2.80683
2.80683
-10.9869
10.9869
10.6222
9.95101
9.14149
8.33978
8.36394
8.5732
8.75007
8.86477
8.90893
8.93142
9.05763
7.32676
6.59817
5.82834
5.02169
4.14942
3.48246
3.05121
2.81372
2.81372
-10.9722
10.9722
10.6115
9.95435
9.1489
8.31796
8.38487
8.58789
8.75431
8.86295
8.90276
8.91892
8.9874
7.28432
6.59963
5.83641
5.04702
4.14724
3.47983
3.05394
2.81994
2.81994
-10.9588
10.9588
10.6034
9.96436
9.16282
8.27882
8.4147
8.60649
8.76012
8.8616
8.89581
8.90458
8.96904
7.2417
6.60691
5.84686
5.07557
4.13926
3.47194
3.05434
2.82558
2.82558
-10.9465
10.9465
10.5978
9.98274
9.18554
8.25944
8.45456
8.62858
8.76754
8.8608
8.88802
8.88562
8.98268
7.17994
6.62374
5.8639
5.11206
4.12376
3.45813
3.05245
2.83074
2.83074
-10.9352
10.9352
10.5938
9.99898
9.21857
8.25324
8.50519
8.6539
8.77625
8.86057
8.87944
8.85689
8.88719
7.20246
6.65532
5.92009
5.16187
4.0982
3.4376
3.04831
2.83554
2.83554
-10.9248
10.9248
10.5908
10.015
9.26436
8.27283
8.56914
8.68204
8.78585
8.86093
8.87051
8.82136
8.74828
7.27126
6.69968
5.9847
5.22883
4.05882
3.40974
3.04207
2.84015
2.84015
-10.9151
10.9151
10.5886
10.0324
9.32691
8.37039
8.65002
8.71224
8.79596
8.86192
8.86189
8.78403
8.61424
7.34984
6.75217
6.05564
5.31845
4.00012
3.37348
3.03395
2.84479
2.84479
-10.906
10.906
10.5869
10.051
9.40852
8.65144
8.74841
8.74318
8.80648
8.86359
8.85429
8.74895
8.50392
7.42171
6.80712
6.13612
5.43861
3.91429
3.32775
3.0243
2.84968
2.84968
-10.8974
10.8974
10.5851
10.0698
9.50155
9.2161
8.85243
8.77283
8.81698
8.866
8.84832
8.71868
8.42047
7.48259
6.85743
6.23183
5.60004
3.78961
3.27168
3.01365
2.8551
2.8551
-10.8892
10.8892
10.5828
10.0864
9.57804
9.50115
8.93178
8.79908
8.82702
8.8692
8.84432
8.6947
8.36103
7.53302
6.90586
6.33884
5.81593
3.6039
3.20433
3.00284
2.86133
2.86133
-10.8814
10.8814
10.5798
10.0993
9.62944
9.58848
8.98267
8.82018
8.83633
8.87323
8.84234
8.6779
8.32135
7.57108
6.9532
6.45457
6.10115
3.35067
3.12857
2.99312
2.86869
2.86869
-10.8741
10.8741
10.5758
10.1075
9.65793
9.58379
9.01021
8.8355
8.84481
8.87816
8.84296
8.66817
8.29761
7.60348
6.99907
6.57572
6.46579
3.02069
3.04925
2.98613
2.87749
2.87749
-10.8673
10.8673
10.5719
10.108
9.66824
9.54445
9.02043
8.84504
8.85181
8.88407
8.8464
8.66546
8.28683
7.63245
7.04225
6.68631
6.89845
2.62504
2.97554
2.98374
2.88804
2.88804
-10.8612
10.8612
10.5669
10.1037
9.66458
9.49266
9.01782
8.84905
8.85745
8.89108
8.85316
8.66938
8.28683
7.65908
7.07764
6.77365
7.33195
2.2307
2.92243
2.98778
2.90057
2.90057
0
10.8612
10.5669
10.1037
9.66458
9.49266
9.01782
8.84905
8.85745
8.89108
8.85316
8.66938
8.28683
7.65908
7.07764
6.77365
7.33195
2.2307
2.92243
2.98778
2.90057
0
0
10.9988
10.6279
9.96331
9.17987
8.28939
8.3491
8.57769
8.7555
8.87286
8.91336
8.90353
8.89843
7.41971
6.63276
5.8475
5.02796
4.16582
3.49773
3.06155
2.82071
0
-10.9988
10.9988
10.6279
9.96331
9.17987
8.28939
8.3491
8.57769
8.7555
8.87286
8.91336
8.90353
8.89843
7.41971
6.63276
5.8475
5.02796
4.16582
3.49773
3.06155
2.82071
2.82071
-10.983
10.983
10.6176
9.96202
9.17942
8.45094
8.38319
8.58637
8.75752
8.87045
8.90808
8.89451
8.84887
7.4045
6.63493
5.85436
5.04014
4.1683
3.50028
3.06672
2.82763
2.82763
-10.9685
10.9685
10.6083
9.96508
9.18477
8.42609
8.41614
8.60016
8.76151
8.86866
8.90208
8.88237
8.80536
7.381
6.63978
5.86548
5.06005
4.16689
3.49837
3.06973
2.83393
2.83393
-10.9552
10.9552
10.6009
9.9731
9.19854
8.41884
8.45138
8.61796
8.76719
8.86742
8.89537
8.8675
8.7768
7.35674
6.6498
5.88217
5.08616
4.16055
3.49168
3.07058
2.83967
2.83967
-10.943
10.943
10.5954
9.98577
9.2215
8.42375
8.49252
8.63919
8.7744
8.86675
8.888
8.84871
8.75047
7.33661
6.66753
5.90833
5.12026
4.14789
3.47975
3.06932
2.84498
2.84498
-10.9318
10.9318
10.5913
10
9.25438
8.44734
8.54184
8.66339
8.78284
8.86666
8.88012
8.82437
8.68955
7.34732
6.69526
5.95194
5.16532
4.12687
3.462
3.06604
2.84996
2.84996
-10.9214
10.9214
10.5883
10.0154
9.29826
8.50255
8.6012
8.68999
8.79221
8.86717
8.87207
8.79588
8.60678
7.38268
6.73218
6.00655
5.22439
4.09464
3.43789
3.06089
2.8548
2.8548
-10.9117
10.9117
10.586
10.0319
9.35424
8.61513
8.67165
8.71818
8.80216
8.8683
8.86441
8.76613
8.52202
7.42873
6.77557
6.06991
5.30134
4.04722
3.40677
3.05413
2.8597
2.8597
-10.9026
10.9026
10.584
10.0491
9.4212
8.81559
8.75119
8.74671
8.81241
8.8701
8.85769
8.73794
8.44751
7.47573
6.82194
6.14236
5.4012
3.97921
3.36808
3.04613
2.86487
2.86487
-10.894
10.894
10.582
10.0658
9.49223
9.09273
8.83139
8.77395
8.82259
8.87263
8.85243
8.71343
8.38806
7.51913
6.86808
6.22485
5.53004
3.88351
3.32162
3.03746
2.87059
2.87059
-10.8858
10.8858
10.5797
10.0804
9.55364
9.28868
8.89797
8.79814
8.83234
8.87592
8.84903
8.69395
8.34411
7.55741
6.91346
6.31556
5.69413
3.75162
3.26792
3.02893
2.87712
2.87712
-10.8781
10.8781
10.5767
10.0914
9.59834
9.38769
8.94538
8.81792
8.84135
8.88003
8.84777
8.6803
8.31427
7.59007
6.95765
6.41158
5.898
3.5808
3.20955
3.02168
2.88478
2.88478
-10.8708
10.8708
10.5729
10.0979
9.62542
9.42032
8.97425
8.83256
8.84942
8.88504
8.84901
8.67275
8.29669
7.61903
6.99982
6.50795
6.13936
3.37405
3.1512
3.0171
2.89385
2.89385
-10.864
10.864
10.5684
10.0988
9.63679
9.41517
8.98743
8.84185
8.85626
8.89102
8.85304
8.67136
8.28964
7.64561
7.03845
6.59531
6.3999
3.14969
3.10046
3.01676
2.90461
2.90461
-10.8579
10.8579
10.5631
10.0948
9.63491
9.3892
8.98784
8.84584
8.86184
8.89807
8.86017
8.67605
8.29177
7.67063
7.07115
6.66348
6.63325
2.95367
3.06779
3.02217
2.91729
2.91729
0
10.8579
10.5631
10.0948
9.63491
9.3892
8.98784
8.84584
8.86184
8.89807
8.86017
8.67605
8.29177
7.67063
7.07115
6.66348
6.63325
2.95367
3.06779
3.02217
2.91729
0
0
10.9942
10.6242
9.97114
9.22537
8.45553
8.32025
8.58855
8.76296
8.87842
8.91169
8.86681
8.71096
7.4713
6.66716
5.87256
5.04631
4.18517
3.51618
3.07768
2.83517
0
-10.9942
10.9942
10.6242
9.97114
9.22537
8.45553
8.32025
8.58855
8.76296
8.87842
8.91169
8.86681
8.71096
7.4713
6.66716
5.87256
5.04631
4.18517
3.51618
3.07768
2.83517
2.83517
-10.9786
10.9786
10.6139
9.96953
9.20927
8.52798
8.39536
8.59767
8.76485
8.87602
8.90659
8.85885
8.68797
7.46309
6.67062
5.88018
5.05722
4.18807
3.5191
3.083
2.84212
2.84212
-10.9642
10.9642
10.6051
9.97204
9.21152
8.52829
8.44041
8.61122
8.76867
8.87427
8.90084
8.84772
8.66022
7.45063
6.67726
5.89289
5.07447
4.18759
3.518
3.08632
2.84849
2.84849
-10.9511
10.9511
10.598
9.97869
9.22541
8.52181
8.47998
8.62851
8.77421
8.87313
8.89449
8.83374
8.63341
7.43857
6.68855
5.91185
5.09801
4.18303
3.51264
3.08766
2.85436
2.85436
-10.9389
10.9389
10.5926
9.98898
9.24898
8.53795
8.52229
8.64902
8.78122
8.87259
8.88765
8.81665
8.60328
7.43204
6.70603
5.93915
5.12888
4.17329
3.50271
3.0871
2.85982
2.85982
-10.9278
10.9278
10.5885
10.0016
9.28158
8.5763
8.57037
8.67219
8.78945
8.87263
8.8805
8.79616
8.56003
7.4394
6.73077
5.97718
5.16884
4.1569
3.48785
3.08474
2.86502
2.86502
-10.9174
10.9174
10.5853
10.0159
9.32303
8.64132
8.62546
8.6974
8.79857
8.87328
8.87336
8.7732
8.50673
7.45998
6.76235
6.02459
5.21996
4.13181
3.46769
3.08078
2.8701
2.8701
-10.9078
10.9078
10.5829
10.0312
9.37274
8.74187
8.68734
8.72378
8.80828
8.87457
8.86667
8.74959
8.45159
7.48858
6.79917
6.08024
5.28472
4.09539
3.44191
3.07548
2.87527
2.87527
-10.8987
10.8987
10.5808
10.0468
9.4285
8.88266
8.75353
8.75019
8.81824
8.87651
8.8609
8.72725
8.40143
7.52017
6.83915
6.14365
5.366
4.04439
3.4104
3.06926
2.88075
2.88075
-10.8901
10.8901
10.5786
10.0617
9.48507
9.04615
8.81834
8.77527
8.82811
8.87917
8.8565
8.70781
8.36003
7.5516
6.88031
6.2143
5.46681
3.97521
3.37345
3.06266
2.88679
2.88679
-10.882
10.882
10.5761
10.0744
9.53489
9.17948
8.8741
8.7976
8.83755
8.88258
8.85386
8.69244
8.32874
7.58128
6.9215
6.29053
5.58934
3.8849
3.33213
3.05648
2.89366
2.89366
-10.8743
10.8743
10.573
10.0839
9.57286
9.26419
8.91631
8.81604
8.84628
8.88679
8.85331
8.68189
8.30748
7.60868
6.96179
6.36952
5.73343
3.77396
3.28888
3.05172
2.90164
2.90164
-10.867
10.867
10.5691
10.0892
9.59717
9.30589
8.94397
8.82987
8.85408
8.89188
8.85516
8.67656
8.29554
7.63422
7.00011
6.44685
5.89346
3.64823
3.2477
3.04957
2.911
2.911
-10.8603
10.8603
10.5644
10.0898
9.60812
9.31645
8.95799
8.83875
8.86075
8.89793
8.85968
8.67664
8.29208
7.65847
7.03512
6.51616
6.05443
3.5227
3.21434
3.05133
2.922
2.922
-10.8541
10.8541
10.5588
10.0857
9.60688
9.30593
8.9599
8.84258
8.86625
8.90502
8.86713
8.68222
8.29632
7.68188
7.06533
6.57035
6.18892
3.42443
3.19582
3.05822
2.93485
2.93485
0
10.8541
10.5588
10.0857
9.60688
9.30593
8.9599
8.84258
8.86625
8.90502
8.86713
8.68222
8.29632
7.68188
7.06533
6.57035
6.18892
3.42443
3.19582
3.05822
2.93485
0
0
10.9892
10.6205
9.97483
9.21431
8.41071
8.38969
8.59923
8.77019
8.88404
8.91044
8.83536
8.58523
7.51254
6.70016
5.89699
5.06387
4.20501
3.53523
3.09436
2.85011
0
-10.9892
10.9892
10.6205
9.97483
9.21431
8.41071
8.38969
8.59923
8.77019
8.88404
8.91044
8.83536
8.58523
7.51254
6.70016
5.89699
5.06387
4.20501
3.53523
3.09436
2.85011
2.85011
-10.9738
10.9738
10.6103
9.97329
9.21463
8.49847
8.42484
8.60782
8.772
8.8817
8.90554
8.8282
8.57198
7.50818
6.70422
5.9049
5.07389
4.20833
3.53851
3.09983
2.8571
2.8571
-10.9596
10.9596
10.6017
9.97559
9.22325
8.53819
8.46227
8.6209
8.77572
8.88002
8.90008
8.8182
8.55302
7.50194
6.71165
5.91811
5.0894
4.20883
3.53822
3.10346
2.86355
2.86355
-10.9466
10.9466
10.5949
9.98161
9.24064
8.56642
8.50117
8.63771
8.78113
8.87898
8.89414
8.80565
8.53114
7.49658
6.7233
5.93736
5.11062
4.20599
3.53419
3.1053
2.86954
2.86954
-10.9346
10.9346
10.5895
9.99084
9.26618
8.60232
8.54353
8.65761
8.78799
8.87856
8.88785
8.79069
8.50553
7.49528
6.74003
5.96366
5.13824
4.19905
3.52625
3.10543
2.87517
2.87517
-10.9235
10.9235
10.5853
10.0025
9.29919
8.65238
8.59048
8.67995
8.79603
8.87874
8.88142
8.77353
8.47396
7.50129
6.76236
5.99787
5.17335
4.18696
3.51418
3.10401
2.88057
2.88057
-10.9132
10.9132
10.5821
10.0158
9.33881
8.71992
8.64218
8.704
8.80494
8.87954
8.87514
8.75494
8.43784
7.51485
6.78998
6.0397
5.21722
4.16839
3.49782
3.10123
2.8859
2.8859
-10.9036
10.9036
10.5795
10.03
9.38373
8.80721
8.69773
8.72889
8.8144
8.88097
8.86937
8.73616
8.40092
7.53401
6.82192
6.08851
5.27128
4.14174
3.4771
3.09738
2.89135
2.89135
-10.8945
10.8945
10.5772
10.0442
9.43159
8.91222
8.75476
8.75355
8.82409
8.88306
8.86451
8.71856
8.36694
7.55633
6.85685
6.14361
5.33699
4.10526
3.45222
3.09288
2.89714
2.89714
-10.886
10.886
10.5749
10.0574
9.47855
9.02309
8.80936
8.77684
8.83367
8.88585
8.86097
8.70335
8.3385
7.57989
6.8934
6.20404
5.41552
4.05742
3.42374
3.08828
2.90351
2.90351
-10.8779
10.8779
10.5722
10.0686
9.51995
9.11856
8.8569
8.79757
8.84284
8.88938
8.8591
8.69152
8.31691
7.60352
6.9304
6.26817
5.50704
3.99769
3.39292
3.08431
2.91071
2.91071
-10.8702
10.8702
10.569
10.0768
9.55218
9.18686
8.8941
8.81478
8.85131
8.8937
8.85924
8.68376
8.30259
7.62665
6.96681
6.33346
5.60971
3.92787
3.36192
3.08186
2.91901
2.91901
-10.863
10.863
10.565
10.0811
9.57339
9.22692
8.9195
8.82779
8.85889
8.89887
8.86165
8.68049
8.29543
7.64923
7.00157
6.39636
5.71816
3.85333
3.33396
3.08193
2.92866
2.92866
-10.8562
10.8562
10.5601
10.0812
9.58312
9.24287
8.93306
8.83618
8.86542
8.90498
8.86662
8.68201
8.2951
7.6714
7.03354
6.45239
5.82201
3.78435
3.31323
3.08558
2.9399
2.9399
-10.8501
10.8501
10.5544
10.0769
9.58169
9.23977
8.93534
8.83977
8.87084
8.91211
8.87434
8.68847