# vtk DataFile Version 3.0
FlowField
ASCII
DATASET STRUCTURED_GRID
DIMENSIONS 102 12 1 
POINTS 1224 double
0 0 0
0.3 0 0
0.6 0 0
0.9 0 0
1.2 0 0
1.5 0 0
1.8 0 0
2.1 0 0
2.4 0 0
2.7 0 0
3 0 0
3.3 0 0
3.6 0 0
3.9 0 0
4.2 0 0
4.5 0 0
4.8 0 0
5.1 0 0
5.4 0 0
5.7 0 0
6 0 0
6.3 0 0
6.6 0 0
6.9 0 0
7.2 0 0
7.5 0 0
7.8 0 0
8.1 0 0
8.4 0 0
8.7 0 0
9 0 0
9.3 0 0
9.6 0 0
9.9 0 0
10.2 0 0
10.5 0 0
10.8 0 0
11.1 0 0
11.4 0 0
11.7 0 0
12 0 0
12.3 0 0
12.6 0 0
12.9 0 0
13.2 0 0
13.5 0 0
13.8 0 0
14.1 0 0
14.4 0 0
14.7 0 0
15 0 0
15.3 0 0
15.6 0 0
15.9 0 0
16.2 0 0
16.5 0 0
16.8 0 0
17.1 0 0
17.4 0 0
17.7 0 0
18 0 0
18.3 0 0
18.6 0 0
18.9 0 0
19.2 0 0
19.5 0 0
19.8 0 0
20.1 0 0
20.4 0 0
20.7 0 0
21 0 0
21.3 0 0
21.6 0 0
21.9 0 0
22.2 0 0
22.5 0 0
22.8 0 0
23.1 0 0
23.4 0 0
23.7 0 0
24 0 0
24.3 0 0
24.6 0 0
24.9 0 0
25.2 0 0
25.5 0 0
25.8 0 0
26.1 0 0
26.4 0 0
26.7 0 0
27 0 0
27.3 0 0
27.6 0 0
27.9 0 0
28.2 0 0
28.5 0 0
28.8 0 0
29.1 0 0
29.4 0 0
29.7 0 0
30 0 0
30.3 0 0
0 0.1 0
0.3 0.1 0
0.6 0.1 0
0.9 0.1 0
1.2 0.1 0
1.5 0.1 0
1.8 0.1 0
2.1 0.1 0
2.4 0.1 0
2.7 0.1 0
3 0.1 0
3.3 0.1 0
3.6 0.1 0
3.9 0.1 0
4.2 0.1 0
4.5 0.1 0
4.8 0.1 0
5.1 0.1 0
5.4 0.1 0
5.7 0.1 0
6 0.1 0
6.3 0.1 0
6.6 0.1 0
6.9 0.1 0
7.2 0.1 0
7.5 0.1 0
7.8 0.1 0
8.1 0.1 0
8.4 0.1 0
8.7 0.1 0
9 0.1 0
9.3 0.1 0
9.6 0.1 0
9.9 0.1 0
10.2 0.1 0
10.5 0.1 0
10.8 0.1 0
11.1 0.1 0
11.4 0.1 0
11.7 0.1 0
12 0.1 0
12.3 0.1 0
12.6 0.1 0
12.9 0.1 0
13.2 0.1 0
13.5 0.1 0
13.8 0.1 0
14.1 0.1 0
14.4 0.1 0
14.7 0.1 0
15 0.1 0
15.3 0.1 0
15.6 0.1 0
15.9 0.1 0
16.2 0.1 0
16.5 0.1 0
16.8 0.1 0
17.1 0.1 0
17.4 0.1 0
17.7 0.1 0
18 0.1 0
18.3 0.1 0
18.6 0.1 0
18.9 0.1 0
19.2 0.1 0
19.5 0.1 0
19.8 0.1 0
20.1 0.1 0
20.4 0.1 0
20.7 0.1 0
21 0.1 0
21.3 0.1 0
21.6 0.1 0
21.9 0.1 0
22.2 0.1 0
22.5 0.1 0
22.8 0.1 0
23.1 0.1 0
23.4 0.1 0
23.7 0.1 0
24 0.1 0
24.3 0.1 0
24.6 0.1 0
24.9 0.1 0
25.2 0.1 0
25.5 0.1 0
25.8 0.1 0
26.1 0.1 0
26.4 0.1 0
26.7 0.1 0
27 0.1 0
27.3 0.1 0
27.6 0.1 0
27.9 0.1 0
28.2 0.1 0
28.5 0.1 0
28.8 0.1 0
29.1 0.1 0
29.4 0.1 0
29.7 0.1 0
30 0.1 0
30.3 0.1 0
0 0.2 0
0.3 0.2 0
0.6 0.2 0
0.9 0.2 0
1.2 0.2 0
1.5 0.2 0
1.8 0.2 0
2.1 0.2 0
2.4 0.2 0
2.7 0.2 0
3 0.2 0
3.3 0.2 0
3.6 0.2 0
3.9 0.2 0
4.2 0.2 0
4.5 0.2 0
4.8 0.2 0
5.1 0.2 0
5.4 0.2 0
5.7 0.2 0
6 0.2 0
6.3 0.2 0
6.6 0.2 0
6.9 0.2 0
7.2 0.2 0
7.5 0.2 0
7.8 0.2 0
8.1 0.2 0
8.4 0.2 0
8.7 0.2 0
9 0.2 0
9.3 0.2 0
9.6 0.2 0
9.9 0.2 0
10.2 0.2 0
10.5 0.2 0
10.8 0.2 0
11.1 0.2 0
11.4 0.2 0
11.7 0.2 0
12 0.2 0
12.3 0.2 0
12.6 0.2 0
12.9 0.2 0
13.2 0.2 0
13.5 0.2 0
13.8 0.2 0
14.1 0.2 0
14.4 0.2 0
14.7 0.2 0
15 0.2 0
15.3 0.2 0
15.6 0.2 0
15.9 0.2 0
16.2 0.2 0
16.5 0.2 0
16.8 0.2 0
17.1 0.2 0
17.4 0.2 0
17.7 0.2 0
18 0.2 0
18.3 0.2 0
18.6 0.2 0
18.9 0.2 0
19.2 0.2 0
19.5 0.2 0
19.8 0.2 0
20.1 0.2 0
20.4 0.2 0
20.7 0.2 0
21 0.2 0
21.3 0.2 0
21.6 0.2 0
21.9 0.2 0
22.2 0.2 0
22.5 0.2 0
22.8 0.2 0
23.1 0.2 0
23.4 0.2 0
23.7 0.2 0
24 0.2 0
24.3 0.2 0
24.6 0.2 0
24.9 0.2 0
25.2 0.2 0
25.5 0.2 0
25.8 0.2 0
26.1 0.2 0
26.4 0.2 0
26.7 0.2 0
27 0.2 0
27.3 0.2 0
27.6 0.2 0
27.9 0.2 0
28.2 0.2 0
28.5 0.2 0
28.8 0.2 0
29.1 0.2 0
29.4 0.2 0
29.7 0.2 0
30 0.2 0
30.3 0.2 0
0 0.3 0
0.3 0.3 0
0.6 0.3 0
0.9 0.3 0
1.2 0.3 0
1.5 0.3 0
1.8 0.3 0
2.1 0.3 0
2.4 0.3 0
2.7 0.3 0
3 0.3 0
3.3 0.3 0
3.6 0.3 0
3.9 0.3 0
4.2 0.3 0
4.5 0.3 0
4.8 0.3 0
5.1 0.3 0
5.4 0.3 0
5.7 0.3 0
6 0.3 0
6.3 0.3 0
6.6 0.3 0
6.9 0.3 0
7.2 0.3 0
7.5 0.3 0
7.8 0.3 0
8.1 0.3 0
8.4 0.3 0
8.7 0.3 0
9 0.3 0
9.3 0.3 0
9.6 0.3 0
9.9 0.3 0
10.2 0.3 0
10.5 0.3 0
10.8 0.3 0
11.1 0.3 0
11.4 0.3 0
11.7 0.3 0
12 0.3 0
12.3 0.3 0
12.6 0.3 0
12.9 0.3 0
13.2 0.3 0
13.5 0.3 0
13.8 0.3 0
14.1 0.3 0
14.4 0.3 0
14.7 0.3 0
15 0.3 0
15.3 0.3 0
15.6 0.3 0
15.9 0.3 0
16.2 0.3 0
16.5 0.3 0
16.8 0.3 0
17.1 0.3 0
17.4 0.3 0
17.7 0.3 0
18 0.3 0
18.3 0.3 0
18.6 0.3 0
18.9 0.3 0
19.2 0.3 0
19.5 0.3 0
19.8 0.3 0
20.1 0.3 0
20.4 0.3 0
20.7 0.3 0
21 0.3 0
21.3 0.3 0
21.6 0.3 0
21.9 0.3 0
22.2 0.3 0
22.5 0.3 0
22.8 0.3 0
23.1 0.3 0
23.4 0.3 0
23.7 0.3 0
24 0.3 0
24.3 0.3 0
24.6 0.3 0
24.9 0.3 0
25.2 0.3 0
25.5 0.3 0
25.8 0.3 0
26.1 0.3 0
26.4 0.3 0
26.7 0.3 0
27 0.3 0
27.3 0.3 0
27.6 0.3 0
27.9 0.3 0
28.2 0.3 0
28.5 0.3 0
28.8 0.3 0
29.1 0.3 0
29.4 0.3 0
29.7 0.3 0
30 0.3 0
30.3 0.3 0
0 0.4 0
0.3 0.4 0
0.6 0.4 0
0.9 0.4 0
1.2 0.4 0
1.5 0.4 0
1.8 0.4 0
2.1 0.4 0
2.4 0.4 0
2.7 0.4 0
3 0.4 0
3.3 0.4 0
3.6 0.4 0
3.9 0.4 0
4.2 0.4 0
4.5 0.4 0
4.8 0.4 0
5.1 0.4 0
5.4 0.4 0
5.7 0.4 0
6 0.4 0
6.3 0.4 0
6.6 0.4 0
6.9 0.4 0
7.2 0.4 0
7.5 0.4 0
7.8 0.4 0
8.1 0.4 0
8.4 0.4 0
8.7 0.4 0
9 0.4 0
9.3 0.4 0
9.6 0.4 0
9.9 0.4 0
10.2 0.4 0
10.5 0.4 0
10.8 0.4 0
11.1 0.4 0
11.4 0.4 0
11.7 0.4 0
12 0.4 0
12.3 0.4 0
12.6 0.4 0
12.9 0.4 0
13.2 0.4 0
13.5 0.4 0
13.8 0.4 0
14.1 0.4 0
14.4 0.4 0
14.7 0.4 0
15 0.4 0
15.3 0.4 0
15.6 0.4 0
15.9 0.4 0
16.2 0.4 0
16.5 0.4 0
16.8 0.4 0
17.1 0.4 0
17.4 0.4 0
17.7 0.4 0
18 0.4 0
18.3 0.4 0
18.6 0.4 0
18.9 0.4 0
19.2 0.4 0
19.5 0.4 0
19.8 0.4 0
20.1 0.4 0
20.4 0.4 0
20.7 0.4 0
21 0.4 0
21.3 0.4 0
21.6 0.4 0
21.9 0.4 0
22.2 0.4 0
22.5 0.4 0
22.8 0.4 0
23.1 0.4 0
23.4 0.4 0
23.7 0.4 0
24 0.4 0
24.3 0.4 0
24.6 0.4 0
24.9 0.4 0
25.2 0.4 0
25.5 0.4 0
25.8 0.4 0
26.1 0.4 0
26.4 0.4 0
26.7 0.4 0
27 0.4 0
27.3 0.4 0
27.6 0.4 0
27.9 0.4 0
28.2 0.4 0
28.5 0.4 0
28.8 0.4 0
29.1 0.4 0
29.4 0.4 0
29.7 0.4 0
30 0.4 0
30.3 0.4 0
0 0.5 0
0.3 0.5 0
0.6 0.5 0
0.9 0.5 0
1.2 0.5 0
1.5 0.5 0
1.8 0.5 0
2.1 0.5 0
2.4 0.5 0
2.7 0.5 0
3 0.5 0
3.3 0.5 0
3.6 0.5 0
3.9 0.5 0
4.2 0.5 0
4.5 0.5 0
4.8 0.5 0
5.1 0.5 0
5.4 0.5 0
5.7 0.5 0
6 0.5 0
6.3 0.5 0
6.6 0.5 0
6.9 0.5 0
7.2 0.5 0
7.5 0.5 0
7.8 0.5 0
8.1 0.5 0
8.4 0.5 0
8.7 0.5 0
9 0.5 0
9.3 0.5 0
9.6 0.5 0
9.9 0.5 0
10.2 0.5 0
10.5 0.5 0
10.8 0.5 0
11.1 0.5 0
11.4 0.5 0
11.7 0.5 0
12 0.5 0
12.3 0.5 0
12.6 0.5 0
12.9 0.5 0
13.2 0.5 0
13.5 0.5 0
13.8 0.5 0
14.1 0.5 0
14.4 0.5 0
14.7 0.5 0
15 0.5 0
15.3 0.5 0
15.6 0.5 0
15.9 0.5 0
16.2 0.5 0
16.5 0.5 0
16.8 0.5 0
17.1 0.5 0
17.4 0.5 0
17.7 0.5 0
18 0.5 0
18.3 0.5 0
18.6 0.5 0
18.9 0.5 0
19.2 0.5 0
19.5 0.5 0
19.8 0.5 0
20.1 0.5 0
20.4 0.5 0
20.7 0.5 0
21 0.5 0
21.3 0.5 0
21.6 0.5 0
21.9 0.5 0
22.2 0.5 0
22.5 0.5 0
22.8 0.5 0
23.1 0.5 0
23.4 0.5 0
23.7 0.5 0
24 0.5 0
24.3 0.5 0
24.6 0.5 0
24.9 0.5 0
25.2 0.5 0
25.5 0.5 0
25.8 0.5 0
26.1 0.5 0
26.4 0.5 0
26.7 0.5 0
27 0.5 0
27.3 0.5 0
27.6 0.5 0
27.9 0.5 0
28.2 0.5 0
28.5 0.5 0
28.8 0.5 0
29.1 0.5 0
29.4 0.5 0
29.7 0.5 0
30 0.5 0
30.3 0.5 0
0 0.6 0
0.3 0.6 0
0.6 0.6 0
0.9 0.6 0
1.2 0.6 0
1.5 0.6 0
1.8 0.6 0
2.1 0.6 0
2.4 0.6 0
2.7 0.6 0
3 0.6 0
3.3 0.6 0
3.6 0.6 0
3.9 0.6 0
4.2 0.6 0
4.5 0.6 0
4.8 0.6 0
5.1 0.6 0
5.4 0.6 0
5.7 0.6 0
6 0.6 0
6.3 0.6 0
6.6 0.6 0
6.9 0.6 0
7.2 0.6 0
7.5 0.6 0
7.8 0.6 0
8.1 0.6 0
8.4 0.6 0
8.7 0.6 0
9 0.6 0
9.3 0.6 0
9.6 0.6 0
9.9 0.6 0
10.2 0.6 0
10.5 0.6 0
10.8 0.6 0
11.1 0.6 0
11.4 0.6 0
11.7 0.6 0
12 0.6 0
12.3 0.6 0
12.6 0.6 0
12.9 0.6 0
13.2 0.6 0
13.5 0.6 0
13.8 0.6 0
14.1 0.6 0
14.4 0.6 0
14.7 0.6 0
15 0.6 0
15.3 0.6 0
15.6 0.6 0
15.9 0.6 0
16.2 0.6 0
16.5 0.6 0
16.8 0.6 0
17.1 0.6 0
17.4 0.6 0
17.7 0.6 0
18 0.6 0
18.3 0.6 0
18.6 0.6 0
18.9 0.6 0
19.2 0.6 0
19.5 0.6 0
19.8 0.6 0
20.1 0.6 0
20.4 0.6 0
20.7 0.6 0
21 0.6 0
21.3 0.6 0
21.6 0.6 0
21.9 0.6 0
22.2 0.6 0
22.5 0.6 0
22.8 0.6 0
23.1 0.6 0
23.4 0.6 0
23.7 0.6 0
24 0.6 0
24.3 0.6 0
24.6 0.6 0
24.9 0.6 0
25.2 0.6 0
25.5 0.6 0
25.8 0.6 0
26.1 0.6 0
26.4 0.6 0
26.7 0.6 0
27 0.6 0
27.3 0.6 0
27.6 0.6 0
27.9 0.6 0
28.2 0.6 0
28.5 0.6 0
28.8 0.6 0
29.1 0.6 0
29.4 0.6 0
29.7 0.6 0
30 0.6 0
30.3 0.6 0
0 0.7 0
0.3 0.7 0
0.6 0.7 0
0.9 0.7 0
1.2 0.7 0
1.5 0.7 0
1.8 0.7 0
2.1 0.7 0
2.4 0.7 0
2.7 0.7 0
3 0.7 0
3.3 0.7 0
3.6 0.7 0
3.9 0.7 0
4.2 0.7 0
4.5 0.7 0
4.8 0.7 0
5.1 0.7 0
5.4 0.7 0
5.7 0.7 0
6 0.7 0
6.3 0.7 0
6.6 0.7 0
6.9 0.7 0
7.2 0.7 0
7.5 0.7 0
7.8 0.7 0
8.1 0.7 0
8.4 0.7 0
8.7 0.7 0
9 0.7 0
9.3 0.7 0
9.6 0.7 0
9.9 0.7 0
10.2 0.7 0
10.5 0.7 0
10.8 0.7 0
11.1 0.7 0
11.4 0.7 0
11.7 0.7 0
12 0.7 0
12.3 0.7 0
12.6 0.7 0
12.9 0.7 0
13.2 0.7 0
13.5 0.7 0
13.8 0.7 0
14.1 0.7 0
14.4 0.7 0
14.7 0.7 0
15 0.7 0
15.3 0.7 0
15.6 0.7 0
15.9 0.7 0
16.2 0.7 0
16.5 0.7 0
16.8 0.7 0
17.1 0.7 0
17.4 0.7 0
17.7 0.7 0
18 0.7 0
18.3 0.7 0
18.6 0.7 0
18.9 0.7 0
19.2 0.7 0
19.5 0.7 0
19.8 0.7 0
20.1 0.7 0
20.4 0.7 0
20.7 0.7 0
21 0.7 0
21.3 0.7 0
21.6 0.7 0
21.9 0.7 0
22.2 0.7 0
22.5 0.7 0
22.8 0.7 0
23.1 0.7 0
23.4 0.7 0
23.7 0.7 0
24 0.7 0
24.3 0.7 0
24.6 0.7 0
24.9 0.7 0
25.2 0.7 0
25.5 0.7 0
25.8 0.7 0
26.1 0.7 0
26.4 0.7 0
26.7 0.7 0
27 0.7 0
27.3 0.7 0
27.6 0.7 0
27.9 0.7 0
28.2 0.7 0
28.5 0.7 0
28.8 0.7 0
29.1 0.7 0
29.4 0.7 0
29.7 0.7 0
30 0.7 0
30.3 0.7 0
0 0.8 0
0.3 0.8 0
0.6 0.8 0
0.9 0.8 0
1.2 0.8 0
1.5 0.8 0
1.8 0.8 0
2.1 0.8 0
2.4 0.8 0
2.7 0.8 0
3 0.8 0
3.3 0.8 0
3.6 0.8 0
3.9 0.8 0
4.2 0.8 0
4.5 0.8 0
4.8 0.8 0
5.1 0.8 0
5.4 0.8 0
5.7 0.8 0
6 0.8 0
6.3 0.8 0
6.6 0.8 0
6.9 0.8 0
7.2 0.8 0
7.5 0.8 0
7.8 0.8 0
8.1 0.8 0
8.4 0.8 0
8.7 0.8 0
9 0.8 0
9.3 0.8 0
9.6 0.8 0
9.9 0.8 0
10.2 0.8 0
10.5 0.8 0
10.8 0.8 0
11.1 0.8 0
11.4 0.8 0
11.7 0.8 0
12 0.8 0
12.3 0.8 0
12.6 0.8 0
12.9 0.8 0
13.2 0.8 0
13.5 0.8 0
13.8 0.8 0
14.1 0.8 0
14.4 0.8 0
14.7 0.8 0
15 0.8 0
15.3 0.8 0
15.6 0.8 0
15.9 0.8 0
16.2 0.8 0
16.5 0.8 0
16.8 0.8 0
17.1 0.8 0
17.4 0.8 0
17.7 0.8 0
18 0.8 0
18.3 0.8 0
18.6 0.8 0
18.9 0.8 0
19.2 0.8 0
19.5 0.8 0
19.8 0.8 0
20.1 0.8 0
20.4 0.8 0
20.7 0.8 0
21 0.8 0
21.3 0.8 0
21.6 0.8 0
21.9 0.8 0
22.2 0.8 0
22.5 0.8 0
22.8 0.8 0
23.1 0.8 0
23.4 0.8 0
23.7 0.8 0
24 0.8 0
24.3 0.8 0
24.6 0.8 0
24.9 0.8 0
25.2 0.8 0
25.5 0.8 0
25.8 0.8 0
26.1 0.8 0
26.4 0.8 0
26.7 0.8 0
27 0.8 0
27.3 0.8 0
27.6 0.8 0
27.9 0.8 0
28.2 0.8 0
28.5 0.8 0
28.8 0.8 0
29.1 0.8 0
29.4 0.8 0
29.7 0.8 0
30 0.8 0
30.3 0.8 0
0 0.9 0
0.3 0.9 0
0.6 0.9 0
0.9 0.9 0
1.2 0.9 0
1.5 0.9 0
1.8 0.9 0
2.1 0.9 0
2.4 0.9 0
2.7 0.9 0
3 0.9 0
3.3 0.9 0
3.6 0.9 0
3.9 0.9 0
4.2 0.9 0
4.5 0.9 0
4.8 0.9 0
5.1 0.9 0
5.4 0.9 0
5.7 0.9 0
6 0.9 0
6.3 0.9 0
6.6 0.9 0
6.9 0.9 0
7.2 0.9 0
7.5 0.9 0
7.8 0.9 0
8.1 0.9 0
8.4 0.9 0
8.7 0.9 0
9 0.9 0
9.3 0.9 0
9.6 0.9 0
9.9 0.9 0
10.2 0.9 0
10.5 0.9 0
10.8 0.9 0
11.1 0.9 0
11.4 0.9 0
11.7 0.9 0
12 0.9 0
12.3 0.9 0
12.6 0.9 0
12.9 0.9 0
13.2 0.9 0
13.5 0.9 0
13.8 0.9 0
14.1 0.9 0
14.4 0.9 0
14.7 0.9 0
15 0.9 0
15.3 0.9 0
15.6 0.9 0
15.9 0.9 0
16.2 0.9 0
16.5 0.9 0
16.8 0.9 0
17.1 0.9 0
17.4 0.9 0
17.7 0.9 0
18 0.9 0
18.3 0.9 0
18.6 0.9 0
18.9 0.9 0
19.2 0.9 0
19.5 0.9 0
19.8 0.9 0
20.1 0.9 0
20.4 0.9 0
20.7 0.9 0
21 0.9 0
21.3 0.9 0
21.6 0.9 0
21.9 0.9 0
22.2 0.9 0
22.5 0.9 0
22.8 0.9 0
23.1 0.9 0
23.4 0.9 0
23.7 0.9 0
24 0.9 0
24.3 0.9 0
24.6 0.9 0
24.9 0.9 0
25.2 0.9 0
25.5 0.9 0
25.8 0.9 0
26.1 0.9 0
26.4 0.9 0
26.7 0.9 0
27 0.9 0
27.3 0.9 0
27.6 0.9 0
27.9 0.9 0
28.2 0.9 0
28.5 0.9 0
28.8 0.9 0
29.1 0.9 0
29.4 0.9 0
29.7 0.9 0
30 0.9 0
30.3 0.9 0
0 1 0
0.3 1 0
0.6 1 0
0.9 1 0
1.2 1 0
1.5 1 0
1.8 1 0
2.1 1 0
2.4 1 0
2.7 1 0
3 1 0
3.3 1 0
3.6 1 0
3.9 1 0
4.2 1 0
4.5 1 0
4.8 1 0
5.1 1 0
5.4 1 0
5.7 1 0
6 1 0
6.3 1 0
6.6 1 0
6.9 1 0
7.2 1 0
7.5 1 0
7.8 1 0
8.1 1 0
8.4 1 0
8.7 1 0
9 1 0
9.3 1 0
9.6 1 0
9.9 1 0
10.2 1 0
10.5 1 0
10.8 1 0
11.1 1 0
11.4 1 0
11.7 1 0
12 1 0
12.3 1 0
12.6 1 0
12.9 1 0
13.2 1 0
13.5 1 0
13.8 1 0
14.1 1 0
14.4 1 0
14.7 1 0
15 1 0
15.3 1 0
15.6 1 0
15.9 1 0
16.2 1 0
16.5 1 0
16.8 1 0
17.1 1 0
17.4 1 0
17.7 1 0
18 1 0
18.3 1 0
18.6 1 0
18.9 1 0
19.2 1 0
19.5 1 0
19.8 1 0
20.1 1 0
20.4 1 0
20.7 1 0
21 1 0
21.3 1 0
21.6 1 0
21.9 1 0
22.2 1 0
22.5 1 0
22.8 1 0
23.1 1 0
23.4 1 0
23.7 1 0
24 1 0
24.3 1 0
24.6 1 0
24.9 1 0
25.2 1 0
25.5 1 0
25.8 1 0
26.1 1 0
26.4 1 0
26.7 1 0
27 1 0
27.3 1 0
27.6 1 0
27.9 1 0
28.2 1 0
28.5 1 0
28.8 1 0
29.1 1 0
29.4 1 0
29.7 1 0
30 1 0
30.3 1 0
0 1.1 0
0.3 1.1 0
0.6 1.1 0
0.9 1.1 0
1.2 1.1 0
1.5 1.1 0
1.8 1.1 0
2.1 1.1 0
2.4 1.1 0
2.7 1.1 0
3 1.1 0
3.3 1.1 0
3.6 1.1 0
3.9 1.1 0
4.2 1.1 0
4.5 1.1 0
4.8 1.1 0
5.1 1.1 0
5.4 1.1 0
5.7 1.1 0
6 1.1 0
6.3 1.1 0
6.6 1.1 0
6.9 1.1 0
7.2 1.1 0
7.5 1.1 0
7.8 1.1 0
8.1 1.1 0
8.4 1.1 0
8.7 1.1 0
9 1.1 0
9.3 1.1 0
9.6 1.1 0
9.9 1.1 0
10.2 1.1 0
10.5 1.1 0
10.8 1.1 0
11.1 1.1 0
11.4 1.1 0
11.7 1.1 0
12 1.1 0
12.3 1.1 0
12.6 1.1 0
12.9 1.1 0
13.2 1.1 0
13.5 1.1 0
13.8 1.1 0
14.1 1.1 0
14.4 1.1 0
14.7 1.1 0
15 1.1 0
15.3 1.1 0
15.6 1.1 0
15.9 1.1 0
16.2 1.1 0
16.5 1.1 0
16.8 1.1 0
17.1 1.1 0
17.4 1.1 0
17.7 1.1 0
18 1.1 0
18.3 1.1 0
18.6 1.1 0
18.9 1.1 0
19.2 1.1 0
19.5 1.1 0
19.8 1.1 0
20.1 1.1 0
20.4 1.1 0
20.7 1.1 0
21 1.1 0
21.3 1.1 0
21.6 1.1 0
21.9 1.1 0
22.2 1.1 0
22.5 1.1 0
22.8 1.1 0
23.1 1.1 0
23.4 1.1 0
23.7 1.1 0
24 1.1 0
24.3 1.1 0
24.6 1.1 0
24.9 1.1 0
25.2 1.1 0
25.5 1.1 0
25.8 1.1 0
26.1 1.1 0
26.4 1.1 0
26.7 1.1 0
27 1.1 0
27.3 1.1 0
27.6 1.1 0
27.9 1.1 0
28.2 1.1 0
28.5 1.1 0
28.8 1.1 0
29.1 1.1 0
29.4 1.1 0
29.7 1.1 0
30 1.1 0
30.3 1.1 0

POINT_DATA 1224

SCALARS pressure double
LOOKUP_TABLE pressure
1.31577
1.31577
1.24926
1.20218
1.15923
1.11957
1.08355
1.05117
1.02207
0.995729
0.971618
0.949265
0.928292
0.908411
0.889405
0.871115
0.853424
0.836243
0.819504
0.803153
0.78715
0.771458
0.756048
0.740896
0.725979
0.711277
0.696775
0.682457
0.668309
0.654318
0.640473
0.626764
0.613181
0.599716
0.58636
0.573106
0.559948
0.546878
0.533891
0.520981
0.508144
0.495375
0.482669
0.470023
0.457432
0.444893
0.432402
0.419957
0.407555
0.395192
0.382868
0.370578
0.358321
0.346095
0.333897
0.321727
0.309582
0.297461
0.285362
0.273284
0.261225
0.249185
0.237162
0.225156
0.213164
0.201187
0.189222
0.177271
0.165331
0.153402
0.141483
0.129574
0.117674
0.105782
0.0938981
0.0820218
0.0701525
0.0582896
0.046433
0.034582
0.0227365
0.010896
-0.000939744
-0.0127711
-0.0245982
-0.0364215
-0.048241
-0.0600572
-0.0718701
-0.0836801
-0.0954872
-0.107292
-0.119094
-0.130893
-0.142691
-0.154486
-0.16628
-0.178071
-0.189861
-0.20165
-0.213437
0.213437
1.31577
1.31577
1.24926
1.20218
1.15923
1.11957
1.08355
1.05117
1.02207
0.995729
0.971618
0.949265
0.928292
0.908411
0.889405
0.871115
0.853424
0.836243
0.819504
0.803153
0.78715
0.771458
0.756048
0.740896
0.725979
0.711277
0.696775
0.682457
0.668309
0.654318
0.640473
0.626764
0.613181
0.599716
0.58636
0.573106
0.559948
0.546878
0.533891
0.520981
0.508144
0.495375
0.482669
0.470023
0.457432
0.444893
0.432402
0.419957
0.407555
0.395192
0.382868
0.370578
0.358321
0.346095
0.333897
0.321727
0.309582
0.297461
0.285362
0.273284
0.261225
0.249185
0.237162
0.225156
0.213164
0.201187
0.189222
0.177271
0.165331
0.153402
0.141483
0.129574
0.117674
0.105782
0.0938981
0.0820218
0.0701525
0.0582896
0.046433
0.034582
0.0227365
0.010896
-0.000939744
-0.0127711
-0.0245982
-0.0364215
-0.048241
-0.0600572
-0.0718701
-0.0836801
-0.0954872
-0.107292
-0.119094
-0.130893
-0.142691
-0.154486
-0.16628
-0.178071
-0.189861
-0.20165
-0.213437
0.213437
1.29512
1.29512
1.24746
1.20249
1.15995
1.12034
1.08425
1.05176
1.02254
0.996099
0.971903
0.949486
0.928465
0.908548
0.889516
0.871207
0.853502
0.836309
0.819561
0.803204
0.787195
0.771498
0.756085
0.740929
0.726008
0.711305
0.6968
0.68248
0.66833
0.654337
0.640491
0.626781
0.613197
0.59973
0.586373
0.573118
0.559959
0.546888
0.533901
0.52099
0.508153
0.495383
0.482677
0.47003
0.457438
0.444899
0.432408
0.419962
0.40756
0.395197
0.382872
0.370582
0.358324
0.346098
0.3339
0.32173
0.309585
0.297463
0.285364
0.273286
0.261228
0.249187
0.237164
0.225158
0.213166
0.201188
0.189224
0.177272
0.165332
0.153403
0.141484
0.129575
0.117675
0.105783
0.093899
0.0820226
0.0701532
0.0582904
0.0464336
0.0345827
0.0227371
0.0108966
-0.000939228
-0.0127706
-0.0245978
-0.036421
-0.0482406
-0.0600568
-0.0718698
-0.0836797
-0.0954869
-0.107291
-0.119093
-0.130893
-0.14269
-0.154486
-0.166279
-0.178071
-0.189861
-0.20165
-0.213436
0.213436
1.28074
1.28074
1.24496
1.20289
1.16108
1.12161
1.08543
1.05275
1.02333
0.996705
0.972359
0.949827
0.928721
0.908742
0.889666
0.871326
0.853597
0.836388
0.819627
0.80326
0.787244
0.771541
0.756122
0.740962
0.726038
0.711331
0.696824
0.682501
0.668349
0.654355
0.640507
0.626795
0.61321
0.599743
0.586385
0.573129
0.559969
0.546897
0.533909
0.520998
0.50816
0.49539
0.482683
0.470035
0.457443
0.444903
0.432412
0.419967
0.407564
0.395201
0.382875
0.370585
0.358327
0.346101
0.333903
0.321732
0.309587
0.297466
0.285366
0.273288
0.261229
0.249189
0.237166
0.225159
0.213167
0.201189
0.189225
0.177273
0.165333
0.153404
0.141485
0.129576
0.117675
0.105784
0.0938997
0.0820233
0.0701538
0.0582909
0.0464342
0.0345832
0.0227376
0.010897
-0.000938814
-0.0127702
-0.0245974
-0.0364207
-0.0482403
-0.0600565
-0.0718695
-0.0836795
-0.0954866
-0.107291
-0.119093
-0.130893
-0.14269
-0.154486
-0.166279
-0.178071
-0.189861
-0.201649
-0.213433
0.213433
1.27205
1.27205
1.24295
1.20314
1.162
1.12269
1.08646
1.05364
1.02406
0.997284
0.972808
0.950172
0.928987
0.90895
0.889831
0.871459
0.853707
0.836479
0.819705
0.803327
0.787302
0.771591
0.756167
0.741002
0.726074
0.711363
0.696853
0.682527
0.668373
0.654376
0.640527
0.626813
0.613226
0.599757
0.586398
0.573141
0.55998
0.546908
0.533919
0.521007
0.508168
0.495397
0.48269
0.470042
0.45745
0.444909
0.432418
0.419972
0.407568
0.395205
0.382879
0.370589
0.358331
0.346104
0.333906
0.321735
0.30959
0.297468
0.285369
0.27329
0.261231
0.249191
0.237168
0.225161
0.213169
0.201191
0.189226
0.177275
0.165334
0.153405
0.141486
0.129577
0.117676
0.105784
0.0939005
0.082024
0.0701545
0.0582916
0.0464348
0.0345838
0.0227381
0.0108975
-0.000938336
-0.0127697
-0.024597
-0.0364203
-0.04824
-0.0600562
-0.0718692
-0.0836792
-0.0954863
-0.107291
-0.119093
-0.130893
-0.14269
-0.154485
-0.166279
-0.178071
-0.18986
-0.201648
-0.213427
0.213427
1.26797
1.26797
1.24186
1.20326
1.1625
1.12328
1.08703
1.05415
1.02448
0.997618
0.973072
0.950379
0.92915
0.90908
0.889937
0.871546
0.85378
0.836542
0.819759
0.803374
0.787343
0.771628
0.756199
0.741031
0.7261
0.711387
0.696874
0.682547
0.668391
0.654393
0.640542
0.626827
0.613239
0.599769
0.586409
0.573151
0.559989
0.546916
0.533926
0.521014
0.508175
0.495404
0.482696
0.470047
0.457454
0.444914
0.432422
0.419975
0.407572
0.395208
0.382882
0.370592
0.358334
0.346107
0.333908
0.321737
0.309592
0.29747
0.285371
0.273292
0.261233
0.249192
0.237169
0.225162
0.21317
0.201192
0.189228
0.177276
0.165335
0.153406
0.141487
0.129577
0.117677
0.105785
0.0939011
0.0820246
0.0701551
0.0582921
0.0464353
0.0345842
0.0227385
0.0108979
-0.000937957
-0.0127694
-0.0245966
-0.03642
-0.0482397
-0.0600559
-0.0718689
-0.0836789
-0.0954861
-0.107291
-0.119093
-0.130892
-0.14269
-0.154485
-0.166279
-0.178071
-0.18986
-0.201647
-0.213423
0.213423
1.26797
1.26797
1.24186
1.20326
1.1625
1.12328
1.08703
1.05415
1.02448
0.997618
0.973072
0.950379
0.92915
0.90908
0.889937
0.871546
0.85378
0.836542
0.819759
0.803374
0.787343
0.771628
0.756199
0.741031
0.7261
0.711387
0.696874
0.682547
0.668391
0.654393
0.640542
0.626827
0.613239
0.599769
0.586409
0.573151
0.559989
0.546916
0.533926
0.521014
0.508175
0.495404
0.482696
0.470047
0.457454
0.444914
0.432422
0.419975
0.407572
0.395208
0.382882
0.370592
0.358334
0.346107
0.333908
0.321737
0.309592
0.29747
0.285371
0.273292
0.261233
0.249192
0.237169
0.225162
0.21317
0.201192
0.189228
0.177276
0.165335
0.153406
0.141487
0.129577
0.117677
0.105785
0.0939011
0.0820246
0.0701551
0.0582921
0.0464353
0.0345842
0.0227385
0.0108979
-0.000937957
-0.0127694
-0.0245966
-0.03642
-0.0482397
-0.0600559
-0.0718689
-0.0836789
-0.0954861
-0.107291
-0.119093
-0.130892
-0.14269
-0.154485
-0.166279
-0.178071
-0.18986
-0.201647
-0.213423
0.213423
1.27205
1.27205
1.24295
1.20314
1.162
1.12269
1.08646
1.05364
1.02406
0.997284
0.972808
0.950172
0.928987
0.90895
0.889831
0.871459
0.853707
0.836479
0.819705
0.803327
0.787302
0.771591
0.756167
0.741002
0.726073
0.711363
0.696853
0.682527
0.668373
0.654376
0.640527
0.626813
0.613226
0.599757
0.586398
0.573141
0.55998
0.546908
0.533919
0.521007
0.508168
0.495397
0.48269
0.470042
0.45745
0.444909
0.432418
0.419972
0.407568
0.395205
0.382879
0.370589
0.358331
0.346104
0.333906
0.321735
0.30959
0.297468
0.285369
0.27329
0.261231
0.249191
0.237168
0.225161
0.213169
0.201191
0.189226
0.177275
0.165334
0.153405
0.141486
0.129577
0.117676
0.105784
0.0939005
0.082024
0.0701545
0.0582916
0.0464348
0.0345838
0.0227381
0.0108975
-0.000938336
-0.0127697
-0.024597
-0.0364203
-0.04824
-0.0600562
-0.0718692
-0.0836792
-0.0954863
-0.107291
-0.119093
-0.130893
-0.14269
-0.154485
-0.166279
-0.178071
-0.18986
-0.201648
-0.213427
0.213427
1.28074
1.28074
1.24496
1.20289
1.16108
1.12161
1.08543
1.05275
1.02333
0.996705
0.97236
0.949827
0.928721
0.908742
0.889666
0.871326
0.853597
0.836388
0.819627
0.80326
0.787244
0.771541
0.756122
0.740962
0.726038
0.711331
0.696824
0.682501
0.668349
0.654355
0.640507
0.626795
0.61321
0.599743
0.586385
0.573129
0.559969
0.546897
0.533909
0.520998
0.50816
0.49539
0.482683
0.470035
0.457443
0.444903
0.432412
0.419967
0.407564
0.395201
0.382875
0.370585
0.358327
0.346101
0.333903
0.321732
0.309587
0.297466
0.285366
0.273288
0.261229
0.249189
0.237166
0.225159
0.213167
0.201189
0.189225
0.177273
0.165333
0.153404
0.141485
0.129576
0.117675
0.105784
0.0938997
0.0820233
0.0701538
0.0582909
0.0464342
0.0345832
0.0227376
0.010897
-0.000938814
-0.0127702
-0.0245974
-0.0364207
-0.0482403
-0.0600565
-0.0718695
-0.0836795
-0.0954866
-0.107291
-0.119093
-0.130893
-0.14269
-0.154486
-0.166279
-0.178071
-0.189861
-0.201649
-0.213433
0.213433
1.29512
1.29512
1.24746
1.20249
1.15995
1.12034
1.08425
1.05176
1.02254
0.996098
0.971904
0.949486
0.928465
0.908548
0.889516
0.871207
0.853502
0.836309
0.819561
0.803204
0.787195
0.771498
0.756085
0.740929
0.726008
0.711305
0.6968
0.68248
0.66833
0.654337
0.640491
0.626781
0.613197
0.59973
0.586373
0.573118
0.559959
0.546888
0.533901
0.52099
0.508153
0.495383
0.482677
0.47003
0.457438
0.444899
0.432408
0.419962
0.40756
0.395197
0.382872
0.370582
0.358324
0.346098
0.3339
0.32173
0.309585
0.297463
0.285364
0.273286
0.261228
0.249187
0.237164
0.225158
0.213166
0.201188
0.189224
0.177272
0.165332
0.153403
0.141484
0.129575
0.117675
0.105783
0.093899
0.0820226
0.0701532
0.0582904
0.0464336
0.0345827
0.0227371
0.0108966
-0.000939228
-0.0127706
-0.0245978
-0.036421
-0.0482406
-0.0600568
-0.0718698
-0.0836797
-0.0954869
-0.107291
-0.119093
-0.130893
-0.14269
-0.154486
-0.166279
-0.178071
-0.189861
-0.20165
-0.213436
0.213436
1.31577
1.31577
1.24926
1.20218
1.15923
1.11957
1.08355
1.05117
1.02207
0.995728
0.971618
0.949265
0.928292
0.908411
0.889405
0.871115
0.853424
0.836243
0.819504
0.803153
0.78715
0.771458
0.756048
0.740896
0.725979
0.711277
0.696775
0.682457
0.668309
0.654318
0.640473
0.626764
0.613181
0.599716
0.58636
0.573106
0.559948
0.546878
0.533891
0.520981
0.508144
0.495375
0.482669
0.470023
0.457432
0.444893
0.432402
0.419957
0.407555
0.395192
0.382868
0.370578
0.358321
0.346095
0.333897
0.321727
0.309582
0.297461
0.285362
0.273284
0.261225
0.249185
0.237162
0.225156
0.213164
0.201187
0.189222
0.177271
0.165331
0.153402
0.141483
0.129574
0.117674
0.105782
0.0938981
0.0820218
0.0701525
0.0582896
0.046433
0.034582
0.0227365
0.010896
-0.000939744
-0.0127711
-0.0245982
-0.0364215
-0.048241
-0.0600572
-0.0718701
-0.0836801
-0.0954872
-0.107292
-0.119094
-0.130893
-0.142691
-0.154486
-0.16628
-0.178071
-0.189861
-0.20165
-0.213437
0.213437
1.31577
1.31577
1.24926
1.20218
1.15923
1.11957
1.08355
1.05117
1.02207
0.995728
0.971618
0.949265
0.928292
0.908411
0.889405
0.871115
0.853424
0.836243
0.819504
0.803153
0.78715
0.771458
0.756048
0.740896
0.725979
0.711277
0.696775
0.682457
0.668309
0.654318
0.640473
0.626764
0.613181
0.599716
0.58636
0.573106
0.559948
0.546878
0.533891
0.520981
0.508144
0.495375
0.482669
0.470023
0.457432
0.444893
0.432402
0.419957
0.407555
0.395192
0.382868
0.370578
0.358321
0.346095
0.333897
0.321727
0.309582
0.297461
0.285362
0.273284
0.261225
0.249185
0.237162
0.225156
0.213164
0.201187
0.189222
0.177271
0.165331
0.153402
0.141483
0.129574
0.117674
0.105782
0.0938981
0.0820218
0.0701525
0.0582896
0.046433
0.034582
0.0227365
0.010896
-0.000939744
-0.0127711
-0.0245982
-0.0364215
-0.048241
-0.0600572
-0.0718701
-0.0836801
-0.0954872
-0.107292
-0.119094
-0.130893
-0.142691
-0.154486
-0.16628
-0.178071
-0.189861
-0.20165
-0.213437
0.213437
SCALARS phi double
LOOKUP_TABLE phi
1
1
1
0.999995
0.999977
0.999931
0.999833
0.999655
0.999364
0.998929
0.998323
0.997523
0.996512
0.995279
0.993815
0.992118
0.990189
0.988032
0.985652
0.983059
0.980261
0.97727
0.974097
0.970755
0.967257
0.963614
0.95984
0.955947
0.951946
0.94785
0.943668
0.939411
0.93509
0.930713
0.92629
0.921827
0.917334
0.912816
0.90828
0.903732
0.899178
0.894621
0.890064
0.88551
0.88096
0.876411
0.871862
0.867308
0.862742
0.858155
0.853539
0.84888
0.844166
0.839383
0.834515
0.829546
0.824462
0.819246
0.813883
0.808358
0.802659
0.796774
0.79069
0.7844
0.777895
0.77117
0.764221
0.757044
0.74964
0.74201
0.734155
0.72608
0.717791
0.709293
0.700594
0.691704
0.682632
0.673387
0.663981
0.654426
0.644733
0.634914
0.624981
0.614946
0.604823
0.594622
0.584357
0.574038
0.563678
0.553287
0.542876
0.532456
0.522037
0.511629
0.501239
0.490884
0.48054
0.470326
0.459874
0.450481
0.437619
0.437619
1
1
1
0.999995
0.999977
0.999931
0.999833
0.999655
0.999364
0.998929
0.998323
0.997523
0.996512
0.995279
0.993815
0.992118
0.990189
0.988032
0.985652
0.983059
0.980261
0.97727
0.974097
0.970755
0.967257
0.963614
0.95984
0.955947
0.951946
0.94785
0.943668
0.939411
0.93509
0.930713
0.92629
0.921827
0.917334
0.912816
0.90828
0.903732
0.899178
0.894621
0.890064
0.88551
0.88096
0.876411
0.871862
0.867308
0.862742
0.858155
0.853539
0.84888
0.844166
0.839383
0.834515
0.829546
0.824462
0.819246
0.813883
0.808358
0.802659
0.796774
0.79069
0.7844
0.777895
0.77117
0.764221
0.757044
0.74964
0.74201
0.734155
0.72608
0.717791
0.709293
0.700594
0.691704
0.682632
0.673387
0.663981
0.654426
0.644733
0.634914
0.624981
0.614946
0.604823
0.594622
0.584357
0.574038
0.563678
0.553287
0.542876
0.532456
0.522037
0.511629
0.501239
0.490884
0.48054
0.470326
0.459874
0.450481
0.437619
0.437619
0.999998
1
0.999984
0.999921
0.999783
0.999536
0.999146
0.99858
0.997812
0.996819
0.99559
0.994116
0.992397
0.990437
0.98824
0.985817
0.983177
0.980333
0.977297
0.974081
0.9707
0.967166
0.963491
0.95969
0.955773
0.951752
0.947639
0.943445
0.939178
0.93485
0.930469
0.926042
0.921579
0.917086
0.912571
0.908038
0.903495
0.898947
0.894398
0.889853
0.885317
0.880791
0.876281
0.871788
0.867314
0.862861
0.858427
0.854012
0.849614
0.845229
0.840853
0.83648
0.832102
0.827711
0.823297
0.81885
0.814358
0.809809
0.805191
0.800492
0.795698
0.790798
0.78578
0.780632
0.775344
0.769906
0.76431
0.758549
0.752616
0.746507
0.740217
0.733744
0.727087
0.720246
0.713222
0.706017
0.698635
0.691079
0.683355
0.675468
0.667426
0.659235
0.650904
0.642439
0.633851
0.625147
0.616336
0.607429
0.598433
0.589359
0.580215
0.571011
0.561756
0.552459
0.543125
0.533776
0.524378
0.515073
0.505428
0.49691
0.484697
0.484697
1.00001
0.999992
0.99954
0.998615
0.997207
0.995317
0.992955
0.990145
0.986922
0.983332
0.979422
0.975241
0.970836
0.966248
0.961513
0.956664
0.951728
0.946728
0.941682
0.936608
0.931519
0.926427
0.92134
0.916268
0.911216
0.906189
0.901193
0.896232
0.891307
0.886422
0.881579
0.87678
0.872025
0.867316
0.862654
0.85804
0.853473
0.848955
0.844486
0.840065
0.835694
0.831371
0.827098
0.822873
0.818697
0.814568
0.810487
0.806451
0.802461
0.798513
0.794606
0.790737
0.786902
0.783098
0.779319
0.775561
0.771816
0.768079
0.764342
0.760598
0.756838
0.753053
0.749236
0.745376
0.741465
0.737493
0.733453
0.729335
0.725132
0.720835
0.716438
0.711934
0.707316
0.70258
0.697721
0.692736
0.68762
0.682372
0.67699
0.671474
0.665823
0.660037
0.654118
0.648068
0.641889
0.635584
0.629156
0.622609
0.615948
0.609176
0.602298
0.59532
0.588247
0.581085
0.573836
0.566519
0.559097
0.551708
0.543941
0.537127
0.527064
0.527064
1.00143
0.99857
0.991252
0.98188
0.971566
0.96086
0.950051
0.939311
0.928756
0.918468
0.908503
0.898898
0.889671
0.880827
0.87236
0.864261
0.856513
0.849098
0.841997
0.835192
0.828664
0.822396
0.816369
0.810568
0.80498
0.799588
0.794382
0.789348
0.784477
0.779758
0.775181
0.770738
0.766422
0.762224
0.758139
0.754159
0.75028
0.746495
0.7428
0.739191
0.735663
0.732212
0.728834
0.725528
0.722288
0.719113
0.715999
0.712944
0.709945
0.707001
0.704108
0.701263
0.698466
0.695712
0.692998
0.690323
0.687682
0.685073
0.682491
0.679932
0.677392
0.674866
0.672349
0.669837
0.667324
0.664803
0.66227
0.659718
0.657141
0.654533
0.651889
0.649201
0.646465
0.643674
0.640823
0.637907
0.63492
0.631857
0.628715
0.625489
0.622175
0.61877
0.615271
0.611676
0.607982
0.604188
0.600291
0.596292
0.59219
0.587984
0.583675
0.579263
0.574748
0.570132
0.565415
0.560606
0.555677
0.550729
0.54545
0.540822
0.533811
0.533811
1.0456
0.954401
0.887723
0.838674
0.801641
0.772861
0.749886
0.731119
0.715499
0.702298
0.691001
0.681228
0.672693
0.665173
0.658493
0.652515
0.647126
0.642236
0.637772
0.633673
0.629891
0.626382
0.623115
0.620059
0.61719
0.614489
0.611936
0.609518
0.607221
0.605034
0.602947
0.60095
0.599038
0.597202
0.595437
0.593737
0.592097
0.590514
0.588983
0.587501
0.586064
0.58467
0.583315
0.581999
0.580718
0.57947
0.578253
0.577067
0.575908
0.574776
0.57367
0.572587
0.571527
0.570489
0.56947
0.56847
0.567488
0.566521
0.565569
0.56463
0.563703
0.562784
0.561873
0.560967
0.560064
0.559161
0.558256
0.557345
0.556427
0.555496
0.554551
0.553588
0.552603
0.551592
0.550553
0.54948
0.54837
0.547219
0.546024
0.544781
0.543485
0.542133
0.540721
0.539247
0.537706
0.536094
0.53441
0.53265
0.530811
0.52889
0.526885
0.524794
0.522614
0.520344
0.517981
0.515528
0.512965
0.510353
0.507498
0.504986
0.501037
0.501037
-0.0455988
0.0455988
0.112277
0.161327
0.198359
0.227139
0.250114
0.268881
0.284501
0.297702
0.308999
0.318772
0.327307
0.334827
0.341507
0.347485
0.352874
0.357764
0.362228
0.366327
0.370109
0.373618
0.376885
0.379941
0.38281
0.385511
0.388064
0.390482
0.392779
0.394966
0.397053
0.39905
0.400962
0.402798
0.404563
0.406263
0.407903
0.409486
0.411017
0.412499
0.413936
0.41533
0.416685
0.418001
0.419282
0.42053
0.421747
0.422933
0.424092
0.425223
0.426329
0.42741
0.428469
0.429505
0.43052
0.431514
0.432488
0.433443
0.43438
0.435298
0.436198
0.43708
0.437945
0.438791
0.43962
0.44043
0.441221
0.441993
0.442745
0.443475
0.444183
0.444867
0.445526
0.446158
0.446762
0.447335
0.447876
0.448382
0.448851
0.44928
0.449667
0.450009
0.450303
0.450546
0.450735
0.450866
0.450938
0.450946
0.450888