# vtk DataFile Version 3.0
FlowField
ASCII
DATASET STRUCTURED_GRID
DIMENSIONS 102 12 1 
POINTS 1224 double
0 0 0
0.3 0 0
0.6 0 0
0.9 0 0
1.2 0 0
1.5 0 0
1.8 0 0
2.1 0 0
2.4 0 0
2.7 0 0
3 0 0
3.3 0 0
3.6 0 0
3.9 0 0
4.2 0 0
4.5 0 0
4.8 0 0
5.1 0 0
5.4 0 0
5.7 0 0
6 0 0
6.3 0 0
6.6 0 0
6.9 0 0
7.2 0 0
7.5 0 0
7.8 0 0
8.1 0 0
8.4 0 0
8.7 0 0
9 0 0
9.3 0 0
9.6 0 0
9.9 0 0
10.2 0 0
10.5 0 0
10.8 0 0
11.1 0 0
11.4 0 0
11.7 0 0
12 0 0
12.3 0 0
12.6 0 0
12.9 0 0
13.2 0 0
13.5 0 0
13.8 0 0
14.1 0 0
14.4 0 0
14.7 0 0
15 0 0
15.3 0 0
15.6 0 0
15.9 0 0
16.2 0 0
16.5 0 0
16.8 0 0
17.1 0 0
17.4 0 0
17.7 0 0
18 0 0
18.3 0 0
18.6 0 0
18.9 0 0
19.2 0 0
19.5 0 0
19.8 0 0
20.1 0 0
20.4 0 0
20.7 0 0
21 0 0
21.3 0 0
21.6 0 0
21.9 0 0
22.2 0 0
22.5 0 0
22.8 0 0
23.1 0 0
23.4 0 0
23.7 0 0
24 0 0
24.3 0 0
24.6 0 0
24.9 0 0
25.2 0 0
25.5 0 0
25.8 0 0
26.1 0 0
26.4 0 0
26.7 0 0
27 0 0
27.3 0 0
27.6 0 0
27.9 0 0
28.2 0 0
28.5 0 0
28.8 0 0
29.1 0 0
29.4 0 0
29.7 0 0
30 0 0
30.3 0 0
0 0.1 0
0.3 0.1 0
0.6 0.1 0
0.9 0.1 0
1.2 0.1 0
1.5 0.1 0
1.8 0.1 0
2.1 0.1 0
2.4 0.1 0
2.7 0.1 0
3 0.1 0
3.3 0.1 0
3.6 0.1 0
3.9 0.1 0
4.2 0.1 0
4.5 0.1 0
4.8 0.1 0
5.1 0.1 0
5.4 0.1 0
5.7 0.1 0
6 0.1 0
6.3 0.1 0
6.6 0.1 0
6.9 0.1 0
7.2 0.1 0
7.5 0.1 0
7.8 0.1 0
8.1 0.1 0
8.4 0.1 0
8.7 0.1 0
9 0.1 0
9.3 0.1 0
9.6 0.1 0
9.9 0.1 0
10.2 0.1 0
10.5 0.1 0
10.8 0.1 0
11.1 0.1 0
11.4 0.1 0
11.7 0.1 0
12 0.1 0
12.3 0.1 0
12.6 0.1 0
12.9 0.1 0
13.2 0.1 0
13.5 0.1 0
13.8 0.1 0
14.1 0.1 0
14.4 0.1 0
14.7 0.1 0
15 0.1 0
15.3 0.1 0
15.6 0.1 0
15.9 0.1 0
16.2 0.1 0
16.5 0.1 0
16.8 0.1 0
17.1 0.1 0
17.4 0.1 0
17.7 0.1 0
18 0.1 0
18.3 0.1 0
18.6 0.1 0
18.9 0.1 0
19.2 0.1 0
19.5 0.1 0
19.8 0.1 0
20.1 0.1 0
20.4 0.1 0
20.7 0.1 0
21 0.1 0
21.3 0.1 0
21.6 0.1 0
21.9 0.1 0
22.2 0.1 0
22.5 0.1 0
22.8 0.1 0
23.1 0.1 0
23.4 0.1 0
23.7 0.1 0
24 0.1 0
24.3 0.1 0
24.6 0.1 0
24.9 0.1 0
25.2 0.1 0
25.5 0.1 0
25.8 0.1 0
26.1 0.1 0
26.4 0.1 0
26.7 0.1 0
27 0.1 0
27.3 0.1 0
27.6 0.1 0
27.9 0.1 0
28.2 0.1 0
28.5 0.1 0
28.8 0.1 0
29.1 0.1 0
29.4 0.1 0
29.7 0.1 0
30 0.1 0
30.3 0.1 0
0 0.2 0
0.3 0.2 0
0.6 0.2 0
0.9 0.2 0
1.2 0.2 0
1.5 0.2 0
1.8 0.2 0
2.1 0.2 0
2.4 0.2 0
2.7 0.2 0
3 0.2 0
3.3 0.2 0
3.6 0.2 0
3.9 0.2 0
4.2 0.2 0
4.5 0.2 0
4.8 0.2 0
5.1 0.2 0
5.4 0.2 0
5.7 0.2 0
6 0.2 0
6.3 0.2 0
6.6 0.2 0
6.9 0.2 0
7.2 0.2 0
7.5 0.2 0
7.8 0.2 0
8.1 0.2 0
8.4 0.2 0
8.7 0.2 0
9 0.2 0
9.3 0.2 0
9.6 0.2 0
9.9 0.2 0
10.2 0.2 0
10.5 0.2 0
10.8 0.2 0
11.1 0.2 0
11.4 0.2 0
11.7 0.2 0
12 0.2 0
12.3 0.2 0
12.6 0.2 0
12.9 0.2 0
13.2 0.2 0
13.5 0.2 0
13.8 0.2 0
14.1 0.2 0
14.4 0.2 0
14.7 0.2 0
15 0.2 0
15.3 0.2 0
15.6 0.2 0
15.9 0.2 0
16.2 0.2 0
16.5 0.2 0
16.8 0.2 0
17.1 0.2 0
17.4 0.2 0
17.7 0.2 0
18 0.2 0
18.3 0.2 0
18.6 0.2 0
18.9 0.2 0
19.2 0.2 0
19.5 0.2 0
19.8 0.2 0
20.1 0.2 0
20.4 0.2 0
20.7 0.2 0
21 0.2 0
21.3 0.2 0
21.6 0.2 0
21.9 0.2 0
22.2 0.2 0
22.5 0.2 0
22.8 0.2 0
23.1 0.2 0
23.4 0.2 0
23.7 0.2 0
24 0.2 0
24.3 0.2 0
24.6 0.2 0
24.9 0.2 0
25.2 0.2 0
25.5 0.2 0
25.8 0.2 0
26.1 0.2 0
26.4 0.2 0
26.7 0.2 0
27 0.2 0
27.3 0.2 0
27.6 0.2 0
27.9 0.2 0
28.2 0.2 0
28.5 0.2 0
28.8 0.2 0
29.1 0.2 0
29.4 0.2 0
29.7 0.2 0
30 0.2 0
30.3 0.2 0
0 0.3 0
0.3 0.3 0
0.6 0.3 0
0.9 0.3 0
1.2 0.3 0
1.5 0.3 0
1.8 0.3 0
2.1 0.3 0
2.4 0.3 0
2.7 0.3 0
3 0.3 0
3.3 0.3 0
3.6 0.3 0
3.9 0.3 0
4.2 0.3 0
4.5 0.3 0
4.8 0.3 0
5.1 0.3 0
5.4 0.3 0
5.7 0.3 0
6 0.3 0
6.3 0.3 0
6.6 0.3 0
6.9 0.3 0
7.2 0.3 0
7.5 0.3 0
7.8 0.3 0
8.1 0.3 0
8.4 0.3 0
8.7 0.3 0
9 0.3 0
9.3 0.3 0
9.6 0.3 0
9.9 0.3 0
10.2 0.3 0
10.5 0.3 0
10.8 0.3 0
11.1 0.3 0
11.4 0.3 0
11.7 0.3 0
12 0.3 0
12.3 0.3 0
12.6 0.3 0
12.9 0.3 0
13.2 0.3 0
13.5 0.3 0
13.8 0.3 0
14.1 0.3 0
14.4 0.3 0
14.7 0.3 0
15 0.3 0
15.3 0.3 0
15.6 0.3 0
15.9 0.3 0
16.2 0.3 0
16.5 0.3 0
16.8 0.3 0
17.1 0.3 0
17.4 0.3 0
17.7 0.3 0
18 0.3 0
18.3 0.3 0
18.6 0.3 0
18.9 0.3 0
19.2 0.3 0
19.5 0.3 0
19.8 0.3 0
20.1 0.3 0
20.4 0.3 0
20.7 0.3 0
21 0.3 0
21.3 0.3 0
21.6 0.3 0
21.9 0.3 0
22.2 0.3 0
22.5 0.3 0
22.8 0.3 0
23.1 0.3 0
23.4 0.3 0
23.7 0.3 0
24 0.3 0
24.3 0.3 0
24.6 0.3 0
24.9 0.3 0
25.2 0.3 0
25.5 0.3 0
25.8 0.3 0
26.1 0.3 0
26.4 0.3 0
26.7 0.3 0
27 0.3 0
27.3 0.3 0
27.6 0.3 0
27.9 0.3 0
28.2 0.3 0
28.5 0.3 0
28.8 0.3 0
29.1 0.3 0
29.4 0.3 0
29.7 0.3 0
30 0.3 0
30.3 0.3 0
0 0.4 0
0.3 0.4 0
0.6 0.4 0
0.9 0.4 0
1.2 0.4 0
1.5 0.4 0
1.8 0.4 0
2.1 0.4 0
2.4 0.4 0
2.7 0.4 0
3 0.4 0
3.3 0.4 0
3.6 0.4 0
3.9 0.4 0
4.2 0.4 0
4.5 0.4 0
4.8 0.4 0
5.1 0.4 0
5.4 0.4 0
5.7 0.4 0
6 0.4 0
6.3 0.4 0
6.6 0.4 0
6.9 0.4 0
7.2 0.4 0
7.5 0.4 0
7.8 0.4 0
8.1 0.4 0
8.4 0.4 0
8.7 0.4 0
9 0.4 0
9.3 0.4 0
9.6 0.4 0
9.9 0.4 0
10.2 0.4 0
10.5 0.4 0
10.8 0.4 0
11.1 0.4 0
11.4 0.4 0
11.7 0.4 0
12 0.4 0
12.3 0.4 0
12.6 0.4 0
12.9 0.4 0
13.2 0.4 0
13.5 0.4 0
13.8 0.4 0
14.1 0.4 0
14.4 0.4 0
14.7 0.4 0
15 0.4 0
15.3 0.4 0
15.6 0.4 0
15.9 0.4 0
16.2 0.4 0
16.5 0.4 0
16.8 0.4 0
17.1 0.4 0
17.4 0.4 0
17.7 0.4 0
18 0.4 0
18.3 0.4 0
18.6 0.4 0
18.9 0.4 0
19.2 0.4 0
19.5 0.4 0
19.8 0.4 0
20.1 0.4 0
20.4 0.4 0
20.7 0.4 0
21 0.4 0
21.3 0.4 0
21.6 0.4 0
21.9 0.4 0
22.2 0.4 0
22.5 0.4 0
22.8 0.4 0
23.1 0.4 0
23.4 0.4 0
23.7 0.4 0
24 0.4 0
24.3 0.4 0
24.6 0.4 0
24.9 0.4 0
25.2 0.4 0
25.5 0.4 0
25.8 0.4 0
26.1 0.4 0
26.4 0.4 0
26.7 0.4 0
27 0.4 0
27.3 0.4 0
27.6 0.4 0
27.9 0.4 0
28.2 0.4 0
28.5 0.4 0
28.8 0.4 0
29.1 0.4 0
29.4 0.4 0
29.7 0.4 0
30 0.4 0
30.3 0.4 0
0 0.5 0
0.3 0.5 0
0.6 0.5 0
0.9 0.5 0
1.2 0.5 0
1.5 0.5 0
1.8 0.5 0
2.1 0.5 0
2.4 0.5 0
2.7 0.5 0
3 0.5 0
3.3 0.5 0
3.6 0.5 0
3.9 0.5 0
4.2 0.5 0
4.5 0.5 0
4.8 0.5 0
5.1 0.5 0
5.4 0.5 0
5.7 0.5 0
6 0.5 0
6.3 0.5 0
6.6 0.5 0
6.9 0.5 0
7.2 0.5 0
7.5 0.5 0
7.8 0.5 0
8.1 0.5 0
8.4 0.5 0
8.7 0.5 0
9 0.5 0
9.3 0.5 0
9.6 0.5 0
9.9 0.5 0
10.2 0.5 0
10.5 0.5 0
10.8 0.5 0
11.1 0.5 0
11.4 0.5 0
11.7 0.5 0
12 0.5 0
12.3 0.5 0
12.6 0.5 0
12.9 0.5 0
13.2 0.5 0
13.5 0.5 0
13.8 0.5 0
14.1 0.5 0
14.4 0.5 0
14.7 0.5 0
15 0.5 0
15.3 0.5 0
15.6 0.5 0
15.9 0.5 0
16.2 0.5 0
16.5 0.5 0
16.8 0.5 0
17.1 0.5 0
17.4 0.5 0
17.7 0.5 0
18 0.5 0
18.3 0.5 0
18.6 0.5 0
18.9 0.5 0
19.2 0.5 0
19.5 0.5 0
19.8 0.5 0
20.1 0.5 0
20.4 0.5 0
20.7 0.5 0
21 0.5 0
21.3 0.5 0
21.6 0.5 0
21.9 0.5 0
22.2 0.5 0
22.5 0.5 0
22.8 0.5 0
23.1 0.5 0
23.4 0.5 0
23.7 0.5 0
24 0.5 0
24.3 0.5 0
24.6 0.5 0
24.9 0.5 0
25.2 0.5 0
25.5 0.5 0
25.8 0.5 0
26.1 0.5 0
26.4 0.5 0
26.7 0.5 0
27 0.5 0
27.3 0.5 0
27.6 0.5 0
27.9 0.5 0
28.2 0.5 0
28.5 0.5 0
28.8 0.5 0
29.1 0.5 0
29.4 0.5 0
29.7 0.5 0
30 0.5 0
30.3 0.5 0
0 0.6 0
0.3 0.6 0
0.6 0.6 0
0.9 0.6 0
1.2 0.6 0
1.5 0.6 0
1.8 0.6 0
2.1 0.6 0
2.4 0.6 0
2.7 0.6 0
3 0.6 0
3.3 0.6 0
3.6 0.6 0
3.9 0.6 0
4.2 0.6 0
4.5 0.6 0
4.8 0.6 0
5.1 0.6 0
5.4 0.6 0
5.7 0.6 0
6 0.6 0
6.3 0.6 0
6.6 0.6 0
6.9 0.6 0
7.2 0.6 0
7.5 0.6 0
7.8 0.6 0
8.1 0.6 0
8.4 0.6 0
8.7 0.6 0
9 0.6 0
9.3 0.6 0
9.6 0.6 0
9.9 0.6 0
10.2 0.6 0
10.5 0.6 0
10.8 0.6 0
11.1 0.6 0
11.4 0.6 0
11.7 0.6 0
12 0.6 0
12.3 0.6 0
12.6 0.6 0
12.9 0.6 0
13.2 0.6 0
13.5 0.6 0
13.8 0.6 0
14.1 0.6 0
14.4 0.6 0
14.7 0.6 0
15 0.6 0
15.3 0.6 0
15.6 0.6 0
15.9 0.6 0
16.2 0.6 0
16.5 0.6 0
16.8 0.6 0
17.1 0.6 0
17.4 0.6 0
17.7 0.6 0
18 0.6 0
18.3 0.6 0
18.6 0.6 0
18.9 0.6 0
19.2 0.6 0
19.5 0.6 0
19.8 0.6 0
20.1 0.6 0
20.4 0.6 0
20.7 0.6 0
21 0.6 0
21.3 0.6 0
21.6 0.6 0
21.9 0.6 0
22.2 0.6 0
22.5 0.6 0
22.8 0.6 0
23.1 0.6 0
23.4 0.6 0
23.7 0.6 0
24 0.6 0
24.3 0.6 0
24.6 0.6 0
24.9 0.6 0
25.2 0.6 0
25.5 0.6 0
25.8 0.6 0
26.1 0.6 0
26.4 0.6 0
26.7 0.6 0
27 0.6 0
27.3 0.6 0
27.6 0.6 0
27.9 0.6 0
28.2 0.6 0
28.5 0.6 0
28.8 0.6 0
29.1 0.6 0
29.4 0.6 0
29.7 0.6 0
30 0.6 0
30.3 0.6 0
0 0.7 0
0.3 0.7 0
0.6 0.7 0
0.9 0.7 0
1.2 0.7 0
1.5 0.7 0
1.8 0.7 0
2.1 0.7 0
2.4 0.7 0
2.7 0.7 0
3 0.7 0
3.3 0.7 0
3.6 0.7 0
3.9 0.7 0
4.2 0.7 0
4.5 0.7 0
4.8 0.7 0
5.1 0.7 0
5.4 0.7 0
5.7 0.7 0
6 0.7 0
6.3 0.7 0
6.6 0.7 0
6.9 0.7 0
7.2 0.7 0
7.5 0.7 0
7.8 0.7 0
8.1 0.7 0
8.4 0.7 0
8.7 0.7 0
9 0.7 0
9.3 0.7 0
9.6 0.7 0
9.9 0.7 0
10.2 0.7 0
10.5 0.7 0
10.8 0.7 0
11.1 0.7 0
11.4 0.7 0
11.7 0.7 0
12 0.7 0
12.3 0.7 0
12.6 0.7 0
12.9 0.7 0
13.2 0.7 0
13.5 0.7 0
13.8 0.7 0
14.1 0.7 0
14.4 0.7 0
14.7 0.7 0
15 0.7 0
15.3 0.7 0
15.6 0.7 0
15.9 0.7 0
16.2 0.7 0
16.5 0.7 0
16.8 0.7 0
17.1 0.7 0
17.4 0.7 0
17.7 0.7 0
18 0.7 0
18.3 0.7 0
18.6 0.7 0
18.9 0.7 0
19.2 0.7 0
19.5 0.7 0
19.8 0.7 0
20.1 0.7 0
20.4 0.7 0
20.7 0.7 0
21 0.7 0
21.3 0.7 0
21.6 0.7 0
21.9 0.7 0
22.2 0.7 0
22.5 0.7 0
22.8 0.7 0
23.1 0.7 0
23.4 0.7 0
23.7 0.7 0
24 0.7 0
24.3 0.7 0
24.6 0.7 0
24.9 0.7 0
25.2 0.7 0
25.5 0.7 0
25.8 0.7 0
26.1 0.7 0
26.4 0.7 0
26.7 0.7 0
27 0.7 0
27.3 0.7 0
27.6 0.7 0
27.9 0.7 0
28.2 0.7 0
28.5 0.7 0
28.8 0.7 0
29.1 0.7 0
29.4 0.7 0
29.7 0.7 0
30 0.7 0
30.3 0.7 0
0 0.8 0
0.3 0.8 0
0.6 0.8 0
0.9 0.8 0
1.2 0.8 0
1.5 0.8 0
1.8 0.8 0
2.1 0.8 0
2.4 0.8 0
2.7 0.8 0
3 0.8 0
3.3 0.8 0
3.6 0.8 0
3.9 0.8 0
4.2 0.8 0
4.5 0.8 0
4.8 0.8 0
5.1 0.8 0
5.4 0.8 0
5.7 0.8 0
6 0.8 0
6.3 0.8 0
6.6 0.8 0
6.9 0.8 0
7.2 0.8 0
7.5 0.8 0
7.8 0.8 0
8.1 0.8 0
8.4 0.8 0
8.7 0.8 0
9 0.8 0
9.3 0.8 0
9.6 0.8 0
9.9 0.8 0
10.2 0.8 0
10.5 0.8 0
10.8 0.8 0
11.1 0.8 0
11.4 0.8 0
11.7 0.8 0
12 0.8 0
12.3 0.8 0
12.6 0.8 0
12.9 0.8 0
13.2 0.8 0
13.5 0.8 0
13.8 0.8 0
14.1 0.8 0
14.4 0.8 0
14.7 0.8 0
15 0.8 0
15.3 0.8 0
15.6 0.8 0
15.9 0.8 0
16.2 0.8 0
16.5 0.8 0
16.8 0.8 0
17.1 0.8 0
17.4 0.8 0
17.7 0.8 0
18 0.8 0
18.3 0.8 0
18.6 0.8 0
18.9 0.8 0
19.2 0.8 0
19.5 0.8 0
19.8 0.8 0
20.1 0.8 0
20.4 0.8 0
20.7 0.8 0
21 0.8 0
21.3 0.8 0
21.6 0.8 0
21.9 0.8 0
22.2 0.8 0
22.5 0.8 0
22.8 0.8 0
23.1 0.8 0
23.4 0.8 0
23.7 0.8 0
24 0.8 0
24.3 0.8 0
24.6 0.8 0
24.9 0.8 0
25.2 0.8 0
25.5 0.8 0
25.8 0.8 0
26.1 0.8 0
26.4 0.8 0
26.7 0.8 0
27 0.8 0
27.3 0.8 0
27.6 0.8 0
27.9 0.8 0
28.2 0.8 0
28.5 0.8 0
28.8 0.8 0
29.1 0.8 0
29.4 0.8 0
29.7 0.8 0
30 0.8 0
30.3 0.8 0
0 0.9 0
0.3 0.9 0
0.6 0.9 0
0.9 0.9 0
1.2 0.9 0
1.5 0.9 0
1.8 0.9 0
2.1 0.9 0
2.4 0.9 0
2.7 0.9 0
3 0.9 0
3.3 0.9 0
3.6 0.9 0
3.9 0.9 0
4.2 0.9 0
4.5 0.9 0
4.8 0.9 0
5.1 0.9 0
5.4 0.9 0
5.7 0.9 0
6 0.9 0
6.3 0.9 0
6.6 0.9 0
6.9 0.9 0
7.2 0.9 0
7.5 0.9 0
7.8 0.9 0
8.1 0.9 0
8.4 0.9 0
8.7 0.9 0
9 0.9 0
9.3 0.9 0
9.6 0.9 0
9.9 0.9 0
10.2 0.9 0
10.5 0.9 0
10.8 0.9 0
11.1 0.9 0
11.4 0.9 0
11.7 0.9 0
12 0.9 0
12.3 0.9 0
12.6 0.9 0
12.9 0.9 0
13.2 0.9 0
13.5 0.9 0
13.8 0.9 0
14.1 0.9 0
14.4 0.9 0
14.7 0.9 0
15 0.9 0
15.3 0.9 0
15.6 0.9 0
15.9 0.9 0
16.2 0.9 0
16.5 0.9 0
16.8 0.9 0
17.1 0.9 0
17.4 0.9 0
17.7 0.9 0
18 0.9 0
18.3 0.9 0
18.6 0.9 0
18.9 0.9 0
19.2 0.9 0
19.5 0.9 0
19.8 0.9 0
20.1 0.9 0
20.4 0.9 0
20.7 0.9 0
21 0.9 0
21.3 0.9 0
21.6 0.9 0
21.9 0.9 0
22.2 0.9 0
22.5 0.9 0
22.8 0.9 0
23.1 0.9 0
23.4 0.9 0
23.7 0.9 0
24 0.9 0
24.3 0.9 0
24.6 0.9 0
24.9 0.9 0
25.2 0.9 0
25.5 0.9 0
25.8 0.9 0
26.1 0.9 0
26.4 0.9 0
26.7 0.9 0
27 0.9 0
27.3 0.9 0
27.6 0.9 0
27.9 0.9 0
28.2 0.9 0
28.5 0.9 0
28.8 0.9 0
29.1 0.9 0
29.4 0.9 0
29.7 0.9 0
30 0.9 0
30.3 0.9 0
0 1 0
0.3 1 0
0.6 1 0
0.9 1 0
1.2 1 0
1.5 1 0
1.8 1 0
2.1 1 0
2.4 1 0
2.7 1 0
3 1 0
3.3 1 0
3.6 1 0
3.9 1 0
4.2 1 0
4.5 1 0
4.8 1 0
5.1 1 0
5.4 1 0
5.7 1 0
6 1 0
6.3 1 0
6.6 1 0
6.9 1 0
7.2 1 0
7.5 1 0
7.8 1 0
8.1 1 0
8.4 1 0
8.7 1 0
9 1 0
9.3 1 0
9.6 1 0
9.9 1 0
10.2 1 0
10.5 1 0
10.8 1 0
11.1 1 0
11.4 1 0
11.7 1 0
12 1 0
12.3 1 0
12.6 1 0
12.9 1 0
13.2 1 0
13.5 1 0
13.8 1 0
14.1 1 0
14.4 1 0
14.7 1 0
15 1 0
15.3 1 0
15.6 1 0
15.9 1 0
16.2 1 0
16.5 1 0
16.8 1 0
17.1 1 0
17.4 1 0
17.7 1 0
18 1 0
18.3 1 0
18.6 1 0
18.9 1 0
19.2 1 0
19.5 1 0
19.8 1 0
20.1 1 0
20.4 1 0
20.7 1 0
21 1 0
21.3 1 0
21.6 1 0
21.9 1 0
22.2 1 0
22.5 1 0
22.8 1 0
23.1 1 0
23.4 1 0
23.7 1 0
24 1 0
24.3 1 0
24.6 1 0
24.9 1 0
25.2 1 0
25.5 1 0
25.8 1 0
26.1 1 0
26.4 1 0
26.7 1 0
27 1 0
27.3 1 0
27.6 1 0
27.9 1 0
28.2 1 0
28.5 1 0
28.8 1 0
29.1 1 0
29.4 1 0
29.7 1 0
30 1 0
30.3 1 0
0 1.1 0
0.3 1.1 0
0.6 1.1 0
0.9 1.1 0
1.2 1.1 0
1.5 1.1 0
1.8 1.1 0
2.1 1.1 0
2.4 1.1 0
2.7 1.1 0
3 1.1 0
3.3 1.1 0
3.6 1.1 0
3.9 1.1 0
4.2 1.1 0
4.5 1.1 0
4.8 1.1 0
5.1 1.1 0
5.4 1.1 0
5.7 1.1 0
6 1.1 0
6.3 1.1 0
6.6 1.1 0
6.9 1.1 0
7.2 1.1 0
7.5 1.1 0
7.8 1.1 0
8.1 1.1 0
8.4 1.1 0
8.7 1.1 0
9 1.1 0
9.3 1.1 0
9.6 1.1 0
9.9 1.1 0
10.2 1.1 0
10.5 1.1 0
10.8 1.1 0
11.1 1.1 0
11.4 1.1 0
11.7 1.1 0
12 1.1 0
12.3 1.1 0
12.6 1.1 0
12.9 1.1 0
13.2 1.1 0
13.5 1.1 0
13.8 1.1 0
14.1 1.1 0
14.4 1.1 0
14.7 1.1 0
15 1.1 0
15.3 1.1 0
15.6 1.1 0
15.9 1.1 0
16.2 1.1 0
16.5 1.1 0
16.8 1.1 0
17.1 1.1 0
17.4 1.1 0
17.7 1.1 0
18 1.1 0
18.3 1.1 0
18.6 1.1 0
18.9 1.1 0
19.2 1.1 0
19.5 1.1 0
19.8 1.1 0
20.1 1.1 0
20.4 1.1 0
20.7 1.1 0
21 1.1 0
21.3 1.1 0
21.6 1.1 0
21.9 1.1 0
22.2 1.1 0
22.5 1.1 0
22.8 1.1 0
23.1 1.1 0
23.4 1.1 0
23.7 1.1 0
24 1.1 0
24.3 1.1 0
24.6 1.1 0
24.9 1.1 0
25.2 1.1 0
25.5 1.1 0
25.8 1.1 0
26.1 1.1 0
26.4 1.1 0
26.7 1.1 0
27 1.1 0
27.3 1.1 0
27.6 1.1 0
27.9 1.1 0
28.2 1.1 0
28.5 1.1 0
28.8 1.1 0
29.1 1.1 0
29.4 1.1 0
29.7 1.1 0
30 1.1 0
30.3 1.1 0

POINT_DATA 1224

SCALARS pressure double
LOOKUP_TABLE pressure
1.54211
1.54211
1.4756
1.42852
1.38556
1.34586
1.30992
1.27816
1.25065
1.22701
1.20638
1.18776
1.17028
1.15336
1.13666
1.12003
1.1034
1.08675
1.07009
1.05343
1.03676
1.0201
1.00343
0.986764
0.970097
0.95343
0.936763
0.920096
0.903429
0.886762
0.870095
0.853429
0.836762
0.820095
0.803428
0.786761
0.770094
0.753427
0.73676
0.720093
0.703426
0.686759
0.670092
0.653425
0.636758
0.620091
0.603424
0.586757
0.57009
0.553423
0.536756
0.520089
0.503422
0.486755
0.470088
0.453421
0.436754
0.420087
0.40342
0.386753
0.370086
0.353419
0.336752
0.320085
0.303418
0.286751
0.270084
0.253417
0.23675
0.220083
0.203416
0.186749
0.170082
0.153415
0.136747
0.12008
0.103413
0.0867462
0.0700791
0.053412
0.0367449
0.0200778
0.00341067
-0.0132565
-0.0299236
-0.0465908
-0.0632579
-0.0799251
-0.0965922
-0.113259
-0.129927
-0.146594
-0.163261
-0.179928
-0.196595
-0.213263
-0.22993
-0.246596
-0.263267
-0.279922
-0.29645
0.29645
1.54211
1.54211
1.4756
1.42852
1.38556
1.34586
1.30992
1.27816
1.25065
1.22701
1.20638
1.18776
1.17028
1.15336
1.13666
1.12003
1.1034
1.08675
1.07009
1.05343
1.03676
1.0201
1.00343
0.986764
0.970097
0.95343
0.936763
0.920096
0.903429
0.886762
0.870095
0.853429
0.836762
0.820095
0.803428
0.786761
0.770094
0.753427
0.73676
0.720093
0.703426
0.686759
0.670092
0.653425
0.636758
0.620091
0.603424
0.586757
0.57009
0.553423
0.536756
0.520089
0.503422
0.486755
0.470088
0.453421
0.436754
0.420087
0.40342
0.386753
0.370086
0.353419
0.336752
0.320085
0.303418
0.286751
0.270084
0.253417
0.23675
0.220083
0.203416
0.186749
0.170082
0.153415
0.136747
0.12008
0.103413
0.0867462
0.0700791
0.053412
0.0367449
0.0200778
0.00341067
-0.0132565
-0.0299236
-0.0465908
-0.0632579
-0.0799251
-0.0965922
-0.113259
-0.129927
-0.146594
-0.163261
-0.179928
-0.196595
-0.213263
-0.22993
-0.246596
-0.263267
-0.279922
-0.29645
0.29645
1.52146
1.52146
1.4738
1.42884
1.38628
1.34663
1.31061
1.2787
1.25104
1.22725
1.20651
1.18782
1.17031
1.15337
1.13667
1.12003
1.1034
1.08675
1.07009
1.05343
1.03676
1.0201
1.00343
0.986764
0.970097
0.95343
0.936763
0.920096
0.903429
0.886762
0.870095
0.853429
0.836762
0.820095
0.803428
0.786761
0.770094
0.753427
0.73676
0.720093
0.703426
0.686759
0.670092
0.653425
0.636758
0.620091
0.603424
0.586757
0.57009
0.553423
0.536756
0.520089
0.503422
0.486755
0.470088
0.453421
0.436754
0.420087
0.40342
0.386753
0.370086
0.353419
0.336752
0.320085
0.303418
0.286751
0.270084
0.253417
0.23675
0.220083
0.203416
0.186749
0.170082
0.153415
0.136747
0.12008
0.103413
0.0867462
0.0700791
0.053412
0.0367449
0.0200778
0.00341067
-0.0132565
-0.0299236
-0.0465908
-0.0632579
-0.0799251
-0.0965922
-0.113259
-0.129927
-0.146594
-0.163261
-0.179928
-0.196595
-0.213262
-0.22993
-0.246594
-0.263261
-0.279911
-0.296451
0.296451
1.50707
1.50707
1.4713
1.42923
1.38741
1.34793
1.31185
1.27979
1.2519
1.22786
1.2069
1.18804
1.17042
1.15342
1.13669
1.12004
1.1034
1.08675
1.07009
1.05343
1.03676
1.0201
1.00343
0.986764
0.970097
0.95343
0.936763
0.920096
0.903429
0.886762
0.870095
0.853429
0.836762
0.820095
0.803428
0.786761
0.770094
0.753427
0.73676
0.720093
0.703426
0.686759
0.670092
0.653425
0.636758
0.620091
0.603424
0.586757
0.57009
0.553423
0.536756
0.520089
0.503422
0.486755
0.470088
0.453421
0.436754
0.420087
0.40342
0.386753
0.370086
0.353419
0.336752
0.320085
0.303418
0.286751
0.270084
0.253417
0.23675
0.220083
0.203416
0.186749
0.170082
0.153415
0.136747
0.12008
0.103413
0.0867462
0.0700791
0.053412
0.0367449
0.0200778
0.00341066
-0.0132565
-0.0299236
-0.0465908
-0.0632579
-0.0799251
-0.0965922
-0.113259
-0.129927
-0.146594
-0.163261
-0.179928
-0.196595
-0.213262
-0.229928
-0.24659
-0.263244
-0.279852
-0.296437
0.296437
1.49838
1.49838
1.46928
1.42948
1.38834
1.34903
1.31296
1.2808
1.25274
1.22849
1.20732
1.18829
1.17054
1.15348
1.13671
1.12004
1.1034
1.08675
1.07009
1.05343
1.03676
1.0201
1.00343
0.986764
0.970097
0.95343
0.936763
0.920096
0.903429
0.886762
0.870095
0.853429
0.836762
0.820095
0.803428
0.786761
0.770094
0.753427
0.73676
0.720093
0.703426
0.686759
0.670092
0.653425
0.636758
0.620091
0.603424
0.586757
0.57009
0.553423
0.536756
0.520089
0.503422
0.486755
0.470088
0.453421
0.436754
0.420087
0.40342
0.386753
0.370086
0.353419
0.336752
0.320085
0.303418
0.286751
0.270084
0.253417
0.23675
0.220083
0.203416
0.186749
0.170082
0.153415
0.136747
0.12008
0.103413
0.0867462
0.0700791
0.053412
0.0367449
0.0200778
0.00341066
-0.0132565
-0.0299236
-0.0465908
-0.0632579
-0.0799251
-0.0965922
-0.113259
-0.129927
-0.146594
-0.163261
-0.179928
-0.196595
-0.213262
-0.229927
-0.246585
-0.263226
-0.279787
-0.296418
0.296418
1.4943
1.4943
1.4682
1.4296
1.38884
1.34964
1.31357
1.28136
1.25321
1.22885
1.20756
1.18843
1.17062
1.15351
1.13672
1.12004
1.1034
1.08675
1.07009
1.05343
1.03676
1.0201
1.00343
0.986764
0.970097
0.95343
0.936763
0.920096
0.903429
0.886762
0.870095
0.853429
0.836762
0.820095
0.803428
0.786761
0.770094
0.753427
0.73676
0.720093
0.703426
0.686759
0.670092
0.653425
0.636758
0.620091
0.603424
0.586757
0.57009
0.553423
0.536756
0.520089
0.503422
0.486755
0.470088
0.453421
0.436754
0.420087
0.40342
0.386753
0.370086
0.353419
0.336752
0.320085
0.303418
0.286751
0.270084
0.253417
0.23675
0.220083
0.203416
0.186749
0.170082
0.153415
0.136747
0.12008
0.103413
0.0867462
0.0700791
0.053412
0.0367449
0.0200778
0.00341066
-0.0132565
-0.0299236
-0.0465908
-0.0632579
-0.0799251
-0.0965922
-0.113259
-0.129927
-0.146594
-0.163261
-0.179928
-0.196595
-0.213261
-0.229926
-0.246582
-0.263215
-0.279749
-0.296406
0.296406
1.4943
1.4943
1.4682
1.4296
1.38884
1.34964
1.31357
1.28136
1.25321
1.22885
1.20756
1.18843
1.17062
1.15351
1.13672
1.12004
1.1034
1.08675
1.07009
1.05343
1.03676
1.0201
1.00343
0.986764
0.970097
0.95343
0.936763
0.920096
0.903429
0.886762
0.870095
0.853429
0.836762
0.820095
0.803428
0.786761
0.770094
0.753427
0.73676
0.720093
0.703426
0.686759
0.670092
0.653425
0.636758
0.620091
0.603424
0.586757
0.57009
0.553423
0.536756
0.520089
0.503422
0.486755
0.470088
0.453421
0.436754
0.420087
0.40342
0.386753
0.370086
0.353419
0.336752
0.320085
0.303418
0.286751
0.270084
0.253417
0.23675
0.220083
0.203416
0.186749
0.170082
0.153415
0.136747
0.12008
0.103413
0.0867462
0.0700791
0.053412
0.0367449
0.0200778
0.00341066
-0.0132565
-0.0299236
-0.0465908
-0.0632579
-0.0799251
-0.0965923
-0.113259
-0.129927
-0.146594
-0.163261
-0.179928
-0.196595
-0.213261
-0.229926
-0.246582
-0.263215
-0.279749
-0.296406
0.296406
1.49838
1.49838
1.46928
1.42948
1.38834
1.34903
1.31296
1.2808
1.25274
1.22849
1.20732
1.18829
1.17054
1.15348
1.13671
1.12004
1.1034
1.08675
1.07009
1.05343
1.03676
1.0201
1.00343
0.986764
0.970097
0.95343
0.936763
0.920096
0.903429
0.886762
0.870095
0.853429
0.836762
0.820095
0.803428
0.786761
0.770094
0.753427
0.73676
0.720093
0.703426
0.686759
0.670092
0.653425
0.636758
0.620091
0.603424
0.586757
0.57009
0.553423
0.536756
0.520089
0.503422
0.486755
0.470088
0.453421
0.436754
0.420087
0.40342
0.386753
0.370086
0.353419
0.336752
0.320085
0.303418
0.286751
0.270084
0.253417
0.23675
0.220083
0.203416
0.186749
0.170082
0.153415
0.136747
0.12008
0.103413
0.0867462
0.0700791
0.053412
0.0367449
0.0200778
0.00341066
-0.0132565
-0.0299236
-0.0465908
-0.0632579
-0.0799251
-0.0965923
-0.113259
-0.129927
-0.146594
-0.163261
-0.179928
-0.196595
-0.213262
-0.229927
-0.246585
-0.263226
-0.279787
-0.296418
0.296418
1.50707
1.50707
1.4713
1.42923
1.38741
1.34793
1.31185
1.27979
1.2519
1.22786
1.2069
1.18804
1.17042
1.15342
1.13669
1.12004
1.1034
1.08675
1.07009
1.05343
1.03676
1.0201
1.00343
0.986764
0.970097
0.95343
0.936763
0.920096
0.903429
0.886762
0.870095
0.853429
0.836762
0.820095
0.803428
0.786761
0.770094
0.753427
0.73676
0.720093
0.703426
0.686759
0.670092
0.653425
0.636758
0.620091
0.603424
0.586757
0.57009
0.553423
0.536756
0.520089
0.503422
0.486755
0.470088
0.453421
0.436754
0.420087
0.40342
0.386753
0.370086
0.353419
0.336752
0.320085
0.303418
0.286751
0.270084
0.253417
0.23675
0.220083
0.203416
0.186749
0.170082
0.153415
0.136747
0.12008
0.103413
0.0867462
0.0700791
0.053412
0.0367449
0.0200778
0.00341065
-0.0132565
-0.0299236
-0.0465908
-0.0632579
-0.0799251
-0.0965923
-0.113259
-0.129927
-0.146594
-0.163261
-0.179928
-0.196595
-0.213262
-0.229928
-0.24659
-0.263244
-0.279852
-0.296437
0.296437
1.52146
1.52146
1.4738
1.42884
1.38628
1.34663
1.31061
1.2787
1.25104
1.22725
1.20651
1.18782
1.17031
1.15337
1.13667
1.12003
1.1034
1.08675
1.07009
1.05343
1.03676
1.0201
1.00343
0.986764
0.970097
0.95343
0.936763
0.920096
0.903429
0.886762
0.870095
0.853429
0.836762
0.820095
0.803428
0.786761
0.770094
0.753427
0.73676
0.720093
0.703426
0.686759
0.670092
0.653425
0.636758
0.620091
0.603424
0.586757
0.57009
0.553423
0.536756
0.520089
0.503422
0.486755
0.470088
0.453421
0.436754
0.420087
0.40342
0.386753
0.370086
0.353419
0.336752
0.320085
0.303418
0.286751
0.270084
0.253417
0.23675
0.220083
0.203416
0.186749
0.170082
0.153415
0.136747
0.12008
0.103413
0.0867462
0.0700791
0.053412
0.0367449
0.0200778
0.00341065
-0.0132565
-0.0299236
-0.0465908
-0.0632579
-0.0799251
-0.0965923
-0.113259
-0.129927
-0.146594
-0.163261
-0.179928
-0.196595
-0.213262
-0.22993
-0.246594
-0.263261
-0.279911
-0.296451
0.296451
1.54211
1.54211
1.4756
1.42852
1.38556
1.34586
1.30992
1.27816
1.25065
1.22701
1.20638
1.18776
1.17028
1.15336
1.13666
1.12003
1.1034
1.08675
1.07009
1.05343
1.03676
1.0201
1.00343
0.986764
0.970097
0.95343
0.936763
0.920096
0.903429
0.886762
0.870095
0.853429
0.836762
0.820095
0.803428
0.786761
0.770094
0.753427
0.73676
0.720093
0.703426
0.686759
0.670092
0.653425
0.636758
0.620091
0.603424
0.586757
0.57009
0.553423
0.536756
0.520089
0.503422
0.486755
0.470088
0.453421
0.436754
0.420087
0.40342
0.386753
0.370086
0.353419
0.336752
0.320085
0.303418
0.286751
0.270084
0.253417
0.23675
0.220083
0.203416
0.186749
0.170082
0.153415
0.136747
0.12008
0.103413
0.0867462
0.0700791
0.053412
0.0367449
0.0200778
0.00341065
-0.0132565
-0.0299236
-0.0465908
-0.0632579
-0.0799251
-0.0965923
-0.113259
-0.129927
-0.146594
-0.163261
-0.179928
-0.196595
-0.213263
-0.22993
-0.246596
-0.263267
-0.279922
-0.29645
0.29645
1.54211
1.54211
1.4756
1.42852
1.38556
1.34586
1.30992
1.27816
1.25065
1.22701
1.20638
1.18776
1.17028
1.15336
1.13666
1.12003
1.1034
1.08675
1.07009
1.05343
1.03676
1.0201
1.00343
0.986764
0.970097
0.95343
0.936763
0.920096
0.903429
0.886762
0.870095
0.853429
0.836762
0.820095
0.803428
0.786761
0.770094
0.753427
0.73676
0.720093
0.703426
0.686759
0.670092
0.653425
0.636758
0.620091
0.603424
0.586757
0.57009
0.553423
0.536756
0.520089
0.503422
0.486755
0.470088
0.453421
0.436754
0.420087
0.40342
0.386753
0.370086
0.353419
0.336752
0.320085
0.303418
0.286751
0.270084
0.253417
0.23675
0.220083
0.203416
0.186749
0.170082
0.153415
0.136747
0.12008
0.103413
0.0867462
0.0700791
0.053412
0.0367449
0.0200778
0.00341065
-0.0132565
-0.0299236
-0.0465908
-0.0632579
-0.0799251
-0.0965923
-0.113259
-0.129927
-0.146594
-0.163261
-0.179928
-0.196595
-0.213263
-0.22993
-0.246596
-0.263267
-0.279922
-0.29645
0.29645
SCALARS phi double
LOOKUP_TABLE phi
0.999793
1.00021
0.998775
1.00037
1.0115
0.998963
0.909838
0.742561
0.547426
0.372881
0.239169
0.145836
0.0847359
0.0468752
0.0246529
0.0123137
0.00583921
0.00263009
0.00112624
0.000459038
0.000178325
6.61228e-05
2.34371e-05
7.95255e-06
2.58688e-06
8.078e-07
2.42469e-07
7.00436e-08
1.9496e-08
5.23437e-09
1.35699e-09
3.40017e-10
8.24211e-11
1.93448e-11
4.3998e-12
9.70457e-13
2.07736e-13
4.31852e-14
8.72426e-15
1.7138e-15
3.27554e-16
6.09447e-17
1.10446e-17
1.95046e-18
3.3582e-19
5.63971e-20
9.24217e-21
1.47856e-21
2.31005e-22
3.52603e-23
5.26007e-24
7.67162e-25
1.09425e-25
1.52695e-26
2.08515e-27
2.78732e-28
3.64835e-29
4.6772e-30
5.87447e-31
7.23032e-32
8.72283e-33
1.03175e-33
1.19675e-34
1.36159e-35
1.51982e-36
1.6647e-37
1.78962e-38
1.88866e-39
1.95702e-40
1.99144e-41
1.99042e-42
1.95436e-43
1.88546e-44
1.78753e-45
1.66565e-46
1.52572e-47
1.37401e-48
1.21671e-49
1.05959e-50
9.07593e-52
7.64734e-53
6.33942e-54
5.17087e-55
4.15055e-56
3.27889e-57
2.54963e-58
1.95167e-59
1.47082e-60
1.09141e-61
7.97496e-63
5.73893e-64
4.06758e-65
2.83978e-66
1.95307e-67
1.32335e-68
8.8349e-70
5.81203e-71
3.76854e-72
2.40827e-73
1.51976e-74
9.29594e-76
9.29594e-76
0.999793
1.00021
0.998775
1.00037
1.0115
0.998963
0.909838
0.742561
0.547426
0.372881
0.239169
0.145836
0.0847359
0.0468752
0.0246529
0.0123137
0.00583921
0.00263009
0.00112624
0.000459038
0.000178325
6.61228e-05
2.34371e-05
7.95255e-06
2.58688e-06
8.078e-07
2.42469e-07
7.00436e-08
1.9496e-08
5.23437e-09
1.35699e-09
3.40017e-10
8.24211e-11
1.93448e-11
4.3998e-12
9.70457e-13
2.07736e-13
4.31852e-14
8.72426e-15
1.7138e-15
3.27554e-16
6.09447e-17
1.10446e-17
1.95046e-18
3.3582e-19
5.63971e-20
9.24217e-21
1.47856e-21
2.31005e-22
3.52603e-23
5.26007e-24
7.67162e-25
1.09425e-25
1.52695e-26
2.08515e-27
2.78732e-28
3.64835e-29
4.6772e-30
5.87447e-31
7.23032e-32
8.72283e-33
1.03175e-33
1.19675e-34
1.36159e-35
1.51982e-36
1.6647e-37
1.78962e-38
1.88866e-39
1.95702e-40
1.99144e-41
1.99042e-42
1.95436e-43
1.88546e-44
1.78753e-45
1.66565e-46
1.52572e-47
1.37401e-48
1.21671e-49
1.05959e-50
9.07593e-52
7.64734e-53
6.33942e-54
5.17087e-55
4.15055e-56
3.27889e-57
2.54963e-58
1.95167e-59
1.47082e-60
1.09141e-61
7.97496e-63
5.73893e-64
4.06758e-65
2.83978e-66
1.95307e-67
1.32335e-68
8.8349e-70
5.81203e-71
3.76854e-72
2.40827e-73
1.51976e-74
9.29594e-76
9.29594e-76
0.999846
1.00015
0.99945
0.998928
1.00335
1.00704
0.99056
0.936952
0.84276
0.71601
0.571434
0.426546
0.297075
0.19296
0.117005
0.0663543
0.0352771
0.0176285
0.00830221
0.00369451
0.00155733
0.000623275
0.000237356
8.61832e-05
2.98927e-05
9.92173e-06
3.1564e-06
9.63903e-07
2.82954e-07
7.99476e-08
2.17684e-08
5.71831e-09
1.45073e-09
3.55806e-10
8.44395e-11
1.94071e-11
4.32325e-12
9.34176e-13
1.95942e-13
3.99212e-14
7.90559e-15
1.5226e-15
2.85369e-16
5.2076e-17
9.25766e-18
1.60403e-18
2.71006e-19
4.46676e-20
7.18521e-21
1.12849e-21
1.73117e-22
2.59493e-23
3.80199e-24
5.44686e-25
7.63265e-26
1.04649e-26
1.4043e-27
1.84492e-28
2.3736e-29
2.99137e-30
3.69385e-31
4.47039e-32
5.30365e-33
6.16978e-34
7.03929e-35
7.87859e-36
8.6521e-37
9.32475e-38
9.86467e-39
1.02457e-39
1.04495e-40
1.0467e-41
1.02991e-42
9.95643e-44
9.45808e-45
8.83016e-46
8.10342e-47
7.31085e-48
6.48531e-49
5.65744e-50
4.85395e-51
4.09652e-52
3.40123e-53
2.77852e-54
2.23359e-55
1.76707e-56
1.376e-57
1.05474e-58
7.95949e-60
5.91401e-61
4.32695e-62
3.11766e-63
2.21242e-64
1.54645e-65
1.06483e-66
7.22336e-68
4.8278e-69
3.17968e-70
2.06366e-71
1.32125e-72
8.19111e-74
8.19111e-74
0.999921
1.00008
0.99938
0.997689
0.997484
0.999773
0.999434
0.985674
0.945821
0.87031
0.758039
0.618978
0.471163
0.333608
0.219782
0.134966
0.0774553
0.0416591
0.0210596
0.0100343
0.00451828
0.00192745
0.000780766
0.000300966
0.00011062
3.88384e-05
1.3048e-05
4.20111e-06
1.29824e-06
3.85574e-07
1.10197e-07
3.03431e-08
8.05843e-09
2.0663e-09
5.12047e-10
1.22742e-10
2.84852e-11
6.40527e-12
1.39662e-12
2.95498e-13
6.07103e-14
1.21195e-14
2.35226e-15
4.44138e-16
8.16254e-17
1.46095e-17
2.54781e-18
4.33141e-19
7.1816e-20
1.1618e-20
1.83462e-21
2.82903e-22
4.26161e-23
6.27355e-24
9.02841e-25
1.27062e-25
1.74932e-26
2.35672e-27
3.10788e-28
4.01295e-29
5.07492e-30
6.2875e-31
7.63349e-32
9.08395e-33
1.05984e-33
1.2126e-34
1.36084e-35
1.49832e-36
1.61884e-37
1.71669e-38
1.78713e-39
1.82675e-40
1.83376e-41
1.80812e-42
1.75147e-43
1.66705e-44
1.55932e-45
1.43361e-46
1.29569e-47
1.15137e-48
1.00608e-49
8.64599e-51
7.30843e-52
6.07739e-53
4.97222e-54
4.00293e-55
3.17142e-56
2.47303e-57
1.89825e-58
1.43442e-59
1.0672e-60
7.81818e-62
5.64031e-63
4.00756e-64
2.80466e-65
1.9335e-66
1.31314e-67
8.78669e-69
5.79318e-70
3.76438e-71
2.36617e-72
2.36617e-72
1.00138
0.998623
0.991224
0.981168
0.971005
0.963314
0.957192
0.945672
0.916689
0.857974
0.763813
0.639475
0.499978
0.363918
0.246502
0.155596
0.0917376
0.0506587
0.0262757
0.0128371
0.00592311
0.00258762
0.00107285
0.000423067
0.000158998
5.70553e-05
1.95829e-05
6.43916e-06
2.03142e-06
6.15733e-07
1.79541e-07
5.04242e-08
1.36554e-08
3.56956e-09
9.01572e-10
2.20223e-10
5.20691e-11
1.19264e-11
2.6484e-12
5.70588e-13
1.19351e-13
2.4254e-14
4.79134e-15
9.2068e-16
1.72179e-16
3.13548e-17
5.56291e-18
9.62021e-19
1.62238e-19
2.66933e-20
4.2866e-21
6.72146e-22
1.02949e-22
1.54082e-23
2.25428e-24
3.22507e-25
4.51325e-26
6.18011e-27
8.28308e-28
1.08694e-28
1.39688e-29
1.75861e-30
2.16947e-31
2.62314e-32
3.10943e-33
3.61436e-34
4.12072e-35
4.60897e-36
5.05843e-37
5.44876e-38
5.76153e-39
5.98162e-40
6.0985e-41
6.10702e-42
6.00778e-43
5.80699e-44
5.51585e-45
5.14953e-46
4.7259e-47
4.26411e-48
3.78323e-49
3.30103e-50
2.83301e-51
2.39176e-52
1.98662e-53
1.62365e-54
1.30589e-55
1.03373e-56
8.05465e-58
6.17834e-59
4.66586e-60
3.46954e-61
2.5406e-62
1.83219e-63
1.30142e-64
9.10579e-66
6.27639e-67
4.26221e-68
2.85182e-69
1.8803e-70
1.19857e-71
1.19857e-71
1.04556
0.954436
0.887722
0.838174
0.801093
0.774359
0.755175
0.737136
0.710126
0.663667
0.592049
0.497925
0.391719
0.287177
0.196036
0.124737
0.0741377
0.0412669
0.0215721
0.0106198
0.00493659
0.00217231
0.000907036
0.000360151
0.000136264
4.92194e-05
1.70021e-05
5.62577e-06
1.78577e-06
5.44548e-07
1.59728e-07
4.51212e-08
1.22893e-08
3.2306e-09
8.20493e-10
2.01515e-10
4.79029e-11
1.10305e-11
2.46232e-12
5.33251e-13
1.12113e-13
2.28984e-14
4.54621e-15
8.77904e-16
1.64984e-16
3.01904e-17
5.38208e-18
9.35182e-19
1.58456e-19
2.6193e-20
4.22577e-21
6.65657e-22
1.02421e-22
1.53986e-23
2.263e-24
3.252e-25
4.57111e-26
6.2869e-27
8.46307e-28
1.11538e-28