# vtk DataFile Version 3.0
FlowField
ASCII
DATASET STRUCTURED_GRID
DIMENSIONS 102 12 1 
POINTS 1224 double
0 0 0
0.3 0 0
0.6 0 0
0.9 0 0
1.2 0 0
1.5 0 0
1.8 0 0
2.1 0 0
2.4 0 0
2.7 0 0
3 0 0
3.3 0 0
3.6 0 0
3.9 0 0
4.2 0 0
4.5 0 0
4.8 0 0
5.1 0 0
5.4 0 0
5.7 0 0
6 0 0
6.3 0 0
6.6 0 0
6.9 0 0
7.2 0 0
7.5 0 0
7.8 0 0
8.1 0 0
8.4 0 0
8.7 0 0
9 0 0
9.3 0 0
9.6 0 0
9.9 0 0
10.2 0 0
10.5 0 0
10.8 0 0
11.1 0 0
11.4 0 0
11.7 0 0
12 0 0
12.3 0 0
12.6 0 0
12.9 0 0
13.2 0 0
13.5 0 0
13.8 0 0
14.1 0 0
14.4 0 0
14.7 0 0
15 0 0
15.3 0 0
15.6 0 0
15.9 0 0
16.2 0 0
16.5 0 0
16.8 0 0
17.1 0 0
17.4 0 0
17.7 0 0
18 0 0
18.3 0 0
18.6 0 0
18.9 0 0
19.2 0 0
19.5 0 0
19.8 0 0
20.1 0 0
20.4 0 0
20.7 0 0
21 0 0
21.3 0 0
21.6 0 0
21.9 0 0
22.2 0 0
22.5 0 0
22.8 0 0
23.1 0 0
23.4 0 0
23.7 0 0
24 0 0
24.3 0 0
24.6 0 0
24.9 0 0
25.2 0 0
25.5 0 0
25.8 0 0
26.1 0 0
26.4 0 0
26.7 0 0
27 0 0
27.3 0 0
27.6 0 0
27.9 0 0
28.2 0 0
28.5 0 0
28.8 0 0
29.1 0 0
29.4 0 0
29.7 0 0
30 0 0
30.3 0 0
0 0.1 0
0.3 0.1 0
0.6 0.1 0
0.9 0.1 0
1.2 0.1 0
1.5 0.1 0
1.8 0.1 0
2.1 0.1 0
2.4 0.1 0
2.7 0.1 0
3 0.1 0
3.3 0.1 0
3.6 0.1 0
3.9 0.1 0
4.2 0.1 0
4.5 0.1 0
4.8 0.1 0
5.1 0.1 0
5.4 0.1 0
5.7 0.1 0
6 0.1 0
6.3 0.1 0
6.6 0.1 0
6.9 0.1 0
7.2 0.1 0
7.5 0.1 0
7.8 0.1 0
8.1 0.1 0
8.4 0.1 0
8.7 0.1 0
9 0.1 0
9.3 0.1 0
9.6 0.1 0
9.9 0.1 0
10.2 0.1 0
10.5 0.1 0
10.8 0.1 0
11.1 0.1 0
11.4 0.1 0
11.7 0.1 0
12 0.1 0
12.3 0.1 0
12.6 0.1 0
12.9 0.1 0
13.2 0.1 0
13.5 0.1 0
13.8 0.1 0
14.1 0.1 0
14.4 0.1 0
14.7 0.1 0
15 0.1 0
15.3 0.1 0
15.6 0.1 0
15.9 0.1 0
16.2 0.1 0
16.5 0.1 0
16.8 0.1 0
17.1 0.1 0
17.4 0.1 0
17.7 0.1 0
18 0.1 0
18.3 0.1 0
18.6 0.1 0
18.9 0.1 0
19.2 0.1 0
19.5 0.1 0
19.8 0.1 0
20.1 0.1 0
20.4 0.1 0
20.7 0.1 0
21 0.1 0
21.3 0.1 0
21.6 0.1 0
21.9 0.1 0
22.2 0.1 0
22.5 0.1 0
22.8 0.1 0
23.1 0.1 0
23.4 0.1 0
23.7 0.1 0
24 0.1 0
24.3 0.1 0
24.6 0.1 0
24.9 0.1 0
25.2 0.1 0
25.5 0.1 0
25.8 0.1 0
26.1 0.1 0
26.4 0.1 0
26.7 0.1 0
27 0.1 0
27.3 0.1 0
27.6 0.1 0
27.9 0.1 0
28.2 0.1 0
28.5 0.1 0
28.8 0.1 0
29.1 0.1 0
29.4 0.1 0
29.7 0.1 0
30 0.1 0
30.3 0.1 0
0 0.2 0
0.3 0.2 0
0.6 0.2 0
0.9 0.2 0
1.2 0.2 0
1.5 0.2 0
1.8 0.2 0
2.1 0.2 0
2.4 0.2 0
2.7 0.2 0
3 0.2 0
3.3 0.2 0
3.6 0.2 0
3.9 0.2 0
4.2 0.2 0
4.5 0.2 0
4.8 0.2 0
5.1 0.2 0
5.4 0.2 0
5.7 0.2 0
6 0.2 0
6.3 0.2 0
6.6 0.2 0
6.9 0.2 0
7.2 0.2 0
7.5 0.2 0
7.8 0.2 0
8.1 0.2 0
8.4 0.2 0
8.7 0.2 0
9 0.2 0
9.3 0.2 0
9.6 0.2 0
9.9 0.2 0
10.2 0.2 0
10.5 0.2 0
10.8 0.2 0
11.1 0.2 0
11.4 0.2 0
11.7 0.2 0
12 0.2 0
12.3 0.2 0
12.6 0.2 0
12.9 0.2 0
13.2 0.2 0
13.5 0.2 0
13.8 0.2 0
14.1 0.2 0
14.4 0.2 0
14.7 0.2 0
15 0.2 0
15.3 0.2 0
15.6 0.2 0
15.9 0.2 0
16.2 0.2 0
16.5 0.2 0
16.8 0.2 0
17.1 0.2 0
17.4 0.2 0
17.7 0.2 0
18 0.2 0
18.3 0.2 0
18.6 0.2 0
18.9 0.2 0
19.2 0.2 0
19.5 0.2 0
19.8 0.2 0
20.1 0.2 0
20.4 0.2 0
20.7 0.2 0
21 0.2 0
21.3 0.2 0
21.6 0.2 0
21.9 0.2 0
22.2 0.2 0
22.5 0.2 0
22.8 0.2 0
23.1 0.2 0
23.4 0.2 0
23.7 0.2 0
24 0.2 0
24.3 0.2 0
24.6 0.2 0
24.9 0.2 0
25.2 0.2 0
25.5 0.2 0
25.8 0.2 0
26.1 0.2 0
26.4 0.2 0
26.7 0.2 0
27 0.2 0
27.3 0.2 0
27.6 0.2 0
27.9 0.2 0
28.2 0.2 0
28.5 0.2 0
28.8 0.2 0
29.1 0.2 0
29.4 0.2 0
29.7 0.2 0
30 0.2 0
30.3 0.2 0
0 0.3 0
0.3 0.3 0
0.6 0.3 0
0.9 0.3 0
1.2 0.3 0
1.5 0.3 0
1.8 0.3 0
2.1 0.3 0
2.4 0.3 0
2.7 0.3 0
3 0.3 0
3.3 0.3 0
3.6 0.3 0
3.9 0.3 0
4.2 0.3 0
4.5 0.3 0
4.8 0.3 0
5.1 0.3 0
5.4 0.3 0
5.7 0.3 0
6 0.3 0
6.3 0.3 0
6.6 0.3 0
6.9 0.3 0
7.2 0.3 0
7.5 0.3 0
7.8 0.3 0
8.1 0.3 0
8.4 0.3 0
8.7 0.3 0
9 0.3 0
9.3 0.3 0
9.6 0.3 0
9.9 0.3 0
10.2 0.3 0
10.5 0.3 0
10.8 0.3 0
11.1 0.3 0
11.4 0.3 0
11.7 0.3 0
12 0.3 0
12.3 0.3 0
12.6 0.3 0
12.9 0.3 0
13.2 0.3 0
13.5 0.3 0
13.8 0.3 0
14.1 0.3 0
14.4 0.3 0
14.7 0.3 0
15 0.3 0
15.3 0.3 0
15.6 0.3 0
15.9 0.3 0
16.2 0.3 0
16.5 0.3 0
16.8 0.3 0
17.1 0.3 0
17.4 0.3 0
17.7 0.3 0
18 0.3 0
18.3 0.3 0
18.6 0.3 0
18.9 0.3 0
19.2 0.3 0
19.5 0.3 0
19.8 0.3 0
20.1 0.3 0
20.4 0.3 0
20.7 0.3 0
21 0.3 0
21.3 0.3 0
21.6 0.3 0
21.9 0.3 0
22.2 0.3 0
22.5 0.3 0
22.8 0.3 0
23.1 0.3 0
23.4 0.3 0
23.7 0.3 0
24 0.3 0
24.3 0.3 0
24.6 0.3 0
24.9 0.3 0
25.2 0.3 0
25.5 0.3 0
25.8 0.3 0
26.1 0.3 0
26.4 0.3 0
26.7 0.3 0
27 0.3 0
27.3 0.3 0
27.6 0.3 0
27.9 0.3 0
28.2 0.3 0
28.5 0.3 0
28.8 0.3 0
29.1 0.3 0
29.4 0.3 0
29.7 0.3 0
30 0.3 0
30.3 0.3 0
0 0.4 0
0.3 0.4 0
0.6 0.4 0
0.9 0.4 0
1.2 0.4 0
1.5 0.4 0
1.8 0.4 0
2.1 0.4 0
2.4 0.4 0
2.7 0.4 0
3 0.4 0
3.3 0.4 0
3.6 0.4 0
3.9 0.4 0
4.2 0.4 0
4.5 0.4 0
4.8 0.4 0
5.1 0.4 0
5.4 0.4 0
5.7 0.4 0
6 0.4 0
6.3 0.4 0
6.6 0.4 0
6.9 0.4 0
7.2 0.4 0
7.5 0.4 0
7.8 0.4 0
8.1 0.4 0
8.4 0.4 0
8.7 0.4 0
9 0.4 0
9.3 0.4 0
9.6 0.4 0
9.9 0.4 0
10.2 0.4 0
10.5 0.4 0
10.8 0.4 0
11.1 0.4 0
11.4 0.4 0
11.7 0.4 0
12 0.4 0
12.3 0.4 0
12.6 0.4 0
12.9 0.4 0
13.2 0.4 0
13.5 0.4 0
13.8 0.4 0
14.1 0.4 0
14.4 0.4 0
14.7 0.4 0
15 0.4 0
15.3 0.4 0
15.6 0.4 0
15.9 0.4 0
16.2 0.4 0
16.5 0.4 0
16.8 0.4 0
17.1 0.4 0
17.4 0.4 0
17.7 0.4 0
18 0.4 0
18.3 0.4 0
18.6 0.4 0
18.9 0.4 0
19.2 0.4 0
19.5 0.4 0
19.8 0.4 0
20.1 0.4 0
20.4 0.4 0
20.7 0.4 0
21 0.4 0
21.3 0.4 0
21.6 0.4 0
21.9 0.4 0
22.2 0.4 0
22.5 0.4 0
22.8 0.4 0
23.1 0.4 0
23.4 0.4 0
23.7 0.4 0
24 0.4 0
24.3 0.4 0
24.6 0.4 0
24.9 0.4 0
25.2 0.4 0
25.5 0.4 0
25.8 0.4 0
26.1 0.4 0
26.4 0.4 0
26.7 0.4 0
27 0.4 0
27.3 0.4 0
27.6 0.4 0
27.9 0.4 0
28.2 0.4 0
28.5 0.4 0
28.8 0.4 0
29.1 0.4 0
29.4 0.4 0
29.7 0.4 0
30 0.4 0
30.3 0.4 0
0 0.5 0
0.3 0.5 0
0.6 0.5 0
0.9 0.5 0
1.2 0.5 0
1.5 0.5 0
1.8 0.5 0
2.1 0.5 0
2.4 0.5 0
2.7 0.5 0
3 0.5 0
3.3 0.5 0
3.6 0.5 0
3.9 0.5 0
4.2 0.5 0
4.5 0.5 0
4.8 0.5 0
5.1 0.5 0
5.4 0.5 0
5.7 0.5 0
6 0.5 0
6.3 0.5 0
6.6 0.5 0
6.9 0.5 0
7.2 0.5 0
7.5 0.5 0
7.8 0.5 0
8.1 0.5 0
8.4 0.5 0
8.7 0.5 0
9 0.5 0
9.3 0.5 0
9.6 0.5 0
9.9 0.5 0
10.2 0.5 0
10.5 0.5 0
10.8 0.5 0
11.1 0.5 0
11.4 0.5 0
11.7 0.5 0
12 0.5 0
12.3 0.5 0
12.6 0.5 0
12.9 0.5 0
13.2 0.5 0
13.5 0.5 0
13.8 0.5 0
14.1 0.5 0
14.4 0.5 0
14.7 0.5 0
15 0.5 0
15.3 0.5 0
15.6 0.5 0
15.9 0.5 0
16.2 0.5 0
16.5 0.5 0
16.8 0.5 0
17.1 0.5 0
17.4 0.5 0
17.7 0.5 0
18 0.5 0
18.3 0.5 0
18.6 0.5 0
18.9 0.5 0
19.2 0.5 0
19.5 0.5 0
19.8 0.5 0
20.1 0.5 0
20.4 0.5 0
20.7 0.5 0
21 0.5 0
21.3 0.5 0
21.6 0.5 0
21.9 0.5 0
22.2 0.5 0
22.5 0.5 0
22.8 0.5 0
23.1 0.5 0
23.4 0.5 0
23.7 0.5 0
24 0.5 0
24.3 0.5 0
24.6 0.5 0
24.9 0.5 0
25.2 0.5 0
25.5 0.5 0
25.8 0.5 0
26.1 0.5 0
26.4 0.5 0
26.7 0.5 0
27 0.5 0
27.3 0.5 0
27.6 0.5 0
27.9 0.5 0
28.2 0.5 0
28.5 0.5 0
28.8 0.5 0
29.1 0.5 0
29.4 0.5 0
29.7 0.5 0
30 0.5 0
30.3 0.5 0
0 0.6 0
0.3 0.6 0
0.6 0.6 0
0.9 0.6 0
1.2 0.6 0
1.5 0.6 0
1.8 0.6 0
2.1 0.6 0
2.4 0.6 0
2.7 0.6 0
3 0.6 0
3.3 0.6 0
3.6 0.6 0
3.9 0.6 0
4.2 0.6 0
4.5 0.6 0
4.8 0.6 0
5.1 0.6 0
5.4 0.6 0
5.7 0.6 0
6 0.6 0
6.3 0.6 0
6.6 0.6 0
6.9 0.6 0
7.2 0.6 0
7.5 0.6 0
7.8 0.6 0
8.1 0.6 0
8.4 0.6 0
8.7 0.6 0
9 0.6 0
9.3 0.6 0
9.6 0.6 0
9.9 0.6 0
10.2 0.6 0
10.5 0.6 0
10.8 0.6 0
11.1 0.6 0
11.4 0.6 0
11.7 0.6 0
12 0.6 0
12.3 0.6 0
12.6 0.6 0
12.9 0.6 0
13.2 0.6 0
13.5 0.6 0
13.8 0.6 0
14.1 0.6 0
14.4 0.6 0
14.7 0.6 0
15 0.6 0
15.3 0.6 0
15.6 0.6 0
15.9 0.6 0
16.2 0.6 0
16.5 0.6 0
16.8 0.6 0
17.1 0.6 0
17.4 0.6 0
17.7 0.6 0
18 0.6 0
18.3 0.6 0
18.6 0.6 0
18.9 0.6 0
19.2 0.6 0
19.5 0.6 0
19.8 0.6 0
20.1 0.6 0
20.4 0.6 0
20.7 0.6 0
21 0.6 0
21.3 0.6 0
21.6 0.6 0
21.9 0.6 0
22.2 0.6 0
22.5 0.6 0
22.8 0.6 0
23.1 0.6 0
23.4 0.6 0
23.7 0.6 0
24 0.6 0
24.3 0.6 0
24.6 0.6 0
24.9 0.6 0
25.2 0.6 0
25.5 0.6 0
25.8 0.6 0
26.1 0.6 0
26.4 0.6 0
26.7 0.6 0
27 0.6 0
27.3 0.6 0
27.6 0.6 0
27.9 0.6 0
28.2 0.6 0
28.5 0.6 0
28.8 0.6 0
29.1 0.6 0
29.4 0.6 0
29.7 0.6 0
30 0.6 0
30.3 0.6 0
0 0.7 0
0.3 0.7 0
0.6 0.7 0
0.9 0.7 0
1.2 0.7 0
1.5 0.7 0
1.8 0.7 0
2.1 0.7 0
2.4 0.7 0
2.7 0.7 0
3 0.7 0
3.3 0.7 0
3.6 0.7 0
3.9 0.7 0
4.2 0.7 0
4.5 0.7 0
4.8 0.7 0
5.1 0.7 0
5.4 0.7 0
5.7 0.7 0
6 0.7 0
6.3 0.7 0
6.6 0.7 0
6.9 0.7 0
7.2 0.7 0
7.5 0.7 0
7.8 0.7 0
8.1 0.7 0
8.4 0.7 0
8.7 0.7 0
9 0.7 0
9.3 0.7 0
9.6 0.7 0
9.9 0.7 0
10.2 0.7 0
10.5 0.7 0
10.8 0.7 0
11.1 0.7 0
11.4 0.7 0
11.7 0.7 0
12 0.7 0
12.3 0.7 0
12.6 0.7 0
12.9 0.7 0
13.2 0.7 0
13.5 0.7 0
13.8 0.7 0
14.1 0.7 0
14.4 0.7 0
14.7 0.7 0
15 0.7 0
15.3 0.7 0
15.6 0.7 0
15.9 0.7 0
16.2 0.7 0
16.5 0.7 0
16.8 0.7 0
17.1 0.7 0
17.4 0.7 0
17.7 0.7 0
18 0.7 0
18.3 0.7 0
18.6 0.7 0
18.9 0.7 0
19.2 0.7 0
19.5 0.7 0
19.8 0.7 0
20.1 0.7 0
20.4 0.7 0
20.7 0.7 0
21 0.7 0
21.3 0.7 0
21.6 0.7 0
21.9 0.7 0
22.2 0.7 0
22.5 0.7 0
22.8 0.7 0
23.1 0.7 0
23.4 0.7 0
23.7 0.7 0
24 0.7 0
24.3 0.7 0
24.6 0.7 0
24.9 0.7 0
25.2 0.7 0
25.5 0.7 0
25.8 0.7 0
26.1 0.7 0
26.4 0.7 0
26.7 0.7 0
27 0.7 0
27.3 0.7 0
27.6 0.7 0
27.9 0.7 0
28.2 0.7 0
28.5 0.7 0
28.8 0.7 0
29.1 0.7 0
29.4 0.7 0
29.7 0.7 0
30 0.7 0
30.3 0.7 0
0 0.8 0
0.3 0.8 0
0.6 0.8 0
0.9 0.8 0
1.2 0.8 0
1.5 0.8 0
1.8 0.8 0
2.1 0.8 0
2.4 0.8 0
2.7 0.8 0
3 0.8 0
3.3 0.8 0
3.6 0.8 0
3.9 0.8 0
4.2 0.8 0
4.5 0.8 0
4.8 0.8 0
5.1 0.8 0
5.4 0.8 0
5.7 0.8 0
6 0.8 0
6.3 0.8 0
6.6 0.8 0
6.9 0.8 0
7.2 0.8 0
7.5 0.8 0
7.8 0.8 0
8.1 0.8 0
8.4 0.8 0
8.7 0.8 0
9 0.8 0
9.3 0.8 0
9.6 0.8 0
9.9 0.8 0
10.2 0.8 0
10.5 0.8 0
10.8 0.8 0
11.1 0.8 0
11.4 0.8 0
11.7 0.8 0
12 0.8 0
12.3 0.8 0
12.6 0.8 0
12.9 0.8 0
13.2 0.8 0
13.5 0.8 0
13.8 0.8 0
14.1 0.8 0
14.4 0.8 0
14.7 0.8 0
15 0.8 0
15.3 0.8 0
15.6 0.8 0
15.9 0.8 0
16.2 0.8 0
16.5 0.8 0
16.8 0.8 0
17.1 0.8 0
17.4 0.8 0
17.7 0.8 0
18 0.8 0
18.3 0.8 0
18.6 0.8 0
18.9 0.8 0
19.2 0.8 0
19.5 0.8 0
19.8 0.8 0
20.1 0.8 0
20.4 0.8 0
20.7 0.8 0
21 0.8 0
21.3 0.8 0
21.6 0.8 0
21.9 0.8 0
22.2 0.8 0
22.5 0.8 0
22.8 0.8 0
23.1 0.8 0
23.4 0.8 0
23.7 0.8 0
24 0.8 0
24.3 0.8 0
24.6 0.8 0
24.9 0.8 0
25.2 0.8 0
25.5 0.8 0
25.8 0.8 0
26.1 0.8 0
26.4 0.8 0
26.7 0.8 0
27 0.8 0
27.3 0.8 0
27.6 0.8 0
27.9 0.8 0
28.2 0.8 0
28.5 0.8 0
28.8 0.8 0
29.1 0.8 0
29.4 0.8 0
29.7 0.8 0
30 0.8 0
30.3 0.8 0
0 0.9 0
0.3 0.9 0
0.6 0.9 0
0.9 0.9 0
1.2 0.9 0
1.5 0.9 0
1.8 0.9 0
2.1 0.9 0
2.4 0.9 0
2.7 0.9 0
3 0.9 0
3.3 0.9 0
3.6 0.9 0
3.9 0.9 0
4.2 0.9 0
4.5 0.9 0
4.8 0.9 0
5.1 0.9 0
5.4 0.9 0
5.7 0.9 0
6 0.9 0
6.3 0.9 0
6.6 0.9 0
6.9 0.9 0
7.2 0.9 0
7.5 0.9 0
7.8 0.9 0
8.1 0.9 0
8.4 0.9 0
8.7 0.9 0
9 0.9 0
9.3 0.9 0
9.6 0.9 0
9.9 0.9 0
10.2 0.9 0
10.5 0.9 0
10.8 0.9 0
11.1 0.9 0
11.4 0.9 0
11.7 0.9 0
12 0.9 0
12.3 0.9 0
12.6 0.9 0
12.9 0.9 0
13.2 0.9 0
13.5 0.9 0
13.8 0.9 0
14.1 0.9 0
14.4 0.9 0
14.7 0.9 0
15 0.9 0
15.3 0.9 0
15.6 0.9 0
15.9 0.9 0
16.2 0.9 0
16.5 0.9 0
16.8 0.9 0
17.1 0.9 0
17.4 0.9 0
17.7 0.9 0
18 0.9 0
18.3 0.9 0
18.6 0.9 0
18.9 0.9 0
19.2 0.9 0
19.5 0.9 0
19.8 0.9 0
20.1 0.9 0
20.4 0.9 0
20.7 0.9 0
21 0.9 0
21.3 0.9 0
21.6 0.9 0
21.9 0.9 0
22.2 0.9 0
22.5 0.9 0
22.8 0.9 0
23.1 0.9 0
23.4 0.9 0
23.7 0.9 0
24 0.9 0
24.3 0.9 0
24.6 0.9 0
24.9 0.9 0
25.2 0.9 0
25.5 0.9 0
25.8 0.9 0
26.1 0.9 0
26.4 0.9 0
26.7 0.9 0
27 0.9 0
27.3 0.9 0
27.6 0.9 0
27.9 0.9 0
28.2 0.9 0
28.5 0.9 0
28.8 0.9 0
29.1 0.9 0
29.4 0.9 0
29.7 0.9 0
30 0.9 0
30.3 0.9 0
0 1 0
0.3 1 0
0.6 1 0
0.9 1 0
1.2 1 0
1.5 1 0
1.8 1 0
2.1 1 0
2.4 1 0
2.7 1 0
3 1 0
3.3 1 0
3.6 1 0
3.9 1 0
4.2 1 0
4.5 1 0
4.8 1 0
5.1 1 0
5.4 1 0
5.7 1 0
6 1 0
6.3 1 0
6.6 1 0
6.9 1 0
7.2 1 0
7.5 1 0
7.8 1 0
8.1 1 0
8.4 1 0
8.7 1 0
9 1 0
9.3 1 0
9.6 1 0
9.9 1 0
10.2 1 0
10.5 1 0
10.8 1 0
11.1 1 0
11.4 1 0
11.7 1 0
12 1 0
12.3 1 0
12.6 1 0
12.9 1 0
13.2 1 0
13.5 1 0
13.8 1 0
14.1 1 0
14.4 1 0
14.7 1 0
15 1 0
15.3 1 0
15.6 1 0
15.9 1 0
16.2 1 0
16.5 1 0
16.8 1 0
17.1 1 0
17.4 1 0
17.7 1 0
18 1 0
18.3 1 0
18.6 1 0
18.9 1 0
19.2 1 0
19.5 1 0
19.8 1 0
20.1 1 0
20.4 1 0
20.7 1 0
21 1 0
21.3 1 0
21.6 1 0
21.9 1 0
22.2 1 0
22.5 1 0
22.8 1 0
23.1 1 0
23.4 1 0
23.7 1 0
24 1 0
24.3 1 0
24.6 1 0
24.9 1 0
25.2 1 0
25.5 1 0
25.8 1 0
26.1 1 0
26.4 1 0
26.7 1 0
27 1 0
27.3 1 0
27.6 1 0
27.9 1 0
28.2 1 0
28.5 1 0
28.8 1 0
29.1 1 0
29.4 1 0
29.7 1 0
30 1 0
30.3 1 0
0 1.1 0
0.3 1.1 0
0.6 1.1 0
0.9 1.1 0
1.2 1.1 0
1.5 1.1 0
1.8 1.1 0
2.1 1.1 0
2.4 1.1 0
2.7 1.1 0
3 1.1 0
3.3 1.1 0
3.6 1.1 0
3.9 1.1 0
4.2 1.1 0
4.5 1.1 0
4.8 1.1 0
5.1 1.1 0
5.4 1.1 0
5.7 1.1 0
6 1.1 0
6.3 1.1 0
6.6 1.1 0
6.9 1.1 0
7.2 1.1 0
7.5 1.1 0
7.8 1.1 0
8.1 1.1 0
8.4 1.1 0
8.7 1.1 0
9 1.1 0
9.3 1.1 0
9.6 1.1 0
9.9 1.1 0
10.2 1.1 0
10.5 1.1 0
10.8 1.1 0
11.1 1.1 0
11.4 1.1 0
11.7 1.1 0
12 1.1 0
12.3 1.1 0
12.6 1.1 0
12.9 1.1 0
13.2 1.1 0
13.5 1.1 0
13.8 1.1 0
14.1 1.1 0
14.4 1.1 0
14.7 1.1 0
15 1.1 0
15.3 1.1 0
15.6 1.1 0
15.9 1.1 0
16.2 1.1 0
16.5 1.1 0
16.8 1.1 0
17.1 1.1 0
17.4 1.1 0
17.7 1.1 0
18 1.1 0
18.3 1.1 0
18.6 1.1 0
18.9 1.1 0
19.2 1.1 0
19.5 1.1 0
19.8 1.1 0
20.1 1.1 0
20.4 1.1 0
20.7 1.1 0
21 1.1 0
21.3 1.1 0
21.6 1.1 0
21.9 1.1 0
22.2 1.1 0
22.5 1.1 0
22.8 1.1 0
23.1 1.1 0
23.4 1.1 0
23.7 1.1 0
24 1.1 0
24.3 1.1 0
24.6 1.1 0
24.9 1.1 0
25.2 1.1 0
25.5 1.1 0
25.8 1.1 0
26.1 1.1 0
26.4 1.1 0
26.7 1.1 0
27 1.1 0
27.3 1.1 0
27.6 1.1 0
27.9 1.1 0
28.2 1.1 0
28.5 1.1 0
28.8 1.1 0
29.1 1.1 0
29.4 1.1 0
29.7 1.1 0
30 1.1 0
30.3 1.1 0

POINT_DATA 1224

SCALARS pressure double
LOOKUP_TABLE pressure
1.31579
1.31579
1.24928
1.2022
1.15924
1.11959
1.08357
1.05118
1.02208
0.995743
0.971633
0.94928
0.928307
0.908426
0.88942
0.87113
0.853439
0.836257
0.819518
0.803168
0.787165
0.771473
0.756063
0.74091
0.725993
0.711292
0.69679
0.682472
0.668323
0.654332
0.640488
0.626779
0.613196
0.59973
0.586374
0.573121
0.559962
0.546892
0.533905
0.520995
0.508158
0.495389
0.482683
0.470037
0.457445
0.444906
0.432415
0.41997
0.407567
0.395204
0.382879
0.37059
0.358334
0.346111
0.333918
0.321754
0.309618
0.297509
0.285426
0.273367
0.261332
0.24932
0.237328
0.225356
0.213402
0.201464
0.189542
0.177633
0.165737
0.15385
0.141973
0.130104
0.118241
0.106383
0.0945299
0.0826804
0.0708337
0.0589894
0.0471468
0.0353056
0.0234654
0.0116261
-0.000212699
-0.012051
-0.0238891
-0.0357268
-0.0475645
-0.059402
-0.0712395
-0.0830769
-0.0949143
-0.106752
-0.118589
-0.130426
-0.142264
-0.154101
-0.165938
-0.177775
-0.189613
-0.20145
-0.213285
0.213285
1.31579
1.31579
1.24928
1.2022
1.15924
1.11959
1.08357
1.05118
1.02208
0.995743
0.971633
0.94928
0.928307
0.908426
0.88942
0.87113
0.853439
0.836257
0.819518
0.803168
0.787165
0.771473
0.756063
0.74091
0.725993
0.711292
0.69679
0.682472
0.668323
0.654332
0.640488
0.626779
0.613196
0.59973
0.586374
0.573121
0.559962
0.546892
0.533905
0.520995
0.508158
0.495389
0.482683
0.470037
0.457445
0.444906
0.432415
0.41997
0.407567
0.395204
0.382879
0.37059
0.358334
0.346111
0.333918
0.321754
0.309618
0.297509
0.285426
0.273367
0.261332
0.24932
0.237328
0.225356
0.213402
0.201464
0.189542
0.177633
0.165737
0.15385
0.141973
0.130104
0.118241
0.106383
0.0945299
0.0826804
0.0708337
0.0589894
0.0471468
0.0353056
0.0234654
0.0116261
-0.000212699
-0.012051
-0.0238891
-0.0357268
-0.0475645
-0.059402
-0.0712395
-0.0830769
-0.0949143
-0.106752
-0.118589
-0.130426
-0.142264
-0.154101
-0.165938
-0.177775
-0.189613
-0.20145
-0.213285
0.213285
1.29514
1.29514
1.24748
1.20251
1.15996
1.12036
1.08427
1.05177
1.02255
0.996113
0.971918
0.949501
0.92848
0.908563
0.889531
0.871222
0.853516
0.836324
0.819576
0.803219
0.78721
0.771513
0.756099
0.740943
0.726023
0.711319
0.696815
0.682494
0.668344
0.654352
0.640505
0.626795
0.613211
0.599744
0.586387
0.573133
0.559973
0.546902
0.533915
0.521004
0.508167
0.495397
0.482691
0.470043
0.457452
0.444912
0.432421
0.419975
0.407572
0.395209
0.382884
0.370594
0.358338
0.346114
0.333921
0.321757
0.30962
0.297511
0.285428
0.273369
0.261334
0.249321
0.237329
0.225356
0.213402
0.201465
0.189542
0.177634
0.165737
0.15385
0.141973
0.130104
0.118241
0.106383
0.0945299
0.0826804
0.0708337
0.0589893
0.0471468
0.0353056
0.0234654
0.0116261
-0.00021271
-0.012051
-0.0238891
-0.0357269
-0.0475645
-0.059402
-0.0712395
-0.0830769
-0.0949144
-0.106752
-0.118589
-0.130426
-0.142264
-0.154101
-0.165938
-0.177775
-0.189613
-0.20145
-0.213285
0.213285
1.28075
1.28075
1.24497
1.2029
1.16109
1.12162
1.08544
1.05276
1.02334
0.996719
0.972375
0.949842
0.928736
0.908757
0.889681
0.87134
0.853612
0.836402
0.819642
0.803275
0.787258
0.771555
0.756136
0.740976
0.726052
0.711346
0.696839
0.682516
0.668364
0.654369
0.640522
0.62681
0.613224
0.599757
0.586399
0.573143
0.559983
0.546911
0.533923
0.521012
0.508174
0.495404
0.482697
0.470049
0.457457
0.444917
0.432425
0.419979
0.407576
0.395213
0.382887
0.370597
0.358341
0.346117
0.333923
0.321759
0.309622
0.297513
0.285429
0.27337
0.261335
0.249322
0.23733
0.225357
0.213403
0.201465
0.189543
0.177634
0.165737
0.153851
0.141973
0.130104
0.118241
0.106383
0.0945299
0.0826804
0.0708337
0.0589893
0.0471467
0.0353055
0.0234654
0.011626
-0.000212717
-0.0120511
-0.0238891
-0.0357269
-0.0475645
-0.059402
-0.0712395
-0.083077
-0.0949144
-0.106752
-0.118589
-0.130426
-0.142264
-0.154101
-0.165938
-0.177775
-0.189613
-0.201449
-0.213285
0.213285
1.27206
1.27206
1.24296
1.20316
1.16202
1.1227
1.08647
1.05366
1.02408
0.997298
0.972823
0.950187
0.929002
0.908965
0.889846
0.871474
0.853721
0.836494
0.81972
0.803342
0.787316
0.771606
0.756181
0.741016
0.726088
0.711377
0.696867
0.682542
0.668387
0.654391
0.640541
0.626827
0.613241
0.599772
0.586412
0.573156
0.559994
0.546922
0.533933
0.521021
0.508182
0.495411
0.482704
0.470056
0.457463
0.444923
0.432431
0.419984
0.407581
0.395217
0.382891
0.370601
0.358345
0.34612
0.333926
0.321762
0.309625
0.297516
0.285432
0.273373
0.261337
0.249324
0.237331
0.225359
0.213404
0.201466
0.189544
0.177635
0.165738
0.153851
0.141974
0.130104
0.118241
0.106383
0.0945301
0.0826805
0.0708338
0.0589894
0.0471468
0.0353056
0.0234654
0.0116261
-0.000212696
-0.012051
-0.0238891
-0.0357269
-0.0475645
-0.059402
-0.0712395
-0.083077
-0.0949144
-0.106752
-0.118589
-0.130426
-0.142264
-0.154101
-0.165938
-0.177775
-0.189612
-0.201448
-0.213284
0.213284
1.26798
1.26798
1.24188
1.20328
1.16251
1.12329
1.08704
1.05416
1.02449
0.997633
0.973087
0.950394
0.929165
0.909095
0.889952
0.871561
0.853794
0.836556
0.819773
0.803389
0.787357
0.771643
0.756214
0.741045
0.726114
0.711401
0.696889
0.682561
0.668405
0.654407
0.640556
0.626841
0.613253
0.599783
0.586423
0.573165
0.560003
0.54693
0.53394
0.521028
0.508189
0.495417
0.48271
0.470061
0.457468
0.444927
0.432435
0.419988
0.407584
0.39522
0.382894
0.370604
0.358347
0.346123
0.333929
0.321764
0.309628
0.297518
0.285434
0.273374
0.261339
0.249325
0.237333
0.22536
0.213405
0.201468
0.189545
0.177636
0.165738
0.153852
0.141974
0.130105
0.118241
0.106384
0.0945304
0.0826807
0.070834
0.0589896
0.0471469
0.0353057
0.0234655
0.0116261
-0.000212665
-0.012051
-0.023889
-0.0357268
-0.0475645
-0.059402
-0.0712395
-0.083077
-0.0949143
-0.106752
-0.118589
-0.130426
-0.142264
-0.154101
-0.165938
-0.177775
-0.189612
-0.201447
-0.213284
0.213284
1.26798
1.26798
1.24188
1.20328
1.16251
1.12329
1.08704
1.05416
1.02449
0.997633
0.973087
0.950394
0.929165
0.909095
0.889952
0.871561
0.853794
0.836556
0.819773
0.803389
0.787357
0.771643
0.756214
0.741045
0.726114
0.711401
0.696889
0.682561
0.668405
0.654407
0.640556
0.626841
0.613253
0.599783
0.586423
0.573165
0.560003
0.54693
0.53394
0.521028
0.508189
0.495417
0.48271
0.470061
0.457468
0.444927
0.432435
0.419988
0.407584
0.39522
0.382894
0.370604
0.358347
0.346123
0.333929
0.321764
0.309628
0.297518
0.285434
0.273374
0.261339
0.249325
0.237333
0.22536
0.213405
0.201468
0.189545
0.177636
0.165738
0.153852
0.141974
0.130105
0.118241
0.106384
0.0945304
0.0826807
0.070834
0.0589896
0.0471469
0.0353057
0.0234655
0.0116261
-0.000212663
-0.012051
-0.023889
-0.0357268
-0.0475645
-0.059402
-0.0712395
-0.083077
-0.0949143
-0.106752
-0.118589
-0.130426
-0.142264
-0.154101
-0.165938
-0.177775
-0.189612
-0.201447
-0.213284
0.213284
1.27206
1.27206
1.24296
1.20316
1.16202
1.1227
1.08647
1.05366
1.02408
0.997298
0.972823
0.950187
0.929002
0.908965
0.889846
0.871474
0.853721
0.836494
0.81972
0.803342
0.787316
0.771606
0.756181
0.741016
0.726088
0.711377
0.696867
0.682542
0.668387
0.654391
0.640541
0.626827
0.613241
0.599772
0.586412
0.573156
0.559994
0.546922
0.533933
0.521021
0.508182
0.495411
0.482704
0.470056
0.457463
0.444923
0.432431
0.419984
0.407581
0.395217
0.382891
0.370601
0.358345
0.34612
0.333926
0.321762
0.309625
0.297516
0.285432
0.273373
0.261337
0.249324
0.237331
0.225359
0.213404
0.201466
0.189544
0.177635
0.165738
0.153851
0.141974
0.130104
0.118241
0.106383
0.0945301
0.0826805
0.0708338
0.0589894
0.0471468
0.0353056
0.0234654
0.0116261
-0.00021269
-0.012051
-0.0238891
-0.0357269
-0.0475645
-0.059402
-0.0712395
-0.083077
-0.0949143
-0.106752
-0.118589
-0.130426
-0.142264
-0.154101
-0.165938
-0.177775
-0.189612
-0.201448
-0.213284
0.213284
1.28075
1.28075
1.24497
1.2029
1.16109
1.12162
1.08544
1.05276
1.02334
0.996719
0.972375
0.949842
0.928736
0.908757
0.889681
0.87134
0.853612
0.836402
0.819642
0.803275
0.787258
0.771555
0.756136
0.740976
0.726052
0.711346
0.696839
0.682516
0.668364
0.654369
0.640522
0.62681
0.613224
0.599757
0.586399
0.573143
0.559983
0.546911
0.533923
0.521012
0.508174
0.495404
0.482697
0.470049
0.457457
0.444917
0.432425
0.419979
0.407576
0.395213
0.382887
0.370597
0.358341
0.346117
0.333923
0.321759
0.309622
0.297513
0.285429
0.27337
0.261335
0.249322
0.23733
0.225357
0.213403
0.201465
0.189543
0.177634
0.165737
0.153851
0.141973
0.130104
0.118241
0.106383
0.0945299
0.0826803
0.0708337
0.0589893
0.0471468
0.0353056
0.0234654
0.0116261
-0.000212708
-0.012051
-0.0238891
-0.0357269
-0.0475645
-0.0594021
-0.0712395
-0.083077
-0.0949143
-0.106752
-0.118589
-0.130426
-0.142264
-0.154101
-0.165938
-0.177775
-0.189613
-0.201449
-0.213285
0.213285
1.29514
1.29514
1.24748
1.20251
1.15996
1.12036
1.08427
1.05177
1.02255
0.996113
0.971918
0.949501
0.92848
0.908563
0.889531
0.871222
0.853516
0.836324
0.819576
0.803219
0.78721
0.771513
0.756099
0.740943
0.726023
0.711319
0.696815
0.682494
0.668344
0.654352
0.640505
0.626795
0.613211
0.599744
0.586387
0.573133
0.559973
0.546902
0.533915
0.521004
0.508167
0.495397
0.482691
0.470043
0.457452
0.444912
0.432421
0.419975
0.407572
0.395209
0.382884
0.370594
0.358338
0.346114
0.333921
0.321757
0.30962
0.297511
0.285428
0.273369
0.261334
0.249321
0.237329
0.225356
0.213402
0.201465
0.189542
0.177634
0.165737
0.15385
0.141973
0.130104
0.118241
0.106383
0.0945299
0.0826804
0.0708337
0.0589893
0.0471468
0.0353056
0.0234654
0.0116261
-0.000212699
-0.012051
-0.0238891
-0.0357269
-0.0475645
-0.0594021
-0.0712395
-0.083077
-0.0949143
-0.106752
-0.118589
-0.130426
-0.142264
-0.154101
-0.165938
-0.177775
-0.189613
-0.20145
-0.213285
0.213285
1.31579
1.31579
1.24928
1.2022
1.15924
1.11959
1.08357
1.05118
1.02208
0.995743
0.971633
0.94928
0.928307
0.908426
0.88942
0.87113
0.853439
0.836257
0.819518
0.803168
0.787165
0.771473
0.756063
0.74091
0.725993
0.711292
0.69679
0.682472
0.668323
0.654332
0.640488
0.626779
0.613196
0.59973
0.586374
0.573121
0.559962
0.546892
0.533905
0.520995
0.508158
0.495389
0.482683
0.470037
0.457445
0.444906
0.432415
0.41997
0.407567
0.395204
0.382879
0.37059
0.358334
0.346111
0.333918
0.321754
0.309618
0.297509
0.285426
0.273367
0.261332
0.24932
0.237328
0.225356
0.213402
0.201464
0.189542
0.177633
0.165737
0.15385
0.141973
0.130104
0.118241
0.106383
0.0945299
0.0826804
0.0708337
0.0589894
0.0471468
0.0353056
0.0234654
0.0116261
-0.000212687
-0.012051
-0.023889
-0.0357269
-0.0475645
-0.0594021
-0.0712395
-0.083077
-0.0949143
-0.106752
-0.118589
-0.130426
-0.142264
-0.154101
-0.165938
-0.177775
-0.189613
-0.20145
-0.213285
0.213285
1.31579
1.31579
1.24928
1.2022
1.15924
1.11959
1.08357
1.05118
1.02208
0.995743
0.971633
0.94928
0.928307
0.908426
0.88942
0.87113
0.853439
0.836257
0.819518
0.803168
0.787165
0.771473
0.756063
0.74091
0.725993
0.711292
0.69679
0.682472
0.668323
0.654332
0.640488
0.626779
0.613196
0.59973
0.586374
0.573121
0.559962
0.546892
0.533905
0.520995
0.508158
0.495389
0.482683
0.470037
0.457445
0.444906
0.432415
0.41997
0.407567
0.395204
0.382879
0.37059
0.358334
0.346111
0.333918
0.321754
0.309618
0.297509
0.285426
0.273367
0.261332
0.24932
0.237328
0.225356
0.213402
0.201464
0.189542
0.177633
0.165737
0.15385
0.141973
0.130104
0.118241
0.106383
0.0945299
0.0826804
0.0708337
0.0589894
0.0471468
0.0353056
0.0234654
0.0116261
-0.000212687
-0.012051
-0.023889
-0.0357269
-0.0475645
-0.0594021
-0.0712395
-0.083077
-0.0949143
-0.106752
-0.118589
-0.130426
-0.142264
-0.154101
-0.165938
-0.177775
-0.189613
-0.20145
-0.213285
0.213285
SCALARS phi double
LOOKUP_TABLE phi
1
1
1
0.999995
0.999977
0.999931
0.999833
0.999654
0.999363
0.998928
0.998322
0.997522
0.996512
0.995278
0.993814
0.992116
0.990185
0.988031
0.985669
0.983104
0.980292
0.977115
0.973355
0.968715
0.962854
0.955438
0.946185
0.934896
0.921467
0.905882
0.888201
0.868547
0.847084
0.824009
0.799535
0.773885
0.747283
0.719949
0.69209
0.663903
0.635567
0.607244
0.579081
0.551203
0.523722
0.496732
0.470311
0.444525
0.419426
0.395055
0.371443
0.348613
0.32658
0.305352
0.284933
0.265322
0.246515
0.228504
0.211281
0.194836
0.179158
0.164237
0.150063
0.136625
0.123915
0.111925
0.100647
0.0900738
0.0801993
0.0710166
0.0625178
0.0546937
0.047533
0.0410216
0.035142
0.0298729
0.0251891
0.0210614
0.0174566
0.0143384
0.0116679
0.00940414
0.00750559
0.0059306
0.00463851
0.00359051
0.00275023
0.00208432
0.00156279
0.00115916
0.000850473
0.000617211
0.000443044
0.000314551
0.000220882
0.000153412
0.000105385
7.16173e-05
4.80776e-05
3.22341e-05
1.9847e-05
1.9847e-05
1
1
1
0.999995
0.999977
0.999931
0.999833
0.999654
0.999363
0.998928
0.998322
0.997522
0.996512
0.995278
0.993814
0.992116
0.990185
0.988031
0.985669
0.983104
0.980292
0.977115
0.973355
0.968715
0.962854
0.955438
0.946185
0.934896
0.921467
0.905882
0.888201
0.868547
0.847084
0.824009
0.799535
0.773885
0.747283
0.719949
0.69209
0.663903
0.635567
0.607244
0.579081
0.551203
0.523722
0.496732
0.470311
0.444525
0.419426
0.395055
0.371443
0.348613
0.32658
0.305352
0.284933
0.265322
0.246515
0.228504
0.211281
0.194836
0.179158
0.164237
0.150063
0.136625
0.123915
0.111925
0.100647
0.0900738
0.0801993
0.0710166
0.0625178
0.0546937
0.047533
0.0410216
0.035142
0.0298729
0.0251891
0.0210614
0.0174566
0.0143384
0.0116679
0.00940414
0.00750559
0.0059306
0.00463851
0.00359051
0.00275023
0.00208432
0.00156279
0.00115916
0.000850473
0.000617211
0.000443044
0.000314551
0.000220882
0.000153412
0.000105385
7.16173e-05
4.80776e-05
3.22341e-05
1.9847e-05
1.9847e-05
0.999998
1
0.999984
0.999921
0.999783
0.999536
0.999146
0.99858
0.997811
0.996819
0.995589
0.994116
0.992397
0.990436
0.98824
0.985816
0.983176
0.980331
0.977297
0.974089
0.970716
0.967168
0.963404
0.959336
0.954838
0.949741
0.943861
0.937007
0.929008
0.919719
0.909033
0.896888
0.883261
0.868169
0.851665
0.833827
0.81476
0.794583
0.773428
0.751435
0.728743
0.705492
0.681819
0.657851
0.633711
0.60951
0.585351
0.561326
0.537518
0.513998
0.490829
0.468065
0.44575
0.423918
0.4026
0.381814
0.361577
0.341894
0.32277
0.304202
0.286184
0.268708
0.251763
0.235335
0.219414
0.203986
0.189044
0.174581
0.160596
0.147094
0.134084
0.121585
0.109619
0.098215
0.0874039
0.0772197
0.0676947
0.0588579
0.050732
0.0433315
0.0366607
0.0307126
0.025469
0.0209008
0.0169693
0.0136274
0.0108228
0.008499
0.00659855
0.00506449
0.00384236
0.00288144
0.00213578
0.0015647
0.001133
0.000810887
0.000573611
0.000401169
0.000276907
0.000190999
0.000120523
0.000120523
1.00001
0.999992
0.99954
0.998615
0.997207
0.995316
0.992954
0.990144
0.986922
0.983331
0.979421
0.975241
0.970836
0.966247
0.961513
0.956664
0.951728
0.946727
0.941682
0.936608
0.931522
0.926431
0.921339
0.916238
0.911105
0.905901
0.900569
0.895037
0.88922
0.883028
0.876368
0.869153
0.861301
0.852744
0.843427
0.833312
0.822375
0.810609
0.798023
0.784637
0.770486
0.755613
0.74007
0.723916
0.707213
0.690028
0.672428
0.654481
0.636253
0.617809
0.599211
0.580517
0.561783
0.543057
0.524385
0.505806
0.487354
0.469056
0.450933
0.433001
0.415267
0.397733
0.380395
0.363242
0.346258
0.329421
0.312707
0.296089
0.279543
0.263046
0.246587
0.230164
0.213792
0.197503
0.181352
0.165411
0.149773
0.134545
0.119844
0.10579
0.0924985
0.0800726
0.0685982
0.0581384
0.04873
0.0403824
0.0330789
0.0267788
0.0214212
0.0169301
0.013219
0.010196
0.00776865
0.00584699
0.00434703
0.00319255
0.00231612
0.00166041
0.00117394
0.000829589
0.000535803
0.000535803
1.00143
0.99857
0.991252
0.98188
0.971566
0.96086
0.950051
0.939311
0.928756
0.918467
0.908503
0.898898
0.889671
0.880827
0.87236
0.864261
0.856512
0.849097
0.841997
0.835192
0.828664
0.822396
0.81637
0.810568
0.804971
0.799559
0.794306
0.789183
0.784156
0.779184
0.774225
0.769229
0.764146
0.758927
0.753519
0.747874
0.741946
0.735693
0.72908
0.722074
0.714653
0.706796
0.698494
0.68974
0.680534
0.670882
0.660795
0.650287
0.639377
0.628088
0.616442
0.604467
0.59219
0.579638
0.56684
0.553824
0.540614
0.527236
0.513711
0.500056
0.486286
0.47241
0.45843
0.444342
0.430134
0.415784
0.401262
0.386526
0.371526
0.356206
0.340507
0.324375
0.307764
0.290649
0.273031
0.254944
0.236463
0.2177
0.19881
0.179976
0.161409
0.143327
0.125951
0.109484
0.0941043
0.0799518
0.0671253
0.055678
0.0456183
0.0369139
0.0294979
0.023276
0.0181352
0.0139517
0.010598
0.00794913
0.00588724
0.004307
0.00310577
0.00223869
0.00147488
0.00147488
1.0456
0.954401
0.887723
0.838674
0.801641
0.772861
0.749886
0.731119
0.715499
0.702298
0.691001
0.681228
0.672693
0.665173
0.658493
0.652515
0.647126
0.642236
0.637772
0.633674
0.629891
0.626383
0.623115
0.620059
0.61719
0.614487
0.611929
0.6095
0.607181
0.604955
0.602802
0.600703
0.598637
0.596582
0.594513
0.592407
0.590236
0.587976
0.585601
0.583084
0.580401
0.577528
0.574444
0.571127
0.56756
0.563727
0.559614
0.55521
0.550506
0.545496
0.540175
0.534542
0.528596
0.52234
0.515777
0.508912
0.501751
0.4943
0.486566
0.478554
0.470269
0.461713
0.452886
0.44378
0.434384
0.424673
0.414616
0.404165
0.393258
0.38182
0.369763
0.356994
0.343418
0.328955
0.313542
0.297157
0.279817
0.261596
0.242625
0.223086
0.203214
0.183278
0.16357
0.144384
0.126
0.108668
0.0925935
0.0779286
0.0647687
0.053152
0.0430638
0.0344438
0.0271953
0.0211962
0.016308
0.0123863
0.00928692
0.00687673
0.00501747
0.0036596
0.00244022
0.00244022
-0.0455988
0.0455988
0.112277
0.161327
0.198359
0.227139
0.250114
0.268881
0.284502
0.297702
0.308999
0.318772
0.327307
0.334827
0.341507
0.347485
0.352874
0.357764
0.362228
0.366327
0.37011
0.373618
0.376885
0.379941
0.38281
0.385511
0.388063
0.39048
0.392775
0.394957
0.397034
0.399014
0.400899
0.402694
0.404397
0.406009
0.407526
0.408944
0.410256
0.411456
0.412534
0.413481
0.414286
0.414938
0.415424
0.415731
0.415849
0.415763
0.415462
0.414933
0.414166
0.413148
0.41187
0.410323
0.408499
0.406388
0.403986