# vtk DataFile Version 3.0
FlowField
ASCII
DATASET STRUCTURED_GRID
DIMENSIONS 102 12 1 
POINTS 1224 double
0 0 0
0.3 0 0
0.6 0 0
0.9 0 0
1.2 0 0
1.5 0 0
1.8 0 0
2.1 0 0
2.4 0 0
2.7 0 0
3 0 0
3.3 0 0
3.6 0 0
3.9 0 0
4.2 0 0
4.5 0 0
4.8 0 0
5.1 0 0
5.4 0 0
5.7 0 0
6 0 0
6.3 0 0
6.6 0 0
6.9 0 0
7.2 0 0
7.5 0 0
7.8 0 0
8.1 0 0
8.4 0 0
8.7 0 0
9 0 0
9.3 0 0
9.6 0 0
9.9 0 0
10.2 0 0
10.5 0 0
10.8 0 0
11.1 0 0
11.4 0 0
11.7 0 0
12 0 0
12.3 0 0
12.6 0 0
12.9 0 0
13.2 0 0
13.5 0 0
13.8 0 0
14.1 0 0
14.4 0 0
14.7 0 0
15 0 0
15.3 0 0
15.6 0 0
15.9 0 0
16.2 0 0
16.5 0 0
16.8 0 0
17.1 0 0
17.4 0 0
17.7 0 0
18 0 0
18.3 0 0
18.6 0 0
18.9 0 0
19.2 0 0
19.5 0 0
19.8 0 0
20.1 0 0
20.4 0 0
20.7 0 0
21 0 0
21.3 0 0
21.6 0 0
21.9 0 0
22.2 0 0
22.5 0 0
22.8 0 0
23.1 0 0
23.4 0 0
23.7 0 0
24 0 0
24.3 0 0
24.6 0 0
24.9 0 0
25.2 0 0
25.5 0 0
25.8 0 0
26.1 0 0
26.4 0 0
26.7 0 0
27 0 0
27.3 0 0
27.6 0 0
27.9 0 0
28.2 0 0
28.5 0 0
28.8 0 0
29.1 0 0
29.4 0 0
29.7 0 0
30 0 0
30.3 0 0
0 0.1 0
0.3 0.1 0
0.6 0.1 0
0.9 0.1 0
1.2 0.1 0
1.5 0.1 0
1.8 0.1 0
2.1 0.1 0
2.4 0.1 0
2.7 0.1 0
3 0.1 0
3.3 0.1 0
3.6 0.1 0
3.9 0.1 0
4.2 0.1 0
4.5 0.1 0
4.8 0.1 0
5.1 0.1 0
5.4 0.1 0
5.7 0.1 0
6 0.1 0
6.3 0.1 0
6.6 0.1 0
6.9 0.1 0
7.2 0.1 0
7.5 0.1 0
7.8 0.1 0
8.1 0.1 0
8.4 0.1 0
8.7 0.1 0
9 0.1 0
9.3 0.1 0
9.6 0.1 0
9.9 0.1 0
10.2 0.1 0
10.5 0.1 0
10.8 0.1 0
11.1 0.1 0
11.4 0.1 0
11.7 0.1 0
12 0.1 0
12.3 0.1 0
12.6 0.1 0
12.9 0.1 0
13.2 0.1 0
13.5 0.1 0
13.8 0.1 0
14.1 0.1 0
14.4 0.1 0
14.7 0.1 0
15 0.1 0
15.3 0.1 0
15.6 0.1 0
15.9 0.1 0
16.2 0.1 0
16.5 0.1 0
16.8 0.1 0
17.1 0.1 0
17.4 0.1 0
17.7 0.1 0
18 0.1 0
18.3 0.1 0
18.6 0.1 0
18.9 0.1 0
19.2 0.1 0
19.5 0.1 0
19.8 0.1 0
20.1 0.1 0
20.4 0.1 0
20.7 0.1 0
21 0.1 0
21.3 0.1 0
21.6 0.1 0
21.9 0.1 0
22.2 0.1 0
22.5 0.1 0
22.8 0.1 0
23.1 0.1 0
23.4 0.1 0
23.7 0.1 0
24 0.1 0
24.3 0.1 0
24.6 0.1 0
24.9 0.1 0
25.2 0.1 0
25.5 0.1 0
25.8 0.1 0
26.1 0.1 0
26.4 0.1 0
26.7 0.1 0
27 0.1 0
27.3 0.1 0
27.6 0.1 0
27.9 0.1 0
28.2 0.1 0
28.5 0.1 0
28.8 0.1 0
29.1 0.1 0
29.4 0.1 0
29.7 0.1 0
30 0.1 0
30.3 0.1 0
0 0.2 0
0.3 0.2 0
0.6 0.2 0
0.9 0.2 0
1.2 0.2 0
1.5 0.2 0
1.8 0.2 0
2.1 0.2 0
2.4 0.2 0
2.7 0.2 0
3 0.2 0
3.3 0.2 0
3.6 0.2 0
3.9 0.2 0
4.2 0.2 0
4.5 0.2 0
4.8 0.2 0
5.1 0.2 0
5.4 0.2 0
5.7 0.2 0
6 0.2 0
6.3 0.2 0
6.6 0.2 0
6.9 0.2 0
7.2 0.2 0
7.5 0.2 0
7.8 0.2 0
8.1 0.2 0
8.4 0.2 0
8.7 0.2 0
9 0.2 0
9.3 0.2 0
9.6 0.2 0
9.9 0.2 0
10.2 0.2 0
10.5 0.2 0
10.8 0.2 0
11.1 0.2 0
11.4 0.2 0
11.7 0.2 0
12 0.2 0
12.3 0.2 0
12.6 0.2 0
12.9 0.2 0
13.2 0.2 0
13.5 0.2 0
13.8 0.2 0
14.1 0.2 0
14.4 0.2 0
14.7 0.2 0
15 0.2 0
15.3 0.2 0
15.6 0.2 0
15.9 0.2 0
16.2 0.2 0
16.5 0.2 0
16.8 0.2 0
17.1 0.2 0
17.4 0.2 0
17.7 0.2 0
18 0.2 0
18.3 0.2 0
18.6 0.2 0
18.9 0.2 0
19.2 0.2 0
19.5 0.2 0
19.8 0.2 0
20.1 0.2 0
20.4 0.2 0
20.7 0.2 0
21 0.2 0
21.3 0.2 0
21.6 0.2 0
21.9 0.2 0
22.2 0.2 0
22.5 0.2 0
22.8 0.2 0
23.1 0.2 0
23.4 0.2 0
23.7 0.2 0
24 0.2 0
24.3 0.2 0
24.6 0.2 0
24.9 0.2 0
25.2 0.2 0
25.5 0.2 0
25.8 0.2 0
26.1 0.2 0
26.4 0.2 0
26.7 0.2 0
27 0.2 0
27.3 0.2 0
27.6 0.2 0
27.9 0.2 0
28.2 0.2 0
28.5 0.2 0
28.8 0.2 0
29.1 0.2 0
29.4 0.2 0
29.7 0.2 0
30 0.2 0
30.3 0.2 0
0 0.3 0
0.3 0.3 0
0.6 0.3 0
0.9 0.3 0
1.2 0.3 0
1.5 0.3 0
1.8 0.3 0
2.1 0.3 0
2.4 0.3 0
2.7 0.3 0
3 0.3 0
3.3 0.3 0
3.6 0.3 0
3.9 0.3 0
4.2 0.3 0
4.5 0.3 0
4.8 0.3 0
5.1 0.3 0
5.4 0.3 0
5.7 0.3 0
6 0.3 0
6.3 0.3 0
6.6 0.3 0
6.9 0.3 0
7.2 0.3 0
7.5 0.3 0
7.8 0.3 0
8.1 0.3 0
8.4 0.3 0
8.7 0.3 0
9 0.3 0
9.3 0.3 0
9.6 0.3 0
9.9 0.3 0
10.2 0.3 0
10.5 0.3 0
10.8 0.3 0
11.1 0.3 0
11.4 0.3 0
11.7 0.3 0
12 0.3 0
12.3 0.3 0
12.6 0.3 0
12.9 0.3 0
13.2 0.3 0
13.5 0.3 0
13.8 0.3 0
14.1 0.3 0
14.4 0.3 0
14.7 0.3 0
15 0.3 0
15.3 0.3 0
15.6 0.3 0
15.9 0.3 0
16.2 0.3 0
16.5 0.3 0
16.8 0.3 0
17.1 0.3 0
17.4 0.3 0
17.7 0.3 0
18 0.3 0
18.3 0.3 0
18.6 0.3 0
18.9 0.3 0
19.2 0.3 0
19.5 0.3 0
19.8 0.3 0
20.1 0.3 0
20.4 0.3 0
20.7 0.3 0
21 0.3 0
21.3 0.3 0
21.6 0.3 0
21.9 0.3 0
22.2 0.3 0
22.5 0.3 0
22.8 0.3 0
23.1 0.3 0
23.4 0.3 0
23.7 0.3 0
24 0.3 0
24.3 0.3 0
24.6 0.3 0
24.9 0.3 0
25.2 0.3 0
25.5 0.3 0
25.8 0.3 0
26.1 0.3 0
26.4 0.3 0
26.7 0.3 0
27 0.3 0
27.3 0.3 0
27.6 0.3 0
27.9 0.3 0
28.2 0.3 0
28.5 0.3 0
28.8 0.3 0
29.1 0.3 0
29.4 0.3 0
29.7 0.3 0
30 0.3 0
30.3 0.3 0
0 0.4 0
0.3 0.4 0
0.6 0.4 0
0.9 0.4 0
1.2 0.4 0
1.5 0.4 0
1.8 0.4 0
2.1 0.4 0
2.4 0.4 0
2.7 0.4 0
3 0.4 0
3.3 0.4 0
3.6 0.4 0
3.9 0.4 0
4.2 0.4 0
4.5 0.4 0
4.8 0.4 0
5.1 0.4 0
5.4 0.4 0
5.7 0.4 0
6 0.4 0
6.3 0.4 0
6.6 0.4 0
6.9 0.4 0
7.2 0.4 0
7.5 0.4 0
7.8 0.4 0
8.1 0.4 0
8.4 0.4 0
8.7 0.4 0
9 0.4 0
9.3 0.4 0
9.6 0.4 0
9.9 0.4 0
10.2 0.4 0
10.5 0.4 0
10.8 0.4 0
11.1 0.4 0
11.4 0.4 0
11.7 0.4 0
12 0.4 0
12.3 0.4 0
12.6 0.4 0
12.9 0.4 0
13.2 0.4 0
13.5 0.4 0
13.8 0.4 0
14.1 0.4 0
14.4 0.4 0
14.7 0.4 0
15 0.4 0
15.3 0.4 0
15.6 0.4 0
15.9 0.4 0
16.2 0.4 0
16.5 0.4 0
16.8 0.4 0
17.1 0.4 0
17.4 0.4 0
17.7 0.4 0
18 0.4 0
18.3 0.4 0
18.6 0.4 0
18.9 0.4 0
19.2 0.4 0
19.5 0.4 0
19.8 0.4 0
20.1 0.4 0
20.4 0.4 0
20.7 0.4 0
21 0.4 0
21.3 0.4 0
21.6 0.4 0
21.9 0.4 0
22.2 0.4 0
22.5 0.4 0
22.8 0.4 0
23.1 0.4 0
23.4 0.4 0
23.7 0.4 0
24 0.4 0
24.3 0.4 0
24.6 0.4 0
24.9 0.4 0
25.2 0.4 0
25.5 0.4 0
25.8 0.4 0
26.1 0.4 0
26.4 0.4 0
26.7 0.4 0
27 0.4 0
27.3 0.4 0
27.6 0.4 0
27.9 0.4 0
28.2 0.4 0
28.5 0.4 0
28.8 0.4 0
29.1 0.4 0
29.4 0.4 0
29.7 0.4 0
30 0.4 0
30.3 0.4 0
0 0.5 0
0.3 0.5 0
0.6 0.5 0
0.9 0.5 0
1.2 0.5 0
1.5 0.5 0
1.8 0.5 0
2.1 0.5 0
2.4 0.5 0
2.7 0.5 0
3 0.5 0
3.3 0.5 0
3.6 0.5 0
3.9 0.5 0
4.2 0.5 0
4.5 0.5 0
4.8 0.5 0
5.1 0.5 0
5.4 0.5 0
5.7 0.5 0
6 0.5 0
6.3 0.5 0
6.6 0.5 0
6.9 0.5 0
7.2 0.5 0
7.5 0.5 0
7.8 0.5 0
8.1 0.5 0
8.4 0.5 0
8.7 0.5 0
9 0.5 0
9.3 0.5 0
9.6 0.5 0
9.9 0.5 0
10.2 0.5 0
10.5 0.5 0
10.8 0.5 0
11.1 0.5 0
11.4 0.5 0
11.7 0.5 0
12 0.5 0
12.3 0.5 0
12.6 0.5 0
12.9 0.5 0
13.2 0.5 0
13.5 0.5 0
13.8 0.5 0
14.1 0.5 0
14.4 0.5 0
14.7 0.5 0
15 0.5 0
15.3 0.5 0
15.6 0.5 0
15.9 0.5 0
16.2 0.5 0
16.5 0.5 0
16.8 0.5 0
17.1 0.5 0
17.4 0.5 0
17.7 0.5 0
18 0.5 0
18.3 0.5 0
18.6 0.5 0
18.9 0.5 0
19.2 0.5 0
19.5 0.5 0
19.8 0.5 0
20.1 0.5 0
20.4 0.5 0
20.7 0.5 0
21 0.5 0
21.3 0.5 0
21.6 0.5 0
21.9 0.5 0
22.2 0.5 0
22.5 0.5 0
22.8 0.5 0
23.1 0.5 0
23.4 0.5 0
23.7 0.5 0
24 0.5 0
24.3 0.5 0
24.6 0.5 0
24.9 0.5 0
25.2 0.5 0
25.5 0.5 0
25.8 0.5 0
26.1 0.5 0
26.4 0.5 0
26.7 0.5 0
27 0.5 0
27.3 0.5 0
27.6 0.5 0
27.9 0.5 0
28.2 0.5 0
28.5 0.5 0
28.8 0.5 0
29.1 0.5 0
29.4 0.5 0
29.7 0.5 0
30 0.5 0
30.3 0.5 0
0 0.6 0
0.3 0.6 0
0.6 0.6 0
0.9 0.6 0
1.2 0.6 0
1.5 0.6 0
1.8 0.6 0
2.1 0.6 0
2.4 0.6 0
2.7 0.6 0
3 0.6 0
3.3 0.6 0
3.6 0.6 0
3.9 0.6 0
4.2 0.6 0
4.5 0.6 0
4.8 0.6 0
5.1 0.6 0
5.4 0.6 0
5.7 0.6 0
6 0.6 0
6.3 0.6 0
6.6 0.6 0
6.9 0.6 0
7.2 0.6 0
7.5 0.6 0
7.8 0.6 0
8.1 0.6 0
8.4 0.6 0
8.7 0.6 0
9 0.6 0
9.3 0.6 0
9.6 0.6 0
9.9 0.6 0
10.2 0.6 0
10.5 0.6 0
10.8 0.6 0
11.1 0.6 0
11.4 0.6 0
11.7 0.6 0
12 0.6 0
12.3 0.6 0
12.6 0.6 0
12.9 0.6 0
13.2 0.6 0
13.5 0.6 0
13.8 0.6 0
14.1 0.6 0
14.4 0.6 0
14.7 0.6 0
15 0.6 0
15.3 0.6 0
15.6 0.6 0
15.9 0.6 0
16.2 0.6 0
16.5 0.6 0
16.8 0.6 0
17.1 0.6 0
17.4 0.6 0
17.7 0.6 0
18 0.6 0
18.3 0.6 0
18.6 0.6 0
18.9 0.6 0
19.2 0.6 0
19.5 0.6 0
19.8 0.6 0
20.1 0.6 0
20.4 0.6 0
20.7 0.6 0
21 0.6 0
21.3 0.6 0
21.6 0.6 0
21.9 0.6 0
22.2 0.6 0
22.5 0.6 0
22.8 0.6 0
23.1 0.6 0
23.4 0.6 0
23.7 0.6 0
24 0.6 0
24.3 0.6 0
24.6 0.6 0
24.9 0.6 0
25.2 0.6 0
25.5 0.6 0
25.8 0.6 0
26.1 0.6 0
26.4 0.6 0
26.7 0.6 0
27 0.6 0
27.3 0.6 0
27.6 0.6 0
27.9 0.6 0
28.2 0.6 0
28.5 0.6 0
28.8 0.6 0
29.1 0.6 0
29.4 0.6 0
29.7 0.6 0
30 0.6 0
30.3 0.6 0
0 0.7 0
0.3 0.7 0
0.6 0.7 0
0.9 0.7 0
1.2 0.7 0
1.5 0.7 0
1.8 0.7 0
2.1 0.7 0
2.4 0.7 0
2.7 0.7 0
3 0.7 0
3.3 0.7 0
3.6 0.7 0
3.9 0.7 0
4.2 0.7 0
4.5 0.7 0
4.8 0.7 0
5.1 0.7 0
5.4 0.7 0
5.7 0.7 0
6 0.7 0
6.3 0.7 0
6.6 0.7 0
6.9 0.7 0
7.2 0.7 0
7.5 0.7 0
7.8 0.7 0
8.1 0.7 0
8.4 0.7 0
8.7 0.7 0
9 0.7 0
9.3 0.7 0
9.6 0.7 0
9.9 0.7 0
10.2 0.7 0
10.5 0.7 0
10.8 0.7 0
11.1 0.7 0
11.4 0.7 0
11.7 0.7 0
12 0.7 0
12.3 0.7 0
12.6 0.7 0
12.9 0.7 0
13.2 0.7 0
13.5 0.7 0
13.8 0.7 0
14.1 0.7 0
14.4 0.7 0
14.7 0.7 0
15 0.7 0
15.3 0.7 0
15.6 0.7 0
15.9 0.7 0
16.2 0.7 0
16.5 0.7 0
16.8 0.7 0
17.1 0.7 0
17.4 0.7 0
17.7 0.7 0
18 0.7 0
18.3 0.7 0
18.6 0.7 0
18.9 0.7 0
19.2 0.7 0
19.5 0.7 0
19.8 0.7 0
20.1 0.7 0
20.4 0.7 0
20.7 0.7 0
21 0.7 0
21.3 0.7 0
21.6 0.7 0
21.9 0.7 0
22.2 0.7 0
22.5 0.7 0
22.8 0.7 0
23.1 0.7 0
23.4 0.7 0
23.7 0.7 0
24 0.7 0
24.3 0.7 0
24.6 0.7 0
24.9 0.7 0
25.2 0.7 0
25.5 0.7 0
25.8 0.7 0
26.1 0.7 0
26.4 0.7 0
26.7 0.7 0
27 0.7 0
27.3 0.7 0
27.6 0.7 0
27.9 0.7 0
28.2 0.7 0
28.5 0.7 0
28.8 0.7 0
29.1 0.7 0
29.4 0.7 0
29.7 0.7 0
30 0.7 0
30.3 0.7 0
0 0.8 0
0.3 0.8 0
0.6 0.8 0
0.9 0.8 0
1.2 0.8 0
1.5 0.8 0
1.8 0.8 0
2.1 0.8 0
2.4 0.8 0
2.7 0.8 0
3 0.8 0
3.3 0.8 0
3.6 0.8 0
3.9 0.8 0
4.2 0.8 0
4.5 0.8 0
4.8 0.8 0
5.1 0.8 0
5.4 0.8 0
5.7 0.8 0
6 0.8 0
6.3 0.8 0
6.6 0.8 0
6.9 0.8 0
7.2 0.8 0
7.5 0.8 0
7.8 0.8 0
8.1 0.8 0
8.4 0.8 0
8.7 0.8 0
9 0.8 0
9.3 0.8 0
9.6 0.8 0
9.9 0.8 0
10.2 0.8 0
10.5 0.8 0
10.8 0.8 0
11.1 0.8 0
11.4 0.8 0
11.7 0.8 0
12 0.8 0
12.3 0.8 0
12.6 0.8 0
12.9 0.8 0
13.2 0.8 0
13.5 0.8 0
13.8 0.8 0
14.1 0.8 0
14.4 0.8 0
14.7 0.8 0
15 0.8 0
15.3 0.8 0
15.6 0.8 0
15.9 0.8 0
16.2 0.8 0
16.5 0.8 0
16.8 0.8 0
17.1 0.8 0
17.4 0.8 0
17.7 0.8 0
18 0.8 0
18.3 0.8 0
18.6 0.8 0
18.9 0.8 0
19.2 0.8 0
19.5 0.8 0
19.8 0.8 0
20.1 0.8 0
20.4 0.8 0
20.7 0.8 0
21 0.8 0
21.3 0.8 0
21.6 0.8 0
21.9 0.8 0
22.2 0.8 0
22.5 0.8 0
22.8 0.8 0
23.1 0.8 0
23.4 0.8 0
23.7 0.8 0
24 0.8 0
24.3 0.8 0
24.6 0.8 0
24.9 0.8 0
25.2 0.8 0
25.5 0.8 0
25.8 0.8 0
26.1 0.8 0
26.4 0.8 0
26.7 0.8 0
27 0.8 0
27.3 0.8 0
27.6 0.8 0
27.9 0.8 0
28.2 0.8 0
28.5 0.8 0
28.8 0.8 0
29.1 0.8 0
29.4 0.8 0
29.7 0.8 0
30 0.8 0
30.3 0.8 0
0 0.9 0
0.3 0.9 0
0.6 0.9 0
0.9 0.9 0
1.2 0.9 0
1.5 0.9 0
1.8 0.9 0
2.1 0.9 0
2.4 0.9 0
2.7 0.9 0
3 0.9 0
3.3 0.9 0
3.6 0.9 0
3.9 0.9 0
4.2 0.9 0
4.5 0.9 0
4.8 0.9 0
5.1 0.9 0
5.4 0.9 0
5.7 0.9 0
6 0.9 0
6.3 0.9 0
6.6 0.9 0
6.9 0.9 0
7.2 0.9 0
7.5 0.9 0
7.8 0.9 0
8.1 0.9 0
8.4 0.9 0
8.7 0.9 0
9 0.9 0
9.3 0.9 0
9.6 0.9 0
9.9 0.9 0
10.2 0.9 0
10.5 0.9 0
10.8 0.9 0
11.1 0.9 0
11.4 0.9 0
11.7 0.9 0
12 0.9 0
12.3 0.9 0
12.6 0.9 0
12.9 0.9 0
13.2 0.9 0
13.5 0.9 0
13.8 0.9 0
14.1 0.9 0
14.4 0.9 0
14.7 0.9 0
15 0.9 0
15.3 0.9 0
15.6 0.9 0
15.9 0.9 0
16.2 0.9 0
16.5 0.9 0
16.8 0.9 0
17.1 0.9 0
17.4 0.9 0
17.7 0.9 0
18 0.9 0
18.3 0.9 0
18.6 0.9 0
18.9 0.9 0
19.2 0.9 0
19.5 0.9 0
19.8 0.9 0
20.1 0.9 0
20.4 0.9 0
20.7 0.9 0
21 0.9 0
21.3 0.9 0
21.6 0.9 0
21.9 0.9 0
22.2 0.9 0
22.5 0.9 0
22.8 0.9 0
23.1 0.9 0
23.4 0.9 0
23.7 0.9 0
24 0.9 0
24.3 0.9 0
24.6 0.9 0
24.9 0.9 0
25.2 0.9 0
25.5 0.9 0
25.8 0.9 0
26.1 0.9 0
26.4 0.9 0
26.7 0.9 0
27 0.9 0
27.3 0.9 0
27.6 0.9 0
27.9 0.9 0
28.2 0.9 0
28.5 0.9 0
28.8 0.9 0
29.1 0.9 0
29.4 0.9 0
29.7 0.9 0
30 0.9 0
30.3 0.9 0
0 1 0
0.3 1 0
0.6 1 0
0.9 1 0
1.2 1 0
1.5 1 0
1.8 1 0
2.1 1 0
2.4 1 0
2.7 1 0
3 1 0
3.3 1 0
3.6 1 0
3.9 1 0
4.2 1 0
4.5 1 0
4.8 1 0
5.1 1 0
5.4 1 0
5.7 1 0
6 1 0
6.3 1 0
6.6 1 0
6.9 1 0
7.2 1 0
7.5 1 0
7.8 1 0
8.1 1 0
8.4 1 0
8.7 1 0
9 1 0
9.3 1 0
9.6 1 0
9.9 1 0
10.2 1 0
10.5 1 0
10.8 1 0
11.1 1 0
11.4 1 0
11.7 1 0
12 1 0
12.3 1 0
12.6 1 0
12.9 1 0
13.2 1 0
13.5 1 0
13.8 1 0
14.1 1 0
14.4 1 0
14.7 1 0
15 1 0
15.3 1 0
15.6 1 0
15.9 1 0
16.2 1 0
16.5 1 0
16.8 1 0
17.1 1 0
17.4 1 0
17.7 1 0
18 1 0
18.3 1 0
18.6 1 0
18.9 1 0
19.2 1 0
19.5 1 0
19.8 1 0
20.1 1 0
20.4 1 0
20.7 1 0
21 1 0
21.3 1 0
21.6 1 0
21.9 1 0
22.2 1 0
22.5 1 0
22.8 1 0
23.1 1 0
23.4 1 0
23.7 1 0
24 1 0
24.3 1 0
24.6 1 0
24.9 1 0
25.2 1 0
25.5 1 0
25.8 1 0
26.1 1 0
26.4 1 0
26.7 1 0
27 1 0
27.3 1 0
27.6 1 0
27.9 1 0
28.2 1 0
28.5 1 0
28.8 1 0
29.1 1 0
29.4 1 0
29.7 1 0
30 1 0
30.3 1 0
0 1.1 0
0.3 1.1 0
0.6 1.1 0
0.9 1.1 0
1.2 1.1 0
1.5 1.1 0
1.8 1.1 0
2.1 1.1 0
2.4 1.1 0
2.7 1.1 0
3 1.1 0
3.3 1.1 0
3.6 1.1 0
3.9 1.1 0
4.2 1.1 0
4.5 1.1 0
4.8 1.1 0
5.1 1.1 0
5.4 1.1 0
5.7 1.1 0
6 1.1 0
6.3 1.1 0
6.6 1.1 0
6.9 1.1 0
7.2 1.1 0
7.5 1.1 0
7.8 1.1 0
8.1 1.1 0
8.4 1.1 0
8.7 1.1 0
9 1.1 0
9.3 1.1 0
9.6 1.1 0
9.9 1.1 0
10.2 1.1 0
10.5 1.1 0
10.8 1.1 0
11.1 1.1 0
11.4 1.1 0
11.7 1.1 0
12 1.1 0
12.3 1.1 0
12.6 1.1 0
12.9 1.1 0
13.2 1.1 0
13.5 1.1 0
13.8 1.1 0
14.1 1.1 0
14.4 1.1 0
14.7 1.1 0
15 1.1 0
15.3 1.1 0
15.6 1.1 0
15.9 1.1 0
16.2 1.1 0
16.5 1.1 0
16.8 1.1 0
17.1 1.1 0
17.4 1.1 0
17.7 1.1 0
18 1.1 0
18.3 1.1 0
18.6 1.1 0
18.9 1.1 0
19.2 1.1 0
19.5 1.1 0
19.8 1.1 0
20.1 1.1 0
20.4 1.1 0
20.7 1.1 0
21 1.1 0
21.3 1.1 0
21.6 1.1 0
21.9 1.1 0
22.2 1.1 0
22.5 1.1 0
22.8 1.1 0
23.1 1.1 0
23.4 1.1 0
23.7 1.1 0
24 1.1 0
24.3 1.1 0
24.6 1.1 0
24.9 1.1 0
25.2 1.1 0
25.5 1.1 0
25.8 1.1 0
26.1 1.1 0
26.4 1.1 0
26.7 1.1 0
27 1.1 0
27.3 1.1 0
27.6 1.1 0
27.9 1.1 0
28.2 1.1 0
28.5 1.1 0
28.8 1.1 0
29.1 1.1 0
29.4 1.1 0
29.7 1.1 0
30 1.1 0
30.3 1.1 0

POINT_DATA 1224

SCALARS pressure double
LOOKUP_TABLE pressure
1.31576
1.31576
1.24926
1.20218
1.15923
1.11957
1.08355
1.05117
1.02206
0.995727
0.971617
0.949264
0.928291
0.908409
0.889404
0.871114
0.853423
0.836241
0.819502
0.803152
0.787149
0.771457
0.756047
0.740895
0.725977
0.711276
0.696774
0.682456
0.668308
0.654317
0.640472
0.626763
0.61318
0.599715
0.586359
0.573105
0.559946
0.546877
0.53389
0.52098
0.508143
0.495374
0.482668
0.470022
0.457431
0.444891
0.432401
0.419956
0.407554
0.395191
0.382866
0.370577
0.35832
0.346093
0.333896
0.321726
0.309581
0.29746
0.285361
0.273283
0.261224
0.249184
0.237161
0.225155
0.213163
0.201185
0.189221
0.17727
0.16533
0.1534
0.141482
0.129572
0.117672
0.105781
0.0938969
0.0820206
0.0701512
0.0582884
0.0464317
0.0345808
0.0227353
0.0108948
-0.000940981
-0.0127723
-0.0245994
-0.0364227
-0.0482423
-0.0600585
-0.0718714
-0.0836813
-0.0954884
-0.107293
-0.119095
-0.130894
-0.142692
-0.154487
-0.166281
-0.178073
-0.189862
-0.201651
-0.213438
0.213438
1.31576
1.31576
1.24926
1.20218
1.15923
1.11957
1.08355
1.05117
1.02206
0.995727
0.971617
0.949264
0.928291
0.908409
0.889404
0.871114
0.853423
0.836241
0.819502
0.803152
0.787149
0.771457
0.756047
0.740895
0.725977
0.711276
0.696774
0.682456
0.668308
0.654317
0.640472
0.626763
0.61318
0.599715
0.586359
0.573105
0.559946
0.546877
0.53389
0.52098
0.508143
0.495374
0.482668
0.470022
0.457431
0.444891
0.432401
0.419956
0.407554
0.395191
0.382866
0.370577
0.35832
0.346093
0.333896
0.321726
0.309581
0.29746
0.285361
0.273283
0.261224
0.249184
0.237161
0.225155
0.213163
0.201185
0.189221
0.17727
0.16533
0.1534
0.141482
0.129572
0.117672
0.105781
0.0938969
0.0820206
0.0701512
0.0582884
0.0464317
0.0345808
0.0227353
0.0108948
-0.000940981
-0.0127723
-0.0245994
-0.0364227
-0.0482423
-0.0600585
-0.0718714
-0.0836813
-0.0954884
-0.107293
-0.119095
-0.130894
-0.142692
-0.154487
-0.166281
-0.178073
-0.189862
-0.201651
-0.213438
0.213438
1.29512
1.29512
1.24746
1.2025
1.15994
1.12034
1.08425
1.05176
1.02254
0.996097
0.971903
0.949485
0.928464
0.908547
0.889515
0.871206
0.8535
0.836308
0.81956
0.803203
0.787194
0.771497
0.756083
0.740927
0.726007
0.711303
0.696799
0.682479
0.668329
0.654336
0.64049
0.626779
0.613195
0.599729
0.586372
0.573117
0.559958
0.546887
0.533899
0.520989
0.508152
0.495382
0.482675
0.470028
0.457437
0.444897
0.432406
0.419961
0.407558
0.395196
0.382871
0.37058
0.358323
0.346097
0.333899
0.321729
0.309584
0.297462
0.285363
0.273285
0.261226
0.249186
0.237163
0.225156
0.213165
0.201187
0.189223
0.177271
0.165331
0.153402
0.141483
0.129574
0.117673
0.105782
0.0938978
0.0820214
0.070152
0.0582891
0.0464324
0.0345814
0.0227359
0.0108953
-0.000940465
-0.0127718
-0.024599
-0.0364223
-0.0482419
-0.0600581
-0.071871
-0.083681
-0.0954881
-0.107293
-0.119095
-0.130894
-0.142692
-0.154487
-0.166281
-0.178072
-0.189862
-0.201651
-0.213438
0.213438
1.28073
1.28073
1.24496
1.20288
1.16107
1.12161
1.08543
1.05275
1.02333
0.996704
0.972359
0.949825
0.928719
0.908741
0.889665
0.871324
0.853596
0.836387
0.819626
0.803259
0.787242
0.771539
0.756121
0.740961
0.726037
0.71133
0.696823
0.6825
0.668348
0.654354
0.640506
0.626794
0.613209
0.599741
0.586384
0.573128
0.559967
0.546896
0.533908
0.520997
0.508159
0.495388
0.482682
0.470034
0.457442
0.444902
0.432411
0.419965
0.407562
0.395199
0.382874
0.370584
0.358326
0.3461
0.333902
0.321731
0.309586
0.297464
0.285365
0.273287
0.261228
0.249188
0.237165
0.225158
0.213166
0.201188
0.189224
0.177272
0.165332
0.153403
0.141484
0.129574
0.117674
0.105782
0.0938985
0.082022
0.0701526
0.0582897
0.0464329
0.0345819
0.0227363
0.0108958
-0.000940052
-0.0127714
-0.0245986
-0.0364219
-0.0482416
-0.0600578
-0.0718708
-0.0836807
-0.0954879
-0.107292
-0.119094
-0.130894
-0.142692
-0.154487
-0.16628
-0.178072
-0.189862
-0.201651
-0.213434
0.213434
1.27205
1.27205
1.24294
1.20314
1.162
1.12269
1.08646
1.05364
1.02406
0.997283
0.972807
0.95017
0.928986
0.908949
0.88983
0.871458
0.853705
0.836478
0.819704
0.803326
0.7873
0.77159
0.756166
0.741
0.726072
0.711362
0.696852
0.682526
0.668372
0.654375
0.640525
0.626812
0.613225
0.599756
0.586397
0.57314
0.559979
0.546907
0.533917
0.521006
0.508167
0.495396
0.482689
0.470041
0.457448
0.444908
0.432416
0.41997
0.407567
0.395204
0.382878
0.370587
0.35833
0.346103
0.333905
0.321734
0.309589
0.297467
0.285368
0.273289
0.26123
0.24919
0.237167
0.225159
0.213167
0.20119
0.189225
0.177273
0.165333
0.153404
0.141485
0.129575
0.117675
0.105783
0.0938993
0.0820228
0.0701533
0.0582904
0.0464336
0.0345825
0.0227369
0.0108963
-0.000939574
-0.012771
-0.0245982
-0.0364215
-0.0482412
-0.0600574
-0.0718704
-0.0836804
-0.0954876
-0.107292
-0.119094
-0.130894
-0.142691
-0.154487
-0.16628
-0.178072
-0.189862
-0.201649
-0.213429
0.213429
1.26797
1.26797
1.24186
1.20326
1.16249
1.12328
1.08703
1.05414
1.02448
0.997617
0.973071
0.950378
0.929149
0.909079
0.889936
0.871545
0.853779
0.83654
0.819758
0.803373
0.787342
0.771627
0.756198
0.74103
0.726099
0.711386
0.696873
0.682546
0.668389
0.654391
0.64054
0.626826
0.613238
0.599768
0.586408
0.57315
0.559988
0.546915
0.533925
0.521013
0.508174
0.495402
0.482694
0.470046
0.457453
0.444913
0.432421
0.419974
0.407571
0.395207
0.382881
0.37059
0.358332
0.346105
0.333907
0.321736
0.309591
0.297469
0.285369
0.273291
0.261232
0.249191
0.237168
0.225161
0.213169
0.201191
0.189226
0.177274
0.165334
0.153405
0.141486
0.129576
0.117676
0.105784
0.0938999
0.0820234
0.0701539
0.0582909
0.0464341
0.034583
0.0227373
0.0108967
-0.000939194
-0.0127706
-0.0245979
-0.0364212
-0.0482409
-0.0600572
-0.0718702
-0.0836802
-0.0954874
-0.107292
-0.119094
-0.130894
-0.142691
-0.154487
-0.16628
-0.178072
-0.189861
-0.201648
-0.213424
0.213424
1.26797
1.26797
1.24186
1.20326
1.16249
1.12328
1.08703
1.05414
1.02448
0.997617
0.973071
0.950378
0.929149
0.909079
0.889936
0.871545
0.853779
0.83654
0.819758
0.803373
0.787342
0.771627
0.756198
0.74103
0.726099
0.711386
0.696873
0.682546
0.668389
0.654391
0.64054
0.626826
0.613238
0.599768
0.586408
0.57315
0.559988
0.546915
0.533925
0.521013
0.508174
0.495402
0.482694
0.470046
0.457453
0.444913
0.432421
0.419974
0.407571
0.395207
0.382881
0.37059
0.358332
0.346105
0.333907
0.321736
0.309591
0.297469
0.285369
0.273291
0.261232
0.249191
0.237168
0.225161
0.213169
0.201191
0.189226
0.177274
0.165334
0.153405
0.141486
0.129576
0.117676
0.105784
0.0938999
0.0820234
0.0701539
0.0582909
0.0464341
0.034583
0.0227373
0.0108967
-0.000939194
-0.0127706
-0.0245979
-0.0364212
-0.0482409
-0.0600572
-0.0718702
-0.0836802
-0.0954874
-0.107292
-0.119094
-0.130894
-0.142691
-0.154487
-0.16628
-0.178072
-0.189861
-0.201648
-0.213424
0.213424
1.27204
1.27204
1.24294
1.20314
1.162
1.12269
1.08646
1.05364
1.02406
0.997282
0.972807
0.950171
0.928986
0.908949
0.88983
0.871458
0.853705
0.836478
0.819704
0.803326
0.7873
0.77159
0.756166
0.741
0.726072
0.711362
0.696852
0.682526
0.668372
0.654375
0.640525
0.626812
0.613225
0.599756
0.586397
0.57314
0.559979
0.546907
0.533917
0.521006
0.508167
0.495396
0.482689
0.470041
0.457448
0.444908
0.432416
0.41997
0.407567
0.395204
0.382878
0.370587
0.35833
0.346103
0.333905
0.321734
0.309589
0.297467
0.285368
0.273289
0.26123
0.24919
0.237167
0.225159
0.213167
0.20119
0.189225
0.177273
0.165333
0.153404
0.141485
0.129575
0.117675
0.105783
0.0938993
0.0820228
0.0701533
0.0582904
0.0464336
0.0345825
0.0227369
0.0108963
-0.000939574
-0.012771
-0.0245982
-0.0364215
-0.0482412
-0.0600574
-0.0718704
-0.0836804
-0.0954876
-0.107292
-0.119094
-0.130894
-0.142691
-0.154487
-0.16628
-0.178072
-0.189862
-0.201649
-0.213429
0.213429
1.28073
1.28073
1.24496
1.20289
1.16108
1.12161
1.08543
1.05275
1.02333
0.996703
0.972359
0.949826
0.928719
0.908741
0.889665
0.871324
0.853596
0.836387
0.819626
0.803259
0.787242
0.771539
0.756121
0.740961
0.726037
0.71133
0.696823
0.6825
0.668348
0.654354
0.640506
0.626794
0.613209
0.599741
0.586384
0.573128
0.559967
0.546896
0.533908
0.520997
0.508159
0.495388
0.482682
0.470034
0.457442
0.444902
0.432411
0.419965
0.407562
0.395199
0.382874
0.370584
0.358326
0.3461
0.333902
0.321731
0.309586
0.297464
0.285365
0.273287
0.261228
0.249188
0.237165
0.225158
0.213166
0.201188
0.189224
0.177272
0.165332
0.153403
0.141484
0.129574
0.117674
0.105782
0.0938985
0.082022
0.0701526
0.0582897
0.0464329
0.0345819
0.0227363
0.0108958
-0.000940052
-0.0127714
-0.0245986
-0.0364219
-0.0482416
-0.0600578
-0.0718708
-0.0836807
-0.0954879
-0.107292
-0.119094
-0.130894
-0.142692
-0.154487
-0.16628
-0.178072
-0.189862
-0.201651
-0.213434
0.213434
1.29512
1.29512
1.24746
1.20249
1.15995
1.12034
1.08425
1.05176
1.02254
0.996097
0.971902
0.949485
0.928464
0.908547
0.889515
0.871206
0.8535
0.836308
0.81956
0.803203
0.787194
0.771497
0.756083
0.740927
0.726007
0.711303
0.696799
0.682479
0.668329
0.654336
0.64049
0.626779
0.613195
0.599729
0.586372
0.573117
0.559958
0.546887
0.533899
0.520989
0.508152
0.495382
0.482675
0.470028
0.457437
0.444897
0.432406
0.419961
0.407558
0.395196
0.382871
0.37058
0.358323
0.346097
0.333899
0.321729
0.309584
0.297462
0.285363
0.273285
0.261226
0.249186
0.237163
0.225156
0.213165
0.201187
0.189223
0.177271
0.165331
0.153402
0.141483
0.129574
0.117673
0.105782
0.0938978
0.0820214
0.070152
0.0582891
0.0464324
0.0345814
0.0227359
0.0108953
-0.000940465
-0.0127718
-0.024599
-0.0364223
-0.0482419
-0.0600581
-0.071871
-0.083681
-0.0954881
-0.107293
-0.119095
-0.130894
-0.142692
-0.154487
-0.166281
-0.178072
-0.189862
-0.201651
-0.213438
0.213438
1.31577
1.31577
1.24926
1.20218
1.15923
1.11957
1.08355
1.05117
1.02206
0.995727
0.971617
0.949264
0.928291
0.90841
0.889404
0.871114
0.853423
0.836242
0.819502
0.803152
0.787149
0.771457
0.756047
0.740895
0.725977
0.711276
0.696774
0.682456
0.668308
0.654317
0.640472
0.626763
0.61318
0.599715
0.586359
0.573105
0.559946
0.546877
0.53389
0.52098
0.508143
0.495374
0.482668
0.470022
0.457431
0.444891
0.432401
0.419956
0.407554
0.395191
0.382866
0.370577
0.35832
0.346093
0.333896
0.321726
0.309581
0.29746
0.285361
0.273283
0.261224
0.249184
0.237161
0.225155
0.213163
0.201185
0.189221
0.17727
0.16533
0.1534
0.141482
0.129572
0.117672
0.105781
0.0938969
0.0820206
0.0701512
0.0582884
0.0464317
0.0345808
0.0227353
0.0108948
-0.000940982
-0.0127723
-0.0245995
-0.0364227
-0.0482423
-0.0600585
-0.0718714
-0.0836813
-0.0954884
-0.107293
-0.119095
-0.130894
-0.142692
-0.154487
-0.166281
-0.178073
-0.189862
-0.201651
-0.213438
0.213438
1.31577
1.31577
1.24926
1.20218
1.15923
1.11957
1.08355
1.05117
1.02206
0.995727
0.971617
0.949264
0.928291
0.90841
0.889404
0.871114
0.853423
0.836242
0.819502
0.803152
0.787149
0.771457
0.756047
0.740895
0.725977
0.711276
0.696774
0.682456
0.668308
0.654317
0.640472
0.626763
0.61318
0.599715
0.586359
0.573105
0.559946
0.546877
0.53389
0.52098
0.508143
0.495374
0.482668
0.470022
0.457431
0.444891
0.432401
0.419956
0.407554
0.395191
0.382866
0.370577
0.35832
0.346093
0.333896
0.321726
0.309581
0.29746
0.285361
0.273283
0.261224
0.249184
0.237161
0.225155
0.213163
0.201185
0.189221
0.17727
0.16533
0.1534
0.141482
0.129572
0.117672
0.105781
0.0938969
0.0820206
0.0701512
0.0582884
0.0464317
0.0345808
0.0227353
0.0108948
-0.000940982
-0.0127723
-0.0245995
-0.0364227
-0.0482423
-0.0600585
-0.0718714
-0.0836813
-0.0954884
-0.107293
-0.119095
-0.130894
-0.142692
-0.154487
-0.166281
-0.178073
-0.189862
-0.201651
-0.213438
0.213438
SCALARS phi double
LOOKUP_TABLE phi
1
1
1
0.999995
0.999977
0.999931
0.999833
0.999655
0.999364
0.998929
0.998323
0.997523
0.996512
0.995279
0.993815
0.992118
0.990189
0.988032
0.985652
0.983059
0.980261
0.97727
0.974097
0.970755
0.967257
0.963614
0.95984
0.955947
0.951946
0.94785
0.943668
0.939412
0.93509
0.930714
0.92629
0.921825
0.917326
0.912794
0.90823
0.903631
0.898989
0.894294
0.889531
0.884682
0.879726
0.874638
0.869394
0.863966
0.858328
0.852455
0.846321
0.839904
0.833183
0.826143
0.818769
0.811049
0.802978
0.794552
0.78577
0.776637
0.767158
0.757342
0.747202
0.736751
0.726005
0.714982
0.703701
0.692182
0.680446
0.668513
0.656407
0.644149
0.63176
0.619261
0.606675
0.594021
0.581319
0.568588
0.555846
0.543112
0.530401
0.517728
0.50511
0.492558
0.480087
0.467707
0.45543
0.443265
0.431222
0.419308
0.407532
0.3959
0.384416
0.373089
0.361918
0.350918
0.34006
0.329453
0.318737
0.309173
0.296306
0.296306
1
1
1
0.999995
0.999977
0.999931
0.999833
0.999655
0.999364
0.998929
0.998323
0.997523
0.996512
0.995279
0.993815
0.992118
0.990189
0.988032
0.985652
0.983059
0.980261
0.97727
0.974097
0.970755
0.967257
0.963614
0.95984
0.955947
0.951946
0.94785
0.943668
0.939412
0.93509
0.930714
0.92629
0.921825
0.917326
0.912794
0.90823
0.903631
0.898989
0.894294
0.889531
0.884682
0.879726
0.874638
0.869394
0.863966
0.858328
0.852455
0.846321
0.839904
0.833183
0.826143
0.818769
0.811049
0.802978
0.794552
0.78577
0.776637
0.767158
0.757342
0.747202
0.736751
0.726005
0.714982
0.703701
0.692182
0.680446
0.668513
0.656407
0.644149
0.63176
0.619261
0.606675
0.594021
0.581319
0.568588
0.555846
0.543112
0.530401
0.517728
0.50511
0.492558
0.480087
0.467707
0.45543
0.443265
0.431222
0.419308
0.407532
0.3959
0.384416
0.373089
0.361918
0.350918
0.34006
0.329453
0.318737
0.309173
0.296306
0.296306
0.999998
1
0.999984
0.999921
0.999783
0.999536
0.999146
0.99858
0.997812
0.996819
0.99559
0.994116
0.992398
0.990437
0.98824
0.985817
0.983177
0.980333
0.977297
0.974081
0.9707
0.967166
0.963491
0.95969
0.955773
0.951752
0.947639
0.943445
0.939179
0.93485
0.930469
0.926042
0.921579
0.917087
0.912571
0.908038
0.903494
0.898943
0.894388
0.88983
0.885268
0.880702
0.876124
0.871528
0.866905
0.86224
0.85752
0.852728
0.847845
0.842852
0.837729
0.832455
0.82701
0.821376
0.815533
0.809465
0.803158
0.796599
0.789778
0.782686
0.775318
0.76767
0.759743
0.751538
0.743058
0.734309
0.725299
0.716037
0.706533
0.696801
0.686853
0.676702
0.666365
0.655856
0.645191
0.634386
0.623457
0.61242
0.60129
0.590084
0.578817
0.567503
0.556157
0.544793
0.533424
0.522063
0.510721
0.499411
0.488143
0.476927
0.465772
0.454688
0.443681
0.432762
0.421932
0.411212
0.400563
0.390132
0.37946
0.370089
0.356905
0.356905
1.00001
0.999992
0.99954
0.998615
0.997207
0.995317
0.992955
0.990145
0.986922
0.983332
0.979422
0.975241
0.970836
0.966248
0.961513
0.956664
0.951728
0.946728
0.941682
0.936608
0.931519
0.926427
0.921341
0.916268
0.911216
0.906189
0.901194
0.896232
0.891307
0.886422
0.881579
0.87678
0.872025
0.867316
0.862654
0.85804
0.853473
0.848955
0.844485
0.840062
0.835687
0.831357
0.82707
0.822823
0.818612
0.814432
0.810276
0.806137
0.802005
0.79787
0.793722
0.789547
0.785333
0.781067
0.776734
0.77232
0.767812
0.763195
0.758457
0.753585
0.748567
0.743393
0.738054
0.73254
0.726847
0.720967
0.714898
0.708635
0.702179
0.695529
0.688686
0.681652
0.674431
0.667028
0.659448
0.651697
0.643782
0.635711
0.627492
0.619134
0.610646
0.602037
0.593316
0.584493
0.575578
0.56658
0.557508
0.548374
0.539184
0.529949
0.520678
0.511378
0.502058
0.492727
0.483389
0.474064
0.464713
0.455493
0.445926
0.43757
0.425465
0.425465
1.00143
0.99857
0.991252
0.98188
0.971566
0.96086
0.950051
0.939311
0.928756
0.918468
0.908503
0.898898
0.889671
0.880827
0.87236
0.864261
0.856513
0.849098
0.841997
0.835192
0.828664
0.822396
0.816369
0.810568
0.80498
0.799588
0.794382
0.789348
0.784477
0.779758
0.775181
0.770738
0.766422
0.762224
0.758139
0.754159
0.75028
0.746495
0.7428
0.739191
0.735662
0.73221
0.728831
0.72552
0.722275
0.71909
0.715962
0.712885
0.709855
0.706867
0.703915
0.700993
0.698093
0.695209
0.692332
0.689455
0.686569
0.683666
0.680735
0.677769
0.674757
0.67169
0.66856
0.665357
0.662073
0.6587
0.65523
0.651656
0.647972
0.644171
0.640247
0.636198
0.632018
0.627705
0.623255
0.618668
0.613942
0.609077
0.604073
0.59893
0.593651
0.588237
0.58269
0.577013
0.571209
0.565282
0.559236
0.553075
0.546803
0.540424
0.533943
0.527366
0.520696
0.513939
0.507097
0.500188
0.493173
0.486191
0.478831
0.472398
0.462828
0.462828
1.0456
0.954401
0.887723
0.838674
0.801641
0.772861
0.749886
0.731119
0.715499
0.702298
0.691001
0.681228
0.672693
0.665173
0.658493
0.652515
0.647126
0.642236
0.637772
0.633673
0.629891
0.626382
0.623115
0.620059
0.61719
0.614489
0.611936
0.609518
0.607221
0.605034
0.602947
0.60095
0.599038
0.597202
0.595437
0.593737
0.592097
0.590514
0.588983
0.587501
0.586064
0.584669
0.583315
0.581998
0.580716
0.579467
0.578248
0.577057
0.575893
0.574753
0.573634
0.572535
0.571452
0.570383
0.569324
0.568272
0.567224
0.566176
0.565123
0.564061
0.562986
0.561892
0.560775
0.559629
0.558448
0.557228
0.555963
0.554646
0.553273
0.551838
0.550336
0.548761
0.547107
0.545371
0.543548
0.541632
0.53962
0.537507
0.535291
0.532967
0.530533
0.527985
0.525323
0.522543
0.519643
0.516623
0.513481
0.510216
0.506827
0.503315
0.499678
0.495918
0.492035
0.488029
0.483899
0.479655
0.475267
0.470835
0.466057
0.461864
0.455409
0.455409
-0.0455988
0.0455988
0.112277
0.161326
0.198359
0.227139
0.250114
0.268881
0.284501
0.297702
0.308999
0.318772
0.327307
0.334827
0.341507
0.347485
0.352874
0.357764
0.362228
0.366327
0.370109
0.373618
0.376885
0.379941
0.38281
0.385511
0.388064
0.390482
0.392779
0.394966
0.397053
0.399049
0.400962
0.402798
0.404563
0.406263
0.407903
0.409486
0.411017
0.412499
0.413936
0.41533
0.416685
0.418001
0.419282
0.42053
0.421746
0.422932
0.424089
0.425219
0.426323
0.427401
0.428455
0.429484
0.430489
0.431471
0.432429
0.433363
0.434272
0.435155
0.436012
0.43684
0.437639
0.438407
0.43914
0.439838
0.440498
0.441115
0.441689
0.442214
0.442689
0.443108
0.443469
0.443768
0.443999
0.44416
0.444246
0.444253
0.444176
0.444012
0.443755
0.443402
0.442948
0.44239
0.441723
0.440943
0.440047