# vtk DataFile Version 3.0
FlowField
ASCII
DATASET STRUCTURED_GRID
DIMENSIONS 102 12 1 
POINTS 1224 double
0 0 0
0.3 0 0
0.6 0 0
0.9 0 0
1.2 0 0
1.5 0 0
1.8 0 0
2.1 0 0
2.4 0 0
2.7 0 0
3 0 0
3.3 0 0
3.6 0 0
3.9 0 0
4.2 0 0
4.5 0 0
4.8 0 0
5.1 0 0
5.4 0 0
5.7 0 0
6 0 0
6.3 0 0
6.6 0 0
6.9 0 0
7.2 0 0
7.5 0 0
7.8 0 0
8.1 0 0
8.4 0 0
8.7 0 0
9 0 0
9.3 0 0
9.6 0 0
9.9 0 0
10.2 0 0
10.5 0 0
10.8 0 0
11.1 0 0
11.4 0 0
11.7 0 0
12 0 0
12.3 0 0
12.6 0 0
12.9 0 0
13.2 0 0
13.5 0 0
13.8 0 0
14.1 0 0
14.4 0 0
14.7 0 0
15 0 0
15.3 0 0
15.6 0 0
15.9 0 0
16.2 0 0
16.5 0 0
16.8 0 0
17.1 0 0
17.4 0 0
17.7 0 0
18 0 0
18.3 0 0
18.6 0 0
18.9 0 0
19.2 0 0
19.5 0 0
19.8 0 0
20.1 0 0
20.4 0 0
20.7 0 0
21 0 0
21.3 0 0
21.6 0 0
21.9 0 0
22.2 0 0
22.5 0 0
22.8 0 0
23.1 0 0
23.4 0 0
23.7 0 0
24 0 0
24.3 0 0
24.6 0 0
24.9 0 0
25.2 0 0
25.5 0 0
25.8 0 0
26.1 0 0
26.4 0 0
26.7 0 0
27 0 0
27.3 0 0
27.6 0 0
27.9 0 0
28.2 0 0
28.5 0 0
28.8 0 0
29.1 0 0
29.4 0 0
29.7 0 0
30 0 0
30.3 0 0
0 0.1 0
0.3 0.1 0
0.6 0.1 0
0.9 0.1 0
1.2 0.1 0
1.5 0.1 0
1.8 0.1 0
2.1 0.1 0
2.4 0.1 0
2.7 0.1 0
3 0.1 0
3.3 0.1 0
3.6 0.1 0
3.9 0.1 0
4.2 0.1 0
4.5 0.1 0
4.8 0.1 0
5.1 0.1 0
5.4 0.1 0
5.7 0.1 0
6 0.1 0
6.3 0.1 0
6.6 0.1 0
6.9 0.1 0
7.2 0.1 0
7.5 0.1 0
7.8 0.1 0
8.1 0.1 0
8.4 0.1 0
8.7 0.1 0
9 0.1 0
9.3 0.1 0
9.6 0.1 0
9.9 0.1 0
10.2 0.1 0
10.5 0.1 0
10.8 0.1 0
11.1 0.1 0
11.4 0.1 0
11.7 0.1 0
12 0.1 0
12.3 0.1 0
12.6 0.1 0
12.9 0.1 0
13.2 0.1 0
13.5 0.1 0
13.8 0.1 0
14.1 0.1 0
14.4 0.1 0
14.7 0.1 0
15 0.1 0
15.3 0.1 0
15.6 0.1 0
15.9 0.1 0
16.2 0.1 0
16.5 0.1 0
16.8 0.1 0
17.1 0.1 0
17.4 0.1 0
17.7 0.1 0
18 0.1 0
18.3 0.1 0
18.6 0.1 0
18.9 0.1 0
19.2 0.1 0
19.5 0.1 0
19.8 0.1 0
20.1 0.1 0
20.4 0.1 0
20.7 0.1 0
21 0.1 0
21.3 0.1 0
21.6 0.1 0
21.9 0.1 0
22.2 0.1 0
22.5 0.1 0
22.8 0.1 0
23.1 0.1 0
23.4 0.1 0
23.7 0.1 0
24 0.1 0
24.3 0.1 0
24.6 0.1 0
24.9 0.1 0
25.2 0.1 0
25.5 0.1 0
25.8 0.1 0
26.1 0.1 0
26.4 0.1 0
26.7 0.1 0
27 0.1 0
27.3 0.1 0
27.6 0.1 0
27.9 0.1 0
28.2 0.1 0
28.5 0.1 0
28.8 0.1 0
29.1 0.1 0
29.4 0.1 0
29.7 0.1 0
30 0.1 0
30.3 0.1 0
0 0.2 0
0.3 0.2 0
0.6 0.2 0
0.9 0.2 0
1.2 0.2 0
1.5 0.2 0
1.8 0.2 0
2.1 0.2 0
2.4 0.2 0
2.7 0.2 0
3 0.2 0
3.3 0.2 0
3.6 0.2 0
3.9 0.2 0
4.2 0.2 0
4.5 0.2 0
4.8 0.2 0
5.1 0.2 0
5.4 0.2 0
5.7 0.2 0
6 0.2 0
6.3 0.2 0
6.6 0.2 0
6.9 0.2 0
7.2 0.2 0
7.5 0.2 0
7.8 0.2 0
8.1 0.2 0
8.4 0.2 0
8.7 0.2 0
9 0.2 0
9.3 0.2 0
9.6 0.2 0
9.9 0.2 0
10.2 0.2 0
10.5 0.2 0
10.8 0.2 0
11.1 0.2 0
11.4 0.2 0
11.7 0.2 0
12 0.2 0
12.3 0.2 0
12.6 0.2 0
12.9 0.2 0
13.2 0.2 0
13.5 0.2 0
13.8 0.2 0
14.1 0.2 0
14.4 0.2 0
14.7 0.2 0
15 0.2 0
15.3 0.2 0
15.6 0.2 0
15.9 0.2 0
16.2 0.2 0
16.5 0.2 0
16.8 0.2 0
17.1 0.2 0
17.4 0.2 0
17.7 0.2 0
18 0.2 0
18.3 0.2 0
18.6 0.2 0
18.9 0.2 0
19.2 0.2 0
19.5 0.2 0
19.8 0.2 0
20.1 0.2 0
20.4 0.2 0
20.7 0.2 0
21 0.2 0
21.3 0.2 0
21.6 0.2 0
21.9 0.2 0
22.2 0.2 0
22.5 0.2 0
22.8 0.2 0
23.1 0.2 0
23.4 0.2 0
23.7 0.2 0
24 0.2 0
24.3 0.2 0
24.6 0.2 0
24.9 0.2 0
25.2 0.2 0
25.5 0.2 0
25.8 0.2 0
26.1 0.2 0
26.4 0.2 0
26.7 0.2 0
27 0.2 0
27.3 0.2 0
27.6 0.2 0
27.9 0.2 0
28.2 0.2 0
28.5 0.2 0
28.8 0.2 0
29.1 0.2 0
29.4 0.2 0
29.7 0.2 0
30 0.2 0
30.3 0.2 0
0 0.3 0
0.3 0.3 0
0.6 0.3 0
0.9 0.3 0
1.2 0.3 0
1.5 0.3 0
1.8 0.3 0
2.1 0.3 0
2.4 0.3 0
2.7 0.3 0
3 0.3 0
3.3 0.3 0
3.6 0.3 0
3.9 0.3 0
4.2 0.3 0
4.5 0.3 0
4.8 0.3 0
5.1 0.3 0
5.4 0.3 0
5.7 0.3 0
6 0.3 0
6.3 0.3 0
6.6 0.3 0
6.9 0.3 0
7.2 0.3 0
7.5 0.3 0
7.8 0.3 0
8.1 0.3 0
8.4 0.3 0
8.7 0.3 0
9 0.3 0
9.3 0.3 0
9.6 0.3 0
9.9 0.3 0
10.2 0.3 0
10.5 0.3 0
10.8 0.3 0
11.1 0.3 0
11.4 0.3 0
11.7 0.3 0
12 0.3 0
12.3 0.3 0
12.6 0.3 0
12.9 0.3 0
13.2 0.3 0
13.5 0.3 0
13.8 0.3 0
14.1 0.3 0
14.4 0.3 0
14.7 0.3 0
15 0.3 0
15.3 0.3 0
15.6 0.3 0
15.9 0.3 0
16.2 0.3 0
16.5 0.3 0
16.8 0.3 0
17.1 0.3 0
17.4 0.3 0
17.7 0.3 0
18 0.3 0
18.3 0.3 0
18.6 0.3 0
18.9 0.3 0
19.2 0.3 0
19.5 0.3 0
19.8 0.3 0
20.1 0.3 0
20.4 0.3 0
20.7 0.3 0
21 0.3 0
21.3 0.3 0
21.6 0.3 0
21.9 0.3 0
22.2 0.3 0
22.5 0.3 0
22.8 0.3 0
23.1 0.3 0
23.4 0.3 0
23.7 0.3 0
24 0.3 0
24.3 0.3 0
24.6 0.3 0
24.9 0.3 0
25.2 0.3 0
25.5 0.3 0
25.8 0.3 0
26.1 0.3 0
26.4 0.3 0
26.7 0.3 0
27 0.3 0
27.3 0.3 0
27.6 0.3 0
27.9 0.3 0
28.2 0.3 0
28.5 0.3 0
28.8 0.3 0
29.1 0.3 0
29.4 0.3 0
29.7 0.3 0
30 0.3 0
30.3 0.3 0
0 0.4 0
0.3 0.4 0
0.6 0.4 0
0.9 0.4 0
1.2 0.4 0
1.5 0.4 0
1.8 0.4 0
2.1 0.4 0
2.4 0.4 0
2.7 0.4 0
3 0.4 0
3.3 0.4 0
3.6 0.4 0
3.9 0.4 0
4.2 0.4 0
4.5 0.4 0
4.8 0.4 0
5.1 0.4 0
5.4 0.4 0
5.7 0.4 0
6 0.4 0
6.3 0.4 0
6.6 0.4 0
6.9 0.4 0
7.2 0.4 0
7.5 0.4 0
7.8 0.4 0
8.1 0.4 0
8.4 0.4 0
8.7 0.4 0
9 0.4 0
9.3 0.4 0
9.6 0.4 0
9.9 0.4 0
10.2 0.4 0
10.5 0.4 0
10.8 0.4 0
11.1 0.4 0
11.4 0.4 0
11.7 0.4 0
12 0.4 0
12.3 0.4 0
12.6 0.4 0
12.9 0.4 0
13.2 0.4 0
13.5 0.4 0
13.8 0.4 0
14.1 0.4 0
14.4 0.4 0
14.7 0.4 0
15 0.4 0
15.3 0.4 0
15.6 0.4 0
15.9 0.4 0
16.2 0.4 0
16.5 0.4 0
16.8 0.4 0
17.1 0.4 0
17.4 0.4 0
17.7 0.4 0
18 0.4 0
18.3 0.4 0
18.6 0.4 0
18.9 0.4 0
19.2 0.4 0
19.5 0.4 0
19.8 0.4 0
20.1 0.4 0
20.4 0.4 0
20.7 0.4 0
21 0.4 0
21.3 0.4 0
21.6 0.4 0
21.9 0.4 0
22.2 0.4 0
22.5 0.4 0
22.8 0.4 0
23.1 0.4 0
23.4 0.4 0
23.7 0.4 0
24 0.4 0
24.3 0.4 0
24.6 0.4 0
24.9 0.4 0
25.2 0.4 0
25.5 0.4 0
25.8 0.4 0
26.1 0.4 0
26.4 0.4 0
26.7 0.4 0
27 0.4 0
27.3 0.4 0
27.6 0.4 0
27.9 0.4 0
28.2 0.4 0
28.5 0.4 0
28.8 0.4 0
29.1 0.4 0
29.4 0.4 0
29.7 0.4 0
30 0.4 0
30.3 0.4 0
0 0.5 0
0.3 0.5 0
0.6 0.5 0
0.9 0.5 0
1.2 0.5 0
1.5 0.5 0
1.8 0.5 0
2.1 0.5 0
2.4 0.5 0
2.7 0.5 0
3 0.5 0
3.3 0.5 0
3.6 0.5 0
3.9 0.5 0
4.2 0.5 0
4.5 0.5 0
4.8 0.5 0
5.1 0.5 0
5.4 0.5 0
5.7 0.5 0
6 0.5 0
6.3 0.5 0
6.6 0.5 0
6.9 0.5 0
7.2 0.5 0
7.5 0.5 0
7.8 0.5 0
8.1 0.5 0
8.4 0.5 0
8.7 0.5 0
9 0.5 0
9.3 0.5 0
9.6 0.5 0
9.9 0.5 0
10.2 0.5 0
10.5 0.5 0
10.8 0.5 0
11.1 0.5 0
11.4 0.5 0
11.7 0.5 0
12 0.5 0
12.3 0.5 0
12.6 0.5 0
12.9 0.5 0
13.2 0.5 0
13.5 0.5 0
13.8 0.5 0
14.1 0.5 0
14.4 0.5 0
14.7 0.5 0
15 0.5 0
15.3 0.5 0
15.6 0.5 0
15.9 0.5 0
16.2 0.5 0
16.5 0.5 0
16.8 0.5 0
17.1 0.5 0
17.4 0.5 0
17.7 0.5 0
18 0.5 0
18.3 0.5 0
18.6 0.5 0
18.9 0.5 0
19.2 0.5 0
19.5 0.5 0
19.8 0.5 0
20.1 0.5 0
20.4 0.5 0
20.7 0.5 0
21 0.5 0
21.3 0.5 0
21.6 0.5 0
21.9 0.5 0
22.2 0.5 0
22.5 0.5 0
22.8 0.5 0
23.1 0.5 0
23.4 0.5 0
23.7 0.5 0
24 0.5 0
24.3 0.5 0
24.6 0.5 0
24.9 0.5 0
25.2 0.5 0
25.5 0.5 0
25.8 0.5 0
26.1 0.5 0
26.4 0.5 0
26.7 0.5 0
27 0.5 0
27.3 0.5 0
27.6 0.5 0
27.9 0.5 0
28.2 0.5 0
28.5 0.5 0
28.8 0.5 0
29.1 0.5 0
29.4 0.5 0
29.7 0.5 0
30 0.5 0
30.3 0.5 0
0 0.6 0
0.3 0.6 0
0.6 0.6 0
0.9 0.6 0
1.2 0.6 0
1.5 0.6 0
1.8 0.6 0
2.1 0.6 0
2.4 0.6 0
2.7 0.6 0
3 0.6 0
3.3 0.6 0
3.6 0.6 0
3.9 0.6 0
4.2 0.6 0
4.5 0.6 0
4.8 0.6 0
5.1 0.6 0
5.4 0.6 0
5.7 0.6 0
6 0.6 0
6.3 0.6 0
6.6 0.6 0
6.9 0.6 0
7.2 0.6 0
7.5 0.6 0
7.8 0.6 0
8.1 0.6 0
8.4 0.6 0
8.7 0.6 0
9 0.6 0
9.3 0.6 0
9.6 0.6 0
9.9 0.6 0
10.2 0.6 0
10.5 0.6 0
10.8 0.6 0
11.1 0.6 0
11.4 0.6 0
11.7 0.6 0
12 0.6 0
12.3 0.6 0
12.6 0.6 0
12.9 0.6 0
13.2 0.6 0
13.5 0.6 0
13.8 0.6 0
14.1 0.6 0
14.4 0.6 0
14.7 0.6 0
15 0.6 0
15.3 0.6 0
15.6 0.6 0
15.9 0.6 0
16.2 0.6 0
16.5 0.6 0
16.8 0.6 0
17.1 0.6 0
17.4 0.6 0
17.7 0.6 0
18 0.6 0
18.3 0.6 0
18.6 0.6 0
18.9 0.6 0
19.2 0.6 0
19.5 0.6 0
19.8 0.6 0
20.1 0.6 0
20.4 0.6 0
20.7 0.6 0
21 0.6 0
21.3 0.6 0
21.6 0.6 0
21.9 0.6 0
22.2 0.6 0
22.5 0.6 0
22.8 0.6 0
23.1 0.6 0
23.4 0.6 0
23.7 0.6 0
24 0.6 0
24.3 0.6 0
24.6 0.6 0
24.9 0.6 0
25.2 0.6 0
25.5 0.6 0
25.8 0.6 0
26.1 0.6 0
26.4 0.6 0
26.7 0.6 0
27 0.6 0
27.3 0.6 0
27.6 0.6 0
27.9 0.6 0
28.2 0.6 0
28.5 0.6 0
28.8 0.6 0
29.1 0.6 0
29.4 0.6 0
29.7 0.6 0
30 0.6 0
30.3 0.6 0
0 0.7 0
0.3 0.7 0
0.6 0.7 0
0.9 0.7 0
1.2 0.7 0
1.5 0.7 0
1.8 0.7 0
2.1 0.7 0
2.4 0.7 0
2.7 0.7 0
3 0.7 0
3.3 0.7 0
3.6 0.7 0
3.9 0.7 0
4.2 0.7 0
4.5 0.7 0
4.8 0.7 0
5.1 0.7 0
5.4 0.7 0
5.7 0.7 0
6 0.7 0
6.3 0.7 0
6.6 0.7 0
6.9 0.7 0
7.2 0.7 0
7.5 0.7 0
7.8 0.7 0
8.1 0.7 0
8.4 0.7 0
8.7 0.7 0
9 0.7 0
9.3 0.7 0
9.6 0.7 0
9.9 0.7 0
10.2 0.7 0
10.5 0.7 0
10.8 0.7 0
11.1 0.7 0
11.4 0.7 0
11.7 0.7 0
12 0.7 0
12.3 0.7 0
12.6 0.7 0
12.9 0.7 0
13.2 0.7 0
13.5 0.7 0
13.8 0.7 0
14.1 0.7 0
14.4 0.7 0
14.7 0.7 0
15 0.7 0
15.3 0.7 0
15.6 0.7 0
15.9 0.7 0
16.2 0.7 0
16.5 0.7 0
16.8 0.7 0
17.1 0.7 0
17.4 0.7 0
17.7 0.7 0
18 0.7 0
18.3 0.7 0
18.6 0.7 0
18.9 0.7 0
19.2 0.7 0
19.5 0.7 0
19.8 0.7 0
20.1 0.7 0
20.4 0.7 0
20.7 0.7 0
21 0.7 0
21.3 0.7 0
21.6 0.7 0
21.9 0.7 0
22.2 0.7 0
22.5 0.7 0
22.8 0.7 0
23.1 0.7 0
23.4 0.7 0
23.7 0.7 0
24 0.7 0
24.3 0.7 0
24.6 0.7 0
24.9 0.7 0
25.2 0.7 0
25.5 0.7 0
25.8 0.7 0
26.1 0.7 0
26.4 0.7 0
26.7 0.7 0
27 0.7 0
27.3 0.7 0
27.6 0.7 0
27.9 0.7 0
28.2 0.7 0
28.5 0.7 0
28.8 0.7 0
29.1 0.7 0
29.4 0.7 0
29.7 0.7 0
30 0.7 0
30.3 0.7 0
0 0.8 0
0.3 0.8 0
0.6 0.8 0
0.9 0.8 0
1.2 0.8 0
1.5 0.8 0
1.8 0.8 0
2.1 0.8 0
2.4 0.8 0
2.7 0.8 0
3 0.8 0
3.3 0.8 0
3.6 0.8 0
3.9 0.8 0
4.2 0.8 0
4.5 0.8 0
4.8 0.8 0
5.1 0.8 0
5.4 0.8 0
5.7 0.8 0
6 0.8 0
6.3 0.8 0
6.6 0.8 0
6.9 0.8 0
7.2 0.8 0
7.5 0.8 0
7.8 0.8 0
8.1 0.8 0
8.4 0.8 0
8.7 0.8 0
9 0.8 0
9.3 0.8 0
9.6 0.8 0
9.9 0.8 0
10.2 0.8 0
10.5 0.8 0
10.8 0.8 0
11.1 0.8 0
11.4 0.8 0
11.7 0.8 0
12 0.8 0
12.3 0.8 0
12.6 0.8 0
12.9 0.8 0
13.2 0.8 0
13.5 0.8 0
13.8 0.8 0
14.1 0.8 0
14.4 0.8 0
14.7 0.8 0
15 0.8 0
15.3 0.8 0
15.6 0.8 0
15.9 0.8 0
16.2 0.8 0
16.5 0.8 0
16.8 0.8 0
17.1 0.8 0
17.4 0.8 0
17.7 0.8 0
18 0.8 0
18.3 0.8 0
18.6 0.8 0
18.9 0.8 0
19.2 0.8 0
19.5 0.8 0
19.8 0.8 0
20.1 0.8 0
20.4 0.8 0
20.7 0.8 0
21 0.8 0
21.3 0.8 0
21.6 0.8 0
21.9 0.8 0
22.2 0.8 0
22.5 0.8 0
22.8 0.8 0
23.1 0.8 0
23.4 0.8 0
23.7 0.8 0
24 0.8 0
24.3 0.8 0
24.6 0.8 0
24.9 0.8 0
25.2 0.8 0
25.5 0.8 0
25.8 0.8 0
26.1 0.8 0
26.4 0.8 0
26.7 0.8 0
27 0.8 0
27.3 0.8 0
27.6 0.8 0
27.9 0.8 0
28.2 0.8 0
28.5 0.8 0
28.8 0.8 0
29.1 0.8 0
29.4 0.8 0
29.7 0.8 0
30 0.8 0
30.3 0.8 0
0 0.9 0
0.3 0.9 0
0.6 0.9 0
0.9 0.9 0
1.2 0.9 0
1.5 0.9 0
1.8 0.9 0
2.1 0.9 0
2.4 0.9 0
2.7 0.9 0
3 0.9 0
3.3 0.9 0
3.6 0.9 0
3.9 0.9 0
4.2 0.9 0
4.5 0.9 0
4.8 0.9 0
5.1 0.9 0
5.4 0.9 0
5.7 0.9 0
6 0.9 0
6.3 0.9 0
6.6 0.9 0
6.9 0.9 0
7.2 0.9 0
7.5 0.9 0
7.8 0.9 0
8.1 0.9 0
8.4 0.9 0
8.7 0.9 0
9 0.9 0
9.3 0.9 0
9.6 0.9 0
9.9 0.9 0
10.2 0.9 0
10.5 0.9 0
10.8 0.9 0
11.1 0.9 0
11.4 0.9 0
11.7 0.9 0
12 0.9 0
12.3 0.9 0
12.6 0.9 0
12.9 0.9 0
13.2 0.9 0
13.5 0.9 0
13.8 0.9 0
14.1 0.9 0
14.4 0.9 0
14.7 0.9 0
15 0.9 0
15.3 0.9 0
15.6 0.9 0
15.9 0.9 0
16.2 0.9 0
16.5 0.9 0
16.8 0.9 0
17.1 0.9 0
17.4 0.9 0
17.7 0.9 0
18 0.9 0
18.3 0.9 0
18.6 0.9 0
18.9 0.9 0
19.2 0.9 0
19.5 0.9 0
19.8 0.9 0
20.1 0.9 0
20.4 0.9 0
20.7 0.9 0
21 0.9 0
21.3 0.9 0
21.6 0.9 0
21.9 0.9 0
22.2 0.9 0
22.5 0.9 0
22.8 0.9 0
23.1 0.9 0
23.4 0.9 0
23.7 0.9 0
24 0.9 0
24.3 0.9 0
24.6 0.9 0
24.9 0.9 0
25.2 0.9 0
25.5 0.9 0
25.8 0.9 0
26.1 0.9 0
26.4 0.9 0
26.7 0.9 0
27 0.9 0
27.3 0.9 0
27.6 0.9 0
27.9 0.9 0
28.2 0.9 0
28.5 0.9 0
28.8 0.9 0
29.1 0.9 0
29.4 0.9 0
29.7 0.9 0
30 0.9 0
30.3 0.9 0
0 1 0
0.3 1 0
0.6 1 0
0.9 1 0
1.2 1 0
1.5 1 0
1.8 1 0
2.1 1 0
2.4 1 0
2.7 1 0
3 1 0
3.3 1 0
3.6 1 0
3.9 1 0
4.2 1 0
4.5 1 0
4.8 1 0
5.1 1 0
5.4 1 0
5.7 1 0
6 1 0
6.3 1 0
6.6 1 0
6.9 1 0
7.2 1 0
7.5 1 0
7.8 1 0
8.1 1 0
8.4 1 0
8.7 1 0
9 1 0
9.3 1 0
9.6 1 0
9.9 1 0
10.2 1 0
10.5 1 0
10.8 1 0
11.1 1 0
11.4 1 0
11.7 1 0
12 1 0
12.3 1 0
12.6 1 0
12.9 1 0
13.2 1 0
13.5 1 0
13.8 1 0
14.1 1 0
14.4 1 0
14.7 1 0
15 1 0
15.3 1 0
15.6 1 0
15.9 1 0
16.2 1 0
16.5 1 0
16.8 1 0
17.1 1 0
17.4 1 0
17.7 1 0
18 1 0
18.3 1 0
18.6 1 0
18.9 1 0
19.2 1 0
19.5 1 0
19.8 1 0
20.1 1 0
20.4 1 0
20.7 1 0
21 1 0
21.3 1 0
21.6 1 0
21.9 1 0
22.2 1 0
22.5 1 0
22.8 1 0
23.1 1 0
23.4 1 0
23.7 1 0
24 1 0
24.3 1 0
24.6 1 0
24.9 1 0
25.2 1 0
25.5 1 0
25.8 1 0
26.1 1 0
26.4 1 0
26.7 1 0
27 1 0
27.3 1 0
27.6 1 0
27.9 1 0
28.2 1 0
28.5 1 0
28.8 1 0
29.1 1 0
29.4 1 0
29.7 1 0
30 1 0
30.3 1 0
0 1.1 0
0.3 1.1 0
0.6 1.1 0
0.9 1.1 0
1.2 1.1 0
1.5 1.1 0
1.8 1.1 0
2.1 1.1 0
2.4 1.1 0
2.7 1.1 0
3 1.1 0
3.3 1.1 0
3.6 1.1 0
3.9 1.1 0
4.2 1.1 0
4.5 1.1 0
4.8 1.1 0
5.1 1.1 0
5.4 1.1 0
5.7 1.1 0
6 1.1 0
6.3 1.1 0
6.6 1.1 0
6.9 1.1 0
7.2 1.1 0
7.5 1.1 0
7.8 1.1 0
8.1 1.1 0
8.4 1.1 0
8.7 1.1 0
9 1.1 0
9.3 1.1 0
9.6 1.1 0
9.9 1.1 0
10.2 1.1 0
10.5 1.1 0
10.8 1.1 0
11.1 1.1 0
11.4 1.1 0
11.7 1.1 0
12 1.1 0
12.3 1.1 0
12.6 1.1 0
12.9 1.1 0
13.2 1.1 0
13.5 1.1 0
13.8 1.1 0
14.1 1.1 0
14.4 1.1 0
14.7 1.1 0
15 1.1 0
15.3 1.1 0
15.6 1.1 0
15.9 1.1 0
16.2 1.1 0
16.5 1.1 0
16.8 1.1 0
17.1 1.1 0
17.4 1.1 0
17.7 1.1 0
18 1.1 0
18.3 1.1 0
18.6 1.1 0
18.9 1.1 0
19.2 1.1 0
19.5 1.1 0
19.8 1.1 0
20.1 1.1 0
20.4 1.1 0
20.7 1.1 0
21 1.1 0
21.3 1.1 0
21.6 1.1 0
21.9 1.1 0
22.2 1.1 0
22.5 1.1 0
22.8 1.1 0
23.1 1.1 0
23.4 1.1 0
23.7 1.1 0
24 1.1 0
24.3 1.1 0
24.6 1.1 0
24.9 1.1 0
25.2 1.1 0
25.5 1.1 0
25.8 1.1 0
26.1 1.1 0
26.4 1.1 0
26.7 1.1 0
27 1.1 0
27.3 1.1 0
27.6 1.1 0
27.9 1.1 0
28.2 1.1 0
28.5 1.1 0
28.8 1.1 0
29.1 1.1 0
29.4 1.1 0
29.7 1.1 0
30 1.1 0
30.3 1.1 0

POINT_DATA 1224

SCALARS pressure double
LOOKUP_TABLE pressure
1.34581
1.34581
1.2793
1.23222
1.18927
1.14961
1.11359
1.0812
1.0521
1.02576
1.00165
0.979301
0.958329
0.938447
0.91944
0.901149
0.883457
0.86628
0.849559
0.833253
0.817334
0.801788
0.786605
0.771773
0.757279
0.743104
0.729217
0.715586
0.702169
0.688927
0.675822
0.662819
0.64989
0.637013
0.624169
0.611348
0.598541
0.585742
0.572948
0.560157
0.547367
0.534579
0.52179
0.509002
0.496214
0.483426
0.470638
0.45785
0.445062
0.432274
0.419486
0.406698
0.39391
0.381122
0.368334
0.355546
0.342758
0.32997
0.317182
0.304394
0.291606
0.278818
0.26603
0.253242
0.240454
0.227666
0.214878
0.20209
0.189302
0.176514
0.163726
0.150938
0.13815
0.125362
0.112574
0.099786
0.0869981
0.0742101
0.0614221
0.0486341
0.0358461
0.0230581
0.0102702
-0.00251781
-0.0153058
-0.0280938
-0.0408817
-0.0536697
-0.0664577
-0.0792457
-0.0920336
-0.104822
-0.11761
-0.130398
-0.143186
-0.155973
-0.168762
-0.181549
-0.194337
-0.207126
-0.219886
0.219886
1.34581
1.34581
1.2793
1.23222
1.18927
1.14961
1.11359
1.0812
1.0521
1.02576
1.00165
0.979301
0.958329
0.938447
0.91944
0.901149
0.883457
0.86628
0.849559
0.833253
0.817334
0.801788
0.786605
0.771773
0.757279
0.743104
0.729217
0.715586
0.702169
0.688927
0.675822
0.662819
0.64989
0.637013
0.624169
0.611348
0.598541
0.585742
0.572948
0.560157
0.547367
0.534579
0.52179
0.509002
0.496214
0.483426
0.470638
0.45785
0.445062
0.432274
0.419486
0.406698
0.39391
0.381122
0.368334
0.355546
0.342758
0.32997
0.317182
0.304394
0.291606
0.278818
0.26603
0.253242
0.240454
0.227666
0.214878
0.20209
0.189302
0.176514
0.163726
0.150938
0.13815
0.125362
0.112574
0.099786
0.0869981
0.0742101
0.0614221
0.0486341
0.0358461
0.0230581
0.0102702
-0.00251781
-0.0153058
-0.0280938
-0.0408817
-0.0536697
-0.0664577
-0.0792457
-0.0920336
-0.104822
-0.11761
-0.130398
-0.143186
-0.155973
-0.168762
-0.181549
-0.194337
-0.207126
-0.219886
0.219886
1.32516
1.32516
1.2775
1.23253
1.18998
1.15038
1.11429
1.08179
1.05258
1.02613
1.00194
0.979522
0.958501
0.938584
0.919551
0.901241
0.883534
0.866346
0.849615
0.833299
0.817373
0.801819
0.786628
0.771789
0.75729
0.74311
0.72922
0.715586
0.702168
0.688925
0.67582
0.662817
0.649889
0.637011
0.624168
0.611348
0.598541
0.585742
0.572948
0.560157
0.547367
0.534579
0.52179
0.509002
0.496214
0.483426
0.470638
0.45785
0.445062
0.432274
0.419486
0.406698
0.39391
0.381122
0.368334
0.355546
0.342758
0.32997
0.317182
0.304394
0.291606
0.278818
0.26603
0.253242
0.240454
0.227666
0.214878
0.20209
0.189302
0.176514
0.163726
0.150938
0.13815
0.125362
0.112574
0.099786
0.0869981
0.0742101
0.0614221
0.0486341
0.0358461
0.0230581
0.0102702
-0.00251781
-0.0153058
-0.0280938
-0.0408817
-0.0536697
-0.0664577
-0.0792457
-0.0920336
-0.104822
-0.11761
-0.130398
-0.143186
-0.155973
-0.168761
-0.181549
-0.194337
-0.207125
-0.219885
0.219885
1.31077
1.31077
1.27499
1.23292
1.19111
1.15165
1.11546
1.08279
1.05337
1.02674
1.0024
0.979863
0.958757
0.938778
0.919701
0.901359
0.88363
0.866424
0.84968
0.833354
0.817419
0.801858
0.78666
0.771815
0.75731
0.743125
0.729231
0.715593
0.702172
0.688928
0.675821
0.662818
0.649889
0.637011
0.624168
0.611348
0.598541
0.585742
0.572948
0.560157
0.547367
0.534579
0.52179
0.509002
0.496214
0.483426
0.470638
0.45785
0.445062
0.432274
0.419486
0.406698
0.39391
0.381122
0.368334
0.355546
0.342758
0.32997
0.317182
0.304394
0.291606
0.278818
0.26603
0.253242
0.240454
0.227666
0.214878
0.20209
0.189302
0.176514
0.163726
0.150938
0.13815
0.125362
0.112574
0.099786
0.0869981
0.0742101
0.0614221
0.0486341
0.0358461
0.0230581
0.0102702
-0.00251781
-0.0153058
-0.0280938
-0.0408817
-0.0536697
-0.0664577
-0.0792457
-0.0920336
-0.104822
-0.11761
-0.130398
-0.143186
-0.155973
-0.168761
-0.181548
-0.194335
-0.207115
-0.21988
0.21988
1.30208
1.30208
1.27298
1.23318
1.19204
1.15273
1.1165
1.08368
1.0541
1.02732
1.00284
0.980208
0.959023
0.938986
0.919866
0.901492
0.88374
0.866517
0.84976
0.833424
0.817482
0.801914
0.78671
0.77186
0.757349
0.743158
0.729258
0.715615
0.702189
0.68894
0.67583
0.662824
0.649893
0.637014
0.62417
0.611348
0.598541
0.585742
0.572948
0.560157
0.547367
0.534579
0.52179
0.509002
0.496214
0.483426
0.470638
0.45785
0.445062
0.432274
0.419486
0.406698
0.39391
0.381122
0.368334
0.355546
0.342758
0.32997
0.317182
0.304394
0.291606
0.278818
0.26603
0.253242
0.240454
0.227666
0.214878
0.20209
0.189302
0.176514
0.163726
0.150938
0.13815
0.125362
0.112574
0.099786
0.0869981
0.0742101
0.0614221
0.0486341
0.0358461
0.0230581
0.0102702
-0.00251781
-0.0153058
-0.0280938
-0.0408817
-0.0536697
-0.0664577
-0.0792457
-0.0920336
-0.104822
-0.11761
-0.130398
-0.143186
-0.155973
-0.168761
-0.181547
-0.194331
-0.207097
-0.219872
0.219872
1.298
1.298
1.2719
1.2333
1.19253
1.15331
1.11706
1.08418
1.05452
1.02765
1.00311
0.980415
0.959187
0.939116
0.919972
0.90158
0.883813
0.866581
0.849816
0.833475
0.817527
0.801956
0.786749
0.771895
0.757381
0.743186
0.729282
0.715634
0.702205
0.688952
0.675839
0.66283
0.649897
0.637017
0.624172
0.611349
0.598542
0.585742
0.572948
0.560157
0.547367
0.534579
0.52179
0.509002
0.496214
0.483426
0.470638
0.45785
0.445062
0.432274
0.419486
0.406698
0.39391
0.381122
0.368334
0.355546
0.342758
0.32997
0.317182
0.304394
0.291606
0.278818
0.26603
0.253242
0.240454
0.227666
0.214878
0.20209
0.189302
0.176514
0.163726
0.150938
0.13815
0.125362
0.112574
0.099786
0.0869981
0.0742101
0.0614221
0.0486341
0.0358461
0.0230581
0.0102702
-0.00251781
-0.0153058
-0.0280938
-0.0408817
-0.0536697
-0.0664577
-0.0792457
-0.0920336
-0.104822
-0.11761
-0.130398
-0.143185
-0.155973
-0.168761
-0.181547
-0.194328
-0.207082
-0.219866
0.219866
1.298
1.298
1.2719
1.2333
1.19253
1.15331
1.11706
1.08418
1.05452
1.02765
1.00311
0.980415
0.959187
0.939116
0.919972
0.90158
0.883813
0.866581
0.849816
0.833475
0.817527
0.801956
0.786749
0.771895
0.757381
0.743186
0.729282
0.715634
0.702205
0.688952
0.675839
0.66283
0.649897
0.637017
0.624172
0.611349
0.598542
0.585742
0.572948
0.560157
0.547367
0.534579
0.52179
0.509002
0.496214
0.483426
0.470638
0.45785
0.445062
0.432274
0.419486
0.406698
0.39391
0.381122
0.368334
0.355546
0.342758
0.32997
0.317182
0.304394
0.291606
0.278818
0.26603
0.253242
0.240454
0.227666
0.214878
0.20209
0.189302
0.176514
0.163726
0.150938
0.13815
0.125362
0.112574
0.099786
0.0869981
0.0742101
0.0614221
0.0486341
0.0358461
0.0230581
0.0102702
-0.00251781
-0.0153058
-0.0280938
-0.0408817
-0.0536697
-0.0664577
-0.0792457
-0.0920336
-0.104822
-0.11761
-0.130398
-0.143185
-0.155973
-0.168761
-0.181547
-0.194328
-0.207082
-0.219866
0.219866
1.30208
1.30208
1.27298
1.23318
1.19204
1.15273
1.1165
1.08368
1.0541
1.02732
1.00284
0.980208
0.959023
0.938986
0.919866
0.901492
0.88374
0.866517
0.84976
0.833424
0.817482
0.801914
0.78671
0.77186
0.757349
0.743158
0.729258
0.715615
0.702189
0.68894
0.67583
0.662824
0.649893
0.637014
0.62417
0.611348
0.598541
0.585742
0.572948
0.560157
0.547367
0.534579
0.52179
0.509002
0.496214
0.483426
0.470638
0.45785
0.445062
0.432274
0.419486
0.406698
0.39391
0.381122
0.368334
0.355546
0.342758
0.32997
0.317182
0.304394
0.291606
0.278818
0.26603
0.253242
0.240454
0.227666
0.214878
0.20209
0.189302
0.176514
0.163726
0.150938
0.13815
0.125362
0.112574
0.099786
0.0869981
0.0742101
0.0614221
0.0486341
0.0358461
0.0230581
0.0102702
-0.00251781
-0.0153058
-0.0280938
-0.0408817
-0.0536697
-0.0664577
-0.0792457
-0.0920336
-0.104822
-0.11761
-0.130398
-0.143186
-0.155973
-0.168761
-0.181547
-0.194331
-0.207097
-0.219872
0.219872
1.31077
1.31077
1.27499
1.23292
1.19111
1.15165
1.11546
1.08279
1.05337
1.02674
1.0024
0.979863
0.958757
0.938778
0.919701
0.901359
0.88363
0.866424
0.84968
0.833354
0.817419
0.801858
0.78666
0.771815
0.75731
0.743125
0.729231
0.715593
0.702172
0.688928
0.675821
0.662818
0.649889
0.637011
0.624168
0.611348
0.598541
0.585742
0.572948
0.560157
0.547367
0.534579
0.52179
0.509002
0.496214
0.483426
0.470638
0.45785
0.445062
0.432274
0.419486
0.406698
0.39391
0.381122
0.368334
0.355546
0.342758
0.32997
0.317182
0.304394
0.291606
0.278818
0.26603
0.253242
0.240454
0.227666
0.214878
0.20209
0.189302
0.176514
0.163726
0.150938
0.13815
0.125362
0.112574
0.099786
0.0869981
0.0742101
0.0614221
0.0486341
0.0358461
0.0230581
0.0102702
-0.00251781
-0.0153058
-0.0280938
-0.0408817
-0.0536697
-0.0664577
-0.0792457
-0.0920336
-0.104822
-0.11761
-0.130398
-0.143186
-0.155973
-0.168761
-0.181548
-0.194335
-0.207115
-0.21988
0.21988
1.32516
1.32516
1.2775
1.23253
1.18998
1.15038
1.11429
1.08179
1.05258
1.02613
1.00194
0.979522
0.958501
0.938584
0.919551
0.901241
0.883534
0.866346
0.849615
0.833299
0.817373
0.801819
0.786628
0.771789
0.75729
0.74311
0.72922
0.715586
0.702168
0.688925
0.67582
0.662817
0.649889
0.637011
0.624168
0.611348
0.598541
0.585742
0.572948
0.560157
0.547367
0.534579
0.52179
0.509002
0.496214
0.483426
0.470638
0.45785
0.445062
0.432274
0.419486
0.406698
0.39391
0.381122
0.368334
0.355546
0.342758
0.32997
0.317182
0.304394
0.291606
0.278818
0.26603
0.253242
0.240454
0.227666
0.214878
0.20209
0.189302
0.176514
0.163726
0.150938
0.13815
0.125362
0.112574
0.099786
0.0869981
0.0742101
0.0614221
0.0486341
0.0358461
0.0230581
0.0102702
-0.00251781
-0.0153058
-0.0280938
-0.0408817
-0.0536697
-0.0664577
-0.0792457
-0.0920336
-0.104822
-0.11761
-0.130398
-0.143186
-0.155973
-0.168761
-0.181549
-0.194337
-0.207125
-0.219885
0.219885
1.34581
1.34581
1.2793
1.23222
1.18927
1.14961
1.11359
1.0812
1.0521
1.02576
1.00165
0.979301
0.958329
0.938447
0.91944
0.901149
0.883457
0.86628
0.849559
0.833253
0.817334
0.801788
0.786605
0.771773
0.757279
0.743104
0.729217
0.715586
0.702169
0.688927
0.675822
0.662819
0.64989
0.637013
0.624169
0.611348
0.598541
0.585742
0.572948
0.560157
0.547367
0.534579
0.52179
0.509002
0.496214
0.483426
0.470638
0.45785
0.445062
0.432274
0.419486
0.406698
0.39391
0.381122
0.368334
0.355546
0.342758
0.32997
0.317182
0.304394
0.291606
0.278818
0.26603
0.253242
0.240454
0.227666
0.214878
0.20209
0.189302
0.176514
0.163726
0.150938
0.13815
0.125362
0.112574
0.099786
0.0869981
0.0742101
0.0614221
0.0486341
0.0358461
0.0230581
0.0102702
-0.00251781
-0.0153058
-0.0280938
-0.0408817
-0.0536697
-0.0664577
-0.0792457
-0.0920336
-0.104822
-0.11761
-0.130398
-0.143186
-0.155973
-0.168762
-0.181549
-0.194337
-0.207126
-0.219886
0.219886
1.34581
1.34581
1.2793
1.23222
1.18927
1.14961
1.11359
1.0812
1.0521
1.02576
1.00165
0.979301
0.958329
0.938447
0.91944
0.901149
0.883457
0.86628
0.849559
0.833253
0.817334
0.801788
0.786605
0.771773
0.757279
0.743104
0.729217
0.715586
0.702169
0.688927
0.675822
0.662819
0.64989
0.637013
0.624169
0.611348
0.598541
0.585742
0.572948
0.560157
0.547367
0.534579
0.52179
0.509002
0.496214
0.483426
0.470638
0.45785
0.445062
0.432274
0.419486
0.406698
0.39391
0.381122
0.368334
0.355546
0.342758
0.32997
0.317182
0.304394
0.291606
0.278818
0.26603
0.253242
0.240454
0.227666
0.214878
0.20209
0.189302
0.176514
0.163726
0.150938
0.13815
0.125362
0.112574
0.099786
0.0869981
0.0742101
0.0614221
0.0486341
0.0358461
0.0230581
0.0102702
-0.00251781
-0.0153058
-0.0280938
-0.0408817
-0.0536697
-0.0664577
-0.0792457
-0.0920336
-0.104822
-0.11761
-0.130398
-0.143186
-0.155973
-0.168762
-0.181549
-0.194337
-0.207126
-0.219886
0.219886
SCALARS phi double
LOOKUP_TABLE phi
1
1
1
0.999997
0.999968
0.999945
0.999863
0.999503
0.999259
0.99993
1.00012
0.994566
0.976433
0.941523
0.890354
0.827077
0.75699
0.684625
0.613053
0.544047
0.478528
0.416967
0.359624
0.306677
0.258267
0.214511
0.175489
0.141224
0.111659
0.0866405
0.065912
0.0491198
0.035834
0.0255762
0.0178523
0.0121825
0.00812603
0.00529748
0.00337519
0.00210175
0.00127926
0.000761188
0.000442853
0.000251973
0.000140241
7.63713e-05
4.07042e-05
2.12383e-05
1.08516e-05
5.43114e-06
2.66338e-06
1.2801e-06
6.03189e-07
2.78729e-07
1.26344e-07
5.61941e-08
2.45307e-08
1.0513e-08
4.42445e-09
1.82901e-09
7.42864e-10
2.96513e-10
1.16339e-10
4.48801e-11
1.70267e-11
6.35408e-12
2.33299e-12
8.42959e-13
2.99792e-13
1.04965e-13
3.61878e-14
1.22874e-14
4.10973e-15
1.35428e-15
4.39762e-16
1.4074e-16
4.44e-17
1.38097e-17
4.23538e-18
1.28108e-18
3.82207e-19
1.12494e-19
3.26684e-20
9.36179e-21
2.64779e-21
7.39195e-22
2.03725e-22
5.54365e-23
1.4896e-23
3.95292e-24
1.03609e-24
2.68259e-25
6.86187e-26
1.73425e-26
4.33122e-27
1.06902e-27
2.60786e-28
6.28887e-29
1.49919e-29
3.53751e-30
7.83105e-31
7.83105e-31
1
1
1
0.999997
0.999968
0.999945
0.999863
0.999503
0.999259
0.99993
1.00012
0.994566
0.976433
0.941523
0.890354
0.827077
0.75699
0.684625
0.613053
0.544047
0.478528
0.416967
0.359624
0.306677
0.258267
0.214511
0.175489
0.141224
0.111659
0.0866405
0.065912
0.0491198
0.035834
0.0255762
0.0178523
0.0121825
0.00812603
0.00529748
0.00337519
0.00210175
0.00127926
0.000761188
0.000442853
0.000251973
0.000140241
7.63713e-05
4.07042e-05
2.12383e-05
1.08516e-05
5.43114e-06
2.66338e-06
1.2801e-06
6.03189e-07
2.78729e-07
1.26344e-07
5.61941e-08
2.45307e-08
1.0513e-08
4.42445e-09
1.82901e-09
7.42864e-10
2.96513e-10
1.16339e-10
4.48801e-11
1.70267e-11
6.35408e-12
2.33299e-12
8.42959e-13
2.99792e-13
1.04965e-13
3.61878e-14
1.22874e-14
4.10973e-15
1.35428e-15
4.39762e-16
1.4074e-16
4.44e-17
1.38097e-17
4.23538e-18
1.28108e-18
3.82207e-19
1.12494e-19
3.26684e-20
9.36179e-21
2.64779e-21
7.39195e-22
2.03725e-22
5.54365e-23
1.4896e-23
3.95292e-24
1.03609e-24
2.68259e-25
6.86187e-26
1.73425e-26
4.33122e-27
1.06902e-27
2.60786e-28
6.28887e-29
1.49919e-29
3.53751e-30
7.83105e-31
7.83105e-31
0.999998
1
0.999984
0.999923
0.99978
0.999535
0.99916
0.998566
0.997739
0.996889
0.996078
0.994508
0.990264
0.980886
0.964322
0.939581
0.906839
0.867143
0.821976
0.772887
0.72124
0.668088
0.614156
0.559892
0.50559
0.451518
0.398043
0.345703
0.295212
0.247409
0.203157
0.16322
0.128156
0.0982538
0.0735054
0.0536362
0.0381636
0.0264754
0.0179076
0.0118108
0.00759697
0.00476677
0.00291844
0.00174404
0.00101762
0.000579955
0.000322952
0.000175783
9.35567e-05
4.8707e-05
2.48134e-05
1.23742e-05
6.04281e-06
2.89072e-06
1.35508e-06
6.22673e-07
2.80566e-07
1.24001e-07
5.37737e-08
2.28873e-08
9.56374e-09
3.92457e-09
1.582e-09
6.26596e-10
2.4392e-10
9.33464e-11
3.5127e-11
1.30012e-11
4.73395e-12
1.69613e-12
5.98114e-13
2.0763e-13
7.0969e-14
2.38893e-14
7.92102e-15
2.58751e-15
8.3289e-16
2.64226e-16
8.26265e-17
2.54739e-17
7.74415e-18
2.3218e-18
6.86622e-19
2.00317e-19
5.76621e-20
1.63794e-20
4.59202e-21
1.27077e-21
3.47173e-22
9.36482e-23
2.49449e-23
6.56221e-24
1.70512e-24
4.37675e-25
1.10991e-25
2.78112e-26
6.88633e-27
1.68523e-27
4.07611e-28
9.75815e-29
2.18535e-29
2.18535e-29
1.00001
0.999992
0.99954
0.998615
0.997207
0.995315
0.992957
0.990147
0.98691
0.983317
0.979471
0.975389
0.970856
0.965373
0.958242
0.948716
0.936165
0.920178
0.900595
0.877492
0.851104
0.821717
0.789548
0.754637
0.716794
0.675639
0.630729
0.581772
0.528838
0.472526
0.414006
0.354927
0.297203
0.242742
0.193183
0.149699
0.112904
0.0828609
0.0591736
0.0411238
0.027819
0.0183231
0.011755
0.00734816
0.0044777
0.00266097
0.00154287
0.000873206
0.000482612
0.000260595
0.000137534
7.09764e-05
3.58313e-05
1.77023e-05
8.56226e-06
4.05606e-06
1.88252e-06
8.56348e-07
3.81934e-07
1.6707e-07
7.17008e-08
3.01996e-08
1.24872e-08
5.07037e-09
2.02233e-09
7.92542e-10
3.05257e-10
1.15584e-10
4.3035e-11
1.57597e-11
5.67779e-12
2.01285e-12
7.02336e-13
2.41252e-13
8.15981e-14
2.71807e-14
8.91864e-15
2.88322e-15
9.18495e-16
2.88387e-16
8.92588e-17
2.72381e-17
8.19644e-18
2.43258e-18
7.12149e-19
2.05685e-19
5.86177e-20
1.64859e-20
4.5763e-21
1.254e-21
3.39248e-22
9.06221e-23
2.39058e-23
6.22843e-24
1.60293e-24
4.07534e-25
1.02371e-25
2.54103e-26
6.23289e-27
1.51282e-27
3.42916e-28
3.42916e-28
1.00143
0.99857
0.991252
0.98188
0.971566
0.96086
0.950051
0.939312
0.928755
0.918463
0.908502
0.898916
0.889707
0.880808
0.872073
0.863279
0.854151
0.844392
0.833723
0.821914
0.808804
0.794288
0.778265
0.760541
0.740727
0.718156
0.691887
0.660827
0.623971
0.580703
0.531072
0.475948
0.416999
0.35648
0.296903
0.240666
0.189729
0.145414
0.108334
0.0784578
0.0552455
0.0378334
0.0252076
0.0163474
0.0103234
0.00635126
0.00380868
0.0022273
0.00127082
0.000707788
0.000384983
0.000204598
0.000106287
5.39965e-05
2.68379e-05
1.30559e-05
6.21888e-06
2.90159e-06
1.3266e-06
5.9454e-07
2.61283e-07
1.12636e-07
4.76451e-08
1.97822e-08
8.06447e-09
3.22888e-09
1.27006e-09
4.90924e-10
1.86525e-10
6.9679e-11
2.55989e-11
9.25116e-12
3.28951e-12
1.15113e-12
3.96522e-13
1.3448e-13
4.49141e-14
1.47751e-14
4.78835e-15
1.52908e-15
4.81222e-16
1.49282e-16
4.56553e-17
1.37681e-17
4.09469e-18
1.20118e-18
3.47616e-19
9.92577e-20
2.79682e-20
7.77791e-21
2.13512e-21
5.7863e-22
1.54831e-22
4.09118e-23
1.06765e-23
2.75206e-24
7.0078e-25
1.76301e-25
4.38247e-26
1.0777e-26
2.47218e-27
2.47218e-27
1.0456
0.954401
0.887723
0.838674
0.801641
0.772861
0.749886
0.731119
0.715499
0.702298
0.691
0.681229
0.672698
0.665181
0.658486
0.652436
0.646858
0.641573
0.636406
0.63119
0.62579
0.620099
0.614026
0.607427
0.600012
0.59123
0.580202
0.565744
0.546517
0.521302
0.489324
0.450528
0.405728
0.356553
0.305219
0.254175
0.205742
0.161795
0.123589
0.0917007
0.0661042
0.0463108
0.0315431
0.0208974
0.0134729
0.00845729
0.00517166
0.00308239
0.00179156
0.00101597
0.000562422
0.000304078
0.000160641
8.29622e-05
4.19035e-05
2.07088e-05
1.00179e-05
4.74558e-06
2.20224e-06
1.00153e-06
4.46529e-07
1.9524e-07
8.37467e-08
3.52525e-08
1.45671e-08
5.91078e-09
2.35579e-09
9.22504e-10
3.55027e-10
1.34316e-10
4.99669e-11
1.82823e-11
6.58075e-12
2.33088e-12
8.12567e-13
2.78863e-13
9.42333e-14
3.1361e-14
1.0281e-14
3.32063e-15
1.05689e-15
3.31546e-16
1.02527e-16
3.12597e-17
9.39856e-18