# vtk DataFile Version 3.0
FlowField
ASCII
DATASET STRUCTURED_GRID
DIMENSIONS 22 17 12 
POINTS 4488 double
0 0 0
5 0 0
10 0 0
15 0 0
20 0 0
25 0 0
30 0 0
35 0 0
40 0 0
45 0 0
50 0 0
55 0 0
60 0 0
65 0 0
70 0 0
75 0 0
80 0 0
85 0 0
90 0 0
95 0 0
100 0 0
105 0 0
0 1 0
5 1 0
10 1 0
15 1 0
20 1 0
25 1 0
30 1 0
35 1 0
40 1 0
45 1 0
50 1 0
55 1 0
60 1 0
65 1 0
70 1 0
75 1 0
80 1 0
85 1 0
90 1 0
95 1 0
100 1 0
105 1 0
0 2 0
5 2 0
10 2 0
15 2 0
20 2 0
25 2 0
30 2 0
35 2 0
40 2 0
45 2 0
50 2 0
55 2 0
60 2 0
65 2 0
70 2 0
75 2 0
80 2 0
85 2 0
90 2 0
95 2 0
100 2 0
105 2 0
0 3 0
5 3 0
10 3 0
15 3 0
20 3 0
25 3 0
30 3 0
35 3 0
40 3 0
45 3 0
50 3 0
55 3 0
60 3 0
65 3 0
70 3 0
75 3 0
80 3 0
85 3 0
90 3 0
95 3 0
100 3 0
105 3 0
0 4 0
5 4 0
10 4 0
15 4 0
20 4 0
25 4 0
30 4 0
35 4 0
40 4 0
45 4 0
50 4 0
55 4 0
60 4 0
65 4 0
70 4 0
75 4 0
80 4 0
85 4 0
90 4 0
95 4 0
100 4 0
105 4 0
0 5 0
5 5 0
10 5 0
15 5 0
20 5 0
25 5 0
30 5 0
35 5 0
40 5 0
45 5 0
50 5 0
55 5 0
60 5 0
65 5 0
70 5 0
75 5 0
80 5 0
85 5 0
90 5 0
95 5 0
100 5 0
105 5 0
0 6 0
5 6 0
10 6 0
15 6 0
20 6 0
25 6 0
30 6 0
35 6 0
40 6 0
45 6 0
50 6 0
55 6 0
60 6 0
65 6 0
70 6 0
75 6 0
80 6 0
85 6 0
90 6 0
95 6 0
100 6 0
105 6 0
0 7 0
5 7 0
10 7 0
15 7 0
20 7 0
25 7 0
30 7 0
35 7 0
40 7 0
45 7 0
50 7 0
55 7 0
60 7 0
65 7 0
70 7 0
75 7 0
80 7 0
85 7 0
90 7 0
95 7 0
100 7 0
105 7 0
0 8 0
5 8 0
10 8 0
15 8 0
20 8 0
25 8 0
30 8 0
35 8 0
40 8 0
45 8 0
50 8 0
55 8 0
60 8 0
65 8 0
70 8 0
75 8 0
80 8 0
85 8 0
90 8 0
95 8 0
100 8 0
105 8 0
0 9 0
5 9 0
10 9 0
15 9 0
20 9 0
25 9 0
30 9 0
35 9 0
40 9 0
45 9 0
50 9 0
55 9 0
60 9 0
65 9 0
70 9 0
75 9 0
80 9 0
85 9 0
90 9 0
95 9 0
100 9 0
105 9 0
0 10 0
5 10 0
10 10 0
15 10 0
20 10 0
25 10 0
30 10 0
35 10 0
40 10 0
45 10 0
50 10 0
55 10 0
60 10 0
65 10 0
70 10 0
75 10 0
80 10 0
85 10 0
90 10 0
95 10 0
100 10 0
105 10 0
0 11 0
5 11 0
10 11 0
15 11 0
20 11 0
25 11 0
30 11 0
35 11 0
40 11 0
45 11 0
50 11 0
55 11 0
60 11 0
65 11 0
70 11 0
75 11 0
80 11 0
85 11 0
90 11 0
95 11 0
100 11 0
105 11 0
0 12 0
5 12 0
10 12 0
15 12 0
20 12 0
25 12 0
30 12 0
35 12 0
40 12 0
45 12 0
50 12 0
55 12 0
60 12 0
65 12 0
70 12 0
75 12 0
80 12 0
85 12 0
90 12 0
95 12 0
100 12 0
105 12 0
0 13 0
5 13 0
10 13 0
15 13 0
20 13 0
25 13 0
30 13 0
35 13 0
40 13 0
45 13 0
50 13 0
55 13 0
60 13 0
65 13 0
70 13 0
75 13 0
80 13 0
85 13 0
90 13 0
95 13 0
100 13 0
105 13 0
0 14 0
5 14 0
10 14 0
15 14 0
20 14 0
25 14 0
30 14 0
35 14 0
40 14 0
45 14 0
50 14 0
55 14 0
60 14 0
65 14 0
70 14 0
75 14 0
80 14 0
85 14 0
90 14 0
95 14 0
100 14 0
105 14 0
0 15 0
5 15 0
10 15 0
15 15 0
20 15 0
25 15 0
30 15 0
35 15 0
40 15 0
45 15 0
50 15 0
55 15 0
60 15 0
65 15 0
70 15 0
75 15 0
80 15 0
85 15 0
90 15 0
95 15 0
100 15 0
105 15 0
0 16 0
5 16 0
10 16 0
15 16 0
20 16 0
25 16 0
30 16 0
35 16 0
40 16 0
45 16 0
50 16 0
55 16 0
60 16 0
65 16 0
70 16 0
75 16 0
80 16 0
85 16 0
90 16 0
95 16 0
100 16 0
105 16 0
0 0 1
5 0 1
10 0 1
15 0 1
20 0 1
25 0 1
30 0 1
35 0 1
40 0 1
45 0 1
50 0 1
55 0 1
60 0 1
65 0 1
70 0 1
75 0 1
80 0 1
85 0 1
90 0 1
95 0 1
100 0 1
105 0 1
0 1 1
5 1 1
10 1 1
15 1 1
20 1 1
25 1 1
30 1 1
35 1 1
40 1 1
45 1 1
50 1 1
55 1 1
60 1 1
65 1 1
70 1 1
75 1 1
80 1 1
85 1 1
90 1 1
95 1 1
100 1 1
105 1 1
0 2 1
5 2 1
10 2 1
15 2 1
20 2 1
25 2 1
30 2 1
35 2 1
40 2 1
45 2 1
50 2 1
55 2 1
60 2 1
65 2 1
70 2 1
75 2 1
80 2 1
85 2 1
90 2 1
95 2 1
100 2 1
105 2 1
0 3 1
5 3 1
10 3 1
15 3 1
20 3 1
25 3 1
30 3 1
35 3 1
40 3 1
45 3 1
50 3 1
55 3 1
60 3 1
65 3 1
70 3 1
75 3 1
80 3 1
85 3 1
90 3 1
95 3 1
100 3 1
105 3 1
0 4 1
5 4 1
10 4 1
15 4 1
20 4 1
25 4 1
30 4 1
35 4 1
40 4 1
45 4 1
50 4 1
55 4 1
60 4 1
65 4 1
70 4 1
75 4 1
80 4 1
85 4 1
90 4 1
95 4 1
100 4 1
105 4 1
0 5 1
5 5 1
10 5 1
15 5 1
20 5 1
25 5 1
30 5 1
35 5 1
40 5 1
45 5 1
50 5 1
55 5 1
60 5 1
65 5 1
70 5 1
75 5 1
80 5 1
85 5 1
90 5 1
95 5 1
100 5 1
105 5 1
0 6 1
5 6 1
10 6 1
15 6 1
20 6 1
25 6 1
30 6 1
35 6 1
40 6 1
45 6 1
50 6 1
55 6 1
60 6 1
65 6 1
70 6 1
75 6 1
80 6 1
85 6 1
90 6 1
95 6 1
100 6 1
105 6 1
0 7 1
5 7 1
10 7 1
15 7 1
20 7 1
25 7 1
30 7 1
35 7 1
40 7 1
45 7 1
50 7 1
55 7 1
60 7 1
65 7 1
70 7 1
75 7 1
80 7 1
85 7 1
90 7 1
95 7 1
100 7 1
105 7 1
0 8 1
5 8 1
10 8 1
15 8 1
20 8 1
25 8 1
30 8 1
35 8 1
40 8 1
45 8 1
50 8 1
55 8 1
60 8 1
65 8 1
70 8 1
75 8 1
80 8 1
85 8 1
90 8 1
95 8 1
100 8 1
105 8 1
0 9 1
5 9 1
10 9 1
15 9 1
20 9 1
25 9 1
30 9 1
35 9 1
40 9 1
45 9 1
50 9 1
55 9 1
60 9 1
65 9 1
70 9 1
75 9 1
80 9 1
85 9 1
90 9 1
95 9 1
100 9 1
105 9 1
0 10 1
5 10 1
10 10 1
15 10 1
20 10 1
25 10 1
30 10 1
35 10 1
40 10 1
45 10 1
50 10 1
55 10 1
60 10 1
65 10 1
70 10 1
75 10 1
80 10 1
85 10 1
90 10 1
95 10 1
100 10 1
105 10 1
0 11 1
5 11 1
10 11 1
15 11 1
20 11 1
25 11 1
30 11 1
35 11 1
40 11 1
45 11 1
50 11 1
55 11 1
60 11 1
65 11 1
70 11 1
75 11 1
80 11 1
85 11 1
90 11 1
95 11 1
100 11 1
105 11 1
0 12 1
5 12 1
10 12 1
15 12 1
20 12 1
25 12 1
30 12 1
35 12 1
40 12 1
45 12 1
50 12 1
55 12 1
60 12 1
65 12 1
70 12 1
75 12 1
80 12 1
85 12 1
90 12 1
95 12 1
100 12 1
105 12 1
0 13 1
5 13 1
10 13 1
15 13 1
20 13 1
25 13 1
30 13 1
35 13 1
40 13 1
45 13 1
50 13 1
55 13 1
60 13 1
65 13 1
70 13 1
75 13 1
80 13 1
85 13 1
90 13 1
95 13 1
100 13 1
105 13 1
0 14 1
5 14 1
10 14 1
15 14 1
20 14 1
25 14 1
30 14 1
35 14 1
40 14 1
45 14 1
50 14 1
55 14 1
60 14 1
65 14 1
70 14 1
75 14 1
80 14 1
85 14 1
90 14 1
95 14 1
100 14 1
105 14 1
0 15 1
5 15 1
10 15 1
15 15 1
20 15 1
25 15 1
30 15 1
35 15 1
40 15 1
45 15 1
50 15 1
55 15 1
60 15 1
65 15 1
70 15 1
75 15 1
80 15 1
85 15 1
90 15 1
95 15 1
100 15 1
105 15 1
0 16 1
5 16 1
10 16 1
15 16 1
20 16 1
25 16 1
30 16 1
35 16 1
40 16 1
45 16 1
50 16 1
55 16 1
60 16 1
65 16 1
70 16 1
75 16 1
80 16 1
85 16 1
90 16 1
95 16 1
100 16 1
105 16 1
0 0 2
5 0 2
10 0 2
15 0 2
20 0 2
25 0 2
30 0 2
35 0 2
40 0 2
45 0 2
50 0 2
55 0 2
60 0 2
65 0 2
70 0 2
75 0 2
80 0 2
85 0 2
90 0 2
95 0 2
100 0 2
105 0 2
0 1 2
5 1 2
10 1 2
15 1 2
20 1 2
25 1 2
30 1 2
35 1 2
40 1 2
45 1 2
50 1 2
55 1 2
60 1 2
65 1 2
70 1 2
75 1 2
80 1 2
85 1 2
90 1 2
95 1 2
100 1 2
105 1 2
0 2 2
5 2 2
10 2 2
15 2 2
20 2 2
25 2 2
30 2 2
35 2 2
40 2 2
45 2 2
50 2 2
55 2 2
60 2 2
65 2 2
70 2 2
75 2 2
80 2 2
85 2 2
90 2 2
95 2 2
100 2 2
105 2 2
0 3 2
5 3 2
10 3 2
15 3 2
20 3 2
25 3 2
30 3 2
35 3 2
40 3 2
45 3 2
50 3 2
55 3 2
60 3 2
65 3 2
70 3 2
75 3 2
80 3 2
85 3 2
90 3 2
95 3 2
100 3 2
105 3 2
0 4 2
5 4 2
10 4 2
15 4 2
20 4 2
25 4 2
30 4 2
35 4 2
40 4 2
45 4 2
50 4 2
55 4 2
60 4 2
65 4 2
70 4 2
75 4 2
80 4 2
85 4 2
90 4 2
95 4 2
100 4 2
105 4 2
0 5 2
5 5 2
10 5 2
15 5 2
20 5 2
25 5 2
30 5 2
35 5 2
40 5 2
45 5 2
50 5 2
55 5 2
60 5 2
65 5 2
70 5 2
75 5 2
80 5 2
85 5 2
90 5 2
95 5 2
100 5 2
105 5 2
0 6 2
5 6 2
10 6 2
15 6 2
20 6 2
25 6 2
30 6 2
35 6 2
40 6 2
45 6 2
50 6 2
55 6 2
60 6 2
65 6 2
70 6 2
75 6 2
80 6 2
85 6 2
90 6 2
95 6 2
100 6 2
105 6 2
0 7 2
5 7 2
10 7 2
15 7 2
20 7 2
25 7 2
30 7 2
35 7 2
40 7 2
45 7 2
50 7 2
55 7 2
60 7 2
65 7 2
70 7 2
75 7 2
80 7 2
85 7 2
90 7 2
95 7 2
100 7 2
105 7 2
0 8 2
5 8 2
10 8 2
15 8 2
20 8 2
25 8 2
30 8 2
35 8 2
40 8 2
45 8 2
50 8 2
55 8 2
60 8 2
65 8 2
70 8 2
75 8 2
80 8 2
85 8 2
90 8 2
95 8 2
100 8 2
105 8 2
0 9 2
5 9 2
10 9 2
15 9 2
20 9 2
25 9 2
30 9 2
35 9 2
40 9 2
45 9 2
50 9 2
55 9 2
60 9 2
65 9 2
70 9 2
75 9 2
80 9 2
85 9 2
90 9 2
95 9 2
100 9 2
105 9 2
0 10 2
5 10 2
10 10 2
15 10 2
20 10 2
25 10 2
30 10 2
35 10 2
40 10 2
45 10 2
50 10 2
55 10 2
60 10 2
65 10 2
70 10 2
75 10 2
80 10 2
85 10 2
90 10 2
95 10 2
100 10 2
105 10 2
0 11 2
5 11 2
10 11 2
15 11 2
20 11 2
25 11 2
30 11 2
35 11 2
40 11 2
45 11 2
50 11 2
55 11 2
60 11 2
65 11 2
70 11 2
75 11 2
80 11 2
85 11 2
90 11 2
95 11 2
100 11 2
105 11 2
0 12 2
5 12 2
10 12 2
15 12 2
20 12 2
25 12 2
30 12 2
35 12 2
40 12 2
45 12 2
50 12 2
55 12 2
60 12 2
65 12 2
70 12 2
75 12 2
80 12 2
85 12 2
90 12 2
95 12 2
100 12 2
105 12 2
0 13 2
5 13 2
10 13 2
15 13 2
20 13 2
25 13 2
30 13 2
35 13 2
40 13 2
45 13 2
50 13 2
55 13 2
60 13 2
65 13 2
70 13 2
75 13 2
80 13 2
85 13 2
90 13 2
95 13 2
100 13 2
105 13 2
0 14 2
5 14 2
10 14 2
15 14 2
20 14 2
25 14 2
30 14 2
35 14 2
40 14 2
45 14 2
50 14 2
55 14 2
60 14 2
65 14 2
70 14 2
75 14 2
80 14 2
85 14 2
90 14 2
95 14 2
100 14 2
105 14 2
0 15 2
5 15 2
10 15 2
15 15 2
20 15 2
25 15 2
30 15 2
35 15 2
40 15 2
45 15 2
50 15 2
55 15 2
60 15 2
65 15 2
70 15 2
75 15 2
80 15 2
85 15 2
90 15 2
95 15 2
100 15 2
105 15 2
0 16 2
5 16 2
10 16 2
15 16 2
20 16 2
25 16 2
30 16 2
35 16 2
40 16 2
45 16 2
50 16 2
55 16 2
60 16 2
65 16 2
70 16 2
75 16 2
80 16 2
85 16 2
90 16 2
95 16 2
100 16 2
105 16 2
0 0 3
5 0 3
10 0 3
15 0 3
20 0 3
25 0 3
30 0 3
35 0 3
40 0 3
45 0 3
50 0 3
55 0 3
60 0 3
65 0 3
70 0 3
75 0 3
80 0 3
85 0 3
90 0 3
95 0 3
100 0 3
105 0 3
0 1 3
5 1 3
10 1 3
15 1 3
20 1 3
25 1 3
30 1 3
35 1 3
40 1 3
45 1 3
50 1 3
55 1 3
60 1 3
65 1 3
70 1 3
75 1 3
80 1 3
85 1 3
90 1 3
95 1 3
100 1 3
105 1 3
0 2 3
5 2 3
10 2 3
15 2 3
20 2 3
25 2 3
30 2 3
35 2 3
40 2 3
45 2 3
50 2 3
55 2 3
60 2 3
65 2 3
70 2 3
75 2 3
80 2 3
85 2 3
90 2 3
95 2 3
100 2 3
105 2 3
0 3 3
5 3 3
10 3 3
15 3 3
20 3 3
25 3 3
30 3 3
35 3 3
40 3 3
45 3 3
50 3 3
55 3 3
60 3 3
65 3 3
70 3 3
75 3 3
80 3 3
85 3 3
90 3 3
95 3 3
100 3 3
105 3 3
0 4 3
5 4 3
10 4 3
15 4 3
20 4 3
25 4 3
30 4 3
35 4 3
40 4 3
45 4 3
50 4 3
55 4 3
60 4 3
65 4 3
70 4 3
75 4 3
80 4 3
85 4 3
90 4 3
95 4 3
100 4 3
105 4 3
0 5 3
5 5 3
10 5 3
15 5 3
20 5 3
25 5 3
30 5 3
35 5 3
40 5 3
45 5 3
50 5 3
55 5 3
60 5 3
65 5 3
70 5 3
75 5 3
80 5 3
85 5 3
90 5 3
95 5 3
100 5 3
105 5 3
0 6 3
5 6 3
10 6 3
15 6 3
20 6 3
25 6 3
30 6 3
35 6 3
40 6 3
45 6 3
50 6 3
55 6 3
60 6 3
65 6 3
70 6 3
75 6 3
80 6 3
85 6 3
90 6 3
95 6 3
100 6 3
105 6 3
0 7 3
5 7 3
10 7 3
15 7 3
20 7 3
25 7 3
30 7 3
35 7 3
40 7 3
45 7 3
50 7 3
55 7 3
60 7 3
65 7 3
70 7 3
75 7 3
80 7 3
85 7 3
90 7 3
95 7 3
100 7 3
105 7 3
0 8 3
5 8 3
10 8 3
15 8 3
20 8 3
25 8 3
30 8 3
35 8 3
40 8 3
45 8 3
50 8 3
55 8 3
60 8 3
65 8 3
70 8 3
75 8 3
80 8 3
85 8 3
90 8 3
95 8 3
100 8 3
105 8 3
0 9 3
5 9 3
10 9 3
15 9 3
20 9 3
25 9 3
30 9 3
35 9 3
40 9 3
45 9 3
50 9 3
55 9 3
60 9 3
65 9 3
70 9 3
75 9 3
80 9 3
85 9 3
90 9 3
95 9 3
100 9 3
105 9 3
0 10 3
5 10 3
10 10 3
15 10 3
[...]
POINT_DATA 4488

SCALARS pressure double
LOOKUP_TABLE pressure
0
0
0
0
0
0
0
0
0
0
0
0
0
0
0
0
0
0
0
0
0
0
0
5881.05
5881.07
5881.04
5880.83
5880.73
5880.65
5880.63
5880.53
5880.77
5880.38
5880.19
5879.91
5879.59
5879.04
5878.19
5875.71
5876.08
5875.6
5875.37
5875.31
0
0
5881.06
5881.08
5881.05
5880.83
5880.74
5880.66
5880.65
5880.53
5880.35
5880.38
5880.2
5879.91
5879.6
5879.07
5878.24
5875.52
5876.1
5875.6
5875.37
5875.32
0
0
5881.07
5881.09
5881.07
5880.85
5880.75
5880.72
5880.67
5880.53
5880.4
5880.39
5880.22
5879.81
5879.62
5879.12
5878.36
5878.24
5876.18
5875.58
5875.36
5875.34
0
0
5881.09
5881.1
5881.1
5880.86
5880.55
5880.73
5880.69
5880.61
5880.45
5880.41
5880.26
5879.85
5879.65
5879.18
5878.47
5878.13
5876.18
5875.55
5875.34
5875.35
0
0
5881.11
5881.11
5881.01
5880.88
5880.56
5880.76
5880.73
5880.62
5880.5
5880.44
5880.31
5880.24
5879.7
5879.26
5878.56
5878.04
5876.12
5875.51
5875.32
5875.37
0
0
5881.14
5881.14
5881.05
5880.92
5880.55
5880.79
5880.76
5880.63
5880.55
5880.47
5880.35
5880.21
5879.77
5879.33
5878.65
5878.01
5876.01
5875.08
5875.29
5875.4
0
0
5881.17
5881.17
5881.09
5880.96
5880.53
5880.83
5880.81
5880.65
5880.6
5880.51
5880.4
5880.28
5879.9
5879.41
5878.81
5878.03
5875.84
5874.97
5875.26
5875.43
0
0
5881.2
5881.2
5881.14
5881.02
5880.47
5880.89
5880.86
5880.89
5880.66
5880.56
5880.46
5880.35
5880.03
5879.5
5878.93
5878.1
5875.61
5874.81
5875.24
5875.46
0
0
5881.24
5881.24
5881.2
5881.08
5880.34
5880.95
5880.92
5880.92
5880.71
5880.6
5880.51
5880.43
5880.17
5879.68
5878.99
5878.21
5875.29
5874.59
5875.16
5875.5
0
0
5881.28
5881.29
5881.26
5881.18
5881.5
5881.08
5880.98
5880.96
5880.77
5880.66
5880.58
5880.51
5880.32
5879.81
5879.08
5878.37
5874.79
5874.3
5875.16
5875.53
0
0
5881.33
5881.34
5881.32
5881.28
5881.4
5881.17
5881.05
5881.01
5880.82
5880.71
5880.64
5880.6
5880.48
5879.95
5879.15
5878.61
5873.92
5873.96
5875.17
5875.58
0
0
5881.39
5881.4
5881.39
5881.37
5881.43
5881.24
5881.12
5881.08
5880.88
5880.77
5880.71
5880.7
5880.66
5880.1
5879.18
5878.94
5873.35
5873.58
5875.2
5875.62
0
0
5881.44
5881.46
5881.47
5881.46
5881.47
5881.31
5881.19
5881.03
5880.93
5880.83
5880.79
5880.81
5880.86
5880.23
5881.92
5879.46
5872.06
5873.1
5875.27
5875.67
0
0
5881.5
5881.53
5881.55
5881.55
5881.5
5881.38
5881.26
5881.11
5880.99
5880.89
5880.86
5880.92
5881.1
5881.78
5882.11
5880.01
5870.19
5872.52
5875.38
5875.72
0
0
5881.57
5881.6
5881.63
5881.64
5881.52
5881.44
5881.34
5881.19
5881.05
5880.96
5880.93
5881.03
5881.32
5881.86
5882.29
5881.89
5868.59
5871.81
5875.62
5875.76
0
0
0
0
0
0
0
0
0
0
0
0
0
0
0
0
0
0
0
0
0
0
0
0
5881.05
5881.07
5881.04
5880.83
5880.73
5880.65
5880.63
5880.53
5880.77
5880.38
5880.19
5879.91
5879.59
5879.04
5878.19
5875.71
5876.08
5875.6
5875.37
5875.31
0
-5881.05
5881.05
5881.07
5881.04
5880.83
5880.73
5880.65
5880.63
5880.53
5880.77
5880.38
5880.19
5879.91
5879.59
5879.04
5878.19
5875.71
5876.08
5875.6
5875.37
5875.31
5875.31
0.0401613
5881.06
5881.08
5881.05
5880.83
5880.74
5880.66
5880.65
5880.53
5880.35
5880.38
5880.2
5879.91
5879.6
5879.07
5878.24
5875.52
5876.1
5875.6
5875.37
5875.32
5875.32
-5881.07
5881.07
5881.09
5881.07
5880.85
5880.75
5880.72
5880.67
5880.53
5880.4
5880.39
5880.22
5879.81
5879.62
5879.12
5878.36
5878.24
5876.18
5875.58
5875.36
5875.34
5875.34
-5881.09
5881.09
5881.1
5881.1
5880.86
5880.55
5880.73
5880.69
5880.61
5880.45
5880.41
5880.26
5879.85
5879.65
5879.18
5878.47
5878.13
5876.18
5875.55
5875.34
5875.35
5875.35
-5881.11
5881.11
5881.11
5881.01
5880.88
5880.56
5880.76
5880.73
5880.62
5880.5
5880.44
5880.31
5880.24
5879.7
5879.26
5878.56
5878.04
5876.12
5875.51
5875.32
5875.37
5875.37
-5881.14
5881.14
5881.14
5881.05
5880.92
5880.55
5880.79
5880.76
5880.63
5880.55
5880.47
5880.35
5880.21
5879.77
5879.33
5878.65
5878.01
5876.01
5875.08
5875.29
5875.4
5875.4
-5881.17
5881.17
5881.17
5881.09
5880.96
5880.53
5880.83
5880.81
5880.65
5880.6
5880.51
5880.4
5880.28
5879.9
5879.41
5878.81
5878.03
5875.84
5874.97
5875.26
5875.43
5875.43
-5881.2
5881.2
5881.2
5881.14
5881.02
5880.47
5880.89
5880.86
5880.89
5880.66
5880.56
5880.46
5880.35
5880.03
5879.5
5878.93
5878.1
5875.61
5874.81
5875.24
5875.46
5875.46
-5881.24
5881.24
5881.24
5881.2
5881.08
5880.34
5880.95
5880.92
5880.92
5880.71
5880.6
5880.51
5880.43
5880.17
5879.68
5878.99
5878.21
5875.29
5874.59
5875.16
5875.5
5875.5
-5881.28
5881.28
5881.29
5881.26
5881.18
5881.5
5881.08
5880.98
5880.96
5880.77
5880.66
5880.58
5880.51
5880.32
5879.81
5879.08
5878.37
5874.79
5874.3
5875.16
5875.53
5875.53
-5881.33
5881.33
5881.34
5881.32
5881.28
5881.4
5881.17
5881.05
5881.01
5880.82
5880.71
5880.64
5880.6
5880.48
5879.95
5879.15
5878.61
5873.92
5873.96
5875.17
5875.58
5875.58
-5881.39
5881.39
5881.4
5881.39
5881.37
5881.43
5881.24
5881.12
5881.08
5880.88
5880.77
5880.71
5880.7
5880.66
5880.1
5879.18
5878.94
5873.35
5873.58
5875.2
5875.62
5875.62
-5881.44
5881.44
5881.46
5881.47
5881.46
5881.47
5881.31
5881.19
5881.03
5880.93
5880.83
5880.79
5880.81
5880.86
5880.23
5881.92
5879.46
5872.06
5873.1
5875.27
5875.67
5875.67
-5881.5
5881.5
5881.53
5881.55
5881.55
5881.5
5881.38
5881.26
5881.11
5880.99
5880.89
5880.86
5880.92
5881.1
5881.78
5882.11
5880.01
5870.19
5872.52
5875.38
5875.72
5875.72
-5881.57
5881.57
5881.6
5881.63
5881.64
5881.52
5881.44
5881.34
5881.19
5881.05
5880.96
5880.93
5881.03
5881.32
5881.86
5882.29
5881.89
5868.59
5871.81
5875.62
5875.76
5875.76
0
5881.57
5881.6
5881.63
5881.64
5881.52
5881.44
5881.34
5881.19
5881.05
5880.96
5880.93
5881.03
5881.32
5881.86
5882.29
5881.89
5868.59
5871.81
5875.62
5875.76
0
0
5881.11
5881.15
5881.09
5880.93
5880.79
5880.73
5880.69
5880.62
5880.46
5880.42
5880.24
5880.1
5879.64
5879.1
5878.28
5876.59
5876.36
5875.75
5875.48
5875.39
0
-5881.11
5881.11
5881.15
5881.09
5880.93
5880.79
5880.73
5880.69
5880.62
5880.46
5880.42
5880.24
5880.1
5879.64
5879.1
5878.28
5876.59
5876.36
5875.75
5875.48
5875.39
5875.39
-5881.12
5881.12
5881.19
5881.1
5880.93
5880.82
5880.75
5880.69
5880.61
5880.46
5880.43
5880.26
5880.02
5879.66
5879.12
5878.32
5876.71
5876.33
5875.74
5875.48
5875.4
5875.4
-5881.14
5881.14
5881.16
5881.11
5880.94
5880.81
5880.78
5880.72
5880.63
5880.49
5880.44
5880.28
5880
5879.68
5879.17
5878.39
5877.59
5876.35
5875.72
5875.48
5875.41
5875.41
-5881.15
5881.15
5881.16
5881.12
5880.96
5880.76
5880.81
5880.76
5880.66
5880.53
5880.46
5880.31
5880.03
5879.75
5879.22
5878.41
5877.87
5876.34
5875.67
5875.47
5875.43
5875.43
-5881.17
5881.17
5881.17
5881.11
5880.98
5880.76
5880.84
5880.79
5880.69
5880.57
5880.49
5880.35
5880.18
5879.76
5879.29
5878.26
5877.92
5876.29
5875.59
5875.45
5875.45
5875.45
-5881.2
5881.2
5881.2
5881.13
5881.01
5880.78
5880.88
5880.83
5880.72
5880.61
5880.52
5880.39
5880.23
5879.84
5879.37
5878.57
5877.97
5876.21
5875.4
5875.43
5875.47
5875.47
-5881.23
5881.23
5881.22
5881.16
5881.05
5880.83
5880.92
5880.87
5880.77
5880.66
5880.56
5880.44
5880.29
5879.94
5879.46
5878.8
5878.02
5876.09
5875.26
5875.4
5875.5
5875.5
-5881.26
5881.26
5881.26
5881.21
5881.11
5880.89
5880.98
5880.92
5880.87
5880.71
5880.6
5880.49
5880.36
5880.05
5879.57
5878.95
5878.11
5875.95
5875.11
5875.38
5875.53
5875.53
-5881.3
5881.3
5881.3
5881.26
5881.18
5880.71
5881.05
5880.98
5880.93
5880.76
5880.65
5880.55
5880.44
5880.18
5879.72
5879.09
5878.23
5875.81
5874.93
5875.34
5875.57
5875.57
-5881.34
5881.34
5881.34
5881.32
5881.26
5881.34
5881.15
5881.04
5880.98
5880.81
5880.7
5880.61
5880.52
5880.33
5879.88
5879.27
5878.4
5875.75
5874.71
5875.33
5875.61
5875.61
-5881.39
5881.39
5881.39
5881.38
5881.34
5881.44
5881.22
5881.1
5881.03
5880.87
5880.76
5880.67
5880.61
5880.49
5880.06
5879.51
5878.65
5874.89
5874.42
5875.33
5875.65
5875.65
-5881.44
5881.44
5881.45
5881.45
5881.42
5881.46
5881.29
5881.16
5881.08
5880.92
5880.81
5880.74
5880.71
5880.65
5880.29
5879.84
5878.98
5874.26
5874.11
5875.36
5875.69
5875.69
-5881.5
5881.5
5881.49
5881.52
5881.5
5881.49
5881.35
5881.23
5881.11
5880.98
5880.87
5880.81
5880.81
5880.83
5880.61
5881.02
5879.47
5873.42
5873.75
5875.4
5875.74
5875.74
-5881.56
5881.56
5881.57
5881.59
5881.58
5881.53
5881.41
5881.3
5881.17
5881.04
5880.94
5880.89
5880.91
5881.04
5881.29
5881.59
5880.13
5872.37
5873.35
5875.48
5875.79
5875.79
-5881.62
5881.62
5881.64
5881.66
5881.66
5881.56
5881.48
5881.37
5881.23
5881.1
5881
5880.96
5881.02
5881.24
5881.64
5881.96
5881.12
5871.27
5872.93
5875.58
5875.84
5875.84
0
5881.62
5881.64
5881.66
5881.66
5881.56
5881.48
5881.37
5881.23
5881.1
5881
5880.96
5881.02
5881.24
5881.64
5881.96
5881.12
5871.27
5872.93
5875.58
5875.84
0
0
5881.18
5881.2
5881.14
5881.01
5880.84
5880.8
5880.76
5880.68
5880.54
5880.47
5880.3
5880.12
5879.69
5879.15
5878.37
5877.12
5876.51
5875.89
5875.6
5875.47
0
-5881.18
5881.18
5881.2
5881.14
5881.01
5880.84
5880.8
5880.76
5880.68
5880.54
5880.47
5880.3
5880.12
5879.69
5879.15
5878.37
5877.12
5876.51
5875.89
5875.6
5875.47
5875.47
-5881.18
5881.18
5881.22
5881.15
5881.02
5880.89
5880.82
5880.77
5880.69
5880.55
5880.48
5880.31
5880.09
5879.7
5879.17
5878.4
5877.25
5876.5
5875.89
5875.61
5875.47
5875.47
-5881.2
5881.2
5881.22
5881.16
5881.03
5880.9
5880.85
5880.8
5880.7
5880.57
5880.49
5880.33
5880.09
5879.73
5879.21
5878.45
5877.59
5876.51
5875.86
5875.6
5875.49
5875.49
-5881.21
5881.21
5881.22
5881.17
5881.04
5880.91
5880.88
5880.82
5880.73
5880.6
5880.51
5880.35
5880.12
5879.77
5879.26
5878.5
5877.79
5876.5
5875.82
5875.59
5875.5
5875.5
-5881.23
5881.23
5881.23
5881.18
5881.07
5880.92
5880.91
5880.86
5880.76
5880.63
5880.54
5880.39
5880.21
5879.82
5879.33
5878.55
5877.88
5876.47
5875.75
5875.58
5875.52
5875.52
-5881.26
5881.26
5881.26
5881.2
5881.1
5880.96
5880.95
5880.89
5880.79
5880.67
5880.57
5880.43
5880.26
5879.89
5879.4
5878.67
5877.95
5876.41
5875.64
5875.56
5875.55
5875.55
-5881.29
5881.29
5881.28
5881.23
5881.14
5881.02
5881
5880.94
5880.84
5880.72
5880.61
5880.48
5880.31
5879.97
5879.5
5878.84
5878.03
5876.33
5875.52
5875.55
5875.58
5875.58
-5881.32
5881.32
5881.32
5881.27
5881.19
5881.1
5881.06
5880.98
5880.91
5880.76
5880.65
5880.53
5880.38
5880.08
5879.62
5878.99
5878.13
5876.22
5875.4
5875.53
5875.61
5875.61
-5881.36
5881.36
5881.36
5881.32
5881.25
5881.19
5881.12
5881.03
5880.96
5880.81
5880.7
5880.58
5880.45
5880.19
5879.76
5879.16
5878.26
5876.11
5875.25
5875.51
5875.64
5875.64
-5881.4
5881.4
5881.4
5881.37
5881.33
5881.51
5881.2
5881.09
5881.01
5880.86
5880.75
5880.64
5880.53
5880.32
5879.92
5879.37
5878.43
5875.95
5875.07
5875.5
5875.68
5875.68
-5881.44
5881.44
5881.45
5881.43
5881.4
5881.51
5881.27
5881.15
5881.06
5880.92
5880.8
5880.7
5880.62
5880.47
5880.12
5879.65
5878.67
5875.51
5874.86
5875.5
5875.72
5875.72
-5881.5
5881.5
5881.5
5881.49
5881.47
5881.5
5881.33
5881.21
5881.11
5880.97
5880.86
5880.77
5880.71
5880.62
5880.36
5880.05
5879
5875.07
5874.62
5875.52
5875.77
5875.77
-5881.55
5881.55
5881.55
5881.56
5881.54
5881.53
5881.39
5881.27
5881.16
5881.03
5880.92
5880.84
5880.81
5880.79
5880.67
5880.73
5879.47
5874.57
5874.35
5875.55
5875.82
5875.82
-5881.61
5881.61
5881.62
5881.63
5881.61
5881.56
5881.45
5881.34
5881.22
5881.09
5880.98
5880.91
5880.91
5880.98
5881.09
5881.22
5880.11
5874.03
5874.08
5875.6
5875.86
5875.86
-5881.67
5881.67
5881.69
5881.7
5881.69
5881.6
5881.52
5881.41
5881.28
5881.15
5881.04
5880.99
5881.01
5881.16
5881.44
5881.62
5880.95
5873.51
5873.8
5875.65
5875.92
5875.92
0
5881.67
5881.69
5881.7
5881.69
5881.6
5881.52
5881.41
5881.28
5881.15
5881.04
5880.99
5881.01
5881.16
5881.44
5881.62
5880.95
5873.51
5873.8
5875.65
5875.92
0
0
5881.24
5881.25
5881.2
5881.1
5880.83
5880.86
5880.84
5880.75
5880.61
5880.52
5880.34
5880.13
5879.73
5879.2
5878.46
5877.42
5876.66
5876.04
5875.73
5875.54
0
-5881.24
5881.24
5881.25
5881.2
5881.1
5880.83
5880.86
5880.84
5880.75
5880.61
5880.52
5880.34
5880.13
5879.73
5879.2
5878.46
5877.42
5876.66
5876.04
5875.73
5875.54
5875.54
-5881.25
5881.25
5881.26
5881.21
5881.11
5881
5880.89
5880.85
5880.76
5880.62
5880.53
5880.36
5880.13
5879.74
5879.22
5878.48
5877.5
5876.67
5876.04
5875.73
5875.55
5875.55
-5881.26
5881.26
5881.27
5881.22
5881.12
5881.01
5880.92
5880.87
5880.77
5880.64
5880.54
5880.37
5880.14
5879.77
5879.25
5878.52
5877.66
5876.67
5876.02
5875.73
5875.56
5875.56
-5881.27
5881.27
5881.28
5881.23
5881.13
5881.03
5880.96
5880.89
5880.8
5880.67
5880.56
5880.4
5880.17
5879.81
5879.3
5878.58
5877.79
5876.66
5875.98
5875.72
5875.58
5875.58
-5881.29
5881.29
5881.29
5881.24
5881.15
5881.05
5880.99
5880.92
5880.82
5880.7
5880.59
5880.43
5880.23
5879.86
5879.36
5878.65
5877.89
5876.64
5875.93
5875.71
5875.6
5875.6
-5881.32
5881.32
5881.32
5881.27
5881.18
5881.08
5881.03
5880.96
5880.86
5880.74
5880.62
5880.47
5880.28
5879.92
5879.44
5878.75
5877.97
5876.6
5875.86
5875.7
5875.62
5875.62
-5881.35
5881.35
5881.34
5881.3
5881.22
5881.14
5881.07
5881
5880.9
5880.78
5880.66
5880.52
5880.33
5880
5879.53
5878.88
5878.06
5876.54
5875.77
5875.69
5875.65
5875.65
-5881.38
5881.38
5881.37
5881.33
5881.27
5881.21
5881.13
5881.04
5880.95
5880.82
5880.7
5880.56
5880.39
5880.09
5879.65
5879.03
5878.16
5876.47
5875.67
5875.68
5875.68
5875.68
-5881.41
5881.41
5881.41
5881.38
5881.32
5881.3
5881.18
5881.09
5881
5880.87
5880.74
5880.62
5880.46
5880.2
5879.78
5879.2
5878.29
5876.37
5875.55
5875.67
5875.72
5875.72
-5881.46
5881.46
5881.45
5881.43
5881.38
5881.46
5881.25
5881.14
5881.05
5880.91
5880.79
5880.67
5880.54
5880.32
5879.94
5879.41
5878.46
5876.23
5875.42
5875.67
5875.76
5875.76
-5881.5
5881.5
5881.5
5881.48
5881.45
5881.5
5881.31
5881.2
5881.1
5880.97
5880.85
5880.74
5880.62
5880.45
5880.13
5879.68
5878.68
5876
5875.26
5875.67
5875.8
5875.8
-5881.55
5881.55
5881.55
5881.54
5881.51
5881.53
5881.37
5881.26
5881.15
5881.02
5880.9
5880.8
5880.71
5880.6
5880.35
5880.03
5878.99
5875.73
5875.09
5875.68
5875.84
5875.84
-5881.6
5881.6
5881.61
5881.6
5881.58
5881.56
5881.43
5881.32
5881.21
5881.07
5880.96
5880.87
5880.81
5880.75
5880.63
5880.48
5879.4
5875.46
5874.91
5875.71
5875.89
5875.89
-5881.66
5881.66
5881.67
5881.67
5881.65
5881.59
5881.49
5881.38
5881.26
5881.13
5881.02
5880.94
5880.9
5880.91
5880.94
5880.91
5879.95
5875.19
5874.72
5875.74
5875.94
5875.94
-5881.72
5881.72
5881.73
5881.74
5881.72
5881.64
5881.56
5881.45
5881.32
5881.19
5881.08
5881.01
5881
5881.08
5881.24
5881.29
5880.62
5874.92
5874.53
5875.77
5875.99
5875.99
0
5881.72
5881.73
5881.74
5881.72
5881.64
5881.56
5881.45
5881.32
5881.19
5881.08
5881.01
5881
5881.08
5881.24
5881.29
5880.62
5874.92
5874.53
5875.77
5875.99
0
0
5881.3
5881.31
5881.26
5881.2
5880.97
5880.91
5880.91
5880.82
5880.69
5880.57
5880.39
5880.16
5879.77
5879.25
5878.53
5877.62
5876.82
5876.2
5875.85
5875.62
0
-5881.3
5881.3
5881.31
5881.26
5881.2
5880.97
5880.91
5880.91
5880.82
5880.69
5880.57
5880.39
5880.16
5879.77
5879.25
5878.53
5877.62
5876.82
5876.2
5875.85
5875.62
5875.62
-5881.31
5881.31
5881.31
5881.27
5881.2
5881.12
5880.95
5880.92
5880.83
5880.7
5880.58
5880.4
5880.16
5879.78
5879.26
5878.56
5877.67
5876.82
5876.19
5875.85
5875.63
5875.63
-5881.32
5881.32
5881.32
5881.28
5881.2
5881.16
5881
5880.94
5880.84
5880.71
5880.6
5880.42
5880.18
5879.81
5879.29
5878.6
5877.76
5876.82
5876.18
5875.85
5875.64
5875.64
-5881.33
5881.33
5881.34
5881.29
5881.21
5881.15
5881.03
5880.96
5880.86
5880.74
5880.62
5880.44
5880.21
5879.84
5879.34
5878.65
5877.85
5876.82
5876.16
5875.85
5875.66
5875.66
-5881.35
5881.35
5881.35
5881.31
5881.23
5881.16
5881.06
5880.99
5880.89
5880.76
5880.64
5880.48
5880.25
5879.89
5879.4
5878.72
5877.93
5876.81
5876.12
5875.85
5875.68
5875.68
-5881.38
5881.38
5881.37
5881.33
5881.26
5881.18
5881.1
5881.02
5880.92
5880.8
5880.67
5880.51
5880.3
5879.95
5879.47
5878.81
5878.01
5876.79
5876.07
5875.84
5875.7
5875.7
-5881.41
5881.41
5881.4
5881.36
5881.29
5881.23
5881.14
5881.06
5880.96
5880.83
5880.71
5880.55
5880.35
5880.02
5879.56
5878.92
5878.09
5876.75
5876.01
5875.84
5875.73
5875.73
-5881.44
5881.44
5881.43
5881.4
5881.33
5881.29
5881.19
5881.1
5881
5880.87
5880.75
5880.6
5880.41
5880.11
5879.66
5879.06
5878.19
5876.7
5875.93
5875.84
5875.76
5875.76
-5881.47
5881.47
5881.47
5881.44
5881.38
5881.36
5881.24
5881.15
5881.05
5880.92
5880.79
5880.65
5880.48
5880.21
5879.79
5879.22
5878.32
5876.63
5875.85
5875.83
5875.79
5875.79
-5881.51
5881.51
5881.51
5881.48
5881.44
5881.45
5881.3
5881.2
5881.1
5880.97
5880.84
5880.71
5880.55
5880.31
5879.94
5879.41
5878.48
5876.54
5875.75
5875.84
5875.83
5875.83
-5881.56
5881.56
5881.56
5881.53
5881.5
5881.5
5881.35
5881.25
5881.15
5881.02
5880.89
5880.77
5880.63
5880.43
5880.11
5879.64
5878.68
5876.41
5875.64
5875.84
5875.87
5875.87
-5881.61
5881.61
5881.61
5881.59
5881.55
5881.54
5881.41
5881.3
5881.2
5881.07
5880.95
5880.83
5880.71
5880.56
5880.31
5879.94
5878.95
5876.27
5875.53
5875.86
5875.92
5875.92
-5881.66
5881.66
5881.66
5881.65
5881.62
5881.58
5881.47
5881.36
5881.25
5881.12
5881
5880.9
5880.8
5880.7
5880.54
5880.28
5879.3
5876.13
5875.4
5875.88
5875.96
5875.96
-5881.72
5881.72
5881.72
5881.71
5881.68
5881.63
5881.53
5881.42
5881.31
5881.18
5881.06
5880.97
5880.9
5880.85
5880.79
5880.63
5879.74
5875.99
5875.28
5875.9
5876.01
5876.01
-5881.78
5881.78
5881.78
5881.78
5881.75
5881.68
5881.59
5881.49
5881.37
5881.24
5881.13
5881.04
5880.99
5881
5881.05
5880.97
5880.25
5875.86
5875.16
5875.93
5876.06
5876.06
0
5881.78
5881.78
5881.78
5881.75
5881.68
5881.59
5881.49
5881.37
5881.24
5881.13
5881.04
5880.99
5881
5881.05
5880.97
5880.25
5875.86
5875.16
5875.93
5876.06
0
0
5881.36
5881.36
5881.32
5881.26
5881.09
5881.02
5880.99
5880.89
5880.75
5880.62
5880.44
5880.19
5879.8
5879.29
5878.61
5877.77
5876.97
5876.35
5875.98
5875.7
0
-5881.36
5881.36
5881.36
5881.32
5881.26
5881.09
5881.02
5880.99
5880.89
5880.75
5880.62
5880.44
5880.19
5879.8
5879.29
5878.61
5877.77
5876.97
5876.35
5875.98
5875.7
5875.7
-5881.37
5881.37
5881.37
5881.33
5881.26
5881.16
5881.05
5881
5880.9
5880.76
5880.63
5880.45
5880.2
5879.82
5879.31
5878.63
5877.8
5876.98
5876.35
5875.98
5875.71
5875.71
-5881.38
5881.38
5881.38
5881.34
5881.27
5881.2
5881.08
5881.01
5880.91
5880.78
5880.65
5880.47
5880.22
5879.84
5879.33
5878.66
5877.86
5876.98
5876.34
5875.98
5875.72
5875.72
-5881.4
5881.4
5881.39
5881.35
5881.28
5881.22
5881.11
5881.03
5880.93
5880.8
5880.67
5880.49
5880.25
5879.88
5879.37
5878.71
5877.92
5876.98
5876.33
5875.98
5875.74
5875.74
-5881.42
5881.42
5881.41
5881.37
5881.3
5881.24
5881.14
5881.06
5880.96
5880.83
5880.69
5880.52
5880.28
5879.92
5879.43
5878.77
5877.99
5876.98
5876.3
5875.99
5875.76
5875.76
-5881.44
5881.44
5881.43
5881.39
5881.33
5881.26
5881.17
5881.09
5880.99
5880.86
5880.72
5880.55
5880.33
5879.98
5879.5
5878.85
5878.06
5876.97
5876.27
5875.99
5875.78
5875.78
-5881.47
5881.47
5881.46
5881.42
5881.36
5881.3
5881.21
5881.12
5881.02
5880.89
5880.76
5880.59
5880.38
5880.04
5879.58
5878.95
5878.14
5876.95
5876.23
5875.99
5875.8
5875.8
-5881.5
5881.5
5881.49
5881.46
5881.4
5881.35
5881.25
5881.16
5881.06
5880.93
5880.8
5880.64
5880.43
5880.12
5879.67
5879.07
5878.23
5876.92
5876.18
5875.99
5875.83
5875.83
-5881.53
5881.53
5881.53
5881.49
5881.44
5881.4
5881.3
5881.2
5881.1
5880.97
5880.84
5880.69
5880.49
5880.21
5879.79
5879.21
5878.35
5876.88
5876.13
5876
5875.87
5875.87
-5881.57
5881.57
5881.57
5881.54
5881.49
5881.47
5881.35
5881.25
5881.15
5881.02
5880.89
5880.74
5880.56
5880.31
5879.92
5879.38
5878.49
5876.83
5876.07
5876
5875.91
5875.91
-5881.62
5881.62
5881.61
5881.59
5881.54
5881.52
5881.4
5881.3
5881.19
5881.07
5880.94
5880.8
5880.64
5880.41
5880.07
5879.58
5878.67
5876.77
5876
5876.02
5875.95
5875.95
-5881.66
5881.66
5881.66
5881.64
5881.6
5881.57
5881.45
5881.35
5881.24
5881.12
5880.99
5880.86
5880.72
5880.53
5880.25
5879.82
5878.9
5876.71
5875.92
5876.03
5875.99
5875.99
-5881.72
5881.72
5881.71
5881.69
5881.66
5881.61
5881.51
5881.41
5881.3
5881.17
5881.05
5880.93
5880.8
5880.66
5880.44
5880.09
5879.18
5876.64
5875.85
5876.05
5876.04
5876.04
-5881.77
5881.77
5881.77
5881.75
5881.72
5881.66
5881.56
5881.46
5881.35
5881.23
5881.11
5880.99
5880.89
5880.79
5880.65
5880.38
5879.52
5876.58
5875.77
5876.08
5876.09
5876.09
-5881.83
5881.83
5881.83
5881.82
5881.78
5881.71
5881.63
5881.53
5881.41
5881.29
5881.17
5881.06
5880.98
5880.92
5880.86
5880.66
5879.9
5876.53
5875.7