# vtk DataFile Version 3.0
FlowField
ASCII
DATASET STRUCTURED_GRID
DIMENSIONS 22 17 12 
POINTS 4488 double
0 0 0
0.1 0 0
0.2 0 0
0.3 0 0
0.4 0 0
0.5 0 0
0.6 0 0
0.7 0 0
0.8 0 0
0.9 0 0
1 0 0
1.1 0 0
1.2 0 0
1.3 0 0
1.4 0 0
1.5 0 0
1.6 0 0
1.7 0 0
1.8 0 0
1.9 0 0
2 0 0
2.1 0 0
0 0.1 0
0.1 0.1 0
0.2 0.1 0
0.3 0.1 0
0.4 0.1 0
0.5 0.1 0
0.6 0.1 0
0.7 0.1 0
0.8 0.1 0
0.9 0.1 0
1 0.1 0
1.1 0.1 0
1.2 0.1 0
1.3 0.1 0
1.4 0.1 0
1.5 0.1 0
1.6 0.1 0
1.7 0.1 0
1.8 0.1 0
1.9 0.1 0
2 0.1 0
2.1 0.1 0
0 0.2 0
0.1 0.2 0
0.2 0.2 0
0.3 0.2 0
0.4 0.2 0
0.5 0.2 0
0.6 0.2 0
0.7 0.2 0
0.8 0.2 0
0.9 0.2 0
1 0.2 0
1.1 0.2 0
1.2 0.2 0
1.3 0.2 0
1.4 0.2 0
1.5 0.2 0
1.6 0.2 0
1.7 0.2 0
1.8 0.2 0
1.9 0.2 0
2 0.2 0
2.1 0.2 0
0 0.3 0
0.1 0.3 0
0.2 0.3 0
0.3 0.3 0
0.4 0.3 0
0.5 0.3 0
0.6 0.3 0
0.7 0.3 0
0.8 0.3 0
0.9 0.3 0
1 0.3 0
1.1 0.3 0
1.2 0.3 0
1.3 0.3 0
1.4 0.3 0
1.5 0.3 0
1.6 0.3 0
1.7 0.3 0
1.8 0.3 0
1.9 0.3 0
2 0.3 0
2.1 0.3 0
0 0.4 0
0.1 0.4 0
0.2 0.4 0
0.3 0.4 0
0.4 0.4 0
0.5 0.4 0
0.6 0.4 0
0.7 0.4 0
0.8 0.4 0
0.9 0.4 0
1 0.4 0
1.1 0.4 0
1.2 0.4 0
1.3 0.4 0
1.4 0.4 0
1.5 0.4 0
1.6 0.4 0
1.7 0.4 0
1.8 0.4 0
1.9 0.4 0
2 0.4 0
2.1 0.4 0
0 0.5 0
0.1 0.5 0
0.2 0.5 0
0.3 0.5 0
0.4 0.5 0
0.5 0.5 0
0.6 0.5 0
0.7 0.5 0
0.8 0.5 0
0.9 0.5 0
1 0.5 0
1.1 0.5 0
1.2 0.5 0
1.3 0.5 0
1.4 0.5 0
1.5 0.5 0
1.6 0.5 0
1.7 0.5 0
1.8 0.5 0
1.9 0.5 0
2 0.5 0
2.1 0.5 0
0 0.6 0
0.1 0.6 0
0.2 0.6 0
0.3 0.6 0
0.4 0.6 0
0.5 0.6 0
0.6 0.6 0
0.7 0.6 0
0.8 0.6 0
0.9 0.6 0
1 0.6 0
1.1 0.6 0
1.2 0.6 0
1.3 0.6 0
1.4 0.6 0
1.5 0.6 0
1.6 0.6 0
1.7 0.6 0
1.8 0.6 0
1.9 0.6 0
2 0.6 0
2.1 0.6 0
0 0.7 0
0.1 0.7 0
0.2 0.7 0
0.3 0.7 0
0.4 0.7 0
0.5 0.7 0
0.6 0.7 0
0.7 0.7 0
0.8 0.7 0
0.9 0.7 0
1 0.7 0
1.1 0.7 0
1.2 0.7 0
1.3 0.7 0
1.4 0.7 0
1.5 0.7 0
1.6 0.7 0
1.7 0.7 0
1.8 0.7 0
1.9 0.7 0
2 0.7 0
2.1 0.7 0
0 0.8 0
0.1 0.8 0
0.2 0.8 0
0.3 0.8 0
0.4 0.8 0
0.5 0.8 0
0.6 0.8 0
0.7 0.8 0
0.8 0.8 0
0.9 0.8 0
1 0.8 0
1.1 0.8 0
1.2 0.8 0
1.3 0.8 0
1.4 0.8 0
1.5 0.8 0
1.6 0.8 0
1.7 0.8 0
1.8 0.8 0
1.9 0.8 0
2 0.8 0
2.1 0.8 0
0 0.9 0
0.1 0.9 0
0.2 0.9 0
0.3 0.9 0
0.4 0.9 0
0.5 0.9 0
0.6 0.9 0
0.7 0.9 0
0.8 0.9 0
0.9 0.9 0
1 0.9 0
1.1 0.9 0
1.2 0.9 0
1.3 0.9 0
1.4 0.9 0
1.5 0.9 0
1.6 0.9 0
1.7 0.9 0
1.8 0.9 0
1.9 0.9 0
2 0.9 0
2.1 0.9 0
0 1 0
0.1 1 0
0.2 1 0
0.3 1 0
0.4 1 0
0.5 1 0
0.6 1 0
0.7 1 0
0.8 1 0
0.9 1 0
1 1 0
1.1 1 0
1.2 1 0
1.3 1 0
1.4 1 0
1.5 1 0
1.6 1 0
1.7 1 0
1.8 1 0
1.9 1 0
2 1 0
2.1 1 0
0 1.1 0
0.1 1.1 0
0.2 1.1 0
0.3 1.1 0
0.4 1.1 0
0.5 1.1 0
0.6 1.1 0
0.7 1.1 0
0.8 1.1 0
0.9 1.1 0
1 1.1 0
1.1 1.1 0
1.2 1.1 0
1.3 1.1 0
1.4 1.1 0
1.5 1.1 0
1.6 1.1 0
1.7 1.1 0
1.8 1.1 0
1.9 1.1 0
2 1.1 0
2.1 1.1 0
0 1.2 0
0.1 1.2 0
0.2 1.2 0
0.3 1.2 0
0.4 1.2 0
0.5 1.2 0
0.6 1.2 0
0.7 1.2 0
0.8 1.2 0
0.9 1.2 0
1 1.2 0
1.1 1.2 0
1.2 1.2 0
1.3 1.2 0
1.4 1.2 0
1.5 1.2 0
1.6 1.2 0
1.7 1.2 0
1.8 1.2 0
1.9 1.2 0
2 1.2 0
2.1 1.2 0
0 1.3 0
0.1 1.3 0
0.2 1.3 0
0.3 1.3 0
0.4 1.3 0
0.5 1.3 0
0.6 1.3 0
0.7 1.3 0
0.8 1.3 0
0.9 1.3 0
1 1.3 0
1.1 1.3 0
1.2 1.3 0
1.3 1.3 0
1.4 1.3 0
1.5 1.3 0
1.6 1.3 0
1.7 1.3 0
1.8 1.3 0
1.9 1.3 0
2 1.3 0
2.1 1.3 0
0 1.4 0
0.1 1.4 0
0.2 1.4 0
0.3 1.4 0
0.4 1.4 0
0.5 1.4 0
0.6 1.4 0
0.7 1.4 0
0.8 1.4 0
0.9 1.4 0
1 1.4 0
1.1 1.4 0
1.2 1.4 0
1.3 1.4 0
1.4 1.4 0
1.5 1.4 0
1.6 1.4 0
1.7 1.4 0
1.8 1.4 0
1.9 1.4 0
2 1.4 0
2.1 1.4 0
0 1.5 0
0.1 1.5 0
0.2 1.5 0
0.3 1.5 0
0.4 1.5 0
0.5 1.5 0
0.6 1.5 0
0.7 1.5 0
0.8 1.5 0
0.9 1.5 0
1 1.5 0
1.1 1.5 0
1.2 1.5 0
1.3 1.5 0
1.4 1.5 0
1.5 1.5 0
1.6 1.5 0
1.7 1.5 0
1.8 1.5 0
1.9 1.5 0
2 1.5 0
2.1 1.5 0
0 1.6 0
0.1 1.6 0
0.2 1.6 0
0.3 1.6 0
0.4 1.6 0
0.5 1.6 0
0.6 1.6 0
0.7 1.6 0
0.8 1.6 0
0.9 1.6 0
1 1.6 0
1.1 1.6 0
1.2 1.6 0
1.3 1.6 0
1.4 1.6 0
1.5 1.6 0
1.6 1.6 0
1.7 1.6 0
1.8 1.6 0
1.9 1.6 0
2 1.6 0
2.1 1.6 0
0 0 0.1
0.1 0 0.1
0.2 0 0.1
0.3 0 0.1
0.4 0 0.1
0.5 0 0.1
0.6 0 0.1
0.7 0 0.1
0.8 0 0.1
0.9 0 0.1
1 0 0.1
1.1 0 0.1
1.2 0 0.1
1.3 0 0.1
1.4 0 0.1
1.5 0 0.1
1.6 0 0.1
1.7 0 0.1
1.8 0 0.1
1.9 0 0.1
2 0 0.1
2.1 0 0.1
0 0.1 0.1
0.1 0.1 0.1
0.2 0.1 0.1
0.3 0.1 0.1
0.4 0.1 0.1
0.5 0.1 0.1
0.6 0.1 0.1
0.7 0.1 0.1
0.8 0.1 0.1
0.9 0.1 0.1
1 0.1 0.1
1.1 0.1 0.1
1.2 0.1 0.1
1.3 0.1 0.1
1.4 0.1 0.1
1.5 0.1 0.1
1.6 0.1 0.1
1.7 0.1 0.1
1.8 0.1 0.1
1.9 0.1 0.1
2 0.1 0.1
2.1 0.1 0.1
0 0.2 0.1
0.1 0.2 0.1
0.2 0.2 0.1
0.3 0.2 0.1
0.4 0.2 0.1
0.5 0.2 0.1
0.6 0.2 0.1
0.7 0.2 0.1
0.8 0.2 0.1
0.9 0.2 0.1
1 0.2 0.1
1.1 0.2 0.1
1.2 0.2 0.1
1.3 0.2 0.1
1.4 0.2 0.1
1.5 0.2 0.1
1.6 0.2 0.1
1.7 0.2 0.1
1.8 0.2 0.1
1.9 0.2 0.1
2 0.2 0.1
2.1 0.2 0.1
0 0.3 0.1
0.1 0.3 0.1
0.2 0.3 0.1
0.3 0.3 0.1
0.4 0.3 0.1
0.5 0.3 0.1
0.6 0.3 0.1
0.7 0.3 0.1
0.8 0.3 0.1
0.9 0.3 0.1
1 0.3 0.1
1.1 0.3 0.1
1.2 0.3 0.1
1.3 0.3 0.1
1.4 0.3 0.1
1.5 0.3 0.1
1.6 0.3 0.1
1.7 0.3 0.1
1.8 0.3 0.1
1.9 0.3 0.1
2 0.3 0.1
2.1 0.3 0.1
0 0.4 0.1
0.1 0.4 0.1
0.2 0.4 0.1
0.3 0.4 0.1
0.4 0.4 0.1
0.5 0.4 0.1
0.6 0.4 0.1
0.7 0.4 0.1
0.8 0.4 0.1
0.9 0.4 0.1
1 0.4 0.1
1.1 0.4 0.1
1.2 0.4 0.1
1.3 0.4 0.1
1.4 0.4 0.1
1.5 0.4 0.1
1.6 0.4 0.1
1.7 0.4 0.1
1.8 0.4 0.1
1.9 0.4 0.1
2 0.4 0.1
2.1 0.4 0.1
0 0.5 0.1
0.1 0.5 0.1
0.2 0.5 0.1
0.3 0.5 0.1
0.4 0.5 0.1
0.5 0.5 0.1
0.6 0.5 0.1
0.7 0.5 0.1
0.8 0.5 0.1
0.9 0.5 0.1
1 0.5 0.1
1.1 0.5 0.1
1.2 0.5 0.1
1.3 0.5 0.1
1.4 0.5 0.1
1.5 0.5 0.1
1.6 0.5 0.1
1.7 0.5 0.1
1.8 0.5 0.1
1.9 0.5 0.1
2 0.5 0.1
2.1 0.5 0.1
0 0.6 0.1
0.1 0.6 0.1
0.2 0.6 0.1
0.3 0.6 0.1
0.4 0.6 0.1
0.5 0.6 0.1
0.6 0.6 0.1
0.7 0.6 0.1
0.8 0.6 0.1
0.9 0.6 0.1
1 0.6 0.1
1.1 0.6 0.1
1.2 0.6 0.1
1.3 0.6 0.1
1.4 0.6 0.1
1.5 0.6 0.1
1.6 0.6 0.1
1.7 0.6 0.1
1.8 0.6 0.1
1.9 0.6 0.1
2 0.6 0.1
2.1 0.6 0.1
0 0.7 0.1
0.1 0.7 0.1
0.2 0.7 0.1
0.3 0.7 0.1
0.4 0.7 0.1
0.5 0.7 0.1
0.6 0.7 0.1
0.7 0.7 0.1
0.8 0.7 0.1
0.9 0.7 0.1
1 0.7 0.1
1.1 0.7 0.1
1.2 0.7 0.1
1.3 0.7 0.1
1.4 0.7 0.1
1.5 0.7 0.1
1.6 0.7 0.1
1.7 0.7 0.1
1.8 0.7 0.1
1.9 0.7 0.1
2 0.7 0.1
2.1 0.7 0.1
0 0.8 0.1
0.1 0.8 0.1
0.2 0.8 0.1
0.3 0.8 0.1
0.4 0.8 0.1
0.5 0.8 0.1
0.6 0.8 0.1
0.7 0.8 0.1
0.8 0.8 0.1
0.9 0.8 0.1
1 0.8 0.1
1.1 0.8 0.1
1.2 0.8 0.1
1.3 0.8 0.1
1.4 0.8 0.1
1.5 0.8 0.1
1.6 0.8 0.1
1.7 0.8 0.1
1.8 0.8 0.1
1.9 0.8 0.1
2 0.8 0.1
2.1 0.8 0.1
0 0.9 0.1
0.1 0.9 0.1
0.2 0.9 0.1
0.3 0.9 0.1
0.4 0.9 0.1
0.5 0.9 0.1
0.6 0.9 0.1
0.7 0.9 0.1
0.8 0.9 0.1
0.9 0.9 0.1
1 0.9 0.1
1.1 0.9 0.1
1.2 0.9 0.1
1.3 0.9 0.1
1.4 0.9 0.1
1.5 0.9 0.1
1.6 0.9 0.1
1.7 0.9 0.1
1.8 0.9 0.1
1.9 0.9 0.1
2 0.9 0.1
2.1 0.9 0.1
0 1 0.1
0.1 1 0.1
0.2 1 0.1
0.3 1 0.1
0.4 1 0.1
0.5 1 0.1
0.6 1 0.1
0.7 1 0.1
0.8 1 0.1
0.9 1 0.1
1 1 0.1
1.1 1 0.1
1.2 1 0.1
1.3 1 0.1
1.4 1 0.1
1.5 1 0.1
1.6 1 0.1
1.7 1 0.1
1.8 1 0.1
1.9 1 0.1
2 1 0.1
2.1 1 0.1
0 1.1 0.1
0.1 1.1 0.1
0.2 1.1 0.1
0.3 1.1 0.1
0.4 1.1 0.1
0.5 1.1 0.1
0.6 1.1 0.1
0.7 1.1 0.1
0.8 1.1 0.1
0.9 1.1 0.1
1 1.1 0.1
1.1 1.1 0.1
1.2 1.1 0.1
1.3 1.1 0.1
1.4 1.1 0.1
1.5 1.1 0.1
1.6 1.1 0.1
1.7 1.1 0.1
1.8 1.1 0.1
1.9 1.1 0.1
2 1.1 0.1
2.1 1.1 0.1
0 1.2 0.1
0.1 1.2 0.1
0.2 1.2 0.1
0.3 1.2 0.1
0.4 1.2 0.1
0.5 1.2 0.1
0.6 1.2 0.1
0.7 1.2 0.1
0.8 1.2 0.1
0.9 1.2 0.1
1 1.2 0.1
1.1 1.2 0.1
1.2 1.2 0.1
1.3 1.2 0.1
1.4 1.2 0.1
1.5 1.2 0.1
1.6 1.2 0.1
1.7 1.2 0.1
1.8 1.2 0.1
1.9 1.2 0.1
2 1.2 0.1
2.1 1.2 0.1
0 1.3 0.1
0.1 1.3 0.1
0.2 1.3 0.1
0.3 1.3 0.1
0.4 1.3 0.1
0.5 1.3 0.1
0.6 1.3 0.1
0.7 1.3 0.1
0.8 1.3 0.1
0.9 1.3 0.1
1 1.3 0.1
1.1 1.3 0.1
1.2 1.3 0.1
1.3 1.3 0.1
1.4 1.3 0.1
1.5 1.3 0.1
1.6 1.3 0.1
1.7 1.3 0.1
1.8 1.3 0.1
1.9 1.3 0.1
2 1.3 0.1
2.1 1.3 0.1
0 1.4 0.1
0.1 1.4 0.1
0.2 1.4 0.1
0.3 1.4 0.1
0.4 1.4 0.1
0.5 1.4 0.1
0.6 1.4 0.1
0.7 1.4 0.1
0.8 1.4 0.1
0.9 1.4 0.1
1 1.4 0.1
1.1 1.4 0.1
1.2 1.4 0.1
1.3 1.4 0.1
1.4 1.4 0.1
1.5 1.4 0.1
1.6 1.4 0.1
1.7 1.4 0.1
1.8 1.4 0.1
1.9 1.4 0.1
2 1.4 0.1
2.1 1.4 0.1
0 1.5 0.1
0.1 1.5 0.1
0.2 1.5 0.1
0.3 1.5 0.1
0.4 1.5 0.1
0.5 1.5 0.1
0.6 1.5 0.1
0.7 1.5 0.1
0.8 1.5 0.1
0.9 1.5 0.1
1 1.5 0.1
1.1 1.5 0.1
1.2 1.5 0.1
1.3 1.5 0.1
1.4 1.5 0.1
1.5 1.5 0.1
1.6 1.5 0.1
1.7 1.5 0.1
1.8 1.5 0.1
1.9 1.5 0.1
2 1.5 0.1
2.1 1.5 0.1
0 1.6 0.1
0.1 1.6 0.1
0.2 1.6 0.1
0.3 1.6 0.1
0.4 1.6 0.1
0.5 1.6 0.1
0.6 1.6 0.1
0.7 1.6 0.1
0.8 1.6 0.1
0.9 1.6 0.1
1 1.6 0.1
1.1 1.6 0.1
1.2 1.6 0.1
1.3 1.6 0.1
1.4 1.6 0.1
1.5 1.6 0.1
1.6 1.6 0.1
1.7 1.6 0.1
1.8 1.6 0.1
1.9 1.6 0.1
2 1.6 0.1
2.1 1.6 0.1
0 0 0.2
0.1 0 0.2
0.2 0 0.2
0.3 0 0.2
0.4 0 0.2
0.5 0 0.2
0.6 0 0.2
0.7 0 0.2
0.8 0 0.2
0.9 0 0.2
1 0 0.2
1.1 0 0.2
1.2 0 0.2
1.3 0 0.2
1.4 0 0.2
1.5 0 0.2
1.6 0 0.2
1.7 0 0.2
1.8 0 0.2
1.9 0 0.2
2 0 0.2
2.1 0 0.2
0 0.1 0.2
0.1 0.1 0.2
0.2 0.1 0.2
0.3 0.1 0.2
0.4 0.1 0.2
0.5 0.1 0.2
0.6 0.1 0.2
0.7 0.1 0.2
0.8 0.1 0.2
0.9 0.1 0.2
1 0.1 0.2
1.1 0.1 0.2
1.2 0.1 0.2
1.3 0.1 0.2
1.4 0.1 0.2
1.5 0.1 0.2
1.6 0.1 0.2
1.7 0.1 0.2
1.8 0.1 0.2
1.9 0.1 0.2
2 0.1 0.2
2.1 0.1 0.2
0 0.2 0.2
0.1 0.2 0.2
0.2 0.2 0.2
0.3 0.2 0.2
0.4 0.2 0.2
0.5 0.2 0.2
0.6 0.2 0.2
0.7 0.2 0.2
0.8 0.2 0.2
0.9 0.2 0.2
1 0.2 0.2
1.1 0.2 0.2
1.2 0.2 0.2
1.3 0.2 0.2
1.4 0.2 0.2
1.5 0.2 0.2
1.6 0.2 0.2
1.7 0.2 0.2
1.8 0.2 0.2
1.9 0.2 0.2
2 0.2 0.2
2.1 0.2 0.2
0 0.3 0.2
0.1 0.3 0.2
0.2 0.3 0.2
0.3 0.3 0.2
0.4 0.3 0.2
0.5 0.3 0.2
0.6 0.3 0.2
0.7 0.3 0.2
0.8 0.3 0.2
0.9 0.3 0.2
1 0.3 0.2
1.1 0.3 0.2
1.2 0.3 0.2
1.3 0.3 0.2
1.4 0.3 0.2
1.5 0.3 0.2
1.6 0.3 0.2
1.7 0.3 0.2
1.8 0.3 0.2
1.9 0.3 0.2
2 0.3 0.2
2.1 0.3 0.2
0 0.4 0.2
0.1 0.4 0.2
0.2 0.4 0.2
0.3 0.4 0.2
0.4 0.4 0.2
0.5 0.4 0.2
0.6 0.4 0.2
0.7 0.4 0.2
0.8 0.4 0.2
0.9 0.4 0.2
1 0.4 0.2
1.1 0.4 0.2
1.2 0.4 0.2
1.3 0.4 0.2
1.4 0.4 0.2
1.5 0.4 0.2
1.6 0.4 0.2
1.7 0.4 0.2
1.8 0.4 0.2
1.9 0.4 0.2
2 0.4 0.2
2.1 0.4 0.2
0 0.5 0.2
0.1 0.5 0.2
0.2 0.5 0.2
0.3 0.5 0.2
0.4 0.5 0.2
0.5 0.5 0.2
0.6 0.5 0.2
0.7 0.5 0.2
0.8 0.5 0.2
0.9 0.5 0.2
1 0.5 0.2
1.1 0.5 0.2
1.2 0.5 0.2
1.3 0.5 0.2
1.4 0.5 0.2
1.5 0.5 0.2
1.6 0.5 0.2
1.7 0.5 0.2
1.8 0.5 0.2
1.9 0.5 0.2
2 0.5 0.2
2.1 0.5 0.2
0 0.6 0.2
0.1 0.6 0.2
0.2 0.6 0.2
0.3 0.6 0.2
0.4 0.6 0.2
0.5 0.6 0.2
0.6 0.6 0.2
0.7 0.6 0.2
0.8 0.6 0.2
0.9 0.6 0.2
1 0.6 0.2
1.1 0.6 0.2
1.2 0.6 0.2
1.3 0.6 0.2
1.4 0.6 0.2
1.5 0.6 0.2
1.6 0.6 0.2
1.7 0.6 0.2
1.8 0.6 0.2
1.9 0.6 0.2
2 0.6 0.2
2.1 0.6 0.2
0 0.7 0.2
0.1 0.7 0.2
0.2 0.7 0.2
0.3 0.7 0.2
0.4 0.7 0.2
0.5 0.7 0.2
0.6 0.7 0.2
0.7 0.7 0.2
0.8 0.7 0.2
0.9 0.7 0.2
1 0.7 0.2
1.1 0.7 0.2
1.2 0.7 0.2
1.3 0.7 0.2
1.4 0.7 0.2
1.5 0.7 0.2
1.6 0.7 0.2
1.7 0.7 0.2
1.8 0.7 0.2
1.9 0.7 0.2
2 0.7 0.2
2.1 0.7 0.2
0 0.8 0.2
0.1 0.8 0.2
[...]
POINT_DATA 4488

SCALARS pressure double
LOOKUP_TABLE pressure
0
0
0
0
0
0
0
0
0
0
0
0
0
0
0
0
0
0
0
0
0
0
0
42.1724
42.1669
42.1634
42.1605
42.1585
42.1565
42.154
42.1508
42.1498
42.1549
42.1535
42.153
42.1529
42.1527
42.1524
42.152
42.1514
42.1515
42.1506
42.1494
0
0
42.1666
42.165
42.1628
42.1605
42.1586
42.1569
42.1547
42.1512
42.1514
42.1528
42.1528
42.1528
42.1528
42.1527
42.1525
42.1521
42.1521
42.1516
42.1511
42.1505
0
0
42.1635
42.163
42.1618
42.1604
42.159
42.1572
42.1542
42.1526
42.1521
42.1523
42.1528
42.1529
42.1529
42.1529
42.1529
42.1529
42.1529
42.1523
42.152
42.1517
0
0
42.1617
42.1616
42.161
42.1603
42.1601
42.1586
42.1523
42.1527
42.1522
42.1518
42.1533
42.1532
42.1531
42.153
42.153
42.1534
42.1535
42.1532
42.1528
42.1528
0
0
42.1604
42.1605
42.1602
42.1597
42.159
42.1568
42.1546
42.1537
42.1528
42.1527
42.1533
42.1535
42.1533
42.1529
42.1531
42.1539
42.1542
42.1539
42.1533
42.1536
0
0
42.1595
42.1597
42.1595
42.159
42.1582
42.157
42.1559
42.155
42.1534
42.1531
42.1536
42.1538
42.1534
42.1528
42.153
42.1544
42.155
42.154
42.1532
42.1541
0
0
42.1589
42.1591
42.159
42.1586
42.1579
42.1572
42.1567
42.1567
42.153
42.1536
42.1538
42.1537
42.1537
42.1537
42.1539
42.1546
42.1547
42.1539
42.154
42.1536
0
0
42.1583
42.1586
42.1587
42.1585
42.1575
42.1571
42.1566
42.156
42.1547
42.1544
42.1542
42.1543
42.1546
42.1548
42.1548
42.1548
42.1546
42.1545
42.1551
42.1547
0
0
42.1577
42.1583
42.1584
42.1581
42.1574
42.157
42.1567
42.1562
42.1556
42.1553
42.1551
42.1551
42.1553
42.1555
42.1555
42.1553
42.1551
42.1552
42.1557
42.1556
0
0
42.1564
42.1585
42.1583
42.1582
42.157
42.1567
42.1569
42.1567
42.1564
42.1561
42.1559
42.1559
42.1561
42.1563
42.1562
42.156
42.1559
42.1559
42.1561
42.1561
0
0
42.1572
42.1579
42.1582
42.1585
42.1592
42.1579
42.1574
42.1572
42.1571
42.1569
42.1568
42.1567
42.1569
42.1573
42.1569
42.1568
42.1567
42.1564
42.1565
42.1566
0
0
42.1574
42.1578
42.1581
42.1583
42.1584
42.158
42.1577
42.1576
42.1575
42.1575
42.1574
42.1575
42.1575
42.1577
42.1577
42.1578
42.1578
42.1565
42.1567
42.1569
0
0
42.1574
42.1577
42.1579
42.1581
42.1582
42.158
42.1579
42.1578
42.1578
42.1579
42.158
42.1581
42.1582
42.1583
42.1585
42.1589
42.1603
42.1551
42.1566
42.1575
0
0
42.1574
42.1577
42.1578
42.158
42.158
42.158
42.158
42.1579
42.1579
42.1581
42.1584
42.1587
42.1588
42.1589
42.159
42.159
42.1589
42.1576
42.1578
42.158
0
0
42.1575
42.1577
42.1578
42.1579
42.158
42.1581
42.158
42.1577
42.158
42.1582
42.1588
42.1593
42.1597
42.1598
42.1595
42.1592
42.1589
42.1587
42.1586
42.1587
0
0
0
0
0
0
0
0
0
0
0
0
0
0
0
0
0
0
0
0
0
0
0
0
42.1724
42.1669
42.1634
42.1605
42.1585
42.1565
42.154
42.1508
42.1498
42.1549
42.1535
42.153
42.1529
42.1527
42.1524
42.152
42.1514
42.1515
42.1506
42.1494
0
42.1724
42.1724
42.1669
42.1634
42.1605
42.1585
42.1565
42.154
42.1508
42.1498
42.1549
42.1535
42.153
42.1529
42.1527
42.1524
42.152
42.1514
42.1515
42.1506
42.1494
42.1494
42.1666
42.1666
42.165
42.1628
42.1605
42.1586
42.1569
42.1547
42.1512
42.1514
42.1528
42.1528
42.1528
42.1528
42.1527
42.1525
42.1521
42.1521
42.1516
42.1511
42.1505
42.1505
42.1635
42.1635
42.163
42.1618
42.1604
42.159
42.1572
42.1542
42.1526
42.1521
42.1523
42.1528
42.1529
42.1529
42.1529
42.1529
42.1529
42.1529
42.1523
42.152
42.1517
42.1517
42.1617
42.1617
42.1616
42.161
42.1603
42.1601
42.1586
42.1523
42.1527
42.1522
42.1518
42.1533
42.1532
42.1531
42.153
42.153
42.1534
42.1535
42.1532
42.1528
42.1528
42.1528
42.1604
42.1604
42.1605
42.1602
42.1597
42.159
42.1568
42.1546
42.1537
42.1528
42.1527
42.1533
42.1535
42.1533
42.1529
42.1531
42.1539
42.1542
42.1539
42.1533
42.1536
42.1536
42.1595
42.1595
42.1597
42.1595
42.159
42.1582
42.157
42.1559
42.155
42.1534
42.1531
42.1536
42.1538
42.1534
42.1528
42.153
42.1544
42.155
42.154
42.1532
42.1541
42.1541
42.1589
42.1589
42.1591
42.159
42.1586
42.1579
42.1572
42.1567
42.1567
42.153
42.1536
42.1538
42.1537
42.1537
42.1537
42.1539
42.1546
42.1547
42.1539
42.154
42.1536
42.1536
42.1583
42.1583
42.1586
42.1587
42.1585
42.1575
42.1571
42.1566
42.156
42.1547
42.1544
42.1542
42.1543
42.1546
42.1548
42.1548
42.1548
42.1546
42.1545
42.1551
42.1547
42.1547
42.1577
42.1577
42.1583
42.1584
42.1581
42.1574
42.157
42.1567
42.1562
42.1556
42.1553
42.1551
42.1551
42.1553
42.1555
42.1555
42.1553
42.1551
42.1552
42.1557
42.1556
42.1556
42.1564
42.1564
42.1585
42.1583
42.1582
42.157
42.1567
42.1569
42.1567
42.1564
42.1561
42.1559
42.1559
42.1561
42.1563
42.1562
42.156
42.1559
42.1559
42.1561
42.1561
42.1561
42.1572
42.1572
42.1579
42.1582
42.1585
42.1592
42.1579
42.1574
42.1572
42.1571
42.1569
42.1568
42.1567
42.1569
42.1573
42.1569
42.1568
42.1567
42.1564
42.1565
42.1566
42.1566
42.1574
42.1574
42.1578
42.1581
42.1583
42.1584
42.158
42.1577
42.1576
42.1575
42.1575
42.1574
42.1575
42.1575
42.1577
42.1577
42.1578
42.1578
42.1565
42.1567
42.1569
42.1569
42.1574
42.1574
42.1577
42.1579
42.1581
42.1582
42.158
42.1579
42.1578
42.1578
42.1579
42.158
42.1581
42.1582
42.1583
42.1585
42.1589
42.1603
42.1551
42.1566
42.1575
42.1575
42.1574
42.1574
42.1577
42.1578
42.158
42.158
42.158
42.158
42.1579
42.1579
42.1581
42.1584
42.1587
42.1588
42.1589
42.159
42.159
42.1589
42.1576
42.1578
42.158
42.158
42.1575
42.1575
42.1577
42.1578
42.1579
42.158
42.1581
42.158
42.1577
42.158
42.1582
42.1588
42.1593
42.1597
42.1598
42.1595
42.1592
42.1589
42.1587
42.1586
42.1587
42.1587
0
42.1575
42.1577
42.1578
42.1579
42.158
42.1581
42.158
42.1577
42.158
42.1582
42.1588
42.1593
42.1597
42.1598
42.1595
42.1592
42.1589
42.1587
42.1586
42.1587
0
0
42.1761
42.1705
42.1665
42.1616
42.1539
42.1495
42.149
42.1498
42.1512
42.1531
42.1534
42.1535
42.1534
42.1533
42.153
42.1525
42.1519
42.1512
42.15
42.1491
0
42.1761
42.1761
42.1705
42.1665
42.1616
42.1539
42.1495
42.149
42.1498
42.1512
42.1531
42.1534
42.1535
42.1534
42.1533
42.153
42.1525
42.1519
42.1512
42.15
42.1491
42.1491
42.17
42.17
42.1683
42.1658
42.162
42.1562
42.151
42.1493
42.1495
42.1508
42.1523
42.1529
42.1533
42.1534
42.1533
42.153
42.1527
42.1523
42.1517
42.1509
42.1504
42.1504
42.1666
42.1666
42.166
42.1646
42.1622
42.1584
42.1534
42.1504
42.1499
42.1507
42.1518
42.1527
42.1531
42.1533
42.1533
42.1532
42.1531
42.1528
42.1524
42.1521
42.1518
42.1518
42.1643
42.1643
42.1642
42.1635
42.1621
42.1596
42.1555
42.1515
42.1504
42.1507
42.1515
42.1525
42.153
42.1532
42.1533
42.1533
42.1534
42.1534
42.1532
42.153
42.1529
42.1529
42.1627
42.1627
42.1628
42.1624
42.1615
42.1597
42.1566
42.1534
42.1518
42.1514
42.1518
42.1524
42.1529
42.1532
42.1533
42.1535
42.1538
42.1539
42.1538
42.1536
42.1537
42.1537
42.1615
42.1615
42.1616
42.1614
42.1609
42.1599
42.158
42.1558
42.1539
42.1526
42.1523
42.1526
42.153
42.1533
42.1534
42.1537
42.1541
42.1543
42.1541
42.154
42.1543
42.1543
42.1605
42.1605
42.1607
42.1607
42.1604
42.1597
42.1586
42.1569
42.1552
42.1533
42.1528
42.153
42.1533
42.1536
42.1539
42.1542
42.1545
42.1545
42.1544
42.1546
42.1546
42.1546
42.1597
42.1597
42.1599
42.16
42.1598
42.1592
42.1584
42.1571
42.1557
42.1544
42.154
42.154
42.1542
42.1544
42.1547
42.1549
42.155
42.155
42.155
42.1553
42.1553
42.1553
42.159
42.159
42.1593
42.1594
42.1593
42.1588
42.1583
42.1576
42.1568
42.1561
42.1556
42.1553
42.1552
42.1554
42.1555
42.1555
42.1556
42.1555
42.1556
42.1559
42.1559
42.1559
42.1584
42.1584
42.1589
42.159
42.159
42.1586
42.1583
42.158
42.1577
42.1573
42.1568
42.1564
42.1562
42.1562
42.1563
42.1563
42.1562
42.1562
42.1562
42.1564
42.1565
42.1565
42.1582
42.1582
42.1586
42.1588
42.1589
42.1589
42.1585
42.1583
42.1581
42.1578
42.1575
42.1572
42.157
42.157
42.1571
42.157
42.157
42.1569
42.1568
42.1569
42.1569
42.1569
42.158
42.158
42.1583
42.1585
42.1587
42.1587
42.1585
42.1584
42.1583
42.1581
42.1579
42.1578
42.1577
42.1577
42.1577
42.1577
42.1577
42.1576
42.1572
42.1572
42.1573
42.1573
42.1579
42.1579
42.1582
42.1583
42.1584
42.1585
42.1584
42.1584
42.1583
42.1583
42.1582
42.1582
42.1582
42.1583
42.1583
42.1583
42.1584
42.1585
42.1574
42.1576
42.1578
42.1578
42.1578
42.1578
42.158
42.1582
42.1583
42.1583
42.1583
42.1583
42.1583
42.1583
42.1584
42.1586
42.1587
42.1588
42.1589
42.1589
42.1588
42.1587
42.1583
42.1583
42.1583
42.1583
42.1579
42.1579
42.158
42.1581
42.1581
42.1582
42.1583
42.1582
42.1582
42.1584
42.1586
42.1589
42.1592
42.1594
42.1595
42.1594
42.1592
42.159
42.1589
42.1589
42.159
42.159
0
42.1579
42.158
42.1581
42.1581
42.1582
42.1583
42.1582
42.1582
42.1584
42.1586
42.1589
42.1592
42.1594
42.1595
42.1594
42.1592
42.159
42.1589
42.1589
42.159
0
0
42.18
42.1749
42.1714
42.1641
42.1433
42.1359
42.1414
42.1478
42.1516
42.1535
42.1541
42.1543
42.1542
42.1539
42.1535
42.1529
42.1522
42.1513
42.1499
42.1491
0
42.18
42.18
42.1749
42.1714
42.1641
42.1433
42.1359
42.1414
42.1478
42.1516
42.1535
42.1541
42.1543
42.1542
42.1539
42.1535
42.1529
42.1522
42.1513
42.1499
42.1491
42.1491
42.1736
42.1736
42.1722
42.17
42.165
42.1521
42.1396
42.1407
42.1458
42.1498
42.1522
42.1534
42.1539
42.1541
42.1539
42.1536
42.1531
42.1525
42.1518
42.1509
42.1504
42.1504
42.1696
42.1696
42.1693
42.1683
42.1658
42.1588
42.1473
42.1435
42.1455
42.1487
42.1512
42.1527
42.1535
42.1538
42.1537
42.1536
42.1533
42.1529
42.1525
42.1521
42.1519
42.1519
42.1669
42.1669
42.167
42.1667
42.1655
42.1617
42.153
42.1466
42.1457
42.1478
42.1502
42.1519
42.1529
42.1534
42.1535
42.1536
42.1535
42.1534
42.1532
42.1531
42.153
42.153
42.1649
42.1649
42.1651
42.165
42.1643
42.1616
42.1556
42.1498
42.1478
42.1488
42.1503
42.1515
42.1524
42.153
42.1534
42.1536
42.1538
42.1539
42.1538
42.1538
42.1538
42.1538
42.1633
42.1633
42.1635
42.1636
42.1635
42.1624
42.1598
42.1561
42.1528
42.1512
42.1509
42.1513
42.1521
42.1529
42.1534
42.1538
42.1541
42.1543
42.1543
42.1544
42.1545
42.1545
42.162
42.162
42.1622
42.1625
42.1626
42.1623
42.1611
42.1581
42.1544
42.1516
42.1508
42.1514
42.1524
42.1533
42.1539
42.1543
42.1546
42.1547
42.1548
42.1549
42.155
42.155
42.1609
42.1609
42.1612
42.1614
42.1614
42.1611
42.16
42.1577
42.1547
42.1527
42.1525
42.1531
42.1537
42.1542
42.1546
42.1549
42.1551
42.1553
42.1554
42.1556
42.1556
42.1556
42.16
42.16
42.1603
42.1605
42.1605
42.1602
42.1596
42.1585
42.1573
42.1566
42.1559
42.1554
42.1553
42.1554
42.1555
42.1557
42.1558
42.1558
42.156
42.1561
42.1562
42.1562
42.1594
42.1594
42.1597
42.1598
42.1599
42.1598
42.1595
42.1593
42.1591
42.1587
42.1578
42.157
42.1565
42.1564
42.1564
42.1564
42.1564
42.1565
42.1565
42.1567
42.1567
42.1567
42.1589
42.1589
42.1592
42.1593
42.1594
42.1595
42.1594
42.1594
42.1593
42.159
42.1584
42.1578
42.1574
42.1572
42.1571
42.1571
42.1571
42.1571
42.1571
42.1572
42.1572
42.1572
42.1586
42.1586
42.1588
42.159
42.1591
42.1592
42.1592
42.1592
42.1591
42.1589
42.1586
42.1582
42.158
42.1578
42.1578
42.1577
42.1577
42.1577
42.1576
42.1577
42.1577
42.1577
42.1584
42.1584
42.1586
42.1587
42.1588
42.1589
42.1589
42.1589
42.1589
42.1588
42.1587
42.1585
42.1584
42.1584
42.1583
42.1583
42.1583
42.1583
42.1581
42.1581
42.1582
42.1582
42.1582
42.1582
42.1584
42.1585
42.1586
42.1587
42.1587
42.1587
42.1587
42.1587
42.1588
42.1588
42.1588
42.1589
42.1589
42.1588
42.1588
42.1587
42.1586
42.1587
42.1587
42.1587
42.1582
42.1582
42.1583
42.1583
42.1584
42.1585
42.1585
42.1585
42.1586
42.1587
42.1589
42.1591
42.1592
42.1593
42.1594
42.1593
42.1592
42.1592
42.1591
42.1592
42.1592
42.1592
0
42.1582
42.1583
42.1583
42.1584
42.1585
42.1585
42.1585
42.1586
42.1587
42.1589
42.1591
42.1592
42.1593
42.1594
42.1593
42.1592
42.1592
42.1591
42.1592
42.1592
0
0
42.1839
42.1801
42.1805
42.1753
42.109
42.1037
42.1314
42.1478
42.1539
42.1555
42.1556
42.1554
42.1551
42.1546
42.154
42.1533
42.1524
42.1514
42.1499
42.1491
0
42.1839
42.1839
42.1801
42.1805
42.1753
42.109
42.1037
42.1314
42.1478
42.1539
42.1555
42.1556
42.1554
42.1551
42.1546
42.154
42.1533
42.1524
42.1514
42.1499
42.1491
42.1491
42.1769
42.1769
42.1765
42.1767
42.1738
42.1502
42.1101
42.1241
42.1418
42.1506
42.1536
42.1546
42.155
42.155
42.1545
42.154
42.1534
42.1527
42.1519
42.151
42.1505
42.1505
42.1724
42.1724
42.1727
42.1733
42.1736
42.165
42.1339
42.1297
42.139
42.147
42.1514
42.1536
42.1545
42.1545
42.1542
42.1539
42.1535
42.1531
42.1526
42.1522
42.152
42.152
42.1691
42.1691
42.1697
42.1707
42.1724
42.1709
42.1503
42.1356
42.1351
42.1423
42.1484
42.1518
42.1533
42.1537
42.1538
42.1538
42.1537
42.1535
42.1533
42.1532
42.1531
42.1531
42.1667
42.1667
42.1672
42.168
42.1687
42.1655
42.1525
42.1396
42.1376
42.1435
42.1487
42.1507
42.1518
42.1527
42.1534
42.1537
42.1539
42.154
42.154
42.154
42.154
42.154
42.1648
42.1648
42.1652
42.1659
42.1668
42.1666
42.1644
42.1587
42.1521
42.1503
42.1495
42.149
42.1506
42.1523
42.1533
42.1539
42.1543
42.1544
42.1545
42.1546
42.1547
42.1547
42.1632
42.1632
42.1636
42.1642
42.1653
42.1666
42.1672
42.1612
42.1531
42.147
42.1455
42.148
42.1508
42.1526
42.1537
42.1544
42.1547
42.1549
42.1551
42.1552
42.1553
42.1553
42.1619
42.1619
42.1623
42.1627
42.1633
42.1635
42.162
42.1577
42.1504
42.1465
42.1491
42.1513
42.1528
42.1539
42.1546
42.155
42.1553
42.1555
42.1556
42.1558
42.1559
42.1559
42.1609
42.1609
42.1612
42.1615
42.1617
42.1617
42.1611
42.1595
42.1578
42.1585
42.1569
42.1556
42.1553
42.1554
42.1556
42.1558
42.1559
42.1561
42.1562
42.1564
42.1565
42.1565
42.1601
42.1601
42.1603
42.1605
42.1607
42.1608
42.1608
42.1611
42.1621
42.1616
42.1594
42.1577
42.1569
42.1565
42.1565
42.1565
42.1566
42.1567
42.1568
42.1569
42.157
42.157
42.1595
42.1595
42.1597
42.1599
42.16
42.1602
42.1604
42.1607
42.161
42.1606
42.1596
42.1585
42.1578
42.1574
42.1572
42.1572
42.1572
42.1573
42.1573
42.1575
42.1575
42.1575
42.159
42.159
42.1593
42.1594
42.1596
42.1597
42.1598
42.16
42.1601
42.1599
42.1593
42.1587
42.1583
42.158
42.1579
42.1578
42.1578
42.1578
42.1579
42.158
42.158
42.158
42.1587
42.1587
42.159
42.1591
42.1592
42.1593
42.1594
42.1595
42.1595
42.1594
42.1592
42.1589
42.1586
42.1585
42.1584
42.1584
42.1584
42.1584
42.1584
42.1585
42.1585
42.1585
42.1585
42.1585
42.1587
42.1588
42.1589
42.159
42.159
42.1591
42.1591
42.1591
42.1591
42.159
42.159
42.1589
42.1589
42.1589
42.1588
42.1588
42.1588
42.1589
42.159
42.159
42.1585
42.1585
42.1586
42.1586
42.1587
42.1587
42.1588
42.1588
42.1589
42.159
42.1591
42.1592
42.1593
42.1593
42.1593
42.1593
42.1593
42.1593
42.1593
42.1594
42.1595
42.1595
0
42.1585
42.1586
42.1586
42.1587
42.1587
42.1588
42.1588
42.1589
42.159
42.1591
42.1592
42.1593
42.1593
42.1593
42.1593
42.1593
42.1593
42.1593
42.1594
42.1595
0
0
42.1863
42.1846
42.1939
42.2258
42.1374
42.056
42.1256
42.1529
42.1587
42.1587
42.1577
42.1569
42.1561
42.1552
42.1542
42.1533
42.1525
42.1515
42.15
42.1492
0
42.1863
42.1863
42.1846
42.1939
42.2258
42.1374
42.056
42.1256
42.1529
42.1587
42.1587
42.1577
42.1569
42.1561
42.1552
42.1542
42.1533
42.1525
42.1515
42.15
42.1492
42.1492
42.1788
42.1788
42.1796
42.1843
42.2017
42.1573
42.0773
42.1088
42.1426
42.1547
42.1573
42.1574
42.1571
42.1564
42.1553
42.1542
42.1534
42.1528
42.152
42.1511
42.1506
42.1506
42.1739
42.1739
42.1748
42.1777
42.1864
42.1821
42.1099
42.1135
42.1349
42.1469
42.153
42.1557
42.1565
42.1558
42.1549
42.1541
42.1537
42.1532
42.1528
42.1523
42.1521
42.1521
42.1703
42.1703
42.1713
42.174
42.1823
42.2011
42.1447
42.1272
42.1254
42.1346
42.1471
42.1531
42.1544
42.1542
42.154
42.1539
42.1538
42.1537
42.1535
42.1533
42.1532
42.1532
42.1677
42.1677
42.1685
42.1704
42.1745
42.1833
42.1478
42.1311
42.1216
42.1346
42.1492
42.1519
42.1516
42.1523
42.1533
42.1538
42.1541
42.1541
42.1541
42.1542
42.1541
42.1541
42.1656
42.1656
42.1662
42.1676
42.1699
42.1734
42.1735
42.1665
42.1466
42.1507
42.1519
42.1481
42.1484
42.1512
42.1531
42.154
42.1544
42.1546
42.1547
42.1548
42.1549
42.1549
42.1639
42.1639
42.1644
42.1655
42.1678
42.1734
42.1858
42.175
42.1503
42.1421
42.1415
42.1429
42.148
42.1518
42.1537
42.1545
42.1549
42.1551
42.1553
42.1555
42.1555
42.1555
42.1625
42.1625
42.1629
42.1636
42.1648
42.1672
42.1705
42.1584
42.1422
42.1401
42.1447
42.1479
42.1516
42.1537
42.1547
42.1552
42.1555
42.1557
42.1559
42.1561
42.1561
42.1561
42.1614
42.1614
42.1617
42.1621
42.1627
42.1633
42.1631
42.1592
42.1574
42.1625
42.1593
42.1562
42.1554
42.1555
42.1557
42.156
42.1561
42.1563
42.1565
42.1566
42.1567
42.1567
42.1605
42.1605
42.1608
42.1611
42.1613
42.1616
42.162
42.163
42.1679
42.1704
42.1636
42.1591
42.1573
42.1568
42.1567
42.1567
42.1568
42.1569
42.157
42.1572
42.1572
42.1572
42.1599
42.1599
42.1601
42.1603
42.1605
42.1607
42.1611
42.1623
42.1654
42.1651
42.1618
42.1594
42.1581
42.1576
42.1574
42.1574
42.1574
42.1575
42.1576
42.1577
42.1578
42.1578
42.1594
42.1594
42.1596
42.1598
42.1599
42.1601
42.1603
42.1609
42.1618
42.1616
42.1603
42.1592
42.1585
42.1582
42.158
42.1579
42.1579
42.158
42.1581
42.1582
42.1583
42.1583
42.1591
42.1591
42.1593
42.1594
42.1595
42.1596
42.1598
42.16
42.1602
42.1601
42.1596
42.1592
42.1588
42.1586
42.1585
42.1585
42.1585
42.1585
42.1586
42.1587
42.1588
42.1588
42.1588
42.1588
42.159
42.1591
42.1592
42.1592
42.1593
42.1594
42.1595
42.1595
42.1594
42.1592
42.1591
42.159
42.1589
42.1589
42.1589
42.159
42.159
42.1592
42.1593
42.1593
42.1588
42.1588
42.1588
42.1589
42.1589
42.159
42.159
42.1591
42.1591
42.1592
42.1593
42.1593
42.1593
42.1593
42.1593
42.1593
42.1593
42.1594
42.1595
42.1596
42.1597
42.1597
0
42.1588
42.1588
42.1589
42.1589
42.159
42.159
42.1591
42.1591
42.1592
42.1593
42.1593
42.1593
42.1593
42.1593
42.1593
42.1593
42.1594
42.1595
42.1596
42.1597
0
0
42.185
42.1813
42.1819
42.1777
42.1204
42.1047
42.1318
42.1479
42.1539
42.1555
42.1557
42.1556
42.1554
42.1551
42.1545
42.1537
42.1528
42.1517
42.1501
42.1493
0
42.185
42.185
42.1813
42.1819
42.1777
42.1204
42.1047
42.1318
42.1479
42.1539
42.1555
42.1557
42.1556
42.1554
42.1551
42.1545
42.1537
42.1528
42.1517
42.1501
42.1493
42.1493
42.1778
42.1778
42.1772
42.1773
42.1735
42.1424
42.1129
42.1257
42.1427
42.1514
42.1544
42.1551
42.1553
42.1553
42.1549
42.1544
42.1538
42.153
42.1522
42.1512
42.1507
42.1507
42.1733
42.1733
42.1734
42.1737
42.1728
42.1598
42.1322
42.1295
42.139
42.1474
42.1518
42.1539
42.1548
42.155
42.1547
42.1543
42.1539
42.1534
42.1529
42.1525
42.1522
42.1522
42.17
42.17
42.1705
42.1713
42.1725
42.1702
42.1498
42.137
42.1371
42.1433
42.1488
42.1522
42.1538
42.1542
42.1543
42.1542
42.1541
42.1539
42.1537
42.1535
42.1534
42.1534
42.1675
42.1675
42.168
42.1688
42.1698
42.1687
42.1543
42.1414
42.1382
42.1438
42.1489
42.1513
42.1525
42.1533
42.1539
42.1542
42.1543
42.1544
42.1543
42.1544
42.1543
42.1543
42.1656
42.1656
42.166
42.1668
42.1678
42.1683
42.1624
42.1553
42.151
42.1499
42.15
42.15
42.1512
42.1528
42.1538
42.1544
42.1547
42.1548
42.1549
42.1551
42.1551
42.1551
42.164
42.164
42.1644
42.165
42.1661
42.1675
42.1678
42.1624
42.1537
42.1483
42.1472
42.1486
42.1512
42.1531
42.1542
42.1548
42.1552
42.1554
42.1555
42.1557
42.1557
42.1557
42.1627
42.1627
42.163
42.1635
42.1641
42.1648
42.1645
42.1597
42.1525
42.1479
42.1488
42.1513
42.1532
42.1543
42.155
42.1555
42.1557
42.1559
42.1561
42.1563
42.1563
42.1563
42.1616
42.1616
42.1619
42.1622
42.1625
42.1627
42.1623
42.1603
42.1574
42.1566
42.1564
42.1558
42.1556
42.1558
42.156
42.1562
42.1564
42.1565
42.1567
42.1569
42.1569
42.1569
42.1608
42.1608
42.161
42.1612
42.1614
42.1615
42.1615
42.1615
42.1619
42.1618
42.1599
42.1581
42.1572
42.1569
42.1568
42.1569
42.157
42.1571
42.1572
42.1574
42.1575
42.1575
42.1601
42.1601
42.1603
42.1605
42.1606
42.1608
42.1609
42.1613
42.162
42.1617
42.1603
42.159
42.1581
42.1577
42.1575
42.1575
42.1576
42.1576
42.1578
42.1579
42.158
42.158
42.1596
42.1596
42.1599
42.16
42.1601
42.1602
42.1604
42.1606
42.1609
42.1607
42.1599
42.1592
42.1586
42.1583
42.1581
42.1581
42.1581
42.1582
42.1583
42.1584
42.1585
42.1585
42.1593
42.1593
42.1595
42.1596
42.1597
42.1598
42.1599
42.16
42.1601
42.16
42.1596
42.1592
42.1589
42.1587
42.1586
42.1586
42.1586
42.1587
42.1588
42.1589
42.159
42.159
42.1591
42.1591
42.1593
42.1593
42.1594
42.1594
42.1595
42.1596
42.1596
42.1596
42.1594
42.1593
42.1592
42.1591
42.159
42.159
42.159
42.1591
42.1592
42.1594
42.1595
42.1595
42.159
42.159
42.1591
42.1591
42.1591
42.1592
42.1592
42.1593
42.1593
42.1594
42.1594
42.1594
42.1594
42.1594
42.1594
42.1594
42.1594
42.1595
42.1596
42.1598
42.16
42.16
0
42.159
42.1591
42.1591