# vtk DataFile Version 3.0
FlowField
ASCII
DATASET STRUCTURED_GRID
DIMENSIONS 22 17 12 
POINTS 4488 double
0 0 0
0.1 0 0
0.2 0 0
0.3 0 0
0.4 0 0
0.5 0 0
0.6 0 0
0.7 0 0
0.8 0 0
0.9 0 0
1 0 0
1.1 0 0
1.2 0 0
1.3 0 0
1.4 0 0
1.5 0 0
1.6 0 0
1.7 0 0
1.8 0 0
1.9 0 0
2 0 0
2.1 0 0
0 0.1 0
0.1 0.1 0
0.2 0.1 0
0.3 0.1 0
0.4 0.1 0
0.5 0.1 0
0.6 0.1 0
0.7 0.1 0
0.8 0.1 0
0.9 0.1 0
1 0.1 0
1.1 0.1 0
1.2 0.1 0
1.3 0.1 0
1.4 0.1 0
1.5 0.1 0
1.6 0.1 0
1.7 0.1 0
1.8 0.1 0
1.9 0.1 0
2 0.1 0
2.1 0.1 0
0 0.2 0
0.1 0.2 0
0.2 0.2 0
0.3 0.2 0
0.4 0.2 0
0.5 0.2 0
0.6 0.2 0
0.7 0.2 0
0.8 0.2 0
0.9 0.2 0
1 0.2 0
1.1 0.2 0
1.2 0.2 0
1.3 0.2 0
1.4 0.2 0
1.5 0.2 0
1.6 0.2 0
1.7 0.2 0
1.8 0.2 0
1.9 0.2 0
2 0.2 0
2.1 0.2 0
0 0.3 0
0.1 0.3 0
0.2 0.3 0
0.3 0.3 0
0.4 0.3 0
0.5 0.3 0
0.6 0.3 0
0.7 0.3 0
0.8 0.3 0
0.9 0.3 0
1 0.3 0
1.1 0.3 0
1.2 0.3 0
1.3 0.3 0
1.4 0.3 0
1.5 0.3 0
1.6 0.3 0
1.7 0.3 0
1.8 0.3 0
1.9 0.3 0
2 0.3 0
2.1 0.3 0
0 0.4 0
0.1 0.4 0
0.2 0.4 0
0.3 0.4 0
0.4 0.4 0
0.5 0.4 0
0.6 0.4 0
0.7 0.4 0
0.8 0.4 0
0.9 0.4 0
1 0.4 0
1.1 0.4 0
1.2 0.4 0
1.3 0.4 0
1.4 0.4 0
1.5 0.4 0
1.6 0.4 0
1.7 0.4 0
1.8 0.4 0
1.9 0.4 0
2 0.4 0
2.1 0.4 0
0 0.5 0
0.1 0.5 0
0.2 0.5 0
0.3 0.5 0
0.4 0.5 0
0.5 0.5 0
0.6 0.5 0
0.7 0.5 0
0.8 0.5 0
0.9 0.5 0
1 0.5 0
1.1 0.5 0
1.2 0.5 0
1.3 0.5 0
1.4 0.5 0
1.5 0.5 0
1.6 0.5 0
1.7 0.5 0
1.8 0.5 0
1.9 0.5 0
2 0.5 0
2.1 0.5 0
0 0.6 0
0.1 0.6 0
0.2 0.6 0
0.3 0.6 0
0.4 0.6 0
0.5 0.6 0
0.6 0.6 0
0.7 0.6 0
0.8 0.6 0
0.9 0.6 0
1 0.6 0
1.1 0.6 0
1.2 0.6 0
1.3 0.6 0
1.4 0.6 0
1.5 0.6 0
1.6 0.6 0
1.7 0.6 0
1.8 0.6 0
1.9 0.6 0
2 0.6 0
2.1 0.6 0
0 0.7 0
0.1 0.7 0
0.2 0.7 0
0.3 0.7 0
0.4 0.7 0
0.5 0.7 0
0.6 0.7 0
0.7 0.7 0
0.8 0.7 0
0.9 0.7 0
1 0.7 0
1.1 0.7 0
1.2 0.7 0
1.3 0.7 0
1.4 0.7 0
1.5 0.7 0
1.6 0.7 0
1.7 0.7 0
1.8 0.7 0
1.9 0.7 0
2 0.7 0
2.1 0.7 0
0 0.8 0
0.1 0.8 0
0.2 0.8 0
0.3 0.8 0
0.4 0.8 0
0.5 0.8 0
0.6 0.8 0
0.7 0.8 0
0.8 0.8 0
0.9 0.8 0
1 0.8 0
1.1 0.8 0
1.2 0.8 0
1.3 0.8 0
1.4 0.8 0
1.5 0.8 0
1.6 0.8 0
1.7 0.8 0
1.8 0.8 0
1.9 0.8 0
2 0.8 0
2.1 0.8 0
0 0.9 0
0.1 0.9 0
0.2 0.9 0
0.3 0.9 0
0.4 0.9 0
0.5 0.9 0
0.6 0.9 0
0.7 0.9 0
0.8 0.9 0
0.9 0.9 0
1 0.9 0
1.1 0.9 0
1.2 0.9 0
1.3 0.9 0
1.4 0.9 0
1.5 0.9 0
1.6 0.9 0
1.7 0.9 0
1.8 0.9 0
1.9 0.9 0
2 0.9 0
2.1 0.9 0
0 1 0
0.1 1 0
0.2 1 0
0.3 1 0
0.4 1 0
0.5 1 0
0.6 1 0
0.7 1 0
0.8 1 0
0.9 1 0
1 1 0
1.1 1 0
1.2 1 0
1.3 1 0
1.4 1 0
1.5 1 0
1.6 1 0
1.7 1 0
1.8 1 0
1.9 1 0
2 1 0
2.1 1 0
0 1.1 0
0.1 1.1 0
0.2 1.1 0
0.3 1.1 0
0.4 1.1 0
0.5 1.1 0
0.6 1.1 0
0.7 1.1 0
0.8 1.1 0
0.9 1.1 0
1 1.1 0
1.1 1.1 0
1.2 1.1 0
1.3 1.1 0
1.4 1.1 0
1.5 1.1 0
1.6 1.1 0
1.7 1.1 0
1.8 1.1 0
1.9 1.1 0
2 1.1 0
2.1 1.1 0
0 1.2 0
0.1 1.2 0
0.2 1.2 0
0.3 1.2 0
0.4 1.2 0
0.5 1.2 0
0.6 1.2 0
0.7 1.2 0
0.8 1.2 0
0.9 1.2 0
1 1.2 0
1.1 1.2 0
1.2 1.2 0
1.3 1.2 0
1.4 1.2 0
1.5 1.2 0
1.6 1.2 0
1.7 1.2 0
1.8 1.2 0
1.9 1.2 0
2 1.2 0
2.1 1.2 0
0 1.3 0
0.1 1.3 0
0.2 1.3 0
0.3 1.3 0
0.4 1.3 0
0.5 1.3 0
0.6 1.3 0
0.7 1.3 0
0.8 1.3 0
0.9 1.3 0
1 1.3 0
1.1 1.3 0
1.2 1.3 0
1.3 1.3 0
1.4 1.3 0
1.5 1.3 0
1.6 1.3 0
1.7 1.3 0
1.8 1.3 0
1.9 1.3 0
2 1.3 0
2.1 1.3 0
0 1.4 0
0.1 1.4 0
0.2 1.4 0
0.3 1.4 0
0.4 1.4 0
0.5 1.4 0
0.6 1.4 0
0.7 1.4 0
0.8 1.4 0
0.9 1.4 0
1 1.4 0
1.1 1.4 0
1.2 1.4 0
1.3 1.4 0
1.4 1.4 0
1.5 1.4 0
1.6 1.4 0
1.7 1.4 0
1.8 1.4 0
1.9 1.4 0
2 1.4 0
2.1 1.4 0
0 1.5 0
0.1 1.5 0
0.2 1.5 0
0.3 1.5 0
0.4 1.5 0
0.5 1.5 0
0.6 1.5 0
0.7 1.5 0
0.8 1.5 0
0.9 1.5 0
1 1.5 0
1.1 1.5 0
1.2 1.5 0
1.3 1.5 0
1.4 1.5 0
1.5 1.5 0
1.6 1.5 0
1.7 1.5 0
1.8 1.5 0
1.9 1.5 0
2 1.5 0
2.1 1.5 0
0 1.6 0
0.1 1.6 0
0.2 1.6 0
0.3 1.6 0
0.4 1.6 0
0.5 1.6 0
0.6 1.6 0
0.7 1.6 0
0.8 1.6 0
0.9 1.6 0
1 1.6 0
1.1 1.6 0
1.2 1.6 0
1.3 1.6 0
1.4 1.6 0
1.5 1.6 0
1.6 1.6 0
1.7 1.6 0
1.8 1.6 0
1.9 1.6 0
2 1.6 0
2.1 1.6 0
0 0 0.1
0.1 0 0.1
0.2 0 0.1
0.3 0 0.1
0.4 0 0.1
0.5 0 0.1
0.6 0 0.1
0.7 0 0.1
0.8 0 0.1
0.9 0 0.1
1 0 0.1
1.1 0 0.1
1.2 0 0.1
1.3 0 0.1
1.4 0 0.1
1.5 0 0.1
1.6 0 0.1
1.7 0 0.1
1.8 0 0.1
1.9 0 0.1
2 0 0.1
2.1 0 0.1
0 0.1 0.1
0.1 0.1 0.1
0.2 0.1 0.1
0.3 0.1 0.1
0.4 0.1 0.1
0.5 0.1 0.1
0.6 0.1 0.1
0.7 0.1 0.1
0.8 0.1 0.1
0.9 0.1 0.1
1 0.1 0.1
1.1 0.1 0.1
1.2 0.1 0.1
1.3 0.1 0.1
1.4 0.1 0.1
1.5 0.1 0.1
1.6 0.1 0.1
1.7 0.1 0.1
1.8 0.1 0.1
1.9 0.1 0.1
2 0.1 0.1
2.1 0.1 0.1
0 0.2 0.1
0.1 0.2 0.1
0.2 0.2 0.1
0.3 0.2 0.1
0.4 0.2 0.1
0.5 0.2 0.1
0.6 0.2 0.1
0.7 0.2 0.1
0.8 0.2 0.1
0.9 0.2 0.1
1 0.2 0.1
1.1 0.2 0.1
1.2 0.2 0.1
1.3 0.2 0.1
1.4 0.2 0.1
1.5 0.2 0.1
1.6 0.2 0.1
1.7 0.2 0.1
1.8 0.2 0.1
1.9 0.2 0.1
2 0.2 0.1
2.1 0.2 0.1
0 0.3 0.1
0.1 0.3 0.1
0.2 0.3 0.1
0.3 0.3 0.1
0.4 0.3 0.1
0.5 0.3 0.1
0.6 0.3 0.1
0.7 0.3 0.1
0.8 0.3 0.1
0.9 0.3 0.1
1 0.3 0.1
1.1 0.3 0.1
1.2 0.3 0.1
1.3 0.3 0.1
1.4 0.3 0.1
1.5 0.3 0.1
1.6 0.3 0.1
1.7 0.3 0.1
1.8 0.3 0.1
1.9 0.3 0.1
2 0.3 0.1
2.1 0.3 0.1
0 0.4 0.1
0.1 0.4 0.1
0.2 0.4 0.1
0.3 0.4 0.1
0.4 0.4 0.1
0.5 0.4 0.1
0.6 0.4 0.1
0.7 0.4 0.1
0.8 0.4 0.1
0.9 0.4 0.1
1 0.4 0.1
1.1 0.4 0.1
1.2 0.4 0.1
1.3 0.4 0.1
1.4 0.4 0.1
1.5 0.4 0.1
1.6 0.4 0.1
1.7 0.4 0.1
1.8 0.4 0.1
1.9 0.4 0.1
2 0.4 0.1
2.1 0.4 0.1
0 0.5 0.1
0.1 0.5 0.1
0.2 0.5 0.1
0.3 0.5 0.1
0.4 0.5 0.1
0.5 0.5 0.1
0.6 0.5 0.1
0.7 0.5 0.1
0.8 0.5 0.1
0.9 0.5 0.1
1 0.5 0.1
1.1 0.5 0.1
1.2 0.5 0.1
1.3 0.5 0.1
1.4 0.5 0.1
1.5 0.5 0.1
1.6 0.5 0.1
1.7 0.5 0.1
1.8 0.5 0.1
1.9 0.5 0.1
2 0.5 0.1
2.1 0.5 0.1
0 0.6 0.1
0.1 0.6 0.1
0.2 0.6 0.1
0.3 0.6 0.1
0.4 0.6 0.1
0.5 0.6 0.1
0.6 0.6 0.1
0.7 0.6 0.1
0.8 0.6 0.1
0.9 0.6 0.1
1 0.6 0.1
1.1 0.6 0.1
1.2 0.6 0.1
1.3 0.6 0.1
1.4 0.6 0.1
1.5 0.6 0.1
1.6 0.6 0.1
1.7 0.6 0.1
1.8 0.6 0.1
1.9 0.6 0.1
2 0.6 0.1
2.1 0.6 0.1
0 0.7 0.1
0.1 0.7 0.1
0.2 0.7 0.1
0.3 0.7 0.1
0.4 0.7 0.1
0.5 0.7 0.1
0.6 0.7 0.1
0.7 0.7 0.1
0.8 0.7 0.1
0.9 0.7 0.1
1 0.7 0.1
1.1 0.7 0.1
1.2 0.7 0.1
1.3 0.7 0.1
1.4 0.7 0.1
1.5 0.7 0.1
1.6 0.7 0.1
1.7 0.7 0.1
1.8 0.7 0.1
1.9 0.7 0.1
2 0.7 0.1
2.1 0.7 0.1
0 0.8 0.1
0.1 0.8 0.1
0.2 0.8 0.1
0.3 0.8 0.1
0.4 0.8 0.1
0.5 0.8 0.1
0.6 0.8 0.1
0.7 0.8 0.1
0.8 0.8 0.1
0.9 0.8 0.1
1 0.8 0.1
1.1 0.8 0.1
1.2 0.8 0.1
1.3 0.8 0.1
1.4 0.8 0.1
1.5 0.8 0.1
1.6 0.8 0.1
1.7 0.8 0.1
1.8 0.8 0.1
1.9 0.8 0.1
2 0.8 0.1
2.1 0.8 0.1
0 0.9 0.1
0.1 0.9 0.1
0.2 0.9 0.1
0.3 0.9 0.1
0.4 0.9 0.1
0.5 0.9 0.1
0.6 0.9 0.1
0.7 0.9 0.1
0.8 0.9 0.1
0.9 0.9 0.1
1 0.9 0.1
1.1 0.9 0.1
1.2 0.9 0.1
1.3 0.9 0.1
1.4 0.9 0.1
1.5 0.9 0.1
1.6 0.9 0.1
1.7 0.9 0.1
1.8 0.9 0.1
1.9 0.9 0.1
2 0.9 0.1
2.1 0.9 0.1
0 1 0.1
0.1 1 0.1
0.2 1 0.1
0.3 1 0.1
0.4 1 0.1
0.5 1 0.1
0.6 1 0.1
0.7 1 0.1
0.8 1 0.1
0.9 1 0.1
1 1 0.1
1.1 1 0.1
1.2 1 0.1
1.3 1 0.1
1.4 1 0.1
1.5 1 0.1
1.6 1 0.1
1.7 1 0.1
1.8 1 0.1
1.9 1 0.1
2 1 0.1
2.1 1 0.1
0 1.1 0.1
0.1 1.1 0.1
0.2 1.1 0.1
0.3 1.1 0.1
0.4 1.1 0.1
0.5 1.1 0.1
0.6 1.1 0.1
0.7 1.1 0.1
0.8 1.1 0.1
0.9 1.1 0.1
1 1.1 0.1
1.1 1.1 0.1
1.2 1.1 0.1
1.3 1.1 0.1
1.4 1.1 0.1
1.5 1.1 0.1
1.6 1.1 0.1
1.7 1.1 0.1
1.8 1.1 0.1
1.9 1.1 0.1
2 1.1 0.1
2.1 1.1 0.1
0 1.2 0.1
0.1 1.2 0.1
0.2 1.2 0.1
0.3 1.2 0.1
0.4 1.2 0.1
0.5 1.2 0.1
0.6 1.2 0.1
0.7 1.2 0.1
0.8 1.2 0.1
0.9 1.2 0.1
1 1.2 0.1
1.1 1.2 0.1
1.2 1.2 0.1
1.3 1.2 0.1
1.4 1.2 0.1
1.5 1.2 0.1
1.6 1.2 0.1
1.7 1.2 0.1
1.8 1.2 0.1
1.9 1.2 0.1
2 1.2 0.1
2.1 1.2 0.1
0 1.3 0.1
0.1 1.3 0.1
0.2 1.3 0.1
0.3 1.3 0.1
0.4 1.3 0.1
0.5 1.3 0.1
0.6 1.3 0.1
0.7 1.3 0.1
0.8 1.3 0.1
0.9 1.3 0.1
1 1.3 0.1
1.1 1.3 0.1
1.2 1.3 0.1
1.3 1.3 0.1
1.4 1.3 0.1
1.5 1.3 0.1
1.6 1.3 0.1
1.7 1.3 0.1
1.8 1.3 0.1
1.9 1.3 0.1
2 1.3 0.1
2.1 1.3 0.1
0 1.4 0.1
0.1 1.4 0.1
0.2 1.4 0.1
0.3 1.4 0.1
0.4 1.4 0.1
0.5 1.4 0.1
0.6 1.4 0.1
0.7 1.4 0.1
0.8 1.4 0.1
0.9 1.4 0.1
1 1.4 0.1
1.1 1.4 0.1
1.2 1.4 0.1
1.3 1.4 0.1
1.4 1.4 0.1
1.5 1.4 0.1
1.6 1.4 0.1
1.7 1.4 0.1
1.8 1.4 0.1
1.9 1.4 0.1
2 1.4 0.1
2.1 1.4 0.1
0 1.5 0.1
0.1 1.5 0.1
0.2 1.5 0.1
0.3 1.5 0.1
0.4 1.5 0.1
0.5 1.5 0.1
0.6 1.5 0.1
0.7 1.5 0.1
0.8 1.5 0.1
0.9 1.5 0.1
1 1.5 0.1
1.1 1.5 0.1
1.2 1.5 0.1
1.3 1.5 0.1
1.4 1.5 0.1
1.5 1.5 0.1
1.6 1.5 0.1
1.7 1.5 0.1
1.8 1.5 0.1
1.9 1.5 0.1
2 1.5 0.1
2.1 1.5 0.1
0 1.6 0.1
0.1 1.6 0.1
0.2 1.6 0.1
0.3 1.6 0.1
0.4 1.6 0.1
0.5 1.6 0.1
0.6 1.6 0.1
0.7 1.6 0.1
0.8 1.6 0.1
0.9 1.6 0.1
1 1.6 0.1
1.1 1.6 0.1
1.2 1.6 0.1
1.3 1.6 0.1
1.4 1.6 0.1
1.5 1.6 0.1
1.6 1.6 0.1
1.7 1.6 0.1
1.8 1.6 0.1
1.9 1.6 0.1
2 1.6 0.1
2.1 1.6 0.1
0 0 0.2
0.1 0 0.2
0.2 0 0.2
0.3 0 0.2
0.4 0 0.2
0.5 0 0.2
0.6 0 0.2
0.7 0 0.2
0.8 0 0.2
0.9 0 0.2
1 0 0.2
1.1 0 0.2
1.2 0 0.2
1.3 0 0.2
1.4 0 0.2
1.5 0 0.2
1.6 0 0.2
1.7 0 0.2
1.8 0 0.2
1.9 0 0.2
2 0 0.2
2.1 0 0.2
0 0.1 0.2
0.1 0.1 0.2
0.2 0.1 0.2
0.3 0.1 0.2
0.4 0.1 0.2
0.5 0.1 0.2
0.6 0.1 0.2
0.7 0.1 0.2
0.8 0.1 0.2
0.9 0.1 0.2
1 0.1 0.2
1.1 0.1 0.2
1.2 0.1 0.2
1.3 0.1 0.2
1.4 0.1 0.2
1.5 0.1 0.2
1.6 0.1 0.2
1.7 0.1 0.2
1.8 0.1 0.2
1.9 0.1 0.2
2 0.1 0.2
2.1 0.1 0.2
0 0.2 0.2
0.1 0.2 0.2
0.2 0.2 0.2
0.3 0.2 0.2
0.4 0.2 0.2
0.5 0.2 0.2
0.6 0.2 0.2
0.7 0.2 0.2
0.8 0.2 0.2
0.9 0.2 0.2
1 0.2 0.2
1.1 0.2 0.2
1.2 0.2 0.2
1.3 0.2 0.2
1.4 0.2 0.2
1.5 0.2 0.2
1.6 0.2 0.2
1.7 0.2 0.2
1.8 0.2 0.2
1.9 0.2 0.2
2 0.2 0.2
2.1 0.2 0.2
0 0.3 0.2
0.1 0.3 0.2
0.2 0.3 0.2
0.3 0.3 0.2
0.4 0.3 0.2
0.5 0.3 0.2
0.6 0.3 0.2
0.7 0.3 0.2
0.8 0.3 0.2
0.9 0.3 0.2
1 0.3 0.2
1.1 0.3 0.2
1.2 0.3 0.2
1.3 0.3 0.2
1.4 0.3 0.2
1.5 0.3 0.2
1.6 0.3 0.2
1.7 0.3 0.2
1.8 0.3 0.2
1.9 0.3 0.2
2 0.3 0.2
2.1 0.3 0.2
0 0.4 0.2
0.1 0.4 0.2
0.2 0.4 0.2
0.3 0.4 0.2
0.4 0.4 0.2
0.5 0.4 0.2
0.6 0.4 0.2
0.7 0.4 0.2
0.8 0.4 0.2
0.9 0.4 0.2
1 0.4 0.2
1.1 0.4 0.2
1.2 0.4 0.2
1.3 0.4 0.2
1.4 0.4 0.2
1.5 0.4 0.2
1.6 0.4 0.2
1.7 0.4 0.2
1.8 0.4 0.2
1.9 0.4 0.2
2 0.4 0.2
2.1 0.4 0.2
0 0.5 0.2
0.1 0.5 0.2
0.2 0.5 0.2
0.3 0.5 0.2
0.4 0.5 0.2
0.5 0.5 0.2
0.6 0.5 0.2
0.7 0.5 0.2
0.8 0.5 0.2
0.9 0.5 0.2
1 0.5 0.2
1.1 0.5 0.2
1.2 0.5 0.2
1.3 0.5 0.2
1.4 0.5 0.2
1.5 0.5 0.2
1.6 0.5 0.2
1.7 0.5 0.2
1.8 0.5 0.2
1.9 0.5 0.2
2 0.5 0.2
2.1 0.5 0.2
0 0.6 0.2
0.1 0.6 0.2
0.2 0.6 0.2
0.3 0.6 0.2
0.4 0.6 0.2
0.5 0.6 0.2
0.6 0.6 0.2
0.7 0.6 0.2
0.8 0.6 0.2
0.9 0.6 0.2
1 0.6 0.2
1.1 0.6 0.2
1.2 0.6 0.2
1.3 0.6 0.2
1.4 0.6 0.2
1.5 0.6 0.2
1.6 0.6 0.2
1.7 0.6 0.2
1.8 0.6 0.2
1.9 0.6 0.2
2 0.6 0.2
2.1 0.6 0.2
0 0.7 0.2
0.1 0.7 0.2
0.2 0.7 0.2
0.3 0.7 0.2
0.4 0.7 0.2
0.5 0.7 0.2
0.6 0.7 0.2
0.7 0.7 0.2
0.8 0.7 0.2
0.9 0.7 0.2
1 0.7 0.2
1.1 0.7 0.2
1.2 0.7 0.2
1.3 0.7 0.2
1.4 0.7 0.2
1.5 0.7 0.2
1.6 0.7 0.2
1.7 0.7 0.2
1.8 0.7 0.2
1.9 0.7 0.2
2 0.7 0.2
2.1 0.7 0.2
0 0.8 0.2
0.1 0.8 0.2
[...]
POINT_DATA 4488

SCALARS pressure double
LOOKUP_TABLE pressure
0
0
0
0
0
0
0
0
0
0
0
0
0
0
0
0
0
0
0
0
0
0
0
159.231
159.227
159.225
159.223
159.222
159.22
159.219
159.219
159.218
159.218
159.217
159.217
159.217
159.216
159.215
159.217
159.216
159.215
159.214
159.212
0
0
159.225
159.225
159.224
159.223
159.221
159.22
159.219
159.219
159.218
159.218
159.217
159.217
159.217
159.216
159.216
159.216
159.217
159.216
159.214
159.213
0
0
159.222
159.223
159.223
159.222
159.22
159.219
159.219
159.219
159.218
159.217
159.217
159.218
159.218
159.217
159.217
159.217
159.217
159.216
159.216
159.215
0
0
159.22
159.221
159.221
159.221
159.22
159.219
159.219
159.218
159.218
159.217
159.216
159.22
159.218
159.218
159.217
159.217
159.217
159.217
159.217
159.217
0
0
159.219
159.22
159.221
159.22
159.22
159.217
159.218
159.218
159.218
159.217
159.217
159.218
159.219
159.218
159.218
159.218
159.218
159.218
159.218
159.218
0
0
159.217
159.219
159.219
159.219
159.219
159.218
159.218
159.219
159.219
159.218
159.217
159.217
159.219
159.219
159.218
159.218
159.219
159.219
159.219
159.219
0
0
159.216
159.218
159.218
159.218
159.217
159.218
159.218
159.219
159.219
159.218
159.218
159.218
159.219
159.219
159.219
159.219
159.219
159.219
159.219
159.219
0
0
159.216
159.217
159.218
159.218
159.22
159.219
159.219
159.219
159.219
159.218
159.218
159.219
159.219
159.219
159.219
159.219
159.22
159.22
159.219
159.219
0
0
159.215
159.217
159.217
159.218
159.219
159.219
159.219
159.219
159.219
159.219
159.219
159.219
159.219
159.219
159.219
159.219
159.22
159.22
159.22
159.22
0
0
159.213
159.217
159.217
159.218
159.218
159.218
159.218
159.219
159.219
159.219
159.219
159.219
159.219
159.219
159.22
159.22
159.22
159.22
159.22
159.22
0
0
159.214
159.216
159.217
159.217
159.218
159.218
159.218
159.219
159.219
159.219
159.219
159.219
159.219
159.22
159.22
159.219
159.22
159.22
159.22
159.221
0
0
159.214
159.216
159.216
159.217
159.218
159.218
159.218
159.218
159.219
159.219
159.219
159.219
159.219
159.22
159.221
159.219
159.22
159.22
159.221
159.221
0
0
159.214
159.215
159.216
159.217
159.217
159.218
159.218
159.218
159.219
159.219
159.219
159.219
159.219
159.22
159.22
159.22
159.22
159.22
159.221
159.221
0
0
159.214
159.216
159.216
159.217
159.217
159.218
159.218
159.218
159.218
159.219
159.219
159.219
159.219
159.22
159.22
159.22
159.22
159.22
159.221
159.221
0
0
159.215
159.216
159.216
159.217
159.217
159.217
159.218
159.218
159.218
159.219
159.219
159.219
159.219
159.22
159.22
159.22
159.22
159.221
159.221
159.221
0
0
0
0
0
0
0
0
0
0
0
0
0
0
0
0
0
0
0
0
0
0
0
0
159.231
159.227
159.225
159.223
159.222
159.22
159.219
159.219
159.218
159.218
159.217
159.217
159.217
159.216
159.215
159.217
159.216
159.215
159.214
159.212
0
159.231
159.231
159.227
159.225
159.223
159.222
159.22
159.219
159.219
159.218
159.218
159.217
159.217
159.217
159.216
159.215
159.217
159.216
159.215
159.214
159.212
159.212
159.225
159.225
159.225
159.224
159.223
159.221
159.22
159.219
159.219
159.218
159.218
159.217
159.217
159.217
159.216
159.216
159.216
159.217
159.216
159.214
159.213
159.213
159.222
159.222
159.223
159.223
159.222
159.22
159.219
159.219
159.219
159.218
159.217
159.217
159.218
159.218
159.217
159.217
159.217
159.217
159.216
159.216
159.215
159.215
159.22
159.22
159.221
159.221
159.221
159.22
159.219
159.219
159.218
159.218
159.217
159.216
159.22
159.218
159.218
159.217
159.217
159.217
159.217
159.217
159.217
159.217
159.219
159.219
159.22
159.221
159.22
159.22
159.217
159.218
159.218
159.218
159.217
159.217
159.218
159.219
159.218
159.218
159.218
159.218
159.218
159.218
159.218
159.218
159.217
159.217
159.219
159.219
159.219
159.219
159.218
159.218
159.219
159.219
159.218
159.217
159.217
159.219
159.219
159.218
159.218
159.219
159.219
159.219
159.219
159.219
159.216
159.216
159.218
159.218
159.218
159.217
159.218
159.218
159.219
159.219
159.218
159.218
159.218
159.219
159.219
159.219
159.219
159.219
159.219
159.219
159.219
159.219
159.216
159.216
159.217
159.218
159.218
159.22
159.219
159.219
159.219
159.219
159.218
159.218
159.219
159.219
159.219
159.219
159.219
159.22
159.22
159.219
159.219
159.219
159.215
159.215
159.217
159.217
159.218
159.219
159.219
159.219
159.219
159.219
159.219
159.219
159.219
159.219
159.219
159.219
159.219
159.22
159.22
159.22
159.22
159.22
159.213
159.213
159.217
159.217
159.218
159.218
159.218
159.218
159.219
159.219
159.219
159.219
159.219
159.219
159.219
159.22
159.22
159.22
159.22
159.22
159.22
159.22
159.214
159.214
159.216
159.217
159.217
159.218
159.218
159.218
159.219
159.219
159.219
159.219
159.219
159.219
159.22
159.22
159.219
159.22
159.22
159.22
159.221
159.221
159.214
159.214
159.216
159.216
159.217
159.218
159.218
159.218
159.218
159.219
159.219
159.219
159.219
159.219
159.22
159.221
159.219
159.22
159.22
159.221
159.221
159.221
159.214
159.214
159.215
159.216
159.217
159.217
159.218
159.218
159.218
159.219
159.219
159.219
159.219
159.219
159.22
159.22
159.22
159.22
159.22
159.221
159.221
159.221
159.214
159.214
159.216
159.216
159.217
159.217
159.218
159.218
159.218
159.218
159.219
159.219
159.219
159.219
159.22
159.22
159.22
159.22
159.22
159.221
159.221
159.221
159.215
159.215
159.216
159.216
159.217
159.217
159.217
159.218
159.218
159.218
159.219
159.219
159.219
159.219
159.22
159.22
159.22
159.22
159.221
159.221
159.221
159.221
0
159.215
159.216
159.216
159.217
159.217
159.217
159.218
159.218
159.218
159.219
159.219
159.219
159.219
159.22
159.22
159.22
159.22
159.221
159.221
159.221
0
0
159.235
159.231
159.228
159.224
159.217
159.213
159.214
159.216
159.217
159.218
159.218
159.218
159.217
159.217
159.216
159.216
159.216
159.215
159.213
159.211
0
159.235
159.235
159.231
159.228
159.224
159.217
159.213
159.214
159.216
159.217
159.218
159.218
159.218
159.217
159.217
159.216
159.216
159.216
159.215
159.213
159.211
159.211
159.229
159.229
159.229
159.227
159.224
159.219
159.214
159.214
159.215
159.216
159.217
159.218
159.218
159.217
159.217
159.217
159.216
159.216
159.215
159.214
159.213
159.213
159.226
159.226
159.226
159.226
159.224
159.22
159.216
159.214
159.215
159.216
159.217
159.217
159.218
159.218
159.217
159.217
159.217
159.216
159.216
159.215
159.215
159.215
159.223
159.223
159.224
159.224
159.223
159.221
159.217
159.215
159.215
159.215
159.216
159.216
159.218
159.218
159.218
159.217
159.217
159.217
159.217
159.217
159.216
159.216
159.222
159.222
159.223
159.223
159.222
159.221
159.219
159.217
159.216
159.215
159.216
159.216
159.217
159.218
159.218
159.218
159.218
159.218
159.218
159.217
159.217
159.217
159.22
159.22
159.221
159.222
159.222
159.221
159.22
159.218
159.217
159.216
159.216
159.216
159.217
159.217
159.218
159.218
159.218
159.218
159.218
159.218
159.218
159.218
159.219
159.219
159.22
159.22
159.221
159.22
159.22
159.219
159.218
159.217
159.217
159.216
159.217
159.217
159.218
159.218
159.218
159.218
159.218
159.218
159.218
159.218
159.218
159.218
159.219
159.22
159.22
159.22
159.22
159.22
159.219
159.218
159.218
159.217
159.217
159.217
159.218
159.218
159.218
159.218
159.219
159.219
159.219
159.219
159.217
159.217
159.218
159.219
159.219
159.22
159.22
159.22
159.219
159.219
159.219
159.218
159.218
159.218
159.218
159.218
159.218
159.218
159.219
159.219
159.219
159.219
159.216
159.216
159.217
159.218
159.219
159.219
159.219
159.22
159.219
159.219
159.219
159.219
159.219
159.219
159.219
159.219
159.219
159.219
159.219
159.219
159.219
159.219
159.216
159.216
159.217
159.218
159.218
159.219
159.219
159.219
159.219
159.219
159.219
159.219
159.219
159.219
159.219
159.219
159.219
159.219
159.219
159.219
159.22
159.22
159.215
159.215
159.217
159.217
159.218
159.218
159.219
159.219
159.219
159.219
159.219
159.219
159.219
159.22
159.22
159.22
159.219
159.219
159.22
159.22
159.22
159.22
159.215
159.215
159.216
159.217
159.218
159.218
159.218
159.219
159.219
159.219
159.219
159.219
159.219
159.22
159.22
159.22
159.22
159.22
159.22
159.22
159.22
159.22
159.216
159.216
159.216
159.217
159.217
159.218
159.218
159.218
159.218
159.219
159.219
159.219
159.219
159.219
159.22
159.22
159.22
159.22
159.22
159.22
159.22
159.22
159.216
159.216
159.217
159.217
159.217
159.217
159.218
159.218
159.218
159.218
159.219
159.219
159.219
159.219
159.22
159.22
159.22
159.22
159.22
159.22
159.22
159.22
0
159.216
159.217
159.217
159.217
159.217
159.218
159.218
159.218
159.218
159.219
159.219
159.219
159.219
159.22
159.22
159.22
159.22
159.22
159.22
159.22
0
0
159.24
159.235
159.233
159.226
159.206
159.199
159.206
159.213
159.217
159.219
159.219
159.219
159.218
159.218
159.217
159.216
159.215
159.214
159.213
159.211
0
159.24
159.24
159.235
159.233
159.226
159.206
159.199
159.206
159.213
159.217
159.219
159.219
159.219
159.218
159.218
159.217
159.216
159.215
159.214
159.213
159.211
159.211
159.233
159.233
159.233
159.231
159.227
159.215
159.203
159.205
159.211
159.215
159.217
159.218
159.218
159.218
159.218
159.217
159.216
159.216
159.215
159.214
159.212
159.212
159.229
159.229
159.23
159.229
159.227
159.221
159.21
159.207
159.209
159.213
159.216
159.217
159.218
159.218
159.218
159.217
159.217
159.216
159.216
159.215
159.214
159.214
159.226
159.226
159.227
159.227
159.226
159.223
159.215
159.209
159.209
159.212
159.214
159.216
159.217
159.218
159.218
159.218
159.217
159.217
159.217
159.216
159.216
159.216
159.224
159.224
159.225
159.226
159.226
159.224
159.219
159.214
159.211
159.211
159.213
159.214
159.216
159.217
159.217
159.217
159.217
159.217
159.217
159.217
159.217
159.217
159.222
159.222
159.223
159.224
159.225
159.224
159.222
159.218
159.214
159.213
159.213
159.213
159.215
159.216
159.217
159.217
159.217
159.217
159.218
159.218
159.217
159.217
159.221
159.221
159.222
159.223
159.223
159.223
159.222
159.22
159.218
159.216
159.214
159.214
159.214
159.215
159.216
159.217
159.217
159.217
159.218
159.218
159.218
159.218
159.219
159.219
159.221
159.221
159.222
159.222
159.222
159.221
159.22
159.218
159.217
159.216
159.215
159.215
159.216
159.216
159.217
159.217
159.218
159.218
159.218
159.218
159.218
159.218
159.219
159.22
159.221
159.221
159.221
159.221
159.221
159.22
159.219
159.218
159.217
159.217
159.216
159.217
159.217
159.217
159.218
159.218
159.218
159.218
159.218
159.218
159.219
159.219
159.22
159.22
159.221
159.221
159.221
159.22
159.22
159.219
159.219
159.218
159.218
159.218
159.217
159.218
159.218
159.218
159.218
159.218
159.217
159.217
159.218
159.219
159.219
159.22
159.22
159.22
159.22
159.22
159.22
159.22
159.22
159.219
159.219
159.219
159.218
159.218
159.219
159.219
159.219
159.219
159.217
159.217
159.218
159.218
159.219
159.219
159.219
159.22
159.22
159.22
159.22
159.22
159.22
159.22
159.22
159.22
159.219
159.219
159.219
159.219
159.219
159.219
159.216
159.216
159.217
159.218
159.218
159.219
159.219
159.219
159.219
159.219
159.219
159.22
159.22
159.22
159.22
159.22
159.22
159.22
159.219
159.219
159.22
159.22
159.216
159.216
159.217
159.218
159.218
159.218
159.218
159.219
159.219
159.219
159.219
159.219
159.219
159.22
159.22
159.22
159.22
159.22
159.22
159.22
159.22
159.22
159.217
159.217
159.217
159.217
159.218
159.218
159.218
159.218
159.218
159.219
159.219
159.219
159.219
159.219
159.219
159.22
159.22
159.22
159.22
159.22
159.22
159.22
0
159.217
159.217
159.217
159.218
159.218
159.218
159.218
159.218
159.219
159.219
159.219
159.219
159.219
159.219
159.22
159.22
159.22
159.22
159.22
159.22
0
0
159.244
159.241
159.242
159.237
159.169
159.167
159.196
159.213
159.219
159.221
159.221
159.22
159.219
159.218
159.217
159.216
159.215
159.214
159.213
159.211
0
159.244
159.244
159.241
159.242
159.237
159.169
159.167
159.196
159.213
159.219
159.221
159.221
159.22
159.219
159.218
159.217
159.216
159.215
159.214
159.213
159.211
159.211
159.237
159.237
159.237
159.238
159.237
159.216
159.176
159.19
159.207
159.216
159.219
159.22
159.22
159.219
159.218
159.218
159.217
159.216
159.215
159.213
159.212
159.212
159.232
159.232
159.233
159.234
159.235
159.227
159.196
159.191
159.202
159.211
159.216
159.219
159.219
159.219
159.218
159.218
159.217
159.216
159.216
159.215
159.214
159.214
159.229
159.229
159.23
159.231
159.233
159.229
159.21
159.197
159.199
159.206
159.212
159.216
159.218
159.218
159.218
159.218
159.217
159.217
159.217
159.216
159.216
159.216
159.226
159.226
159.228
159.229
159.231
159.23
159.22
159.207
159.201
159.203
159.208
159.212
159.215
159.217
159.217
159.218
159.217
159.217
159.217
159.217
159.217
159.217
159.224
159.224
159.225
159.227
159.229
159.229
159.226
159.218
159.21
159.206
159.206
159.209
159.212
159.214
159.216
159.217
159.217
159.217
159.217
159.217
159.217
159.217
159.222
159.222
159.224
159.225
159.226
159.227
159.226
159.224
159.218
159.213
159.21
159.209
159.21
159.212
159.214
159.215
159.216
159.217
159.217
159.217
159.217
159.217
159.221
159.221
159.222
159.223
159.224
159.225
159.225
159.224
159.223
159.219
159.216
159.213
159.212
159.212
159.213
159.214
159.215
159.216
159.217
159.217
159.217
159.217
159.22
159.22
159.221
159.221
159.222
159.223
159.223
159.223
159.223
159.222
159.221
159.218
159.216
159.214
159.214
159.215
159.215
159.216
159.216
159.217
159.217
159.217
159.219
159.219
159.22
159.22
159.221
159.222
159.222
159.222
159.222
159.222
159.221
159.22
159.219
159.219
159.217
159.216
159.216
159.216
159.217
159.218
159.217
159.217
159.218
159.218
159.219
159.22
159.22
159.22
159.221
159.221
159.221
159.221
159.221
159.221
159.221
159.22
159.219
159.218
159.218
159.218
159.218
159.218
159.218
159.218
159.217
159.217
159.218
159.219
159.219
159.22
159.22
159.22
159.22
159.22
159.221
159.22
159.22
159.22
159.22
159.22
159.22
159.219
159.218
159.217
159.218
159.218
159.217
159.217
159.218
159.218
159.219
159.219
159.219
159.22
159.22
159.22
159.22
159.22
159.22
159.22
159.22
159.22
159.22
159.219
159.219
159.219
159.219
159.219
159.217
159.217
159.218
159.218
159.218
159.219
159.219
159.219
159.219
159.219
159.219
159.219
159.22
159.22
159.22
159.22
159.22
159.22
159.22
159.22
159.219
159.219
159.218
159.218
159.218
159.218
159.218
159.218
159.218
159.218
159.219
159.219
159.219
159.219
159.219
159.219
159.219
159.219
159.22
159.22
159.22
159.219
159.219
159.219
0
159.218
159.218
159.218
159.218
159.218
159.218
159.218
159.219
159.219
159.219
159.219
159.219
159.219
159.219
159.219
159.22
159.22
159.22
159.219
159.219
0
0
159.246
159.246
159.256
159.287
159.199
159.12
159.19
159.217
159.223
159.223
159.222
159.221
159.22
159.218
159.217
159.216
159.215
159.214
159.212
159.211
0
159.246
159.246
159.246
159.256
159.287
159.199
159.12
159.19
159.217
159.223
159.223
159.222
159.221
159.22
159.218
159.217
159.216
159.215
159.214
159.212
159.211
159.211
159.239
159.239
159.241
159.246
159.266
159.228
159.147
159.177
159.207
159.219
159.222
159.222
159.221
159.22
159.219
159.218
159.217
159.215
159.214
159.213
159.212
159.212
159.234
159.234
159.236
159.239
159.247
159.244
159.176
159.173
159.195
159.211
159.218
159.221
159.221
159.22
159.219
159.218
159.217
159.216
159.215
159.215
159.215
159.215
159.23
159.23
159.232
159.235
159.24
159.252
159.202
159.181
159.188
159.202
159.212
159.217
159.219
159.219
159.219
159.218
159.218
159.217
159.216
159.216
159.216
159.216
159.228
159.228
159.229
159.232
159.237
159.252
159.225
159.198
159.191
159.196
159.204
159.211
159.215
159.217
159.218
159.218
159.218
159.217
159.217
159.217
159.217
159.217
159.225
159.225
159.227
159.229
159.233
159.243
159.239
159.219
159.203
159.198
159.2
159.205
159.21
159.214
159.216
159.217
159.217
159.217
159.217
159.218
159.218
159.218
159.223
159.223
159.225
159.226
159.229
159.233
159.237
159.231
159.22
159.209
159.204
159.204
159.206
159.21
159.213
159.215
159.216
159.217
159.217
159.217
159.218
159.218
159.222
159.222
159.223
159.224
159.225
159.228
159.231
159.232
159.229
159.221
159.214
159.21
159.208
159.208
159.21
159.212
159.214
159.215
159.216
159.216
159.217
159.217
159.221
159.221
159.222
159.222
159.223
159.224
159.226
159.228
159.228
159.227
159.224
159.219
159.214
159.212
159.212
159.212
159.213
159.214
159.215
159.216
159.216
159.216
159.22
159.22
159.221
159.221
159.222
159.222
159.223
159.224
159.225
159.226
159.226
159.223
159.221
159.22
159.217
159.214
159.214
159.214
159.215
159.218
159.214
159.214
159.219
159.219
159.22
159.22
159.221
159.221
159.222
159.222
159.223
159.223
159.223
159.223
159.224
159.223
159.219
159.217
159.218
159.218
159.217
159.217
159.215
159.215
159.218
159.218
159.219
159.22
159.22
159.22
159.221
159.221
159.221
159.221
159.222
159.222
159.222
159.221
159.22
159.221
159.222
159.219
159.217
159.215
159.218
159.218
159.218
159.218
159.219
159.219
159.219
159.22
159.22
159.22
159.22
159.22
159.22
159.221
159.221
159.221
159.221
159.222
159.221
159.219
159.218
159.218
159.22
159.22
159.218
159.218
159.219
159.219
159.219
159.219
159.219
159.219
159.219
159.219
159.22
159.22
159.22
159.22
159.22
159.22
159.22
159.22
159.22
159.22
159.22
159.22
159.218
159.218
159.218
159.218
159.218
159.219
159.219
159.219
159.219
159.219
159.219
159.219
159.219
159.219
159.219
159.219
159.219
159.22
159.219
159.219
159.218
159.218
0
159.218
159.218
159.218
159.218
159.219
159.219
159.219
159.219
159.219
159.219
159.219
159.219
159.219
159.219
159.219
159.219
159.22
159.219
159.219
159.218
0
0
159.245
159.243
159.244
159.24
159.184
159.169
159.196
159.212
159.218
159.22
159.22
159.22
159.219
159.218
159.217
159.215
159.214
159.213
159.211
159.21
0
159.245
159.245
159.243
159.244
159.24
159.184
159.169
159.196
159.212
159.218
159.22
159.22
159.22
159.219
159.218
159.217
159.215
159.214
159.213
159.211
159.21
159.21
159.238
159.238
159.239
159.239
159.237
159.208
159.179
159.191
159.207
159.216
159.219
159.22
159.22
159.219
159.218
159.217
159.216
159.215
159.214
159.212
159.211
159.211
159.234
159.234
159.235
159.235
159.234
159.223
159.195
159.192
159.202
159.211
159.216
159.218
159.219
159.219
159.218
159.217
159.216
159.215
159.215
159.214
159.213
159.213
159.23
159.23
159.231
159.232
159.233
159.23
159.21
159.198
159.2
159.206
159.212
159.216
159.217
159.218
159.218
159.217
159.217
159.216
159.216
159.215
159.215
159.215
159.228
159.228
159.229
159.23
159.232
159.232
159.22
159.208
159.202
159.204
159.208
159.212
159.215
159.216
159.217
159.217
159.217
159.216
159.216
159.216
159.216
159.216
159.226
159.226
159.227
159.228
159.23
159.231
159.227
159.218
159.21
159.206
159.207
159.21
159.212
159.214
159.215
159.216
159.216
159.216
159.216
159.217
159.217
159.217
159.224
159.224
159.225
159.226
159.227
159.229
159.228
159.224
159.218
159.213
159.21
159.209
159.211
159.212
159.214
159.215
159.216
159.216
159.216
159.217
159.217
159.217
159.222
159.222
159.223
159.224
159.225
159.226
159.227
159.226
159.223
159.219
159.215
159.213
159.212
159.212
159.213
159.214
159.215
159.215
159.216
159.216
159.216
159.216
159.221
159.221
159.222
159.223
159.223
159.224
159.225
159.225
159.224
159.222
159.22
159.218
159.215
159.214
159.214
159.214
159.215
159.215
159.216
159.216
159.216
159.216
159.22
159.22
159.221
159.222
159.222
159.223
159.223
159.223
159.223
159.223
159.222
159.221
159.219
159.218
159.217
159.216
159.215
159.215
159.216
159.217
159.216
159.216
159.219
159.219
159.22
159.221
159.221
159.221
159.222
159.222
159.222
159.222
159.222
159.221
159.221
159.22
159.219
159.217
159.217
159.217
159.217
159.217
159.217
159.217
159.219
159.219
159.22
159.22
159.22
159.221
159.221
159.221
159.221
159.221
159.221
159.221
159.221
159.22
159.22
159.22
159.219
159.219
159.217
159.217
159.218
159.218
159.218
159.218
159.219
159.22
159.22
159.22
159.22
159.22
159.22
159.22
159.22
159.22
159.22
159.22
159.22
159.22
159.22
159.219
159.218
159.218
159.218
159.218
159.218
159.218
159.219
159.219
159.219
159.219
159.219
159.22
159.22
159.22
159.22
159.22
159.22
159.22
159.22
159.22
159.219
159.219
159.219
159.219
159.219
159.219
159.219
159.219
159.219
159.219
159.219
159.219
159.219
159.219
159.219
159.219
159.219
159.219
159.219
159.219
159.219
159.219
159.219
159.219
159.219
159.219
159.218
159.218
0
159.219
159.219
159.219
159.219
159.219
159.219
159.219
159.219
159.219
159.219
159.219
159.219
159.219
159.219
159.219