# vtk DataFile Version 3.0
FlowField
ASCII
DATASET STRUCTURED_GRID
DIMENSIONS 22 17 12 
POINTS 4488 double
0 0 0
0.1 0 0
0.2 0 0
0.3 0 0
0.4 0 0
0.5 0 0
0.6 0 0
0.7 0 0
0.8 0 0
0.9 0 0
1 0 0
1.1 0 0
1.2 0 0
1.3 0 0
1.4 0 0
1.5 0 0
1.6 0 0
1.7 0 0
1.8 0 0
1.9 0 0
2 0 0
2.1 0 0
0 0.1 0
0.1 0.1 0
0.2 0.1 0
0.3 0.1 0
0.4 0.1 0
0.5 0.1 0
0.6 0.1 0
0.7 0.1 0
0.8 0.1 0
0.9 0.1 0
1 0.1 0
1.1 0.1 0
1.2 0.1 0
1.3 0.1 0
1.4 0.1 0
1.5 0.1 0
1.6 0.1 0
1.7 0.1 0
1.8 0.1 0
1.9 0.1 0
2 0.1 0
2.1 0.1 0
0 0.2 0
0.1 0.2 0
0.2 0.2 0
0.3 0.2 0
0.4 0.2 0
0.5 0.2 0
0.6 0.2 0
0.7 0.2 0
0.8 0.2 0
0.9 0.2 0
1 0.2 0
1.1 0.2 0
1.2 0.2 0
1.3 0.2 0
1.4 0.2 0
1.5 0.2 0
1.6 0.2 0
1.7 0.2 0
1.8 0.2 0
1.9 0.2 0
2 0.2 0
2.1 0.2 0
0 0.3 0
0.1 0.3 0
0.2 0.3 0
0.3 0.3 0
0.4 0.3 0
0.5 0.3 0
0.6 0.3 0
0.7 0.3 0
0.8 0.3 0
0.9 0.3 0
1 0.3 0
1.1 0.3 0
1.2 0.3 0
1.3 0.3 0
1.4 0.3 0
1.5 0.3 0
1.6 0.3 0
1.7 0.3 0
1.8 0.3 0
1.9 0.3 0
2 0.3 0
2.1 0.3 0
0 0.4 0
0.1 0.4 0
0.2 0.4 0
0.3 0.4 0
0.4 0.4 0
0.5 0.4 0
0.6 0.4 0
0.7 0.4 0
0.8 0.4 0
0.9 0.4 0
1 0.4 0
1.1 0.4 0
1.2 0.4 0
1.3 0.4 0
1.4 0.4 0
1.5 0.4 0
1.6 0.4 0
1.7 0.4 0
1.8 0.4 0
1.9 0.4 0
2 0.4 0
2.1 0.4 0
0 0.5 0
0.1 0.5 0
0.2 0.5 0
0.3 0.5 0
0.4 0.5 0
0.5 0.5 0
0.6 0.5 0
0.7 0.5 0
0.8 0.5 0
0.9 0.5 0
1 0.5 0
1.1 0.5 0
1.2 0.5 0
1.3 0.5 0
1.4 0.5 0
1.5 0.5 0
1.6 0.5 0
1.7 0.5 0
1.8 0.5 0
1.9 0.5 0
2 0.5 0
2.1 0.5 0
0 0.6 0
0.1 0.6 0
0.2 0.6 0
0.3 0.6 0
0.4 0.6 0
0.5 0.6 0
0.6 0.6 0
0.7 0.6 0
0.8 0.6 0
0.9 0.6 0
1 0.6 0
1.1 0.6 0
1.2 0.6 0
1.3 0.6 0
1.4 0.6 0
1.5 0.6 0
1.6 0.6 0
1.7 0.6 0
1.8 0.6 0
1.9 0.6 0
2 0.6 0
2.1 0.6 0
0 0.7 0
0.1 0.7 0
0.2 0.7 0
0.3 0.7 0
0.4 0.7 0
0.5 0.7 0
0.6 0.7 0
0.7 0.7 0
0.8 0.7 0
0.9 0.7 0
1 0.7 0
1.1 0.7 0
1.2 0.7 0
1.3 0.7 0
1.4 0.7 0
1.5 0.7 0
1.6 0.7 0
1.7 0.7 0
1.8 0.7 0
1.9 0.7 0
2 0.7 0
2.1 0.7 0
0 0.8 0
0.1 0.8 0
0.2 0.8 0
0.3 0.8 0
0.4 0.8 0
0.5 0.8 0
0.6 0.8 0
0.7 0.8 0
0.8 0.8 0
0.9 0.8 0
1 0.8 0
1.1 0.8 0
1.2 0.8 0
1.3 0.8 0
1.4 0.8 0
1.5 0.8 0
1.6 0.8 0
1.7 0.8 0
1.8 0.8 0
1.9 0.8 0
2 0.8 0
2.1 0.8 0
0 0.9 0
0.1 0.9 0
0.2 0.9 0
0.3 0.9 0
0.4 0.9 0
0.5 0.9 0
0.6 0.9 0
0.7 0.9 0
0.8 0.9 0
0.9 0.9 0
1 0.9 0
1.1 0.9 0
1.2 0.9 0
1.3 0.9 0
1.4 0.9 0
1.5 0.9 0
1.6 0.9 0
1.7 0.9 0
1.8 0.9 0
1.9 0.9 0
2 0.9 0
2.1 0.9 0
0 1 0
0.1 1 0
0.2 1 0
0.3 1 0
0.4 1 0
0.5 1 0
0.6 1 0
0.7 1 0
0.8 1 0
0.9 1 0
1 1 0
1.1 1 0
1.2 1 0
1.3 1 0
1.4 1 0
1.5 1 0
1.6 1 0
1.7 1 0
1.8 1 0
1.9 1 0
2 1 0
2.1 1 0
0 1.1 0
0.1 1.1 0
0.2 1.1 0
0.3 1.1 0
0.4 1.1 0
0.5 1.1 0
0.6 1.1 0
0.7 1.1 0
0.8 1.1 0
0.9 1.1 0
1 1.1 0
1.1 1.1 0
1.2 1.1 0
1.3 1.1 0
1.4 1.1 0
1.5 1.1 0
1.6 1.1 0
1.7 1.1 0
1.8 1.1 0
1.9 1.1 0
2 1.1 0
2.1 1.1 0
0 1.2 0
0.1 1.2 0
0.2 1.2 0
0.3 1.2 0
0.4 1.2 0
0.5 1.2 0
0.6 1.2 0
0.7 1.2 0
0.8 1.2 0
0.9 1.2 0
1 1.2 0
1.1 1.2 0
1.2 1.2 0
1.3 1.2 0
1.4 1.2 0
1.5 1.2 0
1.6 1.2 0
1.7 1.2 0
1.8 1.2 0
1.9 1.2 0
2 1.2 0
2.1 1.2 0
0 1.3 0
0.1 1.3 0
0.2 1.3 0
0.3 1.3 0
0.4 1.3 0
0.5 1.3 0
0.6 1.3 0
0.7 1.3 0
0.8 1.3 0
0.9 1.3 0
1 1.3 0
1.1 1.3 0
1.2 1.3 0
1.3 1.3 0
1.4 1.3 0
1.5 1.3 0
1.6 1.3 0
1.7 1.3 0
1.8 1.3 0
1.9 1.3 0
2 1.3 0
2.1 1.3 0
0 1.4 0
0.1 1.4 0
0.2 1.4 0
0.3 1.4 0
0.4 1.4 0
0.5 1.4 0
0.6 1.4 0
0.7 1.4 0
0.8 1.4 0
0.9 1.4 0
1 1.4 0
1.1 1.4 0
1.2 1.4 0
1.3 1.4 0
1.4 1.4 0
1.5 1.4 0
1.6 1.4 0
1.7 1.4 0
1.8 1.4 0
1.9 1.4 0
2 1.4 0
2.1 1.4 0
0 1.5 0
0.1 1.5 0
0.2 1.5 0
0.3 1.5 0
0.4 1.5 0
0.5 1.5 0
0.6 1.5 0
0.7 1.5 0
0.8 1.5 0
0.9 1.5 0
1 1.5 0
1.1 1.5 0
1.2 1.5 0
1.3 1.5 0
1.4 1.5 0
1.5 1.5 0
1.6 1.5 0
1.7 1.5 0
1.8 1.5 0
1.9 1.5 0
2 1.5 0
2.1 1.5 0
0 1.6 0
0.1 1.6 0
0.2 1.6 0
0.3 1.6 0
0.4 1.6 0
0.5 1.6 0
0.6 1.6 0
0.7 1.6 0
0.8 1.6 0
0.9 1.6 0
1 1.6 0
1.1 1.6 0
1.2 1.6 0
1.3 1.6 0
1.4 1.6 0
1.5 1.6 0
1.6 1.6 0
1.7 1.6 0
1.8 1.6 0
1.9 1.6 0
2 1.6 0
2.1 1.6 0
0 0 0.1
0.1 0 0.1
0.2 0 0.1
0.3 0 0.1
0.4 0 0.1
0.5 0 0.1
0.6 0 0.1
0.7 0 0.1
0.8 0 0.1
0.9 0 0.1
1 0 0.1
1.1 0 0.1
1.2 0 0.1
1.3 0 0.1
1.4 0 0.1
1.5 0 0.1
1.6 0 0.1
1.7 0 0.1
1.8 0 0.1
1.9 0 0.1
2 0 0.1
2.1 0 0.1
0 0.1 0.1
0.1 0.1 0.1
0.2 0.1 0.1
0.3 0.1 0.1
0.4 0.1 0.1
0.5 0.1 0.1
0.6 0.1 0.1
0.7 0.1 0.1
0.8 0.1 0.1
0.9 0.1 0.1
1 0.1 0.1
1.1 0.1 0.1
1.2 0.1 0.1
1.3 0.1 0.1
1.4 0.1 0.1
1.5 0.1 0.1
1.6 0.1 0.1
1.7 0.1 0.1
1.8 0.1 0.1
1.9 0.1 0.1
2 0.1 0.1
2.1 0.1 0.1
0 0.2 0.1
0.1 0.2 0.1
0.2 0.2 0.1
0.3 0.2 0.1
0.4 0.2 0.1
0.5 0.2 0.1
0.6 0.2 0.1
0.7 0.2 0.1
0.8 0.2 0.1
0.9 0.2 0.1
1 0.2 0.1
1.1 0.2 0.1
1.2 0.2 0.1
1.3 0.2 0.1
1.4 0.2 0.1
1.5 0.2 0.1
1.6 0.2 0.1
1.7 0.2 0.1
1.8 0.2 0.1
1.9 0.2 0.1
2 0.2 0.1
2.1 0.2 0.1
0 0.3 0.1
0.1 0.3 0.1
0.2 0.3 0.1
0.3 0.3 0.1
0.4 0.3 0.1
0.5 0.3 0.1
0.6 0.3 0.1
0.7 0.3 0.1
0.8 0.3 0.1
0.9 0.3 0.1
1 0.3 0.1
1.1 0.3 0.1
1.2 0.3 0.1
1.3 0.3 0.1
1.4 0.3 0.1
1.5 0.3 0.1
1.6 0.3 0.1
1.7 0.3 0.1
1.8 0.3 0.1
1.9 0.3 0.1
2 0.3 0.1
2.1 0.3 0.1
0 0.4 0.1
0.1 0.4 0.1
0.2 0.4 0.1
0.3 0.4 0.1
0.4 0.4 0.1
0.5 0.4 0.1
0.6 0.4 0.1
0.7 0.4 0.1
0.8 0.4 0.1
0.9 0.4 0.1
1 0.4 0.1
1.1 0.4 0.1
1.2 0.4 0.1
1.3 0.4 0.1
1.4 0.4 0.1
1.5 0.4 0.1
1.6 0.4 0.1
1.7 0.4 0.1
1.8 0.4 0.1
1.9 0.4 0.1
2 0.4 0.1
2.1 0.4 0.1
0 0.5 0.1
0.1 0.5 0.1
0.2 0.5 0.1
0.3 0.5 0.1
0.4 0.5 0.1
0.5 0.5 0.1
0.6 0.5 0.1
0.7 0.5 0.1
0.8 0.5 0.1
0.9 0.5 0.1
1 0.5 0.1
1.1 0.5 0.1
1.2 0.5 0.1
1.3 0.5 0.1
1.4 0.5 0.1
1.5 0.5 0.1
1.6 0.5 0.1
1.7 0.5 0.1
1.8 0.5 0.1
1.9 0.5 0.1
2 0.5 0.1
2.1 0.5 0.1
0 0.6 0.1
0.1 0.6 0.1
0.2 0.6 0.1
0.3 0.6 0.1
0.4 0.6 0.1
0.5 0.6 0.1
0.6 0.6 0.1
0.7 0.6 0.1
0.8 0.6 0.1
0.9 0.6 0.1
1 0.6 0.1
1.1 0.6 0.1
1.2 0.6 0.1
1.3 0.6 0.1
1.4 0.6 0.1
1.5 0.6 0.1
1.6 0.6 0.1
1.7 0.6 0.1
1.8 0.6 0.1
1.9 0.6 0.1
2 0.6 0.1
2.1 0.6 0.1
0 0.7 0.1
0.1 0.7 0.1
0.2 0.7 0.1
0.3 0.7 0.1
0.4 0.7 0.1
0.5 0.7 0.1
0.6 0.7 0.1
0.7 0.7 0.1
0.8 0.7 0.1
0.9 0.7 0.1
1 0.7 0.1
1.1 0.7 0.1
1.2 0.7 0.1
1.3 0.7 0.1
1.4 0.7 0.1
1.5 0.7 0.1
1.6 0.7 0.1
1.7 0.7 0.1
1.8 0.7 0.1
1.9 0.7 0.1
2 0.7 0.1
2.1 0.7 0.1
0 0.8 0.1
0.1 0.8 0.1
0.2 0.8 0.1
0.3 0.8 0.1
0.4 0.8 0.1
0.5 0.8 0.1
0.6 0.8 0.1
0.7 0.8 0.1
0.8 0.8 0.1
0.9 0.8 0.1
1 0.8 0.1
1.1 0.8 0.1
1.2 0.8 0.1
1.3 0.8 0.1
1.4 0.8 0.1
1.5 0.8 0.1
1.6 0.8 0.1
1.7 0.8 0.1
1.8 0.8 0.1
1.9 0.8 0.1
2 0.8 0.1
2.1 0.8 0.1
0 0.9 0.1
0.1 0.9 0.1
0.2 0.9 0.1
0.3 0.9 0.1
0.4 0.9 0.1
0.5 0.9 0.1
0.6 0.9 0.1
0.7 0.9 0.1
0.8 0.9 0.1
0.9 0.9 0.1
1 0.9 0.1
1.1 0.9 0.1
1.2 0.9 0.1
1.3 0.9 0.1
1.4 0.9 0.1
1.5 0.9 0.1
1.6 0.9 0.1
1.7 0.9 0.1
1.8 0.9 0.1
1.9 0.9 0.1
2 0.9 0.1
2.1 0.9 0.1
0 1 0.1
0.1 1 0.1
0.2 1 0.1
0.3 1 0.1
0.4 1 0.1
0.5 1 0.1
0.6 1 0.1
0.7 1 0.1
0.8 1 0.1
0.9 1 0.1
1 1 0.1
1.1 1 0.1
1.2 1 0.1
1.3 1 0.1
1.4 1 0.1
1.5 1 0.1
1.6 1 0.1
1.7 1 0.1
1.8 1 0.1
1.9 1 0.1
2 1 0.1
2.1 1 0.1
0 1.1 0.1
0.1 1.1 0.1
0.2 1.1 0.1
0.3 1.1 0.1
0.4 1.1 0.1
0.5 1.1 0.1
0.6 1.1 0.1
0.7 1.1 0.1
0.8 1.1 0.1
0.9 1.1 0.1
1 1.1 0.1
1.1 1.1 0.1
1.2 1.1 0.1
1.3 1.1 0.1
1.4 1.1 0.1
1.5 1.1 0.1
1.6 1.1 0.1
1.7 1.1 0.1
1.8 1.1 0.1
1.9 1.1 0.1
2 1.1 0.1
2.1 1.1 0.1
0 1.2 0.1
0.1 1.2 0.1
0.2 1.2 0.1
0.3 1.2 0.1
0.4 1.2 0.1
0.5 1.2 0.1
0.6 1.2 0.1
0.7 1.2 0.1
0.8 1.2 0.1
0.9 1.2 0.1
1 1.2 0.1
1.1 1.2 0.1
1.2 1.2 0.1
1.3 1.2 0.1
1.4 1.2 0.1
1.5 1.2 0.1
1.6 1.2 0.1
1.7 1.2 0.1
1.8 1.2 0.1
1.9 1.2 0.1
2 1.2 0.1
2.1 1.2 0.1
0 1.3 0.1
0.1 1.3 0.1
0.2 1.3 0.1
0.3 1.3 0.1
0.4 1.3 0.1
0.5 1.3 0.1
0.6 1.3 0.1
0.7 1.3 0.1
0.8 1.3 0.1
0.9 1.3 0.1
1 1.3 0.1
1.1 1.3 0.1
1.2 1.3 0.1
1.3 1.3 0.1
1.4 1.3 0.1
1.5 1.3 0.1
1.6 1.3 0.1
1.7 1.3 0.1
1.8 1.3 0.1
1.9 1.3 0.1
2 1.3 0.1
2.1 1.3 0.1
0 1.4 0.1
0.1 1.4 0.1
0.2 1.4 0.1
0.3 1.4 0.1
0.4 1.4 0.1
0.5 1.4 0.1
0.6 1.4 0.1
0.7 1.4 0.1
0.8 1.4 0.1
0.9 1.4 0.1
1 1.4 0.1
1.1 1.4 0.1
1.2 1.4 0.1
1.3 1.4 0.1
1.4 1.4 0.1
1.5 1.4 0.1
1.6 1.4 0.1
1.7 1.4 0.1
1.8 1.4 0.1
1.9 1.4 0.1
2 1.4 0.1
2.1 1.4 0.1
0 1.5 0.1
0.1 1.5 0.1
0.2 1.5 0.1
0.3 1.5 0.1
0.4 1.5 0.1
0.5 1.5 0.1
0.6 1.5 0.1
0.7 1.5 0.1
0.8 1.5 0.1
0.9 1.5 0.1
1 1.5 0.1
1.1 1.5 0.1
1.2 1.5 0.1
1.3 1.5 0.1
1.4 1.5 0.1
1.5 1.5 0.1
1.6 1.5 0.1
1.7 1.5 0.1
1.8 1.5 0.1
1.9 1.5 0.1
2 1.5 0.1
2.1 1.5 0.1
0 1.6 0.1
0.1 1.6 0.1
0.2 1.6 0.1
0.3 1.6 0.1
0.4 1.6 0.1
0.5 1.6 0.1
0.6 1.6 0.1
0.7 1.6 0.1
0.8 1.6 0.1
0.9 1.6 0.1
1 1.6 0.1
1.1 1.6 0.1
1.2 1.6 0.1
1.3 1.6 0.1
1.4 1.6 0.1
1.5 1.6 0.1
1.6 1.6 0.1
1.7 1.6 0.1
1.8 1.6 0.1
1.9 1.6 0.1
2 1.6 0.1
2.1 1.6 0.1
0 0 0.2
0.1 0 0.2
0.2 0 0.2
0.3 0 0.2
0.4 0 0.2
0.5 0 0.2
0.6 0 0.2
0.7 0 0.2
0.8 0 0.2
0.9 0 0.2
1 0 0.2
1.1 0 0.2
1.2 0 0.2
1.3 0 0.2
1.4 0 0.2
1.5 0 0.2
1.6 0 0.2
1.7 0 0.2
1.8 0 0.2
1.9 0 0.2
2 0 0.2
2.1 0 0.2
0 0.1 0.2
0.1 0.1 0.2
0.2 0.1 0.2
0.3 0.1 0.2
0.4 0.1 0.2
0.5 0.1 0.2
0.6 0.1 0.2
0.7 0.1 0.2
0.8 0.1 0.2
0.9 0.1 0.2
1 0.1 0.2
1.1 0.1 0.2
1.2 0.1 0.2
1.3 0.1 0.2
1.4 0.1 0.2
1.5 0.1 0.2
1.6 0.1 0.2
1.7 0.1 0.2
1.8 0.1 0.2
1.9 0.1 0.2
2 0.1 0.2
2.1 0.1 0.2
0 0.2 0.2
0.1 0.2 0.2
0.2 0.2 0.2
0.3 0.2 0.2
0.4 0.2 0.2
0.5 0.2 0.2
0.6 0.2 0.2
0.7 0.2 0.2
0.8 0.2 0.2
0.9 0.2 0.2
1 0.2 0.2
1.1 0.2 0.2
1.2 0.2 0.2
1.3 0.2 0.2
1.4 0.2 0.2
1.5 0.2 0.2
1.6 0.2 0.2
1.7 0.2 0.2
1.8 0.2 0.2
1.9 0.2 0.2
2 0.2 0.2
2.1 0.2 0.2
0 0.3 0.2
0.1 0.3 0.2
0.2 0.3 0.2
0.3 0.3 0.2
0.4 0.3 0.2
0.5 0.3 0.2
0.6 0.3 0.2
0.7 0.3 0.2
0.8 0.3 0.2
0.9 0.3 0.2
1 0.3 0.2
1.1 0.3 0.2
1.2 0.3 0.2
1.3 0.3 0.2
1.4 0.3 0.2
1.5 0.3 0.2
1.6 0.3 0.2
1.7 0.3 0.2
1.8 0.3 0.2
1.9 0.3 0.2
2 0.3 0.2
2.1 0.3 0.2
0 0.4 0.2
0.1 0.4 0.2
0.2 0.4 0.2
0.3 0.4 0.2
0.4 0.4 0.2
0.5 0.4 0.2
0.6 0.4 0.2
0.7 0.4 0.2
0.8 0.4 0.2
0.9 0.4 0.2
1 0.4 0.2
1.1 0.4 0.2
1.2 0.4 0.2
1.3 0.4 0.2
1.4 0.4 0.2
1.5 0.4 0.2
1.6 0.4 0.2
1.7 0.4 0.2
1.8 0.4 0.2
1.9 0.4 0.2
2 0.4 0.2
2.1 0.4 0.2
0 0.5 0.2
0.1 0.5 0.2
0.2 0.5 0.2
0.3 0.5 0.2
0.4 0.5 0.2
0.5 0.5 0.2
0.6 0.5 0.2
0.7 0.5 0.2
0.8 0.5 0.2
0.9 0.5 0.2
1 0.5 0.2
1.1 0.5 0.2
1.2 0.5 0.2
1.3 0.5 0.2
1.4 0.5 0.2
1.5 0.5 0.2
1.6 0.5 0.2
1.7 0.5 0.2
1.8 0.5 0.2
1.9 0.5 0.2
2 0.5 0.2
2.1 0.5 0.2
0 0.6 0.2
0.1 0.6 0.2
0.2 0.6 0.2
0.3 0.6 0.2
0.4 0.6 0.2
0.5 0.6 0.2
0.6 0.6 0.2
0.7 0.6 0.2
0.8 0.6 0.2
0.9 0.6 0.2
1 0.6 0.2
1.1 0.6 0.2
1.2 0.6 0.2
1.3 0.6 0.2
1.4 0.6 0.2
1.5 0.6 0.2
1.6 0.6 0.2
1.7 0.6 0.2
1.8 0.6 0.2
1.9 0.6 0.2
2 0.6 0.2
2.1 0.6 0.2
0 0.7 0.2
0.1 0.7 0.2
0.2 0.7 0.2
0.3 0.7 0.2
0.4 0.7 0.2
0.5 0.7 0.2
0.6 0.7 0.2
0.7 0.7 0.2
0.8 0.7 0.2
0.9 0.7 0.2
1 0.7 0.2
1.1 0.7 0.2
1.2 0.7 0.2
1.3 0.7 0.2
1.4 0.7 0.2
1.5 0.7 0.2
1.6 0.7 0.2
1.7 0.7 0.2
1.8 0.7 0.2
1.9 0.7 0.2
2 0.7 0.2
2.1 0.7 0.2
0 0.8 0.2
0.1 0.8 0.2
[...]
POINT_DATA 4488

SCALARS pressure double
LOOKUP_TABLE pressure
0
0
0
0
0
0
0
0
0
0
0
0
0
0
0
0
0
0
0
0
0
0
0
43.7594
43.7541
43.7509
43.7488
43.7496
43.7457
43.7418
43.7398
43.7478
43.7478
43.7425
43.74
43.7392
43.7382
43.7365
43.7371
43.7365
43.736
43.7345
43.7329
0
0
43.7535
43.7521
43.7501
43.749
43.7474
43.7446
43.7398
43.7385
43.7418
43.7424
43.7407
43.7394
43.7388
43.7381
43.7374
43.7392
43.7378
43.7362
43.735
43.734
0
0
43.7503
43.75
43.7491
43.7509
43.7476
43.7426
43.7393
43.7391
43.74
43.7404
43.7393
43.7388
43.7386
43.7382
43.7378
43.7381
43.7371
43.7362
43.7358
43.7351
0
0
43.7483
43.7485
43.7486
43.7485
43.7478
43.7385
43.735
43.7383
43.7389
43.7408
43.7376
43.7379
43.7385
43.7381
43.7378
43.7378
43.7375
43.7369
43.7363
43.7359
0
0
43.7468
43.747
43.749
43.7475
43.7475
43.742
43.7395
43.7394
43.7394
43.7396
43.7389
43.739
43.7388
43.738
43.7375
43.7379
43.7379
43.7372
43.7365
43.7363
0
0
43.7455
43.7458
43.7461
43.7454
43.7443
43.7424
43.741
43.7403
43.7402
43.7406
43.7396
43.7401
43.7391
43.7379
43.7371
43.7387
43.7385
43.7371
43.7357
43.736
0
0
43.7444
43.7447
43.7447
43.7439
43.7424
43.7422
43.7415
43.7409
43.7399
43.7397
43.7394
43.7391
43.7385
43.738
43.7376
43.7393
43.7381
43.7352
43.7346
43.7342
0
0
43.7435
43.7438
43.7439
43.7431
43.7431
43.7421
43.7414
43.7408
43.74
43.7396
43.7391
43.7387
43.7385
43.7384
43.7382
43.7381
43.7372
43.7306
43.7331
43.7343
0
0
43.7425
43.7431
43.7432
43.7428
43.7421
43.7415
43.7412
43.7407
43.7402
43.7397
43.7392
43.7389
43.7387
43.7385
43.7382
43.7377
43.7367
43.735
43.7354
43.7355
0
0
43.7409
43.7429
43.7428
43.7426
43.741
43.7405
43.741
43.7408
43.7404
43.74
43.7395
43.7392
43.7389
43.7386
43.7383
43.7377
43.7371
43.7365
43.7366
43.7365
0
0
43.7414
43.7421
43.7422
43.7422
43.7418
43.7413
43.7411
43.7411
43.7407
43.7403
43.7399
43.7395
43.7393
43.7385
43.7383
43.7377
43.7375
43.7372
43.7372
43.7372
0
0
43.7413
43.7417
43.7418
43.7419
43.7418
43.7414
43.7411
43.741
43.7407
43.7404
43.7401
43.7397
43.7394
43.7393
43.7403
43.7369
43.7378
43.7375
43.7376
43.7377
0
0
43.7411
43.7414
43.7415
43.7416
43.7415
43.7413
43.741
43.7408
43.7407
43.7405
43.7402
43.7399
43.739
43.7392
43.7394
43.7386
43.7387
43.7376
43.7378
43.7383
0
0
43.7409
43.7412
43.7412
43.7412
43.7412
43.741
43.7408
43.7406
43.7406
43.7406
43.7404
43.74
43.7397
43.7395
43.7393
43.739
43.7387
43.7383
43.7381
43.7383
0
0
43.7409
43.741
43.741
43.7409
43.7409
43.7408
43.7403
43.74
43.7403
43.7408
43.7407
43.7401
43.7398
43.7396
43.7394
43.739
43.7387
43.7388
43.7387
43.7388
0
0
0
0
0
0
0
0
0
0
0
0
0
0
0
0
0
0
0
0
0
0
0
0
43.7594
43.7541
43.7509
43.7488
43.7496
43.7457
43.7418
43.7398
43.7478
43.7478
43.7425
43.74
43.7392
43.7382
43.7365
43.7371
43.7365
43.736
43.7345
43.7329
0
43.7594
43.7594
43.7541
43.7509
43.7488
43.7496
43.7457
43.7418
43.7398
43.7478
43.7478
43.7425
43.74
43.7392
43.7382
43.7365
43.7371
43.7365
43.736
43.7345
43.7329
43.7329
43.7535
43.7535
43.7521
43.7501
43.749
43.7474
43.7446
43.7398
43.7385
43.7418
43.7424
43.7407
43.7394
43.7388
43.7381
43.7374
43.7392
43.7378
43.7362
43.735
43.734
43.734
43.7503
43.7503
43.75
43.7491
43.7509
43.7476
43.7426
43.7393
43.7391
43.74
43.7404
43.7393
43.7388
43.7386
43.7382
43.7378
43.7381
43.7371
43.7362
43.7358
43.7351
43.7351
43.7483
43.7483
43.7485
43.7486
43.7485
43.7478
43.7385
43.735
43.7383
43.7389
43.7408
43.7376
43.7379
43.7385
43.7381
43.7378
43.7378
43.7375
43.7369
43.7363
43.7359
43.7359
43.7468
43.7468
43.747
43.749
43.7475
43.7475
43.742
43.7395
43.7394
43.7394
43.7396
43.7389
43.739
43.7388
43.738
43.7375
43.7379
43.7379
43.7372
43.7365
43.7363
43.7363
43.7455
43.7455
43.7458
43.7461
43.7454
43.7443
43.7424
43.741
43.7403
43.7402
43.7406
43.7396
43.7401
43.7391
43.7379
43.7371
43.7387
43.7385
43.7371
43.7357
43.736
43.736
43.7444
43.7444
43.7447
43.7447
43.7439
43.7424
43.7422
43.7415
43.7409
43.7399
43.7397
43.7394
43.7391
43.7385
43.738
43.7376
43.7393
43.7381
43.7352
43.7346
43.7342
43.7342
43.7435
43.7435
43.7438
43.7439
43.7431
43.7431
43.7421
43.7414
43.7408
43.74
43.7396
43.7391
43.7387
43.7385
43.7384
43.7382
43.7381
43.7372
43.7306
43.7331
43.7343
43.7343
43.7425
43.7425
43.7431
43.7432
43.7428
43.7421
43.7415
43.7412
43.7407
43.7402
43.7397
43.7392
43.7389
43.7387
43.7385
43.7382
43.7377
43.7367
43.735
43.7354
43.7355
43.7355
43.7409
43.7409
43.7429
43.7428
43.7426
43.741
43.7405
43.741
43.7408
43.7404
43.74
43.7395
43.7392
43.7389
43.7386
43.7383
43.7377
43.7371
43.7365
43.7366
43.7365
43.7365
43.7414
43.7414
43.7421
43.7422
43.7422
43.7418
43.7413
43.7411
43.7411
43.7407
43.7403
43.7399
43.7395
43.7393
43.7385
43.7383
43.7377
43.7375
43.7372
43.7372
43.7372
43.7372
43.7413
43.7413
43.7417
43.7418
43.7419
43.7418
43.7414
43.7411
43.741
43.7407
43.7404
43.7401
43.7397
43.7394
43.7393
43.7403
43.7369
43.7378
43.7375
43.7376
43.7377
43.7377
43.7411
43.7411
43.7414
43.7415
43.7416
43.7415
43.7413
43.741
43.7408
43.7407
43.7405
43.7402
43.7399
43.739
43.7392
43.7394
43.7386
43.7387
43.7376
43.7378
43.7383
43.7383
43.7409
43.7409
43.7412
43.7412
43.7412
43.7412
43.741
43.7408
43.7406
43.7406
43.7406
43.7404
43.74
43.7397
43.7395
43.7393
43.739
43.7387
43.7383
43.7381
43.7383
43.7383
43.7409
43.7409
43.741
43.741
43.7409
43.7409
43.7408
43.7403
43.74
43.7403
43.7408
43.7407
43.7401
43.7398
43.7396
43.7394
43.739
43.7387
43.7388
43.7387
43.7388
43.7388
0
43.7409
43.741
43.741
43.7409
43.7409
43.7408
43.7403
43.74
43.7403
43.7408
43.7407
43.7401
43.7398
43.7396
43.7394
43.739
43.7387
43.7388
43.7387
43.7388
0
0
43.7629
43.7575
43.7538
43.7494
43.7423
43.7373
43.7365
43.7381
43.7416
43.7424
43.741
43.7399
43.7391
43.7384
43.7376
43.7372
43.7364
43.7353
43.7336
43.7324
0
43.7629
43.7629
43.7575
43.7538
43.7494
43.7423
43.7373
43.7365
43.7381
43.7416
43.7424
43.741
43.7399
43.7391
43.7384
43.7376
43.7372
43.7364
43.7353
43.7336
43.7324
43.7324
43.7568
43.7568
43.7552
43.7529
43.7496
43.7437
43.738
43.7358
43.7368
43.7392
43.7403
43.7399
43.7394
43.7389
43.7384
43.7378
43.7377
43.7368
43.7357
43.7345
43.7336
43.7336
43.7532
43.7532
43.7528
43.7516
43.7497
43.7453
43.7393
43.7361
43.7363
43.7378
43.7388
43.7389
43.7388
43.7386
43.7382
43.7379
43.7376
43.7369
43.7361
43.7354
43.7348
43.7348
43.7508
43.7508
43.7508
43.7504
43.7491
43.7461
43.7402
43.7365
43.7362
43.737
43.7381
43.738
43.7382
43.7383
43.738
43.7377
43.7375
43.7371
43.7365
43.7361
43.7356
43.7356
43.7489
43.7489
43.7491
43.7492
43.7482
43.7462
43.742
43.7386
43.7372
43.7372
43.7378
43.7379
43.7381
43.7381
43.7378
43.7376
43.7376
43.7373
43.7368
43.7363
43.736
43.736
43.7473
43.7473
43.7475
43.7475
43.7469
43.7455
43.7431
43.7407
43.7391
43.7383
43.7382
43.738
43.7381
43.738
43.7377
43.7375
43.7377
43.7374
43.7366
43.7361
43.7359
43.7359
43.7459
43.7459
43.7461
43.7461
43.7457
43.7448
43.7436
43.742
43.7403
43.7389
43.7382
43.7379
43.7379
43.7379
43.7377
43.7376
43.7378
43.7372
43.736
43.7357
43.7354
43.7354
43.7447
43.7447
43.745
43.745
43.7447
43.7442
43.7433
43.742
43.7405
43.7392
43.7385
43.7382
43.7381
43.7381
43.738
43.7379
43.7376
43.7369
43.7352
43.7355
43.7356
43.7356
43.7437
43.7437
43.744
43.7441
43.7438
43.7434
43.7427
43.7419
43.741
43.7401
43.7395
43.7391
43.7387
43.7385
43.7383
43.7381
43.7377
43.7371
43.7362
43.7362
43.7362
43.7362
43.7428
43.7428
43.7433
43.7433
43.7432
43.7427
43.7422
43.7419
43.7415
43.741
43.7404
43.7398
43.7393
43.7389
43.7386
43.7383
43.7379
43.7374
43.737
43.7369
43.7369
43.7369
43.7423
43.7423
43.7426
43.7427
43.7427
43.7424
43.7421
43.7419
43.7417
43.7413
43.7408
43.7402
43.7397
43.7393
43.7389
43.7386
43.7381
43.7378
43.7376
43.7375
43.7374
43.7374
43.7419
43.7419
43.7421
43.7423
43.7422
43.7421
43.7419
43.7417
43.7415
43.7412
43.7408
43.7404
43.7399
43.7395
43.7393
43.7391
43.7383
43.7381
43.7379
43.7379
43.7379
43.7379
43.7415
43.7415
43.7418
43.7418
43.7419
43.7418
43.7416
43.7414
43.7413
43.7411
43.7408
43.7405
43.7401
43.7396
43.7394
43.7392
43.7388
43.7386
43.7383
43.7382
43.7383
43.7383
43.7413
43.7413
43.7415
43.7415
43.7415
43.7414
43.7413
43.7411
43.741
43.7408
43.7407
43.7405
43.7401
43.7398
43.7396
43.7393
43.739
43.7388
43.7386
43.7386
43.7386
43.7386
43.7412
43.7412
43.7413
43.7412
43.7412
43.7411
43.741
43.7407
43.7406
43.7406
43.7407
43.7406
43.7402
43.7399
43.7397
43.7394
43.7391
43.7389
43.739
43.7389
43.7389
43.7389
0
43.7412
43.7413
43.7412
43.7412
43.7411
43.741
43.7407
43.7406
43.7406
43.7407
43.7406
43.7402
43.7399
43.7397
43.7394
43.7391
43.7389
43.739
43.7389
43.7389
0
0
43.7666
43.7615
43.7583
43.7513
43.7306
43.7231
43.7284
43.735
43.7393
43.7408
43.7406
43.74
43.7394
43.7387
43.7379
43.7372
43.7362
43.7349
43.7332
43.732
0
43.7666
43.7666
43.7615
43.7583
43.7513
43.7306
43.7231
43.7284
43.735
43.7393
43.7408
43.7406
43.74
43.7394
43.7387
43.7379
43.7372
43.7362
43.7349
43.7332
43.732
43.732
43.76
43.76
43.7587
43.7567
43.7518
43.7392
43.7262
43.727
43.7324
43.7368
43.739
43.7395
43.7394
43.7391
43.7386
43.738
43.7373
43.7364
43.7353
43.7341
43.7333
43.7333
43.756
43.756
43.7557
43.7547
43.752
43.7444
43.7326
43.729
43.7315
43.735
43.7373
43.7384
43.7387
43.7387
43.7383
43.7378
43.7373
43.7366
43.7359
43.7352
43.7345
43.7345
43.7531
43.7531
43.7532
43.7529
43.7518
43.7477
43.7387
43.7324
43.7315
43.7336
43.7359
43.7372
43.7379
43.7381
43.7379
43.7376
43.7373
43.7368
43.7363
43.7359
43.7354
43.7354
43.7508
43.7508
43.7511
43.7512
43.7505
43.7479
43.7415
43.7351
43.7326
43.7336
43.7354
43.7366
43.7372
43.7375
43.7375
43.7374
43.7373
43.737
43.7366
43.7362
43.7359
43.7359
43.7488
43.7488
43.7491
43.7493
43.7489
43.7474
43.7441
43.7403
43.7373
43.7362
43.7362
43.7363
43.7367
43.7371
43.7373
43.7373
43.7373
43.737
43.7366
43.7363
43.7361
43.7361
43.7472
43.7472
43.7475
43.7477
43.7476
43.7472
43.7461
43.7436
43.74
43.7373
43.7359
43.7358
43.7364
43.737
43.7373
43.7374
43.7374
43.737
43.7366
43.7363
43.7361
43.7361
43.7458
43.7458
43.7461
43.7462
43.7462
43.746
43.7451
43.7429
43.7399
43.7371
43.7362
43.7366
43.7371
43.7375
43.7376
43.7376
43.7375
43.7371
43.7366
43.7365
43.7363
43.7363
43.7446
43.7446
43.7449
43.745
43.745
43.7447
43.744
43.7427
43.741
43.7397
43.7392
43.7387
43.7384
43.7382
43.7381
43.738
43.7377
43.7374
43.737
43.7369
43.7368
43.7368
43.7437
43.7437
43.7439
43.744
43.744
43.7438
43.7434
43.743
43.7425
43.7421
43.7412
43.7402
43.7394
43.7389
43.7386
43.7383
43.738
43.7377
43.7375
43.7374
43.7372
43.7372
43.7429
43.7429
43.7432
43.7433
43.7433
43.7431
43.743
43.7428
43.7427
43.7423
43.7416
43.7407
43.74
43.7394
43.739
43.7387
43.7383
43.7381
43.7379
43.7378
43.7377
43.7377
43.7424
43.7424
43.7426
43.7427
43.7427
43.7426
43.7425
43.7424
43.7422
43.742
43.7414
43.7408
43.7402
43.7397
43.7393
43.739
43.7386
43.7384
43.7382
43.7382
43.7381
43.7381
43.7419
43.7419
43.7421
43.7422
43.7422
43.7421
43.742
43.7419
43.7418
43.7415
43.7412
43.7408
43.7403
43.7399
43.7395
43.7392
43.7389
43.7387
43.7386
43.7385
43.7384
43.7384
43.7416
43.7416
43.7418
43.7418
43.7418
43.7417
43.7416
43.7415
43.7413
43.7412
43.741
43.7407
43.7403
43.74
43.7397
43.7394
43.7392
43.739
43.7389
43.7388
43.7388
43.7388
43.7415
43.7415
43.7415
43.7415
43.7414
43.7413
43.7412
43.7411
43.741
43.7409
43.7408
43.7406
43.7404
43.7401
43.7398
43.7395
43.7393
43.7392
43.7391
43.7391
43.7391
43.7391
0
43.7415
43.7415
43.7415
43.7414
43.7413
43.7412
43.7411
43.741
43.7409
43.7408
43.7406
43.7404
43.7401
43.7398
43.7395
43.7393
43.7392
43.7391
43.7391
43.7391
0
0
43.7702
43.7665
43.7672
43.7624
43.6956
43.6907
43.7181
43.7343
43.7404
43.7417
43.7413
43.7405
43.7397
43.7389
43.738
43.7371
43.736
43.7346
43.7329
43.7318
0
43.7702
43.7702
43.7665
43.7672
43.7624
43.6956
43.6907
43.7181
43.7343
43.7404
43.7417
43.7413
43.7405
43.7397
43.7389
43.738
43.7371
43.736
43.7346
43.7329
43.7318
43.7318
43.763
43.763
43.7626
43.7629
43.7602
43.7382
43.6973
43.7102
43.7277
43.7367
43.7396
43.7401
43.7399
43.7395
43.7389
43.738
43.7371
43.7362
43.7351
43.7338
43.733
43.733
43.7584
43.7584
43.7586
43.759
43.7583
43.7478
43.7168
43.7134
43.7242
43.7328
43.7371
43.7388
43.7393
43.7391
43.7385
43.7378
43.7371
43.7364
43.7356
43.7349
43.7343
43.7343
43.755
43.755
43.7555
43.7565
43.7582
43.7563
43.7366
43.7229
43.7222
43.7278
43.7334
43.7366
43.7379
43.7381
43.7379
43.7375
43.7371
43.7366
43.7361
43.7357
43.7352
43.7352
43.7523
43.7523
43.7529
43.7539
43.7553
43.7536
43.7405
43.7255
43.7211
43.7263
43.7325
43.7355
43.7364
43.7369
43.7372
43.7372
43.737
43.7368
43.7364
43.7362
43.7358
43.7358
43.7501
43.7501
43.7506
43.7512
43.7519
43.7503
43.7456
43.7396
43.7344
43.7341
43.7353
43.7347
43.7349
43.7359
43.7367
43.737
43.7371
43.7369
43.7367
43.7365
43.7362
43.7362
43.7482
43.7482
43.7486
43.7492
43.75
43.751
43.7522
43.7489
43.7405
43.735
43.7317
43.7319
43.734
43.7357
43.7367
43.7371
43.7372
43.7371
43.7368
43.7367
43.7364
43.7364
43.7467
43.7467
43.747
43.7474
43.7479
43.7485
43.7478
43.7439
43.7374
43.7304
43.7305
43.7335
43.7355
43.7366
43.7372
43.7375
43.7374
43.7373
43.737
43.7369
43.7367
43.7367
43.7453
43.7453
43.7456
43.7459
43.7461
43.7462
43.7455
43.7435
43.7401
43.7386
43.7392
43.7384
43.738
43.738
43.738
43.7379
43.7378
43.7376
43.7374
43.7373
43.7371
43.7371
43.7443
43.7443
43.7445
43.7447
43.7448
43.7448
43.7446
43.7443
43.7446
43.7452
43.7431
43.7409
43.7397
43.739
43.7386
43.7384
43.7381
43.7379
43.7378
43.7377
43.7375
43.7375
43.7434
43.7434
43.7436
43.7438
43.7438
43.7438
43.7438
43.744
43.7443
43.7441
43.7429
43.7415
43.7403
43.7396
43.7391
43.7388
43.7385
43.7383
43.7381
43.7381
43.7379
43.7379
43.7428
43.7428
43.743
43.743
43.7431
43.7431
43.7431
43.7431
43.7432
43.7429
43.7422
43.7413
43.7405
43.7399
43.7394
43.7391
43.7388
43.7386
43.7385
43.7384
43.7383
43.7383
43.7423
43.7423
43.7424
43.7425
43.7425
43.7425
43.7424
43.7424
43.7423
43.7421
43.7417
43.7411
43.7405
43.74
43.7396
43.7393
43.7391
43.7389
43.7388
43.7387
43.7386
43.7386
43.7419
43.7419
43.7421
43.7421
43.742
43.742
43.7419
43.7418
43.7417
43.7415
43.7413
43.7409
43.7405
43.7401
43.7398
43.7395
43.7393
43.7391
43.739
43.739
43.7389
43.7389
43.7417
43.7417
43.7418
43.7417
43.7416
43.7415
43.7414
43.7413
43.7412
43.7411
43.741
43.7408
43.7405
43.7402
43.7399
43.7397
43.7395
43.7393
43.7393
43.7393
43.7392
43.7392
0
43.7417
43.7418
43.7417
43.7416
43.7415
43.7414
43.7413
43.7412
43.7411
43.741
43.7408
43.7405
43.7402
43.7399
43.7397
43.7395
43.7393
43.7393
43.7393
43.7392
0
0
43.7722
43.7706
43.7803
43.8129
43.7257
43.6432
43.7125
43.7388
43.7444
43.7441
43.7427
43.7414
43.7404
43.7392
43.738
43.7368
43.7356
43.7343
43.7326
43.7315
0
43.7722
43.7722
43.7706
43.7803
43.8129
43.7257
43.6432
43.7125
43.7388
43.7444
43.7441
43.7427
43.7414
43.7404
43.7392
43.738
43.7368
43.7356
43.7343
43.7326
43.7315
43.7315
43.7646
43.7646
43.7654
43.7702
43.7882
43.7471
43.6669
43.695
43.7277
43.7403
43.7427
43.7423
43.7415
43.7406
43.7394
43.7381
43.7369
43.7358
43.7348
43.7336
43.7328
43.7328
43.7595
43.7595
43.7603
43.7627
43.7688
43.7593
43.6908
43.6921
43.7189
43.7327
43.7383
43.7403
43.7408
43.7402
43.739
43.7378
43.7369
43.7362
43.7354
43.7347
43.7342
43.7342
43.7559
43.7559
43.7568
43.7594
43.767
43.7845
43.7301
43.7132
43.7164
43.7216
43.7309
43.7371
43.7389
43.7387
43.7379
43.7373
43.7369
43.7364
43.736
43.7355
43.7351
43.7351
43.753
43.753
43.7539
43.7562
43.7624
43.7781
43.739
43.7168
43.7081
43.7138
43.7298
43.7363
43.7366
43.7364
43.7367
43.7369
43.7369
43.7367
43.7364
43.7361
43.7358
43.7358
43.7507
43.7507
43.7514
43.7527
43.755
43.7577
43.7466
43.7439
43.7277
43.7287
43.7376
43.7359
43.7332
43.7344
43.736
43.7368
43.737
43.7369
43.7367
43.7365
43.7362
43.7362
43.7488
43.7488
43.7493
43.7502
43.7519
43.7559
43.7652
43.7665
43.743
43.7319
43.7293
43.7281
43.7304
43.7341
43.7362
43.737
43.7372
43.7371
43.737
43.7369
43.7366
43.7366
43.7471
43.7471
43.7475
43.7481
43.7493
43.7518
43.7578
43.7517
43.7317
43.7216
43.7253
43.7287
43.7329
43.7358
43.737
43.7374
43.7375
43.7374
43.7373
43.7372
43.737
43.737
43.7457
43.7457
43.746
43.7464
43.7469
43.7478
43.7484
43.744
43.737
43.7376
43.7401
43.7382
43.7378
43.7378
43.7379
43.7379
43.7378
43.7377
43.7376
43.7376
43.7373
43.7373
43.7446
43.7446
43.7449
43.7451
43.7453
43.7456
43.7456
43.7455
43.7473
43.753
43.7488
43.7429
43.7401
43.7391
43.7387
43.7384
43.7382
43.7381
43.738
43.7379
43.7377
43.7377
43.7437
43.7437
43.744
43.7441
43.7442
43.7443
43.7444
43.7451
43.7476
43.7499
43.7463
43.7428
43.7408
43.7397
43.7392
43.7389
43.7386
43.7384
43.7383
43.7383
43.7381
43.7381
43.743
43.743
43.7432
43.7433
43.7434
43.7434
43.7435
43.7439
43.7448
43.7451
43.7436
43.742
43.7408
43.74
43.7395
43.7392
43.7389
43.7387
43.7386
43.7386
43.7384
43.7384
43.7425
43.7425
43.7427
43.7427
43.7427
43.7427
43.7427
43.7428
43.743
43.7429
43.7422
43.7414
43.7407
43.7402
43.7398
43.7394
43.7392
43.739
43.7389
43.7389
43.7387
43.7387
43.7421
43.7421
43.7423
43.7423
43.7422
43.7422
43.7421
43.7421
43.742
43.7419
43.7415
43.7411
43.7406
43.7402
43.7399
43.7396
43.7394
43.7393
43.7392
43.7392
43.739
43.739
43.742
43.742
43.742
43.7419
43.7418
43.7417
43.7416
43.7415
43.7414
43.7413
43.7411
43.7409
43.7406
43.7403
43.74
43.7398
43.7396
43.7395
43.7394
43.7394
43.7393
43.7393
0
43.742
43.742
43.7419
43.7418
43.7417
43.7416
43.7415
43.7414
43.7413
43.7411
43.7409
43.7406
43.7403
43.74
43.7398
43.7396
43.7395
43.7394
43.7394
43.7393
0
0
43.7706
43.767
43.7678
43.764
43.7063
43.6908
43.7175
43.7334
43.7391
43.7404
43.7402
43.7397
43.7392
43.7386
43.7378
43.7368
43.7356
43.7342
43.7325
43.7314
0
43.7706
43.7706
43.767
43.7678
43.764
43.7063
43.6908
43.7175
43.7334
43.7391
43.7404
43.7402
43.7397
43.7392
43.7386
43.7378
43.7368
43.7356
43.7342
43.7325
43.7314
43.7314
43.7634
43.7634
43.7628
43.7628
43.759
43.729
43.6991
43.7112
43.7278
43.7364
43.7393
43.7397
43.7394
43.7391
43.7385
43.7377
43.7368
43.7358
43.7347
43.7335
43.7327
43.7327
43.7586
43.7586
43.7587
43.7588
43.7571
43.7433
43.7153
43.7128
43.7233
43.7321
43.7366
43.7382
43.7388
43.7388
43.7383
43.7376
43.7368
43.7361
43.7353
43.7346
43.734
43.734
43.7553
43.7553
43.7557
43.7565
43.7576
43.7541
43.7345
43.7231
43.7229
43.7282
43.7332
43.7362
43.7377
43.738
43.7377
43.7373
43.7369
43.7364
43.7359
43.7355
43.735
43.735
43.7526
43.7526
43.7532
43.7541
43.7556
43.7555
43.7413
43.7273
43.7226
43.7262
43.732
43.7352
43.7364
43.7369
43.737
43.7371
43.7369
43.7366
43.7363
43.7361
43.7357
43.7357
43.7505
43.7505
43.7509
43.7516
43.7525
43.7524
43.7455
43.7364
43.7323
43.7331
43.7345
43.7348
43.735
43.7358
43.7366
43.737
43.737
43.7369
43.7367
43.7366
43.7363
43.7363
43.7486
43.7486
43.749
43.7496
43.7504
43.7515
43.7512
43.7481
43.7403
43.7347
43.7324
43.7324
43.7339
43.7357
43.7367
43.7371
43.7372
43.7372
43.7371
43.737
43.7367
43.7367
43.7471
43.7471
43.7474
43.7478
43.7484
43.7492
43.7496
43.7461
43.7386
43.7323
43.731
43.733
43.7353
43.7366
43.7373
43.7375
43.7376
43.7375
43.7374
43.7374
43.7371
43.7371
43.7458
43.7458
43.7461
43.7463
43.7466
43.7469
43.7466
43.7445
43.7406
43.7373
43.7377
43.738
43.7379
43.738
43.738
43.738
43.7379
43.7378
43.7378
43.7377
43.7375
43.7375
43.7447
43.7447
43.745
43.7451
43.7452
43.7453
43.7452
43.7446
43.7441
43.7442
43.7429
43.741
43.7397
43.7391
43.7387
43.7385
43.7383
43.7382
43.7381
43.7381
43.7379
43.7379
43.7439
43.7439
43.7441
43.7442
43.7442
43.7442
43.7442
43.7443
43.7447
43.7448
43.7434
43.7417
43.7405
43.7397
43.7392
43.7389
43.7387
43.7385
43.7384
43.7384
43.7382
43.7382
43.7432
43.7432
43.7434
43.7435
43.7435
43.7435
43.7435
43.7435
43.7437
43.7436
43.7427
43.7416
43.7407
43.74
43.7396
43.7393
43.739
43.7389
43.7388
43.7387
43.7385
43.7385
43.7427
43.7427
43.7429
43.7429
43.7429
43.7428
43.7428
43.7428
43.7428
43.7426
43.742
43.7413
43.7407
43.7402
43.7398
43.7395
43.7393
43.7391
43.739
43.739
43.7389
43.7389
43.7423
43.7423
43.7425
43.7424
43.7424
43.7423
43.7422
43.7422
43.7421
43.7419
43.7415
43.7411
43.7407
43.7403
43.74
43.7397
43.7395
43.7394
43.7393
43.7393
43.7391
43.7391
43.7422
43.7422
43.7422
43.7421
43.742
43.7419
43.7418
43.7417
43.7416
43.7414
43.7412
43.741
43.7407
43.7404
43.7401
43.7399
43.7397
43.7396
43.7395
43.7395
43.7394
43.7394
0
43.7422
43.7422