# vtk DataFile Version 3.0
FlowField
ASCII
DATASET STRUCTURED_GRID
DIMENSIONS 22 17 12 
POINTS 4488 double
0 0 0
0.1 0 0
0.2 0 0
0.3 0 0
0.4 0 0
0.5 0 0
0.6 0 0
0.7 0 0
0.8 0 0
0.9 0 0
1 0 0
1.1 0 0
1.2 0 0
1.3 0 0
1.4 0 0
1.5 0 0
1.6 0 0
1.7 0 0
1.8 0 0
1.9 0 0
2 0 0
2.1 0 0
0 0.1 0
0.1 0.1 0
0.2 0.1 0
0.3 0.1 0
0.4 0.1 0
0.5 0.1 0
0.6 0.1 0
0.7 0.1 0
0.8 0.1 0
0.9 0.1 0
1 0.1 0
1.1 0.1 0
1.2 0.1 0
1.3 0.1 0
1.4 0.1 0
1.5 0.1 0
1.6 0.1 0
1.7 0.1 0
1.8 0.1 0
1.9 0.1 0
2 0.1 0
2.1 0.1 0
0 0.2 0
0.1 0.2 0
0.2 0.2 0
0.3 0.2 0
0.4 0.2 0
0.5 0.2 0
0.6 0.2 0
0.7 0.2 0
0.8 0.2 0
0.9 0.2 0
1 0.2 0
1.1 0.2 0
1.2 0.2 0
1.3 0.2 0
1.4 0.2 0
1.5 0.2 0
1.6 0.2 0
1.7 0.2 0
1.8 0.2 0
1.9 0.2 0
2 0.2 0
2.1 0.2 0
0 0.3 0
0.1 0.3 0
0.2 0.3 0
0.3 0.3 0
0.4 0.3 0
0.5 0.3 0
0.6 0.3 0
0.7 0.3 0
0.8 0.3 0
0.9 0.3 0
1 0.3 0
1.1 0.3 0
1.2 0.3 0
1.3 0.3 0
1.4 0.3 0
1.5 0.3 0
1.6 0.3 0
1.7 0.3 0
1.8 0.3 0
1.9 0.3 0
2 0.3 0
2.1 0.3 0
0 0.4 0
0.1 0.4 0
0.2 0.4 0
0.3 0.4 0
0.4 0.4 0
0.5 0.4 0
0.6 0.4 0
0.7 0.4 0
0.8 0.4 0
0.9 0.4 0
1 0.4 0
1.1 0.4 0
1.2 0.4 0
1.3 0.4 0
1.4 0.4 0
1.5 0.4 0
1.6 0.4 0
1.7 0.4 0
1.8 0.4 0
1.9 0.4 0
2 0.4 0
2.1 0.4 0
0 0.5 0
0.1 0.5 0
0.2 0.5 0
0.3 0.5 0
0.4 0.5 0
0.5 0.5 0
0.6 0.5 0
0.7 0.5 0
0.8 0.5 0
0.9 0.5 0
1 0.5 0
1.1 0.5 0
1.2 0.5 0
1.3 0.5 0
1.4 0.5 0
1.5 0.5 0
1.6 0.5 0
1.7 0.5 0
1.8 0.5 0
1.9 0.5 0
2 0.5 0
2.1 0.5 0
0 0.6 0
0.1 0.6 0
0.2 0.6 0
0.3 0.6 0
0.4 0.6 0
0.5 0.6 0
0.6 0.6 0
0.7 0.6 0
0.8 0.6 0
0.9 0.6 0
1 0.6 0
1.1 0.6 0
1.2 0.6 0
1.3 0.6 0
1.4 0.6 0
1.5 0.6 0
1.6 0.6 0
1.7 0.6 0
1.8 0.6 0
1.9 0.6 0
2 0.6 0
2.1 0.6 0
0 0.7 0
0.1 0.7 0
0.2 0.7 0
0.3 0.7 0
0.4 0.7 0
0.5 0.7 0
0.6 0.7 0
0.7 0.7 0
0.8 0.7 0
0.9 0.7 0
1 0.7 0
1.1 0.7 0
1.2 0.7 0
1.3 0.7 0
1.4 0.7 0
1.5 0.7 0
1.6 0.7 0
1.7 0.7 0
1.8 0.7 0
1.9 0.7 0
2 0.7 0
2.1 0.7 0
0 0.8 0
0.1 0.8 0
0.2 0.8 0
0.3 0.8 0
0.4 0.8 0
0.5 0.8 0
0.6 0.8 0
0.7 0.8 0
0.8 0.8 0
0.9 0.8 0
1 0.8 0
1.1 0.8 0
1.2 0.8 0
1.3 0.8 0
1.4 0.8 0
1.5 0.8 0
1.6 0.8 0
1.7 0.8 0
1.8 0.8 0
1.9 0.8 0
2 0.8 0
2.1 0.8 0
0 0.9 0
0.1 0.9 0
0.2 0.9 0
0.3 0.9 0
0.4 0.9 0
0.5 0.9 0
0.6 0.9 0
0.7 0.9 0
0.8 0.9 0
0.9 0.9 0
1 0.9 0
1.1 0.9 0
1.2 0.9 0
1.3 0.9 0
1.4 0.9 0
1.5 0.9 0
1.6 0.9 0
1.7 0.9 0
1.8 0.9 0
1.9 0.9 0
2 0.9 0
2.1 0.9 0
0 1 0
0.1 1 0
0.2 1 0
0.3 1 0
0.4 1 0
0.5 1 0
0.6 1 0
0.7 1 0
0.8 1 0
0.9 1 0
1 1 0
1.1 1 0
1.2 1 0
1.3 1 0
1.4 1 0
1.5 1 0
1.6 1 0
1.7 1 0
1.8 1 0
1.9 1 0
2 1 0
2.1 1 0
0 1.1 0
0.1 1.1 0
0.2 1.1 0
0.3 1.1 0
0.4 1.1 0
0.5 1.1 0
0.6 1.1 0
0.7 1.1 0
0.8 1.1 0
0.9 1.1 0
1 1.1 0
1.1 1.1 0
1.2 1.1 0
1.3 1.1 0
1.4 1.1 0
1.5 1.1 0
1.6 1.1 0
1.7 1.1 0
1.8 1.1 0
1.9 1.1 0
2 1.1 0
2.1 1.1 0
0 1.2 0
0.1 1.2 0
0.2 1.2 0
0.3 1.2 0
0.4 1.2 0
0.5 1.2 0
0.6 1.2 0
0.7 1.2 0
0.8 1.2 0
0.9 1.2 0
1 1.2 0
1.1 1.2 0
1.2 1.2 0
1.3 1.2 0
1.4 1.2 0
1.5 1.2 0
1.6 1.2 0
1.7 1.2 0
1.8 1.2 0
1.9 1.2 0
2 1.2 0
2.1 1.2 0
0 1.3 0
0.1 1.3 0
0.2 1.3 0
0.3 1.3 0
0.4 1.3 0
0.5 1.3 0
0.6 1.3 0
0.7 1.3 0
0.8 1.3 0
0.9 1.3 0
1 1.3 0
1.1 1.3 0
1.2 1.3 0
1.3 1.3 0
1.4 1.3 0
1.5 1.3 0
1.6 1.3 0
1.7 1.3 0
1.8 1.3 0
1.9 1.3 0
2 1.3 0
2.1 1.3 0
0 1.4 0
0.1 1.4 0
0.2 1.4 0
0.3 1.4 0
0.4 1.4 0
0.5 1.4 0
0.6 1.4 0
0.7 1.4 0
0.8 1.4 0
0.9 1.4 0
1 1.4 0
1.1 1.4 0
1.2 1.4 0
1.3 1.4 0
1.4 1.4 0
1.5 1.4 0
1.6 1.4 0
1.7 1.4 0
1.8 1.4 0
1.9 1.4 0
2 1.4 0
2.1 1.4 0
0 1.5 0
0.1 1.5 0
0.2 1.5 0
0.3 1.5 0
0.4 1.5 0
0.5 1.5 0
0.6 1.5 0
0.7 1.5 0
0.8 1.5 0
0.9 1.5 0
1 1.5 0
1.1 1.5 0
1.2 1.5 0
1.3 1.5 0
1.4 1.5 0
1.5 1.5 0
1.6 1.5 0
1.7 1.5 0
1.8 1.5 0
1.9 1.5 0
2 1.5 0
2.1 1.5 0
0 1.6 0
0.1 1.6 0
0.2 1.6 0
0.3 1.6 0
0.4 1.6 0
0.5 1.6 0
0.6 1.6 0
0.7 1.6 0
0.8 1.6 0
0.9 1.6 0
1 1.6 0
1.1 1.6 0
1.2 1.6 0
1.3 1.6 0
1.4 1.6 0
1.5 1.6 0
1.6 1.6 0
1.7 1.6 0
1.8 1.6 0
1.9 1.6 0
2 1.6 0
2.1 1.6 0
0 0 0.1
0.1 0 0.1
0.2 0 0.1
0.3 0 0.1
0.4 0 0.1
0.5 0 0.1
0.6 0 0.1
0.7 0 0.1
0.8 0 0.1
0.9 0 0.1
1 0 0.1
1.1 0 0.1
1.2 0 0.1
1.3 0 0.1
1.4 0 0.1
1.5 0 0.1
1.6 0 0.1
1.7 0 0.1
1.8 0 0.1
1.9 0 0.1
2 0 0.1
2.1 0 0.1
0 0.1 0.1
0.1 0.1 0.1
0.2 0.1 0.1
0.3 0.1 0.1
0.4 0.1 0.1
0.5 0.1 0.1
0.6 0.1 0.1
0.7 0.1 0.1
0.8 0.1 0.1
0.9 0.1 0.1
1 0.1 0.1
1.1 0.1 0.1
1.2 0.1 0.1
1.3 0.1 0.1
1.4 0.1 0.1
1.5 0.1 0.1
1.6 0.1 0.1
1.7 0.1 0.1
1.8 0.1 0.1
1.9 0.1 0.1
2 0.1 0.1
2.1 0.1 0.1
0 0.2 0.1
0.1 0.2 0.1
0.2 0.2 0.1
0.3 0.2 0.1
0.4 0.2 0.1
0.5 0.2 0.1
0.6 0.2 0.1
0.7 0.2 0.1
0.8 0.2 0.1
0.9 0.2 0.1
1 0.2 0.1
1.1 0.2 0.1
1.2 0.2 0.1
1.3 0.2 0.1
1.4 0.2 0.1
1.5 0.2 0.1
1.6 0.2 0.1
1.7 0.2 0.1
1.8 0.2 0.1
1.9 0.2 0.1
2 0.2 0.1
2.1 0.2 0.1
0 0.3 0.1
0.1 0.3 0.1
0.2 0.3 0.1
0.3 0.3 0.1
0.4 0.3 0.1
0.5 0.3 0.1
0.6 0.3 0.1
0.7 0.3 0.1
0.8 0.3 0.1
0.9 0.3 0.1
1 0.3 0.1
1.1 0.3 0.1
1.2 0.3 0.1
1.3 0.3 0.1
1.4 0.3 0.1
1.5 0.3 0.1
1.6 0.3 0.1
1.7 0.3 0.1
1.8 0.3 0.1
1.9 0.3 0.1
2 0.3 0.1
2.1 0.3 0.1
0 0.4 0.1
0.1 0.4 0.1
0.2 0.4 0.1
0.3 0.4 0.1
0.4 0.4 0.1
0.5 0.4 0.1
0.6 0.4 0.1
0.7 0.4 0.1
0.8 0.4 0.1
0.9 0.4 0.1
1 0.4 0.1
1.1 0.4 0.1
1.2 0.4 0.1
1.3 0.4 0.1
1.4 0.4 0.1
1.5 0.4 0.1
1.6 0.4 0.1
1.7 0.4 0.1
1.8 0.4 0.1
1.9 0.4 0.1
2 0.4 0.1
2.1 0.4 0.1
0 0.5 0.1
0.1 0.5 0.1
0.2 0.5 0.1
0.3 0.5 0.1
0.4 0.5 0.1
0.5 0.5 0.1
0.6 0.5 0.1
0.7 0.5 0.1
0.8 0.5 0.1
0.9 0.5 0.1
1 0.5 0.1
1.1 0.5 0.1
1.2 0.5 0.1
1.3 0.5 0.1
1.4 0.5 0.1
1.5 0.5 0.1
1.6 0.5 0.1
1.7 0.5 0.1
1.8 0.5 0.1
1.9 0.5 0.1
2 0.5 0.1
2.1 0.5 0.1
0 0.6 0.1
0.1 0.6 0.1
0.2 0.6 0.1
0.3 0.6 0.1
0.4 0.6 0.1
0.5 0.6 0.1
0.6 0.6 0.1
0.7 0.6 0.1
0.8 0.6 0.1
0.9 0.6 0.1
1 0.6 0.1
1.1 0.6 0.1
1.2 0.6 0.1
1.3 0.6 0.1
1.4 0.6 0.1
1.5 0.6 0.1
1.6 0.6 0.1
1.7 0.6 0.1
1.8 0.6 0.1
1.9 0.6 0.1
2 0.6 0.1
2.1 0.6 0.1
0 0.7 0.1
0.1 0.7 0.1
0.2 0.7 0.1
0.3 0.7 0.1
0.4 0.7 0.1
0.5 0.7 0.1
0.6 0.7 0.1
0.7 0.7 0.1
0.8 0.7 0.1
0.9 0.7 0.1
1 0.7 0.1
1.1 0.7 0.1
1.2 0.7 0.1
1.3 0.7 0.1
1.4 0.7 0.1
1.5 0.7 0.1
1.6 0.7 0.1
1.7 0.7 0.1
1.8 0.7 0.1
1.9 0.7 0.1
2 0.7 0.1
2.1 0.7 0.1
0 0.8 0.1
0.1 0.8 0.1
0.2 0.8 0.1
0.3 0.8 0.1
0.4 0.8 0.1
0.5 0.8 0.1
0.6 0.8 0.1
0.7 0.8 0.1
0.8 0.8 0.1
0.9 0.8 0.1
1 0.8 0.1
1.1 0.8 0.1
1.2 0.8 0.1
1.3 0.8 0.1
1.4 0.8 0.1
1.5 0.8 0.1
1.6 0.8 0.1
1.7 0.8 0.1
1.8 0.8 0.1
1.9 0.8 0.1
2 0.8 0.1
2.1 0.8 0.1
0 0.9 0.1
0.1 0.9 0.1
0.2 0.9 0.1
0.3 0.9 0.1
0.4 0.9 0.1
0.5 0.9 0.1
0.6 0.9 0.1
0.7 0.9 0.1
0.8 0.9 0.1
0.9 0.9 0.1
1 0.9 0.1
1.1 0.9 0.1
1.2 0.9 0.1
1.3 0.9 0.1
1.4 0.9 0.1
1.5 0.9 0.1
1.6 0.9 0.1
1.7 0.9 0.1
1.8 0.9 0.1
1.9 0.9 0.1
2 0.9 0.1
2.1 0.9 0.1
0 1 0.1
0.1 1 0.1
0.2 1 0.1
0.3 1 0.1
0.4 1 0.1
0.5 1 0.1
0.6 1 0.1
0.7 1 0.1
0.8 1 0.1
0.9 1 0.1
1 1 0.1
1.1 1 0.1
1.2 1 0.1
1.3 1 0.1
1.4 1 0.1
1.5 1 0.1
1.6 1 0.1
1.7 1 0.1
1.8 1 0.1
1.9 1 0.1
2 1 0.1
2.1 1 0.1
0 1.1 0.1
0.1 1.1 0.1
0.2 1.1 0.1
0.3 1.1 0.1
0.4 1.1 0.1
0.5 1.1 0.1
0.6 1.1 0.1
0.7 1.1 0.1
0.8 1.1 0.1
0.9 1.1 0.1
1 1.1 0.1
1.1 1.1 0.1
1.2 1.1 0.1
1.3 1.1 0.1
1.4 1.1 0.1
1.5 1.1 0.1
1.6 1.1 0.1
1.7 1.1 0.1
1.8 1.1 0.1
1.9 1.1 0.1
2 1.1 0.1
2.1 1.1 0.1
0 1.2 0.1
0.1 1.2 0.1
0.2 1.2 0.1
0.3 1.2 0.1
0.4 1.2 0.1
0.5 1.2 0.1
0.6 1.2 0.1
0.7 1.2 0.1
0.8 1.2 0.1
0.9 1.2 0.1
1 1.2 0.1
1.1 1.2 0.1
1.2 1.2 0.1
1.3 1.2 0.1
1.4 1.2 0.1
1.5 1.2 0.1
1.6 1.2 0.1
1.7 1.2 0.1
1.8 1.2 0.1
1.9 1.2 0.1
2 1.2 0.1
2.1 1.2 0.1
0 1.3 0.1
0.1 1.3 0.1
0.2 1.3 0.1
0.3 1.3 0.1
0.4 1.3 0.1
0.5 1.3 0.1
0.6 1.3 0.1
0.7 1.3 0.1
0.8 1.3 0.1
0.9 1.3 0.1
1 1.3 0.1
1.1 1.3 0.1
1.2 1.3 0.1
1.3 1.3 0.1
1.4 1.3 0.1
1.5 1.3 0.1
1.6 1.3 0.1
1.7 1.3 0.1
1.8 1.3 0.1
1.9 1.3 0.1
2 1.3 0.1
2.1 1.3 0.1
0 1.4 0.1
0.1 1.4 0.1
0.2 1.4 0.1
0.3 1.4 0.1
0.4 1.4 0.1
0.5 1.4 0.1
0.6 1.4 0.1
0.7 1.4 0.1
0.8 1.4 0.1
0.9 1.4 0.1
1 1.4 0.1
1.1 1.4 0.1
1.2 1.4 0.1
1.3 1.4 0.1
1.4 1.4 0.1
1.5 1.4 0.1
1.6 1.4 0.1
1.7 1.4 0.1
1.8 1.4 0.1
1.9 1.4 0.1
2 1.4 0.1
2.1 1.4 0.1
0 1.5 0.1
0.1 1.5 0.1
0.2 1.5 0.1
0.3 1.5 0.1
0.4 1.5 0.1
0.5 1.5 0.1
0.6 1.5 0.1
0.7 1.5 0.1
0.8 1.5 0.1
0.9 1.5 0.1
1 1.5 0.1
1.1 1.5 0.1
1.2 1.5 0.1
1.3 1.5 0.1
1.4 1.5 0.1
1.5 1.5 0.1
1.6 1.5 0.1
1.7 1.5 0.1
1.8 1.5 0.1
1.9 1.5 0.1
2 1.5 0.1
2.1 1.5 0.1
0 1.6 0.1
0.1 1.6 0.1
0.2 1.6 0.1
0.3 1.6 0.1
0.4 1.6 0.1
0.5 1.6 0.1
0.6 1.6 0.1
0.7 1.6 0.1
0.8 1.6 0.1
0.9 1.6 0.1
1 1.6 0.1
1.1 1.6 0.1
1.2 1.6 0.1
1.3 1.6 0.1
1.4 1.6 0.1
1.5 1.6 0.1
1.6 1.6 0.1
1.7 1.6 0.1
1.8 1.6 0.1
1.9 1.6 0.1
2 1.6 0.1
2.1 1.6 0.1
0 0 0.2
0.1 0 0.2
0.2 0 0.2
0.3 0 0.2
0.4 0 0.2
0.5 0 0.2
0.6 0 0.2
0.7 0 0.2
0.8 0 0.2
0.9 0 0.2
1 0 0.2
1.1 0 0.2
1.2 0 0.2
1.3 0 0.2
1.4 0 0.2
1.5 0 0.2
1.6 0 0.2
1.7 0 0.2
1.8 0 0.2
1.9 0 0.2
2 0 0.2
2.1 0 0.2
0 0.1 0.2
0.1 0.1 0.2
0.2 0.1 0.2
0.3 0.1 0.2
0.4 0.1 0.2
0.5 0.1 0.2
0.6 0.1 0.2
0.7 0.1 0.2
0.8 0.1 0.2
0.9 0.1 0.2
1 0.1 0.2
1.1 0.1 0.2
1.2 0.1 0.2
1.3 0.1 0.2
1.4 0.1 0.2
1.5 0.1 0.2
1.6 0.1 0.2
1.7 0.1 0.2
1.8 0.1 0.2
1.9 0.1 0.2
2 0.1 0.2
2.1 0.1 0.2
0 0.2 0.2
0.1 0.2 0.2
0.2 0.2 0.2
0.3 0.2 0.2
0.4 0.2 0.2
0.5 0.2 0.2
0.6 0.2 0.2
0.7 0.2 0.2
0.8 0.2 0.2
0.9 0.2 0.2
1 0.2 0.2
1.1 0.2 0.2
1.2 0.2 0.2
1.3 0.2 0.2
1.4 0.2 0.2
1.5 0.2 0.2
1.6 0.2 0.2
1.7 0.2 0.2
1.8 0.2 0.2
1.9 0.2 0.2
2 0.2 0.2
2.1 0.2 0.2
0 0.3 0.2
0.1 0.3 0.2
0.2 0.3 0.2
0.3 0.3 0.2
0.4 0.3 0.2
0.5 0.3 0.2
0.6 0.3 0.2
0.7 0.3 0.2
0.8 0.3 0.2
0.9 0.3 0.2
1 0.3 0.2
1.1 0.3 0.2
1.2 0.3 0.2
1.3 0.3 0.2
1.4 0.3 0.2
1.5 0.3 0.2
1.6 0.3 0.2
1.7 0.3 0.2
1.8 0.3 0.2
1.9 0.3 0.2
2 0.3 0.2
2.1 0.3 0.2
0 0.4 0.2
0.1 0.4 0.2
0.2 0.4 0.2
0.3 0.4 0.2
0.4 0.4 0.2
0.5 0.4 0.2
0.6 0.4 0.2
0.7 0.4 0.2
0.8 0.4 0.2
0.9 0.4 0.2
1 0.4 0.2
1.1 0.4 0.2
1.2 0.4 0.2
1.3 0.4 0.2
1.4 0.4 0.2
1.5 0.4 0.2
1.6 0.4 0.2
1.7 0.4 0.2
1.8 0.4 0.2
1.9 0.4 0.2
2 0.4 0.2
2.1 0.4 0.2
0 0.5 0.2
0.1 0.5 0.2
0.2 0.5 0.2
0.3 0.5 0.2
0.4 0.5 0.2
0.5 0.5 0.2
0.6 0.5 0.2
0.7 0.5 0.2
0.8 0.5 0.2
0.9 0.5 0.2
1 0.5 0.2
1.1 0.5 0.2
1.2 0.5 0.2
1.3 0.5 0.2
1.4 0.5 0.2
1.5 0.5 0.2
1.6 0.5 0.2
1.7 0.5 0.2
1.8 0.5 0.2
1.9 0.5 0.2
2 0.5 0.2
2.1 0.5 0.2
0 0.6 0.2
0.1 0.6 0.2
0.2 0.6 0.2
0.3 0.6 0.2
0.4 0.6 0.2
0.5 0.6 0.2
0.6 0.6 0.2
0.7 0.6 0.2
0.8 0.6 0.2
0.9 0.6 0.2
1 0.6 0.2
1.1 0.6 0.2
1.2 0.6 0.2
1.3 0.6 0.2
1.4 0.6 0.2
1.5 0.6 0.2
1.6 0.6 0.2
1.7 0.6 0.2
1.8 0.6 0.2
1.9 0.6 0.2
2 0.6 0.2
2.1 0.6 0.2
0 0.7 0.2
0.1 0.7 0.2
0.2 0.7 0.2
0.3 0.7 0.2
0.4 0.7 0.2
0.5 0.7 0.2
0.6 0.7 0.2
0.7 0.7 0.2
0.8 0.7 0.2
0.9 0.7 0.2
1 0.7 0.2
1.1 0.7 0.2
1.2 0.7 0.2
1.3 0.7 0.2
1.4 0.7 0.2
1.5 0.7 0.2
1.6 0.7 0.2
1.7 0.7 0.2
1.8 0.7 0.2
1.9 0.7 0.2
2 0.7 0.2
2.1 0.7 0.2
0 0.8 0.2
0.1 0.8 0.2
[...]
POINT_DATA 4488

SCALARS pressure double
LOOKUP_TABLE pressure
0
0
0
0
0
0
0
0
0
0
0
0
0
0
0
0
0
0
0
0
0
0
0
67.6579
67.6527
67.6496
67.6474
67.6455
67.6427
67.6419
67.6409
67.6399
67.639
67.6381
67.637
67.6371
67.6354
67.634
67.6352
67.635
67.6343
67.6334
67.6328
0
0
67.652
67.6507
67.6489
67.647
67.6447
67.6429
67.6417
67.6406
67.6396
67.6388
67.638
67.6375
67.637
67.6359
67.6348
67.6345
67.6355
67.6349
67.6343
67.6336
0
0
67.6488
67.6487
67.648
67.6466
67.6433
67.6425
67.6415
67.6405
67.6395
67.6385
67.6379
67.6382
67.6376
67.6368
67.6361
67.6357
67.6359
67.6357
67.6355
67.6348
0
0
67.6468
67.6469
67.6464
67.6451
67.6435
67.6419
67.6412
67.6404
67.6395
67.638
67.6369
67.6397
67.6384
67.6375
67.6369
67.6365
67.6365
67.6366
67.6365
67.6359
0
0
67.6453
67.6458
67.6456
67.6442
67.6437
67.6407
67.6408
67.6405
67.6399
67.6389
67.6381
67.6386
67.6386
67.638
67.6374
67.637
67.6372
67.6372
67.637
67.6368
0
0
67.6439
67.6443
67.6441
67.6433
67.6423
67.6414
67.6411
67.6409
67.6407
67.6393
67.6379
67.6379
67.639
67.6383
67.6377
67.6373
67.6378
67.6378
67.6375
67.6373
0
0
67.6428
67.6432
67.6431
67.6426
67.6412
67.6415
67.6412
67.6409
67.6404
67.6397
67.639
67.6386
67.6387
67.6384
67.6382
67.6378
67.638
67.6382
67.6383
67.6378
0
0
67.6419
67.6425
67.6426
67.6427
67.6433
67.642
67.6413
67.6409
67.6405
67.6401
67.6395
67.6391
67.6389
67.6388
67.6387
67.6385
67.6384
67.6389
67.6388
67.6385
0
0
67.641
67.6419
67.6421
67.6422
67.6422
67.6417
67.6413
67.6409
67.6406
67.6402
67.6398
67.6395
67.6393
67.6392
67.6391
67.6388
67.6387
67.6387
67.6388
67.6389
0
0
67.6395
67.6418
67.6417
67.6417
67.6417
67.6415
67.6412
67.6409
67.6406
67.6404
67.6401
67.6399
67.6397
67.6396
67.6394
67.639
67.6388
67.6388
67.6389
67.639
0
0
67.64
67.6409
67.6412
67.6413
67.6413
67.6412
67.6411
67.6409
67.6405
67.6404
67.6403
67.6401
67.6401
67.6401
67.64
67.6389
67.6388
67.6389
67.6391
67.6393
0
0
67.6399
67.6405
67.6408
67.6409
67.641
67.6409
67.6409
67.6408
67.6406
67.6405
67.6404
67.6403
67.6404
67.6407
67.6416
67.6379
67.6388
67.6391
67.6393
67.6397
0
0
67.6397
67.6402
67.6405
67.6406
67.6407
67.6407
67.6407
67.6406
67.6406
67.6405
67.6405
67.6404
67.6404
67.6409
67.6407
67.6396
67.6395
67.6396
67.6397
67.6398
0
0
67.6396
67.64
67.6402
67.6404
67.6404
67.6404
67.6405
67.6405
67.6405
67.6405
67.6406
67.6406
67.6406
67.6407
67.6406
67.6402
67.64
67.64
67.64
67.6402
0
0
67.6397
67.6399
67.64
67.6401
67.6402
67.6402
67.6402
67.6403
67.6404
67.6406
67.6407
67.6408
67.6408
67.6407
67.6407
67.6406
67.6404
67.6403
67.6405
67.6407
0
0
0
0
0
0
0
0
0
0
0
0
0
0
0
0
0
0
0
0
0
0
0
0
67.6579
67.6527
67.6496
67.6474
67.6455
67.6427
67.6419
67.6409
67.6399
67.639
67.6381
67.637
67.6371
67.6354
67.634
67.6352
67.635
67.6343
67.6334
67.6328
0
67.6579
67.6579
67.6527
67.6496
67.6474
67.6455
67.6427
67.6419
67.6409
67.6399
67.639
67.6381
67.637
67.6371
67.6354
67.634
67.6352
67.635
67.6343
67.6334
67.6328
67.6328
67.652
67.652
67.6507
67.6489
67.647
67.6447
67.6429
67.6417
67.6406
67.6396
67.6388
67.638
67.6375
67.637
67.6359
67.6348
67.6345
67.6355
67.6349
67.6343
67.6336
67.6336
67.6488
67.6488
67.6487
67.648
67.6466
67.6433
67.6425
67.6415
67.6405
67.6395
67.6385
67.6379
67.6382
67.6376
67.6368
67.6361
67.6357
67.6359
67.6357
67.6355
67.6348
67.6348
67.6468
67.6468
67.6469
67.6464
67.6451
67.6435
67.6419
67.6412
67.6404
67.6395
67.638
67.6369
67.6397
67.6384
67.6375
67.6369
67.6365
67.6365
67.6366
67.6365
67.6359
67.6359
67.6453
67.6453
67.6458
67.6456
67.6442
67.6437
67.6407
67.6408
67.6405
67.6399
67.6389
67.6381
67.6386
67.6386
67.638
67.6374
67.637
67.6372
67.6372
67.637
67.6368
67.6368
67.6439
67.6439
67.6443
67.6441
67.6433
67.6423
67.6414
67.6411
67.6409
67.6407
67.6393
67.6379
67.6379
67.639
67.6383
67.6377
67.6373
67.6378
67.6378
67.6375
67.6373
67.6373
67.6428
67.6428
67.6432
67.6431
67.6426
67.6412
67.6415
67.6412
67.6409
67.6404
67.6397
67.639
67.6386
67.6387
67.6384
67.6382
67.6378
67.638
67.6382
67.6383
67.6378
67.6378
67.6419
67.6419
67.6425
67.6426
67.6427
67.6433
67.642
67.6413
67.6409
67.6405
67.6401
67.6395
67.6391
67.6389
67.6388
67.6387
67.6385
67.6384
67.6389
67.6388
67.6385
67.6385
67.641
67.641
67.6419
67.6421
67.6422
67.6422
67.6417
67.6413
67.6409
67.6406
67.6402
67.6398
67.6395
67.6393
67.6392
67.6391
67.6388
67.6387
67.6387
67.6388
67.6389
67.6389
67.6395
67.6395
67.6418
67.6417
67.6417
67.6417
67.6415
67.6412
67.6409
67.6406
67.6404
67.6401
67.6399
67.6397
67.6396
67.6394
67.639
67.6388
67.6388
67.6389
67.639
67.639
67.64
67.64
67.6409
67.6412
67.6413
67.6413
67.6412
67.6411
67.6409
67.6405
67.6404
67.6403
67.6401
67.6401
67.6401
67.64
67.6389
67.6388
67.6389
67.6391
67.6393
67.6393
67.6399
67.6399
67.6405
67.6408
67.6409
67.641
67.6409
67.6409
67.6408
67.6406
67.6405
67.6404
67.6403
67.6404
67.6407
67.6416
67.6379
67.6388
67.6391
67.6393
67.6397
67.6397
67.6397
67.6397
67.6402
67.6405
67.6406
67.6407
67.6407
67.6407
67.6406
67.6406
67.6405
67.6405
67.6404
67.6404
67.6409
67.6407
67.6396
67.6395
67.6396
67.6397
67.6398
67.6398
67.6396
67.6396
67.64
67.6402
67.6404
67.6404
67.6404
67.6405
67.6405
67.6405
67.6405
67.6406
67.6406
67.6406
67.6407
67.6406
67.6402
67.64
67.64
67.64
67.6402
67.6402
67.6397
67.6397
67.6399
67.64
67.6401
67.6402
67.6402
67.6402
67.6403
67.6404
67.6406
67.6407
67.6408
67.6408
67.6407
67.6407
67.6406
67.6404
67.6403
67.6405
67.6407
67.6407
0
67.6397
67.6399
67.64
67.6401
67.6402
67.6402
67.6402
67.6403
67.6404
67.6406
67.6407
67.6408
67.6408
67.6407
67.6407
67.6406
67.6404
67.6403
67.6405
67.6407
0
0
67.6616
67.6562
67.6525
67.6479
67.6402
67.6359
67.6361
67.6376
67.6386
67.6389
67.6387
67.6381
67.6375
67.6364
67.6354
67.6351
67.6347
67.6342
67.6334
67.6329
0
67.6616
67.6616
67.6562
67.6525
67.6479
67.6402
67.6359
67.6361
67.6376
67.6386
67.6389
67.6387
67.6381
67.6375
67.6364
67.6354
67.6351
67.6347
67.6342
67.6334
67.6329
67.6329
67.6554
67.6554
67.6539
67.6517
67.6481
67.6423
67.6372
67.6361
67.6369
67.6378
67.6383
67.6382
67.6379
67.6374
67.6365
67.6356
67.6352
67.6351
67.6348
67.6343
67.6337
67.6337
67.6518
67.6518
67.6515
67.6502
67.6478
67.6436
67.639
67.6368
67.6367
67.6372
67.6376
67.6378
67.638
67.6376
67.637
67.6364
67.636
67.6358
67.6356
67.6355
67.6349
67.6349
67.6494
67.6494
67.6494
67.6487
67.6471
67.6442
67.6404
67.6378
67.6368
67.6369
67.637
67.6373
67.638
67.6378
67.6374
67.6369
67.6366
67.6365
67.6364
67.6364
67.6358
67.6358
67.6475
67.6475
67.6477
67.6474
67.6463
67.6446
67.6416
67.6392
67.6377
67.6371
67.637
67.6371
67.6376
67.6378
67.6376
67.6373
67.637
67.637
67.637
67.6369
67.6366
67.6366
67.6459
67.6459
67.6462
67.6461
67.6455
67.6444
67.6427
67.6407
67.639
67.638
67.6373
67.6371
67.6373
67.6377
67.6376
67.6375
67.6373
67.6374
67.6374
67.6374
67.6371
67.6371
67.6446
67.6446
67.6449
67.6449
67.6446
67.6439
67.643
67.6417
67.6404
67.6392
67.6382
67.6377
67.6375
67.6377
67.6378
67.6378
67.6377
67.6377
67.6378
67.6379
67.6375
67.6375
67.6434
67.6434
67.6438
67.644
67.644
67.6438
67.6432
67.6423
67.6413
67.6401
67.639
67.6383
67.638
67.638
67.6381
67.6381
67.638
67.6381
67.6382
67.6383
67.6381
67.6381
67.6425
67.6425
67.643
67.6432
67.6433
67.6432
67.6428
67.6423
67.6416
67.6407
67.6399
67.6393
67.6389
67.6386
67.6385
67.6383
67.6383
67.6383
67.6384
67.6386
67.6384
67.6384
67.6416
67.6416
67.6423
67.6425
67.6426
67.6426
67.6424
67.6421
67.6416
67.6411
67.6407
67.6402
67.6396
67.6391
67.6388
67.6386
67.6385
67.6385
67.6387
67.6388
67.6387
67.6387
67.6411
67.6411
67.6416
67.6419
67.642
67.642
67.6419
67.6418
67.6416
67.6413
67.641
67.6406
67.6401
67.6396
67.6394
67.6392
67.6389
67.6389
67.639
67.6392
67.6391
67.6391
67.6407
67.6407
67.6412
67.6414
67.6415
67.6415
67.6415
67.6414
67.6413
67.6412
67.641
67.6407
67.6405
67.6403
67.6402
67.6401
67.6393
67.6393
67.6394
67.6395
67.6395
67.6395
67.6404
67.6404
67.6408
67.641
67.6411
67.6411
67.6411
67.6411
67.6411
67.641
67.6409
67.6408
67.6407
67.6407
67.6407
67.6405
67.64
67.6398
67.6398
67.6399
67.6398
67.6398
67.6402
67.6402
67.6405
67.6406
67.6407
67.6408
67.6408
67.6408
67.6408
67.6408
67.6408
67.6409
67.6409
67.6408
67.6408
67.6407
67.6404
67.6402
67.6401
67.6402
67.6402
67.6402
67.6402
67.6402
67.6403
67.6403
67.6404
67.6404
67.6405
67.6405
67.6405
67.6406
67.6407
67.6408
67.6409
67.6409
67.6409
67.6408
67.6407
67.6405
67.6404
67.6405
67.6406
67.6406
0
67.6402
67.6403
67.6403
67.6404
67.6404
67.6405
67.6405
67.6405
67.6406
67.6407
67.6408
67.6409
67.6409
67.6409
67.6408
67.6407
67.6405
67.6404
67.6405
67.6406
0
0
67.6654
67.6604
67.6572
67.65
67.629
67.6221
67.628
67.6345
67.6382
67.6396
67.6397
67.6391
67.6383
67.6372
67.6361
67.6353
67.6347
67.6342
67.6335
67.6331
0
67.6654
67.6654
67.6604
67.6572
67.65
67.629
67.6221
67.628
67.6345
67.6382
67.6396
67.6397
67.6391
67.6383
67.6372
67.6361
67.6353
67.6347
67.6342
67.6335
67.6331
67.6331
67.6589
67.6589
67.6577
67.6558
67.6511
67.6387
67.6262
67.6272
67.6323
67.6362
67.6382
67.6388
67.6386
67.638
67.6371
67.6361
67.6355
67.6351
67.6347
67.6344
67.6338
67.6338
67.6548
67.6548
67.6546
67.6537
67.6511
67.6444
67.6328
67.6291
67.6313
67.6345
67.6368
67.6379
67.6382
67.6379
67.6373
67.6367
67.6362
67.6358
67.6356
67.6354
67.635
67.635
67.6518
67.6518
67.652
67.6516
67.6502
67.646
67.6375
67.6318
67.6312
67.6332
67.6352
67.6367
67.6375
67.6377
67.6375
67.6371
67.6367
67.6365
67.6363
67.6362
67.6359
67.6359
67.6496
67.6496
67.6499
67.6499
67.6494
67.6471
67.6418
67.6361
67.6332
67.633
67.6341
67.6355
67.6366
67.6371
67.6372
67.6371
67.637
67.6369
67.6368
67.6368
67.6365
67.6365
67.6477
67.6477
67.6481
67.6483
67.6483
67.6473
67.6446
67.6402
67.6363
67.6343
67.6343
67.6351
67.636
67.6366
67.637
67.6371
67.6372
67.6372
67.6372
67.6372
67.637
67.637
67.6461
67.6461
67.6465
67.6467
67.6468
67.6464
67.645
67.6425
67.6399
67.6376
67.6363
67.6357
67.6358
67.6363
67.637
67.6374
67.6375
67.6375
67.6375
67.6375
67.6373
67.6373
67.6447
67.6447
67.6451
67.6454
67.6456
67.6455
67.6449
67.644
67.6425
67.64
67.6376
67.6363
67.6362
67.6368
67.6373
67.6376
67.6377
67.6377
67.6377
67.6379
67.6376
67.6376
67.6436
67.6436
67.644
67.6443
67.6444
67.6445
67.6442
67.6437
67.6425
67.6407
67.639
67.6384
67.6381
67.6378
67.6376
67.6375
67.6376
67.6377
67.638
67.6382
67.638
67.638
67.6427
67.6427
67.6431
67.6433
67.6435
67.6435
67.6434
67.6431
67.6425
67.6418
67.6413
67.6406
67.6394
67.6384
67.6376
67.6374
67.6377
67.6381
67.6384
67.6386
67.6385
67.6385
67.6419
67.6419
67.6423
67.6425
67.6427
67.6428
67.6427
67.6426
67.6424
67.6421
67.6418
67.6411
67.64
67.6389
67.6383
67.6384
67.6386
67.6388
67.6389
67.6391
67.6389
67.6389
67.6414
67.6414
67.6417
67.6419
67.642
67.6421
67.6421
67.6421
67.642
67.6419
67.6416
67.6412
67.6406
67.6401
67.64
67.6399
67.6396
67.6394
67.6394
67.6395
67.6393
67.6393
67.6409
67.6409
67.6413
67.6414
67.6415
67.6416
67.6416
67.6416
67.6416
67.6415
67.6414
67.6413
67.6411
67.641
67.6409
67.6406
67.6402
67.64
67.6399
67.6399
67.6398
67.6398
67.6406
67.6406
67.6409
67.641
67.6411
67.6411
67.6411
67.6411
67.6411
67.6411
67.6412
67.6412
67.6411
67.6411
67.6411
67.6408
67.6406
67.6404
67.6402
67.6403
67.6401
67.6401
67.6405
67.6405
67.6406
67.6406
67.6407
67.6407
67.6407
67.6407
67.6407
67.6408
67.6409
67.641
67.6411
67.6411
67.641
67.6409
67.6407
67.6406
67.6405
67.6405
67.6405
67.6405
0
67.6405
67.6406
67.6406
67.6407
67.6407
67.6407
67.6407
67.6407
67.6408
67.6409
67.641
67.6411
67.6411
67.641
67.6409
67.6407
67.6406
67.6405
67.6405
67.6405
0
0
67.6692
67.6656
67.6661
67.6607
67.5926
67.5894
67.6176
67.6341
67.6401
67.6416
67.6413
67.6404
67.6392
67.6378
67.6365
67.6355
67.6348
67.6341
67.6334
67.6333
0
67.6692
67.6692
67.6656
67.6661
67.6607
67.5926
67.5894
67.6176
67.6341
67.6401
67.6416
67.6413
67.6404
67.6392
67.6378
67.6365
67.6355
67.6348
67.6341
67.6334
67.6333
67.6333
67.6621
67.6621
67.6619
67.6625
67.6606
67.6389
67.5985
67.6115
67.6281
67.6367
67.6398
67.6404
67.64
67.639
67.6378
67.6366
67.6357
67.6351
67.6347
67.6342
67.6342
67.6342
67.6574
67.6574
67.6578
67.6585
67.6587
67.6517
67.6197
67.6141
67.6236
67.6325
67.6372
67.639
67.6393
67.6389
67.6381
67.6372
67.6365
67.636
67.6356
67.6353
67.6354
67.6354
67.6539
67.6539
67.6545
67.6553
67.656
67.6521
67.6317
67.6181
67.6203
67.6277
67.6333
67.6365
67.6379
67.6382
67.638
67.6375
67.637
67.6366
67.6363
67.6361
67.6363
67.6363
67.6513
67.6513
67.6519
67.6529
67.6542
67.6528
67.6429
67.63
67.6246
67.6259
67.6295
67.6333
67.6358
67.637
67.6372
67.6371
67.637
67.6368
67.6367
67.6366
67.6368
67.6368
67.6491
67.6491
67.6498
67.6507
67.6522
67.6528
67.6501
67.6405
67.6309
67.627
67.6284
67.6321
67.6344
67.6355
67.6363
67.6368
67.637
67.637
67.6369
67.6368
67.637
67.637
67.6473
67.6473
67.6479
67.6485
67.6494
67.6495
67.6478
67.6439
67.6396
67.6355
67.6337
67.6331
67.633
67.6342
67.6359
67.6371
67.6375
67.6373
67.6371
67.6371
67.6371
67.6371
67.6457
67.6457
67.6462
67.6467
67.6472
67.6475
67.6475
67.6476
67.6464
67.6406
67.6347
67.6316
67.6327
67.6348
67.6367
67.6376
67.6376
67.6372
67.6373
67.6375
67.6373
67.6373
67.6444
67.6444
67.6449
67.6452
67.6456
67.6459
67.6461
67.6458
67.6437
67.64
67.6362
67.6372
67.6372
67.637
67.6369
67.6365
67.6365
67.637
67.6375
67.6379
67.6377
67.6377
67.6434
67.6434
67.6438
67.6441
67.6443
67.6445
67.6446
67.6443
67.6436
67.6428
67.6435
67.6423
67.6394
67.6372
67.6349
67.6348
67.6363
67.6374
67.638
67.6384
67.6382
67.6382
67.6425
67.6425
67.6429
67.6431
67.6433
67.6434
67.6435
67.6435
67.6435
67.6436
67.6435
67.6419
67.6397
67.637
67.6357
67.6371
67.6381
67.6385
67.6388
67.639
67.6388
67.6388
67.6419
67.6419
67.6422
67.6424
67.6425
67.6426
67.6427
67.6427
67.6427
67.6427
67.6425
67.6419
67.6408
67.6401
67.6404
67.6402
67.6398
67.6395
67.6395
67.6395
67.6393
67.6393
67.6414
67.6414
67.6417
67.6418
67.6419
67.642
67.642
67.642
67.642
67.642
67.642
67.6418
67.6417
67.6419
67.6418
67.6412
67.6406
67.6402
67.64
67.64
67.6397
67.6397
67.641
67.641
67.6413
67.6413
67.6414
67.6414
67.6414
67.6414
67.6415
67.6415
67.6415
67.6415
67.6416
67.6416
67.6415
67.6412
67.6408
67.6405
67.6403
67.6403
67.6401
67.6401
67.6409
67.6409
67.641
67.6409
67.6409
67.6409
67.6409
67.6409
67.6409
67.6409
67.641
67.6411
67.6412
67.6413
67.6413
67.6411
67.6409
67.6407
67.6405
67.6405
67.6404
67.6404
0
67.6409
67.641
67.6409
67.6409
67.6409
67.6409
67.6409
67.6409
67.6409
67.641
67.6411
67.6412
67.6413
67.6413
67.6411
67.6409
67.6407
67.6405
67.6405
67.6404
0
0
67.6714
67.6699
67.6794
67.71
67.6208
67.5412
67.6119
67.6389
67.6445
67.6443
67.643
67.6414
67.6398
67.6382
67.6368
67.6357
67.6349
67.6342
67.6334
67.6335
0
67.6714
67.6714
67.6699
67.6794
67.71
67.6208
67.5412
67.6119
67.6389
67.6445
67.6443
67.643
67.6414
67.6398
67.6382
67.6368
67.6357
67.6349
67.6342
67.6334
67.6335
67.6335
67.6639
67.6639
67.6649
67.6702
67.6898
67.65
67.568
67.599
67.629
67.6406
67.6432
67.6428
67.6416
67.6401
67.6386
67.6372
67.6361
67.6354
67.6348
67.6341
67.6349
67.6349
67.6588
67.6588
67.6598
67.6626
67.6719
67.6705
67.6002
67.5976
67.6169
67.6324
67.6394
67.6412
67.641
67.6401
67.639
67.6378
67.6369
67.6363
67.6358
67.6353
67.6362
67.6362
67.655
67.655
67.656
67.658
67.663
67.6736
67.6236
67.6026
67.6071
67.6235
67.6332
67.6375
67.6391
67.6393
67.6388
67.638
67.6374
67.6369
67.6365
67.636
67.637
67.637
67.6522
67.6522
67.6531
67.6552
67.6596
67.671
67.6481
67.621
67.6136
67.6205
67.6259
67.6316
67.6362
67.6377
67.6376
67.6373
67.6371
67.637
67.6367
67.6362
67.6373
67.6373
67.6499
67.6499
67.6508
67.6525
67.6566
67.6666
67.6657
67.64
67.624
67.6206
67.6205
67.6292
67.6343
67.6352
67.6355
67.6363
67.6371
67.6371
67.6367
67.6363
67.6372
67.6372
67.648
67.648
67.6487
67.6498
67.6519
67.6561
67.6576
67.6449
67.6404
67.6338
67.6283
67.6319
67.6323
67.6316
67.6342
67.6372
67.6382
67.6374
67.6367
67.6365
67.6371
67.6371
67.6463
67.6463
67.6469
67.6475
67.6486
67.6501
67.6516
67.6541
67.6574
67.6429
67.6294
67.627
67.6294
67.6313
67.6359
67.6387
67.6383
67.637
67.6367
67.637
67.637
67.637
67.645
67.645
67.6454
67.6458
67.6464
67.6472
67.6486
67.6516
67.6508
67.6373
67.6307
67.6378
67.636
67.6357
67.6365
67.6359
67.6359
67.6361
67.6369
67.6376
67.6374
67.6374
67.6439
67.6439
67.6442
67.6445
67.6449
67.6453
67.6459
67.6467
67.6453
67.6431
67.6471
67.6493
67.641
67.6351
67.632
67.6323
67.6349
67.6366
67.6377
67.6383
67.638
67.638
67.643
67.643
67.6433
67.6435
67.6437
67.6439
67.6442
67.6444
67.6445
67.6458
67.6499
67.6462
67.6392
67.634
67.6329
67.6358
67.6377
67.6384
67.6388
67.639
67.6387
67.6387
67.6423
67.6423
67.6426
67.6428
67.6429
67.643
67.6431
67.6432
67.6435
67.6443
67.645
67.6431
67.6407
67.6398
67.6414
67.6418
67.6407
67.6399
67.6396
67.6395
67.6392
67.6392
67.6417
67.6417
67.642
67.6421
67.6422
67.6423
67.6423
67.6424
67.6425
67.6427
67.6428
67.6423
67.6423
67.6437
67.6448
67.6431
67.6414
67.6404
67.6401
67.64
67.6397
67.6397
67.6413
67.6413
67.6416
67.6416
67.6417
67.6417
67.6417
67.6417
67.6417
67.6418
67.6418
67.6418
67.6421
67.6431
67.6431
67.6421
67.6412
67.6406
67.6404
67.6403
67.64
67.64
67.6412
67.6412
67.6413
67.6412
67.6412
67.6412
67.6411
67.6411
67.6411
67.6411
67.6411
67.6412
67.6414
67.6417
67.6417
67.6413
67.641
67.6407
67.6405
67.6404
67.6403
67.6403
0
67.6412
67.6413
67.6412
67.6412
67.6412
67.6411
67.6411
67.6411
67.6411
67.6411
67.6412
67.6414
67.6417
67.6417
67.6413
67.641
67.6407
67.6405
67.6404
67.6403
0
0
67.67
67.6665
67.6674
67.6632
67.6054
67.5907
67.6176
67.6337
67.6396
67.6412
67.641
67.6401
67.6388
67.6375
67.6361
67.6351
67.6344
67.6338
67.6332
67.6331
0
67.67
67.67
67.6665
67.6674
67.6632
67.6054
67.5907
67.6176
67.6337
67.6396
67.6412
67.641
67.6401
67.6388
67.6375
67.6361
67.6351
67.6344
67.6338
67.6332
67.6331
67.6331
67.6628
67.6628
67.6624
67.6628
67.6599
67.6297
67.6004
67.6124
67.6288
67.6372
67.6401
67.6406
67.6401
67.6391
67.6378
67.6364
67.6354
67.6347
67.6343
67.6339
67.6338
67.6338
67.6581
67.6581
67.6584
67.6587
67.6578
67.6467
67.6184
67.6142
67.6236
67.6324
67.6371
67.639
67.6393
67.6388
67.6379
67.637
67.6362
67.6357
67.6353
67.635
67.6351
67.6351
67.6546
67.6546
67.6551
67.6557
67.6562
67.6526
67.6317
67.6194
67.6211
67.6279
67.6334
67.6366
67.6378
67.638
67.6377
67.6372
67.6367
67.6363
67.6361
67.6359
67.636
67.636
67.652
67.652
67.6526
67.6535
67.6549
67.6543
67.6417
67.6296
67.6252
67.6266
67.6302
67.6337
67.6359
67.6369
67.6372
67.6371
67.6368
67.6367
67.6365
67.6364
67.6366
67.6366
67.6498
67.6498
67.6505
67.6514
67.653
67.6541
67.6496
67.6398
67.6313
67.6278
67.6287
67.6321
67.6344
67.6356
67.6363
67.6367
67.6369
67.6368
67.6367
67.6366
67.6368
67.6368
67.648
67.648
67.6486
67.6493
67.6503
67.6511
67.6497
67.6442
67.6381
67.6341
67.6332
67.633
67.6333
67.6344
67.6357
67.6368
67.6372
67.6371
67.6369
67.6369
67.6369
67.6369
67.6464
67.6464
67.6469
67.6474
67.648
67.6486
67.6486
67.6475
67.6456
67.6405
67.6348
67.6323
67.6327
67.6345
67.6362
67.6372
67.6373
67.6371
67.6371
67.6373
67.6371
67.6371
67.6451
67.6451
67.6455
67.6459
67.6462
67.6466
67.6469
67.6469
67.6453
67.6409
67.6367
67.6358
67.6366
67.6368
67.6366
67.6364
67.6366
67.6369
67.6374
67.6378
67.6375
67.6375
67.6441
67.6441
67.6444
67.6447
67.6449
67.6451
67.6453
67.6453
67.6445
67.643
67.6422
67.642
67.6397
67.6372
67.6354
67.6353
67.6363
67.6373
67.638
67.6383
67.6381
67.6381
67.6432
67.6432
67.6435
67.6437
67.6439
67.644
67.6441
67.6441
67.6439
67.6438
67.6441
67.6427
67.6401
67.6375
67.636
67.6366
67.6378
67.6385
67.6388
67.6389
67.6386
67.6386
67.6425
67.6425
67.6428
67.643
67.6431
67.6431
67.6432
67.6432
67.6432
67.6433
67.6433
67.6423
67.641
67.6398
67.6396
67.6399
67.6398
67.6396
67.6395
67.6395
67.6392
67.6392
67.642
67.642
67.6423
67.6424
67.6424
67.6424
67.6425
67.6424
67.6425
67.6425
67.6424
67.642
67.6417
67.6417
67.6417
67.6413
67.6406
67.6402
67.64
67.6399
67.6396
67.6396
67.6416
67.6416
67.6419
67.6419
67.6419
67.6419
67.6419
67.6418
67.6418
67.6418
67.6418
67.6417
67.6417
67.6419
67.6418
67.6414
67.6409
67.6405
67.6403
67.6402
67.64
67.64
67.6415
67.6415
67.6415
67.6415
67.6414
67.6414
67.6413
67.6413
67.6412
67.6412
67.6412
67.6413
67.6414
67.6415
67.6414
67.6412
67.6409
67.6407
67.6405
67.6404
67.6403
67.6403
0
67.6415
67.6415
67.6415