# vtk DataFile Version 3.0
FlowField
ASCII
DATASET STRUCTURED_GRID
DIMENSIONS 102 12 1 
POINTS 1224 double
0 0 0
0.3 0 0
0.6 0 0
0.9 0 0
1.2 0 0
1.5 0 0
1.8 0 0
2.1 0 0
2.4 0 0
2.7 0 0
3 0 0
3.3 0 0
3.6 0 0
3.9 0 0
4.2 0 0
4.5 0 0
4.8 0 0
5.1 0 0
5.4 0 0
5.7 0 0
6 0 0
6.3 0 0
6.6 0 0
6.9 0 0
7.2 0 0
7.5 0 0
7.8 0 0
8.1 0 0
8.4 0 0
8.7 0 0
9 0 0
9.3 0 0
9.6 0 0
9.9 0 0
10.2 0 0
10.5 0 0
10.8 0 0
11.1 0 0
11.4 0 0
11.7 0 0
12 0 0
12.3 0 0
12.6 0 0
12.9 0 0
13.2 0 0
13.5 0 0
13.8 0 0
14.1 0 0
14.4 0 0
14.7 0 0
15 0 0
15.3 0 0
15.6 0 0
15.9 0 0
16.2 0 0
16.5 0 0
16.8 0 0
17.1 0 0
17.4 0 0
17.7 0 0
18 0 0
18.3 0 0
18.6 0 0
18.9 0 0
19.2 0 0
19.5 0 0
19.8 0 0
20.1 0 0
20.4 0 0
20.7 0 0
21 0 0
21.3 0 0
21.6 0 0
21.9 0 0
22.2 0 0
22.5 0 0
22.8 0 0
23.1 0 0
23.4 0 0
23.7 0 0
24 0 0
24.3 0 0
24.6 0 0
24.9 0 0
25.2 0 0
25.5 0 0
25.8 0 0
26.1 0 0
26.4 0 0
26.7 0 0
27 0 0
27.3 0 0
27.6 0 0
27.9 0 0
28.2 0 0
28.5 0 0
28.8 0 0
29.1 0 0
29.4 0 0
29.7 0 0
30 0 0
30.3 0 0
0 0.1 0
0.3 0.1 0
0.6 0.1 0
0.9 0.1 0
1.2 0.1 0
1.5 0.1 0
1.8 0.1 0
2.1 0.1 0
2.4 0.1 0
2.7 0.1 0
3 0.1 0
3.3 0.1 0
3.6 0.1 0
3.9 0.1 0
4.2 0.1 0
4.5 0.1 0
4.8 0.1 0
5.1 0.1 0
5.4 0.1 0
5.7 0.1 0
6 0.1 0
6.3 0.1 0
6.6 0.1 0
6.9 0.1 0
7.2 0.1 0
7.5 0.1 0
7.8 0.1 0
8.1 0.1 0
8.4 0.1 0
8.7 0.1 0
9 0.1 0
9.3 0.1 0
9.6 0.1 0
9.9 0.1 0
10.2 0.1 0
10.5 0.1 0
10.8 0.1 0
11.1 0.1 0
11.4 0.1 0
11.7 0.1 0
12 0.1 0
12.3 0.1 0
12.6 0.1 0
12.9 0.1 0
13.2 0.1 0
13.5 0.1 0
13.8 0.1 0
14.1 0.1 0
14.4 0.1 0
14.7 0.1 0
15 0.1 0
15.3 0.1 0
15.6 0.1 0
15.9 0.1 0
16.2 0.1 0
16.5 0.1 0
16.8 0.1 0
17.1 0.1 0
17.4 0.1 0
17.7 0.1 0
18 0.1 0
18.3 0.1 0
18.6 0.1 0
18.9 0.1 0
19.2 0.1 0
19.5 0.1 0
19.8 0.1 0
20.1 0.1 0
20.4 0.1 0
20.7 0.1 0
21 0.1 0
21.3 0.1 0
21.6 0.1 0
21.9 0.1 0
22.2 0.1 0
22.5 0.1 0
22.8 0.1 0
23.1 0.1 0
23.4 0.1 0
23.7 0.1 0
24 0.1 0
24.3 0.1 0
24.6 0.1 0
24.9 0.1 0
25.2 0.1 0
25.5 0.1 0
25.8 0.1 0
26.1 0.1 0
26.4 0.1 0
26.7 0.1 0
27 0.1 0
27.3 0.1 0
27.6 0.1 0
27.9 0.1 0
28.2 0.1 0
28.5 0.1 0
28.8 0.1 0
29.1 0.1 0
29.4 0.1 0
29.7 0.1 0
30 0.1 0
30.3 0.1 0
0 0.2 0
0.3 0.2 0
0.6 0.2 0
0.9 0.2 0
1.2 0.2 0
1.5 0.2 0
1.8 0.2 0
2.1 0.2 0
2.4 0.2 0
2.7 0.2 0
3 0.2 0
3.3 0.2 0
3.6 0.2 0
3.9 0.2 0
4.2 0.2 0
4.5 0.2 0
4.8 0.2 0
5.1 0.2 0
5.4 0.2 0
5.7 0.2 0
6 0.2 0
6.3 0.2 0
6.6 0.2 0
6.9 0.2 0
7.2 0.2 0
7.5 0.2 0
7.8 0.2 0
8.1 0.2 0
8.4 0.2 0
8.7 0.2 0
9 0.2 0
9.3 0.2 0
9.6 0.2 0
9.9 0.2 0
10.2 0.2 0
10.5 0.2 0
10.8 0.2 0
11.1 0.2 0
11.4 0.2 0
11.7 0.2 0
12 0.2 0
12.3 0.2 0
12.6 0.2 0
12.9 0.2 0
13.2 0.2 0
13.5 0.2 0
13.8 0.2 0
14.1 0.2 0
14.4 0.2 0
14.7 0.2 0
15 0.2 0
15.3 0.2 0
15.6 0.2 0
15.9 0.2 0
16.2 0.2 0
16.5 0.2 0
16.8 0.2 0
17.1 0.2 0
17.4 0.2 0
17.7 0.2 0
18 0.2 0
18.3 0.2 0
18.6 0.2 0
18.9 0.2 0
19.2 0.2 0
19.5 0.2 0
19.8 0.2 0
20.1 0.2 0
20.4 0.2 0
20.7 0.2 0
21 0.2 0
21.3 0.2 0
21.6 0.2 0
21.9 0.2 0
22.2 0.2 0
22.5 0.2 0
22.8 0.2 0
23.1 0.2 0
23.4 0.2 0
23.7 0.2 0
24 0.2 0
24.3 0.2 0
24.6 0.2 0
24.9 0.2 0
25.2 0.2 0
25.5 0.2 0
25.8 0.2 0
26.1 0.2 0
26.4 0.2 0
26.7 0.2 0
27 0.2 0
27.3 0.2 0
27.6 0.2 0
27.9 0.2 0
28.2 0.2 0
28.5 0.2 0
28.8 0.2 0
29.1 0.2 0
29.4 0.2 0
29.7 0.2 0
30 0.2 0
30.3 0.2 0
0 0.3 0
0.3 0.3 0
0.6 0.3 0
0.9 0.3 0
1.2 0.3 0
1.5 0.3 0
1.8 0.3 0
2.1 0.3 0
2.4 0.3 0
2.7 0.3 0
3 0.3 0
3.3 0.3 0
3.6 0.3 0
3.9 0.3 0
4.2 0.3 0
4.5 0.3 0
4.8 0.3 0
5.1 0.3 0
5.4 0.3 0
5.7 0.3 0
6 0.3 0
6.3 0.3 0
6.6 0.3 0
6.9 0.3 0
7.2 0.3 0
7.5 0.3 0
7.8 0.3 0
8.1 0.3 0
8.4 0.3 0
8.7 0.3 0
9 0.3 0
9.3 0.3 0
9.6 0.3 0
9.9 0.3 0
10.2 0.3 0
10.5 0.3 0
10.8 0.3 0
11.1 0.3 0
11.4 0.3 0
11.7 0.3 0
12 0.3 0
12.3 0.3 0
12.6 0.3 0
12.9 0.3 0
13.2 0.3 0
13.5 0.3 0
13.8 0.3 0
14.1 0.3 0
14.4 0.3 0
14.7 0.3 0
15 0.3 0
15.3 0.3 0
15.6 0.3 0
15.9 0.3 0
16.2 0.3 0
16.5 0.3 0
16.8 0.3 0
17.1 0.3 0
17.4 0.3 0
17.7 0.3 0
18 0.3 0
18.3 0.3 0
18.6 0.3 0
18.9 0.3 0
19.2 0.3 0
19.5 0.3 0
19.8 0.3 0
20.1 0.3 0
20.4 0.3 0
20.7 0.3 0
21 0.3 0
21.3 0.3 0
21.6 0.3 0
21.9 0.3 0
22.2 0.3 0
22.5 0.3 0
22.8 0.3 0
23.1 0.3 0
23.4 0.3 0
23.7 0.3 0
24 0.3 0
24.3 0.3 0
24.6 0.3 0
24.9 0.3 0
25.2 0.3 0
25.5 0.3 0
25.8 0.3 0
26.1 0.3 0
26.4 0.3 0
26.7 0.3 0
27 0.3 0
27.3 0.3 0
27.6 0.3 0
27.9 0.3 0
28.2 0.3 0
28.5 0.3 0
28.8 0.3 0
29.1 0.3 0
29.4 0.3 0
29.7 0.3 0
30 0.3 0
30.3 0.3 0
0 0.4 0
0.3 0.4 0
0.6 0.4 0
0.9 0.4 0
1.2 0.4 0
1.5 0.4 0
1.8 0.4 0
2.1 0.4 0
2.4 0.4 0
2.7 0.4 0
3 0.4 0
3.3 0.4 0
3.6 0.4 0
3.9 0.4 0
4.2 0.4 0
4.5 0.4 0
4.8 0.4 0
5.1 0.4 0
5.4 0.4 0
5.7 0.4 0
6 0.4 0
6.3 0.4 0
6.6 0.4 0
6.9 0.4 0
7.2 0.4 0
7.5 0.4 0
7.8 0.4 0
8.1 0.4 0
8.4 0.4 0
8.7 0.4 0
9 0.4 0
9.3 0.4 0
9.6 0.4 0
9.9 0.4 0
10.2 0.4 0
10.5 0.4 0
10.8 0.4 0
11.1 0.4 0
11.4 0.4 0
11.7 0.4 0
12 0.4 0
12.3 0.4 0
12.6 0.4 0
12.9 0.4 0
13.2 0.4 0
13.5 0.4 0
13.8 0.4 0
14.1 0.4 0
14.4 0.4 0
14.7 0.4 0
15 0.4 0
15.3 0.4 0
15.6 0.4 0
15.9 0.4 0
16.2 0.4 0
16.5 0.4 0
16.8 0.4 0
17.1 0.4 0
17.4 0.4 0
17.7 0.4 0
18 0.4 0
18.3 0.4 0
18.6 0.4 0
18.9 0.4 0
19.2 0.4 0
19.5 0.4 0
19.8 0.4 0
20.1 0.4 0
20.4 0.4 0
20.7 0.4 0
21 0.4 0
21.3 0.4 0
21.6 0.4 0
21.9 0.4 0
22.2 0.4 0
22.5 0.4 0
22.8 0.4 0
23.1 0.4 0
23.4 0.4 0
23.7 0.4 0
24 0.4 0
24.3 0.4 0
24.6 0.4 0
24.9 0.4 0
25.2 0.4 0
25.5 0.4 0
25.8 0.4 0
26.1 0.4 0
26.4 0.4 0
26.7 0.4 0
27 0.4 0
27.3 0.4 0
27.6 0.4 0
27.9 0.4 0
28.2 0.4 0
28.5 0.4 0
28.8 0.4 0
29.1 0.4 0
29.4 0.4 0
29.7 0.4 0
30 0.4 0
30.3 0.4 0
0 0.5 0
0.3 0.5 0
0.6 0.5 0
0.9 0.5 0
1.2 0.5 0
1.5 0.5 0
1.8 0.5 0
2.1 0.5 0
2.4 0.5 0
2.7 0.5 0
3 0.5 0
3.3 0.5 0
3.6 0.5 0
3.9 0.5 0
4.2 0.5 0
4.5 0.5 0
4.8 0.5 0
5.1 0.5 0
5.4 0.5 0
5.7 0.5 0
6 0.5 0
6.3 0.5 0
6.6 0.5 0
6.9 0.5 0
7.2 0.5 0
7.5 0.5 0
7.8 0.5 0
8.1 0.5 0
8.4 0.5 0
8.7 0.5 0
9 0.5 0
9.3 0.5 0
9.6 0.5 0
9.9 0.5 0
10.2 0.5 0
10.5 0.5 0
10.8 0.5 0
11.1 0.5 0
11.4 0.5 0
11.7 0.5 0
12 0.5 0
12.3 0.5 0
12.6 0.5 0
12.9 0.5 0
13.2 0.5 0
13.5 0.5 0
13.8 0.5 0
14.1 0.5 0
14.4 0.5 0
14.7 0.5 0
15 0.5 0
15.3 0.5 0
15.6 0.5 0
15.9 0.5 0
16.2 0.5 0
16.5 0.5 0
16.8 0.5 0
17.1 0.5 0
17.4 0.5 0
17.7 0.5 0
18 0.5 0
18.3 0.5 0
18.6 0.5 0
18.9 0.5 0
19.2 0.5 0
19.5 0.5 0
19.8 0.5 0
20.1 0.5 0
20.4 0.5 0
20.7 0.5 0
21 0.5 0
21.3 0.5 0
21.6 0.5 0
21.9 0.5 0
22.2 0.5 0
22.5 0.5 0
22.8 0.5 0
23.1 0.5 0
23.4 0.5 0
23.7 0.5 0
24 0.5 0
24.3 0.5 0
24.6 0.5 0
24.9 0.5 0
25.2 0.5 0
25.5 0.5 0
25.8 0.5 0
26.1 0.5 0
26.4 0.5 0
26.7 0.5 0
27 0.5 0
27.3 0.5 0
27.6 0.5 0
27.9 0.5 0
28.2 0.5 0
28.5 0.5 0
28.8 0.5 0
29.1 0.5 0
29.4 0.5 0
29.7 0.5 0
30 0.5 0
30.3 0.5 0
0 0.6 0
0.3 0.6 0
0.6 0.6 0
0.9 0.6 0
1.2 0.6 0
1.5 0.6 0
1.8 0.6 0
2.1 0.6 0
2.4 0.6 0
2.7 0.6 0
3 0.6 0
3.3 0.6 0
3.6 0.6 0
3.9 0.6 0
4.2 0.6 0
4.5 0.6 0
4.8 0.6 0
5.1 0.6 0
5.4 0.6 0
5.7 0.6 0
6 0.6 0
6.3 0.6 0
6.6 0.6 0
6.9 0.6 0
7.2 0.6 0
7.5 0.6 0
7.8 0.6 0
8.1 0.6 0
8.4 0.6 0
8.7 0.6 0
9 0.6 0
9.3 0.6 0
9.6 0.6 0
9.9 0.6 0
10.2 0.6 0
10.5 0.6 0
10.8 0.6 0
11.1 0.6 0
11.4 0.6 0
11.7 0.6 0
12 0.6 0
12.3 0.6 0
12.6 0.6 0
12.9 0.6 0
13.2 0.6 0
13.5 0.6 0
13.8 0.6 0
14.1 0.6 0
14.4 0.6 0
14.7 0.6 0
15 0.6 0
15.3 0.6 0
15.6 0.6 0
15.9 0.6 0
16.2 0.6 0
16.5 0.6 0
16.8 0.6 0
17.1 0.6 0
17.4 0.6 0
17.7 0.6 0
18 0.6 0
18.3 0.6 0
18.6 0.6 0
18.9 0.6 0
19.2 0.6 0
19.5 0.6 0
19.8 0.6 0
20.1 0.6 0
20.4 0.6 0
20.7 0.6 0
21 0.6 0
21.3 0.6 0
21.6 0.6 0
21.9 0.6 0
22.2 0.6 0
22.5 0.6 0
22.8 0.6 0
23.1 0.6 0
23.4 0.6 0
23.7 0.6 0
24 0.6 0
24.3 0.6 0
24.6 0.6 0
24.9 0.6 0
25.2 0.6 0
25.5 0.6 0
25.8 0.6 0
26.1 0.6 0
26.4 0.6 0
26.7 0.6 0
27 0.6 0
27.3 0.6 0
27.6 0.6 0
27.9 0.6 0
28.2 0.6 0
28.5 0.6 0
28.8 0.6 0
29.1 0.6 0
29.4 0.6 0
29.7 0.6 0
30 0.6 0
30.3 0.6 0
0 0.7 0
0.3 0.7 0
0.6 0.7 0
0.9 0.7 0
1.2 0.7 0
1.5 0.7 0
1.8 0.7 0
2.1 0.7 0
2.4 0.7 0
2.7 0.7 0
3 0.7 0
3.3 0.7 0
3.6 0.7 0
3.9 0.7 0
4.2 0.7 0
4.5 0.7 0
4.8 0.7 0
5.1 0.7 0
5.4 0.7 0
5.7 0.7 0
6 0.7 0
6.3 0.7 0
6.6 0.7 0
6.9 0.7 0
7.2 0.7 0
7.5 0.7 0
7.8 0.7 0
8.1 0.7 0
8.4 0.7 0
8.7 0.7 0
9 0.7 0
9.3 0.7 0
9.6 0.7 0
9.9 0.7 0
10.2 0.7 0
10.5 0.7 0
10.8 0.7 0
11.1 0.7 0
11.4 0.7 0
11.7 0.7 0
12 0.7 0
12.3 0.7 0
12.6 0.7 0
12.9 0.7 0
13.2 0.7 0
13.5 0.7 0
13.8 0.7 0
14.1 0.7 0
14.4 0.7 0
14.7 0.7 0
15 0.7 0
15.3 0.7 0
15.6 0.7 0
15.9 0.7 0
16.2 0.7 0
16.5 0.7 0
16.8 0.7 0
17.1 0.7 0
17.4 0.7 0
17.7 0.7 0
18 0.7 0
18.3 0.7 0
18.6 0.7 0
18.9 0.7 0
19.2 0.7 0
19.5 0.7 0
19.8 0.7 0
20.1 0.7 0
20.4 0.7 0
20.7 0.7 0
21 0.7 0
21.3 0.7 0
21.6 0.7 0
21.9 0.7 0
22.2 0.7 0
22.5 0.7 0
22.8 0.7 0
23.1 0.7 0
23.4 0.7 0
23.7 0.7 0
24 0.7 0
24.3 0.7 0
24.6 0.7 0
24.9 0.7 0
25.2 0.7 0
25.5 0.7 0
25.8 0.7 0
26.1 0.7 0
26.4 0.7 0
26.7 0.7 0
27 0.7 0
27.3 0.7 0
27.6 0.7 0
27.9 0.7 0
28.2 0.7 0
28.5 0.7 0
28.8 0.7 0
29.1 0.7 0
29.4 0.7 0
29.7 0.7 0
30 0.7 0
30.3 0.7 0
0 0.8 0
0.3 0.8 0
0.6 0.8 0
0.9 0.8 0
1.2 0.8 0
1.5 0.8 0
1.8 0.8 0
2.1 0.8 0
2.4 0.8 0
2.7 0.8 0
3 0.8 0
3.3 0.8 0
3.6 0.8 0
3.9 0.8 0
4.2 0.8 0
4.5 0.8 0
4.8 0.8 0
5.1 0.8 0
5.4 0.8 0
5.7 0.8 0
6 0.8 0
6.3 0.8 0
6.6 0.8 0
6.9 0.8 0
7.2 0.8 0
7.5 0.8 0
7.8 0.8 0
8.1 0.8 0
8.4 0.8 0
8.7 0.8 0
9 0.8 0
9.3 0.8 0
9.6 0.8 0
9.9 0.8 0
10.2 0.8 0
10.5 0.8 0
10.8 0.8 0
11.1 0.8 0
11.4 0.8 0
11.7 0.8 0
12 0.8 0
12.3 0.8 0
12.6 0.8 0
12.9 0.8 0
13.2 0.8 0
13.5 0.8 0
13.8 0.8 0
14.1 0.8 0
14.4 0.8 0
14.7 0.8 0
15 0.8 0
15.3 0.8 0
15.6 0.8 0
15.9 0.8 0
16.2 0.8 0
16.5 0.8 0
16.8 0.8 0
17.1 0.8 0
17.4 0.8 0
17.7 0.8 0
18 0.8 0
18.3 0.8 0
18.6 0.8 0
18.9 0.8 0
19.2 0.8 0
19.5 0.8 0
19.8 0.8 0
20.1 0.8 0
20.4 0.8 0
20.7 0.8 0
21 0.8 0
21.3 0.8 0
21.6 0.8 0
21.9 0.8 0
22.2 0.8 0
22.5 0.8 0
22.8 0.8 0
23.1 0.8 0
23.4 0.8 0
23.7 0.8 0
24 0.8 0
24.3 0.8 0
24.6 0.8 0
24.9 0.8 0
25.2 0.8 0
25.5 0.8 0
25.8 0.8 0
26.1 0.8 0
26.4 0.8 0
26.7 0.8 0
27 0.8 0
27.3 0.8 0
27.6 0.8 0
27.9 0.8 0
28.2 0.8 0
28.5 0.8 0
28.8 0.8 0
29.1 0.8 0
29.4 0.8 0
29.7 0.8 0
30 0.8 0
30.3 0.8 0
0 0.9 0
0.3 0.9 0
0.6 0.9 0
0.9 0.9 0
1.2 0.9 0
1.5 0.9 0
1.8 0.9 0
2.1 0.9 0
2.4 0.9 0
2.7 0.9 0
3 0.9 0
3.3 0.9 0
3.6 0.9 0
3.9 0.9 0
4.2 0.9 0
4.5 0.9 0
4.8 0.9 0
5.1 0.9 0
5.4 0.9 0
5.7 0.9 0
6 0.9 0
6.3 0.9 0
6.6 0.9 0
6.9 0.9 0
7.2 0.9 0
7.5 0.9 0
7.8 0.9 0
8.1 0.9 0
8.4 0.9 0
8.7 0.9 0
9 0.9 0
9.3 0.9 0
9.6 0.9 0
9.9 0.9 0
10.2 0.9 0
10.5 0.9 0
10.8 0.9 0
11.1 0.9 0
11.4 0.9 0
11.7 0.9 0
12 0.9 0
12.3 0.9 0
12.6 0.9 0
12.9 0.9 0
13.2 0.9 0
13.5 0.9 0
13.8 0.9 0
14.1 0.9 0
14.4 0.9 0
14.7 0.9 0
15 0.9 0
15.3 0.9 0
15.6 0.9 0
15.9 0.9 0
16.2 0.9 0
16.5 0.9 0
16.8 0.9 0
17.1 0.9 0
17.4 0.9 0
17.7 0.9 0
18 0.9 0
18.3 0.9 0
18.6 0.9 0
18.9 0.9 0
19.2 0.9 0
19.5 0.9 0
19.8 0.9 0
20.1 0.9 0
20.4 0.9 0
20.7 0.9 0
21 0.9 0
21.3 0.9 0
21.6 0.9 0
21.9 0.9 0
22.2 0.9 0
22.5 0.9 0
22.8 0.9 0
23.1 0.9 0
23.4 0.9 0
23.7 0.9 0
24 0.9 0
24.3 0.9 0
24.6 0.9 0
24.9 0.9 0
25.2 0.9 0
25.5 0.9 0
25.8 0.9 0
26.1 0.9 0
26.4 0.9 0
26.7 0.9 0
27 0.9 0
27.3 0.9 0
27.6 0.9 0
27.9 0.9 0
28.2 0.9 0
28.5 0.9 0
28.8 0.9 0
29.1 0.9 0
29.4 0.9 0
29.7 0.9 0
30 0.9 0
30.3 0.9 0
0 1 0
0.3 1 0
0.6 1 0
0.9 1 0
1.2 1 0
1.5 1 0
1.8 1 0
2.1 1 0
2.4 1 0
2.7 1 0
3 1 0
3.3 1 0
3.6 1 0
3.9 1 0
4.2 1 0
4.5 1 0
4.8 1 0
5.1 1 0
5.4 1 0
5.7 1 0
6 1 0
6.3 1 0
6.6 1 0
6.9 1 0
7.2 1 0
7.5 1 0
7.8 1 0
8.1 1 0
8.4 1 0
8.7 1 0
9 1 0
9.3 1 0
9.6 1 0
9.9 1 0
10.2 1 0
10.5 1 0
10.8 1 0
11.1 1 0
11.4 1 0
11.7 1 0
12 1 0
12.3 1 0
12.6 1 0
12.9 1 0
13.2 1 0
13.5 1 0
13.8 1 0
14.1 1 0
14.4 1 0
14.7 1 0
15 1 0
15.3 1 0
15.6 1 0
15.9 1 0
16.2 1 0
16.5 1 0
16.8 1 0
17.1 1 0
17.4 1 0
17.7 1 0
18 1 0
18.3 1 0
18.6 1 0
18.9 1 0
19.2 1 0
19.5 1 0
19.8 1 0
20.1 1 0
20.4 1 0
20.7 1 0
21 1 0
21.3 1 0
21.6 1 0
21.9 1 0
22.2 1 0
22.5 1 0
22.8 1 0
23.1 1 0
23.4 1 0
23.7 1 0
24 1 0
24.3 1 0
24.6 1 0
24.9 1 0
25.2 1 0
25.5 1 0
25.8 1 0
26.1 1 0
26.4 1 0
26.7 1 0
27 1 0
27.3 1 0
27.6 1 0
27.9 1 0
28.2 1 0
28.5 1 0
28.8 1 0
29.1 1 0
29.4 1 0
29.7 1 0
30 1 0
30.3 1 0
0 1.1 0
0.3 1.1 0
0.6 1.1 0
0.9 1.1 0
1.2 1.1 0
1.5 1.1 0
1.8 1.1 0
2.1 1.1 0
2.4 1.1 0
2.7 1.1 0
3 1.1 0
3.3 1.1 0
3.6 1.1 0
3.9 1.1 0
4.2 1.1 0
4.5 1.1 0
4.8 1.1 0
5.1 1.1 0
5.4 1.1 0
5.7 1.1 0
6 1.1 0
6.3 1.1 0
6.6 1.1 0
6.9 1.1 0
7.2 1.1 0
7.5 1.1 0
7.8 1.1 0
8.1 1.1 0
8.4 1.1 0
8.7 1.1 0
9 1.1 0
9.3 1.1 0
9.6 1.1 0
9.9 1.1 0
10.2 1.1 0
10.5 1.1 0
10.8 1.1 0
11.1 1.1 0
11.4 1.1 0
11.7 1.1 0
12 1.1 0
12.3 1.1 0
12.6 1.1 0
12.9 1.1 0
13.2 1.1 0
13.5 1.1 0
13.8 1.1 0
14.1 1.1 0
14.4 1.1 0
14.7 1.1 0
15 1.1 0
15.3 1.1 0
15.6 1.1 0
15.9 1.1 0
16.2 1.1 0
16.5 1.1 0
16.8 1.1 0
17.1 1.1 0
17.4 1.1 0
17.7 1.1 0
18 1.1 0
18.3 1.1 0
18.6 1.1 0
18.9 1.1 0
19.2 1.1 0
19.5 1.1 0
19.8 1.1 0
20.1 1.1 0
20.4 1.1 0
20.7 1.1 0
21 1.1 0
21.3 1.1 0
21.6 1.1 0
21.9 1.1 0
22.2 1.1 0
22.5 1.1 0
22.8 1.1 0
23.1 1.1 0
23.4 1.1 0
23.7 1.1 0
24 1.1 0
24.3 1.1 0
24.6 1.1 0
24.9 1.1 0
25.2 1.1 0
25.5 1.1 0
25.8 1.1 0
26.1 1.1 0
26.4 1.1 0
26.7 1.1 0
27 1.1 0
27.3 1.1 0
27.6 1.1 0
27.9 1.1 0
28.2 1.1 0
28.5 1.1 0
28.8 1.1 0
29.1 1.1 0
29.4 1.1 0
29.7 1.1 0
30 1.1 0
30.3 1.1 0

POINT_DATA 1224

SCALARS pressure double
LOOKUP_TABLE pressure
1.31604
1.31604
1.24953
1.20245
1.1595
1.11984
1.08382
1.05144
1.02234
0.996
0.97189
0.949537
0.928564
0.908683
0.889676
0.871387
0.853696
0.836514
0.819775
0.803425
0.787421
0.77173
0.75632
0.741167
0.72625
0.711549
0.697047
0.682728
0.66858
0.654589
0.640744
0.627035
0.613453
0.599987
0.586631
0.573377
0.560219
0.547149
0.534162
0.521252
0.508415
0.495645
0.482939
0.470292
0.457701
0.445161
0.432671
0.420226
0.407826
0.395467
0.383148
0.370868
0.358624
0.346415
0.33424
0.322098
0.309987
0.297905
0.285851
0.273822
0.261817
0.249833
0.237869
0.225922
0.21399
0.202071
0.190163
0.178265
0.166374
0.15449
0.14261
0.130735
0.118863
0.106993
0.0951256
0.0832593
0.071394
0.0595296
0.0476657
0.0358022
0.023939
0.012076
0.000213085
-0.0116497
-0.0235124
-0.0353751
-0.0472377
-0.0591003
-0.0709629
-0.0828255
-0.0946881
-0.106551
-0.118413
-0.130276
-0.142138
-0.154001
-0.165864
-0.177726
-0.189589
-0.201451
-0.213311
0.213311
1.31604
1.31604
1.24953
1.20245
1.1595
1.11984
1.08382
1.05144
1.02234
0.996
0.97189
0.949537
0.928564
0.908683
0.889676
0.871387
0.853696
0.836514
0.819775
0.803425
0.787421
0.77173
0.75632
0.741167
0.72625
0.711549
0.697047
0.682728
0.66858
0.654589
0.640744
0.627035
0.613453
0.599987
0.586631
0.573377
0.560219
0.547149
0.534162
0.521252
0.508415
0.495645
0.482939
0.470292
0.457701
0.445161
0.432671
0.420226
0.407826
0.395467
0.383148
0.370868
0.358624
0.346415
0.33424
0.322098
0.309987
0.297905
0.285851
0.273822
0.261817
0.249833
0.237869
0.225922
0.21399
0.202071
0.190163
0.178265
0.166374
0.15449
0.14261
0.130735
0.118863
0.106993
0.0951256
0.0832593
0.071394
0.0595296
0.0476657
0.0358022
0.023939
0.012076
0.000213085
-0.0116497
-0.0235124
-0.0353751
-0.0472377
-0.0591003
-0.0709629
-0.0828255
-0.0946881
-0.106551
-0.118413
-0.130276
-0.142138
-0.154001
-0.165864
-0.177726
-0.189589
-0.201451
-0.213311
0.213311
1.29539
1.29539
1.24773
1.20277
1.16022
1.12061
1.08453
1.05203
1.02281
0.99637
0.972175
0.949758
0.928737
0.90882
0.889788
0.871479
0.853773
0.836581
0.819833
0.803476
0.787467
0.77177
0.756356
0.7412
0.72628
0.711576
0.697072
0.682751
0.668601
0.654608
0.640762
0.627052
0.613468
0.600001
0.586644
0.573389
0.56023
0.547159
0.534171
0.521261
0.508423
0.495653
0.482947
0.470299
0.457707
0.445167
0.432676
0.420231
0.40783
0.395471
0.383152
0.370871
0.358627
0.346418
0.334243
0.3221
0.309988
0.297906
0.285852
0.273823
0.261818
0.249834
0.23787
0.225922
0.21399
0.202071
0.190163
0.178265
0.166374
0.15449
0.14261
0.130735
0.118863
0.106993
0.0951255
0.0832593
0.071394
0.0595296
0.0476657
0.0358022
0.023939
0.012076
0.000213081
-0.0116497
-0.0235124
-0.0353751
-0.0472377
-0.0591003
-0.0709629
-0.0828255
-0.0946881
-0.106551
-0.118413
-0.130276
-0.142138
-0.154001
-0.165864
-0.177726
-0.189589
-0.201451
-0.213311
0.213311
1.28101
1.28101
1.24523
1.20316
1.16135
1.12188
1.0857
1.05302
1.0236
0.996976
0.972631
0.950099
0.928993
0.909014
0.889938
0.871597
0.853869
0.836659
0.819899
0.803532
0.787515
0.771812
0.756393
0.741233
0.726309
0.711602
0.697095
0.682773
0.668621
0.654626
0.640778
0.627067
0.613481
0.600014
0.586656
0.5734
0.56024
0.547168
0.53418
0.521269
0.508431
0.49566
0.482953
0.470305
0.457712
0.445172
0.432681
0.420236
0.407834
0.395475
0.383155
0.370874
0.358629
0.34642
0.334245
0.322102
0.30999
0.297908
0.285853
0.273824
0.261818
0.249834
0.23787
0.225923
0.213991
0.202071
0.190164
0.178265
0.166374
0.15449
0.14261
0.130735
0.118863
0.106993
0.0951255
0.0832592
0.071394
0.0595295
0.0476656
0.0358022
0.023939
0.0120759
0.000213078
-0.0116497
-0.0235124
-0.0353751
-0.0472377
-0.0591003
-0.0709629
-0.0828255
-0.0946881
-0.106551
-0.118413
-0.130276
-0.142138
-0.154001
-0.165864
-0.177726
-0.189589
-0.201451
-0.213311
0.213311
1.27232
1.27232
1.24322
1.20342
1.16227
1.12296
1.08673
1.05392
1.02433
0.997555
0.97308
0.950444
0.929259
0.909222
0.890103
0.87173
0.853978
0.836751
0.819976
0.803599
0.787573
0.771863
0.756438
0.741273
0.726345
0.711634
0.697124
0.682799
0.668644
0.654648
0.640798
0.627084
0.613497
0.600029
0.586669
0.573412
0.560251
0.547179
0.534189
0.521278
0.508439
0.495668
0.48296
0.470311
0.457718
0.445178
0.432686
0.420241
0.407839
0.395479
0.383159
0.370878
0.358633
0.346423
0.334248
0.322105
0.309993
0.29791
0.285855
0.273826
0.26182
0.249836
0.237871
0.225924
0.213991
0.202072
0.190164
0.178265
0.166374
0.15449
0.14261
0.130735
0.118863
0.106993
0.0951256
0.0832593
0.071394
0.0595296
0.0476657
0.0358022
0.023939
0.012076
0.000213082
-0.0116497
-0.0235124
-0.0353751
-0.0472377
-0.0591003
-0.0709629
-0.0828255
-0.0946881
-0.106551
-0.118413
-0.130276
-0.142138
-0.154001
-0.165864
-0.177726
-0.189588
-0.201449
-0.21331
0.21331
1.26824
1.26824
1.24213
1.20353
1.16277
1.12355
1.0873
1.05442
1.02475
0.99789
0.973344
0.950651
0.929422
0.909352
0.890208
0.871818
0.854051
0.836813
0.82003
0.803646
0.787614
0.7719
0.756471
0.741302
0.726371
0.711658
0.697146
0.682818
0.668662
0.654664
0.640813
0.627098
0.61351
0.60004
0.58668
0.573422
0.56026
0.547187
0.534197
0.521285
0.508445
0.495674
0.482965
0.470317
0.457723
0.445182
0.43269
0.420245
0.407843
0.395483
0.383163
0.370881
0.358636
0.346426
0.334251
0.322107
0.309995
0.297912
0.285857
0.273827
0.261822
0.249837
0.237873
0.225925
0.213992
0.202073
0.190165
0.178266
0.166375
0.15449
0.142611
0.130735
0.118863
0.106993
0.0951257
0.0832594
0.0713941
0.0595296
0.0476657
0.0358022
0.023939
0.012076
0.000213088
-0.0116497
-0.0235124
-0.0353751
-0.0472377
-0.0591003
-0.0709629
-0.0828255
-0.0946881
-0.106551
-0.118413
-0.130276
-0.142138
-0.154001
-0.165864
-0.177726
-0.189588
-0.201447
-0.213309
0.213309
1.26824
1.26824
1.24213
1.20353
1.16277
1.12355
1.0873
1.05442
1.02475
0.99789
0.973344
0.950651
0.929422
0.909352
0.890208
0.871818
0.854051
0.836813
0.82003
0.803646
0.787614
0.7719
0.756471
0.741302
0.726371
0.711658
0.697146
0.682818
0.668662
0.654664
0.640813
0.627098
0.61351
0.60004
0.58668
0.573422
0.56026
0.547187
0.534197
0.521285
0.508445
0.495674
0.482965
0.470317
0.457723
0.445182
0.43269
0.420245
0.407843
0.395483
0.383163
0.370881
0.358636
0.346426
0.334251
0.322107
0.309995
0.297912
0.285857
0.273827
0.261822
0.249837
0.237873
0.225925
0.213992
0.202073
0.190165
0.178266
0.166375
0.15449
0.142611
0.130735
0.118863
0.106993
0.0951257
0.0832594
0.0713941
0.0595296
0.0476657
0.0358022
0.023939
0.012076
0.000213089
-0.0116497
-0.0235124
-0.0353751
-0.0472377
-0.0591003
-0.0709629
-0.0828255
-0.0946881
-0.106551
-0.118413
-0.130276
-0.142138
-0.154001
-0.165864
-0.177726
-0.189588
-0.201447
-0.213309
0.213309
1.27232
1.27232
1.24322
1.20342
1.16227
1.12296
1.08673
1.05392
1.02433
0.997555
0.97308
0.950444
0.929259
0.909222
0.890103
0.87173
0.853978
0.836751
0.819976
0.803599
0.787573
0.771863
0.756438
0.741273
0.726345
0.711634
0.697124
0.682799
0.668644
0.654648
0.640798
0.627084
0.613497
0.600029
0.586669
0.573412
0.560251
0.547179
0.534189
0.521278
0.508439
0.495668
0.48296
0.470311
0.457718
0.445178
0.432686
0.420241
0.407839
0.395479
0.383159
0.370878
0.358633
0.346423
0.334248
0.322105
0.309993
0.29791
0.285855
0.273826
0.26182
0.249836
0.237871
0.225924
0.213991
0.202072
0.190164
0.178265
0.166374
0.15449
0.14261
0.130735
0.118863
0.106993
0.0951256
0.0832593
0.071394
0.0595296
0.0476657
0.0358022
0.023939
0.012076
0.000213083
-0.0116497
-0.0235124
-0.0353751
-0.0472377
-0.0591003
-0.0709629
-0.0828255
-0.0946881
-0.106551
-0.118413
-0.130276
-0.142138
-0.154001
-0.165864
-0.177726
-0.189588
-0.201449
-0.21331
0.21331
1.28101
1.28101
1.24523
1.20316
1.16135
1.12188
1.0857
1.05302
1.0236
0.996976
0.972631
0.950099
0.928993
0.909014
0.889938
0.871597
0.853869
0.836659
0.819899
0.803532
0.787515
0.771812
0.756393
0.741233
0.726309
0.711602
0.697095
0.682773
0.668621
0.654626
0.640778
0.627067
0.613481
0.600014
0.586656
0.5734
0.56024
0.547168
0.53418
0.521269
0.508431
0.49566
0.482953
0.470305
0.457712
0.445172
0.432681
0.420236
0.407834
0.395475
0.383155
0.370874
0.358629
0.34642
0.334245
0.322102
0.30999
0.297908
0.285853
0.273824
0.261818
0.249834
0.23787
0.225923
0.213991
0.202071
0.190164
0.178265
0.166374
0.15449
0.14261
0.130735
0.118863
0.106993
0.0951255
0.0832592
0.071394
0.0595295
0.0476656
0.0358022
0.023939
0.0120759
0.00021308
-0.0116497
-0.0235124
-0.0353751
-0.0472377
-0.0591003
-0.0709629
-0.0828255
-0.0946881
-0.106551
-0.118413
-0.130276
-0.142138
-0.154001
-0.165864
-0.177726
-0.189589
-0.201451
-0.213311
0.213311
1.29539
1.29539
1.24773
1.20277
1.16022
1.12061
1.08453
1.05203
1.02281
0.99637
0.972175
0.949758
0.928737
0.90882
0.889788
0.871479
0.853773
0.836581
0.819833
0.803476
0.787467
0.77177
0.756356
0.7412
0.72628
0.711576
0.697072
0.682751
0.668601
0.654608
0.640762
0.627052
0.613468
0.600001
0.586644
0.573389
0.56023
0.547159
0.534171
0.521261
0.508423
0.495653
0.482947
0.470299
0.457707
0.445167
0.432676
0.420231
0.40783
0.395471
0.383152
0.370871
0.358627
0.346418
0.334243
0.3221
0.309988
0.297906
0.285852
0.273823
0.261818
0.249834
0.23787
0.225922
0.21399
0.202071
0.190163
0.178265
0.166374
0.15449
0.14261
0.130735
0.118863
0.106993
0.0951255
0.0832592
0.071394
0.0595296
0.0476657
0.0358022
0.023939
0.012076
0.000213083
-0.0116497
-0.0235124
-0.0353751
-0.0472377
-0.0591003
-0.0709629
-0.0828255
-0.0946881
-0.106551
-0.118413
-0.130276
-0.142138
-0.154001
-0.165864
-0.177726
-0.189589
-0.201451
-0.213311
0.213311
1.31604
1.31604
1.24953
1.20245
1.1595
1.11984
1.08382
1.05144
1.02234
0.996
0.97189
0.949537
0.928564
0.908683
0.889676
0.871387
0.853696
0.836514
0.819775
0.803425
0.787421
0.77173
0.75632
0.741167
0.72625
0.711549
0.697047
0.682728
0.66858
0.654589
0.640744
0.627035
0.613453
0.599987
0.586631
0.573377
0.560219
0.547149
0.534162
0.521252
0.508415
0.495645
0.482939
0.470292
0.457701
0.445161
0.432671
0.420226
0.407826
0.395467
0.383148
0.370868
0.358624
0.346415
0.33424
0.322098
0.309987
0.297905
0.285851
0.273822
0.261817
0.249833
0.237869
0.225922
0.21399
0.202071
0.190163
0.178265
0.166374
0.15449
0.14261
0.130735
0.118863
0.106993
0.0951256
0.0832593
0.071394
0.0595296
0.0476657
0.0358022
0.023939
0.012076
0.000213085
-0.0116497
-0.0235124
-0.0353751
-0.0472377
-0.0591003
-0.0709629
-0.0828255
-0.0946881
-0.106551
-0.118413
-0.130276
-0.142138
-0.154001
-0.165864
-0.177726
-0.189589
-0.201451
-0.213311
0.213311
1.31604
1.31604
1.24953
1.20245
1.1595
1.11984
1.08382
1.05144
1.02234
0.996
0.97189
0.949537
0.928564
0.908683
0.889676
0.871387
0.853696
0.836514
0.819775
0.803425
0.787421
0.77173
0.75632
0.741167
0.72625
0.711549
0.697047
0.682728
0.66858
0.654589
0.640744
0.627035
0.613453
0.599987
0.586631
0.573377
0.560219
0.547149
0.534162
0.521252
0.508415
0.495645
0.482939
0.470292
0.457701
0.445161
0.432671
0.420226
0.407826
0.395467
0.383148
0.370868
0.358624
0.346415
0.33424
0.322098
0.309987
0.297905
0.285851
0.273822
0.261817
0.249833
0.237869
0.225922
0.21399
0.202071
0.190163
0.178265
0.166374
0.15449
0.14261
0.130735
0.118863
0.106993
0.0951256
0.0832593
0.071394
0.0595296
0.0476657
0.0358022
0.023939
0.012076
0.000213085
-0.0116497
-0.0235124
-0.0353751
-0.0472377
-0.0591003
-0.0709629
-0.0828255
-0.0946881
-0.106551
-0.118413
-0.130276
-0.142138
-0.154001
-0.165864
-0.177726
-0.189589
-0.201451
-0.213311
0.213311
SCALARS phi double
LOOKUP_TABLE phi
1
1
1
0.999995
0.999977
0.999931
0.999833
0.999654
0.999363
0.998928
0.998322
0.997522
0.996512
0.995278
0.993813
0.992112
0.990188
0.988059
0.985721
0.983098
0.97999
0.976071
0.970913
0.964064
0.955124
0.943796
0.929918
0.913462
0.894507
0.873221
0.849827
0.824584
0.797772
0.769673
0.740568
0.710726
0.680398
0.649816
0.619189
0.588704
0.558522
0.528783
0.499605
0.471086
0.443304
0.416324
0.390192
0.364946
0.340608
0.317197
0.294718
0.273174
0.252563
0.232878
0.214109
0.196247
0.17928
0.163197
0.147986
0.133638
0.120143
0.107491
0.0956738
0.0846827
0.0745082
0.0651395
0.0565633
0.0487636
0.0417205
0.0354095
0.0298014
0.0248621
0.0205527
0.0168299
0.0136472
0.0109555
0.00870429
0.00684298
0.00532205
0.00409408
0.00311465
0.00234304
0.00174269
0.00128142
0.000931457
0.000669288
0.000475363
0.000333727
0.000231583
0.000158846
0.000107696
7.21766e-05
4.78162e-05
3.13153e-05
2.02749e-05
1.2978e-05
8.21339e-06
5.14026e-06
3.178e-06
1.9595e-06
1.10623e-06
1.10623e-06
1
1
1
0.999995
0.999977
0.999931
0.999833
0.999654
0.999363
0.998928
0.998322
0.997522
0.996512
0.995278
0.993813
0.992112
0.990188
0.988059
0.985721
0.983098
0.97999
0.976071
0.970913
0.964064
0.955124
0.943796
0.929918
0.913462
0.894507
0.873221
0.849827
0.824584
0.797772
0.769673
0.740568
0.710726
0.680398
0.649816
0.619189
0.588704
0.558522
0.528783
0.499605
0.471086
0.443304
0.416324
0.390192
0.364946
0.340608
0.317197
0.294718
0.273174
0.252563
0.232878
0.214109
0.196247
0.17928
0.163197
0.147986
0.133638
0.120143
0.107491
0.0956738
0.0846827
0.0745082
0.0651395
0.0565633
0.0487636
0.0417205
0.0354095
0.0298014
0.0248621
0.0205527
0.0168299
0.0136472
0.0109555
0.00870429
0.00684298
0.00532205
0.00409408
0.00311465
0.00234304
0.00174269
0.00128142
0.000931457
0.000669288
0.000475363
0.000333727
0.000231583
0.000158846
0.000107696
7.21766e-05
4.78162e-05
3.13153e-05
2.02749e-05
1.2978e-05
8.21339e-06
5.14026e-06
3.178e-06
1.9595e-06
1.10623e-06
1.10623e-06
0.999998
1
0.999984
0.999921
0.999783
0.999536
0.999146
0.99858
0.997811
0.996819
0.995589
0.994116
0.992397
0.990436
0.98824
0.985815
0.983175
0.980334
0.977309
0.974105
0.970699
0.967017
0.962926
0.958238
0.952725
0.946147
0.938276
0.928922
0.917944
0.905259
0.890839
0.874709
0.856939
0.837635
0.816931
0.794981
0.771953
0.748017
0.723348
0.698115
0.672481
0.646596
0.620602
0.594628
0.568788
0.543183
0.517903
0.493023
0.468605
0.444701
0.421351
0.398585
0.376425
0.354881
0.333959
0.313656
0.293968
0.274883
0.256389
0.238472
0.221122
0.204327
0.188084
0.172392
0.15726
0.142704
0.128748
0.115422
0.102765
0.090816
0.0796168
0.0692054
0.0596142
0.0508659
0.0429714
0.035928
0.0297188
0.0243126
0.0196659
0.0157243
0.0124256
0.00970222
0.00748476
0.00570412
0.00429405
0.00319293
0.00234499
0.00170103
0.00121872
0.000862436
0.000602823
0.000416209
0.000283867
0.00019126
0.000127313
8.37312e-05
5.44124e-05
3.49467e-05
2.21562e-05
1.40151e-05
8.0828e-06
8.0828e-06
1.00001
0.999992
0.99954
0.998615
0.997207
0.995316
0.992954
0.990144
0.986922
0.983331
0.979421
0.975241
0.970836
0.966247
0.961513
0.956664
0.951727
0.946727
0.941683
0.936612
0.931525
0.926423
0.92129
0.916091
0.910767
0.905239
0.899409
0.89317
0.88641
0.879022
0.870907
0.861983
0.852185
0.841466
0.829803
0.81719
0.803641
0.789187
0.773873
0.757755
0.7409
0.72338
0.705274
0.686662
0.667625
0.648243
0.628595
0.608755
0.588793
0.568773
0.548754
0.528788
0.508916
0.489175
0.469591
0.450183
0.430958
0.411917
0.393051
0.374343
0.35577
0.337303
0.318911
0.300565
0.282241
0.263925
0.245622
0.227354
0.20917
0.191144
0.173376
0.155988
0.139118
0.122914
0.10752
0.0930732
0.0796892
0.0674581
0.0564377
0.0466522
0.0380915
0.0307146
0.024454
0.0192214
0.0149146
0.0114234
0.00863629
0.00644462
0.00474691
0.00345127
0.00247697
0.00175492
0.0012275
0.000847704
0.000578044
0.000389237
0.000258841
0.000170037
0.000110194
7.12643e-05
4.1954e-05
4.1954e-05
1.00143
0.99857
0.991252
0.98188
0.971566
0.96086
0.950051
0.939311
0.928756
0.918467
0.908503
0.898898
0.889671
0.880827
0.87236
0.864261
0.856512
0.849097
0.841997
0.835192
0.828665
0.822397
0.816367
0.810554
0.804933
0.79947
0.794128
0.788864
0.783626
0.77836
0.773006
0.767505
0.761797
0.755825
0.749533
0.742875
0.735809
0.728299
0.720318
0.711847
0.702875
0.693398
0.683417
0.672944
0.661992
0.650581
0.638736
0.626484
0.613854
0.600878
0.587587
0.574014
0.560188
0.546137
0.531886
0.517456
0.50286
0.488106
0.473192
0.458107
0.442827
0.427316
0.411523
0.395389
0.378842
0.361809
0.344222
0.326027
0.307197
0.287739
0.267708
0.247207
0.226392
0.205465
0.184666
0.164258
0.144513
0.12569
0.108023
0.0917025
0.0768709
0.0636127
0.051956
0.0418763
0.0333037
0.0261321
0.0202299
0.0154506
0.0116421
0.00865505
0.00634858
0.00459497
0.00328186
0.00231327
0.00160933
0.00110514
0.000749178
0.000501515
0.000331036
0.000218077
0.000130705
0.000130705
1.0456
0.954401
0.887723
0.838674
0.801641
0.772861
0.749886
0.731119
0.715499
0.702298
0.691001
0.681228
0.672693
0.665173
0.658493
0.652515
0.647126
0.642236
0.637772
0.633674
0.629891
0.626383
0.623115
0.620058
0.617187
0.614477
0.611908
0.609456
0.6071
0.604816
0.60258
0.600365
0.598144
0.595886
0.593563
0.591144
0.588599
0.585898
0.583012
0.579915
0.576581
0.572987
0.569114
0.564943
0.56046
0.555653
0.550514
0.545036
0.539216
0.533053
0.526548
0.519706
0.512529
0.505025
0.497198
0.489054
0.480595
0.471822
0.462727
0.453299
0.443511
0.433325
0.422683
0.411511
0.399712
0.387177
0.373784
0.359415
0.343967
0.327365
0.309585
0.290659
0.270692
0.24986
0.228408
0.206636
0.184885
0.163511
0.142867
0.123274
0.105007
0.0882757
0.0732235
0.0599199
0.0483672
0.0385085
0.0302391
0.0234198
0.0178899
0.013479
0.0100175
0.00734414
0.00531183
0.0037906
0.00266919
0.00185485
0.00127213
0.000861395
0.000574971
0.000383054
0.000232151
0.000232151
-0.0455988
0.0455988
0.112277
0.161327
0.198359
0.227139
0.250114
0.268881
0.284502
0.297702
0.308999
0.318772
0.327307
0.334827
0.341507
0.347485
0.352874
0.357764
0.362228
0.366327
0.37011
0.373618
0.376886
0.379941
0.38281
0.385511
0.388061
0.390475
0.392764
0.394936
0.396999
0.398956
0.400808
0.402556
0.404196
0.405725
0.407136
0.408421
0.40957
0.410572
0.411416
0.412088
0.412576
0.412864
0.412941
0.412791
0.412401
0.411759
0.410852
0.409669
0.4082