# vtk DataFile Version 3.0
FlowField
ASCII
DATASET STRUCTURED_GRID
DIMENSIONS 102 12 1 
POINTS 1224 double
0 0 0
0.3 0 0
0.6 0 0
0.9 0 0
1.2 0 0
1.5 0 0
1.8 0 0
2.1 0 0
2.4 0 0
2.7 0 0
3 0 0
3.3 0 0
3.6 0 0
3.9 0 0
4.2 0 0
4.5 0 0
4.8 0 0
5.1 0 0
5.4 0 0
5.7 0 0
6 0 0
6.3 0 0
6.6 0 0
6.9 0 0
7.2 0 0
7.5 0 0
7.8 0 0
8.1 0 0
8.4 0 0
8.7 0 0
9 0 0
9.3 0 0
9.6 0 0
9.9 0 0
10.2 0 0
10.5 0 0
10.8 0 0
11.1 0 0
11.4 0 0
11.7 0 0
12 0 0
12.3 0 0
12.6 0 0
12.9 0 0
13.2 0 0
13.5 0 0
13.8 0 0
14.1 0 0
14.4 0 0
14.7 0 0
15 0 0
15.3 0 0
15.6 0 0
15.9 0 0
16.2 0 0
16.5 0 0
16.8 0 0
17.1 0 0
17.4 0 0
17.7 0 0
18 0 0
18.3 0 0
18.6 0 0
18.9 0 0
19.2 0 0
19.5 0 0
19.8 0 0
20.1 0 0
20.4 0 0
20.7 0 0
21 0 0
21.3 0 0
21.6 0 0
21.9 0 0
22.2 0 0
22.5 0 0
22.8 0 0
23.1 0 0
23.4 0 0
23.7 0 0
24 0 0
24.3 0 0
24.6 0 0
24.9 0 0
25.2 0 0
25.5 0 0
25.8 0 0
26.1 0 0
26.4 0 0
26.7 0 0
27 0 0
27.3 0 0
27.6 0 0
27.9 0 0
28.2 0 0
28.5 0 0
28.8 0 0
29.1 0 0
29.4 0 0
29.7 0 0
30 0 0
30.3 0 0
0 0.1 0
0.3 0.1 0
0.6 0.1 0
0.9 0.1 0
1.2 0.1 0
1.5 0.1 0
1.8 0.1 0
2.1 0.1 0
2.4 0.1 0
2.7 0.1 0
3 0.1 0
3.3 0.1 0
3.6 0.1 0
3.9 0.1 0
4.2 0.1 0
4.5 0.1 0
4.8 0.1 0
5.1 0.1 0
5.4 0.1 0
5.7 0.1 0
6 0.1 0
6.3 0.1 0
6.6 0.1 0
6.9 0.1 0
7.2 0.1 0
7.5 0.1 0
7.8 0.1 0
8.1 0.1 0
8.4 0.1 0
8.7 0.1 0
9 0.1 0
9.3 0.1 0
9.6 0.1 0
9.9 0.1 0
10.2 0.1 0
10.5 0.1 0
10.8 0.1 0
11.1 0.1 0
11.4 0.1 0
11.7 0.1 0
12 0.1 0
12.3 0.1 0
12.6 0.1 0
12.9 0.1 0
13.2 0.1 0
13.5 0.1 0
13.8 0.1 0
14.1 0.1 0
14.4 0.1 0
14.7 0.1 0
15 0.1 0
15.3 0.1 0
15.6 0.1 0
15.9 0.1 0
16.2 0.1 0
16.5 0.1 0
16.8 0.1 0
17.1 0.1 0
17.4 0.1 0
17.7 0.1 0
18 0.1 0
18.3 0.1 0
18.6 0.1 0
18.9 0.1 0
19.2 0.1 0
19.5 0.1 0
19.8 0.1 0
20.1 0.1 0
20.4 0.1 0
20.7 0.1 0
21 0.1 0
21.3 0.1 0
21.6 0.1 0
21.9 0.1 0
22.2 0.1 0
22.5 0.1 0
22.8 0.1 0
23.1 0.1 0
23.4 0.1 0
23.7 0.1 0
24 0.1 0
24.3 0.1 0
24.6 0.1 0
24.9 0.1 0
25.2 0.1 0
25.5 0.1 0
25.8 0.1 0
26.1 0.1 0
26.4 0.1 0
26.7 0.1 0
27 0.1 0
27.3 0.1 0
27.6 0.1 0
27.9 0.1 0
28.2 0.1 0
28.5 0.1 0
28.8 0.1 0
29.1 0.1 0
29.4 0.1 0
29.7 0.1 0
30 0.1 0
30.3 0.1 0
0 0.2 0
0.3 0.2 0
0.6 0.2 0
0.9 0.2 0
1.2 0.2 0
1.5 0.2 0
1.8 0.2 0
2.1 0.2 0
2.4 0.2 0
2.7 0.2 0
3 0.2 0
3.3 0.2 0
3.6 0.2 0
3.9 0.2 0
4.2 0.2 0
4.5 0.2 0
4.8 0.2 0
5.1 0.2 0
5.4 0.2 0
5.7 0.2 0
6 0.2 0
6.3 0.2 0
6.6 0.2 0
6.9 0.2 0
7.2 0.2 0
7.5 0.2 0
7.8 0.2 0
8.1 0.2 0
8.4 0.2 0
8.7 0.2 0
9 0.2 0
9.3 0.2 0
9.6 0.2 0
9.9 0.2 0
10.2 0.2 0
10.5 0.2 0
10.8 0.2 0
11.1 0.2 0
11.4 0.2 0
11.7 0.2 0
12 0.2 0
12.3 0.2 0
12.6 0.2 0
12.9 0.2 0
13.2 0.2 0
13.5 0.2 0
13.8 0.2 0
14.1 0.2 0
14.4 0.2 0
14.7 0.2 0
15 0.2 0
15.3 0.2 0
15.6 0.2 0
15.9 0.2 0
16.2 0.2 0
16.5 0.2 0
16.8 0.2 0
17.1 0.2 0
17.4 0.2 0
17.7 0.2 0
18 0.2 0
18.3 0.2 0
18.6 0.2 0
18.9 0.2 0
19.2 0.2 0
19.5 0.2 0
19.8 0.2 0
20.1 0.2 0
20.4 0.2 0
20.7 0.2 0
21 0.2 0
21.3 0.2 0
21.6 0.2 0
21.9 0.2 0
22.2 0.2 0
22.5 0.2 0
22.8 0.2 0
23.1 0.2 0
23.4 0.2 0
23.7 0.2 0
24 0.2 0
24.3 0.2 0
24.6 0.2 0
24.9 0.2 0
25.2 0.2 0
25.5 0.2 0
25.8 0.2 0
26.1 0.2 0
26.4 0.2 0
26.7 0.2 0
27 0.2 0
27.3 0.2 0
27.6 0.2 0
27.9 0.2 0
28.2 0.2 0
28.5 0.2 0
28.8 0.2 0
29.1 0.2 0
29.4 0.2 0
29.7 0.2 0
30 0.2 0
30.3 0.2 0
0 0.3 0
0.3 0.3 0
0.6 0.3 0
0.9 0.3 0
1.2 0.3 0
1.5 0.3 0
1.8 0.3 0
2.1 0.3 0
2.4 0.3 0
2.7 0.3 0
3 0.3 0
3.3 0.3 0
3.6 0.3 0
3.9 0.3 0
4.2 0.3 0
4.5 0.3 0
4.8 0.3 0
5.1 0.3 0
5.4 0.3 0
5.7 0.3 0
6 0.3 0
6.3 0.3 0
6.6 0.3 0
6.9 0.3 0
7.2 0.3 0
7.5 0.3 0
7.8 0.3 0
8.1 0.3 0
8.4 0.3 0
8.7 0.3 0
9 0.3 0
9.3 0.3 0
9.6 0.3 0
9.9 0.3 0
10.2 0.3 0
10.5 0.3 0
10.8 0.3 0
11.1 0.3 0
11.4 0.3 0
11.7 0.3 0
12 0.3 0
12.3 0.3 0
12.6 0.3 0
12.9 0.3 0
13.2 0.3 0
13.5 0.3 0
13.8 0.3 0
14.1 0.3 0
14.4 0.3 0
14.7 0.3 0
15 0.3 0
15.3 0.3 0
15.6 0.3 0
15.9 0.3 0
16.2 0.3 0
16.5 0.3 0
16.8 0.3 0
17.1 0.3 0
17.4 0.3 0
17.7 0.3 0
18 0.3 0
18.3 0.3 0
18.6 0.3 0
18.9 0.3 0
19.2 0.3 0
19.5 0.3 0
19.8 0.3 0
20.1 0.3 0
20.4 0.3 0
20.7 0.3 0
21 0.3 0
21.3 0.3 0
21.6 0.3 0
21.9 0.3 0
22.2 0.3 0
22.5 0.3 0
22.8 0.3 0
23.1 0.3 0
23.4 0.3 0
23.7 0.3 0
24 0.3 0
24.3 0.3 0
24.6 0.3 0
24.9 0.3 0
25.2 0.3 0
25.5 0.3 0
25.8 0.3 0
26.1 0.3 0
26.4 0.3 0
26.7 0.3 0
27 0.3 0
27.3 0.3 0
27.6 0.3 0
27.9 0.3 0
28.2 0.3 0
28.5 0.3 0
28.8 0.3 0
29.1 0.3 0
29.4 0.3 0
29.7 0.3 0
30 0.3 0
30.3 0.3 0
0 0.4 0
0.3 0.4 0
0.6 0.4 0
0.9 0.4 0
1.2 0.4 0
1.5 0.4 0
1.8 0.4 0
2.1 0.4 0
2.4 0.4 0
2.7 0.4 0
3 0.4 0
3.3 0.4 0
3.6 0.4 0
3.9 0.4 0
4.2 0.4 0
4.5 0.4 0
4.8 0.4 0
5.1 0.4 0
5.4 0.4 0
5.7 0.4 0
6 0.4 0
6.3 0.4 0
6.6 0.4 0
6.9 0.4 0
7.2 0.4 0
7.5 0.4 0
7.8 0.4 0
8.1 0.4 0
8.4 0.4 0
8.7 0.4 0
9 0.4 0
9.3 0.4 0
9.6 0.4 0
9.9 0.4 0
10.2 0.4 0
10.5 0.4 0
10.8 0.4 0
11.1 0.4 0
11.4 0.4 0
11.7 0.4 0
12 0.4 0
12.3 0.4 0
12.6 0.4 0
12.9 0.4 0
13.2 0.4 0
13.5 0.4 0
13.8 0.4 0
14.1 0.4 0
14.4 0.4 0
14.7 0.4 0
15 0.4 0
15.3 0.4 0
15.6 0.4 0
15.9 0.4 0
16.2 0.4 0
16.5 0.4 0
16.8 0.4 0
17.1 0.4 0
17.4 0.4 0
17.7 0.4 0
18 0.4 0
18.3 0.4 0
18.6 0.4 0
18.9 0.4 0
19.2 0.4 0
19.5 0.4 0
19.8 0.4 0
20.1 0.4 0
20.4 0.4 0
20.7 0.4 0
21 0.4 0
21.3 0.4 0
21.6 0.4 0
21.9 0.4 0
22.2 0.4 0
22.5 0.4 0
22.8 0.4 0
23.1 0.4 0
23.4 0.4 0
23.7 0.4 0
24 0.4 0
24.3 0.4 0
24.6 0.4 0
24.9 0.4 0
25.2 0.4 0
25.5 0.4 0
25.8 0.4 0
26.1 0.4 0
26.4 0.4 0
26.7 0.4 0
27 0.4 0
27.3 0.4 0
27.6 0.4 0
27.9 0.4 0
28.2 0.4 0
28.5 0.4 0
28.8 0.4 0
29.1 0.4 0
29.4 0.4 0
29.7 0.4 0
30 0.4 0
30.3 0.4 0
0 0.5 0
0.3 0.5 0
0.6 0.5 0
0.9 0.5 0
1.2 0.5 0
1.5 0.5 0
1.8 0.5 0
2.1 0.5 0
2.4 0.5 0
2.7 0.5 0
3 0.5 0
3.3 0.5 0
3.6 0.5 0
3.9 0.5 0
4.2 0.5 0
4.5 0.5 0
4.8 0.5 0
5.1 0.5 0
5.4 0.5 0
5.7 0.5 0
6 0.5 0
6.3 0.5 0
6.6 0.5 0
6.9 0.5 0
7.2 0.5 0
7.5 0.5 0
7.8 0.5 0
8.1 0.5 0
8.4 0.5 0
8.7 0.5 0
9 0.5 0
9.3 0.5 0
9.6 0.5 0
9.9 0.5 0
10.2 0.5 0
10.5 0.5 0
10.8 0.5 0
11.1 0.5 0
11.4 0.5 0
11.7 0.5 0
12 0.5 0
12.3 0.5 0
12.6 0.5 0
12.9 0.5 0
13.2 0.5 0
13.5 0.5 0
13.8 0.5 0
14.1 0.5 0
14.4 0.5 0
14.7 0.5 0
15 0.5 0
15.3 0.5 0
15.6 0.5 0
15.9 0.5 0
16.2 0.5 0
16.5 0.5 0
16.8 0.5 0
17.1 0.5 0
17.4 0.5 0
17.7 0.5 0
18 0.5 0
18.3 0.5 0
18.6 0.5 0
18.9 0.5 0
19.2 0.5 0
19.5 0.5 0
19.8 0.5 0
20.1 0.5 0
20.4 0.5 0
20.7 0.5 0
21 0.5 0
21.3 0.5 0
21.6 0.5 0
21.9 0.5 0
22.2 0.5 0
22.5 0.5 0
22.8 0.5 0
23.1 0.5 0
23.4 0.5 0
23.7 0.5 0
24 0.5 0
24.3 0.5 0
24.6 0.5 0
24.9 0.5 0
25.2 0.5 0
25.5 0.5 0
25.8 0.5 0
26.1 0.5 0
26.4 0.5 0
26.7 0.5 0
27 0.5 0
27.3 0.5 0
27.6 0.5 0
27.9 0.5 0
28.2 0.5 0
28.5 0.5 0
28.8 0.5 0
29.1 0.5 0
29.4 0.5 0
29.7 0.5 0
30 0.5 0
30.3 0.5 0
0 0.6 0
0.3 0.6 0
0.6 0.6 0
0.9 0.6 0
1.2 0.6 0
1.5 0.6 0
1.8 0.6 0
2.1 0.6 0
2.4 0.6 0
2.7 0.6 0
3 0.6 0
3.3 0.6 0
3.6 0.6 0
3.9 0.6 0
4.2 0.6 0
4.5 0.6 0
4.8 0.6 0
5.1 0.6 0
5.4 0.6 0
5.7 0.6 0
6 0.6 0
6.3 0.6 0
6.6 0.6 0
6.9 0.6 0
7.2 0.6 0
7.5 0.6 0
7.8 0.6 0
8.1 0.6 0
8.4 0.6 0
8.7 0.6 0
9 0.6 0
9.3 0.6 0
9.6 0.6 0
9.9 0.6 0
10.2 0.6 0
10.5 0.6 0
10.8 0.6 0
11.1 0.6 0
11.4 0.6 0
11.7 0.6 0
12 0.6 0
12.3 0.6 0
12.6 0.6 0
12.9 0.6 0
13.2 0.6 0
13.5 0.6 0
13.8 0.6 0
14.1 0.6 0
14.4 0.6 0
14.7 0.6 0
15 0.6 0
15.3 0.6 0
15.6 0.6 0
15.9 0.6 0
16.2 0.6 0
16.5 0.6 0
16.8 0.6 0
17.1 0.6 0
17.4 0.6 0
17.7 0.6 0
18 0.6 0
18.3 0.6 0
18.6 0.6 0
18.9 0.6 0
19.2 0.6 0
19.5 0.6 0
19.8 0.6 0
20.1 0.6 0
20.4 0.6 0
20.7 0.6 0
21 0.6 0
21.3 0.6 0
21.6 0.6 0
21.9 0.6 0
22.2 0.6 0
22.5 0.6 0
22.8 0.6 0
23.1 0.6 0
23.4 0.6 0
23.7 0.6 0
24 0.6 0
24.3 0.6 0
24.6 0.6 0
24.9 0.6 0
25.2 0.6 0
25.5 0.6 0
25.8 0.6 0
26.1 0.6 0
26.4 0.6 0
26.7 0.6 0
27 0.6 0
27.3 0.6 0
27.6 0.6 0
27.9 0.6 0
28.2 0.6 0
28.5 0.6 0
28.8 0.6 0
29.1 0.6 0
29.4 0.6 0
29.7 0.6 0
30 0.6 0
30.3 0.6 0
0 0.7 0
0.3 0.7 0
0.6 0.7 0
0.9 0.7 0
1.2 0.7 0
1.5 0.7 0
1.8 0.7 0
2.1 0.7 0
2.4 0.7 0
2.7 0.7 0
3 0.7 0
3.3 0.7 0
3.6 0.7 0
3.9 0.7 0
4.2 0.7 0
4.5 0.7 0
4.8 0.7 0
5.1 0.7 0
5.4 0.7 0
5.7 0.7 0
6 0.7 0
6.3 0.7 0
6.6 0.7 0
6.9 0.7 0
7.2 0.7 0
7.5 0.7 0
7.8 0.7 0
8.1 0.7 0
8.4 0.7 0
8.7 0.7 0
9 0.7 0
9.3 0.7 0
9.6 0.7 0
9.9 0.7 0
10.2 0.7 0
10.5 0.7 0
10.8 0.7 0
11.1 0.7 0
11.4 0.7 0
11.7 0.7 0
12 0.7 0
12.3 0.7 0
12.6 0.7 0
12.9 0.7 0
13.2 0.7 0
13.5 0.7 0
13.8 0.7 0
14.1 0.7 0
14.4 0.7 0
14.7 0.7 0
15 0.7 0
15.3 0.7 0
15.6 0.7 0
15.9 0.7 0
16.2 0.7 0
16.5 0.7 0
16.8 0.7 0
17.1 0.7 0
17.4 0.7 0
17.7 0.7 0
18 0.7 0
18.3 0.7 0
18.6 0.7 0
18.9 0.7 0
19.2 0.7 0
19.5 0.7 0
19.8 0.7 0
20.1 0.7 0
20.4 0.7 0
20.7 0.7 0
21 0.7 0
21.3 0.7 0
21.6 0.7 0
21.9 0.7 0
22.2 0.7 0
22.5 0.7 0
22.8 0.7 0
23.1 0.7 0
23.4 0.7 0
23.7 0.7 0
24 0.7 0
24.3 0.7 0
24.6 0.7 0
24.9 0.7 0
25.2 0.7 0
25.5 0.7 0
25.8 0.7 0
26.1 0.7 0
26.4 0.7 0
26.7 0.7 0
27 0.7 0
27.3 0.7 0
27.6 0.7 0
27.9 0.7 0
28.2 0.7 0
28.5 0.7 0
28.8 0.7 0
29.1 0.7 0
29.4 0.7 0
29.7 0.7 0
30 0.7 0
30.3 0.7 0
0 0.8 0
0.3 0.8 0
0.6 0.8 0
0.9 0.8 0
1.2 0.8 0
1.5 0.8 0
1.8 0.8 0
2.1 0.8 0
2.4 0.8 0
2.7 0.8 0
3 0.8 0
3.3 0.8 0
3.6 0.8 0
3.9 0.8 0
4.2 0.8 0
4.5 0.8 0
4.8 0.8 0
5.1 0.8 0
5.4 0.8 0
5.7 0.8 0
6 0.8 0
6.3 0.8 0
6.6 0.8 0
6.9 0.8 0
7.2 0.8 0
7.5 0.8 0
7.8 0.8 0
8.1 0.8 0
8.4 0.8 0
8.7 0.8 0
9 0.8 0
9.3 0.8 0
9.6 0.8 0
9.9 0.8 0
10.2 0.8 0
10.5 0.8 0
10.8 0.8 0
11.1 0.8 0
11.4 0.8 0
11.7 0.8 0
12 0.8 0
12.3 0.8 0
12.6 0.8 0
12.9 0.8 0
13.2 0.8 0
13.5 0.8 0
13.8 0.8 0
14.1 0.8 0
14.4 0.8 0
14.7 0.8 0
15 0.8 0
15.3 0.8 0
15.6 0.8 0
15.9 0.8 0
16.2 0.8 0
16.5 0.8 0
16.8 0.8 0
17.1 0.8 0
17.4 0.8 0
17.7 0.8 0
18 0.8 0
18.3 0.8 0
18.6 0.8 0
18.9 0.8 0
19.2 0.8 0
19.5 0.8 0
19.8 0.8 0
20.1 0.8 0
20.4 0.8 0
20.7 0.8 0
21 0.8 0
21.3 0.8 0
21.6 0.8 0
21.9 0.8 0
22.2 0.8 0
22.5 0.8 0
22.8 0.8 0
23.1 0.8 0
23.4 0.8 0
23.7 0.8 0
24 0.8 0
24.3 0.8 0
24.6 0.8 0
24.9 0.8 0
25.2 0.8 0
25.5 0.8 0
25.8 0.8 0
26.1 0.8 0
26.4 0.8 0
26.7 0.8 0
27 0.8 0
27.3 0.8 0
27.6 0.8 0
27.9 0.8 0
28.2 0.8 0
28.5 0.8 0
28.8 0.8 0
29.1 0.8 0
29.4 0.8 0
29.7 0.8 0
30 0.8 0
30.3 0.8 0
0 0.9 0
0.3 0.9 0
0.6 0.9 0
0.9 0.9 0
1.2 0.9 0
1.5 0.9 0
1.8 0.9 0
2.1 0.9 0
2.4 0.9 0
2.7 0.9 0
3 0.9 0
3.3 0.9 0
3.6 0.9 0
3.9 0.9 0
4.2 0.9 0
4.5 0.9 0
4.8 0.9 0
5.1 0.9 0
5.4 0.9 0
5.7 0.9 0
6 0.9 0
6.3 0.9 0
6.6 0.9 0
6.9 0.9 0
7.2 0.9 0
7.5 0.9 0
7.8 0.9 0
8.1 0.9 0
8.4 0.9 0
8.7 0.9 0
9 0.9 0
9.3 0.9 0
9.6 0.9 0
9.9 0.9 0
10.2 0.9 0
10.5 0.9 0
10.8 0.9 0
11.1 0.9 0
11.4 0.9 0
11.7 0.9 0
12 0.9 0
12.3 0.9 0
12.6 0.9 0
12.9 0.9 0
13.2 0.9 0
13.5 0.9 0
13.8 0.9 0
14.1 0.9 0
14.4 0.9 0
14.7 0.9 0
15 0.9 0
15.3 0.9 0
15.6 0.9 0
15.9 0.9 0
16.2 0.9 0
16.5 0.9 0
16.8 0.9 0
17.1 0.9 0
17.4 0.9 0
17.7 0.9 0
18 0.9 0
18.3 0.9 0
18.6 0.9 0
18.9 0.9 0
19.2 0.9 0
19.5 0.9 0
19.8 0.9 0
20.1 0.9 0
20.4 0.9 0
20.7 0.9 0
21 0.9 0
21.3 0.9 0
21.6 0.9 0
21.9 0.9 0
22.2 0.9 0
22.5 0.9 0
22.8 0.9 0
23.1 0.9 0
23.4 0.9 0
23.7 0.9 0
24 0.9 0
24.3 0.9 0
24.6 0.9 0
24.9 0.9 0
25.2 0.9 0
25.5 0.9 0
25.8 0.9 0
26.1 0.9 0
26.4 0.9 0
26.7 0.9 0
27 0.9 0
27.3 0.9 0
27.6 0.9 0
27.9 0.9 0
28.2 0.9 0
28.5 0.9 0
28.8 0.9 0
29.1 0.9 0
29.4 0.9 0
29.7 0.9 0
30 0.9 0
30.3 0.9 0
0 1 0
0.3 1 0
0.6 1 0
0.9 1 0
1.2 1 0
1.5 1 0
1.8 1 0
2.1 1 0
2.4 1 0
2.7 1 0
3 1 0
3.3 1 0
3.6 1 0
3.9 1 0
4.2 1 0
4.5 1 0
4.8 1 0
5.1 1 0
5.4 1 0
5.7 1 0
6 1 0
6.3 1 0
6.6 1 0
6.9 1 0
7.2 1 0
7.5 1 0
7.8 1 0
8.1 1 0
8.4 1 0
8.7 1 0
9 1 0
9.3 1 0
9.6 1 0
9.9 1 0
10.2 1 0
10.5 1 0
10.8 1 0
11.1 1 0
11.4 1 0
11.7 1 0
12 1 0
12.3 1 0
12.6 1 0
12.9 1 0
13.2 1 0
13.5 1 0
13.8 1 0
14.1 1 0
14.4 1 0
14.7 1 0
15 1 0
15.3 1 0
15.6 1 0
15.9 1 0
16.2 1 0
16.5 1 0
16.8 1 0
17.1 1 0
17.4 1 0
17.7 1 0
18 1 0
18.3 1 0
18.6 1 0
18.9 1 0
19.2 1 0
19.5 1 0
19.8 1 0
20.1 1 0
20.4 1 0
20.7 1 0
21 1 0
21.3 1 0
21.6 1 0
21.9 1 0
22.2 1 0
22.5 1 0
22.8 1 0
23.1 1 0
23.4 1 0
23.7 1 0
24 1 0
24.3 1 0
24.6 1 0
24.9 1 0
25.2 1 0
25.5 1 0
25.8 1 0
26.1 1 0
26.4 1 0
26.7 1 0
27 1 0
27.3 1 0
27.6 1 0
27.9 1 0
28.2 1 0
28.5 1 0
28.8 1 0
29.1 1 0
29.4 1 0
29.7 1 0
30 1 0
30.3 1 0
0 1.1 0
0.3 1.1 0
0.6 1.1 0
0.9 1.1 0
1.2 1.1 0
1.5 1.1 0
1.8 1.1 0
2.1 1.1 0
2.4 1.1 0
2.7 1.1 0
3 1.1 0
3.3 1.1 0
3.6 1.1 0
3.9 1.1 0
4.2 1.1 0
4.5 1.1 0
4.8 1.1 0
5.1 1.1 0
5.4 1.1 0
5.7 1.1 0
6 1.1 0
6.3 1.1 0
6.6 1.1 0
6.9 1.1 0
7.2 1.1 0
7.5 1.1 0
7.8 1.1 0
8.1 1.1 0
8.4 1.1 0
8.7 1.1 0
9 1.1 0
9.3 1.1 0
9.6 1.1 0
9.9 1.1 0
10.2 1.1 0
10.5 1.1 0
10.8 1.1 0
11.1 1.1 0
11.4 1.1 0
11.7 1.1 0
12 1.1 0
12.3 1.1 0
12.6 1.1 0
12.9 1.1 0
13.2 1.1 0
13.5 1.1 0
13.8 1.1 0
14.1 1.1 0
14.4 1.1 0
14.7 1.1 0
15 1.1 0
15.3 1.1 0
15.6 1.1 0
15.9 1.1 0
16.2 1.1 0
16.5 1.1 0
16.8 1.1 0
17.1 1.1 0
17.4 1.1 0
17.7 1.1 0
18 1.1 0
18.3 1.1 0
18.6 1.1 0
18.9 1.1 0
19.2 1.1 0
19.5 1.1 0
19.8 1.1 0
20.1 1.1 0
20.4 1.1 0
20.7 1.1 0
21 1.1 0
21.3 1.1 0
21.6 1.1 0
21.9 1.1 0
22.2 1.1 0
22.5 1.1 0
22.8 1.1 0
23.1 1.1 0
23.4 1.1 0
23.7 1.1 0
24 1.1 0
24.3 1.1 0
24.6 1.1 0
24.9 1.1 0
25.2 1.1 0
25.5 1.1 0
25.8 1.1 0
26.1 1.1 0
26.4 1.1 0
26.7 1.1 0
27 1.1 0
27.3 1.1 0
27.6 1.1 0
27.9 1.1 0
28.2 1.1 0
28.5 1.1 0
28.8 1.1 0
29.1 1.1 0
29.4 1.1 0
29.7 1.1 0
30 1.1 0
30.3 1.1 0

POINT_DATA 1224

SCALARS pressure double
LOOKUP_TABLE pressure
1.31555
1.31555
1.24904
1.20196
1.15901
1.11935
1.08333
1.05095
1.02185
0.99551
0.9714
0.949049
0.928075
0.908191
0.889187
0.870899
0.853207
0.836024
0.819286
0.802937
0.786933
0.77124
0.755831
0.740678
0.725761
0.711061
0.696558
0.682239
0.668092
0.654101
0.640256
0.626546
0.612964
0.599499
0.586144
0.572889
0.55973
0.546661
0.533675
0.520765
0.507927
0.495158
0.482453
0.469806
0.457215
0.444676
0.432185
0.419741
0.407338
0.394976
0.382651
0.370361
0.358104
0.345878
0.333681
0.321511
0.309366
0.297245
0.285146
0.273068
0.261009
0.248969
0.236946
0.224939
0.212948
0.200971
0.189007
0.177056
0.165118
0.153191
0.141275
0.129369
0.117474
0.105588
0.0937108
0.0818426
0.0699825
0.0581301
0.046285
0.0344465
0.0226141
0.0107874
-0.00103424
-0.0128513
-0.0246642
-0.0364734
-0.0482795
-0.0600829
-0.0718839
-0.0836829
-0.0954802
-0.107276
-0.119071
-0.130865
-0.142658
-0.15445
-0.166242
-0.178034
-0.189825
-0.201616
-0.213406
0.213406
1.31555
1.31555
1.24904
1.20196
1.15901
1.11935
1.08333
1.05095
1.02185
0.99551
0.9714
0.949049
0.928075
0.908191
0.889187
0.870899
0.853207
0.836024
0.819286
0.802937
0.786933
0.77124
0.755831
0.740678
0.725761
0.711061
0.696558
0.682239
0.668092
0.654101
0.640256
0.626546
0.612964
0.599499
0.586144
0.572889
0.55973
0.546661
0.533675
0.520765
0.507927
0.495158
0.482453
0.469806
0.457215
0.444676
0.432185
0.419741
0.407338
0.394976
0.382651
0.370361
0.358104
0.345878
0.333681
0.321511
0.309366
0.297245
0.285146
0.273068
0.261009
0.248969
0.236946
0.224939
0.212948
0.200971
0.189007
0.177056
0.165118
0.153191
0.141275
0.129369
0.117474
0.105588
0.0937108
0.0818426
0.0699825
0.0581301
0.046285
0.0344465
0.0226141
0.0107874
-0.00103424
-0.0128513
-0.0246642
-0.0364734
-0.0482795
-0.0600829
-0.0718839
-0.0836829
-0.0954802
-0.107276
-0.119071
-0.130865
-0.142658
-0.15445
-0.166242
-0.178034
-0.189825
-0.201616
-0.213406
0.213406
1.2949
1.2949
1.24725
1.20228
1.15973
1.12012
1.08404
1.05154
1.02232
0.99588
0.971686
0.94927
0.928247
0.908329
0.889299
0.870991
0.853284
0.836091
0.819344
0.802987
0.786978
0.771281
0.755867
0.740711
0.725791
0.711088
0.696582
0.682262
0.668113
0.65412
0.640273
0.626563
0.612979
0.599513
0.586156
0.572901
0.559741
0.546671
0.533684
0.520773
0.507935
0.495166
0.48246
0.469813
0.457221
0.444682
0.432191
0.419746
0.407343
0.394981
0.382655
0.370365
0.358108
0.345882
0.333684
0.321514
0.309369
0.297247
0.285148
0.27307
0.261012
0.248971
0.236948
0.224941
0.21295
0.200972
0.189009
0.177058
0.165119
0.153192
0.141276
0.12937
0.117474
0.105588
0.0937114
0.0818431
0.069983
0.0581305
0.0462853
0.0344467
0.0226143
0.0107875
-0.00103412
-0.0128512
-0.0246641
-0.0364734
-0.0482795
-0.0600829
-0.0718839
-0.0836829
-0.0954802
-0.107276
-0.119071
-0.130865
-0.142658
-0.15445
-0.166242
-0.178034
-0.189825
-0.201616
-0.213406
0.213406
1.28052
1.28052
1.24474
1.20267
1.16086
1.12139
1.08521
1.05253
1.02311
0.996486
0.972143
0.94961
0.928503
0.908523
0.889449
0.871109
0.853379
0.83617
0.81941
0.803043
0.787026
0.771323
0.755904
0.740744
0.725821
0.711114
0.696606
0.682284
0.668133
0.654138
0.640289
0.626578
0.612993
0.599526
0.586168
0.572911
0.559751
0.54668
0.533692
0.520781
0.507943
0.495173
0.482466
0.469819
0.457227
0.444687
0.432196
0.41975
0.407347
0.394984
0.382659
0.370369
0.358111
0.345885
0.333687
0.321516
0.309371
0.29725
0.28515
0.273072
0.261013
0.248973
0.23695
0.224943
0.212951
0.200973
0.18901
0.177059
0.16512
0.153193
0.141276
0.129371
0.117475
0.105589
0.0937119
0.0818436
0.0699834
0.0581309
0.0462856
0.034447
0.0226145
0.0107877
-0.00103399
-0.0128511
-0.024664
-0.0364733
-0.0482795
-0.0600828
-0.0718839
-0.0836829
-0.0954802
-0.107276
-0.119071
-0.130865
-0.142658
-0.15445
-0.166242
-0.178034
-0.189825
-0.201616
-0.213406
0.213406
1.27183
1.27183
1.24273
1.20292
1.16178
1.12247
1.08624
1.05343
1.02384
0.997065
0.972591
0.949955
0.928769
0.908732
0.889614
0.871242
0.853488
0.836261
0.819488
0.80311
0.787084
0.771374
0.755949
0.740784
0.725857
0.711146
0.696635
0.68231
0.668156
0.654159
0.640309
0.626596
0.613009
0.59954
0.586181
0.572924
0.559763
0.546691
0.533702
0.52079
0.507951
0.495181
0.482473
0.469825
0.457233
0.444693
0.432201
0.419755
0.407352
0.394989
0.382663
0.370372
0.358115
0.345888
0.33369
0.321519
0.309374
0.297252
0.285153
0.273074
0.261015
0.248975
0.236951
0.224944
0.212952
0.200975
0.189011
0.17706
0.165121
0.153194
0.141277
0.129372
0.117476
0.10559
0.0937128
0.0818443
0.0699841
0.0581315
0.0462862
0.0344475
0.0226149
0.0107881
-0.00103364
-0.0128508
-0.0246638
-0.0364731
-0.0482793
-0.0600827
-0.0718837
-0.0836828
-0.0954801
-0.107276
-0.119071
-0.130865
-0.142658
-0.15445
-0.166242
-0.178034
-0.189825
-0.201615
-0.213406
0.213406
1.26775
1.26775
1.24164
1.20304
1.16228
1.12306
1.08681
1.05393
1.02426
0.9974
0.972855
0.950162
0.928932
0.908863
0.88972
0.871329
0.853562
0.836324
0.819541
0.803157
0.787126
0.771411
0.755982
0.740813
0.725883
0.711169
0.696656
0.68233
0.668174
0.654175
0.640324
0.62661
0.613022
0.599552
0.586192
0.572934
0.559772
0.546699
0.533709
0.520797
0.507958
0.495187
0.482479
0.46983
0.457238
0.444697
0.432205
0.419759
0.407355
0.394992
0.382666
0.370375
0.358117
0.345891
0.333692
0.321521
0.309376
0.297254
0.285155
0.273076
0.261017
0.248976
0.236953
0.224946
0.212954
0.200976
0.189012
0.177061
0.165122
0.153195
0.141278
0.129373
0.117477
0.105591
0.0937135
0.081845
0.0699847
0.0581321
0.0462867
0.034448
0.0226154
0.0107885
-0.00103328
-0.0128504
-0.0246635
-0.0364729
-0.0482791
-0.0600825
-0.0718836
-0.0836826
-0.09548
-0.107276
-0.119071
-0.130865
-0.142658
-0.15445
-0.166242
-0.178034
-0.189825
-0.201615
-0.213405
0.213405
1.26775
1.26775
1.24164
1.20304
1.16228
1.12306
1.08681
1.05393
1.02426
0.9974
0.972855
0.950161
0.928932
0.908863
0.88972
0.871329
0.853562
0.836324
0.819541
0.803157
0.787126
0.771411
0.755982
0.740814
0.725883
0.711169
0.696657
0.68233
0.668173
0.654175
0.640324
0.62661
0.613022
0.599552
0.586192
0.572934
0.559772
0.546699
0.533709
0.520797
0.507958
0.495187
0.482479
0.46983
0.457238
0.444697
0.432205
0.419759
0.407355
0.394992
0.382666
0.370375
0.358117
0.345891
0.333692
0.321521
0.309376
0.297254
0.285155
0.273076
0.261017
0.248976
0.236953
0.224946
0.212954
0.200976
0.189012
0.177061
0.165122
0.153195
0.141278
0.129373
0.117477
0.105591
0.0937135
0.081845
0.0699847
0.0581321
0.0462867
0.034448
0.0226154
0.0107885
-0.00103328
-0.0128504
-0.0246635
-0.0364729
-0.0482791
-0.0600825
-0.0718836
-0.0836826
-0.09548
-0.107276
-0.119071
-0.130865
-0.142658
-0.15445
-0.166242
-0.178034
-0.189825
-0.201615
-0.213405
0.213405
1.27183
1.27183
1.24273
1.20292
1.16178
1.12247
1.08624
1.05343
1.02384
0.997066
0.972591
0.949954
0.928769
0.908733
0.889614
0.871241
0.853489
0.836262
0.819487
0.80311
0.787084
0.771374
0.755949
0.740784
0.725856
0.711145
0.696635
0.68231
0.668155
0.654159
0.640309
0.626596
0.613009
0.59954
0.586181
0.572924
0.559763
0.546691
0.533702
0.52079
0.507951
0.495181
0.482473
0.469825
0.457233
0.444693
0.432201
0.419755
0.407352
0.394989
0.382663
0.370372
0.358115
0.345888
0.33369
0.321519
0.309374
0.297252
0.285153
0.273074
0.261015
0.248975
0.236951
0.224944
0.212952
0.200975
0.189011
0.17706
0.165121
0.153194
0.141277
0.129372
0.117476
0.10559
0.0937127
0.0818443
0.0699841
0.0581315
0.0462862
0.0344475
0.0226149
0.0107881
-0.00103364
-0.0128508
-0.0246637
-0.0364731
-0.0482793
-0.0600827
-0.0718837
-0.0836828
-0.0954801
-0.107276
-0.119071
-0.130865
-0.142658
-0.15445
-0.166242
-0.178034
-0.189825
-0.201615
-0.213406
0.213406
1.28052
1.28052
1.24474
1.20267
1.16086
1.12139
1.08521
1.05253
1.02311
0.996487
0.972143
0.949609
0.928503
0.908525
0.889449
0.871108
0.853379
0.83617
0.81941
0.803043
0.787026
0.771323
0.755904
0.740745
0.725821
0.711113
0.696607
0.682284
0.668132
0.654138
0.64029
0.626578
0.612993
0.599526
0.586168
0.572912
0.559751
0.54668
0.533692
0.520781
0.507943
0.495173
0.482466
0.469819
0.457227
0.444687
0.432196
0.41975
0.407347
0.394984
0.382659
0.370369
0.358111
0.345885
0.333687
0.321516
0.309371
0.29725
0.28515
0.273072
0.261013
0.248973
0.23695
0.224943
0.212951
0.200973
0.18901
0.177059
0.16512
0.153193
0.141276
0.129371
0.117475
0.105589
0.0937119
0.0818436
0.0699834
0.0581309
0.0462856
0.0344469
0.0226145
0.0107877
-0.00103399
-0.0128511
-0.024664
-0.0364733
-0.0482795
-0.0600828
-0.0718839
-0.0836829
-0.0954802
-0.107276
-0.119071
-0.130865
-0.142658
-0.15445
-0.166242
-0.178034
-0.189825
-0.201616
-0.213406
0.213406
1.2949
1.2949
1.24724
1.20228
1.15973
1.12012
1.08404
1.05154
1.02232
0.995881
0.971686
0.949268
0.928247
0.908331
0.889299
0.87099
0.853284
0.836092
0.819344
0.802987
0.786978
0.771281
0.755867
0.740712
0.725791
0.711087
0.696583
0.682263
0.668112
0.65412
0.640274
0.626563
0.612979
0.599513
0.586156
0.572901
0.559742
0.546671
0.533684
0.520773
0.507936
0.495166
0.48246
0.469813
0.457221
0.444682
0.432191
0.419746
0.407343
0.394981
0.382655
0.370365
0.358108
0.345882
0.333684
0.321514
0.309369
0.297247
0.285148
0.27307
0.261012
0.248971
0.236948
0.224941
0.21295
0.200972
0.189008
0.177058
0.165119
0.153192
0.141276
0.12937
0.117474
0.105588
0.0937114
0.0818431
0.069983
0.0581306
0.0462853
0.0344467
0.0226143
0.0107875
-0.00103412
-0.0128512
-0.0246641
-0.0364734
-0.0482795
-0.0600829
-0.0718839
-0.0836829
-0.0954802
-0.107276
-0.119071
-0.130865
-0.142658
-0.15445
-0.166242
-0.178034
-0.189825
-0.201616
-0.213406
0.213406
1.31555
1.31555
1.24904
1.20196
1.15901
1.11935
1.08333
1.05095
1.02185
0.995511
0.971401
0.949047
0.928075
0.908193
0.889187
0.870898
0.853206
0.836025
0.819286
0.802936
0.786932
0.77124
0.755831
0.740679
0.725761
0.71106
0.696558
0.68224
0.668091
0.654101
0.640256
0.626547
0.612964
0.599499
0.586143
0.572889
0.559731
0.546661
0.533674
0.520764
0.507928
0.495158
0.482453
0.469806
0.457215
0.444676
0.432185
0.419741
0.407338
0.394976
0.382651
0.370361
0.358105
0.345878
0.333681
0.321511
0.309366
0.297245
0.285146
0.273068
0.261009
0.248969
0.236946
0.224939
0.212948
0.200971
0.189007
0.177056
0.165118
0.153191
0.141275
0.129369
0.117474
0.105588
0.0937108
0.0818426
0.0699825
0.0581302
0.046285
0.0344464
0.0226141
0.0107874
-0.00103425
-0.0128513
-0.0246642
-0.0364734
-0.0482795
-0.0600829
-0.0718839
-0.0836829
-0.0954802
-0.107276
-0.119071
-0.130865
-0.142658
-0.15445
-0.166242
-0.178034
-0.189825
-0.201616
-0.213406
0.213406
1.31555
1.31555
1.24904
1.20196
1.15901
1.11935
1.08333
1.05095
1.02185
0.995511
0.971401
0.949047
0.928075
0.908193
0.889187
0.870898
0.853206
0.836025
0.819286
0.802936
0.786932
0.77124
0.755831
0.740679
0.725761
0.71106
0.696558
0.68224
0.668091
0.654101
0.640256
0.626547
0.612964
0.599499
0.586143
0.572889
0.559731
0.546661
0.533674
0.520764
0.507928
0.495158
0.482453
0.469806
0.457215
0.444676
0.432185
0.419741
0.407338
0.394976
0.382651
0.370361
0.358105
0.345878
0.333681
0.321511
0.309366
0.297245
0.285146
0.273068
0.261009
0.248969
0.236946
0.224939
0.212948
0.200971
0.189007
0.177056
0.165118
0.153191
0.141275
0.129369
0.117474
0.105588
0.0937108
0.0818426
0.0699825
0.0581302
0.046285
0.0344464
0.0226141
0.0107874
-0.00103425
-0.0128513
-0.0246642
-0.0364734
-0.0482795
-0.0600829
-0.0718839
-0.0836829
-0.0954802
-0.107276
-0.119071
-0.130865
-0.142658
-0.15445
-0.166242
-0.178034
-0.189825
-0.201616
-0.213406
0.213406
SCALARS phi double
LOOKUP_TABLE phi
1
1
1
0.999995
0.999977
0.999931
0.999833
0.999655
0.999363
0.998929
0.998323
0.997523
0.996512
0.995278
0.993814
0.992118
0.990189
0.988031
0.985652
0.983057
0.980259
0.977271
0.974104
0.970768
0.967256
0.963539
0.959555
0.955209
0.950378
0.94492
0.938689
0.931543
0.923362
0.91405
0.903541
0.891799
0.878818
0.864618
0.849244
0.83276
0.815246
0.796794
0.777505
0.757486
0.736845
0.715692
0.694132
0.672269
0.650201
0.62802
0.605812
0.583653
0.561617
0.539767
0.51816
0.496847
0.475871
0.455271
0.435078
0.415321
0.39602
0.377194
0.358857
0.341019
0.323687
0.306867
0.290558
0.274762
0.259477
0.244699
0.230423
0.216643
0.203355
0.190549
0.17822
0.166361
0.154964
0.144023
0.133531
0.123483
0.113874
0.1047
0.0959576
0.0876431
0.079755
0.0722915
0.0652513
0.0586332
0.0524357
0.0466567
0.0412932
0.0363406
0.0317929
0.027642
0.0238775
0.0204871
0.0174532
0.0147684
0.0123746
0.0104004
0.00823391
0.00823391
1
1
1
0.999995
0.999977
0.999931
0.999833
0.999655
0.999363
0.998929
0.998323
0.997523
0.996512
0.995278
0.993814
0.992118
0.990189
0.988031
0.985652
0.983057
0.980259
0.977271
0.974104
0.970768
0.967256
0.963539
0.959555
0.955209
0.950378
0.94492
0.938689
0.931543
0.923362
0.91405
0.903541
0.891799
0.878818
0.864618
0.849244
0.83276
0.815246
0.796794
0.777505
0.757486
0.736845
0.715692
0.694132
0.672269
0.650201
0.62802
0.605812
0.583653
0.561617
0.539767
0.51816
0.496847
0.475871
0.455271
0.435078
0.415321
0.39602
0.377194
0.358857
0.341019
0.323687
0.306867
0.290558
0.274762
0.259477
0.244699
0.230423
0.216643
0.203355
0.190549
0.17822
0.166361
0.154964
0.144023
0.133531
0.123483
0.113874
0.1047
0.0959576
0.0876431
0.079755
0.0722915
0.0652513
0.0586332
0.0524357
0.0466567
0.0412932
0.0363406
0.0317929
0.027642
0.0238775
0.0204871
0.0174532
0.0147684
0.0123746
0.0104004
0.00823391
0.00823391
0.999998
1
0.999984
0.999921
0.999783
0.999536
0.999146
0.99858
0.997811
0.996819
0.995589
0.994116
0.992397
0.990436
0.98824
0.985816
0.983177
0.980332
0.977296
0.974081
0.970699
0.967165
0.963492
0.959692
0.955777
0.951748
0.9476
0.943309
0.938837
0.934125
0.929101
0.92368
0.917771
0.911284
0.904131
0.896238
0.88754
0.877992
0.867562
0.856236
0.844017
0.830922
0.816983
0.802242
0.786752
0.770573
0.753772
0.736417
0.718582
0.700337
0.681757
0.662912
0.643869
0.624694
0.605448
0.586188
0.566969
0.547839
0.528843
0.510021
0.491409
0.47304
0.454941
0.437137
0.41965
0.402497
0.385692
0.369247
0.353171
0.33747
0.322148
0.307207
0.292647
0.278466
0.26466
0.251225
0.238153
0.225439
0.213074
0.20105
0.189358
0.177991
0.166939
0.156198
0.145761
0.135626
0.125792
0.116262
0.107042
0.0981398
0.089569
0.0813446
0.073484
0.0660065
0.0589308
0.052278
0.0460555
0.0403113
0.0349258
0.0303776
0.0249222
0.0249222
1.00001
0.999992
0.99954
0.998615
0.997207
0.995317
0.992955
0.990144
0.986922
0.983331
0.979422
0.975241
0.970836
0.966247
0.961513
0.956664
0.951728
0.946727
0.941682
0.936608
0.931519
0.926427
0.92134
0.916268
0.911216
0.90619
0.901191
0.896219
0.891265
0.886318
0.881355
0.87635
0.871266
0.866061
0.860688
0.855097
0.849238
0.843058
0.83651
0.82955
0.822141
0.81425
0.805852
0.79693
0.787476
0.777486
0.766967
0.755928
0.744388
0.732369
0.719897
0.707003
0.693721
0.680085
0.666131
0.651899
0.637425
0.622748
0.607903
0.592928
0.577857
0.562723
0.547558
0.532392
0.517253
0.502166
0.487155
0.472241
0.457444
0.44278
0.428264
0.413908
0.399722
0.385713
0.371887
0.358246
0.34479
0.331516
0.318421
0.305496
0.292733
0.28012
0.267643
0.255289
0.24304
0.230883
0.218802
0.206789
0.194835
0.18294
0.171112
0.159367
0.147731
0.13624
0.124939
0.113888
0.103123
0.0927997
0.0826562
0.0739074
0.0626014
0.0626014
1.00143
0.99857
0.991252
0.98188
0.971566
0.96086
0.950051
0.939311
0.928756
0.918468
0.908503
0.898898
0.889671
0.880827
0.87236
0.864261
0.856513
0.849098
0.841997
0.835192
0.828664
0.822395
0.816369
0.810568
0.80498
0.799588
0.794382
0.789348
0.784473
0.779747
0.775154
0.77068
0.766308
0.76202
0.757793
0.753603
0.749425
0.745231
0.740992
0.736676
0.732253
0.727694
0.722969
0.718051
0.712913
0.707532
0.701889
0.695966
0.689749
0.683227
0.676393
0.669242
0.661774
0.65399
0.645895
0.637496
0.628802
0.619825
0.610577
0.601073
0.591327
0.581357
0.571178
0.560809
0.550266
0.539568
0.528731
0.517772
0.506708
0.495553
0.484323
0.473031
0.461689
0.450309
0.438899
0.427467
0.416018
0.404555
0.393078
0.381586
0.370071
0.358525
0.346934
0.335281
0.323545
0.311699
0.299717
0.287569
0.275226
0.262663
0.249861
0.236811
0.223514
0.209993
0.196278
0.182441
0.168509
0.154739
0.140669
0.128343
0.111421
0.111421
1.0456
0.954401
0.887723
0.838674
0.801641
0.772861
0.749886
0.731119
0.715499
0.702298
0.691001
0.681228
0.672693
0.665173
0.658493
0.652515
0.647126
0.642236
0.637772
0.633674
0.629891
0.626383
0.623115
0.620059
0.61719
0.614489
0.611937
0.609518
0.607221
0.605033
0.602944
0.600944
0.599024
0.597174
0.595386
0.593649
0.591953
0.590288
0.58864
0.586996
0.585344
0.583669
0.581955
0.580186
0.578347
0.576421
0.574393
0.572246
0.569965
0.567536
0.564945
0.562179
0.559226
0.556076
0.55272
0.54915
0.54536
0.541343
0.537097
0.532619
0.527907
0.52296
0.51778
0.512369
0.506729
0.500863
0.494776
0.488472
0.481957
0.475237
0.468316
0.461202
0.4539
0.446416
0.438754
0.43092
0.422917
0.414747
0.406409
0.397903
0.389223
0.380362
0.371305
0.362036
0.352532
0.342763
0.332696
0.32229
0.311505
0.300297
0.288626
0.276461
0.263779
0.250579
0.23687
0.222714
0.208112
0.193372
0.177893
0.164196
0.14462
0.14462
-0.0455988
0.0455988
0.112277
0.161327
0.198359
0.227139
0.250114
0.268881
0.284501
0.297702
0.308999
0.318772
0.327307
0.334827
0.341507
0.347485
0.352874
0.357764
0.362228
0.366327
0.37011
0.373618
0.376885
0.379941
0.38281
0.385511
0.388064
0.390482
0.392779
0.394966
0.397053
0.399049
0.400961
0.402795
0.404557
0.406251
0.407881
0.409449
0.410958
0.412407
0.413797
0.415126
0.416393
0.417594
0.418726
0.419783
0.42076
0.421651
0.422449
0.423145
0.423733
0.424203
0.424546
0.424755
0.424819
0.424729
0.424477
0.424053
0.423449
0.422657
0.421668
0.420476
0.419072
0.417451
0.415606
0.413533
0.411226
0.408682
0.405896
0.402867
0.399591
0.396067
0.392294
0.388269
0.383993
0.379463
0.374678
0.369636
0.364332
0.358761