# vtk DataFile Version 3.0
FlowField
ASCII
DATASET STRUCTURED_GRID
DIMENSIONS 22 17 12 
POINTS 4488 double
0 0 0
0.1 0 0
0.2 0 0
0.3 0 0
0.4 0 0
0.5 0 0
0.6 0 0
0.7 0 0
0.8 0 0
0.9 0 0
1 0 0
1.1 0 0
1.2 0 0
1.3 0 0
1.4 0 0
1.5 0 0
1.6 0 0
1.7 0 0
1.8 0 0
1.9 0 0
2 0 0
2.1 0 0
0 0.1 0
0.1 0.1 0
0.2 0.1 0
0.3 0.1 0
0.4 0.1 0
0.5 0.1 0
0.6 0.1 0
0.7 0.1 0
0.8 0.1 0
0.9 0.1 0
1 0.1 0
1.1 0.1 0
1.2 0.1 0
1.3 0.1 0
1.4 0.1 0
1.5 0.1 0
1.6 0.1 0
1.7 0.1 0
1.8 0.1 0
1.9 0.1 0
2 0.1 0
2.1 0.1 0
0 0.2 0
0.1 0.2 0
0.2 0.2 0
0.3 0.2 0
0.4 0.2 0
0.5 0.2 0
0.6 0.2 0
0.7 0.2 0
0.8 0.2 0
0.9 0.2 0
1 0.2 0
1.1 0.2 0
1.2 0.2 0
1.3 0.2 0
1.4 0.2 0
1.5 0.2 0
1.6 0.2 0
1.7 0.2 0
1.8 0.2 0
1.9 0.2 0
2 0.2 0
2.1 0.2 0
0 0.3 0
0.1 0.3 0
0.2 0.3 0
0.3 0.3 0
0.4 0.3 0
0.5 0.3 0
0.6 0.3 0
0.7 0.3 0
0.8 0.3 0
0.9 0.3 0
1 0.3 0
1.1 0.3 0
1.2 0.3 0
1.3 0.3 0
1.4 0.3 0
1.5 0.3 0
1.6 0.3 0
1.7 0.3 0
1.8 0.3 0
1.9 0.3 0
2 0.3 0
2.1 0.3 0
0 0.4 0
0.1 0.4 0
0.2 0.4 0
0.3 0.4 0
0.4 0.4 0
0.5 0.4 0
0.6 0.4 0
0.7 0.4 0
0.8 0.4 0
0.9 0.4 0
1 0.4 0
1.1 0.4 0
1.2 0.4 0
1.3 0.4 0
1.4 0.4 0
1.5 0.4 0
1.6 0.4 0
1.7 0.4 0
1.8 0.4 0
1.9 0.4 0
2 0.4 0
2.1 0.4 0
0 0.5 0
0.1 0.5 0
0.2 0.5 0
0.3 0.5 0
0.4 0.5 0
0.5 0.5 0
0.6 0.5 0
0.7 0.5 0
0.8 0.5 0
0.9 0.5 0
1 0.5 0
1.1 0.5 0
1.2 0.5 0
1.3 0.5 0
1.4 0.5 0
1.5 0.5 0
1.6 0.5 0
1.7 0.5 0
1.8 0.5 0
1.9 0.5 0
2 0.5 0
2.1 0.5 0
0 0.6 0
0.1 0.6 0
0.2 0.6 0
0.3 0.6 0
0.4 0.6 0
0.5 0.6 0
0.6 0.6 0
0.7 0.6 0
0.8 0.6 0
0.9 0.6 0
1 0.6 0
1.1 0.6 0
1.2 0.6 0
1.3 0.6 0
1.4 0.6 0
1.5 0.6 0
1.6 0.6 0
1.7 0.6 0
1.8 0.6 0
1.9 0.6 0
2 0.6 0
2.1 0.6 0
0 0.7 0
0.1 0.7 0
0.2 0.7 0
0.3 0.7 0
0.4 0.7 0
0.5 0.7 0
0.6 0.7 0
0.7 0.7 0
0.8 0.7 0
0.9 0.7 0
1 0.7 0
1.1 0.7 0
1.2 0.7 0
1.3 0.7 0
1.4 0.7 0
1.5 0.7 0
1.6 0.7 0
1.7 0.7 0
1.8 0.7 0
1.9 0.7 0
2 0.7 0
2.1 0.7 0
0 0.8 0
0.1 0.8 0
0.2 0.8 0
0.3 0.8 0
0.4 0.8 0
0.5 0.8 0
0.6 0.8 0
0.7 0.8 0
0.8 0.8 0
0.9 0.8 0
1 0.8 0
1.1 0.8 0
1.2 0.8 0
1.3 0.8 0
1.4 0.8 0
1.5 0.8 0
1.6 0.8 0
1.7 0.8 0
1.8 0.8 0
1.9 0.8 0
2 0.8 0
2.1 0.8 0
0 0.9 0
0.1 0.9 0
0.2 0.9 0
0.3 0.9 0
0.4 0.9 0
0.5 0.9 0
0.6 0.9 0
0.7 0.9 0
0.8 0.9 0
0.9 0.9 0
1 0.9 0
1.1 0.9 0
1.2 0.9 0
1.3 0.9 0
1.4 0.9 0
1.5 0.9 0
1.6 0.9 0
1.7 0.9 0
1.8 0.9 0
1.9 0.9 0
2 0.9 0
2.1 0.9 0
0 1 0
0.1 1 0
0.2 1 0
0.3 1 0
0.4 1 0
0.5 1 0
0.6 1 0
0.7 1 0
0.8 1 0
0.9 1 0
1 1 0
1.1 1 0
1.2 1 0
1.3 1 0
1.4 1 0
1.5 1 0
1.6 1 0
1.7 1 0
1.8 1 0
1.9 1 0
2 1 0
2.1 1 0
0 1.1 0
0.1 1.1 0
0.2 1.1 0
0.3 1.1 0
0.4 1.1 0
0.5 1.1 0
0.6 1.1 0
0.7 1.1 0
0.8 1.1 0
0.9 1.1 0
1 1.1 0
1.1 1.1 0
1.2 1.1 0
1.3 1.1 0
1.4 1.1 0
1.5 1.1 0
1.6 1.1 0
1.7 1.1 0
1.8 1.1 0
1.9 1.1 0
2 1.1 0
2.1 1.1 0
0 1.2 0
0.1 1.2 0
0.2 1.2 0
0.3 1.2 0
0.4 1.2 0
0.5 1.2 0
0.6 1.2 0
0.7 1.2 0
0.8 1.2 0
0.9 1.2 0
1 1.2 0
1.1 1.2 0
1.2 1.2 0
1.3 1.2 0
1.4 1.2 0
1.5 1.2 0
1.6 1.2 0
1.7 1.2 0
1.8 1.2 0
1.9 1.2 0
2 1.2 0
2.1 1.2 0
0 1.3 0
0.1 1.3 0
0.2 1.3 0
0.3 1.3 0
0.4 1.3 0
0.5 1.3 0
0.6 1.3 0
0.7 1.3 0
0.8 1.3 0
0.9 1.3 0
1 1.3 0
1.1 1.3 0
1.2 1.3 0
1.3 1.3 0
1.4 1.3 0
1.5 1.3 0
1.6 1.3 0
1.7 1.3 0
1.8 1.3 0
1.9 1.3 0
2 1.3 0
2.1 1.3 0
0 1.4 0
0.1 1.4 0
0.2 1.4 0
0.3 1.4 0
0.4 1.4 0
0.5 1.4 0
0.6 1.4 0
0.7 1.4 0
0.8 1.4 0
0.9 1.4 0
1 1.4 0
1.1 1.4 0
1.2 1.4 0
1.3 1.4 0
1.4 1.4 0
1.5 1.4 0
1.6 1.4 0
1.7 1.4 0
1.8 1.4 0
1.9 1.4 0
2 1.4 0
2.1 1.4 0
0 1.5 0
0.1 1.5 0
0.2 1.5 0
0.3 1.5 0
0.4 1.5 0
0.5 1.5 0
0.6 1.5 0
0.7 1.5 0
0.8 1.5 0
0.9 1.5 0
1 1.5 0
1.1 1.5 0
1.2 1.5 0
1.3 1.5 0
1.4 1.5 0
1.5 1.5 0
1.6 1.5 0
1.7 1.5 0
1.8 1.5 0
1.9 1.5 0
2 1.5 0
2.1 1.5 0
0 1.6 0
0.1 1.6 0
0.2 1.6 0
0.3 1.6 0
0.4 1.6 0
0.5 1.6 0
0.6 1.6 0
0.7 1.6 0
0.8 1.6 0
0.9 1.6 0
1 1.6 0
1.1 1.6 0
1.2 1.6 0
1.3 1.6 0
1.4 1.6 0
1.5 1.6 0
1.6 1.6 0
1.7 1.6 0
1.8 1.6 0
1.9 1.6 0
2 1.6 0
2.1 1.6 0
0 0 0.1
0.1 0 0.1
0.2 0 0.1
0.3 0 0.1
0.4 0 0.1
0.5 0 0.1
0.6 0 0.1
0.7 0 0.1
0.8 0 0.1
0.9 0 0.1
1 0 0.1
1.1 0 0.1
1.2 0 0.1
1.3 0 0.1
1.4 0 0.1
1.5 0 0.1
1.6 0 0.1
1.7 0 0.1
1.8 0 0.1
1.9 0 0.1
2 0 0.1
2.1 0 0.1
0 0.1 0.1
0.1 0.1 0.1
0.2 0.1 0.1
0.3 0.1 0.1
0.4 0.1 0.1
0.5 0.1 0.1
0.6 0.1 0.1
0.7 0.1 0.1
0.8 0.1 0.1
0.9 0.1 0.1
1 0.1 0.1
1.1 0.1 0.1
1.2 0.1 0.1
1.3 0.1 0.1
1.4 0.1 0.1
1.5 0.1 0.1
1.6 0.1 0.1
1.7 0.1 0.1
1.8 0.1 0.1
1.9 0.1 0.1
2 0.1 0.1
2.1 0.1 0.1
0 0.2 0.1
0.1 0.2 0.1
0.2 0.2 0.1
0.3 0.2 0.1
0.4 0.2 0.1
0.5 0.2 0.1
0.6 0.2 0.1
0.7 0.2 0.1
0.8 0.2 0.1
0.9 0.2 0.1
1 0.2 0.1
1.1 0.2 0.1
1.2 0.2 0.1
1.3 0.2 0.1
1.4 0.2 0.1
1.5 0.2 0.1
1.6 0.2 0.1
1.7 0.2 0.1
1.8 0.2 0.1
1.9 0.2 0.1
2 0.2 0.1
2.1 0.2 0.1
0 0.3 0.1
0.1 0.3 0.1
0.2 0.3 0.1
0.3 0.3 0.1
0.4 0.3 0.1
0.5 0.3 0.1
0.6 0.3 0.1
0.7 0.3 0.1
0.8 0.3 0.1
0.9 0.3 0.1
1 0.3 0.1
1.1 0.3 0.1
1.2 0.3 0.1
1.3 0.3 0.1
1.4 0.3 0.1
1.5 0.3 0.1
1.6 0.3 0.1
1.7 0.3 0.1
1.8 0.3 0.1
1.9 0.3 0.1
2 0.3 0.1
2.1 0.3 0.1
0 0.4 0.1
0.1 0.4 0.1
0.2 0.4 0.1
0.3 0.4 0.1
0.4 0.4 0.1
0.5 0.4 0.1
0.6 0.4 0.1
0.7 0.4 0.1
0.8 0.4 0.1
0.9 0.4 0.1
1 0.4 0.1
1.1 0.4 0.1
1.2 0.4 0.1
1.3 0.4 0.1
1.4 0.4 0.1
1.5 0.4 0.1
1.6 0.4 0.1
1.7 0.4 0.1
1.8 0.4 0.1
1.9 0.4 0.1
2 0.4 0.1
2.1 0.4 0.1
0 0.5 0.1
0.1 0.5 0.1
0.2 0.5 0.1
0.3 0.5 0.1
0.4 0.5 0.1
0.5 0.5 0.1
0.6 0.5 0.1
0.7 0.5 0.1
0.8 0.5 0.1
0.9 0.5 0.1
1 0.5 0.1
1.1 0.5 0.1
1.2 0.5 0.1
1.3 0.5 0.1
1.4 0.5 0.1
1.5 0.5 0.1
1.6 0.5 0.1
1.7 0.5 0.1
1.8 0.5 0.1
1.9 0.5 0.1
2 0.5 0.1
2.1 0.5 0.1
0 0.6 0.1
0.1 0.6 0.1
0.2 0.6 0.1
0.3 0.6 0.1
0.4 0.6 0.1
0.5 0.6 0.1
0.6 0.6 0.1
0.7 0.6 0.1
0.8 0.6 0.1
0.9 0.6 0.1
1 0.6 0.1
1.1 0.6 0.1
1.2 0.6 0.1
1.3 0.6 0.1
1.4 0.6 0.1
1.5 0.6 0.1
1.6 0.6 0.1
1.7 0.6 0.1
1.8 0.6 0.1
1.9 0.6 0.1
2 0.6 0.1
2.1 0.6 0.1
0 0.7 0.1
0.1 0.7 0.1
0.2 0.7 0.1
0.3 0.7 0.1
0.4 0.7 0.1
0.5 0.7 0.1
0.6 0.7 0.1
0.7 0.7 0.1
0.8 0.7 0.1
0.9 0.7 0.1
1 0.7 0.1
1.1 0.7 0.1
1.2 0.7 0.1
1.3 0.7 0.1
1.4 0.7 0.1
1.5 0.7 0.1
1.6 0.7 0.1
1.7 0.7 0.1
1.8 0.7 0.1
1.9 0.7 0.1
2 0.7 0.1
2.1 0.7 0.1
0 0.8 0.1
0.1 0.8 0.1
0.2 0.8 0.1
0.3 0.8 0.1
0.4 0.8 0.1
0.5 0.8 0.1
0.6 0.8 0.1
0.7 0.8 0.1
0.8 0.8 0.1
0.9 0.8 0.1
1 0.8 0.1
1.1 0.8 0.1
1.2 0.8 0.1
1.3 0.8 0.1
1.4 0.8 0.1
1.5 0.8 0.1
1.6 0.8 0.1
1.7 0.8 0.1
1.8 0.8 0.1
1.9 0.8 0.1
2 0.8 0.1
2.1 0.8 0.1
0 0.9 0.1
0.1 0.9 0.1
0.2 0.9 0.1
0.3 0.9 0.1
0.4 0.9 0.1
0.5 0.9 0.1
0.6 0.9 0.1
0.7 0.9 0.1
0.8 0.9 0.1
0.9 0.9 0.1
1 0.9 0.1
1.1 0.9 0.1
1.2 0.9 0.1
1.3 0.9 0.1
1.4 0.9 0.1
1.5 0.9 0.1
1.6 0.9 0.1
1.7 0.9 0.1
1.8 0.9 0.1
1.9 0.9 0.1
2 0.9 0.1
2.1 0.9 0.1
0 1 0.1
0.1 1 0.1
0.2 1 0.1
0.3 1 0.1
0.4 1 0.1
0.5 1 0.1
0.6 1 0.1
0.7 1 0.1
0.8 1 0.1
0.9 1 0.1
1 1 0.1
1.1 1 0.1
1.2 1 0.1
1.3 1 0.1
1.4 1 0.1
1.5 1 0.1
1.6 1 0.1
1.7 1 0.1
1.8 1 0.1
1.9 1 0.1
2 1 0.1
2.1 1 0.1
0 1.1 0.1
0.1 1.1 0.1
0.2 1.1 0.1
0.3 1.1 0.1
0.4 1.1 0.1
0.5 1.1 0.1
0.6 1.1 0.1
0.7 1.1 0.1
0.8 1.1 0.1
0.9 1.1 0.1
1 1.1 0.1
1.1 1.1 0.1
1.2 1.1 0.1
1.3 1.1 0.1
1.4 1.1 0.1
1.5 1.1 0.1
1.6 1.1 0.1
1.7 1.1 0.1
1.8 1.1 0.1
1.9 1.1 0.1
2 1.1 0.1
2.1 1.1 0.1
0 1.2 0.1
0.1 1.2 0.1
0.2 1.2 0.1
0.3 1.2 0.1
0.4 1.2 0.1
0.5 1.2 0.1
0.6 1.2 0.1
0.7 1.2 0.1
0.8 1.2 0.1
0.9 1.2 0.1
1 1.2 0.1
1.1 1.2 0.1
1.2 1.2 0.1
1.3 1.2 0.1
1.4 1.2 0.1
1.5 1.2 0.1
1.6 1.2 0.1
1.7 1.2 0.1
1.8 1.2 0.1
1.9 1.2 0.1
2 1.2 0.1
2.1 1.2 0.1
0 1.3 0.1
0.1 1.3 0.1
0.2 1.3 0.1
0.3 1.3 0.1
0.4 1.3 0.1
0.5 1.3 0.1
0.6 1.3 0.1
0.7 1.3 0.1
0.8 1.3 0.1
0.9 1.3 0.1
1 1.3 0.1
1.1 1.3 0.1
1.2 1.3 0.1
1.3 1.3 0.1
1.4 1.3 0.1
1.5 1.3 0.1
1.6 1.3 0.1
1.7 1.3 0.1
1.8 1.3 0.1
1.9 1.3 0.1
2 1.3 0.1
2.1 1.3 0.1
0 1.4 0.1
0.1 1.4 0.1
0.2 1.4 0.1
0.3 1.4 0.1
0.4 1.4 0.1
0.5 1.4 0.1
0.6 1.4 0.1
0.7 1.4 0.1
0.8 1.4 0.1
0.9 1.4 0.1
1 1.4 0.1
1.1 1.4 0.1
1.2 1.4 0.1
1.3 1.4 0.1
1.4 1.4 0.1
1.5 1.4 0.1
1.6 1.4 0.1
1.7 1.4 0.1
1.8 1.4 0.1
1.9 1.4 0.1
2 1.4 0.1
2.1 1.4 0.1
0 1.5 0.1
0.1 1.5 0.1
0.2 1.5 0.1
0.3 1.5 0.1
0.4 1.5 0.1
0.5 1.5 0.1
0.6 1.5 0.1
0.7 1.5 0.1
0.8 1.5 0.1
0.9 1.5 0.1
1 1.5 0.1
1.1 1.5 0.1
1.2 1.5 0.1
1.3 1.5 0.1
1.4 1.5 0.1
1.5 1.5 0.1
1.6 1.5 0.1
1.7 1.5 0.1
1.8 1.5 0.1
1.9 1.5 0.1
2 1.5 0.1
2.1 1.5 0.1
0 1.6 0.1
0.1 1.6 0.1
0.2 1.6 0.1
0.3 1.6 0.1
0.4 1.6 0.1
0.5 1.6 0.1
0.6 1.6 0.1
0.7 1.6 0.1
0.8 1.6 0.1
0.9 1.6 0.1
1 1.6 0.1
1.1 1.6 0.1
1.2 1.6 0.1
1.3 1.6 0.1
1.4 1.6 0.1
1.5 1.6 0.1
1.6 1.6 0.1
1.7 1.6 0.1
1.8 1.6 0.1
1.9 1.6 0.1
2 1.6 0.1
2.1 1.6 0.1
0 0 0.2
0.1 0 0.2
0.2 0 0.2
0.3 0 0.2
0.4 0 0.2
0.5 0 0.2
0.6 0 0.2
0.7 0 0.2
0.8 0 0.2
0.9 0 0.2
1 0 0.2
1.1 0 0.2
1.2 0 0.2
1.3 0 0.2
1.4 0 0.2
1.5 0 0.2
1.6 0 0.2
1.7 0 0.2
1.8 0 0.2
1.9 0 0.2
2 0 0.2
2.1 0 0.2
0 0.1 0.2
0.1 0.1 0.2
0.2 0.1 0.2
0.3 0.1 0.2
0.4 0.1 0.2
0.5 0.1 0.2
0.6 0.1 0.2
0.7 0.1 0.2
0.8 0.1 0.2
0.9 0.1 0.2
1 0.1 0.2
1.1 0.1 0.2
1.2 0.1 0.2
1.3 0.1 0.2
1.4 0.1 0.2
1.5 0.1 0.2
1.6 0.1 0.2
1.7 0.1 0.2
1.8 0.1 0.2
1.9 0.1 0.2
2 0.1 0.2
2.1 0.1 0.2
0 0.2 0.2
0.1 0.2 0.2
0.2 0.2 0.2
0.3 0.2 0.2
0.4 0.2 0.2
0.5 0.2 0.2
0.6 0.2 0.2
0.7 0.2 0.2
0.8 0.2 0.2
0.9 0.2 0.2
1 0.2 0.2
1.1 0.2 0.2
1.2 0.2 0.2
1.3 0.2 0.2
1.4 0.2 0.2
1.5 0.2 0.2
1.6 0.2 0.2
1.7 0.2 0.2
1.8 0.2 0.2
1.9 0.2 0.2
2 0.2 0.2
2.1 0.2 0.2
0 0.3 0.2
0.1 0.3 0.2
0.2 0.3 0.2
0.3 0.3 0.2
0.4 0.3 0.2
0.5 0.3 0.2
0.6 0.3 0.2
0.7 0.3 0.2
0.8 0.3 0.2
0.9 0.3 0.2
1 0.3 0.2
1.1 0.3 0.2
1.2 0.3 0.2
1.3 0.3 0.2
1.4 0.3 0.2
1.5 0.3 0.2
1.6 0.3 0.2
1.7 0.3 0.2
1.8 0.3 0.2
1.9 0.3 0.2
2 0.3 0.2
2.1 0.3 0.2
0 0.4 0.2
0.1 0.4 0.2
0.2 0.4 0.2
0.3 0.4 0.2
0.4 0.4 0.2
0.5 0.4 0.2
0.6 0.4 0.2
0.7 0.4 0.2
0.8 0.4 0.2
0.9 0.4 0.2
1 0.4 0.2
1.1 0.4 0.2
1.2 0.4 0.2
1.3 0.4 0.2
1.4 0.4 0.2
1.5 0.4 0.2
1.6 0.4 0.2
1.7 0.4 0.2
1.8 0.4 0.2
1.9 0.4 0.2
2 0.4 0.2
2.1 0.4 0.2
0 0.5 0.2
0.1 0.5 0.2
0.2 0.5 0.2
0.3 0.5 0.2
0.4 0.5 0.2
0.5 0.5 0.2
0.6 0.5 0.2
0.7 0.5 0.2
0.8 0.5 0.2
0.9 0.5 0.2
1 0.5 0.2
1.1 0.5 0.2
1.2 0.5 0.2
1.3 0.5 0.2
1.4 0.5 0.2
1.5 0.5 0.2
1.6 0.5 0.2
1.7 0.5 0.2
1.8 0.5 0.2
1.9 0.5 0.2
2 0.5 0.2
2.1 0.5 0.2
0 0.6 0.2
0.1 0.6 0.2
0.2 0.6 0.2
0.3 0.6 0.2
0.4 0.6 0.2
0.5 0.6 0.2
0.6 0.6 0.2
0.7 0.6 0.2
0.8 0.6 0.2
0.9 0.6 0.2
1 0.6 0.2
1.1 0.6 0.2
1.2 0.6 0.2
1.3 0.6 0.2
1.4 0.6 0.2
1.5 0.6 0.2
1.6 0.6 0.2
1.7 0.6 0.2
1.8 0.6 0.2
1.9 0.6 0.2
2 0.6 0.2
2.1 0.6 0.2
0 0.7 0.2
0.1 0.7 0.2
0.2 0.7 0.2
0.3 0.7 0.2
0.4 0.7 0.2
0.5 0.7 0.2
0.6 0.7 0.2
0.7 0.7 0.2
0.8 0.7 0.2
0.9 0.7 0.2
1 0.7 0.2
1.1 0.7 0.2
1.2 0.7 0.2
1.3 0.7 0.2
1.4 0.7 0.2
1.5 0.7 0.2
1.6 0.7 0.2
1.7 0.7 0.2
1.8 0.7 0.2
1.9 0.7 0.2
2 0.7 0.2
2.1 0.7 0.2
0 0.8 0.2
0.1 0.8 0.2
[...]
POINT_DATA 4488

SCALARS pressure double
LOOKUP_TABLE pressure
0
0
0
0
0
0
0
0
0
0
0
0
0
0
0
0
0
0
0
0
0
0
0
234.094
234.09
234.089
234.088
234.087
234.086
234.086
234.086
234.087
234.087
234.087
234.088
234.089
234.089
234.089
234.092
234.092
234.092
234.092
234.091
0
0
234.088
234.089
234.088
234.088
234.086
234.086
234.086
234.086
234.087
234.087
234.087
234.088
234.089
234.089
234.09
234.092
234.093
234.093
234.093
234.093
0
0
234.086
234.087
234.088
234.088
234.085
234.086
234.086
234.086
234.087
234.087
234.088
234.089
234.09
234.091
234.091
234.092
234.093
234.094
234.094
234.095
0
0
234.084
234.086
234.086
234.086
234.086
234.085
234.086
234.087
234.087
234.086
234.087
234.092
234.091
234.092
234.092
234.093
234.094
234.095
234.096
234.097
0
0
234.083
234.085
234.086
234.086
234.087
234.084
234.086
234.087
234.088
234.088
234.088
234.09
234.092
234.093
234.093
234.094
234.095
234.096
234.097
234.099
0
0
234.082
234.084
234.085
234.085
234.086
234.086
234.087
234.088
234.089
234.088
234.088
234.09
234.093
234.093
234.094
234.095
234.097
234.097
234.098
234.1
0
0
234.082
234.083
234.085
234.085
234.085
234.086
234.087
234.088
234.089
234.089
234.09
234.091
234.093
234.094
234.096
234.097
234.097
234.098
234.099
234.101
0
0
234.081
234.083
234.085
234.086
234.087
234.087
234.088
234.089
234.089
234.09
234.091
234.092
234.094
234.095
234.096
234.097
234.099
234.1
234.1
234.102
0
0
234.081
234.083
234.085
234.086
234.087
234.088
234.088
234.089
234.09
234.091
234.092
234.093
234.094
234.096
234.097
234.098
234.099
234.1
234.102
234.103
0
0
234.08
234.084
234.085
234.086
234.087
234.088
234.089
234.09
234.091
234.092
234.093
234.094
234.095
234.097
234.098
234.099
234.1
234.101
234.103
234.104
0
0
234.082
234.084
234.086
234.087
234.088
234.089
234.09
234.091
234.092
234.093
234.094
234.095
234.096
234.098
234.099
234.1
234.101
234.102
234.104
234.106
0
0
234.083
234.085
234.086
234.087
234.088
234.089
234.09
234.091
234.092
234.093
234.095
234.096
234.097
234.099
234.101
234.1
234.102
234.104
234.105
234.107
0
0
234.084
234.086
234.087
234.088
234.089
234.09
234.091
234.092
234.093
234.094
234.096
234.097
234.098
234.1
234.101
234.102
234.103
234.105
234.106
234.108
0
0
234.085
234.087
234.088
234.089
234.09
234.091
234.092
234.093
234.094
234.095
234.097
234.098
234.099
234.101
234.102
234.103
234.105
234.106
234.107
234.109
0
0
234.087
234.088
234.089
234.09
234.091
234.092
234.093
234.094
234.095
234.097
234.098
234.099
234.1
234.102
234.103
234.105
234.106
234.107
234.109
234.11
0
0
0
0
0
0
0
0
0
0
0
0
0
0
0
0
0
0
0
0
0
0
0
0
234.094
234.09
234.089
234.088
234.087
234.086
234.086
234.086
234.087
234.087
234.087
234.088
234.089
234.089
234.089
234.092
234.092
234.092
234.092
234.091
0
234.094
234.094
234.09
234.089
234.088
234.087
234.086
234.086
234.086
234.087
234.087
234.087
234.088
234.089
234.089
234.089
234.092
234.092
234.092
234.092
234.091
234.091
234.088
234.088
234.089
234.088
234.088
234.086
234.086
234.086
234.086
234.087
234.087
234.087
234.088
234.089
234.089
234.09
234.092
234.093
234.093
234.093
234.093
234.093
234.086
234.086
234.087
234.088
234.088
234.085
234.086
234.086
234.086
234.087
234.087
234.088
234.089
234.09
234.091
234.091
234.092
234.093
234.094
234.094
234.095
234.095
234.084
234.084
234.086
234.086
234.086
234.086
234.085
234.086
234.087
234.087
234.086
234.087
234.092
234.091
234.092
234.092
234.093
234.094
234.095
234.096
234.097
234.097
234.083
234.083
234.085
234.086
234.086
234.087
234.084
234.086
234.087
234.088
234.088
234.088
234.09
234.092
234.093
234.093
234.094
234.095
234.096
234.097
234.099
234.099
234.082
234.082
234.084
234.085
234.085
234.086
234.086
234.087
234.088
234.089
234.088
234.088
234.09
234.093
234.093
234.094
234.095
234.097
234.097
234.098
234.1
234.1
234.082
234.082
234.083
234.085
234.085
234.085
234.086
234.087
234.088
234.089
234.089
234.09
234.091
234.093
234.094
234.096
234.097
234.097
234.098
234.099
234.101
234.101
234.081
234.081
234.083
234.085
234.086
234.087
234.087
234.088
234.089
234.089
234.09
234.091
234.092
234.094
234.095
234.096
234.097
234.099
234.1
234.1
234.102
234.102
234.081
234.081
234.083
234.085
234.086
234.087
234.088
234.088
234.089
234.09
234.091
234.092
234.093
234.094
234.096
234.097
234.098
234.099
234.1
234.102
234.103
234.103
234.08
234.08
234.084
234.085
234.086
234.087
234.088
234.089
234.09
234.091
234.092
234.093
234.094
234.095
234.097
234.098
234.099
234.1
234.101
234.103
234.104
234.104
234.082
234.082
234.084
234.086
234.087
234.088
234.089
234.09
234.091
234.092
234.093
234.094
234.095
234.096
234.098
234.099
234.1
234.101
234.102
234.104
234.106
234.106
234.083
234.083
234.085
234.086
234.087
234.088
234.089
234.09
234.091
234.092
234.093
234.095
234.096
234.097
234.099
234.101
234.1
234.102
234.104
234.105
234.107
234.107
234.084
234.084
234.086
234.087
234.088
234.089
234.09
234.091
234.092
234.093
234.094
234.096
234.097
234.098
234.1
234.101
234.102
234.103
234.105
234.106
234.108
234.108
234.085
234.085
234.087
234.088
234.089
234.09
234.091
234.092
234.093
234.094
234.095
234.097
234.098
234.099
234.101
234.102
234.103
234.105
234.106
234.107
234.109
234.109
234.087
234.087
234.088
234.089
234.09
234.091
234.092
234.093
234.094
234.095
234.097
234.098
234.099
234.1
234.102
234.103
234.105
234.106
234.107
234.109
234.11
234.11
0
234.087
234.088
234.089
234.09
234.091
234.092
234.093
234.094
234.095
234.097
234.098
234.099
234.1
234.102
234.103
234.105
234.106
234.107
234.109
234.11
0
0
234.099
234.095
234.093
234.089
234.083
234.08
234.082
234.084
234.087
234.088
234.089
234.09
234.091
234.091
234.092
234.093
234.093
234.093
234.093
234.093
0
234.099
234.099
234.095
234.093
234.089
234.083
234.08
234.082
234.084
234.087
234.088
234.089
234.09
234.091
234.091
234.092
234.093
234.093
234.093
234.093
234.093
234.093
234.093
234.093
234.093
234.092
234.09
234.085
234.082
234.082
234.084
234.086
234.088
234.089
234.09
234.091
234.092
234.092
234.093
234.094
234.094
234.094
234.094
234.094
234.09
234.09
234.091
234.091
234.09
234.087
234.083
234.083
234.084
234.086
234.087
234.089
234.09
234.091
234.092
234.093
234.094
234.095
234.095
234.096
234.097
234.097
234.088
234.088
234.09
234.09
234.09
234.088
234.085
234.084
234.084
234.086
234.087
234.089
234.091
234.092
234.093
234.094
234.095
234.096
234.096
234.097
234.098
234.098
234.087
234.087
234.088
234.089
234.089
234.089
234.087
234.086
234.085
234.086
234.087
234.089
234.091
234.092
234.093
234.094
234.095
234.097
234.098
234.099
234.1
234.1
234.086
234.086
234.087
234.088
234.089
234.089
234.088
234.088
234.087
234.087
234.088
234.089
234.09
234.092
234.094
234.095
234.096
234.097
234.099
234.1
234.101
234.101
234.085
234.085
234.087
234.088
234.089
234.089
234.089
234.089
234.089
234.089
234.089
234.09
234.091
234.093
234.094
234.096
234.097
234.098
234.099
234.101
234.102
234.102
234.085
234.085
234.086
234.088
234.089
234.09
234.09
234.09
234.09
234.091
234.091
234.091
234.092
234.093
234.095
234.096
234.098
234.099
234.1
234.101
234.103
234.103
234.084
234.084
234.086
234.087
234.089
234.09
234.09
234.091
234.091
234.092
234.092
234.093
234.094
234.095
234.096
234.097
234.098
234.1
234.101
234.102
234.104
234.104
234.084
234.084
234.086
234.088
234.089
234.09
234.091
234.091
234.092
234.093
234.094
234.094
234.095
234.096
234.097
234.098
234.099
234.101
234.102
234.104
234.105
234.105
234.085
234.085
234.087
234.088
234.089
234.09
234.091
234.092
234.093
234.094
234.095
234.095
234.096
234.098
234.099
234.1
234.101
234.102
234.103
234.105
234.106
234.106
234.085
234.085
234.087
234.088
234.089
234.09
234.091
234.092
234.093
234.094
234.095
234.096
234.097
234.099
234.1
234.101
234.102
234.103
234.105
234.106
234.108
234.108
234.086
234.086
234.088
234.089
234.09
234.091
234.092
234.093
234.094
234.095
234.096
234.097
234.098
234.1
234.101
234.102
234.103
234.105
234.106
234.108
234.109
234.109
234.087
234.087
234.089
234.09
234.091
234.092
234.093
234.094
234.095
234.096
234.097
234.098
234.099
234.101
234.102
234.103
234.105
234.106
234.107
234.109
234.11
234.11
234.089
234.089
234.09
234.091
234.092
234.092
234.093
234.094
234.096
234.097
234.098
234.099
234.1
234.102
234.103
234.104
234.106
234.107
234.109
234.11
234.112
234.112
0
234.089
234.09
234.091
234.092
234.092
234.093
234.094
234.096
234.097
234.098
234.099
234.1
234.102
234.103
234.104
234.106
234.107
234.109
234.11
234.112
0
0
234.105
234.101
234.099
234.093
234.073
234.068
234.075
234.083
234.088
234.09
234.092
234.093
234.093
234.094
234.094
234.094
234.095
234.095
234.095
234.094
0
234.105
234.105
234.101
234.099
234.093
234.073
234.068
234.075
234.083
234.088
234.09
234.092
234.093
234.093
234.094
234.094
234.094
234.095
234.095
234.095
234.094
234.094
234.099
234.099
234.099
234.098
234.094
234.083
234.072
234.074
234.081
234.086
234.089
234.091
234.092
234.093
234.094
234.094
234.095
234.095
234.095
234.096
234.096
234.096
234.095
234.095
234.096
234.096
234.095
234.089
234.078
234.076
234.08
234.084
234.088
234.09
234.092
234.093
234.094
234.095
234.095
234.096
234.097
234.097
234.098
234.098
234.092
234.092
234.094
234.095
234.094
234.091
234.084
234.079
234.08
234.083
234.087
234.089
234.092
234.093
234.094
234.095
234.096
234.097
234.098
234.099
234.1
234.1
234.091
234.091
234.092
234.093
234.094
234.093
234.088
234.084
234.082
234.083
234.086
234.088
234.091
234.093
234.094
234.096
234.097
234.098
234.099
234.1
234.101
234.101
234.089
234.089
234.091
234.092
234.093
234.093
234.091
234.088
234.086
234.085
234.086
234.088
234.09
234.092
234.094
234.096
234.097
234.098
234.1
234.101
234.103
234.103
234.088
234.088
234.09
234.091
234.092
234.093
234.093
234.092
234.09
234.088
234.088
234.089
234.09
234.092
234.094
234.096
234.097
234.099
234.1
234.102
234.103
234.103
234.088
234.088
234.089
234.09
234.092
234.093
234.093
234.093
234.093
234.092
234.091
234.091
234.092
234.093
234.094
234.096
234.098
234.099
234.101
234.103
234.104
234.104
234.087
234.087
234.089
234.09
234.091
234.092
234.093
234.094
234.094
234.094
234.094
234.094
234.094
234.095
234.096
234.097
234.098
234.1
234.102
234.103
234.105
234.105
234.087
234.087
234.089
234.09
234.091
234.092
234.093
234.094
234.095
234.095
234.096
234.096
234.097
234.097
234.098
234.099
234.1
234.101
234.103
234.104
234.106
234.106
234.087
234.087
234.089
234.09
234.091
234.092
234.093
234.094
234.095
234.096
234.097
234.097
234.098
234.099
234.1
234.101
234.102
234.103
234.104
234.105
234.107
234.107
234.088
234.088
234.089
234.09
234.091
234.092
234.093
234.094
234.095
234.096
234.097
234.098
234.099
234.1
234.101
234.103
234.104
234.105
234.106
234.107
234.109
234.109
234.088
234.088
234.09
234.091
234.092
234.093
234.094
234.095
234.096
234.097
234.098
234.099
234.1
234.101
234.103
234.104
234.105
234.106
234.107
234.109
234.111
234.111
234.089
234.089
234.091
234.092
234.092
234.093
234.094
234.095
234.096
234.097
234.098
234.1
234.101
234.102
234.103
234.105
234.106
234.107
234.109
234.11
234.112
234.112
234.091
234.091
234.092
234.092
234.093
234.094
234.095
234.096
234.097
234.098
234.099
234.1
234.102
234.103
234.104
234.106
234.107
234.109
234.11
234.112
234.113
234.113
0
234.091
234.092
234.092
234.093
234.094
234.095
234.096
234.097
234.098
234.099
234.1
234.102
234.103
234.104
234.106
234.107
234.109
234.11
234.112
234.113
0
0
234.11
234.108
234.11
234.105
234.038
234.037
234.067
234.084
234.091
234.094
234.095
234.095
234.095
234.096
234.096
234.096
234.096
234.096
234.096
234.096
0
234.11
234.11
234.108
234.11
234.105
234.038
234.037
234.067
234.084
234.091
234.094
234.095
234.095
234.095
234.096
234.096
234.096
234.096
234.096
234.096
234.096
234.096
234.103
234.103
234.105
234.106
234.105
234.085
234.046
234.06
234.078
234.088
234.092
234.094
234.095
234.096
234.096
234.096
234.097
234.097
234.097
234.097
234.097
234.097
234.099
234.099
234.101
234.102
234.103
234.096
234.066
234.062
234.074
234.084
234.09
234.093
234.095
234.096
234.096
234.097
234.097
234.098
234.098
234.099
234.1
234.1
234.096
234.096
234.098
234.1
234.102
234.099
234.08
234.068
234.071
234.079
234.086
234.091
234.094
234.095
234.096
234.097
234.098
234.099
234.1
234.1
234.102
234.102
234.094
234.094
234.096
234.098
234.101
234.1
234.091
234.079
234.074
234.077
234.082
234.088
234.091
234.094
234.096
234.097
234.098
234.099
234.101
234.102
234.103
234.103
234.092
234.092
234.094
234.096
234.099
234.099
234.097
234.09
234.082
234.079
234.081
234.085
234.089
234.092
234.095
234.097
234.099
234.1
234.101
234.103
234.104
234.104
234.091
234.091
234.093
234.095
234.096
234.098
234.098
234.096
234.092
234.087
234.085
234.085
234.088
234.091
234.094
234.096
234.098
234.1
234.102
234.103
234.105
234.105
234.09
234.09
234.092
234.093
234.095
234.096
234.097
234.097
234.096
234.094
234.091
234.09
234.09
234.091
234.093
234.095
234.098
234.1
234.102
234.104
234.105
234.105
234.09
234.09
234.091
234.093
234.094
234.095
234.096
234.097
234.097
234.097
234.097
234.095
234.094
234.094
234.095
234.096
234.098
234.1
234.102
234.104
234.105
234.105
234.089
234.089
234.091
234.092
234.093
234.095
234.096
234.097
234.097
234.098
234.098
234.099
234.099
234.099
234.099
234.099
234.1
234.101
234.103
234.105
234.106
234.106
234.089
234.089
234.091
234.092
234.093
234.094
234.095
234.096
234.097
234.098
234.099
234.1
234.101
234.101
234.102
234.102
234.103
234.104
234.105
234.106
234.108
234.108
234.09
234.09
234.091
234.092
234.093
234.094
234.095
234.096
234.097
234.098
234.099
234.1
234.101
234.102
234.103
234.104
234.105
234.106
234.107
234.108
234.11
234.11
234.09
234.09
234.092
234.093
234.094
234.095
234.096
234.097
234.098
234.099
234.1
234.101
234.102
234.103
234.104
234.105
234.106
234.108
234.109
234.111
234.112
234.112
234.091
234.091
234.093
234.093
234.094
234.095
234.096
234.097
234.098
234.099
234.1
234.101
234.102
234.104
234.105
234.106
234.108
234.109
234.11
234.112
234.113
234.113
234.093
234.093
234.094
234.094
234.095
234.096
234.096
234.097
234.098
234.1
234.101
234.102
234.103
234.104
234.106
234.107
234.109
234.11
234.111
234.113
234.114
234.114
0
234.093
234.094
234.094
234.095
234.096
234.096
234.097
234.098
234.1
234.101
234.102
234.103
234.104
234.106
234.107
234.109
234.11
234.111
234.113
234.114
0
0
234.114
234.114
234.124
234.157
234.069
233.991
234.062
234.09
234.096
234.098
234.098
234.097
234.097
234.097
234.097
234.097
234.097
234.098
234.098
234.098
0
234.114
234.114
234.114
234.124
234.157
234.069
233.991
234.062
234.09
234.096
234.098
234.098
234.097
234.097
234.097
234.097
234.097
234.097
234.098
234.098
234.098
234.098
234.107
234.107
234.109
234.115
234.136
234.098
234.018
234.049
234.08
234.093
234.097
234.098
234.098
234.098
234.098
234.098
234.098
234.098
234.098
234.099
234.099
234.099
234.102
234.102
234.104
234.108
234.117
234.114
234.047
234.045
234.068
234.085
234.093
234.097
234.098
234.098
234.098
234.099
234.099
234.099
234.1
234.101
234.102
234.102
234.099
234.099
234.101
234.104
234.11
234.123
234.074
234.054
234.061
234.076
234.087
234.093
234.096
234.098
234.099
234.099
234.1
234.1
234.101
234.102
234.104
234.104
234.097
234.097
234.099
234.102
234.108
234.124
234.097
234.071
234.064
234.07
234.08
234.088
234.093
234.096
234.098
234.099
234.1
234.101
234.102
234.104
234.106
234.106
234.095
234.095
234.097
234.1
234.105
234.115
234.111
234.093
234.077
234.073
234.076
234.082
234.088
234.093
234.096
234.099
234.1
234.102
234.103
234.105
234.107
234.107
234.093
234.093
234.095
234.097
234.1
234.106
234.111
234.105
234.094
234.085
234.08
234.081
234.085
234.089
234.094
234.097
234.099
234.102
234.103
234.105
234.108
234.108
234.092
234.092
234.094
234.096
234.098
234.101
234.104
234.107
234.105
234.098
234.092
234.088
234.087
234.088
234.091
234.095
234.098
234.101
234.103
234.105
234.108
234.108
234.092
234.092
234.093
234.095
234.096
234.098
234.1
234.103
234.105
234.104
234.101
234.098
234.095
234.093
234.094
234.095
234.097
234.099
234.102
234.105
234.107
234.107
234.091
234.091
234.093
234.094
234.095
234.097
234.098
234.1
234.102
234.103
234.104
234.103
234.102
234.101
234.1
234.099
234.099
234.101
234.103
234.105
234.106
234.106
234.091
234.091
234.093
234.094
234.095
234.096
234.097
234.099
234.1
234.101
234.103
234.104
234.105
234.105
234.104
234.104
234.105
234.106
234.106
234.106
234.108
234.108
234.092
234.092
234.093
234.094
234.095
234.096
234.097
234.098
234.099
234.101
234.102
234.103
234.105
234.105
234.106
234.108
234.109
234.108
234.108
234.109
234.112
234.112
234.092
234.092
234.094
234.095
234.095
234.096
234.097
234.098
234.099
234.1
234.102
234.103
234.104
234.105
234.107
234.108
234.109
234.11
234.111
234.113
234.115
234.115
234.093
234.093
234.094
234.095
234.096
234.097
234.098
234.099
234.1
234.101
234.102
234.103
234.104
234.105
234.107
234.108
234.109
234.111
234.113
234.115
234.115
234.115
234.095
234.095
234.095
234.096
234.097
234.097
234.098
234.099
234.1
234.101
234.102
234.103
234.104
234.106
234.107
234.108
234.11
234.111
234.113
234.114
234.115
234.115
0
234.095
234.095
234.096
234.097
234.097
234.098
234.099
234.1
234.101
234.102
234.103
234.104
234.106
234.107
234.108
234.11
234.111
234.113
234.114
234.115
0
0
234.114
234.112
234.114
234.111
234.055
234.041
234.069
234.086
234.093
234.096
234.097
234.098
234.098
234.098
234.098
234.098
234.099
234.099
234.099
234.098
0
234.114
234.114
234.112
234.114
234.111
234.055
234.041
234.069
234.086
234.093
234.096
234.097
234.098
234.098
234.098
234.098
234.098
234.099
234.099
234.099
234.098
234.098
234.107
234.107
234.108
234.11
234.108
234.08
234.051
234.064
234.081
234.091
234.095
234.097
234.098
234.098
234.099
234.099
234.099
234.099
234.099
234.1
234.1
234.1
234.103
234.103
234.105
234.106
234.106
234.095
234.068
234.065
234.076
234.086
234.092
234.096
234.097
234.098
234.099
234.099
234.1
234.1
234.101
234.101
234.102
234.102
234.1
234.1
234.102
234.103
234.105
234.103
234.083
234.072
234.074
234.082
234.089
234.093
234.096
234.098
234.099
234.1
234.1
234.101
234.102
234.103
234.104
234.104
234.098
234.098
234.1
234.102
234.104
234.105
234.094
234.082
234.077
234.08
234.085
234.09
234.094
234.097
234.098
234.1
234.101
234.102
234.103
234.104
234.106
234.106
234.096
234.096
234.098
234.1
234.103
234.105
234.101
234.092
234.085
234.083
234.084
234.088
234.092
234.095
234.097
234.099
234.101
234.102
234.104
234.106
234.107
234.107
234.095
234.095
234.097
234.098
234.1
234.102
234.103
234.099
234.094
234.09
234.088
234.088
234.091
234.093
234.096
234.099
234.101
234.103
234.104
234.106
234.108
234.108
234.094
234.094
234.096
234.097
234.099
234.1
234.102
234.102
234.1
234.097
234.094
234.092
234.092
234.094
234.096
234.098
234.1
234.102
234.105
234.107
234.108
234.108
234.094
234.094
234.095
234.096
234.098
234.099
234.1
234.101
234.102
234.101
234.099
234.098
234.097
234.097
234.097
234.099
234.1
234.102
234.105
234.107
234.108
234.108
234.093
234.093
234.095
234.096
234.097
234.098
234.099
234.1
234.101
234.102
234.102
234.102
234.101
234.101
234.101
234.102
234.102
234.104
234.106
234.108
234.109
234.109
234.093
234.093
234.095
234.096
234.097
234.098
234.099
234.1
234.101
234.102
234.103
234.103
234.104
234.104
234.105
234.105
234.106
234.107
234.108
234.109
234.111
234.111
234.094
234.094
234.095
234.096
234.097
234.098
234.099
234.1
234.101
234.102
234.103
234.104
234.105
234.106
234.106
234.107
234.108
234.109
234.11
234.111
234.113
234.113
234.094
234.094
234.096
234.096
234.097
234.098
234.099
234.1
234.101
234.102
234.103
234.104
234.105
234.106
234.107
234.109
234.11
234.111
234.112
234.114
234.115
234.115
234.095
234.095
234.096
234.097
234.098
234.098
234.099
234.1
234.101
234.102
234.103
234.104
234.105
234.107
234.108
234.109
234.11
234.112
234.113
234.115
234.116
234.116
234.097
234.097
234.097
234.098
234.098
234.099
234.1
234.101
234.101
234.102
234.104
234.105
234.106
234.107
234.108
234.11
234.111
234.113
234.114
234.116
234.117
234.117
0
234.097
234.097
234.098
234.098
234.099
234.1
234.101
234.101
234.102