# vtk DataFile Version 3.0
FlowField
ASCII
DATASET STRUCTURED_GRID
DIMENSIONS 102 12 1 
POINTS 1224 double
0 0 0
0.3 0 0
0.6 0 0
0.9 0 0
1.2 0 0
1.5 0 0
1.8 0 0
2.1 0 0
2.4 0 0
2.7 0 0
3 0 0
3.3 0 0
3.6 0 0
3.9 0 0
4.2 0 0
4.5 0 0
4.8 0 0
5.1 0 0
5.4 0 0
5.7 0 0
6 0 0
6.3 0 0
6.6 0 0
6.9 0 0
7.2 0 0
7.5 0 0
7.8 0 0
8.1 0 0
8.4 0 0
8.7 0 0
9 0 0
9.3 0 0
9.6 0 0
9.9 0 0
10.2 0 0
10.5 0 0
10.8 0 0
11.1 0 0
11.4 0 0
11.7 0 0
12 0 0
12.3 0 0
12.6 0 0
12.9 0 0
13.2 0 0
13.5 0 0
13.8 0 0
14.1 0 0
14.4 0 0
14.7 0 0
15 0 0
15.3 0 0
15.6 0 0
15.9 0 0
16.2 0 0
16.5 0 0
16.8 0 0
17.1 0 0
17.4 0 0
17.7 0 0
18 0 0
18.3 0 0
18.6 0 0
18.9 0 0
19.2 0 0
19.5 0 0
19.8 0 0
20.1 0 0
20.4 0 0
20.7 0 0
21 0 0
21.3 0 0
21.6 0 0
21.9 0 0
22.2 0 0
22.5 0 0
22.8 0 0
23.1 0 0
23.4 0 0
23.7 0 0
24 0 0
24.3 0 0
24.6 0 0
24.9 0 0
25.2 0 0
25.5 0 0
25.8 0 0
26.1 0 0
26.4 0 0
26.7 0 0
27 0 0
27.3 0 0
27.6 0 0
27.9 0 0
28.2 0 0
28.5 0 0
28.8 0 0
29.1 0 0
29.4 0 0
29.7 0 0
30 0 0
30.3 0 0
0 0.1 0
0.3 0.1 0
0.6 0.1 0
0.9 0.1 0
1.2 0.1 0
1.5 0.1 0
1.8 0.1 0
2.1 0.1 0
2.4 0.1 0
2.7 0.1 0
3 0.1 0
3.3 0.1 0
3.6 0.1 0
3.9 0.1 0
4.2 0.1 0
4.5 0.1 0
4.8 0.1 0
5.1 0.1 0
5.4 0.1 0
5.7 0.1 0
6 0.1 0
6.3 0.1 0
6.6 0.1 0
6.9 0.1 0
7.2 0.1 0
7.5 0.1 0
7.8 0.1 0
8.1 0.1 0
8.4 0.1 0
8.7 0.1 0
9 0.1 0
9.3 0.1 0
9.6 0.1 0
9.9 0.1 0
10.2 0.1 0
10.5 0.1 0
10.8 0.1 0
11.1 0.1 0
11.4 0.1 0
11.7 0.1 0
12 0.1 0
12.3 0.1 0
12.6 0.1 0
12.9 0.1 0
13.2 0.1 0
13.5 0.1 0
13.8 0.1 0
14.1 0.1 0
14.4 0.1 0
14.7 0.1 0
15 0.1 0
15.3 0.1 0
15.6 0.1 0
15.9 0.1 0
16.2 0.1 0
16.5 0.1 0
16.8 0.1 0
17.1 0.1 0
17.4 0.1 0
17.7 0.1 0
18 0.1 0
18.3 0.1 0
18.6 0.1 0
18.9 0.1 0
19.2 0.1 0
19.5 0.1 0
19.8 0.1 0
20.1 0.1 0
20.4 0.1 0
20.7 0.1 0
21 0.1 0
21.3 0.1 0
21.6 0.1 0
21.9 0.1 0
22.2 0.1 0
22.5 0.1 0
22.8 0.1 0
23.1 0.1 0
23.4 0.1 0
23.7 0.1 0
24 0.1 0
24.3 0.1 0
24.6 0.1 0
24.9 0.1 0
25.2 0.1 0
25.5 0.1 0
25.8 0.1 0
26.1 0.1 0
26.4 0.1 0
26.7 0.1 0
27 0.1 0
27.3 0.1 0
27.6 0.1 0
27.9 0.1 0
28.2 0.1 0
28.5 0.1 0
28.8 0.1 0
29.1 0.1 0
29.4 0.1 0
29.7 0.1 0
30 0.1 0
30.3 0.1 0
0 0.2 0
0.3 0.2 0
0.6 0.2 0
0.9 0.2 0
1.2 0.2 0
1.5 0.2 0
1.8 0.2 0
2.1 0.2 0
2.4 0.2 0
2.7 0.2 0
3 0.2 0
3.3 0.2 0
3.6 0.2 0
3.9 0.2 0
4.2 0.2 0
4.5 0.2 0
4.8 0.2 0
5.1 0.2 0
5.4 0.2 0
5.7 0.2 0
6 0.2 0
6.3 0.2 0
6.6 0.2 0
6.9 0.2 0
7.2 0.2 0
7.5 0.2 0
7.8 0.2 0
8.1 0.2 0
8.4 0.2 0
8.7 0.2 0
9 0.2 0
9.3 0.2 0
9.6 0.2 0
9.9 0.2 0
10.2 0.2 0
10.5 0.2 0
10.8 0.2 0
11.1 0.2 0
11.4 0.2 0
11.7 0.2 0
12 0.2 0
12.3 0.2 0
12.6 0.2 0
12.9 0.2 0
13.2 0.2 0
13.5 0.2 0
13.8 0.2 0
14.1 0.2 0
14.4 0.2 0
14.7 0.2 0
15 0.2 0
15.3 0.2 0
15.6 0.2 0
15.9 0.2 0
16.2 0.2 0
16.5 0.2 0
16.8 0.2 0
17.1 0.2 0
17.4 0.2 0
17.7 0.2 0
18 0.2 0
18.3 0.2 0
18.6 0.2 0
18.9 0.2 0
19.2 0.2 0
19.5 0.2 0
19.8 0.2 0
20.1 0.2 0
20.4 0.2 0
20.7 0.2 0
21 0.2 0
21.3 0.2 0
21.6 0.2 0
21.9 0.2 0
22.2 0.2 0
22.5 0.2 0
22.8 0.2 0
23.1 0.2 0
23.4 0.2 0
23.7 0.2 0
24 0.2 0
24.3 0.2 0
24.6 0.2 0
24.9 0.2 0
25.2 0.2 0
25.5 0.2 0
25.8 0.2 0
26.1 0.2 0
26.4 0.2 0
26.7 0.2 0
27 0.2 0
27.3 0.2 0
27.6 0.2 0
27.9 0.2 0
28.2 0.2 0
28.5 0.2 0
28.8 0.2 0
29.1 0.2 0
29.4 0.2 0
29.7 0.2 0
30 0.2 0
30.3 0.2 0
0 0.3 0
0.3 0.3 0
0.6 0.3 0
0.9 0.3 0
1.2 0.3 0
1.5 0.3 0
1.8 0.3 0
2.1 0.3 0
2.4 0.3 0
2.7 0.3 0
3 0.3 0
3.3 0.3 0
3.6 0.3 0
3.9 0.3 0
4.2 0.3 0
4.5 0.3 0
4.8 0.3 0
5.1 0.3 0
5.4 0.3 0
5.7 0.3 0
6 0.3 0
6.3 0.3 0
6.6 0.3 0
6.9 0.3 0
7.2 0.3 0
7.5 0.3 0
7.8 0.3 0
8.1 0.3 0
8.4 0.3 0
8.7 0.3 0
9 0.3 0
9.3 0.3 0
9.6 0.3 0
9.9 0.3 0
10.2 0.3 0
10.5 0.3 0
10.8 0.3 0
11.1 0.3 0
11.4 0.3 0
11.7 0.3 0
12 0.3 0
12.3 0.3 0
12.6 0.3 0
12.9 0.3 0
13.2 0.3 0
13.5 0.3 0
13.8 0.3 0
14.1 0.3 0
14.4 0.3 0
14.7 0.3 0
15 0.3 0
15.3 0.3 0
15.6 0.3 0
15.9 0.3 0
16.2 0.3 0
16.5 0.3 0
16.8 0.3 0
17.1 0.3 0
17.4 0.3 0
17.7 0.3 0
18 0.3 0
18.3 0.3 0
18.6 0.3 0
18.9 0.3 0
19.2 0.3 0
19.5 0.3 0
19.8 0.3 0
20.1 0.3 0
20.4 0.3 0
20.7 0.3 0
21 0.3 0
21.3 0.3 0
21.6 0.3 0
21.9 0.3 0
22.2 0.3 0
22.5 0.3 0
22.8 0.3 0
23.1 0.3 0
23.4 0.3 0
23.7 0.3 0
24 0.3 0
24.3 0.3 0
24.6 0.3 0
24.9 0.3 0
25.2 0.3 0
25.5 0.3 0
25.8 0.3 0
26.1 0.3 0
26.4 0.3 0
26.7 0.3 0
27 0.3 0
27.3 0.3 0
27.6 0.3 0
27.9 0.3 0
28.2 0.3 0
28.5 0.3 0
28.8 0.3 0
29.1 0.3 0
29.4 0.3 0
29.7 0.3 0
30 0.3 0
30.3 0.3 0
0 0.4 0
0.3 0.4 0
0.6 0.4 0
0.9 0.4 0
1.2 0.4 0
1.5 0.4 0
1.8 0.4 0
2.1 0.4 0
2.4 0.4 0
2.7 0.4 0
3 0.4 0
3.3 0.4 0
3.6 0.4 0
3.9 0.4 0
4.2 0.4 0
4.5 0.4 0
4.8 0.4 0
5.1 0.4 0
5.4 0.4 0
5.7 0.4 0
6 0.4 0
6.3 0.4 0
6.6 0.4 0
6.9 0.4 0
7.2 0.4 0
7.5 0.4 0
7.8 0.4 0
8.1 0.4 0
8.4 0.4 0
8.7 0.4 0
9 0.4 0
9.3 0.4 0
9.6 0.4 0
9.9 0.4 0
10.2 0.4 0
10.5 0.4 0
10.8 0.4 0
11.1 0.4 0
11.4 0.4 0
11.7 0.4 0
12 0.4 0
12.3 0.4 0
12.6 0.4 0
12.9 0.4 0
13.2 0.4 0
13.5 0.4 0
13.8 0.4 0
14.1 0.4 0
14.4 0.4 0
14.7 0.4 0
15 0.4 0
15.3 0.4 0
15.6 0.4 0
15.9 0.4 0
16.2 0.4 0
16.5 0.4 0
16.8 0.4 0
17.1 0.4 0
17.4 0.4 0
17.7 0.4 0
18 0.4 0
18.3 0.4 0
18.6 0.4 0
18.9 0.4 0
19.2 0.4 0
19.5 0.4 0
19.8 0.4 0
20.1 0.4 0
20.4 0.4 0
20.7 0.4 0
21 0.4 0
21.3 0.4 0
21.6 0.4 0
21.9 0.4 0
22.2 0.4 0
22.5 0.4 0
22.8 0.4 0
23.1 0.4 0
23.4 0.4 0
23.7 0.4 0
24 0.4 0
24.3 0.4 0
24.6 0.4 0
24.9 0.4 0
25.2 0.4 0
25.5 0.4 0
25.8 0.4 0
26.1 0.4 0
26.4 0.4 0
26.7 0.4 0
27 0.4 0
27.3 0.4 0
27.6 0.4 0
27.9 0.4 0
28.2 0.4 0
28.5 0.4 0
28.8 0.4 0
29.1 0.4 0
29.4 0.4 0
29.7 0.4 0
30 0.4 0
30.3 0.4 0
0 0.5 0
0.3 0.5 0
0.6 0.5 0
0.9 0.5 0
1.2 0.5 0
1.5 0.5 0
1.8 0.5 0
2.1 0.5 0
2.4 0.5 0
2.7 0.5 0
3 0.5 0
3.3 0.5 0
3.6 0.5 0
3.9 0.5 0
4.2 0.5 0
4.5 0.5 0
4.8 0.5 0
5.1 0.5 0
5.4 0.5 0
5.7 0.5 0
6 0.5 0
6.3 0.5 0
6.6 0.5 0
6.9 0.5 0
7.2 0.5 0
7.5 0.5 0
7.8 0.5 0
8.1 0.5 0
8.4 0.5 0
8.7 0.5 0
9 0.5 0
9.3 0.5 0
9.6 0.5 0
9.9 0.5 0
10.2 0.5 0
10.5 0.5 0
10.8 0.5 0
11.1 0.5 0
11.4 0.5 0
11.7 0.5 0
12 0.5 0
12.3 0.5 0
12.6 0.5 0
12.9 0.5 0
13.2 0.5 0
13.5 0.5 0
13.8 0.5 0
14.1 0.5 0
14.4 0.5 0
14.7 0.5 0
15 0.5 0
15.3 0.5 0
15.6 0.5 0
15.9 0.5 0
16.2 0.5 0
16.5 0.5 0
16.8 0.5 0
17.1 0.5 0
17.4 0.5 0
17.7 0.5 0
18 0.5 0
18.3 0.5 0
18.6 0.5 0
18.9 0.5 0
19.2 0.5 0
19.5 0.5 0
19.8 0.5 0
20.1 0.5 0
20.4 0.5 0
20.7 0.5 0
21 0.5 0
21.3 0.5 0
21.6 0.5 0
21.9 0.5 0
22.2 0.5 0
22.5 0.5 0
22.8 0.5 0
23.1 0.5 0
23.4 0.5 0
23.7 0.5 0
24 0.5 0
24.3 0.5 0
24.6 0.5 0
24.9 0.5 0
25.2 0.5 0
25.5 0.5 0
25.8 0.5 0
26.1 0.5 0
26.4 0.5 0
26.7 0.5 0
27 0.5 0
27.3 0.5 0
27.6 0.5 0
27.9 0.5 0
28.2 0.5 0
28.5 0.5 0
28.8 0.5 0
29.1 0.5 0
29.4 0.5 0
29.7 0.5 0
30 0.5 0
30.3 0.5 0
0 0.6 0
0.3 0.6 0
0.6 0.6 0
0.9 0.6 0
1.2 0.6 0
1.5 0.6 0
1.8 0.6 0
2.1 0.6 0
2.4 0.6 0
2.7 0.6 0
3 0.6 0
3.3 0.6 0
3.6 0.6 0
3.9 0.6 0
4.2 0.6 0
4.5 0.6 0
4.8 0.6 0
5.1 0.6 0
5.4 0.6 0
5.7 0.6 0
6 0.6 0
6.3 0.6 0
6.6 0.6 0
6.9 0.6 0
7.2 0.6 0
7.5 0.6 0
7.8 0.6 0
8.1 0.6 0
8.4 0.6 0
8.7 0.6 0
9 0.6 0
9.3 0.6 0
9.6 0.6 0
9.9 0.6 0
10.2 0.6 0
10.5 0.6 0
10.8 0.6 0
11.1 0.6 0
11.4 0.6 0
11.7 0.6 0
12 0.6 0
12.3 0.6 0
12.6 0.6 0
12.9 0.6 0
13.2 0.6 0
13.5 0.6 0
13.8 0.6 0
14.1 0.6 0
14.4 0.6 0
14.7 0.6 0
15 0.6 0
15.3 0.6 0
15.6 0.6 0
15.9 0.6 0
16.2 0.6 0
16.5 0.6 0
16.8 0.6 0
17.1 0.6 0
17.4 0.6 0
17.7 0.6 0
18 0.6 0
18.3 0.6 0
18.6 0.6 0
18.9 0.6 0
19.2 0.6 0
19.5 0.6 0
19.8 0.6 0
20.1 0.6 0
20.4 0.6 0
20.7 0.6 0
21 0.6 0
21.3 0.6 0
21.6 0.6 0
21.9 0.6 0
22.2 0.6 0
22.5 0.6 0
22.8 0.6 0
23.1 0.6 0
23.4 0.6 0
23.7 0.6 0
24 0.6 0
24.3 0.6 0
24.6 0.6 0
24.9 0.6 0
25.2 0.6 0
25.5 0.6 0
25.8 0.6 0
26.1 0.6 0
26.4 0.6 0
26.7 0.6 0
27 0.6 0
27.3 0.6 0
27.6 0.6 0
27.9 0.6 0
28.2 0.6 0
28.5 0.6 0
28.8 0.6 0
29.1 0.6 0
29.4 0.6 0
29.7 0.6 0
30 0.6 0
30.3 0.6 0
0 0.7 0
0.3 0.7 0
0.6 0.7 0
0.9 0.7 0
1.2 0.7 0
1.5 0.7 0
1.8 0.7 0
2.1 0.7 0
2.4 0.7 0
2.7 0.7 0
3 0.7 0
3.3 0.7 0
3.6 0.7 0
3.9 0.7 0
4.2 0.7 0
4.5 0.7 0
4.8 0.7 0
5.1 0.7 0
5.4 0.7 0
5.7 0.7 0
6 0.7 0
6.3 0.7 0
6.6 0.7 0
6.9 0.7 0
7.2 0.7 0
7.5 0.7 0
7.8 0.7 0
8.1 0.7 0
8.4 0.7 0
8.7 0.7 0
9 0.7 0
9.3 0.7 0
9.6 0.7 0
9.9 0.7 0
10.2 0.7 0
10.5 0.7 0
10.8 0.7 0
11.1 0.7 0
11.4 0.7 0
11.7 0.7 0
12 0.7 0
12.3 0.7 0
12.6 0.7 0
12.9 0.7 0
13.2 0.7 0
13.5 0.7 0
13.8 0.7 0
14.1 0.7 0
14.4 0.7 0
14.7 0.7 0
15 0.7 0
15.3 0.7 0
15.6 0.7 0
15.9 0.7 0
16.2 0.7 0
16.5 0.7 0
16.8 0.7 0
17.1 0.7 0
17.4 0.7 0
17.7 0.7 0
18 0.7 0
18.3 0.7 0
18.6 0.7 0
18.9 0.7 0
19.2 0.7 0
19.5 0.7 0
19.8 0.7 0
20.1 0.7 0
20.4 0.7 0
20.7 0.7 0
21 0.7 0
21.3 0.7 0
21.6 0.7 0
21.9 0.7 0
22.2 0.7 0
22.5 0.7 0
22.8 0.7 0
23.1 0.7 0
23.4 0.7 0
23.7 0.7 0
24 0.7 0
24.3 0.7 0
24.6 0.7 0
24.9 0.7 0
25.2 0.7 0
25.5 0.7 0
25.8 0.7 0
26.1 0.7 0
26.4 0.7 0
26.7 0.7 0
27 0.7 0
27.3 0.7 0
27.6 0.7 0
27.9 0.7 0
28.2 0.7 0
28.5 0.7 0
28.8 0.7 0
29.1 0.7 0
29.4 0.7 0
29.7 0.7 0
30 0.7 0
30.3 0.7 0
0 0.8 0
0.3 0.8 0
0.6 0.8 0
0.9 0.8 0
1.2 0.8 0
1.5 0.8 0
1.8 0.8 0
2.1 0.8 0
2.4 0.8 0
2.7 0.8 0
3 0.8 0
3.3 0.8 0
3.6 0.8 0
3.9 0.8 0
4.2 0.8 0
4.5 0.8 0
4.8 0.8 0
5.1 0.8 0
5.4 0.8 0
5.7 0.8 0
6 0.8 0
6.3 0.8 0
6.6 0.8 0
6.9 0.8 0
7.2 0.8 0
7.5 0.8 0
7.8 0.8 0
8.1 0.8 0
8.4 0.8 0
8.7 0.8 0
9 0.8 0
9.3 0.8 0
9.6 0.8 0
9.9 0.8 0
10.2 0.8 0
10.5 0.8 0
10.8 0.8 0
11.1 0.8 0
11.4 0.8 0
11.7 0.8 0
12 0.8 0
12.3 0.8 0
12.6 0.8 0
12.9 0.8 0
13.2 0.8 0
13.5 0.8 0
13.8 0.8 0
14.1 0.8 0
14.4 0.8 0
14.7 0.8 0
15 0.8 0
15.3 0.8 0
15.6 0.8 0
15.9 0.8 0
16.2 0.8 0
16.5 0.8 0
16.8 0.8 0
17.1 0.8 0
17.4 0.8 0
17.7 0.8 0
18 0.8 0
18.3 0.8 0
18.6 0.8 0
18.9 0.8 0
19.2 0.8 0
19.5 0.8 0
19.8 0.8 0
20.1 0.8 0
20.4 0.8 0
20.7 0.8 0
21 0.8 0
21.3 0.8 0
21.6 0.8 0
21.9 0.8 0
22.2 0.8 0
22.5 0.8 0
22.8 0.8 0
23.1 0.8 0
23.4 0.8 0
23.7 0.8 0
24 0.8 0
24.3 0.8 0
24.6 0.8 0
24.9 0.8 0
25.2 0.8 0
25.5 0.8 0
25.8 0.8 0
26.1 0.8 0
26.4 0.8 0
26.7 0.8 0
27 0.8 0
27.3 0.8 0
27.6 0.8 0
27.9 0.8 0
28.2 0.8 0
28.5 0.8 0
28.8 0.8 0
29.1 0.8 0
29.4 0.8 0
29.7 0.8 0
30 0.8 0
30.3 0.8 0
0 0.9 0
0.3 0.9 0
0.6 0.9 0
0.9 0.9 0
1.2 0.9 0
1.5 0.9 0
1.8 0.9 0
2.1 0.9 0
2.4 0.9 0
2.7 0.9 0
3 0.9 0
3.3 0.9 0
3.6 0.9 0
3.9 0.9 0
4.2 0.9 0
4.5 0.9 0
4.8 0.9 0
5.1 0.9 0
5.4 0.9 0
5.7 0.9 0
6 0.9 0
6.3 0.9 0
6.6 0.9 0
6.9 0.9 0
7.2 0.9 0
7.5 0.9 0
7.8 0.9 0
8.1 0.9 0
8.4 0.9 0
8.7 0.9 0
9 0.9 0
9.3 0.9 0
9.6 0.9 0
9.9 0.9 0
10.2 0.9 0
10.5 0.9 0
10.8 0.9 0
11.1 0.9 0
11.4 0.9 0
11.7 0.9 0
12 0.9 0
12.3 0.9 0
12.6 0.9 0
12.9 0.9 0
13.2 0.9 0
13.5 0.9 0
13.8 0.9 0
14.1 0.9 0
14.4 0.9 0
14.7 0.9 0
15 0.9 0
15.3 0.9 0
15.6 0.9 0
15.9 0.9 0
16.2 0.9 0
16.5 0.9 0
16.8 0.9 0
17.1 0.9 0
17.4 0.9 0
17.7 0.9 0
18 0.9 0
18.3 0.9 0
18.6 0.9 0
18.9 0.9 0
19.2 0.9 0
19.5 0.9 0
19.8 0.9 0
20.1 0.9 0
20.4 0.9 0
20.7 0.9 0
21 0.9 0
21.3 0.9 0
21.6 0.9 0
21.9 0.9 0
22.2 0.9 0
22.5 0.9 0
22.8 0.9 0
23.1 0.9 0
23.4 0.9 0
23.7 0.9 0
24 0.9 0
24.3 0.9 0
24.6 0.9 0
24.9 0.9 0
25.2 0.9 0
25.5 0.9 0
25.8 0.9 0
26.1 0.9 0
26.4 0.9 0
26.7 0.9 0
27 0.9 0
27.3 0.9 0
27.6 0.9 0
27.9 0.9 0
28.2 0.9 0
28.5 0.9 0
28.8 0.9 0
29.1 0.9 0
29.4 0.9 0
29.7 0.9 0
30 0.9 0
30.3 0.9 0
0 1 0
0.3 1 0
0.6 1 0
0.9 1 0
1.2 1 0
1.5 1 0
1.8 1 0
2.1 1 0
2.4 1 0
2.7 1 0
3 1 0
3.3 1 0
3.6 1 0
3.9 1 0
4.2 1 0
4.5 1 0
4.8 1 0
5.1 1 0
5.4 1 0
5.7 1 0
6 1 0
6.3 1 0
6.6 1 0
6.9 1 0
7.2 1 0
7.5 1 0
7.8 1 0
8.1 1 0
8.4 1 0
8.7 1 0
9 1 0
9.3 1 0
9.6 1 0
9.9 1 0
10.2 1 0
10.5 1 0
10.8 1 0
11.1 1 0
11.4 1 0
11.7 1 0
12 1 0
12.3 1 0
12.6 1 0
12.9 1 0
13.2 1 0
13.5 1 0
13.8 1 0
14.1 1 0
14.4 1 0
14.7 1 0
15 1 0
15.3 1 0
15.6 1 0
15.9 1 0
16.2 1 0
16.5 1 0
16.8 1 0
17.1 1 0
17.4 1 0
17.7 1 0
18 1 0
18.3 1 0
18.6 1 0
18.9 1 0
19.2 1 0
19.5 1 0
19.8 1 0
20.1 1 0
20.4 1 0
20.7 1 0
21 1 0
21.3 1 0
21.6 1 0
21.9 1 0
22.2 1 0
22.5 1 0
22.8 1 0
23.1 1 0
23.4 1 0
23.7 1 0
24 1 0
24.3 1 0
24.6 1 0
24.9 1 0
25.2 1 0
25.5 1 0
25.8 1 0
26.1 1 0
26.4 1 0
26.7 1 0
27 1 0
27.3 1 0
27.6 1 0
27.9 1 0
28.2 1 0
28.5 1 0
28.8 1 0
29.1 1 0
29.4 1 0
29.7 1 0
30 1 0
30.3 1 0
0 1.1 0
0.3 1.1 0
0.6 1.1 0
0.9 1.1 0
1.2 1.1 0
1.5 1.1 0
1.8 1.1 0
2.1 1.1 0
2.4 1.1 0
2.7 1.1 0
3 1.1 0
3.3 1.1 0
3.6 1.1 0
3.9 1.1 0
4.2 1.1 0
4.5 1.1 0
4.8 1.1 0
5.1 1.1 0
5.4 1.1 0
5.7 1.1 0
6 1.1 0
6.3 1.1 0
6.6 1.1 0
6.9 1.1 0
7.2 1.1 0
7.5 1.1 0
7.8 1.1 0
8.1 1.1 0
8.4 1.1 0
8.7 1.1 0
9 1.1 0
9.3 1.1 0
9.6 1.1 0
9.9 1.1 0
10.2 1.1 0
10.5 1.1 0
10.8 1.1 0
11.1 1.1 0
11.4 1.1 0
11.7 1.1 0
12 1.1 0
12.3 1.1 0
12.6 1.1 0
12.9 1.1 0
13.2 1.1 0
13.5 1.1 0
13.8 1.1 0
14.1 1.1 0
14.4 1.1 0
14.7 1.1 0
15 1.1 0
15.3 1.1 0
15.6 1.1 0
15.9 1.1 0
16.2 1.1 0
16.5 1.1 0
16.8 1.1 0
17.1 1.1 0
17.4 1.1 0
17.7 1.1 0
18 1.1 0
18.3 1.1 0
18.6 1.1 0
18.9 1.1 0
19.2 1.1 0
19.5 1.1 0
19.8 1.1 0
20.1 1.1 0
20.4 1.1 0
20.7 1.1 0
21 1.1 0
21.3 1.1 0
21.6 1.1 0
21.9 1.1 0
22.2 1.1 0
22.5 1.1 0
22.8 1.1 0
23.1 1.1 0
23.4 1.1 0
23.7 1.1 0
24 1.1 0
24.3 1.1 0
24.6 1.1 0
24.9 1.1 0
25.2 1.1 0
25.5 1.1 0
25.8 1.1 0
26.1 1.1 0
26.4 1.1 0
26.7 1.1 0
27 1.1 0
27.3 1.1 0
27.6 1.1 0
27.9 1.1 0
28.2 1.1 0
28.5 1.1 0
28.8 1.1 0
29.1 1.1 0
29.4 1.1 0
29.7 1.1 0
30 1.1 0
30.3 1.1 0

POINT_DATA 1224

SCALARS pressure double
LOOKUP_TABLE pressure
1.31568
1.31568
1.24917
1.20209
1.15913
1.11948
1.08346
1.05107
1.02197
0.995631
0.971523
0.949172
0.928197
0.908315
0.88931
0.871021
0.853329
0.836148
0.819409
0.803058
0.787055
0.771364
0.755953
0.7408
0.725884
0.711183
0.696681
0.682362
0.668214
0.654223
0.640379
0.62667
0.613087
0.599621
0.586266
0.573012
0.559853
0.546783
0.533796
0.520887
0.50805
0.495281
0.482575
0.469928
0.457337
0.444798
0.432308
0.419863
0.40746
0.395098
0.382773
0.370483
0.358226
0.346
0.333803
0.321632
0.309487
0.297366
0.285267
0.273189
0.261131
0.249091
0.237068
0.225061
0.21307
0.201092
0.189128
0.177176
0.165236
0.153307
0.141388
0.129479
0.117579
0.105687
0.0938035
0.0819271
0.0700578
0.0581949
0.0463383
0.0344874
0.0226419
0.0108016
-0.00103377
-0.0128646
-0.0246911
-0.0365134
-0.0483318
-0.0601464
-0.0719575
-0.0837653
-0.0955699
-0.107371
-0.11917
-0.130966
-0.14276
-0.154551
-0.16634
-0.178128
-0.189913
-0.201697
-0.213479
0.213479
1.31568
1.31568
1.24917
1.20209
1.15913
1.11948
1.08346
1.05107
1.02197
0.995631
0.971523
0.949172
0.928197
0.908315
0.88931
0.871021
0.853329
0.836148
0.819409
0.803058
0.787055
0.771364
0.755953
0.7408
0.725884
0.711183
0.696681
0.682362
0.668214
0.654223
0.640379
0.62667
0.613087
0.599621
0.586266
0.573012
0.559853
0.546783
0.533796
0.520887
0.50805
0.495281
0.482575
0.469928
0.457337
0.444798
0.432308
0.419863
0.40746
0.395098
0.382773
0.370483
0.358226
0.346
0.333803
0.321632
0.309487
0.297366
0.285267
0.273189
0.261131
0.249091
0.237068
0.225061
0.21307
0.201092
0.189128
0.177176
0.165236
0.153307
0.141388
0.129479
0.117579
0.105687
0.0938035
0.0819271
0.0700578
0.0581949
0.0463383
0.0344874
0.0226419
0.0108016
-0.00103377
-0.0128646
-0.0246911
-0.0365134
-0.0483318
-0.0601464
-0.0719575
-0.0837653
-0.0955699
-0.107371
-0.11917
-0.130966
-0.14276
-0.154551
-0.16634
-0.178128
-0.189913
-0.201697
-0.213479
0.213479
1.29503
1.29503
1.24737
1.2024
1.15985
1.12025
1.08416
1.05166
1.02244
0.996002
0.971809
0.949392
0.92837
0.908453
0.889422
0.871112
0.853406
0.836215
0.819467
0.803109
0.787101
0.771404
0.755989
0.740833
0.725914
0.71121
0.696706
0.682385
0.668235
0.654243
0.640397
0.626686
0.613102
0.599636
0.586279
0.573024
0.559864
0.546794
0.533806
0.520896
0.508058
0.495288
0.482582
0.469935
0.457343
0.444804
0.432313
0.419868
0.407465
0.395102
0.382777
0.370487
0.35823
0.346003
0.333806
0.321635
0.30949
0.297369
0.28527
0.273192
0.261133
0.249093
0.23707
0.225063
0.213071
0.201094
0.18913
0.177178
0.165238
0.153308
0.14139
0.12948
0.11758
0.105688
0.0938044
0.081928
0.0700585
0.0581957
0.0463389
0.034488
0.0226425
0.0108022
-0.00103328
-0.0128641
-0.0246906
-0.036513
-0.0483314
-0.0601461
-0.0719573
-0.083765
-0.0955697
-0.107371
-0.11917
-0.130966
-0.14276
-0.154551
-0.16634
-0.178128
-0.189913
-0.201697
-0.213479
0.213479
1.28064
1.28064
1.24486
1.20279
1.16098
1.12151
1.08533
1.05266
1.02323
0.996609
0.972266
0.949732
0.928625
0.908647
0.889572
0.871231
0.853502
0.836294
0.819532
0.803165
0.787149
0.771446
0.756027
0.740867
0.725944
0.711237
0.696729
0.682407
0.668255
0.654261
0.640413
0.626701
0.613115
0.599648
0.58629
0.573034
0.559874
0.546803
0.533814
0.520904
0.508065
0.495295
0.482588
0.469941
0.457349
0.444809
0.432318
0.419872
0.407469
0.395106
0.382781
0.37049
0.358233
0.346006
0.333808
0.321638
0.309493
0.297371
0.285272
0.273194
0.261135
0.249095
0.237071
0.225064
0.213073
0.201095
0.189131
0.177179
0.165239
0.153309
0.14139
0.129481
0.117581
0.105689
0.0938051
0.0819286
0.0700591
0.0581962
0.0463395
0.0344885
0.022643
0.0108026
-0.00103288
-0.0128638
-0.0246903
-0.0365127
-0.0483311
-0.0601459
-0.071957
-0.0837648
-0.0955695
-0.107371
-0.11917
-0.130966
-0.14276
-0.154551
-0.16634
-0.178127
-0.189913
-0.201697
-0.213477
0.213477
1.27195
1.27195
1.24285
1.20305
1.16191
1.12259
1.08636
1.05355
1.02397
0.997188
0.972714
0.950077
0.928892
0.908856
0.889737
0.871364
0.853612
0.836385
0.81961
0.803232
0.787207
0.771497
0.756072
0.740907
0.725979
0.711268
0.696758
0.682433
0.668278
0.654282
0.640432
0.626718
0.613132
0.599663
0.586304
0.573047
0.559885
0.546813
0.533824
0.520913
0.508074
0.495303
0.482595
0.469947
0.457355
0.444815
0.432323
0.419877
0.407474
0.39511
0.382785
0.370494
0.358236
0.346009
0.333812
0.321641
0.309495
0.297373
0.285274
0.273196
0.261137
0.249096
0.237073
0.225066
0.213074
0.201096
0.189132
0.17718
0.16524
0.15331
0.141391
0.129482
0.117582
0.10569
0.0938059
0.0819294
0.0700599
0.0581969
0.0463401
0.0344891
0.0226435
0.0108031
-0.0010324
-0.0128633
-0.0246899
-0.0365123
-0.0483308
-0.0601455
-0.0719567
-0.0837645
-0.0955692
-0.107371
-0.11917
-0.130966
-0.142759
-0.154551
-0.16634
-0.178127
-0.189913
-0.201696
-0.213474
0.213474
1.26787
1.26787
1.24177
1.20317
1.1624
1.12318
1.08693
1.05405
1.02438
0.997523
0.972978
0.950284
0.929055
0.908986
0.889842
0.871451
0.853685
0.836447
0.819664
0.803279
0.787248
0.771533
0.756104
0.740936
0.726005
0.711292
0.69678
0.682452
0.668296
0.654298
0.640447
0.626732
0.613144
0.599674
0.586314
0.573057
0.559894
0.546821
0.533832
0.52092
0.50808
0.495309
0.482601
0.469953
0.45736
0.444819
0.432327
0.419881
0.407477
0.395114
0.382788
0.370497
0.358239
0.346012
0.333814
0.321643
0.309497
0.297375
0.285276
0.273197
0.261138
0.249098
0.237075
0.225067
0.213075
0.201098
0.189133
0.177181
0.165241
0.153311
0.141392
0.129483
0.117582
0.105691
0.0938065
0.08193
0.0700604
0.0581974
0.0463406
0.0344895
0.022644
0.0108035
-0.00103201
-0.0128629
-0.0246895
-0.036512
-0.0483305
-0.0601452
-0.0719564
-0.0837643
-0.0955689
-0.107371
-0.119169
-0.130966
-0.142759
-0.154551
-0.16634
-0.178127
-0.189912
-0.201695
-0.213472
0.213472
1.26787
1.26787
1.24177
1.20317
1.1624
1.12318
1.08693
1.05405
1.02438
0.997523
0.972977
0.950284
0.929056
0.908986
0.889842
0.871451
0.853685
0.836447
0.819664
0.803279
0.787248
0.771533
0.756105
0.740936
0.726005
0.711292
0.69678
0.682452
0.668296
0.654298
0.640447
0.626732
0.613144
0.599674
0.586314
0.573057
0.559894
0.546821
0.533832
0.52092
0.50808
0.495309
0.482601
0.469953
0.45736
0.444819
0.432327
0.419881
0.407477
0.395114
0.382788
0.370497
0.358239
0.346012
0.333814
0.321643
0.309497
0.297375
0.285276
0.273197
0.261138
0.249098
0.237075
0.225067
0.213075
0.201098
0.189133
0.177181
0.165241
0.153311
0.141392
0.129483
0.117582
0.105691
0.0938065
0.08193
0.0700604
0.0581974
0.0463406
0.0344895
0.022644
0.0108035
-0.00103201
-0.0128629
-0.0246895
-0.036512
-0.0483305
-0.0601452
-0.0719564
-0.0837643
-0.0955689
-0.107371
-0.119169
-0.130966
-0.142759
-0.154551
-0.16634
-0.178127
-0.189912
-0.201695
-0.213472
0.213472
1.27195
1.27195
1.24285
1.20305
1.16191
1.12259
1.08636
1.05355
1.02397
0.997189
0.972713
0.950077
0.928892
0.908856
0.889736
0.871364
0.853612
0.836385
0.81961
0.803232
0.787207
0.771497
0.756072
0.740907
0.725979
0.711268
0.696758
0.682433
0.668278
0.654282
0.640432
0.626719
0.613132
0.599663
0.586304
0.573047
0.559885
0.546813
0.533824
0.520913
0.508074
0.495303
0.482595
0.469947
0.457355
0.444815
0.432323
0.419877
0.407474
0.39511
0.382785
0.370494
0.358236
0.346009
0.333812
0.321641
0.309495
0.297374
0.285274
0.273196
0.261137
0.249096
0.237073
0.225066
0.213074
0.201096
0.189132
0.17718
0.16524
0.15331
0.141391
0.129482
0.117582
0.10569
0.0938059
0.0819294
0.0700598
0.0581969
0.0463401
0.0344891
0.0226435
0.0108031
-0.0010324
-0.0128633
-0.0246899
-0.0365123
-0.0483308
-0.0601455
-0.0719567
-0.0837645
-0.0955692
-0.107371
-0.11917
-0.130966
-0.142759
-0.154551
-0.16634
-0.178127
-0.189913
-0.201696
-0.213474
0.213474
1.28064
1.28064
1.24486
1.20279
1.16098
1.12151
1.08533
1.05265
1.02323
0.99661
0.972265
0.949732
0.928626
0.908648
0.889571
0.871231
0.853503
0.836293
0.819532
0.803166
0.787149
0.771446
0.756027
0.740867
0.725943
0.711236
0.69673
0.682407
0.668255
0.65426
0.640413
0.626701
0.613116
0.599648
0.58629
0.573034
0.559874
0.546802
0.533814
0.520904
0.508065
0.495295
0.482588
0.469941
0.457349
0.444809
0.432318
0.419872
0.407469
0.395106
0.382781
0.37049
0.358233
0.346006
0.333808
0.321638
0.309493
0.297371
0.285272
0.273194
0.261135
0.249095
0.237071
0.225064
0.213073
0.201095
0.189131
0.177179
0.165239
0.153309
0.14139
0.129481
0.117581
0.105689
0.0938051
0.0819286
0.0700591
0.0581962
0.0463395
0.0344885
0.022643
0.0108026
-0.00103288
-0.0128638
-0.0246903
-0.0365127
-0.0483311
-0.0601459
-0.071957
-0.0837648
-0.0955695
-0.107371
-0.11917
-0.130966
-0.14276
-0.154551
-0.16634
-0.178127
-0.189913
-0.201697
-0.213477
0.213477
1.29503
1.29503
1.24737
1.2024
1.15985
1.12025
1.08416
1.05166
1.02244
0.996003
0.971809
0.949391
0.928371
0.908453
0.889421
0.871113
0.853407
0.836214
0.819466
0.80311
0.7871
0.771404
0.75599
0.740834
0.725914
0.71121
0.696706
0.682385
0.668235
0.654243
0.640396
0.626686
0.613102
0.599635
0.586279
0.573024
0.559864
0.546794
0.533806
0.520896
0.508058
0.495288
0.482582
0.469935
0.457343
0.444804
0.432313
0.419868
0.407465
0.395102
0.382777
0.370487
0.35823
0.346003
0.333806
0.321635
0.30949
0.297369
0.28527
0.273192
0.261133
0.249093
0.23707
0.225063
0.213071
0.201094
0.189129
0.177178
0.165238
0.153308
0.14139
0.12948
0.11758
0.105688
0.0938044
0.081928
0.0700585
0.0581956
0.0463389
0.034488
0.0226425
0.0108022
-0.00103328
-0.0128641
-0.0246906
-0.036513
-0.0483314
-0.0601461
-0.0719573
-0.083765
-0.0955697
-0.107371
-0.11917
-0.130966
-0.14276
-0.154551
-0.16634
-0.178128
-0.189913
-0.201697
-0.213479
0.213479
1.31568
1.31568
1.24917
1.20209
1.15913
1.11948
1.08346
1.05107
1.02197
0.995634
0.971523
0.94917
0.928198
0.908316
0.88931
0.871021
0.853329
0.836148
0.819409
0.803059
0.787055
0.771363
0.755954
0.740801
0.725884
0.711183
0.696681
0.682362
0.668214
0.654223
0.640379
0.62667
0.613087
0.599621
0.586266
0.573012
0.559853
0.546783
0.533796
0.520887
0.50805
0.495281
0.482575
0.469928
0.457337
0.444798
0.432308
0.419863
0.40746
0.395098
0.382773
0.370483
0.358226
0.346
0.333803
0.321632
0.309487
0.297366
0.285267
0.273189
0.261131
0.249091
0.237068
0.225061
0.21307
0.201092
0.189128
0.177176
0.165236
0.153307
0.141388
0.129479
0.117579
0.105687
0.0938035
0.0819272
0.0700578
0.0581949
0.0463383
0.0344874
0.0226419
0.0108016
-0.00103378
-0.0128646
-0.0246911
-0.0365134
-0.0483318
-0.0601464
-0.0719575
-0.0837653
-0.0955699
-0.107371
-0.11917
-0.130966
-0.14276
-0.154551
-0.16634
-0.178128
-0.189913
-0.201697
-0.213479
0.213479
1.31568
1.31568
1.24917
1.20209
1.15913
1.11948
1.08346
1.05107
1.02197
0.995634
0.971523
0.94917
0.928198
0.908316
0.88931
0.871021
0.853329
0.836148
0.819409
0.803059
0.787055
0.771363
0.755954
0.740801
0.725884
0.711183
0.696681
0.682362
0.668214
0.654223
0.640379
0.62667
0.613087
0.599621
0.586266
0.573012
0.559853
0.546783
0.533796
0.520887
0.50805
0.495281
0.482575
0.469928
0.457337
0.444798
0.432308
0.419863
0.40746
0.395098
0.382773
0.370483
0.358226
0.346
0.333803
0.321632
0.309487
0.297366
0.285267
0.273189
0.261131
0.249091
0.237068
0.225061
0.21307
0.201092
0.189128
0.177176
0.165236
0.153307
0.141388
0.129479
0.117579
0.105687
0.0938035
0.0819272
0.0700578
0.0581949
0.0463383
0.0344874
0.0226419
0.0108016
-0.00103378
-0.0128646
-0.0246911
-0.0365134
-0.0483318
-0.0601464
-0.0719575
-0.0837653
-0.0955699
-0.107371
-0.11917
-0.130966
-0.14276
-0.154551
-0.16634
-0.178128
-0.189913
-0.201697
-0.213479
0.213479
SCALARS phi double
LOOKUP_TABLE phi
1
1
1
0.999995
0.999977
0.999931
0.999833
0.999655
0.999364
0.998929
0.998323
0.997523
0.996512
0.995279
0.993815
0.992118
0.990189
0.988032
0.985652
0.983059
0.980261
0.97727
0.974097
0.970755
0.967257
0.963615
0.959843
0.95595
0.951943
0.947818
0.943564
0.939153
0.934546
0.929691
0.924525
0.918978
0.912981
0.906464
0.899362
0.89162
0.883191
0.874041
0.864149
0.853503
0.842106
0.829971
0.817121
0.803586
0.789407
0.774629
0.759301
0.743477
0.727213
0.710565
0.693592
0.676349
0.658891
0.641274
0.623547
0.60576
0.587958
0.570184
0.552478
0.534877
0.517414
0.500119
0.483019
0.466139
0.449501
0.433123
0.417021
0.401211
0.385703
0.370508
0.355634
0.341086
0.326871
0.31299
0.299446
0.286241
0.273374
0.260843
0.248649
0.236787
0.225255
0.214051
0.203169
0.192607
0.182361
0.172425
0.162798
0.153473
0.144448
0.135719
0.127283
0.11914
0.111271
0.103738
0.0963152
0.0897879
0.0813466
0.0813466
1
1
1
0.999995
0.999977
0.999931
0.999833
0.999655
0.999364
0.998929
0.998323
0.997523
0.996512
0.995279
0.993815
0.992118
0.990189
0.988032
0.985652
0.983059
0.980261
0.97727
0.974097
0.970755
0.967257
0.963615
0.959843
0.95595
0.951943
0.947818
0.943564
0.939153
0.934546
0.929691
0.924525
0.918978
0.912981
0.906464
0.899362
0.89162
0.883191
0.874041
0.864149
0.853503
0.842106
0.829971
0.817121
0.803586
0.789407
0.774629
0.759301
0.743477
0.727213
0.710565
0.693592
0.676349
0.658891
0.641274
0.623547
0.60576
0.587958
0.570184
0.552478
0.534877
0.517414
0.500119
0.483019
0.466139
0.449501
0.433123
0.417021
0.401211
0.385703
0.370508
0.355634
0.341086
0.326871
0.31299
0.299446
0.286241
0.273374
0.260843
0.248649
0.236787
0.225255
0.214051
0.203169
0.192607
0.182361
0.172425
0.162798
0.153473
0.144448
0.135719
0.127283
0.11914
0.111271
0.103738
0.0963152
0.0897879
0.0813466
0.0813466
0.999998
1
0.999984
0.999921
0.999783
0.999536
0.999146
0.99858
0.997812
0.996819
0.99559
0.994116
0.992398
0.990437
0.98824
0.985817
0.983177
0.980333
0.977296
0.974081
0.9707
0.967166
0.963491
0.959689
0.955772
0.951752
0.94764
0.943446
0.939179
0.934847
0.930453
0.925993
0.921459
0.916833
0.91209
0.907197
0.902115
0.896798
0.8912
0.885271
0.878964
0.872233
0.865039
0.857346
0.849126
0.84036
0.831034
0.821144
0.81069
0.799683
0.788138
0.776076
0.763523
0.750509
0.737067
0.723235
0.709049
0.694549
0.679774
0.664765
0.649561
0.6342
0.61872
0.603156
0.587544
0.571916
0.556303
0.540733
0.525233
0.509829
0.494542
0.479393
0.464402
0.449586
0.434958
0.420533
0.406323
0.392337
0.378585
0.365073
0.351807
0.338793
0.326034
0.313533
0.301291
0.289308
0.277586
0.266122
0.254916
0.243965
0.233266
0.222817
0.212612
0.20265
0.192922
0.183434
0.174148
0.16517
0.156126
0.148248
0.137398
0.137398
1.00001
0.999992
0.99954
0.998615
0.997207
0.995317
0.992955
0.990145
0.986922
0.983332
0.979422
0.975241
0.970836
0.966248
0.961513
0.956664
0.951728
0.946728
0.941682
0.936608
0.931519
0.926427
0.92134
0.916268
0.911216
0.906189
0.901193
0.896232
0.891307
0.886422
0.881578
0.876775
0.87201
0.867279
0.862576
0.857889
0.853204
0.848504
0.843766
0.838967
0.83408
0.829074
0.823921
0.818589
0.81305
0.807273
0.801234
0.794907
0.788272
0.781311
0.77401
0.76636
0.758355
0.749991
0.741271
0.732198
0.722781
0.71303
0.702959
0.692584
0.68192
0.670988
0.659807
0.648398
0.636783
0.624984
0.613023
0.600922
0.588702
0.576386
0.563994
0.551546
0.539061
0.526557
0.514053
0.501565
0.489108
0.476696
0.464344
0.452064
0.439866
0.427762
0.41576
0.403869
0.392096
0.380448
0.368929
0.357544
0.346296
0.335187
0.324219
0.313392
0.302705
0.292158
0.281742
0.271471
0.261289
0.25135
0.241139
0.232272
0.219555
0.219555
1.00143
0.99857
0.991253
0.98188
0.971566
0.96086
0.950051
0.939311
0.928756
0.918468
0.908503
0.898898
0.889671
0.880827
0.87236
0.864261
0.856513
0.849098
0.841997
0.835192
0.828664
0.822396
0.816369
0.810568
0.80498
0.799588
0.794382
0.789348
0.784477
0.779758
0.775181
0.770738
0.766421
0.76222
0.758129
0.754139
0.75024
0.746423
0.742678
0.738991
0.73535
0.731741
0.728148
0.724554
0.720941
0.717291
0.713586
0.709805
0.705931
0.701945
0.69783
0.693567
0.689143
0.684542
0.679752
0.674762
0.669562
0.664146
0.658507
0.652641
0.646547
0.640224
0.633673
0.626896
0.619898
0.612684
0.60526
0.597634
0.589814
0.581808
0.573627
0.565279
0.556777
0.548129
0.539347
0.530442
0.521424
0.512304
0.503093
0.4938
0.484436
0.47501
0.465531
0.456008
0.44645
0.436863
0.427255
0.417633
0.408002
0.398367
0.388734
0.379104
0.369481
0.359868
0.350258
0.340671
0.331046
0.321557
0.311646
0.303032
0.290319
0.290319
1.0456
0.954401
0.887723
0.838673
0.801641
0.772861
0.749886
0.731119
0.715499
0.702298
0.691001
0.681228
0.672693
0.665173
0.658493
0.652515
0.647126
0.642236
0.637772
0.633673
0.629891
0.626382
0.623115
0.620059
0.61719
0.614489
0.611936
0.609518
0.607221
0.605034
0.602947
0.600951
0.599038
0.597202
0.595436
0.593735
0.592093
0.590505
0.588966
0.58747
0.586013
0.584589
0.583191
0.581812
0.580446
0.579086
0.577721
0.576345
0.574947
0.573517
0.572046
0.570524
0.568939
0.567282
0.565541
0.563706
0.561768
0.559716
0.557542
0.555237
0.552792
0.550201
0.547456
0.544552
0.541483
0.538245
0.534834
0.531247
0.527482
0.523537
0.519412
0.515107
0.510621
0.505955
0.501112
0.496093
0.4909
0.485537
0.480006
0.47431
0.468454
0.462442
0.456276
0.449963
0.443505
0.436907
0.430174
0.42331
0.416318
0.409204
0.401969
0.394619
0.387155
0.37958
0.371892
0.364108
0.356171
0.348251
0.339823
0.332473
0.321315
0.321315
-0.0455988
0.0455988
0.112277
0.161326
0.198359
0.227139
0.250114
0.268881
0.284501
0.297702
0.308999
0.318772
0.327307
0.334827
0.341507
0.347485
0.352874
0.357764
0.362228
0.366327
0.370109
0.373618
0.376885
0.379941
0.38281
0.385511
0.388064
0.390482
0.392779
0.394966
0.397053
0.39905
0.400962
0.402798
0.404563
0.406263
0.407902
0.409485
0.411015
0.412495
0.413929
0.415318
0.416664
0.417968
0.419232
0.420455
0.421637
0.422778
0.423876
0.424929
0.425934
0.426888
0.427789
0.428631
0.42941
0.430122
0.430761
0.43132
0.431795
0.432178
0.432464
0.432645
0.432716
0.432668
0.432495
0.432192
0.43175
0.431164
0.430428
0.429534
0.428479
0.427256
0.42586
0.424286
0.42253
0.420588
0.418456
0.416132
0.413612
0.410894
0.407976
0.404857
0.401535
0.398011
0.394284
0.390354
0.386222
0.381888
0.377355