# vtk DataFile Version 3.0
FlowField
ASCII
DATASET STRUCTURED_GRID
DIMENSIONS 102 12 1 
POINTS 1224 double
0 0 0
0.3 0 0
0.6 0 0
0.9 0 0
1.2 0 0
1.5 0 0
1.8 0 0
2.1 0 0
2.4 0 0
2.7 0 0
3 0 0
3.3 0 0
3.6 0 0
3.9 0 0
4.2 0 0
4.5 0 0
4.8 0 0
5.1 0 0
5.4 0 0
5.7 0 0
6 0 0
6.3 0 0
6.6 0 0
6.9 0 0
7.2 0 0
7.5 0 0
7.8 0 0
8.1 0 0
8.4 0 0
8.7 0 0
9 0 0
9.3 0 0
9.6 0 0
9.9 0 0
10.2 0 0
10.5 0 0
10.8 0 0
11.1 0 0
11.4 0 0
11.7 0 0
12 0 0
12.3 0 0
12.6 0 0
12.9 0 0
13.2 0 0
13.5 0 0
13.8 0 0
14.1 0 0
14.4 0 0
14.7 0 0
15 0 0
15.3 0 0
15.6 0 0
15.9 0 0
16.2 0 0
16.5 0 0
16.8 0 0
17.1 0 0
17.4 0 0
17.7 0 0
18 0 0
18.3 0 0
18.6 0 0
18.9 0 0
19.2 0 0
19.5 0 0
19.8 0 0
20.1 0 0
20.4 0 0
20.7 0 0
21 0 0
21.3 0 0
21.6 0 0
21.9 0 0
22.2 0 0
22.5 0 0
22.8 0 0
23.1 0 0
23.4 0 0
23.7 0 0
24 0 0
24.3 0 0
24.6 0 0
24.9 0 0
25.2 0 0
25.5 0 0
25.8 0 0
26.1 0 0
26.4 0 0
26.7 0 0
27 0 0
27.3 0 0
27.6 0 0
27.9 0 0
28.2 0 0
28.5 0 0
28.8 0 0
29.1 0 0
29.4 0 0
29.7 0 0
30 0 0
30.3 0 0
0 0.1 0
0.3 0.1 0
0.6 0.1 0
0.9 0.1 0
1.2 0.1 0
1.5 0.1 0
1.8 0.1 0
2.1 0.1 0
2.4 0.1 0
2.7 0.1 0
3 0.1 0
3.3 0.1 0
3.6 0.1 0
3.9 0.1 0
4.2 0.1 0
4.5 0.1 0
4.8 0.1 0
5.1 0.1 0
5.4 0.1 0
5.7 0.1 0
6 0.1 0
6.3 0.1 0
6.6 0.1 0
6.9 0.1 0
7.2 0.1 0
7.5 0.1 0
7.8 0.1 0
8.1 0.1 0
8.4 0.1 0
8.7 0.1 0
9 0.1 0
9.3 0.1 0
9.6 0.1 0
9.9 0.1 0
10.2 0.1 0
10.5 0.1 0
10.8 0.1 0
11.1 0.1 0
11.4 0.1 0
11.7 0.1 0
12 0.1 0
12.3 0.1 0
12.6 0.1 0
12.9 0.1 0
13.2 0.1 0
13.5 0.1 0
13.8 0.1 0
14.1 0.1 0
14.4 0.1 0
14.7 0.1 0
15 0.1 0
15.3 0.1 0
15.6 0.1 0
15.9 0.1 0
16.2 0.1 0
16.5 0.1 0
16.8 0.1 0
17.1 0.1 0
17.4 0.1 0
17.7 0.1 0
18 0.1 0
18.3 0.1 0
18.6 0.1 0
18.9 0.1 0
19.2 0.1 0
19.5 0.1 0
19.8 0.1 0
20.1 0.1 0
20.4 0.1 0
20.7 0.1 0
21 0.1 0
21.3 0.1 0
21.6 0.1 0
21.9 0.1 0
22.2 0.1 0
22.5 0.1 0
22.8 0.1 0
23.1 0.1 0
23.4 0.1 0
23.7 0.1 0
24 0.1 0
24.3 0.1 0
24.6 0.1 0
24.9 0.1 0
25.2 0.1 0
25.5 0.1 0
25.8 0.1 0
26.1 0.1 0
26.4 0.1 0
26.7 0.1 0
27 0.1 0
27.3 0.1 0
27.6 0.1 0
27.9 0.1 0
28.2 0.1 0
28.5 0.1 0
28.8 0.1 0
29.1 0.1 0
29.4 0.1 0
29.7 0.1 0
30 0.1 0
30.3 0.1 0
0 0.2 0
0.3 0.2 0
0.6 0.2 0
0.9 0.2 0
1.2 0.2 0
1.5 0.2 0
1.8 0.2 0
2.1 0.2 0
2.4 0.2 0
2.7 0.2 0
3 0.2 0
3.3 0.2 0
3.6 0.2 0
3.9 0.2 0
4.2 0.2 0
4.5 0.2 0
4.8 0.2 0
5.1 0.2 0
5.4 0.2 0
5.7 0.2 0
6 0.2 0
6.3 0.2 0
6.6 0.2 0
6.9 0.2 0
7.2 0.2 0
7.5 0.2 0
7.8 0.2 0
8.1 0.2 0
8.4 0.2 0
8.7 0.2 0
9 0.2 0
9.3 0.2 0
9.6 0.2 0
9.9 0.2 0
10.2 0.2 0
10.5 0.2 0
10.8 0.2 0
11.1 0.2 0
11.4 0.2 0
11.7 0.2 0
12 0.2 0
12.3 0.2 0
12.6 0.2 0
12.9 0.2 0
13.2 0.2 0
13.5 0.2 0
13.8 0.2 0
14.1 0.2 0
14.4 0.2 0
14.7 0.2 0
15 0.2 0
15.3 0.2 0
15.6 0.2 0
15.9 0.2 0
16.2 0.2 0
16.5 0.2 0
16.8 0.2 0
17.1 0.2 0
17.4 0.2 0
17.7 0.2 0
18 0.2 0
18.3 0.2 0
18.6 0.2 0
18.9 0.2 0
19.2 0.2 0
19.5 0.2 0
19.8 0.2 0
20.1 0.2 0
20.4 0.2 0
20.7 0.2 0
21 0.2 0
21.3 0.2 0
21.6 0.2 0
21.9 0.2 0
22.2 0.2 0
22.5 0.2 0
22.8 0.2 0
23.1 0.2 0
23.4 0.2 0
23.7 0.2 0
24 0.2 0
24.3 0.2 0
24.6 0.2 0
24.9 0.2 0
25.2 0.2 0
25.5 0.2 0
25.8 0.2 0
26.1 0.2 0
26.4 0.2 0
26.7 0.2 0
27 0.2 0
27.3 0.2 0
27.6 0.2 0
27.9 0.2 0
28.2 0.2 0
28.5 0.2 0
28.8 0.2 0
29.1 0.2 0
29.4 0.2 0
29.7 0.2 0
30 0.2 0
30.3 0.2 0
0 0.3 0
0.3 0.3 0
0.6 0.3 0
0.9 0.3 0
1.2 0.3 0
1.5 0.3 0
1.8 0.3 0
2.1 0.3 0
2.4 0.3 0
2.7 0.3 0
3 0.3 0
3.3 0.3 0
3.6 0.3 0
3.9 0.3 0
4.2 0.3 0
4.5 0.3 0
4.8 0.3 0
5.1 0.3 0
5.4 0.3 0
5.7 0.3 0
6 0.3 0
6.3 0.3 0
6.6 0.3 0
6.9 0.3 0
7.2 0.3 0
7.5 0.3 0
7.8 0.3 0
8.1 0.3 0
8.4 0.3 0
8.7 0.3 0
9 0.3 0
9.3 0.3 0
9.6 0.3 0
9.9 0.3 0
10.2 0.3 0
10.5 0.3 0
10.8 0.3 0
11.1 0.3 0
11.4 0.3 0
11.7 0.3 0
12 0.3 0
12.3 0.3 0
12.6 0.3 0
12.9 0.3 0
13.2 0.3 0
13.5 0.3 0
13.8 0.3 0
14.1 0.3 0
14.4 0.3 0
14.7 0.3 0
15 0.3 0
15.3 0.3 0
15.6 0.3 0
15.9 0.3 0
16.2 0.3 0
16.5 0.3 0
16.8 0.3 0
17.1 0.3 0
17.4 0.3 0
17.7 0.3 0
18 0.3 0
18.3 0.3 0
18.6 0.3 0
18.9 0.3 0
19.2 0.3 0
19.5 0.3 0
19.8 0.3 0
20.1 0.3 0
20.4 0.3 0
20.7 0.3 0
21 0.3 0
21.3 0.3 0
21.6 0.3 0
21.9 0.3 0
22.2 0.3 0
22.5 0.3 0
22.8 0.3 0
23.1 0.3 0
23.4 0.3 0
23.7 0.3 0
24 0.3 0
24.3 0.3 0
24.6 0.3 0
24.9 0.3 0
25.2 0.3 0
25.5 0.3 0
25.8 0.3 0
26.1 0.3 0
26.4 0.3 0
26.7 0.3 0
27 0.3 0
27.3 0.3 0
27.6 0.3 0
27.9 0.3 0
28.2 0.3 0
28.5 0.3 0
28.8 0.3 0
29.1 0.3 0
29.4 0.3 0
29.7 0.3 0
30 0.3 0
30.3 0.3 0
0 0.4 0
0.3 0.4 0
0.6 0.4 0
0.9 0.4 0
1.2 0.4 0
1.5 0.4 0
1.8 0.4 0
2.1 0.4 0
2.4 0.4 0
2.7 0.4 0
3 0.4 0
3.3 0.4 0
3.6 0.4 0
3.9 0.4 0
4.2 0.4 0
4.5 0.4 0
4.8 0.4 0
5.1 0.4 0
5.4 0.4 0
5.7 0.4 0
6 0.4 0
6.3 0.4 0
6.6 0.4 0
6.9 0.4 0
7.2 0.4 0
7.5 0.4 0
7.8 0.4 0
8.1 0.4 0
8.4 0.4 0
8.7 0.4 0
9 0.4 0
9.3 0.4 0
9.6 0.4 0
9.9 0.4 0
10.2 0.4 0
10.5 0.4 0
10.8 0.4 0
11.1 0.4 0
11.4 0.4 0
11.7 0.4 0
12 0.4 0
12.3 0.4 0
12.6 0.4 0
12.9 0.4 0
13.2 0.4 0
13.5 0.4 0
13.8 0.4 0
14.1 0.4 0
14.4 0.4 0
14.7 0.4 0
15 0.4 0
15.3 0.4 0
15.6 0.4 0
15.9 0.4 0
16.2 0.4 0
16.5 0.4 0
16.8 0.4 0
17.1 0.4 0
17.4 0.4 0
17.7 0.4 0
18 0.4 0
18.3 0.4 0
18.6 0.4 0
18.9 0.4 0
19.2 0.4 0
19.5 0.4 0
19.8 0.4 0
20.1 0.4 0
20.4 0.4 0
20.7 0.4 0
21 0.4 0
21.3 0.4 0
21.6 0.4 0
21.9 0.4 0
22.2 0.4 0
22.5 0.4 0
22.8 0.4 0
23.1 0.4 0
23.4 0.4 0
23.7 0.4 0
24 0.4 0
24.3 0.4 0
24.6 0.4 0
24.9 0.4 0
25.2 0.4 0
25.5 0.4 0
25.8 0.4 0
26.1 0.4 0
26.4 0.4 0
26.7 0.4 0
27 0.4 0
27.3 0.4 0
27.6 0.4 0
27.9 0.4 0
28.2 0.4 0
28.5 0.4 0
28.8 0.4 0
29.1 0.4 0
29.4 0.4 0
29.7 0.4 0
30 0.4 0
30.3 0.4 0
0 0.5 0
0.3 0.5 0
0.6 0.5 0
0.9 0.5 0
1.2 0.5 0
1.5 0.5 0
1.8 0.5 0
2.1 0.5 0
2.4 0.5 0
2.7 0.5 0
3 0.5 0
3.3 0.5 0
3.6 0.5 0
3.9 0.5 0
4.2 0.5 0
4.5 0.5 0
4.8 0.5 0
5.1 0.5 0
5.4 0.5 0
5.7 0.5 0
6 0.5 0
6.3 0.5 0
6.6 0.5 0
6.9 0.5 0
7.2 0.5 0
7.5 0.5 0
7.8 0.5 0
8.1 0.5 0
8.4 0.5 0
8.7 0.5 0
9 0.5 0
9.3 0.5 0
9.6 0.5 0
9.9 0.5 0
10.2 0.5 0
10.5 0.5 0
10.8 0.5 0
11.1 0.5 0
11.4 0.5 0
11.7 0.5 0
12 0.5 0
12.3 0.5 0
12.6 0.5 0
12.9 0.5 0
13.2 0.5 0
13.5 0.5 0
13.8 0.5 0
14.1 0.5 0
14.4 0.5 0
14.7 0.5 0
15 0.5 0
15.3 0.5 0
15.6 0.5 0
15.9 0.5 0
16.2 0.5 0
16.5 0.5 0
16.8 0.5 0
17.1 0.5 0
17.4 0.5 0
17.7 0.5 0
18 0.5 0
18.3 0.5 0
18.6 0.5 0
18.9 0.5 0
19.2 0.5 0
19.5 0.5 0
19.8 0.5 0
20.1 0.5 0
20.4 0.5 0
20.7 0.5 0
21 0.5 0
21.3 0.5 0
21.6 0.5 0
21.9 0.5 0
22.2 0.5 0
22.5 0.5 0
22.8 0.5 0
23.1 0.5 0
23.4 0.5 0
23.7 0.5 0
24 0.5 0
24.3 0.5 0
24.6 0.5 0
24.9 0.5 0
25.2 0.5 0
25.5 0.5 0
25.8 0.5 0
26.1 0.5 0
26.4 0.5 0
26.7 0.5 0
27 0.5 0
27.3 0.5 0
27.6 0.5 0
27.9 0.5 0
28.2 0.5 0
28.5 0.5 0
28.8 0.5 0
29.1 0.5 0
29.4 0.5 0
29.7 0.5 0
30 0.5 0
30.3 0.5 0
0 0.6 0
0.3 0.6 0
0.6 0.6 0
0.9 0.6 0
1.2 0.6 0
1.5 0.6 0
1.8 0.6 0
2.1 0.6 0
2.4 0.6 0
2.7 0.6 0
3 0.6 0
3.3 0.6 0
3.6 0.6 0
3.9 0.6 0
4.2 0.6 0
4.5 0.6 0
4.8 0.6 0
5.1 0.6 0
5.4 0.6 0
5.7 0.6 0
6 0.6 0
6.3 0.6 0
6.6 0.6 0
6.9 0.6 0
7.2 0.6 0
7.5 0.6 0
7.8 0.6 0
8.1 0.6 0
8.4 0.6 0
8.7 0.6 0
9 0.6 0
9.3 0.6 0
9.6 0.6 0
9.9 0.6 0
10.2 0.6 0
10.5 0.6 0
10.8 0.6 0
11.1 0.6 0
11.4 0.6 0
11.7 0.6 0
12 0.6 0
12.3 0.6 0
12.6 0.6 0
12.9 0.6 0
13.2 0.6 0
13.5 0.6 0
13.8 0.6 0
14.1 0.6 0
14.4 0.6 0
14.7 0.6 0
15 0.6 0
15.3 0.6 0
15.6 0.6 0
15.9 0.6 0
16.2 0.6 0
16.5 0.6 0
16.8 0.6 0
17.1 0.6 0
17.4 0.6 0
17.7 0.6 0
18 0.6 0
18.3 0.6 0
18.6 0.6 0
18.9 0.6 0
19.2 0.6 0
19.5 0.6 0
19.8 0.6 0
20.1 0.6 0
20.4 0.6 0
20.7 0.6 0
21 0.6 0
21.3 0.6 0
21.6 0.6 0
21.9 0.6 0
22.2 0.6 0
22.5 0.6 0
22.8 0.6 0
23.1 0.6 0
23.4 0.6 0
23.7 0.6 0
24 0.6 0
24.3 0.6 0
24.6 0.6 0
24.9 0.6 0
25.2 0.6 0
25.5 0.6 0
25.8 0.6 0
26.1 0.6 0
26.4 0.6 0
26.7 0.6 0
27 0.6 0
27.3 0.6 0
27.6 0.6 0
27.9 0.6 0
28.2 0.6 0
28.5 0.6 0
28.8 0.6 0
29.1 0.6 0
29.4 0.6 0
29.7 0.6 0
30 0.6 0
30.3 0.6 0
0 0.7 0
0.3 0.7 0
0.6 0.7 0
0.9 0.7 0
1.2 0.7 0
1.5 0.7 0
1.8 0.7 0
2.1 0.7 0
2.4 0.7 0
2.7 0.7 0
3 0.7 0
3.3 0.7 0
3.6 0.7 0
3.9 0.7 0
4.2 0.7 0
4.5 0.7 0
4.8 0.7 0
5.1 0.7 0
5.4 0.7 0
5.7 0.7 0
6 0.7 0
6.3 0.7 0
6.6 0.7 0
6.9 0.7 0
7.2 0.7 0
7.5 0.7 0
7.8 0.7 0
8.1 0.7 0
8.4 0.7 0
8.7 0.7 0
9 0.7 0
9.3 0.7 0
9.6 0.7 0
9.9 0.7 0
10.2 0.7 0
10.5 0.7 0
10.8 0.7 0
11.1 0.7 0
11.4 0.7 0
11.7 0.7 0
12 0.7 0
12.3 0.7 0
12.6 0.7 0
12.9 0.7 0
13.2 0.7 0
13.5 0.7 0
13.8 0.7 0
14.1 0.7 0
14.4 0.7 0
14.7 0.7 0
15 0.7 0
15.3 0.7 0
15.6 0.7 0
15.9 0.7 0
16.2 0.7 0
16.5 0.7 0
16.8 0.7 0
17.1 0.7 0
17.4 0.7 0
17.7 0.7 0
18 0.7 0
18.3 0.7 0
18.6 0.7 0
18.9 0.7 0
19.2 0.7 0
19.5 0.7 0
19.8 0.7 0
20.1 0.7 0
20.4 0.7 0
20.7 0.7 0
21 0.7 0
21.3 0.7 0
21.6 0.7 0
21.9 0.7 0
22.2 0.7 0
22.5 0.7 0
22.8 0.7 0
23.1 0.7 0
23.4 0.7 0
23.7 0.7 0
24 0.7 0
24.3 0.7 0
24.6 0.7 0
24.9 0.7 0
25.2 0.7 0
25.5 0.7 0
25.8 0.7 0
26.1 0.7 0
26.4 0.7 0
26.7 0.7 0
27 0.7 0
27.3 0.7 0
27.6 0.7 0
27.9 0.7 0
28.2 0.7 0
28.5 0.7 0
28.8 0.7 0
29.1 0.7 0
29.4 0.7 0
29.7 0.7 0
30 0.7 0
30.3 0.7 0
0 0.8 0
0.3 0.8 0
0.6 0.8 0
0.9 0.8 0
1.2 0.8 0
1.5 0.8 0
1.8 0.8 0
2.1 0.8 0
2.4 0.8 0
2.7 0.8 0
3 0.8 0
3.3 0.8 0
3.6 0.8 0
3.9 0.8 0
4.2 0.8 0
4.5 0.8 0
4.8 0.8 0
5.1 0.8 0
5.4 0.8 0
5.7 0.8 0
6 0.8 0
6.3 0.8 0
6.6 0.8 0
6.9 0.8 0
7.2 0.8 0
7.5 0.8 0
7.8 0.8 0
8.1 0.8 0
8.4 0.8 0
8.7 0.8 0
9 0.8 0
9.3 0.8 0
9.6 0.8 0
9.9 0.8 0
10.2 0.8 0
10.5 0.8 0
10.8 0.8 0
11.1 0.8 0
11.4 0.8 0
11.7 0.8 0
12 0.8 0
12.3 0.8 0
12.6 0.8 0
12.9 0.8 0
13.2 0.8 0
13.5 0.8 0
13.8 0.8 0
14.1 0.8 0
14.4 0.8 0
14.7 0.8 0
15 0.8 0
15.3 0.8 0
15.6 0.8 0
15.9 0.8 0
16.2 0.8 0
16.5 0.8 0
16.8 0.8 0
17.1 0.8 0
17.4 0.8 0
17.7 0.8 0
18 0.8 0
18.3 0.8 0
18.6 0.8 0
18.9 0.8 0
19.2 0.8 0
19.5 0.8 0
19.8 0.8 0
20.1 0.8 0
20.4 0.8 0
20.7 0.8 0
21 0.8 0
21.3 0.8 0
21.6 0.8 0
21.9 0.8 0
22.2 0.8 0
22.5 0.8 0
22.8 0.8 0
23.1 0.8 0
23.4 0.8 0
23.7 0.8 0
24 0.8 0
24.3 0.8 0
24.6 0.8 0
24.9 0.8 0
25.2 0.8 0
25.5 0.8 0
25.8 0.8 0
26.1 0.8 0
26.4 0.8 0
26.7 0.8 0
27 0.8 0
27.3 0.8 0
27.6 0.8 0
27.9 0.8 0
28.2 0.8 0
28.5 0.8 0
28.8 0.8 0
29.1 0.8 0
29.4 0.8 0
29.7 0.8 0
30 0.8 0
30.3 0.8 0
0 0.9 0
0.3 0.9 0
0.6 0.9 0
0.9 0.9 0
1.2 0.9 0
1.5 0.9 0
1.8 0.9 0
2.1 0.9 0
2.4 0.9 0
2.7 0.9 0
3 0.9 0
3.3 0.9 0
3.6 0.9 0
3.9 0.9 0
4.2 0.9 0
4.5 0.9 0
4.8 0.9 0
5.1 0.9 0
5.4 0.9 0
5.7 0.9 0
6 0.9 0
6.3 0.9 0
6.6 0.9 0
6.9 0.9 0
7.2 0.9 0
7.5 0.9 0
7.8 0.9 0
8.1 0.9 0
8.4 0.9 0
8.7 0.9 0
9 0.9 0
9.3 0.9 0
9.6 0.9 0
9.9 0.9 0
10.2 0.9 0
10.5 0.9 0
10.8 0.9 0
11.1 0.9 0
11.4 0.9 0
11.7 0.9 0
12 0.9 0
12.3 0.9 0
12.6 0.9 0
12.9 0.9 0
13.2 0.9 0
13.5 0.9 0
13.8 0.9 0
14.1 0.9 0
14.4 0.9 0
14.7 0.9 0
15 0.9 0
15.3 0.9 0
15.6 0.9 0
15.9 0.9 0
16.2 0.9 0
16.5 0.9 0
16.8 0.9 0
17.1 0.9 0
17.4 0.9 0
17.7 0.9 0
18 0.9 0
18.3 0.9 0
18.6 0.9 0
18.9 0.9 0
19.2 0.9 0
19.5 0.9 0
19.8 0.9 0
20.1 0.9 0
20.4 0.9 0
20.7 0.9 0
21 0.9 0
21.3 0.9 0
21.6 0.9 0
21.9 0.9 0
22.2 0.9 0
22.5 0.9 0
22.8 0.9 0
23.1 0.9 0
23.4 0.9 0
23.7 0.9 0
24 0.9 0
24.3 0.9 0
24.6 0.9 0
24.9 0.9 0
25.2 0.9 0
25.5 0.9 0
25.8 0.9 0
26.1 0.9 0
26.4 0.9 0
26.7 0.9 0
27 0.9 0
27.3 0.9 0
27.6 0.9 0
27.9 0.9 0
28.2 0.9 0
28.5 0.9 0
28.8 0.9 0
29.1 0.9 0
29.4 0.9 0
29.7 0.9 0
30 0.9 0
30.3 0.9 0
0 1 0
0.3 1 0
0.6 1 0
0.9 1 0
1.2 1 0
1.5 1 0
1.8 1 0
2.1 1 0
2.4 1 0
2.7 1 0
3 1 0
3.3 1 0
3.6 1 0
3.9 1 0
4.2 1 0
4.5 1 0
4.8 1 0
5.1 1 0
5.4 1 0
5.7 1 0
6 1 0
6.3 1 0
6.6 1 0
6.9 1 0
7.2 1 0
7.5 1 0
7.8 1 0
8.1 1 0
8.4 1 0
8.7 1 0
9 1 0
9.3 1 0
9.6 1 0
9.9 1 0
10.2 1 0
10.5 1 0
10.8 1 0
11.1 1 0
11.4 1 0
11.7 1 0
12 1 0
12.3 1 0
12.6 1 0
12.9 1 0
13.2 1 0
13.5 1 0
13.8 1 0
14.1 1 0
14.4 1 0
14.7 1 0
15 1 0
15.3 1 0
15.6 1 0
15.9 1 0
16.2 1 0
16.5 1 0
16.8 1 0
17.1 1 0
17.4 1 0
17.7 1 0
18 1 0
18.3 1 0
18.6 1 0
18.9 1 0
19.2 1 0
19.5 1 0
19.8 1 0
20.1 1 0
20.4 1 0
20.7 1 0
21 1 0
21.3 1 0
21.6 1 0
21.9 1 0
22.2 1 0
22.5 1 0
22.8 1 0
23.1 1 0
23.4 1 0
23.7 1 0
24 1 0
24.3 1 0
24.6 1 0
24.9 1 0
25.2 1 0
25.5 1 0
25.8 1 0
26.1 1 0
26.4 1 0
26.7 1 0
27 1 0
27.3 1 0
27.6 1 0
27.9 1 0
28.2 1 0
28.5 1 0
28.8 1 0
29.1 1 0
29.4 1 0
29.7 1 0
30 1 0
30.3 1 0
0 1.1 0
0.3 1.1 0
0.6 1.1 0
0.9 1.1 0
1.2 1.1 0
1.5 1.1 0
1.8 1.1 0
2.1 1.1 0
2.4 1.1 0
2.7 1.1 0
3 1.1 0
3.3 1.1 0
3.6 1.1 0
3.9 1.1 0
4.2 1.1 0
4.5 1.1 0
4.8 1.1 0
5.1 1.1 0
5.4 1.1 0
5.7 1.1 0
6 1.1 0
6.3 1.1 0
6.6 1.1 0
6.9 1.1 0
7.2 1.1 0
7.5 1.1 0
7.8 1.1 0
8.1 1.1 0
8.4 1.1 0
8.7 1.1 0
9 1.1 0
9.3 1.1 0
9.6 1.1 0
9.9 1.1 0
10.2 1.1 0
10.5 1.1 0
10.8 1.1 0
11.1 1.1 0
11.4 1.1 0
11.7 1.1 0
12 1.1 0
12.3 1.1 0
12.6 1.1 0
12.9 1.1 0
13.2 1.1 0
13.5 1.1 0
13.8 1.1 0
14.1 1.1 0
14.4 1.1 0
14.7 1.1 0
15 1.1 0
15.3 1.1 0
15.6 1.1 0
15.9 1.1 0
16.2 1.1 0
16.5 1.1 0
16.8 1.1 0
17.1 1.1 0
17.4 1.1 0
17.7 1.1 0
18 1.1 0
18.3 1.1 0
18.6 1.1 0
18.9 1.1 0
19.2 1.1 0
19.5 1.1 0
19.8 1.1 0
20.1 1.1 0
20.4 1.1 0
20.7 1.1 0
21 1.1 0
21.3 1.1 0
21.6 1.1 0
21.9 1.1 0
22.2 1.1 0
22.5 1.1 0
22.8 1.1 0
23.1 1.1 0
23.4 1.1 0
23.7 1.1 0
24 1.1 0
24.3 1.1 0
24.6 1.1 0
24.9 1.1 0
25.2 1.1 0
25.5 1.1 0
25.8 1.1 0
26.1 1.1 0
26.4 1.1 0
26.7 1.1 0
27 1.1 0
27.3 1.1 0
27.6 1.1 0
27.9 1.1 0
28.2 1.1 0
28.5 1.1 0
28.8 1.1 0
29.1 1.1 0
29.4 1.1 0
29.7 1.1 0
30 1.1 0
30.3 1.1 0

POINT_DATA 1224

SCALARS pressure double
LOOKUP_TABLE pressure
1.31577
1.31577
1.24926
1.20218
1.15923
1.11957
1.08355
1.05117
1.02206
0.995728
0.971618
0.949265
0.928291
0.90841
0.889404
0.871114
0.853423
0.836242
0.819503
0.803153
0.787149
0.771457
0.756048
0.740895
0.725978
0.711277
0.696775
0.682456
0.668308
0.654317
0.640472
0.626763
0.613181
0.599715
0.586359
0.573106
0.559947
0.546877
0.53389
0.520981
0.508144
0.495374
0.482669
0.470022
0.457431
0.444892
0.432401
0.419956
0.407554
0.395192
0.382867
0.370577
0.35832
0.346094
0.333896
0.321726
0.309581
0.29746
0.285361
0.273283
0.261225
0.249185
0.237162
0.225155
0.213163
0.201186
0.189222
0.17727
0.16533
0.153401
0.141482
0.129573
0.117673
0.105781
0.0938973
0.082021
0.0701516
0.0582888
0.0464321
0.0345812
0.0227357
0.0108952
-0.000940582
-0.0127719
-0.024599
-0.0364223
-0.0482419
-0.060058
-0.071871
-0.0836809
-0.095488
-0.107292
-0.119094
-0.130894
-0.142692
-0.154487
-0.16628
-0.178072
-0.189862
-0.201651
-0.213438
0.213438
1.31577
1.31577
1.24926
1.20218
1.15923
1.11957
1.08355
1.05117
1.02206
0.995728
0.971618
0.949265
0.928291
0.90841
0.889404
0.871114
0.853423
0.836242
0.819503
0.803153
0.787149
0.771457
0.756048
0.740895
0.725978
0.711277
0.696775
0.682456
0.668308
0.654317
0.640472
0.626763
0.613181
0.599715
0.586359
0.573106
0.559947
0.546877
0.53389
0.520981
0.508144
0.495374
0.482669
0.470022
0.457431
0.444892
0.432401
0.419956
0.407554
0.395192
0.382867
0.370577
0.35832
0.346094
0.333896
0.321726
0.309581
0.29746
0.285361
0.273283
0.261225
0.249185
0.237162
0.225155
0.213163
0.201186
0.189222
0.17727
0.16533
0.153401
0.141482
0.129573
0.117673
0.105781
0.0938973
0.082021
0.0701516
0.0582888
0.0464321
0.0345812
0.0227357
0.0108952
-0.000940582
-0.0127719
-0.024599
-0.0364223
-0.0482419
-0.060058
-0.071871
-0.0836809
-0.095488
-0.107292
-0.119094
-0.130894
-0.142692
-0.154487
-0.16628
-0.178072
-0.189862
-0.201651
-0.213438
0.213438
1.29512
1.29512
1.24746
1.20249
1.15994
1.12034
1.08425
1.05176
1.02254
0.996098
0.971903
0.949485
0.928464
0.908547
0.889515
0.871206
0.853501
0.836308
0.81956
0.803203
0.787194
0.771498
0.756084
0.740928
0.726008
0.711304
0.696799
0.682479
0.668329
0.654336
0.64049
0.62678
0.613196
0.599729
0.586372
0.573118
0.559958
0.546887
0.5339
0.52099
0.508152
0.495382
0.482676
0.470029
0.457437
0.444898
0.432407
0.419961
0.407559
0.395196
0.382871
0.370581
0.358324
0.346097
0.3339
0.321729
0.309584
0.297463
0.285364
0.273285
0.261227
0.249187
0.237164
0.225157
0.213165
0.201187
0.189223
0.177271
0.165331
0.153402
0.141483
0.129574
0.117674
0.105782
0.0938982
0.0820218
0.0701524
0.0582895
0.0464328
0.0345818
0.0227363
0.0108957
-0.000940066
-0.0127714
-0.0245986
-0.0364219
-0.0482415
-0.0600577
-0.0718706
-0.0836806
-0.0954877
-0.107292
-0.119094
-0.130894
-0.142691
-0.154487
-0.16628
-0.178072
-0.189862
-0.201651
-0.213437
0.213437
1.28074
1.28074
1.24496
1.20289
1.16108
1.12161
1.08543
1.05275
1.02333
0.996704
0.972359
0.949826
0.92872
0.908742
0.889665
0.871325
0.853596
0.836387
0.819626
0.80326
0.787243
0.77154
0.756121
0.740961
0.726037
0.71133
0.696823
0.682501
0.668348
0.654354
0.640506
0.626795
0.613209
0.599742
0.586384
0.573128
0.559968
0.546896
0.533908
0.520997
0.508159
0.495389
0.482682
0.470034
0.457443
0.444903
0.432411
0.419966
0.407563
0.3952
0.382874
0.370584
0.358327
0.3461
0.333902
0.321732
0.309586
0.297465
0.285366
0.273287
0.261229
0.249188
0.237165
0.225158
0.213166
0.201189
0.189224
0.177272
0.165332
0.153403
0.141484
0.129575
0.117675
0.105783
0.0938989
0.0820224
0.070153
0.0582901
0.0464333
0.0345823
0.0227367
0.0108962
-0.000939652
-0.012771
-0.0245982
-0.0364215
-0.0482412
-0.0600574
-0.0718704
-0.0836803
-0.0954875
-0.107292
-0.119094
-0.130894
-0.142691
-0.154487
-0.16628
-0.178072
-0.189862
-0.20165
-0.213434
0.213434
1.27205
1.27205
1.24294
1.20314
1.162
1.12269
1.08646
1.05364
1.02406
0.997283
0.972807
0.950171
0.928986
0.908949
0.88983
0.871458
0.853706
0.836478
0.819704
0.803326
0.787301
0.771591
0.756166
0.741001
0.726073
0.711362
0.696852
0.682527
0.668372
0.654376
0.640526
0.626812
0.613226
0.599757
0.586397
0.573141
0.559979
0.546907
0.533918
0.521006
0.508168
0.495397
0.482689
0.470041
0.457449
0.444908
0.432417
0.419971
0.407567
0.395204
0.382878
0.370588
0.35833
0.346103
0.333905
0.321734
0.309589
0.297467
0.285368
0.273289
0.261231
0.24919
0.237167
0.22516
0.213168
0.20119
0.189226
0.177274
0.165333
0.153404
0.141485
0.129576
0.117675
0.105784
0.0938997
0.0820232
0.0701537
0.0582908
0.046434
0.0345829
0.0227373
0.0108967
-0.000939174
-0.0127706
-0.0245978
-0.0364211
-0.0482408
-0.060057
-0.07187
-0.08368
-0.0954872
-0.107292
-0.119094
-0.130893
-0.142691
-0.154486
-0.16628
-0.178072
-0.189861
-0.201649
-0.213428
0.213428
1.26797
1.26797
1.24186
1.20326
1.1625
1.12328
1.08703
1.05414
1.02448
0.997617
0.973071
0.950378
0.92915
0.90908
0.889936
0.871545
0.853779
0.836541
0.819758
0.803373
0.787342
0.771627
0.756199
0.74103
0.726099
0.711386
0.696874
0.682546
0.66839
0.654392
0.640541
0.626826
0.613238
0.599768
0.586408
0.57315
0.559988
0.546915
0.533925
0.521013
0.508174
0.495403
0.482695
0.470046
0.457454
0.444913
0.432421
0.419975
0.407571
0.395208
0.382882
0.370591
0.358333
0.346106
0.333908
0.321737
0.309591
0.297469
0.28537
0.273291
0.261232
0.249192
0.237168
0.225161
0.213169
0.201191
0.189227
0.177275
0.165334
0.153405
0.141486
0.129577
0.117676
0.105784
0.0939003
0.0820238
0.0701543
0.0582913
0.0464345
0.0345834
0.0227377
0.0108971
-0.000938795
-0.0127702
-0.0245975
-0.0364208
-0.0482405
-0.0600568
-0.0718698
-0.0836798
-0.095487
-0.107291
-0.119094
-0.130893
-0.142691
-0.154486
-0.16628
-0.178071
-0.189861
-0.201648
-0.213424
0.213424
1.26797
1.26797
1.24186
1.20326
1.16249
1.12328
1.08703
1.05414
1.02448
0.997617
0.973071
0.950378
0.92915
0.90908
0.889936
0.871545
0.853779
0.836541
0.819758
0.803373
0.787342
0.771627
0.756199
0.74103
0.726099
0.711386
0.696874
0.682546
0.66839
0.654392
0.640541
0.626826
0.613238
0.599768
0.586408
0.57315
0.559988
0.546915
0.533925
0.521013
0.508174
0.495403
0.482695
0.470046
0.457454
0.444913
0.432421
0.419975
0.407571
0.395208
0.382882
0.370591
0.358333
0.346106
0.333908
0.321737
0.309591
0.297469
0.28537
0.273291
0.261232
0.249192
0.237168
0.225161
0.213169
0.201191
0.189227
0.177275
0.165334
0.153405
0.141486
0.129577
0.117676
0.105784
0.0939003
0.0820238
0.0701543
0.0582913
0.0464345
0.0345834
0.0227377
0.0108971
-0.000938795
-0.0127702
-0.0245975
-0.0364208
-0.0482405
-0.0600568
-0.0718698
-0.0836798
-0.095487
-0.107291
-0.119094
-0.130893
-0.142691
-0.154486
-0.16628
-0.178071
-0.189861
-0.201648
-0.213424
0.213424
1.27205
1.27205
1.24294
1.20314
1.162
1.12269
1.08646
1.05364
1.02406
0.997283
0.972807
0.950171
0.928986
0.908949
0.88983
0.871458
0.853706
0.836479
0.819704
0.803326
0.787301
0.771591
0.756166
0.741001
0.726073
0.711362
0.696852
0.682527
0.668372
0.654376
0.640526
0.626812
0.613226
0.599757
0.586398
0.573141
0.559979
0.546907
0.533918
0.521006
0.508168
0.495397
0.482689
0.470041
0.457449
0.444908
0.432417
0.419971
0.407567
0.395204
0.382878
0.370588
0.35833
0.346103
0.333905
0.321734
0.309589
0.297467
0.285368
0.273289
0.261231
0.24919
0.237167
0.22516
0.213168
0.20119
0.189226
0.177274
0.165333
0.153404
0.141485
0.129576
0.117675
0.105784
0.0938997
0.0820232
0.0701537
0.0582908
0.046434
0.0345829
0.0227373
0.0108967
-0.000939174
-0.0127706
-0.0245978
-0.0364211
-0.0482408
-0.060057
-0.07187
-0.08368
-0.0954872
-0.107292
-0.119094
-0.130893
-0.142691
-0.154486
-0.16628
-0.178072
-0.189861
-0.201649
-0.213428
0.213428
1.28074
1.28074
1.24496
1.20288
1.16108
1.12161
1.08543
1.05275
1.02333
0.996704
0.972359
0.949826
0.92872
0.908741
0.889665
0.871325
0.853596
0.836387
0.819626
0.80326
0.787243
0.77154
0.756121
0.740961
0.726037
0.71133
0.696823
0.682501
0.668348
0.654354
0.640506
0.626795
0.613209
0.599742
0.586384
0.573128
0.559968
0.546896
0.533908
0.520997
0.508159
0.495389
0.482682
0.470035
0.457443
0.444903
0.432411
0.419966
0.407563
0.3952
0.382874
0.370584
0.358327
0.3461
0.333902
0.321732
0.309586
0.297465
0.285366
0.273287
0.261229
0.249188
0.237165
0.225158
0.213166
0.201189
0.189224
0.177272
0.165332
0.153403
0.141484
0.129575
0.117675
0.105783
0.0938989
0.0820224
0.070153
0.0582901
0.0464333
0.0345823
0.0227367
0.0108962
-0.000939652
-0.012771
-0.0245982
-0.0364215
-0.0482412
-0.0600574
-0.0718704
-0.0836803
-0.0954875
-0.107292
-0.119094
-0.130894
-0.142691
-0.154487
-0.16628
-0.178072
-0.189862
-0.20165
-0.213434
0.213434
1.29512
1.29512
1.24746
1.20249
1.15995
1.12034
1.08425
1.05176
1.02254
0.996097
0.971903
0.949485
0.928464
0.908547
0.889515
0.871206
0.853501
0.836308
0.81956
0.803203
0.787194
0.771498
0.756084
0.740928
0.726008
0.711304
0.696799
0.682479
0.668329
0.654336
0.64049
0.62678
0.613196
0.599729
0.586372
0.573118
0.559958
0.546887
0.5339
0.52099
0.508152
0.495382
0.482676
0.470029
0.457437
0.444898
0.432407
0.419961
0.407559
0.395196
0.382871
0.370581
0.358324
0.346097
0.3339
0.321729
0.309584
0.297463
0.285364
0.273285
0.261227
0.249187
0.237164
0.225157
0.213165
0.201187
0.189223
0.177271
0.165331
0.153402
0.141483
0.129574
0.117674
0.105782
0.0938982
0.0820218
0.0701524
0.0582895
0.0464328
0.0345818
0.0227363
0.0108957
-0.000940066
-0.0127714
-0.0245986
-0.0364219
-0.0482415
-0.0600577
-0.0718706
-0.0836806
-0.0954877
-0.107292
-0.119094
-0.130894
-0.142691
-0.154487
-0.16628
-0.178072
-0.189862
-0.201651
-0.213437
0.213437
1.31577
1.31577
1.24926
1.20218
1.15923
1.11957
1.08355
1.05117
1.02207
0.995728
0.971617
0.949264
0.928292
0.90841
0.889404
0.871114
0.853423
0.836242
0.819503
0.803153
0.787149
0.771457
0.756048
0.740895
0.725978
0.711277
0.696775
0.682456
0.668308
0.654317
0.640472
0.626763
0.613181
0.599715
0.586359
0.573106
0.559947
0.546877
0.53389
0.520981
0.508144
0.495374
0.482669
0.470022
0.457431
0.444892
0.432401
0.419956
0.407554
0.395192
0.382867
0.370577
0.35832
0.346094
0.333896
0.321726
0.309581
0.29746
0.285361
0.273283
0.261225
0.249185
0.237162
0.225155
0.213163
0.201186
0.189222
0.17727
0.16533
0.153401
0.141482
0.129573
0.117673
0.105781
0.0938973
0.082021
0.0701516
0.0582888
0.0464321
0.0345812
0.0227357
0.0108952
-0.000940582
-0.0127719
-0.024599
-0.0364223
-0.0482419
-0.060058
-0.071871
-0.0836809
-0.095488
-0.107292
-0.119094
-0.130894
-0.142692
-0.154487
-0.16628
-0.178072
-0.189862
-0.201651
-0.213438
0.213438
1.31577
1.31577
1.24926
1.20218
1.15923
1.11957
1.08355
1.05117
1.02207
0.995728
0.971617
0.949264
0.928292
0.90841
0.889404
0.871114
0.853423
0.836242
0.819503
0.803153
0.787149
0.771457
0.756048
0.740895
0.725978
0.711277
0.696775
0.682456
0.668308
0.654317
0.640472
0.626763
0.613181
0.599715
0.586359
0.573106
0.559947
0.546877
0.53389
0.520981
0.508144
0.495374
0.482669
0.470022
0.457431
0.444892
0.432401
0.419956
0.407554
0.395192
0.382867
0.370577
0.35832
0.346094
0.333896
0.321726
0.309581
0.29746
0.285361
0.273283
0.261225
0.249185
0.237162
0.225155
0.213163
0.201186
0.189222
0.17727
0.16533
0.153401
0.141482
0.129573
0.117673
0.105781
0.0938973
0.082021
0.0701516
0.0582888
0.0464321
0.0345812
0.0227357
0.0108952
-0.000940582
-0.0127719
-0.024599
-0.0364223
-0.0482419
-0.060058
-0.071871
-0.0836809
-0.095488
-0.107292
-0.119094
-0.130894
-0.142692
-0.154487
-0.16628
-0.178072
-0.189862
-0.201651
-0.213438
0.213438
SCALARS phi double
LOOKUP_TABLE phi
1
1
1
0.999995
0.999977
0.999931
0.999833
0.999655
0.999364
0.998929
0.998323
0.997523
0.996512
0.995279
0.993815
0.992118
0.990189
0.988032
0.985652
0.983059
0.980261
0.97727
0.974097
0.970755
0.967257
0.963614
0.95984
0.955947
0.951946
0.94785
0.943668
0.939411
0.93509
0.930714
0.92629
0.921827
0.91733
0.912804
0.908251
0.90367
0.899057
0.894404
0.889701
0.884933
0.880082
0.875127
0.870047
0.864817
0.859411
0.853806
0.847976
0.841898
0.835553
0.82892
0.821983
0.814729
0.807149
0.799235
0.790984
0.782396
0.773472
0.764219
0.754645
0.74476
0.734578
0.724111
0.713378
0.702395
0.691181
0.679755
0.668138
0.656348
0.644408
0.632336
0.620154
0.607881
0.595537
0.583139
0.570708
0.558259
0.54581
0.533376
0.520972
0.508614
0.496313
0.484082
0.471933
0.459877
0.447923
0.436079
0.424356
0.412758
0.401294
0.38997
0.378788
0.367763
0.356866
0.346209
0.335427
0.325798
0.312817
0.312817
1
1
1
0.999995
0.999977
0.999931
0.999833
0.999655
0.999364
0.998929
0.998323
0.997523
0.996512
0.995279
0.993815
0.992118
0.990189
0.988032
0.985652
0.983059
0.980261
0.97727
0.974097
0.970755
0.967257
0.963614
0.95984
0.955947
0.951946
0.94785
0.943668
0.939411
0.93509
0.930714
0.92629
0.921827
0.91733
0.912804
0.908251
0.90367
0.899057
0.894404
0.889701
0.884933
0.880082
0.875127
0.870047
0.864817
0.859411
0.853806
0.847976
0.841898
0.835553
0.82892
0.821983
0.814729
0.807149
0.799235
0.790984
0.782396
0.773472
0.764219
0.754645
0.74476
0.734578
0.724111
0.713378
0.702395
0.691181
0.679755
0.668138
0.656348
0.644408
0.632336
0.620154
0.607881
0.595537
0.583139
0.570708
0.558259
0.54581
0.533376
0.520972
0.508614
0.496313
0.484082
0.471933
0.459877
0.447923
0.436079
0.424356
0.412758
0.401294
0.38997
0.378788
0.367763
0.356866
0.346209
0.335427
0.325798
0.312817
0.312817
0.999998
1
0.999984
0.999921
0.999783
0.999536
0.999146
0.99858
0.997812
0.996819
0.99559
0.994116
0.992398
0.990437
0.98824
0.985817
0.983177
0.980333
0.977297
0.974081
0.9707
0.967166
0.963491
0.95969
0.955773
0.951752
0.947639
0.943445
0.939179
0.93485
0.930469
0.926042
0.921579
0.917086
0.912571
0.908039
0.903495
0.898945
0.894392
0.889839
0.885287
0.880734
0.876177
0.871612
0.867031
0.862422
0.857776
0.853076
0.848307
0.843451
0.83849
0.833405
0.828176
0.822785
0.817213
0.811443
0.80546
0.79925
0.7928
0.786101
0.779145
0.771926
0.764442
0.756691
0.748674
0.740395
0.731858
0.723071
0.714042
0.70478
0.695297
0.685605
0.675716
0.665645
0.655406
0.645013
0.634482
0.623826
0.613063
0.602205
0.591269
0.580269
0.569218
0.55813
0.54702
0.535899
0.524779
0.513673
0.502591
0.491544
0.480542
0.469593
0.458706
0.447891
0.43715
0.426504
0.415916
0.405532
0.394893
0.385546
0.372368
0.372368
1.00001
0.999992
0.99954
0.998615
0.997207
0.995317
0.992955
0.990145
0.986922
0.983332
0.979422
0.975241
0.970836
0.966248
0.961513
0.956664
0.951728
0.946728
0.941682
0.936608
0.931519
0.926427
0.92134
0.916268
0.911216
0.906189
0.901194
0.896232
0.891307
0.886422
0.881579
0.87678
0.872025
0.867316
0.862654
0.85804
0.853473
0.848955
0.844485
0.840064
0.83569
0.831362
0.82708
0.82284
0.81864
0.814475
0.81034
0.806228
0.802132
0.798044
0.793952
0.789848
0.785718
0.781551
0.777333
0.773051
0.768693
0.764244
0.759692
0.755023
0.750227
0.745293
0.740209
0.734968
0.729561
0.723982
0.718226
0.712287
0.706165
0.699856
0.693361
0.686681
0.679818
0.672774
0.665554
0.658163
0.650607
0.642891
0.635023
0.627011
0.618862
0.610585
0.602188
0.593681
0.585072
0.57637
0.567586
0.558726
0.549802
0.54082
0.531791
0.522722
0.513621
0.504497
0.495354
0.486214
0.477036
0.467977
0.458564
0.450339
0.438398
0.438398
1.00143
0.99857
0.991252
0.98188
0.971566
0.96086
0.950051
0.939311
0.928756
0.918468
0.908503
0.898898
0.889671
0.880827
0.87236
0.864261
0.856513
0.849098
0.841997
0.835192
0.828664
0.822396
0.816369
0.810568
0.80498
0.799588
0.794382
0.789348
0.784477
0.779758
0.775181
0.770738
0.766422
0.762224
0.758139
0.754159
0.75028
0.746495
0.7428
0.739191
0.735662
0.732211
0.728832
0.725523
0.722279
0.719098
0.715974
0.712903
0.709882
0.706906
0.703969
0.701066
0.69819
0.695337
0.692497
0.689664
0.686831
0.683988
0.681129
0.678243
0.675322
0.672357
0.66934
0.666262
0.663115
0.659889
0.656578
0.653175
0.649671
0.646061
0.64234
0.638501
0.634541
0.630456
0.626242
0.621898
0.61742
0.612809
0.608063
0.603183
0.598169
0.593022
0.587744
0.582337
0.576803
0.571146
0.565368
0.559473
0.553465
0.547348
0.541125
0.534803
0.528383
0.521873
0.515272
0.508599
0.501817
0.495059
0.487925
0.481688
0.472391
0.472391
1.0456
0.954401
0.887723
0.838674
0.801641
0.772861
0.749886
0.731119
0.715499
0.702298
0.691001
0.681228
0.672693
0.665173
0.658493
0.652515
0.647126
0.642236
0.637772
0.633673
0.629891
0.626382
0.623115
0.620059
0.61719
0.614489
0.611936
0.609518
0.607221
0.605034
0.602947
0.60095
0.599038
0.597202
0.595437
0.593737
0.592097
0.590514
0.588983
0.587501
0.586064
0.58467
0.583315
0.581998
0.580717
0.579468
0.57825
0.57706
0.575898
0.57476
0.573645
0.57255
0.571473
0.570411
0.569362
0.568323
0.56729
0.56626
0.56523
0.564194
0.56315
0.562092
0.561016
0.559917
0.558789
0.557629
0.55643
0.555187
0.553895
0.552549
0.551142
0.549671
0.548129
0.546512
0.544815
0.543034
0.541163
0.5392
0.53714
0.534979
0.532715
0.530344
0.527863
0.525271
0.522565
0.519743
0.516804
0.513746
0.510569
0.507271
0.503853
0.500315
0.496655
0.492875
0.488973
0.484958
0.480802
0.476599
0.472061
0.468077
0.46193
0.46193
-0.0455988
0.0455988
0.112277
0.161326
0.198359
0.227139
0.250114
0.268881
0.284501
0.297702
0.308999
0.318772
0.327307
0.334827
0.341507
0.347485
0.352874
0.357764
0.362228
0.366327
0.370109
0.373618
0.376885
0.379941
0.38281
0.385511
0.388064
0.390482
0.392779
0.394966
0.397053
0.399049
0.400962
0.402798
0.404563
0.406263
0.407903
0.409486
0.411017
0.412499
0.413936
0.41533
0.416685
0.418001
0.419282
0.42053
0.421746
0.422932
0.42409
0.42522
0.426325
0.427404
0.428459
0.42949
0.430498
0.431483
0.432445
0.433384
0.434299
0.43519
0.436057
0.436897
0.43771
0.438494
0.439248
0.439969
0.440654
0.441302
0.44191
0.442475
0.442993
0.443461
0.443876
0.444234
0.444531
0.444764
0.444928
0.445019
0.445033
0.444967
0.444815
0.444574
0.444239
0.443807
0.443273
0.442634
0.441886
0.441024
0.440045