# vtk DataFile Version 3.0
FlowField
ASCII
DATASET STRUCTURED_GRID
DIMENSIONS 22 17 12 
POINTS 4488 double
0 0 0
1 0 0
2 0 0
3 0 0
4 0 0
5 0 0
6 0 0
7 0 0
8 0 0
9 0 0
10 0 0
11 0 0
12 0 0
13 0 0
14 0 0
15 0 0
16 0 0
17 0 0
18 0 0
19 0 0
20 0 0
21 0 0
0 1 0
1 1 0
2 1 0
3 1 0
4 1 0
5 1 0
6 1 0
7 1 0
8 1 0
9 1 0
10 1 0
11 1 0
12 1 0
13 1 0
14 1 0
15 1 0
16 1 0
17 1 0
18 1 0
19 1 0
20 1 0
21 1 0
0 2 0
1 2 0
2 2 0
3 2 0
4 2 0
5 2 0
6 2 0
7 2 0
8 2 0
9 2 0
10 2 0
11 2 0
12 2 0
13 2 0
14 2 0
15 2 0
16 2 0
17 2 0
18 2 0
19 2 0
20 2 0
21 2 0
0 3 0
1 3 0
2 3 0
3 3 0
4 3 0
5 3 0
6 3 0
7 3 0
8 3 0
9 3 0
10 3 0
11 3 0
12 3 0
13 3 0
14 3 0
15 3 0
16 3 0
17 3 0
18 3 0
19 3 0
20 3 0
21 3 0
0 4 0
1 4 0
2 4 0
3 4 0
4 4 0
5 4 0
6 4 0
7 4 0
8 4 0
9 4 0
10 4 0
11 4 0
12 4 0
13 4 0
14 4 0
15 4 0
16 4 0
17 4 0
18 4 0
19 4 0
20 4 0
21 4 0
0 5 0
1 5 0
2 5 0
3 5 0
4 5 0
5 5 0
6 5 0
7 5 0
8 5 0
9 5 0
10 5 0
11 5 0
12 5 0
13 5 0
14 5 0
15 5 0
16 5 0
17 5 0
18 5 0
19 5 0
20 5 0
21 5 0
0 6 0
1 6 0
2 6 0
3 6 0
4 6 0
5 6 0
6 6 0
7 6 0
8 6 0
9 6 0
10 6 0
11 6 0
12 6 0
13 6 0
14 6 0
15 6 0
16 6 0
17 6 0
18 6 0
19 6 0
20 6 0
21 6 0
0 7 0
1 7 0
2 7 0
3 7 0
4 7 0
5 7 0
6 7 0
7 7 0
8 7 0
9 7 0
10 7 0
11 7 0
12 7 0
13 7 0
14 7 0
15 7 0
16 7 0
17 7 0
18 7 0
19 7 0
20 7 0
21 7 0
0 8 0
1 8 0
2 8 0
3 8 0
4 8 0
5 8 0
6 8 0
7 8 0
8 8 0
9 8 0
10 8 0
11 8 0
12 8 0
13 8 0
14 8 0
15 8 0
16 8 0
17 8 0
18 8 0
19 8 0
20 8 0
21 8 0
0 9 0
1 9 0
2 9 0
3 9 0
4 9 0
5 9 0
6 9 0
7 9 0
8 9 0
9 9 0
10 9 0
11 9 0
12 9 0
13 9 0
14 9 0
15 9 0
16 9 0
17 9 0
18 9 0
19 9 0
20 9 0
21 9 0
0 10 0
1 10 0
2 10 0
3 10 0
4 10 0
5 10 0
6 10 0
7 10 0
8 10 0
9 10 0
10 10 0
11 10 0
12 10 0
13 10 0
14 10 0
15 10 0
16 10 0
17 10 0
18 10 0
19 10 0
20 10 0
21 10 0
0 11 0
1 11 0
2 11 0
3 11 0
4 11 0
5 11 0
6 11 0
7 11 0
8 11 0
9 11 0
10 11 0
11 11 0
12 11 0
13 11 0
14 11 0
15 11 0
16 11 0
17 11 0
18 11 0
19 11 0
20 11 0
21 11 0
0 12 0
1 12 0
2 12 0
3 12 0
4 12 0
5 12 0
6 12 0
7 12 0
8 12 0
9 12 0
10 12 0
11 12 0
12 12 0
13 12 0
14 12 0
15 12 0
16 12 0
17 12 0
18 12 0
19 12 0
20 12 0
21 12 0
0 13 0
1 13 0
2 13 0
3 13 0
4 13 0
5 13 0
6 13 0
7 13 0
8 13 0
9 13 0
10 13 0
11 13 0
12 13 0
13 13 0
14 13 0
15 13 0
16 13 0
17 13 0
18 13 0
19 13 0
20 13 0
21 13 0
0 14 0
1 14 0
2 14 0
3 14 0
4 14 0
5 14 0
6 14 0
7 14 0
8 14 0
9 14 0
10 14 0
11 14 0
12 14 0
13 14 0
14 14 0
15 14 0
16 14 0
17 14 0
18 14 0
19 14 0
20 14 0
21 14 0
0 15 0
1 15 0
2 15 0
3 15 0
4 15 0
5 15 0
6 15 0
7 15 0
8 15 0
9 15 0
10 15 0
11 15 0
12 15 0
13 15 0
14 15 0
15 15 0
16 15 0
17 15 0
18 15 0
19 15 0
20 15 0
21 15 0
0 16 0
1 16 0
2 16 0
3 16 0
4 16 0
5 16 0
6 16 0
7 16 0
8 16 0
9 16 0
10 16 0
11 16 0
12 16 0
13 16 0
14 16 0
15 16 0
16 16 0
17 16 0
18 16 0
19 16 0
20 16 0
21 16 0
0 0 1
1 0 1
2 0 1
3 0 1
4 0 1
5 0 1
6 0 1
7 0 1
8 0 1
9 0 1
10 0 1
11 0 1
12 0 1
13 0 1
14 0 1
15 0 1
16 0 1
17 0 1
18 0 1
19 0 1
20 0 1
21 0 1
0 1 1
1 1 1
2 1 1
3 1 1
4 1 1
5 1 1
6 1 1
7 1 1
8 1 1
9 1 1
10 1 1
11 1 1
12 1 1
13 1 1
14 1 1
15 1 1
16 1 1
17 1 1
18 1 1
19 1 1
20 1 1
21 1 1
0 2 1
1 2 1
2 2 1
3 2 1
4 2 1
5 2 1
6 2 1
7 2 1
8 2 1
9 2 1
10 2 1
11 2 1
12 2 1
13 2 1
14 2 1
15 2 1
16 2 1
17 2 1
18 2 1
19 2 1
20 2 1
21 2 1
0 3 1
1 3 1
2 3 1
3 3 1
4 3 1
5 3 1
6 3 1
7 3 1
8 3 1
9 3 1
10 3 1
11 3 1
12 3 1
13 3 1
14 3 1
15 3 1
16 3 1
17 3 1
18 3 1
19 3 1
20 3 1
21 3 1
0 4 1
1 4 1
2 4 1
3 4 1
4 4 1
5 4 1
6 4 1
7 4 1
8 4 1
9 4 1
10 4 1
11 4 1
12 4 1
13 4 1
14 4 1
15 4 1
16 4 1
17 4 1
18 4 1
19 4 1
20 4 1
21 4 1
0 5 1
1 5 1
2 5 1
3 5 1
4 5 1
5 5 1
6 5 1
7 5 1
8 5 1
9 5 1
10 5 1
11 5 1
12 5 1
13 5 1
14 5 1
15 5 1
16 5 1
17 5 1
18 5 1
19 5 1
20 5 1
21 5 1
0 6 1
1 6 1
2 6 1
3 6 1
4 6 1
5 6 1
6 6 1
7 6 1
8 6 1
9 6 1
10 6 1
11 6 1
12 6 1
13 6 1
14 6 1
15 6 1
16 6 1
17 6 1
18 6 1
19 6 1
20 6 1
21 6 1
0 7 1
1 7 1
2 7 1
3 7 1
4 7 1
5 7 1
6 7 1
7 7 1
8 7 1
9 7 1
10 7 1
11 7 1
12 7 1
13 7 1
14 7 1
15 7 1
16 7 1
17 7 1
18 7 1
19 7 1
20 7 1
21 7 1
0 8 1
1 8 1
2 8 1
3 8 1
4 8 1
5 8 1
6 8 1
7 8 1
8 8 1
9 8 1
10 8 1
11 8 1
12 8 1
13 8 1
14 8 1
15 8 1
16 8 1
17 8 1
18 8 1
19 8 1
20 8 1
21 8 1
0 9 1
1 9 1
2 9 1
3 9 1
4 9 1
5 9 1
6 9 1
7 9 1
8 9 1
9 9 1
10 9 1
11 9 1
12 9 1
13 9 1
14 9 1
15 9 1
16 9 1
17 9 1
18 9 1
19 9 1
20 9 1
21 9 1
0 10 1
1 10 1
2 10 1
3 10 1
4 10 1
5 10 1
6 10 1
7 10 1
8 10 1
9 10 1
10 10 1
11 10 1
12 10 1
13 10 1
14 10 1
15 10 1
16 10 1
17 10 1
18 10 1
19 10 1
20 10 1
21 10 1
0 11 1
1 11 1
2 11 1
3 11 1
4 11 1
5 11 1
6 11 1
7 11 1
8 11 1
9 11 1
10 11 1
11 11 1
12 11 1
13 11 1
14 11 1
15 11 1
16 11 1
17 11 1
18 11 1
19 11 1
20 11 1
21 11 1
0 12 1
1 12 1
2 12 1
3 12 1
4 12 1
5 12 1
6 12 1
7 12 1
8 12 1
9 12 1
10 12 1
11 12 1
12 12 1
13 12 1
14 12 1
15 12 1
16 12 1
17 12 1
18 12 1
19 12 1
20 12 1
21 12 1
0 13 1
1 13 1
2 13 1
3 13 1
4 13 1
5 13 1
6 13 1
7 13 1
8 13 1
9 13 1
10 13 1
11 13 1
12 13 1
13 13 1
14 13 1
15 13 1
16 13 1
17 13 1
18 13 1
19 13 1
20 13 1
21 13 1
0 14 1
1 14 1
2 14 1
3 14 1
4 14 1
5 14 1
6 14 1
7 14 1
8 14 1
9 14 1
10 14 1
11 14 1
12 14 1
13 14 1
14 14 1
15 14 1
16 14 1
17 14 1
18 14 1
19 14 1
20 14 1
21 14 1
0 15 1
1 15 1
2 15 1
3 15 1
4 15 1
5 15 1
6 15 1
7 15 1
8 15 1
9 15 1
10 15 1
11 15 1
12 15 1
13 15 1
14 15 1
15 15 1
16 15 1
17 15 1
18 15 1
19 15 1
20 15 1
21 15 1
0 16 1
1 16 1
2 16 1
3 16 1
4 16 1
5 16 1
6 16 1
7 16 1
8 16 1
9 16 1
10 16 1
11 16 1
12 16 1
13 16 1
14 16 1
15 16 1
16 16 1
17 16 1
18 16 1
19 16 1
20 16 1
21 16 1
0 0 2
1 0 2
2 0 2
3 0 2
4 0 2
5 0 2
6 0 2
7 0 2
8 0 2
9 0 2
10 0 2
11 0 2
12 0 2
13 0 2
14 0 2
15 0 2
16 0 2
17 0 2
18 0 2
19 0 2
20 0 2
21 0 2
0 1 2
1 1 2
2 1 2
3 1 2
4 1 2
5 1 2
6 1 2
7 1 2
8 1 2
9 1 2
10 1 2
11 1 2
12 1 2
13 1 2
14 1 2
15 1 2
16 1 2
17 1 2
18 1 2
19 1 2
20 1 2
21 1 2
0 2 2
1 2 2
2 2 2
3 2 2
4 2 2
5 2 2
6 2 2
7 2 2
8 2 2
9 2 2
10 2 2
11 2 2
12 2 2
13 2 2
14 2 2
15 2 2
16 2 2
17 2 2
18 2 2
19 2 2
20 2 2
21 2 2
0 3 2
1 3 2
2 3 2
3 3 2
4 3 2
5 3 2
6 3 2
7 3 2
8 3 2
9 3 2
10 3 2
11 3 2
12 3 2
13 3 2
14 3 2
15 3 2
16 3 2
17 3 2
18 3 2
19 3 2
20 3 2
21 3 2
0 4 2
1 4 2
2 4 2
3 4 2
4 4 2
5 4 2
6 4 2
7 4 2
8 4 2
9 4 2
10 4 2
11 4 2
12 4 2
13 4 2
14 4 2
15 4 2
16 4 2
17 4 2
18 4 2
19 4 2
20 4 2
21 4 2
0 5 2
1 5 2
2 5 2
3 5 2
4 5 2
5 5 2
6 5 2
7 5 2
8 5 2
9 5 2
10 5 2
11 5 2
12 5 2
13 5 2
14 5 2
15 5 2
16 5 2
17 5 2
18 5 2
19 5 2
20 5 2
21 5 2
0 6 2
1 6 2
2 6 2
3 6 2
4 6 2
5 6 2
6 6 2
7 6 2
8 6 2
9 6 2
10 6 2
11 6 2
12 6 2
13 6 2
14 6 2
15 6 2
16 6 2
17 6 2
18 6 2
19 6 2
20 6 2
21 6 2
0 7 2
1 7 2
2 7 2
3 7 2
4 7 2
5 7 2
6 7 2
7 7 2
8 7 2
9 7 2
10 7 2
11 7 2
12 7 2
13 7 2
14 7 2
15 7 2
16 7 2
17 7 2
18 7 2
19 7 2
20 7 2
21 7 2
0 8 2
1 8 2
2 8 2
3 8 2
4 8 2
5 8 2
6 8 2
7 8 2
8 8 2
9 8 2
10 8 2
11 8 2
12 8 2
13 8 2
14 8 2
15 8 2
16 8 2
17 8 2
18 8 2
19 8 2
20 8 2
21 8 2
0 9 2
1 9 2
2 9 2
3 9 2
4 9 2
5 9 2
6 9 2
7 9 2
8 9 2
9 9 2
10 9 2
11 9 2
12 9 2
13 9 2
14 9 2
15 9 2
16 9 2
17 9 2
18 9 2
19 9 2
20 9 2
21 9 2
0 10 2
1 10 2
2 10 2
3 10 2
4 10 2
5 10 2
6 10 2
7 10 2
8 10 2
9 10 2
10 10 2
11 10 2
12 10 2
13 10 2
14 10 2
15 10 2
16 10 2
17 10 2
18 10 2
19 10 2
20 10 2
21 10 2
0 11 2
1 11 2
2 11 2
3 11 2
4 11 2
5 11 2
6 11 2
7 11 2
8 11 2
9 11 2
10 11 2
11 11 2
12 11 2
13 11 2
14 11 2
15 11 2
16 11 2
17 11 2
18 11 2
19 11 2
20 11 2
21 11 2
0 12 2
1 12 2
2 12 2
3 12 2
4 12 2
5 12 2
6 12 2
7 12 2
8 12 2
9 12 2
10 12 2
11 12 2
12 12 2
13 12 2
14 12 2
15 12 2
16 12 2
17 12 2
18 12 2
19 12 2
20 12 2
21 12 2
0 13 2
1 13 2
2 13 2
3 13 2
4 13 2
5 13 2
6 13 2
7 13 2
8 13 2
9 13 2
10 13 2
11 13 2
12 13 2
13 13 2
14 13 2
15 13 2
16 13 2
17 13 2
18 13 2
19 13 2
20 13 2
21 13 2
0 14 2
1 14 2
2 14 2
3 14 2
4 14 2
5 14 2
6 14 2
7 14 2
8 14 2
9 14 2
10 14 2
11 14 2
12 14 2
13 14 2
14 14 2
15 14 2
16 14 2
17 14 2
18 14 2
19 14 2
20 14 2
21 14 2
0 15 2
1 15 2
2 15 2
3 15 2
4 15 2
5 15 2
6 15 2
7 15 2
8 15 2
9 15 2
10 15 2
11 15 2
12 15 2
13 15 2
14 15 2
15 15 2
16 15 2
17 15 2
18 15 2
19 15 2
20 15 2
21 15 2
0 16 2
1 16 2
2 16 2
3 16 2
4 16 2
5 16 2
6 16 2
7 16 2
8 16 2
9 16 2
10 16 2
11 16 2
12 16 2
13 16 2
14 16 2
15 16 2
16 16 2
17 16 2
18 16 2
19 16 2
20 16 2
21 16 2
0 0 3
1 0 3
2 0 3
3 0 3
4 0 3
5 0 3
6 0 3
7 0 3
8 0 3
9 0 3
10 0 3
11 0 3
12 0 3
13 0 3
14 0 3
15 0 3
16 0 3
17 0 3
18 0 3
19 0 3
20 0 3
21 0 3
0 1 3
1 1 3
2 1 3
3 1 3
4 1 3
5 1 3
6 1 3
7 1 3
8 1 3
9 1 3
10 1 3
11 1 3
12 1 3
13 1 3
14 1 3
15 1 3
16 1 3
17 1 3
18 1 3
19 1 3
20 1 3
21 1 3
0 2 3
1 2 3
2 2 3
3 2 3
4 2 3
5 2 3
6 2 3
7 2 3
8 2 3
9 2 3
10 2 3
11 2 3
12 2 3
13 2 3
14 2 3
15 2 3
16 2 3
17 2 3
18 2 3
19 2 3
20 2 3
21 2 3
0 3 3
1 3 3
2 3 3
3 3 3
4 3 3
5 3 3
6 3 3
7 3 3
8 3 3
9 3 3
10 3 3
11 3 3
12 3 3
13 3 3
14 3 3
15 3 3
16 3 3
17 3 3
18 3 3
19 3 3
20 3 3
21 3 3
0 4 3
1 4 3
2 4 3
3 4 3
4 4 3
5 4 3
6 4 3
7 4 3
8 4 3
9 4 3
10 4 3
11 4 3
12 4 3
13 4 3
14 4 3
15 4 3
16 4 3
17 4 3
18 4 3
19 4 3
20 4 3
21 4 3
0 5 3
1 5 3
2 5 3
3 5 3
4 5 3
5 5 3
6 5 3
7 5 3
8 5 3
9 5 3
10 5 3
11 5 3
12 5 3
13 5 3
14 5 3
15 5 3
16 5 3
17 5 3
18 5 3
19 5 3
20 5 3
21 5 3
0 6 3
1 6 3
2 6 3
3 6 3
4 6 3
5 6 3
6 6 3
7 6 3
8 6 3
9 6 3
10 6 3
11 6 3
12 6 3
13 6 3
14 6 3
15 6 3
16 6 3
17 6 3
18 6 3
19 6 3
20 6 3
21 6 3
0 7 3
1 7 3
2 7 3
3 7 3
4 7 3
5 7 3
6 7 3
7 7 3
8 7 3
9 7 3
10 7 3
11 7 3
12 7 3
13 7 3
14 7 3
15 7 3
16 7 3
17 7 3
18 7 3
19 7 3
20 7 3
21 7 3
0 8 3
1 8 3
2 8 3
3 8 3
4 8 3
5 8 3
6 8 3
7 8 3
8 8 3
9 8 3
10 8 3
11 8 3
12 8 3
13 8 3
14 8 3
15 8 3
16 8 3
17 8 3
18 8 3
19 8 3
20 8 3
21 8 3
0 9 3
1 9 3
2 9 3
3 9 3
4 9 3
5 9 3
6 9 3
7 9 3
8 9 3
9 9 3
10 9 3
11 9 3
12 9 3
13 9 3
14 9 3
15 9 3
16 9 3
17 9 3
18 9 3
19 9 3
20 9 3
21 9 3
0 10 3
1 10 3
2 10 3
3 10 3
4 10 3
5 10 3
6 10 3
7 10 3
8 10 3
9 10 3
10 10 3
11 10 3
12 10 3
13 10 3
14 10 3
15 10 3
16 10 3
17 10 3
18 10 3
19 10 3
20 10 3
21 10 3
0 11 3
1 11 3
2 11 3
3 11 3
4 11 3
5 11 3
6 11 3
7 11 3
8 11 3
9 11 3
10 11 3
11 11 3
12 11 3
13 11 3
14 11 3
15 11 3
16 11 3
17 11 3
18 11 3
19 11 3
20 11 3
21 11 3
0 12 3
1 12 3
2 12 3
3 12 3
4 12 3
5 12 3
6 12 3
7 12 3
8 12 3
9 12 3
10 12 3
11 12 3
12 12 3
13 12 3
14 12 3
15 12 3
16 12 3
17 12 3
18 12 3
19 12 3
20 12 3
21 12 3
0 13 3
1 13 3
2 13 3
3 13 3
4 13 3
5 13 3
6 13 3
7 13 3
8 13 3
9 13 3
10 13 3
11 13 3
12 13 3
13 13 3
14 13 3
15 13 3
16 13 3
17 13 3
18 13 3
[...]
POINT_DATA 4488

SCALARS pressure double
LOOKUP_TABLE pressure
0
0.000566667
0.000240833
0.000102354
4.35005e-05
1.84877e-05
7.85728e-06
3.33934e-06
1.41922e-06
6.03169e-07
2.56347e-07
1.08947e-07
4.63027e-08
1.96786e-08
8.36342e-09
3.55445e-09
1.51064e-09
6.42023e-10
2.7286e-10
1.15965e-10
-0.000566667
-0.000566667
0.000566667
0.000566667
0.000240833
0.000102354
4.35005e-05
1.84877e-05
7.85728e-06
3.33934e-06
1.41922e-06
6.03169e-07
2.56347e-07
1.08947e-07
4.63027e-08
1.96786e-08
8.36342e-09
3.55445e-09
1.51064e-09
6.42023e-10
2.7286e-10
1.15965e-10
-0.000566667
-0.000566667
0.000240833
0.000240833
0.000163767
9.04811e-05
4.55537e-05
2.17741e-05
1.00747e-05
4.56076e-06
2.0332e-06
8.96364e-07
3.91922e-07
1.70295e-07
7.36434e-08
3.17295e-08
1.36316e-08
5.84325e-09
2.50032e-09
1.0684e-09
4.56028e-10
1.94478e-10
-0.000240833
-0.000240833
0.000102354
0.000102354
0.0105455
0.00361623
0.00124501
0.000430705
0.000149865
5.25048e-05
1.85429e-05
6.60936e-06
2.38043e-06
8.67248e-07
3.19903e-07
1.19555e-07
4.52835e-08
1.73831e-08
6.76036e-09
2.66178e-09
1.06005e-09
4.26541e-10
-0.000102354
-0.000102354
0.0795185
0.0795185
-1.6154
-0.654428
-0.222082
-0.0753615
-0.0255719
-0.00867661
-0.00294374
-0.000998625
-0.000338723
-0.000114871
-3.89474e-05
-1.32015e-05
-4.4731e-06
-1.51494e-06
-5.12782e-07
-1.73441e-07
-5.86095e-08
-1.97822e-08
-4.35088e-05
-4.35088e-05
-0.0456796
-0.0456796
1.03876
0.237092
0.00510335
-0.0238878
-0.0168163
-0.00866759
-0.00394785
-0.0016818
-0.000686979
-0.000272629
-0.000105936
-4.05067e-05
-1.52931e-05
-5.71475e-06
-2.11736e-06
-7.78873e-07
-2.84744e-07
-1.03539e-07
-1.85353e-05
-1.85353e-05
-0.0194138
-0.0194138
0.378622
0.209343
0.0729116
0.0166681
-5.03826e-05
-0.00296411
-0.00235007
-0.00137084
-0.000699657
-0.000330577
-0.000148414
-6.42332e-05
-2.7039e-05
-1.11363e-05
-4.50623e-06
-1.79694e-06
-7.07771e-07
-2.75845e-07
-7.99472e-06
-7.99472e-06
-0.00825088
-0.00825088
0.125926
0.113991
0.063547
0.0272731
0.00925574
0.00213915
-7.17107e-05
-0.000490466
-0.000404642
-0.000249974
-0.000135452
-6.7893e-05
-3.22769e-05
-1.47605e-05
-6.55068e-06
-2.83819e-06
-1.20563e-06
-5.037e-07
-3.61183e-06
-3.61183e-06
-0.00350663
-0.00350663
0.0416226
0.0529087
0.039595
0.0227352
0.0108769
0.00442546
0.00148027
0.000336535
-2.31563e-05
-9.28645e-05
-7.76277e-05
-4.9477e-05
-2.77963e-05
-1.44693e-05
-7.1468e-06
-3.39489e-06
-1.56418e-06
-7.03078e-07
-1.83384e-06
-1.83384e-06
-0.00149032
-0.00149032
0.013645
0.0226283
0.0211559
0.014923
0.00877195
0.00448712
0.00202891
0.000804253
0.000265573
5.87208e-05
-6.42833e-06
-1.90078e-05
-1.59134e-05
-1.03301e-05
-5.94215e-06
-3.1746e-06
-1.61118e-06
-7.86849e-07
-1.11379e-06
-1.11379e-06
-0.000420884
-0.000420884
0.00449619
0.00905232
0.0102708
0.00856587
0.00589486
0.00352987
0.00188999
0.000916042
0.000401749
0.00015656
5.10447e-05
1.08925e-05
-1.7071e-06
-4.09266e-06
-3.41184e-06
-2.23939e-06
-1.30919e-06
-7.12655e-07
-7.76239e-07
-7.76239e-07
2.27229e+232
2.27229e+232
-1.04525e+232
-3.55386e+231
-1.20831e+231
-4.10826e+230
-1.39681e+230
-4.74915e+229
-1.61471e+229
-5.49002e+228
-1.86661e+228
-6.34646e+227
-2.1578e+227
-7.33651e+226
-2.49441e+226
-8.481e+225
-2.88354e+225
-9.80404e+224
-3.33337e+224
-1.13335e+224
-4.81673e+223
-4.81673e+223
9.65723e+231
9.65723e+231
-2.70402e+230
-1.30025e+231
-8.52911e+230
-4.29671e+230
-1.9358e+230
-8.19641e+229
-3.33578e+229
-1.32083e+229
-5.12546e+228
-1.95844e+228
-7.39233e+227
-2.76283e+227
-1.02417e+227
-3.77054e+226
-1.38003e+226
-5.02542e+225
-1.82198e+225
-6.58007e+224
-3.00124e+224
-3.00124e+224
4.10432e+231
4.10432e+231
1.30353e+231
1.11638e+228
-2.8961e+230
-2.44555e+230
-1.48966e+230
-7.85162e+229
-3.80372e+229
-1.74234e+229
-7.66663e+228
-3.27252e+228
-1.364e+228
-5.57695e+227
-2.24438e+227
-8.91289e+226
-3.49959e+226
-1.36072e+226
-5.24594e+225
-2.00734e+225
-9.80673e+224
-9.80673e+224
1.74434e+231
1.74434e+231
1.03628e+231
3.52713e+230
2.14551e+229
-7.58541e+229
-7.64388e+229
-5.26847e+229
-3.08454e+229
-1.64114e+229
-8.18654e+228
-3.89608e+228
-1.78843e+228
-7.97681e+227
-3.47521e+227
-1.48461e+227
-6.23753e+226
-2.58341e+226
-1.05672e+226
-4.27534e+225
-2.23381e+225
-2.23381e+225
9.88457e+230
9.88457e+230
8.60512e+230
5.15621e+230
2.28257e+230
6.47713e+229
-4.9587e+228
-2.44984e+229
-2.35212e+229
-1.69713e+229
-1.06921e+229
-6.19998e+228
-3.39507e+228
-1.78192e+228
-9.05012e+227
-4.47726e+227
-2.16793e+227
-1.03117e+227
-4.83156e+226
-2.23511e+226
-1.39315e+226
-1.39315e+226
9.88457e+230
9.88457e+230
8.60512e+230
5.15621e+230
2.28257e+230
6.47713e+229
-4.9587e+228
-2.44984e+229
-2.35212e+229
-1.69713e+229
-1.06921e+229
-6.19998e+228
-3.39507e+228
-1.78192e+228
-9.05012e+227
-4.47726e+227
-2.16793e+227
-1.03117e+227
-4.83156e+226
-2.23511e+226
-1.39315e+226
-1.39315e+226
0
0.000566667
0.000240833
0.000102354
4.35005e-05
1.84877e-05
7.85728e-06
3.33934e-06
1.41922e-06
6.03169e-07
2.56347e-07
1.08947e-07
4.63027e-08
1.96786e-08
8.36342e-09
3.55445e-09
1.51064e-09
6.42023e-10
2.7286e-10
1.15965e-10
-0.000566667
-0.000566667
0.000566667
0.000566667
0.000240833
0.000102354
4.35005e-05
1.84877e-05
7.85728e-06
3.33934e-06
1.41922e-06
6.03169e-07
2.56347e-07
1.08947e-07
4.63027e-08
1.96786e-08
8.36342e-09
3.55445e-09
1.51064e-09
6.42023e-10
2.7286e-10
1.15965e-10
-0.000566667
-0.000566667
0.000240833
0.000240833
0.000163767
9.04811e-05
4.55537e-05
2.17741e-05
1.00747e-05
4.56076e-06
2.0332e-06
8.96364e-07
3.91922e-07
1.70295e-07
7.36434e-08
3.17295e-08
1.36316e-08
5.84325e-09
2.50032e-09
1.0684e-09
4.56028e-10
1.94478e-10
-0.000240833
-0.000240833
0.000102354
0.000102354
0.0105455
0.00361623
0.00124501
0.000430705
0.000149865
5.25048e-05
1.85429e-05
6.60936e-06
2.38043e-06
8.67248e-07
3.19903e-07
1.19555e-07
4.52835e-08
1.73831e-08
6.76036e-09
2.66178e-09
1.06005e-09
4.26541e-10
-0.000102354
-0.000102354
0.0795185
0.0795185
-1.6154
-0.654428
-0.222082
-0.0753615
-0.0255719
-0.00867661
-0.00294374
-0.000998625
-0.000338723
-0.000114871
-3.89474e-05
-1.32015e-05
-4.4731e-06
-1.51494e-06
-5.12782e-07
-1.73441e-07
-5.86095e-08
-1.97822e-08
-4.35088e-05
-4.35088e-05
-0.0456796
-0.0456796
1.03876
0.237092
0.00510335
-0.0238878
-0.0168163
-0.00866759
-0.00394785
-0.0016818
-0.000686979
-0.000272629
-0.000105936
-4.05067e-05
-1.52931e-05
-5.71475e-06
-2.11736e-06
-7.78873e-07
-2.84744e-07
-1.03539e-07
-1.85353e-05
-1.85353e-05
-0.0194138
-0.0194138
0.378622
0.209343
0.0729116
0.0166681
-5.03826e-05
-0.00296411
-0.00235007
-0.00137084
-0.000699657
-0.000330577
-0.000148414
-6.42332e-05
-2.7039e-05
-1.11363e-05
-4.50623e-06
-1.79694e-06
-7.07771e-07
-2.75845e-07
-7.99472e-06
-7.99472e-06
-0.00825088
-0.00825088
0.125926
0.113991
0.063547
0.0272731
0.00925574
0.00213915
-7.17107e-05
-0.000490466
-0.000404642
-0.000249974
-0.000135452
-6.7893e-05
-3.22769e-05
-1.47605e-05
-6.55068e-06
-2.83819e-06
-1.20563e-06
-5.037e-07
-3.61183e-06
-3.61183e-06
-0.00350663
-0.00350663
0.0416226
0.0529087
0.039595
0.0227352
0.0108769
0.00442546
0.00148027
0.000336535
-2.31563e-05
-9.28645e-05
-7.76277e-05
-4.9477e-05
-2.77963e-05
-1.44693e-05
-7.1468e-06
-3.39489e-06
-1.56418e-06
-7.03078e-07
-1.83384e-06
-1.83384e-06
-0.00149032
-0.00149032
0.013645
0.0226283
0.0211559
0.014923
0.00877195
0.00448712
0.00202891
0.000804253
0.000265573
5.87208e-05
-6.42833e-06
-1.90078e-05
-1.59134e-05
-1.03301e-05
-5.94215e-06
-3.1746e-06
-1.61118e-06
-7.86849e-07
-1.11379e-06
-1.11379e-06
-0.000420884
-0.000420884
0.00449619
0.00905232
0.0102708
0.00856587
0.00589486
0.00352987
0.00188999
0.000916042
0.000401749
0.00015656
5.10447e-05
1.08925e-05
-1.7071e-06
-4.09266e-06
-3.41184e-06
-2.23939e-06
-1.30919e-06
-7.12655e-07
-7.76239e-07
-7.76239e-07
2.27229e+232
2.27229e+232
-1.04525e+232
-3.55386e+231
-1.20831e+231
-4.10826e+230
-1.39681e+230
-4.74915e+229
-1.61471e+229
-5.49002e+228
-1.86661e+228
-6.34646e+227
-2.1578e+227
-7.33651e+226
-2.49441e+226
-8.481e+225
-2.88354e+225
-9.80404e+224
-3.33337e+224
-1.13335e+224
-4.81673e+223
-4.81673e+223
9.65723e+231
9.65723e+231
-2.70402e+230
-1.30025e+231
-8.52911e+230
-4.29671e+230
-1.9358e+230
-8.19641e+229
-3.33578e+229
-1.32083e+229
-5.12546e+228
-1.95844e+228
-7.39233e+227
-2.76283e+227
-1.02417e+227
-3.77054e+226
-1.38003e+226
-5.02542e+225
-1.82198e+225
-6.58007e+224
-3.00124e+224
-3.00124e+224
4.10432e+231
4.10432e+231
1.30353e+231
1.11638e+228
-2.8961e+230
-2.44555e+230
-1.48966e+230
-7.85162e+229
-3.80372e+229
-1.74234e+229
-7.66663e+228
-3.27252e+228
-1.364e+228
-5.57695e+227
-2.24438e+227
-8.91289e+226
-3.49959e+226
-1.36072e+226
-5.24594e+225
-2.00734e+225
-9.80673e+224
-9.80673e+224
1.74434e+231
1.74434e+231
1.03628e+231
3.52713e+230
2.14551e+229
-7.58541e+229
-7.64388e+229
-5.26847e+229
-3.08454e+229
-1.64114e+229
-8.18654e+228
-3.89608e+228
-1.78843e+228
-7.97681e+227
-3.47521e+227
-1.48461e+227
-6.23753e+226
-2.58341e+226
-1.05672e+226
-4.27534e+225
-2.23381e+225
-2.23381e+225
9.88457e+230
9.88457e+230
8.60512e+230
5.15621e+230
2.28257e+230
6.47713e+229
-4.9587e+228
-2.44984e+229
-2.35212e+229
-1.69713e+229
-1.06921e+229
-6.19998e+228
-3.39507e+228
-1.78192e+228
-9.05012e+227
-4.47726e+227
-2.16793e+227
-1.03117e+227
-4.83156e+226
-2.23511e+226
-1.39315e+226
-1.39315e+226
9.88457e+230
9.88457e+230
8.60512e+230
5.15621e+230
2.28257e+230
6.47713e+229
-4.9587e+228
-2.44984e+229
-2.35212e+229
-1.69713e+229
-1.06921e+229
-6.19998e+228
-3.39507e+228
-1.78192e+228
-9.05012e+227
-4.47726e+227
-2.16793e+227
-1.03117e+227
-4.83156e+226
-2.23511e+226
-1.39315e+226
-1.39315e+226
0
0.000665833
0.000308267
0.000139611
6.22579e-05
2.74535e-05
1.20057e-05
5.21731e-06
2.25642e-06
9.7226e-07
4.17726e-07
1.79069e-07
7.66264e-08
3.27437e-08
1.39764e-08
5.9605e-09
2.54019e-09
1.08195e-09
4.60636e-10
1.96044e-10
-0.000665833
-0.000665833
0.000665833
0.000665833
0.000308267
0.000139611
6.22579e-05
2.74535e-05
1.20057e-05
5.21731e-06
2.25642e-06
9.7226e-07
4.17726e-07
1.79069e-07
7.66264e-08
3.27437e-08
1.39764e-08
5.9605e-09
2.54019e-09
1.08195e-09
4.60636e-10
1.96044e-10
-0.000665833
-0.000665833
0.000308267
0.000308267
0.000221085
0.000127834
6.67661e-05
3.28649e-05
1.55678e-05
7.18134e-06
3.2501e-06
1.45031e-06
6.4032e-07
2.80411e-07
1.22026e-07
5.28415e-08
2.2794e-08
9.8027e-09
4.20558e-09
1.80085e-09
7.69961e-10
3.28804e-10
-0.000308266
-0.000308266
0.000139611
0.000139611
0.0118026
0.00440488
0.00161972
0.000590265
0.000214114
7.75768e-05
2.81548e-05
1.02608e-05
3.7631e-06
1.39138e-06
5.19438e-07
1.9602e-07
7.48275e-08
2.89038e-08
1.12964e-08
4.46506e-09
1.78361e-09
7.19369e-10
-0.000139611
-0.000139611
0.0906638
0.0906638
-1.80021
-0.782916
-0.284291
-0.101734
-0.0360094
-0.0126391
-0.00440715
-0.00152873
-0.000528045
-0.000181765
-6.23881e-05
-2.13615e-05
-7.2986e-06
-2.48898e-06
-8.473e-07
-2.87945e-07
-9.7685e-08
-3.30786e-08
-6.22719e-05
-6.22719e-05
-0.0482854
-0.0482854
1.1067
0.247599
-0.00895003
-0.0381287
-0.0257704
-0.0133385
-0.00614649
-0.00265116
-0.00109542
-0.000439113
-0.000172107
-6.62931e-05
-2.5184e-05
-9.45987e-06
-3.52028e-06
-1.29968e-06
-4.76597e-07
-1.73744e-07
-2.75335e-05
-2.75335e-05
-0.0230177
-0.0230177
0.441024
0.254424
0.0902092
0.0194788
-0.00179691
-0.0051282
-0.00386035
-0.00223333
-0.00114138
-0.00054147
-0.000244231
-0.000106181
-4.48812e-05
-1.85519e-05
-7.53055e-06
-3.01103e-06
-1.1887e-06
-4.64181e-07
-1.22374e-05
-1.22374e-05
-0.0106313
-0.0106313
0.157624
0.149044
0.0857935
0.0375545
0.0127538
0.00276668
-0.000330192
-0.000865297
-0.000683207
-0.000417818
-0.000225959
-0.000113343
-5.39752e-05
-2.47315e-05
-1.09969e-05
-4.77308e-06
-2.03076e-06
-8.49616e-07
-5.67761e-06
-5.67761e-06
-0.00480691
-0.00480691
0.0550912
0.0728292
0.0561617
0.0329945
0.0160438
0.00658352
0.00219119
0.000471021
-6.66805e-05
-0.000163586
-0.000132366
-8.36358e-05
-4.68654e-05
-2.43854e-05
-1.20499e-05
-5.72841e-06
-2.64161e-06
-1.18839e-06
-2.95794e-06
-2.95794e-06
-0.00214106
-0.00214106
0.0188686
0.0323924
0.0310845
0.0223839
0.0133732
0.00692577
0.003158
0.00125609
0.000412246
8.70911e-05
-1.46491e-05
-3.3233e-05
-2.72033e-05
-1.75437e-05
-1.00685e-05
-5.37525e-06
-2.72795e-06
-1.33257e-06
-1.83746e-06
-1.83746e-06
1.81783e+232
1.81783e+232
-9.99807e+231
-2.83279e+231
-8.02623e+230
-2.2741e+230
-6.44328e+229
-1.8256e+229
-5.17252e+228
-1.46555e+228
-4.15238e+227
-1.17651e+227
-3.33344e+226
-9.44475e+225
-2.67601e+225
-7.58204e+224
-2.14824e+224
-6.08669e+223
-1.72456e+223
-4.88626e+222
-1.66133e+222
-1.66133e+222
nan
nan
nan
nan
nan
nan
nan
nan
nan
nan
nan
nan
nan
nan
nan
nan
nan
nan
nan
nan
nan
nan
nan
nan
nan
nan
nan
nan
nan
nan
nan
nan
nan
nan
nan
nan
nan
nan
nan
nan
nan
nan
nan
nan
nan
nan
nan
nan
nan
nan
nan
nan
nan
nan
nan
nan
nan
nan
nan
nan
nan
nan
nan
nan
nan
nan
nan
nan
nan
nan
nan
nan
nan
nan
nan
nan
nan
nan
nan
nan
nan
nan
nan
nan
nan
nan
nan
nan
nan
nan
nan
nan
nan
nan
nan
nan
nan
nan
nan
nan
nan
nan
nan
nan
nan
nan
nan
nan
nan
nan
nan
nan
nan
nan
nan
nan
nan
nan
nan
nan
nan
nan
nan
nan
nan
nan
nan
nan
nan
nan
nan
nan
0.000707979
0.000707979
0.000345524
0.000164946
7.72493e-05
3.5599e-05
1.61856e-05
7.27698e-06
3.24136e-06
1.43263e-06
6.29121e-07
2.74785e-07
1.1948e-07
5.1756e-08
2.2349e-08
9.62523e-09
4.13624e-09
1.77419e-09
7.5984e-10
3.25001e-10
-0.000707979
-0.000707979
0.000707979
0.000707979
0.000345524
0.000164946
7.72493e-05
3.5599e-05
1.61856e-05
7.27698e-06
3.24136e-06
1.43263e-06
6.29121e-07
2.74785e-07
1.1948e-07
5.1756e-08
2.2349e-08
9.62523e-09
4.13624e-09
1.77419e-09
7.5984e-10
3.25001e-10
-0.000707979
-0.000707979
0.000345524
0.000345524
0.000258437
0.000156178
8.50548e-05
4.3497e-05
2.13209e-05
1.01375e-05
4.71152e-06
2.15176e-06
9.69341e-07
4.31952e-07
1.90813e-07
8.36997e-08
3.65054e-08
1.58478e-08
6.85372e-09
2.95481e-09
1.27064e-09
5.45259e-10
-0.000345523
-0.000345523
0.000164946
0.000164946
0.00346402
0.00227377
0.00112726
0.000498955
0.000208077
8.38076e-05
3.30576e-05
1.28832e-05
4.9911e-06
1.93076e-06
7.48285e-07
2.91268e-07
1.1407e-07
4.49995e-08
1.78924e-08
7.17181e-09
2.89738e-09
1.17924e-09
-0.000164945
-0.000164945
0.0308818
0.0308818
-0.50047
-0.362982
-0.183075
-0.0805544
-0.0329675
-0.0128981
-0.00489379
-0.00181606
-0.00066275
-0.000238732
-8.51054e-05
-3.00831e-05
-1.05592e-05
-3.68423e-06
-1.27886e-06
-4.41897e-07
-1.52061e-07
-5.2122e-08
-7.72715e-05
-7.72715e-05
-0.00591724
-0.00591724
0.170231
0.0155403
-0.0500039
-0.0477947
-0.0301842
-0.0159859
-0.00765742
-0.00343531
-0.00147149
-0.000608977
-0.000245421
-9.68424e-05
-3.75659e-05
-1.43678e-05
-5.43064e-06
-2.03213e-06
-7.53889e-07
-2.77597e-07
-3.57281e-05
-3.57281e-05
-0.00983789
-0.00983789
0.170402
0.12477
0.0467431
0.00522103
-0.00758203
-0.00813057
-0.00556703
-0.00318344
-0.00164229
-0.000791275
-0.000362929
-0.000160353
-6.87935e-05
-2.88187e-05
-1.18376e-05
-4.7829e-06
-1.90555e-06
-7.50077e-07
-1.65633e-05
-1.65633e-05
-0.00695954
-0.00695954
0.0909687
0.103355
0.066836
0.0310566
0.0102647
0.00138856
-0.00127745
-0.00150909
-0.00108646
-0.000650408
-0.000351134
-0.000177035
-8.49444e-05
-3.92401e-05
-1.75878e-05
-7.69075e-06
-3.29433e-06
-1.38664e-06
-8.03337e-06
-8.03337e-06
-0.00400059
-0.00400059
0.0402501
0.0613231
0.0522242
0.0329447
0.0167884
0.00701547
0.00224661
0.00034242
-0.000229706
-0.000295715
-0.000220777
-0.00013641
-7.59957e-05
-3.95594e-05
-1.96059e-05
-9.35709e-06
-4.33303e-06
-1.95728e-06
-4.40252e-06
-4.40252e-06
-0.00208816
-0.00208816
0.0161587
0.031131
0.0324246
0.0248634
0.0155904
0.00836731
0.00390204
0.00155849
0.000493292
8.0656e-05
-4.38517e-05
-6.04902e-05
-4.63786e-05
-2.93198e-05
-1.6715e-05
-8.91008e-06
-4.52513e-06
-2.21425e-06
-2.87444e-06
-2.87444e-06
6.18063e+231
6.18063e+231
-1.08161e+231
-1.10908e+231
-5.41649e+230
-2.179e+230
-7.99943e+229
-2.78376e+229
-9.35286e+228
-3.06521e+228
-9.86128e+227
-3.12737e+227
-9.80537e+226
-3.04579e+226
-9.38794e+225
-2.87474e+225
-8.75377e+224
-2.65269e+224
-8.00458e+223
-2.40641e+223
-8.74664e+222
-8.74664e+222
nan
nan
nan
nan
nan
nan
nan
nan
nan
nan
nan
nan
nan
nan
nan
nan
nan
nan
nan
nan
nan
nan
nan
nan
nan
nan
nan
nan
nan
nan
nan
nan
nan
nan
nan
nan
nan
nan
nan
nan
nan
nan
nan
nan
nan
nan
nan
nan
nan
nan
nan
nan
nan
nan
nan
nan
nan
nan
nan
nan
nan
nan
nan
nan
nan
nan
nan
nan
nan
nan
nan
nan
nan
nan
nan
nan
nan
nan
nan
nan
nan
nan
nan
nan
nan
nan
nan
nan
nan
nan
nan
nan
nan
nan
nan
nan
nan
nan
nan
nan
nan
nan
nan
nan
nan
nan
nan
nan
nan
nan
nan
nan
nan
nan
nan
nan
nan
nan
nan
nan
nan
nan
nan
nan
nan
nan
nan
nan
nan
nan
nan
nan
0.000725891
0.000725891
0.000364281
0.000179937
8.74434e-05
4.18344e-05
1.97268e-05
9.18128e-06
4.2237e-06
1.92315e-06
8.67772e-07
3.88469e-07
1.72703e-07
7.63159e-08
3.35461e-08
1.46782e-08
6.39693e-09
2.77818e-09
1.20293e-09
5.19495e-10
-0.000725891
-0.000725891
0.000725891
0.000725891
0.000364281
0.000179937
8.74434e-05
4.18344e-05
1.97268e-05
9.18128e-06
4.2237e-06
1.92315e-06
8.67772e-07
3.88469e-07
1.72703e-07
7.63159e-08
3.35461e-08
1.46782e-08
6.39693e-09
2.77818e-09
1.20293e-09
5.19495e-10
-0.000725891
-0.000725891
0.000364281
0.000364281
0.00027965
0.000174467
9.83067e-05
5.20308e-05
2.63722e-05
1.29458e-05
6.19962e-06
2.91112e-06
1.34533e-06
6.1363e-07
2.76858e-07
1.23781e-07
5.49192e-08
2.42095e-08
1.06137e-08
4.63156e-09
2.01312e-09
8.72064e-10
-0.000364281
-0.000364281
0.000179937
0.000179937
0.00111169
0.00100865
0.000633026
0.00033547
0.000161477
7.31653e-05
3.18531e-05
1.35001e-05
5.62035e-06
2.31334e-06
9.45904e-07
3.85603e-07
1.57135e-07
6.41307e-08
2.62471e-08
1.0781e-08
4.44592e-09
1.84088e-09
-0.000179936
-0.000179936
0.010561
0.010561
-0.138493
-0.141799
-0.091868
-0.048758
-0.0231098
-0.0101815
-0.00426231
-0.00171838
-0.000673061
-0.000257686
-9.68562e-05
-3.58569e-05
-1.31067e-05
-4.73926e-06
-1.6977e-06
-6.03164e-07
-2.12721e-07
-7.45171e-08
-8.74759e-05
-8.74759e-05
0.00157887
0.00157887
0.00943989
-0.0330986
-0.049575
-0.0414028
-0.0268308
-0.0150162
-0.00763183
-0.00362257
-0.00163402
-0.000708526
-0.000297727
-0.000121954
-4.89109e-05
-1.92718e-05
-7.48003e-06
-2.86601e-06
-1.08591e-06
-4.0744e-07
-4.20279e-05
-4.20279e-05
-0.00280807
-0.00280807
0.0501595
0.0401855
0.0105835
-0.00725285
-0.0118053
-0.00990306
-0.00654554
-0.00378294
-0.00200012
-0.000991644
-0.000468152
-0.00021263
-9.35948e-05
-4.01442e-05
-1.68475e-05
-6.94066e-06
-2.8141e-06
-1.12529e-06
-2.03036e-05
-2.03036e-05
-0.00332099
-0.00332099
0.0390454
0.0517327
0.0365931
0.0171125
0.00441204
-0.00116237
-0.00254585
-0.00222073
-0.00150374
-0.000891308
-0.000484668
-0.000247728
-0.000120776
-5.6712e-05
-2.58251e-05
-1.14627e-05
-4.97848e-06
-2.12228e-06
-1.03561e-05
-1.03561e-05
-0.00248934
-0.00248934
0.0217617
0.0381983
0.0359878
0.0243794
0.0129143
0.00531743
0.00142182
-0.00012934
-0.000527789
-0.000485863
-0.000337537
-0.000204475
-0.000113686
-5.9488e-05
-2.9727e-05
-1.43216e-05
-6.69605e-06
-3.05309e-06
-6.056e-06
-6.056e-06
-0.00155635
-0.00155635
0.0103031
0.0225625
0.0257762
0.0212554
0.0140987
0.00787197
0.00373882
0.00146426
0.000405099
-3.07122e-08
-0.000108069
-0.000105693
-7.52981e-05
-4.64967e-05
-2.63326e-05
-1.40432e-05
-7.15825e-06
-3.52058e-06
-4.23335e-06
-4.23335e-06
2.10141e+231
2.10141e+231
2.88944e+230
-2.32371e+230
-2.19306e+230
-1.23875e+230
-5.77629e+229
-2.42535e+229
-9.5218e+228
-3.56632e+228
-1.28986e+228
-4.54069e+227
-1.56435e+227
-5.29529e+226
-1.76633e+226
-5.8191e+225
-1.89677e+225
-6.12577e+224
-1.96243e+224
-6.24204e+223
-2.41968e+223
-2.41968e+223
nan
nan
nan
nan
nan
nan
nan
nan
nan
nan
nan
nan
nan
nan
nan
nan
nan
nan
nan
nan
nan
nan
nan
nan
nan
nan
nan
nan
nan
nan
nan
nan
nan
nan
nan
nan
nan
nan
nan
nan
nan
nan
nan
nan
nan
nan
nan
nan
nan
nan
nan
nan
nan
nan
nan
nan
nan
nan
nan
nan
nan
nan
nan
nan
nan
nan
nan
nan
nan
nan
nan
nan
nan
nan
nan
nan
nan
nan
nan
nan
nan
nan
nan
nan
nan
nan
nan
nan
nan
nan
nan
nan
nan
nan
nan
nan
nan
nan
nan
nan
nan
nan
nan
nan
nan
nan
nan
nan
nan
nan
nan
nan
nan
nan
nan
nan
nan
nan
nan
nan
nan
nan
nan
nan
nan
nan
nan
nan
nan
nan
nan
nan
0.000733504
0.000733504
0.000373247
0.000188083
9.36788e-05
4.60745e-05
2.23724e-05
1.07283e-05
5.08367e-06
2.38232e-06
1.10503e-06
5.0779e-07
2.31368e-07
1.04612e-07
4.69739e-08
2.09617e-08