# vtk DataFile Version 3.0
FlowField
ASCII
DATASET STRUCTURED_GRID
DIMENSIONS 22 17 12 
POINTS 4488 double
0 0 0
0.1 0 0
0.2 0 0
0.3 0 0
0.4 0 0
0.5 0 0
0.6 0 0
0.7 0 0
0.8 0 0
0.9 0 0
1 0 0
1.1 0 0
1.2 0 0
1.3 0 0
1.4 0 0
1.5 0 0
1.6 0 0
1.7 0 0
1.8 0 0
1.9 0 0
2 0 0
2.1 0 0
0 0.1 0
0.1 0.1 0
0.2 0.1 0
0.3 0.1 0
0.4 0.1 0
0.5 0.1 0
0.6 0.1 0
0.7 0.1 0
0.8 0.1 0
0.9 0.1 0
1 0.1 0
1.1 0.1 0
1.2 0.1 0
1.3 0.1 0
1.4 0.1 0
1.5 0.1 0
1.6 0.1 0
1.7 0.1 0
1.8 0.1 0
1.9 0.1 0
2 0.1 0
2.1 0.1 0
0 0.2 0
0.1 0.2 0
0.2 0.2 0
0.3 0.2 0
0.4 0.2 0
0.5 0.2 0
0.6 0.2 0
0.7 0.2 0
0.8 0.2 0
0.9 0.2 0
1 0.2 0
1.1 0.2 0
1.2 0.2 0
1.3 0.2 0
1.4 0.2 0
1.5 0.2 0
1.6 0.2 0
1.7 0.2 0
1.8 0.2 0
1.9 0.2 0
2 0.2 0
2.1 0.2 0
0 0.3 0
0.1 0.3 0
0.2 0.3 0
0.3 0.3 0
0.4 0.3 0
0.5 0.3 0
0.6 0.3 0
0.7 0.3 0
0.8 0.3 0
0.9 0.3 0
1 0.3 0
1.1 0.3 0
1.2 0.3 0
1.3 0.3 0
1.4 0.3 0
1.5 0.3 0
1.6 0.3 0
1.7 0.3 0
1.8 0.3 0
1.9 0.3 0
2 0.3 0
2.1 0.3 0
0 0.4 0
0.1 0.4 0
0.2 0.4 0
0.3 0.4 0
0.4 0.4 0
0.5 0.4 0
0.6 0.4 0
0.7 0.4 0
0.8 0.4 0
0.9 0.4 0
1 0.4 0
1.1 0.4 0
1.2 0.4 0
1.3 0.4 0
1.4 0.4 0
1.5 0.4 0
1.6 0.4 0
1.7 0.4 0
1.8 0.4 0
1.9 0.4 0
2 0.4 0
2.1 0.4 0
0 0.5 0
0.1 0.5 0
0.2 0.5 0
0.3 0.5 0
0.4 0.5 0
0.5 0.5 0
0.6 0.5 0
0.7 0.5 0
0.8 0.5 0
0.9 0.5 0
1 0.5 0
1.1 0.5 0
1.2 0.5 0
1.3 0.5 0
1.4 0.5 0
1.5 0.5 0
1.6 0.5 0
1.7 0.5 0
1.8 0.5 0
1.9 0.5 0
2 0.5 0
2.1 0.5 0
0 0.6 0
0.1 0.6 0
0.2 0.6 0
0.3 0.6 0
0.4 0.6 0
0.5 0.6 0
0.6 0.6 0
0.7 0.6 0
0.8 0.6 0
0.9 0.6 0
1 0.6 0
1.1 0.6 0
1.2 0.6 0
1.3 0.6 0
1.4 0.6 0
1.5 0.6 0
1.6 0.6 0
1.7 0.6 0
1.8 0.6 0
1.9 0.6 0
2 0.6 0
2.1 0.6 0
0 0.7 0
0.1 0.7 0
0.2 0.7 0
0.3 0.7 0
0.4 0.7 0
0.5 0.7 0
0.6 0.7 0
0.7 0.7 0
0.8 0.7 0
0.9 0.7 0
1 0.7 0
1.1 0.7 0
1.2 0.7 0
1.3 0.7 0
1.4 0.7 0
1.5 0.7 0
1.6 0.7 0
1.7 0.7 0
1.8 0.7 0
1.9 0.7 0
2 0.7 0
2.1 0.7 0
0 0.8 0
0.1 0.8 0
0.2 0.8 0
0.3 0.8 0
0.4 0.8 0
0.5 0.8 0
0.6 0.8 0
0.7 0.8 0
0.8 0.8 0
0.9 0.8 0
1 0.8 0
1.1 0.8 0
1.2 0.8 0
1.3 0.8 0
1.4 0.8 0
1.5 0.8 0
1.6 0.8 0
1.7 0.8 0
1.8 0.8 0
1.9 0.8 0
2 0.8 0
2.1 0.8 0
0 0.9 0
0.1 0.9 0
0.2 0.9 0
0.3 0.9 0
0.4 0.9 0
0.5 0.9 0
0.6 0.9 0
0.7 0.9 0
0.8 0.9 0
0.9 0.9 0
1 0.9 0
1.1 0.9 0
1.2 0.9 0
1.3 0.9 0
1.4 0.9 0
1.5 0.9 0
1.6 0.9 0
1.7 0.9 0
1.8 0.9 0
1.9 0.9 0
2 0.9 0
2.1 0.9 0
0 1 0
0.1 1 0
0.2 1 0
0.3 1 0
0.4 1 0
0.5 1 0
0.6 1 0
0.7 1 0
0.8 1 0
0.9 1 0
1 1 0
1.1 1 0
1.2 1 0
1.3 1 0
1.4 1 0
1.5 1 0
1.6 1 0
1.7 1 0
1.8 1 0
1.9 1 0
2 1 0
2.1 1 0
0 1.1 0
0.1 1.1 0
0.2 1.1 0
0.3 1.1 0
0.4 1.1 0
0.5 1.1 0
0.6 1.1 0
0.7 1.1 0
0.8 1.1 0
0.9 1.1 0
1 1.1 0
1.1 1.1 0
1.2 1.1 0
1.3 1.1 0
1.4 1.1 0
1.5 1.1 0
1.6 1.1 0
1.7 1.1 0
1.8 1.1 0
1.9 1.1 0
2 1.1 0
2.1 1.1 0
0 1.2 0
0.1 1.2 0
0.2 1.2 0
0.3 1.2 0
0.4 1.2 0
0.5 1.2 0
0.6 1.2 0
0.7 1.2 0
0.8 1.2 0
0.9 1.2 0
1 1.2 0
1.1 1.2 0
1.2 1.2 0
1.3 1.2 0
1.4 1.2 0
1.5 1.2 0
1.6 1.2 0
1.7 1.2 0
1.8 1.2 0
1.9 1.2 0
2 1.2 0
2.1 1.2 0
0 1.3 0
0.1 1.3 0
0.2 1.3 0
0.3 1.3 0
0.4 1.3 0
0.5 1.3 0
0.6 1.3 0
0.7 1.3 0
0.8 1.3 0
0.9 1.3 0
1 1.3 0
1.1 1.3 0
1.2 1.3 0
1.3 1.3 0
1.4 1.3 0
1.5 1.3 0
1.6 1.3 0
1.7 1.3 0
1.8 1.3 0
1.9 1.3 0
2 1.3 0
2.1 1.3 0
0 1.4 0
0.1 1.4 0
0.2 1.4 0
0.3 1.4 0
0.4 1.4 0
0.5 1.4 0
0.6 1.4 0
0.7 1.4 0
0.8 1.4 0
0.9 1.4 0
1 1.4 0
1.1 1.4 0
1.2 1.4 0
1.3 1.4 0
1.4 1.4 0
1.5 1.4 0
1.6 1.4 0
1.7 1.4 0
1.8 1.4 0
1.9 1.4 0
2 1.4 0
2.1 1.4 0
0 1.5 0
0.1 1.5 0
0.2 1.5 0
0.3 1.5 0
0.4 1.5 0
0.5 1.5 0
0.6 1.5 0
0.7 1.5 0
0.8 1.5 0
0.9 1.5 0
1 1.5 0
1.1 1.5 0
1.2 1.5 0
1.3 1.5 0
1.4 1.5 0
1.5 1.5 0
1.6 1.5 0
1.7 1.5 0
1.8 1.5 0
1.9 1.5 0
2 1.5 0
2.1 1.5 0
0 1.6 0
0.1 1.6 0
0.2 1.6 0
0.3 1.6 0
0.4 1.6 0
0.5 1.6 0
0.6 1.6 0
0.7 1.6 0
0.8 1.6 0
0.9 1.6 0
1 1.6 0
1.1 1.6 0
1.2 1.6 0
1.3 1.6 0
1.4 1.6 0
1.5 1.6 0
1.6 1.6 0
1.7 1.6 0
1.8 1.6 0
1.9 1.6 0
2 1.6 0
2.1 1.6 0
0 0 0.1
0.1 0 0.1
0.2 0 0.1
0.3 0 0.1
0.4 0 0.1
0.5 0 0.1
0.6 0 0.1
0.7 0 0.1
0.8 0 0.1
0.9 0 0.1
1 0 0.1
1.1 0 0.1
1.2 0 0.1
1.3 0 0.1
1.4 0 0.1
1.5 0 0.1
1.6 0 0.1
1.7 0 0.1
1.8 0 0.1
1.9 0 0.1
2 0 0.1
2.1 0 0.1
0 0.1 0.1
0.1 0.1 0.1
0.2 0.1 0.1
0.3 0.1 0.1
0.4 0.1 0.1
0.5 0.1 0.1
0.6 0.1 0.1
0.7 0.1 0.1
0.8 0.1 0.1
0.9 0.1 0.1
1 0.1 0.1
1.1 0.1 0.1
1.2 0.1 0.1
1.3 0.1 0.1
1.4 0.1 0.1
1.5 0.1 0.1
1.6 0.1 0.1
1.7 0.1 0.1
1.8 0.1 0.1
1.9 0.1 0.1
2 0.1 0.1
2.1 0.1 0.1
0 0.2 0.1
0.1 0.2 0.1
0.2 0.2 0.1
0.3 0.2 0.1
0.4 0.2 0.1
0.5 0.2 0.1
0.6 0.2 0.1
0.7 0.2 0.1
0.8 0.2 0.1
0.9 0.2 0.1
1 0.2 0.1
1.1 0.2 0.1
1.2 0.2 0.1
1.3 0.2 0.1
1.4 0.2 0.1
1.5 0.2 0.1
1.6 0.2 0.1
1.7 0.2 0.1
1.8 0.2 0.1
1.9 0.2 0.1
2 0.2 0.1
2.1 0.2 0.1
0 0.3 0.1
0.1 0.3 0.1
0.2 0.3 0.1
0.3 0.3 0.1
0.4 0.3 0.1
0.5 0.3 0.1
0.6 0.3 0.1
0.7 0.3 0.1
0.8 0.3 0.1
0.9 0.3 0.1
1 0.3 0.1
1.1 0.3 0.1
1.2 0.3 0.1
1.3 0.3 0.1
1.4 0.3 0.1
1.5 0.3 0.1
1.6 0.3 0.1
1.7 0.3 0.1
1.8 0.3 0.1
1.9 0.3 0.1
2 0.3 0.1
2.1 0.3 0.1
0 0.4 0.1
0.1 0.4 0.1
0.2 0.4 0.1
0.3 0.4 0.1
0.4 0.4 0.1
0.5 0.4 0.1
0.6 0.4 0.1
0.7 0.4 0.1
0.8 0.4 0.1
0.9 0.4 0.1
1 0.4 0.1
1.1 0.4 0.1
1.2 0.4 0.1
1.3 0.4 0.1
1.4 0.4 0.1
1.5 0.4 0.1
1.6 0.4 0.1
1.7 0.4 0.1
1.8 0.4 0.1
1.9 0.4 0.1
2 0.4 0.1
2.1 0.4 0.1
0 0.5 0.1
0.1 0.5 0.1
0.2 0.5 0.1
0.3 0.5 0.1
0.4 0.5 0.1
0.5 0.5 0.1
0.6 0.5 0.1
0.7 0.5 0.1
0.8 0.5 0.1
0.9 0.5 0.1
1 0.5 0.1
1.1 0.5 0.1
1.2 0.5 0.1
1.3 0.5 0.1
1.4 0.5 0.1
1.5 0.5 0.1
1.6 0.5 0.1
1.7 0.5 0.1
1.8 0.5 0.1
1.9 0.5 0.1
2 0.5 0.1
2.1 0.5 0.1
0 0.6 0.1
0.1 0.6 0.1
0.2 0.6 0.1
0.3 0.6 0.1
0.4 0.6 0.1
0.5 0.6 0.1
0.6 0.6 0.1
0.7 0.6 0.1
0.8 0.6 0.1
0.9 0.6 0.1
1 0.6 0.1
1.1 0.6 0.1
1.2 0.6 0.1
1.3 0.6 0.1
1.4 0.6 0.1
1.5 0.6 0.1
1.6 0.6 0.1
1.7 0.6 0.1
1.8 0.6 0.1
1.9 0.6 0.1
2 0.6 0.1
2.1 0.6 0.1
0 0.7 0.1
0.1 0.7 0.1
0.2 0.7 0.1
0.3 0.7 0.1
0.4 0.7 0.1
0.5 0.7 0.1
0.6 0.7 0.1
0.7 0.7 0.1
0.8 0.7 0.1
0.9 0.7 0.1
1 0.7 0.1
1.1 0.7 0.1
1.2 0.7 0.1
1.3 0.7 0.1
1.4 0.7 0.1
1.5 0.7 0.1
1.6 0.7 0.1
1.7 0.7 0.1
1.8 0.7 0.1
1.9 0.7 0.1
2 0.7 0.1
2.1 0.7 0.1
0 0.8 0.1
0.1 0.8 0.1
0.2 0.8 0.1
0.3 0.8 0.1
0.4 0.8 0.1
0.5 0.8 0.1
0.6 0.8 0.1
0.7 0.8 0.1
0.8 0.8 0.1
0.9 0.8 0.1
1 0.8 0.1
1.1 0.8 0.1
1.2 0.8 0.1
1.3 0.8 0.1
1.4 0.8 0.1
1.5 0.8 0.1
1.6 0.8 0.1
1.7 0.8 0.1
1.8 0.8 0.1
1.9 0.8 0.1
2 0.8 0.1
2.1 0.8 0.1
0 0.9 0.1
0.1 0.9 0.1
0.2 0.9 0.1
0.3 0.9 0.1
0.4 0.9 0.1
0.5 0.9 0.1
0.6 0.9 0.1
0.7 0.9 0.1
0.8 0.9 0.1
0.9 0.9 0.1
1 0.9 0.1
1.1 0.9 0.1
1.2 0.9 0.1
1.3 0.9 0.1
1.4 0.9 0.1
1.5 0.9 0.1
1.6 0.9 0.1
1.7 0.9 0.1
1.8 0.9 0.1
1.9 0.9 0.1
2 0.9 0.1
2.1 0.9 0.1
0 1 0.1
0.1 1 0.1
0.2 1 0.1
0.3 1 0.1
0.4 1 0.1
0.5 1 0.1
0.6 1 0.1
0.7 1 0.1
0.8 1 0.1
0.9 1 0.1
1 1 0.1
1.1 1 0.1
1.2 1 0.1
1.3 1 0.1
1.4 1 0.1
1.5 1 0.1
1.6 1 0.1
1.7 1 0.1
1.8 1 0.1
1.9 1 0.1
2 1 0.1
2.1 1 0.1
0 1.1 0.1
0.1 1.1 0.1
0.2 1.1 0.1
0.3 1.1 0.1
0.4 1.1 0.1
0.5 1.1 0.1
0.6 1.1 0.1
0.7 1.1 0.1
0.8 1.1 0.1
0.9 1.1 0.1
1 1.1 0.1
1.1 1.1 0.1
1.2 1.1 0.1
1.3 1.1 0.1
1.4 1.1 0.1
1.5 1.1 0.1
1.6 1.1 0.1
1.7 1.1 0.1
1.8 1.1 0.1
1.9 1.1 0.1
2 1.1 0.1
2.1 1.1 0.1
0 1.2 0.1
0.1 1.2 0.1
0.2 1.2 0.1
0.3 1.2 0.1
0.4 1.2 0.1
0.5 1.2 0.1
0.6 1.2 0.1
0.7 1.2 0.1
0.8 1.2 0.1
0.9 1.2 0.1
1 1.2 0.1
1.1 1.2 0.1
1.2 1.2 0.1
1.3 1.2 0.1
1.4 1.2 0.1
1.5 1.2 0.1
1.6 1.2 0.1
1.7 1.2 0.1
1.8 1.2 0.1
1.9 1.2 0.1
2 1.2 0.1
2.1 1.2 0.1
0 1.3 0.1
0.1 1.3 0.1
0.2 1.3 0.1
0.3 1.3 0.1
0.4 1.3 0.1
0.5 1.3 0.1
0.6 1.3 0.1
0.7 1.3 0.1
0.8 1.3 0.1
0.9 1.3 0.1
1 1.3 0.1
1.1 1.3 0.1
1.2 1.3 0.1
1.3 1.3 0.1
1.4 1.3 0.1
1.5 1.3 0.1
1.6 1.3 0.1
1.7 1.3 0.1
1.8 1.3 0.1
1.9 1.3 0.1
2 1.3 0.1
2.1 1.3 0.1
0 1.4 0.1
0.1 1.4 0.1
0.2 1.4 0.1
0.3 1.4 0.1
0.4 1.4 0.1
0.5 1.4 0.1
0.6 1.4 0.1
0.7 1.4 0.1
0.8 1.4 0.1
0.9 1.4 0.1
1 1.4 0.1
1.1 1.4 0.1
1.2 1.4 0.1
1.3 1.4 0.1
1.4 1.4 0.1
1.5 1.4 0.1
1.6 1.4 0.1
1.7 1.4 0.1
1.8 1.4 0.1
1.9 1.4 0.1
2 1.4 0.1
2.1 1.4 0.1
0 1.5 0.1
0.1 1.5 0.1
0.2 1.5 0.1
0.3 1.5 0.1
0.4 1.5 0.1
0.5 1.5 0.1
0.6 1.5 0.1
0.7 1.5 0.1
0.8 1.5 0.1
0.9 1.5 0.1
1 1.5 0.1
1.1 1.5 0.1
1.2 1.5 0.1
1.3 1.5 0.1
1.4 1.5 0.1
1.5 1.5 0.1
1.6 1.5 0.1
1.7 1.5 0.1
1.8 1.5 0.1
1.9 1.5 0.1
2 1.5 0.1
2.1 1.5 0.1
0 1.6 0.1
0.1 1.6 0.1
0.2 1.6 0.1
0.3 1.6 0.1
0.4 1.6 0.1
0.5 1.6 0.1
0.6 1.6 0.1
0.7 1.6 0.1
0.8 1.6 0.1
0.9 1.6 0.1
1 1.6 0.1
1.1 1.6 0.1
1.2 1.6 0.1
1.3 1.6 0.1
1.4 1.6 0.1
1.5 1.6 0.1
1.6 1.6 0.1
1.7 1.6 0.1
1.8 1.6 0.1
1.9 1.6 0.1
2 1.6 0.1
2.1 1.6 0.1
0 0 0.2
0.1 0 0.2
0.2 0 0.2
0.3 0 0.2
0.4 0 0.2
0.5 0 0.2
0.6 0 0.2
0.7 0 0.2
0.8 0 0.2
0.9 0 0.2
1 0 0.2
1.1 0 0.2
1.2 0 0.2
1.3 0 0.2
1.4 0 0.2
1.5 0 0.2
1.6 0 0.2
1.7 0 0.2
1.8 0 0.2
1.9 0 0.2
2 0 0.2
2.1 0 0.2
0 0.1 0.2
0.1 0.1 0.2
0.2 0.1 0.2
0.3 0.1 0.2
0.4 0.1 0.2
0.5 0.1 0.2
0.6 0.1 0.2
0.7 0.1 0.2
0.8 0.1 0.2
0.9 0.1 0.2
1 0.1 0.2
1.1 0.1 0.2
1.2 0.1 0.2
1.3 0.1 0.2
1.4 0.1 0.2
1.5 0.1 0.2
1.6 0.1 0.2
1.7 0.1 0.2
1.8 0.1 0.2
1.9 0.1 0.2
2 0.1 0.2
2.1 0.1 0.2
0 0.2 0.2
0.1 0.2 0.2
0.2 0.2 0.2
0.3 0.2 0.2
0.4 0.2 0.2
0.5 0.2 0.2
0.6 0.2 0.2
0.7 0.2 0.2
0.8 0.2 0.2
0.9 0.2 0.2
1 0.2 0.2
1.1 0.2 0.2
1.2 0.2 0.2
1.3 0.2 0.2
1.4 0.2 0.2
1.5 0.2 0.2
1.6 0.2 0.2
1.7 0.2 0.2
1.8 0.2 0.2
1.9 0.2 0.2
2 0.2 0.2
2.1 0.2 0.2
0 0.3 0.2
0.1 0.3 0.2
0.2 0.3 0.2
0.3 0.3 0.2
0.4 0.3 0.2
0.5 0.3 0.2
0.6 0.3 0.2
0.7 0.3 0.2
0.8 0.3 0.2
0.9 0.3 0.2
1 0.3 0.2
1.1 0.3 0.2
1.2 0.3 0.2
1.3 0.3 0.2
1.4 0.3 0.2
1.5 0.3 0.2
1.6 0.3 0.2
1.7 0.3 0.2
1.8 0.3 0.2
1.9 0.3 0.2
2 0.3 0.2
2.1 0.3 0.2
0 0.4 0.2
0.1 0.4 0.2
0.2 0.4 0.2
0.3 0.4 0.2
0.4 0.4 0.2
0.5 0.4 0.2
0.6 0.4 0.2
0.7 0.4 0.2
0.8 0.4 0.2
0.9 0.4 0.2
1 0.4 0.2
1.1 0.4 0.2
1.2 0.4 0.2
1.3 0.4 0.2
1.4 0.4 0.2
1.5 0.4 0.2
1.6 0.4 0.2
1.7 0.4 0.2
1.8 0.4 0.2
1.9 0.4 0.2
2 0.4 0.2
2.1 0.4 0.2
0 0.5 0.2
0.1 0.5 0.2
0.2 0.5 0.2
0.3 0.5 0.2
0.4 0.5 0.2
0.5 0.5 0.2
0.6 0.5 0.2
0.7 0.5 0.2
0.8 0.5 0.2
0.9 0.5 0.2
1 0.5 0.2
1.1 0.5 0.2
1.2 0.5 0.2
1.3 0.5 0.2
1.4 0.5 0.2
1.5 0.5 0.2
1.6 0.5 0.2
1.7 0.5 0.2
1.8 0.5 0.2
1.9 0.5 0.2
2 0.5 0.2
2.1 0.5 0.2
0 0.6 0.2
0.1 0.6 0.2
0.2 0.6 0.2
0.3 0.6 0.2
0.4 0.6 0.2
0.5 0.6 0.2
0.6 0.6 0.2
0.7 0.6 0.2
0.8 0.6 0.2
0.9 0.6 0.2
1 0.6 0.2
1.1 0.6 0.2
1.2 0.6 0.2
1.3 0.6 0.2
1.4 0.6 0.2
1.5 0.6 0.2
1.6 0.6 0.2
1.7 0.6 0.2
1.8 0.6 0.2
1.9 0.6 0.2
2 0.6 0.2
2.1 0.6 0.2
0 0.7 0.2
0.1 0.7 0.2
0.2 0.7 0.2
0.3 0.7 0.2
0.4 0.7 0.2
0.5 0.7 0.2
0.6 0.7 0.2
0.7 0.7 0.2
0.8 0.7 0.2
0.9 0.7 0.2
1 0.7 0.2
1.1 0.7 0.2
1.2 0.7 0.2
1.3 0.7 0.2
1.4 0.7 0.2
1.5 0.7 0.2
1.6 0.7 0.2
1.7 0.7 0.2
1.8 0.7 0.2
1.9 0.7 0.2
2 0.7 0.2
2.1 0.7 0.2
0 0.8 0.2
0.1 0.8 0.2
[...]
POINT_DATA 4488

SCALARS pressure double
LOOKUP_TABLE pressure
0
0
0
0
0
0
0
0
0
0
0
0
0
0
0
0
0
0
0
0
0
0
0
23.4918
23.4862
23.482
23.4781
23.4746
23.4723
23.472
23.4717
23.4716
23.4728
23.4731
23.4733
23.4734
23.4732
23.473
23.4725
23.4718
23.4705
23.4684
23.4668
0
0
23.4861
23.4843
23.4815
23.4782
23.4749
23.4727
23.4718
23.4716
23.4718
23.4725
23.473
23.4733
23.4734
23.4733
23.4732
23.4728
23.4723
23.4714
23.4704
23.4698
0
0
23.4834
23.4826
23.481
23.4782
23.4748
23.4728
23.4718
23.4713
23.4716
23.4724
23.473
23.4734
23.4735
23.4736
23.4736
23.4734
23.4731
23.4726
23.4721
23.471
0
0
23.4818
23.4814
23.4817
23.4799
23.4745
23.4734
23.4728
23.4713
23.4717
23.4727
23.4735
23.4739
23.4739
23.474
23.4741
23.4741
23.474
23.4738
23.4735
23.473
0
0
23.4816
23.4815
23.481
23.4794
23.477
23.4753
23.4738
23.472
23.4722
23.4737
23.4746
23.4746
23.4745
23.4747
23.4749
23.475
23.475
23.4749
23.4748
23.4746
0
0
23.4815
23.4816
23.4811
23.4801
23.4786
23.4773
23.4757
23.4726
23.473
23.4754
23.4763
23.475
23.4747
23.4754
23.4759
23.476
23.476
23.476
23.476
23.4759
0
0
23.4814
23.4816
23.4813
23.4807
23.4798
23.4786
23.4777
23.4784
23.4776
23.4766
23.4749
23.4739
23.4752
23.477
23.4774
23.4772
23.4771
23.477
23.4771
23.477
0
0
23.4813
23.4815
23.4814
23.481
23.4804
23.4797
23.4794
23.4797
23.4786
23.4758
23.474
23.4781
23.4779
23.4783
23.4783
23.4781
23.478
23.478
23.478
23.478
0
0
23.4811
23.4813
23.4813
23.4811
23.4808
23.4804
23.4802
23.4801
23.4792
23.4778
23.4773
23.4783
23.4787
23.4789
23.4789
23.4788
23.4787
23.4788
23.4789
23.4788
0
0
23.4808
23.4811
23.4811
23.4812
23.481
23.4808
23.4806
23.4804
23.4798
23.4791
23.4789
23.4791
23.4789
23.4792
23.4793
23.4794
23.4794
23.4795
23.4796
23.4795
0
0
23.4804
23.4807
23.4808
23.4812
23.4811
23.4809
23.4807
23.4805
23.4802
23.4799
23.4797
23.4797
23.4797
23.4797
23.4798
23.4799
23.4799
23.48
23.4802
23.4802
0
0
23.4801
23.4802
23.4799
23.4817
23.4812
23.4809
23.4808
23.4806
23.4804
23.4802
23.4801
23.4801
23.4801
23.4802
23.4802
23.4803
23.4804
23.4805
23.4807
23.4808
0
0
23.4801
23.4804
23.4806
23.481
23.481
23.4809
23.4808
23.4806
23.4805
23.4804
23.4803
23.4802
23.4803
23.4805
23.4807
23.4805
23.4808
23.481
23.4812
23.4813
0
0
23.4802
23.4805
23.4807
23.4808
23.4808
23.4807
23.4806
23.4805
23.4804
23.4804
23.4803
23.48
23.4805
23.4806
23.4808
23.4809
23.4811
23.4813
23.4816
23.4817
0
0
23.4804
23.4806
23.4807
23.4808
23.4807
23.4806
23.4805
23.4804
23.4803
23.4803
23.4802
23.4803
23.4805
23.4807
23.481
23.4812
23.4814
23.4817
23.4819
23.4821
0
0
0
0
0
0
0
0
0
0
0
0
0
0
0
0
0
0
0
0
0
0
0
0
23.4918
23.4862
23.482
23.4781
23.4746
23.4723
23.472
23.4717
23.4716
23.4728
23.4731
23.4733
23.4734
23.4732
23.473
23.4725
23.4718
23.4705
23.4684
23.4668
0
23.4918
23.4918
23.4862
23.482
23.4781
23.4746
23.4723
23.472
23.4717
23.4716
23.4728
23.4731
23.4733
23.4734
23.4732
23.473
23.4725
23.4718
23.4705
23.4684
23.4668
23.4668
23.4861
23.4861
23.4843
23.4815
23.4782
23.4749
23.4727
23.4718
23.4716
23.4718
23.4725
23.473
23.4733
23.4734
23.4733
23.4732
23.4728
23.4723
23.4714
23.4704
23.4698
23.4698
23.4834
23.4834
23.4826
23.481
23.4782
23.4748
23.4728
23.4718
23.4713
23.4716
23.4724
23.473
23.4734
23.4735
23.4736
23.4736
23.4734
23.4731
23.4726
23.4721
23.471
23.471
23.4818
23.4818
23.4814
23.4817
23.4799
23.4745
23.4734
23.4728
23.4713
23.4717
23.4727
23.4735
23.4739
23.4739
23.474
23.4741
23.4741
23.474
23.4738
23.4735
23.473
23.473
23.4816
23.4816
23.4815
23.481
23.4794
23.477
23.4753
23.4738
23.472
23.4722
23.4737
23.4746
23.4746
23.4745
23.4747
23.4749
23.475
23.475
23.4749
23.4748
23.4746
23.4746
23.4815
23.4815
23.4816
23.4811
23.4801
23.4786
23.4773
23.4757
23.4726
23.473
23.4754
23.4763
23.475
23.4747
23.4754
23.4759
23.476
23.476
23.476
23.476
23.4759
23.4759
23.4814
23.4814
23.4816
23.4813
23.4807
23.4798
23.4786
23.4777
23.4784
23.4776
23.4766
23.4749
23.4739
23.4752
23.477
23.4774
23.4772
23.4771
23.477
23.4771
23.477
23.477
23.4813
23.4813
23.4815
23.4814
23.481
23.4804
23.4797
23.4794
23.4797
23.4786
23.4758
23.474
23.4781
23.4779
23.4783
23.4783
23.4781
23.478
23.478
23.478
23.478
23.478
23.4811
23.4811
23.4813
23.4813
23.4811
23.4808
23.4804
23.4802
23.4801
23.4792
23.4778
23.4773
23.4783
23.4787
23.4789
23.4789
23.4788
23.4787
23.4788
23.4789
23.4788
23.4788
23.4808
23.4808
23.4811
23.4811
23.4812
23.481
23.4808
23.4806
23.4804
23.4798
23.4791
23.4789
23.4791
23.4789
23.4792
23.4793
23.4794
23.4794
23.4795
23.4796
23.4795
23.4795
23.4804
23.4804
23.4807
23.4808
23.4812
23.4811
23.4809
23.4807
23.4805
23.4802
23.4799
23.4797
23.4797
23.4797
23.4797
23.4798
23.4799
23.4799
23.48
23.4802
23.4802
23.4802
23.4801
23.4801
23.4802
23.4799
23.4817
23.4812
23.4809
23.4808
23.4806
23.4804
23.4802
23.4801
23.4801
23.4801
23.4802
23.4802
23.4803
23.4804
23.4805
23.4807
23.4808
23.4808
23.4801
23.4801
23.4804
23.4806
23.481
23.481
23.4809
23.4808
23.4806
23.4805
23.4804
23.4803
23.4802
23.4803
23.4805
23.4807
23.4805
23.4808
23.481
23.4812
23.4813
23.4813
23.4802
23.4802
23.4805
23.4807
23.4808
23.4808
23.4807
23.4806
23.4805
23.4804
23.4804
23.4803
23.48
23.4805
23.4806
23.4808
23.4809
23.4811
23.4813
23.4816
23.4817
23.4817
23.4804
23.4804
23.4806
23.4807
23.4808
23.4807
23.4806
23.4805
23.4804
23.4803
23.4803
23.4802
23.4803
23.4805
23.4807
23.481
23.4812
23.4814
23.4817
23.4819
23.4821
23.4821
0
23.4804
23.4806
23.4807
23.4808
23.4807
23.4806
23.4805
23.4804
23.4803
23.4803
23.4802
23.4803
23.4805
23.4807
23.481
23.4812
23.4814
23.4817
23.4819
23.4821
0
0
23.4952
23.4896
23.4854
23.4801
23.472
23.4678
23.4685
23.4704
23.4718
23.4729
23.4735
23.4737
23.4738
23.4737
23.4734
23.4729
23.4721
23.4708
23.4686
23.4668
0
23.4952
23.4952
23.4896
23.4854
23.4801
23.472
23.4678
23.4685
23.4704
23.4718
23.4729
23.4735
23.4737
23.4738
23.4737
23.4734
23.4729
23.4721
23.4708
23.4686
23.4668
23.4668
23.4891
23.4891
23.4874
23.4846
23.4803
23.474
23.4691
23.4685
23.4699
23.4714
23.4726
23.4733
23.4737
23.4738
23.4738
23.4736
23.4732
23.4726
23.4717
23.4706
23.4696
23.4696
23.4857
23.4857
23.4853
23.4834
23.48
23.475
23.4704
23.469
23.4697
23.4711
23.4724
23.4733
23.4738
23.4741
23.4741
23.474
23.4738
23.4734
23.4729
23.4723
23.4716
23.4716
23.4843
23.4843
23.484
23.483
23.4807
23.4767
23.4732
23.4714
23.471
23.4718
23.4729
23.4738
23.4743
23.4745
23.4746
23.4746
23.4745
23.4743
23.474
23.4738
23.4734
23.4734
23.4836
23.4836
23.4835
23.483
23.4818
23.4796
23.4768
23.4745
23.4733
23.4733
23.474
23.4746
23.475
23.4752
23.4753
23.4754
23.4753
23.4753
23.4752
23.4751
23.4749
23.4749
23.4831
23.4831
23.4832
23.483
23.4823
23.4811
23.4791
23.477
23.4754
23.475
23.4754
23.4755
23.4756
23.4759
23.4762
23.4763
23.4763
23.4762
23.4762
23.4762
23.4761
23.4761
23.4827
23.4827
23.4829
23.4828
23.4824
23.4815
23.4802
23.4788
23.478
23.4772
23.4765
23.4758
23.4758
23.4766
23.4772
23.4773
23.4772
23.4772
23.4772
23.4773
23.4772
23.4772
23.4823
23.4823
23.4825
23.4824
23.4822
23.4816
23.4808
23.4799
23.4793
23.4784
23.4773
23.4767
23.4775
23.4778
23.4781
23.4781
23.4781
23.4781
23.4781
23.4782
23.4781
23.4781
23.4818
23.4818
23.4821
23.4821
23.4819
23.4816
23.4811
23.4805
23.48
23.4792
23.4785
23.4781
23.4784
23.4786
23.4787
23.4788
23.4788
23.4788
23.4789
23.479
23.479
23.479
23.4814
23.4814
23.4817
23.4817
23.4817
23.4815
23.4812
23.4808
23.4804
23.4799
23.4794
23.4791
23.4792
23.4792
23.4793
23.4794
23.4794
23.4795
23.4796
23.4797
23.4797
23.4797
23.4811
23.4811
23.4813
23.4814
23.4815
23.4814
23.4812
23.4809
23.4806
23.4803
23.48
23.4798
23.4797
23.4797
23.4798
23.4799
23.4799
23.48
23.4802
23.4803
23.4803
23.4803
23.4808
23.4808
23.481
23.4811
23.4814
23.4813
23.4811
23.4809
23.4807
23.4805
23.4803
23.4802
23.4801
23.4801
23.4802
23.4803
23.4804
23.4805
23.4807
23.4808
23.4809
23.4809
23.4807
23.4807
23.4809
23.481
23.4812
23.4812
23.4811
23.4809
23.4808
23.4806
23.4805
23.4804
23.4803
23.4804
23.4805
23.4807
23.4807
23.4809
23.4811
23.4813
23.4814
23.4814
23.4807
23.4807
23.4809
23.481
23.4811
23.481
23.4809
23.4808
23.4807
23.4806
23.4805
23.4805
23.4804
23.4806
23.4807
23.4809
23.4811
23.4813
23.4815
23.4817
23.4818
23.4818
23.4808
23.4808
23.4809
23.481
23.481
23.4809
23.4808
23.4807
23.4806
23.4805
23.4805
23.4805
23.4805
23.4807
23.4809
23.4811
23.4813
23.4816
23.4818
23.4821
23.4822
23.4822
0
23.4808
23.4809
23.481
23.481
23.4809
23.4808
23.4807
23.4806
23.4805
23.4805
23.4805
23.4805
23.4807
23.4809
23.4811
23.4813
23.4816
23.4818
23.4821
23.4822
0
0
23.4989
23.494
23.4907
23.4837
23.4628
23.4563
23.463
23.4693
23.4723
23.4736
23.4741
23.4743
23.4743
23.4741
23.4738
23.4733
23.4724
23.4711
23.4688
23.467
0
23.4989
23.4989
23.494
23.4907
23.4837
23.4628
23.4563
23.463
23.4693
23.4723
23.4736
23.4741
23.4743
23.4743
23.4741
23.4738
23.4733
23.4724
23.4711
23.4688
23.467
23.467
23.4925
23.4925
23.4912
23.489
23.4841
23.4724
23.4604
23.4621
23.4672
23.4708
23.4727
23.4737
23.4742
23.4743
23.4742
23.474
23.4736
23.4729
23.472
23.4708
23.4697
23.4697
23.4888
23.4888
23.4883
23.4864
23.4822
23.4737
23.463
23.462
23.466
23.4697
23.4721
23.4735
23.4742
23.4745
23.4745
23.4744
23.4741
23.4737
23.4732
23.4726
23.472
23.472
23.4868
23.4868
23.4866
23.4855
23.4828
23.4769
23.4697
23.4674
23.4688
23.4709
23.4727
23.4739
23.4746
23.4749
23.475
23.475
23.4748
23.4746
23.4743
23.4741
23.4737
23.4737
23.4856
23.4856
23.4857
23.4857
23.4853
23.4837
23.4788
23.4747
23.4732
23.4734
23.4741
23.4748
23.4753
23.4756
23.4757
23.4757
23.4757
23.4755
23.4754
23.4754
23.4751
23.4751
23.4848
23.4848
23.4851
23.4854
23.4857
23.485
23.482
23.4786
23.4765
23.4757
23.4757
23.4759
23.4761
23.4763
23.4765
23.4765
23.4765
23.4765
23.4764
23.4765
23.4763
23.4763
23.484
23.484
23.4843
23.4846
23.4847
23.4841
23.4823
23.4802
23.4785
23.4775
23.477
23.4767
23.4768
23.4771
23.4773
23.4774
23.4774
23.4774
23.4774
23.4775
23.4774
23.4774
23.4833
23.4833
23.4836
23.4837
23.4837
23.4832
23.4821
23.4808
23.4797
23.4787
23.4781
23.4777
23.4778
23.478
23.4781
23.4782
23.4782
23.4782
23.4783
23.4784
23.4783
23.4783
23.4826
23.4826
23.4829
23.483
23.4829
23.4826
23.4819
23.4811
23.4803
23.4795
23.479
23.4786
23.4786
23.4787
23.4788
23.4788
23.4789
23.4789
23.479
23.4791
23.4791
23.4791
23.4821
23.4821
23.4823
23.4824
23.4823
23.4821
23.4817
23.4812
23.4806
23.4801
23.4796
23.4794
23.4793
23.4793
23.4794
23.4794
23.4795
23.4796
23.4797
23.4798
23.4798
23.4798
23.4816
23.4816
23.4819
23.4819
23.4819
23.4818
23.4815
23.4812
23.4808
23.4804
23.4801
23.4799
23.4799
23.4798
23.4799
23.48
23.48
23.4801
23.4803
23.4805
23.4805
23.4805
23.4813
23.4813
23.4815
23.4816
23.4817
23.4816
23.4814
23.4812
23.4809
23.4806
23.4804
23.4803
23.4802
23.4803
23.4803
23.4804
23.4805
23.4806
23.4808
23.481
23.481
23.481
23.4811
23.4811
23.4813
23.4814
23.4815
23.4814
23.4813
23.4811
23.4809
23.4808
23.4806
23.4805
23.4805
23.4806
23.4806
23.4808
23.4809
23.4811
23.4812
23.4815
23.4815
23.4815
23.481
23.481
23.4813
23.4813
23.4813
23.4813
23.4812
23.481
23.4809
23.4808
23.4807
23.4806
23.4807
23.4808
23.4809
23.481
23.4812
23.4814
23.4816
23.4819
23.482
23.482
23.4811
23.4811
23.4812
23.4812
23.4812
23.4811
23.481
23.4809
23.4808
23.4807
23.4807
23.4807
23.4808
23.4809
23.4811
23.4813
23.4815
23.4817
23.482
23.4822
23.4824
23.4824
0
23.4811
23.4812
23.4812
23.4812
23.4811
23.481
23.4809
23.4808
23.4807
23.4807
23.4807
23.4808
23.4809
23.4811
23.4813
23.4815
23.4817
23.482
23.4822
23.4824
0
0
23.5026
23.4994
23.5004
23.4966
23.4265
23.4245
23.4558
23.4709
23.4746
23.4751
23.475
23.4749
23.4748
23.4746
23.4742
23.4736
23.4727
23.4713
23.469
23.4672
0
23.5026
23.5026
23.4994
23.5004
23.4966
23.4265
23.4245
23.4558
23.4709
23.4746
23.4751
23.475
23.4749
23.4748
23.4746
23.4742
23.4736
23.4727
23.4713
23.469
23.4672
23.4672
23.4957
23.4957
23.4955
23.4959
23.4948
23.4781
23.4374
23.4484
23.4627
23.4701
23.473
23.4742
23.4746
23.4747
23.4747
23.4744
23.4739
23.4732
23.4722
23.4711
23.47
23.47
23.4914
23.4914
23.4913
23.4902
23.4859
23.4716
23.4413
23.4441
23.4583
23.4673
23.4716
23.4736
23.4745
23.4749
23.4749
23.4748
23.4745
23.474
23.4734
23.4729
23.4722
23.4722
23.4889
23.4889
23.4889
23.4882
23.4857
23.4737
23.4584
23.4578
23.464
23.4692
23.4723
23.474
23.4748
23.4752
23.4754
23.4753
23.4752
23.4749
23.4746
23.4743
23.474
23.474
23.4874
23.4874
23.4879
23.489
23.4918
23.4947
23.4843
23.4747
23.4723
23.473
23.4741
23.475
23.4756
23.4759
23.476
23.476
23.4759
23.4758
23.4757
23.4756
23.4754
23.4754
23.4863
23.4863
23.4869
23.4883
23.4911
23.4928
23.487
23.4806
23.4772
23.4761
23.476
23.4762
23.4764
23.4766
23.4767
23.4768
23.4767
23.4767
23.4767
23.4767
23.4765
23.4765
23.4852
23.4852
23.4857
23.4866
23.4879
23.4878
23.4853
23.4819
23.4794
23.478
23.4774
23.4773
23.4773
23.4774
23.4775
23.4775
23.4776
23.4776
23.4776
23.4777
23.4776
23.4776
23.4842
23.4842
23.4846
23.4851
23.4855
23.4852
23.4838
23.4819
23.4803
23.4792
23.4785
23.4782
23.4781
23.4782
23.4782
23.4783
23.4783
23.4784
23.4784
23.4785
23.4785
23.4785
23.4833
23.4833
23.4836
23.4838
23.4839
23.4836
23.4828
23.4817
23.4807
23.4799
23.4793
23.479
23.4789
23.4789
23.4789
23.479
23.479
23.4791
23.4792
23.4793
23.4793
23.4793
23.4826
23.4826
23.4829
23.483
23.483
23.4827
23.4822
23.4816
23.4809
23.4803
23.4799
23.4796
23.4795
23.4795
23.4795
23.4796
23.4796
23.4797
23.4798
23.48
23.48
23.48
23.4821
23.4821
23.4823
23.4824
23.4824
23.4822
23.4819
23.4815
23.481
23.4806
23.4803
23.4801
23.48
23.48
23.48
23.4801
23.4802
23.4803
23.4804
23.4806
23.4806
23.4806
23.4817
23.4817
23.482
23.482
23.482
23.4819
23.4817
23.4814
23.4811
23.4808
23.4806
23.4805
23.4804
23.4804
23.4804
23.4805
23.4806
23.4808
23.4809
23.4811
23.4812
23.4812
23.4815
23.4815
23.4817
23.4818
23.4818
23.4817
23.4815
23.4813
23.4811
23.4809
23.4808
23.4807
23.4807
23.4807
23.4808
23.4809
23.481
23.4812
23.4814
23.4816
23.4817
23.4817
23.4814
23.4814
23.4816
23.4816
23.4816
23.4815
23.4814
23.4812
23.4811
23.481
23.4809
23.4808
23.4809
23.4809
23.4811
23.4812
23.4814
23.4816
23.4818
23.482
23.4822
23.4822
23.4814
23.4814
23.4815
23.4815
23.4815
23.4814
23.4812
23.4811
23.481
23.4809
23.4809
23.4809
23.481
23.4811
23.4812
23.4814
23.4816
23.4819
23.4821
23.4824
23.4826
23.4826
0
23.4814
23.4815
23.4815
23.4815
23.4814
23.4812
23.4811
23.481
23.4809
23.4809
23.4809
23.481
23.4811
23.4812
23.4814
23.4816
23.4819
23.4821
23.4824
23.4826
0
0
23.505
23.5039
23.5145
23.5486
23.4618
23.375
23.4548
23.4772
23.478
23.4765
23.4758
23.4755
23.4752
23.475
23.4746
23.4739
23.473
23.4716
23.4693
23.4674
0
23.505
23.505
23.5039
23.5145
23.5486
23.4618
23.375
23.4548
23.4772
23.478
23.4765
23.4758
23.4755
23.4752
23.475
23.4746
23.4739
23.473
23.4716
23.4693
23.4674
23.4674
23.4976
23.4976
23.4986
23.5039
23.5262
23.4974
23.4171
23.4418
23.4619
23.47
23.4732
23.4746
23.475
23.4751
23.475
23.4747
23.4742
23.4735
23.4725
23.4713
23.4702
23.4702
23.4929
23.4929
23.4932
23.4934
23.4921
23.4734
23.4189
23.4181
23.4458
23.4637
23.4711
23.4738
23.4748
23.4752
23.4753
23.4751
23.4748
23.4743
23.4737
23.4731
23.4725
23.4725
23.4901
23.4901
23.4902
23.4902
23.4855
23.4752
23.4424
23.435
23.4551
23.4671
23.4721
23.4742
23.4752
23.4756
23.4757
23.4756
23.4755
23.4752
23.4749
23.4746
23.4742
23.4742
23.4885
23.4885
23.4892
23.4917
23.4999
23.5218
23.494
23.4733
23.4711
23.4727
23.4743
23.4753
23.4759
23.4762
23.4763
23.4763
23.4762
23.4761
23.4759
23.4758
23.4756
23.4756
23.4872
23.4872
23.4881
23.4907
23.4985
23.5184
23.5
23.4838
23.4779
23.4764
23.4763
23.4765
23.4767
23.4769
23.477
23.477
23.477
23.4769
23.4769
23.4769
23.4768
23.4768
23.4859
23.4859
23.4866
23.4882
23.4916
23.4976
23.4911
23.484
23.4802
23.4785
23.4778
23.4776
23.4776
23.4777
23.4777
23.4777
23.4778
23.4778
23.4778
23.4779
23.4778
23.4778
23.4847
23.4847
23.4852
23.486
23.4871
23.4882
23.486
23.483
23.4809
23.4796
23.4789
23.4785
23.4784
23.4784
23.4784
23.4785
23.4785
23.4785
23.4786
23.4787
23.4787
23.4787
23.4838
23.4838
23.4841
23.4844
23.4847
23.4847
23.4837
23.4823
23.4811
23.4802
23.4796
23.4793
23.4791
23.4791
23.4791
23.4791
23.4792
23.4792
23.4793
23.4795
23.4795
23.4795
23.483
23.483
23.4833
23.4834
23.4835
23.4833
23.4827
23.4819
23.4812
23.4806
23.4801
23.4799
23.4797
23.4797
23.4797
23.4797
23.4798
23.4799
23.48
23.4802
23.4802
23.4802
23.4825
23.4825
23.4827
23.4828
23.4827
23.4825
23.4822
23.4817
23.4813
23.4808
23.4805
23.4803
23.4802
23.4802
23.4802
23.4802
23.4803
23.4804
23.4806
23.4808
23.4808
23.4808
23.4821
23.4821
23.4823
23.4823
23.4823
23.4822
23.4819
23.4816
23.4813
23.481
23.4808
23.4806
23.4806
23.4806
23.4806
23.4807
23.4808
23.4809
23.4811
23.4813
23.4814
23.4814
23.4818
23.4818
23.482
23.4821
23.482
23.4819
23.4817
23.4815
23.4813
23.4811
23.481
23.4809
23.4809
23.4809
23.4809
23.4811
23.4812
23.4814
23.4815
23.4818
23.4819
23.4819
23.4817
23.4817
23.4819
23.4819
23.4818
23.4817
23.4816
23.4814
23.4813
23.4812
23.4811
23.481
23.4811
23.4811
23.4812
23.4814
23.4815
23.4817
23.4819
23.4822
23.4823
23.4823
23.4817
23.4817
23.4818
23.4817
23.4817
23.4816
23.4815
23.4813
23.4812
23.4812
23.4811
23.4811
23.4812
23.4813
23.4814
23.4816
23.4818
23.482
23.4823
23.4826
23.4827
23.4827
0
23.4817
23.4818
23.4817
23.4817
23.4816
23.4815
23.4813
23.4812
23.4812
23.4811
23.4811
23.4812
23.4813
23.4814
23.4816
23.4818
23.482
23.4823
23.4826
23.4827
0
0
23.5038
23.5006
23.502
23.4995
23.4407
23.4267
23.4557
23.4714
23.4756
23.476
23.4759
23.4757
23.4755
23.4753
23.4749
23.4743
23.4733
23.4719
23.4696
23.4676
0
23.5038
23.5038
23.5006
23.502
23.4995
23.4407
23.4267
23.4557
23.4714
23.4756
23.476
23.4759
23.4757
23.4755
23.4753
23.4749
23.4743
23.4733
23.4719
23.4696
23.4676
23.4676
23.4967
23.4967
23.4963
23.4965
23.4937
23.467
23.4388
23.4505
23.4646
23.4712
23.4739
23.475
23.4754
23.4755
23.4754
23.4751
23.4745
23.4738
23.4728
23.4716
23.4704
23.4704
23.4924
23.4924
23.4922
23.491
23.4864
23.4716
23.4446
23.4468
23.4595
23.4682
23.4725
23.4744
23.4753
23.4756
23.4756
23.4754
23.4751
23.4746
23.474
23.4734
23.4727
23.4727
23.4898
23.4898
23.4898
23.4891
23.4867
23.4752
23.4574
23.4575
23.4647
23.4701
23.4732
23.4748
23.4756
23.4759
23.476
23.4759
23.4757
23.4754
23.4751
23.4748
23.4744
23.4744
23.4883
23.4883
23.4887
23.4897
23.492
23.4919
23.4815
23.4743
23.4729
23.4738
23.475
23.4758
23.4763
23.4765
23.4766
23.4766
23.4765
23.4763
23.4762
23.4761
23.4758
23.4758
23.4871
23.4871
23.4877
23.4891
23.4919
23.4949
23.4882
23.4813
23.4779
23.4769
23.4767
23.4769
23.4771
23.4772
23.4773
23.4773
23.4772
23.4772
23.4771
23.4771
23.477
23.477
23.4859
23.4859
23.4865
23.4874
23.489
23.4903
23.4869
23.4828
23.4801
23.4787
23.4781
23.478
23.4779
23.4779
23.478
23.478
23.478
23.478
23.478
23.4781
23.478
23.478
23.4848
23.4848
23.4853
23.4858
23.4864
23.4865
23.4849
23.4827
23.4809
23.4798
23.4791
23.4788
23.4787
23.4786
23.4786
23.4787
23.4787
23.4787
23.4788
23.4789
23.4789
23.4789
23.4839
23.4839
23.4843
23.4845
23.4846
23.4844
23.4836
23.4823
23.4812
23.4804
23.4798
23.4795
23.4794
23.4793
23.4793
23.4793
23.4793
23.4794
23.4795
23.4797
23.4797
23.4797
23.4832
23.4832
23.4835
23.4836
23.4836
23.4833
23.4828
23.4821
23.4813
23.4808
23.4803
23.4801
23.4799
23.4798
23.4798
23.4799
23.4799
23.48
23.4802
23.4803
23.4804
23.4804
23.4827
23.4827
23.4829
23.483
23.4829
23.4827
23.4823
23.4819
23.4814
23.481
23.4807
23.4805
23.4804
23.4803
23.4803
23.4804
23.4805
23.4806
23.4807
23.4809
23.481
23.481
23.4823
23.4823
23.4825
23.4826
23.4825
23.4823
23.4821
23.4818
23.4815
23.4812
23.481
23.4808
23.4807
23.4807
23.4808
23.4808
23.4809
23.4811
23.4813
23.4815
23.4815
23.4815
23.482
23.482
23.4823
23.4823
23.4822
23.4821
23.4819
23.4817
23.4815
23.4813
23.4812
23.4811
23.481
23.481
23.4811
23.4812
23.4813
23.4815
23.4817
23.4819
23.482
23.482
23.4819
23.4819
23.4821
23.4821
23.482
23.4819
23.4818
23.4816
23.4815
23.4814
23.4813
23.4812
23.4812
23.4813
23.4814
23.4815
23.4817
23.4819
23.4821
23.4823
23.4825
23.4825
23.482
23.482
23.482
23.482
23.4819
23.4818
23.4817
23.4815
23.4814
23.4814
23.4813
23.4813
23.4814
23.4815
23.4816
23.4818
23.482
23.4822
23.4825
23.4827
23.4829
23.4829
0
23.482
23.482
23.482
23.4819
23.4818