# vtk DataFile Version 3.0
FlowField
ASCII
DATASET STRUCTURED_GRID
DIMENSIONS 22 17 12 
POINTS 4488 double
0 0 0
0.1 0 0
0.2 0 0
0.3 0 0
0.4 0 0
0.5 0 0
0.6 0 0
0.7 0 0
0.8 0 0
0.9 0 0
1 0 0
1.1 0 0
1.2 0 0
1.3 0 0
1.4 0 0
1.5 0 0
1.6 0 0
1.7 0 0
1.8 0 0
1.9 0 0
2 0 0
2.1 0 0
0 0.1 0
0.1 0.1 0
0.2 0.1 0
0.3 0.1 0
0.4 0.1 0
0.5 0.1 0
0.6 0.1 0
0.7 0.1 0
0.8 0.1 0
0.9 0.1 0
1 0.1 0
1.1 0.1 0
1.2 0.1 0
1.3 0.1 0
1.4 0.1 0
1.5 0.1 0
1.6 0.1 0
1.7 0.1 0
1.8 0.1 0
1.9 0.1 0
2 0.1 0
2.1 0.1 0
0 0.2 0
0.1 0.2 0
0.2 0.2 0
0.3 0.2 0
0.4 0.2 0
0.5 0.2 0
0.6 0.2 0
0.7 0.2 0
0.8 0.2 0
0.9 0.2 0
1 0.2 0
1.1 0.2 0
1.2 0.2 0
1.3 0.2 0
1.4 0.2 0
1.5 0.2 0
1.6 0.2 0
1.7 0.2 0
1.8 0.2 0
1.9 0.2 0
2 0.2 0
2.1 0.2 0
0 0.3 0
0.1 0.3 0
0.2 0.3 0
0.3 0.3 0
0.4 0.3 0
0.5 0.3 0
0.6 0.3 0
0.7 0.3 0
0.8 0.3 0
0.9 0.3 0
1 0.3 0
1.1 0.3 0
1.2 0.3 0
1.3 0.3 0
1.4 0.3 0
1.5 0.3 0
1.6 0.3 0
1.7 0.3 0
1.8 0.3 0
1.9 0.3 0
2 0.3 0
2.1 0.3 0
0 0.4 0
0.1 0.4 0
0.2 0.4 0
0.3 0.4 0
0.4 0.4 0
0.5 0.4 0
0.6 0.4 0
0.7 0.4 0
0.8 0.4 0
0.9 0.4 0
1 0.4 0
1.1 0.4 0
1.2 0.4 0
1.3 0.4 0
1.4 0.4 0
1.5 0.4 0
1.6 0.4 0
1.7 0.4 0
1.8 0.4 0
1.9 0.4 0
2 0.4 0
2.1 0.4 0
0 0.5 0
0.1 0.5 0
0.2 0.5 0
0.3 0.5 0
0.4 0.5 0
0.5 0.5 0
0.6 0.5 0
0.7 0.5 0
0.8 0.5 0
0.9 0.5 0
1 0.5 0
1.1 0.5 0
1.2 0.5 0
1.3 0.5 0
1.4 0.5 0
1.5 0.5 0
1.6 0.5 0
1.7 0.5 0
1.8 0.5 0
1.9 0.5 0
2 0.5 0
2.1 0.5 0
0 0.6 0
0.1 0.6 0
0.2 0.6 0
0.3 0.6 0
0.4 0.6 0
0.5 0.6 0
0.6 0.6 0
0.7 0.6 0
0.8 0.6 0
0.9 0.6 0
1 0.6 0
1.1 0.6 0
1.2 0.6 0
1.3 0.6 0
1.4 0.6 0
1.5 0.6 0
1.6 0.6 0
1.7 0.6 0
1.8 0.6 0
1.9 0.6 0
2 0.6 0
2.1 0.6 0
0 0.7 0
0.1 0.7 0
0.2 0.7 0
0.3 0.7 0
0.4 0.7 0
0.5 0.7 0
0.6 0.7 0
0.7 0.7 0
0.8 0.7 0
0.9 0.7 0
1 0.7 0
1.1 0.7 0
1.2 0.7 0
1.3 0.7 0
1.4 0.7 0
1.5 0.7 0
1.6 0.7 0
1.7 0.7 0
1.8 0.7 0
1.9 0.7 0
2 0.7 0
2.1 0.7 0
0 0.8 0
0.1 0.8 0
0.2 0.8 0
0.3 0.8 0
0.4 0.8 0
0.5 0.8 0
0.6 0.8 0
0.7 0.8 0
0.8 0.8 0
0.9 0.8 0
1 0.8 0
1.1 0.8 0
1.2 0.8 0
1.3 0.8 0
1.4 0.8 0
1.5 0.8 0
1.6 0.8 0
1.7 0.8 0
1.8 0.8 0
1.9 0.8 0
2 0.8 0
2.1 0.8 0
0 0.9 0
0.1 0.9 0
0.2 0.9 0
0.3 0.9 0
0.4 0.9 0
0.5 0.9 0
0.6 0.9 0
0.7 0.9 0
0.8 0.9 0
0.9 0.9 0
1 0.9 0
1.1 0.9 0
1.2 0.9 0
1.3 0.9 0
1.4 0.9 0
1.5 0.9 0
1.6 0.9 0
1.7 0.9 0
1.8 0.9 0
1.9 0.9 0
2 0.9 0
2.1 0.9 0
0 1 0
0.1 1 0
0.2 1 0
0.3 1 0
0.4 1 0
0.5 1 0
0.6 1 0
0.7 1 0
0.8 1 0
0.9 1 0
1 1 0
1.1 1 0
1.2 1 0
1.3 1 0
1.4 1 0
1.5 1 0
1.6 1 0
1.7 1 0
1.8 1 0
1.9 1 0
2 1 0
2.1 1 0
0 1.1 0
0.1 1.1 0
0.2 1.1 0
0.3 1.1 0
0.4 1.1 0
0.5 1.1 0
0.6 1.1 0
0.7 1.1 0
0.8 1.1 0
0.9 1.1 0
1 1.1 0
1.1 1.1 0
1.2 1.1 0
1.3 1.1 0
1.4 1.1 0
1.5 1.1 0
1.6 1.1 0
1.7 1.1 0
1.8 1.1 0
1.9 1.1 0
2 1.1 0
2.1 1.1 0
0 1.2 0
0.1 1.2 0
0.2 1.2 0
0.3 1.2 0
0.4 1.2 0
0.5 1.2 0
0.6 1.2 0
0.7 1.2 0
0.8 1.2 0
0.9 1.2 0
1 1.2 0
1.1 1.2 0
1.2 1.2 0
1.3 1.2 0
1.4 1.2 0
1.5 1.2 0
1.6 1.2 0
1.7 1.2 0
1.8 1.2 0
1.9 1.2 0
2 1.2 0
2.1 1.2 0
0 1.3 0
0.1 1.3 0
0.2 1.3 0
0.3 1.3 0
0.4 1.3 0
0.5 1.3 0
0.6 1.3 0
0.7 1.3 0
0.8 1.3 0
0.9 1.3 0
1 1.3 0
1.1 1.3 0
1.2 1.3 0
1.3 1.3 0
1.4 1.3 0
1.5 1.3 0
1.6 1.3 0
1.7 1.3 0
1.8 1.3 0
1.9 1.3 0
2 1.3 0
2.1 1.3 0
0 1.4 0
0.1 1.4 0
0.2 1.4 0
0.3 1.4 0
0.4 1.4 0
0.5 1.4 0
0.6 1.4 0
0.7 1.4 0
0.8 1.4 0
0.9 1.4 0
1 1.4 0
1.1 1.4 0
1.2 1.4 0
1.3 1.4 0
1.4 1.4 0
1.5 1.4 0
1.6 1.4 0
1.7 1.4 0
1.8 1.4 0
1.9 1.4 0
2 1.4 0
2.1 1.4 0
0 1.5 0
0.1 1.5 0
0.2 1.5 0
0.3 1.5 0
0.4 1.5 0
0.5 1.5 0
0.6 1.5 0
0.7 1.5 0
0.8 1.5 0
0.9 1.5 0
1 1.5 0
1.1 1.5 0
1.2 1.5 0
1.3 1.5 0
1.4 1.5 0
1.5 1.5 0
1.6 1.5 0
1.7 1.5 0
1.8 1.5 0
1.9 1.5 0
2 1.5 0
2.1 1.5 0
0 1.6 0
0.1 1.6 0
0.2 1.6 0
0.3 1.6 0
0.4 1.6 0
0.5 1.6 0
0.6 1.6 0
0.7 1.6 0
0.8 1.6 0
0.9 1.6 0
1 1.6 0
1.1 1.6 0
1.2 1.6 0
1.3 1.6 0
1.4 1.6 0
1.5 1.6 0
1.6 1.6 0
1.7 1.6 0
1.8 1.6 0
1.9 1.6 0
2 1.6 0
2.1 1.6 0
0 0 0.1
0.1 0 0.1
0.2 0 0.1
0.3 0 0.1
0.4 0 0.1
0.5 0 0.1
0.6 0 0.1
0.7 0 0.1
0.8 0 0.1
0.9 0 0.1
1 0 0.1
1.1 0 0.1
1.2 0 0.1
1.3 0 0.1
1.4 0 0.1
1.5 0 0.1
1.6 0 0.1
1.7 0 0.1
1.8 0 0.1
1.9 0 0.1
2 0 0.1
2.1 0 0.1
0 0.1 0.1
0.1 0.1 0.1
0.2 0.1 0.1
0.3 0.1 0.1
0.4 0.1 0.1
0.5 0.1 0.1
0.6 0.1 0.1
0.7 0.1 0.1
0.8 0.1 0.1
0.9 0.1 0.1
1 0.1 0.1
1.1 0.1 0.1
1.2 0.1 0.1
1.3 0.1 0.1
1.4 0.1 0.1
1.5 0.1 0.1
1.6 0.1 0.1
1.7 0.1 0.1
1.8 0.1 0.1
1.9 0.1 0.1
2 0.1 0.1
2.1 0.1 0.1
0 0.2 0.1
0.1 0.2 0.1
0.2 0.2 0.1
0.3 0.2 0.1
0.4 0.2 0.1
0.5 0.2 0.1
0.6 0.2 0.1
0.7 0.2 0.1
0.8 0.2 0.1
0.9 0.2 0.1
1 0.2 0.1
1.1 0.2 0.1
1.2 0.2 0.1
1.3 0.2 0.1
1.4 0.2 0.1
1.5 0.2 0.1
1.6 0.2 0.1
1.7 0.2 0.1
1.8 0.2 0.1
1.9 0.2 0.1
2 0.2 0.1
2.1 0.2 0.1
0 0.3 0.1
0.1 0.3 0.1
0.2 0.3 0.1
0.3 0.3 0.1
0.4 0.3 0.1
0.5 0.3 0.1
0.6 0.3 0.1
0.7 0.3 0.1
0.8 0.3 0.1
0.9 0.3 0.1
1 0.3 0.1
1.1 0.3 0.1
1.2 0.3 0.1
1.3 0.3 0.1
1.4 0.3 0.1
1.5 0.3 0.1
1.6 0.3 0.1
1.7 0.3 0.1
1.8 0.3 0.1
1.9 0.3 0.1
2 0.3 0.1
2.1 0.3 0.1
0 0.4 0.1
0.1 0.4 0.1
0.2 0.4 0.1
0.3 0.4 0.1
0.4 0.4 0.1
0.5 0.4 0.1
0.6 0.4 0.1
0.7 0.4 0.1
0.8 0.4 0.1
0.9 0.4 0.1
1 0.4 0.1
1.1 0.4 0.1
1.2 0.4 0.1
1.3 0.4 0.1
1.4 0.4 0.1
1.5 0.4 0.1
1.6 0.4 0.1
1.7 0.4 0.1
1.8 0.4 0.1
1.9 0.4 0.1
2 0.4 0.1
2.1 0.4 0.1
0 0.5 0.1
0.1 0.5 0.1
0.2 0.5 0.1
0.3 0.5 0.1
0.4 0.5 0.1
0.5 0.5 0.1
0.6 0.5 0.1
0.7 0.5 0.1
0.8 0.5 0.1
0.9 0.5 0.1
1 0.5 0.1
1.1 0.5 0.1
1.2 0.5 0.1
1.3 0.5 0.1
1.4 0.5 0.1
1.5 0.5 0.1
1.6 0.5 0.1
1.7 0.5 0.1
1.8 0.5 0.1
1.9 0.5 0.1
2 0.5 0.1
2.1 0.5 0.1
0 0.6 0.1
0.1 0.6 0.1
0.2 0.6 0.1
0.3 0.6 0.1
0.4 0.6 0.1
0.5 0.6 0.1
0.6 0.6 0.1
0.7 0.6 0.1
0.8 0.6 0.1
0.9 0.6 0.1
1 0.6 0.1
1.1 0.6 0.1
1.2 0.6 0.1
1.3 0.6 0.1
1.4 0.6 0.1
1.5 0.6 0.1
1.6 0.6 0.1
1.7 0.6 0.1
1.8 0.6 0.1
1.9 0.6 0.1
2 0.6 0.1
2.1 0.6 0.1
0 0.7 0.1
0.1 0.7 0.1
0.2 0.7 0.1
0.3 0.7 0.1
0.4 0.7 0.1
0.5 0.7 0.1
0.6 0.7 0.1
0.7 0.7 0.1
0.8 0.7 0.1
0.9 0.7 0.1
1 0.7 0.1
1.1 0.7 0.1
1.2 0.7 0.1
1.3 0.7 0.1
1.4 0.7 0.1
1.5 0.7 0.1
1.6 0.7 0.1
1.7 0.7 0.1
1.8 0.7 0.1
1.9 0.7 0.1
2 0.7 0.1
2.1 0.7 0.1
0 0.8 0.1
0.1 0.8 0.1
0.2 0.8 0.1
0.3 0.8 0.1
0.4 0.8 0.1
0.5 0.8 0.1
0.6 0.8 0.1
0.7 0.8 0.1
0.8 0.8 0.1
0.9 0.8 0.1
1 0.8 0.1
1.1 0.8 0.1
1.2 0.8 0.1
1.3 0.8 0.1
1.4 0.8 0.1
1.5 0.8 0.1
1.6 0.8 0.1
1.7 0.8 0.1
1.8 0.8 0.1
1.9 0.8 0.1
2 0.8 0.1
2.1 0.8 0.1
0 0.9 0.1
0.1 0.9 0.1
0.2 0.9 0.1
0.3 0.9 0.1
0.4 0.9 0.1
0.5 0.9 0.1
0.6 0.9 0.1
0.7 0.9 0.1
0.8 0.9 0.1
0.9 0.9 0.1
1 0.9 0.1
1.1 0.9 0.1
1.2 0.9 0.1
1.3 0.9 0.1
1.4 0.9 0.1
1.5 0.9 0.1
1.6 0.9 0.1
1.7 0.9 0.1
1.8 0.9 0.1
1.9 0.9 0.1
2 0.9 0.1
2.1 0.9 0.1
0 1 0.1
0.1 1 0.1
0.2 1 0.1
0.3 1 0.1
0.4 1 0.1
0.5 1 0.1
0.6 1 0.1
0.7 1 0.1
0.8 1 0.1
0.9 1 0.1
1 1 0.1
1.1 1 0.1
1.2 1 0.1
1.3 1 0.1
1.4 1 0.1
1.5 1 0.1
1.6 1 0.1
1.7 1 0.1
1.8 1 0.1
1.9 1 0.1
2 1 0.1
2.1 1 0.1
0 1.1 0.1
0.1 1.1 0.1
0.2 1.1 0.1
0.3 1.1 0.1
0.4 1.1 0.1
0.5 1.1 0.1
0.6 1.1 0.1
0.7 1.1 0.1
0.8 1.1 0.1
0.9 1.1 0.1
1 1.1 0.1
1.1 1.1 0.1
1.2 1.1 0.1
1.3 1.1 0.1
1.4 1.1 0.1
1.5 1.1 0.1
1.6 1.1 0.1
1.7 1.1 0.1
1.8 1.1 0.1
1.9 1.1 0.1
2 1.1 0.1
2.1 1.1 0.1
0 1.2 0.1
0.1 1.2 0.1
0.2 1.2 0.1
0.3 1.2 0.1
0.4 1.2 0.1
0.5 1.2 0.1
0.6 1.2 0.1
0.7 1.2 0.1
0.8 1.2 0.1
0.9 1.2 0.1
1 1.2 0.1
1.1 1.2 0.1
1.2 1.2 0.1
1.3 1.2 0.1
1.4 1.2 0.1
1.5 1.2 0.1
1.6 1.2 0.1
1.7 1.2 0.1
1.8 1.2 0.1
1.9 1.2 0.1
2 1.2 0.1
2.1 1.2 0.1
0 1.3 0.1
0.1 1.3 0.1
0.2 1.3 0.1
0.3 1.3 0.1
0.4 1.3 0.1
0.5 1.3 0.1
0.6 1.3 0.1
0.7 1.3 0.1
0.8 1.3 0.1
0.9 1.3 0.1
1 1.3 0.1
1.1 1.3 0.1
1.2 1.3 0.1
1.3 1.3 0.1
1.4 1.3 0.1
1.5 1.3 0.1
1.6 1.3 0.1
1.7 1.3 0.1
1.8 1.3 0.1
1.9 1.3 0.1
2 1.3 0.1
2.1 1.3 0.1
0 1.4 0.1
0.1 1.4 0.1
0.2 1.4 0.1
0.3 1.4 0.1
0.4 1.4 0.1
0.5 1.4 0.1
0.6 1.4 0.1
0.7 1.4 0.1
0.8 1.4 0.1
0.9 1.4 0.1
1 1.4 0.1
1.1 1.4 0.1
1.2 1.4 0.1
1.3 1.4 0.1
1.4 1.4 0.1
1.5 1.4 0.1
1.6 1.4 0.1
1.7 1.4 0.1
1.8 1.4 0.1
1.9 1.4 0.1
2 1.4 0.1
2.1 1.4 0.1
0 1.5 0.1
0.1 1.5 0.1
0.2 1.5 0.1
0.3 1.5 0.1
0.4 1.5 0.1
0.5 1.5 0.1
0.6 1.5 0.1
0.7 1.5 0.1
0.8 1.5 0.1
0.9 1.5 0.1
1 1.5 0.1
1.1 1.5 0.1
1.2 1.5 0.1
1.3 1.5 0.1
1.4 1.5 0.1
1.5 1.5 0.1
1.6 1.5 0.1
1.7 1.5 0.1
1.8 1.5 0.1
1.9 1.5 0.1
2 1.5 0.1
2.1 1.5 0.1
0 1.6 0.1
0.1 1.6 0.1
0.2 1.6 0.1
0.3 1.6 0.1
0.4 1.6 0.1
0.5 1.6 0.1
0.6 1.6 0.1
0.7 1.6 0.1
0.8 1.6 0.1
0.9 1.6 0.1
1 1.6 0.1
1.1 1.6 0.1
1.2 1.6 0.1
1.3 1.6 0.1
1.4 1.6 0.1
1.5 1.6 0.1
1.6 1.6 0.1
1.7 1.6 0.1
1.8 1.6 0.1
1.9 1.6 0.1
2 1.6 0.1
2.1 1.6 0.1
0 0 0.2
0.1 0 0.2
0.2 0 0.2
0.3 0 0.2
0.4 0 0.2
0.5 0 0.2
0.6 0 0.2
0.7 0 0.2
0.8 0 0.2
0.9 0 0.2
1 0 0.2
1.1 0 0.2
1.2 0 0.2
1.3 0 0.2
1.4 0 0.2
1.5 0 0.2
1.6 0 0.2
1.7 0 0.2
1.8 0 0.2
1.9 0 0.2
2 0 0.2
2.1 0 0.2
0 0.1 0.2
0.1 0.1 0.2
0.2 0.1 0.2
0.3 0.1 0.2
0.4 0.1 0.2
0.5 0.1 0.2
0.6 0.1 0.2
0.7 0.1 0.2
0.8 0.1 0.2
0.9 0.1 0.2
1 0.1 0.2
1.1 0.1 0.2
1.2 0.1 0.2
1.3 0.1 0.2
1.4 0.1 0.2
1.5 0.1 0.2
1.6 0.1 0.2
1.7 0.1 0.2
1.8 0.1 0.2
1.9 0.1 0.2
2 0.1 0.2
2.1 0.1 0.2
0 0.2 0.2
0.1 0.2 0.2
0.2 0.2 0.2
0.3 0.2 0.2
0.4 0.2 0.2
0.5 0.2 0.2
0.6 0.2 0.2
0.7 0.2 0.2
0.8 0.2 0.2
0.9 0.2 0.2
1 0.2 0.2
1.1 0.2 0.2
1.2 0.2 0.2
1.3 0.2 0.2
1.4 0.2 0.2
1.5 0.2 0.2
1.6 0.2 0.2
1.7 0.2 0.2
1.8 0.2 0.2
1.9 0.2 0.2
2 0.2 0.2
2.1 0.2 0.2
0 0.3 0.2
0.1 0.3 0.2
0.2 0.3 0.2
0.3 0.3 0.2
0.4 0.3 0.2
0.5 0.3 0.2
0.6 0.3 0.2
0.7 0.3 0.2
0.8 0.3 0.2
0.9 0.3 0.2
1 0.3 0.2
1.1 0.3 0.2
1.2 0.3 0.2
1.3 0.3 0.2
1.4 0.3 0.2
1.5 0.3 0.2
1.6 0.3 0.2
1.7 0.3 0.2
1.8 0.3 0.2
1.9 0.3 0.2
2 0.3 0.2
2.1 0.3 0.2
0 0.4 0.2
0.1 0.4 0.2
0.2 0.4 0.2
0.3 0.4 0.2
0.4 0.4 0.2
0.5 0.4 0.2
0.6 0.4 0.2
0.7 0.4 0.2
0.8 0.4 0.2
0.9 0.4 0.2
1 0.4 0.2
1.1 0.4 0.2
1.2 0.4 0.2
1.3 0.4 0.2
1.4 0.4 0.2
1.5 0.4 0.2
1.6 0.4 0.2
1.7 0.4 0.2
1.8 0.4 0.2
1.9 0.4 0.2
2 0.4 0.2
2.1 0.4 0.2
0 0.5 0.2
0.1 0.5 0.2
0.2 0.5 0.2
0.3 0.5 0.2
0.4 0.5 0.2
0.5 0.5 0.2
0.6 0.5 0.2
0.7 0.5 0.2
0.8 0.5 0.2
0.9 0.5 0.2
1 0.5 0.2
1.1 0.5 0.2
1.2 0.5 0.2
1.3 0.5 0.2
1.4 0.5 0.2
1.5 0.5 0.2
1.6 0.5 0.2
1.7 0.5 0.2
1.8 0.5 0.2
1.9 0.5 0.2
2 0.5 0.2
2.1 0.5 0.2
0 0.6 0.2
0.1 0.6 0.2
0.2 0.6 0.2
0.3 0.6 0.2
0.4 0.6 0.2
0.5 0.6 0.2
0.6 0.6 0.2
0.7 0.6 0.2
0.8 0.6 0.2
0.9 0.6 0.2
1 0.6 0.2
1.1 0.6 0.2
1.2 0.6 0.2
1.3 0.6 0.2
1.4 0.6 0.2
1.5 0.6 0.2
1.6 0.6 0.2
1.7 0.6 0.2
1.8 0.6 0.2
1.9 0.6 0.2
2 0.6 0.2
2.1 0.6 0.2
0 0.7 0.2
0.1 0.7 0.2
0.2 0.7 0.2
0.3 0.7 0.2
0.4 0.7 0.2
0.5 0.7 0.2
0.6 0.7 0.2
0.7 0.7 0.2
0.8 0.7 0.2
0.9 0.7 0.2
1 0.7 0.2
1.1 0.7 0.2
1.2 0.7 0.2
1.3 0.7 0.2
1.4 0.7 0.2
1.5 0.7 0.2
1.6 0.7 0.2
1.7 0.7 0.2
1.8 0.7 0.2
1.9 0.7 0.2
2 0.7 0.2
2.1 0.7 0.2
0 0.8 0.2
0.1 0.8 0.2
[...]
POINT_DATA 4488

SCALARS pressure double
LOOKUP_TABLE pressure
0
0
0
0
0
0
0
0
0
0
0
0
0
0
0
0
0
0
0
0
0
0
0
72.7838
72.7787
72.7757
72.7735
72.7716
72.7689
72.768
72.7671
72.7661
72.7651
72.7642
72.7631
72.7633
72.7615
72.7602
72.7615
72.7612
72.7603
72.7594
72.7589
0
0
72.7779
72.7767
72.7749
72.7731
72.7707
72.769
72.7678
72.7668
72.7658
72.7648
72.7641
72.7636
72.7631
72.7621
72.761
72.7606
72.7617
72.7609
72.7603
72.7597
0
0
72.7748
72.7746
72.774
72.7727
72.7694
72.7685
72.7676
72.7667
72.7657
72.7646
72.764
72.7644
72.7638
72.763
72.7623
72.7619
72.762
72.7617
72.7616
72.7611
0
0
72.7727
72.7729
72.7724
72.7712
72.7696
72.768
72.7674
72.7666
72.7656
72.7641
72.7631
72.7661
72.7647
72.7637
72.7632
72.7628
72.7626
72.7626
72.7626
72.7625
0
0
72.7712
72.7717
72.7716
72.7702
72.7697
72.7667
72.767
72.7667
72.7661
72.765
72.7643
72.7648
72.7647
72.7643
72.7638
72.7634
72.7633
72.7632
72.7633
72.7636
0
0
72.7699
72.7703
72.7701
72.7693
72.7684
72.7675
72.7672
72.7671
72.7669
72.7654
72.764
72.7641
72.7653
72.7646
72.7641
72.7638
72.764
72.7638
72.7639
72.7644
0
0
72.7688
72.7692
72.7691
72.7686
72.7673
72.7676
72.7673
72.767
72.7665
72.7658
72.7652
72.7649
72.765
72.7647
72.7644
72.7641
72.7644
72.7645
72.7647
72.7643
0
0
72.7678
72.7684
72.7686
72.7687
72.7693
72.7681
72.7675
72.767
72.7666
72.7662
72.7658
72.7654
72.7652
72.7649
72.7648
72.7647
72.765
72.7655
72.7649
72.7645
0
0
72.7669
72.7678
72.7681
72.7682
72.7683
72.7678
72.7674
72.767
72.7667
72.7664
72.7661
72.7658
72.7655
72.7653
72.7652
72.7651
72.7651
72.7652
72.7652
72.7649
0
0
72.7654
72.7677
72.7677
72.7678
72.7677
72.7675
72.7673
72.767
72.7667
72.7665
72.7663
72.7661
72.7659
72.7658
72.7656
72.7653
72.7652
72.7652
72.7652
72.7651
0
0
72.7659
72.7669
72.7672
72.7673
72.7673
72.7673
72.7672
72.767
72.7666
72.7665
72.7664
72.7663
72.7662
72.7663
72.7662
72.7652
72.7651
72.7652
72.7654
72.7655
0
0
72.7658
72.7665
72.7668
72.7669
72.767
72.767
72.7669
72.7668
72.7667
72.7666
72.7665
72.7665
72.7665
72.7669
72.7677
72.7643
72.7651
72.7654
72.7656
72.766
0
0
72.7657
72.7662
72.7665
72.7666
72.7667
72.7667
72.7667
72.7667
72.7666
72.7666
72.7666
72.7665
72.7663
72.767
72.7668
72.7658
72.7658
72.7659
72.766
72.7662
0
0
72.7655
72.766
72.7662
72.7664
72.7664
72.7665
72.7665
72.7665
72.7666
72.7666
72.7667
72.7667
72.7667
72.7668
72.7668
72.7665
72.7664
72.7663
72.7664
72.7665
0
0
72.7656
72.7659
72.766
72.7661
72.7662
72.7663
72.7663
72.7664
72.7665
72.7666
72.7668
72.7669
72.7669
72.7668
72.7668
72.7669
72.7669
72.7668
72.7667
72.7668
0
0
0
0
0
0
0
0
0
0
0
0
0
0
0
0
0
0
0
0
0
0
0
0
72.7838
72.7787
72.7757
72.7735
72.7716
72.7689
72.768
72.7671
72.7661
72.7651
72.7642
72.7631
72.7633
72.7615
72.7602
72.7615
72.7612
72.7603
72.7594
72.7589
0
72.7838
72.7838
72.7787
72.7757
72.7735
72.7716
72.7689
72.768
72.7671
72.7661
72.7651
72.7642
72.7631
72.7633
72.7615
72.7602
72.7615
72.7612
72.7603
72.7594
72.7589
72.7589
72.7779
72.7779
72.7767
72.7749
72.7731
72.7707
72.769
72.7678
72.7668
72.7658
72.7648
72.7641
72.7636
72.7631
72.7621
72.761
72.7606
72.7617
72.7609
72.7603
72.7597
72.7597
72.7748
72.7748
72.7746
72.774
72.7727
72.7694
72.7685
72.7676
72.7667
72.7657
72.7646
72.764
72.7644
72.7638
72.763
72.7623
72.7619
72.762
72.7617
72.7616
72.7611
72.7611
72.7727
72.7727
72.7729
72.7724
72.7712
72.7696
72.768
72.7674
72.7666
72.7656
72.7641
72.7631
72.7661
72.7647
72.7637
72.7632
72.7628
72.7626
72.7626
72.7626
72.7625
72.7625
72.7712
72.7712
72.7717
72.7716
72.7702
72.7697
72.7667
72.767
72.7667
72.7661
72.765
72.7643
72.7648
72.7647
72.7643
72.7638
72.7634
72.7633
72.7632
72.7633
72.7636
72.7636
72.7699
72.7699
72.7703
72.7701
72.7693
72.7684
72.7675
72.7672
72.7671
72.7669
72.7654
72.764
72.7641
72.7653
72.7646
72.7641
72.7638
72.764
72.7638
72.7639
72.7644
72.7644
72.7688
72.7688
72.7692
72.7691
72.7686
72.7673
72.7676
72.7673
72.767
72.7665
72.7658
72.7652
72.7649
72.765
72.7647
72.7644
72.7641
72.7644
72.7645
72.7647
72.7643
72.7643
72.7678
72.7678
72.7684
72.7686
72.7687
72.7693
72.7681
72.7675
72.767
72.7666
72.7662
72.7658
72.7654
72.7652
72.7649
72.7648
72.7647
72.765
72.7655
72.7649
72.7645
72.7645
72.7669
72.7669
72.7678
72.7681
72.7682
72.7683
72.7678
72.7674
72.767
72.7667
72.7664
72.7661
72.7658
72.7655
72.7653
72.7652
72.7651
72.7651
72.7652
72.7652
72.7649
72.7649
72.7654
72.7654
72.7677
72.7677
72.7678
72.7677
72.7675
72.7673
72.767
72.7667
72.7665
72.7663
72.7661
72.7659
72.7658
72.7656
72.7653
72.7652
72.7652
72.7652
72.7651
72.7651
72.7659
72.7659
72.7669
72.7672
72.7673
72.7673
72.7673
72.7672
72.767
72.7666
72.7665
72.7664
72.7663
72.7662
72.7663
72.7662
72.7652
72.7651
72.7652
72.7654
72.7655
72.7655
72.7658
72.7658
72.7665
72.7668
72.7669
72.767
72.767
72.7669
72.7668
72.7667
72.7666
72.7665
72.7665
72.7665
72.7669
72.7677
72.7643
72.7651
72.7654
72.7656
72.766
72.766
72.7657
72.7657
72.7662
72.7665
72.7666
72.7667
72.7667
72.7667
72.7667
72.7666
72.7666
72.7666
72.7665
72.7663
72.767
72.7668
72.7658
72.7658
72.7659
72.766
72.7662
72.7662
72.7655
72.7655
72.766
72.7662
72.7664
72.7664
72.7665
72.7665
72.7665
72.7666
72.7666
72.7667
72.7667
72.7667
72.7668
72.7668
72.7665
72.7664
72.7663
72.7664
72.7665
72.7665
72.7656
72.7656
72.7659
72.766
72.7661
72.7662
72.7663
72.7663
72.7664
72.7665
72.7666
72.7668
72.7669
72.7669
72.7668
72.7668
72.7669
72.7669
72.7668
72.7667
72.7668
72.7668
0
72.7656
72.7659
72.766
72.7661
72.7662
72.7663
72.7663
72.7664
72.7665
72.7666
72.7668
72.7669
72.7669
72.7668
72.7668
72.7669
72.7669
72.7668
72.7667
72.7668
0
0
72.7875
72.7822
72.7785
72.774
72.7664
72.7621
72.7623
72.7638
72.7648
72.7651
72.7648
72.7642
72.7637
72.7626
72.7617
72.7613
72.7608
72.7601
72.7594
72.759
0
72.7875
72.7875
72.7822
72.7785
72.774
72.7664
72.7621
72.7623
72.7638
72.7648
72.7651
72.7648
72.7642
72.7637
72.7626
72.7617
72.7613
72.7608
72.7601
72.7594
72.759
72.759
72.7814
72.7814
72.7799
72.7777
72.7741
72.7683
72.7633
72.7622
72.7631
72.764
72.7644
72.7644
72.7641
72.7636
72.7628
72.7619
72.7613
72.7611
72.7607
72.7604
72.7597
72.7597
72.7778
72.7778
72.7774
72.7762
72.7738
72.7696
72.765
72.7629
72.7628
72.7634
72.7638
72.764
72.7642
72.7638
72.7632
72.7626
72.7622
72.7619
72.7617
72.7616
72.761
72.761
72.7753
72.7753
72.7754
72.7747
72.7732
72.7704
72.7666
72.764
72.763
72.763
72.7632
72.7635
72.7642
72.7641
72.7637
72.7632
72.7629
72.7626
72.7625
72.7626
72.7621
72.7621
72.7734
72.7734
72.7737
72.7734
72.7724
72.7707
72.7677
72.7653
72.7638
72.7633
72.7631
72.7633
72.7638
72.764
72.7638
72.7636
72.7633
72.7632
72.7631
72.7632
72.763
72.763
72.7718
72.7718
72.7722
72.7721
72.7716
72.7705
72.7688
72.7669
72.7652
72.7641
72.7634
72.7632
72.7635
72.7639
72.7639
72.7637
72.7636
72.7636
72.7636
72.7637
72.7636
72.7636
72.7705
72.7705
72.7709
72.7709
72.7707
72.77
72.7692
72.7679
72.7665
72.7652
72.7643
72.7638
72.7638
72.7639
72.7639
72.7639
72.7639
72.764
72.7641
72.7642
72.7639
72.7639
72.7694
72.7694
72.7698
72.77
72.77
72.7699
72.7692
72.7684
72.7675
72.7664
72.7654
72.7646
72.7642
72.7641
72.7642
72.7642
72.7643
72.7644
72.7645
72.7645
72.7642
72.7642
72.7684
72.7684
72.7689
72.7692
72.7693
72.7693
72.7689
72.7684
72.7678
72.767
72.7661
72.7653
72.7649
72.7648
72.7646
72.7646
72.7645
72.7646
72.7647
72.7648
72.7645
72.7645
72.7675
72.7675
72.7683
72.7685
72.7686
72.7686
72.7685
72.7682
72.7678
72.7672
72.7667
72.7662
72.7658
72.7655
72.7651
72.7649
72.7647
72.7647
72.7648
72.765
72.7648
72.7648
72.7671
72.7671
72.7676
72.7679
72.768
72.7681
72.768
72.7679
72.7676
72.7673
72.767
72.7668
72.7664
72.766
72.7656
72.7653
72.765
72.765
72.7652
72.7653
72.7652
72.7652
72.7667
72.7667
72.7671
72.7674
72.7675
72.7676
72.7676
72.7675
72.7674
72.7673
72.7671
72.7669
72.7667
72.7664
72.7663
72.7662
72.7654
72.7655
72.7656
72.7657
72.7657
72.7657
72.7664
72.7664
72.7668
72.767
72.7671
72.7672
72.7672
72.7672
72.7671
72.7671
72.767
72.7669
72.7668
72.7667
72.7667
72.7666
72.7662
72.766
72.766
72.7661
72.766
72.766
72.7661
72.7661
72.7665
72.7666
72.7667
72.7668
72.7668
72.7669
72.7669
72.7669
72.7669
72.7669
72.7669
72.7669
72.7669
72.7668
72.7666
72.7665
72.7664
72.7665
72.7664
72.7664
72.7661
72.7661
72.7663
72.7663
72.7664
72.7664
72.7665
72.7666
72.7666
72.7667
72.7668
72.7669
72.767
72.767
72.767
72.767
72.7669
72.7669
72.7668
72.7667
72.7668
72.7668
0
72.7661
72.7663
72.7663
72.7664
72.7664
72.7665
72.7666
72.7666
72.7667
72.7668
72.7669
72.767
72.767
72.767
72.767
72.7669
72.7669
72.7668
72.7667
72.7668
0
0
72.7914
72.7865
72.7833
72.7762
72.7553
72.7483
72.7542
72.7607
72.7644
72.7658
72.7659
72.7653
72.7645
72.7635
72.7624
72.7615
72.7607
72.7601
72.7595
72.7591
0
72.7914
72.7914
72.7865
72.7833
72.7762
72.7553
72.7483
72.7542
72.7607
72.7644
72.7658
72.7659
72.7653
72.7645
72.7635
72.7624
72.7615
72.7607
72.7601
72.7595
72.7591
72.7591
72.7849
72.7849
72.7837
72.7818
72.7771
72.7646
72.7521
72.7532
72.7584
72.7624
72.7644
72.765
72.7649
72.7643
72.7635
72.7625
72.7617
72.7611
72.7607
72.7604
72.7598
72.7598
72.7808
72.7808
72.7806
72.7797
72.7771
72.7701
72.7587
72.7552
72.7574
72.7607
72.7629
72.764
72.7644
72.7642
72.7636
72.763
72.7624
72.7619
72.7617
72.7616
72.761
72.761
72.7778
72.7778
72.778
72.7777
72.7765
72.7724
72.764
72.7582
72.7574
72.7593
72.7614
72.7629
72.7637
72.764
72.7638
72.7634
72.7629
72.7626
72.7625
72.7625
72.7621
72.7621
72.7756
72.7756
72.7759
72.776
72.7755
72.7732
72.7677
72.762
72.7591
72.7591
72.7602
72.7616
72.7627
72.7633
72.7635
72.7634
72.7632
72.7631
72.763
72.7631
72.7629
72.7629
72.7737
72.7737
72.7741
72.7743
72.7743
72.7733
72.7707
72.7666
72.7627
72.7606
72.7603
72.761
72.7621
72.7628
72.7632
72.7633
72.7634
72.7634
72.7634
72.7635
72.7634
72.7634
72.7721
72.7721
72.7725
72.7728
72.7729
72.7726
72.7714
72.7689
72.7657
72.7632
72.7621
72.7619
72.7622
72.7625
72.763
72.7634
72.7636
72.7637
72.7638
72.7638
72.7636
72.7636
72.7707
72.7707
72.7711
72.7714
72.7716
72.7715
72.771
72.7698
72.7683
72.7667
72.7646
72.7631
72.7624
72.7626
72.7631
72.7636
72.7639
72.764
72.764
72.764
72.7638
72.7638
72.7696
72.7696
72.77
72.7703
72.7705
72.7705
72.7703
72.7699
72.7691
72.7676
72.7656
72.7639
72.7635
72.7637
72.7639
72.7639
72.7639
72.764
72.7641
72.7643
72.7641
72.7641
72.7686
72.7686
72.7691
72.7693
72.7695
72.7696
72.7695
72.7693
72.7688
72.7678
72.7668
72.7662
72.7658
72.7651
72.7644
72.7639
72.7638
72.764
72.7644
72.7646
72.7645
72.7645
72.7679
72.7679
72.7683
72.7686
72.7687
72.7688
72.7688
72.7687
72.7684
72.7681
72.7678
72.7675
72.7667
72.7657
72.7647
72.7642
72.7642
72.7646
72.7649
72.7651
72.765
72.765
72.7673
72.7673
72.7677
72.7679
72.7681
72.7682
72.7682
72.7681
72.768
72.7679
72.7678
72.7675
72.767
72.7663
72.7658
72.7656
72.7655
72.7655
72.7656
72.7657
72.7655
72.7655
72.7669
72.7669
72.7673
72.7674
72.7675
72.7676
72.7676
72.7676
72.7676
72.7676
72.7675
72.7674
72.7672
72.767
72.7668
72.7667
72.7664
72.7662
72.7661
72.7661
72.7659
72.7659
72.7666
72.7666
72.7669
72.767
72.7671
72.7671
72.7672
72.7672
72.7672
72.7672
72.7672
72.7672
72.7672
72.7672
72.7672
72.7671
72.7669
72.7666
72.7665
72.7665
72.7663
72.7663
72.7665
72.7665
72.7667
72.7667
72.7667
72.7667
72.7667
72.7668
72.7668
72.7668
72.7669
72.767
72.7671
72.7672
72.7672
72.7671
72.767
72.7669
72.7668
72.7667
72.7667
72.7667
0
72.7665
72.7667
72.7667
72.7667
72.7667
72.7667
72.7668
72.7668
72.7668
72.7669
72.767
72.7671
72.7672
72.7672
72.7671
72.767
72.7669
72.7668
72.7667
72.7667
0
0
72.7952
72.7917
72.7923
72.7872
72.7197
72.7161
72.744
72.7603
72.7663
72.7678
72.7675
72.7666
72.7655
72.7642
72.7629
72.7618
72.7608
72.7601
72.7594
72.7594
0
72.7952
72.7952
72.7917
72.7923
72.7872
72.7197
72.7161
72.744
72.7603
72.7663
72.7678
72.7675
72.7666
72.7655
72.7642
72.7629
72.7618
72.7608
72.7601
72.7594
72.7594
72.7594
72.7881
72.7881
72.7879
72.7884
72.7862
72.7645
72.7241
72.7371
72.7541
72.7629
72.766
72.7666
72.7662
72.7654
72.7643
72.7631
72.762
72.7612
72.7606
72.7602
72.7603
72.7603
72.7834
72.7834
72.7838
72.7845
72.7844
72.7761
72.7444
72.7398
72.7498
72.7587
72.7635
72.7652
72.7656
72.7652
72.7644
72.7635
72.7627
72.7621
72.7617
72.7615
72.7615
72.7615
72.78
72.78
72.7806
72.7816
72.7827
72.7798
72.7597
72.7458
72.7468
72.7537
72.7595
72.7627
72.7641
72.7645
72.7643
72.7638
72.7632
72.7628
72.7625
72.7624
72.7626
72.7626
72.7773
72.7773
72.778
72.779
72.7805
72.779
72.7682
72.7548
72.7491
72.7517
72.756
72.7594
72.7619
72.7631
72.7636
72.7635
72.7632
72.763
72.7629
72.7629
72.7632
72.7632
72.7752
72.7752
72.7758
72.7767
72.778
72.7781
72.7756
72.7679
72.7589
72.7542
72.7542
72.7571
72.7602
72.7619
72.7626
72.7629
72.7631
72.7632
72.7632
72.7631
72.7635
72.7635
72.7733
72.7733
72.7739
72.7746
72.7756
72.7762
72.7755
72.7711
72.7643
72.7596
72.7577
72.759
72.7603
72.7608
72.7616
72.7627
72.7634
72.7636
72.7635
72.7633
72.7636
72.7636
72.7717
72.7717
72.7723
72.7728
72.7733
72.7737
72.7732
72.7719
72.7708
72.7688
72.7644
72.7607
72.7589
72.7597
72.7615
72.7631
72.764
72.7639
72.7636
72.7635
72.7636
72.7636
72.7704
72.7704
72.7709
72.7713
72.7717
72.772
72.7721
72.7721
72.7719
72.7687
72.764
72.7599
72.7609
72.7621
72.763
72.7635
72.7634
72.7633
72.7635
72.7637
72.7636
72.7636
72.7694
72.7694
72.7698
72.7701
72.7704
72.7706
72.7707
72.7707
72.7699
72.7685
72.7665
72.7668
72.7666
72.7648
72.7635
72.7621
72.7618
72.7628
72.7637
72.7642
72.7641
72.7641
72.7685
72.7685
72.7689
72.7692
72.7694
72.7695
72.7696
72.7696
72.7694
72.7691
72.7693
72.7693
72.7673
72.7653
72.7628
72.7615
72.7627
72.764
72.7646
72.7649
72.7647
72.7647
72.7679
72.7679
72.7682
72.7684
72.7686
72.7687
72.7687
72.7687
72.7687
72.7688
72.7688
72.7684
72.7675
72.7661
72.765
72.7653
72.7656
72.7655
72.7655
72.7656
72.7653
72.7653
72.7674
72.7674
72.7677
72.7678
72.768
72.768
72.7681
72.7681
72.7681
72.7681
72.7681
72.7679
72.7677
72.7674
72.7676
72.7675
72.7669
72.7665
72.7662
72.7661
72.7658
72.7658
72.767
72.767
72.7673
72.7674
72.7674
72.7675
72.7675
72.7675
72.7675
72.7675
72.7675
72.7675
72.7675
72.7676
72.7677
72.7675
72.7672
72.7668
72.7666
72.7665
72.7662
72.7662
72.7669
72.7669
72.767
72.767
72.767
72.767
72.767
72.767
72.767
72.767
72.767
72.7671
72.7672
72.7674
72.7674
72.7674
72.7672
72.7669
72.7668
72.7666
72.7665
72.7665
0
72.7669
72.767
72.767
72.767
72.767
72.767
72.767
72.767
72.767
72.767
72.7671
72.7672
72.7674
72.7674
72.7674
72.7672
72.7669
72.7668
72.7666
72.7665
0
0
72.7974
72.796
72.8056
72.8371
72.749
72.6687
72.7384
72.765
72.7706
72.7706
72.7692
72.7676
72.7661
72.7646
72.7631
72.7619
72.7609
72.7601
72.7594
72.7596
0
72.7974
72.7974
72.796
72.8056
72.8371
72.749
72.6687
72.7384
72.765
72.7706
72.7706
72.7692
72.7676
72.7661
72.7646
72.7631
72.7619
72.7609
72.7601
72.7594
72.7596
72.7596
72.7899
72.7899
72.7909
72.796
72.8151
72.7747
72.6939
72.7236
72.7547
72.7668
72.7694
72.769
72.7678
72.7664
72.765
72.7636
72.7623
72.7614
72.7608
72.7602
72.761
72.761
72.7848
72.7848
72.7858
72.7885
72.7966
72.7921
72.7224
72.7214
72.7437
72.7589
72.7656
72.7674
72.7673
72.7664
72.7653
72.7642
72.7631
72.7624
72.7619
72.7615
72.7624
72.7624
72.7811
72.7811
72.7821
72.7845
72.7907
72.8045
72.7523
72.7326
72.7361
72.7487
72.7593
72.7639
72.7654
72.7655
72.7651
72.7644
72.7636
72.763
72.7627
72.7624
72.7634
72.7634
72.7783
72.7783
72.7793
72.7815
72.7867
72.7998
72.7702
72.7468
72.7365
72.7439
72.7533
72.7583
72.7617
72.7638
72.7642
72.7639
72.7634
72.7631
72.763
72.7627
72.7639
72.7639
72.776
72.776
72.7768
72.7785
72.782
72.7895
72.7872
72.7716
72.7515
72.7483
72.7493
72.752
72.7588
72.7621
72.7625
72.7625
72.7628
72.7631
72.7631
72.7627
72.764
72.764
72.774
72.774
72.7747
72.7758
72.7779
72.7824
72.7885
72.7784
72.7603
72.7563
72.7524
72.7546
72.7599
72.7605
72.7601
72.7615
72.7634
72.764
72.7634
72.7626
72.7639
72.7639
72.7724
72.7724
72.7729
72.7736
72.7747
72.7765
72.7787
72.7753
72.7745
72.7751
72.7628
72.7575
72.7566
72.7571
72.7589
72.7625
72.7648
72.7645
72.7633
72.7627
72.7635
72.7635
72.771
72.771
72.7715
72.7719
72.7725
72.7733
72.7743
72.7758
72.7802
72.7759
72.7602
72.7534
72.7593
72.7598
72.7615
72.7635
72.7634
72.763
72.7628
72.763
72.7633
72.7633
72.7699
72.7699
72.7703
72.7706
72.7709
72.7713
72.7719
72.7729
72.7742
72.7697
72.7645
72.7682
72.7704
72.7651
72.7622
72.7602
72.76
72.7617
72.763
72.7639
72.7637
72.7637
72.769
72.769
72.7694
72.7696
72.7698
72.77
72.7703
72.7706
72.7707
72.7702
72.7715
72.776
72.7716
72.7646
72.76
72.7586
72.7611
72.7633
72.7644
72.7649
72.7645
72.7645
72.7683
72.7683
72.7686
72.7688
72.7689
72.7691
72.7692
72.7693
72.7694
72.7697
72.7712
72.7718
72.7687
72.7654
72.7639
72.7651
72.7663
72.7661
72.7657
72.7657
72.7652
72.7652
72.7677
72.7677
72.7681
72.7682
72.7683
72.7683
72.7684
72.7684
72.7685
72.7687
72.7691
72.769
72.7682
72.7679
72.769
72.77
72.7687
72.7672
72.7664
72.7662
72.7658
72.7658
72.7674
72.7674
72.7676
72.7677
72.7677
72.7677
72.7677
72.7677
72.7678
72.7678
72.7679
72.7679
72.7678
72.7682
72.7693
72.7693
72.7681
72.7672
72.7667
72.7665
72.7661
72.7661
72.7672
72.7672
72.7673
72.7673
72.7672
72.7672
72.7672
72.7672
72.7672
72.7671
72.7671
72.7671
72.7672
72.7675
72.7678
72.7678
72.7674
72.767
72.7667
72.7666
72.7664
72.7664
0
72.7672
72.7673
72.7673
72.7672
72.7672
72.7672
72.7672
72.7672
72.7671
72.7671
72.7671
72.7672
72.7675
72.7678
72.7678
72.7674
72.767
72.7667
72.7666
72.7664
0
0
72.796
72.7926
72.7935
72.7896
72.7321
72.7172
72.7439
72.7599
72.7658
72.7674
72.7672
72.7663
72.7652
72.7639
72.7625
72.7613
72.7603
72.7597
72.7591
72.7591
0
72.796
72.796
72.7926
72.7935
72.7896
72.7321
72.7172
72.7439
72.7599
72.7658
72.7674
72.7672
72.7663
72.7652
72.7639
72.7625
72.7613
72.7603
72.7597
72.7591
72.7591
72.7591
72.7888
72.7888
72.7885
72.7888
72.7856
72.7556
72.7262
72.7382
72.7547
72.7633
72.7664
72.7669
72.7664
72.7654
72.7642
72.7629
72.7616
72.7607
72.7601
72.7598
72.7597
72.7597
72.7841
72.7841
72.7844
72.7847
72.7836
72.7715
72.7433
72.7397
72.7496
72.7587
72.7634
72.7652
72.7656
72.7651
72.7643
72.7633
72.7624
72.7617
72.7613
72.7611
72.761
72.761
72.7807
72.7807
72.7813
72.782
72.7828
72.7795
72.759
72.7468
72.7477
72.7541
72.7596
72.7627
72.7641
72.7643
72.764
72.7635
72.7629
72.7625
72.7622
72.7621
72.7622
72.7622
72.778
72.778
72.7787
72.7797
72.7812
72.781
72.7681
72.7552
72.7499
72.7523
72.7564
72.7598
72.762
72.7631
72.7634
72.7633
72.7631
72.7628
72.7627
72.7626
72.7629
72.7629
72.7759
72.7759
72.7765
72.7775
72.7789
72.7798
72.7748
72.7662
72.7586
72.7548
72.755
72.7575
72.7602
72.7618
72.7626
72.7629
72.763
72.7629
72.7629
72.7629
72.7633
72.7633
72.7741
72.7741
72.7746
72.7753
72.7764
72.7774
72.7768
72.7716
72.7643
72.7592
72.7572
72.7587
72.7601
72.7608
72.7616
72.7625
72.7631
72.7633
72.7632
72.763
72.7634
72.7634
72.7725
72.7725
72.773
72.7735
72.7741
72.7748
72.7748
72.7729
72.7698
72.7672
72.7638
72.7605
72.7592
72.7599
72.7613
72.7627
72.7635
72.7636
72.7633
72.7632
72.7634
72.7634
72.7712
72.7712
72.7716
72.772
72.7724
72.7727
72.773
72.7728
72.7724
72.7698
72.7646
72.7608
72.7604
72.7616
72.7627
72.7631
72.7632
72.7632
72.7633
72.7635
72.7635
72.7635
72.7701
72.7701
72.7705
72.7707
72.771
72.7712
72.7714
72.7715
72.7712
72.7694
72.7669
72.7656
72.7659
72.7648
72.7634
72.7623
72.7621
72.7628
72.7636
72.7641
72.7639
72.7639
72.7692
72.7692
72.7696
72.7698
72.77
72.7701
72.7702
72.7702
72.77
72.7695
72.7692
72.7694
72.7679
72.7655
72.7632
72.762
72.7626
72.7638
72.7645
72.7648
72.7645
72.7645
72.7685
72.7685
72.7689
72.769
72.7691
72.7692
72.7692
72.7692
72.7692
72.7691
72.7693
72.7691
72.7679
72.7663
72.7649
72.7646
72.7652
72.7655
72.7655
72.7655
72.7652
72.7652
72.768
72.768
72.7683
72.7684
72.7685
72.7685
72.7685
72.7685
72.7685
72.7685
72.7685
72.7684
72.7678
72.7674
72.7672
72.7673
72.767
72.7665
72.7662
72.766
72.7657
72.7657
72.7677
72.7677
72.7679
72.768
72.768
72.7679
72.7679
72.7679
72.7679
72.7679
72.7678
72.7678
72.7676
72.7677
72.7678
72.7677
72.7673
72.7668
72.7665
72.7664
72.7661
72.7661
72.7675
72.7675
72.7676
72.7675
72.7675
72.7674
72.7674
72.7673
72.7673
72.7673
72.7672
72.7672
72.7673
72.7675
72.7676
72.7675
72.7672
72.7669
72.7667
72.7665
72.7663