# vtk DataFile Version 3.0
FlowField
ASCII
DATASET STRUCTURED_GRID
DIMENSIONS 102 12 1 
POINTS 1224 double
0 0 0
0.3 0 0
0.6 0 0
0.9 0 0
1.2 0 0
1.5 0 0
1.8 0 0
2.1 0 0
2.4 0 0
2.7 0 0
3 0 0
3.3 0 0
3.6 0 0
3.9 0 0
4.2 0 0
4.5 0 0
4.8 0 0
5.1 0 0
5.4 0 0
5.7 0 0
6 0 0
6.3 0 0
6.6 0 0
6.9 0 0
7.2 0 0
7.5 0 0
7.8 0 0
8.1 0 0
8.4 0 0
8.7 0 0
9 0 0
9.3 0 0
9.6 0 0
9.9 0 0
10.2 0 0
10.5 0 0
10.8 0 0
11.1 0 0
11.4 0 0
11.7 0 0
12 0 0
12.3 0 0
12.6 0 0
12.9 0 0
13.2 0 0
13.5 0 0
13.8 0 0
14.1 0 0
14.4 0 0
14.7 0 0
15 0 0
15.3 0 0
15.6 0 0
15.9 0 0
16.2 0 0
16.5 0 0
16.8 0 0
17.1 0 0
17.4 0 0
17.7 0 0
18 0 0
18.3 0 0
18.6 0 0
18.9 0 0
19.2 0 0
19.5 0 0
19.8 0 0
20.1 0 0
20.4 0 0
20.7 0 0
21 0 0
21.3 0 0
21.6 0 0
21.9 0 0
22.2 0 0
22.5 0 0
22.8 0 0
23.1 0 0
23.4 0 0
23.7 0 0
24 0 0
24.3 0 0
24.6 0 0
24.9 0 0
25.2 0 0
25.5 0 0
25.8 0 0
26.1 0 0
26.4 0 0
26.7 0 0
27 0 0
27.3 0 0
27.6 0 0
27.9 0 0
28.2 0 0
28.5 0 0
28.8 0 0
29.1 0 0
29.4 0 0
29.7 0 0
30 0 0
30.3 0 0
0 0.1 0
0.3 0.1 0
0.6 0.1 0
0.9 0.1 0
1.2 0.1 0
1.5 0.1 0
1.8 0.1 0
2.1 0.1 0
2.4 0.1 0
2.7 0.1 0
3 0.1 0
3.3 0.1 0
3.6 0.1 0
3.9 0.1 0
4.2 0.1 0
4.5 0.1 0
4.8 0.1 0
5.1 0.1 0
5.4 0.1 0
5.7 0.1 0
6 0.1 0
6.3 0.1 0
6.6 0.1 0
6.9 0.1 0
7.2 0.1 0
7.5 0.1 0
7.8 0.1 0
8.1 0.1 0
8.4 0.1 0
8.7 0.1 0
9 0.1 0
9.3 0.1 0
9.6 0.1 0
9.9 0.1 0
10.2 0.1 0
10.5 0.1 0
10.8 0.1 0
11.1 0.1 0
11.4 0.1 0
11.7 0.1 0
12 0.1 0
12.3 0.1 0
12.6 0.1 0
12.9 0.1 0
13.2 0.1 0
13.5 0.1 0
13.8 0.1 0
14.1 0.1 0
14.4 0.1 0
14.7 0.1 0
15 0.1 0
15.3 0.1 0
15.6 0.1 0
15.9 0.1 0
16.2 0.1 0
16.5 0.1 0
16.8 0.1 0
17.1 0.1 0
17.4 0.1 0
17.7 0.1 0
18 0.1 0
18.3 0.1 0
18.6 0.1 0
18.9 0.1 0
19.2 0.1 0
19.5 0.1 0
19.8 0.1 0
20.1 0.1 0
20.4 0.1 0
20.7 0.1 0
21 0.1 0
21.3 0.1 0
21.6 0.1 0
21.9 0.1 0
22.2 0.1 0
22.5 0.1 0
22.8 0.1 0
23.1 0.1 0
23.4 0.1 0
23.7 0.1 0
24 0.1 0
24.3 0.1 0
24.6 0.1 0
24.9 0.1 0
25.2 0.1 0
25.5 0.1 0
25.8 0.1 0
26.1 0.1 0
26.4 0.1 0
26.7 0.1 0
27 0.1 0
27.3 0.1 0
27.6 0.1 0
27.9 0.1 0
28.2 0.1 0
28.5 0.1 0
28.8 0.1 0
29.1 0.1 0
29.4 0.1 0
29.7 0.1 0
30 0.1 0
30.3 0.1 0
0 0.2 0
0.3 0.2 0
0.6 0.2 0
0.9 0.2 0
1.2 0.2 0
1.5 0.2 0
1.8 0.2 0
2.1 0.2 0
2.4 0.2 0
2.7 0.2 0
3 0.2 0
3.3 0.2 0
3.6 0.2 0
3.9 0.2 0
4.2 0.2 0
4.5 0.2 0
4.8 0.2 0
5.1 0.2 0
5.4 0.2 0
5.7 0.2 0
6 0.2 0
6.3 0.2 0
6.6 0.2 0
6.9 0.2 0
7.2 0.2 0
7.5 0.2 0
7.8 0.2 0
8.1 0.2 0
8.4 0.2 0
8.7 0.2 0
9 0.2 0
9.3 0.2 0
9.6 0.2 0
9.9 0.2 0
10.2 0.2 0
10.5 0.2 0
10.8 0.2 0
11.1 0.2 0
11.4 0.2 0
11.7 0.2 0
12 0.2 0
12.3 0.2 0
12.6 0.2 0
12.9 0.2 0
13.2 0.2 0
13.5 0.2 0
13.8 0.2 0
14.1 0.2 0
14.4 0.2 0
14.7 0.2 0
15 0.2 0
15.3 0.2 0
15.6 0.2 0
15.9 0.2 0
16.2 0.2 0
16.5 0.2 0
16.8 0.2 0
17.1 0.2 0
17.4 0.2 0
17.7 0.2 0
18 0.2 0
18.3 0.2 0
18.6 0.2 0
18.9 0.2 0
19.2 0.2 0
19.5 0.2 0
19.8 0.2 0
20.1 0.2 0
20.4 0.2 0
20.7 0.2 0
21 0.2 0
21.3 0.2 0
21.6 0.2 0
21.9 0.2 0
22.2 0.2 0
22.5 0.2 0
22.8 0.2 0
23.1 0.2 0
23.4 0.2 0
23.7 0.2 0
24 0.2 0
24.3 0.2 0
24.6 0.2 0
24.9 0.2 0
25.2 0.2 0
25.5 0.2 0
25.8 0.2 0
26.1 0.2 0
26.4 0.2 0
26.7 0.2 0
27 0.2 0
27.3 0.2 0
27.6 0.2 0
27.9 0.2 0
28.2 0.2 0
28.5 0.2 0
28.8 0.2 0
29.1 0.2 0
29.4 0.2 0
29.7 0.2 0
30 0.2 0
30.3 0.2 0
0 0.3 0
0.3 0.3 0
0.6 0.3 0
0.9 0.3 0
1.2 0.3 0
1.5 0.3 0
1.8 0.3 0
2.1 0.3 0
2.4 0.3 0
2.7 0.3 0
3 0.3 0
3.3 0.3 0
3.6 0.3 0
3.9 0.3 0
4.2 0.3 0
4.5 0.3 0
4.8 0.3 0
5.1 0.3 0
5.4 0.3 0
5.7 0.3 0
6 0.3 0
6.3 0.3 0
6.6 0.3 0
6.9 0.3 0
7.2 0.3 0
7.5 0.3 0
7.8 0.3 0
8.1 0.3 0
8.4 0.3 0
8.7 0.3 0
9 0.3 0
9.3 0.3 0
9.6 0.3 0
9.9 0.3 0
10.2 0.3 0
10.5 0.3 0
10.8 0.3 0
11.1 0.3 0
11.4 0.3 0
11.7 0.3 0
12 0.3 0
12.3 0.3 0
12.6 0.3 0
12.9 0.3 0
13.2 0.3 0
13.5 0.3 0
13.8 0.3 0
14.1 0.3 0
14.4 0.3 0
14.7 0.3 0
15 0.3 0
15.3 0.3 0
15.6 0.3 0
15.9 0.3 0
16.2 0.3 0
16.5 0.3 0
16.8 0.3 0
17.1 0.3 0
17.4 0.3 0
17.7 0.3 0
18 0.3 0
18.3 0.3 0
18.6 0.3 0
18.9 0.3 0
19.2 0.3 0
19.5 0.3 0
19.8 0.3 0
20.1 0.3 0
20.4 0.3 0
20.7 0.3 0
21 0.3 0
21.3 0.3 0
21.6 0.3 0
21.9 0.3 0
22.2 0.3 0
22.5 0.3 0
22.8 0.3 0
23.1 0.3 0
23.4 0.3 0
23.7 0.3 0
24 0.3 0
24.3 0.3 0
24.6 0.3 0
24.9 0.3 0
25.2 0.3 0
25.5 0.3 0
25.8 0.3 0
26.1 0.3 0
26.4 0.3 0
26.7 0.3 0
27 0.3 0
27.3 0.3 0
27.6 0.3 0
27.9 0.3 0
28.2 0.3 0
28.5 0.3 0
28.8 0.3 0
29.1 0.3 0
29.4 0.3 0
29.7 0.3 0
30 0.3 0
30.3 0.3 0
0 0.4 0
0.3 0.4 0
0.6 0.4 0
0.9 0.4 0
1.2 0.4 0
1.5 0.4 0
1.8 0.4 0
2.1 0.4 0
2.4 0.4 0
2.7 0.4 0
3 0.4 0
3.3 0.4 0
3.6 0.4 0
3.9 0.4 0
4.2 0.4 0
4.5 0.4 0
4.8 0.4 0
5.1 0.4 0
5.4 0.4 0
5.7 0.4 0
6 0.4 0
6.3 0.4 0
6.6 0.4 0
6.9 0.4 0
7.2 0.4 0
7.5 0.4 0
7.8 0.4 0
8.1 0.4 0
8.4 0.4 0
8.7 0.4 0
9 0.4 0
9.3 0.4 0
9.6 0.4 0
9.9 0.4 0
10.2 0.4 0
10.5 0.4 0
10.8 0.4 0
11.1 0.4 0
11.4 0.4 0
11.7 0.4 0
12 0.4 0
12.3 0.4 0
12.6 0.4 0
12.9 0.4 0
13.2 0.4 0
13.5 0.4 0
13.8 0.4 0
14.1 0.4 0
14.4 0.4 0
14.7 0.4 0
15 0.4 0
15.3 0.4 0
15.6 0.4 0
15.9 0.4 0
16.2 0.4 0
16.5 0.4 0
16.8 0.4 0
17.1 0.4 0
17.4 0.4 0
17.7 0.4 0
18 0.4 0
18.3 0.4 0
18.6 0.4 0
18.9 0.4 0
19.2 0.4 0
19.5 0.4 0
19.8 0.4 0
20.1 0.4 0
20.4 0.4 0
20.7 0.4 0
21 0.4 0
21.3 0.4 0
21.6 0.4 0
21.9 0.4 0
22.2 0.4 0
22.5 0.4 0
22.8 0.4 0
23.1 0.4 0
23.4 0.4 0
23.7 0.4 0
24 0.4 0
24.3 0.4 0
24.6 0.4 0
24.9 0.4 0
25.2 0.4 0
25.5 0.4 0
25.8 0.4 0
26.1 0.4 0
26.4 0.4 0
26.7 0.4 0
27 0.4 0
27.3 0.4 0
27.6 0.4 0
27.9 0.4 0
28.2 0.4 0
28.5 0.4 0
28.8 0.4 0
29.1 0.4 0
29.4 0.4 0
29.7 0.4 0
30 0.4 0
30.3 0.4 0
0 0.5 0
0.3 0.5 0
0.6 0.5 0
0.9 0.5 0
1.2 0.5 0
1.5 0.5 0
1.8 0.5 0
2.1 0.5 0
2.4 0.5 0
2.7 0.5 0
3 0.5 0
3.3 0.5 0
3.6 0.5 0
3.9 0.5 0
4.2 0.5 0
4.5 0.5 0
4.8 0.5 0
5.1 0.5 0
5.4 0.5 0
5.7 0.5 0
6 0.5 0
6.3 0.5 0
6.6 0.5 0
6.9 0.5 0
7.2 0.5 0
7.5 0.5 0
7.8 0.5 0
8.1 0.5 0
8.4 0.5 0
8.7 0.5 0
9 0.5 0
9.3 0.5 0
9.6 0.5 0
9.9 0.5 0
10.2 0.5 0
10.5 0.5 0
10.8 0.5 0
11.1 0.5 0
11.4 0.5 0
11.7 0.5 0
12 0.5 0
12.3 0.5 0
12.6 0.5 0
12.9 0.5 0
13.2 0.5 0
13.5 0.5 0
13.8 0.5 0
14.1 0.5 0
14.4 0.5 0
14.7 0.5 0
15 0.5 0
15.3 0.5 0
15.6 0.5 0
15.9 0.5 0
16.2 0.5 0
16.5 0.5 0
16.8 0.5 0
17.1 0.5 0
17.4 0.5 0
17.7 0.5 0
18 0.5 0
18.3 0.5 0
18.6 0.5 0
18.9 0.5 0
19.2 0.5 0
19.5 0.5 0
19.8 0.5 0
20.1 0.5 0
20.4 0.5 0
20.7 0.5 0
21 0.5 0
21.3 0.5 0
21.6 0.5 0
21.9 0.5 0
22.2 0.5 0
22.5 0.5 0
22.8 0.5 0
23.1 0.5 0
23.4 0.5 0
23.7 0.5 0
24 0.5 0
24.3 0.5 0
24.6 0.5 0
24.9 0.5 0
25.2 0.5 0
25.5 0.5 0
25.8 0.5 0
26.1 0.5 0
26.4 0.5 0
26.7 0.5 0
27 0.5 0
27.3 0.5 0
27.6 0.5 0
27.9 0.5 0
28.2 0.5 0
28.5 0.5 0
28.8 0.5 0
29.1 0.5 0
29.4 0.5 0
29.7 0.5 0
30 0.5 0
30.3 0.5 0
0 0.6 0
0.3 0.6 0
0.6 0.6 0
0.9 0.6 0
1.2 0.6 0
1.5 0.6 0
1.8 0.6 0
2.1 0.6 0
2.4 0.6 0
2.7 0.6 0
3 0.6 0
3.3 0.6 0
3.6 0.6 0
3.9 0.6 0
4.2 0.6 0
4.5 0.6 0
4.8 0.6 0
5.1 0.6 0
5.4 0.6 0
5.7 0.6 0
6 0.6 0
6.3 0.6 0
6.6 0.6 0
6.9 0.6 0
7.2 0.6 0
7.5 0.6 0
7.8 0.6 0
8.1 0.6 0
8.4 0.6 0
8.7 0.6 0
9 0.6 0
9.3 0.6 0
9.6 0.6 0
9.9 0.6 0
10.2 0.6 0
10.5 0.6 0
10.8 0.6 0
11.1 0.6 0
11.4 0.6 0
11.7 0.6 0
12 0.6 0
12.3 0.6 0
12.6 0.6 0
12.9 0.6 0
13.2 0.6 0
13.5 0.6 0
13.8 0.6 0
14.1 0.6 0
14.4 0.6 0
14.7 0.6 0
15 0.6 0
15.3 0.6 0
15.6 0.6 0
15.9 0.6 0
16.2 0.6 0
16.5 0.6 0
16.8 0.6 0
17.1 0.6 0
17.4 0.6 0
17.7 0.6 0
18 0.6 0
18.3 0.6 0
18.6 0.6 0
18.9 0.6 0
19.2 0.6 0
19.5 0.6 0
19.8 0.6 0
20.1 0.6 0
20.4 0.6 0
20.7 0.6 0
21 0.6 0
21.3 0.6 0
21.6 0.6 0
21.9 0.6 0
22.2 0.6 0
22.5 0.6 0
22.8 0.6 0
23.1 0.6 0
23.4 0.6 0
23.7 0.6 0
24 0.6 0
24.3 0.6 0
24.6 0.6 0
24.9 0.6 0
25.2 0.6 0
25.5 0.6 0
25.8 0.6 0
26.1 0.6 0
26.4 0.6 0
26.7 0.6 0
27 0.6 0
27.3 0.6 0
27.6 0.6 0
27.9 0.6 0
28.2 0.6 0
28.5 0.6 0
28.8 0.6 0
29.1 0.6 0
29.4 0.6 0
29.7 0.6 0
30 0.6 0
30.3 0.6 0
0 0.7 0
0.3 0.7 0
0.6 0.7 0
0.9 0.7 0
1.2 0.7 0
1.5 0.7 0
1.8 0.7 0
2.1 0.7 0
2.4 0.7 0
2.7 0.7 0
3 0.7 0
3.3 0.7 0
3.6 0.7 0
3.9 0.7 0
4.2 0.7 0
4.5 0.7 0
4.8 0.7 0
5.1 0.7 0
5.4 0.7 0
5.7 0.7 0
6 0.7 0
6.3 0.7 0
6.6 0.7 0
6.9 0.7 0
7.2 0.7 0
7.5 0.7 0
7.8 0.7 0
8.1 0.7 0
8.4 0.7 0
8.7 0.7 0
9 0.7 0
9.3 0.7 0
9.6 0.7 0
9.9 0.7 0
10.2 0.7 0
10.5 0.7 0
10.8 0.7 0
11.1 0.7 0
11.4 0.7 0
11.7 0.7 0
12 0.7 0
12.3 0.7 0
12.6 0.7 0
12.9 0.7 0
13.2 0.7 0
13.5 0.7 0
13.8 0.7 0
14.1 0.7 0
14.4 0.7 0
14.7 0.7 0
15 0.7 0
15.3 0.7 0
15.6 0.7 0
15.9 0.7 0
16.2 0.7 0
16.5 0.7 0
16.8 0.7 0
17.1 0.7 0
17.4 0.7 0
17.7 0.7 0
18 0.7 0
18.3 0.7 0
18.6 0.7 0
18.9 0.7 0
19.2 0.7 0
19.5 0.7 0
19.8 0.7 0
20.1 0.7 0
20.4 0.7 0
20.7 0.7 0
21 0.7 0
21.3 0.7 0
21.6 0.7 0
21.9 0.7 0
22.2 0.7 0
22.5 0.7 0
22.8 0.7 0
23.1 0.7 0
23.4 0.7 0
23.7 0.7 0
24 0.7 0
24.3 0.7 0
24.6 0.7 0
24.9 0.7 0
25.2 0.7 0
25.5 0.7 0
25.8 0.7 0
26.1 0.7 0
26.4 0.7 0
26.7 0.7 0
27 0.7 0
27.3 0.7 0
27.6 0.7 0
27.9 0.7 0
28.2 0.7 0
28.5 0.7 0
28.8 0.7 0
29.1 0.7 0
29.4 0.7 0
29.7 0.7 0
30 0.7 0
30.3 0.7 0
0 0.8 0
0.3 0.8 0
0.6 0.8 0
0.9 0.8 0
1.2 0.8 0
1.5 0.8 0
1.8 0.8 0
2.1 0.8 0
2.4 0.8 0
2.7 0.8 0
3 0.8 0
3.3 0.8 0
3.6 0.8 0
3.9 0.8 0
4.2 0.8 0
4.5 0.8 0
4.8 0.8 0
5.1 0.8 0
5.4 0.8 0
5.7 0.8 0
6 0.8 0
6.3 0.8 0
6.6 0.8 0
6.9 0.8 0
7.2 0.8 0
7.5 0.8 0
7.8 0.8 0
8.1 0.8 0
8.4 0.8 0
8.7 0.8 0
9 0.8 0
9.3 0.8 0
9.6 0.8 0
9.9 0.8 0
10.2 0.8 0
10.5 0.8 0
10.8 0.8 0
11.1 0.8 0
11.4 0.8 0
11.7 0.8 0
12 0.8 0
12.3 0.8 0
12.6 0.8 0
12.9 0.8 0
13.2 0.8 0
13.5 0.8 0
13.8 0.8 0
14.1 0.8 0
14.4 0.8 0
14.7 0.8 0
15 0.8 0
15.3 0.8 0
15.6 0.8 0
15.9 0.8 0
16.2 0.8 0
16.5 0.8 0
16.8 0.8 0
17.1 0.8 0
17.4 0.8 0
17.7 0.8 0
18 0.8 0
18.3 0.8 0
18.6 0.8 0
18.9 0.8 0
19.2 0.8 0
19.5 0.8 0
19.8 0.8 0
20.1 0.8 0
20.4 0.8 0
20.7 0.8 0
21 0.8 0
21.3 0.8 0
21.6 0.8 0
21.9 0.8 0
22.2 0.8 0
22.5 0.8 0
22.8 0.8 0
23.1 0.8 0
23.4 0.8 0
23.7 0.8 0
24 0.8 0
24.3 0.8 0
24.6 0.8 0
24.9 0.8 0
25.2 0.8 0
25.5 0.8 0
25.8 0.8 0
26.1 0.8 0
26.4 0.8 0
26.7 0.8 0
27 0.8 0
27.3 0.8 0
27.6 0.8 0
27.9 0.8 0
28.2 0.8 0
28.5 0.8 0
28.8 0.8 0
29.1 0.8 0
29.4 0.8 0
29.7 0.8 0
30 0.8 0
30.3 0.8 0
0 0.9 0
0.3 0.9 0
0.6 0.9 0
0.9 0.9 0
1.2 0.9 0
1.5 0.9 0
1.8 0.9 0
2.1 0.9 0
2.4 0.9 0
2.7 0.9 0
3 0.9 0
3.3 0.9 0
3.6 0.9 0
3.9 0.9 0
4.2 0.9 0
4.5 0.9 0
4.8 0.9 0
5.1 0.9 0
5.4 0.9 0
5.7 0.9 0
6 0.9 0
6.3 0.9 0
6.6 0.9 0
6.9 0.9 0
7.2 0.9 0
7.5 0.9 0
7.8 0.9 0
8.1 0.9 0
8.4 0.9 0
8.7 0.9 0
9 0.9 0
9.3 0.9 0
9.6 0.9 0
9.9 0.9 0
10.2 0.9 0
10.5 0.9 0
10.8 0.9 0
11.1 0.9 0
11.4 0.9 0
11.7 0.9 0
12 0.9 0
12.3 0.9 0
12.6 0.9 0
12.9 0.9 0
13.2 0.9 0
13.5 0.9 0
13.8 0.9 0
14.1 0.9 0
14.4 0.9 0
14.7 0.9 0
15 0.9 0
15.3 0.9 0
15.6 0.9 0
15.9 0.9 0
16.2 0.9 0
16.5 0.9 0
16.8 0.9 0
17.1 0.9 0
17.4 0.9 0
17.7 0.9 0
18 0.9 0
18.3 0.9 0
18.6 0.9 0
18.9 0.9 0
19.2 0.9 0
19.5 0.9 0
19.8 0.9 0
20.1 0.9 0
20.4 0.9 0
20.7 0.9 0
21 0.9 0
21.3 0.9 0
21.6 0.9 0
21.9 0.9 0
22.2 0.9 0
22.5 0.9 0
22.8 0.9 0
23.1 0.9 0
23.4 0.9 0
23.7 0.9 0
24 0.9 0
24.3 0.9 0
24.6 0.9 0
24.9 0.9 0
25.2 0.9 0
25.5 0.9 0
25.8 0.9 0
26.1 0.9 0
26.4 0.9 0
26.7 0.9 0
27 0.9 0
27.3 0.9 0
27.6 0.9 0
27.9 0.9 0
28.2 0.9 0
28.5 0.9 0
28.8 0.9 0
29.1 0.9 0
29.4 0.9 0
29.7 0.9 0
30 0.9 0
30.3 0.9 0
0 1 0
0.3 1 0
0.6 1 0
0.9 1 0
1.2 1 0
1.5 1 0
1.8 1 0
2.1 1 0
2.4 1 0
2.7 1 0
3 1 0
3.3 1 0
3.6 1 0
3.9 1 0
4.2 1 0
4.5 1 0
4.8 1 0
5.1 1 0
5.4 1 0
5.7 1 0
6 1 0
6.3 1 0
6.6 1 0
6.9 1 0
7.2 1 0
7.5 1 0
7.8 1 0
8.1 1 0
8.4 1 0
8.7 1 0
9 1 0
9.3 1 0
9.6 1 0
9.9 1 0
10.2 1 0
10.5 1 0
10.8 1 0
11.1 1 0
11.4 1 0
11.7 1 0
12 1 0
12.3 1 0
12.6 1 0
12.9 1 0
13.2 1 0
13.5 1 0
13.8 1 0
14.1 1 0
14.4 1 0
14.7 1 0
15 1 0
15.3 1 0
15.6 1 0
15.9 1 0
16.2 1 0
16.5 1 0
16.8 1 0
17.1 1 0
17.4 1 0
17.7 1 0
18 1 0
18.3 1 0
18.6 1 0
18.9 1 0
19.2 1 0
19.5 1 0
19.8 1 0
20.1 1 0
20.4 1 0
20.7 1 0
21 1 0
21.3 1 0
21.6 1 0
21.9 1 0
22.2 1 0
22.5 1 0
22.8 1 0
23.1 1 0
23.4 1 0
23.7 1 0
24 1 0
24.3 1 0
24.6 1 0
24.9 1 0
25.2 1 0
25.5 1 0
25.8 1 0
26.1 1 0
26.4 1 0
26.7 1 0
27 1 0
27.3 1 0
27.6 1 0
27.9 1 0
28.2 1 0
28.5 1 0
28.8 1 0
29.1 1 0
29.4 1 0
29.7 1 0
30 1 0
30.3 1 0
0 1.1 0
0.3 1.1 0
0.6 1.1 0
0.9 1.1 0
1.2 1.1 0
1.5 1.1 0
1.8 1.1 0
2.1 1.1 0
2.4 1.1 0
2.7 1.1 0
3 1.1 0
3.3 1.1 0
3.6 1.1 0
3.9 1.1 0
4.2 1.1 0
4.5 1.1 0
4.8 1.1 0
5.1 1.1 0
5.4 1.1 0
5.7 1.1 0
6 1.1 0
6.3 1.1 0
6.6 1.1 0
6.9 1.1 0
7.2 1.1 0
7.5 1.1 0
7.8 1.1 0
8.1 1.1 0
8.4 1.1 0
8.7 1.1 0
9 1.1 0
9.3 1.1 0
9.6 1.1 0
9.9 1.1 0
10.2 1.1 0
10.5 1.1 0
10.8 1.1 0
11.1 1.1 0
11.4 1.1 0
11.7 1.1 0
12 1.1 0
12.3 1.1 0
12.6 1.1 0
12.9 1.1 0
13.2 1.1 0
13.5 1.1 0
13.8 1.1 0
14.1 1.1 0
14.4 1.1 0
14.7 1.1 0
15 1.1 0
15.3 1.1 0
15.6 1.1 0
15.9 1.1 0
16.2 1.1 0
16.5 1.1 0
16.8 1.1 0
17.1 1.1 0
17.4 1.1 0
17.7 1.1 0
18 1.1 0
18.3 1.1 0
18.6 1.1 0
18.9 1.1 0
19.2 1.1 0
19.5 1.1 0
19.8 1.1 0
20.1 1.1 0
20.4 1.1 0
20.7 1.1 0
21 1.1 0
21.3 1.1 0
21.6 1.1 0
21.9 1.1 0
22.2 1.1 0
22.5 1.1 0
22.8 1.1 0
23.1 1.1 0
23.4 1.1 0
23.7 1.1 0
24 1.1 0
24.3 1.1 0
24.6 1.1 0
24.9 1.1 0
25.2 1.1 0
25.5 1.1 0
25.8 1.1 0
26.1 1.1 0
26.4 1.1 0
26.7 1.1 0
27 1.1 0
27.3 1.1 0
27.6 1.1 0
27.9 1.1 0
28.2 1.1 0
28.5 1.1 0
28.8 1.1 0
29.1 1.1 0
29.4 1.1 0
29.7 1.1 0
30 1.1 0
30.3 1.1 0

POINT_DATA 1224

SCALARS pressure double
LOOKUP_TABLE pressure
1.31761
1.31761
1.2511
1.20402
1.16107
1.12141
1.08539
1.053
1.0239
0.997564
0.973453
0.951101
0.930128
0.910246
0.89124
0.87295
0.855259
0.838078
0.821339
0.804989
0.788985
0.773293
0.757883
0.742731
0.727813
0.713112
0.69861
0.684292
0.670144
0.656153
0.642308
0.628599
0.615016
0.60155
0.588193
0.574938
0.561779
0.548709
0.535723
0.522817
0.509988
0.497231
0.484545
0.471928
0.459376
0.446887
0.43446
0.422091
0.409777
0.397514
0.385298
0.373124
0.360989
0.348887
0.336813
0.324764
0.312735
0.300723
0.288724
0.276736
0.264757
0.252783
0.240815
0.22885
0.216887
0.204927
0.192968
0.181009
0.169052
0.157095
0.145138
0.133181
0.121224
0.109268
0.0973114
0.0853549
0.0733985
0.0614421
0.0494857
0.0375293
0.0255728
0.0136164
0.00166005
-0.0102964
-0.0222527
-0.0342091
-0.0461655
-0.0581219
-0.0700783
-0.0820347
-0.0939911
-0.105947
-0.117904
-0.12986
-0.141817
-0.153773
-0.165729
-0.177686
-0.189642
-0.201599
-0.21355
0.21355
1.31761
1.31761
1.2511
1.20402
1.16107
1.12141
1.08539
1.053
1.0239
0.997564
0.973453
0.951101
0.930128
0.910246
0.89124
0.87295
0.855259
0.838078
0.821339
0.804989
0.788985
0.773293
0.757883
0.742731
0.727813
0.713112
0.69861
0.684292
0.670144
0.656153
0.642308
0.628599
0.615016
0.60155
0.588193
0.574938
0.561779
0.548709
0.535723
0.522817
0.509988
0.497231
0.484545
0.471928
0.459376
0.446887
0.43446
0.422091
0.409777
0.397514
0.385298
0.373124
0.360989
0.348887
0.336813
0.324764
0.312735
0.300723
0.288724
0.276736
0.264757
0.252783
0.240815
0.22885
0.216887
0.204927
0.192968
0.181009
0.169052
0.157095
0.145138
0.133181
0.121224
0.109268
0.0973114
0.0853549
0.0733985
0.0614421
0.0494857
0.0375293
0.0255728
0.0136164
0.00166005
-0.0102964
-0.0222527
-0.0342091
-0.0461655
-0.0581219
-0.0700783
-0.0820347
-0.0939911
-0.105947
-0.117904
-0.12986
-0.141817
-0.153773
-0.165729
-0.177686
-0.189642
-0.201599
-0.21355
0.21355
1.29696
1.29696
1.2493
1.20433
1.16178
1.12218
1.08609
1.05359
1.02438
0.997934
0.973739
0.951321
0.930301
0.910383
0.891351
0.873042
0.855337
0.838144
0.821396
0.805039
0.78903
0.773333
0.75792
0.742764
0.727843
0.713139
0.698635
0.684315
0.670164
0.656172
0.642326
0.628615
0.615031
0.601564
0.588206
0.57495
0.56179
0.548719
0.535733
0.522826
0.509996
0.497238
0.484552
0.471933
0.45938
0.446891
0.434463
0.422094
0.409779
0.397515
0.385299
0.373125
0.360989
0.348887
0.336813
0.324764
0.312735
0.300723
0.288724
0.276736
0.264757
0.252783
0.240815
0.22885
0.216887
0.204927
0.192968
0.181009
0.169052
0.157095
0.145138
0.133181
0.121224
0.109268
0.0973114
0.0853549
0.0733985
0.0614421
0.0494857
0.0375293
0.0255728
0.0136164
0.00166005
-0.0102964
-0.0222527
-0.0342091
-0.0461655
-0.0581219
-0.0700783
-0.0820347
-0.0939911
-0.105947
-0.117904
-0.12986
-0.141817
-0.153773
-0.165729
-0.177686
-0.189642
-0.201599
-0.21355
0.21355
1.28257
1.28257
1.24679
1.20472
1.16291
1.12345
1.08726
1.05459
1.02517
0.99854
0.974195
0.951662
0.930556
0.910578
0.891501
0.873161
0.855432
0.838223
0.821462
0.805096
0.789079
0.773376
0.757957
0.742797
0.727873
0.713166
0.698659
0.684336
0.670184
0.65619
0.642342
0.62863
0.615044
0.601576
0.588217
0.574961
0.5618
0.548728
0.535741
0.522834
0.510003
0.497245
0.484557
0.471938
0.459384
0.446895
0.434466
0.422096
0.409781
0.397517
0.3853
0.373126
0.36099
0.348887
0.336813
0.324764
0.312735
0.300723
0.288724
0.276736
0.264757
0.252783
0.240815
0.22885
0.216887
0.204927
0.192968
0.181009
0.169052
0.157095
0.145138
0.133181
0.121224
0.109268
0.0973114
0.0853549
0.0733985
0.0614421
0.0494857
0.0375293
0.0255728
0.0136164
0.00166005
-0.0102964
-0.0222527
-0.0342091
-0.0461655
-0.0581219
-0.0700783
-0.0820347
-0.0939911
-0.105947
-0.117904
-0.12986
-0.141817
-0.153773
-0.165729
-0.177686
-0.189642
-0.201597
-0.213549
0.213549
1.27388
1.27388
1.24478
1.20498
1.16384
1.12452
1.08829
1.05548
1.0259
0.999119
0.974643
0.952007
0.930822
0.910785
0.891666
0.873294
0.855542
0.838315
0.82154
0.805162
0.789137
0.773427
0.758002
0.742836
0.727908
0.713198
0.698688
0.684362
0.670208
0.656211
0.642361
0.628648
0.61506
0.601591
0.588231
0.574973
0.561811
0.548739
0.535751
0.522843
0.510011
0.497253
0.484565
0.471945
0.459391
0.446901
0.434472
0.422101
0.409785
0.397521
0.385303
0.373129
0.360992
0.348889
0.336815
0.324765
0.312736
0.300724
0.288725
0.276737
0.264757
0.252783
0.240815
0.22885
0.216887
0.204927
0.192968
0.181009
0.169052
0.157095
0.145138
0.133181
0.121224
0.109268
0.0973114
0.0853549
0.0733985
0.0614421
0.0494857
0.0375293
0.0255728
0.0136164
0.00166005
-0.0102964
-0.0222527
-0.0342091
-0.0461655
-0.0581219
-0.0700783
-0.0820347
-0.0939911
-0.105947
-0.117904
-0.12986
-0.141817
-0.153773
-0.165729
-0.177685
-0.189641
-0.201593
-0.213547
0.213547
1.2698
1.2698
1.2437
1.2051
1.16433
1.12511
1.08886
1.05598
1.02631
0.999454
0.974907
0.952214
0.930986
0.910916
0.891772
0.873381
0.855615
0.838377
0.821594
0.805209
0.789178
0.773463
0.758034
0.742866
0.727935
0.713222
0.698709
0.684382
0.670225
0.656227
0.642376
0.628661
0.615073
0.601602
0.588242
0.574983
0.56182
0.548747
0.535759
0.52285
0.510018
0.497259
0.484571
0.471951
0.459397
0.446906
0.434477
0.422106
0.409789
0.397525
0.385307
0.373132
0.360995
0.348892
0.336817
0.324767
0.312738
0.300725
0.288726
0.276737
0.264757
0.252784
0.240815
0.22885
0.216888
0.204927
0.192968
0.18101
0.169052
0.157095
0.145138
0.133181
0.121224
0.109268
0.0973114
0.0853549
0.0733985
0.0614421
0.0494857
0.0375293
0.0255728
0.0136164
0.00166005
-0.0102964
-0.0222527
-0.0342091
-0.0461655
-0.0581219
-0.0700783
-0.0820347
-0.0939911
-0.105947
-0.117904
-0.12986
-0.141817
-0.153773
-0.165729
-0.177685
-0.189641
-0.20159
-0.213546
0.213546
1.2698
1.2698
1.2437
1.2051
1.16433
1.12511
1.08886
1.05598
1.02631
0.999454
0.974907
0.952214
0.930986
0.910916
0.891772
0.873381
0.855615
0.838377
0.821594
0.805209
0.789178
0.773463
0.758034
0.742866
0.727935
0.713222
0.698709
0.684382
0.670225
0.656227
0.642376
0.628661
0.615073
0.601602
0.588242
0.574983
0.56182
0.548747
0.535759
0.52285
0.510018
0.497259
0.484571
0.471951
0.459397
0.446906
0.434477
0.422106
0.409789
0.397525
0.385307
0.373132
0.360995
0.348892
0.336817
0.324767
0.312738
0.300725
0.288726
0.276737
0.264757
0.252784
0.240815
0.22885
0.216888
0.204927
0.192968
0.18101
0.169052
0.157095
0.145138
0.133181
0.121224
0.109268
0.0973114
0.0853549
0.0733985
0.0614421
0.0494857
0.0375293
0.0255728
0.0136164
0.00166005
-0.0102964
-0.0222527
-0.0342091
-0.0461655
-0.0581219
-0.0700783
-0.0820347
-0.0939911
-0.105947
-0.117904
-0.12986
-0.141817
-0.153773
-0.165729
-0.177685
-0.189641
-0.20159
-0.213546
0.213546
1.27388
1.27388
1.24478
1.20498
1.16384
1.12452
1.08829
1.05548
1.0259
0.999119
0.974643
0.952007
0.930822
0.910785
0.891666
0.873294
0.855542
0.838315
0.82154
0.805162
0.789137
0.773427
0.758002
0.742836
0.727908
0.713198
0.698688
0.684362
0.670208
0.656211
0.642361
0.628648
0.61506
0.601591
0.588231
0.574973
0.561811
0.548739
0.535751
0.522843
0.510011
0.497253
0.484565
0.471945
0.459391
0.446901
0.434472
0.422101
0.409785
0.397521
0.385303
0.373129
0.360992
0.348889
0.336815
0.324765
0.312736
0.300724
0.288725
0.276737
0.264757
0.252783
0.240815
0.22885
0.216887
0.204927
0.192968
0.181009
0.169052
0.157095
0.145138
0.133181
0.121224
0.109268
0.0973114
0.0853549
0.0733985
0.0614421
0.0494857
0.0375293
0.0255728
0.0136164
0.00166005
-0.0102964
-0.0222527
-0.0342091
-0.0461655
-0.0581219
-0.0700783
-0.0820347
-0.0939911
-0.105947
-0.117904
-0.12986
-0.141817
-0.153773
-0.165729
-0.177685
-0.189641
-0.201593
-0.213547
0.213547
1.28257
1.28257
1.24679
1.20472
1.16291
1.12345
1.08726
1.05459
1.02517
0.99854
0.974195
0.951662
0.930556
0.910578
0.891501
0.873161
0.855432
0.838223
0.821462
0.805096
0.789079
0.773376
0.757957
0.742797
0.727873
0.713166
0.698659
0.684336
0.670184
0.65619
0.642342
0.62863
0.615044
0.601576
0.588217
0.574961
0.5618
0.548728
0.535741
0.522834
0.510003
0.497245
0.484557
0.471938
0.459384
0.446895
0.434466
0.422096
0.409781
0.397517
0.3853
0.373126
0.36099
0.348887
0.336813
0.324764
0.312735
0.300723
0.288724
0.276736
0.264757
0.252783
0.240815
0.22885
0.216887
0.204927
0.192968
0.181009
0.169052
0.157095
0.145138
0.133181
0.121224
0.109268
0.0973114
0.0853549
0.0733985
0.0614421
0.0494857
0.0375293
0.0255728
0.0136164
0.00166005
-0.0102964
-0.0222527
-0.0342091
-0.0461655
-0.0581219
-0.0700783
-0.0820347
-0.0939911
-0.105947
-0.117904
-0.12986
-0.141817
-0.153773
-0.165729
-0.177686
-0.189642
-0.201597
-0.213549
0.213549
1.29696
1.29696
1.2493
1.20433
1.16178
1.12218
1.08609
1.05359
1.02438
0.997934
0.973739
0.951321
0.930301
0.910383
0.891351
0.873042
0.855337
0.838144
0.821396
0.805039
0.78903
0.773333
0.75792
0.742764
0.727843
0.713139
0.698635
0.684315
0.670164
0.656172
0.642326
0.628615
0.615031
0.601564
0.588206
0.57495
0.56179
0.548719
0.535733
0.522826
0.509996
0.497238
0.484552
0.471933
0.45938
0.446891
0.434463
0.422094
0.409779
0.397515
0.385299
0.373125
0.360989
0.348887
0.336813
0.324764
0.312735
0.300723
0.288724
0.276736
0.264757
0.252783
0.240815
0.22885
0.216887
0.204927
0.192968
0.181009
0.169052
0.157095
0.145138
0.133181
0.121224
0.109268
0.0973114
0.0853549
0.0733985
0.0614421
0.0494857
0.0375293
0.0255728
0.0136164
0.00166005
-0.0102964
-0.0222527
-0.0342091
-0.0461655
-0.0581219
-0.0700783
-0.0820347
-0.0939911
-0.105947
-0.117904
-0.12986
-0.141817
-0.153773
-0.165729
-0.177686
-0.189642
-0.201599
-0.21355
0.21355
1.31761
1.31761
1.2511
1.20402
1.16107
1.12141
1.08539
1.053
1.0239
0.997564
0.973453
0.951101
0.930128
0.910246
0.89124
0.87295
0.855259
0.838078
0.821339
0.804989
0.788985
0.773293
0.757883
0.742731
0.727813
0.713112
0.69861
0.684292
0.670144
0.656153
0.642308
0.628599
0.615016
0.60155
0.588193
0.574938
0.561779
0.548709
0.535723
0.522817
0.509988
0.497231
0.484545
0.471928
0.459376
0.446887
0.43446
0.422091
0.409777
0.397514
0.385298
0.373124
0.360989
0.348887
0.336813
0.324764
0.312735
0.300723
0.288724
0.276736
0.264757
0.252783
0.240815
0.22885
0.216887
0.204927
0.192968
0.181009
0.169052
0.157095
0.145138
0.133181
0.121224
0.109268
0.0973114
0.0853549
0.0733985
0.0614421
0.0494857
0.0375293
0.0255728
0.0136164
0.00166005
-0.0102964
-0.0222527
-0.0342091
-0.0461655
-0.0581219
-0.0700783
-0.0820347
-0.0939911
-0.105947
-0.117904
-0.12986
-0.141817
-0.153773
-0.165729
-0.177686
-0.189642
-0.201599
-0.21355
0.21355
1.31761
1.31761
1.2511
1.20402
1.16107
1.12141
1.08539
1.053
1.0239
0.997564
0.973453
0.951101
0.930128
0.910246
0.89124
0.87295
0.855259
0.838078
0.821339
0.804989
0.788985
0.773293
0.757883
0.742731
0.727813
0.713112
0.69861
0.684292
0.670144
0.656153
0.642308
0.628599
0.615016
0.60155
0.588193
0.574938
0.561779
0.548709
0.535723
0.522817
0.509988
0.497231
0.484545
0.471928
0.459376
0.446887
0.43446
0.422091
0.409777
0.397514
0.385298
0.373124
0.360989
0.348887
0.336813
0.324764
0.312735
0.300723
0.288724
0.276736
0.264757
0.252783
0.240815
0.22885
0.216887
0.204927
0.192968
0.181009
0.169052
0.157095
0.145138
0.133181
0.121224
0.109268
0.0973114
0.0853549
0.0733985
0.0614421
0.0494857
0.0375293
0.0255728
0.0136164
0.00166005
-0.0102964
-0.0222527
-0.0342091
-0.0461655
-0.0581219
-0.0700783
-0.0820347
-0.0939911
-0.105947
-0.117904
-0.12986
-0.141817
-0.153773
-0.165729
-0.177686
-0.189642
-0.201599
-0.21355
0.21355
SCALARS phi double
LOOKUP_TABLE phi
1
1
1
0.999995
0.999977
0.999931
0.999833
0.999654
0.999363
0.998928
0.998323
0.997524
0.996506
0.995263
0.993825
0.992225
0.990372
0.987917
0.984211
0.9784
0.969624
0.957221
0.940841
0.920463
0.896329
0.868854
0.838544
0.805929
0.771532
0.735845
0.699317
0.662355
0.625316
0.588509
0.552198
0.516601
0.481893
0.448216
0.415677
0.384354
0.354301
0.325556
0.298139
0.272058
0.247315
0.223903
0.201815
0.18104
0.161568
0.143386
0.126484
0.110849
0.0964681
0.0833235
0.0713938
0.0606511
0.0510602
0.0425773
0.0351494
0.0287149
0.0232041
0.0185404
0.0146426
0.0114267
0.00880858
0.006706
0.00504082
0.0037406
0.00273979
0.00198051
0.0014128
0.000994482
0.000690731
0.000473373
0.000320095
0.00021357
0.000140604
9.13408e-05
5.85554e-05
3.70448e-05
2.313e-05
1.42543e-05
8.67103e-06
5.20702e-06
3.08702e-06
1.80703e-06
1.04449e-06
5.96219e-07
3.36132e-07
1.87181e-07
1.0297e-07
5.59624e-08
3.00517e-08
1.59468e-08
8.36284e-09
4.33469e-09
2.2209e-09
1.12495e-09
5.63134e-10
2.80289e-10
1.27681e-10
1.27681e-10
1
1
1
0.999995
0.999977
0.999931
0.999833
0.999654
0.999363
0.998928
0.998323
0.997524
0.996506
0.995263
0.993825
0.992225
0.990372
0.987917
0.984211
0.9784
0.969624
0.957221
0.940841
0.920463
0.896329
0.868854
0.838544
0.805929
0.771532
0.735845
0.699317
0.662355
0.625316
0.588509
0.552198
0.516601
0.481893
0.448216
0.415677
0.384354
0.354301
0.325556
0.298139
0.272058
0.247315
0.223903
0.201815
0.18104
0.161568
0.143386
0.126484
0.110849
0.0964681
0.0833235
0.0713938
0.0606511
0.0510602
0.0425773
0.0351494
0.0287149
0.0232041
0.0185404
0.0146426
0.0114267
0.00880858
0.006706
0.00504082
0.0037406
0.00273979
0.00198051
0.0014128
0.000994482
0.000690731
0.000473373
0.000320095
0.00021357
0.000140604
9.13408e-05
5.85554e-05
3.70448e-05
2.313e-05
1.42543e-05
8.67103e-06
5.20702e-06
3.08702e-06
1.80703e-06
1.04449e-06
5.96219e-07
3.36132e-07
1.87181e-07
1.0297e-07
5.59624e-08
3.00517e-08
1.59468e-08
8.36284e-09
4.33469e-09
2.2209e-09
1.12495e-09
5.63134e-10
2.80289e-10
1.27681e-10
1.27681e-10
0.999998
1
0.999984
0.999921
0.999783
0.999536
0.999146
0.99858
0.997811
0.996819
0.995589
0.994116
0.992397
0.990433
0.988236
0.985827
0.983222
0.980385
0.977187
0.973371
0.968576
0.962378
0.954363
0.944184
0.9316
0.916492
0.898855
0.878785
0.856455
0.832092
0.80596
0.778343
0.749528
0.7198
0.689429
0.658668
0.627748
0.596873
0.566221
0.535943
0.506165
0.476985
0.448477
0.420694
0.393667
0.367413
0.341935
0.317228
0.293281
0.270083
0.247631
0.225925
0.204983
0.184835
0.165525
0.147112
0.129668
0.113268
0.0979882
0.0838971
0.0710493
0.0594794
0.0491976
0.0401877
0.0324072
0.0257893
0.0202469
0.0156782
0.0119721
0.00901394
0.00669085
0.00489596
0.00353155
0.00251106
0.00176001
0.00121605
0.000828306
0.000556231
0.00036828
0.000240435
0.000154794
9.82865e-05
6.15548e-05
3.80284e-05
2.31785e-05
1.39394e-05
8.27251e-06
4.84531e-06
2.80124e-06
1.59874e-06
9.00868e-07
5.01249e-07
2.75429e-07
1.49481e-07
8.01369e-08
4.2443e-08
2.22104e-08
1.14857e-08
5.8672e-09
2.98064e-09
1.37989e-09
1.37989e-09
1.00001
0.999992
0.99954
0.998615
0.997207
0.995316
0.992954
0.990144
0.986922
0.983331
0.979421
0.975241
0.970836
0.966247
0.961512
0.956664
0.951732
0.94674
0.941692
0.936563
0.931288
0.925763
0.919843
0.913361
0.906142
0.898015
0.888833
0.878476
0.866859
0.853933
0.839686
0.82414
0.807343
0.789371
0.770318
0.750292
0.729411
0.7078
0.685583
0.662884
0.639818
0.616494
0.593007
0.569438
0.545849
0.522287
0.498777
0.475324
0.451915
0.428518
0.405092
0.381587
0.357959
0.334177
0.310236
0.286169
0.262053
0.238016
0.214233
0.190922
0.168328
0.146711
0.126319
0.107377
0.0900652
0.0745089
0.0607713
0.0488534
0.0386981
0.0301997
0.0232155
0.0175783
0.0131092
0.00962893
0.00696603
0.00496385
0.00348424
0.00240928
0.00164134
0.00110178
0.000728821
0.000475157
0.000305352
0.000193451
0.000120839
7.44352e-05
4.52213e-05
2.70998e-05
1.60218e-05
9.34636e-06
5.38051e-06
3.05715e-06
1.71469e-06
9.49487e-07
5.19148e-07
2.80318e-07
1.49495e-07
7.87583e-08
4.097e-08
2.11969e-08
9.97308e-09
9.97308e-09
1.00143
0.99857
0.991252
0.98188
0.971566
0.96086
0.950051
0.939311
0.928756
0.918467
0.908503
0.898898
0.889671
0.880827
0.87236
0.864261
0.856513
0.849099
0.842
0.835193
0.82865
0.822332
0.81619
0.810164
0.804181
0.798162
0.792019
0.785664
0.779009
0.771971
0.764477
0.756462
0.747872
0.738668
0.72882
0.718315
0.707149
0.695329
0.682874
0.669809
0.656166
0.641984
0.6273
0.612155
0.596585
0.580621
0.564284
0.547582
0.530505
0.513018
0.495064
0.476556
0.457383
0.437418
0.416533
0.394613
0.371584
0.347432
0.322224
0.296121
0.26938
0.242343
0.21542
0.189055
0.163696
0.139761
0.117602
0.0974881
0.0795909
0.0639805
0.0506327
0.0394427
0.0302432
0.022825
0.0169559
0.0123989
0.00892552
0.00632572
0.00441432
0.00303355
0.0020532
0.00136889
0.000899144
0.000581944
0.000371189
0.000233368
0.000144641
8.83922e-05
5.32701e-05
3.16642e-05
1.85669e-05
1.07416e-05
6.13224e-06
3.45511e-06
1.9216e-06
1.05509e-06
5.72003e-07
3.06253e-07
1.61854e-07
8.50776e-08
4.0621e-08
4.0621e-08
1.0456
0.954401
0.887723
0.838674
0.801641
0.772861
0.749886
0.731119
0.715499
0.702298
0.691001
0.681228
0.672693
0.665173
0.658493
0.652515
0.647126
0.642236
0.637773
0.633674
0.629891
0.626379
0.623099
0.620014
0.617089
0.614286
0.611566
0.608889
0.606213
0.603494
0.600688
0.59775
0.594637
0.591307
0.587721
0.583842
0.579638
0.575081
0.570146
0.564814
0.559071
0.552905
0.54631
0.539282
0.531822
0.523929
0.515602
0.506833
0.497604
0.48788
0.477598
0.466663
0.454941
0.442259
0.428414
0.413186
0.396368
0.377792
0.357363
0.335093
0.311116
0.2857
0.259235
0.232211
0.205183
0.178721
0.153374
0.129621
0.107844
0.0883094
0.0711588
0.0564173
0.0440082
0.0337746
0.0255033
0.0189486
0.013854
0.00996874
0.00706034
0.0049226
0.00337921
0.00228431
0.00152086
0.000997452
0.000644523
0.000410397
0.000257553
0.000159331
9.71815e-05
5.84507e-05
3.46731e-05
2.02893e-05
1.17134e-05
6.6729e-06
3.75171e-06
2.08207e-06
1.14072e-06
6.17121e-07
3.29494e-07
1.74981e-07
8.4361e-08
8.4361e-08
-0.0455988
0.0455988
0.112277
0.161327
0.198359
0.227139
0.250114
0.268881
0.284502
0.297702
0.308999
0.318772
0.327307
0.334827
0.341507
0.347485
0.352874
0.357764
0.362228
0.366327
0.37011
0.373618
0.376884