# vtk DataFile Version 3.0
FlowField
ASCII
DATASET STRUCTURED_GRID
DIMENSIONS 22 17 12 
POINTS 4488 double
0 0 0
0.1 0 0
0.2 0 0
0.3 0 0
0.4 0 0
0.5 0 0
0.6 0 0
0.7 0 0
0.8 0 0
0.9 0 0
1 0 0
1.1 0 0
1.2 0 0
1.3 0 0
1.4 0 0
1.5 0 0
1.6 0 0
1.7 0 0
1.8 0 0
1.9 0 0
2 0 0
2.1 0 0
0 0.1 0
0.1 0.1 0
0.2 0.1 0
0.3 0.1 0
0.4 0.1 0
0.5 0.1 0
0.6 0.1 0
0.7 0.1 0
0.8 0.1 0
0.9 0.1 0
1 0.1 0
1.1 0.1 0
1.2 0.1 0
1.3 0.1 0
1.4 0.1 0
1.5 0.1 0
1.6 0.1 0
1.7 0.1 0
1.8 0.1 0
1.9 0.1 0
2 0.1 0
2.1 0.1 0
0 0.2 0
0.1 0.2 0
0.2 0.2 0
0.3 0.2 0
0.4 0.2 0
0.5 0.2 0
0.6 0.2 0
0.7 0.2 0
0.8 0.2 0
0.9 0.2 0
1 0.2 0
1.1 0.2 0
1.2 0.2 0
1.3 0.2 0
1.4 0.2 0
1.5 0.2 0
1.6 0.2 0
1.7 0.2 0
1.8 0.2 0
1.9 0.2 0
2 0.2 0
2.1 0.2 0
0 0.3 0
0.1 0.3 0
0.2 0.3 0
0.3 0.3 0
0.4 0.3 0
0.5 0.3 0
0.6 0.3 0
0.7 0.3 0
0.8 0.3 0
0.9 0.3 0
1 0.3 0
1.1 0.3 0
1.2 0.3 0
1.3 0.3 0
1.4 0.3 0
1.5 0.3 0
1.6 0.3 0
1.7 0.3 0
1.8 0.3 0
1.9 0.3 0
2 0.3 0
2.1 0.3 0
0 0.4 0
0.1 0.4 0
0.2 0.4 0
0.3 0.4 0
0.4 0.4 0
0.5 0.4 0
0.6 0.4 0
0.7 0.4 0
0.8 0.4 0
0.9 0.4 0
1 0.4 0
1.1 0.4 0
1.2 0.4 0
1.3 0.4 0
1.4 0.4 0
1.5 0.4 0
1.6 0.4 0
1.7 0.4 0
1.8 0.4 0
1.9 0.4 0
2 0.4 0
2.1 0.4 0
0 0.5 0
0.1 0.5 0
0.2 0.5 0
0.3 0.5 0
0.4 0.5 0
0.5 0.5 0
0.6 0.5 0
0.7 0.5 0
0.8 0.5 0
0.9 0.5 0
1 0.5 0
1.1 0.5 0
1.2 0.5 0
1.3 0.5 0
1.4 0.5 0
1.5 0.5 0
1.6 0.5 0
1.7 0.5 0
1.8 0.5 0
1.9 0.5 0
2 0.5 0
2.1 0.5 0
0 0.6 0
0.1 0.6 0
0.2 0.6 0
0.3 0.6 0
0.4 0.6 0
0.5 0.6 0
0.6 0.6 0
0.7 0.6 0
0.8 0.6 0
0.9 0.6 0
1 0.6 0
1.1 0.6 0
1.2 0.6 0
1.3 0.6 0
1.4 0.6 0
1.5 0.6 0
1.6 0.6 0
1.7 0.6 0
1.8 0.6 0
1.9 0.6 0
2 0.6 0
2.1 0.6 0
0 0.7 0
0.1 0.7 0
0.2 0.7 0
0.3 0.7 0
0.4 0.7 0
0.5 0.7 0
0.6 0.7 0
0.7 0.7 0
0.8 0.7 0
0.9 0.7 0
1 0.7 0
1.1 0.7 0
1.2 0.7 0
1.3 0.7 0
1.4 0.7 0
1.5 0.7 0
1.6 0.7 0
1.7 0.7 0
1.8 0.7 0
1.9 0.7 0
2 0.7 0
2.1 0.7 0
0 0.8 0
0.1 0.8 0
0.2 0.8 0
0.3 0.8 0
0.4 0.8 0
0.5 0.8 0
0.6 0.8 0
0.7 0.8 0
0.8 0.8 0
0.9 0.8 0
1 0.8 0
1.1 0.8 0
1.2 0.8 0
1.3 0.8 0
1.4 0.8 0
1.5 0.8 0
1.6 0.8 0
1.7 0.8 0
1.8 0.8 0
1.9 0.8 0
2 0.8 0
2.1 0.8 0
0 0.9 0
0.1 0.9 0
0.2 0.9 0
0.3 0.9 0
0.4 0.9 0
0.5 0.9 0
0.6 0.9 0
0.7 0.9 0
0.8 0.9 0
0.9 0.9 0
1 0.9 0
1.1 0.9 0
1.2 0.9 0
1.3 0.9 0
1.4 0.9 0
1.5 0.9 0
1.6 0.9 0
1.7 0.9 0
1.8 0.9 0
1.9 0.9 0
2 0.9 0
2.1 0.9 0
0 1 0
0.1 1 0
0.2 1 0
0.3 1 0
0.4 1 0
0.5 1 0
0.6 1 0
0.7 1 0
0.8 1 0
0.9 1 0
1 1 0
1.1 1 0
1.2 1 0
1.3 1 0
1.4 1 0
1.5 1 0
1.6 1 0
1.7 1 0
1.8 1 0
1.9 1 0
2 1 0
2.1 1 0
0 1.1 0
0.1 1.1 0
0.2 1.1 0
0.3 1.1 0
0.4 1.1 0
0.5 1.1 0
0.6 1.1 0
0.7 1.1 0
0.8 1.1 0
0.9 1.1 0
1 1.1 0
1.1 1.1 0
1.2 1.1 0
1.3 1.1 0
1.4 1.1 0
1.5 1.1 0
1.6 1.1 0
1.7 1.1 0
1.8 1.1 0
1.9 1.1 0
2 1.1 0
2.1 1.1 0
0 1.2 0
0.1 1.2 0
0.2 1.2 0
0.3 1.2 0
0.4 1.2 0
0.5 1.2 0
0.6 1.2 0
0.7 1.2 0
0.8 1.2 0
0.9 1.2 0
1 1.2 0
1.1 1.2 0
1.2 1.2 0
1.3 1.2 0
1.4 1.2 0
1.5 1.2 0
1.6 1.2 0
1.7 1.2 0
1.8 1.2 0
1.9 1.2 0
2 1.2 0
2.1 1.2 0
0 1.3 0
0.1 1.3 0
0.2 1.3 0
0.3 1.3 0
0.4 1.3 0
0.5 1.3 0
0.6 1.3 0
0.7 1.3 0
0.8 1.3 0
0.9 1.3 0
1 1.3 0
1.1 1.3 0
1.2 1.3 0
1.3 1.3 0
1.4 1.3 0
1.5 1.3 0
1.6 1.3 0
1.7 1.3 0
1.8 1.3 0
1.9 1.3 0
2 1.3 0
2.1 1.3 0
0 1.4 0
0.1 1.4 0
0.2 1.4 0
0.3 1.4 0
0.4 1.4 0
0.5 1.4 0
0.6 1.4 0
0.7 1.4 0
0.8 1.4 0
0.9 1.4 0
1 1.4 0
1.1 1.4 0
1.2 1.4 0
1.3 1.4 0
1.4 1.4 0
1.5 1.4 0
1.6 1.4 0
1.7 1.4 0
1.8 1.4 0
1.9 1.4 0
2 1.4 0
2.1 1.4 0
0 1.5 0
0.1 1.5 0
0.2 1.5 0
0.3 1.5 0
0.4 1.5 0
0.5 1.5 0
0.6 1.5 0
0.7 1.5 0
0.8 1.5 0
0.9 1.5 0
1 1.5 0
1.1 1.5 0
1.2 1.5 0
1.3 1.5 0
1.4 1.5 0
1.5 1.5 0
1.6 1.5 0
1.7 1.5 0
1.8 1.5 0
1.9 1.5 0
2 1.5 0
2.1 1.5 0
0 1.6 0
0.1 1.6 0
0.2 1.6 0
0.3 1.6 0
0.4 1.6 0
0.5 1.6 0
0.6 1.6 0
0.7 1.6 0
0.8 1.6 0
0.9 1.6 0
1 1.6 0
1.1 1.6 0
1.2 1.6 0
1.3 1.6 0
1.4 1.6 0
1.5 1.6 0
1.6 1.6 0
1.7 1.6 0
1.8 1.6 0
1.9 1.6 0
2 1.6 0
2.1 1.6 0
0 0 0.1
0.1 0 0.1
0.2 0 0.1
0.3 0 0.1
0.4 0 0.1
0.5 0 0.1
0.6 0 0.1
0.7 0 0.1
0.8 0 0.1
0.9 0 0.1
1 0 0.1
1.1 0 0.1
1.2 0 0.1
1.3 0 0.1
1.4 0 0.1
1.5 0 0.1
1.6 0 0.1
1.7 0 0.1
1.8 0 0.1
1.9 0 0.1
2 0 0.1
2.1 0 0.1
0 0.1 0.1
0.1 0.1 0.1
0.2 0.1 0.1
0.3 0.1 0.1
0.4 0.1 0.1
0.5 0.1 0.1
0.6 0.1 0.1
0.7 0.1 0.1
0.8 0.1 0.1
0.9 0.1 0.1
1 0.1 0.1
1.1 0.1 0.1
1.2 0.1 0.1
1.3 0.1 0.1
1.4 0.1 0.1
1.5 0.1 0.1
1.6 0.1 0.1
1.7 0.1 0.1
1.8 0.1 0.1
1.9 0.1 0.1
2 0.1 0.1
2.1 0.1 0.1
0 0.2 0.1
0.1 0.2 0.1
0.2 0.2 0.1
0.3 0.2 0.1
0.4 0.2 0.1
0.5 0.2 0.1
0.6 0.2 0.1
0.7 0.2 0.1
0.8 0.2 0.1
0.9 0.2 0.1
1 0.2 0.1
1.1 0.2 0.1
1.2 0.2 0.1
1.3 0.2 0.1
1.4 0.2 0.1
1.5 0.2 0.1
1.6 0.2 0.1
1.7 0.2 0.1
1.8 0.2 0.1
1.9 0.2 0.1
2 0.2 0.1
2.1 0.2 0.1
0 0.3 0.1
0.1 0.3 0.1
0.2 0.3 0.1
0.3 0.3 0.1
0.4 0.3 0.1
0.5 0.3 0.1
0.6 0.3 0.1
0.7 0.3 0.1
0.8 0.3 0.1
0.9 0.3 0.1
1 0.3 0.1
1.1 0.3 0.1
1.2 0.3 0.1
1.3 0.3 0.1
1.4 0.3 0.1
1.5 0.3 0.1
1.6 0.3 0.1
1.7 0.3 0.1
1.8 0.3 0.1
1.9 0.3 0.1
2 0.3 0.1
2.1 0.3 0.1
0 0.4 0.1
0.1 0.4 0.1
0.2 0.4 0.1
0.3 0.4 0.1
0.4 0.4 0.1
0.5 0.4 0.1
0.6 0.4 0.1
0.7 0.4 0.1
0.8 0.4 0.1
0.9 0.4 0.1
1 0.4 0.1
1.1 0.4 0.1
1.2 0.4 0.1
1.3 0.4 0.1
1.4 0.4 0.1
1.5 0.4 0.1
1.6 0.4 0.1
1.7 0.4 0.1
1.8 0.4 0.1
1.9 0.4 0.1
2 0.4 0.1
2.1 0.4 0.1
0 0.5 0.1
0.1 0.5 0.1
0.2 0.5 0.1
0.3 0.5 0.1
0.4 0.5 0.1
0.5 0.5 0.1
0.6 0.5 0.1
0.7 0.5 0.1
0.8 0.5 0.1
0.9 0.5 0.1
1 0.5 0.1
1.1 0.5 0.1
1.2 0.5 0.1
1.3 0.5 0.1
1.4 0.5 0.1
1.5 0.5 0.1
1.6 0.5 0.1
1.7 0.5 0.1
1.8 0.5 0.1
1.9 0.5 0.1
2 0.5 0.1
2.1 0.5 0.1
0 0.6 0.1
0.1 0.6 0.1
0.2 0.6 0.1
0.3 0.6 0.1
0.4 0.6 0.1
0.5 0.6 0.1
0.6 0.6 0.1
0.7 0.6 0.1
0.8 0.6 0.1
0.9 0.6 0.1
1 0.6 0.1
1.1 0.6 0.1
1.2 0.6 0.1
1.3 0.6 0.1
1.4 0.6 0.1
1.5 0.6 0.1
1.6 0.6 0.1
1.7 0.6 0.1
1.8 0.6 0.1
1.9 0.6 0.1
2 0.6 0.1
2.1 0.6 0.1
0 0.7 0.1
0.1 0.7 0.1
0.2 0.7 0.1
0.3 0.7 0.1
0.4 0.7 0.1
0.5 0.7 0.1
0.6 0.7 0.1
0.7 0.7 0.1
0.8 0.7 0.1
0.9 0.7 0.1
1 0.7 0.1
1.1 0.7 0.1
1.2 0.7 0.1
1.3 0.7 0.1
1.4 0.7 0.1
1.5 0.7 0.1
1.6 0.7 0.1
1.7 0.7 0.1
1.8 0.7 0.1
1.9 0.7 0.1
2 0.7 0.1
2.1 0.7 0.1
0 0.8 0.1
0.1 0.8 0.1
0.2 0.8 0.1
0.3 0.8 0.1
0.4 0.8 0.1
0.5 0.8 0.1
0.6 0.8 0.1
0.7 0.8 0.1
0.8 0.8 0.1
0.9 0.8 0.1
1 0.8 0.1
1.1 0.8 0.1
1.2 0.8 0.1
1.3 0.8 0.1
1.4 0.8 0.1
1.5 0.8 0.1
1.6 0.8 0.1
1.7 0.8 0.1
1.8 0.8 0.1
1.9 0.8 0.1
2 0.8 0.1
2.1 0.8 0.1
0 0.9 0.1
0.1 0.9 0.1
0.2 0.9 0.1
0.3 0.9 0.1
0.4 0.9 0.1
0.5 0.9 0.1
0.6 0.9 0.1
0.7 0.9 0.1
0.8 0.9 0.1
0.9 0.9 0.1
1 0.9 0.1
1.1 0.9 0.1
1.2 0.9 0.1
1.3 0.9 0.1
1.4 0.9 0.1
1.5 0.9 0.1
1.6 0.9 0.1
1.7 0.9 0.1
1.8 0.9 0.1
1.9 0.9 0.1
2 0.9 0.1
2.1 0.9 0.1
0 1 0.1
0.1 1 0.1
0.2 1 0.1
0.3 1 0.1
0.4 1 0.1
0.5 1 0.1
0.6 1 0.1
0.7 1 0.1
0.8 1 0.1
0.9 1 0.1
1 1 0.1
1.1 1 0.1
1.2 1 0.1
1.3 1 0.1
1.4 1 0.1
1.5 1 0.1
1.6 1 0.1
1.7 1 0.1
1.8 1 0.1
1.9 1 0.1
2 1 0.1
2.1 1 0.1
0 1.1 0.1
0.1 1.1 0.1
0.2 1.1 0.1
0.3 1.1 0.1
0.4 1.1 0.1
0.5 1.1 0.1
0.6 1.1 0.1
0.7 1.1 0.1
0.8 1.1 0.1
0.9 1.1 0.1
1 1.1 0.1
1.1 1.1 0.1
1.2 1.1 0.1
1.3 1.1 0.1
1.4 1.1 0.1
1.5 1.1 0.1
1.6 1.1 0.1
1.7 1.1 0.1
1.8 1.1 0.1
1.9 1.1 0.1
2 1.1 0.1
2.1 1.1 0.1
0 1.2 0.1
0.1 1.2 0.1
0.2 1.2 0.1
0.3 1.2 0.1
0.4 1.2 0.1
0.5 1.2 0.1
0.6 1.2 0.1
0.7 1.2 0.1
0.8 1.2 0.1
0.9 1.2 0.1
1 1.2 0.1
1.1 1.2 0.1
1.2 1.2 0.1
1.3 1.2 0.1
1.4 1.2 0.1
1.5 1.2 0.1
1.6 1.2 0.1
1.7 1.2 0.1
1.8 1.2 0.1
1.9 1.2 0.1
2 1.2 0.1
2.1 1.2 0.1
0 1.3 0.1
0.1 1.3 0.1
0.2 1.3 0.1
0.3 1.3 0.1
0.4 1.3 0.1
0.5 1.3 0.1
0.6 1.3 0.1
0.7 1.3 0.1
0.8 1.3 0.1
0.9 1.3 0.1
1 1.3 0.1
1.1 1.3 0.1
1.2 1.3 0.1
1.3 1.3 0.1
1.4 1.3 0.1
1.5 1.3 0.1
1.6 1.3 0.1
1.7 1.3 0.1
1.8 1.3 0.1
1.9 1.3 0.1
2 1.3 0.1
2.1 1.3 0.1
0 1.4 0.1
0.1 1.4 0.1
0.2 1.4 0.1
0.3 1.4 0.1
0.4 1.4 0.1
0.5 1.4 0.1
0.6 1.4 0.1
0.7 1.4 0.1
0.8 1.4 0.1
0.9 1.4 0.1
1 1.4 0.1
1.1 1.4 0.1
1.2 1.4 0.1
1.3 1.4 0.1
1.4 1.4 0.1
1.5 1.4 0.1
1.6 1.4 0.1
1.7 1.4 0.1
1.8 1.4 0.1
1.9 1.4 0.1
2 1.4 0.1
2.1 1.4 0.1
0 1.5 0.1
0.1 1.5 0.1
0.2 1.5 0.1
0.3 1.5 0.1
0.4 1.5 0.1
0.5 1.5 0.1
0.6 1.5 0.1
0.7 1.5 0.1
0.8 1.5 0.1
0.9 1.5 0.1
1 1.5 0.1
1.1 1.5 0.1
1.2 1.5 0.1
1.3 1.5 0.1
1.4 1.5 0.1
1.5 1.5 0.1
1.6 1.5 0.1
1.7 1.5 0.1
1.8 1.5 0.1
1.9 1.5 0.1
2 1.5 0.1
2.1 1.5 0.1
0 1.6 0.1
0.1 1.6 0.1
0.2 1.6 0.1
0.3 1.6 0.1
0.4 1.6 0.1
0.5 1.6 0.1
0.6 1.6 0.1
0.7 1.6 0.1
0.8 1.6 0.1
0.9 1.6 0.1
1 1.6 0.1
1.1 1.6 0.1
1.2 1.6 0.1
1.3 1.6 0.1
1.4 1.6 0.1
1.5 1.6 0.1
1.6 1.6 0.1
1.7 1.6 0.1
1.8 1.6 0.1
1.9 1.6 0.1
2 1.6 0.1
2.1 1.6 0.1
0 0 0.2
0.1 0 0.2
0.2 0 0.2
0.3 0 0.2
0.4 0 0.2
0.5 0 0.2
0.6 0 0.2
0.7 0 0.2
0.8 0 0.2
0.9 0 0.2
1 0 0.2
1.1 0 0.2
1.2 0 0.2
1.3 0 0.2
1.4 0 0.2
1.5 0 0.2
1.6 0 0.2
1.7 0 0.2
1.8 0 0.2
1.9 0 0.2
2 0 0.2
2.1 0 0.2
0 0.1 0.2
0.1 0.1 0.2
0.2 0.1 0.2
0.3 0.1 0.2
0.4 0.1 0.2
0.5 0.1 0.2
0.6 0.1 0.2
0.7 0.1 0.2
0.8 0.1 0.2
0.9 0.1 0.2
1 0.1 0.2
1.1 0.1 0.2
1.2 0.1 0.2
1.3 0.1 0.2
1.4 0.1 0.2
1.5 0.1 0.2
1.6 0.1 0.2
1.7 0.1 0.2
1.8 0.1 0.2
1.9 0.1 0.2
2 0.1 0.2
2.1 0.1 0.2
0 0.2 0.2
0.1 0.2 0.2
0.2 0.2 0.2
0.3 0.2 0.2
0.4 0.2 0.2
0.5 0.2 0.2
0.6 0.2 0.2
0.7 0.2 0.2
0.8 0.2 0.2
0.9 0.2 0.2
1 0.2 0.2
1.1 0.2 0.2
1.2 0.2 0.2
1.3 0.2 0.2
1.4 0.2 0.2
1.5 0.2 0.2
1.6 0.2 0.2
1.7 0.2 0.2
1.8 0.2 0.2
1.9 0.2 0.2
2 0.2 0.2
2.1 0.2 0.2
0 0.3 0.2
0.1 0.3 0.2
0.2 0.3 0.2
0.3 0.3 0.2
0.4 0.3 0.2
0.5 0.3 0.2
0.6 0.3 0.2
0.7 0.3 0.2
0.8 0.3 0.2
0.9 0.3 0.2
1 0.3 0.2
1.1 0.3 0.2
1.2 0.3 0.2
1.3 0.3 0.2
1.4 0.3 0.2
1.5 0.3 0.2
1.6 0.3 0.2
1.7 0.3 0.2
1.8 0.3 0.2
1.9 0.3 0.2
2 0.3 0.2
2.1 0.3 0.2
0 0.4 0.2
0.1 0.4 0.2
0.2 0.4 0.2
0.3 0.4 0.2
0.4 0.4 0.2
0.5 0.4 0.2
0.6 0.4 0.2
0.7 0.4 0.2
0.8 0.4 0.2
0.9 0.4 0.2
1 0.4 0.2
1.1 0.4 0.2
1.2 0.4 0.2
1.3 0.4 0.2
1.4 0.4 0.2
1.5 0.4 0.2
1.6 0.4 0.2
1.7 0.4 0.2
1.8 0.4 0.2
1.9 0.4 0.2
2 0.4 0.2
2.1 0.4 0.2
0 0.5 0.2
0.1 0.5 0.2
0.2 0.5 0.2
0.3 0.5 0.2
0.4 0.5 0.2
0.5 0.5 0.2
0.6 0.5 0.2
0.7 0.5 0.2
0.8 0.5 0.2
0.9 0.5 0.2
1 0.5 0.2
1.1 0.5 0.2
1.2 0.5 0.2
1.3 0.5 0.2
1.4 0.5 0.2
1.5 0.5 0.2
1.6 0.5 0.2
1.7 0.5 0.2
1.8 0.5 0.2
1.9 0.5 0.2
2 0.5 0.2
2.1 0.5 0.2
0 0.6 0.2
0.1 0.6 0.2
0.2 0.6 0.2
0.3 0.6 0.2
0.4 0.6 0.2
0.5 0.6 0.2
0.6 0.6 0.2
0.7 0.6 0.2
0.8 0.6 0.2
0.9 0.6 0.2
1 0.6 0.2
1.1 0.6 0.2
1.2 0.6 0.2
1.3 0.6 0.2
1.4 0.6 0.2
1.5 0.6 0.2
1.6 0.6 0.2
1.7 0.6 0.2
1.8 0.6 0.2
1.9 0.6 0.2
2 0.6 0.2
2.1 0.6 0.2
0 0.7 0.2
0.1 0.7 0.2
0.2 0.7 0.2
0.3 0.7 0.2
0.4 0.7 0.2
0.5 0.7 0.2
0.6 0.7 0.2
0.7 0.7 0.2
0.8 0.7 0.2
0.9 0.7 0.2
1 0.7 0.2
1.1 0.7 0.2
1.2 0.7 0.2
1.3 0.7 0.2
1.4 0.7 0.2
1.5 0.7 0.2
1.6 0.7 0.2
1.7 0.7 0.2
1.8 0.7 0.2
1.9 0.7 0.2
2 0.7 0.2
2.1 0.7 0.2
0 0.8 0.2
0.1 0.8 0.2
[...]
POINT_DATA 4488

SCALARS pressure double
LOOKUP_TABLE pressure
0
0
0
0
0
0
0
0
0
0
0
0
0
0
0
0
0
0
0
0
0
0
0
39.1164
39.1109
39.1073
39.1043
39.1022
39.1002
39.0976
39.0944
39.0933
39.0985
39.0974
39.0971
39.097
39.0968
39.0963
39.0956
39.0944
39.0937
39.0935
39.0922
0
0
39.1106
39.109
39.1068
39.1043
39.1025
39.1009
39.0985
39.0948
39.0949
39.0965
39.0968
39.0969
39.0969
39.0968
39.0966
39.0959
39.0952
39.0945
39.0939
39.0934
0
0
39.1075
39.107
39.1057
39.1043
39.103
39.1011
39.098
39.0962
39.0957
39.0961
39.0966
39.0968
39.0969
39.0969
39.0969
39.0966
39.0963
39.0955
39.095
39.0947
0
0
39.1057
39.1056
39.1049
39.104
39.1038
39.1026
39.096
39.0963
39.096
39.0957
39.0968
39.0968
39.0968
39.097
39.0973
39.0974
39.097
39.0964
39.0959
39.0959
0
0
39.1045
39.1045
39.1041
39.1034
39.1029
39.1009
39.0985
39.0975
39.0967
39.0967
39.0971
39.0969
39.0966
39.0969
39.0978
39.0981
39.0977
39.097
39.0965
39.0968
0
0
39.1036
39.1037
39.1035
39.1029
39.1022
39.1011
39.0998
39.0987
39.0971
39.0971
39.0974
39.097
39.0964
39.0968
39.0983
39.0988
39.0981
39.097
39.0969
39.0977
0
0
39.1029
39.1031
39.103
39.1026
39.1018
39.1011
39.1004
39.1004
39.0967
39.0973
39.0974
39.0974
39.0975
39.0978
39.0985
39.0984
39.0974
39.0973
39.0985
39.0983
0
0
39.1024
39.1027
39.1027
39.1025
39.1014
39.101
39.1004
39.0999
39.0986
39.0982
39.0982
39.0984
39.0987
39.0987
39.0986
39.0982
39.0981
39.0986
39.0995
39.0994
0
0
39.1018
39.1024
39.1025
39.1022
39.1015
39.101
39.1007
39.1003
39.0997
39.0993
39.0992
39.0993
39.0994
39.0993
39.0991
39.0989
39.099
39.0994
39.1001
39.1
0
0
39.1005
39.1026
39.1025
39.1023
39.1012
39.1009
39.1011
39.1009
39.1005
39.1002
39.1
39.1001
39.1001
39.1001
39.0999
39.0998
39.0999
39.1001
39.1005
39.1004
0
0
39.1014
39.1021
39.1024
39.1026
39.1033
39.102
39.1017
39.1015
39.1012
39.101
39.1008
39.1008
39.1007
39.101
39.1011
39.1008
39.1008
39.1006
39.1008
39.1007
0
0
39.1015
39.102
39.1023
39.1025
39.1026
39.1022
39.102
39.1018
39.1016
39.1015
39.1015
39.1015
39.1015
39.1015
39.1016
39.1017
39.1018
39.1006
39.1009
39.101
0
0
39.1016
39.1019
39.1021
39.1023
39.1023
39.1022
39.1021
39.1019
39.1019
39.102
39.1021
39.1022
39.1022
39.1022
39.1023
39.1027
39.1042
39.0993
39.1007
39.1015
0
0
39.1016
39.1019
39.102
39.1021
39.1022
39.1022
39.1021
39.1019
39.102
39.1023
39.1028
39.103
39.1029
39.1027
39.1027
39.1028
39.1028
39.1016
39.1018
39.1019
0
0
39.1017
39.1018
39.1019
39.102
39.1021
39.1022
39.1021
39.1017
39.1019
39.1025
39.1034
39.1039
39.1038
39.1035
39.1032
39.1029
39.1027
39.1025
39.1025
39.1026
0
0
0
0
0
0
0
0
0
0
0
0
0
0
0
0
0
0
0
0
0
0
0
0
39.1164
39.1109
39.1073
39.1043
39.1022
39.1002
39.0976
39.0944
39.0933
39.0985
39.0974
39.0971
39.097
39.0968
39.0963
39.0956
39.0944
39.0937
39.0935
39.0922
0
39.1164
39.1164
39.1109
39.1073
39.1043
39.1022
39.1002
39.0976
39.0944
39.0933
39.0985
39.0974
39.0971
39.097
39.0968
39.0963
39.0956
39.0944
39.0937
39.0935
39.0922
39.0922
39.1106
39.1106
39.109
39.1068
39.1043
39.1025
39.1009
39.0985
39.0948
39.0949
39.0965
39.0968
39.0969
39.0969
39.0968
39.0966
39.0959
39.0952
39.0945
39.0939
39.0934
39.0934
39.1075
39.1075
39.107
39.1057
39.1043
39.103
39.1011
39.098
39.0962
39.0957
39.0961
39.0966
39.0968
39.0969
39.0969
39.0969
39.0966
39.0963
39.0955
39.095
39.0947
39.0947
39.1057
39.1057
39.1056
39.1049
39.104
39.1038
39.1026
39.096
39.0963
39.096
39.0957
39.0968
39.0968
39.0968
39.097
39.0973
39.0974
39.097
39.0964
39.0959
39.0959
39.0959
39.1045
39.1045
39.1045
39.1041
39.1034
39.1029
39.1009
39.0985
39.0975
39.0967
39.0967
39.0971
39.0969
39.0966
39.0969
39.0978
39.0981
39.0977
39.097
39.0965
39.0968
39.0968
39.1036
39.1036
39.1037
39.1035
39.1029
39.1022
39.1011
39.0998
39.0987
39.0971
39.0971
39.0974
39.097
39.0964
39.0968
39.0983
39.0988
39.0981
39.097
39.0969
39.0977
39.0977
39.1029
39.1029
39.1031
39.103
39.1026
39.1018
39.1011
39.1004
39.1004
39.0967
39.0973
39.0974
39.0974
39.0975
39.0978
39.0985
39.0984
39.0974
39.0973
39.0985
39.0983
39.0983
39.1024
39.1024
39.1027
39.1027
39.1025
39.1014
39.101
39.1004
39.0999
39.0986
39.0982
39.0982
39.0984
39.0987
39.0987
39.0986
39.0982
39.0981
39.0986
39.0995
39.0994
39.0994
39.1018
39.1018
39.1024
39.1025
39.1022
39.1015
39.101
39.1007
39.1003
39.0997
39.0993
39.0992
39.0993
39.0994
39.0993
39.0991
39.0989
39.099
39.0994
39.1001
39.1
39.1
39.1005
39.1005
39.1026
39.1025
39.1023
39.1012
39.1009
39.1011
39.1009
39.1005
39.1002
39.1
39.1001
39.1001
39.1001
39.0999
39.0998
39.0999
39.1001
39.1005
39.1004
39.1004
39.1014
39.1014
39.1021
39.1024
39.1026
39.1033
39.102
39.1017
39.1015
39.1012
39.101
39.1008
39.1008
39.1007
39.101
39.1011
39.1008
39.1008
39.1006
39.1008
39.1007
39.1007
39.1015
39.1015
39.102
39.1023
39.1025
39.1026
39.1022
39.102
39.1018
39.1016
39.1015
39.1015
39.1015
39.1015
39.1015
39.1016
39.1017
39.1018
39.1006
39.1009
39.101
39.101
39.1016
39.1016
39.1019
39.1021
39.1023
39.1023
39.1022
39.1021
39.1019
39.1019
39.102
39.1021
39.1022
39.1022
39.1022
39.1023
39.1027
39.1042
39.0993
39.1007
39.1015
39.1015
39.1016
39.1016
39.1019
39.102
39.1021
39.1022
39.1022
39.1021
39.1019
39.102
39.1023
39.1028
39.103
39.1029
39.1027
39.1027
39.1028
39.1028
39.1016
39.1018
39.1019
39.1019
39.1017
39.1017
39.1018
39.1019
39.102
39.1021
39.1022
39.1021
39.1017
39.1019
39.1025
39.1034
39.1039
39.1038
39.1035
39.1032
39.1029
39.1027
39.1025
39.1025
39.1026
39.1026
0
39.1017
39.1018
39.1019
39.102
39.1021
39.1022
39.1021
39.1017
39.1019
39.1025
39.1034
39.1039
39.1038
39.1035
39.1032
39.1029
39.1027
39.1025
39.1025
39.1026
0
0
39.1201
39.1145
39.1104
39.1054
39.0976
39.0932
39.0927
39.0935
39.0949
39.0969
39.0974
39.0976
39.0975
39.0972
39.0968
39.096
39.0951
39.0942
39.0929
39.092
0
39.1201
39.1201
39.1145
39.1104
39.1054
39.0976
39.0932
39.0927
39.0935
39.0949
39.0969
39.0974
39.0976
39.0975
39.0972
39.0968
39.096
39.0951
39.0942
39.0929
39.092
39.092
39.114
39.114
39.1123
39.1098
39.106
39.1003
39.095
39.0933
39.0933
39.0945
39.0961
39.097
39.0974
39.0974
39.0972
39.0969
39.0963
39.0956
39.0948
39.094
39.0935
39.0935
39.1105
39.1105
39.11
39.1085
39.1061
39.1023
39.0973
39.0942
39.0937
39.0945
39.0957
39.0966
39.0971
39.0972
39.0972
39.0971
39.0968
39.0963
39.0957
39.0952
39.095
39.095
39.1083
39.1083
39.1081
39.1073
39.1057
39.1031
39.0991
39.0952
39.0943
39.0946
39.0954
39.0963
39.0968
39.097
39.0972
39.0973
39.0972
39.097
39.0966
39.0963
39.0962
39.0962
39.1067
39.1067
39.1067
39.1063
39.1053
39.1036
39.1007
39.0976
39.096
39.0955
39.0957
39.0962
39.0966
39.0969
39.0972
39.0976
39.0977
39.0975
39.0972
39.0971
39.0971
39.0971
39.1055
39.1055
39.1056
39.1054
39.1049
39.1039
39.102
39.0995
39.0975
39.0962
39.096
39.0964
39.0968
39.097
39.0974
39.0979
39.0981
39.0979
39.0977
39.0977
39.0979
39.0979
39.1045
39.1045
39.1047
39.1046
39.1043
39.1035
39.1021
39.1002
39.0985
39.0969
39.0968
39.097
39.0974
39.0977
39.098
39.0983
39.0983
39.0981
39.0982
39.0986
39.0987
39.0987
39.1037
39.1037
39.104
39.104
39.1037
39.103
39.1021
39.1009
39.0998
39.0988
39.0983
39.0982
39.0984
39.0986
39.0987
39.0988
39.0987
39.0988
39.0991
39.0995
39.0994
39.0994
39.1031
39.1031
39.1034
39.1034
39.1033
39.1028
39.1023
39.1018
39.1012
39.1004
39.0998
39.0995
39.0994
39.0994
39.0995
39.0994
39.0994
39.0995
39.0997
39.1001
39.1
39.1
39.1025
39.1025
39.103
39.1031
39.1031
39.1027
39.1025
39.1023
39.1019
39.1014
39.1008
39.1005
39.1003
39.1002
39.1002
39.1002
39.1001
39.1002
39.1003
39.1005
39.1006
39.1006
39.1023
39.1023
39.1027
39.1029
39.103
39.103
39.1027
39.1025
39.1022
39.1019
39.1015
39.1012
39.101
39.1009
39.101
39.101
39.1009
39.1009
39.1008
39.101
39.101
39.101
39.1022
39.1022
39.1025
39.1027
39.1028
39.1028
39.1027
39.1025
39.1023
39.1021
39.1019
39.1018
39.1017
39.1016
39.1016
39.1016
39.1016
39.1016
39.1012
39.1013
39.1013
39.1013
39.1021
39.1021
39.1023
39.1025
39.1026
39.1026
39.1026
39.1025
39.1024
39.1023
39.1023
39.1023
39.1023
39.1022
39.1022
39.1022
39.1023
39.1024
39.1014
39.1016
39.1017
39.1017
39.102
39.102
39.1022
39.1023
39.1024
39.1025
39.1024
39.1024
39.1023
39.1024
39.1025
39.1027
39.1029
39.1028
39.1028
39.1027
39.1027
39.1026
39.1022
39.1022
39.1023
39.1023
39.102
39.102
39.1022
39.1022
39.1023
39.1023
39.1023
39.1023
39.1022
39.1024
39.1027
39.1032
39.1035
39.1035
39.1033
39.1031
39.103
39.1028
39.1028
39.1028
39.1028
39.1028
0
39.102
39.1022
39.1022
39.1023
39.1023
39.1023
39.1023
39.1022
39.1024
39.1027
39.1032
39.1035
39.1035
39.1033
39.1031
39.103
39.1028
39.1028
39.1028
39.1028
0
0
39.124
39.1188
39.1153
39.1077
39.0863
39.0794
39.0852
39.0915
39.0953
39.0974
39.0982
39.0984
39.0983
39.0978
39.0972
39.0965
39.0956
39.0945
39.0929
39.0921
0
39.124
39.124
39.1188
39.1153
39.1077
39.0863
39.0794
39.0852
39.0915
39.0953
39.0974
39.0982
39.0984
39.0983
39.0978
39.0972
39.0965
39.0956
39.0945
39.0929
39.0921
39.0921
39.1176
39.1176
39.1162
39.1142
39.1094
39.097
39.0844
39.0851
39.0897
39.0936
39.0962
39.0975
39.0981
39.0981
39.0978
39.0973
39.0967
39.0959
39.0951
39.0941
39.0936
39.0936
39.1136
39.1136
39.1132
39.1122
39.1098
39.1034
39.0917
39.0874
39.0892
39.0925
39.0951
39.0967
39.0974
39.0976
39.0976
39.0973
39.097
39.0965
39.0959
39.0955
39.0952
39.0952
39.1108
39.1108
39.1108
39.1102
39.1086
39.104
39.0953
39.0895
39.0896
39.0921
39.0943
39.0958
39.0967
39.0972
39.0974
39.0974
39.0973
39.097
39.0967
39.0965
39.0964
39.0964
39.1088
39.1088
39.1089
39.1088
39.1081
39.1056
39.1004
39.0954
39.0934
39.0934
39.0941
39.0952
39.0962
39.0969
39.0973
39.0976
39.0977
39.0976
39.0974
39.0974
39.0973
39.0973
39.1073
39.1073
39.1075
39.1077
39.1077
39.107
39.1045
39.0998
39.096
39.0941
39.094
39.095
39.0962
39.097
39.0976
39.0979
39.0981
39.0981
39.098
39.0981
39.0982
39.0982
39.106
39.106
39.1063
39.1064
39.1064
39.1057
39.1036
39.0998
39.0962
39.0946
39.095
39.096
39.0969
39.0976
39.0981
39.0984
39.0985
39.0985
39.0986
39.0988
39.0989
39.0989
39.1049
39.1049
39.1052
39.1053
39.1052
39.1046
39.1032
39.1011
39.0992
39.0984
39.098
39.098
39.0982
39.0986
39.0988
39.099
39.0991
39.0992
39.0993
39.0996
39.0996
39.0996
39.1041
39.1041
39.1044
39.1045
39.1044
39.1042
39.1037
39.1033
39.1027
39.1016
39.1004
39.0998
39.0995
39.0995
39.0996
39.0996
39.0997
39.0998
39.1
39.1002
39.1002
39.1002
39.1035
39.1035
39.1037
39.1039
39.1039
39.1039
39.1038
39.1038
39.1035
39.1026
39.1016
39.1009
39.1005
39.1004
39.1004
39.1003
39.1004
39.1004
39.1005
39.1007
39.1007
39.1007
39.103
39.103
39.1033
39.1035
39.1036
39.1036
39.1036
39.1035
39.1033
39.1027
39.1021
39.1016
39.1013
39.1011
39.1011
39.101
39.101
39.101
39.1011
39.1012
39.1012
39.1012
39.1027
39.1027
39.103
39.1031
39.1032
39.1033
39.1033
39.1032
39.103
39.1027
39.1024
39.1021
39.1019
39.1017
39.1017
39.1016
39.1016
39.1016
39.1016
39.1016
39.1017
39.1017
39.1025
39.1025
39.1027
39.1029
39.1029
39.103
39.103
39.103
39.1029
39.1027
39.1026
39.1025
39.1024
39.1023
39.1022
39.1022
39.1022
39.1022
39.102
39.1021
39.1021
39.1021
39.1024
39.1024
39.1026
39.1026
39.1027
39.1028
39.1028
39.1028
39.1027
39.1027
39.1027
39.1028
39.1028
39.1028
39.1027
39.1027
39.1026
39.1026
39.1025
39.1026
39.1026
39.1026
39.1024
39.1024
39.1024
39.1025
39.1025
39.1026
39.1026
39.1026
39.1026
39.1027
39.1029
39.1031
39.1033
39.1033
39.1032
39.1031
39.103
39.103
39.103
39.103
39.1031
39.1031
0
39.1024
39.1024
39.1025
39.1025
39.1026
39.1026
39.1026
39.1026
39.1027
39.1029
39.1031
39.1033
39.1033
39.1032
39.1031
39.103
39.103
39.103
39.103
39.1031
0
0
39.1279
39.1241
39.1242
39.118
39.0489
39.0459
39.075
39.0917
39.0976
39.0993
39.0998
39.0996
39.0991
39.0984
39.0977
39.0968
39.0959
39.0947
39.0931
39.0922
0
39.1279
39.1279
39.1241
39.1242
39.118
39.0489
39.0459
39.075
39.0917
39.0976
39.0993
39.0998
39.0996
39.0991
39.0984
39.0977
39.0968
39.0959
39.0947
39.0931
39.0922
39.0922
39.1209
39.1209
39.1205
39.1211
39.1194
39.0974
39.0569
39.0702
39.0862
39.0941
39.0974
39.0988
39.0992
39.0989
39.0983
39.0976
39.097
39.0962
39.0953
39.0943
39.0937
39.0937
39.1163
39.1163
39.1166
39.1174
39.1181
39.1131
39.0809
39.0739
39.0819
39.0904
39.0953
39.0976
39.0983
39.0982
39.0979
39.0976
39.0972
39.0967
39.0961
39.0957
39.0953
39.0953
39.113
39.113
39.1133
39.1138
39.1136
39.1081
39.0864
39.0738
39.0787
39.0876
39.0931
39.0957
39.0968
39.0973
39.0976
39.0976
39.0974
39.0972
39.0969
39.0967
39.0966
39.0966
39.1106
39.1106
39.111
39.1116
39.1123
39.1096
39.1
39.0903
39.089
39.0914
39.0923
39.0937
39.0955
39.0967
39.0974
39.0977
39.0978
39.0977
39.0976
39.0976
39.0975
39.0975
39.1087
39.1087
39.1092
39.1101
39.112
39.1139
39.1127
39.1024
39.0946
39.0901
39.0895
39.0925
39.0951
39.0967
39.0976
39.098
39.0982
39.0983
39.0983
39.0984
39.0984
39.0984
39.1072
39.1072
39.1076
39.1083
39.1092
39.1091
39.1054
39.0977
39.089
39.0876
39.0909
39.094
39.0961
39.0974
39.0981
39.0985
39.0987
39.0988
39.0989
39.0991
39.0991
39.0991
39.1059
39.1059
39.1063
39.1066
39.1069
39.1064
39.1042
39.0998
39.0972
39.0978
39.0973
39.0975
39.098
39.0985
39.0989
39.0991
39.0993
39.0994
39.0996
39.0997
39.0998
39.0998
39.1049
39.1049
39.1052
39.1054
39.1056
39.1056
39.1055
39.1061
39.107
39.104
39.1014
39.1001
39.0997
39.0997
39.0997
39.0998
39.0999
39.1
39.1002
39.1004
39.1004
39.1004
39.1041
39.1041
39.1044
39.1046
39.1048
39.105
39.1054
39.1061
39.106
39.1044
39.1026
39.1014
39.1008
39.1006
39.1005
39.1005
39.1006
39.1006
39.1008
39.1009
39.1009
39.1009
39.1036
39.1036
39.1038
39.104
39.1042
39.1044
39.1046
39.1049
39.1047
39.1039
39.1029
39.1021
39.1016
39.1013
39.1012
39.1012
39.1012
39.1012
39.1013
39.1014
39.1014
39.1014
39.1032
39.1032
39.1034
39.1035
39.1037
39.1038
39.104
39.104
39.1039
39.1035
39.1029
39.1024
39.1021
39.1019
39.1018
39.1017
39.1017
39.1018
39.1018
39.1019
39.1019
39.1019
39.1029
39.1029
39.1031
39.1032
39.1033
39.1034
39.1034
39.1035
39.1034
39.1032
39.1029
39.1027
39.1025
39.1024
39.1023
39.1023
39.1022
39.1023
39.1023
39.1024
39.1024
39.1024
39.1027
39.1027
39.1029
39.1029
39.103
39.1031
39.1031
39.1031
39.1031
39.103
39.103
39.1029
39.1028
39.1028
39.1027
39.1027
39.1027
39.1027
39.1027
39.1028
39.1029
39.1029
39.1026
39.1026
39.1027
39.1027
39.1028
39.1028
39.1028
39.1028
39.1029
39.103
39.103
39.1031
39.1032
39.1032
39.1031
39.1031
39.1031
39.1031
39.1031
39.1032
39.1033
39.1033
0
39.1026
39.1027
39.1027
39.1028
39.1028
39.1028
39.1028
39.1029
39.103
39.103
39.1031
39.1032
39.1032
39.1031
39.1031
39.1031
39.1031
39.1031
39.1032
39.1033
0
0
39.1303
39.1285
39.1374
39.1666
39.0752
38.9958
39.0692
39.0972
39.1026
39.1027
39.102
39.1011
39.0999
39.0987
39.0978
39.097
39.0961
39.0949
39.0933
39.0923
0
39.1303
39.1303
39.1285
39.1374
39.1666
39.0752
38.9958
39.0692
39.0972
39.1026
39.1027
39.102
39.1011
39.0999
39.0987
39.0978
39.097
39.0961
39.0949
39.0933
39.0923
39.0923
39.1228
39.1228
39.1237
39.129
39.149
39.1091
39.0247
39.059
39.0878
39.0984
39.1012
39.1018
39.1012
39.0999
39.0986
39.0978
39.0971
39.0964
39.0955
39.0945
39.0939
39.0939
39.1178
39.1178
39.1187
39.1217
39.133
39.1372
39.0651
39.062
39.0746
39.0891
39.0974
39.1001
39.0999
39.0989
39.0982
39.0977
39.0973
39.0969
39.0963
39.0958
39.0955
39.0955
39.1141
39.1141
39.1149
39.1164
39.1196
39.126
39.0769
39.0563
39.0607
39.0824
39.0939
39.0968
39.0972
39.0974
39.0977
39.0977
39.0976
39.0974
39.0971
39.0969
39.0968
39.0968
39.1115
39.1115
39.1122
39.1138
39.1159
39.1207
39.1056
39.0812
39.0786
39.0927
39.0936
39.0925
39.0944
39.0964
39.0974
39.0979
39.098
39.0979
39.0979
39.0978
39.0978
39.0978
39.1096
39.1096
39.1103
39.112
39.1167
39.1292
39.1366
39.1074
39.0936
39.0895
39.0856
39.0883
39.0934
39.0963
39.0976
39.0982
39.0984
39.0985
39.0985
39.0986
39.0986
39.0986
39.1079
39.1079
39.1085
39.1096
39.1122
39.118
39.1183
39.093
39.0794
39.0811
39.0838
39.0905
39.0952
39.0973
39.0982
39.0987
39.0989
39.099
39.0992
39.0993
39.0993
39.0993
39.1065
39.1065
39.1069
39.1075
39.1084
39.1091
39.1053
39.0954
39.0953
39.0971
39.0956
39.0968
39.0979
39.0986
39.0991
39.0993
39.0995
39.0996
39.0998
39.0999
39.1
39.1
39.1054
39.1054
39.1057
39.106
39.1064
39.1067
39.107
39.1094
39.117
39.1106
39.1034
39.1006
39.0999
39.0998
39.0999
39.1
39.1001
39.1002
39.1004
39.1005
39.1006
39.1006
39.1046
39.1046
39.1048
39.1051
39.1053
39.1058
39.107
39.1108
39.1142
39.1089
39.1043
39.102
39.1011
39.1008
39.1007
39.1007
39.1007
39.1008
39.101
39.1011
39.1011
39.1011
39.104
39.104
39.1042
39.1044
39.1046
39.1049
39.1056
39.1072
39.1079
39.1058
39.1038
39.1025
39.1018
39.1015
39.1013
39.1013
39.1013
39.1014
39.1015
39.1016
39.1017
39.1017
39.1035
39.1035
39.1037
39.1039
39.104
39.1042
39.1045
39.105
39.105
39.1043
39.1034
39.1027
39.1023
39.102
39.1019
39.1018
39.1019
39.1019
39.102
39.1021
39.1022
39.1022
39.1032
39.1032
39.1034
39.1035
39.1036
39.1037
39.1038
39.1039
39.1039
39.1036
39.1032
39.1029
39.1026
39.1025
39.1024
39.1023
39.1023
39.1024
39.1025
39.1026
39.1026
39.1026
39.103
39.103
39.1031
39.1032
39.1033
39.1033
39.1034
39.1034
39.1034
39.1033
39.1031
39.103
39.1029
39.1028
39.1028
39.1028
39.1028
39.1028
39.1029
39.103
39.1031
39.1031
39.1029
39.1029
39.103
39.103
39.103
39.103
39.103
39.1031
39.1031
39.1032
39.1032
39.1032
39.1032
39.1032
39.1031
39.1031
39.1032
39.1032
39.1033
39.1034
39.1036
39.1036
0
39.1029
39.103
39.103
39.103
39.103
39.103
39.1031
39.1031
39.1032
39.1032
39.1032
39.1032
39.1032
39.1031
39.1031
39.1032
39.1032
39.1033
39.1034
39.1036
0
0
39.129
39.1252
39.1258
39.121
39.0625
39.0479
39.0756
39.0918
39.0977
39.0995
39.0999
39.0999
39.0996
39.099
39.0982
39.0973
39.0963
39.0951
39.0934
39.0925
0
39.129
39.129
39.1252
39.1258
39.121
39.0625
39.0479
39.0756
39.0918
39.0977
39.0995
39.0999
39.0999
39.0996
39.099
39.0982
39.0973
39.0963
39.0951
39.0934
39.0925
39.0925
39.1218
39.1218
39.1213
39.1217
39.119
39.0881
39.0588
39.0711
39.0873
39.0953
39.0982
39.0993
39.0996
39.0993
39.0987
39.0981
39.0974
39.0966
39.0957
39.0947
39.0941
39.0941
39.1171
39.1171
39.1173
39.1177
39.1172
39.1075
39.0795
39.0743
39.0826
39.0908
39.0956
39.0981
39.0988
39.0987
39.0984
39.098
39.0976
39.0971
39.0965
39.096
39.0957
39.0957
39.1138
39.1138
39.1141
39.1145
39.1142
39.1102
39.0883
39.0767
39.0798
39.0879
39.0935
39.0964
39.0975
39.0979
39.098
39.098
39.0979
39.0976
39.0973
39.0971
39.097
39.097
39.1114
39.1114
39.1118
39.1125
39.1132
39.1115
39.098
39.0884
39.0886
39.0915
39.0932
39.0946
39.0961
39.0973
39.0979
39.0982
39.0982
39.0982
39.0981
39.098
39.098
39.098
39.1095
39.1095
39.11
39.1109
39.1127
39.1143
39.1112
39.1018
39.0944
39.0913
39.0909
39.0931
39.0956
39.0972
39.0981
39.0985
39.0986
39.0987
39.0987
39.0988
39.0988
39.0988
39.108
39.108
39.1084
39.1091
39.1101
39.111
39.1085
39.0996
39.0915
39.0891
39.0911
39.0944
39.0966
39.0979
39.0986
39.099
39.0992
39.0993
39.0994
39.0995
39.0995
39.0995
39.1066
39.1066
39.107
39.1074
39.1078
39.1078
39.1058
39.101
39.0963
39.0964
39.0972
39.0978
39.0985
39.099
39.0993
39.0996
39.0997
39.0999
39.1
39.1001
39.1002
39.1002
39.1056
39.1056
39.1059
39.1061
39.1063
39.1064
39.1061
39.1057
39.1058
39.1039
39.1017
39.1005
39.1001
39.1001
39.1001
39.1002
39.1003
39.1005
39.1006
39.1007
39.1008
39.1008
39.1048
39.1048
39.105
39.1052
39.1054
39.1056
39.106
39.1067
39.1071
39.1053
39.1032
39.1018
39.1012
39.1009
39.1009
39.1009
39.1009
39.101
39.1011
39.1013
39.1013
39.1013
39.1042
39.1042
39.1044
39.1045
39.1047
39.1049
39.1052
39.1057
39.1058
39.1047
39.1034
39.1025
39.1019
39.1016
39.1015
39.1015
39.1015
39.1016
39.1017
39.1018
39.1019
39.1019
39.1037
39.1037
39.1039
39.1041
39.1042
39.1043
39.1045
39.1047
39.1046
39.104
39.1033
39.1028
39.1024
39.1021
39.102
39.102
39.102
39.1021
39.1022
39.1023
39.1024
39.1024
39.1034
39.1034
39.1036
39.1037
39.1038
39.1038
39.1039
39.104
39.1039
39.1036
39.1033
39.1029
39.1027
39.1025
39.1025
39.1024
39.1025
39.1025
39.1026
39.1028
39.1029
39.1029
39.1032
39.1032
39.1034
39.1034
39.1035
39.1035
39.1035
39.1035
39.1035
39.1034
39.1032
39.1031
39.103
39.1029
39.1029
39.1029
39.1029
39.103
39.1031
39.1032
39.1033
39.1033
39.1031
39.1031
39.1032
39.1032
39.1032
39.1032
39.1032
39.1032
39.1033
39.1033
39.1033
39.1033
39.1032
39.1032
39.1032
39.1032
39.1033
39.1033
39.1035
39.1036
39.1038
39.1038
0
39.1031
39.1032
39.1032
39.1032