# vtk DataFile Version 3.0
FlowField
ASCII
DATASET STRUCTURED_GRID
DIMENSIONS 22 17 12 
POINTS 4488 double
0 0 0
0.1 0 0
0.2 0 0
0.3 0 0
0.4 0 0
0.5 0 0
0.6 0 0
0.7 0 0
0.8 0 0
0.9 0 0
1 0 0
1.1 0 0
1.2 0 0
1.3 0 0
1.4 0 0
1.5 0 0
1.6 0 0
1.7 0 0
1.8 0 0
1.9 0 0
2 0 0
2.1 0 0
0 0.1 0
0.1 0.1 0
0.2 0.1 0
0.3 0.1 0
0.4 0.1 0
0.5 0.1 0
0.6 0.1 0
0.7 0.1 0
0.8 0.1 0
0.9 0.1 0
1 0.1 0
1.1 0.1 0
1.2 0.1 0
1.3 0.1 0
1.4 0.1 0
1.5 0.1 0
1.6 0.1 0
1.7 0.1 0
1.8 0.1 0
1.9 0.1 0
2 0.1 0
2.1 0.1 0
0 0.2 0
0.1 0.2 0
0.2 0.2 0
0.3 0.2 0
0.4 0.2 0
0.5 0.2 0
0.6 0.2 0
0.7 0.2 0
0.8 0.2 0
0.9 0.2 0
1 0.2 0
1.1 0.2 0
1.2 0.2 0
1.3 0.2 0
1.4 0.2 0
1.5 0.2 0
1.6 0.2 0
1.7 0.2 0
1.8 0.2 0
1.9 0.2 0
2 0.2 0
2.1 0.2 0
0 0.3 0
0.1 0.3 0
0.2 0.3 0
0.3 0.3 0
0.4 0.3 0
0.5 0.3 0
0.6 0.3 0
0.7 0.3 0
0.8 0.3 0
0.9 0.3 0
1 0.3 0
1.1 0.3 0
1.2 0.3 0
1.3 0.3 0
1.4 0.3 0
1.5 0.3 0
1.6 0.3 0
1.7 0.3 0
1.8 0.3 0
1.9 0.3 0
2 0.3 0
2.1 0.3 0
0 0.4 0
0.1 0.4 0
0.2 0.4 0
0.3 0.4 0
0.4 0.4 0
0.5 0.4 0
0.6 0.4 0
0.7 0.4 0
0.8 0.4 0
0.9 0.4 0
1 0.4 0
1.1 0.4 0
1.2 0.4 0
1.3 0.4 0
1.4 0.4 0
1.5 0.4 0
1.6 0.4 0
1.7 0.4 0
1.8 0.4 0
1.9 0.4 0
2 0.4 0
2.1 0.4 0
0 0.5 0
0.1 0.5 0
0.2 0.5 0
0.3 0.5 0
0.4 0.5 0
0.5 0.5 0
0.6 0.5 0
0.7 0.5 0
0.8 0.5 0
0.9 0.5 0
1 0.5 0
1.1 0.5 0
1.2 0.5 0
1.3 0.5 0
1.4 0.5 0
1.5 0.5 0
1.6 0.5 0
1.7 0.5 0
1.8 0.5 0
1.9 0.5 0
2 0.5 0
2.1 0.5 0
0 0.6 0
0.1 0.6 0
0.2 0.6 0
0.3 0.6 0
0.4 0.6 0
0.5 0.6 0
0.6 0.6 0
0.7 0.6 0
0.8 0.6 0
0.9 0.6 0
1 0.6 0
1.1 0.6 0
1.2 0.6 0
1.3 0.6 0
1.4 0.6 0
1.5 0.6 0
1.6 0.6 0
1.7 0.6 0
1.8 0.6 0
1.9 0.6 0
2 0.6 0
2.1 0.6 0
0 0.7 0
0.1 0.7 0
0.2 0.7 0
0.3 0.7 0
0.4 0.7 0
0.5 0.7 0
0.6 0.7 0
0.7 0.7 0
0.8 0.7 0
0.9 0.7 0
1 0.7 0
1.1 0.7 0
1.2 0.7 0
1.3 0.7 0
1.4 0.7 0
1.5 0.7 0
1.6 0.7 0
1.7 0.7 0
1.8 0.7 0
1.9 0.7 0
2 0.7 0
2.1 0.7 0
0 0.8 0
0.1 0.8 0
0.2 0.8 0
0.3 0.8 0
0.4 0.8 0
0.5 0.8 0
0.6 0.8 0
0.7 0.8 0
0.8 0.8 0
0.9 0.8 0
1 0.8 0
1.1 0.8 0
1.2 0.8 0
1.3 0.8 0
1.4 0.8 0
1.5 0.8 0
1.6 0.8 0
1.7 0.8 0
1.8 0.8 0
1.9 0.8 0
2 0.8 0
2.1 0.8 0
0 0.9 0
0.1 0.9 0
0.2 0.9 0
0.3 0.9 0
0.4 0.9 0
0.5 0.9 0
0.6 0.9 0
0.7 0.9 0
0.8 0.9 0
0.9 0.9 0
1 0.9 0
1.1 0.9 0
1.2 0.9 0
1.3 0.9 0
1.4 0.9 0
1.5 0.9 0
1.6 0.9 0
1.7 0.9 0
1.8 0.9 0
1.9 0.9 0
2 0.9 0
2.1 0.9 0
0 1 0
0.1 1 0
0.2 1 0
0.3 1 0
0.4 1 0
0.5 1 0
0.6 1 0
0.7 1 0
0.8 1 0
0.9 1 0
1 1 0
1.1 1 0
1.2 1 0
1.3 1 0
1.4 1 0
1.5 1 0
1.6 1 0
1.7 1 0
1.8 1 0
1.9 1 0
2 1 0
2.1 1 0
0 1.1 0
0.1 1.1 0
0.2 1.1 0
0.3 1.1 0
0.4 1.1 0
0.5 1.1 0
0.6 1.1 0
0.7 1.1 0
0.8 1.1 0
0.9 1.1 0
1 1.1 0
1.1 1.1 0
1.2 1.1 0
1.3 1.1 0
1.4 1.1 0
1.5 1.1 0
1.6 1.1 0
1.7 1.1 0
1.8 1.1 0
1.9 1.1 0
2 1.1 0
2.1 1.1 0
0 1.2 0
0.1 1.2 0
0.2 1.2 0
0.3 1.2 0
0.4 1.2 0
0.5 1.2 0
0.6 1.2 0
0.7 1.2 0
0.8 1.2 0
0.9 1.2 0
1 1.2 0
1.1 1.2 0
1.2 1.2 0
1.3 1.2 0
1.4 1.2 0
1.5 1.2 0
1.6 1.2 0
1.7 1.2 0
1.8 1.2 0
1.9 1.2 0
2 1.2 0
2.1 1.2 0
0 1.3 0
0.1 1.3 0
0.2 1.3 0
0.3 1.3 0
0.4 1.3 0
0.5 1.3 0
0.6 1.3 0
0.7 1.3 0
0.8 1.3 0
0.9 1.3 0
1 1.3 0
1.1 1.3 0
1.2 1.3 0
1.3 1.3 0
1.4 1.3 0
1.5 1.3 0
1.6 1.3 0
1.7 1.3 0
1.8 1.3 0
1.9 1.3 0
2 1.3 0
2.1 1.3 0
0 1.4 0
0.1 1.4 0
0.2 1.4 0
0.3 1.4 0
0.4 1.4 0
0.5 1.4 0
0.6 1.4 0
0.7 1.4 0
0.8 1.4 0
0.9 1.4 0
1 1.4 0
1.1 1.4 0
1.2 1.4 0
1.3 1.4 0
1.4 1.4 0
1.5 1.4 0
1.6 1.4 0
1.7 1.4 0
1.8 1.4 0
1.9 1.4 0
2 1.4 0
2.1 1.4 0
0 1.5 0
0.1 1.5 0
0.2 1.5 0
0.3 1.5 0
0.4 1.5 0
0.5 1.5 0
0.6 1.5 0
0.7 1.5 0
0.8 1.5 0
0.9 1.5 0
1 1.5 0
1.1 1.5 0
1.2 1.5 0
1.3 1.5 0
1.4 1.5 0
1.5 1.5 0
1.6 1.5 0
1.7 1.5 0
1.8 1.5 0
1.9 1.5 0
2 1.5 0
2.1 1.5 0
0 1.6 0
0.1 1.6 0
0.2 1.6 0
0.3 1.6 0
0.4 1.6 0
0.5 1.6 0
0.6 1.6 0
0.7 1.6 0
0.8 1.6 0
0.9 1.6 0
1 1.6 0
1.1 1.6 0
1.2 1.6 0
1.3 1.6 0
1.4 1.6 0
1.5 1.6 0
1.6 1.6 0
1.7 1.6 0
1.8 1.6 0
1.9 1.6 0
2 1.6 0
2.1 1.6 0
0 0 0.1
0.1 0 0.1
0.2 0 0.1
0.3 0 0.1
0.4 0 0.1
0.5 0 0.1
0.6 0 0.1
0.7 0 0.1
0.8 0 0.1
0.9 0 0.1
1 0 0.1
1.1 0 0.1
1.2 0 0.1
1.3 0 0.1
1.4 0 0.1
1.5 0 0.1
1.6 0 0.1
1.7 0 0.1
1.8 0 0.1
1.9 0 0.1
2 0 0.1
2.1 0 0.1
0 0.1 0.1
0.1 0.1 0.1
0.2 0.1 0.1
0.3 0.1 0.1
0.4 0.1 0.1
0.5 0.1 0.1
0.6 0.1 0.1
0.7 0.1 0.1
0.8 0.1 0.1
0.9 0.1 0.1
1 0.1 0.1
1.1 0.1 0.1
1.2 0.1 0.1
1.3 0.1 0.1
1.4 0.1 0.1
1.5 0.1 0.1
1.6 0.1 0.1
1.7 0.1 0.1
1.8 0.1 0.1
1.9 0.1 0.1
2 0.1 0.1
2.1 0.1 0.1
0 0.2 0.1
0.1 0.2 0.1
0.2 0.2 0.1
0.3 0.2 0.1
0.4 0.2 0.1
0.5 0.2 0.1
0.6 0.2 0.1
0.7 0.2 0.1
0.8 0.2 0.1
0.9 0.2 0.1
1 0.2 0.1
1.1 0.2 0.1
1.2 0.2 0.1
1.3 0.2 0.1
1.4 0.2 0.1
1.5 0.2 0.1
1.6 0.2 0.1
1.7 0.2 0.1
1.8 0.2 0.1
1.9 0.2 0.1
2 0.2 0.1
2.1 0.2 0.1
0 0.3 0.1
0.1 0.3 0.1
0.2 0.3 0.1
0.3 0.3 0.1
0.4 0.3 0.1
0.5 0.3 0.1
0.6 0.3 0.1
0.7 0.3 0.1
0.8 0.3 0.1
0.9 0.3 0.1
1 0.3 0.1
1.1 0.3 0.1
1.2 0.3 0.1
1.3 0.3 0.1
1.4 0.3 0.1
1.5 0.3 0.1
1.6 0.3 0.1
1.7 0.3 0.1
1.8 0.3 0.1
1.9 0.3 0.1
2 0.3 0.1
2.1 0.3 0.1
0 0.4 0.1
0.1 0.4 0.1
0.2 0.4 0.1
0.3 0.4 0.1
0.4 0.4 0.1
0.5 0.4 0.1
0.6 0.4 0.1
0.7 0.4 0.1
0.8 0.4 0.1
0.9 0.4 0.1
1 0.4 0.1
1.1 0.4 0.1
1.2 0.4 0.1
1.3 0.4 0.1
1.4 0.4 0.1
1.5 0.4 0.1
1.6 0.4 0.1
1.7 0.4 0.1
1.8 0.4 0.1
1.9 0.4 0.1
2 0.4 0.1
2.1 0.4 0.1
0 0.5 0.1
0.1 0.5 0.1
0.2 0.5 0.1
0.3 0.5 0.1
0.4 0.5 0.1
0.5 0.5 0.1
0.6 0.5 0.1
0.7 0.5 0.1
0.8 0.5 0.1
0.9 0.5 0.1
1 0.5 0.1
1.1 0.5 0.1
1.2 0.5 0.1
1.3 0.5 0.1
1.4 0.5 0.1
1.5 0.5 0.1
1.6 0.5 0.1
1.7 0.5 0.1
1.8 0.5 0.1
1.9 0.5 0.1
2 0.5 0.1
2.1 0.5 0.1
0 0.6 0.1
0.1 0.6 0.1
0.2 0.6 0.1
0.3 0.6 0.1
0.4 0.6 0.1
0.5 0.6 0.1
0.6 0.6 0.1
0.7 0.6 0.1
0.8 0.6 0.1
0.9 0.6 0.1
1 0.6 0.1
1.1 0.6 0.1
1.2 0.6 0.1
1.3 0.6 0.1
1.4 0.6 0.1
1.5 0.6 0.1
1.6 0.6 0.1
1.7 0.6 0.1
1.8 0.6 0.1
1.9 0.6 0.1
2 0.6 0.1
2.1 0.6 0.1
0 0.7 0.1
0.1 0.7 0.1
0.2 0.7 0.1
0.3 0.7 0.1
0.4 0.7 0.1
0.5 0.7 0.1
0.6 0.7 0.1
0.7 0.7 0.1
0.8 0.7 0.1
0.9 0.7 0.1
1 0.7 0.1
1.1 0.7 0.1
1.2 0.7 0.1
1.3 0.7 0.1
1.4 0.7 0.1
1.5 0.7 0.1
1.6 0.7 0.1
1.7 0.7 0.1
1.8 0.7 0.1
1.9 0.7 0.1
2 0.7 0.1
2.1 0.7 0.1
0 0.8 0.1
0.1 0.8 0.1
0.2 0.8 0.1
0.3 0.8 0.1
0.4 0.8 0.1
0.5 0.8 0.1
0.6 0.8 0.1
0.7 0.8 0.1
0.8 0.8 0.1
0.9 0.8 0.1
1 0.8 0.1
1.1 0.8 0.1
1.2 0.8 0.1
1.3 0.8 0.1
1.4 0.8 0.1
1.5 0.8 0.1
1.6 0.8 0.1
1.7 0.8 0.1
1.8 0.8 0.1
1.9 0.8 0.1
2 0.8 0.1
2.1 0.8 0.1
0 0.9 0.1
0.1 0.9 0.1
0.2 0.9 0.1
0.3 0.9 0.1
0.4 0.9 0.1
0.5 0.9 0.1
0.6 0.9 0.1
0.7 0.9 0.1
0.8 0.9 0.1
0.9 0.9 0.1
1 0.9 0.1
1.1 0.9 0.1
1.2 0.9 0.1
1.3 0.9 0.1
1.4 0.9 0.1
1.5 0.9 0.1
1.6 0.9 0.1
1.7 0.9 0.1
1.8 0.9 0.1
1.9 0.9 0.1
2 0.9 0.1
2.1 0.9 0.1
0 1 0.1
0.1 1 0.1
0.2 1 0.1
0.3 1 0.1
0.4 1 0.1
0.5 1 0.1
0.6 1 0.1
0.7 1 0.1
0.8 1 0.1
0.9 1 0.1
1 1 0.1
1.1 1 0.1
1.2 1 0.1
1.3 1 0.1
1.4 1 0.1
1.5 1 0.1
1.6 1 0.1
1.7 1 0.1
1.8 1 0.1
1.9 1 0.1
2 1 0.1
2.1 1 0.1
0 1.1 0.1
0.1 1.1 0.1
0.2 1.1 0.1
0.3 1.1 0.1
0.4 1.1 0.1
0.5 1.1 0.1
0.6 1.1 0.1
0.7 1.1 0.1
0.8 1.1 0.1
0.9 1.1 0.1
1 1.1 0.1
1.1 1.1 0.1
1.2 1.1 0.1
1.3 1.1 0.1
1.4 1.1 0.1
1.5 1.1 0.1
1.6 1.1 0.1
1.7 1.1 0.1
1.8 1.1 0.1
1.9 1.1 0.1
2 1.1 0.1
2.1 1.1 0.1
0 1.2 0.1
0.1 1.2 0.1
0.2 1.2 0.1
0.3 1.2 0.1
0.4 1.2 0.1
0.5 1.2 0.1
0.6 1.2 0.1
0.7 1.2 0.1
0.8 1.2 0.1
0.9 1.2 0.1
1 1.2 0.1
1.1 1.2 0.1
1.2 1.2 0.1
1.3 1.2 0.1
1.4 1.2 0.1
1.5 1.2 0.1
1.6 1.2 0.1
1.7 1.2 0.1
1.8 1.2 0.1
1.9 1.2 0.1
2 1.2 0.1
2.1 1.2 0.1
0 1.3 0.1
0.1 1.3 0.1
0.2 1.3 0.1
0.3 1.3 0.1
0.4 1.3 0.1
0.5 1.3 0.1
0.6 1.3 0.1
0.7 1.3 0.1
0.8 1.3 0.1
0.9 1.3 0.1
1 1.3 0.1
1.1 1.3 0.1
1.2 1.3 0.1
1.3 1.3 0.1
1.4 1.3 0.1
1.5 1.3 0.1
1.6 1.3 0.1
1.7 1.3 0.1
1.8 1.3 0.1
1.9 1.3 0.1
2 1.3 0.1
2.1 1.3 0.1
0 1.4 0.1
0.1 1.4 0.1
0.2 1.4 0.1
0.3 1.4 0.1
0.4 1.4 0.1
0.5 1.4 0.1
0.6 1.4 0.1
0.7 1.4 0.1
0.8 1.4 0.1
0.9 1.4 0.1
1 1.4 0.1
1.1 1.4 0.1
1.2 1.4 0.1
1.3 1.4 0.1
1.4 1.4 0.1
1.5 1.4 0.1
1.6 1.4 0.1
1.7 1.4 0.1
1.8 1.4 0.1
1.9 1.4 0.1
2 1.4 0.1
2.1 1.4 0.1
0 1.5 0.1
0.1 1.5 0.1
0.2 1.5 0.1
0.3 1.5 0.1
0.4 1.5 0.1
0.5 1.5 0.1
0.6 1.5 0.1
0.7 1.5 0.1
0.8 1.5 0.1
0.9 1.5 0.1
1 1.5 0.1
1.1 1.5 0.1
1.2 1.5 0.1
1.3 1.5 0.1
1.4 1.5 0.1
1.5 1.5 0.1
1.6 1.5 0.1
1.7 1.5 0.1
1.8 1.5 0.1
1.9 1.5 0.1
2 1.5 0.1
2.1 1.5 0.1
0 1.6 0.1
0.1 1.6 0.1
0.2 1.6 0.1
0.3 1.6 0.1
0.4 1.6 0.1
0.5 1.6 0.1
0.6 1.6 0.1
0.7 1.6 0.1
0.8 1.6 0.1
0.9 1.6 0.1
1 1.6 0.1
1.1 1.6 0.1
1.2 1.6 0.1
1.3 1.6 0.1
1.4 1.6 0.1
1.5 1.6 0.1
1.6 1.6 0.1
1.7 1.6 0.1
1.8 1.6 0.1
1.9 1.6 0.1
2 1.6 0.1
2.1 1.6 0.1
0 0 0.2
0.1 0 0.2
0.2 0 0.2
0.3 0 0.2
0.4 0 0.2
0.5 0 0.2
0.6 0 0.2
0.7 0 0.2
0.8 0 0.2
0.9 0 0.2
1 0 0.2
1.1 0 0.2
1.2 0 0.2
1.3 0 0.2
1.4 0 0.2
1.5 0 0.2
1.6 0 0.2
1.7 0 0.2
1.8 0 0.2
1.9 0 0.2
2 0 0.2
2.1 0 0.2
0 0.1 0.2
0.1 0.1 0.2
0.2 0.1 0.2
0.3 0.1 0.2
0.4 0.1 0.2
0.5 0.1 0.2
0.6 0.1 0.2
0.7 0.1 0.2
0.8 0.1 0.2
0.9 0.1 0.2
1 0.1 0.2
1.1 0.1 0.2
1.2 0.1 0.2
1.3 0.1 0.2
1.4 0.1 0.2
1.5 0.1 0.2
1.6 0.1 0.2
1.7 0.1 0.2
1.8 0.1 0.2
1.9 0.1 0.2
2 0.1 0.2
2.1 0.1 0.2
0 0.2 0.2
0.1 0.2 0.2
0.2 0.2 0.2
0.3 0.2 0.2
0.4 0.2 0.2
0.5 0.2 0.2
0.6 0.2 0.2
0.7 0.2 0.2
0.8 0.2 0.2
0.9 0.2 0.2
1 0.2 0.2
1.1 0.2 0.2
1.2 0.2 0.2
1.3 0.2 0.2
1.4 0.2 0.2
1.5 0.2 0.2
1.6 0.2 0.2
1.7 0.2 0.2
1.8 0.2 0.2
1.9 0.2 0.2
2 0.2 0.2
2.1 0.2 0.2
0 0.3 0.2
0.1 0.3 0.2
0.2 0.3 0.2
0.3 0.3 0.2
0.4 0.3 0.2
0.5 0.3 0.2
0.6 0.3 0.2
0.7 0.3 0.2
0.8 0.3 0.2
0.9 0.3 0.2
1 0.3 0.2
1.1 0.3 0.2
1.2 0.3 0.2
1.3 0.3 0.2
1.4 0.3 0.2
1.5 0.3 0.2
1.6 0.3 0.2
1.7 0.3 0.2
1.8 0.3 0.2
1.9 0.3 0.2
2 0.3 0.2
2.1 0.3 0.2
0 0.4 0.2
0.1 0.4 0.2
0.2 0.4 0.2
0.3 0.4 0.2
0.4 0.4 0.2
0.5 0.4 0.2
0.6 0.4 0.2
0.7 0.4 0.2
0.8 0.4 0.2
0.9 0.4 0.2
1 0.4 0.2
1.1 0.4 0.2
1.2 0.4 0.2
1.3 0.4 0.2
1.4 0.4 0.2
1.5 0.4 0.2
1.6 0.4 0.2
1.7 0.4 0.2
1.8 0.4 0.2
1.9 0.4 0.2
2 0.4 0.2
2.1 0.4 0.2
0 0.5 0.2
0.1 0.5 0.2
0.2 0.5 0.2
0.3 0.5 0.2
0.4 0.5 0.2
0.5 0.5 0.2
0.6 0.5 0.2
0.7 0.5 0.2
0.8 0.5 0.2
0.9 0.5 0.2
1 0.5 0.2
1.1 0.5 0.2
1.2 0.5 0.2
1.3 0.5 0.2
1.4 0.5 0.2
1.5 0.5 0.2
1.6 0.5 0.2
1.7 0.5 0.2
1.8 0.5 0.2
1.9 0.5 0.2
2 0.5 0.2
2.1 0.5 0.2
0 0.6 0.2
0.1 0.6 0.2
0.2 0.6 0.2
0.3 0.6 0.2
0.4 0.6 0.2
0.5 0.6 0.2
0.6 0.6 0.2
0.7 0.6 0.2
0.8 0.6 0.2
0.9 0.6 0.2
1 0.6 0.2
1.1 0.6 0.2
1.2 0.6 0.2
1.3 0.6 0.2
1.4 0.6 0.2
1.5 0.6 0.2
1.6 0.6 0.2
1.7 0.6 0.2
1.8 0.6 0.2
1.9 0.6 0.2
2 0.6 0.2
2.1 0.6 0.2
0 0.7 0.2
0.1 0.7 0.2
0.2 0.7 0.2
0.3 0.7 0.2
0.4 0.7 0.2
0.5 0.7 0.2
0.6 0.7 0.2
0.7 0.7 0.2
0.8 0.7 0.2
0.9 0.7 0.2
1 0.7 0.2
1.1 0.7 0.2
1.2 0.7 0.2
1.3 0.7 0.2
1.4 0.7 0.2
1.5 0.7 0.2
1.6 0.7 0.2
1.7 0.7 0.2
1.8 0.7 0.2
1.9 0.7 0.2
2 0.7 0.2
2.1 0.7 0.2
0 0.8 0.2
0.1 0.8 0.2
[...]
POINT_DATA 4488

SCALARS pressure double
LOOKUP_TABLE pressure
0
0
0
0
0
0
0
0
0
0
0
0
0
0
0
0
0
0
0
0
0
0
0
62.9107
62.9055
62.9024
62.9002
62.8982
62.8953
62.8944
62.8935
62.8926
62.8918
62.8909
62.8897
62.8898
62.8881
62.8867
62.8879
62.8877
62.887
62.886
62.8853
0
0
62.9048
62.9034
62.9017
62.8997
62.8974
62.8955
62.8943
62.8931
62.8923
62.8915
62.8908
62.8902
62.8896
62.8885
62.8876
62.8873
62.8882
62.8876
62.887
62.8861
0
0
62.9016
62.9014
62.9006
62.8993
62.8959
62.895
62.894
62.893
62.8922
62.8913
62.8907
62.8909
62.8902
62.8894
62.8887
62.8885
62.8886
62.8884
62.8881
62.8873
0
0
62.8996
62.8997
62.8991
62.8978
62.8961
62.8945
62.8937
62.8929
62.8921
62.8908
62.8898
62.8922
62.891
62.89
62.8895
62.8893
62.8893
62.8893
62.889
62.8881
0
0
62.8981
62.8985
62.8983
62.8968
62.8963
62.8933
62.8934
62.893
62.8925
62.8915
62.8908
62.8913
62.8911
62.8905
62.89
62.8897
62.89
62.8899
62.8895
62.8885
0
0
62.8967
62.897
62.8968
62.896
62.895
62.894
62.8936
62.8934
62.8932
62.8919
62.8905
62.8906
62.8915
62.8908
62.8903
62.8898
62.8903
62.8903
62.8899
62.8887
0
0
62.8956
62.896
62.8959
62.8953
62.8939
62.8941
62.8938
62.8935
62.893
62.8922
62.8914
62.8911
62.8912
62.8911
62.8909
62.8904
62.8902
62.8904
62.8904
62.8902
0
0
62.8947
62.8952
62.8953
62.8954
62.8959
62.8946
62.894
62.8935
62.8931
62.8925
62.8919
62.8916
62.8915
62.8915
62.8913
62.8909
62.8906
62.8908
62.8908
62.8913
0
0
62.8938
62.8946
62.8948
62.8949
62.8949
62.8943
62.8939
62.8936
62.8932
62.8928
62.8924
62.8921
62.892
62.8918
62.8916
62.8912
62.8909
62.8909
62.891
62.8916
0
0
62.8923
62.8945
62.8944
62.8944
62.8943
62.8941
62.8938
62.8936
62.8933
62.893
62.8927
62.8925
62.8923
62.8921
62.8919
62.8913
62.8911
62.8912
62.8913
62.8916
0
0
62.8928
62.8937
62.8939
62.894
62.894
62.8938
62.8937
62.8936
62.8932
62.893
62.8928
62.8927
62.8926
62.8926
62.8925
62.8913
62.8912
62.8914
62.8915
62.8917
0
0
62.8927
62.8933
62.8935
62.8936
62.8937
62.8936
62.8935
62.8934
62.8932
62.8931
62.893
62.8929
62.893
62.8934
62.8942
62.8903
62.8913
62.8917
62.8918
62.8921
0
0
62.8925
62.893
62.8932
62.8933
62.8934
62.8933
62.8933
62.8932
62.8932
62.8931
62.8931
62.893
62.8932
62.8937
62.8933
62.892
62.892
62.8922
62.8923
62.8921
0
0
62.8924
62.8928
62.8929
62.8931
62.8931
62.8931
62.8931
62.8931
62.8931
62.8932
62.8932
62.8933
62.8933
62.8934
62.8932
62.8926
62.8925
62.8926
62.8926
62.8925
0
0
62.8924
62.8926
62.8927
62.8928
62.8928
62.8929
62.8929
62.8929
62.893
62.8932
62.8934
62.8934
62.8935
62.8934
62.8932
62.8929
62.8927
62.8928
62.8931
62.8933
0
0
0
0
0
0
0
0
0
0
0
0
0
0
0
0
0
0
0
0
0
0
0
0
62.9107
62.9055
62.9024
62.9002
62.8982
62.8953
62.8944
62.8935
62.8926
62.8918
62.8909
62.8897
62.8898
62.8881
62.8867
62.8879
62.8877
62.887
62.886
62.8853
0
62.9107
62.9107
62.9055
62.9024
62.9002
62.8982
62.8953
62.8944
62.8935
62.8926
62.8918
62.8909
62.8897
62.8898
62.8881
62.8867
62.8879
62.8877
62.887
62.886
62.8853
62.8853
62.9048
62.9048
62.9034
62.9017
62.8997
62.8974
62.8955
62.8943
62.8931
62.8923
62.8915
62.8908
62.8902
62.8896
62.8885
62.8876
62.8873
62.8882
62.8876
62.887
62.8861
62.8861
62.9016
62.9016
62.9014
62.9006
62.8993
62.8959
62.895
62.894
62.893
62.8922
62.8913
62.8907
62.8909
62.8902
62.8894
62.8887
62.8885
62.8886
62.8884
62.8881
62.8873
62.8873
62.8996
62.8996
62.8997
62.8991
62.8978
62.8961
62.8945
62.8937
62.8929
62.8921
62.8908
62.8898
62.8922
62.891
62.89
62.8895
62.8893
62.8893
62.8893
62.889
62.8881
62.8881
62.8981
62.8981
62.8985
62.8983
62.8968
62.8963
62.8933
62.8934
62.893
62.8925
62.8915
62.8908
62.8913
62.8911
62.8905
62.89
62.8897
62.89
62.8899
62.8895
62.8885
62.8885
62.8967
62.8967
62.897
62.8968
62.896
62.895
62.894
62.8936
62.8934
62.8932
62.8919
62.8905
62.8906
62.8915
62.8908
62.8903
62.8898
62.8903
62.8903
62.8899
62.8887
62.8887
62.8956
62.8956
62.896
62.8959
62.8953
62.8939
62.8941
62.8938
62.8935
62.893
62.8922
62.8914
62.8911
62.8912
62.8911
62.8909
62.8904
62.8902
62.8904
62.8904
62.8902
62.8902
62.8947
62.8947
62.8952
62.8953
62.8954
62.8959
62.8946
62.894
62.8935
62.8931
62.8925
62.8919
62.8916
62.8915
62.8915
62.8913
62.8909
62.8906
62.8908
62.8908
62.8913
62.8913
62.8938
62.8938
62.8946
62.8948
62.8949
62.8949
62.8943
62.8939
62.8936
62.8932
62.8928
62.8924
62.8921
62.892
62.8918
62.8916
62.8912
62.8909
62.8909
62.891
62.8916
62.8916
62.8923
62.8923
62.8945
62.8944
62.8944
62.8943
62.8941
62.8938
62.8936
62.8933
62.893
62.8927
62.8925
62.8923
62.8921
62.8919
62.8913
62.8911
62.8912
62.8913
62.8916
62.8916
62.8928
62.8928
62.8937
62.8939
62.894
62.894
62.8938
62.8937
62.8936
62.8932
62.893
62.8928
62.8927
62.8926
62.8926
62.8925
62.8913
62.8912
62.8914
62.8915
62.8917
62.8917
62.8927
62.8927
62.8933
62.8935
62.8936
62.8937
62.8936
62.8935
62.8934
62.8932
62.8931
62.893
62.8929
62.893
62.8934
62.8942
62.8903
62.8913
62.8917
62.8918
62.8921
62.8921
62.8925
62.8925
62.893
62.8932
62.8933
62.8934
62.8933
62.8933
62.8932
62.8932
62.8931
62.8931
62.893
62.8932
62.8937
62.8933
62.892
62.892
62.8922
62.8923
62.8921
62.8921
62.8924
62.8924
62.8928
62.8929
62.8931
62.8931
62.8931
62.8931
62.8931
62.8931
62.8932
62.8932
62.8933
62.8933
62.8934
62.8932
62.8926
62.8925
62.8926
62.8926
62.8925
62.8925
62.8924
62.8924
62.8926
62.8927
62.8928
62.8928
62.8929
62.8929
62.8929
62.893
62.8932
62.8934
62.8934
62.8935
62.8934
62.8932
62.8929
62.8927
62.8928
62.8931
62.8933
62.8933
0
62.8924
62.8926
62.8927
62.8928
62.8928
62.8929
62.8929
62.8929
62.893
62.8932
62.8934
62.8934
62.8935
62.8934
62.8932
62.8929
62.8927
62.8928
62.8931
62.8933
0
0
62.9143
62.909
62.9052
62.9006
62.8929
62.8886
62.8888
62.8902
62.8912
62.8916
62.8913
62.8907
62.89
62.8889
62.888
62.8878
62.8875
62.887
62.8861
62.8855
0
62.9143
62.9143
62.909
62.9052
62.9006
62.8929
62.8886
62.8888
62.8902
62.8912
62.8916
62.8913
62.8907
62.89
62.8889
62.888
62.8878
62.8875
62.887
62.8861
62.8855
62.8855
62.9082
62.9082
62.9067
62.9044
62.9008
62.895
62.8899
62.8887
62.8895
62.8904
62.8909
62.8909
62.8906
62.8899
62.889
62.8882
62.8879
62.8879
62.8875
62.8869
62.8863
62.8863
62.9046
62.9046
62.9041
62.9029
62.9004
62.8961
62.8915
62.8893
62.8892
62.8898
62.8903
62.8905
62.8906
62.8902
62.8896
62.889
62.8887
62.8886
62.8883
62.888
62.8874
62.8874
62.9021
62.9021
62.9021
62.9013
62.8997
62.8968
62.893
62.8903
62.8894
62.8895
62.8897
62.89
62.8906
62.8904
62.89
62.8895
62.8893
62.8892
62.889
62.8888
62.8883
62.8883
62.9002
62.9002
62.9004
62.9001
62.899
62.8972
62.8942
62.8918
62.8903
62.8897
62.8896
62.8898
62.8902
62.8903
62.8901
62.8899
62.8897
62.8896
62.8895
62.8894
62.8888
62.8888
62.8986
62.8986
62.8989
62.8987
62.8982
62.897
62.8952
62.8932
62.8916
62.8906
62.89
62.8897
62.8899
62.8903
62.8902
62.8901
62.8899
62.8899
62.8899
62.8898
62.8893
62.8893
62.8973
62.8973
62.8976
62.8976
62.8973
62.8965
62.8956
62.8944
62.893
62.8917
62.8907
62.8901
62.8901
62.8903
62.8904
62.8904
62.8902
62.8902
62.8902
62.8901
62.8901
62.8901
62.8962
62.8962
62.8966
62.8967
62.8967
62.8965
62.8958
62.8949
62.8937
62.8925
62.8915
62.8909
62.8907
62.8907
62.8907
62.8906
62.8905
62.8904
62.8905
62.8906
62.8907
62.8907
62.8952
62.8952
62.8957
62.8959
62.8959
62.8958
62.8954
62.8948
62.8941
62.8933
62.8926
62.892
62.8915
62.8911
62.8909
62.8908
62.8907
62.8907
62.8908
62.891
62.8911
62.8911
62.8943
62.8943
62.895
62.8952
62.8953
62.8952
62.895
62.8947
62.8943
62.8939
62.8933
62.8926
62.892
62.8915
62.8913
62.8912
62.8911
62.8911
62.8912
62.8913
62.8913
62.8913
62.8939
62.8939
62.8944
62.8946
62.8947
62.8947
62.8946
62.8944
62.8942
62.8939
62.8935
62.893
62.8925
62.8922
62.8921
62.892
62.8915
62.8915
62.8915
62.8917
62.8916
62.8916
62.8935
62.8935
62.8939
62.8941
62.8942
62.8942
62.8942
62.8941
62.894
62.8938
62.8936
62.8933
62.8931
62.893
62.8929
62.8928
62.8919
62.8918
62.8919
62.892
62.8919
62.8919
62.8932
62.8932
62.8935
62.8937
62.8938
62.8938
62.8938
62.8938
62.8937
62.8936
62.8936
62.8935
62.8934
62.8934
62.8933
62.893
62.8925
62.8923
62.8923
62.8924
62.8922
62.8922
62.8929
62.8929
62.8932
62.8933
62.8934
62.8934
62.8934
62.8934
62.8934
62.8935
62.8935
62.8935
62.8935
62.8935
62.8934
62.8932
62.8928
62.8927
62.8927
62.8927
62.8927
62.8927
62.8929
62.8929
62.893
62.893
62.8931
62.8931
62.8931
62.8931
62.8932
62.8933
62.8934
62.8935
62.8936
62.8936
62.8935
62.8933
62.893
62.8929
62.893
62.8931
62.8932
62.8932
0
62.8929
62.893
62.893
62.8931
62.8931
62.8931
62.8931
62.8932
62.8933
62.8934
62.8935
62.8936
62.8936
62.8935
62.8933
62.893
62.8929
62.893
62.8931
62.8932
0
0
62.9182
62.9132
62.91
62.9028
62.8817
62.8748
62.8807
62.8872
62.8908
62.8922
62.8923
62.8917
62.8907
62.8896
62.8886
62.888
62.8875
62.887
62.8861
62.8856
0
62.9182
62.9182
62.9132
62.91
62.9028
62.8817
62.8748
62.8807
62.8872
62.8908
62.8922
62.8923
62.8917
62.8907
62.8896
62.8886
62.888
62.8875
62.887
62.8861
62.8856
62.8856
62.9116
62.9116
62.9104
62.9085
62.9039
62.8917
62.879
62.8798
62.8848
62.8888
62.8908
62.8914
62.8912
62.8905
62.8895
62.8887
62.8882
62.8879
62.8875
62.887
62.8865
62.8865
62.9075
62.9075
62.9072
62.9062
62.9035
62.8965
62.885
62.8814
62.8838
62.8871
62.8893
62.8905
62.8908
62.8904
62.8898
62.8892
62.8888
62.8885
62.8882
62.8879
62.8876
62.8876
62.9045
62.9045
62.9046
62.9042
62.9027
62.8983
62.89
62.8844
62.8839
62.8858
62.8878
62.8893
62.8901
62.8903
62.89
62.8896
62.8893
62.8891
62.8889
62.8887
62.8884
62.8884
62.9023
62.9023
62.9026
62.9026
62.9021
62.9
62.8947
62.8888
62.8857
62.8855
62.8868
62.8882
62.8892
62.8897
62.8898
62.8897
62.8896
62.8895
62.8893
62.8892
62.8889
62.8889
62.9004
62.9004
62.9008
62.901
62.9009
62.8998
62.8967
62.8924
62.8888
62.8872
62.8872
62.8878
62.8885
62.8892
62.8897
62.8898
62.8898
62.8897
62.8897
62.8896
62.8893
62.8893
62.8988
62.8988
62.8992
62.8994
62.8994
62.899
62.8977
62.8957
62.893
62.8902
62.8884
62.8879
62.8884
62.8892
62.8898
62.89
62.89
62.8899
62.8899
62.89
62.8898
62.8898
62.8975
62.8975
62.8978
62.8981
62.8982
62.8981
62.8976
62.8965
62.8942
62.8915
62.8896
62.8892
62.8895
62.8898
62.8901
62.8901
62.89
62.8901
62.8902
62.8904
62.8903
62.8903
62.8963
62.8963
62.8967
62.8969
62.8971
62.8971
62.8968
62.896
62.8947
62.8934
62.8927
62.8917
62.8908
62.8901
62.8898
62.8899
62.8901
62.8904
62.8906
62.8908
62.8907
62.8907
62.8954
62.8954
62.8958
62.896
62.8961
62.8962
62.896
62.8957
62.8953
62.8949
62.8941
62.8927
62.8912
62.8901
62.8899
62.8903
62.8906
62.8909
62.8911
62.8913
62.8911
62.8911
62.8947
62.8947
62.895
62.8952
62.8954
62.8954
62.8954
62.8953
62.8951
62.8948
62.8942
62.8931
62.892
62.8914
62.8914
62.8915
62.8915
62.8915
62.8916
62.8917
62.8915
62.8915
62.8941
62.8941
62.8944
62.8946
62.8947
62.8948
62.8948
62.8947
62.8946
62.8945
62.8941
62.8937
62.8933
62.8931
62.8929
62.8926
62.8922
62.892
62.892
62.8921
62.8919
62.8919
62.8937
62.8937
62.894
62.8941
62.8942
62.8942
62.8943
62.8942
62.8942
62.8941
62.894
62.8939
62.8939
62.8938
62.8935
62.8931
62.8927
62.8925
62.8924
62.8925
62.8923
62.8923
62.8934
62.8934
62.8936
62.8937
62.8937
62.8938
62.8938
62.8938
62.8938
62.8938
62.8938
62.8938
62.8938
62.8938
62.8936
62.8933
62.893
62.8928
62.8928
62.8928
62.8927
62.8927
62.8933
62.8933
62.8933
62.8933
62.8933
62.8933
62.8934
62.8934
62.8934
62.8935
62.8936
62.8937
62.8937
62.8937
62.8936
62.8934
62.8932
62.8931
62.893
62.8931
62.8931
62.8931
0
62.8933
62.8933
62.8933
62.8933
62.8933
62.8934
62.8934
62.8934
62.8935
62.8936
62.8937
62.8937
62.8937
62.8936
62.8934
62.8932
62.8931
62.893
62.8931
62.8931
0
0
62.9219
62.9184
62.919
62.9137
62.8448
62.8421
62.8705
62.8868
62.8927
62.8941
62.8938
62.8928
62.8916
62.8902
62.889
62.8882
62.8876
62.8869
62.8861
62.8858
0
62.9219
62.9219
62.9184
62.919
62.9137
62.8448
62.8421
62.8705
62.8868
62.8927
62.8941
62.8938
62.8928
62.8916
62.8902
62.889
62.8882
62.8876
62.8869
62.8861
62.8858
62.8858
62.9148
62.9148
62.9146
62.9152
62.9136
62.8933
62.8523
62.8644
62.8807
62.8892
62.8923
62.893
62.8925
62.8914
62.8902
62.8891
62.8884
62.8879
62.8875
62.8868
62.8868
62.8868
62.91
62.91
62.9104
62.9109
62.9105
62.9026
62.8705
62.8653
62.8757
62.8849
62.8897
62.8916
62.8918
62.8913
62.8905
62.8897
62.8891
62.8887
62.8882
62.8878
62.8879
62.8879
62.9066
62.9066
62.9071
62.9078
62.9082
62.9034
62.8837
62.8712
62.8739
62.8805
62.8859
62.8891
62.8905
62.8907
62.8904
62.8899
62.8896
62.8892
62.8889
62.8885
62.8886
62.8886
62.904
62.904
62.9046
62.9056
62.9075
62.9072
62.8975
62.8836
62.8766
62.8775
62.8822
62.8863
62.8885
62.8894
62.8897
62.8897
62.8896
62.8894
62.8892
62.889
62.889
62.889
62.9018
62.9018
62.9025
62.9034
62.9047
62.9045
62.8999
62.8907
62.8831
62.8805
62.883
62.8853
62.8865
62.888
62.8891
62.8896
62.8897
62.8895
62.8894
62.8894
62.8893
62.8893
62.9
62.9
62.9005
62.9012
62.9019
62.902
62.901
62.8995
62.8949
62.8889
62.8847
62.8835
62.8852
62.8877
62.8896
62.8901
62.8898
62.8896
62.8897
62.8898
62.8896
62.8896
62.8984
62.8984
62.8989
62.8993
62.8999
62.9004
62.9007
62.9
62.8951
62.8886
62.8847
62.8857
62.8873
62.889
62.8899
62.8898
62.8895
62.8896
62.8899
62.8902
62.89
62.89
62.8972
62.8972
62.8976
62.8979
62.8982
62.8986
62.8985
62.8974
62.8953
62.8931
62.8939
62.8919
62.8901
62.8889
62.8879
62.8882
62.8892
62.8899
62.8903
62.8907
62.8905
62.8905
62.8961
62.8961
62.8965
62.8967
62.897
62.8971
62.8971
62.897
62.8969
62.8975
62.8961
62.8929
62.8897
62.8866
62.8868
62.8887
62.8899
62.8905
62.8909
62.8912
62.891
62.891
62.8953
62.8953
62.8956
62.8958
62.896
62.8961
62.8962
62.8962
62.8963
62.8962
62.8951
62.8932
62.8906
62.8896
62.8907
62.8912
62.8913
62.8914
62.8915
62.8917
62.8915
62.8915
62.8946
62.8946
62.8949
62.8951
62.8952
62.8953
62.8953
62.8954
62.8954
62.8953
62.8949
62.8942
62.894
62.8943
62.8937
62.8929
62.8924
62.8921
62.8921
62.8921
62.8919
62.8919
62.8941
62.8941
62.8944
62.8945
62.8946
62.8946
62.8947
62.8947
62.8947
62.8947
62.8946
62.8945
62.8948
62.8947
62.8941
62.8934
62.8929
62.8926
62.8925
62.8925
62.8923
62.8923
62.8937
62.8937
62.894
62.894
62.8941
62.8941
62.8941
62.8941
62.8941
62.8941
62.8942
62.8942
62.8943
62.8942
62.8939
62.8935
62.8932
62.8929
62.8928
62.8928
62.8927
62.8927
62.8936
62.8936
62.8937
62.8936
62.8936
62.8936
62.8936
62.8936
62.8936
62.8936
62.8937
62.8939
62.8939
62.8939
62.8937
62.8935
62.8933
62.8931
62.8931
62.8931
62.893
62.893
0
62.8936
62.8937
62.8936
62.8936
62.8936
62.8936
62.8936
62.8936
62.8936
62.8937
62.8939
62.8939
62.8939
62.8937
62.8935
62.8933
62.8931
62.8931
62.8931
62.893
0
0
62.9242
62.9227
62.9323
62.9631
62.8744
62.7941
62.8652
62.8916
62.897
62.8969
62.8955
62.8938
62.8921
62.8906
62.8893
62.8884
62.8877
62.887
62.886
62.8859
0
62.9242
62.9242
62.9227
62.9323
62.9631
62.8744
62.7941
62.8652
62.8916
62.897
62.8969
62.8955
62.8938
62.8921
62.8906
62.8893
62.8884
62.8877
62.887
62.886
62.8859
62.8859
62.9166
62.9166
62.9176
62.9229
62.9434
62.9066
62.8241
62.8528
62.8815
62.8931
62.8957
62.8953
62.894
62.8925
62.891
62.8897
62.8889
62.8882
62.8876
62.8866
62.8873
62.8873
62.9114
62.9114
62.9123
62.9148
62.9225
62.9188
62.8511
62.8458
62.8678
62.885
62.8918
62.8936
62.8935
62.8925
62.8914
62.8904
62.8896
62.8891
62.8884
62.8876
62.8884
62.8884
62.9077
62.9077
62.9085
62.9104
62.914
62.922
62.8755
62.8531
62.8634
62.8772
62.8853
62.8899
62.8917
62.8917
62.8911
62.8905
62.89
62.8895
62.889
62.8883
62.889
62.889
62.9049
62.9049
62.9058
62.9081
62.9138
62.9298
62.9052
62.8745
62.8691
62.8701
62.877
62.8857
62.889
62.8896
62.8897
62.8898
62.8899
62.8896
62.8892
62.8887
62.8892
62.8892
62.9026
62.9026
62.9035
62.9052
62.9095
62.9196
62.9098
62.8867
62.878
62.8711
62.8781
62.8846
62.8857
62.8864
62.8883
62.8898
62.8899
62.8894
62.8892
62.889
62.8893
62.8893
62.9007
62.9007
62.9013
62.9023
62.9042
62.9074
62.907
62.9068
62.9005
62.8843
62.8818
62.8816
62.881
62.8851
62.8897
62.8912
62.8901
62.8892
62.8892
62.8895
62.8894
62.8894
62.899
62.899
62.8995
62.9002
62.9012
62.9029
62.9062
62.9119
62.9012
62.8818
62.8786
62.8828
62.8833
62.888
62.891
62.8904
62.889
62.8889
62.8895
62.89
62.8898
62.8898
62.8977
62.8977
62.8981
62.8985
62.8991
62.8999
62.9014
62.9023
62.895
62.8907
62.898
62.8935
62.8891
62.8875
62.8864
62.887
62.888
62.8892
62.8901
62.8906
62.8904
62.8904
62.8966
62.8966
62.8969
62.8972
62.8975
62.8979
62.8984
62.8985
62.8985
62.9025
62.9055
62.8953
62.8869
62.8826
62.8836
62.8871
62.8891
62.8903
62.8908
62.8911
62.8909
62.8909
62.8957
62.8957
62.896
62.8962
62.8964
62.8966
62.8968
62.8971
62.898
62.9008
62.8989
62.893
62.8881
62.8875
62.8903
62.8913
62.8914
62.8915
62.8915
62.8917
62.8914
62.8914
62.895
62.895
62.8953
62.8954
62.8955
62.8957
62.8958
62.8959
62.8964
62.8969
62.896
62.8946
62.8946
62.8967
62.8963
62.8941
62.8928
62.8923
62.8921
62.8921
62.8919
62.8919
62.8944
62.8944
62.8947
62.8948
62.8949
62.8949
62.895
62.8951
62.8952
62.8952
62.8951
62.8953
62.8967
62.8978
62.8961
62.8943
62.8932
62.8927
62.8925
62.8925
62.8923
62.8923
62.894
62.894
62.8943
62.8943
62.8943
62.8943
62.8944
62.8944
62.8944
62.8944
62.8944
62.8947
62.8954
62.8956
62.8948
62.8939
62.8933
62.893
62.8929
62.8928
62.8926
62.8926
62.8939
62.8939
62.8939
62.8939
62.8939
62.8938
62.8938
62.8938
62.8938
62.8938
62.8939
62.894
62.8942
62.8942
62.894
62.8936
62.8934
62.8932
62.8931
62.893
62.8929
62.8929
0
62.8939
62.8939
62.8939
62.8939
62.8938
62.8938
62.8938
62.8938
62.8938
62.8939
62.894
62.8942
62.8942
62.894
62.8936
62.8934
62.8932
62.8931
62.893
62.8929
0
0
62.9227
62.9192
62.9202
62.9162
62.858
62.8436
62.8704
62.8863
62.8922
62.8937
62.8934
62.8925
62.8912
62.8898
62.8886
62.8878
62.8873
62.8867
62.8859
62.8856
0
62.9227
62.9227
62.9192
62.9202
62.9162
62.858
62.8436
62.8704
62.8863
62.8922
62.8937
62.8934
62.8925
62.8912
62.8898
62.8886
62.8878
62.8873
62.8867
62.8859
62.8856
62.8856
62.9155
62.9155
62.9151
62.9155
62.9127
62.8834
62.8539
62.8654
62.8815
62.8897
62.8926
62.8931
62.8925
62.8914
62.8901
62.8889
62.8881
62.8876
62.8871
62.8865
62.8865
62.8865
62.9107
62.9107
62.9109
62.911
62.9096
62.8984
62.8697
62.8657
62.8757
62.8847
62.8896
62.8915
62.8917
62.8912
62.8903
62.8895
62.8889
62.8884
62.888
62.8875
62.8876
62.8876
62.9072
62.9072
62.9077
62.9082
62.9084
62.9039
62.8832
62.872
62.8744
62.8808
62.8861
62.8891
62.8903
62.8905
62.8902
62.8898
62.8894
62.889
62.8887
62.8883
62.8884
62.8884
62.9046
62.9046
62.9053
62.9063
62.908
62.9078
62.8959
62.8835
62.8776
62.8786
62.8827
62.8864
62.8885
62.8894
62.8896
62.8896
62.8895
62.8893
62.8891
62.8889
62.8889
62.8889
62.9025
62.9025
62.9031
62.9041
62.9056
62.9065
62.9007
62.8906
62.8829
62.8804
62.883
62.8852
62.8868
62.8881
62.889
62.8894
62.8895
62.8894
62.8893
62.8893
62.8892
62.8892
62.9007
62.9007
62.9012
62.9019
62.9028
62.9035
62.9021
62.8978
62.893
62.8881
62.8847
62.8841
62.8854
62.8874
62.8892
62.8898
62.8897
62.8895
62.8895
62.8897
62.8895
62.8895
62.8991
62.8991
62.8996
62.9
62.9006
62.9013
62.9015
62.9008
62.8962
62.8892
62.8853
62.885
62.8869
62.8885
62.8894
62.8896
62.8894
62.8895
62.8899
62.8901
62.8899
62.8899
62.8978
62.8978
62.8982
62.8985
62.8989
62.8993
62.8995
62.899
62.8963
62.8929
62.8918
62.8914
62.8899
62.8887
62.8881
62.8885
62.8891
62.8898
62.8903
62.8906
62.8904
62.8904
62.8967
62.8967
62.8971
62.8973
62.8975
62.8977
62.8979
62.8977
62.8971
62.897
62.8966
62.8935
62.89
62.8874
62.8873
62.8886
62.8899
62.8906
62.8909
62.8911
62.8909
62.8909
62.8959
62.8959
62.8962
62.8964
62.8965
62.8966
62.8967
62.8967
62.8968
62.8971
62.8961
62.8937
62.891
62.8894
62.89
62.891
62.8913
62.8915
62.8915
62.8916
62.8914
62.8914
62.8952
62.8952
62.8955
62.8956
62.8957
62.8958
62.8958
62.8959
62.8959
62.8959
62.8953
62.8944
62.8936
62.8935
62.8934
62.8929
62.8924
62.8922
62.8921
62.8921
62.8918
62.8918
62.8947
62.8947
62.895
62.895
62.8951
62.8951
62.8951
62.8951
62.8951
62.8951
62.8949
62.8947
62.8948
62.8948
62.8943
62.8936
62.893
62.8927
62.8925
62.8925
62.8922
62.8922
62.8943
62.8943
62.8945
62.8946
62.8946
62.8945
62.8945
62.8945
62.8945
62.8944
62.8944
62.8944
62.8946
62.8946
62.8942
62.8937
62.8932
62.893
62.8928
62.8928
62.8926
62.8926
62.8941
62.8941
62.8942
62.8941
62.8941
62.894
62.894
62.8939
62.8939
62.8939
62.8939
62.894
62.8941
62.8941
62.8939
62.8936
62.8934
62.8932
62.8931
62.893
62.8929
62.8929
0
62.8941
62.8942