# vtk DataFile Version 3.0
FlowField
ASCII
DATASET STRUCTURED_GRID
DIMENSIONS 102 12 1 
POINTS 1224 double
0 0 0
0.3 0 0
0.6 0 0
0.9 0 0
1.2 0 0
1.5 0 0
1.8 0 0
2.1 0 0
2.4 0 0
2.7 0 0
3 0 0
3.3 0 0
3.6 0 0
3.9 0 0
4.2 0 0
4.5 0 0
4.8 0 0
5.1 0 0
5.4 0 0
5.7 0 0
6 0 0
6.3 0 0
6.6 0 0
6.9 0 0
7.2 0 0
7.5 0 0
7.8 0 0
8.1 0 0
8.4 0 0
8.7 0 0
9 0 0
9.3 0 0
9.6 0 0
9.9 0 0
10.2 0 0
10.5 0 0
10.8 0 0
11.1 0 0
11.4 0 0
11.7 0 0
12 0 0
12.3 0 0
12.6 0 0
12.9 0 0
13.2 0 0
13.5 0 0
13.8 0 0
14.1 0 0
14.4 0 0
14.7 0 0
15 0 0
15.3 0 0
15.6 0 0
15.9 0 0
16.2 0 0
16.5 0 0
16.8 0 0
17.1 0 0
17.4 0 0
17.7 0 0
18 0 0
18.3 0 0
18.6 0 0
18.9 0 0
19.2 0 0
19.5 0 0
19.8 0 0
20.1 0 0
20.4 0 0
20.7 0 0
21 0 0
21.3 0 0
21.6 0 0
21.9 0 0
22.2 0 0
22.5 0 0
22.8 0 0
23.1 0 0
23.4 0 0
23.7 0 0
24 0 0
24.3 0 0
24.6 0 0
24.9 0 0
25.2 0 0
25.5 0 0
25.8 0 0
26.1 0 0
26.4 0 0
26.7 0 0
27 0 0
27.3 0 0
27.6 0 0
27.9 0 0
28.2 0 0
28.5 0 0
28.8 0 0
29.1 0 0
29.4 0 0
29.7 0 0
30 0 0
30.3 0 0
0 0.1 0
0.3 0.1 0
0.6 0.1 0
0.9 0.1 0
1.2 0.1 0
1.5 0.1 0
1.8 0.1 0
2.1 0.1 0
2.4 0.1 0
2.7 0.1 0
3 0.1 0
3.3 0.1 0
3.6 0.1 0
3.9 0.1 0
4.2 0.1 0
4.5 0.1 0
4.8 0.1 0
5.1 0.1 0
5.4 0.1 0
5.7 0.1 0
6 0.1 0
6.3 0.1 0
6.6 0.1 0
6.9 0.1 0
7.2 0.1 0
7.5 0.1 0
7.8 0.1 0
8.1 0.1 0
8.4 0.1 0
8.7 0.1 0
9 0.1 0
9.3 0.1 0
9.6 0.1 0
9.9 0.1 0
10.2 0.1 0
10.5 0.1 0
10.8 0.1 0
11.1 0.1 0
11.4 0.1 0
11.7 0.1 0
12 0.1 0
12.3 0.1 0
12.6 0.1 0
12.9 0.1 0
13.2 0.1 0
13.5 0.1 0
13.8 0.1 0
14.1 0.1 0
14.4 0.1 0
14.7 0.1 0
15 0.1 0
15.3 0.1 0
15.6 0.1 0
15.9 0.1 0
16.2 0.1 0
16.5 0.1 0
16.8 0.1 0
17.1 0.1 0
17.4 0.1 0
17.7 0.1 0
18 0.1 0
18.3 0.1 0
18.6 0.1 0
18.9 0.1 0
19.2 0.1 0
19.5 0.1 0
19.8 0.1 0
20.1 0.1 0
20.4 0.1 0
20.7 0.1 0
21 0.1 0
21.3 0.1 0
21.6 0.1 0
21.9 0.1 0
22.2 0.1 0
22.5 0.1 0
22.8 0.1 0
23.1 0.1 0
23.4 0.1 0
23.7 0.1 0
24 0.1 0
24.3 0.1 0
24.6 0.1 0
24.9 0.1 0
25.2 0.1 0
25.5 0.1 0
25.8 0.1 0
26.1 0.1 0
26.4 0.1 0
26.7 0.1 0
27 0.1 0
27.3 0.1 0
27.6 0.1 0
27.9 0.1 0
28.2 0.1 0
28.5 0.1 0
28.8 0.1 0
29.1 0.1 0
29.4 0.1 0
29.7 0.1 0
30 0.1 0
30.3 0.1 0
0 0.2 0
0.3 0.2 0
0.6 0.2 0
0.9 0.2 0
1.2 0.2 0
1.5 0.2 0
1.8 0.2 0
2.1 0.2 0
2.4 0.2 0
2.7 0.2 0
3 0.2 0
3.3 0.2 0
3.6 0.2 0
3.9 0.2 0
4.2 0.2 0
4.5 0.2 0
4.8 0.2 0
5.1 0.2 0
5.4 0.2 0
5.7 0.2 0
6 0.2 0
6.3 0.2 0
6.6 0.2 0
6.9 0.2 0
7.2 0.2 0
7.5 0.2 0
7.8 0.2 0
8.1 0.2 0
8.4 0.2 0
8.7 0.2 0
9 0.2 0
9.3 0.2 0
9.6 0.2 0
9.9 0.2 0
10.2 0.2 0
10.5 0.2 0
10.8 0.2 0
11.1 0.2 0
11.4 0.2 0
11.7 0.2 0
12 0.2 0
12.3 0.2 0
12.6 0.2 0
12.9 0.2 0
13.2 0.2 0
13.5 0.2 0
13.8 0.2 0
14.1 0.2 0
14.4 0.2 0
14.7 0.2 0
15 0.2 0
15.3 0.2 0
15.6 0.2 0
15.9 0.2 0
16.2 0.2 0
16.5 0.2 0
16.8 0.2 0
17.1 0.2 0
17.4 0.2 0
17.7 0.2 0
18 0.2 0
18.3 0.2 0
18.6 0.2 0
18.9 0.2 0
19.2 0.2 0
19.5 0.2 0
19.8 0.2 0
20.1 0.2 0
20.4 0.2 0
20.7 0.2 0
21 0.2 0
21.3 0.2 0
21.6 0.2 0
21.9 0.2 0
22.2 0.2 0
22.5 0.2 0
22.8 0.2 0
23.1 0.2 0
23.4 0.2 0
23.7 0.2 0
24 0.2 0
24.3 0.2 0
24.6 0.2 0
24.9 0.2 0
25.2 0.2 0
25.5 0.2 0
25.8 0.2 0
26.1 0.2 0
26.4 0.2 0
26.7 0.2 0
27 0.2 0
27.3 0.2 0
27.6 0.2 0
27.9 0.2 0
28.2 0.2 0
28.5 0.2 0
28.8 0.2 0
29.1 0.2 0
29.4 0.2 0
29.7 0.2 0
30 0.2 0
30.3 0.2 0
0 0.3 0
0.3 0.3 0
0.6 0.3 0
0.9 0.3 0
1.2 0.3 0
1.5 0.3 0
1.8 0.3 0
2.1 0.3 0
2.4 0.3 0
2.7 0.3 0
3 0.3 0
3.3 0.3 0
3.6 0.3 0
3.9 0.3 0
4.2 0.3 0
4.5 0.3 0
4.8 0.3 0
5.1 0.3 0
5.4 0.3 0
5.7 0.3 0
6 0.3 0
6.3 0.3 0
6.6 0.3 0
6.9 0.3 0
7.2 0.3 0
7.5 0.3 0
7.8 0.3 0
8.1 0.3 0
8.4 0.3 0
8.7 0.3 0
9 0.3 0
9.3 0.3 0
9.6 0.3 0
9.9 0.3 0
10.2 0.3 0
10.5 0.3 0
10.8 0.3 0
11.1 0.3 0
11.4 0.3 0
11.7 0.3 0
12 0.3 0
12.3 0.3 0
12.6 0.3 0
12.9 0.3 0
13.2 0.3 0
13.5 0.3 0
13.8 0.3 0
14.1 0.3 0
14.4 0.3 0
14.7 0.3 0
15 0.3 0
15.3 0.3 0
15.6 0.3 0
15.9 0.3 0
16.2 0.3 0
16.5 0.3 0
16.8 0.3 0
17.1 0.3 0
17.4 0.3 0
17.7 0.3 0
18 0.3 0
18.3 0.3 0
18.6 0.3 0
18.9 0.3 0
19.2 0.3 0
19.5 0.3 0
19.8 0.3 0
20.1 0.3 0
20.4 0.3 0
20.7 0.3 0
21 0.3 0
21.3 0.3 0
21.6 0.3 0
21.9 0.3 0
22.2 0.3 0
22.5 0.3 0
22.8 0.3 0
23.1 0.3 0
23.4 0.3 0
23.7 0.3 0
24 0.3 0
24.3 0.3 0
24.6 0.3 0
24.9 0.3 0
25.2 0.3 0
25.5 0.3 0
25.8 0.3 0
26.1 0.3 0
26.4 0.3 0
26.7 0.3 0
27 0.3 0
27.3 0.3 0
27.6 0.3 0
27.9 0.3 0
28.2 0.3 0
28.5 0.3 0
28.8 0.3 0
29.1 0.3 0
29.4 0.3 0
29.7 0.3 0
30 0.3 0
30.3 0.3 0
0 0.4 0
0.3 0.4 0
0.6 0.4 0
0.9 0.4 0
1.2 0.4 0
1.5 0.4 0
1.8 0.4 0
2.1 0.4 0
2.4 0.4 0
2.7 0.4 0
3 0.4 0
3.3 0.4 0
3.6 0.4 0
3.9 0.4 0
4.2 0.4 0
4.5 0.4 0
4.8 0.4 0
5.1 0.4 0
5.4 0.4 0
5.7 0.4 0
6 0.4 0
6.3 0.4 0
6.6 0.4 0
6.9 0.4 0
7.2 0.4 0
7.5 0.4 0
7.8 0.4 0
8.1 0.4 0
8.4 0.4 0
8.7 0.4 0
9 0.4 0
9.3 0.4 0
9.6 0.4 0
9.9 0.4 0
10.2 0.4 0
10.5 0.4 0
10.8 0.4 0
11.1 0.4 0
11.4 0.4 0
11.7 0.4 0
12 0.4 0
12.3 0.4 0
12.6 0.4 0
12.9 0.4 0
13.2 0.4 0
13.5 0.4 0
13.8 0.4 0
14.1 0.4 0
14.4 0.4 0
14.7 0.4 0
15 0.4 0
15.3 0.4 0
15.6 0.4 0
15.9 0.4 0
16.2 0.4 0
16.5 0.4 0
16.8 0.4 0
17.1 0.4 0
17.4 0.4 0
17.7 0.4 0
18 0.4 0
18.3 0.4 0
18.6 0.4 0
18.9 0.4 0
19.2 0.4 0
19.5 0.4 0
19.8 0.4 0
20.1 0.4 0
20.4 0.4 0
20.7 0.4 0
21 0.4 0
21.3 0.4 0
21.6 0.4 0
21.9 0.4 0
22.2 0.4 0
22.5 0.4 0
22.8 0.4 0
23.1 0.4 0
23.4 0.4 0
23.7 0.4 0
24 0.4 0
24.3 0.4 0
24.6 0.4 0
24.9 0.4 0
25.2 0.4 0
25.5 0.4 0
25.8 0.4 0
26.1 0.4 0
26.4 0.4 0
26.7 0.4 0
27 0.4 0
27.3 0.4 0
27.6 0.4 0
27.9 0.4 0
28.2 0.4 0
28.5 0.4 0
28.8 0.4 0
29.1 0.4 0
29.4 0.4 0
29.7 0.4 0
30 0.4 0
30.3 0.4 0
0 0.5 0
0.3 0.5 0
0.6 0.5 0
0.9 0.5 0
1.2 0.5 0
1.5 0.5 0
1.8 0.5 0
2.1 0.5 0
2.4 0.5 0
2.7 0.5 0
3 0.5 0
3.3 0.5 0
3.6 0.5 0
3.9 0.5 0
4.2 0.5 0
4.5 0.5 0
4.8 0.5 0
5.1 0.5 0
5.4 0.5 0
5.7 0.5 0
6 0.5 0
6.3 0.5 0
6.6 0.5 0
6.9 0.5 0
7.2 0.5 0
7.5 0.5 0
7.8 0.5 0
8.1 0.5 0
8.4 0.5 0
8.7 0.5 0
9 0.5 0
9.3 0.5 0
9.6 0.5 0
9.9 0.5 0
10.2 0.5 0
10.5 0.5 0
10.8 0.5 0
11.1 0.5 0
11.4 0.5 0
11.7 0.5 0
12 0.5 0
12.3 0.5 0
12.6 0.5 0
12.9 0.5 0
13.2 0.5 0
13.5 0.5 0
13.8 0.5 0
14.1 0.5 0
14.4 0.5 0
14.7 0.5 0
15 0.5 0
15.3 0.5 0
15.6 0.5 0
15.9 0.5 0
16.2 0.5 0
16.5 0.5 0
16.8 0.5 0
17.1 0.5 0
17.4 0.5 0
17.7 0.5 0
18 0.5 0
18.3 0.5 0
18.6 0.5 0
18.9 0.5 0
19.2 0.5 0
19.5 0.5 0
19.8 0.5 0
20.1 0.5 0
20.4 0.5 0
20.7 0.5 0
21 0.5 0
21.3 0.5 0
21.6 0.5 0
21.9 0.5 0
22.2 0.5 0
22.5 0.5 0
22.8 0.5 0
23.1 0.5 0
23.4 0.5 0
23.7 0.5 0
24 0.5 0
24.3 0.5 0
24.6 0.5 0
24.9 0.5 0
25.2 0.5 0
25.5 0.5 0
25.8 0.5 0
26.1 0.5 0
26.4 0.5 0
26.7 0.5 0
27 0.5 0
27.3 0.5 0
27.6 0.5 0
27.9 0.5 0
28.2 0.5 0
28.5 0.5 0
28.8 0.5 0
29.1 0.5 0
29.4 0.5 0
29.7 0.5 0
30 0.5 0
30.3 0.5 0
0 0.6 0
0.3 0.6 0
0.6 0.6 0
0.9 0.6 0
1.2 0.6 0
1.5 0.6 0
1.8 0.6 0
2.1 0.6 0
2.4 0.6 0
2.7 0.6 0
3 0.6 0
3.3 0.6 0
3.6 0.6 0
3.9 0.6 0
4.2 0.6 0
4.5 0.6 0
4.8 0.6 0
5.1 0.6 0
5.4 0.6 0
5.7 0.6 0
6 0.6 0
6.3 0.6 0
6.6 0.6 0
6.9 0.6 0
7.2 0.6 0
7.5 0.6 0
7.8 0.6 0
8.1 0.6 0
8.4 0.6 0
8.7 0.6 0
9 0.6 0
9.3 0.6 0
9.6 0.6 0
9.9 0.6 0
10.2 0.6 0
10.5 0.6 0
10.8 0.6 0
11.1 0.6 0
11.4 0.6 0
11.7 0.6 0
12 0.6 0
12.3 0.6 0
12.6 0.6 0
12.9 0.6 0
13.2 0.6 0
13.5 0.6 0
13.8 0.6 0
14.1 0.6 0
14.4 0.6 0
14.7 0.6 0
15 0.6 0
15.3 0.6 0
15.6 0.6 0
15.9 0.6 0
16.2 0.6 0
16.5 0.6 0
16.8 0.6 0
17.1 0.6 0
17.4 0.6 0
17.7 0.6 0
18 0.6 0
18.3 0.6 0
18.6 0.6 0
18.9 0.6 0
19.2 0.6 0
19.5 0.6 0
19.8 0.6 0
20.1 0.6 0
20.4 0.6 0
20.7 0.6 0
21 0.6 0
21.3 0.6 0
21.6 0.6 0
21.9 0.6 0
22.2 0.6 0
22.5 0.6 0
22.8 0.6 0
23.1 0.6 0
23.4 0.6 0
23.7 0.6 0
24 0.6 0
24.3 0.6 0
24.6 0.6 0
24.9 0.6 0
25.2 0.6 0
25.5 0.6 0
25.8 0.6 0
26.1 0.6 0
26.4 0.6 0
26.7 0.6 0
27 0.6 0
27.3 0.6 0
27.6 0.6 0
27.9 0.6 0
28.2 0.6 0
28.5 0.6 0
28.8 0.6 0
29.1 0.6 0
29.4 0.6 0
29.7 0.6 0
30 0.6 0
30.3 0.6 0
0 0.7 0
0.3 0.7 0
0.6 0.7 0
0.9 0.7 0
1.2 0.7 0
1.5 0.7 0
1.8 0.7 0
2.1 0.7 0
2.4 0.7 0
2.7 0.7 0
3 0.7 0
3.3 0.7 0
3.6 0.7 0
3.9 0.7 0
4.2 0.7 0
4.5 0.7 0
4.8 0.7 0
5.1 0.7 0
5.4 0.7 0
5.7 0.7 0
6 0.7 0
6.3 0.7 0
6.6 0.7 0
6.9 0.7 0
7.2 0.7 0
7.5 0.7 0
7.8 0.7 0
8.1 0.7 0
8.4 0.7 0
8.7 0.7 0
9 0.7 0
9.3 0.7 0
9.6 0.7 0
9.9 0.7 0
10.2 0.7 0
10.5 0.7 0
10.8 0.7 0
11.1 0.7 0
11.4 0.7 0
11.7 0.7 0
12 0.7 0
12.3 0.7 0
12.6 0.7 0
12.9 0.7 0
13.2 0.7 0
13.5 0.7 0
13.8 0.7 0
14.1 0.7 0
14.4 0.7 0
14.7 0.7 0
15 0.7 0
15.3 0.7 0
15.6 0.7 0
15.9 0.7 0
16.2 0.7 0
16.5 0.7 0
16.8 0.7 0
17.1 0.7 0
17.4 0.7 0
17.7 0.7 0
18 0.7 0
18.3 0.7 0
18.6 0.7 0
18.9 0.7 0
19.2 0.7 0
19.5 0.7 0
19.8 0.7 0
20.1 0.7 0
20.4 0.7 0
20.7 0.7 0
21 0.7 0
21.3 0.7 0
21.6 0.7 0
21.9 0.7 0
22.2 0.7 0
22.5 0.7 0
22.8 0.7 0
23.1 0.7 0
23.4 0.7 0
23.7 0.7 0
24 0.7 0
24.3 0.7 0
24.6 0.7 0
24.9 0.7 0
25.2 0.7 0
25.5 0.7 0
25.8 0.7 0
26.1 0.7 0
26.4 0.7 0
26.7 0.7 0
27 0.7 0
27.3 0.7 0
27.6 0.7 0
27.9 0.7 0
28.2 0.7 0
28.5 0.7 0
28.8 0.7 0
29.1 0.7 0
29.4 0.7 0
29.7 0.7 0
30 0.7 0
30.3 0.7 0
0 0.8 0
0.3 0.8 0
0.6 0.8 0
0.9 0.8 0
1.2 0.8 0
1.5 0.8 0
1.8 0.8 0
2.1 0.8 0
2.4 0.8 0
2.7 0.8 0
3 0.8 0
3.3 0.8 0
3.6 0.8 0
3.9 0.8 0
4.2 0.8 0
4.5 0.8 0
4.8 0.8 0
5.1 0.8 0
5.4 0.8 0
5.7 0.8 0
6 0.8 0
6.3 0.8 0
6.6 0.8 0
6.9 0.8 0
7.2 0.8 0
7.5 0.8 0
7.8 0.8 0
8.1 0.8 0
8.4 0.8 0
8.7 0.8 0
9 0.8 0
9.3 0.8 0
9.6 0.8 0
9.9 0.8 0
10.2 0.8 0
10.5 0.8 0
10.8 0.8 0
11.1 0.8 0
11.4 0.8 0
11.7 0.8 0
12 0.8 0
12.3 0.8 0
12.6 0.8 0
12.9 0.8 0
13.2 0.8 0
13.5 0.8 0
13.8 0.8 0
14.1 0.8 0
14.4 0.8 0
14.7 0.8 0
15 0.8 0
15.3 0.8 0
15.6 0.8 0
15.9 0.8 0
16.2 0.8 0
16.5 0.8 0
16.8 0.8 0
17.1 0.8 0
17.4 0.8 0
17.7 0.8 0
18 0.8 0
18.3 0.8 0
18.6 0.8 0
18.9 0.8 0
19.2 0.8 0
19.5 0.8 0
19.8 0.8 0
20.1 0.8 0
20.4 0.8 0
20.7 0.8 0
21 0.8 0
21.3 0.8 0
21.6 0.8 0
21.9 0.8 0
22.2 0.8 0
22.5 0.8 0
22.8 0.8 0
23.1 0.8 0
23.4 0.8 0
23.7 0.8 0
24 0.8 0
24.3 0.8 0
24.6 0.8 0
24.9 0.8 0
25.2 0.8 0
25.5 0.8 0
25.8 0.8 0
26.1 0.8 0
26.4 0.8 0
26.7 0.8 0
27 0.8 0
27.3 0.8 0
27.6 0.8 0
27.9 0.8 0
28.2 0.8 0
28.5 0.8 0
28.8 0.8 0
29.1 0.8 0
29.4 0.8 0
29.7 0.8 0
30 0.8 0
30.3 0.8 0
0 0.9 0
0.3 0.9 0
0.6 0.9 0
0.9 0.9 0
1.2 0.9 0
1.5 0.9 0
1.8 0.9 0
2.1 0.9 0
2.4 0.9 0
2.7 0.9 0
3 0.9 0
3.3 0.9 0
3.6 0.9 0
3.9 0.9 0
4.2 0.9 0
4.5 0.9 0
4.8 0.9 0
5.1 0.9 0
5.4 0.9 0
5.7 0.9 0
6 0.9 0
6.3 0.9 0
6.6 0.9 0
6.9 0.9 0
7.2 0.9 0
7.5 0.9 0
7.8 0.9 0
8.1 0.9 0
8.4 0.9 0
8.7 0.9 0
9 0.9 0
9.3 0.9 0
9.6 0.9 0
9.9 0.9 0
10.2 0.9 0
10.5 0.9 0
10.8 0.9 0
11.1 0.9 0
11.4 0.9 0
11.7 0.9 0
12 0.9 0
12.3 0.9 0
12.6 0.9 0
12.9 0.9 0
13.2 0.9 0
13.5 0.9 0
13.8 0.9 0
14.1 0.9 0
14.4 0.9 0
14.7 0.9 0
15 0.9 0
15.3 0.9 0
15.6 0.9 0
15.9 0.9 0
16.2 0.9 0
16.5 0.9 0
16.8 0.9 0
17.1 0.9 0
17.4 0.9 0
17.7 0.9 0
18 0.9 0
18.3 0.9 0
18.6 0.9 0
18.9 0.9 0
19.2 0.9 0
19.5 0.9 0
19.8 0.9 0
20.1 0.9 0
20.4 0.9 0
20.7 0.9 0
21 0.9 0
21.3 0.9 0
21.6 0.9 0
21.9 0.9 0
22.2 0.9 0
22.5 0.9 0
22.8 0.9 0
23.1 0.9 0
23.4 0.9 0
23.7 0.9 0
24 0.9 0
24.3 0.9 0
24.6 0.9 0
24.9 0.9 0
25.2 0.9 0
25.5 0.9 0
25.8 0.9 0
26.1 0.9 0
26.4 0.9 0
26.7 0.9 0
27 0.9 0
27.3 0.9 0
27.6 0.9 0
27.9 0.9 0
28.2 0.9 0
28.5 0.9 0
28.8 0.9 0
29.1 0.9 0
29.4 0.9 0
29.7 0.9 0
30 0.9 0
30.3 0.9 0
0 1 0
0.3 1 0
0.6 1 0
0.9 1 0
1.2 1 0
1.5 1 0
1.8 1 0
2.1 1 0
2.4 1 0
2.7 1 0
3 1 0
3.3 1 0
3.6 1 0
3.9 1 0
4.2 1 0
4.5 1 0
4.8 1 0
5.1 1 0
5.4 1 0
5.7 1 0
6 1 0
6.3 1 0
6.6 1 0
6.9 1 0
7.2 1 0
7.5 1 0
7.8 1 0
8.1 1 0
8.4 1 0
8.7 1 0
9 1 0
9.3 1 0
9.6 1 0
9.9 1 0
10.2 1 0
10.5 1 0
10.8 1 0
11.1 1 0
11.4 1 0
11.7 1 0
12 1 0
12.3 1 0
12.6 1 0
12.9 1 0
13.2 1 0
13.5 1 0
13.8 1 0
14.1 1 0
14.4 1 0
14.7 1 0
15 1 0
15.3 1 0
15.6 1 0
15.9 1 0
16.2 1 0
16.5 1 0
16.8 1 0
17.1 1 0
17.4 1 0
17.7 1 0
18 1 0
18.3 1 0
18.6 1 0
18.9 1 0
19.2 1 0
19.5 1 0
19.8 1 0
20.1 1 0
20.4 1 0
20.7 1 0
21 1 0
21.3 1 0
21.6 1 0
21.9 1 0
22.2 1 0
22.5 1 0
22.8 1 0
23.1 1 0
23.4 1 0
23.7 1 0
24 1 0
24.3 1 0
24.6 1 0
24.9 1 0
25.2 1 0
25.5 1 0
25.8 1 0
26.1 1 0
26.4 1 0
26.7 1 0
27 1 0
27.3 1 0
27.6 1 0
27.9 1 0
28.2 1 0
28.5 1 0
28.8 1 0
29.1 1 0
29.4 1 0
29.7 1 0
30 1 0
30.3 1 0
0 1.1 0
0.3 1.1 0
0.6 1.1 0
0.9 1.1 0
1.2 1.1 0
1.5 1.1 0
1.8 1.1 0
2.1 1.1 0
2.4 1.1 0
2.7 1.1 0
3 1.1 0
3.3 1.1 0
3.6 1.1 0
3.9 1.1 0
4.2 1.1 0
4.5 1.1 0
4.8 1.1 0
5.1 1.1 0
5.4 1.1 0
5.7 1.1 0
6 1.1 0
6.3 1.1 0
6.6 1.1 0
6.9 1.1 0
7.2 1.1 0
7.5 1.1 0
7.8 1.1 0
8.1 1.1 0
8.4 1.1 0
8.7 1.1 0
9 1.1 0
9.3 1.1 0
9.6 1.1 0
9.9 1.1 0
10.2 1.1 0
10.5 1.1 0
10.8 1.1 0
11.1 1.1 0
11.4 1.1 0
11.7 1.1 0
12 1.1 0
12.3 1.1 0
12.6 1.1 0
12.9 1.1 0
13.2 1.1 0
13.5 1.1 0
13.8 1.1 0
14.1 1.1 0
14.4 1.1 0
14.7 1.1 0
15 1.1 0
15.3 1.1 0
15.6 1.1 0
15.9 1.1 0
16.2 1.1 0
16.5 1.1 0
16.8 1.1 0
17.1 1.1 0
17.4 1.1 0
17.7 1.1 0
18 1.1 0
18.3 1.1 0
18.6 1.1 0
18.9 1.1 0
19.2 1.1 0
19.5 1.1 0
19.8 1.1 0
20.1 1.1 0
20.4 1.1 0
20.7 1.1 0
21 1.1 0
21.3 1.1 0
21.6 1.1 0
21.9 1.1 0
22.2 1.1 0
22.5 1.1 0
22.8 1.1 0
23.1 1.1 0
23.4 1.1 0
23.7 1.1 0
24 1.1 0
24.3 1.1 0
24.6 1.1 0
24.9 1.1 0
25.2 1.1 0
25.5 1.1 0
25.8 1.1 0
26.1 1.1 0
26.4 1.1 0
26.7 1.1 0
27 1.1 0
27.3 1.1 0
27.6 1.1 0
27.9 1.1 0
28.2 1.1 0
28.5 1.1 0
28.8 1.1 0
29.1 1.1 0
29.4 1.1 0
29.7 1.1 0
30 1.1 0
30.3 1.1 0

POINT_DATA 1224

SCALARS pressure double
LOOKUP_TABLE pressure
1.31737
1.31737
1.25086
1.20378
1.16083
1.12117
1.08515
1.05277
1.02367
0.99733
0.97322
0.950867
0.929894
0.910013
0.891007
0.872717
0.855026
0.837845
0.821105
0.804755
0.788752
0.77306
0.75765
0.742497
0.72758
0.712879
0.698377
0.684059
0.66991
0.655919
0.642075
0.628365
0.614782
0.601317
0.58796
0.574706
0.561546
0.548476
0.535489
0.522581
0.509748
0.496986
0.484293
0.471667
0.459104
0.446603
0.434161
0.421777
0.409447
0.397168
0.384937
0.37275
0.360602
0.34849
0.336408
0.324354
0.312322
0.300309
0.288311
0.276326
0.264352
0.252385
0.240424
0.228467
0.216514
0.204563
0.192615
0.180667
0.16872
0.156774
0.144829
0.132884
0.120938
0.108993
0.0970484
0.0851035
0.0731587
0.0612138
0.049269
0.0373242
0.0253794
0.0134346
0.00148975
-0.0104551
-0.0223999
-0.0343447
-0.0462895
-0.0582343
-0.0701791
-0.0821239
-0.0940687
-0.106013
-0.117958
-0.129903
-0.141848
-0.153793
-0.165737
-0.177682
-0.189627
-0.201572
-0.213512
0.213512
1.31737
1.31737
1.25086
1.20378
1.16083
1.12117
1.08515
1.05277
1.02367
0.99733
0.97322
0.950867
0.929894
0.910013
0.891007
0.872717
0.855026
0.837845
0.821105
0.804755
0.788752
0.77306
0.75765
0.742497
0.72758
0.712879
0.698377
0.684059
0.66991
0.655919
0.642075
0.628365
0.614782
0.601317
0.58796
0.574706
0.561546
0.548476
0.535489
0.522581
0.509748
0.496986
0.484293
0.471667
0.459104
0.446603
0.434161
0.421777
0.409447
0.397168
0.384937
0.37275
0.360602
0.34849
0.336408
0.324354
0.312322
0.300309
0.288311
0.276326
0.264352
0.252385
0.240424
0.228467
0.216514
0.204563
0.192615
0.180667
0.16872
0.156774
0.144829
0.132884
0.120938
0.108993
0.0970484
0.0851035
0.0731587
0.0612138
0.049269
0.0373242
0.0253794
0.0134346
0.00148975
-0.0104551
-0.0223999
-0.0343447
-0.0462895
-0.0582343
-0.0701791
-0.0821239
-0.0940687
-0.106013
-0.117958
-0.129903
-0.141848
-0.153793
-0.165737
-0.177682
-0.189627
-0.201572
-0.213512
0.213512
1.29672
1.29672
1.24906
1.2041
1.16155
1.12194
1.08586
1.05336
1.02414
0.9977
0.973506
0.951088
0.930067
0.91015
0.891118
0.872809
0.855103
0.837911
0.821163
0.804806
0.788797
0.7731
0.757686
0.74253
0.72761
0.712906
0.698402
0.684081
0.669931
0.655939
0.642092
0.628382
0.614798
0.601331
0.587973
0.574718
0.561557
0.548486
0.535498
0.52259
0.509756
0.496993
0.4843
0.471672
0.459109
0.446607
0.434165
0.42178
0.409449
0.39717
0.384938
0.372751
0.360603
0.34849
0.336408
0.324354
0.312322
0.300309
0.288311
0.276326
0.264351
0.252384
0.240423
0.228467
0.216514
0.204563
0.192615
0.180667
0.16872
0.156774
0.144829
0.132884
0.120938
0.108993
0.0970484
0.0851035
0.0731587
0.0612138
0.049269
0.0373242
0.0253794
0.0134346
0.00148975
-0.0104551
-0.0223999
-0.0343447
-0.0462895
-0.0582343
-0.0701791
-0.0821239
-0.0940687
-0.106013
-0.117958
-0.129903
-0.141848
-0.153793
-0.165737
-0.177682
-0.189627
-0.201572
-0.213512
0.213512
1.28234
1.28234
1.24656
1.20449
1.16268
1.12321
1.08703
1.05435
1.02493
0.998307
0.973962
0.951429
0.930323
0.910344
0.891268
0.872928
0.855199
0.83799
0.821229
0.804862
0.788845
0.773142
0.757723
0.742563
0.727639
0.712933
0.698426
0.684103
0.669951
0.655956
0.642108
0.628397
0.614811
0.601343
0.587985
0.574728
0.561567
0.548495
0.535507
0.522597
0.509763
0.497
0.484305
0.471677
0.459113
0.446611
0.434168
0.421783
0.409451
0.397172
0.38494
0.372752
0.360603
0.348491
0.336409
0.324354
0.312322
0.300309
0.288311
0.276326
0.264351
0.252384
0.240423
0.228467
0.216514
0.204563
0.192615
0.180667
0.16872
0.156774
0.144829
0.132884
0.120938
0.108993
0.0970484
0.0851035
0.0731587
0.0612138
0.049269
0.0373242
0.0253794
0.0134346
0.00148975
-0.0104551
-0.0223999
-0.0343447
-0.0462895
-0.0582343
-0.0701791
-0.0821239
-0.0940687
-0.106013
-0.117958
-0.129903
-0.141848
-0.153793
-0.165737
-0.177682
-0.189627
-0.20157
-0.213511
0.213511
1.27365
1.27365
1.24455
1.20475
1.1636
1.12429
1.08806
1.05525
1.02567
0.998886
0.97441
0.951774
0.930589
0.910552
0.891433
0.873061
0.855308
0.838081
0.821307
0.804929
0.788903
0.773193
0.757768
0.742603
0.727675
0.712964
0.698454
0.684129
0.669974
0.655978
0.642128
0.628414
0.614827
0.601358
0.587998
0.574741
0.561578
0.548506
0.535516
0.522606
0.509771
0.497008
0.484313
0.471684
0.45912
0.446617
0.434174
0.421788
0.409456
0.397176
0.384943
0.372755
0.360606
0.348493
0.336411
0.324355
0.312323
0.30031
0.288312
0.276327
0.264352
0.252385
0.240424
0.228467
0.216514
0.204563
0.192615
0.180667
0.16872
0.156774
0.144829
0.132884
0.120938
0.108993
0.0970484
0.0851035
0.0731587
0.0612138
0.049269
0.0373242
0.0253794
0.0134346
0.00148975
-0.0104551
-0.0223999
-0.0343447
-0.0462895
-0.0582343
-0.0701791
-0.0821239
-0.0940687
-0.106013
-0.117958
-0.129903
-0.141848
-0.153793
-0.165737
-0.177682
-0.189626
-0.201567
-0.213509
0.213509
1.26957
1.26957
1.24346
1.20487
1.1641
1.12488
1.08863
1.05575
1.02608
0.99922
0.974674
0.951981
0.930752
0.910682
0.891539
0.873148
0.855382
0.838143
0.82136
0.804976
0.788944
0.77323
0.757801
0.742632
0.727701
0.712988
0.698476
0.684148
0.669992
0.655994
0.642143
0.628428
0.61484
0.601369
0.588009
0.57475
0.561587
0.548514
0.535524
0.522614
0.509778
0.497014
0.484319
0.47169
0.459125
0.446622
0.434179
0.421792
0.40946
0.39718
0.384947
0.372758
0.360609
0.348495
0.336413
0.324357
0.312324
0.300311
0.288313
0.276328
0.264352
0.252385
0.240424
0.228467
0.216514
0.204564
0.192615
0.180667
0.168721
0.156774
0.144829
0.132884
0.120938
0.108993
0.0970484
0.0851035
0.0731587
0.0612138
0.049269
0.0373242
0.0253794
0.0134346
0.00148975
-0.0104551
-0.0223999
-0.0343447
-0.0462895
-0.0582343
-0.0701791
-0.0821239
-0.0940687
-0.106013
-0.117958
-0.129903
-0.141848
-0.153793
-0.165737
-0.177682
-0.189626
-0.201564
-0.213508
0.213508
1.26957
1.26957
1.24346
1.20487
1.1641
1.12488
1.08863
1.05575
1.02608
0.99922
0.974674
0.951981
0.930752
0.910682
0.891539
0.873148
0.855382
0.838143
0.82136
0.804976
0.788944
0.77323
0.757801
0.742632
0.727701
0.712988
0.698476
0.684148
0.669992
0.655994
0.642143
0.628428
0.61484
0.601369
0.588009
0.57475
0.561587
0.548514
0.535524
0.522614
0.509778
0.497014
0.484319
0.47169
0.459125
0.446622
0.434179
0.421792
0.40946
0.39718
0.384947
0.372758
0.360609
0.348495
0.336413
0.324357
0.312324
0.300311
0.288313
0.276328
0.264352
0.252385
0.240424
0.228467
0.216514
0.204564
0.192615
0.180667
0.168721
0.156774
0.144829
0.132884
0.120938
0.108993
0.0970484
0.0851035
0.0731587
0.0612138
0.049269
0.0373242
0.0253794
0.0134346
0.00148975
-0.0104551
-0.0223999
-0.0343447
-0.0462895
-0.0582343
-0.0701791
-0.0821239
-0.0940687
-0.106013
-0.117958
-0.129903
-0.141848
-0.153793
-0.165737
-0.177682
-0.189626
-0.201564
-0.213508
0.213508
1.27365
1.27365
1.24455
1.20475
1.1636
1.12429
1.08806
1.05525
1.02567
0.998886
0.97441
0.951774
0.930589
0.910552
0.891433
0.873061
0.855308
0.838081
0.821307
0.804929
0.788903
0.773193
0.757768
0.742603
0.727675
0.712964
0.698454
0.684129
0.669974
0.655978
0.642128
0.628414
0.614827
0.601358
0.587998
0.574741
0.561578
0.548506
0.535516
0.522606
0.509771
0.497008
0.484313
0.471684
0.45912
0.446617
0.434174
0.421788
0.409456
0.397176
0.384943
0.372755
0.360606
0.348493
0.336411
0.324355
0.312323
0.30031
0.288312
0.276327
0.264352
0.252385
0.240424
0.228467
0.216514
0.204563
0.192615
0.180667
0.16872
0.156774
0.144829
0.132884
0.120938
0.108993
0.0970484
0.0851035
0.0731587
0.0612138
0.049269
0.0373242
0.0253794
0.0134346
0.00148975
-0.0104551
-0.0223999
-0.0343447
-0.0462895
-0.0582343
-0.0701791
-0.0821239
-0.0940687
-0.106013
-0.117958
-0.129903
-0.141848
-0.153793
-0.165737
-0.177682
-0.189626
-0.201567
-0.213509
0.213509
1.28234
1.28234
1.24656
1.20449
1.16268
1.12321
1.08703
1.05435
1.02493
0.998307
0.973962
0.951429
0.930323
0.910344
0.891268
0.872928
0.855199
0.83799
0.821229
0.804862
0.788845
0.773142
0.757723
0.742563
0.727639
0.712933
0.698426
0.684103
0.669951
0.655956
0.642108
0.628397
0.614811
0.601343
0.587985
0.574728
0.561567
0.548495
0.535507
0.522597
0.509763
0.497
0.484305
0.471677
0.459113
0.446611
0.434168
0.421783
0.409451
0.397172
0.38494
0.372752
0.360603
0.348491
0.336409
0.324354
0.312322
0.300309
0.288311
0.276326
0.264351
0.252384
0.240423
0.228467
0.216514
0.204563
0.192615
0.180667
0.16872
0.156774
0.144829
0.132884
0.120938
0.108993
0.0970484
0.0851035
0.0731587
0.0612138
0.049269
0.0373242
0.0253794
0.0134346
0.00148975
-0.0104551
-0.0223999
-0.0343447
-0.0462895
-0.0582343
-0.0701791
-0.0821239
-0.0940687
-0.106013
-0.117958
-0.129903
-0.141848
-0.153793
-0.165737
-0.177682
-0.189627
-0.20157
-0.213511
0.213511
1.29672
1.29672
1.24906
1.2041
1.16155
1.12194
1.08586
1.05336
1.02414
0.9977
0.973506
0.951088
0.930067
0.91015
0.891118
0.872809
0.855103
0.837911
0.821163
0.804806
0.788797
0.7731
0.757686
0.74253
0.72761
0.712906
0.698402
0.684081
0.669931
0.655939
0.642092
0.628382
0.614798
0.601331
0.587973
0.574718
0.561557
0.548486
0.535498
0.52259
0.509756
0.496993
0.4843
0.471672
0.459109
0.446607
0.434165
0.42178
0.409449
0.39717
0.384938
0.372751
0.360603
0.34849
0.336408
0.324354
0.312322
0.300309
0.288311
0.276326
0.264351
0.252384
0.240423
0.228467
0.216514
0.204563
0.192615
0.180667
0.16872
0.156774
0.144829
0.132884
0.120938
0.108993
0.0970484
0.0851035
0.0731587
0.0612138
0.049269
0.0373242
0.0253794
0.0134346
0.00148975
-0.0104551
-0.0223999
-0.0343447
-0.0462895
-0.0582343
-0.0701791
-0.0821239
-0.0940687
-0.106013
-0.117958
-0.129903
-0.141848
-0.153793
-0.165737
-0.177682
-0.189627
-0.201572
-0.213512
0.213512
1.31737
1.31737
1.25086
1.20378
1.16083
1.12117
1.08515
1.05277
1.02367
0.99733
0.97322
0.950867
0.929894
0.910013
0.891007
0.872717
0.855026
0.837845
0.821105
0.804755
0.788752
0.77306
0.75765
0.742497
0.72758
0.712879
0.698377
0.684059
0.66991
0.655919
0.642075
0.628365
0.614782
0.601317
0.58796
0.574706
0.561546
0.548476
0.535489
0.522581
0.509748
0.496986
0.484293
0.471667
0.459104
0.446603
0.434161
0.421777
0.409447
0.397168
0.384937
0.37275
0.360602
0.34849
0.336408
0.324354
0.312322
0.300309
0.288311
0.276326
0.264352
0.252385
0.240424
0.228467
0.216514
0.204563
0.192615
0.180667
0.16872
0.156774
0.144829
0.132884
0.120938
0.108993
0.0970484
0.0851035
0.0731587
0.0612138
0.049269
0.0373242
0.0253794
0.0134346
0.00148975
-0.0104551
-0.0223999
-0.0343447
-0.0462895
-0.0582343
-0.0701791
-0.0821239
-0.0940687
-0.106013
-0.117958
-0.129903
-0.141848
-0.153793
-0.165737
-0.177682
-0.189627
-0.201572
-0.213512
0.213512
1.31737
1.31737
1.25086
1.20378
1.16083
1.12117
1.08515
1.05277
1.02367
0.99733
0.97322
0.950867
0.929894
0.910013
0.891007
0.872717
0.855026
0.837845
0.821105
0.804755
0.788752
0.77306
0.75765
0.742497
0.72758
0.712879
0.698377
0.684059
0.66991
0.655919
0.642075
0.628365
0.614782
0.601317
0.58796
0.574706
0.561546
0.548476
0.535489
0.522581
0.509748
0.496986
0.484293
0.471667
0.459104
0.446603
0.434161
0.421777
0.409447
0.397168
0.384937
0.37275
0.360602
0.34849
0.336408
0.324354
0.312322
0.300309
0.288311
0.276326
0.264352
0.252385
0.240424
0.228467
0.216514
0.204563
0.192615
0.180667
0.16872
0.156774
0.144829
0.132884
0.120938
0.108993
0.0970484
0.0851035
0.0731587
0.0612138
0.049269
0.0373242
0.0253794
0.0134346
0.00148975
-0.0104551
-0.0223999
-0.0343447
-0.0462895
-0.0582343
-0.0701791
-0.0821239
-0.0940687
-0.106013
-0.117958
-0.129903
-0.141848
-0.153793
-0.165737
-0.177682
-0.189627
-0.201572
-0.213512
0.213512
SCALARS phi double
LOOKUP_TABLE phi
1
1
1
0.999995
0.999977
0.999931
0.999833
0.999654
0.999363
0.998928
0.998323
0.997524
0.996509
0.995265
0.993814
0.992193
0.990355
0.988046
0.98473
0.979644
0.971965
0.960994
0.946299
0.927751
0.905491
0.879849
0.851269
0.820241
0.787263
0.752813
0.717337
0.681241
0.64489
0.608602
0.572652
0.537273
0.502656
0.468955
0.43629
0.404754
0.374413
0.345314
0.317484
0.290939
0.265686
0.241722
0.21904
0.197632
0.177486
0.158592
0.140937
0.124511
0.109302
0.0952957
0.0824764
0.0708236
0.0603116
0.0509074
0.0425705
0.0352518
0.0288938
0.0234313
0.0187928
0.0149016
0.0116784
0.00904315
0.0069172
0.00522541
0.00389772
0.00287035
0.00208658
0.00149718
0.00106026
0.000741029
0.000511123
0.000347919
0.00023372
0.000154948
0.000101383
6.54712e-05
4.17316e-05
2.62565e-05
1.63078e-05
9.99947e-06
6.0536e-06
3.61863e-06
2.13604e-06
1.24523e-06
7.16974e-07
4.07772e-07
2.29105e-07
1.27174e-07
6.97514e-08
3.78045e-08
2.02495e-08
1.07204e-08
5.61015e-09
2.9025e-09
1.48398e-09
7.5459e-10
3.51075e-10
3.51075e-10
1
1
1
0.999995
0.999977
0.999931
0.999833
0.999654
0.999363
0.998928
0.998323
0.997524
0.996509
0.995265
0.993814
0.992193
0.990355
0.988046
0.98473
0.979644
0.971965
0.960994
0.946299
0.927751
0.905491
0.879849
0.851269
0.820241
0.787263
0.752813
0.717337
0.681241
0.64489
0.608602
0.572652
0.537273
0.502656
0.468955
0.43629
0.404754
0.374413
0.345314
0.317484
0.290939
0.265686
0.241722
0.21904
0.197632
0.177486
0.158592
0.140937
0.124511
0.109302
0.0952957
0.0824764
0.0708236
0.0603116
0.0509074
0.0425705
0.0352518
0.0288938
0.0234313
0.0187928
0.0149016
0.0116784
0.00904315
0.0069172
0.00522541
0.00389772
0.00287035
0.00208658
0.00149718
0.00106026
0.000741029
0.000511123
0.000347919
0.00023372
0.000154948
0.000101383
6.54712e-05
4.17316e-05
2.62565e-05
1.63078e-05
9.99947e-06
6.0536e-06
3.61863e-06
2.13604e-06
1.24523e-06
7.16974e-07
4.07772e-07
2.29105e-07
1.27174e-07
6.97514e-08
3.78045e-08
2.02495e-08
1.07204e-08
5.61015e-09
2.9025e-09
1.48398e-09
7.5459e-10
3.51075e-10
3.51075e-10
0.999998
1
0.999984
0.999921
0.999783
0.999536
0.999146
0.99858
0.997811
0.996819
0.995589
0.994116
0.992397
0.990434
0.988236
0.985822
0.983211
0.980387
0.977254
0.973607
0.969127
0.963427
0.956107
0.946808
0.935266
0.921321
0.90493
0.886144
0.8651
0.84199
0.817054
0.790551
0.762756
0.733942
0.704374
0.674302
0.643958
0.613551
0.583266
0.553263
0.523676
0.494615
0.466167
0.438396
0.411348
0.385047
0.359507
0.334728
0.310704
0.287422
0.264873
0.243049
0.221954
0.201599
0.182012
0.163233
0.145317
0.128328
0.112337
0.0974162
0.08363
0.0710318
0.0596567
0.0495175
0.0406025
0.032875
0.0262753
0.0207237
0.0161258
0.0123771
0.009369
0.0069935
0.00514738
0.00373547
0.00267277
0.00188553
0.00131152
0.00089949
0.000608312
0.000405688
0.000266827
0.000173092
0.000110759
6.99157e-05
4.35428e-05
2.67578e-05
1.62267e-05
9.71188e-06
5.73754e-06
3.34618e-06
1.92676e-06
1.0955e-06
6.15123e-07
3.41134e-07
1.86877e-07
1.01136e-07
5.40793e-08
2.85759e-08
1.49147e-08
7.74383e-09
3.66284e-09
3.66284e-09
1.00001
0.999992
0.99954
0.998615
0.997207
0.995316
0.992954
0.990144
0.986922
0.983331
0.979421
0.975241
0.970836
0.966247
0.961512
0.956663
0.95173
0.946737
0.941694
0.936585
0.931362
0.925934
0.920175
0.913931
0.907036
0.899323
0.890642
0.880866
0.869899
0.857681
0.844186
0.829418
0.813413
0.796233
0.777959
0.758689
0.738531
0.717602
0.696022
0.673911
0.651384
0.628551
0.605511
0.582353
0.559149
0.535957
0.512817
0.48975
0.466761
0.443834
0.420941
0.398038
0.375082
0.352028
0.328847
0.305533
0.282112
0.258654
0.235275
0.212136
0.189439
0.167412
0.1463
0.12634
0.107749
0.0907034
0.0753312
0.0617018
0.0498258
0.0396582
0.0311064
0.0240404
0.018305
0.0137311
0.0101471
0.00738724
0.00529837
0.00374409
0.00260692
0.00178865
0.00120944
0.000806029
0.000529518
0.000342948
0.000219004
0.000137914
8.56569e-05
5.24774e-05
3.17176e-05
1.89151e-05
1.11317e-05
6.46569e-06
3.70711e-06
2.09838e-06
1.17279e-06
6.47292e-07
3.52847e-07
1.90002e-07
1.01017e-07
5.34311e-08
2.56932e-08
2.56932e-08
1.00143
0.99857
0.991252
0.98188
0.971566
0.96086
0.950051
0.939311
0.928756
0.918467
0.908503
0.898898
0.889671
0.880827
0.87236
0.864261
0.856512
0.849098
0.841999
0.835194
0.828656
0.822351
0.816236
0.810255
0.804342
0.798423
0.792416
0.786235
0.779796
0.773017
0.765822
0.758146
0.749931
0.741133
0.73172
0.721673
0.710981
0.699647
0.687685
0.675115
0.661965
0.64827
0.634067
0.619395
0.604292
0.588794
0.572929
0.556719
0.540169
0.523269
0.505987
0.488268
0.47003
0.45117
0.431569
0.411104
0.389666
0.367183
0.343637
0.319086
0.293674
0.267635
0.241286
0.21501
0.189226
0.164362
0.14082
0.118947
0.0990134
0.0811976
0.0655835
0.052164
0.0408524
0.0314997
0.0239125
0.0178721
0.0131516
0.00952933
0.00679931
0.00477784
0.00330686
0.00225461
0.00151448
0.00100242
0.000653886
0.00042042
0.000266479
0.000166536
0.000102634
6.23851e-05
3.74062e-05
2.21283e-05
1.29171e-05
7.44145e-06
4.23149e-06
2.37541e-06
1.3166e-06
7.20656e-07
3.89336e-07
2.09266e-07
1.02141e-07
1.02141e-07
1.0456
0.954401
0.887723
0.838674
0.801641
0.772861
0.749886
0.731119
0.715499
0.702298
0.691001
0.681228
0.672693
0.665173
0.658493
0.652515
0.647126
0.642236
0.637772
0.633674
0.629891
0.62638
0.623104
0.620026
0.617112
0.614328
0.611636
0.609
0.606378
0.603729
0.601012
0.598182
0.595198
0.592019
0.588605
0.584921
0.580932
0.57661
0.57193
0.56687
0.561414
0.55555
0.549269
0.542567
0.535443
0.527897
0.519929
0.511538
0.502719
0.493453
0.483706
0.473419
0.462502
0.450829
0.438238
0.424536
0.409519
0.392987
0.374779
0.354803
0.33306
0.309668
0.28487
0.259029
0.232601
0.20611
0.180104
0.155109
0.131598
0.109952
0.0904452
0.0732333
0.0583606
0.0457708
0.035327
0.0268338
0.0200603
0.0147607
0.0106915
0.00762392
0.00535291
0.00370113
0.00252045
0.0016908
0.0011175
0.000727803
0.000467164
0.000295588
0.000184391
0.000113423
6.88088e-05
4.11758e-05
2.4309e-05
1.41608e-05
8.14097e-06
4.61954e-06
2.58774e-06
1.43132e-06
7.81257e-07
4.24276e-07
2.09126e-07
2.09126e-07
-0.0455988
0.0455988
0.112277
0.161327
0.198359
0.227139
0.250114
0.268881
0.284502
0.297702
0.308999
0.318772
0.327307
0.334827
0.341507
0.347485
0.352874
0.357764
0.362228
0.366327
0.37011
0.373618
0.376885
0.379939
0.382802
0.385493