# vtk DataFile Version 3.0
FlowField
ASCII
DATASET STRUCTURED_GRID
DIMENSIONS 22 17 12 
POINTS 4488 double
0 0 0
5 0 0
10 0 0
15 0 0
20 0 0
25 0 0
30 0 0
35 0 0
40 0 0
45 0 0
50 0 0
55 0 0
60 0 0
65 0 0
70 0 0
75 0 0
80 0 0
85 0 0
90 0 0
95 0 0
100 0 0
105 0 0
0 1 0
5 1 0
10 1 0
15 1 0
20 1 0
25 1 0
30 1 0
35 1 0
40 1 0
45 1 0
50 1 0
55 1 0
60 1 0
65 1 0
70 1 0
75 1 0
80 1 0
85 1 0
90 1 0
95 1 0
100 1 0
105 1 0
0 2 0
5 2 0
10 2 0
15 2 0
20 2 0
25 2 0
30 2 0
35 2 0
40 2 0
45 2 0
50 2 0
55 2 0
60 2 0
65 2 0
70 2 0
75 2 0
80 2 0
85 2 0
90 2 0
95 2 0
100 2 0
105 2 0
0 3 0
5 3 0
10 3 0
15 3 0
20 3 0
25 3 0
30 3 0
35 3 0
40 3 0
45 3 0
50 3 0
55 3 0
60 3 0
65 3 0
70 3 0
75 3 0
80 3 0
85 3 0
90 3 0
95 3 0
100 3 0
105 3 0
0 4 0
5 4 0
10 4 0
15 4 0
20 4 0
25 4 0
30 4 0
35 4 0
40 4 0
45 4 0
50 4 0
55 4 0
60 4 0
65 4 0
70 4 0
75 4 0
80 4 0
85 4 0
90 4 0
95 4 0
100 4 0
105 4 0
0 5 0
5 5 0
10 5 0
15 5 0
20 5 0
25 5 0
30 5 0
35 5 0
40 5 0
45 5 0
50 5 0
55 5 0
60 5 0
65 5 0
70 5 0
75 5 0
80 5 0
85 5 0
90 5 0
95 5 0
100 5 0
105 5 0
0 6 0
5 6 0
10 6 0
15 6 0
20 6 0
25 6 0
30 6 0
35 6 0
40 6 0
45 6 0
50 6 0
55 6 0
60 6 0
65 6 0
70 6 0
75 6 0
80 6 0
85 6 0
90 6 0
95 6 0
100 6 0
105 6 0
0 7 0
5 7 0
10 7 0
15 7 0
20 7 0
25 7 0
30 7 0
35 7 0
40 7 0
45 7 0
50 7 0
55 7 0
60 7 0
65 7 0
70 7 0
75 7 0
80 7 0
85 7 0
90 7 0
95 7 0
100 7 0
105 7 0
0 8 0
5 8 0
10 8 0
15 8 0
20 8 0
25 8 0
30 8 0
35 8 0
40 8 0
45 8 0
50 8 0
55 8 0
60 8 0
65 8 0
70 8 0
75 8 0
80 8 0
85 8 0
90 8 0
95 8 0
100 8 0
105 8 0
0 9 0
5 9 0
10 9 0
15 9 0
20 9 0
25 9 0
30 9 0
35 9 0
40 9 0
45 9 0
50 9 0
55 9 0
60 9 0
65 9 0
70 9 0
75 9 0
80 9 0
85 9 0
90 9 0
95 9 0
100 9 0
105 9 0
0 10 0
5 10 0
10 10 0
15 10 0
20 10 0
25 10 0
30 10 0
35 10 0
40 10 0
45 10 0
50 10 0
55 10 0
60 10 0
65 10 0
70 10 0
75 10 0
80 10 0
85 10 0
90 10 0
95 10 0
100 10 0
105 10 0
0 11 0
5 11 0
10 11 0
15 11 0
20 11 0
25 11 0
30 11 0
35 11 0
40 11 0
45 11 0
50 11 0
55 11 0
60 11 0
65 11 0
70 11 0
75 11 0
80 11 0
85 11 0
90 11 0
95 11 0
100 11 0
105 11 0
0 12 0
5 12 0
10 12 0
15 12 0
20 12 0
25 12 0
30 12 0
35 12 0
40 12 0
45 12 0
50 12 0
55 12 0
60 12 0
65 12 0
70 12 0
75 12 0
80 12 0
85 12 0
90 12 0
95 12 0
100 12 0
105 12 0
0 13 0
5 13 0
10 13 0
15 13 0
20 13 0
25 13 0
30 13 0
35 13 0
40 13 0
45 13 0
50 13 0
55 13 0
60 13 0
65 13 0
70 13 0
75 13 0
80 13 0
85 13 0
90 13 0
95 13 0
100 13 0
105 13 0
0 14 0
5 14 0
10 14 0
15 14 0
20 14 0
25 14 0
30 14 0
35 14 0
40 14 0
45 14 0
50 14 0
55 14 0
60 14 0
65 14 0
70 14 0
75 14 0
80 14 0
85 14 0
90 14 0
95 14 0
100 14 0
105 14 0
0 15 0
5 15 0
10 15 0
15 15 0
20 15 0
25 15 0
30 15 0
35 15 0
40 15 0
45 15 0
50 15 0
55 15 0
60 15 0
65 15 0
70 15 0
75 15 0
80 15 0
85 15 0
90 15 0
95 15 0
100 15 0
105 15 0
0 16 0
5 16 0
10 16 0
15 16 0
20 16 0
25 16 0
30 16 0
35 16 0
40 16 0
45 16 0
50 16 0
55 16 0
60 16 0
65 16 0
70 16 0
75 16 0
80 16 0
85 16 0
90 16 0
95 16 0
100 16 0
105 16 0
0 0 1
5 0 1
10 0 1
15 0 1
20 0 1
25 0 1
30 0 1
35 0 1
40 0 1
45 0 1
50 0 1
55 0 1
60 0 1
65 0 1
70 0 1
75 0 1
80 0 1
85 0 1
90 0 1
95 0 1
100 0 1
105 0 1
0 1 1
5 1 1
10 1 1
15 1 1
20 1 1
25 1 1
30 1 1
35 1 1
40 1 1
45 1 1
50 1 1
55 1 1
60 1 1
65 1 1
70 1 1
75 1 1
80 1 1
85 1 1
90 1 1
95 1 1
100 1 1
105 1 1
0 2 1
5 2 1
10 2 1
15 2 1
20 2 1
25 2 1
30 2 1
35 2 1
40 2 1
45 2 1
50 2 1
55 2 1
60 2 1
65 2 1
70 2 1
75 2 1
80 2 1
85 2 1
90 2 1
95 2 1
100 2 1
105 2 1
0 3 1
5 3 1
10 3 1
15 3 1
20 3 1
25 3 1
30 3 1
35 3 1
40 3 1
45 3 1
50 3 1
55 3 1
60 3 1
65 3 1
70 3 1
75 3 1
80 3 1
85 3 1
90 3 1
95 3 1
100 3 1
105 3 1
0 4 1
5 4 1
10 4 1
15 4 1
20 4 1
25 4 1
30 4 1
35 4 1
40 4 1
45 4 1
50 4 1
55 4 1
60 4 1
65 4 1
70 4 1
75 4 1
80 4 1
85 4 1
90 4 1
95 4 1
100 4 1
105 4 1
0 5 1
5 5 1
10 5 1
15 5 1
20 5 1
25 5 1
30 5 1
35 5 1
40 5 1
45 5 1
50 5 1
55 5 1
60 5 1
65 5 1
70 5 1
75 5 1
80 5 1
85 5 1
90 5 1
95 5 1
100 5 1
105 5 1
0 6 1
5 6 1
10 6 1
15 6 1
20 6 1
25 6 1
30 6 1
35 6 1
40 6 1
45 6 1
50 6 1
55 6 1
60 6 1
65 6 1
70 6 1
75 6 1
80 6 1
85 6 1
90 6 1
95 6 1
100 6 1
105 6 1
0 7 1
5 7 1
10 7 1
15 7 1
20 7 1
25 7 1
30 7 1
35 7 1
40 7 1
45 7 1
50 7 1
55 7 1
60 7 1
65 7 1
70 7 1
75 7 1
80 7 1
85 7 1
90 7 1
95 7 1
100 7 1
105 7 1
0 8 1
5 8 1
10 8 1
15 8 1
20 8 1
25 8 1
30 8 1
35 8 1
40 8 1
45 8 1
50 8 1
55 8 1
60 8 1
65 8 1
70 8 1
75 8 1
80 8 1
85 8 1
90 8 1
95 8 1
100 8 1
105 8 1
0 9 1
5 9 1
10 9 1
15 9 1
20 9 1
25 9 1
30 9 1
35 9 1
40 9 1
45 9 1
50 9 1
55 9 1
60 9 1
65 9 1
70 9 1
75 9 1
80 9 1
85 9 1
90 9 1
95 9 1
100 9 1
105 9 1
0 10 1
5 10 1
10 10 1
15 10 1
20 10 1
25 10 1
30 10 1
35 10 1
40 10 1
45 10 1
50 10 1
55 10 1
60 10 1
65 10 1
70 10 1
75 10 1
80 10 1
85 10 1
90 10 1
95 10 1
100 10 1
105 10 1
0 11 1
5 11 1
10 11 1
15 11 1
20 11 1
25 11 1
30 11 1
35 11 1
40 11 1
45 11 1
50 11 1
55 11 1
60 11 1
65 11 1
70 11 1
75 11 1
80 11 1
85 11 1
90 11 1
95 11 1
100 11 1
105 11 1
0 12 1
5 12 1
10 12 1
15 12 1
20 12 1
25 12 1
30 12 1
35 12 1
40 12 1
45 12 1
50 12 1
55 12 1
60 12 1
65 12 1
70 12 1
75 12 1
80 12 1
85 12 1
90 12 1
95 12 1
100 12 1
105 12 1
0 13 1
5 13 1
10 13 1
15 13 1
20 13 1
25 13 1
30 13 1
35 13 1
40 13 1
45 13 1
50 13 1
55 13 1
60 13 1
65 13 1
70 13 1
75 13 1
80 13 1
85 13 1
90 13 1
95 13 1
100 13 1
105 13 1
0 14 1
5 14 1
10 14 1
15 14 1
20 14 1
25 14 1
30 14 1
35 14 1
40 14 1
45 14 1
50 14 1
55 14 1
60 14 1
65 14 1
70 14 1
75 14 1
80 14 1
85 14 1
90 14 1
95 14 1
100 14 1
105 14 1
0 15 1
5 15 1
10 15 1
15 15 1
20 15 1
25 15 1
30 15 1
35 15 1
40 15 1
45 15 1
50 15 1
55 15 1
60 15 1
65 15 1
70 15 1
75 15 1
80 15 1
85 15 1
90 15 1
95 15 1
100 15 1
105 15 1
0 16 1
5 16 1
10 16 1
15 16 1
20 16 1
25 16 1
30 16 1
35 16 1
40 16 1
45 16 1
50 16 1
55 16 1
60 16 1
65 16 1
70 16 1
75 16 1
80 16 1
85 16 1
90 16 1
95 16 1
100 16 1
105 16 1
0 0 2
5 0 2
10 0 2
15 0 2
20 0 2
25 0 2
30 0 2
35 0 2
40 0 2
45 0 2
50 0 2
55 0 2
60 0 2
65 0 2
70 0 2
75 0 2
80 0 2
85 0 2
90 0 2
95 0 2
100 0 2
105 0 2
0 1 2
5 1 2
10 1 2
15 1 2
20 1 2
25 1 2
30 1 2
35 1 2
40 1 2
45 1 2
50 1 2
55 1 2
60 1 2
65 1 2
70 1 2
75 1 2
80 1 2
85 1 2
90 1 2
95 1 2
100 1 2
105 1 2
0 2 2
5 2 2
10 2 2
15 2 2
20 2 2
25 2 2
30 2 2
35 2 2
40 2 2
45 2 2
50 2 2
55 2 2
60 2 2
65 2 2
70 2 2
75 2 2
80 2 2
85 2 2
90 2 2
95 2 2
100 2 2
105 2 2
0 3 2
5 3 2
10 3 2
15 3 2
20 3 2
25 3 2
30 3 2
35 3 2
40 3 2
45 3 2
50 3 2
55 3 2
60 3 2
65 3 2
70 3 2
75 3 2
80 3 2
85 3 2
90 3 2
95 3 2
100 3 2
105 3 2
0 4 2
5 4 2
10 4 2
15 4 2
20 4 2
25 4 2
30 4 2
35 4 2
40 4 2
45 4 2
50 4 2
55 4 2
60 4 2
65 4 2
70 4 2
75 4 2
80 4 2
85 4 2
90 4 2
95 4 2
100 4 2
105 4 2
0 5 2
5 5 2
10 5 2
15 5 2
20 5 2
25 5 2
30 5 2
35 5 2
40 5 2
45 5 2
50 5 2
55 5 2
60 5 2
65 5 2
70 5 2
75 5 2
80 5 2
85 5 2
90 5 2
95 5 2
100 5 2
105 5 2
0 6 2
5 6 2
10 6 2
15 6 2
20 6 2
25 6 2
30 6 2
35 6 2
40 6 2
45 6 2
50 6 2
55 6 2
60 6 2
65 6 2
70 6 2
75 6 2
80 6 2
85 6 2
90 6 2
95 6 2
100 6 2
105 6 2
0 7 2
5 7 2
10 7 2
15 7 2
20 7 2
25 7 2
30 7 2
35 7 2
40 7 2
45 7 2
50 7 2
55 7 2
60 7 2
65 7 2
70 7 2
75 7 2
80 7 2
85 7 2
90 7 2
95 7 2
100 7 2
105 7 2
0 8 2
5 8 2
10 8 2
15 8 2
20 8 2
25 8 2
30 8 2
35 8 2
40 8 2
45 8 2
50 8 2
55 8 2
60 8 2
65 8 2
70 8 2
75 8 2
80 8 2
85 8 2
90 8 2
95 8 2
100 8 2
105 8 2
0 9 2
5 9 2
10 9 2
15 9 2
20 9 2
25 9 2
30 9 2
35 9 2
40 9 2
45 9 2
50 9 2
55 9 2
60 9 2
65 9 2
70 9 2
75 9 2
80 9 2
85 9 2
90 9 2
95 9 2
100 9 2
105 9 2
0 10 2
5 10 2
10 10 2
15 10 2
20 10 2
25 10 2
30 10 2
35 10 2
40 10 2
45 10 2
50 10 2
55 10 2
60 10 2
65 10 2
70 10 2
75 10 2
80 10 2
85 10 2
90 10 2
95 10 2
100 10 2
105 10 2
0 11 2
5 11 2
10 11 2
15 11 2
20 11 2
25 11 2
30 11 2
35 11 2
40 11 2
45 11 2
50 11 2
55 11 2
60 11 2
65 11 2
70 11 2
75 11 2
80 11 2
85 11 2
90 11 2
95 11 2
100 11 2
105 11 2
0 12 2
5 12 2
10 12 2
15 12 2
20 12 2
25 12 2
30 12 2
35 12 2
40 12 2
45 12 2
50 12 2
55 12 2
60 12 2
65 12 2
70 12 2
75 12 2
80 12 2
85 12 2
90 12 2
95 12 2
100 12 2
105 12 2
0 13 2
5 13 2
10 13 2
15 13 2
20 13 2
25 13 2
30 13 2
35 13 2
40 13 2
45 13 2
50 13 2
55 13 2
60 13 2
65 13 2
70 13 2
75 13 2
80 13 2
85 13 2
90 13 2
95 13 2
100 13 2
105 13 2
0 14 2
5 14 2
10 14 2
15 14 2
20 14 2
25 14 2
30 14 2
35 14 2
40 14 2
45 14 2
50 14 2
55 14 2
60 14 2
65 14 2
70 14 2
75 14 2
80 14 2
85 14 2
90 14 2
95 14 2
100 14 2
105 14 2
0 15 2
5 15 2
10 15 2
15 15 2
20 15 2
25 15 2
30 15 2
35 15 2
40 15 2
45 15 2
50 15 2
55 15 2
60 15 2
65 15 2
70 15 2
75 15 2
80 15 2
85 15 2
90 15 2
95 15 2
100 15 2
105 15 2
0 16 2
5 16 2
10 16 2
15 16 2
20 16 2
25 16 2
30 16 2
35 16 2
40 16 2
45 16 2
50 16 2
55 16 2
60 16 2
65 16 2
70 16 2
75 16 2
80 16 2
85 16 2
90 16 2
95 16 2
100 16 2
105 16 2
0 0 3
5 0 3
10 0 3
15 0 3
20 0 3
25 0 3
30 0 3
35 0 3
40 0 3
45 0 3
50 0 3
55 0 3
60 0 3
65 0 3
70 0 3
75 0 3
80 0 3
85 0 3
90 0 3
95 0 3
100 0 3
105 0 3
0 1 3
5 1 3
10 1 3
15 1 3
20 1 3
25 1 3
30 1 3
35 1 3
40 1 3
45 1 3
50 1 3
55 1 3
60 1 3
65 1 3
70 1 3
75 1 3
80 1 3
85 1 3
90 1 3
95 1 3
100 1 3
105 1 3
0 2 3
5 2 3
10 2 3
15 2 3
20 2 3
25 2 3
30 2 3
35 2 3
40 2 3
45 2 3
50 2 3
55 2 3
60 2 3
65 2 3
70 2 3
75 2 3
80 2 3
85 2 3
90 2 3
95 2 3
100 2 3
105 2 3
0 3 3
5 3 3
10 3 3
15 3 3
20 3 3
25 3 3
30 3 3
35 3 3
40 3 3
45 3 3
50 3 3
55 3 3
60 3 3
65 3 3
70 3 3
75 3 3
80 3 3
85 3 3
90 3 3
95 3 3
100 3 3
105 3 3
0 4 3
5 4 3
10 4 3
15 4 3
20 4 3
25 4 3
30 4 3
35 4 3
40 4 3
45 4 3
50 4 3
55 4 3
60 4 3
65 4 3
70 4 3
75 4 3
80 4 3
85 4 3
90 4 3
95 4 3
100 4 3
105 4 3
0 5 3
5 5 3
10 5 3
15 5 3
20 5 3
25 5 3
30 5 3
35 5 3
40 5 3
45 5 3
50 5 3
55 5 3
60 5 3
65 5 3
70 5 3
75 5 3
80 5 3
85 5 3
90 5 3
95 5 3
100 5 3
105 5 3
0 6 3
5 6 3
10 6 3
15 6 3
20 6 3
25 6 3
30 6 3
35 6 3
40 6 3
45 6 3
50 6 3
55 6 3
60 6 3
65 6 3
70 6 3
75 6 3
80 6 3
85 6 3
90 6 3
95 6 3
100 6 3
105 6 3
0 7 3
5 7 3
10 7 3
15 7 3
20 7 3
25 7 3
30 7 3
35 7 3
40 7 3
45 7 3
50 7 3
55 7 3
60 7 3
65 7 3
70 7 3
75 7 3
80 7 3
85 7 3
90 7 3
95 7 3
100 7 3
105 7 3
0 8 3
5 8 3
10 8 3
15 8 3
20 8 3
25 8 3
30 8 3
35 8 3
40 8 3
45 8 3
50 8 3
55 8 3
60 8 3
65 8 3
70 8 3
75 8 3
80 8 3
85 8 3
90 8 3
95 8 3
100 8 3
105 8 3
0 9 3
5 9 3
10 9 3
15 9 3
20 9 3
25 9 3
30 9 3
35 9 3
40 9 3
45 9 3
50 9 3
55 9 3
60 9 3
65 9 3
70 9 3
75 9 3
80 9 3
85 9 3
90 9 3
95 9 3
100 9 3
105 9 3
0 10 3
5 10 3
10 10 3
15 10 3
[...]
POINT_DATA 4488

SCALARS pressure double
LOOKUP_TABLE pressure
0
0
0
0
0
0
0
0
0
0
0
0
0
0
0
0
0
0
0
0
0
0
0
3036.54
3036.54
3036.5
3036.25
3036.14
3036.07
3036.04
3035.93
3036.05
3035.71
3035.49
3035.12
3034.89
3034.43
3033.66
3031.49
3031.59
3031.01
3030.69
3030.56
0
0
3036.54
3036.55
3036.51
3036.25
3036.15
3036.07
3036.05
3035.93
3035.74
3035.71
3035.5
3035.12
3034.9
3034.46
3033.71
3031.35
3031.61
3031.01
3030.69
3030.57
0
0
3036.55
3036.55
3036.53
3036.27
3036.16
3036.12
3036.07
3035.93
3035.78
3035.72
3035.52
3035.1
3034.92
3034.51
3033.81
3033.63
3031.68
3030.99
3030.68
3030.57
0
0
3036.57
3036.56
3036.56
3036.28
3035.9
3036.13
3036.09
3036
3035.82
3035.73
3035.56
3035.12
3034.96
3034.57
3033.91
3033.53
3031.67
3030.95
3030.66
3030.59
0
0
3036.58
3036.58
3036.47
3036.29
3035.9
3036.15
3036.12
3036.01
3035.86
3035.76
3035.6
3035.58
3035.01
3034.64
3034
3033.46
3031.62
3030.9
3030.63
3030.6
0
0
3036.6
3036.59
3036.5
3036.33
3035.88
3036.19
3036.16
3036.02
3035.89
3035.78
3035.64
3035.53
3035.07
3034.72
3034.1
3033.45
3031.52
3030.55
3030.59
3030.62
0
0
3036.63
3036.62
3036.54
3036.38
3035.84
3036.24
3036.2
3036.03
3035.94
3035.81
3035.68
3035.58
3035.19
3034.8
3034.24
3033.49
3031.37
3030.44
3030.55
3030.64
0
0
3036.65
3036.65
3036.59
3036.45
3035.76
3036.3
3036.25
3036.22
3035.98
3035.85
3035.72
3035.62
3035.31
3034.9
3034.37
3033.57
3031.16
3030.27
3030.51
3030.66
0
0
3036.68
3036.69
3036.64
3036.52
3035.6
3036.38
3036.3
3036.25
3036.02
3035.88
3035.76
3035.68
3035.43
3035.06
3034.44
3033.71
3030.88
3030.06
3030.46
3030.68
0
0
3036.72
3036.73
3036.7
3036.63
3037.08
3036.52
3036.36
3036.28
3036.06
3035.92
3035.81
3035.73
3035.55
3035.19
3034.56
3033.91
3030.46
3029.79
3030.43
3030.71
0
0
3036.76
3036.77
3036.76
3036.74
3036.99
3036.61
3036.42
3036.33
3036.11
3035.96
3035.86
3035.8
3035.69
3035.33
3034.66
3034.2
3029.77
3029.46
3030.41
3030.74
0
0
3036.8
3036.82
3036.83
3036.84
3037
3036.69
3036.49
3036.38
3036.15
3036
3035.9
3035.87
3035.84
3035.48
3034.74
3034.59
3029.18
3029.08
3030.41
3030.77
0
0
3036.84
3036.87
3036.9
3036.93
3037.02
3036.76
3036.55
3036.34
3036.19
3036.04
3035.95
3035.95
3036
3035.62
3037.13
3035.17
3028.09
3028.61
3030.45
3030.8
0
0
3036.89
3036.92
3036.96
3037.01
3037.04
3036.82
3036.62
3036.4
3036.23
3036.08
3036
3036.02
3036.19
3036.87
3037.34
3035.83
3026.52
3028.04
3030.53
3030.83
0
0
3036.93
3036.97
3037.04
3037.1
3037.06
3036.88
3036.68
3036.46
3036.28
3036.13
3036.05
3036.1
3036.36
3036.95
3037.56
3037.49
3025.04
3027.33
3030.71
3030.86
0
0
0
0
0
0
0
0
0
0
0
0
0
0
0
0
0
0
0
0
0
0
0
0
3036.54
3036.54
3036.5
3036.25
3036.14
3036.07
3036.04
3035.93
3036.05
3035.71
3035.49
3035.12
3034.89
3034.43
3033.66
3031.49
3031.59
3031.01
3030.69
3030.56
0
-3036.54
3036.54
3036.54
3036.5
3036.25
3036.14
3036.07
3036.04
3035.93
3036.05
3035.71
3035.49
3035.12
3034.89
3034.43
3033.66
3031.49
3031.59
3031.01
3030.69
3030.56
3030.56
0.0247845
3036.54
3036.55
3036.51
3036.25
3036.15
3036.07
3036.05
3035.93
3035.74
3035.71
3035.5
3035.12
3034.9
3034.46
3033.71
3031.35
3031.61
3031.01
3030.69
3030.57
3030.57
-3036.55
3036.55
3036.55
3036.53
3036.27
3036.16
3036.12
3036.07
3035.93
3035.78
3035.72
3035.52
3035.1
3034.92
3034.51
3033.81
3033.63
3031.68
3030.99
3030.68
3030.57
3030.57
-3036.57
3036.57
3036.56
3036.56
3036.28
3035.9
3036.13
3036.09
3036
3035.82
3035.73
3035.56
3035.12
3034.96
3034.57
3033.91
3033.53
3031.67
3030.95
3030.66
3030.59
3030.59
-3036.58
3036.58
3036.58
3036.47
3036.29
3035.9
3036.15
3036.12
3036.01
3035.86
3035.76
3035.6
3035.58
3035.01
3034.64
3034
3033.46
3031.62
3030.9
3030.63
3030.6
3030.6
-3036.6
3036.6
3036.59
3036.5
3036.33
3035.88
3036.19
3036.16
3036.02
3035.89
3035.78
3035.64
3035.53
3035.07
3034.72
3034.1
3033.45
3031.52
3030.55
3030.59
3030.62
3030.62
-3036.63
3036.63
3036.62
3036.54
3036.38
3035.84
3036.24
3036.2
3036.03
3035.94
3035.81
3035.68
3035.58
3035.19
3034.8
3034.24
3033.49
3031.37
3030.44
3030.55
3030.64
3030.64
-3036.65
3036.65
3036.65
3036.59
3036.45
3035.76
3036.3
3036.25
3036.22
3035.98
3035.85
3035.72
3035.62
3035.31
3034.9
3034.37
3033.57
3031.16
3030.27
3030.51
3030.66
3030.66
-3036.68
3036.68
3036.69
3036.64
3036.52
3035.6
3036.38
3036.3
3036.25
3036.02
3035.88
3035.76
3035.68
3035.43
3035.06
3034.44
3033.71
3030.88
3030.06
3030.46
3030.68
3030.68
-3036.72
3036.72
3036.73
3036.7
3036.63
3037.08
3036.52
3036.36
3036.28
3036.06
3035.92
3035.81
3035.73
3035.55
3035.19
3034.56
3033.91
3030.46
3029.79
3030.43
3030.71
3030.71
-3036.76
3036.76
3036.77
3036.76
3036.74
3036.99
3036.61
3036.42
3036.33
3036.11
3035.96
3035.86
3035.8
3035.69
3035.33
3034.66
3034.2
3029.77
3029.46
3030.41
3030.74
3030.74
-3036.8
3036.8
3036.82
3036.83
3036.84
3037
3036.69
3036.49
3036.38
3036.15
3036
3035.9
3035.87
3035.84
3035.48
3034.74
3034.59
3029.18
3029.08
3030.41
3030.77
3030.77
-3036.84
3036.84
3036.87
3036.9
3036.93
3037.02
3036.76
3036.55
3036.34
3036.19
3036.04
3035.95
3035.95
3036
3035.62
3037.13
3035.17
3028.09
3028.61
3030.45
3030.8
3030.8
-3036.89
3036.89
3036.92
3036.96
3037.01
3037.04
3036.82
3036.62
3036.4
3036.23
3036.08
3036
3036.02
3036.19
3036.87
3037.34
3035.83
3026.52
3028.04
3030.53
3030.83
3030.83
-3036.93
3036.93
3036.97
3037.04
3037.1
3037.06
3036.88
3036.68
3036.46
3036.28
3036.13
3036.05
3036.1
3036.36
3036.95
3037.56
3037.49
3025.04
3027.33
3030.71
3030.86
3030.86
0
3036.93
3036.97
3037.04
3037.1
3037.06
3036.88
3036.68
3036.46
3036.28
3036.13
3036.05
3036.1
3036.36
3036.95
3037.56
3037.49
3025.04
3027.33
3030.71
3030.86
0
0
3036.58
3036.59
3036.53
3036.34
3036.19
3036.13
3036.08
3035.99
3035.82
3035.73
3035.53
3035.38
3034.93
3034.46
3033.71
3032.16
3031.78
3031.12
3030.78
3030.61
0
-3036.58
3036.58
3036.59
3036.53
3036.34
3036.19
3036.13
3036.08
3035.99
3035.82
3035.73
3035.53
3035.38
3034.93
3034.46
3033.71
3032.16
3031.78
3031.12
3030.78
3030.61
3030.61
-3036.58
3036.58
3036.62
3036.54
3036.34
3036.21
3036.14
3036.08
3035.99
3035.82
3035.74
3035.54
3035.27
3034.95
3034.49
3033.75
3032.3
3031.77
3031.11
3030.77
3030.62
3030.62
-3036.59
3036.59
3036.6
3036.55
3036.35
3036.19
3036.17
3036.11
3036
3035.84
3035.75
3035.56
3035.26
3034.98
3034.53
3033.8
3033.03
3031.79
3031.09
3030.76
3030.63
3030.63
-3036.61
3036.61
3036.6
3036.56
3036.36
3036.11
3036.19
3036.14
3036.03
3035.87
3035.76
3035.59
3035.3
3035.04
3034.58
3033.82
3033.26
3031.78
3031.04
3030.75
3030.64
3030.64
-3036.62
3036.62
3036.62
3036.54
3036.38
3036.1
3036.22
3036.17
3036.05
3035.9
3035.79
3035.63
3035.47
3035.06
3034.65
3033.69
3033.32
3031.74
3030.96
3030.72
3030.65
3030.65
-3036.64
3036.64
3036.63
3036.56
3036.41
3036.11
3036.25
3036.2
3036.08
3035.94
3035.81
3035.66
3035.52
3035.12
3034.72
3034
3033.37
3031.66
3030.79
3030.69
3030.67
3030.67
-3036.66
3036.66
3036.66
3036.59
3036.46
3036.16
3036.31
3036.24
3036.12
3035.97
3035.84
3035.7
3035.56
3035.21
3034.82
3034.2
3033.44
3031.55
3030.66
3030.66
3030.69
3030.69
-3036.69
3036.69
3036.69
3036.64
3036.52
3036.23
3036.37
3036.29
3036.2
3036.01
3035.88
3035.74
3035.61
3035.32
3034.92
3034.35
3033.54
3031.42
3030.51
3030.62
3030.71
3030.71
-3036.72
3036.72
3036.72
3036.68
3036.6
3036.12
3036.45
3036.34
3036.25
3036.05
3035.91
3035.78
3035.67
3035.43
3035.06
3034.49
3033.67
3031.29
3030.33
3030.59
3030.73
3030.73
-3036.75
3036.75
3036.76
3036.74
3036.69
3036.78
3036.56
3036.39
3036.29
3036.09
3035.95
3035.83
3035.73
3035.54
3035.21
3034.67
3033.87
3031.26
3030.13
3030.56
3030.76
3030.76
-3036.79
3036.79
3036.8
3036.79
3036.78
3036.94
3036.63
3036.45
3036.33
3036.13
3035.99
3035.87
3035.79
3035.68
3035.37
3034.91
3034.13
3030.51
3029.84
3030.54
3030.78
3030.78
-3036.83
3036.83
3036.84
3036.86
3036.86
3036.96
3036.7
3036.51
3036.37
3036.17
3036.03
3035.92
3035.86
3035.81
3035.58
3035.27
3034.49
3029.92
3029.52
3030.53
3030.81
3030.81
-3036.87
3036.87
3036.87
3036.93
3036.94
3036.99
3036.76
3036.57
3036.39
3036.22
3036.07
3035.97
3035.94
3035.96
3035.87
3036.28
3035
3029.17
3029.15
3030.55
3030.85
3030.85
-3036.92
3036.92
3036.94
3036.99
3037.02
3037.02
3036.83
3036.63
3036.44
3036.26
3036.11
3036.02
3036.01
3036.13
3036.42
3036.8
3035.65
3028.25
3028.73
3030.59
3030.88
3030.88
-3036.97
3036.97
3037
3037.05
3037.09
3037.05
3036.89
3036.7
3036.49
3036.3
3036.15
3036.07
3036.09
3036.29
3036.73
3037.17
3036.57
3027.27
3028.29
3030.66
3030.91
3030.91
0
3036.97
3037
3037.05
3037.09
3037.05
3036.89
3036.7
3036.49
3036.3
3036.15
3036.07
3036.09
3036.29
3036.73
3037.17
3036.57
3027.27
3028.29
3030.66
3030.91
0
0
3036.62
3036.62
3036.56
3036.41
3036.22
3036.18
3036.13
3036.03
3035.87
3035.76
3035.57
3035.38
3034.97
3034.49
3033.76
3032.56
3031.89
3031.22
3030.86
3030.66
0
-3036.62
3036.62
3036.62
3036.56
3036.41
3036.22
3036.18
3036.13
3036.03
3035.87
3035.76
3035.57
3035.38
3034.97
3034.49
3033.76
3032.56
3031.89
3031.22
3030.86
3030.66
3030.66
-3036.62
3036.62
3036.63
3036.57
3036.41
3036.27
3036.2
3036.14
3036.04
3035.88
3035.77
3035.58
3035.34
3034.98
3034.51
3033.79
3032.69
3031.89
3031.21
3030.86
3030.67
3030.67
-3036.63
3036.63
3036.64
3036.58
3036.42
3036.27
3036.22
3036.16
3036.05
3035.9
3035.78
3035.59
3035.34
3035.01
3034.55
3033.83
3032.98
3031.9
3031.19
3030.85
3030.68
3030.68
-3036.64
3036.64
3036.64
3036.59
3036.43
3036.26
3036.25
3036.19
3036.07
3035.92
3035.8
3035.62
3035.38
3035.05
3034.6
3033.87
3033.15
3031.89
3031.15
3030.84
3030.69
3030.69
-3036.66
3036.66
3036.65
3036.59
3036.45
3036.26
3036.28
3036.21
3036.1
3035.95
3035.82
3035.65
3035.47
3035.09
3034.66
3033.91
3033.25
3031.86
3031.08
3030.82
3030.7
3030.7
-3036.68
3036.68
3036.67
3036.61
3036.49
3036.29
3036.32
3036.25
3036.13
3035.98
3035.84
3035.68
3035.51
3035.15
3034.73
3034.05
3033.32
3031.8
3030.98
3030.8
3030.72
3030.72
-3036.7
3036.7
3036.7
3036.64
3036.53
3036.35
3036.37
3036.29
3036.16
3036.01
3035.87
3035.72
3035.56
3035.23
3034.82
3034.2
3033.4
3031.72
3030.86
3030.77
3030.74
3030.74
-3036.73
3036.73
3036.72
3036.68
3036.58
3036.45
3036.43
3036.33
3036.22
3036.05
3035.9
3035.76
3035.61
3035.32
3034.93
3034.35
3033.51
3031.63
3030.74
3030.74
3030.76
3030.76
-3036.76
3036.76
3036.76
3036.72
3036.65
3036.56
3036.5
3036.38
3036.26
3036.08
3035.94
3035.8
3035.66
3035.42
3035.06
3034.51
3033.64
3031.51
3030.59
3030.71
3030.78
3030.78
-3036.79
3036.79
3036.79
3036.77
3036.73
3036.88
3036.58
3036.43
3036.3
3036.12
3035.97
3035.84
3035.72
3035.53
3035.21
3034.71
3033.82
3031.36
3030.41
3030.69
3030.81
3030.81
-3036.83
3036.83
3036.83
3036.82
3036.8
3036.93
3036.65
3036.48
3036.34
3036.16
3036.01
3035.89
3035.79
3035.65
3035.38
3034.98
3034.07
3030.97
3030.19
3030.67
3030.83
3030.83
-3036.87
3036.87
3036.87
3036.88
3036.88
3036.94
3036.71
3036.53
3036.38
3036.2
3036.05
3035.93
3035.86
3035.78
3035.6
3035.35
3034.39
3030.56
3029.94
3030.66
3030.86
3030.86
-3036.91
3036.91
3036.91
3036.94
3036.95
3036.97
3036.77
3036.59
3036.42
3036.24
3036.09
3035.98
3035.93
3035.91
3035.87
3035.93
3034.83
3030.08
3029.66
3030.66
3030.89
3030.89
-3036.95
3036.95
3036.97
3037
3037.02
3037
3036.83
3036.65
3036.46
3036.29
3036.14
3036.03
3036
3036.06
3036.22
3036.39
3035.41
3029.58
3029.36
3030.67
3030.93
3030.93
-3037
3037
3037.02
3037.06
3037.09
3037.04
3036.89
3036.71
3036.51
3036.33
3036.18
3036.08
3036.07
3036.21
3036.51
3036.78
3036.15
3029.07
3029.05
3030.7
3030.96
3030.96
0
3037
3037.02
3037.06
3037.09
3037.04
3036.89
3036.71
3036.51
3036.33
3036.18
3036.08
3036.07
3036.21
3036.51
3036.78
3036.15
3029.07
3029.05
3030.7
3030.96
0
0
3036.66
3036.66
3036.6
3036.48
3036.2
3036.22
3036.19
3036.08
3035.92
3035.79
3035.6
3035.38
3035
3034.52
3033.81
3032.8
3032
3031.33
3030.95
3030.72
0
-3036.66
3036.66
3036.66
3036.6
3036.48
3036.2
3036.22
3036.19
3036.08
3035.92
3035.79
3035.6
3035.38
3035
3034.52
3033.81
3032.8
3032
3031.33
3030.95
3030.72
3030.72
-3036.66
3036.66
3036.66
3036.61
3036.49
3036.37
3036.25
3036.19
3036.08
3035.93
3035.8
3035.61
3035.37
3035.01
3034.53
3033.83
3032.87
3032.01
3031.32
3030.95
3030.72
3030.72
-3036.67
3036.67
3036.67
3036.62
3036.49
3036.37
3036.28
3036.21
3036.1
3035.94
3035.81
3035.62
3035.38
3035.03
3034.57
3033.87
3033.01
3032.01
3031.3
3030.94
3030.73
3030.73
-3036.68
3036.68
3036.68
3036.63
3036.5
3036.37
3036.31
3036.23
3036.12
3035.96
3035.83
3035.64
3035.41
3035.07
3034.61
3033.92
3033.13
3032
3031.27
3030.93
3030.74
3030.74
-3036.7
3036.7
3036.69
3036.64
3036.52
3036.38
3036.34
3036.26
3036.14
3035.99
3035.85
3035.67
3035.47
3035.12
3034.67
3033.98
3033.22
3031.98
3031.22
3030.92
3030.75
3030.75
-3036.72
3036.72
3036.71
3036.66
3036.55
3036.41
3036.38
3036.29
3036.17
3036.02
3035.87
3035.7
3035.51
3035.17
3034.74
3034.08
3033.3
3031.94
3031.14
3030.9
3030.77
3030.77
-3036.74
3036.74
3036.73
3036.69
3036.59
3036.47
3036.42
3036.33
3036.2
3036.05
3035.9
3035.74
3035.56
3035.24
3034.83
3034.21
3033.39
3031.88
3031.05
3030.88
3030.79
3030.79
-3036.77
3036.77
3036.76
3036.72
3036.64
3036.55
3036.47
3036.37
3036.24
3036.08
3035.93
3035.78
3035.61
3035.32
3034.93
3034.35
3033.49
3031.81
3030.95
3030.86
3030.81
3030.81
-3036.79
3036.79
3036.79
3036.76
3036.7
3036.65
3036.53
3036.41
3036.28
3036.12
3035.96
3035.82
3035.66
3035.41
3035.05
3034.51
3033.62
3031.71
3030.83
3030.84
3030.83
3030.83
-3036.83
3036.83
3036.83
3036.8
3036.76
3036.81
3036.6
3036.46
3036.32
3036.15
3036
3035.86
3035.72
3035.51
3035.19
3034.7
3033.78
3031.57
3030.69
3030.82
3030.86
3030.86
-3036.86
3036.86
3036.86
3036.85
3036.83
3036.88
3036.66
3036.51
3036.36
3036.19
3036.04
3035.9
3035.78
3035.62
3035.36
3034.95
3034
3031.34
3030.52
3030.8
3030.88
3030.88
-3036.9
3036.9
3036.9
3036.91
3036.89
3036.92
3036.72
3036.56
3036.4
3036.23
3036.08
3035.95
3035.85
3035.74
3035.56
3035.27
3034.28
3031.08
3030.34
3030.79
3030.91
3030.91
-3036.94
3036.94
3036.95
3036.96
3036.96
3036.95
3036.78
3036.61
3036.45
3036.27
3036.12
3036
3035.92
3035.86
3035.79
3035.66
3034.65
3030.8
3030.13
3030.78
3030.94
3030.94
-3036.98
3036.98
3037
3037.02
3037.02
3036.99
3036.84
3036.67
3036.49
3036.31
3036.16
3036.05
3035.99
3035.99
3036.05
3036.05
3035.12
3030.52
3029.92
3030.78
3030.98
3030.98
-3037.03
3037.03
3037.05
3037.08
3037.09
3037.04
3036.9
3036.73
3036.54
3036.36
3036.21
3036.1
3036.06
3036.12
3036.3
3036.4
3035.68
3030.23
3029.7
3030.79
3031.01
3031.01
0
3037.03
3037.05
3037.08
3037.09
3037.04
3036.9
3036.73
3036.54
3036.36
3036.21
3036.1
3036.06
3036.12
3036.3
3036.4
3035.68
3030.23
3029.7
3030.79
3031.01
0
0
3036.69
3036.69
3036.64
3036.56
3036.33
3036.25
3036.24
3036.12
3035.97
3035.82
3035.63
3035.39
3035.02
3034.54
3033.85
3032.95
3032.11
3031.44
3031.04
3030.77
0
-3036.69
3036.69
3036.69
3036.64
3036.56
3036.33
3036.25
3036.24
3036.12
3035.97
3035.82
3035.63
3035.39
3035.02
3034.54
3033.85
3032.95
3032.11
3031.44
3031.04
3030.77
3030.77
-3036.7
3036.7
3036.7
3036.65
3036.56
3036.46
3036.29
3036.25
3036.13
3035.98
3035.83
3035.64
3035.39
3035.03
3034.55
3033.87
3032.99
3032.12
3031.44
3031.04
3030.77
3030.77
-3036.71
3036.71
3036.71
3036.66
3036.56
3036.49
3036.33
3036.26
3036.14
3035.99
3035.84
3035.65
3035.41
3035.06
3034.58
3033.91
3033.07
3032.12
3031.42
3031.04
3030.78
3030.78
-3036.72
3036.72
3036.72
3036.67
3036.57
3036.48
3036.36
3036.28
3036.16
3036.01
3035.86
3035.67
3035.44
3035.09
3034.62
3033.96
3033.15
3032.11
3031.4
3031.03
3030.79
3030.79
-3036.74
3036.74
3036.73
3036.68
3036.59
3036.48
3036.39
3036.31
3036.18
3036.03
3035.88
3035.7
3035.47
3035.13
3034.68
3034.02
3033.23
3032.1
3031.36
3031.02
3030.81
3030.81
-3036.76
3036.76
3036.75
3036.7
3036.61
3036.51
3036.43
3036.33
3036.21
3036.05
3035.9
3035.73
3035.51
3035.18
3034.74
3034.1
3033.3
3032.07
3031.3
3031.01
3030.82
3030.82
-3036.78
3036.78
3036.77
3036.73
3036.65
3036.55
3036.47
3036.37
3036.24
3036.08
3035.93
3035.76
3035.56
3035.25
3034.82
3034.21
3033.38
3032.03
3031.24
3030.99
3030.84
3030.84
-3036.8
3036.8
3036.8
3036.76
3036.69
3036.61
3036.52
3036.4
3036.27
3036.11
3035.96
3035.79
3035.61
3035.32
3034.92
3034.34
3033.48
3031.98
3031.16
3030.98
3030.86
3030.86
-3036.83
3036.83
3036.83
3036.8
3036.74
3036.69
3036.57
3036.44
3036.31
3036.15
3035.99
3035.83
3035.66
3035.4
3035.03
3034.48
3033.59
3031.91
3031.07
3030.96
3030.88
3030.88
-3036.86
3036.86
3036.86
3036.84
3036.79
3036.78
3036.62
3036.49
3036.35
3036.18
3036.03
3035.87
3035.71
3035.49
3035.16
3034.66
3033.74
3031.81
3030.96
3030.95
3030.91
3030.91
-3036.9
3036.9
3036.9
3036.88
3036.85
3036.85
3036.68
3036.53
3036.39
3036.22
3036.07
3035.92
3035.77
3035.59
3035.31
3034.87
3033.93
3031.67
3030.84
3030.93
3030.93
3030.93
-3036.93
3036.93
3036.94
3036.93
3036.91
3036.9
3036.73
3036.58
3036.43
3036.26
3036.1
3035.96
3035.84
3035.7
3035.49
3035.13
3034.16
3031.52
3030.7
3030.92
3030.96
3030.96
-3036.97
3036.97
3036.98
3036.98
3036.97
3036.94
3036.79
3036.63
3036.47
3036.3
3036.15
3036.01
3035.9
3035.81
3035.68
3035.44
3034.46
3031.35
3030.55
3030.92
3030.99
3030.99
-3037.02
3037.02
3037.03
3037.04
3037.03
3036.99
3036.85
3036.69
3036.51
3036.34
3036.19
3036.06
3035.97
3035.93
3035.89
3035.75
3034.83
3031.19
3030.4
3030.92
3031.03
3031.03
-3037.06
3037.06
3037.08
3037.09
3037.09
3037.03
3036.9
3036.74
3036.56
3036.39
3036.23
3036.11
3036.04
3036.04
3036.11
3036.05
3035.25
3031.02
3030.25
3030.91
3031.06
3031.06
0
3037.06
3037.08
3037.09
3037.09
3037.03
3036.9
3036.74
3036.56
3036.39
3036.23
3036.11
3036.04
3036.04
3036.11
3036.05
3035.25
3031.02
3030.25
3030.91
3031.06
0
0
3036.74
3036.73
3036.68
3036.61
3036.42
3036.34
3036.29
3036.17
3036.01
3035.86
3035.66
3035.41
3035.04
3034.56
3033.89
3033.05
3032.22
3031.56
3031.13
3030.82
0
-3036.74
3036.74
3036.73
3036.68
3036.61
3036.42
3036.34
3036.29
3036.17
3036.01
3035.86
3035.66
3035.41
3035.04
3034.56
3033.89
3033.05
3032.22
3031.56
3031.13
3030.82
3030.82
-3036.74
3036.74
3036.74
3036.69
3036.61
3036.49
3036.37
3036.3
3036.18
3036.02
3035.86
3035.66
3035.41
3035.05
3034.57
3033.91
3033.08
3032.23
3031.55
3031.13
3030.83
3030.83
-3036.75
3036.75
3036.74
3036.7
3036.61
3036.52
3036.39
3036.31
3036.19
3036.03
3035.88
3035.68
3035.43
3035.07
3034.6
3033.94
3033.13
3032.23
3031.54
3031.13
3030.84
3030.84
-3036.76
3036.76
3036.75
3036.71
3036.62
3036.54
3036.42
3036.33
3036.2
3036.05
3035.89
3035.7
3035.45
3035.1
3034.64
3033.98
3033.19
3032.22
3031.52
3031.13
3030.85
3030.85
-3036.78
3036.78
3036.77
3036.73
3036.64
3036.55
3036.45
3036.35
3036.22
3036.07
3035.91
3035.72
3035.49
3035.14
3034.68
3034.04
3033.25
3032.22
3031.5
3031.12
3030.86
3030.86
-3036.8
3036.8
3036.79
3036.75
3036.67
3036.58
3036.48
3036.38
3036.25
3036.09
3035.93
3035.75
3035.52
3035.19
3034.74
3034.12
3033.31
3032.2
3031.46
3031.11
3030.87
3030.87
-3036.82
3036.82
3036.81
3036.77
3036.7
3036.61
3036.52
3036.41
3036.28
3036.12
3035.96
3035.78
3035.56
3035.25
3034.82
3034.21
3033.38
3032.18
3031.41
3031.11
3030.89
3030.89
-3036.84
3036.84
3036.83
3036.8
3036.73
3036.66
3036.56
3036.44
3036.31
3036.15
3035.99
3035.81
3035.61
3035.31
3034.9
3034.32
3033.47
3032.14
3031.36
3031.1
3030.91
3030.91
-3036.87
3036.87
3036.86
3036.83
3036.78
3036.72
3036.6
3036.48
3036.34
3036.18
3036.02
3035.85
3035.66
3035.39
3035
3034.44
3033.57
3032.1
3031.29
3031.09
3030.94
3030.94
-3036.9
3036.9
3036.89
3036.87
3036.82
3036.78
3036.65
3036.52
3036.38
3036.22
3036.06
3035.89
3035.71
3035.47
3035.12
3034.6
3033.7
3032.03
3031.22
3031.08
3030.96
3030.96
-3036.93
3036.93
3036.93
3036.91
3036.87
3036.84
3036.7
3036.56
3036.42
3036.25
3036.09
3035.94
3035.77
3035.56
3035.25
3034.78
3033.86
3031.96
3031.13
3031.07
3030.99
3030.99
-3036.97
3036.97
3036.97
3036.96
3036.93
3036.89
3036.75
3036.61
3036.46
3036.29
3036.13
3035.98
3035.83
3035.65
3035.4
3034.99
3034.05
3031.87
3031.04
3031.07
3031.01
3031.01
-3037.01
3037.01
3037.01
3037
3036.98
3036.94
3036.8
3036.65
3036.5
3036.33
3036.17
3036.03
3035.89
3035.75
3035.57
3035.23
3034.29
3031.78
3030.94
3031.06
3031.05
3031.05
-3037.05
3037.05
3037.05
3037.05
3037.04
3036.98
3036.85
3036.7
3036.54
3036.37
3036.21
3036.08
3035.96
3035.86
3035.74
3035.47
3034.57
3031.69
3030.83
3031.06
3031.08
3031.08
-3037.09
3037.09
3037.1
3037.11
3037.1
3037.03
3036.91
3036.76
3036.59
3036.42
3036.26
3036.13
3036.02
3035.96
3035.92
3035.72