# vtk DataFile Version 3.0
FlowField
ASCII
DATASET STRUCTURED_GRID
DIMENSIONS 102 12 1 
POINTS 1224 double
0 0 0
0.3 0 0
0.6 0 0
0.9 0 0
1.2 0 0
1.5 0 0
1.8 0 0
2.1 0 0
2.4 0 0
2.7 0 0
3 0 0
3.3 0 0
3.6 0 0
3.9 0 0
4.2 0 0
4.5 0 0
4.8 0 0
5.1 0 0
5.4 0 0
5.7 0 0
6 0 0
6.3 0 0
6.6 0 0
6.9 0 0
7.2 0 0
7.5 0 0
7.8 0 0
8.1 0 0
8.4 0 0
8.7 0 0
9 0 0
9.3 0 0
9.6 0 0
9.9 0 0
10.2 0 0
10.5 0 0
10.8 0 0
11.1 0 0
11.4 0 0
11.7 0 0
12 0 0
12.3 0 0
12.6 0 0
12.9 0 0
13.2 0 0
13.5 0 0
13.8 0 0
14.1 0 0
14.4 0 0
14.7 0 0
15 0 0
15.3 0 0
15.6 0 0
15.9 0 0
16.2 0 0
16.5 0 0
16.8 0 0
17.1 0 0
17.4 0 0
17.7 0 0
18 0 0
18.3 0 0
18.6 0 0
18.9 0 0
19.2 0 0
19.5 0 0
19.8 0 0
20.1 0 0
20.4 0 0
20.7 0 0
21 0 0
21.3 0 0
21.6 0 0
21.9 0 0
22.2 0 0
22.5 0 0
22.8 0 0
23.1 0 0
23.4 0 0
23.7 0 0
24 0 0
24.3 0 0
24.6 0 0
24.9 0 0
25.2 0 0
25.5 0 0
25.8 0 0
26.1 0 0
26.4 0 0
26.7 0 0
27 0 0
27.3 0 0
27.6 0 0
27.9 0 0
28.2 0 0
28.5 0 0
28.8 0 0
29.1 0 0
29.4 0 0
29.7 0 0
30 0 0
30.3 0 0
0 0.1 0
0.3 0.1 0
0.6 0.1 0
0.9 0.1 0
1.2 0.1 0
1.5 0.1 0
1.8 0.1 0
2.1 0.1 0
2.4 0.1 0
2.7 0.1 0
3 0.1 0
3.3 0.1 0
3.6 0.1 0
3.9 0.1 0
4.2 0.1 0
4.5 0.1 0
4.8 0.1 0
5.1 0.1 0
5.4 0.1 0
5.7 0.1 0
6 0.1 0
6.3 0.1 0
6.6 0.1 0
6.9 0.1 0
7.2 0.1 0
7.5 0.1 0
7.8 0.1 0
8.1 0.1 0
8.4 0.1 0
8.7 0.1 0
9 0.1 0
9.3 0.1 0
9.6 0.1 0
9.9 0.1 0
10.2 0.1 0
10.5 0.1 0
10.8 0.1 0
11.1 0.1 0
11.4 0.1 0
11.7 0.1 0
12 0.1 0
12.3 0.1 0
12.6 0.1 0
12.9 0.1 0
13.2 0.1 0
13.5 0.1 0
13.8 0.1 0
14.1 0.1 0
14.4 0.1 0
14.7 0.1 0
15 0.1 0
15.3 0.1 0
15.6 0.1 0
15.9 0.1 0
16.2 0.1 0
16.5 0.1 0
16.8 0.1 0
17.1 0.1 0
17.4 0.1 0
17.7 0.1 0
18 0.1 0
18.3 0.1 0
18.6 0.1 0
18.9 0.1 0
19.2 0.1 0
19.5 0.1 0
19.8 0.1 0
20.1 0.1 0
20.4 0.1 0
20.7 0.1 0
21 0.1 0
21.3 0.1 0
21.6 0.1 0
21.9 0.1 0
22.2 0.1 0
22.5 0.1 0
22.8 0.1 0
23.1 0.1 0
23.4 0.1 0
23.7 0.1 0
24 0.1 0
24.3 0.1 0
24.6 0.1 0
24.9 0.1 0
25.2 0.1 0
25.5 0.1 0
25.8 0.1 0
26.1 0.1 0
26.4 0.1 0
26.7 0.1 0
27 0.1 0
27.3 0.1 0
27.6 0.1 0
27.9 0.1 0
28.2 0.1 0
28.5 0.1 0
28.8 0.1 0
29.1 0.1 0
29.4 0.1 0
29.7 0.1 0
30 0.1 0
30.3 0.1 0
0 0.2 0
0.3 0.2 0
0.6 0.2 0
0.9 0.2 0
1.2 0.2 0
1.5 0.2 0
1.8 0.2 0
2.1 0.2 0
2.4 0.2 0
2.7 0.2 0
3 0.2 0
3.3 0.2 0
3.6 0.2 0
3.9 0.2 0
4.2 0.2 0
4.5 0.2 0
4.8 0.2 0
5.1 0.2 0
5.4 0.2 0
5.7 0.2 0
6 0.2 0
6.3 0.2 0
6.6 0.2 0
6.9 0.2 0
7.2 0.2 0
7.5 0.2 0
7.8 0.2 0
8.1 0.2 0
8.4 0.2 0
8.7 0.2 0
9 0.2 0
9.3 0.2 0
9.6 0.2 0
9.9 0.2 0
10.2 0.2 0
10.5 0.2 0
10.8 0.2 0
11.1 0.2 0
11.4 0.2 0
11.7 0.2 0
12 0.2 0
12.3 0.2 0
12.6 0.2 0
12.9 0.2 0
13.2 0.2 0
13.5 0.2 0
13.8 0.2 0
14.1 0.2 0
14.4 0.2 0
14.7 0.2 0
15 0.2 0
15.3 0.2 0
15.6 0.2 0
15.9 0.2 0
16.2 0.2 0
16.5 0.2 0
16.8 0.2 0
17.1 0.2 0
17.4 0.2 0
17.7 0.2 0
18 0.2 0
18.3 0.2 0
18.6 0.2 0
18.9 0.2 0
19.2 0.2 0
19.5 0.2 0
19.8 0.2 0
20.1 0.2 0
20.4 0.2 0
20.7 0.2 0
21 0.2 0
21.3 0.2 0
21.6 0.2 0
21.9 0.2 0
22.2 0.2 0
22.5 0.2 0
22.8 0.2 0
23.1 0.2 0
23.4 0.2 0
23.7 0.2 0
24 0.2 0
24.3 0.2 0
24.6 0.2 0
24.9 0.2 0
25.2 0.2 0
25.5 0.2 0
25.8 0.2 0
26.1 0.2 0
26.4 0.2 0
26.7 0.2 0
27 0.2 0
27.3 0.2 0
27.6 0.2 0
27.9 0.2 0
28.2 0.2 0
28.5 0.2 0
28.8 0.2 0
29.1 0.2 0
29.4 0.2 0
29.7 0.2 0
30 0.2 0
30.3 0.2 0
0 0.3 0
0.3 0.3 0
0.6 0.3 0
0.9 0.3 0
1.2 0.3 0
1.5 0.3 0
1.8 0.3 0
2.1 0.3 0
2.4 0.3 0
2.7 0.3 0
3 0.3 0
3.3 0.3 0
3.6 0.3 0
3.9 0.3 0
4.2 0.3 0
4.5 0.3 0
4.8 0.3 0
5.1 0.3 0
5.4 0.3 0
5.7 0.3 0
6 0.3 0
6.3 0.3 0
6.6 0.3 0
6.9 0.3 0
7.2 0.3 0
7.5 0.3 0
7.8 0.3 0
8.1 0.3 0
8.4 0.3 0
8.7 0.3 0
9 0.3 0
9.3 0.3 0
9.6 0.3 0
9.9 0.3 0
10.2 0.3 0
10.5 0.3 0
10.8 0.3 0
11.1 0.3 0
11.4 0.3 0
11.7 0.3 0
12 0.3 0
12.3 0.3 0
12.6 0.3 0
12.9 0.3 0
13.2 0.3 0
13.5 0.3 0
13.8 0.3 0
14.1 0.3 0
14.4 0.3 0
14.7 0.3 0
15 0.3 0
15.3 0.3 0
15.6 0.3 0
15.9 0.3 0
16.2 0.3 0
16.5 0.3 0
16.8 0.3 0
17.1 0.3 0
17.4 0.3 0
17.7 0.3 0
18 0.3 0
18.3 0.3 0
18.6 0.3 0
18.9 0.3 0
19.2 0.3 0
19.5 0.3 0
19.8 0.3 0
20.1 0.3 0
20.4 0.3 0
20.7 0.3 0
21 0.3 0
21.3 0.3 0
21.6 0.3 0
21.9 0.3 0
22.2 0.3 0
22.5 0.3 0
22.8 0.3 0
23.1 0.3 0
23.4 0.3 0
23.7 0.3 0
24 0.3 0
24.3 0.3 0
24.6 0.3 0
24.9 0.3 0
25.2 0.3 0
25.5 0.3 0
25.8 0.3 0
26.1 0.3 0
26.4 0.3 0
26.7 0.3 0
27 0.3 0
27.3 0.3 0
27.6 0.3 0
27.9 0.3 0
28.2 0.3 0
28.5 0.3 0
28.8 0.3 0
29.1 0.3 0
29.4 0.3 0
29.7 0.3 0
30 0.3 0
30.3 0.3 0
0 0.4 0
0.3 0.4 0
0.6 0.4 0
0.9 0.4 0
1.2 0.4 0
1.5 0.4 0
1.8 0.4 0
2.1 0.4 0
2.4 0.4 0
2.7 0.4 0
3 0.4 0
3.3 0.4 0
3.6 0.4 0
3.9 0.4 0
4.2 0.4 0
4.5 0.4 0
4.8 0.4 0
5.1 0.4 0
5.4 0.4 0
5.7 0.4 0
6 0.4 0
6.3 0.4 0
6.6 0.4 0
6.9 0.4 0
7.2 0.4 0
7.5 0.4 0
7.8 0.4 0
8.1 0.4 0
8.4 0.4 0
8.7 0.4 0
9 0.4 0
9.3 0.4 0
9.6 0.4 0
9.9 0.4 0
10.2 0.4 0
10.5 0.4 0
10.8 0.4 0
11.1 0.4 0
11.4 0.4 0
11.7 0.4 0
12 0.4 0
12.3 0.4 0
12.6 0.4 0
12.9 0.4 0
13.2 0.4 0
13.5 0.4 0
13.8 0.4 0
14.1 0.4 0
14.4 0.4 0
14.7 0.4 0
15 0.4 0
15.3 0.4 0
15.6 0.4 0
15.9 0.4 0
16.2 0.4 0
16.5 0.4 0
16.8 0.4 0
17.1 0.4 0
17.4 0.4 0
17.7 0.4 0
18 0.4 0
18.3 0.4 0
18.6 0.4 0
18.9 0.4 0
19.2 0.4 0
19.5 0.4 0
19.8 0.4 0
20.1 0.4 0
20.4 0.4 0
20.7 0.4 0
21 0.4 0
21.3 0.4 0
21.6 0.4 0
21.9 0.4 0
22.2 0.4 0
22.5 0.4 0
22.8 0.4 0
23.1 0.4 0
23.4 0.4 0
23.7 0.4 0
24 0.4 0
24.3 0.4 0
24.6 0.4 0
24.9 0.4 0
25.2 0.4 0
25.5 0.4 0
25.8 0.4 0
26.1 0.4 0
26.4 0.4 0
26.7 0.4 0
27 0.4 0
27.3 0.4 0
27.6 0.4 0
27.9 0.4 0
28.2 0.4 0
28.5 0.4 0
28.8 0.4 0
29.1 0.4 0
29.4 0.4 0
29.7 0.4 0
30 0.4 0
30.3 0.4 0
0 0.5 0
0.3 0.5 0
0.6 0.5 0
0.9 0.5 0
1.2 0.5 0
1.5 0.5 0
1.8 0.5 0
2.1 0.5 0
2.4 0.5 0
2.7 0.5 0
3 0.5 0
3.3 0.5 0
3.6 0.5 0
3.9 0.5 0
4.2 0.5 0
4.5 0.5 0
4.8 0.5 0
5.1 0.5 0
5.4 0.5 0
5.7 0.5 0
6 0.5 0
6.3 0.5 0
6.6 0.5 0
6.9 0.5 0
7.2 0.5 0
7.5 0.5 0
7.8 0.5 0
8.1 0.5 0
8.4 0.5 0
8.7 0.5 0
9 0.5 0
9.3 0.5 0
9.6 0.5 0
9.9 0.5 0
10.2 0.5 0
10.5 0.5 0
10.8 0.5 0
11.1 0.5 0
11.4 0.5 0
11.7 0.5 0
12 0.5 0
12.3 0.5 0
12.6 0.5 0
12.9 0.5 0
13.2 0.5 0
13.5 0.5 0
13.8 0.5 0
14.1 0.5 0
14.4 0.5 0
14.7 0.5 0
15 0.5 0
15.3 0.5 0
15.6 0.5 0
15.9 0.5 0
16.2 0.5 0
16.5 0.5 0
16.8 0.5 0
17.1 0.5 0
17.4 0.5 0
17.7 0.5 0
18 0.5 0
18.3 0.5 0
18.6 0.5 0
18.9 0.5 0
19.2 0.5 0
19.5 0.5 0
19.8 0.5 0
20.1 0.5 0
20.4 0.5 0
20.7 0.5 0
21 0.5 0
21.3 0.5 0
21.6 0.5 0
21.9 0.5 0
22.2 0.5 0
22.5 0.5 0
22.8 0.5 0
23.1 0.5 0
23.4 0.5 0
23.7 0.5 0
24 0.5 0
24.3 0.5 0
24.6 0.5 0
24.9 0.5 0
25.2 0.5 0
25.5 0.5 0
25.8 0.5 0
26.1 0.5 0
26.4 0.5 0
26.7 0.5 0
27 0.5 0
27.3 0.5 0
27.6 0.5 0
27.9 0.5 0
28.2 0.5 0
28.5 0.5 0
28.8 0.5 0
29.1 0.5 0
29.4 0.5 0
29.7 0.5 0
30 0.5 0
30.3 0.5 0
0 0.6 0
0.3 0.6 0
0.6 0.6 0
0.9 0.6 0
1.2 0.6 0
1.5 0.6 0
1.8 0.6 0
2.1 0.6 0
2.4 0.6 0
2.7 0.6 0
3 0.6 0
3.3 0.6 0
3.6 0.6 0
3.9 0.6 0
4.2 0.6 0
4.5 0.6 0
4.8 0.6 0
5.1 0.6 0
5.4 0.6 0
5.7 0.6 0
6 0.6 0
6.3 0.6 0
6.6 0.6 0
6.9 0.6 0
7.2 0.6 0
7.5 0.6 0
7.8 0.6 0
8.1 0.6 0
8.4 0.6 0
8.7 0.6 0
9 0.6 0
9.3 0.6 0
9.6 0.6 0
9.9 0.6 0
10.2 0.6 0
10.5 0.6 0
10.8 0.6 0
11.1 0.6 0
11.4 0.6 0
11.7 0.6 0
12 0.6 0
12.3 0.6 0
12.6 0.6 0
12.9 0.6 0
13.2 0.6 0
13.5 0.6 0
13.8 0.6 0
14.1 0.6 0
14.4 0.6 0
14.7 0.6 0
15 0.6 0
15.3 0.6 0
15.6 0.6 0
15.9 0.6 0
16.2 0.6 0
16.5 0.6 0
16.8 0.6 0
17.1 0.6 0
17.4 0.6 0
17.7 0.6 0
18 0.6 0
18.3 0.6 0
18.6 0.6 0
18.9 0.6 0
19.2 0.6 0
19.5 0.6 0
19.8 0.6 0
20.1 0.6 0
20.4 0.6 0
20.7 0.6 0
21 0.6 0
21.3 0.6 0
21.6 0.6 0
21.9 0.6 0
22.2 0.6 0
22.5 0.6 0
22.8 0.6 0
23.1 0.6 0
23.4 0.6 0
23.7 0.6 0
24 0.6 0
24.3 0.6 0
24.6 0.6 0
24.9 0.6 0
25.2 0.6 0
25.5 0.6 0
25.8 0.6 0
26.1 0.6 0
26.4 0.6 0
26.7 0.6 0
27 0.6 0
27.3 0.6 0
27.6 0.6 0
27.9 0.6 0
28.2 0.6 0
28.5 0.6 0
28.8 0.6 0
29.1 0.6 0
29.4 0.6 0
29.7 0.6 0
30 0.6 0
30.3 0.6 0
0 0.7 0
0.3 0.7 0
0.6 0.7 0
0.9 0.7 0
1.2 0.7 0
1.5 0.7 0
1.8 0.7 0
2.1 0.7 0
2.4 0.7 0
2.7 0.7 0
3 0.7 0
3.3 0.7 0
3.6 0.7 0
3.9 0.7 0
4.2 0.7 0
4.5 0.7 0
4.8 0.7 0
5.1 0.7 0
5.4 0.7 0
5.7 0.7 0
6 0.7 0
6.3 0.7 0
6.6 0.7 0
6.9 0.7 0
7.2 0.7 0
7.5 0.7 0
7.8 0.7 0
8.1 0.7 0
8.4 0.7 0
8.7 0.7 0
9 0.7 0
9.3 0.7 0
9.6 0.7 0
9.9 0.7 0
10.2 0.7 0
10.5 0.7 0
10.8 0.7 0
11.1 0.7 0
11.4 0.7 0
11.7 0.7 0
12 0.7 0
12.3 0.7 0
12.6 0.7 0
12.9 0.7 0
13.2 0.7 0
13.5 0.7 0
13.8 0.7 0
14.1 0.7 0
14.4 0.7 0
14.7 0.7 0
15 0.7 0
15.3 0.7 0
15.6 0.7 0
15.9 0.7 0
16.2 0.7 0
16.5 0.7 0
16.8 0.7 0
17.1 0.7 0
17.4 0.7 0
17.7 0.7 0
18 0.7 0
18.3 0.7 0
18.6 0.7 0
18.9 0.7 0
19.2 0.7 0
19.5 0.7 0
19.8 0.7 0
20.1 0.7 0
20.4 0.7 0
20.7 0.7 0
21 0.7 0
21.3 0.7 0
21.6 0.7 0
21.9 0.7 0
22.2 0.7 0
22.5 0.7 0
22.8 0.7 0
23.1 0.7 0
23.4 0.7 0
23.7 0.7 0
24 0.7 0
24.3 0.7 0
24.6 0.7 0
24.9 0.7 0
25.2 0.7 0
25.5 0.7 0
25.8 0.7 0
26.1 0.7 0
26.4 0.7 0
26.7 0.7 0
27 0.7 0
27.3 0.7 0
27.6 0.7 0
27.9 0.7 0
28.2 0.7 0
28.5 0.7 0
28.8 0.7 0
29.1 0.7 0
29.4 0.7 0
29.7 0.7 0
30 0.7 0
30.3 0.7 0
0 0.8 0
0.3 0.8 0
0.6 0.8 0
0.9 0.8 0
1.2 0.8 0
1.5 0.8 0
1.8 0.8 0
2.1 0.8 0
2.4 0.8 0
2.7 0.8 0
3 0.8 0
3.3 0.8 0
3.6 0.8 0
3.9 0.8 0
4.2 0.8 0
4.5 0.8 0
4.8 0.8 0
5.1 0.8 0
5.4 0.8 0
5.7 0.8 0
6 0.8 0
6.3 0.8 0
6.6 0.8 0
6.9 0.8 0
7.2 0.8 0
7.5 0.8 0
7.8 0.8 0
8.1 0.8 0
8.4 0.8 0
8.7 0.8 0
9 0.8 0
9.3 0.8 0
9.6 0.8 0
9.9 0.8 0
10.2 0.8 0
10.5 0.8 0
10.8 0.8 0
11.1 0.8 0
11.4 0.8 0
11.7 0.8 0
12 0.8 0
12.3 0.8 0
12.6 0.8 0
12.9 0.8 0
13.2 0.8 0
13.5 0.8 0
13.8 0.8 0
14.1 0.8 0
14.4 0.8 0
14.7 0.8 0
15 0.8 0
15.3 0.8 0
15.6 0.8 0
15.9 0.8 0
16.2 0.8 0
16.5 0.8 0
16.8 0.8 0
17.1 0.8 0
17.4 0.8 0
17.7 0.8 0
18 0.8 0
18.3 0.8 0
18.6 0.8 0
18.9 0.8 0
19.2 0.8 0
19.5 0.8 0
19.8 0.8 0
20.1 0.8 0
20.4 0.8 0
20.7 0.8 0
21 0.8 0
21.3 0.8 0
21.6 0.8 0
21.9 0.8 0
22.2 0.8 0
22.5 0.8 0
22.8 0.8 0
23.1 0.8 0
23.4 0.8 0
23.7 0.8 0
24 0.8 0
24.3 0.8 0
24.6 0.8 0
24.9 0.8 0
25.2 0.8 0
25.5 0.8 0
25.8 0.8 0
26.1 0.8 0
26.4 0.8 0
26.7 0.8 0
27 0.8 0
27.3 0.8 0
27.6 0.8 0
27.9 0.8 0
28.2 0.8 0
28.5 0.8 0
28.8 0.8 0
29.1 0.8 0
29.4 0.8 0
29.7 0.8 0
30 0.8 0
30.3 0.8 0
0 0.9 0
0.3 0.9 0
0.6 0.9 0
0.9 0.9 0
1.2 0.9 0
1.5 0.9 0
1.8 0.9 0
2.1 0.9 0
2.4 0.9 0
2.7 0.9 0
3 0.9 0
3.3 0.9 0
3.6 0.9 0
3.9 0.9 0
4.2 0.9 0
4.5 0.9 0
4.8 0.9 0
5.1 0.9 0
5.4 0.9 0
5.7 0.9 0
6 0.9 0
6.3 0.9 0
6.6 0.9 0
6.9 0.9 0
7.2 0.9 0
7.5 0.9 0
7.8 0.9 0
8.1 0.9 0
8.4 0.9 0
8.7 0.9 0
9 0.9 0
9.3 0.9 0
9.6 0.9 0
9.9 0.9 0
10.2 0.9 0
10.5 0.9 0
10.8 0.9 0
11.1 0.9 0
11.4 0.9 0
11.7 0.9 0
12 0.9 0
12.3 0.9 0
12.6 0.9 0
12.9 0.9 0
13.2 0.9 0
13.5 0.9 0
13.8 0.9 0
14.1 0.9 0
14.4 0.9 0
14.7 0.9 0
15 0.9 0
15.3 0.9 0
15.6 0.9 0
15.9 0.9 0
16.2 0.9 0
16.5 0.9 0
16.8 0.9 0
17.1 0.9 0
17.4 0.9 0
17.7 0.9 0
18 0.9 0
18.3 0.9 0
18.6 0.9 0
18.9 0.9 0
19.2 0.9 0
19.5 0.9 0
19.8 0.9 0
20.1 0.9 0
20.4 0.9 0
20.7 0.9 0
21 0.9 0
21.3 0.9 0
21.6 0.9 0
21.9 0.9 0
22.2 0.9 0
22.5 0.9 0
22.8 0.9 0
23.1 0.9 0
23.4 0.9 0
23.7 0.9 0
24 0.9 0
24.3 0.9 0
24.6 0.9 0
24.9 0.9 0
25.2 0.9 0
25.5 0.9 0
25.8 0.9 0
26.1 0.9 0
26.4 0.9 0
26.7 0.9 0
27 0.9 0
27.3 0.9 0
27.6 0.9 0
27.9 0.9 0
28.2 0.9 0
28.5 0.9 0
28.8 0.9 0
29.1 0.9 0
29.4 0.9 0
29.7 0.9 0
30 0.9 0
30.3 0.9 0
0 1 0
0.3 1 0
0.6 1 0
0.9 1 0
1.2 1 0
1.5 1 0
1.8 1 0
2.1 1 0
2.4 1 0
2.7 1 0
3 1 0
3.3 1 0
3.6 1 0
3.9 1 0
4.2 1 0
4.5 1 0
4.8 1 0
5.1 1 0
5.4 1 0
5.7 1 0
6 1 0
6.3 1 0
6.6 1 0
6.9 1 0
7.2 1 0
7.5 1 0
7.8 1 0
8.1 1 0
8.4 1 0
8.7 1 0
9 1 0
9.3 1 0
9.6 1 0
9.9 1 0
10.2 1 0
10.5 1 0
10.8 1 0
11.1 1 0
11.4 1 0
11.7 1 0
12 1 0
12.3 1 0
12.6 1 0
12.9 1 0
13.2 1 0
13.5 1 0
13.8 1 0
14.1 1 0
14.4 1 0
14.7 1 0
15 1 0
15.3 1 0
15.6 1 0
15.9 1 0
16.2 1 0
16.5 1 0
16.8 1 0
17.1 1 0
17.4 1 0
17.7 1 0
18 1 0
18.3 1 0
18.6 1 0
18.9 1 0
19.2 1 0
19.5 1 0
19.8 1 0
20.1 1 0
20.4 1 0
20.7 1 0
21 1 0
21.3 1 0
21.6 1 0
21.9 1 0
22.2 1 0
22.5 1 0
22.8 1 0
23.1 1 0
23.4 1 0
23.7 1 0
24 1 0
24.3 1 0
24.6 1 0
24.9 1 0
25.2 1 0
25.5 1 0
25.8 1 0
26.1 1 0
26.4 1 0
26.7 1 0
27 1 0
27.3 1 0
27.6 1 0
27.9 1 0
28.2 1 0
28.5 1 0
28.8 1 0
29.1 1 0
29.4 1 0
29.7 1 0
30 1 0
30.3 1 0
0 1.1 0
0.3 1.1 0
0.6 1.1 0
0.9 1.1 0
1.2 1.1 0
1.5 1.1 0
1.8 1.1 0
2.1 1.1 0
2.4 1.1 0
2.7 1.1 0
3 1.1 0
3.3 1.1 0
3.6 1.1 0
3.9 1.1 0
4.2 1.1 0
4.5 1.1 0
4.8 1.1 0
5.1 1.1 0
5.4 1.1 0
5.7 1.1 0
6 1.1 0
6.3 1.1 0
6.6 1.1 0
6.9 1.1 0
7.2 1.1 0
7.5 1.1 0
7.8 1.1 0
8.1 1.1 0
8.4 1.1 0
8.7 1.1 0
9 1.1 0
9.3 1.1 0
9.6 1.1 0
9.9 1.1 0
10.2 1.1 0
10.5 1.1 0
10.8 1.1 0
11.1 1.1 0
11.4 1.1 0
11.7 1.1 0
12 1.1 0
12.3 1.1 0
12.6 1.1 0
12.9 1.1 0
13.2 1.1 0
13.5 1.1 0
13.8 1.1 0
14.1 1.1 0
14.4 1.1 0
14.7 1.1 0
15 1.1 0
15.3 1.1 0
15.6 1.1 0
15.9 1.1 0
16.2 1.1 0
16.5 1.1 0
16.8 1.1 0
17.1 1.1 0
17.4 1.1 0
17.7 1.1 0
18 1.1 0
18.3 1.1 0
18.6 1.1 0
18.9 1.1 0
19.2 1.1 0
19.5 1.1 0
19.8 1.1 0
20.1 1.1 0
20.4 1.1 0
20.7 1.1 0
21 1.1 0
21.3 1.1 0
21.6 1.1 0
21.9 1.1 0
22.2 1.1 0
22.5 1.1 0
22.8 1.1 0
23.1 1.1 0
23.4 1.1 0
23.7 1.1 0
24 1.1 0
24.3 1.1 0
24.6 1.1 0
24.9 1.1 0
25.2 1.1 0
25.5 1.1 0
25.8 1.1 0
26.1 1.1 0
26.4 1.1 0
26.7 1.1 0
27 1.1 0
27.3 1.1 0
27.6 1.1 0
27.9 1.1 0
28.2 1.1 0
28.5 1.1 0
28.8 1.1 0
29.1 1.1 0
29.4 1.1 0
29.7 1.1 0
30 1.1 0
30.3 1.1 0

POINT_DATA 1224

SCALARS pressure double
LOOKUP_TABLE pressure
1.31577
1.31577
1.24926
1.20218
1.15923
1.11957
1.08355
1.05117
1.02206
0.995729
0.971619
0.949265
0.928293
0.908411
0.889405
0.871115
0.853424
0.836242
0.819504
0.803154
0.78715
0.771458
0.756048
0.740896
0.725979
0.711277
0.696775
0.682457
0.668309
0.654318
0.640473
0.626764
0.613182
0.599716
0.58636
0.573106
0.559948
0.546878
0.533891
0.520981
0.508144
0.495375
0.482669
0.470023
0.457432
0.444893
0.432402
0.419957
0.407555
0.395193
0.382868
0.370578
0.358321
0.346095
0.333897
0.321727
0.309582
0.297461
0.285362
0.273284
0.261225
0.249185
0.237163
0.225156
0.213164
0.201187
0.189223
0.177271
0.165331
0.153402
0.141483
0.129574
0.117674
0.105782
0.0938981
0.0820218
0.0701525
0.0582897
0.046433
0.0345821
0.0227365
0.010896
-0.000939709
-0.012771
-0.0245982
-0.0364214
-0.048241
-0.0600572
-0.0718701
-0.08368
-0.0954871
-0.107292
-0.119094
-0.130893
-0.142691
-0.154486
-0.16628
-0.178071
-0.189861
-0.20165
-0.213437
0.213437
1.31577
1.31577
1.24926
1.20218
1.15923
1.11957
1.08355
1.05117
1.02206
0.995729
0.971619
0.949265
0.928293
0.908411
0.889405
0.871115
0.853424
0.836242
0.819504
0.803154
0.78715
0.771458
0.756048
0.740896
0.725979
0.711277
0.696775
0.682457
0.668309
0.654318
0.640473
0.626764
0.613182
0.599716
0.58636
0.573106
0.559948
0.546878
0.533891
0.520981
0.508144
0.495375
0.482669
0.470023
0.457432
0.444893
0.432402
0.419957
0.407555
0.395193
0.382868
0.370578
0.358321
0.346095
0.333897
0.321727
0.309582
0.297461
0.285362
0.273284
0.261225
0.249185
0.237163
0.225156
0.213164
0.201187
0.189223
0.177271
0.165331
0.153402
0.141483
0.129574
0.117674
0.105782
0.0938981
0.0820218
0.0701525
0.0582897
0.046433
0.0345821
0.0227365
0.010896
-0.000939709
-0.012771
-0.0245982
-0.0364214
-0.048241
-0.0600572
-0.0718701
-0.08368
-0.0954871
-0.107292
-0.119094
-0.130893
-0.142691
-0.154486
-0.16628
-0.178071
-0.189861
-0.20165
-0.213437
0.213437
1.29512
1.29512
1.24746
1.2025
1.15995
1.12034
1.08425
1.05176
1.02254
0.996099
0.971904
0.949486
0.928466
0.908549
0.889516
0.871207
0.853501
0.836309
0.819561
0.803204
0.787195
0.771498
0.756085
0.740929
0.726008
0.711305
0.6968
0.68248
0.66833
0.654337
0.640491
0.626781
0.613197
0.59973
0.586373
0.573118
0.559959
0.546888
0.533901
0.52099
0.508153
0.495383
0.482677
0.47003
0.457438
0.444899
0.432408
0.419962
0.40756
0.395197
0.382872
0.370582
0.358324
0.346098
0.3339
0.32173
0.309585
0.297463
0.285364
0.273286
0.261228
0.249187
0.237164
0.225158
0.213166
0.201188
0.189224
0.177272
0.165332
0.153403
0.141484
0.129575
0.117675
0.105783
0.093899
0.0820226
0.0701532
0.0582904
0.0464337
0.0345827
0.0227371
0.0108966
-0.000939193
-0.0127705
-0.0245977
-0.036421
-0.0482406
-0.0600568
-0.0718698
-0.0836797
-0.0954868
-0.107291
-0.119093
-0.130893
-0.14269
-0.154486
-0.166279
-0.178071
-0.189861
-0.20165
-0.213436
0.213436
1.28074
1.28074
1.24496
1.20289
1.16108
1.12161
1.08543
1.05275
1.02333
0.996705
0.972359
0.949826
0.928721
0.908743
0.889666
0.871326
0.853597
0.836388
0.819627
0.80326
0.787243
0.771541
0.756122
0.740962
0.726038
0.711331
0.696824
0.682501
0.668349
0.654355
0.640507
0.626796
0.61321
0.599743
0.586385
0.573129
0.559969
0.546897
0.533909
0.520998
0.50816
0.49539
0.482683
0.470035
0.457443
0.444903
0.432412
0.419967
0.407564
0.395201
0.382875
0.370585
0.358327
0.346101
0.333903
0.321732
0.309587
0.297466
0.285366
0.273288
0.261229
0.249189
0.237166
0.225159
0.213167
0.20119
0.189225
0.177273
0.165333
0.153404
0.141485
0.129576
0.117675
0.105784
0.0938997
0.0820233
0.0701539
0.058291
0.0464342
0.0345832
0.0227376
0.010897
-0.000938779
-0.0127702
-0.0245974
-0.0364207
-0.0482403
-0.0600565
-0.0718695
-0.0836794
-0.0954866
-0.107291
-0.119093
-0.130893
-0.14269
-0.154486
-0.166279
-0.178071
-0.189861
-0.201649
-0.213433
0.213433
1.27205
1.27205
1.24295
1.20314
1.162
1.12269
1.08646
1.05364
1.02406
0.997284
0.972808
0.950171
0.928987
0.90895
0.889831
0.871459
0.853706
0.836479
0.819705
0.803327
0.787301
0.771592
0.756167
0.741002
0.726074
0.711363
0.696853
0.682527
0.668373
0.654376
0.640527
0.626813
0.613226
0.599757
0.586398
0.573142
0.55998
0.546908
0.533919
0.521007
0.508168
0.495397
0.48269
0.470042
0.45745
0.444909
0.432418
0.419972
0.407568
0.395205
0.382879
0.370589
0.358331
0.346104
0.333906
0.321735
0.30959
0.297468
0.285369
0.27329
0.261231
0.249191
0.237168
0.225161
0.213169
0.201191
0.189227
0.177275
0.165334
0.153405
0.141486
0.129577
0.117676
0.105784
0.0939005
0.0820241
0.0701546
0.0582916
0.0464348
0.0345838
0.0227381
0.0108975
-0.000938301
-0.0127697
-0.0245969
-0.0364203
-0.0482399
-0.0600561
-0.0718692
-0.0836791
-0.0954863
-0.107291
-0.119093
-0.130892
-0.14269
-0.154485
-0.166279
-0.178071
-0.18986
-0.201648
-0.213427
0.213427
1.26797
1.26797
1.24186
1.20326
1.1625
1.12328
1.08703
1.05415
1.02448
0.997618
0.973072
0.950379
0.929151
0.909081
0.889937
0.871546
0.85378
0.836542
0.819759
0.803374
0.787343
0.771628
0.756199
0.741031
0.7261
0.711387
0.696874
0.682547
0.668391
0.654393
0.640542
0.626827
0.613239
0.599769
0.586409
0.573151
0.559989
0.546916
0.533926
0.521014
0.508175
0.495404
0.482696
0.470047
0.457454
0.444914
0.432422
0.419976
0.407572
0.395208
0.382882
0.370592
0.358334
0.346107
0.333909
0.321737
0.309592
0.29747
0.285371
0.273292
0.261233
0.249192
0.237169
0.225162
0.21317
0.201192
0.189228
0.177276
0.165335
0.153406
0.141487
0.129577
0.117677
0.105785
0.0939012
0.0820246
0.0701551
0.0582922
0.0464353
0.0345842
0.0227386
0.010898
-0.000937922
-0.0127693
-0.0245966
-0.0364199
-0.0482396
-0.0600559
-0.0718689
-0.0836789
-0.0954861
-0.107291
-0.119093
-0.130892
-0.14269
-0.154485
-0.166279
-0.17807
-0.18986
-0.201647
-0.213423
0.213423
1.26797
1.26797
1.24186
1.20326
1.1625
1.12328
1.08703
1.05415
1.02448
0.997618
0.973072
0.950379
0.92915
0.909081
0.889937
0.871546
0.85378
0.836542
0.819759
0.803374
0.787343
0.771628
0.756199
0.741031
0.7261
0.711387
0.696874
0.682547
0.668391
0.654393
0.640542
0.626827
0.613239
0.599769
0.586409
0.573151
0.559989
0.546916
0.533926
0.521014
0.508175
0.495404
0.482696
0.470047
0.457454
0.444914
0.432422
0.419976
0.407572
0.395208
0.382882
0.370592
0.358334
0.346107
0.333909
0.321737
0.309592
0.29747
0.285371
0.273292
0.261233
0.249192
0.237169
0.225162
0.21317
0.201192
0.189228
0.177276
0.165335
0.153406
0.141487
0.129577
0.117677
0.105785
0.0939012
0.0820246
0.0701551
0.0582922
0.0464353
0.0345842
0.0227386
0.010898
-0.000937922
-0.0127693
-0.0245966
-0.0364199
-0.0482396
-0.0600559
-0.0718689
-0.0836789
-0.0954861
-0.107291
-0.119093
-0.130892
-0.14269
-0.154485
-0.166279
-0.17807
-0.18986
-0.201647
-0.213423
0.213423
1.27205
1.27205
1.24295
1.20314
1.162
1.12269
1.08646
1.05364
1.02406
0.997284
0.972808
0.950172
0.928987
0.90895
0.889831
0.871459
0.853707
0.836479
0.819705
0.803327
0.787302
0.771592
0.756167
0.741002
0.726074
0.711363
0.696853
0.682527
0.668373
0.654376
0.640527
0.626813
0.613226
0.599757
0.586398
0.573142
0.55998
0.546908
0.533919
0.521007
0.508168
0.495397
0.48269
0.470042
0.45745
0.444909
0.432418
0.419972
0.407568
0.395205
0.382879
0.370589
0.358331
0.346104
0.333906
0.321735
0.30959
0.297468
0.285369
0.27329
0.261231
0.249191
0.237168
0.225161
0.213169
0.201191
0.189227
0.177275
0.165334
0.153405
0.141486
0.129577
0.117676
0.105784
0.0939005
0.0820241
0.0701546
0.0582916
0.0464348
0.0345838
0.0227381
0.0108975
-0.000938301
-0.0127697
-0.0245969
-0.0364203
-0.0482399
-0.0600561
-0.0718692
-0.0836791
-0.0954863
-0.107291
-0.119093
-0.130892
-0.14269
-0.154485
-0.166279
-0.178071
-0.18986
-0.201648
-0.213427
0.213427
1.28074
1.28074
1.24496
1.20289
1.16108
1.12161
1.08543
1.05275
1.02333
0.996705
0.97236
0.949827
0.928721
0.908742
0.889666
0.871326
0.853597
0.836388
0.819627
0.80326
0.787244
0.771541
0.756122
0.740962
0.726038
0.711331
0.696824
0.682501
0.668349
0.654355
0.640507
0.626796
0.61321
0.599743
0.586385
0.573129
0.559969
0.546897
0.533909
0.520998
0.50816
0.49539
0.482683
0.470035
0.457443
0.444903
0.432412
0.419967
0.407564
0.395201
0.382875
0.370585
0.358327
0.346101
0.333903
0.321732
0.309587
0.297466
0.285366
0.273288
0.261229
0.249189
0.237166
0.225159
0.213167
0.20119
0.189225
0.177273
0.165333
0.153404
0.141485
0.129576
0.117675
0.105784
0.0938997
0.0820233
0.0701539
0.058291
0.0464342
0.0345832
0.0227376
0.010897
-0.000938779
-0.0127702
-0.0245974
-0.0364207
-0.0482403
-0.0600565
-0.0718695
-0.0836794
-0.0954866
-0.107291
-0.119093
-0.130893
-0.14269
-0.154486
-0.166279
-0.178071
-0.189861
-0.201649
-0.213433
0.213433
1.29512
1.29512
1.24746
1.2025
1.15995
1.12034
1.08425
1.05176
1.02254
0.996098
0.971904
0.949486
0.928465
0.908548
0.889516
0.871207
0.853502
0.836309
0.819561
0.803204
0.787195
0.771498
0.756085
0.740929
0.726008
0.711305
0.6968
0.68248
0.66833
0.654337
0.640491
0.626781
0.613197
0.59973
0.586373
0.573118
0.559959
0.546888
0.533901
0.52099
0.508153
0.495383
0.482677
0.47003
0.457438
0.444899
0.432408
0.419962
0.40756
0.395197
0.382872
0.370582
0.358324
0.346098
0.3339
0.32173
0.309585
0.297463
0.285364
0.273286
0.261228
0.249187
0.237164
0.225158
0.213166
0.201188
0.189224
0.177272
0.165332
0.153403
0.141484
0.129575
0.117675
0.105783
0.093899
0.0820226
0.0701532
0.0582904
0.0464337
0.0345827
0.0227371
0.0108966
-0.000939193
-0.0127705
-0.0245977
-0.036421
-0.0482406
-0.0600568
-0.0718698
-0.0836797
-0.0954868
-0.107291
-0.119093
-0.130893
-0.14269
-0.154486
-0.166279
-0.178071
-0.189861
-0.20165
-0.213436
0.213436
1.31577
1.31577
1.24926
1.20218
1.15923
1.11957
1.08355
1.05117
1.02207
0.995728
0.971618
0.949265
0.928292
0.908411
0.889405
0.871115
0.853424
0.836243
0.819504
0.803154
0.78715
0.771458
0.756048
0.740896
0.725979
0.711278
0.696775
0.682457
0.668309
0.654318
0.640473
0.626764
0.613182
0.599716
0.58636
0.573106
0.559948
0.546878
0.533891
0.520981
0.508145
0.495375
0.482669
0.470023
0.457432
0.444893
0.432402
0.419957
0.407555
0.395193
0.382868
0.370578
0.358321
0.346095
0.333897
0.321727
0.309582
0.297461
0.285362
0.273284
0.261225
0.249185
0.237163
0.225156
0.213164
0.201187
0.189223
0.177271
0.165331
0.153402
0.141483
0.129574
0.117674
0.105782
0.0938981
0.0820218
0.0701525
0.0582897
0.046433
0.0345821
0.0227365
0.010896
-0.000939709
-0.012771
-0.0245982
-0.0364214
-0.048241
-0.0600572
-0.0718701
-0.08368
-0.0954871
-0.107292
-0.119094
-0.130893
-0.142691
-0.154486
-0.16628
-0.178071
-0.189861
-0.20165
-0.213437
0.213437
1.31577
1.31577
1.24926
1.20218
1.15923
1.11957
1.08355
1.05117
1.02207
0.995728
0.971618
0.949265
0.928292
0.908411
0.889405
0.871115
0.853424
0.836243
0.819504
0.803154
0.78715
0.771458
0.756048
0.740896
0.725979
0.711278
0.696775
0.682457
0.668309
0.654318
0.640473
0.626764
0.613182
0.599716
0.58636
0.573106
0.559948
0.546878
0.533891
0.520981
0.508145
0.495375
0.482669
0.470023
0.457432
0.444893
0.432402
0.419957
0.407555
0.395193
0.382868
0.370578
0.358321
0.346095
0.333897
0.321727
0.309582
0.297461
0.285362
0.273284
0.261225
0.249185
0.237163
0.225156
0.213164
0.201187
0.189223
0.177271
0.165331
0.153402
0.141483
0.129574
0.117674
0.105782
0.0938981
0.0820218
0.0701525
0.0582897
0.046433
0.0345821
0.0227365
0.010896
-0.000939709
-0.012771
-0.0245982
-0.0364214
-0.048241
-0.0600572
-0.0718701
-0.08368
-0.0954871
-0.107292
-0.119094
-0.130893
-0.142691
-0.154486
-0.16628
-0.178071
-0.189861
-0.20165
-0.213437
0.213437
SCALARS phi double
LOOKUP_TABLE phi
1
1
1
0.999995
0.999977
0.999931
0.999833
0.999655
0.999364
0.998929
0.998323
0.997523
0.996512
0.995279
0.993815
0.992118
0.990189
0.988032
0.985652
0.983059
0.980261
0.97727
0.974097
0.970755
0.967257
0.963614
0.95984
0.955947
0.951946
0.94785
0.943668
0.939411
0.93509
0.930713
0.92629
0.921827
0.917334
0.912816
0.90828
0.903733
0.899179
0.894625
0.890074
0.88553
0.880997
0.876478
0.871974
0.867486
0.863015
0.85856
0.854117
0.849684
0.845256
0.840826
0.836387
0.83193
0.827446
0.822925
0.818355
0.813724
0.809021
0.804233
0.799349
0.794356
0.789244
0.784002
0.778621
0.77309
0.767403
0.761553
0.755534
0.749342
0.742973
0.736425
0.729698
0.722792
0.715709
0.708449
0.701018
0.69342
0.685658
0.67774
0.669672
0.66146
0.653113
0.644638
0.636044
0.627339
0.618533
0.609633
0.600649
0.59159
0.582465
0.573283
0.56405
0.554785
0.545465
0.536201
0.526649
0.518031
0.506102
0.506102
1
1
1
0.999995
0.999977
0.999931
0.999833
0.999655
0.999364
0.998929
0.998323
0.997523
0.996512
0.995279
0.993815
0.992118
0.990189
0.988032
0.985652
0.983059
0.980261
0.97727
0.974097
0.970755
0.967257
0.963614
0.95984
0.955947
0.951946
0.94785
0.943668
0.939411
0.93509
0.930713
0.92629
0.921827
0.917334
0.912816
0.90828
0.903733
0.899179
0.894625
0.890074
0.88553
0.880997
0.876478
0.871974
0.867486
0.863015
0.85856
0.854117
0.849684
0.845256
0.840826
0.836387
0.83193
0.827446
0.822925
0.818355
0.813724
0.809021
0.804233
0.799349
0.794356
0.789244
0.784002
0.778621
0.77309
0.767403
0.761553
0.755534
0.749342
0.742973
0.736425
0.729698
0.722792
0.715709
0.708449
0.701018
0.69342
0.685658
0.67774
0.669672
0.66146
0.653113
0.644638
0.636044
0.627339
0.618533
0.609633
0.600649
0.59159
0.582465
0.573283
0.56405
0.554785
0.545465
0.536201
0.526649
0.518031
0.506102
0.506102
0.999998
1
0.999984
0.999921
0.999783
0.999536
0.999146
0.99858
0.997812
0.996819
0.99559
0.994116
0.992397
0.990437
0.98824
0.985817
0.983177
0.980333
0.977297
0.974081
0.9707
0.967166
0.963491
0.95969
0.955773
0.951752
0.947639
0.943445
0.939178
0.93485
0.930469
0.926042
0.921579
0.917086
0.912571
0.908038
0.903495
0.898947
0.894398
0.889853
0.885317
0.880792
0.876283
0.871793
0.867324
0.862878
0.858459
0.854066
0.849702
0.845366
0.841058
0.836778
0.832522
0.828289
0.824075
0.819876
0.815685
0.811497
0.807304
0.803099
0.798873
0.794618
0.790323
0.785979
0.781577
0.777106
0.772557
0.767921
0.763189
0.758351
0.753402
0.748332
0.743136
0.737808
0.732343
0.726738
0.720989
0.715094
0.709052
0.702863
0.696527
0.690044
0.683418
0.67665
0.669744
0.662704
0.655534
0.648239
0.640825
0.633297
0.625661
0.617923
0.61009
0.602169
0.594163
0.586092
0.577924
0.569789
0.56129
0.553762
0.542845
0.542845
1.00001
0.999992
0.99954
0.998615
0.997207
0.995317
0.992955
0.990145
0.986922
0.983332
0.979422
0.975241
0.970836
0.966248
0.961513
0.956664
0.951728
0.946728
0.941682
0.936608
0.931519
0.926427
0.92134
0.916268
0.911216
0.906189
0.901193
0.896232
0.891307
0.886422
0.881579
0.87678
0.872025
0.867316
0.862654
0.85804
0.853473
0.848955
0.844486
0.840065
0.835694
0.831371
0.827098
0.822874
0.818698
0.814571
0.810492
0.806462
0.802478
0.798542
0.794652
0.790807
0.787006
0.783248
0.77953
0.77585
0.772206
0.768595
0.765012
0.761454
0.757917
0.754395
0.750883
0.747374
0.743864
0.740344
0.736809
0.733252
0.729665
0.726041
0.722374
0.718655
0.714879
0.711039
0.707127
0.70314
0.699069
0.694912
0.690662
0.686316
0.68187
0.67732
0.672665
0.667901
0.663029
0.658045
0.652951
0.647746
0.64243
0.637004
0.631471
0.625831
0.620086
0.61424
0.608293
0.602258
0.596104
0.589947
0.58343
0.577701
0.569152
0.569152
1.00143
0.99857
0.991252
0.98188
0.971566
0.96086
0.950051
0.939311
0.928756
0.918468
0.908503
0.898898
0.889671
0.880827
0.87236
0.864261
0.856513
0.849098
0.841997
0.835192
0.828664
0.822396
0.816369
0.810568
0.80498
0.799588
0.794382
0.789348
0.784477
0.779758
0.775181
0.770738
0.766422
0.762224
0.758139
0.754159
0.75028
0.746495
0.7428
0.739191
0.735663
0.732212
0.728834
0.725528
0.722288
0.719113
0.715999
0.712945
0.709948
0.707005
0.704115
0.701276
0.698485
0.695741
0.693042
0.690386
0.687771
0.685195
0.682655
0.68015
0.677677
0.675233
0.672816
0.670423
0.668049
0.665692
0.663348
0.661013
0.658683
0.656353
0.65402
0.651678
0.649323
0.646949
0.644553
0.642129
0.639672
0.637178
0.634642
0.632059
0.629425
0.626736
0.623987
0.621175
0.618295
0.615346
0.612323
0.609224
0.606046
0.602786
0.599444
0.596018
0.592505
0.588906
0.585217
0.581446
0.577566
0.57366
0.569472
0.565796
0.560181
0.560181
1.0456
0.954401
0.887723
0.838674
0.801641
0.772861
0.749886
0.731119
0.715499
0.702298
0.691001
0.681228
0.672693
0.665173
0.658493
0.652515
0.647126
0.642236
0.637772
0.633673
0.629891
0.626382
0.623115
0.620059
0.61719
0.614489
0.611936
0.609518
0.607221
0.605034
0.602947
0.60095
0.599038
0.597202
0.595437
0.593737
0.592097
0.590514
0.588983
0.587501
0.586064
0.58467
0.583315
0.581999
0.580718
0.57947
0.578253
0.577067
0.575908
0.574777
0.573671
0.572589
0.57153
0.570494
0.569478
0.568482
0.567505
0.566546
0.565604
0.564678
0.563767
0.56287
0.561986
0.561114
0.560252
0.559399
0.558553
0.557713
0.556878
0.556044
0.555211
0.554375
0.553536
0.552689
0.551833
0.550966
0.550083
0.549183
0.548263
0.547318
0.546347
0.545347
0.544313
0.543243
0.542133
0.540981
0.539784
0.538537
0.537239
0.535886
0.534475
0.533004
0.53147
0.529871
0.528202
0.526466
0.524646
0.522787
0.520743
0.518945
0.516091
0.516091
-0.0455988
0.0455988
0.112277
0.161326
0.198359
0.227139
0.250114
0.268881
0.284501
0.297702
0.308999
0.318772
0.327307
0.334827
0.341507
0.347485
0.352874
0.357764
0.362228
0.366327
0.370109
0.373618
0.376885
0.379941
0.38281
0.385511
0.388064
0.390482
0.392779
0.394966
0.397053
0.39905
0.400962
0.402798
0.404563
0.406263
0.407903
0.409486
0.411017
0.412499
0.413936
0.41533
0.416685
0.418001
0.419282
0.42053
0.421747
0.422933
0.424092
0.425223
0.426329
0.427411
0.428469
0.429506
0.430521
0.431516
0.432491
0.433448
0.434386
0.435308
0.436212
0.437099
0.437971
0.438826
0.439666
0.440491
0.4413
0.442094
0.442872
0.443635
0.444381
0.445111
0.445823
0.446518
0.447194
0.44785
0.448485
0.449099
0.449689
0.450254
0.450793
0.451304
0.451785
0.452234
0.452649
0.453028
0.453369
0.453668