# vtk DataFile Version 3.0
FlowField
ASCII
DATASET STRUCTURED_GRID
DIMENSIONS 22 17 12 
POINTS 4488 double
0 0 0
0.1 0 0
0.2 0 0
0.3 0 0
0.4 0 0
0.5 0 0
0.6 0 0
0.7 0 0
0.8 0 0
0.9 0 0
1 0 0
1.1 0 0
1.2 0 0
1.3 0 0
1.4 0 0
1.5 0 0
1.6 0 0
1.7 0 0
1.8 0 0
1.9 0 0
2 0 0
2.1 0 0
0 0.1 0
0.1 0.1 0
0.2 0.1 0
0.3 0.1 0
0.4 0.1 0
0.5 0.1 0
0.6 0.1 0
0.7 0.1 0
0.8 0.1 0
0.9 0.1 0
1 0.1 0
1.1 0.1 0
1.2 0.1 0
1.3 0.1 0
1.4 0.1 0
1.5 0.1 0
1.6 0.1 0
1.7 0.1 0
1.8 0.1 0
1.9 0.1 0
2 0.1 0
2.1 0.1 0
0 0.2 0
0.1 0.2 0
0.2 0.2 0
0.3 0.2 0
0.4 0.2 0
0.5 0.2 0
0.6 0.2 0
0.7 0.2 0
0.8 0.2 0
0.9 0.2 0
1 0.2 0
1.1 0.2 0
1.2 0.2 0
1.3 0.2 0
1.4 0.2 0
1.5 0.2 0
1.6 0.2 0
1.7 0.2 0
1.8 0.2 0
1.9 0.2 0
2 0.2 0
2.1 0.2 0
0 0.3 0
0.1 0.3 0
0.2 0.3 0
0.3 0.3 0
0.4 0.3 0
0.5 0.3 0
0.6 0.3 0
0.7 0.3 0
0.8 0.3 0
0.9 0.3 0
1 0.3 0
1.1 0.3 0
1.2 0.3 0
1.3 0.3 0
1.4 0.3 0
1.5 0.3 0
1.6 0.3 0
1.7 0.3 0
1.8 0.3 0
1.9 0.3 0
2 0.3 0
2.1 0.3 0
0 0.4 0
0.1 0.4 0
0.2 0.4 0
0.3 0.4 0
0.4 0.4 0
0.5 0.4 0
0.6 0.4 0
0.7 0.4 0
0.8 0.4 0
0.9 0.4 0
1 0.4 0
1.1 0.4 0
1.2 0.4 0
1.3 0.4 0
1.4 0.4 0
1.5 0.4 0
1.6 0.4 0
1.7 0.4 0
1.8 0.4 0
1.9 0.4 0
2 0.4 0
2.1 0.4 0
0 0.5 0
0.1 0.5 0
0.2 0.5 0
0.3 0.5 0
0.4 0.5 0
0.5 0.5 0
0.6 0.5 0
0.7 0.5 0
0.8 0.5 0
0.9 0.5 0
1 0.5 0
1.1 0.5 0
1.2 0.5 0
1.3 0.5 0
1.4 0.5 0
1.5 0.5 0
1.6 0.5 0
1.7 0.5 0
1.8 0.5 0
1.9 0.5 0
2 0.5 0
2.1 0.5 0
0 0.6 0
0.1 0.6 0
0.2 0.6 0
0.3 0.6 0
0.4 0.6 0
0.5 0.6 0
0.6 0.6 0
0.7 0.6 0
0.8 0.6 0
0.9 0.6 0
1 0.6 0
1.1 0.6 0
1.2 0.6 0
1.3 0.6 0
1.4 0.6 0
1.5 0.6 0
1.6 0.6 0
1.7 0.6 0
1.8 0.6 0
1.9 0.6 0
2 0.6 0
2.1 0.6 0
0 0.7 0
0.1 0.7 0
0.2 0.7 0
0.3 0.7 0
0.4 0.7 0
0.5 0.7 0
0.6 0.7 0
0.7 0.7 0
0.8 0.7 0
0.9 0.7 0
1 0.7 0
1.1 0.7 0
1.2 0.7 0
1.3 0.7 0
1.4 0.7 0
1.5 0.7 0
1.6 0.7 0
1.7 0.7 0
1.8 0.7 0
1.9 0.7 0
2 0.7 0
2.1 0.7 0
0 0.8 0
0.1 0.8 0
0.2 0.8 0
0.3 0.8 0
0.4 0.8 0
0.5 0.8 0
0.6 0.8 0
0.7 0.8 0
0.8 0.8 0
0.9 0.8 0
1 0.8 0
1.1 0.8 0
1.2 0.8 0
1.3 0.8 0
1.4 0.8 0
1.5 0.8 0
1.6 0.8 0
1.7 0.8 0
1.8 0.8 0
1.9 0.8 0
2 0.8 0
2.1 0.8 0
0 0.9 0
0.1 0.9 0
0.2 0.9 0
0.3 0.9 0
0.4 0.9 0
0.5 0.9 0
0.6 0.9 0
0.7 0.9 0
0.8 0.9 0
0.9 0.9 0
1 0.9 0
1.1 0.9 0
1.2 0.9 0
1.3 0.9 0
1.4 0.9 0
1.5 0.9 0
1.6 0.9 0
1.7 0.9 0
1.8 0.9 0
1.9 0.9 0
2 0.9 0
2.1 0.9 0
0 1 0
0.1 1 0
0.2 1 0
0.3 1 0
0.4 1 0
0.5 1 0
0.6 1 0
0.7 1 0
0.8 1 0
0.9 1 0
1 1 0
1.1 1 0
1.2 1 0
1.3 1 0
1.4 1 0
1.5 1 0
1.6 1 0
1.7 1 0
1.8 1 0
1.9 1 0
2 1 0
2.1 1 0
0 1.1 0
0.1 1.1 0
0.2 1.1 0
0.3 1.1 0
0.4 1.1 0
0.5 1.1 0
0.6 1.1 0
0.7 1.1 0
0.8 1.1 0
0.9 1.1 0
1 1.1 0
1.1 1.1 0
1.2 1.1 0
1.3 1.1 0
1.4 1.1 0
1.5 1.1 0
1.6 1.1 0
1.7 1.1 0
1.8 1.1 0
1.9 1.1 0
2 1.1 0
2.1 1.1 0
0 1.2 0
0.1 1.2 0
0.2 1.2 0
0.3 1.2 0
0.4 1.2 0
0.5 1.2 0
0.6 1.2 0
0.7 1.2 0
0.8 1.2 0
0.9 1.2 0
1 1.2 0
1.1 1.2 0
1.2 1.2 0
1.3 1.2 0
1.4 1.2 0
1.5 1.2 0
1.6 1.2 0
1.7 1.2 0
1.8 1.2 0
1.9 1.2 0
2 1.2 0
2.1 1.2 0
0 1.3 0
0.1 1.3 0
0.2 1.3 0
0.3 1.3 0
0.4 1.3 0
0.5 1.3 0
0.6 1.3 0
0.7 1.3 0
0.8 1.3 0
0.9 1.3 0
1 1.3 0
1.1 1.3 0
1.2 1.3 0
1.3 1.3 0
1.4 1.3 0
1.5 1.3 0
1.6 1.3 0
1.7 1.3 0
1.8 1.3 0
1.9 1.3 0
2 1.3 0
2.1 1.3 0
0 1.4 0
0.1 1.4 0
0.2 1.4 0
0.3 1.4 0
0.4 1.4 0
0.5 1.4 0
0.6 1.4 0
0.7 1.4 0
0.8 1.4 0
0.9 1.4 0
1 1.4 0
1.1 1.4 0
1.2 1.4 0
1.3 1.4 0
1.4 1.4 0
1.5 1.4 0
1.6 1.4 0
1.7 1.4 0
1.8 1.4 0
1.9 1.4 0
2 1.4 0
2.1 1.4 0
0 1.5 0
0.1 1.5 0
0.2 1.5 0
0.3 1.5 0
0.4 1.5 0
0.5 1.5 0
0.6 1.5 0
0.7 1.5 0
0.8 1.5 0
0.9 1.5 0
1 1.5 0
1.1 1.5 0
1.2 1.5 0
1.3 1.5 0
1.4 1.5 0
1.5 1.5 0
1.6 1.5 0
1.7 1.5 0
1.8 1.5 0
1.9 1.5 0
2 1.5 0
2.1 1.5 0
0 1.6 0
0.1 1.6 0
0.2 1.6 0
0.3 1.6 0
0.4 1.6 0
0.5 1.6 0
0.6 1.6 0
0.7 1.6 0
0.8 1.6 0
0.9 1.6 0
1 1.6 0
1.1 1.6 0
1.2 1.6 0
1.3 1.6 0
1.4 1.6 0
1.5 1.6 0
1.6 1.6 0
1.7 1.6 0
1.8 1.6 0
1.9 1.6 0
2 1.6 0
2.1 1.6 0
0 0 0.1
0.1 0 0.1
0.2 0 0.1
0.3 0 0.1
0.4 0 0.1
0.5 0 0.1
0.6 0 0.1
0.7 0 0.1
0.8 0 0.1
0.9 0 0.1
1 0 0.1
1.1 0 0.1
1.2 0 0.1
1.3 0 0.1
1.4 0 0.1
1.5 0 0.1
1.6 0 0.1
1.7 0 0.1
1.8 0 0.1
1.9 0 0.1
2 0 0.1
2.1 0 0.1
0 0.1 0.1
0.1 0.1 0.1
0.2 0.1 0.1
0.3 0.1 0.1
0.4 0.1 0.1
0.5 0.1 0.1
0.6 0.1 0.1
0.7 0.1 0.1
0.8 0.1 0.1
0.9 0.1 0.1
1 0.1 0.1
1.1 0.1 0.1
1.2 0.1 0.1
1.3 0.1 0.1
1.4 0.1 0.1
1.5 0.1 0.1
1.6 0.1 0.1
1.7 0.1 0.1
1.8 0.1 0.1
1.9 0.1 0.1
2 0.1 0.1
2.1 0.1 0.1
0 0.2 0.1
0.1 0.2 0.1
0.2 0.2 0.1
0.3 0.2 0.1
0.4 0.2 0.1
0.5 0.2 0.1
0.6 0.2 0.1
0.7 0.2 0.1
0.8 0.2 0.1
0.9 0.2 0.1
1 0.2 0.1
1.1 0.2 0.1
1.2 0.2 0.1
1.3 0.2 0.1
1.4 0.2 0.1
1.5 0.2 0.1
1.6 0.2 0.1
1.7 0.2 0.1
1.8 0.2 0.1
1.9 0.2 0.1
2 0.2 0.1
2.1 0.2 0.1
0 0.3 0.1
0.1 0.3 0.1
0.2 0.3 0.1
0.3 0.3 0.1
0.4 0.3 0.1
0.5 0.3 0.1
0.6 0.3 0.1
0.7 0.3 0.1
0.8 0.3 0.1
0.9 0.3 0.1
1 0.3 0.1
1.1 0.3 0.1
1.2 0.3 0.1
1.3 0.3 0.1
1.4 0.3 0.1
1.5 0.3 0.1
1.6 0.3 0.1
1.7 0.3 0.1
1.8 0.3 0.1
1.9 0.3 0.1
2 0.3 0.1
2.1 0.3 0.1
0 0.4 0.1
0.1 0.4 0.1
0.2 0.4 0.1
0.3 0.4 0.1
0.4 0.4 0.1
0.5 0.4 0.1
0.6 0.4 0.1
0.7 0.4 0.1
0.8 0.4 0.1
0.9 0.4 0.1
1 0.4 0.1
1.1 0.4 0.1
1.2 0.4 0.1
1.3 0.4 0.1
1.4 0.4 0.1
1.5 0.4 0.1
1.6 0.4 0.1
1.7 0.4 0.1
1.8 0.4 0.1
1.9 0.4 0.1
2 0.4 0.1
2.1 0.4 0.1
0 0.5 0.1
0.1 0.5 0.1
0.2 0.5 0.1
0.3 0.5 0.1
0.4 0.5 0.1
0.5 0.5 0.1
0.6 0.5 0.1
0.7 0.5 0.1
0.8 0.5 0.1
0.9 0.5 0.1
1 0.5 0.1
1.1 0.5 0.1
1.2 0.5 0.1
1.3 0.5 0.1
1.4 0.5 0.1
1.5 0.5 0.1
1.6 0.5 0.1
1.7 0.5 0.1
1.8 0.5 0.1
1.9 0.5 0.1
2 0.5 0.1
2.1 0.5 0.1
0 0.6 0.1
0.1 0.6 0.1
0.2 0.6 0.1
0.3 0.6 0.1
0.4 0.6 0.1
0.5 0.6 0.1
0.6 0.6 0.1
0.7 0.6 0.1
0.8 0.6 0.1
0.9 0.6 0.1
1 0.6 0.1
1.1 0.6 0.1
1.2 0.6 0.1
1.3 0.6 0.1
1.4 0.6 0.1
1.5 0.6 0.1
1.6 0.6 0.1
1.7 0.6 0.1
1.8 0.6 0.1
1.9 0.6 0.1
2 0.6 0.1
2.1 0.6 0.1
0 0.7 0.1
0.1 0.7 0.1
0.2 0.7 0.1
0.3 0.7 0.1
0.4 0.7 0.1
0.5 0.7 0.1
0.6 0.7 0.1
0.7 0.7 0.1
0.8 0.7 0.1
0.9 0.7 0.1
1 0.7 0.1
1.1 0.7 0.1
1.2 0.7 0.1
1.3 0.7 0.1
1.4 0.7 0.1
1.5 0.7 0.1
1.6 0.7 0.1
1.7 0.7 0.1
1.8 0.7 0.1
1.9 0.7 0.1
2 0.7 0.1
2.1 0.7 0.1
0 0.8 0.1
0.1 0.8 0.1
0.2 0.8 0.1
0.3 0.8 0.1
0.4 0.8 0.1
0.5 0.8 0.1
0.6 0.8 0.1
0.7 0.8 0.1
0.8 0.8 0.1
0.9 0.8 0.1
1 0.8 0.1
1.1 0.8 0.1
1.2 0.8 0.1
1.3 0.8 0.1
1.4 0.8 0.1
1.5 0.8 0.1
1.6 0.8 0.1
1.7 0.8 0.1
1.8 0.8 0.1
1.9 0.8 0.1
2 0.8 0.1
2.1 0.8 0.1
0 0.9 0.1
0.1 0.9 0.1
0.2 0.9 0.1
0.3 0.9 0.1
0.4 0.9 0.1
0.5 0.9 0.1
0.6 0.9 0.1
0.7 0.9 0.1
0.8 0.9 0.1
0.9 0.9 0.1
1 0.9 0.1
1.1 0.9 0.1
1.2 0.9 0.1
1.3 0.9 0.1
1.4 0.9 0.1
1.5 0.9 0.1
1.6 0.9 0.1
1.7 0.9 0.1
1.8 0.9 0.1
1.9 0.9 0.1
2 0.9 0.1
2.1 0.9 0.1
0 1 0.1
0.1 1 0.1
0.2 1 0.1
0.3 1 0.1
0.4 1 0.1
0.5 1 0.1
0.6 1 0.1
0.7 1 0.1
0.8 1 0.1
0.9 1 0.1
1 1 0.1
1.1 1 0.1
1.2 1 0.1
1.3 1 0.1
1.4 1 0.1
1.5 1 0.1
1.6 1 0.1
1.7 1 0.1
1.8 1 0.1
1.9 1 0.1
2 1 0.1
2.1 1 0.1
0 1.1 0.1
0.1 1.1 0.1
0.2 1.1 0.1
0.3 1.1 0.1
0.4 1.1 0.1
0.5 1.1 0.1
0.6 1.1 0.1
0.7 1.1 0.1
0.8 1.1 0.1
0.9 1.1 0.1
1 1.1 0.1
1.1 1.1 0.1
1.2 1.1 0.1
1.3 1.1 0.1
1.4 1.1 0.1
1.5 1.1 0.1
1.6 1.1 0.1
1.7 1.1 0.1
1.8 1.1 0.1
1.9 1.1 0.1
2 1.1 0.1
2.1 1.1 0.1
0 1.2 0.1
0.1 1.2 0.1
0.2 1.2 0.1
0.3 1.2 0.1
0.4 1.2 0.1
0.5 1.2 0.1
0.6 1.2 0.1
0.7 1.2 0.1
0.8 1.2 0.1
0.9 1.2 0.1
1 1.2 0.1
1.1 1.2 0.1
1.2 1.2 0.1
1.3 1.2 0.1
1.4 1.2 0.1
1.5 1.2 0.1
1.6 1.2 0.1
1.7 1.2 0.1
1.8 1.2 0.1
1.9 1.2 0.1
2 1.2 0.1
2.1 1.2 0.1
0 1.3 0.1
0.1 1.3 0.1
0.2 1.3 0.1
0.3 1.3 0.1
0.4 1.3 0.1
0.5 1.3 0.1
0.6 1.3 0.1
0.7 1.3 0.1
0.8 1.3 0.1
0.9 1.3 0.1
1 1.3 0.1
1.1 1.3 0.1
1.2 1.3 0.1
1.3 1.3 0.1
1.4 1.3 0.1
1.5 1.3 0.1
1.6 1.3 0.1
1.7 1.3 0.1
1.8 1.3 0.1
1.9 1.3 0.1
2 1.3 0.1
2.1 1.3 0.1
0 1.4 0.1
0.1 1.4 0.1
0.2 1.4 0.1
0.3 1.4 0.1
0.4 1.4 0.1
0.5 1.4 0.1
0.6 1.4 0.1
0.7 1.4 0.1
0.8 1.4 0.1
0.9 1.4 0.1
1 1.4 0.1
1.1 1.4 0.1
1.2 1.4 0.1
1.3 1.4 0.1
1.4 1.4 0.1
1.5 1.4 0.1
1.6 1.4 0.1
1.7 1.4 0.1
1.8 1.4 0.1
1.9 1.4 0.1
2 1.4 0.1
2.1 1.4 0.1
0 1.5 0.1
0.1 1.5 0.1
0.2 1.5 0.1
0.3 1.5 0.1
0.4 1.5 0.1
0.5 1.5 0.1
0.6 1.5 0.1
0.7 1.5 0.1
0.8 1.5 0.1
0.9 1.5 0.1
1 1.5 0.1
1.1 1.5 0.1
1.2 1.5 0.1
1.3 1.5 0.1
1.4 1.5 0.1
1.5 1.5 0.1
1.6 1.5 0.1
1.7 1.5 0.1
1.8 1.5 0.1
1.9 1.5 0.1
2 1.5 0.1
2.1 1.5 0.1
0 1.6 0.1
0.1 1.6 0.1
0.2 1.6 0.1
0.3 1.6 0.1
0.4 1.6 0.1
0.5 1.6 0.1
0.6 1.6 0.1
0.7 1.6 0.1
0.8 1.6 0.1
0.9 1.6 0.1
1 1.6 0.1
1.1 1.6 0.1
1.2 1.6 0.1
1.3 1.6 0.1
1.4 1.6 0.1
1.5 1.6 0.1
1.6 1.6 0.1
1.7 1.6 0.1
1.8 1.6 0.1
1.9 1.6 0.1
2 1.6 0.1
2.1 1.6 0.1
0 0 0.2
0.1 0 0.2
0.2 0 0.2
0.3 0 0.2
0.4 0 0.2
0.5 0 0.2
0.6 0 0.2
0.7 0 0.2
0.8 0 0.2
0.9 0 0.2
1 0 0.2
1.1 0 0.2
1.2 0 0.2
1.3 0 0.2
1.4 0 0.2
1.5 0 0.2
1.6 0 0.2
1.7 0 0.2
1.8 0 0.2
1.9 0 0.2
2 0 0.2
2.1 0 0.2
0 0.1 0.2
0.1 0.1 0.2
0.2 0.1 0.2
0.3 0.1 0.2
0.4 0.1 0.2
0.5 0.1 0.2
0.6 0.1 0.2
0.7 0.1 0.2
0.8 0.1 0.2
0.9 0.1 0.2
1 0.1 0.2
1.1 0.1 0.2
1.2 0.1 0.2
1.3 0.1 0.2
1.4 0.1 0.2
1.5 0.1 0.2
1.6 0.1 0.2
1.7 0.1 0.2
1.8 0.1 0.2
1.9 0.1 0.2
2 0.1 0.2
2.1 0.1 0.2
0 0.2 0.2
0.1 0.2 0.2
0.2 0.2 0.2
0.3 0.2 0.2
0.4 0.2 0.2
0.5 0.2 0.2
0.6 0.2 0.2
0.7 0.2 0.2
0.8 0.2 0.2
0.9 0.2 0.2
1 0.2 0.2
1.1 0.2 0.2
1.2 0.2 0.2
1.3 0.2 0.2
1.4 0.2 0.2
1.5 0.2 0.2
1.6 0.2 0.2
1.7 0.2 0.2
1.8 0.2 0.2
1.9 0.2 0.2
2 0.2 0.2
2.1 0.2 0.2
0 0.3 0.2
0.1 0.3 0.2
0.2 0.3 0.2
0.3 0.3 0.2
0.4 0.3 0.2
0.5 0.3 0.2
0.6 0.3 0.2
0.7 0.3 0.2
0.8 0.3 0.2
0.9 0.3 0.2
1 0.3 0.2
1.1 0.3 0.2
1.2 0.3 0.2
1.3 0.3 0.2
1.4 0.3 0.2
1.5 0.3 0.2
1.6 0.3 0.2
1.7 0.3 0.2
1.8 0.3 0.2
1.9 0.3 0.2
2 0.3 0.2
2.1 0.3 0.2
0 0.4 0.2
0.1 0.4 0.2
0.2 0.4 0.2
0.3 0.4 0.2
0.4 0.4 0.2
0.5 0.4 0.2
0.6 0.4 0.2
0.7 0.4 0.2
0.8 0.4 0.2
0.9 0.4 0.2
1 0.4 0.2
1.1 0.4 0.2
1.2 0.4 0.2
1.3 0.4 0.2
1.4 0.4 0.2
1.5 0.4 0.2
1.6 0.4 0.2
1.7 0.4 0.2
1.8 0.4 0.2
1.9 0.4 0.2
2 0.4 0.2
2.1 0.4 0.2
0 0.5 0.2
0.1 0.5 0.2
0.2 0.5 0.2
0.3 0.5 0.2
0.4 0.5 0.2
0.5 0.5 0.2
0.6 0.5 0.2
0.7 0.5 0.2
0.8 0.5 0.2
0.9 0.5 0.2
1 0.5 0.2
1.1 0.5 0.2
1.2 0.5 0.2
1.3 0.5 0.2
1.4 0.5 0.2
1.5 0.5 0.2
1.6 0.5 0.2
1.7 0.5 0.2
1.8 0.5 0.2
1.9 0.5 0.2
2 0.5 0.2
2.1 0.5 0.2
0 0.6 0.2
0.1 0.6 0.2
0.2 0.6 0.2
0.3 0.6 0.2
0.4 0.6 0.2
0.5 0.6 0.2
0.6 0.6 0.2
0.7 0.6 0.2
0.8 0.6 0.2
0.9 0.6 0.2
1 0.6 0.2
1.1 0.6 0.2
1.2 0.6 0.2
1.3 0.6 0.2
1.4 0.6 0.2
1.5 0.6 0.2
1.6 0.6 0.2
1.7 0.6 0.2
1.8 0.6 0.2
1.9 0.6 0.2
2 0.6 0.2
2.1 0.6 0.2
0 0.7 0.2
0.1 0.7 0.2
0.2 0.7 0.2
0.3 0.7 0.2
0.4 0.7 0.2
0.5 0.7 0.2
0.6 0.7 0.2
0.7 0.7 0.2
0.8 0.7 0.2
0.9 0.7 0.2
1 0.7 0.2
1.1 0.7 0.2
1.2 0.7 0.2
1.3 0.7 0.2
1.4 0.7 0.2
1.5 0.7 0.2
1.6 0.7 0.2
1.7 0.7 0.2
1.8 0.7 0.2
1.9 0.7 0.2
2 0.7 0.2
2.1 0.7 0.2
0 0.8 0.2
0.1 0.8 0.2
[...]
POINT_DATA 4488

SCALARS pressure double
LOOKUP_TABLE pressure
0
0
0
0
0
0
0
0
0
0
0
0
0
0
0
0
0
0
0
0
0
0
0
56.4771
56.4718
56.4686
56.4664
56.4643
56.4613
56.4603
56.4594
56.4587
56.4578
56.4569
56.456
56.4563
56.4552
56.4544
56.4557
56.4556
56.4552
56.4546
56.4544
0
0
56.4713
56.4698
56.468
56.466
56.4635
56.4615
56.4602
56.4592
56.4584
56.4577
56.457
56.4565
56.4562
56.4556
56.4553
56.4554
56.4561
56.4558
56.4556
56.4554
0
0
56.4682
56.4679
56.4671
56.4657
56.4622
56.4612
56.4601
56.4593
56.4585
56.4577
56.4572
56.4574
56.457
56.4566
56.4564
56.4565
56.4567
56.4567
56.4569
56.4567
0
0
56.4663
56.4663
56.4657
56.4644
56.4626
56.4609
56.4601
56.4594
56.4586
56.4574
56.4568
56.4591
56.4579
56.4573
56.4573
56.4575
56.4575
56.4575
56.4579
56.4576
0
0
56.465
56.4653
56.4651
56.4635
56.463
56.4599
56.46
56.4596
56.459
56.4582
56.4578
56.4582
56.4581
56.4579
56.4581
56.4583
56.4582
56.4581
56.4587
56.4581
0
0
56.4638
56.464
56.4637
56.4629
56.4618
56.4608
56.4605
56.4602
56.4598
56.4587
56.4576
56.4579
56.4588
56.4586
56.4589
56.4588
56.4583
56.4582
56.4594
56.4586
0
0
56.4628
56.4631
56.4629
56.4623
56.4609
56.4611
56.4609
56.4605
56.4599
56.4591
56.4586
56.4587
56.459
56.4591
56.4593
56.4592
56.4584
56.4586
56.459
56.4605
0
0
56.4621
56.4625
56.4626
56.4625
56.4631
56.4618
56.4613
56.4608
56.4603
56.4598
56.4595
56.4595
56.4596
56.4596
56.4596
56.4595
56.4593
56.4595
56.4596
56.4611
0
0
56.4614
56.4621
56.4622
56.4623
56.4623
56.4618
56.4615
56.4612
56.4608
56.4604
56.4602
56.4602
56.4602
56.4601
56.46
56.4599
56.46
56.4602
56.4602
56.4612
0
0
56.46
56.4622
56.4621
56.462
56.462
56.4618
56.4616
56.4615
56.4612
56.4609
56.4608
56.4607
56.4607
56.4607
56.4607
56.4605
56.4606
56.4608
56.4609
56.4615
0
0
56.4608
56.4616
56.4618
56.4619
56.4619
56.4618
56.4618
56.4616
56.4614
56.4613
56.4612
56.4613
56.4614
56.4617
56.4618
56.4609
56.4612
56.4614
56.4616
56.4619
0
0
56.4609
56.4614
56.4616
56.4618
56.4618
56.4618
56.4618
56.4618
56.4618
56.4617
56.4618
56.4619
56.4622
56.4629
56.464
56.4603
56.4616
56.4621
56.4622
56.4625
0
0
56.4609
56.4613
56.4615
56.4617
56.4618
56.4619
56.4619
56.462
56.4621
56.4622
56.4622
56.4622
56.4626
56.4637
56.4634
56.4625
56.4628
56.463
56.4633
56.4631
0
0
56.4609
56.4613
56.4615
56.4616
56.4618
56.4619
56.462
56.4622
56.4624
56.4626
56.4628
56.463
56.4633
56.4636
56.4636
56.4635
56.4637
56.464
56.4642
56.4641
0
0
56.461
56.4613
56.4615
56.4616
56.4618
56.4619
56.4621
56.4624
56.4627
56.463
56.4633
56.4636
56.4639
56.464
56.464
56.464
56.4644
56.4649
56.4651
56.4651
0
0
0
0
0
0
0
0
0
0
0
0
0
0
0
0
0
0
0
0
0
0
0
0
56.4771
56.4718
56.4686
56.4664
56.4643
56.4613
56.4603
56.4594
56.4587
56.4578
56.4569
56.456
56.4563
56.4552
56.4544
56.4557
56.4556
56.4552
56.4546
56.4544
0
56.4771
56.4771
56.4718
56.4686
56.4664
56.4643
56.4613
56.4603
56.4594
56.4587
56.4578
56.4569
56.456
56.4563
56.4552
56.4544
56.4557
56.4556
56.4552
56.4546
56.4544
56.4544
56.4713
56.4713
56.4698
56.468
56.466
56.4635
56.4615
56.4602
56.4592
56.4584
56.4577
56.457
56.4565
56.4562
56.4556
56.4553
56.4554
56.4561
56.4558
56.4556
56.4554
56.4554
56.4682
56.4682
56.4679
56.4671
56.4657
56.4622
56.4612
56.4601
56.4593
56.4585
56.4577
56.4572
56.4574
56.457
56.4566
56.4564
56.4565
56.4567
56.4567
56.4569
56.4567
56.4567
56.4663
56.4663
56.4663
56.4657
56.4644
56.4626
56.4609
56.4601
56.4594
56.4586
56.4574
56.4568
56.4591
56.4579
56.4573
56.4573
56.4575
56.4575
56.4575
56.4579
56.4576
56.4576
56.465
56.465
56.4653
56.4651
56.4635
56.463
56.4599
56.46
56.4596
56.459
56.4582
56.4578
56.4582
56.4581
56.4579
56.4581
56.4583
56.4582
56.4581
56.4587
56.4581
56.4581
56.4638
56.4638
56.464
56.4637
56.4629
56.4618
56.4608
56.4605
56.4602
56.4598
56.4587
56.4576
56.4579
56.4588
56.4586
56.4589
56.4588
56.4583
56.4582
56.4594
56.4586
56.4586
56.4628
56.4628
56.4631
56.4629
56.4623
56.4609
56.4611
56.4609
56.4605
56.4599
56.4591
56.4586
56.4587
56.459
56.4591
56.4593
56.4592
56.4584
56.4586
56.459
56.4605
56.4605
56.4621
56.4621
56.4625
56.4626
56.4625
56.4631
56.4618
56.4613
56.4608
56.4603
56.4598
56.4595
56.4595
56.4596
56.4596
56.4596
56.4595
56.4593
56.4595
56.4596
56.4611
56.4611
56.4614
56.4614
56.4621
56.4622
56.4623
56.4623
56.4618
56.4615
56.4612
56.4608
56.4604
56.4602
56.4602
56.4602
56.4601
56.46
56.4599
56.46
56.4602
56.4602
56.4612
56.4612
56.46
56.46
56.4622
56.4621
56.462
56.462
56.4618
56.4616
56.4615
56.4612
56.4609
56.4608
56.4607
56.4607
56.4607
56.4607
56.4605
56.4606
56.4608
56.4609
56.4615
56.4615
56.4608
56.4608
56.4616
56.4618
56.4619
56.4619
56.4618
56.4618
56.4616
56.4614
56.4613
56.4612
56.4613
56.4614
56.4617
56.4618
56.4609
56.4612
56.4614
56.4616
56.4619
56.4619
56.4609
56.4609
56.4614
56.4616
56.4618
56.4618
56.4618
56.4618
56.4618
56.4618
56.4617
56.4618
56.4619
56.4622
56.4629
56.464
56.4603
56.4616
56.4621
56.4622
56.4625
56.4625
56.4609
56.4609
56.4613
56.4615
56.4617
56.4618
56.4619
56.4619
56.462
56.4621
56.4622
56.4622
56.4622
56.4626
56.4637
56.4634
56.4625
56.4628
56.463
56.4633
56.4631
56.4631
56.4609
56.4609
56.4613
56.4615
56.4616
56.4618
56.4619
56.462
56.4622
56.4624
56.4626
56.4628
56.463
56.4633
56.4636
56.4636
56.4635
56.4637
56.464
56.4642
56.4641
56.4641
56.461
56.461
56.4613
56.4615
56.4616
56.4618
56.4619
56.4621
56.4624
56.4627
56.463
56.4633
56.4636
56.4639
56.464
56.464
56.464
56.4644
56.4649
56.4651
56.4651
56.4651
0
56.461
56.4613
56.4615
56.4616
56.4618
56.4619
56.4621
56.4624
56.4627
56.463
56.4633
56.4636
56.4639
56.464
56.464
56.464
56.4644
56.4649
56.4651
56.4651
0
0
56.4809
56.4755
56.4717
56.467
56.4593
56.4548
56.455
56.4565
56.4576
56.458
56.4578
56.4573
56.4569
56.4563
56.4559
56.4561
56.456
56.4556
56.4549
56.4547
0
56.4809
56.4809
56.4755
56.4717
56.467
56.4593
56.4548
56.455
56.4565
56.4576
56.458
56.4578
56.4573
56.4569
56.4563
56.4559
56.4561
56.456
56.4556
56.4549
56.4547
56.4547
56.4748
56.4748
56.4732
56.4708
56.4672
56.4612
56.4561
56.455
56.4559
56.4569
56.4575
56.4575
56.4573
56.4569
56.4564
56.4563
56.4563
56.4564
56.4562
56.4558
56.4557
56.4557
56.4713
56.4713
56.4708
56.4695
56.467
56.4627
56.458
56.4558
56.4558
56.4565
56.457
56.4574
56.4576
56.4574
56.4571
56.457
56.457
56.4571
56.457
56.457
56.457
56.457
56.4689
56.4689
56.4689
56.4681
56.4665
56.4637
56.4598
56.4571
56.4562
56.4563
56.4566
56.4571
56.4578
56.4578
56.4577
56.4577
56.4577
56.4577
56.4577
56.4579
56.4579
56.4579
56.4672
56.4672
56.4673
56.467
56.4659
56.464
56.461
56.4585
56.4571
56.4567
56.4567
56.457
56.4576
56.4579
56.458
56.4582
56.4583
56.4583
56.4583
56.4586
56.4586
56.4586
56.4657
56.4657
56.4659
56.4658
56.4652
56.464
56.4623
56.4604
56.4587
56.4577
56.4572
56.4571
56.4576
56.4581
56.4584
56.4586
56.4587
56.4586
56.4588
56.4592
56.4592
56.4592
56.4646
56.4646
56.4648
56.4648
56.4645
56.4638
56.4629
56.4615
56.46
56.4587
56.458
56.4579
56.4581
56.4585
56.4588
56.459
56.459
56.459
56.4592
56.4595
56.4601
56.4601
56.4636
56.4636
56.4639
56.464
56.464
56.4638
56.4631
56.4621
56.4611
56.4602
56.4594
56.459
56.4589
56.459
56.4591
56.4593
56.4594
56.4596
56.4598
56.4601
56.4608
56.4608
56.4628
56.4628
56.4633
56.4634
56.4635
56.4634
56.4631
56.4626
56.4621
56.4614
56.4605
56.4598
56.4595
56.4595
56.4596
56.4599
56.46
56.4602
56.4605
56.4608
56.4612
56.4612
56.4621
56.4621
56.4628
56.463
56.463
56.463
56.4629
56.4627
56.4624
56.4619
56.4612
56.4606
56.4603
56.4603
56.4605
56.4607
56.4607
56.4609
56.4611
56.4614
56.4617
56.4617
56.4619
56.4619
56.4623
56.4626
56.4627
56.4627
56.4627
56.4626
56.4625
56.4622
56.4618
56.4616
56.4615
56.4615
56.4616
56.4617
56.4614
56.4616
56.4618
56.4621
56.4623
56.4623
56.4617
56.4617
56.462
56.4623
56.4624
56.4625
56.4626
56.4626
56.4625
56.4625
56.4624
56.4624
56.4624
56.4625
56.4627
56.4627
56.462
56.4623
56.4625
56.4627
56.463
56.463
56.4615
56.4615
56.4619
56.4621
56.4622
56.4624
56.4624
56.4625
56.4626
56.4627
56.4628
56.4629
56.463
56.4631
56.4633
56.4633
56.463
56.4631
56.4633
56.4635
56.4636
56.4636
56.4615
56.4615
56.4618
56.4619
56.4621
56.4622
56.4624
56.4625
56.4627
56.4629
56.463
56.4632
56.4634
56.4636
56.4637
56.4638
56.4637
56.4639
56.4641
56.4644
56.4645
56.4645
56.4616
56.4616
56.4617
56.4619
56.462
56.4621
56.4623
56.4625
56.4627
56.463
56.4633
56.4636
56.4638
56.4641
56.4642
56.4642
56.4643
56.4646
56.4649
56.4652
56.4653
56.4653
0
56.4616
56.4617
56.4619
56.462
56.4621
56.4623
56.4625
56.4627
56.463
56.4633
56.4636
56.4638
56.4641
56.4642
56.4642
56.4643
56.4646
56.4649
56.4652
56.4653
0
0
56.4848
56.4798
56.4766
56.4695
56.4486
56.4414
56.4472
56.4537
56.4575
56.459
56.4591
56.4587
56.458
56.4572
56.4568
56.4567
56.4565
56.4561
56.4553
56.4551
0
56.4848
56.4848
56.4798
56.4766
56.4695
56.4486
56.4414
56.4472
56.4537
56.4575
56.459
56.4591
56.4587
56.458
56.4572
56.4568
56.4567
56.4565
56.4561
56.4553
56.4551
56.4551
56.4783
56.4783
56.4771
56.4751
56.4702
56.4577
56.445
56.4462
56.4515
56.4556
56.4577
56.4584
56.4582
56.4577
56.4573
56.4571
56.457
56.4569
56.4566
56.4562
56.4561
56.4561
56.4743
56.4743
56.4741
56.4731
56.4704
56.4632
56.4518
56.4484
56.4507
56.4541
56.4564
56.4576
56.458
56.4579
56.4577
56.4576
56.4575
56.4575
56.4573
56.4572
56.4573
56.4573
56.4715
56.4715
56.4716
56.4713
56.47
56.466
56.4576
56.4518
56.451
56.4529
56.4551
56.4567
56.4576
56.4579
56.458
56.458
56.458
56.458
56.458
56.4581
56.4582
56.4582
56.4694
56.4694
56.4696
56.4696
56.4691
56.4667
56.4611
56.4553
56.4527
56.453
56.4544
56.4558
56.4569
56.4576
56.458
56.4583
56.4584
56.4585
56.4586
56.4588
56.4589
56.4589
56.4676
56.4676
56.4679
56.4681
56.468
56.4669
56.4643
56.4604
56.4568
56.4549
56.4546
56.4554
56.4567
56.4577
56.4582
56.4585
56.4587
56.4588
56.459
56.4593
56.4595
56.4595
56.4662
56.4662
56.4665
56.4667
56.4669
56.4665
56.4654
56.4627
56.4592
56.4565
56.4557
56.4563
56.4573
56.4581
56.4585
56.4587
56.4589
56.4592
56.4595
56.4599
56.4602
56.4602
56.465
56.465
56.4653
56.4656
56.4657
56.4656
56.4648
56.4633
56.4613
56.46
56.459
56.4583
56.4581
56.4582
56.4585
56.4589
56.4593
56.4597
56.4601
56.4605
56.4608
56.4608
56.464
56.464
56.4644
56.4646
56.4648
56.4648
56.4645
56.464
56.4635
56.4626
56.4608
56.4592
56.4582
56.4582
56.4588
56.4594
56.46
56.4604
56.4607
56.4611
56.4614
56.4614
56.4633
56.4633
56.4637
56.4639
56.4641
56.4641
56.4641
56.464
56.4638
56.4629
56.4615
56.4599
56.4591
56.4595
56.4601
56.4605
56.4608
56.4611
56.4614
56.4618
56.462
56.462
56.4628
56.4628
56.4631
56.4633
56.4635
56.4636
56.4637
56.4637
56.4635
56.4631
56.4624
56.4618
56.4617
56.4617
56.4617
56.4617
56.4618
56.4619
56.4621
56.4624
56.4626
56.4626
56.4624
56.4624
56.4627
56.4629
56.4631
56.4632
56.4633
56.4634
56.4634
56.4633
56.4632
56.4632
56.4632
56.463
56.4629
56.4627
56.4626
56.4627
56.4629
56.4631
56.4633
56.4633
56.4621
56.4621
56.4624
56.4626
56.4628
56.4629
56.463
56.4632
56.4633
56.4633
56.4635
56.4636
56.4637
56.4636
56.4635
56.4634
56.4633
56.4634
56.4636
56.4638
56.464
56.464
56.462
56.462
56.4623
56.4624
56.4626
56.4627
56.4628
56.463
56.4632
56.4634
56.4636
56.4638
56.4639
56.464
56.464
56.464
56.464
56.4641
56.4643
56.4646
56.4647
56.4647
56.462
56.462
56.4622
56.4623
56.4624
56.4625
56.4627
56.4629
56.4631
56.4634
56.4636
56.4639
56.4641
56.4643
56.4644
56.4645
56.4646
56.4648
56.465
56.4653
56.4655
56.4655
0
56.462
56.4622
56.4623
56.4624
56.4625
56.4627
56.4629
56.4631
56.4634
56.4636
56.4639
56.4641
56.4643
56.4644
56.4645
56.4646
56.4648
56.465
56.4653
56.4655
0
0
56.4888
56.4851
56.4858
56.4808
56.4137
56.4095
56.4372
56.4535
56.4596
56.4612
56.4611
56.4602
56.4591
56.4582
56.4576
56.4572
56.4569
56.4564
56.4556
56.4555
0
56.4888
56.4888
56.4851
56.4858
56.4808
56.4137
56.4095
56.4372
56.4535
56.4596
56.4612
56.4611
56.4602
56.4591
56.4582
56.4576
56.4572
56.4569
56.4564
56.4556
56.4555
56.4555
56.4817
56.4817
56.4814
56.4818
56.4794
56.4575
56.4169
56.43
56.4472
56.4562
56.4595
56.4602
56.4598
56.4589
56.4582
56.4578
56.4576
56.4573
56.4569
56.4564
56.4566
56.4566
56.4771
56.4771
56.4774
56.478
56.4777
56.4687
56.4373
56.4331
56.4434
56.4523
56.4571
56.459
56.4594
56.4591
56.4586
56.4584
56.4582
56.4579
56.4577
56.4574
56.4577
56.4577
56.4738
56.4738
56.4743
56.4753
56.4767
56.4744
56.4544
56.4405
56.4409
56.4476
56.4535
56.4568
56.4582
56.4586
56.4587
56.4587
56.4586
56.4584
56.4583
56.4583
56.4585
56.4585
56.4712
56.4712
56.4719
56.4728
56.4742
56.4727
56.4611
56.4475
56.4425
56.4463
56.4512
56.4542
56.4562
56.4575
56.4582
56.4586
56.4587
56.4587
56.4588
56.459
56.4592
56.4592
56.4692
56.4692
56.4698
56.4706
56.4717
56.4714
56.4688
56.4621
56.4544
56.4507
56.4499
56.4518
56.455
56.4573
56.4584
56.4586
56.4587
56.459
56.4593
56.4596
56.4597
56.4597
56.4675
56.4675
56.468
56.4686
56.4696
56.4705
56.4706
56.4659
56.4572
56.4507
56.4503
56.453
56.4564
56.4584
56.4586
56.4584
56.4588
56.4593
56.4597
56.4601
56.4603
56.4603
56.4661
56.4661
56.4665
56.467
56.4676
56.468
56.467
56.4642
56.4604
56.4599
56.4586
56.4575
56.4576
56.4574
56.4574
56.4582
56.459
56.4597
56.4603
56.4608
56.461
56.461
56.465
56.465
56.4654
56.4657
56.4661
56.4663
56.4663
56.4662
56.467
56.4659
56.4615
56.4579
56.4548
56.4549
56.4571
56.4587
56.4598
56.4605
56.461
56.4614
56.4616
56.4616
56.4641
56.4641
56.4645
56.4647
56.465
56.4653
56.4655
56.4659
56.4659
56.4642
56.4614
56.4573
56.4556
56.4579
56.4595
56.4603
56.4609
56.4613
56.4617
56.4621
56.4623
56.4623
56.4635
56.4635
56.4638
56.464
56.4642
56.4645
56.4647
56.4649
56.4648
56.4642
56.4629
56.462
56.4627
56.4625
56.462
56.4619
56.462
56.4622
56.4624
56.4628
56.4629
56.4629
56.463
56.463
56.4633
56.4635
56.4637
56.4639
56.4641
56.4642
56.4643
56.4642
56.4643
56.4649
56.4648
56.464
56.4634
56.463
56.4629
56.463
56.4632
56.4634
56.4636
56.4636
56.4627
56.4627
56.4629
56.4631
56.4633
56.4634
56.4636
56.4638
56.4639
56.4641
56.4643
56.4646
56.4646
56.4643
56.464
56.4637
56.4636
56.4637
56.4639
56.4641
56.4643
56.4643
56.4625
56.4625
56.4627
56.4629
56.463
56.4631
56.4633
56.4634
56.4636
56.4639
56.4641
56.4644
56.4645
56.4644
56.4643
56.4642
56.4642
56.4643
56.4645
56.4648
56.4649
56.4649
56.4624
56.4624
56.4626
56.4627
56.4628
56.4629
56.463
56.4632
56.4634
56.4637
56.464
56.4643
56.4645
56.4646
56.4646
56.4647
56.4648
56.4649
56.4652
56.4654
56.4656
56.4656
0
56.4624
56.4626
56.4627
56.4628
56.4629
56.463
56.4632
56.4634
56.4637
56.464
56.4643
56.4645
56.4646
56.4646
56.4647
56.4648
56.4649
56.4652
56.4654
56.4656
0
0
56.4911
56.4896
56.4993
56.5312
56.4435
56.3624
56.432
56.4586
56.4643
56.4643
56.463
56.4615
56.4601
56.459
56.4583
56.4578
56.4574
56.4567
56.4557
56.4559
0
56.4911
56.4911
56.4896
56.4993
56.5312
56.4435
56.3624
56.432
56.4586
56.4643
56.4643
56.463
56.4615
56.4601
56.459
56.4583
56.4578
56.4574
56.4567
56.4557
56.4559
56.4559
56.4836
56.4836
56.4845
56.4895
56.5081
56.4673
56.3868
56.4162
56.448
56.4604
56.4632
56.4629
56.4617
56.4604
56.4594
56.4588
56.4584
56.4579
56.4573
56.4564
56.4571
56.4571
56.4786
56.4786
56.4795
56.4821
56.4896
56.4835
56.4141
56.4142
56.438
56.4527
56.4593
56.4614
56.4613
56.4606
56.4599
56.4595
56.4591
56.4586
56.458
56.4575
56.4582
56.4582
56.475
56.475
56.476
56.4785
56.4854
56.501
56.4476
56.4289
56.432
56.4422
56.4533
56.4582
56.4595
56.4596
56.4596
56.4596
56.4594
56.4589
56.4586
56.4584
56.4589
56.4589
56.4723
56.4723
56.4732
56.4755
56.4811
56.4948
56.4614
56.4397
56.4294
56.4379
56.45
56.4541
56.4558
56.4575
56.4589
56.4593
56.4592
56.459
56.459
56.4591
56.4594
56.4594
56.4701
56.4701
56.4709
56.4724
56.4755
56.4813
56.4773
56.4679
56.4475
56.4468
56.4486
56.448
56.452
56.4574
56.4593
56.459
56.4587
56.459
56.4594
56.4598
56.46
56.46
56.4683
56.4683
56.4689
56.47
56.4721
56.4767
56.485
56.4772
56.4522
56.4438
56.4457
56.4471
56.4546
56.4603
56.46
56.4584
56.4584
56.4592
56.4599
56.4604
56.4606
56.4606
56.4668
56.4668
56.4673
56.468
56.4691
56.4711
56.4741
56.466
56.4559
56.4622
56.4581
56.4555
56.4577
56.4577
56.4571
56.4571
56.4585
56.4598
56.4605
56.461
56.4612
56.4612
56.4656
56.4656
56.466
56.4665
56.4671
56.4679
56.4686
56.4682
56.4724
56.4777
56.4652
56.4552
56.4511
56.4521
56.4551
56.4577
56.4595
56.4606
56.4612
56.4617
56.4619
56.4619
56.4647
56.4647
56.465
56.4654
56.4657
56.4662
56.4668
56.4682
56.4727
56.4706
56.461
56.453
56.4517
56.4562
56.4586
56.4602
56.461
56.4615
56.462
56.4624
56.4625
56.4625
56.464
56.464
56.4643
56.4646
56.4648
56.4651
56.4656
56.4664
56.4675
56.4659
56.4629
56.4618
56.4645
56.4647
56.4631
56.4624
56.4623
56.4625
56.4627
56.4631
56.4632
56.4632
56.4635
56.4635
56.4638
56.464
56.4642
56.4644
56.4647
56.465
56.4653
56.4651
56.4655
56.4679
56.4695
56.4668
56.4645
56.4635
56.4632
56.4633
56.4634
56.4637
56.4639
56.4639
56.4631
56.4631
56.4634
56.4636
56.4637
56.4639
56.4641
56.4643
56.4645
56.4647
56.4654
56.4671
56.4672
56.4658
56.4647
56.4641
56.4639
56.4639
56.4641
56.4644
56.4645
56.4645
56.4629
56.4629
56.4631
56.4633
56.4634
56.4635
56.4637
56.4638
56.464
56.4643
56.4648
56.4654
56.4655
56.4651
56.4647
56.4645
56.4645
56.4646
56.4647
56.465
56.4652
56.4652
56.4628
56.4628
56.463
56.463
56.4631
56.4632
56.4634
56.4635
56.4637
56.464
56.4643
56.4646
56.4648
56.4649
56.4649
56.4649
56.465
56.4651
56.4653
56.4656
56.4658
56.4658
0
56.4628
56.463
56.463
56.4631
56.4632
56.4634
56.4635
56.4637
56.464
56.4643
56.4646
56.4648
56.4649
56.4649
56.4649
56.465
56.4651
56.4653
56.4656
56.4658
0
0
56.4899
56.4863
56.4873
56.4834
56.4258
56.4108
56.4376
56.4537
56.4597
56.4614
56.4613
56.4604
56.4594
56.4585
56.458
56.4577
56.4575
56.457
56.4562
56.4561
0
56.4899
56.4899
56.4863
56.4873
56.4834
56.4258
56.4108
56.4376
56.4537
56.4597
56.4614
56.4613
56.4604
56.4594
56.4585
56.458
56.4577
56.4575
56.457
56.4562
56.4561
56.4561
56.4827
56.4827
56.4822
56.4825
56.4791
56.449
56.4195
56.4318
56.4484
56.4572
56.4605
56.4611
56.4605
56.4596
56.4587
56.4582
56.458
56.4578
56.4574
56.4569
56.4571
56.4571
56.478
56.478
56.4783
56.4785
56.4772
56.4645
56.4365
56.4334
56.4436
56.4528
56.4576
56.4595
56.4598
56.4596
56.4592
56.4589
56.4587
56.4585
56.4581
56.4579
56.4582
56.4582
56.4747
56.4747
56.4752
56.476
56.4771
56.4738
56.4537
56.4417
56.4423
56.4486
56.4541
56.4572
56.4587
56.4591
56.4592
56.4592
56.4591
56.459
56.4588
56.4588
56.4591
56.4591
56.4722
56.4722
56.4728
56.4738
56.4754
56.4752
56.4619
56.4489
56.4438
56.4472
56.4518
56.455
56.457
56.4581
56.4588
56.4591
56.4593
56.4593
56.4594
56.4595
56.4597
56.4597
56.4702
56.4702
56.4707
56.4716
56.4729
56.4737
56.4682
56.4599
56.4539
56.4511
56.451
56.4529
56.4556
56.4577
56.4588
56.4591
56.4593
56.4595
56.4598
56.4602
56.4603
56.4603
56.4685
56.4685
56.469
56.4697
56.4707
56.4719
56.4716
56.4668
56.458
56.4521
56.4509
56.453
56.4565
56.4585
56.459
56.459
56.4593
56.4599
56.4603
56.4608
56.4609
56.4609
56.4671
56.4671
56.4675
56.468
56.4686
56.4693
56.4693
56.4662
56.4612
56.4581
56.4578
56.4576
56.4576
56.4579
56.4581
56.4587
56.4596
56.4604
56.4609
56.4614
56.4616
56.4616
56.4659
56.4659
56.4663
56.4666
56.467
56.4674
56.4676
56.467
56.4665
56.4661
56.4624
56.4585
56.4561
56.4562
56.4576
56.4592
56.4603
56.4611
56.4616
56.462
56.4622
56.4622
56.465
56.465
56.4654
56.4656
56.4659
56.4662
56.4665
56.4668
56.4673
56.466
56.4625
56.4587
56.4566
56.4578
56.4597
56.4608
56.4614
56.4619
56.4623
56.4627
56.4628
56.4628
56.4643
56.4643
56.4646
56.4649
56.4651
56.4653
56.4655
56.4658
56.466
56.4652
56.4637
56.4621
56.4619
56.4624
56.4624
56.4624
56.4625
56.4627
56.463
56.4633
56.4635
56.4635
56.4638
56.4638
56.4641
56.4643
56.4645
56.4646
56.4648
56.465
56.4651
56.4649
56.4648
56.465
56.4652
56.4646
56.4639
56.4635
56.4634
56.4635
56.4637
56.464
56.4641
56.4641
56.4635
56.4635
56.4637
56.4639
56.464
56.4642
56.4643
56.4645
56.4646
56.4647
56.4649
56.4654
56.4654
56.465
56.4645
56.4642
56.4641
56.4642
56.4643
56.4646
56.4648
56.4648
56.4632
56.4632
56.4635
56.4636
56.4637
56.4638
56.464
56.4641
56.4643
56.4645
56.4647
56.465
56.4651
56.465
56.4648
56.4646
56.4646
56.4648
56.4649
56.4652
56.4654
56.4654
56.4632
56.4632
56.4633
56.4634
56.4635
56.4636
56.4637
56.4638
56.464
56.4642
56.4645
56.4648
56.4649
56.465
56.465
56.465
56.4651
56.4653
56.4655
56.4657
56.466
56.466
0
56.4632
56.4633
56.4634
56.4635
56.4636