# vtk DataFile Version 3.0
FlowField
ASCII
DATASET STRUCTURED_GRID
DIMENSIONS 22 17 12 
POINTS 4488 double
0 0 0
5 0 0
10 0 0
15 0 0
20 0 0
25 0 0
30 0 0
35 0 0
40 0 0
45 0 0
50 0 0
55 0 0
60 0 0
65 0 0
70 0 0
75 0 0
80 0 0
85 0 0
90 0 0
95 0 0
100 0 0
105 0 0
0 1 0
5 1 0
10 1 0
15 1 0
20 1 0
25 1 0
30 1 0
35 1 0
40 1 0
45 1 0
50 1 0
55 1 0
60 1 0
65 1 0
70 1 0
75 1 0
80 1 0
85 1 0
90 1 0
95 1 0
100 1 0
105 1 0
0 2 0
5 2 0
10 2 0
15 2 0
20 2 0
25 2 0
30 2 0
35 2 0
40 2 0
45 2 0
50 2 0
55 2 0
60 2 0
65 2 0
70 2 0
75 2 0
80 2 0
85 2 0
90 2 0
95 2 0
100 2 0
105 2 0
0 3 0
5 3 0
10 3 0
15 3 0
20 3 0
25 3 0
30 3 0
35 3 0
40 3 0
45 3 0
50 3 0
55 3 0
60 3 0
65 3 0
70 3 0
75 3 0
80 3 0
85 3 0
90 3 0
95 3 0
100 3 0
105 3 0
0 4 0
5 4 0
10 4 0
15 4 0
20 4 0
25 4 0
30 4 0
35 4 0
40 4 0
45 4 0
50 4 0
55 4 0
60 4 0
65 4 0
70 4 0
75 4 0
80 4 0
85 4 0
90 4 0
95 4 0
100 4 0
105 4 0
0 5 0
5 5 0
10 5 0
15 5 0
20 5 0
25 5 0
30 5 0
35 5 0
40 5 0
45 5 0
50 5 0
55 5 0
60 5 0
65 5 0
70 5 0
75 5 0
80 5 0
85 5 0
90 5 0
95 5 0
100 5 0
105 5 0
0 6 0
5 6 0
10 6 0
15 6 0
20 6 0
25 6 0
30 6 0
35 6 0
40 6 0
45 6 0
50 6 0
55 6 0
60 6 0
65 6 0
70 6 0
75 6 0
80 6 0
85 6 0
90 6 0
95 6 0
100 6 0
105 6 0
0 7 0
5 7 0
10 7 0
15 7 0
20 7 0
25 7 0
30 7 0
35 7 0
40 7 0
45 7 0
50 7 0
55 7 0
60 7 0
65 7 0
70 7 0
75 7 0
80 7 0
85 7 0
90 7 0
95 7 0
100 7 0
105 7 0
0 8 0
5 8 0
10 8 0
15 8 0
20 8 0
25 8 0
30 8 0
35 8 0
40 8 0
45 8 0
50 8 0
55 8 0
60 8 0
65 8 0
70 8 0
75 8 0
80 8 0
85 8 0
90 8 0
95 8 0
100 8 0
105 8 0
0 9 0
5 9 0
10 9 0
15 9 0
20 9 0
25 9 0
30 9 0
35 9 0
40 9 0
45 9 0
50 9 0
55 9 0
60 9 0
65 9 0
70 9 0
75 9 0
80 9 0
85 9 0
90 9 0
95 9 0
100 9 0
105 9 0
0 10 0
5 10 0
10 10 0
15 10 0
20 10 0
25 10 0
30 10 0
35 10 0
40 10 0
45 10 0
50 10 0
55 10 0
60 10 0
65 10 0
70 10 0
75 10 0
80 10 0
85 10 0
90 10 0
95 10 0
100 10 0
105 10 0
0 11 0
5 11 0
10 11 0
15 11 0
20 11 0
25 11 0
30 11 0
35 11 0
40 11 0
45 11 0
50 11 0
55 11 0
60 11 0
65 11 0
70 11 0
75 11 0
80 11 0
85 11 0
90 11 0
95 11 0
100 11 0
105 11 0
0 12 0
5 12 0
10 12 0
15 12 0
20 12 0
25 12 0
30 12 0
35 12 0
40 12 0
45 12 0
50 12 0
55 12 0
60 12 0
65 12 0
70 12 0
75 12 0
80 12 0
85 12 0
90 12 0
95 12 0
100 12 0
105 12 0
0 13 0
5 13 0
10 13 0
15 13 0
20 13 0
25 13 0
30 13 0
35 13 0
40 13 0
45 13 0
50 13 0
55 13 0
60 13 0
65 13 0
70 13 0
75 13 0
80 13 0
85 13 0
90 13 0
95 13 0
100 13 0
105 13 0
0 14 0
5 14 0
10 14 0
15 14 0
20 14 0
25 14 0
30 14 0
35 14 0
40 14 0
45 14 0
50 14 0
55 14 0
60 14 0
65 14 0
70 14 0
75 14 0
80 14 0
85 14 0
90 14 0
95 14 0
100 14 0
105 14 0
0 15 0
5 15 0
10 15 0
15 15 0
20 15 0
25 15 0
30 15 0
35 15 0
40 15 0
45 15 0
50 15 0
55 15 0
60 15 0
65 15 0
70 15 0
75 15 0
80 15 0
85 15 0
90 15 0
95 15 0
100 15 0
105 15 0
0 16 0
5 16 0
10 16 0
15 16 0
20 16 0
25 16 0
30 16 0
35 16 0
40 16 0
45 16 0
50 16 0
55 16 0
60 16 0
65 16 0
70 16 0
75 16 0
80 16 0
85 16 0
90 16 0
95 16 0
100 16 0
105 16 0
0 0 1
5 0 1
10 0 1
15 0 1
20 0 1
25 0 1
30 0 1
35 0 1
40 0 1
45 0 1
50 0 1
55 0 1
60 0 1
65 0 1
70 0 1
75 0 1
80 0 1
85 0 1
90 0 1
95 0 1
100 0 1
105 0 1
0 1 1
5 1 1
10 1 1
15 1 1
20 1 1
25 1 1
30 1 1
35 1 1
40 1 1
45 1 1
50 1 1
55 1 1
60 1 1
65 1 1
70 1 1
75 1 1
80 1 1
85 1 1
90 1 1
95 1 1
100 1 1
105 1 1
0 2 1
5 2 1
10 2 1
15 2 1
20 2 1
25 2 1
30 2 1
35 2 1
40 2 1
45 2 1
50 2 1
55 2 1
60 2 1
65 2 1
70 2 1
75 2 1
80 2 1
85 2 1
90 2 1
95 2 1
100 2 1
105 2 1
0 3 1
5 3 1
10 3 1
15 3 1
20 3 1
25 3 1
30 3 1
35 3 1
40 3 1
45 3 1
50 3 1
55 3 1
60 3 1
65 3 1
70 3 1
75 3 1
80 3 1
85 3 1
90 3 1
95 3 1
100 3 1
105 3 1
0 4 1
5 4 1
10 4 1
15 4 1
20 4 1
25 4 1
30 4 1
35 4 1
40 4 1
45 4 1
50 4 1
55 4 1
60 4 1
65 4 1
70 4 1
75 4 1
80 4 1
85 4 1
90 4 1
95 4 1
100 4 1
105 4 1
0 5 1
5 5 1
10 5 1
15 5 1
20 5 1
25 5 1
30 5 1
35 5 1
40 5 1
45 5 1
50 5 1
55 5 1
60 5 1
65 5 1
70 5 1
75 5 1
80 5 1
85 5 1
90 5 1
95 5 1
100 5 1
105 5 1
0 6 1
5 6 1
10 6 1
15 6 1
20 6 1
25 6 1
30 6 1
35 6 1
40 6 1
45 6 1
50 6 1
55 6 1
60 6 1
65 6 1
70 6 1
75 6 1
80 6 1
85 6 1
90 6 1
95 6 1
100 6 1
105 6 1
0 7 1
5 7 1
10 7 1
15 7 1
20 7 1
25 7 1
30 7 1
35 7 1
40 7 1
45 7 1
50 7 1
55 7 1
60 7 1
65 7 1
70 7 1
75 7 1
80 7 1
85 7 1
90 7 1
95 7 1
100 7 1
105 7 1
0 8 1
5 8 1
10 8 1
15 8 1
20 8 1
25 8 1
30 8 1
35 8 1
40 8 1
45 8 1
50 8 1
55 8 1
60 8 1
65 8 1
70 8 1
75 8 1
80 8 1
85 8 1
90 8 1
95 8 1
100 8 1
105 8 1
0 9 1
5 9 1
10 9 1
15 9 1
20 9 1
25 9 1
30 9 1
35 9 1
40 9 1
45 9 1
50 9 1
55 9 1
60 9 1
65 9 1
70 9 1
75 9 1
80 9 1
85 9 1
90 9 1
95 9 1
100 9 1
105 9 1
0 10 1
5 10 1
10 10 1
15 10 1
20 10 1
25 10 1
30 10 1
35 10 1
40 10 1
45 10 1
50 10 1
55 10 1
60 10 1
65 10 1
70 10 1
75 10 1
80 10 1
85 10 1
90 10 1
95 10 1
100 10 1
105 10 1
0 11 1
5 11 1
10 11 1
15 11 1
20 11 1
25 11 1
30 11 1
35 11 1
40 11 1
45 11 1
50 11 1
55 11 1
60 11 1
65 11 1
70 11 1
75 11 1
80 11 1
85 11 1
90 11 1
95 11 1
100 11 1
105 11 1
0 12 1
5 12 1
10 12 1
15 12 1
20 12 1
25 12 1
30 12 1
35 12 1
40 12 1
45 12 1
50 12 1
55 12 1
60 12 1
65 12 1
70 12 1
75 12 1
80 12 1
85 12 1
90 12 1
95 12 1
100 12 1
105 12 1
0 13 1
5 13 1
10 13 1
15 13 1
20 13 1
25 13 1
30 13 1
35 13 1
40 13 1
45 13 1
50 13 1
55 13 1
60 13 1
65 13 1
70 13 1
75 13 1
80 13 1
85 13 1
90 13 1
95 13 1
100 13 1
105 13 1
0 14 1
5 14 1
10 14 1
15 14 1
20 14 1
25 14 1
30 14 1
35 14 1
40 14 1
45 14 1
50 14 1
55 14 1
60 14 1
65 14 1
70 14 1
75 14 1
80 14 1
85 14 1
90 14 1
95 14 1
100 14 1
105 14 1
0 15 1
5 15 1
10 15 1
15 15 1
20 15 1
25 15 1
30 15 1
35 15 1
40 15 1
45 15 1
50 15 1
55 15 1
60 15 1
65 15 1
70 15 1
75 15 1
80 15 1
85 15 1
90 15 1
95 15 1
100 15 1
105 15 1
0 16 1
5 16 1
10 16 1
15 16 1
20 16 1
25 16 1
30 16 1
35 16 1
40 16 1
45 16 1
50 16 1
55 16 1
60 16 1
65 16 1
70 16 1
75 16 1
80 16 1
85 16 1
90 16 1
95 16 1
100 16 1
105 16 1
0 0 2
5 0 2
10 0 2
15 0 2
20 0 2
25 0 2
30 0 2
35 0 2
40 0 2
45 0 2
50 0 2
55 0 2
60 0 2
65 0 2
70 0 2
75 0 2
80 0 2
85 0 2
90 0 2
95 0 2
100 0 2
105 0 2
0 1 2
5 1 2
10 1 2
15 1 2
20 1 2
25 1 2
30 1 2
35 1 2
40 1 2
45 1 2
50 1 2
55 1 2
60 1 2
65 1 2
70 1 2
75 1 2
80 1 2
85 1 2
90 1 2
95 1 2
100 1 2
105 1 2
0 2 2
5 2 2
10 2 2
15 2 2
20 2 2
25 2 2
30 2 2
35 2 2
40 2 2
45 2 2
50 2 2
55 2 2
60 2 2
65 2 2
70 2 2
75 2 2
80 2 2
85 2 2
90 2 2
95 2 2
100 2 2
105 2 2
0 3 2
5 3 2
10 3 2
15 3 2
20 3 2
25 3 2
30 3 2
35 3 2
40 3 2
45 3 2
50 3 2
55 3 2
60 3 2
65 3 2
70 3 2
75 3 2
80 3 2
85 3 2
90 3 2
95 3 2
100 3 2
105 3 2
0 4 2
5 4 2
10 4 2
15 4 2
20 4 2
25 4 2
30 4 2
35 4 2
40 4 2
45 4 2
50 4 2
55 4 2
60 4 2
65 4 2
70 4 2
75 4 2
80 4 2
85 4 2
90 4 2
95 4 2
100 4 2
105 4 2
0 5 2
5 5 2
10 5 2
15 5 2
20 5 2
25 5 2
30 5 2
35 5 2
40 5 2
45 5 2
50 5 2
55 5 2
60 5 2
65 5 2
70 5 2
75 5 2
80 5 2
85 5 2
90 5 2
95 5 2
100 5 2
105 5 2
0 6 2
5 6 2
10 6 2
15 6 2
20 6 2
25 6 2
30 6 2
35 6 2
40 6 2
45 6 2
50 6 2
55 6 2
60 6 2
65 6 2
70 6 2
75 6 2
80 6 2
85 6 2
90 6 2
95 6 2
100 6 2
105 6 2
0 7 2
5 7 2
10 7 2
15 7 2
20 7 2
25 7 2
30 7 2
35 7 2
40 7 2
45 7 2
50 7 2
55 7 2
60 7 2
65 7 2
70 7 2
75 7 2
80 7 2
85 7 2
90 7 2
95 7 2
100 7 2
105 7 2
0 8 2
5 8 2
10 8 2
15 8 2
20 8 2
25 8 2
30 8 2
35 8 2
40 8 2
45 8 2
50 8 2
55 8 2
60 8 2
65 8 2
70 8 2
75 8 2
80 8 2
85 8 2
90 8 2
95 8 2
100 8 2
105 8 2
0 9 2
5 9 2
10 9 2
15 9 2
20 9 2
25 9 2
30 9 2
35 9 2
40 9 2
45 9 2
50 9 2
55 9 2
60 9 2
65 9 2
70 9 2
75 9 2
80 9 2
85 9 2
90 9 2
95 9 2
100 9 2
105 9 2
0 10 2
5 10 2
10 10 2
15 10 2
20 10 2
25 10 2
30 10 2
35 10 2
40 10 2
45 10 2
50 10 2
55 10 2
60 10 2
65 10 2
70 10 2
75 10 2
80 10 2
85 10 2
90 10 2
95 10 2
100 10 2
105 10 2
0 11 2
5 11 2
10 11 2
15 11 2
20 11 2
25 11 2
30 11 2
35 11 2
40 11 2
45 11 2
50 11 2
55 11 2
60 11 2
65 11 2
70 11 2
75 11 2
80 11 2
85 11 2
90 11 2
95 11 2
100 11 2
105 11 2
0 12 2
5 12 2
10 12 2
15 12 2
20 12 2
25 12 2
30 12 2
35 12 2
40 12 2
45 12 2
50 12 2
55 12 2
60 12 2
65 12 2
70 12 2
75 12 2
80 12 2
85 12 2
90 12 2
95 12 2
100 12 2
105 12 2
0 13 2
5 13 2
10 13 2
15 13 2
20 13 2
25 13 2
30 13 2
35 13 2
40 13 2
45 13 2
50 13 2
55 13 2
60 13 2
65 13 2
70 13 2
75 13 2
80 13 2
85 13 2
90 13 2
95 13 2
100 13 2
105 13 2
0 14 2
5 14 2
10 14 2
15 14 2
20 14 2
25 14 2
30 14 2
35 14 2
40 14 2
45 14 2
50 14 2
55 14 2
60 14 2
65 14 2
70 14 2
75 14 2
80 14 2
85 14 2
90 14 2
95 14 2
100 14 2
105 14 2
0 15 2
5 15 2
10 15 2
15 15 2
20 15 2
25 15 2
30 15 2
35 15 2
40 15 2
45 15 2
50 15 2
55 15 2
60 15 2
65 15 2
70 15 2
75 15 2
80 15 2
85 15 2
90 15 2
95 15 2
100 15 2
105 15 2
0 16 2
5 16 2
10 16 2
15 16 2
20 16 2
25 16 2
30 16 2
35 16 2
40 16 2
45 16 2
50 16 2
55 16 2
60 16 2
65 16 2
70 16 2
75 16 2
80 16 2
85 16 2
90 16 2
95 16 2
100 16 2
105 16 2
0 0 3
5 0 3
10 0 3
15 0 3
20 0 3
25 0 3
30 0 3
35 0 3
40 0 3
45 0 3
50 0 3
55 0 3
60 0 3
65 0 3
70 0 3
75 0 3
80 0 3
85 0 3
90 0 3
95 0 3
100 0 3
105 0 3
0 1 3
5 1 3
10 1 3
15 1 3
20 1 3
25 1 3
30 1 3
35 1 3
40 1 3
45 1 3
50 1 3
55 1 3
60 1 3
65 1 3
70 1 3
75 1 3
80 1 3
85 1 3
90 1 3
95 1 3
100 1 3
105 1 3
0 2 3
5 2 3
10 2 3
15 2 3
20 2 3
25 2 3
30 2 3
35 2 3
40 2 3
45 2 3
50 2 3
55 2 3
60 2 3
65 2 3
70 2 3
75 2 3
80 2 3
85 2 3
90 2 3
95 2 3
100 2 3
105 2 3
0 3 3
5 3 3
10 3 3
15 3 3
20 3 3
25 3 3
30 3 3
35 3 3
40 3 3
45 3 3
50 3 3
55 3 3
60 3 3
65 3 3
70 3 3
75 3 3
80 3 3
85 3 3
90 3 3
95 3 3
100 3 3
105 3 3
0 4 3
5 4 3
10 4 3
15 4 3
20 4 3
25 4 3
30 4 3
35 4 3
40 4 3
45 4 3
50 4 3
55 4 3
60 4 3
65 4 3
70 4 3
75 4 3
80 4 3
85 4 3
90 4 3
95 4 3
100 4 3
105 4 3
0 5 3
5 5 3
10 5 3
15 5 3
20 5 3
25 5 3
30 5 3
35 5 3
40 5 3
45 5 3
50 5 3
55 5 3
60 5 3
65 5 3
70 5 3
75 5 3
80 5 3
85 5 3
90 5 3
95 5 3
100 5 3
105 5 3
0 6 3
5 6 3
10 6 3
15 6 3
20 6 3
25 6 3
30 6 3
35 6 3
40 6 3
45 6 3
50 6 3
55 6 3
60 6 3
65 6 3
70 6 3
75 6 3
80 6 3
85 6 3
90 6 3
95 6 3
100 6 3
105 6 3
0 7 3
5 7 3
10 7 3
15 7 3
20 7 3
25 7 3
30 7 3
35 7 3
40 7 3
45 7 3
50 7 3
55 7 3
60 7 3
65 7 3
70 7 3
75 7 3
80 7 3
85 7 3
90 7 3
95 7 3
100 7 3
105 7 3
0 8 3
5 8 3
10 8 3
15 8 3
20 8 3
25 8 3
30 8 3
35 8 3
40 8 3
45 8 3
50 8 3
55 8 3
60 8 3
65 8 3
70 8 3
75 8 3
80 8 3
85 8 3
90 8 3
95 8 3
100 8 3
105 8 3
0 9 3
5 9 3
10 9 3
15 9 3
20 9 3
25 9 3
30 9 3
35 9 3
40 9 3
45 9 3
50 9 3
55 9 3
60 9 3
65 9 3
70 9 3
75 9 3
80 9 3
85 9 3
90 9 3
95 9 3
100 9 3
105 9 3
0 10 3
5 10 3
10 10 3
15 10 3
[...]
POINT_DATA 4488

SCALARS pressure double
LOOKUP_TABLE pressure
0
0
0
0
0
0
0
0
0
0
0
0
0
0
0
0
0
0
0
0
0
0
0
4026.17
4026.18
4026.14
4025.91
4025.8
4025.72
4025.7
4025.58
4025.75
4025.38
4025.17
4024.83
4024.57
4024.07
4023.26
4020.96
4021.16
4020.62
4020.32
4020.22
0
0
4026.18
4026.18
4026.15
4025.91
4025.81
4025.73
4025.71
4025.58
4025.4
4025.38
4025.18
4024.83
4024.58
4024.1
4023.31
4020.81
4021.18
4020.61
4020.32
4020.22
0
0
4026.19
4026.19
4026.17
4025.92
4025.82
4025.78
4025.72
4025.58
4025.44
4025.39
4025.21
4024.79
4024.6
4024.15
4023.42
4023.26
4021.25
4020.59
4020.31
4020.23
0
0
4026.2
4026.2
4026.2
4025.94
4025.58
4025.79
4025.75
4025.66
4025.48
4025.41
4025.24
4024.81
4024.63
4024.21
4023.52
4023.15
4021.25
4020.56
4020.29
4020.25
0
0
4026.22
4026.21
4026.1
4025.95
4025.59
4025.81
4025.78
4025.67
4025.52
4025.44
4025.29
4025.24
4024.68
4024.28
4023.61
4023.08
4021.2
4020.51
4020.27
4020.26
0
0
4026.24
4026.23
4026.14
4025.99
4025.57
4025.85
4025.82
4025.68
4025.56
4025.46
4025.33
4025.2
4024.75
4024.35
4023.71
4023.06
4021.09
4020.13
4020.23
4020.28
0
0
4026.27
4026.26
4026.18
4026.04
4025.53
4025.89
4025.86
4025.69
4025.61
4025.5
4025.37
4025.26
4024.87
4024.44
4023.86
4023.09
4020.93
4020.02
4020.19
4020.31
0
0
4026.3
4026.29
4026.23
4026.1
4025.47
4025.95
4025.91
4025.9
4025.66
4025.54
4025.42
4025.31
4024.99
4024.53
4023.98
4023.16
4020.72
4019.85
4020.16
4020.33
0
0
4026.33
4026.33
4026.29
4026.17
4025.32
4026.02
4025.96
4025.93
4025.71
4025.58
4025.47
4025.37
4025.12
4024.7
4024.05
4023.29
4020.42
4019.64
4020.1
4020.36
0
0
4026.37
4026.37
4026.35
4026.27
4026.66
4026.16
4026.02
4025.97
4025.75
4025.62
4025.52
4025.44
4025.26
4024.83
4024.16
4023.48
4019.97
4019.36
4020.08
4020.39
0
0
4026.41
4026.42
4026.41
4026.38
4026.57
4026.25
4026.09
4026.01
4025.8
4025.67
4025.57
4025.52
4025.4
4024.97
4024.25
4023.75
4019.21
4019.02
4020.07
4020.43
0
0
4026.46
4026.47
4026.48
4026.47
4026.58
4026.32
4026.15
4026.07
4025.85
4025.71
4025.63
4025.6
4025.56
4025.12
4024.3
4024.12
4018.63
4018.64
4020.09
4020.46
0
0
4026.5
4026.53
4026.55
4026.56
4026.61
4026.39
4026.22
4026.03
4025.89
4025.76
4025.69
4025.69
4025.75
4025.26
4026.84
4024.67
4017.46
4018.16
4020.13
4020.5
0
0
4026.56
4026.58
4026.62
4026.65
4026.64
4026.46
4026.29
4026.09
4025.94
4025.81
4025.75
4025.78
4025.95
4026.63
4027.04
4025.29
4015.78
4017.59
4020.23
4020.54
0
0
4026.61
4026.64
4026.69
4026.73
4026.66
4026.52
4026.36
4026.17
4025.99
4025.86
4025.81
4025.87
4026.14
4026.71
4027.24
4027.03
4014.26
4016.88
4020.44
4020.57
0
0
0
0
0
0
0
0
0
0
0
0
0
0
0
0
0
0
0
0
0
0
0
0
4026.17
4026.18
4026.14
4025.91
4025.8
4025.72
4025.7
4025.58
4025.75
4025.38
4025.17
4024.83
4024.57
4024.07
4023.26
4020.96
4021.16
4020.62
4020.32
4020.22
0
-4026.17
4026.17
4026.18
4026.14
4025.91
4025.8
4025.72
4025.7
4025.58
4025.75
4025.38
4025.17
4024.83
4024.57
4024.07
4023.26
4020.96
4021.16
4020.62
4020.32
4020.22
4020.22
0.0302049
4026.18
4026.18
4026.15
4025.91
4025.81
4025.73
4025.71
4025.58
4025.4
4025.38
4025.18
4024.83
4024.58
4024.1
4023.31
4020.81
4021.18
4020.61
4020.32
4020.22
4020.22
-4026.19
4026.19
4026.19
4026.17
4025.92
4025.82
4025.78
4025.72
4025.58
4025.44
4025.39
4025.21
4024.79
4024.6
4024.15
4023.42
4023.26
4021.25
4020.59
4020.31
4020.23
4020.23
-4026.2
4026.2
4026.2
4026.2
4025.94
4025.58
4025.79
4025.75
4025.66
4025.48
4025.41
4025.24
4024.81
4024.63
4024.21
4023.52
4023.15
4021.25
4020.56
4020.29
4020.25
4020.25
-4026.22
4026.22
4026.21
4026.1
4025.95
4025.59
4025.81
4025.78
4025.67
4025.52
4025.44
4025.29
4025.24
4024.68
4024.28
4023.61
4023.08
4021.2
4020.51
4020.27
4020.26
4020.26
-4026.24
4026.24
4026.23
4026.14
4025.99
4025.57
4025.85
4025.82
4025.68
4025.56
4025.46
4025.33
4025.2
4024.75
4024.35
4023.71
4023.06
4021.09
4020.13
4020.23
4020.28
4020.28
-4026.27
4026.27
4026.26
4026.18
4026.04
4025.53
4025.89
4025.86
4025.69
4025.61
4025.5
4025.37
4025.26
4024.87
4024.44
4023.86
4023.09
4020.93
4020.02
4020.19
4020.31
4020.31
-4026.3
4026.3
4026.29
4026.23
4026.1
4025.47
4025.95
4025.91
4025.9
4025.66
4025.54
4025.42
4025.31
4024.99
4024.53
4023.98
4023.16
4020.72
4019.85
4020.16
4020.33
4020.33
-4026.33
4026.33
4026.33
4026.29
4026.17
4025.32
4026.02
4025.96
4025.93
4025.71
4025.58
4025.47
4025.37
4025.12
4024.7
4024.05
4023.29
4020.42
4019.64
4020.1
4020.36
4020.36
-4026.37
4026.37
4026.37
4026.35
4026.27
4026.66
4026.16
4026.02
4025.97
4025.75
4025.62
4025.52
4025.44
4025.26
4024.83
4024.16
4023.48
4019.97
4019.36
4020.08
4020.39
4020.39
-4026.41
4026.41
4026.42
4026.41
4026.38
4026.57
4026.25
4026.09
4026.01
4025.8
4025.67
4025.57
4025.52
4025.4
4024.97
4024.25
4023.75
4019.21
4019.02
4020.07
4020.43
4020.43
-4026.46
4026.46
4026.47
4026.48
4026.47
4026.58
4026.32
4026.15
4026.07
4025.85
4025.71
4025.63
4025.6
4025.56
4025.12
4024.3
4024.12
4018.63
4018.64
4020.09
4020.46
4020.46
-4026.5
4026.5
4026.53
4026.55
4026.56
4026.61
4026.39
4026.22
4026.03
4025.89
4025.76
4025.69
4025.69
4025.75
4025.26
4026.84
4024.67
4017.46
4018.16
4020.13
4020.5
4020.5
-4026.56
4026.56
4026.58
4026.62
4026.65
4026.64
4026.46
4026.29
4026.09
4025.94
4025.81
4025.75
4025.78
4025.95
4026.63
4027.04
4025.29
4015.78
4017.59
4020.23
4020.54
4020.54
-4026.61
4026.61
4026.64
4026.69
4026.73
4026.66
4026.52
4026.36
4026.17
4025.99
4025.86
4025.81
4025.87
4026.14
4026.71
4027.24
4027.03
4014.26
4016.88
4020.44
4020.57
4020.57
0
4026.61
4026.64
4026.69
4026.73
4026.66
4026.52
4026.36
4026.17
4025.99
4025.86
4025.81
4025.87
4026.14
4026.71
4027.24
4027.03
4014.26
4016.88
4020.44
4020.57
0
0
4026.22
4026.24
4026.18
4026
4025.85
4025.79
4025.74
4025.65
4025.48
4025.41
4025.22
4025.07
4024.61
4024.11
4023.32
4021.71
4021.39
4020.74
4020.42
4020.28
0
-4026.22
4026.22
4026.24
4026.18
4026
4025.85
4025.79
4025.74
4025.65
4025.48
4025.41
4025.22
4025.07
4024.61
4024.11
4023.32
4021.71
4021.39
4020.74
4020.42
4020.28
4020.28
-4026.22
4026.22
4026.27
4026.19
4026
4025.87
4025.8
4025.73
4025.65
4025.49
4025.42
4025.23
4024.97
4024.63
4024.13
4023.36
4021.85
4021.37
4020.73
4020.42
4020.28
4020.28
-4026.23
4026.23
4026.25
4026.2
4026.01
4025.86
4025.83
4025.77
4025.66
4025.51
4025.43
4025.25
4024.96
4024.66
4024.17
4023.42
4022.64
4021.39
4020.71
4020.41
4020.29
4020.29
-4026.25
4026.25
4026.25
4026.2
4026.02
4025.79
4025.85
4025.8
4025.69
4025.54
4025.45
4025.28
4024.99
4024.72
4024.23
4023.44
4022.88
4021.38
4020.66
4020.39
4020.31
4020.31
-4026.26
4026.26
4026.26
4026.19
4026.04
4025.78
4025.88
4025.83
4025.72
4025.58
4025.47
4025.32
4025.15
4024.74
4024.29
4023.3
4022.94
4021.33
4020.58
4020.37
4020.32
4020.32
-4026.29
4026.29
4026.28
4026.21
4026.07
4025.8
4025.92
4025.87
4025.75
4025.61
4025.5
4025.36
4025.2
4024.81
4024.37
4023.61
4022.99
4021.25
4020.4
4020.34
4020.34
4020.34
-4026.31
4026.31
4026.31
4026.24
4026.12
4025.85
4025.97
4025.91
4025.79
4025.66
4025.53
4025.4
4025.25
4024.9
4024.47
4023.83
4023.05
4021.14
4020.27
4020.31
4020.36
4020.36
-4026.34
4026.34
4026.34
4026.29
4026.18
4025.92
4026.03
4025.96
4025.88
4025.7
4025.57
4025.44
4025.31
4025.01
4024.57
4023.98
4023.15
4021.01
4020.12
4020.28
4020.39
4020.39
-4026.37
4026.37
4026.37
4026.33
4026.25
4025.78
4026.11
4026.01
4025.93
4025.74
4025.61
4025.49
4025.37
4025.12
4024.72
4024.12
4023.28
4020.88
4019.94
4020.25
4020.42
4020.42
-4026.41
4026.41
4026.41
4026.39
4026.34
4026.42
4026.21
4026.06
4025.98
4025.79
4025.65
4025.54
4025.44
4025.25
4024.87
4024.29
4023.46
4020.83
4019.72
4020.22
4020.45
4020.45
-4026.45
4026.45
4026.46
4026.45
4026.42
4026.56
4026.28
4026.12
4026.02
4025.83
4025.7
4025.59
4025.52
4025.4
4025.04
4024.53
4023.72
4020.04
4019.44
4020.21
4020.48
4020.48
-4026.5
4026.5
4026.5
4026.51
4026.5
4026.57
4026.35
4026.19
4026.07
4025.88
4025.74
4025.65
4025.6
4025.54
4025.26
4024.88
4024.07
4019.44
4019.12
4020.22
4020.52
4020.52
-4026.54
4026.54
4026.54
4026.59
4026.58
4026.6
4026.41
4026.25
4026.09
4025.93
4025.79
4025.71
4025.68
4025.71
4025.56
4025.96
4024.57
4018.65
4018.75
4020.25
4020.56
4020.56
-4026.59
4026.59
4026.61
4026.65
4026.66
4026.63
4026.47
4026.31
4026.14
4025.98
4025.84
4025.77
4025.77
4025.89
4026.17
4026.5
4025.23
4017.68
4018.34
4020.3
4020.6
4020.6
-4026.65
4026.65
4026.68
4026.72
4026.74
4026.67
4026.54
4026.38
4026.2
4026.03
4025.9
4025.83
4025.86
4026.06
4026.49
4026.87
4026.17
4016.66
4017.9
4020.38
4020.63
4020.63
0
4026.65
4026.68
4026.72
4026.74
4026.67
4026.54
4026.38
4026.2
4026.03
4025.9
4025.83
4025.86
4026.06
4026.49
4026.87
4026.17
4016.66
4017.9
4020.38
4020.63
0
0
4026.26
4026.28
4026.22
4026.07
4025.89
4025.85
4025.8
4025.7
4025.55
4025.45
4025.26
4025.07
4024.65
4024.15
4023.39
4022.16
4021.51
4020.86
4020.52
4020.34
0
-4026.26
4026.26
4026.28
4026.22
4026.07
4025.89
4025.85
4025.8
4025.7
4025.55
4025.45
4025.26
4025.07
4024.65
4024.15
4023.39
4022.16
4021.51
4020.86
4020.52
4020.34
4020.34
-4026.27
4026.27
4026.29
4026.22
4026.08
4025.94
4025.86
4025.81
4025.71
4025.55
4025.46
4025.27
4025.04
4024.67
4024.17
4023.42
4022.29
4021.51
4020.85
4020.52
4020.34
4020.34
-4026.28
4026.28
4026.29
4026.23
4026.08
4025.94
4025.89
4025.83
4025.72
4025.57
4025.47
4025.29
4025.04
4024.69
4024.2
4023.47
4022.6
4021.51
4020.83
4020.51
4020.35
4020.35
-4026.29
4026.29
4026.3
4026.24
4026.1
4025.94
4025.92
4025.85
4025.75
4025.6
4025.49
4025.31
4025.08
4024.74
4024.25
4023.51
4022.78
4021.5
4020.78
4020.5
4020.37
4020.37
-4026.31
4026.31
4026.31
4026.25
4026.12
4025.94
4025.95
4025.88
4025.77
4025.63
4025.51
4025.35
4025.16
4024.78
4024.31
4023.55
4022.88
4021.47
4020.71
4020.48
4020.38
4020.38
-4026.33
4026.33
4026.33
4026.27
4026.15
4025.98
4025.99
4025.92
4025.8
4025.66
4025.54
4025.38
4025.21
4024.84
4024.39
4023.68
4022.95
4021.42
4020.61
4020.46
4020.4
4020.4
-4026.36
4026.36
4026.35
4026.3
4026.19
4026.04
4026.04
4025.96
4025.85
4025.7
4025.57
4025.42
4025.26
4024.92
4024.48
4023.84
4023.03
4021.34
4020.49
4020.44
4020.42
4020.42
-4026.39
4026.39
4026.38
4026.34
4026.25
4026.13
4026.09
4026
4025.9
4025.74
4025.61
4025.47
4025.31
4025.02
4024.6
4023.99
4023.14
4021.24
4020.37
4020.41
4020.45
4020.45
-4026.42
4026.42
4026.42
4026.38
4026.31
4026.23
4026.16
4026.05
4025.95
4025.78
4025.65
4025.51
4025.37
4025.12
4024.73
4024.16
4023.27
4021.13
4020.22
4020.39
4020.48
4020.48
-4026.46
4026.46
4026.46
4026.43
4026.39
4026.55
4026.24
4026.1
4026
4025.83
4025.69
4025.56
4025.44
4025.24
4024.88
4024.36
4023.45
4020.97
4020.04
4020.37
4020.51
4020.51
-4026.5
4026.5
4026.5
4026.49
4026.46
4026.57
4026.31
4026.16
4026.04
4025.87
4025.73
4025.61
4025.52
4025.37
4025.07
4024.63
4023.69
4020.56
4019.82
4020.36
4020.54
4020.54
-4026.54
4026.54
4026.54
4026.55
4026.53
4026.58
4026.37
4026.22
4026.09
4025.92
4025.78
4025.67
4025.59
4025.51
4025.29
4025.02
4024.01
4020.14
4019.57
4020.36
4020.58
4020.58
-4026.58
4026.58
4026.59
4026.61
4026.6
4026.6
4026.43
4026.28
4026.13
4025.96
4025.83
4025.73
4025.68
4025.66
4025.58
4025.63
4024.46
4019.65
4019.3
4020.37
4020.61
4020.61
-4026.63
4026.63
4026.65
4026.67
4026.67
4026.64
4026.49
4026.34
4026.17
4026.01
4025.88
4025.79
4025.76
4025.82
4025.96
4026.1
4025.07
4019.14
4019.01
4020.4
4020.65
4020.65
-4026.69
4026.69
4026.71
4026.74
4026.75
4026.68
4026.56
4026.4
4026.23
4026.06
4025.93
4025.85
4025.85
4025.98
4026.27
4026.5
4025.84
4018.63
4018.71
4020.44
4020.69
4020.69
0
4026.69
4026.71
4026.74
4026.75
4026.68
4026.56
4026.4
4026.23
4026.06
4025.93
4025.85
4025.85
4025.98
4026.27
4026.5
4025.84
4018.63
4018.71
4020.44
4020.69
0
0
4026.31
4026.32
4026.26
4026.15
4025.87
4025.89
4025.86
4025.76
4025.61
4025.49
4025.3
4025.08
4024.68
4024.18
4023.45
4022.43
4021.64
4020.98
4020.62
4020.4
0
-4026.31
4026.31
4026.32
4026.26
4026.15
4025.87
4025.89
4025.86
4025.76
4025.61
4025.49
4025.3
4025.08
4024.68
4024.18
4023.45
4022.43
4021.64
4020.98
4020.62
4020.4
4020.4
-4026.32
4026.32
4026.32
4026.27
4026.15
4026.04
4025.92
4025.87
4025.76
4025.62
4025.49
4025.31
4025.07
4024.7
4024.2
4023.48
4022.5
4021.64
4020.98
4020.62
4020.41
4020.41
-4026.33
4026.33
4026.33
4026.28
4026.16
4026.04
4025.95
4025.89
4025.78
4025.63
4025.51
4025.32
4025.08
4024.72
4024.23
4023.52
4022.65
4021.64
4020.96
4020.62
4020.42
4020.42
-4026.34
4026.34
4026.34
4026.29
4026.17
4026.05
4025.98
4025.91
4025.8
4025.65
4025.53
4025.35
4025.12
4024.76
4024.28
4023.57
4022.77
4021.64
4020.92
4020.61
4020.43
4020.43
-4026.36
4026.36
4026.35
4026.3
4026.19
4026.07
4026.01
4025.94
4025.82
4025.68
4025.55
4025.38
4025.17
4024.81
4024.33
4023.63
4022.86
4021.61
4020.87
4020.59
4020.44
4020.44
-4026.38
4026.38
4026.37
4026.32
4026.22
4026.1
4026.05
4025.97
4025.85
4025.71
4025.58
4025.41
4025.21
4024.87
4024.41
4023.73
4022.95
4021.57
4020.79
4020.58
4020.46
4020.46
-4026.4
4026.4
4026.4
4026.35
4026.26
4026.16
4026.1
4026.01
4025.89
4025.75
4025.61
4025.45
4025.26
4024.94
4024.5
4023.86
4023.03
4021.52
4020.71
4020.56
4020.48
4020.48
-4026.43
4026.43
4026.43
4026.39
4026.31
4026.23
4026.15
4026.05
4025.94
4025.78
4025.64
4025.49
4025.32
4025.02
4024.61
4024
4023.13
4021.44
4020.6
4020.54
4020.51
4020.51
-4026.46
4026.46
4026.46
4026.43
4026.36
4026.33
4026.21
4026.09
4025.98
4025.82
4025.68
4025.54
4025.38
4025.12
4024.73
4024.17
4023.26
4021.35
4020.49
4020.53
4020.54
4020.54
-4026.5
4026.5
4026.5
4026.47
4026.43
4026.48
4026.27
4026.14
4026.03
4025.86
4025.72
4025.58
4025.44
4025.23
4024.88
4024.37
4023.43
4021.2
4020.34
4020.51
4020.57
4020.57
-4026.54
4026.54
4026.54
4026.52
4026.49
4026.54
4026.34
4026.19
4026.07
4025.91
4025.76
4025.64
4025.51
4025.35
4025.06
4024.62
4023.65
4020.98
4020.18
4020.5
4020.6
4020.6
-4026.58
4026.58
4026.58
4026.58
4026.56
4026.57
4026.39
4026.25
4026.11
4025.95
4025.81
4025.69
4025.59
4025.47
4025.26
4024.95
4023.94
4020.72
4020
4020.5
4020.64
4020.64
-4026.63
4026.63
4026.63
4026.64
4026.62
4026.61
4026.45
4026.3
4026.16
4026
4025.86
4025.75
4025.67
4025.61
4025.51
4025.37
4024.32
4020.44
4019.8
4020.51
4020.67
4020.67
-4026.67
4026.67
4026.68
4026.7
4026.69
4026.65
4026.51
4026.36
4026.21
4026.05
4025.91
4025.8
4025.75
4025.75
4025.8
4025.77
4024.83
4020.15
4019.6
4020.52
4020.71
4020.71
-4026.73
4026.73
4026.74
4026.76
4026.76
4026.69
4026.57
4026.43
4026.26
4026.1
4025.96
4025.86
4025.83
4025.9
4026.07
4026.14
4025.43
4019.88
4019.39
4020.54
4020.75
4020.75
0
4026.73
4026.74
4026.76
4026.76
4026.69
4026.57
4026.43
4026.26
4026.1
4025.96
4025.86
4025.83
4025.9
4026.07
4026.14
4025.43
4019.88
4019.39
4020.54
4020.75
0
0
4026.36
4026.36
4026.31
4026.23
4026
4025.93
4025.92
4025.81
4025.66
4025.53
4025.33
4025.09
4024.71
4024.21
4023.51
4022.59
4021.77
4021.11
4020.72
4020.46
0
-4026.36
4026.36
4026.36
4026.31
4026.23
4026
4025.93
4025.92
4025.81
4025.66
4025.53
4025.33
4025.09
4024.71
4024.21
4023.51
4022.59
4021.77
4021.11
4020.72
4020.46
4020.46
-4026.36
4026.36
4026.36
4026.32
4026.23
4026.14
4025.97
4025.93
4025.82
4025.67
4025.53
4025.34
4025.1
4024.73
4024.23
4023.53
4022.64
4021.77
4021.11
4020.72
4020.47
4020.47
-4026.37
4026.37
4026.37
4026.32
4026.23
4026.17
4026.01
4025.95
4025.83
4025.69
4025.55
4025.36
4025.11
4024.75
4024.25
4023.56
4022.72
4021.77
4021.09
4020.72
4020.48
4020.48
-4026.39
4026.39
4026.38
4026.34
4026.24
4026.17
4026.05
4025.97
4025.85
4025.71
4025.57
4025.38
4025.14
4024.78
4024.3
4023.61
4022.8
4021.77
4021.06
4020.72
4020.49
4020.49
-4026.41
4026.41
4026.4
4026.35
4026.26
4026.17
4026.08
4025.99
4025.87
4025.73
4025.59
4025.41
4025.18
4024.83
4024.35
4023.68
4022.88
4021.75
4021.02
4020.71
4020.51
4020.51
-4026.43
4026.43
4026.42
4026.37
4026.29
4026.2
4026.11
4026.02
4025.9
4025.76
4025.61
4025.44
4025.23
4024.88
4024.42
4023.77
4022.96
4021.73
4020.97
4020.7
4020.52
4020.52
-4026.45
4026.45
4026.44
4026.4
4026.32
4026.24
4026.15
4026.06
4025.94
4025.79
4025.64
4025.48
4025.27
4024.95
4024.51
4023.88
4023.04
4021.69
4020.91
4020.69
4020.55
4020.55
-4026.48
4026.48
4026.47
4026.43
4026.36
4026.3
4026.2
4026.09
4025.98
4025.82
4025.68
4025.52
4025.32
4025.03
4024.61
4024
4023.14
4021.64
4020.83
4020.68
4020.57
4020.57
-4026.51
4026.51
4026.5
4026.47
4026.41
4026.37
4026.25
4026.14
4026.02
4025.86
4025.72
4025.56
4025.38
4025.11
4024.72
4024.16
4023.26
4021.57
4020.74
4020.67
4020.6
4020.6
-4026.54
4026.54
4026.54
4026.51
4026.47
4026.46
4026.31
4026.18
4026.06
4025.9
4025.76
4025.61
4025.45
4025.21
4024.86
4024.34
4023.41
4021.47
4020.64
4020.66
4020.63
4020.63
-4026.58
4026.58
4026.58
4026.56
4026.52
4026.52
4026.36
4026.23
4026.1
4025.94
4025.8
4025.66
4025.51
4025.32
4025.02
4024.56
4023.6
4021.34
4020.52
4020.65
4020.66
4020.66
-4026.62
4026.62
4026.62
4026.61
4026.58
4026.57
4026.42
4026.28
4026.14
4025.99
4025.84
4025.71
4025.58
4025.44
4025.2
4024.83
4023.85
4021.19
4020.39
4020.65
4020.69
4020.69
-4026.67
4026.67
4026.67
4026.67
4026.64
4026.61
4026.47
4026.33
4026.19
4026.03
4025.89
4025.76
4025.66
4025.56
4025.41
4025.15
4024.17
4021.03
4020.25
4020.66
4020.73
4020.73
-4026.71
4026.71
4026.72
4026.72
4026.7
4026.65
4026.53
4026.39
4026.24
4026.08
4025.94
4025.82
4025.74
4025.69
4025.64
4025.48
4024.56
4020.88
4020.11
4020.66
4020.77
4020.77
-4026.77
4026.77
4026.78
4026.78
4026.77
4026.7
4026.59
4026.45
4026.29
4026.13
4025.99
4025.88
4025.82
4025.82
4025.87
4025.8
4025.01
4020.73
4019.97
4020.67
4020.81
4020.81
0
4026.77
4026.78
4026.78
4026.77
4026.7
4026.59
4026.45
4026.29
4026.13
4025.99
4025.88
4025.82
4025.82
4025.87
4025.8
4025.01
4020.73
4019.97
4020.67
4020.81
0
0
4026.41
4026.4
4026.36
4026.28
4026.11
4026.03
4025.98
4025.86
4025.72
4025.57
4025.37
4025.12
4024.74
4024.24
4023.56
4022.71
4021.89
4021.24
4020.83
4020.52
0
-4026.41
4026.41
4026.4
4026.36
4026.28
4026.11
4026.03
4025.98
4025.86
4025.72
4025.57
4025.37
4025.12
4024.74
4024.24
4023.56
4022.71
4021.89
4021.24
4020.83
4020.52
4020.52
-4026.41
4026.41
4026.41
4026.36
4026.29
4026.18
4026.05
4025.99
4025.87
4025.72
4025.58
4025.38
4025.12
4024.75
4024.25
4023.58
4022.74
4021.89
4021.24
4020.83
4020.53
4020.53
-4026.42
4026.42
4026.42
4026.37
4026.29
4026.21
4026.08
4026
4025.89
4025.74
4025.59
4025.39
4025.14
4024.77
4024.28
4023.61
4022.79
4021.9
4021.23
4020.83
4020.54
4020.54
-4026.44
4026.44
4026.43
4026.39
4026.31
4026.23
4026.11
4026.02
4025.9
4025.76
4025.61
4025.41
4025.17
4024.8
4024.32
4023.65
4022.85
4021.9
4021.21
4020.83
4020.55
4020.55
-4026.45
4026.45
4026.45
4026.4
4026.32
4026.24
4026.14
4026.05
4025.93
4025.78
4025.63
4025.44
4025.2
4024.85
4024.37
4023.71
4022.92
4021.89
4021.18
4020.82
4020.57
4020.57
-4026.47
4026.47
4026.47
4026.42
4026.35
4026.27
4026.17
4026.07
4025.95
4025.8
4025.65
4025.47
4025.24
4024.9
4024.43
4023.79
4022.99
4021.88
4021.15
4020.82
4020.59
4020.59
-4026.5
4026.5
4026.49
4026.45
4026.38
4026.3
4026.21
4026.1
4025.98
4025.83
4025.68
4025.5
4025.28
4024.96
4024.51
4023.88
4023.06
4021.85
4021.1
4020.82
4020.61
4020.61
-4026.52
4026.52
4026.52
4026.48
4026.42
4026.35
4026.25
4026.14
4026.02
4025.87
4025.71
4025.54
4025.33
4025.03
4024.6
4024
4023.15
4021.82
4021.05
4020.81
4020.63
4020.63
-4026.55
4026.55
4026.55
4026.51
4026.46
4026.41
4026.29
4026.18
4026.05
4025.9
4025.75
4025.58
4025.39
4025.11
4024.7
4024.13
4023.26
4021.78
4020.99
4020.81
4020.66
4020.66
-4026.59
4026.59
4026.58
4026.55
4026.51
4026.47
4026.34
4026.22
4026.09
4025.94
4025.79
4025.63
4025.45
4025.19
4024.83
4024.29
4023.39
4021.72
4020.92
4020.8
4020.69
4020.69
-4026.63
4026.63
4026.62
4026.6
4026.56
4026.53
4026.39
4026.26
4026.13
4025.98
4025.83
4025.68
4025.51
4025.29
4024.97
4024.48
4023.55
4021.65
4020.84
4020.8
4020.72
4020.72
-4026.67
4026.67
4026.66
4026.65
4026.61
4026.57
4026.44
4026.31
4026.18
4026.03
4025.88
4025.73
4025.58
4025.4
4025.13
4024.7
4023.76
4021.57
4020.75
4020.81
4020.75
4020.75
-4026.71
4026.71
4026.71
4026.7
4026.66
4026.62
4026.49
4026.36
4026.22
4026.07
4025.92
4025.78
4025.65
4025.51
4025.3
4024.95
4024.01
4021.49
4020.66
4020.81
4020.79
4020.79
-4026.76
4026.76
4026.76
4026.75
4026.72
4026.66
4026.55
4026.42
4026.27
4026.12
4025.97
4025.84
4025.73
4025.62
4025.49
4025.21
4024.32
4021.41
4020.57
4020.82
4020.83
4020.83
-4026.81
4026.81
4026.81
4026.81
4026.78
4026.71
4026.61
4026.47