# vtk DataFile Version 3.0
FlowField
ASCII
DATASET STRUCTURED_GRID
DIMENSIONS 102 12 1 
POINTS 1224 double
0 0 0
0.3 0 0
0.6 0 0
0.9 0 0
1.2 0 0
1.5 0 0
1.8 0 0
2.1 0 0
2.4 0 0
2.7 0 0
3 0 0
3.3 0 0
3.6 0 0
3.9 0 0
4.2 0 0
4.5 0 0
4.8 0 0
5.1 0 0
5.4 0 0
5.7 0 0
6 0 0
6.3 0 0
6.6 0 0
6.9 0 0
7.2 0 0
7.5 0 0
7.8 0 0
8.1 0 0
8.4 0 0
8.7 0 0
9 0 0
9.3 0 0
9.6 0 0
9.9 0 0
10.2 0 0
10.5 0 0
10.8 0 0
11.1 0 0
11.4 0 0
11.7 0 0
12 0 0
12.3 0 0
12.6 0 0
12.9 0 0
13.2 0 0
13.5 0 0
13.8 0 0
14.1 0 0
14.4 0 0
14.7 0 0
15 0 0
15.3 0 0
15.6 0 0
15.9 0 0
16.2 0 0
16.5 0 0
16.8 0 0
17.1 0 0
17.4 0 0
17.7 0 0
18 0 0
18.3 0 0
18.6 0 0
18.9 0 0
19.2 0 0
19.5 0 0
19.8 0 0
20.1 0 0
20.4 0 0
20.7 0 0
21 0 0
21.3 0 0
21.6 0 0
21.9 0 0
22.2 0 0
22.5 0 0
22.8 0 0
23.1 0 0
23.4 0 0
23.7 0 0
24 0 0
24.3 0 0
24.6 0 0
24.9 0 0
25.2 0 0
25.5 0 0
25.8 0 0
26.1 0 0
26.4 0 0
26.7 0 0
27 0 0
27.3 0 0
27.6 0 0
27.9 0 0
28.2 0 0
28.5 0 0
28.8 0 0
29.1 0 0
29.4 0 0
29.7 0 0
30 0 0
30.3 0 0
0 0.1 0
0.3 0.1 0
0.6 0.1 0
0.9 0.1 0
1.2 0.1 0
1.5 0.1 0
1.8 0.1 0
2.1 0.1 0
2.4 0.1 0
2.7 0.1 0
3 0.1 0
3.3 0.1 0
3.6 0.1 0
3.9 0.1 0
4.2 0.1 0
4.5 0.1 0
4.8 0.1 0
5.1 0.1 0
5.4 0.1 0
5.7 0.1 0
6 0.1 0
6.3 0.1 0
6.6 0.1 0
6.9 0.1 0
7.2 0.1 0
7.5 0.1 0
7.8 0.1 0
8.1 0.1 0
8.4 0.1 0
8.7 0.1 0
9 0.1 0
9.3 0.1 0
9.6 0.1 0
9.9 0.1 0
10.2 0.1 0
10.5 0.1 0
10.8 0.1 0
11.1 0.1 0
11.4 0.1 0
11.7 0.1 0
12 0.1 0
12.3 0.1 0
12.6 0.1 0
12.9 0.1 0
13.2 0.1 0
13.5 0.1 0
13.8 0.1 0
14.1 0.1 0
14.4 0.1 0
14.7 0.1 0
15 0.1 0
15.3 0.1 0
15.6 0.1 0
15.9 0.1 0
16.2 0.1 0
16.5 0.1 0
16.8 0.1 0
17.1 0.1 0
17.4 0.1 0
17.7 0.1 0
18 0.1 0
18.3 0.1 0
18.6 0.1 0
18.9 0.1 0
19.2 0.1 0
19.5 0.1 0
19.8 0.1 0
20.1 0.1 0
20.4 0.1 0
20.7 0.1 0
21 0.1 0
21.3 0.1 0
21.6 0.1 0
21.9 0.1 0
22.2 0.1 0
22.5 0.1 0
22.8 0.1 0
23.1 0.1 0
23.4 0.1 0
23.7 0.1 0
24 0.1 0
24.3 0.1 0
24.6 0.1 0
24.9 0.1 0
25.2 0.1 0
25.5 0.1 0
25.8 0.1 0
26.1 0.1 0
26.4 0.1 0
26.7 0.1 0
27 0.1 0
27.3 0.1 0
27.6 0.1 0
27.9 0.1 0
28.2 0.1 0
28.5 0.1 0
28.8 0.1 0
29.1 0.1 0
29.4 0.1 0
29.7 0.1 0
30 0.1 0
30.3 0.1 0
0 0.2 0
0.3 0.2 0
0.6 0.2 0
0.9 0.2 0
1.2 0.2 0
1.5 0.2 0
1.8 0.2 0
2.1 0.2 0
2.4 0.2 0
2.7 0.2 0
3 0.2 0
3.3 0.2 0
3.6 0.2 0
3.9 0.2 0
4.2 0.2 0
4.5 0.2 0
4.8 0.2 0
5.1 0.2 0
5.4 0.2 0
5.7 0.2 0
6 0.2 0
6.3 0.2 0
6.6 0.2 0
6.9 0.2 0
7.2 0.2 0
7.5 0.2 0
7.8 0.2 0
8.1 0.2 0
8.4 0.2 0
8.7 0.2 0
9 0.2 0
9.3 0.2 0
9.6 0.2 0
9.9 0.2 0
10.2 0.2 0
10.5 0.2 0
10.8 0.2 0
11.1 0.2 0
11.4 0.2 0
11.7 0.2 0
12 0.2 0
12.3 0.2 0
12.6 0.2 0
12.9 0.2 0
13.2 0.2 0
13.5 0.2 0
13.8 0.2 0
14.1 0.2 0
14.4 0.2 0
14.7 0.2 0
15 0.2 0
15.3 0.2 0
15.6 0.2 0
15.9 0.2 0
16.2 0.2 0
16.5 0.2 0
16.8 0.2 0
17.1 0.2 0
17.4 0.2 0
17.7 0.2 0
18 0.2 0
18.3 0.2 0
18.6 0.2 0
18.9 0.2 0
19.2 0.2 0
19.5 0.2 0
19.8 0.2 0
20.1 0.2 0
20.4 0.2 0
20.7 0.2 0
21 0.2 0
21.3 0.2 0
21.6 0.2 0
21.9 0.2 0
22.2 0.2 0
22.5 0.2 0
22.8 0.2 0
23.1 0.2 0
23.4 0.2 0
23.7 0.2 0
24 0.2 0
24.3 0.2 0
24.6 0.2 0
24.9 0.2 0
25.2 0.2 0
25.5 0.2 0
25.8 0.2 0
26.1 0.2 0
26.4 0.2 0
26.7 0.2 0
27 0.2 0
27.3 0.2 0
27.6 0.2 0
27.9 0.2 0
28.2 0.2 0
28.5 0.2 0
28.8 0.2 0
29.1 0.2 0
29.4 0.2 0
29.7 0.2 0
30 0.2 0
30.3 0.2 0
0 0.3 0
0.3 0.3 0
0.6 0.3 0
0.9 0.3 0
1.2 0.3 0
1.5 0.3 0
1.8 0.3 0
2.1 0.3 0
2.4 0.3 0
2.7 0.3 0
3 0.3 0
3.3 0.3 0
3.6 0.3 0
3.9 0.3 0
4.2 0.3 0
4.5 0.3 0
4.8 0.3 0
5.1 0.3 0
5.4 0.3 0
5.7 0.3 0
6 0.3 0
6.3 0.3 0
6.6 0.3 0
6.9 0.3 0
7.2 0.3 0
7.5 0.3 0
7.8 0.3 0
8.1 0.3 0
8.4 0.3 0
8.7 0.3 0
9 0.3 0
9.3 0.3 0
9.6 0.3 0
9.9 0.3 0
10.2 0.3 0
10.5 0.3 0
10.8 0.3 0
11.1 0.3 0
11.4 0.3 0
11.7 0.3 0
12 0.3 0
12.3 0.3 0
12.6 0.3 0
12.9 0.3 0
13.2 0.3 0
13.5 0.3 0
13.8 0.3 0
14.1 0.3 0
14.4 0.3 0
14.7 0.3 0
15 0.3 0
15.3 0.3 0
15.6 0.3 0
15.9 0.3 0
16.2 0.3 0
16.5 0.3 0
16.8 0.3 0
17.1 0.3 0
17.4 0.3 0
17.7 0.3 0
18 0.3 0
18.3 0.3 0
18.6 0.3 0
18.9 0.3 0
19.2 0.3 0
19.5 0.3 0
19.8 0.3 0
20.1 0.3 0
20.4 0.3 0
20.7 0.3 0
21 0.3 0
21.3 0.3 0
21.6 0.3 0
21.9 0.3 0
22.2 0.3 0
22.5 0.3 0
22.8 0.3 0
23.1 0.3 0
23.4 0.3 0
23.7 0.3 0
24 0.3 0
24.3 0.3 0
24.6 0.3 0
24.9 0.3 0
25.2 0.3 0
25.5 0.3 0
25.8 0.3 0
26.1 0.3 0
26.4 0.3 0
26.7 0.3 0
27 0.3 0
27.3 0.3 0
27.6 0.3 0
27.9 0.3 0
28.2 0.3 0
28.5 0.3 0
28.8 0.3 0
29.1 0.3 0
29.4 0.3 0
29.7 0.3 0
30 0.3 0
30.3 0.3 0
0 0.4 0
0.3 0.4 0
0.6 0.4 0
0.9 0.4 0
1.2 0.4 0
1.5 0.4 0
1.8 0.4 0
2.1 0.4 0
2.4 0.4 0
2.7 0.4 0
3 0.4 0
3.3 0.4 0
3.6 0.4 0
3.9 0.4 0
4.2 0.4 0
4.5 0.4 0
4.8 0.4 0
5.1 0.4 0
5.4 0.4 0
5.7 0.4 0
6 0.4 0
6.3 0.4 0
6.6 0.4 0
6.9 0.4 0
7.2 0.4 0
7.5 0.4 0
7.8 0.4 0
8.1 0.4 0
8.4 0.4 0
8.7 0.4 0
9 0.4 0
9.3 0.4 0
9.6 0.4 0
9.9 0.4 0
10.2 0.4 0
10.5 0.4 0
10.8 0.4 0
11.1 0.4 0
11.4 0.4 0
11.7 0.4 0
12 0.4 0
12.3 0.4 0
12.6 0.4 0
12.9 0.4 0
13.2 0.4 0
13.5 0.4 0
13.8 0.4 0
14.1 0.4 0
14.4 0.4 0
14.7 0.4 0
15 0.4 0
15.3 0.4 0
15.6 0.4 0
15.9 0.4 0
16.2 0.4 0
16.5 0.4 0
16.8 0.4 0
17.1 0.4 0
17.4 0.4 0
17.7 0.4 0
18 0.4 0
18.3 0.4 0
18.6 0.4 0
18.9 0.4 0
19.2 0.4 0
19.5 0.4 0
19.8 0.4 0
20.1 0.4 0
20.4 0.4 0
20.7 0.4 0
21 0.4 0
21.3 0.4 0
21.6 0.4 0
21.9 0.4 0
22.2 0.4 0
22.5 0.4 0
22.8 0.4 0
23.1 0.4 0
23.4 0.4 0
23.7 0.4 0
24 0.4 0
24.3 0.4 0
24.6 0.4 0
24.9 0.4 0
25.2 0.4 0
25.5 0.4 0
25.8 0.4 0
26.1 0.4 0
26.4 0.4 0
26.7 0.4 0
27 0.4 0
27.3 0.4 0
27.6 0.4 0
27.9 0.4 0
28.2 0.4 0
28.5 0.4 0
28.8 0.4 0
29.1 0.4 0
29.4 0.4 0
29.7 0.4 0
30 0.4 0
30.3 0.4 0
0 0.5 0
0.3 0.5 0
0.6 0.5 0
0.9 0.5 0
1.2 0.5 0
1.5 0.5 0
1.8 0.5 0
2.1 0.5 0
2.4 0.5 0
2.7 0.5 0
3 0.5 0
3.3 0.5 0
3.6 0.5 0
3.9 0.5 0
4.2 0.5 0
4.5 0.5 0
4.8 0.5 0
5.1 0.5 0
5.4 0.5 0
5.7 0.5 0
6 0.5 0
6.3 0.5 0
6.6 0.5 0
6.9 0.5 0
7.2 0.5 0
7.5 0.5 0
7.8 0.5 0
8.1 0.5 0
8.4 0.5 0
8.7 0.5 0
9 0.5 0
9.3 0.5 0
9.6 0.5 0
9.9 0.5 0
10.2 0.5 0
10.5 0.5 0
10.8 0.5 0
11.1 0.5 0
11.4 0.5 0
11.7 0.5 0
12 0.5 0
12.3 0.5 0
12.6 0.5 0
12.9 0.5 0
13.2 0.5 0
13.5 0.5 0
13.8 0.5 0
14.1 0.5 0
14.4 0.5 0
14.7 0.5 0
15 0.5 0
15.3 0.5 0
15.6 0.5 0
15.9 0.5 0
16.2 0.5 0
16.5 0.5 0
16.8 0.5 0
17.1 0.5 0
17.4 0.5 0
17.7 0.5 0
18 0.5 0
18.3 0.5 0
18.6 0.5 0
18.9 0.5 0
19.2 0.5 0
19.5 0.5 0
19.8 0.5 0
20.1 0.5 0
20.4 0.5 0
20.7 0.5 0
21 0.5 0
21.3 0.5 0
21.6 0.5 0
21.9 0.5 0
22.2 0.5 0
22.5 0.5 0
22.8 0.5 0
23.1 0.5 0
23.4 0.5 0
23.7 0.5 0
24 0.5 0
24.3 0.5 0
24.6 0.5 0
24.9 0.5 0
25.2 0.5 0
25.5 0.5 0
25.8 0.5 0
26.1 0.5 0
26.4 0.5 0
26.7 0.5 0
27 0.5 0
27.3 0.5 0
27.6 0.5 0
27.9 0.5 0
28.2 0.5 0
28.5 0.5 0
28.8 0.5 0
29.1 0.5 0
29.4 0.5 0
29.7 0.5 0
30 0.5 0
30.3 0.5 0
0 0.6 0
0.3 0.6 0
0.6 0.6 0
0.9 0.6 0
1.2 0.6 0
1.5 0.6 0
1.8 0.6 0
2.1 0.6 0
2.4 0.6 0
2.7 0.6 0
3 0.6 0
3.3 0.6 0
3.6 0.6 0
3.9 0.6 0
4.2 0.6 0
4.5 0.6 0
4.8 0.6 0
5.1 0.6 0
5.4 0.6 0
5.7 0.6 0
6 0.6 0
6.3 0.6 0
6.6 0.6 0
6.9 0.6 0
7.2 0.6 0
7.5 0.6 0
7.8 0.6 0
8.1 0.6 0
8.4 0.6 0
8.7 0.6 0
9 0.6 0
9.3 0.6 0
9.6 0.6 0
9.9 0.6 0
10.2 0.6 0
10.5 0.6 0
10.8 0.6 0
11.1 0.6 0
11.4 0.6 0
11.7 0.6 0
12 0.6 0
12.3 0.6 0
12.6 0.6 0
12.9 0.6 0
13.2 0.6 0
13.5 0.6 0
13.8 0.6 0
14.1 0.6 0
14.4 0.6 0
14.7 0.6 0
15 0.6 0
15.3 0.6 0
15.6 0.6 0
15.9 0.6 0
16.2 0.6 0
16.5 0.6 0
16.8 0.6 0
17.1 0.6 0
17.4 0.6 0
17.7 0.6 0
18 0.6 0
18.3 0.6 0
18.6 0.6 0
18.9 0.6 0
19.2 0.6 0
19.5 0.6 0
19.8 0.6 0
20.1 0.6 0
20.4 0.6 0
20.7 0.6 0
21 0.6 0
21.3 0.6 0
21.6 0.6 0
21.9 0.6 0
22.2 0.6 0
22.5 0.6 0
22.8 0.6 0
23.1 0.6 0
23.4 0.6 0
23.7 0.6 0
24 0.6 0
24.3 0.6 0
24.6 0.6 0
24.9 0.6 0
25.2 0.6 0
25.5 0.6 0
25.8 0.6 0
26.1 0.6 0
26.4 0.6 0
26.7 0.6 0
27 0.6 0
27.3 0.6 0
27.6 0.6 0
27.9 0.6 0
28.2 0.6 0
28.5 0.6 0
28.8 0.6 0
29.1 0.6 0
29.4 0.6 0
29.7 0.6 0
30 0.6 0
30.3 0.6 0
0 0.7 0
0.3 0.7 0
0.6 0.7 0
0.9 0.7 0
1.2 0.7 0
1.5 0.7 0
1.8 0.7 0
2.1 0.7 0
2.4 0.7 0
2.7 0.7 0
3 0.7 0
3.3 0.7 0
3.6 0.7 0
3.9 0.7 0
4.2 0.7 0
4.5 0.7 0
4.8 0.7 0
5.1 0.7 0
5.4 0.7 0
5.7 0.7 0
6 0.7 0
6.3 0.7 0
6.6 0.7 0
6.9 0.7 0
7.2 0.7 0
7.5 0.7 0
7.8 0.7 0
8.1 0.7 0
8.4 0.7 0
8.7 0.7 0
9 0.7 0
9.3 0.7 0
9.6 0.7 0
9.9 0.7 0
10.2 0.7 0
10.5 0.7 0
10.8 0.7 0
11.1 0.7 0
11.4 0.7 0
11.7 0.7 0
12 0.7 0
12.3 0.7 0
12.6 0.7 0
12.9 0.7 0
13.2 0.7 0
13.5 0.7 0
13.8 0.7 0
14.1 0.7 0
14.4 0.7 0
14.7 0.7 0
15 0.7 0
15.3 0.7 0
15.6 0.7 0
15.9 0.7 0
16.2 0.7 0
16.5 0.7 0
16.8 0.7 0
17.1 0.7 0
17.4 0.7 0
17.7 0.7 0
18 0.7 0
18.3 0.7 0
18.6 0.7 0
18.9 0.7 0
19.2 0.7 0
19.5 0.7 0
19.8 0.7 0
20.1 0.7 0
20.4 0.7 0
20.7 0.7 0
21 0.7 0
21.3 0.7 0
21.6 0.7 0
21.9 0.7 0
22.2 0.7 0
22.5 0.7 0
22.8 0.7 0
23.1 0.7 0
23.4 0.7 0
23.7 0.7 0
24 0.7 0
24.3 0.7 0
24.6 0.7 0
24.9 0.7 0
25.2 0.7 0
25.5 0.7 0
25.8 0.7 0
26.1 0.7 0
26.4 0.7 0
26.7 0.7 0
27 0.7 0
27.3 0.7 0
27.6 0.7 0
27.9 0.7 0
28.2 0.7 0
28.5 0.7 0
28.8 0.7 0
29.1 0.7 0
29.4 0.7 0
29.7 0.7 0
30 0.7 0
30.3 0.7 0
0 0.8 0
0.3 0.8 0
0.6 0.8 0
0.9 0.8 0
1.2 0.8 0
1.5 0.8 0
1.8 0.8 0
2.1 0.8 0
2.4 0.8 0
2.7 0.8 0
3 0.8 0
3.3 0.8 0
3.6 0.8 0
3.9 0.8 0
4.2 0.8 0
4.5 0.8 0
4.8 0.8 0
5.1 0.8 0
5.4 0.8 0
5.7 0.8 0
6 0.8 0
6.3 0.8 0
6.6 0.8 0
6.9 0.8 0
7.2 0.8 0
7.5 0.8 0
7.8 0.8 0
8.1 0.8 0
8.4 0.8 0
8.7 0.8 0
9 0.8 0
9.3 0.8 0
9.6 0.8 0
9.9 0.8 0
10.2 0.8 0
10.5 0.8 0
10.8 0.8 0
11.1 0.8 0
11.4 0.8 0
11.7 0.8 0
12 0.8 0
12.3 0.8 0
12.6 0.8 0
12.9 0.8 0
13.2 0.8 0
13.5 0.8 0
13.8 0.8 0
14.1 0.8 0
14.4 0.8 0
14.7 0.8 0
15 0.8 0
15.3 0.8 0
15.6 0.8 0
15.9 0.8 0
16.2 0.8 0
16.5 0.8 0
16.8 0.8 0
17.1 0.8 0
17.4 0.8 0
17.7 0.8 0
18 0.8 0
18.3 0.8 0
18.6 0.8 0
18.9 0.8 0
19.2 0.8 0
19.5 0.8 0
19.8 0.8 0
20.1 0.8 0
20.4 0.8 0
20.7 0.8 0
21 0.8 0
21.3 0.8 0
21.6 0.8 0
21.9 0.8 0
22.2 0.8 0
22.5 0.8 0
22.8 0.8 0
23.1 0.8 0
23.4 0.8 0
23.7 0.8 0
24 0.8 0
24.3 0.8 0
24.6 0.8 0
24.9 0.8 0
25.2 0.8 0
25.5 0.8 0
25.8 0.8 0
26.1 0.8 0
26.4 0.8 0
26.7 0.8 0
27 0.8 0
27.3 0.8 0
27.6 0.8 0
27.9 0.8 0
28.2 0.8 0
28.5 0.8 0
28.8 0.8 0
29.1 0.8 0
29.4 0.8 0
29.7 0.8 0
30 0.8 0
30.3 0.8 0
0 0.9 0
0.3 0.9 0
0.6 0.9 0
0.9 0.9 0
1.2 0.9 0
1.5 0.9 0
1.8 0.9 0
2.1 0.9 0
2.4 0.9 0
2.7 0.9 0
3 0.9 0
3.3 0.9 0
3.6 0.9 0
3.9 0.9 0
4.2 0.9 0
4.5 0.9 0
4.8 0.9 0
5.1 0.9 0
5.4 0.9 0
5.7 0.9 0
6 0.9 0
6.3 0.9 0
6.6 0.9 0
6.9 0.9 0
7.2 0.9 0
7.5 0.9 0
7.8 0.9 0
8.1 0.9 0
8.4 0.9 0
8.7 0.9 0
9 0.9 0
9.3 0.9 0
9.6 0.9 0
9.9 0.9 0
10.2 0.9 0
10.5 0.9 0
10.8 0.9 0
11.1 0.9 0
11.4 0.9 0
11.7 0.9 0
12 0.9 0
12.3 0.9 0
12.6 0.9 0
12.9 0.9 0
13.2 0.9 0
13.5 0.9 0
13.8 0.9 0
14.1 0.9 0
14.4 0.9 0
14.7 0.9 0
15 0.9 0
15.3 0.9 0
15.6 0.9 0
15.9 0.9 0
16.2 0.9 0
16.5 0.9 0
16.8 0.9 0
17.1 0.9 0
17.4 0.9 0
17.7 0.9 0
18 0.9 0
18.3 0.9 0
18.6 0.9 0
18.9 0.9 0
19.2 0.9 0
19.5 0.9 0
19.8 0.9 0
20.1 0.9 0
20.4 0.9 0
20.7 0.9 0
21 0.9 0
21.3 0.9 0
21.6 0.9 0
21.9 0.9 0
22.2 0.9 0
22.5 0.9 0
22.8 0.9 0
23.1 0.9 0
23.4 0.9 0
23.7 0.9 0
24 0.9 0
24.3 0.9 0
24.6 0.9 0
24.9 0.9 0
25.2 0.9 0
25.5 0.9 0
25.8 0.9 0
26.1 0.9 0
26.4 0.9 0
26.7 0.9 0
27 0.9 0
27.3 0.9 0
27.6 0.9 0
27.9 0.9 0
28.2 0.9 0
28.5 0.9 0
28.8 0.9 0
29.1 0.9 0
29.4 0.9 0
29.7 0.9 0
30 0.9 0
30.3 0.9 0
0 1 0
0.3 1 0
0.6 1 0
0.9 1 0
1.2 1 0
1.5 1 0
1.8 1 0
2.1 1 0
2.4 1 0
2.7 1 0
3 1 0
3.3 1 0
3.6 1 0
3.9 1 0
4.2 1 0
4.5 1 0
4.8 1 0
5.1 1 0
5.4 1 0
5.7 1 0
6 1 0
6.3 1 0
6.6 1 0
6.9 1 0
7.2 1 0
7.5 1 0
7.8 1 0
8.1 1 0
8.4 1 0
8.7 1 0
9 1 0
9.3 1 0
9.6 1 0
9.9 1 0
10.2 1 0
10.5 1 0
10.8 1 0
11.1 1 0
11.4 1 0
11.7 1 0
12 1 0
12.3 1 0
12.6 1 0
12.9 1 0
13.2 1 0
13.5 1 0
13.8 1 0
14.1 1 0
14.4 1 0
14.7 1 0
15 1 0
15.3 1 0
15.6 1 0
15.9 1 0
16.2 1 0
16.5 1 0
16.8 1 0
17.1 1 0
17.4 1 0
17.7 1 0
18 1 0
18.3 1 0
18.6 1 0
18.9 1 0
19.2 1 0
19.5 1 0
19.8 1 0
20.1 1 0
20.4 1 0
20.7 1 0
21 1 0
21.3 1 0
21.6 1 0
21.9 1 0
22.2 1 0
22.5 1 0
22.8 1 0
23.1 1 0
23.4 1 0
23.7 1 0
24 1 0
24.3 1 0
24.6 1 0
24.9 1 0
25.2 1 0
25.5 1 0
25.8 1 0
26.1 1 0
26.4 1 0
26.7 1 0
27 1 0
27.3 1 0
27.6 1 0
27.9 1 0
28.2 1 0
28.5 1 0
28.8 1 0
29.1 1 0
29.4 1 0
29.7 1 0
30 1 0
30.3 1 0
0 1.1 0
0.3 1.1 0
0.6 1.1 0
0.9 1.1 0
1.2 1.1 0
1.5 1.1 0
1.8 1.1 0
2.1 1.1 0
2.4 1.1 0
2.7 1.1 0
3 1.1 0
3.3 1.1 0
3.6 1.1 0
3.9 1.1 0
4.2 1.1 0
4.5 1.1 0
4.8 1.1 0
5.1 1.1 0
5.4 1.1 0
5.7 1.1 0
6 1.1 0
6.3 1.1 0
6.6 1.1 0
6.9 1.1 0
7.2 1.1 0
7.5 1.1 0
7.8 1.1 0
8.1 1.1 0
8.4 1.1 0
8.7 1.1 0
9 1.1 0
9.3 1.1 0
9.6 1.1 0
9.9 1.1 0
10.2 1.1 0
10.5 1.1 0
10.8 1.1 0
11.1 1.1 0
11.4 1.1 0
11.7 1.1 0
12 1.1 0
12.3 1.1 0
12.6 1.1 0
12.9 1.1 0
13.2 1.1 0
13.5 1.1 0
13.8 1.1 0
14.1 1.1 0
14.4 1.1 0
14.7 1.1 0
15 1.1 0
15.3 1.1 0
15.6 1.1 0
15.9 1.1 0
16.2 1.1 0
16.5 1.1 0
16.8 1.1 0
17.1 1.1 0
17.4 1.1 0
17.7 1.1 0
18 1.1 0
18.3 1.1 0
18.6 1.1 0
18.9 1.1 0
19.2 1.1 0
19.5 1.1 0
19.8 1.1 0
20.1 1.1 0
20.4 1.1 0
20.7 1.1 0
21 1.1 0
21.3 1.1 0
21.6 1.1 0
21.9 1.1 0
22.2 1.1 0
22.5 1.1 0
22.8 1.1 0
23.1 1.1 0
23.4 1.1 0
23.7 1.1 0
24 1.1 0
24.3 1.1 0
24.6 1.1 0
24.9 1.1 0
25.2 1.1 0
25.5 1.1 0
25.8 1.1 0
26.1 1.1 0
26.4 1.1 0
26.7 1.1 0
27 1.1 0
27.3 1.1 0
27.6 1.1 0
27.9 1.1 0
28.2 1.1 0
28.5 1.1 0
28.8 1.1 0
29.1 1.1 0
29.4 1.1 0
29.7 1.1 0
30 1.1 0
30.3 1.1 0

POINT_DATA 1224

SCALARS pressure double
LOOKUP_TABLE pressure
1.31577
1.31577
1.24926
1.20218
1.15923
1.11957
1.08355
1.05117
1.02207
0.995728
0.971617
0.949264
0.928292
0.908411
0.889405
0.871115
0.853424
0.836243
0.819503
0.803153
0.78715
0.771458
0.756048
0.740896
0.725978
0.711277
0.696775
0.682457
0.668309
0.654318
0.640473
0.626764
0.613181
0.599716
0.58636
0.573106
0.559947
0.546878
0.533891
0.520981
0.508144
0.495375
0.482669
0.470023
0.457432
0.444892
0.432402
0.419957
0.407555
0.395192
0.382867
0.370577
0.35832
0.346094
0.333897
0.321727
0.309582
0.297461
0.285362
0.273284
0.261225
0.249185
0.237162
0.225156
0.213164
0.201186
0.189222
0.177271
0.165331
0.153401
0.141483
0.129573
0.117673
0.105782
0.0938979
0.0820216
0.0701522
0.0582894
0.0464327
0.0345818
0.0227363
0.0108958
-0.000939972
-0.0127713
-0.0245984
-0.0364217
-0.0482413
-0.0600574
-0.0718704
-0.0836803
-0.0954874
-0.107292
-0.119094
-0.130893
-0.142691
-0.154486
-0.16628
-0.178072
-0.189861
-0.20165
-0.213437
0.213437
1.31577
1.31577
1.24926
1.20218
1.15923
1.11957
1.08355
1.05117
1.02207
0.995728
0.971617
0.949264
0.928292
0.908411
0.889405
0.871115
0.853424
0.836243
0.819503
0.803153
0.78715
0.771458
0.756048
0.740896
0.725978
0.711277
0.696775
0.682457
0.668309
0.654318
0.640473
0.626764
0.613181
0.599716
0.58636
0.573106
0.559947
0.546878
0.533891
0.520981
0.508144
0.495375
0.482669
0.470023
0.457432
0.444892
0.432402
0.419957
0.407555
0.395192
0.382867
0.370577
0.35832
0.346094
0.333897
0.321727
0.309582
0.297461
0.285362
0.273284
0.261225
0.249185
0.237162
0.225156
0.213164
0.201186
0.189222
0.177271
0.165331
0.153401
0.141483
0.129573
0.117673
0.105782
0.0938979
0.0820216
0.0701522
0.0582894
0.0464327
0.0345818
0.0227363
0.0108958
-0.000939972
-0.0127713
-0.0245984
-0.0364217
-0.0482413
-0.0600574
-0.0718704
-0.0836803
-0.0954874
-0.107292
-0.119094
-0.130893
-0.142691
-0.154486
-0.16628
-0.178072
-0.189861
-0.20165
-0.213437
0.213437
1.29512
1.29512
1.24746
1.2025
1.15995
1.12034
1.08425
1.05176
1.02254
0.996098
0.971903
0.949485
0.928465
0.908548
0.889516
0.871207
0.853501
0.836309
0.819561
0.803204
0.787195
0.771498
0.756084
0.740928
0.726008
0.711304
0.6968
0.68248
0.66833
0.654337
0.640491
0.62678
0.613196
0.59973
0.586373
0.573118
0.559959
0.546888
0.5339
0.52099
0.508153
0.495383
0.482676
0.470029
0.457438
0.444898
0.432407
0.419962
0.407559
0.395197
0.382872
0.370581
0.358324
0.346098
0.3339
0.32173
0.309585
0.297463
0.285364
0.273286
0.261227
0.249187
0.237164
0.225157
0.213166
0.201188
0.189224
0.177272
0.165332
0.153403
0.141484
0.129575
0.117674
0.105783
0.0938988
0.0820224
0.070153
0.0582901
0.0464334
0.0345824
0.0227369
0.0108963
-0.000939455
-0.0127708
-0.024598
-0.0364213
-0.0482409
-0.0600571
-0.07187
-0.08368
-0.0954871
-0.107292
-0.119094
-0.130893
-0.142691
-0.154486
-0.16628
-0.178071
-0.189861
-0.20165
-0.213437
0.213437
1.28073
1.28073
1.24496
1.20289
1.16108
1.12161
1.08543
1.05275
1.02333
0.996704
0.972359
0.949826
0.928721
0.908742
0.889666
0.871325
0.853597
0.836388
0.819627
0.80326
0.787243
0.77154
0.756122
0.740961
0.726038
0.711331
0.696824
0.682501
0.668349
0.654355
0.640507
0.626795
0.61321
0.599742
0.586384
0.573129
0.559968
0.546897
0.533909
0.520998
0.50816
0.495389
0.482683
0.470035
0.457443
0.444903
0.432412
0.419966
0.407563
0.3952
0.382875
0.370585
0.358327
0.346101
0.333903
0.321732
0.309587
0.297465
0.285366
0.273288
0.261229
0.249189
0.237166
0.225159
0.213167
0.201189
0.189225
0.177273
0.165333
0.153404
0.141485
0.129575
0.117675
0.105783
0.0938995
0.082023
0.0701536
0.0582907
0.0464339
0.0345829
0.0227373
0.0108968
-0.000939042
-0.0127704
-0.0245976
-0.0364209
-0.0482406
-0.0600568
-0.0718697
-0.0836797
-0.0954868
-0.107291
-0.119093
-0.130893
-0.14269
-0.154486
-0.166279
-0.178071
-0.189861
-0.201649
-0.213433
0.213433
1.27205
1.27205
1.24294
1.20314
1.162
1.12269
1.08646
1.05364
1.02406
0.997283
0.972807
0.950171
0.928987
0.90895
0.889831
0.871458
0.853706
0.836479
0.819705
0.803327
0.787301
0.771591
0.756167
0.741001
0.726073
0.711363
0.696853
0.682527
0.668373
0.654376
0.640526
0.626813
0.613226
0.599757
0.586398
0.573141
0.55998
0.546908
0.533918
0.521007
0.508168
0.495397
0.48269
0.470042
0.457449
0.444909
0.432417
0.419971
0.407568
0.395205
0.382879
0.370588
0.358331
0.346104
0.333906
0.321735
0.30959
0.297468
0.285368
0.27329
0.261231
0.249191
0.237167
0.22516
0.213168
0.201191
0.189226
0.177274
0.165334
0.153405
0.141486
0.129576
0.117676
0.105784
0.0939003
0.0820238
0.0701543
0.0582914
0.0464346
0.0345835
0.0227379
0.0108973
-0.000938564
-0.01277
-0.0245972
-0.0364205
-0.0482402
-0.0600564
-0.0718694
-0.0836794
-0.0954866
-0.107291
-0.119093
-0.130893
-0.14269
-0.154486
-0.166279
-0.178071
-0.189861
-0.201648
-0.213428
0.213428
1.26797
1.26797
1.24186
1.20326
1.1625
1.12328
1.08703
1.05415
1.02448
0.997618
0.973072
0.950379
0.92915
0.90908
0.889936
0.871546
0.853779
0.836541
0.819758
0.803374
0.787343
0.771628
0.756199
0.741031
0.7261
0.711387
0.696874
0.682547
0.66839
0.654392
0.640541
0.626827
0.613239
0.599769
0.586409
0.573151
0.559989
0.546916
0.533926
0.521014
0.508175
0.495403
0.482695
0.470047
0.457454
0.444914
0.432422
0.419975
0.407572
0.395208
0.382882
0.370591
0.358333
0.346106
0.333908
0.321737
0.309592
0.29747
0.28537
0.273292
0.261233
0.249192
0.237169
0.225162
0.21317
0.201192
0.189227
0.177275
0.165335
0.153406
0.141487
0.129577
0.117677
0.105785
0.0939009
0.0820244
0.0701549
0.0582919
0.0464351
0.034584
0.0227383
0.0108977
-0.000938184
-0.0127696
-0.0245969
-0.0364202
-0.0482399
-0.0600561
-0.0718692
-0.0836792
-0.0954863
-0.107291
-0.119093
-0.130893
-0.14269
-0.154486
-0.166279
-0.178071
-0.18986
-0.201647
-0.213423
0.213423
1.26797
1.26797
1.24186
1.20326
1.1625
1.12328
1.08703
1.05414
1.02448
0.997618
0.973072
0.950379
0.92915
0.90908
0.889937
0.871546
0.853779
0.836541
0.819758
0.803374
0.787343
0.771628
0.756199
0.741031
0.7261
0.711387
0.696874
0.682547
0.66839
0.654392
0.640541
0.626827
0.613239
0.599769
0.586409
0.573151
0.559989
0.546916
0.533926
0.521014
0.508175
0.495403
0.482695
0.470047
0.457454
0.444914
0.432422
0.419975
0.407572
0.395208
0.382882
0.370591
0.358333
0.346106
0.333908
0.321737
0.309592
0.29747
0.28537
0.273292
0.261233
0.249192
0.237169
0.225162
0.21317
0.201192
0.189227
0.177275
0.165335
0.153406
0.141487
0.129577
0.117677
0.105785
0.0939009
0.0820244
0.0701549
0.0582919
0.0464351
0.034584
0.0227383
0.0108977
-0.000938184
-0.0127696
-0.0245969
-0.0364202
-0.0482399
-0.0600561
-0.0718692
-0.0836792
-0.0954863
-0.107291
-0.119093
-0.130893
-0.14269
-0.154486
-0.166279
-0.178071
-0.18986
-0.201647
-0.213423
0.213423
1.27205
1.27205
1.24294
1.20314
1.162
1.12269
1.08646
1.05364
1.02406
0.997283
0.972808
0.950171
0.928987
0.90895
0.889831
0.871459
0.853706
0.836479
0.819705
0.803327
0.787301
0.771591
0.756167
0.741001
0.726073
0.711363
0.696853
0.682527
0.668373
0.654376
0.640526
0.626813
0.613226
0.599757
0.586398
0.573141
0.55998
0.546908
0.533918
0.521007
0.508168
0.495397
0.48269
0.470042
0.457449
0.444909
0.432417
0.419971
0.407568
0.395205
0.382879
0.370588
0.358331
0.346104
0.333906
0.321735
0.30959
0.297468
0.285368
0.27329
0.261231
0.249191
0.237167
0.22516
0.213168
0.201191
0.189226
0.177274
0.165334
0.153405
0.141486
0.129576
0.117676
0.105784
0.0939003
0.0820238
0.0701543
0.0582914
0.0464346
0.0345835
0.0227379
0.0108973
-0.000938564
-0.01277
-0.0245972
-0.0364205
-0.0482402
-0.0600564
-0.0718694
-0.0836794
-0.0954866
-0.107291
-0.119093
-0.130893
-0.14269
-0.154486
-0.166279
-0.178071
-0.189861
-0.201648
-0.213428
0.213428
1.28074
1.28074
1.24496
1.20289
1.16108
1.12161
1.08543
1.05275
1.02333
0.996704
0.972359
0.949826
0.92872
0.908742
0.889666
0.871325
0.853597
0.836388
0.819627
0.80326
0.787243
0.77154
0.756122
0.740961
0.726038
0.711331
0.696824
0.682501
0.668349
0.654355
0.640507
0.626795
0.61321
0.599742
0.586384
0.573129
0.559968
0.546897
0.533909
0.520998
0.50816
0.495389
0.482683
0.470035
0.457443
0.444903
0.432412
0.419966
0.407563
0.3952
0.382875
0.370585
0.358327
0.346101
0.333903
0.321732
0.309587
0.297465
0.285366
0.273288
0.261229
0.249189
0.237166
0.225159
0.213167
0.201189
0.189225
0.177273
0.165333
0.153404
0.141485
0.129575
0.117675
0.105783
0.0938995
0.082023
0.0701536
0.0582907
0.0464339
0.0345829
0.0227373
0.0108968
-0.000939042
-0.0127704
-0.0245976
-0.0364209
-0.0482406
-0.0600568
-0.0718697
-0.0836797
-0.0954868
-0.107291
-0.119093
-0.130893
-0.14269
-0.154486
-0.166279
-0.178071
-0.189861
-0.201649
-0.213433
0.213433
1.29512
1.29512
1.24746
1.2025
1.15995
1.12034
1.08425
1.05176
1.02254
0.996098
0.971903
0.949486
0.928465
0.908548
0.889516
0.871207
0.853501
0.836309
0.819561
0.803204
0.787195
0.771498
0.756084
0.740928
0.726008
0.711304
0.6968
0.68248
0.66833
0.654337
0.640491
0.62678
0.613196
0.59973
0.586373
0.573118
0.559959
0.546888
0.5339
0.52099
0.508153
0.495383
0.482676
0.470029
0.457438
0.444898
0.432407
0.419962
0.407559
0.395197
0.382872
0.370581
0.358324
0.346098
0.3339
0.32173
0.309585
0.297463
0.285364
0.273286
0.261227
0.249187
0.237164
0.225157
0.213166
0.201188
0.189224
0.177272
0.165332
0.153403
0.141484
0.129575
0.117674
0.105783
0.0938988
0.0820224
0.070153
0.0582901
0.0464334
0.0345824
0.0227369
0.0108963
-0.000939455
-0.0127708
-0.024598
-0.0364213
-0.0482409
-0.0600571
-0.07187
-0.08368
-0.0954871
-0.107292
-0.119094
-0.130893
-0.142691
-0.154486
-0.16628
-0.178071
-0.189861
-0.20165
-0.213437
0.213437
1.31577
1.31577
1.24926
1.20218
1.15923
1.11957
1.08355
1.05117
1.02207
0.995728
0.971617
0.949265
0.928292
0.908411
0.889405
0.871115
0.853424
0.836243
0.819503
0.803153
0.78715
0.771458
0.756048
0.740896
0.725978
0.711277
0.696775
0.682457
0.668309
0.654318
0.640473
0.626764
0.613181
0.599716
0.58636
0.573106
0.559947
0.546878
0.533891
0.520981
0.508144
0.495375
0.482669
0.470023
0.457432
0.444892
0.432402
0.419957
0.407555
0.395192
0.382867
0.370577
0.35832
0.346094
0.333897
0.321727
0.309582
0.297461
0.285362
0.273284
0.261225
0.249185
0.237162
0.225156
0.213164
0.201186
0.189222
0.177271
0.165331
0.153401
0.141483
0.129573
0.117673
0.105782
0.0938979
0.0820216
0.0701522
0.0582894
0.0464327
0.0345818
0.0227363
0.0108958
-0.000939972
-0.0127713
-0.0245984
-0.0364217
-0.0482413
-0.0600574
-0.0718704
-0.0836803
-0.0954874
-0.107292
-0.119094
-0.130893
-0.142691
-0.154486
-0.16628
-0.178072
-0.189861
-0.20165
-0.213437
0.213437
1.31577
1.31577
1.24926
1.20218
1.15923
1.11957
1.08355
1.05117
1.02207
0.995728
0.971617
0.949265
0.928292
0.908411
0.889405
0.871115
0.853424
0.836243
0.819503
0.803153
0.78715
0.771458
0.756048
0.740896
0.725978
0.711277
0.696775
0.682457
0.668309
0.654318
0.640473
0.626764
0.613181
0.599716
0.58636
0.573106
0.559947
0.546878
0.533891
0.520981
0.508144
0.495375
0.482669
0.470023
0.457432
0.444892
0.432402
0.419957
0.407555
0.395192
0.382867
0.370577
0.35832
0.346094
0.333897
0.321727
0.309582
0.297461
0.285362
0.273284
0.261225
0.249185
0.237162
0.225156
0.213164
0.201186
0.189222
0.177271
0.165331
0.153401
0.141483
0.129573
0.117673
0.105782
0.0938979
0.0820216
0.0701522
0.0582894
0.0464327
0.0345818
0.0227363
0.0108958
-0.000939972
-0.0127713
-0.0245984
-0.0364217
-0.0482413
-0.0600574
-0.0718704
-0.0836803
-0.0954874
-0.107292
-0.119094
-0.130893
-0.142691
-0.154486
-0.16628
-0.178072
-0.189861
-0.20165
-0.213437
0.213437
SCALARS phi double
LOOKUP_TABLE phi
1
1
1
0.999995
0.999977
0.999931
0.999833
0.999655
0.999364
0.998929
0.998323
0.997523
0.996512
0.995279
0.993815
0.992118
0.990189
0.988032
0.985652
0.983059
0.980261
0.97727
0.974097
0.970755
0.967257
0.963614
0.95984
0.955947
0.951946
0.94785
0.943668
0.939411
0.93509
0.930713
0.92629
0.921827
0.917334
0.912815
0.908276
0.903721
0.899152
0.894568
0.889968
0.885344
0.880691
0.875995
0.871245
0.866424
0.861513
0.856495
0.851348
0.846052
0.840587
0.834931
0.829066
0.822974
0.81664
0.810049
0.80319
0.796054
0.788634
0.780927
0.772931
0.764646
0.756076
0.747227
0.738106
0.728721
0.719084
0.709207
0.699104
0.688788
0.678276
0.667582
0.656723
0.645717
0.634578
0.623325
0.611974
0.60054
0.589041
0.577491
0.565906
0.554301
0.542689
0.531083
0.519497
0.507943
0.496432
0.484974
0.473579
0.462258
0.451018
0.439868
0.428813
0.417868
0.407009
0.396348
0.385518
0.375822
0.362675
0.362675
1
1
1
0.999995
0.999977
0.999931
0.999833
0.999655
0.999364
0.998929
0.998323
0.997523
0.996512
0.995279
0.993815
0.992118
0.990189
0.988032
0.985652
0.983059
0.980261
0.97727
0.974097
0.970755
0.967257
0.963614
0.95984
0.955947
0.951946
0.94785
0.943668
0.939411
0.93509
0.930713
0.92629
0.921827
0.917334
0.912815
0.908276
0.903721
0.899152
0.894568
0.889968
0.885344
0.880691
0.875995
0.871245
0.866424
0.861513
0.856495
0.851348
0.846052
0.840587
0.834931
0.829066
0.822974
0.81664
0.810049
0.80319
0.796054
0.788634
0.780927
0.772931
0.764646
0.756076
0.747227
0.738106
0.728721
0.719084
0.709207
0.699104
0.688788
0.678276
0.667582
0.656723
0.645717
0.634578
0.623325
0.611974
0.60054
0.589041
0.577491
0.565906
0.554301
0.542689
0.531083
0.519497
0.507943
0.496432
0.484974
0.473579
0.462258
0.451018
0.439868
0.428813
0.417868
0.407009
0.396348
0.385518
0.375822
0.362675
0.362675
0.999998
1
0.999984
0.999921
0.999783
0.999536
0.999146
0.99858
0.997812
0.996819
0.99559
0.994116
0.992397
0.990437
0.98824
0.985817
0.983177
0.980333
0.977297
0.974081
0.9707
0.967166
0.963491
0.95969
0.955773
0.951752
0.947639
0.943445
0.939179
0.93485
0.930469
0.926042
0.921579
0.917086
0.912571
0.908039
0.903495
0.898947
0.894397
0.889851
0.885311
0.880779
0.876256
0.871742
0.867234
0.862729
0.85822
0.853701
0.849161
0.844589
0.839973
0.835299
0.830551
0.825713
0.82077
0.815706
0.810504
0.805149
0.799626
0.793922
0.788026
0.781926
0.775614
0.769082
0.762325
0.75534
0.748124
0.740678
0.733003
0.725103
0.716981
0.708644
0.700099
0.691354
0.682418
0.673302
0.664016
0.654572
0.644981
0.635256
0.625408
0.61545
0.605395
0.595255
0.585042
0.574769
0.564447
0.554087
0.543701
0.5333
0.522894
0.512493
0.502106
0.491743
0.481409
0.471125
0.460856
0.450749
0.440347
0.431191
0.4182
0.4182
1.00001
0.999992
0.99954
0.998615
0.997207
0.995317
0.992955
0.990145
0.986922
0.983332
0.979422
0.975241
0.970836
0.966248
0.961513
0.956664
0.951728
0.946728
0.941682
0.936608
0.931519
0.926427
0.92134
0.916268
0.911216
0.906189
0.901193
0.896232
0.891307
0.886422
0.881579
0.87678
0.872025
0.867316
0.862654
0.85804
0.853473
0.848955
0.844486
0.840065
0.835693
0.83137
0.827094
0.822865
0.818682
0.814543
0.810444
0.806383
0.802355
0.798356
0.794379
0.790417
0.786462
0.782507
0.77854
0.774553
0.770534
0.766472
0.762356
0.758174
0.753915
0.749568
0.745122
0.740567
0.735894
0.731093
0.726156
0.721076
0.715848
0.710466
0.704926
0.699225
0.693361
0.687333
0.681141
0.674786
0.66827
0.661596
0.654767
0.647786
0.64066
0.633393
0.625991
0.61846
0.610808
0.603041
0.595166
0.58719
0.579122
0.570968
0.562737
0.554436
0.546071
0.537653
0.529184
0.520684
0.512116
0.503631
0.494775
0.487024
0.475699
0.475699
1.00143
0.99857
0.991253
0.98188
0.971566
0.96086
0.950051
0.939311
0.928756
0.918468
0.908503
0.898898
0.889671
0.880827
0.87236
0.864261
0.856513
0.849098
0.841997
0.835192
0.828664
0.822396
0.816369
0.810568
0.80498
0.799588
0.794382
0.789348
0.784477
0.779758
0.775181
0.770738
0.766422
0.762224
0.758139
0.754159
0.75028
0.746495
0.7428
0.739191
0.735663
0.732212
0.728834
0.725527
0.722286
0.719109
0.715992
0.712932
0.709927
0.706971
0.704063
0.701197
0.69837
0.695577
0.692813
0.690074
0.687352
0.684643
0.681939
0.679234
0.676522
0.673793
0.671042
0.668261
0.665442
0.662577
0.659659
0.65668
0.653634
0.650513
0.647312
0.644023
0.640642
0.637162
0.63358
0.629891
0.626092
0.622178
0.618149
0.614001
0.609733
0.605344
0.600834
0.596202
0.59145
0.586578
0.581587
0.576479
0.571256
0.565921
0.560476
0.554924
0.549267
0.543511
0.537655
0.531714
0.525654
0.519599
0.513179
0.507559
0.499129
0.499129
1.0456
0.954401
0.887723
0.838674
0.801641
0.772861
0.749886
0.731119
0.715499
0.702298
0.691001
0.681228
0.672693
0.665173
0.658493
0.652515
0.647126
0.642236
0.637772
0.633673
0.629891
0.626382
0.623115
0.620059
0.61719
0.614489
0.611936
0.609518
0.607221
0.605034
0.602947
0.60095
0.599038
0.597202
0.595437
0.593737
0.592097
0.590514
0.588983
0.587501
0.586064
0.58467
0.583315
0.581999
0.580717
0.579469
0.578252
0.577065
0.575905
0.574772
0.573662
0.572575
0.57151
0.570463
0.569433
0.568418
0.567415
0.566423
0.565439
0.56446
0.563482
0.562503
0.561518
0.560526
0.55952
0.558498
0.557455
0.556386
0.555288
0.554155
0.552984
0.551768
0.550504
0.549186
0.547811
0.546373
0.544868
0.543292
0.541641
0.539911
0.538097
0.536197
0.534206
0.532123
0.529943
0.527665
0.525285
0.522802
0.520214
0.517519
0.514716
0.511803
0.50878
0.505646
0.502398
0.499045
0.495559
0.492023
0.488186
0.484814
0.479572
0.479572
-0.0455988
0.0455988
0.112277
0.161326
0.198359
0.227139
0.250114
0.268881
0.284501
0.297702
0.308999
0.318772
0.327307
0.334827
0.341507
0.347485
0.352874
0.357764
0.362228
0.366327
0.370109
0.373618
0.376885
0.379941
0.38281
0.385511
0.388064
0.390482
0.392779
0.394966
0.397053
0.399049
0.400962
0.402798
0.404563
0.406263
0.407903
0.409486
0.411017
0.412499
0.413936
0.41533
0.416685
0.418001
0.419282
0.42053
0.421747
0.422933
0.424091
0.425222
0.426328
0.427409
0.428466
0.4295
0.430513
0.431503
0.432473
0.433422
0.43435
0.435258
0.436144
0.437009
0.437852
0.438673
0.439469
0.44024
0.440984
0.4417
0.442386
0.44304
0.443659
0.444241
0.444784
0.445284
0.445739
0.446146
0.4465
0.4468
0.44704
0.447218
0.447331
0.447373
0.447343
0.447234
0.447045
0.446771
0.446409