# vtk DataFile Version 3.0
FlowField
ASCII
DATASET STRUCTURED_GRID
DIMENSIONS 22 17 12 
POINTS 4488 double
0 0 0
0.1 0 0
0.2 0 0
0.3 0 0
0.4 0 0
0.5 0 0
0.6 0 0
0.7 0 0
0.8 0 0
0.9 0 0
1 0 0
1.1 0 0
1.2 0 0
1.3 0 0
1.4 0 0
1.5 0 0
1.6 0 0
1.7 0 0
1.8 0 0
1.9 0 0
2 0 0
2.1 0 0
0 0.1 0
0.1 0.1 0
0.2 0.1 0
0.3 0.1 0
0.4 0.1 0
0.5 0.1 0
0.6 0.1 0
0.7 0.1 0
0.8 0.1 0
0.9 0.1 0
1 0.1 0
1.1 0.1 0
1.2 0.1 0
1.3 0.1 0
1.4 0.1 0
1.5 0.1 0
1.6 0.1 0
1.7 0.1 0
1.8 0.1 0
1.9 0.1 0
2 0.1 0
2.1 0.1 0
0 0.2 0
0.1 0.2 0
0.2 0.2 0
0.3 0.2 0
0.4 0.2 0
0.5 0.2 0
0.6 0.2 0
0.7 0.2 0
0.8 0.2 0
0.9 0.2 0
1 0.2 0
1.1 0.2 0
1.2 0.2 0
1.3 0.2 0
1.4 0.2 0
1.5 0.2 0
1.6 0.2 0
1.7 0.2 0
1.8 0.2 0
1.9 0.2 0
2 0.2 0
2.1 0.2 0
0 0.3 0
0.1 0.3 0
0.2 0.3 0
0.3 0.3 0
0.4 0.3 0
0.5 0.3 0
0.6 0.3 0
0.7 0.3 0
0.8 0.3 0
0.9 0.3 0
1 0.3 0
1.1 0.3 0
1.2 0.3 0
1.3 0.3 0
1.4 0.3 0
1.5 0.3 0
1.6 0.3 0
1.7 0.3 0
1.8 0.3 0
1.9 0.3 0
2 0.3 0
2.1 0.3 0
0 0.4 0
0.1 0.4 0
0.2 0.4 0
0.3 0.4 0
0.4 0.4 0
0.5 0.4 0
0.6 0.4 0
0.7 0.4 0
0.8 0.4 0
0.9 0.4 0
1 0.4 0
1.1 0.4 0
1.2 0.4 0
1.3 0.4 0
1.4 0.4 0
1.5 0.4 0
1.6 0.4 0
1.7 0.4 0
1.8 0.4 0
1.9 0.4 0
2 0.4 0
2.1 0.4 0
0 0.5 0
0.1 0.5 0
0.2 0.5 0
0.3 0.5 0
0.4 0.5 0
0.5 0.5 0
0.6 0.5 0
0.7 0.5 0
0.8 0.5 0
0.9 0.5 0
1 0.5 0
1.1 0.5 0
1.2 0.5 0
1.3 0.5 0
1.4 0.5 0
1.5 0.5 0
1.6 0.5 0
1.7 0.5 0
1.8 0.5 0
1.9 0.5 0
2 0.5 0
2.1 0.5 0
0 0.6 0
0.1 0.6 0
0.2 0.6 0
0.3 0.6 0
0.4 0.6 0
0.5 0.6 0
0.6 0.6 0
0.7 0.6 0
0.8 0.6 0
0.9 0.6 0
1 0.6 0
1.1 0.6 0
1.2 0.6 0
1.3 0.6 0
1.4 0.6 0
1.5 0.6 0
1.6 0.6 0
1.7 0.6 0
1.8 0.6 0
1.9 0.6 0
2 0.6 0
2.1 0.6 0
0 0.7 0
0.1 0.7 0
0.2 0.7 0
0.3 0.7 0
0.4 0.7 0
0.5 0.7 0
0.6 0.7 0
0.7 0.7 0
0.8 0.7 0
0.9 0.7 0
1 0.7 0
1.1 0.7 0
1.2 0.7 0
1.3 0.7 0
1.4 0.7 0
1.5 0.7 0
1.6 0.7 0
1.7 0.7 0
1.8 0.7 0
1.9 0.7 0
2 0.7 0
2.1 0.7 0
0 0.8 0
0.1 0.8 0
0.2 0.8 0
0.3 0.8 0
0.4 0.8 0
0.5 0.8 0
0.6 0.8 0
0.7 0.8 0
0.8 0.8 0
0.9 0.8 0
1 0.8 0
1.1 0.8 0
1.2 0.8 0
1.3 0.8 0
1.4 0.8 0
1.5 0.8 0
1.6 0.8 0
1.7 0.8 0
1.8 0.8 0
1.9 0.8 0
2 0.8 0
2.1 0.8 0
0 0.9 0
0.1 0.9 0
0.2 0.9 0
0.3 0.9 0
0.4 0.9 0
0.5 0.9 0
0.6 0.9 0
0.7 0.9 0
0.8 0.9 0
0.9 0.9 0
1 0.9 0
1.1 0.9 0
1.2 0.9 0
1.3 0.9 0
1.4 0.9 0
1.5 0.9 0
1.6 0.9 0
1.7 0.9 0
1.8 0.9 0
1.9 0.9 0
2 0.9 0
2.1 0.9 0
0 1 0
0.1 1 0
0.2 1 0
0.3 1 0
0.4 1 0
0.5 1 0
0.6 1 0
0.7 1 0
0.8 1 0
0.9 1 0
1 1 0
1.1 1 0
1.2 1 0
1.3 1 0
1.4 1 0
1.5 1 0
1.6 1 0
1.7 1 0
1.8 1 0
1.9 1 0
2 1 0
2.1 1 0
0 1.1 0
0.1 1.1 0
0.2 1.1 0
0.3 1.1 0
0.4 1.1 0
0.5 1.1 0
0.6 1.1 0
0.7 1.1 0
0.8 1.1 0
0.9 1.1 0
1 1.1 0
1.1 1.1 0
1.2 1.1 0
1.3 1.1 0
1.4 1.1 0
1.5 1.1 0
1.6 1.1 0
1.7 1.1 0
1.8 1.1 0
1.9 1.1 0
2 1.1 0
2.1 1.1 0
0 1.2 0
0.1 1.2 0
0.2 1.2 0
0.3 1.2 0
0.4 1.2 0
0.5 1.2 0
0.6 1.2 0
0.7 1.2 0
0.8 1.2 0
0.9 1.2 0
1 1.2 0
1.1 1.2 0
1.2 1.2 0
1.3 1.2 0
1.4 1.2 0
1.5 1.2 0
1.6 1.2 0
1.7 1.2 0
1.8 1.2 0
1.9 1.2 0
2 1.2 0
2.1 1.2 0
0 1.3 0
0.1 1.3 0
0.2 1.3 0
0.3 1.3 0
0.4 1.3 0
0.5 1.3 0
0.6 1.3 0
0.7 1.3 0
0.8 1.3 0
0.9 1.3 0
1 1.3 0
1.1 1.3 0
1.2 1.3 0
1.3 1.3 0
1.4 1.3 0
1.5 1.3 0
1.6 1.3 0
1.7 1.3 0
1.8 1.3 0
1.9 1.3 0
2 1.3 0
2.1 1.3 0
0 1.4 0
0.1 1.4 0
0.2 1.4 0
0.3 1.4 0
0.4 1.4 0
0.5 1.4 0
0.6 1.4 0
0.7 1.4 0
0.8 1.4 0
0.9 1.4 0
1 1.4 0
1.1 1.4 0
1.2 1.4 0
1.3 1.4 0
1.4 1.4 0
1.5 1.4 0
1.6 1.4 0
1.7 1.4 0
1.8 1.4 0
1.9 1.4 0
2 1.4 0
2.1 1.4 0
0 1.5 0
0.1 1.5 0
0.2 1.5 0
0.3 1.5 0
0.4 1.5 0
0.5 1.5 0
0.6 1.5 0
0.7 1.5 0
0.8 1.5 0
0.9 1.5 0
1 1.5 0
1.1 1.5 0
1.2 1.5 0
1.3 1.5 0
1.4 1.5 0
1.5 1.5 0
1.6 1.5 0
1.7 1.5 0
1.8 1.5 0
1.9 1.5 0
2 1.5 0
2.1 1.5 0
0 1.6 0
0.1 1.6 0
0.2 1.6 0
0.3 1.6 0
0.4 1.6 0
0.5 1.6 0
0.6 1.6 0
0.7 1.6 0
0.8 1.6 0
0.9 1.6 0
1 1.6 0
1.1 1.6 0
1.2 1.6 0
1.3 1.6 0
1.4 1.6 0
1.5 1.6 0
1.6 1.6 0
1.7 1.6 0
1.8 1.6 0
1.9 1.6 0
2 1.6 0
2.1 1.6 0
0 0 0.1
0.1 0 0.1
0.2 0 0.1
0.3 0 0.1
0.4 0 0.1
0.5 0 0.1
0.6 0 0.1
0.7 0 0.1
0.8 0 0.1
0.9 0 0.1
1 0 0.1
1.1 0 0.1
1.2 0 0.1
1.3 0 0.1
1.4 0 0.1
1.5 0 0.1
1.6 0 0.1
1.7 0 0.1
1.8 0 0.1
1.9 0 0.1
2 0 0.1
2.1 0 0.1
0 0.1 0.1
0.1 0.1 0.1
0.2 0.1 0.1
0.3 0.1 0.1
0.4 0.1 0.1
0.5 0.1 0.1
0.6 0.1 0.1
0.7 0.1 0.1
0.8 0.1 0.1
0.9 0.1 0.1
1 0.1 0.1
1.1 0.1 0.1
1.2 0.1 0.1
1.3 0.1 0.1
1.4 0.1 0.1
1.5 0.1 0.1
1.6 0.1 0.1
1.7 0.1 0.1
1.8 0.1 0.1
1.9 0.1 0.1
2 0.1 0.1
2.1 0.1 0.1
0 0.2 0.1
0.1 0.2 0.1
0.2 0.2 0.1
0.3 0.2 0.1
0.4 0.2 0.1
0.5 0.2 0.1
0.6 0.2 0.1
0.7 0.2 0.1
0.8 0.2 0.1
0.9 0.2 0.1
1 0.2 0.1
1.1 0.2 0.1
1.2 0.2 0.1
1.3 0.2 0.1
1.4 0.2 0.1
1.5 0.2 0.1
1.6 0.2 0.1
1.7 0.2 0.1
1.8 0.2 0.1
1.9 0.2 0.1
2 0.2 0.1
2.1 0.2 0.1
0 0.3 0.1
0.1 0.3 0.1
0.2 0.3 0.1
0.3 0.3 0.1
0.4 0.3 0.1
0.5 0.3 0.1
0.6 0.3 0.1
0.7 0.3 0.1
0.8 0.3 0.1
0.9 0.3 0.1
1 0.3 0.1
1.1 0.3 0.1
1.2 0.3 0.1
1.3 0.3 0.1
1.4 0.3 0.1
1.5 0.3 0.1
1.6 0.3 0.1
1.7 0.3 0.1
1.8 0.3 0.1
1.9 0.3 0.1
2 0.3 0.1
2.1 0.3 0.1
0 0.4 0.1
0.1 0.4 0.1
0.2 0.4 0.1
0.3 0.4 0.1
0.4 0.4 0.1
0.5 0.4 0.1
0.6 0.4 0.1
0.7 0.4 0.1
0.8 0.4 0.1
0.9 0.4 0.1
1 0.4 0.1
1.1 0.4 0.1
1.2 0.4 0.1
1.3 0.4 0.1
1.4 0.4 0.1
1.5 0.4 0.1
1.6 0.4 0.1
1.7 0.4 0.1
1.8 0.4 0.1
1.9 0.4 0.1
2 0.4 0.1
2.1 0.4 0.1
0 0.5 0.1
0.1 0.5 0.1
0.2 0.5 0.1
0.3 0.5 0.1
0.4 0.5 0.1
0.5 0.5 0.1
0.6 0.5 0.1
0.7 0.5 0.1
0.8 0.5 0.1
0.9 0.5 0.1
1 0.5 0.1
1.1 0.5 0.1
1.2 0.5 0.1
1.3 0.5 0.1
1.4 0.5 0.1
1.5 0.5 0.1
1.6 0.5 0.1
1.7 0.5 0.1
1.8 0.5 0.1
1.9 0.5 0.1
2 0.5 0.1
2.1 0.5 0.1
0 0.6 0.1
0.1 0.6 0.1
0.2 0.6 0.1
0.3 0.6 0.1
0.4 0.6 0.1
0.5 0.6 0.1
0.6 0.6 0.1
0.7 0.6 0.1
0.8 0.6 0.1
0.9 0.6 0.1
1 0.6 0.1
1.1 0.6 0.1
1.2 0.6 0.1
1.3 0.6 0.1
1.4 0.6 0.1
1.5 0.6 0.1
1.6 0.6 0.1
1.7 0.6 0.1
1.8 0.6 0.1
1.9 0.6 0.1
2 0.6 0.1
2.1 0.6 0.1
0 0.7 0.1
0.1 0.7 0.1
0.2 0.7 0.1
0.3 0.7 0.1
0.4 0.7 0.1
0.5 0.7 0.1
0.6 0.7 0.1
0.7 0.7 0.1
0.8 0.7 0.1
0.9 0.7 0.1
1 0.7 0.1
1.1 0.7 0.1
1.2 0.7 0.1
1.3 0.7 0.1
1.4 0.7 0.1
1.5 0.7 0.1
1.6 0.7 0.1
1.7 0.7 0.1
1.8 0.7 0.1
1.9 0.7 0.1
2 0.7 0.1
2.1 0.7 0.1
0 0.8 0.1
0.1 0.8 0.1
0.2 0.8 0.1
0.3 0.8 0.1
0.4 0.8 0.1
0.5 0.8 0.1
0.6 0.8 0.1
0.7 0.8 0.1
0.8 0.8 0.1
0.9 0.8 0.1
1 0.8 0.1
1.1 0.8 0.1
1.2 0.8 0.1
1.3 0.8 0.1
1.4 0.8 0.1
1.5 0.8 0.1
1.6 0.8 0.1
1.7 0.8 0.1
1.8 0.8 0.1
1.9 0.8 0.1
2 0.8 0.1
2.1 0.8 0.1
0 0.9 0.1
0.1 0.9 0.1
0.2 0.9 0.1
0.3 0.9 0.1
0.4 0.9 0.1
0.5 0.9 0.1
0.6 0.9 0.1
0.7 0.9 0.1
0.8 0.9 0.1
0.9 0.9 0.1
1 0.9 0.1
1.1 0.9 0.1
1.2 0.9 0.1
1.3 0.9 0.1
1.4 0.9 0.1
1.5 0.9 0.1
1.6 0.9 0.1
1.7 0.9 0.1
1.8 0.9 0.1
1.9 0.9 0.1
2 0.9 0.1
2.1 0.9 0.1
0 1 0.1
0.1 1 0.1
0.2 1 0.1
0.3 1 0.1
0.4 1 0.1
0.5 1 0.1
0.6 1 0.1
0.7 1 0.1
0.8 1 0.1
0.9 1 0.1
1 1 0.1
1.1 1 0.1
1.2 1 0.1
1.3 1 0.1
1.4 1 0.1
1.5 1 0.1
1.6 1 0.1
1.7 1 0.1
1.8 1 0.1
1.9 1 0.1
2 1 0.1
2.1 1 0.1
0 1.1 0.1
0.1 1.1 0.1
0.2 1.1 0.1
0.3 1.1 0.1
0.4 1.1 0.1
0.5 1.1 0.1
0.6 1.1 0.1
0.7 1.1 0.1
0.8 1.1 0.1
0.9 1.1 0.1
1 1.1 0.1
1.1 1.1 0.1
1.2 1.1 0.1
1.3 1.1 0.1
1.4 1.1 0.1
1.5 1.1 0.1
1.6 1.1 0.1
1.7 1.1 0.1
1.8 1.1 0.1
1.9 1.1 0.1
2 1.1 0.1
2.1 1.1 0.1
0 1.2 0.1
0.1 1.2 0.1
0.2 1.2 0.1
0.3 1.2 0.1
0.4 1.2 0.1
0.5 1.2 0.1
0.6 1.2 0.1
0.7 1.2 0.1
0.8 1.2 0.1
0.9 1.2 0.1
1 1.2 0.1
1.1 1.2 0.1
1.2 1.2 0.1
1.3 1.2 0.1
1.4 1.2 0.1
1.5 1.2 0.1
1.6 1.2 0.1
1.7 1.2 0.1
1.8 1.2 0.1
1.9 1.2 0.1
2 1.2 0.1
2.1 1.2 0.1
0 1.3 0.1
0.1 1.3 0.1
0.2 1.3 0.1
0.3 1.3 0.1
0.4 1.3 0.1
0.5 1.3 0.1
0.6 1.3 0.1
0.7 1.3 0.1
0.8 1.3 0.1
0.9 1.3 0.1
1 1.3 0.1
1.1 1.3 0.1
1.2 1.3 0.1
1.3 1.3 0.1
1.4 1.3 0.1
1.5 1.3 0.1
1.6 1.3 0.1
1.7 1.3 0.1
1.8 1.3 0.1
1.9 1.3 0.1
2 1.3 0.1
2.1 1.3 0.1
0 1.4 0.1
0.1 1.4 0.1
0.2 1.4 0.1
0.3 1.4 0.1
0.4 1.4 0.1
0.5 1.4 0.1
0.6 1.4 0.1
0.7 1.4 0.1
0.8 1.4 0.1
0.9 1.4 0.1
1 1.4 0.1
1.1 1.4 0.1
1.2 1.4 0.1
1.3 1.4 0.1
1.4 1.4 0.1
1.5 1.4 0.1
1.6 1.4 0.1
1.7 1.4 0.1
1.8 1.4 0.1
1.9 1.4 0.1
2 1.4 0.1
2.1 1.4 0.1
0 1.5 0.1
0.1 1.5 0.1
0.2 1.5 0.1
0.3 1.5 0.1
0.4 1.5 0.1
0.5 1.5 0.1
0.6 1.5 0.1
0.7 1.5 0.1
0.8 1.5 0.1
0.9 1.5 0.1
1 1.5 0.1
1.1 1.5 0.1
1.2 1.5 0.1
1.3 1.5 0.1
1.4 1.5 0.1
1.5 1.5 0.1
1.6 1.5 0.1
1.7 1.5 0.1
1.8 1.5 0.1
1.9 1.5 0.1
2 1.5 0.1
2.1 1.5 0.1
0 1.6 0.1
0.1 1.6 0.1
0.2 1.6 0.1
0.3 1.6 0.1
0.4 1.6 0.1
0.5 1.6 0.1
0.6 1.6 0.1
0.7 1.6 0.1
0.8 1.6 0.1
0.9 1.6 0.1
1 1.6 0.1
1.1 1.6 0.1
1.2 1.6 0.1
1.3 1.6 0.1
1.4 1.6 0.1
1.5 1.6 0.1
1.6 1.6 0.1
1.7 1.6 0.1
1.8 1.6 0.1
1.9 1.6 0.1
2 1.6 0.1
2.1 1.6 0.1
0 0 0.2
0.1 0 0.2
0.2 0 0.2
0.3 0 0.2
0.4 0 0.2
0.5 0 0.2
0.6 0 0.2
0.7 0 0.2
0.8 0 0.2
0.9 0 0.2
1 0 0.2
1.1 0 0.2
1.2 0 0.2
1.3 0 0.2
1.4 0 0.2
1.5 0 0.2
1.6 0 0.2
1.7 0 0.2
1.8 0 0.2
1.9 0 0.2
2 0 0.2
2.1 0 0.2
0 0.1 0.2
0.1 0.1 0.2
0.2 0.1 0.2
0.3 0.1 0.2
0.4 0.1 0.2
0.5 0.1 0.2
0.6 0.1 0.2
0.7 0.1 0.2
0.8 0.1 0.2
0.9 0.1 0.2
1 0.1 0.2
1.1 0.1 0.2
1.2 0.1 0.2
1.3 0.1 0.2
1.4 0.1 0.2
1.5 0.1 0.2
1.6 0.1 0.2
1.7 0.1 0.2
1.8 0.1 0.2
1.9 0.1 0.2
2 0.1 0.2
2.1 0.1 0.2
0 0.2 0.2
0.1 0.2 0.2
0.2 0.2 0.2
0.3 0.2 0.2
0.4 0.2 0.2
0.5 0.2 0.2
0.6 0.2 0.2
0.7 0.2 0.2
0.8 0.2 0.2
0.9 0.2 0.2
1 0.2 0.2
1.1 0.2 0.2
1.2 0.2 0.2
1.3 0.2 0.2
1.4 0.2 0.2
1.5 0.2 0.2
1.6 0.2 0.2
1.7 0.2 0.2
1.8 0.2 0.2
1.9 0.2 0.2
2 0.2 0.2
2.1 0.2 0.2
0 0.3 0.2
0.1 0.3 0.2
0.2 0.3 0.2
0.3 0.3 0.2
0.4 0.3 0.2
0.5 0.3 0.2
0.6 0.3 0.2
0.7 0.3 0.2
0.8 0.3 0.2
0.9 0.3 0.2
1 0.3 0.2
1.1 0.3 0.2
1.2 0.3 0.2
1.3 0.3 0.2
1.4 0.3 0.2
1.5 0.3 0.2
1.6 0.3 0.2
1.7 0.3 0.2
1.8 0.3 0.2
1.9 0.3 0.2
2 0.3 0.2
2.1 0.3 0.2
0 0.4 0.2
0.1 0.4 0.2
0.2 0.4 0.2
0.3 0.4 0.2
0.4 0.4 0.2
0.5 0.4 0.2
0.6 0.4 0.2
0.7 0.4 0.2
0.8 0.4 0.2
0.9 0.4 0.2
1 0.4 0.2
1.1 0.4 0.2
1.2 0.4 0.2
1.3 0.4 0.2
1.4 0.4 0.2
1.5 0.4 0.2
1.6 0.4 0.2
1.7 0.4 0.2
1.8 0.4 0.2
1.9 0.4 0.2
2 0.4 0.2
2.1 0.4 0.2
0 0.5 0.2
0.1 0.5 0.2
0.2 0.5 0.2
0.3 0.5 0.2
0.4 0.5 0.2
0.5 0.5 0.2
0.6 0.5 0.2
0.7 0.5 0.2
0.8 0.5 0.2
0.9 0.5 0.2
1 0.5 0.2
1.1 0.5 0.2
1.2 0.5 0.2
1.3 0.5 0.2
1.4 0.5 0.2
1.5 0.5 0.2
1.6 0.5 0.2
1.7 0.5 0.2
1.8 0.5 0.2
1.9 0.5 0.2
2 0.5 0.2
2.1 0.5 0.2
0 0.6 0.2
0.1 0.6 0.2
0.2 0.6 0.2
0.3 0.6 0.2
0.4 0.6 0.2
0.5 0.6 0.2
0.6 0.6 0.2
0.7 0.6 0.2
0.8 0.6 0.2
0.9 0.6 0.2
1 0.6 0.2
1.1 0.6 0.2
1.2 0.6 0.2
1.3 0.6 0.2
1.4 0.6 0.2
1.5 0.6 0.2
1.6 0.6 0.2
1.7 0.6 0.2
1.8 0.6 0.2
1.9 0.6 0.2
2 0.6 0.2
2.1 0.6 0.2
0 0.7 0.2
0.1 0.7 0.2
0.2 0.7 0.2
0.3 0.7 0.2
0.4 0.7 0.2
0.5 0.7 0.2
0.6 0.7 0.2
0.7 0.7 0.2
0.8 0.7 0.2
0.9 0.7 0.2
1 0.7 0.2
1.1 0.7 0.2
1.2 0.7 0.2
1.3 0.7 0.2
1.4 0.7 0.2
1.5 0.7 0.2
1.6 0.7 0.2
1.7 0.7 0.2
1.8 0.7 0.2
1.9 0.7 0.2
2 0.7 0.2
2.1 0.7 0.2
0 0.8 0.2
0.1 0.8 0.2
[...]
POINT_DATA 4488

SCALARS pressure double
LOOKUP_TABLE pressure
0
0
0
0
0
0
0
0
0
0
0
0
0
0
0
0
0
0
0
0
0
0
0
106.176
106.172
106.169
106.167
106.165
106.163
106.162
106.161
106.161
106.16
106.159
106.158
106.158
106.157
106.156
106.157
106.157
106.155
106.154
106.152
0
0
106.171
106.17
106.168
106.167
106.164
106.163
106.162
106.161
106.16
106.159
106.159
106.158
106.158
106.157
106.156
106.156
106.158
106.156
106.154
106.154
0
0
106.167
106.168
106.167
106.166
106.163
106.162
106.162
106.161
106.16
106.159
106.159
106.159
106.159
106.158
106.157
106.157
106.157
106.157
106.156
106.155
0
0
106.165
106.166
106.166
106.165
106.163
106.162
106.161
106.161
106.16
106.159
106.158
106.161
106.16
106.159
106.158
106.158
106.158
106.157
106.157
106.157
0
0
106.164
106.165
106.165
106.164
106.163
106.16
106.161
106.161
106.161
106.159
106.159
106.16
106.16
106.159
106.159
106.159
106.159
106.158
106.158
106.158
0
0
106.162
106.163
106.163
106.163
106.162
106.161
106.161
106.161
106.161
106.16
106.158
106.159
106.16
106.16
106.159
106.159
106.16
106.159
106.159
106.159
0
0
106.161
106.162
106.162
106.162
106.161
106.161
106.161
106.161
106.161
106.16
106.16
106.16
106.16
106.16
106.16
106.16
106.16
106.16
106.159
106.159
0
0
106.16
106.161
106.162
106.162
106.163
106.162
106.161
106.161
106.161
106.161
106.16
106.16
106.16
106.16
106.16
106.16
106.16
106.161
106.16
106.16
0
0
106.16
106.161
106.161
106.162
106.162
106.162
106.161
106.161
106.161
106.161
106.161
106.161
106.16
106.16
106.16
106.16
106.161
106.161
106.16
106.16
0
0
106.158
106.161
106.161
106.161
106.161
106.161
106.161
106.161
106.161
106.161
106.161
106.161
106.161
106.161
106.161
106.161
106.161
106.161
106.161
106.161
0
0
106.159
106.16
106.16
106.161
106.161
106.161
106.161
106.161
106.161
106.161
106.161
106.161
106.161
106.161
106.161
106.161
106.161
106.161
106.161
106.161
0
0
106.159
106.16
106.16
106.16
106.161
106.161
106.161
106.161
106.161
106.161
106.161
106.161
106.161
106.162
106.163
106.16
106.161
106.161
106.162
106.162
0
0
106.159
106.159
106.16
106.16
106.16
106.161
106.161
106.161
106.161
106.161
106.161
106.161
106.161
106.162
106.162
106.161
106.161
106.161
106.162
106.162
0
0
106.159
106.159
106.16
106.16
106.16
106.16
106.161
106.161
106.161
106.161
106.161
106.161
106.161
106.162
106.162
106.162
106.162
106.162
106.162
106.162
0
0
106.159
106.159
106.16
106.16
106.16
106.16
106.16
106.161
106.161
106.161
106.161
106.161
106.161
106.161
106.162
106.162
106.162
106.162
106.162
106.162
0
0
0
0
0
0
0
0
0
0
0
0
0
0
0
0
0
0
0
0
0
0
0
0
106.176
106.172
106.169
106.167
106.165
106.163
106.162
106.161
106.161
106.16
106.159
106.158
106.158
106.157
106.156
106.157
106.157
106.155
106.154
106.152
0
106.176
106.176
106.172
106.169
106.167
106.165
106.163
106.162
106.161
106.161
106.16
106.159
106.158
106.158
106.157
106.156
106.157
106.157
106.155
106.154
106.152
106.152
106.171
106.171
106.17
106.168
106.167
106.164
106.163
106.162
106.161
106.16
106.159
106.159
106.158
106.158
106.157
106.156
106.156
106.158
106.156
106.154
106.154
106.154
106.167
106.167
106.168
106.167
106.166
106.163
106.162
106.162
106.161
106.16
106.159
106.159
106.159
106.159
106.158
106.157
106.157
106.157
106.157
106.156
106.155
106.155
106.165
106.165
106.166
106.166
106.165
106.163
106.162
106.161
106.161
106.16
106.159
106.158
106.161
106.16
106.159
106.158
106.158
106.158
106.157
106.157
106.157
106.157
106.164
106.164
106.165
106.165
106.164
106.163
106.16
106.161
106.161
106.161
106.159
106.159
106.16
106.16
106.159
106.159
106.159
106.159
106.158
106.158
106.158
106.158
106.162
106.162
106.163
106.163
106.163
106.162
106.161
106.161
106.161
106.161
106.16
106.158
106.159
106.16
106.16
106.159
106.159
106.16
106.159
106.159
106.159
106.159
106.161
106.161
106.162
106.162
106.162
106.161
106.161
106.161
106.161
106.161
106.16
106.16
106.16
106.16
106.16
106.16
106.16
106.16
106.16
106.159
106.159
106.159
106.16
106.16
106.161
106.162
106.162
106.163
106.162
106.161
106.161
106.161
106.161
106.16
106.16
106.16
106.16
106.16
106.16
106.16
106.161
106.16
106.16
106.16
106.16
106.16
106.161
106.161
106.162
106.162
106.162
106.161
106.161
106.161
106.161
106.161
106.161
106.16
106.16
106.16
106.16
106.161
106.161
106.16
106.16
106.16
106.158
106.158
106.161
106.161
106.161
106.161
106.161
106.161
106.161
106.161
106.161
106.161
106.161
106.161
106.161
106.161
106.161
106.161
106.161
106.161
106.161
106.161
106.159
106.159
106.16
106.16
106.161
106.161
106.161
106.161
106.161
106.161
106.161
106.161
106.161
106.161
106.161
106.161
106.161
106.161
106.161
106.161
106.161
106.161
106.159
106.159
106.16
106.16
106.16
106.161
106.161
106.161
106.161
106.161
106.161
106.161
106.161
106.161
106.162
106.163
106.16
106.161
106.161
106.162
106.162
106.162
106.159
106.159
106.159
106.16
106.16
106.16
106.161
106.161
106.161
106.161
106.161
106.161
106.161
106.161
106.162
106.162
106.161
106.161
106.161
106.162
106.162
106.162
106.159
106.159
106.159
106.16
106.16
106.16
106.16
106.161
106.161
106.161
106.161
106.161
106.161
106.161
106.162
106.162
106.162
106.162
106.162
106.162
106.162
106.162
106.159
106.159
106.159
106.16
106.16
106.16
106.16
106.16
106.161
106.161
106.161
106.161
106.161
106.161
106.161
106.162
106.162
106.162
106.162
106.162
106.162
106.162
0
106.159
106.159
106.16
106.16
106.16
106.16
106.16
106.161
106.161
106.161
106.161
106.161
106.161
106.161
106.162
106.162
106.162
106.162
106.162
106.162
0
0
106.18
106.175
106.172
106.168
106.16
106.156
106.157
106.158
106.159
106.16
106.16
106.159
106.159
106.158
106.157
106.157
106.156
106.155
106.154
106.152
0
106.18
106.18
106.175
106.172
106.168
106.16
106.156
106.157
106.158
106.159
106.16
106.16
106.159
106.159
106.158
106.157
106.157
106.156
106.155
106.154
106.152
106.152
106.174
106.174
106.173
106.171
106.168
106.162
106.157
106.156
106.157
106.159
106.159
106.159
106.159
106.159
106.158
106.157
106.157
106.157
106.155
106.154
106.153
106.153
106.171
106.171
106.171
106.17
106.167
106.163
106.159
106.157
106.157
106.158
106.158
106.159
106.159
106.159
106.158
106.158
106.157
106.157
106.156
106.156
106.155
106.155
106.168
106.168
106.168
106.168
106.167
106.164
106.16
106.158
106.157
106.157
106.158
106.158
106.159
106.159
106.159
106.158
106.158
106.158
106.157
106.157
106.157
106.157
106.166
106.166
106.167
106.167
106.166
106.164
106.162
106.159
106.158
106.158
106.158
106.158
106.159
106.159
106.159
106.159
106.158
106.158
106.158
106.158
106.158
106.158
106.165
106.165
106.165
106.165
106.165
106.164
106.163
106.161
106.159
106.158
106.158
106.158
106.158
106.159
106.159
106.159
106.159
106.159
106.159
106.159
106.158
106.158
106.163
106.163
106.164
106.164
106.164
106.164
106.163
106.162
106.161
106.16
106.159
106.158
106.158
106.159
106.159
106.159
106.159
106.159
106.159
106.159
106.159
106.159
106.162
106.162
106.163
106.163
106.164
106.164
106.163
106.162
106.162
106.161
106.16
106.159
106.159
106.159
106.159
106.159
106.159
106.159
106.16
106.159
106.159
106.159
106.161
106.161
106.162
106.163
106.163
106.163
106.163
106.162
106.162
106.161
106.161
106.16
106.16
106.16
106.16
106.16
106.16
106.16
106.16
106.16
106.16
106.16
106.16
106.16
106.161
106.162
106.162
106.162
106.162
106.162
106.162
106.162
106.161
106.161
106.161
106.16
106.16
106.16
106.16
106.16
106.16
106.16
106.16
106.16
106.16
106.16
106.161
106.161
106.162
106.162
106.162
106.162
106.162
106.162
106.162
106.161
106.161
106.161
106.161
106.161
106.16
106.16
106.16
106.161
106.161
106.161
106.16
106.16
106.16
106.161
106.161
106.161
106.161
106.162
106.162
106.162
106.161
106.161
106.161
106.161
106.161
106.161
106.161
106.161
106.161
106.161
106.161
106.161
106.159
106.159
106.16
106.16
106.161
106.161
106.161
106.161
106.161
106.161
106.161
106.161
106.161
106.161
106.162
106.161
106.161
106.161
106.161
106.161
106.161
106.161
106.159
106.159
106.16
106.16
106.16
106.161
106.161
106.161
106.161
106.161
106.161
106.161
106.161
106.161
106.162
106.162
106.162
106.162
106.162
106.162
106.162
106.162
106.16
106.16
106.16
106.16
106.16
106.16
106.16
106.161
106.161
106.161
106.161
106.161
106.161
106.161
106.162
106.162
106.162
106.162
106.162
106.162
106.162
106.162
0
106.16
106.16
106.16
106.16
106.16
106.16
106.161
106.161
106.161
106.161
106.161
106.161
106.161
106.162
106.162
106.162
106.162
106.162
106.162
106.162
0
0
106.184
106.18
106.177
106.17
106.149
106.142
106.149
106.155
106.159
106.16
106.161
106.16
106.16
106.159
106.158
106.157
106.156
106.155
106.153
106.152
0
106.184
106.184
106.18
106.177
106.17
106.149
106.142
106.149
106.155
106.159
106.16
106.161
106.16
106.16
106.159
106.158
106.157
106.156
106.155
106.153
106.152
106.152
106.178
106.178
106.177
106.175
106.171
106.159
106.146
106.148
106.153
106.157
106.159
106.16
106.16
106.159
106.159
106.158
106.157
106.156
106.155
106.154
106.153
106.153
106.174
106.174
106.174
106.173
106.171
106.164
106.153
106.149
106.152
106.155
106.158
106.159
106.159
106.159
106.159
106.158
106.158
106.157
106.156
106.156
106.155
106.155
106.171
106.171
106.171
106.171
106.17
106.166
106.158
106.152
106.152
106.154
106.156
106.158
106.159
106.159
106.159
106.158
106.158
106.158
106.157
106.157
106.156
106.156
106.169
106.169
106.169
106.169
106.169
106.167
106.162
106.156
106.153
106.153
106.155
106.156
106.157
106.158
106.158
106.158
106.158
106.158
106.158
106.158
106.157
106.157
106.167
106.167
106.167
106.168
106.168
106.167
106.164
106.16
106.157
106.155
106.155
106.155
106.156
106.157
106.158
106.158
106.158
106.158
106.158
106.158
106.158
106.158
106.165
106.165
106.166
106.166
106.167
106.166
106.165
106.163
106.16
106.158
106.156
106.156
106.156
106.157
106.157
106.158
106.158
106.159
106.159
106.159
106.158
106.158
106.164
106.164
106.164
106.165
106.165
106.165
106.165
106.164
106.162
106.161
106.159
106.158
106.157
106.157
106.158
106.158
106.158
106.159
106.159
106.159
106.159
106.159
106.163
106.163
106.163
106.164
106.164
106.164
106.164
106.164
106.163
106.162
106.161
106.16
106.159
106.158
106.158
106.159
106.159
106.159
106.159
106.159
106.159
106.159
106.162
106.162
106.162
106.163
106.163
106.163
106.163
106.163
106.163
106.163
106.162
106.161
106.161
106.16
106.159
106.159
106.159
106.159
106.16
106.16
106.16
106.16
106.161
106.161
106.162
106.162
106.162
106.163
106.163
106.163
106.163
106.162
106.162
106.162
106.162
106.161
106.16
106.16
106.16
106.16
106.16
106.16
106.16
106.16
106.161
106.161
106.161
106.161
106.162
106.162
106.162
106.162
106.162
106.162
106.162
106.162
106.162
106.161
106.161
106.161
106.161
106.161
106.16
106.16
106.16
106.16
106.16
106.16
106.161
106.161
106.161
106.161
106.162
106.162
106.162
106.162
106.162
106.162
106.162
106.162
106.162
106.162
106.161
106.161
106.161
106.161
106.161
106.161
106.16
106.16
106.16
106.161
106.161
106.161
106.161
106.161
106.161
106.161
106.161
106.161
106.161
106.162
106.162
106.162
106.162
106.161
106.161
106.161
106.162
106.162
106.16
106.16
106.16
106.16
106.16
106.161
106.161
106.161
106.161
106.161
106.161
106.161
106.161
106.161
106.161
106.162
106.162
106.162
106.162
106.162
106.162
106.162
0
106.16
106.16
106.16
106.16
106.161
106.161
106.161
106.161
106.161
106.161
106.161
106.161
106.161
106.161
106.162
106.162
106.162
106.162
106.162
106.162
0
0
106.188
106.185
106.186
106.181
106.113
106.11
106.139
106.155
106.161
106.163
106.162
106.162
106.161
106.159
106.158
106.157
106.156
106.155
106.153
106.152
0
106.188
106.188
106.185
106.186
106.181
106.113
106.11
106.139
106.155
106.161
106.163
106.162
106.162
106.161
106.159
106.158
106.157
106.156
106.155
106.153
106.152
106.152
106.181
106.181
106.181
106.182
106.18
106.16
106.119
106.132
106.149
106.158
106.161
106.162
106.161
106.16
106.159
106.158
106.158
106.156
106.155
106.154
106.154
106.154
106.177
106.177
106.177
106.178
106.178
106.17
106.138
106.134
106.144
106.153
106.158
106.16
106.161
106.16
106.16
106.159
106.158
106.157
106.156
106.156
106.155
106.155
106.173
106.173
106.174
106.175
106.176
106.172
106.153
106.139
106.141
106.148
106.154
106.158
106.159
106.16
106.159
106.159
106.158
106.158
106.157
106.157
106.156
106.156
106.171
106.171
106.171
106.173
106.175
106.174
106.164
106.15
106.144
106.145
106.15
106.154
106.157
106.158
106.159
106.159
106.158
106.158
106.158
106.158
106.157
106.157
106.168
106.168
106.169
106.17
106.172
106.172
106.168
106.16
106.152
106.148
106.149
106.151
106.154
106.156
106.157
106.158
106.158
106.158
106.158
106.158
106.158
106.158
106.167
106.167
106.167
106.168
106.169
106.17
106.169
106.167
106.161
106.155
106.151
106.151
106.153
106.155
106.156
106.157
106.158
106.158
106.158
106.158
106.158
106.158
106.165
106.165
106.166
106.166
106.167
106.168
106.168
106.167
106.164
106.161
106.159
106.156
106.154
106.154
106.155
106.157
106.158
106.158
106.158
106.158
106.158
106.158
106.164
106.164
106.164
106.165
106.165
106.166
106.166
106.166
106.166
106.165
106.162
106.159
106.157
106.156
106.157
106.158
106.158
106.158
106.158
106.159
106.158
106.158
106.163
106.163
106.163
106.164
106.164
106.164
106.165
106.165
106.165
106.164
106.163
106.162
106.162
106.16
106.159
106.157
106.157
106.158
106.159
106.16
106.159
106.159
106.162
106.162
106.162
106.163
106.163
106.163
106.164
106.164
106.164
106.163
106.163
106.163
106.163
106.161
106.159
106.158
106.159
106.159
106.16
106.16
106.159
106.159
106.161
106.161
106.162
106.162
106.162
106.163
106.163
106.163
106.163
106.163
106.163
106.163
106.162
106.161
106.161
106.161
106.161
106.16
106.16
106.159
106.16
106.16
106.161
106.161
106.161
106.162
106.162
106.162
106.162
106.162
106.162
106.162
106.162
106.162
106.162
106.162
106.162
106.162
106.161
106.161
106.16
106.159
106.161
106.161
106.161
106.161
106.161
106.161
106.161
106.161
106.161
106.162
106.162
106.162
106.162
106.162
106.162
106.162
106.162
106.162
106.162
106.161
106.161
106.161
106.162
106.162
106.161
106.161
106.161
106.161
106.161
106.161
106.161
106.161
106.161
106.161
106.161
106.161
106.161
106.161
106.161
106.161
106.162
106.162
106.162
106.162
106.162
106.162
0
106.161
106.161
106.161
106.161
106.161
106.161
106.161
106.161
106.161
106.161
106.161
106.161
106.161
106.161
106.161
106.162
106.162
106.162
106.162
106.162
0
0
106.191
106.19
106.199
106.231
106.142
106.063
106.133
106.16
106.165
106.165
106.164
106.163
106.161
106.16
106.158
106.157
106.156
106.155
106.153
106.152
0
106.191
106.191
106.19
106.199
106.231
106.142
106.063
106.133
106.16
106.165
106.165
106.164
106.163
106.161
106.16
106.158
106.157
106.156
106.155
106.153
106.152
106.152
106.183
106.183
106.184
106.19
106.21
106.172
106.091
106.12
106.149
106.161
106.164
106.164
106.163
106.161
106.16
106.159
106.158
106.156
106.155
106.154
106.154
106.154
106.178
106.178
106.179
106.182
106.19
106.186
106.118
106.114
106.137
106.153
106.16
106.162
106.162
106.161
106.16
106.159
106.158
106.157
106.156
106.156
106.156
106.156
106.174
106.174
106.176
106.178
106.183
106.194
106.145
106.123
106.131
106.144
106.154
106.159
106.16
106.161
106.16
106.16
106.159
106.158
106.157
106.157
106.157
106.157
106.172
106.172
106.173
106.175
106.181
106.196
106.169
106.141
106.134
106.137
106.146
106.153
106.157
106.159
106.159
106.159
106.159
106.158
106.158
106.158
106.158
106.158
106.169
106.169
106.17
106.172
106.176
106.185
106.179
106.161
106.146
106.14
106.143
106.147
106.152
106.156
106.157
106.158
106.158
106.158
106.158
106.158
106.159
106.159
106.167
106.167
106.168
106.17
106.172
106.176
106.179
106.176
106.162
106.15
106.147
106.146
106.149
106.153
106.155
106.156
106.157
106.158
106.158
106.157
106.158
106.158
106.166
106.166
106.166
106.167
106.169
106.171
106.174
106.175
106.168
106.163
106.159
106.152
106.151
106.151
106.152
106.155
106.157
106.158
106.157
106.157
106.158
106.158
106.164
106.164
106.165
106.166
106.166
106.167
106.169
106.17
106.17
106.172
106.166
106.156
106.154
106.155
106.155
106.156
106.157
106.157
106.157
106.158
106.157
106.157
106.163
106.163
106.164
106.164
106.165
106.165
106.166
106.167
106.168
106.168
106.164
106.162
106.165
106.162
106.157
106.154
106.155
106.157
106.158
106.161
106.158
106.158
106.162
106.162
106.163
106.163
106.164
106.164
106.164
106.165
106.165
106.165
106.165
106.167
106.168
106.162
106.156
106.155
106.159
106.159
106.159
106.161
106.158
106.158
106.162
106.162
106.162
106.163
106.163
106.163
106.163
106.163
106.163
106.164
106.164
106.165
106.164
106.161
106.16
106.163
106.163
106.161
106.159
106.157
106.158
106.158
106.161
106.161
106.162
106.162
106.162
106.162
106.162
106.162
106.163
106.163
106.163
106.163
106.163
106.162
106.163
106.165
106.163
106.16
106.159
106.158
106.161
106.161
106.161
106.161
106.161
106.162
106.162
106.162
106.162
106.162
106.162
106.162
106.162
106.162
106.162
106.162
106.163
106.163
106.162
106.161
106.161
106.161
106.162
106.162
106.161
106.161
106.161
106.161
106.161
106.161
106.161
106.161
106.161
106.161
106.161
106.161
106.161
106.161
106.161
106.161
106.161
106.162
106.162
106.161
106.161
106.161
0
106.161
106.161
106.161
106.161
106.161
106.161
106.161
106.161
106.161
106.161
106.161
106.161
106.161
106.161
106.161
106.161
106.162
106.162
106.161
106.161
0
0
106.189
106.186
106.187
106.184
106.126
106.112
106.138
106.154
106.16
106.162
106.162
106.161
106.16
106.159
106.158
106.157
106.155
106.154
106.152
106.151
0
106.189
106.189
106.186
106.187
106.184
106.126
106.112
106.138
106.154
106.16
106.162
106.162
106.161
106.16
106.159
106.158
106.157
106.155
106.154
106.152
106.151
106.151
106.182
106.182
106.182
106.183
106.18
106.151
106.121
106.133
106.149
106.158
106.161
106.162
106.161
106.16
106.159
106.158
106.157
106.156
106.155
106.153
106.153
106.153
106.178
106.178
106.178
106.178
106.177
106.166
106.137
106.134
106.144
106.153
106.158
106.16
106.16
106.16
106.159
106.159
106.158
106.157
106.156
106.155
106.154
106.154
106.174
106.174
106.175
106.176
106.176
106.173
106.152
106.14
106.142
106.149
106.154
106.157
106.159
106.159
106.159
106.159
106.158
106.157
106.157
106.156
106.156
106.156
106.172
106.172
106.172
106.174
106.175
106.175
106.163
106.15
106.145
106.146
106.151
106.154
106.157
106.158
106.158
106.158
106.158
106.158
106.157
106.157
106.157
106.157
106.169
106.169
106.17
106.171
106.173
106.174
106.169
106.16
106.152
106.149
106.149
106.152
106.154
106.156
106.157
106.158
106.158
106.158
106.158
106.158
106.157
106.157
106.168
106.168
106.168
106.169
106.17
106.171
106.171
106.167
106.16
106.155
106.152
106.151
106.153
106.154
106.156
106.157
106.157
106.158
106.158
106.158
106.158
106.158
106.166
106.166
106.167
106.167
106.168
106.169
106.169
106.168
106.165
106.161
106.158
106.155
106.154
106.154
106.155
106.156
106.157
106.158
106.158
106.158
106.157
106.157
106.165
106.165
106.165
106.166
106.166
106.167
106.167
106.167
106.166
106.165
106.162
106.159
106.156
106.156
106.156
106.157
106.157
106.157
106.158
106.158
106.158
106.158
106.164
106.164
106.164
106.165
106.165
106.165
106.166
106.166
106.166
106.165
106.163
106.162
106.161
106.16
106.158
106.157
106.157
106.157
106.158
106.159
106.158
106.158
106.163
106.163
106.163
106.164
106.164
106.164
106.164
106.164
106.164
106.164
106.164
106.163
106.163
106.161
106.159
106.158
106.158
106.159
106.159
106.159
106.159
106.159
106.162
106.162
106.163
106.163
106.163
106.163
106.163
106.163
106.163
106.163
106.163
106.163
106.163
106.162
106.161
106.161
106.161
106.16
106.159
106.159
106.159
106.159
106.162
106.162
106.162
106.162
106.162
106.163
106.163
106.163
106.163
106.163
106.163
106.163
106.162
106.162
106.162
106.162
106.161
106.161
106.16
106.159
106.16
106.16
106.161
106.161
106.162
106.162
106.162
106.162
106.162
106.162
106.162
106.162
106.162
106.162
106.162
106.162
106.162
106.162
106.161
106.161
106.161
106.161
106.161
106.161
106.161
106.161
106.162
106.161
106.161
106.161
106.161
106.161
106.161
106.161
106.161
106.161
106.161
106.161
106.161
106.161
106.161
106.162
106.162
106.161
106.161
106.161
0
106.161
106.162
106.161
106.161
106.161