# vtk DataFile Version 3.0
FlowField
ASCII
DATASET STRUCTURED_GRID
DIMENSIONS 102 12 1 
POINTS 1224 double
0 0 0
0.3 0 0
0.6 0 0
0.9 0 0
1.2 0 0
1.5 0 0
1.8 0 0
2.1 0 0
2.4 0 0
2.7 0 0
3 0 0
3.3 0 0
3.6 0 0
3.9 0 0
4.2 0 0
4.5 0 0
4.8 0 0
5.1 0 0
5.4 0 0
5.7 0 0
6 0 0
6.3 0 0
6.6 0 0
6.9 0 0
7.2 0 0
7.5 0 0
7.8 0 0
8.1 0 0
8.4 0 0
8.7 0 0
9 0 0
9.3 0 0
9.6 0 0
9.9 0 0
10.2 0 0
10.5 0 0
10.8 0 0
11.1 0 0
11.4 0 0
11.7 0 0
12 0 0
12.3 0 0
12.6 0 0
12.9 0 0
13.2 0 0
13.5 0 0
13.8 0 0
14.1 0 0
14.4 0 0
14.7 0 0
15 0 0
15.3 0 0
15.6 0 0
15.9 0 0
16.2 0 0
16.5 0 0
16.8 0 0
17.1 0 0
17.4 0 0
17.7 0 0
18 0 0
18.3 0 0
18.6 0 0
18.9 0 0
19.2 0 0
19.5 0 0
19.8 0 0
20.1 0 0
20.4 0 0
20.7 0 0
21 0 0
21.3 0 0
21.6 0 0
21.9 0 0
22.2 0 0
22.5 0 0
22.8 0 0
23.1 0 0
23.4 0 0
23.7 0 0
24 0 0
24.3 0 0
24.6 0 0
24.9 0 0
25.2 0 0
25.5 0 0
25.8 0 0
26.1 0 0
26.4 0 0
26.7 0 0
27 0 0
27.3 0 0
27.6 0 0
27.9 0 0
28.2 0 0
28.5 0 0
28.8 0 0
29.1 0 0
29.4 0 0
29.7 0 0
30 0 0
30.3 0 0
0 0.1 0
0.3 0.1 0
0.6 0.1 0
0.9 0.1 0
1.2 0.1 0
1.5 0.1 0
1.8 0.1 0
2.1 0.1 0
2.4 0.1 0
2.7 0.1 0
3 0.1 0
3.3 0.1 0
3.6 0.1 0
3.9 0.1 0
4.2 0.1 0
4.5 0.1 0
4.8 0.1 0
5.1 0.1 0
5.4 0.1 0
5.7 0.1 0
6 0.1 0
6.3 0.1 0
6.6 0.1 0
6.9 0.1 0
7.2 0.1 0
7.5 0.1 0
7.8 0.1 0
8.1 0.1 0
8.4 0.1 0
8.7 0.1 0
9 0.1 0
9.3 0.1 0
9.6 0.1 0
9.9 0.1 0
10.2 0.1 0
10.5 0.1 0
10.8 0.1 0
11.1 0.1 0
11.4 0.1 0
11.7 0.1 0
12 0.1 0
12.3 0.1 0
12.6 0.1 0
12.9 0.1 0
13.2 0.1 0
13.5 0.1 0
13.8 0.1 0
14.1 0.1 0
14.4 0.1 0
14.7 0.1 0
15 0.1 0
15.3 0.1 0
15.6 0.1 0
15.9 0.1 0
16.2 0.1 0
16.5 0.1 0
16.8 0.1 0
17.1 0.1 0
17.4 0.1 0
17.7 0.1 0
18 0.1 0
18.3 0.1 0
18.6 0.1 0
18.9 0.1 0
19.2 0.1 0
19.5 0.1 0
19.8 0.1 0
20.1 0.1 0
20.4 0.1 0
20.7 0.1 0
21 0.1 0
21.3 0.1 0
21.6 0.1 0
21.9 0.1 0
22.2 0.1 0
22.5 0.1 0
22.8 0.1 0
23.1 0.1 0
23.4 0.1 0
23.7 0.1 0
24 0.1 0
24.3 0.1 0
24.6 0.1 0
24.9 0.1 0
25.2 0.1 0
25.5 0.1 0
25.8 0.1 0
26.1 0.1 0
26.4 0.1 0
26.7 0.1 0
27 0.1 0
27.3 0.1 0
27.6 0.1 0
27.9 0.1 0
28.2 0.1 0
28.5 0.1 0
28.8 0.1 0
29.1 0.1 0
29.4 0.1 0
29.7 0.1 0
30 0.1 0
30.3 0.1 0
0 0.2 0
0.3 0.2 0
0.6 0.2 0
0.9 0.2 0
1.2 0.2 0
1.5 0.2 0
1.8 0.2 0
2.1 0.2 0
2.4 0.2 0
2.7 0.2 0
3 0.2 0
3.3 0.2 0
3.6 0.2 0
3.9 0.2 0
4.2 0.2 0
4.5 0.2 0
4.8 0.2 0
5.1 0.2 0
5.4 0.2 0
5.7 0.2 0
6 0.2 0
6.3 0.2 0
6.6 0.2 0
6.9 0.2 0
7.2 0.2 0
7.5 0.2 0
7.8 0.2 0
8.1 0.2 0
8.4 0.2 0
8.7 0.2 0
9 0.2 0
9.3 0.2 0
9.6 0.2 0
9.9 0.2 0
10.2 0.2 0
10.5 0.2 0
10.8 0.2 0
11.1 0.2 0
11.4 0.2 0
11.7 0.2 0
12 0.2 0
12.3 0.2 0
12.6 0.2 0
12.9 0.2 0
13.2 0.2 0
13.5 0.2 0
13.8 0.2 0
14.1 0.2 0
14.4 0.2 0
14.7 0.2 0
15 0.2 0
15.3 0.2 0
15.6 0.2 0
15.9 0.2 0
16.2 0.2 0
16.5 0.2 0
16.8 0.2 0
17.1 0.2 0
17.4 0.2 0
17.7 0.2 0
18 0.2 0
18.3 0.2 0
18.6 0.2 0
18.9 0.2 0
19.2 0.2 0
19.5 0.2 0
19.8 0.2 0
20.1 0.2 0
20.4 0.2 0
20.7 0.2 0
21 0.2 0
21.3 0.2 0
21.6 0.2 0
21.9 0.2 0
22.2 0.2 0
22.5 0.2 0
22.8 0.2 0
23.1 0.2 0
23.4 0.2 0
23.7 0.2 0
24 0.2 0
24.3 0.2 0
24.6 0.2 0
24.9 0.2 0
25.2 0.2 0
25.5 0.2 0
25.8 0.2 0
26.1 0.2 0
26.4 0.2 0
26.7 0.2 0
27 0.2 0
27.3 0.2 0
27.6 0.2 0
27.9 0.2 0
28.2 0.2 0
28.5 0.2 0
28.8 0.2 0
29.1 0.2 0
29.4 0.2 0
29.7 0.2 0
30 0.2 0
30.3 0.2 0
0 0.3 0
0.3 0.3 0
0.6 0.3 0
0.9 0.3 0
1.2 0.3 0
1.5 0.3 0
1.8 0.3 0
2.1 0.3 0
2.4 0.3 0
2.7 0.3 0
3 0.3 0
3.3 0.3 0
3.6 0.3 0
3.9 0.3 0
4.2 0.3 0
4.5 0.3 0
4.8 0.3 0
5.1 0.3 0
5.4 0.3 0
5.7 0.3 0
6 0.3 0
6.3 0.3 0
6.6 0.3 0
6.9 0.3 0
7.2 0.3 0
7.5 0.3 0
7.8 0.3 0
8.1 0.3 0
8.4 0.3 0
8.7 0.3 0
9 0.3 0
9.3 0.3 0
9.6 0.3 0
9.9 0.3 0
10.2 0.3 0
10.5 0.3 0
10.8 0.3 0
11.1 0.3 0
11.4 0.3 0
11.7 0.3 0
12 0.3 0
12.3 0.3 0
12.6 0.3 0
12.9 0.3 0
13.2 0.3 0
13.5 0.3 0
13.8 0.3 0
14.1 0.3 0
14.4 0.3 0
14.7 0.3 0
15 0.3 0
15.3 0.3 0
15.6 0.3 0
15.9 0.3 0
16.2 0.3 0
16.5 0.3 0
16.8 0.3 0
17.1 0.3 0
17.4 0.3 0
17.7 0.3 0
18 0.3 0
18.3 0.3 0
18.6 0.3 0
18.9 0.3 0
19.2 0.3 0
19.5 0.3 0
19.8 0.3 0
20.1 0.3 0
20.4 0.3 0
20.7 0.3 0
21 0.3 0
21.3 0.3 0
21.6 0.3 0
21.9 0.3 0
22.2 0.3 0
22.5 0.3 0
22.8 0.3 0
23.1 0.3 0
23.4 0.3 0
23.7 0.3 0
24 0.3 0
24.3 0.3 0
24.6 0.3 0
24.9 0.3 0
25.2 0.3 0
25.5 0.3 0
25.8 0.3 0
26.1 0.3 0
26.4 0.3 0
26.7 0.3 0
27 0.3 0
27.3 0.3 0
27.6 0.3 0
27.9 0.3 0
28.2 0.3 0
28.5 0.3 0
28.8 0.3 0
29.1 0.3 0
29.4 0.3 0
29.7 0.3 0
30 0.3 0
30.3 0.3 0
0 0.4 0
0.3 0.4 0
0.6 0.4 0
0.9 0.4 0
1.2 0.4 0
1.5 0.4 0
1.8 0.4 0
2.1 0.4 0
2.4 0.4 0
2.7 0.4 0
3 0.4 0
3.3 0.4 0
3.6 0.4 0
3.9 0.4 0
4.2 0.4 0
4.5 0.4 0
4.8 0.4 0
5.1 0.4 0
5.4 0.4 0
5.7 0.4 0
6 0.4 0
6.3 0.4 0
6.6 0.4 0
6.9 0.4 0
7.2 0.4 0
7.5 0.4 0
7.8 0.4 0
8.1 0.4 0
8.4 0.4 0
8.7 0.4 0
9 0.4 0
9.3 0.4 0
9.6 0.4 0
9.9 0.4 0
10.2 0.4 0
10.5 0.4 0
10.8 0.4 0
11.1 0.4 0
11.4 0.4 0
11.7 0.4 0
12 0.4 0
12.3 0.4 0
12.6 0.4 0
12.9 0.4 0
13.2 0.4 0
13.5 0.4 0
13.8 0.4 0
14.1 0.4 0
14.4 0.4 0
14.7 0.4 0
15 0.4 0
15.3 0.4 0
15.6 0.4 0
15.9 0.4 0
16.2 0.4 0
16.5 0.4 0
16.8 0.4 0
17.1 0.4 0
17.4 0.4 0
17.7 0.4 0
18 0.4 0
18.3 0.4 0
18.6 0.4 0
18.9 0.4 0
19.2 0.4 0
19.5 0.4 0
19.8 0.4 0
20.1 0.4 0
20.4 0.4 0
20.7 0.4 0
21 0.4 0
21.3 0.4 0
21.6 0.4 0
21.9 0.4 0
22.2 0.4 0
22.5 0.4 0
22.8 0.4 0
23.1 0.4 0
23.4 0.4 0
23.7 0.4 0
24 0.4 0
24.3 0.4 0
24.6 0.4 0
24.9 0.4 0
25.2 0.4 0
25.5 0.4 0
25.8 0.4 0
26.1 0.4 0
26.4 0.4 0
26.7 0.4 0
27 0.4 0
27.3 0.4 0
27.6 0.4 0
27.9 0.4 0
28.2 0.4 0
28.5 0.4 0
28.8 0.4 0
29.1 0.4 0
29.4 0.4 0
29.7 0.4 0
30 0.4 0
30.3 0.4 0
0 0.5 0
0.3 0.5 0
0.6 0.5 0
0.9 0.5 0
1.2 0.5 0
1.5 0.5 0
1.8 0.5 0
2.1 0.5 0
2.4 0.5 0
2.7 0.5 0
3 0.5 0
3.3 0.5 0
3.6 0.5 0
3.9 0.5 0
4.2 0.5 0
4.5 0.5 0
4.8 0.5 0
5.1 0.5 0
5.4 0.5 0
5.7 0.5 0
6 0.5 0
6.3 0.5 0
6.6 0.5 0
6.9 0.5 0
7.2 0.5 0
7.5 0.5 0
7.8 0.5 0
8.1 0.5 0
8.4 0.5 0
8.7 0.5 0
9 0.5 0
9.3 0.5 0
9.6 0.5 0
9.9 0.5 0
10.2 0.5 0
10.5 0.5 0
10.8 0.5 0
11.1 0.5 0
11.4 0.5 0
11.7 0.5 0
12 0.5 0
12.3 0.5 0
12.6 0.5 0
12.9 0.5 0
13.2 0.5 0
13.5 0.5 0
13.8 0.5 0
14.1 0.5 0
14.4 0.5 0
14.7 0.5 0
15 0.5 0
15.3 0.5 0
15.6 0.5 0
15.9 0.5 0
16.2 0.5 0
16.5 0.5 0
16.8 0.5 0
17.1 0.5 0
17.4 0.5 0
17.7 0.5 0
18 0.5 0
18.3 0.5 0
18.6 0.5 0
18.9 0.5 0
19.2 0.5 0
19.5 0.5 0
19.8 0.5 0
20.1 0.5 0
20.4 0.5 0
20.7 0.5 0
21 0.5 0
21.3 0.5 0
21.6 0.5 0
21.9 0.5 0
22.2 0.5 0
22.5 0.5 0
22.8 0.5 0
23.1 0.5 0
23.4 0.5 0
23.7 0.5 0
24 0.5 0
24.3 0.5 0
24.6 0.5 0
24.9 0.5 0
25.2 0.5 0
25.5 0.5 0
25.8 0.5 0
26.1 0.5 0
26.4 0.5 0
26.7 0.5 0
27 0.5 0
27.3 0.5 0
27.6 0.5 0
27.9 0.5 0
28.2 0.5 0
28.5 0.5 0
28.8 0.5 0
29.1 0.5 0
29.4 0.5 0
29.7 0.5 0
30 0.5 0
30.3 0.5 0
0 0.6 0
0.3 0.6 0
0.6 0.6 0
0.9 0.6 0
1.2 0.6 0
1.5 0.6 0
1.8 0.6 0
2.1 0.6 0
2.4 0.6 0
2.7 0.6 0
3 0.6 0
3.3 0.6 0
3.6 0.6 0
3.9 0.6 0
4.2 0.6 0
4.5 0.6 0
4.8 0.6 0
5.1 0.6 0
5.4 0.6 0
5.7 0.6 0
6 0.6 0
6.3 0.6 0
6.6 0.6 0
6.9 0.6 0
7.2 0.6 0
7.5 0.6 0
7.8 0.6 0
8.1 0.6 0
8.4 0.6 0
8.7 0.6 0
9 0.6 0
9.3 0.6 0
9.6 0.6 0
9.9 0.6 0
10.2 0.6 0
10.5 0.6 0
10.8 0.6 0
11.1 0.6 0
11.4 0.6 0
11.7 0.6 0
12 0.6 0
12.3 0.6 0
12.6 0.6 0
12.9 0.6 0
13.2 0.6 0
13.5 0.6 0
13.8 0.6 0
14.1 0.6 0
14.4 0.6 0
14.7 0.6 0
15 0.6 0
15.3 0.6 0
15.6 0.6 0
15.9 0.6 0
16.2 0.6 0
16.5 0.6 0
16.8 0.6 0
17.1 0.6 0
17.4 0.6 0
17.7 0.6 0
18 0.6 0
18.3 0.6 0
18.6 0.6 0
18.9 0.6 0
19.2 0.6 0
19.5 0.6 0
19.8 0.6 0
20.1 0.6 0
20.4 0.6 0
20.7 0.6 0
21 0.6 0
21.3 0.6 0
21.6 0.6 0
21.9 0.6 0
22.2 0.6 0
22.5 0.6 0
22.8 0.6 0
23.1 0.6 0
23.4 0.6 0
23.7 0.6 0
24 0.6 0
24.3 0.6 0
24.6 0.6 0
24.9 0.6 0
25.2 0.6 0
25.5 0.6 0
25.8 0.6 0
26.1 0.6 0
26.4 0.6 0
26.7 0.6 0
27 0.6 0
27.3 0.6 0
27.6 0.6 0
27.9 0.6 0
28.2 0.6 0
28.5 0.6 0
28.8 0.6 0
29.1 0.6 0
29.4 0.6 0
29.7 0.6 0
30 0.6 0
30.3 0.6 0
0 0.7 0
0.3 0.7 0
0.6 0.7 0
0.9 0.7 0
1.2 0.7 0
1.5 0.7 0
1.8 0.7 0
2.1 0.7 0
2.4 0.7 0
2.7 0.7 0
3 0.7 0
3.3 0.7 0
3.6 0.7 0
3.9 0.7 0
4.2 0.7 0
4.5 0.7 0
4.8 0.7 0
5.1 0.7 0
5.4 0.7 0
5.7 0.7 0
6 0.7 0
6.3 0.7 0
6.6 0.7 0
6.9 0.7 0
7.2 0.7 0
7.5 0.7 0
7.8 0.7 0
8.1 0.7 0
8.4 0.7 0
8.7 0.7 0
9 0.7 0
9.3 0.7 0
9.6 0.7 0
9.9 0.7 0
10.2 0.7 0
10.5 0.7 0
10.8 0.7 0
11.1 0.7 0
11.4 0.7 0
11.7 0.7 0
12 0.7 0
12.3 0.7 0
12.6 0.7 0
12.9 0.7 0
13.2 0.7 0
13.5 0.7 0
13.8 0.7 0
14.1 0.7 0
14.4 0.7 0
14.7 0.7 0
15 0.7 0
15.3 0.7 0
15.6 0.7 0
15.9 0.7 0
16.2 0.7 0
16.5 0.7 0
16.8 0.7 0
17.1 0.7 0
17.4 0.7 0
17.7 0.7 0
18 0.7 0
18.3 0.7 0
18.6 0.7 0
18.9 0.7 0
19.2 0.7 0
19.5 0.7 0
19.8 0.7 0
20.1 0.7 0
20.4 0.7 0
20.7 0.7 0
21 0.7 0
21.3 0.7 0
21.6 0.7 0
21.9 0.7 0
22.2 0.7 0
22.5 0.7 0
22.8 0.7 0
23.1 0.7 0
23.4 0.7 0
23.7 0.7 0
24 0.7 0
24.3 0.7 0
24.6 0.7 0
24.9 0.7 0
25.2 0.7 0
25.5 0.7 0
25.8 0.7 0
26.1 0.7 0
26.4 0.7 0
26.7 0.7 0
27 0.7 0
27.3 0.7 0
27.6 0.7 0
27.9 0.7 0
28.2 0.7 0
28.5 0.7 0
28.8 0.7 0
29.1 0.7 0
29.4 0.7 0
29.7 0.7 0
30 0.7 0
30.3 0.7 0
0 0.8 0
0.3 0.8 0
0.6 0.8 0
0.9 0.8 0
1.2 0.8 0
1.5 0.8 0
1.8 0.8 0
2.1 0.8 0
2.4 0.8 0
2.7 0.8 0
3 0.8 0
3.3 0.8 0
3.6 0.8 0
3.9 0.8 0
4.2 0.8 0
4.5 0.8 0
4.8 0.8 0
5.1 0.8 0
5.4 0.8 0
5.7 0.8 0
6 0.8 0
6.3 0.8 0
6.6 0.8 0
6.9 0.8 0
7.2 0.8 0
7.5 0.8 0
7.8 0.8 0
8.1 0.8 0
8.4 0.8 0
8.7 0.8 0
9 0.8 0
9.3 0.8 0
9.6 0.8 0
9.9 0.8 0
10.2 0.8 0
10.5 0.8 0
10.8 0.8 0
11.1 0.8 0
11.4 0.8 0
11.7 0.8 0
12 0.8 0
12.3 0.8 0
12.6 0.8 0
12.9 0.8 0
13.2 0.8 0
13.5 0.8 0
13.8 0.8 0
14.1 0.8 0
14.4 0.8 0
14.7 0.8 0
15 0.8 0
15.3 0.8 0
15.6 0.8 0
15.9 0.8 0
16.2 0.8 0
16.5 0.8 0
16.8 0.8 0
17.1 0.8 0
17.4 0.8 0
17.7 0.8 0
18 0.8 0
18.3 0.8 0
18.6 0.8 0
18.9 0.8 0
19.2 0.8 0
19.5 0.8 0
19.8 0.8 0
20.1 0.8 0
20.4 0.8 0
20.7 0.8 0
21 0.8 0
21.3 0.8 0
21.6 0.8 0
21.9 0.8 0
22.2 0.8 0
22.5 0.8 0
22.8 0.8 0
23.1 0.8 0
23.4 0.8 0
23.7 0.8 0
24 0.8 0
24.3 0.8 0
24.6 0.8 0
24.9 0.8 0
25.2 0.8 0
25.5 0.8 0
25.8 0.8 0
26.1 0.8 0
26.4 0.8 0
26.7 0.8 0
27 0.8 0
27.3 0.8 0
27.6 0.8 0
27.9 0.8 0
28.2 0.8 0
28.5 0.8 0
28.8 0.8 0
29.1 0.8 0
29.4 0.8 0
29.7 0.8 0
30 0.8 0
30.3 0.8 0
0 0.9 0
0.3 0.9 0
0.6 0.9 0
0.9 0.9 0
1.2 0.9 0
1.5 0.9 0
1.8 0.9 0
2.1 0.9 0
2.4 0.9 0
2.7 0.9 0
3 0.9 0
3.3 0.9 0
3.6 0.9 0
3.9 0.9 0
4.2 0.9 0
4.5 0.9 0
4.8 0.9 0
5.1 0.9 0
5.4 0.9 0
5.7 0.9 0
6 0.9 0
6.3 0.9 0
6.6 0.9 0
6.9 0.9 0
7.2 0.9 0
7.5 0.9 0
7.8 0.9 0
8.1 0.9 0
8.4 0.9 0
8.7 0.9 0
9 0.9 0
9.3 0.9 0
9.6 0.9 0
9.9 0.9 0
10.2 0.9 0
10.5 0.9 0
10.8 0.9 0
11.1 0.9 0
11.4 0.9 0
11.7 0.9 0
12 0.9 0
12.3 0.9 0
12.6 0.9 0
12.9 0.9 0
13.2 0.9 0
13.5 0.9 0
13.8 0.9 0
14.1 0.9 0
14.4 0.9 0
14.7 0.9 0
15 0.9 0
15.3 0.9 0
15.6 0.9 0
15.9 0.9 0
16.2 0.9 0
16.5 0.9 0
16.8 0.9 0
17.1 0.9 0
17.4 0.9 0
17.7 0.9 0
18 0.9 0
18.3 0.9 0
18.6 0.9 0
18.9 0.9 0
19.2 0.9 0
19.5 0.9 0
19.8 0.9 0
20.1 0.9 0
20.4 0.9 0
20.7 0.9 0
21 0.9 0
21.3 0.9 0
21.6 0.9 0
21.9 0.9 0
22.2 0.9 0
22.5 0.9 0
22.8 0.9 0
23.1 0.9 0
23.4 0.9 0
23.7 0.9 0
24 0.9 0
24.3 0.9 0
24.6 0.9 0
24.9 0.9 0
25.2 0.9 0
25.5 0.9 0
25.8 0.9 0
26.1 0.9 0
26.4 0.9 0
26.7 0.9 0
27 0.9 0
27.3 0.9 0
27.6 0.9 0
27.9 0.9 0
28.2 0.9 0
28.5 0.9 0
28.8 0.9 0
29.1 0.9 0
29.4 0.9 0
29.7 0.9 0
30 0.9 0
30.3 0.9 0
0 1 0
0.3 1 0
0.6 1 0
0.9 1 0
1.2 1 0
1.5 1 0
1.8 1 0
2.1 1 0
2.4 1 0
2.7 1 0
3 1 0
3.3 1 0
3.6 1 0
3.9 1 0
4.2 1 0
4.5 1 0
4.8 1 0
5.1 1 0
5.4 1 0
5.7 1 0
6 1 0
6.3 1 0
6.6 1 0
6.9 1 0
7.2 1 0
7.5 1 0
7.8 1 0
8.1 1 0
8.4 1 0
8.7 1 0
9 1 0
9.3 1 0
9.6 1 0
9.9 1 0
10.2 1 0
10.5 1 0
10.8 1 0
11.1 1 0
11.4 1 0
11.7 1 0
12 1 0
12.3 1 0
12.6 1 0
12.9 1 0
13.2 1 0
13.5 1 0
13.8 1 0
14.1 1 0
14.4 1 0
14.7 1 0
15 1 0
15.3 1 0
15.6 1 0
15.9 1 0
16.2 1 0
16.5 1 0
16.8 1 0
17.1 1 0
17.4 1 0
17.7 1 0
18 1 0
18.3 1 0
18.6 1 0
18.9 1 0
19.2 1 0
19.5 1 0
19.8 1 0
20.1 1 0
20.4 1 0
20.7 1 0
21 1 0
21.3 1 0
21.6 1 0
21.9 1 0
22.2 1 0
22.5 1 0
22.8 1 0
23.1 1 0
23.4 1 0
23.7 1 0
24 1 0
24.3 1 0
24.6 1 0
24.9 1 0
25.2 1 0
25.5 1 0
25.8 1 0
26.1 1 0
26.4 1 0
26.7 1 0
27 1 0
27.3 1 0
27.6 1 0
27.9 1 0
28.2 1 0
28.5 1 0
28.8 1 0
29.1 1 0
29.4 1 0
29.7 1 0
30 1 0
30.3 1 0
0 1.1 0
0.3 1.1 0
0.6 1.1 0
0.9 1.1 0
1.2 1.1 0
1.5 1.1 0
1.8 1.1 0
2.1 1.1 0
2.4 1.1 0
2.7 1.1 0
3 1.1 0
3.3 1.1 0
3.6 1.1 0
3.9 1.1 0
4.2 1.1 0
4.5 1.1 0
4.8 1.1 0
5.1 1.1 0
5.4 1.1 0
5.7 1.1 0
6 1.1 0
6.3 1.1 0
6.6 1.1 0
6.9 1.1 0
7.2 1.1 0
7.5 1.1 0
7.8 1.1 0
8.1 1.1 0
8.4 1.1 0
8.7 1.1 0
9 1.1 0
9.3 1.1 0
9.6 1.1 0
9.9 1.1 0
10.2 1.1 0
10.5 1.1 0
10.8 1.1 0
11.1 1.1 0
11.4 1.1 0
11.7 1.1 0
12 1.1 0
12.3 1.1 0
12.6 1.1 0
12.9 1.1 0
13.2 1.1 0
13.5 1.1 0
13.8 1.1 0
14.1 1.1 0
14.4 1.1 0
14.7 1.1 0
15 1.1 0
15.3 1.1 0
15.6 1.1 0
15.9 1.1 0
16.2 1.1 0
16.5 1.1 0
16.8 1.1 0
17.1 1.1 0
17.4 1.1 0
17.7 1.1 0
18 1.1 0
18.3 1.1 0
18.6 1.1 0
18.9 1.1 0
19.2 1.1 0
19.5 1.1 0
19.8 1.1 0
20.1 1.1 0
20.4 1.1 0
20.7 1.1 0
21 1.1 0
21.3 1.1 0
21.6 1.1 0
21.9 1.1 0
22.2 1.1 0
22.5 1.1 0
22.8 1.1 0
23.1 1.1 0
23.4 1.1 0
23.7 1.1 0
24 1.1 0
24.3 1.1 0
24.6 1.1 0
24.9 1.1 0
25.2 1.1 0
25.5 1.1 0
25.8 1.1 0
26.1 1.1 0
26.4 1.1 0
26.7 1.1 0
27 1.1 0
27.3 1.1 0
27.6 1.1 0
27.9 1.1 0
28.2 1.1 0
28.5 1.1 0
28.8 1.1 0
29.1 1.1 0
29.4 1.1 0
29.7 1.1 0
30 1.1 0
30.3 1.1 0

POINT_DATA 1224

SCALARS pressure double
LOOKUP_TABLE pressure
1.31578
1.31578
1.24927
1.20219
1.15924
1.11958
1.08356
1.05118
1.02207
0.995737
0.971626
0.949274
0.928301
0.908419
0.889413
0.871124
0.853432
0.836251
0.819512
0.803162
0.787158
0.771466
0.756056
0.740904
0.725987
0.711285
0.696783
0.682465
0.668317
0.654326
0.640481
0.626772
0.613189
0.599724
0.586368
0.573114
0.559955
0.546885
0.533898
0.520989
0.508152
0.495383
0.482677
0.47003
0.457439
0.444899
0.432409
0.419963
0.407561
0.395198
0.382873
0.370583
0.358328
0.346104
0.33391
0.321746
0.30961
0.2975
0.285416
0.273357
0.261321
0.249307
0.237315
0.225342
0.213387
0.201449
0.189526
0.177617
0.165719
0.153833
0.141955
0.130086
0.118223
0.106365
0.0945123
0.0826631
0.0708168
0.058973
0.0471309
0.0352903
0.0234507
0.011612
-0.000226081
-0.0120637
-0.0239011
-0.0357382
-0.0475751
-0.0594119
-0.0712486
-0.0830852
-0.0949218
-0.106758
-0.118595
-0.130432
-0.142268
-0.154105
-0.165941
-0.177778
-0.189614
-0.201451
-0.213285
0.213285
1.31578
1.31578
1.24927
1.20219
1.15924
1.11958
1.08356
1.05118
1.02207
0.995737
0.971626
0.949274
0.928301
0.908419
0.889413
0.871124
0.853432
0.836251
0.819512
0.803162
0.787158
0.771466
0.756056
0.740904
0.725987
0.711285
0.696783
0.682465
0.668317
0.654326
0.640481
0.626772
0.613189
0.599724
0.586368
0.573114
0.559955
0.546885
0.533898
0.520989
0.508152
0.495383
0.482677
0.47003
0.457439
0.444899
0.432409
0.419963
0.407561
0.395198
0.382873
0.370583
0.358328
0.346104
0.33391
0.321746
0.30961
0.2975
0.285416
0.273357
0.261321
0.249307
0.237315
0.225342
0.213387
0.201449
0.189526
0.177617
0.165719
0.153833
0.141955
0.130086
0.118223
0.106365
0.0945123
0.0826631
0.0708168
0.058973
0.0471309
0.0352903
0.0234507
0.011612
-0.000226081
-0.0120637
-0.0239011
-0.0357382
-0.0475751
-0.0594119
-0.0712486
-0.0830852
-0.0949218
-0.106758
-0.118595
-0.130432
-0.142268
-0.154105
-0.165941
-0.177778
-0.189614
-0.201451
-0.213285
0.213285
1.29513
1.29513
1.24747
1.2025
1.15996
1.12035
1.08426
1.05177
1.02255
0.996107
0.971912
0.949495
0.928474
0.908557
0.889524
0.871216
0.85351
0.836317
0.81957
0.803212
0.787203
0.771506
0.756093
0.740937
0.726016
0.711313
0.696808
0.682488
0.668338
0.654345
0.640499
0.626788
0.613204
0.599738
0.586381
0.573126
0.559966
0.546896
0.533908
0.520998
0.50816
0.49539
0.482684
0.470037
0.457445
0.444905
0.432414
0.419968
0.407565
0.395202
0.382877
0.370587
0.358331
0.346107
0.333913
0.321749
0.309612
0.297502
0.285418
0.273359
0.261322
0.249309
0.237316
0.225342
0.213387
0.201449
0.189526
0.177617
0.165719
0.153833
0.141955
0.130086
0.118223
0.106365
0.0945122
0.082663
0.0708168
0.0589729
0.0471309
0.0352903
0.0234507
0.011612
-0.000226094
-0.0120637
-0.0239011
-0.0357382
-0.0475751
-0.0594119
-0.0712486
-0.0830852
-0.0949218
-0.106758
-0.118595
-0.130432
-0.142268
-0.154105
-0.165941
-0.177778
-0.189614
-0.201451
-0.213285
0.213285
1.28075
1.28075
1.24497
1.2029
1.16109
1.12162
1.08544
1.05276
1.02334
0.996713
0.972368
0.949835
0.928729
0.908751
0.889674
0.871334
0.853605
0.836396
0.819635
0.803269
0.787252
0.771549
0.75613
0.74097
0.726046
0.711339
0.696832
0.682509
0.668357
0.654363
0.640515
0.626803
0.613218
0.59975
0.586392
0.573137
0.559976
0.546905
0.533916
0.521006
0.508167
0.495397
0.48269
0.470043
0.45745
0.44491
0.432419
0.419973
0.407569
0.395206
0.38288
0.37059
0.358334
0.34611
0.333916
0.321751
0.309614
0.297504
0.28542
0.27336
0.261324
0.24931
0.237317
0.225343
0.213388
0.20145
0.189527
0.177617
0.16572
0.153833
0.141955
0.130086
0.118223
0.106365
0.0945122
0.082663
0.0708168
0.0589729
0.0471309
0.0352902
0.0234507
0.011612
-0.000226102
-0.0120638
-0.0239011
-0.0357382
-0.0475751
-0.0594119
-0.0712486
-0.0830852
-0.0949218
-0.106758
-0.118595
-0.130432
-0.142268
-0.154105
-0.165941
-0.177778
-0.189614
-0.20145
-0.213285
0.213285
1.27206
1.27206
1.24295
1.20315
1.16201
1.1227
1.08647
1.05365
1.02407
0.997292
0.972816
0.95018
0.928995
0.908959
0.889839
0.871467
0.853715
0.836488
0.819713
0.803335
0.78731
0.7716
0.756175
0.74101
0.726081
0.711371
0.696861
0.682535
0.668381
0.654384
0.640534
0.626821
0.613234
0.599765
0.586406
0.573149
0.559988
0.546915
0.533926
0.521015
0.508176
0.495405
0.482697
0.470049
0.457457
0.444916
0.432424
0.419978
0.407574
0.39521
0.382885
0.370594
0.358338
0.346113
0.333919
0.321754
0.309617
0.297507
0.285422
0.273362
0.261326
0.249311
0.237318
0.225345
0.213389
0.201451
0.189528
0.177618
0.16572
0.153833
0.141956
0.130086
0.118223
0.106365
0.0945124
0.0826632
0.0708169
0.058973
0.0471309
0.0352903
0.0234508
0.011612
-0.000226081
-0.0120637
-0.0239011
-0.0357382
-0.0475751
-0.0594119
-0.0712486
-0.0830852
-0.0949218
-0.106758
-0.118595
-0.130432
-0.142268
-0.154105
-0.165941
-0.177777
-0.189614
-0.201449
-0.213284
0.213284
1.26798
1.26798
1.24187
1.20327
1.1625
1.12329
1.08704
1.05415
1.02449
0.997627
0.97308
0.950387
0.929159
0.909089
0.889945
0.871554
0.853788
0.83655
0.819767
0.803382
0.787351
0.771636
0.756208
0.741039
0.726108
0.711395
0.696882
0.682555
0.668398
0.6544
0.640549
0.626835
0.613247
0.599777
0.586417
0.573159
0.559997
0.546924
0.533934
0.521022
0.508182
0.495411
0.482703
0.470054
0.457462
0.444921
0.432428
0.419982
0.407578
0.395214
0.382888
0.370597
0.358341
0.346116
0.333922
0.321756
0.309619
0.297509
0.285424
0.273364
0.261328
0.249313
0.23732
0.225346
0.213391
0.201452
0.189529
0.177619
0.165721
0.153834
0.141956
0.130087
0.118223
0.106366
0.0945127
0.0826634
0.0708171
0.0589731
0.047131
0.0352904
0.0234508
0.0116121
-0.000226049
-0.0120637
-0.0239011
-0.0357381
-0.0475751
-0.0594119
-0.0712486
-0.0830852
-0.0949218
-0.106758
-0.118595
-0.130432
-0.142268
-0.154105
-0.165941
-0.177777
-0.189614
-0.201448
-0.213284
0.213284
1.26798
1.26798
1.24187
1.20327
1.1625
1.12329
1.08704
1.05415
1.02449
0.997627
0.97308
0.950387
0.929159
0.909089
0.889945
0.871554
0.853788
0.83655
0.819767
0.803382
0.787351
0.771636
0.756208
0.741039
0.726108
0.711395
0.696882
0.682555
0.668398
0.6544
0.640549
0.626835
0.613247
0.599777
0.586417
0.573159
0.559997
0.546924
0.533934
0.521022
0.508182
0.495411
0.482703
0.470054
0.457462
0.444921
0.432428
0.419982
0.407578
0.395214
0.382888
0.370597
0.358341
0.346116
0.333922
0.321756
0.309619
0.297509
0.285424
0.273364
0.261328
0.249313
0.23732
0.225346
0.213391
0.201452
0.189529
0.177619
0.165721
0.153834
0.141956
0.130087
0.118223
0.106366
0.0945127
0.0826634
0.0708171
0.0589731
0.047131
0.0352904
0.0234508
0.0116121
-0.000226048
-0.0120637
-0.023901
-0.0357381
-0.0475751
-0.0594119
-0.0712486
-0.0830852
-0.0949218
-0.106758
-0.118595
-0.130432
-0.142268
-0.154105
-0.165941
-0.177777
-0.189614
-0.201448
-0.213284
0.213284
1.27206
1.27206
1.24295
1.20315
1.16201
1.1227
1.08647
1.05365
1.02407
0.997292
0.972816
0.95018
0.928995
0.908959
0.889839
0.871467
0.853715
0.836488
0.819713
0.803335
0.78731
0.7716
0.756175
0.74101
0.726081
0.711371
0.696861
0.682535
0.668381
0.654384
0.640534
0.626821
0.613234
0.599765
0.586406
0.573149
0.559988
0.546915
0.533926
0.521015
0.508176
0.495405
0.482697
0.470049
0.457457
0.444916
0.432424
0.419978
0.407574
0.39521
0.382885
0.370594
0.358338
0.346113
0.333919
0.321754
0.309617
0.297507
0.285422
0.273362
0.261326
0.249311
0.237318
0.225345
0.213389
0.201451
0.189528
0.177618
0.16572
0.153833
0.141956
0.130086
0.118223
0.106365
0.0945125
0.0826632
0.0708169
0.058973
0.0471309
0.0352903
0.0234508
0.011612
-0.000226078
-0.0120637
-0.0239011
-0.0357382
-0.0475751
-0.0594119
-0.0712486
-0.0830852
-0.0949218
-0.106758
-0.118595
-0.130432
-0.142268
-0.154105
-0.165941
-0.177777
-0.189614
-0.201449
-0.213284
0.213284
1.28075
1.28075
1.24497
1.2029
1.16109
1.12162
1.08544
1.05276
1.02334
0.996713
0.972368
0.949835
0.928729
0.908751
0.889674
0.871334
0.853605
0.836396
0.819635
0.803269
0.787252
0.771549
0.75613
0.74097
0.726046
0.711339
0.696832
0.682509
0.668357
0.654363
0.640515
0.626803
0.613218
0.59975
0.586392
0.573137
0.559976
0.546905
0.533916
0.521006
0.508167
0.495397
0.48269
0.470043
0.45745
0.44491
0.432419
0.419973
0.407569
0.395206
0.38288
0.37059
0.358334
0.34611
0.333916
0.321751
0.309614
0.297504
0.28542
0.27336
0.261324
0.24931
0.237317
0.225343
0.213388
0.20145
0.189527
0.177617
0.16572
0.153833
0.141955
0.130086
0.118223
0.106365
0.0945122
0.082663
0.0708168
0.0589729
0.0471309
0.0352902
0.0234507
0.011612
-0.000226098
-0.0120637
-0.0239011
-0.0357382
-0.0475751
-0.0594119
-0.0712486
-0.0830852
-0.0949218
-0.106758
-0.118595
-0.130432
-0.142268
-0.154105
-0.165941
-0.177778
-0.189614
-0.20145
-0.213285
0.213285
1.29513
1.29513
1.24747
1.2025
1.15996
1.12035
1.08426
1.05177
1.02255
0.996107
0.971912
0.949495
0.928474
0.908557
0.889524
0.871216
0.85351
0.836317
0.81957
0.803212
0.787203
0.771506
0.756093
0.740937
0.726016
0.711313
0.696808
0.682488
0.668338
0.654345
0.640499
0.626788
0.613204
0.599738
0.586381
0.573126
0.559966
0.546896
0.533908
0.520998
0.50816
0.49539
0.482684
0.470037
0.457445
0.444905
0.432414
0.419968
0.407565
0.395202
0.382877
0.370587
0.358331
0.346107
0.333913
0.321749
0.309612
0.297502
0.285418
0.273359
0.261322
0.249309
0.237316
0.225342
0.213387
0.201449
0.189526
0.177617
0.165719
0.153833
0.141955
0.130086
0.118223
0.106365
0.0945122
0.082663
0.0708168
0.0589729
0.0471309
0.0352903
0.0234507
0.011612
-0.000226089
-0.0120637
-0.0239011
-0.0357382
-0.0475751
-0.0594119
-0.0712486
-0.0830852
-0.0949218
-0.106758
-0.118595
-0.130432
-0.142268
-0.154105
-0.165941
-0.177778
-0.189614
-0.201451
-0.213285
0.213285
1.31578
1.31578
1.24927
1.20219
1.15924
1.11958
1.08356
1.05118
1.02207
0.995737
0.971626
0.949274
0.928301
0.908419
0.889413
0.871124
0.853432
0.836251
0.819512
0.803162
0.787158
0.771466
0.756056
0.740904
0.725987
0.711285
0.696783
0.682465
0.668317
0.654326
0.640481
0.626772
0.613189
0.599724
0.586368
0.573114
0.559955
0.546885
0.533898
0.520989
0.508152
0.495383
0.482677
0.47003
0.457439
0.444899
0.432409
0.419963
0.407561
0.395198
0.382873
0.370583
0.358328
0.346104
0.33391
0.321746
0.30961
0.2975
0.285416
0.273357
0.261321
0.249307
0.237315
0.225342
0.213387
0.201449
0.189526
0.177617
0.165719
0.153833
0.141955
0.130086
0.118223
0.106365
0.0945123
0.0826631
0.0708168
0.0589729
0.0471309
0.0352903
0.0234507
0.011612
-0.00022608
-0.0120637
-0.0239011
-0.0357381
-0.0475751
-0.0594119
-0.0712486
-0.0830852
-0.0949218
-0.106758
-0.118595
-0.130432
-0.142268
-0.154105
-0.165941
-0.177778
-0.189614
-0.201451
-0.213285
0.213285
1.31578
1.31578
1.24927
1.20219
1.15924
1.11958
1.08356
1.05118
1.02207
0.995737
0.971626
0.949274
0.928301
0.908419
0.889413
0.871124
0.853432
0.836251
0.819512
0.803162
0.787158
0.771466
0.756056
0.740904
0.725987
0.711285
0.696783
0.682465
0.668317
0.654326
0.640481
0.626772
0.613189
0.599724
0.586368
0.573114
0.559955
0.546885
0.533898
0.520989
0.508152
0.495383
0.482677
0.47003
0.457439
0.444899
0.432409
0.419963
0.407561
0.395198
0.382873
0.370583
0.358328
0.346104
0.33391
0.321746
0.30961
0.2975
0.285416
0.273357
0.261321
0.249307
0.237315
0.225342
0.213387
0.201449
0.189526
0.177617
0.165719
0.153833
0.141955
0.130086
0.118223
0.106365
0.0945123
0.0826631
0.0708168
0.0589729
0.0471309
0.0352903
0.0234507
0.011612
-0.00022608
-0.0120637
-0.0239011
-0.0357381
-0.0475751
-0.0594119
-0.0712486
-0.0830852
-0.0949218
-0.106758
-0.118595
-0.130432
-0.142268
-0.154105
-0.165941
-0.177778
-0.189614
-0.201451
-0.213285
0.213285
SCALARS phi double
LOOKUP_TABLE phi
1
1
1
0.999995
0.999977
0.999931
0.999833
0.999654
0.999363
0.998928
0.998322
0.997522
0.996512
0.995278
0.993814
0.992116
0.990185
0.98803
0.985668
0.983102
0.980295
0.977132
0.973405
0.968824
0.963052
0.955757
0.946657
0.935547
0.922317
0.906944
0.889484
0.870051
0.848805
0.825939
0.801664
0.776198
0.749765
0.722581
0.694856
0.666784
0.638545
0.610302
0.582202
0.554372
0.526924
0.499954
0.47354
0.44775
0.422636
0.398242
0.374598
0.35173
0.329651
0.308373
0.287899
0.268228
0.249357
0.231278
0.213985
0.197466
0.181711
0.166711
0.152454
0.13893
0.126131
0.114048
0.102674
0.0920021
0.0820252
0.0727369
0.0641297
0.0561949
0.0489219
0.0422974
0.0363049
0.0309241
0.026131
0.0218976
0.0181918
0.0149782
0.0122189
0.00987365
0.0079012
0.00626018
0.00490994
0.00381143
0.00292793
0.00222556
0.00167371
0.00124521
0.000916431
0.000667156
0.000480407
0.000342164
0.000241045
0.000167958
0.000115753
7.89209e-05
5.31544e-05
3.5757e-05
2.20934e-05
2.20934e-05
1
1
1
0.999995
0.999977
0.999931
0.999833
0.999654
0.999363
0.998928
0.998322
0.997522
0.996512
0.995278
0.993814
0.992116
0.990185
0.98803
0.985668
0.983102
0.980295
0.977132
0.973405
0.968824
0.963052
0.955757
0.946657
0.935547
0.922317
0.906944
0.889484
0.870051
0.848805
0.825939
0.801664
0.776198
0.749765
0.722581
0.694856
0.666784
0.638545
0.610302
0.582202
0.554372
0.526924
0.499954
0.47354
0.44775
0.422636
0.398242
0.374598
0.35173
0.329651
0.308373
0.287899
0.268228
0.249357
0.231278
0.213985
0.197466
0.181711
0.166711
0.152454
0.13893
0.126131
0.114048
0.102674
0.0920021
0.0820252
0.0727369
0.0641297
0.0561949
0.0489219
0.0422974
0.0363049
0.0309241
0.026131
0.0218976
0.0181918
0.0149782
0.0122189
0.00987365
0.0079012
0.00626018
0.00490994
0.00381143
0.00292793
0.00222556
0.00167371
0.00124521
0.000916431
0.000667156
0.000480407
0.000342164
0.000241045
0.000167958
0.000115753
7.89209e-05
5.31544e-05
3.5757e-05
2.20934e-05
2.20934e-05
0.999998
1
0.999984
0.999921
0.999783
0.999536
0.999146
0.99858
0.997811
0.996819
0.995589
0.994116
0.992397
0.990436
0.98824
0.985816
0.983176
0.980331
0.977297
0.974088
0.970716
0.96717
0.963412
0.959359
0.954887
0.949832
0.944011
0.937236
0.929335
0.920161
0.909608
0.897607
0.884135
0.869204
0.852863
0.83519
0.816284
0.796263
0.775258
0.753405
0.730843
0.707712
0.684146
0.660275
0.636218
0.61209
0.587991
0.564016
0.540247
0.516757
0.493609
0.470857
0.448545
0.426712
0.405385
0.384586
0.364331
0.344627
0.325479
0.306886
0.288841
0.271338
0.254364
0.237908
0.221958
0.206501
0.191528
0.177033
0.163013
0.149471
0.136417
0.123865
0.111838
0.100362
0.089468
0.0791897
0.0695595
0.060607
0.0523565
0.0448244
0.0380173
0.031931
0.0265501
0.0218482
0.0177889
0.0143274
0.0114127
0.00898961
0.00700114
0.00539046
0.00410276
0.0030867
0.00229542
0.00168721
0.00122579
0.000880242
0.000624776
0.000438438
0.00030366
0.000210177
0.000133109
0.000133109
1.00001
0.999992
0.99954
0.998615
0.997207
0.995316
0.992954
0.990144
0.986922
0.983331
0.979421
0.975241
0.970836
0.966247
0.961513
0.956664
0.951728
0.946727
0.941682
0.936608
0.931521
0.926431
0.921339
0.91624
0.911112
0.905916
0.900598
0.895086
0.889297
0.883142
0.87653
0.869371
0.861586
0.853105
0.843873
0.833849
0.823009
0.811345
0.798864
0.785585
0.771542
0.756775
0.741337
0.725285
0.70868
0.691589
0.674078
0.656214
0.638063
0.61969
0.601157
0.582523
0.563841
0.545163
0.526533
0.507991
0.489571
0.471302
0.453206
0.435299
0.417589
0.40008
0.382769
0.365645
0.348695
0.331896
0.315226
0.298658
0.282168
0.265732
0.249336
0.232976
0.216663
0.200425
0.18431
0.168387
0.152745
0.137486
0.122724
0.108578
0.095165
0.0825901
0.0709433
0.0602925
0.0506806
0.0421233
0.03461
0.0281056
0.0225541
0.0178832
0.014009
0.0108414
0.00828821
0.00625925
0.00466948
0.00344121
0.00250518
0.00180222
0.00127864
0.000906788
0.000587875
0.000587875
1.00143
0.99857
0.991252
0.98188
0.971566
0.96086
0.950051
0.939311
0.928756
0.918467
0.908503
0.898898
0.889671
0.880827
0.87236
0.864261
0.856512
0.849097
0.841997
0.835192
0.828664
0.822396
0.81637
0.810568
0.804972
0.799561
0.79431
0.789191
0.78417
0.779206
0.774258
0.769278
0.764216
0.759021
0.753642
0.748032
0.742143
0.735935
0.72937
0.722418
0.715054
0.707258
0.699019
0.690331
0.681192
0.671609
0.661591
0.651153
0.640313
0.629092
0.617514
0.605604
0.593391
0.580901
0.568163
0.555204
0.54205
0.528726
0.515253
0.50165
0.487931
0.474106
0.46018
0.446149
0.432002
0.417722
0.403278
0.388632
0.373736
0.358535
0.342972
0.326989
0.310541
0.293597
0.276151
0.25823
0.239899
0.221262
0.202462
0.183676
0.165108
0.146973
0.129491
0.11287
0.0972908
0.0829037
0.0698163
0.0580917
0.0477488
0.0387645
0.0310798
0.0246072
0.019238
0.0148512
0.0113206
0.00852093
0.006333
0.00464957
0.00336467
0.00243405
0.00160978
0.00160978
1.0456
0.954401
0.887723
0.838674
0.801641
0.772861
0.749886
0.731119
0.715499
0.702298
0.691001
0.681228
0.672693
0.665173
0.658493
0.652515
0.647126
0.642236
0.637772
0.633674
0.629891
0.626383
0.623115
0.620059
0.61719
0.614487
0.61193
0.609501
0.607183
0.604958
0.602808
0.600712
0.598651
0.596602
0.594541
0.592444
0.590286
0.588041
0.585683
0.583186
0.580525
0.577678
0.574621
0.571336
0.567802
0.564005
0.55993
0.555566
0.550904
0.545938
0.540662
0.535076
0.529178
0.52297
0.516456
0.509641
0.50253
0.49513
0.487446
0.479486
0.471254
0.462752
0.453981
0.444935
0.435603
0.425964
0.415989
0.405633
0.394838
0.383532
0.371631
0.359042
0.345672
0.331436
0.316269
0.300139
0.283053
0.265073
0.246315
0.22695
0.207201
0.187327
0.167614
0.148356
0.129835
0.112306
0.0959863
0.0810385
0.0675708
0.0556344
0.0452262
0.0362964
0.0287569
0.0224913
0.0173652
0.013236
0.00995925
0.00740096
0.00541924
0.00396699
0.00265552
0.00265552
-0.0455988
0.0455988
0.112277
0.161327
0.198359
0.227139
0.250114
0.268881
0.284502
0.297702
0.308999
0.318772
0.327307
0.334827
0.341507
0.347485
0.352874
0.357764
0.362228
0.366327
0.37011
0.373618
0.376885
0.379941
0.38281
0.385511
0.388063
0.39048
0.392775
0.394957
0.397035
0.399015
0.400902
0.402697
0.404403
0.406017
0.407537
0.408959
0.410277
0.411483
0.412569
0.413525
0.414341
0.415005
0.415505
0.415829
0.415964
0.415898
0.415619
0.415114
0.414372
0.413381
0.412133
0.410617
0.408826