# vtk DataFile Version 3.0
FlowField
ASCII
DATASET STRUCTURED_GRID
DIMENSIONS 102 12 1 
POINTS 1224 double
0 0 0
0.3 0 0
0.6 0 0
0.9 0 0
1.2 0 0
1.5 0 0
1.8 0 0
2.1 0 0
2.4 0 0
2.7 0 0
3 0 0
3.3 0 0
3.6 0 0
3.9 0 0
4.2 0 0
4.5 0 0
4.8 0 0
5.1 0 0
5.4 0 0
5.7 0 0
6 0 0
6.3 0 0
6.6 0 0
6.9 0 0
7.2 0 0
7.5 0 0
7.8 0 0
8.1 0 0
8.4 0 0
8.7 0 0
9 0 0
9.3 0 0
9.6 0 0
9.9 0 0
10.2 0 0
10.5 0 0
10.8 0 0
11.1 0 0
11.4 0 0
11.7 0 0
12 0 0
12.3 0 0
12.6 0 0
12.9 0 0
13.2 0 0
13.5 0 0
13.8 0 0
14.1 0 0
14.4 0 0
14.7 0 0
15 0 0
15.3 0 0
15.6 0 0
15.9 0 0
16.2 0 0
16.5 0 0
16.8 0 0
17.1 0 0
17.4 0 0
17.7 0 0
18 0 0
18.3 0 0
18.6 0 0
18.9 0 0
19.2 0 0
19.5 0 0
19.8 0 0
20.1 0 0
20.4 0 0
20.7 0 0
21 0 0
21.3 0 0
21.6 0 0
21.9 0 0
22.2 0 0
22.5 0 0
22.8 0 0
23.1 0 0
23.4 0 0
23.7 0 0
24 0 0
24.3 0 0
24.6 0 0
24.9 0 0
25.2 0 0
25.5 0 0
25.8 0 0
26.1 0 0
26.4 0 0
26.7 0 0
27 0 0
27.3 0 0
27.6 0 0
27.9 0 0
28.2 0 0
28.5 0 0
28.8 0 0
29.1 0 0
29.4 0 0
29.7 0 0
30 0 0
30.3 0 0
0 0.1 0
0.3 0.1 0
0.6 0.1 0
0.9 0.1 0
1.2 0.1 0
1.5 0.1 0
1.8 0.1 0
2.1 0.1 0
2.4 0.1 0
2.7 0.1 0
3 0.1 0
3.3 0.1 0
3.6 0.1 0
3.9 0.1 0
4.2 0.1 0
4.5 0.1 0
4.8 0.1 0
5.1 0.1 0
5.4 0.1 0
5.7 0.1 0
6 0.1 0
6.3 0.1 0
6.6 0.1 0
6.9 0.1 0
7.2 0.1 0
7.5 0.1 0
7.8 0.1 0
8.1 0.1 0
8.4 0.1 0
8.7 0.1 0
9 0.1 0
9.3 0.1 0
9.6 0.1 0
9.9 0.1 0
10.2 0.1 0
10.5 0.1 0
10.8 0.1 0
11.1 0.1 0
11.4 0.1 0
11.7 0.1 0
12 0.1 0
12.3 0.1 0
12.6 0.1 0
12.9 0.1 0
13.2 0.1 0
13.5 0.1 0
13.8 0.1 0
14.1 0.1 0
14.4 0.1 0
14.7 0.1 0
15 0.1 0
15.3 0.1 0
15.6 0.1 0
15.9 0.1 0
16.2 0.1 0
16.5 0.1 0
16.8 0.1 0
17.1 0.1 0
17.4 0.1 0
17.7 0.1 0
18 0.1 0
18.3 0.1 0
18.6 0.1 0
18.9 0.1 0
19.2 0.1 0
19.5 0.1 0
19.8 0.1 0
20.1 0.1 0
20.4 0.1 0
20.7 0.1 0
21 0.1 0
21.3 0.1 0
21.6 0.1 0
21.9 0.1 0
22.2 0.1 0
22.5 0.1 0
22.8 0.1 0
23.1 0.1 0
23.4 0.1 0
23.7 0.1 0
24 0.1 0
24.3 0.1 0
24.6 0.1 0
24.9 0.1 0
25.2 0.1 0
25.5 0.1 0
25.8 0.1 0
26.1 0.1 0
26.4 0.1 0
26.7 0.1 0
27 0.1 0
27.3 0.1 0
27.6 0.1 0
27.9 0.1 0
28.2 0.1 0
28.5 0.1 0
28.8 0.1 0
29.1 0.1 0
29.4 0.1 0
29.7 0.1 0
30 0.1 0
30.3 0.1 0
0 0.2 0
0.3 0.2 0
0.6 0.2 0
0.9 0.2 0
1.2 0.2 0
1.5 0.2 0
1.8 0.2 0
2.1 0.2 0
2.4 0.2 0
2.7 0.2 0
3 0.2 0
3.3 0.2 0
3.6 0.2 0
3.9 0.2 0
4.2 0.2 0
4.5 0.2 0
4.8 0.2 0
5.1 0.2 0
5.4 0.2 0
5.7 0.2 0
6 0.2 0
6.3 0.2 0
6.6 0.2 0
6.9 0.2 0
7.2 0.2 0
7.5 0.2 0
7.8 0.2 0
8.1 0.2 0
8.4 0.2 0
8.7 0.2 0
9 0.2 0
9.3 0.2 0
9.6 0.2 0
9.9 0.2 0
10.2 0.2 0
10.5 0.2 0
10.8 0.2 0
11.1 0.2 0
11.4 0.2 0
11.7 0.2 0
12 0.2 0
12.3 0.2 0
12.6 0.2 0
12.9 0.2 0
13.2 0.2 0
13.5 0.2 0
13.8 0.2 0
14.1 0.2 0
14.4 0.2 0
14.7 0.2 0
15 0.2 0
15.3 0.2 0
15.6 0.2 0
15.9 0.2 0
16.2 0.2 0
16.5 0.2 0
16.8 0.2 0
17.1 0.2 0
17.4 0.2 0
17.7 0.2 0
18 0.2 0
18.3 0.2 0
18.6 0.2 0
18.9 0.2 0
19.2 0.2 0
19.5 0.2 0
19.8 0.2 0
20.1 0.2 0
20.4 0.2 0
20.7 0.2 0
21 0.2 0
21.3 0.2 0
21.6 0.2 0
21.9 0.2 0
22.2 0.2 0
22.5 0.2 0
22.8 0.2 0
23.1 0.2 0
23.4 0.2 0
23.7 0.2 0
24 0.2 0
24.3 0.2 0
24.6 0.2 0
24.9 0.2 0
25.2 0.2 0
25.5 0.2 0
25.8 0.2 0
26.1 0.2 0
26.4 0.2 0
26.7 0.2 0
27 0.2 0
27.3 0.2 0
27.6 0.2 0
27.9 0.2 0
28.2 0.2 0
28.5 0.2 0
28.8 0.2 0
29.1 0.2 0
29.4 0.2 0
29.7 0.2 0
30 0.2 0
30.3 0.2 0
0 0.3 0
0.3 0.3 0
0.6 0.3 0
0.9 0.3 0
1.2 0.3 0
1.5 0.3 0
1.8 0.3 0
2.1 0.3 0
2.4 0.3 0
2.7 0.3 0
3 0.3 0
3.3 0.3 0
3.6 0.3 0
3.9 0.3 0
4.2 0.3 0
4.5 0.3 0
4.8 0.3 0
5.1 0.3 0
5.4 0.3 0
5.7 0.3 0
6 0.3 0
6.3 0.3 0
6.6 0.3 0
6.9 0.3 0
7.2 0.3 0
7.5 0.3 0
7.8 0.3 0
8.1 0.3 0
8.4 0.3 0
8.7 0.3 0
9 0.3 0
9.3 0.3 0
9.6 0.3 0
9.9 0.3 0
10.2 0.3 0
10.5 0.3 0
10.8 0.3 0
11.1 0.3 0
11.4 0.3 0
11.7 0.3 0
12 0.3 0
12.3 0.3 0
12.6 0.3 0
12.9 0.3 0
13.2 0.3 0
13.5 0.3 0
13.8 0.3 0
14.1 0.3 0
14.4 0.3 0
14.7 0.3 0
15 0.3 0
15.3 0.3 0
15.6 0.3 0
15.9 0.3 0
16.2 0.3 0
16.5 0.3 0
16.8 0.3 0
17.1 0.3 0
17.4 0.3 0
17.7 0.3 0
18 0.3 0
18.3 0.3 0
18.6 0.3 0
18.9 0.3 0
19.2 0.3 0
19.5 0.3 0
19.8 0.3 0
20.1 0.3 0
20.4 0.3 0
20.7 0.3 0
21 0.3 0
21.3 0.3 0
21.6 0.3 0
21.9 0.3 0
22.2 0.3 0
22.5 0.3 0
22.8 0.3 0
23.1 0.3 0
23.4 0.3 0
23.7 0.3 0
24 0.3 0
24.3 0.3 0
24.6 0.3 0
24.9 0.3 0
25.2 0.3 0
25.5 0.3 0
25.8 0.3 0
26.1 0.3 0
26.4 0.3 0
26.7 0.3 0
27 0.3 0
27.3 0.3 0
27.6 0.3 0
27.9 0.3 0
28.2 0.3 0
28.5 0.3 0
28.8 0.3 0
29.1 0.3 0
29.4 0.3 0
29.7 0.3 0
30 0.3 0
30.3 0.3 0
0 0.4 0
0.3 0.4 0
0.6 0.4 0
0.9 0.4 0
1.2 0.4 0
1.5 0.4 0
1.8 0.4 0
2.1 0.4 0
2.4 0.4 0
2.7 0.4 0
3 0.4 0
3.3 0.4 0
3.6 0.4 0
3.9 0.4 0
4.2 0.4 0
4.5 0.4 0
4.8 0.4 0
5.1 0.4 0
5.4 0.4 0
5.7 0.4 0
6 0.4 0
6.3 0.4 0
6.6 0.4 0
6.9 0.4 0
7.2 0.4 0
7.5 0.4 0
7.8 0.4 0
8.1 0.4 0
8.4 0.4 0
8.7 0.4 0
9 0.4 0
9.3 0.4 0
9.6 0.4 0
9.9 0.4 0
10.2 0.4 0
10.5 0.4 0
10.8 0.4 0
11.1 0.4 0
11.4 0.4 0
11.7 0.4 0
12 0.4 0
12.3 0.4 0
12.6 0.4 0
12.9 0.4 0
13.2 0.4 0
13.5 0.4 0
13.8 0.4 0
14.1 0.4 0
14.4 0.4 0
14.7 0.4 0
15 0.4 0
15.3 0.4 0
15.6 0.4 0
15.9 0.4 0
16.2 0.4 0
16.5 0.4 0
16.8 0.4 0
17.1 0.4 0
17.4 0.4 0
17.7 0.4 0
18 0.4 0
18.3 0.4 0
18.6 0.4 0
18.9 0.4 0
19.2 0.4 0
19.5 0.4 0
19.8 0.4 0
20.1 0.4 0
20.4 0.4 0
20.7 0.4 0
21 0.4 0
21.3 0.4 0
21.6 0.4 0
21.9 0.4 0
22.2 0.4 0
22.5 0.4 0
22.8 0.4 0
23.1 0.4 0
23.4 0.4 0
23.7 0.4 0
24 0.4 0
24.3 0.4 0
24.6 0.4 0
24.9 0.4 0
25.2 0.4 0
25.5 0.4 0
25.8 0.4 0
26.1 0.4 0
26.4 0.4 0
26.7 0.4 0
27 0.4 0
27.3 0.4 0
27.6 0.4 0
27.9 0.4 0
28.2 0.4 0
28.5 0.4 0
28.8 0.4 0
29.1 0.4 0
29.4 0.4 0
29.7 0.4 0
30 0.4 0
30.3 0.4 0
0 0.5 0
0.3 0.5 0
0.6 0.5 0
0.9 0.5 0
1.2 0.5 0
1.5 0.5 0
1.8 0.5 0
2.1 0.5 0
2.4 0.5 0
2.7 0.5 0
3 0.5 0
3.3 0.5 0
3.6 0.5 0
3.9 0.5 0
4.2 0.5 0
4.5 0.5 0
4.8 0.5 0
5.1 0.5 0
5.4 0.5 0
5.7 0.5 0
6 0.5 0
6.3 0.5 0
6.6 0.5 0
6.9 0.5 0
7.2 0.5 0
7.5 0.5 0
7.8 0.5 0
8.1 0.5 0
8.4 0.5 0
8.7 0.5 0
9 0.5 0
9.3 0.5 0
9.6 0.5 0
9.9 0.5 0
10.2 0.5 0
10.5 0.5 0
10.8 0.5 0
11.1 0.5 0
11.4 0.5 0
11.7 0.5 0
12 0.5 0
12.3 0.5 0
12.6 0.5 0
12.9 0.5 0
13.2 0.5 0
13.5 0.5 0
13.8 0.5 0
14.1 0.5 0
14.4 0.5 0
14.7 0.5 0
15 0.5 0
15.3 0.5 0
15.6 0.5 0
15.9 0.5 0
16.2 0.5 0
16.5 0.5 0
16.8 0.5 0
17.1 0.5 0
17.4 0.5 0
17.7 0.5 0
18 0.5 0
18.3 0.5 0
18.6 0.5 0
18.9 0.5 0
19.2 0.5 0
19.5 0.5 0
19.8 0.5 0
20.1 0.5 0
20.4 0.5 0
20.7 0.5 0
21 0.5 0
21.3 0.5 0
21.6 0.5 0
21.9 0.5 0
22.2 0.5 0
22.5 0.5 0
22.8 0.5 0
23.1 0.5 0
23.4 0.5 0
23.7 0.5 0
24 0.5 0
24.3 0.5 0
24.6 0.5 0
24.9 0.5 0
25.2 0.5 0
25.5 0.5 0
25.8 0.5 0
26.1 0.5 0
26.4 0.5 0
26.7 0.5 0
27 0.5 0
27.3 0.5 0
27.6 0.5 0
27.9 0.5 0
28.2 0.5 0
28.5 0.5 0
28.8 0.5 0
29.1 0.5 0
29.4 0.5 0
29.7 0.5 0
30 0.5 0
30.3 0.5 0
0 0.6 0
0.3 0.6 0
0.6 0.6 0
0.9 0.6 0
1.2 0.6 0
1.5 0.6 0
1.8 0.6 0
2.1 0.6 0
2.4 0.6 0
2.7 0.6 0
3 0.6 0
3.3 0.6 0
3.6 0.6 0
3.9 0.6 0
4.2 0.6 0
4.5 0.6 0
4.8 0.6 0
5.1 0.6 0
5.4 0.6 0
5.7 0.6 0
6 0.6 0
6.3 0.6 0
6.6 0.6 0
6.9 0.6 0
7.2 0.6 0
7.5 0.6 0
7.8 0.6 0
8.1 0.6 0
8.4 0.6 0
8.7 0.6 0
9 0.6 0
9.3 0.6 0
9.6 0.6 0
9.9 0.6 0
10.2 0.6 0
10.5 0.6 0
10.8 0.6 0
11.1 0.6 0
11.4 0.6 0
11.7 0.6 0
12 0.6 0
12.3 0.6 0
12.6 0.6 0
12.9 0.6 0
13.2 0.6 0
13.5 0.6 0
13.8 0.6 0
14.1 0.6 0
14.4 0.6 0
14.7 0.6 0
15 0.6 0
15.3 0.6 0
15.6 0.6 0
15.9 0.6 0
16.2 0.6 0
16.5 0.6 0
16.8 0.6 0
17.1 0.6 0
17.4 0.6 0
17.7 0.6 0
18 0.6 0
18.3 0.6 0
18.6 0.6 0
18.9 0.6 0
19.2 0.6 0
19.5 0.6 0
19.8 0.6 0
20.1 0.6 0
20.4 0.6 0
20.7 0.6 0
21 0.6 0
21.3 0.6 0
21.6 0.6 0
21.9 0.6 0
22.2 0.6 0
22.5 0.6 0
22.8 0.6 0
23.1 0.6 0
23.4 0.6 0
23.7 0.6 0
24 0.6 0
24.3 0.6 0
24.6 0.6 0
24.9 0.6 0
25.2 0.6 0
25.5 0.6 0
25.8 0.6 0
26.1 0.6 0
26.4 0.6 0
26.7 0.6 0
27 0.6 0
27.3 0.6 0
27.6 0.6 0
27.9 0.6 0
28.2 0.6 0
28.5 0.6 0
28.8 0.6 0
29.1 0.6 0
29.4 0.6 0
29.7 0.6 0
30 0.6 0
30.3 0.6 0
0 0.7 0
0.3 0.7 0
0.6 0.7 0
0.9 0.7 0
1.2 0.7 0
1.5 0.7 0
1.8 0.7 0
2.1 0.7 0
2.4 0.7 0
2.7 0.7 0
3 0.7 0
3.3 0.7 0
3.6 0.7 0
3.9 0.7 0
4.2 0.7 0
4.5 0.7 0
4.8 0.7 0
5.1 0.7 0
5.4 0.7 0
5.7 0.7 0
6 0.7 0
6.3 0.7 0
6.6 0.7 0
6.9 0.7 0
7.2 0.7 0
7.5 0.7 0
7.8 0.7 0
8.1 0.7 0
8.4 0.7 0
8.7 0.7 0
9 0.7 0
9.3 0.7 0
9.6 0.7 0
9.9 0.7 0
10.2 0.7 0
10.5 0.7 0
10.8 0.7 0
11.1 0.7 0
11.4 0.7 0
11.7 0.7 0
12 0.7 0
12.3 0.7 0
12.6 0.7 0
12.9 0.7 0
13.2 0.7 0
13.5 0.7 0
13.8 0.7 0
14.1 0.7 0
14.4 0.7 0
14.7 0.7 0
15 0.7 0
15.3 0.7 0
15.6 0.7 0
15.9 0.7 0
16.2 0.7 0
16.5 0.7 0
16.8 0.7 0
17.1 0.7 0
17.4 0.7 0
17.7 0.7 0
18 0.7 0
18.3 0.7 0
18.6 0.7 0
18.9 0.7 0
19.2 0.7 0
19.5 0.7 0
19.8 0.7 0
20.1 0.7 0
20.4 0.7 0
20.7 0.7 0
21 0.7 0
21.3 0.7 0
21.6 0.7 0
21.9 0.7 0
22.2 0.7 0
22.5 0.7 0
22.8 0.7 0
23.1 0.7 0
23.4 0.7 0
23.7 0.7 0
24 0.7 0
24.3 0.7 0
24.6 0.7 0
24.9 0.7 0
25.2 0.7 0
25.5 0.7 0
25.8 0.7 0
26.1 0.7 0
26.4 0.7 0
26.7 0.7 0
27 0.7 0
27.3 0.7 0
27.6 0.7 0
27.9 0.7 0
28.2 0.7 0
28.5 0.7 0
28.8 0.7 0
29.1 0.7 0
29.4 0.7 0
29.7 0.7 0
30 0.7 0
30.3 0.7 0
0 0.8 0
0.3 0.8 0
0.6 0.8 0
0.9 0.8 0
1.2 0.8 0
1.5 0.8 0
1.8 0.8 0
2.1 0.8 0
2.4 0.8 0
2.7 0.8 0
3 0.8 0
3.3 0.8 0
3.6 0.8 0
3.9 0.8 0
4.2 0.8 0
4.5 0.8 0
4.8 0.8 0
5.1 0.8 0
5.4 0.8 0
5.7 0.8 0
6 0.8 0
6.3 0.8 0
6.6 0.8 0
6.9 0.8 0
7.2 0.8 0
7.5 0.8 0
7.8 0.8 0
8.1 0.8 0
8.4 0.8 0
8.7 0.8 0
9 0.8 0
9.3 0.8 0
9.6 0.8 0
9.9 0.8 0
10.2 0.8 0
10.5 0.8 0
10.8 0.8 0
11.1 0.8 0
11.4 0.8 0
11.7 0.8 0
12 0.8 0
12.3 0.8 0
12.6 0.8 0
12.9 0.8 0
13.2 0.8 0
13.5 0.8 0
13.8 0.8 0
14.1 0.8 0
14.4 0.8 0
14.7 0.8 0
15 0.8 0
15.3 0.8 0
15.6 0.8 0
15.9 0.8 0
16.2 0.8 0
16.5 0.8 0
16.8 0.8 0
17.1 0.8 0
17.4 0.8 0
17.7 0.8 0
18 0.8 0
18.3 0.8 0
18.6 0.8 0
18.9 0.8 0
19.2 0.8 0
19.5 0.8 0
19.8 0.8 0
20.1 0.8 0
20.4 0.8 0
20.7 0.8 0
21 0.8 0
21.3 0.8 0
21.6 0.8 0
21.9 0.8 0
22.2 0.8 0
22.5 0.8 0
22.8 0.8 0
23.1 0.8 0
23.4 0.8 0
23.7 0.8 0
24 0.8 0
24.3 0.8 0
24.6 0.8 0
24.9 0.8 0
25.2 0.8 0
25.5 0.8 0
25.8 0.8 0
26.1 0.8 0
26.4 0.8 0
26.7 0.8 0
27 0.8 0
27.3 0.8 0
27.6 0.8 0
27.9 0.8 0
28.2 0.8 0
28.5 0.8 0
28.8 0.8 0
29.1 0.8 0
29.4 0.8 0
29.7 0.8 0
30 0.8 0
30.3 0.8 0
0 0.9 0
0.3 0.9 0
0.6 0.9 0
0.9 0.9 0
1.2 0.9 0
1.5 0.9 0
1.8 0.9 0
2.1 0.9 0
2.4 0.9 0
2.7 0.9 0
3 0.9 0
3.3 0.9 0
3.6 0.9 0
3.9 0.9 0
4.2 0.9 0
4.5 0.9 0
4.8 0.9 0
5.1 0.9 0
5.4 0.9 0
5.7 0.9 0
6 0.9 0
6.3 0.9 0
6.6 0.9 0
6.9 0.9 0
7.2 0.9 0
7.5 0.9 0
7.8 0.9 0
8.1 0.9 0
8.4 0.9 0
8.7 0.9 0
9 0.9 0
9.3 0.9 0
9.6 0.9 0
9.9 0.9 0
10.2 0.9 0
10.5 0.9 0
10.8 0.9 0
11.1 0.9 0
11.4 0.9 0
11.7 0.9 0
12 0.9 0
12.3 0.9 0
12.6 0.9 0
12.9 0.9 0
13.2 0.9 0
13.5 0.9 0
13.8 0.9 0
14.1 0.9 0
14.4 0.9 0
14.7 0.9 0
15 0.9 0
15.3 0.9 0
15.6 0.9 0
15.9 0.9 0
16.2 0.9 0
16.5 0.9 0
16.8 0.9 0
17.1 0.9 0
17.4 0.9 0
17.7 0.9 0
18 0.9 0
18.3 0.9 0
18.6 0.9 0
18.9 0.9 0
19.2 0.9 0
19.5 0.9 0
19.8 0.9 0
20.1 0.9 0
20.4 0.9 0
20.7 0.9 0
21 0.9 0
21.3 0.9 0
21.6 0.9 0
21.9 0.9 0
22.2 0.9 0
22.5 0.9 0
22.8 0.9 0
23.1 0.9 0
23.4 0.9 0
23.7 0.9 0
24 0.9 0
24.3 0.9 0
24.6 0.9 0
24.9 0.9 0
25.2 0.9 0
25.5 0.9 0
25.8 0.9 0
26.1 0.9 0
26.4 0.9 0
26.7 0.9 0
27 0.9 0
27.3 0.9 0
27.6 0.9 0
27.9 0.9 0
28.2 0.9 0
28.5 0.9 0
28.8 0.9 0
29.1 0.9 0
29.4 0.9 0
29.7 0.9 0
30 0.9 0
30.3 0.9 0
0 1 0
0.3 1 0
0.6 1 0
0.9 1 0
1.2 1 0
1.5 1 0
1.8 1 0
2.1 1 0
2.4 1 0
2.7 1 0
3 1 0
3.3 1 0
3.6 1 0
3.9 1 0
4.2 1 0
4.5 1 0
4.8 1 0
5.1 1 0
5.4 1 0
5.7 1 0
6 1 0
6.3 1 0
6.6 1 0
6.9 1 0
7.2 1 0
7.5 1 0
7.8 1 0
8.1 1 0
8.4 1 0
8.7 1 0
9 1 0
9.3 1 0
9.6 1 0
9.9 1 0
10.2 1 0
10.5 1 0
10.8 1 0
11.1 1 0
11.4 1 0
11.7 1 0
12 1 0
12.3 1 0
12.6 1 0
12.9 1 0
13.2 1 0
13.5 1 0
13.8 1 0
14.1 1 0
14.4 1 0
14.7 1 0
15 1 0
15.3 1 0
15.6 1 0
15.9 1 0
16.2 1 0
16.5 1 0
16.8 1 0
17.1 1 0
17.4 1 0
17.7 1 0
18 1 0
18.3 1 0
18.6 1 0
18.9 1 0
19.2 1 0
19.5 1 0
19.8 1 0
20.1 1 0
20.4 1 0
20.7 1 0
21 1 0
21.3 1 0
21.6 1 0
21.9 1 0
22.2 1 0
22.5 1 0
22.8 1 0
23.1 1 0
23.4 1 0
23.7 1 0
24 1 0
24.3 1 0
24.6 1 0
24.9 1 0
25.2 1 0
25.5 1 0
25.8 1 0
26.1 1 0
26.4 1 0
26.7 1 0
27 1 0
27.3 1 0
27.6 1 0
27.9 1 0
28.2 1 0
28.5 1 0
28.8 1 0
29.1 1 0
29.4 1 0
29.7 1 0
30 1 0
30.3 1 0
0 1.1 0
0.3 1.1 0
0.6 1.1 0
0.9 1.1 0
1.2 1.1 0
1.5 1.1 0
1.8 1.1 0
2.1 1.1 0
2.4 1.1 0
2.7 1.1 0
3 1.1 0
3.3 1.1 0
3.6 1.1 0
3.9 1.1 0
4.2 1.1 0
4.5 1.1 0
4.8 1.1 0
5.1 1.1 0
5.4 1.1 0
5.7 1.1 0
6 1.1 0
6.3 1.1 0
6.6 1.1 0
6.9 1.1 0
7.2 1.1 0
7.5 1.1 0
7.8 1.1 0
8.1 1.1 0
8.4 1.1 0
8.7 1.1 0
9 1.1 0
9.3 1.1 0
9.6 1.1 0
9.9 1.1 0
10.2 1.1 0
10.5 1.1 0
10.8 1.1 0
11.1 1.1 0
11.4 1.1 0
11.7 1.1 0
12 1.1 0
12.3 1.1 0
12.6 1.1 0
12.9 1.1 0
13.2 1.1 0
13.5 1.1 0
13.8 1.1 0
14.1 1.1 0
14.4 1.1 0
14.7 1.1 0
15 1.1 0
15.3 1.1 0
15.6 1.1 0
15.9 1.1 0
16.2 1.1 0
16.5 1.1 0
16.8 1.1 0
17.1 1.1 0
17.4 1.1 0
17.7 1.1 0
18 1.1 0
18.3 1.1 0
18.6 1.1 0
18.9 1.1 0
19.2 1.1 0
19.5 1.1 0
19.8 1.1 0
20.1 1.1 0
20.4 1.1 0
20.7 1.1 0
21 1.1 0
21.3 1.1 0
21.6 1.1 0
21.9 1.1 0
22.2 1.1 0
22.5 1.1 0
22.8 1.1 0
23.1 1.1 0
23.4 1.1 0
23.7 1.1 0
24 1.1 0
24.3 1.1 0
24.6 1.1 0
24.9 1.1 0
25.2 1.1 0
25.5 1.1 0
25.8 1.1 0
26.1 1.1 0
26.4 1.1 0
26.7 1.1 0
27 1.1 0
27.3 1.1 0
27.6 1.1 0
27.9 1.1 0
28.2 1.1 0
28.5 1.1 0
28.8 1.1 0
29.1 1.1 0
29.4 1.1 0
29.7 1.1 0
30 1.1 0
30.3 1.1 0

POINT_DATA 1224

SCALARS pressure double
LOOKUP_TABLE pressure
1.31576
1.31576
1.24926
1.20218
1.15923
1.11957
1.08355
1.05116
1.02206
0.995726
0.971614
0.949262
0.928289
0.908408
0.889402
0.871112
0.853421
0.83624
0.819501
0.80315
0.787147
0.771455
0.756045
0.740893
0.725975
0.711274
0.696772
0.682454
0.668306
0.654315
0.64047
0.626761
0.613178
0.599713
0.586357
0.573103
0.559944
0.546875
0.533888
0.520978
0.508141
0.495372
0.482666
0.47002
0.457428
0.444889
0.432399
0.419954
0.407552
0.395189
0.382864
0.370575
0.358318
0.346091
0.333894
0.321724
0.309579
0.297458
0.285359
0.273281
0.261222
0.249182
0.237159
0.225153
0.213161
0.201183
0.189219
0.177268
0.165328
0.153398
0.14148
0.12957
0.11767
0.105779
0.0938948
0.0820185
0.0701492
0.0582864
0.0464297
0.0345788
0.0227332
0.0108927
-0.000943049
-0.0127744
-0.0246015
-0.0364248
-0.0482444
-0.0600605
-0.0718735
-0.0836834
-0.0954905
-0.107295
-0.119097
-0.130897
-0.142694
-0.15449
-0.166283
-0.178075
-0.189865
-0.201654
-0.213441
0.213441
1.31576
1.31576
1.24926
1.20218
1.15923
1.11957
1.08355
1.05116
1.02206
0.995726
0.971614
0.949262
0.928289
0.908408
0.889402
0.871112
0.853421
0.83624
0.819501
0.80315
0.787147
0.771455
0.756045
0.740893
0.725975
0.711274
0.696772
0.682454
0.668306
0.654315
0.64047
0.626761
0.613178
0.599713
0.586357
0.573103
0.559944
0.546875
0.533888
0.520978
0.508141
0.495372
0.482666
0.47002
0.457428
0.444889
0.432399
0.419954
0.407552
0.395189
0.382864
0.370575
0.358318
0.346091
0.333894
0.321724
0.309579
0.297458
0.285359
0.273281
0.261222
0.249182
0.237159
0.225153
0.213161
0.201183
0.189219
0.177268
0.165328
0.153398
0.14148
0.12957
0.11767
0.105779
0.0938948
0.0820185
0.0701492
0.0582864
0.0464297
0.0345788
0.0227332
0.0108927
-0.000943049
-0.0127744
-0.0246015
-0.0364248
-0.0482444
-0.0600605
-0.0718735
-0.0836834
-0.0954905
-0.107295
-0.119097
-0.130897
-0.142694
-0.15449
-0.166283
-0.178075
-0.189865
-0.201654
-0.213441
0.213441
1.29511
1.29511
1.24746
1.20249
1.15994
1.12034
1.08425
1.05175
1.02254
0.996095
0.9719
0.949483
0.928462
0.908545
0.889513
0.871204
0.853498
0.836306
0.819558
0.803201
0.787192
0.771495
0.756082
0.740925
0.726005
0.711302
0.696797
0.682477
0.668327
0.654334
0.640488
0.626777
0.613193
0.599727
0.58637
0.573115
0.559956
0.546885
0.533897
0.520987
0.50815
0.49538
0.482674
0.470026
0.457435
0.444895
0.432404
0.419959
0.407556
0.395194
0.382869
0.370578
0.358321
0.346095
0.333897
0.321727
0.309582
0.29746
0.285361
0.273283
0.261224
0.249184
0.237161
0.225154
0.213163
0.201185
0.189221
0.177269
0.165329
0.1534
0.141481
0.129572
0.117671
0.10578
0.0938957
0.0820193
0.0701499
0.0582871
0.0464304
0.0345794
0.0227338
0.0108933
-0.000942533
-0.0127739
-0.0246011
-0.0364244
-0.048244
-0.0600602
-0.0718731
-0.0836831
-0.0954902
-0.107295
-0.119097
-0.130896
-0.142694
-0.154489
-0.166283
-0.178075
-0.189864
-0.201653
-0.21344
0.21344
1.28073
1.28073
1.24495
1.20288
1.16107
1.12161
1.08542
1.05275
1.02333
0.996701
0.972356
0.949824
0.928718
0.908739
0.889663
0.871322
0.853594
0.836385
0.819624
0.803257
0.78724
0.771538
0.756119
0.740958
0.726035
0.711328
0.696821
0.682498
0.668346
0.654352
0.640504
0.626792
0.613207
0.59974
0.586382
0.573126
0.559965
0.546894
0.533906
0.520995
0.508157
0.495387
0.48268
0.470032
0.45744
0.4449
0.432409
0.419963
0.40756
0.395197
0.382872
0.370582
0.358324
0.346098
0.3339
0.321729
0.309584
0.297462
0.285363
0.273285
0.261226
0.249186
0.237163
0.225156
0.213164
0.201186
0.189222
0.17727
0.16533
0.153401
0.141482
0.129572
0.117672
0.10578
0.0938964
0.08202
0.0701506
0.0582877
0.0464309
0.0345799
0.0227343
0.0108937
-0.00094212
-0.0127735
-0.0246007
-0.036424
-0.0482437
-0.0600599
-0.0718729
-0.0836828
-0.09549
-0.107294
-0.119096
-0.130896
-0.142694
-0.154489
-0.166283
-0.178074
-0.189864
-0.201653
-0.213437
0.213437
1.27204
1.27204
1.24294
1.20314
1.162
1.12269
1.08646
1.05364
1.02406
0.99728
0.972805
0.950169
0.928984
0.908947
0.889828
0.871456
0.853703
0.836476
0.819702
0.803324
0.787298
0.771588
0.756164
0.740998
0.72607
0.71136
0.69685
0.682524
0.66837
0.654373
0.640523
0.62681
0.613223
0.599754
0.586395
0.573138
0.559977
0.546905
0.533915
0.521004
0.508165
0.495394
0.482687
0.470039
0.457446
0.444906
0.432414
0.419968
0.407565
0.395202
0.382876
0.370585
0.358328
0.346101
0.333903
0.321732
0.309587
0.297465
0.285365
0.273287
0.261228
0.249188
0.237164
0.225157
0.213165
0.201188
0.189223
0.177271
0.165331
0.153402
0.141483
0.129573
0.117673
0.105781
0.0938972
0.0820207
0.0701513
0.0582883
0.0464315
0.0345805
0.0227348
0.0108942
-0.000941642
-0.012773
-0.0246003
-0.0364236
-0.0482433
-0.0600595
-0.0718725
-0.0836825
-0.0954897
-0.107294
-0.119096
-0.130896
-0.142693
-0.154489
-0.166282
-0.178074
-0.189864
-0.201652
-0.213431
0.213431
1.26796
1.26796
1.24186
1.20326
1.16249
1.12327
1.08702
1.05414
1.02448
0.997615
0.973069
0.950376
0.929147
0.909077
0.889934
0.871543
0.853777
0.836539
0.819756
0.803371
0.78734
0.771625
0.756196
0.741028
0.726097
0.711384
0.696871
0.682544
0.668387
0.654389
0.640538
0.626824
0.613236
0.599766
0.586406
0.573148
0.559986
0.546913
0.533923
0.521011
0.508172
0.4954
0.482692
0.470044
0.457451
0.444911
0.432419
0.419972
0.407569
0.395205
0.382879
0.370588
0.35833
0.346103
0.333905
0.321734
0.309589
0.297467
0.285367
0.273289
0.26123
0.249189
0.237166
0.225159
0.213167
0.201189
0.189224
0.177272
0.165332
0.153403
0.141484
0.129574
0.117674
0.105782
0.0938979
0.0820213
0.0701518
0.0582888
0.046432
0.0345809
0.0227352
0.0108946
-0.000941262
-0.0127727
-0.0246
-0.0364233
-0.048243
-0.0600592
-0.0718723
-0.0836823
-0.0954895
-0.107294
-0.119096
-0.130896
-0.142693
-0.154489
-0.166282
-0.178074
-0.189864
-0.201651
-0.213426
0.213426
1.26796
1.26796
1.24186
1.20326
1.16249
1.12327
1.08702
1.05414
1.02448
0.997615
0.973069
0.950376
0.929147
0.909077
0.889934
0.871543
0.853777
0.836538
0.819756
0.803371
0.78734
0.771625
0.756196
0.741028
0.726097
0.711384
0.696871
0.682544
0.668387
0.654389
0.640538
0.626824
0.613236
0.599766
0.586406
0.573148
0.559986
0.546913
0.533923
0.521011
0.508172
0.4954
0.482692
0.470044
0.457451
0.444911
0.432419
0.419972
0.407569
0.395205
0.382879
0.370588
0.35833
0.346103
0.333905
0.321734
0.309589
0.297467
0.285367
0.273289
0.26123
0.249189
0.237166
0.225159
0.213167
0.201189
0.189224
0.177272
0.165332
0.153403
0.141484
0.129574
0.117674
0.105782
0.0938979
0.0820213
0.0701518
0.0582888
0.046432
0.0345809
0.0227352
0.0108946
-0.000941262
-0.0127727
-0.0246
-0.0364233
-0.048243
-0.0600592
-0.0718723
-0.0836823
-0.0954895
-0.107294
-0.119096
-0.130896
-0.142693
-0.154489
-0.166282
-0.178074
-0.189864
-0.201651
-0.213426
0.213426
1.27204
1.27204
1.24294
1.20314
1.162
1.12269
1.08646
1.05364
1.02406
0.99728
0.972805
0.950168
0.928984
0.908947
0.889828
0.871456
0.853703
0.836476
0.819702
0.803324
0.787298
0.771588
0.756164
0.740998
0.72607
0.71136
0.69685
0.682524
0.66837
0.654373
0.640524
0.62681
0.613223
0.599754
0.586395
0.573138
0.559977
0.546905
0.533915
0.521004
0.508165
0.495394
0.482687
0.470039
0.457446
0.444906
0.432414
0.419968
0.407565
0.395202
0.382876
0.370585
0.358328
0.346101
0.333903
0.321732
0.309587
0.297465
0.285365
0.273287
0.261228
0.249188
0.237164
0.225157
0.213165
0.201188
0.189223
0.177271
0.165331
0.153402
0.141483
0.129573
0.117673
0.105781
0.0938972
0.0820207
0.0701513
0.0582883
0.0464315
0.0345805
0.0227348
0.0108942
-0.000941642
-0.012773
-0.0246003
-0.0364236
-0.0482433
-0.0600595
-0.0718725
-0.0836825
-0.0954897
-0.107294
-0.119096
-0.130896
-0.142693
-0.154489
-0.166282
-0.178074
-0.189864
-0.201652
-0.213431
0.213431
1.28073
1.28073
1.24495
1.20288
1.16107
1.12161
1.08542
1.05275
1.02333
0.996701
0.972356
0.949824
0.928718
0.908739
0.889663
0.871322
0.853594
0.836385
0.819624
0.803257
0.78724
0.771538
0.756119
0.740958
0.726035
0.711328
0.696821
0.682498
0.668346
0.654352
0.640504
0.626792
0.613207
0.59974
0.586382
0.573126
0.559965
0.546894
0.533906
0.520995
0.508157
0.495387
0.48268
0.470032
0.45744
0.4449
0.432409
0.419963
0.40756
0.395197
0.382872
0.370582
0.358324
0.346098
0.3339
0.321729
0.309584
0.297462
0.285363
0.273285
0.261226
0.249186
0.237163
0.225156
0.213164
0.201186
0.189222
0.17727
0.16533
0.153401
0.141482
0.129572
0.117672
0.10578
0.0938964
0.08202
0.0701506
0.0582877
0.0464309
0.0345799
0.0227343
0.0108937
-0.00094212
-0.0127735
-0.0246007
-0.036424
-0.0482437
-0.0600599
-0.0718729
-0.0836828
-0.09549
-0.107294
-0.119096
-0.130896
-0.142694
-0.154489
-0.166283
-0.178074
-0.189864
-0.201653
-0.213437
0.213437
1.29512
1.29512
1.24746
1.20249
1.15994
1.12034
1.08425
1.05175
1.02254
0.996095
0.9719
0.949483
0.928462
0.908545
0.889513
0.871204
0.853498
0.836306
0.819558
0.803201
0.787192
0.771495
0.756082
0.740925
0.726005
0.711302
0.696797
0.682477
0.668327
0.654334
0.640488
0.626777
0.613193
0.599727
0.58637
0.573115
0.559956
0.546885
0.533897
0.520987
0.50815
0.49538
0.482674
0.470026
0.457435
0.444895
0.432404
0.419959
0.407556
0.395194
0.382869
0.370578
0.358321
0.346095
0.333897
0.321727
0.309582
0.29746
0.285361
0.273283
0.261224
0.249184
0.237161
0.225154
0.213163
0.201185
0.189221
0.177269
0.165329
0.1534
0.141481
0.129572
0.117671
0.10578
0.0938957
0.0820193
0.0701499
0.0582871
0.0464304
0.0345794
0.0227338
0.0108933
-0.000942534
-0.0127739
-0.0246011
-0.0364244
-0.048244
-0.0600602
-0.0718731
-0.0836831
-0.0954902
-0.107295
-0.119097
-0.130896
-0.142694
-0.154489
-0.166283
-0.178075
-0.189864
-0.201653
-0.21344
0.21344
1.31577
1.31577
1.24926
1.20218
1.15923
1.11957
1.08355
1.05116
1.02206
0.995725
0.971615
0.949262
0.928289
0.908408
0.889402
0.871112
0.853421
0.83624
0.8195
0.80315
0.787147
0.771455
0.756045
0.740893
0.725975
0.711274
0.696772
0.682454
0.668306
0.654315
0.64047
0.626761
0.613178
0.599713
0.586357
0.573103
0.559945
0.546875
0.533888
0.520978
0.508141
0.495372
0.482666
0.47002
0.457429
0.444889
0.432399
0.419954
0.407552
0.395189
0.382864
0.370575
0.358318
0.346091
0.333894
0.321724
0.309579
0.297458
0.285359
0.273281
0.261222
0.249182
0.237159
0.225153
0.213161
0.201183
0.189219
0.177268
0.165328
0.153398
0.14148
0.12957
0.11767
0.105779
0.0938948
0.0820185
0.0701492
0.0582864
0.0464297
0.0345788
0.0227332
0.0108927
-0.00094305
-0.0127744
-0.0246015
-0.0364248
-0.0482444
-0.0600605
-0.0718735
-0.0836834
-0.0954905
-0.107295
-0.119097
-0.130897
-0.142694
-0.15449
-0.166283
-0.178075
-0.189865
-0.201654
-0.21344
0.21344
1.31577
1.31577
1.24926
1.20218
1.15923
1.11957
1.08355
1.05116
1.02206
0.995725
0.971615
0.949262
0.928289
0.908408
0.889402
0.871112
0.853421
0.83624
0.8195
0.80315
0.787147
0.771455
0.756045
0.740893
0.725975
0.711274
0.696772
0.682454
0.668306
0.654315
0.64047
0.626761
0.613178
0.599713
0.586357
0.573103
0.559945
0.546875
0.533888
0.520978
0.508141
0.495372
0.482666
0.47002
0.457429
0.444889
0.432399
0.419954
0.407552
0.395189
0.382864
0.370575
0.358318
0.346091
0.333894
0.321724
0.309579
0.297458
0.285359
0.273281
0.261222
0.249182
0.237159
0.225153
0.213161
0.201183
0.189219
0.177268
0.165328
0.153398
0.14148
0.12957
0.11767
0.105779
0.0938948
0.0820185
0.0701492
0.0582864
0.0464297
0.0345788
0.0227332
0.0108927
-0.00094305
-0.0127744
-0.0246015
-0.0364248
-0.0482444
-0.0600605
-0.0718735
-0.0836834
-0.0954905
-0.107295
-0.119097
-0.130897
-0.142694
-0.15449
-0.166283
-0.178075
-0.189865
-0.201654
-0.21344
0.21344
SCALARS phi double
LOOKUP_TABLE phi
1
1
1
0.999995
0.999977
0.999931
0.999833
0.999655
0.999364
0.998929
0.998323
0.997523
0.996512
0.995279
0.993815
0.992118
0.990189
0.988032
0.985652
0.983059
0.980261
0.97727
0.974097
0.970755
0.967257
0.963614
0.95984
0.955947
0.951946
0.94785
0.943668
0.939412
0.935091
0.930713
0.926286
0.921813
0.917296
0.912732
0.908114
0.903429
0.898662
0.89379
0.888789
0.88363
0.878285
0.87272
0.866907
0.860813
0.854412
0.847678
0.840588
0.833125
0.825274
0.817025
0.808374
0.799317
0.789859
0.780006
0.769768
0.759159
0.748195
0.736894
0.725278
0.713369
0.701191
0.688769
0.676127
0.663292
0.650288
0.637143
0.623881
0.610525
0.597101
0.583632
0.570138
0.556642
0.543163
0.529719
0.516329
0.503009
0.489774
0.476639
0.463616
0.450717
0.437952
0.425333
0.412867
0.400562
0.388425
0.376462
0.364679
0.353079
0.341667
0.330446
0.319416
0.308587
0.297933
0.287554
0.277103
0.267794
0.255327
0.255327
1
1
1
0.999995
0.999977
0.999931
0.999833
0.999655
0.999364
0.998929
0.998323
0.997523
0.996512
0.995279
0.993815
0.992118
0.990189
0.988032
0.985652
0.983059
0.980261
0.97727
0.974097
0.970755
0.967257
0.963614
0.95984
0.955947
0.951946
0.94785
0.943668
0.939412
0.935091
0.930713
0.926286
0.921813
0.917296
0.912732
0.908114
0.903429
0.898662
0.89379
0.888789
0.88363
0.878285
0.87272
0.866907
0.860813
0.854412
0.847678
0.840588
0.833125
0.825274
0.817025
0.808374
0.799317
0.789859
0.780006
0.769768
0.759159
0.748195
0.736894
0.725278
0.713369
0.701191
0.688769
0.676127
0.663292
0.650288
0.637143
0.623881
0.610525
0.597101
0.583632
0.570138
0.556642
0.543163
0.529719
0.516329
0.503009
0.489774
0.476639
0.463616
0.450717
0.437952
0.425333
0.412867
0.400562
0.388425
0.376462
0.364679
0.353079
0.341667
0.330446
0.319416
0.308587
0.297933
0.287554
0.277103
0.267794
0.255327
0.255327
0.999998
1
0.999984
0.999921
0.999783
0.999536
0.999146
0.99858
0.997812
0.996819
0.99559
0.994116
0.992398
0.990437
0.98824
0.985817
0.983177
0.980333
0.977297
0.974081
0.9707
0.967166
0.963491
0.95969
0.955773
0.951752
0.947639
0.943445
0.939179
0.93485
0.930469
0.926042
0.921579
0.917087
0.91257
0.908036
0.903489
0.898929
0.894359
0.889775
0.885172
0.880543
0.875875
0.871155
0.866365
0.861487
0.856498
0.851376
0.846098
0.840639
0.834978
0.829092
0.822961
0.816567
0.809894
0.802928
0.795661
0.788083
0.780191
0.771983
0.76346
0.754627
0.745489
0.736057
0.726339
0.71635
0.706103
0.695614
0.684899
0.673975
0.662862
0.651576
0.640138
0.628565
0.616877
0.605091
0.593226
0.5813
0.569329
0.55733
0.545319
0.533311
0.521321
0.509362
0.497446
0.485586
0.473792
0.462077
0.450447
0.438914
0.427484
0.416166
0.404965
0.393889
0.382938
0.372132
0.361431
0.350978
0.340319
0.330975
0.317891
0.317891
1.00001
0.999992
0.99954
0.998615
0.997207
0.995317
0.992955
0.990145
0.986922
0.983332
0.979422
0.975241
0.970836
0.966248
0.961513
0.956664
0.951728
0.946728
0.941682
0.936608
0.931519
0.926427
0.921341
0.916268
0.911216
0.906189
0.901194
0.896232
0.891307
0.886422
0.881579
0.87678
0.872025
0.867316
0.862654
0.85804
0.853473
0.848953
0.84448
0.840053
0.83567
0.831326
0.827018
0.82274
0.818485
0.814244
0.810006
0.805761
0.801495
0.797194
0.792844
0.788428
0.783931
0.779337
0.774629
0.769793
0.764814
0.759678
0.754373
0.748887
0.74321
0.737335
0.731254
0.724963
0.718458
0.711737
0.704801
0.69765
0.690288
0.682718
0.674946
0.666979
0.658822
0.650486
0.641977
0.633308
0.624486
0.615524
0.606431
0.597218
0.587898
0.57848
0.568976
0.559398
0.549755
0.540058
0.530318
0.520545
0.510748
0.500936
0.491119
0.481305
0.471502
0.461718
0.451956
0.442238
0.432522
0.422968
0.413088
0.404469
0.392044
0.392044
1.00143
0.99857
0.991252
0.98188
0.971566
0.96086
0.950051
0.939311
0.928756
0.918468
0.908503
0.898898
0.889671
0.880827
0.87236
0.864261
0.856513
0.849098
0.841997
0.835192
0.828664
0.822396
0.816369
0.810568
0.80498
0.799588
0.794382
0.789348
0.784477
0.779758
0.775181
0.770738
0.766422
0.762224
0.758139
0.754159
0.75028
0.746495
0.7428
0.739189
0.73566
0.732205
0.728823
0.725506
0.722252
0.719054
0.715907
0.712806
0.709742
0.70671
0.703701
0.700707
0.697719
0.694728
0.691724
0.688697
0.685637
0.682533
0.679375
0.676151
0.672854
0.669471
0.665994
0.662415
0.658724
0.654914
0.650979
0.646912
0.642708
0.638362
0.63387
0.629231
0.624441
0.619501
0.614408
0.609164
0.60377
0.598227
0.592538
0.586704
0.580731
0.574621
0.568379
0.56201
0.555517
0.548906
0.542183
0.535353
0.52842
0.521392
0.514273
0.50707
0.499787
0.492431
0.485004
0.477524
0.469953
0.462435
0.454536
0.44764
0.437431
0.437431
1.0456
0.954401
0.887723
0.838674
0.801641
0.772861
0.749886
0.731119
0.715499
0.702298
0.691001
0.681228
0.672693
0.665173
0.658493
0.652515
0.647126
0.642236
0.637772
0.633673
0.629891
0.626382
0.623115
0.620059
0.61719
0.614489
0.611936
0.609518
0.607221
0.605034
0.602947
0.60095
0.599038
0.597202
0.595437
0.593737
0.592097
0.590514
0.588983
0.5875
0.586064
0.584669
0.583314
0.581996
0.580712
0.579461
0.578239
0.577043
0.575872
0.574722
0.57359
0.572473
0.571368
0.57027
0.569176
0.56808
0.566979
0.565867
0.564739
0.563589
0.562412
0.561201
0.559951
0.558655
0.557307
0.555901
0.55443
0.552889
0.551272
0.549572
0.547785
0.545905
0.543927
0.541846
0.539658
0.537358
0.534944
0.532412
0.529759
0.526982
0.524079
0.521048
0.517888
0.514597
0.511176
0.507622
0.503937
0.50012
0.496171
0.492091
0.487881
0.483542
0.479075
0.474483
0.469763
0.464928
0.459946
0.454927
0.449538
0.444813
0.437582
0.437582
-0.0455988
0.0455988
0.112277
0.161326
0.198359
0.227139
0.250114
0.268881
0.284501
0.297702
0.308999
0.318772
0.327307
0.334827
0.341507
0.347485
0.352874
0.357764
0.362228
0.366326
0.370109
0.373617
0.376885
0.379941
0.38281
0.385511
0.388064
0.390482
0.392779
0.394966
0.397053
0.39905
0.400962
0.402798
0.404563
0.406263
0.407903
0.409486
0.411017
0.412499
0.413936
0.41533
0.416684
0.418001
0.419282
0.420529
0.421745
0.42293
0.424086
0.425213
0.426314
0.427389
0.428437
0.429459
0.430455
0.431425
0.432368
0.433283
0.434169
0.435024
0.435846
0.436634
0.437385
0.438097
0.438765
0.439388
0.439962
0.440483
0.440947
0.441351
0.441689
0.441958
0.442154
0.442271
0.442305
0.442251
0.442106
0.441863
0.441519
0.441069
0.440508
0.439833
0.439039
0.438121
0.437077
0.435901
0.434591