# vtk DataFile Version 3.0
FlowField
ASCII
DATASET STRUCTURED_GRID
DIMENSIONS 102 12 1 
POINTS 1224 double
0 0 0
0.3 0 0
0.6 0 0
0.9 0 0
1.2 0 0
1.5 0 0
1.8 0 0
2.1 0 0
2.4 0 0
2.7 0 0
3 0 0
3.3 0 0
3.6 0 0
3.9 0 0
4.2 0 0
4.5 0 0
4.8 0 0
5.1 0 0
5.4 0 0
5.7 0 0
6 0 0
6.3 0 0
6.6 0 0
6.9 0 0
7.2 0 0
7.5 0 0
7.8 0 0
8.1 0 0
8.4 0 0
8.7 0 0
9 0 0
9.3 0 0
9.6 0 0
9.9 0 0
10.2 0 0
10.5 0 0
10.8 0 0
11.1 0 0
11.4 0 0
11.7 0 0
12 0 0
12.3 0 0
12.6 0 0
12.9 0 0
13.2 0 0
13.5 0 0
13.8 0 0
14.1 0 0
14.4 0 0
14.7 0 0
15 0 0
15.3 0 0
15.6 0 0
15.9 0 0
16.2 0 0
16.5 0 0
16.8 0 0
17.1 0 0
17.4 0 0
17.7 0 0
18 0 0
18.3 0 0
18.6 0 0
18.9 0 0
19.2 0 0
19.5 0 0
19.8 0 0
20.1 0 0
20.4 0 0
20.7 0 0
21 0 0
21.3 0 0
21.6 0 0
21.9 0 0
22.2 0 0
22.5 0 0
22.8 0 0
23.1 0 0
23.4 0 0
23.7 0 0
24 0 0
24.3 0 0
24.6 0 0
24.9 0 0
25.2 0 0
25.5 0 0
25.8 0 0
26.1 0 0
26.4 0 0
26.7 0 0
27 0 0
27.3 0 0
27.6 0 0
27.9 0 0
28.2 0 0
28.5 0 0
28.8 0 0
29.1 0 0
29.4 0 0
29.7 0 0
30 0 0
30.3 0 0
0 0.1 0
0.3 0.1 0
0.6 0.1 0
0.9 0.1 0
1.2 0.1 0
1.5 0.1 0
1.8 0.1 0
2.1 0.1 0
2.4 0.1 0
2.7 0.1 0
3 0.1 0
3.3 0.1 0
3.6 0.1 0
3.9 0.1 0
4.2 0.1 0
4.5 0.1 0
4.8 0.1 0
5.1 0.1 0
5.4 0.1 0
5.7 0.1 0
6 0.1 0
6.3 0.1 0
6.6 0.1 0
6.9 0.1 0
7.2 0.1 0
7.5 0.1 0
7.8 0.1 0
8.1 0.1 0
8.4 0.1 0
8.7 0.1 0
9 0.1 0
9.3 0.1 0
9.6 0.1 0
9.9 0.1 0
10.2 0.1 0
10.5 0.1 0
10.8 0.1 0
11.1 0.1 0
11.4 0.1 0
11.7 0.1 0
12 0.1 0
12.3 0.1 0
12.6 0.1 0
12.9 0.1 0
13.2 0.1 0
13.5 0.1 0
13.8 0.1 0
14.1 0.1 0
14.4 0.1 0
14.7 0.1 0
15 0.1 0
15.3 0.1 0
15.6 0.1 0
15.9 0.1 0
16.2 0.1 0
16.5 0.1 0
16.8 0.1 0
17.1 0.1 0
17.4 0.1 0
17.7 0.1 0
18 0.1 0
18.3 0.1 0
18.6 0.1 0
18.9 0.1 0
19.2 0.1 0
19.5 0.1 0
19.8 0.1 0
20.1 0.1 0
20.4 0.1 0
20.7 0.1 0
21 0.1 0
21.3 0.1 0
21.6 0.1 0
21.9 0.1 0
22.2 0.1 0
22.5 0.1 0
22.8 0.1 0
23.1 0.1 0
23.4 0.1 0
23.7 0.1 0
24 0.1 0
24.3 0.1 0
24.6 0.1 0
24.9 0.1 0
25.2 0.1 0
25.5 0.1 0
25.8 0.1 0
26.1 0.1 0
26.4 0.1 0
26.7 0.1 0
27 0.1 0
27.3 0.1 0
27.6 0.1 0
27.9 0.1 0
28.2 0.1 0
28.5 0.1 0
28.8 0.1 0
29.1 0.1 0
29.4 0.1 0
29.7 0.1 0
30 0.1 0
30.3 0.1 0
0 0.2 0
0.3 0.2 0
0.6 0.2 0
0.9 0.2 0
1.2 0.2 0
1.5 0.2 0
1.8 0.2 0
2.1 0.2 0
2.4 0.2 0
2.7 0.2 0
3 0.2 0
3.3 0.2 0
3.6 0.2 0
3.9 0.2 0
4.2 0.2 0
4.5 0.2 0
4.8 0.2 0
5.1 0.2 0
5.4 0.2 0
5.7 0.2 0
6 0.2 0
6.3 0.2 0
6.6 0.2 0
6.9 0.2 0
7.2 0.2 0
7.5 0.2 0
7.8 0.2 0
8.1 0.2 0
8.4 0.2 0
8.7 0.2 0
9 0.2 0
9.3 0.2 0
9.6 0.2 0
9.9 0.2 0
10.2 0.2 0
10.5 0.2 0
10.8 0.2 0
11.1 0.2 0
11.4 0.2 0
11.7 0.2 0
12 0.2 0
12.3 0.2 0
12.6 0.2 0
12.9 0.2 0
13.2 0.2 0
13.5 0.2 0
13.8 0.2 0
14.1 0.2 0
14.4 0.2 0
14.7 0.2 0
15 0.2 0
15.3 0.2 0
15.6 0.2 0
15.9 0.2 0
16.2 0.2 0
16.5 0.2 0
16.8 0.2 0
17.1 0.2 0
17.4 0.2 0
17.7 0.2 0
18 0.2 0
18.3 0.2 0
18.6 0.2 0
18.9 0.2 0
19.2 0.2 0
19.5 0.2 0
19.8 0.2 0
20.1 0.2 0
20.4 0.2 0
20.7 0.2 0
21 0.2 0
21.3 0.2 0
21.6 0.2 0
21.9 0.2 0
22.2 0.2 0
22.5 0.2 0
22.8 0.2 0
23.1 0.2 0
23.4 0.2 0
23.7 0.2 0
24 0.2 0
24.3 0.2 0
24.6 0.2 0
24.9 0.2 0
25.2 0.2 0
25.5 0.2 0
25.8 0.2 0
26.1 0.2 0
26.4 0.2 0
26.7 0.2 0
27 0.2 0
27.3 0.2 0
27.6 0.2 0
27.9 0.2 0
28.2 0.2 0
28.5 0.2 0
28.8 0.2 0
29.1 0.2 0
29.4 0.2 0
29.7 0.2 0
30 0.2 0
30.3 0.2 0
0 0.3 0
0.3 0.3 0
0.6 0.3 0
0.9 0.3 0
1.2 0.3 0
1.5 0.3 0
1.8 0.3 0
2.1 0.3 0
2.4 0.3 0
2.7 0.3 0
3 0.3 0
3.3 0.3 0
3.6 0.3 0
3.9 0.3 0
4.2 0.3 0
4.5 0.3 0
4.8 0.3 0
5.1 0.3 0
5.4 0.3 0
5.7 0.3 0
6 0.3 0
6.3 0.3 0
6.6 0.3 0
6.9 0.3 0
7.2 0.3 0
7.5 0.3 0
7.8 0.3 0
8.1 0.3 0
8.4 0.3 0
8.7 0.3 0
9 0.3 0
9.3 0.3 0
9.6 0.3 0
9.9 0.3 0
10.2 0.3 0
10.5 0.3 0
10.8 0.3 0
11.1 0.3 0
11.4 0.3 0
11.7 0.3 0
12 0.3 0
12.3 0.3 0
12.6 0.3 0
12.9 0.3 0
13.2 0.3 0
13.5 0.3 0
13.8 0.3 0
14.1 0.3 0
14.4 0.3 0
14.7 0.3 0
15 0.3 0
15.3 0.3 0
15.6 0.3 0
15.9 0.3 0
16.2 0.3 0
16.5 0.3 0
16.8 0.3 0
17.1 0.3 0
17.4 0.3 0
17.7 0.3 0
18 0.3 0
18.3 0.3 0
18.6 0.3 0
18.9 0.3 0
19.2 0.3 0
19.5 0.3 0
19.8 0.3 0
20.1 0.3 0
20.4 0.3 0
20.7 0.3 0
21 0.3 0
21.3 0.3 0
21.6 0.3 0
21.9 0.3 0
22.2 0.3 0
22.5 0.3 0
22.8 0.3 0
23.1 0.3 0
23.4 0.3 0
23.7 0.3 0
24 0.3 0
24.3 0.3 0
24.6 0.3 0
24.9 0.3 0
25.2 0.3 0
25.5 0.3 0
25.8 0.3 0
26.1 0.3 0
26.4 0.3 0
26.7 0.3 0
27 0.3 0
27.3 0.3 0
27.6 0.3 0
27.9 0.3 0
28.2 0.3 0
28.5 0.3 0
28.8 0.3 0
29.1 0.3 0
29.4 0.3 0
29.7 0.3 0
30 0.3 0
30.3 0.3 0
0 0.4 0
0.3 0.4 0
0.6 0.4 0
0.9 0.4 0
1.2 0.4 0
1.5 0.4 0
1.8 0.4 0
2.1 0.4 0
2.4 0.4 0
2.7 0.4 0
3 0.4 0
3.3 0.4 0
3.6 0.4 0
3.9 0.4 0
4.2 0.4 0
4.5 0.4 0
4.8 0.4 0
5.1 0.4 0
5.4 0.4 0
5.7 0.4 0
6 0.4 0
6.3 0.4 0
6.6 0.4 0
6.9 0.4 0
7.2 0.4 0
7.5 0.4 0
7.8 0.4 0
8.1 0.4 0
8.4 0.4 0
8.7 0.4 0
9 0.4 0
9.3 0.4 0
9.6 0.4 0
9.9 0.4 0
10.2 0.4 0
10.5 0.4 0
10.8 0.4 0
11.1 0.4 0
11.4 0.4 0
11.7 0.4 0
12 0.4 0
12.3 0.4 0
12.6 0.4 0
12.9 0.4 0
13.2 0.4 0
13.5 0.4 0
13.8 0.4 0
14.1 0.4 0
14.4 0.4 0
14.7 0.4 0
15 0.4 0
15.3 0.4 0
15.6 0.4 0
15.9 0.4 0
16.2 0.4 0
16.5 0.4 0
16.8 0.4 0
17.1 0.4 0
17.4 0.4 0
17.7 0.4 0
18 0.4 0
18.3 0.4 0
18.6 0.4 0
18.9 0.4 0
19.2 0.4 0
19.5 0.4 0
19.8 0.4 0
20.1 0.4 0
20.4 0.4 0
20.7 0.4 0
21 0.4 0
21.3 0.4 0
21.6 0.4 0
21.9 0.4 0
22.2 0.4 0
22.5 0.4 0
22.8 0.4 0
23.1 0.4 0
23.4 0.4 0
23.7 0.4 0
24 0.4 0
24.3 0.4 0
24.6 0.4 0
24.9 0.4 0
25.2 0.4 0
25.5 0.4 0
25.8 0.4 0
26.1 0.4 0
26.4 0.4 0
26.7 0.4 0
27 0.4 0
27.3 0.4 0
27.6 0.4 0
27.9 0.4 0
28.2 0.4 0
28.5 0.4 0
28.8 0.4 0
29.1 0.4 0
29.4 0.4 0
29.7 0.4 0
30 0.4 0
30.3 0.4 0
0 0.5 0
0.3 0.5 0
0.6 0.5 0
0.9 0.5 0
1.2 0.5 0
1.5 0.5 0
1.8 0.5 0
2.1 0.5 0
2.4 0.5 0
2.7 0.5 0
3 0.5 0
3.3 0.5 0
3.6 0.5 0
3.9 0.5 0
4.2 0.5 0
4.5 0.5 0
4.8 0.5 0
5.1 0.5 0
5.4 0.5 0
5.7 0.5 0
6 0.5 0
6.3 0.5 0
6.6 0.5 0
6.9 0.5 0
7.2 0.5 0
7.5 0.5 0
7.8 0.5 0
8.1 0.5 0
8.4 0.5 0
8.7 0.5 0
9 0.5 0
9.3 0.5 0
9.6 0.5 0
9.9 0.5 0
10.2 0.5 0
10.5 0.5 0
10.8 0.5 0
11.1 0.5 0
11.4 0.5 0
11.7 0.5 0
12 0.5 0
12.3 0.5 0
12.6 0.5 0
12.9 0.5 0
13.2 0.5 0
13.5 0.5 0
13.8 0.5 0
14.1 0.5 0
14.4 0.5 0
14.7 0.5 0
15 0.5 0
15.3 0.5 0
15.6 0.5 0
15.9 0.5 0
16.2 0.5 0
16.5 0.5 0
16.8 0.5 0
17.1 0.5 0
17.4 0.5 0
17.7 0.5 0
18 0.5 0
18.3 0.5 0
18.6 0.5 0
18.9 0.5 0
19.2 0.5 0
19.5 0.5 0
19.8 0.5 0
20.1 0.5 0
20.4 0.5 0
20.7 0.5 0
21 0.5 0
21.3 0.5 0
21.6 0.5 0
21.9 0.5 0
22.2 0.5 0
22.5 0.5 0
22.8 0.5 0
23.1 0.5 0
23.4 0.5 0
23.7 0.5 0
24 0.5 0
24.3 0.5 0
24.6 0.5 0
24.9 0.5 0
25.2 0.5 0
25.5 0.5 0
25.8 0.5 0
26.1 0.5 0
26.4 0.5 0
26.7 0.5 0
27 0.5 0
27.3 0.5 0
27.6 0.5 0
27.9 0.5 0
28.2 0.5 0
28.5 0.5 0
28.8 0.5 0
29.1 0.5 0
29.4 0.5 0
29.7 0.5 0
30 0.5 0
30.3 0.5 0
0 0.6 0
0.3 0.6 0
0.6 0.6 0
0.9 0.6 0
1.2 0.6 0
1.5 0.6 0
1.8 0.6 0
2.1 0.6 0
2.4 0.6 0
2.7 0.6 0
3 0.6 0
3.3 0.6 0
3.6 0.6 0
3.9 0.6 0
4.2 0.6 0
4.5 0.6 0
4.8 0.6 0
5.1 0.6 0
5.4 0.6 0
5.7 0.6 0
6 0.6 0
6.3 0.6 0
6.6 0.6 0
6.9 0.6 0
7.2 0.6 0
7.5 0.6 0
7.8 0.6 0
8.1 0.6 0
8.4 0.6 0
8.7 0.6 0
9 0.6 0
9.3 0.6 0
9.6 0.6 0
9.9 0.6 0
10.2 0.6 0
10.5 0.6 0
10.8 0.6 0
11.1 0.6 0
11.4 0.6 0
11.7 0.6 0
12 0.6 0
12.3 0.6 0
12.6 0.6 0
12.9 0.6 0
13.2 0.6 0
13.5 0.6 0
13.8 0.6 0
14.1 0.6 0
14.4 0.6 0
14.7 0.6 0
15 0.6 0
15.3 0.6 0
15.6 0.6 0
15.9 0.6 0
16.2 0.6 0
16.5 0.6 0
16.8 0.6 0
17.1 0.6 0
17.4 0.6 0
17.7 0.6 0
18 0.6 0
18.3 0.6 0
18.6 0.6 0
18.9 0.6 0
19.2 0.6 0
19.5 0.6 0
19.8 0.6 0
20.1 0.6 0
20.4 0.6 0
20.7 0.6 0
21 0.6 0
21.3 0.6 0
21.6 0.6 0
21.9 0.6 0
22.2 0.6 0
22.5 0.6 0
22.8 0.6 0
23.1 0.6 0
23.4 0.6 0
23.7 0.6 0
24 0.6 0
24.3 0.6 0
24.6 0.6 0
24.9 0.6 0
25.2 0.6 0
25.5 0.6 0
25.8 0.6 0
26.1 0.6 0
26.4 0.6 0
26.7 0.6 0
27 0.6 0
27.3 0.6 0
27.6 0.6 0
27.9 0.6 0
28.2 0.6 0
28.5 0.6 0
28.8 0.6 0
29.1 0.6 0
29.4 0.6 0
29.7 0.6 0
30 0.6 0
30.3 0.6 0
0 0.7 0
0.3 0.7 0
0.6 0.7 0
0.9 0.7 0
1.2 0.7 0
1.5 0.7 0
1.8 0.7 0
2.1 0.7 0
2.4 0.7 0
2.7 0.7 0
3 0.7 0
3.3 0.7 0
3.6 0.7 0
3.9 0.7 0
4.2 0.7 0
4.5 0.7 0
4.8 0.7 0
5.1 0.7 0
5.4 0.7 0
5.7 0.7 0
6 0.7 0
6.3 0.7 0
6.6 0.7 0
6.9 0.7 0
7.2 0.7 0
7.5 0.7 0
7.8 0.7 0
8.1 0.7 0
8.4 0.7 0
8.7 0.7 0
9 0.7 0
9.3 0.7 0
9.6 0.7 0
9.9 0.7 0
10.2 0.7 0
10.5 0.7 0
10.8 0.7 0
11.1 0.7 0
11.4 0.7 0
11.7 0.7 0
12 0.7 0
12.3 0.7 0
12.6 0.7 0
12.9 0.7 0
13.2 0.7 0
13.5 0.7 0
13.8 0.7 0
14.1 0.7 0
14.4 0.7 0
14.7 0.7 0
15 0.7 0
15.3 0.7 0
15.6 0.7 0
15.9 0.7 0
16.2 0.7 0
16.5 0.7 0
16.8 0.7 0
17.1 0.7 0
17.4 0.7 0
17.7 0.7 0
18 0.7 0
18.3 0.7 0
18.6 0.7 0
18.9 0.7 0
19.2 0.7 0
19.5 0.7 0
19.8 0.7 0
20.1 0.7 0
20.4 0.7 0
20.7 0.7 0
21 0.7 0
21.3 0.7 0
21.6 0.7 0
21.9 0.7 0
22.2 0.7 0
22.5 0.7 0
22.8 0.7 0
23.1 0.7 0
23.4 0.7 0
23.7 0.7 0
24 0.7 0
24.3 0.7 0
24.6 0.7 0
24.9 0.7 0
25.2 0.7 0
25.5 0.7 0
25.8 0.7 0
26.1 0.7 0
26.4 0.7 0
26.7 0.7 0
27 0.7 0
27.3 0.7 0
27.6 0.7 0
27.9 0.7 0
28.2 0.7 0
28.5 0.7 0
28.8 0.7 0
29.1 0.7 0
29.4 0.7 0
29.7 0.7 0
30 0.7 0
30.3 0.7 0
0 0.8 0
0.3 0.8 0
0.6 0.8 0
0.9 0.8 0
1.2 0.8 0
1.5 0.8 0
1.8 0.8 0
2.1 0.8 0
2.4 0.8 0
2.7 0.8 0
3 0.8 0
3.3 0.8 0
3.6 0.8 0
3.9 0.8 0
4.2 0.8 0
4.5 0.8 0
4.8 0.8 0
5.1 0.8 0
5.4 0.8 0
5.7 0.8 0
6 0.8 0
6.3 0.8 0
6.6 0.8 0
6.9 0.8 0
7.2 0.8 0
7.5 0.8 0
7.8 0.8 0
8.1 0.8 0
8.4 0.8 0
8.7 0.8 0
9 0.8 0
9.3 0.8 0
9.6 0.8 0
9.9 0.8 0
10.2 0.8 0
10.5 0.8 0
10.8 0.8 0
11.1 0.8 0
11.4 0.8 0
11.7 0.8 0
12 0.8 0
12.3 0.8 0
12.6 0.8 0
12.9 0.8 0
13.2 0.8 0
13.5 0.8 0
13.8 0.8 0
14.1 0.8 0
14.4 0.8 0
14.7 0.8 0
15 0.8 0
15.3 0.8 0
15.6 0.8 0
15.9 0.8 0
16.2 0.8 0
16.5 0.8 0
16.8 0.8 0
17.1 0.8 0
17.4 0.8 0
17.7 0.8 0
18 0.8 0
18.3 0.8 0
18.6 0.8 0
18.9 0.8 0
19.2 0.8 0
19.5 0.8 0
19.8 0.8 0
20.1 0.8 0
20.4 0.8 0
20.7 0.8 0
21 0.8 0
21.3 0.8 0
21.6 0.8 0
21.9 0.8 0
22.2 0.8 0
22.5 0.8 0
22.8 0.8 0
23.1 0.8 0
23.4 0.8 0
23.7 0.8 0
24 0.8 0
24.3 0.8 0
24.6 0.8 0
24.9 0.8 0
25.2 0.8 0
25.5 0.8 0
25.8 0.8 0
26.1 0.8 0
26.4 0.8 0
26.7 0.8 0
27 0.8 0
27.3 0.8 0
27.6 0.8 0
27.9 0.8 0
28.2 0.8 0
28.5 0.8 0
28.8 0.8 0
29.1 0.8 0
29.4 0.8 0
29.7 0.8 0
30 0.8 0
30.3 0.8 0
0 0.9 0
0.3 0.9 0
0.6 0.9 0
0.9 0.9 0
1.2 0.9 0
1.5 0.9 0
1.8 0.9 0
2.1 0.9 0
2.4 0.9 0
2.7 0.9 0
3 0.9 0
3.3 0.9 0
3.6 0.9 0
3.9 0.9 0
4.2 0.9 0
4.5 0.9 0
4.8 0.9 0
5.1 0.9 0
5.4 0.9 0
5.7 0.9 0
6 0.9 0
6.3 0.9 0
6.6 0.9 0
6.9 0.9 0
7.2 0.9 0
7.5 0.9 0
7.8 0.9 0
8.1 0.9 0
8.4 0.9 0
8.7 0.9 0
9 0.9 0
9.3 0.9 0
9.6 0.9 0
9.9 0.9 0
10.2 0.9 0
10.5 0.9 0
10.8 0.9 0
11.1 0.9 0
11.4 0.9 0
11.7 0.9 0
12 0.9 0
12.3 0.9 0
12.6 0.9 0
12.9 0.9 0
13.2 0.9 0
13.5 0.9 0
13.8 0.9 0
14.1 0.9 0
14.4 0.9 0
14.7 0.9 0
15 0.9 0
15.3 0.9 0
15.6 0.9 0
15.9 0.9 0
16.2 0.9 0
16.5 0.9 0
16.8 0.9 0
17.1 0.9 0
17.4 0.9 0
17.7 0.9 0
18 0.9 0
18.3 0.9 0
18.6 0.9 0
18.9 0.9 0
19.2 0.9 0
19.5 0.9 0
19.8 0.9 0
20.1 0.9 0
20.4 0.9 0
20.7 0.9 0
21 0.9 0
21.3 0.9 0
21.6 0.9 0
21.9 0.9 0
22.2 0.9 0
22.5 0.9 0
22.8 0.9 0
23.1 0.9 0
23.4 0.9 0
23.7 0.9 0
24 0.9 0
24.3 0.9 0
24.6 0.9 0
24.9 0.9 0
25.2 0.9 0
25.5 0.9 0
25.8 0.9 0
26.1 0.9 0
26.4 0.9 0
26.7 0.9 0
27 0.9 0
27.3 0.9 0
27.6 0.9 0
27.9 0.9 0
28.2 0.9 0
28.5 0.9 0
28.8 0.9 0
29.1 0.9 0
29.4 0.9 0
29.7 0.9 0
30 0.9 0
30.3 0.9 0
0 1 0
0.3 1 0
0.6 1 0
0.9 1 0
1.2 1 0
1.5 1 0
1.8 1 0
2.1 1 0
2.4 1 0
2.7 1 0
3 1 0
3.3 1 0
3.6 1 0
3.9 1 0
4.2 1 0
4.5 1 0
4.8 1 0
5.1 1 0
5.4 1 0
5.7 1 0
6 1 0
6.3 1 0
6.6 1 0
6.9 1 0
7.2 1 0
7.5 1 0
7.8 1 0
8.1 1 0
8.4 1 0
8.7 1 0
9 1 0
9.3 1 0
9.6 1 0
9.9 1 0
10.2 1 0
10.5 1 0
10.8 1 0
11.1 1 0
11.4 1 0
11.7 1 0
12 1 0
12.3 1 0
12.6 1 0
12.9 1 0
13.2 1 0
13.5 1 0
13.8 1 0
14.1 1 0
14.4 1 0
14.7 1 0
15 1 0
15.3 1 0
15.6 1 0
15.9 1 0
16.2 1 0
16.5 1 0
16.8 1 0
17.1 1 0
17.4 1 0
17.7 1 0
18 1 0
18.3 1 0
18.6 1 0
18.9 1 0
19.2 1 0
19.5 1 0
19.8 1 0
20.1 1 0
20.4 1 0
20.7 1 0
21 1 0
21.3 1 0
21.6 1 0
21.9 1 0
22.2 1 0
22.5 1 0
22.8 1 0
23.1 1 0
23.4 1 0
23.7 1 0
24 1 0
24.3 1 0
24.6 1 0
24.9 1 0
25.2 1 0
25.5 1 0
25.8 1 0
26.1 1 0
26.4 1 0
26.7 1 0
27 1 0
27.3 1 0
27.6 1 0
27.9 1 0
28.2 1 0
28.5 1 0
28.8 1 0
29.1 1 0
29.4 1 0
29.7 1 0
30 1 0
30.3 1 0
0 1.1 0
0.3 1.1 0
0.6 1.1 0
0.9 1.1 0
1.2 1.1 0
1.5 1.1 0
1.8 1.1 0
2.1 1.1 0
2.4 1.1 0
2.7 1.1 0
3 1.1 0
3.3 1.1 0
3.6 1.1 0
3.9 1.1 0
4.2 1.1 0
4.5 1.1 0
4.8 1.1 0
5.1 1.1 0
5.4 1.1 0
5.7 1.1 0
6 1.1 0
6.3 1.1 0
6.6 1.1 0
6.9 1.1 0
7.2 1.1 0
7.5 1.1 0
7.8 1.1 0
8.1 1.1 0
8.4 1.1 0
8.7 1.1 0
9 1.1 0
9.3 1.1 0
9.6 1.1 0
9.9 1.1 0
10.2 1.1 0
10.5 1.1 0
10.8 1.1 0
11.1 1.1 0
11.4 1.1 0
11.7 1.1 0
12 1.1 0
12.3 1.1 0
12.6 1.1 0
12.9 1.1 0
13.2 1.1 0
13.5 1.1 0
13.8 1.1 0
14.1 1.1 0
14.4 1.1 0
14.7 1.1 0
15 1.1 0
15.3 1.1 0
15.6 1.1 0
15.9 1.1 0
16.2 1.1 0
16.5 1.1 0
16.8 1.1 0
17.1 1.1 0
17.4 1.1 0
17.7 1.1 0
18 1.1 0
18.3 1.1 0
18.6 1.1 0
18.9 1.1 0
19.2 1.1 0
19.5 1.1 0
19.8 1.1 0
20.1 1.1 0
20.4 1.1 0
20.7 1.1 0
21 1.1 0
21.3 1.1 0
21.6 1.1 0
21.9 1.1 0
22.2 1.1 0
22.5 1.1 0
22.8 1.1 0
23.1 1.1 0
23.4 1.1 0
23.7 1.1 0
24 1.1 0
24.3 1.1 0
24.6 1.1 0
24.9 1.1 0
25.2 1.1 0
25.5 1.1 0
25.8 1.1 0
26.1 1.1 0
26.4 1.1 0
26.7 1.1 0
27 1.1 0
27.3 1.1 0
27.6 1.1 0
27.9 1.1 0
28.2 1.1 0
28.5 1.1 0
28.8 1.1 0
29.1 1.1 0
29.4 1.1 0
29.7 1.1 0
30 1.1 0
30.3 1.1 0

POINT_DATA 1224

SCALARS pressure double
LOOKUP_TABLE pressure
1.31668
1.31668
1.25017
1.20309
1.16014
1.12048
1.08446
1.05208
1.02297
0.996637
0.972526
0.950174
0.929201
0.909319
0.890313
0.872024
0.854332
0.837151
0.820412
0.804062
0.788058
0.772366
0.756956
0.741804
0.726887
0.712186
0.697683
0.683365
0.669217
0.655226
0.641381
0.627672
0.614089
0.600624
0.587268
0.574014
0.560855
0.547784
0.534797
0.521887
0.509049
0.49628
0.483575
0.470931
0.458346
0.445816
0.433339
0.420915
0.40854
0.396213
0.383932
0.371695
0.3595
0.347343
0.335222
0.323134
0.311076
0.299044
0.287035
0.275045
0.263073
0.251114
0.239167
0.22723
0.2153
0.203376
0.191456
0.17954
0.167627
0.155715
0.143805
0.131896
0.119987
0.10808
0.096172
0.0842647
0.0723576
0.0604505
0.0485436
0.0366367
0.0247298
0.0128229
0.000916067
-0.0109908
-0.0228976
-0.0348045
-0.0467113
-0.0586181
-0.0705249
-0.0824318
-0.0943386
-0.106245
-0.118152
-0.130059
-0.141966
-0.153873
-0.165779
-0.177686
-0.189593
-0.2015
-0.213403
0.213403
1.31668
1.31668
1.25017
1.20309
1.16014
1.12048
1.08446
1.05208
1.02297
0.996637
0.972526
0.950174
0.929201
0.909319
0.890313
0.872024
0.854332
0.837151
0.820412
0.804062
0.788058
0.772366
0.756956
0.741804
0.726887
0.712186
0.697683
0.683365
0.669217
0.655226
0.641381
0.627672
0.614089
0.600624
0.587268
0.574014
0.560855
0.547784
0.534797
0.521887
0.509049
0.49628
0.483575
0.470931
0.458346
0.445816
0.433339
0.420915
0.40854
0.396213
0.383932
0.371695
0.3595
0.347343
0.335222
0.323134
0.311076
0.299044
0.287035
0.275045
0.263073
0.251114
0.239167
0.22723
0.2153
0.203376
0.191456
0.17954
0.167627
0.155715
0.143805
0.131896
0.119987
0.10808
0.096172
0.0842647
0.0723576
0.0604505
0.0485436
0.0366367
0.0247298
0.0128229
0.000916067
-0.0109908
-0.0228976
-0.0348045
-0.0467113
-0.0586181
-0.0705249
-0.0824318
-0.0943386
-0.106245
-0.118152
-0.130059
-0.141966
-0.153873
-0.165779
-0.177686
-0.189593
-0.2015
-0.213403
0.213403
1.29603
1.29603
1.24837
1.2034
1.16086
1.12125
1.08516
1.05267
1.02345
0.997007
0.972812
0.950395
0.929374
0.909457
0.890425
0.872116
0.85441
0.837218
0.82047
0.804113
0.788103
0.772407
0.756993
0.741837
0.726916
0.712213
0.697708
0.683388
0.669238
0.655245
0.641399
0.627688
0.614104
0.600638
0.587281
0.574026
0.560866
0.547795
0.534806
0.521896
0.509057
0.496288
0.483582
0.470938
0.458351
0.445821
0.433344
0.420919
0.408543
0.396216
0.383935
0.371697
0.359501
0.347344
0.335223
0.323135
0.311076
0.299044
0.287035
0.275045
0.263073
0.251114
0.239167
0.22723
0.2153
0.203376
0.191456
0.17954
0.167626
0.155715
0.143805
0.131896
0.119987
0.108079
0.096172
0.0842647
0.0723576
0.0604505
0.0485436
0.0366367
0.0247298
0.0128229
0.000916066
-0.0109908
-0.0228976
-0.0348045
-0.0467113
-0.0586181
-0.0705249
-0.0824318
-0.0943386
-0.106245
-0.118152
-0.130059
-0.141966
-0.153873
-0.165779
-0.177686
-0.189593
-0.2015
-0.213403
0.213403
1.28165
1.28165
1.24587
1.2038
1.16199
1.12252
1.08634
1.05366
1.02424
0.997613
0.973268
0.950735
0.929629
0.909651
0.890575
0.872234
0.854505
0.837296
0.820536
0.804169
0.788152
0.772449
0.75703
0.74187
0.726946
0.712239
0.697732
0.683409
0.669257
0.655263
0.641415
0.627703
0.614118
0.60065
0.587292
0.574036
0.560876
0.547804
0.534815
0.521903
0.509065
0.496294
0.483588
0.470943
0.458357
0.445826
0.433348
0.420922
0.408547
0.396219
0.383937
0.371699
0.359503
0.347346
0.335224
0.323136
0.311077
0.299044
0.287035
0.275045
0.263073
0.251114
0.239167
0.22723
0.2153
0.203376
0.191456
0.17954
0.167626
0.155715
0.143805
0.131896
0.119987
0.108079
0.096172
0.0842647
0.0723576
0.0604505
0.0485436
0.0366367
0.0247298
0.0128229
0.000916065
-0.0109908
-0.0228976
-0.0348045
-0.0467113
-0.0586181
-0.0705249
-0.0824318
-0.0943386
-0.106245
-0.118152
-0.130059
-0.141966
-0.153873
-0.165779
-0.177686
-0.189593
-0.201499
-0.213402
0.213402
1.27296
1.27296
1.24385
1.20405
1.16291
1.1236
1.08737
1.05455
1.02497
0.998192
0.973717
0.95108
0.929896
0.909859
0.890739
0.872367
0.854615
0.837388
0.820613
0.804235
0.78821
0.7725
0.757075
0.74191
0.726982
0.712271
0.697761
0.683435
0.669281
0.655284
0.641434
0.627721
0.614134
0.600665
0.587306
0.574049
0.560887
0.547814
0.534825
0.521912
0.509073
0.496302
0.483595
0.47095
0.458363
0.445832
0.433354
0.420928
0.408551
0.396223
0.383941
0.371703
0.359506
0.347349
0.335227
0.323138
0.311079
0.299046
0.287036
0.275047
0.263074
0.251115
0.239168
0.22723
0.2153
0.203376
0.191456
0.17954
0.167627
0.155715
0.143805
0.131896
0.119987
0.10808
0.096172
0.0842647
0.0723576
0.0604505
0.0485436
0.0366367
0.0247298
0.0128229
0.000916065
-0.0109908
-0.0228976
-0.0348045
-0.0467113
-0.0586181
-0.0705249
-0.0824318
-0.0943386
-0.106245
-0.118152
-0.130059
-0.141966
-0.153873
-0.165779
-0.177686
-0.189592
-0.201496
-0.213401
0.213401
1.26888
1.26888
1.24277
1.20417
1.1634
1.12419
1.08794
1.05505
1.02539
0.998527
0.97398
0.951287
0.930059
0.909989
0.890845
0.872454
0.854688
0.83745
0.820667
0.804282
0.788251
0.772536
0.757108
0.741939
0.727008
0.712295
0.697782
0.683455
0.669299
0.6553
0.641449
0.627735
0.614147
0.600677
0.587316
0.574059
0.560896
0.547823
0.534832
0.521919
0.50908
0.496308
0.483601
0.470955
0.458368
0.445836
0.433358
0.420932
0.408556
0.396227
0.383945
0.371706
0.359509
0.347351
0.335229
0.32314
0.311081
0.299048
0.287038
0.275048
0.263075
0.251116
0.239169
0.227231
0.2153
0.203376
0.191456
0.17954
0.167627
0.155715
0.143805
0.131896
0.119987
0.10808
0.096172
0.0842647
0.0723576
0.0604505
0.0485436
0.0366367
0.0247298
0.0128229
0.000916066
-0.0109908
-0.0228976
-0.0348045
-0.0467113
-0.0586181
-0.0705249
-0.0824318
-0.0943386
-0.106245
-0.118152
-0.130059
-0.141966
-0.153873
-0.165779
-0.177686
-0.189592
-0.201494
-0.2134
0.2134
1.26888
1.26888
1.24277
1.20417
1.1634
1.12419
1.08794
1.05505
1.02539
0.998527
0.97398
0.951287
0.930059
0.909989
0.890845
0.872454
0.854688
0.83745
0.820667
0.804282
0.788251
0.772536
0.757108
0.741939
0.727008
0.712295
0.697782
0.683455
0.669299
0.6553
0.641449
0.627735
0.614147
0.600677
0.587316
0.574059
0.560896
0.547823
0.534832
0.521919
0.50908
0.496308
0.483601
0.470955
0.458368
0.445836
0.433358
0.420932
0.408556
0.396227
0.383945
0.371706
0.359509
0.347351
0.335229
0.32314
0.311081
0.299048
0.287038
0.275048
0.263075
0.251116
0.239169
0.227231
0.2153
0.203376
0.191456
0.17954
0.167627
0.155715
0.143805
0.131896
0.119987
0.10808
0.096172
0.0842647
0.0723576
0.0604505
0.0485436
0.0366367
0.0247298
0.0128229
0.000916066
-0.0109908
-0.0228976
-0.0348045
-0.0467113
-0.0586181
-0.0705249
-0.0824318
-0.0943386
-0.106245
-0.118152
-0.130059
-0.141966
-0.153873
-0.165779
-0.177686
-0.189592
-0.201494
-0.2134
0.2134
1.27296
1.27296
1.24385
1.20405
1.16291
1.1236
1.08737
1.05455
1.02497
0.998192
0.973717
0.95108
0.929896
0.909859
0.890739
0.872367
0.854615
0.837388
0.820613
0.804235
0.78821
0.7725
0.757075
0.74191
0.726982
0.712271
0.697761
0.683435
0.669281
0.655284
0.641434
0.627721
0.614134
0.600665
0.587306
0.574049
0.560887
0.547814
0.534825
0.521912
0.509073
0.496302
0.483595
0.47095
0.458363
0.445832
0.433354
0.420928
0.408551
0.396223
0.383941
0.371703
0.359506
0.347349
0.335227
0.323138
0.311079
0.299046
0.287036
0.275047
0.263074
0.251115
0.239168
0.22723
0.2153
0.203376
0.191456
0.17954
0.167627
0.155715
0.143805
0.131896
0.119987
0.10808
0.096172
0.0842647
0.0723576
0.0604505
0.0485436
0.0366367
0.0247298
0.0128229
0.000916066
-0.0109908
-0.0228976
-0.0348045
-0.0467113
-0.0586181
-0.0705249
-0.0824318
-0.0943386
-0.106245
-0.118152
-0.130059
-0.141966
-0.153873
-0.165779
-0.177686
-0.189592
-0.201496
-0.213401
0.213401
1.28165
1.28165
1.24587
1.2038
1.16199
1.12252
1.08634
1.05366
1.02424
0.997613
0.973268
0.950735
0.929629
0.909651
0.890575
0.872234
0.854505
0.837296
0.820536
0.804169
0.788152
0.772449
0.75703
0.74187
0.726946
0.712239
0.697732
0.683409
0.669257
0.655263
0.641415
0.627703
0.614118
0.60065
0.587292
0.574036
0.560876
0.547804
0.534815
0.521903
0.509065
0.496294
0.483588
0.470943
0.458357
0.445826
0.433348
0.420922
0.408547
0.396219
0.383937
0.371699
0.359503
0.347346
0.335224
0.323136
0.311077
0.299044
0.287035
0.275045
0.263073
0.251114
0.239167
0.22723
0.2153
0.203376
0.191456
0.17954
0.167626
0.155715
0.143805
0.131896
0.119987
0.108079
0.096172
0.0842647
0.0723576
0.0604505
0.0485436
0.0366367
0.0247298
0.0128229
0.000916066
-0.0109908
-0.0228976
-0.0348045
-0.0467113
-0.0586181
-0.0705249
-0.0824318
-0.0943386
-0.106245
-0.118152
-0.130059
-0.141966
-0.153873
-0.165779
-0.177686
-0.189593
-0.201499
-0.213402
0.213402
1.29603
1.29603
1.24837
1.2034
1.16086
1.12125
1.08516
1.05267
1.02345
0.997007
0.972812
0.950395
0.929374
0.909457
0.890425
0.872116
0.85441
0.837218
0.82047
0.804113
0.788103
0.772407
0.756993
0.741837
0.726916
0.712213
0.697708
0.683388
0.669238
0.655245
0.641399
0.627688
0.614104
0.600638
0.587281
0.574026
0.560866
0.547795
0.534806
0.521896
0.509057
0.496288
0.483582
0.470938
0.458351
0.445821
0.433344
0.420919
0.408543
0.396216
0.383935
0.371697
0.359501
0.347344
0.335223
0.323135
0.311076
0.299044
0.287035
0.275045
0.263073
0.251114
0.239167
0.22723
0.2153
0.203376
0.191456
0.17954
0.167626
0.155715
0.143805
0.131896
0.119987
0.108079
0.096172
0.0842647
0.0723576
0.0604505
0.0485436
0.0366367
0.0247298
0.0128229
0.000916067
-0.0109908
-0.0228976
-0.0348045
-0.0467113
-0.0586181
-0.0705249
-0.0824318
-0.0943386
-0.106245
-0.118152
-0.130059
-0.141966
-0.153873
-0.165779
-0.177686
-0.189593
-0.2015
-0.213403
0.213403
1.31668
1.31668
1.25017
1.20309
1.16014
1.12048
1.08446
1.05208
1.02297
0.996637
0.972526
0.950174
0.929201
0.909319
0.890313
0.872024
0.854332
0.837151
0.820412
0.804062
0.788058
0.772366
0.756956
0.741804
0.726887
0.712186
0.697683
0.683365
0.669217
0.655226
0.641381
0.627672
0.614089
0.600624
0.587268
0.574014
0.560855
0.547784
0.534797
0.521887
0.509049
0.49628
0.483575
0.470931
0.458346
0.445816
0.433339
0.420915
0.40854
0.396213
0.383932
0.371695
0.3595
0.347343
0.335222
0.323134
0.311076
0.299044
0.287035
0.275045
0.263073
0.251114
0.239167
0.22723
0.2153
0.203376
0.191456
0.17954
0.167627
0.155715
0.143805
0.131896
0.119987
0.10808
0.096172
0.0842647
0.0723576
0.0604505
0.0485436
0.0366367
0.0247298
0.0128229
0.000916067
-0.0109908
-0.0228976
-0.0348045
-0.0467113
-0.0586181
-0.0705249
-0.0824318
-0.0943386
-0.106245
-0.118152
-0.130059
-0.141966
-0.153873
-0.165779
-0.177686
-0.189593
-0.2015
-0.213403
0.213403
1.31668
1.31668
1.25017
1.20309
1.16014
1.12048
1.08446
1.05208
1.02297
0.996637
0.972526
0.950174
0.929201
0.909319
0.890313
0.872024
0.854332
0.837151
0.820412
0.804062
0.788058
0.772366
0.756956
0.741804
0.726887
0.712186
0.697683
0.683365
0.669217
0.655226
0.641381
0.627672
0.614089
0.600624
0.587268
0.574014
0.560855
0.547784
0.534797
0.521887
0.509049
0.49628
0.483575
0.470931
0.458346
0.445816
0.433339
0.420915
0.40854
0.396213
0.383932
0.371695
0.3595
0.347343
0.335222
0.323134
0.311076
0.299044
0.287035
0.275045
0.263073
0.251114
0.239167
0.22723
0.2153
0.203376
0.191456
0.17954
0.167627
0.155715
0.143805
0.131896
0.119987
0.10808
0.096172
0.0842647
0.0723576
0.0604505
0.0485436
0.0366367
0.0247298
0.0128229
0.000916067
-0.0109908
-0.0228976
-0.0348045
-0.0467113
-0.0586181
-0.0705249
-0.0824318
-0.0943386
-0.106245
-0.118152
-0.130059
-0.141966
-0.153873
-0.165779
-0.177686
-0.189593
-0.2015
-0.213403
0.213403
SCALARS phi double
LOOKUP_TABLE phi
1
1
1
0.999995
0.999977
0.999931
0.999833
0.999654
0.999363
0.998928
0.998322
0.997523
0.996512
0.995274
0.993804
0.992124
0.990256
0.988154
0.985614
0.982223
0.977394
0.970479
0.960895
0.948236
0.932312
0.913143
0.890915
0.865925
0.838533
0.809127
0.778102
0.745839
0.7127
0.679017
0.645094
0.611196
0.577559
0.544382
0.511831
0.480045
0.449133
0.419182
0.390257
0.362404
0.335655
0.310028
0.285534
0.262173
0.239942
0.218832
0.198834
0.179935
0.162125
0.145391
0.129724
0.115111
0.101542
0.0890053
0.0774871
0.0669707
0.0574356
0.0488559
0.0411999
0.0344292
0.0284989
0.0233575
0.0189478
0.0152081
0.0120737
0.00947831
0.0073559
0.00564235
0.00427679
0.00320288
0.00236955
0.0017316
0.00124982
0.000890918
0.000627186
0.000436026
0.000299351
0.000202957
0.00013589
8.98558e-05
5.86806e-05
3.7849e-05
2.41129e-05
1.51743e-05
9.43316e-06
5.79337e-06
3.5153e-06
2.1076e-06
1.24865e-06
7.31079e-07
4.23051e-07
2.41973e-07
1.36812e-07
7.64779e-08
4.22417e-08
2.32282e-08
1.16808e-08
1.16808e-08
1
1
1
0.999995
0.999977
0.999931
0.999833
0.999654
0.999363
0.998928
0.998322
0.997523
0.996512
0.995274
0.993804
0.992124
0.990256
0.988154
0.985614
0.982223
0.977394
0.970479
0.960895
0.948236
0.932312
0.913143
0.890915
0.865925
0.838533
0.809127
0.778102
0.745839
0.7127
0.679017
0.645094
0.611196
0.577559
0.544382
0.511831
0.480045
0.449133
0.419182
0.390257
0.362404
0.335655
0.310028
0.285534
0.262173
0.239942
0.218832
0.198834
0.179935
0.162125
0.145391
0.129724
0.115111
0.101542
0.0890053
0.0774871
0.0669707
0.0574356
0.0488559
0.0411999
0.0344292
0.0284989
0.0233575
0.0189478
0.0152081
0.0120737
0.00947831
0.0073559
0.00564235
0.00427679
0.00320288
0.00236955
0.0017316
0.00124982
0.000890918
0.000627186
0.000436026
0.000299351
0.000202957
0.00013589
8.98558e-05
5.86806e-05
3.7849e-05
2.41129e-05
1.51743e-05
9.43316e-06
5.79337e-06
3.5153e-06
2.1076e-06
1.24865e-06
7.31079e-07
4.23051e-07
2.41973e-07
1.36812e-07
7.64779e-08
4.22417e-08
2.32282e-08
1.16808e-08
1.16808e-08
0.999998
1
0.999984
0.999921
0.999783
0.999536
0.999146
0.99858
0.997811
0.996819
0.995589
0.994116
0.992397
0.990436
0.988238
0.985814
0.983183
0.980361
0.977334
0.974027
0.97028
0.965847
0.960421
0.953674
0.945299
0.935051
0.922761
0.908347
0.89181
0.87322
0.852706
0.830438
0.806618
0.781466
0.755208
0.728073
0.70028
0.672041
0.643549
0.614983
0.586501
0.558242
0.530328
0.50286
0.475919
0.449571
0.423866
0.398836
0.374504
0.350877
0.327956
0.305735
0.284202
0.263345
0.243151
0.223613
0.204731
0.186511
0.168974
0.152148
0.136075
0.120802
0.106386
0.092883
0.0803465
0.0688222
0.0583427
0.0489247
0.0405655
0.033243
0.0269156
0.0215247
0.0169976
0.0132513
0.0101972
0.00774438
0.00580411
0.00429235
0.00313217
0.00225515
0.00160209
0.00112301
0.000776757
0.000530163
0.000357094
0.000237376
0.000155741
0.000100861
6.44812e-05
4.06984e-05
2.53629e-05
1.56079e-05
9.48542e-06
5.6936e-06
3.37584e-06
1.97737e-06
1.14434e-06
6.54426e-07
3.69581e-07
2.07854e-07
1.06436e-07
1.06436e-07
1.00001
0.999992
0.99954
0.998615
0.997207
0.995316
0.992954
0.990144
0.986922
0.983331
0.979421
0.975241
0.970836
0.966247
0.961513
0.956663
0.951727
0.94673
0.94169
0.936616
0.931495
0.92629
0.92093
0.915313
0.909316
0.902798
0.895618
0.887641
0.878747
0.868842
0.857856
0.845748
0.832503
0.818133
0.802675
0.786184
0.768731
0.7504
0.731285
0.711487
0.691106
0.670246
0.649007
0.627486
0.605771
0.583945
0.56208
0.540235
0.518461
0.496792
0.475251
0.453845
0.432571
0.411409
0.39033
0.3693
0.348279
0.327231
0.306131
0.284972
0.263772
0.242582
0.221491
0.20062
0.180127
0.160193
0.141014
0.122786
0.105694
0.0898935
0.0755073
0.0626121
0.0512379
0.0413684
0.0329455
0.0258762
0.0200414
0.0153052
0.0115244
0.00855561
0.00626245
0.0045197
0.00321639
0.0022571
0.00156203
0.00106616
0.000717785
0.000476708
0.000312352
0.00020194
0.000128837
8.11241e-05
5.04206e-05
3.09363e-05
1.87408e-05
1.12105e-05
6.62259e-06
3.8645e-06
2.22581e-06
1.27685e-06
6.6562e-07
6.6562e-07
1.00143
0.99857
0.991252
0.98188
0.971566
0.96086
0.950051
0.939311
0.928756
0.918467
0.908503
0.898898
0.889671
0.880827
0.87236
0.864261
0.856512
0.849098
0.841998
0.835194
0.828665
0.822388
0.816331
0.810459
0.804724
0.799073
0.793442
0.787762
0.78196
0.775962
0.769694
0.763088
0.756081
0.748617
0.740652
0.73215
0.723084
0.713439
0.703209
0.692398
0.681017
0.669085
0.656628
0.643675
0.63026
0.616419
0.602189
0.587605
0.5727
0.557504
0.542036
0.526312
0.510331
0.49408
0.47753
0.46063
0.443312
0.425491
0.40707
0.387949
0.368042
0.347288
0.325669
0.303226
0.280066
0.25637
0.232386
0.208418
0.184808
0.161911
0.140072
0.119598
0.100744
0.0836913
0.0685477
0.0553434
0.0440384
0.0345339
0.0266859
0.0203203
0.0152473
0.0112743
0.00821563
0.00590041
0.00417688
0.00291472
0.00200524
0.00136024
0.000909907
0.000600304
0.000390658
0.000250805
0.000158873
9.93112e-05
6.12697e-05
3.73125e-05
2.24326e-05
1.33177e-05
7.80078e-06
4.5513e-06
2.41067e-06
2.41067e-06
1.0456
0.954401
0.887723
0.838674
0.801641
0.772861
0.749886
0.731119
0.715499
0.702298
0.691001
0.681228
0.672693
0.665173
0.658493
0.652515
0.647126
0.642236
0.637772
0.633674
0.629891
0.626383
0.623113
0.620049
0.617163
0.614426
0.611807
0.609278
0.606806
0.604357
0.601897
0.59939
0.596796
0.594081
0.591207
0.588138
0.584841
0.581285
0.577441
0.573285
0.568795
0.563953
0.558745
0.55316
0.547192
0.540837
0.534093
0.526964
0.51945
0.511557
0.503286
0.494636
0.485601
0.476163
0.466289
0.455927
0.444998
0.433396
0.420985
0.407611
0.393107
0.377312
0.360095
0.341379
0.321159
0.299524
0.276662
0.252857
0.228479
0.203956
0.179747
0.156309
0.134059
0.113354
0.0944663
0.0775746
0.0627616
0.0500213
0.0392715
0.0303705
0.023136
0.0173621
0.012836
0.00934982
0.00671075
0.00474661
0.00330899
0.00227387
0.00154048
0.00102903
0.000677873
0.000440434
0.000282288
0.000178504
0.000111382
6.85899e-05
4.16909e-05
2.50191e-05
1.48105e-05
8.73334e-06
4.67328e-06
4.67328e-06
-0.0455988
0.0455988
0.112277
0.161327
0.198359
0.227139
0.250114
0.268881
0.284502
0.297702
0.308999
0.318772
0.327307
0.334827
0.341507
0.347485
0.352874
0.357764
0.362228
0.366327
0.37011
0.373618
0.376885
0.379941
0.382808
0.385505
0.388049
0.39045
0.392719
0.39486
0.396876
0.398766
0.400528
0.402156
0.403642