# vtk DataFile Version 3.0
FlowField
ASCII
DATASET STRUCTURED_GRID
DIMENSIONS 22 17 12 
POINTS 4488 double
0 0 0
5 0 0
10 0 0
15 0 0
20 0 0
25 0 0
30 0 0
35 0 0
40 0 0
45 0 0
50 0 0
55 0 0
60 0 0
65 0 0
70 0 0
75 0 0
80 0 0
85 0 0
90 0 0
95 0 0
100 0 0
105 0 0
0 1 0
5 1 0
10 1 0
15 1 0
20 1 0
25 1 0
30 1 0
35 1 0
40 1 0
45 1 0
50 1 0
55 1 0
60 1 0
65 1 0
70 1 0
75 1 0
80 1 0
85 1 0
90 1 0
95 1 0
100 1 0
105 1 0
0 2 0
5 2 0
10 2 0
15 2 0
20 2 0
25 2 0
30 2 0
35 2 0
40 2 0
45 2 0
50 2 0
55 2 0
60 2 0
65 2 0
70 2 0
75 2 0
80 2 0
85 2 0
90 2 0
95 2 0
100 2 0
105 2 0
0 3 0
5 3 0
10 3 0
15 3 0
20 3 0
25 3 0
30 3 0
35 3 0
40 3 0
45 3 0
50 3 0
55 3 0
60 3 0
65 3 0
70 3 0
75 3 0
80 3 0
85 3 0
90 3 0
95 3 0
100 3 0
105 3 0
0 4 0
5 4 0
10 4 0
15 4 0
20 4 0
25 4 0
30 4 0
35 4 0
40 4 0
45 4 0
50 4 0
55 4 0
60 4 0
65 4 0
70 4 0
75 4 0
80 4 0
85 4 0
90 4 0
95 4 0
100 4 0
105 4 0
0 5 0
5 5 0
10 5 0
15 5 0
20 5 0
25 5 0
30 5 0
35 5 0
40 5 0
45 5 0
50 5 0
55 5 0
60 5 0
65 5 0
70 5 0
75 5 0
80 5 0
85 5 0
90 5 0
95 5 0
100 5 0
105 5 0
0 6 0
5 6 0
10 6 0
15 6 0
20 6 0
25 6 0
30 6 0
35 6 0
40 6 0
45 6 0
50 6 0
55 6 0
60 6 0
65 6 0
70 6 0
75 6 0
80 6 0
85 6 0
90 6 0
95 6 0
100 6 0
105 6 0
0 7 0
5 7 0
10 7 0
15 7 0
20 7 0
25 7 0
30 7 0
35 7 0
40 7 0
45 7 0
50 7 0
55 7 0
60 7 0
65 7 0
70 7 0
75 7 0
80 7 0
85 7 0
90 7 0
95 7 0
100 7 0
105 7 0
0 8 0
5 8 0
10 8 0
15 8 0
20 8 0
25 8 0
30 8 0
35 8 0
40 8 0
45 8 0
50 8 0
55 8 0
60 8 0
65 8 0
70 8 0
75 8 0
80 8 0
85 8 0
90 8 0
95 8 0
100 8 0
105 8 0
0 9 0
5 9 0
10 9 0
15 9 0
20 9 0
25 9 0
30 9 0
35 9 0
40 9 0
45 9 0
50 9 0
55 9 0
60 9 0
65 9 0
70 9 0
75 9 0
80 9 0
85 9 0
90 9 0
95 9 0
100 9 0
105 9 0
0 10 0
5 10 0
10 10 0
15 10 0
20 10 0
25 10 0
30 10 0
35 10 0
40 10 0
45 10 0
50 10 0
55 10 0
60 10 0
65 10 0
70 10 0
75 10 0
80 10 0
85 10 0
90 10 0
95 10 0
100 10 0
105 10 0
0 11 0
5 11 0
10 11 0
15 11 0
20 11 0
25 11 0
30 11 0
35 11 0
40 11 0
45 11 0
50 11 0
55 11 0
60 11 0
65 11 0
70 11 0
75 11 0
80 11 0
85 11 0
90 11 0
95 11 0
100 11 0
105 11 0
0 12 0
5 12 0
10 12 0
15 12 0
20 12 0
25 12 0
30 12 0
35 12 0
40 12 0
45 12 0
50 12 0
55 12 0
60 12 0
65 12 0
70 12 0
75 12 0
80 12 0
85 12 0
90 12 0
95 12 0
100 12 0
105 12 0
0 13 0
5 13 0
10 13 0
15 13 0
20 13 0
25 13 0
30 13 0
35 13 0
40 13 0
45 13 0
50 13 0
55 13 0
60 13 0
65 13 0
70 13 0
75 13 0
80 13 0
85 13 0
90 13 0
95 13 0
100 13 0
105 13 0
0 14 0
5 14 0
10 14 0
15 14 0
20 14 0
25 14 0
30 14 0
35 14 0
40 14 0
45 14 0
50 14 0
55 14 0
60 14 0
65 14 0
70 14 0
75 14 0
80 14 0
85 14 0
90 14 0
95 14 0
100 14 0
105 14 0
0 15 0
5 15 0
10 15 0
15 15 0
20 15 0
25 15 0
30 15 0
35 15 0
40 15 0
45 15 0
50 15 0
55 15 0
60 15 0
65 15 0
70 15 0
75 15 0
80 15 0
85 15 0
90 15 0
95 15 0
100 15 0
105 15 0
0 16 0
5 16 0
10 16 0
15 16 0
20 16 0
25 16 0
30 16 0
35 16 0
40 16 0
45 16 0
50 16 0
55 16 0
60 16 0
65 16 0
70 16 0
75 16 0
80 16 0
85 16 0
90 16 0
95 16 0
100 16 0
105 16 0
0 0 1
5 0 1
10 0 1
15 0 1
20 0 1
25 0 1
30 0 1
35 0 1
40 0 1
45 0 1
50 0 1
55 0 1
60 0 1
65 0 1
70 0 1
75 0 1
80 0 1
85 0 1
90 0 1
95 0 1
100 0 1
105 0 1
0 1 1
5 1 1
10 1 1
15 1 1
20 1 1
25 1 1
30 1 1
35 1 1
40 1 1
45 1 1
50 1 1
55 1 1
60 1 1
65 1 1
70 1 1
75 1 1
80 1 1
85 1 1
90 1 1
95 1 1
100 1 1
105 1 1
0 2 1
5 2 1
10 2 1
15 2 1
20 2 1
25 2 1
30 2 1
35 2 1
40 2 1
45 2 1
50 2 1
55 2 1
60 2 1
65 2 1
70 2 1
75 2 1
80 2 1
85 2 1
90 2 1
95 2 1
100 2 1
105 2 1
0 3 1
5 3 1
10 3 1
15 3 1
20 3 1
25 3 1
30 3 1
35 3 1
40 3 1
45 3 1
50 3 1
55 3 1
60 3 1
65 3 1
70 3 1
75 3 1
80 3 1
85 3 1
90 3 1
95 3 1
100 3 1
105 3 1
0 4 1
5 4 1
10 4 1
15 4 1
20 4 1
25 4 1
30 4 1
35 4 1
40 4 1
45 4 1
50 4 1
55 4 1
60 4 1
65 4 1
70 4 1
75 4 1
80 4 1
85 4 1
90 4 1
95 4 1
100 4 1
105 4 1
0 5 1
5 5 1
10 5 1
15 5 1
20 5 1
25 5 1
30 5 1
35 5 1
40 5 1
45 5 1
50 5 1
55 5 1
60 5 1
65 5 1
70 5 1
75 5 1
80 5 1
85 5 1
90 5 1
95 5 1
100 5 1
105 5 1
0 6 1
5 6 1
10 6 1
15 6 1
20 6 1
25 6 1
30 6 1
35 6 1
40 6 1
45 6 1
50 6 1
55 6 1
60 6 1
65 6 1
70 6 1
75 6 1
80 6 1
85 6 1
90 6 1
95 6 1
100 6 1
105 6 1
0 7 1
5 7 1
10 7 1
15 7 1
20 7 1
25 7 1
30 7 1
35 7 1
40 7 1
45 7 1
50 7 1
55 7 1
60 7 1
65 7 1
70 7 1
75 7 1
80 7 1
85 7 1
90 7 1
95 7 1
100 7 1
105 7 1
0 8 1
5 8 1
10 8 1
15 8 1
20 8 1
25 8 1
30 8 1
35 8 1
40 8 1
45 8 1
50 8 1
55 8 1
60 8 1
65 8 1
70 8 1
75 8 1
80 8 1
85 8 1
90 8 1
95 8 1
100 8 1
105 8 1
0 9 1
5 9 1
10 9 1
15 9 1
20 9 1
25 9 1
30 9 1
35 9 1
40 9 1
45 9 1
50 9 1
55 9 1
60 9 1
65 9 1
70 9 1
75 9 1
80 9 1
85 9 1
90 9 1
95 9 1
100 9 1
105 9 1
0 10 1
5 10 1
10 10 1
15 10 1
20 10 1
25 10 1
30 10 1
35 10 1
40 10 1
45 10 1
50 10 1
55 10 1
60 10 1
65 10 1
70 10 1
75 10 1
80 10 1
85 10 1
90 10 1
95 10 1
100 10 1
105 10 1
0 11 1
5 11 1
10 11 1
15 11 1
20 11 1
25 11 1
30 11 1
35 11 1
40 11 1
45 11 1
50 11 1
55 11 1
60 11 1
65 11 1
70 11 1
75 11 1
80 11 1
85 11 1
90 11 1
95 11 1
100 11 1
105 11 1
0 12 1
5 12 1
10 12 1
15 12 1
20 12 1
25 12 1
30 12 1
35 12 1
40 12 1
45 12 1
50 12 1
55 12 1
60 12 1
65 12 1
70 12 1
75 12 1
80 12 1
85 12 1
90 12 1
95 12 1
100 12 1
105 12 1
0 13 1
5 13 1
10 13 1
15 13 1
20 13 1
25 13 1
30 13 1
35 13 1
40 13 1
45 13 1
50 13 1
55 13 1
60 13 1
65 13 1
70 13 1
75 13 1
80 13 1
85 13 1
90 13 1
95 13 1
100 13 1
105 13 1
0 14 1
5 14 1
10 14 1
15 14 1
20 14 1
25 14 1
30 14 1
35 14 1
40 14 1
45 14 1
50 14 1
55 14 1
60 14 1
65 14 1
70 14 1
75 14 1
80 14 1
85 14 1
90 14 1
95 14 1
100 14 1
105 14 1
0 15 1
5 15 1
10 15 1
15 15 1
20 15 1
25 15 1
30 15 1
35 15 1
40 15 1
45 15 1
50 15 1
55 15 1
60 15 1
65 15 1
70 15 1
75 15 1
80 15 1
85 15 1
90 15 1
95 15 1
100 15 1
105 15 1
0 16 1
5 16 1
10 16 1
15 16 1
20 16 1
25 16 1
30 16 1
35 16 1
40 16 1
45 16 1
50 16 1
55 16 1
60 16 1
65 16 1
70 16 1
75 16 1
80 16 1
85 16 1
90 16 1
95 16 1
100 16 1
105 16 1
0 0 2
5 0 2
10 0 2
15 0 2
20 0 2
25 0 2
30 0 2
35 0 2
40 0 2
45 0 2
50 0 2
55 0 2
60 0 2
65 0 2
70 0 2
75 0 2
80 0 2
85 0 2
90 0 2
95 0 2
100 0 2
105 0 2
0 1 2
5 1 2
10 1 2
15 1 2
20 1 2
25 1 2
30 1 2
35 1 2
40 1 2
45 1 2
50 1 2
55 1 2
60 1 2
65 1 2
70 1 2
75 1 2
80 1 2
85 1 2
90 1 2
95 1 2
100 1 2
105 1 2
0 2 2
5 2 2
10 2 2
15 2 2
20 2 2
25 2 2
30 2 2
35 2 2
40 2 2
45 2 2
50 2 2
55 2 2
60 2 2
65 2 2
70 2 2
75 2 2
80 2 2
85 2 2
90 2 2
95 2 2
100 2 2
105 2 2
0 3 2
5 3 2
10 3 2
15 3 2
20 3 2
25 3 2
30 3 2
35 3 2
40 3 2
45 3 2
50 3 2
55 3 2
60 3 2
65 3 2
70 3 2
75 3 2
80 3 2
85 3 2
90 3 2
95 3 2
100 3 2
105 3 2
0 4 2
5 4 2
10 4 2
15 4 2
20 4 2
25 4 2
30 4 2
35 4 2
40 4 2
45 4 2
50 4 2
55 4 2
60 4 2
65 4 2
70 4 2
75 4 2
80 4 2
85 4 2
90 4 2
95 4 2
100 4 2
105 4 2
0 5 2
5 5 2
10 5 2
15 5 2
20 5 2
25 5 2
30 5 2
35 5 2
40 5 2
45 5 2
50 5 2
55 5 2
60 5 2
65 5 2
70 5 2
75 5 2
80 5 2
85 5 2
90 5 2
95 5 2
100 5 2
105 5 2
0 6 2
5 6 2
10 6 2
15 6 2
20 6 2
25 6 2
30 6 2
35 6 2
40 6 2
45 6 2
50 6 2
55 6 2
60 6 2
65 6 2
70 6 2
75 6 2
80 6 2
85 6 2
90 6 2
95 6 2
100 6 2
105 6 2
0 7 2
5 7 2
10 7 2
15 7 2
20 7 2
25 7 2
30 7 2
35 7 2
40 7 2
45 7 2
50 7 2
55 7 2
60 7 2
65 7 2
70 7 2
75 7 2
80 7 2
85 7 2
90 7 2
95 7 2
100 7 2
105 7 2
0 8 2
5 8 2
10 8 2
15 8 2
20 8 2
25 8 2
30 8 2
35 8 2
40 8 2
45 8 2
50 8 2
55 8 2
60 8 2
65 8 2
70 8 2
75 8 2
80 8 2
85 8 2
90 8 2
95 8 2
100 8 2
105 8 2
0 9 2
5 9 2
10 9 2
15 9 2
20 9 2
25 9 2
30 9 2
35 9 2
40 9 2
45 9 2
50 9 2
55 9 2
60 9 2
65 9 2
70 9 2
75 9 2
80 9 2
85 9 2
90 9 2
95 9 2
100 9 2
105 9 2
0 10 2
5 10 2
10 10 2
15 10 2
20 10 2
25 10 2
30 10 2
35 10 2
40 10 2
45 10 2
50 10 2
55 10 2
60 10 2
65 10 2
70 10 2
75 10 2
80 10 2
85 10 2
90 10 2
95 10 2
100 10 2
105 10 2
0 11 2
5 11 2
10 11 2
15 11 2
20 11 2
25 11 2
30 11 2
35 11 2
40 11 2
45 11 2
50 11 2
55 11 2
60 11 2
65 11 2
70 11 2
75 11 2
80 11 2
85 11 2
90 11 2
95 11 2
100 11 2
105 11 2
0 12 2
5 12 2
10 12 2
15 12 2
20 12 2
25 12 2
30 12 2
35 12 2
40 12 2
45 12 2
50 12 2
55 12 2
60 12 2
65 12 2
70 12 2
75 12 2
80 12 2
85 12 2
90 12 2
95 12 2
100 12 2
105 12 2
0 13 2
5 13 2
10 13 2
15 13 2
20 13 2
25 13 2
30 13 2
35 13 2
40 13 2
45 13 2
50 13 2
55 13 2
60 13 2
65 13 2
70 13 2
75 13 2
80 13 2
85 13 2
90 13 2
95 13 2
100 13 2
105 13 2
0 14 2
5 14 2
10 14 2
15 14 2
20 14 2
25 14 2
30 14 2
35 14 2
40 14 2
45 14 2
50 14 2
55 14 2
60 14 2
65 14 2
70 14 2
75 14 2
80 14 2
85 14 2
90 14 2
95 14 2
100 14 2
105 14 2
0 15 2
5 15 2
10 15 2
15 15 2
20 15 2
25 15 2
30 15 2
35 15 2
40 15 2
45 15 2
50 15 2
55 15 2
60 15 2
65 15 2
70 15 2
75 15 2
80 15 2
85 15 2
90 15 2
95 15 2
100 15 2
105 15 2
0 16 2
5 16 2
10 16 2
15 16 2
20 16 2
25 16 2
30 16 2
35 16 2
40 16 2
45 16 2
50 16 2
55 16 2
60 16 2
65 16 2
70 16 2
75 16 2
80 16 2
85 16 2
90 16 2
95 16 2
100 16 2
105 16 2
0 0 3
5 0 3
10 0 3
15 0 3
20 0 3
25 0 3
30 0 3
35 0 3
40 0 3
45 0 3
50 0 3
55 0 3
60 0 3
65 0 3
70 0 3
75 0 3
80 0 3
85 0 3
90 0 3
95 0 3
100 0 3
105 0 3
0 1 3
5 1 3
10 1 3
15 1 3
20 1 3
25 1 3
30 1 3
35 1 3
40 1 3
45 1 3
50 1 3
55 1 3
60 1 3
65 1 3
70 1 3
75 1 3
80 1 3
85 1 3
90 1 3
95 1 3
100 1 3
105 1 3
0 2 3
5 2 3
10 2 3
15 2 3
20 2 3
25 2 3
30 2 3
35 2 3
40 2 3
45 2 3
50 2 3
55 2 3
60 2 3
65 2 3
70 2 3
75 2 3
80 2 3
85 2 3
90 2 3
95 2 3
100 2 3
105 2 3
0 3 3
5 3 3
10 3 3
15 3 3
20 3 3
25 3 3
30 3 3
35 3 3
40 3 3
45 3 3
50 3 3
55 3 3
60 3 3
65 3 3
70 3 3
75 3 3
80 3 3
85 3 3
90 3 3
95 3 3
100 3 3
105 3 3
0 4 3
5 4 3
10 4 3
15 4 3
20 4 3
25 4 3
30 4 3
35 4 3
40 4 3
45 4 3
50 4 3
55 4 3
60 4 3
65 4 3
70 4 3
75 4 3
80 4 3
85 4 3
90 4 3
95 4 3
100 4 3
105 4 3
0 5 3
5 5 3
10 5 3
15 5 3
20 5 3
25 5 3
30 5 3
35 5 3
40 5 3
45 5 3
50 5 3
55 5 3
60 5 3
65 5 3
70 5 3
75 5 3
80 5 3
85 5 3
90 5 3
95 5 3
100 5 3
105 5 3
0 6 3
5 6 3
10 6 3
15 6 3
20 6 3
25 6 3
30 6 3
35 6 3
40 6 3
45 6 3
50 6 3
55 6 3
60 6 3
65 6 3
70 6 3
75 6 3
80 6 3
85 6 3
90 6 3
95 6 3
100 6 3
105 6 3
0 7 3
5 7 3
10 7 3
15 7 3
20 7 3
25 7 3
30 7 3
35 7 3
40 7 3
45 7 3
50 7 3
55 7 3
60 7 3
65 7 3
70 7 3
75 7 3
80 7 3
85 7 3
90 7 3
95 7 3
100 7 3
105 7 3
0 8 3
5 8 3
10 8 3
15 8 3
20 8 3
25 8 3
30 8 3
35 8 3
40 8 3
45 8 3
50 8 3
55 8 3
60 8 3
65 8 3
70 8 3
75 8 3
80 8 3
85 8 3
90 8 3
95 8 3
100 8 3
105 8 3
0 9 3
5 9 3
10 9 3
15 9 3
20 9 3
25 9 3
30 9 3
35 9 3
40 9 3
45 9 3
50 9 3
55 9 3
60 9 3
65 9 3
70 9 3
75 9 3
80 9 3
85 9 3
90 9 3
95 9 3
100 9 3
105 9 3
0 10 3
5 10 3
10 10 3
15 10 3
[...]
POINT_DATA 4488

SCALARS pressure double
LOOKUP_TABLE pressure
0
0
0
0
0
0
0
0
0
0
0
0
0
0
0
0
0
0
0
0
0
0
0
1547.21
1547.21
1547.16
1546.89
1546.77
1546.73
1546.72
1546.63
1546.67
1546.4
1546.19
1545.76
1545.61
1545.26
1544.58
1542.7
1542.63
1542.03
1541.69
1541.54
0
0
1547.22
1547.21
1547.18
1546.89
1546.77
1546.74
1546.73
1546.63
1546.45
1546.4
1546.2
1545.76
1545.62
1545.29
1544.62
1542.59
1542.65
1542.02
1541.68
1541.54
0
0
1547.22
1547.22
1547.19
1546.9
1546.78
1546.77
1546.75
1546.63
1546.49
1546.41
1546.22
1545.8
1545.65
1545.33
1544.72
1544.51
1542.7
1542
1541.67
1541.54
0
0
1547.23
1547.23
1547.21
1546.91
1546.48
1546.77
1546.77
1546.68
1546.52
1546.42
1546.25
1545.8
1545.69
1545.39
1544.81
1544.42
1542.69
1541.96
1541.64
1541.55
0
0
1547.25
1547.24
1547.14
1546.93
1546.47
1546.8
1546.8
1546.69
1546.55
1546.44
1546.3
1546.32
1545.74
1545.46
1544.9
1544.37
1542.64
1541.9
1541.61
1541.56
0
0
1547.26
1547.26
1547.17
1546.97
1546.44
1546.84
1546.83
1546.7
1546.58
1546.46
1546.33
1546.26
1545.8
1545.54
1545
1544.38
1542.55
1541.62
1541.57
1541.57
0
0
1547.28
1547.28
1547.21
1547.02
1546.38
1546.89
1546.87
1546.72
1546.61
1546.49
1546.36
1546.29
1545.91
1545.63
1545.13
1544.43
1542.42
1541.5
1541.52
1541.58
0
0
1547.31
1547.3
1547.25
1547.09
1546.28
1546.97
1546.92
1546.86
1546.64
1546.51
1546.39
1546.32
1546.02
1545.72
1545.26
1544.53
1542.23
1541.34
1541.47
1541.6
0
0
1547.33
1547.34
1547.3
1547.19
1546.1
1547.07
1546.97
1546.88
1546.68
1546.54
1546.42
1546.35
1546.12
1545.89
1545.34
1544.69
1541.98
1541.14
1541.43
1541.61
0
0
1547.36
1547.37
1547.36
1547.31
1547.91
1547.22
1547.02
1546.92
1546.71
1546.57
1546.45
1546.39
1546.23
1546.01
1545.48
1544.92
1541.6
1540.88
1541.38
1541.63
0
0
1547.39
1547.41
1547.42
1547.43
1547.84
1547.32
1547.09
1546.96
1546.74
1546.59
1546.48
1546.43
1546.35
1546.14
1545.62
1545.24
1541.02
1540.56
1541.35
1541.64
0
0
1547.42
1547.45
1547.48
1547.54
1547.82
1547.4
1547.15
1547
1546.77
1546.62
1546.52
1546.48
1546.47
1546.28
1545.73
1545.68
1540.44
1540.19
1541.32
1541.66
0
0
1547.45
1547.49
1547.54
1547.63
1547.83
1547.47
1547.21
1546.97
1546.8
1546.65
1546.55
1546.53
1546.6
1546.42
1547.83
1546.31
1539.46
1539.74
1541.33
1541.68
0
0
1547.49
1547.53
1547.6
1547.71
1547.84
1547.53
1547.27
1547.02
1546.83
1546.67
1546.58
1546.58
1546.74
1547.41
1548.04
1547.05
1538.09
1539.19
1541.38
1541.7
0
0
1547.53
1547.58
1547.67
1547.79
1547.85
1547.59
1547.33
1547.07
1546.86
1546.7
1546.61
1546.63
1546.88
1547.5
1548.29
1548.58
1536.68
1538.53
1541.52
1541.72
0
0
0
0
0
0
0
0
0
0
0
0
0
0
0
0
0
0
0
0
0
0
0
0
1547.21
1547.21
1547.16
1546.89
1546.77
1546.73
1546.72
1546.63
1546.67
1546.4
1546.19
1545.76
1545.61
1545.26
1544.58
1542.7
1542.63
1542.03
1541.69
1541.54
0
-1547.21
1547.21
1547.21
1547.16
1546.89
1546.77
1546.73
1546.72
1546.63
1546.67
1546.4
1546.19
1545.76
1545.61
1545.26
1544.58
1542.7
1542.63
1542.03
1541.69
1541.54
1541.54
0.0164188
1547.22
1547.21
1547.18
1546.89
1546.77
1546.74
1546.73
1546.63
1546.45
1546.4
1546.2
1545.76
1545.62
1545.29
1544.62
1542.59
1542.65
1542.02
1541.68
1541.54
1541.54
-1547.22
1547.22
1547.22
1547.19
1546.9
1546.78
1546.77
1546.75
1546.63
1546.49
1546.41
1546.22
1545.8
1545.65
1545.33
1544.72
1544.51
1542.7
1542
1541.67
1541.54
1541.54
-1547.23
1547.23
1547.23
1547.21
1546.91
1546.48
1546.77
1546.77
1546.68
1546.52
1546.42
1546.25
1545.8
1545.69
1545.39
1544.81
1544.42
1542.69
1541.96
1541.64
1541.55
1541.55
-1547.25
1547.25
1547.24
1547.14
1546.93
1546.47
1546.8
1546.8
1546.69
1546.55
1546.44
1546.3
1546.32
1545.74
1545.46
1544.9
1544.37
1542.64
1541.9
1541.61
1541.56
1541.56
-1547.26
1547.26
1547.26
1547.17
1546.97
1546.44
1546.84
1546.83
1546.7
1546.58
1546.46
1546.33
1546.26
1545.8
1545.54
1545
1544.38
1542.55
1541.62
1541.57
1541.57
1541.57
-1547.28
1547.28
1547.28
1547.21
1547.02
1546.38
1546.89
1546.87
1546.72
1546.61
1546.49
1546.36
1546.29
1545.91
1545.63
1545.13
1544.43
1542.42
1541.5
1541.52
1541.58
1541.58
-1547.31
1547.31
1547.3
1547.25
1547.09
1546.28
1546.97
1546.92
1546.86
1546.64
1546.51
1546.39
1546.32
1546.02
1545.72
1545.26
1544.53
1542.23
1541.34
1541.47
1541.6
1541.6
-1547.33
1547.33
1547.34
1547.3
1547.19
1546.1
1547.07
1546.97
1546.88
1546.68
1546.54
1546.42
1546.35
1546.12
1545.89
1545.34
1544.69
1541.98
1541.14
1541.43
1541.61
1541.61
-1547.36
1547.36
1547.37
1547.36
1547.31
1547.91
1547.22
1547.02
1546.92
1546.71
1546.57
1546.45
1546.39
1546.23
1546.01
1545.48
1544.92
1541.6
1540.88
1541.38
1541.63
1541.63
-1547.39
1547.39
1547.41
1547.42
1547.43
1547.84
1547.32
1547.09
1546.96
1546.74
1546.59
1546.48
1546.43
1546.35
1546.14
1545.62
1545.24
1541.02
1540.56
1541.35
1541.64
1541.64
-1547.42
1547.42
1547.45
1547.48
1547.54
1547.82
1547.4
1547.15
1547
1546.77
1546.62
1546.52
1546.48
1546.47
1546.28
1545.73
1545.68
1540.44
1540.19
1541.32
1541.66
1541.66
-1547.45
1547.45
1547.49
1547.54
1547.63
1547.83
1547.47
1547.21
1546.97
1546.8
1546.65
1546.55
1546.53
1546.6
1546.42
1547.83
1546.31
1539.46
1539.74
1541.33
1541.68
1541.68
-1547.49
1547.49
1547.53
1547.6
1547.71
1547.84
1547.53
1547.27
1547.02
1546.83
1546.67
1546.58
1546.58
1546.74
1547.41
1548.04
1547.05
1538.09
1539.19
1541.38
1541.7
1541.7
-1547.53
1547.53
1547.58
1547.67
1547.79
1547.85
1547.59
1547.33
1547.07
1546.86
1546.7
1546.61
1546.63
1546.88
1547.5
1548.29
1548.58
1536.68
1538.53
1541.52
1541.72
1541.72
0
1547.53
1547.58
1547.67
1547.79
1547.85
1547.59
1547.33
1547.07
1546.86
1546.7
1546.61
1546.63
1546.88
1547.5
1548.29
1548.58
1536.68
1538.53
1541.52
1541.72
0
0
1547.24
1547.24
1547.18
1546.97
1546.82
1546.78
1546.75
1546.67
1546.51
1546.41
1546.22
1546.08
1545.66
1545.28
1544.61
1543.22
1542.77
1542.1
1541.75
1541.57
0
-1547.24
1547.24
1547.24
1547.18
1546.97
1546.82
1546.78
1546.75
1546.67
1546.51
1546.41
1546.22
1546.08
1545.66
1545.28
1544.61
1543.22
1542.77
1542.1
1541.75
1541.57
1541.57
-1547.24
1547.24
1547.26
1547.19
1546.97
1546.83
1546.79
1546.74
1546.67
1546.51
1546.42
1546.22
1545.95
1545.67
1545.3
1544.64
1543.36
1542.76
1542.09
1541.74
1541.58
1541.58
-1547.25
1547.25
1547.25
1547.2
1546.97
1546.8
1546.81
1546.78
1546.68
1546.53
1546.43
1546.24
1545.95
1545.7
1545.34
1544.69
1543.98
1542.78
1542.07
1541.73
1541.58
1541.58
-1547.26
1547.26
1547.26
1547.21
1546.99
1546.71
1546.83
1546.8
1546.7
1546.55
1546.44
1546.27
1545.99
1545.76
1545.39
1544.71
1544.17
1542.77
1542.03
1541.71
1541.59
1541.59
-1547.27
1547.27
1547.27
1547.2
1547.01
1546.68
1546.86
1546.83
1546.72
1546.58
1546.46
1546.31
1546.18
1545.78
1545.45
1544.58
1544.23
1542.73
1541.95
1541.68
1541.6
1541.6
-1547.29
1547.29
1547.28
1547.21
1547.04
1546.68
1546.9
1546.86
1546.74
1546.6
1546.48
1546.34
1546.22
1545.85
1545.53
1544.88
1544.29
1542.66
1541.8
1541.65
1541.61
1541.61
-1547.31
1547.31
1547.3
1547.25
1547.09
1546.72
1546.95
1546.9
1546.78
1546.63
1546.5
1546.37
1546.26
1545.93
1545.62
1545.07
1544.36
1542.56
1541.68
1541.61
1541.62
1541.62
-1547.33
1547.33
1547.33
1547.28
1547.16
1546.8
1547.02
1546.95
1546.84
1546.66
1546.53
1546.4
1546.29
1546.02
1545.73
1545.22
1544.47
1542.44
1541.53
1541.57
1541.63
1541.63
-1547.36
1547.36
1547.36
1547.33
1547.25
1546.77
1547.12
1546.99
1546.88
1546.69
1546.55
1546.43
1546.33
1546.11
1545.86
1545.36
1544.62
1542.31
1541.36
1541.53
1541.65
1541.65
-1547.38
1547.38
1547.39
1547.38
1547.35
1547.47
1547.23
1547.05
1546.92
1546.73
1546.58
1546.46
1546.38
1546.22
1545.99
1545.54
1544.83
1542.28
1541.16
1541.48
1541.66
1541.66
-1547.41
1547.41
1547.42
1547.44
1547.45
1547.68
1547.32
1547.1
1546.95
1546.76
1546.61
1546.49
1546.42
1546.32
1546.15
1545.78
1545.12
1541.61
1540.88
1541.45
1541.68
1541.68
-1547.44
1547.44
1547.46
1547.5
1547.53
1547.71
1547.39
1547.16
1546.99
1546.79
1546.63
1546.52
1546.47
1546.44
1546.33
1546.15
1545.5
1541.05
1540.56
1541.42
1541.7
1541.7
-1547.48
1547.48
1547.48
1547.57
1547.61
1547.74
1547.45
1547.21
1547
1546.82
1546.66
1546.56
1546.52
1546.56
1546.58
1547.03
1546.01
1540.36
1540.2
1541.41
1541.72
1541.72
-1547.51
1547.51
1547.54
1547.61
1547.69
1547.77
1547.52
1547.27
1547.04
1546.85
1546.69
1546.59
1546.57
1546.69
1547.03
1547.51
1546.68
1539.52
1539.79
1541.43
1541.74
1541.74
-1547.55
1547.55
1547.59
1547.67
1547.77
1547.8
1547.58
1547.33
1547.08
1546.88
1546.72
1546.62
1546.62
1546.81
1547.29
1547.87
1547.56
1538.61
1539.35
1541.46
1541.76
1541.76
0
1547.55
1547.59
1547.67
1547.77
1547.8
1547.58
1547.33
1547.08
1546.88
1546.72
1546.62
1546.62
1546.81
1547.29
1547.87
1547.56
1538.61
1539.35
1541.46
1541.76
0
0
1547.26
1547.26
1547.2
1547.03
1546.84
1546.82
1546.79
1546.7
1546.55
1546.43
1546.24
1546.06
1545.69
1545.3
1544.64
1543.54
1542.85
1542.18
1541.81
1541.61
0
-1547.26
1547.26
1547.26
1547.2
1547.03
1546.84
1546.82
1546.79
1546.7
1546.55
1546.43
1546.24
1546.06
1545.69
1545.3
1544.64
1543.54
1542.85
1542.18
1541.81
1541.61
1541.61
-1547.27
1547.27
1547.27
1547.21
1547.04
1546.88
1546.83
1546.8
1546.7
1546.55
1546.44
1546.25
1546.02
1545.71
1545.31
1544.66
1543.66
1542.85
1542.17
1541.81
1541.61
1541.61
-1547.28
1547.28
1547.27
1547.22
1547.04
1546.88
1546.86
1546.81
1546.71
1546.57
1546.44
1546.26
1546.02
1545.73
1545.35
1544.7
1543.9
1542.86
1542.15
1541.8
1541.62
1541.62
-1547.29
1547.29
1547.28
1547.23
1547.05
1546.85
1546.88
1546.84
1546.73
1546.58
1546.46
1546.29
1546.06
1545.77
1545.39
1544.74
1544.05
1542.85
1542.11
1541.78
1541.62
1541.62
-1547.3
1547.3
1547.29
1547.23
1547.08
1546.85
1546.91
1546.86
1546.75
1546.61
1546.48
1546.32
1546.15
1545.81
1545.45
1544.77
1544.15
1542.82
1542.04
1541.76
1541.63
1541.63
-1547.32
1547.32
1547.31
1547.25
1547.11
1546.87
1546.95
1546.9
1546.78
1546.63
1546.5
1546.34
1546.2
1545.87
1545.53
1544.91
1544.22
1542.76
1541.95
1541.73
1541.64
1541.64
-1547.33
1547.33
1547.33
1547.28
1547.16
1546.93
1547
1546.93
1546.81
1546.66
1546.52
1546.37
1546.24
1545.94
1545.61
1545.05
1544.31
1542.69
1541.84
1541.7
1541.65
1541.65
-1547.36
1547.36
1547.35
1547.31
1547.22
1547.03
1547.07
1546.97
1546.85
1546.68
1546.54
1546.4
1546.28
1546.02
1545.72
1545.2
1544.42
1542.59
1541.72
1541.66
1541.67
1541.67
-1547.38
1547.38
1547.38
1547.36
1547.29
1547.18
1547.15
1547.02
1546.89
1546.71
1546.57
1546.43
1546.32
1546.1
1545.84
1545.36
1544.56
1542.48
1541.57
1541.62
1541.68
1541.68
-1547.41
1547.41
1547.41
1547.4
1547.37
1547.51
1547.24
1547.07
1546.92
1546.74
1546.59
1546.46
1546.36
1546.2
1545.97
1545.55
1544.74
1542.33
1541.39
1541.59
1541.7
1541.7
-1547.43
1547.43
1547.44
1547.45
1547.45
1547.6
1547.31
1547.12
1546.96
1546.77
1546.62
1546.5
1546.41
1546.29
1546.13
1545.8
1544.99
1541.98
1541.17
1541.55
1541.71
1541.71
-1547.46
1547.46
1547.48
1547.51
1547.53
1547.64
1547.38
1547.17
1546.99
1546.8
1546.65
1546.53
1546.46
1546.4
1546.31
1546.16
1545.31
1541.58
1540.92
1541.52
1541.73
1541.73
-1547.5
1547.5
1547.51
1547.56
1547.6
1547.68
1547.44
1547.22
1547.02
1546.83
1546.68
1546.56
1546.51
1546.51
1546.55
1546.66
1545.74
1541.13
1540.64
1541.5
1541.75
1541.75
-1547.53
1547.53
1547.56
1547.61
1547.68
1547.72
1547.5
1547.27
1547.06
1546.87
1546.71
1546.6
1546.56
1546.63
1546.83
1547.09
1546.29
1540.63
1540.34
1541.49
1541.77
1541.77
-1547.57
1547.57
1547.6
1547.67
1547.75
1547.76
1547.56
1547.33
1547.1
1546.9
1546.74
1546.63
1546.61
1546.74
1547.08
1547.46
1546.96
1540.13
1540.02
1541.49
1541.79
1541.79
0
1547.57
1547.6
1547.67
1547.75
1547.76
1547.56
1547.33
1547.1
1546.9
1546.74
1546.63
1546.61
1546.74
1547.08
1547.46
1546.96
1540.13
1540.02
1541.49
1541.79
0
0
1547.29
1547.29
1547.23
1547.1
1546.81
1546.85
1546.83
1546.73
1546.58
1546.45
1546.26
1546.06
1545.72
1545.31
1544.67
1543.73
1542.93
1542.26
1541.88
1541.64
0
-1547.29
1547.29
1547.29
1547.23
1547.1
1546.81
1546.85
1546.83
1546.73
1546.58
1546.45
1546.26
1546.06
1545.72
1545.31
1544.67
1543.73
1542.93
1542.26
1541.88
1541.64
1541.64
-1547.3
1547.3
1547.29
1547.24
1547.1
1546.98
1546.87
1546.84
1546.73
1546.59
1546.45
1546.27
1546.05
1545.73
1545.33
1544.69
1543.8
1542.94
1542.26
1541.87
1541.65
1541.65
-1547.3
1547.3
1547.3
1547.24
1547.11
1546.97
1546.9
1546.85
1546.75
1546.6
1546.46
1546.28
1546.06
1545.75
1545.35
1544.72
1543.91
1542.94
1542.24
1541.87
1541.65
1541.65
-1547.31
1547.31
1547.31
1547.25
1547.12
1546.96
1546.93
1546.87
1546.76
1546.61
1546.48
1546.3
1546.09
1545.79
1545.4
1544.77
1544.02
1542.93
1542.2
1541.85
1541.66
1541.66
-1547.33
1547.33
1547.32
1547.27
1547.14
1546.97
1546.96
1546.9
1546.78
1546.63
1546.49
1546.33
1546.14
1545.83
1545.45
1544.83
1544.1
1542.9
1542.15
1541.83
1541.67
1541.67
-1547.34
1547.34
1547.33
1547.29
1547.17
1547
1547
1546.93
1546.81
1546.65
1546.51
1546.35
1546.18
1545.88
1545.52
1544.92
1544.18
1542.87
1542.08
1541.81
1541.68
1541.68
-1547.36
1547.36
1547.35
1547.31
1547.21
1547.06
1547.05
1546.96
1546.83
1546.68
1546.53
1546.38
1546.22
1545.94
1545.6
1545.04
1544.27
1542.81
1541.99
1541.78
1541.69
1541.69
-1547.38
1547.38
1547.38
1547.34
1547.26
1547.15
1547.1
1547
1546.87
1546.71
1546.56
1546.41
1546.26
1546.01
1545.7
1545.18
1544.37
1542.73
1541.89
1541.75
1541.7
1541.7
-1547.4
1547.4
1547.4
1547.38
1547.32
1547.27
1547.17
1547.04
1546.9
1546.73
1546.58
1546.44
1546.3
1546.09
1545.81
1545.33
1544.5
1542.64
1541.77
1541.72
1541.72
1541.72
-1547.43
1547.43
1547.43
1547.42
1547.39
1547.43
1547.24
1547.08
1546.94
1546.76
1546.61
1546.47
1546.35
1546.17
1545.94
1545.51
1544.66
1542.5
1541.62
1541.69
1541.73
1541.73
-1547.46
1547.46
1547.46
1547.47
1547.46
1547.53
1547.31
1547.13
1546.97
1546.79
1546.64
1546.5
1546.39
1546.26
1546.08
1545.75
1544.87
1542.28
1541.45
1541.66
1541.75
1541.75
-1547.49
1547.49
1547.5
1547.52
1547.53
1547.58
1547.37
1547.18
1547
1546.82
1546.66
1546.54
1546.44
1546.36
1546.25
1546.04
1545.14
1542.02
1541.26
1541.63
1541.77
1541.77
-1547.52
1547.52
1547.53
1547.57
1547.6
1547.63
1547.43
1547.23
1547.04
1546.85
1546.69
1546.57
1546.49
1546.46
1546.45
1546.39
1545.48
1541.73
1541.05
1541.61
1541.79
1541.79
-1547.55
1547.55
1547.57
1547.62
1547.66
1547.67
1547.49
1547.28
1547.07
1546.88
1546.72
1546.6
1546.54
1546.57
1546.67
1546.74
1545.91
1541.43
1540.82
1541.59
1541.81
1541.81
-1547.59
1547.59
1547.62
1547.67
1547.73
1547.72
1547.55
1547.33
1547.11
1546.92
1546.75
1546.64
1546.59
1546.67
1546.88
1547.07
1546.4
1541.13
1540.59
1541.57
1541.83
1541.83
0
1547.59
1547.62
1547.67
1547.73
1547.72
1547.55
1547.33
1547.11
1546.92
1546.75
1546.64
1546.59
1546.67
1546.88
1547.07
1546.4
1541.13
1540.59
1541.57
1541.83
0
0
1547.32
1547.31
1547.26
1547.17
1546.95
1546.86
1546.87
1546.76
1546.61
1546.47
1546.28
1546.06
1545.74
1545.32
1544.7
1543.84
1543.02
1542.35
1541.94
1541.68
0
-1547.32
1547.32
1547.31
1547.26
1547.17
1546.95
1546.86
1546.87
1546.76
1546.61
1546.47
1546.28
1546.06
1545.74
1545.32
1544.7
1543.84
1543.02
1542.35
1541.94
1541.68
1541.68
-1547.32
1547.32
1547.32
1547.27
1547.17
1547.07
1546.91
1546.88
1546.77
1546.62
1546.47
1546.29
1546.07
1545.75
1545.33
1544.71
1543.88
1543.02
1542.34
1541.94
1541.69
1541.69
-1547.33
1547.33
1547.32
1547.27
1547.17
1547.09
1546.95
1546.89
1546.78
1546.63
1546.48
1546.3
1546.08
1545.77
1545.36
1544.74
1543.95
1543.02
1542.33
1541.94
1541.69
1541.69
-1547.34
1547.34
1547.33
1547.28
1547.17
1547.07
1546.98
1546.91
1546.79
1546.64
1546.5
1546.32
1546.1
1545.8
1545.4
1544.79
1544.02
1543.01
1542.3
1541.93
1541.7
1541.7
-1547.35
1547.35
1547.34
1547.3
1547.19
1547.07
1547.01
1546.93
1546.81
1546.66
1546.51
1546.34
1546.14
1545.84
1545.45
1544.85
1544.09
1542.99
1542.26
1541.91
1541.71
1541.71
-1547.37
1547.37
1547.36
1547.32
1547.22
1547.1
1547.05
1546.96
1546.83
1546.68
1546.53
1546.36
1546.18
1545.88
1545.51
1544.93
1544.16
1542.96
1542.2
1541.89
1541.72
1541.72
-1547.39
1547.39
1547.38
1547.34
1547.26
1547.14
1547.09
1546.99
1546.86
1546.7
1546.55
1546.39
1546.21
1545.94
1545.59
1545.03
1544.24
1542.92
1542.14
1541.87
1541.73
1541.73
-1547.41
1547.41
1547.4
1547.37
1547.3
1547.21
1547.14
1547.02
1546.89
1546.73
1546.57
1546.42
1546.25
1546
1545.67
1545.15
1544.33
1542.87
1542.06
1541.85
1541.74
1541.74
-1547.43
1547.43
1547.43
1547.41
1547.35
1547.3
1547.19
1547.06
1546.92
1546.75
1546.6
1546.45
1546.29
1546.07
1545.78
1545.29
1544.44
1542.79
1541.96
1541.82
1541.75
1541.75
-1547.45
1547.45
1547.45
1547.44
1547.41
1547.4
1547.25
1547.1
1546.95
1546.78
1546.62
1546.48
1546.34
1546.15
1545.89
1545.45
1544.58
1542.69
1541.85
1541.8
1541.77
1541.77
-1547.48
1547.48
1547.49
1547.48
1547.47
1547.48
1547.31
1547.14
1546.98
1546.81
1546.65
1546.51
1546.38
1546.23
1546.02
1545.65
1544.76
1542.55
1541.72
1541.77
1541.79
1541.79
-1547.51
1547.51
1547.52
1547.53
1547.53
1547.54
1547.36
1547.19
1547.02
1546.84
1546.68
1546.54
1546.43
1546.32
1546.17
1545.88
1544.98
1542.38
1541.57
1541.74
1541.81
1541.81
-1547.54
1547.54
1547.55
1547.58
1547.59
1547.59
1547.42
1547.23
1547.05
1546.87
1546.71
1546.58
1546.48
1546.41
1546.34
1546.16
1545.25
1542.2
1541.41
1541.72
1541.82
1541.82
-1547.57
1547.57
1547.59
1547.62
1547.65
1547.64
1547.47
1547.28
1547.09
1546.9
1546.74
1546.61
1546.53
1546.5
1546.52
1546.43
1545.57
1542.02
1541.25
1541.7
1541.84
1541.84
-1547.61
1547.61
1547.63
1547.67
1547.71
1547.69
1547.53
1547.33
1547.12
1546.93
1546.77
1546.64
1546.58
1546.6
1546.7
1546.71
1545.93
1541.83
1541.08
1541.68
1541.86
1541.86
0
1547.61
1547.63
1547.67
1547.71
1547.69
1547.53
1547.33
1547.12
1546.93
1546.77
1546.64
1546.58
1546.6
1546.7
1546.71
1545.93
1541.83
1541.08
1541.68
1541.86
0
0
1547.35
1547.34
1547.29
1547.21
1547.01
1546.95
1546.91
1546.79
1546.64
1546.49
1546.3
1546.07
1545.75
1545.33
1544.72
1543.92
1543.1
1542.43
1542.01
1541.72
0
-1547.35
1547.35
1547.34
1547.29
1547.21
1547.01
1546.95
1546.91
1546.79
1546.64
1546.49
1546.3
1546.07
1545.75
1545.33
1544.72
1543.92
1543.1
1542.43
1542.01
1541.72
1541.72
-1547.35
1547.35
1547.34
1547.3
1547.21
1547.09
1546.98
1546.92
1546.8
1546.65
1546.49
1546.3
1546.08
1545.76
1545.34
1544.73
1543.94
1543.1
1542.43
1542.01
1541.72
1541.72
-1547.36
1547.36
1547.35
1547.3
1547.21
1547.12
1547
1546.93
1546.81
1546.66
1546.5
1546.32
1546.09
1545.78
1545.37
1544.76
1543.98
1543.1
1542.42
1542.01
1541.73
1541.73
-1547.37
1547.37
1547.36
1547.31
1547.22
1547.13
1547.03
1546.94
1546.82
1546.67
1546.51
1546.33
1546.11
1545.81
1545.4
1544.8
1544.04
1543.09
1542.39
1542
1541.74
1541.74
-1547.38
1547.38
1547.37
1547.33
1547.24
1547.14
1547.06
1546.97
1546.84
1546.69
1546.53
1546.35
1546.14
1545.84
1545.45
1544.85
1544.09
1543.08
1542.36
1541.99
1541.74
1541.74
-1547.39
1547.39
1547.39
1547.35
1547.27
1547.17
1547.09
1546.99
1546.86
1546.7
1546.55
1546.37
1546.17
1545.89
1545.5
1544.92
1544.15
1543.06
1542.32
1541.98
1541.75
1541.75
-1547.41
1547.41
1547.4
1547.37
1547.3
1547.2
1547.12
1547.02
1546.88
1546.73
1546.57
1546.4
1546.21
1545.94
1545.57
1545.01
1544.22
1543.03
1542.27
1541.96
1541.77
1541.77
-1547.43
1547.43
1547.43
1547.4
1547.33
1547.26
1547.17
1547.05
1546.91
1546.75
1546.59
1546.43
1546.25
1545.99
1545.65
1545.11
1544.3
1542.99
1542.21
1541.94
1541.78
1541.78
-1547.45
1547.45
1547.45
1547.43
1547.38
1547.32
1547.21
1547.08
1546.94
1546.77
1546.61
1546.45
1546.29
1546.06
1545.74
1545.23
1544.39
1542.94
1542.14
1541.92
1541.79
1541.79
-1547.48
1547.48
1547.48
1547.46
1547.43
1547.39
1547.26
1547.12
1546.97
1546.8
1546.64
1546.48
1546.33
1546.12
1545.84
1545.37
1544.51
1542.87
1542.06
1541.9
1541.81
1541.81
-1547.5
1547.5
1547.51
1547.5
1547.48
1547.45
1547.31
1547.16
1547
1546.83
1546.67
1546.52
1546.37
1546.2
1545.96
1545.54
1544.65
1542.78
1541.96
1541.88
1541.82
1541.82
-1547.53
1547.53
1547.54
1547.54
1547.53
1547.51
1547.36
1547.2
1547.03
1546.86
1546.7
1546.55
1546.42
1546.28
1546.09
1545.73
1544.83
1542.68
1541.86
1541.86
1541.84
1541.84
-1547.56
1547.56
1547.57
1547.58
1547.58
1547.56
1547.41
1547.24
1547.06
1546.89
1546.72
1546.58
1546.47
1546.36
1546.23
1545.94
1545.03
1542.57
1541.74
1541.84
1541.86
1541.86
-1547.59
1547.59
1547.61
1547.63
1547.64
1547.61
1547.46
1547.29
1547.1
1546.92
1546.75
1546.62
1546.51
1546.44
1546.37
1546.16
1545.27
1542.46
1541.62
1541.82
1541.88
1541.88
-1547.63
1547.63
1547.65
1547.67
1547.69
1547.66
1547.52
1547.33
1547.14
1546.95
1546.79
1546.65