# vtk DataFile Version 3.0
FlowField
ASCII
DATASET STRUCTURED_GRID
DIMENSIONS 22 17 12 
POINTS 4488 double
0 0 0
0.1 0 0
0.2 0 0
0.3 0 0
0.4 0 0
0.5 0 0
0.6 0 0
0.7 0 0
0.8 0 0
0.9 0 0
1 0 0
1.1 0 0
1.2 0 0
1.3 0 0
1.4 0 0
1.5 0 0
1.6 0 0
1.7 0 0
1.8 0 0
1.9 0 0
2 0 0
2.1 0 0
0 0.1 0
0.1 0.1 0
0.2 0.1 0
0.3 0.1 0
0.4 0.1 0
0.5 0.1 0
0.6 0.1 0
0.7 0.1 0
0.8 0.1 0
0.9 0.1 0
1 0.1 0
1.1 0.1 0
1.2 0.1 0
1.3 0.1 0
1.4 0.1 0
1.5 0.1 0
1.6 0.1 0
1.7 0.1 0
1.8 0.1 0
1.9 0.1 0
2 0.1 0
2.1 0.1 0
0 0.2 0
0.1 0.2 0
0.2 0.2 0
0.3 0.2 0
0.4 0.2 0
0.5 0.2 0
0.6 0.2 0
0.7 0.2 0
0.8 0.2 0
0.9 0.2 0
1 0.2 0
1.1 0.2 0
1.2 0.2 0
1.3 0.2 0
1.4 0.2 0
1.5 0.2 0
1.6 0.2 0
1.7 0.2 0
1.8 0.2 0
1.9 0.2 0
2 0.2 0
2.1 0.2 0
0 0.3 0
0.1 0.3 0
0.2 0.3 0
0.3 0.3 0
0.4 0.3 0
0.5 0.3 0
0.6 0.3 0
0.7 0.3 0
0.8 0.3 0
0.9 0.3 0
1 0.3 0
1.1 0.3 0
1.2 0.3 0
1.3 0.3 0
1.4 0.3 0
1.5 0.3 0
1.6 0.3 0
1.7 0.3 0
1.8 0.3 0
1.9 0.3 0
2 0.3 0
2.1 0.3 0
0 0.4 0
0.1 0.4 0
0.2 0.4 0
0.3 0.4 0
0.4 0.4 0
0.5 0.4 0
0.6 0.4 0
0.7 0.4 0
0.8 0.4 0
0.9 0.4 0
1 0.4 0
1.1 0.4 0
1.2 0.4 0
1.3 0.4 0
1.4 0.4 0
1.5 0.4 0
1.6 0.4 0
1.7 0.4 0
1.8 0.4 0
1.9 0.4 0
2 0.4 0
2.1 0.4 0
0 0.5 0
0.1 0.5 0
0.2 0.5 0
0.3 0.5 0
0.4 0.5 0
0.5 0.5 0
0.6 0.5 0
0.7 0.5 0
0.8 0.5 0
0.9 0.5 0
1 0.5 0
1.1 0.5 0
1.2 0.5 0
1.3 0.5 0
1.4 0.5 0
1.5 0.5 0
1.6 0.5 0
1.7 0.5 0
1.8 0.5 0
1.9 0.5 0
2 0.5 0
2.1 0.5 0
0 0.6 0
0.1 0.6 0
0.2 0.6 0
0.3 0.6 0
0.4 0.6 0
0.5 0.6 0
0.6 0.6 0
0.7 0.6 0
0.8 0.6 0
0.9 0.6 0
1 0.6 0
1.1 0.6 0
1.2 0.6 0
1.3 0.6 0
1.4 0.6 0
1.5 0.6 0
1.6 0.6 0
1.7 0.6 0
1.8 0.6 0
1.9 0.6 0
2 0.6 0
2.1 0.6 0
0 0.7 0
0.1 0.7 0
0.2 0.7 0
0.3 0.7 0
0.4 0.7 0
0.5 0.7 0
0.6 0.7 0
0.7 0.7 0
0.8 0.7 0
0.9 0.7 0
1 0.7 0
1.1 0.7 0
1.2 0.7 0
1.3 0.7 0
1.4 0.7 0
1.5 0.7 0
1.6 0.7 0
1.7 0.7 0
1.8 0.7 0
1.9 0.7 0
2 0.7 0
2.1 0.7 0
0 0.8 0
0.1 0.8 0
0.2 0.8 0
0.3 0.8 0
0.4 0.8 0
0.5 0.8 0
0.6 0.8 0
0.7 0.8 0
0.8 0.8 0
0.9 0.8 0
1 0.8 0
1.1 0.8 0
1.2 0.8 0
1.3 0.8 0
1.4 0.8 0
1.5 0.8 0
1.6 0.8 0
1.7 0.8 0
1.8 0.8 0
1.9 0.8 0
2 0.8 0
2.1 0.8 0
0 0.9 0
0.1 0.9 0
0.2 0.9 0
0.3 0.9 0
0.4 0.9 0
0.5 0.9 0
0.6 0.9 0
0.7 0.9 0
0.8 0.9 0
0.9 0.9 0
1 0.9 0
1.1 0.9 0
1.2 0.9 0
1.3 0.9 0
1.4 0.9 0
1.5 0.9 0
1.6 0.9 0
1.7 0.9 0
1.8 0.9 0
1.9 0.9 0
2 0.9 0
2.1 0.9 0
0 1 0
0.1 1 0
0.2 1 0
0.3 1 0
0.4 1 0
0.5 1 0
0.6 1 0
0.7 1 0
0.8 1 0
0.9 1 0
1 1 0
1.1 1 0
1.2 1 0
1.3 1 0
1.4 1 0
1.5 1 0
1.6 1 0
1.7 1 0
1.8 1 0
1.9 1 0
2 1 0
2.1 1 0
0 1.1 0
0.1 1.1 0
0.2 1.1 0
0.3 1.1 0
0.4 1.1 0
0.5 1.1 0
0.6 1.1 0
0.7 1.1 0
0.8 1.1 0
0.9 1.1 0
1 1.1 0
1.1 1.1 0
1.2 1.1 0
1.3 1.1 0
1.4 1.1 0
1.5 1.1 0
1.6 1.1 0
1.7 1.1 0
1.8 1.1 0
1.9 1.1 0
2 1.1 0
2.1 1.1 0
0 1.2 0
0.1 1.2 0
0.2 1.2 0
0.3 1.2 0
0.4 1.2 0
0.5 1.2 0
0.6 1.2 0
0.7 1.2 0
0.8 1.2 0
0.9 1.2 0
1 1.2 0
1.1 1.2 0
1.2 1.2 0
1.3 1.2 0
1.4 1.2 0
1.5 1.2 0
1.6 1.2 0
1.7 1.2 0
1.8 1.2 0
1.9 1.2 0
2 1.2 0
2.1 1.2 0
0 1.3 0
0.1 1.3 0
0.2 1.3 0
0.3 1.3 0
0.4 1.3 0
0.5 1.3 0
0.6 1.3 0
0.7 1.3 0
0.8 1.3 0
0.9 1.3 0
1 1.3 0
1.1 1.3 0
1.2 1.3 0
1.3 1.3 0
1.4 1.3 0
1.5 1.3 0
1.6 1.3 0
1.7 1.3 0
1.8 1.3 0
1.9 1.3 0
2 1.3 0
2.1 1.3 0
0 1.4 0
0.1 1.4 0
0.2 1.4 0
0.3 1.4 0
0.4 1.4 0
0.5 1.4 0
0.6 1.4 0
0.7 1.4 0
0.8 1.4 0
0.9 1.4 0
1 1.4 0
1.1 1.4 0
1.2 1.4 0
1.3 1.4 0
1.4 1.4 0
1.5 1.4 0
1.6 1.4 0
1.7 1.4 0
1.8 1.4 0
1.9 1.4 0
2 1.4 0
2.1 1.4 0
0 1.5 0
0.1 1.5 0
0.2 1.5 0
0.3 1.5 0
0.4 1.5 0
0.5 1.5 0
0.6 1.5 0
0.7 1.5 0
0.8 1.5 0
0.9 1.5 0
1 1.5 0
1.1 1.5 0
1.2 1.5 0
1.3 1.5 0
1.4 1.5 0
1.5 1.5 0
1.6 1.5 0
1.7 1.5 0
1.8 1.5 0
1.9 1.5 0
2 1.5 0
2.1 1.5 0
0 1.6 0
0.1 1.6 0
0.2 1.6 0
0.3 1.6 0
0.4 1.6 0
0.5 1.6 0
0.6 1.6 0
0.7 1.6 0
0.8 1.6 0
0.9 1.6 0
1 1.6 0
1.1 1.6 0
1.2 1.6 0
1.3 1.6 0
1.4 1.6 0
1.5 1.6 0
1.6 1.6 0
1.7 1.6 0
1.8 1.6 0
1.9 1.6 0
2 1.6 0
2.1 1.6 0
0 0 0.1
0.1 0 0.1
0.2 0 0.1
0.3 0 0.1
0.4 0 0.1
0.5 0 0.1
0.6 0 0.1
0.7 0 0.1
0.8 0 0.1
0.9 0 0.1
1 0 0.1
1.1 0 0.1
1.2 0 0.1
1.3 0 0.1
1.4 0 0.1
1.5 0 0.1
1.6 0 0.1
1.7 0 0.1
1.8 0 0.1
1.9 0 0.1
2 0 0.1
2.1 0 0.1
0 0.1 0.1
0.1 0.1 0.1
0.2 0.1 0.1
0.3 0.1 0.1
0.4 0.1 0.1
0.5 0.1 0.1
0.6 0.1 0.1
0.7 0.1 0.1
0.8 0.1 0.1
0.9 0.1 0.1
1 0.1 0.1
1.1 0.1 0.1
1.2 0.1 0.1
1.3 0.1 0.1
1.4 0.1 0.1
1.5 0.1 0.1
1.6 0.1 0.1
1.7 0.1 0.1
1.8 0.1 0.1
1.9 0.1 0.1
2 0.1 0.1
2.1 0.1 0.1
0 0.2 0.1
0.1 0.2 0.1
0.2 0.2 0.1
0.3 0.2 0.1
0.4 0.2 0.1
0.5 0.2 0.1
0.6 0.2 0.1
0.7 0.2 0.1
0.8 0.2 0.1
0.9 0.2 0.1
1 0.2 0.1
1.1 0.2 0.1
1.2 0.2 0.1
1.3 0.2 0.1
1.4 0.2 0.1
1.5 0.2 0.1
1.6 0.2 0.1
1.7 0.2 0.1
1.8 0.2 0.1
1.9 0.2 0.1
2 0.2 0.1
2.1 0.2 0.1
0 0.3 0.1
0.1 0.3 0.1
0.2 0.3 0.1
0.3 0.3 0.1
0.4 0.3 0.1
0.5 0.3 0.1
0.6 0.3 0.1
0.7 0.3 0.1
0.8 0.3 0.1
0.9 0.3 0.1
1 0.3 0.1
1.1 0.3 0.1
1.2 0.3 0.1
1.3 0.3 0.1
1.4 0.3 0.1
1.5 0.3 0.1
1.6 0.3 0.1
1.7 0.3 0.1
1.8 0.3 0.1
1.9 0.3 0.1
2 0.3 0.1
2.1 0.3 0.1
0 0.4 0.1
0.1 0.4 0.1
0.2 0.4 0.1
0.3 0.4 0.1
0.4 0.4 0.1
0.5 0.4 0.1
0.6 0.4 0.1
0.7 0.4 0.1
0.8 0.4 0.1
0.9 0.4 0.1
1 0.4 0.1
1.1 0.4 0.1
1.2 0.4 0.1
1.3 0.4 0.1
1.4 0.4 0.1
1.5 0.4 0.1
1.6 0.4 0.1
1.7 0.4 0.1
1.8 0.4 0.1
1.9 0.4 0.1
2 0.4 0.1
2.1 0.4 0.1
0 0.5 0.1
0.1 0.5 0.1
0.2 0.5 0.1
0.3 0.5 0.1
0.4 0.5 0.1
0.5 0.5 0.1
0.6 0.5 0.1
0.7 0.5 0.1
0.8 0.5 0.1
0.9 0.5 0.1
1 0.5 0.1
1.1 0.5 0.1
1.2 0.5 0.1
1.3 0.5 0.1
1.4 0.5 0.1
1.5 0.5 0.1
1.6 0.5 0.1
1.7 0.5 0.1
1.8 0.5 0.1
1.9 0.5 0.1
2 0.5 0.1
2.1 0.5 0.1
0 0.6 0.1
0.1 0.6 0.1
0.2 0.6 0.1
0.3 0.6 0.1
0.4 0.6 0.1
0.5 0.6 0.1
0.6 0.6 0.1
0.7 0.6 0.1
0.8 0.6 0.1
0.9 0.6 0.1
1 0.6 0.1
1.1 0.6 0.1
1.2 0.6 0.1
1.3 0.6 0.1
1.4 0.6 0.1
1.5 0.6 0.1
1.6 0.6 0.1
1.7 0.6 0.1
1.8 0.6 0.1
1.9 0.6 0.1
2 0.6 0.1
2.1 0.6 0.1
0 0.7 0.1
0.1 0.7 0.1
0.2 0.7 0.1
0.3 0.7 0.1
0.4 0.7 0.1
0.5 0.7 0.1
0.6 0.7 0.1
0.7 0.7 0.1
0.8 0.7 0.1
0.9 0.7 0.1
1 0.7 0.1
1.1 0.7 0.1
1.2 0.7 0.1
1.3 0.7 0.1
1.4 0.7 0.1
1.5 0.7 0.1
1.6 0.7 0.1
1.7 0.7 0.1
1.8 0.7 0.1
1.9 0.7 0.1
2 0.7 0.1
2.1 0.7 0.1
0 0.8 0.1
0.1 0.8 0.1
0.2 0.8 0.1
0.3 0.8 0.1
0.4 0.8 0.1
0.5 0.8 0.1
0.6 0.8 0.1
0.7 0.8 0.1
0.8 0.8 0.1
0.9 0.8 0.1
1 0.8 0.1
1.1 0.8 0.1
1.2 0.8 0.1
1.3 0.8 0.1
1.4 0.8 0.1
1.5 0.8 0.1
1.6 0.8 0.1
1.7 0.8 0.1
1.8 0.8 0.1
1.9 0.8 0.1
2 0.8 0.1
2.1 0.8 0.1
0 0.9 0.1
0.1 0.9 0.1
0.2 0.9 0.1
0.3 0.9 0.1
0.4 0.9 0.1
0.5 0.9 0.1
0.6 0.9 0.1
0.7 0.9 0.1
0.8 0.9 0.1
0.9 0.9 0.1
1 0.9 0.1
1.1 0.9 0.1
1.2 0.9 0.1
1.3 0.9 0.1
1.4 0.9 0.1
1.5 0.9 0.1
1.6 0.9 0.1
1.7 0.9 0.1
1.8 0.9 0.1
1.9 0.9 0.1
2 0.9 0.1
2.1 0.9 0.1
0 1 0.1
0.1 1 0.1
0.2 1 0.1
0.3 1 0.1
0.4 1 0.1
0.5 1 0.1
0.6 1 0.1
0.7 1 0.1
0.8 1 0.1
0.9 1 0.1
1 1 0.1
1.1 1 0.1
1.2 1 0.1
1.3 1 0.1
1.4 1 0.1
1.5 1 0.1
1.6 1 0.1
1.7 1 0.1
1.8 1 0.1
1.9 1 0.1
2 1 0.1
2.1 1 0.1
0 1.1 0.1
0.1 1.1 0.1
0.2 1.1 0.1
0.3 1.1 0.1
0.4 1.1 0.1
0.5 1.1 0.1
0.6 1.1 0.1
0.7 1.1 0.1
0.8 1.1 0.1
0.9 1.1 0.1
1 1.1 0.1
1.1 1.1 0.1
1.2 1.1 0.1
1.3 1.1 0.1
1.4 1.1 0.1
1.5 1.1 0.1
1.6 1.1 0.1
1.7 1.1 0.1
1.8 1.1 0.1
1.9 1.1 0.1
2 1.1 0.1
2.1 1.1 0.1
0 1.2 0.1
0.1 1.2 0.1
0.2 1.2 0.1
0.3 1.2 0.1
0.4 1.2 0.1
0.5 1.2 0.1
0.6 1.2 0.1
0.7 1.2 0.1
0.8 1.2 0.1
0.9 1.2 0.1
1 1.2 0.1
1.1 1.2 0.1
1.2 1.2 0.1
1.3 1.2 0.1
1.4 1.2 0.1
1.5 1.2 0.1
1.6 1.2 0.1
1.7 1.2 0.1
1.8 1.2 0.1
1.9 1.2 0.1
2 1.2 0.1
2.1 1.2 0.1
0 1.3 0.1
0.1 1.3 0.1
0.2 1.3 0.1
0.3 1.3 0.1
0.4 1.3 0.1
0.5 1.3 0.1
0.6 1.3 0.1
0.7 1.3 0.1
0.8 1.3 0.1
0.9 1.3 0.1
1 1.3 0.1
1.1 1.3 0.1
1.2 1.3 0.1
1.3 1.3 0.1
1.4 1.3 0.1
1.5 1.3 0.1
1.6 1.3 0.1
1.7 1.3 0.1
1.8 1.3 0.1
1.9 1.3 0.1
2 1.3 0.1
2.1 1.3 0.1
0 1.4 0.1
0.1 1.4 0.1
0.2 1.4 0.1
0.3 1.4 0.1
0.4 1.4 0.1
0.5 1.4 0.1
0.6 1.4 0.1
0.7 1.4 0.1
0.8 1.4 0.1
0.9 1.4 0.1
1 1.4 0.1
1.1 1.4 0.1
1.2 1.4 0.1
1.3 1.4 0.1
1.4 1.4 0.1
1.5 1.4 0.1
1.6 1.4 0.1
1.7 1.4 0.1
1.8 1.4 0.1
1.9 1.4 0.1
2 1.4 0.1
2.1 1.4 0.1
0 1.5 0.1
0.1 1.5 0.1
0.2 1.5 0.1
0.3 1.5 0.1
0.4 1.5 0.1
0.5 1.5 0.1
0.6 1.5 0.1
0.7 1.5 0.1
0.8 1.5 0.1
0.9 1.5 0.1
1 1.5 0.1
1.1 1.5 0.1
1.2 1.5 0.1
1.3 1.5 0.1
1.4 1.5 0.1
1.5 1.5 0.1
1.6 1.5 0.1
1.7 1.5 0.1
1.8 1.5 0.1
1.9 1.5 0.1
2 1.5 0.1
2.1 1.5 0.1
0 1.6 0.1
0.1 1.6 0.1
0.2 1.6 0.1
0.3 1.6 0.1
0.4 1.6 0.1
0.5 1.6 0.1
0.6 1.6 0.1
0.7 1.6 0.1
0.8 1.6 0.1
0.9 1.6 0.1
1 1.6 0.1
1.1 1.6 0.1
1.2 1.6 0.1
1.3 1.6 0.1
1.4 1.6 0.1
1.5 1.6 0.1
1.6 1.6 0.1
1.7 1.6 0.1
1.8 1.6 0.1
1.9 1.6 0.1
2 1.6 0.1
2.1 1.6 0.1
0 0 0.2
0.1 0 0.2
0.2 0 0.2
0.3 0 0.2
0.4 0 0.2
0.5 0 0.2
0.6 0 0.2
0.7 0 0.2
0.8 0 0.2
0.9 0 0.2
1 0 0.2
1.1 0 0.2
1.2 0 0.2
1.3 0 0.2
1.4 0 0.2
1.5 0 0.2
1.6 0 0.2
1.7 0 0.2
1.8 0 0.2
1.9 0 0.2
2 0 0.2
2.1 0 0.2
0 0.1 0.2
0.1 0.1 0.2
0.2 0.1 0.2
0.3 0.1 0.2
0.4 0.1 0.2
0.5 0.1 0.2
0.6 0.1 0.2
0.7 0.1 0.2
0.8 0.1 0.2
0.9 0.1 0.2
1 0.1 0.2
1.1 0.1 0.2
1.2 0.1 0.2
1.3 0.1 0.2
1.4 0.1 0.2
1.5 0.1 0.2
1.6 0.1 0.2
1.7 0.1 0.2
1.8 0.1 0.2
1.9 0.1 0.2
2 0.1 0.2
2.1 0.1 0.2
0 0.2 0.2
0.1 0.2 0.2
0.2 0.2 0.2
0.3 0.2 0.2
0.4 0.2 0.2
0.5 0.2 0.2
0.6 0.2 0.2
0.7 0.2 0.2
0.8 0.2 0.2
0.9 0.2 0.2
1 0.2 0.2
1.1 0.2 0.2
1.2 0.2 0.2
1.3 0.2 0.2
1.4 0.2 0.2
1.5 0.2 0.2
1.6 0.2 0.2
1.7 0.2 0.2
1.8 0.2 0.2
1.9 0.2 0.2
2 0.2 0.2
2.1 0.2 0.2
0 0.3 0.2
0.1 0.3 0.2
0.2 0.3 0.2
0.3 0.3 0.2
0.4 0.3 0.2
0.5 0.3 0.2
0.6 0.3 0.2
0.7 0.3 0.2
0.8 0.3 0.2
0.9 0.3 0.2
1 0.3 0.2
1.1 0.3 0.2
1.2 0.3 0.2
1.3 0.3 0.2
1.4 0.3 0.2
1.5 0.3 0.2
1.6 0.3 0.2
1.7 0.3 0.2
1.8 0.3 0.2
1.9 0.3 0.2
2 0.3 0.2
2.1 0.3 0.2
0 0.4 0.2
0.1 0.4 0.2
0.2 0.4 0.2
0.3 0.4 0.2
0.4 0.4 0.2
0.5 0.4 0.2
0.6 0.4 0.2
0.7 0.4 0.2
0.8 0.4 0.2
0.9 0.4 0.2
1 0.4 0.2
1.1 0.4 0.2
1.2 0.4 0.2
1.3 0.4 0.2
1.4 0.4 0.2
1.5 0.4 0.2
1.6 0.4 0.2
1.7 0.4 0.2
1.8 0.4 0.2
1.9 0.4 0.2
2 0.4 0.2
2.1 0.4 0.2
0 0.5 0.2
0.1 0.5 0.2
0.2 0.5 0.2
0.3 0.5 0.2
0.4 0.5 0.2
0.5 0.5 0.2
0.6 0.5 0.2
0.7 0.5 0.2
0.8 0.5 0.2
0.9 0.5 0.2
1 0.5 0.2
1.1 0.5 0.2
1.2 0.5 0.2
1.3 0.5 0.2
1.4 0.5 0.2
1.5 0.5 0.2
1.6 0.5 0.2
1.7 0.5 0.2
1.8 0.5 0.2
1.9 0.5 0.2
2 0.5 0.2
2.1 0.5 0.2
0 0.6 0.2
0.1 0.6 0.2
0.2 0.6 0.2
0.3 0.6 0.2
0.4 0.6 0.2
0.5 0.6 0.2
0.6 0.6 0.2
0.7 0.6 0.2
0.8 0.6 0.2
0.9 0.6 0.2
1 0.6 0.2
1.1 0.6 0.2
1.2 0.6 0.2
1.3 0.6 0.2
1.4 0.6 0.2
1.5 0.6 0.2
1.6 0.6 0.2
1.7 0.6 0.2
1.8 0.6 0.2
1.9 0.6 0.2
2 0.6 0.2
2.1 0.6 0.2
0 0.7 0.2
0.1 0.7 0.2
0.2 0.7 0.2
0.3 0.7 0.2
0.4 0.7 0.2
0.5 0.7 0.2
0.6 0.7 0.2
0.7 0.7 0.2
0.8 0.7 0.2
0.9 0.7 0.2
1 0.7 0.2
1.1 0.7 0.2
1.2 0.7 0.2
1.3 0.7 0.2
1.4 0.7 0.2
1.5 0.7 0.2
1.6 0.7 0.2
1.7 0.7 0.2
1.8 0.7 0.2
1.9 0.7 0.2
2 0.7 0.2
2.1 0.7 0.2
0 0.8 0.2
0.1 0.8 0.2
[...]
POINT_DATA 4488

SCALARS pressure double
LOOKUP_TABLE pressure
0
0
0
0
0
0
0
0
0
0
0
0
0
0
0
0
0
0
0
0
0
0
0
94.6852
94.6803
94.6774
94.6755
94.6738
94.6713
94.6707
94.67
94.6692
94.6685
94.6678
94.667
94.6675
94.6663
94.6657
94.6675
94.6675
94.6663
94.6653
94.6649
0
0
94.6795
94.6784
94.6768
94.6751
94.673
94.6715
94.6706
94.6698
94.669
94.6684
94.6678
94.6676
94.6675
94.6668
94.6664
94.6666
94.6682
94.6669
94.6661
94.6661
0
0
94.6764
94.6764
94.6759
94.6748
94.6717
94.6711
94.6704
94.6698
94.669
94.6683
94.668
94.6685
94.6683
94.6678
94.6676
94.6677
94.6681
94.6679
94.6676
94.6678
0
0
94.6745
94.6748
94.6745
94.6734
94.672
94.6707
94.6703
94.6698
94.6691
94.6679
94.6672
94.6704
94.6693
94.6687
94.6686
94.6687
94.6689
94.6689
94.669
94.6692
0
0
94.6731
94.6738
94.6738
94.6726
94.6723
94.6695
94.67
94.6701
94.6697
94.6689
94.6686
94.6694
94.6697
94.6695
94.6694
94.6695
94.6699
94.6699
94.67
94.6703
0
0
94.6719
94.6725
94.6724
94.6719
94.6711
94.6704
94.6704
94.6707
94.6708
94.6694
94.6683
94.669
94.6707
94.6702
94.67
94.67
94.671
94.6709
94.671
94.6713
0
0
94.671
94.6716
94.6717
94.6714
94.6702
94.6707
94.6707
94.6707
94.6706
94.6701
94.6697
94.67
94.6705
94.6707
94.6707
94.6711
94.6715
94.6717
94.6718
94.6722
0
0
94.6703
94.671
94.6714
94.6716
94.6725
94.6714
94.6711
94.671
94.6709
94.6707
94.6706
94.6707
94.671
94.6712
94.6715
94.6718
94.6722
94.6727
94.6722
94.6729
0
0
94.6696
94.6707
94.6711
94.6714
94.6717
94.6715
94.6713
94.6713
94.6712
94.6712
94.6712
94.6714
94.6716
94.6719
94.6722
94.6723
94.6726
94.673
94.6734
94.6739
0
0
94.6683
94.6709
94.671
94.6712
94.6714
94.6715
94.6715
94.6716
94.6716
94.6717
94.6718
94.672
94.6723
94.6727
94.6728
94.6728
94.6731
94.6736
94.6741
94.6747
0
0
94.6692
94.6703
94.6708
94.6711
94.6714
94.6715
94.6717
94.6719
94.6719
94.6721
94.6723
94.6726
94.673
94.6735
94.6737
94.6732
94.6736
94.6742
94.6748
94.6754
0
0
94.6694
94.6702
94.6707
94.6711
94.6714
94.6716
94.6718
94.6721
94.6722
94.6725
94.6728
94.6732
94.6736
94.6744
94.6756
94.6729
94.6741
94.6748
94.6755
94.6762
0
0
94.6696
94.6703
94.6707
94.6711
94.6714
94.6717
94.672
94.6723
94.6726
94.6729
94.6733
94.6735
94.6739
94.675
94.6753
94.6748
94.6752
94.6757
94.6762
94.6769
0
0
94.6698
94.6705
94.6709
94.6712
94.6716
94.6719
94.6723
94.6726
94.673
94.6734
94.6738
94.6742
94.6747
94.6753
94.6757
94.6759
94.6762
94.6767
94.6772
94.6777
0
0
94.6703
94.6707
94.671
94.6714
94.6717
94.6721
94.6725
94.6729
94.6734
94.6739
94.6743
94.6748
94.6753
94.6758
94.6763
94.6768
94.6772
94.6777
94.6782
94.6788
0
0
0
0
0
0
0
0
0
0
0
0
0
0
0
0
0
0
0
0
0
0
0
0
94.6852
94.6803
94.6774
94.6755
94.6738
94.6713
94.6707
94.67
94.6692
94.6685
94.6678
94.667
94.6675
94.6663
94.6657
94.6675
94.6675
94.6663
94.6653
94.6649
0
94.6852
94.6852
94.6803
94.6774
94.6755
94.6738
94.6713
94.6707
94.67
94.6692
94.6685
94.6678
94.667
94.6675
94.6663
94.6657
94.6675
94.6675
94.6663
94.6653
94.6649
94.6649
94.6795
94.6795
94.6784
94.6768
94.6751
94.673
94.6715
94.6706
94.6698
94.669
94.6684
94.6678
94.6676
94.6675
94.6668
94.6664
94.6666
94.6682
94.6669
94.6661
94.6661
94.6661
94.6764
94.6764
94.6764
94.6759
94.6748
94.6717
94.6711
94.6704
94.6698
94.669
94.6683
94.668
94.6685
94.6683
94.6678
94.6676
94.6677
94.6681
94.6679
94.6676
94.6678
94.6678
94.6745
94.6745
94.6748
94.6745
94.6734
94.672
94.6707
94.6703
94.6698
94.6691
94.6679
94.6672
94.6704
94.6693
94.6687
94.6686
94.6687
94.6689
94.6689
94.669
94.6692
94.6692
94.6731
94.6731
94.6738
94.6738
94.6726
94.6723
94.6695
94.67
94.6701
94.6697
94.6689
94.6686
94.6694
94.6697
94.6695
94.6694
94.6695
94.6699
94.6699
94.67
94.6703
94.6703
94.6719
94.6719
94.6725
94.6724
94.6719
94.6711
94.6704
94.6704
94.6707
94.6708
94.6694
94.6683
94.669
94.6707
94.6702
94.67
94.67
94.671
94.6709
94.671
94.6713
94.6713
94.671
94.671
94.6716
94.6717
94.6714
94.6702
94.6707
94.6707
94.6707
94.6706
94.6701
94.6697
94.67
94.6705
94.6707
94.6707
94.6711
94.6715
94.6717
94.6718
94.6722
94.6722
94.6703
94.6703
94.671
94.6714
94.6716
94.6725
94.6714
94.6711
94.671
94.6709
94.6707
94.6706
94.6707
94.671
94.6712
94.6715
94.6718
94.6722
94.6727
94.6722
94.6729
94.6729
94.6696
94.6696
94.6707
94.6711
94.6714
94.6717
94.6715
94.6713
94.6713
94.6712
94.6712
94.6712
94.6714
94.6716
94.6719
94.6722
94.6723
94.6726
94.673
94.6734
94.6739
94.6739
94.6683
94.6683
94.6709
94.671
94.6712
94.6714
94.6715
94.6715
94.6716
94.6716
94.6717
94.6718
94.672
94.6723
94.6727
94.6728
94.6728
94.6731
94.6736
94.6741
94.6747
94.6747
94.6692
94.6692
94.6703
94.6708
94.6711
94.6714
94.6715
94.6717
94.6719
94.6719
94.6721
94.6723
94.6726
94.673
94.6735
94.6737
94.6732
94.6736
94.6742
94.6748
94.6754
94.6754
94.6694
94.6694
94.6702
94.6707
94.6711
94.6714
94.6716
94.6718
94.6721
94.6722
94.6725
94.6728
94.6732
94.6736
94.6744
94.6756
94.6729
94.6741
94.6748
94.6755
94.6762
94.6762
94.6696
94.6696
94.6703
94.6707
94.6711
94.6714
94.6717
94.672
94.6723
94.6726
94.6729
94.6733
94.6735
94.6739
94.675
94.6753
94.6748
94.6752
94.6757
94.6762
94.6769
94.6769
94.6698
94.6698
94.6705
94.6709
94.6712
94.6716
94.6719
94.6723
94.6726
94.673
94.6734
94.6738
94.6742
94.6747
94.6753
94.6757
94.6759
94.6762
94.6767
94.6772
94.6777
94.6777
94.6703
94.6703
94.6707
94.671
94.6714
94.6717
94.6721
94.6725
94.6729
94.6734
94.6739
94.6743
94.6748
94.6753
94.6758
94.6763
94.6768
94.6772
94.6777
94.6782
94.6788
94.6788
0
94.6703
94.6707
94.671
94.6714
94.6717
94.6721
94.6725
94.6729
94.6734
94.6739
94.6743
94.6748
94.6753
94.6758
94.6763
94.6768
94.6772
94.6777
94.6782
94.6788
0
0
94.6893
94.6842
94.6807
94.6763
94.669
94.665
94.6654
94.6672
94.6685
94.669
94.6691
94.6688
94.6686
94.668
94.6677
94.6678
94.6675
94.6667
94.6658
94.6656
0
94.6893
94.6893
94.6842
94.6807
94.6763
94.669
94.665
94.6654
94.6672
94.6685
94.669
94.6691
94.6688
94.6686
94.668
94.6677
94.6678
94.6675
94.6667
94.6658
94.6656
94.6656
94.6833
94.6833
94.682
94.68
94.6766
94.671
94.6662
94.6654
94.6665
94.6677
94.6684
94.6687
94.6687
94.6686
94.6682
94.668
94.6679
94.6678
94.6672
94.6666
94.6665
94.6665
94.6798
94.6798
94.6796
94.6786
94.6764
94.6724
94.6681
94.6662
94.6664
94.6672
94.6679
94.6684
94.6689
94.6689
94.6687
94.6686
94.6686
94.6685
94.6683
94.6682
94.6682
94.6682
94.6775
94.6775
94.6777
94.6772
94.6758
94.6732
94.6697
94.6673
94.6667
94.6669
94.6674
94.668
94.6691
94.6693
94.6693
94.6692
94.6693
94.6694
94.6694
94.6696
94.6696
94.6696
94.6757
94.6757
94.6762
94.676
94.6752
94.6737
94.6709
94.6688
94.6676
94.6673
94.6675
94.668
94.6688
94.6694
94.6696
94.6698
94.6699
94.6702
94.6704
94.6706
94.6708
94.6708
94.6743
94.6743
94.6748
94.6749
94.6745
94.6736
94.6722
94.6705
94.6692
94.6684
94.6679
94.668
94.6687
94.6695
94.6699
94.6701
94.6704
94.6709
94.6712
94.6715
94.6717
94.6717
94.6732
94.6732
94.6737
94.6739
94.6738
94.6734
94.6728
94.6718
94.6707
94.6698
94.669
94.6688
94.6691
94.6697
94.6702
94.6706
94.671
94.6715
94.6718
94.6722
94.6726
94.6726
94.6722
94.6722
94.6729
94.6732
94.6734
94.6735
94.6731
94.6726
94.6719
94.6711
94.6704
94.67
94.67
94.6703
94.6707
94.6711
94.6716
94.6721
94.6725
94.6729
94.6734
94.6734
94.6715
94.6715
94.6722
94.6726
94.6729
94.6731
94.673
94.6728
94.6725
94.6721
94.6716
94.6713
94.6712
94.6713
94.6715
94.6717
94.6721
94.6726
94.6731
94.6736
94.6742
94.6742
94.6709
94.6709
94.6718
94.6722
94.6725
94.6727
94.6728
94.6729
94.6728
94.6727
94.6726
94.6724
94.6723
94.6722
94.6723
94.6726
94.6728
94.6732
94.6737
94.6742
94.6749
94.6749
94.6707
94.6707
94.6714
94.6719
94.6722
94.6725
94.6727
94.6728
94.6729
94.673
94.6731
94.6731
94.6731
94.6732
94.6734
94.6736
94.6736
94.6739
94.6743
94.6748
94.6756
94.6756
94.6706
94.6706
94.6713
94.6717
94.672
94.6723
94.6726
94.6728
94.673
94.6732
94.6734
94.6736
94.6738
94.6741
94.6745
94.6747
94.6743
94.6746
94.675
94.6756
94.6763
94.6763
94.6706
94.6706
94.6712
94.6716
94.672
94.6723
94.6726
94.6729
94.6731
94.6734
94.6737
94.674
94.6743
94.6747
94.6752
94.6754
94.6754
94.6757
94.6761
94.6766
94.6772
94.6772
94.6708
94.6708
94.6713
94.6716
94.672
94.6723
94.6726
94.6729
94.6733
94.6736
94.674
94.6744
94.6748
94.6752
94.6757
94.6761
94.6764
94.6768
94.6772
94.6777
94.6782
94.6782
94.6711
94.6711
94.6715
94.6717
94.672
94.6723
94.6727
94.6731
94.6735
94.6739
94.6743
94.6748
94.6753
94.6757
94.6762
94.6768
94.6773
94.6777
94.6782
94.6787
94.6791
94.6791
0
94.6711
94.6715
94.6717
94.672
94.6723
94.6727
94.6731
94.6735
94.6739
94.6743
94.6748
94.6753
94.6757
94.6762
94.6768
94.6773
94.6777
94.6782
94.6787
94.6791
0
0
94.6936
94.6889
94.6859
94.679
94.6583
94.6516
94.6578
94.6646
94.6686
94.6703
94.6707
94.6705
94.6701
94.6696
94.6691
94.6686
94.668
94.6672
94.6664
94.6663
0
94.6936
94.6936
94.6889
94.6859
94.679
94.6583
94.6516
94.6578
94.6646
94.6686
94.6703
94.6707
94.6705
94.6701
94.6696
94.6691
94.6686
94.668
94.6672
94.6664
94.6663
94.6663
94.6872
94.6872
94.6862
94.6845
94.68
94.6678
94.6555
94.6569
94.6624
94.6667
94.669
94.6699
94.6701
94.67
94.6696
94.6692
94.6688
94.6684
94.6677
94.6673
94.6671
94.6671
94.6832
94.6832
94.6832
94.6825
94.6801
94.6733
94.6622
94.6589
94.6614
94.665
94.6676
94.669
94.6697
94.6699
94.6698
94.6696
94.6694
94.6692
94.6689
94.6688
94.6687
94.6687
94.6804
94.6804
94.6808
94.6806
94.6795
94.6756
94.6674
94.6619
94.6615
94.6637
94.6661
94.6679
94.6692
94.6698
94.67
94.67
94.67
94.67
94.67
94.6702
94.6702
94.6702
94.6783
94.6783
94.6788
94.679
94.6787
94.6767
94.6715
94.666
94.6633
94.6635
94.665
94.6667
94.6682
94.6692
94.6698
94.6702
94.6704
94.6706
94.6709
94.6712
94.6713
94.6713
94.6765
94.6765
94.6771
94.6775
94.6777
94.677
94.6745
94.6706
94.667
94.6652
94.6652
94.6662
94.6675
94.6687
94.6696
94.6702
94.6707
94.6712
94.6715
94.6719
94.6722
94.6722
94.6751
94.6751
94.6757
94.6762
94.6765
94.6764
94.6754
94.6733
94.6706
94.6684
94.6672
94.667
94.6676
94.6685
94.6695
94.6704
94.671
94.6716
94.6721
94.6726
94.673
94.673
94.674
94.674
94.6746
94.675
94.6754
94.6756
94.6753
94.6746
94.6734
94.6717
94.6699
94.6687
94.6686
94.6693
94.6701
94.6707
94.6713
94.672
94.6727
94.6733
94.6739
94.6739
94.6731
94.6731
94.6737
94.6741
94.6745
94.6748
94.6749
94.6747
94.6742
94.6732
94.672
94.6713
94.671
94.6708
94.6708
94.6711
94.6717
94.6725
94.6733
94.674
94.6747
94.6747
94.6724
94.6724
94.673
94.6735
94.6738
94.6741
94.6743
94.6744
94.6743
94.674
94.6737
94.6734
94.6726
94.6719
94.6715
94.6719
94.6726
94.6732
94.6738
94.6743
94.6753
94.6753
94.6719
94.6719
94.6725
94.673
94.6733
94.6736
94.6739
94.6741
94.6742
94.6743
94.6743
94.674
94.6735
94.6731
94.6733
94.6737
94.6738
94.6739
94.6741
94.6746
94.6757
94.6757
94.6717
94.6717
94.6723
94.6726
94.673
94.6733
94.6736
94.6738
94.6741
94.6743
94.6744
94.6745
94.6745
94.6747
94.675
94.675
94.6748
94.6747
94.6748
94.6754
94.6764
94.6764
94.6716
94.6716
94.6721
94.6725
94.6728
94.6731
94.6734
94.6737
94.674
94.6743
94.6746
94.6748
94.6751
94.6755
94.6758
94.6759
94.6758
94.6759
94.6763
94.6769
94.6775
94.6775
94.6716
94.6716
94.6721
94.6724
94.6727
94.673
94.6733
94.6736
94.674
94.6743
94.6747
94.6751
94.6754
94.6759
94.6763
94.6766
94.6769
94.6773
94.6777
94.6782
94.6786
94.6786
94.6719
94.6719
94.6722
94.6724
94.6727
94.673
94.6733
94.6736
94.674
94.6744
94.6748
94.6753
94.6757
94.6762
94.6767
94.6772
94.6778
94.6783
94.6787
94.6791
94.6795
94.6795
0
94.6719
94.6722
94.6724
94.6727
94.673
94.6733
94.6736
94.674
94.6744
94.6748
94.6753
94.6757
94.6762
94.6767
94.6772
94.6778
94.6783
94.6787
94.6791
94.6795
0
0
94.6978
94.6945
94.6953
94.6903
94.6228
94.6198
94.6481
94.6647
94.671
94.6729
94.673
94.6724
94.6717
94.6709
94.6701
94.6694
94.6687
94.6679
94.6671
94.6672
0
94.6978
94.6978
94.6945
94.6953
94.6903
94.6228
94.6198
94.6481
94.6647
94.671
94.6729
94.673
94.6724
94.6717
94.6709
94.6701
94.6694
94.6687
94.6679
94.6671
94.6672
94.6672
94.6909
94.6909
94.6908
94.6916
94.6897
94.6684
94.6282
94.6415
94.6586
94.6677
94.6712
94.6722
94.6721
94.6716
94.671
94.6704
94.6698
94.6691
94.6684
94.6678
94.6683
94.6683
94.6862
94.6862
94.6869
94.6877
94.6878
94.68
94.6485
94.644
94.6543
94.6636
94.6687
94.6709
94.6716
94.6715
94.6712
94.6708
94.6704
94.67
94.6696
94.6694
94.6698
94.6698
94.6829
94.6829
94.6838
94.6848
94.686
94.683
94.6631
94.6497
94.6513
94.6587
94.6648
94.6684
94.6702
94.671
94.6711
94.6711
94.6709
94.6708
94.6707
94.6709
94.6712
94.6712
94.6804
94.6804
94.6813
94.6825
94.6842
94.6831
94.6729
94.6597
94.654
94.6564
94.6609
94.6651
94.668
94.6697
94.6705
94.6709
94.6711
94.6713
94.6715
94.6718
94.6722
94.6722
94.6784
94.6784
94.6793
94.6804
94.6819
94.6823
94.6799
94.6718
94.663
94.6588
94.6594
94.6626
94.6658
94.668
94.6694
94.6704
94.6712
94.6716
94.672
94.6724
94.6728
94.6728
94.6768
94.6768
94.6775
94.6784
94.6796
94.6802
94.6796
94.6762
94.6708
94.6662
94.6636
94.6636
94.6647
94.6665
94.6686
94.6702
94.6711
94.6718
94.6724
94.6731
94.6733
94.6733
94.6754
94.6754
94.6761
94.6768
94.6776
94.6782
94.6782
94.6778
94.6769
94.6737
94.6691
94.6659
94.6657
94.6672
94.6692
94.6704
94.671
94.6719
94.673
94.674
94.6742
94.6742
94.6744
94.6744
94.675
94.6755
94.6761
94.6767
94.6771
94.6772
94.6766
94.6746
94.6723
94.6716
94.6709
94.6704
94.6699
94.6698
94.6708
94.6722
94.6736
94.6748
94.6754
94.6754
94.6735
94.6735
94.6741
94.6746
94.6751
94.6756
94.6759
94.6761
94.676
94.6758
94.6761
94.6757
94.6732
94.6706
94.669
94.6705
94.6721
94.6733
94.674
94.6745
94.6759
94.6759
94.673
94.673
94.6735
94.674
94.6744
94.6748
94.6751
94.6754
94.6756
94.6759
94.676
94.6751
94.6738
94.6723
94.6733
94.6742
94.674
94.6739
94.6735
94.6735
94.6759
94.6759
94.6726
94.6726
94.6732
94.6735
94.6739
94.6742
94.6746
94.6749
94.6752
94.6754
94.6755
94.6755
94.6755
94.676
94.6764
94.6757
94.675
94.6741
94.6737
94.6747
94.6765
94.6765
94.6724
94.6724
94.6729
94.6733
94.6736
94.6739
94.6742
94.6745
94.6748
94.6751
94.6754
94.6757
94.6761
94.6766
94.6766
94.6765
94.6761
94.6759
94.6765
94.6773
94.6778
94.6778
94.6724
94.6724
94.6729
94.6731
94.6734
94.6737
94.674
94.6743
94.6747
94.675
94.6754
94.6758
94.6761
94.6765
94.6769
94.6772
94.6775
94.6781
94.6786
94.6788
94.6791
94.6791
94.6726
94.6726
94.6729
94.6731
94.6733
94.6736
94.6739
94.6742
94.6746
94.6749
94.6753
94.6758
94.6762
94.6766
94.6771
94.6777
94.6783
94.6789
94.6793
94.6795
94.6799
94.6799
0
94.6726
94.6729
94.6731
94.6733
94.6736
94.6739
94.6742
94.6746
94.6749
94.6753
94.6758
94.6762
94.6766
94.6771
94.6777
94.6783
94.6789
94.6793
94.6795
94.6799
0
0
94.7005
94.6993
94.7091
94.7405
94.6525
94.5728
94.643
94.6699
94.6758
94.6761
94.6751
94.6739
94.6728
94.6718
94.6709
94.67
94.6692
94.6684
94.6677
94.668
0
94.7005
94.7005
94.6993
94.7091
94.7405
94.6525
94.5728
94.643
94.6699
94.6758
94.6761
94.6751
94.6739
94.6728
94.6718
94.6709
94.67
94.6692
94.6684
94.6677
94.668
94.668
94.6931
94.6931
94.6943
94.6997
94.7192
94.6795
94.5988
94.6289
94.6598
94.6721
94.6751
94.6751
94.6742
94.6732
94.6723
94.6714
94.6706
94.6698
94.669
94.6685
94.6694
94.6694
94.6881
94.6881
94.6893
94.6922
94.7007
94.697
94.6278
94.6262
94.6484
94.6642
94.6714
94.6736
94.6738
94.6734
94.6727
94.672
94.6714
94.6708
94.6703
94.6702
94.6712
94.6712
94.6845
94.6845
94.6857
94.6881
94.6941
94.7069
94.6559
94.6359
94.6406
94.6545
94.6651
94.6701
94.6721
94.6727
94.6726
94.6723
94.672
94.6717
94.6715
94.6717
94.6727
94.6727
94.6818
94.6818
94.683
94.6854
94.6908
94.7043
94.6767
94.6518
94.6426
94.6492
94.6581
94.6645
94.6688
94.671
94.6718
94.672
94.6722
94.6722
94.6723
94.6725
94.6737
94.6737
94.6797
94.6797
94.6807
94.6826
94.6866
94.6952
94.6927
94.6743
94.6563
94.6526
94.6535
94.6588
94.665
94.6681
94.6698
94.671
94.672
94.6724
94.6726
94.6728
94.674
94.674
94.6779
94.6779
94.6788
94.6801
94.6824
94.687
94.6918
94.6831
94.6705
94.6643
94.6583
94.6595
94.6626
94.6646
94.6673
94.6704
94.6717
94.6721
94.6726
94.6733
94.6737
94.6737
94.6765
94.6765
94.6772
94.6781
94.6794
94.6814
94.684
94.6839
94.6843
94.6786
94.6666
94.6624
94.6632
94.6641
94.6684
94.671
94.6712
94.6715
94.673
94.6751
94.6739
94.6739
94.6753
94.6753
94.676
94.6766
94.6774
94.6785
94.6799
94.6819
94.6842
94.6785
94.6708
94.6727
94.6716
94.6687
94.669
94.6692
94.6699
94.6715
94.6741
94.6768
94.6754
94.6754
94.6744
94.6744
94.675
94.6755
94.6761
94.6767
94.6775
94.6786
94.6792
94.678
94.6796
94.6823
94.6755
94.6676
94.6656
94.6698
94.6714
94.6731
94.6746
94.6754
94.6764
94.6764
94.6738
94.6738
94.6744
94.6748
94.6752
94.6757
94.6762
94.6767
94.6772
94.678
94.6804
94.6796
94.6736
94.6703
94.674
94.6762
94.6745
94.6736
94.6728
94.6725
94.6766
94.6766
94.6734
94.6734
94.6739
94.6743
94.6747
94.675
94.6754
94.6758
94.6762
94.6769
94.6777
94.6771
94.6762
94.6777
94.6809
94.6785
94.675
94.6729
94.6724
94.6736
94.6772
94.6772
94.6732
94.6732
94.6737
94.674
94.6743
94.6746
94.6749
94.6753
94.6756
94.6761
94.6765
94.6767
94.6774
94.6793
94.6795
94.6777
94.6761
94.6757
94.6768
94.6782
94.6786
94.6786
94.6731
94.6731
94.6736
94.6738
94.6741
94.6744
94.6747
94.675
94.6753
94.6757
94.676
94.6765
94.6771
94.6779
94.678
94.6779
94.6781
94.6792
94.6804
94.6805
94.6799
94.6799
94.6733
94.6733
94.6736
94.6737
94.674
94.6742
94.6745
94.6748
94.6751
94.6754
94.6758
94.6763
94.6766
94.6769
94.6772
94.678
94.6787
94.6796
94.6802
94.6801
94.6803
94.6803
0
94.6733
94.6736
94.6737
94.674
94.6742
94.6745
94.6748
94.6751
94.6754
94.6758
94.6763
94.6766
94.6769
94.6772
94.678
94.6787
94.6796
94.6802
94.6801
94.6803
0
0
94.6996
94.6963
94.6975
94.6937
94.6365
94.6219
94.6489
94.6652
94.6716
94.6735
94.6737
94.6732
94.6725
94.6718
94.671
94.6702
94.6693
94.6684
94.6677
94.6678
0
94.6996
94.6996
94.6963
94.6975
94.6937
94.6365
94.6219
94.6489
94.6652
94.6716
94.6735
94.6737
94.6732
94.6725
94.6718
94.671
94.6702
94.6693
94.6684
94.6677
94.6678
94.6678
94.6925
94.6925
94.6923
94.6929
94.69
94.6604
94.6312
94.6435
94.6603
94.6692
94.6726
94.6735
94.6734
94.6728
94.6721
94.6714
94.6707
94.6698
94.669
94.6685
94.6688
94.6688
94.6878
94.6878
94.6883
94.6888
94.6879
94.6764
94.6484
94.645
94.6551
94.6645
94.6697
94.6719
94.6726
94.6726
94.6723
94.6718
94.6713
94.6708
94.6703
94.6703
94.6704
94.6704
94.6845
94.6845
94.6853
94.6862
94.6871
94.6839
94.6636
94.6517
94.6532
94.66
94.6659
94.6694
94.6712
94.6719
94.6721
94.672
94.6718
94.6716
94.6715
94.6718
94.672
94.672
94.682
94.682
94.6829
94.6841
94.6858
94.6858
94.6734
94.6608
94.6559
94.6581
94.6625
94.6665
94.6692
94.6707
94.6715
94.6719
94.6721
94.6722
94.6724
94.6728
94.6731
94.6731
94.68
94.68
94.6809
94.682
94.6837
94.685
94.6803
94.6715
94.6638
94.6604
94.6611
94.664
94.667
94.6691
94.6705
94.6715
94.6721
94.6726
94.673
94.6734
94.6739
94.6739
94.6784
94.6784
94.6791
94.68
94.6813
94.6826
94.682
94.6774
94.6711
94.6664
94.6644
94.6648
94.6659
94.6677
94.6696
94.671
94.672
94.6727
94.6734
94.674
94.6743
94.6743
94.677
94.677
94.6777
94.6784
94.6792
94.6802
94.6805
94.6794
94.6771
94.674
94.6698
94.6672
94.6668
94.668
94.67
94.6712
94.6719
94.6728
94.6738
94.6749
94.6752
94.6752
94.6759
94.6759
94.6765
94.6771
94.6777
94.6784
94.6789
94.6791
94.6786
94.6763
94.6733
94.6715
94.6711
94.671
94.6706
94.6708
94.6718
94.6732
94.6745
94.6756
94.6763
94.6763
94.6751
94.6751
94.6757
94.6761
94.6766
94.6771
94.6775
94.6779
94.6779
94.6772
94.6767
94.6765
94.6744
94.6718
94.6705
94.6714
94.6729
94.6741
94.6749
94.6755
94.6769
94.6769
94.6745
94.6745
94.675
94.6754
94.6758
94.6762
94.6766
94.6769
94.6771
94.6773
94.6776
94.677
94.6752
94.6736
94.6736
94.6748
94.675
94.6749
94.6747
94.6748
94.6771
94.6771
94.6741
94.6741
94.6746
94.675
94.6753
94.6756
94.6759
94.6762
94.6765
94.6768
94.6771
94.6769
94.6765
94.6766
94.6772
94.6769
94.6761
94.6753
94.675
94.6756
94.6775
94.6775
94.6739
94.6739
94.6744
94.6747
94.6749
94.6752
94.6755
94.6758
94.6761
94.6764
94.6767
94.6769
94.6772
94.6777
94.678
94.6776
94.6772
94.6769
94.6772
94.6781
94.6789
94.6789
94.6738
94.6738
94.6743
94.6745
94.6747
94.675
94.6753
94.6755
94.6758
94.6762
94.6765
94.6768
94.6772
94.6777
94.678
94.6782
94.6784
94.6789
94.6795
94.6799
94.6801
94.6801
94.674
94.674
94.6743
94.6744
94.6746
94.6748
94.6751
94.6754
94.6757
94.676
94.6764
94.6768
94.6772
94.6775
94.678
94.6786
94.6793
94.68
94.6804
94.6805
94.6808
94.6808
0
94.674
94.6743
94.6744