# vtk DataFile Version 3.0
FlowField
ASCII
DATASET STRUCTURED_GRID
DIMENSIONS 22 17 12 
POINTS 4488 double
0 0 0
0.1 0 0
0.2 0 0
0.3 0 0
0.4 0 0
0.5 0 0
0.6 0 0
0.7 0 0
0.8 0 0
0.9 0 0
1 0 0
1.1 0 0
1.2 0 0
1.3 0 0
1.4 0 0
1.5 0 0
1.6 0 0
1.7 0 0
1.8 0 0
1.9 0 0
2 0 0
2.1 0 0
0 0.1 0
0.1 0.1 0
0.2 0.1 0
0.3 0.1 0
0.4 0.1 0
0.5 0.1 0
0.6 0.1 0
0.7 0.1 0
0.8 0.1 0
0.9 0.1 0
1 0.1 0
1.1 0.1 0
1.2 0.1 0
1.3 0.1 0
1.4 0.1 0
1.5 0.1 0
1.6 0.1 0
1.7 0.1 0
1.8 0.1 0
1.9 0.1 0
2 0.1 0
2.1 0.1 0
0 0.2 0
0.1 0.2 0
0.2 0.2 0
0.3 0.2 0
0.4 0.2 0
0.5 0.2 0
0.6 0.2 0
0.7 0.2 0
0.8 0.2 0
0.9 0.2 0
1 0.2 0
1.1 0.2 0
1.2 0.2 0
1.3 0.2 0
1.4 0.2 0
1.5 0.2 0
1.6 0.2 0
1.7 0.2 0
1.8 0.2 0
1.9 0.2 0
2 0.2 0
2.1 0.2 0
0 0.3 0
0.1 0.3 0
0.2 0.3 0
0.3 0.3 0
0.4 0.3 0
0.5 0.3 0
0.6 0.3 0
0.7 0.3 0
0.8 0.3 0
0.9 0.3 0
1 0.3 0
1.1 0.3 0
1.2 0.3 0
1.3 0.3 0
1.4 0.3 0
1.5 0.3 0
1.6 0.3 0
1.7 0.3 0
1.8 0.3 0
1.9 0.3 0
2 0.3 0
2.1 0.3 0
0 0.4 0
0.1 0.4 0
0.2 0.4 0
0.3 0.4 0
0.4 0.4 0
0.5 0.4 0
0.6 0.4 0
0.7 0.4 0
0.8 0.4 0
0.9 0.4 0
1 0.4 0
1.1 0.4 0
1.2 0.4 0
1.3 0.4 0
1.4 0.4 0
1.5 0.4 0
1.6 0.4 0
1.7 0.4 0
1.8 0.4 0
1.9 0.4 0
2 0.4 0
2.1 0.4 0
0 0.5 0
0.1 0.5 0
0.2 0.5 0
0.3 0.5 0
0.4 0.5 0
0.5 0.5 0
0.6 0.5 0
0.7 0.5 0
0.8 0.5 0
0.9 0.5 0
1 0.5 0
1.1 0.5 0
1.2 0.5 0
1.3 0.5 0
1.4 0.5 0
1.5 0.5 0
1.6 0.5 0
1.7 0.5 0
1.8 0.5 0
1.9 0.5 0
2 0.5 0
2.1 0.5 0
0 0.6 0
0.1 0.6 0
0.2 0.6 0
0.3 0.6 0
0.4 0.6 0
0.5 0.6 0
0.6 0.6 0
0.7 0.6 0
0.8 0.6 0
0.9 0.6 0
1 0.6 0
1.1 0.6 0
1.2 0.6 0
1.3 0.6 0
1.4 0.6 0
1.5 0.6 0
1.6 0.6 0
1.7 0.6 0
1.8 0.6 0
1.9 0.6 0
2 0.6 0
2.1 0.6 0
0 0.7 0
0.1 0.7 0
0.2 0.7 0
0.3 0.7 0
0.4 0.7 0
0.5 0.7 0
0.6 0.7 0
0.7 0.7 0
0.8 0.7 0
0.9 0.7 0
1 0.7 0
1.1 0.7 0
1.2 0.7 0
1.3 0.7 0
1.4 0.7 0
1.5 0.7 0
1.6 0.7 0
1.7 0.7 0
1.8 0.7 0
1.9 0.7 0
2 0.7 0
2.1 0.7 0
0 0.8 0
0.1 0.8 0
0.2 0.8 0
0.3 0.8 0
0.4 0.8 0
0.5 0.8 0
0.6 0.8 0
0.7 0.8 0
0.8 0.8 0
0.9 0.8 0
1 0.8 0
1.1 0.8 0
1.2 0.8 0
1.3 0.8 0
1.4 0.8 0
1.5 0.8 0
1.6 0.8 0
1.7 0.8 0
1.8 0.8 0
1.9 0.8 0
2 0.8 0
2.1 0.8 0
0 0.9 0
0.1 0.9 0
0.2 0.9 0
0.3 0.9 0
0.4 0.9 0
0.5 0.9 0
0.6 0.9 0
0.7 0.9 0
0.8 0.9 0
0.9 0.9 0
1 0.9 0
1.1 0.9 0
1.2 0.9 0
1.3 0.9 0
1.4 0.9 0
1.5 0.9 0
1.6 0.9 0
1.7 0.9 0
1.8 0.9 0
1.9 0.9 0
2 0.9 0
2.1 0.9 0
0 1 0
0.1 1 0
0.2 1 0
0.3 1 0
0.4 1 0
0.5 1 0
0.6 1 0
0.7 1 0
0.8 1 0
0.9 1 0
1 1 0
1.1 1 0
1.2 1 0
1.3 1 0
1.4 1 0
1.5 1 0
1.6 1 0
1.7 1 0
1.8 1 0
1.9 1 0
2 1 0
2.1 1 0
0 1.1 0
0.1 1.1 0
0.2 1.1 0
0.3 1.1 0
0.4 1.1 0
0.5 1.1 0
0.6 1.1 0
0.7 1.1 0
0.8 1.1 0
0.9 1.1 0
1 1.1 0
1.1 1.1 0
1.2 1.1 0
1.3 1.1 0
1.4 1.1 0
1.5 1.1 0
1.6 1.1 0
1.7 1.1 0
1.8 1.1 0
1.9 1.1 0
2 1.1 0
2.1 1.1 0
0 1.2 0
0.1 1.2 0
0.2 1.2 0
0.3 1.2 0
0.4 1.2 0
0.5 1.2 0
0.6 1.2 0
0.7 1.2 0
0.8 1.2 0
0.9 1.2 0
1 1.2 0
1.1 1.2 0
1.2 1.2 0
1.3 1.2 0
1.4 1.2 0
1.5 1.2 0
1.6 1.2 0
1.7 1.2 0
1.8 1.2 0
1.9 1.2 0
2 1.2 0
2.1 1.2 0
0 1.3 0
0.1 1.3 0
0.2 1.3 0
0.3 1.3 0
0.4 1.3 0
0.5 1.3 0
0.6 1.3 0
0.7 1.3 0
0.8 1.3 0
0.9 1.3 0
1 1.3 0
1.1 1.3 0
1.2 1.3 0
1.3 1.3 0
1.4 1.3 0
1.5 1.3 0
1.6 1.3 0
1.7 1.3 0
1.8 1.3 0
1.9 1.3 0
2 1.3 0
2.1 1.3 0
0 1.4 0
0.1 1.4 0
0.2 1.4 0
0.3 1.4 0
0.4 1.4 0
0.5 1.4 0
0.6 1.4 0
0.7 1.4 0
0.8 1.4 0
0.9 1.4 0
1 1.4 0
1.1 1.4 0
1.2 1.4 0
1.3 1.4 0
1.4 1.4 0
1.5 1.4 0
1.6 1.4 0
1.7 1.4 0
1.8 1.4 0
1.9 1.4 0
2 1.4 0
2.1 1.4 0
0 1.5 0
0.1 1.5 0
0.2 1.5 0
0.3 1.5 0
0.4 1.5 0
0.5 1.5 0
0.6 1.5 0
0.7 1.5 0
0.8 1.5 0
0.9 1.5 0
1 1.5 0
1.1 1.5 0
1.2 1.5 0
1.3 1.5 0
1.4 1.5 0
1.5 1.5 0
1.6 1.5 0
1.7 1.5 0
1.8 1.5 0
1.9 1.5 0
2 1.5 0
2.1 1.5 0
0 1.6 0
0.1 1.6 0
0.2 1.6 0
0.3 1.6 0
0.4 1.6 0
0.5 1.6 0
0.6 1.6 0
0.7 1.6 0
0.8 1.6 0
0.9 1.6 0
1 1.6 0
1.1 1.6 0
1.2 1.6 0
1.3 1.6 0
1.4 1.6 0
1.5 1.6 0
1.6 1.6 0
1.7 1.6 0
1.8 1.6 0
1.9 1.6 0
2 1.6 0
2.1 1.6 0
0 0 0.1
0.1 0 0.1
0.2 0 0.1
0.3 0 0.1
0.4 0 0.1
0.5 0 0.1
0.6 0 0.1
0.7 0 0.1
0.8 0 0.1
0.9 0 0.1
1 0 0.1
1.1 0 0.1
1.2 0 0.1
1.3 0 0.1
1.4 0 0.1
1.5 0 0.1
1.6 0 0.1
1.7 0 0.1
1.8 0 0.1
1.9 0 0.1
2 0 0.1
2.1 0 0.1
0 0.1 0.1
0.1 0.1 0.1
0.2 0.1 0.1
0.3 0.1 0.1
0.4 0.1 0.1
0.5 0.1 0.1
0.6 0.1 0.1
0.7 0.1 0.1
0.8 0.1 0.1
0.9 0.1 0.1
1 0.1 0.1
1.1 0.1 0.1
1.2 0.1 0.1
1.3 0.1 0.1
1.4 0.1 0.1
1.5 0.1 0.1
1.6 0.1 0.1
1.7 0.1 0.1
1.8 0.1 0.1
1.9 0.1 0.1
2 0.1 0.1
2.1 0.1 0.1
0 0.2 0.1
0.1 0.2 0.1
0.2 0.2 0.1
0.3 0.2 0.1
0.4 0.2 0.1
0.5 0.2 0.1
0.6 0.2 0.1
0.7 0.2 0.1
0.8 0.2 0.1
0.9 0.2 0.1
1 0.2 0.1
1.1 0.2 0.1
1.2 0.2 0.1
1.3 0.2 0.1
1.4 0.2 0.1
1.5 0.2 0.1
1.6 0.2 0.1
1.7 0.2 0.1
1.8 0.2 0.1
1.9 0.2 0.1
2 0.2 0.1
2.1 0.2 0.1
0 0.3 0.1
0.1 0.3 0.1
0.2 0.3 0.1
0.3 0.3 0.1
0.4 0.3 0.1
0.5 0.3 0.1
0.6 0.3 0.1
0.7 0.3 0.1
0.8 0.3 0.1
0.9 0.3 0.1
1 0.3 0.1
1.1 0.3 0.1
1.2 0.3 0.1
1.3 0.3 0.1
1.4 0.3 0.1
1.5 0.3 0.1
1.6 0.3 0.1
1.7 0.3 0.1
1.8 0.3 0.1
1.9 0.3 0.1
2 0.3 0.1
2.1 0.3 0.1
0 0.4 0.1
0.1 0.4 0.1
0.2 0.4 0.1
0.3 0.4 0.1
0.4 0.4 0.1
0.5 0.4 0.1
0.6 0.4 0.1
0.7 0.4 0.1
0.8 0.4 0.1
0.9 0.4 0.1
1 0.4 0.1
1.1 0.4 0.1
1.2 0.4 0.1
1.3 0.4 0.1
1.4 0.4 0.1
1.5 0.4 0.1
1.6 0.4 0.1
1.7 0.4 0.1
1.8 0.4 0.1
1.9 0.4 0.1
2 0.4 0.1
2.1 0.4 0.1
0 0.5 0.1
0.1 0.5 0.1
0.2 0.5 0.1
0.3 0.5 0.1
0.4 0.5 0.1
0.5 0.5 0.1
0.6 0.5 0.1
0.7 0.5 0.1
0.8 0.5 0.1
0.9 0.5 0.1
1 0.5 0.1
1.1 0.5 0.1
1.2 0.5 0.1
1.3 0.5 0.1
1.4 0.5 0.1
1.5 0.5 0.1
1.6 0.5 0.1
1.7 0.5 0.1
1.8 0.5 0.1
1.9 0.5 0.1
2 0.5 0.1
2.1 0.5 0.1
0 0.6 0.1
0.1 0.6 0.1
0.2 0.6 0.1
0.3 0.6 0.1
0.4 0.6 0.1
0.5 0.6 0.1
0.6 0.6 0.1
0.7 0.6 0.1
0.8 0.6 0.1
0.9 0.6 0.1
1 0.6 0.1
1.1 0.6 0.1
1.2 0.6 0.1
1.3 0.6 0.1
1.4 0.6 0.1
1.5 0.6 0.1
1.6 0.6 0.1
1.7 0.6 0.1
1.8 0.6 0.1
1.9 0.6 0.1
2 0.6 0.1
2.1 0.6 0.1
0 0.7 0.1
0.1 0.7 0.1
0.2 0.7 0.1
0.3 0.7 0.1
0.4 0.7 0.1
0.5 0.7 0.1
0.6 0.7 0.1
0.7 0.7 0.1
0.8 0.7 0.1
0.9 0.7 0.1
1 0.7 0.1
1.1 0.7 0.1
1.2 0.7 0.1
1.3 0.7 0.1
1.4 0.7 0.1
1.5 0.7 0.1
1.6 0.7 0.1
1.7 0.7 0.1
1.8 0.7 0.1
1.9 0.7 0.1
2 0.7 0.1
2.1 0.7 0.1
0 0.8 0.1
0.1 0.8 0.1
0.2 0.8 0.1
0.3 0.8 0.1
0.4 0.8 0.1
0.5 0.8 0.1
0.6 0.8 0.1
0.7 0.8 0.1
0.8 0.8 0.1
0.9 0.8 0.1
1 0.8 0.1
1.1 0.8 0.1
1.2 0.8 0.1
1.3 0.8 0.1
1.4 0.8 0.1
1.5 0.8 0.1
1.6 0.8 0.1
1.7 0.8 0.1
1.8 0.8 0.1
1.9 0.8 0.1
2 0.8 0.1
2.1 0.8 0.1
0 0.9 0.1
0.1 0.9 0.1
0.2 0.9 0.1
0.3 0.9 0.1
0.4 0.9 0.1
0.5 0.9 0.1
0.6 0.9 0.1
0.7 0.9 0.1
0.8 0.9 0.1
0.9 0.9 0.1
1 0.9 0.1
1.1 0.9 0.1
1.2 0.9 0.1
1.3 0.9 0.1
1.4 0.9 0.1
1.5 0.9 0.1
1.6 0.9 0.1
1.7 0.9 0.1
1.8 0.9 0.1
1.9 0.9 0.1
2 0.9 0.1
2.1 0.9 0.1
0 1 0.1
0.1 1 0.1
0.2 1 0.1
0.3 1 0.1
0.4 1 0.1
0.5 1 0.1
0.6 1 0.1
0.7 1 0.1
0.8 1 0.1
0.9 1 0.1
1 1 0.1
1.1 1 0.1
1.2 1 0.1
1.3 1 0.1
1.4 1 0.1
1.5 1 0.1
1.6 1 0.1
1.7 1 0.1
1.8 1 0.1
1.9 1 0.1
2 1 0.1
2.1 1 0.1
0 1.1 0.1
0.1 1.1 0.1
0.2 1.1 0.1
0.3 1.1 0.1
0.4 1.1 0.1
0.5 1.1 0.1
0.6 1.1 0.1
0.7 1.1 0.1
0.8 1.1 0.1
0.9 1.1 0.1
1 1.1 0.1
1.1 1.1 0.1
1.2 1.1 0.1
1.3 1.1 0.1
1.4 1.1 0.1
1.5 1.1 0.1
1.6 1.1 0.1
1.7 1.1 0.1
1.8 1.1 0.1
1.9 1.1 0.1
2 1.1 0.1
2.1 1.1 0.1
0 1.2 0.1
0.1 1.2 0.1
0.2 1.2 0.1
0.3 1.2 0.1
0.4 1.2 0.1
0.5 1.2 0.1
0.6 1.2 0.1
0.7 1.2 0.1
0.8 1.2 0.1
0.9 1.2 0.1
1 1.2 0.1
1.1 1.2 0.1
1.2 1.2 0.1
1.3 1.2 0.1
1.4 1.2 0.1
1.5 1.2 0.1
1.6 1.2 0.1
1.7 1.2 0.1
1.8 1.2 0.1
1.9 1.2 0.1
2 1.2 0.1
2.1 1.2 0.1
0 1.3 0.1
0.1 1.3 0.1
0.2 1.3 0.1
0.3 1.3 0.1
0.4 1.3 0.1
0.5 1.3 0.1
0.6 1.3 0.1
0.7 1.3 0.1
0.8 1.3 0.1
0.9 1.3 0.1
1 1.3 0.1
1.1 1.3 0.1
1.2 1.3 0.1
1.3 1.3 0.1
1.4 1.3 0.1
1.5 1.3 0.1
1.6 1.3 0.1
1.7 1.3 0.1
1.8 1.3 0.1
1.9 1.3 0.1
2 1.3 0.1
2.1 1.3 0.1
0 1.4 0.1
0.1 1.4 0.1
0.2 1.4 0.1
0.3 1.4 0.1
0.4 1.4 0.1
0.5 1.4 0.1
0.6 1.4 0.1
0.7 1.4 0.1
0.8 1.4 0.1
0.9 1.4 0.1
1 1.4 0.1
1.1 1.4 0.1
1.2 1.4 0.1
1.3 1.4 0.1
1.4 1.4 0.1
1.5 1.4 0.1
1.6 1.4 0.1
1.7 1.4 0.1
1.8 1.4 0.1
1.9 1.4 0.1
2 1.4 0.1
2.1 1.4 0.1
0 1.5 0.1
0.1 1.5 0.1
0.2 1.5 0.1
0.3 1.5 0.1
0.4 1.5 0.1
0.5 1.5 0.1
0.6 1.5 0.1
0.7 1.5 0.1
0.8 1.5 0.1
0.9 1.5 0.1
1 1.5 0.1
1.1 1.5 0.1
1.2 1.5 0.1
1.3 1.5 0.1
1.4 1.5 0.1
1.5 1.5 0.1
1.6 1.5 0.1
1.7 1.5 0.1
1.8 1.5 0.1
1.9 1.5 0.1
2 1.5 0.1
2.1 1.5 0.1
0 1.6 0.1
0.1 1.6 0.1
0.2 1.6 0.1
0.3 1.6 0.1
0.4 1.6 0.1
0.5 1.6 0.1
0.6 1.6 0.1
0.7 1.6 0.1
0.8 1.6 0.1
0.9 1.6 0.1
1 1.6 0.1
1.1 1.6 0.1
1.2 1.6 0.1
1.3 1.6 0.1
1.4 1.6 0.1
1.5 1.6 0.1
1.6 1.6 0.1
1.7 1.6 0.1
1.8 1.6 0.1
1.9 1.6 0.1
2 1.6 0.1
2.1 1.6 0.1
0 0 0.2
0.1 0 0.2
0.2 0 0.2
0.3 0 0.2
0.4 0 0.2
0.5 0 0.2
0.6 0 0.2
0.7 0 0.2
0.8 0 0.2
0.9 0 0.2
1 0 0.2
1.1 0 0.2
1.2 0 0.2
1.3 0 0.2
1.4 0 0.2
1.5 0 0.2
1.6 0 0.2
1.7 0 0.2
1.8 0 0.2
1.9 0 0.2
2 0 0.2
2.1 0 0.2
0 0.1 0.2
0.1 0.1 0.2
0.2 0.1 0.2
0.3 0.1 0.2
0.4 0.1 0.2
0.5 0.1 0.2
0.6 0.1 0.2
0.7 0.1 0.2
0.8 0.1 0.2
0.9 0.1 0.2
1 0.1 0.2
1.1 0.1 0.2
1.2 0.1 0.2
1.3 0.1 0.2
1.4 0.1 0.2
1.5 0.1 0.2
1.6 0.1 0.2
1.7 0.1 0.2
1.8 0.1 0.2
1.9 0.1 0.2
2 0.1 0.2
2.1 0.1 0.2
0 0.2 0.2
0.1 0.2 0.2
0.2 0.2 0.2
0.3 0.2 0.2
0.4 0.2 0.2
0.5 0.2 0.2
0.6 0.2 0.2
0.7 0.2 0.2
0.8 0.2 0.2
0.9 0.2 0.2
1 0.2 0.2
1.1 0.2 0.2
1.2 0.2 0.2
1.3 0.2 0.2
1.4 0.2 0.2
1.5 0.2 0.2
1.6 0.2 0.2
1.7 0.2 0.2
1.8 0.2 0.2
1.9 0.2 0.2
2 0.2 0.2
2.1 0.2 0.2
0 0.3 0.2
0.1 0.3 0.2
0.2 0.3 0.2
0.3 0.3 0.2
0.4 0.3 0.2
0.5 0.3 0.2
0.6 0.3 0.2
0.7 0.3 0.2
0.8 0.3 0.2
0.9 0.3 0.2
1 0.3 0.2
1.1 0.3 0.2
1.2 0.3 0.2
1.3 0.3 0.2
1.4 0.3 0.2
1.5 0.3 0.2
1.6 0.3 0.2
1.7 0.3 0.2
1.8 0.3 0.2
1.9 0.3 0.2
2 0.3 0.2
2.1 0.3 0.2
0 0.4 0.2
0.1 0.4 0.2
0.2 0.4 0.2
0.3 0.4 0.2
0.4 0.4 0.2
0.5 0.4 0.2
0.6 0.4 0.2
0.7 0.4 0.2
0.8 0.4 0.2
0.9 0.4 0.2
1 0.4 0.2
1.1 0.4 0.2
1.2 0.4 0.2
1.3 0.4 0.2
1.4 0.4 0.2
1.5 0.4 0.2
1.6 0.4 0.2
1.7 0.4 0.2
1.8 0.4 0.2
1.9 0.4 0.2
2 0.4 0.2
2.1 0.4 0.2
0 0.5 0.2
0.1 0.5 0.2
0.2 0.5 0.2
0.3 0.5 0.2
0.4 0.5 0.2
0.5 0.5 0.2
0.6 0.5 0.2
0.7 0.5 0.2
0.8 0.5 0.2
0.9 0.5 0.2
1 0.5 0.2
1.1 0.5 0.2
1.2 0.5 0.2
1.3 0.5 0.2
1.4 0.5 0.2
1.5 0.5 0.2
1.6 0.5 0.2
1.7 0.5 0.2
1.8 0.5 0.2
1.9 0.5 0.2
2 0.5 0.2
2.1 0.5 0.2
0 0.6 0.2
0.1 0.6 0.2
0.2 0.6 0.2
0.3 0.6 0.2
0.4 0.6 0.2
0.5 0.6 0.2
0.6 0.6 0.2
0.7 0.6 0.2
0.8 0.6 0.2
0.9 0.6 0.2
1 0.6 0.2
1.1 0.6 0.2
1.2 0.6 0.2
1.3 0.6 0.2
1.4 0.6 0.2
1.5 0.6 0.2
1.6 0.6 0.2
1.7 0.6 0.2
1.8 0.6 0.2
1.9 0.6 0.2
2 0.6 0.2
2.1 0.6 0.2
0 0.7 0.2
0.1 0.7 0.2
0.2 0.7 0.2
0.3 0.7 0.2
0.4 0.7 0.2
0.5 0.7 0.2
0.6 0.7 0.2
0.7 0.7 0.2
0.8 0.7 0.2
0.9 0.7 0.2
1 0.7 0.2
1.1 0.7 0.2
1.2 0.7 0.2
1.3 0.7 0.2
1.4 0.7 0.2
1.5 0.7 0.2
1.6 0.7 0.2
1.7 0.7 0.2
1.8 0.7 0.2
1.9 0.7 0.2
2 0.7 0.2
2.1 0.7 0.2
0 0.8 0.2
0.1 0.8 0.2
[...]
POINT_DATA 4488

SCALARS pressure double
LOOKUP_TABLE pressure
0
0
0
0
0
0
0
0
0
0
0
0
0
0
0
0
0
0
0
0
0
0
0
205.336
205.333
205.331
205.33
205.329
205.327
205.327
205.327
205.327
205.326
205.326
205.325
205.326
205.325
205.324
205.326
205.326
205.325
205.323
205.322
0
0
205.331
205.331
205.33
205.33
205.328
205.327
205.327
205.327
205.326
205.326
205.326
205.326
205.326
205.325
205.325
205.326
205.326
205.325
205.324
205.323
0
0
205.328
205.329
205.33
205.329
205.327
205.327
205.327
205.326
205.326
205.326
205.326
205.327
205.326
205.326
205.326
205.326
205.326
205.326
205.325
205.325
0
0
205.326
205.327
205.328
205.328
205.327
205.326
205.326
205.326
205.326
205.325
205.325
205.329
205.327
205.327
205.327
205.327
205.327
205.327
205.327
205.326
0
0
205.324
205.326
205.327
205.327
205.327
205.325
205.326
205.326
205.326
205.326
205.326
205.327
205.328
205.327
205.327
205.327
205.328
205.327
205.328
205.328
0
0
205.323
205.325
205.326
205.326
205.326
205.326
205.326
205.327
205.327
205.326
205.325
205.326
205.328
205.328
205.328
205.328
205.328
205.328
205.328
205.328
0
0
205.322
205.324
205.325
205.325
205.325
205.326
205.326
205.326
205.327
205.326
205.326
205.327
205.328
205.328
205.328
205.329
205.328
205.328
205.329
205.329
0
0
205.321
205.323
205.324
205.325
205.327
205.326
205.326
205.326
205.327
205.327
205.327
205.327
205.328
205.328
205.328
205.329
205.329
205.329
205.328
205.329
0
0
205.321
205.323
205.324
205.325
205.326
205.326
205.326
205.326
205.327
205.327
205.327
205.327
205.328
205.328
205.328
205.329
205.329
205.329
205.329
205.329
0
0
205.319
205.323
205.324
205.325
205.325
205.326
205.326
205.326
205.327
205.327
205.327
205.327
205.328
205.328
205.328
205.329
205.329
205.329
205.33
205.33
0
0
205.32
205.322
205.324
205.324
205.325
205.326
205.326
205.326
205.327
205.327
205.327
205.328
205.328
205.328
205.329
205.329
205.329
205.329
205.33
205.33
0
0
205.32
205.322
205.323
205.324
205.325
205.325
205.326
205.326
205.327
205.327
205.327
205.328
205.328
205.329
205.33
205.328
205.329
205.329
205.33
205.33
0
0
205.32
205.322
205.323
205.324
205.325
205.325
205.326
205.326
205.327
205.327
205.327
205.327
205.328
205.329
205.329
205.329
205.329
205.329
205.33
205.33
0
0
205.321
205.323
205.323
205.324
205.325
205.325
205.326
205.326
205.326
205.327
205.327
205.328
205.328
205.329
205.329
205.329
205.329
205.33
205.33
205.33
0
0
205.322
205.323
205.324
205.324
205.325
205.325
205.326
205.326
205.326
205.327
205.327
205.328
205.328
205.328
205.329
205.329
205.329
205.33
205.33
205.33
0
0
0
0
0
0
0
0
0
0
0
0
0
0
0
0
0
0
0
0
0
0
0
0
205.336
205.333
205.331
205.33
205.329
205.327
205.327
205.327
205.327
205.326
205.326
205.325
205.326
205.325
205.324
205.326
205.326
205.325
205.323
205.322
0
205.336
205.336
205.333
205.331
205.33
205.329
205.327
205.327
205.327
205.327
205.326
205.326
205.325
205.326
205.325
205.324
205.326
205.326
205.325
205.323
205.322
205.322
205.331
205.331
205.331
205.33
205.33
205.328
205.327
205.327
205.327
205.326
205.326
205.326
205.326
205.326
205.325
205.325
205.326
205.326
205.325
205.324
205.323
205.323
205.328
205.328
205.329
205.33
205.329
205.327
205.327
205.327
205.326
205.326
205.326
205.326
205.327
205.326
205.326
205.326
205.326
205.326
205.326
205.325
205.325
205.325
205.326
205.326
205.327
205.328
205.328
205.327
205.326
205.326
205.326
205.326
205.325
205.325
205.329
205.327
205.327
205.327
205.327
205.327
205.327
205.327
205.326
205.326
205.324
205.324
205.326
205.327
205.327
205.327
205.325
205.326
205.326
205.326
205.326
205.326
205.327
205.328
205.327
205.327
205.327
205.328
205.327
205.328
205.328
205.328
205.323
205.323
205.325
205.326
205.326
205.326
205.326
205.326
205.327
205.327
205.326
205.325
205.326
205.328
205.328
205.328
205.328
205.328
205.328
205.328
205.328
205.328
205.322
205.322
205.324
205.325
205.325
205.325
205.326
205.326
205.326
205.327
205.326
205.326
205.327
205.328
205.328
205.328
205.329
205.328
205.328
205.329
205.329
205.329
205.321
205.321
205.323
205.324
205.325
205.327
205.326
205.326
205.326
205.327
205.327
205.327
205.327
205.328
205.328
205.328
205.329
205.329
205.329
205.328
205.329
205.329
205.321
205.321
205.323
205.324
205.325
205.326
205.326
205.326
205.326
205.327
205.327
205.327
205.327
205.328
205.328
205.328
205.329
205.329
205.329
205.329
205.329
205.329
205.319
205.319
205.323
205.324
205.325
205.325
205.326
205.326
205.326
205.327
205.327
205.327
205.327
205.328
205.328
205.328
205.329
205.329
205.329
205.33
205.33
205.33
205.32
205.32
205.322
205.324
205.324
205.325
205.326
205.326
205.326
205.327
205.327
205.327
205.328
205.328
205.328
205.329
205.329
205.329
205.329
205.33
205.33
205.33
205.32
205.32
205.322
205.323
205.324
205.325
205.325
205.326
205.326
205.327
205.327
205.327
205.328
205.328
205.329
205.33
205.328
205.329
205.329
205.33
205.33
205.33
205.32
205.32
205.322
205.323
205.324
205.325
205.325
205.326
205.326
205.327
205.327
205.327
205.327
205.328
205.329
205.329
205.329
205.329
205.329
205.33
205.33
205.33
205.321
205.321
205.323
205.323
205.324
205.325
205.325
205.326
205.326
205.326
205.327
205.327
205.328
205.328
205.329
205.329
205.329
205.329
205.33
205.33
205.33
205.33
205.322
205.322
205.323
205.324
205.324
205.325
205.325
205.326
205.326
205.326
205.327
205.327
205.328
205.328
205.328
205.329
205.329
205.329
205.33
205.33
205.33
205.33
0
205.322
205.323
205.324
205.324
205.325
205.325
205.326
205.326
205.326
205.327
205.327
205.328
205.328
205.328
205.329
205.329
205.329
205.33
205.33
205.33
0
0
205.341
205.337
205.334
205.331
205.324
205.321
205.322
205.324
205.325
205.326
205.327
205.326
205.326
205.326
205.326
205.326
205.325
205.324
205.323
205.321
0
205.341
205.341
205.337
205.334
205.331
205.324
205.321
205.322
205.324
205.325
205.326
205.327
205.326
205.326
205.326
205.326
205.326
205.325
205.324
205.323
205.321
205.321
205.335
205.335
205.335
205.334
205.331
205.326
205.322
205.321
205.323
205.325
205.326
205.326
205.326
205.326
205.326
205.326
205.326
205.325
205.325
205.324
205.322
205.322
205.332
205.332
205.333
205.332
205.331
205.327
205.323
205.322
205.323
205.324
205.325
205.326
205.326
205.327
205.326
205.326
205.326
205.326
205.325
205.325
205.324
205.324
205.329
205.329
205.331
205.331
205.33
205.328
205.325
205.323
205.323
205.323
205.324
205.325
205.326
205.327
205.327
205.327
205.327
205.326
205.326
205.326
205.326
205.326
205.328
205.328
205.329
205.329
205.329
205.328
205.326
205.324
205.323
205.323
205.324
205.325
205.326
205.326
205.327
205.327
205.327
205.327
205.327
205.327
205.327
205.327
205.326
205.326
205.328
205.328
205.329
205.328
205.327
205.326
205.325
205.324
205.324
205.324
205.325
205.326
205.327
205.327
205.327
205.327
205.327
205.328
205.328
205.328
205.325
205.325
205.326
205.327
205.328
205.328
205.328
205.327
205.326
205.325
205.325
205.325
205.325
205.326
205.326
205.327
205.327
205.327
205.328
205.328
205.328
205.328
205.324
205.324
205.325
205.326
205.327
205.328
205.328
205.327
205.327
205.326
205.326
205.326
205.326
205.326
205.326
205.327
205.327
205.328
205.328
205.328
205.328
205.328
205.323
205.323
205.325
205.326
205.326
205.327
205.327
205.327
205.327
205.327
205.327
205.327
205.327
205.327
205.327
205.327
205.327
205.328
205.328
205.328
205.328
205.328
205.322
205.322
205.324
205.325
205.326
205.327
205.327
205.327
205.327
205.327
205.327
205.327
205.327
205.327
205.327
205.327
205.328
205.328
205.328
205.328
205.328
205.328
205.322
205.322
205.324
205.325
205.325
205.326
205.327
205.327
205.327
205.327
205.328
205.328
205.328
205.328
205.328
205.328
205.328
205.328
205.328
205.329
205.329
205.329
205.322
205.322
205.323
205.324
205.325
205.326
205.326
205.327
205.327
205.327
205.327
205.328
205.328
205.328
205.328
205.329
205.328
205.328
205.329
205.329
205.329
205.329
205.322
205.322
205.323
205.324
205.325
205.325
205.326
205.326
205.327
205.327
205.327
205.327
205.328
205.328
205.329
205.329
205.329
205.329
205.329
205.329
205.329
205.329
205.322
205.322
205.324
205.324
205.325
205.325
205.326
205.326
205.326
205.327
205.327
205.327
205.328
205.328
205.328
205.329
205.329
205.329
205.329
205.329
205.329
205.329
205.323
205.323
205.324
205.324
205.325
205.325
205.325
205.326
205.326
205.327
205.327
205.327
205.328
205.328
205.328
205.328
205.329
205.329
205.329
205.329
205.329
205.329
0
205.323
205.324
205.324
205.325
205.325
205.325
205.326
205.326
205.327
205.327
205.327
205.328
205.328
205.328
205.328
205.329
205.329
205.329
205.329
205.329
0
0
205.346
205.342
205.339
205.333
205.313
205.307
205.314
205.321
205.325
205.327
205.328
205.328
205.327
205.327
205.326
205.326
205.325
205.324
205.322
205.32
0
205.346
205.346
205.342
205.339
205.333
205.313
205.307
205.314
205.321
205.325
205.327
205.328
205.328
205.327
205.327
205.326
205.326
205.325
205.324
205.322
205.32
205.32
205.339
205.339
205.339
205.338
205.334
205.323
205.311
205.313
205.319
205.323
205.326
205.327
205.327
205.327
205.327
205.326
205.326
205.325
205.324
205.323
205.322
205.322
205.335
205.335
205.336
205.336
205.334
205.328
205.317
205.314
205.317
205.321
205.324
205.326
205.327
205.327
205.327
205.326
205.326
205.326
205.325
205.324
205.324
205.324
205.333
205.333
205.334
205.334
205.333
205.33
205.322
205.317
205.317
205.32
205.322
205.324
205.326
205.326
205.327
205.327
205.326
205.326
205.326
205.326
205.325
205.325
205.33
205.33
205.332
205.333
205.333
205.331
205.326
205.321
205.319
205.319
205.321
205.323
205.324
205.326
205.326
205.326
205.327
205.327
205.327
205.327
205.326
205.326
205.329
205.329
205.33
205.331
205.332
205.331
205.329
205.325
205.322
205.321
205.321
205.322
205.323
205.325
205.325
205.326
205.326
205.327
205.327
205.327
205.327
205.327
205.327
205.327
205.329
205.33
205.33
205.331
205.33
205.328
205.326
205.324
205.322
205.322
205.323
205.324
205.325
205.326
205.326
205.327
205.327
205.327
205.327
205.327
205.326
205.326
205.327
205.328
205.329
205.33
205.33
205.329
205.328
205.326
205.325
205.324
205.324
205.324
205.324
205.325
205.326
205.326
205.327
205.327
205.327
205.327
205.325
205.325
205.326
205.327
205.328
205.329
205.329
205.329
205.329
205.328
205.327
205.326
205.325
205.325
205.325
205.325
205.326
205.326
205.327
205.327
205.327
205.327
205.324
205.324
205.326
205.326
205.327
205.328
205.328
205.329
205.329
205.328
205.328
205.328
205.327
205.327
205.326
205.326
205.326
205.327
205.327
205.327
205.327
205.327
205.324
205.324
205.325
205.326
205.327
205.327
205.328
205.328
205.328
205.328
205.328
205.328
205.328
205.328
205.328
205.328
205.327
205.327
205.327
205.327
205.327
205.327
205.323
205.323
205.325
205.325
205.326
205.327
205.327
205.327
205.328
205.328
205.328
205.328
205.328
205.328
205.328
205.328
205.328
205.328
205.328
205.328
205.328
205.328
205.323
205.323
205.324
205.325
205.326
205.326
205.327
205.327
205.327
205.327
205.328
205.328
205.328
205.328
205.328
205.328
205.328
205.329
205.329
205.329
205.328
205.328
205.324
205.324
205.325
205.325
205.325
205.326
205.326
205.326
205.327
205.327
205.327
205.328
205.328
205.328
205.328
205.328
205.329
205.329
205.329
205.329
205.329
205.329
205.324
205.324
205.325
205.325
205.325
205.325
205.326
205.326
205.326
205.327
205.327
205.327
205.327
205.328
205.328
205.328
205.328
205.329
205.329
205.329
205.329
205.329
0
205.324
205.325
205.325
205.325
205.325
205.326
205.326
205.326
205.327
205.327
205.327
205.327
205.328
205.328
205.328
205.328
205.329
205.329
205.329
205.329
0
0
205.35
205.348
205.349
205.344
205.276
205.275
205.304
205.321
205.327
205.329
205.329
205.329
205.328
205.327
205.326
205.325
205.324
205.323
205.322
205.32
0
205.35
205.35
205.348
205.349
205.344
205.276
205.275
205.304
205.321
205.327
205.329
205.329
205.329
205.328
205.327
205.326
205.325
205.324
205.323
205.322
205.32
205.32
205.343
205.343
205.344
205.345
205.344
205.323
205.284
205.298
205.315
205.324
205.327
205.329
205.328
205.328
205.327
205.327
205.326
205.325
205.324
205.323
205.321
205.321
205.339
205.339
205.34
205.341
205.342
205.334
205.303
205.299
205.31
205.32
205.325
205.327
205.328
205.328
205.327
205.327
205.326
205.326
205.325
205.324
205.323
205.323
205.335
205.335
205.337
205.338
205.34
205.336
205.317
205.304
205.307
205.315
205.321
205.324
205.326
205.327
205.327
205.327
205.327
205.326
205.326
205.325
205.325
205.325
205.333
205.333
205.334
205.336
205.338
205.338
205.328
205.315
205.309
205.311
205.316
205.321
205.324
205.325
205.326
205.326
205.327
205.326
205.326
205.326
205.326
205.326
205.331
205.331
205.332
205.334
205.336
205.336
205.334
205.326
205.317
205.314
205.315
205.318
205.321
205.323
205.325
205.326
205.326
205.326
205.327
205.327
205.327
205.327
205.329
205.329
205.33
205.332
205.333
205.334
205.334
205.331
205.326
205.321
205.318
205.317
205.319
205.321
205.323
205.324
205.325
205.326
205.326
205.327
205.327
205.327
205.327
205.327
205.329
205.33
205.331
205.332
205.332
205.332
205.33
205.327
205.324
205.321
205.32
205.32
205.322
205.323
205.324
205.325
205.326
205.327
205.326
205.326
205.326
205.326
205.328
205.329
205.33
205.33
205.331
205.331
205.331
205.33
205.328
205.326
205.324
205.323
205.323
205.323
205.323
205.324
205.325
205.326
205.326
205.326
205.325
205.325
205.327
205.328
205.328
205.329
205.33
205.33
205.33
205.33
205.33
205.329
205.328
205.327
205.325
205.325
205.325
205.325
205.325
205.325
205.326
205.326
205.325
205.325
205.326
205.327
205.328
205.328
205.329
205.329
205.329
205.329
205.329
205.329
205.329
205.328
205.328
205.328
205.327
205.326
205.326
205.326
205.326
205.326
205.324
205.324
205.326
205.326
205.327
205.327
205.328
205.328
205.328
205.329
205.329
205.329
205.329
205.329
205.329
205.328
205.328
205.327
205.328
205.328
205.327
205.327
205.324
205.324
205.325
205.326
205.326
205.327
205.327
205.327
205.328
205.328
205.328
205.328
205.328
205.328
205.328
205.328
205.328
205.329
205.329
205.329
205.328
205.328
205.324
205.324
205.325
205.326
205.326
205.326
205.327
205.327
205.327
205.327
205.328
205.328
205.328
205.328
205.328
205.328
205.328
205.328
205.328
205.329
205.328
205.328
205.325
205.325
205.326
205.326
205.326
205.326
205.326
205.326
205.327
205.327
205.327
205.327
205.327
205.328
205.328
205.328
205.328
205.328
205.328
205.328
205.328
205.328
0
205.325
205.326
205.326
205.326
205.326
205.326
205.326
205.327
205.327
205.327
205.327
205.327
205.328
205.328
205.328
205.328
205.328
205.328
205.328
205.328
0
0
205.353
205.352
205.363
205.394
205.306
205.228
205.298
205.325
205.331
205.331
205.331
205.329
205.328
205.327
205.326
205.325
205.324
205.323
205.321
205.32
0
205.353
205.353
205.352
205.363
205.394
205.306
205.228
205.298
205.325
205.331
205.331
205.331
205.329
205.328
205.327
205.326
205.325
205.324
205.323
205.321
205.32
205.32
205.346
205.346
205.348
205.353
205.374
205.336
205.255
205.285
205.315
205.327
205.33
205.331
205.33
205.329
205.328
205.327
205.326
205.324
205.323
205.322
205.321
205.321
205.341
205.341
205.342
205.346
205.354
205.351
205.283
205.281
205.303
205.32
205.327
205.329
205.329
205.329
205.328
205.327
205.326
205.325
205.325
205.324
205.324
205.324
205.337
205.337
205.339
205.342
205.347
205.359
205.31
205.289
205.296
205.31
205.32
205.325
205.327
205.328
205.328
205.327
205.327
205.326
205.326
205.325
205.325
205.325
205.334
205.334
205.336
205.339
205.345
205.36
205.333
205.306
205.299
205.304
205.313
205.32
205.324
205.326
205.327
205.327
205.327
205.326
205.326
205.326
205.327
205.327
205.332
205.332
205.334
205.336
205.341
205.35
205.346
205.327
205.311
205.306
205.308
205.314
205.319
205.322
205.325
205.326
205.326
205.326
205.326
205.327
205.327
205.327
205.33
205.33
205.332
205.333
205.336
205.341
205.345
205.34
205.328
205.317
205.312
205.312
205.315
205.318
205.321
205.323
205.325
205.326
205.326
205.327
205.327
205.327
205.329
205.329
205.33
205.331
205.333
205.335
205.339
205.34
205.337
205.33
205.323
205.318
205.316
205.317
205.318
205.321
205.322
205.324
205.325
205.326
205.326
205.326
205.327
205.327
205.329
205.33
205.331
205.332
205.334
205.336
205.336
205.335
205.332
205.327
205.323
205.321
205.32
205.32
205.321
205.322
205.324
205.325
205.325
205.325
205.326
205.326
205.328
205.329
205.329
205.33
205.331
205.332
205.333
205.334
205.333
205.332
205.331
205.327
205.324
205.323
205.323
205.323
205.323
205.323
205.325
205.325
205.326
205.326
205.327
205.328
205.328
205.329
205.329
205.33
205.331
205.331
205.332
205.332
205.332
205.33
205.329
205.329
205.327
205.325
205.324
205.323
205.326
205.326
205.325
205.325
205.326
205.327
205.328
205.328
205.328
205.329
205.329
205.329
205.33
205.33
205.33
205.33
205.331
205.33
205.328
205.327
205.328
205.328
205.327
205.327
205.325
205.325
205.326
205.327
205.327
205.327
205.328
205.328
205.328
205.328
205.329
205.329
205.329
205.329
205.33
205.329
205.329
205.329
205.33
205.33
205.327
205.327
205.325
205.325
205.326
205.326
205.327
205.327
205.327
205.327
205.327
205.328
205.328
205.328
205.328
205.328
205.328
205.328
205.329
205.329
205.329
205.329
205.328
205.328
205.326
205.326
205.326
205.326
205.326
205.326
205.327
205.327
205.327
205.327
205.327
205.327
205.327
205.327
205.327
205.328
205.328
205.327
205.327
205.328
205.328
205.328
0
205.326
205.326
205.326
205.326
205.326
205.327
205.327
205.327
205.327
205.327
205.327
205.327
205.327
205.327
205.328
205.328
205.327
205.327
205.328
205.328
0
0
205.352
205.35
205.351
205.348
205.291
205.277
205.304
205.32
205.326
205.328
205.329
205.328
205.327
205.326
205.325
205.324
205.323
205.322
205.32
205.319
0
205.352
205.352
205.35
205.351
205.348
205.291
205.277
205.304
205.32
205.326
205.328
205.329
205.328
205.327
205.326
205.325
205.324
205.323
205.322
205.32
205.319
205.319
205.345
205.345
205.346
205.347
205.344
205.315
205.286
205.298
205.315
205.324
205.327
205.328
205.328
205.328
205.327
205.326
205.325
205.324
205.323
205.321
205.32
205.32
205.34
205.34
205.342
205.342
205.342
205.331
205.303
205.3
205.31
205.319
205.324
205.327
205.327
205.327
205.327
205.326
205.325
205.324
205.324
205.323
205.322
205.322
205.337
205.337
205.339
205.34
205.341
205.338
205.317
205.306
205.308
205.315
205.321
205.324
205.326
205.326
205.326
205.326
205.325
205.325
205.325
205.324
205.324
205.324
205.335
205.335
205.336
205.338
205.34
205.34
205.328
205.316
205.31
205.312
205.317
205.321
205.323
205.325
205.325
205.326
205.326
205.325
205.325
205.325
205.325
205.325
205.333
205.333
205.334
205.336
205.338
205.339
205.335
205.325
205.318
205.314
205.315
205.318
205.321
205.323
205.324
205.325
205.325
205.325
205.325
205.326
205.326
205.326
205.331
205.331
205.332
205.333
205.335
205.336
205.336
205.332
205.326
205.321
205.318
205.318
205.319
205.321
205.322
205.324
205.324
205.325
205.325
205.326
205.326
205.326
205.329
205.329
205.331
205.332
205.333
205.334
205.335
205.334
205.331
205.327
205.324
205.321
205.32
205.32
205.321
205.322
205.323
205.324
205.325
205.325
205.325
205.325
205.328
205.328
205.329
205.33
205.331
205.332
205.333
205.333
205.332
205.331
205.329
205.326
205.324
205.323
205.322
205.322
205.323
205.323
205.324
205.325
205.325
205.325
205.327
205.327
205.328
205.329
205.33
205.33
205.331
205.331
205.331
205.331
205.33
205.329
205.328
205.326
205.325
205.324
205.324
205.324
205.324
205.324
205.325
205.325
205.326
205.326
205.328
205.328
205.329
205.329
205.33
205.33
205.33
205.33
205.33
205.33
205.329
205.328
205.328
205.327
205.326
205.325
205.325
205.325
205.325
205.325
205.326
205.326
205.327
205.328
205.328
205.328
205.329
205.329
205.329
205.329
205.329
205.329
205.329
205.329
205.329
205.328
205.327
205.327
205.327
205.327
205.326
205.326
205.326
205.326
205.327
205.327
205.328
205.328
205.328
205.328
205.328
205.328
205.329
205.329
205.329
205.329
205.328
205.328
205.328
205.328
205.328
205.328
205.327
205.327
205.326
205.326
205.327
205.327
205.327
205.327
205.327
205.328
205.328
205.328
205.328
205.328
205.328
205.328
205.328
205.328
205.328
205.328
205.328
205.328
205.327
205.327
205.327
205.327
205.327
205.327
205.327
205.327
205.327
205.327
205.327