# vtk DataFile Version 3.0
FlowField
ASCII
DATASET STRUCTURED_GRID
DIMENSIONS 102 12 1 
POINTS 1224 double
0 0 0
0.3 0 0
0.6 0 0
0.9 0 0
1.2 0 0
1.5 0 0
1.8 0 0
2.1 0 0
2.4 0 0
2.7 0 0
3 0 0
3.3 0 0
3.6 0 0
3.9 0 0
4.2 0 0
4.5 0 0
4.8 0 0
5.1 0 0
5.4 0 0
5.7 0 0
6 0 0
6.3 0 0
6.6 0 0
6.9 0 0
7.2 0 0
7.5 0 0
7.8 0 0
8.1 0 0
8.4 0 0
8.7 0 0
9 0 0
9.3 0 0
9.6 0 0
9.9 0 0
10.2 0 0
10.5 0 0
10.8 0 0
11.1 0 0
11.4 0 0
11.7 0 0
12 0 0
12.3 0 0
12.6 0 0
12.9 0 0
13.2 0 0
13.5 0 0
13.8 0 0
14.1 0 0
14.4 0 0
14.7 0 0
15 0 0
15.3 0 0
15.6 0 0
15.9 0 0
16.2 0 0
16.5 0 0
16.8 0 0
17.1 0 0
17.4 0 0
17.7 0 0
18 0 0
18.3 0 0
18.6 0 0
18.9 0 0
19.2 0 0
19.5 0 0
19.8 0 0
20.1 0 0
20.4 0 0
20.7 0 0
21 0 0
21.3 0 0
21.6 0 0
21.9 0 0
22.2 0 0
22.5 0 0
22.8 0 0
23.1 0 0
23.4 0 0
23.7 0 0
24 0 0
24.3 0 0
24.6 0 0
24.9 0 0
25.2 0 0
25.5 0 0
25.8 0 0
26.1 0 0
26.4 0 0
26.7 0 0
27 0 0
27.3 0 0
27.6 0 0
27.9 0 0
28.2 0 0
28.5 0 0
28.8 0 0
29.1 0 0
29.4 0 0
29.7 0 0
30 0 0
30.3 0 0
0 0.1 0
0.3 0.1 0
0.6 0.1 0
0.9 0.1 0
1.2 0.1 0
1.5 0.1 0
1.8 0.1 0
2.1 0.1 0
2.4 0.1 0
2.7 0.1 0
3 0.1 0
3.3 0.1 0
3.6 0.1 0
3.9 0.1 0
4.2 0.1 0
4.5 0.1 0
4.8 0.1 0
5.1 0.1 0
5.4 0.1 0
5.7 0.1 0
6 0.1 0
6.3 0.1 0
6.6 0.1 0
6.9 0.1 0
7.2 0.1 0
7.5 0.1 0
7.8 0.1 0
8.1 0.1 0
8.4 0.1 0
8.7 0.1 0
9 0.1 0
9.3 0.1 0
9.6 0.1 0
9.9 0.1 0
10.2 0.1 0
10.5 0.1 0
10.8 0.1 0
11.1 0.1 0
11.4 0.1 0
11.7 0.1 0
12 0.1 0
12.3 0.1 0
12.6 0.1 0
12.9 0.1 0
13.2 0.1 0
13.5 0.1 0
13.8 0.1 0
14.1 0.1 0
14.4 0.1 0
14.7 0.1 0
15 0.1 0
15.3 0.1 0
15.6 0.1 0
15.9 0.1 0
16.2 0.1 0
16.5 0.1 0
16.8 0.1 0
17.1 0.1 0
17.4 0.1 0
17.7 0.1 0
18 0.1 0
18.3 0.1 0
18.6 0.1 0
18.9 0.1 0
19.2 0.1 0
19.5 0.1 0
19.8 0.1 0
20.1 0.1 0
20.4 0.1 0
20.7 0.1 0
21 0.1 0
21.3 0.1 0
21.6 0.1 0
21.9 0.1 0
22.2 0.1 0
22.5 0.1 0
22.8 0.1 0
23.1 0.1 0
23.4 0.1 0
23.7 0.1 0
24 0.1 0
24.3 0.1 0
24.6 0.1 0
24.9 0.1 0
25.2 0.1 0
25.5 0.1 0
25.8 0.1 0
26.1 0.1 0
26.4 0.1 0
26.7 0.1 0
27 0.1 0
27.3 0.1 0
27.6 0.1 0
27.9 0.1 0
28.2 0.1 0
28.5 0.1 0
28.8 0.1 0
29.1 0.1 0
29.4 0.1 0
29.7 0.1 0
30 0.1 0
30.3 0.1 0
0 0.2 0
0.3 0.2 0
0.6 0.2 0
0.9 0.2 0
1.2 0.2 0
1.5 0.2 0
1.8 0.2 0
2.1 0.2 0
2.4 0.2 0
2.7 0.2 0
3 0.2 0
3.3 0.2 0
3.6 0.2 0
3.9 0.2 0
4.2 0.2 0
4.5 0.2 0
4.8 0.2 0
5.1 0.2 0
5.4 0.2 0
5.7 0.2 0
6 0.2 0
6.3 0.2 0
6.6 0.2 0
6.9 0.2 0
7.2 0.2 0
7.5 0.2 0
7.8 0.2 0
8.1 0.2 0
8.4 0.2 0
8.7 0.2 0
9 0.2 0
9.3 0.2 0
9.6 0.2 0
9.9 0.2 0
10.2 0.2 0
10.5 0.2 0
10.8 0.2 0
11.1 0.2 0
11.4 0.2 0
11.7 0.2 0
12 0.2 0
12.3 0.2 0
12.6 0.2 0
12.9 0.2 0
13.2 0.2 0
13.5 0.2 0
13.8 0.2 0
14.1 0.2 0
14.4 0.2 0
14.7 0.2 0
15 0.2 0
15.3 0.2 0
15.6 0.2 0
15.9 0.2 0
16.2 0.2 0
16.5 0.2 0
16.8 0.2 0
17.1 0.2 0
17.4 0.2 0
17.7 0.2 0
18 0.2 0
18.3 0.2 0
18.6 0.2 0
18.9 0.2 0
19.2 0.2 0
19.5 0.2 0
19.8 0.2 0
20.1 0.2 0
20.4 0.2 0
20.7 0.2 0
21 0.2 0
21.3 0.2 0
21.6 0.2 0
21.9 0.2 0
22.2 0.2 0
22.5 0.2 0
22.8 0.2 0
23.1 0.2 0
23.4 0.2 0
23.7 0.2 0
24 0.2 0
24.3 0.2 0
24.6 0.2 0
24.9 0.2 0
25.2 0.2 0
25.5 0.2 0
25.8 0.2 0
26.1 0.2 0
26.4 0.2 0
26.7 0.2 0
27 0.2 0
27.3 0.2 0
27.6 0.2 0
27.9 0.2 0
28.2 0.2 0
28.5 0.2 0
28.8 0.2 0
29.1 0.2 0
29.4 0.2 0
29.7 0.2 0
30 0.2 0
30.3 0.2 0
0 0.3 0
0.3 0.3 0
0.6 0.3 0
0.9 0.3 0
1.2 0.3 0
1.5 0.3 0
1.8 0.3 0
2.1 0.3 0
2.4 0.3 0
2.7 0.3 0
3 0.3 0
3.3 0.3 0
3.6 0.3 0
3.9 0.3 0
4.2 0.3 0
4.5 0.3 0
4.8 0.3 0
5.1 0.3 0
5.4 0.3 0
5.7 0.3 0
6 0.3 0
6.3 0.3 0
6.6 0.3 0
6.9 0.3 0
7.2 0.3 0
7.5 0.3 0
7.8 0.3 0
8.1 0.3 0
8.4 0.3 0
8.7 0.3 0
9 0.3 0
9.3 0.3 0
9.6 0.3 0
9.9 0.3 0
10.2 0.3 0
10.5 0.3 0
10.8 0.3 0
11.1 0.3 0
11.4 0.3 0
11.7 0.3 0
12 0.3 0
12.3 0.3 0
12.6 0.3 0
12.9 0.3 0
13.2 0.3 0
13.5 0.3 0
13.8 0.3 0
14.1 0.3 0
14.4 0.3 0
14.7 0.3 0
15 0.3 0
15.3 0.3 0
15.6 0.3 0
15.9 0.3 0
16.2 0.3 0
16.5 0.3 0
16.8 0.3 0
17.1 0.3 0
17.4 0.3 0
17.7 0.3 0
18 0.3 0
18.3 0.3 0
18.6 0.3 0
18.9 0.3 0
19.2 0.3 0
19.5 0.3 0
19.8 0.3 0
20.1 0.3 0
20.4 0.3 0
20.7 0.3 0
21 0.3 0
21.3 0.3 0
21.6 0.3 0
21.9 0.3 0
22.2 0.3 0
22.5 0.3 0
22.8 0.3 0
23.1 0.3 0
23.4 0.3 0
23.7 0.3 0
24 0.3 0
24.3 0.3 0
24.6 0.3 0
24.9 0.3 0
25.2 0.3 0
25.5 0.3 0
25.8 0.3 0
26.1 0.3 0
26.4 0.3 0
26.7 0.3 0
27 0.3 0
27.3 0.3 0
27.6 0.3 0
27.9 0.3 0
28.2 0.3 0
28.5 0.3 0
28.8 0.3 0
29.1 0.3 0
29.4 0.3 0
29.7 0.3 0
30 0.3 0
30.3 0.3 0
0 0.4 0
0.3 0.4 0
0.6 0.4 0
0.9 0.4 0
1.2 0.4 0
1.5 0.4 0
1.8 0.4 0
2.1 0.4 0
2.4 0.4 0
2.7 0.4 0
3 0.4 0
3.3 0.4 0
3.6 0.4 0
3.9 0.4 0
4.2 0.4 0
4.5 0.4 0
4.8 0.4 0
5.1 0.4 0
5.4 0.4 0
5.7 0.4 0
6 0.4 0
6.3 0.4 0
6.6 0.4 0
6.9 0.4 0
7.2 0.4 0
7.5 0.4 0
7.8 0.4 0
8.1 0.4 0
8.4 0.4 0
8.7 0.4 0
9 0.4 0
9.3 0.4 0
9.6 0.4 0
9.9 0.4 0
10.2 0.4 0
10.5 0.4 0
10.8 0.4 0
11.1 0.4 0
11.4 0.4 0
11.7 0.4 0
12 0.4 0
12.3 0.4 0
12.6 0.4 0
12.9 0.4 0
13.2 0.4 0
13.5 0.4 0
13.8 0.4 0
14.1 0.4 0
14.4 0.4 0
14.7 0.4 0
15 0.4 0
15.3 0.4 0
15.6 0.4 0
15.9 0.4 0
16.2 0.4 0
16.5 0.4 0
16.8 0.4 0
17.1 0.4 0
17.4 0.4 0
17.7 0.4 0
18 0.4 0
18.3 0.4 0
18.6 0.4 0
18.9 0.4 0
19.2 0.4 0
19.5 0.4 0
19.8 0.4 0
20.1 0.4 0
20.4 0.4 0
20.7 0.4 0
21 0.4 0
21.3 0.4 0
21.6 0.4 0
21.9 0.4 0
22.2 0.4 0
22.5 0.4 0
22.8 0.4 0
23.1 0.4 0
23.4 0.4 0
23.7 0.4 0
24 0.4 0
24.3 0.4 0
24.6 0.4 0
24.9 0.4 0
25.2 0.4 0
25.5 0.4 0
25.8 0.4 0
26.1 0.4 0
26.4 0.4 0
26.7 0.4 0
27 0.4 0
27.3 0.4 0
27.6 0.4 0
27.9 0.4 0
28.2 0.4 0
28.5 0.4 0
28.8 0.4 0
29.1 0.4 0
29.4 0.4 0
29.7 0.4 0
30 0.4 0
30.3 0.4 0
0 0.5 0
0.3 0.5 0
0.6 0.5 0
0.9 0.5 0
1.2 0.5 0
1.5 0.5 0
1.8 0.5 0
2.1 0.5 0
2.4 0.5 0
2.7 0.5 0
3 0.5 0
3.3 0.5 0
3.6 0.5 0
3.9 0.5 0
4.2 0.5 0
4.5 0.5 0
4.8 0.5 0
5.1 0.5 0
5.4 0.5 0
5.7 0.5 0
6 0.5 0
6.3 0.5 0
6.6 0.5 0
6.9 0.5 0
7.2 0.5 0
7.5 0.5 0
7.8 0.5 0
8.1 0.5 0
8.4 0.5 0
8.7 0.5 0
9 0.5 0
9.3 0.5 0
9.6 0.5 0
9.9 0.5 0
10.2 0.5 0
10.5 0.5 0
10.8 0.5 0
11.1 0.5 0
11.4 0.5 0
11.7 0.5 0
12 0.5 0
12.3 0.5 0
12.6 0.5 0
12.9 0.5 0
13.2 0.5 0
13.5 0.5 0
13.8 0.5 0
14.1 0.5 0
14.4 0.5 0
14.7 0.5 0
15 0.5 0
15.3 0.5 0
15.6 0.5 0
15.9 0.5 0
16.2 0.5 0
16.5 0.5 0
16.8 0.5 0
17.1 0.5 0
17.4 0.5 0
17.7 0.5 0
18 0.5 0
18.3 0.5 0
18.6 0.5 0
18.9 0.5 0
19.2 0.5 0
19.5 0.5 0
19.8 0.5 0
20.1 0.5 0
20.4 0.5 0
20.7 0.5 0
21 0.5 0
21.3 0.5 0
21.6 0.5 0
21.9 0.5 0
22.2 0.5 0
22.5 0.5 0
22.8 0.5 0
23.1 0.5 0
23.4 0.5 0
23.7 0.5 0
24 0.5 0
24.3 0.5 0
24.6 0.5 0
24.9 0.5 0
25.2 0.5 0
25.5 0.5 0
25.8 0.5 0
26.1 0.5 0
26.4 0.5 0
26.7 0.5 0
27 0.5 0
27.3 0.5 0
27.6 0.5 0
27.9 0.5 0
28.2 0.5 0
28.5 0.5 0
28.8 0.5 0
29.1 0.5 0
29.4 0.5 0
29.7 0.5 0
30 0.5 0
30.3 0.5 0
0 0.6 0
0.3 0.6 0
0.6 0.6 0
0.9 0.6 0
1.2 0.6 0
1.5 0.6 0
1.8 0.6 0
2.1 0.6 0
2.4 0.6 0
2.7 0.6 0
3 0.6 0
3.3 0.6 0
3.6 0.6 0
3.9 0.6 0
4.2 0.6 0
4.5 0.6 0
4.8 0.6 0
5.1 0.6 0
5.4 0.6 0
5.7 0.6 0
6 0.6 0
6.3 0.6 0
6.6 0.6 0
6.9 0.6 0
7.2 0.6 0
7.5 0.6 0
7.8 0.6 0
8.1 0.6 0
8.4 0.6 0
8.7 0.6 0
9 0.6 0
9.3 0.6 0
9.6 0.6 0
9.9 0.6 0
10.2 0.6 0
10.5 0.6 0
10.8 0.6 0
11.1 0.6 0
11.4 0.6 0
11.7 0.6 0
12 0.6 0
12.3 0.6 0
12.6 0.6 0
12.9 0.6 0
13.2 0.6 0
13.5 0.6 0
13.8 0.6 0
14.1 0.6 0
14.4 0.6 0
14.7 0.6 0
15 0.6 0
15.3 0.6 0
15.6 0.6 0
15.9 0.6 0
16.2 0.6 0
16.5 0.6 0
16.8 0.6 0
17.1 0.6 0
17.4 0.6 0
17.7 0.6 0
18 0.6 0
18.3 0.6 0
18.6 0.6 0
18.9 0.6 0
19.2 0.6 0
19.5 0.6 0
19.8 0.6 0
20.1 0.6 0
20.4 0.6 0
20.7 0.6 0
21 0.6 0
21.3 0.6 0
21.6 0.6 0
21.9 0.6 0
22.2 0.6 0
22.5 0.6 0
22.8 0.6 0
23.1 0.6 0
23.4 0.6 0
23.7 0.6 0
24 0.6 0
24.3 0.6 0
24.6 0.6 0
24.9 0.6 0
25.2 0.6 0
25.5 0.6 0
25.8 0.6 0
26.1 0.6 0
26.4 0.6 0
26.7 0.6 0
27 0.6 0
27.3 0.6 0
27.6 0.6 0
27.9 0.6 0
28.2 0.6 0
28.5 0.6 0
28.8 0.6 0
29.1 0.6 0
29.4 0.6 0
29.7 0.6 0
30 0.6 0
30.3 0.6 0
0 0.7 0
0.3 0.7 0
0.6 0.7 0
0.9 0.7 0
1.2 0.7 0
1.5 0.7 0
1.8 0.7 0
2.1 0.7 0
2.4 0.7 0
2.7 0.7 0
3 0.7 0
3.3 0.7 0
3.6 0.7 0
3.9 0.7 0
4.2 0.7 0
4.5 0.7 0
4.8 0.7 0
5.1 0.7 0
5.4 0.7 0
5.7 0.7 0
6 0.7 0
6.3 0.7 0
6.6 0.7 0
6.9 0.7 0
7.2 0.7 0
7.5 0.7 0
7.8 0.7 0
8.1 0.7 0
8.4 0.7 0
8.7 0.7 0
9 0.7 0
9.3 0.7 0
9.6 0.7 0
9.9 0.7 0
10.2 0.7 0
10.5 0.7 0
10.8 0.7 0
11.1 0.7 0
11.4 0.7 0
11.7 0.7 0
12 0.7 0
12.3 0.7 0
12.6 0.7 0
12.9 0.7 0
13.2 0.7 0
13.5 0.7 0
13.8 0.7 0
14.1 0.7 0
14.4 0.7 0
14.7 0.7 0
15 0.7 0
15.3 0.7 0
15.6 0.7 0
15.9 0.7 0
16.2 0.7 0
16.5 0.7 0
16.8 0.7 0
17.1 0.7 0
17.4 0.7 0
17.7 0.7 0
18 0.7 0
18.3 0.7 0
18.6 0.7 0
18.9 0.7 0
19.2 0.7 0
19.5 0.7 0
19.8 0.7 0
20.1 0.7 0
20.4 0.7 0
20.7 0.7 0
21 0.7 0
21.3 0.7 0
21.6 0.7 0
21.9 0.7 0
22.2 0.7 0
22.5 0.7 0
22.8 0.7 0
23.1 0.7 0
23.4 0.7 0
23.7 0.7 0
24 0.7 0
24.3 0.7 0
24.6 0.7 0
24.9 0.7 0
25.2 0.7 0
25.5 0.7 0
25.8 0.7 0
26.1 0.7 0
26.4 0.7 0
26.7 0.7 0
27 0.7 0
27.3 0.7 0
27.6 0.7 0
27.9 0.7 0
28.2 0.7 0
28.5 0.7 0
28.8 0.7 0
29.1 0.7 0
29.4 0.7 0
29.7 0.7 0
30 0.7 0
30.3 0.7 0
0 0.8 0
0.3 0.8 0
0.6 0.8 0
0.9 0.8 0
1.2 0.8 0
1.5 0.8 0
1.8 0.8 0
2.1 0.8 0
2.4 0.8 0
2.7 0.8 0
3 0.8 0
3.3 0.8 0
3.6 0.8 0
3.9 0.8 0
4.2 0.8 0
4.5 0.8 0
4.8 0.8 0
5.1 0.8 0
5.4 0.8 0
5.7 0.8 0
6 0.8 0
6.3 0.8 0
6.6 0.8 0
6.9 0.8 0
7.2 0.8 0
7.5 0.8 0
7.8 0.8 0
8.1 0.8 0
8.4 0.8 0
8.7 0.8 0
9 0.8 0
9.3 0.8 0
9.6 0.8 0
9.9 0.8 0
10.2 0.8 0
10.5 0.8 0
10.8 0.8 0
11.1 0.8 0
11.4 0.8 0
11.7 0.8 0
12 0.8 0
12.3 0.8 0
12.6 0.8 0
12.9 0.8 0
13.2 0.8 0
13.5 0.8 0
13.8 0.8 0
14.1 0.8 0
14.4 0.8 0
14.7 0.8 0
15 0.8 0
15.3 0.8 0
15.6 0.8 0
15.9 0.8 0
16.2 0.8 0
16.5 0.8 0
16.8 0.8 0
17.1 0.8 0
17.4 0.8 0
17.7 0.8 0
18 0.8 0
18.3 0.8 0
18.6 0.8 0
18.9 0.8 0
19.2 0.8 0
19.5 0.8 0
19.8 0.8 0
20.1 0.8 0
20.4 0.8 0
20.7 0.8 0
21 0.8 0
21.3 0.8 0
21.6 0.8 0
21.9 0.8 0
22.2 0.8 0
22.5 0.8 0
22.8 0.8 0
23.1 0.8 0
23.4 0.8 0
23.7 0.8 0
24 0.8 0
24.3 0.8 0
24.6 0.8 0
24.9 0.8 0
25.2 0.8 0
25.5 0.8 0
25.8 0.8 0
26.1 0.8 0
26.4 0.8 0
26.7 0.8 0
27 0.8 0
27.3 0.8 0
27.6 0.8 0
27.9 0.8 0
28.2 0.8 0
28.5 0.8 0
28.8 0.8 0
29.1 0.8 0
29.4 0.8 0
29.7 0.8 0
30 0.8 0
30.3 0.8 0
0 0.9 0
0.3 0.9 0
0.6 0.9 0
0.9 0.9 0
1.2 0.9 0
1.5 0.9 0
1.8 0.9 0
2.1 0.9 0
2.4 0.9 0
2.7 0.9 0
3 0.9 0
3.3 0.9 0
3.6 0.9 0
3.9 0.9 0
4.2 0.9 0
4.5 0.9 0
4.8 0.9 0
5.1 0.9 0
5.4 0.9 0
5.7 0.9 0
6 0.9 0
6.3 0.9 0
6.6 0.9 0
6.9 0.9 0
7.2 0.9 0
7.5 0.9 0
7.8 0.9 0
8.1 0.9 0
8.4 0.9 0
8.7 0.9 0
9 0.9 0
9.3 0.9 0
9.6 0.9 0
9.9 0.9 0
10.2 0.9 0
10.5 0.9 0
10.8 0.9 0
11.1 0.9 0
11.4 0.9 0
11.7 0.9 0
12 0.9 0
12.3 0.9 0
12.6 0.9 0
12.9 0.9 0
13.2 0.9 0
13.5 0.9 0
13.8 0.9 0
14.1 0.9 0
14.4 0.9 0
14.7 0.9 0
15 0.9 0
15.3 0.9 0
15.6 0.9 0
15.9 0.9 0
16.2 0.9 0
16.5 0.9 0
16.8 0.9 0
17.1 0.9 0
17.4 0.9 0
17.7 0.9 0
18 0.9 0
18.3 0.9 0
18.6 0.9 0
18.9 0.9 0
19.2 0.9 0
19.5 0.9 0
19.8 0.9 0
20.1 0.9 0
20.4 0.9 0
20.7 0.9 0
21 0.9 0
21.3 0.9 0
21.6 0.9 0
21.9 0.9 0
22.2 0.9 0
22.5 0.9 0
22.8 0.9 0
23.1 0.9 0
23.4 0.9 0
23.7 0.9 0
24 0.9 0
24.3 0.9 0
24.6 0.9 0
24.9 0.9 0
25.2 0.9 0
25.5 0.9 0
25.8 0.9 0
26.1 0.9 0
26.4 0.9 0
26.7 0.9 0
27 0.9 0
27.3 0.9 0
27.6 0.9 0
27.9 0.9 0
28.2 0.9 0
28.5 0.9 0
28.8 0.9 0
29.1 0.9 0
29.4 0.9 0
29.7 0.9 0
30 0.9 0
30.3 0.9 0
0 1 0
0.3 1 0
0.6 1 0
0.9 1 0
1.2 1 0
1.5 1 0
1.8 1 0
2.1 1 0
2.4 1 0
2.7 1 0
3 1 0
3.3 1 0
3.6 1 0
3.9 1 0
4.2 1 0
4.5 1 0
4.8 1 0
5.1 1 0
5.4 1 0
5.7 1 0
6 1 0
6.3 1 0
6.6 1 0
6.9 1 0
7.2 1 0
7.5 1 0
7.8 1 0
8.1 1 0
8.4 1 0
8.7 1 0
9 1 0
9.3 1 0
9.6 1 0
9.9 1 0
10.2 1 0
10.5 1 0
10.8 1 0
11.1 1 0
11.4 1 0
11.7 1 0
12 1 0
12.3 1 0
12.6 1 0
12.9 1 0
13.2 1 0
13.5 1 0
13.8 1 0
14.1 1 0
14.4 1 0
14.7 1 0
15 1 0
15.3 1 0
15.6 1 0
15.9 1 0
16.2 1 0
16.5 1 0
16.8 1 0
17.1 1 0
17.4 1 0
17.7 1 0
18 1 0
18.3 1 0
18.6 1 0
18.9 1 0
19.2 1 0
19.5 1 0
19.8 1 0
20.1 1 0
20.4 1 0
20.7 1 0
21 1 0
21.3 1 0
21.6 1 0
21.9 1 0
22.2 1 0
22.5 1 0
22.8 1 0
23.1 1 0
23.4 1 0
23.7 1 0
24 1 0
24.3 1 0
24.6 1 0
24.9 1 0
25.2 1 0
25.5 1 0
25.8 1 0
26.1 1 0
26.4 1 0
26.7 1 0
27 1 0
27.3 1 0
27.6 1 0
27.9 1 0
28.2 1 0
28.5 1 0
28.8 1 0
29.1 1 0
29.4 1 0
29.7 1 0
30 1 0
30.3 1 0
0 1.1 0
0.3 1.1 0
0.6 1.1 0
0.9 1.1 0
1.2 1.1 0
1.5 1.1 0
1.8 1.1 0
2.1 1.1 0
2.4 1.1 0
2.7 1.1 0
3 1.1 0
3.3 1.1 0
3.6 1.1 0
3.9 1.1 0
4.2 1.1 0
4.5 1.1 0
4.8 1.1 0
5.1 1.1 0
5.4 1.1 0
5.7 1.1 0
6 1.1 0
6.3 1.1 0
6.6 1.1 0
6.9 1.1 0
7.2 1.1 0
7.5 1.1 0
7.8 1.1 0
8.1 1.1 0
8.4 1.1 0
8.7 1.1 0
9 1.1 0
9.3 1.1 0
9.6 1.1 0
9.9 1.1 0
10.2 1.1 0
10.5 1.1 0
10.8 1.1 0
11.1 1.1 0
11.4 1.1 0
11.7 1.1 0
12 1.1 0
12.3 1.1 0
12.6 1.1 0
12.9 1.1 0
13.2 1.1 0
13.5 1.1 0
13.8 1.1 0
14.1 1.1 0
14.4 1.1 0
14.7 1.1 0
15 1.1 0
15.3 1.1 0
15.6 1.1 0
15.9 1.1 0
16.2 1.1 0
16.5 1.1 0
16.8 1.1 0
17.1 1.1 0
17.4 1.1 0
17.7 1.1 0
18 1.1 0
18.3 1.1 0
18.6 1.1 0
18.9 1.1 0
19.2 1.1 0
19.5 1.1 0
19.8 1.1 0
20.1 1.1 0
20.4 1.1 0
20.7 1.1 0
21 1.1 0
21.3 1.1 0
21.6 1.1 0
21.9 1.1 0
22.2 1.1 0
22.5 1.1 0
22.8 1.1 0
23.1 1.1 0
23.4 1.1 0
23.7 1.1 0
24 1.1 0
24.3 1.1 0
24.6 1.1 0
24.9 1.1 0
25.2 1.1 0
25.5 1.1 0
25.8 1.1 0
26.1 1.1 0
26.4 1.1 0
26.7 1.1 0
27 1.1 0
27.3 1.1 0
27.6 1.1 0
27.9 1.1 0
28.2 1.1 0
28.5 1.1 0
28.8 1.1 0
29.1 1.1 0
29.4 1.1 0
29.7 1.1 0
30 1.1 0
30.3 1.1 0

POINT_DATA 1224

SCALARS pressure double
LOOKUP_TABLE pressure
1.32757
1.32757
1.26106
1.21398
1.17103
1.13137
1.09535
1.06297
1.03387
1.00753
0.98342
0.961067
0.940094
0.920213
0.901207
0.882917
0.865226
0.848045
0.831305
0.814955
0.798951
0.783258
0.767847
0.752694
0.737778
0.723083
0.708596
0.694307
0.680211
0.666302
0.652575
0.639027
0.625652
0.612439
0.599379
0.586457
0.573658
0.560966
0.548363
0.535833
0.523363
0.510938
0.498547
0.486182
0.473836
0.461502
0.449177
0.436859
0.424544
0.412232
0.399921
0.387611
0.375302
0.362993
0.350684
0.338376
0.326067
0.313759
0.30145
0.289142
0.276833
0.264525
0.252216
0.239908
0.2276
0.215291
0.202983
0.190674
0.178366
0.166057
0.153749
0.141441
0.129132
0.116824
0.104515
0.0922069
0.0798985
0.06759
0.0552816
0.0429732
0.0306648
0.0183564
0.00604794
-0.00626048
-0.0185689
-0.0308773
-0.0431857
-0.0554941
-0.0678025
-0.0801109
-0.0924194
-0.104728
-0.117036
-0.129345
-0.141653
-0.153961
-0.16627
-0.178578
-0.190886
-0.203195
-0.215489
0.215489
1.32757
1.32757
1.26106
1.21398
1.17103
1.13137
1.09535
1.06297
1.03387
1.00753
0.98342
0.961067
0.940094
0.920213
0.901207
0.882917
0.865226
0.848045
0.831305
0.814955
0.798951
0.783258
0.767847
0.752694
0.737778
0.723083
0.708596
0.694307
0.680211
0.666302
0.652575
0.639027
0.625652
0.612439
0.599379
0.586457
0.573658
0.560966
0.548363
0.535833
0.523363
0.510938
0.498547
0.486182
0.473836
0.461502
0.449177
0.436859
0.424544
0.412232
0.399921
0.387611
0.375302
0.362993
0.350684
0.338376
0.326067
0.313759
0.30145
0.289142
0.276833
0.264525
0.252216
0.239908
0.2276
0.215291
0.202983
0.190674
0.178366
0.166057
0.153749
0.141441
0.129132
0.116824
0.104515
0.0922069
0.0798985
0.06759
0.0552816
0.0429732
0.0306648
0.0183564
0.00604794
-0.00626048
-0.0185689
-0.0308773
-0.0431857
-0.0554941
-0.0678025
-0.0801109
-0.0924194
-0.104728
-0.117036
-0.129345
-0.141653
-0.153961
-0.16627
-0.178578
-0.190886
-0.203195
-0.215489
0.215489
1.30692
1.30692
1.25926
1.2143
1.17175
1.13214
1.09606
1.06356
1.03434
1.0079
0.983706
0.961288
0.940267
0.92035
0.901318
0.883009
0.865304
0.848111
0.831363
0.815006
0.798996
0.783298
0.767884
0.752727
0.737807
0.723109
0.708619
0.694328
0.680228
0.666316
0.652587
0.639036
0.625658
0.612443
0.599381
0.586458
0.573658
0.560965
0.548362
0.535833
0.523362
0.510937
0.498547
0.486182
0.473835
0.461502
0.449177
0.436859
0.424544
0.412232
0.399921
0.387611
0.375302
0.362993
0.350684
0.338376
0.326067
0.313759
0.30145
0.289142
0.276833
0.264525
0.252216
0.239908
0.2276
0.215291
0.202983
0.190674
0.178366
0.166057
0.153749
0.141441
0.129132
0.116824
0.104515
0.0922069
0.0798985
0.06759
0.0552816
0.0429732
0.0306648
0.0183564
0.00604794
-0.00626048
-0.0185689
-0.0308773
-0.0431857
-0.0554941
-0.0678025
-0.0801109
-0.0924194
-0.104728
-0.117036
-0.129345
-0.141653
-0.153961
-0.16627
-0.178578
-0.190886
-0.203195
-0.215489
0.215489
1.29254
1.29254
1.25676
1.21469
1.17288
1.13341
1.09723
1.06455
1.03513
1.00851
0.984162
0.961629
0.940523
0.920544
0.901468
0.883128
0.865399
0.84819
0.831429
0.815062
0.799045
0.783341
0.767921
0.75276
0.737837
0.723135
0.708642
0.694348
0.680246
0.666332
0.6526
0.639047
0.625667
0.61245
0.599386
0.586462
0.573661
0.560967
0.548363
0.535833
0.523362
0.510937
0.498546
0.486182
0.473835
0.461502
0.449177
0.436859
0.424544
0.412231
0.399921
0.387611
0.375302
0.362993
0.350684
0.338376
0.326067
0.313759
0.30145
0.289142
0.276833
0.264525
0.252216
0.239908
0.2276
0.215291
0.202983
0.190674
0.178366
0.166057
0.153749
0.141441
0.129132
0.116824
0.104515
0.0922069
0.0798985
0.06759
0.0552816
0.0429732
0.0306648
0.0183564
0.00604794
-0.00626048
-0.0185689
-0.0308773
-0.0431857
-0.0554941
-0.0678025
-0.0801109
-0.0924194
-0.104728
-0.117036
-0.129345
-0.141653
-0.153961
-0.16627
-0.178578
-0.190885
-0.20319
-0.215486
0.215486
1.28385
1.28385
1.25475
1.21495
1.1738
1.13449
1.09826
1.06545
1.03587
1.00909
0.98461
0.961974
0.940789
0.920752
0.901633
0.883261
0.865508
0.848281
0.831507
0.815129
0.799102
0.783392
0.767966
0.7528
0.737873
0.723168
0.708672
0.694375
0.680271
0.666355
0.652621
0.639066
0.625684
0.612465
0.599399
0.586473
0.57367
0.560974
0.548369
0.535837
0.523365
0.510939
0.498548
0.486183
0.473836
0.461502
0.449177
0.436859
0.424544
0.412232
0.399921
0.387611
0.375302
0.362993
0.350684
0.338376
0.326067
0.313759
0.30145
0.289142
0.276833
0.264525
0.252216
0.239908
0.2276
0.215291
0.202983
0.190674
0.178366
0.166057
0.153749
0.141441
0.129132
0.116824
0.104515
0.0922069
0.0798985
0.06759
0.0552816
0.0429732
0.0306648
0.0183564
0.00604794
-0.00626048
-0.0185689
-0.0308773
-0.0431857
-0.0554941
-0.0678025
-0.0801109
-0.0924194
-0.104728
-0.117036
-0.129345
-0.141653
-0.153961
-0.16627
-0.178577
-0.190883
-0.20318
-0.215481
0.215481
1.27977
1.27977
1.25366
1.21507
1.1743
1.13508
1.09883
1.06595
1.03628
1.00942
0.984874
0.962181
0.940953
0.920883
0.901739
0.883348
0.865582
0.848344
0.83156
0.815176
0.799144
0.783428
0.767998
0.752829
0.737899
0.723192
0.708695
0.694397
0.680291
0.666373
0.652639
0.639083
0.625699
0.612479
0.599412
0.586483
0.573679
0.560981
0.548375
0.535842
0.523369
0.510942
0.49855
0.486184
0.473837
0.461503
0.449178
0.436859
0.424544
0.412232
0.399921
0.387611
0.375302
0.362993
0.350684
0.338376
0.326067
0.313759
0.30145
0.289142
0.276833
0.264525
0.252216
0.239908
0.2276
0.215291
0.202983
0.190674
0.178366
0.166057
0.153749
0.141441
0.129132
0.116824
0.104515
0.0922069
0.0798985
0.06759
0.0552816
0.0429732
0.0306648
0.0183564
0.00604794
-0.00626048
-0.0185689
-0.0308773
-0.0431857
-0.0554941
-0.0678025
-0.0801109
-0.0924194
-0.104728
-0.117036
-0.129345
-0.141653
-0.153961
-0.16627
-0.178577
-0.190882
-0.203172
-0.215478
0.215478
1.27977
1.27977
1.25366
1.21507
1.1743
1.13508
1.09883
1.06595
1.03628
1.00942
0.984874
0.962181
0.940953
0.920883
0.901739
0.883348
0.865582
0.848344
0.83156
0.815176
0.799144
0.783428
0.767998
0.752829
0.737899
0.723192
0.708695
0.694397
0.680291
0.666373
0.652639
0.639083
0.625699
0.612479
0.599412
0.586483
0.573679
0.560981
0.548375
0.535842
0.523369
0.510942
0.49855
0.486184
0.473837
0.461503
0.449178
0.436859
0.424544
0.412232
0.399921
0.387611
0.375302
0.362993
0.350684
0.338376
0.326067
0.313759
0.30145
0.289142
0.276833
0.264525
0.252216
0.239908
0.2276
0.215291
0.202983
0.190674
0.178366
0.166057
0.153749
0.141441
0.129132
0.116824
0.104515
0.0922069
0.0798985
0.06759
0.0552816
0.0429732
0.0306648
0.0183564
0.00604794
-0.00626048
-0.0185689
-0.0308773
-0.0431857
-0.0554941
-0.0678025
-0.0801109
-0.0924194
-0.104728
-0.117036
-0.129345
-0.141653
-0.153961
-0.16627
-0.178577
-0.190882
-0.203172
-0.215478
0.215478
1.28385
1.28385
1.25475
1.21495
1.1738
1.13449
1.09826
1.06545
1.03587
1.00909
0.98461
0.961974
0.940789
0.920752
0.901633
0.883261
0.865508
0.848281
0.831507
0.815129
0.799102
0.783392
0.767966
0.7528
0.737873
0.723168
0.708672
0.694375
0.680271
0.666355
0.652621
0.639066
0.625684
0.612465
0.599399
0.586473
0.57367
0.560974
0.548369
0.535837
0.523365
0.510939
0.498548
0.486183
0.473836
0.461502
0.449177
0.436859
0.424544
0.412232
0.399921
0.387611
0.375302
0.362993
0.350684
0.338376
0.326067
0.313759
0.30145
0.289142
0.276833
0.264525
0.252216
0.239908
0.2276
0.215291
0.202983
0.190674
0.178366
0.166057
0.153749
0.141441
0.129132
0.116824
0.104515
0.0922069
0.0798985
0.06759
0.0552816
0.0429732
0.0306648
0.0183564
0.00604794
-0.00626048
-0.0185689
-0.0308773
-0.0431857
-0.0554941
-0.0678025
-0.0801109
-0.0924194
-0.104728
-0.117036
-0.129345
-0.141653
-0.153961
-0.16627
-0.178577
-0.190883
-0.20318
-0.215481
0.215481
1.29254
1.29254
1.25676
1.21469
1.17288
1.13341
1.09723
1.06455
1.03513
1.00851
0.984162
0.961629
0.940523
0.920544
0.901468
0.883128
0.865399
0.84819
0.831429
0.815062
0.799045
0.783341
0.767921
0.75276
0.737837
0.723135
0.708642
0.694348
0.680246
0.666332
0.6526
0.639047
0.625667
0.61245
0.599386
0.586462
0.573661
0.560967
0.548363
0.535833
0.523362
0.510937
0.498546
0.486182
0.473835
0.461502
0.449177
0.436859
0.424544
0.412231
0.399921
0.387611
0.375302
0.362993
0.350684
0.338376
0.326067
0.313759
0.30145
0.289142
0.276833
0.264525
0.252216
0.239908
0.2276
0.215291
0.202983
0.190674
0.178366
0.166057
0.153749
0.141441
0.129132
0.116824
0.104515
0.0922069
0.0798985
0.06759
0.0552816
0.0429732
0.0306648
0.0183564
0.00604794
-0.00626048
-0.0185689
-0.0308773
-0.0431857
-0.0554941
-0.0678025
-0.0801109
-0.0924194
-0.104728
-0.117036
-0.129345
-0.141653
-0.153961
-0.16627
-0.178578
-0.190885
-0.20319
-0.215486
0.215486
1.30692
1.30692
1.25926
1.2143
1.17175
1.13214
1.09606
1.06356
1.03434
1.0079
0.983706
0.961288
0.940267
0.92035
0.901318
0.883009
0.865304
0.848111
0.831363
0.815006
0.798996
0.783298
0.767884
0.752727
0.737807
0.723109
0.708619
0.694328
0.680228
0.666316
0.652587
0.639036
0.625658
0.612443
0.599381
0.586458
0.573658
0.560965
0.548362
0.535833
0.523362
0.510937
0.498547
0.486182
0.473835
0.461502
0.449177
0.436859
0.424544
0.412232
0.399921
0.387611
0.375302
0.362993
0.350684
0.338376
0.326067
0.313759
0.30145
0.289142
0.276833
0.264525
0.252216
0.239908
0.2276
0.215291
0.202983
0.190674
0.178366
0.166057
0.153749
0.141441
0.129132
0.116824
0.104515
0.0922069
0.0798985
0.06759
0.0552816
0.0429732
0.0306648
0.0183564
0.00604794
-0.00626048
-0.0185689
-0.0308773
-0.0431857
-0.0554941
-0.0678025
-0.0801109
-0.0924194
-0.104728
-0.117036
-0.129345
-0.141653
-0.153961
-0.16627
-0.178578
-0.190886
-0.203195
-0.215489
0.215489
1.32757
1.32757
1.26106
1.21398
1.17103
1.13137
1.09535
1.06297
1.03387
1.00753
0.98342
0.961067
0.940094
0.920213
0.901207
0.882917
0.865226
0.848045
0.831305
0.814955
0.798951
0.783258
0.767847
0.752694
0.737778
0.723083
0.708596
0.694307
0.680211
0.666302
0.652575
0.639027
0.625652
0.612439
0.599379
0.586457
0.573658
0.560966
0.548363
0.535833
0.523363
0.510938
0.498547
0.486182
0.473836
0.461502
0.449177
0.436859
0.424544
0.412232
0.399921
0.387611
0.375302
0.362993
0.350684
0.338376
0.326067
0.313759
0.30145
0.289142
0.276833
0.264525
0.252216
0.239908
0.2276
0.215291
0.202983
0.190674
0.178366
0.166057
0.153749
0.141441
0.129132
0.116824
0.104515
0.0922069
0.0798985
0.06759
0.0552816
0.0429732
0.0306648
0.0183564
0.00604794
-0.00626048
-0.0185689
-0.0308773
-0.0431857
-0.0554941
-0.0678025
-0.0801109
-0.0924194
-0.104728
-0.117036
-0.129345
-0.141653
-0.153961
-0.16627
-0.178578
-0.190886
-0.203195
-0.215489
0.215489
1.32757
1.32757
1.26106
1.21398
1.17103
1.13137
1.09535
1.06297
1.03387
1.00753
0.98342
0.961067
0.940094
0.920213
0.901207
0.882917
0.865226
0.848045
0.831305
0.814955
0.798951
0.783258
0.767847
0.752694
0.737778
0.723083
0.708596
0.694307
0.680211
0.666302
0.652575
0.639027
0.625652
0.612439
0.599379
0.586457
0.573658
0.560966
0.548363
0.535833
0.523363
0.510938
0.498547
0.486182
0.473836
0.461502
0.449177
0.436859
0.424544
0.412232
0.399921
0.387611
0.375302
0.362993
0.350684
0.338376
0.326067
0.313759
0.30145
0.289142
0.276833
0.264525
0.252216
0.239908
0.2276
0.215291
0.202983
0.190674
0.178366
0.166057
0.153749
0.141441
0.129132
0.116824
0.104515
0.0922069
0.0798985
0.06759
0.0552816
0.0429732
0.0306648
0.0183564
0.00604794
-0.00626048
-0.0185689
-0.0308773
-0.0431857
-0.0554941
-0.0678025
-0.0801109
-0.0924194
-0.104728
-0.117036
-0.129345
-0.141653
-0.153961
-0.16627
-0.178578
-0.190886
-0.203195
-0.215489
0.215489
SCALARS phi double
LOOKUP_TABLE phi
1
1
1
0.999995
0.999977
0.999931
0.99983
0.999661
0.999371
0.998876
0.998268
0.997805
0.997271
0.995197
0.988908
0.975533
0.953218
0.921713
0.882158
0.83644
0.786571
0.73431
0.681047
0.627823
0.575413
0.524388
0.475171
0.428068
0.383294
0.340997
0.301274
0.264187
0.229779
0.198075
0.169092
0.142832
0.119279
0.0983951
0.0801128
0.0643301
0.0509097
0.0396809
0.0304444
0.0229807
0.0170593
0.0124496
0.00892924
0.00629286
0.00435697
0.0029633
0.00197967
0.00129906
0.000837309
0.000530133
0.000329728
0.000201483
0.000120971
7.1374e-05
4.13879e-05
2.35911e-05
1.322e-05
7.28449e-06
3.94748e-06
2.10413e-06
1.1034e-06
5.69346e-07
2.89123e-07
1.44521e-07
7.11206e-08
3.44632e-08
1.6447e-08
7.73156e-09
3.58071e-09
1.63406e-09
7.34916e-10
3.25798e-10
1.42388e-10
6.13591e-11
2.60757e-11
1.09298e-11
4.51933e-12
1.84368e-12
7.42179e-13
2.94855e-13
1.15623e-13
4.47591e-14
1.71069e-14
6.45621e-15
2.40632e-15
8.85843e-16
3.22137e-16
1.15733e-16
4.10831e-17
1.44114e-17
4.99617e-18
1.71201e-18
5.79908e-19
1.94204e-19
6.42983e-20
2.10967e-20
6.41292e-21
6.41292e-21
1
1
1
0.999995
0.999977
0.999931
0.99983
0.999661
0.999371
0.998876
0.998268
0.997805
0.997271
0.995197
0.988908
0.975533
0.953218
0.921713
0.882158
0.83644
0.786571
0.73431
0.681047
0.627823
0.575413
0.524388
0.475171
0.428068
0.383294
0.340997
0.301274
0.264187
0.229779
0.198075
0.169092
0.142832
0.119279
0.0983951
0.0801128
0.0643301
0.0509097
0.0396809
0.0304444
0.0229807
0.0170593
0.0124496
0.00892924
0.00629286
0.00435697
0.0029633
0.00197967
0.00129906
0.000837309
0.000530133
0.000329728
0.000201483
0.000120971
7.1374e-05
4.13879e-05
2.35911e-05
1.322e-05
7.28449e-06
3.94748e-06
2.10413e-06
1.1034e-06
5.69346e-07
2.89123e-07
1.44521e-07
7.11206e-08
3.44632e-08
1.6447e-08
7.73156e-09
3.58071e-09
1.63406e-09
7.34916e-10
3.25798e-10
1.42388e-10
6.13591e-11
2.60757e-11
1.09298e-11
4.51933e-12
1.84368e-12
7.42179e-13
2.94855e-13
1.15623e-13
4.47591e-14
1.71069e-14
6.45621e-15
2.40632e-15
8.85843e-16
3.22137e-16
1.15733e-16
4.10831e-17
1.44114e-17
4.99617e-18
1.71201e-18
5.79908e-19
1.94204e-19
6.42983e-20
2.10967e-20
6.41292e-21
6.41292e-21
0.999998
1
0.999984
0.999921
0.999783
0.999536
0.999145
0.99858
0.997815
0.996815
0.995566
0.994123
0.992544
0.990674
0.987941
0.983349
0.975702
0.963929
0.947334
0.925689
0.899186
0.868323
0.833774
0.796288
0.756617
0.715467
0.673465
0.631141
0.588915
0.547095
0.505892
0.465431
0.425786
0.387006
0.349152
0.312321
0.276668
0.242406
0.209805
0.179167
0.150793
0.124952
0.10185
0.081601
0.0642203
0.0496211
0.0376272
0.0279929
0.0204275
0.0146199
0.0102615
0.00706336
0.00476833
0.00315727
0.00205068
0.00130674
0.000817061
0.00050139
0.000302021
0.000178619
0.000103738
5.91789e-05
3.3167e-05
1.82664e-05
9.88793e-06
5.2621e-06
2.75366e-06
1.41727e-06
7.176e-07
3.57512e-07
1.75295e-07
8.46071e-08
4.02061e-08
1.88153e-08
8.67261e-09
3.93813e-09
1.76203e-09
7.76958e-10
3.37693e-10
1.44698e-10
6.11358e-11
2.54736e-11
1.04694e-11
4.24476e-12
1.69808e-12
6.70349e-13
2.61184e-13
1.00452e-13
3.81417e-14
1.42998e-14
5.29429e-15
1.93594e-15
6.99261e-16
2.4952e-16
8.79717e-17
3.06483e-17
1.05523e-17
3.59108e-18
1.20792e-18
4.02649e-19
1.23915e-19
1.23915e-19
1.00001
0.999992
0.99954
0.998615
0.997207
0.995317
0.992954
0.990144
0.986922
0.983332
0.979419
0.975235
0.970845
0.966294
0.961561
0.956513
0.950887
0.94432
0.936407
0.926763
0.915073
0.901122
0.884802
0.866111
0.845137
0.82204
0.797035
0.770364
0.742274
0.712989
0.682683
0.651458
0.619329
0.586229
0.552026
0.516569
0.479739
0.441519
0.402047
0.361655
0.320869
0.280383
0.240995
0.203522
0.168717
0.137191
0.10936
0.085423
0.0653647
0.0489877
0.0359559
0.0258459
0.018196
0.012548
0.00847726
0.00561174
0.00364079
0.00231552
0.00144398
0.000883178
0.000529933
0.000312028
0.000180336
0.00010233
5.70257e-05
3.12175e-05
1.67918e-05
8.8773e-06
4.61376e-06
2.35791e-06
1.18523e-06
5.8611e-07
2.85207e-07
1.36598e-07
6.44052e-08
2.99011e-08
1.3672e-08
6.15806e-09
2.7328e-09
1.19511e-09
5.15143e-10
2.18899e-10
9.1714e-11
3.78947e-11
1.54435e-11
6.2088e-12
2.46285e-12
9.64055e-13
3.7245e-13
1.42037e-13
5.34765e-14
1.988e-14
7.29834e-15
2.64632e-15
9.47831e-16
3.35386e-16
1.17257e-16
4.0511e-17
1.38309e-17
4.6789e-18
1.45848e-18
1.45848e-18
1.00143
0.99857
0.991252
0.98188
0.971566
0.96086
0.950051
0.939311
0.928756
0.918468
0.908503
0.898897
0.88967
0.880831
0.872372
0.864268
0.856458
0.848851
0.841315
0.833695
0.825819
0.817509
0.808597
0.798932
0.788387
0.776866
0.764302
0.750662
0.735942
0.720156
0.703324
0.685448
0.666479
0.646291
0.624654
0.601233
0.575611
0.547354
0.516095
0.481635
0.444039
0.403689
0.361297
0.31785
0.274517
0.232515
0.19298
0.156851
0.124791
0.0971598
0.0740165
0.0551686
0.0402344
0.028714
0.0200564
0.013714
0.0091819
0.00602103
0.00386811
0.00243525
0.0015029
0.000909472
0.000539824
0.000314374
0.000179681
0.00010082
5.55519e-05
3.00668e-05
1.59893e-05
8.35682e-06
4.29376e-06
2.16936e-06
1.07803e-06
5.27035e-07
2.53549e-07
1.2006e-07
5.5969e-08
2.56923e-08
1.1616e-08
5.17366e-09
2.27047e-09
9.81962e-10
4.18617e-10
1.75939e-10
7.29142e-11
2.98016e-11
1.20149e-11
4.77887e-12
1.87554e-12
7.26427e-13
2.77708e-13
1.04805e-13
3.90513e-14
1.43685e-14
5.22119e-15
1.874e-15
6.64458e-16
2.32768e-16
8.05656e-17
2.76266e-17
8.71802e-18
8.71802e-18
1.0456
0.954401
0.887723
0.838674
0.801641
0.772861
0.749886
0.731119
0.715499
0.702298
0.691001
0.681228
0.672693
0.665173
0.658495
0.652518
0.647126
0.64222
0.637706
0.633495
0.629496
0.625619
0.621771
0.617857
0.613785
0.609464
0.604808
0.599742
0.594201
0.588137
0.581512
0.574289
0.566409
0.557757
0.548126
0.537178
0.524439
0.50932
0.491182
0.469447
0.443715
0.413888
0.380244
0.343457
0.304544
0.264764
0.22546
0.187919
0.153227
0.122187
0.0952723
0.0726335
0.0541451
0.039472
0.0281455
0.0196345
0.0134041
0.00895755
0.00586145
0.00375684
0.0023593
0.0014522
0.000876379
0.000518705
0.000301196
0.000171638
9.60169e-05
5.27447e-05
2.84601e-05
1.50883e-05
7.86169e-06
4.02695e-06
2.02833e-06
1.00487e-06
4.8978e-07
2.34918e-07
1.10906e-07
5.15487e-08
2.35939e-08
1.06364e-08
4.72382e-09
2.0672e-09
8.91555e-10
3.7903e-10
1.58869e-10
6.56634e-11
2.67672e-11
1.07635e-11
4.27015e-12
1.67165e-12
6.45848e-13
2.46299e-13