# vtk DataFile Version 3.0
FlowField
ASCII
DATASET STRUCTURED_GRID
DIMENSIONS 102 12 1 
POINTS 1224 double
0 0 0
0.3 0 0
0.6 0 0
0.9 0 0
1.2 0 0
1.5 0 0
1.8 0 0
2.1 0 0
2.4 0 0
2.7 0 0
3 0 0
3.3 0 0
3.6 0 0
3.9 0 0
4.2 0 0
4.5 0 0
4.8 0 0
5.1 0 0
5.4 0 0
5.7 0 0
6 0 0
6.3 0 0
6.6 0 0
6.9 0 0
7.2 0 0
7.5 0 0
7.8 0 0
8.1 0 0
8.4 0 0
8.7 0 0
9 0 0
9.3 0 0
9.6 0 0
9.9 0 0
10.2 0 0
10.5 0 0
10.8 0 0
11.1 0 0
11.4 0 0
11.7 0 0
12 0 0
12.3 0 0
12.6 0 0
12.9 0 0
13.2 0 0
13.5 0 0
13.8 0 0
14.1 0 0
14.4 0 0
14.7 0 0
15 0 0
15.3 0 0
15.6 0 0
15.9 0 0
16.2 0 0
16.5 0 0
16.8 0 0
17.1 0 0
17.4 0 0
17.7 0 0
18 0 0
18.3 0 0
18.6 0 0
18.9 0 0
19.2 0 0
19.5 0 0
19.8 0 0
20.1 0 0
20.4 0 0
20.7 0 0
21 0 0
21.3 0 0
21.6 0 0
21.9 0 0
22.2 0 0
22.5 0 0
22.8 0 0
23.1 0 0
23.4 0 0
23.7 0 0
24 0 0
24.3 0 0
24.6 0 0
24.9 0 0
25.2 0 0
25.5 0 0
25.8 0 0
26.1 0 0
26.4 0 0
26.7 0 0
27 0 0
27.3 0 0
27.6 0 0
27.9 0 0
28.2 0 0
28.5 0 0
28.8 0 0
29.1 0 0
29.4 0 0
29.7 0 0
30 0 0
30.3 0 0
0 0.1 0
0.3 0.1 0
0.6 0.1 0
0.9 0.1 0
1.2 0.1 0
1.5 0.1 0
1.8 0.1 0
2.1 0.1 0
2.4 0.1 0
2.7 0.1 0
3 0.1 0
3.3 0.1 0
3.6 0.1 0
3.9 0.1 0
4.2 0.1 0
4.5 0.1 0
4.8 0.1 0
5.1 0.1 0
5.4 0.1 0
5.7 0.1 0
6 0.1 0
6.3 0.1 0
6.6 0.1 0
6.9 0.1 0
7.2 0.1 0
7.5 0.1 0
7.8 0.1 0
8.1 0.1 0
8.4 0.1 0
8.7 0.1 0
9 0.1 0
9.3 0.1 0
9.6 0.1 0
9.9 0.1 0
10.2 0.1 0
10.5 0.1 0
10.8 0.1 0
11.1 0.1 0
11.4 0.1 0
11.7 0.1 0
12 0.1 0
12.3 0.1 0
12.6 0.1 0
12.9 0.1 0
13.2 0.1 0
13.5 0.1 0
13.8 0.1 0
14.1 0.1 0
14.4 0.1 0
14.7 0.1 0
15 0.1 0
15.3 0.1 0
15.6 0.1 0
15.9 0.1 0
16.2 0.1 0
16.5 0.1 0
16.8 0.1 0
17.1 0.1 0
17.4 0.1 0
17.7 0.1 0
18 0.1 0
18.3 0.1 0
18.6 0.1 0
18.9 0.1 0
19.2 0.1 0
19.5 0.1 0
19.8 0.1 0
20.1 0.1 0
20.4 0.1 0
20.7 0.1 0
21 0.1 0
21.3 0.1 0
21.6 0.1 0
21.9 0.1 0
22.2 0.1 0
22.5 0.1 0
22.8 0.1 0
23.1 0.1 0
23.4 0.1 0
23.7 0.1 0
24 0.1 0
24.3 0.1 0
24.6 0.1 0
24.9 0.1 0
25.2 0.1 0
25.5 0.1 0
25.8 0.1 0
26.1 0.1 0
26.4 0.1 0
26.7 0.1 0
27 0.1 0
27.3 0.1 0
27.6 0.1 0
27.9 0.1 0
28.2 0.1 0
28.5 0.1 0
28.8 0.1 0
29.1 0.1 0
29.4 0.1 0
29.7 0.1 0
30 0.1 0
30.3 0.1 0
0 0.2 0
0.3 0.2 0
0.6 0.2 0
0.9 0.2 0
1.2 0.2 0
1.5 0.2 0
1.8 0.2 0
2.1 0.2 0
2.4 0.2 0
2.7 0.2 0
3 0.2 0
3.3 0.2 0
3.6 0.2 0
3.9 0.2 0
4.2 0.2 0
4.5 0.2 0
4.8 0.2 0
5.1 0.2 0
5.4 0.2 0
5.7 0.2 0
6 0.2 0
6.3 0.2 0
6.6 0.2 0
6.9 0.2 0
7.2 0.2 0
7.5 0.2 0
7.8 0.2 0
8.1 0.2 0
8.4 0.2 0
8.7 0.2 0
9 0.2 0
9.3 0.2 0
9.6 0.2 0
9.9 0.2 0
10.2 0.2 0
10.5 0.2 0
10.8 0.2 0
11.1 0.2 0
11.4 0.2 0
11.7 0.2 0
12 0.2 0
12.3 0.2 0
12.6 0.2 0
12.9 0.2 0
13.2 0.2 0
13.5 0.2 0
13.8 0.2 0
14.1 0.2 0
14.4 0.2 0
14.7 0.2 0
15 0.2 0
15.3 0.2 0
15.6 0.2 0
15.9 0.2 0
16.2 0.2 0
16.5 0.2 0
16.8 0.2 0
17.1 0.2 0
17.4 0.2 0
17.7 0.2 0
18 0.2 0
18.3 0.2 0
18.6 0.2 0
18.9 0.2 0
19.2 0.2 0
19.5 0.2 0
19.8 0.2 0
20.1 0.2 0
20.4 0.2 0
20.7 0.2 0
21 0.2 0
21.3 0.2 0
21.6 0.2 0
21.9 0.2 0
22.2 0.2 0
22.5 0.2 0
22.8 0.2 0
23.1 0.2 0
23.4 0.2 0
23.7 0.2 0
24 0.2 0
24.3 0.2 0
24.6 0.2 0
24.9 0.2 0
25.2 0.2 0
25.5 0.2 0
25.8 0.2 0
26.1 0.2 0
26.4 0.2 0
26.7 0.2 0
27 0.2 0
27.3 0.2 0
27.6 0.2 0
27.9 0.2 0
28.2 0.2 0
28.5 0.2 0
28.8 0.2 0
29.1 0.2 0
29.4 0.2 0
29.7 0.2 0
30 0.2 0
30.3 0.2 0
0 0.3 0
0.3 0.3 0
0.6 0.3 0
0.9 0.3 0
1.2 0.3 0
1.5 0.3 0
1.8 0.3 0
2.1 0.3 0
2.4 0.3 0
2.7 0.3 0
3 0.3 0
3.3 0.3 0
3.6 0.3 0
3.9 0.3 0
4.2 0.3 0
4.5 0.3 0
4.8 0.3 0
5.1 0.3 0
5.4 0.3 0
5.7 0.3 0
6 0.3 0
6.3 0.3 0
6.6 0.3 0
6.9 0.3 0
7.2 0.3 0
7.5 0.3 0
7.8 0.3 0
8.1 0.3 0
8.4 0.3 0
8.7 0.3 0
9 0.3 0
9.3 0.3 0
9.6 0.3 0
9.9 0.3 0
10.2 0.3 0
10.5 0.3 0
10.8 0.3 0
11.1 0.3 0
11.4 0.3 0
11.7 0.3 0
12 0.3 0
12.3 0.3 0
12.6 0.3 0
12.9 0.3 0
13.2 0.3 0
13.5 0.3 0
13.8 0.3 0
14.1 0.3 0
14.4 0.3 0
14.7 0.3 0
15 0.3 0
15.3 0.3 0
15.6 0.3 0
15.9 0.3 0
16.2 0.3 0
16.5 0.3 0
16.8 0.3 0
17.1 0.3 0
17.4 0.3 0
17.7 0.3 0
18 0.3 0
18.3 0.3 0
18.6 0.3 0
18.9 0.3 0
19.2 0.3 0
19.5 0.3 0
19.8 0.3 0
20.1 0.3 0
20.4 0.3 0
20.7 0.3 0
21 0.3 0
21.3 0.3 0
21.6 0.3 0
21.9 0.3 0
22.2 0.3 0
22.5 0.3 0
22.8 0.3 0
23.1 0.3 0
23.4 0.3 0
23.7 0.3 0
24 0.3 0
24.3 0.3 0
24.6 0.3 0
24.9 0.3 0
25.2 0.3 0
25.5 0.3 0
25.8 0.3 0
26.1 0.3 0
26.4 0.3 0
26.7 0.3 0
27 0.3 0
27.3 0.3 0
27.6 0.3 0
27.9 0.3 0
28.2 0.3 0
28.5 0.3 0
28.8 0.3 0
29.1 0.3 0
29.4 0.3 0
29.7 0.3 0
30 0.3 0
30.3 0.3 0
0 0.4 0
0.3 0.4 0
0.6 0.4 0
0.9 0.4 0
1.2 0.4 0
1.5 0.4 0
1.8 0.4 0
2.1 0.4 0
2.4 0.4 0
2.7 0.4 0
3 0.4 0
3.3 0.4 0
3.6 0.4 0
3.9 0.4 0
4.2 0.4 0
4.5 0.4 0
4.8 0.4 0
5.1 0.4 0
5.4 0.4 0
5.7 0.4 0
6 0.4 0
6.3 0.4 0
6.6 0.4 0
6.9 0.4 0
7.2 0.4 0
7.5 0.4 0
7.8 0.4 0
8.1 0.4 0
8.4 0.4 0
8.7 0.4 0
9 0.4 0
9.3 0.4 0
9.6 0.4 0
9.9 0.4 0
10.2 0.4 0
10.5 0.4 0
10.8 0.4 0
11.1 0.4 0
11.4 0.4 0
11.7 0.4 0
12 0.4 0
12.3 0.4 0
12.6 0.4 0
12.9 0.4 0
13.2 0.4 0
13.5 0.4 0
13.8 0.4 0
14.1 0.4 0
14.4 0.4 0
14.7 0.4 0
15 0.4 0
15.3 0.4 0
15.6 0.4 0
15.9 0.4 0
16.2 0.4 0
16.5 0.4 0
16.8 0.4 0
17.1 0.4 0
17.4 0.4 0
17.7 0.4 0
18 0.4 0
18.3 0.4 0
18.6 0.4 0
18.9 0.4 0
19.2 0.4 0
19.5 0.4 0
19.8 0.4 0
20.1 0.4 0
20.4 0.4 0
20.7 0.4 0
21 0.4 0
21.3 0.4 0
21.6 0.4 0
21.9 0.4 0
22.2 0.4 0
22.5 0.4 0
22.8 0.4 0
23.1 0.4 0
23.4 0.4 0
23.7 0.4 0
24 0.4 0
24.3 0.4 0
24.6 0.4 0
24.9 0.4 0
25.2 0.4 0
25.5 0.4 0
25.8 0.4 0
26.1 0.4 0
26.4 0.4 0
26.7 0.4 0
27 0.4 0
27.3 0.4 0
27.6 0.4 0
27.9 0.4 0
28.2 0.4 0
28.5 0.4 0
28.8 0.4 0
29.1 0.4 0
29.4 0.4 0
29.7 0.4 0
30 0.4 0
30.3 0.4 0
0 0.5 0
0.3 0.5 0
0.6 0.5 0
0.9 0.5 0
1.2 0.5 0
1.5 0.5 0
1.8 0.5 0
2.1 0.5 0
2.4 0.5 0
2.7 0.5 0
3 0.5 0
3.3 0.5 0
3.6 0.5 0
3.9 0.5 0
4.2 0.5 0
4.5 0.5 0
4.8 0.5 0
5.1 0.5 0
5.4 0.5 0
5.7 0.5 0
6 0.5 0
6.3 0.5 0
6.6 0.5 0
6.9 0.5 0
7.2 0.5 0
7.5 0.5 0
7.8 0.5 0
8.1 0.5 0
8.4 0.5 0
8.7 0.5 0
9 0.5 0
9.3 0.5 0
9.6 0.5 0
9.9 0.5 0
10.2 0.5 0
10.5 0.5 0
10.8 0.5 0
11.1 0.5 0
11.4 0.5 0
11.7 0.5 0
12 0.5 0
12.3 0.5 0
12.6 0.5 0
12.9 0.5 0
13.2 0.5 0
13.5 0.5 0
13.8 0.5 0
14.1 0.5 0
14.4 0.5 0
14.7 0.5 0
15 0.5 0
15.3 0.5 0
15.6 0.5 0
15.9 0.5 0
16.2 0.5 0
16.5 0.5 0
16.8 0.5 0
17.1 0.5 0
17.4 0.5 0
17.7 0.5 0
18 0.5 0
18.3 0.5 0
18.6 0.5 0
18.9 0.5 0
19.2 0.5 0
19.5 0.5 0
19.8 0.5 0
20.1 0.5 0
20.4 0.5 0
20.7 0.5 0
21 0.5 0
21.3 0.5 0
21.6 0.5 0
21.9 0.5 0
22.2 0.5 0
22.5 0.5 0
22.8 0.5 0
23.1 0.5 0
23.4 0.5 0
23.7 0.5 0
24 0.5 0
24.3 0.5 0
24.6 0.5 0
24.9 0.5 0
25.2 0.5 0
25.5 0.5 0
25.8 0.5 0
26.1 0.5 0
26.4 0.5 0
26.7 0.5 0
27 0.5 0
27.3 0.5 0
27.6 0.5 0
27.9 0.5 0
28.2 0.5 0
28.5 0.5 0
28.8 0.5 0
29.1 0.5 0
29.4 0.5 0
29.7 0.5 0
30 0.5 0
30.3 0.5 0
0 0.6 0
0.3 0.6 0
0.6 0.6 0
0.9 0.6 0
1.2 0.6 0
1.5 0.6 0
1.8 0.6 0
2.1 0.6 0
2.4 0.6 0
2.7 0.6 0
3 0.6 0
3.3 0.6 0
3.6 0.6 0
3.9 0.6 0
4.2 0.6 0
4.5 0.6 0
4.8 0.6 0
5.1 0.6 0
5.4 0.6 0
5.7 0.6 0
6 0.6 0
6.3 0.6 0
6.6 0.6 0
6.9 0.6 0
7.2 0.6 0
7.5 0.6 0
7.8 0.6 0
8.1 0.6 0
8.4 0.6 0
8.7 0.6 0
9 0.6 0
9.3 0.6 0
9.6 0.6 0
9.9 0.6 0
10.2 0.6 0
10.5 0.6 0
10.8 0.6 0
11.1 0.6 0
11.4 0.6 0
11.7 0.6 0
12 0.6 0
12.3 0.6 0
12.6 0.6 0
12.9 0.6 0
13.2 0.6 0
13.5 0.6 0
13.8 0.6 0
14.1 0.6 0
14.4 0.6 0
14.7 0.6 0
15 0.6 0
15.3 0.6 0
15.6 0.6 0
15.9 0.6 0
16.2 0.6 0
16.5 0.6 0
16.8 0.6 0
17.1 0.6 0
17.4 0.6 0
17.7 0.6 0
18 0.6 0
18.3 0.6 0
18.6 0.6 0
18.9 0.6 0
19.2 0.6 0
19.5 0.6 0
19.8 0.6 0
20.1 0.6 0
20.4 0.6 0
20.7 0.6 0
21 0.6 0
21.3 0.6 0
21.6 0.6 0
21.9 0.6 0
22.2 0.6 0
22.5 0.6 0
22.8 0.6 0
23.1 0.6 0
23.4 0.6 0
23.7 0.6 0
24 0.6 0
24.3 0.6 0
24.6 0.6 0
24.9 0.6 0
25.2 0.6 0
25.5 0.6 0
25.8 0.6 0
26.1 0.6 0
26.4 0.6 0
26.7 0.6 0
27 0.6 0
27.3 0.6 0
27.6 0.6 0
27.9 0.6 0
28.2 0.6 0
28.5 0.6 0
28.8 0.6 0
29.1 0.6 0
29.4 0.6 0
29.7 0.6 0
30 0.6 0
30.3 0.6 0
0 0.7 0
0.3 0.7 0
0.6 0.7 0
0.9 0.7 0
1.2 0.7 0
1.5 0.7 0
1.8 0.7 0
2.1 0.7 0
2.4 0.7 0
2.7 0.7 0
3 0.7 0
3.3 0.7 0
3.6 0.7 0
3.9 0.7 0
4.2 0.7 0
4.5 0.7 0
4.8 0.7 0
5.1 0.7 0
5.4 0.7 0
5.7 0.7 0
6 0.7 0
6.3 0.7 0
6.6 0.7 0
6.9 0.7 0
7.2 0.7 0
7.5 0.7 0
7.8 0.7 0
8.1 0.7 0
8.4 0.7 0
8.7 0.7 0
9 0.7 0
9.3 0.7 0
9.6 0.7 0
9.9 0.7 0
10.2 0.7 0
10.5 0.7 0
10.8 0.7 0
11.1 0.7 0
11.4 0.7 0
11.7 0.7 0
12 0.7 0
12.3 0.7 0
12.6 0.7 0
12.9 0.7 0
13.2 0.7 0
13.5 0.7 0
13.8 0.7 0
14.1 0.7 0
14.4 0.7 0
14.7 0.7 0
15 0.7 0
15.3 0.7 0
15.6 0.7 0
15.9 0.7 0
16.2 0.7 0
16.5 0.7 0
16.8 0.7 0
17.1 0.7 0
17.4 0.7 0
17.7 0.7 0
18 0.7 0
18.3 0.7 0
18.6 0.7 0
18.9 0.7 0
19.2 0.7 0
19.5 0.7 0
19.8 0.7 0
20.1 0.7 0
20.4 0.7 0
20.7 0.7 0
21 0.7 0
21.3 0.7 0
21.6 0.7 0
21.9 0.7 0
22.2 0.7 0
22.5 0.7 0
22.8 0.7 0
23.1 0.7 0
23.4 0.7 0
23.7 0.7 0
24 0.7 0
24.3 0.7 0
24.6 0.7 0
24.9 0.7 0
25.2 0.7 0
25.5 0.7 0
25.8 0.7 0
26.1 0.7 0
26.4 0.7 0
26.7 0.7 0
27 0.7 0
27.3 0.7 0
27.6 0.7 0
27.9 0.7 0
28.2 0.7 0
28.5 0.7 0
28.8 0.7 0
29.1 0.7 0
29.4 0.7 0
29.7 0.7 0
30 0.7 0
30.3 0.7 0
0 0.8 0
0.3 0.8 0
0.6 0.8 0
0.9 0.8 0
1.2 0.8 0
1.5 0.8 0
1.8 0.8 0
2.1 0.8 0
2.4 0.8 0
2.7 0.8 0
3 0.8 0
3.3 0.8 0
3.6 0.8 0
3.9 0.8 0
4.2 0.8 0
4.5 0.8 0
4.8 0.8 0
5.1 0.8 0
5.4 0.8 0
5.7 0.8 0
6 0.8 0
6.3 0.8 0
6.6 0.8 0
6.9 0.8 0
7.2 0.8 0
7.5 0.8 0
7.8 0.8 0
8.1 0.8 0
8.4 0.8 0
8.7 0.8 0
9 0.8 0
9.3 0.8 0
9.6 0.8 0
9.9 0.8 0
10.2 0.8 0
10.5 0.8 0
10.8 0.8 0
11.1 0.8 0
11.4 0.8 0
11.7 0.8 0
12 0.8 0
12.3 0.8 0
12.6 0.8 0
12.9 0.8 0
13.2 0.8 0
13.5 0.8 0
13.8 0.8 0
14.1 0.8 0
14.4 0.8 0
14.7 0.8 0
15 0.8 0
15.3 0.8 0
15.6 0.8 0
15.9 0.8 0
16.2 0.8 0
16.5 0.8 0
16.8 0.8 0
17.1 0.8 0
17.4 0.8 0
17.7 0.8 0
18 0.8 0
18.3 0.8 0
18.6 0.8 0
18.9 0.8 0
19.2 0.8 0
19.5 0.8 0
19.8 0.8 0
20.1 0.8 0
20.4 0.8 0
20.7 0.8 0
21 0.8 0
21.3 0.8 0
21.6 0.8 0
21.9 0.8 0
22.2 0.8 0
22.5 0.8 0
22.8 0.8 0
23.1 0.8 0
23.4 0.8 0
23.7 0.8 0
24 0.8 0
24.3 0.8 0
24.6 0.8 0
24.9 0.8 0
25.2 0.8 0
25.5 0.8 0
25.8 0.8 0
26.1 0.8 0
26.4 0.8 0
26.7 0.8 0
27 0.8 0
27.3 0.8 0
27.6 0.8 0
27.9 0.8 0
28.2 0.8 0
28.5 0.8 0
28.8 0.8 0
29.1 0.8 0
29.4 0.8 0
29.7 0.8 0
30 0.8 0
30.3 0.8 0
0 0.9 0
0.3 0.9 0
0.6 0.9 0
0.9 0.9 0
1.2 0.9 0
1.5 0.9 0
1.8 0.9 0
2.1 0.9 0
2.4 0.9 0
2.7 0.9 0
3 0.9 0
3.3 0.9 0
3.6 0.9 0
3.9 0.9 0
4.2 0.9 0
4.5 0.9 0
4.8 0.9 0
5.1 0.9 0
5.4 0.9 0
5.7 0.9 0
6 0.9 0
6.3 0.9 0
6.6 0.9 0
6.9 0.9 0
7.2 0.9 0
7.5 0.9 0
7.8 0.9 0
8.1 0.9 0
8.4 0.9 0
8.7 0.9 0
9 0.9 0
9.3 0.9 0
9.6 0.9 0
9.9 0.9 0
10.2 0.9 0
10.5 0.9 0
10.8 0.9 0
11.1 0.9 0
11.4 0.9 0
11.7 0.9 0
12 0.9 0
12.3 0.9 0
12.6 0.9 0
12.9 0.9 0
13.2 0.9 0
13.5 0.9 0
13.8 0.9 0
14.1 0.9 0
14.4 0.9 0
14.7 0.9 0
15 0.9 0
15.3 0.9 0
15.6 0.9 0
15.9 0.9 0
16.2 0.9 0
16.5 0.9 0
16.8 0.9 0
17.1 0.9 0
17.4 0.9 0
17.7 0.9 0
18 0.9 0
18.3 0.9 0
18.6 0.9 0
18.9 0.9 0
19.2 0.9 0
19.5 0.9 0
19.8 0.9 0
20.1 0.9 0
20.4 0.9 0
20.7 0.9 0
21 0.9 0
21.3 0.9 0
21.6 0.9 0
21.9 0.9 0
22.2 0.9 0
22.5 0.9 0
22.8 0.9 0
23.1 0.9 0
23.4 0.9 0
23.7 0.9 0
24 0.9 0
24.3 0.9 0
24.6 0.9 0
24.9 0.9 0
25.2 0.9 0
25.5 0.9 0
25.8 0.9 0
26.1 0.9 0
26.4 0.9 0
26.7 0.9 0
27 0.9 0
27.3 0.9 0
27.6 0.9 0
27.9 0.9 0
28.2 0.9 0
28.5 0.9 0
28.8 0.9 0
29.1 0.9 0
29.4 0.9 0
29.7 0.9 0
30 0.9 0
30.3 0.9 0
0 1 0
0.3 1 0
0.6 1 0
0.9 1 0
1.2 1 0
1.5 1 0
1.8 1 0
2.1 1 0
2.4 1 0
2.7 1 0
3 1 0
3.3 1 0
3.6 1 0
3.9 1 0
4.2 1 0
4.5 1 0
4.8 1 0
5.1 1 0
5.4 1 0
5.7 1 0
6 1 0
6.3 1 0
6.6 1 0
6.9 1 0
7.2 1 0
7.5 1 0
7.8 1 0
8.1 1 0
8.4 1 0
8.7 1 0
9 1 0
9.3 1 0
9.6 1 0
9.9 1 0
10.2 1 0
10.5 1 0
10.8 1 0
11.1 1 0
11.4 1 0
11.7 1 0
12 1 0
12.3 1 0
12.6 1 0
12.9 1 0
13.2 1 0
13.5 1 0
13.8 1 0
14.1 1 0
14.4 1 0
14.7 1 0
15 1 0
15.3 1 0
15.6 1 0
15.9 1 0
16.2 1 0
16.5 1 0
16.8 1 0
17.1 1 0
17.4 1 0
17.7 1 0
18 1 0
18.3 1 0
18.6 1 0
18.9 1 0
19.2 1 0
19.5 1 0
19.8 1 0
20.1 1 0
20.4 1 0
20.7 1 0
21 1 0
21.3 1 0
21.6 1 0
21.9 1 0
22.2 1 0
22.5 1 0
22.8 1 0
23.1 1 0
23.4 1 0
23.7 1 0
24 1 0
24.3 1 0
24.6 1 0
24.9 1 0
25.2 1 0
25.5 1 0
25.8 1 0
26.1 1 0
26.4 1 0
26.7 1 0
27 1 0
27.3 1 0
27.6 1 0
27.9 1 0
28.2 1 0
28.5 1 0
28.8 1 0
29.1 1 0
29.4 1 0
29.7 1 0
30 1 0
30.3 1 0
0 1.1 0
0.3 1.1 0
0.6 1.1 0
0.9 1.1 0
1.2 1.1 0
1.5 1.1 0
1.8 1.1 0
2.1 1.1 0
2.4 1.1 0
2.7 1.1 0
3 1.1 0
3.3 1.1 0
3.6 1.1 0
3.9 1.1 0
4.2 1.1 0
4.5 1.1 0
4.8 1.1 0
5.1 1.1 0
5.4 1.1 0
5.7 1.1 0
6 1.1 0
6.3 1.1 0
6.6 1.1 0
6.9 1.1 0
7.2 1.1 0
7.5 1.1 0
7.8 1.1 0
8.1 1.1 0
8.4 1.1 0
8.7 1.1 0
9 1.1 0
9.3 1.1 0
9.6 1.1 0
9.9 1.1 0
10.2 1.1 0
10.5 1.1 0
10.8 1.1 0
11.1 1.1 0
11.4 1.1 0
11.7 1.1 0
12 1.1 0
12.3 1.1 0
12.6 1.1 0
12.9 1.1 0
13.2 1.1 0
13.5 1.1 0
13.8 1.1 0
14.1 1.1 0
14.4 1.1 0
14.7 1.1 0
15 1.1 0
15.3 1.1 0
15.6 1.1 0
15.9 1.1 0
16.2 1.1 0
16.5 1.1 0
16.8 1.1 0
17.1 1.1 0
17.4 1.1 0
17.7 1.1 0
18 1.1 0
18.3 1.1 0
18.6 1.1 0
18.9 1.1 0
19.2 1.1 0
19.5 1.1 0
19.8 1.1 0
20.1 1.1 0
20.4 1.1 0
20.7 1.1 0
21 1.1 0
21.3 1.1 0
21.6 1.1 0
21.9 1.1 0
22.2 1.1 0
22.5 1.1 0
22.8 1.1 0
23.1 1.1 0
23.4 1.1 0
23.7 1.1 0
24 1.1 0
24.3 1.1 0
24.6 1.1 0
24.9 1.1 0
25.2 1.1 0
25.5 1.1 0
25.8 1.1 0
26.1 1.1 0
26.4 1.1 0
26.7 1.1 0
27 1.1 0
27.3 1.1 0
27.6 1.1 0
27.9 1.1 0
28.2 1.1 0
28.5 1.1 0
28.8 1.1 0
29.1 1.1 0
29.4 1.1 0
29.7 1.1 0
30 1.1 0
30.3 1.1 0

POINT_DATA 1224

SCALARS pressure double
LOOKUP_TABLE pressure
1.31574
1.31574
1.24923
1.20215
1.1592
1.11954
1.08352
1.05114
1.02203
0.995697
0.971587
0.949234
0.928261
0.908379
0.889373
0.871084
0.853394
0.836211
0.819472
0.803122
0.787119
0.771427
0.756017
0.740865
0.725948
0.711246
0.696744
0.682426
0.668278
0.654287
0.640442
0.626733
0.61315
0.599685
0.586329
0.573075
0.559917
0.546847
0.533859
0.52095
0.508114
0.495344
0.482638
0.469991
0.457401
0.444862
0.432371
0.419926
0.407524
0.395161
0.382836
0.370547
0.358289
0.346063
0.333866
0.321696
0.309551
0.297429
0.28533
0.273253
0.261194
0.249154
0.237131
0.225124
0.213133
0.201155
0.189191
0.177239
0.165299
0.15337
0.141451
0.129542
0.117642
0.10575
0.0938665
0.0819902
0.0701208
0.058258
0.0464013
0.0345503
0.0227048
0.0108642
-0.000971543
-0.0128029
-0.0246301
-0.0364534
-0.048273
-0.0600892
-0.0719021
-0.0837119
-0.0955189
-0.107323
-0.119125
-0.130924
-0.142721
-0.154516
-0.166308
-0.178099
-0.189888
-0.201675
-0.213461
0.213461
1.31574
1.31574
1.24923
1.20215
1.1592
1.11954
1.08352
1.05114
1.02203
0.995697
0.971587
0.949234
0.928261
0.908379
0.889373
0.871084
0.853394
0.836211
0.819472
0.803122
0.787119
0.771427
0.756017
0.740865
0.725948
0.711246
0.696744
0.682426
0.668278
0.654287
0.640442
0.626733
0.61315
0.599685
0.586329
0.573075
0.559917
0.546847
0.533859
0.52095
0.508114
0.495344
0.482638
0.469991
0.457401
0.444862
0.432371
0.419926
0.407524
0.395161
0.382836
0.370547
0.358289
0.346063
0.333866
0.321696
0.309551
0.297429
0.28533
0.273253
0.261194
0.249154
0.237131
0.225124
0.213133
0.201155
0.189191
0.177239
0.165299
0.15337
0.141451
0.129542
0.117642
0.10575
0.0938665
0.0819902
0.0701208
0.058258
0.0464013
0.0345503
0.0227048
0.0108642
-0.000971543
-0.0128029
-0.0246301
-0.0364534
-0.048273
-0.0600892
-0.0719021
-0.0837119
-0.0955189
-0.107323
-0.119125
-0.130924
-0.142721
-0.154516
-0.166308
-0.178099
-0.189888
-0.201675
-0.213461
0.213461
1.29509
1.29509
1.24743
1.20246
1.15992
1.12031
1.08422
1.05173
1.02251
0.996067
0.971872
0.949455
0.928434
0.908517
0.889484
0.871176
0.853471
0.836278
0.81953
0.803173
0.787164
0.771467
0.756053
0.740898
0.725977
0.711273
0.696769
0.682449
0.668299
0.654306
0.640459
0.626749
0.613166
0.599699
0.586342
0.573087
0.559928
0.546857
0.533869
0.520959
0.508122
0.495352
0.482645
0.469998
0.457407
0.444867
0.432376
0.419931
0.407528
0.395166
0.382841
0.37055
0.358293
0.346067
0.333869
0.321699
0.309553
0.297432
0.285333
0.273255
0.261196
0.249156
0.237133
0.225126
0.213134
0.201157
0.189193
0.177241
0.165301
0.153371
0.141452
0.129543
0.117643
0.105751
0.0938674
0.081991
0.0701216
0.0582587
0.046402
0.034551
0.0227054
0.0108648
-0.000971029
-0.0128024
-0.0246296
-0.0364529
-0.0482726
-0.0600888
-0.0719017
-0.0837116
-0.0955186
-0.107323
-0.119125
-0.130924
-0.142721
-0.154516
-0.166308
-0.178099
-0.189888
-0.201675
-0.21346
0.21346
1.2807
1.2807
1.24492
1.20286
1.16105
1.12158
1.0854
1.05272
1.0233
0.996674
0.972328
0.949795
0.928689
0.908711
0.889635
0.871295
0.853566
0.836356
0.819596
0.80323
0.787212
0.771509
0.756091
0.740931
0.726007
0.7113
0.696793
0.68247
0.668318
0.654324
0.640476
0.626764
0.613179
0.599711
0.586353
0.573098
0.559937
0.546866
0.533877
0.520967
0.508129
0.495358
0.482651
0.470004
0.457412
0.444872
0.432381
0.419935
0.407532
0.395169
0.382844
0.370554
0.358296
0.346069
0.333872
0.321701
0.309556
0.297434
0.285335
0.273257
0.261198
0.249158
0.237135
0.225128
0.213136
0.201158
0.189194
0.177242
0.165302
0.153372
0.141453
0.129544
0.117644
0.105752
0.0938681
0.0819916
0.0701222
0.0582593
0.0464025
0.0345515
0.0227058
0.0108652
-0.000970617
-0.012802
-0.0246293
-0.0364526
-0.0482723
-0.0600885
-0.0719015
-0.0837114
-0.0955184
-0.107323
-0.119124
-0.130924
-0.142721
-0.154515
-0.166308
-0.178099
-0.189888
-0.201675
-0.213458
0.213458
1.27201
1.27201
1.24291
1.20311
1.16197
1.12266
1.08643
1.05361
1.02403
0.997253
0.972777
0.95014
0.928956
0.908919
0.8898
0.871428
0.853675
0.836448
0.819674
0.803296
0.78727
0.77156
0.756136
0.74097
0.726042
0.711332
0.696822
0.682496
0.668342
0.654345
0.640495
0.626782
0.613195
0.599726
0.586367
0.57311
0.559949
0.546877
0.533887
0.520976
0.508137
0.495366
0.482659
0.470011
0.457418
0.444878
0.432386
0.41994
0.407537
0.395174
0.382848
0.370557
0.358299
0.346073
0.333875
0.321704
0.309558
0.297437
0.285337
0.273259
0.2612
0.24916
0.237136
0.225129
0.213137
0.201159
0.189195
0.177243
0.165303
0.153373
0.141454
0.129545
0.117645
0.105753
0.0938689
0.0819924
0.0701229
0.05826
0.0464031
0.0345521
0.0227064
0.0108658
-0.00097014
-0.0128016
-0.0246289
-0.0364522
-0.0482719
-0.0600882
-0.0719011
-0.0837111
-0.0955181
-0.107322
-0.119124
-0.130923
-0.14272
-0.154515
-0.166308
-0.178099
-0.189887
-0.201674
-0.213453
0.213453
1.26794
1.26794
1.24183
1.20323
1.16246
1.12325
1.087
1.05411
1.02445
0.997587
0.97304
0.950348
0.929119
0.909049
0.889905
0.871515
0.853749
0.83651
0.819727
0.803343
0.787312
0.771597
0.756168
0.741
0.726069
0.711356
0.696843
0.682516
0.668359
0.654361
0.64051
0.626796
0.613208
0.599738
0.586378
0.57312
0.559958
0.546885
0.533895
0.520983
0.508144
0.495372
0.482664
0.470016
0.457423
0.444882
0.432391
0.419944
0.407541
0.395177
0.382851
0.37056
0.358302
0.346075
0.333877
0.321706
0.30956
0.297439
0.285339
0.273261
0.261202
0.249161
0.237138
0.225131
0.213138
0.201161
0.189196
0.177244
0.165304
0.153374
0.141455
0.129546
0.117645
0.105754
0.0938695
0.081993
0.0701235
0.0582605
0.0464036
0.0345525
0.0227068
0.0108662
-0.000969761
-0.0128012
-0.0246285
-0.0364519
-0.0482716
-0.0600879
-0.0719009
-0.0837108
-0.0955179
-0.107322
-0.119124
-0.130923
-0.14272
-0.154515
-0.166308
-0.178098
-0.189887
-0.201673
-0.213448
0.213448
1.26794
1.26794
1.24183
1.20323
1.16246
1.12325
1.087
1.05411
1.02445
0.997587
0.97304
0.950348
0.929119
0.909049
0.889905
0.871515
0.853749
0.83651
0.819727
0.803343
0.787312
0.771597
0.756168
0.741
0.726069
0.711356
0.696843
0.682516
0.668359
0.654361
0.64051
0.626796
0.613208
0.599738
0.586378
0.57312
0.559958
0.546885
0.533895
0.520983
0.508144
0.495372
0.482664
0.470016
0.457423
0.444882
0.432391
0.419944
0.407541
0.395177
0.382851
0.37056
0.358302
0.346075
0.333877
0.321706
0.309561
0.297439
0.285339
0.273261
0.261202
0.249161
0.237138
0.225131
0.213138
0.201161
0.189196
0.177244
0.165304
0.153374
0.141455
0.129546
0.117645
0.105754
0.0938695
0.081993
0.0701235
0.0582605
0.0464036
0.0345525
0.0227068
0.0108662
-0.00096976
-0.0128012
-0.0246285
-0.0364519
-0.0482716
-0.0600879
-0.0719009
-0.0837108
-0.0955179
-0.107322
-0.119124
-0.130923
-0.14272
-0.154515
-0.166308
-0.178098
-0.189887
-0.201673
-0.213448
0.213448
1.27202
1.27202
1.24291
1.20311
1.16197
1.12266
1.08643
1.05361
1.02403
0.997252
0.972777
0.950141
0.928956
0.908919
0.8898
0.871428
0.853675
0.836448
0.819674
0.803296
0.78727
0.77156
0.756135
0.74097
0.726042
0.711332
0.696822
0.682496
0.668342
0.654345
0.640495
0.626782
0.613195
0.599726
0.586367
0.57311
0.559949
0.546877
0.533887
0.520976
0.508137
0.495366
0.482659
0.470011
0.457418
0.444878
0.432386
0.41994
0.407537
0.395174
0.382848
0.370557
0.3583
0.346073
0.333875
0.321704
0.309558
0.297437
0.285337
0.273259
0.2612
0.24916
0.237136
0.225129
0.213137
0.201159
0.189195
0.177243
0.165303
0.153373
0.141454
0.129545
0.117645
0.105753
0.0938689
0.0819924
0.0701229
0.0582599
0.0464031
0.0345521
0.0227064
0.0108657
-0.000970139
-0.0128016
-0.0246289
-0.0364522
-0.0482719
-0.0600882
-0.0719011
-0.0837111
-0.0955181
-0.107322
-0.119124
-0.130923
-0.14272
-0.154515
-0.166308
-0.178099
-0.189887
-0.201674
-0.213453
0.213453
1.28071
1.28071
1.24493
1.20286
1.16105
1.12158
1.0854
1.05272
1.0233
0.996673
0.972328
0.949796
0.92869
0.908711
0.889635
0.871295
0.853566
0.836356
0.819596
0.803229
0.787212
0.771509
0.756091
0.740931
0.726007
0.7113
0.696793
0.68247
0.668318
0.654324
0.640476
0.626764
0.613179
0.599712
0.586353
0.573098
0.559937
0.546866
0.533877
0.520967
0.508129
0.495358
0.482652
0.470004
0.457412
0.444872
0.432381
0.419935
0.407532
0.395169
0.382844
0.370554
0.358296
0.346069
0.333872
0.321701
0.309556
0.297434
0.285335
0.273257
0.261198
0.249158
0.237135
0.225128
0.213136
0.201158
0.189194
0.177242
0.165302
0.153372
0.141453
0.129544
0.117644
0.105752
0.0938681
0.0819916
0.0701222
0.0582593
0.0464025
0.0345515
0.0227058
0.0108652
-0.000970618
-0.012802
-0.0246293
-0.0364526
-0.0482723
-0.0600885
-0.0719015
-0.0837114
-0.0955184
-0.107323
-0.119124
-0.130924
-0.142721
-0.154515
-0.166308
-0.178099
-0.189888
-0.201675
-0.213458
0.213458
1.29509
1.29509
1.24743
1.20246
1.15992
1.12031
1.08422
1.05173
1.02251
0.996067
0.971872
0.949455
0.928434
0.908517
0.889485
0.871176
0.85347
0.836278
0.81953
0.803173
0.787164
0.771467
0.756053
0.740897
0.725977
0.711273
0.696769
0.682449
0.668299
0.654306
0.64046
0.626749
0.613165
0.599699
0.586342
0.573087
0.559928
0.546857
0.533869
0.520959
0.508122
0.495352
0.482645
0.469998
0.457407
0.444867
0.432376
0.419931
0.407528
0.395166
0.382841
0.37055
0.358293
0.346067
0.333869
0.321699
0.309553
0.297432
0.285333
0.273255
0.261196
0.249156
0.237133
0.225126
0.213134
0.201157
0.189192
0.177241
0.165301
0.153371
0.141452
0.129543
0.117643
0.105751
0.0938674
0.081991
0.0701216
0.0582587
0.046402
0.034551
0.0227054
0.0108648
-0.000971033
-0.0128024
-0.0246296
-0.036453
-0.0482726
-0.0600888
-0.0719017
-0.0837116
-0.0955186
-0.107323
-0.119125
-0.130924
-0.142721
-0.154516
-0.166308
-0.178099
-0.189888
-0.201675
-0.21346
0.21346
1.31574
1.31574
1.24923
1.20215
1.1592
1.11954
1.08352
1.05114
1.02203
0.995697
0.971587
0.949234
0.928261
0.908379
0.889374
0.871084
0.853393
0.836211
0.819472
0.803122
0.787119
0.771427
0.756017
0.740865
0.725947
0.711246
0.696744
0.682426
0.668278
0.654287
0.640442
0.626733
0.61315
0.599685
0.586329
0.573075
0.559917
0.546846
0.53386
0.52095
0.508113
0.495344
0.482638
0.469992
0.457401
0.444861
0.432371
0.419926
0.407524
0.395161
0.382836
0.370546
0.358289
0.346063
0.333866
0.321696
0.309551
0.297429
0.285331
0.273253
0.261194
0.249154
0.237131
0.225124
0.213133
0.201155
0.189191
0.177239
0.165299
0.15337
0.141451
0.129542
0.117642
0.10575
0.0938665
0.0819902
0.0701208
0.058258
0.0464013
0.0345503
0.0227048
0.0108642
-0.00097155
-0.0128029
-0.0246301
-0.0364534
-0.048273
-0.0600892
-0.0719021
-0.0837119
-0.0955189
-0.107323
-0.119125
-0.130924
-0.142721
-0.154516
-0.166308
-0.178099
-0.189888
-0.201675
-0.213461
0.213461
1.31574
1.31574
1.24923
1.20215
1.1592
1.11954
1.08352
1.05114
1.02203
0.995697
0.971587
0.949234
0.928261
0.908379
0.889374
0.871084
0.853393
0.836211
0.819472
0.803122
0.787119
0.771427
0.756017
0.740865
0.725947
0.711246
0.696744
0.682426
0.668278
0.654287
0.640442
0.626733
0.61315
0.599685
0.586329
0.573075
0.559917
0.546846
0.53386
0.52095
0.508113
0.495344
0.482638
0.469992
0.457401
0.444861
0.432371
0.419926
0.407524
0.395161
0.382836
0.370546
0.358289
0.346063
0.333866
0.321696
0.309551
0.297429
0.285331
0.273253
0.261194
0.249154
0.237131
0.225124
0.213133
0.201155
0.189191
0.177239
0.165299
0.15337
0.141451
0.129542
0.117642
0.10575
0.0938665
0.0819902
0.0701208
0.058258
0.0464013
0.0345503
0.0227048
0.0108642
-0.00097155
-0.0128029
-0.0246301
-0.0364534
-0.048273
-0.0600892
-0.0719021
-0.0837119
-0.0955189
-0.107323
-0.119125
-0.130924
-0.142721
-0.154516
-0.166308
-0.178099
-0.189888
-0.201675
-0.213461
0.213461
SCALARS phi double
LOOKUP_TABLE phi
1
1
1
0.999995
0.999977
0.999931
0.999833
0.999655
0.999364
0.998929
0.998323
0.997523
0.996513
0.995279
0.993815
0.992118
0.990189
0.988032
0.985652
0.983059
0.980261
0.97727
0.974097
0.970755
0.967257
0.963614
0.95984
0.955947
0.951947
0.947851
0.943667
0.939399
0.935047
0.930601
0.926046
0.921355
0.916494
0.911424
0.906098
0.900468
0.894484
0.888097
0.881265
0.873946
0.866107
0.857723
0.848773
0.839248
0.829145
0.818467
0.807226
0.795439
0.783129
0.770324
0.757056
0.743361
0.729274
0.714836
0.700087
0.685067
0.669818
0.654378
0.638788
0.623085
0.607305
0.591485
0.575655
0.559848
0.544093
0.528415
0.512841
0.497393
0.482091
0.466955
0.452001
0.437244
0.422698
0.408375
0.394285
0.380436
0.366836
0.35349
0.340405
0.327583
0.315028
0.302741
0.290724
0.278978
0.267501
0.256294
0.245356
0.234684
0.224276
0.214131
0.204245
0.194621
0.185233
0.176163
0.167116
0.159102
0.148522
0.148522
1
1
1
0.999995
0.999977
0.999931
0.999833
0.999655
0.999364
0.998929
0.998323
0.997523
0.996513
0.995279
0.993815
0.992118
0.990189
0.988032
0.985652
0.983059
0.980261
0.97727
0.974097
0.970755
0.967257
0.963614
0.95984
0.955947
0.951947
0.947851
0.943667
0.939399
0.935047
0.930601
0.926046
0.921355
0.916494
0.911424
0.906098
0.900468
0.894484
0.888097
0.881265
0.873946
0.866107
0.857723
0.848773
0.839248
0.829145
0.818467
0.807226
0.795439
0.783129
0.770324
0.757056
0.743361
0.729274
0.714836
0.700087
0.685067
0.669818
0.654378
0.638788
0.623085
0.607305
0.591485
0.575655
0.559848
0.544093
0.528415
0.512841
0.497393
0.482091
0.466955
0.452001
0.437244
0.422698
0.408375
0.394285
0.380436
0.366836
0.35349
0.340405
0.327583
0.315028
0.302741
0.290724
0.278978
0.267501
0.256294
0.245356
0.234684
0.224276
0.214131
0.204245
0.194621
0.185233
0.176163
0.167116
0.159102
0.148522
0.148522
0.999998
1
0.999984
0.999921
0.999783
0.999536
0.999146
0.99858
0.997812
0.996819
0.99559
0.994116
0.992398
0.990437
0.98824
0.985817
0.983177
0.980333
0.977297
0.974081
0.9707
0.967166
0.963491
0.95969
0.955773
0.951752
0.947639
0.943445
0.939179
0.934851
0.930469
0.926041
0.921573
0.917066
0.912518
0.907924
0.903273
0.898547
0.893726
0.888782
0.883685
0.878402
0.872898
0.867136
0.861083
0.854706
0.847974
0.840861
0.833345
0.825409
0.817041
0.808234
0.798985
0.789297
0.779178
0.768639
0.757695
0.746364
0.734669
0.722633
0.710282
0.697642
0.684742
0.67161
0.658275
0.644766
0.631111
0.61734
0.603477
0.589551
0.575587
0.561607
0.547636
0.533695
0.519803
0.505981
0.492244
0.478609
0.465092
0.451705
0.43846
0.425369
0.412442
0.399686
0.38711
0.374721
0.362523
0.350522
0.338722
0.327126
0.315736
0.304554
0.293581
0.282819
0.272264
0.261927
0.25177
0.241916
0.231951
0.223249
0.211204
0.211204
1.00001
0.999992
0.99954
0.998615
0.997207
0.995317
0.992955
0.990145
0.986922
0.983332
0.979422
0.975241
0.970836
0.966248
0.961513
0.956664
0.951728
0.946728
0.941682
0.936608
0.931519
0.926427
0.921341
0.916268
0.911216
0.906189
0.901193
0.896232
0.891307
0.886422
0.881579
0.87678
0.872025
0.867314
0.862648
0.858024
0.853438
0.848886
0.844359
0.839848
0.835339
0.830819
0.826269
0.82167
0.817001
0.812241
0.807365
0.80235
0.797175
0.791817
0.786256
0.780472
0.774448
0.76817
0.761625
0.754805
0.747701
0.74031
0.732631
0.724663
0.716411
0.707879
0.699076
0.69001
0.680693
0.671137
0.661356
0.651364
0.641176
0.630808
0.620277
0.609599
0.59879
0.587868
0.576848
0.565746
0.554578
0.54336
0.532106
0.52083
0.509545
0.498265
0.487001
0.475765
0.464567
0.453418
0.442327
0.431301
0.42035
0.40948
0.398697
0.388008
0.377417
0.36693
0.356546
0.346283
0.336096
0.326142
0.315925
0.307041
0.294363
0.294363
1.00143
0.99857
0.991253
0.98188
0.971566
0.96086
0.950051
0.939311
0.928756
0.918468
0.908503
0.898898
0.889671
0.880827
0.87236
0.864261
0.856513
0.849098
0.841997
0.835192
0.828664
0.822396
0.816369
0.810569
0.80498
0.799588
0.794382
0.789348
0.784477
0.779758
0.775181
0.770738
0.766422
0.762224
0.758138
0.754158
0.750276
0.746486
0.742782
0.739158
0.735604
0.732115
0.72868
0.72529
0.721935
0.718603
0.715282
0.711959
0.70862
0.70525
0.701836
0.698362
0.694815
0.691178
0.687439
0.683584
0.6796
0.675475
0.6712
0.666763
0.662157
0.657376
0.652412
0.647261
0.641921
0.636389
0.630664
0.624748
0.618641
0.612347
0.605868
0.599209
0.592376
0.585373
0.578208
0.570888
0.563419
0.555809
0.548067
0.5402
0.532217
0.524125
0.515934
0.50765
0.499283
0.490839
0.482328
0.473755
0.465129
0.456457
0.447745
0.438999
0.430225
0.421431
0.412616
0.403802
0.394943
0.386199
0.377083
0.369146
0.357517
0.357517
1.0456
0.954401
0.887723
0.838673
0.801641
0.772861
0.749886
0.731119
0.715499
0.702298
0.691001
0.681228
0.672693
0.665173
0.658493
0.652515
0.647126
0.642236
0.637772
0.633673
0.629891
0.626382
0.623115
0.620059
0.61719
0.614489
0.611936
0.609518
0.607221
0.605034
0.602947
0.600951
0.599038
0.597202
0.595437
0.593737
0.592097
0.590513
0.588981
0.587496
0.586056
0.584655
0.583291
0.581959
0.580656
0.579375
0.578114
0.576866
0.575626
0.574388
0.573145
0.571891
0.570618
0.569318
0.567983
0.566605
0.565177
0.563689
0.562133
0.560501
0.558784
0.556975
0.555065
0.553048
0.550917
0.548664
0.546284
0.543772
0.541122
0.53833
0.535393
0.532306
0.529067
0.525674
0.522125
0.518419
0.514555
0.510534
0.506355
0.502019
0.497527
0.492881
0.488082
0.483132
0.478034
0.47279
0.467402
0.461874
0.456209
0.45041
0.44448
0.438423
0.432241
0.425941
0.41952
0.412997
0.40633
0.399661
0.392568
0.386367
0.377006
0.377006
-0.0455988
0.0455988
0.112277
0.161326
0.198359
0.227139
0.250114
0.268881
0.284501
0.297702
0.308999
0.318772
0.327307
0.334827
0.341507
0.347485
0.352874
0.357764
0.362228
0.366326
0.370109
0.373618
0.376885
0.379941
0.38281
0.385511
0.388064
0.390482
0.392779
0.394966
0.397053
0.39905
0.400962
0.402798
0.404563
0.406263
0.407903
0.409486
0.411017
0.412499
0.413935
0.415329
0.416681
0.417995
0.419272
0.420514
0.421722
0.422895
0.424036
0.425142
0.426215
0.427253
0.428255
0.429219
0.430142
0.431023
0.431858
0.432644
0.433377
0.434053
0.434668
0.435217
0.435694
0.436095
0.436414
0.436645
0.436783
0.436823
0.436758
0.436583
0.436291
0.435878
0.435338
0.434665
0.433854
0.4329
0.431798
0.430545
0.429134
0.427563
0.425828
0.423925
0.421852
0.419604
0.417182