# vtk DataFile Version 3.0
FlowField
ASCII
DATASET STRUCTURED_GRID
DIMENSIONS 102 12 1 
POINTS 1224 double
0 0 0
0.3 0 0
0.6 0 0
0.9 0 0
1.2 0 0
1.5 0 0
1.8 0 0
2.1 0 0
2.4 0 0
2.7 0 0
3 0 0
3.3 0 0
3.6 0 0
3.9 0 0
4.2 0 0
4.5 0 0
4.8 0 0
5.1 0 0
5.4 0 0
5.7 0 0
6 0 0
6.3 0 0
6.6 0 0
6.9 0 0
7.2 0 0
7.5 0 0
7.8 0 0
8.1 0 0
8.4 0 0
8.7 0 0
9 0 0
9.3 0 0
9.6 0 0
9.9 0 0
10.2 0 0
10.5 0 0
10.8 0 0
11.1 0 0
11.4 0 0
11.7 0 0
12 0 0
12.3 0 0
12.6 0 0
12.9 0 0
13.2 0 0
13.5 0 0
13.8 0 0
14.1 0 0
14.4 0 0
14.7 0 0
15 0 0
15.3 0 0
15.6 0 0
15.9 0 0
16.2 0 0
16.5 0 0
16.8 0 0
17.1 0 0
17.4 0 0
17.7 0 0
18 0 0
18.3 0 0
18.6 0 0
18.9 0 0
19.2 0 0
19.5 0 0
19.8 0 0
20.1 0 0
20.4 0 0
20.7 0 0
21 0 0
21.3 0 0
21.6 0 0
21.9 0 0
22.2 0 0
22.5 0 0
22.8 0 0
23.1 0 0
23.4 0 0
23.7 0 0
24 0 0
24.3 0 0
24.6 0 0
24.9 0 0
25.2 0 0
25.5 0 0
25.8 0 0
26.1 0 0
26.4 0 0
26.7 0 0
27 0 0
27.3 0 0
27.6 0 0
27.9 0 0
28.2 0 0
28.5 0 0
28.8 0 0
29.1 0 0
29.4 0 0
29.7 0 0
30 0 0
30.3 0 0
0 0.1 0
0.3 0.1 0
0.6 0.1 0
0.9 0.1 0
1.2 0.1 0
1.5 0.1 0
1.8 0.1 0
2.1 0.1 0
2.4 0.1 0
2.7 0.1 0
3 0.1 0
3.3 0.1 0
3.6 0.1 0
3.9 0.1 0
4.2 0.1 0
4.5 0.1 0
4.8 0.1 0
5.1 0.1 0
5.4 0.1 0
5.7 0.1 0
6 0.1 0
6.3 0.1 0
6.6 0.1 0
6.9 0.1 0
7.2 0.1 0
7.5 0.1 0
7.8 0.1 0
8.1 0.1 0
8.4 0.1 0
8.7 0.1 0
9 0.1 0
9.3 0.1 0
9.6 0.1 0
9.9 0.1 0
10.2 0.1 0
10.5 0.1 0
10.8 0.1 0
11.1 0.1 0
11.4 0.1 0
11.7 0.1 0
12 0.1 0
12.3 0.1 0
12.6 0.1 0
12.9 0.1 0
13.2 0.1 0
13.5 0.1 0
13.8 0.1 0
14.1 0.1 0
14.4 0.1 0
14.7 0.1 0
15 0.1 0
15.3 0.1 0
15.6 0.1 0
15.9 0.1 0
16.2 0.1 0
16.5 0.1 0
16.8 0.1 0
17.1 0.1 0
17.4 0.1 0
17.7 0.1 0
18 0.1 0
18.3 0.1 0
18.6 0.1 0
18.9 0.1 0
19.2 0.1 0
19.5 0.1 0
19.8 0.1 0
20.1 0.1 0
20.4 0.1 0
20.7 0.1 0
21 0.1 0
21.3 0.1 0
21.6 0.1 0
21.9 0.1 0
22.2 0.1 0
22.5 0.1 0
22.8 0.1 0
23.1 0.1 0
23.4 0.1 0
23.7 0.1 0
24 0.1 0
24.3 0.1 0
24.6 0.1 0
24.9 0.1 0
25.2 0.1 0
25.5 0.1 0
25.8 0.1 0
26.1 0.1 0
26.4 0.1 0
26.7 0.1 0
27 0.1 0
27.3 0.1 0
27.6 0.1 0
27.9 0.1 0
28.2 0.1 0
28.5 0.1 0
28.8 0.1 0
29.1 0.1 0
29.4 0.1 0
29.7 0.1 0
30 0.1 0
30.3 0.1 0
0 0.2 0
0.3 0.2 0
0.6 0.2 0
0.9 0.2 0
1.2 0.2 0
1.5 0.2 0
1.8 0.2 0
2.1 0.2 0
2.4 0.2 0
2.7 0.2 0
3 0.2 0
3.3 0.2 0
3.6 0.2 0
3.9 0.2 0
4.2 0.2 0
4.5 0.2 0
4.8 0.2 0
5.1 0.2 0
5.4 0.2 0
5.7 0.2 0
6 0.2 0
6.3 0.2 0
6.6 0.2 0
6.9 0.2 0
7.2 0.2 0
7.5 0.2 0
7.8 0.2 0
8.1 0.2 0
8.4 0.2 0
8.7 0.2 0
9 0.2 0
9.3 0.2 0
9.6 0.2 0
9.9 0.2 0
10.2 0.2 0
10.5 0.2 0
10.8 0.2 0
11.1 0.2 0
11.4 0.2 0
11.7 0.2 0
12 0.2 0
12.3 0.2 0
12.6 0.2 0
12.9 0.2 0
13.2 0.2 0
13.5 0.2 0
13.8 0.2 0
14.1 0.2 0
14.4 0.2 0
14.7 0.2 0
15 0.2 0
15.3 0.2 0
15.6 0.2 0
15.9 0.2 0
16.2 0.2 0
16.5 0.2 0
16.8 0.2 0
17.1 0.2 0
17.4 0.2 0
17.7 0.2 0
18 0.2 0
18.3 0.2 0
18.6 0.2 0
18.9 0.2 0
19.2 0.2 0
19.5 0.2 0
19.8 0.2 0
20.1 0.2 0
20.4 0.2 0
20.7 0.2 0
21 0.2 0
21.3 0.2 0
21.6 0.2 0
21.9 0.2 0
22.2 0.2 0
22.5 0.2 0
22.8 0.2 0
23.1 0.2 0
23.4 0.2 0
23.7 0.2 0
24 0.2 0
24.3 0.2 0
24.6 0.2 0
24.9 0.2 0
25.2 0.2 0
25.5 0.2 0
25.8 0.2 0
26.1 0.2 0
26.4 0.2 0
26.7 0.2 0
27 0.2 0
27.3 0.2 0
27.6 0.2 0
27.9 0.2 0
28.2 0.2 0
28.5 0.2 0
28.8 0.2 0
29.1 0.2 0
29.4 0.2 0
29.7 0.2 0
30 0.2 0
30.3 0.2 0
0 0.3 0
0.3 0.3 0
0.6 0.3 0
0.9 0.3 0
1.2 0.3 0
1.5 0.3 0
1.8 0.3 0
2.1 0.3 0
2.4 0.3 0
2.7 0.3 0
3 0.3 0
3.3 0.3 0
3.6 0.3 0
3.9 0.3 0
4.2 0.3 0
4.5 0.3 0
4.8 0.3 0
5.1 0.3 0
5.4 0.3 0
5.7 0.3 0
6 0.3 0
6.3 0.3 0
6.6 0.3 0
6.9 0.3 0
7.2 0.3 0
7.5 0.3 0
7.8 0.3 0
8.1 0.3 0
8.4 0.3 0
8.7 0.3 0
9 0.3 0
9.3 0.3 0
9.6 0.3 0
9.9 0.3 0
10.2 0.3 0
10.5 0.3 0
10.8 0.3 0
11.1 0.3 0
11.4 0.3 0
11.7 0.3 0
12 0.3 0
12.3 0.3 0
12.6 0.3 0
12.9 0.3 0
13.2 0.3 0
13.5 0.3 0
13.8 0.3 0
14.1 0.3 0
14.4 0.3 0
14.7 0.3 0
15 0.3 0
15.3 0.3 0
15.6 0.3 0
15.9 0.3 0
16.2 0.3 0
16.5 0.3 0
16.8 0.3 0
17.1 0.3 0
17.4 0.3 0
17.7 0.3 0
18 0.3 0
18.3 0.3 0
18.6 0.3 0
18.9 0.3 0
19.2 0.3 0
19.5 0.3 0
19.8 0.3 0
20.1 0.3 0
20.4 0.3 0
20.7 0.3 0
21 0.3 0
21.3 0.3 0
21.6 0.3 0
21.9 0.3 0
22.2 0.3 0
22.5 0.3 0
22.8 0.3 0
23.1 0.3 0
23.4 0.3 0
23.7 0.3 0
24 0.3 0
24.3 0.3 0
24.6 0.3 0
24.9 0.3 0
25.2 0.3 0
25.5 0.3 0
25.8 0.3 0
26.1 0.3 0
26.4 0.3 0
26.7 0.3 0
27 0.3 0
27.3 0.3 0
27.6 0.3 0
27.9 0.3 0
28.2 0.3 0
28.5 0.3 0
28.8 0.3 0
29.1 0.3 0
29.4 0.3 0
29.7 0.3 0
30 0.3 0
30.3 0.3 0
0 0.4 0
0.3 0.4 0
0.6 0.4 0
0.9 0.4 0
1.2 0.4 0
1.5 0.4 0
1.8 0.4 0
2.1 0.4 0
2.4 0.4 0
2.7 0.4 0
3 0.4 0
3.3 0.4 0
3.6 0.4 0
3.9 0.4 0
4.2 0.4 0
4.5 0.4 0
4.8 0.4 0
5.1 0.4 0
5.4 0.4 0
5.7 0.4 0
6 0.4 0
6.3 0.4 0
6.6 0.4 0
6.9 0.4 0
7.2 0.4 0
7.5 0.4 0
7.8 0.4 0
8.1 0.4 0
8.4 0.4 0
8.7 0.4 0
9 0.4 0
9.3 0.4 0
9.6 0.4 0
9.9 0.4 0
10.2 0.4 0
10.5 0.4 0
10.8 0.4 0
11.1 0.4 0
11.4 0.4 0
11.7 0.4 0
12 0.4 0
12.3 0.4 0
12.6 0.4 0
12.9 0.4 0
13.2 0.4 0
13.5 0.4 0
13.8 0.4 0
14.1 0.4 0
14.4 0.4 0
14.7 0.4 0
15 0.4 0
15.3 0.4 0
15.6 0.4 0
15.9 0.4 0
16.2 0.4 0
16.5 0.4 0
16.8 0.4 0
17.1 0.4 0
17.4 0.4 0
17.7 0.4 0
18 0.4 0
18.3 0.4 0
18.6 0.4 0
18.9 0.4 0
19.2 0.4 0
19.5 0.4 0
19.8 0.4 0
20.1 0.4 0
20.4 0.4 0
20.7 0.4 0
21 0.4 0
21.3 0.4 0
21.6 0.4 0
21.9 0.4 0
22.2 0.4 0
22.5 0.4 0
22.8 0.4 0
23.1 0.4 0
23.4 0.4 0
23.7 0.4 0
24 0.4 0
24.3 0.4 0
24.6 0.4 0
24.9 0.4 0
25.2 0.4 0
25.5 0.4 0
25.8 0.4 0
26.1 0.4 0
26.4 0.4 0
26.7 0.4 0
27 0.4 0
27.3 0.4 0
27.6 0.4 0
27.9 0.4 0
28.2 0.4 0
28.5 0.4 0
28.8 0.4 0
29.1 0.4 0
29.4 0.4 0
29.7 0.4 0
30 0.4 0
30.3 0.4 0
0 0.5 0
0.3 0.5 0
0.6 0.5 0
0.9 0.5 0
1.2 0.5 0
1.5 0.5 0
1.8 0.5 0
2.1 0.5 0
2.4 0.5 0
2.7 0.5 0
3 0.5 0
3.3 0.5 0
3.6 0.5 0
3.9 0.5 0
4.2 0.5 0
4.5 0.5 0
4.8 0.5 0
5.1 0.5 0
5.4 0.5 0
5.7 0.5 0
6 0.5 0
6.3 0.5 0
6.6 0.5 0
6.9 0.5 0
7.2 0.5 0
7.5 0.5 0
7.8 0.5 0
8.1 0.5 0
8.4 0.5 0
8.7 0.5 0
9 0.5 0
9.3 0.5 0
9.6 0.5 0
9.9 0.5 0
10.2 0.5 0
10.5 0.5 0
10.8 0.5 0
11.1 0.5 0
11.4 0.5 0
11.7 0.5 0
12 0.5 0
12.3 0.5 0
12.6 0.5 0
12.9 0.5 0
13.2 0.5 0
13.5 0.5 0
13.8 0.5 0
14.1 0.5 0
14.4 0.5 0
14.7 0.5 0
15 0.5 0
15.3 0.5 0
15.6 0.5 0
15.9 0.5 0
16.2 0.5 0
16.5 0.5 0
16.8 0.5 0
17.1 0.5 0
17.4 0.5 0
17.7 0.5 0
18 0.5 0
18.3 0.5 0
18.6 0.5 0
18.9 0.5 0
19.2 0.5 0
19.5 0.5 0
19.8 0.5 0
20.1 0.5 0
20.4 0.5 0
20.7 0.5 0
21 0.5 0
21.3 0.5 0
21.6 0.5 0
21.9 0.5 0
22.2 0.5 0
22.5 0.5 0
22.8 0.5 0
23.1 0.5 0
23.4 0.5 0
23.7 0.5 0
24 0.5 0
24.3 0.5 0
24.6 0.5 0
24.9 0.5 0
25.2 0.5 0
25.5 0.5 0
25.8 0.5 0
26.1 0.5 0
26.4 0.5 0
26.7 0.5 0
27 0.5 0
27.3 0.5 0
27.6 0.5 0
27.9 0.5 0
28.2 0.5 0
28.5 0.5 0
28.8 0.5 0
29.1 0.5 0
29.4 0.5 0
29.7 0.5 0
30 0.5 0
30.3 0.5 0
0 0.6 0
0.3 0.6 0
0.6 0.6 0
0.9 0.6 0
1.2 0.6 0
1.5 0.6 0
1.8 0.6 0
2.1 0.6 0
2.4 0.6 0
2.7 0.6 0
3 0.6 0
3.3 0.6 0
3.6 0.6 0
3.9 0.6 0
4.2 0.6 0
4.5 0.6 0
4.8 0.6 0
5.1 0.6 0
5.4 0.6 0
5.7 0.6 0
6 0.6 0
6.3 0.6 0
6.6 0.6 0
6.9 0.6 0
7.2 0.6 0
7.5 0.6 0
7.8 0.6 0
8.1 0.6 0
8.4 0.6 0
8.7 0.6 0
9 0.6 0
9.3 0.6 0
9.6 0.6 0
9.9 0.6 0
10.2 0.6 0
10.5 0.6 0
10.8 0.6 0
11.1 0.6 0
11.4 0.6 0
11.7 0.6 0
12 0.6 0
12.3 0.6 0
12.6 0.6 0
12.9 0.6 0
13.2 0.6 0
13.5 0.6 0
13.8 0.6 0
14.1 0.6 0
14.4 0.6 0
14.7 0.6 0
15 0.6 0
15.3 0.6 0
15.6 0.6 0
15.9 0.6 0
16.2 0.6 0
16.5 0.6 0
16.8 0.6 0
17.1 0.6 0
17.4 0.6 0
17.7 0.6 0
18 0.6 0
18.3 0.6 0
18.6 0.6 0
18.9 0.6 0
19.2 0.6 0
19.5 0.6 0
19.8 0.6 0
20.1 0.6 0
20.4 0.6 0
20.7 0.6 0
21 0.6 0
21.3 0.6 0
21.6 0.6 0
21.9 0.6 0
22.2 0.6 0
22.5 0.6 0
22.8 0.6 0
23.1 0.6 0
23.4 0.6 0
23.7 0.6 0
24 0.6 0
24.3 0.6 0
24.6 0.6 0
24.9 0.6 0
25.2 0.6 0
25.5 0.6 0
25.8 0.6 0
26.1 0.6 0
26.4 0.6 0
26.7 0.6 0
27 0.6 0
27.3 0.6 0
27.6 0.6 0
27.9 0.6 0
28.2 0.6 0
28.5 0.6 0
28.8 0.6 0
29.1 0.6 0
29.4 0.6 0
29.7 0.6 0
30 0.6 0
30.3 0.6 0
0 0.7 0
0.3 0.7 0
0.6 0.7 0
0.9 0.7 0
1.2 0.7 0
1.5 0.7 0
1.8 0.7 0
2.1 0.7 0
2.4 0.7 0
2.7 0.7 0
3 0.7 0
3.3 0.7 0
3.6 0.7 0
3.9 0.7 0
4.2 0.7 0
4.5 0.7 0
4.8 0.7 0
5.1 0.7 0
5.4 0.7 0
5.7 0.7 0
6 0.7 0
6.3 0.7 0
6.6 0.7 0
6.9 0.7 0
7.2 0.7 0
7.5 0.7 0
7.8 0.7 0
8.1 0.7 0
8.4 0.7 0
8.7 0.7 0
9 0.7 0
9.3 0.7 0
9.6 0.7 0
9.9 0.7 0
10.2 0.7 0
10.5 0.7 0
10.8 0.7 0
11.1 0.7 0
11.4 0.7 0
11.7 0.7 0
12 0.7 0
12.3 0.7 0
12.6 0.7 0
12.9 0.7 0
13.2 0.7 0
13.5 0.7 0
13.8 0.7 0
14.1 0.7 0
14.4 0.7 0
14.7 0.7 0
15 0.7 0
15.3 0.7 0
15.6 0.7 0
15.9 0.7 0
16.2 0.7 0
16.5 0.7 0
16.8 0.7 0
17.1 0.7 0
17.4 0.7 0
17.7 0.7 0
18 0.7 0
18.3 0.7 0
18.6 0.7 0
18.9 0.7 0
19.2 0.7 0
19.5 0.7 0
19.8 0.7 0
20.1 0.7 0
20.4 0.7 0
20.7 0.7 0
21 0.7 0
21.3 0.7 0
21.6 0.7 0
21.9 0.7 0
22.2 0.7 0
22.5 0.7 0
22.8 0.7 0
23.1 0.7 0
23.4 0.7 0
23.7 0.7 0
24 0.7 0
24.3 0.7 0
24.6 0.7 0
24.9 0.7 0
25.2 0.7 0
25.5 0.7 0
25.8 0.7 0
26.1 0.7 0
26.4 0.7 0
26.7 0.7 0
27 0.7 0
27.3 0.7 0
27.6 0.7 0
27.9 0.7 0
28.2 0.7 0
28.5 0.7 0
28.8 0.7 0
29.1 0.7 0
29.4 0.7 0
29.7 0.7 0
30 0.7 0
30.3 0.7 0
0 0.8 0
0.3 0.8 0
0.6 0.8 0
0.9 0.8 0
1.2 0.8 0
1.5 0.8 0
1.8 0.8 0
2.1 0.8 0
2.4 0.8 0
2.7 0.8 0
3 0.8 0
3.3 0.8 0
3.6 0.8 0
3.9 0.8 0
4.2 0.8 0
4.5 0.8 0
4.8 0.8 0
5.1 0.8 0
5.4 0.8 0
5.7 0.8 0
6 0.8 0
6.3 0.8 0
6.6 0.8 0
6.9 0.8 0
7.2 0.8 0
7.5 0.8 0
7.8 0.8 0
8.1 0.8 0
8.4 0.8 0
8.7 0.8 0
9 0.8 0
9.3 0.8 0
9.6 0.8 0
9.9 0.8 0
10.2 0.8 0
10.5 0.8 0
10.8 0.8 0
11.1 0.8 0
11.4 0.8 0
11.7 0.8 0
12 0.8 0
12.3 0.8 0
12.6 0.8 0
12.9 0.8 0
13.2 0.8 0
13.5 0.8 0
13.8 0.8 0
14.1 0.8 0
14.4 0.8 0
14.7 0.8 0
15 0.8 0
15.3 0.8 0
15.6 0.8 0
15.9 0.8 0
16.2 0.8 0
16.5 0.8 0
16.8 0.8 0
17.1 0.8 0
17.4 0.8 0
17.7 0.8 0
18 0.8 0
18.3 0.8 0
18.6 0.8 0
18.9 0.8 0
19.2 0.8 0
19.5 0.8 0
19.8 0.8 0
20.1 0.8 0
20.4 0.8 0
20.7 0.8 0
21 0.8 0
21.3 0.8 0
21.6 0.8 0
21.9 0.8 0
22.2 0.8 0
22.5 0.8 0
22.8 0.8 0
23.1 0.8 0
23.4 0.8 0
23.7 0.8 0
24 0.8 0
24.3 0.8 0
24.6 0.8 0
24.9 0.8 0
25.2 0.8 0
25.5 0.8 0
25.8 0.8 0
26.1 0.8 0
26.4 0.8 0
26.7 0.8 0
27 0.8 0
27.3 0.8 0
27.6 0.8 0
27.9 0.8 0
28.2 0.8 0
28.5 0.8 0
28.8 0.8 0
29.1 0.8 0
29.4 0.8 0
29.7 0.8 0
30 0.8 0
30.3 0.8 0
0 0.9 0
0.3 0.9 0
0.6 0.9 0
0.9 0.9 0
1.2 0.9 0
1.5 0.9 0
1.8 0.9 0
2.1 0.9 0
2.4 0.9 0
2.7 0.9 0
3 0.9 0
3.3 0.9 0
3.6 0.9 0
3.9 0.9 0
4.2 0.9 0
4.5 0.9 0
4.8 0.9 0
5.1 0.9 0
5.4 0.9 0
5.7 0.9 0
6 0.9 0
6.3 0.9 0
6.6 0.9 0
6.9 0.9 0
7.2 0.9 0
7.5 0.9 0
7.8 0.9 0
8.1 0.9 0
8.4 0.9 0
8.7 0.9 0
9 0.9 0
9.3 0.9 0
9.6 0.9 0
9.9 0.9 0
10.2 0.9 0
10.5 0.9 0
10.8 0.9 0
11.1 0.9 0
11.4 0.9 0
11.7 0.9 0
12 0.9 0
12.3 0.9 0
12.6 0.9 0
12.9 0.9 0
13.2 0.9 0
13.5 0.9 0
13.8 0.9 0
14.1 0.9 0
14.4 0.9 0
14.7 0.9 0
15 0.9 0
15.3 0.9 0
15.6 0.9 0
15.9 0.9 0
16.2 0.9 0
16.5 0.9 0
16.8 0.9 0
17.1 0.9 0
17.4 0.9 0
17.7 0.9 0
18 0.9 0
18.3 0.9 0
18.6 0.9 0
18.9 0.9 0
19.2 0.9 0
19.5 0.9 0
19.8 0.9 0
20.1 0.9 0
20.4 0.9 0
20.7 0.9 0
21 0.9 0
21.3 0.9 0
21.6 0.9 0
21.9 0.9 0
22.2 0.9 0
22.5 0.9 0
22.8 0.9 0
23.1 0.9 0
23.4 0.9 0
23.7 0.9 0
24 0.9 0
24.3 0.9 0
24.6 0.9 0
24.9 0.9 0
25.2 0.9 0
25.5 0.9 0
25.8 0.9 0
26.1 0.9 0
26.4 0.9 0
26.7 0.9 0
27 0.9 0
27.3 0.9 0
27.6 0.9 0
27.9 0.9 0
28.2 0.9 0
28.5 0.9 0
28.8 0.9 0
29.1 0.9 0
29.4 0.9 0
29.7 0.9 0
30 0.9 0
30.3 0.9 0
0 1 0
0.3 1 0
0.6 1 0
0.9 1 0
1.2 1 0
1.5 1 0
1.8 1 0
2.1 1 0
2.4 1 0
2.7 1 0
3 1 0
3.3 1 0
3.6 1 0
3.9 1 0
4.2 1 0
4.5 1 0
4.8 1 0
5.1 1 0
5.4 1 0
5.7 1 0
6 1 0
6.3 1 0
6.6 1 0
6.9 1 0
7.2 1 0
7.5 1 0
7.8 1 0
8.1 1 0
8.4 1 0
8.7 1 0
9 1 0
9.3 1 0
9.6 1 0
9.9 1 0
10.2 1 0
10.5 1 0
10.8 1 0
11.1 1 0
11.4 1 0
11.7 1 0
12 1 0
12.3 1 0
12.6 1 0
12.9 1 0
13.2 1 0
13.5 1 0
13.8 1 0
14.1 1 0
14.4 1 0
14.7 1 0
15 1 0
15.3 1 0
15.6 1 0
15.9 1 0
16.2 1 0
16.5 1 0
16.8 1 0
17.1 1 0
17.4 1 0
17.7 1 0
18 1 0
18.3 1 0
18.6 1 0
18.9 1 0
19.2 1 0
19.5 1 0
19.8 1 0
20.1 1 0
20.4 1 0
20.7 1 0
21 1 0
21.3 1 0
21.6 1 0
21.9 1 0
22.2 1 0
22.5 1 0
22.8 1 0
23.1 1 0
23.4 1 0
23.7 1 0
24 1 0
24.3 1 0
24.6 1 0
24.9 1 0
25.2 1 0
25.5 1 0
25.8 1 0
26.1 1 0
26.4 1 0
26.7 1 0
27 1 0
27.3 1 0
27.6 1 0
27.9 1 0
28.2 1 0
28.5 1 0
28.8 1 0
29.1 1 0
29.4 1 0
29.7 1 0
30 1 0
30.3 1 0
0 1.1 0
0.3 1.1 0
0.6 1.1 0
0.9 1.1 0
1.2 1.1 0
1.5 1.1 0
1.8 1.1 0
2.1 1.1 0
2.4 1.1 0
2.7 1.1 0
3 1.1 0
3.3 1.1 0
3.6 1.1 0
3.9 1.1 0
4.2 1.1 0
4.5 1.1 0
4.8 1.1 0
5.1 1.1 0
5.4 1.1 0
5.7 1.1 0
6 1.1 0
6.3 1.1 0
6.6 1.1 0
6.9 1.1 0
7.2 1.1 0
7.5 1.1 0
7.8 1.1 0
8.1 1.1 0
8.4 1.1 0
8.7 1.1 0
9 1.1 0
9.3 1.1 0
9.6 1.1 0
9.9 1.1 0
10.2 1.1 0
10.5 1.1 0
10.8 1.1 0
11.1 1.1 0
11.4 1.1 0
11.7 1.1 0
12 1.1 0
12.3 1.1 0
12.6 1.1 0
12.9 1.1 0
13.2 1.1 0
13.5 1.1 0
13.8 1.1 0
14.1 1.1 0
14.4 1.1 0
14.7 1.1 0
15 1.1 0
15.3 1.1 0
15.6 1.1 0
15.9 1.1 0
16.2 1.1 0
16.5 1.1 0
16.8 1.1 0
17.1 1.1 0
17.4 1.1 0
17.7 1.1 0
18 1.1 0
18.3 1.1 0
18.6 1.1 0
18.9 1.1 0
19.2 1.1 0
19.5 1.1 0
19.8 1.1 0
20.1 1.1 0
20.4 1.1 0
20.7 1.1 0
21 1.1 0
21.3 1.1 0
21.6 1.1 0
21.9 1.1 0
22.2 1.1 0
22.5 1.1 0
22.8 1.1 0
23.1 1.1 0
23.4 1.1 0
23.7 1.1 0
24 1.1 0
24.3 1.1 0
24.6 1.1 0
24.9 1.1 0
25.2 1.1 0
25.5 1.1 0
25.8 1.1 0
26.1 1.1 0
26.4 1.1 0
26.7 1.1 0
27 1.1 0
27.3 1.1 0
27.6 1.1 0
27.9 1.1 0
28.2 1.1 0
28.5 1.1 0
28.8 1.1 0
29.1 1.1 0
29.4 1.1 0
29.7 1.1 0
30 1.1 0
30.3 1.1 0

POINT_DATA 1224

SCALARS pressure double
LOOKUP_TABLE pressure
1.31564
1.31564
1.24913
1.20205
1.1591
1.11944
1.08342
1.05104
1.02194
0.995601
0.97149
0.949138
0.928165
0.908283
0.889277
0.870988
0.853297
0.836115
0.819376
0.803026
0.787022
0.771331
0.755921
0.740768
0.725851
0.71115
0.696648
0.68233
0.668181
0.65419
0.640346
0.626637
0.613054
0.599589
0.586233
0.572979
0.55982
0.54675
0.533763
0.520854
0.508017
0.495248
0.482542
0.469895
0.457304
0.444765
0.432275
0.41983
0.407427
0.395065
0.38274
0.37045
0.358192
0.345966
0.333769
0.321598
0.309454
0.297334
0.285238
0.273163
0.26111
0.249077
0.237063
0.225068
0.213091
0.201131
0.189186
0.177257
0.165341
0.153438
0.141548
0.129668
0.117798
0.105936
0.0940822
0.0822348
0.0703931
0.0585562
0.0467235
0.0348942
0.0230677
0.0112433
-0.000579254
-0.0124004
-0.0242204
-0.0360395
-0.047858
-0.059676
-0.0714936
-0.0833109
-0.0951281
-0.106945
-0.118762
-0.130578
-0.142395
-0.154212
-0.166029
-0.177845
-0.189662
-0.201479
-0.213294
0.213294
1.31564
1.31564
1.24913
1.20205
1.1591
1.11944
1.08342
1.05104
1.02194
0.995601
0.97149
0.949138
0.928165
0.908283
0.889277
0.870988
0.853297
0.836115
0.819376
0.803026
0.787022
0.771331
0.755921
0.740768
0.725851
0.71115
0.696648
0.68233
0.668181
0.65419
0.640346
0.626637
0.613054
0.599589
0.586233
0.572979
0.55982
0.54675
0.533763
0.520854
0.508017
0.495248
0.482542
0.469895
0.457304
0.444765
0.432275
0.41983
0.407427
0.395065
0.38274
0.37045
0.358192
0.345966
0.333769
0.321598
0.309454
0.297334
0.285238
0.273163
0.26111
0.249077
0.237063
0.225068
0.213091
0.201131
0.189186
0.177257
0.165341
0.153438
0.141548
0.129668
0.117798
0.105936
0.0940822
0.0822348
0.0703931
0.0585562
0.0467235
0.0348942
0.0230677
0.0112433
-0.000579254
-0.0124004
-0.0242204
-0.0360395
-0.047858
-0.059676
-0.0714936
-0.0833109
-0.0951281
-0.106945
-0.118762
-0.130578
-0.142395
-0.154212
-0.166029
-0.177845
-0.189662
-0.201479
-0.213294
0.213294
1.29499
1.29499
1.24733
1.20237
1.15982
1.12021
1.08413
1.05163
1.02241
0.995971
0.971776
0.949359
0.928338
0.908421
0.889389
0.87108
0.853374
0.836182
0.819434
0.803077
0.787068
0.771371
0.755957
0.740801
0.725881
0.711177
0.696673
0.682352
0.668202
0.65421
0.640363
0.626653
0.613069
0.599603
0.586246
0.572991
0.559831
0.546761
0.533773
0.520863
0.508025
0.495256
0.482549
0.469902
0.457311
0.444771
0.43228
0.419835
0.407432
0.395069
0.382744
0.370454
0.358196
0.345969
0.333772
0.321601
0.309457
0.297337
0.28524
0.273166
0.261112
0.249079
0.237065
0.22507
0.213092
0.201132
0.189187
0.177257
0.165341
0.153439
0.141548
0.129668
0.117798
0.105936
0.0940822
0.0822348
0.070393
0.0585562
0.0467235
0.0348942
0.0230676
0.0112433
-0.00057929
-0.0124004
-0.0242204
-0.0360395
-0.047858
-0.059676
-0.0714936
-0.0833109
-0.0951281
-0.106945
-0.118762
-0.130578
-0.142395
-0.154212
-0.166029
-0.177845
-0.189662
-0.201479
-0.213294
0.213294
1.28061
1.28061
1.24483
1.20276
1.16095
1.12148
1.0853
1.05262
1.0232
0.996577
0.972232
0.949699
0.928593
0.908615
0.889539
0.871198
0.85347
0.83626
0.8195
0.803133
0.787116
0.771413
0.755994
0.740834
0.72591
0.711204
0.696697
0.682374
0.668222
0.654228
0.64038
0.626668
0.613083
0.599615
0.586257
0.573002
0.559841
0.54677
0.533781
0.520871
0.508033
0.495262
0.482555
0.469908
0.457316
0.444776
0.432285
0.419839
0.407436
0.395073
0.382747
0.370457
0.358199
0.345972
0.333774
0.321604
0.309459
0.297339
0.285242
0.273167
0.261114
0.24908
0.237066
0.225071
0.213093
0.201133
0.189188
0.177258
0.165342
0.153439
0.141548
0.129668
0.117798
0.105936
0.0940823
0.0822348
0.0703931
0.0585563
0.0467235
0.0348942
0.0230676
0.0112433
-0.000579297
-0.0124004
-0.0242204
-0.0360395
-0.047858
-0.059676
-0.0714936
-0.0833109
-0.0951281
-0.106945
-0.118762
-0.130578
-0.142395
-0.154212
-0.166029
-0.177845
-0.189662
-0.201478
-0.213294
0.213294
1.27192
1.27192
1.24282
1.20302
1.16187
1.12256
1.08633
1.05352
1.02394
0.997156
0.97268
0.950044
0.92886
0.908823
0.889704
0.871331
0.853579
0.836352
0.819577
0.8032
0.787174
0.771464
0.756039
0.740874
0.725946
0.711235
0.696725
0.6824
0.668245
0.654249
0.640399
0.626686
0.613099
0.59963
0.586271
0.573014
0.559853
0.54678
0.533791
0.52088
0.508041
0.49527
0.482563
0.469915
0.457322
0.444782
0.43229
0.419844
0.407441
0.395077
0.382751
0.370461
0.358203
0.345976
0.333777
0.321607
0.309462
0.297341
0.285244
0.273169
0.261116
0.249082
0.237068
0.225073
0.213095
0.201134
0.189189
0.177259
0.165343
0.15344
0.141549
0.129669
0.117799
0.105937
0.0940827
0.0822352
0.0703934
0.0585565
0.0467238
0.0348944
0.0230678
0.0112434
-0.000579224
-0.0124004
-0.0242204
-0.0360395
-0.047858
-0.059676
-0.0714936
-0.0833109
-0.095128
-0.106945
-0.118762
-0.130578
-0.142395
-0.154212
-0.166029
-0.177845
-0.189662
-0.201477
-0.213293
0.213293
1.26784
1.26784
1.24173
1.20314
1.16237
1.12315
1.0869
1.05402
1.02435
0.997491
0.972944
0.950251
0.929023
0.908953
0.889809
0.871419
0.853652
0.836414
0.819631
0.803247
0.787215
0.771501
0.756072
0.740903
0.725972
0.711259
0.696747
0.682419
0.668263
0.654265
0.640414
0.626699
0.613111
0.599641
0.586281
0.573024
0.559862
0.546789
0.533799
0.520887
0.508048
0.495276
0.482568
0.46992
0.457327
0.444786
0.432294
0.419848
0.407444
0.395081
0.382755
0.370464
0.358205
0.345978
0.33378
0.321609
0.309464
0.297344
0.285246
0.273171
0.261117
0.249084
0.23707
0.225074
0.213096
0.201135
0.18919
0.17726
0.165344
0.153441
0.14155
0.12967
0.117799
0.105937
0.0940832
0.0822356
0.0703938
0.0585568
0.046724
0.0348946
0.0230679
0.0112435
-0.000579128
-0.0124003
-0.0242203
-0.0360395
-0.0478579
-0.0596759
-0.0714936
-0.0833109
-0.095128
-0.106945
-0.118762
-0.130578
-0.142395
-0.154212
-0.166029
-0.177845
-0.189662
-0.201476
-0.213293
0.213293
1.26784
1.26784
1.24173
1.20314
1.16237
1.12315
1.0869
1.05402
1.02435
0.997491
0.972944
0.950251
0.929023
0.908953
0.889809
0.871419
0.853652
0.836414
0.819631
0.803247
0.787215
0.771501
0.756072
0.740903
0.725972
0.711259
0.696747
0.682419
0.668263
0.654265
0.640414
0.626699
0.613111
0.599641
0.586281
0.573024
0.559862
0.546789
0.533799
0.520887
0.508048
0.495276
0.482568
0.46992
0.457327
0.444786
0.432294
0.419848
0.407444
0.395081
0.382755
0.370464
0.358205
0.345978
0.33378
0.321609
0.309464
0.297344
0.285246
0.273171
0.261117
0.249084
0.23707
0.225074
0.213096
0.201135
0.18919
0.17726
0.165344
0.153441
0.14155
0.12967
0.117799
0.105937
0.0940832
0.0822356
0.0703938
0.0585568
0.046724
0.0348946
0.0230679
0.0112435
-0.000579137
-0.0124003
-0.0242203
-0.0360395
-0.0478579
-0.059676
-0.0714936
-0.0833109
-0.095128
-0.106945
-0.118762
-0.130578
-0.142395
-0.154212
-0.166029
-0.177845
-0.189662
-0.201476
-0.213293
0.213293
1.27192
1.27192
1.24282
1.20302
1.16187
1.12256
1.08633
1.05352
1.02394
0.997156
0.97268
0.950044
0.92886
0.908823
0.889704
0.871331
0.853579
0.836352
0.819577
0.8032
0.787174
0.771464
0.756039
0.740874
0.725946
0.711236
0.696725
0.6824
0.668245
0.654249
0.640399
0.626686
0.613099
0.59963
0.586271
0.573014
0.559853
0.54678
0.533791
0.52088
0.508041
0.49527
0.482563
0.469915
0.457322
0.444782
0.43229
0.419844
0.407441
0.395077
0.382751
0.370461
0.358203
0.345975
0.333777
0.321607
0.309462
0.297341
0.285244
0.273169
0.261116
0.249082
0.237068
0.225073
0.213095
0.201134
0.189189
0.177259
0.165343
0.15344
0.141549
0.129669
0.117799
0.105937
0.0940827
0.0822352
0.0703934
0.0585565
0.0467237
0.0348943
0.0230677
0.0112433
-0.000579242
-0.0124004
-0.0242204
-0.0360395
-0.047858
-0.059676
-0.0714936
-0.0833109
-0.095128
-0.106945
-0.118762
-0.130578
-0.142395
-0.154212
-0.166029
-0.177845
-0.189662
-0.201477
-0.213293
0.213293
1.28061
1.28061
1.24483
1.20276
1.16095
1.12148
1.0853
1.05262
1.0232
0.996577
0.972232
0.949699
0.928593
0.908615
0.889539
0.871198
0.85347
0.83626
0.8195
0.803133
0.787116
0.771413
0.755994
0.740834
0.72591
0.711204
0.696697
0.682374
0.668222
0.654228
0.64038
0.626668
0.613083
0.599615
0.586257
0.573001
0.559841
0.54677
0.533781
0.520871
0.508033
0.495262
0.482555
0.469908
0.457316
0.444776
0.432285
0.419839
0.407436
0.395073
0.382747
0.370457
0.358199
0.345972
0.333774
0.321604
0.309459
0.297339
0.285242
0.273167
0.261114
0.24908
0.237066
0.225071
0.213093
0.201132
0.189188
0.177258
0.165342
0.153439
0.141548
0.129668
0.117798
0.105936
0.0940822
0.0822348
0.0703931
0.0585563
0.0467235
0.0348942
0.0230676
0.0112432
-0.000579321
-0.0124004
-0.0242204
-0.0360395
-0.047858
-0.059676
-0.0714936
-0.0833109
-0.095128
-0.106945
-0.118762
-0.130579
-0.142395
-0.154212
-0.166029
-0.177845
-0.189662
-0.201478
-0.213293
0.213293
1.29499
1.29499
1.24733
1.20237
1.15982
1.12021
1.08413
1.05163
1.02241
0.995971
0.971776
0.949359
0.928338
0.908421
0.889389
0.87108
0.853374
0.836182
0.819434
0.803077
0.787068
0.771371
0.755957
0.740801
0.725881
0.711177
0.696673
0.682352
0.668202
0.65421
0.640363
0.626653
0.613069
0.599603
0.586246
0.572991
0.559831
0.546761
0.533773
0.520863
0.508025
0.495256
0.482549
0.469902
0.457311
0.444771
0.43228
0.419835
0.407432
0.395069
0.382744
0.370454
0.358196
0.345969
0.333772
0.321601
0.309457
0.297337
0.28524
0.273165
0.261112
0.249079
0.237065
0.22507
0.213092
0.201132
0.189187
0.177257
0.165341
0.153439
0.141548
0.129668
0.117798
0.105936
0.0940821
0.0822347
0.070393
0.0585562
0.0467235
0.0348942
0.0230676
0.0112432
-0.000579315
-0.0124004
-0.0242204
-0.0360395
-0.047858
-0.059676
-0.0714936
-0.0833109
-0.095128
-0.106945
-0.118762
-0.130579
-0.142395
-0.154212
-0.166029
-0.177845
-0.189662
-0.201479
-0.213294
0.213294
1.31564
1.31564
1.24913
1.20205
1.1591
1.11944
1.08342
1.05104
1.02194
0.995601
0.97149
0.949138
0.928165
0.908283
0.889277
0.870988
0.853297
0.836115
0.819376
0.803026
0.787022
0.771331
0.755921
0.740768
0.725851
0.71115
0.696648
0.68233
0.668181
0.65419
0.640346
0.626637
0.613054
0.599589
0.586233
0.572979
0.55982
0.54675
0.533763
0.520854
0.508017
0.495248
0.482542
0.469895
0.457304
0.444765
0.432275
0.41983
0.407427
0.395065
0.38274
0.37045
0.358192
0.345966
0.333768
0.321598
0.309454
0.297334
0.285238
0.273163
0.26111
0.249077
0.237063
0.225068
0.213091
0.201131
0.189186
0.177256
0.165341
0.153438
0.141548
0.129668
0.117798
0.105936
0.094082
0.0822347
0.070393
0.0585562
0.0467235
0.0348942
0.0230676
0.0112432
-0.000579296
-0.0124004
-0.0242204
-0.0360395
-0.047858
-0.059676
-0.0714936
-0.0833109
-0.095128
-0.106945
-0.118762
-0.130579
-0.142395
-0.154212
-0.166029
-0.177845
-0.189662
-0.201479
-0.213294
0.213294
1.31564
1.31564
1.24913
1.20205
1.1591
1.11944
1.08342
1.05104
1.02194
0.995601
0.97149
0.949138
0.928165
0.908283
0.889277
0.870988
0.853297
0.836115
0.819376
0.803026
0.787022
0.771331
0.755921
0.740768
0.725851
0.71115
0.696648
0.68233
0.668181
0.65419
0.640346
0.626637
0.613054
0.599589
0.586233
0.572979
0.55982
0.54675
0.533763
0.520854
0.508017
0.495248
0.482542
0.469895
0.457304
0.444765
0.432275
0.41983
0.407427
0.395065
0.38274
0.37045
0.358192
0.345966
0.333768
0.321598
0.309454
0.297334
0.285238
0.273163
0.26111
0.249077
0.237063
0.225068
0.213091
0.201131
0.189186
0.177256
0.165341
0.153438
0.141548
0.129668
0.117798
0.105936
0.094082
0.0822347
0.070393
0.0585562
0.0467235
0.0348942
0.0230676
0.0112432
-0.000579296
-0.0124004
-0.0242204
-0.0360395
-0.047858
-0.059676
-0.0714936
-0.0833109
-0.095128
-0.106945
-0.118762
-0.130579
-0.142395
-0.154212
-0.166029
-0.177845
-0.189662
-0.201479
-0.213294
0.213294
SCALARS phi double
LOOKUP_TABLE phi
1
1
1
0.999995
0.999977
0.999931
0.999833
0.999654
0.999363
0.998928
0.998322
0.997523
0.996512
0.995278
0.993814
0.992118
0.990188
0.988029
0.985651
0.983067
0.980287
0.977297
0.974037
0.970383
0.966147
0.961091
0.95496
0.947507
0.938527
0.927872
0.915455
0.901252
0.885293
0.867655
0.848449
0.827815
0.80591
0.782903
0.758969
0.734283
0.709015
0.683327
0.657375
0.631299
0.605229
0.579282
0.553561
0.528158
0.503151
0.478606
0.454582
0.431124
0.408271
0.386051
0.364489
0.3436
0.323395
0.30388
0.285058
0.266928
0.249485
0.232724
0.216638
0.201217
0.186453
0.172336
0.158856
0.146005
0.133773
0.122154
0.11114
0.100726
0.0909047
0.0816728
0.0730254
0.0649577
0.0574646
0.0505397
0.0441748
0.0383598
0.0330818
0.0283248
0.0240695
0.0202935
0.016971
0.0140734
0.0115695
0.00942656
0.00761061
0.00608733
0.00482279
0.00378411
0.00294011
0.00226176
0.00172253
0.00129865
0.000969091
0.000715987
0.000522671
0.000381675
0.000257433
0.000257433
1
1
1
0.999995
0.999977
0.999931
0.999833
0.999654
0.999363
0.998928
0.998322
0.997523
0.996512
0.995278
0.993814
0.992118
0.990188
0.988029
0.985651
0.983067
0.980287
0.977297
0.974037
0.970383
0.966147
0.961091
0.95496
0.947507
0.938527
0.927872
0.915455
0.901252
0.885293
0.867655
0.848449
0.827815
0.80591
0.782903
0.758969
0.734283
0.709015
0.683327
0.657375
0.631299
0.605229
0.579282
0.553561
0.528158
0.503151
0.478606
0.454582
0.431124
0.408271
0.386051
0.364489
0.3436
0.323395
0.30388
0.285058
0.266928
0.249485
0.232724
0.216638
0.201217
0.186453
0.172336
0.158856
0.146005
0.133773
0.122154
0.11114
0.100726
0.0909047
0.0816728
0.0730254
0.0649577
0.0574646
0.0505397
0.0441748
0.0383598
0.0330818
0.0283248
0.0240695
0.0202935
0.016971
0.0140734
0.0115695
0.00942656
0.00761061
0.00608733
0.00482279
0.00378411
0.00294011
0.00226176
0.00172253
0.00129865
0.000969091
0.000715987
0.000522671
0.000381675
0.000257433
0.000257433
0.999998
1
0.999984
0.999921
0.999783
0.999536
0.999146
0.99858
0.997811
0.996819
0.995589
0.994116
0.992397
0.990436
0.98824
0.985816
0.983177
0.980332
0.977295
0.974081
0.970704
0.967175
0.963497
0.959652
0.955592
0.951239
0.946483
0.941191
0.935216
0.928412
0.920644
0.911798
0.901786
0.890553
0.878072
0.864347
0.849407
0.833306
0.816116
0.797927
0.778837
0.758953
0.738388
0.717252
0.695659
0.673715
0.651524
0.629185
0.606787
0.584415
0.562145
0.540044
0.518174
0.49659
0.475336
0.454454
0.433977
0.413933
0.394342
0.375223
0.356585
0.338438
0.320784
0.303622
0.286949
0.270759
0.255043
0.239792
0.224994
0.210639
0.196714
0.183211
0.170122
0.157442
0.145171
0.133312
0.121875
0.110873
0.100325
0.0902537
0.0806855
0.0716475
0.0631663
0.0552664
0.0479676
0.0412834
0.0352197
0.0297738
0.0249338
0.020679
0.0169805
0.0138026
0.011104
0.00883968
0.00696269
0.00542574
0.00418228
0.00319002
0.00240175
0.00181007
0.0012564
0.0012564
1.00001
0.999992
0.99954
0.998615
0.997207
0.995316
0.992954
0.990144
0.986922
0.983331
0.979421
0.975241
0.970836
0.966247
0.961513
0.956664
0.951728
0.946727
0.941682
0.936608
0.931519
0.926428
0.921343
0.916268
0.911202
0.906132
0.901036
0.895875
0.890601
0.885152
0.879459
0.873448
0.867043
0.860172
0.852766
0.844767
0.836128
0.82681
0.816791
0.806058
0.794613
0.782465
0.769637
0.75616
0.742071
0.727414
0.712238
0.696595
0.68054
0.664128
0.647414
0.630453
0.613299
0.596003
0.578615
0.561181
0.543743
0.526342
0.509012
0.491786
0.474692
0.457752
0.440985
0.424407
0.408026
0.391847
0.375872
0.360096
0.344509
0.329101
0.313853
0.298746
0.283759
0.268869
0.254056
0.239304
0.224603
0.209953
0.195368
0.180875
0.166517
0.152354
0.138459
0.124918
0.111824
0.0992747
0.087364
0.0761781
0.0657905
0.0562573
0.0476151
0.0398789
0.0330427
0.0270804
0.0219489
0.0175914
0.013939
0.0109243
0.00844432
0.00653521
0.00465899
0.00465899
1.00143
0.99857
0.991252
0.98188
0.971566
0.96086
0.950051
0.939311
0.928756
0.918467
0.908503
0.898898
0.889671
0.880827
0.87236
0.864261
0.856512
0.849098
0.841997
0.835192
0.828664
0.822395
0.816369
0.810569
0.804979
0.799584
0.794367
0.789307
0.784384
0.77957
0.774837
0.77015
0.765473
0.760766
0.755986
0.75109
0.746036
0.740782
0.735289
0.729521
0.723444
0.717032
0.71026
0.703112
0.695573
0.687635
0.679297
0.670558
0.661426
0.651909
0.642021
0.631778
0.621197
0.610301
0.59911
0.587648
0.575939
0.564006
0.551875
0.539568
0.527107
0.514515
0.501809
0.489007
0.476123
0.463168
0.450149
0.437069
0.423925
0.410709
0.397407
0.383996
0.370448
0.356727
0.34279
0.328591
0.314086
0.299231
0.283994
0.26836
0.252334
0.235946
0.21926
0.202369
0.185395
0.168487
0.151813
0.13555
0.119878
0.104964
0.0909582
0.0779836
0.0661308
0.0554551
0.045976
0.0376802
0.0305203
0.0244438
0.0192981
0.0152546
0.0111195
0.0111195
1.0456
0.954401
0.887723
0.838674
0.801641
0.772861
0.749886
0.731119
0.715499
0.702298
0.691001
0.681228
0.672693
0.665173
0.658493
0.652515
0.647126
0.642236
0.637772
0.633674
0.629891
0.626383
0.623115
0.620059
0.617191
0.614489
0.611936
0.609515
0.607212
0.605012
0.602901
0.600865
0.598888
0.596954
0.595046
0.593145
0.591231
0.589283
0.587281
0.585201
0.583021
0.580721
0.578278
0.575671
0.572882
0.569891
0.566683
0.563243
0.559556
0.555613
0.551405
0.546923
0.542163
0.537121
0.531796
0.526189
0.5203
0.514132
0.507691
0.50098
0.494007
0.486778
0.479299
0.471576
0.463617
0.455424
0.447001
0.438349
0.429463
0.420335
0.410951
0.401288
0.391315
0.380989
0.370257
0.359057
0.347319
0.33497
0.321942
0.308174
0.293628
0.278291
0.262189
0.245386
0.227992
0.210157
0.192072
0.173954
0.15604
0.138568
0.121771
0.105858
0.0910072
0.0773546
0.0649926
0.0539696
0.0442824
0.0359204
0.0287128
0.0229793
0.0169737
0.0169737
-0.0455988
0.0455988
0.112277
0.161327
0.198359
0.227139
0.250114
0.268881
0.284502
0.297702
0.308999
0.318772
0.327307
0.334827
0.341507
0.347485
0.352874
0.357764
0.362228
0.366327
0.37011
0.373618
0.376885
0.379941
0.38281
0.385512
0.388064
0.390482
0.392778
0.394964
0.397048
0.399039
0.400941
0.402761
0.4045
0.40616
0.407743
0.409245
0.410665
0.411999
0.413241
0.414384
0.415422
0.416346
0.417145
0.417812
0.418333
0.4187
0.4189
0.418922
0.418755
0.418388
0.41781
0.41701
0.41598
0.41471
0.413191
0.411415
0.409377
0.407069
0.404486
0.401623
0.398477
0.395042
0.391315
0.38729
0.382963
0.378324
0.373364