# vtk DataFile Version 3.0
FlowField
ASCII
DATASET STRUCTURED_GRID
DIMENSIONS 22 17 12 
POINTS 4488 double
0 0 0
5 0 0
10 0 0
15 0 0
20 0 0
25 0 0
30 0 0
35 0 0
40 0 0
45 0 0
50 0 0
55 0 0
60 0 0
65 0 0
70 0 0
75 0 0
80 0 0
85 0 0
90 0 0
95 0 0
100 0 0
105 0 0
0 1 0
5 1 0
10 1 0
15 1 0
20 1 0
25 1 0
30 1 0
35 1 0
40 1 0
45 1 0
50 1 0
55 1 0
60 1 0
65 1 0
70 1 0
75 1 0
80 1 0
85 1 0
90 1 0
95 1 0
100 1 0
105 1 0
0 2 0
5 2 0
10 2 0
15 2 0
20 2 0
25 2 0
30 2 0
35 2 0
40 2 0
45 2 0
50 2 0
55 2 0
60 2 0
65 2 0
70 2 0
75 2 0
80 2 0
85 2 0
90 2 0
95 2 0
100 2 0
105 2 0
0 3 0
5 3 0
10 3 0
15 3 0
20 3 0
25 3 0
30 3 0
35 3 0
40 3 0
45 3 0
50 3 0
55 3 0
60 3 0
65 3 0
70 3 0
75 3 0
80 3 0
85 3 0
90 3 0
95 3 0
100 3 0
105 3 0
0 4 0
5 4 0
10 4 0
15 4 0
20 4 0
25 4 0
30 4 0
35 4 0
40 4 0
45 4 0
50 4 0
55 4 0
60 4 0
65 4 0
70 4 0
75 4 0
80 4 0
85 4 0
90 4 0
95 4 0
100 4 0
105 4 0
0 5 0
5 5 0
10 5 0
15 5 0
20 5 0
25 5 0
30 5 0
35 5 0
40 5 0
45 5 0
50 5 0
55 5 0
60 5 0
65 5 0
70 5 0
75 5 0
80 5 0
85 5 0
90 5 0
95 5 0
100 5 0
105 5 0
0 6 0
5 6 0
10 6 0
15 6 0
20 6 0
25 6 0
30 6 0
35 6 0
40 6 0
45 6 0
50 6 0
55 6 0
60 6 0
65 6 0
70 6 0
75 6 0
80 6 0
85 6 0
90 6 0
95 6 0
100 6 0
105 6 0
0 7 0
5 7 0
10 7 0
15 7 0
20 7 0
25 7 0
30 7 0
35 7 0
40 7 0
45 7 0
50 7 0
55 7 0
60 7 0
65 7 0
70 7 0
75 7 0
80 7 0
85 7 0
90 7 0
95 7 0
100 7 0
105 7 0
0 8 0
5 8 0
10 8 0
15 8 0
20 8 0
25 8 0
30 8 0
35 8 0
40 8 0
45 8 0
50 8 0
55 8 0
60 8 0
65 8 0
70 8 0
75 8 0
80 8 0
85 8 0
90 8 0
95 8 0
100 8 0
105 8 0
0 9 0
5 9 0
10 9 0
15 9 0
20 9 0
25 9 0
30 9 0
35 9 0
40 9 0
45 9 0
50 9 0
55 9 0
60 9 0
65 9 0
70 9 0
75 9 0
80 9 0
85 9 0
90 9 0
95 9 0
100 9 0
105 9 0
0 10 0
5 10 0
10 10 0
15 10 0
20 10 0
25 10 0
30 10 0
35 10 0
40 10 0
45 10 0
50 10 0
55 10 0
60 10 0
65 10 0
70 10 0
75 10 0
80 10 0
85 10 0
90 10 0
95 10 0
100 10 0
105 10 0
0 11 0
5 11 0
10 11 0
15 11 0
20 11 0
25 11 0
30 11 0
35 11 0
40 11 0
45 11 0
50 11 0
55 11 0
60 11 0
65 11 0
70 11 0
75 11 0
80 11 0
85 11 0
90 11 0
95 11 0
100 11 0
105 11 0
0 12 0
5 12 0
10 12 0
15 12 0
20 12 0
25 12 0
30 12 0
35 12 0
40 12 0
45 12 0
50 12 0
55 12 0
60 12 0
65 12 0
70 12 0
75 12 0
80 12 0
85 12 0
90 12 0
95 12 0
100 12 0
105 12 0
0 13 0
5 13 0
10 13 0
15 13 0
20 13 0
25 13 0
30 13 0
35 13 0
40 13 0
45 13 0
50 13 0
55 13 0
60 13 0
65 13 0
70 13 0
75 13 0
80 13 0
85 13 0
90 13 0
95 13 0
100 13 0
105 13 0
0 14 0
5 14 0
10 14 0
15 14 0
20 14 0
25 14 0
30 14 0
35 14 0
40 14 0
45 14 0
50 14 0
55 14 0
60 14 0
65 14 0
70 14 0
75 14 0
80 14 0
85 14 0
90 14 0
95 14 0
100 14 0
105 14 0
0 15 0
5 15 0
10 15 0
15 15 0
20 15 0
25 15 0
30 15 0
35 15 0
40 15 0
45 15 0
50 15 0
55 15 0
60 15 0
65 15 0
70 15 0
75 15 0
80 15 0
85 15 0
90 15 0
95 15 0
100 15 0
105 15 0
0 16 0
5 16 0
10 16 0
15 16 0
20 16 0
25 16 0
30 16 0
35 16 0
40 16 0
45 16 0
50 16 0
55 16 0
60 16 0
65 16 0
70 16 0
75 16 0
80 16 0
85 16 0
90 16 0
95 16 0
100 16 0
105 16 0
0 0 1
5 0 1
10 0 1
15 0 1
20 0 1
25 0 1
30 0 1
35 0 1
40 0 1
45 0 1
50 0 1
55 0 1
60 0 1
65 0 1
70 0 1
75 0 1
80 0 1
85 0 1
90 0 1
95 0 1
100 0 1
105 0 1
0 1 1
5 1 1
10 1 1
15 1 1
20 1 1
25 1 1
30 1 1
35 1 1
40 1 1
45 1 1
50 1 1
55 1 1
60 1 1
65 1 1
70 1 1
75 1 1
80 1 1
85 1 1
90 1 1
95 1 1
100 1 1
105 1 1
0 2 1
5 2 1
10 2 1
15 2 1
20 2 1
25 2 1
30 2 1
35 2 1
40 2 1
45 2 1
50 2 1
55 2 1
60 2 1
65 2 1
70 2 1
75 2 1
80 2 1
85 2 1
90 2 1
95 2 1
100 2 1
105 2 1
0 3 1
5 3 1
10 3 1
15 3 1
20 3 1
25 3 1
30 3 1
35 3 1
40 3 1
45 3 1
50 3 1
55 3 1
60 3 1
65 3 1
70 3 1
75 3 1
80 3 1
85 3 1
90 3 1
95 3 1
100 3 1
105 3 1
0 4 1
5 4 1
10 4 1
15 4 1
20 4 1
25 4 1
30 4 1
35 4 1
40 4 1
45 4 1
50 4 1
55 4 1
60 4 1
65 4 1
70 4 1
75 4 1
80 4 1
85 4 1
90 4 1
95 4 1
100 4 1
105 4 1
0 5 1
5 5 1
10 5 1
15 5 1
20 5 1
25 5 1
30 5 1
35 5 1
40 5 1
45 5 1
50 5 1
55 5 1
60 5 1
65 5 1
70 5 1
75 5 1
80 5 1
85 5 1
90 5 1
95 5 1
100 5 1
105 5 1
0 6 1
5 6 1
10 6 1
15 6 1
20 6 1
25 6 1
30 6 1
35 6 1
40 6 1
45 6 1
50 6 1
55 6 1
60 6 1
65 6 1
70 6 1
75 6 1
80 6 1
85 6 1
90 6 1
95 6 1
100 6 1
105 6 1
0 7 1
5 7 1
10 7 1
15 7 1
20 7 1
25 7 1
30 7 1
35 7 1
40 7 1
45 7 1
50 7 1
55 7 1
60 7 1
65 7 1
70 7 1
75 7 1
80 7 1
85 7 1
90 7 1
95 7 1
100 7 1
105 7 1
0 8 1
5 8 1
10 8 1
15 8 1
20 8 1
25 8 1
30 8 1
35 8 1
40 8 1
45 8 1
50 8 1
55 8 1
60 8 1
65 8 1
70 8 1
75 8 1
80 8 1
85 8 1
90 8 1
95 8 1
100 8 1
105 8 1
0 9 1
5 9 1
10 9 1
15 9 1
20 9 1
25 9 1
30 9 1
35 9 1
40 9 1
45 9 1
50 9 1
55 9 1
60 9 1
65 9 1
70 9 1
75 9 1
80 9 1
85 9 1
90 9 1
95 9 1
100 9 1
105 9 1
0 10 1
5 10 1
10 10 1
15 10 1
20 10 1
25 10 1
30 10 1
35 10 1
40 10 1
45 10 1
50 10 1
55 10 1
60 10 1
65 10 1
70 10 1
75 10 1
80 10 1
85 10 1
90 10 1
95 10 1
100 10 1
105 10 1
0 11 1
5 11 1
10 11 1
15 11 1
20 11 1
25 11 1
30 11 1
35 11 1
40 11 1
45 11 1
50 11 1
55 11 1
60 11 1
65 11 1
70 11 1
75 11 1
80 11 1
85 11 1
90 11 1
95 11 1
100 11 1
105 11 1
0 12 1
5 12 1
10 12 1
15 12 1
20 12 1
25 12 1
30 12 1
35 12 1
40 12 1
45 12 1
50 12 1
55 12 1
60 12 1
65 12 1
70 12 1
75 12 1
80 12 1
85 12 1
90 12 1
95 12 1
100 12 1
105 12 1
0 13 1
5 13 1
10 13 1
15 13 1
20 13 1
25 13 1
30 13 1
35 13 1
40 13 1
45 13 1
50 13 1
55 13 1
60 13 1
65 13 1
70 13 1
75 13 1
80 13 1
85 13 1
90 13 1
95 13 1
100 13 1
105 13 1
0 14 1
5 14 1
10 14 1
15 14 1
20 14 1
25 14 1
30 14 1
35 14 1
40 14 1
45 14 1
50 14 1
55 14 1
60 14 1
65 14 1
70 14 1
75 14 1
80 14 1
85 14 1
90 14 1
95 14 1
100 14 1
105 14 1
0 15 1
5 15 1
10 15 1
15 15 1
20 15 1
25 15 1
30 15 1
35 15 1
40 15 1
45 15 1
50 15 1
55 15 1
60 15 1
65 15 1
70 15 1
75 15 1
80 15 1
85 15 1
90 15 1
95 15 1
100 15 1
105 15 1
0 16 1
5 16 1
10 16 1
15 16 1
20 16 1
25 16 1
30 16 1
35 16 1
40 16 1
45 16 1
50 16 1
55 16 1
60 16 1
65 16 1
70 16 1
75 16 1
80 16 1
85 16 1
90 16 1
95 16 1
100 16 1
105 16 1
0 0 2
5 0 2
10 0 2
15 0 2
20 0 2
25 0 2
30 0 2
35 0 2
40 0 2
45 0 2
50 0 2
55 0 2
60 0 2
65 0 2
70 0 2
75 0 2
80 0 2
85 0 2
90 0 2
95 0 2
100 0 2
105 0 2
0 1 2
5 1 2
10 1 2
15 1 2
20 1 2
25 1 2
30 1 2
35 1 2
40 1 2
45 1 2
50 1 2
55 1 2
60 1 2
65 1 2
70 1 2
75 1 2
80 1 2
85 1 2
90 1 2
95 1 2
100 1 2
105 1 2
0 2 2
5 2 2
10 2 2
15 2 2
20 2 2
25 2 2
30 2 2
35 2 2
40 2 2
45 2 2
50 2 2
55 2 2
60 2 2
65 2 2
70 2 2
75 2 2
80 2 2
85 2 2
90 2 2
95 2 2
100 2 2
105 2 2
0 3 2
5 3 2
10 3 2
15 3 2
20 3 2
25 3 2
30 3 2
35 3 2
40 3 2
45 3 2
50 3 2
55 3 2
60 3 2
65 3 2
70 3 2
75 3 2
80 3 2
85 3 2
90 3 2
95 3 2
100 3 2
105 3 2
0 4 2
5 4 2
10 4 2
15 4 2
20 4 2
25 4 2
30 4 2
35 4 2
40 4 2
45 4 2
50 4 2
55 4 2
60 4 2
65 4 2
70 4 2
75 4 2
80 4 2
85 4 2
90 4 2
95 4 2
100 4 2
105 4 2
0 5 2
5 5 2
10 5 2
15 5 2
20 5 2
25 5 2
30 5 2
35 5 2
40 5 2
45 5 2
50 5 2
55 5 2
60 5 2
65 5 2
70 5 2
75 5 2
80 5 2
85 5 2
90 5 2
95 5 2
100 5 2
105 5 2
0 6 2
5 6 2
10 6 2
15 6 2
20 6 2
25 6 2
30 6 2
35 6 2
40 6 2
45 6 2
50 6 2
55 6 2
60 6 2
65 6 2
70 6 2
75 6 2
80 6 2
85 6 2
90 6 2
95 6 2
100 6 2
105 6 2
0 7 2
5 7 2
10 7 2
15 7 2
20 7 2
25 7 2
30 7 2
35 7 2
40 7 2
45 7 2
50 7 2
55 7 2
60 7 2
65 7 2
70 7 2
75 7 2
80 7 2
85 7 2
90 7 2
95 7 2
100 7 2
105 7 2
0 8 2
5 8 2
10 8 2
15 8 2
20 8 2
25 8 2
30 8 2
35 8 2
40 8 2
45 8 2
50 8 2
55 8 2
60 8 2
65 8 2
70 8 2
75 8 2
80 8 2
85 8 2
90 8 2
95 8 2
100 8 2
105 8 2
0 9 2
5 9 2
10 9 2
15 9 2
20 9 2
25 9 2
30 9 2
35 9 2
40 9 2
45 9 2
50 9 2
55 9 2
60 9 2
65 9 2
70 9 2
75 9 2
80 9 2
85 9 2
90 9 2
95 9 2
100 9 2
105 9 2
0 10 2
5 10 2
10 10 2
15 10 2
20 10 2
25 10 2
30 10 2
35 10 2
40 10 2
45 10 2
50 10 2
55 10 2
60 10 2
65 10 2
70 10 2
75 10 2
80 10 2
85 10 2
90 10 2
95 10 2
100 10 2
105 10 2
0 11 2
5 11 2
10 11 2
15 11 2
20 11 2
25 11 2
30 11 2
35 11 2
40 11 2
45 11 2
50 11 2
55 11 2
60 11 2
65 11 2
70 11 2
75 11 2
80 11 2
85 11 2
90 11 2
95 11 2
100 11 2
105 11 2
0 12 2
5 12 2
10 12 2
15 12 2
20 12 2
25 12 2
30 12 2
35 12 2
40 12 2
45 12 2
50 12 2
55 12 2
60 12 2
65 12 2
70 12 2
75 12 2
80 12 2
85 12 2
90 12 2
95 12 2
100 12 2
105 12 2
0 13 2
5 13 2
10 13 2
15 13 2
20 13 2
25 13 2
30 13 2
35 13 2
40 13 2
45 13 2
50 13 2
55 13 2
60 13 2
65 13 2
70 13 2
75 13 2
80 13 2
85 13 2
90 13 2
95 13 2
100 13 2
105 13 2
0 14 2
5 14 2
10 14 2
15 14 2
20 14 2
25 14 2
30 14 2
35 14 2
40 14 2
45 14 2
50 14 2
55 14 2
60 14 2
65 14 2
70 14 2
75 14 2
80 14 2
85 14 2
90 14 2
95 14 2
100 14 2
105 14 2
0 15 2
5 15 2
10 15 2
15 15 2
20 15 2
25 15 2
30 15 2
35 15 2
40 15 2
45 15 2
50 15 2
55 15 2
60 15 2
65 15 2
70 15 2
75 15 2
80 15 2
85 15 2
90 15 2
95 15 2
100 15 2
105 15 2
0 16 2
5 16 2
10 16 2
15 16 2
20 16 2
25 16 2
30 16 2
35 16 2
40 16 2
45 16 2
50 16 2
55 16 2
60 16 2
65 16 2
70 16 2
75 16 2
80 16 2
85 16 2
90 16 2
95 16 2
100 16 2
105 16 2
0 0 3
5 0 3
10 0 3
15 0 3
20 0 3
25 0 3
30 0 3
35 0 3
40 0 3
45 0 3
50 0 3
55 0 3
60 0 3
65 0 3
70 0 3
75 0 3
80 0 3
85 0 3
90 0 3
95 0 3
100 0 3
105 0 3
0 1 3
5 1 3
10 1 3
15 1 3
20 1 3
25 1 3
30 1 3
35 1 3
40 1 3
45 1 3
50 1 3
55 1 3
60 1 3
65 1 3
70 1 3
75 1 3
80 1 3
85 1 3
90 1 3
95 1 3
100 1 3
105 1 3
0 2 3
5 2 3
10 2 3
15 2 3
20 2 3
25 2 3
30 2 3
35 2 3
40 2 3
45 2 3
50 2 3
55 2 3
60 2 3
65 2 3
70 2 3
75 2 3
80 2 3
85 2 3
90 2 3
95 2 3
100 2 3
105 2 3
0 3 3
5 3 3
10 3 3
15 3 3
20 3 3
25 3 3
30 3 3
35 3 3
40 3 3
45 3 3
50 3 3
55 3 3
60 3 3
65 3 3
70 3 3
75 3 3
80 3 3
85 3 3
90 3 3
95 3 3
100 3 3
105 3 3
0 4 3
5 4 3
10 4 3
15 4 3
20 4 3
25 4 3
30 4 3
35 4 3
40 4 3
45 4 3
50 4 3
55 4 3
60 4 3
65 4 3
70 4 3
75 4 3
80 4 3
85 4 3
90 4 3
95 4 3
100 4 3
105 4 3
0 5 3
5 5 3
10 5 3
15 5 3
20 5 3
25 5 3
30 5 3
35 5 3
40 5 3
45 5 3
50 5 3
55 5 3
60 5 3
65 5 3
70 5 3
75 5 3
80 5 3
85 5 3
90 5 3
95 5 3
100 5 3
105 5 3
0 6 3
5 6 3
10 6 3
15 6 3
20 6 3
25 6 3
30 6 3
35 6 3
40 6 3
45 6 3
50 6 3
55 6 3
60 6 3
65 6 3
70 6 3
75 6 3
80 6 3
85 6 3
90 6 3
95 6 3
100 6 3
105 6 3
0 7 3
5 7 3
10 7 3
15 7 3
20 7 3
25 7 3
30 7 3
35 7 3
40 7 3
45 7 3
50 7 3
55 7 3
60 7 3
65 7 3
70 7 3
75 7 3
80 7 3
85 7 3
90 7 3
95 7 3
100 7 3
105 7 3
0 8 3
5 8 3
10 8 3
15 8 3
20 8 3
25 8 3
30 8 3
35 8 3
40 8 3
45 8 3
50 8 3
55 8 3
60 8 3
65 8 3
70 8 3
75 8 3
80 8 3
85 8 3
90 8 3
95 8 3
100 8 3
105 8 3
0 9 3
5 9 3
10 9 3
15 9 3
20 9 3
25 9 3
30 9 3
35 9 3
40 9 3
45 9 3
50 9 3
55 9 3
60 9 3
65 9 3
70 9 3
75 9 3
80 9 3
85 9 3
90 9 3
95 9 3
100 9 3
105 9 3
0 10 3
5 10 3
10 10 3
15 10 3
[...]
POINT_DATA 4488

SCALARS pressure double
LOOKUP_TABLE pressure
0
0
0
0
0
0
0
0
0
0
0
0
0
0
0
0
0
0
0
0
0
0
0
8263.92
8263.95
8263.92
8263.74
8263.65
8263.58
8263.58
8263.49
8263.81
8263.4
8263.24
8263.03
8262.67
8262.07
8261.19
8258.53
8259.1
8258.71
8258.56
8258.58
0
0
8263.93
8263.96
8263.94
8263.75
8263.66
8263.58
8263.59
8263.49
8263.33
8263.4
8263.25
8263.04
8262.67
8262.1
8261.25
8258.32
8259.12
8258.71
8258.56
8258.59
0
0
8263.95
8263.97
8263.96
8263.76
8263.67
8263.66
8263.61
8263.49
8263.39
8263.41
8263.28
8262.87
8262.68
8262.15
8261.36
8261.3
8259.21
8258.7
8258.55
8258.6
0
0
8263.97
8263.98
8263.99
8263.78
8263.51
8263.68
8263.64
8263.58
8263.44
8263.43
8263.31
8262.92
8262.72
8262.22
8261.48
8261.18
8259.22
8258.67
8258.54
8258.62
0
0
8263.99
8264
8263.9
8263.8
8263.52
8263.7
8263.68
8263.59
8263.49
8263.47
8263.36
8263.28
8262.77
8262.29
8261.57
8261.09
8259.15
8258.63
8258.53
8258.65
0
0
8264.02
8264.02
8263.94
8263.83
8263.52
8263.73
8263.72
8263.6
8263.55
8263.51
8263.41
8263.27
8262.84
8262.36
8261.66
8261.05
8259.03
8258.16
8258.5
8258.68
0
0
8264.05
8264.06
8263.99
8263.88
8263.5
8263.78
8263.77
8263.61
8263.61
8263.55
8263.47
8263.35
8262.97
8262.45
8261.83
8261.06
8258.85
8258.06
8258.49
8258.71
0
0
8264.09
8264.1
8264.04
8263.93
8263.46
8263.82
8263.82
8263.9
8263.67
8263.6
8263.53
8263.43
8263.11
8262.53
8261.95
8261.11
8258.6
8257.89
8258.48
8258.75
0
0
8264.14
8264.14
8264.1
8263.99
8263.34
8263.88
8263.88
8263.93
8263.74
8263.66
8263.6
8263.52
8263.26
8262.71
8262
8261.21
8258.26
8257.67
8258.37
8258.8
0
0
8264.19
8264.2
8264.16
8264.08
8264.35
8264.01
8263.95
8263.97
8263.8
8263.72
8263.67
8263.62
8263.43
8262.85
8262.08
8261.35
8257.71
8257.38
8258.39
8258.85
0
0
8264.24
8264.26
8264.23
8264.18
8264.24
8264.1
8264.02
8264.03
8263.87
8263.79
8263.75
8263.73
8263.61
8262.99
8262.12
8261.55
8256.71
8257.04
8258.42
8258.9
0
0
8264.31
8264.32
8264.31
8264.28
8264.29
8264.17
8264.09
8264.1
8263.93
8263.86
8263.84
8263.85
8263.81
8263.14
8262.13
8261.84
8256.15
8256.67
8258.47
8258.95
0
0
8264.37
8264.39
8264.39
8264.36
8264.34
8264.24
8264.17
8264.06
8264
8263.93
8263.92
8263.97
8264.03
8263.26
8265.07
8262.34
8254.74
8256.19
8258.56
8259.01
0
0
8264.44
8264.46
8264.47
8264.45
8264.37
8264.31
8264.25
8264.15
8264.07
8264.01
8264.01
8264.1
8264.29
8264.99
8265.25
8262.82
8252.66
8255.62
8258.69
8259.07
0
0
8264.52
8264.54
8264.56
8264.55
8264.4
8264.38
8264.33
8264.24
8264.14
8264.09
8264.11
8264.23
8264.54
8265.05
8265.4
8264.83
8250.97
8254.91
8258.95
8259.12
0
0
0
0
0
0
0
0
0
0
0
0
0
0
0
0
0
0
0
0
0
0
0
0
8263.92
8263.95
8263.92
8263.74
8263.65
8263.58
8263.58
8263.49
8263.81
8263.4
8263.24
8263.03
8262.67
8262.07
8261.19
8258.53
8259.1
8258.71
8258.56
8258.58
0
-8263.92
8263.92
8263.95
8263.92
8263.74
8263.65
8263.58
8263.58
8263.49
8263.81
8263.4
8263.24
8263.03
8262.67
8262.07
8261.19
8258.53
8259.1
8258.71
8258.56
8258.58
8258.58
0.0526737
8263.93
8263.96
8263.94
8263.75
8263.66
8263.58
8263.59
8263.49
8263.33
8263.4
8263.25
8263.04
8262.67
8262.1
8261.25
8258.32
8259.12
8258.71
8258.56
8258.59
8258.59
-8263.95
8263.95
8263.97
8263.96
8263.76
8263.67
8263.66
8263.61
8263.49
8263.39
8263.41
8263.28
8262.87
8262.68
8262.15
8261.36
8261.3
8259.21
8258.7
8258.55
8258.6
8258.6
-8263.97
8263.97
8263.98
8263.99
8263.78
8263.51
8263.68
8263.64
8263.58
8263.44
8263.43
8263.31
8262.92
8262.72
8262.22
8261.48
8261.18
8259.22
8258.67
8258.54
8258.62
8258.62
-8263.99
8263.99
8264
8263.9
8263.8
8263.52
8263.7
8263.68
8263.59
8263.49
8263.47
8263.36
8263.28
8262.77
8262.29
8261.57
8261.09
8259.15
8258.63
8258.53
8258.65
8258.65
-8264.02
8264.02
8264.02
8263.94
8263.83
8263.52
8263.73
8263.72
8263.6
8263.55
8263.51
8263.41
8263.27
8262.84
8262.36
8261.66
8261.05
8259.03
8258.16
8258.5
8258.68
8258.68
-8264.05
8264.05
8264.06
8263.99
8263.88
8263.5
8263.78
8263.77
8263.61
8263.61
8263.55
8263.47
8263.35
8262.97
8262.45
8261.83
8261.06
8258.85
8258.06
8258.49
8258.71
8258.71
-8264.09
8264.09
8264.1
8264.04
8263.93
8263.46
8263.82
8263.82
8263.9
8263.67
8263.6
8263.53
8263.43
8263.11
8262.53
8261.95
8261.11
8258.6
8257.89
8258.48
8258.75
8258.75
-8264.14
8264.14
8264.14
8264.1
8263.99
8263.34
8263.88
8263.88
8263.93
8263.74
8263.66
8263.6
8263.52
8263.26
8262.71
8262
8261.21
8258.26
8257.67
8258.37
8258.8
8258.8
-8264.19
8264.19
8264.2
8264.16
8264.08
8264.35
8264.01
8263.95
8263.97
8263.8
8263.72
8263.67
8263.62
8263.43
8262.85
8262.08
8261.35
8257.71
8257.38
8258.39
8258.85
8258.85
-8264.24
8264.24
8264.26
8264.23
8264.18
8264.24
8264.1
8264.02
8264.03
8263.87
8263.79
8263.75
8263.73
8263.61
8262.99
8262.12
8261.55
8256.71
8257.04
8258.42
8258.9
8258.9
-8264.31
8264.31
8264.32
8264.31
8264.28
8264.29
8264.17
8264.09
8264.1
8263.93
8263.86
8263.84
8263.85
8263.81
8263.14
8262.13
8261.84
8256.15
8256.67
8258.47
8258.95
8258.95
-8264.37
8264.37
8264.39
8264.39
8264.36
8264.34
8264.24
8264.17
8264.06
8264
8263.93
8263.92
8263.97
8264.03
8263.26
8265.07
8262.34
8254.74
8256.19
8258.56
8259.01
8259.01
-8264.44
8264.44
8264.46
8264.47
8264.45
8264.37
8264.31
8264.25
8264.15
8264.07
8264.01
8264.01
8264.1
8264.29
8264.99
8265.25
8262.82
8252.66
8255.62
8258.69
8259.07
8259.07
-8264.52
8264.52
8264.54
8264.56
8264.55
8264.4
8264.38
8264.33
8264.24
8264.14
8264.09
8264.11
8264.23
8264.54
8265.05
8265.4
8264.83
8250.97
8254.91
8258.95
8259.12
8259.12
0
8264.52
8264.54
8264.56
8264.55
8264.4
8264.38
8264.33
8264.24
8264.14
8264.09
8264.11
8264.23
8264.54
8265.05
8265.4
8264.83
8250.97
8254.91
8258.95
8259.12
0
0
8264
8264.06
8263.99
8263.85
8263.73
8263.67
8263.65
8263.59
8263.45
8263.45
8263.31
8263.18
8262.72
8262.15
8261.31
8259.58
8259.45
8258.89
8258.7
8258.67
0
-8264
8264
8264.06
8263.99
8263.85
8263.73
8263.67
8263.65
8263.59
8263.45
8263.45
8263.31
8263.18
8262.72
8262.15
8261.31
8259.58
8259.45
8258.89
8258.7
8258.67
8258.67
-8264.01
8264.01
8264.11
8264
8263.85
8263.75
8263.69
8263.65
8263.59
8263.46
8263.46
8263.32
8263.11
8262.74
8262.18
8261.36
8259.66
8259.41
8258.88
8258.7
8258.68
8258.68
-8264.03
8264.03
8264.07
8264.01
8263.87
8263.75
8263.73
8263.69
8263.6
8263.49
8263.48
8263.34
8263.08
8262.77
8262.22
8261.43
8260.64
8259.42
8258.86
8258.7
8258.69
8258.69
-8264.04
8264.04
8264.06
8264.02
8263.88
8263.72
8263.76
8263.72
8263.64
8263.53
8263.5
8263.38
8263.11
8262.83
8262.28
8261.45
8260.95
8259.41
8258.82
8258.69
8258.72
8258.72
-8264.07
8264.07
8264.08
8264.01
8263.91
8263.72
8263.79
8263.76
8263.67
8263.58
8263.53
8263.42
8263.26
8262.85
8262.35
8261.29
8261
8259.36
8258.73
8258.68
8258.74
8258.74
-8264.1
8264.1
8264.1
8264.04
8263.94
8263.75
8263.83
8263.8
8263.71
8263.63
8263.57
8263.47
8263.31
8262.92
8262.43
8261.61
8261.04
8259.28
8258.53
8258.66
8258.77
8258.77
-8264.13
8264.13
8264.13
8264.08
8263.99
8263.81
8263.88
8263.85
8263.76
8263.68
8263.62
8263.52
8263.38
8263.03
8262.52
8261.85
8261.09
8259.15
8258.39
8258.64
8258.81
8258.81
-8264.17
8264.17
8264.17
8264.12
8264.04
8263.85
8263.94
8263.9
8263.88
8263.74
8263.67
8263.58
8263.46
8263.16
8262.64
8262.01
8261.16
8259
8258.24
8258.63
8258.84
8258.84
-8264.21
8264.21
8264.22
8264.18
8264.11
8263.64
8264
8263.96
8263.95
8263.8
8263.72
8263.65
8263.55
8263.3
8262.79
8262.15
8261.28
8258.85
8258.06
8258.59
8258.89
8258.89
-8264.26
8264.26
8264.27
8264.24
8264.19
8264.27
8264.11
8264.02
8264.01
8263.87
8263.78
8263.72
8263.64
8263.46
8262.95
8262.32
8261.44
8258.78
8257.83
8258.59
8258.94
8258.94
-8264.32
8264.32
8264.32
8264.3
8264.26
8264.34
8264.17
8264.09
8264.06
8263.93
8263.85
8263.8
8263.75
8263.65
8263.15
8262.56
8261.66
8257.84
8257.56
8258.61
8258.99
8258.99
-8264.38
8264.38
8264.38
8264.38
8264.34
8264.36
8264.24
8264.16
8264.12
8263.99
8263.92
8263.88
8263.86
8263.81
8263.39
8262.86
8261.98
8257.2
8257.25
8258.65
8259.04
8259.04
-8264.44
8264.44
8264.44
8264.46
8264.42
8264.39
8264.3
8264.23
8264.15
8264.06
8263.99
8263.96
8263.98
8264.02
8263.72
8264.17
8262.47
8256.28
8256.9
8258.72
8259.1
8259.1
-8264.51
8264.51
8264.52
8264.53
8264.51
8264.43
8264.37
8264.31
8264.22
8264.13
8264.06
8264.05
8264.11
8264.24
8264.48
8264.76
8263.13
8255.15
8256.52
8258.82
8259.16
8259.16
-8264.59
8264.59
8264.61
8264.62
8264.59
8264.48
8264.44
8264.39
8264.3
8264.21
8264.14
8264.14
8264.23
8264.47
8264.85
8265.12
8264.16
8253.95
8256.13
8258.94
8259.22
8259.22
0
8264.59
8264.61
8264.62
8264.59
8264.48
8264.44
8264.39
8264.3
8264.21
8264.14
8264.14
8264.23
8264.47
8264.85
8265.12
8264.16
8253.95
8256.13
8258.94
8259.22
0
0
8264.08
8264.12
8264.06
8263.95
8263.78
8263.76
8263.74
8263.67
8263.55
8263.52
8263.37
8263.21
8262.78
8262.22
8261.44
8260.18
8259.62
8259.06
8258.84
8258.76
0
-8264.08
8264.08
8264.12
8264.06
8263.95
8263.78
8263.76
8263.74
8263.67
8263.55
8263.52
8263.37
8263.21
8262.78
8262.22
8261.44
8260.18
8259.62
8259.06
8258.84
8258.76
8258.76
-8264.09
8264.09
8264.14
8264.07
8263.96
8263.84
8263.78
8263.75
8263.68
8263.57
8263.53
8263.38
8263.19
8262.8
8262.25
8261.47
8260.32
8259.62
8259.06
8258.85
8258.77
8258.77
-8264.1
8264.1
8264.13
8264.08
8263.97
8263.86
8263.82
8263.77
8263.7
8263.59
8263.54
8263.4
8263.19
8262.83
8262.29
8261.52
8260.69
8259.62
8259.04
8258.84
8258.79
8258.79
-8264.12
8264.12
8264.14
8264.09
8263.99
8263.87
8263.85
8263.8
8263.73
8263.62
8263.57
8263.44
8263.22
8262.87
8262.34
8261.58
8260.89
8259.61
8258.99
8258.84
8258.81
8258.81
-8264.14
8264.14
8264.15
8264.1
8264.01
8263.89
8263.89
8263.84
8263.76
8263.66
8263.6
8263.48
8263.3
8262.92
8262.41
8261.63
8260.98
8259.58
8258.92
8258.83
8258.83
8258.83
-8264.17
8264.17
8264.18
8264.13
8264.04
8263.93
8263.93
8263.88
8263.8
8263.71
8263.64
8263.52
8263.36
8262.99
8262.49
8261.75
8261.05
8259.51
8258.81
8258.82
8258.86
8258.86
-8264.21
8264.21
8264.21
8264.16
8264.09
8264
8263.97
8263.93
8263.86
8263.76
8263.68
8263.57
8263.42
8263.08
8262.59
8261.92
8261.13
8259.43
8258.69
8258.81
8258.9
8258.9
-8264.24
8264.24
8264.25
8264.2
8264.14
8264.07
8264.03
8263.98
8263.93
8263.81
8263.73
8263.63
8263.49
8263.2
8262.71
8262.08
8261.22
8259.33
8258.57
8258.8
8258.94
8258.94
-8264.29
8264.29
8264.29
8264.25
8264.2
8264.15
8264.1
8264.03
8263.99
8263.87
8263.79
8263.7
8263.58
8263.32
8262.86
8262.26
8261.35
8259.21
8258.42
8258.79
8258.98
8258.98
-8264.34
8264.34
8264.34
8264.31
8264.27
8264.48
8264.18
8264.09
8264.05
8263.93
8263.84
8263.76
8263.67
8263.47
8263.03
8262.47
8261.52
8259.04
8258.24
8258.79
8259.03
8259.03
-8264.39
8264.39
8264.39
8264.37
8264.34
8264.45
8264.24
8264.16
8264.11
8263.99
8263.91
8263.84
8263.77
8263.63
8263.24
8262.76
8261.76
8258.58
8258.04
8258.81
8259.08
8259.08
-8264.45
8264.45
8264.45
8264.44
8264.41
8264.44
8264.3
8264.22
8264.17
8264.06
8263.97
8263.92
8263.88
8263.8
8263.5
8263.17
8262.09
8258.12
8257.81
8258.84
8259.13
8259.13
-8264.51
8264.51
8264.52
8264.52
8264.49
8264.46
8264.37
8264.29
8264.22
8264.12
8264.05
8264
8263.99
8263.99
8263.84
8263.92
8262.57
8257.6
8257.57
8258.89
8259.19
8259.19
-8264.58
8264.58
8264.59
8264.59
8264.56
8264.5
8264.43
8264.37
8264.28
8264.19
8264.12
8264.09
8264.11
8264.19
8264.3
8264.43
8263.26
8257.04
8257.32
8258.96
8259.25
8259.25
-8264.66
8264.66
8264.67
8264.67
8264.65
8264.55
8264.5
8264.44
8264.36
8264.27
8264.2
8264.18
8264.23
8264.4
8264.67
8264.84
8264.17
8256.5
8257.07
8259.04
8259.32
8259.32
0
8264.66
8264.67
8264.67
8264.65
8264.55
8264.5
8264.44
8264.36
8264.27
8264.2
8264.18
8264.23
8264.4
8264.67
8264.84
8264.17
8256.5
8257.07
8259.04
8259.32
0
0
8264.16
8264.19
8264.13
8264.05
8263.78
8263.84
8263.83
8263.76
8263.65
8263.58
8263.43
8263.24
8262.84
8262.29
8261.55
8260.53
8259.81
8259.24
8258.99
8258.86
0
-8264.16
8264.16
8264.19
8264.13
8264.05
8263.78
8263.84
8263.83
8263.76
8263.65
8263.58
8263.43
8263.24
8262.84
8262.29
8261.55
8260.53
8259.81
8259.24
8258.99
8258.86
8258.86
-8264.17
8264.17
8264.19
8264.14
8264.06
8263.96
8263.87
8263.84
8263.77
8263.66
8263.59
8263.45
8263.24
8262.85
8262.32
8261.58
8260.62
8259.81
8259.24
8258.99
8258.87
8258.87
-8264.18
8264.18
8264.2
8264.15
8264.07
8263.99
8263.9
8263.86
8263.79
8263.68
8263.61
8263.47
8263.25
8262.88
8262.35
8261.62
8260.78
8259.81
8259.22
8258.99
8258.88
8258.88
-8264.2
8264.2
8264.21
8264.17
8264.08
8264
8263.94
8263.89
8263.81
8263.71
8263.64
8263.5
8263.28
8262.92
8262.4
8261.68
8260.92
8259.81
8259.19
8258.99
8258.9
8258.9
-8264.22
8264.22
8264.23
8264.19
8264.11
8264.03
8263.97
8263.92
8263.85
8263.75
8263.67
8263.53
8263.34
8262.98
8262.47
8261.76
8261.02
8259.78
8259.13
8258.99
8258.93
8258.93
-8264.25
8264.25
8264.25
8264.21
8264.14
8264.07
8264.02
8263.96
8263.89
8263.79
8263.7
8263.58
8263.39
8263.04
8262.55
8261.86
8261.1
8259.75
8259.06
8258.99
8258.96
8258.96
-8264.28
8264.28
8264.29
8264.24
8264.18
8264.13
8264.06
8264
8263.93
8263.83
8263.75
8263.63
8263.45
8263.13
8262.65
8261.99
8261.19
8259.69
8258.98
8258.98
8258.99
8258.99
-8264.32
8264.32
8264.32
8264.28
8264.23
8264.2
8264.11
8264.05
8263.99
8263.89
8263.79
8263.68
8263.52
8263.23
8262.76
8262.15
8261.29
8259.62
8258.88
8258.98
8259.03
8259.03
-8264.36
8264.36
8264.36
8264.33
8264.28
8264.28
8264.17
8264.11
8264.05
8263.94
8263.85
8263.74
8263.6
8263.35
8262.91
8262.33
8261.42
8259.52
8258.77
8258.98
8259.07
8259.07
-8264.41
8264.41
8264.41
8264.39
8264.35
8264.44
8264.24
8264.16
8264.11
8264
8263.91
8263.81
8263.69
8263.48
8263.08
8262.55
8261.6
8259.37
8258.64
8258.99
8259.12
8259.12
-8264.47
8264.47
8264.47
8264.44
8264.41
8264.47
8264.3
8264.22
8264.16
8264.06
8263.97
8263.88
8263.79
8263.63
8263.28
8262.83
8261.83
8259.14
8258.49
8259
8259.17
8259.17
-8264.52
8264.52
8264.52
8264.51
8264.48
8264.49
8264.36
8264.29
8264.22
8264.12
8264.03
8263.96
8263.89
8263.78
8263.52
8263.19
8262.15
8258.88
8258.34
8259.03
8259.23
8259.23
-8264.59
8264.59
8264.59
8264.58
8264.55
8264.52
8264.43
8264.35
8264.28
8264.19
8264.1
8264.04
8264
8263.96
8263.82
8263.69
8262.59
8258.61
8258.17
8259.07
8259.28
8259.28
-8264.65
8264.65
8264.66
8264.65
8264.62
8264.56
8264.49
8264.43
8264.35
8264.26
8264.18
8264.13
8264.11
8264.14
8264.16
8264.14
8263.2
8258.35
8258.01
8259.12
8259.35
8259.35
-8264.73
8264.73
8264.73
8264.73
8264.7
8264.61
8264.56
8264.5
8264.42
8264.33
8264.25
8264.22
8264.23
8264.32
8264.48
8264.54
8263.95
8258.09
8257.85
8259.18
8259.41
8259.41
0
8264.73
8264.73
8264.73
8264.7
8264.61
8264.56
8264.5
8264.42
8264.33
8264.25
8264.22
8264.23
8264.32
8264.48
8264.54
8263.95
8258.09
8257.85
8259.18
8259.41
0
0
8264.24
8264.25
8264.21
8264.16
8263.93
8263.9
8263.92
8263.85
8263.74
8263.65
8263.49
8263.28
8262.89
8262.36
8261.66
8260.77
8260
8259.43
8259.14
8258.96
0
-8264.24
8264.24
8264.25
8264.21
8264.16
8263.93
8263.9
8263.92
8263.85
8263.74
8263.65
8263.49
8263.28
8262.89
8262.36
8261.66
8260.77
8260
8259.43
8259.14
8258.96
8258.96
-8264.25
8264.25
8264.26
8264.22
8264.16
8264.09
8263.94
8263.93
8263.86
8263.75
8263.66
8263.51
8263.28
8262.91
8262.38
8261.68
8260.82
8260
8259.42
8259.14
8258.97
8258.97
-8264.26
8264.26
8264.27
8264.23
8264.17
8264.14
8263.99
8263.95
8263.87
8263.77
8263.68
8263.53
8263.3
8262.93
8262.41
8261.72
8260.91
8260
8259.41
8259.15
8258.98
8258.98
-8264.28
8264.28
8264.29
8264.25
8264.18
8264.15
8264.03
8263.98
8263.9
8263.8
8263.7
8263.55
8263.33
8262.97
8262.46
8261.78
8261
8260
8259.39
8259.15
8259
8259
-8264.3
8264.3
8264.31
8264.27
8264.2
8264.15
8264.06
8264.01
8263.93
8263.83
8263.73
8263.59
8263.38
8263.02
8262.52
8261.85
8261.09
8259.99
8259.35
8259.15
8259.03
8259.03
-8264.33
8264.33
8264.33
8264.29
8264.23
8264.18
8264.1
8264.04
8263.97
8263.87
8263.77
8263.63
8263.43
8263.09
8262.6
8261.95
8261.17
8259.97
8259.31
8259.15
8259.05
8259.05
-8264.36
8264.36
8264.36
8264.32
8264.27
8264.22
8264.15
8264.08
8264.01
8263.91
8263.81
8263.68
8263.49
8263.17
8262.69
8262.06
8261.26
8259.94
8259.25
8259.15
8259.09
8259.09
-8264.4
8264.4
8264.4
8264.36
8264.31
8264.28
8264.19
8264.13
8264.06
8263.96
8263.86
8263.73
8263.56
8263.26
8262.81
8262.21
8261.36
8259.89
8259.18
8259.16
8259.13
8259.13
-8264.44
8264.44
8264.44
8264.41
8264.36
8264.35
8264.25
8264.18
8264.11
8264.01
8263.91
8263.79
8263.63
8263.37
8262.94
8262.37
8261.49
8259.83
8259.1
8259.17
8259.17
8259.17
-8264.49
8264.49
8264.49
8264.46
8264.42
8264.44
8264.31
8264.23
8264.17
8264.06
8263.97
8263.86
8263.72
8263.49
8263.1
8262.58
8261.66
8259.74
8259.02
8259.18
8259.21
8259.21
-8264.54
8264.54
8264.54
8264.51
8264.48
8264.5
8264.37
8264.29
8264.22
8264.12
8264.03
8263.93
8263.81
8263.62
8263.29
8262.83
8261.88
8259.62
8258.92
8259.2
8259.26
8259.26
-8264.6
8264.6
8264.6
8264.58
8264.54
8264.53
8264.43
8264.35
8264.28
8264.18
8264.09
8264
8263.91
8263.76
8263.5
8263.14
8262.17
8259.49
8258.82
8259.23
8259.32
8259.32
-8264.66
8264.66
8264.66
8264.64
8264.61
8264.57
8264.49
8264.42
8264.34
8264.25
8264.16
8264.08
8264.01
8263.92
8263.75
8263.51
8262.55
8259.36
8258.72
8259.27
8259.38
8259.38
-8264.73
8264.73
8264.73
8264.71
8264.68
8264.62
8264.55
8264.49
8264.41
8264.32
8264.23
8264.17
8264.12
8264.08
8264.03
8263.89
8263.05
8259.25
8258.62
8259.31
8259.44
8259.44
-8264.8
8264.8
8264.8
8264.79
8264.75
8264.67
8264.62
8264.56
8264.48
8264.39
8264.31
8264.25
8264.23
8264.25
8264.31
8264.25
8263.63
8259.14
8258.52
8259.36
8259.5
8259.5
0
8264.8
8264.8
8264.79
8264.75
8264.67
8264.62
8264.56
8264.48
8264.39
8264.31
8264.25
8264.23
8264.25
8264.31
8264.25
8263.63
8259.14
8258.52
8259.36
8259.5
0
0
8264.32
8264.33
8264.29
8264.24
8264.09
8264.03
8264.01
8263.93
8263.83
8263.72
8263.56
8263.32
8262.94
8262.43
8261.75
8260.95
8260.18
8259.61
8259.29
8259.05
0
-8264.32
8264.32
8264.33
8264.29
8264.24
8264.09
8264.03
8264.01
8263.93
8263.83
8263.72
8263.56
8263.32
8262.94
8262.43
8261.75
8260.95
8260.18
8259.61
8259.29
8259.05
8259.05
-8264.33
8264.33
8264.33
8264.3
8264.24
8264.16
8264.06
8264.02
8263.94
8263.84
8263.73
8263.57
8263.33
8262.96
8262.44
8261.78
8260.98
8260.19
8259.61
8259.29
8259.06
8259.06
-8264.34
8264.34
8264.35
8264.31
8264.25
8264.2
8264.09
8264.04
8263.96
8263.86
8263.75
8263.59
8263.35
8262.98
8262.47
8261.81
8261.04
8260.19
8259.61
8259.3
8259.08
8259.08
-8264.36
8264.36
8264.36
8264.33
8264.27
8264.22
8264.12
8264.06
8263.98
8263.88
8263.77
8263.61
8263.38
8263.02
8262.52
8261.86
8261.1
8260.2
8259.59
8259.3
8259.1
8259.1
-8264.38
8264.38
8264.38
8264.35
8264.29
8264.24
8264.15
8264.09
8264.01
8263.91
8263.8
8263.65
8263.42
8263.07
8262.58
8261.93
8261.18
8260.19
8259.57
8259.31
8259.12
8259.12
-8264.41
8264.41
8264.41
8264.37
8264.32
8264.27
8264.19
8264.12
8264.05
8263.95
8263.84
8263.69
8263.47
8263.13
8262.65
8262.02
8261.25
8260.19
8259.54
8259.32
8259.15
8259.15
-8264.44
8264.44
8264.44
8264.4
8264.35
8264.31
8264.23
8264.16
8264.09
8263.99
8263.88
8263.73
8263.53
8263.2
8262.73
8262.12
8261.34
8260.17
8259.51
8259.33
8259.18
8259.18
-8264.48
8264.48
8264.47
8264.44
8264.39
8264.36
8264.27
8264.21
8264.13
8264.03
8263.92
8263.78
8263.59
8263.29
8262.84
8262.25
8261.44
8260.15
8259.47
8259.34
8259.22
8259.22
-8264.52
8264.52
8264.51
8264.48
8264.44
8264.41
8264.32
8264.25
8264.18
8264.08
8263.97
8263.84
8263.66
8263.38
8262.96
8262.4
8261.56
8260.12
8259.42
8259.35
8259.26
8259.26
-8264.56
8264.56
8264.56
8264.53
8264.49
8264.48
8264.38
8264.3
8264.23
8264.13
8264.03
8263.91
8263.74
8263.49
8263.11
8262.58
8261.71
8260.08
8259.37
8259.37
8259.31
8259.31
-8264.62
8264.62
8264.61
8264.59
8264.55
8264.53
8264.43
8264.36
8264.29
8264.19
8264.09
8263.97
8263.83
8263.61
8263.27
8262.8
8261.91
8260.03
8259.32
8259.4
8259.36
8259.36
-8264.67
8264.67
8264.67
8264.64
8264.6
8264.58
8264.49
8264.42
8264.35
8264.25
8264.15
8264.05
8263.92
8263.74
8263.46
8263.05
8262.16
8259.98
8259.26
8259.43
8259.41
8259.41
-8264.73
8264.73
8264.73
8264.71
8264.67
8264.63
8264.55
8264.48
8264.41
8264.31
8264.22
8264.12
8264.02
8263.88
8263.67
8263.35
8262.48
8259.94
8259.2
8259.47
8259.47
8259.47
-8264.8
8264.8
8264.79
8264.77
8264.73
8264.68
8264.61
8264.55
8264.47
8264.38
8264.29
8264.2
8264.12
8264.03
8263.9
8263.66
8262.87
8259.91
8259.15
8259.51
8259.53
8259.53
-8264.87
8264.87
8264.86
8264.85
8264.8
8264.73
8264.68
8264.62
8264.54
8264.45
8264.37
8264.29
8264.23