# vtk DataFile Version 3.0
FlowField
ASCII
DATASET STRUCTURED_GRID
DIMENSIONS 102 12 1 
POINTS 1224 double
0 0 0
0.3 0 0
0.6 0 0
0.9 0 0
1.2 0 0
1.5 0 0
1.8 0 0
2.1 0 0
2.4 0 0
2.7 0 0
3 0 0
3.3 0 0
3.6 0 0
3.9 0 0
4.2 0 0
4.5 0 0
4.8 0 0
5.1 0 0
5.4 0 0
5.7 0 0
6 0 0
6.3 0 0
6.6 0 0
6.9 0 0
7.2 0 0
7.5 0 0
7.8 0 0
8.1 0 0
8.4 0 0
8.7 0 0
9 0 0
9.3 0 0
9.6 0 0
9.9 0 0
10.2 0 0
10.5 0 0
10.8 0 0
11.1 0 0
11.4 0 0
11.7 0 0
12 0 0
12.3 0 0
12.6 0 0
12.9 0 0
13.2 0 0
13.5 0 0
13.8 0 0
14.1 0 0
14.4 0 0
14.7 0 0
15 0 0
15.3 0 0
15.6 0 0
15.9 0 0
16.2 0 0
16.5 0 0
16.8 0 0
17.1 0 0
17.4 0 0
17.7 0 0
18 0 0
18.3 0 0
18.6 0 0
18.9 0 0
19.2 0 0
19.5 0 0
19.8 0 0
20.1 0 0
20.4 0 0
20.7 0 0
21 0 0
21.3 0 0
21.6 0 0
21.9 0 0
22.2 0 0
22.5 0 0
22.8 0 0
23.1 0 0
23.4 0 0
23.7 0 0
24 0 0
24.3 0 0
24.6 0 0
24.9 0 0
25.2 0 0
25.5 0 0
25.8 0 0
26.1 0 0
26.4 0 0
26.7 0 0
27 0 0
27.3 0 0
27.6 0 0
27.9 0 0
28.2 0 0
28.5 0 0
28.8 0 0
29.1 0 0
29.4 0 0
29.7 0 0
30 0 0
30.3 0 0
0 0.1 0
0.3 0.1 0
0.6 0.1 0
0.9 0.1 0
1.2 0.1 0
1.5 0.1 0
1.8 0.1 0
2.1 0.1 0
2.4 0.1 0
2.7 0.1 0
3 0.1 0
3.3 0.1 0
3.6 0.1 0
3.9 0.1 0
4.2 0.1 0
4.5 0.1 0
4.8 0.1 0
5.1 0.1 0
5.4 0.1 0
5.7 0.1 0
6 0.1 0
6.3 0.1 0
6.6 0.1 0
6.9 0.1 0
7.2 0.1 0
7.5 0.1 0
7.8 0.1 0
8.1 0.1 0
8.4 0.1 0
8.7 0.1 0
9 0.1 0
9.3 0.1 0
9.6 0.1 0
9.9 0.1 0
10.2 0.1 0
10.5 0.1 0
10.8 0.1 0
11.1 0.1 0
11.4 0.1 0
11.7 0.1 0
12 0.1 0
12.3 0.1 0
12.6 0.1 0
12.9 0.1 0
13.2 0.1 0
13.5 0.1 0
13.8 0.1 0
14.1 0.1 0
14.4 0.1 0
14.7 0.1 0
15 0.1 0
15.3 0.1 0
15.6 0.1 0
15.9 0.1 0
16.2 0.1 0
16.5 0.1 0
16.8 0.1 0
17.1 0.1 0
17.4 0.1 0
17.7 0.1 0
18 0.1 0
18.3 0.1 0
18.6 0.1 0
18.9 0.1 0
19.2 0.1 0
19.5 0.1 0
19.8 0.1 0
20.1 0.1 0
20.4 0.1 0
20.7 0.1 0
21 0.1 0
21.3 0.1 0
21.6 0.1 0
21.9 0.1 0
22.2 0.1 0
22.5 0.1 0
22.8 0.1 0
23.1 0.1 0
23.4 0.1 0
23.7 0.1 0
24 0.1 0
24.3 0.1 0
24.6 0.1 0
24.9 0.1 0
25.2 0.1 0
25.5 0.1 0
25.8 0.1 0
26.1 0.1 0
26.4 0.1 0
26.7 0.1 0
27 0.1 0
27.3 0.1 0
27.6 0.1 0
27.9 0.1 0
28.2 0.1 0
28.5 0.1 0
28.8 0.1 0
29.1 0.1 0
29.4 0.1 0
29.7 0.1 0
30 0.1 0
30.3 0.1 0
0 0.2 0
0.3 0.2 0
0.6 0.2 0
0.9 0.2 0
1.2 0.2 0
1.5 0.2 0
1.8 0.2 0
2.1 0.2 0
2.4 0.2 0
2.7 0.2 0
3 0.2 0
3.3 0.2 0
3.6 0.2 0
3.9 0.2 0
4.2 0.2 0
4.5 0.2 0
4.8 0.2 0
5.1 0.2 0
5.4 0.2 0
5.7 0.2 0
6 0.2 0
6.3 0.2 0
6.6 0.2 0
6.9 0.2 0
7.2 0.2 0
7.5 0.2 0
7.8 0.2 0
8.1 0.2 0
8.4 0.2 0
8.7 0.2 0
9 0.2 0
9.3 0.2 0
9.6 0.2 0
9.9 0.2 0
10.2 0.2 0
10.5 0.2 0
10.8 0.2 0
11.1 0.2 0
11.4 0.2 0
11.7 0.2 0
12 0.2 0
12.3 0.2 0
12.6 0.2 0
12.9 0.2 0
13.2 0.2 0
13.5 0.2 0
13.8 0.2 0
14.1 0.2 0
14.4 0.2 0
14.7 0.2 0
15 0.2 0
15.3 0.2 0
15.6 0.2 0
15.9 0.2 0
16.2 0.2 0
16.5 0.2 0
16.8 0.2 0
17.1 0.2 0
17.4 0.2 0
17.7 0.2 0
18 0.2 0
18.3 0.2 0
18.6 0.2 0
18.9 0.2 0
19.2 0.2 0
19.5 0.2 0
19.8 0.2 0
20.1 0.2 0
20.4 0.2 0
20.7 0.2 0
21 0.2 0
21.3 0.2 0
21.6 0.2 0
21.9 0.2 0
22.2 0.2 0
22.5 0.2 0
22.8 0.2 0
23.1 0.2 0
23.4 0.2 0
23.7 0.2 0
24 0.2 0
24.3 0.2 0
24.6 0.2 0
24.9 0.2 0
25.2 0.2 0
25.5 0.2 0
25.8 0.2 0
26.1 0.2 0
26.4 0.2 0
26.7 0.2 0
27 0.2 0
27.3 0.2 0
27.6 0.2 0
27.9 0.2 0
28.2 0.2 0
28.5 0.2 0
28.8 0.2 0
29.1 0.2 0
29.4 0.2 0
29.7 0.2 0
30 0.2 0
30.3 0.2 0
0 0.3 0
0.3 0.3 0
0.6 0.3 0
0.9 0.3 0
1.2 0.3 0
1.5 0.3 0
1.8 0.3 0
2.1 0.3 0
2.4 0.3 0
2.7 0.3 0
3 0.3 0
3.3 0.3 0
3.6 0.3 0
3.9 0.3 0
4.2 0.3 0
4.5 0.3 0
4.8 0.3 0
5.1 0.3 0
5.4 0.3 0
5.7 0.3 0
6 0.3 0
6.3 0.3 0
6.6 0.3 0
6.9 0.3 0
7.2 0.3 0
7.5 0.3 0
7.8 0.3 0
8.1 0.3 0
8.4 0.3 0
8.7 0.3 0
9 0.3 0
9.3 0.3 0
9.6 0.3 0
9.9 0.3 0
10.2 0.3 0
10.5 0.3 0
10.8 0.3 0
11.1 0.3 0
11.4 0.3 0
11.7 0.3 0
12 0.3 0
12.3 0.3 0
12.6 0.3 0
12.9 0.3 0
13.2 0.3 0
13.5 0.3 0
13.8 0.3 0
14.1 0.3 0
14.4 0.3 0
14.7 0.3 0
15 0.3 0
15.3 0.3 0
15.6 0.3 0
15.9 0.3 0
16.2 0.3 0
16.5 0.3 0
16.8 0.3 0
17.1 0.3 0
17.4 0.3 0
17.7 0.3 0
18 0.3 0
18.3 0.3 0
18.6 0.3 0
18.9 0.3 0
19.2 0.3 0
19.5 0.3 0
19.8 0.3 0
20.1 0.3 0
20.4 0.3 0
20.7 0.3 0
21 0.3 0
21.3 0.3 0
21.6 0.3 0
21.9 0.3 0
22.2 0.3 0
22.5 0.3 0
22.8 0.3 0
23.1 0.3 0
23.4 0.3 0
23.7 0.3 0
24 0.3 0
24.3 0.3 0
24.6 0.3 0
24.9 0.3 0
25.2 0.3 0
25.5 0.3 0
25.8 0.3 0
26.1 0.3 0
26.4 0.3 0
26.7 0.3 0
27 0.3 0
27.3 0.3 0
27.6 0.3 0
27.9 0.3 0
28.2 0.3 0
28.5 0.3 0
28.8 0.3 0
29.1 0.3 0
29.4 0.3 0
29.7 0.3 0
30 0.3 0
30.3 0.3 0
0 0.4 0
0.3 0.4 0
0.6 0.4 0
0.9 0.4 0
1.2 0.4 0
1.5 0.4 0
1.8 0.4 0
2.1 0.4 0
2.4 0.4 0
2.7 0.4 0
3 0.4 0
3.3 0.4 0
3.6 0.4 0
3.9 0.4 0
4.2 0.4 0
4.5 0.4 0
4.8 0.4 0
5.1 0.4 0
5.4 0.4 0
5.7 0.4 0
6 0.4 0
6.3 0.4 0
6.6 0.4 0
6.9 0.4 0
7.2 0.4 0
7.5 0.4 0
7.8 0.4 0
8.1 0.4 0
8.4 0.4 0
8.7 0.4 0
9 0.4 0
9.3 0.4 0
9.6 0.4 0
9.9 0.4 0
10.2 0.4 0
10.5 0.4 0
10.8 0.4 0
11.1 0.4 0
11.4 0.4 0
11.7 0.4 0
12 0.4 0
12.3 0.4 0
12.6 0.4 0
12.9 0.4 0
13.2 0.4 0
13.5 0.4 0
13.8 0.4 0
14.1 0.4 0
14.4 0.4 0
14.7 0.4 0
15 0.4 0
15.3 0.4 0
15.6 0.4 0
15.9 0.4 0
16.2 0.4 0
16.5 0.4 0
16.8 0.4 0
17.1 0.4 0
17.4 0.4 0
17.7 0.4 0
18 0.4 0
18.3 0.4 0
18.6 0.4 0
18.9 0.4 0
19.2 0.4 0
19.5 0.4 0
19.8 0.4 0
20.1 0.4 0
20.4 0.4 0
20.7 0.4 0
21 0.4 0
21.3 0.4 0
21.6 0.4 0
21.9 0.4 0
22.2 0.4 0
22.5 0.4 0
22.8 0.4 0
23.1 0.4 0
23.4 0.4 0
23.7 0.4 0
24 0.4 0
24.3 0.4 0
24.6 0.4 0
24.9 0.4 0
25.2 0.4 0
25.5 0.4 0
25.8 0.4 0
26.1 0.4 0
26.4 0.4 0
26.7 0.4 0
27 0.4 0
27.3 0.4 0
27.6 0.4 0
27.9 0.4 0
28.2 0.4 0
28.5 0.4 0
28.8 0.4 0
29.1 0.4 0
29.4 0.4 0
29.7 0.4 0
30 0.4 0
30.3 0.4 0
0 0.5 0
0.3 0.5 0
0.6 0.5 0
0.9 0.5 0
1.2 0.5 0
1.5 0.5 0
1.8 0.5 0
2.1 0.5 0
2.4 0.5 0
2.7 0.5 0
3 0.5 0
3.3 0.5 0
3.6 0.5 0
3.9 0.5 0
4.2 0.5 0
4.5 0.5 0
4.8 0.5 0
5.1 0.5 0
5.4 0.5 0
5.7 0.5 0
6 0.5 0
6.3 0.5 0
6.6 0.5 0
6.9 0.5 0
7.2 0.5 0
7.5 0.5 0
7.8 0.5 0
8.1 0.5 0
8.4 0.5 0
8.7 0.5 0
9 0.5 0
9.3 0.5 0
9.6 0.5 0
9.9 0.5 0
10.2 0.5 0
10.5 0.5 0
10.8 0.5 0
11.1 0.5 0
11.4 0.5 0
11.7 0.5 0
12 0.5 0
12.3 0.5 0
12.6 0.5 0
12.9 0.5 0
13.2 0.5 0
13.5 0.5 0
13.8 0.5 0
14.1 0.5 0
14.4 0.5 0
14.7 0.5 0
15 0.5 0
15.3 0.5 0
15.6 0.5 0
15.9 0.5 0
16.2 0.5 0
16.5 0.5 0
16.8 0.5 0
17.1 0.5 0
17.4 0.5 0
17.7 0.5 0
18 0.5 0
18.3 0.5 0
18.6 0.5 0
18.9 0.5 0
19.2 0.5 0
19.5 0.5 0
19.8 0.5 0
20.1 0.5 0
20.4 0.5 0
20.7 0.5 0
21 0.5 0
21.3 0.5 0
21.6 0.5 0
21.9 0.5 0
22.2 0.5 0
22.5 0.5 0
22.8 0.5 0
23.1 0.5 0
23.4 0.5 0
23.7 0.5 0
24 0.5 0
24.3 0.5 0
24.6 0.5 0
24.9 0.5 0
25.2 0.5 0
25.5 0.5 0
25.8 0.5 0
26.1 0.5 0
26.4 0.5 0
26.7 0.5 0
27 0.5 0
27.3 0.5 0
27.6 0.5 0
27.9 0.5 0
28.2 0.5 0
28.5 0.5 0
28.8 0.5 0
29.1 0.5 0
29.4 0.5 0
29.7 0.5 0
30 0.5 0
30.3 0.5 0
0 0.6 0
0.3 0.6 0
0.6 0.6 0
0.9 0.6 0
1.2 0.6 0
1.5 0.6 0
1.8 0.6 0
2.1 0.6 0
2.4 0.6 0
2.7 0.6 0
3 0.6 0
3.3 0.6 0
3.6 0.6 0
3.9 0.6 0
4.2 0.6 0
4.5 0.6 0
4.8 0.6 0
5.1 0.6 0
5.4 0.6 0
5.7 0.6 0
6 0.6 0
6.3 0.6 0
6.6 0.6 0
6.9 0.6 0
7.2 0.6 0
7.5 0.6 0
7.8 0.6 0
8.1 0.6 0
8.4 0.6 0
8.7 0.6 0
9 0.6 0
9.3 0.6 0
9.6 0.6 0
9.9 0.6 0
10.2 0.6 0
10.5 0.6 0
10.8 0.6 0
11.1 0.6 0
11.4 0.6 0
11.7 0.6 0
12 0.6 0
12.3 0.6 0
12.6 0.6 0
12.9 0.6 0
13.2 0.6 0
13.5 0.6 0
13.8 0.6 0
14.1 0.6 0
14.4 0.6 0
14.7 0.6 0
15 0.6 0
15.3 0.6 0
15.6 0.6 0
15.9 0.6 0
16.2 0.6 0
16.5 0.6 0
16.8 0.6 0
17.1 0.6 0
17.4 0.6 0
17.7 0.6 0
18 0.6 0
18.3 0.6 0
18.6 0.6 0
18.9 0.6 0
19.2 0.6 0
19.5 0.6 0
19.8 0.6 0
20.1 0.6 0
20.4 0.6 0
20.7 0.6 0
21 0.6 0
21.3 0.6 0
21.6 0.6 0
21.9 0.6 0
22.2 0.6 0
22.5 0.6 0
22.8 0.6 0
23.1 0.6 0
23.4 0.6 0
23.7 0.6 0
24 0.6 0
24.3 0.6 0
24.6 0.6 0
24.9 0.6 0
25.2 0.6 0
25.5 0.6 0
25.8 0.6 0
26.1 0.6 0
26.4 0.6 0
26.7 0.6 0
27 0.6 0
27.3 0.6 0
27.6 0.6 0
27.9 0.6 0
28.2 0.6 0
28.5 0.6 0
28.8 0.6 0
29.1 0.6 0
29.4 0.6 0
29.7 0.6 0
30 0.6 0
30.3 0.6 0
0 0.7 0
0.3 0.7 0
0.6 0.7 0
0.9 0.7 0
1.2 0.7 0
1.5 0.7 0
1.8 0.7 0
2.1 0.7 0
2.4 0.7 0
2.7 0.7 0
3 0.7 0
3.3 0.7 0
3.6 0.7 0
3.9 0.7 0
4.2 0.7 0
4.5 0.7 0
4.8 0.7 0
5.1 0.7 0
5.4 0.7 0
5.7 0.7 0
6 0.7 0
6.3 0.7 0
6.6 0.7 0
6.9 0.7 0
7.2 0.7 0
7.5 0.7 0
7.8 0.7 0
8.1 0.7 0
8.4 0.7 0
8.7 0.7 0
9 0.7 0
9.3 0.7 0
9.6 0.7 0
9.9 0.7 0
10.2 0.7 0
10.5 0.7 0
10.8 0.7 0
11.1 0.7 0
11.4 0.7 0
11.7 0.7 0
12 0.7 0
12.3 0.7 0
12.6 0.7 0
12.9 0.7 0
13.2 0.7 0
13.5 0.7 0
13.8 0.7 0
14.1 0.7 0
14.4 0.7 0
14.7 0.7 0
15 0.7 0
15.3 0.7 0
15.6 0.7 0
15.9 0.7 0
16.2 0.7 0
16.5 0.7 0
16.8 0.7 0
17.1 0.7 0
17.4 0.7 0
17.7 0.7 0
18 0.7 0
18.3 0.7 0
18.6 0.7 0
18.9 0.7 0
19.2 0.7 0
19.5 0.7 0
19.8 0.7 0
20.1 0.7 0
20.4 0.7 0
20.7 0.7 0
21 0.7 0
21.3 0.7 0
21.6 0.7 0
21.9 0.7 0
22.2 0.7 0
22.5 0.7 0
22.8 0.7 0
23.1 0.7 0
23.4 0.7 0
23.7 0.7 0
24 0.7 0
24.3 0.7 0
24.6 0.7 0
24.9 0.7 0
25.2 0.7 0
25.5 0.7 0
25.8 0.7 0
26.1 0.7 0
26.4 0.7 0
26.7 0.7 0
27 0.7 0
27.3 0.7 0
27.6 0.7 0
27.9 0.7 0
28.2 0.7 0
28.5 0.7 0
28.8 0.7 0
29.1 0.7 0
29.4 0.7 0
29.7 0.7 0
30 0.7 0
30.3 0.7 0
0 0.8 0
0.3 0.8 0
0.6 0.8 0
0.9 0.8 0
1.2 0.8 0
1.5 0.8 0
1.8 0.8 0
2.1 0.8 0
2.4 0.8 0
2.7 0.8 0
3 0.8 0
3.3 0.8 0
3.6 0.8 0
3.9 0.8 0
4.2 0.8 0
4.5 0.8 0
4.8 0.8 0
5.1 0.8 0
5.4 0.8 0
5.7 0.8 0
6 0.8 0
6.3 0.8 0
6.6 0.8 0
6.9 0.8 0
7.2 0.8 0
7.5 0.8 0
7.8 0.8 0
8.1 0.8 0
8.4 0.8 0
8.7 0.8 0
9 0.8 0
9.3 0.8 0
9.6 0.8 0
9.9 0.8 0
10.2 0.8 0
10.5 0.8 0
10.8 0.8 0
11.1 0.8 0
11.4 0.8 0
11.7 0.8 0
12 0.8 0
12.3 0.8 0
12.6 0.8 0
12.9 0.8 0
13.2 0.8 0
13.5 0.8 0
13.8 0.8 0
14.1 0.8 0
14.4 0.8 0
14.7 0.8 0
15 0.8 0
15.3 0.8 0
15.6 0.8 0
15.9 0.8 0
16.2 0.8 0
16.5 0.8 0
16.8 0.8 0
17.1 0.8 0
17.4 0.8 0
17.7 0.8 0
18 0.8 0
18.3 0.8 0
18.6 0.8 0
18.9 0.8 0
19.2 0.8 0
19.5 0.8 0
19.8 0.8 0
20.1 0.8 0
20.4 0.8 0
20.7 0.8 0
21 0.8 0
21.3 0.8 0
21.6 0.8 0
21.9 0.8 0
22.2 0.8 0
22.5 0.8 0
22.8 0.8 0
23.1 0.8 0
23.4 0.8 0
23.7 0.8 0
24 0.8 0
24.3 0.8 0
24.6 0.8 0
24.9 0.8 0
25.2 0.8 0
25.5 0.8 0
25.8 0.8 0
26.1 0.8 0
26.4 0.8 0
26.7 0.8 0
27 0.8 0
27.3 0.8 0
27.6 0.8 0
27.9 0.8 0
28.2 0.8 0
28.5 0.8 0
28.8 0.8 0
29.1 0.8 0
29.4 0.8 0
29.7 0.8 0
30 0.8 0
30.3 0.8 0
0 0.9 0
0.3 0.9 0
0.6 0.9 0
0.9 0.9 0
1.2 0.9 0
1.5 0.9 0
1.8 0.9 0
2.1 0.9 0
2.4 0.9 0
2.7 0.9 0
3 0.9 0
3.3 0.9 0
3.6 0.9 0
3.9 0.9 0
4.2 0.9 0
4.5 0.9 0
4.8 0.9 0
5.1 0.9 0
5.4 0.9 0
5.7 0.9 0
6 0.9 0
6.3 0.9 0
6.6 0.9 0
6.9 0.9 0
7.2 0.9 0
7.5 0.9 0
7.8 0.9 0
8.1 0.9 0
8.4 0.9 0
8.7 0.9 0
9 0.9 0
9.3 0.9 0
9.6 0.9 0
9.9 0.9 0
10.2 0.9 0
10.5 0.9 0
10.8 0.9 0
11.1 0.9 0
11.4 0.9 0
11.7 0.9 0
12 0.9 0
12.3 0.9 0
12.6 0.9 0
12.9 0.9 0
13.2 0.9 0
13.5 0.9 0
13.8 0.9 0
14.1 0.9 0
14.4 0.9 0
14.7 0.9 0
15 0.9 0
15.3 0.9 0
15.6 0.9 0
15.9 0.9 0
16.2 0.9 0
16.5 0.9 0
16.8 0.9 0
17.1 0.9 0
17.4 0.9 0
17.7 0.9 0
18 0.9 0
18.3 0.9 0
18.6 0.9 0
18.9 0.9 0
19.2 0.9 0
19.5 0.9 0
19.8 0.9 0
20.1 0.9 0
20.4 0.9 0
20.7 0.9 0
21 0.9 0
21.3 0.9 0
21.6 0.9 0
21.9 0.9 0
22.2 0.9 0
22.5 0.9 0
22.8 0.9 0
23.1 0.9 0
23.4 0.9 0
23.7 0.9 0
24 0.9 0
24.3 0.9 0
24.6 0.9 0
24.9 0.9 0
25.2 0.9 0
25.5 0.9 0
25.8 0.9 0
26.1 0.9 0
26.4 0.9 0
26.7 0.9 0
27 0.9 0
27.3 0.9 0
27.6 0.9 0
27.9 0.9 0
28.2 0.9 0
28.5 0.9 0
28.8 0.9 0
29.1 0.9 0
29.4 0.9 0
29.7 0.9 0
30 0.9 0
30.3 0.9 0
0 1 0
0.3 1 0
0.6 1 0
0.9 1 0
1.2 1 0
1.5 1 0
1.8 1 0
2.1 1 0
2.4 1 0
2.7 1 0
3 1 0
3.3 1 0
3.6 1 0
3.9 1 0
4.2 1 0
4.5 1 0
4.8 1 0
5.1 1 0
5.4 1 0
5.7 1 0
6 1 0
6.3 1 0
6.6 1 0
6.9 1 0
7.2 1 0
7.5 1 0
7.8 1 0
8.1 1 0
8.4 1 0
8.7 1 0
9 1 0
9.3 1 0
9.6 1 0
9.9 1 0
10.2 1 0
10.5 1 0
10.8 1 0
11.1 1 0
11.4 1 0
11.7 1 0
12 1 0
12.3 1 0
12.6 1 0
12.9 1 0
13.2 1 0
13.5 1 0
13.8 1 0
14.1 1 0
14.4 1 0
14.7 1 0
15 1 0
15.3 1 0
15.6 1 0
15.9 1 0
16.2 1 0
16.5 1 0
16.8 1 0
17.1 1 0
17.4 1 0
17.7 1 0
18 1 0
18.3 1 0
18.6 1 0
18.9 1 0
19.2 1 0
19.5 1 0
19.8 1 0
20.1 1 0
20.4 1 0
20.7 1 0
21 1 0
21.3 1 0
21.6 1 0
21.9 1 0
22.2 1 0
22.5 1 0
22.8 1 0
23.1 1 0
23.4 1 0
23.7 1 0
24 1 0
24.3 1 0
24.6 1 0
24.9 1 0
25.2 1 0
25.5 1 0
25.8 1 0
26.1 1 0
26.4 1 0
26.7 1 0
27 1 0
27.3 1 0
27.6 1 0
27.9 1 0
28.2 1 0
28.5 1 0
28.8 1 0
29.1 1 0
29.4 1 0
29.7 1 0
30 1 0
30.3 1 0
0 1.1 0
0.3 1.1 0
0.6 1.1 0
0.9 1.1 0
1.2 1.1 0
1.5 1.1 0
1.8 1.1 0
2.1 1.1 0
2.4 1.1 0
2.7 1.1 0
3 1.1 0
3.3 1.1 0
3.6 1.1 0
3.9 1.1 0
4.2 1.1 0
4.5 1.1 0
4.8 1.1 0
5.1 1.1 0
5.4 1.1 0
5.7 1.1 0
6 1.1 0
6.3 1.1 0
6.6 1.1 0
6.9 1.1 0
7.2 1.1 0
7.5 1.1 0
7.8 1.1 0
8.1 1.1 0
8.4 1.1 0
8.7 1.1 0
9 1.1 0
9.3 1.1 0
9.6 1.1 0
9.9 1.1 0
10.2 1.1 0
10.5 1.1 0
10.8 1.1 0
11.1 1.1 0
11.4 1.1 0
11.7 1.1 0
12 1.1 0
12.3 1.1 0
12.6 1.1 0
12.9 1.1 0
13.2 1.1 0
13.5 1.1 0
13.8 1.1 0
14.1 1.1 0
14.4 1.1 0
14.7 1.1 0
15 1.1 0
15.3 1.1 0
15.6 1.1 0
15.9 1.1 0
16.2 1.1 0
16.5 1.1 0
16.8 1.1 0
17.1 1.1 0
17.4 1.1 0
17.7 1.1 0
18 1.1 0
18.3 1.1 0
18.6 1.1 0
18.9 1.1 0
19.2 1.1 0
19.5 1.1 0
19.8 1.1 0
20.1 1.1 0
20.4 1.1 0
20.7 1.1 0
21 1.1 0
21.3 1.1 0
21.6 1.1 0
21.9 1.1 0
22.2 1.1 0
22.5 1.1 0
22.8 1.1 0
23.1 1.1 0
23.4 1.1 0
23.7 1.1 0
24 1.1 0
24.3 1.1 0
24.6 1.1 0
24.9 1.1 0
25.2 1.1 0
25.5 1.1 0
25.8 1.1 0
26.1 1.1 0
26.4 1.1 0
26.7 1.1 0
27 1.1 0
27.3 1.1 0
27.6 1.1 0
27.9 1.1 0
28.2 1.1 0
28.5 1.1 0
28.8 1.1 0
29.1 1.1 0
29.4 1.1 0
29.7 1.1 0
30 1.1 0
30.3 1.1 0

POINT_DATA 1224

SCALARS pressure double
LOOKUP_TABLE pressure
1.31572
1.31572
1.24921
1.20213
1.15917
1.11952
1.0835
1.05111
1.02201
0.995675
0.971564
0.949211
0.928238
0.908357
0.88935
0.871061
0.85337
0.836189
0.819449
0.803099
0.787096
0.771404
0.755994
0.740842
0.725925
0.711223
0.696721
0.682403
0.668255
0.654264
0.640419
0.62671
0.613127
0.599662
0.586306
0.573052
0.559893
0.546823
0.533837
0.520927
0.50809
0.495321
0.482615
0.469969
0.457378
0.444838
0.432348
0.419903
0.407501
0.395138
0.382813
0.370524
0.358267
0.34604
0.333843
0.321673
0.309528
0.297407
0.285308
0.27323
0.261171
0.249131
0.237108
0.225101
0.21311
0.201132
0.189168
0.177217
0.165276
0.153347
0.141429
0.129519
0.117619
0.105728
0.0938437
0.0819674
0.070098
0.0582352
0.0463784
0.0345275
0.0226819
0.0108413
-0.000994455
-0.0128258
-0.0246529
-0.0364761
-0.0482955
-0.0601114
-0.071924
-0.0837334
-0.0955398
-0.107343
-0.119144
-0.130943
-0.142739
-0.154532
-0.166324
-0.178113
-0.189901
-0.201687
-0.213471
0.213471
1.31572
1.31572
1.24921
1.20213
1.15917
1.11952
1.0835
1.05111
1.02201
0.995675
0.971564
0.949211
0.928238
0.908357
0.88935
0.871061
0.85337
0.836189
0.819449
0.803099
0.787096
0.771404
0.755994
0.740842
0.725925
0.711223
0.696721
0.682403
0.668255
0.654264
0.640419
0.62671
0.613127
0.599662
0.586306
0.573052
0.559893
0.546823
0.533837
0.520927
0.50809
0.495321
0.482615
0.469969
0.457378
0.444838
0.432348
0.419903
0.407501
0.395138
0.382813
0.370524
0.358267
0.34604
0.333843
0.321673
0.309528
0.297407
0.285308
0.27323
0.261171
0.249131
0.237108
0.225101
0.21311
0.201132
0.189168
0.177217
0.165276
0.153347
0.141429
0.129519
0.117619
0.105728
0.0938437
0.0819674
0.070098
0.0582352
0.0463784
0.0345275
0.0226819
0.0108413
-0.000994455
-0.0128258
-0.0246529
-0.0364761
-0.0482955
-0.0601114
-0.071924
-0.0837334
-0.0955398
-0.107343
-0.119144
-0.130943
-0.142739
-0.154532
-0.166324
-0.178113
-0.189901
-0.201687
-0.213471
0.213471
1.29507
1.29507
1.24741
1.20244
1.15989
1.12029
1.0842
1.0517
1.02249
0.996045
0.971849
0.949432
0.928411
0.908494
0.889462
0.871153
0.853448
0.836255
0.819507
0.80315
0.787141
0.771444
0.75603
0.740875
0.725954
0.71125
0.696746
0.682426
0.668276
0.654283
0.640437
0.626726
0.613142
0.599676
0.586319
0.573064
0.559905
0.546834
0.533846
0.520936
0.508099
0.495329
0.482622
0.469975
0.457384
0.444844
0.432353
0.419908
0.407505
0.395143
0.382818
0.370527
0.35827
0.346044
0.333846
0.321676
0.309531
0.297409
0.28531
0.273232
0.261173
0.249133
0.23711
0.225103
0.213112
0.201134
0.18917
0.177218
0.165278
0.153349
0.14143
0.12952
0.11762
0.105728
0.0938446
0.0819682
0.0700988
0.0582359
0.0463791
0.0345281
0.0226825
0.0108419
-0.000993941
-0.0128253
-0.0246525
-0.0364757
-0.0482951
-0.060111
-0.0719237
-0.0837331
-0.0955395
-0.107343
-0.119144
-0.130942
-0.142738
-0.154532
-0.166323
-0.178113
-0.1899
-0.201686
-0.21347
0.21347
1.28069
1.28069
1.2449
1.20283
1.16102
1.12155
1.08537
1.05269
1.02328
0.996651
0.972305
0.949772
0.928667
0.908688
0.889612
0.871271
0.853543
0.836333
0.819573
0.803207
0.78719
0.771486
0.756067
0.740908
0.725984
0.711277
0.69677
0.682447
0.668295
0.654301
0.640453
0.626741
0.613156
0.599689
0.586331
0.573075
0.559914
0.546843
0.533855
0.520944
0.508106
0.495335
0.482629
0.469981
0.457389
0.444849
0.432358
0.419912
0.407509
0.395146
0.382821
0.370531
0.358273
0.346047
0.333849
0.321678
0.309533
0.297411
0.285312
0.273234
0.261175
0.249135
0.237112
0.225105
0.213113
0.201135
0.189171
0.177219
0.165279
0.15335
0.141431
0.129521
0.117621
0.105729
0.0938453
0.0819688
0.0700994
0.0582364
0.0463796
0.0345286
0.0226829
0.0108423
-0.000993528
-0.0128249
-0.0246521
-0.0364753
-0.0482948
-0.0601108
-0.0719234
-0.0837328
-0.0955393
-0.107343
-0.119144
-0.130942
-0.142738
-0.154532
-0.166323
-0.178113
-0.1899
-0.201686
-0.213468
0.213468
1.27199
1.27199
1.24289
1.20309
1.16195
1.12263
1.0864
1.05359
1.02401
0.997229
0.972754
0.950117
0.928933
0.908896
0.889777
0.871405
0.853653
0.836425
0.81965
0.803273
0.787248
0.771537
0.756113
0.740948
0.726019
0.711309
0.696799
0.682473
0.668319
0.654322
0.640472
0.626759
0.613172
0.599703
0.586344
0.573087
0.559926
0.546854
0.533864
0.520953
0.508114
0.495343
0.482636
0.469988
0.457395
0.444855
0.432363
0.419917
0.407514
0.395151
0.382825
0.370534
0.358277
0.34605
0.333852
0.321681
0.309536
0.297414
0.285315
0.273236
0.261177
0.249137
0.237113
0.225106
0.213114
0.201137
0.189172
0.17722
0.16528
0.153351
0.141432
0.129522
0.117622
0.10573
0.0938461
0.0819696
0.0701001
0.0582371
0.0463803
0.0345292
0.0226835
0.0108428
-0.000993048
-0.0128245
-0.0246517
-0.0364749
-0.0482944
-0.0601104
-0.0719231
-0.0837325
-0.095539
-0.107343
-0.119144
-0.130942
-0.142738
-0.154532
-0.166323
-0.178113
-0.1899
-0.201685
-0.213464
0.213464
1.26791
1.26791
1.24181
1.20321
1.16244
1.12322
1.08697
1.05409
1.02443
0.997564
0.973018
0.950325
0.929096
0.909026
0.889882
0.871492
0.853726
0.836487
0.819704
0.80332
0.787289
0.771574
0.756145
0.740977
0.726046
0.711333
0.69682
0.682493
0.668336
0.654338
0.640487
0.626773
0.613185
0.599715
0.586355
0.573097
0.559935
0.546862
0.533872
0.52096
0.508121
0.495349
0.482642
0.469993
0.4574
0.44486
0.432368
0.419921
0.407518
0.395154
0.382828
0.370537
0.358279
0.346052
0.333854
0.321683
0.309538
0.297416
0.285316
0.273238
0.261179
0.249138
0.237115
0.225108
0.213116
0.201138
0.189173
0.177221
0.165281
0.153352
0.141432
0.129523
0.117623
0.105731
0.0938467
0.0819702
0.0701006
0.0582376
0.0463808
0.0345296
0.0226839
0.0108432
-0.000992666
-0.0128241
-0.0246513
-0.0364746
-0.0482941
-0.0601101
-0.0719228
-0.0837323
-0.0955388
-0.107342
-0.119143
-0.130942
-0.142738
-0.154531
-0.166323
-0.178112
-0.1899
-0.201684
-0.21346
0.21346
1.26791
1.26791
1.24181
1.20321
1.16244
1.12322
1.08697
1.05409
1.02443
0.997564
0.973018
0.950325
0.929096
0.909026
0.889882
0.871492
0.853726
0.836487
0.819704
0.80332
0.787289
0.771574
0.756145
0.740977
0.726046
0.711333
0.69682
0.682493
0.668336
0.654338
0.640487
0.626773
0.613185
0.599715
0.586355
0.573097
0.559935
0.546862
0.533872
0.52096
0.508121
0.495349
0.482642
0.469993
0.4574
0.44486
0.432368
0.419921
0.407518
0.395154
0.382828
0.370537
0.358279
0.346052
0.333854
0.321683
0.309538
0.297416
0.285316
0.273238
0.261179
0.249138
0.237115
0.225108
0.213116
0.201138
0.189173
0.177221
0.165281
0.153352
0.141432
0.129523
0.117623
0.105731
0.0938467
0.0819702
0.0701006
0.0582376
0.0463808
0.0345296
0.0226839
0.0108432
-0.000992665
-0.0128241
-0.0246513
-0.0364746
-0.0482941
-0.0601101
-0.0719228
-0.0837323
-0.0955388
-0.107342
-0.119143
-0.130942
-0.142738
-0.154531
-0.166323
-0.178112
-0.1899
-0.201684
-0.21346
0.21346
1.27199
1.27199
1.24289
1.20309
1.16195
1.12263
1.0864
1.05359
1.02401
0.997229
0.972754
0.950118
0.928933
0.908896
0.889777
0.871405
0.853652
0.836425
0.819651
0.803273
0.787247
0.771537
0.756113
0.740947
0.726019
0.711309
0.696799
0.682473
0.668319
0.654322
0.640473
0.626759
0.613172
0.599703
0.586344
0.573087
0.559926
0.546854
0.533864
0.520953
0.508114
0.495343
0.482636
0.469988
0.457395
0.444855
0.432363
0.419917
0.407514
0.395151
0.382825
0.370534
0.358277
0.34605
0.333852
0.321681
0.309536
0.297414
0.285315
0.273236
0.261177
0.249137
0.237113
0.225106
0.213114
0.201137
0.189172
0.17722
0.16528
0.153351
0.141432
0.129522
0.117622
0.10573
0.0938461
0.0819696
0.0701001
0.0582371
0.0463803
0.0345292
0.0226835
0.0108428
-0.000993045
-0.0128245
-0.0246517
-0.0364749
-0.0482944
-0.0601104
-0.0719231
-0.0837325
-0.095539
-0.107343
-0.119144
-0.130942
-0.142738
-0.154532
-0.166323
-0.178113
-0.1899
-0.201685
-0.213464
0.213464
1.28068
1.28068
1.2449
1.20283
1.16102
1.12156
1.08537
1.0527
1.02328
0.99665
0.972306
0.949773
0.928667
0.908688
0.889612
0.871272
0.853543
0.836333
0.819573
0.803206
0.787189
0.771487
0.756068
0.740907
0.725984
0.711277
0.69677
0.682447
0.668295
0.654301
0.640453
0.626741
0.613156
0.599688
0.586331
0.573075
0.559914
0.546843
0.533855
0.520944
0.508106
0.495336
0.482629
0.469981
0.457389
0.444849
0.432358
0.419912
0.407509
0.395147
0.382821
0.370531
0.358273
0.346047
0.333849
0.321678
0.309533
0.297411
0.285312
0.273234
0.261175
0.249135
0.237112
0.225105
0.213113
0.201135
0.189171
0.177219
0.165279
0.15335
0.141431
0.129521
0.117621
0.105729
0.0938453
0.0819688
0.0700994
0.0582364
0.0463796
0.0345286
0.0226829
0.0108423
-0.000993524
-0.0128249
-0.0246521
-0.0364753
-0.0482948
-0.0601108
-0.0719234
-0.0837329
-0.0955393
-0.107343
-0.119144
-0.130942
-0.142738
-0.154532
-0.166323
-0.178113
-0.1899
-0.201686
-0.213468
0.213468
1.29507
1.29507
1.24741
1.20244
1.15989
1.12029
1.0842
1.0517
1.02249
0.996044
0.97185
0.949432
0.928411
0.908494
0.889462
0.871153
0.853447
0.836255
0.819507
0.80315
0.787141
0.771444
0.75603
0.740874
0.725954
0.711251
0.696746
0.682426
0.668276
0.654283
0.640437
0.626726
0.613142
0.599676
0.586319
0.573064
0.559905
0.546834
0.533846
0.520936
0.508099
0.495329
0.482623
0.469975
0.457384
0.444844
0.432353
0.419908
0.407505
0.395143
0.382818
0.370527
0.35827
0.346044
0.333846
0.321676
0.309531
0.297409
0.28531
0.273232
0.261173
0.249133
0.23711
0.225103
0.213112
0.201134
0.18917
0.177218
0.165278
0.153349
0.14143
0.12952
0.11762
0.105728
0.0938446
0.0819682
0.0700988
0.0582359
0.0463791
0.0345281
0.0226825
0.0108419
-0.000993936
-0.0128253
-0.0246524
-0.0364756
-0.0482951
-0.060111
-0.0719237
-0.0837331
-0.0955395
-0.107343
-0.119144
-0.130942
-0.142738
-0.154532
-0.166323
-0.178113
-0.1899
-0.201686
-0.21347
0.21347
1.31572
1.31572
1.24921
1.20213
1.15918
1.11952
1.0835
1.05111
1.02201
0.995674
0.971564
0.949211
0.928238
0.908357
0.889351
0.871061
0.85337
0.836188
0.819449
0.803099
0.787096
0.771404
0.755994
0.740842
0.725924
0.711223
0.696721
0.682403
0.668255
0.654264
0.640419
0.62671
0.613127
0.599662
0.586306
0.573052
0.559893
0.546824
0.533837
0.520927
0.50809
0.495321
0.482615
0.469969
0.457378
0.444838
0.432348
0.419903
0.407501
0.395138
0.382813
0.370524
0.358267
0.34604
0.333843
0.321673
0.309528
0.297407
0.285308
0.27323
0.261171
0.249131
0.237108
0.225102
0.21311
0.201132
0.189168
0.177217
0.165276
0.153347
0.141429
0.129519
0.117619
0.105728
0.0938437
0.0819674
0.070098
0.0582352
0.0463784
0.0345275
0.0226819
0.0108413
-0.000994451
-0.0128258
-0.0246529
-0.0364761
-0.0482955
-0.0601114
-0.071924
-0.0837334
-0.0955398
-0.107343
-0.119144
-0.130943
-0.142739
-0.154532
-0.166324
-0.178113
-0.189901
-0.201687
-0.213471
0.213471
1.31572
1.31572
1.24921
1.20213
1.15918
1.11952
1.0835
1.05111
1.02201
0.995674
0.971564
0.949211
0.928238
0.908357
0.889351
0.871061
0.85337
0.836188
0.819449
0.803099
0.787096
0.771404
0.755994
0.740842
0.725924
0.711223
0.696721
0.682403
0.668255
0.654264
0.640419
0.62671
0.613127
0.599662
0.586306
0.573052
0.559893
0.546824
0.533837
0.520927
0.50809
0.495321
0.482615
0.469969
0.457378
0.444838
0.432348
0.419903
0.407501
0.395138
0.382813
0.370524
0.358267
0.34604
0.333843
0.321673
0.309528
0.297407
0.285308
0.27323
0.261171
0.249131
0.237108
0.225102
0.21311
0.201132
0.189168
0.177217
0.165276
0.153347
0.141429
0.129519
0.117619
0.105728
0.0938437
0.0819674
0.070098
0.0582352
0.0463784
0.0345275
0.0226819
0.0108413
-0.000994451
-0.0128258
-0.0246529
-0.0364761
-0.0482955
-0.0601114
-0.071924
-0.0837334
-0.0955398
-0.107343
-0.119144
-0.130943
-0.142739
-0.154532
-0.166324
-0.178113
-0.189901
-0.201687
-0.213471
0.213471
SCALARS phi double
LOOKUP_TABLE phi
1
1
1
0.999995
0.999977
0.999931
0.999833
0.999655
0.999364
0.998929
0.998323
0.997523
0.996513
0.995279
0.993815
0.992118
0.990189
0.988032
0.985652
0.983059
0.980261
0.97727
0.974097
0.970755
0.967257
0.963614
0.959841
0.955948
0.951948
0.947849
0.943652
0.939354
0.934941
0.930388
0.925662
0.920717
0.915503
0.909963
0.904039
0.897675
0.890817
0.883418
0.875438
0.866845
0.857618
0.847743
0.837218
0.826049
0.814249
0.801841
0.788852
0.775316
0.761271
0.74676
0.731825
0.716515
0.700876
0.684954
0.668798
0.652452
0.635962
0.619371
0.602719
0.586045
0.569386
0.552776
0.536247
0.519826
0.503542
0.487418
0.471475
0.455734
0.440211
0.424922
0.409881
0.395098
0.380584
0.366346
0.352391
0.338725
0.325351
0.312273
0.299492
0.28701
0.274826
0.26294
0.251351
0.240056
0.229055
0.218344
0.207921
0.197782
0.187923
0.178344
0.169037
0.160007
0.151227
0.142772
0.134375
0.126955
0.117225
0.117225
1
1
1
0.999995
0.999977
0.999931
0.999833
0.999655
0.999364
0.998929
0.998323
0.997523
0.996513
0.995279
0.993815
0.992118
0.990189
0.988032
0.985652
0.983059
0.980261
0.97727
0.974097
0.970755
0.967257
0.963614
0.959841
0.955948
0.951948
0.947849
0.943652
0.939354
0.934941
0.930388
0.925662
0.920717
0.915503
0.909963
0.904039
0.897675
0.890817
0.883418
0.875438
0.866845
0.857618
0.847743
0.837218
0.826049
0.814249
0.801841
0.788852
0.775316
0.761271
0.74676
0.731825
0.716515
0.700876
0.684954
0.668798
0.652452
0.635962
0.619371
0.602719
0.586045
0.569386
0.552776
0.536247
0.519826
0.503542
0.487418
0.471475
0.455734
0.440211
0.424922
0.409881
0.395098
0.380584
0.366346
0.352391
0.338725
0.325351
0.312273
0.299492
0.28701
0.274826
0.26294
0.251351
0.240056
0.229055
0.218344
0.207921
0.197782
0.187923
0.178344
0.169037
0.160007
0.151227
0.142772
0.134375
0.126955
0.117225
0.117225
0.999998
1
0.999984
0.999921
0.999783
0.999536
0.999146
0.99858
0.997812
0.996819
0.99559
0.994116
0.992398
0.990437
0.98824
0.985817
0.983177
0.980333
0.977297
0.974081
0.9707
0.967166
0.963491
0.95969
0.955773
0.951752
0.947639
0.943445
0.939179
0.934851
0.930468
0.926034
0.921552
0.917016
0.912419
0.907743
0.902967
0.898063
0.892997
0.887731
0.882227
0.876443
0.870339
0.863877
0.857021
0.849742
0.842013
0.833815
0.825134
0.815963
0.806299
0.796147
0.785517
0.774422
0.762881
0.750917
0.738555
0.725824
0.712754
0.699376
0.685724
0.671831
0.657729
0.643453
0.629034
0.614504
0.599893
0.585232
0.570547
0.555866
0.541214
0.526613
0.512085
0.497651
0.483329
0.469136
0.455087
0.441196
0.427476
0.413937
0.40059
0.387442
0.374502
0.361774
0.349265
0.336978
0.324918
0.313085
0.301482
0.29011
0.278969
0.268058
0.257377
0.246925
0.236696
0.2267
0.216897
0.207405
0.197823
0.189467
0.177928
0.177928
1.00001
0.999992
0.99954
0.998615
0.997207
0.995317
0.992955
0.990145
0.986922
0.983332
0.979422
0.975241
0.970836
0.966248
0.961513
0.956664
0.951728
0.946728
0.941682
0.936608
0.931519
0.926427
0.92134
0.916268
0.911216
0.906189
0.901193
0.896232
0.891307
0.886422
0.881579
0.876779
0.872022
0.867308
0.862633
0.857993
0.853381
0.848787
0.844199
0.8396
0.834973
0.830295
0.825545
0.820696
0.815724
0.810602
0.805304
0.799806
0.794084
0.788117
0.781885
0.775372
0.768565
0.761452
0.754027
0.746286
0.738227
0.729852
0.721166
0.712175
0.70289
0.693321
0.683482
0.673387
0.663052
0.652495
0.641734
0.630786
0.61967
0.608405
0.59701
0.585503
0.573903
0.562228
0.550495
0.538721
0.526922
0.515113
0.503309
0.491523
0.479769
0.468058
0.456403
0.444813
0.433297
0.421865
0.410525
0.399283
0.388146
0.377119
0.366207
0.355414
0.344743
0.334197
0.323774
0.31349
0.303296
0.293347
0.283145
0.274282
0.261635
0.261635
1.00143
0.99857
0.991253
0.98188
0.971566
0.96086
0.950051
0.939311
0.928756
0.918468
0.908503
0.898898
0.889671
0.880827
0.87236
0.864261
0.856513
0.849098
0.841997
0.835192
0.828664
0.822396
0.816369
0.810569
0.80498
0.799588
0.794382
0.789348
0.784477
0.779758
0.775181
0.770738
0.766422
0.762224
0.758137
0.754154
0.750268
0.746471
0.742756
0.739114
0.735535
0.732009
0.728525
0.725069
0.72163
0.718191
0.714739
0.711256
0.707727
0.704136
0.700466
0.6967
0.692823
0.688821
0.684678
0.680382
0.675922
0.671286
0.666465
0.661453
0.656242
0.650828
0.645209
0.639382
0.633347
0.627106
0.62066
0.614013
0.607169
0.600135
0.592915
0.585518
0.57795
0.57022
0.562336
0.554307
0.546142
0.537851
0.529442
0.520925
0.51231
0.503604
0.494817
0.485959
0.477036
0.468058
0.459032
0.449966
0.440867
0.431741
0.422595
0.413434
0.404263
0.395089
0.385911
0.376748
0.367552
0.358488
0.349045
0.340832
0.328799
0.328799
1.0456
0.954401
0.887723
0.838673
0.801641
0.772861
0.749886
0.731119
0.715499
0.702298
0.691001
0.681228
0.672693
0.665173
0.658493
0.652515
0.647126
0.642236
0.637772
0.633673
0.629891
0.626382
0.623115
0.620059
0.61719
0.614489
0.611936
0.609518
0.607221
0.605034
0.602947
0.600951
0.599038
0.597202
0.595437
0.593736
0.592096
0.590511
0.588977
0.58749
0.586045
0.584638
0.583263
0.581918
0.580595
0.579289
0.577994
0.576704
0.575411
0.574107
0.572785
0.571436
0.570052
0.568622
0.567139
0.565592
0.563973
0.562272
0.560481
0.558589
0.55659
0.554475
0.552236
0.549867
0.547361
0.544712
0.541915
0.538965
0.535858
0.532591
0.529162
0.525567
0.521807
0.517879
0.513784
0.509521
0.505092
0.500497
0.495739
0.490817
0.485736
0.480498
0.475105
0.46956
0.463867
0.45803
0.452051
0.445934
0.439684
0.433303
0.426797
0.420169
0.413421
0.406561
0.399585
0.392514
0.385301
0.378099
0.370451
0.363772
0.353702
0.353702
-0.0455988
0.0455988
0.112277
0.161326
0.198359
0.227139
0.250114
0.268881
0.284501
0.297702
0.308999
0.318772
0.327307
0.334827
0.341507
0.347485
0.352874
0.357764
0.362228
0.366327
0.370109
0.373618
0.376885
0.379941
0.38281
0.385511
0.388064
0.390482
0.392779
0.394966
0.397053
0.39905
0.400962
0.402798
0.404563
0.406263
0.407903
0.409486
0.411017
0.412498
0.413934
0.415326
0.416677
0.417988
0.419261
0.420497
0.421697
0.422861
0.423987
0.425076
0.426127
0.427137
0.428104
0.429026
0.429899
0.43072
0.431485
0.43219
0.432828
0.433397
0.43389
0.434301
0.434624
0.434855
0.434986
0.435011
0.434925
0.43472
0.434392
0.433933
0.433339
0.432602
0.431719
0.430683
0.429489
0.428134
0.426611
0.424918
0.423051
0.421006
0.418779
0.41637
0.413774
0.410991