# vtk DataFile Version 3.0
FlowField
ASCII
DATASET STRUCTURED_GRID
DIMENSIONS 22 17 12 
POINTS 4488 double
0 0 0
0.1 0 0
0.2 0 0
0.3 0 0
0.4 0 0
0.5 0 0
0.6 0 0
0.7 0 0
0.8 0 0
0.9 0 0
1 0 0
1.1 0 0
1.2 0 0
1.3 0 0
1.4 0 0
1.5 0 0
1.6 0 0
1.7 0 0
1.8 0 0
1.9 0 0
2 0 0
2.1 0 0
0 0.1 0
0.1 0.1 0
0.2 0.1 0
0.3 0.1 0
0.4 0.1 0
0.5 0.1 0
0.6 0.1 0
0.7 0.1 0
0.8 0.1 0
0.9 0.1 0
1 0.1 0
1.1 0.1 0
1.2 0.1 0
1.3 0.1 0
1.4 0.1 0
1.5 0.1 0
1.6 0.1 0
1.7 0.1 0
1.8 0.1 0
1.9 0.1 0
2 0.1 0
2.1 0.1 0
0 0.2 0
0.1 0.2 0
0.2 0.2 0
0.3 0.2 0
0.4 0.2 0
0.5 0.2 0
0.6 0.2 0
0.7 0.2 0
0.8 0.2 0
0.9 0.2 0
1 0.2 0
1.1 0.2 0
1.2 0.2 0
1.3 0.2 0
1.4 0.2 0
1.5 0.2 0
1.6 0.2 0
1.7 0.2 0
1.8 0.2 0
1.9 0.2 0
2 0.2 0
2.1 0.2 0
0 0.3 0
0.1 0.3 0
0.2 0.3 0
0.3 0.3 0
0.4 0.3 0
0.5 0.3 0
0.6 0.3 0
0.7 0.3 0
0.8 0.3 0
0.9 0.3 0
1 0.3 0
1.1 0.3 0
1.2 0.3 0
1.3 0.3 0
1.4 0.3 0
1.5 0.3 0
1.6 0.3 0
1.7 0.3 0
1.8 0.3 0
1.9 0.3 0
2 0.3 0
2.1 0.3 0
0 0.4 0
0.1 0.4 0
0.2 0.4 0
0.3 0.4 0
0.4 0.4 0
0.5 0.4 0
0.6 0.4 0
0.7 0.4 0
0.8 0.4 0
0.9 0.4 0
1 0.4 0
1.1 0.4 0
1.2 0.4 0
1.3 0.4 0
1.4 0.4 0
1.5 0.4 0
1.6 0.4 0
1.7 0.4 0
1.8 0.4 0
1.9 0.4 0
2 0.4 0
2.1 0.4 0
0 0.5 0
0.1 0.5 0
0.2 0.5 0
0.3 0.5 0
0.4 0.5 0
0.5 0.5 0
0.6 0.5 0
0.7 0.5 0
0.8 0.5 0
0.9 0.5 0
1 0.5 0
1.1 0.5 0
1.2 0.5 0
1.3 0.5 0
1.4 0.5 0
1.5 0.5 0
1.6 0.5 0
1.7 0.5 0
1.8 0.5 0
1.9 0.5 0
2 0.5 0
2.1 0.5 0
0 0.6 0
0.1 0.6 0
0.2 0.6 0
0.3 0.6 0
0.4 0.6 0
0.5 0.6 0
0.6 0.6 0
0.7 0.6 0
0.8 0.6 0
0.9 0.6 0
1 0.6 0
1.1 0.6 0
1.2 0.6 0
1.3 0.6 0
1.4 0.6 0
1.5 0.6 0
1.6 0.6 0
1.7 0.6 0
1.8 0.6 0
1.9 0.6 0
2 0.6 0
2.1 0.6 0
0 0.7 0
0.1 0.7 0
0.2 0.7 0
0.3 0.7 0
0.4 0.7 0
0.5 0.7 0
0.6 0.7 0
0.7 0.7 0
0.8 0.7 0
0.9 0.7 0
1 0.7 0
1.1 0.7 0
1.2 0.7 0
1.3 0.7 0
1.4 0.7 0
1.5 0.7 0
1.6 0.7 0
1.7 0.7 0
1.8 0.7 0
1.9 0.7 0
2 0.7 0
2.1 0.7 0
0 0.8 0
0.1 0.8 0
0.2 0.8 0
0.3 0.8 0
0.4 0.8 0
0.5 0.8 0
0.6 0.8 0
0.7 0.8 0
0.8 0.8 0
0.9 0.8 0
1 0.8 0
1.1 0.8 0
1.2 0.8 0
1.3 0.8 0
1.4 0.8 0
1.5 0.8 0
1.6 0.8 0
1.7 0.8 0
1.8 0.8 0
1.9 0.8 0
2 0.8 0
2.1 0.8 0
0 0.9 0
0.1 0.9 0
0.2 0.9 0
0.3 0.9 0
0.4 0.9 0
0.5 0.9 0
0.6 0.9 0
0.7 0.9 0
0.8 0.9 0
0.9 0.9 0
1 0.9 0
1.1 0.9 0
1.2 0.9 0
1.3 0.9 0
1.4 0.9 0
1.5 0.9 0
1.6 0.9 0
1.7 0.9 0
1.8 0.9 0
1.9 0.9 0
2 0.9 0
2.1 0.9 0
0 1 0
0.1 1 0
0.2 1 0
0.3 1 0
0.4 1 0
0.5 1 0
0.6 1 0
0.7 1 0
0.8 1 0
0.9 1 0
1 1 0
1.1 1 0
1.2 1 0
1.3 1 0
1.4 1 0
1.5 1 0
1.6 1 0
1.7 1 0
1.8 1 0
1.9 1 0
2 1 0
2.1 1 0
0 1.1 0
0.1 1.1 0
0.2 1.1 0
0.3 1.1 0
0.4 1.1 0
0.5 1.1 0
0.6 1.1 0
0.7 1.1 0
0.8 1.1 0
0.9 1.1 0
1 1.1 0
1.1 1.1 0
1.2 1.1 0
1.3 1.1 0
1.4 1.1 0
1.5 1.1 0
1.6 1.1 0
1.7 1.1 0
1.8 1.1 0
1.9 1.1 0
2 1.1 0
2.1 1.1 0
0 1.2 0
0.1 1.2 0
0.2 1.2 0
0.3 1.2 0
0.4 1.2 0
0.5 1.2 0
0.6 1.2 0
0.7 1.2 0
0.8 1.2 0
0.9 1.2 0
1 1.2 0
1.1 1.2 0
1.2 1.2 0
1.3 1.2 0
1.4 1.2 0
1.5 1.2 0
1.6 1.2 0
1.7 1.2 0
1.8 1.2 0
1.9 1.2 0
2 1.2 0
2.1 1.2 0
0 1.3 0
0.1 1.3 0
0.2 1.3 0
0.3 1.3 0
0.4 1.3 0
0.5 1.3 0
0.6 1.3 0
0.7 1.3 0
0.8 1.3 0
0.9 1.3 0
1 1.3 0
1.1 1.3 0
1.2 1.3 0
1.3 1.3 0
1.4 1.3 0
1.5 1.3 0
1.6 1.3 0
1.7 1.3 0
1.8 1.3 0
1.9 1.3 0
2 1.3 0
2.1 1.3 0
0 1.4 0
0.1 1.4 0
0.2 1.4 0
0.3 1.4 0
0.4 1.4 0
0.5 1.4 0
0.6 1.4 0
0.7 1.4 0
0.8 1.4 0
0.9 1.4 0
1 1.4 0
1.1 1.4 0
1.2 1.4 0
1.3 1.4 0
1.4 1.4 0
1.5 1.4 0
1.6 1.4 0
1.7 1.4 0
1.8 1.4 0
1.9 1.4 0
2 1.4 0
2.1 1.4 0
0 1.5 0
0.1 1.5 0
0.2 1.5 0
0.3 1.5 0
0.4 1.5 0
0.5 1.5 0
0.6 1.5 0
0.7 1.5 0
0.8 1.5 0
0.9 1.5 0
1 1.5 0
1.1 1.5 0
1.2 1.5 0
1.3 1.5 0
1.4 1.5 0
1.5 1.5 0
1.6 1.5 0
1.7 1.5 0
1.8 1.5 0
1.9 1.5 0
2 1.5 0
2.1 1.5 0
0 1.6 0
0.1 1.6 0
0.2 1.6 0
0.3 1.6 0
0.4 1.6 0
0.5 1.6 0
0.6 1.6 0
0.7 1.6 0
0.8 1.6 0
0.9 1.6 0
1 1.6 0
1.1 1.6 0
1.2 1.6 0
1.3 1.6 0
1.4 1.6 0
1.5 1.6 0
1.6 1.6 0
1.7 1.6 0
1.8 1.6 0
1.9 1.6 0
2 1.6 0
2.1 1.6 0
0 0 0.1
0.1 0 0.1
0.2 0 0.1
0.3 0 0.1
0.4 0 0.1
0.5 0 0.1
0.6 0 0.1
0.7 0 0.1
0.8 0 0.1
0.9 0 0.1
1 0 0.1
1.1 0 0.1
1.2 0 0.1
1.3 0 0.1
1.4 0 0.1
1.5 0 0.1
1.6 0 0.1
1.7 0 0.1
1.8 0 0.1
1.9 0 0.1
2 0 0.1
2.1 0 0.1
0 0.1 0.1
0.1 0.1 0.1
0.2 0.1 0.1
0.3 0.1 0.1
0.4 0.1 0.1
0.5 0.1 0.1
0.6 0.1 0.1
0.7 0.1 0.1
0.8 0.1 0.1
0.9 0.1 0.1
1 0.1 0.1
1.1 0.1 0.1
1.2 0.1 0.1
1.3 0.1 0.1
1.4 0.1 0.1
1.5 0.1 0.1
1.6 0.1 0.1
1.7 0.1 0.1
1.8 0.1 0.1
1.9 0.1 0.1
2 0.1 0.1
2.1 0.1 0.1
0 0.2 0.1
0.1 0.2 0.1
0.2 0.2 0.1
0.3 0.2 0.1
0.4 0.2 0.1
0.5 0.2 0.1
0.6 0.2 0.1
0.7 0.2 0.1
0.8 0.2 0.1
0.9 0.2 0.1
1 0.2 0.1
1.1 0.2 0.1
1.2 0.2 0.1
1.3 0.2 0.1
1.4 0.2 0.1
1.5 0.2 0.1
1.6 0.2 0.1
1.7 0.2 0.1
1.8 0.2 0.1
1.9 0.2 0.1
2 0.2 0.1
2.1 0.2 0.1
0 0.3 0.1
0.1 0.3 0.1
0.2 0.3 0.1
0.3 0.3 0.1
0.4 0.3 0.1
0.5 0.3 0.1
0.6 0.3 0.1
0.7 0.3 0.1
0.8 0.3 0.1
0.9 0.3 0.1
1 0.3 0.1
1.1 0.3 0.1
1.2 0.3 0.1
1.3 0.3 0.1
1.4 0.3 0.1
1.5 0.3 0.1
1.6 0.3 0.1
1.7 0.3 0.1
1.8 0.3 0.1
1.9 0.3 0.1
2 0.3 0.1
2.1 0.3 0.1
0 0.4 0.1
0.1 0.4 0.1
0.2 0.4 0.1
0.3 0.4 0.1
0.4 0.4 0.1
0.5 0.4 0.1
0.6 0.4 0.1
0.7 0.4 0.1
0.8 0.4 0.1
0.9 0.4 0.1
1 0.4 0.1
1.1 0.4 0.1
1.2 0.4 0.1
1.3 0.4 0.1
1.4 0.4 0.1
1.5 0.4 0.1
1.6 0.4 0.1
1.7 0.4 0.1
1.8 0.4 0.1
1.9 0.4 0.1
2 0.4 0.1
2.1 0.4 0.1
0 0.5 0.1
0.1 0.5 0.1
0.2 0.5 0.1
0.3 0.5 0.1
0.4 0.5 0.1
0.5 0.5 0.1
0.6 0.5 0.1
0.7 0.5 0.1
0.8 0.5 0.1
0.9 0.5 0.1
1 0.5 0.1
1.1 0.5 0.1
1.2 0.5 0.1
1.3 0.5 0.1
1.4 0.5 0.1
1.5 0.5 0.1
1.6 0.5 0.1
1.7 0.5 0.1
1.8 0.5 0.1
1.9 0.5 0.1
2 0.5 0.1
2.1 0.5 0.1
0 0.6 0.1
0.1 0.6 0.1
0.2 0.6 0.1
0.3 0.6 0.1
0.4 0.6 0.1
0.5 0.6 0.1
0.6 0.6 0.1
0.7 0.6 0.1
0.8 0.6 0.1
0.9 0.6 0.1
1 0.6 0.1
1.1 0.6 0.1
1.2 0.6 0.1
1.3 0.6 0.1
1.4 0.6 0.1
1.5 0.6 0.1
1.6 0.6 0.1
1.7 0.6 0.1
1.8 0.6 0.1
1.9 0.6 0.1
2 0.6 0.1
2.1 0.6 0.1
0 0.7 0.1
0.1 0.7 0.1
0.2 0.7 0.1
0.3 0.7 0.1
0.4 0.7 0.1
0.5 0.7 0.1
0.6 0.7 0.1
0.7 0.7 0.1
0.8 0.7 0.1
0.9 0.7 0.1
1 0.7 0.1
1.1 0.7 0.1
1.2 0.7 0.1
1.3 0.7 0.1
1.4 0.7 0.1
1.5 0.7 0.1
1.6 0.7 0.1
1.7 0.7 0.1
1.8 0.7 0.1
1.9 0.7 0.1
2 0.7 0.1
2.1 0.7 0.1
0 0.8 0.1
0.1 0.8 0.1
0.2 0.8 0.1
0.3 0.8 0.1
0.4 0.8 0.1
0.5 0.8 0.1
0.6 0.8 0.1
0.7 0.8 0.1
0.8 0.8 0.1
0.9 0.8 0.1
1 0.8 0.1
1.1 0.8 0.1
1.2 0.8 0.1
1.3 0.8 0.1
1.4 0.8 0.1
1.5 0.8 0.1
1.6 0.8 0.1
1.7 0.8 0.1
1.8 0.8 0.1
1.9 0.8 0.1
2 0.8 0.1
2.1 0.8 0.1
0 0.9 0.1
0.1 0.9 0.1
0.2 0.9 0.1
0.3 0.9 0.1
0.4 0.9 0.1
0.5 0.9 0.1
0.6 0.9 0.1
0.7 0.9 0.1
0.8 0.9 0.1
0.9 0.9 0.1
1 0.9 0.1
1.1 0.9 0.1
1.2 0.9 0.1
1.3 0.9 0.1
1.4 0.9 0.1
1.5 0.9 0.1
1.6 0.9 0.1
1.7 0.9 0.1
1.8 0.9 0.1
1.9 0.9 0.1
2 0.9 0.1
2.1 0.9 0.1
0 1 0.1
0.1 1 0.1
0.2 1 0.1
0.3 1 0.1
0.4 1 0.1
0.5 1 0.1
0.6 1 0.1
0.7 1 0.1
0.8 1 0.1
0.9 1 0.1
1 1 0.1
1.1 1 0.1
1.2 1 0.1
1.3 1 0.1
1.4 1 0.1
1.5 1 0.1
1.6 1 0.1
1.7 1 0.1
1.8 1 0.1
1.9 1 0.1
2 1 0.1
2.1 1 0.1
0 1.1 0.1
0.1 1.1 0.1
0.2 1.1 0.1
0.3 1.1 0.1
0.4 1.1 0.1
0.5 1.1 0.1
0.6 1.1 0.1
0.7 1.1 0.1
0.8 1.1 0.1
0.9 1.1 0.1
1 1.1 0.1
1.1 1.1 0.1
1.2 1.1 0.1
1.3 1.1 0.1
1.4 1.1 0.1
1.5 1.1 0.1
1.6 1.1 0.1
1.7 1.1 0.1
1.8 1.1 0.1
1.9 1.1 0.1
2 1.1 0.1
2.1 1.1 0.1
0 1.2 0.1
0.1 1.2 0.1
0.2 1.2 0.1
0.3 1.2 0.1
0.4 1.2 0.1
0.5 1.2 0.1
0.6 1.2 0.1
0.7 1.2 0.1
0.8 1.2 0.1
0.9 1.2 0.1
1 1.2 0.1
1.1 1.2 0.1
1.2 1.2 0.1
1.3 1.2 0.1
1.4 1.2 0.1
1.5 1.2 0.1
1.6 1.2 0.1
1.7 1.2 0.1
1.8 1.2 0.1
1.9 1.2 0.1
2 1.2 0.1
2.1 1.2 0.1
0 1.3 0.1
0.1 1.3 0.1
0.2 1.3 0.1
0.3 1.3 0.1
0.4 1.3 0.1
0.5 1.3 0.1
0.6 1.3 0.1
0.7 1.3 0.1
0.8 1.3 0.1
0.9 1.3 0.1
1 1.3 0.1
1.1 1.3 0.1
1.2 1.3 0.1
1.3 1.3 0.1
1.4 1.3 0.1
1.5 1.3 0.1
1.6 1.3 0.1
1.7 1.3 0.1
1.8 1.3 0.1
1.9 1.3 0.1
2 1.3 0.1
2.1 1.3 0.1
0 1.4 0.1
0.1 1.4 0.1
0.2 1.4 0.1
0.3 1.4 0.1
0.4 1.4 0.1
0.5 1.4 0.1
0.6 1.4 0.1
0.7 1.4 0.1
0.8 1.4 0.1
0.9 1.4 0.1
1 1.4 0.1
1.1 1.4 0.1
1.2 1.4 0.1
1.3 1.4 0.1
1.4 1.4 0.1
1.5 1.4 0.1
1.6 1.4 0.1
1.7 1.4 0.1
1.8 1.4 0.1
1.9 1.4 0.1
2 1.4 0.1
2.1 1.4 0.1
0 1.5 0.1
0.1 1.5 0.1
0.2 1.5 0.1
0.3 1.5 0.1
0.4 1.5 0.1
0.5 1.5 0.1
0.6 1.5 0.1
0.7 1.5 0.1
0.8 1.5 0.1
0.9 1.5 0.1
1 1.5 0.1
1.1 1.5 0.1
1.2 1.5 0.1
1.3 1.5 0.1
1.4 1.5 0.1
1.5 1.5 0.1
1.6 1.5 0.1
1.7 1.5 0.1
1.8 1.5 0.1
1.9 1.5 0.1
2 1.5 0.1
2.1 1.5 0.1
0 1.6 0.1
0.1 1.6 0.1
0.2 1.6 0.1
0.3 1.6 0.1
0.4 1.6 0.1
0.5 1.6 0.1
0.6 1.6 0.1
0.7 1.6 0.1
0.8 1.6 0.1
0.9 1.6 0.1
1 1.6 0.1
1.1 1.6 0.1
1.2 1.6 0.1
1.3 1.6 0.1
1.4 1.6 0.1
1.5 1.6 0.1
1.6 1.6 0.1
1.7 1.6 0.1
1.8 1.6 0.1
1.9 1.6 0.1
2 1.6 0.1
2.1 1.6 0.1
0 0 0.2
0.1 0 0.2
0.2 0 0.2
0.3 0 0.2
0.4 0 0.2
0.5 0 0.2
0.6 0 0.2
0.7 0 0.2
0.8 0 0.2
0.9 0 0.2
1 0 0.2
1.1 0 0.2
1.2 0 0.2
1.3 0 0.2
1.4 0 0.2
1.5 0 0.2
1.6 0 0.2
1.7 0 0.2
1.8 0 0.2
1.9 0 0.2
2 0 0.2
2.1 0 0.2
0 0.1 0.2
0.1 0.1 0.2
0.2 0.1 0.2
0.3 0.1 0.2
0.4 0.1 0.2
0.5 0.1 0.2
0.6 0.1 0.2
0.7 0.1 0.2
0.8 0.1 0.2
0.9 0.1 0.2
1 0.1 0.2
1.1 0.1 0.2
1.2 0.1 0.2
1.3 0.1 0.2
1.4 0.1 0.2
1.5 0.1 0.2
1.6 0.1 0.2
1.7 0.1 0.2
1.8 0.1 0.2
1.9 0.1 0.2
2 0.1 0.2
2.1 0.1 0.2
0 0.2 0.2
0.1 0.2 0.2
0.2 0.2 0.2
0.3 0.2 0.2
0.4 0.2 0.2
0.5 0.2 0.2
0.6 0.2 0.2
0.7 0.2 0.2
0.8 0.2 0.2
0.9 0.2 0.2
1 0.2 0.2
1.1 0.2 0.2
1.2 0.2 0.2
1.3 0.2 0.2
1.4 0.2 0.2
1.5 0.2 0.2
1.6 0.2 0.2
1.7 0.2 0.2
1.8 0.2 0.2
1.9 0.2 0.2
2 0.2 0.2
2.1 0.2 0.2
0 0.3 0.2
0.1 0.3 0.2
0.2 0.3 0.2
0.3 0.3 0.2
0.4 0.3 0.2
0.5 0.3 0.2
0.6 0.3 0.2
0.7 0.3 0.2
0.8 0.3 0.2
0.9 0.3 0.2
1 0.3 0.2
1.1 0.3 0.2
1.2 0.3 0.2
1.3 0.3 0.2
1.4 0.3 0.2
1.5 0.3 0.2
1.6 0.3 0.2
1.7 0.3 0.2
1.8 0.3 0.2
1.9 0.3 0.2
2 0.3 0.2
2.1 0.3 0.2
0 0.4 0.2
0.1 0.4 0.2
0.2 0.4 0.2
0.3 0.4 0.2
0.4 0.4 0.2
0.5 0.4 0.2
0.6 0.4 0.2
0.7 0.4 0.2
0.8 0.4 0.2
0.9 0.4 0.2
1 0.4 0.2
1.1 0.4 0.2
1.2 0.4 0.2
1.3 0.4 0.2
1.4 0.4 0.2
1.5 0.4 0.2
1.6 0.4 0.2
1.7 0.4 0.2
1.8 0.4 0.2
1.9 0.4 0.2
2 0.4 0.2
2.1 0.4 0.2
0 0.5 0.2
0.1 0.5 0.2
0.2 0.5 0.2
0.3 0.5 0.2
0.4 0.5 0.2
0.5 0.5 0.2
0.6 0.5 0.2
0.7 0.5 0.2
0.8 0.5 0.2
0.9 0.5 0.2
1 0.5 0.2
1.1 0.5 0.2
1.2 0.5 0.2
1.3 0.5 0.2
1.4 0.5 0.2
1.5 0.5 0.2
1.6 0.5 0.2
1.7 0.5 0.2
1.8 0.5 0.2
1.9 0.5 0.2
2 0.5 0.2
2.1 0.5 0.2
0 0.6 0.2
0.1 0.6 0.2
0.2 0.6 0.2
0.3 0.6 0.2
0.4 0.6 0.2
0.5 0.6 0.2
0.6 0.6 0.2
0.7 0.6 0.2
0.8 0.6 0.2
0.9 0.6 0.2
1 0.6 0.2
1.1 0.6 0.2
1.2 0.6 0.2
1.3 0.6 0.2
1.4 0.6 0.2
1.5 0.6 0.2
1.6 0.6 0.2
1.7 0.6 0.2
1.8 0.6 0.2
1.9 0.6 0.2
2 0.6 0.2
2.1 0.6 0.2
0 0.7 0.2
0.1 0.7 0.2
0.2 0.7 0.2
0.3 0.7 0.2
0.4 0.7 0.2
0.5 0.7 0.2
0.6 0.7 0.2
0.7 0.7 0.2
0.8 0.7 0.2
0.9 0.7 0.2
1 0.7 0.2
1.1 0.7 0.2
1.2 0.7 0.2
1.3 0.7 0.2
1.4 0.7 0.2
1.5 0.7 0.2
1.6 0.7 0.2
1.7 0.7 0.2
1.8 0.7 0.2
1.9 0.7 0.2
2 0.7 0.2
2.1 0.7 0.2
0 0.8 0.2
0.1 0.8 0.2
[...]
POINT_DATA 4488

SCALARS pressure double
LOOKUP_TABLE pressure
0
0
0
0
0
0
0
0
0
0
0
0
0
0
0
0
0
0
0
0
0
0
0
48.8506
48.8452
48.8419
48.8396
48.8376
48.8342
48.833
48.8319
48.8312
48.8306
48.8299
48.8292
48.8297
48.8292
48.8288
48.8293
48.8289
48.8286
48.8278
48.8273
0
0
48.8447
48.8432
48.8413
48.8392
48.8368
48.8346
48.833
48.8318
48.831
48.8304
48.8298
48.8295
48.8296
48.8295
48.8294
48.8291
48.829
48.8291
48.8289
48.8286
0
0
48.8416
48.8412
48.8404
48.839
48.8355
48.8343
48.833
48.832
48.8312
48.8304
48.8299
48.8302
48.8301
48.8301
48.83
48.8298
48.8297
48.83
48.8303
48.8301
0
0
48.8397
48.8397
48.839
48.8376
48.8358
48.834
48.8329
48.8321
48.8313
48.83
48.8291
48.8315
48.8309
48.8307
48.8305
48.8303
48.8303
48.8308
48.8315
48.8314
0
0
48.8384
48.8387
48.8385
48.8368
48.8363
48.8332
48.8329
48.8324
48.8317
48.8308
48.8302
48.8306
48.831
48.8312
48.831
48.8306
48.8307
48.8315
48.8326
48.8325
0
0
48.8373
48.8374
48.8371
48.8363
48.8352
48.8341
48.8334
48.8329
48.8324
48.8313
48.8304
48.8302
48.8313
48.8316
48.8313
48.831
48.8307
48.832
48.8332
48.8334
0
0
48.8364
48.8366
48.8364
48.8358
48.8343
48.8343
48.8339
48.8333
48.8325
48.832
48.8316
48.8315
48.8317
48.8318
48.8318
48.8316
48.831
48.8323
48.8327
48.8328
0
0
48.8357
48.836
48.836
48.836
48.8365
48.8351
48.8344
48.8338
48.8332
48.8327
48.8324
48.8322
48.8321
48.8322
48.8323
48.8323
48.8317
48.8329
48.8341
48.8332
0
0
48.835
48.8356
48.8357
48.8357
48.8357
48.8352
48.8347
48.8341
48.8336
48.8332
48.833
48.8328
48.8327
48.8328
48.833
48.833
48.8329
48.8333
48.8336
48.8334
0
0
48.8336
48.8357
48.8356
48.8355
48.8354
48.8352
48.8349
48.8345
48.8341
48.8338
48.8336
48.8335
48.8335
48.8336
48.8337
48.8336
48.8336
48.8337
48.8339
48.834
0
0
48.8344
48.8352
48.8354
48.8354
48.8354
48.8352
48.835
48.8347
48.8344
48.8344
48.8343
48.8342
48.8343
48.8346
48.8349
48.834
48.8341
48.8342
48.8344
48.8346
0
0
48.8345
48.835
48.8352
48.8353
48.8354
48.8353
48.8351
48.835
48.8349
48.8349
48.8349
48.8349
48.835
48.8356
48.837
48.8334
48.8345
48.8347
48.835
48.8352
0
0
48.8345
48.8349
48.8351
48.8352
48.8353
48.8353
48.8353
48.8352
48.8352
48.8353
48.8354
48.8353
48.835
48.8362
48.8363
48.8356
48.8355
48.8354
48.8358
48.8362
0
0
48.8345
48.8349
48.835
48.8352
48.8353
48.8353
48.8354
48.8354
48.8355
48.8357
48.8358
48.8359
48.836
48.8364
48.8366
48.8365
48.8364
48.8363
48.8365
48.8367
0
0
48.8347
48.8349
48.835
48.8351
48.8352
48.8353
48.8354
48.8355
48.8357
48.836
48.8363
48.8365
48.8366
48.8368
48.8371
48.8371
48.8371
48.8372
48.8373
48.8373
0
0
0
0
0
0
0
0
0
0
0
0
0
0
0
0
0
0
0
0
0
0
0
0
48.8506
48.8452
48.8419
48.8396
48.8376
48.8342
48.833
48.8319
48.8312
48.8306
48.8299
48.8292
48.8297
48.8292
48.8288
48.8293
48.8289
48.8286
48.8278
48.8273
0
48.8506
48.8506
48.8452
48.8419
48.8396
48.8376
48.8342
48.833
48.8319
48.8312
48.8306
48.8299
48.8292
48.8297
48.8292
48.8288
48.8293
48.8289
48.8286
48.8278
48.8273
48.8273
48.8447
48.8447
48.8432
48.8413
48.8392
48.8368
48.8346
48.833
48.8318
48.831
48.8304
48.8298
48.8295
48.8296
48.8295
48.8294
48.8291
48.829
48.8291
48.8289
48.8286
48.8286
48.8416
48.8416
48.8412
48.8404
48.839
48.8355
48.8343
48.833
48.832
48.8312
48.8304
48.8299
48.8302
48.8301
48.8301
48.83
48.8298
48.8297
48.83
48.8303
48.8301
48.8301
48.8397
48.8397
48.8397
48.839
48.8376
48.8358
48.834
48.8329
48.8321
48.8313
48.83
48.8291
48.8315
48.8309
48.8307
48.8305
48.8303
48.8303
48.8308
48.8315
48.8314
48.8314
48.8384
48.8384
48.8387
48.8385
48.8368
48.8363
48.8332
48.8329
48.8324
48.8317
48.8308
48.8302
48.8306
48.831
48.8312
48.831
48.8306
48.8307
48.8315
48.8326
48.8325
48.8325
48.8373
48.8373
48.8374
48.8371
48.8363
48.8352
48.8341
48.8334
48.8329
48.8324
48.8313
48.8304
48.8302
48.8313
48.8316
48.8313
48.831
48.8307
48.832
48.8332
48.8334
48.8334
48.8364
48.8364
48.8366
48.8364
48.8358
48.8343
48.8343
48.8339
48.8333
48.8325
48.832
48.8316
48.8315
48.8317
48.8318
48.8318
48.8316
48.831
48.8323
48.8327
48.8328
48.8328
48.8357
48.8357
48.836
48.836
48.836
48.8365
48.8351
48.8344
48.8338
48.8332
48.8327
48.8324
48.8322
48.8321
48.8322
48.8323
48.8323
48.8317
48.8329
48.8341
48.8332
48.8332
48.835
48.835
48.8356
48.8357
48.8357
48.8357
48.8352
48.8347
48.8341
48.8336
48.8332
48.833
48.8328
48.8327
48.8328
48.833
48.833
48.8329
48.8333
48.8336
48.8334
48.8334
48.8336
48.8336
48.8357
48.8356
48.8355
48.8354
48.8352
48.8349
48.8345
48.8341
48.8338
48.8336
48.8335
48.8335
48.8336
48.8337
48.8336
48.8336
48.8337
48.8339
48.834
48.834
48.8344
48.8344
48.8352
48.8354
48.8354
48.8354
48.8352
48.835
48.8347
48.8344
48.8344
48.8343
48.8342
48.8343
48.8346
48.8349
48.834
48.8341
48.8342
48.8344
48.8346
48.8346
48.8345
48.8345
48.835
48.8352
48.8353
48.8354
48.8353
48.8351
48.835
48.8349
48.8349
48.8349
48.8349
48.835
48.8356
48.837
48.8334
48.8345
48.8347
48.835
48.8352
48.8352
48.8345
48.8345
48.8349
48.8351
48.8352
48.8353
48.8353
48.8353
48.8352
48.8352
48.8353
48.8354
48.8353
48.835
48.8362
48.8363
48.8356
48.8355
48.8354
48.8358
48.8362
48.8362
48.8345
48.8345
48.8349
48.835
48.8352
48.8353
48.8353
48.8354
48.8354
48.8355
48.8357
48.8358
48.8359
48.836
48.8364
48.8366
48.8365
48.8364
48.8363
48.8365
48.8367
48.8367
48.8347
48.8347
48.8349
48.835
48.8351
48.8352
48.8353
48.8354
48.8355
48.8357
48.836
48.8363
48.8365
48.8366
48.8368
48.8371
48.8371
48.8371
48.8372
48.8373
48.8373
48.8373
0
48.8347
48.8349
48.835
48.8351
48.8352
48.8353
48.8354
48.8355
48.8357
48.836
48.8363
48.8365
48.8366
48.8368
48.8371
48.8371
48.8371
48.8372
48.8373
48.8373
0
0
48.8543
48.8488
48.845
48.8402
48.8324
48.8278
48.8278
48.8292
48.8303
48.8308
48.8306
48.8303
48.8302
48.83
48.8298
48.8297
48.8294
48.8288
48.8279
48.8274
0
48.8543
48.8543
48.8488
48.845
48.8402
48.8324
48.8278
48.8278
48.8292
48.8303
48.8308
48.8306
48.8303
48.8302
48.83
48.8298
48.8297
48.8294
48.8288
48.8279
48.8274
48.8274
48.8482
48.8482
48.8466
48.8442
48.8405
48.8346
48.8293
48.828
48.8287
48.8297
48.8302
48.8302
48.8302
48.8302
48.8302
48.8301
48.8299
48.8297
48.8294
48.8289
48.8286
48.8286
48.8447
48.8447
48.8441
48.8427
48.8402
48.8358
48.831
48.8287
48.8286
48.8293
48.8298
48.8301
48.8304
48.8305
48.8305
48.8305
48.8303
48.8302
48.8302
48.8302
48.8301
48.8301
48.8423
48.8423
48.8422
48.8413
48.8396
48.8366
48.8326
48.8299
48.829
48.8291
48.8294
48.8298
48.8306
48.8308
48.8308
48.8308
48.8307
48.8307
48.831
48.8313
48.8312
48.8312
48.8406
48.8406
48.8407
48.8403
48.8391
48.8373
48.8342
48.8316
48.83
48.8295
48.8295
48.8298
48.8304
48.8308
48.8311
48.8311
48.8311
48.8312
48.8316
48.8321
48.8321
48.8321
48.8392
48.8392
48.8393
48.8391
48.8385
48.8372
48.8352
48.8331
48.8313
48.8304
48.8301
48.8302
48.8305
48.8309
48.8312
48.8314
48.8314
48.8315
48.8321
48.8327
48.8326
48.8326
48.838
48.838
48.8382
48.8382
48.8378
48.8369
48.8358
48.8345
48.8332
48.8319
48.8312
48.8309
48.831
48.8312
48.8315
48.8317
48.8318
48.8319
48.8325
48.8329
48.8329
48.8329
48.8371
48.8371
48.8374
48.8374
48.8374
48.8371
48.8364
48.8355
48.8343
48.833
48.832
48.8315
48.8315
48.8317
48.832
48.8323
48.8324
48.8326
48.8331
48.8336
48.8335
48.8335
48.8364
48.8364
48.8367
48.8369
48.8369
48.8368
48.8364
48.8357
48.8348
48.8337
48.8328
48.8324
48.8324
48.8326
48.8328
48.833
48.8331
48.8333
48.8336
48.8339
48.834
48.834
48.8357
48.8357
48.8363
48.8364
48.8365
48.8364
48.8362
48.8358
48.8352
48.8345
48.8341
48.8338
48.8336
48.8336
48.8337
48.8338
48.8338
48.8339
48.8341
48.8343
48.8345
48.8345
48.8355
48.8355
48.8359
48.836
48.8361
48.8361
48.836
48.8358
48.8355
48.8353
48.8351
48.8348
48.8346
48.8346
48.8346
48.8347
48.8345
48.8345
48.8346
48.8348
48.835
48.835
48.8353
48.8353
48.8356
48.8358
48.8359
48.8359
48.8359
48.8358
48.8357
48.8356
48.8356
48.8354
48.8353
48.8353
48.8354
48.8356
48.835
48.8351
48.8352
48.8354
48.8356
48.8356
48.8351
48.8351
48.8354
48.8356
48.8357
48.8358
48.8358
48.8358
48.8358
48.8358
48.8359
48.8358
48.8358
48.8357
48.836
48.8361
48.8358
48.8358
48.8359
48.8361
48.8363
48.8363
48.835
48.835
48.8353
48.8354
48.8355
48.8356
48.8357
48.8358
48.8358
48.8359
48.8361
48.8362
48.8362
48.8363
48.8365
48.8366
48.8365
48.8365
48.8366
48.8368
48.8369
48.8369
48.8351
48.8351
48.8352
48.8353
48.8354
48.8355
48.8356
48.8357
48.8359
48.836
48.8363
48.8365
48.8366
48.8368
48.8369
48.8371
48.8372
48.8372
48.8373
48.8375
48.8376
48.8376
0
48.8351
48.8352
48.8353
48.8354
48.8355
48.8356
48.8357
48.8359
48.836
48.8363
48.8365
48.8366
48.8368
48.8369
48.8371
48.8372
48.8372
48.8373
48.8375
48.8376
0
0
48.8583
48.8532
48.8499
48.8426
48.8212
48.8143
48.8201
48.8266
48.8303
48.8317
48.8318
48.8314
48.8311
48.8308
48.8306
48.8304
48.8299
48.8292
48.828
48.8275
0
48.8583
48.8583
48.8532
48.8499
48.8426
48.8212
48.8143
48.8201
48.8266
48.8303
48.8317
48.8318
48.8314
48.8311
48.8308
48.8306
48.8304
48.8299
48.8292
48.828
48.8275
48.8275
48.8517
48.8517
48.8504
48.8485
48.8439
48.8317
48.8189
48.8195
48.8245
48.8284
48.8304
48.8309
48.831
48.831
48.8309
48.8308
48.8306
48.8302
48.8297
48.829
48.8287
48.8287
48.8477
48.8477
48.8473
48.8462
48.8435
48.8365
48.8249
48.8212
48.8236
48.8269
48.8292
48.8303
48.8308
48.831
48.8311
48.831
48.8308
48.8306
48.8304
48.8302
48.8301
48.8301
48.8448
48.8448
48.8448
48.8442
48.8426
48.8379
48.8296
48.8242
48.824
48.826
48.828
48.8295
48.8304
48.8309
48.8311
48.8312
48.8311
48.8311
48.8311
48.8312
48.8312
48.8312
48.8427
48.8427
48.8429
48.8428
48.8423
48.8402
48.835
48.8292
48.8261
48.8259
48.8272
48.8288
48.83
48.8307
48.8311
48.8312
48.8313
48.8315
48.8317
48.832
48.832
48.832
48.841
48.841
48.8413
48.8414
48.8413
48.8401
48.8368
48.832
48.8283
48.8272
48.828
48.8293
48.8301
48.8306
48.831
48.8313
48.8316
48.8319
48.8322
48.8326
48.8326
48.8326
48.8396
48.8396
48.8399
48.84
48.84
48.8393
48.8376
48.8352
48.8331
48.8312
48.8302
48.83
48.8301
48.8305
48.8311
48.8316
48.832
48.8323
48.8327
48.8331
48.8332
48.8332
48.8384
48.8384
48.8387
48.8389
48.839
48.8389
48.8384
48.8376
48.8356
48.8329
48.8308
48.8299
48.8301
48.8309
48.8316
48.8322
48.8326
48.8329
48.8333
48.8336
48.8337
48.8337
48.8375
48.8375
48.8378
48.838
48.8381
48.8382
48.838
48.8373
48.8357
48.8334
48.8314
48.831
48.8315
48.8321
48.8326
48.833
48.8333
48.8335
48.8338
48.8341
48.8343
48.8343
48.8368
48.8368
48.8371
48.8373
48.8374
48.8375
48.8373
48.8369
48.836
48.8349
48.8342
48.834
48.8338
48.8337
48.8338
48.8339
48.834
48.8342
48.8344
48.8346
48.8348
48.8348
48.8363
48.8363
48.8366
48.8367
48.8369
48.8369
48.8369
48.8367
48.8365
48.8363
48.8361
48.8357
48.8352
48.8349
48.8348
48.8348
48.8347
48.8348
48.835
48.8352
48.8354
48.8354
48.8359
48.8359
48.8362
48.8363
48.8365
48.8365
48.8366
48.8366
48.8366
48.8366
48.8365
48.8363
48.8359
48.8356
48.8355
48.8355
48.8354
48.8354
48.8356
48.8358
48.8359
48.8359
48.8356
48.8356
48.8359
48.836
48.8362
48.8363
48.8363
48.8364
48.8365
48.8365
48.8365
48.8364
48.8363
48.8361
48.8361
48.8361
48.8361
48.8361
48.8362
48.8364
48.8365
48.8365
48.8355
48.8355
48.8357
48.8358
48.8359
48.836
48.8361
48.8362
48.8363
48.8364
48.8365
48.8366
48.8366
48.8366
48.8366
48.8366
48.8367
48.8367
48.8368
48.837
48.8371
48.8371
48.8355
48.8355
48.8356
48.8357
48.8357
48.8358
48.836
48.8361
48.8362
48.8364
48.8366
48.8367
48.8369
48.837
48.8371
48.8372
48.8372
48.8373
48.8375
48.8376
48.8378
48.8378
0
48.8355
48.8356
48.8357
48.8357
48.8358
48.836
48.8361
48.8362
48.8364
48.8366
48.8367
48.8369
48.837
48.8371
48.8372
48.8372
48.8373
48.8375
48.8376
48.8378
0
0
48.8622
48.8585
48.859
48.8535
48.7838
48.7815
48.8102
48.8266
48.8325
48.834
48.8336
48.8328
48.8321
48.8316
48.8313
48.8308
48.8302
48.8294
48.8282
48.8278
0
48.8622
48.8622
48.8585
48.859
48.8535
48.7838
48.7815
48.8102
48.8266
48.8325
48.834
48.8336
48.8328
48.8321
48.8316
48.8313
48.8308
48.8302
48.8294
48.8282
48.8278
48.8278
48.8551
48.8551
48.8547
48.8554
48.854
48.834
48.7928
48.8046
48.8207
48.8291
48.8322
48.8327
48.8323
48.8319
48.8317
48.8315
48.8311
48.8305
48.8299
48.8292
48.829
48.829
48.8503
48.8503
48.8506
48.851
48.8506
48.8434
48.8111
48.8053
48.8157
48.825
48.8299
48.8316
48.832
48.832
48.8319
48.8317
48.8313
48.8309
48.8306
48.8303
48.8303
48.8303
48.847
48.847
48.8474
48.8478
48.8477
48.842
48.8222
48.8107
48.8147
48.8216
48.8264
48.8293
48.8308
48.8315
48.8317
48.8316
48.8315
48.8313
48.8313
48.8313
48.8313
48.8313
48.8445
48.8445
48.845
48.846
48.8477
48.8476
48.8388
48.8256
48.8191
48.8187
48.8228
48.8272
48.8297
48.8308
48.8312
48.8314
48.8316
48.8317
48.8319
48.832
48.8321
48.8321
48.8425
48.8425
48.843
48.8439
48.8454
48.8455
48.8402
48.829
48.8206
48.8196
48.8239
48.8284
48.8302
48.8303
48.8307
48.8313
48.8317
48.8321
48.8324
48.8327
48.8328
48.8328
48.8408
48.8408
48.8413
48.8419
48.8425
48.8419
48.8395
48.8361
48.834
48.8303
48.8294
48.8297
48.8291
48.8293
48.8304
48.8314
48.8321
48.8325
48.8329
48.8332
48.8334
48.8334
48.8395
48.8395
48.8398
48.8402
48.8407
48.8411
48.8417
48.8428
48.8389
48.8328
48.8282
48.8256
48.827
48.8293
48.8309
48.832
48.8327
48.8331
48.8335
48.8338
48.834
48.834
48.8384
48.8384
48.8387
48.839
48.8394
48.8398
48.8402
48.8395
48.8366
48.8316
48.8264
48.8272
48.8299
48.8314
48.8323
48.833
48.8334
48.8338
48.8341
48.8344
48.8345
48.8345
48.8375
48.8375
48.8378
48.8381
48.8384
48.8386
48.8387
48.8382
48.837
48.835
48.8347
48.8351
48.8342
48.8338
48.8338
48.834
48.8342
48.8344
48.8347
48.8349
48.8351
48.8351
48.8369
48.8369
48.8372
48.8374
48.8376
48.8377
48.8378
48.8378
48.8377
48.8381
48.8386
48.8375
48.8361
48.8353
48.835
48.8349
48.835
48.8351
48.8353
48.8355
48.8356
48.8356
48.8364
48.8364
48.8367
48.8369
48.837
48.8371
48.8372
48.8373
48.8375
48.8379
48.8379
48.8374
48.8367
48.8361
48.8358
48.8357
48.8356
48.8357
48.8359
48.8361
48.8362
48.8362
48.8361
48.8361
48.8363
48.8365
48.8366
48.8367
48.8368
48.837
48.8371
48.8373
48.8374
48.8372
48.8368
48.8365
48.8363
48.8363
48.8363
48.8363
48.8365
48.8367
48.8368
48.8368
48.8359
48.8359
48.8361
48.8362
48.8363
48.8364
48.8365
48.8366
48.8368
48.837
48.8371
48.837
48.8369
48.8368
48.8368
48.8368
48.8368
48.8369
48.837
48.8372
48.8374
48.8374
48.8358
48.8358
48.8359
48.836
48.8361
48.8361
48.8363
48.8364
48.8366
48.8367
48.8369
48.837
48.8371
48.8371
48.8372
48.8373
48.8373
48.8374
48.8376
48.8378
48.8379
48.8379
0
48.8358
48.8359
48.836
48.8361
48.8361
48.8363
48.8364
48.8366
48.8367
48.8369
48.837
48.8371
48.8371
48.8372
48.8373
48.8373
48.8374
48.8376
48.8378
48.8379
0
0
48.8645
48.8629
48.8724
48.9027
48.8133
48.7329
48.8052
48.8318
48.8372
48.8371
48.8357
48.8342
48.8332
48.8325
48.8319
48.8312
48.8304
48.8295
48.8283
48.8279
0
48.8645
48.8645
48.8629
48.8724
48.9027
48.8133
48.7329
48.8052
48.8318
48.8372
48.8371
48.8357
48.8342
48.8332
48.8325
48.8319
48.8312
48.8304
48.8295
48.8283
48.8279
48.8279
48.857
48.857
48.8579
48.8633
48.8843
48.8485
48.7649
48.7942
48.8218
48.8332
48.8359
48.8355
48.8344
48.8335
48.833
48.8324
48.8316
48.8308
48.83
48.8292
48.8291
48.8291
48.8518
48.8518
48.8526
48.855
48.8631
48.8611
48.7933
48.7868
48.8072
48.8252
48.8321
48.8338
48.8338
48.8336
48.8333
48.8326
48.8318
48.8312
48.8308
48.8304
48.8304
48.8304
48.8481
48.8481
48.8489
48.8504
48.8528
48.8578
48.8134
48.7904
48.8036
48.8197
48.8263
48.8296
48.8317
48.8328
48.8328
48.8323
48.8318
48.8316
48.8314
48.8314
48.8315
48.8315
48.8455
48.8455
48.8463
48.8485
48.8537
48.869
48.8491
48.8168
48.8142
48.8151
48.8172
48.8248
48.8303
48.8317
48.8316
48.8316
48.8317
48.8319
48.832
48.8322
48.8323
48.8323
48.8434
48.8434
48.8441
48.8459
48.8507
48.8625
48.8528
48.8223
48.8138
48.8105
48.8162
48.828
48.8322
48.8308
48.8302
48.831
48.8318
48.8323
48.8326
48.8329
48.833
48.833
48.8416
48.8416
48.8422
48.8432
48.845
48.8477
48.8418
48.8355
48.8392
48.8268
48.8276
48.8314
48.8299
48.828
48.8292
48.8311
48.8322
48.8327
48.8331
48.8335
48.8336
48.8336
48.8401
48.8401
48.8406
48.8411
48.8421
48.8435
48.8459
48.8543
48.8524
48.8338
48.8238
48.8219
48.8239
48.8267
48.8299
48.8318
48.8328
48.8333
48.8337
48.834
48.8342
48.8342
48.839
48.839
48.8393
48.8397
48.8403
48.8414
48.8437
48.8485
48.8411
48.8272
48.8197
48.8237
48.8273
48.8302
48.8321
48.833
48.8336
48.834
48.8343
48.8346
48.8348
48.8348
48.838
48.838
48.8384
48.8386
48.839
48.8396
48.8405
48.841
48.8378
48.8339
48.8351
48.8377
48.8356
48.8343
48.8341
48.8342
48.8344
48.8347
48.8349
48.8352
48.8353
48.8353
48.8373
48.8373
48.8376
48.8378
48.8381
48.8384
48.8387
48.8388
48.8388
48.8404
48.8448
48.8426
48.8382
48.8361
48.8353
48.8351
48.8352
48.8353
48.8355
48.8358
48.8359
48.8359
48.8368
48.8368
48.8371
48.8373
48.8374
48.8376
48.8378
48.838
48.8385
48.8402
48.842
48.8401
48.8379
48.8366
48.8361
48.8359
48.8359
48.836
48.8361
48.8363
48.8365
48.8365
48.8365
48.8365
48.8367
48.8368
48.837
48.8371
48.8372
48.8374
48.8378
48.8385
48.8389
48.8383
48.8374
48.8369
48.8366
48.8364
48.8364
48.8365
48.8367
48.8369
48.837
48.837
48.8362
48.8362
48.8364
48.8365
48.8366
48.8367
48.8369
48.837
48.8372
48.8375
48.8377
48.8375
48.8373
48.8371
48.837
48.8369
48.837
48.8371
48.8372
48.8374
48.8376
48.8376
48.8361
48.8361
48.8363
48.8363
48.8364
48.8364
48.8366
48.8367
48.8369
48.837
48.8372
48.8373
48.8373
48.8373
48.8373
48.8374
48.8375
48.8376
48.8377
48.8379
48.8381
48.8381
0
48.8361
48.8363
48.8363
48.8364
48.8364
48.8366
48.8367
48.8369
48.837
48.8372
48.8373
48.8373
48.8373
48.8373
48.8374
48.8375
48.8376
48.8377
48.8379
48.8381
0
0
48.8632
48.8596
48.8605
48.8564
48.7977
48.7835
48.8105
48.8267
48.8326
48.834
48.8338
48.833
48.8324
48.8321
48.8318
48.8314
48.8308
48.8299
48.8286
48.8281
0
48.8632
48.8632
48.8596
48.8605
48.8564
48.7977
48.7835
48.8105
48.8267
48.8326
48.834
48.8338
48.833
48.8324
48.8321
48.8318
48.8314
48.8308
48.8299
48.8286
48.8281
48.8281
48.856
48.856
48.8555
48.8559
48.8533
48.824
48.7946
48.806
48.8219
48.8301
48.833
48.8334
48.8329
48.8324
48.8322
48.8319
48.8316
48.831
48.8303
48.8295
48.8293
48.8293
48.8512
48.8512
48.8513
48.8514
48.8501
48.8394
48.8107
48.8064
48.8162
48.8252
48.8301
48.832
48.8325
48.8325
48.8324
48.8322
48.8318
48.8314
48.831
48.8306
48.8306
48.8306
48.8478
48.8478
48.8482
48.8485
48.8484
48.8435
48.8225
48.8118
48.8153
48.822
48.8271
48.8299
48.8313
48.832
48.8323
48.8322
48.832
48.8318
48.8317
48.8316
48.8316
48.8316
48.8453
48.8453
48.8459
48.8468
48.8485
48.848
48.8367
48.8253
48.82
48.8204
48.824
48.8278
48.8302
48.8314
48.8318
48.832
48.8321
48.8322
48.8323
48.8324
48.8325
48.8325
48.8434
48.8434
48.8439
48.8448
48.8464
48.8476
48.8417
48.8302
48.8222
48.8202
48.824
48.8285
48.8304
48.8309
48.8313
48.8318
48.8323
48.8326
48.8328
48.8331
48.8332
48.8332
48.8417
48.8417
48.8421
48.8428
48.8436
48.844
48.8414
48.8356
48.8312
48.8295
48.8291
48.8296
48.8298
48.83
48.8309
48.8319
48.8326
48.8331
48.8334
48.8337
48.8338
48.8338
48.8403
48.8403
48.8407
48.8411
48.8417
48.8422
48.8424
48.8422
48.8397
48.8336
48.8289
48.8271
48.828
48.8297
48.8314
48.8325
48.8332
48.8336
48.834
48.8343
48.8344
48.8344
48.8392
48.8392
48.8395
48.8398
48.8402
48.8407
48.8413
48.8415
48.8384
48.8329
48.8283
48.8276
48.8298
48.8317
48.8328
48.8335
48.8339
48.8343
48.8346
48.8349
48.835
48.835
48.8383
48.8383
48.8386
48.8388
48.8391
48.8394
48.8397
48.8396
48.838
48.8355
48.8337
48.8342
48.8343
48.8342
48.8343
48.8344
48.8347
48.8349
48.8352
48.8355
48.8356
48.8356
48.8376
48.8376
48.8379
48.8381
48.8383
48.8385
48.8386
48.8386
48.8383
48.8382
48.8386
48.8379
48.8366
48.8358
48.8354
48.8353
48.8354
48.8356
48.8358
48.836
48.8361
48.8361
48.8371
48.8371
48.8374
48.8375
48.8377
48.8378
48.8379
48.838
48.8381
48.8385
48.8389
48.8382
48.8372
48.8365
48.8362
48.836
48.8361
48.8362
48.8363
48.8366
48.8367
48.8367
48.8368
48.8368
48.837
48.8371
48.8372
48.8373
48.8374
48.8375
48.8377
48.838
48.8382
48.8378
48.8373
48.8369
48.8367
48.8366
48.8366
48.8367
48.8369
48.8371
48.8372
48.8372
48.8365
48.8365
48.8367
48.8368
48.8369
48.837
48.8371
48.8372
48.8374
48.8375
48.8376
48.8375
48.8374
48.8372
48.8371
48.8371
48.8371
48.8373
48.8374
48.8376
48.8378
48.8378
48.8365
48.8365
48.8366
48.8366
48.8366
48.8367
48.8368
48.8369
48.8371
48.8372
48.8373
48.8374
48.8374
48.8374
48.8375
48.8375
48.8376
48.8377
48.8379
48.8381
48.8383
48.8383
0
48.8365