# vtk DataFile Version 3.0
FlowField
ASCII
DATASET STRUCTURED_GRID
DIMENSIONS 22 17 12 
POINTS 4488 double
0 0 0
0.1 0 0
0.2 0 0
0.3 0 0
0.4 0 0
0.5 0 0
0.6 0 0
0.7 0 0
0.8 0 0
0.9 0 0
1 0 0
1.1 0 0
1.2 0 0
1.3 0 0
1.4 0 0
1.5 0 0
1.6 0 0
1.7 0 0
1.8 0 0
1.9 0 0
2 0 0
2.1 0 0
0 0.1 0
0.1 0.1 0
0.2 0.1 0
0.3 0.1 0
0.4 0.1 0
0.5 0.1 0
0.6 0.1 0
0.7 0.1 0
0.8 0.1 0
0.9 0.1 0
1 0.1 0
1.1 0.1 0
1.2 0.1 0
1.3 0.1 0
1.4 0.1 0
1.5 0.1 0
1.6 0.1 0
1.7 0.1 0
1.8 0.1 0
1.9 0.1 0
2 0.1 0
2.1 0.1 0
0 0.2 0
0.1 0.2 0
0.2 0.2 0
0.3 0.2 0
0.4 0.2 0
0.5 0.2 0
0.6 0.2 0
0.7 0.2 0
0.8 0.2 0
0.9 0.2 0
1 0.2 0
1.1 0.2 0
1.2 0.2 0
1.3 0.2 0
1.4 0.2 0
1.5 0.2 0
1.6 0.2 0
1.7 0.2 0
1.8 0.2 0
1.9 0.2 0
2 0.2 0
2.1 0.2 0
0 0.3 0
0.1 0.3 0
0.2 0.3 0
0.3 0.3 0
0.4 0.3 0
0.5 0.3 0
0.6 0.3 0
0.7 0.3 0
0.8 0.3 0
0.9 0.3 0
1 0.3 0
1.1 0.3 0
1.2 0.3 0
1.3 0.3 0
1.4 0.3 0
1.5 0.3 0
1.6 0.3 0
1.7 0.3 0
1.8 0.3 0
1.9 0.3 0
2 0.3 0
2.1 0.3 0
0 0.4 0
0.1 0.4 0
0.2 0.4 0
0.3 0.4 0
0.4 0.4 0
0.5 0.4 0
0.6 0.4 0
0.7 0.4 0
0.8 0.4 0
0.9 0.4 0
1 0.4 0
1.1 0.4 0
1.2 0.4 0
1.3 0.4 0
1.4 0.4 0
1.5 0.4 0
1.6 0.4 0
1.7 0.4 0
1.8 0.4 0
1.9 0.4 0
2 0.4 0
2.1 0.4 0
0 0.5 0
0.1 0.5 0
0.2 0.5 0
0.3 0.5 0
0.4 0.5 0
0.5 0.5 0
0.6 0.5 0
0.7 0.5 0
0.8 0.5 0
0.9 0.5 0
1 0.5 0
1.1 0.5 0
1.2 0.5 0
1.3 0.5 0
1.4 0.5 0
1.5 0.5 0
1.6 0.5 0
1.7 0.5 0
1.8 0.5 0
1.9 0.5 0
2 0.5 0
2.1 0.5 0
0 0.6 0
0.1 0.6 0
0.2 0.6 0
0.3 0.6 0
0.4 0.6 0
0.5 0.6 0
0.6 0.6 0
0.7 0.6 0
0.8 0.6 0
0.9 0.6 0
1 0.6 0
1.1 0.6 0
1.2 0.6 0
1.3 0.6 0
1.4 0.6 0
1.5 0.6 0
1.6 0.6 0
1.7 0.6 0
1.8 0.6 0
1.9 0.6 0
2 0.6 0
2.1 0.6 0
0 0.7 0
0.1 0.7 0
0.2 0.7 0
0.3 0.7 0
0.4 0.7 0
0.5 0.7 0
0.6 0.7 0
0.7 0.7 0
0.8 0.7 0
0.9 0.7 0
1 0.7 0
1.1 0.7 0
1.2 0.7 0
1.3 0.7 0
1.4 0.7 0
1.5 0.7 0
1.6 0.7 0
1.7 0.7 0
1.8 0.7 0
1.9 0.7 0
2 0.7 0
2.1 0.7 0
0 0.8 0
0.1 0.8 0
0.2 0.8 0
0.3 0.8 0
0.4 0.8 0
0.5 0.8 0
0.6 0.8 0
0.7 0.8 0
0.8 0.8 0
0.9 0.8 0
1 0.8 0
1.1 0.8 0
1.2 0.8 0
1.3 0.8 0
1.4 0.8 0
1.5 0.8 0
1.6 0.8 0
1.7 0.8 0
1.8 0.8 0
1.9 0.8 0
2 0.8 0
2.1 0.8 0
0 0.9 0
0.1 0.9 0
0.2 0.9 0
0.3 0.9 0
0.4 0.9 0
0.5 0.9 0
0.6 0.9 0
0.7 0.9 0
0.8 0.9 0
0.9 0.9 0
1 0.9 0
1.1 0.9 0
1.2 0.9 0
1.3 0.9 0
1.4 0.9 0
1.5 0.9 0
1.6 0.9 0
1.7 0.9 0
1.8 0.9 0
1.9 0.9 0
2 0.9 0
2.1 0.9 0
0 1 0
0.1 1 0
0.2 1 0
0.3 1 0
0.4 1 0
0.5 1 0
0.6 1 0
0.7 1 0
0.8 1 0
0.9 1 0
1 1 0
1.1 1 0
1.2 1 0
1.3 1 0
1.4 1 0
1.5 1 0
1.6 1 0
1.7 1 0
1.8 1 0
1.9 1 0
2 1 0
2.1 1 0
0 1.1 0
0.1 1.1 0
0.2 1.1 0
0.3 1.1 0
0.4 1.1 0
0.5 1.1 0
0.6 1.1 0
0.7 1.1 0
0.8 1.1 0
0.9 1.1 0
1 1.1 0
1.1 1.1 0
1.2 1.1 0
1.3 1.1 0
1.4 1.1 0
1.5 1.1 0
1.6 1.1 0
1.7 1.1 0
1.8 1.1 0
1.9 1.1 0
2 1.1 0
2.1 1.1 0
0 1.2 0
0.1 1.2 0
0.2 1.2 0
0.3 1.2 0
0.4 1.2 0
0.5 1.2 0
0.6 1.2 0
0.7 1.2 0
0.8 1.2 0
0.9 1.2 0
1 1.2 0
1.1 1.2 0
1.2 1.2 0
1.3 1.2 0
1.4 1.2 0
1.5 1.2 0
1.6 1.2 0
1.7 1.2 0
1.8 1.2 0
1.9 1.2 0
2 1.2 0
2.1 1.2 0
0 1.3 0
0.1 1.3 0
0.2 1.3 0
0.3 1.3 0
0.4 1.3 0
0.5 1.3 0
0.6 1.3 0
0.7 1.3 0
0.8 1.3 0
0.9 1.3 0
1 1.3 0
1.1 1.3 0
1.2 1.3 0
1.3 1.3 0
1.4 1.3 0
1.5 1.3 0
1.6 1.3 0
1.7 1.3 0
1.8 1.3 0
1.9 1.3 0
2 1.3 0
2.1 1.3 0
0 1.4 0
0.1 1.4 0
0.2 1.4 0
0.3 1.4 0
0.4 1.4 0
0.5 1.4 0
0.6 1.4 0
0.7 1.4 0
0.8 1.4 0
0.9 1.4 0
1 1.4 0
1.1 1.4 0
1.2 1.4 0
1.3 1.4 0
1.4 1.4 0
1.5 1.4 0
1.6 1.4 0
1.7 1.4 0
1.8 1.4 0
1.9 1.4 0
2 1.4 0
2.1 1.4 0
0 1.5 0
0.1 1.5 0
0.2 1.5 0
0.3 1.5 0
0.4 1.5 0
0.5 1.5 0
0.6 1.5 0
0.7 1.5 0
0.8 1.5 0
0.9 1.5 0
1 1.5 0
1.1 1.5 0
1.2 1.5 0
1.3 1.5 0
1.4 1.5 0
1.5 1.5 0
1.6 1.5 0
1.7 1.5 0
1.8 1.5 0
1.9 1.5 0
2 1.5 0
2.1 1.5 0
0 1.6 0
0.1 1.6 0
0.2 1.6 0
0.3 1.6 0
0.4 1.6 0
0.5 1.6 0
0.6 1.6 0
0.7 1.6 0
0.8 1.6 0
0.9 1.6 0
1 1.6 0
1.1 1.6 0
1.2 1.6 0
1.3 1.6 0
1.4 1.6 0
1.5 1.6 0
1.6 1.6 0
1.7 1.6 0
1.8 1.6 0
1.9 1.6 0
2 1.6 0
2.1 1.6 0
0 0 0.1
0.1 0 0.1
0.2 0 0.1
0.3 0 0.1
0.4 0 0.1
0.5 0 0.1
0.6 0 0.1
0.7 0 0.1
0.8 0 0.1
0.9 0 0.1
1 0 0.1
1.1 0 0.1
1.2 0 0.1
1.3 0 0.1
1.4 0 0.1
1.5 0 0.1
1.6 0 0.1
1.7 0 0.1
1.8 0 0.1
1.9 0 0.1
2 0 0.1
2.1 0 0.1
0 0.1 0.1
0.1 0.1 0.1
0.2 0.1 0.1
0.3 0.1 0.1
0.4 0.1 0.1
0.5 0.1 0.1
0.6 0.1 0.1
0.7 0.1 0.1
0.8 0.1 0.1
0.9 0.1 0.1
1 0.1 0.1
1.1 0.1 0.1
1.2 0.1 0.1
1.3 0.1 0.1
1.4 0.1 0.1
1.5 0.1 0.1
1.6 0.1 0.1
1.7 0.1 0.1
1.8 0.1 0.1
1.9 0.1 0.1
2 0.1 0.1
2.1 0.1 0.1
0 0.2 0.1
0.1 0.2 0.1
0.2 0.2 0.1
0.3 0.2 0.1
0.4 0.2 0.1
0.5 0.2 0.1
0.6 0.2 0.1
0.7 0.2 0.1
0.8 0.2 0.1
0.9 0.2 0.1
1 0.2 0.1
1.1 0.2 0.1
1.2 0.2 0.1
1.3 0.2 0.1
1.4 0.2 0.1
1.5 0.2 0.1
1.6 0.2 0.1
1.7 0.2 0.1
1.8 0.2 0.1
1.9 0.2 0.1
2 0.2 0.1
2.1 0.2 0.1
0 0.3 0.1
0.1 0.3 0.1
0.2 0.3 0.1
0.3 0.3 0.1
0.4 0.3 0.1
0.5 0.3 0.1
0.6 0.3 0.1
0.7 0.3 0.1
0.8 0.3 0.1
0.9 0.3 0.1
1 0.3 0.1
1.1 0.3 0.1
1.2 0.3 0.1
1.3 0.3 0.1
1.4 0.3 0.1
1.5 0.3 0.1
1.6 0.3 0.1
1.7 0.3 0.1
1.8 0.3 0.1
1.9 0.3 0.1
2 0.3 0.1
2.1 0.3 0.1
0 0.4 0.1
0.1 0.4 0.1
0.2 0.4 0.1
0.3 0.4 0.1
0.4 0.4 0.1
0.5 0.4 0.1
0.6 0.4 0.1
0.7 0.4 0.1
0.8 0.4 0.1
0.9 0.4 0.1
1 0.4 0.1
1.1 0.4 0.1
1.2 0.4 0.1
1.3 0.4 0.1
1.4 0.4 0.1
1.5 0.4 0.1
1.6 0.4 0.1
1.7 0.4 0.1
1.8 0.4 0.1
1.9 0.4 0.1
2 0.4 0.1
2.1 0.4 0.1
0 0.5 0.1
0.1 0.5 0.1
0.2 0.5 0.1
0.3 0.5 0.1
0.4 0.5 0.1
0.5 0.5 0.1
0.6 0.5 0.1
0.7 0.5 0.1
0.8 0.5 0.1
0.9 0.5 0.1
1 0.5 0.1
1.1 0.5 0.1
1.2 0.5 0.1
1.3 0.5 0.1
1.4 0.5 0.1
1.5 0.5 0.1
1.6 0.5 0.1
1.7 0.5 0.1
1.8 0.5 0.1
1.9 0.5 0.1
2 0.5 0.1
2.1 0.5 0.1
0 0.6 0.1
0.1 0.6 0.1
0.2 0.6 0.1
0.3 0.6 0.1
0.4 0.6 0.1
0.5 0.6 0.1
0.6 0.6 0.1
0.7 0.6 0.1
0.8 0.6 0.1
0.9 0.6 0.1
1 0.6 0.1
1.1 0.6 0.1
1.2 0.6 0.1
1.3 0.6 0.1
1.4 0.6 0.1
1.5 0.6 0.1
1.6 0.6 0.1
1.7 0.6 0.1
1.8 0.6 0.1
1.9 0.6 0.1
2 0.6 0.1
2.1 0.6 0.1
0 0.7 0.1
0.1 0.7 0.1
0.2 0.7 0.1
0.3 0.7 0.1
0.4 0.7 0.1
0.5 0.7 0.1
0.6 0.7 0.1
0.7 0.7 0.1
0.8 0.7 0.1
0.9 0.7 0.1
1 0.7 0.1
1.1 0.7 0.1
1.2 0.7 0.1
1.3 0.7 0.1
1.4 0.7 0.1
1.5 0.7 0.1
1.6 0.7 0.1
1.7 0.7 0.1
1.8 0.7 0.1
1.9 0.7 0.1
2 0.7 0.1
2.1 0.7 0.1
0 0.8 0.1
0.1 0.8 0.1
0.2 0.8 0.1
0.3 0.8 0.1
0.4 0.8 0.1
0.5 0.8 0.1
0.6 0.8 0.1
0.7 0.8 0.1
0.8 0.8 0.1
0.9 0.8 0.1
1 0.8 0.1
1.1 0.8 0.1
1.2 0.8 0.1
1.3 0.8 0.1
1.4 0.8 0.1
1.5 0.8 0.1
1.6 0.8 0.1
1.7 0.8 0.1
1.8 0.8 0.1
1.9 0.8 0.1
2 0.8 0.1
2.1 0.8 0.1
0 0.9 0.1
0.1 0.9 0.1
0.2 0.9 0.1
0.3 0.9 0.1
0.4 0.9 0.1
0.5 0.9 0.1
0.6 0.9 0.1
0.7 0.9 0.1
0.8 0.9 0.1
0.9 0.9 0.1
1 0.9 0.1
1.1 0.9 0.1
1.2 0.9 0.1
1.3 0.9 0.1
1.4 0.9 0.1
1.5 0.9 0.1
1.6 0.9 0.1
1.7 0.9 0.1
1.8 0.9 0.1
1.9 0.9 0.1
2 0.9 0.1
2.1 0.9 0.1
0 1 0.1
0.1 1 0.1
0.2 1 0.1
0.3 1 0.1
0.4 1 0.1
0.5 1 0.1
0.6 1 0.1
0.7 1 0.1
0.8 1 0.1
0.9 1 0.1
1 1 0.1
1.1 1 0.1
1.2 1 0.1
1.3 1 0.1
1.4 1 0.1
1.5 1 0.1
1.6 1 0.1
1.7 1 0.1
1.8 1 0.1
1.9 1 0.1
2 1 0.1
2.1 1 0.1
0 1.1 0.1
0.1 1.1 0.1
0.2 1.1 0.1
0.3 1.1 0.1
0.4 1.1 0.1
0.5 1.1 0.1
0.6 1.1 0.1
0.7 1.1 0.1
0.8 1.1 0.1
0.9 1.1 0.1
1 1.1 0.1
1.1 1.1 0.1
1.2 1.1 0.1
1.3 1.1 0.1
1.4 1.1 0.1
1.5 1.1 0.1
1.6 1.1 0.1
1.7 1.1 0.1
1.8 1.1 0.1
1.9 1.1 0.1
2 1.1 0.1
2.1 1.1 0.1
0 1.2 0.1
0.1 1.2 0.1
0.2 1.2 0.1
0.3 1.2 0.1
0.4 1.2 0.1
0.5 1.2 0.1
0.6 1.2 0.1
0.7 1.2 0.1
0.8 1.2 0.1
0.9 1.2 0.1
1 1.2 0.1
1.1 1.2 0.1
1.2 1.2 0.1
1.3 1.2 0.1
1.4 1.2 0.1
1.5 1.2 0.1
1.6 1.2 0.1
1.7 1.2 0.1
1.8 1.2 0.1
1.9 1.2 0.1
2 1.2 0.1
2.1 1.2 0.1
0 1.3 0.1
0.1 1.3 0.1
0.2 1.3 0.1
0.3 1.3 0.1
0.4 1.3 0.1
0.5 1.3 0.1
0.6 1.3 0.1
0.7 1.3 0.1
0.8 1.3 0.1
0.9 1.3 0.1
1 1.3 0.1
1.1 1.3 0.1
1.2 1.3 0.1
1.3 1.3 0.1
1.4 1.3 0.1
1.5 1.3 0.1
1.6 1.3 0.1
1.7 1.3 0.1
1.8 1.3 0.1
1.9 1.3 0.1
2 1.3 0.1
2.1 1.3 0.1
0 1.4 0.1
0.1 1.4 0.1
0.2 1.4 0.1
0.3 1.4 0.1
0.4 1.4 0.1
0.5 1.4 0.1
0.6 1.4 0.1
0.7 1.4 0.1
0.8 1.4 0.1
0.9 1.4 0.1
1 1.4 0.1
1.1 1.4 0.1
1.2 1.4 0.1
1.3 1.4 0.1
1.4 1.4 0.1
1.5 1.4 0.1
1.6 1.4 0.1
1.7 1.4 0.1
1.8 1.4 0.1
1.9 1.4 0.1
2 1.4 0.1
2.1 1.4 0.1
0 1.5 0.1
0.1 1.5 0.1
0.2 1.5 0.1
0.3 1.5 0.1
0.4 1.5 0.1
0.5 1.5 0.1
0.6 1.5 0.1
0.7 1.5 0.1
0.8 1.5 0.1
0.9 1.5 0.1
1 1.5 0.1
1.1 1.5 0.1
1.2 1.5 0.1
1.3 1.5 0.1
1.4 1.5 0.1
1.5 1.5 0.1
1.6 1.5 0.1
1.7 1.5 0.1
1.8 1.5 0.1
1.9 1.5 0.1
2 1.5 0.1
2.1 1.5 0.1
0 1.6 0.1
0.1 1.6 0.1
0.2 1.6 0.1
0.3 1.6 0.1
0.4 1.6 0.1
0.5 1.6 0.1
0.6 1.6 0.1
0.7 1.6 0.1
0.8 1.6 0.1
0.9 1.6 0.1
1 1.6 0.1
1.1 1.6 0.1
1.2 1.6 0.1
1.3 1.6 0.1
1.4 1.6 0.1
1.5 1.6 0.1
1.6 1.6 0.1
1.7 1.6 0.1
1.8 1.6 0.1
1.9 1.6 0.1
2 1.6 0.1
2.1 1.6 0.1
0 0 0.2
0.1 0 0.2
0.2 0 0.2
0.3 0 0.2
0.4 0 0.2
0.5 0 0.2
0.6 0 0.2
0.7 0 0.2
0.8 0 0.2
0.9 0 0.2
1 0 0.2
1.1 0 0.2
1.2 0 0.2
1.3 0 0.2
1.4 0 0.2
1.5 0 0.2
1.6 0 0.2
1.7 0 0.2
1.8 0 0.2
1.9 0 0.2
2 0 0.2
2.1 0 0.2
0 0.1 0.2
0.1 0.1 0.2
0.2 0.1 0.2
0.3 0.1 0.2
0.4 0.1 0.2
0.5 0.1 0.2
0.6 0.1 0.2
0.7 0.1 0.2
0.8 0.1 0.2
0.9 0.1 0.2
1 0.1 0.2
1.1 0.1 0.2
1.2 0.1 0.2
1.3 0.1 0.2
1.4 0.1 0.2
1.5 0.1 0.2
1.6 0.1 0.2
1.7 0.1 0.2
1.8 0.1 0.2
1.9 0.1 0.2
2 0.1 0.2
2.1 0.1 0.2
0 0.2 0.2
0.1 0.2 0.2
0.2 0.2 0.2
0.3 0.2 0.2
0.4 0.2 0.2
0.5 0.2 0.2
0.6 0.2 0.2
0.7 0.2 0.2
0.8 0.2 0.2
0.9 0.2 0.2
1 0.2 0.2
1.1 0.2 0.2
1.2 0.2 0.2
1.3 0.2 0.2
1.4 0.2 0.2
1.5 0.2 0.2
1.6 0.2 0.2
1.7 0.2 0.2
1.8 0.2 0.2
1.9 0.2 0.2
2 0.2 0.2
2.1 0.2 0.2
0 0.3 0.2
0.1 0.3 0.2
0.2 0.3 0.2
0.3 0.3 0.2
0.4 0.3 0.2
0.5 0.3 0.2
0.6 0.3 0.2
0.7 0.3 0.2
0.8 0.3 0.2
0.9 0.3 0.2
1 0.3 0.2
1.1 0.3 0.2
1.2 0.3 0.2
1.3 0.3 0.2
1.4 0.3 0.2
1.5 0.3 0.2
1.6 0.3 0.2
1.7 0.3 0.2
1.8 0.3 0.2
1.9 0.3 0.2
2 0.3 0.2
2.1 0.3 0.2
0 0.4 0.2
0.1 0.4 0.2
0.2 0.4 0.2
0.3 0.4 0.2
0.4 0.4 0.2
0.5 0.4 0.2
0.6 0.4 0.2
0.7 0.4 0.2
0.8 0.4 0.2
0.9 0.4 0.2
1 0.4 0.2
1.1 0.4 0.2
1.2 0.4 0.2
1.3 0.4 0.2
1.4 0.4 0.2
1.5 0.4 0.2
1.6 0.4 0.2
1.7 0.4 0.2
1.8 0.4 0.2
1.9 0.4 0.2
2 0.4 0.2
2.1 0.4 0.2
0 0.5 0.2
0.1 0.5 0.2
0.2 0.5 0.2
0.3 0.5 0.2
0.4 0.5 0.2
0.5 0.5 0.2
0.6 0.5 0.2
0.7 0.5 0.2
0.8 0.5 0.2
0.9 0.5 0.2
1 0.5 0.2
1.1 0.5 0.2
1.2 0.5 0.2
1.3 0.5 0.2
1.4 0.5 0.2
1.5 0.5 0.2
1.6 0.5 0.2
1.7 0.5 0.2
1.8 0.5 0.2
1.9 0.5 0.2
2 0.5 0.2
2.1 0.5 0.2
0 0.6 0.2
0.1 0.6 0.2
0.2 0.6 0.2
0.3 0.6 0.2
0.4 0.6 0.2
0.5 0.6 0.2
0.6 0.6 0.2
0.7 0.6 0.2
0.8 0.6 0.2
0.9 0.6 0.2
1 0.6 0.2
1.1 0.6 0.2
1.2 0.6 0.2
1.3 0.6 0.2
1.4 0.6 0.2
1.5 0.6 0.2
1.6 0.6 0.2
1.7 0.6 0.2
1.8 0.6 0.2
1.9 0.6 0.2
2 0.6 0.2
2.1 0.6 0.2
0 0.7 0.2
0.1 0.7 0.2
0.2 0.7 0.2
0.3 0.7 0.2
0.4 0.7 0.2
0.5 0.7 0.2
0.6 0.7 0.2
0.7 0.7 0.2
0.8 0.7 0.2
0.9 0.7 0.2
1 0.7 0.2
1.1 0.7 0.2
1.2 0.7 0.2
1.3 0.7 0.2
1.4 0.7 0.2
1.5 0.7 0.2
1.6 0.7 0.2
1.7 0.7 0.2
1.8 0.7 0.2
1.9 0.7 0.2
2 0.7 0.2
2.1 0.7 0.2
0 0.8 0.2
0.1 0.8 0.2
[...]
POINT_DATA 4488

SCALARS pressure double
LOOKUP_TABLE pressure
0
0
0
0
0
0
0
0
0
0
0
0
0
0
0
0
0
0
0
0
0
0
0
47.0729
47.0676
47.0644
47.0623
47.0604
47.0571
47.0556
47.0545
47.0565
47.057
47.055
47.0531
47.0528
47.0517
47.0507
47.0508
47.0502
47.0497
47.0484
47.0471
0
0
47.067
47.0656
47.0637
47.0619
47.0597
47.0574
47.055
47.0538
47.0547
47.055
47.0539
47.0529
47.0524
47.0518
47.0513
47.0506
47.0503
47.0501
47.0493
47.0483
0
0
47.0638
47.0635
47.0628
47.0615
47.0584
47.0564
47.0542
47.0536
47.0538
47.0538
47.0532
47.0529
47.0525
47.052
47.0516
47.0512
47.0509
47.0506
47.0504
47.0497
0
0
47.0618
47.0618
47.0614
47.0603
47.0589
47.0553
47.0529
47.0531
47.0532
47.053
47.052
47.0535
47.0527
47.0522
47.0517
47.0513
47.0512
47.0513
47.0513
47.0507
0
0
47.0603
47.0607
47.0605
47.0592
47.0586
47.0548
47.0539
47.0536
47.0534
47.0531
47.0525
47.0526
47.0527
47.0525
47.0518
47.0512
47.0514
47.0518
47.052
47.0515
0
0
47.059
47.0593
47.0591
47.0583
47.0572
47.0556
47.0546
47.0541
47.054
47.0532
47.0525
47.052
47.0525
47.0525
47.0517
47.0507
47.0511
47.052
47.052
47.0518
0
0
47.058
47.0582
47.0581
47.0574
47.0558
47.0557
47.0551
47.0545
47.0539
47.0536
47.0531
47.0528
47.0526
47.0523
47.052
47.0515
47.0511
47.0517
47.0512
47.0505
0
0
47.0571
47.0574
47.0575
47.0572
47.0575
47.0562
47.0554
47.0548
47.0542
47.0538
47.0533
47.0529
47.0526
47.0525
47.0524
47.052
47.0512
47.0517
47.0525
47.0509
0
0
47.0562
47.0568
47.0569
47.0567
47.0564
47.0558
47.0553
47.0548
47.0543
47.0539
47.0535
47.0531
47.0528
47.0527
47.0526
47.0523
47.0519
47.0516
47.0516
47.0513
0
0
47.0546
47.0567
47.0565
47.0564
47.0559
47.0554
47.0552
47.0548
47.0544
47.0541
47.0538
47.0534
47.0532
47.053
47.0529
47.0525
47.0521
47.0519
47.0518
47.0517
0
0
47.0552
47.0559
47.056
47.056
47.0557
47.0554
47.0551
47.0549
47.0546
47.0544
47.0541
47.0538
47.0536
47.0535
47.0534
47.0524
47.0522
47.0521
47.0522
47.0522
0
0
47.055
47.0555
47.0557
47.0557
47.0556
47.0553
47.0551
47.0549
47.0547
47.0546
47.0543
47.0541
47.0538
47.0541
47.0553
47.0514
47.0522
47.0524
47.0526
47.0526
0
0
47.0548
47.0552
47.0553
47.0554
47.0553
47.0552
47.055
47.0548
47.0547
47.0547
47.0545
47.0541
47.0536
47.0542
47.0542
47.0532
47.0528
47.0527
47.053
47.0533
0
0
47.0547
47.055
47.0551
47.0551
47.055
47.0549
47.0547
47.0546
47.0546
47.0548
47.0547
47.0544
47.054
47.0541
47.054
47.0536
47.0534
47.0532
47.0535
47.0537
0
0
47.0547
47.0548
47.0548
47.0548
47.0547
47.0547
47.0544
47.0542
47.0544
47.0549
47.055
47.0546
47.0541
47.054
47.054
47.0538
47.0537
47.0538
47.0539
47.054
0
0
0
0
0
0
0
0
0
0
0
0
0
0
0
0
0
0
0
0
0
0
0
0
47.0729
47.0676
47.0644
47.0623
47.0604
47.0571
47.0556
47.0545
47.0565
47.057
47.055
47.0531
47.0528
47.0517
47.0507
47.0508
47.0502
47.0497
47.0484
47.0471
0
47.0729
47.0729
47.0676
47.0644
47.0623
47.0604
47.0571
47.0556
47.0545
47.0565
47.057
47.055
47.0531
47.0528
47.0517
47.0507
47.0508
47.0502
47.0497
47.0484
47.0471
47.0471
47.067
47.067
47.0656
47.0637
47.0619
47.0597
47.0574
47.055
47.0538
47.0547
47.055
47.0539
47.0529
47.0524
47.0518
47.0513
47.0506
47.0503
47.0501
47.0493
47.0483
47.0483
47.0638
47.0638
47.0635
47.0628
47.0615
47.0584
47.0564
47.0542
47.0536
47.0538
47.0538
47.0532
47.0529
47.0525
47.052
47.0516
47.0512
47.0509
47.0506
47.0504
47.0497
47.0497
47.0618
47.0618
47.0618
47.0614
47.0603
47.0589
47.0553
47.0529
47.0531
47.0532
47.053
47.052
47.0535
47.0527
47.0522
47.0517
47.0513
47.0512
47.0513
47.0513
47.0507
47.0507
47.0603
47.0603
47.0607
47.0605
47.0592
47.0586
47.0548
47.0539
47.0536
47.0534
47.0531
47.0525
47.0526
47.0527
47.0525
47.0518
47.0512
47.0514
47.0518
47.052
47.0515
47.0515
47.059
47.059
47.0593
47.0591
47.0583
47.0572
47.0556
47.0546
47.0541
47.054
47.0532
47.0525
47.052
47.0525
47.0525
47.0517
47.0507
47.0511
47.052
47.052
47.0518
47.0518
47.058
47.058
47.0582
47.0581
47.0574
47.0558
47.0557
47.0551
47.0545
47.0539
47.0536
47.0531
47.0528
47.0526
47.0523
47.052
47.0515
47.0511
47.0517
47.0512
47.0505
47.0505
47.0571
47.0571
47.0574
47.0575
47.0572
47.0575
47.0562
47.0554
47.0548
47.0542
47.0538
47.0533
47.0529
47.0526
47.0525
47.0524
47.052
47.0512
47.0517
47.0525
47.0509
47.0509
47.0562
47.0562
47.0568
47.0569
47.0567
47.0564
47.0558
47.0553
47.0548
47.0543
47.0539
47.0535
47.0531
47.0528
47.0527
47.0526
47.0523
47.0519
47.0516
47.0516
47.0513
47.0513
47.0546
47.0546
47.0567
47.0565
47.0564
47.0559
47.0554
47.0552
47.0548
47.0544
47.0541
47.0538
47.0534
47.0532
47.053
47.0529
47.0525
47.0521
47.0519
47.0518
47.0517
47.0517
47.0552
47.0552
47.0559
47.056
47.056
47.0557
47.0554
47.0551
47.0549
47.0546
47.0544
47.0541
47.0538
47.0536
47.0535
47.0534
47.0524
47.0522
47.0521
47.0522
47.0522
47.0522
47.055
47.055
47.0555
47.0557
47.0557
47.0556
47.0553
47.0551
47.0549
47.0547
47.0546
47.0543
47.0541
47.0538
47.0541
47.0553
47.0514
47.0522
47.0524
47.0526
47.0526
47.0526
47.0548
47.0548
47.0552
47.0553
47.0554
47.0553
47.0552
47.055
47.0548
47.0547
47.0547
47.0545
47.0541
47.0536
47.0542
47.0542
47.0532
47.0528
47.0527
47.053
47.0533
47.0533
47.0547
47.0547
47.055
47.0551
47.0551
47.055
47.0549
47.0547
47.0546
47.0546
47.0548
47.0547
47.0544
47.054
47.0541
47.054
47.0536
47.0534
47.0532
47.0535
47.0537
47.0537
47.0547
47.0547
47.0548
47.0548
47.0548
47.0547
47.0547
47.0544
47.0542
47.0544
47.0549
47.055
47.0546
47.0541
47.054
47.054
47.0538
47.0537
47.0538
47.0539
47.054
47.054
0
47.0547
47.0548
47.0548
47.0548
47.0547
47.0547
47.0544
47.0542
47.0544
47.0549
47.055
47.0546
47.0541
47.054
47.054
47.0538
47.0537
47.0538
47.0539
47.054
0
0
47.0765
47.071
47.0672
47.0626
47.0548
47.0502
47.0501
47.0518
47.0538
47.0545
47.054
47.0532
47.0526
47.052
47.0514
47.0509
47.0502
47.0493
47.0479
47.0467
0
47.0765
47.0765
47.071
47.0672
47.0626
47.0548
47.0502
47.0501
47.0518
47.0538
47.0545
47.054
47.0532
47.0526
47.052
47.0514
47.0509
47.0502
47.0493
47.0479
47.0467
47.0467
47.0703
47.0703
47.0687
47.0663
47.0628
47.0568
47.0514
47.0499
47.0509
47.0525
47.0533
47.0532
47.0528
47.0524
47.052
47.0515
47.051
47.0504
47.0497
47.0488
47.0479
47.0479
47.0667
47.0667
47.0662
47.0648
47.0623
47.0579
47.0528
47.0503
47.0504
47.0515
47.0524
47.0526
47.0526
47.0524
47.0521
47.0517
47.0512
47.0508
47.0504
47.0499
47.0493
47.0493
47.0642
47.0642
47.0641
47.0633
47.0617
47.0587
47.0543
47.0512
47.0505
47.0509
47.0515
47.0519
47.0523
47.0523
47.0521
47.0517
47.0514
47.0511
47.0509
47.0508
47.0502
47.0502
47.0624
47.0624
47.0625
47.0621
47.061
47.0591
47.0557
47.0528
47.0513
47.051
47.0513
47.0516
47.0519
47.0521
47.052
47.0517
47.0514
47.0513
47.0513
47.0514
47.0509
47.0509
47.0608
47.0608
47.061
47.0608
47.0601
47.0587
47.0565
47.0542
47.0526
47.0519
47.0517
47.0516
47.0517
47.0518
47.0518
47.0516
47.0513
47.0514
47.0515
47.0516
47.0512
47.0512
47.0595
47.0595
47.0597
47.0596
47.0592
47.0582
47.0571
47.0558
47.0543
47.053
47.0523
47.0519
47.0518
47.0518
47.0518
47.0518
47.0516
47.0515
47.0516
47.0515
47.0511
47.0511
47.0584
47.0584
47.0586
47.0587
47.0585
47.0582
47.0574
47.0563
47.055
47.0536
47.0526
47.0521
47.052
47.052
47.0521
47.0521
47.0519
47.0517
47.0518
47.0519
47.0516
47.0516
47.0574
47.0574
47.0578
47.0579
47.0578
47.0575
47.057
47.0562
47.0552
47.0541
47.0533
47.0529
47.0527
47.0526
47.0525
47.0524
47.0523
47.0521
47.052
47.052
47.0519
47.0519
47.0565
47.0565
47.0571
47.0572
47.0571
47.0569
47.0565
47.056
47.0554
47.0548
47.0543
47.0539
47.0535
47.0532
47.053
47.0528
47.0525
47.0523
47.0522
47.0522
47.0521
47.0521
47.0561
47.0561
47.0565
47.0566
47.0566
47.0564
47.0562
47.0559
47.0556
47.0553
47.0549
47.0545
47.054
47.0537
47.0535
47.0533
47.0528
47.0526
47.0525
47.0525
47.0525
47.0525
47.0557
47.0557
47.056
47.0561
47.0561
47.056
47.0559
47.0557
47.0555
47.0553
47.0551
47.0547
47.0543
47.054
47.0539
47.0538
47.0529
47.0528
47.0528
47.0529
47.0528
47.0528
47.0554
47.0554
47.0556
47.0557
47.0557
47.0557
47.0556
47.0554
47.0553
47.0552
47.055
47.0548
47.0545
47.0541
47.0541
47.0539
47.0534
47.0532
47.0532
47.0533
47.0533
47.0533
47.0551
47.0551
47.0553
47.0554
47.0554
47.0553
47.0552
47.0551
47.055
47.055
47.055
47.0548
47.0546
47.0543
47.0542
47.054
47.0537
47.0536
47.0535
47.0536
47.0537
47.0537
47.055
47.055
47.0551
47.0551
47.055
47.055
47.0549
47.0548
47.0547
47.0548
47.0549
47.0549
47.0547
47.0544
47.0542
47.0541
47.0539
47.0538
47.0539
47.054
47.054
47.054
0
47.055
47.0551
47.0551
47.055
47.055
47.0549
47.0548
47.0547
47.0548
47.0549
47.0549
47.0547
47.0544
47.0542
47.0541
47.0539
47.0538
47.0539
47.054
47.054
0
0
47.0802
47.0751
47.0719
47.0648
47.0435
47.0364
47.0422
47.0487
47.0527
47.0541
47.0541
47.0535
47.0529
47.0523
47.0517
47.051
47.0502
47.0491
47.0476
47.0465
0
47.0802
47.0802
47.0751
47.0719
47.0648
47.0435
47.0364
47.0422
47.0487
47.0527
47.0541
47.0541
47.0535
47.0529
47.0523
47.0517
47.051
47.0502
47.0491
47.0476
47.0465
47.0465
47.0736
47.0736
47.0723
47.0704
47.0657
47.0535
47.0406
47.0412
47.0463
47.0505
47.0525
47.053
47.0529
47.0527
47.0523
47.0518
47.0512
47.0504
47.0495
47.0485
47.0477
47.0477
47.0695
47.0695
47.0691
47.068
47.065
47.0577
47.046
47.0425
47.0452
47.0487
47.0511
47.0521
47.0525
47.0524
47.0522
47.0518
47.0513
47.0507
47.0502
47.0496
47.049
47.049
47.0666
47.0666
47.0665
47.066
47.0644
47.0598
47.0514
47.046
47.0456
47.0475
47.0496
47.051
47.0518
47.052
47.052
47.0517
47.0513
47.051
47.0507
47.0504
47.0499
47.0499
47.0643
47.0643
47.0645
47.0645
47.064
47.0619
47.0563
47.0501
47.047
47.047
47.0487
47.0502
47.0511
47.0515
47.0516
47.0515
47.0513
47.0512
47.0511
47.051
47.0506
47.0506
47.0624
47.0624
47.0627
47.0628
47.0626
47.0611
47.0575
47.0528
47.0496
47.0489
47.0496
47.0504
47.0508
47.0511
47.0513
47.0514
47.0514
47.0514
47.0514
47.0514
47.051
47.051
47.0609
47.0609
47.0611
47.0612
47.0611
47.0604
47.059
47.057
47.0545
47.0521
47.0509
47.0504
47.0504
47.0508
47.0512
47.0515
47.0515
47.0516
47.0516
47.0516
47.0513
47.0513
47.0595
47.0595
47.0598
47.0599
47.06
47.0598
47.0593
47.0582
47.0556
47.0527
47.0506
47.05
47.0505
47.0511
47.0515
47.0518
47.0518
47.0518
47.0519
47.0519
47.0518
47.0518
47.0584
47.0584
47.0587
47.0588
47.0589
47.0588
47.0584
47.0574
47.0555
47.0532
47.0517
47.0517
47.0519
47.0521
47.0522
47.0523
47.0522
47.0522
47.0522
47.0522
47.0521
47.0521
47.0575
47.0575
47.0578
47.0579
47.058
47.0579
47.0576
47.057
47.0561
47.0552
47.0547
47.0541
47.0535
47.0531
47.0529
47.0528
47.0526
47.0525
47.0525
47.0525
47.0524
47.0524
47.0568
47.0568
47.057
47.0572
47.0572
47.0571
47.057
47.0567
47.0565
47.0563
47.0559
47.0552
47.0544
47.0539
47.0535
47.0533
47.053
47.0528
47.0528
47.0528
47.0527
47.0527
47.0562
47.0562
47.0565
47.0566
47.0566
47.0566
47.0565
47.0564
47.0563
47.0561
47.0558
47.0553
47.0547
47.0542
47.0539
47.0537
47.0533
47.0531
47.0531
47.0531
47.053
47.053
47.0558
47.0558
47.056
47.0561
47.0561
47.0561
47.056
47.0559
47.0559
47.0558
47.0555
47.0552
47.0548
47.0544
47.0541
47.0539
47.0536
47.0535
47.0534
47.0534
47.0534
47.0534
47.0555
47.0555
47.0556
47.0557
47.0557
47.0556
47.0556
47.0555
47.0554
47.0554
47.0553
47.0551
47.0548
47.0545
47.0543
47.0541
47.0539
47.0538
47.0537
47.0538
47.0537
47.0537
47.0553
47.0553
47.0554
47.0553
47.0553
47.0552
47.0552
47.0551
47.0551
47.0551
47.0551
47.055
47.0548
47.0546
47.0544
47.0542
47.0541
47.054
47.054
47.054
47.054
47.054
0
47.0553
47.0554
47.0553
47.0553
47.0552
47.0552
47.0551
47.0551
47.0551
47.0551
47.055
47.0548
47.0546
47.0544
47.0542
47.0541
47.054
47.054
47.054
47.054
0
0
47.0839
47.0803
47.0809
47.0758
47.0064
47.0038
47.0321
47.0483
47.0542
47.0556
47.0551
47.0542
47.0533
47.0526
47.0519
47.0511
47.0501
47.0489
47.0474
47.0464
0
47.0839
47.0839
47.0803
47.0809
47.0758
47.0064
47.0038
47.0321
47.0483
47.0542
47.0556
47.0551
47.0542
47.0533
47.0526
47.0519
47.0511
47.0501
47.0489
47.0474
47.0464
47.0464
47.0767
47.0767
47.0764
47.077
47.0754
47.0559
47.0143
47.0258
47.042
47.0506
47.0537
47.054
47.0536
47.0531
47.0526
47.052
47.0512
47.0504
47.0494
47.0483
47.0476
47.0476
47.0719
47.0719
47.0721
47.0723
47.0713
47.0622
47.0301
47.0258
47.037
47.0465
47.0512
47.0527
47.0531
47.053
47.0526
47.052
47.0513
47.0506
47.05
47.0494
47.0488
47.0488
47.0685
47.0685
47.0689
47.0694
47.0697
47.0644
47.0453
47.0341
47.0371
47.0427
47.0474
47.0503
47.0517
47.0522
47.0521
47.0517
47.0513
47.0509
47.0505
47.0502
47.0498
47.0498
47.0659
47.0659
47.0665
47.0675
47.0696
47.0701
47.06
47.0455
47.0379
47.0387
47.0442
47.0485
47.0506
47.0512
47.0514
47.0513
47.0512
47.0511
47.0509
47.0508
47.0504
47.0504
47.0638
47.0638
47.0643
47.0651
47.0662
47.065
47.0586
47.0482
47.0422
47.0425
47.0469
47.0499
47.0502
47.0502
47.0507
47.0511
47.0512
47.0513
47.0513
47.0512
47.0509
47.0509
47.0619
47.0619
47.0624
47.0629
47.0634
47.0631
47.0619
47.0608
47.0567
47.0516
47.0498
47.0487
47.0482
47.0492
47.0504
47.0511
47.0514
47.0515
47.0516
47.0516
47.0514
47.0514
47.0604
47.0604
47.0608
47.0611
47.0616
47.0622
47.063
47.0625
47.0569
47.0507
47.0453
47.0451
47.0476
47.0496
47.0508
47.0515
47.0518
47.0519
47.0519
47.052
47.0518
47.0518
47.0591
47.0591
47.0594
47.0597
47.06
47.0604
47.0603
47.0588
47.0555
47.0499
47.0473
47.0495
47.0508
47.0514
47.0519
47.0521
47.0522
47.0522
47.0523
47.0523
47.0521
47.0521
47.0581
47.0581
47.0584
47.0586
47.0588
47.0589
47.0587
47.0582
47.057
47.0561
47.0567
47.0552
47.0538
47.0532
47.0529
47.0528
47.0527
47.0526
47.0526
47.0526
47.0525
47.0525
47.0573
47.0573
47.0575
47.0577
47.0578
47.0578
47.0578
47.0577
47.0578
47.0583
47.0579
47.0564
47.055
47.0541
47.0536
47.0533
47.0531
47.053
47.0529
47.0529
47.0528
47.0528
47.0566
47.0566
47.0569
47.057
47.057
47.057
47.057
47.0571
47.0572
47.0573
47.0569
47.0561
47.0552
47.0545
47.054
47.0537
47.0535
47.0533
47.0533
47.0533
47.0531
47.0531
47.0561
47.0561
47.0563
47.0564
47.0564
47.0564
47.0564
47.0564
47.0564
47.0564
47.0562
47.0557
47.0551
47.0546
47.0543
47.054
47.0538
47.0536
47.0536
47.0536
47.0535
47.0535
47.0558
47.0558
47.0559
47.056
47.0559
47.0559
47.0559
47.0559
47.0558
47.0558
47.0557
47.0554
47.055
47.0547
47.0544
47.0542
47.054
47.0539
47.0538
47.0539
47.0538
47.0538
47.0556
47.0556
47.0556
47.0556
47.0555
47.0555
47.0554
47.0554
47.0553
47.0553
47.0553
47.0551
47.0549
47.0547
47.0545
47.0543
47.0542
47.0541
47.0541
47.0541
47.0541
47.0541
0
47.0556
47.0556
47.0556
47.0555
47.0555
47.0554
47.0554
47.0553
47.0553
47.0553
47.0551
47.0549
47.0547
47.0545
47.0543
47.0542
47.0541
47.0541
47.0541
47.0541
0
0
47.086
47.0845
47.0942
47.1253
47.0371
46.9556
47.0271
47.0531
47.0584
47.0582
47.0567
47.0551
47.054
47.0531
47.0521
47.051
47.0499
47.0486
47.0471
47.0462
0
47.086
47.086
47.0845
47.0942
47.1253
47.0371
46.9556
47.0271
47.0531
47.0584
47.0582
47.0567
47.0551
47.054
47.0531
47.0521
47.051
47.0499
47.0486
47.0471
47.0462
47.0462
47.0784
47.0784
47.0793
47.0845
47.1053
47.0703
46.9876
47.0143
47.0424
47.0543
47.0569
47.0563
47.0552
47.0543
47.0535
47.0524
47.0513
47.0502
47.0491
47.048
47.0474
47.0474
47.0732
47.0732
47.0739
47.0759
47.082
47.0754
47.0095
47.0031
47.0284
47.0465
47.0529
47.0544
47.0545
47.0542
47.0535
47.0524
47.0513
47.0505
47.0498
47.0491
47.0487
47.0487
47.0695
47.0695
47.0702
47.0719
47.0748
47.0816
47.0372
47.0151
47.0295
47.0406
47.0459
47.0501
47.0525
47.0532
47.0526
47.0518
47.0512
47.0508
47.0504
47.05
47.0496
47.0496
47.0667
47.0667
47.0676
47.07
47.0767
47.0961
47.0687
47.038
47.0328
47.0306
47.0371
47.0472
47.0512
47.0515
47.0512
47.0511
47.0511
47.051
47.0508
47.0507
47.0503
47.0503
47.0644
47.0644
47.0652
47.0669
47.071
47.0806
47.0629
47.0402
47.0368
47.032
47.0417
47.0516
47.0514
47.0495
47.0497
47.0506
47.0511
47.0512
47.0512
47.0512
47.0509
47.0509
47.0625
47.0625
47.063
47.0639
47.0655
47.0673
47.0644
47.0683
47.0626
47.0492
47.0497
47.0491
47.0469
47.047
47.0492
47.0507
47.0513
47.0515
47.0516
47.0516
47.0514
47.0514
47.0609
47.0609
47.0613
47.0619
47.0628
47.0647
47.0691
47.0785
47.0652
47.0463
47.0393
47.0407
47.0436
47.0474
47.0501
47.0513
47.0517
47.0519
47.052
47.052
47.0518
47.0518
47.0596
47.0596
47.0599
47.0603
47.0608
47.0619
47.0642
47.0654
47.0551
47.0437
47.0426
47.0472
47.049
47.0507
47.0516
47.052
47.0522
47.0523
47.0523
47.0524
47.0522
47.0522
47.0585
47.0585
47.0588
47.059
47.0593
47.0597
47.0603
47.0598
47.0572
47.0566
47.0608
47.0585
47.0549
47.0534
47.0529
47.0528
47.0527
47.0527
47.0527
47.0527
47.0525
47.0525
47.0576
47.0576
47.0579
47.058
47.0582
47.0583
47.0585
47.0585
47.0591
47.0625
47.0645
47.0598
47.0562
47.0544
47.0537
47.0534
47.0532
47.0531
47.053
47.0531
47.0529
47.0529
47.0569
47.0569
47.0572
47.0573
47.0573
47.0574
47.0574
47.0576
47.0583
47.0601
47.06
47.0578
47.0559
47.0548
47.0541
47.0538
47.0536
47.0534
47.0534
47.0534
47.0532
47.0532
47.0564
47.0564
47.0566
47.0567
47.0567
47.0567
47.0567
47.0568
47.0571
47.0575
47.0573
47.0564
47.0555
47.0548
47.0544
47.0541
47.0539
47.0537
47.0537
47.0537
47.0535
47.0535
47.056
47.056
47.0562
47.0562
47.0562
47.0562
47.0561
47.0561
47.0562
47.0562
47.0561
47.0557
47.0552
47.0548
47.0545
47.0543
47.0541
47.054
47.0539
47.054
47.0538
47.0538
47.0558
47.0558
47.0559
47.0558
47.0557
47.0557
47.0556
47.0556
47.0556
47.0555
47.0555
47.0553
47.0551
47.0548
47.0546
47.0544
47.0543
47.0542
47.0542
47.0542
47.0541
47.0541
0
47.0558
47.0559
47.0558
47.0557
47.0557
47.0556
47.0556
47.0556
47.0555
47.0555
47.0553
47.0551
47.0548
47.0546
47.0544
47.0543
47.0542
47.0542
47.0542
47.0541
0
0
47.0845
47.0809
47.0819
47.0781
47.0194
47.005
47.0317
47.0476
47.0533
47.0547
47.0543
47.0535
47.0528
47.0523
47.0517
47.051
47.05
47.0487
47.0471
47.0461
0
47.0845
47.0845
47.0809
47.0819
47.0781
47.0194
47.005
47.0317
47.0476
47.0533
47.0547
47.0543
47.0535
47.0528
47.0523
47.0517
47.051
47.05
47.0487
47.0471
47.0461
47.0461
47.0772
47.0772
47.0767
47.077
47.0741
47.0453
47.0156
47.0267
47.0426
47.0507
47.0536
47.0539
47.0533
47.0527
47.0523
47.0518
47.051
47.0501
47.0491
47.048
47.0473
47.0473
47.0724
47.0724
47.0724
47.0723
47.0704
47.0585
47.0297
47.0261
47.0366
47.0458
47.0507
47.0524
47.0528
47.0527
47.0524
47.0518
47.0511
47.0504
47.0497
47.0491
47.0486
47.0486
47.0689
47.0689
47.0693
47.0697
47.0697
47.0644
47.0439
47.0341
47.0371
47.0427
47.0474
47.0502
47.0515
47.0521
47.052
47.0516
47.0512
47.0507
47.0503
47.0499
47.0495
47.0495
47.0664
47.0664
47.0669
47.0679
47.0698
47.07
47.0584
47.0454
47.0391
47.0401
47.0444
47.0483
47.0504
47.0512
47.0513
47.0513
47.0512
47.051
47.0508
47.0506
47.0503
47.0503
47.0642
47.0642
47.0648
47.0656
47.067
47.0675
47.0602
47.0492
47.042
47.0418
47.0463
47.0494
47.0501
47.0503
47.0506
47.0511
47.0513
47.0513
47.0512
47.0511
47.0509
47.0509
47.0624
47.0624
47.0629
47.0634
47.0641
47.0645
47.0625
47.0579
47.0543
47.0507
47.0491
47.0487
47.0486
47.0493
47.0504
47.0511
47.0515
47.0516
47.0516
47.0516
47.0514
47.0514
47.0609
47.0609
47.0613
47.0616
47.0622
47.0628
47.0633
47.0632
47.0581
47.0512
47.0466
47.0462
47.0476
47.0496
47.0509
47.0515
47.0518
47.052
47.052
47.052
47.0518
47.0518
47.0596
47.0596
47.0599
47.0602
47.0606
47.061
47.0614
47.0607
47.0566
47.0511
47.0476
47.0487
47.0504
47.0514
47.0519
47.0522
47.0523
47.0524
47.0524
47.0524
47.0522
47.0522
47.0586
47.0586
47.0589
47.0591
47.0592
47.0594
47.0595
47.0589
47.0574
47.0555
47.055
47.0547
47.0538
47.0532
47.053
47.0529
47.0528
47.0528
47.0528
47.0528
47.0526
47.0526
47.0578
47.0578
47.058
47.0581
47.0582
47.0583
47.0583
47.0581
47.058
47.0582
47.0582
47.0567
47.0552
47.0542
47.0537
47.0534
47.0533
47.0532
47.0531
47.0531
47.0529
47.0529
47.0571
47.0571
47.0573
47.0574
47.0575
47.0575
47.0575
47.0574
47.0576
47.0579
47.0576
47.0566
47.0555
47.0547
47.0541
47.0538
47.0536
47.0535
47.0535
47.0535
47.0533
47.0533
47.0566
47.0566
47.0568
47.0568
47.0569
47.0568
47.0568
47.0568
47.0569
47.0569
47.0567
47.0561
47.0554
47.0548
47.0544
47.0541
47.0539
47.0538
47.0538
47.0538
47.0536
47.0536
47.0562
47.0562
47.0564
47.0564
47.0564
47.0563
47.0563
47.0562
47.0562
47.0562
47.056
47.0557
47.0552
47.0549
47.0546
47.0543
47.0542
47.0541
47.054
47.054
47.0539
47.0539
47.0561
47.0561
47.0561
47.056
47.0559
47.0559
47.0558
47.0558
47.0557
47.0556
47.0555
47.0554
47.0551
47.0549
47.0547
47.0545
47.0544
47.0543
47.0543
47.0542
47.0542