# vtk DataFile Version 3.0
FlowField
ASCII
DATASET STRUCTURED_GRID
DIMENSIONS 102 12 1 
POINTS 1224 double
0 0 0
0.3 0 0
0.6 0 0
0.9 0 0
1.2 0 0
1.5 0 0
1.8 0 0
2.1 0 0
2.4 0 0
2.7 0 0
3 0 0
3.3 0 0
3.6 0 0
3.9 0 0
4.2 0 0
4.5 0 0
4.8 0 0
5.1 0 0
5.4 0 0
5.7 0 0
6 0 0
6.3 0 0
6.6 0 0
6.9 0 0
7.2 0 0
7.5 0 0
7.8 0 0
8.1 0 0
8.4 0 0
8.7 0 0
9 0 0
9.3 0 0
9.6 0 0
9.9 0 0
10.2 0 0
10.5 0 0
10.8 0 0
11.1 0 0
11.4 0 0
11.7 0 0
12 0 0
12.3 0 0
12.6 0 0
12.9 0 0
13.2 0 0
13.5 0 0
13.8 0 0
14.1 0 0
14.4 0 0
14.7 0 0
15 0 0
15.3 0 0
15.6 0 0
15.9 0 0
16.2 0 0
16.5 0 0
16.8 0 0
17.1 0 0
17.4 0 0
17.7 0 0
18 0 0
18.3 0 0
18.6 0 0
18.9 0 0
19.2 0 0
19.5 0 0
19.8 0 0
20.1 0 0
20.4 0 0
20.7 0 0
21 0 0
21.3 0 0
21.6 0 0
21.9 0 0
22.2 0 0
22.5 0 0
22.8 0 0
23.1 0 0
23.4 0 0
23.7 0 0
24 0 0
24.3 0 0
24.6 0 0
24.9 0 0
25.2 0 0
25.5 0 0
25.8 0 0
26.1 0 0
26.4 0 0
26.7 0 0
27 0 0
27.3 0 0
27.6 0 0
27.9 0 0
28.2 0 0
28.5 0 0
28.8 0 0
29.1 0 0
29.4 0 0
29.7 0 0
30 0 0
30.3 0 0
0 0.1 0
0.3 0.1 0
0.6 0.1 0
0.9 0.1 0
1.2 0.1 0
1.5 0.1 0
1.8 0.1 0
2.1 0.1 0
2.4 0.1 0
2.7 0.1 0
3 0.1 0
3.3 0.1 0
3.6 0.1 0
3.9 0.1 0
4.2 0.1 0
4.5 0.1 0
4.8 0.1 0
5.1 0.1 0
5.4 0.1 0
5.7 0.1 0
6 0.1 0
6.3 0.1 0
6.6 0.1 0
6.9 0.1 0
7.2 0.1 0
7.5 0.1 0
7.8 0.1 0
8.1 0.1 0
8.4 0.1 0
8.7 0.1 0
9 0.1 0
9.3 0.1 0
9.6 0.1 0
9.9 0.1 0
10.2 0.1 0
10.5 0.1 0
10.8 0.1 0
11.1 0.1 0
11.4 0.1 0
11.7 0.1 0
12 0.1 0
12.3 0.1 0
12.6 0.1 0
12.9 0.1 0
13.2 0.1 0
13.5 0.1 0
13.8 0.1 0
14.1 0.1 0
14.4 0.1 0
14.7 0.1 0
15 0.1 0
15.3 0.1 0
15.6 0.1 0
15.9 0.1 0
16.2 0.1 0
16.5 0.1 0
16.8 0.1 0
17.1 0.1 0
17.4 0.1 0
17.7 0.1 0
18 0.1 0
18.3 0.1 0
18.6 0.1 0
18.9 0.1 0
19.2 0.1 0
19.5 0.1 0
19.8 0.1 0
20.1 0.1 0
20.4 0.1 0
20.7 0.1 0
21 0.1 0
21.3 0.1 0
21.6 0.1 0
21.9 0.1 0
22.2 0.1 0
22.5 0.1 0
22.8 0.1 0
23.1 0.1 0
23.4 0.1 0
23.7 0.1 0
24 0.1 0
24.3 0.1 0
24.6 0.1 0
24.9 0.1 0
25.2 0.1 0
25.5 0.1 0
25.8 0.1 0
26.1 0.1 0
26.4 0.1 0
26.7 0.1 0
27 0.1 0
27.3 0.1 0
27.6 0.1 0
27.9 0.1 0
28.2 0.1 0
28.5 0.1 0
28.8 0.1 0
29.1 0.1 0
29.4 0.1 0
29.7 0.1 0
30 0.1 0
30.3 0.1 0
0 0.2 0
0.3 0.2 0
0.6 0.2 0
0.9 0.2 0
1.2 0.2 0
1.5 0.2 0
1.8 0.2 0
2.1 0.2 0
2.4 0.2 0
2.7 0.2 0
3 0.2 0
3.3 0.2 0
3.6 0.2 0
3.9 0.2 0
4.2 0.2 0
4.5 0.2 0
4.8 0.2 0
5.1 0.2 0
5.4 0.2 0
5.7 0.2 0
6 0.2 0
6.3 0.2 0
6.6 0.2 0
6.9 0.2 0
7.2 0.2 0
7.5 0.2 0
7.8 0.2 0
8.1 0.2 0
8.4 0.2 0
8.7 0.2 0
9 0.2 0
9.3 0.2 0
9.6 0.2 0
9.9 0.2 0
10.2 0.2 0
10.5 0.2 0
10.8 0.2 0
11.1 0.2 0
11.4 0.2 0
11.7 0.2 0
12 0.2 0
12.3 0.2 0
12.6 0.2 0
12.9 0.2 0
13.2 0.2 0
13.5 0.2 0
13.8 0.2 0
14.1 0.2 0
14.4 0.2 0
14.7 0.2 0
15 0.2 0
15.3 0.2 0
15.6 0.2 0
15.9 0.2 0
16.2 0.2 0
16.5 0.2 0
16.8 0.2 0
17.1 0.2 0
17.4 0.2 0
17.7 0.2 0
18 0.2 0
18.3 0.2 0
18.6 0.2 0
18.9 0.2 0
19.2 0.2 0
19.5 0.2 0
19.8 0.2 0
20.1 0.2 0
20.4 0.2 0
20.7 0.2 0
21 0.2 0
21.3 0.2 0
21.6 0.2 0
21.9 0.2 0
22.2 0.2 0
22.5 0.2 0
22.8 0.2 0
23.1 0.2 0
23.4 0.2 0
23.7 0.2 0
24 0.2 0
24.3 0.2 0
24.6 0.2 0
24.9 0.2 0
25.2 0.2 0
25.5 0.2 0
25.8 0.2 0
26.1 0.2 0
26.4 0.2 0
26.7 0.2 0
27 0.2 0
27.3 0.2 0
27.6 0.2 0
27.9 0.2 0
28.2 0.2 0
28.5 0.2 0
28.8 0.2 0
29.1 0.2 0
29.4 0.2 0
29.7 0.2 0
30 0.2 0
30.3 0.2 0
0 0.3 0
0.3 0.3 0
0.6 0.3 0
0.9 0.3 0
1.2 0.3 0
1.5 0.3 0
1.8 0.3 0
2.1 0.3 0
2.4 0.3 0
2.7 0.3 0
3 0.3 0
3.3 0.3 0
3.6 0.3 0
3.9 0.3 0
4.2 0.3 0
4.5 0.3 0
4.8 0.3 0
5.1 0.3 0
5.4 0.3 0
5.7 0.3 0
6 0.3 0
6.3 0.3 0
6.6 0.3 0
6.9 0.3 0
7.2 0.3 0
7.5 0.3 0
7.8 0.3 0
8.1 0.3 0
8.4 0.3 0
8.7 0.3 0
9 0.3 0
9.3 0.3 0
9.6 0.3 0
9.9 0.3 0
10.2 0.3 0
10.5 0.3 0
10.8 0.3 0
11.1 0.3 0
11.4 0.3 0
11.7 0.3 0
12 0.3 0
12.3 0.3 0
12.6 0.3 0
12.9 0.3 0
13.2 0.3 0
13.5 0.3 0
13.8 0.3 0
14.1 0.3 0
14.4 0.3 0
14.7 0.3 0
15 0.3 0
15.3 0.3 0
15.6 0.3 0
15.9 0.3 0
16.2 0.3 0
16.5 0.3 0
16.8 0.3 0
17.1 0.3 0
17.4 0.3 0
17.7 0.3 0
18 0.3 0
18.3 0.3 0
18.6 0.3 0
18.9 0.3 0
19.2 0.3 0
19.5 0.3 0
19.8 0.3 0
20.1 0.3 0
20.4 0.3 0
20.7 0.3 0
21 0.3 0
21.3 0.3 0
21.6 0.3 0
21.9 0.3 0
22.2 0.3 0
22.5 0.3 0
22.8 0.3 0
23.1 0.3 0
23.4 0.3 0
23.7 0.3 0
24 0.3 0
24.3 0.3 0
24.6 0.3 0
24.9 0.3 0
25.2 0.3 0
25.5 0.3 0
25.8 0.3 0
26.1 0.3 0
26.4 0.3 0
26.7 0.3 0
27 0.3 0
27.3 0.3 0
27.6 0.3 0
27.9 0.3 0
28.2 0.3 0
28.5 0.3 0
28.8 0.3 0
29.1 0.3 0
29.4 0.3 0
29.7 0.3 0
30 0.3 0
30.3 0.3 0
0 0.4 0
0.3 0.4 0
0.6 0.4 0
0.9 0.4 0
1.2 0.4 0
1.5 0.4 0
1.8 0.4 0
2.1 0.4 0
2.4 0.4 0
2.7 0.4 0
3 0.4 0
3.3 0.4 0
3.6 0.4 0
3.9 0.4 0
4.2 0.4 0
4.5 0.4 0
4.8 0.4 0
5.1 0.4 0
5.4 0.4 0
5.7 0.4 0
6 0.4 0
6.3 0.4 0
6.6 0.4 0
6.9 0.4 0
7.2 0.4 0
7.5 0.4 0
7.8 0.4 0
8.1 0.4 0
8.4 0.4 0
8.7 0.4 0
9 0.4 0
9.3 0.4 0
9.6 0.4 0
9.9 0.4 0
10.2 0.4 0
10.5 0.4 0
10.8 0.4 0
11.1 0.4 0
11.4 0.4 0
11.7 0.4 0
12 0.4 0
12.3 0.4 0
12.6 0.4 0
12.9 0.4 0
13.2 0.4 0
13.5 0.4 0
13.8 0.4 0
14.1 0.4 0
14.4 0.4 0
14.7 0.4 0
15 0.4 0
15.3 0.4 0
15.6 0.4 0
15.9 0.4 0
16.2 0.4 0
16.5 0.4 0
16.8 0.4 0
17.1 0.4 0
17.4 0.4 0
17.7 0.4 0
18 0.4 0
18.3 0.4 0
18.6 0.4 0
18.9 0.4 0
19.2 0.4 0
19.5 0.4 0
19.8 0.4 0
20.1 0.4 0
20.4 0.4 0
20.7 0.4 0
21 0.4 0
21.3 0.4 0
21.6 0.4 0
21.9 0.4 0
22.2 0.4 0
22.5 0.4 0
22.8 0.4 0
23.1 0.4 0
23.4 0.4 0
23.7 0.4 0
24 0.4 0
24.3 0.4 0
24.6 0.4 0
24.9 0.4 0
25.2 0.4 0
25.5 0.4 0
25.8 0.4 0
26.1 0.4 0
26.4 0.4 0
26.7 0.4 0
27 0.4 0
27.3 0.4 0
27.6 0.4 0
27.9 0.4 0
28.2 0.4 0
28.5 0.4 0
28.8 0.4 0
29.1 0.4 0
29.4 0.4 0
29.7 0.4 0
30 0.4 0
30.3 0.4 0
0 0.5 0
0.3 0.5 0
0.6 0.5 0
0.9 0.5 0
1.2 0.5 0
1.5 0.5 0
1.8 0.5 0
2.1 0.5 0
2.4 0.5 0
2.7 0.5 0
3 0.5 0
3.3 0.5 0
3.6 0.5 0
3.9 0.5 0
4.2 0.5 0
4.5 0.5 0
4.8 0.5 0
5.1 0.5 0
5.4 0.5 0
5.7 0.5 0
6 0.5 0
6.3 0.5 0
6.6 0.5 0
6.9 0.5 0
7.2 0.5 0
7.5 0.5 0
7.8 0.5 0
8.1 0.5 0
8.4 0.5 0
8.7 0.5 0
9 0.5 0
9.3 0.5 0
9.6 0.5 0
9.9 0.5 0
10.2 0.5 0
10.5 0.5 0
10.8 0.5 0
11.1 0.5 0
11.4 0.5 0
11.7 0.5 0
12 0.5 0
12.3 0.5 0
12.6 0.5 0
12.9 0.5 0
13.2 0.5 0
13.5 0.5 0
13.8 0.5 0
14.1 0.5 0
14.4 0.5 0
14.7 0.5 0
15 0.5 0
15.3 0.5 0
15.6 0.5 0
15.9 0.5 0
16.2 0.5 0
16.5 0.5 0
16.8 0.5 0
17.1 0.5 0
17.4 0.5 0
17.7 0.5 0
18 0.5 0
18.3 0.5 0
18.6 0.5 0
18.9 0.5 0
19.2 0.5 0
19.5 0.5 0
19.8 0.5 0
20.1 0.5 0
20.4 0.5 0
20.7 0.5 0
21 0.5 0
21.3 0.5 0
21.6 0.5 0
21.9 0.5 0
22.2 0.5 0
22.5 0.5 0
22.8 0.5 0
23.1 0.5 0
23.4 0.5 0
23.7 0.5 0
24 0.5 0
24.3 0.5 0
24.6 0.5 0
24.9 0.5 0
25.2 0.5 0
25.5 0.5 0
25.8 0.5 0
26.1 0.5 0
26.4 0.5 0
26.7 0.5 0
27 0.5 0
27.3 0.5 0
27.6 0.5 0
27.9 0.5 0
28.2 0.5 0
28.5 0.5 0
28.8 0.5 0
29.1 0.5 0
29.4 0.5 0
29.7 0.5 0
30 0.5 0
30.3 0.5 0
0 0.6 0
0.3 0.6 0
0.6 0.6 0
0.9 0.6 0
1.2 0.6 0
1.5 0.6 0
1.8 0.6 0
2.1 0.6 0
2.4 0.6 0
2.7 0.6 0
3 0.6 0
3.3 0.6 0
3.6 0.6 0
3.9 0.6 0
4.2 0.6 0
4.5 0.6 0
4.8 0.6 0
5.1 0.6 0
5.4 0.6 0
5.7 0.6 0
6 0.6 0
6.3 0.6 0
6.6 0.6 0
6.9 0.6 0
7.2 0.6 0
7.5 0.6 0
7.8 0.6 0
8.1 0.6 0
8.4 0.6 0
8.7 0.6 0
9 0.6 0
9.3 0.6 0
9.6 0.6 0
9.9 0.6 0
10.2 0.6 0
10.5 0.6 0
10.8 0.6 0
11.1 0.6 0
11.4 0.6 0
11.7 0.6 0
12 0.6 0
12.3 0.6 0
12.6 0.6 0
12.9 0.6 0
13.2 0.6 0
13.5 0.6 0
13.8 0.6 0
14.1 0.6 0
14.4 0.6 0
14.7 0.6 0
15 0.6 0
15.3 0.6 0
15.6 0.6 0
15.9 0.6 0
16.2 0.6 0
16.5 0.6 0
16.8 0.6 0
17.1 0.6 0
17.4 0.6 0
17.7 0.6 0
18 0.6 0
18.3 0.6 0
18.6 0.6 0
18.9 0.6 0
19.2 0.6 0
19.5 0.6 0
19.8 0.6 0
20.1 0.6 0
20.4 0.6 0
20.7 0.6 0
21 0.6 0
21.3 0.6 0
21.6 0.6 0
21.9 0.6 0
22.2 0.6 0
22.5 0.6 0
22.8 0.6 0
23.1 0.6 0
23.4 0.6 0
23.7 0.6 0
24 0.6 0
24.3 0.6 0
24.6 0.6 0
24.9 0.6 0
25.2 0.6 0
25.5 0.6 0
25.8 0.6 0
26.1 0.6 0
26.4 0.6 0
26.7 0.6 0
27 0.6 0
27.3 0.6 0
27.6 0.6 0
27.9 0.6 0
28.2 0.6 0
28.5 0.6 0
28.8 0.6 0
29.1 0.6 0
29.4 0.6 0
29.7 0.6 0
30 0.6 0
30.3 0.6 0
0 0.7 0
0.3 0.7 0
0.6 0.7 0
0.9 0.7 0
1.2 0.7 0
1.5 0.7 0
1.8 0.7 0
2.1 0.7 0
2.4 0.7 0
2.7 0.7 0
3 0.7 0
3.3 0.7 0
3.6 0.7 0
3.9 0.7 0
4.2 0.7 0
4.5 0.7 0
4.8 0.7 0
5.1 0.7 0
5.4 0.7 0
5.7 0.7 0
6 0.7 0
6.3 0.7 0
6.6 0.7 0
6.9 0.7 0
7.2 0.7 0
7.5 0.7 0
7.8 0.7 0
8.1 0.7 0
8.4 0.7 0
8.7 0.7 0
9 0.7 0
9.3 0.7 0
9.6 0.7 0
9.9 0.7 0
10.2 0.7 0
10.5 0.7 0
10.8 0.7 0
11.1 0.7 0
11.4 0.7 0
11.7 0.7 0
12 0.7 0
12.3 0.7 0
12.6 0.7 0
12.9 0.7 0
13.2 0.7 0
13.5 0.7 0
13.8 0.7 0
14.1 0.7 0
14.4 0.7 0
14.7 0.7 0
15 0.7 0
15.3 0.7 0
15.6 0.7 0
15.9 0.7 0
16.2 0.7 0
16.5 0.7 0
16.8 0.7 0
17.1 0.7 0
17.4 0.7 0
17.7 0.7 0
18 0.7 0
18.3 0.7 0
18.6 0.7 0
18.9 0.7 0
19.2 0.7 0
19.5 0.7 0
19.8 0.7 0
20.1 0.7 0
20.4 0.7 0
20.7 0.7 0
21 0.7 0
21.3 0.7 0
21.6 0.7 0
21.9 0.7 0
22.2 0.7 0
22.5 0.7 0
22.8 0.7 0
23.1 0.7 0
23.4 0.7 0
23.7 0.7 0
24 0.7 0
24.3 0.7 0
24.6 0.7 0
24.9 0.7 0
25.2 0.7 0
25.5 0.7 0
25.8 0.7 0
26.1 0.7 0
26.4 0.7 0
26.7 0.7 0
27 0.7 0
27.3 0.7 0
27.6 0.7 0
27.9 0.7 0
28.2 0.7 0
28.5 0.7 0
28.8 0.7 0
29.1 0.7 0
29.4 0.7 0
29.7 0.7 0
30 0.7 0
30.3 0.7 0
0 0.8 0
0.3 0.8 0
0.6 0.8 0
0.9 0.8 0
1.2 0.8 0
1.5 0.8 0
1.8 0.8 0
2.1 0.8 0
2.4 0.8 0
2.7 0.8 0
3 0.8 0
3.3 0.8 0
3.6 0.8 0
3.9 0.8 0
4.2 0.8 0
4.5 0.8 0
4.8 0.8 0
5.1 0.8 0
5.4 0.8 0
5.7 0.8 0
6 0.8 0
6.3 0.8 0
6.6 0.8 0
6.9 0.8 0
7.2 0.8 0
7.5 0.8 0
7.8 0.8 0
8.1 0.8 0
8.4 0.8 0
8.7 0.8 0
9 0.8 0
9.3 0.8 0
9.6 0.8 0
9.9 0.8 0
10.2 0.8 0
10.5 0.8 0
10.8 0.8 0
11.1 0.8 0
11.4 0.8 0
11.7 0.8 0
12 0.8 0
12.3 0.8 0
12.6 0.8 0
12.9 0.8 0
13.2 0.8 0
13.5 0.8 0
13.8 0.8 0
14.1 0.8 0
14.4 0.8 0
14.7 0.8 0
15 0.8 0
15.3 0.8 0
15.6 0.8 0
15.9 0.8 0
16.2 0.8 0
16.5 0.8 0
16.8 0.8 0
17.1 0.8 0
17.4 0.8 0
17.7 0.8 0
18 0.8 0
18.3 0.8 0
18.6 0.8 0
18.9 0.8 0
19.2 0.8 0
19.5 0.8 0
19.8 0.8 0
20.1 0.8 0
20.4 0.8 0
20.7 0.8 0
21 0.8 0
21.3 0.8 0
21.6 0.8 0
21.9 0.8 0
22.2 0.8 0
22.5 0.8 0
22.8 0.8 0
23.1 0.8 0
23.4 0.8 0
23.7 0.8 0
24 0.8 0
24.3 0.8 0
24.6 0.8 0
24.9 0.8 0
25.2 0.8 0
25.5 0.8 0
25.8 0.8 0
26.1 0.8 0
26.4 0.8 0
26.7 0.8 0
27 0.8 0
27.3 0.8 0
27.6 0.8 0
27.9 0.8 0
28.2 0.8 0
28.5 0.8 0
28.8 0.8 0
29.1 0.8 0
29.4 0.8 0
29.7 0.8 0
30 0.8 0
30.3 0.8 0
0 0.9 0
0.3 0.9 0
0.6 0.9 0
0.9 0.9 0
1.2 0.9 0
1.5 0.9 0
1.8 0.9 0
2.1 0.9 0
2.4 0.9 0
2.7 0.9 0
3 0.9 0
3.3 0.9 0
3.6 0.9 0
3.9 0.9 0
4.2 0.9 0
4.5 0.9 0
4.8 0.9 0
5.1 0.9 0
5.4 0.9 0
5.7 0.9 0
6 0.9 0
6.3 0.9 0
6.6 0.9 0
6.9 0.9 0
7.2 0.9 0
7.5 0.9 0
7.8 0.9 0
8.1 0.9 0
8.4 0.9 0
8.7 0.9 0
9 0.9 0
9.3 0.9 0
9.6 0.9 0
9.9 0.9 0
10.2 0.9 0
10.5 0.9 0
10.8 0.9 0
11.1 0.9 0
11.4 0.9 0
11.7 0.9 0
12 0.9 0
12.3 0.9 0
12.6 0.9 0
12.9 0.9 0
13.2 0.9 0
13.5 0.9 0
13.8 0.9 0
14.1 0.9 0
14.4 0.9 0
14.7 0.9 0
15 0.9 0
15.3 0.9 0
15.6 0.9 0
15.9 0.9 0
16.2 0.9 0
16.5 0.9 0
16.8 0.9 0
17.1 0.9 0
17.4 0.9 0
17.7 0.9 0
18 0.9 0
18.3 0.9 0
18.6 0.9 0
18.9 0.9 0
19.2 0.9 0
19.5 0.9 0
19.8 0.9 0
20.1 0.9 0
20.4 0.9 0
20.7 0.9 0
21 0.9 0
21.3 0.9 0
21.6 0.9 0
21.9 0.9 0
22.2 0.9 0
22.5 0.9 0
22.8 0.9 0
23.1 0.9 0
23.4 0.9 0
23.7 0.9 0
24 0.9 0
24.3 0.9 0
24.6 0.9 0
24.9 0.9 0
25.2 0.9 0
25.5 0.9 0
25.8 0.9 0
26.1 0.9 0
26.4 0.9 0
26.7 0.9 0
27 0.9 0
27.3 0.9 0
27.6 0.9 0
27.9 0.9 0
28.2 0.9 0
28.5 0.9 0
28.8 0.9 0
29.1 0.9 0
29.4 0.9 0
29.7 0.9 0
30 0.9 0
30.3 0.9 0
0 1 0
0.3 1 0
0.6 1 0
0.9 1 0
1.2 1 0
1.5 1 0
1.8 1 0
2.1 1 0
2.4 1 0
2.7 1 0
3 1 0
3.3 1 0
3.6 1 0
3.9 1 0
4.2 1 0
4.5 1 0
4.8 1 0
5.1 1 0
5.4 1 0
5.7 1 0
6 1 0
6.3 1 0
6.6 1 0
6.9 1 0
7.2 1 0
7.5 1 0
7.8 1 0
8.1 1 0
8.4 1 0
8.7 1 0
9 1 0
9.3 1 0
9.6 1 0
9.9 1 0
10.2 1 0
10.5 1 0
10.8 1 0
11.1 1 0
11.4 1 0
11.7 1 0
12 1 0
12.3 1 0
12.6 1 0
12.9 1 0
13.2 1 0
13.5 1 0
13.8 1 0
14.1 1 0
14.4 1 0
14.7 1 0
15 1 0
15.3 1 0
15.6 1 0
15.9 1 0
16.2 1 0
16.5 1 0
16.8 1 0
17.1 1 0
17.4 1 0
17.7 1 0
18 1 0
18.3 1 0
18.6 1 0
18.9 1 0
19.2 1 0
19.5 1 0
19.8 1 0
20.1 1 0
20.4 1 0
20.7 1 0
21 1 0
21.3 1 0
21.6 1 0
21.9 1 0
22.2 1 0
22.5 1 0
22.8 1 0
23.1 1 0
23.4 1 0
23.7 1 0
24 1 0
24.3 1 0
24.6 1 0
24.9 1 0
25.2 1 0
25.5 1 0
25.8 1 0
26.1 1 0
26.4 1 0
26.7 1 0
27 1 0
27.3 1 0
27.6 1 0
27.9 1 0
28.2 1 0
28.5 1 0
28.8 1 0
29.1 1 0
29.4 1 0
29.7 1 0
30 1 0
30.3 1 0
0 1.1 0
0.3 1.1 0
0.6 1.1 0
0.9 1.1 0
1.2 1.1 0
1.5 1.1 0
1.8 1.1 0
2.1 1.1 0
2.4 1.1 0
2.7 1.1 0
3 1.1 0
3.3 1.1 0
3.6 1.1 0
3.9 1.1 0
4.2 1.1 0
4.5 1.1 0
4.8 1.1 0
5.1 1.1 0
5.4 1.1 0
5.7 1.1 0
6 1.1 0
6.3 1.1 0
6.6 1.1 0
6.9 1.1 0
7.2 1.1 0
7.5 1.1 0
7.8 1.1 0
8.1 1.1 0
8.4 1.1 0
8.7 1.1 0
9 1.1 0
9.3 1.1 0
9.6 1.1 0
9.9 1.1 0
10.2 1.1 0
10.5 1.1 0
10.8 1.1 0
11.1 1.1 0
11.4 1.1 0
11.7 1.1 0
12 1.1 0
12.3 1.1 0
12.6 1.1 0
12.9 1.1 0
13.2 1.1 0
13.5 1.1 0
13.8 1.1 0
14.1 1.1 0
14.4 1.1 0
14.7 1.1 0
15 1.1 0
15.3 1.1 0
15.6 1.1 0
15.9 1.1 0
16.2 1.1 0
16.5 1.1 0
16.8 1.1 0
17.1 1.1 0
17.4 1.1 0
17.7 1.1 0
18 1.1 0
18.3 1.1 0
18.6 1.1 0
18.9 1.1 0
19.2 1.1 0
19.5 1.1 0
19.8 1.1 0
20.1 1.1 0
20.4 1.1 0
20.7 1.1 0
21 1.1 0
21.3 1.1 0
21.6 1.1 0
21.9 1.1 0
22.2 1.1 0
22.5 1.1 0
22.8 1.1 0
23.1 1.1 0
23.4 1.1 0
23.7 1.1 0
24 1.1 0
24.3 1.1 0
24.6 1.1 0
24.9 1.1 0
25.2 1.1 0
25.5 1.1 0
25.8 1.1 0
26.1 1.1 0
26.4 1.1 0
26.7 1.1 0
27 1.1 0
27.3 1.1 0
27.6 1.1 0
27.9 1.1 0
28.2 1.1 0
28.5 1.1 0
28.8 1.1 0
29.1 1.1 0
29.4 1.1 0
29.7 1.1 0
30 1.1 0
30.3 1.1 0

POINT_DATA 1224

SCALARS pressure double
LOOKUP_TABLE pressure
1.31577
1.31577
1.24926
1.20218
1.15923
1.11957
1.08355
1.05116
1.02206
0.995726
0.971616
0.949264
0.928291
0.908409
0.889403
0.871113
0.853422
0.836241
0.819501
0.803151
0.787148
0.771457
0.756047
0.740894
0.725977
0.711276
0.696774
0.682455
0.668307
0.654316
0.640472
0.626763
0.61318
0.599714
0.586358
0.573105
0.559946
0.546876
0.533889
0.52098
0.508143
0.495373
0.482668
0.470021
0.45743
0.444891
0.4324
0.419955
0.407553
0.395191
0.382866
0.370576
0.358319
0.346093
0.333895
0.321725
0.30958
0.297459
0.28536
0.273282
0.261224
0.249184
0.237161
0.225154
0.213162
0.201185
0.189221
0.177269
0.165329
0.1534
0.141481
0.129572
0.117672
0.10578
0.0938963
0.0820199
0.0701506
0.0582878
0.0464311
0.0345802
0.0227346
0.0108941
-0.000941619
-0.0127729
-0.0246001
-0.0364233
-0.0482429
-0.0600591
-0.071872
-0.083682
-0.0954891
-0.107294
-0.119096
-0.130895
-0.142693
-0.154488
-0.166282
-0.178073
-0.189863
-0.201652
-0.213439
0.213439
1.31577
1.31577
1.24926
1.20218
1.15923
1.11957
1.08355
1.05116
1.02206
0.995726
0.971616
0.949264
0.928291
0.908409
0.889403
0.871113
0.853422
0.836241
0.819501
0.803151
0.787148
0.771457
0.756047
0.740894
0.725977
0.711276
0.696774
0.682455
0.668307
0.654316
0.640472
0.626763
0.61318
0.599714
0.586358
0.573105
0.559946
0.546876
0.533889
0.52098
0.508143
0.495373
0.482668
0.470021
0.45743
0.444891
0.4324
0.419955
0.407553
0.395191
0.382866
0.370576
0.358319
0.346093
0.333895
0.321725
0.30958
0.297459
0.28536
0.273282
0.261224
0.249184
0.237161
0.225154
0.213162
0.201185
0.189221
0.177269
0.165329
0.1534
0.141481
0.129572
0.117672
0.10578
0.0938963
0.0820199
0.0701506
0.0582878
0.0464311
0.0345802
0.0227346
0.0108941
-0.000941619
-0.0127729
-0.0246001
-0.0364233
-0.0482429
-0.0600591
-0.071872
-0.083682
-0.0954891
-0.107294
-0.119096
-0.130895
-0.142693
-0.154488
-0.166282
-0.178073
-0.189863
-0.201652
-0.213439
0.213439
1.29512
1.29512
1.24746
1.20249
1.15994
1.12034
1.08425
1.05176
1.02254
0.996096
0.971902
0.949485
0.928464
0.908546
0.889514
0.871205
0.8535
0.836308
0.819559
0.803202
0.787194
0.771497
0.756083
0.740927
0.726007
0.711303
0.696798
0.682478
0.668328
0.654335
0.640489
0.626779
0.613195
0.599728
0.586371
0.573117
0.559957
0.546886
0.533899
0.520989
0.508151
0.495381
0.482675
0.470028
0.457436
0.444897
0.432406
0.41996
0.407558
0.395195
0.38287
0.37058
0.358323
0.346096
0.333899
0.321728
0.309583
0.297462
0.285363
0.273284
0.261226
0.249186
0.237163
0.225156
0.213164
0.201186
0.189222
0.17727
0.16533
0.153401
0.141482
0.129573
0.117673
0.105781
0.0938971
0.0820208
0.0701514
0.0582885
0.0464318
0.0345808
0.0227352
0.0108947
-0.000941103
-0.0127725
-0.0245996
-0.0364229
-0.0482425
-0.0600587
-0.0718717
-0.0836816
-0.0954888
-0.107293
-0.119095
-0.130895
-0.142692
-0.154488
-0.166281
-0.178073
-0.189863
-0.201652
-0.213438
0.213438
1.28074
1.28074
1.24496
1.20289
1.16108
1.12161
1.08543
1.05275
1.02333
0.996702
0.972358
0.949825
0.928719
0.90874
0.889664
0.871324
0.853596
0.836386
0.819625
0.803258
0.787242
0.771539
0.75612
0.74096
0.726036
0.711329
0.696822
0.6825
0.668347
0.654353
0.640506
0.626794
0.613208
0.599741
0.586383
0.573127
0.559967
0.546895
0.533907
0.520996
0.508158
0.495388
0.482681
0.470034
0.457442
0.444902
0.43241
0.419965
0.407562
0.395199
0.382873
0.370583
0.358326
0.346099
0.333901
0.321731
0.309585
0.297464
0.285365
0.273286
0.261228
0.249187
0.237164
0.225157
0.213165
0.201188
0.189223
0.177271
0.165331
0.153402
0.141483
0.129574
0.117673
0.105782
0.0938978
0.0820214
0.070152
0.0582891
0.0464323
0.0345813
0.0227357
0.0108951
-0.00094069
-0.0127721
-0.0245993
-0.0364226
-0.0482422
-0.0600584
-0.0718714
-0.0836814
-0.0954885
-0.107293
-0.119095
-0.130895
-0.142692
-0.154488
-0.166281
-0.178073
-0.189863
-0.201651
-0.213435
0.213435
1.27205
1.27205
1.24294
1.20314
1.162
1.12269
1.08646
1.05364
1.02406
0.997281
0.972806
0.95017
0.928985
0.908948
0.889829
0.871457
0.853705
0.836478
0.819703
0.803325
0.7873
0.77159
0.756165
0.741
0.726072
0.711361
0.696851
0.682526
0.668371
0.654375
0.640525
0.626811
0.613225
0.599756
0.586397
0.57314
0.559978
0.546906
0.533917
0.521005
0.508167
0.495396
0.482688
0.47004
0.457448
0.444907
0.432416
0.41997
0.407566
0.395203
0.382877
0.370587
0.358329
0.346102
0.333904
0.321733
0.309588
0.297466
0.285367
0.273288
0.26123
0.249189
0.237166
0.225159
0.213167
0.201189
0.189225
0.177273
0.165332
0.153403
0.141484
0.129575
0.117674
0.105783
0.0938986
0.0820222
0.0701527
0.0582897
0.0464329
0.0345819
0.0227362
0.0108956
-0.000940212
-0.0127716
-0.0245989
-0.0364222
-0.0482418
-0.0600581
-0.0718711
-0.0836811
-0.0954882
-0.107293
-0.119095
-0.130894
-0.142692
-0.154487
-0.166281
-0.178073
-0.189862
-0.20165
-0.213429
0.213429
1.26797
1.26797
1.24186
1.20326
1.16249
1.12328
1.08703
1.05414
1.02448
0.997616
0.97307
0.950377
0.929149
0.909079
0.889935
0.871544
0.853778
0.83654
0.819757
0.803372
0.787341
0.771626
0.756198
0.741029
0.726098
0.711385
0.696873
0.682545
0.668389
0.654391
0.64054
0.626825
0.613237
0.599767
0.586407
0.573149
0.559987
0.546914
0.533925
0.521012
0.508173
0.495402
0.482694
0.470045
0.457453
0.444912
0.43242
0.419974
0.40757
0.395207
0.382881
0.37059
0.358332
0.346105
0.333907
0.321736
0.30959
0.297468
0.285369
0.27329
0.261231
0.249191
0.237167
0.22516
0.213168
0.20119
0.189226
0.177274
0.165333
0.153404
0.141485
0.129576
0.117675
0.105783
0.0938993
0.0820228
0.0701532
0.0582903
0.0464334
0.0345823
0.0227367
0.010896
-0.000939832
-0.0127713
-0.0245985
-0.0364219
-0.0482416
-0.0600578
-0.0718708
-0.0836808
-0.095488
-0.107293
-0.119095
-0.130894
-0.142692
-0.154487
-0.166281
-0.178072
-0.189862
-0.201649
-0.213425
0.213425
1.26797
1.26797
1.24186
1.20326
1.16249
1.12327
1.08703
1.05414
1.02448
0.997616
0.97307
0.950377
0.929149
0.909079
0.889935
0.871544
0.853778
0.83654
0.819757
0.803372
0.787341
0.771626
0.756198
0.741029
0.726098
0.711385
0.696873
0.682545
0.668389
0.654391
0.64054
0.626825
0.613237
0.599767
0.586407
0.573149
0.559987
0.546914
0.533925
0.521012
0.508173
0.495402
0.482694
0.470045
0.457453
0.444912
0.43242
0.419974
0.40757
0.395207
0.382881
0.37059
0.358332
0.346105
0.333907
0.321736
0.30959
0.297468
0.285369
0.27329
0.261231
0.249191
0.237167
0.22516
0.213168
0.20119
0.189226
0.177274
0.165333
0.153404
0.141485
0.129576
0.117675
0.105783
0.0938993
0.0820228
0.0701532
0.0582903
0.0464334
0.0345823
0.0227367
0.010896
-0.000939832
-0.0127713
-0.0245985
-0.0364219
-0.0482416
-0.0600578
-0.0718708
-0.0836808
-0.095488
-0.107293
-0.119095
-0.130894
-0.142692
-0.154487
-0.166281
-0.178072
-0.189862
-0.201649
-0.213425
0.213425
1.27205
1.27205
1.24294
1.20314
1.162
1.12269
1.08646
1.05364
1.02406
0.997282
0.972806
0.95017
0.928985
0.908948
0.889829
0.871457
0.853705
0.836478
0.819703
0.803325
0.7873
0.77159
0.756165
0.741
0.726072
0.711361
0.696851
0.682526
0.668371
0.654375
0.640525
0.626811
0.613225
0.599756
0.586397
0.57314
0.559978
0.546906
0.533917
0.521005
0.508167
0.495396
0.482688
0.47004
0.457448
0.444907
0.432416
0.41997
0.407566
0.395203
0.382877
0.370587
0.358329
0.346102
0.333904
0.321733
0.309588
0.297466
0.285367
0.273288
0.26123
0.249189
0.237166
0.225159
0.213167
0.201189
0.189225
0.177273
0.165332
0.153403
0.141484
0.129575
0.117674
0.105783
0.0938986
0.0820222
0.0701527
0.0582897
0.0464329
0.0345819
0.0227362
0.0108956
-0.000940212
-0.0127716
-0.0245989
-0.0364222
-0.0482418
-0.0600581
-0.0718711
-0.0836811
-0.0954882
-0.107293
-0.119095
-0.130894
-0.142692
-0.154487
-0.166281
-0.178073
-0.189862
-0.20165
-0.213429
0.213429
1.28074
1.28074
1.24496
1.20288
1.16107
1.12161
1.08543
1.05275
1.02333
0.996703
0.972358
0.949825
0.928719
0.90874
0.889664
0.871324
0.853595
0.836386
0.819625
0.803259
0.787242
0.771539
0.75612
0.74096
0.726036
0.711329
0.696822
0.6825
0.668347
0.654353
0.640505
0.626794
0.613208
0.599741
0.586383
0.573127
0.559967
0.546895
0.533907
0.520996
0.508158
0.495388
0.482681
0.470034
0.457442
0.444902
0.43241
0.419965
0.407562
0.395199
0.382873
0.370583
0.358326
0.346099
0.333901
0.321731
0.309585
0.297464
0.285365
0.273286
0.261228
0.249187
0.237164
0.225157
0.213165
0.201188
0.189223
0.177271
0.165331
0.153402
0.141483
0.129574
0.117673
0.105782
0.0938978
0.0820214
0.070152
0.0582891
0.0464323
0.0345813
0.0227357
0.0108951
-0.00094069
-0.0127721
-0.0245993
-0.0364226
-0.0482422
-0.0600584
-0.0718714
-0.0836814
-0.0954885
-0.107293
-0.119095
-0.130895
-0.142692
-0.154488
-0.166281
-0.178073
-0.189863
-0.201651
-0.213435
0.213435
1.29512
1.29512
1.24746
1.20249
1.15994
1.12034
1.08425
1.05176
1.02254
0.996096
0.971902
0.949484
0.928464
0.908546
0.889514
0.871205
0.8535
0.836307
0.819559
0.803202
0.787193
0.771497
0.756083
0.740927
0.726007
0.711303
0.696799
0.682478
0.668328
0.654335
0.640489
0.626779
0.613195
0.599728
0.586371
0.573117
0.559957
0.546886
0.533899
0.520989
0.508151
0.495381
0.482675
0.470028
0.457436
0.444897
0.432406
0.41996
0.407558
0.395195
0.38287
0.37058
0.358323
0.346096
0.333899
0.321728
0.309583
0.297462
0.285363
0.273284
0.261226
0.249186
0.237163
0.225156
0.213164
0.201186
0.189222
0.17727
0.16533
0.153401
0.141482
0.129573
0.117673
0.105781
0.0938971
0.0820208
0.0701514
0.0582885
0.0464318
0.0345808
0.0227352
0.0108947
-0.000941104
-0.0127725
-0.0245996
-0.0364229
-0.0482425
-0.0600587
-0.0718717
-0.0836816
-0.0954888
-0.107293
-0.119095
-0.130895
-0.142692
-0.154488
-0.166281
-0.178073
-0.189863
-0.201652
-0.213438
0.213438
1.31577
1.31577
1.24926
1.20218
1.15923
1.11957
1.08355
1.05116
1.02206
0.995726
0.971616
0.949263
0.928291
0.908409
0.889403
0.871113
0.853422
0.836241
0.819502
0.803152
0.787148
0.771456
0.756047
0.740894
0.725977
0.711276
0.696774
0.682455
0.668307
0.654316
0.640472
0.626763
0.61318
0.599714
0.586358
0.573105
0.559946
0.546876
0.533889
0.52098
0.508143
0.495373
0.482668
0.470021
0.45743
0.444891
0.4324
0.419955
0.407553
0.395191
0.382866
0.370576
0.358319
0.346093
0.333895
0.321725
0.30958
0.297459
0.28536
0.273282
0.261224
0.249184
0.237161
0.225154
0.213162
0.201185
0.189221
0.177269
0.165329
0.1534
0.141481
0.129572
0.117672
0.10578
0.0938963
0.0820199
0.0701506
0.0582878
0.0464311
0.0345802
0.0227346
0.0108941
-0.00094162
-0.0127729
-0.0246001
-0.0364233
-0.0482429
-0.0600591
-0.071872
-0.083682
-0.0954891
-0.107294
-0.119096
-0.130895
-0.142693
-0.154488
-0.166282
-0.178073
-0.189863
-0.201652
-0.213439
0.213439
1.31577
1.31577
1.24926
1.20218
1.15923
1.11957
1.08355
1.05116
1.02206
0.995726
0.971616
0.949263
0.928291
0.908409
0.889403
0.871113
0.853422
0.836241
0.819502
0.803152
0.787148
0.771456
0.756047
0.740894
0.725977
0.711276
0.696774
0.682455
0.668307
0.654316
0.640472
0.626763
0.61318
0.599714
0.586358
0.573105
0.559946
0.546876
0.533889
0.52098
0.508143
0.495373
0.482668
0.470021
0.45743
0.444891
0.4324
0.419955
0.407553
0.395191
0.382866
0.370576
0.358319
0.346093
0.333895
0.321725
0.30958
0.297459
0.28536
0.273282
0.261224
0.249184
0.237161
0.225154
0.213162
0.201185
0.189221
0.177269
0.165329
0.1534
0.141481
0.129572
0.117672
0.10578
0.0938963
0.0820199
0.0701506
0.0582878
0.0464311
0.0345802
0.0227346
0.0108941
-0.00094162
-0.0127729
-0.0246001
-0.0364233
-0.0482429
-0.0600591
-0.071872
-0.083682
-0.0954891
-0.107294
-0.119096
-0.130895
-0.142693
-0.154488
-0.166282
-0.178073
-0.189863
-0.201652
-0.213439
0.213439
SCALARS phi double
LOOKUP_TABLE phi
1
1
1
0.999995
0.999977
0.999931
0.999833
0.999655
0.999364
0.998929
0.998323
0.997523
0.996512
0.995279
0.993815
0.992118
0.990189
0.988032
0.985652
0.983059
0.980261
0.97727
0.974097
0.970755
0.967257
0.963614
0.95984
0.955947
0.951946
0.94785
0.943668
0.939412
0.935091
0.930714
0.926289
0.921822
0.917318
0.912777
0.908197
0.903571
0.89889
0.894137
0.889296
0.884342
0.879252
0.873999
0.868553
0.862888
0.856975
0.850787
0.844302
0.837496
0.830353
0.822857
0.814997
0.806766
0.798161
0.789181
0.779832
0.77012
0.760055
0.74965
0.738921
0.727886
0.716563
0.704973
0.693138
0.681081
0.668823
0.65639
0.643803
0.631086
0.618262
0.605353
0.59238
0.579365
0.566327
0.553286
0.54026
0.527266
0.51432
0.501437
0.488631
0.475915
0.463302
0.450802
0.438426
0.426182
0.414079
0.402124
0.390323
0.378683
0.367209
0.355904
0.344771
0.333822
0.323028
0.312497
0.30187
0.292394
0.279669
0.279669
1
1
1
0.999995
0.999977
0.999931
0.999833
0.999655
0.999364
0.998929
0.998323
0.997523
0.996512
0.995279
0.993815
0.992118
0.990189
0.988032
0.985652
0.983059
0.980261
0.97727
0.974097
0.970755
0.967257
0.963614
0.95984
0.955947
0.951946
0.94785
0.943668
0.939412
0.935091
0.930714
0.926289
0.921822
0.917318
0.912777
0.908197
0.903571
0.89889
0.894137
0.889296
0.884342
0.879252
0.873999
0.868553
0.862888
0.856975
0.850787
0.844302
0.837496
0.830353
0.822857
0.814997
0.806766
0.798161
0.789181
0.779832
0.77012
0.760055
0.74965
0.738921
0.727886
0.716563
0.704973
0.693138
0.681081
0.668823
0.65639
0.643803
0.631086
0.618262
0.605353
0.59238
0.579365
0.566327
0.553286
0.54026
0.527266
0.51432
0.501437
0.488631
0.475915
0.463302
0.450802
0.438426
0.426182
0.414079
0.402124
0.390323
0.378683
0.367209
0.355904
0.344771
0.333822
0.323028
0.312497
0.30187
0.292394
0.279669
0.279669
0.999998
1
0.999984
0.999921
0.999783
0.999536
0.999146
0.99858
0.997812
0.996819
0.99559
0.994116
0.992398
0.990437
0.98824
0.985817
0.983177
0.980333
0.977297
0.974081
0.9707
0.967166
0.963491
0.95969
0.955773
0.951752
0.947639
0.943445
0.939179
0.93485
0.930469
0.926042
0.921579
0.917087
0.912571
0.908038
0.903493
0.89894
0.89438
0.889814
0.88524
0.880654
0.876047
0.871411
0.866732
0.861995
0.857183
0.852276
0.847254
0.842095
0.836778
0.831282
0.825587
0.819672
0.81352
0.807116
0.800447
0.793501
0.786271
0.77875
0.770936
0.762828
0.754428
0.745741
0.736773
0.727532
0.71803
0.708277
0.698287
0.688074
0.677653
0.66704
0.656253
0.645307
0.634219
0.623008
0.611689
0.600279
0.588796
0.577255
0.565671
0.55406
0.542437
0.530815
0.519207
0.507626
0.496084
0.484591
0.473158
0.461795
0.450511
0.439314
0.428211
0.41721
0.406314
0.395542
0.384855
0.374399
0.363715
0.354341
0.341177
0.341177
1.00001
0.999992
0.99954
0.998615
0.997207
0.995317
0.992955
0.990145
0.986922
0.983332
0.979422
0.975241
0.970836
0.966248
0.961513
0.956664
0.951728
0.946728
0.941682
0.936608
0.931519
0.926427
0.921341
0.916268
0.911216
0.906189
0.901194
0.896232
0.891307
0.886422
0.881579
0.87678
0.872025
0.867316
0.862654
0.85804
0.853473
0.848954
0.844484
0.84006
0.835682
0.831348
0.827054
0.822798
0.818573
0.814372
0.810189
0.806014
0.801836
0.797644
0.793425
0.789166
0.784851
0.780467
0.775998
0.77143
0.766749
0.76194
0.756991
0.751888
0.746622
0.741183
0.735561
0.72975
0.723744
0.71754
0.711134
0.704526
0.697715
0.690703
0.683493
0.67609
0.668497
0.660721
0.65277
0.644649
0.636369
0.627937
0.619364
0.610658
0.601829
0.592888
0.583845
0.57471
0.565493
0.556204
0.546854
0.537452
0.528007
0.518528
0.509025
0.499507
0.48998
0.480454
0.470932
0.461437
0.451926
0.442559
0.432853
0.42438
0.41213
0.41213
1.00143
0.99857
0.991252
0.98188
0.971566
0.96086
0.950051
0.939311
0.928756
0.918468
0.908503
0.898898
0.889671
0.880827
0.87236
0.864261
0.856513
0.849098
0.841997
0.835192
0.828664
0.822396
0.816369
0.810568
0.80498
0.799588
0.794382
0.789348
0.784477
0.779758
0.775181
0.770738
0.766422
0.762224
0.758139
0.754159
0.75028
0.746495
0.7428
0.73919
0.735661
0.732209
0.728828
0.725516
0.722268
0.719079
0.715945
0.71286
0.709819
0.706816
0.703845
0.700897
0.697967
0.695046
0.692124
0.689194
0.686245
0.683269
0.680256
0.677196
0.674079
0.670895
0.667636
0.664293
0.660856
0.657319
0.653672
0.649911
0.646028
0.642017
0.637876
0.633598
0.629182
0.624624
0.619924
0.61508
0.610091
0.604959
0.599684
0.594268
0.588713
0.583021
0.577197
0.571242
0.565162
0.55896
0.552641
0.546209
0.539669
0.533026
0.526286
0.519453
0.512532
0.50553
0.498448
0.491304
0.48406
0.476857
0.469273
0.462648
0.452813
0.452813
1.0456
0.954401
0.887723
0.838673
0.801641
0.772861
0.749886
0.731119
0.715499
0.702298
0.691001
0.681228
0.672693
0.665173
0.658493
0.652515
0.647126
0.642236
0.637772
0.633673
0.629891
0.626382
0.623115
0.620059
0.61719
0.614489
0.611936
0.609518
0.607221
0.605034
0.602947
0.60095
0.599038
0.597202
0.595437
0.593737
0.592097
0.590514
0.588983
0.587501
0.586064
0.584669
0.583315
0.581997
0.580715
0.579465
0.578245
0.577053
0.575886
0.574743
0.57362
0.572515
0.571424
0.570345
0.569274
0.568207
0.567141
0.56607
0.564991
0.563897
0.562785
0.561649
0.560484
0.559283
0.558041
0.556752
0.555411
0.554011
0.552546
0.551012
0.549403
0.547712
0.545936
0.544068
0.542106
0.540043
0.537876
0.535602
0.533217
0.530718
0.528102
0.525366
0.52251
0.51953
0.516426
0.513196
0.509841
0.506358
0.502748
0.499011
0.495147
0.491158
0.487042
0.482802
0.478437
0.473957
0.469331
0.464664
0.45964
0.455233
0.448466
0.448466
-0.0455989
0.0455989
0.112277
0.161326
0.198359
0.227139
0.250114
0.268881
0.284501
0.297702
0.308999
0.318772
0.327307
0.334827
0.341507
0.347485
0.352874
0.357764
0.362228
0.366327
0.370109
0.373618
0.376885
0.379941
0.38281
0.385511
0.388064
0.390482
0.392779
0.394966
0.397053
0.399049
0.400962
0.402798
0.404563
0.406263
0.407903
0.409486
0.411017
0.412499
0.413936
0.41533
0.416685
0.418001
0.419282
0.42053
0.421746
0.422931
0.424088
0.425217
0.42632
0.427397
0.428449
0.429476
0.430478
0.431456
0.432409
0.433336
0.434237
0.43511
0.435955
0.436769
0.437551
0.438298
0.439009
0.43968
0.440308
0.440891
0.441424
0.441905
0.442329
0.442693
0.442993
0.443223
0.443381
0.443462
0.443461
0.443374
0.443196
0.442923
0.442551
0.442075
0.441491
0.440795
0.439983
0.439051
0.437996
0.436813