# vtk DataFile Version 3.0
FlowField
ASCII
DATASET STRUCTURED_GRID
DIMENSIONS 22 17 12 
POINTS 4488 double
0 0 0
0.1 0 0
0.2 0 0
0.3 0 0
0.4 0 0
0.5 0 0
0.6 0 0
0.7 0 0
0.8 0 0
0.9 0 0
1 0 0
1.1 0 0
1.2 0 0
1.3 0 0
1.4 0 0
1.5 0 0
1.6 0 0
1.7 0 0
1.8 0 0
1.9 0 0
2 0 0
2.1 0 0
0 0.1 0
0.1 0.1 0
0.2 0.1 0
0.3 0.1 0
0.4 0.1 0
0.5 0.1 0
0.6 0.1 0
0.7 0.1 0
0.8 0.1 0
0.9 0.1 0
1 0.1 0
1.1 0.1 0
1.2 0.1 0
1.3 0.1 0
1.4 0.1 0
1.5 0.1 0
1.6 0.1 0
1.7 0.1 0
1.8 0.1 0
1.9 0.1 0
2 0.1 0
2.1 0.1 0
0 0.2 0
0.1 0.2 0
0.2 0.2 0
0.3 0.2 0
0.4 0.2 0
0.5 0.2 0
0.6 0.2 0
0.7 0.2 0
0.8 0.2 0
0.9 0.2 0
1 0.2 0
1.1 0.2 0
1.2 0.2 0
1.3 0.2 0
1.4 0.2 0
1.5 0.2 0
1.6 0.2 0
1.7 0.2 0
1.8 0.2 0
1.9 0.2 0
2 0.2 0
2.1 0.2 0
0 0.3 0
0.1 0.3 0
0.2 0.3 0
0.3 0.3 0
0.4 0.3 0
0.5 0.3 0
0.6 0.3 0
0.7 0.3 0
0.8 0.3 0
0.9 0.3 0
1 0.3 0
1.1 0.3 0
1.2 0.3 0
1.3 0.3 0
1.4 0.3 0
1.5 0.3 0
1.6 0.3 0
1.7 0.3 0
1.8 0.3 0
1.9 0.3 0
2 0.3 0
2.1 0.3 0
0 0.4 0
0.1 0.4 0
0.2 0.4 0
0.3 0.4 0
0.4 0.4 0
0.5 0.4 0
0.6 0.4 0
0.7 0.4 0
0.8 0.4 0
0.9 0.4 0
1 0.4 0
1.1 0.4 0
1.2 0.4 0
1.3 0.4 0
1.4 0.4 0
1.5 0.4 0
1.6 0.4 0
1.7 0.4 0
1.8 0.4 0
1.9 0.4 0
2 0.4 0
2.1 0.4 0
0 0.5 0
0.1 0.5 0
0.2 0.5 0
0.3 0.5 0
0.4 0.5 0
0.5 0.5 0
0.6 0.5 0
0.7 0.5 0
0.8 0.5 0
0.9 0.5 0
1 0.5 0
1.1 0.5 0
1.2 0.5 0
1.3 0.5 0
1.4 0.5 0
1.5 0.5 0
1.6 0.5 0
1.7 0.5 0
1.8 0.5 0
1.9 0.5 0
2 0.5 0
2.1 0.5 0
0 0.6 0
0.1 0.6 0
0.2 0.6 0
0.3 0.6 0
0.4 0.6 0
0.5 0.6 0
0.6 0.6 0
0.7 0.6 0
0.8 0.6 0
0.9 0.6 0
1 0.6 0
1.1 0.6 0
1.2 0.6 0
1.3 0.6 0
1.4 0.6 0
1.5 0.6 0
1.6 0.6 0
1.7 0.6 0
1.8 0.6 0
1.9 0.6 0
2 0.6 0
2.1 0.6 0
0 0.7 0
0.1 0.7 0
0.2 0.7 0
0.3 0.7 0
0.4 0.7 0
0.5 0.7 0
0.6 0.7 0
0.7 0.7 0
0.8 0.7 0
0.9 0.7 0
1 0.7 0
1.1 0.7 0
1.2 0.7 0
1.3 0.7 0
1.4 0.7 0
1.5 0.7 0
1.6 0.7 0
1.7 0.7 0
1.8 0.7 0
1.9 0.7 0
2 0.7 0
2.1 0.7 0
0 0.8 0
0.1 0.8 0
0.2 0.8 0
0.3 0.8 0
0.4 0.8 0
0.5 0.8 0
0.6 0.8 0
0.7 0.8 0
0.8 0.8 0
0.9 0.8 0
1 0.8 0
1.1 0.8 0
1.2 0.8 0
1.3 0.8 0
1.4 0.8 0
1.5 0.8 0
1.6 0.8 0
1.7 0.8 0
1.8 0.8 0
1.9 0.8 0
2 0.8 0
2.1 0.8 0
0 0.9 0
0.1 0.9 0
0.2 0.9 0
0.3 0.9 0
0.4 0.9 0
0.5 0.9 0
0.6 0.9 0
0.7 0.9 0
0.8 0.9 0
0.9 0.9 0
1 0.9 0
1.1 0.9 0
1.2 0.9 0
1.3 0.9 0
1.4 0.9 0
1.5 0.9 0
1.6 0.9 0
1.7 0.9 0
1.8 0.9 0
1.9 0.9 0
2 0.9 0
2.1 0.9 0
0 1 0
0.1 1 0
0.2 1 0
0.3 1 0
0.4 1 0
0.5 1 0
0.6 1 0
0.7 1 0
0.8 1 0
0.9 1 0
1 1 0
1.1 1 0
1.2 1 0
1.3 1 0
1.4 1 0
1.5 1 0
1.6 1 0
1.7 1 0
1.8 1 0
1.9 1 0
2 1 0
2.1 1 0
0 1.1 0
0.1 1.1 0
0.2 1.1 0
0.3 1.1 0
0.4 1.1 0
0.5 1.1 0
0.6 1.1 0
0.7 1.1 0
0.8 1.1 0
0.9 1.1 0
1 1.1 0
1.1 1.1 0
1.2 1.1 0
1.3 1.1 0
1.4 1.1 0
1.5 1.1 0
1.6 1.1 0
1.7 1.1 0
1.8 1.1 0
1.9 1.1 0
2 1.1 0
2.1 1.1 0
0 1.2 0
0.1 1.2 0
0.2 1.2 0
0.3 1.2 0
0.4 1.2 0
0.5 1.2 0
0.6 1.2 0
0.7 1.2 0
0.8 1.2 0
0.9 1.2 0
1 1.2 0
1.1 1.2 0
1.2 1.2 0
1.3 1.2 0
1.4 1.2 0
1.5 1.2 0
1.6 1.2 0
1.7 1.2 0
1.8 1.2 0
1.9 1.2 0
2 1.2 0
2.1 1.2 0
0 1.3 0
0.1 1.3 0
0.2 1.3 0
0.3 1.3 0
0.4 1.3 0
0.5 1.3 0
0.6 1.3 0
0.7 1.3 0
0.8 1.3 0
0.9 1.3 0
1 1.3 0
1.1 1.3 0
1.2 1.3 0
1.3 1.3 0
1.4 1.3 0
1.5 1.3 0
1.6 1.3 0
1.7 1.3 0
1.8 1.3 0
1.9 1.3 0
2 1.3 0
2.1 1.3 0
0 1.4 0
0.1 1.4 0
0.2 1.4 0
0.3 1.4 0
0.4 1.4 0
0.5 1.4 0
0.6 1.4 0
0.7 1.4 0
0.8 1.4 0
0.9 1.4 0
1 1.4 0
1.1 1.4 0
1.2 1.4 0
1.3 1.4 0
1.4 1.4 0
1.5 1.4 0
1.6 1.4 0
1.7 1.4 0
1.8 1.4 0
1.9 1.4 0
2 1.4 0
2.1 1.4 0
0 1.5 0
0.1 1.5 0
0.2 1.5 0
0.3 1.5 0
0.4 1.5 0
0.5 1.5 0
0.6 1.5 0
0.7 1.5 0
0.8 1.5 0
0.9 1.5 0
1 1.5 0
1.1 1.5 0
1.2 1.5 0
1.3 1.5 0
1.4 1.5 0
1.5 1.5 0
1.6 1.5 0
1.7 1.5 0
1.8 1.5 0
1.9 1.5 0
2 1.5 0
2.1 1.5 0
0 1.6 0
0.1 1.6 0
0.2 1.6 0
0.3 1.6 0
0.4 1.6 0
0.5 1.6 0
0.6 1.6 0
0.7 1.6 0
0.8 1.6 0
0.9 1.6 0
1 1.6 0
1.1 1.6 0
1.2 1.6 0
1.3 1.6 0
1.4 1.6 0
1.5 1.6 0
1.6 1.6 0
1.7 1.6 0
1.8 1.6 0
1.9 1.6 0
2 1.6 0
2.1 1.6 0
0 0 0.1
0.1 0 0.1
0.2 0 0.1
0.3 0 0.1
0.4 0 0.1
0.5 0 0.1
0.6 0 0.1
0.7 0 0.1
0.8 0 0.1
0.9 0 0.1
1 0 0.1
1.1 0 0.1
1.2 0 0.1
1.3 0 0.1
1.4 0 0.1
1.5 0 0.1
1.6 0 0.1
1.7 0 0.1
1.8 0 0.1
1.9 0 0.1
2 0 0.1
2.1 0 0.1
0 0.1 0.1
0.1 0.1 0.1
0.2 0.1 0.1
0.3 0.1 0.1
0.4 0.1 0.1
0.5 0.1 0.1
0.6 0.1 0.1
0.7 0.1 0.1
0.8 0.1 0.1
0.9 0.1 0.1
1 0.1 0.1
1.1 0.1 0.1
1.2 0.1 0.1
1.3 0.1 0.1
1.4 0.1 0.1
1.5 0.1 0.1
1.6 0.1 0.1
1.7 0.1 0.1
1.8 0.1 0.1
1.9 0.1 0.1
2 0.1 0.1
2.1 0.1 0.1
0 0.2 0.1
0.1 0.2 0.1
0.2 0.2 0.1
0.3 0.2 0.1
0.4 0.2 0.1
0.5 0.2 0.1
0.6 0.2 0.1
0.7 0.2 0.1
0.8 0.2 0.1
0.9 0.2 0.1
1 0.2 0.1
1.1 0.2 0.1
1.2 0.2 0.1
1.3 0.2 0.1
1.4 0.2 0.1
1.5 0.2 0.1
1.6 0.2 0.1
1.7 0.2 0.1
1.8 0.2 0.1
1.9 0.2 0.1
2 0.2 0.1
2.1 0.2 0.1
0 0.3 0.1
0.1 0.3 0.1
0.2 0.3 0.1
0.3 0.3 0.1
0.4 0.3 0.1
0.5 0.3 0.1
0.6 0.3 0.1
0.7 0.3 0.1
0.8 0.3 0.1
0.9 0.3 0.1
1 0.3 0.1
1.1 0.3 0.1
1.2 0.3 0.1
1.3 0.3 0.1
1.4 0.3 0.1
1.5 0.3 0.1
1.6 0.3 0.1
1.7 0.3 0.1
1.8 0.3 0.1
1.9 0.3 0.1
2 0.3 0.1
2.1 0.3 0.1
0 0.4 0.1
0.1 0.4 0.1
0.2 0.4 0.1
0.3 0.4 0.1
0.4 0.4 0.1
0.5 0.4 0.1
0.6 0.4 0.1
0.7 0.4 0.1
0.8 0.4 0.1
0.9 0.4 0.1
1 0.4 0.1
1.1 0.4 0.1
1.2 0.4 0.1
1.3 0.4 0.1
1.4 0.4 0.1
1.5 0.4 0.1
1.6 0.4 0.1
1.7 0.4 0.1
1.8 0.4 0.1
1.9 0.4 0.1
2 0.4 0.1
2.1 0.4 0.1
0 0.5 0.1
0.1 0.5 0.1
0.2 0.5 0.1
0.3 0.5 0.1
0.4 0.5 0.1
0.5 0.5 0.1
0.6 0.5 0.1
0.7 0.5 0.1
0.8 0.5 0.1
0.9 0.5 0.1
1 0.5 0.1
1.1 0.5 0.1
1.2 0.5 0.1
1.3 0.5 0.1
1.4 0.5 0.1
1.5 0.5 0.1
1.6 0.5 0.1
1.7 0.5 0.1
1.8 0.5 0.1
1.9 0.5 0.1
2 0.5 0.1
2.1 0.5 0.1
0 0.6 0.1
0.1 0.6 0.1
0.2 0.6 0.1
0.3 0.6 0.1
0.4 0.6 0.1
0.5 0.6 0.1
0.6 0.6 0.1
0.7 0.6 0.1
0.8 0.6 0.1
0.9 0.6 0.1
1 0.6 0.1
1.1 0.6 0.1
1.2 0.6 0.1
1.3 0.6 0.1
1.4 0.6 0.1
1.5 0.6 0.1
1.6 0.6 0.1
1.7 0.6 0.1
1.8 0.6 0.1
1.9 0.6 0.1
2 0.6 0.1
2.1 0.6 0.1
0 0.7 0.1
0.1 0.7 0.1
0.2 0.7 0.1
0.3 0.7 0.1
0.4 0.7 0.1
0.5 0.7 0.1
0.6 0.7 0.1
0.7 0.7 0.1
0.8 0.7 0.1
0.9 0.7 0.1
1 0.7 0.1
1.1 0.7 0.1
1.2 0.7 0.1
1.3 0.7 0.1
1.4 0.7 0.1
1.5 0.7 0.1
1.6 0.7 0.1
1.7 0.7 0.1
1.8 0.7 0.1
1.9 0.7 0.1
2 0.7 0.1
2.1 0.7 0.1
0 0.8 0.1
0.1 0.8 0.1
0.2 0.8 0.1
0.3 0.8 0.1
0.4 0.8 0.1
0.5 0.8 0.1
0.6 0.8 0.1
0.7 0.8 0.1
0.8 0.8 0.1
0.9 0.8 0.1
1 0.8 0.1
1.1 0.8 0.1
1.2 0.8 0.1
1.3 0.8 0.1
1.4 0.8 0.1
1.5 0.8 0.1
1.6 0.8 0.1
1.7 0.8 0.1
1.8 0.8 0.1
1.9 0.8 0.1
2 0.8 0.1
2.1 0.8 0.1
0 0.9 0.1
0.1 0.9 0.1
0.2 0.9 0.1
0.3 0.9 0.1
0.4 0.9 0.1
0.5 0.9 0.1
0.6 0.9 0.1
0.7 0.9 0.1
0.8 0.9 0.1
0.9 0.9 0.1
1 0.9 0.1
1.1 0.9 0.1
1.2 0.9 0.1
1.3 0.9 0.1
1.4 0.9 0.1
1.5 0.9 0.1
1.6 0.9 0.1
1.7 0.9 0.1
1.8 0.9 0.1
1.9 0.9 0.1
2 0.9 0.1
2.1 0.9 0.1
0 1 0.1
0.1 1 0.1
0.2 1 0.1
0.3 1 0.1
0.4 1 0.1
0.5 1 0.1
0.6 1 0.1
0.7 1 0.1
0.8 1 0.1
0.9 1 0.1
1 1 0.1
1.1 1 0.1
1.2 1 0.1
1.3 1 0.1
1.4 1 0.1
1.5 1 0.1
1.6 1 0.1
1.7 1 0.1
1.8 1 0.1
1.9 1 0.1
2 1 0.1
2.1 1 0.1
0 1.1 0.1
0.1 1.1 0.1
0.2 1.1 0.1
0.3 1.1 0.1
0.4 1.1 0.1
0.5 1.1 0.1
0.6 1.1 0.1
0.7 1.1 0.1
0.8 1.1 0.1
0.9 1.1 0.1
1 1.1 0.1
1.1 1.1 0.1
1.2 1.1 0.1
1.3 1.1 0.1
1.4 1.1 0.1
1.5 1.1 0.1
1.6 1.1 0.1
1.7 1.1 0.1
1.8 1.1 0.1
1.9 1.1 0.1
2 1.1 0.1
2.1 1.1 0.1
0 1.2 0.1
0.1 1.2 0.1
0.2 1.2 0.1
0.3 1.2 0.1
0.4 1.2 0.1
0.5 1.2 0.1
0.6 1.2 0.1
0.7 1.2 0.1
0.8 1.2 0.1
0.9 1.2 0.1
1 1.2 0.1
1.1 1.2 0.1
1.2 1.2 0.1
1.3 1.2 0.1
1.4 1.2 0.1
1.5 1.2 0.1
1.6 1.2 0.1
1.7 1.2 0.1
1.8 1.2 0.1
1.9 1.2 0.1
2 1.2 0.1
2.1 1.2 0.1
0 1.3 0.1
0.1 1.3 0.1
0.2 1.3 0.1
0.3 1.3 0.1
0.4 1.3 0.1
0.5 1.3 0.1
0.6 1.3 0.1
0.7 1.3 0.1
0.8 1.3 0.1
0.9 1.3 0.1
1 1.3 0.1
1.1 1.3 0.1
1.2 1.3 0.1
1.3 1.3 0.1
1.4 1.3 0.1
1.5 1.3 0.1
1.6 1.3 0.1
1.7 1.3 0.1
1.8 1.3 0.1
1.9 1.3 0.1
2 1.3 0.1
2.1 1.3 0.1
0 1.4 0.1
0.1 1.4 0.1
0.2 1.4 0.1
0.3 1.4 0.1
0.4 1.4 0.1
0.5 1.4 0.1
0.6 1.4 0.1
0.7 1.4 0.1
0.8 1.4 0.1
0.9 1.4 0.1
1 1.4 0.1
1.1 1.4 0.1
1.2 1.4 0.1
1.3 1.4 0.1
1.4 1.4 0.1
1.5 1.4 0.1
1.6 1.4 0.1
1.7 1.4 0.1
1.8 1.4 0.1
1.9 1.4 0.1
2 1.4 0.1
2.1 1.4 0.1
0 1.5 0.1
0.1 1.5 0.1
0.2 1.5 0.1
0.3 1.5 0.1
0.4 1.5 0.1
0.5 1.5 0.1
0.6 1.5 0.1
0.7 1.5 0.1
0.8 1.5 0.1
0.9 1.5 0.1
1 1.5 0.1
1.1 1.5 0.1
1.2 1.5 0.1
1.3 1.5 0.1
1.4 1.5 0.1
1.5 1.5 0.1
1.6 1.5 0.1
1.7 1.5 0.1
1.8 1.5 0.1
1.9 1.5 0.1
2 1.5 0.1
2.1 1.5 0.1
0 1.6 0.1
0.1 1.6 0.1
0.2 1.6 0.1
0.3 1.6 0.1
0.4 1.6 0.1
0.5 1.6 0.1
0.6 1.6 0.1
0.7 1.6 0.1
0.8 1.6 0.1
0.9 1.6 0.1
1 1.6 0.1
1.1 1.6 0.1
1.2 1.6 0.1
1.3 1.6 0.1
1.4 1.6 0.1
1.5 1.6 0.1
1.6 1.6 0.1
1.7 1.6 0.1
1.8 1.6 0.1
1.9 1.6 0.1
2 1.6 0.1
2.1 1.6 0.1
0 0 0.2
0.1 0 0.2
0.2 0 0.2
0.3 0 0.2
0.4 0 0.2
0.5 0 0.2
0.6 0 0.2
0.7 0 0.2
0.8 0 0.2
0.9 0 0.2
1 0 0.2
1.1 0 0.2
1.2 0 0.2
1.3 0 0.2
1.4 0 0.2
1.5 0 0.2
1.6 0 0.2
1.7 0 0.2
1.8 0 0.2
1.9 0 0.2
2 0 0.2
2.1 0 0.2
0 0.1 0.2
0.1 0.1 0.2
0.2 0.1 0.2
0.3 0.1 0.2
0.4 0.1 0.2
0.5 0.1 0.2
0.6 0.1 0.2
0.7 0.1 0.2
0.8 0.1 0.2
0.9 0.1 0.2
1 0.1 0.2
1.1 0.1 0.2
1.2 0.1 0.2
1.3 0.1 0.2
1.4 0.1 0.2
1.5 0.1 0.2
1.6 0.1 0.2
1.7 0.1 0.2
1.8 0.1 0.2
1.9 0.1 0.2
2 0.1 0.2
2.1 0.1 0.2
0 0.2 0.2
0.1 0.2 0.2
0.2 0.2 0.2
0.3 0.2 0.2
0.4 0.2 0.2
0.5 0.2 0.2
0.6 0.2 0.2
0.7 0.2 0.2
0.8 0.2 0.2
0.9 0.2 0.2
1 0.2 0.2
1.1 0.2 0.2
1.2 0.2 0.2
1.3 0.2 0.2
1.4 0.2 0.2
1.5 0.2 0.2
1.6 0.2 0.2
1.7 0.2 0.2
1.8 0.2 0.2
1.9 0.2 0.2
2 0.2 0.2
2.1 0.2 0.2
0 0.3 0.2
0.1 0.3 0.2
0.2 0.3 0.2
0.3 0.3 0.2
0.4 0.3 0.2
0.5 0.3 0.2
0.6 0.3 0.2
0.7 0.3 0.2
0.8 0.3 0.2
0.9 0.3 0.2
1 0.3 0.2
1.1 0.3 0.2
1.2 0.3 0.2
1.3 0.3 0.2
1.4 0.3 0.2
1.5 0.3 0.2
1.6 0.3 0.2
1.7 0.3 0.2
1.8 0.3 0.2
1.9 0.3 0.2
2 0.3 0.2
2.1 0.3 0.2
0 0.4 0.2
0.1 0.4 0.2
0.2 0.4 0.2
0.3 0.4 0.2
0.4 0.4 0.2
0.5 0.4 0.2
0.6 0.4 0.2
0.7 0.4 0.2
0.8 0.4 0.2
0.9 0.4 0.2
1 0.4 0.2
1.1 0.4 0.2
1.2 0.4 0.2
1.3 0.4 0.2
1.4 0.4 0.2
1.5 0.4 0.2
1.6 0.4 0.2
1.7 0.4 0.2
1.8 0.4 0.2
1.9 0.4 0.2
2 0.4 0.2
2.1 0.4 0.2
0 0.5 0.2
0.1 0.5 0.2
0.2 0.5 0.2
0.3 0.5 0.2
0.4 0.5 0.2
0.5 0.5 0.2
0.6 0.5 0.2
0.7 0.5 0.2
0.8 0.5 0.2
0.9 0.5 0.2
1 0.5 0.2
1.1 0.5 0.2
1.2 0.5 0.2
1.3 0.5 0.2
1.4 0.5 0.2
1.5 0.5 0.2
1.6 0.5 0.2
1.7 0.5 0.2
1.8 0.5 0.2
1.9 0.5 0.2
2 0.5 0.2
2.1 0.5 0.2
0 0.6 0.2
0.1 0.6 0.2
0.2 0.6 0.2
0.3 0.6 0.2
0.4 0.6 0.2
0.5 0.6 0.2
0.6 0.6 0.2
0.7 0.6 0.2
0.8 0.6 0.2
0.9 0.6 0.2
1 0.6 0.2
1.1 0.6 0.2
1.2 0.6 0.2
1.3 0.6 0.2
1.4 0.6 0.2
1.5 0.6 0.2
1.6 0.6 0.2
1.7 0.6 0.2
1.8 0.6 0.2
1.9 0.6 0.2
2 0.6 0.2
2.1 0.6 0.2
0 0.7 0.2
0.1 0.7 0.2
0.2 0.7 0.2
0.3 0.7 0.2
0.4 0.7 0.2
0.5 0.7 0.2
0.6 0.7 0.2
0.7 0.7 0.2
0.8 0.7 0.2
0.9 0.7 0.2
1 0.7 0.2
1.1 0.7 0.2
1.2 0.7 0.2
1.3 0.7 0.2
1.4 0.7 0.2
1.5 0.7 0.2
1.6 0.7 0.2
1.7 0.7 0.2
1.8 0.7 0.2
1.9 0.7 0.2
2 0.7 0.2
2.1 0.7 0.2
0 0.8 0.2
0.1 0.8 0.2
[...]
POINT_DATA 4488

SCALARS pressure double
LOOKUP_TABLE pressure
0
0
0
0
0
0
0
0
0
0
0
0
0
0
0
0
0
0
0
0
0
0
0
244.099
244.096
244.095
244.094
244.093
244.092
244.092
244.092
244.092
244.091
244.091
244.091
244.091
244.091
244.09
244.093
244.092
244.091
244.09
244.088
0
0
244.094
244.094
244.094
244.093
244.092
244.092
244.092
244.091
244.091
244.091
244.091
244.091
244.092
244.091
244.091
244.092
244.092
244.091
244.091
244.089
0
0
244.091
244.093
244.093
244.093
244.091
244.091
244.091
244.091
244.091
244.091
244.091
244.092
244.092
244.092
244.092
244.092
244.092
244.092
244.092
244.091
0
0
244.089
244.091
244.092
244.092
244.091
244.091
244.091
244.091
244.091
244.09
244.09
244.094
244.093
244.093
244.093
244.093
244.093
244.093
244.093
244.093
0
0
244.088
244.09
244.091
244.091
244.092
244.089
244.09
244.091
244.091
244.091
244.091
244.093
244.093
244.093
244.093
244.093
244.094
244.094
244.094
244.094
0
0
244.086
244.088
244.09
244.09
244.09
244.09
244.091
244.092
244.092
244.091
244.09
244.092
244.094
244.094
244.094
244.094
244.095
244.094
244.095
244.095
0
0
244.085
244.088
244.089
244.089
244.089
244.09
244.091
244.091
244.092
244.092
244.092
244.092
244.093
244.094
244.094
244.095
244.094
244.095
244.095
244.095
0
0
244.085
244.087
244.088
244.089
244.091
244.091
244.091
244.091
244.092
244.092
244.092
244.093
244.093
244.094
244.094
244.095
244.095
244.095
244.095
244.095
0
0
244.084
244.087
244.088
244.089
244.09
244.091
244.091
244.091
244.092
244.092
244.092
244.093
244.093
244.094
244.094
244.095
244.095
244.095
244.095
244.096
0
0
244.082
244.087
244.088
244.089
244.09
244.09
244.091
244.091
244.092
244.092
244.092
244.093
244.093
244.094
244.094
244.094
244.095
244.095
244.096
244.096
0
0
244.083
244.086
244.088
244.089
244.09
244.09
244.091
244.091
244.092
244.092
244.092
244.093
244.093
244.094
244.094
244.094
244.095
244.095
244.096
244.096
0
0
244.084
244.086
244.087
244.089
244.089
244.09
244.091
244.091
244.092
244.092
244.092
244.093
244.093
244.094
244.095
244.094
244.095
244.095
244.096
244.096
0
0
244.084
244.086
244.087
244.089
244.089
244.09
244.091
244.091
244.092
244.092
244.092
244.093
244.093
244.095
244.095
244.094
244.095
244.095
244.096
244.096
0
0
244.085
244.087
244.088
244.089
244.089
244.09
244.09
244.091
244.091
244.092
244.092
244.093
244.093
244.094
244.094
244.095
244.095
244.095
244.096
244.096
0
0
244.086
244.087
244.088
244.089
244.089
244.09
244.09
244.091
244.091
244.092
244.092
244.093
244.093
244.094
244.094
244.095
244.095
244.095
244.096
244.095
0
0
0
0
0
0
0
0
0
0
0
0
0
0
0
0
0
0
0
0
0
0
0
0
244.099
244.096
244.095
244.094
244.093
244.092
244.092
244.092
244.092
244.091
244.091
244.091
244.091
244.091
244.09
244.093
244.092
244.091
244.09
244.088
0
244.099
244.099
244.096
244.095
244.094
244.093
244.092
244.092
244.092
244.092
244.091
244.091
244.091
244.091
244.091
244.09
244.093
244.092
244.091
244.09
244.088
244.088
244.094
244.094
244.094
244.094
244.093
244.092
244.092
244.092
244.091
244.091
244.091
244.091
244.091
244.092
244.091
244.091
244.092
244.092
244.091
244.091
244.089
244.089
244.091
244.091
244.093
244.093
244.093
244.091
244.091
244.091
244.091
244.091
244.091
244.091
244.092
244.092
244.092
244.092
244.092
244.092
244.092
244.092
244.091
244.091
244.089
244.089
244.091
244.092
244.092
244.091
244.091
244.091
244.091
244.091
244.09
244.09
244.094
244.093
244.093
244.093
244.093
244.093
244.093
244.093
244.093
244.093
244.088
244.088
244.09
244.091
244.091
244.092
244.089
244.09
244.091
244.091
244.091
244.091
244.093
244.093
244.093
244.093
244.093
244.094
244.094
244.094
244.094
244.094
244.086
244.086
244.088
244.09
244.09
244.09
244.09
244.091
244.092
244.092
244.091
244.09
244.092
244.094
244.094
244.094
244.094
244.095
244.094
244.095
244.095
244.095
244.085
244.085
244.088
244.089
244.089
244.089
244.09
244.091
244.091
244.092
244.092
244.092
244.092
244.093
244.094
244.094
244.095
244.094
244.095
244.095
244.095
244.095
244.085
244.085
244.087
244.088
244.089
244.091
244.091
244.091
244.091
244.092
244.092
244.092
244.093
244.093
244.094
244.094
244.095
244.095
244.095
244.095
244.095
244.095
244.084
244.084
244.087
244.088
244.089
244.09
244.091
244.091
244.091
244.092
244.092
244.092
244.093
244.093
244.094
244.094
244.095
244.095
244.095
244.095
244.096
244.096
244.082
244.082
244.087
244.088
244.089
244.09
244.09
244.091
244.091
244.092
244.092
244.092
244.093
244.093
244.094
244.094
244.094
244.095
244.095
244.096
244.096
244.096
244.083
244.083
244.086
244.088
244.089
244.09
244.09
244.091
244.091
244.092
244.092
244.092
244.093
244.093
244.094
244.094
244.094
244.095
244.095
244.096
244.096
244.096
244.084
244.084
244.086
244.087
244.089
244.089
244.09
244.091
244.091
244.092
244.092
244.092
244.093
244.093
244.094
244.095
244.094
244.095
244.095
244.096
244.096
244.096
244.084
244.084
244.086
244.087
244.089
244.089
244.09
244.091
244.091
244.092
244.092
244.092
244.093
244.093
244.095
244.095
244.094
244.095
244.095
244.096
244.096
244.096
244.085
244.085
244.087
244.088
244.089
244.089
244.09
244.09
244.091
244.091
244.092
244.092
244.093
244.093
244.094
244.094
244.095
244.095
244.095
244.096
244.096
244.096
244.086
244.086
244.087
244.088
244.089
244.089
244.09
244.09
244.091
244.091
244.092
244.092
244.093
244.093
244.094
244.094
244.095
244.095
244.095
244.096
244.095
244.095
0
244.086
244.087
244.088
244.089
244.089
244.09
244.09
244.091
244.091
244.092
244.092
244.093
244.093
244.094
244.094
244.095
244.095
244.095
244.096
244.095
0
0
244.104
244.101
244.098
244.095
244.088
244.085
244.086
244.089
244.09
244.091
244.092
244.092
244.092
244.092
244.092
244.092
244.091
244.09
244.089
244.087
0
244.104
244.104
244.101
244.098
244.095
244.088
244.085
244.086
244.089
244.09
244.091
244.092
244.092
244.092
244.092
244.092
244.092
244.091
244.09
244.089
244.087
244.087
244.098
244.098
244.098
244.097
244.095
244.09
244.086
244.086
244.088
244.09
244.091
244.092
244.092
244.092
244.092
244.092
244.092
244.091
244.091
244.09
244.089
244.089
244.095
244.095
244.096
244.096
244.095
244.091
244.088
244.087
244.088
244.089
244.09
244.091
244.092
244.092
244.092
244.092
244.092
244.092
244.092
244.091
244.091
244.091
244.093
244.093
244.094
244.095
244.094
244.092
244.089
244.088
244.088
244.088
244.089
244.09
244.092
244.092
244.092
244.093
244.093
244.093
244.092
244.092
244.092
244.092
244.091
244.091
244.093
244.093
244.093
244.093
244.09
244.089
244.088
244.089
244.089
244.09
244.091
244.092
244.092
244.093
244.093
244.093
244.093
244.093
244.093
244.093
244.089
244.089
244.091
244.092
244.093
244.092
244.092
244.091
244.09
244.089
244.089
244.09
244.091
244.092
244.092
244.093
244.093
244.093
244.094
244.094
244.094
244.094
244.088
244.088
244.09
244.091
244.092
244.092
244.092
244.092
244.091
244.09
244.09
244.09
244.091
244.091
244.092
244.093
244.093
244.093
244.094
244.094
244.094
244.094
244.087
244.087
244.089
244.09
244.091
244.092
244.092
244.092
244.092
244.091
244.091
244.091
244.091
244.092
244.092
244.093
244.093
244.094
244.094
244.094
244.094
244.094
244.086
244.086
244.088
244.09
244.091
244.092
244.092
244.092
244.092
244.092
244.092
244.092
244.092
244.092
244.092
244.093
244.093
244.093
244.094
244.094
244.094
244.094
244.086
244.086
244.088
244.089
244.09
244.091
244.092
244.092
244.092
244.092
244.093
244.093
244.093
244.093
244.093
244.093
244.093
244.094
244.094
244.094
244.095
244.095
244.086
244.086
244.088
244.089
244.09
244.091
244.091
244.092
244.092
244.092
244.093
244.093
244.093
244.093
244.094
244.094
244.094
244.094
244.094
244.095
244.095
244.095
244.086
244.086
244.087
244.089
244.09
244.09
244.091
244.091
244.092
244.092
244.093
244.093
244.093
244.093
244.094
244.094
244.094
244.094
244.095
244.095
244.095
244.095
244.086
244.086
244.088
244.089
244.089
244.09
244.091
244.091
244.092
244.092
244.092
244.093
244.093
244.093
244.094
244.094
244.094
244.094
244.095
244.095
244.095
244.095
244.086
244.086
244.088
244.089
244.089
244.09
244.09
244.091
244.091
244.092
244.092
244.093
244.093
244.093
244.094
244.094
244.094
244.094
244.095
244.095
244.095
244.095
244.088
244.088
244.088
244.089
244.089
244.09
244.09
244.091
244.091
244.092
244.092
244.092
244.093
244.093
244.093
244.094
244.094
244.094
244.095
244.095
244.095
244.095
0
244.088
244.088
244.089
244.089
244.09
244.09
244.091
244.091
244.092
244.092
244.092
244.093
244.093
244.093
244.094
244.094
244.094
244.095
244.095
244.095
0
0
244.109
244.105
244.103
244.097
244.077
244.071
244.078
244.086
244.09
244.092
244.093
244.093
244.093
244.092
244.092
244.091
244.091
244.09
244.089
244.087
0
244.109
244.109
244.105
244.103
244.097
244.077
244.071
244.078
244.086
244.09
244.092
244.093
244.093
244.093
244.092
244.092
244.091
244.091
244.09
244.089
244.087
244.087
244.103
244.103
244.103
244.102
244.098
244.087
244.075
244.077
244.084
244.088
244.091
244.092
244.093
244.093
244.092
244.092
244.092
244.091
244.09
244.089
244.088
244.088
244.099
244.099
244.1
244.1
244.098
244.092
244.082
244.079
244.082
244.086
244.089
244.091
244.092
244.092
244.092
244.092
244.092
244.092
244.091
244.091
244.09
244.09
244.096
244.096
244.098
244.098
244.098
244.094
244.087
244.082
244.082
244.085
244.088
244.09
244.091
244.092
244.092
244.092
244.092
244.092
244.092
244.092
244.091
244.091
244.094
244.094
244.096
244.097
244.097
244.096
244.091
244.086
244.084
244.084
244.086
244.088
244.09
244.091
244.092
244.092
244.092
244.093
244.093
244.093
244.092
244.092
244.092
244.092
244.094
244.095
244.096
244.096
244.094
244.09
244.087
244.086
244.086
244.087
244.089
244.09
244.091
244.092
244.092
244.093
244.093
244.093
244.093
244.093
244.091
244.091
244.092
244.094
244.095
244.095
244.095
244.093
244.091
244.089
244.087
244.087
244.088
244.089
244.09
244.091
244.092
244.092
244.093
244.093
244.093
244.093
244.09
244.09
244.091
244.092
244.093
244.094
244.094
244.094
244.093
244.091
244.09
244.089
244.089
244.089
244.09
244.091
244.092
244.092
244.093
244.093
244.093
244.093
244.089
244.089
244.09
244.091
244.092
244.093
244.094
244.094
244.094
244.093
244.092
244.091
244.091
244.091
244.091
244.091
244.091
244.092
244.092
244.093
244.093
244.093
244.088
244.088
244.09
244.091
244.092
244.092
244.093
244.093
244.093
244.093
244.093
244.093
244.093
244.092
244.092
244.092
244.092
244.092
244.093
244.093
244.093
244.093
244.087
244.087
244.089
244.09
244.091
244.092
244.092
244.093
244.093
244.093
244.093
244.093
244.093
244.093
244.093
244.093
244.093
244.093
244.093
244.093
244.093
244.093
244.087
244.087
244.089
244.09
244.091
244.091
244.092
244.092
244.093
244.093
244.093
244.093
244.093
244.094
244.094
244.094
244.094
244.094
244.094
244.094
244.094
244.094
244.087
244.087
244.089
244.09
244.09
244.091
244.091
244.092
244.092
244.092
244.093
244.093
244.093
244.093
244.094
244.094
244.094
244.094
244.094
244.094
244.094
244.094
244.088
244.088
244.089
244.09
244.09
244.091
244.091
244.091
244.092
244.092
244.092
244.093
244.093
244.093
244.094
244.094
244.094
244.094
244.094
244.095
244.094
244.094
244.089
244.089
244.089
244.09
244.09
244.09
244.091
244.091
244.091
244.092
244.092
244.092
244.093
244.093
244.093
244.093
244.094
244.094
244.094
244.094
244.094
244.094
0
244.089
244.089
244.09
244.09
244.09
244.091
244.091
244.091
244.092
244.092
244.092
244.093
244.093
244.093
244.093
244.094
244.094
244.094
244.094
244.094
0
0
244.113
244.111
244.113
244.108
244.04
244.04
244.069
244.086
244.092
244.094
244.095
244.094
244.094
244.093
244.092
244.091
244.09
244.089
244.088
244.086
0
244.113
244.113
244.111
244.113
244.108
244.04
244.04
244.069
244.086
244.092
244.094
244.095
244.094
244.094
244.093
244.092
244.091
244.09
244.089
244.088
244.086
244.086
244.107
244.107
244.108
244.109
244.108
244.088
244.049
244.062
244.08
244.089
244.093
244.094
244.094
244.094
244.093
244.092
244.092
244.091
244.09
244.089
244.087
244.087
244.102
244.102
244.104
244.105
244.106
244.099
244.068
244.064
244.075
244.085
244.09
244.093
244.093
244.093
244.093
244.093
244.092
244.091
244.091
244.09
244.089
244.089
244.099
244.099
244.101
244.102
244.104
244.101
244.082
244.069
244.072
244.08
244.086
244.09
244.092
244.093
244.093
244.093
244.092
244.092
244.092
244.092
244.091
244.091
244.096
244.096
244.098
244.1
244.103
244.102
244.092
244.08
244.074
244.077
244.082
244.086
244.089
244.091
244.092
244.092
244.092
244.092
244.092
244.092
244.092
244.092
244.094
244.094
244.096
244.098
244.1
244.101
244.098
244.091
244.082
244.079
244.08
244.083
244.086
244.089
244.09
244.091
244.092
244.092
244.093
244.093
244.093
244.093
244.093
244.093
244.094
244.096
244.098
244.099
244.099
244.096
244.091
244.086
244.083
244.083
244.084
244.086
244.088
244.09
244.091
244.092
244.092
244.093
244.093
244.093
244.091
244.091
244.093
244.094
244.096
244.097
244.097
244.097
244.095
244.093
244.089
244.087
244.086
244.086
244.087
244.088
244.09
244.091
244.092
244.092
244.092
244.092
244.09
244.09
244.092
244.093
244.094
244.095
244.096
244.096
244.096
244.095
244.094
244.092
244.09
244.088
244.088
244.088
244.089
244.09
244.091
244.092
244.091
244.091
244.089
244.089
244.091
244.092
244.093
244.094
244.094
244.095
244.095
244.095
244.095
244.094
244.093
244.092
244.091
244.091
244.09
244.09
244.091
244.092
244.091
244.091
244.089
244.089
244.09
244.091
244.092
244.093
244.093
244.094
244.094
244.094
244.094
244.094
244.094
244.094
244.093
244.093
244.092
244.092
244.092
244.092
244.092
244.092
244.088
244.088
244.09
244.091
244.091
244.092
244.093
244.093
244.093
244.094
244.094
244.094
244.094
244.094
244.094
244.094
244.094
244.093
244.093
244.093
244.093
244.093
244.088
244.088
244.09
244.091
244.091
244.092
244.092
244.092
244.093
244.093
244.093
244.093
244.094
244.094
244.094
244.094
244.094
244.094
244.094
244.094
244.094
244.094
244.089
244.089
244.09
244.09
244.091
244.091
244.092
244.092
244.092
244.092
244.093
244.093
244.093
244.093
244.093
244.094
244.094
244.094
244.094
244.094
244.094
244.094
244.09
244.09
244.09
244.09
244.091
244.091
244.091
244.091
244.092
244.092
244.092
244.092
244.093
244.093
244.093
244.093
244.093
244.094
244.094
244.094
244.093
244.093
0
244.09
244.09
244.09
244.091
244.091
244.091
244.091
244.092
244.092
244.092
244.092
244.093
244.093
244.093
244.093
244.093
244.094
244.094
244.094
244.093
0
0
244.116
244.116
244.127
244.159
244.071
243.993
244.063
244.09
244.096
244.097
244.096
244.095
244.094
244.093
244.092
244.091
244.09
244.089
244.087
244.086
0
244.116
244.116
244.116
244.127
244.159
244.071
243.993
244.063
244.09
244.096
244.097
244.096
244.095
244.094
244.093
244.092
244.091
244.09
244.089
244.087
244.086
244.086
244.109
244.109
244.111
244.118
244.138
244.1
244.02
244.05
244.08
244.092
244.096
244.096
244.095
244.094
244.093
244.092
244.091
244.09
244.089
244.088
244.087
244.087
244.104
244.104
244.107
244.11
244.119
244.116
244.048
244.046
244.068
244.085
244.092
244.094
244.095
244.094
244.093
244.093
244.092
244.091
244.09
244.09
244.09
244.09
244.101
244.101
244.103
244.106
244.112
244.124
244.075
244.054
244.061
244.075
244.086
244.091
244.093
244.093
244.093
244.093
244.092
244.092
244.091
244.091
244.091
244.091
244.098
244.098
244.1
244.103
244.11
244.125
244.098
244.071
244.063
244.069
244.078
244.085
244.089
244.091
244.092
244.092
244.092
244.092
244.092
244.092
244.092
244.092
244.096
244.096
244.098
244.1
244.105
244.115
244.111
244.092
244.076
244.071
244.073
244.079
244.084
244.088
244.09
244.091
244.092
244.092
244.092
244.093
244.093
244.093
244.094
244.094
244.096
244.098
244.101
244.105
244.11
244.105
244.093
244.082
244.077
244.077
244.08
244.084
244.087
244.089
244.09
244.091
244.092
244.093
244.093
244.093
244.093
244.093
244.094
244.096
244.098
244.1
244.103
244.105
244.102
244.096
244.088
244.083
244.082
244.082
244.084
244.086
244.088
244.09
244.091
244.092
244.092
244.092
244.091
244.091
244.093
244.094
244.095
244.097
244.099
244.101
244.102
244.1
244.097
244.093
244.089
244.086
244.085
244.085
244.086
244.088
244.089
244.09
244.091
244.091
244.09
244.09
244.092
244.093
244.094
244.095
244.096
244.097
244.098
244.099
244.099
244.098
244.095
244.093
244.091
244.089
244.088
244.088
244.089
244.09
244.089
244.089
244.09
244.09
244.091
244.092
244.093
244.094
244.094
244.095
244.096
244.096
244.097
244.097
244.097
244.097
244.095
244.093
244.092
244.092
244.091
244.091
244.089
244.089
244.09
244.09
244.091
244.092
244.092
244.093
244.093
244.094
244.094
244.095
244.095
244.095
244.096
244.096
244.095
244.095
244.096
244.095
244.093
244.091
244.092
244.092
244.089
244.089
244.091
244.091
244.092
244.092
244.093
244.093
244.093
244.093
244.094
244.094
244.094
244.094
244.095
244.095
244.095
244.094
244.094
244.094
244.095
244.095
244.09
244.09
244.091
244.091
244.092
244.092
244.092
244.092
244.092
244.093
244.093
244.093
244.093
244.093
244.094
244.094
244.094
244.094
244.094
244.094
244.094
244.094
244.091
244.091
244.091
244.091
244.091
244.091
244.092
244.092
244.092
244.092
244.092
244.092
244.092
244.093
244.093
244.093
244.093
244.093
244.093
244.093
244.092
244.092
0
244.091
244.091
244.091
244.091
244.091
244.092
244.092
244.092
244.092
244.092
244.092
244.092
244.093
244.093
244.093
244.093
244.093
244.093
244.093
244.092
0
0
244.116
244.114
244.115
244.112
244.056
244.042
244.069
244.085
244.091
244.094
244.094
244.093
244.093
244.092
244.091
244.09
244.089
244.088
244.086
244.084
0
244.116
244.116
244.114
244.115
244.112
244.056
244.042
244.069
244.085
244.091
244.094
244.094
244.093
244.093
244.092
244.091
244.09
244.089
244.088
244.086
244.084
244.084
244.109
244.109
244.11
244.111
244.109
244.08
244.051
244.063
244.08
244.089
244.093
244.094
244.094
244.093
244.092
244.091
244.09
244.089
244.088
244.087
244.086
244.086
244.104
244.104
244.106
244.107
244.106
244.096
244.068
244.064
244.075
244.084
244.09
244.092
244.093
244.093
244.092
244.092
244.091
244.09
244.089
244.089
244.088
244.088
244.101
244.101
244.103
244.104
244.105
244.103
244.082
244.071
244.073
244.08
244.086
244.089
244.091
244.092
244.092
244.092
244.091
244.091
244.09
244.09
244.09
244.09
244.099
244.099
244.1
244.102
244.104
244.105
244.093
244.08
244.075
244.077
244.082
244.086
244.089
244.09
244.091
244.091
244.091
244.091
244.091
244.091
244.091
244.091
244.097
244.097
244.098
244.1
244.102
244.104
244.099
244.09
244.083
244.079
244.08
244.083
244.086
244.088
244.09
244.09
244.091
244.091
244.091
244.091
244.091
244.091
244.095
244.095
244.097
244.098
244.1
244.101
244.101
244.097
244.091
244.086
244.083
244.083
244.084
244.086
244.088
244.089
244.09
244.091
244.091
244.091
244.091
244.091
244.093
244.093
244.095
244.096
244.097
244.099
244.099
244.099
244.096
244.092
244.089
244.086
244.085
244.086
244.087
244.088
244.089
244.09
244.09
244.091
244.091
244.091
244.092
244.092
244.094
244.095
244.096
244.097
244.097
244.098
244.097
244.096
244.094
244.091
244.089
244.088
244.088
244.088
244.088
244.089
244.09
244.09
244.09
244.09
244.091
244.091
244.093
244.094
244.095
244.095
244.096
244.096
244.096
244.096
244.096
244.094
244.093
244.092
244.091
244.09
244.089
244.089
244.09
244.09
244.09
244.09
244.091
244.091
244.092
244.093
244.094
244.094
244.095
244.095
244.095
244.095
244.095
244.095
244.095
244.094
244.093
244.092
244.092
244.091
244.091
244.091
244.09
244.09
244.09
244.09
244.092
244.092
244.093
244.093
244.094
244.094
244.094
244.094
244.094
244.094
244.094
244.094
244.094
244.094
244.093
244.093
244.092
244.092
244.092
244.092
244.09
244.09
244.092
244.092
244.093
244.093
244.093
244.093
244.093
244.094
244.094
244.094
244.094
244.094
244.094
244.094
244.094
244.093
244.093
244.093
244.093
244.093
244.091
244.091
244.092
244.092
244.092
244.092
244.092
244.093
244.093
244.093
244.093
244.093
244.093
244.093
244.093
244.093
244.093
244.093
244.093
244.093
244.092
244.092
244.092
244.092
244.092
244.092
244.092
244.092
244.092
244.092
244.092
244.092
244.092
244.092
244.092
244.092
244.092
244.092
244.093
244.093
244.093