# vtk DataFile Version 3.0
FlowField
ASCII
DATASET STRUCTURED_GRID
DIMENSIONS 102 12 1 
POINTS 1224 double
0 0 0
0.3 0 0
0.6 0 0
0.9 0 0
1.2 0 0
1.5 0 0
1.8 0 0
2.1 0 0
2.4 0 0
2.7 0 0
3 0 0
3.3 0 0
3.6 0 0
3.9 0 0
4.2 0 0
4.5 0 0
4.8 0 0
5.1 0 0
5.4 0 0
5.7 0 0
6 0 0
6.3 0 0
6.6 0 0
6.9 0 0
7.2 0 0
7.5 0 0
7.8 0 0
8.1 0 0
8.4 0 0
8.7 0 0
9 0 0
9.3 0 0
9.6 0 0
9.9 0 0
10.2 0 0
10.5 0 0
10.8 0 0
11.1 0 0
11.4 0 0
11.7 0 0
12 0 0
12.3 0 0
12.6 0 0
12.9 0 0
13.2 0 0
13.5 0 0
13.8 0 0
14.1 0 0
14.4 0 0
14.7 0 0
15 0 0
15.3 0 0
15.6 0 0
15.9 0 0
16.2 0 0
16.5 0 0
16.8 0 0
17.1 0 0
17.4 0 0
17.7 0 0
18 0 0
18.3 0 0
18.6 0 0
18.9 0 0
19.2 0 0
19.5 0 0
19.8 0 0
20.1 0 0
20.4 0 0
20.7 0 0
21 0 0
21.3 0 0
21.6 0 0
21.9 0 0
22.2 0 0
22.5 0 0
22.8 0 0
23.1 0 0
23.4 0 0
23.7 0 0
24 0 0
24.3 0 0
24.6 0 0
24.9 0 0
25.2 0 0
25.5 0 0
25.8 0 0
26.1 0 0
26.4 0 0
26.7 0 0
27 0 0
27.3 0 0
27.6 0 0
27.9 0 0
28.2 0 0
28.5 0 0
28.8 0 0
29.1 0 0
29.4 0 0
29.7 0 0
30 0 0
30.3 0 0
0 0.1 0
0.3 0.1 0
0.6 0.1 0
0.9 0.1 0
1.2 0.1 0
1.5 0.1 0
1.8 0.1 0
2.1 0.1 0
2.4 0.1 0
2.7 0.1 0
3 0.1 0
3.3 0.1 0
3.6 0.1 0
3.9 0.1 0
4.2 0.1 0
4.5 0.1 0
4.8 0.1 0
5.1 0.1 0
5.4 0.1 0
5.7 0.1 0
6 0.1 0
6.3 0.1 0
6.6 0.1 0
6.9 0.1 0
7.2 0.1 0
7.5 0.1 0
7.8 0.1 0
8.1 0.1 0
8.4 0.1 0
8.7 0.1 0
9 0.1 0
9.3 0.1 0
9.6 0.1 0
9.9 0.1 0
10.2 0.1 0
10.5 0.1 0
10.8 0.1 0
11.1 0.1 0
11.4 0.1 0
11.7 0.1 0
12 0.1 0
12.3 0.1 0
12.6 0.1 0
12.9 0.1 0
13.2 0.1 0
13.5 0.1 0
13.8 0.1 0
14.1 0.1 0
14.4 0.1 0
14.7 0.1 0
15 0.1 0
15.3 0.1 0
15.6 0.1 0
15.9 0.1 0
16.2 0.1 0
16.5 0.1 0
16.8 0.1 0
17.1 0.1 0
17.4 0.1 0
17.7 0.1 0
18 0.1 0
18.3 0.1 0
18.6 0.1 0
18.9 0.1 0
19.2 0.1 0
19.5 0.1 0
19.8 0.1 0
20.1 0.1 0
20.4 0.1 0
20.7 0.1 0
21 0.1 0
21.3 0.1 0
21.6 0.1 0
21.9 0.1 0
22.2 0.1 0
22.5 0.1 0
22.8 0.1 0
23.1 0.1 0
23.4 0.1 0
23.7 0.1 0
24 0.1 0
24.3 0.1 0
24.6 0.1 0
24.9 0.1 0
25.2 0.1 0
25.5 0.1 0
25.8 0.1 0
26.1 0.1 0
26.4 0.1 0
26.7 0.1 0
27 0.1 0
27.3 0.1 0
27.6 0.1 0
27.9 0.1 0
28.2 0.1 0
28.5 0.1 0
28.8 0.1 0
29.1 0.1 0
29.4 0.1 0
29.7 0.1 0
30 0.1 0
30.3 0.1 0
0 0.2 0
0.3 0.2 0
0.6 0.2 0
0.9 0.2 0
1.2 0.2 0
1.5 0.2 0
1.8 0.2 0
2.1 0.2 0
2.4 0.2 0
2.7 0.2 0
3 0.2 0
3.3 0.2 0
3.6 0.2 0
3.9 0.2 0
4.2 0.2 0
4.5 0.2 0
4.8 0.2 0
5.1 0.2 0
5.4 0.2 0
5.7 0.2 0
6 0.2 0
6.3 0.2 0
6.6 0.2 0
6.9 0.2 0
7.2 0.2 0
7.5 0.2 0
7.8 0.2 0
8.1 0.2 0
8.4 0.2 0
8.7 0.2 0
9 0.2 0
9.3 0.2 0
9.6 0.2 0
9.9 0.2 0
10.2 0.2 0
10.5 0.2 0
10.8 0.2 0
11.1 0.2 0
11.4 0.2 0
11.7 0.2 0
12 0.2 0
12.3 0.2 0
12.6 0.2 0
12.9 0.2 0
13.2 0.2 0
13.5 0.2 0
13.8 0.2 0
14.1 0.2 0
14.4 0.2 0
14.7 0.2 0
15 0.2 0
15.3 0.2 0
15.6 0.2 0
15.9 0.2 0
16.2 0.2 0
16.5 0.2 0
16.8 0.2 0
17.1 0.2 0
17.4 0.2 0
17.7 0.2 0
18 0.2 0
18.3 0.2 0
18.6 0.2 0
18.9 0.2 0
19.2 0.2 0
19.5 0.2 0
19.8 0.2 0
20.1 0.2 0
20.4 0.2 0
20.7 0.2 0
21 0.2 0
21.3 0.2 0
21.6 0.2 0
21.9 0.2 0
22.2 0.2 0
22.5 0.2 0
22.8 0.2 0
23.1 0.2 0
23.4 0.2 0
23.7 0.2 0
24 0.2 0
24.3 0.2 0
24.6 0.2 0
24.9 0.2 0
25.2 0.2 0
25.5 0.2 0
25.8 0.2 0
26.1 0.2 0
26.4 0.2 0
26.7 0.2 0
27 0.2 0
27.3 0.2 0
27.6 0.2 0
27.9 0.2 0
28.2 0.2 0
28.5 0.2 0
28.8 0.2 0
29.1 0.2 0
29.4 0.2 0
29.7 0.2 0
30 0.2 0
30.3 0.2 0
0 0.3 0
0.3 0.3 0
0.6 0.3 0
0.9 0.3 0
1.2 0.3 0
1.5 0.3 0
1.8 0.3 0
2.1 0.3 0
2.4 0.3 0
2.7 0.3 0
3 0.3 0
3.3 0.3 0
3.6 0.3 0
3.9 0.3 0
4.2 0.3 0
4.5 0.3 0
4.8 0.3 0
5.1 0.3 0
5.4 0.3 0
5.7 0.3 0
6 0.3 0
6.3 0.3 0
6.6 0.3 0
6.9 0.3 0
7.2 0.3 0
7.5 0.3 0
7.8 0.3 0
8.1 0.3 0
8.4 0.3 0
8.7 0.3 0
9 0.3 0
9.3 0.3 0
9.6 0.3 0
9.9 0.3 0
10.2 0.3 0
10.5 0.3 0
10.8 0.3 0
11.1 0.3 0
11.4 0.3 0
11.7 0.3 0
12 0.3 0
12.3 0.3 0
12.6 0.3 0
12.9 0.3 0
13.2 0.3 0
13.5 0.3 0
13.8 0.3 0
14.1 0.3 0
14.4 0.3 0
14.7 0.3 0
15 0.3 0
15.3 0.3 0
15.6 0.3 0
15.9 0.3 0
16.2 0.3 0
16.5 0.3 0
16.8 0.3 0
17.1 0.3 0
17.4 0.3 0
17.7 0.3 0
18 0.3 0
18.3 0.3 0
18.6 0.3 0
18.9 0.3 0
19.2 0.3 0
19.5 0.3 0
19.8 0.3 0
20.1 0.3 0
20.4 0.3 0
20.7 0.3 0
21 0.3 0
21.3 0.3 0
21.6 0.3 0
21.9 0.3 0
22.2 0.3 0
22.5 0.3 0
22.8 0.3 0
23.1 0.3 0
23.4 0.3 0
23.7 0.3 0
24 0.3 0
24.3 0.3 0
24.6 0.3 0
24.9 0.3 0
25.2 0.3 0
25.5 0.3 0
25.8 0.3 0
26.1 0.3 0
26.4 0.3 0
26.7 0.3 0
27 0.3 0
27.3 0.3 0
27.6 0.3 0
27.9 0.3 0
28.2 0.3 0
28.5 0.3 0
28.8 0.3 0
29.1 0.3 0
29.4 0.3 0
29.7 0.3 0
30 0.3 0
30.3 0.3 0
0 0.4 0
0.3 0.4 0
0.6 0.4 0
0.9 0.4 0
1.2 0.4 0
1.5 0.4 0
1.8 0.4 0
2.1 0.4 0
2.4 0.4 0
2.7 0.4 0
3 0.4 0
3.3 0.4 0
3.6 0.4 0
3.9 0.4 0
4.2 0.4 0
4.5 0.4 0
4.8 0.4 0
5.1 0.4 0
5.4 0.4 0
5.7 0.4 0
6 0.4 0
6.3 0.4 0
6.6 0.4 0
6.9 0.4 0
7.2 0.4 0
7.5 0.4 0
7.8 0.4 0
8.1 0.4 0
8.4 0.4 0
8.7 0.4 0
9 0.4 0
9.3 0.4 0
9.6 0.4 0
9.9 0.4 0
10.2 0.4 0
10.5 0.4 0
10.8 0.4 0
11.1 0.4 0
11.4 0.4 0
11.7 0.4 0
12 0.4 0
12.3 0.4 0
12.6 0.4 0
12.9 0.4 0
13.2 0.4 0
13.5 0.4 0
13.8 0.4 0
14.1 0.4 0
14.4 0.4 0
14.7 0.4 0
15 0.4 0
15.3 0.4 0
15.6 0.4 0
15.9 0.4 0
16.2 0.4 0
16.5 0.4 0
16.8 0.4 0
17.1 0.4 0
17.4 0.4 0
17.7 0.4 0
18 0.4 0
18.3 0.4 0
18.6 0.4 0
18.9 0.4 0
19.2 0.4 0
19.5 0.4 0
19.8 0.4 0
20.1 0.4 0
20.4 0.4 0
20.7 0.4 0
21 0.4 0
21.3 0.4 0
21.6 0.4 0
21.9 0.4 0
22.2 0.4 0
22.5 0.4 0
22.8 0.4 0
23.1 0.4 0
23.4 0.4 0
23.7 0.4 0
24 0.4 0
24.3 0.4 0
24.6 0.4 0
24.9 0.4 0
25.2 0.4 0
25.5 0.4 0
25.8 0.4 0
26.1 0.4 0
26.4 0.4 0
26.7 0.4 0
27 0.4 0
27.3 0.4 0
27.6 0.4 0
27.9 0.4 0
28.2 0.4 0
28.5 0.4 0
28.8 0.4 0
29.1 0.4 0
29.4 0.4 0
29.7 0.4 0
30 0.4 0
30.3 0.4 0
0 0.5 0
0.3 0.5 0
0.6 0.5 0
0.9 0.5 0
1.2 0.5 0
1.5 0.5 0
1.8 0.5 0
2.1 0.5 0
2.4 0.5 0
2.7 0.5 0
3 0.5 0
3.3 0.5 0
3.6 0.5 0
3.9 0.5 0
4.2 0.5 0
4.5 0.5 0
4.8 0.5 0
5.1 0.5 0
5.4 0.5 0
5.7 0.5 0
6 0.5 0
6.3 0.5 0
6.6 0.5 0
6.9 0.5 0
7.2 0.5 0
7.5 0.5 0
7.8 0.5 0
8.1 0.5 0
8.4 0.5 0
8.7 0.5 0
9 0.5 0
9.3 0.5 0
9.6 0.5 0
9.9 0.5 0
10.2 0.5 0
10.5 0.5 0
10.8 0.5 0
11.1 0.5 0
11.4 0.5 0
11.7 0.5 0
12 0.5 0
12.3 0.5 0
12.6 0.5 0
12.9 0.5 0
13.2 0.5 0
13.5 0.5 0
13.8 0.5 0
14.1 0.5 0
14.4 0.5 0
14.7 0.5 0
15 0.5 0
15.3 0.5 0
15.6 0.5 0
15.9 0.5 0
16.2 0.5 0
16.5 0.5 0
16.8 0.5 0
17.1 0.5 0
17.4 0.5 0
17.7 0.5 0
18 0.5 0
18.3 0.5 0
18.6 0.5 0
18.9 0.5 0
19.2 0.5 0
19.5 0.5 0
19.8 0.5 0
20.1 0.5 0
20.4 0.5 0
20.7 0.5 0
21 0.5 0
21.3 0.5 0
21.6 0.5 0
21.9 0.5 0
22.2 0.5 0
22.5 0.5 0
22.8 0.5 0
23.1 0.5 0
23.4 0.5 0
23.7 0.5 0
24 0.5 0
24.3 0.5 0
24.6 0.5 0
24.9 0.5 0
25.2 0.5 0
25.5 0.5 0
25.8 0.5 0
26.1 0.5 0
26.4 0.5 0
26.7 0.5 0
27 0.5 0
27.3 0.5 0
27.6 0.5 0
27.9 0.5 0
28.2 0.5 0
28.5 0.5 0
28.8 0.5 0
29.1 0.5 0
29.4 0.5 0
29.7 0.5 0
30 0.5 0
30.3 0.5 0
0 0.6 0
0.3 0.6 0
0.6 0.6 0
0.9 0.6 0
1.2 0.6 0
1.5 0.6 0
1.8 0.6 0
2.1 0.6 0
2.4 0.6 0
2.7 0.6 0
3 0.6 0
3.3 0.6 0
3.6 0.6 0
3.9 0.6 0
4.2 0.6 0
4.5 0.6 0
4.8 0.6 0
5.1 0.6 0
5.4 0.6 0
5.7 0.6 0
6 0.6 0
6.3 0.6 0
6.6 0.6 0
6.9 0.6 0
7.2 0.6 0
7.5 0.6 0
7.8 0.6 0
8.1 0.6 0
8.4 0.6 0
8.7 0.6 0
9 0.6 0
9.3 0.6 0
9.6 0.6 0
9.9 0.6 0
10.2 0.6 0
10.5 0.6 0
10.8 0.6 0
11.1 0.6 0
11.4 0.6 0
11.7 0.6 0
12 0.6 0
12.3 0.6 0
12.6 0.6 0
12.9 0.6 0
13.2 0.6 0
13.5 0.6 0
13.8 0.6 0
14.1 0.6 0
14.4 0.6 0
14.7 0.6 0
15 0.6 0
15.3 0.6 0
15.6 0.6 0
15.9 0.6 0
16.2 0.6 0
16.5 0.6 0
16.8 0.6 0
17.1 0.6 0
17.4 0.6 0
17.7 0.6 0
18 0.6 0
18.3 0.6 0
18.6 0.6 0
18.9 0.6 0
19.2 0.6 0
19.5 0.6 0
19.8 0.6 0
20.1 0.6 0
20.4 0.6 0
20.7 0.6 0
21 0.6 0
21.3 0.6 0
21.6 0.6 0
21.9 0.6 0
22.2 0.6 0
22.5 0.6 0
22.8 0.6 0
23.1 0.6 0
23.4 0.6 0
23.7 0.6 0
24 0.6 0
24.3 0.6 0
24.6 0.6 0
24.9 0.6 0
25.2 0.6 0
25.5 0.6 0
25.8 0.6 0
26.1 0.6 0
26.4 0.6 0
26.7 0.6 0
27 0.6 0
27.3 0.6 0
27.6 0.6 0
27.9 0.6 0
28.2 0.6 0
28.5 0.6 0
28.8 0.6 0
29.1 0.6 0
29.4 0.6 0
29.7 0.6 0
30 0.6 0
30.3 0.6 0
0 0.7 0
0.3 0.7 0
0.6 0.7 0
0.9 0.7 0
1.2 0.7 0
1.5 0.7 0
1.8 0.7 0
2.1 0.7 0
2.4 0.7 0
2.7 0.7 0
3 0.7 0
3.3 0.7 0
3.6 0.7 0
3.9 0.7 0
4.2 0.7 0
4.5 0.7 0
4.8 0.7 0
5.1 0.7 0
5.4 0.7 0
5.7 0.7 0
6 0.7 0
6.3 0.7 0
6.6 0.7 0
6.9 0.7 0
7.2 0.7 0
7.5 0.7 0
7.8 0.7 0
8.1 0.7 0
8.4 0.7 0
8.7 0.7 0
9 0.7 0
9.3 0.7 0
9.6 0.7 0
9.9 0.7 0
10.2 0.7 0
10.5 0.7 0
10.8 0.7 0
11.1 0.7 0
11.4 0.7 0
11.7 0.7 0
12 0.7 0
12.3 0.7 0
12.6 0.7 0
12.9 0.7 0
13.2 0.7 0
13.5 0.7 0
13.8 0.7 0
14.1 0.7 0
14.4 0.7 0
14.7 0.7 0
15 0.7 0
15.3 0.7 0
15.6 0.7 0
15.9 0.7 0
16.2 0.7 0
16.5 0.7 0
16.8 0.7 0
17.1 0.7 0
17.4 0.7 0
17.7 0.7 0
18 0.7 0
18.3 0.7 0
18.6 0.7 0
18.9 0.7 0
19.2 0.7 0
19.5 0.7 0
19.8 0.7 0
20.1 0.7 0
20.4 0.7 0
20.7 0.7 0
21 0.7 0
21.3 0.7 0
21.6 0.7 0
21.9 0.7 0
22.2 0.7 0
22.5 0.7 0
22.8 0.7 0
23.1 0.7 0
23.4 0.7 0
23.7 0.7 0
24 0.7 0
24.3 0.7 0
24.6 0.7 0
24.9 0.7 0
25.2 0.7 0
25.5 0.7 0
25.8 0.7 0
26.1 0.7 0
26.4 0.7 0
26.7 0.7 0
27 0.7 0
27.3 0.7 0
27.6 0.7 0
27.9 0.7 0
28.2 0.7 0
28.5 0.7 0
28.8 0.7 0
29.1 0.7 0
29.4 0.7 0
29.7 0.7 0
30 0.7 0
30.3 0.7 0
0 0.8 0
0.3 0.8 0
0.6 0.8 0
0.9 0.8 0
1.2 0.8 0
1.5 0.8 0
1.8 0.8 0
2.1 0.8 0
2.4 0.8 0
2.7 0.8 0
3 0.8 0
3.3 0.8 0
3.6 0.8 0
3.9 0.8 0
4.2 0.8 0
4.5 0.8 0
4.8 0.8 0
5.1 0.8 0
5.4 0.8 0
5.7 0.8 0
6 0.8 0
6.3 0.8 0
6.6 0.8 0
6.9 0.8 0
7.2 0.8 0
7.5 0.8 0
7.8 0.8 0
8.1 0.8 0
8.4 0.8 0
8.7 0.8 0
9 0.8 0
9.3 0.8 0
9.6 0.8 0
9.9 0.8 0
10.2 0.8 0
10.5 0.8 0
10.8 0.8 0
11.1 0.8 0
11.4 0.8 0
11.7 0.8 0
12 0.8 0
12.3 0.8 0
12.6 0.8 0
12.9 0.8 0
13.2 0.8 0
13.5 0.8 0
13.8 0.8 0
14.1 0.8 0
14.4 0.8 0
14.7 0.8 0
15 0.8 0
15.3 0.8 0
15.6 0.8 0
15.9 0.8 0
16.2 0.8 0
16.5 0.8 0
16.8 0.8 0
17.1 0.8 0
17.4 0.8 0
17.7 0.8 0
18 0.8 0
18.3 0.8 0
18.6 0.8 0
18.9 0.8 0
19.2 0.8 0
19.5 0.8 0
19.8 0.8 0
20.1 0.8 0
20.4 0.8 0
20.7 0.8 0
21 0.8 0
21.3 0.8 0
21.6 0.8 0
21.9 0.8 0
22.2 0.8 0
22.5 0.8 0
22.8 0.8 0
23.1 0.8 0
23.4 0.8 0
23.7 0.8 0
24 0.8 0
24.3 0.8 0
24.6 0.8 0
24.9 0.8 0
25.2 0.8 0
25.5 0.8 0
25.8 0.8 0
26.1 0.8 0
26.4 0.8 0
26.7 0.8 0
27 0.8 0
27.3 0.8 0
27.6 0.8 0
27.9 0.8 0
28.2 0.8 0
28.5 0.8 0
28.8 0.8 0
29.1 0.8 0
29.4 0.8 0
29.7 0.8 0
30 0.8 0
30.3 0.8 0
0 0.9 0
0.3 0.9 0
0.6 0.9 0
0.9 0.9 0
1.2 0.9 0
1.5 0.9 0
1.8 0.9 0
2.1 0.9 0
2.4 0.9 0
2.7 0.9 0
3 0.9 0
3.3 0.9 0
3.6 0.9 0
3.9 0.9 0
4.2 0.9 0
4.5 0.9 0
4.8 0.9 0
5.1 0.9 0
5.4 0.9 0
5.7 0.9 0
6 0.9 0
6.3 0.9 0
6.6 0.9 0
6.9 0.9 0
7.2 0.9 0
7.5 0.9 0
7.8 0.9 0
8.1 0.9 0
8.4 0.9 0
8.7 0.9 0
9 0.9 0
9.3 0.9 0
9.6 0.9 0
9.9 0.9 0
10.2 0.9 0
10.5 0.9 0
10.8 0.9 0
11.1 0.9 0
11.4 0.9 0
11.7 0.9 0
12 0.9 0
12.3 0.9 0
12.6 0.9 0
12.9 0.9 0
13.2 0.9 0
13.5 0.9 0
13.8 0.9 0
14.1 0.9 0
14.4 0.9 0
14.7 0.9 0
15 0.9 0
15.3 0.9 0
15.6 0.9 0
15.9 0.9 0
16.2 0.9 0
16.5 0.9 0
16.8 0.9 0
17.1 0.9 0
17.4 0.9 0
17.7 0.9 0
18 0.9 0
18.3 0.9 0
18.6 0.9 0
18.9 0.9 0
19.2 0.9 0
19.5 0.9 0
19.8 0.9 0
20.1 0.9 0
20.4 0.9 0
20.7 0.9 0
21 0.9 0
21.3 0.9 0
21.6 0.9 0
21.9 0.9 0
22.2 0.9 0
22.5 0.9 0
22.8 0.9 0
23.1 0.9 0
23.4 0.9 0
23.7 0.9 0
24 0.9 0
24.3 0.9 0
24.6 0.9 0
24.9 0.9 0
25.2 0.9 0
25.5 0.9 0
25.8 0.9 0
26.1 0.9 0
26.4 0.9 0
26.7 0.9 0
27 0.9 0
27.3 0.9 0
27.6 0.9 0
27.9 0.9 0
28.2 0.9 0
28.5 0.9 0
28.8 0.9 0
29.1 0.9 0
29.4 0.9 0
29.7 0.9 0
30 0.9 0
30.3 0.9 0
0 1 0
0.3 1 0
0.6 1 0
0.9 1 0
1.2 1 0
1.5 1 0
1.8 1 0
2.1 1 0
2.4 1 0
2.7 1 0
3 1 0
3.3 1 0
3.6 1 0
3.9 1 0
4.2 1 0
4.5 1 0
4.8 1 0
5.1 1 0
5.4 1 0
5.7 1 0
6 1 0
6.3 1 0
6.6 1 0
6.9 1 0
7.2 1 0
7.5 1 0
7.8 1 0
8.1 1 0
8.4 1 0
8.7 1 0
9 1 0
9.3 1 0
9.6 1 0
9.9 1 0
10.2 1 0
10.5 1 0
10.8 1 0
11.1 1 0
11.4 1 0
11.7 1 0
12 1 0
12.3 1 0
12.6 1 0
12.9 1 0
13.2 1 0
13.5 1 0
13.8 1 0
14.1 1 0
14.4 1 0
14.7 1 0
15 1 0
15.3 1 0
15.6 1 0
15.9 1 0
16.2 1 0
16.5 1 0
16.8 1 0
17.1 1 0
17.4 1 0
17.7 1 0
18 1 0
18.3 1 0
18.6 1 0
18.9 1 0
19.2 1 0
19.5 1 0
19.8 1 0
20.1 1 0
20.4 1 0
20.7 1 0
21 1 0
21.3 1 0
21.6 1 0
21.9 1 0
22.2 1 0
22.5 1 0
22.8 1 0
23.1 1 0
23.4 1 0
23.7 1 0
24 1 0
24.3 1 0
24.6 1 0
24.9 1 0
25.2 1 0
25.5 1 0
25.8 1 0
26.1 1 0
26.4 1 0
26.7 1 0
27 1 0
27.3 1 0
27.6 1 0
27.9 1 0
28.2 1 0
28.5 1 0
28.8 1 0
29.1 1 0
29.4 1 0
29.7 1 0
30 1 0
30.3 1 0
0 1.1 0
0.3 1.1 0
0.6 1.1 0
0.9 1.1 0
1.2 1.1 0
1.5 1.1 0
1.8 1.1 0
2.1 1.1 0
2.4 1.1 0
2.7 1.1 0
3 1.1 0
3.3 1.1 0
3.6 1.1 0
3.9 1.1 0
4.2 1.1 0
4.5 1.1 0
4.8 1.1 0
5.1 1.1 0
5.4 1.1 0
5.7 1.1 0
6 1.1 0
6.3 1.1 0
6.6 1.1 0
6.9 1.1 0
7.2 1.1 0
7.5 1.1 0
7.8 1.1 0
8.1 1.1 0
8.4 1.1 0
8.7 1.1 0
9 1.1 0
9.3 1.1 0
9.6 1.1 0
9.9 1.1 0
10.2 1.1 0
10.5 1.1 0
10.8 1.1 0
11.1 1.1 0
11.4 1.1 0
11.7 1.1 0
12 1.1 0
12.3 1.1 0
12.6 1.1 0
12.9 1.1 0
13.2 1.1 0
13.5 1.1 0
13.8 1.1 0
14.1 1.1 0
14.4 1.1 0
14.7 1.1 0
15 1.1 0
15.3 1.1 0
15.6 1.1 0
15.9 1.1 0
16.2 1.1 0
16.5 1.1 0
16.8 1.1 0
17.1 1.1 0
17.4 1.1 0
17.7 1.1 0
18 1.1 0
18.3 1.1 0
18.6 1.1 0
18.9 1.1 0
19.2 1.1 0
19.5 1.1 0
19.8 1.1 0
20.1 1.1 0
20.4 1.1 0
20.7 1.1 0
21 1.1 0
21.3 1.1 0
21.6 1.1 0
21.9 1.1 0
22.2 1.1 0
22.5 1.1 0
22.8 1.1 0
23.1 1.1 0
23.4 1.1 0
23.7 1.1 0
24 1.1 0
24.3 1.1 0
24.6 1.1 0
24.9 1.1 0
25.2 1.1 0
25.5 1.1 0
25.8 1.1 0
26.1 1.1 0
26.4 1.1 0
26.7 1.1 0
27 1.1 0
27.3 1.1 0
27.6 1.1 0
27.9 1.1 0
28.2 1.1 0
28.5 1.1 0
28.8 1.1 0
29.1 1.1 0
29.4 1.1 0
29.7 1.1 0
30 1.1 0
30.3 1.1 0

POINT_DATA 1224

SCALARS pressure double
LOOKUP_TABLE pressure
1.31576
1.31576
1.24925
1.20217
1.15922
1.11957
1.08354
1.05116
1.02206
0.995721
0.971611
0.949258
0.928285
0.908404
0.889398
0.871108
0.853417
0.836235
0.819496
0.803146
0.787143
0.771451
0.756041
0.740888
0.725971
0.71127
0.696768
0.682449
0.668301
0.65431
0.640465
0.626756
0.613174
0.599708
0.586352
0.573098
0.55994
0.54687
0.533883
0.520973
0.508136
0.495367
0.482661
0.470015
0.457423
0.444884
0.432393
0.419948
0.407545
0.395182
0.382857
0.370568
0.358312
0.346087
0.333893
0.321728
0.30959
0.297479
0.285394
0.273332
0.261294
0.249279
0.237284
0.225308
0.213351
0.201411
0.189487
0.177576
0.165677
0.153789
0.141911
0.130041
0.118178
0.106321
0.0944688
0.0826203
0.070775
0.0589323
0.0470915
0.0352523
0.0234143
0.0115772
-0.000259211
-0.0120951
-0.0239307
-0.0357659
-0.047601
-0.0594359
-0.0712708
-0.0831056
-0.0949404
-0.106775
-0.11861
-0.130445
-0.142279
-0.154114
-0.165948
-0.177783
-0.189618
-0.201452
-0.213285
0.213285
1.31576
1.31576
1.24925
1.20217
1.15922
1.11957
1.08354
1.05116
1.02206
0.995721
0.971611
0.949258
0.928285
0.908404
0.889398
0.871108
0.853417
0.836235
0.819496
0.803146
0.787143
0.771451
0.756041
0.740888
0.725971
0.71127
0.696768
0.682449
0.668301
0.65431
0.640465
0.626756
0.613174
0.599708
0.586352
0.573098
0.55994
0.54687
0.533883
0.520973
0.508136
0.495367
0.482661
0.470015
0.457423
0.444884
0.432393
0.419948
0.407545
0.395182
0.382857
0.370568
0.358312
0.346087
0.333893
0.321728
0.30959
0.297479
0.285394
0.273332
0.261294
0.249279
0.237284
0.225308
0.213351
0.201411
0.189487
0.177576
0.165677
0.153789
0.141911
0.130041
0.118178
0.106321
0.0944688
0.0826203
0.070775
0.0589323
0.0470915
0.0352523
0.0234143
0.0115772
-0.000259211
-0.0120951
-0.0239307
-0.0357659
-0.047601
-0.0594359
-0.0712708
-0.0831056
-0.0949404
-0.106775
-0.11861
-0.130445
-0.142279
-0.154114
-0.165948
-0.177783
-0.189618
-0.201452
-0.213285
0.213285
1.29511
1.29511
1.24746
1.20249
1.15994
1.12034
1.08425
1.05175
1.02253
0.996091
0.971896
0.949479
0.928458
0.908541
0.889509
0.8712
0.853494
0.836302
0.819554
0.803197
0.787188
0.771491
0.756077
0.740921
0.726001
0.711297
0.696793
0.682472
0.668322
0.654329
0.640483
0.626773
0.613189
0.599722
0.586365
0.57311
0.559951
0.54688
0.533893
0.520982
0.508145
0.495375
0.482669
0.470021
0.45743
0.44489
0.432399
0.419953
0.40755
0.395187
0.382862
0.370572
0.358315
0.34609
0.333896
0.321731
0.309593
0.297481
0.285395
0.273334
0.261296
0.24928
0.237285
0.225309
0.213352
0.201412
0.189487
0.177576
0.165677
0.15379
0.141911
0.130041
0.118178
0.106321
0.0944687
0.0826203
0.070775
0.0589323
0.0470915
0.0352523
0.0234143
0.0115772
-0.000259227
-0.0120952
-0.0239307
-0.0357659
-0.047601
-0.0594359
-0.0712708
-0.0831056
-0.0949404
-0.106775
-0.11861
-0.130444
-0.142279
-0.154114
-0.165948
-0.177783
-0.189618
-0.201452
-0.213285
0.213285
1.28073
1.28073
1.24495
1.20288
1.16107
1.1216
1.08542
1.05274
1.02332
0.996698
0.972353
0.94982
0.928714
0.908735
0.889659
0.871318
0.85359
0.83638
0.81962
0.803253
0.787236
0.771533
0.756114
0.740954
0.72603
0.711324
0.696816
0.682494
0.668342
0.654347
0.640499
0.626788
0.613202
0.599735
0.586377
0.573121
0.559961
0.546889
0.533901
0.52099
0.508152
0.495382
0.482675
0.470027
0.457435
0.444895
0.432403
0.419957
0.407554
0.395191
0.382865
0.370575
0.358318
0.346093
0.333899
0.321733
0.309595
0.297483
0.285397
0.273335
0.261297
0.249281
0.237286
0.22531
0.213353
0.201412
0.189487
0.177576
0.165677
0.15379
0.141912
0.130041
0.118178
0.106321
0.0944687
0.0826203
0.070775
0.0589322
0.0470915
0.0352523
0.0234143
0.0115772
-0.000259236
-0.0120952
-0.0239307
-0.0357659
-0.047601
-0.0594359
-0.0712708
-0.0831056
-0.0949404
-0.106775
-0.11861
-0.130444
-0.142279
-0.154114
-0.165948
-0.177783
-0.189618
-0.201452
-0.213285
0.213285
1.27204
1.27204
1.24294
1.20314
1.16199
1.12268
1.08645
1.05364
1.02406
0.997276
0.972801
0.950165
0.92898
0.908943
0.889824
0.871452
0.853699
0.836472
0.819698
0.80332
0.787294
0.771584
0.756159
0.740994
0.726066
0.711355
0.696845
0.68252
0.668365
0.654369
0.640519
0.626805
0.613219
0.59975
0.58639
0.573134
0.559972
0.5469
0.533911
0.520999
0.50816
0.495389
0.482682
0.470034
0.457441
0.444901
0.432409
0.419962
0.407559
0.395195
0.382869
0.370579
0.358322
0.346097
0.333902
0.321736
0.309597
0.297486
0.2854
0.273338
0.261299
0.249283
0.237287
0.225311
0.213354
0.201413
0.189488
0.177577
0.165678
0.15379
0.141912
0.130042
0.118179
0.106321
0.094469
0.0826204
0.0707751
0.0589324
0.0470916
0.0352524
0.0234143
0.0115772
-0.000259213
-0.0120951
-0.0239307
-0.0357659
-0.047601
-0.0594359
-0.0712708
-0.0831056
-0.0949404
-0.106775
-0.11861
-0.130444
-0.142279
-0.154114
-0.165948
-0.177783
-0.189617
-0.20145
-0.213284
0.213284
1.26796
1.26796
1.24186
1.20326
1.16249
1.12327
1.08702
1.05414
1.02447
0.997611
0.973065
0.950372
0.929143
0.909073
0.88993
0.871539
0.853772
0.836534
0.819751
0.803367
0.787335
0.771621
0.756192
0.741023
0.726092
0.711379
0.696867
0.682539
0.668383
0.654385
0.640534
0.626819
0.613231
0.599761
0.586401
0.573143
0.559981
0.546908
0.533918
0.521006
0.508167
0.495395
0.482688
0.470039
0.457446
0.444905
0.432413
0.419966
0.407562
0.395198
0.382872
0.370582
0.358324
0.346099
0.333904
0.321738
0.3096
0.297488
0.285402
0.27334
0.261301
0.249284
0.237289
0.225313
0.213355
0.201415
0.189489
0.177578
0.165679
0.153791
0.141913
0.130042
0.118179
0.106322
0.0944693
0.0826207
0.0707753
0.0589325
0.0470917
0.0352524
0.0234144
0.0115773
-0.00025918
-0.0120951
-0.0239307
-0.0357659
-0.047601
-0.0594359
-0.0712708
-0.0831056
-0.0949404
-0.106775
-0.11861
-0.130444
-0.142279
-0.154114
-0.165948
-0.177783
-0.189617
-0.201449
-0.213284
0.213284
1.26796
1.26796
1.24186
1.20326
1.16249
1.12327
1.08702
1.05414
1.02447
0.997611
0.973065
0.950372
0.929143
0.909073
0.88993
0.871539
0.853772
0.836534
0.819751
0.803367
0.787335
0.771621
0.756192
0.741023
0.726092
0.711379
0.696867
0.682539
0.668383
0.654385
0.640534
0.626819
0.613231
0.599761
0.586401
0.573143
0.559981
0.546908
0.533918
0.521006
0.508167
0.495395
0.482688
0.470039
0.457446
0.444905
0.432413
0.419966
0.407562
0.395198
0.382872
0.370582
0.358324
0.346099
0.333904
0.321738
0.3096
0.297488
0.285402
0.27334
0.261301
0.249284
0.237289
0.225313
0.213355
0.201415
0.189489
0.177578
0.165679
0.153791
0.141913
0.130042
0.118179
0.106322
0.0944693
0.0826207
0.0707753
0.0589325
0.0470917
0.0352524
0.0234144
0.0115773
-0.000259178
-0.0120951
-0.0239306
-0.0357659
-0.047601
-0.0594359
-0.0712708
-0.0831056
-0.0949404
-0.106775
-0.11861
-0.130444
-0.142279
-0.154114
-0.165948
-0.177783
-0.189617
-0.201449
-0.213284
0.213284
1.27204
1.27204
1.24294
1.20314
1.16199
1.12268
1.08645
1.05364
1.02406
0.997276
0.972801
0.950165
0.92898
0.908943
0.889824
0.871452
0.853699
0.836472
0.819698
0.80332
0.787294
0.771584
0.756159
0.740994
0.726066
0.711355
0.696845
0.68252
0.668365
0.654369
0.640519
0.626805
0.613219
0.59975
0.58639
0.573134
0.559972
0.5469
0.533911
0.520999
0.50816
0.495389
0.482682
0.470034
0.457441
0.444901
0.432409
0.419962
0.407559
0.395195
0.382869
0.370579
0.358322
0.346097
0.333902
0.321736
0.309597
0.297486
0.2854
0.273338
0.261299
0.249283
0.237287
0.225311
0.213354
0.201413
0.189488
0.177577
0.165678
0.15379
0.141912
0.130042
0.118179
0.106321
0.094469
0.0826204
0.0707751
0.0589323
0.0470916
0.0352524
0.0234143
0.0115772
-0.000259212
-0.0120951
-0.0239307
-0.0357659
-0.047601
-0.0594359
-0.0712708
-0.0831056
-0.0949404
-0.106775
-0.11861
-0.130444
-0.142279
-0.154114
-0.165948
-0.177783
-0.189617
-0.20145
-0.213284
0.213284
1.28073
1.28073
1.24495
1.20288
1.16107
1.1216
1.08542
1.05274
1.02332
0.996698
0.972353
0.94982
0.928714
0.908735
0.889659
0.871318
0.85359
0.83638
0.81962
0.803253
0.787236
0.771533
0.756114
0.740954
0.72603
0.711324
0.696816
0.682494
0.668342
0.654347
0.640499
0.626788
0.613202
0.599735
0.586377
0.573121
0.559961
0.546889
0.533901
0.52099
0.508152
0.495382
0.482675
0.470027
0.457435
0.444895
0.432403
0.419957
0.407554
0.395191
0.382865
0.370575
0.358318
0.346093
0.333899
0.321733
0.309595
0.297483
0.285397
0.273335
0.261297
0.249281
0.237286
0.22531
0.213353
0.201412
0.189487
0.177576
0.165677
0.15379
0.141912
0.130041
0.118178
0.106321
0.0944687
0.0826203
0.070775
0.0589322
0.0470915
0.0352523
0.0234143
0.0115772
-0.000259234
-0.0120951
-0.0239307
-0.0357659
-0.047601
-0.0594359
-0.0712708
-0.0831056
-0.0949404
-0.106775
-0.11861
-0.130444
-0.142279
-0.154114
-0.165948
-0.177783
-0.189618
-0.201452
-0.213285
0.213285
1.29511
1.29511
1.24746
1.20249
1.15994
1.12034
1.08425
1.05175
1.02253
0.996091
0.971896
0.949479
0.928458
0.908541
0.889509
0.8712
0.853494
0.836302
0.819554
0.803197
0.787188
0.771491
0.756077
0.740921
0.726001
0.711297
0.696793
0.682472
0.668322
0.654329
0.640483
0.626773
0.613189
0.599722
0.586365
0.57311
0.559951
0.54688
0.533893
0.520982
0.508145
0.495375
0.482669
0.470021
0.45743
0.44489
0.432399
0.419953
0.40755
0.395187
0.382862
0.370572
0.358315
0.34609
0.333896
0.321731
0.309593
0.297481
0.285395
0.273334
0.261296
0.24928
0.237285
0.225309
0.213352
0.201412
0.189487
0.177576
0.165677
0.15379
0.141911
0.130041
0.118178
0.106321
0.0944687
0.0826203
0.070775
0.0589322
0.0470915
0.0352523
0.0234143
0.0115772
-0.000259224
-0.0120951
-0.0239307
-0.0357659
-0.047601
-0.0594359
-0.0712708
-0.0831056
-0.0949404
-0.106775
-0.11861
-0.130444
-0.142279
-0.154114
-0.165948
-0.177783
-0.189618
-0.201452
-0.213285
0.213285
1.31576
1.31576
1.24925
1.20217
1.15922
1.11957
1.08354
1.05116
1.02206
0.995721
0.971611
0.949258
0.928285
0.908404
0.889398
0.871108
0.853417
0.836235
0.819496
0.803146
0.787143
0.771451
0.756041
0.740888
0.725971
0.71127
0.696768
0.682449
0.668301
0.65431
0.640466
0.626756
0.613174
0.599708
0.586352
0.573098
0.55994
0.54687
0.533883
0.520973
0.508136
0.495367
0.482661
0.470015
0.457423
0.444884
0.432393
0.419948
0.407545
0.395182
0.382857
0.370568
0.358312
0.346087
0.333893
0.321728
0.30959
0.297479
0.285394
0.273332
0.261294
0.249279
0.237284
0.225308
0.213351
0.201411
0.189487
0.177576
0.165677
0.153789
0.141911
0.130041
0.118178
0.106321
0.0944687
0.0826203
0.070775
0.0589323
0.0470915
0.0352523
0.0234143
0.0115772
-0.00025921
-0.0120951
-0.0239306
-0.0357659
-0.047601
-0.0594359
-0.0712708
-0.0831056
-0.0949404
-0.106775
-0.11861
-0.130444
-0.142279
-0.154114
-0.165948
-0.177783
-0.189618
-0.201452
-0.213285
0.213285
1.31576
1.31576
1.24925
1.20217
1.15922
1.11957
1.08354
1.05116
1.02206
0.995721
0.971611
0.949258
0.928285
0.908404
0.889398
0.871108
0.853417
0.836235
0.819496
0.803146
0.787143
0.771451
0.756041
0.740888
0.725971
0.71127
0.696768
0.682449
0.668301
0.65431
0.640466
0.626756
0.613174
0.599708
0.586352
0.573098
0.55994
0.54687
0.533883
0.520973
0.508136
0.495367
0.482661
0.470015
0.457423
0.444884
0.432393
0.419948
0.407545
0.395182
0.382857
0.370568
0.358312
0.346087
0.333893
0.321728
0.30959
0.297479
0.285394
0.273332
0.261294
0.249279
0.237284
0.225308
0.213351
0.201411
0.189487
0.177576
0.165677
0.153789
0.141911
0.130041
0.118178
0.106321
0.0944687
0.0826203
0.070775
0.0589323
0.0470915
0.0352523
0.0234143
0.0115772
-0.00025921
-0.0120951
-0.0239306
-0.0357659
-0.047601
-0.0594359
-0.0712708
-0.0831056
-0.0949404
-0.106775
-0.11861
-0.130444
-0.142279
-0.154114
-0.165948
-0.177783
-0.189618
-0.201452
-0.213285
0.213285
SCALARS phi double
LOOKUP_TABLE phi
1
1
1
0.999995
0.999977
0.999931
0.999833
0.999654
0.999363
0.998928
0.998322
0.997522
0.996512
0.995278
0.993814
0.992117
0.990185
0.98803
0.985665
0.983098
0.980298
0.977162
0.973497
0.969027
0.963426
0.956366
0.94756
0.936799
0.923959
0.909005
0.891979
0.872985
0.852172
0.829724
0.805845
0.780749
0.754655
0.727776
0.700321
0.672483
0.644443
0.616364
0.588396
0.560666
0.533289
0.506362
0.479967
0.454173
0.429035
0.404598
0.380895
0.357953
0.335788
0.314411
0.293829
0.274041
0.255045
0.236835
0.219402
0.202739
0.186834
0.171676
0.157257
0.143565
0.130591
0.118327
0.106765
0.0958989
0.085721
0.0762252
0.0674048
0.059252
0.0517572
0.0449087
0.0386918
0.0330885
0.0280769
0.0236311
0.0197214
0.0163147
0.0133746
0.0108624
0.00873795
0.00696038
0.00548922
0.00428514
0.00331078
0.00253133
0.001915
0.00143335
0.00106137
0.000777465
0.000563351
0.000403783
0.000286271
0.000200755
0.000139253
9.55636e-05
6.4784e-05
4.38703e-05
2.72962e-05
2.72962e-05
1
1
1
0.999995
0.999977
0.999931
0.999833
0.999654
0.999363
0.998928
0.998322
0.997522
0.996512
0.995278
0.993814
0.992117
0.990185
0.98803
0.985665
0.983098
0.980298
0.977162
0.973497
0.969027
0.963426
0.956366
0.94756
0.936799
0.923959
0.909005
0.891979
0.872985
0.852172
0.829724
0.805845
0.780749
0.754655
0.727776
0.700321
0.672483
0.644443
0.616364
0.588396
0.560666
0.533289
0.506362
0.479967
0.454173
0.429035
0.404598
0.380895
0.357953
0.335788
0.314411
0.293829
0.274041
0.255045
0.236835
0.219402
0.202739
0.186834
0.171676
0.157257
0.143565
0.130591
0.118327
0.106765
0.0958989
0.085721
0.0762252
0.0674048
0.059252
0.0517572
0.0449087
0.0386918
0.0330885
0.0280769
0.0236311
0.0197214
0.0163147
0.0133746
0.0108624
0.00873795
0.00696038
0.00548922
0.00428514
0.00331078
0.00253133
0.001915
0.00143335
0.00106137
0.000777465
0.000563351
0.000403783
0.000286271
0.000200755
0.000139253
9.55636e-05
6.4784e-05
4.38703e-05
2.72962e-05
2.72962e-05
0.999998
1
0.999984
0.999921
0.999783
0.999536
0.999146
0.99858
0.997811
0.996819
0.995589
0.994116
0.992397
0.990436
0.98824
0.985816
0.983176
0.980331
0.977296
0.974087
0.970715
0.967173
0.963427
0.959401
0.954978
0.950003
0.944296
0.937673
0.929962
0.921014
0.910718
0.899002
0.885834
0.871221
0.855206
0.837858
0.819274
0.799565
0.778858
0.757286
0.734987
0.712096
0.688748
0.66507
0.641185
0.617204
0.59323
0.569358
0.545671
0.522242
0.499138
0.476412
0.454113
0.432277
0.410935
0.390112
0.369823
0.350079
0.330885
0.312241
0.294143
0.276585
0.259555
0.243042
0.227035
0.21152
0.196488
0.18193
0.167842
0.154224
0.141083
0.128432
0.116288
0.104677
0.0936267
0.0831695
0.0733379
0.0641627
0.0556707
0.0478818
0.0408071
0.0344476
0.0287933
0.0238231
0.0195058
0.0158009
0.0126609
0.0100331
0.00786198
0.00609118
0.00466557
0.00353273
0.00264423
0.00195638
0.00143077
0.00103431
0.00073907
0.000522156
0.00036409
0.000253741
0.000161872
0.000161872
1.00001
0.999992
0.99954
0.998615
0.997207
0.995316
0.992954
0.990144
0.986922
0.983331
0.979421
0.975241
0.970836
0.966247
0.961513
0.956664
0.951728
0.946727
0.941682
0.936608
0.931521
0.92643
0.92134
0.916245
0.911125
0.905945
0.900652
0.895178
0.889444
0.883361
0.87684
0.869792
0.862137
0.853804
0.844737
0.834893
0.824245
0.812783
0.800509
0.787443
0.773613
0.759059
0.74383
0.727981
0.711573
0.69467
0.677336
0.659639
0.641644
0.623415
0.605013
0.586498
0.567923
0.549341
0.530795
0.512329
0.493976
0.475766
0.457723
0.439865
0.422203
0.404743
0.387482
0.370414
0.353526
0.3368
0.320213
0.30374
0.287355
0.271036
0.254763
0.238528
0.222334
0.206202
0.19017
0.174297
0.158661
0.143357
0.128494
0.114187
0.100552
0.0876995
0.0757257
0.0647077
0.0546997
0.0457296
0.0377991
0.0308847
0.0249405
0.0199023
0.0156924
0.0122245
0.00940816
0.00715308
0.0053727
0.00398665
0.00292232
0.00211694
0.00151236
0.00108013
0.000705534
0.000705534
1.00143
0.99857
0.991252
0.98188
0.971566
0.96086
0.950051
0.939311
0.928756
0.918467
0.908503
0.898898
0.889671
0.880827
0.87236
0.864261
0.856512
0.849097
0.841997
0.835192
0.828664
0.822396
0.81637
0.810568
0.804973
0.799564
0.794318
0.789206
0.784195
0.779248
0.774323
0.769372
0.764349
0.759201
0.75388
0.748337
0.742526
0.736404
0.729936
0.723089
0.715837
0.708161
0.700047
0.691489
0.682485
0.673038
0.663158
0.652858
0.642155
0.631071
0.619627
0.607848
0.595763
0.583397
0.570778
0.557934
0.544892
0.531675
0.518306
0.504805
0.491187
0.477464
0.463642
0.449721
0.435694
0.421546
0.407251
0.392775
0.378076
0.3631
0.347794
0.332099
0.315964
0.299353
0.282249
0.264662
0.246641
0.228269
0.209673
0.19101
0.172472
0.154267
0.136611
0.119714
0.103769
0.0889398
0.0753508
0.0630857
0.0521831
0.0426394
0.0344125
0.0274285
0.0215895
0.016781
0.0128803
0.00976264
0.00730686
0.00540252
0.00393715
0.00286866
0.00191185
0.00191185
1.0456
0.954401
0.887723
0.838674
0.801641
0.772861
0.749886
0.731119
0.715499
0.702298
0.691001
0.681228
0.672693
0.665173
0.658493
0.652515
0.647126
0.642236
0.637772
0.633674
0.629891
0.626383
0.623115
0.620059
0.61719
0.614487
0.611931
0.609503
0.607187
0.604964
0.602818
0.600729
0.598677
0.59664
0.594595
0.592517
0.590383
0.588166
0.585841
0.583383
0.580767
0.577969
0.574968
0.571743
0.568275
0.564548
0.560548
0.556264
0.551685
0.546805
0.541619
0.536125
0.530321
0.52421
0.517793
0.511077
0.504065
0.496765
0.489183
0.481325
0.473197
0.464801
0.45614
0.44721
0.438004
0.428503
0.418684
0.408508
0.397924
0.386867
0.375259
0.363011
0.350032
0.336234
0.321544
0.305913
0.289334
0.271841
0.253526
0.234534
0.215062
0.195351
0.175674
0.156317
0.137566
0.119687
0.102912
0.0874259
0.0733622
0.0607969
0.0497516
0.0401981
0.0320661
0.0252531
0.0196338
0.0150704
0.0114199
0.00854692
0.00630284
0.00464719
0.00313513
0.00313513
-0.0455988
0.0455988
0.112277
0.161327
0.198359
0.227139
0.250114
0.268881
0.284502
0.297702
0.308999
0.318772
0.327307
0.334827
0.341507
0.347485
0.352874
0.357764
0.362228
0.366327
0.37011
0.373618
0.376885
0.379941
0.38281
0.385511
0.388063
0.390481
0.392775
0.394958
0.397037
0.399018
0.400906
0.402705
0.404414
0.406033
0.407559
0.408989
0.410317
0.411535
0.412636
0.41361
0.414447
0.415135
0.415663
0.416018
0.416188
0.416161
0.415924
0.415466
0.414774
0.413838
0.412648
0.411194
0.409467
0.40746