# vtk DataFile Version 3.0
FlowField
ASCII
DATASET STRUCTURED_GRID
DIMENSIONS 102 12 1 
POINTS 1224 double
0 0 0
0.3 0 0
0.6 0 0
0.9 0 0
1.2 0 0
1.5 0 0
1.8 0 0
2.1 0 0
2.4 0 0
2.7 0 0
3 0 0
3.3 0 0
3.6 0 0
3.9 0 0
4.2 0 0
4.5 0 0
4.8 0 0
5.1 0 0
5.4 0 0
5.7 0 0
6 0 0
6.3 0 0
6.6 0 0
6.9 0 0
7.2 0 0
7.5 0 0
7.8 0 0
8.1 0 0
8.4 0 0
8.7 0 0
9 0 0
9.3 0 0
9.6 0 0
9.9 0 0
10.2 0 0
10.5 0 0
10.8 0 0
11.1 0 0
11.4 0 0
11.7 0 0
12 0 0
12.3 0 0
12.6 0 0
12.9 0 0
13.2 0 0
13.5 0 0
13.8 0 0
14.1 0 0
14.4 0 0
14.7 0 0
15 0 0
15.3 0 0
15.6 0 0
15.9 0 0
16.2 0 0
16.5 0 0
16.8 0 0
17.1 0 0
17.4 0 0
17.7 0 0
18 0 0
18.3 0 0
18.6 0 0
18.9 0 0
19.2 0 0
19.5 0 0
19.8 0 0
20.1 0 0
20.4 0 0
20.7 0 0
21 0 0
21.3 0 0
21.6 0 0
21.9 0 0
22.2 0 0
22.5 0 0
22.8 0 0
23.1 0 0
23.4 0 0
23.7 0 0
24 0 0
24.3 0 0
24.6 0 0
24.9 0 0
25.2 0 0
25.5 0 0
25.8 0 0
26.1 0 0
26.4 0 0
26.7 0 0
27 0 0
27.3 0 0
27.6 0 0
27.9 0 0
28.2 0 0
28.5 0 0
28.8 0 0
29.1 0 0
29.4 0 0
29.7 0 0
30 0 0
30.3 0 0
0 0.1 0
0.3 0.1 0
0.6 0.1 0
0.9 0.1 0
1.2 0.1 0
1.5 0.1 0
1.8 0.1 0
2.1 0.1 0
2.4 0.1 0
2.7 0.1 0
3 0.1 0
3.3 0.1 0
3.6 0.1 0
3.9 0.1 0
4.2 0.1 0
4.5 0.1 0
4.8 0.1 0
5.1 0.1 0
5.4 0.1 0
5.7 0.1 0
6 0.1 0
6.3 0.1 0
6.6 0.1 0
6.9 0.1 0
7.2 0.1 0
7.5 0.1 0
7.8 0.1 0
8.1 0.1 0
8.4 0.1 0
8.7 0.1 0
9 0.1 0
9.3 0.1 0
9.6 0.1 0
9.9 0.1 0
10.2 0.1 0
10.5 0.1 0
10.8 0.1 0
11.1 0.1 0
11.4 0.1 0
11.7 0.1 0
12 0.1 0
12.3 0.1 0
12.6 0.1 0
12.9 0.1 0
13.2 0.1 0
13.5 0.1 0
13.8 0.1 0
14.1 0.1 0
14.4 0.1 0
14.7 0.1 0
15 0.1 0
15.3 0.1 0
15.6 0.1 0
15.9 0.1 0
16.2 0.1 0
16.5 0.1 0
16.8 0.1 0
17.1 0.1 0
17.4 0.1 0
17.7 0.1 0
18 0.1 0
18.3 0.1 0
18.6 0.1 0
18.9 0.1 0
19.2 0.1 0
19.5 0.1 0
19.8 0.1 0
20.1 0.1 0
20.4 0.1 0
20.7 0.1 0
21 0.1 0
21.3 0.1 0
21.6 0.1 0
21.9 0.1 0
22.2 0.1 0
22.5 0.1 0
22.8 0.1 0
23.1 0.1 0
23.4 0.1 0
23.7 0.1 0
24 0.1 0
24.3 0.1 0
24.6 0.1 0
24.9 0.1 0
25.2 0.1 0
25.5 0.1 0
25.8 0.1 0
26.1 0.1 0
26.4 0.1 0
26.7 0.1 0
27 0.1 0
27.3 0.1 0
27.6 0.1 0
27.9 0.1 0
28.2 0.1 0
28.5 0.1 0
28.8 0.1 0
29.1 0.1 0
29.4 0.1 0
29.7 0.1 0
30 0.1 0
30.3 0.1 0
0 0.2 0
0.3 0.2 0
0.6 0.2 0
0.9 0.2 0
1.2 0.2 0
1.5 0.2 0
1.8 0.2 0
2.1 0.2 0
2.4 0.2 0
2.7 0.2 0
3 0.2 0
3.3 0.2 0
3.6 0.2 0
3.9 0.2 0
4.2 0.2 0
4.5 0.2 0
4.8 0.2 0
5.1 0.2 0
5.4 0.2 0
5.7 0.2 0
6 0.2 0
6.3 0.2 0
6.6 0.2 0
6.9 0.2 0
7.2 0.2 0
7.5 0.2 0
7.8 0.2 0
8.1 0.2 0
8.4 0.2 0
8.7 0.2 0
9 0.2 0
9.3 0.2 0
9.6 0.2 0
9.9 0.2 0
10.2 0.2 0
10.5 0.2 0
10.8 0.2 0
11.1 0.2 0
11.4 0.2 0
11.7 0.2 0
12 0.2 0
12.3 0.2 0
12.6 0.2 0
12.9 0.2 0
13.2 0.2 0
13.5 0.2 0
13.8 0.2 0
14.1 0.2 0
14.4 0.2 0
14.7 0.2 0
15 0.2 0
15.3 0.2 0
15.6 0.2 0
15.9 0.2 0
16.2 0.2 0
16.5 0.2 0
16.8 0.2 0
17.1 0.2 0
17.4 0.2 0
17.7 0.2 0
18 0.2 0
18.3 0.2 0
18.6 0.2 0
18.9 0.2 0
19.2 0.2 0
19.5 0.2 0
19.8 0.2 0
20.1 0.2 0
20.4 0.2 0
20.7 0.2 0
21 0.2 0
21.3 0.2 0
21.6 0.2 0
21.9 0.2 0
22.2 0.2 0
22.5 0.2 0
22.8 0.2 0
23.1 0.2 0
23.4 0.2 0
23.7 0.2 0
24 0.2 0
24.3 0.2 0
24.6 0.2 0
24.9 0.2 0
25.2 0.2 0
25.5 0.2 0
25.8 0.2 0
26.1 0.2 0
26.4 0.2 0
26.7 0.2 0
27 0.2 0
27.3 0.2 0
27.6 0.2 0
27.9 0.2 0
28.2 0.2 0
28.5 0.2 0
28.8 0.2 0
29.1 0.2 0
29.4 0.2 0
29.7 0.2 0
30 0.2 0
30.3 0.2 0
0 0.3 0
0.3 0.3 0
0.6 0.3 0
0.9 0.3 0
1.2 0.3 0
1.5 0.3 0
1.8 0.3 0
2.1 0.3 0
2.4 0.3 0
2.7 0.3 0
3 0.3 0
3.3 0.3 0
3.6 0.3 0
3.9 0.3 0
4.2 0.3 0
4.5 0.3 0
4.8 0.3 0
5.1 0.3 0
5.4 0.3 0
5.7 0.3 0
6 0.3 0
6.3 0.3 0
6.6 0.3 0
6.9 0.3 0
7.2 0.3 0
7.5 0.3 0
7.8 0.3 0
8.1 0.3 0
8.4 0.3 0
8.7 0.3 0
9 0.3 0
9.3 0.3 0
9.6 0.3 0
9.9 0.3 0
10.2 0.3 0
10.5 0.3 0
10.8 0.3 0
11.1 0.3 0
11.4 0.3 0
11.7 0.3 0
12 0.3 0
12.3 0.3 0
12.6 0.3 0
12.9 0.3 0
13.2 0.3 0
13.5 0.3 0
13.8 0.3 0
14.1 0.3 0
14.4 0.3 0
14.7 0.3 0
15 0.3 0
15.3 0.3 0
15.6 0.3 0
15.9 0.3 0
16.2 0.3 0
16.5 0.3 0
16.8 0.3 0
17.1 0.3 0
17.4 0.3 0
17.7 0.3 0
18 0.3 0
18.3 0.3 0
18.6 0.3 0
18.9 0.3 0
19.2 0.3 0
19.5 0.3 0
19.8 0.3 0
20.1 0.3 0
20.4 0.3 0
20.7 0.3 0
21 0.3 0
21.3 0.3 0
21.6 0.3 0
21.9 0.3 0
22.2 0.3 0
22.5 0.3 0
22.8 0.3 0
23.1 0.3 0
23.4 0.3 0
23.7 0.3 0
24 0.3 0
24.3 0.3 0
24.6 0.3 0
24.9 0.3 0
25.2 0.3 0
25.5 0.3 0
25.8 0.3 0
26.1 0.3 0
26.4 0.3 0
26.7 0.3 0
27 0.3 0
27.3 0.3 0
27.6 0.3 0
27.9 0.3 0
28.2 0.3 0
28.5 0.3 0
28.8 0.3 0
29.1 0.3 0
29.4 0.3 0
29.7 0.3 0
30 0.3 0
30.3 0.3 0
0 0.4 0
0.3 0.4 0
0.6 0.4 0
0.9 0.4 0
1.2 0.4 0
1.5 0.4 0
1.8 0.4 0
2.1 0.4 0
2.4 0.4 0
2.7 0.4 0
3 0.4 0
3.3 0.4 0
3.6 0.4 0
3.9 0.4 0
4.2 0.4 0
4.5 0.4 0
4.8 0.4 0
5.1 0.4 0
5.4 0.4 0
5.7 0.4 0
6 0.4 0
6.3 0.4 0
6.6 0.4 0
6.9 0.4 0
7.2 0.4 0
7.5 0.4 0
7.8 0.4 0
8.1 0.4 0
8.4 0.4 0
8.7 0.4 0
9 0.4 0
9.3 0.4 0
9.6 0.4 0
9.9 0.4 0
10.2 0.4 0
10.5 0.4 0
10.8 0.4 0
11.1 0.4 0
11.4 0.4 0
11.7 0.4 0
12 0.4 0
12.3 0.4 0
12.6 0.4 0
12.9 0.4 0
13.2 0.4 0
13.5 0.4 0
13.8 0.4 0
14.1 0.4 0
14.4 0.4 0
14.7 0.4 0
15 0.4 0
15.3 0.4 0
15.6 0.4 0
15.9 0.4 0
16.2 0.4 0
16.5 0.4 0
16.8 0.4 0
17.1 0.4 0
17.4 0.4 0
17.7 0.4 0
18 0.4 0
18.3 0.4 0
18.6 0.4 0
18.9 0.4 0
19.2 0.4 0
19.5 0.4 0
19.8 0.4 0
20.1 0.4 0
20.4 0.4 0
20.7 0.4 0
21 0.4 0
21.3 0.4 0
21.6 0.4 0
21.9 0.4 0
22.2 0.4 0
22.5 0.4 0
22.8 0.4 0
23.1 0.4 0
23.4 0.4 0
23.7 0.4 0
24 0.4 0
24.3 0.4 0
24.6 0.4 0
24.9 0.4 0
25.2 0.4 0
25.5 0.4 0
25.8 0.4 0
26.1 0.4 0
26.4 0.4 0
26.7 0.4 0
27 0.4 0
27.3 0.4 0
27.6 0.4 0
27.9 0.4 0
28.2 0.4 0
28.5 0.4 0
28.8 0.4 0
29.1 0.4 0
29.4 0.4 0
29.7 0.4 0
30 0.4 0
30.3 0.4 0
0 0.5 0
0.3 0.5 0
0.6 0.5 0
0.9 0.5 0
1.2 0.5 0
1.5 0.5 0
1.8 0.5 0
2.1 0.5 0
2.4 0.5 0
2.7 0.5 0
3 0.5 0
3.3 0.5 0
3.6 0.5 0
3.9 0.5 0
4.2 0.5 0
4.5 0.5 0
4.8 0.5 0
5.1 0.5 0
5.4 0.5 0
5.7 0.5 0
6 0.5 0
6.3 0.5 0
6.6 0.5 0
6.9 0.5 0
7.2 0.5 0
7.5 0.5 0
7.8 0.5 0
8.1 0.5 0
8.4 0.5 0
8.7 0.5 0
9 0.5 0
9.3 0.5 0
9.6 0.5 0
9.9 0.5 0
10.2 0.5 0
10.5 0.5 0
10.8 0.5 0
11.1 0.5 0
11.4 0.5 0
11.7 0.5 0
12 0.5 0
12.3 0.5 0
12.6 0.5 0
12.9 0.5 0
13.2 0.5 0
13.5 0.5 0
13.8 0.5 0
14.1 0.5 0
14.4 0.5 0
14.7 0.5 0
15 0.5 0
15.3 0.5 0
15.6 0.5 0
15.9 0.5 0
16.2 0.5 0
16.5 0.5 0
16.8 0.5 0
17.1 0.5 0
17.4 0.5 0
17.7 0.5 0
18 0.5 0
18.3 0.5 0
18.6 0.5 0
18.9 0.5 0
19.2 0.5 0
19.5 0.5 0
19.8 0.5 0
20.1 0.5 0
20.4 0.5 0
20.7 0.5 0
21 0.5 0
21.3 0.5 0
21.6 0.5 0
21.9 0.5 0
22.2 0.5 0
22.5 0.5 0
22.8 0.5 0
23.1 0.5 0
23.4 0.5 0
23.7 0.5 0
24 0.5 0
24.3 0.5 0
24.6 0.5 0
24.9 0.5 0
25.2 0.5 0
25.5 0.5 0
25.8 0.5 0
26.1 0.5 0
26.4 0.5 0
26.7 0.5 0
27 0.5 0
27.3 0.5 0
27.6 0.5 0
27.9 0.5 0
28.2 0.5 0
28.5 0.5 0
28.8 0.5 0
29.1 0.5 0
29.4 0.5 0
29.7 0.5 0
30 0.5 0
30.3 0.5 0
0 0.6 0
0.3 0.6 0
0.6 0.6 0
0.9 0.6 0
1.2 0.6 0
1.5 0.6 0
1.8 0.6 0
2.1 0.6 0
2.4 0.6 0
2.7 0.6 0
3 0.6 0
3.3 0.6 0
3.6 0.6 0
3.9 0.6 0
4.2 0.6 0
4.5 0.6 0
4.8 0.6 0
5.1 0.6 0
5.4 0.6 0
5.7 0.6 0
6 0.6 0
6.3 0.6 0
6.6 0.6 0
6.9 0.6 0
7.2 0.6 0
7.5 0.6 0
7.8 0.6 0
8.1 0.6 0
8.4 0.6 0
8.7 0.6 0
9 0.6 0
9.3 0.6 0
9.6 0.6 0
9.9 0.6 0
10.2 0.6 0
10.5 0.6 0
10.8 0.6 0
11.1 0.6 0
11.4 0.6 0
11.7 0.6 0
12 0.6 0
12.3 0.6 0
12.6 0.6 0
12.9 0.6 0
13.2 0.6 0
13.5 0.6 0
13.8 0.6 0
14.1 0.6 0
14.4 0.6 0
14.7 0.6 0
15 0.6 0
15.3 0.6 0
15.6 0.6 0
15.9 0.6 0
16.2 0.6 0
16.5 0.6 0
16.8 0.6 0
17.1 0.6 0
17.4 0.6 0
17.7 0.6 0
18 0.6 0
18.3 0.6 0
18.6 0.6 0
18.9 0.6 0
19.2 0.6 0
19.5 0.6 0
19.8 0.6 0
20.1 0.6 0
20.4 0.6 0
20.7 0.6 0
21 0.6 0
21.3 0.6 0
21.6 0.6 0
21.9 0.6 0
22.2 0.6 0
22.5 0.6 0
22.8 0.6 0
23.1 0.6 0
23.4 0.6 0
23.7 0.6 0
24 0.6 0
24.3 0.6 0
24.6 0.6 0
24.9 0.6 0
25.2 0.6 0
25.5 0.6 0
25.8 0.6 0
26.1 0.6 0
26.4 0.6 0
26.7 0.6 0
27 0.6 0
27.3 0.6 0
27.6 0.6 0
27.9 0.6 0
28.2 0.6 0
28.5 0.6 0
28.8 0.6 0
29.1 0.6 0
29.4 0.6 0
29.7 0.6 0
30 0.6 0
30.3 0.6 0
0 0.7 0
0.3 0.7 0
0.6 0.7 0
0.9 0.7 0
1.2 0.7 0
1.5 0.7 0
1.8 0.7 0
2.1 0.7 0
2.4 0.7 0
2.7 0.7 0
3 0.7 0
3.3 0.7 0
3.6 0.7 0
3.9 0.7 0
4.2 0.7 0
4.5 0.7 0
4.8 0.7 0
5.1 0.7 0
5.4 0.7 0
5.7 0.7 0
6 0.7 0
6.3 0.7 0
6.6 0.7 0
6.9 0.7 0
7.2 0.7 0
7.5 0.7 0
7.8 0.7 0
8.1 0.7 0
8.4 0.7 0
8.7 0.7 0
9 0.7 0
9.3 0.7 0
9.6 0.7 0
9.9 0.7 0
10.2 0.7 0
10.5 0.7 0
10.8 0.7 0
11.1 0.7 0
11.4 0.7 0
11.7 0.7 0
12 0.7 0
12.3 0.7 0
12.6 0.7 0
12.9 0.7 0
13.2 0.7 0
13.5 0.7 0
13.8 0.7 0
14.1 0.7 0
14.4 0.7 0
14.7 0.7 0
15 0.7 0
15.3 0.7 0
15.6 0.7 0
15.9 0.7 0
16.2 0.7 0
16.5 0.7 0
16.8 0.7 0
17.1 0.7 0
17.4 0.7 0
17.7 0.7 0
18 0.7 0
18.3 0.7 0
18.6 0.7 0
18.9 0.7 0
19.2 0.7 0
19.5 0.7 0
19.8 0.7 0
20.1 0.7 0
20.4 0.7 0
20.7 0.7 0
21 0.7 0
21.3 0.7 0
21.6 0.7 0
21.9 0.7 0
22.2 0.7 0
22.5 0.7 0
22.8 0.7 0
23.1 0.7 0
23.4 0.7 0
23.7 0.7 0
24 0.7 0
24.3 0.7 0
24.6 0.7 0
24.9 0.7 0
25.2 0.7 0
25.5 0.7 0
25.8 0.7 0
26.1 0.7 0
26.4 0.7 0
26.7 0.7 0
27 0.7 0
27.3 0.7 0
27.6 0.7 0
27.9 0.7 0
28.2 0.7 0
28.5 0.7 0
28.8 0.7 0
29.1 0.7 0
29.4 0.7 0
29.7 0.7 0
30 0.7 0
30.3 0.7 0
0 0.8 0
0.3 0.8 0
0.6 0.8 0
0.9 0.8 0
1.2 0.8 0
1.5 0.8 0
1.8 0.8 0
2.1 0.8 0
2.4 0.8 0
2.7 0.8 0
3 0.8 0
3.3 0.8 0
3.6 0.8 0
3.9 0.8 0
4.2 0.8 0
4.5 0.8 0
4.8 0.8 0
5.1 0.8 0
5.4 0.8 0
5.7 0.8 0
6 0.8 0
6.3 0.8 0
6.6 0.8 0
6.9 0.8 0
7.2 0.8 0
7.5 0.8 0
7.8 0.8 0
8.1 0.8 0
8.4 0.8 0
8.7 0.8 0
9 0.8 0
9.3 0.8 0
9.6 0.8 0
9.9 0.8 0
10.2 0.8 0
10.5 0.8 0
10.8 0.8 0
11.1 0.8 0
11.4 0.8 0
11.7 0.8 0
12 0.8 0
12.3 0.8 0
12.6 0.8 0
12.9 0.8 0
13.2 0.8 0
13.5 0.8 0
13.8 0.8 0
14.1 0.8 0
14.4 0.8 0
14.7 0.8 0
15 0.8 0
15.3 0.8 0
15.6 0.8 0
15.9 0.8 0
16.2 0.8 0
16.5 0.8 0
16.8 0.8 0
17.1 0.8 0
17.4 0.8 0
17.7 0.8 0
18 0.8 0
18.3 0.8 0
18.6 0.8 0
18.9 0.8 0
19.2 0.8 0
19.5 0.8 0
19.8 0.8 0
20.1 0.8 0
20.4 0.8 0
20.7 0.8 0
21 0.8 0
21.3 0.8 0
21.6 0.8 0
21.9 0.8 0
22.2 0.8 0
22.5 0.8 0
22.8 0.8 0
23.1 0.8 0
23.4 0.8 0
23.7 0.8 0
24 0.8 0
24.3 0.8 0
24.6 0.8 0
24.9 0.8 0
25.2 0.8 0
25.5 0.8 0
25.8 0.8 0
26.1 0.8 0
26.4 0.8 0
26.7 0.8 0
27 0.8 0
27.3 0.8 0
27.6 0.8 0
27.9 0.8 0
28.2 0.8 0
28.5 0.8 0
28.8 0.8 0
29.1 0.8 0
29.4 0.8 0
29.7 0.8 0
30 0.8 0
30.3 0.8 0
0 0.9 0
0.3 0.9 0
0.6 0.9 0
0.9 0.9 0
1.2 0.9 0
1.5 0.9 0
1.8 0.9 0
2.1 0.9 0
2.4 0.9 0
2.7 0.9 0
3 0.9 0
3.3 0.9 0
3.6 0.9 0
3.9 0.9 0
4.2 0.9 0
4.5 0.9 0
4.8 0.9 0
5.1 0.9 0
5.4 0.9 0
5.7 0.9 0
6 0.9 0
6.3 0.9 0
6.6 0.9 0
6.9 0.9 0
7.2 0.9 0
7.5 0.9 0
7.8 0.9 0
8.1 0.9 0
8.4 0.9 0
8.7 0.9 0
9 0.9 0
9.3 0.9 0
9.6 0.9 0
9.9 0.9 0
10.2 0.9 0
10.5 0.9 0
10.8 0.9 0
11.1 0.9 0
11.4 0.9 0
11.7 0.9 0
12 0.9 0
12.3 0.9 0
12.6 0.9 0
12.9 0.9 0
13.2 0.9 0
13.5 0.9 0
13.8 0.9 0
14.1 0.9 0
14.4 0.9 0
14.7 0.9 0
15 0.9 0
15.3 0.9 0
15.6 0.9 0
15.9 0.9 0
16.2 0.9 0
16.5 0.9 0
16.8 0.9 0
17.1 0.9 0
17.4 0.9 0
17.7 0.9 0
18 0.9 0
18.3 0.9 0
18.6 0.9 0
18.9 0.9 0
19.2 0.9 0
19.5 0.9 0
19.8 0.9 0
20.1 0.9 0
20.4 0.9 0
20.7 0.9 0
21 0.9 0
21.3 0.9 0
21.6 0.9 0
21.9 0.9 0
22.2 0.9 0
22.5 0.9 0
22.8 0.9 0
23.1 0.9 0
23.4 0.9 0
23.7 0.9 0
24 0.9 0
24.3 0.9 0
24.6 0.9 0
24.9 0.9 0
25.2 0.9 0
25.5 0.9 0
25.8 0.9 0
26.1 0.9 0
26.4 0.9 0
26.7 0.9 0
27 0.9 0
27.3 0.9 0
27.6 0.9 0
27.9 0.9 0
28.2 0.9 0
28.5 0.9 0
28.8 0.9 0
29.1 0.9 0
29.4 0.9 0
29.7 0.9 0
30 0.9 0
30.3 0.9 0
0 1 0
0.3 1 0
0.6 1 0
0.9 1 0
1.2 1 0
1.5 1 0
1.8 1 0
2.1 1 0
2.4 1 0
2.7 1 0
3 1 0
3.3 1 0
3.6 1 0
3.9 1 0
4.2 1 0
4.5 1 0
4.8 1 0
5.1 1 0
5.4 1 0
5.7 1 0
6 1 0
6.3 1 0
6.6 1 0
6.9 1 0
7.2 1 0
7.5 1 0
7.8 1 0
8.1 1 0
8.4 1 0
8.7 1 0
9 1 0
9.3 1 0
9.6 1 0
9.9 1 0
10.2 1 0
10.5 1 0
10.8 1 0
11.1 1 0
11.4 1 0
11.7 1 0
12 1 0
12.3 1 0
12.6 1 0
12.9 1 0
13.2 1 0
13.5 1 0
13.8 1 0
14.1 1 0
14.4 1 0
14.7 1 0
15 1 0
15.3 1 0
15.6 1 0
15.9 1 0
16.2 1 0
16.5 1 0
16.8 1 0
17.1 1 0
17.4 1 0
17.7 1 0
18 1 0
18.3 1 0
18.6 1 0
18.9 1 0
19.2 1 0
19.5 1 0
19.8 1 0
20.1 1 0
20.4 1 0
20.7 1 0
21 1 0
21.3 1 0
21.6 1 0
21.9 1 0
22.2 1 0
22.5 1 0
22.8 1 0
23.1 1 0
23.4 1 0
23.7 1 0
24 1 0
24.3 1 0
24.6 1 0
24.9 1 0
25.2 1 0
25.5 1 0
25.8 1 0
26.1 1 0
26.4 1 0
26.7 1 0
27 1 0
27.3 1 0
27.6 1 0
27.9 1 0
28.2 1 0
28.5 1 0
28.8 1 0
29.1 1 0
29.4 1 0
29.7 1 0
30 1 0
30.3 1 0
0 1.1 0
0.3 1.1 0
0.6 1.1 0
0.9 1.1 0
1.2 1.1 0
1.5 1.1 0
1.8 1.1 0
2.1 1.1 0
2.4 1.1 0
2.7 1.1 0
3 1.1 0
3.3 1.1 0
3.6 1.1 0
3.9 1.1 0
4.2 1.1 0
4.5 1.1 0
4.8 1.1 0
5.1 1.1 0
5.4 1.1 0
5.7 1.1 0
6 1.1 0
6.3 1.1 0
6.6 1.1 0
6.9 1.1 0
7.2 1.1 0
7.5 1.1 0
7.8 1.1 0
8.1 1.1 0
8.4 1.1 0
8.7 1.1 0
9 1.1 0
9.3 1.1 0
9.6 1.1 0
9.9 1.1 0
10.2 1.1 0
10.5 1.1 0
10.8 1.1 0
11.1 1.1 0
11.4 1.1 0
11.7 1.1 0
12 1.1 0
12.3 1.1 0
12.6 1.1 0
12.9 1.1 0
13.2 1.1 0
13.5 1.1 0
13.8 1.1 0
14.1 1.1 0
14.4 1.1 0
14.7 1.1 0
15 1.1 0
15.3 1.1 0
15.6 1.1 0
15.9 1.1 0
16.2 1.1 0
16.5 1.1 0
16.8 1.1 0
17.1 1.1 0
17.4 1.1 0
17.7 1.1 0
18 1.1 0
18.3 1.1 0
18.6 1.1 0
18.9 1.1 0
19.2 1.1 0
19.5 1.1 0
19.8 1.1 0
20.1 1.1 0
20.4 1.1 0
20.7 1.1 0
21 1.1 0
21.3 1.1 0
21.6 1.1 0
21.9 1.1 0
22.2 1.1 0
22.5 1.1 0
22.8 1.1 0
23.1 1.1 0
23.4 1.1 0
23.7 1.1 0
24 1.1 0
24.3 1.1 0
24.6 1.1 0
24.9 1.1 0
25.2 1.1 0
25.5 1.1 0
25.8 1.1 0
26.1 1.1 0
26.4 1.1 0
26.7 1.1 0
27 1.1 0
27.3 1.1 0
27.6 1.1 0
27.9 1.1 0
28.2 1.1 0
28.5 1.1 0
28.8 1.1 0
29.1 1.1 0
29.4 1.1 0
29.7 1.1 0
30 1.1 0
30.3 1.1 0

POINT_DATA 1224

SCALARS pressure double
LOOKUP_TABLE pressure
1.31565
1.31565
1.24914
1.20206
1.15911
1.11945
1.08343
1.05104
1.02194
0.995605
0.971493
0.949142
0.92817
0.908287
0.889281
0.870992
0.853301
0.836119
0.81938
0.803031
0.787026
0.771334
0.755925
0.740773
0.725855
0.711154
0.696652
0.682334
0.668186
0.654195
0.64035
0.626641
0.613058
0.599593
0.586237
0.572983
0.559825
0.546755
0.533768
0.520858
0.508021
0.495252
0.482546
0.4699
0.457309
0.44477
0.432279
0.419834
0.407432
0.39507
0.382745
0.370455
0.358198
0.345972
0.333774
0.321604
0.309459
0.297338
0.285239
0.273161
0.261103
0.249063
0.23704
0.225033
0.213041
0.201064
0.1891
0.177148
0.165208
0.153279
0.14136
0.129451
0.117551
0.105659
0.0937754
0.081899
0.0700298
0.0581671
0.0463106
0.0344601
0.0226151
0.0107754
-0.00105926
-0.0128891
-0.0247145
-0.0365356
-0.0483525
-0.0601656
-0.071975
-0.083781
-0.0955838
-0.107383
-0.11918
-0.130975
-0.142767
-0.154556
-0.166344
-0.17813
-0.189915
-0.201698
-0.21348
0.21348
1.31565
1.31565
1.24914
1.20206
1.15911
1.11945
1.08343
1.05104
1.02194
0.995605
0.971493
0.949142
0.92817
0.908287
0.889281
0.870992
0.853301
0.836119
0.81938
0.803031
0.787026
0.771334
0.755925
0.740773
0.725855
0.711154
0.696652
0.682334
0.668186
0.654195
0.64035
0.626641
0.613058
0.599593
0.586237
0.572983
0.559825
0.546755
0.533768
0.520858
0.508021
0.495252
0.482546
0.4699
0.457309
0.44477
0.432279
0.419834
0.407432
0.39507
0.382745
0.370455
0.358198
0.345972
0.333774
0.321604
0.309459
0.297338
0.285239
0.273161
0.261103
0.249063
0.23704
0.225033
0.213041
0.201064
0.1891
0.177148
0.165208
0.153279
0.14136
0.129451
0.117551
0.105659
0.0937754
0.081899
0.0700298
0.0581671
0.0463106
0.0344601
0.0226151
0.0107754
-0.00105926
-0.0128891
-0.0247145
-0.0365356
-0.0483525
-0.0601656
-0.071975
-0.083781
-0.0955838
-0.107383
-0.11918
-0.130975
-0.142767
-0.154556
-0.166344
-0.17813
-0.189915
-0.201698
-0.21348
0.21348
1.295
1.295
1.24734
1.20237
1.15982
1.12022
1.08413
1.05163
1.02242
0.995974
0.971779
0.949363
0.928342
0.908424
0.889392
0.871084
0.853378
0.836185
0.819438
0.803081
0.787071
0.771375
0.755962
0.740805
0.725885
0.711181
0.696677
0.682357
0.668207
0.654214
0.640368
0.626658
0.613073
0.599607
0.58625
0.572995
0.559836
0.546765
0.533777
0.520867
0.50803
0.49526
0.482554
0.469907
0.457315
0.444776
0.432285
0.419839
0.407437
0.395074
0.382749
0.370459
0.358201
0.345975
0.333778
0.321607
0.309462
0.297341
0.285242
0.273163
0.261105
0.249065
0.237042
0.225035
0.213043
0.201066
0.189101
0.17715
0.165209
0.15328
0.141361
0.129452
0.117552
0.10566
0.0937762
0.0818999
0.0700305
0.0581678
0.0463113
0.0344607
0.0226157
0.0107759
-0.00105879
-0.0128887
-0.0247141
-0.0365352
-0.0483522
-0.0601654
-0.0719748
-0.0837808
-0.0955836
-0.107383
-0.11918
-0.130975
-0.142767
-0.154556
-0.166344
-0.17813
-0.189915
-0.201698
-0.21348
0.21348
1.28062
1.28062
1.24483
1.20276
1.16095
1.12149
1.0853
1.05263
1.02321
0.996581
0.972235
0.949704
0.928598
0.908618
0.889543
0.871203
0.853474
0.836264
0.819504
0.803137
0.78712
0.771417
0.755999
0.740838
0.725915
0.711208
0.696701
0.682378
0.668226
0.654232
0.640384
0.626672
0.613087
0.599619
0.586262
0.573006
0.559845
0.546774
0.533786
0.520875
0.508037
0.495267
0.48256
0.469912
0.45732
0.444781
0.432289
0.419844
0.407441
0.395078
0.382752
0.370462
0.358205
0.345978
0.33378
0.32161
0.309464
0.297343
0.285244
0.273165
0.261107
0.249066
0.237043
0.225036
0.213044
0.201067
0.189103
0.177151
0.16521
0.153281
0.141362
0.129453
0.117553
0.105661
0.0937769
0.0819005
0.0700311
0.0581683
0.0463118
0.0344612
0.0226161
0.0107763
-0.0010584
-0.0128884
-0.0247138
-0.0365349
-0.048352
-0.0601651
-0.0719746
-0.0837806
-0.0955834
-0.107383
-0.11918
-0.130974
-0.142766
-0.154556
-0.166344
-0.17813
-0.189915
-0.201698
-0.213478
0.213478
1.27193
1.27193
1.24282
1.20302
1.16188
1.12257
1.08633
1.05352
1.02394
0.997159
0.972684
0.950049
0.928864
0.908826
0.889708
0.871336
0.853583
0.836356
0.819582
0.803204
0.787178
0.771468
0.756044
0.740878
0.72595
0.71124
0.69673
0.682404
0.668249
0.654253
0.640404
0.62669
0.613103
0.599634
0.586275
0.573018
0.559857
0.546785
0.533796
0.520884
0.508045
0.495274
0.482567
0.469919
0.457327
0.444786
0.432295
0.419849
0.407445
0.395082
0.382756
0.370466
0.358208
0.345981
0.333783
0.321612
0.309467
0.297345
0.285246
0.273167
0.261109
0.249068
0.237045
0.225038
0.213046
0.201068
0.189104
0.177152
0.165212
0.153282
0.141363
0.129454
0.117554
0.105662
0.0937777
0.0819013
0.0700318
0.058169
0.0463124
0.0344617
0.0226167
0.0107769
-0.00105792
-0.0128879
-0.0247134
-0.0365345
-0.0483516
-0.0601648
-0.0719743
-0.0837804
-0.0955832
-0.107383
-0.11918
-0.130974
-0.142766
-0.154556
-0.166344
-0.17813
-0.189914
-0.201697
-0.213476
0.213476
1.26785
1.26785
1.24174
1.20314
1.16237
1.12315
1.0869
1.05402
1.02436
0.997494
0.972948
0.950256
0.929027
0.908957
0.889814
0.871423
0.853656
0.836418
0.819636
0.803251
0.787219
0.771505
0.756076
0.740907
0.725977
0.711264
0.696751
0.682424
0.668267
0.654269
0.640418
0.626704
0.613116
0.599646
0.586286
0.573028
0.559866
0.546793
0.533803
0.520891
0.508052
0.49528
0.482573
0.469924
0.457331
0.444791
0.432299
0.419853
0.407449
0.395085
0.382759
0.370469
0.358211
0.345984
0.333786
0.321615
0.309469
0.297347
0.285248
0.273169
0.26111
0.24907
0.237046
0.225039
0.213047
0.201069
0.189105
0.177153
0.165213
0.153283
0.141364
0.129455
0.117554
0.105662
0.0937784
0.0819019
0.0700324
0.0581695
0.0463129
0.0344622
0.0226171
0.0107773
-0.00105752
-0.0128875
-0.024713
-0.0365342
-0.0483513
-0.0601645
-0.071974
-0.0837801
-0.0955829
-0.107383
-0.11918
-0.130974
-0.142766
-0.154556
-0.166344
-0.17813
-0.189914
-0.201696
-0.213474
0.213474
1.26784
1.26784
1.24174
1.20314
1.16237
1.12315
1.0869
1.05402
1.02436
0.997494
0.972949
0.950256
0.929027
0.908957
0.889814
0.871423
0.853656
0.836418
0.819636
0.803251
0.787219
0.771505
0.756076
0.740907
0.725977
0.711264
0.696751
0.682424
0.668267
0.654269
0.640418
0.626704
0.613116
0.599646
0.586286
0.573028
0.559866
0.546793
0.533803
0.520891
0.508052
0.49528
0.482573
0.469924
0.457331
0.444791
0.432299
0.419853
0.407449
0.395085
0.382759
0.370469
0.358211
0.345984
0.333786
0.321615
0.309469
0.297347
0.285248
0.273169
0.26111
0.24907
0.237046
0.225039
0.213047
0.201069
0.189105
0.177153
0.165213
0.153283
0.141364
0.129455
0.117554
0.105662
0.0937784
0.0819019
0.0700324
0.0581695
0.0463129
0.0344622
0.0226171
0.0107773
-0.00105752
-0.0128875
-0.024713
-0.0365342
-0.0483513
-0.0601645
-0.071974
-0.0837801
-0.0955829
-0.107383
-0.11918
-0.130974
-0.142766
-0.154556
-0.166344
-0.17813
-0.189914
-0.201696
-0.213474
0.213474
1.27192
1.27192
1.24282
1.20302
1.16188
1.12256
1.08634
1.05352
1.02394
0.99716
0.972685
0.950048
0.928863
0.908827
0.889708
0.871335
0.853583
0.836356
0.819582
0.803204
0.787178
0.771468
0.756043
0.740878
0.72595
0.71124
0.69673
0.682404
0.668249
0.654253
0.640404
0.62669
0.613103
0.599634
0.586275
0.573018
0.559857
0.546785
0.533796
0.520884
0.508045
0.495274
0.482567
0.469919
0.457327
0.444786
0.432295
0.419849
0.407445
0.395082
0.382756
0.370466
0.358208
0.345981
0.333783
0.321612
0.309467
0.297345
0.285246
0.273167
0.261109
0.249068
0.237045
0.225038
0.213046
0.201068
0.189104
0.177152
0.165212
0.153282
0.141363
0.129454
0.117554
0.105662
0.0937777
0.0819013
0.0700318
0.058169
0.0463124
0.0344618
0.0226167
0.0107769
-0.00105792
-0.0128879
-0.0247134
-0.0365345
-0.0483516
-0.0601648
-0.0719743
-0.0837804
-0.0955832
-0.107383
-0.11918
-0.130974
-0.142766
-0.154556
-0.166344
-0.17813
-0.189914
-0.201697
-0.213476
0.213476
1.28061
1.28061
1.24483
1.20276
1.16095
1.12149
1.0853
1.05263
1.02321
0.996581
0.972236
0.949703
0.928597
0.908619
0.889543
0.871202
0.853474
0.836265
0.819504
0.803137
0.78712
0.771417
0.755999
0.740838
0.725915
0.711208
0.696701
0.682378
0.668226
0.654232
0.640384
0.626672
0.613087
0.59962
0.586262
0.573006
0.559845
0.546774
0.533786
0.520875
0.508037
0.495267
0.48256
0.469912
0.45732
0.44478
0.432289
0.419844
0.407441
0.395078
0.382752
0.370462
0.358204
0.345978
0.33378
0.321609
0.309464
0.297343
0.285244
0.273165
0.261107
0.249066
0.237043
0.225036
0.213044
0.201067
0.189103
0.177151
0.16521
0.153281
0.141362
0.129453
0.117553
0.105661
0.0937769
0.0819005
0.0700311
0.0581683
0.0463118
0.0344612
0.0226161
0.0107763
-0.0010584
-0.0128884
-0.0247138
-0.0365349
-0.048352
-0.0601651
-0.0719746
-0.0837806
-0.0955834
-0.107383
-0.11918
-0.130974
-0.142766
-0.154556
-0.166344
-0.17813
-0.189915
-0.201698
-0.213478
0.213478
1.295
1.295
1.24734
1.20237
1.15982
1.12022
1.08413
1.05163
1.02242
0.995975
0.97178
0.949363
0.928342
0.908425
0.889393
0.871084
0.853378
0.836186
0.819438
0.803081
0.787072
0.771375
0.755961
0.740805
0.725885
0.711181
0.696677
0.682357
0.668207
0.654214
0.640368
0.626657
0.613073
0.599607
0.58625
0.572995
0.559836
0.546765
0.533777
0.520867
0.50803
0.49526
0.482554
0.469907
0.457315
0.444776
0.432285
0.419839
0.407437
0.395074
0.382749
0.370459
0.358201
0.345975
0.333778
0.321607
0.309462
0.297341
0.285242
0.273163
0.261105
0.249065
0.237042
0.225035
0.213043
0.201066
0.189101
0.17715
0.165209
0.15328
0.141361
0.129452
0.117552
0.10566
0.0937762
0.0818999
0.0700305
0.0581678
0.0463113
0.0344607
0.0226157
0.0107759
-0.00105878
-0.0128887
-0.0247141
-0.0365352
-0.0483522
-0.0601653
-0.0719748
-0.0837808
-0.0955836
-0.107383
-0.11918
-0.130975
-0.142767
-0.154556
-0.166344
-0.17813
-0.189915
-0.201698
-0.21348
0.21348
1.31565
1.31565
1.24914
1.20206
1.15911
1.11945
1.08343
1.05104
1.02194
0.995605
0.971495
0.949142
0.928169
0.908287
0.889281
0.870992
0.853301
0.836119
0.81938
0.80303
0.787027
0.771335
0.755925
0.740773
0.725855
0.711154
0.696652
0.682334
0.668186
0.654195
0.64035
0.626641
0.613058
0.599593
0.586237
0.572983
0.559825
0.546755
0.533768
0.520858
0.508021
0.495252
0.482546
0.4699
0.457309
0.44477
0.432279
0.419834
0.407432
0.39507
0.382745
0.370455
0.358198
0.345972
0.333774
0.321604
0.309459
0.297338
0.285239
0.273161
0.261103
0.249063
0.23704
0.225033
0.213041
0.201064
0.1891
0.177148
0.165208
0.153279
0.14136
0.129451
0.117551
0.105659
0.0937754
0.0818991
0.0700298
0.0581671
0.0463106
0.0344601
0.0226151
0.0107754
-0.00105925
-0.0128891
-0.0247145
-0.0365356
-0.0483525
-0.0601656
-0.071975
-0.083781
-0.0955838
-0.107383
-0.11918
-0.130975
-0.142767
-0.154556
-0.166344
-0.17813
-0.189915
-0.201698
-0.21348
0.21348
1.31565
1.31565
1.24914
1.20206
1.15911
1.11945
1.08343
1.05104
1.02194
0.995605
0.971495
0.949142
0.928169
0.908287
0.889281
0.870992
0.853301
0.836119
0.81938
0.80303
0.787027
0.771335
0.755925
0.740773
0.725855
0.711154
0.696652
0.682334
0.668186
0.654195
0.64035
0.626641
0.613058
0.599593
0.586237
0.572983
0.559825
0.546755
0.533768
0.520858
0.508021
0.495252
0.482546
0.4699
0.457309
0.44477
0.432279
0.419834
0.407432
0.39507
0.382745
0.370455
0.358198
0.345972
0.333774
0.321604
0.309459
0.297338
0.285239
0.273161
0.261103
0.249063
0.23704
0.225033
0.213041
0.201064
0.1891
0.177148
0.165208
0.153279
0.14136
0.129451
0.117551
0.105659
0.0937754
0.0818991
0.0700298
0.0581671
0.0463106
0.0344601
0.0226151
0.0107754
-0.00105925
-0.0128891
-0.0247145
-0.0365356
-0.0483525
-0.0601656
-0.071975
-0.083781
-0.0955838
-0.107383
-0.11918
-0.130975
-0.142767
-0.154556
-0.166344
-0.17813
-0.189915
-0.201698
-0.21348
0.21348
SCALARS phi double
LOOKUP_TABLE phi
1
1
1
0.999995
0.999977
0.999931
0.999833
0.999655
0.999364
0.998929
0.998323
0.997523
0.996512
0.995279
0.993815
0.992118
0.990189
0.988032
0.985652
0.983059
0.980261
0.977269
0.974097
0.970755
0.967257
0.963617
0.959844
0.955947
0.951922
0.947754
0.943413
0.938855
0.934018
0.92883
0.923212
0.917084
0.910368
0.902994
0.894901
0.886042
0.876383
0.865905
0.854603
0.842485
0.829571
0.815893
0.801492
0.786415
0.770718
0.754459
0.7377
0.720506
0.702939
0.685064
0.666944
0.648639
0.630207
0.611702
0.593176
0.574678
0.556251
0.537937
0.519773
0.501792
0.484024
0.466496
0.449232
0.432253
0.415575
0.399214
0.383183
0.367492
0.35215
0.337162
0.322533
0.308267
0.294365
0.280828
0.267654
0.254844
0.242393
0.2303
0.218561
0.207171
0.196127
0.185424
0.175058
0.165023
0.155316
0.145933
0.136868
0.128119
0.119683
0.111557
0.103736
0.0962256
0.0890068
0.0821354
0.0754168
0.0695353
0.0620337
0.0620337
1
1
1
0.999995
0.999977
0.999931
0.999833
0.999655
0.999364
0.998929
0.998323
0.997523
0.996512
0.995279
0.993815
0.992118
0.990189
0.988032
0.985652
0.983059
0.980261
0.977269
0.974097
0.970755
0.967257
0.963617
0.959844
0.955947
0.951922
0.947754
0.943413
0.938855
0.934018
0.92883
0.923212
0.917084
0.910368
0.902994
0.894901
0.886042
0.876383
0.865905
0.854603
0.842485
0.829571
0.815893
0.801492
0.786415
0.770718
0.754459
0.7377
0.720506
0.702939
0.685064
0.666944
0.648639
0.630207
0.611702
0.593176
0.574678
0.556251
0.537937
0.519773
0.501792
0.484024
0.466496
0.449232
0.432253
0.415575
0.399214
0.383183
0.367492
0.35215
0.337162
0.322533
0.308267
0.294365
0.280828
0.267654
0.254844
0.242393
0.2303
0.218561
0.207171
0.196127
0.185424
0.175058
0.165023
0.155316
0.145933
0.136868
0.128119
0.119683
0.111557
0.103736
0.0962256
0.0890068
0.0821354
0.0754168
0.0695353
0.0620337
0.0620337
0.999998
1
0.999984
0.999921
0.999783
0.999536
0.999146
0.99858
0.997812
0.996819
0.99559
0.994116
0.992398
0.990437
0.98824
0.985817
0.983177
0.980333
0.977296
0.974081
0.9707
0.967165
0.963491
0.959689
0.955772
0.951752
0.94764
0.943446
0.939177
0.934837
0.930423
0.925923
0.92132
0.916584
0.911677
0.906554
0.901165
0.895455
0.889371
0.882859
0.875871
0.868364
0.860302
0.851657
0.84241
0.832551
0.822078
0.810998
0.799325
0.78708
0.774291
0.760989
0.74721
0.732995
0.718385
0.703423
0.688154
0.672622
0.656871
0.640944
0.624883
0.608728
0.592518
0.576289
0.560075
0.543908
0.527818
0.511832
0.495975
0.480269
0.464736
0.449393
0.434258
0.419343
0.404662
0.390226
0.376043
0.362121
0.348467
0.335084
0.321977
0.309148
0.296597
0.284325
0.272332
0.260615
0.249173
0.238002
0.227099
0.216459
0.206078
0.195952
0.186074
0.17644
0.167042
0.157884
0.148931
0.140283
0.131585
0.124012
0.113625
0.113625
1.00001
0.999992
0.99954
0.998615
0.997207
0.995317
0.992955
0.990145
0.986922
0.983332
0.979422
0.975241
0.970836
0.966248
0.961513
0.956664
0.951728
0.946728
0.941682
0.936608
0.931519
0.926427
0.92134
0.916268
0.911216
0.906189
0.901193
0.896232
0.891307
0.886422
0.881575
0.876765
0.871989
0.867236
0.862497
0.857755
0.85299
0.848178
0.843292
0.838301
0.833172
0.827874
0.822372
0.816634
0.81063
0.80433
0.797711
0.790751
0.783433
0.775743
0.767673
0.759218
0.750379
0.741159
0.731565
0.721609
0.711304
0.700667
0.689715
0.678471
0.666955
0.65519
0.6432
0.63101
0.618644
0.606126
0.59348
0.58073
0.567898
0.555007
0.542077
0.52913
0.516184
0.503257
0.490367
0.477528
0.464756
0.452064
0.439465
0.426968
0.414584
0.402322
0.390189
0.378191
0.366334
0.354621
0.343056
0.331639
0.320372
0.309253
0.298281
0.287453
0.276763
0.266209
0.255779
0.245481
0.235255
0.225255
0.214951
0.205994
0.193083
0.193083
1.00143
0.99857
0.991253
0.98188
0.971566
0.96086
0.950051
0.939311
0.928756
0.918468
0.908503
0.898898
0.889671
0.880827
0.87236
0.864261
0.856513
0.849098
0.841997
0.835192
0.828664
0.822396
0.816369
0.810568
0.80498
0.799588
0.794382
0.789348
0.784477
0.779758
0.775181
0.770737
0.766418
0.762215
0.758118
0.754118
0.750204
0.746364
0.742585
0.738852
0.73515
0.73146
0.727764
0.724044
0.720277
0.716445
0.712527
0.708501
0.704348
0.70005
0.695588
0.690946
0.68611
0.681066
0.675805
0.670316
0.664593
0.658631
0.652427
0.64598
0.639291
0.632362
0.625197
0.617801
0.610182
0.602347
0.594305
0.586066
0.57764
0.569037
0.56027
0.55135
0.542287
0.533096
0.523786
0.514369
0.504857
0.495262
0.485593
0.475862
0.466078
0.45625
0.446387
0.436498
0.426589
0.416668
0.40674
0.39681
0.386882
0.37696
0.367043
0.357134
0.347231
0.337332
0.327426
0.317529
0.307568
0.297726
0.287394
0.278408
0.265012
0.265012
1.0456
0.954401
0.887723
0.838673
0.801641
0.772861
0.749886
0.731119
0.715499
0.702298
0.691001
0.681228
0.672693
0.665173
0.658493
0.652515
0.647126
0.642236
0.637772
0.633674
0.629891
0.626383
0.623115
0.620059
0.61719
0.614489
0.611936
0.609518
0.607221
0.605034
0.602947
0.60095
0.599038
0.597201
0.595435
0.593732
0.592088
0.590496
0.588951
0.587446
0.585976
0.584534
0.583111
0.581701
0.580295
0.578883
0.577456
0.576003
0.574514
0.572978
0.571384
0.569719
0.567973
0.566135
0.564194
0.562138
0.559958
0.557644
0.555187
0.552579
0.549813
0.546881
0.543778
0.540499
0.53704
0.533397
0.529568
0.52555
0.521344
0.516949
0.512364
0.507592
0.502634
0.497491
0.492167
0.486665
0.480987
0.475139
0.469123
0.462944
0.456606
0.450114
0.443473
0.436687
0.429761
0.422699
0.415505
0.408184
0.400738
0.39317
0.385484
0.377679
0.369756
0.361715
0.353547
0.345268
0.336808
0.328348
0.319295
0.311401
0.299269
0.299269
-0.0455988
0.0455988
0.112277
0.161326
0.198359
0.227139
0.250114
0.268881
0.284501
0.297702
0.308999
0.318772
0.327307
0.334827
0.341507
0.347485
0.352874
0.357764
0.362228
0.366327
0.370109
0.373618
0.376885
0.379941
0.38281
0.385511
0.388064
0.390482
0.392779
0.394966
0.397053
0.39905
0.400962
0.402798
0.404563
0.406263
0.407902
0.409484
0.411013
0.412492
0.413923
0.415308
0.416649
0.417946
0.4192
0.42041
0.421576
0.422695
0.423766
0.424786
0.425751
0.426657
0.427501
0.428276
0.428977
0.429599
0.430136
0.43058
0.430925
0.431165
0.431291
0.431297
0.431176
0.430921
0.430525
0.42998
0.42928
0.428419
0.427391
0.42619
0.42481
0.423246
0.421494
0.41955
0.417409
0.415068
0.412525
0.409776
0.40682
0.403655
0.400281
0.396696
0.392901
0.388895
0.38468
0.380255
0.375622
0.370782
0.365735