# vtk DataFile Version 3.0
FlowField
ASCII
DATASET STRUCTURED_GRID
DIMENSIONS 102 12 1 
POINTS 1224 double
0 0 0
0.3 0 0
0.6 0 0
0.9 0 0
1.2 0 0
1.5 0 0
1.8 0 0
2.1 0 0
2.4 0 0
2.7 0 0
3 0 0
3.3 0 0
3.6 0 0
3.9 0 0
4.2 0 0
4.5 0 0
4.8 0 0
5.1 0 0
5.4 0 0
5.7 0 0
6 0 0
6.3 0 0
6.6 0 0
6.9 0 0
7.2 0 0
7.5 0 0
7.8 0 0
8.1 0 0
8.4 0 0
8.7 0 0
9 0 0
9.3 0 0
9.6 0 0
9.9 0 0
10.2 0 0
10.5 0 0
10.8 0 0
11.1 0 0
11.4 0 0
11.7 0 0
12 0 0
12.3 0 0
12.6 0 0
12.9 0 0
13.2 0 0
13.5 0 0
13.8 0 0
14.1 0 0
14.4 0 0
14.7 0 0
15 0 0
15.3 0 0
15.6 0 0
15.9 0 0
16.2 0 0
16.5 0 0
16.8 0 0
17.1 0 0
17.4 0 0
17.7 0 0
18 0 0
18.3 0 0
18.6 0 0
18.9 0 0
19.2 0 0
19.5 0 0
19.8 0 0
20.1 0 0
20.4 0 0
20.7 0 0
21 0 0
21.3 0 0
21.6 0 0
21.9 0 0
22.2 0 0
22.5 0 0
22.8 0 0
23.1 0 0
23.4 0 0
23.7 0 0
24 0 0
24.3 0 0
24.6 0 0
24.9 0 0
25.2 0 0
25.5 0 0
25.8 0 0
26.1 0 0
26.4 0 0
26.7 0 0
27 0 0
27.3 0 0
27.6 0 0
27.9 0 0
28.2 0 0
28.5 0 0
28.8 0 0
29.1 0 0
29.4 0 0
29.7 0 0
30 0 0
30.3 0 0
0 0.1 0
0.3 0.1 0
0.6 0.1 0
0.9 0.1 0
1.2 0.1 0
1.5 0.1 0
1.8 0.1 0
2.1 0.1 0
2.4 0.1 0
2.7 0.1 0
3 0.1 0
3.3 0.1 0
3.6 0.1 0
3.9 0.1 0
4.2 0.1 0
4.5 0.1 0
4.8 0.1 0
5.1 0.1 0
5.4 0.1 0
5.7 0.1 0
6 0.1 0
6.3 0.1 0
6.6 0.1 0
6.9 0.1 0
7.2 0.1 0
7.5 0.1 0
7.8 0.1 0
8.1 0.1 0
8.4 0.1 0
8.7 0.1 0
9 0.1 0
9.3 0.1 0
9.6 0.1 0
9.9 0.1 0
10.2 0.1 0
10.5 0.1 0
10.8 0.1 0
11.1 0.1 0
11.4 0.1 0
11.7 0.1 0
12 0.1 0
12.3 0.1 0
12.6 0.1 0
12.9 0.1 0
13.2 0.1 0
13.5 0.1 0
13.8 0.1 0
14.1 0.1 0
14.4 0.1 0
14.7 0.1 0
15 0.1 0
15.3 0.1 0
15.6 0.1 0
15.9 0.1 0
16.2 0.1 0
16.5 0.1 0
16.8 0.1 0
17.1 0.1 0
17.4 0.1 0
17.7 0.1 0
18 0.1 0
18.3 0.1 0
18.6 0.1 0
18.9 0.1 0
19.2 0.1 0
19.5 0.1 0
19.8 0.1 0
20.1 0.1 0
20.4 0.1 0
20.7 0.1 0
21 0.1 0
21.3 0.1 0
21.6 0.1 0
21.9 0.1 0
22.2 0.1 0
22.5 0.1 0
22.8 0.1 0
23.1 0.1 0
23.4 0.1 0
23.7 0.1 0
24 0.1 0
24.3 0.1 0
24.6 0.1 0
24.9 0.1 0
25.2 0.1 0
25.5 0.1 0
25.8 0.1 0
26.1 0.1 0
26.4 0.1 0
26.7 0.1 0
27 0.1 0
27.3 0.1 0
27.6 0.1 0
27.9 0.1 0
28.2 0.1 0
28.5 0.1 0
28.8 0.1 0
29.1 0.1 0
29.4 0.1 0
29.7 0.1 0
30 0.1 0
30.3 0.1 0
0 0.2 0
0.3 0.2 0
0.6 0.2 0
0.9 0.2 0
1.2 0.2 0
1.5 0.2 0
1.8 0.2 0
2.1 0.2 0
2.4 0.2 0
2.7 0.2 0
3 0.2 0
3.3 0.2 0
3.6 0.2 0
3.9 0.2 0
4.2 0.2 0
4.5 0.2 0
4.8 0.2 0
5.1 0.2 0
5.4 0.2 0
5.7 0.2 0
6 0.2 0
6.3 0.2 0
6.6 0.2 0
6.9 0.2 0
7.2 0.2 0
7.5 0.2 0
7.8 0.2 0
8.1 0.2 0
8.4 0.2 0
8.7 0.2 0
9 0.2 0
9.3 0.2 0
9.6 0.2 0
9.9 0.2 0
10.2 0.2 0
10.5 0.2 0
10.8 0.2 0
11.1 0.2 0
11.4 0.2 0
11.7 0.2 0
12 0.2 0
12.3 0.2 0
12.6 0.2 0
12.9 0.2 0
13.2 0.2 0
13.5 0.2 0
13.8 0.2 0
14.1 0.2 0
14.4 0.2 0
14.7 0.2 0
15 0.2 0
15.3 0.2 0
15.6 0.2 0
15.9 0.2 0
16.2 0.2 0
16.5 0.2 0
16.8 0.2 0
17.1 0.2 0
17.4 0.2 0
17.7 0.2 0
18 0.2 0
18.3 0.2 0
18.6 0.2 0
18.9 0.2 0
19.2 0.2 0
19.5 0.2 0
19.8 0.2 0
20.1 0.2 0
20.4 0.2 0
20.7 0.2 0
21 0.2 0
21.3 0.2 0
21.6 0.2 0
21.9 0.2 0
22.2 0.2 0
22.5 0.2 0
22.8 0.2 0
23.1 0.2 0
23.4 0.2 0
23.7 0.2 0
24 0.2 0
24.3 0.2 0
24.6 0.2 0
24.9 0.2 0
25.2 0.2 0
25.5 0.2 0
25.8 0.2 0
26.1 0.2 0
26.4 0.2 0
26.7 0.2 0
27 0.2 0
27.3 0.2 0
27.6 0.2 0
27.9 0.2 0
28.2 0.2 0
28.5 0.2 0
28.8 0.2 0
29.1 0.2 0
29.4 0.2 0
29.7 0.2 0
30 0.2 0
30.3 0.2 0
0 0.3 0
0.3 0.3 0
0.6 0.3 0
0.9 0.3 0
1.2 0.3 0
1.5 0.3 0
1.8 0.3 0
2.1 0.3 0
2.4 0.3 0
2.7 0.3 0
3 0.3 0
3.3 0.3 0
3.6 0.3 0
3.9 0.3 0
4.2 0.3 0
4.5 0.3 0
4.8 0.3 0
5.1 0.3 0
5.4 0.3 0
5.7 0.3 0
6 0.3 0
6.3 0.3 0
6.6 0.3 0
6.9 0.3 0
7.2 0.3 0
7.5 0.3 0
7.8 0.3 0
8.1 0.3 0
8.4 0.3 0
8.7 0.3 0
9 0.3 0
9.3 0.3 0
9.6 0.3 0
9.9 0.3 0
10.2 0.3 0
10.5 0.3 0
10.8 0.3 0
11.1 0.3 0
11.4 0.3 0
11.7 0.3 0
12 0.3 0
12.3 0.3 0
12.6 0.3 0
12.9 0.3 0
13.2 0.3 0
13.5 0.3 0
13.8 0.3 0
14.1 0.3 0
14.4 0.3 0
14.7 0.3 0
15 0.3 0
15.3 0.3 0
15.6 0.3 0
15.9 0.3 0
16.2 0.3 0
16.5 0.3 0
16.8 0.3 0
17.1 0.3 0
17.4 0.3 0
17.7 0.3 0
18 0.3 0
18.3 0.3 0
18.6 0.3 0
18.9 0.3 0
19.2 0.3 0
19.5 0.3 0
19.8 0.3 0
20.1 0.3 0
20.4 0.3 0
20.7 0.3 0
21 0.3 0
21.3 0.3 0
21.6 0.3 0
21.9 0.3 0
22.2 0.3 0
22.5 0.3 0
22.8 0.3 0
23.1 0.3 0
23.4 0.3 0
23.7 0.3 0
24 0.3 0
24.3 0.3 0
24.6 0.3 0
24.9 0.3 0
25.2 0.3 0
25.5 0.3 0
25.8 0.3 0
26.1 0.3 0
26.4 0.3 0
26.7 0.3 0
27 0.3 0
27.3 0.3 0
27.6 0.3 0
27.9 0.3 0
28.2 0.3 0
28.5 0.3 0
28.8 0.3 0
29.1 0.3 0
29.4 0.3 0
29.7 0.3 0
30 0.3 0
30.3 0.3 0
0 0.4 0
0.3 0.4 0
0.6 0.4 0
0.9 0.4 0
1.2 0.4 0
1.5 0.4 0
1.8 0.4 0
2.1 0.4 0
2.4 0.4 0
2.7 0.4 0
3 0.4 0
3.3 0.4 0
3.6 0.4 0
3.9 0.4 0
4.2 0.4 0
4.5 0.4 0
4.8 0.4 0
5.1 0.4 0
5.4 0.4 0
5.7 0.4 0
6 0.4 0
6.3 0.4 0
6.6 0.4 0
6.9 0.4 0
7.2 0.4 0
7.5 0.4 0
7.8 0.4 0
8.1 0.4 0
8.4 0.4 0
8.7 0.4 0
9 0.4 0
9.3 0.4 0
9.6 0.4 0
9.9 0.4 0
10.2 0.4 0
10.5 0.4 0
10.8 0.4 0
11.1 0.4 0
11.4 0.4 0
11.7 0.4 0
12 0.4 0
12.3 0.4 0
12.6 0.4 0
12.9 0.4 0
13.2 0.4 0
13.5 0.4 0
13.8 0.4 0
14.1 0.4 0
14.4 0.4 0
14.7 0.4 0
15 0.4 0
15.3 0.4 0
15.6 0.4 0
15.9 0.4 0
16.2 0.4 0
16.5 0.4 0
16.8 0.4 0
17.1 0.4 0
17.4 0.4 0
17.7 0.4 0
18 0.4 0
18.3 0.4 0
18.6 0.4 0
18.9 0.4 0
19.2 0.4 0
19.5 0.4 0
19.8 0.4 0
20.1 0.4 0
20.4 0.4 0
20.7 0.4 0
21 0.4 0
21.3 0.4 0
21.6 0.4 0
21.9 0.4 0
22.2 0.4 0
22.5 0.4 0
22.8 0.4 0
23.1 0.4 0
23.4 0.4 0
23.7 0.4 0
24 0.4 0
24.3 0.4 0
24.6 0.4 0
24.9 0.4 0
25.2 0.4 0
25.5 0.4 0
25.8 0.4 0
26.1 0.4 0
26.4 0.4 0
26.7 0.4 0
27 0.4 0
27.3 0.4 0
27.6 0.4 0
27.9 0.4 0
28.2 0.4 0
28.5 0.4 0
28.8 0.4 0
29.1 0.4 0
29.4 0.4 0
29.7 0.4 0
30 0.4 0
30.3 0.4 0
0 0.5 0
0.3 0.5 0
0.6 0.5 0
0.9 0.5 0
1.2 0.5 0
1.5 0.5 0
1.8 0.5 0
2.1 0.5 0
2.4 0.5 0
2.7 0.5 0
3 0.5 0
3.3 0.5 0
3.6 0.5 0
3.9 0.5 0
4.2 0.5 0
4.5 0.5 0
4.8 0.5 0
5.1 0.5 0
5.4 0.5 0
5.7 0.5 0
6 0.5 0
6.3 0.5 0
6.6 0.5 0
6.9 0.5 0
7.2 0.5 0
7.5 0.5 0
7.8 0.5 0
8.1 0.5 0
8.4 0.5 0
8.7 0.5 0
9 0.5 0
9.3 0.5 0
9.6 0.5 0
9.9 0.5 0
10.2 0.5 0
10.5 0.5 0
10.8 0.5 0
11.1 0.5 0
11.4 0.5 0
11.7 0.5 0
12 0.5 0
12.3 0.5 0
12.6 0.5 0
12.9 0.5 0
13.2 0.5 0
13.5 0.5 0
13.8 0.5 0
14.1 0.5 0
14.4 0.5 0
14.7 0.5 0
15 0.5 0
15.3 0.5 0
15.6 0.5 0
15.9 0.5 0
16.2 0.5 0
16.5 0.5 0
16.8 0.5 0
17.1 0.5 0
17.4 0.5 0
17.7 0.5 0
18 0.5 0
18.3 0.5 0
18.6 0.5 0
18.9 0.5 0
19.2 0.5 0
19.5 0.5 0
19.8 0.5 0
20.1 0.5 0
20.4 0.5 0
20.7 0.5 0
21 0.5 0
21.3 0.5 0
21.6 0.5 0
21.9 0.5 0
22.2 0.5 0
22.5 0.5 0
22.8 0.5 0
23.1 0.5 0
23.4 0.5 0
23.7 0.5 0
24 0.5 0
24.3 0.5 0
24.6 0.5 0
24.9 0.5 0
25.2 0.5 0
25.5 0.5 0
25.8 0.5 0
26.1 0.5 0
26.4 0.5 0
26.7 0.5 0
27 0.5 0
27.3 0.5 0
27.6 0.5 0
27.9 0.5 0
28.2 0.5 0
28.5 0.5 0
28.8 0.5 0
29.1 0.5 0
29.4 0.5 0
29.7 0.5 0
30 0.5 0
30.3 0.5 0
0 0.6 0
0.3 0.6 0
0.6 0.6 0
0.9 0.6 0
1.2 0.6 0
1.5 0.6 0
1.8 0.6 0
2.1 0.6 0
2.4 0.6 0
2.7 0.6 0
3 0.6 0
3.3 0.6 0
3.6 0.6 0
3.9 0.6 0
4.2 0.6 0
4.5 0.6 0
4.8 0.6 0
5.1 0.6 0
5.4 0.6 0
5.7 0.6 0
6 0.6 0
6.3 0.6 0
6.6 0.6 0
6.9 0.6 0
7.2 0.6 0
7.5 0.6 0
7.8 0.6 0
8.1 0.6 0
8.4 0.6 0
8.7 0.6 0
9 0.6 0
9.3 0.6 0
9.6 0.6 0
9.9 0.6 0
10.2 0.6 0
10.5 0.6 0
10.8 0.6 0
11.1 0.6 0
11.4 0.6 0
11.7 0.6 0
12 0.6 0
12.3 0.6 0
12.6 0.6 0
12.9 0.6 0
13.2 0.6 0
13.5 0.6 0
13.8 0.6 0
14.1 0.6 0
14.4 0.6 0
14.7 0.6 0
15 0.6 0
15.3 0.6 0
15.6 0.6 0
15.9 0.6 0
16.2 0.6 0
16.5 0.6 0
16.8 0.6 0
17.1 0.6 0
17.4 0.6 0
17.7 0.6 0
18 0.6 0
18.3 0.6 0
18.6 0.6 0
18.9 0.6 0
19.2 0.6 0
19.5 0.6 0
19.8 0.6 0
20.1 0.6 0
20.4 0.6 0
20.7 0.6 0
21 0.6 0
21.3 0.6 0
21.6 0.6 0
21.9 0.6 0
22.2 0.6 0
22.5 0.6 0
22.8 0.6 0
23.1 0.6 0
23.4 0.6 0
23.7 0.6 0
24 0.6 0
24.3 0.6 0
24.6 0.6 0
24.9 0.6 0
25.2 0.6 0
25.5 0.6 0
25.8 0.6 0
26.1 0.6 0
26.4 0.6 0
26.7 0.6 0
27 0.6 0
27.3 0.6 0
27.6 0.6 0
27.9 0.6 0
28.2 0.6 0
28.5 0.6 0
28.8 0.6 0
29.1 0.6 0
29.4 0.6 0
29.7 0.6 0
30 0.6 0
30.3 0.6 0
0 0.7 0
0.3 0.7 0
0.6 0.7 0
0.9 0.7 0
1.2 0.7 0
1.5 0.7 0
1.8 0.7 0
2.1 0.7 0
2.4 0.7 0
2.7 0.7 0
3 0.7 0
3.3 0.7 0
3.6 0.7 0
3.9 0.7 0
4.2 0.7 0
4.5 0.7 0
4.8 0.7 0
5.1 0.7 0
5.4 0.7 0
5.7 0.7 0
6 0.7 0
6.3 0.7 0
6.6 0.7 0
6.9 0.7 0
7.2 0.7 0
7.5 0.7 0
7.8 0.7 0
8.1 0.7 0
8.4 0.7 0
8.7 0.7 0
9 0.7 0
9.3 0.7 0
9.6 0.7 0
9.9 0.7 0
10.2 0.7 0
10.5 0.7 0
10.8 0.7 0
11.1 0.7 0
11.4 0.7 0
11.7 0.7 0
12 0.7 0
12.3 0.7 0
12.6 0.7 0
12.9 0.7 0
13.2 0.7 0
13.5 0.7 0
13.8 0.7 0
14.1 0.7 0
14.4 0.7 0
14.7 0.7 0
15 0.7 0
15.3 0.7 0
15.6 0.7 0
15.9 0.7 0
16.2 0.7 0
16.5 0.7 0
16.8 0.7 0
17.1 0.7 0
17.4 0.7 0
17.7 0.7 0
18 0.7 0
18.3 0.7 0
18.6 0.7 0
18.9 0.7 0
19.2 0.7 0
19.5 0.7 0
19.8 0.7 0
20.1 0.7 0
20.4 0.7 0
20.7 0.7 0
21 0.7 0
21.3 0.7 0
21.6 0.7 0
21.9 0.7 0
22.2 0.7 0
22.5 0.7 0
22.8 0.7 0
23.1 0.7 0
23.4 0.7 0
23.7 0.7 0
24 0.7 0
24.3 0.7 0
24.6 0.7 0
24.9 0.7 0
25.2 0.7 0
25.5 0.7 0
25.8 0.7 0
26.1 0.7 0
26.4 0.7 0
26.7 0.7 0
27 0.7 0
27.3 0.7 0
27.6 0.7 0
27.9 0.7 0
28.2 0.7 0
28.5 0.7 0
28.8 0.7 0
29.1 0.7 0
29.4 0.7 0
29.7 0.7 0
30 0.7 0
30.3 0.7 0
0 0.8 0
0.3 0.8 0
0.6 0.8 0
0.9 0.8 0
1.2 0.8 0
1.5 0.8 0
1.8 0.8 0
2.1 0.8 0
2.4 0.8 0
2.7 0.8 0
3 0.8 0
3.3 0.8 0
3.6 0.8 0
3.9 0.8 0
4.2 0.8 0
4.5 0.8 0
4.8 0.8 0
5.1 0.8 0
5.4 0.8 0
5.7 0.8 0
6 0.8 0
6.3 0.8 0
6.6 0.8 0
6.9 0.8 0
7.2 0.8 0
7.5 0.8 0
7.8 0.8 0
8.1 0.8 0
8.4 0.8 0
8.7 0.8 0
9 0.8 0
9.3 0.8 0
9.6 0.8 0
9.9 0.8 0
10.2 0.8 0
10.5 0.8 0
10.8 0.8 0
11.1 0.8 0
11.4 0.8 0
11.7 0.8 0
12 0.8 0
12.3 0.8 0
12.6 0.8 0
12.9 0.8 0
13.2 0.8 0
13.5 0.8 0
13.8 0.8 0
14.1 0.8 0
14.4 0.8 0
14.7 0.8 0
15 0.8 0
15.3 0.8 0
15.6 0.8 0
15.9 0.8 0
16.2 0.8 0
16.5 0.8 0
16.8 0.8 0
17.1 0.8 0
17.4 0.8 0
17.7 0.8 0
18 0.8 0
18.3 0.8 0
18.6 0.8 0
18.9 0.8 0
19.2 0.8 0
19.5 0.8 0
19.8 0.8 0
20.1 0.8 0
20.4 0.8 0
20.7 0.8 0
21 0.8 0
21.3 0.8 0
21.6 0.8 0
21.9 0.8 0
22.2 0.8 0
22.5 0.8 0
22.8 0.8 0
23.1 0.8 0
23.4 0.8 0
23.7 0.8 0
24 0.8 0
24.3 0.8 0
24.6 0.8 0
24.9 0.8 0
25.2 0.8 0
25.5 0.8 0
25.8 0.8 0
26.1 0.8 0
26.4 0.8 0
26.7 0.8 0
27 0.8 0
27.3 0.8 0
27.6 0.8 0
27.9 0.8 0
28.2 0.8 0
28.5 0.8 0
28.8 0.8 0
29.1 0.8 0
29.4 0.8 0
29.7 0.8 0
30 0.8 0
30.3 0.8 0
0 0.9 0
0.3 0.9 0
0.6 0.9 0
0.9 0.9 0
1.2 0.9 0
1.5 0.9 0
1.8 0.9 0
2.1 0.9 0
2.4 0.9 0
2.7 0.9 0
3 0.9 0
3.3 0.9 0
3.6 0.9 0
3.9 0.9 0
4.2 0.9 0
4.5 0.9 0
4.8 0.9 0
5.1 0.9 0
5.4 0.9 0
5.7 0.9 0
6 0.9 0
6.3 0.9 0
6.6 0.9 0
6.9 0.9 0
7.2 0.9 0
7.5 0.9 0
7.8 0.9 0
8.1 0.9 0
8.4 0.9 0
8.7 0.9 0
9 0.9 0
9.3 0.9 0
9.6 0.9 0
9.9 0.9 0
10.2 0.9 0
10.5 0.9 0
10.8 0.9 0
11.1 0.9 0
11.4 0.9 0
11.7 0.9 0
12 0.9 0
12.3 0.9 0
12.6 0.9 0
12.9 0.9 0
13.2 0.9 0
13.5 0.9 0
13.8 0.9 0
14.1 0.9 0
14.4 0.9 0
14.7 0.9 0
15 0.9 0
15.3 0.9 0
15.6 0.9 0
15.9 0.9 0
16.2 0.9 0
16.5 0.9 0
16.8 0.9 0
17.1 0.9 0
17.4 0.9 0
17.7 0.9 0
18 0.9 0
18.3 0.9 0
18.6 0.9 0
18.9 0.9 0
19.2 0.9 0
19.5 0.9 0
19.8 0.9 0
20.1 0.9 0
20.4 0.9 0
20.7 0.9 0
21 0.9 0
21.3 0.9 0
21.6 0.9 0
21.9 0.9 0
22.2 0.9 0
22.5 0.9 0
22.8 0.9 0
23.1 0.9 0
23.4 0.9 0
23.7 0.9 0
24 0.9 0
24.3 0.9 0
24.6 0.9 0
24.9 0.9 0
25.2 0.9 0
25.5 0.9 0
25.8 0.9 0
26.1 0.9 0
26.4 0.9 0
26.7 0.9 0
27 0.9 0
27.3 0.9 0
27.6 0.9 0
27.9 0.9 0
28.2 0.9 0
28.5 0.9 0
28.8 0.9 0
29.1 0.9 0
29.4 0.9 0
29.7 0.9 0
30 0.9 0
30.3 0.9 0
0 1 0
0.3 1 0
0.6 1 0
0.9 1 0
1.2 1 0
1.5 1 0
1.8 1 0
2.1 1 0
2.4 1 0
2.7 1 0
3 1 0
3.3 1 0
3.6 1 0
3.9 1 0
4.2 1 0
4.5 1 0
4.8 1 0
5.1 1 0
5.4 1 0
5.7 1 0
6 1 0
6.3 1 0
6.6 1 0
6.9 1 0
7.2 1 0
7.5 1 0
7.8 1 0
8.1 1 0
8.4 1 0
8.7 1 0
9 1 0
9.3 1 0
9.6 1 0
9.9 1 0
10.2 1 0
10.5 1 0
10.8 1 0
11.1 1 0
11.4 1 0
11.7 1 0
12 1 0
12.3 1 0
12.6 1 0
12.9 1 0
13.2 1 0
13.5 1 0
13.8 1 0
14.1 1 0
14.4 1 0
14.7 1 0
15 1 0
15.3 1 0
15.6 1 0
15.9 1 0
16.2 1 0
16.5 1 0
16.8 1 0
17.1 1 0
17.4 1 0
17.7 1 0
18 1 0
18.3 1 0
18.6 1 0
18.9 1 0
19.2 1 0
19.5 1 0
19.8 1 0
20.1 1 0
20.4 1 0
20.7 1 0
21 1 0
21.3 1 0
21.6 1 0
21.9 1 0
22.2 1 0
22.5 1 0
22.8 1 0
23.1 1 0
23.4 1 0
23.7 1 0
24 1 0
24.3 1 0
24.6 1 0
24.9 1 0
25.2 1 0
25.5 1 0
25.8 1 0
26.1 1 0
26.4 1 0
26.7 1 0
27 1 0
27.3 1 0
27.6 1 0
27.9 1 0
28.2 1 0
28.5 1 0
28.8 1 0
29.1 1 0
29.4 1 0
29.7 1 0
30 1 0
30.3 1 0
0 1.1 0
0.3 1.1 0
0.6 1.1 0
0.9 1.1 0
1.2 1.1 0
1.5 1.1 0
1.8 1.1 0
2.1 1.1 0
2.4 1.1 0
2.7 1.1 0
3 1.1 0
3.3 1.1 0
3.6 1.1 0
3.9 1.1 0
4.2 1.1 0
4.5 1.1 0
4.8 1.1 0
5.1 1.1 0
5.4 1.1 0
5.7 1.1 0
6 1.1 0
6.3 1.1 0
6.6 1.1 0
6.9 1.1 0
7.2 1.1 0
7.5 1.1 0
7.8 1.1 0
8.1 1.1 0
8.4 1.1 0
8.7 1.1 0
9 1.1 0
9.3 1.1 0
9.6 1.1 0
9.9 1.1 0
10.2 1.1 0
10.5 1.1 0
10.8 1.1 0
11.1 1.1 0
11.4 1.1 0
11.7 1.1 0
12 1.1 0
12.3 1.1 0
12.6 1.1 0
12.9 1.1 0
13.2 1.1 0
13.5 1.1 0
13.8 1.1 0
14.1 1.1 0
14.4 1.1 0
14.7 1.1 0
15 1.1 0
15.3 1.1 0
15.6 1.1 0
15.9 1.1 0
16.2 1.1 0
16.5 1.1 0
16.8 1.1 0
17.1 1.1 0
17.4 1.1 0
17.7 1.1 0
18 1.1 0
18.3 1.1 0
18.6 1.1 0
18.9 1.1 0
19.2 1.1 0
19.5 1.1 0
19.8 1.1 0
20.1 1.1 0
20.4 1.1 0
20.7 1.1 0
21 1.1 0
21.3 1.1 0
21.6 1.1 0
21.9 1.1 0
22.2 1.1 0
22.5 1.1 0
22.8 1.1 0
23.1 1.1 0
23.4 1.1 0
23.7 1.1 0
24 1.1 0
24.3 1.1 0
24.6 1.1 0
24.9 1.1 0
25.2 1.1 0
25.5 1.1 0
25.8 1.1 0
26.1 1.1 0
26.4 1.1 0
26.7 1.1 0
27 1.1 0
27.3 1.1 0
27.6 1.1 0
27.9 1.1 0
28.2 1.1 0
28.5 1.1 0
28.8 1.1 0
29.1 1.1 0
29.4 1.1 0
29.7 1.1 0
30 1.1 0
30.3 1.1 0

POINT_DATA 1224

SCALARS pressure double
LOOKUP_TABLE pressure
1.90324
1.90324
1.84409
1.80276
1.76417
1.72609
1.68818
1.65037
1.61265
1.57501
1.53746
1.49999
1.46261
1.4253
1.38807
1.35093
1.31386
1.27686
1.23995
1.2031
1.16633
1.12963
1.093
1.05643
1.01993
0.983494
0.947118
0.910801
0.874542
0.838338
0.802187
0.766087
0.730035
0.69403
0.658068
0.622148
0.586267
0.550423
0.514612
0.478833
0.443083
0.407359
0.371659
0.33598
0.30032
0.264675
0.229043
0.193421
0.157807
0.122197
0.0865899
0.0509819
0.0153706
-0.0202469
-0.0558732
-0.0915109
-0.127163
-0.162832
-0.19852
-0.234231
-0.269966
-0.305729
-0.341522
-0.377347
-0.413208
-0.449105
-0.485043
-0.521023
-0.557047
-0.593119
-0.629239
-0.665411
-0.701636
-0.737917
-0.774255
-0.810654
-0.847113
-0.883636
-0.920224
-0.956879
-0.993603
-1.0304
-1.06726
-1.1042
-1.14121
-1.1783
-1.21547
-1.25271
-1.29003
-1.32744
-1.36492
-1.40249
-1.44014
-1.47787
-1.51569
-1.55359
-1.59158
-1.62966
-1.66788
-1.70652
-1.74477
1.74477
1.90324
1.90324
1.84409
1.80276
1.76417
1.72609
1.68818
1.65037
1.61265
1.57501
1.53746
1.49999
1.46261
1.4253
1.38807
1.35093
1.31386
1.27686
1.23995
1.2031
1.16633
1.12963
1.093
1.05643
1.01993
0.983494
0.947118
0.910801
0.874542
0.838338
0.802187
0.766087
0.730035
0.69403
0.658068
0.622148
0.586267
0.550423
0.514612
0.478833
0.443083
0.407359
0.371659
0.33598
0.30032
0.264675
0.229043
0.193421
0.157807
0.122197
0.0865899
0.0509819
0.0153706
-0.0202469
-0.0558732
-0.0915109
-0.127163
-0.162832
-0.19852
-0.234231
-0.269966
-0.305729
-0.341522
-0.377347
-0.413208
-0.449105
-0.485043
-0.521023
-0.557047
-0.593119
-0.629239
-0.665411
-0.701636
-0.737917
-0.774255
-0.810654
-0.847113
-0.883636
-0.920224
-0.956879
-0.993603
-1.0304
-1.06726
-1.1042
-1.14121
-1.1783
-1.21547
-1.25271
-1.29003
-1.32744
-1.36492
-1.40249
-1.44014
-1.47787
-1.51569
-1.55359
-1.59158
-1.62966
-1.66788
-1.70652
-1.74477
1.74477
1.88632
1.88632
1.84231
1.80253
1.76415
1.72611
1.68821
1.6504
1.61267
1.57504
1.53748
1.50001
1.46263
1.42532
1.38809
1.35095
1.31388
1.27689
1.23997
1.20312
1.16635
1.12965
1.09302
1.05645
1.01995
0.983511
0.947134
0.910817
0.874557
0.838353
0.802201
0.7661
0.730048
0.694042
0.65808
0.622159
0.586277
0.550432
0.514621
0.478841
0.443091
0.407366
0.371665
0.335986
0.300324
0.264679
0.229046
0.193423
0.157808
0.122198
0.0865902
0.0509815
0.0153694
-0.0202488
-0.0558758
-0.0915143
-0.127167
-0.162837
-0.198526
-0.234237
-0.269973
-0.305737
-0.34153
-0.377356
-0.413217
-0.449115
-0.485054
-0.521034
-0.557059
-0.593131
-0.629252
-0.665425
-0.701651
-0.737932
-0.774271
-0.81067
-0.84713
-0.883653
-0.920242
-0.956897
-0.993621
-1.03042
-1.06728
-1.10422
-1.14123
-1.17832
-1.21549
-1.25273
-1.29006
-1.32746
-1.36494
-1.40251
-1.44016
-1.47789
-1.51571
-1.55361
-1.5916
-1.62968
-1.66787
-1.70621
-1.74455
1.74455
1.8749
1.8749
1.84018
1.80218
1.76411
1.72612
1.68823
1.65042
1.6127
1.57506
1.53751
1.50004
1.46265
1.42534
1.38812
1.35097
1.3139
1.27691
1.23999
1.20314
1.16637
1.12967
1.09303
1.05647
1.01997
0.983528
0.947151
0.910833
0.874573
0.838368
0.802216
0.766114
0.730061
0.694055
0.658092
0.62217
0.586288
0.550442
0.51463
0.47885
0.443099
0.407373
0.371672
0.335991
0.300329
0.264683
0.229049
0.193426
0.15781
0.122199
0.0865905
0.050981
0.0153682
-0.0202508
-0.0558785
-0.0915178
-0.127171
-0.162842
-0.198531
-0.234244
-0.26998
-0.305745
-0.341539
-0.377365
-0.413227
-0.449126
-0.485065
-0.521046
-0.557072
-0.593145
-0.629266
-0.665439
-0.701666
-0.737948
-0.774287
-0.810686
-0.847147
-0.883671
-0.92026
-0.956916
-0.99364
-1.03043
-1.0673
-1.10424
-1.14125
-1.17834
-1.21551
-1.25275
-1.29008
-1.32748
-1.36497
-1.40253
-1.44018
-1.47792
-1.51573
-1.55364
-1.59162
-1.62969
-1.66785
-1.706
-1.74439
1.74439
1.86783
1.86783
1.83842
1.80185
1.76406
1.72613
1.68825
1.65044
1.61272
1.57509
1.53753
1.50006
1.46267
1.42537
1.38814
1.35099
1.31392
1.27693
1.24001
1.20316
1.16639
1.12969
1.09305
1.05649
1.01998
0.983546
0.947169
0.91085
0.874589
0.838384
0.802231
0.766129
0.730075
0.694068
0.658104
0.622182
0.586299
0.550453
0.51464
0.478859
0.443107
0.407381
0.371678
0.335997
0.300334
0.264687
0.229053
0.193429
0.157812
0.1222
0.0865908
0.0509805
0.0153669
-0.0202528
-0.0558813
-0.0915214
-0.127176
-0.162847
-0.198537
-0.23425
-0.269988
-0.305753
-0.341548
-0.377375
-0.413237
-0.449137
-0.485077
-0.521059
-0.557085
-0.593158
-0.629281
-0.665454
-0.701681
-0.737964
-0.774304
-0.810704
-0.847165
-0.88369
-0.920279
-0.956935
-0.99366
-1.03046
-1.06732
-1.10426
-1.14128
-1.17837
-1.21553
-1.25278
-1.2901
-1.32751
-1.36499
-1.40256
-1.44021
-1.47794
-1.51576
-1.55366
-1.59165
-1.62971
-1.66783
-1.70589
-1.7443
1.7443
1.86446
1.86446
1.83746
1.80166
1.76405
1.72615
1.68827
1.65047
1.61275
1.57511
1.53756
1.50009
1.4627
1.42539
1.38816
1.35102
1.31395
1.27695
1.24003
1.20319
1.16641
1.12971
1.09307
1.05651
1.02
0.983565
0.947187
0.910868
0.874606
0.8384
0.802246
0.766144
0.730089
0.694081
0.658117
0.622194
0.586311
0.550463
0.51465
0.478868
0.443115
0.407388
0.371685
0.336003
0.300339
0.264691
0.229056
0.193431
0.157814
0.122202
0.0865911
0.05098
0.0153656
-0.020255
-0.0558843
-0.0915251
-0.12718
-0.162852
-0.198544
-0.234257
-0.269996
-0.305761
-0.341557
-0.377385
-0.413248
-0.449149
-0.485089
-0.521072
-0.557099
-0.593173
-0.629296
-0.66547
-0.701698
-0.737981
-0.774322
-0.810722
-0.847184
-0.883709
-0.920299
-0.956956
-0.993681
-1.03048
-1.06734
-1.10428
-1.1413
-1.17839
-1.21556
-1.2528
-1.29013
-1.32753
-1.36502
-1.40258
-1.44023
-1.47797
-1.51578
-1.55369
-1.59167
-1.62973
-1.66784
-1.70584
-1.74427
1.74427
1.86449
1.86449
1.83749
1.80169
1.76408
1.72618
1.6883
1.6505
1.61277
1.57514
1.53758
1.50011
1.46272
1.42542
1.38819
1.35104
1.31397
1.27697
1.24006
1.20321
1.16643
1.12973
1.0931
1.05653
1.02002
0.983584
0.947206
0.910886
0.874624
0.838417
0.802263
0.766159
0.730104
0.694096
0.658131
0.622207
0.586322
0.550474
0.51466
0.478877
0.443124
0.407396
0.371692
0.336009
0.300345
0.264696
0.22906
0.193434
0.157816
0.122203
0.0865914
0.0509795
0.0153642
-0.0202572
-0.0558874
-0.0915291
-0.127185
-0.162858
-0.19855
-0.234264
-0.270004
-0.30577
-0.341567
-0.377396
-0.413259
-0.449161
-0.485102
-0.521085
-0.557113
-0.593188
-0.629311
-0.665486
-0.701715
-0.737998
-0.77434
-0.810741
-0.847203
-0.883729
-0.920319
-0.956977
-0.993703
-1.0305
-1.06737
-1.10431
-1.14132
-1.17841
-1.21558
-1.25283
-1.29015
-1.32755
-1.36504
-1.40261
-1.44026
-1.47799
-1.51581
-1.55371
-1.5917
-1.62976
-1.66786
-1.70587
-1.7443
1.7443
1.86791
1.86791
1.8385
1.80193
1.76415
1.72622
1.68833
1.65052
1.6128
1.57516
1.53761
1.50014
1.46275
1.42544
1.38821
1.35107
1.31399
1.277
1.24008
1.20323
1.16646
1.12975
1.09312
1.05655
1.02005
0.983605
0.947225
0.910905
0.874642
0.838434
0.80228
0.766175
0.73012
0.69411
0.658144
0.62222
0.586335
0.550486
0.514671
0.478887
0.443133
0.407404
0.3717
0.336016
0.30035
0.264701
0.229064
0.193437
0.157818
0.122204
0.0865918
0.050979
0.0153628
-0.0202595
-0.0558905
-0.0915331
-0.12719
-0.162863
-0.198557
-0.234272
-0.270012
-0.305779
-0.341577
-0.377406
-0.413271
-0.449173
-0.485115
-0.521099
-0.557128
-0.593203
-0.629327
-0.665503
-0.701732
-0.738017
-0.774359
-0.81076
-0.847223
-0.883749
-0.920341
-0.956999
-0.993725
-1.03052
-1.06739
-1.10433
-1.14135
-1.17844
-1.2156
-1.25285
-1.29018
-1.32758
-1.36507
-1.40264
-1.44029
-1.47802
-1.51584
-1.55374
-1.59173
-1.62979
-1.66791
-1.70596
-1.74438
1.74438
1.87503
1.87503
1.84032
1.80232
1.76424
1.72626
1.68836
1.65055
1.61283
1.57519
1.53764
1.50017
1.46278
1.42547
1.38824
1.35109
1.31402
1.27702
1.2401
1.20326
1.16648
1.12978
1.09314
1.05657
1.02007
0.983625
0.947245
0.910925
0.874661
0.838453
0.802297
0.766192
0.730136
0.694125
0.658159
0.622234
0.586347
0.550498
0.514682
0.478898
0.443142
0.407413
0.371707
0.336022
0.300356
0.264705
0.229068
0.19344
0.15782
0.122205
0.0865921
0.0509784
0.0153613
-0.0202619
-0.0558938
-0.0915373
-0.127195
-0.162869
-0.198563
-0.23428
-0.270021
-0.305789
-0.341587
-0.377418
-0.413283
-0.449186
-0.485129
-0.521113
-0.557143
-0.593219
-0.629344
-0.66552
-0.70175
-0.738035
-0.774378
-0.81078
-0.847244
-0.883771
-0.920363
-0.957021
-0.993748
-1.03055
-1.06741
-1.10435
-1.14137
-1.17846
-1.21563
-1.25288
-1.2902
-1.32761
-1.36509
-1.40266
-1.44031
-1.47805
-1.51587
-1.55377
-1.59176
-1.62983
-1.66798
-1.70614
-1.74452
1.74452
1.8865
1.8865
1.8425
1.80272
1.76434
1.7263
1.68839
1.65058
1.61286
1.57522
1.53767
1.5002
1.46281
1.4255
1.38827
1.35112
1.31405
1.27705
1.24013
1.20328
1.16651
1.1298
1.09316
1.05659
1.02009
0.983647
0.947266
0.910945
0.87468
0.838471
0.802315
0.766209
0.730152
0.694141
0.658174
0.622248
0.58636
0.55051
0.514693
0.478908
0.443152
0.407421
0.371715
0.336029
0.300362
0.264711
0.229072
0.193443
0.157823
0.122206
0.0865925
0.0509778
0.0153598
-0.0202643
-0.0558972
-0.0915416
-0.1272
-0.162876
-0.198571
-0.234288
-0.270029
-0.305799
-0.341598
-0.377429
-0.413295
-0.449199
-0.485143
-0.521128
-0.557158
-0.593235
-0.629361
-0.665538
-0.701769
-0.738055
-0.774398
-0.810801
-0.847265
-0.883793
-0.920385
-0.957044
-0.993772
-1.03057
-1.06744
-1.10438
-1.1414
-1.17849
-1.21566
-1.2529
-1.29023
-1.32764
-1.36512
-1.40269
-1.44034
-1.47808
-1.51589
-1.5538
-1.59179
-1.62987
-1.66805
-1.7064
-1.74473
1.74473
1.90348
1.90348
1.84433
1.803
1.76441
1.72634
1.68843
1.65061
1.61289
1.57525
1.5377
1.50022
1.46283
1.42553
1.3883
1.35115
1.31407
1.27708
1.24016
1.20331
1.16653
1.12983
1.09319
1.05662
1.02011
0.983669
0.947288
0.910966
0.874701
0.838491
0.802333
0.766227
0.730169
0.694157
0.658189
0.622262
0.586374
0.550523
0.514705
0.478919
0.443162
0.40743
0.371723
0.336036
0.300368
0.264716
0.229076
0.193447
0.157825
0.122208
0.0865929
0.0509772
0.0153582
-0.0202668
-0.0559007
-0.091546
-0.127206
-0.162882
-0.198578
-0.234296
-0.270039
-0.305809
-0.341609
-0.377441
-0.413308
-0.449213
-0.485157
-0.521144
-0.557175
-0.593252
-0.629379
-0.665557
-0.701788
-0.738075
-0.774419
-0.810823
-0.847287
-0.883815
-0.920409
-0.957068
-0.993796
-1.03059
-1.06746
-1.10441
-1.14142
-1.17852
-1.21568
-1.25293
-1.29026
-1.32766
-1.36515
-1.40272
-1.44037
-1.47811
-1.51592
-1.55383
-1.59182
-1.6299
-1.66812
-1.70676
-1.74501
1.74501
1.90348
1.90348
1.84433
1.803
1.76441
1.72634
1.68843
1.65061
1.61289
1.57525
1.5377
1.50022
1.46283
1.42553
1.3883
1.35115
1.31407
1.27708
1.24016
1.20331
1.16653
1.12983
1.09319
1.05662
1.02011
0.983669
0.947288
0.910966
0.874701
0.838491
0.802333
0.766227
0.730169
0.694157
0.658189
0.622262
0.586374
0.550523
0.514705
0.478919
0.443162
0.40743
0.371723
0.336036
0.300368
0.264716
0.229076
0.193447
0.157825
0.122208
0.0865929
0.0509772
0.0153582
-0.0202668
-0.0559007
-0.091546
-0.127206
-0.162882
-0.198578
-0.234296
-0.270039
-0.305809
-0.341609
-0.377441
-0.413308
-0.449213
-0.485157
-0.521144
-0.557175
-0.593252
-0.629379
-0.665557
-0.701788
-0.738075
-0.774419
-0.810823
-0.847287
-0.883815
-0.920409
-0.957068
-0.993796
-1.03059
-1.06746
-1.10441
-1.14142
-1.17852
-1.21568
-1.25293
-1.29026
-1.32766
-1.36515
-1.40272
-1.44037
-1.47811
-1.51592
-1.55383
-1.59182
-1.6299
-1.66812
-1.70676
-1.74501
1.74501
SCALARS phi double
LOOKUP_TABLE phi
1.6152
0.384799
0.0391564
0.00230302
8.69392e-05
2.1871e-06
3.66722e-08
3.95219e-10
2.48417e-12
6.93857e-15
0
0
0
0
0
0
0
0
0
0
0
0
0
0
0
0
0
0
0
0
0
0
0
0
0
0
0
0
0
0
0
0
0
0
0
0
0
0
0
0
0
0
0
0
0
0
0
0
0
0
0
0
0
0
0
0
0
0
0
0
0
0
0
0
0
0
0
0
0
0
0
0
0
0
0
0
0
0
0
0
0
0
0
0
0
0
0
0
0
0
0
0
1.6152
0.384799
0.0391564
0.00230302
8.69392e-05
2.1871e-06
3.66722e-08
3.95219e-10
2.48417e-12
6.93857e-15
0
0
0
0
0
0
0
0
0
0
0
0
0
0
0
0
0
0
0
0
0
0
0
0
0
0
0
0
0
0
0
0
0
0
0
0
0
0
0
0
0
0
0
0
0
0
0
0
0
0
0
0
0
0
0
0
0
0
0
0
0
0
0
0
0
0
0
0
0
0
0
0
0
0
0
0
0
0
0
0
0
0
0
0
0
0
0
0
0
0
0
0
1.6148
0.385203
0.0405464
0.0024762
9.69371e-05
2.5263e-06
4.38577e-08
4.89229e-10
3.18244e-12
9.19889e-15
0
0
0
0
0
0
0
0
0
0
0
0
0
0
0
0
0
0
0
0
0
0
0
0
0
0
0
0
0
0
0
0
0
0
0
0
0
0
0
0
0
0
0
0
0
0
0
0
0
0
0
0
0
0
0
0
0
0
0
0
0
0
0
0
0
0
0
0
0
0
0
0
0
0
0
0
0
0
0
0
0
0
0
0
0
0
0
0
0
0
0
0
1.61481
0.38519
0.0405029
0.00247448
9.69354e-05
2.52775e-06
4.39026e-08
4.89891e-10
3.18746e-12
9.21459e-15
0
0
0
0
0
0
0
0
0
0
0
0
0
0
0
0
0
0
0
0
0
0
0
0
0
0
0
0
0
0
0
0
0
0
0
0
0
0
0
0
0
0
0
0
0
0
0
0
0
0
0
0
0
0
0
0
0
0
0
0
0
0
0
0
0
0
0
0
0
0
0
0
0
0
0
0
0
0
0
0
0
0
0
0
0
0
0
0
0
0
0
0
1.61486
0.385141
0.0404582
0.00247137
9.68285e-05
2.52542e-06
4.38687e-08
4.89569e-10
3.18563e-12
9.20986e-15
0
0
0
0
0
0
0
0
0
0
0
0
0
0
0
0
0
0
0
0
0
0
0
0
0
0
0
0
0
0
0
0
0
0
0
0
0
0
0
0
0
0
0
0
0
0
0
0
0
0
0
0
0
0
0
0
0
0
0
0
0
0
0
0
0
0
0
0
0
0
0
0
0
0
0
0
0
0
0
0
0
0
0
0
0
0
0
0
0
0
0
0
1.61968
0.380316
0.0398271
0.00243347
9.5498e-05
2.49628e-06
4.34743e-08
4.8652e-10
3.1751e-12
9.20747e-15
0
0
0
0
0
0
0
0
0
0
0
0
0
0
0
0
0
0
0
0
0
0
0
0
0
0
0
0
0
0
0
0
0
0
0
0
0
0
0
0
0
0
0
0
0
0
0
0
0
0
0
0
0
0
0
0
0
0
0
0
0
0
0
0
0
0
0
0
0
0
0
0
0
0
0
0
0
0
0
0
0
0
0
0
0
0
0
0
0
0
0
0
-0.0048573
0.0048573
0.00061741
3.67635e-05
1.28866e-06
2.81564e-08
3.79155e-10
2.8934e-12
9.60869e-15
0
0
0
0
0
0
0
0
0
0
0
0
0
0
0
0
0
0
0
0
0
0
0
0
0
0
0
0
0
0
0
0
0
0
0
0
0
0
0
0
0
0
0
0
0
0
0
0
0
0
0
0
0
0
0
0
0
0
0
0
0
0
0
0
0
0
0
0
0
0
0
0
0
0
0
0
0
0
0
0
0
0
0
0
0
0
0
0
0
0
0
0
0
-3.73052e-05
3.73052e-05
4.65821e-06
2.48557e-07
7.28905e-09
1.23124e-10
1.1299e-12
4.38406e-15
0
0
0
0
0
0
0
0
0
0
0
0
0
0
0
0
0
0
0
0
0
0
0
0
0
0
0
0
0
0
0
0
0
0
0
0
0
0
0
0
0
0
0
0
0
0
0
0
0
0
0
0
0
0
0
0
0
0
0
0
0
0
0
0
0
0
0
0
0
0
0
0
0
0
0
0
0
0
0
0
0
0
0
0
0
0
0
0
0
0
0
0
0
0
-1.84594e-07
1.84594e-07
2.08268e-08
9.34518e-10
2.12306e-11
2.44576e-13
1.14141e-15
0
0
0
0
0
0
0
0
0
0
0
0
0
0
0
0
0
0
0
0
0
0
0
0
0
0
0
0
0
0
0
0
0
0
0
0
0
0
0
0
0
0
0
0
0
0
0
0
0
0
0
0
0
0
0
0
0
0
0
0
0
0
0
0
0
0
0
0
0
0
0
0
0
0
0
0
0
0
0
0
0
0
0
0
0
0
0
0
0
0
0
0
0
0
0
-6.02459e-10
6.02459e-10
5.80546e-11
2.03222e-12
3.15632e-14
1.85066e-16
0
0
0
0
0
0
0
0
0
0
0
0
0
0
0
0
0
0
0
0
0
0
0
0
0
0
0
0
0
0
0
0
0
0
0
0
0
0
0
0
0
0
0
0
0
0
0
0
0
0
0
0
0
0
0
0
0
0
0
0
0
0
0
0
0
0
0
0
0
0
0
0
0
0
0
0
0
0
0
0
0
0
0
0
0
0
0
0
0
0
0
0
0
0
0
0
-1.28798e-12
1.28798e-12
9.91402e-14
2.36854e-15
1.85827e-17
0
0
0
0
0
0
0
0
0
0
0
0
0
0
0
0
0
0
0
0
0
0
0
0
0
0
0
0
0
0
0
0
0
0
0
0
0
0
0
0
0
0
0
0
0
0
0
0
0
0
0
0
0
0
0
0
0
0
0
0
0
0
0
0
0
0
0
0
0
0
0
0
0
0
0
0
0
0
0
0
0
0
0
0
0
0
0
0
0
0
0
0
0
0
0
0
0
-1.28798e-12
1.28798e-12
9.91402e-14
2.36854e-15
1.85827e-17
0
0
0
0
0
0
0
0
0
0
0
0
0
0
0
0
0
0
0
0
0
0
0
0
0
0
0
0
0
0
0
0
0
0
0
0
0
0
0
0
0
0
0
0
0
0
0
0
0
0
0
0
0
0
0
0
0
0
0
0
0
0
0
0
0
0
0
0
0
0
0
0
0
0
0
0
0
0
0
0
0
0
0
0
0
0
0
0
0
0
0
0
0
0
0
0
0
VECTORS velocity double
-1 0 0
-0.963483 0 0
-0.955351 0 0
-0.954037 0 0
-0.953824 0 0
-0.953786 0 0
-0.953778 0 0
-0.953776 0 0
-0.953774 0 0
-0.953773 0 0
-0.953772 0 0
-0.953771 0 0
-0.953769 0 0
-0.953768 0 0
-0.953767 0 0
-0.953766 0 0
-0.953765 0 0
-0.953764 0 0
-0.953763 0 0
-0.953762 0 0
-0.95376 0 0
-0.953759 0 0
-0.953758 0 0
-0.953757 0 0
-0.953756 0 0
-0.953755 0 0
-0.953754 0 0
-0.953753 0 0
-0.953752 0 0
-0.953751 0 0
-0.95375 0 0
-0.95375 0 0
-0.953749 0 0
-0.953748 0 0
-0.953747 0 0
-0.953746 0 0
-0.953745 0 0
-0.953745 0 0
-0.953744 0 0
-0.953743 0 0
-0.953742 0 0
-0.953742 0 0
-0.953741 0 0
-0.95374 0 0
-0.95374 0 0
-0.953739 0 0
-0.953739 0 0
-0.953738 0 0
-0.953738 0 0
-0.953737 0 0
-0.953737 0 0
-0.953736 0 0
-0.953736 0 0
-0.953736 0 0
-0.953735 0 0
-0.953735 0 0
-0.953735 0 0
-0.953735 0 0
-0.953734 0 0
-0.953734 0 0
-0.953734 0 0
-0.953734 0 0
-0.953734 0 0
-0.953734 0 0
-0.953734 0 0
-0.953734 0 0
-0.953734 0 0
-0.953734 0 0
-0.953734 0 0
-0.953734 0 0
-0.953734 0 0
-0.953734 0 0
-0.953734 0 0
-0.953734 0 0
-0.953734 0 0
-0.953734 0 0
-0.953735 0 0
-0.953735 0 0
-0.953735 0 0
-0.953735 0 0
-0.953736 0 0
-0.953736 0 0
-0.953736 0 0
-0.953737 0 0
-0.953737 0 0
-0.953737 0 0
-0.953738 0 0
-0.953738 0 0
-0.953739 0 0
-0.953739 0 0
-0.953739 0 0
-0.95374 0 0
-0.95374 0 0
-0.953741 0 0
-0.953741 0 0
-0.953743 0 0
-0.953747 0 0
-0.953769 0 0
-0.953893 0 0
-0.954906 0 0
-0.954906 0 0
-1 0 0
1 -0.0121705 0
0.963483 0.0121705 0
0.955351 0.00270894 0
0.954037 0.000436338 0
0.953824 6.94439e-05 0
0.953786 1.10109e-05 0
0.953778 9.70697e-07 0
0.953776 -8.40945e-07 0
0.953774 -1.16837e-06 0
0.953773 -1.22098e-06 0
0.953772 -1.22182e-06 0
0.953771 -1.21236e-06 0
0.953769 -1.20028e-06 0
0.953768 -1.187e-06 0
0.953767 -1.17277e-06 0
0.953766 -1.15765e-06 0
0.953765 -1.14166e-06 0
0.953764 -1.12482e-06 0
0.953763 -1.10714e-06 0
0.953762 -1.08865e-06 0
0.95376 -1.06935e-06 0
0.953759 -1.04928e-06 0
0.953758 -1.02845e-06 0
0.953757 -1.00688e-06 0
0.953756 -9.84588e-07 0
0.953755 -9.61607e-07 0
0.953754 -9.37956e-07 0
0.953753 -9.13659e-07 0
0.953752 -8.88739e-07 0
0.953751 -8.63223e-07 0
0.95375 -8.37136e-07 0
0.95375 -8.10504e-07 0
0.953749 -7.83355e-07 0
0.953748 -7.55716e-07 0
0.953747 -7.27614e-07 0
0.953746 -6.99079e-07 0
0.953745 -6.70139e-07 0
0.953745 -6.40823e-07 0
0.953744 -6.11161e-07 0
0.953743 -5.81184e-07 0
0.953742 -5.50921e-07 0
0.953742 -5.20402e-07 0
0.953741 -4.8966e-07 0
0.95374 -4.58725e-07 0
0.95374 -4.27629e-07 0
0.953739 -3.96422e-07 0
0.953739 -3.65109e-07 0
0.953738 -3.33718e-07 0
0.953738 -3.023e-07 0
0.953737 -2.71066e-07 0
0.953737 -2.39784e-07 0
0.953736 -2.08651e-07 0
0.953736 -1.77539e-07 0
0.953736 -1.46432e-07 0
0.953735 -1.15456e-07 0
0.953735 -8.46628e-08 0
0.953735 -5.40954e-08 0
0.953735 -2.37722e-08 0
0.953734 6.28414e-09 0
0.953734 3.60363e-08 0
0.953734 6.54534e-08 0
0.953734 9.45062e-08 0
0.953734 1.23166e-07 0
0.953734 1.51405e-07 0
0.953734 1.79195e-07 0
0.953734 2.06508e-07 0
0.953734 2.3332e-07 0
0.953734 2.59602e-07 0
0.953734 2.85331e-07 0