# vtk DataFile Version 3.0
FlowField
ASCII
DATASET STRUCTURED_GRID
DIMENSIONS 102 12 1 
POINTS 1224 double
0 0 0
0.3 0 0
0.6 0 0
0.9 0 0
1.2 0 0
1.5 0 0
1.8 0 0
2.1 0 0
2.4 0 0
2.7 0 0
3 0 0
3.3 0 0
3.6 0 0
3.9 0 0
4.2 0 0
4.5 0 0
4.8 0 0
5.1 0 0
5.4 0 0
5.7 0 0
6 0 0
6.3 0 0
6.6 0 0
6.9 0 0
7.2 0 0
7.5 0 0
7.8 0 0
8.1 0 0
8.4 0 0
8.7 0 0
9 0 0
9.3 0 0
9.6 0 0
9.9 0 0
10.2 0 0
10.5 0 0
10.8 0 0
11.1 0 0
11.4 0 0
11.7 0 0
12 0 0
12.3 0 0
12.6 0 0
12.9 0 0
13.2 0 0
13.5 0 0
13.8 0 0
14.1 0 0
14.4 0 0
14.7 0 0
15 0 0
15.3 0 0
15.6 0 0
15.9 0 0
16.2 0 0
16.5 0 0
16.8 0 0
17.1 0 0
17.4 0 0
17.7 0 0
18 0 0
18.3 0 0
18.6 0 0
18.9 0 0
19.2 0 0
19.5 0 0
19.8 0 0
20.1 0 0
20.4 0 0
20.7 0 0
21 0 0
21.3 0 0
21.6 0 0
21.9 0 0
22.2 0 0
22.5 0 0
22.8 0 0
23.1 0 0
23.4 0 0
23.7 0 0
24 0 0
24.3 0 0
24.6 0 0
24.9 0 0
25.2 0 0
25.5 0 0
25.8 0 0
26.1 0 0
26.4 0 0
26.7 0 0
27 0 0
27.3 0 0
27.6 0 0
27.9 0 0
28.2 0 0
28.5 0 0
28.8 0 0
29.1 0 0
29.4 0 0
29.7 0 0
30 0 0
30.3 0 0
0 0.1 0
0.3 0.1 0
0.6 0.1 0
0.9 0.1 0
1.2 0.1 0
1.5 0.1 0
1.8 0.1 0
2.1 0.1 0
2.4 0.1 0
2.7 0.1 0
3 0.1 0
3.3 0.1 0
3.6 0.1 0
3.9 0.1 0
4.2 0.1 0
4.5 0.1 0
4.8 0.1 0
5.1 0.1 0
5.4 0.1 0
5.7 0.1 0
6 0.1 0
6.3 0.1 0
6.6 0.1 0
6.9 0.1 0
7.2 0.1 0
7.5 0.1 0
7.8 0.1 0
8.1 0.1 0
8.4 0.1 0
8.7 0.1 0
9 0.1 0
9.3 0.1 0
9.6 0.1 0
9.9 0.1 0
10.2 0.1 0
10.5 0.1 0
10.8 0.1 0
11.1 0.1 0
11.4 0.1 0
11.7 0.1 0
12 0.1 0
12.3 0.1 0
12.6 0.1 0
12.9 0.1 0
13.2 0.1 0
13.5 0.1 0
13.8 0.1 0
14.1 0.1 0
14.4 0.1 0
14.7 0.1 0
15 0.1 0
15.3 0.1 0
15.6 0.1 0
15.9 0.1 0
16.2 0.1 0
16.5 0.1 0
16.8 0.1 0
17.1 0.1 0
17.4 0.1 0
17.7 0.1 0
18 0.1 0
18.3 0.1 0
18.6 0.1 0
18.9 0.1 0
19.2 0.1 0
19.5 0.1 0
19.8 0.1 0
20.1 0.1 0
20.4 0.1 0
20.7 0.1 0
21 0.1 0
21.3 0.1 0
21.6 0.1 0
21.9 0.1 0
22.2 0.1 0
22.5 0.1 0
22.8 0.1 0
23.1 0.1 0
23.4 0.1 0
23.7 0.1 0
24 0.1 0
24.3 0.1 0
24.6 0.1 0
24.9 0.1 0
25.2 0.1 0
25.5 0.1 0
25.8 0.1 0
26.1 0.1 0
26.4 0.1 0
26.7 0.1 0
27 0.1 0
27.3 0.1 0
27.6 0.1 0
27.9 0.1 0
28.2 0.1 0
28.5 0.1 0
28.8 0.1 0
29.1 0.1 0
29.4 0.1 0
29.7 0.1 0
30 0.1 0
30.3 0.1 0
0 0.2 0
0.3 0.2 0
0.6 0.2 0
0.9 0.2 0
1.2 0.2 0
1.5 0.2 0
1.8 0.2 0
2.1 0.2 0
2.4 0.2 0
2.7 0.2 0
3 0.2 0
3.3 0.2 0
3.6 0.2 0
3.9 0.2 0
4.2 0.2 0
4.5 0.2 0
4.8 0.2 0
5.1 0.2 0
5.4 0.2 0
5.7 0.2 0
6 0.2 0
6.3 0.2 0
6.6 0.2 0
6.9 0.2 0
7.2 0.2 0
7.5 0.2 0
7.8 0.2 0
8.1 0.2 0
8.4 0.2 0
8.7 0.2 0
9 0.2 0
9.3 0.2 0
9.6 0.2 0
9.9 0.2 0
10.2 0.2 0
10.5 0.2 0
10.8 0.2 0
11.1 0.2 0
11.4 0.2 0
11.7 0.2 0
12 0.2 0
12.3 0.2 0
12.6 0.2 0
12.9 0.2 0
13.2 0.2 0
13.5 0.2 0
13.8 0.2 0
14.1 0.2 0
14.4 0.2 0
14.7 0.2 0
15 0.2 0
15.3 0.2 0
15.6 0.2 0
15.9 0.2 0
16.2 0.2 0
16.5 0.2 0
16.8 0.2 0
17.1 0.2 0
17.4 0.2 0
17.7 0.2 0
18 0.2 0
18.3 0.2 0
18.6 0.2 0
18.9 0.2 0
19.2 0.2 0
19.5 0.2 0
19.8 0.2 0
20.1 0.2 0
20.4 0.2 0
20.7 0.2 0
21 0.2 0
21.3 0.2 0
21.6 0.2 0
21.9 0.2 0
22.2 0.2 0
22.5 0.2 0
22.8 0.2 0
23.1 0.2 0
23.4 0.2 0
23.7 0.2 0
24 0.2 0
24.3 0.2 0
24.6 0.2 0
24.9 0.2 0
25.2 0.2 0
25.5 0.2 0
25.8 0.2 0
26.1 0.2 0
26.4 0.2 0
26.7 0.2 0
27 0.2 0
27.3 0.2 0
27.6 0.2 0
27.9 0.2 0
28.2 0.2 0
28.5 0.2 0
28.8 0.2 0
29.1 0.2 0
29.4 0.2 0
29.7 0.2 0
30 0.2 0
30.3 0.2 0
0 0.3 0
0.3 0.3 0
0.6 0.3 0
0.9 0.3 0
1.2 0.3 0
1.5 0.3 0
1.8 0.3 0
2.1 0.3 0
2.4 0.3 0
2.7 0.3 0
3 0.3 0
3.3 0.3 0
3.6 0.3 0
3.9 0.3 0
4.2 0.3 0
4.5 0.3 0
4.8 0.3 0
5.1 0.3 0
5.4 0.3 0
5.7 0.3 0
6 0.3 0
6.3 0.3 0
6.6 0.3 0
6.9 0.3 0
7.2 0.3 0
7.5 0.3 0
7.8 0.3 0
8.1 0.3 0
8.4 0.3 0
8.7 0.3 0
9 0.3 0
9.3 0.3 0
9.6 0.3 0
9.9 0.3 0
10.2 0.3 0
10.5 0.3 0
10.8 0.3 0
11.1 0.3 0
11.4 0.3 0
11.7 0.3 0
12 0.3 0
12.3 0.3 0
12.6 0.3 0
12.9 0.3 0
13.2 0.3 0
13.5 0.3 0
13.8 0.3 0
14.1 0.3 0
14.4 0.3 0
14.7 0.3 0
15 0.3 0
15.3 0.3 0
15.6 0.3 0
15.9 0.3 0
16.2 0.3 0
16.5 0.3 0
16.8 0.3 0
17.1 0.3 0
17.4 0.3 0
17.7 0.3 0
18 0.3 0
18.3 0.3 0
18.6 0.3 0
18.9 0.3 0
19.2 0.3 0
19.5 0.3 0
19.8 0.3 0
20.1 0.3 0
20.4 0.3 0
20.7 0.3 0
21 0.3 0
21.3 0.3 0
21.6 0.3 0
21.9 0.3 0
22.2 0.3 0
22.5 0.3 0
22.8 0.3 0
23.1 0.3 0
23.4 0.3 0
23.7 0.3 0
24 0.3 0
24.3 0.3 0
24.6 0.3 0
24.9 0.3 0
25.2 0.3 0
25.5 0.3 0
25.8 0.3 0
26.1 0.3 0
26.4 0.3 0
26.7 0.3 0
27 0.3 0
27.3 0.3 0
27.6 0.3 0
27.9 0.3 0
28.2 0.3 0
28.5 0.3 0
28.8 0.3 0
29.1 0.3 0
29.4 0.3 0
29.7 0.3 0
30 0.3 0
30.3 0.3 0
0 0.4 0
0.3 0.4 0
0.6 0.4 0
0.9 0.4 0
1.2 0.4 0
1.5 0.4 0
1.8 0.4 0
2.1 0.4 0
2.4 0.4 0
2.7 0.4 0
3 0.4 0
3.3 0.4 0
3.6 0.4 0
3.9 0.4 0
4.2 0.4 0
4.5 0.4 0
4.8 0.4 0
5.1 0.4 0
5.4 0.4 0
5.7 0.4 0
6 0.4 0
6.3 0.4 0
6.6 0.4 0
6.9 0.4 0
7.2 0.4 0
7.5 0.4 0
7.8 0.4 0
8.1 0.4 0
8.4 0.4 0
8.7 0.4 0
9 0.4 0
9.3 0.4 0
9.6 0.4 0
9.9 0.4 0
10.2 0.4 0
10.5 0.4 0
10.8 0.4 0
11.1 0.4 0
11.4 0.4 0
11.7 0.4 0
12 0.4 0
12.3 0.4 0
12.6 0.4 0
12.9 0.4 0
13.2 0.4 0
13.5 0.4 0
13.8 0.4 0
14.1 0.4 0
14.4 0.4 0
14.7 0.4 0
15 0.4 0
15.3 0.4 0
15.6 0.4 0
15.9 0.4 0
16.2 0.4 0
16.5 0.4 0
16.8 0.4 0
17.1 0.4 0
17.4 0.4 0
17.7 0.4 0
18 0.4 0
18.3 0.4 0
18.6 0.4 0
18.9 0.4 0
19.2 0.4 0
19.5 0.4 0
19.8 0.4 0
20.1 0.4 0
20.4 0.4 0
20.7 0.4 0
21 0.4 0
21.3 0.4 0
21.6 0.4 0
21.9 0.4 0
22.2 0.4 0
22.5 0.4 0
22.8 0.4 0
23.1 0.4 0
23.4 0.4 0
23.7 0.4 0
24 0.4 0
24.3 0.4 0
24.6 0.4 0
24.9 0.4 0
25.2 0.4 0
25.5 0.4 0
25.8 0.4 0
26.1 0.4 0
26.4 0.4 0
26.7 0.4 0
27 0.4 0
27.3 0.4 0
27.6 0.4 0
27.9 0.4 0
28.2 0.4 0
28.5 0.4 0
28.8 0.4 0
29.1 0.4 0
29.4 0.4 0
29.7 0.4 0
30 0.4 0
30.3 0.4 0
0 0.5 0
0.3 0.5 0
0.6 0.5 0
0.9 0.5 0
1.2 0.5 0
1.5 0.5 0
1.8 0.5 0
2.1 0.5 0
2.4 0.5 0
2.7 0.5 0
3 0.5 0
3.3 0.5 0
3.6 0.5 0
3.9 0.5 0
4.2 0.5 0
4.5 0.5 0
4.8 0.5 0
5.1 0.5 0
5.4 0.5 0
5.7 0.5 0
6 0.5 0
6.3 0.5 0
6.6 0.5 0
6.9 0.5 0
7.2 0.5 0
7.5 0.5 0
7.8 0.5 0
8.1 0.5 0
8.4 0.5 0
8.7 0.5 0
9 0.5 0
9.3 0.5 0
9.6 0.5 0
9.9 0.5 0
10.2 0.5 0
10.5 0.5 0
10.8 0.5 0
11.1 0.5 0
11.4 0.5 0
11.7 0.5 0
12 0.5 0
12.3 0.5 0
12.6 0.5 0
12.9 0.5 0
13.2 0.5 0
13.5 0.5 0
13.8 0.5 0
14.1 0.5 0
14.4 0.5 0
14.7 0.5 0
15 0.5 0
15.3 0.5 0
15.6 0.5 0
15.9 0.5 0
16.2 0.5 0
16.5 0.5 0
16.8 0.5 0
17.1 0.5 0
17.4 0.5 0
17.7 0.5 0
18 0.5 0
18.3 0.5 0
18.6 0.5 0
18.9 0.5 0
19.2 0.5 0
19.5 0.5 0
19.8 0.5 0
20.1 0.5 0
20.4 0.5 0
20.7 0.5 0
21 0.5 0
21.3 0.5 0
21.6 0.5 0
21.9 0.5 0
22.2 0.5 0
22.5 0.5 0
22.8 0.5 0
23.1 0.5 0
23.4 0.5 0
23.7 0.5 0
24 0.5 0
24.3 0.5 0
24.6 0.5 0
24.9 0.5 0
25.2 0.5 0
25.5 0.5 0
25.8 0.5 0
26.1 0.5 0
26.4 0.5 0
26.7 0.5 0
27 0.5 0
27.3 0.5 0
27.6 0.5 0
27.9 0.5 0
28.2 0.5 0
28.5 0.5 0
28.8 0.5 0
29.1 0.5 0
29.4 0.5 0
29.7 0.5 0
30 0.5 0
30.3 0.5 0
0 0.6 0
0.3 0.6 0
0.6 0.6 0
0.9 0.6 0
1.2 0.6 0
1.5 0.6 0
1.8 0.6 0
2.1 0.6 0
2.4 0.6 0
2.7 0.6 0
3 0.6 0
3.3 0.6 0
3.6 0.6 0
3.9 0.6 0
4.2 0.6 0
4.5 0.6 0
4.8 0.6 0
5.1 0.6 0
5.4 0.6 0
5.7 0.6 0
6 0.6 0
6.3 0.6 0
6.6 0.6 0
6.9 0.6 0
7.2 0.6 0
7.5 0.6 0
7.8 0.6 0
8.1 0.6 0
8.4 0.6 0
8.7 0.6 0
9 0.6 0
9.3 0.6 0
9.6 0.6 0
9.9 0.6 0
10.2 0.6 0
10.5 0.6 0
10.8 0.6 0
11.1 0.6 0
11.4 0.6 0
11.7 0.6 0
12 0.6 0
12.3 0.6 0
12.6 0.6 0
12.9 0.6 0
13.2 0.6 0
13.5 0.6 0
13.8 0.6 0
14.1 0.6 0
14.4 0.6 0
14.7 0.6 0
15 0.6 0
15.3 0.6 0
15.6 0.6 0
15.9 0.6 0
16.2 0.6 0
16.5 0.6 0
16.8 0.6 0
17.1 0.6 0
17.4 0.6 0
17.7 0.6 0
18 0.6 0
18.3 0.6 0
18.6 0.6 0
18.9 0.6 0
19.2 0.6 0
19.5 0.6 0
19.8 0.6 0
20.1 0.6 0
20.4 0.6 0
20.7 0.6 0
21 0.6 0
21.3 0.6 0
21.6 0.6 0
21.9 0.6 0
22.2 0.6 0
22.5 0.6 0
22.8 0.6 0
23.1 0.6 0
23.4 0.6 0
23.7 0.6 0
24 0.6 0
24.3 0.6 0
24.6 0.6 0
24.9 0.6 0
25.2 0.6 0
25.5 0.6 0
25.8 0.6 0
26.1 0.6 0
26.4 0.6 0
26.7 0.6 0
27 0.6 0
27.3 0.6 0
27.6 0.6 0
27.9 0.6 0
28.2 0.6 0
28.5 0.6 0
28.8 0.6 0
29.1 0.6 0
29.4 0.6 0
29.7 0.6 0
30 0.6 0
30.3 0.6 0
0 0.7 0
0.3 0.7 0
0.6 0.7 0
0.9 0.7 0
1.2 0.7 0
1.5 0.7 0
1.8 0.7 0
2.1 0.7 0
2.4 0.7 0
2.7 0.7 0
3 0.7 0
3.3 0.7 0
3.6 0.7 0
3.9 0.7 0
4.2 0.7 0
4.5 0.7 0
4.8 0.7 0
5.1 0.7 0
5.4 0.7 0
5.7 0.7 0
6 0.7 0
6.3 0.7 0
6.6 0.7 0
6.9 0.7 0
7.2 0.7 0
7.5 0.7 0
7.8 0.7 0
8.1 0.7 0
8.4 0.7 0
8.7 0.7 0
9 0.7 0
9.3 0.7 0
9.6 0.7 0
9.9 0.7 0
10.2 0.7 0
10.5 0.7 0
10.8 0.7 0
11.1 0.7 0
11.4 0.7 0
11.7 0.7 0
12 0.7 0
12.3 0.7 0
12.6 0.7 0
12.9 0.7 0
13.2 0.7 0
13.5 0.7 0
13.8 0.7 0
14.1 0.7 0
14.4 0.7 0
14.7 0.7 0
15 0.7 0
15.3 0.7 0
15.6 0.7 0
15.9 0.7 0
16.2 0.7 0
16.5 0.7 0
16.8 0.7 0
17.1 0.7 0
17.4 0.7 0
17.7 0.7 0
18 0.7 0
18.3 0.7 0
18.6 0.7 0
18.9 0.7 0
19.2 0.7 0
19.5 0.7 0
19.8 0.7 0
20.1 0.7 0
20.4 0.7 0
20.7 0.7 0
21 0.7 0
21.3 0.7 0
21.6 0.7 0
21.9 0.7 0
22.2 0.7 0
22.5 0.7 0
22.8 0.7 0
23.1 0.7 0
23.4 0.7 0
23.7 0.7 0
24 0.7 0
24.3 0.7 0
24.6 0.7 0
24.9 0.7 0
25.2 0.7 0
25.5 0.7 0
25.8 0.7 0
26.1 0.7 0
26.4 0.7 0
26.7 0.7 0
27 0.7 0
27.3 0.7 0
27.6 0.7 0
27.9 0.7 0
28.2 0.7 0
28.5 0.7 0
28.8 0.7 0
29.1 0.7 0
29.4 0.7 0
29.7 0.7 0
30 0.7 0
30.3 0.7 0
0 0.8 0
0.3 0.8 0
0.6 0.8 0
0.9 0.8 0
1.2 0.8 0
1.5 0.8 0
1.8 0.8 0
2.1 0.8 0
2.4 0.8 0
2.7 0.8 0
3 0.8 0
3.3 0.8 0
3.6 0.8 0
3.9 0.8 0
4.2 0.8 0
4.5 0.8 0
4.8 0.8 0
5.1 0.8 0
5.4 0.8 0
5.7 0.8 0
6 0.8 0
6.3 0.8 0
6.6 0.8 0
6.9 0.8 0
7.2 0.8 0
7.5 0.8 0
7.8 0.8 0
8.1 0.8 0
8.4 0.8 0
8.7 0.8 0
9 0.8 0
9.3 0.8 0
9.6 0.8 0
9.9 0.8 0
10.2 0.8 0
10.5 0.8 0
10.8 0.8 0
11.1 0.8 0
11.4 0.8 0
11.7 0.8 0
12 0.8 0
12.3 0.8 0
12.6 0.8 0
12.9 0.8 0
13.2 0.8 0
13.5 0.8 0
13.8 0.8 0
14.1 0.8 0
14.4 0.8 0
14.7 0.8 0
15 0.8 0
15.3 0.8 0
15.6 0.8 0
15.9 0.8 0
16.2 0.8 0
16.5 0.8 0
16.8 0.8 0
17.1 0.8 0
17.4 0.8 0
17.7 0.8 0
18 0.8 0
18.3 0.8 0
18.6 0.8 0
18.9 0.8 0
19.2 0.8 0
19.5 0.8 0
19.8 0.8 0
20.1 0.8 0
20.4 0.8 0
20.7 0.8 0
21 0.8 0
21.3 0.8 0
21.6 0.8 0
21.9 0.8 0
22.2 0.8 0
22.5 0.8 0
22.8 0.8 0
23.1 0.8 0
23.4 0.8 0
23.7 0.8 0
24 0.8 0
24.3 0.8 0
24.6 0.8 0
24.9 0.8 0
25.2 0.8 0
25.5 0.8 0
25.8 0.8 0
26.1 0.8 0
26.4 0.8 0
26.7 0.8 0
27 0.8 0
27.3 0.8 0
27.6 0.8 0
27.9 0.8 0
28.2 0.8 0
28.5 0.8 0
28.8 0.8 0
29.1 0.8 0
29.4 0.8 0
29.7 0.8 0
30 0.8 0
30.3 0.8 0
0 0.9 0
0.3 0.9 0
0.6 0.9 0
0.9 0.9 0
1.2 0.9 0
1.5 0.9 0
1.8 0.9 0
2.1 0.9 0
2.4 0.9 0
2.7 0.9 0
3 0.9 0
3.3 0.9 0
3.6 0.9 0
3.9 0.9 0
4.2 0.9 0
4.5 0.9 0
4.8 0.9 0
5.1 0.9 0
5.4 0.9 0
5.7 0.9 0
6 0.9 0
6.3 0.9 0
6.6 0.9 0
6.9 0.9 0
7.2 0.9 0
7.5 0.9 0
7.8 0.9 0
8.1 0.9 0
8.4 0.9 0
8.7 0.9 0
9 0.9 0
9.3 0.9 0
9.6 0.9 0
9.9 0.9 0
10.2 0.9 0
10.5 0.9 0
10.8 0.9 0
11.1 0.9 0
11.4 0.9 0
11.7 0.9 0
12 0.9 0
12.3 0.9 0
12.6 0.9 0
12.9 0.9 0
13.2 0.9 0
13.5 0.9 0
13.8 0.9 0
14.1 0.9 0
14.4 0.9 0
14.7 0.9 0
15 0.9 0
15.3 0.9 0
15.6 0.9 0
15.9 0.9 0
16.2 0.9 0
16.5 0.9 0
16.8 0.9 0
17.1 0.9 0
17.4 0.9 0
17.7 0.9 0
18 0.9 0
18.3 0.9 0
18.6 0.9 0
18.9 0.9 0
19.2 0.9 0
19.5 0.9 0
19.8 0.9 0
20.1 0.9 0
20.4 0.9 0
20.7 0.9 0
21 0.9 0
21.3 0.9 0
21.6 0.9 0
21.9 0.9 0
22.2 0.9 0
22.5 0.9 0
22.8 0.9 0
23.1 0.9 0
23.4 0.9 0
23.7 0.9 0
24 0.9 0
24.3 0.9 0
24.6 0.9 0
24.9 0.9 0
25.2 0.9 0
25.5 0.9 0
25.8 0.9 0
26.1 0.9 0
26.4 0.9 0
26.7 0.9 0
27 0.9 0
27.3 0.9 0
27.6 0.9 0
27.9 0.9 0
28.2 0.9 0
28.5 0.9 0
28.8 0.9 0
29.1 0.9 0
29.4 0.9 0
29.7 0.9 0
30 0.9 0
30.3 0.9 0
0 1 0
0.3 1 0
0.6 1 0
0.9 1 0
1.2 1 0
1.5 1 0
1.8 1 0
2.1 1 0
2.4 1 0
2.7 1 0
3 1 0
3.3 1 0
3.6 1 0
3.9 1 0
4.2 1 0
4.5 1 0
4.8 1 0
5.1 1 0
5.4 1 0
5.7 1 0
6 1 0
6.3 1 0
6.6 1 0
6.9 1 0
7.2 1 0
7.5 1 0
7.8 1 0
8.1 1 0
8.4 1 0
8.7 1 0
9 1 0
9.3 1 0
9.6 1 0
9.9 1 0
10.2 1 0
10.5 1 0
10.8 1 0
11.1 1 0
11.4 1 0
11.7 1 0
12 1 0
12.3 1 0
12.6 1 0
12.9 1 0
13.2 1 0
13.5 1 0
13.8 1 0
14.1 1 0
14.4 1 0
14.7 1 0
15 1 0
15.3 1 0
15.6 1 0
15.9 1 0
16.2 1 0
16.5 1 0
16.8 1 0
17.1 1 0
17.4 1 0
17.7 1 0
18 1 0
18.3 1 0
18.6 1 0
18.9 1 0
19.2 1 0
19.5 1 0
19.8 1 0
20.1 1 0
20.4 1 0
20.7 1 0
21 1 0
21.3 1 0
21.6 1 0
21.9 1 0
22.2 1 0
22.5 1 0
22.8 1 0
23.1 1 0
23.4 1 0
23.7 1 0
24 1 0
24.3 1 0
24.6 1 0
24.9 1 0
25.2 1 0
25.5 1 0
25.8 1 0
26.1 1 0
26.4 1 0
26.7 1 0
27 1 0
27.3 1 0
27.6 1 0
27.9 1 0
28.2 1 0
28.5 1 0
28.8 1 0
29.1 1 0
29.4 1 0
29.7 1 0
30 1 0
30.3 1 0
0 1.1 0
0.3 1.1 0
0.6 1.1 0
0.9 1.1 0
1.2 1.1 0
1.5 1.1 0
1.8 1.1 0
2.1 1.1 0
2.4 1.1 0
2.7 1.1 0
3 1.1 0
3.3 1.1 0
3.6 1.1 0
3.9 1.1 0
4.2 1.1 0
4.5 1.1 0
4.8 1.1 0
5.1 1.1 0
5.4 1.1 0
5.7 1.1 0
6 1.1 0
6.3 1.1 0
6.6 1.1 0
6.9 1.1 0
7.2 1.1 0
7.5 1.1 0
7.8 1.1 0
8.1 1.1 0
8.4 1.1 0
8.7 1.1 0
9 1.1 0
9.3 1.1 0
9.6 1.1 0
9.9 1.1 0
10.2 1.1 0
10.5 1.1 0
10.8 1.1 0
11.1 1.1 0
11.4 1.1 0
11.7 1.1 0
12 1.1 0
12.3 1.1 0
12.6 1.1 0
12.9 1.1 0
13.2 1.1 0
13.5 1.1 0
13.8 1.1 0
14.1 1.1 0
14.4 1.1 0
14.7 1.1 0
15 1.1 0
15.3 1.1 0
15.6 1.1 0
15.9 1.1 0
16.2 1.1 0
16.5 1.1 0
16.8 1.1 0
17.1 1.1 0
17.4 1.1 0
17.7 1.1 0
18 1.1 0
18.3 1.1 0
18.6 1.1 0
18.9 1.1 0
19.2 1.1 0
19.5 1.1 0
19.8 1.1 0
20.1 1.1 0
20.4 1.1 0
20.7 1.1 0
21 1.1 0
21.3 1.1 0
21.6 1.1 0
21.9 1.1 0
22.2 1.1 0
22.5 1.1 0
22.8 1.1 0
23.1 1.1 0
23.4 1.1 0
23.7 1.1 0
24 1.1 0
24.3 1.1 0
24.6 1.1 0
24.9 1.1 0
25.2 1.1 0
25.5 1.1 0
25.8 1.1 0
26.1 1.1 0
26.4 1.1 0
26.7 1.1 0
27 1.1 0
27.3 1.1 0
27.6 1.1 0
27.9 1.1 0
28.2 1.1 0
28.5 1.1 0
28.8 1.1 0
29.1 1.1 0
29.4 1.1 0
29.7 1.1 0
30 1.1 0
30.3 1.1 0

POINT_DATA 1224

SCALARS pressure double
LOOKUP_TABLE pressure
1.31575
1.31575
1.24923
1.20215
1.1592
1.11955
1.08352
1.05114
1.02204
0.995701
0.97159
0.949239
0.928267
0.908385
0.889378
0.871089
0.853398
0.836217
0.819478
0.803127
0.787123
0.771432
0.756023
0.74087
0.725952
0.711251
0.69675
0.682431
0.668282
0.654291
0.640447
0.626738
0.613155
0.59969
0.586334
0.57308
0.559921
0.546852
0.533865
0.520955
0.508118
0.495349
0.482643
0.469997
0.457406
0.444866
0.432376
0.419931
0.407529
0.395166
0.382841
0.370551
0.358294
0.346068
0.333871
0.3217
0.309556
0.297434
0.285336
0.273257
0.261199
0.249159
0.237136
0.225129
0.213138
0.20116
0.189196
0.177244
0.165304
0.153375
0.141456
0.129547
0.117647
0.105755
0.0938715
0.0819952
0.0701258
0.058263
0.0464063
0.0345553
0.0227098
0.0108692
-0.000966561
-0.0127979
-0.0246251
-0.0364484
-0.048268
-0.0600842
-0.0718972
-0.0837071
-0.0955141
-0.107318
-0.11912
-0.13092
-0.142717
-0.154512
-0.166305
-0.178096
-0.189885
-0.201672
-0.213458
0.213458
1.31575
1.31575
1.24923
1.20215
1.1592
1.11955
1.08352
1.05114
1.02204
0.995701
0.97159
0.949239
0.928267
0.908385
0.889378
0.871089
0.853398
0.836217
0.819478
0.803127
0.787123
0.771432
0.756023
0.74087
0.725952
0.711251
0.69675
0.682431
0.668282
0.654291
0.640447
0.626738
0.613155
0.59969
0.586334
0.57308
0.559921
0.546852
0.533865
0.520955
0.508118
0.495349
0.482643
0.469997
0.457406
0.444866
0.432376
0.419931
0.407529
0.395166
0.382841
0.370551
0.358294
0.346068
0.333871
0.3217
0.309556
0.297434
0.285336
0.273257
0.261199
0.249159
0.237136
0.225129
0.213138
0.20116
0.189196
0.177244
0.165304
0.153375
0.141456
0.129547
0.117647
0.105755
0.0938715
0.0819952
0.0701258
0.058263
0.0464063
0.0345553
0.0227098
0.0108692
-0.000966561
-0.0127979
-0.0246251
-0.0364484
-0.048268
-0.0600842
-0.0718972
-0.0837071
-0.0955141
-0.107318
-0.11912
-0.13092
-0.142717
-0.154512
-0.166305
-0.178096
-0.189885
-0.201672
-0.213458
0.213458
1.2951
1.2951
1.24744
1.20247
1.15992
1.12032
1.08423
1.05173
1.02251
0.996071
0.971876
0.949461
0.92844
0.908521
0.889489
0.871181
0.853476
0.836283
0.819535
0.803177
0.787168
0.771473
0.756059
0.740902
0.725982
0.711278
0.696775
0.682454
0.668303
0.654311
0.640465
0.626755
0.61317
0.599704
0.586347
0.573092
0.559933
0.546862
0.533874
0.520964
0.508127
0.495357
0.48265
0.470003
0.457412
0.444872
0.432381
0.419936
0.407533
0.395171
0.382845
0.370555
0.358298
0.346072
0.333874
0.321704
0.309558
0.297437
0.285338
0.27326
0.261201
0.249161
0.237138
0.225131
0.213139
0.201162
0.189197
0.177246
0.165306
0.153376
0.141457
0.129548
0.117648
0.105756
0.0938724
0.081996
0.0701266
0.0582637
0.0464069
0.0345559
0.0227103
0.0108698
-0.000966045
-0.0127974
-0.0246246
-0.036448
-0.0482676
-0.0600838
-0.0718968
-0.0837067
-0.0955138
-0.107318
-0.11912
-0.130919
-0.142717
-0.154511
-0.166304
-0.178095
-0.189884
-0.201672
-0.213458
0.213458
1.28071
1.28071
1.24493
1.20286
1.16105
1.12158
1.0854
1.05272
1.0233
0.996677
0.972333
0.949801
0.928695
0.908715
0.88964
0.8713
0.853571
0.836362
0.819601
0.803234
0.787217
0.771515
0.756096
0.740935
0.726011
0.711305
0.696798
0.682475
0.668323
0.654329
0.640481
0.626769
0.613184
0.599716
0.586358
0.573103
0.559942
0.546871
0.533883
0.520972
0.508134
0.495363
0.482656
0.470009
0.457417
0.444877
0.432386
0.41994
0.407537
0.395174
0.382849
0.370559
0.358301
0.346074
0.333877
0.321706
0.309561
0.297439
0.28534
0.273262
0.261203
0.249163
0.237139
0.225133
0.213141
0.201163
0.189199
0.177247
0.165307
0.153377
0.141458
0.129549
0.117649
0.105757
0.0938731
0.0819966
0.0701272
0.0582643
0.0464075
0.0345565
0.0227108
0.0108702
-0.00096563
-0.012797
-0.0246243
-0.0364476
-0.0482673
-0.0600835
-0.0718965
-0.0837065
-0.0955136
-0.107318
-0.11912
-0.130919
-0.142716
-0.154511
-0.166304
-0.178095
-0.189884
-0.201672
-0.213455
0.213455
1.27202
1.27202
1.24292
1.20312
1.16198
1.12266
1.08643
1.05362
1.02404
0.997256
0.972782
0.950146
0.928961
0.908923
0.889805
0.871433
0.85368
0.836453
0.819679
0.803301
0.787275
0.771566
0.756141
0.740975
0.726047
0.711337
0.696827
0.682501
0.668346
0.65435
0.6405
0.626787
0.6132
0.599731
0.586372
0.573115
0.559954
0.546882
0.533892
0.520981
0.508142
0.495371
0.482664
0.470016
0.457423
0.444883
0.432391
0.419945
0.407542
0.395179
0.382853
0.370562
0.358305
0.346078
0.33388
0.321709
0.309563
0.297442
0.285342
0.273264
0.261205
0.249165
0.237141
0.225134
0.213142
0.201164
0.1892
0.177248
0.165308
0.153378
0.141459
0.12955
0.11765
0.105758
0.0938739
0.0819974
0.0701279
0.0582649
0.0464081
0.034557
0.0227114
0.0108707
-0.000965151
-0.0127966
-0.0246239
-0.0364472
-0.0482669
-0.0600832
-0.0718962
-0.0837062
-0.0955133
-0.107318
-0.11912
-0.130919
-0.142716
-0.154511
-0.166304
-0.178095
-0.189884
-0.201671
-0.213449
0.213449
1.26794
1.26794
1.24184
1.20324
1.16247
1.12325
1.087
1.05412
1.02445
0.997591
0.973046
0.950353
0.929124
0.909054
0.889911
0.87152
0.853753
0.836515
0.819732
0.803348
0.787317
0.771602
0.756173
0.741005
0.726074
0.711361
0.696848
0.682521
0.668364
0.654366
0.640515
0.626801
0.613213
0.599743
0.586383
0.573125
0.559963
0.54689
0.5339
0.520988
0.508149
0.495377
0.482669
0.470021
0.457428
0.444887
0.432395
0.419949
0.407546
0.395182
0.382856
0.370565
0.358307
0.34608
0.333882
0.321711
0.309565
0.297444
0.285344
0.273266
0.261207
0.249166
0.237143
0.225135
0.213143
0.201166
0.189201
0.177249
0.165309
0.153379
0.14146
0.129551
0.11765
0.105758
0.0938745
0.081998
0.0701284
0.0582654
0.0464086
0.0345575
0.0227118
0.0108711
-0.00096477
-0.0127962
-0.0246235
-0.0364469
-0.0482666
-0.0600829
-0.0718959
-0.0837059
-0.0955131
-0.107317
-0.119119
-0.130919
-0.142716
-0.154511
-0.166304
-0.178095
-0.189884
-0.20167
-0.213445
0.213445
1.26794
1.26794
1.24184
1.20324
1.16247
1.12325
1.087
1.05412
1.02445
0.997592
0.973046
0.950353
0.929124
0.909054
0.889911
0.87152
0.853753
0.836516
0.819733
0.803348
0.787317
0.771602
0.756173
0.741005
0.726074
0.71136
0.696848
0.682521
0.668364
0.654366
0.640515
0.626801
0.613213
0.599743
0.586383
0.573125
0.559963
0.54689
0.5339
0.520988
0.508149
0.495377
0.482669
0.470021
0.457428
0.444887
0.432395
0.419949
0.407546
0.395182
0.382856
0.370565
0.358307
0.34608
0.333882
0.321711
0.309565
0.297444
0.285344
0.273266
0.261207
0.249166
0.237143
0.225135
0.213143
0.201166
0.189201
0.177249
0.165309
0.153379
0.14146
0.129551
0.11765
0.105758
0.0938745
0.081998
0.0701284
0.0582654
0.0464086
0.0345575
0.0227118
0.0108711
-0.00096477
-0.0127962
-0.0246235
-0.0364469
-0.0482666
-0.0600829
-0.0718959
-0.0837059
-0.0955131
-0.107317
-0.119119
-0.130919
-0.142716
-0.154511
-0.166304
-0.178095
-0.189884
-0.20167
-0.213445
0.213445
1.27202
1.27202
1.24292
1.20312
1.16197
1.12266
1.08643
1.05362
1.02404
0.997257
0.972782
0.950145
0.928961
0.908924
0.889805
0.871432
0.85368
0.836453
0.819679
0.803301
0.787275
0.771565
0.756141
0.740975
0.726047
0.711337
0.696827
0.682501
0.668347
0.65435
0.6405
0.626787
0.6132
0.599731
0.586372
0.573115
0.559954
0.546881
0.533892
0.520981
0.508142
0.495371
0.482664
0.470016
0.457423
0.444883
0.432391
0.419945
0.407542
0.395179
0.382853
0.370562
0.358305
0.346078
0.33388
0.321709
0.309563
0.297442
0.285342
0.273264
0.261205
0.249165
0.237141
0.225134
0.213142
0.201164
0.1892
0.177248
0.165308
0.153378
0.141459
0.12955
0.11765
0.105758
0.0938739
0.0819974
0.0701279
0.0582649
0.0464081
0.034557
0.0227114
0.0108707
-0.00096515
-0.0127966
-0.0246239
-0.0364472
-0.0482669
-0.0600832
-0.0718962
-0.0837062
-0.0955133
-0.107318
-0.11912
-0.130919
-0.142716
-0.154511
-0.166304
-0.178095
-0.189884
-0.201671
-0.213449
0.213449
1.28071
1.28071
1.24493
1.20286
1.16105
1.12158
1.0854
1.05272
1.0233
0.996678
0.972333
0.9498
0.928695
0.908716
0.88964
0.871299
0.853571
0.836362
0.819601
0.803234
0.787217
0.771514
0.756096
0.740935
0.726011
0.711305
0.696798
0.682475
0.668323
0.654329
0.640481
0.626769
0.613184
0.599716
0.586358
0.573103
0.559942
0.546871
0.533883
0.520972
0.508134
0.495363
0.482656
0.470009
0.457417
0.444877
0.432386
0.41994
0.407537
0.395174
0.382849
0.370559
0.358301
0.346074
0.333877
0.321706
0.309561
0.297439
0.28534
0.273262
0.261203
0.249163
0.237139
0.225133
0.213141
0.201163
0.189199
0.177247
0.165307
0.153377
0.141458
0.129549
0.117649
0.105757
0.0938731
0.0819966
0.0701272
0.0582643
0.0464075
0.0345564
0.0227108
0.0108702
-0.000965628
-0.012797
-0.0246243
-0.0364476
-0.0482673
-0.0600835
-0.0718965
-0.0837065
-0.0955136
-0.107318
-0.11912
-0.130919
-0.142716
-0.154511
-0.166304
-0.178095
-0.189884
-0.201672
-0.213455
0.213455
1.29509
1.29509
1.24744
1.20247
1.15992
1.12032
1.08423
1.05173
1.02251
0.996072
0.971877
0.94946
0.928439
0.908522
0.88949
0.871181
0.853475
0.836283
0.819535
0.803178
0.787169
0.771472
0.756059
0.740902
0.725982
0.711278
0.696774
0.682454
0.668303
0.654311
0.640465
0.626754
0.61317
0.599704
0.586347
0.573092
0.559933
0.546862
0.533874
0.520964
0.508127
0.495357
0.48265
0.470003
0.457412
0.444872
0.432381
0.419936
0.407533
0.395171
0.382845
0.370555
0.358298
0.346072
0.333874
0.321704
0.309558
0.297437
0.285338
0.27326
0.261201
0.249161
0.237138
0.225131
0.213139
0.201162
0.189197
0.177246
0.165306
0.153376
0.141457
0.129548
0.117648
0.105756
0.0938724
0.081996
0.0701266
0.0582637
0.0464069
0.0345559
0.0227103
0.0108698
-0.000966043
-0.0127974
-0.0246246
-0.036448
-0.0482676
-0.0600838
-0.0718968
-0.0837067
-0.0955138
-0.107318
-0.11912
-0.130919
-0.142717
-0.154511
-0.166304
-0.178095
-0.189884
-0.201672
-0.213458
0.213458
1.31574
1.31574
1.24923
1.20216
1.1592
1.11955
1.08352
1.05114
1.02204
0.995702
0.971591
0.949239
0.928266
0.908385
0.889378
0.871089
0.853398
0.836217
0.819477
0.803127
0.787124
0.771432
0.756022
0.740869
0.725952
0.711251
0.696749
0.682431
0.668283
0.654292
0.640447
0.626738
0.613155
0.59969
0.586334
0.57308
0.559921
0.546852
0.533865
0.520955
0.508118
0.495349
0.482643
0.469997
0.457405
0.444866
0.432376
0.419931
0.407529
0.395166
0.382841
0.370551
0.358294
0.346068
0.333871
0.321701
0.309556
0.297434
0.285335
0.273257
0.261199
0.249159
0.237136
0.225129
0.213138
0.20116
0.189196
0.177244
0.165304
0.153375
0.141456
0.129547
0.117647
0.105755
0.0938715
0.0819952
0.0701258
0.058263
0.0464063
0.0345553
0.0227098
0.0108692
-0.00096656
-0.0127979
-0.0246251
-0.0364484
-0.048268
-0.0600842
-0.0718972
-0.0837071
-0.0955141
-0.107318
-0.11912
-0.13092
-0.142717
-0.154512
-0.166305
-0.178096
-0.189885
-0.201672
-0.213458
0.213458
1.31574
1.31574
1.24923
1.20216
1.1592
1.11955
1.08352
1.05114
1.02204
0.995702
0.971591
0.949239
0.928266
0.908385
0.889378
0.871089
0.853398
0.836217
0.819477
0.803127
0.787124
0.771432
0.756022
0.740869
0.725952
0.711251
0.696749
0.682431
0.668283
0.654292
0.640447
0.626738
0.613155
0.59969
0.586334
0.57308
0.559921
0.546852
0.533865
0.520955
0.508118
0.495349
0.482643
0.469997
0.457405
0.444866
0.432376
0.419931
0.407529
0.395166
0.382841
0.370551
0.358294
0.346068
0.333871
0.321701
0.309556
0.297434
0.285335
0.273257
0.261199
0.249159
0.237136
0.225129
0.213138
0.20116
0.189196
0.177244
0.165304
0.153375
0.141456
0.129547
0.117647
0.105755
0.0938715
0.0819952
0.0701258
0.058263
0.0464063
0.0345553
0.0227098
0.0108692
-0.00096656
-0.0127979
-0.0246251
-0.0364484
-0.048268
-0.0600842
-0.0718972
-0.0837071
-0.0955141
-0.107318
-0.11912
-0.13092
-0.142717
-0.154512
-0.166305
-0.178096
-0.189885
-0.201672
-0.213458
0.213458
SCALARS phi double
LOOKUP_TABLE phi
1
1
1
0.999995
0.999977
0.999931
0.999833
0.999655
0.999364
0.998929
0.998323
0.997523
0.996513
0.995279
0.993815
0.992118
0.990189
0.988032
0.985652
0.983059
0.980261
0.97727
0.974097
0.970755
0.967257
0.963614
0.95984
0.955947
0.951947
0.947851
0.943668
0.939404
0.935061
0.930632
0.926105
0.921458
0.916664
0.911684
0.906478
0.900999
0.8952
0.889034
0.882456
0.875426
0.867909
0.859875
0.851303
0.842179
0.832494
0.822249
0.811451
0.800113
0.788255
0.7759
0.763076
0.749816
0.736153
0.722125
0.70777
0.693125
0.678231
0.663127
0.647849
0.632437
0.616926
0.60135
0.585743
0.570135
0.554557
0.539035
0.523595
0.508261
0.493053
0.477992
0.463095
0.448379
0.433857
0.419542
0.405445
0.391576
0.377943
0.364553
0.351411
0.338523
0.325892
0.313521
0.301411
0.289564
0.27798
0.266658
0.2556
0.244802
0.234264
0.223984
0.213958
0.204191
0.194655
0.185435
0.17623
0.168071
0.157284
0.157284
1
1
1
0.999995
0.999977
0.999931
0.999833
0.999655
0.999364
0.998929
0.998323
0.997523
0.996513
0.995279
0.993815
0.992118
0.990189
0.988032
0.985652
0.983059
0.980261
0.97727
0.974097
0.970755
0.967257
0.963614
0.95984
0.955947
0.951947
0.947851
0.943668
0.939404
0.935061
0.930632
0.926105
0.921458
0.916664
0.911684
0.906478
0.900999
0.8952
0.889034
0.882456
0.875426
0.867909
0.859875
0.851303
0.842179
0.832494
0.822249
0.811451
0.800113
0.788255
0.7759
0.763076
0.749816
0.736153
0.722125
0.70777
0.693125
0.678231
0.663127
0.647849
0.632437
0.616926
0.60135
0.585743
0.570135
0.554557
0.539035
0.523595
0.508261
0.493053
0.477992
0.463095
0.448379
0.433857
0.419542
0.405445
0.391576
0.377943
0.364553
0.351411
0.338523
0.325892
0.313521
0.301411
0.289564
0.27798
0.266658
0.2556
0.244802
0.234264
0.223984
0.213958
0.204191
0.194655
0.185435
0.17623
0.168071
0.157284
0.157284
0.999998
1
0.999984
0.999921
0.999783
0.999536
0.999146
0.99858
0.997812
0.996819
0.99559
0.994116
0.992398
0.990437
0.98824
0.985817
0.983177
0.980333
0.977297
0.974081
0.9707
0.967166
0.963491
0.95969
0.955773
0.951752
0.947639
0.943445
0.939179
0.93485
0.930469
0.926042
0.921575
0.917072
0.912532
0.907952
0.903322
0.898629
0.893854
0.888972
0.883957
0.878778
0.8734
0.86779
0.861914
0.855739
0.849235
0.842374
0.835133
0.827493
0.81944
0.810963
0.802057
0.792724
0.782966
0.772794
0.762219
0.751257
0.739927
0.728251
0.716252
0.703955
0.691387
0.678575
0.665546
0.652329
0.638951
0.625439
0.61182
0.598121
0.584366
0.570579
0.556784
0.543002
0.529253
0.515556
0.501931
0.488392
0.474955
0.461635
0.448444
0.435393
0.422494
0.409755
0.397184
0.384789
0.372577
0.360552
0.348718
0.337081
0.325642
0.314405
0.30337
0.29254
0.281911
0.271496
0.261257
0.251316
0.241258
0.232472
0.2203
0.2203
1.00001
0.999992
0.99954
0.998615
0.997207
0.995317
0.992955
0.990145
0.986922
0.983332
0.979422
0.975241
0.970836
0.966248
0.961513
0.956664
0.951728
0.946728
0.941682
0.936608
0.931519
0.926427
0.921341
0.916268
0.911216
0.906189
0.901193
0.896232
0.891307
0.886422
0.881579
0.87678
0.872025
0.867315
0.86265
0.858028
0.853447
0.848901
0.844385
0.83989
0.835404
0.830914
0.826405
0.821857
0.817251
0.812567
0.807783
0.802875
0.797823
0.792603
0.787196
0.781582
0.775743
0.769664
0.763333
0.756737
0.749869
0.742723
0.735297
0.727589
0.719601
0.711337
0.702803
0.694008
0.68496
0.675671
0.666153
0.656419
0.646484
0.636363
0.626071
0.615625
0.605039
0.59433
0.583514
0.572606
0.561623
0.550578
0.539487
0.528364
0.517222
0.506074
0.494932
0.483809
0.472713
0.461657
0.450649
0.439699
0.428814
0.418001
0.407269
0.396622
0.386066
0.375607
0.365246
0.355
0.344824
0.334876
0.324661
0.315777
0.303093
0.303093
1.00143
0.99857
0.991253
0.98188
0.971566
0.96086
0.950051
0.939311
0.928756
0.918468
0.908503
0.898898
0.889671
0.880827
0.87236
0.864261
0.856513
0.849098
0.841997
0.835192
0.828664
0.822396
0.816369
0.810569
0.80498
0.799588
0.794382
0.789348
0.784477
0.779758
0.775181
0.770738
0.766422
0.762224
0.758138
0.754158
0.750277
0.746488
0.742786
0.739165
0.735616
0.732133
0.728708
0.72533
0.721992
0.718682
0.715388
0.712098
0.708799
0.705478
0.70212
0.698711
0.695237
0.691684
0.688038
0.684285
0.680413
0.67641
0.672265
0.667967
0.663509
0.658882
0.65408
0.649099
0.643933
0.63858
0.633039
0.62731
0.621393
0.615291
0.609005
0.60254
0.595901
0.589092
0.582119
0.574988
0.567707
0.560282
0.552722
0.545033
0.537223
0.529301
0.521275
0.513151
0.50494
0.496647
0.488281
0.479848
0.471358
0.462815
0.454227
0.445601
0.436942
0.428257
0.419547
0.410833
0.402069
0.393417
0.384391
0.376531
0.365009
0.365009
1.0456
0.954401
0.887723
0.838673
0.801641
0.772861
0.749886
0.731119
0.715499
0.702298
0.691001
0.681228
0.672693
0.665173
0.658493
0.652515
0.647126
0.642236
0.637772
0.633673
0.629891
0.626382
0.623115
0.620059
0.61719
0.614489
0.611936
0.609518
0.607221
0.605034
0.602947
0.600951
0.599038
0.597202
0.595437
0.593737
0.592097
0.590513
0.588981
0.587497
0.586058
0.584658
0.583296
0.581967
0.580667
0.579391
0.578136
0.576897
0.575668
0.574443
0.573217
0.571983
0.570733
0.569462
0.56816
0.56682
0.565434
0.563995
0.562493
0.56092
0.559269
0.557532
0.555701
0.553768
0.551726
0.549569
0.547291
0.544886
0.542349
0.539675
0.536859
0.5339
0.530792
0.527534
0.524124
0.52056
0.516842
0.512968
0.508939
0.504754
0.500416
0.495924
0.491281
0.486488
0.481546
0.476459
0.471229
0.465857
0.460348
0.454705
0.448929
0.443025
0.436996
0.430846
0.424575
0.418199
0.411679
0.405153
0.398208
0.392134
0.382958
0.382958
-0.0455988
0.0455988
0.112277
0.161326
0.198359
0.227139
0.250114
0.268881
0.284501
0.297702
0.308999
0.318772
0.327307
0.334827
0.341507
0.347485
0.352874
0.357764
0.362228
0.366326
0.370109
0.373618
0.376885
0.379941
0.38281
0.385511
0.388064
0.390482
0.392779
0.394966
0.397053
0.39905
0.400962
0.402798
0.404563
0.406263
0.407903
0.409486
0.411017
0.412499
0.413936
0.415329
0.416682
0.417996
0.419274
0.420517
0.421726
0.422902
0.424045
0.425155
0.426232
0.427276
0.428285
0.429257
0.430191
0.431085
0.431935
0.432739
0.433493
0.434193
0.434835
0.435414
0.435926
0.436366
0.436729
0.437008
0.437199
0.437296
0.437293
0.437185
0.436967
0.436631
0.436174
0.435589
0.434871
0.434016
0.433018
0.431872
0.430575
0.429123
0.42751
0.425735
0.423793
0.421682
0.419398
0.416941
0.414307
0.411496