# vtk DataFile Version 3.0
FlowField
ASCII
DATASET STRUCTURED_GRID
DIMENSIONS 22 17 12 
POINTS 4488 double
0 0 0
5 0 0
10 0 0
15 0 0
20 0 0
25 0 0
30 0 0
35 0 0
40 0 0
45 0 0
50 0 0
55 0 0
60 0 0
65 0 0
70 0 0
75 0 0
80 0 0
85 0 0
90 0 0
95 0 0
100 0 0
105 0 0
0 1 0
5 1 0
10 1 0
15 1 0
20 1 0
25 1 0
30 1 0
35 1 0
40 1 0
45 1 0
50 1 0
55 1 0
60 1 0
65 1 0
70 1 0
75 1 0
80 1 0
85 1 0
90 1 0
95 1 0
100 1 0
105 1 0
0 2 0
5 2 0
10 2 0
15 2 0
20 2 0
25 2 0
30 2 0
35 2 0
40 2 0
45 2 0
50 2 0
55 2 0
60 2 0
65 2 0
70 2 0
75 2 0
80 2 0
85 2 0
90 2 0
95 2 0
100 2 0
105 2 0
0 3 0
5 3 0
10 3 0
15 3 0
20 3 0
25 3 0
30 3 0
35 3 0
40 3 0
45 3 0
50 3 0
55 3 0
60 3 0
65 3 0
70 3 0
75 3 0
80 3 0
85 3 0
90 3 0
95 3 0
100 3 0
105 3 0
0 4 0
5 4 0
10 4 0
15 4 0
20 4 0
25 4 0
30 4 0
35 4 0
40 4 0
45 4 0
50 4 0
55 4 0
60 4 0
65 4 0
70 4 0
75 4 0
80 4 0
85 4 0
90 4 0
95 4 0
100 4 0
105 4 0
0 5 0
5 5 0
10 5 0
15 5 0
20 5 0
25 5 0
30 5 0
35 5 0
40 5 0
45 5 0
50 5 0
55 5 0
60 5 0
65 5 0
70 5 0
75 5 0
80 5 0
85 5 0
90 5 0
95 5 0
100 5 0
105 5 0
0 6 0
5 6 0
10 6 0
15 6 0
20 6 0
25 6 0
30 6 0
35 6 0
40 6 0
45 6 0
50 6 0
55 6 0
60 6 0
65 6 0
70 6 0
75 6 0
80 6 0
85 6 0
90 6 0
95 6 0
100 6 0
105 6 0
0 7 0
5 7 0
10 7 0
15 7 0
20 7 0
25 7 0
30 7 0
35 7 0
40 7 0
45 7 0
50 7 0
55 7 0
60 7 0
65 7 0
70 7 0
75 7 0
80 7 0
85 7 0
90 7 0
95 7 0
100 7 0
105 7 0
0 8 0
5 8 0
10 8 0
15 8 0
20 8 0
25 8 0
30 8 0
35 8 0
40 8 0
45 8 0
50 8 0
55 8 0
60 8 0
65 8 0
70 8 0
75 8 0
80 8 0
85 8 0
90 8 0
95 8 0
100 8 0
105 8 0
0 9 0
5 9 0
10 9 0
15 9 0
20 9 0
25 9 0
30 9 0
35 9 0
40 9 0
45 9 0
50 9 0
55 9 0
60 9 0
65 9 0
70 9 0
75 9 0
80 9 0
85 9 0
90 9 0
95 9 0
100 9 0
105 9 0
0 10 0
5 10 0
10 10 0
15 10 0
20 10 0
25 10 0
30 10 0
35 10 0
40 10 0
45 10 0
50 10 0
55 10 0
60 10 0
65 10 0
70 10 0
75 10 0
80 10 0
85 10 0
90 10 0
95 10 0
100 10 0
105 10 0
0 11 0
5 11 0
10 11 0
15 11 0
20 11 0
25 11 0
30 11 0
35 11 0
40 11 0
45 11 0
50 11 0
55 11 0
60 11 0
65 11 0
70 11 0
75 11 0
80 11 0
85 11 0
90 11 0
95 11 0
100 11 0
105 11 0
0 12 0
5 12 0
10 12 0
15 12 0
20 12 0
25 12 0
30 12 0
35 12 0
40 12 0
45 12 0
50 12 0
55 12 0
60 12 0
65 12 0
70 12 0
75 12 0
80 12 0
85 12 0
90 12 0
95 12 0
100 12 0
105 12 0
0 13 0
5 13 0
10 13 0
15 13 0
20 13 0
25 13 0
30 13 0
35 13 0
40 13 0
45 13 0
50 13 0
55 13 0
60 13 0
65 13 0
70 13 0
75 13 0
80 13 0
85 13 0
90 13 0
95 13 0
100 13 0
105 13 0
0 14 0
5 14 0
10 14 0
15 14 0
20 14 0
25 14 0
30 14 0
35 14 0
40 14 0
45 14 0
50 14 0
55 14 0
60 14 0
65 14 0
70 14 0
75 14 0
80 14 0
85 14 0
90 14 0
95 14 0
100 14 0
105 14 0
0 15 0
5 15 0
10 15 0
15 15 0
20 15 0
25 15 0
30 15 0
35 15 0
40 15 0
45 15 0
50 15 0
55 15 0
60 15 0
65 15 0
70 15 0
75 15 0
80 15 0
85 15 0
90 15 0
95 15 0
100 15 0
105 15 0
0 16 0
5 16 0
10 16 0
15 16 0
20 16 0
25 16 0
30 16 0
35 16 0
40 16 0
45 16 0
50 16 0
55 16 0
60 16 0
65 16 0
70 16 0
75 16 0
80 16 0
85 16 0
90 16 0
95 16 0
100 16 0
105 16 0
0 0 1
5 0 1
10 0 1
15 0 1
20 0 1
25 0 1
30 0 1
35 0 1
40 0 1
45 0 1
50 0 1
55 0 1
60 0 1
65 0 1
70 0 1
75 0 1
80 0 1
85 0 1
90 0 1
95 0 1
100 0 1
105 0 1
0 1 1
5 1 1
10 1 1
15 1 1
20 1 1
25 1 1
30 1 1
35 1 1
40 1 1
45 1 1
50 1 1
55 1 1
60 1 1
65 1 1
70 1 1
75 1 1
80 1 1
85 1 1
90 1 1
95 1 1
100 1 1
105 1 1
0 2 1
5 2 1
10 2 1
15 2 1
20 2 1
25 2 1
30 2 1
35 2 1
40 2 1
45 2 1
50 2 1
55 2 1
60 2 1
65 2 1
70 2 1
75 2 1
80 2 1
85 2 1
90 2 1
95 2 1
100 2 1
105 2 1
0 3 1
5 3 1
10 3 1
15 3 1
20 3 1
25 3 1
30 3 1
35 3 1
40 3 1
45 3 1
50 3 1
55 3 1
60 3 1
65 3 1
70 3 1
75 3 1
80 3 1
85 3 1
90 3 1
95 3 1
100 3 1
105 3 1
0 4 1
5 4 1
10 4 1
15 4 1
20 4 1
25 4 1
30 4 1
35 4 1
40 4 1
45 4 1
50 4 1
55 4 1
60 4 1
65 4 1
70 4 1
75 4 1
80 4 1
85 4 1
90 4 1
95 4 1
100 4 1
105 4 1
0 5 1
5 5 1
10 5 1
15 5 1
20 5 1
25 5 1
30 5 1
35 5 1
40 5 1
45 5 1
50 5 1
55 5 1
60 5 1
65 5 1
70 5 1
75 5 1
80 5 1
85 5 1
90 5 1
95 5 1
100 5 1
105 5 1
0 6 1
5 6 1
10 6 1
15 6 1
20 6 1
25 6 1
30 6 1
35 6 1
40 6 1
45 6 1
50 6 1
55 6 1
60 6 1
65 6 1
70 6 1
75 6 1
80 6 1
85 6 1
90 6 1
95 6 1
100 6 1
105 6 1
0 7 1
5 7 1
10 7 1
15 7 1
20 7 1
25 7 1
30 7 1
35 7 1
40 7 1
45 7 1
50 7 1
55 7 1
60 7 1
65 7 1
70 7 1
75 7 1
80 7 1
85 7 1
90 7 1
95 7 1
100 7 1
105 7 1
0 8 1
5 8 1
10 8 1
15 8 1
20 8 1
25 8 1
30 8 1
35 8 1
40 8 1
45 8 1
50 8 1
55 8 1
60 8 1
65 8 1
70 8 1
75 8 1
80 8 1
85 8 1
90 8 1
95 8 1
100 8 1
105 8 1
0 9 1
5 9 1
10 9 1
15 9 1
20 9 1
25 9 1
30 9 1
35 9 1
40 9 1
45 9 1
50 9 1
55 9 1
60 9 1
65 9 1
70 9 1
75 9 1
80 9 1
85 9 1
90 9 1
95 9 1
100 9 1
105 9 1
0 10 1
5 10 1
10 10 1
15 10 1
20 10 1
25 10 1
30 10 1
35 10 1
40 10 1
45 10 1
50 10 1
55 10 1
60 10 1
65 10 1
70 10 1
75 10 1
80 10 1
85 10 1
90 10 1
95 10 1
100 10 1
105 10 1
0 11 1
5 11 1
10 11 1
15 11 1
20 11 1
25 11 1
30 11 1
35 11 1
40 11 1
45 11 1
50 11 1
55 11 1
60 11 1
65 11 1
70 11 1
75 11 1
80 11 1
85 11 1
90 11 1
95 11 1
100 11 1
105 11 1
0 12 1
5 12 1
10 12 1
15 12 1
20 12 1
25 12 1
30 12 1
35 12 1
40 12 1
45 12 1
50 12 1
55 12 1
60 12 1
65 12 1
70 12 1
75 12 1
80 12 1
85 12 1
90 12 1
95 12 1
100 12 1
105 12 1
0 13 1
5 13 1
10 13 1
15 13 1
20 13 1
25 13 1
30 13 1
35 13 1
40 13 1
45 13 1
50 13 1
55 13 1
60 13 1
65 13 1
70 13 1
75 13 1
80 13 1
85 13 1
90 13 1
95 13 1
100 13 1
105 13 1
0 14 1
5 14 1
10 14 1
15 14 1
20 14 1
25 14 1
30 14 1
35 14 1
40 14 1
45 14 1
50 14 1
55 14 1
60 14 1
65 14 1
70 14 1
75 14 1
80 14 1
85 14 1
90 14 1
95 14 1
100 14 1
105 14 1
0 15 1
5 15 1
10 15 1
15 15 1
20 15 1
25 15 1
30 15 1
35 15 1
40 15 1
45 15 1
50 15 1
55 15 1
60 15 1
65 15 1
70 15 1
75 15 1
80 15 1
85 15 1
90 15 1
95 15 1
100 15 1
105 15 1
0 16 1
5 16 1
10 16 1
15 16 1
20 16 1
25 16 1
30 16 1
35 16 1
40 16 1
45 16 1
50 16 1
55 16 1
60 16 1
65 16 1
70 16 1
75 16 1
80 16 1
85 16 1
90 16 1
95 16 1
100 16 1
105 16 1
0 0 2
5 0 2
10 0 2
15 0 2
20 0 2
25 0 2
30 0 2
35 0 2
40 0 2
45 0 2
50 0 2
55 0 2
60 0 2
65 0 2
70 0 2
75 0 2
80 0 2
85 0 2
90 0 2
95 0 2
100 0 2
105 0 2
0 1 2
5 1 2
10 1 2
15 1 2
20 1 2
25 1 2
30 1 2
35 1 2
40 1 2
45 1 2
50 1 2
55 1 2
60 1 2
65 1 2
70 1 2
75 1 2
80 1 2
85 1 2
90 1 2
95 1 2
100 1 2
105 1 2
0 2 2
5 2 2
10 2 2
15 2 2
20 2 2
25 2 2
30 2 2
35 2 2
40 2 2
45 2 2
50 2 2
55 2 2
60 2 2
65 2 2
70 2 2
75 2 2
80 2 2
85 2 2
90 2 2
95 2 2
100 2 2
105 2 2
0 3 2
5 3 2
10 3 2
15 3 2
20 3 2
25 3 2
30 3 2
35 3 2
40 3 2
45 3 2
50 3 2
55 3 2
60 3 2
65 3 2
70 3 2
75 3 2
80 3 2
85 3 2
90 3 2
95 3 2
100 3 2
105 3 2
0 4 2
5 4 2
10 4 2
15 4 2
20 4 2
25 4 2
30 4 2
35 4 2
40 4 2
45 4 2
50 4 2
55 4 2
60 4 2
65 4 2
70 4 2
75 4 2
80 4 2
85 4 2
90 4 2
95 4 2
100 4 2
105 4 2
0 5 2
5 5 2
10 5 2
15 5 2
20 5 2
25 5 2
30 5 2
35 5 2
40 5 2
45 5 2
50 5 2
55 5 2
60 5 2
65 5 2
70 5 2
75 5 2
80 5 2
85 5 2
90 5 2
95 5 2
100 5 2
105 5 2
0 6 2
5 6 2
10 6 2
15 6 2
20 6 2
25 6 2
30 6 2
35 6 2
40 6 2
45 6 2
50 6 2
55 6 2
60 6 2
65 6 2
70 6 2
75 6 2
80 6 2
85 6 2
90 6 2
95 6 2
100 6 2
105 6 2
0 7 2
5 7 2
10 7 2
15 7 2
20 7 2
25 7 2
30 7 2
35 7 2
40 7 2
45 7 2
50 7 2
55 7 2
60 7 2
65 7 2
70 7 2
75 7 2
80 7 2
85 7 2
90 7 2
95 7 2
100 7 2
105 7 2
0 8 2
5 8 2
10 8 2
15 8 2
20 8 2
25 8 2
30 8 2
35 8 2
40 8 2
45 8 2
50 8 2
55 8 2
60 8 2
65 8 2
70 8 2
75 8 2
80 8 2
85 8 2
90 8 2
95 8 2
100 8 2
105 8 2
0 9 2
5 9 2
10 9 2
15 9 2
20 9 2
25 9 2
30 9 2
35 9 2
40 9 2
45 9 2
50 9 2
55 9 2
60 9 2
65 9 2
70 9 2
75 9 2
80 9 2
85 9 2
90 9 2
95 9 2
100 9 2
105 9 2
0 10 2
5 10 2
10 10 2
15 10 2
20 10 2
25 10 2
30 10 2
35 10 2
40 10 2
45 10 2
50 10 2
55 10 2
60 10 2
65 10 2
70 10 2
75 10 2
80 10 2
85 10 2
90 10 2
95 10 2
100 10 2
105 10 2
0 11 2
5 11 2
10 11 2
15 11 2
20 11 2
25 11 2
30 11 2
35 11 2
40 11 2
45 11 2
50 11 2
55 11 2
60 11 2
65 11 2
70 11 2
75 11 2
80 11 2
85 11 2
90 11 2
95 11 2
100 11 2
105 11 2
0 12 2
5 12 2
10 12 2
15 12 2
20 12 2
25 12 2
30 12 2
35 12 2
40 12 2
45 12 2
50 12 2
55 12 2
60 12 2
65 12 2
70 12 2
75 12 2
80 12 2
85 12 2
90 12 2
95 12 2
100 12 2
105 12 2
0 13 2
5 13 2
10 13 2
15 13 2
20 13 2
25 13 2
30 13 2
35 13 2
40 13 2
45 13 2
50 13 2
55 13 2
60 13 2
65 13 2
70 13 2
75 13 2
80 13 2
85 13 2
90 13 2
95 13 2
100 13 2
105 13 2
0 14 2
5 14 2
10 14 2
15 14 2
20 14 2
25 14 2
30 14 2
35 14 2
40 14 2
45 14 2
50 14 2
55 14 2
60 14 2
65 14 2
70 14 2
75 14 2
80 14 2
85 14 2
90 14 2
95 14 2
100 14 2
105 14 2
0 15 2
5 15 2
10 15 2
15 15 2
20 15 2
25 15 2
30 15 2
35 15 2
40 15 2
45 15 2
50 15 2
55 15 2
60 15 2
65 15 2
70 15 2
75 15 2
80 15 2
85 15 2
90 15 2
95 15 2
100 15 2
105 15 2
0 16 2
5 16 2
10 16 2
15 16 2
20 16 2
25 16 2
30 16 2
35 16 2
40 16 2
45 16 2
50 16 2
55 16 2
60 16 2
65 16 2
70 16 2
75 16 2
80 16 2
85 16 2
90 16 2
95 16 2
100 16 2
105 16 2
0 0 3
5 0 3
10 0 3
15 0 3
20 0 3
25 0 3
30 0 3
35 0 3
40 0 3
45 0 3
50 0 3
55 0 3
60 0 3
65 0 3
70 0 3
75 0 3
80 0 3
85 0 3
90 0 3
95 0 3
100 0 3
105 0 3
0 1 3
5 1 3
10 1 3
15 1 3
20 1 3
25 1 3
30 1 3
35 1 3
40 1 3
45 1 3
50 1 3
55 1 3
60 1 3
65 1 3
70 1 3
75 1 3
80 1 3
85 1 3
90 1 3
95 1 3
100 1 3
105 1 3
0 2 3
5 2 3
10 2 3
15 2 3
20 2 3
25 2 3
30 2 3
35 2 3
40 2 3
45 2 3
50 2 3
55 2 3
60 2 3
65 2 3
70 2 3
75 2 3
80 2 3
85 2 3
90 2 3
95 2 3
100 2 3
105 2 3
0 3 3
5 3 3
10 3 3
15 3 3
20 3 3
25 3 3
30 3 3
35 3 3
40 3 3
45 3 3
50 3 3
55 3 3
60 3 3
65 3 3
70 3 3
75 3 3
80 3 3
85 3 3
90 3 3
95 3 3
100 3 3
105 3 3
0 4 3
5 4 3
10 4 3
15 4 3
20 4 3
25 4 3
30 4 3
35 4 3
40 4 3
45 4 3
50 4 3
55 4 3
60 4 3
65 4 3
70 4 3
75 4 3
80 4 3
85 4 3
90 4 3
95 4 3
100 4 3
105 4 3
0 5 3
5 5 3
10 5 3
15 5 3
20 5 3
25 5 3
30 5 3
35 5 3
40 5 3
45 5 3
50 5 3
55 5 3
60 5 3
65 5 3
70 5 3
75 5 3
80 5 3
85 5 3
90 5 3
95 5 3
100 5 3
105 5 3
0 6 3
5 6 3
10 6 3
15 6 3
20 6 3
25 6 3
30 6 3
35 6 3
40 6 3
45 6 3
50 6 3
55 6 3
60 6 3
65 6 3
70 6 3
75 6 3
80 6 3
85 6 3
90 6 3
95 6 3
100 6 3
105 6 3
0 7 3
5 7 3
10 7 3
15 7 3
20 7 3
25 7 3
30 7 3
35 7 3
40 7 3
45 7 3
50 7 3
55 7 3
60 7 3
65 7 3
70 7 3
75 7 3
80 7 3
85 7 3
90 7 3
95 7 3
100 7 3
105 7 3
0 8 3
5 8 3
10 8 3
15 8 3
20 8 3
25 8 3
30 8 3
35 8 3
40 8 3
45 8 3
50 8 3
55 8 3
60 8 3
65 8 3
70 8 3
75 8 3
80 8 3
85 8 3
90 8 3
95 8 3
100 8 3
105 8 3
0 9 3
5 9 3
10 9 3
15 9 3
20 9 3
25 9 3
30 9 3
35 9 3
40 9 3
45 9 3
50 9 3
55 9 3
60 9 3
65 9 3
70 9 3
75 9 3
80 9 3
85 9 3
90 9 3
95 9 3
100 9 3
105 9 3
0 10 3
5 10 3
10 10 3
15 10 3
[...]
POINT_DATA 4488

SCALARS pressure double
LOOKUP_TABLE pressure
0
0
0
0
0
0
0
0
0
0
0
0
0
0
0
0
0
0
0
0
0
0
0
5209.05
5209.06
5209.03
5208.81
5208.71
5208.63
5208.61
5208.5
5208.71
5208.33
5208.13
5207.83
5207.54
5207
5206.16
5203.74
5204.05
5203.55
5203.29
5203.22
0
0
5209.06
5209.07
5209.04
5208.82
5208.72
5208.64
5208.62
5208.5
5208.32
5208.33
5208.15
5207.84
5207.54
5207.03
5206.21
5203.56
5204.07
5203.54
5203.29
5203.23
0
0
5209.07
5209.08
5209.06
5208.83
5208.73
5208.7
5208.64
5208.5
5208.37
5208.34
5208.17
5207.75
5207.56
5207.08
5206.32
5206.19
5204.15
5203.53
5203.28
5203.24
0
0
5209.08
5209.09
5209.09
5208.84
5208.51
5208.71
5208.67
5208.58
5208.41
5208.36
5208.2
5207.78
5207.6
5207.14
5206.43
5206.08
5204.15
5203.5
5203.26
5203.25
0
0
5209.1
5209.1
5208.99
5208.86
5208.52
5208.73
5208.7
5208.59
5208.46
5208.39
5208.25
5208.19
5207.64
5207.21
5206.52
5206
5204.09
5203.45
5203.24
5203.27
0
0
5209.13
5209.12
5209.03
5208.9
5208.51
5208.76
5208.74
5208.6
5208.5
5208.42
5208.3
5208.16
5207.71
5207.28
5206.61
5205.97
5203.98
5203.04
5203.21
5203.3
0
0
5209.16
5209.15
5209.08
5208.94
5208.48
5208.81
5208.78
5208.61
5208.55
5208.46
5208.34
5208.22
5207.84
5207.37
5206.77
5205.99
5203.81
5202.93
5203.18
5203.32
0
0
5209.19
5209.19
5209.13
5209
5208.43
5208.86
5208.83
5208.85
5208.61
5208.5
5208.39
5208.29
5207.97
5207.46
5206.89
5206.06
5203.59
5202.76
5203.15
5203.35
0
0
5209.23
5209.23
5209.18
5209.07
5208.29
5208.93
5208.89
5208.88
5208.66
5208.55
5208.45
5208.36
5208.1
5207.63
5206.95
5206.18
5203.28
5202.54
5203.08
5203.39
0
0
5209.27
5209.27
5209.24
5209.16
5209.51
5209.06
5208.95
5208.92
5208.71
5208.6
5208.51
5208.44
5208.24
5207.77
5207.05
5206.35
5202.8
5202.26
5203.07
5203.42
0
0
5209.31
5209.33
5209.31
5209.27
5209.41
5209.15
5209.02
5208.97
5208.77
5208.65
5208.57
5208.52
5208.4
5207.91
5207.13
5206.6
5201.96
5201.92
5203.07
5203.46
0
0
5209.36
5209.38
5209.38
5209.36
5209.43
5209.22
5209.08
5209.03
5208.82
5208.7
5208.63
5208.62
5208.58
5208.05
5207.17
5206.94
5201.39
5201.54
5203.1
5203.5
0
0
5209.42
5209.44
5209.45
5209.45
5209.47
5209.29
5209.15
5208.98
5208.87
5208.76
5208.7
5208.72
5208.77
5208.19
5209.84
5207.48
5200.14
5201.06
5203.16
5203.55
0
0
5209.48
5209.5
5209.53
5209.53
5209.5
5209.36
5209.22
5209.06
5208.93
5208.82
5208.77
5208.82
5209
5209.68
5210.03
5208.05
5198.33
5200.48
5203.27
5203.59
0
0
5209.54
5209.57
5209.61
5209.62
5209.52
5209.42
5209.3
5209.13
5208.99
5208.88
5208.84
5208.92
5209.21
5209.76
5210.22
5209.88
5196.76
5199.76
5203.5
5203.63
0
0
0
0
0
0
0
0
0
0
0
0
0
0
0
0
0
0
0
0
0
0
0
0
5209.05
5209.06
5209.03
5208.81
5208.71
5208.63
5208.61
5208.5
5208.71
5208.33
5208.13
5207.83
5207.54
5207
5206.16
5203.74
5204.05
5203.55
5203.29
5203.22
0
-5209.05
5209.05
5209.06
5209.03
5208.81
5208.71
5208.63
5208.61
5208.5
5208.71
5208.33
5208.13
5207.83
5207.54
5207
5206.16
5203.74
5204.05
5203.55
5203.29
5203.22
5203.22
0.0365802
5209.06
5209.07
5209.04
5208.82
5208.72
5208.64
5208.62
5208.5
5208.32
5208.33
5208.15
5207.84
5207.54
5207.03
5206.21
5203.56
5204.07
5203.54
5203.29
5203.23
5203.23
-5209.07
5209.07
5209.08
5209.06
5208.83
5208.73
5208.7
5208.64
5208.5
5208.37
5208.34
5208.17
5207.75
5207.56
5207.08
5206.32
5206.19
5204.15
5203.53
5203.28
5203.24
5203.24
-5209.08
5209.08
5209.09
5209.09
5208.84
5208.51
5208.71
5208.67
5208.58
5208.41
5208.36
5208.2
5207.78
5207.6
5207.14
5206.43
5206.08
5204.15
5203.5
5203.26
5203.25
5203.25
-5209.1
5209.1
5209.1
5208.99
5208.86
5208.52
5208.73
5208.7
5208.59
5208.46
5208.39
5208.25
5208.19
5207.64
5207.21
5206.52
5206
5204.09
5203.45
5203.24
5203.27
5203.27
-5209.13
5209.13
5209.12
5209.03
5208.9
5208.51
5208.76
5208.74
5208.6
5208.5
5208.42
5208.3
5208.16
5207.71
5207.28
5206.61
5205.97
5203.98
5203.04
5203.21
5203.3
5203.3
-5209.16
5209.16
5209.15
5209.08
5208.94
5208.48
5208.81
5208.78
5208.61
5208.55
5208.46
5208.34
5208.22
5207.84
5207.37
5206.77
5205.99
5203.81
5202.93
5203.18
5203.32
5203.32
-5209.19
5209.19
5209.19
5209.13
5209
5208.43
5208.86
5208.83
5208.85
5208.61
5208.5
5208.39
5208.29
5207.97
5207.46
5206.89
5206.06
5203.59
5202.76
5203.15
5203.35
5203.35
-5209.23
5209.23
5209.23
5209.18
5209.07
5208.29
5208.93
5208.89
5208.88
5208.66
5208.55
5208.45
5208.36
5208.1
5207.63
5206.95
5206.18
5203.28
5202.54
5203.08
5203.39
5203.39
-5209.27
5209.27
5209.27
5209.24
5209.16
5209.51
5209.06
5208.95
5208.92
5208.71
5208.6
5208.51
5208.44
5208.24
5207.77
5207.05
5206.35
5202.8
5202.26
5203.07
5203.42
5203.42
-5209.31
5209.31
5209.33
5209.31
5209.27
5209.41
5209.15
5209.02
5208.97
5208.77
5208.65
5208.57
5208.52
5208.4
5207.91
5207.13
5206.6
5201.96
5201.92
5203.07
5203.46
5203.46
-5209.36
5209.36
5209.38
5209.38
5209.36
5209.43
5209.22
5209.08
5209.03
5208.82
5208.7
5208.63
5208.62
5208.58
5208.05
5207.17
5206.94
5201.39
5201.54
5203.1
5203.5
5203.5
-5209.42
5209.42
5209.44
5209.45
5209.45
5209.47
5209.29
5209.15
5208.98
5208.87
5208.76
5208.7
5208.72
5208.77
5208.19
5209.84
5207.48
5200.14
5201.06
5203.16
5203.55
5203.55
-5209.48
5209.48
5209.5
5209.53
5209.53
5209.5
5209.36
5209.22
5209.06
5208.93
5208.82
5208.77
5208.82
5209
5209.68
5210.03
5208.05
5198.33
5200.48
5203.27
5203.59
5203.59
-5209.54
5209.54
5209.57
5209.61
5209.62
5209.52
5209.42
5209.3
5209.13
5208.99
5208.88
5208.84
5208.92
5209.21
5209.76
5210.22
5209.88
5196.76
5199.76
5203.5
5203.63
5203.63
0
5209.54
5209.57
5209.61
5209.62
5209.52
5209.42
5209.3
5209.13
5208.99
5208.88
5208.84
5208.92
5209.21
5209.76
5210.22
5209.88
5196.76
5199.76
5203.5
5203.63
0
0
5209.1
5209.14
5209.07
5208.91
5208.77
5208.71
5208.66
5208.58
5208.42
5208.37
5208.18
5208.04
5207.58
5207.05
5206.24
5204.58
5204.31
5203.68
5203.4
5203.29
0
-5209.1
5209.1
5209.14
5209.07
5208.91
5208.77
5208.71
5208.66
5208.58
5208.42
5208.37
5208.18
5208.04
5207.58
5207.05
5206.24
5204.58
5204.31
5203.68
5203.4
5203.29
5203.29
-5209.11
5209.11
5209.18
5209.08
5208.91
5208.79
5208.72
5208.66
5208.58
5208.42
5208.38
5208.2
5207.95
5207.59
5207.07
5206.28
5204.7
5204.28
5203.68
5203.4
5203.3
5203.3
-5209.12
5209.12
5209.15
5209.09
5208.92
5208.78
5208.75
5208.69
5208.59
5208.45
5208.39
5208.22
5207.93
5207.62
5207.12
5206.34
5205.55
5204.3
5203.65
5203.39
5203.31
5203.31
-5209.14
5209.14
5209.15
5209.1
5208.93
5208.73
5208.78
5208.73
5208.63
5208.48
5208.41
5208.25
5207.96
5207.68
5207.17
5206.37
5205.82
5204.29
5203.61
5203.38
5203.32
5203.32
-5209.16
5209.16
5209.16
5209.09
5208.95
5208.72
5208.81
5208.76
5208.65
5208.52
5208.43
5208.29
5208.12
5207.7
5207.24
5206.22
5205.87
5204.25
5203.52
5203.36
5203.34
5203.34
-5209.18
5209.18
5209.18
5209.11
5208.99
5208.74
5208.84
5208.8
5208.68
5208.56
5208.47
5208.33
5208.17
5207.77
5207.32
5206.53
5205.92
5204.17
5203.34
5203.33
5203.36
5203.36
-5209.21
5209.21
5209.21
5209.14
5209.03
5208.79
5208.89
5208.84
5208.73
5208.61
5208.5
5208.38
5208.23
5207.87
5207.41
5206.75
5205.98
5204.05
5203.2
5203.31
5203.39
5203.39
-5209.24
5209.24
5209.24
5209.19
5209.09
5208.85
5208.95
5208.89
5208.83
5208.66
5208.54
5208.43
5208.29
5207.99
5207.52
5206.91
5206.06
5203.91
5203.05
5203.28
5203.42
5203.42
-5209.28
5209.28
5209.28
5209.24
5209.16
5208.69
5209.02
5208.94
5208.89
5208.71
5208.59
5208.48
5208.36
5208.11
5207.66
5207.05
5206.19
5203.77
5202.87
5203.25
5203.45
5203.45
-5209.32
5209.32
5209.32
5209.3
5209.24
5209.32
5209.13
5209
5208.93
5208.76
5208.64
5208.54
5208.44
5208.25
5207.82
5207.22
5206.37
5203.72
5202.65
5203.23
5203.49
5203.49
-5209.37
5209.37
5209.37
5209.36
5209.32
5209.44
5209.2
5209.06
5208.98
5208.81
5208.69
5208.6
5208.53
5208.41
5208
5207.46
5206.61
5202.88
5202.37
5203.23
5203.53
5203.53
-5209.41
5209.41
5209.42
5209.42
5209.4
5209.45
5209.26
5209.12
5209.03
5208.86
5208.74
5208.66
5208.62
5208.56
5208.23
5207.8
5206.95
5202.26
5202.05
5203.25
5203.57
5203.57
-5209.47
5209.47
5209.46
5209.5
5209.48
5209.48
5209.32
5209.19
5209.05
5208.91
5208.8
5208.73
5208.71
5208.74
5208.54
5208.95
5207.45
5201.44
5201.68
5203.29
5203.61
5203.61
-5209.52
5209.52
5209.54
5209.56
5209.56
5209.51
5209.39
5209.26
5209.11
5208.97
5208.85
5208.8
5208.81
5208.94
5209.2
5209.51
5208.11
5200.42
5201.28
5203.36
5203.66
5203.66
-5209.58
5209.58
5209.61
5209.64
5209.64
5209.55
5209.45
5209.33
5209.17
5209.03
5208.92
5208.87
5208.92
5209.13
5209.54
5209.88
5209.08
5199.34
5200.85
5203.45
5203.71
5203.71
0
5209.58
5209.61
5209.64
5209.64
5209.55
5209.45
5209.33
5209.17
5209.03
5208.92
5208.87
5208.92
5209.13
5209.54
5209.88
5209.08
5199.34
5200.85
5203.45
5203.71
0
0
5209.16
5209.18
5209.12
5208.99
5208.81
5208.77
5208.73
5208.64
5208.49
5208.41
5208.23
5208.05
5207.62
5207.1
5206.32
5205.08
5204.45
5203.82
5203.51
5203.36
0
-5209.16
5209.16
5209.18
5209.12
5208.99
5208.81
5208.77
5208.73
5208.64
5208.49
5208.41
5208.23
5208.05
5207.62
5207.1
5206.32
5205.08
5204.45
5203.82
5203.51
5203.36
5203.36
-5209.17
5209.17
5209.2
5209.13
5208.99
5208.86
5208.79
5208.74
5208.65
5208.5
5208.42
5208.24
5208.02
5207.64
5207.12
5206.35
5205.21
5204.45
5203.81
5203.51
5203.37
5203.37
-5209.18
5209.18
5209.2
5209.14
5209
5208.87
5208.82
5208.76
5208.66
5208.52
5208.43
5208.26
5208.02
5207.67
5207.15
5206.4
5205.54
5204.45
5203.79
5203.51
5203.38
5203.38
-5209.2
5209.2
5209.2
5209.15
5209.02
5208.87
5208.85
5208.79
5208.69
5208.55
5208.45
5208.29
5208.06
5207.71
5207.2
5206.45
5205.73
5204.44
5203.75
5203.5
5203.39
5203.39
-5209.21
5209.21
5209.22
5209.16
5209.04
5208.88
5208.88
5208.82
5208.71
5208.58
5208.48
5208.33
5208.14
5207.76
5207.27
5206.49
5205.82
5204.41
5203.68
5203.48
5203.41
5203.41
-5209.24
5209.24
5209.24
5209.18
5209.07
5208.92
5208.92
5208.86
5208.75
5208.62
5208.51
5208.37
5208.19
5207.82
5207.35
5206.62
5205.9
5204.35
5203.57
5203.47
5203.43
5203.43
-5209.27
5209.27
5209.26
5209.21
5209.11
5208.98
5208.97
5208.9
5208.8
5208.66
5208.55
5208.41
5208.24
5207.9
5207.44
5206.78
5205.98
5204.27
5203.45
5203.45
5203.46
5203.46
-5209.3
5209.3
5209.29
5209.25
5209.17
5209.07
5209.02
5208.94
5208.86
5208.71
5208.59
5208.46
5208.3
5208
5207.56
5206.94
5206.07
5204.17
5203.32
5203.42
5203.49
5203.49
-5209.33
5209.33
5209.33
5209.29
5209.23
5209.16
5209.09
5208.99
5208.91
5208.75
5208.63
5208.51
5208.37
5208.12
5207.69
5207.1
5206.21
5204.06
5203.18
5203.4
5203.52
5203.52
-5209.37
5209.37
5209.37
5209.35
5209.3
5209.48
5209.17
5209.05
5208.96
5208.8
5208.68
5208.56
5208.45
5208.24
5207.85
5207.31
5206.38
5203.9
5203
5203.39
5203.56
5203.56
-5209.42
5209.42
5209.42
5209.4
5209.37
5209.48
5209.24
5209.11
5209.01
5208.85
5208.73
5208.62
5208.53
5208.39
5208.05
5207.59
5206.62
5203.47
5202.78
5203.39
5203.6
5203.6
-5209.46
5209.46
5209.47
5209.47
5209.44
5209.48
5209.3
5209.16
5209.06
5208.9
5208.78
5208.69
5208.62
5208.53
5208.28
5207.99
5206.95
5203.03
5202.54
5203.4
5203.64
5203.64
-5209.52
5209.52
5209.52
5209.53
5209.51
5209.51
5209.36
5209.23
5209.1
5208.96
5208.84
5208.75
5208.71
5208.7
5208.59
5208.64
5207.41
5202.54
5202.27
5203.43
5203.68
5203.68
-5209.57
5209.57
5209.58
5209.6
5209.59
5209.54
5209.42
5209.29
5209.15
5209.01
5208.89
5208.82
5208.81
5208.87
5209
5209.13
5208.03
5202.01
5201.99
5203.47
5203.73
5203.73
-5209.63
5209.63
5209.65
5209.67
5209.66
5209.58
5209.48
5209.36
5209.21
5209.07
5208.95
5208.89
5208.9
5209.05
5209.33
5209.53
5208.85
5201.49
5201.71
5203.52
5203.78
5203.78
0
5209.63
5209.65
5209.67
5209.66
5209.58
5209.48
5209.36
5209.21
5209.07
5208.95
5208.89
5208.9
5209.05
5209.33
5209.53
5208.85
5201.49
5201.71
5203.52
5203.78
0
0
5209.22
5209.23
5209.18
5209.07
5208.79
5208.83
5208.8
5208.7
5208.56
5208.46
5208.28
5208.06
5207.66
5207.14
5206.4
5205.37
5204.59
5203.96
5203.63
5203.43
0
-5209.22
5209.22
5209.23
5209.18
5209.07
5208.79
5208.83
5208.8
5208.7
5208.56
5208.46
5208.28
5208.06
5207.66
5207.14
5206.4
5205.37
5204.59
5203.96
5203.63
5203.43
5203.43
-5209.22
5209.22
5209.24
5209.18
5209.08
5208.97
5208.85
5208.81
5208.71
5208.57
5208.47
5208.29
5208.06
5207.68
5207.16
5206.42
5205.45
5204.6
5203.96
5203.63
5203.44
5203.44
-5209.24
5209.24
5209.24
5209.19
5209.09
5208.98
5208.89
5208.83
5208.73
5208.59
5208.48
5208.31
5208.07
5207.7
5207.19
5206.47
5205.6
5204.6
5203.94
5203.63
5203.45
5203.45
-5209.25
5209.25
5209.25
5209.2
5209.1
5208.99
5208.92
5208.85
5208.75
5208.62
5208.5
5208.33
5208.1
5207.74
5207.24
5206.52
5205.73
5204.59
5203.9
5203.62
5203.46
5203.46
-5209.27
5209.27
5209.27
5209.22
5209.12
5209.01
5208.95
5208.88
5208.78
5208.64
5208.53
5208.36
5208.16
5207.79
5207.3
5206.59
5205.82
5204.57
5203.85
5203.61
5203.48
5203.48
-5209.29
5209.29
5209.29
5209.24
5209.15
5209.04
5208.99
5208.92
5208.81
5208.68
5208.56
5208.4
5208.2
5207.85
5207.38
5206.69
5205.9
5204.53
5203.77
5203.6
5203.5
5203.5
-5209.32
5209.32
5209.32
5209.27
5209.19
5209.1
5209.04
5208.95
5208.85
5208.72
5208.59
5208.44
5208.26
5207.93
5207.47
5206.82
5205.99
5204.47
5203.69
5203.58
5203.53
5203.53
-5209.35
5209.35
5209.35
5209.31
5209.23
5209.17
5209.09
5209
5208.9
5208.76
5208.63
5208.49
5208.32
5208.02
5207.58
5206.96
5206.09
5204.4
5203.59
5203.57
5203.56
5203.56
-5209.39
5209.39
5209.38
5209.35
5209.29
5209.27
5209.15
5209.04
5208.95
5208.8
5208.67
5208.54
5208.38
5208.12
5207.71
5207.13
5206.22
5204.3
5203.47
5203.56
5203.59
5203.59
-5209.43
5209.43
5209.42
5209.4
5209.35
5209.42
5209.21
5209.1
5209
5208.85
5208.72
5208.59
5208.46
5208.24
5207.87
5207.34
5206.39
5204.16
5203.33
5203.55
5203.63
5203.63
-5209.47
5209.47
5209.47
5209.45
5209.42
5209.47
5209.27
5209.15
5209.04
5208.9
5208.77
5208.65
5208.53
5208.36
5208.05
5207.6
5206.61
5203.93
5203.17
5203.55
5203.67
5203.67
-5209.52
5209.52
5209.52
5209.51
5209.48
5209.5
5209.33
5209.21
5209.09
5208.95
5208.82
5208.71
5208.62
5208.5
5208.27
5207.95
5206.91
5203.67
5203
5203.56
5203.71
5203.71
-5209.57
5209.57
5209.57
5209.57
5209.55
5209.53
5209.39
5209.26
5209.14
5209
5208.88
5208.78
5208.71
5208.65
5208.53
5208.39
5207.32
5203.39
5202.81
5203.58
5203.75
5203.75
-5209.62
5209.62
5209.63
5209.63
5209.61
5209.56
5209.45
5209.33
5209.19
5209.05
5208.93
5208.84
5208.8
5208.81
5208.84
5208.8
5207.85
5203.11
5202.61
5203.6
5203.8
5203.8
-5209.68
5209.68
5209.69
5209.7
5209.69
5209.61
5209.51
5209.39
5209.25
5209.11
5208.99
5208.91
5208.89
5208.97
5209.13
5209.18
5208.49
5202.85
5202.42
5203.63
5203.84
5203.84
0
5209.68
5209.69
5209.7
5209.69
5209.61
5209.51
5209.39
5209.25
5209.11
5208.99
5208.91
5208.89
5208.97
5209.13
5209.18
5208.49
5202.85
5202.42
5203.63
5203.84
0
0
5209.27
5209.28
5209.23
5209.16
5208.93
5208.87
5208.87
5208.77
5208.63
5208.51
5208.32
5208.08
5207.7
5207.18
5206.47
5205.56
5204.74
5204.11
5203.74
5203.5
0
-5209.27
5209.27
5209.28
5209.23
5209.16
5208.93
5208.87
5208.87
5208.77
5208.63
5208.51
5208.32
5208.08
5207.7
5207.18
5206.47
5205.56
5204.74
5204.11
5203.74
5203.5
5203.5
-5209.28
5209.28
5209.29
5209.24
5209.16
5209.08
5208.91
5208.88
5208.78
5208.64
5208.52
5208.33
5208.09
5207.71
5207.2
5206.49
5205.6
5204.74
5204.1
5203.75
5203.51
5203.51
-5209.29
5209.29
5209.29
5209.25
5209.16
5209.12
5208.96
5208.89
5208.79
5208.66
5208.53
5208.35
5208.11
5207.74
5207.23
5206.53
5205.69
5204.75
5204.09
5203.75
5203.52
5203.52
-5209.31
5209.31
5209.31
5209.26
5209.18
5209.11
5208.99
5208.92
5208.81
5208.68
5208.55
5208.37
5208.14
5207.77
5207.27
5206.58
5205.77
5204.74
5204.06
5203.74
5203.54
5203.54
-5209.33
5209.33
5209.32
5209.28
5209.19
5209.12
5209.02
5208.94
5208.84
5208.7
5208.57
5208.4
5208.18
5207.82
5207.33
5206.65
5205.86
5204.73
5204.02
5203.74
5203.55
5203.55
-5209.35
5209.35
5209.34
5209.3
5209.22
5209.14
5209.06
5208.98
5208.87
5208.73
5208.6
5208.44
5208.22
5207.88
5207.4
5206.74
5205.93
5204.71
5203.97
5203.73
5203.58
5203.58
-5209.38
5209.38
5209.37
5209.33
5209.26
5209.19
5209.1
5209.01
5208.91
5208.77
5208.64
5208.48
5208.27
5207.95
5207.49
5206.85
5206.02
5204.67
5203.91
5203.73
5203.6
5203.6
-5209.41
5209.41
5209.4
5209.36
5209.3
5209.24
5209.15
5209.05
5208.95
5208.81
5208.67
5208.52
5208.33
5208.03
5207.59
5206.98
5206.12
5204.62
5203.84
5203.72
5203.63
5203.63
-5209.44
5209.44
5209.44
5209.4
5209.35
5209.32
5209.2
5209.1
5208.99
5208.85
5208.72
5208.57
5208.39
5208.12
5207.71
5207.14
5206.24
5204.55
5203.75
5203.71
5203.66
5203.66
-5209.48
5209.48
5209.48
5209.45
5209.4
5209.4
5209.25
5209.14
5209.04
5208.9
5208.76
5208.62
5208.46
5208.23
5207.86
5207.33
5206.4
5204.45
5203.65
5203.71
5203.7
5203.7
-5209.52
5209.52
5209.52
5209.5
5209.46
5209.46
5209.31
5209.19
5209.08
5208.94
5208.81
5208.68
5208.54
5208.34
5208.03
5207.56
5206.6
5204.33
5203.54
5203.72
5203.73
5203.73
-5209.57
5209.57
5209.57
5209.55
5209.52
5209.5
5209.36
5209.25
5209.13
5208.99
5208.86
5208.74
5208.62
5208.47
5208.22
5207.84
5206.86
5204.18
5203.42
5203.72
5203.77
5203.77
-5209.62
5209.62
5209.62
5209.61
5209.58
5209.54
5209.42
5209.3
5209.18
5209.04
5208.92
5208.8
5208.7
5208.6
5208.44
5208.18
5207.2
5204.03
5203.29
5203.74
5203.82
5203.82
-5209.67
5209.67
5209.67
5209.67
5209.64
5209.59
5209.48
5209.36
5209.24
5209.1
5208.97
5208.87
5208.79
5208.74
5208.69
5208.52
5207.62
5203.89
5203.16
5203.76
5203.86
5203.86
-5209.73
5209.73
5209.73
5209.73
5209.71
5209.64
5209.54
5209.43
5209.29
5209.16
5209.03
5208.93
5208.88
5208.88
5208.93
5208.85
5208.11
5203.75
5203.03
5203.78
5203.91
5203.91
0
5209.73
5209.73
5209.73
5209.71
5209.64
5209.54
5209.43
5209.29
5209.16
5209.03
5208.93
5208.88
5208.88
5208.93
5208.85
5208.11
5203.75
5203.03
5203.78
5203.91
0
0
5209.33
5209.33
5209.29
5209.22
5209.05
5208.98
5208.94
5208.83
5208.69
5208.56
5208.36
5208.11
5207.73
5207.22
5206.53
5205.69
5204.88
5204.25
5203.86
5203.58
0
-5209.33
5209.33
5209.33
5209.29
5209.22
5209.05
5208.98
5208.94
5208.83
5208.69
5208.56
5208.36
5208.11
5207.73
5207.22
5206.53
5205.69
5204.88
5204.25
5203.86
5203.58
5203.58
-5209.34
5209.34
5209.34
5209.3
5209.23
5209.12
5209
5208.95
5208.84
5208.7
5208.56
5208.37
5208.12
5207.74
5207.23
5206.55
5205.72
5204.89
5204.25
5203.86
5203.58
5203.58
-5209.35
5209.35
5209.35
5209.31
5209.23
5209.16
5209.03
5208.96
5208.85
5208.72
5208.58
5208.39
5208.14
5207.77
5207.26
5206.59
5205.78
5204.89
5204.24
5203.87
5203.59
5203.59
-5209.36
5209.36
5209.36
5209.32
5209.25
5209.18
5209.06
5208.98
5208.87
5208.74
5208.6
5208.41
5208.17
5207.8
5207.3
5206.63
5205.84
5204.89
5204.23
5203.87
5203.61
5203.61
-5209.38
5209.38
5209.38
5209.34
5209.26
5209.19
5209.09
5209.01
5208.9
5208.76
5208.62
5208.44
5208.2
5207.84
5207.35
5206.7
5205.91
5204.89
5204.2
5203.87
5203.63
5203.63
-5209.41
5209.41
5209.4
5209.36
5209.29
5209.22
5209.12
5209.04
5208.93
5208.79
5208.65
5208.47
5208.25
5207.9
5207.42
5206.77
5205.98
5204.88
5204.17
5203.87
5203.65
5203.65
-5209.43
5209.43
5209.43
5209.39
5209.32
5209.26
5209.16
5209.07
5208.96
5208.82
5208.68
5208.51
5208.29
5207.96
5207.5
5206.87
5206.05
5204.86
5204.13
5203.87
5203.67
5203.67
-5209.46
5209.46
5209.45
5209.42
5209.36
5209.3
5209.2
5209.11
5209
5208.86
5208.72
5208.55
5208.35
5208.03
5207.59
5206.99
5206.15
5204.83
5204.08
5203.87
5203.7
5203.7
-5209.5
5209.5
5209.49
5209.46
5209.4
5209.36
5209.25
5209.15
5209.04
5208.9
5208.76
5208.6
5208.41
5208.12
5207.7
5207.13
5206.26
5204.79
5204.02
5203.87
5203.73
5203.73
-5209.53
5209.53
5209.53
5209.5
5209.45
5209.42
5209.3
5209.19
5209.08
5208.94
5208.8
5208.65
5208.47
5208.21
5207.83
5207.29
5206.4
5204.73
5203.95
5203.87
5203.77
5203.77
-5209.57
5209.57
5209.57
5209.54
5209.5
5209.47
5209.35
5209.24
5209.13
5208.99
5208.85
5208.71
5208.54
5208.32
5207.98
5207.49
5206.57
5204.67
5203.88
5203.88
5203.8
5203.8
-5209.62
5209.62
5209.62
5209.59
5209.55
5209.52
5209.4
5209.29
5209.17
5209.04
5208.9
5208.77
5208.62
5208.43
5208.15
5207.72
5206.79
5204.6
5203.8
5203.89
5203.84
5203.84
-5209.67
5209.67
5209.67
5209.65
5209.61
5209.56
5209.45
5209.34
5209.22
5209.09
5208.96
5208.83
5208.7
5208.55
5208.34
5207.99
5207.06
5204.53
5203.72
5203.91
5203.89
5203.89
-5209.72
5209.72
5209.72
5209.71
5209.67
5209.61
5209.51
5209.4
5209.28
5209.14
5209.01
5208.89
5208.78
5208.68
5208.54
5208.27
5207.39
5204.47
5203.64
5203.93
5203.93
5203.93
-5209.78
5209.78
5209.78
5209.77
5209.74
5209.66
5209.57
5209.46
5209.33
5209.2
5209.07
5208.96
5208.87
5208.81
5208.75
5208.54