# vtk DataFile Version 3.0
FlowField
ASCII
DATASET STRUCTURED_GRID
DIMENSIONS 102 12 1 
POINTS 1224 double
0 0 0
0.3 0 0
0.6 0 0
0.9 0 0
1.2 0 0
1.5 0 0
1.8 0 0
2.1 0 0
2.4 0 0
2.7 0 0
3 0 0
3.3 0 0
3.6 0 0
3.9 0 0
4.2 0 0
4.5 0 0
4.8 0 0
5.1 0 0
5.4 0 0
5.7 0 0
6 0 0
6.3 0 0
6.6 0 0
6.9 0 0
7.2 0 0
7.5 0 0
7.8 0 0
8.1 0 0
8.4 0 0
8.7 0 0
9 0 0
9.3 0 0
9.6 0 0
9.9 0 0
10.2 0 0
10.5 0 0
10.8 0 0
11.1 0 0
11.4 0 0
11.7 0 0
12 0 0
12.3 0 0
12.6 0 0
12.9 0 0
13.2 0 0
13.5 0 0
13.8 0 0
14.1 0 0
14.4 0 0
14.7 0 0
15 0 0
15.3 0 0
15.6 0 0
15.9 0 0
16.2 0 0
16.5 0 0
16.8 0 0
17.1 0 0
17.4 0 0
17.7 0 0
18 0 0
18.3 0 0
18.6 0 0
18.9 0 0
19.2 0 0
19.5 0 0
19.8 0 0
20.1 0 0
20.4 0 0
20.7 0 0
21 0 0
21.3 0 0
21.6 0 0
21.9 0 0
22.2 0 0
22.5 0 0
22.8 0 0
23.1 0 0
23.4 0 0
23.7 0 0
24 0 0
24.3 0 0
24.6 0 0
24.9 0 0
25.2 0 0
25.5 0 0
25.8 0 0
26.1 0 0
26.4 0 0
26.7 0 0
27 0 0
27.3 0 0
27.6 0 0
27.9 0 0
28.2 0 0
28.5 0 0
28.8 0 0
29.1 0 0
29.4 0 0
29.7 0 0
30 0 0
30.3 0 0
0 0.1 0
0.3 0.1 0
0.6 0.1 0
0.9 0.1 0
1.2 0.1 0
1.5 0.1 0
1.8 0.1 0
2.1 0.1 0
2.4 0.1 0
2.7 0.1 0
3 0.1 0
3.3 0.1 0
3.6 0.1 0
3.9 0.1 0
4.2 0.1 0
4.5 0.1 0
4.8 0.1 0
5.1 0.1 0
5.4 0.1 0
5.7 0.1 0
6 0.1 0
6.3 0.1 0
6.6 0.1 0
6.9 0.1 0
7.2 0.1 0
7.5 0.1 0
7.8 0.1 0
8.1 0.1 0
8.4 0.1 0
8.7 0.1 0
9 0.1 0
9.3 0.1 0
9.6 0.1 0
9.9 0.1 0
10.2 0.1 0
10.5 0.1 0
10.8 0.1 0
11.1 0.1 0
11.4 0.1 0
11.7 0.1 0
12 0.1 0
12.3 0.1 0
12.6 0.1 0
12.9 0.1 0
13.2 0.1 0
13.5 0.1 0
13.8 0.1 0
14.1 0.1 0
14.4 0.1 0
14.7 0.1 0
15 0.1 0
15.3 0.1 0
15.6 0.1 0
15.9 0.1 0
16.2 0.1 0
16.5 0.1 0
16.8 0.1 0
17.1 0.1 0
17.4 0.1 0
17.7 0.1 0
18 0.1 0
18.3 0.1 0
18.6 0.1 0
18.9 0.1 0
19.2 0.1 0
19.5 0.1 0
19.8 0.1 0
20.1 0.1 0
20.4 0.1 0
20.7 0.1 0
21 0.1 0
21.3 0.1 0
21.6 0.1 0
21.9 0.1 0
22.2 0.1 0
22.5 0.1 0
22.8 0.1 0
23.1 0.1 0
23.4 0.1 0
23.7 0.1 0
24 0.1 0
24.3 0.1 0
24.6 0.1 0
24.9 0.1 0
25.2 0.1 0
25.5 0.1 0
25.8 0.1 0
26.1 0.1 0
26.4 0.1 0
26.7 0.1 0
27 0.1 0
27.3 0.1 0
27.6 0.1 0
27.9 0.1 0
28.2 0.1 0
28.5 0.1 0
28.8 0.1 0
29.1 0.1 0
29.4 0.1 0
29.7 0.1 0
30 0.1 0
30.3 0.1 0
0 0.2 0
0.3 0.2 0
0.6 0.2 0
0.9 0.2 0
1.2 0.2 0
1.5 0.2 0
1.8 0.2 0
2.1 0.2 0
2.4 0.2 0
2.7 0.2 0
3 0.2 0
3.3 0.2 0
3.6 0.2 0
3.9 0.2 0
4.2 0.2 0
4.5 0.2 0
4.8 0.2 0
5.1 0.2 0
5.4 0.2 0
5.7 0.2 0
6 0.2 0
6.3 0.2 0
6.6 0.2 0
6.9 0.2 0
7.2 0.2 0
7.5 0.2 0
7.8 0.2 0
8.1 0.2 0
8.4 0.2 0
8.7 0.2 0
9 0.2 0
9.3 0.2 0
9.6 0.2 0
9.9 0.2 0
10.2 0.2 0
10.5 0.2 0
10.8 0.2 0
11.1 0.2 0
11.4 0.2 0
11.7 0.2 0
12 0.2 0
12.3 0.2 0
12.6 0.2 0
12.9 0.2 0
13.2 0.2 0
13.5 0.2 0
13.8 0.2 0
14.1 0.2 0
14.4 0.2 0
14.7 0.2 0
15 0.2 0
15.3 0.2 0
15.6 0.2 0
15.9 0.2 0
16.2 0.2 0
16.5 0.2 0
16.8 0.2 0
17.1 0.2 0
17.4 0.2 0
17.7 0.2 0
18 0.2 0
18.3 0.2 0
18.6 0.2 0
18.9 0.2 0
19.2 0.2 0
19.5 0.2 0
19.8 0.2 0
20.1 0.2 0
20.4 0.2 0
20.7 0.2 0
21 0.2 0
21.3 0.2 0
21.6 0.2 0
21.9 0.2 0
22.2 0.2 0
22.5 0.2 0
22.8 0.2 0
23.1 0.2 0
23.4 0.2 0
23.7 0.2 0
24 0.2 0
24.3 0.2 0
24.6 0.2 0
24.9 0.2 0
25.2 0.2 0
25.5 0.2 0
25.8 0.2 0
26.1 0.2 0
26.4 0.2 0
26.7 0.2 0
27 0.2 0
27.3 0.2 0
27.6 0.2 0
27.9 0.2 0
28.2 0.2 0
28.5 0.2 0
28.8 0.2 0
29.1 0.2 0
29.4 0.2 0
29.7 0.2 0
30 0.2 0
30.3 0.2 0
0 0.3 0
0.3 0.3 0
0.6 0.3 0
0.9 0.3 0
1.2 0.3 0
1.5 0.3 0
1.8 0.3 0
2.1 0.3 0
2.4 0.3 0
2.7 0.3 0
3 0.3 0
3.3 0.3 0
3.6 0.3 0
3.9 0.3 0
4.2 0.3 0
4.5 0.3 0
4.8 0.3 0
5.1 0.3 0
5.4 0.3 0
5.7 0.3 0
6 0.3 0
6.3 0.3 0
6.6 0.3 0
6.9 0.3 0
7.2 0.3 0
7.5 0.3 0
7.8 0.3 0
8.1 0.3 0
8.4 0.3 0
8.7 0.3 0
9 0.3 0
9.3 0.3 0
9.6 0.3 0
9.9 0.3 0
10.2 0.3 0
10.5 0.3 0
10.8 0.3 0
11.1 0.3 0
11.4 0.3 0
11.7 0.3 0
12 0.3 0
12.3 0.3 0
12.6 0.3 0
12.9 0.3 0
13.2 0.3 0
13.5 0.3 0
13.8 0.3 0
14.1 0.3 0
14.4 0.3 0
14.7 0.3 0
15 0.3 0
15.3 0.3 0
15.6 0.3 0
15.9 0.3 0
16.2 0.3 0
16.5 0.3 0
16.8 0.3 0
17.1 0.3 0
17.4 0.3 0
17.7 0.3 0
18 0.3 0
18.3 0.3 0
18.6 0.3 0
18.9 0.3 0
19.2 0.3 0
19.5 0.3 0
19.8 0.3 0
20.1 0.3 0
20.4 0.3 0
20.7 0.3 0
21 0.3 0
21.3 0.3 0
21.6 0.3 0
21.9 0.3 0
22.2 0.3 0
22.5 0.3 0
22.8 0.3 0
23.1 0.3 0
23.4 0.3 0
23.7 0.3 0
24 0.3 0
24.3 0.3 0
24.6 0.3 0
24.9 0.3 0
25.2 0.3 0
25.5 0.3 0
25.8 0.3 0
26.1 0.3 0
26.4 0.3 0
26.7 0.3 0
27 0.3 0
27.3 0.3 0
27.6 0.3 0
27.9 0.3 0
28.2 0.3 0
28.5 0.3 0
28.8 0.3 0
29.1 0.3 0
29.4 0.3 0
29.7 0.3 0
30 0.3 0
30.3 0.3 0
0 0.4 0
0.3 0.4 0
0.6 0.4 0
0.9 0.4 0
1.2 0.4 0
1.5 0.4 0
1.8 0.4 0
2.1 0.4 0
2.4 0.4 0
2.7 0.4 0
3 0.4 0
3.3 0.4 0
3.6 0.4 0
3.9 0.4 0
4.2 0.4 0
4.5 0.4 0
4.8 0.4 0
5.1 0.4 0
5.4 0.4 0
5.7 0.4 0
6 0.4 0
6.3 0.4 0
6.6 0.4 0
6.9 0.4 0
7.2 0.4 0
7.5 0.4 0
7.8 0.4 0
8.1 0.4 0
8.4 0.4 0
8.7 0.4 0
9 0.4 0
9.3 0.4 0
9.6 0.4 0
9.9 0.4 0
10.2 0.4 0
10.5 0.4 0
10.8 0.4 0
11.1 0.4 0
11.4 0.4 0
11.7 0.4 0
12 0.4 0
12.3 0.4 0
12.6 0.4 0
12.9 0.4 0
13.2 0.4 0
13.5 0.4 0
13.8 0.4 0
14.1 0.4 0
14.4 0.4 0
14.7 0.4 0
15 0.4 0
15.3 0.4 0
15.6 0.4 0
15.9 0.4 0
16.2 0.4 0
16.5 0.4 0
16.8 0.4 0
17.1 0.4 0
17.4 0.4 0
17.7 0.4 0
18 0.4 0
18.3 0.4 0
18.6 0.4 0
18.9 0.4 0
19.2 0.4 0
19.5 0.4 0
19.8 0.4 0
20.1 0.4 0
20.4 0.4 0
20.7 0.4 0
21 0.4 0
21.3 0.4 0
21.6 0.4 0
21.9 0.4 0
22.2 0.4 0
22.5 0.4 0
22.8 0.4 0
23.1 0.4 0
23.4 0.4 0
23.7 0.4 0
24 0.4 0
24.3 0.4 0
24.6 0.4 0
24.9 0.4 0
25.2 0.4 0
25.5 0.4 0
25.8 0.4 0
26.1 0.4 0
26.4 0.4 0
26.7 0.4 0
27 0.4 0
27.3 0.4 0
27.6 0.4 0
27.9 0.4 0
28.2 0.4 0
28.5 0.4 0
28.8 0.4 0
29.1 0.4 0
29.4 0.4 0
29.7 0.4 0
30 0.4 0
30.3 0.4 0
0 0.5 0
0.3 0.5 0
0.6 0.5 0
0.9 0.5 0
1.2 0.5 0
1.5 0.5 0
1.8 0.5 0
2.1 0.5 0
2.4 0.5 0
2.7 0.5 0
3 0.5 0
3.3 0.5 0
3.6 0.5 0
3.9 0.5 0
4.2 0.5 0
4.5 0.5 0
4.8 0.5 0
5.1 0.5 0
5.4 0.5 0
5.7 0.5 0
6 0.5 0
6.3 0.5 0
6.6 0.5 0
6.9 0.5 0
7.2 0.5 0
7.5 0.5 0
7.8 0.5 0
8.1 0.5 0
8.4 0.5 0
8.7 0.5 0
9 0.5 0
9.3 0.5 0
9.6 0.5 0
9.9 0.5 0
10.2 0.5 0
10.5 0.5 0
10.8 0.5 0
11.1 0.5 0
11.4 0.5 0
11.7 0.5 0
12 0.5 0
12.3 0.5 0
12.6 0.5 0
12.9 0.5 0
13.2 0.5 0
13.5 0.5 0
13.8 0.5 0
14.1 0.5 0
14.4 0.5 0
14.7 0.5 0
15 0.5 0
15.3 0.5 0
15.6 0.5 0
15.9 0.5 0
16.2 0.5 0
16.5 0.5 0
16.8 0.5 0
17.1 0.5 0
17.4 0.5 0
17.7 0.5 0
18 0.5 0
18.3 0.5 0
18.6 0.5 0
18.9 0.5 0
19.2 0.5 0
19.5 0.5 0
19.8 0.5 0
20.1 0.5 0
20.4 0.5 0
20.7 0.5 0
21 0.5 0
21.3 0.5 0
21.6 0.5 0
21.9 0.5 0
22.2 0.5 0
22.5 0.5 0
22.8 0.5 0
23.1 0.5 0
23.4 0.5 0
23.7 0.5 0
24 0.5 0
24.3 0.5 0
24.6 0.5 0
24.9 0.5 0
25.2 0.5 0
25.5 0.5 0
25.8 0.5 0
26.1 0.5 0
26.4 0.5 0
26.7 0.5 0
27 0.5 0
27.3 0.5 0
27.6 0.5 0
27.9 0.5 0
28.2 0.5 0
28.5 0.5 0
28.8 0.5 0
29.1 0.5 0
29.4 0.5 0
29.7 0.5 0
30 0.5 0
30.3 0.5 0
0 0.6 0
0.3 0.6 0
0.6 0.6 0
0.9 0.6 0
1.2 0.6 0
1.5 0.6 0
1.8 0.6 0
2.1 0.6 0
2.4 0.6 0
2.7 0.6 0
3 0.6 0
3.3 0.6 0
3.6 0.6 0
3.9 0.6 0
4.2 0.6 0
4.5 0.6 0
4.8 0.6 0
5.1 0.6 0
5.4 0.6 0
5.7 0.6 0
6 0.6 0
6.3 0.6 0
6.6 0.6 0
6.9 0.6 0
7.2 0.6 0
7.5 0.6 0
7.8 0.6 0
8.1 0.6 0
8.4 0.6 0
8.7 0.6 0
9 0.6 0
9.3 0.6 0
9.6 0.6 0
9.9 0.6 0
10.2 0.6 0
10.5 0.6 0
10.8 0.6 0
11.1 0.6 0
11.4 0.6 0
11.7 0.6 0
12 0.6 0
12.3 0.6 0
12.6 0.6 0
12.9 0.6 0
13.2 0.6 0
13.5 0.6 0
13.8 0.6 0
14.1 0.6 0
14.4 0.6 0
14.7 0.6 0
15 0.6 0
15.3 0.6 0
15.6 0.6 0
15.9 0.6 0
16.2 0.6 0
16.5 0.6 0
16.8 0.6 0
17.1 0.6 0
17.4 0.6 0
17.7 0.6 0
18 0.6 0
18.3 0.6 0
18.6 0.6 0
18.9 0.6 0
19.2 0.6 0
19.5 0.6 0
19.8 0.6 0
20.1 0.6 0
20.4 0.6 0
20.7 0.6 0
21 0.6 0
21.3 0.6 0
21.6 0.6 0
21.9 0.6 0
22.2 0.6 0
22.5 0.6 0
22.8 0.6 0
23.1 0.6 0
23.4 0.6 0
23.7 0.6 0
24 0.6 0
24.3 0.6 0
24.6 0.6 0
24.9 0.6 0
25.2 0.6 0
25.5 0.6 0
25.8 0.6 0
26.1 0.6 0
26.4 0.6 0
26.7 0.6 0
27 0.6 0
27.3 0.6 0
27.6 0.6 0
27.9 0.6 0
28.2 0.6 0
28.5 0.6 0
28.8 0.6 0
29.1 0.6 0
29.4 0.6 0
29.7 0.6 0
30 0.6 0
30.3 0.6 0
0 0.7 0
0.3 0.7 0
0.6 0.7 0
0.9 0.7 0
1.2 0.7 0
1.5 0.7 0
1.8 0.7 0
2.1 0.7 0
2.4 0.7 0
2.7 0.7 0
3 0.7 0
3.3 0.7 0
3.6 0.7 0
3.9 0.7 0
4.2 0.7 0
4.5 0.7 0
4.8 0.7 0
5.1 0.7 0
5.4 0.7 0
5.7 0.7 0
6 0.7 0
6.3 0.7 0
6.6 0.7 0
6.9 0.7 0
7.2 0.7 0
7.5 0.7 0
7.8 0.7 0
8.1 0.7 0
8.4 0.7 0
8.7 0.7 0
9 0.7 0
9.3 0.7 0
9.6 0.7 0
9.9 0.7 0
10.2 0.7 0
10.5 0.7 0
10.8 0.7 0
11.1 0.7 0
11.4 0.7 0
11.7 0.7 0
12 0.7 0
12.3 0.7 0
12.6 0.7 0
12.9 0.7 0
13.2 0.7 0
13.5 0.7 0
13.8 0.7 0
14.1 0.7 0
14.4 0.7 0
14.7 0.7 0
15 0.7 0
15.3 0.7 0
15.6 0.7 0
15.9 0.7 0
16.2 0.7 0
16.5 0.7 0
16.8 0.7 0
17.1 0.7 0
17.4 0.7 0
17.7 0.7 0
18 0.7 0
18.3 0.7 0
18.6 0.7 0
18.9 0.7 0
19.2 0.7 0
19.5 0.7 0
19.8 0.7 0
20.1 0.7 0
20.4 0.7 0
20.7 0.7 0
21 0.7 0
21.3 0.7 0
21.6 0.7 0
21.9 0.7 0
22.2 0.7 0
22.5 0.7 0
22.8 0.7 0
23.1 0.7 0
23.4 0.7 0
23.7 0.7 0
24 0.7 0
24.3 0.7 0
24.6 0.7 0
24.9 0.7 0
25.2 0.7 0
25.5 0.7 0
25.8 0.7 0
26.1 0.7 0
26.4 0.7 0
26.7 0.7 0
27 0.7 0
27.3 0.7 0
27.6 0.7 0
27.9 0.7 0
28.2 0.7 0
28.5 0.7 0
28.8 0.7 0
29.1 0.7 0
29.4 0.7 0
29.7 0.7 0
30 0.7 0
30.3 0.7 0
0 0.8 0
0.3 0.8 0
0.6 0.8 0
0.9 0.8 0
1.2 0.8 0
1.5 0.8 0
1.8 0.8 0
2.1 0.8 0
2.4 0.8 0
2.7 0.8 0
3 0.8 0
3.3 0.8 0
3.6 0.8 0
3.9 0.8 0
4.2 0.8 0
4.5 0.8 0
4.8 0.8 0
5.1 0.8 0
5.4 0.8 0
5.7 0.8 0
6 0.8 0
6.3 0.8 0
6.6 0.8 0
6.9 0.8 0
7.2 0.8 0
7.5 0.8 0
7.8 0.8 0
8.1 0.8 0
8.4 0.8 0
8.7 0.8 0
9 0.8 0
9.3 0.8 0
9.6 0.8 0
9.9 0.8 0
10.2 0.8 0
10.5 0.8 0
10.8 0.8 0
11.1 0.8 0
11.4 0.8 0
11.7 0.8 0
12 0.8 0
12.3 0.8 0
12.6 0.8 0
12.9 0.8 0
13.2 0.8 0
13.5 0.8 0
13.8 0.8 0
14.1 0.8 0
14.4 0.8 0
14.7 0.8 0
15 0.8 0
15.3 0.8 0
15.6 0.8 0
15.9 0.8 0
16.2 0.8 0
16.5 0.8 0
16.8 0.8 0
17.1 0.8 0
17.4 0.8 0
17.7 0.8 0
18 0.8 0
18.3 0.8 0
18.6 0.8 0
18.9 0.8 0
19.2 0.8 0
19.5 0.8 0
19.8 0.8 0
20.1 0.8 0
20.4 0.8 0
20.7 0.8 0
21 0.8 0
21.3 0.8 0
21.6 0.8 0
21.9 0.8 0
22.2 0.8 0
22.5 0.8 0
22.8 0.8 0
23.1 0.8 0
23.4 0.8 0
23.7 0.8 0
24 0.8 0
24.3 0.8 0
24.6 0.8 0
24.9 0.8 0
25.2 0.8 0
25.5 0.8 0
25.8 0.8 0
26.1 0.8 0
26.4 0.8 0
26.7 0.8 0
27 0.8 0
27.3 0.8 0
27.6 0.8 0
27.9 0.8 0
28.2 0.8 0
28.5 0.8 0
28.8 0.8 0
29.1 0.8 0
29.4 0.8 0
29.7 0.8 0
30 0.8 0
30.3 0.8 0
0 0.9 0
0.3 0.9 0
0.6 0.9 0
0.9 0.9 0
1.2 0.9 0
1.5 0.9 0
1.8 0.9 0
2.1 0.9 0
2.4 0.9 0
2.7 0.9 0
3 0.9 0
3.3 0.9 0
3.6 0.9 0
3.9 0.9 0
4.2 0.9 0
4.5 0.9 0
4.8 0.9 0
5.1 0.9 0
5.4 0.9 0
5.7 0.9 0
6 0.9 0
6.3 0.9 0
6.6 0.9 0
6.9 0.9 0
7.2 0.9 0
7.5 0.9 0
7.8 0.9 0
8.1 0.9 0
8.4 0.9 0
8.7 0.9 0
9 0.9 0
9.3 0.9 0
9.6 0.9 0
9.9 0.9 0
10.2 0.9 0
10.5 0.9 0
10.8 0.9 0
11.1 0.9 0
11.4 0.9 0
11.7 0.9 0
12 0.9 0
12.3 0.9 0
12.6 0.9 0
12.9 0.9 0
13.2 0.9 0
13.5 0.9 0
13.8 0.9 0
14.1 0.9 0
14.4 0.9 0
14.7 0.9 0
15 0.9 0
15.3 0.9 0
15.6 0.9 0
15.9 0.9 0
16.2 0.9 0
16.5 0.9 0
16.8 0.9 0
17.1 0.9 0
17.4 0.9 0
17.7 0.9 0
18 0.9 0
18.3 0.9 0
18.6 0.9 0
18.9 0.9 0
19.2 0.9 0
19.5 0.9 0
19.8 0.9 0
20.1 0.9 0
20.4 0.9 0
20.7 0.9 0
21 0.9 0
21.3 0.9 0
21.6 0.9 0
21.9 0.9 0
22.2 0.9 0
22.5 0.9 0
22.8 0.9 0
23.1 0.9 0
23.4 0.9 0
23.7 0.9 0
24 0.9 0
24.3 0.9 0
24.6 0.9 0
24.9 0.9 0
25.2 0.9 0
25.5 0.9 0
25.8 0.9 0
26.1 0.9 0
26.4 0.9 0
26.7 0.9 0
27 0.9 0
27.3 0.9 0
27.6 0.9 0
27.9 0.9 0
28.2 0.9 0
28.5 0.9 0
28.8 0.9 0
29.1 0.9 0
29.4 0.9 0
29.7 0.9 0
30 0.9 0
30.3 0.9 0
0 1 0
0.3 1 0
0.6 1 0
0.9 1 0
1.2 1 0
1.5 1 0
1.8 1 0
2.1 1 0
2.4 1 0
2.7 1 0
3 1 0
3.3 1 0
3.6 1 0
3.9 1 0
4.2 1 0
4.5 1 0
4.8 1 0
5.1 1 0
5.4 1 0
5.7 1 0
6 1 0
6.3 1 0
6.6 1 0
6.9 1 0
7.2 1 0
7.5 1 0
7.8 1 0
8.1 1 0
8.4 1 0
8.7 1 0
9 1 0
9.3 1 0
9.6 1 0
9.9 1 0
10.2 1 0
10.5 1 0
10.8 1 0
11.1 1 0
11.4 1 0
11.7 1 0
12 1 0
12.3 1 0
12.6 1 0
12.9 1 0
13.2 1 0
13.5 1 0
13.8 1 0
14.1 1 0
14.4 1 0
14.7 1 0
15 1 0
15.3 1 0
15.6 1 0
15.9 1 0
16.2 1 0
16.5 1 0
16.8 1 0
17.1 1 0
17.4 1 0
17.7 1 0
18 1 0
18.3 1 0
18.6 1 0
18.9 1 0
19.2 1 0
19.5 1 0
19.8 1 0
20.1 1 0
20.4 1 0
20.7 1 0
21 1 0
21.3 1 0
21.6 1 0
21.9 1 0
22.2 1 0
22.5 1 0
22.8 1 0
23.1 1 0
23.4 1 0
23.7 1 0
24 1 0
24.3 1 0
24.6 1 0
24.9 1 0
25.2 1 0
25.5 1 0
25.8 1 0
26.1 1 0
26.4 1 0
26.7 1 0
27 1 0
27.3 1 0
27.6 1 0
27.9 1 0
28.2 1 0
28.5 1 0
28.8 1 0
29.1 1 0
29.4 1 0
29.7 1 0
30 1 0
30.3 1 0
0 1.1 0
0.3 1.1 0
0.6 1.1 0
0.9 1.1 0
1.2 1.1 0
1.5 1.1 0
1.8 1.1 0
2.1 1.1 0
2.4 1.1 0
2.7 1.1 0
3 1.1 0
3.3 1.1 0
3.6 1.1 0
3.9 1.1 0
4.2 1.1 0
4.5 1.1 0
4.8 1.1 0
5.1 1.1 0
5.4 1.1 0
5.7 1.1 0
6 1.1 0
6.3 1.1 0
6.6 1.1 0
6.9 1.1 0
7.2 1.1 0
7.5 1.1 0
7.8 1.1 0
8.1 1.1 0
8.4 1.1 0
8.7 1.1 0
9 1.1 0
9.3 1.1 0
9.6 1.1 0
9.9 1.1 0
10.2 1.1 0
10.5 1.1 0
10.8 1.1 0
11.1 1.1 0
11.4 1.1 0
11.7 1.1 0
12 1.1 0
12.3 1.1 0
12.6 1.1 0
12.9 1.1 0
13.2 1.1 0
13.5 1.1 0
13.8 1.1 0
14.1 1.1 0
14.4 1.1 0
14.7 1.1 0
15 1.1 0
15.3 1.1 0
15.6 1.1 0
15.9 1.1 0
16.2 1.1 0
16.5 1.1 0
16.8 1.1 0
17.1 1.1 0
17.4 1.1 0
17.7 1.1 0
18 1.1 0
18.3 1.1 0
18.6 1.1 0
18.9 1.1 0
19.2 1.1 0
19.5 1.1 0
19.8 1.1 0
20.1 1.1 0
20.4 1.1 0
20.7 1.1 0
21 1.1 0
21.3 1.1 0
21.6 1.1 0
21.9 1.1 0
22.2 1.1 0
22.5 1.1 0
22.8 1.1 0
23.1 1.1 0
23.4 1.1 0
23.7 1.1 0
24 1.1 0
24.3 1.1 0
24.6 1.1 0
24.9 1.1 0
25.2 1.1 0
25.5 1.1 0
25.8 1.1 0
26.1 1.1 0
26.4 1.1 0
26.7 1.1 0
27 1.1 0
27.3 1.1 0
27.6 1.1 0
27.9 1.1 0
28.2 1.1 0
28.5 1.1 0
28.8 1.1 0
29.1 1.1 0
29.4 1.1 0
29.7 1.1 0
30 1.1 0
30.3 1.1 0

POINT_DATA 1224

SCALARS pressure double
LOOKUP_TABLE pressure
1.3157
1.3157
1.24919
1.20212
1.15916
1.11951
1.08349
1.0511
1.022
0.995664
0.971553
0.949198
0.928225
0.908345
0.88934
0.871049
0.853357
0.836176
0.819438
0.803088
0.787084
0.771391
0.755982
0.74083
0.725913
0.711211
0.696709
0.682391
0.668243
0.654252
0.640407
0.626698
0.613115
0.59965
0.586294
0.57304
0.559882
0.546812
0.533825
0.520915
0.508078
0.495309
0.482603
0.469956
0.457365
0.444826
0.432336
0.419891
0.407489
0.395126
0.382801
0.370511
0.358254
0.346028
0.333831
0.321661
0.309516
0.297395
0.285296
0.273218
0.261159
0.249119
0.237096
0.22509
0.213098
0.20112
0.189156
0.177205
0.165265
0.153335
0.141417
0.129507
0.117607
0.105716
0.0938318
0.0819554
0.070086
0.0582232
0.0463665
0.0345155
0.0226699
0.0108294
-0.00100636
-0.0128376
-0.0246646
-0.0364876
-0.0483069
-0.0601225
-0.0719348
-0.0837438
-0.0955498
-0.107353
-0.119153
-0.130951
-0.142746
-0.154539
-0.16633
-0.178119
-0.189905
-0.201691
-0.213474
0.213474
1.3157
1.3157
1.24919
1.20212
1.15916
1.11951
1.08349
1.0511
1.022
0.995664
0.971553
0.949198
0.928225
0.908345
0.88934
0.871049
0.853357
0.836176
0.819438
0.803088
0.787084
0.771391
0.755982
0.74083
0.725913
0.711211
0.696709
0.682391
0.668243
0.654252
0.640407
0.626698
0.613115
0.59965
0.586294
0.57304
0.559882
0.546812
0.533825
0.520915
0.508078
0.495309
0.482603
0.469956
0.457365
0.444826
0.432336
0.419891
0.407489
0.395126
0.382801
0.370511
0.358254
0.346028
0.333831
0.321661
0.309516
0.297395
0.285296
0.273218
0.261159
0.249119
0.237096
0.22509
0.213098
0.20112
0.189156
0.177205
0.165265
0.153335
0.141417
0.129507
0.117607
0.105716
0.0938318
0.0819554
0.070086
0.0582232
0.0463665
0.0345155
0.0226699
0.0108294
-0.00100636
-0.0128376
-0.0246646
-0.0364876
-0.0483069
-0.0601225
-0.0719348
-0.0837438
-0.0955498
-0.107353
-0.119153
-0.130951
-0.142746
-0.154539
-0.16633
-0.178119
-0.189905
-0.201691
-0.213474
0.213474
1.29505
1.29505
1.2474
1.20243
1.15988
1.12028
1.08419
1.05169
1.02247
0.996034
0.971838
0.949418
0.928398
0.908483
0.889451
0.871141
0.853435
0.836243
0.819496
0.803138
0.787128
0.771432
0.756018
0.740863
0.725942
0.711238
0.696734
0.682414
0.668264
0.654271
0.640425
0.626714
0.61313
0.599664
0.586307
0.573052
0.559893
0.546822
0.533834
0.520924
0.508087
0.495317
0.48261
0.469963
0.457372
0.444832
0.432341
0.419896
0.407493
0.395131
0.382806
0.370515
0.358258
0.346032
0.333834
0.321664
0.309519
0.297397
0.285298
0.27322
0.261161
0.249121
0.237098
0.225091
0.2131
0.201122
0.189158
0.177206
0.165266
0.153337
0.141418
0.129509
0.117608
0.105717
0.0938327
0.0819562
0.0700868
0.0582239
0.0463672
0.0345161
0.0226705
0.0108299
-0.00100585
-0.0128371
-0.0246642
-0.0364872
-0.0483065
-0.0601222
-0.0719345
-0.0837435
-0.0955495
-0.107353
-0.119153
-0.130951
-0.142746
-0.154539
-0.16633
-0.178119
-0.189905
-0.201691
-0.213474
0.213474
1.28067
1.28067
1.24489
1.20282
1.16101
1.12154
1.08536
1.05268
1.02326
0.99664
0.972294
0.949759
0.928654
0.908677
0.8896
0.871259
0.85353
0.836322
0.819561
0.803194
0.787177
0.771474
0.756056
0.740896
0.725972
0.711265
0.696758
0.682435
0.668283
0.654289
0.640441
0.626729
0.613144
0.599676
0.586318
0.573063
0.559902
0.546831
0.533843
0.520932
0.508094
0.495324
0.482617
0.469969
0.457377
0.444837
0.432346
0.4199
0.407497
0.395134
0.382809
0.370519
0.358261
0.346035
0.333837
0.321666
0.309521
0.297399
0.2853
0.273222
0.261163
0.249123
0.2371
0.225093
0.213101
0.201123
0.189159
0.177207
0.165267
0.153338
0.141419
0.129509
0.117609
0.105717
0.0938333
0.0819569
0.0700874
0.0582245
0.0463677
0.0345166
0.022671
0.0108304
-0.00100543
-0.0128367
-0.0246638
-0.0364869
-0.0483062
-0.0601219
-0.0719342
-0.0837433
-0.0955493
-0.107352
-0.119153
-0.130951
-0.142746
-0.154539
-0.16633
-0.178118
-0.189905
-0.20169
-0.213472
0.213472
1.27198
1.27198
1.24288
1.20308
1.16193
1.12262
1.08639
1.05358
1.024
0.997218
0.972741
0.950104
0.928921
0.908884
0.889765
0.871392
0.85364
0.836413
0.819639
0.803261
0.787235
0.771525
0.756101
0.740935
0.726007
0.711297
0.696786
0.682461
0.668307
0.65431
0.64046
0.626747
0.61316
0.599691
0.586332
0.573075
0.559914
0.546842
0.533852
0.520941
0.508102
0.495331
0.482624
0.469976
0.457383
0.444843
0.432351
0.419905
0.407502
0.395139
0.382813
0.370522
0.358265
0.346038
0.33384
0.321669
0.309524
0.297402
0.285303
0.273224
0.261165
0.249125
0.237101
0.225094
0.213102
0.201125
0.18916
0.177208
0.165268
0.153339
0.14142
0.12951
0.11761
0.105718
0.0938342
0.0819576
0.0700881
0.0582251
0.0463683
0.0345172
0.0226715
0.0108309
-0.00100495
-0.0128363
-0.0246634
-0.0364865
-0.0483058
-0.0601215
-0.0719339
-0.083743
-0.095549
-0.107352
-0.119153
-0.13095
-0.142746
-0.154539
-0.166329
-0.178118
-0.189905
-0.201689
-0.213468
0.213468
1.2679
1.2679
1.2418
1.2032
1.16243
1.12321
1.08696
1.05408
1.02441
0.997553
0.973005
0.950312
0.929084
0.909014
0.88987
0.87148
0.853713
0.836475
0.819692
0.803308
0.787277
0.771562
0.756133
0.740965
0.726034
0.711321
0.696808
0.682481
0.668324
0.654326
0.640475
0.626761
0.613173
0.599703
0.586343
0.573085
0.559923
0.54685
0.53386
0.520948
0.508109
0.495337
0.482629
0.469981
0.457388
0.444848
0.432356
0.419909
0.407506
0.395142
0.382816
0.370525
0.358267
0.34604
0.333842
0.321671
0.309526
0.297404
0.285304
0.273226
0.261167
0.249126
0.237103
0.225096
0.213104
0.201126
0.189161
0.177209
0.165269
0.15334
0.141421
0.129511
0.117611
0.105719
0.0938348
0.0819582
0.0700887
0.0582257
0.0463688
0.0345177
0.0226719
0.0108313
-0.00100457
-0.0128359
-0.0246631
-0.0364862
-0.0483055
-0.0601213
-0.0719336
-0.0837427
-0.0955488
-0.107352
-0.119152
-0.13095
-0.142745
-0.154538
-0.166329
-0.178118
-0.189905
-0.201689
-0.213465
0.213465
1.2679
1.2679
1.2418
1.2032
1.16243
1.12321
1.08696
1.05408
1.02441
0.997552
0.973005
0.950312
0.929084
0.909014
0.88987
0.87148
0.853714
0.836475
0.819692
0.803308
0.787277
0.771562
0.756133
0.740965
0.726034
0.711321
0.696808
0.682481
0.668324
0.654326
0.640475
0.626761
0.613173
0.599703
0.586343
0.573085
0.559923
0.54685
0.53386
0.520948
0.508109
0.495337
0.482629
0.469981
0.457388
0.444848
0.432356
0.419909
0.407506
0.395142
0.382816
0.370525
0.358267
0.34604
0.333842
0.321671
0.309526
0.297404
0.285304
0.273226
0.261167
0.249126
0.237103
0.225096
0.213104
0.201126
0.189161
0.177209
0.165269
0.15334
0.141421
0.129511
0.117611
0.105719
0.0938348
0.0819582
0.0700887
0.0582257
0.0463688
0.0345177
0.0226719
0.0108313
-0.00100457
-0.0128359
-0.0246631
-0.0364862
-0.0483055
-0.0601213
-0.0719336
-0.0837427
-0.0955488
-0.107352
-0.119152
-0.13095
-0.142745
-0.154538
-0.166329
-0.178118
-0.189905
-0.201689
-0.213465
0.213465
1.27198
1.27198
1.24288
1.20308
1.16193
1.12262
1.08639
1.05358
1.024
0.997217
0.972741
0.950105
0.928921
0.908884
0.889765
0.871393
0.85364
0.836413
0.819639
0.803261
0.787235
0.771525
0.7561
0.740935
0.726007
0.711297
0.696787
0.682461
0.668307
0.65431
0.64046
0.626747
0.61316
0.599691
0.586332
0.573075
0.559914
0.546842
0.533852
0.520941
0.508102
0.495331
0.482624
0.469976
0.457383
0.444843
0.432351
0.419905
0.407502
0.395139
0.382813
0.370522
0.358265
0.346038
0.33384
0.321669
0.309524
0.297402
0.285302
0.273224
0.261165
0.249125
0.237101
0.225094
0.213102
0.201125
0.18916
0.177208
0.165268
0.153339
0.14142
0.12951
0.11761
0.105718
0.0938342
0.0819576
0.0700881
0.0582251
0.0463683
0.0345172
0.0226715
0.0108309
-0.00100495
-0.0128363
-0.0246634
-0.0364865
-0.0483058
-0.0601215
-0.0719339
-0.083743
-0.095549
-0.107352
-0.119153
-0.13095
-0.142746
-0.154539
-0.166329
-0.178118
-0.189905
-0.201689
-0.213468
0.213468
1.28067
1.28067
1.24489
1.20282
1.16101
1.12154
1.08536
1.05268
1.02326
0.996638
0.972293
0.949761
0.928654
0.908676
0.8896
0.87126
0.853531
0.836321
0.819561
0.803194
0.787177
0.771474
0.756056
0.740896
0.725972
0.711265
0.696758
0.682435
0.668283
0.654289
0.640441
0.626729
0.613144
0.599676
0.586318
0.573063
0.559902
0.546831
0.533843
0.520932
0.508094
0.495323
0.482617
0.469969
0.457377
0.444837
0.432346
0.4199
0.407497
0.395134
0.382809
0.370519
0.358261
0.346035
0.333837
0.321666
0.309521
0.297399
0.2853
0.273222
0.261163
0.249123
0.2371
0.225093
0.213101
0.201123
0.189159
0.177207
0.165267
0.153338
0.141419
0.129509
0.117609
0.105717
0.0938334
0.0819569
0.0700874
0.0582245
0.0463677
0.0345166
0.022671
0.0108304
-0.00100543
-0.0128367
-0.0246638
-0.0364869
-0.0483062
-0.0601219
-0.0719342
-0.0837433
-0.0955493
-0.107352
-0.119153
-0.130951
-0.142746
-0.154539
-0.16633
-0.178118
-0.189905
-0.20169
-0.213472
0.213472
1.29506
1.29506
1.2474
1.20243
1.15988
1.12028
1.08419
1.05169
1.02247
0.996032
0.971837
0.94942
0.928399
0.908482
0.88945
0.871141
0.853435
0.836243
0.819495
0.803138
0.787129
0.771432
0.756018
0.740862
0.725942
0.711238
0.696734
0.682414
0.668263
0.654271
0.640425
0.626714
0.61313
0.599664
0.586307
0.573052
0.559893
0.546822
0.533834
0.520924
0.508087
0.495317
0.48261
0.469963
0.457372
0.444832
0.432341
0.419896
0.407493
0.395131
0.382806
0.370515
0.358258
0.346032
0.333834
0.321664
0.309519
0.297397
0.285298
0.27322
0.261161
0.249121
0.237098
0.225091
0.2131
0.201122
0.189158
0.177206
0.165266
0.153337
0.141418
0.129508
0.117608
0.105716
0.0938327
0.0819562
0.0700868
0.0582239
0.0463671
0.0345161
0.0226705
0.0108299
-0.00100584
-0.0128371
-0.0246642
-0.0364872
-0.0483065
-0.0601222
-0.0719345
-0.0837435
-0.0955495
-0.107353
-0.119153
-0.130951
-0.142746
-0.154539
-0.16633
-0.178119
-0.189905
-0.201691
-0.213474
0.213474
1.31571
1.31571
1.24919
1.20211
1.15916
1.11951
1.08348
1.0511
1.022
0.995662
0.971551
0.949199
0.928226
0.908345
0.889339
0.871049
0.853357
0.836176
0.819438
0.803087
0.787084
0.771392
0.755982
0.74083
0.725912
0.711211
0.696709
0.682391
0.668243
0.654252
0.640407
0.626698
0.613115
0.59965
0.586294
0.57304
0.559881
0.546812
0.533825
0.520915
0.508078
0.495309
0.482603
0.469957
0.457366
0.444826
0.432336
0.419891
0.407489
0.395126
0.382801
0.370511
0.358254
0.346028
0.333831
0.321661
0.309516
0.297395
0.285296
0.273218
0.261159
0.249119
0.237096
0.22509
0.213098
0.20112
0.189156
0.177205
0.165265
0.153335
0.141417
0.129507
0.117607
0.105716
0.0938318
0.0819554
0.070086
0.0582232
0.0463665
0.0345155
0.0226699
0.0108294
-0.00100636
-0.0128376
-0.0246646
-0.0364876
-0.0483069
-0.0601225
-0.0719348
-0.0837438
-0.0955498
-0.107353
-0.119153
-0.130951
-0.142746
-0.154539
-0.16633
-0.178119
-0.189905
-0.201691
-0.213474
0.213474
1.31571
1.31571
1.24919
1.20211
1.15916
1.11951
1.08348
1.0511
1.022
0.995662
0.971551
0.949199
0.928226
0.908345
0.889339
0.871049
0.853357
0.836176
0.819438
0.803087
0.787084
0.771392
0.755982
0.74083
0.725912
0.711211
0.696709
0.682391
0.668243
0.654252
0.640407
0.626698
0.613115
0.59965
0.586294
0.57304
0.559881
0.546812
0.533825
0.520915
0.508078
0.495309
0.482603
0.469957
0.457366
0.444826
0.432336
0.419891
0.407489
0.395126
0.382801
0.370511
0.358254
0.346028
0.333831
0.321661
0.309516
0.297395
0.285296
0.273218
0.261159
0.249119
0.237096
0.22509
0.213098
0.20112
0.189156
0.177205
0.165265
0.153335
0.141417
0.129507
0.117607
0.105716
0.0938318
0.0819554
0.070086
0.0582232
0.0463665
0.0345155
0.0226699
0.0108294
-0.00100636
-0.0128376
-0.0246646
-0.0364876
-0.0483069
-0.0601225
-0.0719348
-0.0837438
-0.0955498
-0.107353
-0.119153
-0.130951
-0.142746
-0.154539
-0.16633
-0.178119
-0.189905
-0.201691
-0.213474
0.213474
SCALARS phi double
LOOKUP_TABLE phi
1
1
1
0.999995
0.999977
0.999931
0.999833
0.999655
0.999364
0.998929
0.998323
0.997523
0.996513
0.995279
0.993815
0.992118
0.990189
0.988032
0.985652
0.983059
0.980261
0.97727
0.974097
0.970755
0.967257
0.963614
0.959841
0.955949
0.951948
0.947844
0.943636
0.939313
0.934855
0.930229
0.925391
0.920289
0.914864
0.909055
0.9028
0.896042
0.888726
0.88081
0.872256
0.86304
0.853147
0.84257
0.831316
0.819397
0.806836
0.793663
0.779913
0.765625
0.750846
0.735621
0.72
0.704033
0.687771
0.671262
0.654558
0.637703
0.620745
0.603727
0.586689
0.56967
0.552706
0.53583
0.519072
0.50246
0.486019
0.469772
0.453739
0.437938
0.422384
0.407092
0.392072
0.377334
0.362887
0.348737
0.334889
0.321348
0.308115
0.295193
0.282581
0.270281
0.258291
0.246609
0.235234
0.224162
0.213391
0.202918
0.192739
0.182852
0.173251
0.163934
0.154897
0.146141
0.137643
0.129473
0.121375
0.11423
0.104895
0.104895
1
1
1
0.999995
0.999977
0.999931
0.999833
0.999655
0.999364
0.998929
0.998323
0.997523
0.996513
0.995279
0.993815
0.992118
0.990189
0.988032
0.985652
0.983059
0.980261
0.97727
0.974097
0.970755
0.967257
0.963614
0.959841
0.955949
0.951948
0.947844
0.943636
0.939313
0.934855
0.930229
0.925391
0.920289
0.914864
0.909055
0.9028
0.896042
0.888726
0.88081
0.872256
0.86304
0.853147
0.84257
0.831316
0.819397
0.806836
0.793663
0.779913
0.765625
0.750846
0.735621
0.72
0.704033
0.687771
0.671262
0.654558
0.637703
0.620745
0.603727
0.586689
0.56967
0.552706
0.53583
0.519072
0.50246
0.486019
0.469772
0.453739
0.437938
0.422384
0.407092
0.392072
0.377334
0.362887
0.348737
0.334889
0.321348
0.308115
0.295193
0.282581
0.270281
0.258291
0.246609
0.235234
0.224162
0.213391
0.202918
0.192739
0.182852
0.173251
0.163934
0.154897
0.146141
0.137643
0.129473
0.121375
0.11423
0.104895
0.104895
0.999998
1
0.999984
0.999921
0.999783
0.999536
0.999146
0.99858
0.997812
0.996819
0.99559
0.994116
0.992398
0.990437
0.98824
0.985817
0.983177
0.980333
0.977297
0.974081
0.9707
0.967166
0.963491
0.95969
0.955773
0.951752
0.947639
0.943445
0.939179
0.93485
0.930465
0.926026
0.921533
0.916976
0.912344
0.907614
0.902759
0.897746
0.892536
0.887088
0.881359
0.875305
0.868885
0.862061
0.854801
0.847074
0.83886
0.830143
0.820913
0.811168
0.800911
0.790152
0.778905
0.76719
0.755031
0.742455
0.729491
0.716172
0.702531
0.688604
0.674424
0.660029
0.645452
0.630728
0.61589
0.600972
0.586003
0.571013
0.55603
0.54108
0.526188
0.511376
0.496665
0.482075
0.467622
0.453323
0.439192
0.425242
0.411484
0.397927
0.384582
0.371453
0.358549
0.345873
0.333431
0.321224
0.309256
0.297527
0.286039
0.27479
0.263781
0.25301
0.242475
0.232174
0.222102
0.212266
0.202628
0.1933
0.183891
0.17569
0.164373
0.164373
1.00001
0.999992
0.99954
0.998615
0.997207
0.995317
0.992955
0.990145
0.986922
0.983332
0.979422
0.975241
0.970836
0.966248
0.961513
0.956664
0.951728
0.946728
0.941682
0.936608
0.931519
0.926427
0.92134
0.916268
0.911216
0.906189
0.901193
0.896232
0.891307
0.886422
0.881579
0.876779
0.87202
0.867302
0.862621
0.85797
0.85334
0.848719
0.844093
0.839441
0.834743
0.829976
0.825113
0.820129
0.814994
0.809683
0.804168
0.798425
0.79243
0.786163
0.779606
0.772745
0.765567
0.758066
0.750235
0.742074
0.733584
0.724769
0.715638
0.7062
0.696466
0.686452
0.676171
0.665642
0.654882
0.643911
0.632746
0.621409
0.609918
0.598294
0.586557
0.574725
0.562817
0.550852
0.538848
0.52682
0.514785
0.502759
0.490755
0.478787
0.466868
0.455009
0.443221
0.431513
0.419895
0.408375
0.39696
0.385656
0.374468
0.363402
0.35246
0.341646
0.330962
0.320411
0.309987
0.299707
0.28952
0.27958
0.269385
0.26053
0.247885
0.247885
1.00143
0.99857
0.991253
0.98188
0.971566
0.96086
0.950051
0.939311
0.928756
0.918468
0.908503
0.898898
0.889671
0.880827
0.87236
0.864261
0.856513
0.849098
0.841997
0.835192
0.828664
0.822396
0.816369
0.810569
0.80498
0.799588
0.794382
0.789348
0.784477
0.779758
0.775181
0.770738
0.766422
0.762223
0.758135
0.754151
0.750262
0.74646
0.742737
0.739084
0.735489
0.731941
0.728428
0.724935
0.721447
0.71795
0.714426
0.710858
0.70723
0.703524
0.699723
0.69581
0.69177
0.687587
0.683248
0.678741
0.674053
0.669177
0.664102
0.658823
0.653335
0.647635
0.64172
0.635591
0.629248
0.622694
0.615932
0.608968
0.601807
0.594455
0.58692
0.57921
0.571333
0.563299
0.555116
0.546795
0.538345
0.529775
0.521095
0.512316
0.503446
0.494496
0.485473
0.476387
0.467246
0.458059
0.448833
0.439575
0.430292
0.420991
0.411678
0.402357
0.393033
0.383712
0.374391
0.365091
0.355759
0.346563
0.336981
0.328649
0.316428
0.316428
1.0456
0.954401
0.887723
0.838673
0.801641
0.772861
0.749886
0.731119
0.715499
0.702298
0.691001
0.681228
0.672693
0.665173
0.658493
0.652515
0.647126
0.642236
0.637772
0.633673
0.629891
0.626382
0.623115
0.620059
0.61719
0.614489
0.611936
0.609518
0.607221
0.605034
0.602947
0.600951
0.599038
0.597202
0.595436
0.593736
0.592095
0.59051
0.588975
0.587485
0.586037
0.584626
0.583245
0.581891
0.580557
0.579236
0.577922
0.576608
0.575286
0.573947
0.572582
0.571183
0.569741
0.568245
0.566686
0.565054
0.56334
0.561534
0.559627
0.557611
0.555476
0.553215
0.550821
0.548286
0.545606
0.542773
0.539784
0.536634
0.53332
0.529839
0.526189
0.522368
0.518376
0.514212
0.509877
0.505371
0.500695
0.495852
0.490842
0.48567
0.480336
0.474845
0.469199
0.463403
0.457459
0.451371
0.445144
0.438781
0.432286
0.425664
0.418917
0.412052
0.405069
0.397976
0.390769
0.383468
0.376025
0.368596
0.360708
0.353823
0.343433
0.343433
-0.0455988
0.0455988
0.112277
0.161326
0.198359
0.227139
0.250114
0.268881
0.284501
0.297702
0.308999
0.318772
0.327307
0.334827
0.341507
0.347485
0.352874
0.357764
0.362228
0.366327
0.370109
0.373618
0.376885
0.379941
0.38281
0.385511
0.388064
0.390482
0.392779
0.394966
0.397053
0.39905
0.400962
0.402798
0.404563
0.406263
0.407903
0.409486
0.411016
0.412498
0.413933
0.415324
0.416674
0.417983
0.419254
0.420487
0.421682
0.422839
0.423958
0.425037
0.426075
0.42707
0.428018
0.428917
0.429764
0.430554
0.431282
0.431944
0.432535
0.433049
0.43348
0.433823
0.434071
0.434218
0.434258
0.434183
0.433989
0.433668
0.433215
0.432622
0.431886
0.430999
0.429956
0.428752
0.427383
0.425844
0.42413
0.422238
0.420165
0.417906
0.415461
0.412825
0.409998
0.406978
0.403764
0.400354
0.39675
0.392951
0.388957
0.38477
0.38039