# vtk DataFile Version 3.0
FlowField
ASCII
DATASET STRUCTURED_GRID
DIMENSIONS 22 17 12 
POINTS 4488 double
0 0 0
5 0 0
10 0 0
15 0 0
20 0 0
25 0 0
30 0 0
35 0 0
40 0 0
45 0 0
50 0 0
55 0 0
60 0 0
65 0 0
70 0 0
75 0 0
80 0 0
85 0 0
90 0 0
95 0 0
100 0 0
105 0 0
0 1 0
5 1 0
10 1 0
15 1 0
20 1 0
25 1 0
30 1 0
35 1 0
40 1 0
45 1 0
50 1 0
55 1 0
60 1 0
65 1 0
70 1 0
75 1 0
80 1 0
85 1 0
90 1 0
95 1 0
100 1 0
105 1 0
0 2 0
5 2 0
10 2 0
15 2 0
20 2 0
25 2 0
30 2 0
35 2 0
40 2 0
45 2 0
50 2 0
55 2 0
60 2 0
65 2 0
70 2 0
75 2 0
80 2 0
85 2 0
90 2 0
95 2 0
100 2 0
105 2 0
0 3 0
5 3 0
10 3 0
15 3 0
20 3 0
25 3 0
30 3 0
35 3 0
40 3 0
45 3 0
50 3 0
55 3 0
60 3 0
65 3 0
70 3 0
75 3 0
80 3 0
85 3 0
90 3 0
95 3 0
100 3 0
105 3 0
0 4 0
5 4 0
10 4 0
15 4 0
20 4 0
25 4 0
30 4 0
35 4 0
40 4 0
45 4 0
50 4 0
55 4 0
60 4 0
65 4 0
70 4 0
75 4 0
80 4 0
85 4 0
90 4 0
95 4 0
100 4 0
105 4 0
0 5 0
5 5 0
10 5 0
15 5 0
20 5 0
25 5 0
30 5 0
35 5 0
40 5 0
45 5 0
50 5 0
55 5 0
60 5 0
65 5 0
70 5 0
75 5 0
80 5 0
85 5 0
90 5 0
95 5 0
100 5 0
105 5 0
0 6 0
5 6 0
10 6 0
15 6 0
20 6 0
25 6 0
30 6 0
35 6 0
40 6 0
45 6 0
50 6 0
55 6 0
60 6 0
65 6 0
70 6 0
75 6 0
80 6 0
85 6 0
90 6 0
95 6 0
100 6 0
105 6 0
0 7 0
5 7 0
10 7 0
15 7 0
20 7 0
25 7 0
30 7 0
35 7 0
40 7 0
45 7 0
50 7 0
55 7 0
60 7 0
65 7 0
70 7 0
75 7 0
80 7 0
85 7 0
90 7 0
95 7 0
100 7 0
105 7 0
0 8 0
5 8 0
10 8 0
15 8 0
20 8 0
25 8 0
30 8 0
35 8 0
40 8 0
45 8 0
50 8 0
55 8 0
60 8 0
65 8 0
70 8 0
75 8 0
80 8 0
85 8 0
90 8 0
95 8 0
100 8 0
105 8 0
0 9 0
5 9 0
10 9 0
15 9 0
20 9 0
25 9 0
30 9 0
35 9 0
40 9 0
45 9 0
50 9 0
55 9 0
60 9 0
65 9 0
70 9 0
75 9 0
80 9 0
85 9 0
90 9 0
95 9 0
100 9 0
105 9 0
0 10 0
5 10 0
10 10 0
15 10 0
20 10 0
25 10 0
30 10 0
35 10 0
40 10 0
45 10 0
50 10 0
55 10 0
60 10 0
65 10 0
70 10 0
75 10 0
80 10 0
85 10 0
90 10 0
95 10 0
100 10 0
105 10 0
0 11 0
5 11 0
10 11 0
15 11 0
20 11 0
25 11 0
30 11 0
35 11 0
40 11 0
45 11 0
50 11 0
55 11 0
60 11 0
65 11 0
70 11 0
75 11 0
80 11 0
85 11 0
90 11 0
95 11 0
100 11 0
105 11 0
0 12 0
5 12 0
10 12 0
15 12 0
20 12 0
25 12 0
30 12 0
35 12 0
40 12 0
45 12 0
50 12 0
55 12 0
60 12 0
65 12 0
70 12 0
75 12 0
80 12 0
85 12 0
90 12 0
95 12 0
100 12 0
105 12 0
0 13 0
5 13 0
10 13 0
15 13 0
20 13 0
25 13 0
30 13 0
35 13 0
40 13 0
45 13 0
50 13 0
55 13 0
60 13 0
65 13 0
70 13 0
75 13 0
80 13 0
85 13 0
90 13 0
95 13 0
100 13 0
105 13 0
0 14 0
5 14 0
10 14 0
15 14 0
20 14 0
25 14 0
30 14 0
35 14 0
40 14 0
45 14 0
50 14 0
55 14 0
60 14 0
65 14 0
70 14 0
75 14 0
80 14 0
85 14 0
90 14 0
95 14 0
100 14 0
105 14 0
0 15 0
5 15 0
10 15 0
15 15 0
20 15 0
25 15 0
30 15 0
35 15 0
40 15 0
45 15 0
50 15 0
55 15 0
60 15 0
65 15 0
70 15 0
75 15 0
80 15 0
85 15 0
90 15 0
95 15 0
100 15 0
105 15 0
0 16 0
5 16 0
10 16 0
15 16 0
20 16 0
25 16 0
30 16 0
35 16 0
40 16 0
45 16 0
50 16 0
55 16 0
60 16 0
65 16 0
70 16 0
75 16 0
80 16 0
85 16 0
90 16 0
95 16 0
100 16 0
105 16 0
0 0 1
5 0 1
10 0 1
15 0 1
20 0 1
25 0 1
30 0 1
35 0 1
40 0 1
45 0 1
50 0 1
55 0 1
60 0 1
65 0 1
70 0 1
75 0 1
80 0 1
85 0 1
90 0 1
95 0 1
100 0 1
105 0 1
0 1 1
5 1 1
10 1 1
15 1 1
20 1 1
25 1 1
30 1 1
35 1 1
40 1 1
45 1 1
50 1 1
55 1 1
60 1 1
65 1 1
70 1 1
75 1 1
80 1 1
85 1 1
90 1 1
95 1 1
100 1 1
105 1 1
0 2 1
5 2 1
10 2 1
15 2 1
20 2 1
25 2 1
30 2 1
35 2 1
40 2 1
45 2 1
50 2 1
55 2 1
60 2 1
65 2 1
70 2 1
75 2 1
80 2 1
85 2 1
90 2 1
95 2 1
100 2 1
105 2 1
0 3 1
5 3 1
10 3 1
15 3 1
20 3 1
25 3 1
30 3 1
35 3 1
40 3 1
45 3 1
50 3 1
55 3 1
60 3 1
65 3 1
70 3 1
75 3 1
80 3 1
85 3 1
90 3 1
95 3 1
100 3 1
105 3 1
0 4 1
5 4 1
10 4 1
15 4 1
20 4 1
25 4 1
30 4 1
35 4 1
40 4 1
45 4 1
50 4 1
55 4 1
60 4 1
65 4 1
70 4 1
75 4 1
80 4 1
85 4 1
90 4 1
95 4 1
100 4 1
105 4 1
0 5 1
5 5 1
10 5 1
15 5 1
20 5 1
25 5 1
30 5 1
35 5 1
40 5 1
45 5 1
50 5 1
55 5 1
60 5 1
65 5 1
70 5 1
75 5 1
80 5 1
85 5 1
90 5 1
95 5 1
100 5 1
105 5 1
0 6 1
5 6 1
10 6 1
15 6 1
20 6 1
25 6 1
30 6 1
35 6 1
40 6 1
45 6 1
50 6 1
55 6 1
60 6 1
65 6 1
70 6 1
75 6 1
80 6 1
85 6 1
90 6 1
95 6 1
100 6 1
105 6 1
0 7 1
5 7 1
10 7 1
15 7 1
20 7 1
25 7 1
30 7 1
35 7 1
40 7 1
45 7 1
50 7 1
55 7 1
60 7 1
65 7 1
70 7 1
75 7 1
80 7 1
85 7 1
90 7 1
95 7 1
100 7 1
105 7 1
0 8 1
5 8 1
10 8 1
15 8 1
20 8 1
25 8 1
30 8 1
35 8 1
40 8 1
45 8 1
50 8 1
55 8 1
60 8 1
65 8 1
70 8 1
75 8 1
80 8 1
85 8 1
90 8 1
95 8 1
100 8 1
105 8 1
0 9 1
5 9 1
10 9 1
15 9 1
20 9 1
25 9 1
30 9 1
35 9 1
40 9 1
45 9 1
50 9 1
55 9 1
60 9 1
65 9 1
70 9 1
75 9 1
80 9 1
85 9 1
90 9 1
95 9 1
100 9 1
105 9 1
0 10 1
5 10 1
10 10 1
15 10 1
20 10 1
25 10 1
30 10 1
35 10 1
40 10 1
45 10 1
50 10 1
55 10 1
60 10 1
65 10 1
70 10 1
75 10 1
80 10 1
85 10 1
90 10 1
95 10 1
100 10 1
105 10 1
0 11 1
5 11 1
10 11 1
15 11 1
20 11 1
25 11 1
30 11 1
35 11 1
40 11 1
45 11 1
50 11 1
55 11 1
60 11 1
65 11 1
70 11 1
75 11 1
80 11 1
85 11 1
90 11 1
95 11 1
100 11 1
105 11 1
0 12 1
5 12 1
10 12 1
15 12 1
20 12 1
25 12 1
30 12 1
35 12 1
40 12 1
45 12 1
50 12 1
55 12 1
60 12 1
65 12 1
70 12 1
75 12 1
80 12 1
85 12 1
90 12 1
95 12 1
100 12 1
105 12 1
0 13 1
5 13 1
10 13 1
15 13 1
20 13 1
25 13 1
30 13 1
35 13 1
40 13 1
45 13 1
50 13 1
55 13 1
60 13 1
65 13 1
70 13 1
75 13 1
80 13 1
85 13 1
90 13 1
95 13 1
100 13 1
105 13 1
0 14 1
5 14 1
10 14 1
15 14 1
20 14 1
25 14 1
30 14 1
35 14 1
40 14 1
45 14 1
50 14 1
55 14 1
60 14 1
65 14 1
70 14 1
75 14 1
80 14 1
85 14 1
90 14 1
95 14 1
100 14 1
105 14 1
0 15 1
5 15 1
10 15 1
15 15 1
20 15 1
25 15 1
30 15 1
35 15 1
40 15 1
45 15 1
50 15 1
55 15 1
60 15 1
65 15 1
70 15 1
75 15 1
80 15 1
85 15 1
90 15 1
95 15 1
100 15 1
105 15 1
0 16 1
5 16 1
10 16 1
15 16 1
20 16 1
25 16 1
30 16 1
35 16 1
40 16 1
45 16 1
50 16 1
55 16 1
60 16 1
65 16 1
70 16 1
75 16 1
80 16 1
85 16 1
90 16 1
95 16 1
100 16 1
105 16 1
0 0 2
5 0 2
10 0 2
15 0 2
20 0 2
25 0 2
30 0 2
35 0 2
40 0 2
45 0 2
50 0 2
55 0 2
60 0 2
65 0 2
70 0 2
75 0 2
80 0 2
85 0 2
90 0 2
95 0 2
100 0 2
105 0 2
0 1 2
5 1 2
10 1 2
15 1 2
20 1 2
25 1 2
30 1 2
35 1 2
40 1 2
45 1 2
50 1 2
55 1 2
60 1 2
65 1 2
70 1 2
75 1 2
80 1 2
85 1 2
90 1 2
95 1 2
100 1 2
105 1 2
0 2 2
5 2 2
10 2 2
15 2 2
20 2 2
25 2 2
30 2 2
35 2 2
40 2 2
45 2 2
50 2 2
55 2 2
60 2 2
65 2 2
70 2 2
75 2 2
80 2 2
85 2 2
90 2 2
95 2 2
100 2 2
105 2 2
0 3 2
5 3 2
10 3 2
15 3 2
20 3 2
25 3 2
30 3 2
35 3 2
40 3 2
45 3 2
50 3 2
55 3 2
60 3 2
65 3 2
70 3 2
75 3 2
80 3 2
85 3 2
90 3 2
95 3 2
100 3 2
105 3 2
0 4 2
5 4 2
10 4 2
15 4 2
20 4 2
25 4 2
30 4 2
35 4 2
40 4 2
45 4 2
50 4 2
55 4 2
60 4 2
65 4 2
70 4 2
75 4 2
80 4 2
85 4 2
90 4 2
95 4 2
100 4 2
105 4 2
0 5 2
5 5 2
10 5 2
15 5 2
20 5 2
25 5 2
30 5 2
35 5 2
40 5 2
45 5 2
50 5 2
55 5 2
60 5 2
65 5 2
70 5 2
75 5 2
80 5 2
85 5 2
90 5 2
95 5 2
100 5 2
105 5 2
0 6 2
5 6 2
10 6 2
15 6 2
20 6 2
25 6 2
30 6 2
35 6 2
40 6 2
45 6 2
50 6 2
55 6 2
60 6 2
65 6 2
70 6 2
75 6 2
80 6 2
85 6 2
90 6 2
95 6 2
100 6 2
105 6 2
0 7 2
5 7 2
10 7 2
15 7 2
20 7 2
25 7 2
30 7 2
35 7 2
40 7 2
45 7 2
50 7 2
55 7 2
60 7 2
65 7 2
70 7 2
75 7 2
80 7 2
85 7 2
90 7 2
95 7 2
100 7 2
105 7 2
0 8 2
5 8 2
10 8 2
15 8 2
20 8 2
25 8 2
30 8 2
35 8 2
40 8 2
45 8 2
50 8 2
55 8 2
60 8 2
65 8 2
70 8 2
75 8 2
80 8 2
85 8 2
90 8 2
95 8 2
100 8 2
105 8 2
0 9 2
5 9 2
10 9 2
15 9 2
20 9 2
25 9 2
30 9 2
35 9 2
40 9 2
45 9 2
50 9 2
55 9 2
60 9 2
65 9 2
70 9 2
75 9 2
80 9 2
85 9 2
90 9 2
95 9 2
100 9 2
105 9 2
0 10 2
5 10 2
10 10 2
15 10 2
20 10 2
25 10 2
30 10 2
35 10 2
40 10 2
45 10 2
50 10 2
55 10 2
60 10 2
65 10 2
70 10 2
75 10 2
80 10 2
85 10 2
90 10 2
95 10 2
100 10 2
105 10 2
0 11 2
5 11 2
10 11 2
15 11 2
20 11 2
25 11 2
30 11 2
35 11 2
40 11 2
45 11 2
50 11 2
55 11 2
60 11 2
65 11 2
70 11 2
75 11 2
80 11 2
85 11 2
90 11 2
95 11 2
100 11 2
105 11 2
0 12 2
5 12 2
10 12 2
15 12 2
20 12 2
25 12 2
30 12 2
35 12 2
40 12 2
45 12 2
50 12 2
55 12 2
60 12 2
65 12 2
70 12 2
75 12 2
80 12 2
85 12 2
90 12 2
95 12 2
100 12 2
105 12 2
0 13 2
5 13 2
10 13 2
15 13 2
20 13 2
25 13 2
30 13 2
35 13 2
40 13 2
45 13 2
50 13 2
55 13 2
60 13 2
65 13 2
70 13 2
75 13 2
80 13 2
85 13 2
90 13 2
95 13 2
100 13 2
105 13 2
0 14 2
5 14 2
10 14 2
15 14 2
20 14 2
25 14 2
30 14 2
35 14 2
40 14 2
45 14 2
50 14 2
55 14 2
60 14 2
65 14 2
70 14 2
75 14 2
80 14 2
85 14 2
90 14 2
95 14 2
100 14 2
105 14 2
0 15 2
5 15 2
10 15 2
15 15 2
20 15 2
25 15 2
30 15 2
35 15 2
40 15 2
45 15 2
50 15 2
55 15 2
60 15 2
65 15 2
70 15 2
75 15 2
80 15 2
85 15 2
90 15 2
95 15 2
100 15 2
105 15 2
0 16 2
5 16 2
10 16 2
15 16 2
20 16 2
25 16 2
30 16 2
35 16 2
40 16 2
45 16 2
50 16 2
55 16 2
60 16 2
65 16 2
70 16 2
75 16 2
80 16 2
85 16 2
90 16 2
95 16 2
100 16 2
105 16 2
0 0 3
5 0 3
10 0 3
15 0 3
20 0 3
25 0 3
30 0 3
35 0 3
40 0 3
45 0 3
50 0 3
55 0 3
60 0 3
65 0 3
70 0 3
75 0 3
80 0 3
85 0 3
90 0 3
95 0 3
100 0 3
105 0 3
0 1 3
5 1 3
10 1 3
15 1 3
20 1 3
25 1 3
30 1 3
35 1 3
40 1 3
45 1 3
50 1 3
55 1 3
60 1 3
65 1 3
70 1 3
75 1 3
80 1 3
85 1 3
90 1 3
95 1 3
100 1 3
105 1 3
0 2 3
5 2 3
10 2 3
15 2 3
20 2 3
25 2 3
30 2 3
35 2 3
40 2 3
45 2 3
50 2 3
55 2 3
60 2 3
65 2 3
70 2 3
75 2 3
80 2 3
85 2 3
90 2 3
95 2 3
100 2 3
105 2 3
0 3 3
5 3 3
10 3 3
15 3 3
20 3 3
25 3 3
30 3 3
35 3 3
40 3 3
45 3 3
50 3 3
55 3 3
60 3 3
65 3 3
70 3 3
75 3 3
80 3 3
85 3 3
90 3 3
95 3 3
100 3 3
105 3 3
0 4 3
5 4 3
10 4 3
15 4 3
20 4 3
25 4 3
30 4 3
35 4 3
40 4 3
45 4 3
50 4 3
55 4 3
60 4 3
65 4 3
70 4 3
75 4 3
80 4 3
85 4 3
90 4 3
95 4 3
100 4 3
105 4 3
0 5 3
5 5 3
10 5 3
15 5 3
20 5 3
25 5 3
30 5 3
35 5 3
40 5 3
45 5 3
50 5 3
55 5 3
60 5 3
65 5 3
70 5 3
75 5 3
80 5 3
85 5 3
90 5 3
95 5 3
100 5 3
105 5 3
0 6 3
5 6 3
10 6 3
15 6 3
20 6 3
25 6 3
30 6 3
35 6 3
40 6 3
45 6 3
50 6 3
55 6 3
60 6 3
65 6 3
70 6 3
75 6 3
80 6 3
85 6 3
90 6 3
95 6 3
100 6 3
105 6 3
0 7 3
5 7 3
10 7 3
15 7 3
20 7 3
25 7 3
30 7 3
35 7 3
40 7 3
45 7 3
50 7 3
55 7 3
60 7 3
65 7 3
70 7 3
75 7 3
80 7 3
85 7 3
90 7 3
95 7 3
100 7 3
105 7 3
0 8 3
5 8 3
10 8 3
15 8 3
20 8 3
25 8 3
30 8 3
35 8 3
40 8 3
45 8 3
50 8 3
55 8 3
60 8 3
65 8 3
70 8 3
75 8 3
80 8 3
85 8 3
90 8 3
95 8 3
100 8 3
105 8 3
0 9 3
5 9 3
10 9 3
15 9 3
20 9 3
25 9 3
30 9 3
35 9 3
40 9 3
45 9 3
50 9 3
55 9 3
60 9 3
65 9 3
70 9 3
75 9 3
80 9 3
85 9 3
90 9 3
95 9 3
100 9 3
105 9 3
0 10 3
5 10 3
10 10 3
15 10 3
[...]
POINT_DATA 4488

SCALARS pressure double
LOOKUP_TABLE pressure
0
0
0
0
0
0
0
0
0
0
0
0
0
0
0
0
0
0
0
0
0
0
0
8.9444
8.92797
8.85303
8.67105
8.38182
9.18218
9.82141
10.3407
10.7736
11.1674
11.596
12.0516
10.7597
10.6266
10.2267
9.65719
9.02539
8.45632
8.05136
7.75698
0
0
8.94445
8.92894
8.85923
8.67312
8.40542
9.19081
9.82483
10.3412
10.7733
11.1645
11.5926
11.999
10.7127
10.6149
10.2279
9.637
9.02266
8.45248
8.05165
7.76044
0
0
8.94489
8.932
8.85715
8.68734
8.44013
9.15651
9.83328
10.3431
10.7719
11.1615
11.593
12.0788
10.6071
10.6092
10.2321
9.85438
9.01799
8.44187
8.04882
7.76368
0
0
8.9457
8.93662
8.86285
8.6979
8.13202
9.17451
9.84772
10.3496
10.7707
11.1579
11.5955
12.0166
10.447
10.6147
10.2372
9.84946
9.00041
8.42377
8.04283
7.76677
0
0
8.94679
8.94295
8.94508
8.71402
8.08926
9.20894
9.86724
10.3552
10.7695
11.1536
11.5983
12.9276
10.2925
10.6429
10.2539
9.87996
8.97058
8.39752
8.03357
7.76979
0
0
8.94797
8.94908
8.95084
8.75024
7.96618
9.25717
9.89147
10.3625
10.7705
11.1459
11.5704
12.5202
10.4719
10.693
10.3276
9.94037
8.92474
8.35196
8.02086
7.77286
0
0
8.94907
8.95502
8.96383
8.79864
7.73825
9.32603
9.92014
10.3704
10.7715
11.1374
11.5279
12.1822
10.6778
10.7698
10.4134
10.0337
8.85657
8.30299
8.00503
7.77615
0
0
8.94992
8.96078
8.98363
8.87336
7.3893
9.43044
9.95258
10.3848
10.7729
11.1286
11.4813
11.9244
10.8456
10.8682
10.4988
10.1679
8.75576
8.23854
7.98598
7.77986
0
0
8.95035
8.96604
9.00875
8.99491
6.87844
9.59537
9.98675
10.3939
10.7745
11.1205
11.4369
11.7399
10.9726
10.996
10.5711
10.3582
8.60577
8.15622
7.96626
7.78424
0
0
8.95016
8.97023
9.03638
9.17426
11.293
9.8063
10.0172
10.4038
10.7765
11.1138
11.3975
11.6116
11.066
11.0182
10.7615
10.6308
8.37824
8.05263
7.94254
7.78951
0
0
8.94919
8.97265
9.06177
9.29807
10.9761
9.89822
10.0545
10.4134
10.7789
11.1088
11.3644
11.5236
11.1354
11.0607
10.9424
11.0193
8.01624
7.9235
7.91828
7.79601
0
0
8.94732
8.97271
9.08223
9.36778
10.6644
9.94436
10.0823
10.4215
10.7816
11.1047
11.339
11.4643
11.1868
11.1119
11.116
11.5789
7.48364
7.76998
7.89546
7.8041
0
0
8.94449
8.97077
9.09656
9.40333
10.4302
9.96389
10.1022
10.4365
10.7849
11.1039
11.3188
11.4254
11.2278
11.1627
11.4784
12.3908
6.70228
7.59514
7.87732
7.81411
0
0
8.94072
8.97196
9.10342
9.41796
10.279
9.96829
10.1154
10.4419
10.7883
11.0993
11.3105
11.4011
11.2625
11.2697
11.6666
13.5487
5.56312
7.40795
7.86883
7.82639
0
0
8.93577
8.9705
9.10432
9.4191
10.2076
9.96341
10.1228
10.4465
10.7921
11.0985
11.3062
11.3872
11.2921
11.3083
11.8514
15.1758
3.97335
7.22823
7.87771
7.84116
0
0
0
0
0
0
0
0
0
0
0
0
0
0
0
0
0
0
0
0
0
0
0
0
8.9444
8.92797
8.85303
8.67105
8.38182
9.18218
9.82141
10.3407
10.7736
11.1674
11.596
12.0516
10.7597
10.6266
10.2267
9.65719
9.02539
8.45632
8.05136
7.75698
0
-8.9444
8.9444
8.92797
8.85303
8.67105
8.38182
9.18218
9.82141
10.3407
10.7736
11.1674
11.596
12.0516
10.7597
10.6266
10.2267
9.65719
9.02539
8.45632
8.05136
7.75698
7.75698
0.000967093
8.94445
8.92894
8.85923
8.67312
8.40542
9.19081
9.82483
10.3412
10.7733
11.1645
11.5926
11.999
10.7127
10.6149
10.2279
9.637
9.02266
8.45248
8.05165
7.76044
7.76044
-8.94489
8.94489
8.932
8.85715
8.68734
8.44013
9.15651
9.83328
10.3431
10.7719
11.1615
11.593
12.0788
10.6071
10.6092
10.2321
9.85438
9.01799
8.44187
8.04882
7.76368
7.76368
-8.9457
8.9457
8.93662
8.86285
8.6979
8.13202
9.17451
9.84772
10.3496
10.7707
11.1579
11.5955
12.0166
10.447
10.6147
10.2372
9.84946
9.00041
8.42377
8.04283
7.76677
7.76677
-8.94679
8.94679
8.94295
8.94508
8.71402
8.08926
9.20894
9.86724
10.3552
10.7695
11.1536
11.5983
12.9276
10.2925
10.6429
10.2539
9.87996
8.97058
8.39752
8.03357
7.76979
7.76979
-8.94797
8.94797
8.94908
8.95084
8.75024
7.96618
9.25717
9.89147
10.3625
10.7705
11.1459
11.5704
12.5202
10.4719
10.693
10.3276
9.94037
8.92474
8.35196
8.02086
7.77286
7.77286
-8.94907
8.94907
8.95502
8.96383
8.79864
7.73825
9.32603
9.92014
10.3704
10.7715
11.1374
11.5279
12.1822
10.6778
10.7698
10.4134
10.0337
8.85657
8.30299
8.00503
7.77615
7.77615
-8.94992
8.94992
8.96078
8.98363
8.87336
7.3893
9.43044
9.95258
10.3848
10.7729
11.1286
11.4813
11.9244
10.8456
10.8682
10.4988
10.1679
8.75576
8.23854
7.98598
7.77986
7.77986
-8.95035
8.95035
8.96604
9.00875
8.99491
6.87844
9.59537
9.98675
10.3939
10.7745
11.1205
11.4369
11.7399
10.9726
10.996
10.5711
10.3582
8.60577
8.15622
7.96626
7.78424
7.78424
-8.95016
8.95016
8.97023
9.03638
9.17426
11.293
9.8063
10.0172
10.4038
10.7765
11.1138
11.3975
11.6116
11.066
11.0182
10.7615
10.6308
8.37824
8.05263
7.94254
7.78951
7.78951
-8.94919
8.94919
8.97265
9.06177
9.29807
10.9761
9.89822
10.0545
10.4134
10.7789
11.1088
11.3644
11.5236
11.1354
11.0607
10.9424
11.0193
8.01624
7.9235
7.91828
7.79601
7.79601
-8.94732
8.94732
8.97271
9.08223
9.36778
10.6644
9.94436
10.0823
10.4215
10.7816
11.1047
11.339
11.4643
11.1868
11.1119
11.116
11.5789
7.48364
7.76998
7.89546
7.8041
7.8041
-8.94449
8.94449
8.97077
9.09656
9.40333
10.4302
9.96389
10.1022
10.4365
10.7849
11.1039
11.3188
11.4254
11.2278
11.1627
11.4784
12.3908
6.70228
7.59514
7.87732
7.81411
7.81411
-8.94072
8.94072
8.97196
9.10342
9.41796
10.279
9.96829
10.1154
10.4419
10.7883
11.0993
11.3105
11.4011
11.2625
11.2697
11.6666
13.5487
5.56312
7.40795
7.86883
7.82639
7.82639
-8.93577
8.93577
8.9705
9.10432
9.4191
10.2076
9.96341
10.1228
10.4465
10.7921
11.0985
11.3062
11.3872
11.2921
11.3083
11.8514
15.1758
3.97335
7.22823
7.87771
7.84116
7.84116
0
8.93577
8.9705
9.10432
9.4191
10.2076
9.96341
10.1228
10.4465
10.7921
11.0985
11.3062
11.3872
11.2921
11.3083
11.8514
15.1758
3.97335
7.22823
7.87771
7.84116
0
0
8.94236
8.93054
8.8661
8.73283
8.57162
9.20796
9.82861
10.3456
10.7801
11.1661
11.5733
12.4086
10.8815
10.6527
10.2501
9.708
9.04655
8.4758
8.06955
7.77408
0
-8.94236
8.94236
8.93054
8.8661
8.73283
8.57162
9.20796
9.82861
10.3456
10.7801
11.1661
11.5733
12.4086
10.8815
10.6527
10.2501
9.708
9.04655
8.4758
8.06955
7.77408
7.77408
-8.94246
8.94246
8.93576
8.87001
8.73096
8.6392
9.21377
9.82574
10.3466
10.7775
11.1628
11.5667
12.0629
10.8534
10.6499
10.2508
9.72574
9.0441
8.4722
8.06995
7.77755
7.77755
-8.94291
8.94291
8.93399
8.87581
8.73713
8.55262
9.21292
9.84205
10.3494
10.776
11.16
11.5619
11.989
10.8237
10.652
10.2504
9.80119
9.03744
8.46204
8.06738
7.78084
7.78084
-8.94372
8.94372
8.93685
8.89023
8.74752
8.4275
9.22891
9.85815
10.3545
10.7751
11.1562
11.5584
12.007
10.853
10.6643
10.2366
9.83686
9.02168
8.44454
8.0618
7.78401
7.78401
-8.94479
8.94479
8.94197
8.92382
8.76673
8.36284
9.25986
9.87747
10.3606
10.7747
11.1513
11.5525
12.2206
10.7141
10.689
10.1693
9.87721
8.9949
8.41839
8.05314
7.78714
7.78714
-8.94595
8.94595
8.94766
8.94304
8.79969
8.29777
9.30573
9.90075
10.3682
10.7753
11.1448
11.5306
12.121
10.7524
10.7337
10.3263
9.93969
8.95393
8.38076
8.04137
7.79035
7.79035
-8.94705
8.94705
8.95346
8.96149
8.84831
8.23176
9.37088
9.92794
10.377
10.7762
11.1372
11.4977
11.9543
10.8476
10.7968
10.4319
10.0278
8.89374
8.3339
8.02671
7.79381
7.79381
-8.94791
8.94791
8.95913
8.98284
8.92023
8.23068
9.46317
9.95842
10.388
10.7776
11.1294
11.4607
11.7965
10.9473
10.873
10.5285
10.15
8.80712
8.27449
8.00938
7.79771
7.79771
-8.94834
8.94834
8.96425
9.00722
9.0241
8.50177
9.58928
9.99067
10.3982
10.7793
11.122
11.4242
11.6689
11.0346
10.9537
10.633
10.3187
8.68564
8.20055
7.99014
7.8023
7.8023
-8.94816
8.94816
8.96823
9.03285
9.15608
9.86239
9.73545
10.0224
10.4083
10.7814
11.1156
11.3912
11.573
11.1072
11.0081
10.7778
10.552
8.52657
8.11158
7.96882
7.8078
7.8078
-8.9472
8.9472
8.97014
9.05664
9.25865
10.2038
9.83062
10.0533
10.4181
10.7838
11.1104
11.3633
11.5037
11.1714
11.0614
10.9396
10.8725
8.20167
7.99432
7.94683
7.81454
7.81454
-8.94532
8.94532
8.96833
9.07702
9.32512
10.2169
9.8864
10.0787
10.4274
10.7867
11.1067
11.3413
11.4553
11.2075
11.1171
11.1197
11.312
7.7827
7.8617
7.92625
7.82282
7.82282
-8.94248
8.94248
8.95823
9.09534
9.36335
10.1487
9.91558
10.0977
10.4373
10.7899
11.1045
11.3251
11.4228
11.2419
11.176
11.3456
11.9063
7.2187
7.71652
7.90969
7.83299
7.83299
-8.93875
8.93875
8.96745
9.09719
9.3815
10.074
9.92756
10.1107
10.4441
10.7934
11.1028
11.3158
11.4023
11.273
11.2438
11.5316
12.6783
6.48107
7.56869
7.90035
7.84533
7.84533
-8.93383
8.93383
8.96782
9.09673
9.38564
10.0086
9.92809
10.1183
10.4492
10.7972
11.1032
11.3115
11.3906
11.3007
11.2912
11.6899
13.597
5.60215
7.43802
7.90088
7.86004
7.86004
0
8.93383
8.96782
9.09673
9.38564
10.0086
9.92809
10.1183
10.4492
10.7972
11.1032
11.3115
11.3906
11.3007
11.2912
11.6899
13.597
5.60215
7.43802
7.90088
7.86004
0
0
8.94028
8.92992
8.87812
8.77933
8.65828
9.2275
9.84125
10.3519
10.7827
11.1628
11.5394
12.0303
10.9672
10.6857
10.2773
9.74686
9.06905
8.49718
8.08906
7.79197
0
-8.94028
8.94028
8.92992
8.87812
8.77933
8.65828
9.2275
9.84125
10.3519
10.7827
11.1628
11.5394
12.0303
10.9672
10.6857
10.2773
9.74686
9.06905
8.49718
8.08906
7.79197
7.79197
-8.94039
8.94039
8.93188
8.88172
8.7798
8.70443
9.23923
9.84421
10.3526
10.7808
11.1598
11.5331
11.9209
10.9536
10.6866
10.2795
9.76357
9.0668
8.49394
8.08962
7.79545
7.79545
-8.94086
8.94086
8.93328
8.88905
8.78441
8.66901
9.25314
9.8551
10.3554
10.7796
11.1565
11.5264
11.8682
10.9396
10.6926
10.2836
9.80091
9.05993
8.48457
8.08741
7.7988
7.7988
-8.94166
8.94166
8.93639
8.90228
8.79529
8.61731
9.27464
9.86988
10.36
10.779
11.1526
11.5194
11.8669
10.9348
10.7068
10.2882
9.83675
9.04591
8.46842
8.0824
7.80207
7.80207
-8.94272
8.94272
8.941
8.92248
8.81546
8.58463
9.30652
9.88831
10.3661
10.7789
11.1478
11.5095
11.9081
10.9036
10.7315
10.299
9.87936
9.02263
8.44452
8.07459
7.80535
7.80535
-8.94387
8.94387
8.94635
8.94156
8.84772
8.57001
9.35098
9.91042
10.3737
10.7794
11.142
11.4912
11.8644
10.92
10.7704
10.3753
9.93791
8.98728
8.41164
8.064
7.80874
7.80874
-8.94496
8.94496
8.95196
8.96111
8.89463
8.58901
9.41119
9.93596
10.3824
10.7804
11.1354
11.4658
11.7775
10.9688
10.8222
10.4604
10.0175
8.93579
8.36947
8.0508
7.81242
7.81242
-8.94581
8.94581
8.95749
8.98244
8.95985
8.69104
9.49058
9.96426
10.3923
10.7818
11.1286
11.437
11.6832
11.0286
10.8829
10.5513
10.1245
8.86231
8.31646
8.03526
7.81657
7.81657
-8.94624
8.94624
8.96251
9.00546
9.04505
8.96877
9.58907
9.99407
10.4023
10.7836
11.1221
11.4081
11.5992
11.0873
10.9462
10.6538
10.2679
8.75858
8.2511
8.01786
7.82142
7.82142
-8.94607
8.94607
8.96649
9.02879
9.14234
9.5107
9.69467
10.0236
10.4123
10.7858
11.1163
11.3815
11.5314
11.1402
11.0033
10.7767
10.459
8.61099
8.17194
7.99907
7.82721
7.82721
-8.94514
8.94514
8.96879
9.05027
9.22518
9.79628
9.77748
10.051
10.4219
10.7883
11.1117
11.3587
11.48
11.1864
11.0587
10.9159
10.7111
8.38365
8.07621
7.98
7.83422
7.83422
-8.94331
8.94331
8.96879
9.06826
9.28474
9.89921
9.83349
10.0742
10.431
10.7912
11.1084
11.3405
11.4429
11.2219
11.1142
11.0698
11.0391
8.08341
7.9686
7.96236
7.84276
7.84276
-8.94053
8.94053
8.96659
9.08162
9.32247
9.91404
9.86729
10.0922
10.4394
10.7945
11.1065
11.3273
11.4174
11.2531
11.1699
11.2367
11.4537
7.70196
7.85461
7.94826
7.85312
7.85312
-8.93676
8.93676
8.96773
9.08705
9.3426
9.89265
9.88457
10.1047
10.4462
10.798
11.106
11.3191
11.4014
11.2813
11.2245
11.3893
11.9483
7.24594
7.74402
7.94007
7.86558
7.86558
-8.93182
8.93182
8.96614
9.0874
9.34924
9.85553
9.88984
10.1122
10.4513
10.802
11.1073
11.3155
11.3925
11.3069
11.269
11.5165
12.4753
6.76348
7.65269
7.93974
7.88035
7.88035
0
8.93182
8.96614
9.0874
9.34924
9.85553
9.88984
10.1122
10.4513
10.802
11.1073
11.3155
11.3925
11.3069
11.269
11.5165
12.4753
6.76348
7.65269
7.93974
7.88035
0
0
8.9381
8.92892
8.88844
8.8258
8.65842
9.23191
9.85344
10.358
10.7854
11.1581
11.5025
11.8134
11.031
10.7201
10.3061
9.77593
9.09261
8.52009
8.10968
7.81056
0
-8.9381
8.9381
8.92892
8.88844
8.8258
8.65842
9.23191
9.85344
10.358
10.7854
11.1581
11.5025
11.8134
11.031
10.7201
10.3061
9.77593
9.09261
8.52009
8.10968
7.81056
7.81056
-8.9382
8.9382
8.93021
8.89177
8.82307
8.81115
9.25882
9.85782
10.3586
10.7838
11.1553
11.497
11.7744
11.0242
10.7226
10.3101
9.78856
9.09063
8.51733
8.11043
7.81407
7.81407
-8.93869
8.93869
8.93229
8.89883
8.82564
8.77521
9.28438
9.86751
10.3612
10.7828
11.1519
11.4901
11.7448
11.0171
10.7304
10.319
9.813
9.08438
8.509
8.10866
7.81749
7.81749
-8.9395
8.9395
8.93556
8.91025
8.83649
8.75661
9.31189
9.88134
10.3657
10.7824
11.1481
11.482
11.7332
11.013
10.7453
10.3343
9.84399
9.07233
8.49462
8.10434
7.82088
7.82088
-8.94054
8.94054
8.93994
8.9258
8.85694
8.75079
9.34566
9.89883
10.3716
10.7824
11.1436
11.4712
11.7303
11.0085
10.7689
10.3623
9.88359
9.0527
8.47351
8.09751
7.82432
7.82432
-8.94168
8.94168
8.94503
8.94314
8.88836
8.76629
9.38881
9.91969
10.3789
10.7831
11.1384
11.4557
11.7012
11.0214
10.8028
10.4168
9.93619
9.0232
8.4449
8.08824
7.82793
7.82793
-8.94275
8.94275
8.95044
8.96196
8.9321
8.81709
9.44366
9.94352
10.3874
10.7841
11.1328
11.4359
11.651
11.0507
10.8462
10.4861
10.0057
8.98063
8.40816
8.07671
7.83186
7.83186
-8.94359
8.94359
8.9558
8.98225
8.98919
8.92736
9.51132
9.9696
10.3967
10.7857
11.127
11.4137
11.5937
11.0888
10.8964
10.5661
10.0967
8.92052
8.36236
8.0632
7.83629
7.83629
-8.94402
8.94402
8.96072
9.00349
9.05832
9.12338
9.58961
9.99681
10.4063
10.7876
11.1215
11.3913
11.5393
11.1292
10.9498
10.6576
10.2149
8.83667
8.30662
8.04815
7.84144
7.84144
-8.94387
8.94387
8.96473
9.0245
9.13264
9.39312
9.67012
10.0236
10.4159
10.7899
11.1167
11.3704
11.4931
11.1681
11.0029
10.7627
10.3668
8.72019
8.24035
8.0322
7.84755
7.84755
-8.94297
8.94297
8.96741
9.04363
9.19895
9.58943
9.73877
10.0483
10.4252
10.7925
11.1128
11.3524
11.4566
11.2036
11.0554
10.8797
10.5592
8.55907
8.16363
8.01637
7.85488
7.85488
-8.94119
8.94119
8.96844
9.05943
9.25016
9.6964
9.78998
10.0695
10.4339
10.7955
11.1102
11.338
11.4295
11.2346
11.1074
11.0059
10.7972
8.35297
8.07962
8.00207
7.86371
7.86371
-8.93845
8.93845
8.96802
9.07075
9.28506
9.74108
9.82413
10.0862
10.4417
10.7988
11.1089
11.3275
11.4109
11.2624
11.1581
11.1356
11.0804
8.10473
7.99364
7.99108
7.87432
7.87432
-8.93466
8.93466
8.96717
9.07649
9.30529
9.74915
9.84392
10.0982
10.4481
10.8024
11.1091
11.3211
11.3994
11.2879
11.2053
11.256
11.3949
7.82895
7.91403
7.98531
7.88697
7.88697
-8.9297
8.9297
8.96437
9.07715
9.31326
9.73612
9.8523
10.1054
10.4532
10.8065
11.1111
11.3187
11.3935
11.3115
11.2454
11.3557
11.7034
7.56246
7.85246
7.98654
7.90189
7.90189
0
8.9297
8.96437
9.07715
9.31326
9.73612
9.8523
10.1054
10.4532
10.8065
11.1111
11.3187
11.3935
11.3115
11.2454
11.3557
11.7034
7.56246
7.85246
7.98654
7.90189
0
0
8.93577
8.9278
8.89632
8.87605
8.82092
9.20543
9.86429
10.3639
10.7882
11.1531
11.4674
11.6742
11.0788
10.7533
10.3347
9.79952
9.11678
8.54409
8.13115
7.82977
0
-8.93577
8.93577
8.9278
8.89632
8.87605
8.82092
9.20543
9.86429
10.3639
10.7882
11.1531
11.4674
11.6742
11.0788
10.7533
10.3347
9.79952
9.11678
8.54409
8.13115
7.82977
7.82977
-8.93588
8.93588
8.92896
8.8993
8.85804
8.88901
9.27224
9.8692
10.3645
10.7868
11.1503
11.4626
11.6576
11.0753
10.7564
10.3399
9.80931
9.11521
8.54187
8.13212
7.83331
7.83331
-8.93637
8.93637
8.93117
8.90582
8.85738
8.87994
9.3098
9.87856
10.367
10.7859
11.1471
11.4562
11.6403
11.0723
10.7649
10.3513
9.82801
9.10995
8.53471
8.13082
7.83681
7.83681
-8.93719
8.93719
8.93446
8.91601
8.86817
8.86246
9.34166
9.89174
10.3712
10.7856
11.1434
11.4482
11.6275
11.0717
10.7796
10.3708
9.85441
9.1
8.52226
8.12725
7.84033
7.84033
-8.93822
8.93822
8.93868
8.92951
8.88885
8.86783
9.37655
9.90836
10.377
10.7858
11.1394
11.4382
11.6154
11.0745
10.8016
10.4013
9.88944
9.08401
8.50407
8.12147
7.84395
7.84395
-8.93934
8.93934
8.94357
8.94536
8.91927
8.89709
9.41809
9.92802
10.384
10.7865
11.1349
11.4253
11.5936
11.0859
10.8314
10.4471
9.93538
9.06023
8.47962
8.1136
7.84778
7.84778
-8.94041
8.94041
8.94878
8.96297
8.95952
8.95521
9.46789
9.95023
10.3921
10.7877
11.1301
11.4098
11.5623
11.1063
10.8685
10.5054
9.99478
9.02631
8.44843
8.10382
7.85198
7.85198
-8.94124
8.94124
8.95397
8.98186
9.00913
9.05049
9.52593
9.97425
10.401
10.7894
11.1253
11.3928
11.5265
11.1326
10.9112
10.5745
10.0706
8.97916
8.40999
8.09244
7.85671
7.85671
-8.94167
8.94167
8.95875
9.00127
9.06591
9.18653
9.58978
9.99903
10.4102
10.7914
11.1208
11.3757
11.4915
11.1618
10.9573
10.6536
10.1661
8.91485
8.36397
8.07992
7.86219
7.86219
-8.94152
8.94152
8.96273
9.02013
9.12474
9.34624
9.65384
10.0233
10.4194
10.7938
11.1169
11.3597
11.4608
11.1913
11.0048
10.7426
10.2848
8.82872
8.31048
8.06692
7.86864
7.86864
-8.94064
8.94064
8.96556
9.03713
9.17831
9.47987
9.71059
10.0457
10.4283
10.7966
11.114
11.3459
11.436
11.2196
11.0526
10.8399
10.4293
8.71662
8.25052
8.05437
7.87631
7.87631
-8.9389
8.9389
8.96697
9.05106
9.22154
9.56941
9.75555
10.065
10.4366
10.7996
11.1121
11.3348
11.4173
11.246
11.0998
10.9424
10.6001
8.57914
8.18684
8.04351
7.88546
7.88546
-8.93617
8.93617
8.96692
9.06097
9.25255
9.6194
9.78766
10.0804
10.4439
10.803
11.1115
11.327
11.4046
11.2706
11.1453
11.0449
10.7931
8.4216
8.12399
8.03582
7.89636
7.89636
-8.93238
8.93238
8.96547
9.0662
9.27152
9.64048
9.80778
10.0917
10.4501
10.8068
11.1124
11.3225
11.3972
11.2937
11.1871
11.1395
10.9955
8.25711
8.0685
8.03292
7.90925
7.90925
-8.92741
8.92741
8.9621
9.06669
9.27962
9.64201
9.81755
10.0985
10.455
10.8108
11.1149
11.3214
11.3943
11.3154
11.223
11.2176
11.1825
8.10982
8.02864
8.03633
7.92435
7.92435
0
8.92741
8.9621
9.06669
9.27962
9.64201
9.81755
10.0985
10.455
10.8108
11.1149
11.3214
11.3943
11.3154
11.223
11.2176
11.1825
8.10982
8.02864
8.03633
7.92435
0
0
8.93325
8.9264
8.90068
8.87059
8.78771
9.27607
9.87494
10.3695
10.7911
11.1484
11.4366
11.5791
11.1154
10.7845
10.3618
9.82025
9.14117
8.56871
8.1532
7.84951
0
-8.93325
8.93325
8.9264
8.90068
8.87059
8.78771
9.27607
9.87494
10.3695
10.7911
11.1484
11.4366
11.5791
11.1154
10.7845
10.3618
9.82025
9.14117
8.56871
8.1532
7.84951
7.84951
-8.93337
8.93337
8.92753
8.90374
8.86864
8.86718
9.30423
9.87935
10.3701
10.7898
11.1457
11.4323
11.5702
11.1135
10.7877
10.3674
9.82825
9.14007
8.56704
8.1544
7.85308
7.85308
-8.93387
8.93387
8.92976
8.91006
8.87417
8.89611
9.33395
9.88816
10.3725
10.789
11.1427
11.4266
11.5593
11.1128
10.7961
10.3798
9.84364
9.13594
8.56106
8.15357
7.85666
7.85666
-8.93469
8.93469
8.93301
8.91963
8.88803
8.91264
9.36482
9.90072
10.3766
10.7888
11.1394
11.4194
11.5485
11.1144
10.8101
10.3999
9.86625
9.12807
8.55053
8.15075
7.86031
7.86031
-8.93572
8.93572
8.93713
8.93212
8.91009
8.93682
9.3993
9.91655
10.3821
10.7892
11.1358
11.4107
11.5366
11.1195
10.8303
10.4294
9.89668
9.11553
8.53518
8.14603
7.86411
7.86411
-8.93684
8.93684
8.94186
8.94692
8.94009
8.97622
9.43904
9.93515
10.389
10.79
11.1319
11.4002
11.5206
11.1297
10.8567
10.4695
9.93618
9.09703
8.51468
8.13953
7.86816
7.86816
-8.93789
8.93789
8.94689
8.96341
8.97752
9.03478
9.4846
9.95594
10.3968
10.7914
11.128
11.3881
11.5002
11.1453
10.889
10.5197
9.9863
9.071
8.48877
8.13147
7.87263
7.87263
-8.93872
8.93872
8.9519
8.98094
9.02127
9.11484
9.53532
9.97815
10.4052
10.7931
11.1241
11.3752
11.4776
11.165
10.926
10.5791
10.0488
9.03546
8.45727
8.12219
7.87766
7.87766
-8.93914
8.93914
8.95653
8.9987
9.06911
9.21426
9.58902
10.0009
10.4141
10.7953
11.1206
11.3623
11.4553
11.1873
10.9662
10.6468
10.1253
8.98821
8.42025
8.11215
7.88347
7.88347
-8.939
8.939
8.96042
9.01571
9.11735
9.32161
9.6419
10.023
10.4229
10.7978
11.1176
11.3504
11.4355
11.2106
11.0084
10.7218
10.2174
8.92711
8.3782
8.10199
7.89026
7.89026
-8.93813
8.93813
8.96323
9.03088
9.16148
9.41668
9.68949
10.0433
10.4314
10.8007
11.1155
11.3401
11.4194
11.234
11.0512
10.8025
10.3256
8.85104
8.33243
8.09256
7.89828
7.89828
-8.9364
8.9364
8.9647
9.04322
9.19797
9.48802
9.72855
10.061
10.4393
10.8039
11.1144
11.3321
11.4074
11.2566
11.0935
10.8859
10.4485
8.76155
8.28535
8.08495
7.90777
7.90777
-8.93369
8.93369
8.96466
9.05192
9.22494
9.53428
9.75767
10.0752
10.4463
10.8073
11.1145
11.3266
11.3996
11.2785
11.1341
10.968
10.5816
8.66366
8.24064
8.0804
7.91896
7.91896
-8.9299
8.9299
8.96295
9.05644
9.24196
9.55915
9.77682
10.0857
10.4522
10.8112
11.1159
11.3239
11.3958
11.2994
11.1714
11.0431
10.7152
8.56703
8.20323
8.08026
7.93211
7.93211
-8.92494
8.92494
8.9593
9.05652
9.24935
9.56751
9.78668
10.092
10.4569
10.8153