# vtk DataFile Version 3.0
FlowField
ASCII
DATASET STRUCTURED_GRID
DIMENSIONS 22 17 12 
POINTS 4488 double
0 0 0
0.1 0 0
0.2 0 0
0.3 0 0
0.4 0 0
0.5 0 0
0.6 0 0
0.7 0 0
0.8 0 0
0.9 0 0
1 0 0
1.1 0 0
1.2 0 0
1.3 0 0
1.4 0 0
1.5 0 0
1.6 0 0
1.7 0 0
1.8 0 0
1.9 0 0
2 0 0
2.1 0 0
0 0.1 0
0.1 0.1 0
0.2 0.1 0
0.3 0.1 0
0.4 0.1 0
0.5 0.1 0
0.6 0.1 0
0.7 0.1 0
0.8 0.1 0
0.9 0.1 0
1 0.1 0
1.1 0.1 0
1.2 0.1 0
1.3 0.1 0
1.4 0.1 0
1.5 0.1 0
1.6 0.1 0
1.7 0.1 0
1.8 0.1 0
1.9 0.1 0
2 0.1 0
2.1 0.1 0
0 0.2 0
0.1 0.2 0
0.2 0.2 0
0.3 0.2 0
0.4 0.2 0
0.5 0.2 0
0.6 0.2 0
0.7 0.2 0
0.8 0.2 0
0.9 0.2 0
1 0.2 0
1.1 0.2 0
1.2 0.2 0
1.3 0.2 0
1.4 0.2 0
1.5 0.2 0
1.6 0.2 0
1.7 0.2 0
1.8 0.2 0
1.9 0.2 0
2 0.2 0
2.1 0.2 0
0 0.3 0
0.1 0.3 0
0.2 0.3 0
0.3 0.3 0
0.4 0.3 0
0.5 0.3 0
0.6 0.3 0
0.7 0.3 0
0.8 0.3 0
0.9 0.3 0
1 0.3 0
1.1 0.3 0
1.2 0.3 0
1.3 0.3 0
1.4 0.3 0
1.5 0.3 0
1.6 0.3 0
1.7 0.3 0
1.8 0.3 0
1.9 0.3 0
2 0.3 0
2.1 0.3 0
0 0.4 0
0.1 0.4 0
0.2 0.4 0
0.3 0.4 0
0.4 0.4 0
0.5 0.4 0
0.6 0.4 0
0.7 0.4 0
0.8 0.4 0
0.9 0.4 0
1 0.4 0
1.1 0.4 0
1.2 0.4 0
1.3 0.4 0
1.4 0.4 0
1.5 0.4 0
1.6 0.4 0
1.7 0.4 0
1.8 0.4 0
1.9 0.4 0
2 0.4 0
2.1 0.4 0
0 0.5 0
0.1 0.5 0
0.2 0.5 0
0.3 0.5 0
0.4 0.5 0
0.5 0.5 0
0.6 0.5 0
0.7 0.5 0
0.8 0.5 0
0.9 0.5 0
1 0.5 0
1.1 0.5 0
1.2 0.5 0
1.3 0.5 0
1.4 0.5 0
1.5 0.5 0
1.6 0.5 0
1.7 0.5 0
1.8 0.5 0
1.9 0.5 0
2 0.5 0
2.1 0.5 0
0 0.6 0
0.1 0.6 0
0.2 0.6 0
0.3 0.6 0
0.4 0.6 0
0.5 0.6 0
0.6 0.6 0
0.7 0.6 0
0.8 0.6 0
0.9 0.6 0
1 0.6 0
1.1 0.6 0
1.2 0.6 0
1.3 0.6 0
1.4 0.6 0
1.5 0.6 0
1.6 0.6 0
1.7 0.6 0
1.8 0.6 0
1.9 0.6 0
2 0.6 0
2.1 0.6 0
0 0.7 0
0.1 0.7 0
0.2 0.7 0
0.3 0.7 0
0.4 0.7 0
0.5 0.7 0
0.6 0.7 0
0.7 0.7 0
0.8 0.7 0
0.9 0.7 0
1 0.7 0
1.1 0.7 0
1.2 0.7 0
1.3 0.7 0
1.4 0.7 0
1.5 0.7 0
1.6 0.7 0
1.7 0.7 0
1.8 0.7 0
1.9 0.7 0
2 0.7 0
2.1 0.7 0
0 0.8 0
0.1 0.8 0
0.2 0.8 0
0.3 0.8 0
0.4 0.8 0
0.5 0.8 0
0.6 0.8 0
0.7 0.8 0
0.8 0.8 0
0.9 0.8 0
1 0.8 0
1.1 0.8 0
1.2 0.8 0
1.3 0.8 0
1.4 0.8 0
1.5 0.8 0
1.6 0.8 0
1.7 0.8 0
1.8 0.8 0
1.9 0.8 0
2 0.8 0
2.1 0.8 0
0 0.9 0
0.1 0.9 0
0.2 0.9 0
0.3 0.9 0
0.4 0.9 0
0.5 0.9 0
0.6 0.9 0
0.7 0.9 0
0.8 0.9 0
0.9 0.9 0
1 0.9 0
1.1 0.9 0
1.2 0.9 0
1.3 0.9 0
1.4 0.9 0
1.5 0.9 0
1.6 0.9 0
1.7 0.9 0
1.8 0.9 0
1.9 0.9 0
2 0.9 0
2.1 0.9 0
0 1 0
0.1 1 0
0.2 1 0
0.3 1 0
0.4 1 0
0.5 1 0
0.6 1 0
0.7 1 0
0.8 1 0
0.9 1 0
1 1 0
1.1 1 0
1.2 1 0
1.3 1 0
1.4 1 0
1.5 1 0
1.6 1 0
1.7 1 0
1.8 1 0
1.9 1 0
2 1 0
2.1 1 0
0 1.1 0
0.1 1.1 0
0.2 1.1 0
0.3 1.1 0
0.4 1.1 0
0.5 1.1 0
0.6 1.1 0
0.7 1.1 0
0.8 1.1 0
0.9 1.1 0
1 1.1 0
1.1 1.1 0
1.2 1.1 0
1.3 1.1 0
1.4 1.1 0
1.5 1.1 0
1.6 1.1 0
1.7 1.1 0
1.8 1.1 0
1.9 1.1 0
2 1.1 0
2.1 1.1 0
0 1.2 0
0.1 1.2 0
0.2 1.2 0
0.3 1.2 0
0.4 1.2 0
0.5 1.2 0
0.6 1.2 0
0.7 1.2 0
0.8 1.2 0
0.9 1.2 0
1 1.2 0
1.1 1.2 0
1.2 1.2 0
1.3 1.2 0
1.4 1.2 0
1.5 1.2 0
1.6 1.2 0
1.7 1.2 0
1.8 1.2 0
1.9 1.2 0
2 1.2 0
2.1 1.2 0
0 1.3 0
0.1 1.3 0
0.2 1.3 0
0.3 1.3 0
0.4 1.3 0
0.5 1.3 0
0.6 1.3 0
0.7 1.3 0
0.8 1.3 0
0.9 1.3 0
1 1.3 0
1.1 1.3 0
1.2 1.3 0
1.3 1.3 0
1.4 1.3 0
1.5 1.3 0
1.6 1.3 0
1.7 1.3 0
1.8 1.3 0
1.9 1.3 0
2 1.3 0
2.1 1.3 0
0 1.4 0
0.1 1.4 0
0.2 1.4 0
0.3 1.4 0
0.4 1.4 0
0.5 1.4 0
0.6 1.4 0
0.7 1.4 0
0.8 1.4 0
0.9 1.4 0
1 1.4 0
1.1 1.4 0
1.2 1.4 0
1.3 1.4 0
1.4 1.4 0
1.5 1.4 0
1.6 1.4 0
1.7 1.4 0
1.8 1.4 0
1.9 1.4 0
2 1.4 0
2.1 1.4 0
0 1.5 0
0.1 1.5 0
0.2 1.5 0
0.3 1.5 0
0.4 1.5 0
0.5 1.5 0
0.6 1.5 0
0.7 1.5 0
0.8 1.5 0
0.9 1.5 0
1 1.5 0
1.1 1.5 0
1.2 1.5 0
1.3 1.5 0
1.4 1.5 0
1.5 1.5 0
1.6 1.5 0
1.7 1.5 0
1.8 1.5 0
1.9 1.5 0
2 1.5 0
2.1 1.5 0
0 1.6 0
0.1 1.6 0
0.2 1.6 0
0.3 1.6 0
0.4 1.6 0
0.5 1.6 0
0.6 1.6 0
0.7 1.6 0
0.8 1.6 0
0.9 1.6 0
1 1.6 0
1.1 1.6 0
1.2 1.6 0
1.3 1.6 0
1.4 1.6 0
1.5 1.6 0
1.6 1.6 0
1.7 1.6 0
1.8 1.6 0
1.9 1.6 0
2 1.6 0
2.1 1.6 0
0 0 0.1
0.1 0 0.1
0.2 0 0.1
0.3 0 0.1
0.4 0 0.1
0.5 0 0.1
0.6 0 0.1
0.7 0 0.1
0.8 0 0.1
0.9 0 0.1
1 0 0.1
1.1 0 0.1
1.2 0 0.1
1.3 0 0.1
1.4 0 0.1
1.5 0 0.1
1.6 0 0.1
1.7 0 0.1
1.8 0 0.1
1.9 0 0.1
2 0 0.1
2.1 0 0.1
0 0.1 0.1
0.1 0.1 0.1
0.2 0.1 0.1
0.3 0.1 0.1
0.4 0.1 0.1
0.5 0.1 0.1
0.6 0.1 0.1
0.7 0.1 0.1
0.8 0.1 0.1
0.9 0.1 0.1
1 0.1 0.1
1.1 0.1 0.1
1.2 0.1 0.1
1.3 0.1 0.1
1.4 0.1 0.1
1.5 0.1 0.1
1.6 0.1 0.1
1.7 0.1 0.1
1.8 0.1 0.1
1.9 0.1 0.1
2 0.1 0.1
2.1 0.1 0.1
0 0.2 0.1
0.1 0.2 0.1
0.2 0.2 0.1
0.3 0.2 0.1
0.4 0.2 0.1
0.5 0.2 0.1
0.6 0.2 0.1
0.7 0.2 0.1
0.8 0.2 0.1
0.9 0.2 0.1
1 0.2 0.1
1.1 0.2 0.1
1.2 0.2 0.1
1.3 0.2 0.1
1.4 0.2 0.1
1.5 0.2 0.1
1.6 0.2 0.1
1.7 0.2 0.1
1.8 0.2 0.1
1.9 0.2 0.1
2 0.2 0.1
2.1 0.2 0.1
0 0.3 0.1
0.1 0.3 0.1
0.2 0.3 0.1
0.3 0.3 0.1
0.4 0.3 0.1
0.5 0.3 0.1
0.6 0.3 0.1
0.7 0.3 0.1
0.8 0.3 0.1
0.9 0.3 0.1
1 0.3 0.1
1.1 0.3 0.1
1.2 0.3 0.1
1.3 0.3 0.1
1.4 0.3 0.1
1.5 0.3 0.1
1.6 0.3 0.1
1.7 0.3 0.1
1.8 0.3 0.1
1.9 0.3 0.1
2 0.3 0.1
2.1 0.3 0.1
0 0.4 0.1
0.1 0.4 0.1
0.2 0.4 0.1
0.3 0.4 0.1
0.4 0.4 0.1
0.5 0.4 0.1
0.6 0.4 0.1
0.7 0.4 0.1
0.8 0.4 0.1
0.9 0.4 0.1
1 0.4 0.1
1.1 0.4 0.1
1.2 0.4 0.1
1.3 0.4 0.1
1.4 0.4 0.1
1.5 0.4 0.1
1.6 0.4 0.1
1.7 0.4 0.1
1.8 0.4 0.1
1.9 0.4 0.1
2 0.4 0.1
2.1 0.4 0.1
0 0.5 0.1
0.1 0.5 0.1
0.2 0.5 0.1
0.3 0.5 0.1
0.4 0.5 0.1
0.5 0.5 0.1
0.6 0.5 0.1
0.7 0.5 0.1
0.8 0.5 0.1
0.9 0.5 0.1
1 0.5 0.1
1.1 0.5 0.1
1.2 0.5 0.1
1.3 0.5 0.1
1.4 0.5 0.1
1.5 0.5 0.1
1.6 0.5 0.1
1.7 0.5 0.1
1.8 0.5 0.1
1.9 0.5 0.1
2 0.5 0.1
2.1 0.5 0.1
0 0.6 0.1
0.1 0.6 0.1
0.2 0.6 0.1
0.3 0.6 0.1
0.4 0.6 0.1
0.5 0.6 0.1
0.6 0.6 0.1
0.7 0.6 0.1
0.8 0.6 0.1
0.9 0.6 0.1
1 0.6 0.1
1.1 0.6 0.1
1.2 0.6 0.1
1.3 0.6 0.1
1.4 0.6 0.1
1.5 0.6 0.1
1.6 0.6 0.1
1.7 0.6 0.1
1.8 0.6 0.1
1.9 0.6 0.1
2 0.6 0.1
2.1 0.6 0.1
0 0.7 0.1
0.1 0.7 0.1
0.2 0.7 0.1
0.3 0.7 0.1
0.4 0.7 0.1
0.5 0.7 0.1
0.6 0.7 0.1
0.7 0.7 0.1
0.8 0.7 0.1
0.9 0.7 0.1
1 0.7 0.1
1.1 0.7 0.1
1.2 0.7 0.1
1.3 0.7 0.1
1.4 0.7 0.1
1.5 0.7 0.1
1.6 0.7 0.1
1.7 0.7 0.1
1.8 0.7 0.1
1.9 0.7 0.1
2 0.7 0.1
2.1 0.7 0.1
0 0.8 0.1
0.1 0.8 0.1
0.2 0.8 0.1
0.3 0.8 0.1
0.4 0.8 0.1
0.5 0.8 0.1
0.6 0.8 0.1
0.7 0.8 0.1
0.8 0.8 0.1
0.9 0.8 0.1
1 0.8 0.1
1.1 0.8 0.1
1.2 0.8 0.1
1.3 0.8 0.1
1.4 0.8 0.1
1.5 0.8 0.1
1.6 0.8 0.1
1.7 0.8 0.1
1.8 0.8 0.1
1.9 0.8 0.1
2 0.8 0.1
2.1 0.8 0.1
0 0.9 0.1
0.1 0.9 0.1
0.2 0.9 0.1
0.3 0.9 0.1
0.4 0.9 0.1
0.5 0.9 0.1
0.6 0.9 0.1
0.7 0.9 0.1
0.8 0.9 0.1
0.9 0.9 0.1
1 0.9 0.1
1.1 0.9 0.1
1.2 0.9 0.1
1.3 0.9 0.1
1.4 0.9 0.1
1.5 0.9 0.1
1.6 0.9 0.1
1.7 0.9 0.1
1.8 0.9 0.1
1.9 0.9 0.1
2 0.9 0.1
2.1 0.9 0.1
0 1 0.1
0.1 1 0.1
0.2 1 0.1
0.3 1 0.1
0.4 1 0.1
0.5 1 0.1
0.6 1 0.1
0.7 1 0.1
0.8 1 0.1
0.9 1 0.1
1 1 0.1
1.1 1 0.1
1.2 1 0.1
1.3 1 0.1
1.4 1 0.1
1.5 1 0.1
1.6 1 0.1
1.7 1 0.1
1.8 1 0.1
1.9 1 0.1
2 1 0.1
2.1 1 0.1
0 1.1 0.1
0.1 1.1 0.1
0.2 1.1 0.1
0.3 1.1 0.1
0.4 1.1 0.1
0.5 1.1 0.1
0.6 1.1 0.1
0.7 1.1 0.1
0.8 1.1 0.1
0.9 1.1 0.1
1 1.1 0.1
1.1 1.1 0.1
1.2 1.1 0.1
1.3 1.1 0.1
1.4 1.1 0.1
1.5 1.1 0.1
1.6 1.1 0.1
1.7 1.1 0.1
1.8 1.1 0.1
1.9 1.1 0.1
2 1.1 0.1
2.1 1.1 0.1
0 1.2 0.1
0.1 1.2 0.1
0.2 1.2 0.1
0.3 1.2 0.1
0.4 1.2 0.1
0.5 1.2 0.1
0.6 1.2 0.1
0.7 1.2 0.1
0.8 1.2 0.1
0.9 1.2 0.1
1 1.2 0.1
1.1 1.2 0.1
1.2 1.2 0.1
1.3 1.2 0.1
1.4 1.2 0.1
1.5 1.2 0.1
1.6 1.2 0.1
1.7 1.2 0.1
1.8 1.2 0.1
1.9 1.2 0.1
2 1.2 0.1
2.1 1.2 0.1
0 1.3 0.1
0.1 1.3 0.1
0.2 1.3 0.1
0.3 1.3 0.1
0.4 1.3 0.1
0.5 1.3 0.1
0.6 1.3 0.1
0.7 1.3 0.1
0.8 1.3 0.1
0.9 1.3 0.1
1 1.3 0.1
1.1 1.3 0.1
1.2 1.3 0.1
1.3 1.3 0.1
1.4 1.3 0.1
1.5 1.3 0.1
1.6 1.3 0.1
1.7 1.3 0.1
1.8 1.3 0.1
1.9 1.3 0.1
2 1.3 0.1
2.1 1.3 0.1
0 1.4 0.1
0.1 1.4 0.1
0.2 1.4 0.1
0.3 1.4 0.1
0.4 1.4 0.1
0.5 1.4 0.1
0.6 1.4 0.1
0.7 1.4 0.1
0.8 1.4 0.1
0.9 1.4 0.1
1 1.4 0.1
1.1 1.4 0.1
1.2 1.4 0.1
1.3 1.4 0.1
1.4 1.4 0.1
1.5 1.4 0.1
1.6 1.4 0.1
1.7 1.4 0.1
1.8 1.4 0.1
1.9 1.4 0.1
2 1.4 0.1
2.1 1.4 0.1
0 1.5 0.1
0.1 1.5 0.1
0.2 1.5 0.1
0.3 1.5 0.1
0.4 1.5 0.1
0.5 1.5 0.1
0.6 1.5 0.1
0.7 1.5 0.1
0.8 1.5 0.1
0.9 1.5 0.1
1 1.5 0.1
1.1 1.5 0.1
1.2 1.5 0.1
1.3 1.5 0.1
1.4 1.5 0.1
1.5 1.5 0.1
1.6 1.5 0.1
1.7 1.5 0.1
1.8 1.5 0.1
1.9 1.5 0.1
2 1.5 0.1
2.1 1.5 0.1
0 1.6 0.1
0.1 1.6 0.1
0.2 1.6 0.1
0.3 1.6 0.1
0.4 1.6 0.1
0.5 1.6 0.1
0.6 1.6 0.1
0.7 1.6 0.1
0.8 1.6 0.1
0.9 1.6 0.1
1 1.6 0.1
1.1 1.6 0.1
1.2 1.6 0.1
1.3 1.6 0.1
1.4 1.6 0.1
1.5 1.6 0.1
1.6 1.6 0.1
1.7 1.6 0.1
1.8 1.6 0.1
1.9 1.6 0.1
2 1.6 0.1
2.1 1.6 0.1
0 0 0.2
0.1 0 0.2
0.2 0 0.2
0.3 0 0.2
0.4 0 0.2
0.5 0 0.2
0.6 0 0.2
0.7 0 0.2
0.8 0 0.2
0.9 0 0.2
1 0 0.2
1.1 0 0.2
1.2 0 0.2
1.3 0 0.2
1.4 0 0.2
1.5 0 0.2
1.6 0 0.2
1.7 0 0.2
1.8 0 0.2
1.9 0 0.2
2 0 0.2
2.1 0 0.2
0 0.1 0.2
0.1 0.1 0.2
0.2 0.1 0.2
0.3 0.1 0.2
0.4 0.1 0.2
0.5 0.1 0.2
0.6 0.1 0.2
0.7 0.1 0.2
0.8 0.1 0.2
0.9 0.1 0.2
1 0.1 0.2
1.1 0.1 0.2
1.2 0.1 0.2
1.3 0.1 0.2
1.4 0.1 0.2
1.5 0.1 0.2
1.6 0.1 0.2
1.7 0.1 0.2
1.8 0.1 0.2
1.9 0.1 0.2
2 0.1 0.2
2.1 0.1 0.2
0 0.2 0.2
0.1 0.2 0.2
0.2 0.2 0.2
0.3 0.2 0.2
0.4 0.2 0.2
0.5 0.2 0.2
0.6 0.2 0.2
0.7 0.2 0.2
0.8 0.2 0.2
0.9 0.2 0.2
1 0.2 0.2
1.1 0.2 0.2
1.2 0.2 0.2
1.3 0.2 0.2
1.4 0.2 0.2
1.5 0.2 0.2
1.6 0.2 0.2
1.7 0.2 0.2
1.8 0.2 0.2
1.9 0.2 0.2
2 0.2 0.2
2.1 0.2 0.2
0 0.3 0.2
0.1 0.3 0.2
0.2 0.3 0.2
0.3 0.3 0.2
0.4 0.3 0.2
0.5 0.3 0.2
0.6 0.3 0.2
0.7 0.3 0.2
0.8 0.3 0.2
0.9 0.3 0.2
1 0.3 0.2
1.1 0.3 0.2
1.2 0.3 0.2
1.3 0.3 0.2
1.4 0.3 0.2
1.5 0.3 0.2
1.6 0.3 0.2
1.7 0.3 0.2
1.8 0.3 0.2
1.9 0.3 0.2
2 0.3 0.2
2.1 0.3 0.2
0 0.4 0.2
0.1 0.4 0.2
0.2 0.4 0.2
0.3 0.4 0.2
0.4 0.4 0.2
0.5 0.4 0.2
0.6 0.4 0.2
0.7 0.4 0.2
0.8 0.4 0.2
0.9 0.4 0.2
1 0.4 0.2
1.1 0.4 0.2
1.2 0.4 0.2
1.3 0.4 0.2
1.4 0.4 0.2
1.5 0.4 0.2
1.6 0.4 0.2
1.7 0.4 0.2
1.8 0.4 0.2
1.9 0.4 0.2
2 0.4 0.2
2.1 0.4 0.2
0 0.5 0.2
0.1 0.5 0.2
0.2 0.5 0.2
0.3 0.5 0.2
0.4 0.5 0.2
0.5 0.5 0.2
0.6 0.5 0.2
0.7 0.5 0.2
0.8 0.5 0.2
0.9 0.5 0.2
1 0.5 0.2
1.1 0.5 0.2
1.2 0.5 0.2
1.3 0.5 0.2
1.4 0.5 0.2
1.5 0.5 0.2
1.6 0.5 0.2
1.7 0.5 0.2
1.8 0.5 0.2
1.9 0.5 0.2
2 0.5 0.2
2.1 0.5 0.2
0 0.6 0.2
0.1 0.6 0.2
0.2 0.6 0.2
0.3 0.6 0.2
0.4 0.6 0.2
0.5 0.6 0.2
0.6 0.6 0.2
0.7 0.6 0.2
0.8 0.6 0.2
0.9 0.6 0.2
1 0.6 0.2
1.1 0.6 0.2
1.2 0.6 0.2
1.3 0.6 0.2
1.4 0.6 0.2
1.5 0.6 0.2
1.6 0.6 0.2
1.7 0.6 0.2
1.8 0.6 0.2
1.9 0.6 0.2
2 0.6 0.2
2.1 0.6 0.2
0 0.7 0.2
0.1 0.7 0.2
0.2 0.7 0.2
0.3 0.7 0.2
0.4 0.7 0.2
0.5 0.7 0.2
0.6 0.7 0.2
0.7 0.7 0.2
0.8 0.7 0.2
0.9 0.7 0.2
1 0.7 0.2
1.1 0.7 0.2
1.2 0.7 0.2
1.3 0.7 0.2
1.4 0.7 0.2
1.5 0.7 0.2
1.6 0.7 0.2
1.7 0.7 0.2
1.8 0.7 0.2
1.9 0.7 0.2
2 0.7 0.2
2.1 0.7 0.2
0 0.8 0.2
0.1 0.8 0.2
[...]
POINT_DATA 4488

SCALARS pressure double
LOOKUP_TABLE pressure
0
0
0
0
0
0
0
0
0
0
0
0
0
0
0
0
0
0
0
0
0
0
0
34.6662
34.6607
34.6572
34.6542
34.6522
34.6503
34.6481
34.6452
34.6435
34.6483
34.6475
34.6471
34.6467
34.646
34.645
34.6436
34.6417
34.6394
34.6389
34.6373
0
0
34.6603
34.6588
34.6566
34.654
34.6522
34.6507
34.6489
34.6454
34.6455
34.6468
34.647
34.6469
34.6466
34.6461
34.6453
34.644
34.6424
34.641
34.64
34.6391
0
0
34.6571
34.6567
34.6555
34.6536
34.6521
34.6507
34.648
34.6465
34.6462
34.6464
34.6465
34.6466
34.6466
34.6463
34.6456
34.6446
34.6434
34.6424
34.6415
34.6409
0
0
34.6552
34.6553
34.6546
34.6534
34.6528
34.6524
34.6464
34.6467
34.6466
34.6461
34.646
34.6462
34.6465
34.6466
34.6461
34.6452
34.6442
34.6433
34.6427
34.6423
0
0
34.654
34.6541
34.6537
34.6529
34.652
34.6505
34.6484
34.6475
34.6468
34.6462
34.6457
34.6457
34.6465
34.6471
34.6466
34.6456
34.6447
34.6441
34.6437
34.6434
0
0
34.6529
34.6531
34.6528
34.6522
34.6514
34.6502
34.6489
34.648
34.6467
34.6463
34.6455
34.6452
34.6464
34.6476
34.6469
34.6454
34.6449
34.6446
34.6446
34.6445
0
0
34.6521
34.6523
34.6522
34.6517
34.651
34.6502
34.6496
34.6498
34.6456
34.646
34.6463
34.6465
34.6469
34.6471
34.6458
34.6445
34.6451
34.6457
34.6461
34.6457
0
0
34.6514
34.6517
34.6518
34.6516
34.6507
34.6503
34.6499
34.6492
34.6474
34.6471
34.6474
34.6475
34.647
34.6463
34.6457
34.6456
34.6462
34.6467
34.6469
34.6465
0
0
34.6506
34.6513
34.6514
34.6513
34.6508
34.6505
34.6501
34.6494
34.6484
34.6479
34.6479
34.6477
34.6471
34.6465
34.6463
34.6465
34.6468
34.6471
34.6473
34.647
0
0
34.6493
34.6513
34.6512
34.6512
34.6505
34.6504
34.6502
34.6496
34.6489
34.6484
34.6481
34.6477
34.6473
34.647
34.6471
34.6472
34.6473
34.6474
34.6476
34.6473
0
0
34.6499
34.6507
34.6511
34.6515
34.6523
34.6511
34.6504
34.6498
34.6491
34.6486
34.6482
34.6478
34.6474
34.6473
34.648
34.6478
34.6478
34.6476
34.6477
34.6475
0
0
34.6499
34.6504
34.6509
34.6512
34.6513
34.6509
34.6503
34.6497
34.6492
34.6487
34.6483
34.648
34.6478
34.6478
34.648
34.6482
34.6485
34.6475
34.6477
34.6476
0
0
34.6499
34.6502
34.6506
34.6508
34.6507
34.6505
34.65
34.6495
34.649
34.6487
34.6484
34.6482
34.648
34.648
34.6482
34.6487
34.6504
34.6461
34.6475
34.6478
0
0
34.6498
34.6501
34.6502
34.6503
34.6503
34.6501
34.6497
34.6492
34.6487
34.6487
34.6486
34.6483
34.648
34.6479
34.6482
34.6485
34.6488
34.6479
34.6481
34.6481
0
0
34.6499
34.65
34.65
34.6499
34.6498
34.6497
34.6495
34.6487
34.648
34.6489
34.6495
34.6482
34.6476
34.6478
34.6481
34.6484
34.6484
34.6484
34.6485
34.6485
0
0
0
0
0
0
0
0
0
0
0
0
0
0
0
0
0
0
0
0
0
0
0
0
34.6662
34.6607
34.6572
34.6542
34.6522
34.6503
34.6481
34.6452
34.6435
34.6483
34.6475
34.6471
34.6467
34.646
34.645
34.6436
34.6417
34.6394
34.6389
34.6373
0
34.6662
34.6662
34.6607
34.6572
34.6542
34.6522
34.6503
34.6481
34.6452
34.6435
34.6483
34.6475
34.6471
34.6467
34.646
34.645
34.6436
34.6417
34.6394
34.6389
34.6373
34.6373
34.6603
34.6603
34.6588
34.6566
34.654
34.6522
34.6507
34.6489
34.6454
34.6455
34.6468
34.647
34.6469
34.6466
34.6461
34.6453
34.644
34.6424
34.641
34.64
34.6391
34.6391
34.6571
34.6571
34.6567
34.6555
34.6536
34.6521
34.6507
34.648
34.6465
34.6462
34.6464
34.6465
34.6466
34.6466
34.6463
34.6456
34.6446
34.6434
34.6424
34.6415
34.6409
34.6409
34.6552
34.6552
34.6553
34.6546
34.6534
34.6528
34.6524
34.6464
34.6467
34.6466
34.6461
34.646
34.6462
34.6465
34.6466
34.6461
34.6452
34.6442
34.6433
34.6427
34.6423
34.6423
34.654
34.654
34.6541
34.6537
34.6529
34.652
34.6505
34.6484
34.6475
34.6468
34.6462
34.6457
34.6457
34.6465
34.6471
34.6466
34.6456
34.6447
34.6441
34.6437
34.6434
34.6434
34.6529
34.6529
34.6531
34.6528
34.6522
34.6514
34.6502
34.6489
34.648
34.6467
34.6463
34.6455
34.6452
34.6464
34.6476
34.6469
34.6454
34.6449
34.6446
34.6446
34.6445
34.6445
34.6521
34.6521
34.6523
34.6522
34.6517
34.651
34.6502
34.6496
34.6498
34.6456
34.646
34.6463
34.6465
34.6469
34.6471
34.6458
34.6445
34.6451
34.6457
34.6461
34.6457
34.6457
34.6514
34.6514
34.6517
34.6518
34.6516
34.6507
34.6503
34.6499
34.6492
34.6474
34.6471
34.6474
34.6475
34.647
34.6463
34.6457
34.6456
34.6462
34.6467
34.6469
34.6465
34.6465
34.6506
34.6506
34.6513
34.6514
34.6513
34.6508
34.6505
34.6501
34.6494
34.6484
34.6479
34.6479
34.6477
34.6471
34.6465
34.6463
34.6465
34.6468
34.6471
34.6473
34.647
34.647
34.6493
34.6493
34.6513
34.6512
34.6512
34.6505
34.6504
34.6502
34.6496
34.6489
34.6484
34.6481
34.6477
34.6473
34.647
34.6471
34.6472
34.6473
34.6474
34.6476
34.6473
34.6473
34.6499
34.6499
34.6507
34.6511
34.6515
34.6523
34.6511
34.6504
34.6498
34.6491
34.6486
34.6482
34.6478
34.6474
34.6473
34.648
34.6478
34.6478
34.6476
34.6477
34.6475
34.6475
34.6499
34.6499
34.6504
34.6509
34.6512
34.6513
34.6509
34.6503
34.6497
34.6492
34.6487
34.6483
34.648
34.6478
34.6478
34.648
34.6482
34.6485
34.6475
34.6477
34.6476
34.6476
34.6499
34.6499
34.6502
34.6506
34.6508
34.6507
34.6505
34.65
34.6495
34.649
34.6487
34.6484
34.6482
34.648
34.648
34.6482
34.6487
34.6504
34.6461
34.6475
34.6478
34.6478
34.6498
34.6498
34.6501
34.6502
34.6503
34.6503
34.6501
34.6497
34.6492
34.6487
34.6487
34.6486
34.6483
34.648
34.6479
34.6482
34.6485
34.6488
34.6479
34.6481
34.6481
34.6481
34.6499
34.6499
34.65
34.65
34.6499
34.6498
34.6497
34.6495
34.6487
34.648
34.6489
34.6495
34.6482
34.6476
34.6478
34.6481
34.6484
34.6484
34.6484
34.6485
34.6485
34.6485
0
34.6499
34.65
34.65
34.6499
34.6498
34.6497
34.6495
34.6487
34.648
34.6489
34.6495
34.6482
34.6476
34.6478
34.6481
34.6484
34.6484
34.6484
34.6485
34.6485
0
0
34.6696
34.6641
34.6601
34.6552
34.6475
34.6431
34.6427
34.6435
34.6448
34.6467
34.6472
34.6471
34.6466
34.6459
34.6449
34.6437
34.6421
34.6405
34.6387
34.6373
0
34.6696
34.6696
34.6641
34.6601
34.6552
34.6475
34.6431
34.6427
34.6435
34.6448
34.6467
34.6472
34.6471
34.6466
34.6459
34.6449
34.6437
34.6421
34.6405
34.6387
34.6373
34.6373
34.6635
34.6635
34.6618
34.6593
34.6554
34.6496
34.6444
34.6429
34.6432
34.6446
34.6461
34.6467
34.6468
34.6465
34.6459
34.6451
34.644
34.6426
34.6413
34.6401
34.6391
34.6391
34.66
34.66
34.6594
34.6578
34.6551
34.651
34.6463
34.6437
34.6435
34.6444
34.6455
34.6461
34.6463
34.6462
34.6459
34.6453
34.6444
34.6434
34.6424
34.6416
34.641
34.641
34.6577
34.6577
34.6575
34.6567
34.6551
34.6525
34.6489
34.6453
34.6443
34.6445
34.645
34.6454
34.6458
34.646
34.646
34.6456
34.6449
34.6441
34.6434
34.6429
34.6424
34.6424
34.656
34.656
34.656
34.6556
34.6548
34.653
34.6501
34.647
34.6452
34.6447
34.6448
34.6452
34.6455
34.646
34.6462
34.6459
34.6453
34.6447
34.6442
34.6439
34.6435
34.6435
34.6546
34.6546
34.6547
34.6545
34.6539
34.6525
34.6502
34.6478
34.6461
34.6452
34.6452
34.6453
34.6456
34.6461
34.6463
34.646
34.6455
34.6451
34.6449
34.6448
34.6445
34.6445
34.6535
34.6535
34.6537
34.6535
34.6531
34.6521
34.6507
34.6492
34.648
34.6465
34.6461
34.6461
34.6463
34.6464
34.6463
34.6458
34.6455
34.6456
34.6457
34.6458
34.6455
34.6455
34.6526
34.6526
34.6528
34.6528
34.6526
34.652
34.6514
34.6506
34.6494
34.648
34.6473
34.6471
34.647
34.6468
34.6465
34.6462
34.6461
34.6463
34.6464
34.6465
34.6462
34.6462
34.6518
34.6518
34.6521
34.6522
34.6522
34.6519
34.6516
34.651
34.65
34.649
34.6482
34.6478
34.6475
34.6471
34.6468
34.6467
34.6467
34.6468
34.6469
34.647
34.6467
34.6467
34.6511
34.6511
34.6516
34.6518
34.6518
34.6516
34.6514
34.6509
34.6502
34.6494
34.6487
34.6482
34.6478
34.6474
34.6472
34.6472
34.6472
34.6472
34.6473
34.6473
34.6471
34.6471
34.6508
34.6508
34.6512
34.6514
34.6516
34.6517
34.6513
34.6508
34.6502
34.6495
34.6489
34.6484
34.648
34.6477
34.6476
34.6477
34.6476
34.6476
34.6475
34.6476
34.6474
34.6474
34.6506
34.6506
34.6509
34.6511
34.6512
34.6512
34.6509
34.6505
34.65
34.6494
34.649
34.6485
34.6482
34.648
34.6479
34.6479
34.648
34.648
34.6477
34.6477
34.6476
34.6476
34.6503
34.6503
34.6506
34.6507
34.6508
34.6508
34.6505
34.6502
34.6497
34.6493
34.6489
34.6486
34.6483
34.6481
34.6481
34.6481
34.6483
34.6485
34.6477
34.6479
34.6479
34.6479
34.6502
34.6502
34.6504
34.6504
34.6504
34.6503
34.6501
34.6499
34.6495
34.6491
34.6489
34.6487
34.6484
34.6482
34.6481
34.6482
34.6484
34.6484
34.6481
34.6482
34.6482
34.6482
34.6502
34.6502
34.6502
34.6502
34.6501
34.6499
34.6498
34.6496
34.6492
34.6488
34.6488
34.6488
34.6483
34.6481
34.6481
34.6482
34.6484
34.6484
34.6484
34.6485
34.6485
34.6485
0
34.6502
34.6502
34.6502
34.6501
34.6499
34.6498
34.6496
34.6492
34.6488
34.6488
34.6488
34.6483
34.6481
34.6481
34.6482
34.6484
34.6484
34.6484
34.6485
34.6485
0
0
34.6734
34.6682
34.665
34.6579
34.6367
34.6295
34.6349
34.641
34.6448
34.6469
34.6476
34.6474
34.6468
34.646
34.645
34.6438
34.6424
34.6408
34.6387
34.6373
0
34.6734
34.6734
34.6682
34.665
34.6579
34.6367
34.6295
34.6349
34.641
34.6448
34.6469
34.6476
34.6474
34.6468
34.646
34.645
34.6438
34.6424
34.6408
34.6387
34.6373
34.6373
34.6668
34.6668
34.6654
34.6633
34.6584
34.6463
34.6333
34.6338
34.6389
34.6433
34.6459
34.6469
34.6469
34.6465
34.6459
34.645
34.644
34.6428
34.6415
34.6402
34.6392
34.6392
34.6628
34.6628
34.6623
34.6609
34.6577
34.6499
34.6385
34.6357
34.6386
34.6421
34.6445
34.6457
34.6461
34.6461
34.6457
34.6451
34.6443
34.6434
34.6425
34.6417
34.641
34.641
34.66
34.66
34.66
34.6595
34.658
34.6538
34.646
34.6411
34.6405
34.6417
34.6434
34.6446
34.6454
34.6457
34.6456
34.6453
34.6447
34.6441
34.6434
34.6429
34.6424
34.6424
34.6579
34.6579
34.6581
34.6582
34.6579
34.6562
34.6508
34.645
34.6417
34.6414
34.6427
34.644
34.645
34.6455
34.6457
34.6455
34.6451
34.6447
34.6442
34.6439
34.6435
34.6435
34.6562
34.6562
34.6564
34.6565
34.6561
34.6543
34.6501
34.6452
34.6424
34.6423
34.6434
34.6444
34.6452
34.6457
34.6459
34.6457
34.6455
34.6452
34.6449
34.6448
34.6445
34.6445
34.6548
34.6548
34.655
34.655
34.6546
34.6534
34.651
34.6484
34.6467
34.6457
34.6454
34.6457
34.6459
34.6461
34.6461
34.646
34.6458
34.6457
34.6456
34.6456
34.6453
34.6453
34.6536
34.6536
34.6538
34.6539
34.6539
34.6535
34.653
34.6522
34.6504
34.6485
34.6474
34.6469
34.6468
34.6467
34.6465
34.6464
34.6463
34.6462
34.6462
34.6463
34.646
34.646
34.6527
34.6527
34.653
34.6531
34.6532
34.6532
34.6532
34.6526
34.6512
34.6497
34.6485
34.6478
34.6474
34.6471
34.6469
34.6468
34.6467
34.6467
34.6467
34.6468
34.6466
34.6466
34.652
34.652
34.6523
34.6524
34.6526
34.6526
34.6525
34.652
34.6511
34.65
34.649
34.6483
34.6479
34.6475
34.6473
34.6472
34.6472
34.6472
34.6472
34.6472
34.647
34.647
34.6514
34.6514
34.6517
34.6519
34.652
34.652
34.6518
34.6514
34.6507
34.6499
34.6492
34.6486
34.6482
34.6479
34.6477
34.6476
34.6476
34.6475
34.6475
34.6475
34.6474
34.6474
34.651
34.651
34.6512
34.6514
34.6515
34.6514
34.6512
34.6509
34.6503
34.6498
34.6492
34.6487
34.6484
34.6481
34.648
34.6479
34.6479
34.6479
34.6478
34.6478
34.6476
34.6476
34.6507
34.6507
34.6509
34.651
34.651
34.6509
34.6507
34.6504
34.65
34.6496
34.6491
34.6488
34.6485
34.6483
34.6481
34.6481
34.6481
34.6481
34.648
34.648
34.6479
34.6479
34.6504
34.6504
34.6506
34.6506
34.6506
34.6505
34.6503
34.65
34.6497
34.6493
34.649
34.6488
34.6485
34.6483
34.6482
34.6483
34.6483
34.6483
34.6482
34.6483
34.6482
34.6482
34.6504
34.6504
34.6504
34.6503
34.6502
34.6501
34.6499
34.6497
34.6494
34.6491
34.6489
34.6487
34.6485
34.6483
34.6483
34.6483
34.6484
34.6484
34.6485
34.6485
34.6485
34.6485
0
34.6504
34.6504
34.6503
34.6502
34.6501
34.6499
34.6497
34.6494
34.6491
34.6489
34.6487
34.6485
34.6483
34.6483
34.6483
34.6484
34.6484
34.6485
34.6485
34.6485
0
0
34.677
34.6734
34.6742
34.6696
34.6002
34.5971
34.6252
34.6407
34.6466
34.6487
34.6489
34.6481
34.6471
34.6461
34.645
34.6438
34.6425
34.6409
34.6388
34.6373
0
34.677
34.677
34.6734
34.6742
34.6696
34.6002
34.5971
34.6252
34.6407
34.6466
34.6487
34.6489
34.6481
34.6471
34.6461
34.645
34.6438
34.6425
34.6409
34.6388
34.6373
34.6373
34.6699
34.6699
34.6695
34.6698
34.6677
34.6489
34.6069
34.6177
34.6337
34.6428
34.6469
34.6478
34.6474
34.6467
34.6459
34.645
34.644
34.6428
34.6416
34.6402
34.6392
34.6392
34.6652
34.6652
34.6652
34.6651
34.6629
34.6509
34.6193
34.6177
34.6302
34.6398
34.6444
34.6458
34.6461
34.646
34.6456
34.645
34.6443
34.6434
34.6425
34.6417
34.641
34.641
34.662
34.662
34.6624
34.663
34.6638
34.6588
34.6415
34.6325
34.635
34.6383
34.6413
34.6436
34.6449
34.6454
34.6454
34.6451
34.6446
34.644
34.6434
34.6429
34.6424
34.6424
34.6595
34.6595
34.6602
34.6614
34.6642
34.6663
34.656
34.6434
34.6359
34.6348
34.639
34.6424
34.6443
34.6451
34.6454
34.6453
34.645
34.6446
34.6442
34.6439
34.6435
34.6435
34.6575
34.6575
34.658
34.6588
34.6595
34.657
34.6488
34.6373
34.6326
34.6358
34.6401
34.643
34.6446
34.6454
34.6456
34.6456
34.6454
34.6452
34.6449
34.6448
34.6445
34.6445
34.6558
34.6558
34.6561
34.6564
34.6564
34.6547
34.6501
34.6457
34.645
34.644
34.6442
34.645
34.6456
34.6459
34.646
34.646
34.6458
34.6457
34.6456
34.6455
34.6452
34.6452
34.6544
34.6544
34.6547
34.655
34.6552
34.6555
34.6564
34.6575
34.6532
34.6493
34.6474
34.6468
34.6466
34.6466
34.6465
34.6464
34.6463
34.6462
34.6462
34.6461
34.6459
34.6459
34.6534
34.6534
34.6536
34.6539
34.6543
34.6549
34.6558
34.6557
34.6533
34.6507
34.6489
34.6479
34.6474
34.6472
34.647
34.6468
34.6467
34.6467
34.6467
34.6467
34.6464
34.6464
34.6525
34.6525
34.6528
34.653
34.6533
34.6537
34.6539
34.6536
34.6523
34.6507
34.6494
34.6485
34.648
34.6476
34.6474
34.6472
34.6472
34.6471
34.6471
34.6471
34.6469
34.6469
34.6519
34.6519
34.6521
34.6523
34.6524
34.6526
34.6526
34.6522
34.6514
34.6504
34.6495
34.6488
34.6483
34.648
34.6477
34.6476
34.6475
34.6475
34.6474
34.6475
34.6473
34.6473
34.6513
34.6513
34.6515
34.6517
34.6517
34.6518
34.6516
34.6513
34.6508
34.6501
34.6494
34.6489
34.6485
34.6482
34.648
34.6479
34.6478
34.6478
34.6477
34.6478
34.6476
34.6476
34.6509
34.6509
34.6511
34.6512
34.6512
34.6511
34.651
34.6507
34.6503
34.6498
34.6493
34.6489
34.6486
34.6484
34.6482
34.6481
34.6481
34.648
34.648
34.648
34.6479
34.6479
34.6507
34.6507
34.6508
34.6508
34.6507
34.6506
34.6505
34.6502
34.6499
34.6496
34.6492
34.6489
34.6487
34.6485
34.6484
34.6483
34.6483
34.6483
34.6482
34.6483
34.6482
34.6482
34.6506
34.6506
34.6506
34.6505
34.6504
34.6502
34.6501
34.6499
34.6497
34.6494
34.6491
34.6489
34.6487
34.6485
34.6485
34.6484
34.6484
34.6484
34.6485
34.6485
34.6485
34.6485
0
34.6506
34.6506
34.6505
34.6504
34.6502
34.6501
34.6499
34.6497
34.6494
34.6491
34.6489
34.6487
34.6485
34.6485
34.6484
34.6484
34.6484
34.6485
34.6485
34.6485
0
0
34.6791
34.6777
34.6877
34.7202
34.6331
34.5492
34.6209
34.646
34.6515
34.652
34.6508
34.6488
34.6471
34.6459
34.6449
34.6438
34.6425
34.6409
34.6388
34.6373
0
34.6791
34.6791
34.6777
34.6877
34.7202
34.6331
34.5492
34.6209
34.646
34.6515
34.652
34.6508
34.6488
34.6471
34.6459
34.6449
34.6438
34.6425
34.6409
34.6388
34.6373
34.6373
34.6715
34.6715
34.6723
34.6772
34.6972
34.6635
34.5811
34.6051
34.6337
34.647
34.6506
34.65
34.6481
34.6466
34.6457
34.6449
34.644
34.6429
34.6416
34.6402
34.6392
34.6392
34.6664
34.6664
34.667
34.6684
34.671
34.6573
34.5939
34.5892
34.6205
34.6403
34.6463
34.6468
34.6462
34.6458
34.6455
34.6449
34.6442
34.6434
34.6425
34.6418
34.641
34.641
34.6629
34.6629
34.6637
34.6656
34.6691
34.6782
34.6347
34.6148
34.6322
34.6386
34.6402
34.6425
34.6443
34.6451
34.6453
34.645
34.6446
34.644
34.6434
34.643
34.6424
34.6424
34.6603
34.6603
34.6613
34.6642
34.6735
34.6997
34.6682
34.6426
34.6353
34.6294
34.6335
34.64
34.6435
34.6449
34.6453
34.6452
34.6449
34.6446
34.6442
34.6439
34.6435
34.6435
34.6581
34.6581
34.6589
34.6605
34.6643
34.6728
34.6478
34.627
34.6237
34.6249
34.6345
34.6413
34.6441
34.6452
34.6455
34.6455
34.6454
34.6451
34.6449
34.6447
34.6444
34.6444
34.6563
34.6563
34.6568
34.6574
34.658
34.6563
34.646
34.6436
34.6422
34.64
34.6426
34.6444
34.6454
34.6458
34.646
34.6459
34.6458
34.6457
34.6455
34.6454
34.6452
34.6452
34.6549
34.6549
34.6552
34.6556
34.6561
34.6572
34.6608
34.6703
34.6607
34.651
34.6476
34.6468
34.6466
34.6466
34.6465
34.6464
34.6463
34.6462
34.6461
34.6461
34.6458
34.6458
34.6537
34.6537
34.654
34.6543
34.655
34.6566
34.6612
34.6662
34.6588
34.6524
34.6494
34.6481
34.6475
34.6472
34.647
34.6468
34.6467
34.6466
34.6466
34.6466
34.6464
34.6464
34.6528
34.6528
34.6531
34.6533
34.6538
34.6547
34.6565
34.6575
34.6546
34.6517
34.6498
34.6487
34.648
34.6477
34.6474
34.6473
34.6471
34.6471
34.647
34.647
34.6468
34.6468
34.6521
34.6521
34.6524
34.6525
34.6528
34.6531
34.6535
34.6535
34.6523
34.6509
34.6497
34.6489
34.6484
34.648
34.6478
34.6476
34.6475
34.6474
34.6474
34.6474
34.6472
34.6472
34.6516
34.6516
34.6518
34.6519
34.652
34.652
34.652
34.6518
34.6511
34.6503
34.6496
34.649
34.6486
34.6483
34.6481
34.6479
34.6478
34.6477
34.6477
34.6477
34.6476
34.6476
34.6511
34.6511
34.6513
34.6514
34.6514
34.6513
34.6512
34.6509
34.6505
34.65
34.6495
34.6491
34.6487
34.6485
34.6483
34.6481
34.6481
34.648
34.648
34.648
34.6479
34.6479
34.6508
34.6508
34.651
34.651
34.6509
34.6508
34.6506
34.6504
34.6501
34.6497
34.6494
34.6491
34.6488
34.6486
34.6484
34.6483
34.6483
34.6482
34.6482
34.6483
34.6482
34.6482
34.6507
34.6507
34.6507
34.6506
34.6505
34.6504
34.6502
34.6501
34.6498
34.6496
34.6493
34.649
34.6488
34.6487
34.6486
34.6485
34.6485
34.6485
34.6485
34.6485
34.6484
34.6484
0
34.6507
34.6507
34.6506
34.6505
34.6504
34.6502
34.6501
34.6498
34.6496
34.6493
34.649
34.6488
34.6487
34.6486
34.6485
34.6485
34.6485
34.6485
34.6485
34.6484
0
0
34.6776
34.6741
34.6752
34.6717
34.6128
34.598
34.6247
34.6404
34.6462
34.6483
34.6487
34.6481
34.6471
34.646
34.645
34.6438
34.6425
34.6409
34.6388
34.6373
0
34.6776
34.6776
34.6741
34.6752
34.6717
34.6128
34.598
34.6247
34.6404
34.6462
34.6483
34.6487
34.6481
34.6471
34.646
34.645
34.6438
34.6425
34.6409
34.6388
34.6373
34.6373
34.6704
34.6704
34.6698
34.6699
34.6664
34.6383
34.6081
34.6191
34.6348
34.6431
34.6467
34.6477
34.6473
34.6466
34.6458
34.6449
34.644
34.6429
34.6416
34.6403
34.6392
34.6392
34.6657
34.6657
34.6656
34.6652
34.6623
34.6485
34.6198
34.6178
34.6296
34.6394
34.6443
34.6459
34.6461
34.6459
34.6455
34.6449
34.6442
34.6434
34.6425
34.6418
34.641
34.641
34.6624
34.6624
34.6628
34.6632
34.6637
34.6574
34.6381
34.6313
34.6344
34.6386
34.6418
34.6438
34.6449
34.6453
34.6453
34.645
34.6445
34.644
34.6434
34.6429
34.6424
34.6424
34.66
34.66
34.6606
34.6618
34.6643
34.6658
34.6546
34.6425
34.6368
34.6362
34.6393
34.6425
34.6443
34.6451
34.6453
34.6452
34.6449
34.6446
34.6442
34.6439
34.6435
34.6435
34.6579
34.6579
34.6585
34.6593
34.6604
34.6603
34.651
34.6396
34.6342
34.6357
34.6401
34.6431
34.6447
34.6454
34.6456
34.6456
34.6454
34.6451
34.6449
34.6447
34.6444
34.6444
34.6562
34.6562
34.6566
34.657
34.6571
34.656
34.6512
34.6443
34.6427
34.6432
34.6441
34.645
34.6457
34.646
34.646
34.646
34.6458
34.6457
34.6455
34.6454
34.6451
34.6451
34.6549
34.6549
34.6551
34.6554
34.6556
34.6558
34.6557
34.6555
34.6524
34.6491
34.6474
34.6469
34.6467
34.6466
34.6465
34.6464
34.6463
34.6462
34.6461
34.646
34.6458
34.6458
34.6538
34.6538
34.654
34.6543
34.6546
34.6552
34.6562
34.6567
34.6539
34.6509
34.649
34.648
34.6475
34.6472
34.647
34.6469
34.6467
34.6466
34.6465
34.6465
34.6463
34.6463
34.6529
34.6529
34.6531
34.6533
34.6536
34.654
34.6546
34.6546
34.653
34.6511
34.6496
34.6487
34.6481
34.6477
34.6475
34.6473
34.6471
34.647
34.647
34.647
34.6468
34.6468
34.6522
34.6522
34.6524
34.6526
34.6527
34.6529
34.653
34.6528
34.6518
34.6507
34.6497
34.649
34.6484
34.6481
34.6478
34.6476
34.6475
34.6474
34.6474
34.6473
34.6472
34.6472
34.6517
34.6517
34.6519
34.6519
34.652
34.652
34.6519
34.6516
34.651
34.6503
34.6496
34.6491
34.6486
34.6483
34.6481
34.6479
34.6478
34.6477
34.6477
34.6477
34.6475
34.6475
34.6512
34.6512
34.6514
34.6514
34.6514
34.6513
34.6512
34.6509
34.6505
34.65
34.6496
34.6491
34.6488
34.6485
34.6483
34.6482
34.6481
34.648
34.648
34.648
34.6478
34.6478
34.651
34.651
34.6511
34.6511
34.651
34.6509
34.6507
34.6505
34.6502
34.6498
34.6495
34.6491
34.6489
34.6487
34.6485
34.6484
34.6483
34.6482
34.6482
34.6482
34.6481
34.6481
34.6509
34.6509
34.6509
34.6508
34.6506
34.6505
34.6503
34.6502
34.65
34.6497
34.6494
34.6492
34.6489
34.6488
34.6486
34.6485
34.6485
34.6485
34.6485
34.6485
34.6484
34.6484
0
34.6509
34.6509
34.6508