# vtk DataFile Version 3.0
FlowField
ASCII
DATASET STRUCTURED_GRID
DIMENSIONS 102 12 1 
POINTS 1224 double
0 0 0
0.3 0 0
0.6 0 0
0.9 0 0
1.2 0 0
1.5 0 0
1.8 0 0
2.1 0 0
2.4 0 0
2.7 0 0
3 0 0
3.3 0 0
3.6 0 0
3.9 0 0
4.2 0 0
4.5 0 0
4.8 0 0
5.1 0 0
5.4 0 0
5.7 0 0
6 0 0
6.3 0 0
6.6 0 0
6.9 0 0
7.2 0 0
7.5 0 0
7.8 0 0
8.1 0 0
8.4 0 0
8.7 0 0
9 0 0
9.3 0 0
9.6 0 0
9.9 0 0
10.2 0 0
10.5 0 0
10.8 0 0
11.1 0 0
11.4 0 0
11.7 0 0
12 0 0
12.3 0 0
12.6 0 0
12.9 0 0
13.2 0 0
13.5 0 0
13.8 0 0
14.1 0 0
14.4 0 0
14.7 0 0
15 0 0
15.3 0 0
15.6 0 0
15.9 0 0
16.2 0 0
16.5 0 0
16.8 0 0
17.1 0 0
17.4 0 0
17.7 0 0
18 0 0
18.3 0 0
18.6 0 0
18.9 0 0
19.2 0 0
19.5 0 0
19.8 0 0
20.1 0 0
20.4 0 0
20.7 0 0
21 0 0
21.3 0 0
21.6 0 0
21.9 0 0
22.2 0 0
22.5 0 0
22.8 0 0
23.1 0 0
23.4 0 0
23.7 0 0
24 0 0
24.3 0 0
24.6 0 0
24.9 0 0
25.2 0 0
25.5 0 0
25.8 0 0
26.1 0 0
26.4 0 0
26.7 0 0
27 0 0
27.3 0 0
27.6 0 0
27.9 0 0
28.2 0 0
28.5 0 0
28.8 0 0
29.1 0 0
29.4 0 0
29.7 0 0
30 0 0
30.3 0 0
0 0.1 0
0.3 0.1 0
0.6 0.1 0
0.9 0.1 0
1.2 0.1 0
1.5 0.1 0
1.8 0.1 0
2.1 0.1 0
2.4 0.1 0
2.7 0.1 0
3 0.1 0
3.3 0.1 0
3.6 0.1 0
3.9 0.1 0
4.2 0.1 0
4.5 0.1 0
4.8 0.1 0
5.1 0.1 0
5.4 0.1 0
5.7 0.1 0
6 0.1 0
6.3 0.1 0
6.6 0.1 0
6.9 0.1 0
7.2 0.1 0
7.5 0.1 0
7.8 0.1 0
8.1 0.1 0
8.4 0.1 0
8.7 0.1 0
9 0.1 0
9.3 0.1 0
9.6 0.1 0
9.9 0.1 0
10.2 0.1 0
10.5 0.1 0
10.8 0.1 0
11.1 0.1 0
11.4 0.1 0
11.7 0.1 0
12 0.1 0
12.3 0.1 0
12.6 0.1 0
12.9 0.1 0
13.2 0.1 0
13.5 0.1 0
13.8 0.1 0
14.1 0.1 0
14.4 0.1 0
14.7 0.1 0
15 0.1 0
15.3 0.1 0
15.6 0.1 0
15.9 0.1 0
16.2 0.1 0
16.5 0.1 0
16.8 0.1 0
17.1 0.1 0
17.4 0.1 0
17.7 0.1 0
18 0.1 0
18.3 0.1 0
18.6 0.1 0
18.9 0.1 0
19.2 0.1 0
19.5 0.1 0
19.8 0.1 0
20.1 0.1 0
20.4 0.1 0
20.7 0.1 0
21 0.1 0
21.3 0.1 0
21.6 0.1 0
21.9 0.1 0
22.2 0.1 0
22.5 0.1 0
22.8 0.1 0
23.1 0.1 0
23.4 0.1 0
23.7 0.1 0
24 0.1 0
24.3 0.1 0
24.6 0.1 0
24.9 0.1 0
25.2 0.1 0
25.5 0.1 0
25.8 0.1 0
26.1 0.1 0
26.4 0.1 0
26.7 0.1 0
27 0.1 0
27.3 0.1 0
27.6 0.1 0
27.9 0.1 0
28.2 0.1 0
28.5 0.1 0
28.8 0.1 0
29.1 0.1 0
29.4 0.1 0
29.7 0.1 0
30 0.1 0
30.3 0.1 0
0 0.2 0
0.3 0.2 0
0.6 0.2 0
0.9 0.2 0
1.2 0.2 0
1.5 0.2 0
1.8 0.2 0
2.1 0.2 0
2.4 0.2 0
2.7 0.2 0
3 0.2 0
3.3 0.2 0
3.6 0.2 0
3.9 0.2 0
4.2 0.2 0
4.5 0.2 0
4.8 0.2 0
5.1 0.2 0
5.4 0.2 0
5.7 0.2 0
6 0.2 0
6.3 0.2 0
6.6 0.2 0
6.9 0.2 0
7.2 0.2 0
7.5 0.2 0
7.8 0.2 0
8.1 0.2 0
8.4 0.2 0
8.7 0.2 0
9 0.2 0
9.3 0.2 0
9.6 0.2 0
9.9 0.2 0
10.2 0.2 0
10.5 0.2 0
10.8 0.2 0
11.1 0.2 0
11.4 0.2 0
11.7 0.2 0
12 0.2 0
12.3 0.2 0
12.6 0.2 0
12.9 0.2 0
13.2 0.2 0
13.5 0.2 0
13.8 0.2 0
14.1 0.2 0
14.4 0.2 0
14.7 0.2 0
15 0.2 0
15.3 0.2 0
15.6 0.2 0
15.9 0.2 0
16.2 0.2 0
16.5 0.2 0
16.8 0.2 0
17.1 0.2 0
17.4 0.2 0
17.7 0.2 0
18 0.2 0
18.3 0.2 0
18.6 0.2 0
18.9 0.2 0
19.2 0.2 0
19.5 0.2 0
19.8 0.2 0
20.1 0.2 0
20.4 0.2 0
20.7 0.2 0
21 0.2 0
21.3 0.2 0
21.6 0.2 0
21.9 0.2 0
22.2 0.2 0
22.5 0.2 0
22.8 0.2 0
23.1 0.2 0
23.4 0.2 0
23.7 0.2 0
24 0.2 0
24.3 0.2 0
24.6 0.2 0
24.9 0.2 0
25.2 0.2 0
25.5 0.2 0
25.8 0.2 0
26.1 0.2 0
26.4 0.2 0
26.7 0.2 0
27 0.2 0
27.3 0.2 0
27.6 0.2 0
27.9 0.2 0
28.2 0.2 0
28.5 0.2 0
28.8 0.2 0
29.1 0.2 0
29.4 0.2 0
29.7 0.2 0
30 0.2 0
30.3 0.2 0
0 0.3 0
0.3 0.3 0
0.6 0.3 0
0.9 0.3 0
1.2 0.3 0
1.5 0.3 0
1.8 0.3 0
2.1 0.3 0
2.4 0.3 0
2.7 0.3 0
3 0.3 0
3.3 0.3 0
3.6 0.3 0
3.9 0.3 0
4.2 0.3 0
4.5 0.3 0
4.8 0.3 0
5.1 0.3 0
5.4 0.3 0
5.7 0.3 0
6 0.3 0
6.3 0.3 0
6.6 0.3 0
6.9 0.3 0
7.2 0.3 0
7.5 0.3 0
7.8 0.3 0
8.1 0.3 0
8.4 0.3 0
8.7 0.3 0
9 0.3 0
9.3 0.3 0
9.6 0.3 0
9.9 0.3 0
10.2 0.3 0
10.5 0.3 0
10.8 0.3 0
11.1 0.3 0
11.4 0.3 0
11.7 0.3 0
12 0.3 0
12.3 0.3 0
12.6 0.3 0
12.9 0.3 0
13.2 0.3 0
13.5 0.3 0
13.8 0.3 0
14.1 0.3 0
14.4 0.3 0
14.7 0.3 0
15 0.3 0
15.3 0.3 0
15.6 0.3 0
15.9 0.3 0
16.2 0.3 0
16.5 0.3 0
16.8 0.3 0
17.1 0.3 0
17.4 0.3 0
17.7 0.3 0
18 0.3 0
18.3 0.3 0
18.6 0.3 0
18.9 0.3 0
19.2 0.3 0
19.5 0.3 0
19.8 0.3 0
20.1 0.3 0
20.4 0.3 0
20.7 0.3 0
21 0.3 0
21.3 0.3 0
21.6 0.3 0
21.9 0.3 0
22.2 0.3 0
22.5 0.3 0
22.8 0.3 0
23.1 0.3 0
23.4 0.3 0
23.7 0.3 0
24 0.3 0
24.3 0.3 0
24.6 0.3 0
24.9 0.3 0
25.2 0.3 0
25.5 0.3 0
25.8 0.3 0
26.1 0.3 0
26.4 0.3 0
26.7 0.3 0
27 0.3 0
27.3 0.3 0
27.6 0.3 0
27.9 0.3 0
28.2 0.3 0
28.5 0.3 0
28.8 0.3 0
29.1 0.3 0
29.4 0.3 0
29.7 0.3 0
30 0.3 0
30.3 0.3 0
0 0.4 0
0.3 0.4 0
0.6 0.4 0
0.9 0.4 0
1.2 0.4 0
1.5 0.4 0
1.8 0.4 0
2.1 0.4 0
2.4 0.4 0
2.7 0.4 0
3 0.4 0
3.3 0.4 0
3.6 0.4 0
3.9 0.4 0
4.2 0.4 0
4.5 0.4 0
4.8 0.4 0
5.1 0.4 0
5.4 0.4 0
5.7 0.4 0
6 0.4 0
6.3 0.4 0
6.6 0.4 0
6.9 0.4 0
7.2 0.4 0
7.5 0.4 0
7.8 0.4 0
8.1 0.4 0
8.4 0.4 0
8.7 0.4 0
9 0.4 0
9.3 0.4 0
9.6 0.4 0
9.9 0.4 0
10.2 0.4 0
10.5 0.4 0
10.8 0.4 0
11.1 0.4 0
11.4 0.4 0
11.7 0.4 0
12 0.4 0
12.3 0.4 0
12.6 0.4 0
12.9 0.4 0
13.2 0.4 0
13.5 0.4 0
13.8 0.4 0
14.1 0.4 0
14.4 0.4 0
14.7 0.4 0
15 0.4 0
15.3 0.4 0
15.6 0.4 0
15.9 0.4 0
16.2 0.4 0
16.5 0.4 0
16.8 0.4 0
17.1 0.4 0
17.4 0.4 0
17.7 0.4 0
18 0.4 0
18.3 0.4 0
18.6 0.4 0
18.9 0.4 0
19.2 0.4 0
19.5 0.4 0
19.8 0.4 0
20.1 0.4 0
20.4 0.4 0
20.7 0.4 0
21 0.4 0
21.3 0.4 0
21.6 0.4 0
21.9 0.4 0
22.2 0.4 0
22.5 0.4 0
22.8 0.4 0
23.1 0.4 0
23.4 0.4 0
23.7 0.4 0
24 0.4 0
24.3 0.4 0
24.6 0.4 0
24.9 0.4 0
25.2 0.4 0
25.5 0.4 0
25.8 0.4 0
26.1 0.4 0
26.4 0.4 0
26.7 0.4 0
27 0.4 0
27.3 0.4 0
27.6 0.4 0
27.9 0.4 0
28.2 0.4 0
28.5 0.4 0
28.8 0.4 0
29.1 0.4 0
29.4 0.4 0
29.7 0.4 0
30 0.4 0
30.3 0.4 0
0 0.5 0
0.3 0.5 0
0.6 0.5 0
0.9 0.5 0
1.2 0.5 0
1.5 0.5 0
1.8 0.5 0
2.1 0.5 0
2.4 0.5 0
2.7 0.5 0
3 0.5 0
3.3 0.5 0
3.6 0.5 0
3.9 0.5 0
4.2 0.5 0
4.5 0.5 0
4.8 0.5 0
5.1 0.5 0
5.4 0.5 0
5.7 0.5 0
6 0.5 0
6.3 0.5 0
6.6 0.5 0
6.9 0.5 0
7.2 0.5 0
7.5 0.5 0
7.8 0.5 0
8.1 0.5 0
8.4 0.5 0
8.7 0.5 0
9 0.5 0
9.3 0.5 0
9.6 0.5 0
9.9 0.5 0
10.2 0.5 0
10.5 0.5 0
10.8 0.5 0
11.1 0.5 0
11.4 0.5 0
11.7 0.5 0
12 0.5 0
12.3 0.5 0
12.6 0.5 0
12.9 0.5 0
13.2 0.5 0
13.5 0.5 0
13.8 0.5 0
14.1 0.5 0
14.4 0.5 0
14.7 0.5 0
15 0.5 0
15.3 0.5 0
15.6 0.5 0
15.9 0.5 0
16.2 0.5 0
16.5 0.5 0
16.8 0.5 0
17.1 0.5 0
17.4 0.5 0
17.7 0.5 0
18 0.5 0
18.3 0.5 0
18.6 0.5 0
18.9 0.5 0
19.2 0.5 0
19.5 0.5 0
19.8 0.5 0
20.1 0.5 0
20.4 0.5 0
20.7 0.5 0
21 0.5 0
21.3 0.5 0
21.6 0.5 0
21.9 0.5 0
22.2 0.5 0
22.5 0.5 0
22.8 0.5 0
23.1 0.5 0
23.4 0.5 0
23.7 0.5 0
24 0.5 0
24.3 0.5 0
24.6 0.5 0
24.9 0.5 0
25.2 0.5 0
25.5 0.5 0
25.8 0.5 0
26.1 0.5 0
26.4 0.5 0
26.7 0.5 0
27 0.5 0
27.3 0.5 0
27.6 0.5 0
27.9 0.5 0
28.2 0.5 0
28.5 0.5 0
28.8 0.5 0
29.1 0.5 0
29.4 0.5 0
29.7 0.5 0
30 0.5 0
30.3 0.5 0
0 0.6 0
0.3 0.6 0
0.6 0.6 0
0.9 0.6 0
1.2 0.6 0
1.5 0.6 0
1.8 0.6 0
2.1 0.6 0
2.4 0.6 0
2.7 0.6 0
3 0.6 0
3.3 0.6 0
3.6 0.6 0
3.9 0.6 0
4.2 0.6 0
4.5 0.6 0
4.8 0.6 0
5.1 0.6 0
5.4 0.6 0
5.7 0.6 0
6 0.6 0
6.3 0.6 0
6.6 0.6 0
6.9 0.6 0
7.2 0.6 0
7.5 0.6 0
7.8 0.6 0
8.1 0.6 0
8.4 0.6 0
8.7 0.6 0
9 0.6 0
9.3 0.6 0
9.6 0.6 0
9.9 0.6 0
10.2 0.6 0
10.5 0.6 0
10.8 0.6 0
11.1 0.6 0
11.4 0.6 0
11.7 0.6 0
12 0.6 0
12.3 0.6 0
12.6 0.6 0
12.9 0.6 0
13.2 0.6 0
13.5 0.6 0
13.8 0.6 0
14.1 0.6 0
14.4 0.6 0
14.7 0.6 0
15 0.6 0
15.3 0.6 0
15.6 0.6 0
15.9 0.6 0
16.2 0.6 0
16.5 0.6 0
16.8 0.6 0
17.1 0.6 0
17.4 0.6 0
17.7 0.6 0
18 0.6 0
18.3 0.6 0
18.6 0.6 0
18.9 0.6 0
19.2 0.6 0
19.5 0.6 0
19.8 0.6 0
20.1 0.6 0
20.4 0.6 0
20.7 0.6 0
21 0.6 0
21.3 0.6 0
21.6 0.6 0
21.9 0.6 0
22.2 0.6 0
22.5 0.6 0
22.8 0.6 0
23.1 0.6 0
23.4 0.6 0
23.7 0.6 0
24 0.6 0
24.3 0.6 0
24.6 0.6 0
24.9 0.6 0
25.2 0.6 0
25.5 0.6 0
25.8 0.6 0
26.1 0.6 0
26.4 0.6 0
26.7 0.6 0
27 0.6 0
27.3 0.6 0
27.6 0.6 0
27.9 0.6 0
28.2 0.6 0
28.5 0.6 0
28.8 0.6 0
29.1 0.6 0
29.4 0.6 0
29.7 0.6 0
30 0.6 0
30.3 0.6 0
0 0.7 0
0.3 0.7 0
0.6 0.7 0
0.9 0.7 0
1.2 0.7 0
1.5 0.7 0
1.8 0.7 0
2.1 0.7 0
2.4 0.7 0
2.7 0.7 0
3 0.7 0
3.3 0.7 0
3.6 0.7 0
3.9 0.7 0
4.2 0.7 0
4.5 0.7 0
4.8 0.7 0
5.1 0.7 0
5.4 0.7 0
5.7 0.7 0
6 0.7 0
6.3 0.7 0
6.6 0.7 0
6.9 0.7 0
7.2 0.7 0
7.5 0.7 0
7.8 0.7 0
8.1 0.7 0
8.4 0.7 0
8.7 0.7 0
9 0.7 0
9.3 0.7 0
9.6 0.7 0
9.9 0.7 0
10.2 0.7 0
10.5 0.7 0
10.8 0.7 0
11.1 0.7 0
11.4 0.7 0
11.7 0.7 0
12 0.7 0
12.3 0.7 0
12.6 0.7 0
12.9 0.7 0
13.2 0.7 0
13.5 0.7 0
13.8 0.7 0
14.1 0.7 0
14.4 0.7 0
14.7 0.7 0
15 0.7 0
15.3 0.7 0
15.6 0.7 0
15.9 0.7 0
16.2 0.7 0
16.5 0.7 0
16.8 0.7 0
17.1 0.7 0
17.4 0.7 0
17.7 0.7 0
18 0.7 0
18.3 0.7 0
18.6 0.7 0
18.9 0.7 0
19.2 0.7 0
19.5 0.7 0
19.8 0.7 0
20.1 0.7 0
20.4 0.7 0
20.7 0.7 0
21 0.7 0
21.3 0.7 0
21.6 0.7 0
21.9 0.7 0
22.2 0.7 0
22.5 0.7 0
22.8 0.7 0
23.1 0.7 0
23.4 0.7 0
23.7 0.7 0
24 0.7 0
24.3 0.7 0
24.6 0.7 0
24.9 0.7 0
25.2 0.7 0
25.5 0.7 0
25.8 0.7 0
26.1 0.7 0
26.4 0.7 0
26.7 0.7 0
27 0.7 0
27.3 0.7 0
27.6 0.7 0
27.9 0.7 0
28.2 0.7 0
28.5 0.7 0
28.8 0.7 0
29.1 0.7 0
29.4 0.7 0
29.7 0.7 0
30 0.7 0
30.3 0.7 0
0 0.8 0
0.3 0.8 0
0.6 0.8 0
0.9 0.8 0
1.2 0.8 0
1.5 0.8 0
1.8 0.8 0
2.1 0.8 0
2.4 0.8 0
2.7 0.8 0
3 0.8 0
3.3 0.8 0
3.6 0.8 0
3.9 0.8 0
4.2 0.8 0
4.5 0.8 0
4.8 0.8 0
5.1 0.8 0
5.4 0.8 0
5.7 0.8 0
6 0.8 0
6.3 0.8 0
6.6 0.8 0
6.9 0.8 0
7.2 0.8 0
7.5 0.8 0
7.8 0.8 0
8.1 0.8 0
8.4 0.8 0
8.7 0.8 0
9 0.8 0
9.3 0.8 0
9.6 0.8 0
9.9 0.8 0
10.2 0.8 0
10.5 0.8 0
10.8 0.8 0
11.1 0.8 0
11.4 0.8 0
11.7 0.8 0
12 0.8 0
12.3 0.8 0
12.6 0.8 0
12.9 0.8 0
13.2 0.8 0
13.5 0.8 0
13.8 0.8 0
14.1 0.8 0
14.4 0.8 0
14.7 0.8 0
15 0.8 0
15.3 0.8 0
15.6 0.8 0
15.9 0.8 0
16.2 0.8 0
16.5 0.8 0
16.8 0.8 0
17.1 0.8 0
17.4 0.8 0
17.7 0.8 0
18 0.8 0
18.3 0.8 0
18.6 0.8 0
18.9 0.8 0
19.2 0.8 0
19.5 0.8 0
19.8 0.8 0
20.1 0.8 0
20.4 0.8 0
20.7 0.8 0
21 0.8 0
21.3 0.8 0
21.6 0.8 0
21.9 0.8 0
22.2 0.8 0
22.5 0.8 0
22.8 0.8 0
23.1 0.8 0
23.4 0.8 0
23.7 0.8 0
24 0.8 0
24.3 0.8 0
24.6 0.8 0
24.9 0.8 0
25.2 0.8 0
25.5 0.8 0
25.8 0.8 0
26.1 0.8 0
26.4 0.8 0
26.7 0.8 0
27 0.8 0
27.3 0.8 0
27.6 0.8 0
27.9 0.8 0
28.2 0.8 0
28.5 0.8 0
28.8 0.8 0
29.1 0.8 0
29.4 0.8 0
29.7 0.8 0
30 0.8 0
30.3 0.8 0
0 0.9 0
0.3 0.9 0
0.6 0.9 0
0.9 0.9 0
1.2 0.9 0
1.5 0.9 0
1.8 0.9 0
2.1 0.9 0
2.4 0.9 0
2.7 0.9 0
3 0.9 0
3.3 0.9 0
3.6 0.9 0
3.9 0.9 0
4.2 0.9 0
4.5 0.9 0
4.8 0.9 0
5.1 0.9 0
5.4 0.9 0
5.7 0.9 0
6 0.9 0
6.3 0.9 0
6.6 0.9 0
6.9 0.9 0
7.2 0.9 0
7.5 0.9 0
7.8 0.9 0
8.1 0.9 0
8.4 0.9 0
8.7 0.9 0
9 0.9 0
9.3 0.9 0
9.6 0.9 0
9.9 0.9 0
10.2 0.9 0
10.5 0.9 0
10.8 0.9 0
11.1 0.9 0
11.4 0.9 0
11.7 0.9 0
12 0.9 0
12.3 0.9 0
12.6 0.9 0
12.9 0.9 0
13.2 0.9 0
13.5 0.9 0
13.8 0.9 0
14.1 0.9 0
14.4 0.9 0
14.7 0.9 0
15 0.9 0
15.3 0.9 0
15.6 0.9 0
15.9 0.9 0
16.2 0.9 0
16.5 0.9 0
16.8 0.9 0
17.1 0.9 0
17.4 0.9 0
17.7 0.9 0
18 0.9 0
18.3 0.9 0
18.6 0.9 0
18.9 0.9 0
19.2 0.9 0
19.5 0.9 0
19.8 0.9 0
20.1 0.9 0
20.4 0.9 0
20.7 0.9 0
21 0.9 0
21.3 0.9 0
21.6 0.9 0
21.9 0.9 0
22.2 0.9 0
22.5 0.9 0
22.8 0.9 0
23.1 0.9 0
23.4 0.9 0
23.7 0.9 0
24 0.9 0
24.3 0.9 0
24.6 0.9 0
24.9 0.9 0
25.2 0.9 0
25.5 0.9 0
25.8 0.9 0
26.1 0.9 0
26.4 0.9 0
26.7 0.9 0
27 0.9 0
27.3 0.9 0
27.6 0.9 0
27.9 0.9 0
28.2 0.9 0
28.5 0.9 0
28.8 0.9 0
29.1 0.9 0
29.4 0.9 0
29.7 0.9 0
30 0.9 0
30.3 0.9 0
0 1 0
0.3 1 0
0.6 1 0
0.9 1 0
1.2 1 0
1.5 1 0
1.8 1 0
2.1 1 0
2.4 1 0
2.7 1 0
3 1 0
3.3 1 0
3.6 1 0
3.9 1 0
4.2 1 0
4.5 1 0
4.8 1 0
5.1 1 0
5.4 1 0
5.7 1 0
6 1 0
6.3 1 0
6.6 1 0
6.9 1 0
7.2 1 0
7.5 1 0
7.8 1 0
8.1 1 0
8.4 1 0
8.7 1 0
9 1 0
9.3 1 0
9.6 1 0
9.9 1 0
10.2 1 0
10.5 1 0
10.8 1 0
11.1 1 0
11.4 1 0
11.7 1 0
12 1 0
12.3 1 0
12.6 1 0
12.9 1 0
13.2 1 0
13.5 1 0
13.8 1 0
14.1 1 0
14.4 1 0
14.7 1 0
15 1 0
15.3 1 0
15.6 1 0
15.9 1 0
16.2 1 0
16.5 1 0
16.8 1 0
17.1 1 0
17.4 1 0
17.7 1 0
18 1 0
18.3 1 0
18.6 1 0
18.9 1 0
19.2 1 0
19.5 1 0
19.8 1 0
20.1 1 0
20.4 1 0
20.7 1 0
21 1 0
21.3 1 0
21.6 1 0
21.9 1 0
22.2 1 0
22.5 1 0
22.8 1 0
23.1 1 0
23.4 1 0
23.7 1 0
24 1 0
24.3 1 0
24.6 1 0
24.9 1 0
25.2 1 0
25.5 1 0
25.8 1 0
26.1 1 0
26.4 1 0
26.7 1 0
27 1 0
27.3 1 0
27.6 1 0
27.9 1 0
28.2 1 0
28.5 1 0
28.8 1 0
29.1 1 0
29.4 1 0
29.7 1 0
30 1 0
30.3 1 0
0 1.1 0
0.3 1.1 0
0.6 1.1 0
0.9 1.1 0
1.2 1.1 0
1.5 1.1 0
1.8 1.1 0
2.1 1.1 0
2.4 1.1 0
2.7 1.1 0
3 1.1 0
3.3 1.1 0
3.6 1.1 0
3.9 1.1 0
4.2 1.1 0
4.5 1.1 0
4.8 1.1 0
5.1 1.1 0
5.4 1.1 0
5.7 1.1 0
6 1.1 0
6.3 1.1 0
6.6 1.1 0
6.9 1.1 0
7.2 1.1 0
7.5 1.1 0
7.8 1.1 0
8.1 1.1 0
8.4 1.1 0
8.7 1.1 0
9 1.1 0
9.3 1.1 0
9.6 1.1 0
9.9 1.1 0
10.2 1.1 0
10.5 1.1 0
10.8 1.1 0
11.1 1.1 0
11.4 1.1 0
11.7 1.1 0
12 1.1 0
12.3 1.1 0
12.6 1.1 0
12.9 1.1 0
13.2 1.1 0
13.5 1.1 0
13.8 1.1 0
14.1 1.1 0
14.4 1.1 0
14.7 1.1 0
15 1.1 0
15.3 1.1 0
15.6 1.1 0
15.9 1.1 0
16.2 1.1 0
16.5 1.1 0
16.8 1.1 0
17.1 1.1 0
17.4 1.1 0
17.7 1.1 0
18 1.1 0
18.3 1.1 0
18.6 1.1 0
18.9 1.1 0
19.2 1.1 0
19.5 1.1 0
19.8 1.1 0
20.1 1.1 0
20.4 1.1 0
20.7 1.1 0
21 1.1 0
21.3 1.1 0
21.6 1.1 0
21.9 1.1 0
22.2 1.1 0
22.5 1.1 0
22.8 1.1 0
23.1 1.1 0
23.4 1.1 0
23.7 1.1 0
24 1.1 0
24.3 1.1 0
24.6 1.1 0
24.9 1.1 0
25.2 1.1 0
25.5 1.1 0
25.8 1.1 0
26.1 1.1 0
26.4 1.1 0
26.7 1.1 0
27 1.1 0
27.3 1.1 0
27.6 1.1 0
27.9 1.1 0
28.2 1.1 0
28.5 1.1 0
28.8 1.1 0
29.1 1.1 0
29.4 1.1 0
29.7 1.1 0
30 1.1 0
30.3 1.1 0

POINT_DATA 1224

SCALARS pressure double
LOOKUP_TABLE pressure
1.54646
1.54646
1.47995
1.43287
1.38991
1.35021
1.3143
1.28263
1.25529
1.23183
1.21134
1.19279
1.17532
1.15835
1.14157
1.12485
1.10811
1.09137
1.07461
1.05785
1.04109
1.02432
1.00756
0.990795
0.974031
0.957267
0.940502
0.923738
0.906974
0.89021
0.873445
0.856681
0.839917
0.823153
0.806388
0.789624
0.77286
0.756096
0.739331
0.722567
0.705803
0.689039
0.672274
0.65551
0.638746
0.621982
0.605217
0.588453
0.571689
0.554924
0.53816
0.521396
0.504632
0.487867
0.471103
0.454339
0.437574
0.42081
0.404046
0.387282
0.370517
0.353753
0.336989
0.320224
0.30346
0.286696
0.269931
0.253167
0.236403
0.219638
0.202874
0.18611
0.169345
0.152581
0.135816
0.119052
0.102288
0.0855233
0.0687589
0.0519945
0.0352301
0.0184657
0.00170126
-0.0150632
-0.0318276
-0.0485921
-0.0653565
-0.082121
-0.0988855
-0.11565
-0.132414
-0.149179
-0.165943
-0.182708
-0.199473
-0.216237
-0.233002
-0.249765
-0.266534
-0.283286
-0.299908
0.299908
1.54646
1.54646
1.47995
1.43287
1.38991
1.35021
1.3143
1.28263
1.25529
1.23183
1.21134
1.19279
1.17532
1.15835
1.14157
1.12485
1.10811
1.09137
1.07461
1.05785
1.04109
1.02432
1.00756
0.990795
0.974031
0.957267
0.940502
0.923738
0.906974
0.89021
0.873445
0.856681
0.839917
0.823153
0.806388
0.789624
0.77286
0.756096
0.739331
0.722567
0.705803
0.689039
0.672274
0.65551
0.638746
0.621982
0.605217
0.588453
0.571689
0.554924
0.53816
0.521396
0.504632
0.487867
0.471103
0.454339
0.437574
0.42081
0.404046
0.387282
0.370517
0.353753
0.336989
0.320224
0.30346
0.286696
0.269931
0.253167
0.236403
0.219638
0.202874
0.18611
0.169345
0.152581
0.135816
0.119052
0.102288
0.0855233
0.0687589
0.0519945
0.0352301
0.0184657
0.00170126
-0.0150632
-0.0318276
-0.0485921
-0.0653565
-0.082121
-0.0988855
-0.11565
-0.132414
-0.149179
-0.165943
-0.182708
-0.199473
-0.216237
-0.233002
-0.249765
-0.266534
-0.283286
-0.299908
0.299908
1.52581
1.52581
1.47815
1.43319
1.39063
1.35098
1.31499
1.28317
1.25567
1.23206
1.21146
1.19285
1.17534
1.15836
1.14157
1.12485
1.10811
1.09137
1.07461
1.05785
1.04109
1.02432
1.00756
0.990795
0.974031
0.957267
0.940502
0.923738
0.906974
0.89021
0.873445
0.856681
0.839917
0.823153
0.806388
0.789624
0.77286
0.756096
0.739331
0.722567
0.705803
0.689039
0.672274
0.65551
0.638746
0.621982
0.605217
0.588453
0.571689
0.554924
0.53816
0.521396
0.504632
0.487867
0.471103
0.454339
0.437574
0.42081
0.404046
0.387282
0.370517
0.353753
0.336989
0.320224
0.30346
0.286696
0.269931
0.253167
0.236403
0.219638
0.202874
0.18611
0.169345
0.152581
0.135816
0.119052
0.102288
0.0855233
0.0687589
0.0519945
0.0352301
0.0184657
0.00170126
-0.0150632
-0.0318276
-0.0485921
-0.0653565
-0.082121
-0.0988855
-0.11565
-0.132414
-0.149179
-0.165943
-0.182708
-0.199472
-0.216237
-0.233001
-0.249763
-0.266527
-0.283274
-0.299909
0.299909
1.51142
1.51142
1.47565
1.43358
1.39176
1.35228
1.31623
1.28426
1.25653
1.23267
1.21184
1.19306
1.17544
1.1584
1.14159
1.12485
1.10811
1.09137
1.07461
1.05785
1.04109
1.02432
1.00756
0.990795
0.974031
0.957267
0.940502
0.923738
0.906974
0.89021
0.873445
0.856681
0.839917
0.823153
0.806388
0.789624
0.77286
0.756096
0.739331
0.722567
0.705803
0.689039
0.672274
0.65551
0.638746
0.621982
0.605217
0.588453
0.571689
0.554924
0.53816
0.521396
0.504632
0.487867
0.471103
0.454339
0.437574
0.42081
0.404046
0.387282
0.370517
0.353753
0.336989
0.320224
0.30346
0.286696
0.269931
0.253167
0.236403
0.219638
0.202874
0.18611
0.169345
0.152581
0.135816
0.119052
0.102288
0.0855233
0.0687589
0.0519945
0.0352301
0.0184657
0.00170125
-0.0150632
-0.0318276
-0.0485921
-0.0653565
-0.082121
-0.0988855
-0.11565
-0.132414
-0.149179
-0.165943
-0.182708
-0.199472
-0.216236
-0.233
-0.249758
-0.26651
-0.283214
-0.299895
0.299895
1.50273
1.50273
1.47363
1.43383
1.39269
1.35339
1.31735
1.28528
1.25737
1.23329
1.21225
1.19329
1.17556
1.15845
1.14161
1.12485
1.10811
1.09136
1.07461
1.05785
1.04109
1.02432
1.00756
0.990795
0.974031
0.957267
0.940502
0.923738
0.906974
0.89021
0.873445
0.856681
0.839917
0.823153
0.806388
0.789624
0.77286
0.756096
0.739331
0.722567
0.705803
0.689039
0.672274
0.65551
0.638746
0.621982
0.605217
0.588453
0.571689
0.554924
0.53816
0.521396
0.504632
0.487867
0.471103
0.454339
0.437574
0.42081
0.404046
0.387282
0.370517
0.353753
0.336989
0.320224
0.30346
0.286696
0.269931
0.253167
0.236403
0.219638
0.202874
0.18611
0.169345
0.152581
0.135816
0.119052
0.102288
0.0855233
0.0687589
0.0519945
0.0352301
0.0184657
0.00170125
-0.0150632
-0.0318276
-0.0485921
-0.0653565
-0.082121
-0.0988855
-0.11565
-0.132414
-0.149179
-0.165943
-0.182708
-0.199472
-0.216236
-0.232998
-0.249754
-0.266491
-0.283148
-0.299877
0.299877
1.49865
1.49865
1.47255
1.43395
1.39319
1.354
1.31796
1.28584
1.25784
1.23365
1.21249
1.19343
1.17563
1.15848
1.14162
1.12485
1.10811
1.09136
1.07461
1.05785
1.04109
1.02432
1.00756
0.990795
0.974031
0.957267
0.940502
0.923738
0.906974
0.89021
0.873445
0.856681
0.839917
0.823153
0.806388
0.789624
0.77286
0.756096
0.739331
0.722567
0.705803
0.689039
0.672274
0.65551
0.638746
0.621982
0.605217
0.588453
0.571689
0.554924
0.53816
0.521396
0.504632
0.487867
0.471103
0.454339
0.437574
0.42081
0.404046
0.387282
0.370517
0.353753
0.336989
0.320224
0.30346
0.286696
0.269931
0.253167
0.236403
0.219638
0.202874
0.18611
0.169345
0.152581
0.135816
0.119052
0.102288
0.0855233
0.0687589
0.0519945
0.0352301
0.0184657
0.00170125
-0.0150632
-0.0318276
-0.0485921
-0.0653565
-0.082121
-0.0988855
-0.11565
-0.132414
-0.149179
-0.165943
-0.182708
-0.199472
-0.216236
-0.232997
-0.249751
-0.266481
-0.28311
-0.299864
0.299864
1.49865
1.49865
1.47255
1.43395
1.39319
1.354
1.31796
1.28584
1.25784
1.23365
1.21249
1.19343
1.17563
1.15848
1.14162
1.12485
1.10811
1.09136
1.07461
1.05785
1.04109
1.02432
1.00756
0.990795
0.974031
0.957267
0.940502
0.923738
0.906974
0.89021
0.873445
0.856681
0.839917
0.823153
0.806388
0.789624
0.77286
0.756096
0.739331
0.722567
0.705803
0.689039
0.672274
0.65551
0.638746
0.621982
0.605217
0.588453
0.571689
0.554924
0.53816
0.521396
0.504632
0.487867
0.471103
0.454339
0.437574
0.42081
0.404046
0.387282
0.370517
0.353753
0.336989
0.320224
0.30346
0.286696
0.269931
0.253167
0.236403
0.219638
0.202874
0.18611
0.169345
0.152581
0.135816
0.119052
0.102288
0.0855233
0.0687589
0.0519945
0.0352301
0.0184657
0.00170125
-0.0150632
-0.0318276
-0.0485921
-0.0653565
-0.082121
-0.0988855
-0.11565
-0.132414
-0.149179
-0.165943
-0.182708
-0.199472
-0.216236
-0.232997
-0.249751
-0.266481
-0.28311
-0.299864
0.299864
1.50273
1.50273
1.47363
1.43383
1.39269
1.35339
1.31735
1.28528
1.25737
1.23329
1.21225
1.19329
1.17556
1.15845
1.14161
1.12485
1.10811
1.09136
1.07461
1.05785
1.04109
1.02432
1.00756
0.990795
0.974031
0.957267
0.940502
0.923738
0.906974
0.89021
0.873445
0.856681
0.839917
0.823153
0.806388
0.789624
0.77286
0.756096
0.739331
0.722567
0.705803
0.689039
0.672274
0.65551
0.638746
0.621982
0.605217
0.588453
0.571689
0.554924
0.53816
0.521396
0.504632
0.487867
0.471103
0.454339
0.437574
0.42081
0.404046
0.387282
0.370517
0.353753
0.336989
0.320224
0.30346
0.286696
0.269931
0.253167
0.236403
0.219638
0.202874
0.18611
0.169345
0.152581
0.135816
0.119052
0.102288
0.0855233
0.0687589
0.0519945
0.0352301
0.0184657
0.00170125
-0.0150632
-0.0318276
-0.0485921
-0.0653565
-0.082121
-0.0988855
-0.11565
-0.132414
-0.149179
-0.165943
-0.182708
-0.199472
-0.216236
-0.232998
-0.249754
-0.266491
-0.283148
-0.299877
0.299877
1.51142
1.51142
1.47565
1.43358
1.39176
1.35228
1.31623
1.28426
1.25653
1.23267
1.21184
1.19306
1.17544
1.1584
1.14159
1.12485
1.10811
1.09137
1.07461
1.05785
1.04109
1.02432
1.00756
0.990795
0.974031
0.957267
0.940502
0.923738
0.906974
0.89021
0.873445
0.856681
0.839917
0.823153
0.806388
0.789624
0.77286
0.756096
0.739331
0.722567
0.705803
0.689039
0.672274
0.65551
0.638746
0.621982
0.605217
0.588453
0.571689
0.554924
0.53816
0.521396
0.504632
0.487867
0.471103
0.454339
0.437574
0.42081
0.404046
0.387282
0.370517
0.353753
0.336989
0.320224
0.30346
0.286696
0.269931
0.253167
0.236403
0.219638
0.202874
0.18611
0.169345
0.152581
0.135816
0.119052
0.102288
0.0855233
0.0687589
0.0519945
0.0352301
0.0184657
0.00170124
-0.0150632
-0.0318276
-0.0485921
-0.0653565
-0.082121
-0.0988855
-0.11565
-0.132414
-0.149179
-0.165943
-0.182708
-0.199472
-0.216236
-0.233
-0.249758
-0.26651
-0.283214
-0.299895
0.299895
1.52581
1.52581
1.47815
1.43319
1.39063
1.35098
1.31499
1.28317
1.25567
1.23206
1.21146
1.19285
1.17534
1.15836
1.14157
1.12485
1.10811
1.09137
1.07461
1.05785
1.04109
1.02432
1.00756
0.990795
0.974031
0.957267
0.940502
0.923738
0.906974
0.89021
0.873445
0.856681
0.839917
0.823153
0.806388
0.789624
0.77286
0.756096
0.739331
0.722567
0.705803
0.689039
0.672274
0.65551
0.638746
0.621982
0.605217
0.588453
0.571689
0.554924
0.53816
0.521396
0.504632
0.487867
0.471103
0.454339
0.437574
0.42081
0.404046
0.387282
0.370517
0.353753
0.336989
0.320224
0.30346
0.286696
0.269931
0.253167
0.236403
0.219638
0.202874
0.18611
0.169345
0.152581
0.135816
0.119052
0.102288
0.0855233
0.0687589
0.0519945
0.0352301
0.0184657
0.00170124
-0.0150632
-0.0318276
-0.0485921
-0.0653566
-0.082121
-0.0988855
-0.11565
-0.132414
-0.149179
-0.165943
-0.182708
-0.199473
-0.216237
-0.233001
-0.249763
-0.266527
-0.283274
-0.299909
0.299909
1.54646
1.54646
1.47995
1.43287
1.38991
1.35021
1.3143
1.28263
1.25529
1.23183
1.21134
1.19279
1.17532
1.15835
1.14157
1.12485
1.10811
1.09137
1.07461
1.05785
1.04109
1.02432
1.00756
0.990795
0.974031
0.957267
0.940502
0.923738
0.906974
0.89021
0.873445
0.856681
0.839917
0.823153
0.806388
0.789624
0.77286
0.756096
0.739331
0.722567
0.705803
0.689039
0.672274
0.65551
0.638746
0.621982
0.605217
0.588453
0.571689
0.554924
0.53816
0.521396
0.504632
0.487867
0.471103
0.454339
0.437574
0.42081
0.404046
0.387282
0.370517
0.353753
0.336989
0.320224
0.30346
0.286696
0.269931
0.253167
0.236403
0.219638
0.202874
0.18611
0.169345
0.152581
0.135816
0.119052
0.102288
0.0855233
0.0687589
0.0519945
0.0352301
0.0184657
0.00170124
-0.0150632
-0.0318276
-0.0485921
-0.0653566
-0.082121
-0.0988855
-0.11565
-0.132414
-0.149179
-0.165943
-0.182708
-0.199473
-0.216237
-0.233002
-0.249765
-0.266534
-0.283286
-0.299908
0.299908
1.54646
1.54646
1.47995
1.43287
1.38991
1.35021
1.3143
1.28263
1.25529
1.23183
1.21134
1.19279
1.17532
1.15835
1.14157
1.12485
1.10811
1.09137
1.07461
1.05785
1.04109
1.02432
1.00756
0.990795
0.974031
0.957267
0.940502
0.923738
0.906974
0.89021
0.873445
0.856681
0.839917
0.823153
0.806388
0.789624
0.77286
0.756096
0.739331
0.722567
0.705803
0.689039
0.672274
0.65551
0.638746
0.621982
0.605217
0.588453
0.571689
0.554924
0.53816
0.521396
0.504632
0.487867
0.471103
0.454339
0.437574
0.42081
0.404046
0.387282
0.370517
0.353753
0.336989
0.320224
0.30346
0.286696
0.269931
0.253167
0.236403
0.219638
0.202874
0.18611
0.169345
0.152581
0.135816
0.119052
0.102288
0.0855233
0.0687589
0.0519945
0.0352301
0.0184657
0.00170124
-0.0150632
-0.0318276
-0.0485921
-0.0653566
-0.082121
-0.0988855
-0.11565
-0.132414
-0.149179
-0.165943
-0.182708
-0.199473
-0.216237
-0.233002
-0.249765
-0.266534
-0.283286
-0.299908
0.299908
SCALARS phi double
LOOKUP_TABLE phi
0.999793
1.00021
0.998657
1.00088
1.01225
0.995747
0.898887
0.725224
0.528171
0.355373
0.225066
0.135402
0.0775515
0.042255
0.0218742
0.0107487
0.00501262
0.00221972
0.00093427
0.000374212
0.000142835
5.20305e-05
1.81149e-05
6.03682e-06
1.92839e-06
5.91279e-07
1.74248e-07
4.94148e-08
1.35011e-08
3.55783e-09
9.05213e-10
2.22584e-10
5.29434e-11
1.21922e-11
2.72056e-12
5.88677e-13
1.2361e-13
2.52049e-14
4.99409e-15
9.62131e-16
1.80331e-16
3.2901e-17
5.84622e-18
1.01225e-18
1.70865e-19
2.81301e-20
4.51884e-21
7.08599e-22
1.08509e-22
1.62324e-23
2.37307e-24
3.39159e-25
4.74025e-26
6.48105e-27
8.67099e-28
1.13553e-28
1.456e-29
1.8284e-30
2.2493e-31
2.71143e-32
3.20355e-33
3.71064e-34
4.21454e-35
4.69497e-36
5.13083e-37
5.50182e-38
5.78996e-39
5.98107e-40
6.06596e-41
6.04109e-42
5.90886e-43
5.67727e-44
5.35912e-45
4.97093e-46
4.53147e-47
4.06035e-48
3.57664e-49
3.09768e-50
2.63821e-51
2.20979e-52
1.82061e-53
1.47559e-54
1.17666e-55
9.23262e-57
7.12915e-58
5.41801e-59
4.05302e-60
2.98471e-61
2.16399e-62
1.54484e-63
1.086e-64
7.51854e-66
5.12672e-67
3.44339e-68
2.27831e-69
1.48512e-70
9.53821e-72
6.03736e-73
3.76588e-74
2.31952e-75
1.38515e-76
1.38515e-76
0.999793
1.00021
0.998657
1.00088
1.01225
0.995747
0.898887
0.725224
0.528171
0.355373
0.225066
0.135402
0.0775515
0.042255
0.0218742
0.0107487
0.00501262
0.00221972
0.00093427
0.000374212
0.000142835
5.20305e-05
1.81149e-05
6.03682e-06
1.92839e-06
5.91279e-07
1.74248e-07
4.94148e-08
1.35011e-08
3.55783e-09
9.05213e-10
2.22584e-10
5.29434e-11
1.21922e-11
2.72056e-12
5.88677e-13
1.2361e-13
2.52049e-14
4.99409e-15
9.62131e-16
1.80331e-16
3.2901e-17
5.84622e-18
1.01225e-18
1.70865e-19
2.81301e-20
4.51884e-21
7.08599e-22
1.08509e-22
1.62324e-23
2.37307e-24
3.39159e-25
4.74025e-26
6.48105e-27
8.67099e-28
1.13553e-28
1.456e-29
1.8284e-30
2.2493e-31
2.71143e-32
3.20355e-33
3.71064e-34
4.21454e-35
4.69497e-36
5.13083e-37
5.50182e-38
5.78996e-39
5.98107e-40
6.06596e-41
6.04109e-42
5.90886e-43
5.67727e-44
5.35912e-45
4.97093e-46
4.53147e-47
4.06035e-48
3.57664e-49
3.09768e-50
2.63821e-51
2.20979e-52
1.82061e-53
1.47559e-54
1.17666e-55
9.23262e-57
7.12915e-58
5.41801e-59
4.05302e-60
2.98471e-61
2.16399e-62
1.54484e-63
1.086e-64
7.51854e-66
5.12672e-67
3.44339e-68
2.27831e-69
1.48512e-70
9.53821e-72
6.03736e-73
3.76588e-74
2.31952e-75
1.38515e-76
1.38515e-76
0.999838
1.00016
0.999355
0.999035
1.00396
1.00709
0.98785
0.929604
0.830059
0.69857
0.551117
0.405935
0.278592
0.178131
0.10625
0.0592408
0.0309535
0.0151977
0.00703096
0.00307303
0.0012721
0.000499924
0.000186924
6.66331e-05
2.26882e-05
7.39189e-06
2.30814e-06
6.91788e-07
1.99295e-07
5.5258e-08
1.47638e-08
3.80532e-09
9.47185e-10
2.27906e-10
5.30587e-11
1.19622e-11
2.61382e-12
5.53961e-13
1.13956e-13
2.27691e-14
4.42165e-15
8.35055e-16
1.53458e-16
2.74567e-17
4.78534e-18
8.1283e-19
1.34621e-19
2.17495e-20
3.42919e-21
5.27861e-22
7.93601e-23
1.16574e-23
1.67369e-24
2.34947e-25
3.22576e-26
4.33307e-27
5.69634e-28
7.33092e-29
9.2386e-30
1.1404e-30
1.37919e-31
1.63463e-32
1.8991e-33
2.16326e-34
2.41659e-35
2.64806e-36
2.8469e-37
3.00349e-38
3.11013e-39
3.16163e-40
3.15576e-41
3.09341e-42
2.97842e-43
2.81725e-44
2.61833e-45
2.39142e-46
2.14676e-47
1.89442e-48
1.64359e-49
1.40217e-50
1.1764e-51
9.70771e-53
7.88026e-54
6.29335e-55
4.94532e-56
3.82411e-57
2.9103e-58
2.18006e-59
1.60757e-60
1.16704e-61
8.34187e-63
5.87145e-64
4.06982e-65
2.7784e-66
1.86828e-67
1.23755e-68
8.07584e-70
5.19268e-71
3.28982e-72
2.05589e-73
1.24442e-74
1.24442e-74
0.99991
1.00009
0.99932
0.997645
0.997791
1.00043
0.999503
0.983233
0.938509
0.85641
0.737601
0.594148
0.445367
0.310161
0.200819
0.121139
0.0682686
0.0360495
0.0178896
0.00836675
0.0036977
0.00154814
0.000615464
0.00023283
8.39809e-05
2.89352e-05
9.53922e-06
3.01387e-06
9.1389e-07
2.66325e-07
7.46838e-08
2.01767e-08
5.25727e-09
1.32253e-09
3.2152e-10
7.56067e-11
1.72121e-11
3.79646e-12
8.11946e-13
1.68496e-13
3.39518e-14
6.647e-15
1.26516e-15
2.34247e-16
4.22136e-17
7.40813e-18
1.26666e-18
2.11115e-19
3.43146e-20
5.44167e-21
8.4229e-22
1.27303e-22
1.87946e-23
2.71147e-24
3.82388e-25
5.27329e-26
7.11342e-27
9.38923e-28
1.21302e-28
1.53433e-29
1.90066e-30
2.30643e-31
2.74248e-32
3.19609e-33
3.65152e-34
4.09081e-35
4.49495e-36
4.84523e-37
5.12472e-38
5.31962e-39
5.42041e-40
5.42261e-41
5.32707e-42
5.13987e-43
4.87162e-44
4.53657e-45
4.1513e-46
3.73346e-47
3.30049e-48
2.86845e-49
2.45123e-50
2.05991e-51
1.70254e-52
1.38418e-53
1.1071e-54
8.71233e-56
6.74668e-57
5.14166e-58
3.85678e-59
2.84776e-60
2.07007e-61
1.48155e-62
1.04409e-63
7.24604e-65
4.95267e-66
3.33425e-67
2.21114e-68
1.44456e-69
9.29795e-71
5.89758e-72
3.61967e-73
3.61967e-73
1.00137
0.998633
0.991182
0.981088
0.971173
0.963978
0.957876
0.944722
0.911575
0.846419
0.745151
0.615296
0.473557
0.338853
0.225446
0.139703
0.0808345
0.0437985
0.0222876
0.0106818
0.00483483
0.00207191
0.000842636
0.00032594
0.000120154
4.22923e-05
1.42381e-05
4.59206e-06
1.42094e-06
4.2243e-07
1.2081e-07
3.32771e-08
8.83822e-09
2.26578e-09
5.61216e-10
1.34433e-10
3.11686e-11
7.00042e-12
1.52426e-12
3.21989e-13
6.60341e-14
1.3156e-14
2.54789e-15
4.79945e-16
8.79832e-17
1.5705e-17
2.73103e-18
4.62888e-19
7.65045e-20
1.23354e-20
1.94113e-21
2.98243e-22
4.47578e-23
6.56311e-24
9.40698e-25
1.31837e-25
1.80724e-26
2.42394e-27
3.18191e-28
4.08923e-29
5.14643e-30
6.34452e-31
7.66361e-32
9.07237e-33
1.05285e-33
1.19805e-34
1.33703e-35
1.46373e-36
1.57229e-37
1.65745e-38
1.71503e-39
1.74225e-40
1.73795e-41
1.70268e-42
1.6386e-43
1.54927e-44
1.43937e-45
1.31424e-46
1.17951e-47
1.04068e-48
9.02794e-50
7.70148e-51
6.46151e-52
5.33244e-53
4.32919e-54
3.45804e-55
2.718e-56
2.1024e-57
1.60059e-58
1.19947e-59
8.84899e-61
6.42741e-62
4.59687e-63
3.23754e-64
2.24563e-65
1.53416e-66
1.03241e-67
6.84421e-69
4.47005e-70
2.87655e-71
1.7902e-72
1.7902e-72
1.04556
0.954443
0.887693
0.838106
0.801199
0.774865
0.755782
0.736609
0.706492
0.655079
0.577869
0.479269
0.371073
0.267369
0.179221
0.111918
0.0652608
0.0356319
0.0182685
0.00882007
0.00402082
0.00173514
0.000710487
0.000276652
0.000102648
3.63596e-05
1.23168e-05
3.99657e-06
1.24404e-06
3.72003e-07
1.07e-07
2.96391e-08
7.91563e-09
2.04033e-09
5.08091e-10
1.22352e-10
2.85157e-11
6.43756e-12
1.40883e-12
2.991e-13
6.16442e-14
1.23417e-14
2.40176e-15
4.5459e-16
8.37308e-17
1.50162e-17
2.62341e-18
4.46699e-19
7.41664e-20
1.20126e-20
1.89883e-21
2.93046e-22
4.41723e-23
6.50571e-24
9.36534e-25
1.31822e-25
1.81479e-26
2.44446e-27