# vtk DataFile Version 3.0
FlowField
ASCII
DATASET STRUCTURED_GRID
DIMENSIONS 22 17 12 
POINTS 4488 double
0 0 0
5 0 0
10 0 0
15 0 0
20 0 0
25 0 0
30 0 0
35 0 0
40 0 0
45 0 0
50 0 0
55 0 0
60 0 0
65 0 0
70 0 0
75 0 0
80 0 0
85 0 0
90 0 0
95 0 0
100 0 0
105 0 0
0 1 0
5 1 0
10 1 0
15 1 0
20 1 0
25 1 0
30 1 0
35 1 0
40 1 0
45 1 0
50 1 0
55 1 0
60 1 0
65 1 0
70 1 0
75 1 0
80 1 0
85 1 0
90 1 0
95 1 0
100 1 0
105 1 0
0 2 0
5 2 0
10 2 0
15 2 0
20 2 0
25 2 0
30 2 0
35 2 0
40 2 0
45 2 0
50 2 0
55 2 0
60 2 0
65 2 0
70 2 0
75 2 0
80 2 0
85 2 0
90 2 0
95 2 0
100 2 0
105 2 0
0 3 0
5 3 0
10 3 0
15 3 0
20 3 0
25 3 0
30 3 0
35 3 0
40 3 0
45 3 0
50 3 0
55 3 0
60 3 0
65 3 0
70 3 0
75 3 0
80 3 0
85 3 0
90 3 0
95 3 0
100 3 0
105 3 0
0 4 0
5 4 0
10 4 0
15 4 0
20 4 0
25 4 0
30 4 0
35 4 0
40 4 0
45 4 0
50 4 0
55 4 0
60 4 0
65 4 0
70 4 0
75 4 0
80 4 0
85 4 0
90 4 0
95 4 0
100 4 0
105 4 0
0 5 0
5 5 0
10 5 0
15 5 0
20 5 0
25 5 0
30 5 0
35 5 0
40 5 0
45 5 0
50 5 0
55 5 0
60 5 0
65 5 0
70 5 0
75 5 0
80 5 0
85 5 0
90 5 0
95 5 0
100 5 0
105 5 0
0 6 0
5 6 0
10 6 0
15 6 0
20 6 0
25 6 0
30 6 0
35 6 0
40 6 0
45 6 0
50 6 0
55 6 0
60 6 0
65 6 0
70 6 0
75 6 0
80 6 0
85 6 0
90 6 0
95 6 0
100 6 0
105 6 0
0 7 0
5 7 0
10 7 0
15 7 0
20 7 0
25 7 0
30 7 0
35 7 0
40 7 0
45 7 0
50 7 0
55 7 0
60 7 0
65 7 0
70 7 0
75 7 0
80 7 0
85 7 0
90 7 0
95 7 0
100 7 0
105 7 0
0 8 0
5 8 0
10 8 0
15 8 0
20 8 0
25 8 0
30 8 0
35 8 0
40 8 0
45 8 0
50 8 0
55 8 0
60 8 0
65 8 0
70 8 0
75 8 0
80 8 0
85 8 0
90 8 0
95 8 0
100 8 0
105 8 0
0 9 0
5 9 0
10 9 0
15 9 0
20 9 0
25 9 0
30 9 0
35 9 0
40 9 0
45 9 0
50 9 0
55 9 0
60 9 0
65 9 0
70 9 0
75 9 0
80 9 0
85 9 0
90 9 0
95 9 0
100 9 0
105 9 0
0 10 0
5 10 0
10 10 0
15 10 0
20 10 0
25 10 0
30 10 0
35 10 0
40 10 0
45 10 0
50 10 0
55 10 0
60 10 0
65 10 0
70 10 0
75 10 0
80 10 0
85 10 0
90 10 0
95 10 0
100 10 0
105 10 0
0 11 0
5 11 0
10 11 0
15 11 0
20 11 0
25 11 0
30 11 0
35 11 0
40 11 0
45 11 0
50 11 0
55 11 0
60 11 0
65 11 0
70 11 0
75 11 0
80 11 0
85 11 0
90 11 0
95 11 0
100 11 0
105 11 0
0 12 0
5 12 0
10 12 0
15 12 0
20 12 0
25 12 0
30 12 0
35 12 0
40 12 0
45 12 0
50 12 0
55 12 0
60 12 0
65 12 0
70 12 0
75 12 0
80 12 0
85 12 0
90 12 0
95 12 0
100 12 0
105 12 0
0 13 0
5 13 0
10 13 0
15 13 0
20 13 0
25 13 0
30 13 0
35 13 0
40 13 0
45 13 0
50 13 0
55 13 0
60 13 0
65 13 0
70 13 0
75 13 0
80 13 0
85 13 0
90 13 0
95 13 0
100 13 0
105 13 0
0 14 0
5 14 0
10 14 0
15 14 0
20 14 0
25 14 0
30 14 0
35 14 0
40 14 0
45 14 0
50 14 0
55 14 0
60 14 0
65 14 0
70 14 0
75 14 0
80 14 0
85 14 0
90 14 0
95 14 0
100 14 0
105 14 0
0 15 0
5 15 0
10 15 0
15 15 0
20 15 0
25 15 0
30 15 0
35 15 0
40 15 0
45 15 0
50 15 0
55 15 0
60 15 0
65 15 0
70 15 0
75 15 0
80 15 0
85 15 0
90 15 0
95 15 0
100 15 0
105 15 0
0 16 0
5 16 0
10 16 0
15 16 0
20 16 0
25 16 0
30 16 0
35 16 0
40 16 0
45 16 0
50 16 0
55 16 0
60 16 0
65 16 0
70 16 0
75 16 0
80 16 0
85 16 0
90 16 0
95 16 0
100 16 0
105 16 0
0 0 1
5 0 1
10 0 1
15 0 1
20 0 1
25 0 1
30 0 1
35 0 1
40 0 1
45 0 1
50 0 1
55 0 1
60 0 1
65 0 1
70 0 1
75 0 1
80 0 1
85 0 1
90 0 1
95 0 1
100 0 1
105 0 1
0 1 1
5 1 1
10 1 1
15 1 1
20 1 1
25 1 1
30 1 1
35 1 1
40 1 1
45 1 1
50 1 1
55 1 1
60 1 1
65 1 1
70 1 1
75 1 1
80 1 1
85 1 1
90 1 1
95 1 1
100 1 1
105 1 1
0 2 1
5 2 1
10 2 1
15 2 1
20 2 1
25 2 1
30 2 1
35 2 1
40 2 1
45 2 1
50 2 1
55 2 1
60 2 1
65 2 1
70 2 1
75 2 1
80 2 1
85 2 1
90 2 1
95 2 1
100 2 1
105 2 1
0 3 1
5 3 1
10 3 1
15 3 1
20 3 1
25 3 1
30 3 1
35 3 1
40 3 1
45 3 1
50 3 1
55 3 1
60 3 1
65 3 1
70 3 1
75 3 1
80 3 1
85 3 1
90 3 1
95 3 1
100 3 1
105 3 1
0 4 1
5 4 1
10 4 1
15 4 1
20 4 1
25 4 1
30 4 1
35 4 1
40 4 1
45 4 1
50 4 1
55 4 1
60 4 1
65 4 1
70 4 1
75 4 1
80 4 1
85 4 1
90 4 1
95 4 1
100 4 1
105 4 1
0 5 1
5 5 1
10 5 1
15 5 1
20 5 1
25 5 1
30 5 1
35 5 1
40 5 1
45 5 1
50 5 1
55 5 1
60 5 1
65 5 1
70 5 1
75 5 1
80 5 1
85 5 1
90 5 1
95 5 1
100 5 1
105 5 1
0 6 1
5 6 1
10 6 1
15 6 1
20 6 1
25 6 1
30 6 1
35 6 1
40 6 1
45 6 1
50 6 1
55 6 1
60 6 1
65 6 1
70 6 1
75 6 1
80 6 1
85 6 1
90 6 1
95 6 1
100 6 1
105 6 1
0 7 1
5 7 1
10 7 1
15 7 1
20 7 1
25 7 1
30 7 1
35 7 1
40 7 1
45 7 1
50 7 1
55 7 1
60 7 1
65 7 1
70 7 1
75 7 1
80 7 1
85 7 1
90 7 1
95 7 1
100 7 1
105 7 1
0 8 1
5 8 1
10 8 1
15 8 1
20 8 1
25 8 1
30 8 1
35 8 1
40 8 1
45 8 1
50 8 1
55 8 1
60 8 1
65 8 1
70 8 1
75 8 1
80 8 1
85 8 1
90 8 1
95 8 1
100 8 1
105 8 1
0 9 1
5 9 1
10 9 1
15 9 1
20 9 1
25 9 1
30 9 1
35 9 1
40 9 1
45 9 1
50 9 1
55 9 1
60 9 1
65 9 1
70 9 1
75 9 1
80 9 1
85 9 1
90 9 1
95 9 1
100 9 1
105 9 1
0 10 1
5 10 1
10 10 1
15 10 1
20 10 1
25 10 1
30 10 1
35 10 1
40 10 1
45 10 1
50 10 1
55 10 1
60 10 1
65 10 1
70 10 1
75 10 1
80 10 1
85 10 1
90 10 1
95 10 1
100 10 1
105 10 1
0 11 1
5 11 1
10 11 1
15 11 1
20 11 1
25 11 1
30 11 1
35 11 1
40 11 1
45 11 1
50 11 1
55 11 1
60 11 1
65 11 1
70 11 1
75 11 1
80 11 1
85 11 1
90 11 1
95 11 1
100 11 1
105 11 1
0 12 1
5 12 1
10 12 1
15 12 1
20 12 1
25 12 1
30 12 1
35 12 1
40 12 1
45 12 1
50 12 1
55 12 1
60 12 1
65 12 1
70 12 1
75 12 1
80 12 1
85 12 1
90 12 1
95 12 1
100 12 1
105 12 1
0 13 1
5 13 1
10 13 1
15 13 1
20 13 1
25 13 1
30 13 1
35 13 1
40 13 1
45 13 1
50 13 1
55 13 1
60 13 1
65 13 1
70 13 1
75 13 1
80 13 1
85 13 1
90 13 1
95 13 1
100 13 1
105 13 1
0 14 1
5 14 1
10 14 1
15 14 1
20 14 1
25 14 1
30 14 1
35 14 1
40 14 1
45 14 1
50 14 1
55 14 1
60 14 1
65 14 1
70 14 1
75 14 1
80 14 1
85 14 1
90 14 1
95 14 1
100 14 1
105 14 1
0 15 1
5 15 1
10 15 1
15 15 1
20 15 1
25 15 1
30 15 1
35 15 1
40 15 1
45 15 1
50 15 1
55 15 1
60 15 1
65 15 1
70 15 1
75 15 1
80 15 1
85 15 1
90 15 1
95 15 1
100 15 1
105 15 1
0 16 1
5 16 1
10 16 1
15 16 1
20 16 1
25 16 1
30 16 1
35 16 1
40 16 1
45 16 1
50 16 1
55 16 1
60 16 1
65 16 1
70 16 1
75 16 1
80 16 1
85 16 1
90 16 1
95 16 1
100 16 1
105 16 1
0 0 2
5 0 2
10 0 2
15 0 2
20 0 2
25 0 2
30 0 2
35 0 2
40 0 2
45 0 2
50 0 2
55 0 2
60 0 2
65 0 2
70 0 2
75 0 2
80 0 2
85 0 2
90 0 2
95 0 2
100 0 2
105 0 2
0 1 2
5 1 2
10 1 2
15 1 2
20 1 2
25 1 2
30 1 2
35 1 2
40 1 2
45 1 2
50 1 2
55 1 2
60 1 2
65 1 2
70 1 2
75 1 2
80 1 2
85 1 2
90 1 2
95 1 2
100 1 2
105 1 2
0 2 2
5 2 2
10 2 2
15 2 2
20 2 2
25 2 2
30 2 2
35 2 2
40 2 2
45 2 2
50 2 2
55 2 2
60 2 2
65 2 2
70 2 2
75 2 2
80 2 2
85 2 2
90 2 2
95 2 2
100 2 2
105 2 2
0 3 2
5 3 2
10 3 2
15 3 2
20 3 2
25 3 2
30 3 2
35 3 2
40 3 2
45 3 2
50 3 2
55 3 2
60 3 2
65 3 2
70 3 2
75 3 2
80 3 2
85 3 2
90 3 2
95 3 2
100 3 2
105 3 2
0 4 2
5 4 2
10 4 2
15 4 2
20 4 2
25 4 2
30 4 2
35 4 2
40 4 2
45 4 2
50 4 2
55 4 2
60 4 2
65 4 2
70 4 2
75 4 2
80 4 2
85 4 2
90 4 2
95 4 2
100 4 2
105 4 2
0 5 2
5 5 2
10 5 2
15 5 2
20 5 2
25 5 2
30 5 2
35 5 2
40 5 2
45 5 2
50 5 2
55 5 2
60 5 2
65 5 2
70 5 2
75 5 2
80 5 2
85 5 2
90 5 2
95 5 2
100 5 2
105 5 2
0 6 2
5 6 2
10 6 2
15 6 2
20 6 2
25 6 2
30 6 2
35 6 2
40 6 2
45 6 2
50 6 2
55 6 2
60 6 2
65 6 2
70 6 2
75 6 2
80 6 2
85 6 2
90 6 2
95 6 2
100 6 2
105 6 2
0 7 2
5 7 2
10 7 2
15 7 2
20 7 2
25 7 2
30 7 2
35 7 2
40 7 2
45 7 2
50 7 2
55 7 2
60 7 2
65 7 2
70 7 2
75 7 2
80 7 2
85 7 2
90 7 2
95 7 2
100 7 2
105 7 2
0 8 2
5 8 2
10 8 2
15 8 2
20 8 2
25 8 2
30 8 2
35 8 2
40 8 2
45 8 2
50 8 2
55 8 2
60 8 2
65 8 2
70 8 2
75 8 2
80 8 2
85 8 2
90 8 2
95 8 2
100 8 2
105 8 2
0 9 2
5 9 2
10 9 2
15 9 2
20 9 2
25 9 2
30 9 2
35 9 2
40 9 2
45 9 2
50 9 2
55 9 2
60 9 2
65 9 2
70 9 2
75 9 2
80 9 2
85 9 2
90 9 2
95 9 2
100 9 2
105 9 2
0 10 2
5 10 2
10 10 2
15 10 2
20 10 2
25 10 2
30 10 2
35 10 2
40 10 2
45 10 2
50 10 2
55 10 2
60 10 2
65 10 2
70 10 2
75 10 2
80 10 2
85 10 2
90 10 2
95 10 2
100 10 2
105 10 2
0 11 2
5 11 2
10 11 2
15 11 2
20 11 2
25 11 2
30 11 2
35 11 2
40 11 2
45 11 2
50 11 2
55 11 2
60 11 2
65 11 2
70 11 2
75 11 2
80 11 2
85 11 2
90 11 2
95 11 2
100 11 2
105 11 2
0 12 2
5 12 2
10 12 2
15 12 2
20 12 2
25 12 2
30 12 2
35 12 2
40 12 2
45 12 2
50 12 2
55 12 2
60 12 2
65 12 2
70 12 2
75 12 2
80 12 2
85 12 2
90 12 2
95 12 2
100 12 2
105 12 2
0 13 2
5 13 2
10 13 2
15 13 2
20 13 2
25 13 2
30 13 2
35 13 2
40 13 2
45 13 2
50 13 2
55 13 2
60 13 2
65 13 2
70 13 2
75 13 2
80 13 2
85 13 2
90 13 2
95 13 2
100 13 2
105 13 2
0 14 2
5 14 2
10 14 2
15 14 2
20 14 2
25 14 2
30 14 2
35 14 2
40 14 2
45 14 2
50 14 2
55 14 2
60 14 2
65 14 2
70 14 2
75 14 2
80 14 2
85 14 2
90 14 2
95 14 2
100 14 2
105 14 2
0 15 2
5 15 2
10 15 2
15 15 2
20 15 2
25 15 2
30 15 2
35 15 2
40 15 2
45 15 2
50 15 2
55 15 2
60 15 2
65 15 2
70 15 2
75 15 2
80 15 2
85 15 2
90 15 2
95 15 2
100 15 2
105 15 2
0 16 2
5 16 2
10 16 2
15 16 2
20 16 2
25 16 2
30 16 2
35 16 2
40 16 2
45 16 2
50 16 2
55 16 2
60 16 2
65 16 2
70 16 2
75 16 2
80 16 2
85 16 2
90 16 2
95 16 2
100 16 2
105 16 2
0 0 3
5 0 3
10 0 3
15 0 3
20 0 3
25 0 3
30 0 3
35 0 3
40 0 3
45 0 3
50 0 3
55 0 3
60 0 3
65 0 3
70 0 3
75 0 3
80 0 3
85 0 3
90 0 3
95 0 3
100 0 3
105 0 3
0 1 3
5 1 3
10 1 3
15 1 3
20 1 3
25 1 3
30 1 3
35 1 3
40 1 3
45 1 3
50 1 3
55 1 3
60 1 3
65 1 3
70 1 3
75 1 3
80 1 3
85 1 3
90 1 3
95 1 3
100 1 3
105 1 3
0 2 3
5 2 3
10 2 3
15 2 3
20 2 3
25 2 3
30 2 3
35 2 3
40 2 3
45 2 3
50 2 3
55 2 3
60 2 3
65 2 3
70 2 3
75 2 3
80 2 3
85 2 3
90 2 3
95 2 3
100 2 3
105 2 3
0 3 3
5 3 3
10 3 3
15 3 3
20 3 3
25 3 3
30 3 3
35 3 3
40 3 3
45 3 3
50 3 3
55 3 3
60 3 3
65 3 3
70 3 3
75 3 3
80 3 3
85 3 3
90 3 3
95 3 3
100 3 3
105 3 3
0 4 3
5 4 3
10 4 3
15 4 3
20 4 3
25 4 3
30 4 3
35 4 3
40 4 3
45 4 3
50 4 3
55 4 3
60 4 3
65 4 3
70 4 3
75 4 3
80 4 3
85 4 3
90 4 3
95 4 3
100 4 3
105 4 3
0 5 3
5 5 3
10 5 3
15 5 3
20 5 3
25 5 3
30 5 3
35 5 3
40 5 3
45 5 3
50 5 3
55 5 3
60 5 3
65 5 3
70 5 3
75 5 3
80 5 3
85 5 3
90 5 3
95 5 3
100 5 3
105 5 3
0 6 3
5 6 3
10 6 3
15 6 3
20 6 3
25 6 3
30 6 3
35 6 3
40 6 3
45 6 3
50 6 3
55 6 3
60 6 3
65 6 3
70 6 3
75 6 3
80 6 3
85 6 3
90 6 3
95 6 3
100 6 3
105 6 3
0 7 3
5 7 3
10 7 3
15 7 3
20 7 3
25 7 3
30 7 3
35 7 3
40 7 3
45 7 3
50 7 3
55 7 3
60 7 3
65 7 3
70 7 3
75 7 3
80 7 3
85 7 3
90 7 3
95 7 3
100 7 3
105 7 3
0 8 3
5 8 3
10 8 3
15 8 3
20 8 3
25 8 3
30 8 3
35 8 3
40 8 3
45 8 3
50 8 3
55 8 3
60 8 3
65 8 3
70 8 3
75 8 3
80 8 3
85 8 3
90 8 3
95 8 3
100 8 3
105 8 3
0 9 3
5 9 3
10 9 3
15 9 3
20 9 3
25 9 3
30 9 3
35 9 3
40 9 3
45 9 3
50 9 3
55 9 3
60 9 3
65 9 3
70 9 3
75 9 3
80 9 3
85 9 3
90 9 3
95 9 3
100 9 3
105 9 3
0 10 3
5 10 3
10 10 3
15 10 3
[...]
POINT_DATA 4488

SCALARS pressure double
LOOKUP_TABLE pressure
0
0
0
0
0
0
0
0
0
0
0
0
0
0
0
0
0
0
0
0
0
0
0
1262.6
1262.59
1262.55
1262.27
1262.15
1262.12
1262.13
1262.04
1262.07
1261.82
1261.61
1261.18
1261.05
1260.72
1260.07
1258.28
1258.18
1257.57
1257.24
1257.09
0
0
1262.6
1262.6
1262.56
1262.27
1262.15
1262.13
1262.13
1262.04
1261.87
1261.82
1261.62
1261.18
1261.06
1260.75
1260.12
1258.17
1258.19
1257.56
1257.23
1257.09
0
0
1262.61
1262.6
1262.57
1262.28
1262.16
1262.16
1262.15
1262.04
1261.9
1261.83
1261.65
1261.23
1261.09
1260.8
1260.21
1260.01
1258.24
1257.54
1257.21
1257.09
0
0
1262.62
1262.61
1262.6
1262.29
1261.84
1262.16
1262.17
1262.09
1261.93
1261.84
1261.68
1261.23
1261.12
1260.85
1260.3
1259.92
1258.23
1257.5
1257.19
1257.1
0
0
1262.63
1262.62
1262.53
1262.31
1261.84
1262.19
1262.2
1262.1
1261.96
1261.86
1261.72
1261.77
1261.18
1260.93
1260.38
1259.87
1258.18
1257.45
1257.16
1257.11
0
0
1262.65
1262.64
1262.56
1262.35
1261.8
1262.23
1262.23
1262.11
1261.99
1261.88
1261.75
1261.71
1261.24
1261
1260.48
1259.88
1258.09
1257.18
1257.11
1257.12
0
0
1262.67
1262.66
1262.6
1262.4
1261.73
1262.28
1262.27
1262.12
1262.02
1261.9
1261.78
1261.73
1261.35
1261.09
1260.61
1259.94
1257.96
1257.06
1257.07
1257.13
0
0
1262.69
1262.69
1262.64
1262.48
1261.63
1262.36
1262.32
1262.26
1262.05
1261.92
1261.81
1261.75
1261.45
1261.19
1260.74
1260.05
1257.78
1256.9
1257.01
1257.14
0
0
1262.71
1262.72
1262.69
1262.57
1261.44
1262.47
1262.37
1262.28
1262.08
1261.95
1261.84
1261.78
1261.55
1261.35
1260.83
1260.21
1257.53
1256.7
1256.98
1257.15
0
0
1262.74
1262.75
1262.74
1262.7
1263.35
1262.63
1262.42
1262.31
1262.11
1261.97
1261.87
1261.81
1261.66
1261.47
1260.98
1260.45
1257.17
1256.44
1256.92
1257.16
0
0
1262.77
1262.79
1262.8
1262.83
1263.28
1262.73
1262.48
1262.35
1262.14
1262
1261.89
1261.85
1261.77
1261.6
1261.12
1260.78
1256.61
1256.13
1256.88
1257.18
0
0
1262.8
1262.82
1262.86
1262.93
1263.26
1262.81
1262.54
1262.39
1262.17
1262.02
1261.92
1261.89
1261.88
1261.74
1261.24
1261.23
1256.02
1255.76
1256.85
1257.19
0
0
1262.83
1262.86
1262.92
1263.02
1263.26
1262.88
1262.6
1262.36
1262.2
1262.05
1261.95
1261.93
1262
1261.88
1263.26
1261.86
1255.08
1255.32
1256.85
1257.21
0
0
1262.86
1262.9
1262.98
1263.11
1263.27
1262.94
1262.66
1262.41
1262.22
1262.07
1261.98
1261.98
1262.14
1262.79
1263.48
1262.63
1253.74
1254.78
1256.9
1257.23
0
0
1262.89
1262.95
1263.04
1263.19
1263.28
1263
1262.72
1262.46
1262.25
1262.09
1262
1262.02
1262.26
1262.89
1263.73
1264.13
1252.34
1254.13
1257.02
1257.24
0
0
0
0
0
0
0
0
0
0
0
0
0
0
0
0
0
0
0
0
0
0
0
0
1262.6
1262.59
1262.55
1262.27
1262.15
1262.12
1262.13
1262.04
1262.07
1261.82
1261.61
1261.18
1261.05
1260.72
1260.07
1258.28
1258.18
1257.57
1257.24
1257.09
0
-1262.6
1262.6
1262.59
1262.55
1262.27
1262.15
1262.12
1262.13
1262.04
1262.07
1261.82
1261.61
1261.18
1261.05
1260.72
1260.07
1258.28
1258.18
1257.57
1257.24
1257.09
1257.09
0.0147802
1262.6
1262.6
1262.56
1262.27
1262.15
1262.13
1262.13
1262.04
1261.87
1261.82
1261.62
1261.18
1261.06
1260.75
1260.12
1258.17
1258.19
1257.56
1257.23
1257.09
1257.09
-1262.61
1262.61
1262.6
1262.57
1262.28
1262.16
1262.16
1262.15
1262.04
1261.9
1261.83
1261.65
1261.23
1261.09
1260.8
1260.21
1260.01
1258.24
1257.54
1257.21
1257.09
1257.09
-1262.62
1262.62
1262.61
1262.6
1262.29
1261.84
1262.16
1262.17
1262.09
1261.93
1261.84
1261.68
1261.23
1261.12
1260.85
1260.3
1259.92
1258.23
1257.5
1257.19
1257.1
1257.1
-1262.63
1262.63
1262.62
1262.53
1262.31
1261.84
1262.19
1262.2
1262.1
1261.96
1261.86
1261.72
1261.77
1261.18
1260.93
1260.38
1259.87
1258.18
1257.45
1257.16
1257.11
1257.11
-1262.65
1262.65
1262.64
1262.56
1262.35
1261.8
1262.23
1262.23
1262.11
1261.99
1261.88
1261.75
1261.71
1261.24
1261
1260.48
1259.88
1258.09
1257.18
1257.11
1257.12
1257.12
-1262.67
1262.67
1262.66
1262.6
1262.4
1261.73
1262.28
1262.27
1262.12
1262.02
1261.9
1261.78
1261.73
1261.35
1261.09
1260.61
1259.94
1257.96
1257.06
1257.07
1257.13
1257.13
-1262.69
1262.69
1262.69
1262.64
1262.48
1261.63
1262.36
1262.32
1262.26
1262.05
1261.92
1261.81
1261.75
1261.45
1261.19
1260.74
1260.05
1257.78
1256.9
1257.01
1257.14
1257.14
-1262.71
1262.71
1262.72
1262.69
1262.57
1261.44
1262.47
1262.37
1262.28
1262.08
1261.95
1261.84
1261.78
1261.55
1261.35
1260.83
1260.21
1257.53
1256.7
1256.98
1257.15
1257.15
-1262.74
1262.74
1262.75
1262.74
1262.7
1263.35
1262.63
1262.42
1262.31
1262.11
1261.97
1261.87
1261.81
1261.66
1261.47
1260.98
1260.45
1257.17
1256.44
1256.92
1257.16
1257.16
-1262.77
1262.77
1262.79
1262.8
1262.83
1263.28
1262.73
1262.48
1262.35
1262.14
1262
1261.89
1261.85
1261.77
1261.6
1261.12
1260.78
1256.61
1256.13
1256.88
1257.18
1257.18
-1262.8
1262.8
1262.82
1262.86
1262.93
1263.26
1262.81
1262.54
1262.39
1262.17
1262.02
1261.92
1261.89
1261.88
1261.74
1261.24
1261.23
1256.02
1255.76
1256.85
1257.19
1257.19
-1262.83
1262.83
1262.86
1262.92
1263.02
1263.26
1262.88
1262.6
1262.36
1262.2
1262.05
1261.95
1261.93
1262
1261.88
1263.26
1261.86
1255.08
1255.32
1256.85
1257.21
1257.21
-1262.86
1262.86
1262.9
1262.98
1263.11
1263.27
1262.94
1262.66
1262.41
1262.22
1262.07
1261.98
1261.98
1262.14
1262.79
1263.48
1262.63
1253.74
1254.78
1256.9
1257.23
1257.23
-1262.89
1262.89
1262.95
1263.04
1263.19
1263.28
1263
1262.72
1262.46
1262.25
1262.09
1262
1262.02
1262.26
1262.89
1263.73
1264.13
1252.34
1254.13
1257.02
1257.24
1257.24
0
1262.89
1262.95
1263.04
1263.19
1263.28
1263
1262.72
1262.46
1262.25
1262.09
1262
1262.02
1262.26
1262.89
1263.73
1264.13
1252.34
1254.13
1257.02
1257.24
0
0
1262.62
1262.62
1262.56
1262.35
1262.19
1262.17
1262.15
1262.08
1261.93
1261.83
1261.64
1261.52
1261.1
1260.75
1260.1
1258.77
1258.3
1257.64
1257.29
1257.12
0
-1262.62
1262.62
1262.62
1262.56
1262.35
1262.19
1262.17
1262.15
1262.08
1261.93
1261.83
1261.64
1261.52
1261.1
1260.75
1260.1
1258.77
1258.3
1257.64
1257.29
1257.12
1257.12
-1262.63
1262.63
1262.64
1262.57
1262.34
1262.21
1262.18
1262.14
1262.07
1261.93
1261.84
1261.65
1261.37
1261.11
1260.77
1260.13
1258.9
1258.29
1257.63
1257.29
1257.12
1257.12
-1262.63
1262.63
1262.63
1262.58
1262.35
1262.18
1262.2
1262.17
1262.08
1261.94
1261.84
1261.67
1261.37
1261.14
1260.8
1260.18
1259.49
1258.31
1257.61
1257.27
1257.13
1257.13
-1262.64
1262.64
1262.64
1262.59
1262.36
1262.08
1262.22
1262.2
1262.11
1261.96
1261.86
1261.69
1261.42
1261.2
1260.85
1260.2
1259.67
1258.3
1257.56
1257.25
1257.13
1257.13
-1262.66
1262.66
1262.65
1262.58
1262.38
1262.05
1262.24
1262.23
1262.13
1261.99
1261.87
1261.73
1261.61
1261.22
1260.92
1260.07
1259.73
1258.26
1257.49
1257.22
1257.14
1257.14
-1262.67
1262.67
1262.66
1262.6
1262.42
1262.05
1262.29
1262.26
1262.15
1262.01
1261.89
1261.76
1261.65
1261.28
1260.99
1260.37
1259.79
1258.19
1257.35
1257.19
1257.15
1257.15
-1262.69
1262.69
1262.68
1262.63
1262.47
1262.08
1262.34
1262.3
1262.18
1262.04
1261.91
1261.79
1261.69
1261.37
1261.08
1260.56
1259.87
1258.09
1257.23
1257.15
1257.16
1257.16
-1262.71
1262.71
1262.71
1262.67
1262.54
1262.16
1262.42
1262.34
1262.24
1262.07
1261.94
1261.81
1261.72
1261.45
1261.19
1260.7
1259.98
1257.97
1257.08
1257.1
1257.17
1257.17
-1262.73
1262.73
1262.74
1262.71
1262.63
1262.15
1262.51
1262.39
1262.28
1262.1
1261.96
1261.84
1261.76
1261.55
1261.32
1260.85
1260.14
1257.85
1256.91
1257.06
1257.18
1257.18
-1262.76
1262.76
1262.77
1262.76
1262.74
1262.88
1262.63
1262.44
1262.31
1262.13
1261.98
1261.87
1261.79
1261.64
1261.45
1261.03
1260.35
1257.81
1256.72
1257.02
1257.2
1257.2
-1262.79
1262.79
1262.8
1262.82
1262.84
1263.1
1262.72
1262.5
1262.35
1262.15
1262.01
1261.9
1261.83
1261.74
1261.6
1261.27
1260.64
1257.16
1256.43
1256.98
1257.21
1257.21
-1262.81
1262.81
1262.83
1262.88
1262.92
1263.13
1262.79
1262.55
1262.38
1262.18
1262.03
1261.93
1261.88
1261.85
1261.78
1261.63
1261.02
1256.61
1256.12
1256.95
1257.23
1257.23
-1262.85
1262.85
1262.85
1262.94
1263.01
1263.16
1262.86
1262.61
1262.39
1262.21
1262.06
1261.95
1261.92
1261.96
1262.02
1262.48
1261.54
1255.93
1255.76
1256.93
1257.24
1257.24
-1262.88
1262.88
1262.91
1262.99
1263.08
1263.19
1262.92
1262.66
1262.43
1262.24
1262.08
1261.98
1261.97
1262.08
1262.44
1262.95
1262.21
1255.11
1255.36
1256.94
1257.26
1257.26
-1262.91
1262.91
1262.96
1263.04
1263.16
1263.21
1262.98
1262.72
1262.47
1262.27
1262.11
1262.01
1262.01
1262.2
1262.68
1263.31
1263.08
1254.21
1254.92
1256.97
1257.28
1257.28
0
1262.91
1262.96
1263.04
1263.16
1263.21
1262.98
1262.72
1262.47
1262.27
1262.11
1262.01
1262.01
1262.2
1262.68
1263.31
1263.08
1254.21
1254.92
1256.97
1257.28
0
0
1262.65
1262.64
1262.59
1262.41
1262.22
1262.21
1262.19
1262.1
1261.96
1261.84
1261.66
1261.49
1261.13
1260.76
1260.13
1259.07
1258.38
1257.72
1257.35
1257.15
0
-1262.65
1262.65
1262.64
1262.59
1262.41
1262.22
1262.21
1262.19
1262.1
1261.96
1261.84
1261.66
1261.49
1261.13
1260.76
1260.13
1259.07
1258.38
1257.72
1257.35
1257.15
1257.15
-1262.65
1262.65
1262.65
1262.59
1262.41
1262.26
1262.22
1262.19
1262.11
1261.96
1261.85
1261.67
1261.45
1261.14
1260.78
1260.15
1259.18
1258.38
1257.71
1257.35
1257.15
1257.15
-1262.66
1262.66
1262.65
1262.6
1262.42
1262.25
1262.24
1262.21
1262.12
1261.98
1261.86
1261.69
1261.45
1261.17
1260.81
1260.19
1259.41
1258.38
1257.68
1257.33
1257.16
1257.16
-1262.67
1262.67
1262.66
1262.61
1262.43
1262.23
1262.27
1262.23
1262.13
1261.99
1261.87
1261.71
1261.49
1261.21
1260.86
1260.22
1259.56
1258.37
1257.64
1257.32
1257.17
1257.17
-1262.68
1262.68
1262.67
1262.61
1262.45
1262.22
1262.3
1262.26
1262.15
1262.01
1261.89
1261.73
1261.58
1261.25
1260.91
1260.26
1259.65
1258.34
1257.58
1257.29
1257.17
1257.17
-1262.7
1262.7
1262.69
1262.63
1262.49
1262.24
1262.34
1262.29
1262.18
1262.04
1261.91
1261.76
1261.63
1261.31
1260.99
1260.39
1259.72
1258.29
1257.48
1257.26
1257.18
1257.18
-1262.71
1262.71
1262.71
1262.66
1262.53
1262.3
1262.39
1262.33
1262.21
1262.06
1261.93
1261.79
1261.66
1261.37
1261.07
1260.53
1259.81
1258.21
1257.38
1257.23
1257.19
1257.19
-1262.73
1262.73
1262.73
1262.7
1262.6
1262.4
1262.46
1262.37
1262.25
1262.09
1261.95
1261.82
1261.7
1261.45
1261.17
1260.68
1259.92
1258.12
1257.25
1257.19
1257.2
1257.2
-1262.75
1262.75
1262.76
1262.74
1262.67
1262.56
1262.54
1262.41
1262.28
1262.11
1261.97
1261.84
1261.74
1261.53
1261.29
1260.84
1260.06
1258.01
1257.11
1257.15
1257.21
1257.21
-1262.78
1262.78
1262.79
1262.78
1262.76
1262.89
1262.63
1262.46
1262.32
1262.14
1262
1261.87
1261.78
1261.62
1261.42
1261.03
1260.25
1257.86
1256.93
1257.11
1257.23
1257.23
-1262.81
1262.81
1262.82
1262.83
1262.84
1263
1262.71
1262.51
1262.35
1262.17
1262.02
1261.9
1261.82
1261.71
1261.57
1261.28
1260.5
1257.51
1256.71
1257.07
1257.24
1257.24
-1262.83
1262.83
1262.85
1262.88
1262.92
1263.05
1262.77
1262.56
1262.38
1262.2
1262.05
1261.93
1261.86
1261.81
1261.75
1261.63
1260.82
1257.12
1256.46
1257.04
1257.26
1257.26
-1262.86
1262.86
1262.88
1262.94
1262.99
1263.09
1262.84
1262.61
1262.41
1262.23
1262.07
1261.96
1261.91
1261.92
1261.98
1262.12
1261.25
1256.67
1256.18
1257.02
1257.28
1257.28
-1262.9
1262.9
1262.92
1262.99
1263.06
1263.12
1262.9
1262.66
1262.44
1262.25
1262.1
1261.99
1261.95
1262.03
1262.25
1262.53
1261.79
1256.17
1255.88
1257
1257.29
1257.29
-1262.93
1262.93
1262.97
1263.04
1263.13
1263.16
1262.96
1262.72
1262.48
1262.28
1262.12
1262.02
1262
1262.13
1262.48
1262.89
1262.45
1255.67
1255.56
1256.99
1257.31
1257.31
0
1262.93
1262.97
1263.04
1263.13
1263.16
1262.96
1262.72
1262.48
1262.28
1262.12
1262.02
1262
1262.13
1262.48
1262.89
1262.45
1255.67
1255.56
1256.99
1257.31
0
0
1262.67
1262.66
1262.61
1262.48
1262.19
1262.23
1262.22
1262.13
1261.99
1261.86
1261.68
1261.48
1261.16
1260.77
1260.15
1259.24
1258.45
1257.79
1257.41
1257.18
0
-1262.67
1262.67
1262.66
1262.61
1262.48
1262.19
1262.23
1262.22
1262.13
1261.99
1261.86
1261.68
1261.48
1261.16
1260.77
1260.15
1259.24
1258.45
1257.79
1257.41
1257.18
1257.18
-1262.68
1262.68
1262.67
1262.61
1262.48
1262.36
1262.26
1262.23
1262.14
1261.99
1261.87
1261.69
1261.47
1261.17
1260.79
1260.17
1259.3
1258.46
1257.78
1257.41
1257.19
1257.19
-1262.68
1262.68
1262.68
1262.62
1262.48
1262.34
1262.29
1262.25
1262.15
1262
1261.87
1261.7
1261.48
1261.19
1260.82
1260.21
1259.42
1258.45
1257.76
1257.4
1257.19
1257.19
-1262.69
1262.69
1262.68
1262.63
1262.49
1262.34
1262.32
1262.27
1262.16
1262.02
1261.89
1261.72
1261.52
1261.23
1260.86
1260.25
1259.52
1258.44
1257.73
1257.38
1257.2
1257.2
-1262.7
1262.7
1262.7
1262.64
1262.51
1262.35
1262.35
1262.29
1262.18
1262.04
1261.9
1261.74
1261.57
1261.27
1260.91
1260.31
1259.6
1258.42
1257.67
1257.36
1257.21
1257.21
-1262.72
1262.72
1262.71
1262.66
1262.54
1262.37
1262.39
1262.32
1262.2
1262.06
1261.92
1261.77
1261.61
1261.32
1260.98
1260.4
1259.68
1258.38
1257.6
1257.34
1257.21
1257.21
-1262.74
1262.74
1262.73
1262.69
1262.59
1262.43
1262.43
1262.35
1262.23
1262.08
1261.94
1261.79
1261.65
1261.38
1261.06
1260.52
1259.77
1258.33
1257.52
1257.31
1257.22
1257.22
-1262.75
1262.75
1262.75
1262.72
1262.64
1262.52
1262.49
1262.39
1262.26
1262.1
1261.96
1261.82
1261.68
1261.44
1261.15
1260.65
1259.87
1258.25
1257.42
1257.28
1257.24
1257.24
-1262.78
1262.78
1262.78
1262.76
1262.7
1262.64
1262.56
1262.43
1262.29
1262.13
1261.98
1261.85
1261.72
1261.52
1261.26
1260.81
1259.99
1258.15
1257.3
1257.25
1257.25
1257.25
-1262.8
1262.8
1262.8
1262.8
1262.77
1262.81
1262.63
1262.47
1262.33
1262.16
1262.01
1261.88
1261.76
1261.6
1261.39
1260.99
1260.16
1258.01
1257.15
1257.21
1257.26
1257.26
-1262.83
1262.83
1262.83
1262.84
1262.84
1262.92
1262.7
1262.52
1262.36
1262.18
1262.03
1261.9
1261.8
1261.68
1261.53
1261.21
1260.37
1257.8
1256.98
1257.18
1257.28
1257.28
-1262.85
1262.85
1262.87
1262.89
1262.91
1262.98
1262.76
1262.57
1262.39
1262.21
1262.06
1261.93
1261.85
1261.78
1261.69
1261.5
1260.63
1257.54
1256.79
1257.14
1257.29
1257.29
-1262.88
1262.88
1262.9
1262.94
1262.98
1263.03
1262.82
1262.61
1262.42
1262.24
1262.08
1261.96
1261.89
1261.87
1261.88
1261.84
1260.97
1257.25
1256.57
1257.12
1257.31
1257.31
-1262.91
1262.91
1262.94
1262.99
1263.04
1263.07
1262.88
1262.66
1262.46
1262.27
1262.11
1261.99
1261.94
1261.97
1262.09
1262.18
1261.39
1256.95
1256.35
1257.09
1257.32
1257.32
-1262.95
1262.95
1262.98
1263.04
1263.11
1263.12
1262.94
1262.71
1262.49
1262.3
1262.14
1262.02
1261.98
1262.06
1262.29
1262.5
1261.87
1256.64
1256.11
1257.07
1257.34
1257.34
0
1262.95
1262.98
1263.04
1263.11
1263.12
1262.94
1262.71
1262.49
1262.3
1262.14
1262.02
1261.98
1262.06
1262.29
1262.5
1261.87
1256.64
1256.11
1257.07
1257.34
0
0
1262.69
1262.69
1262.64
1262.55
1262.33
1262.25
1262.26
1262.16
1262.02
1261.88
1261.7
1261.49
1261.18
1260.78
1260.18
1259.34
1258.53
1257.87
1257.47
1257.22
0
-1262.69
1262.69
1262.69
1262.64
1262.55
1262.33
1262.25
1262.26
1262.16
1262.02
1261.88
1261.7
1261.49
1261.18
1260.78
1260.18
1259.34
1258.53
1257.87
1257.47
1257.22
1257.22
-1262.7
1262.7
1262.69
1262.64
1262.54
1262.45
1262.29
1262.27
1262.16
1262.02
1261.88
1261.7
1261.49
1261.19
1260.8
1260.19
1259.38
1258.53
1257.86
1257.47
1257.22
1257.22
-1262.71
1262.71
1262.7
1262.65
1262.54
1262.46
1262.33
1262.28
1262.17
1262.03
1261.89
1261.72
1261.5
1261.21
1260.82
1260.22
1259.45
1258.53
1257.84
1257.46
1257.23
1257.23
-1262.72
1262.72
1262.71
1262.66
1262.55
1262.44
1262.36
1262.3
1262.19
1262.04
1261.9
1261.73
1261.53
1261.24
1260.86
1260.27
1259.52
1258.52
1257.82
1257.45
1257.23
1257.23
-1262.73
1262.73
1262.72
1262.67
1262.57
1262.45
1262.39
1262.32
1262.21
1262.06
1261.92
1261.75
1261.56
1261.27
1260.91
1260.33
1259.59
1258.5
1257.78
1257.44
1257.24
1257.24
-1262.74
1262.74
1262.73
1262.69
1262.59
1262.47
1262.43
1262.35
1262.23
1262.08
1261.93
1261.77
1261.6
1261.32
1260.97
1260.41
1259.66
1258.47
1257.72
1257.42
1257.25
1257.25
-1262.76
1262.76
1262.75
1262.72
1262.63
1262.52
1262.47
1262.38
1262.25
1262.1
1261.95
1261.8
1261.63
1261.37
1261.04
1260.51
1259.73
1258.43
1257.65
1257.39
1257.26
1257.26
-1262.78
1262.78
1262.77
1262.75
1262.68
1262.59
1262.52
1262.41
1262.28
1262.12
1261.97
1261.83
1261.67
1261.43
1261.13
1260.62
1259.82
1258.38
1257.57
1257.37
1257.27
1257.27
-1262.8
1262.8
1262.8
1262.78
1262.73
1262.67
1262.58
1262.45
1262.31
1262.15
1262
1261.85
1261.71
1261.5
1261.23
1260.76
1259.93
1258.3
1257.48
1257.34
1257.28
1257.28
-1262.82
1262.82
1262.82
1262.82
1262.79
1262.78
1262.64
1262.49
1262.34
1262.17
1262.02
1261.88
1261.75
1261.57
1261.34
1260.92
1260.07
1258.19
1257.36
1257.31
1257.3
1257.3
-1262.85
1262.85
1262.85
1262.86
1262.85
1262.86
1262.69
1262.53
1262.37
1262.2
1262.05
1261.91
1261.79
1261.65
1261.47
1261.11
1260.24
1258.05
1257.23
1257.28
1257.31
1257.31
-1262.87
1262.87
1262.88
1262.9
1262.91
1262.93
1262.75
1262.57
1262.4
1262.23
1262.07
1261.94
1261.83
1261.73
1261.61
1261.34
1260.46
1257.89
1257.09
1257.25
1257.32
1257.32
-1262.9
1262.9
1262.92
1262.95
1262.97
1262.98
1262.81
1262.62
1262.43
1262.26
1262.1
1261.97
1261.88
1261.82
1261.77
1261.61
1260.72
1257.7
1256.93
1257.22
1257.34
1257.34
-1262.93
1262.93
1262.95
1262.99
1263.03
1263.03
1262.86
1262.66
1262.47
1262.28
1262.12
1262
1261.92
1261.91
1261.94
1261.88
1261.04
1257.51
1256.76
1257.2
1257.36
1257.36
-1262.96
1262.96
1262.99
1263.04
1263.09
1263.08
1262.92
1262.71
1262.5
1262.31
1262.15
1262.03
1261.97
1261.99
1262.11
1262.14
1261.38
1257.32
1256.58
1257.17
1257.37
1257.37
0
1262.96
1262.99
1263.04
1263.09
1263.08
1262.92
1262.71
1262.5
1262.31
1262.15
1262.03
1261.97
1261.99
1262.11
1262.14
1261.38
1257.32
1256.58
1257.17
1257.37
0
0
1262.72
1262.71
1262.66
1262.58
1262.39
1262.33
1262.3
1262.19
1262.04
1261.89
1261.71
1261.49
1261.19
1260.79
1260.2
1259.41
1258.6
1257.95
1257.53
1257.25
0
-1262.72
1262.72
1262.71
1262.66
1262.58
1262.39
1262.33
1262.3
1262.19
1262.04
1261.89
1261.71
1261.49
1261.19
1260.79
1260.2
1259.41
1258.6
1257.95
1257.53
1257.25
1257.25
-1262.72
1262.72
1262.71
1262.67
1262.58
1262.46
1262.36
1262.3
1262.19
1262.05
1261.9
1261.72
1261.5
1261.2
1260.8
1260.21
1259.44
1258.6
1257.94
1257.53
1257.26
1257.26
-1262.73
1262.73
1262.72
1262.68
1262.59
1262.49
1262.38
1262.32
1262.2
1262.06
1261.91
1261.73
1261.52
1261.22
1260.83
1260.24
1259.48
1258.6
1257.93
1257.53
1257.26
1257.26
-1262.74
1262.74
1262.73
1262.69
1262.6
1262.5
1262.41
1262.33
1262.21
1262.07
1261.92
1261.74
1261.54
1261.25
1260.86
1260.28
1259.53
1258.6
1257.91
1257.52
1257.27
1257.27
-1262.75
1262.75
1262.74
1262.7
1262.61
1262.51
1262.44
1262.35
1262.23
1262.08
1261.93
1261.76
1261.56
1261.28
1260.9
1260.33
1259.58
1258.58
1257.88
1257.51
1257.27
1257.27
-1262.77
1262.77
1262.76
1262.72
1262.64
1262.54
1262.47
1262.38
1262.25
1262.1
1261.95
1261.78
1261.59
1261.32
1260.96
1260.4
1259.64
1258.56
1257.84
1257.49
1257.28
1257.28
-1262.78
1262.78
1262.78
1262.74
1262.67
1262.58
1262.51
1262.4
1262.27
1262.12
1261.97
1261.81
1261.63
1261.37
1261.02
1260.48
1259.71
1258.53
1257.78
1257.48
1257.29
1257.29
-1262.8
1262.8
1262.8
1262.77
1262.71
1262.63
1262.55
1262.43
1262.3
1262.14
1261.99
1261.83
1261.66
1261.42
1261.1
1260.58
1259.79
1258.49
1257.72
1257.46
1257.3
1257.3
-1262.82
1262.82
1262.82
1262.8
1262.75
1262.7
1262.59
1262.47
1262.33
1262.17
1262.01
1261.86
1261.7
1261.48
1261.19
1260.7
1259.88
1258.44
1257.65
1257.43
1257.32
1257.32
-1262.84
1262.84
1262.84
1262.83
1262.8
1262.77
1262.64
1262.5
1262.35
1262.19
1262.03
1261.89
1261.74
1261.55
1261.29
1260.84
1259.99
1258.37
1257.57
1257.41
1257.33
1257.33
-1262.87
1262.87
1262.87
1262.87
1262.85
1262.83
1262.69
1262.54
1262.38
1262.22
1262.06
1261.91
1261.78
1261.62
1261.4
1261
1260.13
1258.28
1257.47
1257.39
1257.34
1257.34
-1262.89
1262.89
1262.9
1262.91
1262.91
1262.89
1262.75
1262.58
1262.41
1262.24
1262.09
1261.94
1261.82
1261.69
1261.52
1261.18
1260.3
1258.17
1257.36
1257.36
1257.36
1257.36
-1262.92
1262.92
1262.93
1262.95
1262.96
1262.95
1262.8
1262.62
1262.45
1262.27
1262.11
1261.98
1261.87
1261.77
1261.66
1261.39
1260.51
1258.06
1257.24
1257.34
1257.37
1257.37
-1262.95
1262.95
1262.97
1262.99
1263.01
1263
1262.85
1262.67
1262.48
1262.3
1262.14
1262.01
1261.91
1261.85
1261.8
1261.6
1260.74
1257.94
1257.12
1257.32
1257.39
1257.39
-1262.98
1262.98
1263
1263.04
1263.07
1263.05
1262.9
1262.71
1262.51
1262.33
1262.17
1262.04
1261.95