# vtk DataFile Version 3.0
FlowField
ASCII
DATASET STRUCTURED_GRID
DIMENSIONS 102 12 1 
POINTS 1224 double
0 0 0
0.3 0 0
0.6 0 0
0.9 0 0
1.2 0 0
1.5 0 0
1.8 0 0
2.1 0 0
2.4 0 0
2.7 0 0
3 0 0
3.3 0 0
3.6 0 0
3.9 0 0
4.2 0 0
4.5 0 0
4.8 0 0
5.1 0 0
5.4 0 0
5.7 0 0
6 0 0
6.3 0 0
6.6 0 0
6.9 0 0
7.2 0 0
7.5 0 0
7.8 0 0
8.1 0 0
8.4 0 0
8.7 0 0
9 0 0
9.3 0 0
9.6 0 0
9.9 0 0
10.2 0 0
10.5 0 0
10.8 0 0
11.1 0 0
11.4 0 0
11.7 0 0
12 0 0
12.3 0 0
12.6 0 0
12.9 0 0
13.2 0 0
13.5 0 0
13.8 0 0
14.1 0 0
14.4 0 0
14.7 0 0
15 0 0
15.3 0 0
15.6 0 0
15.9 0 0
16.2 0 0
16.5 0 0
16.8 0 0
17.1 0 0
17.4 0 0
17.7 0 0
18 0 0
18.3 0 0
18.6 0 0
18.9 0 0
19.2 0 0
19.5 0 0
19.8 0 0
20.1 0 0
20.4 0 0
20.7 0 0
21 0 0
21.3 0 0
21.6 0 0
21.9 0 0
22.2 0 0
22.5 0 0
22.8 0 0
23.1 0 0
23.4 0 0
23.7 0 0
24 0 0
24.3 0 0
24.6 0 0
24.9 0 0
25.2 0 0
25.5 0 0
25.8 0 0
26.1 0 0
26.4 0 0
26.7 0 0
27 0 0
27.3 0 0
27.6 0 0
27.9 0 0
28.2 0 0
28.5 0 0
28.8 0 0
29.1 0 0
29.4 0 0
29.7 0 0
30 0 0
30.3 0 0
0 0.1 0
0.3 0.1 0
0.6 0.1 0
0.9 0.1 0
1.2 0.1 0
1.5 0.1 0
1.8 0.1 0
2.1 0.1 0
2.4 0.1 0
2.7 0.1 0
3 0.1 0
3.3 0.1 0
3.6 0.1 0
3.9 0.1 0
4.2 0.1 0
4.5 0.1 0
4.8 0.1 0
5.1 0.1 0
5.4 0.1 0
5.7 0.1 0
6 0.1 0
6.3 0.1 0
6.6 0.1 0
6.9 0.1 0
7.2 0.1 0
7.5 0.1 0
7.8 0.1 0
8.1 0.1 0
8.4 0.1 0
8.7 0.1 0
9 0.1 0
9.3 0.1 0
9.6 0.1 0
9.9 0.1 0
10.2 0.1 0
10.5 0.1 0
10.8 0.1 0
11.1 0.1 0
11.4 0.1 0
11.7 0.1 0
12 0.1 0
12.3 0.1 0
12.6 0.1 0
12.9 0.1 0
13.2 0.1 0
13.5 0.1 0
13.8 0.1 0
14.1 0.1 0
14.4 0.1 0
14.7 0.1 0
15 0.1 0
15.3 0.1 0
15.6 0.1 0
15.9 0.1 0
16.2 0.1 0
16.5 0.1 0
16.8 0.1 0
17.1 0.1 0
17.4 0.1 0
17.7 0.1 0
18 0.1 0
18.3 0.1 0
18.6 0.1 0
18.9 0.1 0
19.2 0.1 0
19.5 0.1 0
19.8 0.1 0
20.1 0.1 0
20.4 0.1 0
20.7 0.1 0
21 0.1 0
21.3 0.1 0
21.6 0.1 0
21.9 0.1 0
22.2 0.1 0
22.5 0.1 0
22.8 0.1 0
23.1 0.1 0
23.4 0.1 0
23.7 0.1 0
24 0.1 0
24.3 0.1 0
24.6 0.1 0
24.9 0.1 0
25.2 0.1 0
25.5 0.1 0
25.8 0.1 0
26.1 0.1 0
26.4 0.1 0
26.7 0.1 0
27 0.1 0
27.3 0.1 0
27.6 0.1 0
27.9 0.1 0
28.2 0.1 0
28.5 0.1 0
28.8 0.1 0
29.1 0.1 0
29.4 0.1 0
29.7 0.1 0
30 0.1 0
30.3 0.1 0
0 0.2 0
0.3 0.2 0
0.6 0.2 0
0.9 0.2 0
1.2 0.2 0
1.5 0.2 0
1.8 0.2 0
2.1 0.2 0
2.4 0.2 0
2.7 0.2 0
3 0.2 0
3.3 0.2 0
3.6 0.2 0
3.9 0.2 0
4.2 0.2 0
4.5 0.2 0
4.8 0.2 0
5.1 0.2 0
5.4 0.2 0
5.7 0.2 0
6 0.2 0
6.3 0.2 0
6.6 0.2 0
6.9 0.2 0
7.2 0.2 0
7.5 0.2 0
7.8 0.2 0
8.1 0.2 0
8.4 0.2 0
8.7 0.2 0
9 0.2 0
9.3 0.2 0
9.6 0.2 0
9.9 0.2 0
10.2 0.2 0
10.5 0.2 0
10.8 0.2 0
11.1 0.2 0
11.4 0.2 0
11.7 0.2 0
12 0.2 0
12.3 0.2 0
12.6 0.2 0
12.9 0.2 0
13.2 0.2 0
13.5 0.2 0
13.8 0.2 0
14.1 0.2 0
14.4 0.2 0
14.7 0.2 0
15 0.2 0
15.3 0.2 0
15.6 0.2 0
15.9 0.2 0
16.2 0.2 0
16.5 0.2 0
16.8 0.2 0
17.1 0.2 0
17.4 0.2 0
17.7 0.2 0
18 0.2 0
18.3 0.2 0
18.6 0.2 0
18.9 0.2 0
19.2 0.2 0
19.5 0.2 0
19.8 0.2 0
20.1 0.2 0
20.4 0.2 0
20.7 0.2 0
21 0.2 0
21.3 0.2 0
21.6 0.2 0
21.9 0.2 0
22.2 0.2 0
22.5 0.2 0
22.8 0.2 0
23.1 0.2 0
23.4 0.2 0
23.7 0.2 0
24 0.2 0
24.3 0.2 0
24.6 0.2 0
24.9 0.2 0
25.2 0.2 0
25.5 0.2 0
25.8 0.2 0
26.1 0.2 0
26.4 0.2 0
26.7 0.2 0
27 0.2 0
27.3 0.2 0
27.6 0.2 0
27.9 0.2 0
28.2 0.2 0
28.5 0.2 0
28.8 0.2 0
29.1 0.2 0
29.4 0.2 0
29.7 0.2 0
30 0.2 0
30.3 0.2 0
0 0.3 0
0.3 0.3 0
0.6 0.3 0
0.9 0.3 0
1.2 0.3 0
1.5 0.3 0
1.8 0.3 0
2.1 0.3 0
2.4 0.3 0
2.7 0.3 0
3 0.3 0
3.3 0.3 0
3.6 0.3 0
3.9 0.3 0
4.2 0.3 0
4.5 0.3 0
4.8 0.3 0
5.1 0.3 0
5.4 0.3 0
5.7 0.3 0
6 0.3 0
6.3 0.3 0
6.6 0.3 0
6.9 0.3 0
7.2 0.3 0
7.5 0.3 0
7.8 0.3 0
8.1 0.3 0
8.4 0.3 0
8.7 0.3 0
9 0.3 0
9.3 0.3 0
9.6 0.3 0
9.9 0.3 0
10.2 0.3 0
10.5 0.3 0
10.8 0.3 0
11.1 0.3 0
11.4 0.3 0
11.7 0.3 0
12 0.3 0
12.3 0.3 0
12.6 0.3 0
12.9 0.3 0
13.2 0.3 0
13.5 0.3 0
13.8 0.3 0
14.1 0.3 0
14.4 0.3 0
14.7 0.3 0
15 0.3 0
15.3 0.3 0
15.6 0.3 0
15.9 0.3 0
16.2 0.3 0
16.5 0.3 0
16.8 0.3 0
17.1 0.3 0
17.4 0.3 0
17.7 0.3 0
18 0.3 0
18.3 0.3 0
18.6 0.3 0
18.9 0.3 0
19.2 0.3 0
19.5 0.3 0
19.8 0.3 0
20.1 0.3 0
20.4 0.3 0
20.7 0.3 0
21 0.3 0
21.3 0.3 0
21.6 0.3 0
21.9 0.3 0
22.2 0.3 0
22.5 0.3 0
22.8 0.3 0
23.1 0.3 0
23.4 0.3 0
23.7 0.3 0
24 0.3 0
24.3 0.3 0
24.6 0.3 0
24.9 0.3 0
25.2 0.3 0
25.5 0.3 0
25.8 0.3 0
26.1 0.3 0
26.4 0.3 0
26.7 0.3 0
27 0.3 0
27.3 0.3 0
27.6 0.3 0
27.9 0.3 0
28.2 0.3 0
28.5 0.3 0
28.8 0.3 0
29.1 0.3 0
29.4 0.3 0
29.7 0.3 0
30 0.3 0
30.3 0.3 0
0 0.4 0
0.3 0.4 0
0.6 0.4 0
0.9 0.4 0
1.2 0.4 0
1.5 0.4 0
1.8 0.4 0
2.1 0.4 0
2.4 0.4 0
2.7 0.4 0
3 0.4 0
3.3 0.4 0
3.6 0.4 0
3.9 0.4 0
4.2 0.4 0
4.5 0.4 0
4.8 0.4 0
5.1 0.4 0
5.4 0.4 0
5.7 0.4 0
6 0.4 0
6.3 0.4 0
6.6 0.4 0
6.9 0.4 0
7.2 0.4 0
7.5 0.4 0
7.8 0.4 0
8.1 0.4 0
8.4 0.4 0
8.7 0.4 0
9 0.4 0
9.3 0.4 0
9.6 0.4 0
9.9 0.4 0
10.2 0.4 0
10.5 0.4 0
10.8 0.4 0
11.1 0.4 0
11.4 0.4 0
11.7 0.4 0
12 0.4 0
12.3 0.4 0
12.6 0.4 0
12.9 0.4 0
13.2 0.4 0
13.5 0.4 0
13.8 0.4 0
14.1 0.4 0
14.4 0.4 0
14.7 0.4 0
15 0.4 0
15.3 0.4 0
15.6 0.4 0
15.9 0.4 0
16.2 0.4 0
16.5 0.4 0
16.8 0.4 0
17.1 0.4 0
17.4 0.4 0
17.7 0.4 0
18 0.4 0
18.3 0.4 0
18.6 0.4 0
18.9 0.4 0
19.2 0.4 0
19.5 0.4 0
19.8 0.4 0
20.1 0.4 0
20.4 0.4 0
20.7 0.4 0
21 0.4 0
21.3 0.4 0
21.6 0.4 0
21.9 0.4 0
22.2 0.4 0
22.5 0.4 0
22.8 0.4 0
23.1 0.4 0
23.4 0.4 0
23.7 0.4 0
24 0.4 0
24.3 0.4 0
24.6 0.4 0
24.9 0.4 0
25.2 0.4 0
25.5 0.4 0
25.8 0.4 0
26.1 0.4 0
26.4 0.4 0
26.7 0.4 0
27 0.4 0
27.3 0.4 0
27.6 0.4 0
27.9 0.4 0
28.2 0.4 0
28.5 0.4 0
28.8 0.4 0
29.1 0.4 0
29.4 0.4 0
29.7 0.4 0
30 0.4 0
30.3 0.4 0
0 0.5 0
0.3 0.5 0
0.6 0.5 0
0.9 0.5 0
1.2 0.5 0
1.5 0.5 0
1.8 0.5 0
2.1 0.5 0
2.4 0.5 0
2.7 0.5 0
3 0.5 0
3.3 0.5 0
3.6 0.5 0
3.9 0.5 0
4.2 0.5 0
4.5 0.5 0
4.8 0.5 0
5.1 0.5 0
5.4 0.5 0
5.7 0.5 0
6 0.5 0
6.3 0.5 0
6.6 0.5 0
6.9 0.5 0
7.2 0.5 0
7.5 0.5 0
7.8 0.5 0
8.1 0.5 0
8.4 0.5 0
8.7 0.5 0
9 0.5 0
9.3 0.5 0
9.6 0.5 0
9.9 0.5 0
10.2 0.5 0
10.5 0.5 0
10.8 0.5 0
11.1 0.5 0
11.4 0.5 0
11.7 0.5 0
12 0.5 0
12.3 0.5 0
12.6 0.5 0
12.9 0.5 0
13.2 0.5 0
13.5 0.5 0
13.8 0.5 0
14.1 0.5 0
14.4 0.5 0
14.7 0.5 0
15 0.5 0
15.3 0.5 0
15.6 0.5 0
15.9 0.5 0
16.2 0.5 0
16.5 0.5 0
16.8 0.5 0
17.1 0.5 0
17.4 0.5 0
17.7 0.5 0
18 0.5 0
18.3 0.5 0
18.6 0.5 0
18.9 0.5 0
19.2 0.5 0
19.5 0.5 0
19.8 0.5 0
20.1 0.5 0
20.4 0.5 0
20.7 0.5 0
21 0.5 0
21.3 0.5 0
21.6 0.5 0
21.9 0.5 0
22.2 0.5 0
22.5 0.5 0
22.8 0.5 0
23.1 0.5 0
23.4 0.5 0
23.7 0.5 0
24 0.5 0
24.3 0.5 0
24.6 0.5 0
24.9 0.5 0
25.2 0.5 0
25.5 0.5 0
25.8 0.5 0
26.1 0.5 0
26.4 0.5 0
26.7 0.5 0
27 0.5 0
27.3 0.5 0
27.6 0.5 0
27.9 0.5 0
28.2 0.5 0
28.5 0.5 0
28.8 0.5 0
29.1 0.5 0
29.4 0.5 0
29.7 0.5 0
30 0.5 0
30.3 0.5 0
0 0.6 0
0.3 0.6 0
0.6 0.6 0
0.9 0.6 0
1.2 0.6 0
1.5 0.6 0
1.8 0.6 0
2.1 0.6 0
2.4 0.6 0
2.7 0.6 0
3 0.6 0
3.3 0.6 0
3.6 0.6 0
3.9 0.6 0
4.2 0.6 0
4.5 0.6 0
4.8 0.6 0
5.1 0.6 0
5.4 0.6 0
5.7 0.6 0
6 0.6 0
6.3 0.6 0
6.6 0.6 0
6.9 0.6 0
7.2 0.6 0
7.5 0.6 0
7.8 0.6 0
8.1 0.6 0
8.4 0.6 0
8.7 0.6 0
9 0.6 0
9.3 0.6 0
9.6 0.6 0
9.9 0.6 0
10.2 0.6 0
10.5 0.6 0
10.8 0.6 0
11.1 0.6 0
11.4 0.6 0
11.7 0.6 0
12 0.6 0
12.3 0.6 0
12.6 0.6 0
12.9 0.6 0
13.2 0.6 0
13.5 0.6 0
13.8 0.6 0
14.1 0.6 0
14.4 0.6 0
14.7 0.6 0
15 0.6 0
15.3 0.6 0
15.6 0.6 0
15.9 0.6 0
16.2 0.6 0
16.5 0.6 0
16.8 0.6 0
17.1 0.6 0
17.4 0.6 0
17.7 0.6 0
18 0.6 0
18.3 0.6 0
18.6 0.6 0
18.9 0.6 0
19.2 0.6 0
19.5 0.6 0
19.8 0.6 0
20.1 0.6 0
20.4 0.6 0
20.7 0.6 0
21 0.6 0
21.3 0.6 0
21.6 0.6 0
21.9 0.6 0
22.2 0.6 0
22.5 0.6 0
22.8 0.6 0
23.1 0.6 0
23.4 0.6 0
23.7 0.6 0
24 0.6 0
24.3 0.6 0
24.6 0.6 0
24.9 0.6 0
25.2 0.6 0
25.5 0.6 0
25.8 0.6 0
26.1 0.6 0
26.4 0.6 0
26.7 0.6 0
27 0.6 0
27.3 0.6 0
27.6 0.6 0
27.9 0.6 0
28.2 0.6 0
28.5 0.6 0
28.8 0.6 0
29.1 0.6 0
29.4 0.6 0
29.7 0.6 0
30 0.6 0
30.3 0.6 0
0 0.7 0
0.3 0.7 0
0.6 0.7 0
0.9 0.7 0
1.2 0.7 0
1.5 0.7 0
1.8 0.7 0
2.1 0.7 0
2.4 0.7 0
2.7 0.7 0
3 0.7 0
3.3 0.7 0
3.6 0.7 0
3.9 0.7 0
4.2 0.7 0
4.5 0.7 0
4.8 0.7 0
5.1 0.7 0
5.4 0.7 0
5.7 0.7 0
6 0.7 0
6.3 0.7 0
6.6 0.7 0
6.9 0.7 0
7.2 0.7 0
7.5 0.7 0
7.8 0.7 0
8.1 0.7 0
8.4 0.7 0
8.7 0.7 0
9 0.7 0
9.3 0.7 0
9.6 0.7 0
9.9 0.7 0
10.2 0.7 0
10.5 0.7 0
10.8 0.7 0
11.1 0.7 0
11.4 0.7 0
11.7 0.7 0
12 0.7 0
12.3 0.7 0
12.6 0.7 0
12.9 0.7 0
13.2 0.7 0
13.5 0.7 0
13.8 0.7 0
14.1 0.7 0
14.4 0.7 0
14.7 0.7 0
15 0.7 0
15.3 0.7 0
15.6 0.7 0
15.9 0.7 0
16.2 0.7 0
16.5 0.7 0
16.8 0.7 0
17.1 0.7 0
17.4 0.7 0
17.7 0.7 0
18 0.7 0
18.3 0.7 0
18.6 0.7 0
18.9 0.7 0
19.2 0.7 0
19.5 0.7 0
19.8 0.7 0
20.1 0.7 0
20.4 0.7 0
20.7 0.7 0
21 0.7 0
21.3 0.7 0
21.6 0.7 0
21.9 0.7 0
22.2 0.7 0
22.5 0.7 0
22.8 0.7 0
23.1 0.7 0
23.4 0.7 0
23.7 0.7 0
24 0.7 0
24.3 0.7 0
24.6 0.7 0
24.9 0.7 0
25.2 0.7 0
25.5 0.7 0
25.8 0.7 0
26.1 0.7 0
26.4 0.7 0
26.7 0.7 0
27 0.7 0
27.3 0.7 0
27.6 0.7 0
27.9 0.7 0
28.2 0.7 0
28.5 0.7 0
28.8 0.7 0
29.1 0.7 0
29.4 0.7 0
29.7 0.7 0
30 0.7 0
30.3 0.7 0
0 0.8 0
0.3 0.8 0
0.6 0.8 0
0.9 0.8 0
1.2 0.8 0
1.5 0.8 0
1.8 0.8 0
2.1 0.8 0
2.4 0.8 0
2.7 0.8 0
3 0.8 0
3.3 0.8 0
3.6 0.8 0
3.9 0.8 0
4.2 0.8 0
4.5 0.8 0
4.8 0.8 0
5.1 0.8 0
5.4 0.8 0
5.7 0.8 0
6 0.8 0
6.3 0.8 0
6.6 0.8 0
6.9 0.8 0
7.2 0.8 0
7.5 0.8 0
7.8 0.8 0
8.1 0.8 0
8.4 0.8 0
8.7 0.8 0
9 0.8 0
9.3 0.8 0
9.6 0.8 0
9.9 0.8 0
10.2 0.8 0
10.5 0.8 0
10.8 0.8 0
11.1 0.8 0
11.4 0.8 0
11.7 0.8 0
12 0.8 0
12.3 0.8 0
12.6 0.8 0
12.9 0.8 0
13.2 0.8 0
13.5 0.8 0
13.8 0.8 0
14.1 0.8 0
14.4 0.8 0
14.7 0.8 0
15 0.8 0
15.3 0.8 0
15.6 0.8 0
15.9 0.8 0
16.2 0.8 0
16.5 0.8 0
16.8 0.8 0
17.1 0.8 0
17.4 0.8 0
17.7 0.8 0
18 0.8 0
18.3 0.8 0
18.6 0.8 0
18.9 0.8 0
19.2 0.8 0
19.5 0.8 0
19.8 0.8 0
20.1 0.8 0
20.4 0.8 0
20.7 0.8 0
21 0.8 0
21.3 0.8 0
21.6 0.8 0
21.9 0.8 0
22.2 0.8 0
22.5 0.8 0
22.8 0.8 0
23.1 0.8 0
23.4 0.8 0
23.7 0.8 0
24 0.8 0
24.3 0.8 0
24.6 0.8 0
24.9 0.8 0
25.2 0.8 0
25.5 0.8 0
25.8 0.8 0
26.1 0.8 0
26.4 0.8 0
26.7 0.8 0
27 0.8 0
27.3 0.8 0
27.6 0.8 0
27.9 0.8 0
28.2 0.8 0
28.5 0.8 0
28.8 0.8 0
29.1 0.8 0
29.4 0.8 0
29.7 0.8 0
30 0.8 0
30.3 0.8 0
0 0.9 0
0.3 0.9 0
0.6 0.9 0
0.9 0.9 0
1.2 0.9 0
1.5 0.9 0
1.8 0.9 0
2.1 0.9 0
2.4 0.9 0
2.7 0.9 0
3 0.9 0
3.3 0.9 0
3.6 0.9 0
3.9 0.9 0
4.2 0.9 0
4.5 0.9 0
4.8 0.9 0
5.1 0.9 0
5.4 0.9 0
5.7 0.9 0
6 0.9 0
6.3 0.9 0
6.6 0.9 0
6.9 0.9 0
7.2 0.9 0
7.5 0.9 0
7.8 0.9 0
8.1 0.9 0
8.4 0.9 0
8.7 0.9 0
9 0.9 0
9.3 0.9 0
9.6 0.9 0
9.9 0.9 0
10.2 0.9 0
10.5 0.9 0
10.8 0.9 0
11.1 0.9 0
11.4 0.9 0
11.7 0.9 0
12 0.9 0
12.3 0.9 0
12.6 0.9 0
12.9 0.9 0
13.2 0.9 0
13.5 0.9 0
13.8 0.9 0
14.1 0.9 0
14.4 0.9 0
14.7 0.9 0
15 0.9 0
15.3 0.9 0
15.6 0.9 0
15.9 0.9 0
16.2 0.9 0
16.5 0.9 0
16.8 0.9 0
17.1 0.9 0
17.4 0.9 0
17.7 0.9 0
18 0.9 0
18.3 0.9 0
18.6 0.9 0
18.9 0.9 0
19.2 0.9 0
19.5 0.9 0
19.8 0.9 0
20.1 0.9 0
20.4 0.9 0
20.7 0.9 0
21 0.9 0
21.3 0.9 0
21.6 0.9 0
21.9 0.9 0
22.2 0.9 0
22.5 0.9 0
22.8 0.9 0
23.1 0.9 0
23.4 0.9 0
23.7 0.9 0
24 0.9 0
24.3 0.9 0
24.6 0.9 0
24.9 0.9 0
25.2 0.9 0
25.5 0.9 0
25.8 0.9 0
26.1 0.9 0
26.4 0.9 0
26.7 0.9 0
27 0.9 0
27.3 0.9 0
27.6 0.9 0
27.9 0.9 0
28.2 0.9 0
28.5 0.9 0
28.8 0.9 0
29.1 0.9 0
29.4 0.9 0
29.7 0.9 0
30 0.9 0
30.3 0.9 0
0 1 0
0.3 1 0
0.6 1 0
0.9 1 0
1.2 1 0
1.5 1 0
1.8 1 0
2.1 1 0
2.4 1 0
2.7 1 0
3 1 0
3.3 1 0
3.6 1 0
3.9 1 0
4.2 1 0
4.5 1 0
4.8 1 0
5.1 1 0
5.4 1 0
5.7 1 0
6 1 0
6.3 1 0
6.6 1 0
6.9 1 0
7.2 1 0
7.5 1 0
7.8 1 0
8.1 1 0
8.4 1 0
8.7 1 0
9 1 0
9.3 1 0
9.6 1 0
9.9 1 0
10.2 1 0
10.5 1 0
10.8 1 0
11.1 1 0
11.4 1 0
11.7 1 0
12 1 0
12.3 1 0
12.6 1 0
12.9 1 0
13.2 1 0
13.5 1 0
13.8 1 0
14.1 1 0
14.4 1 0
14.7 1 0
15 1 0
15.3 1 0
15.6 1 0
15.9 1 0
16.2 1 0
16.5 1 0
16.8 1 0
17.1 1 0
17.4 1 0
17.7 1 0
18 1 0
18.3 1 0
18.6 1 0
18.9 1 0
19.2 1 0
19.5 1 0
19.8 1 0
20.1 1 0
20.4 1 0
20.7 1 0
21 1 0
21.3 1 0
21.6 1 0
21.9 1 0
22.2 1 0
22.5 1 0
22.8 1 0
23.1 1 0
23.4 1 0
23.7 1 0
24 1 0
24.3 1 0
24.6 1 0
24.9 1 0
25.2 1 0
25.5 1 0
25.8 1 0
26.1 1 0
26.4 1 0
26.7 1 0
27 1 0
27.3 1 0
27.6 1 0
27.9 1 0
28.2 1 0
28.5 1 0
28.8 1 0
29.1 1 0
29.4 1 0
29.7 1 0
30 1 0
30.3 1 0
0 1.1 0
0.3 1.1 0
0.6 1.1 0
0.9 1.1 0
1.2 1.1 0
1.5 1.1 0
1.8 1.1 0
2.1 1.1 0
2.4 1.1 0
2.7 1.1 0
3 1.1 0
3.3 1.1 0
3.6 1.1 0
3.9 1.1 0
4.2 1.1 0
4.5 1.1 0
4.8 1.1 0
5.1 1.1 0
5.4 1.1 0
5.7 1.1 0
6 1.1 0
6.3 1.1 0
6.6 1.1 0
6.9 1.1 0
7.2 1.1 0
7.5 1.1 0
7.8 1.1 0
8.1 1.1 0
8.4 1.1 0
8.7 1.1 0
9 1.1 0
9.3 1.1 0
9.6 1.1 0
9.9 1.1 0
10.2 1.1 0
10.5 1.1 0
10.8 1.1 0
11.1 1.1 0
11.4 1.1 0
11.7 1.1 0
12 1.1 0
12.3 1.1 0
12.6 1.1 0
12.9 1.1 0
13.2 1.1 0
13.5 1.1 0
13.8 1.1 0
14.1 1.1 0
14.4 1.1 0
14.7 1.1 0
15 1.1 0
15.3 1.1 0
15.6 1.1 0
15.9 1.1 0
16.2 1.1 0
16.5 1.1 0
16.8 1.1 0
17.1 1.1 0
17.4 1.1 0
17.7 1.1 0
18 1.1 0
18.3 1.1 0
18.6 1.1 0
18.9 1.1 0
19.2 1.1 0
19.5 1.1 0
19.8 1.1 0
20.1 1.1 0
20.4 1.1 0
20.7 1.1 0
21 1.1 0
21.3 1.1 0
21.6 1.1 0
21.9 1.1 0
22.2 1.1 0
22.5 1.1 0
22.8 1.1 0
23.1 1.1 0
23.4 1.1 0
23.7 1.1 0
24 1.1 0
24.3 1.1 0
24.6 1.1 0
24.9 1.1 0
25.2 1.1 0
25.5 1.1 0
25.8 1.1 0
26.1 1.1 0
26.4 1.1 0
26.7 1.1 0
27 1.1 0
27.3 1.1 0
27.6 1.1 0
27.9 1.1 0
28.2 1.1 0
28.5 1.1 0
28.8 1.1 0
29.1 1.1 0
29.4 1.1 0
29.7 1.1 0
30 1.1 0
30.3 1.1 0

POINT_DATA 1224

SCALARS pressure double
LOOKUP_TABLE pressure
1.36922
1.36922
1.30271
1.25564
1.21268
1.17303
1.137
1.10462
1.07552
1.04918
1.02507
1.00272
0.981741
0.961867
0.942898
0.924705
0.907205
0.890347
0.874094
0.858407
0.843239
0.828529
0.814205
0.800192
0.786414
0.772805
0.759312
0.745892
0.732518
0.719171
0.705837
0.692511
0.679189
0.665869
0.652549
0.63923
0.625911
0.612591
0.599272
0.585953
0.572634
0.559315
0.545995
0.532676
0.519357
0.506038
0.492719
0.479399
0.46608
0.452761
0.439442
0.426122
0.412803
0.399484
0.386165
0.372846
0.359526
0.346207
0.332888
0.319569
0.306249
0.29293
0.279611
0.266292
0.252973
0.239653
0.226334
0.213015
0.199696
0.186377
0.173057
0.159738
0.146419
0.1331
0.119781
0.106461
0.0931421
0.0798229
0.0665037
0.0531845
0.0398653
0.0265461
0.0132269
-9.22755e-05
-0.0134115
-0.0267307
-0.0400499
-0.0533691
-0.0666883
-0.0800075
-0.0933267
-0.106646
-0.119965
-0.133284
-0.146603
-0.159923
-0.173242
-0.18656
-0.19988
-0.213199
-0.226476
0.226476
1.36922
1.36922
1.30271
1.25564
1.21268
1.17303
1.137
1.10462
1.07552
1.04918
1.02507
1.00272
0.981741
0.961867
0.942898
0.924705
0.907205
0.890347
0.874094
0.858407
0.843239
0.828529
0.814205
0.800192
0.786414
0.772805
0.759312
0.745892
0.732518
0.719171
0.705837
0.692511
0.679189
0.665869
0.652549
0.63923
0.625911
0.612591
0.599272
0.585953
0.572634
0.559315
0.545995
0.532676
0.519357
0.506038
0.492719
0.479399
0.46608
0.452761
0.439442
0.426122
0.412803
0.399484
0.386165
0.372846
0.359526
0.346207
0.332888
0.319569
0.306249
0.29293
0.279611
0.266292
0.252973
0.239653
0.226334
0.213015
0.199696
0.186377
0.173057
0.159738
0.146419
0.1331
0.119781
0.106461
0.0931421
0.0798229
0.0665037
0.0531845
0.0398653
0.0265461
0.0132269
-9.22755e-05
-0.0134115
-0.0267307
-0.0400499
-0.0533691
-0.0666883
-0.0800075
-0.0933267
-0.106646
-0.119965
-0.133284
-0.146603
-0.159923
-0.173242
-0.18656
-0.19988
-0.213199
-0.226476
0.226476
1.34858
1.34858
1.30092
1.25595
1.2134
1.1738
1.13771
1.10521
1.07599
1.04955
1.02536
1.00294
0.981914
0.962003
0.943005
0.924788
0.907268
0.890392
0.874124
0.858425
0.843248
0.828532
0.814205
0.80019
0.786411
0.772803
0.75931
0.745891
0.732517
0.71917
0.705837
0.692511
0.679189
0.665869
0.652549
0.63923
0.625911
0.612591
0.599272
0.585953
0.572634
0.559315
0.545995
0.532676
0.519357
0.506038
0.492719
0.479399
0.46608
0.452761
0.439442
0.426122
0.412803
0.399484
0.386165
0.372846
0.359526
0.346207
0.332888
0.319569
0.306249
0.29293
0.279611
0.266292
0.252973
0.239653
0.226334
0.213015
0.199696
0.186377
0.173057
0.159738
0.146419
0.1331
0.119781
0.106461
0.0931421
0.0798229
0.0665037
0.0531845
0.0398653
0.0265461
0.0132269
-9.22756e-05
-0.0134115
-0.0267307
-0.0400499
-0.0533691
-0.0666883
-0.0800075
-0.0933267
-0.106646
-0.119965
-0.133284
-0.146603
-0.159923
-0.173242
-0.18656
-0.199879
-0.213198
-0.226475
0.226475
1.33419
1.33419
1.29841
1.25634
1.21453
1.17506
1.13888
1.1062
1.07678
1.05016
1.02581
1.00328
0.98217
0.962198
0.943156
0.924906
0.907361
0.890466
0.874181
0.858468
0.843279
0.828553
0.814219
0.800198
0.786416
0.772805
0.759311
0.745891
0.732517
0.71917
0.705837
0.692511
0.679189
0.665869
0.652549
0.63923
0.625911
0.612591
0.599272
0.585953
0.572634
0.559315
0.545995
0.532676
0.519357
0.506038
0.492719
0.479399
0.46608
0.452761
0.439442
0.426122
0.412803
0.399484
0.386165
0.372846
0.359526
0.346207
0.332888
0.319569
0.306249
0.29293
0.279611
0.266292
0.252973
0.239653
0.226334
0.213015
0.199696
0.186377
0.173057
0.159738
0.146419
0.1331
0.119781
0.106461
0.0931421
0.0798229
0.0665037
0.0531845
0.0398653
0.0265461
0.0132269
-9.22757e-05
-0.0134115
-0.0267307
-0.0400499
-0.0533691
-0.0666883
-0.0800075
-0.0933267
-0.106646
-0.119965
-0.133284
-0.146603
-0.159922
-0.173241
-0.186559
-0.199875
-0.213182
-0.226467
0.226467
1.3255
1.3255
1.2964
1.2566
1.21545
1.17614
1.13991
1.1071
1.07752
1.05074
1.02626
1.00362
0.982438
0.962409
0.943327
0.925049
0.907482
0.890569
0.874269
0.858542
0.843339
0.828601
0.814255
0.800224
0.786434
0.772816
0.759318
0.745895
0.73252
0.719171
0.705837
0.692511
0.679189
0.665869
0.652549
0.63923
0.625911
0.612591
0.599272
0.585953
0.572634
0.559315
0.545995
0.532676
0.519357
0.506038
0.492719
0.479399
0.46608
0.452761
0.439442
0.426122
0.412803
0.399484
0.386165
0.372846
0.359526
0.346207
0.332888
0.319569
0.306249
0.29293
0.279611
0.266292
0.252973
0.239653
0.226334
0.213015
0.199696
0.186377
0.173057
0.159738
0.146419
0.1331
0.119781
0.106461
0.0931421
0.0798229
0.0665037
0.0531845
0.0398653
0.0265461
0.0132269
-9.22756e-05
-0.0134115
-0.0267307
-0.0400499
-0.0533691
-0.0666883
-0.0800075
-0.0933267
-0.106646
-0.119965
-0.133284
-0.146603
-0.159922
-0.173241
-0.186558
-0.19987
-0.213155
-0.226456
0.226456
1.32142
1.32142
1.29532
1.25672
1.21595
1.17673
1.14048
1.1076
1.07793
1.05107
1.02653
1.00383
0.982602
0.962542
0.943438
0.925143
0.907564
0.890642
0.874333
0.858598
0.843386
0.828639
0.814285
0.800246
0.786449
0.772827
0.759324
0.745899
0.732522
0.719172
0.705838
0.692512
0.679189
0.665869
0.652549
0.63923
0.625911
0.612591
0.599272
0.585953
0.572634
0.559315
0.545995
0.532676
0.519357
0.506038
0.492719
0.479399
0.46608
0.452761
0.439442
0.426122
0.412803
0.399484
0.386165
0.372846
0.359526
0.346207
0.332888
0.319569
0.306249
0.29293
0.279611
0.266292
0.252973
0.239653
0.226334
0.213015
0.199696
0.186377
0.173057
0.159738
0.146419
0.1331
0.119781
0.106461
0.0931421
0.0798229
0.0665037
0.0531845
0.0398653
0.0265461
0.0132269
-9.22755e-05
-0.0134115
-0.0267307
-0.0400499
-0.0533691
-0.0666883
-0.0800075
-0.0933267
-0.106646
-0.119965
-0.133284
-0.146603
-0.159922
-0.173241
-0.186557
-0.199866
-0.213134
-0.226449
0.226449
1.32142
1.32142
1.29532
1.25672
1.21595
1.17673
1.14048
1.1076
1.07793
1.05107
1.02653
1.00383
0.982602
0.962542
0.943438
0.925143
0.907564
0.890642
0.874333
0.858598
0.843386
0.828639
0.814285
0.800246
0.786449
0.772827
0.759324
0.745899
0.732522
0.719172
0.705838
0.692512
0.679189
0.665869
0.652549
0.63923
0.625911
0.612591
0.599272
0.585953
0.572634
0.559315
0.545995
0.532676
0.519357
0.506038
0.492719
0.479399
0.46608
0.452761
0.439442
0.426122
0.412803
0.399484
0.386165
0.372846
0.359526
0.346207
0.332888
0.319569
0.306249
0.29293
0.279611
0.266292
0.252973
0.239653
0.226334
0.213015
0.199696
0.186377
0.173057
0.159738
0.146419
0.1331
0.119781
0.106461
0.0931421
0.0798229
0.0665037
0.0531845
0.0398653
0.0265461
0.0132269
-9.22754e-05
-0.0134115
-0.0267307
-0.0400499
-0.0533691
-0.0666883
-0.0800075
-0.0933267
-0.106646
-0.119965
-0.133284
-0.146603
-0.159922
-0.173241
-0.186557
-0.199866
-0.213134
-0.226449
0.226449
1.3255
1.3255
1.2964
1.2566
1.21545
1.17614
1.13991
1.1071
1.07752
1.05074
1.02626
1.00362
0.982438
0.962409
0.943327
0.925049
0.907482
0.890569
0.874269
0.858542
0.843339
0.828601
0.814255
0.800224
0.786434
0.772816
0.759318
0.745895
0.73252
0.719171
0.705837
0.692511
0.679189
0.665869
0.652549
0.63923
0.625911
0.612591
0.599272
0.585953
0.572634
0.559315
0.545995
0.532676
0.519357
0.506038
0.492719
0.479399
0.46608
0.452761
0.439442
0.426122
0.412803
0.399484
0.386165
0.372846
0.359526
0.346207
0.332888
0.319569
0.306249
0.29293
0.279611
0.266292
0.252973
0.239653
0.226334
0.213015
0.199696
0.186377
0.173057
0.159738
0.146419
0.1331
0.119781
0.106461
0.0931421
0.0798229
0.0665037
0.0531845
0.0398653
0.0265461
0.0132269
-9.22752e-05
-0.0134115
-0.0267307
-0.0400499
-0.0533691
-0.0666883
-0.0800075
-0.0933267
-0.106646
-0.119965
-0.133284
-0.146603
-0.159922
-0.173241
-0.186558
-0.19987
-0.213155
-0.226456
0.226456
1.33419
1.33419
1.29841
1.25634
1.21453
1.17506
1.13888
1.1062
1.07678
1.05016
1.02581
1.00328
0.98217
0.962198
0.943156
0.924906
0.907361
0.890466
0.874181
0.858468
0.843279
0.828553
0.814219
0.800198
0.786416
0.772805
0.759311
0.745891
0.732517
0.71917
0.705837
0.692511
0.679189
0.665869
0.652549
0.63923
0.625911
0.612591
0.599272
0.585953
0.572634
0.559315
0.545995
0.532676
0.519357
0.506038
0.492719
0.479399
0.46608
0.452761
0.439442
0.426122
0.412803
0.399484
0.386165
0.372846
0.359526
0.346207
0.332888
0.319569
0.306249
0.29293
0.279611
0.266292
0.252973
0.239653
0.226334
0.213015
0.199696
0.186377
0.173057
0.159738
0.146419
0.1331
0.119781
0.106461
0.0931421
0.0798229
0.0665037
0.0531845
0.0398653
0.0265461
0.0132269
-9.22751e-05
-0.0134115
-0.0267307
-0.0400499
-0.0533691
-0.0666883
-0.0800075
-0.0933267
-0.106646
-0.119965
-0.133284
-0.146603
-0.159922
-0.173241
-0.186559
-0.199875
-0.213182
-0.226467
0.226467
1.34857
1.34857
1.30092
1.25595
1.2134
1.1738
1.13771
1.10521
1.07599
1.04955
1.02536
1.00294
0.981914
0.962003
0.943005
0.924788
0.907268
0.890392
0.874124
0.858425
0.843248
0.828532
0.814205
0.80019
0.786411
0.772803
0.75931
0.745891
0.732517
0.71917
0.705837
0.692511
0.679189
0.665869
0.652549
0.63923
0.625911
0.612591
0.599272
0.585953
0.572634
0.559315
0.545995
0.532676
0.519357
0.506038
0.492719
0.479399
0.46608
0.452761
0.439442
0.426122
0.412803
0.399484
0.386165
0.372846
0.359526
0.346207
0.332888
0.319569
0.306249
0.29293
0.279611
0.266292
0.252973
0.239653
0.226334
0.213015
0.199696
0.186377
0.173057
0.159738
0.146419
0.1331
0.119781
0.106461
0.0931421
0.0798229
0.0665037
0.0531845
0.0398653
0.0265461
0.0132269
-9.22749e-05
-0.0134115
-0.0267307
-0.0400499
-0.0533691
-0.0666883
-0.0800075
-0.0933267
-0.106646
-0.119965
-0.133284
-0.146603
-0.159923
-0.173242
-0.18656
-0.199879
-0.213198
-0.226475
0.226475
1.36922
1.36922
1.30271
1.25564
1.21268
1.17303
1.137
1.10462
1.07552
1.04918
1.02507
1.00272
0.981741
0.961867
0.942898
0.924705
0.907205
0.890347
0.874094
0.858407
0.843239
0.828529
0.814205
0.800192
0.786414
0.772805
0.759312
0.745892
0.732518
0.719171
0.705837
0.692511
0.679189
0.665869
0.652549
0.63923
0.625911
0.612591
0.599272
0.585953
0.572634
0.559315
0.545995
0.532676
0.519357
0.506038
0.492719
0.479399
0.46608
0.452761
0.439442
0.426122
0.412803
0.399484
0.386165
0.372846
0.359526
0.346207
0.332888
0.319569
0.306249
0.29293
0.279611
0.266292
0.252973
0.239653
0.226334
0.213015
0.199696
0.186377
0.173057
0.159738
0.146419
0.1331
0.119781
0.106461
0.0931421
0.0798229
0.0665037
0.0531845
0.0398653
0.0265461
0.0132269
-9.22749e-05
-0.0134115
-0.0267307
-0.0400499
-0.0533691
-0.0666883
-0.0800075
-0.0933267
-0.106646
-0.119965
-0.133284
-0.146603
-0.159923
-0.173242
-0.18656
-0.19988
-0.213199
-0.226476
0.226476
1.36922
1.36922
1.30271
1.25564
1.21268
1.17303
1.137
1.10462
1.07552
1.04918
1.02507
1.00272
0.981741
0.961867
0.942898
0.924705
0.907205
0.890347
0.874094
0.858407
0.843239
0.828529
0.814205
0.800192
0.786414
0.772805
0.759312
0.745892
0.732518
0.719171
0.705837
0.692511
0.679189
0.665869
0.652549
0.63923
0.625911
0.612591
0.599272
0.585953
0.572634
0.559315
0.545995
0.532676
0.519357
0.506038
0.492719
0.479399
0.46608
0.452761
0.439442
0.426122
0.412803
0.399484
0.386165
0.372846
0.359526
0.346207
0.332888
0.319569
0.306249
0.29293
0.279611
0.266292
0.252973
0.239653
0.226334
0.213015
0.199696
0.186377
0.173057
0.159738
0.146419
0.1331
0.119781
0.106461
0.0931421
0.0798229
0.0665037
0.0531845
0.0398653
0.0265461
0.0132269
-9.22749e-05
-0.0134115
-0.0267307
-0.0400499
-0.0533691
-0.0666883
-0.0800075
-0.0933267
-0.106646
-0.119965
-0.133284
-0.146603
-0.159923
-0.173242
-0.18656
-0.19988
-0.213199
-0.226476
0.226476
SCALARS phi double
LOOKUP_TABLE phi
0.999999
1
0.999998
0.999975
1.00004
0.999926
0.999413
1.00007
1.00236
0.999512
0.979196
0.9329
0.861919
0.774969
0.682151
0.590866
0.505043
0.426189
0.354666
0.29049
0.233658
0.184178
0.141993
0.106896
0.078477
0.0561248
0.039072
0.0264633
0.0174319
0.0111661
0.006955
0.00421282
0.00248201
0.00142262
0.000793529
0.000430888
0.000227853
0.000117382
5.89355e-05
2.8851e-05
1.37764e-05
6.41919e-06
2.91996e-06
1.29719e-06
5.63041e-07
2.38869e-07
9.90903e-08
4.02091e-08
1.59662e-08
6.20612e-09
2.36231e-09
8.80852e-10
3.21858e-10
1.15282e-10
4.0489e-11
1.39483e-11
4.71459e-12
1.56399e-12
5.09343e-13
1.6289e-13
5.11685e-14
1.57922e-14
4.78991e-15
1.4281e-15
4.1864e-16
1.2069e-16
3.42252e-17
9.54907e-18
2.62183e-18
7.08543e-19
1.88509e-19
4.93837e-20
1.2741e-20
3.23796e-21
8.10705e-22
2.0001e-22
4.8631e-23
1.16551e-23
2.75378e-24
6.41537e-25
1.47386e-25
3.33966e-26
7.46476e-27
1.64612e-27
3.58176e-28
7.69096e-29
1.62993e-29
3.40971e-30
7.04175e-31
1.43585e-31
2.89107e-32
5.74876e-33
1.12904e-33
2.19033e-34
4.19781e-35
7.94873e-36
1.48722e-36
2.75e-37
5.02539e-38
9.08507e-39
1.55551e-39
1.55551e-39
0.999999
1
0.999998
0.999975
1.00004
0.999926
0.999413
1.00007
1.00236
0.999512
0.979196
0.9329
0.861919
0.774969
0.682151
0.590866
0.505043
0.426189
0.354666
0.29049
0.233658
0.184178
0.141993
0.106896
0.078477
0.0561248
0.039072
0.0264633
0.0174319
0.0111661
0.006955
0.00421282
0.00248201
0.00142262
0.000793529
0.000430888
0.000227853
0.000117382
5.89355e-05
2.8851e-05
1.37764e-05
6.41919e-06
2.91996e-06
1.29719e-06
5.63041e-07
2.38869e-07
9.90903e-08
4.02091e-08
1.59662e-08
6.20612e-09
2.36231e-09
8.80852e-10
3.21858e-10
1.15282e-10
4.0489e-11
1.39483e-11
4.71459e-12
1.56399e-12
5.09343e-13
1.6289e-13
5.11685e-14
1.57922e-14
4.78991e-15
1.4281e-15
4.1864e-16
1.2069e-16
3.42252e-17
9.54907e-18
2.62183e-18
7.08543e-19
1.88509e-19
4.93837e-20
1.2741e-20
3.23796e-21
8.10705e-22
2.0001e-22
4.8631e-23
1.16551e-23
2.75378e-24
6.41537e-25
1.47386e-25
3.33966e-26
7.46476e-27
1.64612e-27
3.58176e-28
7.69096e-29
1.62993e-29
3.40971e-30
7.04175e-31
1.43585e-31
2.89107e-32
5.74876e-33
1.12904e-33
2.19033e-34
4.19781e-35
7.94873e-36
1.48722e-36
2.75e-37
5.02539e-38
9.08507e-39
1.55551e-39
1.55551e-39
0.999998
1
0.999986
0.99991
0.999792
0.99957
0.999058
0.99847
0.998311
0.99793
0.994485
0.983871
0.96275
0.929944
0.88642
0.834377
0.776197
0.713785
0.648404
0.580883
0.511984
0.442727
0.374536
0.309166
0.248465
0.194067
0.147128
0.108173
0.0770909
0.0532423
0.0356357
0.0231188
0.0145422
0.00887265
0.00525335
0.00301993
0.00168643
0.000915349
0.000483165
0.000248163
0.000124093
6.04461e-05
2.86964e-05
1.32847e-05
6.00016e-06
2.64529e-06
1.13891e-06
4.79087e-07
1.96988e-07
7.92055e-08
3.11559e-08
1.19942e-08
4.5208e-09
1.66892e-09
6.03658e-10
2.14009e-10
7.43883e-11
2.53601e-11
8.48219e-12
2.78424e-12
8.97172e-13
2.83882e-13
8.82291e-14
2.6941e-14
8.08452e-15
2.38475e-15
6.91642e-16
1.97276e-16
5.53501e-17
1.52795e-17
4.15086e-18
1.10993e-18
2.92193e-19
7.57431e-20
1.93374e-20
4.86313e-21
1.20496e-21
2.94201e-22
7.07951e-23
1.67927e-23
3.92708e-24
9.05551e-25
2.0593e-25
4.61905e-26
1.02206e-26
2.23124e-27
4.8065e-28
1.02183e-28
2.14414e-29
4.44126e-30
9.08227e-31
1.83387e-31
3.65663e-32
7.20081e-33
1.40062e-33
2.6912e-34
5.1086e-35
9.58203e-36
1.7759e-36
3.25583e-37
5.63925e-38
5.63925e-38
1.00001
0.999992
0.999541
0.998611
0.997204
0.995328
0.992952
0.990104
0.986936
0.983553
0.979681
0.974531
0.966964
0.955859
0.940422
0.920299
0.895447
0.865851
0.831221
0.79085
0.743743
0.689013
0.626416
0.556793
0.482221
0.405787
0.331072
0.261497
0.199769
0.147536
0.105324
0.0726906
0.0485179
0.0313331
0.0195898
0.0118646
0.00696559
0.00396682
0.0021928
0.00117741
0.000614483
0.000311913
0.00015409
7.41301e-05
3.475e-05
1.58819e-05
7.08065e-06
3.08106e-06
1.30919e-06
5.4349e-07
2.20532e-07
8.75063e-08
3.39689e-08
1.29056e-08
4.80068e-09
1.74913e-09
6.24453e-10
2.18518e-10
7.4978e-11
2.52338e-11
8.33246e-12
2.70046e-12
8.5922e-13
2.68471e-13
8.24019e-14
2.48507e-14
7.36571e-15
2.14621e-15
6.14918e-16
1.73281e-16
4.80363e-17
1.3103e-17
3.51759e-18
9.2957e-19
2.41863e-19
6.19713e-20
1.56397e-20
3.8883e-21
9.52499e-22
2.29941e-22
5.47128e-23
1.28337e-23
2.96809e-24
6.76909e-25
1.52256e-25
3.37815e-26
7.39437e-27
1.597e-27
3.40366e-28
7.15954e-29
1.48654e-29
3.04704e-30
6.16653e-31
1.2323e-31
2.43198e-32
4.74044e-33
9.12727e-34
1.73613e-34
3.26267e-35
6.06278e-36
1.0628e-36
1.0628e-36
1.00143
0.99857
0.991253
0.981879
0.971564
0.960861
0.950054
0.939306
0.928747
0.918489
0.908579
0.898945
0.889364
0.879496
0.868969
0.857456
0.84468
0.830307
0.813727
0.793834
0.768943
0.73698
0.695978
0.644733
0.583398
0.513747
0.438991
0.363202
0.290539
0.224525
0.167562
0.120766
0.0840794
0.0565724
0.0368078
0.0231729
0.0141263
0.00834442
0.00477973
0.00265682
0.00143412
0.000752267
0.000383722
0.00019046
9.20463e-05
4.33398e-05
1.98929e-05
8.90605e-06
3.89115e-06
1.65998e-06
6.91784e-07
2.81767e-07
1.12216e-07
4.37181e-08
1.6668e-08
6.22161e-09
2.27448e-09
8.14678e-10
2.86001e-10
9.84416e-11
3.32324e-11
1.10067e-11
3.57763e-12
1.14159e-12
3.57703e-13
1.10092e-13
3.32907e-14
9.89324e-15
2.89009e-15
8.3013e-16
2.34501e-16
6.51638e-17
1.78167e-17
4.79399e-18
1.26972e-18
3.31093e-19
8.50165e-20
2.15007e-20
5.35644e-21
1.31478e-21
3.18023e-22
7.58171e-23
1.78176e-23
4.12832e-24
9.4321e-25
2.1253e-25
4.72362e-26
1.0357e-26
2.24055e-27
4.78303e-28
1.0077e-28
2.09557e-29
4.30197e-30
8.7193e-31
1.74501e-31
3.44878e-32
6.7319e-33
1.29797e-33
2.47221e-34
4.65467e-35
8.25888e-36
8.25888e-36
1.0456
0.954401
0.887723
0.838674
0.801641
0.772861
0.749886
0.731119
0.715497
0.702301
0.691018
0.681258
0.672687
0.665008
0.65796
0.651342
0.645003
0.638761
0.632231
0.624593
0.614429
0.59975
0.578303
0.548142
0.508262
0.459074
0.402506
0.341695
0.280366
0.222118
0.169827
0.125306
0.0892457
0.0613834
0.0407966
0.0262183
0.0163047
0.00981927
0.00573111
0.00324431
0.00178261
0.000951385
0.000493549
0.000249043
0.000122313
5.85058e-05
2.7272e-05
1.23959e-05
5.49693e-06
2.37946e-06
1.00594e-06
4.15541e-07
1.67806e-07
6.62742e-08
2.56103e-08
9.68715e-09
3.58808e-09
1.3019e-09
4.62913e-10
1.61355e-10
5.51538e-11
1.84934e-11
6.0848e-12
1.96514e-12
6.2314e-13
1.94064e-13
5.93735e-14
1.78501e-14