# vtk DataFile Version 3.0
FlowField
ASCII
DATASET STRUCTURED_GRID
DIMENSIONS 22 17 12 
POINTS 4488 double
0 0 0
0.1 0 0
0.2 0 0
0.3 0 0
0.4 0 0
0.5 0 0
0.6 0 0
0.7 0 0
0.8 0 0
0.9 0 0
1 0 0
1.1 0 0
1.2 0 0
1.3 0 0
1.4 0 0
1.5 0 0
1.6 0 0
1.7 0 0
1.8 0 0
1.9 0 0
2 0 0
2.1 0 0
0 0.1 0
0.1 0.1 0
0.2 0.1 0
0.3 0.1 0
0.4 0.1 0
0.5 0.1 0
0.6 0.1 0
0.7 0.1 0
0.8 0.1 0
0.9 0.1 0
1 0.1 0
1.1 0.1 0
1.2 0.1 0
1.3 0.1 0
1.4 0.1 0
1.5 0.1 0
1.6 0.1 0
1.7 0.1 0
1.8 0.1 0
1.9 0.1 0
2 0.1 0
2.1 0.1 0
0 0.2 0
0.1 0.2 0
0.2 0.2 0
0.3 0.2 0
0.4 0.2 0
0.5 0.2 0
0.6 0.2 0
0.7 0.2 0
0.8 0.2 0
0.9 0.2 0
1 0.2 0
1.1 0.2 0
1.2 0.2 0
1.3 0.2 0
1.4 0.2 0
1.5 0.2 0
1.6 0.2 0
1.7 0.2 0
1.8 0.2 0
1.9 0.2 0
2 0.2 0
2.1 0.2 0
0 0.3 0
0.1 0.3 0
0.2 0.3 0
0.3 0.3 0
0.4 0.3 0
0.5 0.3 0
0.6 0.3 0
0.7 0.3 0
0.8 0.3 0
0.9 0.3 0
1 0.3 0
1.1 0.3 0
1.2 0.3 0
1.3 0.3 0
1.4 0.3 0
1.5 0.3 0
1.6 0.3 0
1.7 0.3 0
1.8 0.3 0
1.9 0.3 0
2 0.3 0
2.1 0.3 0
0 0.4 0
0.1 0.4 0
0.2 0.4 0
0.3 0.4 0
0.4 0.4 0
0.5 0.4 0
0.6 0.4 0
0.7 0.4 0
0.8 0.4 0
0.9 0.4 0
1 0.4 0
1.1 0.4 0
1.2 0.4 0
1.3 0.4 0
1.4 0.4 0
1.5 0.4 0
1.6 0.4 0
1.7 0.4 0
1.8 0.4 0
1.9 0.4 0
2 0.4 0
2.1 0.4 0
0 0.5 0
0.1 0.5 0
0.2 0.5 0
0.3 0.5 0
0.4 0.5 0
0.5 0.5 0
0.6 0.5 0
0.7 0.5 0
0.8 0.5 0
0.9 0.5 0
1 0.5 0
1.1 0.5 0
1.2 0.5 0
1.3 0.5 0
1.4 0.5 0
1.5 0.5 0
1.6 0.5 0
1.7 0.5 0
1.8 0.5 0
1.9 0.5 0
2 0.5 0
2.1 0.5 0
0 0.6 0
0.1 0.6 0
0.2 0.6 0
0.3 0.6 0
0.4 0.6 0
0.5 0.6 0
0.6 0.6 0
0.7 0.6 0
0.8 0.6 0
0.9 0.6 0
1 0.6 0
1.1 0.6 0
1.2 0.6 0
1.3 0.6 0
1.4 0.6 0
1.5 0.6 0
1.6 0.6 0
1.7 0.6 0
1.8 0.6 0
1.9 0.6 0
2 0.6 0
2.1 0.6 0
0 0.7 0
0.1 0.7 0
0.2 0.7 0
0.3 0.7 0
0.4 0.7 0
0.5 0.7 0
0.6 0.7 0
0.7 0.7 0
0.8 0.7 0
0.9 0.7 0
1 0.7 0
1.1 0.7 0
1.2 0.7 0
1.3 0.7 0
1.4 0.7 0
1.5 0.7 0
1.6 0.7 0
1.7 0.7 0
1.8 0.7 0
1.9 0.7 0
2 0.7 0
2.1 0.7 0
0 0.8 0
0.1 0.8 0
0.2 0.8 0
0.3 0.8 0
0.4 0.8 0
0.5 0.8 0
0.6 0.8 0
0.7 0.8 0
0.8 0.8 0
0.9 0.8 0
1 0.8 0
1.1 0.8 0
1.2 0.8 0
1.3 0.8 0
1.4 0.8 0
1.5 0.8 0
1.6 0.8 0
1.7 0.8 0
1.8 0.8 0
1.9 0.8 0
2 0.8 0
2.1 0.8 0
0 0.9 0
0.1 0.9 0
0.2 0.9 0
0.3 0.9 0
0.4 0.9 0
0.5 0.9 0
0.6 0.9 0
0.7 0.9 0
0.8 0.9 0
0.9 0.9 0
1 0.9 0
1.1 0.9 0
1.2 0.9 0
1.3 0.9 0
1.4 0.9 0
1.5 0.9 0
1.6 0.9 0
1.7 0.9 0
1.8 0.9 0
1.9 0.9 0
2 0.9 0
2.1 0.9 0
0 1 0
0.1 1 0
0.2 1 0
0.3 1 0
0.4 1 0
0.5 1 0
0.6 1 0
0.7 1 0
0.8 1 0
0.9 1 0
1 1 0
1.1 1 0
1.2 1 0
1.3 1 0
1.4 1 0
1.5 1 0
1.6 1 0
1.7 1 0
1.8 1 0
1.9 1 0
2 1 0
2.1 1 0
0 1.1 0
0.1 1.1 0
0.2 1.1 0
0.3 1.1 0
0.4 1.1 0
0.5 1.1 0
0.6 1.1 0
0.7 1.1 0
0.8 1.1 0
0.9 1.1 0
1 1.1 0
1.1 1.1 0
1.2 1.1 0
1.3 1.1 0
1.4 1.1 0
1.5 1.1 0
1.6 1.1 0
1.7 1.1 0
1.8 1.1 0
1.9 1.1 0
2 1.1 0
2.1 1.1 0
0 1.2 0
0.1 1.2 0
0.2 1.2 0
0.3 1.2 0
0.4 1.2 0
0.5 1.2 0
0.6 1.2 0
0.7 1.2 0
0.8 1.2 0
0.9 1.2 0
1 1.2 0
1.1 1.2 0
1.2 1.2 0
1.3 1.2 0
1.4 1.2 0
1.5 1.2 0
1.6 1.2 0
1.7 1.2 0
1.8 1.2 0
1.9 1.2 0
2 1.2 0
2.1 1.2 0
0 1.3 0
0.1 1.3 0
0.2 1.3 0
0.3 1.3 0
0.4 1.3 0
0.5 1.3 0
0.6 1.3 0
0.7 1.3 0
0.8 1.3 0
0.9 1.3 0
1 1.3 0
1.1 1.3 0
1.2 1.3 0
1.3 1.3 0
1.4 1.3 0
1.5 1.3 0
1.6 1.3 0
1.7 1.3 0
1.8 1.3 0
1.9 1.3 0
2 1.3 0
2.1 1.3 0
0 1.4 0
0.1 1.4 0
0.2 1.4 0
0.3 1.4 0
0.4 1.4 0
0.5 1.4 0
0.6 1.4 0
0.7 1.4 0
0.8 1.4 0
0.9 1.4 0
1 1.4 0
1.1 1.4 0
1.2 1.4 0
1.3 1.4 0
1.4 1.4 0
1.5 1.4 0
1.6 1.4 0
1.7 1.4 0
1.8 1.4 0
1.9 1.4 0
2 1.4 0
2.1 1.4 0
0 1.5 0
0.1 1.5 0
0.2 1.5 0
0.3 1.5 0
0.4 1.5 0
0.5 1.5 0
0.6 1.5 0
0.7 1.5 0
0.8 1.5 0
0.9 1.5 0
1 1.5 0
1.1 1.5 0
1.2 1.5 0
1.3 1.5 0
1.4 1.5 0
1.5 1.5 0
1.6 1.5 0
1.7 1.5 0
1.8 1.5 0
1.9 1.5 0
2 1.5 0
2.1 1.5 0
0 1.6 0
0.1 1.6 0
0.2 1.6 0
0.3 1.6 0
0.4 1.6 0
0.5 1.6 0
0.6 1.6 0
0.7 1.6 0
0.8 1.6 0
0.9 1.6 0
1 1.6 0
1.1 1.6 0
1.2 1.6 0
1.3 1.6 0
1.4 1.6 0
1.5 1.6 0
1.6 1.6 0
1.7 1.6 0
1.8 1.6 0
1.9 1.6 0
2 1.6 0
2.1 1.6 0
0 0 0.1
0.1 0 0.1
0.2 0 0.1
0.3 0 0.1
0.4 0 0.1
0.5 0 0.1
0.6 0 0.1
0.7 0 0.1
0.8 0 0.1
0.9 0 0.1
1 0 0.1
1.1 0 0.1
1.2 0 0.1
1.3 0 0.1
1.4 0 0.1
1.5 0 0.1
1.6 0 0.1
1.7 0 0.1
1.8 0 0.1
1.9 0 0.1
2 0 0.1
2.1 0 0.1
0 0.1 0.1
0.1 0.1 0.1
0.2 0.1 0.1
0.3 0.1 0.1
0.4 0.1 0.1
0.5 0.1 0.1
0.6 0.1 0.1
0.7 0.1 0.1
0.8 0.1 0.1
0.9 0.1 0.1
1 0.1 0.1
1.1 0.1 0.1
1.2 0.1 0.1
1.3 0.1 0.1
1.4 0.1 0.1
1.5 0.1 0.1
1.6 0.1 0.1
1.7 0.1 0.1
1.8 0.1 0.1
1.9 0.1 0.1
2 0.1 0.1
2.1 0.1 0.1
0 0.2 0.1
0.1 0.2 0.1
0.2 0.2 0.1
0.3 0.2 0.1
0.4 0.2 0.1
0.5 0.2 0.1
0.6 0.2 0.1
0.7 0.2 0.1
0.8 0.2 0.1
0.9 0.2 0.1
1 0.2 0.1
1.1 0.2 0.1
1.2 0.2 0.1
1.3 0.2 0.1
1.4 0.2 0.1
1.5 0.2 0.1
1.6 0.2 0.1
1.7 0.2 0.1
1.8 0.2 0.1
1.9 0.2 0.1
2 0.2 0.1
2.1 0.2 0.1
0 0.3 0.1
0.1 0.3 0.1
0.2 0.3 0.1
0.3 0.3 0.1
0.4 0.3 0.1
0.5 0.3 0.1
0.6 0.3 0.1
0.7 0.3 0.1
0.8 0.3 0.1
0.9 0.3 0.1
1 0.3 0.1
1.1 0.3 0.1
1.2 0.3 0.1
1.3 0.3 0.1
1.4 0.3 0.1
1.5 0.3 0.1
1.6 0.3 0.1
1.7 0.3 0.1
1.8 0.3 0.1
1.9 0.3 0.1
2 0.3 0.1
2.1 0.3 0.1
0 0.4 0.1
0.1 0.4 0.1
0.2 0.4 0.1
0.3 0.4 0.1
0.4 0.4 0.1
0.5 0.4 0.1
0.6 0.4 0.1
0.7 0.4 0.1
0.8 0.4 0.1
0.9 0.4 0.1
1 0.4 0.1
1.1 0.4 0.1
1.2 0.4 0.1
1.3 0.4 0.1
1.4 0.4 0.1
1.5 0.4 0.1
1.6 0.4 0.1
1.7 0.4 0.1
1.8 0.4 0.1
1.9 0.4 0.1
2 0.4 0.1
2.1 0.4 0.1
0 0.5 0.1
0.1 0.5 0.1
0.2 0.5 0.1
0.3 0.5 0.1
0.4 0.5 0.1
0.5 0.5 0.1
0.6 0.5 0.1
0.7 0.5 0.1
0.8 0.5 0.1
0.9 0.5 0.1
1 0.5 0.1
1.1 0.5 0.1
1.2 0.5 0.1
1.3 0.5 0.1
1.4 0.5 0.1
1.5 0.5 0.1
1.6 0.5 0.1
1.7 0.5 0.1
1.8 0.5 0.1
1.9 0.5 0.1
2 0.5 0.1
2.1 0.5 0.1
0 0.6 0.1
0.1 0.6 0.1
0.2 0.6 0.1
0.3 0.6 0.1
0.4 0.6 0.1
0.5 0.6 0.1
0.6 0.6 0.1
0.7 0.6 0.1
0.8 0.6 0.1
0.9 0.6 0.1
1 0.6 0.1
1.1 0.6 0.1
1.2 0.6 0.1
1.3 0.6 0.1
1.4 0.6 0.1
1.5 0.6 0.1
1.6 0.6 0.1
1.7 0.6 0.1
1.8 0.6 0.1
1.9 0.6 0.1
2 0.6 0.1
2.1 0.6 0.1
0 0.7 0.1
0.1 0.7 0.1
0.2 0.7 0.1
0.3 0.7 0.1
0.4 0.7 0.1
0.5 0.7 0.1
0.6 0.7 0.1
0.7 0.7 0.1
0.8 0.7 0.1
0.9 0.7 0.1
1 0.7 0.1
1.1 0.7 0.1
1.2 0.7 0.1
1.3 0.7 0.1
1.4 0.7 0.1
1.5 0.7 0.1
1.6 0.7 0.1
1.7 0.7 0.1
1.8 0.7 0.1
1.9 0.7 0.1
2 0.7 0.1
2.1 0.7 0.1
0 0.8 0.1
0.1 0.8 0.1
0.2 0.8 0.1
0.3 0.8 0.1
0.4 0.8 0.1
0.5 0.8 0.1
0.6 0.8 0.1
0.7 0.8 0.1
0.8 0.8 0.1
0.9 0.8 0.1
1 0.8 0.1
1.1 0.8 0.1
1.2 0.8 0.1
1.3 0.8 0.1
1.4 0.8 0.1
1.5 0.8 0.1
1.6 0.8 0.1
1.7 0.8 0.1
1.8 0.8 0.1
1.9 0.8 0.1
2 0.8 0.1
2.1 0.8 0.1
0 0.9 0.1
0.1 0.9 0.1
0.2 0.9 0.1
0.3 0.9 0.1
0.4 0.9 0.1
0.5 0.9 0.1
0.6 0.9 0.1
0.7 0.9 0.1
0.8 0.9 0.1
0.9 0.9 0.1
1 0.9 0.1
1.1 0.9 0.1
1.2 0.9 0.1
1.3 0.9 0.1
1.4 0.9 0.1
1.5 0.9 0.1
1.6 0.9 0.1
1.7 0.9 0.1
1.8 0.9 0.1
1.9 0.9 0.1
2 0.9 0.1
2.1 0.9 0.1
0 1 0.1
0.1 1 0.1
0.2 1 0.1
0.3 1 0.1
0.4 1 0.1
0.5 1 0.1
0.6 1 0.1
0.7 1 0.1
0.8 1 0.1
0.9 1 0.1
1 1 0.1
1.1 1 0.1
1.2 1 0.1
1.3 1 0.1
1.4 1 0.1
1.5 1 0.1
1.6 1 0.1
1.7 1 0.1
1.8 1 0.1
1.9 1 0.1
2 1 0.1
2.1 1 0.1
0 1.1 0.1
0.1 1.1 0.1
0.2 1.1 0.1
0.3 1.1 0.1
0.4 1.1 0.1
0.5 1.1 0.1
0.6 1.1 0.1
0.7 1.1 0.1
0.8 1.1 0.1
0.9 1.1 0.1
1 1.1 0.1
1.1 1.1 0.1
1.2 1.1 0.1
1.3 1.1 0.1
1.4 1.1 0.1
1.5 1.1 0.1
1.6 1.1 0.1
1.7 1.1 0.1
1.8 1.1 0.1
1.9 1.1 0.1
2 1.1 0.1
2.1 1.1 0.1
0 1.2 0.1
0.1 1.2 0.1
0.2 1.2 0.1
0.3 1.2 0.1
0.4 1.2 0.1
0.5 1.2 0.1
0.6 1.2 0.1
0.7 1.2 0.1
0.8 1.2 0.1
0.9 1.2 0.1
1 1.2 0.1
1.1 1.2 0.1
1.2 1.2 0.1
1.3 1.2 0.1
1.4 1.2 0.1
1.5 1.2 0.1
1.6 1.2 0.1
1.7 1.2 0.1
1.8 1.2 0.1
1.9 1.2 0.1
2 1.2 0.1
2.1 1.2 0.1
0 1.3 0.1
0.1 1.3 0.1
0.2 1.3 0.1
0.3 1.3 0.1
0.4 1.3 0.1
0.5 1.3 0.1
0.6 1.3 0.1
0.7 1.3 0.1
0.8 1.3 0.1
0.9 1.3 0.1
1 1.3 0.1
1.1 1.3 0.1
1.2 1.3 0.1
1.3 1.3 0.1
1.4 1.3 0.1
1.5 1.3 0.1
1.6 1.3 0.1
1.7 1.3 0.1
1.8 1.3 0.1
1.9 1.3 0.1
2 1.3 0.1
2.1 1.3 0.1
0 1.4 0.1
0.1 1.4 0.1
0.2 1.4 0.1
0.3 1.4 0.1
0.4 1.4 0.1
0.5 1.4 0.1
0.6 1.4 0.1
0.7 1.4 0.1
0.8 1.4 0.1
0.9 1.4 0.1
1 1.4 0.1
1.1 1.4 0.1
1.2 1.4 0.1
1.3 1.4 0.1
1.4 1.4 0.1
1.5 1.4 0.1
1.6 1.4 0.1
1.7 1.4 0.1
1.8 1.4 0.1
1.9 1.4 0.1
2 1.4 0.1
2.1 1.4 0.1
0 1.5 0.1
0.1 1.5 0.1
0.2 1.5 0.1
0.3 1.5 0.1
0.4 1.5 0.1
0.5 1.5 0.1
0.6 1.5 0.1
0.7 1.5 0.1
0.8 1.5 0.1
0.9 1.5 0.1
1 1.5 0.1
1.1 1.5 0.1
1.2 1.5 0.1
1.3 1.5 0.1
1.4 1.5 0.1
1.5 1.5 0.1
1.6 1.5 0.1
1.7 1.5 0.1
1.8 1.5 0.1
1.9 1.5 0.1
2 1.5 0.1
2.1 1.5 0.1
0 1.6 0.1
0.1 1.6 0.1
0.2 1.6 0.1
0.3 1.6 0.1
0.4 1.6 0.1
0.5 1.6 0.1
0.6 1.6 0.1
0.7 1.6 0.1
0.8 1.6 0.1
0.9 1.6 0.1
1 1.6 0.1
1.1 1.6 0.1
1.2 1.6 0.1
1.3 1.6 0.1
1.4 1.6 0.1
1.5 1.6 0.1
1.6 1.6 0.1
1.7 1.6 0.1
1.8 1.6 0.1
1.9 1.6 0.1
2 1.6 0.1
2.1 1.6 0.1
0 0 0.2
0.1 0 0.2
0.2 0 0.2
0.3 0 0.2
0.4 0 0.2
0.5 0 0.2
0.6 0 0.2
0.7 0 0.2
0.8 0 0.2
0.9 0 0.2
1 0 0.2
1.1 0 0.2
1.2 0 0.2
1.3 0 0.2
1.4 0 0.2
1.5 0 0.2
1.6 0 0.2
1.7 0 0.2
1.8 0 0.2
1.9 0 0.2
2 0 0.2
2.1 0 0.2
0 0.1 0.2
0.1 0.1 0.2
0.2 0.1 0.2
0.3 0.1 0.2
0.4 0.1 0.2
0.5 0.1 0.2
0.6 0.1 0.2
0.7 0.1 0.2
0.8 0.1 0.2
0.9 0.1 0.2
1 0.1 0.2
1.1 0.1 0.2
1.2 0.1 0.2
1.3 0.1 0.2
1.4 0.1 0.2
1.5 0.1 0.2
1.6 0.1 0.2
1.7 0.1 0.2
1.8 0.1 0.2
1.9 0.1 0.2
2 0.1 0.2
2.1 0.1 0.2
0 0.2 0.2
0.1 0.2 0.2
0.2 0.2 0.2
0.3 0.2 0.2
0.4 0.2 0.2
0.5 0.2 0.2
0.6 0.2 0.2
0.7 0.2 0.2
0.8 0.2 0.2
0.9 0.2 0.2
1 0.2 0.2
1.1 0.2 0.2
1.2 0.2 0.2
1.3 0.2 0.2
1.4 0.2 0.2
1.5 0.2 0.2
1.6 0.2 0.2
1.7 0.2 0.2
1.8 0.2 0.2
1.9 0.2 0.2
2 0.2 0.2
2.1 0.2 0.2
0 0.3 0.2
0.1 0.3 0.2
0.2 0.3 0.2
0.3 0.3 0.2
0.4 0.3 0.2
0.5 0.3 0.2
0.6 0.3 0.2
0.7 0.3 0.2
0.8 0.3 0.2
0.9 0.3 0.2
1 0.3 0.2
1.1 0.3 0.2
1.2 0.3 0.2
1.3 0.3 0.2
1.4 0.3 0.2
1.5 0.3 0.2
1.6 0.3 0.2
1.7 0.3 0.2
1.8 0.3 0.2
1.9 0.3 0.2
2 0.3 0.2
2.1 0.3 0.2
0 0.4 0.2
0.1 0.4 0.2
0.2 0.4 0.2
0.3 0.4 0.2
0.4 0.4 0.2
0.5 0.4 0.2
0.6 0.4 0.2
0.7 0.4 0.2
0.8 0.4 0.2
0.9 0.4 0.2
1 0.4 0.2
1.1 0.4 0.2
1.2 0.4 0.2
1.3 0.4 0.2
1.4 0.4 0.2
1.5 0.4 0.2
1.6 0.4 0.2
1.7 0.4 0.2
1.8 0.4 0.2
1.9 0.4 0.2
2 0.4 0.2
2.1 0.4 0.2
0 0.5 0.2
0.1 0.5 0.2
0.2 0.5 0.2
0.3 0.5 0.2
0.4 0.5 0.2
0.5 0.5 0.2
0.6 0.5 0.2
0.7 0.5 0.2
0.8 0.5 0.2
0.9 0.5 0.2
1 0.5 0.2
1.1 0.5 0.2
1.2 0.5 0.2
1.3 0.5 0.2
1.4 0.5 0.2
1.5 0.5 0.2
1.6 0.5 0.2
1.7 0.5 0.2
1.8 0.5 0.2
1.9 0.5 0.2
2 0.5 0.2
2.1 0.5 0.2
0 0.6 0.2
0.1 0.6 0.2
0.2 0.6 0.2
0.3 0.6 0.2
0.4 0.6 0.2
0.5 0.6 0.2
0.6 0.6 0.2
0.7 0.6 0.2
0.8 0.6 0.2
0.9 0.6 0.2
1 0.6 0.2
1.1 0.6 0.2
1.2 0.6 0.2
1.3 0.6 0.2
1.4 0.6 0.2
1.5 0.6 0.2
1.6 0.6 0.2
1.7 0.6 0.2
1.8 0.6 0.2
1.9 0.6 0.2
2 0.6 0.2
2.1 0.6 0.2
0 0.7 0.2
0.1 0.7 0.2
0.2 0.7 0.2
0.3 0.7 0.2
0.4 0.7 0.2
0.5 0.7 0.2
0.6 0.7 0.2
0.7 0.7 0.2
0.8 0.7 0.2
0.9 0.7 0.2
1 0.7 0.2
1.1 0.7 0.2
1.2 0.7 0.2
1.3 0.7 0.2
1.4 0.7 0.2
1.5 0.7 0.2
1.6 0.7 0.2
1.7 0.7 0.2
1.8 0.7 0.2
1.9 0.7 0.2
2 0.7 0.2
2.1 0.7 0.2
0 0.8 0.2
0.1 0.8 0.2
[...]
POINT_DATA 4488

SCALARS pressure double
LOOKUP_TABLE pressure
1.0085
1.0085
1.00149
1.00063
1.00027
1.00011
1.00005
1.00002
1.00001
1
1
1
1
1
1
1
0.935719
1.21227
1.01
0.909155
0.942855
0.942855
1.0085
1.0085
1.00149
1.00063
1.00027
1.00011
1.00005
1.00002
1.00001
1
1
1
1
1
1
1
0.935719
1.21227
1.01
0.909155
0.942855
0.942855
2.27229e+233
2.27229e+233
-1.04525e+233
-3.55386e+232
-1.20831e+232
-4.10826e+231
-1.39681e+231
-4.74915e+230
-1.61471e+230
-5.49002e+229
-1.86661e+229
-6.34646e+228
-2.1578e+228
-7.33651e+227
-2.49441e+227
-8.481e+226
-2.88354e+226
-9.80404e+225
-3.33337e+225
-1.13335e+225
-4.81673e+224
-4.81673e+224
9.65723e+232
9.65723e+232
-2.70402e+231
-1.30025e+232
-8.52911e+231
-4.29671e+231
-1.9358e+231
-8.19641e+230
-3.33578e+230
-1.32083e+230
-5.12546e+229
-1.95844e+229
-7.39233e+228
-2.76283e+228
-1.02417e+228
-3.77054e+227
-1.38003e+227
-5.02542e+226
-1.82198e+226
-6.58007e+225
-3.00124e+225
-3.00124e+225
4.10432e+232
4.10432e+232
1.30353e+232
1.11638e+229
-2.8961e+231
-2.44555e+231
-1.48966e+231
-7.85162e+230
-3.80372e+230
-1.74234e+230
-7.66663e+229
-3.27252e+229
-1.364e+229
-5.57695e+228
-2.24438e+228
-8.91289e+227
-3.49959e+227
-1.36072e+227
-5.24594e+226
-2.00734e+226
-9.80673e+225
-9.80673e+225
1.74434e+232
1.74434e+232
1.03628e+232
3.52713e+231
2.14551e+230
-7.58541e+230
-7.64388e+230
-5.26847e+230
-3.08454e+230
-1.64114e+230
-8.18654e+229
-3.89608e+229
-1.78843e+229
-7.97681e+228
-3.47521e+228
-1.48461e+228
-6.23753e+227
-2.58341e+227
-1.05672e+227
-4.27534e+226
-2.23381e+226
-2.23381e+226
7.41343e+231
7.41343e+231
6.0439e+231
3.25415e+231
1.17936e+231
1.43078e+230
-2.11245e+230
-2.50951e+230
-1.90198e+230
-1.20466e+230
-6.87927e+229
-3.66362e+229
-1.8537e+229
-9.01468e+228
-4.24656e+228
-1.9486e+228
-8.74599e+227
-3.852e+227
-1.66896e+227
-7.12809e+226
-3.97881e+226
-3.97881e+226
3.15071e+231
3.15071e+231
3.12617e+231
2.16931e+231
1.13855e+231
4.35753e+230
7.63324e+229
-5.93705e+229
-8.48533e+229
-6.98086e+229
-4.71244e+229
-2.84786e+229
-1.59853e+229
-8.49999e+228
-4.33383e+228
-2.13602e+228
-1.02361e+228
-4.78996e+227
-2.19603e+227
-9.89007e+226
-5.89427e+226
-5.89427e+226
1.33905e+231
1.33905e+231
1.51817e+231
1.25374e+231
8.13379e+230
4.24705e+230
1.70353e+230
3.77339e+229
-1.60206e+229
-2.91819e+229
-2.59442e+229
-1.85037e+229
-1.17263e+229
-6.87693e+228
-3.81166e+228
-2.02221e+228
-1.03558e+228
-5.14956e+227
-2.4975e+227
-1.18541e+227
-7.54307e+226
-7.54307e+226
5.69097e+230
5.69097e+230
7.09672e+230
6.67562e+230
5.0352e+230
3.15596e+230
1.65223e+230
6.90052e+229
1.80148e+229
-3.79683e+228
-1.01119e+229
-9.72933e+228
-7.29491e+228
-4.81842e+228
-2.93423e+228
-1.68519e+228
-9.25062e+227
-4.89606e+227
-2.51381e+227
-1.25774e+227
-8.55118e+226
-8.55118e+226
2.41866e+230
2.41866e+230
3.23523e+230
3.36969e+230
2.85766e+230
2.04463e+230
1.25693e+230
6.61975e+229
2.86322e+229
8.44402e+228
-5.67093e+227
-3.50078e+228
-3.67053e+228
-2.88625e+228
-1.97896e+228
-1.24581e+228
-7.38097e+227
-4.17419e+227
-2.27392e+227
-1.20076e+227
-8.7375e+226
-8.7375e+226
1.02793e+230
1.02793e+230
1.44947e+230
1.63852e+230
1.5287e+230
1.21493e+230
8.40434e+229
5.10819e+229
2.71028e+229
1.20859e+229
3.9164e+228
1.41309e+227
-1.19994e+228
-1.3893e+228
-1.14521e+228
-8.12947e+227
-5.27355e+227
-3.21223e+227
-1.86529e+227
-1.04246e+227
-8.14388e+226
-8.14388e+226
4.36871e+229
4.36871e+229
6.41357e+229
7.75157e+229
7.83311e+229
6.79403e+229
5.16745e+229
3.49372e+229
2.10936e+229
1.1281e+229
5.16712e+228
1.80487e+228
2.05676e+227
-4.02433e+227
-5.26198e+227
-4.55309e+227
-3.34106e+227
-2.22812e+227
-1.39176e+227
-8.27634e+226
-6.9786e+226
-6.9786e+226
1.8567e+229
1.8567e+229
2.81189e+229
3.59158e+229
3.88439e+229
3.63066e+229
2.99136e+229
2.20493e+229
1.46686e+229
8.82286e+228
4.7566e+228
2.2309e+228
8.28435e+227
1.44841e+227
-1.29662e+227
-1.9889e+227
-1.81219e+227
-1.3737e+227
-9.40258e+226
-6.01083e+226
-5.52051e+226
-5.52051e+226
7.89098e+228
7.89098e+228
1.22434e+229
1.63741e+229
1.87741e+229
1.87275e+229
1.6538e+229
1.31196e+229
9.44799e+228
6.21209e+228
3.72935e+228
2.02649e+228
9.70673e+227
3.79275e+227
8.48684e+226
-3.87674e+226
-7.47953e+226
-7.21363e+226
-5.64951e+226
-3.96452e+226
-4.03113e+226
-4.03113e+226
4.47155e+228
4.47155e+228
7.10384e+228
9.97813e+228
1.22197e+229
1.31526e+229
1.26185e+229
1.09387e+229
8.66434e+228
6.32248e+228
4.27203e+228
2.67687e+228
1.55021e+228
8.20029e+227
3.84581e+227
1.46971e+227
3.06747e+226
-1.76212e+226
-3.14994e+226
-3.02365e+226
-3.99771e+226
-3.99771e+226
4.47155e+228
4.47155e+228
7.10384e+228
9.97813e+228
1.22197e+229
1.31526e+229
1.26185e+229
1.09387e+229
8.66434e+228
6.32248e+228
4.27203e+228
2.67687e+228
1.55021e+228
8.20029e+227
3.84581e+227
1.46971e+227
3.06747e+226
-1.76212e+226
-3.14994e+226
-3.02365e+226
-3.99771e+226
-3.99771e+226
1.0085
1.0085
1.00149
1.00063
1.00027
1.00011
1.00005
1.00002
1.00001
1
1
1
1
1
1
1
0.935719
1.21227
1.01
0.909155
0.942855
0.942855
1.0085
1.0085
1.00149
1.00063
1.00027
1.00011
1.00005
1.00002
1.00001
1
1
1
1
1
1
1
0.935719
1.21227
1.01
0.909155
0.942855
0.942855
2.27229e+233
2.27229e+233
-1.04525e+233
-3.55386e+232
-1.20831e+232
-4.10826e+231
-1.39681e+231
-4.74915e+230
-1.61471e+230
-5.49002e+229
-1.86661e+229
-6.34646e+228
-2.1578e+228
-7.33651e+227
-2.49441e+227
-8.481e+226
-2.88354e+226
-9.80404e+225
-3.33337e+225
-1.13335e+225
-4.81673e+224
-4.81673e+224
9.65723e+232
9.65723e+232
-2.70402e+231
-1.30025e+232
-8.52911e+231
-4.29671e+231
-1.9358e+231
-8.19641e+230
-3.33578e+230
-1.32083e+230
-5.12546e+229
-1.95844e+229
-7.39233e+228
-2.76283e+228
-1.02417e+228
-3.77054e+227
-1.38003e+227
-5.02542e+226
-1.82198e+226
-6.58007e+225
-3.00124e+225
-3.00124e+225
4.10432e+232
4.10432e+232
1.30353e+232
1.11638e+229
-2.8961e+231
-2.44555e+231
-1.48966e+231
-7.85162e+230
-3.80372e+230
-1.74234e+230
-7.66663e+229
-3.27252e+229
-1.364e+229
-5.57695e+228
-2.24438e+228
-8.91289e+227
-3.49959e+227
-1.36072e+227
-5.24594e+226
-2.00734e+226
-9.80673e+225
-9.80673e+225
1.74434e+232
1.74434e+232
1.03628e+232
3.52713e+231
2.14551e+230
-7.58541e+230
-7.64388e+230
-5.26847e+230
-3.08454e+230
-1.64114e+230
-8.18654e+229
-3.89608e+229
-1.78843e+229
-7.97681e+228
-3.47521e+228
-1.48461e+228
-6.23753e+227
-2.58341e+227
-1.05672e+227
-4.27534e+226
-2.23381e+226
-2.23381e+226
7.41343e+231
7.41343e+231
6.0439e+231
3.25415e+231
1.17936e+231
1.43078e+230
-2.11245e+230
-2.50951e+230
-1.90198e+230
-1.20466e+230
-6.87927e+229
-3.66362e+229
-1.8537e+229
-9.01468e+228
-4.24656e+228
-1.9486e+228
-8.74599e+227
-3.852e+227
-1.66896e+227
-7.12809e+226
-3.97881e+226
-3.97881e+226
3.15071e+231
3.15071e+231
3.12617e+231
2.16931e+231
1.13855e+231
4.35753e+230
7.63324e+229
-5.93705e+229
-8.48533e+229
-6.98086e+229
-4.71244e+229
-2.84786e+229
-1.59853e+229
-8.49999e+228
-4.33383e+228
-2.13602e+228
-1.02361e+228
-4.78996e+227
-2.19603e+227
-9.89007e+226
-5.89427e+226
-5.89427e+226
1.33905e+231
1.33905e+231
1.51817e+231
1.25374e+231
8.13379e+230
4.24705e+230
1.70353e+230
3.77339e+229
-1.60206e+229
-2.91819e+229
-2.59442e+229
-1.85037e+229
-1.17263e+229
-6.87693e+228
-3.81166e+228
-2.02221e+228
-1.03558e+228
-5.14956e+227
-2.4975e+227
-1.18541e+227
-7.54307e+226
-7.54307e+226
5.69097e+230
5.69097e+230
7.09672e+230
6.67562e+230
5.0352e+230
3.15596e+230
1.65223e+230
6.90052e+229
1.80148e+229
-3.79683e+228
-1.01119e+229
-9.72933e+228
-7.29491e+228
-4.81842e+228
-2.93423e+228
-1.68519e+228
-9.25062e+227
-4.89606e+227
-2.51381e+227
-1.25774e+227
-8.55118e+226
-8.55118e+226
2.41866e+230
2.41866e+230
3.23523e+230
3.36969e+230
2.85766e+230
2.04463e+230
1.25693e+230
6.61975e+229
2.86322e+229
8.44402e+228
-5.67093e+227
-3.50078e+228
-3.67053e+228
-2.88625e+228
-1.97896e+228
-1.24581e+228
-7.38097e+227
-4.17419e+227
-2.27392e+227
-1.20076e+227
-8.7375e+226
-8.7375e+226
1.02793e+230
1.02793e+230
1.44947e+230
1.63852e+230
1.5287e+230
1.21493e+230
8.40434e+229
5.10819e+229
2.71028e+229
1.20859e+229
3.9164e+228
1.41309e+227
-1.19994e+228
-1.3893e+228
-1.14521e+228
-8.12947e+227
-5.27355e+227
-3.21223e+227
-1.86529e+227
-1.04246e+227
-8.14388e+226
-8.14388e+226
4.36871e+229
4.36871e+229
6.41357e+229
7.75157e+229
7.83311e+229
6.79403e+229
5.16745e+229
3.49372e+229
2.10936e+229
1.1281e+229
5.16712e+228
1.80487e+228
2.05676e+227
-4.02433e+227
-5.26198e+227
-4.55309e+227
-3.34106e+227
-2.22812e+227
-1.39176e+227
-8.27634e+226
-6.9786e+226
-6.9786e+226
1.8567e+229
1.8567e+229
2.81189e+229
3.59158e+229
3.88439e+229
3.63066e+229
2.99136e+229
2.20493e+229
1.46686e+229
8.82286e+228
4.7566e+228
2.2309e+228
8.28435e+227
1.44841e+227
-1.29662e+227
-1.9889e+227
-1.81219e+227
-1.3737e+227
-9.40258e+226
-6.01083e+226
-5.52051e+226
-5.52051e+226
7.89098e+228
7.89098e+228
1.22434e+229
1.63741e+229
1.87741e+229
1.87275e+229
1.6538e+229
1.31196e+229
9.44799e+228
6.21209e+228
3.72935e+228
2.02649e+228
9.70673e+227
3.79275e+227
8.48684e+226
-3.87674e+226
-7.47953e+226
-7.21363e+226
-5.64951e+226
-3.96452e+226
-4.03113e+226
-4.03113e+226
4.47155e+228
4.47155e+228
7.10384e+228
9.97813e+228
1.22197e+229
1.31526e+229
1.26185e+229
1.09387e+229
8.66434e+228
6.32248e+228
4.27203e+228
2.67687e+228
1.55021e+228
8.20029e+227
3.84581e+227
1.46971e+227
3.06747e+226
-1.76212e+226
-3.14994e+226
-3.02365e+226
-3.99771e+226
-3.99771e+226
4.47155e+228
4.47155e+228
7.10384e+228
9.97813e+228
1.22197e+229
1.31526e+229
1.26185e+229
1.09387e+229
8.66434e+228
6.32248e+228
4.27203e+228
2.67687e+228
1.55021e+228
8.20029e+227
3.84581e+227
1.46971e+227
3.06747e+226
-1.76212e+226
-3.14994e+226
-3.02365e+226
-3.99771e+226
-3.99771e+226
2.27229e+233
2.27229e+233
-1.04525e+233
-3.55386e+232
-1.20831e+232
-4.10826e+231
-1.39681e+231
-4.74915e+230
-1.61471e+230
-5.49002e+229
-1.86661e+229
-6.34646e+228
-2.1578e+228
-7.33651e+227
-2.49441e+227
-8.481e+226
-2.88354e+226
-9.80404e+225
-3.33337e+225
-1.13335e+225
-4.81673e+224
-4.81673e+224
2.27229e+233
2.27229e+233
-1.04525e+233
-3.55386e+232
-1.20831e+232
-4.10826e+231
-1.39681e+231
-4.74915e+230
-1.61471e+230
-5.49002e+229
-1.86661e+229
-6.34646e+228
-2.1578e+228
-7.33651e+227
-2.49441e+227
-8.481e+226
-2.88354e+226
-9.80404e+225
-3.33337e+225
-1.13335e+225
-4.81673e+224
-4.81673e+224
nan
nan
nan
nan
nan
nan
nan
nan
nan
nan
nan
nan
nan
nan
nan
nan
nan
nan
nan
nan
nan
nan
nan
nan
nan
nan
nan
nan
nan
nan
nan
nan
nan
nan
nan
nan
nan
nan
nan
nan
nan
nan
nan
nan
nan
nan
nan
nan
nan
nan
nan
nan
nan
nan
nan
nan
nan
nan
nan
nan
nan
nan
nan
nan
nan
nan
nan
nan
nan
nan
nan
nan
nan
nan
nan
nan
nan
nan
nan
nan
nan
nan
nan
nan
nan
nan
nan
nan
nan
nan
nan
nan
nan
nan
nan
nan
nan
nan
nan
nan
nan
nan
nan
nan
nan
nan
nan
nan
nan
nan
nan
nan
nan
nan
nan
nan
nan
nan
nan
nan
nan
nan
nan
nan
nan
nan
nan
nan
nan
nan
nan
nan
nan
nan
nan
nan
nan
nan
nan
nan
nan
nan
nan
nan
nan
nan
nan
nan
nan
nan
nan
nan
nan
nan
nan
nan
nan
nan
nan
nan
nan
nan
nan
nan
nan
nan
nan
nan
nan
nan
nan
nan
nan
nan
nan
nan
nan
nan
nan
nan
nan
nan
nan
nan
nan
nan
nan
nan
nan
nan
nan
nan
nan
nan
nan
nan
nan
nan
nan
nan
nan
nan
nan
nan
nan
nan
nan
nan
nan
nan
nan
nan
nan
nan
nan
nan
nan
nan
nan
nan
nan
nan
nan
nan
nan
nan
nan
nan
nan
nan
nan
nan
nan
nan
nan
nan
nan
nan
nan
nan
nan
nan
nan
nan
nan
nan
nan
nan
nan
nan
nan
nan
nan
nan
nan
nan
nan
nan
nan
nan
nan
nan
nan
nan
nan
nan
nan
nan
nan
nan
nan
nan
nan
nan
nan
nan
nan
nan
nan
nan
nan
nan
nan
nan
nan
nan
nan
nan
nan
nan
nan
nan
nan
nan
nan
nan
nan
nan
nan
nan
nan
nan
nan
nan
nan
nan
nan
nan
nan
nan
nan
nan
nan
nan
nan
nan
nan
nan
nan
nan
nan
nan
nan
nan
nan
nan
nan
nan
nan
nan
9.65723e+232
9.65723e+232
-2.70402e+231
-1.30025e+232
-8.52911e+231
-4.29671e+231
-1.9358e+231
-8.19641e+230
-3.33578e+230
-1.32083e+230
-5.12546e+229
-1.95844e+229
-7.39233e+228
-2.76283e+228
-1.02417e+228
-3.77054e+227
-1.38003e+227
-5.02542e+226
-1.82198e+226
-6.58007e+225
-3.00124e+225
-3.00124e+225
9.65723e+232
9.65723e+232
-2.70402e+231
-1.30025e+232
-8.52911e+231
-4.29671e+231
-1.9358e+231
-8.19641e+230
-3.33578e+230
-1.32083e+230
-5.12546e+229
-1.95844e+229
-7.39233e+228
-2.76283e+228
-1.02417e+228
-3.77054e+227
-1.38003e+227
-5.02542e+226
-1.82198e+226
-6.58007e+225
-3.00124e+225
-3.00124e+225
nan
nan
nan
nan
nan
nan
nan
nan
nan
nan
nan
nan
nan
nan
nan
nan
nan
nan
nan
nan
nan
nan
nan
nan
nan
nan
nan
nan
nan
nan
nan
nan
nan
nan
nan
nan
nan
nan
nan
nan
nan
nan
nan
nan
nan
nan
nan
nan
nan
nan
nan
nan
nan
nan
nan
nan
nan
nan
nan
nan
nan
nan
nan
nan
nan
nan
nan
nan
nan
nan
nan
nan
nan
nan
nan
nan
nan
nan
nan
nan
nan
nan
nan
nan
nan
nan
nan
nan
nan
nan
nan
nan
nan
nan
nan
nan
nan
nan
nan
nan
nan
nan
nan
nan
nan
nan
nan
nan
nan
nan
nan
nan
nan
nan
nan
nan
nan
nan
nan
nan
nan
nan
nan
nan
nan
nan
nan
nan
nan
nan
nan
nan
nan
nan
nan
nan
nan
nan
nan
nan
nan
nan
nan
nan
nan
nan
nan
nan
nan
nan
nan
nan
nan
nan
nan
nan
nan
nan
nan
nan
nan
nan
nan
nan
nan
nan
nan
nan
nan
nan
nan
nan
nan
nan
nan
nan
nan
nan
nan
nan
nan
nan
nan
nan
nan
nan
nan
nan
nan
nan
nan
nan
nan
nan
nan
nan
nan
nan
nan
nan
nan
nan
nan
nan
nan
nan
nan
nan
nan
nan
nan
nan
nan
nan
nan
nan
nan
nan
nan
nan
nan
nan
nan
nan
nan
nan
nan
nan
nan
nan
nan
nan
nan
nan
nan
nan
nan
nan
nan
nan
nan
nan
nan
nan
nan
nan
nan
nan
nan
nan
nan
nan
nan
nan
nan
nan
nan
nan
nan
nan
nan
nan
nan
nan
nan
nan
nan
nan
nan
nan
nan
nan
nan
nan
nan
nan
nan
nan
nan
nan
nan
nan
nan
nan
nan
nan
nan
nan
nan
nan
nan
nan
nan
nan
nan
nan
nan
nan
nan
nan
nan
nan
nan
nan
nan
nan
nan
nan
nan
nan
nan
nan
nan
nan
nan
nan
nan
nan
nan
nan
nan
nan
nan
nan
nan
nan
nan
nan
nan
nan
4.10432e+232
4.10432e+232
1.30353e+232
1.11638e+229
-2.8961e+231
-2.44555e+231
-1.48966e+231
-7.85162e+230
-3.80372e+230
-1.74234e+230
-7.66663e+229
-3.27252e+229
-1.364e+229
-5.57695e+228
-2.24438e+228
-8.91289e+227
-3.49959e+227
-1.36072e+227
-5.24594e+226
-2.00734e+226
-9.80673e+225
-9.80673e+225
4.10432e+232
4.10432e+232
1.30353e+232
1.11638e+229
-2.8961e+231
-2.44555e+231
-1.48966e+231
-7.85162e+230
-3.80372e+230
-1.74234e+230
-7.66663e+229
-3.27252e+229
-1.364e+229
-5.57695e+228
-2.24438e+228
-8.91289e+227
-3.49959e+227
-1.36072e+227
-5.24594e+226
-2.00734e+226
-9.80673e+225
-9.80673e+225
nan
nan
nan
nan
nan
nan
nan
nan
nan
nan
nan
nan
nan
nan
nan
nan
nan
nan
nan
nan
nan
nan
nan
nan
nan
nan
nan
nan
nan
nan
nan
nan
nan
nan
nan
nan
nan
nan
nan
nan
nan
nan
nan
nan
nan
nan
nan
nan
nan
nan
nan
nan
nan
nan
nan
nan
nan
nan
nan
nan
nan
nan
nan
nan
nan
nan
nan
nan
nan
nan
nan
nan
nan
nan
nan
nan
nan
nan
nan
nan
nan
nan
nan
nan
nan
nan
nan
nan
nan
nan
nan
nan
nan
nan
nan
nan
nan
nan
nan
nan
nan
nan
nan
nan
nan
nan
nan
nan
nan
nan
nan
nan
nan
nan
nan
nan
nan
nan
nan
nan
nan
nan
nan
nan
nan
nan
nan
nan
nan
nan
nan
nan
nan
nan
nan
nan
nan
nan
nan
nan
nan
nan
nan
nan
nan
nan
nan
nan
nan
nan
nan
nan
nan
nan
nan
nan
nan
nan
nan
nan
nan
nan
nan
nan
nan
nan
nan
nan
nan
nan
nan
nan
nan
nan
nan
nan
nan
nan
nan
nan
nan
nan
nan
nan
nan
nan
nan
nan
nan
nan
nan
nan
nan
nan
nan
nan
nan
nan
nan
nan
nan
nan
nan
nan
nan
nan
nan
nan
nan
nan
nan
nan
nan
nan
nan
nan
nan
nan
nan
nan
nan
nan
nan
nan
nan
nan
nan
nan
nan
nan
nan
nan
nan
nan
nan
nan
nan
nan
nan
nan
nan
nan
nan
nan
nan
nan
nan
nan
nan
nan
nan
nan
nan
nan
nan
nan
nan
nan
nan
nan
nan
nan
nan
nan
nan
nan
nan
nan
nan
nan
nan
nan
nan
nan
nan
nan
nan
nan
nan
nan
nan
nan
nan
nan
nan
nan
nan
nan
nan
nan
nan
nan
nan
nan
nan
nan
nan
nan
nan
nan
nan
nan
nan
nan
nan
nan
nan
nan
nan
nan
nan
nan
nan
nan
nan
nan
nan
nan
nan
nan
nan
nan
nan
nan
nan
nan
nan
nan
nan
nan
1.74434e+232
1.74434e+232
1.03628e+232
3.52713e+231
2.14551e+230
-7.58541e+230
-7.64388e+230
-5.26847e+230
-3.08454e+230
-1.64114e+230
-8.18654e+229
-3.89608e+229
-1.78843e+229
-7.97681e+228
-3.47521e+228
-1.48461e+228
-6.23753e+227
-2.58341e+227
-1.05672e+227
-4.27534e+226
-2.23381e+226
-2.23381e+226
1.74434e+232
1.74434e+232
1.03628e+232
3.52713e+231
2.14551e+230
-7.58541e+230
-7.64388e+230
-5.26847e+230
-3.08454e+230
-1.64114e+230
-8.18654e+229
-3.89608e+229
-1.78843e+229
-7.97681e+228
-3.47521e+228
-1.48461e+228
-6.23753e+227
-2.58341e+227
-1.05672e+227
-4.27534e+226
-2.23381e+226
-2.23381e+226
nan
nan
nan
nan
nan
nan
nan
nan
nan
nan
nan
nan
nan
nan
nan
nan
nan
nan
nan
nan
nan
nan
nan
nan
nan
nan
nan
nan
nan
nan
nan
nan
nan
nan
nan
nan
nan
nan
nan
nan
nan
nan
nan
nan
nan
nan
nan
nan
nan
nan
nan
nan
nan
nan
nan
nan
nan
nan
nan
nan
nan
nan
nan
nan
nan
nan
nan
nan
nan
nan
nan
nan
nan
nan
nan
nan
nan
nan
nan
nan
nan
nan
nan
nan
nan
nan
nan
nan
nan
nan
nan
nan
nan
nan
nan
nan
nan
nan
nan
nan
nan
nan
nan
nan
nan
nan
nan
nan
nan
nan
nan
nan
nan
nan
nan
nan
nan
nan
nan
nan
nan
nan
nan
nan
nan
nan
nan
nan
nan
nan
nan
nan
nan
nan
nan
nan
nan
nan
nan
nan
nan
nan
nan
nan
nan
nan
nan
nan
nan
nan
nan
nan
nan
nan
nan
nan
nan
nan
nan
nan
nan
nan
nan
nan
nan
nan
nan
nan
nan
nan
nan
nan
nan
nan
nan
nan
nan
nan
nan
nan
nan
nan
nan
nan
nan
nan
nan
nan
nan
nan
nan
nan
nan
nan
nan
nan
nan
nan
nan
nan
nan
nan
nan
nan
nan
nan
nan
nan
nan
nan
nan
nan
nan
nan
nan
nan
nan
nan
nan
nan
nan
nan
nan
nan
nan
nan
nan
nan
nan
nan
nan
nan
nan
nan
nan
nan
nan
nan
nan
nan
nan
nan
nan
nan
nan
nan
nan
nan
nan
nan
nan
nan
nan
nan
nan
nan
nan
nan
nan
nan
nan
nan
nan
nan
nan
nan
nan
nan
nan
nan
nan
nan
nan
nan
nan
nan
nan
nan
nan
nan
nan
nan
nan
nan
nan
nan
nan
nan
nan
nan
nan
nan
nan
nan
nan
nan
nan
nan
nan
nan
nan
nan
nan
nan
nan
nan
nan
nan
nan
nan
nan
nan
nan
nan
nan
nan
nan
nan
nan
nan
nan
nan
nan
nan
nan
nan
nan
nan
nan
nan
7.41343e+231
7.41343e+231
6.0439e+231
3.25415e+231
1.17936e+231
1.43078e+230
-2.11245e+230
-2.50951e+230
-1.90198e+230
-1.20466e+230
-6.87927e+229
-3.66362e+229
-1.8537e+229
-9.01468e+228
-4.24656e+228
-1.9486e+228
-8.74599e+227
-3.852e+227
-1.66896e+227
-7.12809e+226
-3.97881e+226
-3.97881e+226
7.41343e+231
7.41343e+231
6.0439e+231
3.25415e+231
1.17936e+231
1.43078e+230
-2.11245e+230
-2.50951e+230
-1.90198e+230
-1.20466e+230
-6.87927e+229
-3.66362e+229
-1.8537e+229
-9.01468e+228
-4.24656e+228
-1.9486e+228
-8.74599e+227
-3.852e+227
-1.66896e+227
-7.12809e+226
-3.97881e+226
-3.97881e+226
nan
nan
nan
nan
nan
nan
nan
nan
nan
nan
nan
nan
nan
nan
nan
nan
nan
nan
nan
nan
nan
nan
nan
nan
nan
nan
nan
nan
nan
nan
nan
nan
nan
nan
nan
nan
nan
nan
nan
nan
nan
nan
nan
nan
nan
nan
nan
nan
nan
nan
nan
nan
nan
nan
nan
nan
nan
nan
nan
nan
nan
nan
nan
nan
nan
nan
nan
nan
nan
nan
nan
nan
nan
nan
nan
nan
nan
nan
nan
nan
nan
nan
nan
nan
nan
nan
nan
nan
nan
nan
nan
nan
nan
nan
nan
nan
nan
nan
nan
nan
nan
nan
nan
nan
nan
nan
nan
nan
nan
nan
nan
nan
nan
nan
nan
nan
nan
nan
nan
nan
nan
nan
nan
nan
nan
nan
nan
nan
nan
nan
nan
nan
nan
nan
nan
nan
nan
nan
nan
nan
nan
nan
nan
nan
nan
nan
nan
nan
nan
nan
nan
nan
nan
nan
nan
nan
nan
nan
nan
nan
nan
nan
nan
nan
nan
nan
nan
nan
nan
nan
nan
nan
nan
nan
nan
nan
nan
nan
nan
nan
nan
nan
nan
nan
nan
nan
nan
nan
nan
nan
nan
nan
nan
nan
nan
nan
nan
nan
nan
nan
nan
nan
nan
nan
nan
nan
nan
nan
nan
nan
nan
nan
nan
nan
nan
nan
nan
nan
nan
nan
nan
nan
nan
nan
nan
nan
nan
nan
nan
nan
nan
nan
nan
nan
nan
nan
nan
nan
nan
nan
nan
nan
nan
nan
nan
nan
nan
nan
nan
nan
nan
nan
nan
nan
nan
nan
nan
nan
nan
nan
nan
nan
nan
nan
nan
nan
nan
nan
nan
nan
nan
nan
nan
nan
nan
nan
nan
nan
nan
nan
nan
nan
nan
nan
nan
nan
nan
nan
nan
nan
nan
nan
nan
nan
nan
nan
nan
nan
nan
nan
nan
nan
nan
nan
nan
nan
nan
nan
nan
nan
nan
nan
nan
nan
nan
nan
nan
nan
nan
nan
nan
nan
nan
nan
nan
nan
nan
nan
nan
nan
3.15071e+231
3.15071e+231
3.12617e+231
2.16931e+231
1.13855e+231
4.35753e+230
7.63324e+229
-5.93705e+229
-8.48533e+229
-6.98086e+229
-4.71244e+229
-2.84786e+229
-1.59853e+229
-8.49999e+228
-4.33383e+228
-2.13602e+228
-1.02361e+228
-4.78996e+227
-2.19603e+227
-9.89007e+226
-5.89427e+226
-5.89427e+226
3.15071e+231
3.15071e+231
3.12617e+231
2.16931e+231
1.13855e+231
4.35753e+230
7.63324e+229
-5.93705e+229
-8.48533e+229
-6.98086e+229
-4.71244e+229
-2.84786e+229
-1.59853e+229
-8.49999e+228
-4.33383e+228
-2.13602e+228
-1.02361e+228
-4.78996e+227
-2.19603e+227
-9.89007e+226
-5.89427e+226
-5.89427e+226
nan
nan
nan
nan
nan
nan
nan
nan
nan
nan
nan
nan
nan
nan
nan
nan
nan
nan
nan
nan
nan
nan
nan
nan
nan
nan
nan
nan
nan
nan
nan
nan
nan
nan
nan
nan
nan
nan
nan
nan
nan
nan
nan
nan
nan
nan
nan
nan
nan
nan
nan
nan
nan
nan
nan
nan
nan
nan
nan
nan
nan
nan
nan
nan
nan
nan
nan
nan
nan
nan
nan