# vtk DataFile Version 3.0
FlowField
ASCII
DATASET STRUCTURED_GRID
DIMENSIONS 102 12 1 
POINTS 1224 double
0 0 0
0.3 0 0
0.6 0 0
0.9 0 0
1.2 0 0
1.5 0 0
1.8 0 0
2.1 0 0
2.4 0 0
2.7 0 0
3 0 0
3.3 0 0
3.6 0 0
3.9 0 0
4.2 0 0
4.5 0 0
4.8 0 0
5.1 0 0
5.4 0 0
5.7 0 0
6 0 0
6.3 0 0
6.6 0 0
6.9 0 0
7.2 0 0
7.5 0 0
7.8 0 0
8.1 0 0
8.4 0 0
8.7 0 0
9 0 0
9.3 0 0
9.6 0 0
9.9 0 0
10.2 0 0
10.5 0 0
10.8 0 0
11.1 0 0
11.4 0 0
11.7 0 0
12 0 0
12.3 0 0
12.6 0 0
12.9 0 0
13.2 0 0
13.5 0 0
13.8 0 0
14.1 0 0
14.4 0 0
14.7 0 0
15 0 0
15.3 0 0
15.6 0 0
15.9 0 0
16.2 0 0
16.5 0 0
16.8 0 0
17.1 0 0
17.4 0 0
17.7 0 0
18 0 0
18.3 0 0
18.6 0 0
18.9 0 0
19.2 0 0
19.5 0 0
19.8 0 0
20.1 0 0
20.4 0 0
20.7 0 0
21 0 0
21.3 0 0
21.6 0 0
21.9 0 0
22.2 0 0
22.5 0 0
22.8 0 0
23.1 0 0
23.4 0 0
23.7 0 0
24 0 0
24.3 0 0
24.6 0 0
24.9 0 0
25.2 0 0
25.5 0 0
25.8 0 0
26.1 0 0
26.4 0 0
26.7 0 0
27 0 0
27.3 0 0
27.6 0 0
27.9 0 0
28.2 0 0
28.5 0 0
28.8 0 0
29.1 0 0
29.4 0 0
29.7 0 0
30 0 0
30.3 0 0
0 0.1 0
0.3 0.1 0
0.6 0.1 0
0.9 0.1 0
1.2 0.1 0
1.5 0.1 0
1.8 0.1 0
2.1 0.1 0
2.4 0.1 0
2.7 0.1 0
3 0.1 0
3.3 0.1 0
3.6 0.1 0
3.9 0.1 0
4.2 0.1 0
4.5 0.1 0
4.8 0.1 0
5.1 0.1 0
5.4 0.1 0
5.7 0.1 0
6 0.1 0
6.3 0.1 0
6.6 0.1 0
6.9 0.1 0
7.2 0.1 0
7.5 0.1 0
7.8 0.1 0
8.1 0.1 0
8.4 0.1 0
8.7 0.1 0
9 0.1 0
9.3 0.1 0
9.6 0.1 0
9.9 0.1 0
10.2 0.1 0
10.5 0.1 0
10.8 0.1 0
11.1 0.1 0
11.4 0.1 0
11.7 0.1 0
12 0.1 0
12.3 0.1 0
12.6 0.1 0
12.9 0.1 0
13.2 0.1 0
13.5 0.1 0
13.8 0.1 0
14.1 0.1 0
14.4 0.1 0
14.7 0.1 0
15 0.1 0
15.3 0.1 0
15.6 0.1 0
15.9 0.1 0
16.2 0.1 0
16.5 0.1 0
16.8 0.1 0
17.1 0.1 0
17.4 0.1 0
17.7 0.1 0
18 0.1 0
18.3 0.1 0
18.6 0.1 0
18.9 0.1 0
19.2 0.1 0
19.5 0.1 0
19.8 0.1 0
20.1 0.1 0
20.4 0.1 0
20.7 0.1 0
21 0.1 0
21.3 0.1 0
21.6 0.1 0
21.9 0.1 0
22.2 0.1 0
22.5 0.1 0
22.8 0.1 0
23.1 0.1 0
23.4 0.1 0
23.7 0.1 0
24 0.1 0
24.3 0.1 0
24.6 0.1 0
24.9 0.1 0
25.2 0.1 0
25.5 0.1 0
25.8 0.1 0
26.1 0.1 0
26.4 0.1 0
26.7 0.1 0
27 0.1 0
27.3 0.1 0
27.6 0.1 0
27.9 0.1 0
28.2 0.1 0
28.5 0.1 0
28.8 0.1 0
29.1 0.1 0
29.4 0.1 0
29.7 0.1 0
30 0.1 0
30.3 0.1 0
0 0.2 0
0.3 0.2 0
0.6 0.2 0
0.9 0.2 0
1.2 0.2 0
1.5 0.2 0
1.8 0.2 0
2.1 0.2 0
2.4 0.2 0
2.7 0.2 0
3 0.2 0
3.3 0.2 0
3.6 0.2 0
3.9 0.2 0
4.2 0.2 0
4.5 0.2 0
4.8 0.2 0
5.1 0.2 0
5.4 0.2 0
5.7 0.2 0
6 0.2 0
6.3 0.2 0
6.6 0.2 0
6.9 0.2 0
7.2 0.2 0
7.5 0.2 0
7.8 0.2 0
8.1 0.2 0
8.4 0.2 0
8.7 0.2 0
9 0.2 0
9.3 0.2 0
9.6 0.2 0
9.9 0.2 0
10.2 0.2 0
10.5 0.2 0
10.8 0.2 0
11.1 0.2 0
11.4 0.2 0
11.7 0.2 0
12 0.2 0
12.3 0.2 0
12.6 0.2 0
12.9 0.2 0
13.2 0.2 0
13.5 0.2 0
13.8 0.2 0
14.1 0.2 0
14.4 0.2 0
14.7 0.2 0
15 0.2 0
15.3 0.2 0
15.6 0.2 0
15.9 0.2 0
16.2 0.2 0
16.5 0.2 0
16.8 0.2 0
17.1 0.2 0
17.4 0.2 0
17.7 0.2 0
18 0.2 0
18.3 0.2 0
18.6 0.2 0
18.9 0.2 0
19.2 0.2 0
19.5 0.2 0
19.8 0.2 0
20.1 0.2 0
20.4 0.2 0
20.7 0.2 0
21 0.2 0
21.3 0.2 0
21.6 0.2 0
21.9 0.2 0
22.2 0.2 0
22.5 0.2 0
22.8 0.2 0
23.1 0.2 0
23.4 0.2 0
23.7 0.2 0
24 0.2 0
24.3 0.2 0
24.6 0.2 0
24.9 0.2 0
25.2 0.2 0
25.5 0.2 0
25.8 0.2 0
26.1 0.2 0
26.4 0.2 0
26.7 0.2 0
27 0.2 0
27.3 0.2 0
27.6 0.2 0
27.9 0.2 0
28.2 0.2 0
28.5 0.2 0
28.8 0.2 0
29.1 0.2 0
29.4 0.2 0
29.7 0.2 0
30 0.2 0
30.3 0.2 0
0 0.3 0
0.3 0.3 0
0.6 0.3 0
0.9 0.3 0
1.2 0.3 0
1.5 0.3 0
1.8 0.3 0
2.1 0.3 0
2.4 0.3 0
2.7 0.3 0
3 0.3 0
3.3 0.3 0
3.6 0.3 0
3.9 0.3 0
4.2 0.3 0
4.5 0.3 0
4.8 0.3 0
5.1 0.3 0
5.4 0.3 0
5.7 0.3 0
6 0.3 0
6.3 0.3 0
6.6 0.3 0
6.9 0.3 0
7.2 0.3 0
7.5 0.3 0
7.8 0.3 0
8.1 0.3 0
8.4 0.3 0
8.7 0.3 0
9 0.3 0
9.3 0.3 0
9.6 0.3 0
9.9 0.3 0
10.2 0.3 0
10.5 0.3 0
10.8 0.3 0
11.1 0.3 0
11.4 0.3 0
11.7 0.3 0
12 0.3 0
12.3 0.3 0
12.6 0.3 0
12.9 0.3 0
13.2 0.3 0
13.5 0.3 0
13.8 0.3 0
14.1 0.3 0
14.4 0.3 0
14.7 0.3 0
15 0.3 0
15.3 0.3 0
15.6 0.3 0
15.9 0.3 0
16.2 0.3 0
16.5 0.3 0
16.8 0.3 0
17.1 0.3 0
17.4 0.3 0
17.7 0.3 0
18 0.3 0
18.3 0.3 0
18.6 0.3 0
18.9 0.3 0
19.2 0.3 0
19.5 0.3 0
19.8 0.3 0
20.1 0.3 0
20.4 0.3 0
20.7 0.3 0
21 0.3 0
21.3 0.3 0
21.6 0.3 0
21.9 0.3 0
22.2 0.3 0
22.5 0.3 0
22.8 0.3 0
23.1 0.3 0
23.4 0.3 0
23.7 0.3 0
24 0.3 0
24.3 0.3 0
24.6 0.3 0
24.9 0.3 0
25.2 0.3 0
25.5 0.3 0
25.8 0.3 0
26.1 0.3 0
26.4 0.3 0
26.7 0.3 0
27 0.3 0
27.3 0.3 0
27.6 0.3 0
27.9 0.3 0
28.2 0.3 0
28.5 0.3 0
28.8 0.3 0
29.1 0.3 0
29.4 0.3 0
29.7 0.3 0
30 0.3 0
30.3 0.3 0
0 0.4 0
0.3 0.4 0
0.6 0.4 0
0.9 0.4 0
1.2 0.4 0
1.5 0.4 0
1.8 0.4 0
2.1 0.4 0
2.4 0.4 0
2.7 0.4 0
3 0.4 0
3.3 0.4 0
3.6 0.4 0
3.9 0.4 0
4.2 0.4 0
4.5 0.4 0
4.8 0.4 0
5.1 0.4 0
5.4 0.4 0
5.7 0.4 0
6 0.4 0
6.3 0.4 0
6.6 0.4 0
6.9 0.4 0
7.2 0.4 0
7.5 0.4 0
7.8 0.4 0
8.1 0.4 0
8.4 0.4 0
8.7 0.4 0
9 0.4 0
9.3 0.4 0
9.6 0.4 0
9.9 0.4 0
10.2 0.4 0
10.5 0.4 0
10.8 0.4 0
11.1 0.4 0
11.4 0.4 0
11.7 0.4 0
12 0.4 0
12.3 0.4 0
12.6 0.4 0
12.9 0.4 0
13.2 0.4 0
13.5 0.4 0
13.8 0.4 0
14.1 0.4 0
14.4 0.4 0
14.7 0.4 0
15 0.4 0
15.3 0.4 0
15.6 0.4 0
15.9 0.4 0
16.2 0.4 0
16.5 0.4 0
16.8 0.4 0
17.1 0.4 0
17.4 0.4 0
17.7 0.4 0
18 0.4 0
18.3 0.4 0
18.6 0.4 0
18.9 0.4 0
19.2 0.4 0
19.5 0.4 0
19.8 0.4 0
20.1 0.4 0
20.4 0.4 0
20.7 0.4 0
21 0.4 0
21.3 0.4 0
21.6 0.4 0
21.9 0.4 0
22.2 0.4 0
22.5 0.4 0
22.8 0.4 0
23.1 0.4 0
23.4 0.4 0
23.7 0.4 0
24 0.4 0
24.3 0.4 0
24.6 0.4 0
24.9 0.4 0
25.2 0.4 0
25.5 0.4 0
25.8 0.4 0
26.1 0.4 0
26.4 0.4 0
26.7 0.4 0
27 0.4 0
27.3 0.4 0
27.6 0.4 0
27.9 0.4 0
28.2 0.4 0
28.5 0.4 0
28.8 0.4 0
29.1 0.4 0
29.4 0.4 0
29.7 0.4 0
30 0.4 0
30.3 0.4 0
0 0.5 0
0.3 0.5 0
0.6 0.5 0
0.9 0.5 0
1.2 0.5 0
1.5 0.5 0
1.8 0.5 0
2.1 0.5 0
2.4 0.5 0
2.7 0.5 0
3 0.5 0
3.3 0.5 0
3.6 0.5 0
3.9 0.5 0
4.2 0.5 0
4.5 0.5 0
4.8 0.5 0
5.1 0.5 0
5.4 0.5 0
5.7 0.5 0
6 0.5 0
6.3 0.5 0
6.6 0.5 0
6.9 0.5 0
7.2 0.5 0
7.5 0.5 0
7.8 0.5 0
8.1 0.5 0
8.4 0.5 0
8.7 0.5 0
9 0.5 0
9.3 0.5 0
9.6 0.5 0
9.9 0.5 0
10.2 0.5 0
10.5 0.5 0
10.8 0.5 0
11.1 0.5 0
11.4 0.5 0
11.7 0.5 0
12 0.5 0
12.3 0.5 0
12.6 0.5 0
12.9 0.5 0
13.2 0.5 0
13.5 0.5 0
13.8 0.5 0
14.1 0.5 0
14.4 0.5 0
14.7 0.5 0
15 0.5 0
15.3 0.5 0
15.6 0.5 0
15.9 0.5 0
16.2 0.5 0
16.5 0.5 0
16.8 0.5 0
17.1 0.5 0
17.4 0.5 0
17.7 0.5 0
18 0.5 0
18.3 0.5 0
18.6 0.5 0
18.9 0.5 0
19.2 0.5 0
19.5 0.5 0
19.8 0.5 0
20.1 0.5 0
20.4 0.5 0
20.7 0.5 0
21 0.5 0
21.3 0.5 0
21.6 0.5 0
21.9 0.5 0
22.2 0.5 0
22.5 0.5 0
22.8 0.5 0
23.1 0.5 0
23.4 0.5 0
23.7 0.5 0
24 0.5 0
24.3 0.5 0
24.6 0.5 0
24.9 0.5 0
25.2 0.5 0
25.5 0.5 0
25.8 0.5 0
26.1 0.5 0
26.4 0.5 0
26.7 0.5 0
27 0.5 0
27.3 0.5 0
27.6 0.5 0
27.9 0.5 0
28.2 0.5 0
28.5 0.5 0
28.8 0.5 0
29.1 0.5 0
29.4 0.5 0
29.7 0.5 0
30 0.5 0
30.3 0.5 0
0 0.6 0
0.3 0.6 0
0.6 0.6 0
0.9 0.6 0
1.2 0.6 0
1.5 0.6 0
1.8 0.6 0
2.1 0.6 0
2.4 0.6 0
2.7 0.6 0
3 0.6 0
3.3 0.6 0
3.6 0.6 0
3.9 0.6 0
4.2 0.6 0
4.5 0.6 0
4.8 0.6 0
5.1 0.6 0
5.4 0.6 0
5.7 0.6 0
6 0.6 0
6.3 0.6 0
6.6 0.6 0
6.9 0.6 0
7.2 0.6 0
7.5 0.6 0
7.8 0.6 0
8.1 0.6 0
8.4 0.6 0
8.7 0.6 0
9 0.6 0
9.3 0.6 0
9.6 0.6 0
9.9 0.6 0
10.2 0.6 0
10.5 0.6 0
10.8 0.6 0
11.1 0.6 0
11.4 0.6 0
11.7 0.6 0
12 0.6 0
12.3 0.6 0
12.6 0.6 0
12.9 0.6 0
13.2 0.6 0
13.5 0.6 0
13.8 0.6 0
14.1 0.6 0
14.4 0.6 0
14.7 0.6 0
15 0.6 0
15.3 0.6 0
15.6 0.6 0
15.9 0.6 0
16.2 0.6 0
16.5 0.6 0
16.8 0.6 0
17.1 0.6 0
17.4 0.6 0
17.7 0.6 0
18 0.6 0
18.3 0.6 0
18.6 0.6 0
18.9 0.6 0
19.2 0.6 0
19.5 0.6 0
19.8 0.6 0
20.1 0.6 0
20.4 0.6 0
20.7 0.6 0
21 0.6 0
21.3 0.6 0
21.6 0.6 0
21.9 0.6 0
22.2 0.6 0
22.5 0.6 0
22.8 0.6 0
23.1 0.6 0
23.4 0.6 0
23.7 0.6 0
24 0.6 0
24.3 0.6 0
24.6 0.6 0
24.9 0.6 0
25.2 0.6 0
25.5 0.6 0
25.8 0.6 0
26.1 0.6 0
26.4 0.6 0
26.7 0.6 0
27 0.6 0
27.3 0.6 0
27.6 0.6 0
27.9 0.6 0
28.2 0.6 0
28.5 0.6 0
28.8 0.6 0
29.1 0.6 0
29.4 0.6 0
29.7 0.6 0
30 0.6 0
30.3 0.6 0
0 0.7 0
0.3 0.7 0
0.6 0.7 0
0.9 0.7 0
1.2 0.7 0
1.5 0.7 0
1.8 0.7 0
2.1 0.7 0
2.4 0.7 0
2.7 0.7 0
3 0.7 0
3.3 0.7 0
3.6 0.7 0
3.9 0.7 0
4.2 0.7 0
4.5 0.7 0
4.8 0.7 0
5.1 0.7 0
5.4 0.7 0
5.7 0.7 0
6 0.7 0
6.3 0.7 0
6.6 0.7 0
6.9 0.7 0
7.2 0.7 0
7.5 0.7 0
7.8 0.7 0
8.1 0.7 0
8.4 0.7 0
8.7 0.7 0
9 0.7 0
9.3 0.7 0
9.6 0.7 0
9.9 0.7 0
10.2 0.7 0
10.5 0.7 0
10.8 0.7 0
11.1 0.7 0
11.4 0.7 0
11.7 0.7 0
12 0.7 0
12.3 0.7 0
12.6 0.7 0
12.9 0.7 0
13.2 0.7 0
13.5 0.7 0
13.8 0.7 0
14.1 0.7 0
14.4 0.7 0
14.7 0.7 0
15 0.7 0
15.3 0.7 0
15.6 0.7 0
15.9 0.7 0
16.2 0.7 0
16.5 0.7 0
16.8 0.7 0
17.1 0.7 0
17.4 0.7 0
17.7 0.7 0
18 0.7 0
18.3 0.7 0
18.6 0.7 0
18.9 0.7 0
19.2 0.7 0
19.5 0.7 0
19.8 0.7 0
20.1 0.7 0
20.4 0.7 0
20.7 0.7 0
21 0.7 0
21.3 0.7 0
21.6 0.7 0
21.9 0.7 0
22.2 0.7 0
22.5 0.7 0
22.8 0.7 0
23.1 0.7 0
23.4 0.7 0
23.7 0.7 0
24 0.7 0
24.3 0.7 0
24.6 0.7 0
24.9 0.7 0
25.2 0.7 0
25.5 0.7 0
25.8 0.7 0
26.1 0.7 0
26.4 0.7 0
26.7 0.7 0
27 0.7 0
27.3 0.7 0
27.6 0.7 0
27.9 0.7 0
28.2 0.7 0
28.5 0.7 0
28.8 0.7 0
29.1 0.7 0
29.4 0.7 0
29.7 0.7 0
30 0.7 0
30.3 0.7 0
0 0.8 0
0.3 0.8 0
0.6 0.8 0
0.9 0.8 0
1.2 0.8 0
1.5 0.8 0
1.8 0.8 0
2.1 0.8 0
2.4 0.8 0
2.7 0.8 0
3 0.8 0
3.3 0.8 0
3.6 0.8 0
3.9 0.8 0
4.2 0.8 0
4.5 0.8 0
4.8 0.8 0
5.1 0.8 0
5.4 0.8 0
5.7 0.8 0
6 0.8 0
6.3 0.8 0
6.6 0.8 0
6.9 0.8 0
7.2 0.8 0
7.5 0.8 0
7.8 0.8 0
8.1 0.8 0
8.4 0.8 0
8.7 0.8 0
9 0.8 0
9.3 0.8 0
9.6 0.8 0
9.9 0.8 0
10.2 0.8 0
10.5 0.8 0
10.8 0.8 0
11.1 0.8 0
11.4 0.8 0
11.7 0.8 0
12 0.8 0
12.3 0.8 0
12.6 0.8 0
12.9 0.8 0
13.2 0.8 0
13.5 0.8 0
13.8 0.8 0
14.1 0.8 0
14.4 0.8 0
14.7 0.8 0
15 0.8 0
15.3 0.8 0
15.6 0.8 0
15.9 0.8 0
16.2 0.8 0
16.5 0.8 0
16.8 0.8 0
17.1 0.8 0
17.4 0.8 0
17.7 0.8 0
18 0.8 0
18.3 0.8 0
18.6 0.8 0
18.9 0.8 0
19.2 0.8 0
19.5 0.8 0
19.8 0.8 0
20.1 0.8 0
20.4 0.8 0
20.7 0.8 0
21 0.8 0
21.3 0.8 0
21.6 0.8 0
21.9 0.8 0
22.2 0.8 0
22.5 0.8 0
22.8 0.8 0
23.1 0.8 0
23.4 0.8 0
23.7 0.8 0
24 0.8 0
24.3 0.8 0
24.6 0.8 0
24.9 0.8 0
25.2 0.8 0
25.5 0.8 0
25.8 0.8 0
26.1 0.8 0
26.4 0.8 0
26.7 0.8 0
27 0.8 0
27.3 0.8 0
27.6 0.8 0
27.9 0.8 0
28.2 0.8 0
28.5 0.8 0
28.8 0.8 0
29.1 0.8 0
29.4 0.8 0
29.7 0.8 0
30 0.8 0
30.3 0.8 0
0 0.9 0
0.3 0.9 0
0.6 0.9 0
0.9 0.9 0
1.2 0.9 0
1.5 0.9 0
1.8 0.9 0
2.1 0.9 0
2.4 0.9 0
2.7 0.9 0
3 0.9 0
3.3 0.9 0
3.6 0.9 0
3.9 0.9 0
4.2 0.9 0
4.5 0.9 0
4.8 0.9 0
5.1 0.9 0
5.4 0.9 0
5.7 0.9 0
6 0.9 0
6.3 0.9 0
6.6 0.9 0
6.9 0.9 0
7.2 0.9 0
7.5 0.9 0
7.8 0.9 0
8.1 0.9 0
8.4 0.9 0
8.7 0.9 0
9 0.9 0
9.3 0.9 0
9.6 0.9 0
9.9 0.9 0
10.2 0.9 0
10.5 0.9 0
10.8 0.9 0
11.1 0.9 0
11.4 0.9 0
11.7 0.9 0
12 0.9 0
12.3 0.9 0
12.6 0.9 0
12.9 0.9 0
13.2 0.9 0
13.5 0.9 0
13.8 0.9 0
14.1 0.9 0
14.4 0.9 0
14.7 0.9 0
15 0.9 0
15.3 0.9 0
15.6 0.9 0
15.9 0.9 0
16.2 0.9 0
16.5 0.9 0
16.8 0.9 0
17.1 0.9 0
17.4 0.9 0
17.7 0.9 0
18 0.9 0
18.3 0.9 0
18.6 0.9 0
18.9 0.9 0
19.2 0.9 0
19.5 0.9 0
19.8 0.9 0
20.1 0.9 0
20.4 0.9 0
20.7 0.9 0
21 0.9 0
21.3 0.9 0
21.6 0.9 0
21.9 0.9 0
22.2 0.9 0
22.5 0.9 0
22.8 0.9 0
23.1 0.9 0
23.4 0.9 0
23.7 0.9 0
24 0.9 0
24.3 0.9 0
24.6 0.9 0
24.9 0.9 0
25.2 0.9 0
25.5 0.9 0
25.8 0.9 0
26.1 0.9 0
26.4 0.9 0
26.7 0.9 0
27 0.9 0
27.3 0.9 0
27.6 0.9 0
27.9 0.9 0
28.2 0.9 0
28.5 0.9 0
28.8 0.9 0
29.1 0.9 0
29.4 0.9 0
29.7 0.9 0
30 0.9 0
30.3 0.9 0
0 1 0
0.3 1 0
0.6 1 0
0.9 1 0
1.2 1 0
1.5 1 0
1.8 1 0
2.1 1 0
2.4 1 0
2.7 1 0
3 1 0
3.3 1 0
3.6 1 0
3.9 1 0
4.2 1 0
4.5 1 0
4.8 1 0
5.1 1 0
5.4 1 0
5.7 1 0
6 1 0
6.3 1 0
6.6 1 0
6.9 1 0
7.2 1 0
7.5 1 0
7.8 1 0
8.1 1 0
8.4 1 0
8.7 1 0
9 1 0
9.3 1 0
9.6 1 0
9.9 1 0
10.2 1 0
10.5 1 0
10.8 1 0
11.1 1 0
11.4 1 0
11.7 1 0
12 1 0
12.3 1 0
12.6 1 0
12.9 1 0
13.2 1 0
13.5 1 0
13.8 1 0
14.1 1 0
14.4 1 0
14.7 1 0
15 1 0
15.3 1 0
15.6 1 0
15.9 1 0
16.2 1 0
16.5 1 0
16.8 1 0
17.1 1 0
17.4 1 0
17.7 1 0
18 1 0
18.3 1 0
18.6 1 0
18.9 1 0
19.2 1 0
19.5 1 0
19.8 1 0
20.1 1 0
20.4 1 0
20.7 1 0
21 1 0
21.3 1 0
21.6 1 0
21.9 1 0
22.2 1 0
22.5 1 0
22.8 1 0
23.1 1 0
23.4 1 0
23.7 1 0
24 1 0
24.3 1 0
24.6 1 0
24.9 1 0
25.2 1 0
25.5 1 0
25.8 1 0
26.1 1 0
26.4 1 0
26.7 1 0
27 1 0
27.3 1 0
27.6 1 0
27.9 1 0
28.2 1 0
28.5 1 0
28.8 1 0
29.1 1 0
29.4 1 0
29.7 1 0
30 1 0
30.3 1 0
0 1.1 0
0.3 1.1 0
0.6 1.1 0
0.9 1.1 0
1.2 1.1 0
1.5 1.1 0
1.8 1.1 0
2.1 1.1 0
2.4 1.1 0
2.7 1.1 0
3 1.1 0
3.3 1.1 0
3.6 1.1 0
3.9 1.1 0
4.2 1.1 0
4.5 1.1 0
4.8 1.1 0
5.1 1.1 0
5.4 1.1 0
5.7 1.1 0
6 1.1 0
6.3 1.1 0
6.6 1.1 0
6.9 1.1 0
7.2 1.1 0
7.5 1.1 0
7.8 1.1 0
8.1 1.1 0
8.4 1.1 0
8.7 1.1 0
9 1.1 0
9.3 1.1 0
9.6 1.1 0
9.9 1.1 0
10.2 1.1 0
10.5 1.1 0
10.8 1.1 0
11.1 1.1 0
11.4 1.1 0
11.7 1.1 0
12 1.1 0
12.3 1.1 0
12.6 1.1 0
12.9 1.1 0
13.2 1.1 0
13.5 1.1 0
13.8 1.1 0
14.1 1.1 0
14.4 1.1 0
14.7 1.1 0
15 1.1 0
15.3 1.1 0
15.6 1.1 0
15.9 1.1 0
16.2 1.1 0
16.5 1.1 0
16.8 1.1 0
17.1 1.1 0
17.4 1.1 0
17.7 1.1 0
18 1.1 0
18.3 1.1 0
18.6 1.1 0
18.9 1.1 0
19.2 1.1 0
19.5 1.1 0
19.8 1.1 0
20.1 1.1 0
20.4 1.1 0
20.7 1.1 0
21 1.1 0
21.3 1.1 0
21.6 1.1 0
21.9 1.1 0
22.2 1.1 0
22.5 1.1 0
22.8 1.1 0
23.1 1.1 0
23.4 1.1 0
23.7 1.1 0
24 1.1 0
24.3 1.1 0
24.6 1.1 0
24.9 1.1 0
25.2 1.1 0
25.5 1.1 0
25.8 1.1 0
26.1 1.1 0
26.4 1.1 0
26.7 1.1 0
27 1.1 0
27.3 1.1 0
27.6 1.1 0
27.9 1.1 0
28.2 1.1 0
28.5 1.1 0
28.8 1.1 0
29.1 1.1 0
29.4 1.1 0
29.7 1.1 0
30 1.1 0
30.3 1.1 0

POINT_DATA 1224

SCALARS pressure double
LOOKUP_TABLE pressure
1.44933
1.44933
1.38282
1.33574
1.29279
1.25313
1.21711
1.18471
1.15562
1.12942
1.10575
1.08427
1.06469
1.04664
1.02977
1.01375
0.998274
0.983129
0.96816
0.953274
0.938419
0.923574
0.908729
0.893883
0.879035
0.864187
0.849337
0.834488
0.819638
0.804788
0.789938
0.775088
0.760238
0.745388
0.730538
0.715688
0.700838
0.685989
0.671139
0.656289
0.641439
0.626589
0.611739
0.596889
0.582039
0.567189
0.552339
0.537489
0.522639
0.50779
0.49294
0.47809
0.46324
0.44839
0.43354
0.41869
0.40384
0.38899
0.37414
0.35929
0.344441
0.329591
0.314741
0.299891
0.285041
0.270191
0.255341
0.240491
0.225641
0.210791
0.195941
0.181092
0.166242
0.151392
0.136542
0.121692
0.106842
0.0919921
0.0771422
0.0622923
0.0474424
0.0325925
0.0177426
0.00289264
-0.0119573
-0.0268072
-0.0416571
-0.056507
-0.071357
-0.0862069
-0.101057
-0.115907
-0.130757
-0.145607
-0.160457
-0.175306
-0.190156
-0.205005
-0.219855
-0.2347
-0.249464
0.249464
1.44933
1.44933
1.38282
1.33574
1.29279
1.25313
1.21711
1.18471
1.15562
1.12942
1.10575
1.08427
1.06469
1.04664
1.02977
1.01375
0.998274
0.983129
0.96816
0.953274
0.938419
0.923574
0.908729
0.893883
0.879035
0.864187
0.849337
0.834488
0.819638
0.804788
0.789938
0.775088
0.760238
0.745388
0.730538
0.715688
0.700838
0.685989
0.671139
0.656289
0.641439
0.626589
0.611739
0.596889
0.582039
0.567189
0.552339
0.537489
0.522639
0.50779
0.49294
0.47809
0.46324
0.44839
0.43354
0.41869
0.40384
0.38899
0.37414
0.35929
0.344441
0.329591
0.314741
0.299891
0.285041
0.270191
0.255341
0.240491
0.225641
0.210791
0.195941
0.181092
0.166242
0.151392
0.136542
0.121692
0.106842
0.0919921
0.0771422
0.0622923
0.0474424
0.0325925
0.0177426
0.00289264
-0.0119573
-0.0268072
-0.0416571
-0.056507
-0.071357
-0.0862069
-0.101057
-0.115907
-0.130757
-0.145607
-0.160457
-0.175306
-0.190156
-0.205005
-0.219855
-0.2347
-0.249464
0.249464
1.42868
1.42868
1.38102
1.33605
1.2935
1.2539
1.21781
1.1853
1.15609
1.12978
1.106
1.08444
1.06478
1.04669
1.02979
1.01375
0.998274
0.983127
0.968158
0.953273
0.938419
0.923574
0.908729
0.893883
0.879035
0.864187
0.849337
0.834488
0.819638
0.804788
0.789938
0.775088
0.760238
0.745388
0.730538
0.715688
0.700838
0.685989
0.671139
0.656289
0.641439
0.626589
0.611739
0.596889
0.582039
0.567189
0.552339
0.537489
0.522639
0.50779
0.49294
0.47809
0.46324
0.44839
0.43354
0.41869
0.40384
0.38899
0.37414
0.35929
0.344441
0.329591
0.314741
0.299891
0.285041
0.270191
0.255341
0.240491
0.225641
0.210791
0.195941
0.181092
0.166242
0.151392
0.136542
0.121692
0.106842
0.0919921
0.0771422
0.0622923
0.0474424
0.0325925
0.0177426
0.00289264
-0.0119573
-0.0268072
-0.0416571
-0.056507
-0.071357
-0.0862069
-0.101057
-0.115907
-0.130757
-0.145607
-0.160457
-0.175306
-0.190156
-0.205004
-0.219853
-0.234697
-0.249463
0.249463
1.41429
1.41429
1.37851
1.33644
1.29463
1.25517
1.21899
1.1863
1.15689
1.1304
1.10648
1.08479
1.06503
1.04685
1.02989
1.01381
0.998304
0.983141
0.968164
0.953274
0.938419
0.923574
0.908729
0.893883
0.879035
0.864187
0.849337
0.834488
0.819638
0.804788
0.789938
0.775088
0.760238
0.745388
0.730538
0.715688
0.700838
0.685989
0.671139
0.656289
0.641439
0.626589
0.611739
0.596889
0.582039
0.567189
0.552339
0.537489
0.522639
0.50779
0.49294
0.47809
0.46324
0.44839
0.43354
0.41869
0.40384
0.38899
0.37414
0.35929
0.344441
0.329591
0.314741
0.299891
0.285041
0.270191
0.255341
0.240491
0.225641
0.210791
0.195941
0.181092
0.166242
0.151392
0.136542
0.121692
0.106842
0.0919921
0.0771422
0.0622923
0.0474424
0.0325925
0.0177426
0.00289264
-0.0119573
-0.0268072
-0.0416571
-0.056507
-0.071357
-0.0862069
-0.101057
-0.115907
-0.130757
-0.145607
-0.160456
-0.175306
-0.190155
-0.205001
-0.219844
-0.234662
-0.249451
0.249451
1.4056
1.4056
1.3765
1.3367
1.29556
1.25625
1.22002
1.1872
1.15765
1.13102
1.10697
1.08518
1.06533
1.04706
1.03004
1.0139
0.998357
0.983169
0.968177
0.953279
0.93842
0.923574
0.908729
0.893883
0.879035
0.864187
0.849337
0.834488
0.819638
0.804788
0.789938
0.775088
0.760238
0.745388
0.730538
0.715688
0.700838
0.685989
0.671139
0.656289
0.641439
0.626589
0.611739
0.596889
0.582039
0.567189
0.552339
0.537489
0.522639
0.50779
0.49294
0.47809
0.46324
0.44839
0.43354
0.41869
0.40384
0.38899
0.37414
0.35929
0.344441
0.329591
0.314741
0.299891
0.285041
0.270191
0.255341
0.240491
0.225641
0.210791
0.195941
0.181092
0.166242
0.151392
0.136542
0.121692
0.106842
0.0919921
0.0771422
0.0622923
0.0474424
0.0325925
0.0177426
0.00289264
-0.0119573
-0.0268072
-0.0416571
-0.056507
-0.071357
-0.0862069
-0.101057
-0.115907
-0.130757
-0.145607
-0.160456
-0.175306
-0.190154
-0.204999
-0.219832
-0.234614
-0.249435
0.249435
1.40152
1.40152
1.37542
1.33682
1.29605
1.25684
1.22059
1.1877
1.15807
1.13138
1.10727
1.08542
1.06551
1.0472
1.03013
1.01396
0.998394
0.98319
0.968187
0.953283
0.938422
0.923574
0.908729
0.893882
0.879035
0.864186
0.849337
0.834488
0.819638
0.804788
0.789938
0.775088
0.760238
0.745388
0.730538
0.715688
0.700838
0.685989
0.671139
0.656289
0.641439
0.626589
0.611739
0.596889
0.582039
0.567189
0.552339
0.537489
0.522639
0.50779
0.49294
0.47809
0.46324
0.44839
0.43354
0.41869
0.40384
0.38899
0.37414
0.35929
0.344441
0.329591
0.314741
0.299891
0.285041
0.270191
0.255341
0.240491
0.225641
0.210791
0.195941
0.181092
0.166242
0.151392
0.136542
0.121692
0.106842
0.0919921
0.0771422
0.0622923
0.0474424
0.0325925
0.0177426
0.00289264
-0.0119573
-0.0268072
-0.0416571
-0.056507
-0.071357
-0.0862069
-0.101057
-0.115907
-0.130757
-0.145607
-0.160456
-0.175306
-0.190154
-0.204997
-0.219825
-0.234582
-0.249424
0.249424
1.40152
1.40152
1.37542
1.33682
1.29605
1.25684
1.22059
1.1877
1.15807
1.13138
1.10727
1.08542
1.06551
1.0472
1.03013
1.01396
0.998394
0.98319
0.968187
0.953283
0.938422
0.923574
0.908729
0.893882
0.879035
0.864186
0.849337
0.834488
0.819638
0.804788
0.789938
0.775088
0.760238
0.745388
0.730538
0.715688
0.700838
0.685989
0.671139
0.656289
0.641439
0.626589
0.611739
0.596889
0.582039
0.567189
0.552339
0.537489
0.522639
0.50779
0.49294
0.47809
0.46324
0.44839
0.43354
0.41869
0.40384
0.38899
0.37414
0.35929
0.344441
0.329591
0.314741
0.299891
0.285041
0.270191
0.255341
0.240491
0.225641
0.210791
0.195941
0.181092
0.166242
0.151392
0.136542
0.121692
0.106842
0.0919921
0.0771422
0.0622923
0.0474424
0.0325925
0.0177426
0.00289264
-0.0119573
-0.0268072
-0.0416571
-0.056507
-0.071357
-0.0862069
-0.101057
-0.115907
-0.130757
-0.145607
-0.160456
-0.175306
-0.190154
-0.204997
-0.219825
-0.234582
-0.249424
0.249424
1.4056
1.4056
1.3765
1.3367
1.29556
1.25625
1.22002
1.1872
1.15765
1.13102
1.10697
1.08518
1.06533
1.04706
1.03004
1.0139
0.998357
0.983169
0.968177
0.953279
0.93842
0.923574
0.908729
0.893883
0.879035
0.864187
0.849337
0.834488
0.819638
0.804788
0.789938
0.775088
0.760238
0.745388
0.730538
0.715688
0.700838
0.685989
0.671139
0.656289
0.641439
0.626589
0.611739
0.596889
0.582039
0.567189
0.552339
0.537489
0.522639
0.50779
0.49294
0.47809
0.46324
0.44839
0.43354
0.41869
0.40384
0.38899
0.37414
0.35929
0.344441
0.329591
0.314741
0.299891
0.285041
0.270191
0.255341
0.240491
0.225641
0.210791
0.195941
0.181092
0.166242
0.151392
0.136542
0.121692
0.106842
0.0919921
0.0771422
0.0622923
0.0474424
0.0325925
0.0177426
0.00289264
-0.0119573
-0.0268072
-0.0416571
-0.056507
-0.071357
-0.0862069
-0.101057
-0.115907
-0.130757
-0.145607
-0.160456
-0.175306
-0.190154
-0.204999
-0.219832
-0.234614
-0.249435
0.249435
1.41429
1.41429
1.37851
1.33644
1.29463
1.25517
1.21899
1.1863
1.15689
1.1304
1.10648
1.08479
1.06503
1.04685
1.02989
1.01381
0.998304
0.983141
0.968164
0.953274
0.938419
0.923574
0.908729
0.893883
0.879035
0.864187
0.849337
0.834488
0.819638
0.804788
0.789938
0.775088
0.760238
0.745388
0.730538
0.715688
0.700838
0.685989
0.671139
0.656289
0.641439
0.626589
0.611739
0.596889
0.582039
0.567189
0.552339
0.537489
0.522639
0.50779
0.49294
0.47809
0.46324
0.44839
0.43354
0.41869
0.40384
0.38899
0.37414
0.35929
0.344441
0.329591
0.314741
0.299891
0.285041
0.270191
0.255341
0.240491
0.225641
0.210791
0.195941
0.181092
0.166242
0.151392
0.136542
0.121692
0.106842
0.0919921
0.0771422
0.0622923
0.0474424
0.0325925
0.0177426
0.00289264
-0.0119573
-0.0268072
-0.0416571
-0.056507
-0.071357
-0.0862069
-0.101057
-0.115907
-0.130757
-0.145607
-0.160456
-0.175306
-0.190155
-0.205001
-0.219844
-0.234662
-0.249451
0.249451
1.42868
1.42868
1.38102
1.33605
1.2935
1.2539
1.21781
1.1853
1.15609
1.12978
1.106
1.08444
1.06478
1.04669
1.02979
1.01375
0.998274
0.983127
0.968158
0.953273
0.938419
0.923574
0.908729
0.893883
0.879035
0.864187
0.849337
0.834488
0.819638
0.804788
0.789938
0.775088
0.760238
0.745388
0.730538
0.715688
0.700838
0.685989
0.671139
0.656289
0.641439
0.626589
0.611739
0.596889
0.582039
0.567189
0.552339
0.537489
0.522639
0.50779
0.49294
0.47809
0.46324
0.44839
0.43354
0.41869
0.40384
0.38899
0.37414
0.35929
0.344441
0.329591
0.314741
0.299891
0.285041
0.270191
0.255341
0.240491
0.225641
0.210791
0.195941
0.181092
0.166242
0.151392
0.136542
0.121692
0.106842
0.0919921
0.0771422
0.0622923
0.0474424
0.0325925
0.0177426
0.00289264
-0.0119573
-0.0268072
-0.0416571
-0.056507
-0.071357
-0.0862069
-0.101057
-0.115907
-0.130757
-0.145607
-0.160457
-0.175306
-0.190156
-0.205004
-0.219853
-0.234697
-0.249463
0.249463
1.44933
1.44933
1.38282
1.33574
1.29279
1.25313
1.21711
1.18471
1.15562
1.12942
1.10575
1.08427
1.06469
1.04664
1.02977
1.01375
0.998274
0.983129
0.96816
0.953274
0.938419
0.923574
0.908729
0.893883
0.879035
0.864187
0.849337
0.834488
0.819638
0.804788
0.789938
0.775088
0.760238
0.745388
0.730538
0.715688
0.700838
0.685989
0.671139
0.656289
0.641439
0.626589
0.611739
0.596889
0.582039
0.567189
0.552339
0.537489
0.522639
0.50779
0.49294
0.47809
0.46324
0.44839
0.43354
0.41869
0.40384
0.38899
0.37414
0.35929
0.344441
0.329591
0.314741
0.299891
0.285041
0.270191
0.255341
0.240491
0.225641
0.210791
0.195941
0.181092
0.166242
0.151392
0.136542
0.121692
0.106842
0.0919921
0.0771422
0.0622923
0.0474424
0.0325925
0.0177426
0.00289264
-0.0119573
-0.0268072
-0.0416571
-0.056507
-0.071357
-0.0862069
-0.101057
-0.115907
-0.130757
-0.145607
-0.160457
-0.175306
-0.190156
-0.205005
-0.219855
-0.2347
-0.249464
0.249464
1.44933
1.44933
1.38282
1.33574
1.29279
1.25313
1.21711
1.18471
1.15562
1.12942
1.10575
1.08427
1.06469
1.04664
1.02977
1.01375
0.998274
0.983129
0.96816
0.953274
0.938419
0.923574
0.908729
0.893883
0.879035
0.864187
0.849337
0.834488
0.819638
0.804788
0.789938
0.775088
0.760238
0.745388
0.730538
0.715688
0.700838
0.685989
0.671139
0.656289
0.641439
0.626589
0.611739
0.596889
0.582039
0.567189
0.552339
0.537489
0.522639
0.50779
0.49294
0.47809
0.46324
0.44839
0.43354
0.41869
0.40384
0.38899
0.37414
0.35929
0.344441
0.329591
0.314741
0.299891
0.285041
0.270191
0.255341
0.240491
0.225641
0.210791
0.195941
0.181092
0.166242
0.151392
0.136542
0.121692
0.106842
0.0919921
0.0771422
0.0622923
0.0474424
0.0325925
0.0177426
0.00289264
-0.0119573
-0.0268072
-0.0416571
-0.056507
-0.071357
-0.0862069
-0.101057
-0.115907
-0.130757
-0.145607
-0.160457
-0.175306
-0.190156
-0.205005
-0.219855
-0.2347
-0.249464
0.249464
SCALARS phi double
LOOKUP_TABLE phi
1.00003
0.999974
1.00017
0.999746
0.998843
1.00305
1.00761
0.984433
0.907902
0.782931
0.637004
0.496271
0.374254
0.274278
0.195101
0.134248
0.0890522
0.0568003
0.0347814
0.020433
0.0115154
0.00622803
0.00323466
0.00161463
0.000775319
0.000358479
0.000159751
6.86803e-05
2.85128e-05
1.14409e-05
4.44089e-06
1.66892e-06
6.07725e-07
2.14593e-07
7.35321e-08
2.44679e-08
7.91158e-09
2.48744e-09
7.60903e-10
2.26592e-10
6.57262e-11
1.85799e-11
5.12127e-12
1.37707e-12
3.61392e-13
9.26066e-14
2.31811e-14
5.67065e-15
1.35616e-15
3.17205e-16
7.25898e-17
1.62583e-17
3.56521e-18
7.65688e-19
1.61107e-19
3.32204e-20
6.71516e-21
1.33104e-21
2.58781e-22
4.93624e-23
9.24055e-24
1.69803e-24
3.0637e-25
5.4288e-26
9.44971e-27
1.61617e-27
2.71645e-28
4.48804e-29
7.2902e-30
1.16449e-30
1.82949e-31
2.8275e-32
4.29965e-33
6.43425e-34
9.47703e-35
1.37413e-35
1.96172e-36
2.75782e-37
3.81841e-38
5.20779e-39
6.99746e-40
9.26415e-41
1.20867e-41
1.55421e-42
1.97e-43
2.46168e-44
3.03293e-45
3.68477e-46
4.41496e-47
5.21752e-48
6.08234e-49
6.99511e-50
7.93748e-51
8.88752e-52
9.82051e-53
1.071e-53
1.15289e-54
1.22526e-55
1.28557e-56
1.33332e-57
1.32968e-58
1.32968e-58
1.00003
0.999974
1.00017
0.999746
0.998843
1.00305
1.00761
0.984433
0.907902
0.782931
0.637004
0.496271
0.374254
0.274278
0.195101
0.134248
0.0890522
0.0568003
0.0347814
0.020433
0.0115154
0.00622803
0.00323466
0.00161463
0.000775319
0.000358479
0.000159751
6.86803e-05
2.85128e-05
1.14409e-05
4.44089e-06
1.66892e-06
6.07725e-07
2.14593e-07
7.35321e-08
2.44679e-08
7.91158e-09
2.48744e-09
7.60903e-10
2.26592e-10
6.57262e-11
1.85799e-11
5.12127e-12
1.37707e-12
3.61392e-13
9.26066e-14
2.31811e-14
5.67065e-15
1.35616e-15
3.17205e-16
7.25898e-17
1.62583e-17
3.56521e-18
7.65688e-19
1.61107e-19
3.32204e-20
6.71516e-21
1.33104e-21
2.58781e-22
4.93624e-23
9.24055e-24
1.69803e-24
3.0637e-25
5.4288e-26
9.44971e-27
1.61617e-27
2.71645e-28
4.48804e-29
7.2902e-30
1.16449e-30
1.82949e-31
2.8275e-32
4.29965e-33
6.43425e-34
9.47703e-35
1.37413e-35
1.96172e-36
2.75782e-37
3.81841e-38
5.20779e-39
6.99746e-40
9.26415e-41
1.20867e-41
1.55421e-42
1.97e-43
2.46168e-44
3.03293e-45
3.68477e-46
4.41496e-47
5.21752e-48
6.08234e-49
6.99511e-50
7.93748e-51
8.88752e-52
9.82051e-53
1.071e-53
1.15289e-54
1.22526e-55
1.28557e-56
1.33332e-57
1.32968e-58
1.32968e-58
1.00002
0.999983
1.00007
0.99996
0.999249
0.999549
1.00171
1.00032
0.985468
0.949814
0.892038
0.814847
0.722204
0.618647
0.509824
0.402486
0.303428
0.218016
0.149169
0.0971919
0.0603391
0.0357279
0.0202015
0.0109222
0.00565436
0.00280677
0.00133772
0.000612943
0.000270341
0.000114908
4.71222e-05
1.86634e-05
7.14627e-06
2.6479e-06
9.50264e-07
3.30576e-07
1.11565e-07
3.65544e-08
1.16364e-08
3.60128e-09
1.08426e-09
3.17773e-10
9.07101e-11
2.52344e-11
6.84476e-12
1.81122e-12
4.67779e-13
1.17969e-13
2.90635e-14
6.99782e-15
1.64737e-15
3.79315e-16
8.54586e-17
1.88458e-17
4.06938e-18
8.60682e-19
1.7836e-19
3.62266e-20
7.2138e-21
1.40875e-21
2.69871e-22
5.07286e-23
9.35909e-24
1.69516e-24
3.01502e-25
5.26713e-26
9.03988e-27
1.52459e-27
2.5272e-28
4.11824e-29
6.59869e-30
1.03983e-30
1.61181e-31
2.45802e-32
3.68859e-33
5.44769e-34
7.91983e-35
1.13356e-35
1.59759e-36
2.21742e-37
3.03151e-38
4.08283e-39
5.41775e-40
7.08424e-41
9.12941e-42
1.15965e-42
1.45211e-43
1.79274e-44
2.1824e-45
2.62001e-46
3.10223e-47
3.62324e-48
4.17465e-49
4.74562e-50
5.32304e-51
5.89208e-52
6.43667e-53
6.94084e-54
7.3879e-55
7.77021e-56
7.845e-57
7.845e-57
1.00002
0.999984
0.999563
0.998681
0.997094
0.995045
0.993127
0.99107
0.987148
0.978711
0.962671
0.935321
0.892278
0.829578
0.745783
0.643737
0.530648
0.41628
0.310207
0.219468
0.147469
0.0942002
0.0572756
0.0331952
0.0183664
0.0097157
0.00492124
0.00239031
0.00111485
0.000499956
0.000215848
8.98212e-05
3.60671e-05
1.39896e-05
5.24681e-06
1.90454e-06
6.69697e-07
2.2831e-07
7.55223e-08
2.42583e-08
7.57161e-09
2.29803e-09
6.78646e-10
1.95127e-10
5.46552e-11
1.4922e-11
3.97316e-12
1.03223e-12
2.61795e-13
6.48468e-14
1.56947e-14
3.71311e-15
8.59053e-16
1.94432e-16
4.30673e-17
9.33926e-18
1.98342e-18
4.12663e-19
8.41393e-20
1.68173e-20
3.29608e-21
6.33647e-22
1.19516e-22
2.21233e-23
4.02006e-24
7.17267e-25
1.2569e-25
2.16368e-26
3.65979e-27
6.08395e-28
9.94199e-29
1.59739e-29
2.52395e-30
3.92257e-31
5.99737e-32
9.02259e-33
1.33585e-33
1.94678e-34
2.79305e-35
3.94562e-36
5.48903e-37
7.52118e-38
1.0152e-38
1.35007e-39
1.76913e-40
2.28467e-41
2.90808e-42
3.64892e-43
4.51391e-44
5.50587e-45
6.62273e-46
7.85663e-47
9.19339e-48
1.06121e-48
1.20855e-49
1.35804e-50
1.50586e-51
1.64793e-52
1.77992e-53
1.89829e-54
1.94123e-55
1.94123e-55
1.00143
0.998566
0.991253
0.98192
0.971591
0.960745
0.94979
0.939167
0.929175
0.919595
0.909078
0.894448
0.870514
0.831088
0.77123
0.689747
0.590494
0.481647
0.373296
0.274597
0.191713
0.127127
0.0801603
0.0481321
0.027563
0.0150769
0.0078898
0.00395583
0.00190307
0.00087966
0.000391187
0.00016757
6.92246e-05
2.76089e-05
1.06418e-05
3.96804e-06
1.43264e-06
5.01276e-07
1.70117e-07
5.60389e-08
1.79317e-08
5.57757e-09
1.68752e-09
4.96944e-10
1.42521e-10
3.98298e-11
1.08526e-11
2.88456e-12
7.48271e-13
1.8953e-13
4.68955e-14
1.13398e-14
2.68093e-15
6.19922e-16
1.40258e-16
3.10612e-17
6.73534e-18
1.43053e-18
2.97698e-19
6.07194e-20
1.21419e-20
2.38108e-21
4.58056e-22
8.64636e-23
1.60189e-23
2.9136e-24
5.20387e-25
9.12908e-26
1.57337e-26
2.66462e-27
4.43538e-28
7.2579e-29
1.16778e-29
1.84786e-30
2.87616e-31
4.4043e-32
6.63647e-33
9.84167e-34
1.43663e-34
2.06461e-35
2.92158e-36
4.07147e-37
5.5886e-38
7.55681e-39
1.00674e-39
1.32162e-40
1.70985e-41
2.18037e-42
2.74084e-43
3.3968e-44
4.15091e-45
5.00214e-46
5.94508e-47
6.96944e-48
8.05984e-49
9.19579e-50
1.03522e-50
1.15001e-51
1.26077e-52
1.36438e-53
1.41457e-54
1.41457e-54
1.0456
0.9544
0.887719
0.838694
0.801684
0.772834
0.749668
0.730772
0.715475
0.703331
0.69335
0.683154
0.66857
0.644205
0.605122
0.548958
0.477334
0.395715
0.311774
0.233113
0.165374
0.111382
0.0712998
0.0434411
0.0252301
0.0139905
0.00741867
0.0037676
0.00183522
0.000858629
0.000386363
0.000167419
6.99431e-05
2.82035e-05
1.09885e-05
4.14072e-06
1.51052e-06
5.33915e-07
1.8301e-07
6.08805e-08
1.967e-08
6.17675e-09
1.88641e-09
5.60676e-10
1.62273e-10
4.57607e-11
1.25802e-11
3.3733e-12
8.82704e-13
2.25514e-13
5.62769e-14
1.37237e-14
3.27175e-15
7.62834e-16
1.74015e-16
3.8852e-17
8.493e-18
1.81835e-18
3.81424e-19
7.84126e-20
1.58032e-20
3.1233e-21
6.05499e-22
1.15176e-22
2.15019e-23
3.94062e-24