# vtk DataFile Version 3.0
FlowField
ASCII
DATASET STRUCTURED_GRID
DIMENSIONS 22 17 12 
POINTS 4488 double
0 0 0
5 0 0
10 0 0
15 0 0
20 0 0
25 0 0
30 0 0
35 0 0
40 0 0
45 0 0
50 0 0
55 0 0
60 0 0
65 0 0
70 0 0
75 0 0
80 0 0
85 0 0
90 0 0
95 0 0
100 0 0
105 0 0
0 1 0
5 1 0
10 1 0
15 1 0
20 1 0
25 1 0
30 1 0
35 1 0
40 1 0
45 1 0
50 1 0
55 1 0
60 1 0
65 1 0
70 1 0
75 1 0
80 1 0
85 1 0
90 1 0
95 1 0
100 1 0
105 1 0
0 2 0
5 2 0
10 2 0
15 2 0
20 2 0
25 2 0
30 2 0
35 2 0
40 2 0
45 2 0
50 2 0
55 2 0
60 2 0
65 2 0
70 2 0
75 2 0
80 2 0
85 2 0
90 2 0
95 2 0
100 2 0
105 2 0
0 3 0
5 3 0
10 3 0
15 3 0
20 3 0
25 3 0
30 3 0
35 3 0
40 3 0
45 3 0
50 3 0
55 3 0
60 3 0
65 3 0
70 3 0
75 3 0
80 3 0
85 3 0
90 3 0
95 3 0
100 3 0
105 3 0
0 4 0
5 4 0
10 4 0
15 4 0
20 4 0
25 4 0
30 4 0
35 4 0
40 4 0
45 4 0
50 4 0
55 4 0
60 4 0
65 4 0
70 4 0
75 4 0
80 4 0
85 4 0
90 4 0
95 4 0
100 4 0
105 4 0
0 5 0
5 5 0
10 5 0
15 5 0
20 5 0
25 5 0
30 5 0
35 5 0
40 5 0
45 5 0
50 5 0
55 5 0
60 5 0
65 5 0
70 5 0
75 5 0
80 5 0
85 5 0
90 5 0
95 5 0
100 5 0
105 5 0
0 6 0
5 6 0
10 6 0
15 6 0
20 6 0
25 6 0
30 6 0
35 6 0
40 6 0
45 6 0
50 6 0
55 6 0
60 6 0
65 6 0
70 6 0
75 6 0
80 6 0
85 6 0
90 6 0
95 6 0
100 6 0
105 6 0
0 7 0
5 7 0
10 7 0
15 7 0
20 7 0
25 7 0
30 7 0
35 7 0
40 7 0
45 7 0
50 7 0
55 7 0
60 7 0
65 7 0
70 7 0
75 7 0
80 7 0
85 7 0
90 7 0
95 7 0
100 7 0
105 7 0
0 8 0
5 8 0
10 8 0
15 8 0
20 8 0
25 8 0
30 8 0
35 8 0
40 8 0
45 8 0
50 8 0
55 8 0
60 8 0
65 8 0
70 8 0
75 8 0
80 8 0
85 8 0
90 8 0
95 8 0
100 8 0
105 8 0
0 9 0
5 9 0
10 9 0
15 9 0
20 9 0
25 9 0
30 9 0
35 9 0
40 9 0
45 9 0
50 9 0
55 9 0
60 9 0
65 9 0
70 9 0
75 9 0
80 9 0
85 9 0
90 9 0
95 9 0
100 9 0
105 9 0
0 10 0
5 10 0
10 10 0
15 10 0
20 10 0
25 10 0
30 10 0
35 10 0
40 10 0
45 10 0
50 10 0
55 10 0
60 10 0
65 10 0
70 10 0
75 10 0
80 10 0
85 10 0
90 10 0
95 10 0
100 10 0
105 10 0
0 11 0
5 11 0
10 11 0
15 11 0
20 11 0
25 11 0
30 11 0
35 11 0
40 11 0
45 11 0
50 11 0
55 11 0
60 11 0
65 11 0
70 11 0
75 11 0
80 11 0
85 11 0
90 11 0
95 11 0
100 11 0
105 11 0
0 12 0
5 12 0
10 12 0
15 12 0
20 12 0
25 12 0
30 12 0
35 12 0
40 12 0
45 12 0
50 12 0
55 12 0
60 12 0
65 12 0
70 12 0
75 12 0
80 12 0
85 12 0
90 12 0
95 12 0
100 12 0
105 12 0
0 13 0
5 13 0
10 13 0
15 13 0
20 13 0
25 13 0
30 13 0
35 13 0
40 13 0
45 13 0
50 13 0
55 13 0
60 13 0
65 13 0
70 13 0
75 13 0
80 13 0
85 13 0
90 13 0
95 13 0
100 13 0
105 13 0
0 14 0
5 14 0
10 14 0
15 14 0
20 14 0
25 14 0
30 14 0
35 14 0
40 14 0
45 14 0
50 14 0
55 14 0
60 14 0
65 14 0
70 14 0
75 14 0
80 14 0
85 14 0
90 14 0
95 14 0
100 14 0
105 14 0
0 15 0
5 15 0
10 15 0
15 15 0
20 15 0
25 15 0
30 15 0
35 15 0
40 15 0
45 15 0
50 15 0
55 15 0
60 15 0
65 15 0
70 15 0
75 15 0
80 15 0
85 15 0
90 15 0
95 15 0
100 15 0
105 15 0
0 16 0
5 16 0
10 16 0
15 16 0
20 16 0
25 16 0
30 16 0
35 16 0
40 16 0
45 16 0
50 16 0
55 16 0
60 16 0
65 16 0
70 16 0
75 16 0
80 16 0
85 16 0
90 16 0
95 16 0
100 16 0
105 16 0
0 0 1
5 0 1
10 0 1
15 0 1
20 0 1
25 0 1
30 0 1
35 0 1
40 0 1
45 0 1
50 0 1
55 0 1
60 0 1
65 0 1
70 0 1
75 0 1
80 0 1
85 0 1
90 0 1
95 0 1
100 0 1
105 0 1
0 1 1
5 1 1
10 1 1
15 1 1
20 1 1
25 1 1
30 1 1
35 1 1
40 1 1
45 1 1
50 1 1
55 1 1
60 1 1
65 1 1
70 1 1
75 1 1
80 1 1
85 1 1
90 1 1
95 1 1
100 1 1
105 1 1
0 2 1
5 2 1
10 2 1
15 2 1
20 2 1
25 2 1
30 2 1
35 2 1
40 2 1
45 2 1
50 2 1
55 2 1
60 2 1
65 2 1
70 2 1
75 2 1
80 2 1
85 2 1
90 2 1
95 2 1
100 2 1
105 2 1
0 3 1
5 3 1
10 3 1
15 3 1
20 3 1
25 3 1
30 3 1
35 3 1
40 3 1
45 3 1
50 3 1
55 3 1
60 3 1
65 3 1
70 3 1
75 3 1
80 3 1
85 3 1
90 3 1
95 3 1
100 3 1
105 3 1
0 4 1
5 4 1
10 4 1
15 4 1
20 4 1
25 4 1
30 4 1
35 4 1
40 4 1
45 4 1
50 4 1
55 4 1
60 4 1
65 4 1
70 4 1
75 4 1
80 4 1
85 4 1
90 4 1
95 4 1
100 4 1
105 4 1
0 5 1
5 5 1
10 5 1
15 5 1
20 5 1
25 5 1
30 5 1
35 5 1
40 5 1
45 5 1
50 5 1
55 5 1
60 5 1
65 5 1
70 5 1
75 5 1
80 5 1
85 5 1
90 5 1
95 5 1
100 5 1
105 5 1
0 6 1
5 6 1
10 6 1
15 6 1
20 6 1
25 6 1
30 6 1
35 6 1
40 6 1
45 6 1
50 6 1
55 6 1
60 6 1
65 6 1
70 6 1
75 6 1
80 6 1
85 6 1
90 6 1
95 6 1
100 6 1
105 6 1
0 7 1
5 7 1
10 7 1
15 7 1
20 7 1
25 7 1
30 7 1
35 7 1
40 7 1
45 7 1
50 7 1
55 7 1
60 7 1
65 7 1
70 7 1
75 7 1
80 7 1
85 7 1
90 7 1
95 7 1
100 7 1
105 7 1
0 8 1
5 8 1
10 8 1
15 8 1
20 8 1
25 8 1
30 8 1
35 8 1
40 8 1
45 8 1
50 8 1
55 8 1
60 8 1
65 8 1
70 8 1
75 8 1
80 8 1
85 8 1
90 8 1
95 8 1
100 8 1
105 8 1
0 9 1
5 9 1
10 9 1
15 9 1
20 9 1
25 9 1
30 9 1
35 9 1
40 9 1
45 9 1
50 9 1
55 9 1
60 9 1
65 9 1
70 9 1
75 9 1
80 9 1
85 9 1
90 9 1
95 9 1
100 9 1
105 9 1
0 10 1
5 10 1
10 10 1
15 10 1
20 10 1
25 10 1
30 10 1
35 10 1
40 10 1
45 10 1
50 10 1
55 10 1
60 10 1
65 10 1
70 10 1
75 10 1
80 10 1
85 10 1
90 10 1
95 10 1
100 10 1
105 10 1
0 11 1
5 11 1
10 11 1
15 11 1
20 11 1
25 11 1
30 11 1
35 11 1
40 11 1
45 11 1
50 11 1
55 11 1
60 11 1
65 11 1
70 11 1
75 11 1
80 11 1
85 11 1
90 11 1
95 11 1
100 11 1
105 11 1
0 12 1
5 12 1
10 12 1
15 12 1
20 12 1
25 12 1
30 12 1
35 12 1
40 12 1
45 12 1
50 12 1
55 12 1
60 12 1
65 12 1
70 12 1
75 12 1
80 12 1
85 12 1
90 12 1
95 12 1
100 12 1
105 12 1
0 13 1
5 13 1
10 13 1
15 13 1
20 13 1
25 13 1
30 13 1
35 13 1
40 13 1
45 13 1
50 13 1
55 13 1
60 13 1
65 13 1
70 13 1
75 13 1
80 13 1
85 13 1
90 13 1
95 13 1
100 13 1
105 13 1
0 14 1
5 14 1
10 14 1
15 14 1
20 14 1
25 14 1
30 14 1
35 14 1
40 14 1
45 14 1
50 14 1
55 14 1
60 14 1
65 14 1
70 14 1
75 14 1
80 14 1
85 14 1
90 14 1
95 14 1
100 14 1
105 14 1
0 15 1
5 15 1
10 15 1
15 15 1
20 15 1
25 15 1
30 15 1
35 15 1
40 15 1
45 15 1
50 15 1
55 15 1
60 15 1
65 15 1
70 15 1
75 15 1
80 15 1
85 15 1
90 15 1
95 15 1
100 15 1
105 15 1
0 16 1
5 16 1
10 16 1
15 16 1
20 16 1
25 16 1
30 16 1
35 16 1
40 16 1
45 16 1
50 16 1
55 16 1
60 16 1
65 16 1
70 16 1
75 16 1
80 16 1
85 16 1
90 16 1
95 16 1
100 16 1
105 16 1
0 0 2
5 0 2
10 0 2
15 0 2
20 0 2
25 0 2
30 0 2
35 0 2
40 0 2
45 0 2
50 0 2
55 0 2
60 0 2
65 0 2
70 0 2
75 0 2
80 0 2
85 0 2
90 0 2
95 0 2
100 0 2
105 0 2
0 1 2
5 1 2
10 1 2
15 1 2
20 1 2
25 1 2
30 1 2
35 1 2
40 1 2
45 1 2
50 1 2
55 1 2
60 1 2
65 1 2
70 1 2
75 1 2
80 1 2
85 1 2
90 1 2
95 1 2
100 1 2
105 1 2
0 2 2
5 2 2
10 2 2
15 2 2
20 2 2
25 2 2
30 2 2
35 2 2
40 2 2
45 2 2
50 2 2
55 2 2
60 2 2
65 2 2
70 2 2
75 2 2
80 2 2
85 2 2
90 2 2
95 2 2
100 2 2
105 2 2
0 3 2
5 3 2
10 3 2
15 3 2
20 3 2
25 3 2
30 3 2
35 3 2
40 3 2
45 3 2
50 3 2
55 3 2
60 3 2
65 3 2
70 3 2
75 3 2
80 3 2
85 3 2
90 3 2
95 3 2
100 3 2
105 3 2
0 4 2
5 4 2
10 4 2
15 4 2
20 4 2
25 4 2
30 4 2
35 4 2
40 4 2
45 4 2
50 4 2
55 4 2
60 4 2
65 4 2
70 4 2
75 4 2
80 4 2
85 4 2
90 4 2
95 4 2
100 4 2
105 4 2
0 5 2
5 5 2
10 5 2
15 5 2
20 5 2
25 5 2
30 5 2
35 5 2
40 5 2
45 5 2
50 5 2
55 5 2
60 5 2
65 5 2
70 5 2
75 5 2
80 5 2
85 5 2
90 5 2
95 5 2
100 5 2
105 5 2
0 6 2
5 6 2
10 6 2
15 6 2
20 6 2
25 6 2
30 6 2
35 6 2
40 6 2
45 6 2
50 6 2
55 6 2
60 6 2
65 6 2
70 6 2
75 6 2
80 6 2
85 6 2
90 6 2
95 6 2
100 6 2
105 6 2
0 7 2
5 7 2
10 7 2
15 7 2
20 7 2
25 7 2
30 7 2
35 7 2
40 7 2
45 7 2
50 7 2
55 7 2
60 7 2
65 7 2
70 7 2
75 7 2
80 7 2
85 7 2
90 7 2
95 7 2
100 7 2
105 7 2
0 8 2
5 8 2
10 8 2
15 8 2
20 8 2
25 8 2
30 8 2
35 8 2
40 8 2
45 8 2
50 8 2
55 8 2
60 8 2
65 8 2
70 8 2
75 8 2
80 8 2
85 8 2
90 8 2
95 8 2
100 8 2
105 8 2
0 9 2
5 9 2
10 9 2
15 9 2
20 9 2
25 9 2
30 9 2
35 9 2
40 9 2
45 9 2
50 9 2
55 9 2
60 9 2
65 9 2
70 9 2
75 9 2
80 9 2
85 9 2
90 9 2
95 9 2
100 9 2
105 9 2
0 10 2
5 10 2
10 10 2
15 10 2
20 10 2
25 10 2
30 10 2
35 10 2
40 10 2
45 10 2
50 10 2
55 10 2
60 10 2
65 10 2
70 10 2
75 10 2
80 10 2
85 10 2
90 10 2
95 10 2
100 10 2
105 10 2
0 11 2
5 11 2
10 11 2
15 11 2
20 11 2
25 11 2
30 11 2
35 11 2
40 11 2
45 11 2
50 11 2
55 11 2
60 11 2
65 11 2
70 11 2
75 11 2
80 11 2
85 11 2
90 11 2
95 11 2
100 11 2
105 11 2
0 12 2
5 12 2
10 12 2
15 12 2
20 12 2
25 12 2
30 12 2
35 12 2
40 12 2
45 12 2
50 12 2
55 12 2
60 12 2
65 12 2
70 12 2
75 12 2
80 12 2
85 12 2
90 12 2
95 12 2
100 12 2
105 12 2
0 13 2
5 13 2
10 13 2
15 13 2
20 13 2
25 13 2
30 13 2
35 13 2
40 13 2
45 13 2
50 13 2
55 13 2
60 13 2
65 13 2
70 13 2
75 13 2
80 13 2
85 13 2
90 13 2
95 13 2
100 13 2
105 13 2
0 14 2
5 14 2
10 14 2
15 14 2
20 14 2
25 14 2
30 14 2
35 14 2
40 14 2
45 14 2
50 14 2
55 14 2
60 14 2
65 14 2
70 14 2
75 14 2
80 14 2
85 14 2
90 14 2
95 14 2
100 14 2
105 14 2
0 15 2
5 15 2
10 15 2
15 15 2
20 15 2
25 15 2
30 15 2
35 15 2
40 15 2
45 15 2
50 15 2
55 15 2
60 15 2
65 15 2
70 15 2
75 15 2
80 15 2
85 15 2
90 15 2
95 15 2
100 15 2
105 15 2
0 16 2
5 16 2
10 16 2
15 16 2
20 16 2
25 16 2
30 16 2
35 16 2
40 16 2
45 16 2
50 16 2
55 16 2
60 16 2
65 16 2
70 16 2
75 16 2
80 16 2
85 16 2
90 16 2
95 16 2
100 16 2
105 16 2
0 0 3
5 0 3
10 0 3
15 0 3
20 0 3
25 0 3
30 0 3
35 0 3
40 0 3
45 0 3
50 0 3
55 0 3
60 0 3
65 0 3
70 0 3
75 0 3
80 0 3
85 0 3
90 0 3
95 0 3
100 0 3
105 0 3
0 1 3
5 1 3
10 1 3
15 1 3
20 1 3
25 1 3
30 1 3
35 1 3
40 1 3
45 1 3
50 1 3
55 1 3
60 1 3
65 1 3
70 1 3
75 1 3
80 1 3
85 1 3
90 1 3
95 1 3
100 1 3
105 1 3
0 2 3
5 2 3
10 2 3
15 2 3
20 2 3
25 2 3
30 2 3
35 2 3
40 2 3
45 2 3
50 2 3
55 2 3
60 2 3
65 2 3
70 2 3
75 2 3
80 2 3
85 2 3
90 2 3
95 2 3
100 2 3
105 2 3
0 3 3
5 3 3
10 3 3
15 3 3
20 3 3
25 3 3
30 3 3
35 3 3
40 3 3
45 3 3
50 3 3
55 3 3
60 3 3
65 3 3
70 3 3
75 3 3
80 3 3
85 3 3
90 3 3
95 3 3
100 3 3
105 3 3
0 4 3
5 4 3
10 4 3
15 4 3
20 4 3
25 4 3
30 4 3
35 4 3
40 4 3
45 4 3
50 4 3
55 4 3
60 4 3
65 4 3
70 4 3
75 4 3
80 4 3
85 4 3
90 4 3
95 4 3
100 4 3
105 4 3
0 5 3
5 5 3
10 5 3
15 5 3
20 5 3
25 5 3
30 5 3
35 5 3
40 5 3
45 5 3
50 5 3
55 5 3
60 5 3
65 5 3
70 5 3
75 5 3
80 5 3
85 5 3
90 5 3
95 5 3
100 5 3
105 5 3
0 6 3
5 6 3
10 6 3
15 6 3
20 6 3
25 6 3
30 6 3
35 6 3
40 6 3
45 6 3
50 6 3
55 6 3
60 6 3
65 6 3
70 6 3
75 6 3
80 6 3
85 6 3
90 6 3
95 6 3
100 6 3
105 6 3
0 7 3
5 7 3
10 7 3
15 7 3
20 7 3
25 7 3
30 7 3
35 7 3
40 7 3
45 7 3
50 7 3
55 7 3
60 7 3
65 7 3
70 7 3
75 7 3
80 7 3
85 7 3
90 7 3
95 7 3
100 7 3
105 7 3
0 8 3
5 8 3
10 8 3
15 8 3
20 8 3
25 8 3
30 8 3
35 8 3
40 8 3
45 8 3
50 8 3
55 8 3
60 8 3
65 8 3
70 8 3
75 8 3
80 8 3
85 8 3
90 8 3
95 8 3
100 8 3
105 8 3
0 9 3
5 9 3
10 9 3
15 9 3
20 9 3
25 9 3
30 9 3
35 9 3
40 9 3
45 9 3
50 9 3
55 9 3
60 9 3
65 9 3
70 9 3
75 9 3
80 9 3
85 9 3
90 9 3
95 9 3
100 9 3
105 9 3
0 10 3
5 10 3
10 10 3
15 10 3
[...]
POINT_DATA 4488

SCALARS pressure double
LOOKUP_TABLE pressure
0
0
0
0
0
0
0
0
0
0
0
0
0
0
0
0
0
0
0
0
0
0
0
2217.04
2217.04
2217
2216.74
2216.62
2216.56
2216.54
2216.43
2216.51
2216.2
2215.98
2215.58
2215.39
2214.98
2214.25
2212.22
2212.23
2211.63
2211.3
2211.15
0
0
2217.05
2217.04
2217.01
2216.74
2216.63
2216.57
2216.55
2216.43
2216.25
2216.2
2215.99
2215.58
2215.4
2215.01
2214.3
2212.1
2212.25
2211.63
2211.29
2211.15
0
0
2217.06
2217.05
2217.02
2216.75
2216.64
2216.61
2216.57
2216.43
2216.28
2216.21
2216.01
2215.59
2215.42
2215.05
2214.4
2214.2
2212.31
2211.61
2211.28
2211.16
0
0
2217.07
2217.06
2217.05
2216.76
2216.35
2216.61
2216.59
2216.5
2216.32
2216.23
2216.05
2215.6
2215.46
2215.11
2214.49
2214.1
2212.3
2211.57
2211.26
2211.17
0
0
2217.08
2217.07
2216.97
2216.78
2216.35
2216.64
2216.62
2216.5
2216.35
2216.25
2216.09
2216.09
2215.51
2215.19
2214.58
2214.05
2212.25
2211.52
2211.23
2211.18
0
0
2217.1
2217.09
2217
2216.81
2216.32
2216.67
2216.65
2216.52
2216.39
2216.27
2216.13
2216.04
2215.58
2215.26
2214.68
2214.04
2212.15
2211.2
2211.18
2211.2
0
0
2217.12
2217.12
2217.04
2216.87
2216.27
2216.72
2216.69
2216.53
2216.42
2216.3
2216.16
2216.07
2215.69
2215.35
2214.82
2214.08
2212.01
2211.08
2211.14
2211.21
0
0
2217.15
2217.14
2217.09
2216.93
2216.19
2216.79
2216.74
2216.7
2216.46
2216.33
2216.2
2216.11
2215.8
2215.45
2214.95
2214.18
2211.82
2210.92
2211.1
2211.23
0
0
2217.18
2217.18
2217.14
2217.02
2216.02
2216.88
2216.79
2216.72
2216.5
2216.36
2216.24
2216.15
2215.92
2215.61
2215.02
2214.33
2211.55
2210.71
2211.05
2211.25
0
0
2217.21
2217.21
2217.2
2217.14
2217.65
2217.03
2216.85
2216.75
2216.54
2216.39
2216.27
2216.2
2216.03
2215.74
2215.15
2214.55
2211.16
2210.44
2211.01
2211.27
0
0
2217.24
2217.26
2217.26
2217.25
2217.57
2217.13
2216.91
2216.8
2216.57
2216.42
2216.31
2216.26
2216.16
2215.87
2215.27
2214.85
2210.52
2210.12
2210.98
2211.29
0
0
2217.28
2217.3
2217.32
2217.35
2217.57
2217.2
2216.98
2216.85
2216.61
2216.46
2216.35
2216.32
2216.29
2216.02
2215.37
2215.26
2209.94
2209.74
2210.97
2211.32
0
0
2217.31
2217.34
2217.38
2217.44
2217.58
2217.27
2217.04
2216.8
2216.64
2216.49
2216.39
2216.38
2216.44
2216.16
2217.62
2215.86
2208.91
2209.28
2210.99
2211.34
0
0
2217.35
2217.39
2217.45
2217.52
2217.6
2217.34
2217.1
2216.86
2216.68
2216.53
2216.44
2216.44
2216.61
2217.28
2217.83
2216.57
2207.44
2208.72
2211.06
2211.37
0
0
2217.4
2217.44
2217.52
2217.61
2217.61
2217.4
2217.16
2216.92
2216.72
2216.56
2216.48
2216.51
2216.76
2217.37
2218.06
2218.16
2206
2208.03
2211.22
2211.39
0
0
0
0
0
0
0
0
0
0
0
0
0
0
0
0
0
0
0
0
0
0
0
0
2217.04
2217.04
2217
2216.74
2216.62
2216.56
2216.54
2216.43
2216.51
2216.2
2215.98
2215.58
2215.39
2214.98
2214.25
2212.22
2212.23
2211.63
2211.3
2211.15
0
-2217.04
2217.04
2217.04
2217
2216.74
2216.62
2216.56
2216.54
2216.43
2216.51
2216.2
2215.98
2215.58
2215.39
2214.98
2214.25
2212.22
2212.23
2211.63
2211.3
2211.15
2211.15
0.0202188
2217.05
2217.04
2217.01
2216.74
2216.63
2216.57
2216.55
2216.43
2216.25
2216.2
2215.99
2215.58
2215.4
2215.01
2214.3
2212.1
2212.25
2211.63
2211.29
2211.15
2211.15
-2217.06
2217.06
2217.05
2217.02
2216.75
2216.64
2216.61
2216.57
2216.43
2216.28
2216.21
2216.01
2215.59
2215.42
2215.05
2214.4
2214.2
2212.31
2211.61
2211.28
2211.16
2211.16
-2217.07
2217.07
2217.06
2217.05
2216.76
2216.35
2216.61
2216.59
2216.5
2216.32
2216.23
2216.05
2215.6
2215.46
2215.11
2214.49
2214.1
2212.3
2211.57
2211.26
2211.17
2211.17
-2217.08
2217.08
2217.07
2216.97
2216.78
2216.35
2216.64
2216.62
2216.5
2216.35
2216.25
2216.09
2216.09
2215.51
2215.19
2214.58
2214.05
2212.25
2211.52
2211.23
2211.18
2211.18
-2217.1
2217.1
2217.09
2217
2216.81
2216.32
2216.67
2216.65
2216.52
2216.39
2216.27
2216.13
2216.04
2215.58
2215.26
2214.68
2214.04
2212.15
2211.2
2211.18
2211.2
2211.2
-2217.12
2217.12
2217.12
2217.04
2216.87
2216.27
2216.72
2216.69
2216.53
2216.42
2216.3
2216.16
2216.07
2215.69
2215.35
2214.82
2214.08
2212.01
2211.08
2211.14
2211.21
2211.21
-2217.15
2217.15
2217.14
2217.09
2216.93
2216.19
2216.79
2216.74
2216.7
2216.46
2216.33
2216.2
2216.11
2215.8
2215.45
2214.95
2214.18
2211.82
2210.92
2211.1
2211.23
2211.23
-2217.18
2217.18
2217.18
2217.14
2217.02
2216.02
2216.88
2216.79
2216.72
2216.5
2216.36
2216.24
2216.15
2215.92
2215.61
2215.02
2214.33
2211.55
2210.71
2211.05
2211.25
2211.25
-2217.21
2217.21
2217.21
2217.2
2217.14
2217.65
2217.03
2216.85
2216.75
2216.54
2216.39
2216.27
2216.2
2216.03
2215.74
2215.15
2214.55
2211.16
2210.44
2211.01
2211.27
2211.27
-2217.24
2217.24
2217.26
2217.26
2217.25
2217.57
2217.13
2216.91
2216.8
2216.57
2216.42
2216.31
2216.26
2216.16
2215.87
2215.27
2214.85
2210.52
2210.12
2210.98
2211.29
2211.29
-2217.28
2217.28
2217.3
2217.32
2217.35
2217.57
2217.2
2216.98
2216.85
2216.61
2216.46
2216.35
2216.32
2216.29
2216.02
2215.37
2215.26
2209.94
2209.74
2210.97
2211.32
2211.32
-2217.31
2217.31
2217.34
2217.38
2217.44
2217.58
2217.27
2217.04
2216.8
2216.64
2216.49
2216.39
2216.38
2216.44
2216.16
2217.62
2215.86
2208.91
2209.28
2210.99
2211.34
2211.34
-2217.35
2217.35
2217.39
2217.45
2217.52
2217.6
2217.34
2217.1
2216.86
2216.68
2216.53
2216.44
2216.44
2216.61
2217.28
2217.83
2216.57
2207.44
2208.72
2211.06
2211.37
2211.37
-2217.4
2217.4
2217.44
2217.52
2217.61
2217.61
2217.4
2217.16
2216.92
2216.72
2216.56
2216.48
2216.51
2216.76
2217.37
2218.06
2218.16
2206
2208.03
2211.22
2211.39
2211.39
0
2217.4
2217.44
2217.52
2217.61
2217.61
2217.4
2217.16
2216.92
2216.72
2216.56
2216.48
2216.51
2216.76
2217.37
2218.06
2218.16
2206
2208.03
2211.22
2211.39
0
0
2217.07
2217.08
2217.02
2216.82
2216.67
2216.61
2216.57
2216.48
2216.31
2216.22
2216.02
2215.87
2215.43
2215.01
2214.29
2212.81
2212.39
2211.72
2211.37
2211.19
0
-2217.07
2217.07
2217.08
2217.02
2216.82
2216.67
2216.61
2216.57
2216.48
2216.31
2216.22
2216.02
2215.87
2215.43
2215.01
2214.29
2212.81
2212.39
2211.72
2211.37
2211.19
2211.19
-2217.08
2217.08
2217.11
2217.03
2216.82
2216.68
2216.63
2216.57
2216.48
2216.31
2216.22
2216.03
2215.75
2215.45
2215.03
2214.32
2212.95
2212.38
2211.71
2211.37
2211.2
2211.2
-2217.09
2217.09
2217.09
2217.04
2216.82
2216.66
2216.65
2216.6
2216.49
2216.33
2216.23
2216.04
2215.75
2215.48
2215.07
2214.38
2213.63
2212.4
2211.69
2211.35
2211.2
2211.2
-2217.1
2217.1
2217.1
2217.05
2216.84
2216.58
2216.67
2216.63
2216.52
2216.36
2216.25
2216.07
2215.79
2215.54
2215.12
2214.4
2213.84
2212.39
2211.65
2211.34
2211.21
2211.21
-2217.11
2217.11
2217.11
2217.03
2216.86
2216.56
2216.7
2216.66
2216.54
2216.39
2216.27
2216.11
2215.96
2215.56
2215.19
2214.27
2213.9
2212.35
2211.57
2211.31
2211.22
2211.22
-2217.13
2217.13
2217.12
2217.05
2216.89
2216.56
2216.74
2216.69
2216.56
2216.42
2216.29
2216.14
2216.01
2215.62
2215.26
2214.57
2213.96
2212.28
2211.41
2211.28
2211.24
2211.24
-2217.15
2217.15
2217.15
2217.08
2216.94
2216.6
2216.79
2216.73
2216.6
2216.45
2216.32
2216.18
2216.05
2215.71
2215.35
2214.77
2214.03
2212.18
2211.28
2211.24
2211.25
2211.25
-2217.18
2217.18
2217.17
2217.13
2217
2216.68
2216.86
2216.77
2216.67
2216.49
2216.35
2216.21
2216.09
2215.81
2215.46
2214.92
2214.13
2212.05
2211.13
2211.2
2211.27
2211.27
-2217.2
2217.2
2217.2
2217.17
2217.09
2216.61
2216.94
2216.82
2216.72
2216.52
2216.38
2216.25
2216.14
2215.91
2215.59
2215.06
2214.27
2211.92
2210.96
2211.16
2211.29
2211.29
-2217.23
2217.23
2217.24
2217.22
2217.18
2217.29
2217.05
2216.88
2216.76
2216.56
2216.41
2216.28
2216.19
2216.02
2215.74
2215.24
2214.48
2211.89
2210.76
2211.13
2211.31
2211.31
-2217.27
2217.27
2217.28
2217.28
2217.27
2217.47
2217.13
2216.93
2216.8
2216.59
2216.44
2216.32
2216.25
2216.14
2215.9
2215.48
2214.75
2211.18
2210.47
2211.1
2211.33
2211.33
-2217.3
2217.3
2217.31
2217.34
2217.36
2217.49
2217.2
2216.99
2216.83
2216.63
2216.48
2216.36
2216.31
2216.26
2216.09
2215.84
2215.12
2210.61
2210.15
2211.08
2211.36
2211.36
-2217.34
2217.34
2217.34
2217.41
2217.44
2217.52
2217.27
2217.05
2216.85
2216.67
2216.51
2216.41
2216.37
2216.4
2216.37
2216.78
2215.63
2209.89
2209.78
2211.08
2211.38
2211.38
-2217.38
2217.38
2217.4
2217.46
2217.52
2217.55
2217.33
2217.11
2216.89
2216.7
2216.55
2216.45
2216.43
2216.55
2216.87
2217.28
2216.29
2209.02
2209.37
2211.11
2211.41
2211.41
-2217.42
2217.42
2217.46
2217.52
2217.6
2217.58
2217.39
2217.17
2216.94
2216.74
2216.58
2216.49
2216.49
2216.69
2217.15
2217.65
2217.19
2208.07
2208.92
2211.17
2211.44
2211.44
0
2217.42
2217.46
2217.52
2217.6
2217.58
2217.39
2217.17
2216.94
2216.74
2216.58
2216.49
2216.49
2216.69
2217.15
2217.65
2217.19
2208.07
2208.92
2211.17
2211.44
0
0
2217.11
2217.11
2217.05
2216.89
2216.69
2216.66
2216.62
2216.52
2216.36
2216.24
2216.05
2215.86
2215.47
2215.03
2214.33
2213.18
2212.49
2211.82
2211.44
2211.24
0
-2217.11
2217.11
2217.11
2217.05
2216.89
2216.69
2216.66
2216.62
2216.52
2216.36
2216.24
2216.05
2215.86
2215.47
2215.03
2214.33
2213.18
2212.49
2211.82
2211.44
2211.24
2211.24
-2217.11
2217.11
2217.12
2217.06
2216.89
2216.74
2216.68
2216.62
2216.52
2216.36
2216.25
2216.05
2215.82
2215.48
2215.05
2214.36
2213.3
2212.49
2211.81
2211.44
2211.24
2211.24
-2217.12
2217.12
2217.12
2217.06
2216.9
2216.74
2216.7
2216.64
2216.53
2216.38
2216.26
2216.07
2215.82
2215.51
2215.08
2214.4
2213.56
2212.49
2211.78
2211.43
2211.25
2211.25
-2217.13
2217.13
2217.13
2217.07
2216.91
2216.72
2216.72
2216.67
2216.55
2216.4
2216.27
2216.1
2215.86
2215.55
2215.13
2214.44
2213.73
2212.48
2211.74
2211.42
2211.26
2211.26
-2217.15
2217.15
2217.14
2217.08
2216.93
2216.72
2216.76
2216.7
2216.58
2216.43
2216.29
2216.12
2215.95
2215.59
2215.19
2214.47
2213.82
2212.45
2211.67
2211.39
2211.27
2211.27
-2217.16
2217.16
2217.16
2217.1
2216.96
2216.74
2216.79
2216.73
2216.6
2216.45
2216.32
2216.16
2215.99
2215.65
2215.26
2214.61
2213.9
2212.4
2211.57
2211.37
2211.28
2211.28
-2217.18
2217.18
2217.18
2217.13
2217.01
2216.81
2216.84
2216.76
2216.64
2216.48
2216.34
2216.19
2216.04
2215.72
2215.35
2214.76
2213.98
2212.33
2211.46
2211.34
2211.3
2211.3
-2217.21
2217.21
2217.2
2217.16
2217.06
2216.9
2216.91
2216.81
2216.69
2216.52
2216.37
2216.22
2216.08
2215.81
2215.46
2214.9
2214.09
2212.23
2211.34
2211.31
2211.31
2211.31
-2217.23
2217.23
2217.23
2217.2
2217.13
2217.04
2216.98
2216.85
2216.73
2216.55
2216.4
2216.26
2216.13
2215.9
2215.58
2215.06
2214.22
2212.12
2211.19
2211.27
2211.33
2211.33
-2217.26
2217.26
2217.27
2217.25
2217.21
2217.35
2217.07
2216.9
2216.77
2216.58
2216.43
2216.3
2216.18
2216
2215.72
2215.26
2214.41
2211.97
2211.01
2211.24
2211.35
2211.35
-2217.3
2217.3
2217.3
2217.3
2217.29
2217.43
2217.14
2216.95
2216.81
2216.62
2216.46
2216.33
2216.24
2216.11
2215.89
2215.52
2214.65
2211.59
2210.79
2211.21
2211.38
2211.38
-2217.33
2217.33
2217.34
2217.36
2217.37
2217.45
2217.2
2217.01
2216.84
2216.65
2216.5
2216.37
2216.3
2216.23
2216.09
2215.89
2214.98
2211.19
2210.54
2211.19
2211.4
2211.4
-2217.37
2217.37
2217.38
2217.42
2217.44
2217.48
2217.26
2217.06
2216.87
2216.69
2216.53
2216.42
2216.36
2216.35
2216.34
2216.43
2215.41
2210.73
2210.26
2211.19
2211.42
2211.42
-2217.41
2217.41
2217.43
2217.47
2217.51
2217.52
2217.32
2217.12
2216.91
2216.73
2216.57
2216.46
2216.42
2216.48
2216.66
2216.87
2215.97
2210.23
2209.96
2211.19
2211.45
2211.45
-2217.45
2217.45
2217.48
2217.53
2217.58
2217.56
2217.39
2217.18
2216.96
2216.76
2216.6
2216.5
2216.48
2216.61
2216.93
2217.25
2216.67
2209.73
2209.64
2211.2
2211.48
2211.48
0
2217.45
2217.48
2217.53
2217.58
2217.56
2217.39
2217.18
2216.96
2216.76
2216.6
2216.5
2216.48
2216.61
2216.93
2217.25
2216.67
2209.73
2209.64
2211.2
2211.48
0
0
2217.14
2217.14
2217.08
2216.96
2216.67
2216.69
2216.66
2216.56
2216.4
2216.27
2216.07
2215.86
2215.49
2215.05
2214.37
2213.39
2212.59
2211.91
2211.52
2211.28
0
-2217.14
2217.14
2217.14
2217.08
2216.96
2216.67
2216.69
2216.66
2216.56
2216.4
2216.27
2216.07
2215.86
2215.49
2215.05
2214.37
2213.39
2212.59
2211.91
2211.52
2211.28
2211.28
-2217.14
2217.14
2217.14
2217.09
2216.96
2216.84
2216.72
2216.67
2216.56
2216.41
2216.27
2216.08
2215.85
2215.51
2215.06
2214.39
2213.46
2212.59
2211.9
2211.52
2211.29
2211.29
-2217.15
2217.15
2217.15
2217.09
2216.96
2216.83
2216.75
2216.69
2216.57
2216.42
2216.28
2216.1
2215.86
2215.53
2215.09
2214.43
2213.59
2212.59
2211.88
2211.51
2211.29
2211.29
-2217.16
2217.16
2217.16
2217.1
2216.97
2216.83
2216.78
2216.71
2216.59
2216.44
2216.3
2216.12
2215.89
2215.57
2215.14
2214.47
2213.7
2212.58
2211.85
2211.5
2211.3
2211.3
-2217.18
2217.18
2217.17
2217.12
2216.99
2216.84
2216.81
2216.73
2216.61
2216.46
2216.32
2216.14
2215.94
2215.61
2215.19
2214.53
2213.79
2212.56
2211.79
2211.48
2211.31
2211.31
-2217.2
2217.2
2217.19
2217.14
2217.02
2216.87
2216.85
2216.76
2216.64
2216.48
2216.34
2216.17
2215.99
2215.66
2215.26
2214.63
2213.87
2212.52
2211.72
2211.46
2211.32
2211.32
-2217.22
2217.22
2217.21
2217.16
2217.06
2216.93
2216.89
2216.8
2216.67
2216.51
2216.36
2216.2
2216.03
2215.73
2215.35
2214.75
2213.95
2212.46
2211.63
2211.44
2211.34
2211.34
-2217.24
2217.24
2217.23
2217.2
2217.11
2217.01
2216.95
2216.84
2216.71
2216.54
2216.39
2216.23
2216.07
2215.8
2215.45
2214.89
2214.05
2212.39
2211.53
2211.41
2211.36
2211.36
-2217.26
2217.26
2217.26
2217.23
2217.17
2217.12
2217.01
2216.88
2216.75
2216.57
2216.42
2216.27
2216.12
2215.89
2215.56
2215.05
2214.18
2212.29
2211.41
2211.38
2211.38
2211.38
-2217.29
2217.29
2217.29
2217.28
2217.24
2217.28
2217.08
2216.93
2216.78
2216.61
2216.45
2216.31
2216.17
2215.98
2215.7
2215.24
2214.34
2212.15
2211.27
2211.36
2211.4
2211.4
-2217.32
2217.32
2217.33
2217.33
2217.31
2217.36
2217.14
2216.97
2216.82
2216.64
2216.48
2216.35
2216.23
2216.08
2215.86
2215.48
2214.56
2211.93
2211.1
2211.33
2211.42
2211.42
-2217.36
2217.36
2217.37
2217.38
2217.37
2217.41
2217.2
2217.02
2216.86
2216.67
2216.52
2216.38
2216.28
2216.19
2216.04
2215.78
2214.83
2211.67
2210.91
2211.31
2211.44
2211.44
-2217.39
2217.39
2217.41
2217.43
2217.44
2217.45
2217.26
2217.07
2216.89
2216.71
2216.55
2216.43
2216.34
2216.3
2216.26
2216.16
2215.19
2211.39
2210.7
2211.3
2211.47
2211.47
-2217.43
2217.43
2217.45
2217.48
2217.5
2217.49
2217.32
2217.13
2216.93
2216.75
2216.59
2216.47
2216.4
2216.42
2216.5
2216.52
2215.63
2211.09
2210.48
2211.29
2211.49
2211.49
-2217.47
2217.47
2217.5
2217.54
2217.57
2217.54
2217.38
2217.18
2216.98
2216.79
2216.62
2216.51
2216.46
2216.53
2216.73
2216.86
2216.16
2210.8
2210.25
2211.28
2211.52
2211.52
0
2217.47
2217.5
2217.54
2217.57
2217.54
2217.38
2217.18
2216.98
2216.79
2216.62
2216.51
2216.46
2216.53
2216.73
2216.86
2216.16
2210.8
2210.25
2211.28
2211.52
0
0
2217.17
2217.17
2217.12
2217.03
2216.8
2216.71
2216.71
2216.59
2216.44
2216.29
2216.1
2215.86
2215.51
2215.06
2214.4
2213.52
2212.68
2212.01
2211.6
2211.33
0
-2217.17
2217.17
2217.17
2217.12
2217.03
2216.8
2216.71
2216.71
2216.59
2216.44
2216.29
2216.1
2215.86
2215.51
2215.06
2214.4
2213.52
2212.68
2212.01
2211.6
2211.33
2211.33
-2217.18
2217.18
2217.17
2217.12
2217.02
2216.93
2216.76
2216.72
2216.6
2216.45
2216.3
2216.1
2215.87
2215.53
2215.08
2214.42
2213.56
2212.68
2212
2211.6
2211.33
2211.33
-2217.19
2217.19
2217.18
2217.13
2217.02
2216.95
2216.8
2216.73
2216.61
2216.46
2216.31
2216.12
2215.88
2215.55
2215.1
2214.45
2213.63
2212.68
2211.99
2211.59
2211.34
2211.34
-2217.2
2217.2
2217.19
2217.14
2217.03
2216.94
2216.83
2216.75
2216.63
2216.47
2216.32
2216.14
2215.91
2215.58
2215.14
2214.5
2213.71
2212.68
2211.96
2211.58
2211.35
2211.35
-2217.21
2217.21
2217.2
2217.15
2217.05
2216.94
2216.86
2216.77
2216.65
2216.49
2216.34
2216.16
2215.95
2215.62
2215.2
2214.56
2213.78
2212.66
2211.92
2211.57
2211.36
2211.36
-2217.23
2217.23
2217.22
2217.17
2217.08
2216.96
2216.9
2216.8
2216.67
2216.52
2216.36
2216.19
2215.98
2215.67
2215.26
2214.64
2213.85
2212.64
2211.86
2211.56
2211.37
2211.37
-2217.25
2217.25
2217.24
2217.2
2217.11
2217.01
2216.94
2216.83
2216.7
2216.54
2216.39
2216.22
2216.03
2215.73
2215.34
2214.75
2213.93
2212.59
2211.8
2211.54
2211.38
2211.38
-2217.27
2217.27
2217.26
2217.23
2217.16
2217.07
2216.98
2216.87
2216.73
2216.57
2216.41
2216.25
2216.07
2215.8
2215.43
2214.87
2214.03
2212.54
2211.72
2211.52
2211.4
2211.4
-2217.3
2217.3
2217.29
2217.26
2217.21
2217.15
2217.04
2216.91
2216.77
2216.6
2216.44
2216.28
2216.12
2215.87
2215.54
2215.01
2214.14
2212.47
2211.62
2211.5
2211.42
2211.42
-2217.32
2217.32
2217.32
2217.3
2217.26
2217.25
2217.09
2216.95
2216.8
2216.63
2216.47
2216.32
2216.17
2215.96
2215.66
2215.18
2214.28
2212.36
2211.51
2211.48
2211.44
2211.44
-2217.35
2217.35
2217.36
2217.35
2217.32
2217.32
2217.15
2216.99
2216.84
2216.66
2216.5
2216.36
2216.22
2216.05
2215.8
2215.39
2214.46
2212.23
2211.39
2211.46
2211.46
2211.46
-2217.39
2217.39
2217.39
2217.39
2217.38
2217.38
2217.21
2217.04
2216.87
2216.7
2216.54
2216.4
2216.27
2216.14
2215.96
2215.64
2214.69
2212.07
2211.25
2211.44
2211.48
2211.48
-2217.42
2217.42
2217.43
2217.44
2217.44
2217.42
2217.26
2217.09
2216.91
2216.73
2216.57
2216.44
2216.33
2216.25
2216.14
2215.92
2214.97
2211.89
2211.09
2211.42
2211.51
2211.51
-2217.46
2217.46
2217.47
2217.49
2217.5
2217.47
2217.32
2217.14
2216.95
2216.77
2216.61
2216.48
2216.39
2216.35
2216.34
2216.22
2215.32
2211.72
2210.93
2211.41
2211.53
2211.53
-2217.5
2217.5
2217.52
2217.54
2217.56
2217.52
2217.37
2217.19
2216.99
2216.81
2216.65
2216.52
2216.45
2216.46
2216.54
2216.51
2215.7
2211.54
2210.77
2211.4
2211.56
2211.56
0
2217.5
2217.52
2217.54
2217.56
2217.52
2217.37
2217.19
2216.99
2216.81
2216.65
2216.52
2216.45
2216.46
2216.54
2216.51
2215.7
2211.54
2210.77
2211.4
2211.56
0
0
2217.21
2217.2
2217.15
2217.07
2216.88
2216.81
2216.75
2216.63
2216.48
2216.32
2216.12
2215.88
2215.53
2215.08
2214.43
2213.61
2212.78
2212.11
2211.68
2211.37
0
-2217.21
2217.21
2217.2
2217.15
2217.07
2216.88
2216.81
2216.75
2216.63
2216.48
2216.32
2216.12
2215.88
2215.53
2215.08
2214.43
2213.61
2212.78
2212.11
2211.68
2211.37
2211.37
-2217.21
2217.21
2217.2
2217.16
2217.07
2216.95
2216.83
2216.76
2216.64
2216.48
2216.32
2216.13
2215.89
2215.54
2215.09
2214.45
2213.63
2212.78
2212.1
2211.68
2211.38
2211.38
-2217.22
2217.22
2217.21
2217.16
2217.08
2216.98
2216.86
2216.78
2216.65
2216.49
2216.33
2216.14
2215.9
2215.56
2215.11
2214.48
2213.68
2212.78
2212.09
2211.67
2211.38
2211.38
-2217.23
2217.23
2217.22
2217.18
2217.09
2216.99
2216.88
2216.79
2216.66
2216.51
2216.35
2216.16
2215.92
2215.59
2215.15
2214.52
2213.73
2212.77
2212.07
2211.67
2211.39
2211.39
-2217.24
2217.24
2217.23
2217.19
2217.1
2217.01
2216.91
2216.81
2216.68
2216.53
2216.37
2216.18
2215.95
2215.63
2215.2
2214.57
2213.79
2212.76
2212.04
2211.66
2211.4
2211.4
-2217.26
2217.26
2217.25
2217.21
2217.13
2217.03
2216.94
2216.84
2216.71
2216.55
2216.39
2216.2
2215.99
2215.67
2215.25
2214.65
2213.85
2212.75
2212
2211.65
2211.41
2211.41
-2217.28
2217.28
2217.27
2217.23
2217.16
2217.07
2216.98
2216.87
2216.73
2216.57
2216.41
2216.23
2216.03
2215.73
2215.32
2214.73
2213.92
2212.72
2211.95
2211.64
2211.43
2211.43
-2217.3
2217.3
2217.29
2217.26
2217.2
2217.12
2217.02
2216.9
2216.76
2216.6
2216.43
2216.26
2216.07
2215.79
2215.41
2214.84
2214
2212.68
2211.9
2211.62
2211.45
2211.45
-2217.33
2217.33
2217.32
2217.29
2217.24
2217.18
2217.06
2216.93
2216.79
2216.63
2216.46
2216.3
2216.11
2215.86
2215.5
2214.96
2214.1
2212.63
2211.83
2211.61
2211.46
2211.46
-2217.35
2217.35
2217.35
2217.33
2217.29
2217.25
2217.11
2216.97
2216.82
2216.66
2216.49
2216.33
2216.16
2215.93
2215.61
2215.11
2214.22
2212.57
2211.75
2211.6
2211.48
2211.48
-2217.38
2217.38
2217.38
2217.37
2217.34
2217.31
2217.16
2217.01
2216.86
2216.69
2216.52
2216.37
2216.21
2216.01
2215.74
2215.28
2214.37
2212.49
2211.66
2211.58
2211.5
2211.5
-2217.41
2217.41
2217.42
2217.41
2217.39
2217.36
2217.21
2217.06
2216.89
2216.72
2216.56
2216.41
2216.26
2216.1
2215.88
2215.48
2214.56
2212.39
2211.56
2211.57
2211.53
2211.53
-2217.45
2217.45
2217.45
2217.46
2217.44
2217.41
2217.26
2217.1
2216.93
2216.76
2216.59
2216.45
2216.32
2216.19
2216.03
2215.71
2214.78
2212.29
2211.45
2211.56
2211.55
2211.55
-2217.49
2217.49
2217.49
2217.5
2217.5
2217.45
2217.31
2217.15
2216.97
2216.79
2216.63
2216.49
2216.37
2216.29
2216.19
2215.94
2215.04
2212.19
2211.34
2211.55
2211.58
2211.58
-2217.52
2217.52
2217.54
2217.55
2217.56
2217.5
2217.37
2217.2
2217.01
2216.83
2216.67
2216.53
2216.43