# vtk DataFile Version 3.0
FlowField
ASCII
DATASET STRUCTURED_GRID
DIMENSIONS 102 12 1 
POINTS 1224 double
0 0 0
0.3 0 0
0.6 0 0
0.9 0 0
1.2 0 0
1.5 0 0
1.8 0 0
2.1 0 0
2.4 0 0
2.7 0 0
3 0 0
3.3 0 0
3.6 0 0
3.9 0 0
4.2 0 0
4.5 0 0
4.8 0 0
5.1 0 0
5.4 0 0
5.7 0 0
6 0 0
6.3 0 0
6.6 0 0
6.9 0 0
7.2 0 0
7.5 0 0
7.8 0 0
8.1 0 0
8.4 0 0
8.7 0 0
9 0 0
9.3 0 0
9.6 0 0
9.9 0 0
10.2 0 0
10.5 0 0
10.8 0 0
11.1 0 0
11.4 0 0
11.7 0 0
12 0 0
12.3 0 0
12.6 0 0
12.9 0 0
13.2 0 0
13.5 0 0
13.8 0 0
14.1 0 0
14.4 0 0
14.7 0 0
15 0 0
15.3 0 0
15.6 0 0
15.9 0 0
16.2 0 0
16.5 0 0
16.8 0 0
17.1 0 0
17.4 0 0
17.7 0 0
18 0 0
18.3 0 0
18.6 0 0
18.9 0 0
19.2 0 0
19.5 0 0
19.8 0 0
20.1 0 0
20.4 0 0
20.7 0 0
21 0 0
21.3 0 0
21.6 0 0
21.9 0 0
22.2 0 0
22.5 0 0
22.8 0 0
23.1 0 0
23.4 0 0
23.7 0 0
24 0 0
24.3 0 0
24.6 0 0
24.9 0 0
25.2 0 0
25.5 0 0
25.8 0 0
26.1 0 0
26.4 0 0
26.7 0 0
27 0 0
27.3 0 0
27.6 0 0
27.9 0 0
28.2 0 0
28.5 0 0
28.8 0 0
29.1 0 0
29.4 0 0
29.7 0 0
30 0 0
30.3 0 0
0 0.1 0
0.3 0.1 0
0.6 0.1 0
0.9 0.1 0
1.2 0.1 0
1.5 0.1 0
1.8 0.1 0
2.1 0.1 0
2.4 0.1 0
2.7 0.1 0
3 0.1 0
3.3 0.1 0
3.6 0.1 0
3.9 0.1 0
4.2 0.1 0
4.5 0.1 0
4.8 0.1 0
5.1 0.1 0
5.4 0.1 0
5.7 0.1 0
6 0.1 0
6.3 0.1 0
6.6 0.1 0
6.9 0.1 0
7.2 0.1 0
7.5 0.1 0
7.8 0.1 0
8.1 0.1 0
8.4 0.1 0
8.7 0.1 0
9 0.1 0
9.3 0.1 0
9.6 0.1 0
9.9 0.1 0
10.2 0.1 0
10.5 0.1 0
10.8 0.1 0
11.1 0.1 0
11.4 0.1 0
11.7 0.1 0
12 0.1 0
12.3 0.1 0
12.6 0.1 0
12.9 0.1 0
13.2 0.1 0
13.5 0.1 0
13.8 0.1 0
14.1 0.1 0
14.4 0.1 0
14.7 0.1 0
15 0.1 0
15.3 0.1 0
15.6 0.1 0
15.9 0.1 0
16.2 0.1 0
16.5 0.1 0
16.8 0.1 0
17.1 0.1 0
17.4 0.1 0
17.7 0.1 0
18 0.1 0
18.3 0.1 0
18.6 0.1 0
18.9 0.1 0
19.2 0.1 0
19.5 0.1 0
19.8 0.1 0
20.1 0.1 0
20.4 0.1 0
20.7 0.1 0
21 0.1 0
21.3 0.1 0
21.6 0.1 0
21.9 0.1 0
22.2 0.1 0
22.5 0.1 0
22.8 0.1 0
23.1 0.1 0
23.4 0.1 0
23.7 0.1 0
24 0.1 0
24.3 0.1 0
24.6 0.1 0
24.9 0.1 0
25.2 0.1 0
25.5 0.1 0
25.8 0.1 0
26.1 0.1 0
26.4 0.1 0
26.7 0.1 0
27 0.1 0
27.3 0.1 0
27.6 0.1 0
27.9 0.1 0
28.2 0.1 0
28.5 0.1 0
28.8 0.1 0
29.1 0.1 0
29.4 0.1 0
29.7 0.1 0
30 0.1 0
30.3 0.1 0
0 0.2 0
0.3 0.2 0
0.6 0.2 0
0.9 0.2 0
1.2 0.2 0
1.5 0.2 0
1.8 0.2 0
2.1 0.2 0
2.4 0.2 0
2.7 0.2 0
3 0.2 0
3.3 0.2 0
3.6 0.2 0
3.9 0.2 0
4.2 0.2 0
4.5 0.2 0
4.8 0.2 0
5.1 0.2 0
5.4 0.2 0
5.7 0.2 0
6 0.2 0
6.3 0.2 0
6.6 0.2 0
6.9 0.2 0
7.2 0.2 0
7.5 0.2 0
7.8 0.2 0
8.1 0.2 0
8.4 0.2 0
8.7 0.2 0
9 0.2 0
9.3 0.2 0
9.6 0.2 0
9.9 0.2 0
10.2 0.2 0
10.5 0.2 0
10.8 0.2 0
11.1 0.2 0
11.4 0.2 0
11.7 0.2 0
12 0.2 0
12.3 0.2 0
12.6 0.2 0
12.9 0.2 0
13.2 0.2 0
13.5 0.2 0
13.8 0.2 0
14.1 0.2 0
14.4 0.2 0
14.7 0.2 0
15 0.2 0
15.3 0.2 0
15.6 0.2 0
15.9 0.2 0
16.2 0.2 0
16.5 0.2 0
16.8 0.2 0
17.1 0.2 0
17.4 0.2 0
17.7 0.2 0
18 0.2 0
18.3 0.2 0
18.6 0.2 0
18.9 0.2 0
19.2 0.2 0
19.5 0.2 0
19.8 0.2 0
20.1 0.2 0
20.4 0.2 0
20.7 0.2 0
21 0.2 0
21.3 0.2 0
21.6 0.2 0
21.9 0.2 0
22.2 0.2 0
22.5 0.2 0
22.8 0.2 0
23.1 0.2 0
23.4 0.2 0
23.7 0.2 0
24 0.2 0
24.3 0.2 0
24.6 0.2 0
24.9 0.2 0
25.2 0.2 0
25.5 0.2 0
25.8 0.2 0
26.1 0.2 0
26.4 0.2 0
26.7 0.2 0
27 0.2 0
27.3 0.2 0
27.6 0.2 0
27.9 0.2 0
28.2 0.2 0
28.5 0.2 0
28.8 0.2 0
29.1 0.2 0
29.4 0.2 0
29.7 0.2 0
30 0.2 0
30.3 0.2 0
0 0.3 0
0.3 0.3 0
0.6 0.3 0
0.9 0.3 0
1.2 0.3 0
1.5 0.3 0
1.8 0.3 0
2.1 0.3 0
2.4 0.3 0
2.7 0.3 0
3 0.3 0
3.3 0.3 0
3.6 0.3 0
3.9 0.3 0
4.2 0.3 0
4.5 0.3 0
4.8 0.3 0
5.1 0.3 0
5.4 0.3 0
5.7 0.3 0
6 0.3 0
6.3 0.3 0
6.6 0.3 0
6.9 0.3 0
7.2 0.3 0
7.5 0.3 0
7.8 0.3 0
8.1 0.3 0
8.4 0.3 0
8.7 0.3 0
9 0.3 0
9.3 0.3 0
9.6 0.3 0
9.9 0.3 0
10.2 0.3 0
10.5 0.3 0
10.8 0.3 0
11.1 0.3 0
11.4 0.3 0
11.7 0.3 0
12 0.3 0
12.3 0.3 0
12.6 0.3 0
12.9 0.3 0
13.2 0.3 0
13.5 0.3 0
13.8 0.3 0
14.1 0.3 0
14.4 0.3 0
14.7 0.3 0
15 0.3 0
15.3 0.3 0
15.6 0.3 0
15.9 0.3 0
16.2 0.3 0
16.5 0.3 0
16.8 0.3 0
17.1 0.3 0
17.4 0.3 0
17.7 0.3 0
18 0.3 0
18.3 0.3 0
18.6 0.3 0
18.9 0.3 0
19.2 0.3 0
19.5 0.3 0
19.8 0.3 0
20.1 0.3 0
20.4 0.3 0
20.7 0.3 0
21 0.3 0
21.3 0.3 0
21.6 0.3 0
21.9 0.3 0
22.2 0.3 0
22.5 0.3 0
22.8 0.3 0
23.1 0.3 0
23.4 0.3 0
23.7 0.3 0
24 0.3 0
24.3 0.3 0
24.6 0.3 0
24.9 0.3 0
25.2 0.3 0
25.5 0.3 0
25.8 0.3 0
26.1 0.3 0
26.4 0.3 0
26.7 0.3 0
27 0.3 0
27.3 0.3 0
27.6 0.3 0
27.9 0.3 0
28.2 0.3 0
28.5 0.3 0
28.8 0.3 0
29.1 0.3 0
29.4 0.3 0
29.7 0.3 0
30 0.3 0
30.3 0.3 0
0 0.4 0
0.3 0.4 0
0.6 0.4 0
0.9 0.4 0
1.2 0.4 0
1.5 0.4 0
1.8 0.4 0
2.1 0.4 0
2.4 0.4 0
2.7 0.4 0
3 0.4 0
3.3 0.4 0
3.6 0.4 0
3.9 0.4 0
4.2 0.4 0
4.5 0.4 0
4.8 0.4 0
5.1 0.4 0
5.4 0.4 0
5.7 0.4 0
6 0.4 0
6.3 0.4 0
6.6 0.4 0
6.9 0.4 0
7.2 0.4 0
7.5 0.4 0
7.8 0.4 0
8.1 0.4 0
8.4 0.4 0
8.7 0.4 0
9 0.4 0
9.3 0.4 0
9.6 0.4 0
9.9 0.4 0
10.2 0.4 0
10.5 0.4 0
10.8 0.4 0
11.1 0.4 0
11.4 0.4 0
11.7 0.4 0
12 0.4 0
12.3 0.4 0
12.6 0.4 0
12.9 0.4 0
13.2 0.4 0
13.5 0.4 0
13.8 0.4 0
14.1 0.4 0
14.4 0.4 0
14.7 0.4 0
15 0.4 0
15.3 0.4 0
15.6 0.4 0
15.9 0.4 0
16.2 0.4 0
16.5 0.4 0
16.8 0.4 0
17.1 0.4 0
17.4 0.4 0
17.7 0.4 0
18 0.4 0
18.3 0.4 0
18.6 0.4 0
18.9 0.4 0
19.2 0.4 0
19.5 0.4 0
19.8 0.4 0
20.1 0.4 0
20.4 0.4 0
20.7 0.4 0
21 0.4 0
21.3 0.4 0
21.6 0.4 0
21.9 0.4 0
22.2 0.4 0
22.5 0.4 0
22.8 0.4 0
23.1 0.4 0
23.4 0.4 0
23.7 0.4 0
24 0.4 0
24.3 0.4 0
24.6 0.4 0
24.9 0.4 0
25.2 0.4 0
25.5 0.4 0
25.8 0.4 0
26.1 0.4 0
26.4 0.4 0
26.7 0.4 0
27 0.4 0
27.3 0.4 0
27.6 0.4 0
27.9 0.4 0
28.2 0.4 0
28.5 0.4 0
28.8 0.4 0
29.1 0.4 0
29.4 0.4 0
29.7 0.4 0
30 0.4 0
30.3 0.4 0
0 0.5 0
0.3 0.5 0
0.6 0.5 0
0.9 0.5 0
1.2 0.5 0
1.5 0.5 0
1.8 0.5 0
2.1 0.5 0
2.4 0.5 0
2.7 0.5 0
3 0.5 0
3.3 0.5 0
3.6 0.5 0
3.9 0.5 0
4.2 0.5 0
4.5 0.5 0
4.8 0.5 0
5.1 0.5 0
5.4 0.5 0
5.7 0.5 0
6 0.5 0
6.3 0.5 0
6.6 0.5 0
6.9 0.5 0
7.2 0.5 0
7.5 0.5 0
7.8 0.5 0
8.1 0.5 0
8.4 0.5 0
8.7 0.5 0
9 0.5 0
9.3 0.5 0
9.6 0.5 0
9.9 0.5 0
10.2 0.5 0
10.5 0.5 0
10.8 0.5 0
11.1 0.5 0
11.4 0.5 0
11.7 0.5 0
12 0.5 0
12.3 0.5 0
12.6 0.5 0
12.9 0.5 0
13.2 0.5 0
13.5 0.5 0
13.8 0.5 0
14.1 0.5 0
14.4 0.5 0
14.7 0.5 0
15 0.5 0
15.3 0.5 0
15.6 0.5 0
15.9 0.5 0
16.2 0.5 0
16.5 0.5 0
16.8 0.5 0
17.1 0.5 0
17.4 0.5 0
17.7 0.5 0
18 0.5 0
18.3 0.5 0
18.6 0.5 0
18.9 0.5 0
19.2 0.5 0
19.5 0.5 0
19.8 0.5 0
20.1 0.5 0
20.4 0.5 0
20.7 0.5 0
21 0.5 0
21.3 0.5 0
21.6 0.5 0
21.9 0.5 0
22.2 0.5 0
22.5 0.5 0
22.8 0.5 0
23.1 0.5 0
23.4 0.5 0
23.7 0.5 0
24 0.5 0
24.3 0.5 0
24.6 0.5 0
24.9 0.5 0
25.2 0.5 0
25.5 0.5 0
25.8 0.5 0
26.1 0.5 0
26.4 0.5 0
26.7 0.5 0
27 0.5 0
27.3 0.5 0
27.6 0.5 0
27.9 0.5 0
28.2 0.5 0
28.5 0.5 0
28.8 0.5 0
29.1 0.5 0
29.4 0.5 0
29.7 0.5 0
30 0.5 0
30.3 0.5 0
0 0.6 0
0.3 0.6 0
0.6 0.6 0
0.9 0.6 0
1.2 0.6 0
1.5 0.6 0
1.8 0.6 0
2.1 0.6 0
2.4 0.6 0
2.7 0.6 0
3 0.6 0
3.3 0.6 0
3.6 0.6 0
3.9 0.6 0
4.2 0.6 0
4.5 0.6 0
4.8 0.6 0
5.1 0.6 0
5.4 0.6 0
5.7 0.6 0
6 0.6 0
6.3 0.6 0
6.6 0.6 0
6.9 0.6 0
7.2 0.6 0
7.5 0.6 0
7.8 0.6 0
8.1 0.6 0
8.4 0.6 0
8.7 0.6 0
9 0.6 0
9.3 0.6 0
9.6 0.6 0
9.9 0.6 0
10.2 0.6 0
10.5 0.6 0
10.8 0.6 0
11.1 0.6 0
11.4 0.6 0
11.7 0.6 0
12 0.6 0
12.3 0.6 0
12.6 0.6 0
12.9 0.6 0
13.2 0.6 0
13.5 0.6 0
13.8 0.6 0
14.1 0.6 0
14.4 0.6 0
14.7 0.6 0
15 0.6 0
15.3 0.6 0
15.6 0.6 0
15.9 0.6 0
16.2 0.6 0
16.5 0.6 0
16.8 0.6 0
17.1 0.6 0
17.4 0.6 0
17.7 0.6 0
18 0.6 0
18.3 0.6 0
18.6 0.6 0
18.9 0.6 0
19.2 0.6 0
19.5 0.6 0
19.8 0.6 0
20.1 0.6 0
20.4 0.6 0
20.7 0.6 0
21 0.6 0
21.3 0.6 0
21.6 0.6 0
21.9 0.6 0
22.2 0.6 0
22.5 0.6 0
22.8 0.6 0
23.1 0.6 0
23.4 0.6 0
23.7 0.6 0
24 0.6 0
24.3 0.6 0
24.6 0.6 0
24.9 0.6 0
25.2 0.6 0
25.5 0.6 0
25.8 0.6 0
26.1 0.6 0
26.4 0.6 0
26.7 0.6 0
27 0.6 0
27.3 0.6 0
27.6 0.6 0
27.9 0.6 0
28.2 0.6 0
28.5 0.6 0
28.8 0.6 0
29.1 0.6 0
29.4 0.6 0
29.7 0.6 0
30 0.6 0
30.3 0.6 0
0 0.7 0
0.3 0.7 0
0.6 0.7 0
0.9 0.7 0
1.2 0.7 0
1.5 0.7 0
1.8 0.7 0
2.1 0.7 0
2.4 0.7 0
2.7 0.7 0
3 0.7 0
3.3 0.7 0
3.6 0.7 0
3.9 0.7 0
4.2 0.7 0
4.5 0.7 0
4.8 0.7 0
5.1 0.7 0
5.4 0.7 0
5.7 0.7 0
6 0.7 0
6.3 0.7 0
6.6 0.7 0
6.9 0.7 0
7.2 0.7 0
7.5 0.7 0
7.8 0.7 0
8.1 0.7 0
8.4 0.7 0
8.7 0.7 0
9 0.7 0
9.3 0.7 0
9.6 0.7 0
9.9 0.7 0
10.2 0.7 0
10.5 0.7 0
10.8 0.7 0
11.1 0.7 0
11.4 0.7 0
11.7 0.7 0
12 0.7 0
12.3 0.7 0
12.6 0.7 0
12.9 0.7 0
13.2 0.7 0
13.5 0.7 0
13.8 0.7 0
14.1 0.7 0
14.4 0.7 0
14.7 0.7 0
15 0.7 0
15.3 0.7 0
15.6 0.7 0
15.9 0.7 0
16.2 0.7 0
16.5 0.7 0
16.8 0.7 0
17.1 0.7 0
17.4 0.7 0
17.7 0.7 0
18 0.7 0
18.3 0.7 0
18.6 0.7 0
18.9 0.7 0
19.2 0.7 0
19.5 0.7 0
19.8 0.7 0
20.1 0.7 0
20.4 0.7 0
20.7 0.7 0
21 0.7 0
21.3 0.7 0
21.6 0.7 0
21.9 0.7 0
22.2 0.7 0
22.5 0.7 0
22.8 0.7 0
23.1 0.7 0
23.4 0.7 0
23.7 0.7 0
24 0.7 0
24.3 0.7 0
24.6 0.7 0
24.9 0.7 0
25.2 0.7 0
25.5 0.7 0
25.8 0.7 0
26.1 0.7 0
26.4 0.7 0
26.7 0.7 0
27 0.7 0
27.3 0.7 0
27.6 0.7 0
27.9 0.7 0
28.2 0.7 0
28.5 0.7 0
28.8 0.7 0
29.1 0.7 0
29.4 0.7 0
29.7 0.7 0
30 0.7 0
30.3 0.7 0
0 0.8 0
0.3 0.8 0
0.6 0.8 0
0.9 0.8 0
1.2 0.8 0
1.5 0.8 0
1.8 0.8 0
2.1 0.8 0
2.4 0.8 0
2.7 0.8 0
3 0.8 0
3.3 0.8 0
3.6 0.8 0
3.9 0.8 0
4.2 0.8 0
4.5 0.8 0
4.8 0.8 0
5.1 0.8 0
5.4 0.8 0
5.7 0.8 0
6 0.8 0
6.3 0.8 0
6.6 0.8 0
6.9 0.8 0
7.2 0.8 0
7.5 0.8 0
7.8 0.8 0
8.1 0.8 0
8.4 0.8 0
8.7 0.8 0
9 0.8 0
9.3 0.8 0
9.6 0.8 0
9.9 0.8 0
10.2 0.8 0
10.5 0.8 0
10.8 0.8 0
11.1 0.8 0
11.4 0.8 0
11.7 0.8 0
12 0.8 0
12.3 0.8 0
12.6 0.8 0
12.9 0.8 0
13.2 0.8 0
13.5 0.8 0
13.8 0.8 0
14.1 0.8 0
14.4 0.8 0
14.7 0.8 0
15 0.8 0
15.3 0.8 0
15.6 0.8 0
15.9 0.8 0
16.2 0.8 0
16.5 0.8 0
16.8 0.8 0
17.1 0.8 0
17.4 0.8 0
17.7 0.8 0
18 0.8 0
18.3 0.8 0
18.6 0.8 0
18.9 0.8 0
19.2 0.8 0
19.5 0.8 0
19.8 0.8 0
20.1 0.8 0
20.4 0.8 0
20.7 0.8 0
21 0.8 0
21.3 0.8 0
21.6 0.8 0
21.9 0.8 0
22.2 0.8 0
22.5 0.8 0
22.8 0.8 0
23.1 0.8 0
23.4 0.8 0
23.7 0.8 0
24 0.8 0
24.3 0.8 0
24.6 0.8 0
24.9 0.8 0
25.2 0.8 0
25.5 0.8 0
25.8 0.8 0
26.1 0.8 0
26.4 0.8 0
26.7 0.8 0
27 0.8 0
27.3 0.8 0
27.6 0.8 0
27.9 0.8 0
28.2 0.8 0
28.5 0.8 0
28.8 0.8 0
29.1 0.8 0
29.4 0.8 0
29.7 0.8 0
30 0.8 0
30.3 0.8 0
0 0.9 0
0.3 0.9 0
0.6 0.9 0
0.9 0.9 0
1.2 0.9 0
1.5 0.9 0
1.8 0.9 0
2.1 0.9 0
2.4 0.9 0
2.7 0.9 0
3 0.9 0
3.3 0.9 0
3.6 0.9 0
3.9 0.9 0
4.2 0.9 0
4.5 0.9 0
4.8 0.9 0
5.1 0.9 0
5.4 0.9 0
5.7 0.9 0
6 0.9 0
6.3 0.9 0
6.6 0.9 0
6.9 0.9 0
7.2 0.9 0
7.5 0.9 0
7.8 0.9 0
8.1 0.9 0
8.4 0.9 0
8.7 0.9 0
9 0.9 0
9.3 0.9 0
9.6 0.9 0
9.9 0.9 0
10.2 0.9 0
10.5 0.9 0
10.8 0.9 0
11.1 0.9 0
11.4 0.9 0
11.7 0.9 0
12 0.9 0
12.3 0.9 0
12.6 0.9 0
12.9 0.9 0
13.2 0.9 0
13.5 0.9 0
13.8 0.9 0
14.1 0.9 0
14.4 0.9 0
14.7 0.9 0
15 0.9 0
15.3 0.9 0
15.6 0.9 0
15.9 0.9 0
16.2 0.9 0
16.5 0.9 0
16.8 0.9 0
17.1 0.9 0
17.4 0.9 0
17.7 0.9 0
18 0.9 0
18.3 0.9 0
18.6 0.9 0
18.9 0.9 0
19.2 0.9 0
19.5 0.9 0
19.8 0.9 0
20.1 0.9 0
20.4 0.9 0
20.7 0.9 0
21 0.9 0
21.3 0.9 0
21.6 0.9 0
21.9 0.9 0
22.2 0.9 0
22.5 0.9 0
22.8 0.9 0
23.1 0.9 0
23.4 0.9 0
23.7 0.9 0
24 0.9 0
24.3 0.9 0
24.6 0.9 0
24.9 0.9 0
25.2 0.9 0
25.5 0.9 0
25.8 0.9 0
26.1 0.9 0
26.4 0.9 0
26.7 0.9 0
27 0.9 0
27.3 0.9 0
27.6 0.9 0
27.9 0.9 0
28.2 0.9 0
28.5 0.9 0
28.8 0.9 0
29.1 0.9 0
29.4 0.9 0
29.7 0.9 0
30 0.9 0
30.3 0.9 0
0 1 0
0.3 1 0
0.6 1 0
0.9 1 0
1.2 1 0
1.5 1 0
1.8 1 0
2.1 1 0
2.4 1 0
2.7 1 0
3 1 0
3.3 1 0
3.6 1 0
3.9 1 0
4.2 1 0
4.5 1 0
4.8 1 0
5.1 1 0
5.4 1 0
5.7 1 0
6 1 0
6.3 1 0
6.6 1 0
6.9 1 0
7.2 1 0
7.5 1 0
7.8 1 0
8.1 1 0
8.4 1 0
8.7 1 0
9 1 0
9.3 1 0
9.6 1 0
9.9 1 0
10.2 1 0
10.5 1 0
10.8 1 0
11.1 1 0
11.4 1 0
11.7 1 0
12 1 0
12.3 1 0
12.6 1 0
12.9 1 0
13.2 1 0
13.5 1 0
13.8 1 0
14.1 1 0
14.4 1 0
14.7 1 0
15 1 0
15.3 1 0
15.6 1 0
15.9 1 0
16.2 1 0
16.5 1 0
16.8 1 0
17.1 1 0
17.4 1 0
17.7 1 0
18 1 0
18.3 1 0
18.6 1 0
18.9 1 0
19.2 1 0
19.5 1 0
19.8 1 0
20.1 1 0
20.4 1 0
20.7 1 0
21 1 0
21.3 1 0
21.6 1 0
21.9 1 0
22.2 1 0
22.5 1 0
22.8 1 0
23.1 1 0
23.4 1 0
23.7 1 0
24 1 0
24.3 1 0
24.6 1 0
24.9 1 0
25.2 1 0
25.5 1 0
25.8 1 0
26.1 1 0
26.4 1 0
26.7 1 0
27 1 0
27.3 1 0
27.6 1 0
27.9 1 0
28.2 1 0
28.5 1 0
28.8 1 0
29.1 1 0
29.4 1 0
29.7 1 0
30 1 0
30.3 1 0
0 1.1 0
0.3 1.1 0
0.6 1.1 0
0.9 1.1 0
1.2 1.1 0
1.5 1.1 0
1.8 1.1 0
2.1 1.1 0
2.4 1.1 0
2.7 1.1 0
3 1.1 0
3.3 1.1 0
3.6 1.1 0
3.9 1.1 0
4.2 1.1 0
4.5 1.1 0
4.8 1.1 0
5.1 1.1 0
5.4 1.1 0
5.7 1.1 0
6 1.1 0
6.3 1.1 0
6.6 1.1 0
6.9 1.1 0
7.2 1.1 0
7.5 1.1 0
7.8 1.1 0
8.1 1.1 0
8.4 1.1 0
8.7 1.1 0
9 1.1 0
9.3 1.1 0
9.6 1.1 0
9.9 1.1 0
10.2 1.1 0
10.5 1.1 0
10.8 1.1 0
11.1 1.1 0
11.4 1.1 0
11.7 1.1 0
12 1.1 0
12.3 1.1 0
12.6 1.1 0
12.9 1.1 0
13.2 1.1 0
13.5 1.1 0
13.8 1.1 0
14.1 1.1 0
14.4 1.1 0
14.7 1.1 0
15 1.1 0
15.3 1.1 0
15.6 1.1 0
15.9 1.1 0
16.2 1.1 0
16.5 1.1 0
16.8 1.1 0
17.1 1.1 0
17.4 1.1 0
17.7 1.1 0
18 1.1 0
18.3 1.1 0
18.6 1.1 0
18.9 1.1 0
19.2 1.1 0
19.5 1.1 0
19.8 1.1 0
20.1 1.1 0
20.4 1.1 0
20.7 1.1 0
21 1.1 0
21.3 1.1 0
21.6 1.1 0
21.9 1.1 0
22.2 1.1 0
22.5 1.1 0
22.8 1.1 0
23.1 1.1 0
23.4 1.1 0
23.7 1.1 0
24 1.1 0
24.3 1.1 0
24.6 1.1 0
24.9 1.1 0
25.2 1.1 0
25.5 1.1 0
25.8 1.1 0
26.1 1.1 0
26.4 1.1 0
26.7 1.1 0
27 1.1 0
27.3 1.1 0
27.6 1.1 0
27.9 1.1 0
28.2 1.1 0
28.5 1.1 0
28.8 1.1 0
29.1 1.1 0
29.4 1.1 0
29.7 1.1 0
30 1.1 0
30.3 1.1 0

POINT_DATA 1224

SCALARS pressure double
LOOKUP_TABLE pressure
1.32667
1.32667
1.26016
1.21308
1.17013
1.13048
1.09445
1.06207
1.03297
1.00663
0.98252
0.960168
0.939195
0.919313
0.900307
0.882018
0.864326
0.847145
0.830406
0.814056
0.798052
0.782359
0.766948
0.751795
0.736877
0.722179
0.707685
0.693385
0.679272
0.665339
0.651583
0.638
0.624583
0.611328
0.598224
0.585261
0.572426
0.559702
0.547076
0.53453
0.52205
0.509624
0.497238
0.484883
0.47255
0.460235
0.44793
0.435634
0.423343
0.411056
0.398771
0.386487
0.374205
0.361922
0.34964
0.337359
0.325077
0.312795
0.300514
0.288232
0.275951
0.263669
0.251388
0.239106
0.226825
0.214543
0.202262
0.18998
0.177699
0.165417
0.153136
0.140854
0.128572
0.116291
0.104009
0.091728
0.0794464
0.0671649
0.0548834
0.0426019
0.0303204
0.0180389
0.00575737
-0.00652413
-0.0188056
-0.0310871
-0.0433686
-0.0556501
-0.0679316
-0.0802131
-0.0924946
-0.104776
-0.117058
-0.129339
-0.141621
-0.153902
-0.166184
-0.178465
-0.190746
-0.203028
-0.215296
0.215296
1.32667
1.32667
1.26016
1.21308
1.17013
1.13048
1.09445
1.06207
1.03297
1.00663
0.98252
0.960168
0.939195
0.919313
0.900307
0.882018
0.864326
0.847145
0.830406
0.814056
0.798052
0.782359
0.766948
0.751795
0.736877
0.722179
0.707685
0.693385
0.679272
0.665339
0.651583
0.638
0.624583
0.611328
0.598224
0.585261
0.572426
0.559702
0.547076
0.53453
0.52205
0.509624
0.497238
0.484883
0.47255
0.460235
0.44793
0.435634
0.423343
0.411056
0.398771
0.386487
0.374205
0.361922
0.34964
0.337359
0.325077
0.312795
0.300514
0.288232
0.275951
0.263669
0.251388
0.239106
0.226825
0.214543
0.202262
0.18998
0.177699
0.165417
0.153136
0.140854
0.128572
0.116291
0.104009
0.091728
0.0794464
0.0671649
0.0548834
0.0426019
0.0303204
0.0180389
0.00575737
-0.00652413
-0.0188056
-0.0310871
-0.0433686
-0.0556501
-0.0679316
-0.0802131
-0.0924946
-0.104776
-0.117058
-0.129339
-0.141621
-0.153902
-0.166184
-0.178465
-0.190746
-0.203028
-0.215296
0.215296
1.30602
1.30602
1.25837
1.2134
1.17085
1.13125
1.09516
1.06266
1.03344
1.007
0.982806
0.960389
0.939368
0.919451
0.900418
0.88211
0.864404
0.847211
0.830464
0.814106
0.798097
0.782399
0.766985
0.751828
0.736907
0.722205
0.707709
0.693406
0.67929
0.665355
0.651596
0.63801
0.624591
0.611334
0.598228
0.585264
0.572427
0.559703
0.547075
0.534529
0.52205
0.509623
0.497237
0.484882
0.47255
0.460234
0.44793
0.435634
0.423343
0.411056
0.398771
0.386487
0.374205
0.361922
0.34964
0.337359
0.325077
0.312795
0.300514
0.288232
0.275951
0.263669
0.251388
0.239106
0.226825
0.214543
0.202262
0.18998
0.177699
0.165417
0.153136
0.140854
0.128572
0.116291
0.104009
0.0917279
0.0794464
0.0671649
0.0548834
0.0426019
0.0303204
0.0180389
0.00575737
-0.00652413
-0.0188056
-0.0310871
-0.0433686
-0.0556501
-0.0679316
-0.0802131
-0.0924946
-0.104776
-0.117058
-0.129339
-0.141621
-0.153902
-0.166184
-0.178465
-0.190746
-0.203028
-0.215296
0.215296
1.29164
1.29164
1.25586
1.21379
1.17198
1.13251
1.09633
1.06365
1.03423
1.00761
0.983262
0.960729
0.939623
0.919645
0.900568
0.882228
0.864499
0.84729
0.830529
0.814163
0.798145
0.782442
0.767022
0.751861
0.736936
0.722231
0.707732
0.693427
0.679309
0.665371
0.65161
0.638021
0.624601
0.611341
0.598234
0.585268
0.57243
0.559705
0.547077
0.53453
0.52205
0.509623
0.497237
0.484882
0.47255
0.460234
0.44793
0.435634
0.423343
0.411056
0.398771
0.386487
0.374205
0.361922
0.34964
0.337359
0.325077
0.312795
0.300514
0.288232
0.275951
0.263669
0.251388
0.239106
0.226825
0.214543
0.202262
0.18998
0.177699
0.165417
0.153136
0.140854
0.128572
0.116291
0.104009
0.0917279
0.0794464
0.0671649
0.0548834
0.0426019
0.0303204
0.0180389
0.00575737
-0.00652413
-0.0188056
-0.0310871
-0.0433686
-0.0556501
-0.0679316
-0.0802131
-0.0924946
-0.104776
-0.117058
-0.129339
-0.141621
-0.153902
-0.166184
-0.178464
-0.190745
-0.203024
-0.215293
0.215293
1.28295
1.28295
1.25385
1.21405
1.1729
1.13359
1.09736
1.06455
1.03497
1.00819
0.983711
0.961074
0.93989
0.919853
0.900733
0.882361
0.864609
0.847382
0.830607
0.814229
0.798203
0.782493
0.767067
0.7519
0.736972
0.722264
0.707761
0.693454
0.679333
0.665394
0.651631
0.638041
0.624618
0.611357
0.598248
0.58528
0.57244
0.559713
0.547083
0.534535
0.522054
0.509626
0.497239
0.484883
0.472551
0.460235
0.44793
0.435634
0.423343
0.411056
0.398771
0.386487
0.374205
0.361922
0.34964
0.337359
0.325077
0.312795
0.300514
0.288232
0.275951
0.263669
0.251388
0.239106
0.226825
0.214543
0.202262
0.18998
0.177699
0.165417
0.153136
0.140854
0.128572
0.116291
0.104009
0.0917279
0.0794464
0.0671649
0.0548834
0.0426019
0.0303204
0.0180389
0.00575737
-0.00652413
-0.0188056
-0.0310871
-0.0433686
-0.0556501
-0.0679316
-0.0802131
-0.0924946
-0.104776
-0.117058
-0.129339
-0.141621
-0.153902
-0.166183
-0.178464
-0.190744
-0.203014
-0.215288
0.215288
1.27887
1.27887
1.25277
1.21417
1.1734
1.13418
1.09793
1.06505
1.03538
1.00852
0.983974
0.961281
0.940053
0.919983
0.900839
0.882448
0.864682
0.847444
0.830661
0.814276
0.798244
0.782529
0.767099
0.75193
0.736999
0.722288
0.707784
0.693475
0.679353
0.665412
0.651648
0.638057
0.624633
0.611371
0.59826
0.585291
0.572449
0.559721
0.54709
0.53454
0.522058
0.509629
0.497241
0.484885
0.472552
0.460236
0.447931
0.435635
0.423344
0.411056
0.398771
0.386487
0.374205
0.361922
0.34964
0.337359
0.325077
0.312795
0.300514
0.288232
0.275951
0.263669
0.251388
0.239106
0.226825
0.214543
0.202262
0.18998
0.177699
0.165417
0.153136
0.140854
0.128572
0.116291
0.104009
0.091728
0.0794464
0.0671649
0.0548834
0.0426019
0.0303204
0.0180389
0.00575737
-0.00652413
-0.0188056
-0.0310871
-0.0433686
-0.0556501
-0.0679316
-0.0802131
-0.0924946
-0.104776
-0.117058
-0.129339
-0.141621
-0.153902
-0.166183
-0.178464
-0.190742
-0.203006
-0.215285
0.215285
1.27887
1.27887
1.25277
1.21417
1.1734
1.13418
1.09793
1.06505
1.03538
1.00852
0.983974
0.961281
0.940053
0.919983
0.900839
0.882448
0.864682
0.847444
0.830661
0.814276
0.798244
0.782529
0.767099
0.75193
0.736999
0.722288
0.707784
0.693475
0.679353
0.665412
0.651648
0.638057
0.624633
0.611371
0.59826
0.585291
0.572449
0.559721
0.54709
0.53454
0.522058
0.509629
0.497241
0.484885
0.472552
0.460236
0.447931
0.435635
0.423344
0.411056
0.398771
0.386487
0.374205
0.361922
0.34964
0.337359
0.325077
0.312795
0.300514
0.288232
0.275951
0.263669
0.251388
0.239106
0.226825
0.214543
0.202262
0.18998
0.177699
0.165417
0.153136
0.140854
0.128572
0.116291
0.104009
0.091728
0.0794464
0.0671649
0.0548834
0.0426019
0.0303204
0.0180389
0.00575737
-0.00652413
-0.0188056
-0.0310871
-0.0433686
-0.0556501
-0.0679316
-0.0802131
-0.0924946
-0.104776
-0.117058
-0.129339
-0.141621
-0.153902
-0.166183
-0.178464
-0.190742
-0.203006
-0.215285
0.215285
1.28295
1.28295
1.25385
1.21405
1.1729
1.13359
1.09736
1.06455
1.03497
1.00819
0.983711
0.961074
0.93989
0.919853
0.900733
0.882361
0.864609
0.847382
0.830607
0.814229
0.798203
0.782493
0.767067
0.7519
0.736972
0.722264
0.707761
0.693454
0.679333
0.665394
0.651631
0.638041
0.624618
0.611357
0.598248
0.58528
0.57244
0.559713
0.547083
0.534535
0.522054
0.509626
0.497239
0.484883
0.472551
0.460235
0.44793
0.435634
0.423343
0.411056
0.398771
0.386487
0.374205
0.361922
0.34964
0.337359
0.325077
0.312795
0.300514
0.288232
0.275951
0.263669
0.251388
0.239106
0.226825
0.214543
0.202262
0.18998
0.177699
0.165417
0.153136
0.140854
0.128572
0.116291
0.104009
0.091728
0.0794464
0.0671649
0.0548834
0.0426019
0.0303204
0.0180389
0.00575738
-0.00652413
-0.0188056
-0.0310871
-0.0433686
-0.0556501
-0.0679316
-0.0802131
-0.0924946
-0.104776
-0.117058
-0.129339
-0.141621
-0.153902
-0.166183
-0.178464
-0.190744
-0.203014
-0.215288
0.215288
1.29164
1.29164
1.25586
1.21379
1.17198
1.13251
1.09633
1.06365
1.03423
1.00761
0.983262
0.960729
0.939623
0.919645
0.900568
0.882228
0.864499
0.84729
0.830529
0.814163
0.798145
0.782442
0.767022
0.751861
0.736936
0.722232
0.707732
0.693427
0.679309
0.665371
0.65161
0.638021
0.624601
0.611341
0.598234
0.585268
0.57243
0.559705
0.547077
0.53453
0.52205
0.509623
0.497237
0.484882
0.47255
0.460234
0.44793
0.435634
0.423343
0.411056
0.398771
0.386487
0.374205
0.361922
0.34964
0.337359
0.325077
0.312795
0.300514
0.288232
0.275951
0.263669
0.251388
0.239106
0.226825
0.214543
0.202262
0.18998
0.177699
0.165417
0.153136
0.140854
0.128572
0.116291
0.104009
0.091728
0.0794464
0.0671649
0.0548834
0.0426019
0.0303204
0.0180389
0.00575738
-0.00652413
-0.0188056
-0.0310871
-0.0433686
-0.0556501
-0.0679316
-0.0802131
-0.0924946
-0.104776
-0.117058
-0.129339
-0.141621
-0.153902
-0.166184
-0.178464
-0.190745
-0.203024
-0.215293
0.215293
1.30602
1.30602
1.25837
1.2134
1.17085
1.13125
1.09516
1.06266
1.03344
1.007
0.982806
0.960389
0.939368
0.919451
0.900418
0.88211
0.864404
0.847211
0.830464
0.814106
0.798097
0.782399
0.766985
0.751828
0.736907
0.722205
0.707709
0.693406
0.67929
0.665355
0.651596
0.63801
0.624591
0.611334
0.598228
0.585264
0.572427
0.559703
0.547075
0.534529
0.52205
0.509623
0.497237
0.484882
0.47255
0.460234
0.44793
0.435634
0.423343
0.411056
0.398771
0.386487
0.374205
0.361922
0.34964
0.337359
0.325077
0.312795
0.300514
0.288232
0.275951
0.263669
0.251388
0.239106
0.226825
0.214543
0.202262
0.18998
0.177699
0.165417
0.153136
0.140854
0.128572
0.116291
0.104009
0.091728
0.0794464
0.0671649
0.0548834
0.0426019
0.0303204
0.0180389
0.00575738
-0.00652413
-0.0188056
-0.0310871
-0.0433686
-0.0556501
-0.0679316
-0.0802131
-0.0924946
-0.104776
-0.117058
-0.129339
-0.141621
-0.153902
-0.166184
-0.178465
-0.190746
-0.203028
-0.215296
0.215296
1.32667
1.32667
1.26016
1.21308
1.17013
1.13048
1.09445
1.06207
1.03297
1.00663
0.98252
0.960168
0.939195
0.919313
0.900307
0.882018
0.864326
0.847145
0.830406
0.814056
0.798052
0.782359
0.766948
0.751795
0.736877
0.722179
0.707685
0.693385
0.679272
0.665339
0.651583
0.638
0.624583
0.611328
0.598224
0.585261
0.572426
0.559702
0.547076
0.53453
0.52205
0.509624
0.497238
0.484883
0.47255
0.460235
0.44793
0.435634
0.423343
0.411056
0.398771
0.386487
0.374205
0.361922
0.34964
0.337359
0.325077
0.312795
0.300514
0.288232
0.275951
0.263669
0.251388
0.239106
0.226825
0.214543
0.202262
0.18998
0.177699
0.165417
0.153136
0.140854
0.128572
0.116291
0.104009
0.091728
0.0794464
0.0671649
0.0548834
0.0426019
0.0303204
0.0180389
0.00575738
-0.00652413
-0.0188056
-0.0310871
-0.0433686
-0.0556501
-0.0679316
-0.0802131
-0.0924946
-0.104776
-0.117058
-0.129339
-0.141621
-0.153902
-0.166184
-0.178465
-0.190746
-0.203028
-0.215296
0.215296
1.32667
1.32667
1.26016
1.21308
1.17013
1.13048
1.09445
1.06207
1.03297
1.00663
0.98252
0.960168
0.939195
0.919313
0.900307
0.882018
0.864326
0.847145
0.830406
0.814056
0.798052
0.782359
0.766948
0.751795
0.736877
0.722179
0.707685
0.693385
0.679272
0.665339
0.651583
0.638
0.624583
0.611328
0.598224
0.585261
0.572426
0.559702
0.547076
0.53453
0.52205
0.509624
0.497238
0.484883
0.47255
0.460235
0.44793
0.435634
0.423343
0.411056
0.398771
0.386487
0.374205
0.361922
0.34964
0.337359
0.325077
0.312795
0.300514
0.288232
0.275951
0.263669
0.251388
0.239106
0.226825
0.214543
0.202262
0.18998
0.177699
0.165417
0.153136
0.140854
0.128572
0.116291
0.104009
0.091728
0.0794464
0.0671649
0.0548834
0.0426019
0.0303204
0.0180389
0.00575738
-0.00652413
-0.0188056
-0.0310871
-0.0433686
-0.0556501
-0.0679316
-0.0802131
-0.0924946
-0.104776
-0.117058
-0.129339
-0.141621
-0.153902
-0.166184
-0.178465
-0.190746
-0.203028
-0.215296
0.215296
SCALARS phi double
LOOKUP_TABLE phi
1
1
1
0.999995
0.999977
0.999931
0.99983
0.999658
0.999373
0.998892
0.998257
0.997703
0.997171
0.995548
0.990514
0.979309
0.959877
0.931578
0.895161
0.852241
0.804701
0.754278
0.702396
0.65015
0.598368
0.547672
0.49853
0.451285
0.406186
0.363406
0.32306
0.285222
0.249941
0.217246
0.187156
0.15968
0.134815
0.112539
0.0928106
0.0755571
0.0606758
0.0480309
0.037456
0.0287592
0.021731
0.0161529
0.011807
0.0084846
0.00599279
0.00415972
0.00283719
0.00190141
0.00125202
0.000810029
0.000514945
0.000321677
0.000197476
0.000119149
7.06645e-05
4.12005e-05
2.36187e-05
1.33147e-05
7.3823e-06
4.02636e-06
2.16055e-06
1.14084e-06
5.92873e-07
3.03288e-07
1.5275e-07
7.57552e-08
3.7002e-08
1.7803e-08
8.439e-09
3.94176e-09
1.81453e-09
8.23351e-10
3.68316e-10
1.62458e-10
7.06669e-11
3.03187e-11
1.28319e-11
5.35824e-12
2.20784e-12
8.97822e-13
3.60371e-13
1.42793e-13
5.58628e-14
2.158e-14
8.23289e-15
3.10227e-15
1.15475e-15
4.24651e-16
1.54299e-16
5.54029e-17
1.96603e-17
6.89585e-18
2.39095e-18
8.19595e-19
2.77759e-19
9.3296e-20
2.90072e-20
2.90072e-20
1
1
1
0.999995
0.999977
0.999931
0.99983
0.999658
0.999373
0.998892
0.998257
0.997703
0.997171
0.995548
0.990514
0.979309
0.959877
0.931578
0.895161
0.852241
0.804701
0.754278
0.702396
0.65015
0.598368
0.547672
0.49853
0.451285
0.406186
0.363406
0.32306
0.285222
0.249941
0.217246
0.187156
0.15968
0.134815
0.112539
0.0928106
0.0755571
0.0606758
0.0480309
0.037456
0.0287592
0.021731
0.0161529
0.011807
0.0084846
0.00599279
0.00415972
0.00283719
0.00190141
0.00125202
0.000810029
0.000514945
0.000321677
0.000197476
0.000119149
7.06645e-05
4.12005e-05
2.36187e-05
1.33147e-05
7.3823e-06
4.02636e-06
2.16055e-06
1.14084e-06
5.92873e-07
3.03288e-07
1.5275e-07
7.57552e-08
3.7002e-08
1.7803e-08
8.439e-09
3.94176e-09
1.81453e-09
8.23351e-10
3.68316e-10
1.62458e-10
7.06669e-11
3.03187e-11
1.28319e-11
5.35824e-12
2.20784e-12
8.97822e-13
3.60371e-13
1.42793e-13
5.58628e-14
2.158e-14
8.23289e-15
3.10227e-15
1.15475e-15
4.24651e-16
1.54299e-16
5.54029e-17
1.96603e-17
6.89585e-18
2.39095e-18
8.19595e-19
2.77759e-19
9.3296e-20
2.90072e-20
2.90072e-20
0.999998
1
0.999984
0.999921
0.999783
0.999536
0.999145
0.99858
0.997815
0.996818
0.99557
0.994111
0.992505
0.990664
0.988141
0.984072
0.977343
0.966882
0.951918
0.932105
0.907513
0.878532
0.845756
0.809876
0.771611
0.731652
0.690632
0.649098
0.607503
0.566197
0.525429
0.485361
0.44609
0.407669
0.37014
0.333563
0.298036
0.263713
0.230802
0.19956
0.170269
0.143204
0.118607
0.0966563
0.0774453
0.060973
0.0471455
0.0357878
0.026662
0.0194906
0.013979
0.00983594
0.00678957
0.00459802
0.00305517
0.00199198
0.0012746
0.000800528
0.000493587
0.000298826
0.000177674
0.00010377
5.95454e-05
3.35776e-05
1.86109e-05
1.01414e-05
5.43411e-06
2.86389e-06
1.48482e-06
7.57477e-07
3.80308e-07
1.87957e-07
9.14592e-08
4.38256e-08
2.06844e-08
9.61735e-09
4.40602e-09
1.98928e-09
8.85281e-10
3.88399e-10
1.6802e-10
7.16805e-11
3.01628e-11
1.25211e-11
5.12837e-12
2.07277e-12
8.2684e-13
3.25578e-13
1.26565e-13
4.85799e-14
1.84139e-14
6.89347e-15
2.54912e-15
9.31234e-16
3.36122e-16
1.19884e-16
4.2257e-17
1.47222e-17
5.06963e-18
1.73025e-18
5.44693e-19
5.44693e-19
1.00001
0.999992
0.99954
0.998615
0.997207
0.995317
0.992954
0.990144
0.986922
0.983332
0.97942
0.975236
0.97084
0.966284
0.961566
0.956585
0.951119
0.944843
0.937374
0.928332
0.917393
0.904318
0.888972
0.871318
0.851411
0.82938
0.805415
0.779739
0.752593
0.724212
0.694794
0.664488
0.633366
0.601422
0.568574
0.534692
0.499636
0.463312
0.425733
0.38706
0.347639
0.307994
0.268795
0.230796
0.194762
0.161384
0.131216
0.104625
0.0817776
0.0626405
0.0470133
0.0345697
0.0249043
0.0175785
0.012158
0.008241
0.00547534
0.00356651
0.0022781
0.00142726
0.000877274
0.000529154
0.000313295
0.000182121
0.000103972
5.8308e-05
3.21299e-05
1.74007e-05
9.26423e-06
4.84999e-06
2.49727e-06
1.26498e-06
6.30518e-07
3.09314e-07
1.49379e-07
7.10321e-08
3.32652e-08
1.53455e-08
6.97453e-09
3.12374e-09
1.37894e-09
6.0007e-10
2.57469e-10
1.08941e-10
4.54646e-11
1.87173e-11
7.60281e-12
3.04741e-12
1.20554e-12
4.70756e-13
1.81481e-13
6.90804e-14
2.59672e-14
9.64056e-15
3.53544e-15
1.28088e-15
4.58508e-16
1.6219e-16
5.6694e-17
1.96392e-17
6.26277e-18
6.26277e-18
1.00143
0.99857
0.991252
0.98188
0.971566
0.96086
0.950051
0.939311
0.928756
0.918468
0.908503
0.898897
0.88967
0.880829
0.87237
0.86427
0.85648
0.848917
0.841463
0.833976
0.826291
0.818238
0.809651
0.800378
0.790289
0.77928
0.767277
0.754234
0.740138
0.724997
0.708833
0.691668
0.673495
0.654257
0.633813
0.611928
0.588267
0.562435
0.534029
0.50273
0.468392
0.431126
0.391343
0.349759
0.307339
0.265201
0.224495
0.186282
0.151431
0.120545
0.0939434
0.0716631
0.0535082
0.0391073
0.0279803
0.0196008
0.0134464
0.0090354
0.00594849
0.00383796
0.00242743
0.00150547
0.000915792
0.000546575
0.000320151
0.000184093
0.000103949
5.76528e-05
3.14167e-05
1.68251e-05
8.85772e-06
4.5853e-06
2.33454e-06
1.16931e-06
5.76312e-07
2.79565e-07
1.33507e-07
6.27797e-08
2.90748e-08
1.32645e-08
5.96245e-09
2.64124e-09
1.15325e-09
4.96421e-10
2.10702e-10
8.81972e-11
3.64153e-11
1.4833e-11
5.96156e-12
2.36454e-12
9.25673e-13
3.57731e-13
1.36492e-13
5.14251e-14
1.91346e-14
7.03231e-15
2.55312e-15
9.15791e-16
3.24551e-16
1.13968e-16
3.67948e-17
3.67948e-17
1.0456
0.954401
0.887723
0.838674
0.801641
0.772861
0.749886
0.731119
0.715499
0.702298
0.691001
0.681228
0.672693
0.665173
0.658494
0.652517
0.647127
0.642226
0.637723
0.633534
0.629572
0.62575
0.621981
0.618175
0.614241
0.610093
0.605646
0.600823
0.595556
0.589792
0.583489
0.576614
0.569131
0.560974
0.552018
0.542043
0.530701
0.517521
0.501929
0.483327
0.461186
0.435171
0.40524
0.371714
0.335285
0.296959
0.257952
0.219552
0.182973
0.149237
0.119088
0.0929579
0.0709763
0.0530112
0.0387348
0.0276945
0.0193793
0.0132754
0.0089051
0.00585118
0.00376696
0.00237694
0.00147048
0.000892174
0.000531037
0.000310184
0.000177854
0.000100135
5.53747e-05
3.00861e-05
1.60646e-05
8.43217e-06
4.35199e-06
2.20917e-06
1.10323e-06
5.4214e-07
2.62218e-07
1.24859e-07
5.85433e-08
2.70353e-08
1.22991e-08
5.51305e-09
2.43541e-09
1.06047e-09
4.5525e-10
1.92712e-10
8.04547e-11
3.31323e-11
1.34612e-11
5.39658e-12
2.13513e-12
8.33815e-13
3.21454e-13
1.22359e-13
4.59924e-14