# vtk DataFile Version 3.0
FlowField
ASCII
DATASET STRUCTURED_GRID
DIMENSIONS 22 17 12 
POINTS 4488 double
0 0 0
5 0 0
10 0 0
15 0 0
20 0 0
25 0 0
30 0 0
35 0 0
40 0 0
45 0 0
50 0 0
55 0 0
60 0 0
65 0 0
70 0 0
75 0 0
80 0 0
85 0 0
90 0 0
95 0 0
100 0 0
105 0 0
0 1 0
5 1 0
10 1 0
15 1 0
20 1 0
25 1 0
30 1 0
35 1 0
40 1 0
45 1 0
50 1 0
55 1 0
60 1 0
65 1 0
70 1 0
75 1 0
80 1 0
85 1 0
90 1 0
95 1 0
100 1 0
105 1 0
0 2 0
5 2 0
10 2 0
15 2 0
20 2 0
25 2 0
30 2 0
35 2 0
40 2 0
45 2 0
50 2 0
55 2 0
60 2 0
65 2 0
70 2 0
75 2 0
80 2 0
85 2 0
90 2 0
95 2 0
100 2 0
105 2 0
0 3 0
5 3 0
10 3 0
15 3 0
20 3 0
25 3 0
30 3 0
35 3 0
40 3 0
45 3 0
50 3 0
55 3 0
60 3 0
65 3 0
70 3 0
75 3 0
80 3 0
85 3 0
90 3 0
95 3 0
100 3 0
105 3 0
0 4 0
5 4 0
10 4 0
15 4 0
20 4 0
25 4 0
30 4 0
35 4 0
40 4 0
45 4 0
50 4 0
55 4 0
60 4 0
65 4 0
70 4 0
75 4 0
80 4 0
85 4 0
90 4 0
95 4 0
100 4 0
105 4 0
0 5 0
5 5 0
10 5 0
15 5 0
20 5 0
25 5 0
30 5 0
35 5 0
40 5 0
45 5 0
50 5 0
55 5 0
60 5 0
65 5 0
70 5 0
75 5 0
80 5 0
85 5 0
90 5 0
95 5 0
100 5 0
105 5 0
0 6 0
5 6 0
10 6 0
15 6 0
20 6 0
25 6 0
30 6 0
35 6 0
40 6 0
45 6 0
50 6 0
55 6 0
60 6 0
65 6 0
70 6 0
75 6 0
80 6 0
85 6 0
90 6 0
95 6 0
100 6 0
105 6 0
0 7 0
5 7 0
10 7 0
15 7 0
20 7 0
25 7 0
30 7 0
35 7 0
40 7 0
45 7 0
50 7 0
55 7 0
60 7 0
65 7 0
70 7 0
75 7 0
80 7 0
85 7 0
90 7 0
95 7 0
100 7 0
105 7 0
0 8 0
5 8 0
10 8 0
15 8 0
20 8 0
25 8 0
30 8 0
35 8 0
40 8 0
45 8 0
50 8 0
55 8 0
60 8 0
65 8 0
70 8 0
75 8 0
80 8 0
85 8 0
90 8 0
95 8 0
100 8 0
105 8 0
0 9 0
5 9 0
10 9 0
15 9 0
20 9 0
25 9 0
30 9 0
35 9 0
40 9 0
45 9 0
50 9 0
55 9 0
60 9 0
65 9 0
70 9 0
75 9 0
80 9 0
85 9 0
90 9 0
95 9 0
100 9 0
105 9 0
0 10 0
5 10 0
10 10 0
15 10 0
20 10 0
25 10 0
30 10 0
35 10 0
40 10 0
45 10 0
50 10 0
55 10 0
60 10 0
65 10 0
70 10 0
75 10 0
80 10 0
85 10 0
90 10 0
95 10 0
100 10 0
105 10 0
0 11 0
5 11 0
10 11 0
15 11 0
20 11 0
25 11 0
30 11 0
35 11 0
40 11 0
45 11 0
50 11 0
55 11 0
60 11 0
65 11 0
70 11 0
75 11 0
80 11 0
85 11 0
90 11 0
95 11 0
100 11 0
105 11 0
0 12 0
5 12 0
10 12 0
15 12 0
20 12 0
25 12 0
30 12 0
35 12 0
40 12 0
45 12 0
50 12 0
55 12 0
60 12 0
65 12 0
70 12 0
75 12 0
80 12 0
85 12 0
90 12 0
95 12 0
100 12 0
105 12 0
0 13 0
5 13 0
10 13 0
15 13 0
20 13 0
25 13 0
30 13 0
35 13 0
40 13 0
45 13 0
50 13 0
55 13 0
60 13 0
65 13 0
70 13 0
75 13 0
80 13 0
85 13 0
90 13 0
95 13 0
100 13 0
105 13 0
0 14 0
5 14 0
10 14 0
15 14 0
20 14 0
25 14 0
30 14 0
35 14 0
40 14 0
45 14 0
50 14 0
55 14 0
60 14 0
65 14 0
70 14 0
75 14 0
80 14 0
85 14 0
90 14 0
95 14 0
100 14 0
105 14 0
0 15 0
5 15 0
10 15 0
15 15 0
20 15 0
25 15 0
30 15 0
35 15 0
40 15 0
45 15 0
50 15 0
55 15 0
60 15 0
65 15 0
70 15 0
75 15 0
80 15 0
85 15 0
90 15 0
95 15 0
100 15 0
105 15 0
0 16 0
5 16 0
10 16 0
15 16 0
20 16 0
25 16 0
30 16 0
35 16 0
40 16 0
45 16 0
50 16 0
55 16 0
60 16 0
65 16 0
70 16 0
75 16 0
80 16 0
85 16 0
90 16 0
95 16 0
100 16 0
105 16 0
0 0 1
5 0 1
10 0 1
15 0 1
20 0 1
25 0 1
30 0 1
35 0 1
40 0 1
45 0 1
50 0 1
55 0 1
60 0 1
65 0 1
70 0 1
75 0 1
80 0 1
85 0 1
90 0 1
95 0 1
100 0 1
105 0 1
0 1 1
5 1 1
10 1 1
15 1 1
20 1 1
25 1 1
30 1 1
35 1 1
40 1 1
45 1 1
50 1 1
55 1 1
60 1 1
65 1 1
70 1 1
75 1 1
80 1 1
85 1 1
90 1 1
95 1 1
100 1 1
105 1 1
0 2 1
5 2 1
10 2 1
15 2 1
20 2 1
25 2 1
30 2 1
35 2 1
40 2 1
45 2 1
50 2 1
55 2 1
60 2 1
65 2 1
70 2 1
75 2 1
80 2 1
85 2 1
90 2 1
95 2 1
100 2 1
105 2 1
0 3 1
5 3 1
10 3 1
15 3 1
20 3 1
25 3 1
30 3 1
35 3 1
40 3 1
45 3 1
50 3 1
55 3 1
60 3 1
65 3 1
70 3 1
75 3 1
80 3 1
85 3 1
90 3 1
95 3 1
100 3 1
105 3 1
0 4 1
5 4 1
10 4 1
15 4 1
20 4 1
25 4 1
30 4 1
35 4 1
40 4 1
45 4 1
50 4 1
55 4 1
60 4 1
65 4 1
70 4 1
75 4 1
80 4 1
85 4 1
90 4 1
95 4 1
100 4 1
105 4 1
0 5 1
5 5 1
10 5 1
15 5 1
20 5 1
25 5 1
30 5 1
35 5 1
40 5 1
45 5 1
50 5 1
55 5 1
60 5 1
65 5 1
70 5 1
75 5 1
80 5 1
85 5 1
90 5 1
95 5 1
100 5 1
105 5 1
0 6 1
5 6 1
10 6 1
15 6 1
20 6 1
25 6 1
30 6 1
35 6 1
40 6 1
45 6 1
50 6 1
55 6 1
60 6 1
65 6 1
70 6 1
75 6 1
80 6 1
85 6 1
90 6 1
95 6 1
100 6 1
105 6 1
0 7 1
5 7 1
10 7 1
15 7 1
20 7 1
25 7 1
30 7 1
35 7 1
40 7 1
45 7 1
50 7 1
55 7 1
60 7 1
65 7 1
70 7 1
75 7 1
80 7 1
85 7 1
90 7 1
95 7 1
100 7 1
105 7 1
0 8 1
5 8 1
10 8 1
15 8 1
20 8 1
25 8 1
30 8 1
35 8 1
40 8 1
45 8 1
50 8 1
55 8 1
60 8 1
65 8 1
70 8 1
75 8 1
80 8 1
85 8 1
90 8 1
95 8 1
100 8 1
105 8 1
0 9 1
5 9 1
10 9 1
15 9 1
20 9 1
25 9 1
30 9 1
35 9 1
40 9 1
45 9 1
50 9 1
55 9 1
60 9 1
65 9 1
70 9 1
75 9 1
80 9 1
85 9 1
90 9 1
95 9 1
100 9 1
105 9 1
0 10 1
5 10 1
10 10 1
15 10 1
20 10 1
25 10 1
30 10 1
35 10 1
40 10 1
45 10 1
50 10 1
55 10 1
60 10 1
65 10 1
70 10 1
75 10 1
80 10 1
85 10 1
90 10 1
95 10 1
100 10 1
105 10 1
0 11 1
5 11 1
10 11 1
15 11 1
20 11 1
25 11 1
30 11 1
35 11 1
40 11 1
45 11 1
50 11 1
55 11 1
60 11 1
65 11 1
70 11 1
75 11 1
80 11 1
85 11 1
90 11 1
95 11 1
100 11 1
105 11 1
0 12 1
5 12 1
10 12 1
15 12 1
20 12 1
25 12 1
30 12 1
35 12 1
40 12 1
45 12 1
50 12 1
55 12 1
60 12 1
65 12 1
70 12 1
75 12 1
80 12 1
85 12 1
90 12 1
95 12 1
100 12 1
105 12 1
0 13 1
5 13 1
10 13 1
15 13 1
20 13 1
25 13 1
30 13 1
35 13 1
40 13 1
45 13 1
50 13 1
55 13 1
60 13 1
65 13 1
70 13 1
75 13 1
80 13 1
85 13 1
90 13 1
95 13 1
100 13 1
105 13 1
0 14 1
5 14 1
10 14 1
15 14 1
20 14 1
25 14 1
30 14 1
35 14 1
40 14 1
45 14 1
50 14 1
55 14 1
60 14 1
65 14 1
70 14 1
75 14 1
80 14 1
85 14 1
90 14 1
95 14 1
100 14 1
105 14 1
0 15 1
5 15 1
10 15 1
15 15 1
20 15 1
25 15 1
30 15 1
35 15 1
40 15 1
45 15 1
50 15 1
55 15 1
60 15 1
65 15 1
70 15 1
75 15 1
80 15 1
85 15 1
90 15 1
95 15 1
100 15 1
105 15 1
0 16 1
5 16 1
10 16 1
15 16 1
20 16 1
25 16 1
30 16 1
35 16 1
40 16 1
45 16 1
50 16 1
55 16 1
60 16 1
65 16 1
70 16 1
75 16 1
80 16 1
85 16 1
90 16 1
95 16 1
100 16 1
105 16 1
0 0 2
5 0 2
10 0 2
15 0 2
20 0 2
25 0 2
30 0 2
35 0 2
40 0 2
45 0 2
50 0 2
55 0 2
60 0 2
65 0 2
70 0 2
75 0 2
80 0 2
85 0 2
90 0 2
95 0 2
100 0 2
105 0 2
0 1 2
5 1 2
10 1 2
15 1 2
20 1 2
25 1 2
30 1 2
35 1 2
40 1 2
45 1 2
50 1 2
55 1 2
60 1 2
65 1 2
70 1 2
75 1 2
80 1 2
85 1 2
90 1 2
95 1 2
100 1 2
105 1 2
0 2 2
5 2 2
10 2 2
15 2 2
20 2 2
25 2 2
30 2 2
35 2 2
40 2 2
45 2 2
50 2 2
55 2 2
60 2 2
65 2 2
70 2 2
75 2 2
80 2 2
85 2 2
90 2 2
95 2 2
100 2 2
105 2 2
0 3 2
5 3 2
10 3 2
15 3 2
20 3 2
25 3 2
30 3 2
35 3 2
40 3 2
45 3 2
50 3 2
55 3 2
60 3 2
65 3 2
70 3 2
75 3 2
80 3 2
85 3 2
90 3 2
95 3 2
100 3 2
105 3 2
0 4 2
5 4 2
10 4 2
15 4 2
20 4 2
25 4 2
30 4 2
35 4 2
40 4 2
45 4 2
50 4 2
55 4 2
60 4 2
65 4 2
70 4 2
75 4 2
80 4 2
85 4 2
90 4 2
95 4 2
100 4 2
105 4 2
0 5 2
5 5 2
10 5 2
15 5 2
20 5 2
25 5 2
30 5 2
35 5 2
40 5 2
45 5 2
50 5 2
55 5 2
60 5 2
65 5 2
70 5 2
75 5 2
80 5 2
85 5 2
90 5 2
95 5 2
100 5 2
105 5 2
0 6 2
5 6 2
10 6 2
15 6 2
20 6 2
25 6 2
30 6 2
35 6 2
40 6 2
45 6 2
50 6 2
55 6 2
60 6 2
65 6 2
70 6 2
75 6 2
80 6 2
85 6 2
90 6 2
95 6 2
100 6 2
105 6 2
0 7 2
5 7 2
10 7 2
15 7 2
20 7 2
25 7 2
30 7 2
35 7 2
40 7 2
45 7 2
50 7 2
55 7 2
60 7 2
65 7 2
70 7 2
75 7 2
80 7 2
85 7 2
90 7 2
95 7 2
100 7 2
105 7 2
0 8 2
5 8 2
10 8 2
15 8 2
20 8 2
25 8 2
30 8 2
35 8 2
40 8 2
45 8 2
50 8 2
55 8 2
60 8 2
65 8 2
70 8 2
75 8 2
80 8 2
85 8 2
90 8 2
95 8 2
100 8 2
105 8 2
0 9 2
5 9 2
10 9 2
15 9 2
20 9 2
25 9 2
30 9 2
35 9 2
40 9 2
45 9 2
50 9 2
55 9 2
60 9 2
65 9 2
70 9 2
75 9 2
80 9 2
85 9 2
90 9 2
95 9 2
100 9 2
105 9 2
0 10 2
5 10 2
10 10 2
15 10 2
20 10 2
25 10 2
30 10 2
35 10 2
40 10 2
45 10 2
50 10 2
55 10 2
60 10 2
65 10 2
70 10 2
75 10 2
80 10 2
85 10 2
90 10 2
95 10 2
100 10 2
105 10 2
0 11 2
5 11 2
10 11 2
15 11 2
20 11 2
25 11 2
30 11 2
35 11 2
40 11 2
45 11 2
50 11 2
55 11 2
60 11 2
65 11 2
70 11 2
75 11 2
80 11 2
85 11 2
90 11 2
95 11 2
100 11 2
105 11 2
0 12 2
5 12 2
10 12 2
15 12 2
20 12 2
25 12 2
30 12 2
35 12 2
40 12 2
45 12 2
50 12 2
55 12 2
60 12 2
65 12 2
70 12 2
75 12 2
80 12 2
85 12 2
90 12 2
95 12 2
100 12 2
105 12 2
0 13 2
5 13 2
10 13 2
15 13 2
20 13 2
25 13 2
30 13 2
35 13 2
40 13 2
45 13 2
50 13 2
55 13 2
60 13 2
65 13 2
70 13 2
75 13 2
80 13 2
85 13 2
90 13 2
95 13 2
100 13 2
105 13 2
0 14 2
5 14 2
10 14 2
15 14 2
20 14 2
25 14 2
30 14 2
35 14 2
40 14 2
45 14 2
50 14 2
55 14 2
60 14 2
65 14 2
70 14 2
75 14 2
80 14 2
85 14 2
90 14 2
95 14 2
100 14 2
105 14 2
0 15 2
5 15 2
10 15 2
15 15 2
20 15 2
25 15 2
30 15 2
35 15 2
40 15 2
45 15 2
50 15 2
55 15 2
60 15 2
65 15 2
70 15 2
75 15 2
80 15 2
85 15 2
90 15 2
95 15 2
100 15 2
105 15 2
0 16 2
5 16 2
10 16 2
15 16 2
20 16 2
25 16 2
30 16 2
35 16 2
40 16 2
45 16 2
50 16 2
55 16 2
60 16 2
65 16 2
70 16 2
75 16 2
80 16 2
85 16 2
90 16 2
95 16 2
100 16 2
105 16 2
0 0 3
5 0 3
10 0 3
15 0 3
20 0 3
25 0 3
30 0 3
35 0 3
40 0 3
45 0 3
50 0 3
55 0 3
60 0 3
65 0 3
70 0 3
75 0 3
80 0 3
85 0 3
90 0 3
95 0 3
100 0 3
105 0 3
0 1 3
5 1 3
10 1 3
15 1 3
20 1 3
25 1 3
30 1 3
35 1 3
40 1 3
45 1 3
50 1 3
55 1 3
60 1 3
65 1 3
70 1 3
75 1 3
80 1 3
85 1 3
90 1 3
95 1 3
100 1 3
105 1 3
0 2 3
5 2 3
10 2 3
15 2 3
20 2 3
25 2 3
30 2 3
35 2 3
40 2 3
45 2 3
50 2 3
55 2 3
60 2 3
65 2 3
70 2 3
75 2 3
80 2 3
85 2 3
90 2 3
95 2 3
100 2 3
105 2 3
0 3 3
5 3 3
10 3 3
15 3 3
20 3 3
25 3 3
30 3 3
35 3 3
40 3 3
45 3 3
50 3 3
55 3 3
60 3 3
65 3 3
70 3 3
75 3 3
80 3 3
85 3 3
90 3 3
95 3 3
100 3 3
105 3 3
0 4 3
5 4 3
10 4 3
15 4 3
20 4 3
25 4 3
30 4 3
35 4 3
40 4 3
45 4 3
50 4 3
55 4 3
60 4 3
65 4 3
70 4 3
75 4 3
80 4 3
85 4 3
90 4 3
95 4 3
100 4 3
105 4 3
0 5 3
5 5 3
10 5 3
15 5 3
20 5 3
25 5 3
30 5 3
35 5 3
40 5 3
45 5 3
50 5 3
55 5 3
60 5 3
65 5 3
70 5 3
75 5 3
80 5 3
85 5 3
90 5 3
95 5 3
100 5 3
105 5 3
0 6 3
5 6 3
10 6 3
15 6 3
20 6 3
25 6 3
30 6 3
35 6 3
40 6 3
45 6 3
50 6 3
55 6 3
60 6 3
65 6 3
70 6 3
75 6 3
80 6 3
85 6 3
90 6 3
95 6 3
100 6 3
105 6 3
0 7 3
5 7 3
10 7 3
15 7 3
20 7 3
25 7 3
30 7 3
35 7 3
40 7 3
45 7 3
50 7 3
55 7 3
60 7 3
65 7 3
70 7 3
75 7 3
80 7 3
85 7 3
90 7 3
95 7 3
100 7 3
105 7 3
0 8 3
5 8 3
10 8 3
15 8 3
20 8 3
25 8 3
30 8 3
35 8 3
40 8 3
45 8 3
50 8 3
55 8 3
60 8 3
65 8 3
70 8 3
75 8 3
80 8 3
85 8 3
90 8 3
95 8 3
100 8 3
105 8 3
0 9 3
5 9 3
10 9 3
15 9 3
20 9 3
25 9 3
30 9 3
35 9 3
40 9 3
45 9 3
50 9 3
55 9 3
60 9 3
65 9 3
70 9 3
75 9 3
80 9 3
85 9 3
90 9 3
95 9 3
100 9 3
105 9 3
0 10 3
5 10 3
10 10 3
15 10 3
[...]
POINT_DATA 4488

SCALARS pressure double
LOOKUP_TABLE pressure
0
0
0
0
0
0
0
0
0
0
0
0
0
0
0
0
0
0
0
0
0
0
0
783.159
783.15
783.102
782.815
782.691
782.708
782.738
782.676
782.695
782.493
782.307
781.868
781.763
781.511
780.924
779.309
779.145
778.559
778.238
778.103
0
0
783.163
783.154
783.116
782.814
782.694
782.711
782.745
782.677
782.54
782.494
782.319
781.859
781.777
781.536
780.967
779.218
779.157
778.548
778.231
778.105
0
0
783.17
783.161
783.126
782.826
782.701
782.732
782.759
782.679
782.567
782.502
782.341
781.932
781.806
781.577
781.05
780.854
779.201
778.525
778.216
778.109
0
0
783.179
783.169
783.149
782.836
782.369
782.738
782.779
782.724
782.592
782.515
782.373
781.924
781.844
781.634
781.134
780.771
779.189
778.485
778.192
778.112
0
0
783.19
783.18
783.092
782.853
782.355
782.763
782.805
782.732
782.614
782.531
782.415
782.506
781.899
781.708
781.218
780.738
779.139
778.428
778.158
778.117
0
0
783.204
783.196
783.122
782.896
782.309
782.805
782.838
782.744
782.639
782.547
782.445
782.437
781.965
781.784
781.316
780.755
779.052
778.191
778.113
778.122
0
0
783.22
783.216
783.158
782.955
782.231
782.866
782.877
782.756
782.664
782.565
782.47
782.448
782.07
781.875
781.441
780.821
778.926
778.077
778.063
778.129
0
0
783.239
783.24
783.2
783.035
782.112
782.95
782.923
782.869
782.691
782.583
782.492
782.46
782.167
781.978
781.57
780.94
778.752
777.922
778.008
778.136
0
0
783.259
783.267
783.249
783.139
781.897
783.067
782.972
782.889
782.716
782.603
782.512
782.476
782.261
782.138
781.665
781.118
778.514
777.723
777.97
778.144
0
0
783.282
783.297
783.303
783.28
784.039
783.238
783.022
782.917
782.741
782.622
782.531
782.497
782.355
782.248
781.827
781.371
778.172
777.472
777.912
778.153
0
0
783.306
783.329
783.359
783.411
783.978
783.346
783.086
782.951
782.765
782.642
782.549
782.522
782.451
782.371
781.987
781.718
777.654
777.17
777.86
778.163
0
0
783.331
783.363
783.415
783.517
783.947
783.429
783.145
782.992
782.789
782.66
782.569
782.551
782.551
782.504
782.129
782.192
777.067
776.812
777.821
778.174
0
0
783.357
783.398
783.472
783.607
783.936
783.497
783.202
782.966
782.811
782.677
782.589
782.581
782.658
782.638
783.961
782.851
776.166
776.38
777.807
778.184
0
0
783.385
783.434
783.527
783.689
783.933
783.557
783.258
783.01
782.835
782.694
782.607
782.612
782.773
783.41
784.191
783.66
774.902
775.867
777.833
778.195
0
0
783.412
783.47
783.582
783.767
783.937
783.613
783.313
783.052
782.86
782.711
782.624
782.64
782.878
783.505
784.456
785.123
773.515
775.249
777.929
778.205
0
0
0
0
0
0
0
0
0
0
0
0
0
0
0
0
0
0
0
0
0
0
0
0
783.159
783.15
783.102
782.815
782.691
782.708
782.738
782.676
782.695
782.493
782.307
781.868
781.763
781.511
780.924
779.309
779.145
778.559
778.238
778.103
0
-783.159
783.159
783.15
783.102
782.815
782.691
782.708
782.738
782.676
782.695
782.493
782.307
781.868
781.763
781.511
780.924
779.309
779.145
778.559
778.238
778.103
778.103
0.0119769
783.163
783.154
783.116
782.814
782.694
782.711
782.745
782.677
782.54
782.494
782.319
781.859
781.777
781.536
780.967
779.218
779.157
778.548
778.231
778.105
778.105
-783.17
783.17
783.161
783.126
782.826
782.701
782.732
782.759
782.679
782.567
782.502
782.341
781.932
781.806
781.577
781.05
780.854
779.201
778.525
778.216
778.109
778.109
-783.179
783.179
783.169
783.149
782.836
782.369
782.738
782.779
782.724
782.592
782.515
782.373
781.924
781.844
781.634
781.134
780.771
779.189
778.485
778.192
778.112
778.112
-783.19
783.19
783.18
783.092
782.853
782.355
782.763
782.805
782.732
782.614
782.531
782.415
782.506
781.899
781.708
781.218
780.738
779.139
778.428
778.158
778.117
778.117
-783.204
783.204
783.196
783.122
782.896
782.309
782.805
782.838
782.744
782.639
782.547
782.445
782.437
781.965
781.784
781.316
780.755
779.052
778.191
778.113
778.122
778.122
-783.22
783.22
783.216
783.158
782.955
782.231
782.866
782.877
782.756
782.664
782.565
782.47
782.448
782.07
781.875
781.441
780.821
778.926
778.077
778.063
778.129
778.129
-783.239
783.239
783.24
783.2
783.035
782.112
782.95
782.923
782.869
782.691
782.583
782.492
782.46
782.167
781.978
781.57
780.94
778.752
777.922
778.008
778.136
778.136
-783.259
783.259
783.267
783.249
783.139
781.897
783.067
782.972
782.889
782.716
782.603
782.512
782.476
782.261
782.138
781.665
781.118
778.514
777.723
777.97
778.144
778.144
-783.282
783.282
783.297
783.303
783.28
784.039
783.238
783.022
782.917
782.741
782.622
782.531
782.497
782.355
782.248
781.827
781.371
778.172
777.472
777.912
778.153
778.153
-783.306
783.306
783.329
783.359
783.411
783.978
783.346
783.086
782.951
782.765
782.642
782.549
782.522
782.451
782.371
781.987
781.718
777.654
777.17
777.86
778.163
778.163
-783.331
783.331
783.363
783.415
783.517
783.947
783.429
783.145
782.992
782.789
782.66
782.569
782.551
782.551
782.504
782.129
782.192
777.067
776.812
777.821
778.174
778.174
-783.357
783.357
783.398
783.472
783.607
783.936
783.497
783.202
782.966
782.811
782.677
782.589
782.581
782.658
782.638
783.961
782.851
776.166
776.38
777.807
778.184
778.184
-783.385
783.385
783.434
783.527
783.689
783.933
783.557
783.258
783.01
782.835
782.694
782.607
782.612
782.773
783.41
784.191
783.66
774.902
775.867
777.833
778.195
778.195
-783.412
783.412
783.47
783.582
783.767
783.937
783.613
783.313
783.052
782.86
782.711
782.624
782.64
782.878
783.505
784.456
785.123
773.515
775.249
777.929
778.205
778.205
0
783.412
783.47
783.582
783.767
783.937
783.613
783.313
783.052
782.86
782.711
782.624
782.64
782.878
783.505
784.456
785.123
773.515
775.249
777.929
778.205
0
0
783.178
783.176
783.117
782.893
782.741
782.748
782.757
782.708
782.584
782.499
782.329
782.231
781.819
781.529
780.946
779.733
779.246
778.617
778.284
778.129
0
-783.178
783.178
783.176
783.117
782.893
782.741
782.748
782.757
782.708
782.584
782.499
782.329
782.231
781.819
781.529
780.946
779.733
779.246
778.617
778.284
778.129
778.129
-783.183
783.183
783.191
783.125
782.892
782.758
782.757
782.752
782.706
782.583
782.503
782.338
782.075
781.832
781.549
780.975
779.857
779.242
778.606
778.278
778.132
778.132
-783.189
783.189
783.185
783.133
782.898
782.718
782.773
782.781
782.714
782.596
782.511
782.355
782.076
781.864
781.585
781.02
780.383
779.254
778.581
778.265
778.135
778.135
-783.198
783.198
783.19
783.141
782.91
782.613
782.791
782.805
782.736
782.614
782.523
782.381
782.125
781.925
781.635
781.032
780.542
779.243
778.537
778.243
778.139
778.139
-783.209
783.209
783.2
783.136
782.931
782.578
782.819
782.832
782.753
782.634
782.537
782.413
782.323
781.946
781.697
780.914
780.604
779.204
778.464
778.214
778.144
778.144
-783.222
783.222
783.215
783.155
782.969
782.569
782.862
782.863
782.772
782.656
782.553
782.44
782.368
782.007
781.773
781.204
780.666
779.136
778.336
778.176
778.149
778.149
-783.238
783.238
783.234
783.185
783.023
782.59
782.921
782.901
782.8
782.679
782.571
782.465
782.397
782.085
781.863
781.383
780.749
779.042
778.217
778.133
778.155
778.155
-783.256
783.256
783.257
783.223
783.097
782.671
783.001
782.943
782.852
782.703
782.589
782.487
782.422
782.167
781.966
781.531
780.866
778.923
778.077
778.087
778.163
778.163
-783.276
783.276
783.282
783.268
783.191
782.704
783.103
782.99
782.886
782.728
782.609
782.509
782.447
782.252
782.092
781.676
781.03
778.8
777.911
778.042
778.171
778.171
-783.298
783.298
783.31
783.317
783.304
783.482
783.229
783.04
782.917
782.752
782.628
782.529
782.474
782.338
782.216
781.86
781.253
778.757
777.721
777.992
778.18
778.18
-783.321
783.321
783.338
783.369
783.409
783.728
783.322
783.094
782.948
782.775
782.648
782.55
782.504
782.427
782.355
782.099
781.55
778.146
777.443
777.944
778.19
778.19
-783.346
783.346
783.364
783.425
783.5
783.773
783.398
783.148
782.977
782.799
782.667
782.571
782.536
782.522
782.52
782.455
781.948
777.605
777.135
777.903
778.2
778.2
-783.372
783.372
783.377
783.49
783.583
783.801
783.464
783.201
782.993
782.822
782.685
782.591
782.568
782.621
782.737
783.234
782.477
776.951
776.784
777.876
778.211
778.211
-783.399
783.399
783.434
783.53
783.658
783.825
783.524
783.253
783.025
782.846
782.703
782.611
782.6
782.724
783.098
783.676
783.152
776.155
776.39
777.87
778.221
778.221
-783.426
783.426
783.478
783.577
783.732
783.848
783.582
783.306
783.06
782.871
782.722
782.63
782.63
782.822
783.313
784.03
784.015
775.265
775.963
777.883
778.232
778.232
0
783.426
783.478
783.577
783.732
783.848
783.582
783.306
783.06
782.871
782.722
782.63
782.63
782.822
783.313
784.03
784.015
775.265
775.963
777.883
778.232
0
0
783.198
783.193
783.135
782.957
782.768
782.782
782.788
782.727
782.607
782.507
782.346
782.195
781.857
781.542
780.969
779.992
779.311
778.677
778.332
778.156
0
-783.198
783.198
783.193
783.135
782.957
782.768
782.782
782.788
782.727
782.607
782.507
782.346
782.195
781.857
781.542
780.969
779.992
779.311
778.677
778.332
778.156
778.156
-783.202
783.202
783.199
783.14
782.959
782.81
782.796
782.794
782.731
782.611
782.512
782.353
782.148
781.87
781.559
780.99
780.09
779.312
778.667
778.327
778.158
778.158
-783.208
783.208
783.202
783.148
782.965
782.797
782.817
782.811
782.74
782.622
782.52
782.368
782.15
781.897
781.591
781.024
780.301
779.314
778.643
778.316
778.162
778.162
-783.217
783.217
783.209
783.156
782.977
782.763
782.84
782.833
782.756
782.636
782.531
782.388
782.193
781.937
781.635
781.055
780.435
779.302
778.602
778.297
778.166
778.166
-783.228
783.228
783.219
783.165
782.999
782.752
782.871
782.858
782.774
782.653
782.545
782.414
782.283
781.977
781.692
781.087
780.521
779.271
778.539
778.272
778.171
778.171
-783.241
783.241
783.234
783.184
783.034
782.769
782.913
782.888
782.795
782.673
782.561
782.438
782.328
782.029
781.763
781.218
780.598
779.219
778.449
778.24
778.176
778.176
-783.256
783.256
783.252
783.211
783.083
782.825
782.968
782.923
782.822
782.694
782.578
782.462
782.362
782.093
781.847
781.359
780.686
779.147
778.347
778.203
778.183
778.183
-783.274
783.274
783.273
783.246
783.148
782.934
783.038
782.963
782.857
782.716
782.596
782.484
782.392
782.164
781.945
781.502
780.798
779.054
778.227
778.163
778.19
778.19
-783.293
783.293
783.298
783.286
783.227
783.108
783.123
783.006
782.889
782.739
782.615
782.506
782.423
782.239
782.058
781.658
780.945
778.941
778.084
778.121
778.198
778.198
-783.314
783.314
783.324
783.33
783.318
783.455
783.218
783.053
782.92
782.762
782.635
782.528
782.454
782.319
782.181
781.848
781.137
778.789
777.912
778.076
778.207
778.207
-783.337
783.337
783.351
783.378
783.405
783.595
783.3
783.102
782.95
782.786
782.654
782.55
782.486
782.402
782.321
782.091
781.388
778.454
777.696
778.031
778.217
778.217
-783.361
783.361
783.379
783.428
783.485
783.655
783.371
783.151
782.979
782.809
782.674
782.572
782.52
782.489
782.485
782.421
781.714
778.069
777.448
777.989
778.227
778.227
-783.386
783.386
783.406
783.48
783.559
783.699
783.435
783.2
783.005
782.833
782.693
782.593
782.554
782.58
782.684
782.878
782.136
777.626
777.172
777.955
778.237
778.237
-783.413
783.413
783.446
783.526
783.63
783.738
783.494
783.249
783.035
782.857
782.713
782.614
782.587
782.673
782.921
783.267
782.667
777.133
776.872
777.929
778.248
778.248
-783.44
783.44
783.485
783.571
783.699
783.776
783.552
783.299
783.068
782.881
782.732
782.634
782.619
782.762
783.126
783.614
783.303
776.621
776.558
777.91
778.259
778.259
0
783.44
783.485
783.571
783.699
783.776
783.552
783.299
783.068
782.881
782.732
782.634
782.619
782.762
783.126
783.614
783.303
776.621
776.558
777.91
778.259
0
0
783.217
783.21
783.156
783.022
782.742
782.804
782.821
782.75
782.63
782.517
782.359
782.182
781.884
781.552
780.989
780.14
779.376
778.74
778.381
778.183
0
-783.217
783.217
783.21
783.156
783.022
782.742
782.804
782.821
782.75
782.63
782.517
782.359
782.182
781.884
781.552
780.989
780.14
779.376
778.74
778.381
778.183
778.183
-783.221
783.221
783.214
783.161
783.023
782.908
782.831
782.828
782.755
782.635
782.522
782.366
782.173
781.896
781.567
781.007
780.198
779.377
778.731
778.377
778.186
778.186
-783.227
783.227
783.219
783.168
783.027
782.887
782.859
782.843
782.764
782.644
782.53
782.378
782.183
781.919
781.595
781.038
780.302
779.375
778.71
778.368
778.189
778.189
-783.236
783.236
783.227
783.178
783.038
782.878
782.886
782.862
782.778
782.656
782.541
782.395
782.214
781.952
781.635
781.079
780.396
779.364
778.675
778.353
778.193
778.193
-783.246
783.246
783.238
783.191
783.058
782.883
782.918
782.885
782.795
782.672
782.554
782.416
782.264
781.991
781.687
781.135
780.475
779.34
778.624
778.332
778.198
778.198
-783.259
783.259
783.253
783.21
783.09
782.911
782.958
782.913
782.815
782.689
782.569
782.438
782.304
782.039
781.752
781.229
780.551
779.3
778.555
778.305
778.204
778.204
-783.274
783.274
783.27
783.235
783.133
782.968
783.008
782.945
782.84
782.709
782.586
782.46
782.338
782.095
781.83
781.343
780.635
779.244
778.471
778.274
778.21
778.21
-783.291
783.291
783.291
783.267
783.189
783.061
783.068
782.982
782.868
782.729
782.604
782.483
782.37
782.157
781.92
781.472
780.737
779.169
778.37
778.24
778.218
778.218
-783.31
783.31
783.314
783.303
783.255
783.194
783.138
783.021
782.897
782.751
782.622
782.505
782.403
782.225
782.023
781.62
780.866
779.069
778.251
778.202
778.226
778.226
-783.331
783.331
783.339
783.343
783.329
783.373
783.213
783.064
782.926
782.774
782.642
782.528
782.436
782.297
782.138
781.797
781.029
778.929
778.108
778.162
778.235
778.235
-783.353
783.353
783.365
783.386
783.402
783.493
783.284
783.108
782.956
782.797
782.662
782.55
782.47
782.373
782.269
782.015
781.236
778.715
777.937
778.122
778.244
778.244
-783.377
783.377
783.393
783.431
783.472
783.566
783.349
783.153
782.984
782.82
782.682
782.573
782.504
782.453
782.419
782.286
781.5
778.457
777.743
778.082
778.254
778.254
-783.401
783.401
783.423
783.477
783.539
783.62
783.409
783.199
783.013
782.843
782.702
782.595
782.539
782.536
782.588
782.608
781.83
778.166
777.53
778.045
778.264
778.264
-783.427
783.427
783.457
783.522
783.604
783.669
783.467
783.245
783.043
782.868
782.722
782.617
782.573
782.619
782.772
782.925
782.231
777.853
777.302
778.012
778.275
778.275
-783.453
783.453
783.493
783.566
783.668
783.716
783.524
783.292
783.074
782.892
782.743
782.639
782.606
782.7
782.947
783.227
782.688
777.532
777.068
777.98
778.285
778.285
0
783.453
783.493
783.566
783.668
783.716
783.524
783.292
783.074
782.892
782.743
782.639
782.606
782.7
782.947
783.227
782.688
777.532
777.068
777.98
778.285
0
0
783.236
783.227
783.179
783.092
782.882
782.812
782.852
782.772
782.65
782.528
782.369
782.183
781.904
781.56
781.007
780.228
779.44
778.805
778.432
778.211
0
-783.236
783.236
783.227
783.179
783.092
782.882
782.812
782.852
782.772
782.65
782.528
782.369
782.183
781.904
781.56
781.007
780.228
779.44
778.805
778.432
778.211
778.211
-783.24
783.24
783.232
783.184
783.082
782.994
782.864
782.86
782.778
782.656
782.533
782.376
782.186
781.915
781.574
781.023
780.263
779.44
778.798
778.429
778.213
778.213
-783.247
783.247
783.238
783.191
783.082
783.001
782.901
782.873
782.787
782.664
782.54
782.387
782.198
781.935
781.599
781.052
780.322
779.437
778.78
778.421
778.217
778.217
-783.255
783.255
783.246
783.201
783.091
782.983
782.931
782.89
782.799
782.675
782.551
782.401
782.223
781.963
781.635
781.093
780.388
779.428
778.752
778.409
778.221
778.221
-783.265
783.265
783.257
783.215
783.11
782.985
782.962
782.912
782.815
782.689
782.563
782.42
782.256
781.999
781.682
781.149
780.452
779.409
778.711
778.392
778.226
778.226
-783.278
783.278
783.271
783.234
783.138
783.011
782.998
782.937
782.834
782.705
782.578
782.44
782.29
782.042
781.74
781.227
780.52
779.379
778.657
778.37
778.232
778.232
-783.293
783.293
783.288
783.258
783.176
783.059
783.042
782.967
782.857
782.723
782.594
782.461
782.322
782.092
781.81
781.323
780.595
779.336
778.589
778.345
778.238
778.238
-783.309
783.309
783.308
783.286
783.223
783.132
783.093
783
782.882
782.743
782.612
782.483
782.354
782.147
781.892
781.436
780.684
779.277
778.508
778.316
778.246
778.246
-783.327
783.327
783.33
783.319
783.278
783.227
783.151
783.036
782.908
782.764
782.63
782.505
782.387
782.208
781.984
781.567
780.794
779.199
778.412
778.284
778.254
778.254
-783.348
783.348
783.354
783.356
783.338
783.337
783.213
783.074
782.935
782.785
782.65
782.528
782.42
782.274
782.089
781.723
780.93
779.092
778.298
778.25
778.262
778.262
-783.369
783.369
783.38
783.395
783.4
783.431
783.273
783.114
782.963
782.808
782.67
782.551
782.455
782.343
782.207
781.909
781.099
778.949
778.165
778.215
778.272
778.272
-783.392
783.392
783.407
783.435
783.462
783.502
783.332
783.156
782.992
782.831
782.69
782.574
782.49
782.416
782.338
782.127
781.308
778.778
778.016
778.179
778.282
778.282
-783.416
783.416
783.436
783.477
783.521
783.56
783.387
783.198
783.02
782.854
782.711
782.598
782.525
782.49
782.481
782.373
781.561
778.587
777.854
778.144
778.292
778.292
-783.441
783.441
783.468
783.519
783.58
783.612
783.442
783.241
783.05
782.878
782.732
782.62
782.559
782.565
782.631
782.626
781.858
778.385
777.683
778.11
778.302
778.302
-783.467
783.467
783.5
783.561
783.64
783.664
783.496
783.285
783.081
782.903
782.753
782.643
782.592
782.638
782.778
782.875
782.184
778.178
777.508
778.076
778.312
778.312
0
783.467
783.5
783.561
783.64
783.664
783.496
783.285
783.081
782.903
782.753
782.643
782.592
782.638
782.778
782.875
782.184
778.178
777.508
778.076
778.312
0
0
783.256
783.246
783.203
783.122
782.931
782.896
782.884
782.795
782.67
782.539
782.378
782.188
781.919
781.567
781.022
780.285
779.5
778.87
778.483
778.238
0
-783.256
783.256
783.246
783.203
783.122
782.931
782.896
782.884
782.795
782.67
782.539
782.378
782.188
781.919
781.567
781.022
780.285
779.5
778.87
778.483
778.238
778.238
-783.26
783.26
783.25
783.208
783.121
783.005
782.921
782.892
782.8
782.675
782.544
782.384
782.194
781.929
781.579
781.036
780.307
779.501
778.865
778.481
778.241
778.241
-783.266
783.266
783.257
783.215
783.126
783.03
782.948
782.903
782.809
782.683
782.551
782.394
782.207
781.947
781.601
781.062
780.345
779.498
778.851
778.475
778.245
778.245
-783.274
783.274
783.265
783.225
783.136
783.04
782.974
782.919
782.82
782.693
782.561
782.408
782.227
781.972
781.633
781.1
780.391
779.491
778.829
778.466
778.249
778.249
-783.285
783.285
783.277
783.239
783.154
783.054
783.002
782.938
782.835
782.706
782.573
782.424
782.253
782.004
781.675
781.15
780.442
779.478
778.797
778.452
778.254
778.254
-783.297
783.297
783.29
783.257
783.179
783.08
783.034
782.961
782.853
782.721
782.587
782.442
782.281
782.042
781.727
781.216
780.499
779.456
778.756
778.436
778.26
778.26
-783.311
783.311
783.306
783.279
783.212
783.121
783.072
782.988
782.873
782.738
782.603
782.463
782.311
782.086
781.789
781.298
780.563
779.425
778.704
778.415
778.267
778.267
-783.327
783.327
783.325
783.305
783.251
783.177
783.116
783.017
782.896
782.757
782.62
782.484
782.342
782.136
781.862
781.394
780.639
779.382
778.641
778.392
778.274
778.274
-783.345
783.345
783.346
783.335
783.297
783.246
783.164
783.05
782.92
782.777
782.639
782.506
782.374
782.191
781.944
781.507
780.73
779.324
778.566
778.367
778.282
778.282
-783.364
783.364
783.369
783.368
783.348
783.323
783.215
783.084
782.946
782.798
782.658
782.529
782.408
782.25
782.036
781.639
780.841
779.249
778.478
778.339
778.291
778.291
-783.385
783.385
783.394
783.403
783.4
783.396
783.267
783.121
782.973
782.82
782.679
782.552
782.442
782.313
782.139
781.792
780.976
779.154
778.378
778.309
778.3
778.3
-783.408
783.408
783.42
783.44
783.453
783.458
783.319
783.159
783
782.842
782.699
782.576
782.476
782.378
782.252
781.967
781.138
779.043
778.266
778.279
778.31
778.31
-783.431
783.431
783.448
783.478
783.506
783.514
783.369
783.198
783.028
782.866
782.721
782.6
782.511
782.445
782.373
782.16
781.329
778.92
778.145
778.249
778.32
778.32
-783.455
783.455
783.478
783.517
783.56
783.566
783.42
783.238
783.057
782.889
782.742
782.624
782.546
782.513
782.497
782.36
781.547
778.79
778.019
778.218
778.33
778.33
-783.48
783.48
783.508
783.557
783.614
783.618
783.471
783.279
783.087
782.914
782.764
782.647
782.579
782.578