# vtk DataFile Version 3.0
FlowField
ASCII
DATASET STRUCTURED_GRID
DIMENSIONS 102 12 1 
POINTS 1224 double
0 0 0
0.3 0 0
0.6 0 0
0.9 0 0
1.2 0 0
1.5 0 0
1.8 0 0
2.1 0 0
2.4 0 0
2.7 0 0
3 0 0
3.3 0 0
3.6 0 0
3.9 0 0
4.2 0 0
4.5 0 0
4.8 0 0
5.1 0 0
5.4 0 0
5.7 0 0
6 0 0
6.3 0 0
6.6 0 0
6.9 0 0
7.2 0 0
7.5 0 0
7.8 0 0
8.1 0 0
8.4 0 0
8.7 0 0
9 0 0
9.3 0 0
9.6 0 0
9.9 0 0
10.2 0 0
10.5 0 0
10.8 0 0
11.1 0 0
11.4 0 0
11.7 0 0
12 0 0
12.3 0 0
12.6 0 0
12.9 0 0
13.2 0 0
13.5 0 0
13.8 0 0
14.1 0 0
14.4 0 0
14.7 0 0
15 0 0
15.3 0 0
15.6 0 0
15.9 0 0
16.2 0 0
16.5 0 0
16.8 0 0
17.1 0 0
17.4 0 0
17.7 0 0
18 0 0
18.3 0 0
18.6 0 0
18.9 0 0
19.2 0 0
19.5 0 0
19.8 0 0
20.1 0 0
20.4 0 0
20.7 0 0
21 0 0
21.3 0 0
21.6 0 0
21.9 0 0
22.2 0 0
22.5 0 0
22.8 0 0
23.1 0 0
23.4 0 0
23.7 0 0
24 0 0
24.3 0 0
24.6 0 0
24.9 0 0
25.2 0 0
25.5 0 0
25.8 0 0
26.1 0 0
26.4 0 0
26.7 0 0
27 0 0
27.3 0 0
27.6 0 0
27.9 0 0
28.2 0 0
28.5 0 0
28.8 0 0
29.1 0 0
29.4 0 0
29.7 0 0
30 0 0
30.3 0 0
0 0.1 0
0.3 0.1 0
0.6 0.1 0
0.9 0.1 0
1.2 0.1 0
1.5 0.1 0
1.8 0.1 0
2.1 0.1 0
2.4 0.1 0
2.7 0.1 0
3 0.1 0
3.3 0.1 0
3.6 0.1 0
3.9 0.1 0
4.2 0.1 0
4.5 0.1 0
4.8 0.1 0
5.1 0.1 0
5.4 0.1 0
5.7 0.1 0
6 0.1 0
6.3 0.1 0
6.6 0.1 0
6.9 0.1 0
7.2 0.1 0
7.5 0.1 0
7.8 0.1 0
8.1 0.1 0
8.4 0.1 0
8.7 0.1 0
9 0.1 0
9.3 0.1 0
9.6 0.1 0
9.9 0.1 0
10.2 0.1 0
10.5 0.1 0
10.8 0.1 0
11.1 0.1 0
11.4 0.1 0
11.7 0.1 0
12 0.1 0
12.3 0.1 0
12.6 0.1 0
12.9 0.1 0
13.2 0.1 0
13.5 0.1 0
13.8 0.1 0
14.1 0.1 0
14.4 0.1 0
14.7 0.1 0
15 0.1 0
15.3 0.1 0
15.6 0.1 0
15.9 0.1 0
16.2 0.1 0
16.5 0.1 0
16.8 0.1 0
17.1 0.1 0
17.4 0.1 0
17.7 0.1 0
18 0.1 0
18.3 0.1 0
18.6 0.1 0
18.9 0.1 0
19.2 0.1 0
19.5 0.1 0
19.8 0.1 0
20.1 0.1 0
20.4 0.1 0
20.7 0.1 0
21 0.1 0
21.3 0.1 0
21.6 0.1 0
21.9 0.1 0
22.2 0.1 0
22.5 0.1 0
22.8 0.1 0
23.1 0.1 0
23.4 0.1 0
23.7 0.1 0
24 0.1 0
24.3 0.1 0
24.6 0.1 0
24.9 0.1 0
25.2 0.1 0
25.5 0.1 0
25.8 0.1 0
26.1 0.1 0
26.4 0.1 0
26.7 0.1 0
27 0.1 0
27.3 0.1 0
27.6 0.1 0
27.9 0.1 0
28.2 0.1 0
28.5 0.1 0
28.8 0.1 0
29.1 0.1 0
29.4 0.1 0
29.7 0.1 0
30 0.1 0
30.3 0.1 0
0 0.2 0
0.3 0.2 0
0.6 0.2 0
0.9 0.2 0
1.2 0.2 0
1.5 0.2 0
1.8 0.2 0
2.1 0.2 0
2.4 0.2 0
2.7 0.2 0
3 0.2 0
3.3 0.2 0
3.6 0.2 0
3.9 0.2 0
4.2 0.2 0
4.5 0.2 0
4.8 0.2 0
5.1 0.2 0
5.4 0.2 0
5.7 0.2 0
6 0.2 0
6.3 0.2 0
6.6 0.2 0
6.9 0.2 0
7.2 0.2 0
7.5 0.2 0
7.8 0.2 0
8.1 0.2 0
8.4 0.2 0
8.7 0.2 0
9 0.2 0
9.3 0.2 0
9.6 0.2 0
9.9 0.2 0
10.2 0.2 0
10.5 0.2 0
10.8 0.2 0
11.1 0.2 0
11.4 0.2 0
11.7 0.2 0
12 0.2 0
12.3 0.2 0
12.6 0.2 0
12.9 0.2 0
13.2 0.2 0
13.5 0.2 0
13.8 0.2 0
14.1 0.2 0
14.4 0.2 0
14.7 0.2 0
15 0.2 0
15.3 0.2 0
15.6 0.2 0
15.9 0.2 0
16.2 0.2 0
16.5 0.2 0
16.8 0.2 0
17.1 0.2 0
17.4 0.2 0
17.7 0.2 0
18 0.2 0
18.3 0.2 0
18.6 0.2 0
18.9 0.2 0
19.2 0.2 0
19.5 0.2 0
19.8 0.2 0
20.1 0.2 0
20.4 0.2 0
20.7 0.2 0
21 0.2 0
21.3 0.2 0
21.6 0.2 0
21.9 0.2 0
22.2 0.2 0
22.5 0.2 0
22.8 0.2 0
23.1 0.2 0
23.4 0.2 0
23.7 0.2 0
24 0.2 0
24.3 0.2 0
24.6 0.2 0
24.9 0.2 0
25.2 0.2 0
25.5 0.2 0
25.8 0.2 0
26.1 0.2 0
26.4 0.2 0
26.7 0.2 0
27 0.2 0
27.3 0.2 0
27.6 0.2 0
27.9 0.2 0
28.2 0.2 0
28.5 0.2 0
28.8 0.2 0
29.1 0.2 0
29.4 0.2 0
29.7 0.2 0
30 0.2 0
30.3 0.2 0
0 0.3 0
0.3 0.3 0
0.6 0.3 0
0.9 0.3 0
1.2 0.3 0
1.5 0.3 0
1.8 0.3 0
2.1 0.3 0
2.4 0.3 0
2.7 0.3 0
3 0.3 0
3.3 0.3 0
3.6 0.3 0
3.9 0.3 0
4.2 0.3 0
4.5 0.3 0
4.8 0.3 0
5.1 0.3 0
5.4 0.3 0
5.7 0.3 0
6 0.3 0
6.3 0.3 0
6.6 0.3 0
6.9 0.3 0
7.2 0.3 0
7.5 0.3 0
7.8 0.3 0
8.1 0.3 0
8.4 0.3 0
8.7 0.3 0
9 0.3 0
9.3 0.3 0
9.6 0.3 0
9.9 0.3 0
10.2 0.3 0
10.5 0.3 0
10.8 0.3 0
11.1 0.3 0
11.4 0.3 0
11.7 0.3 0
12 0.3 0
12.3 0.3 0
12.6 0.3 0
12.9 0.3 0
13.2 0.3 0
13.5 0.3 0
13.8 0.3 0
14.1 0.3 0
14.4 0.3 0
14.7 0.3 0
15 0.3 0
15.3 0.3 0
15.6 0.3 0
15.9 0.3 0
16.2 0.3 0
16.5 0.3 0
16.8 0.3 0
17.1 0.3 0
17.4 0.3 0
17.7 0.3 0
18 0.3 0
18.3 0.3 0
18.6 0.3 0
18.9 0.3 0
19.2 0.3 0
19.5 0.3 0
19.8 0.3 0
20.1 0.3 0
20.4 0.3 0
20.7 0.3 0
21 0.3 0
21.3 0.3 0
21.6 0.3 0
21.9 0.3 0
22.2 0.3 0
22.5 0.3 0
22.8 0.3 0
23.1 0.3 0
23.4 0.3 0
23.7 0.3 0
24 0.3 0
24.3 0.3 0
24.6 0.3 0
24.9 0.3 0
25.2 0.3 0
25.5 0.3 0
25.8 0.3 0
26.1 0.3 0
26.4 0.3 0
26.7 0.3 0
27 0.3 0
27.3 0.3 0
27.6 0.3 0
27.9 0.3 0
28.2 0.3 0
28.5 0.3 0
28.8 0.3 0
29.1 0.3 0
29.4 0.3 0
29.7 0.3 0
30 0.3 0
30.3 0.3 0
0 0.4 0
0.3 0.4 0
0.6 0.4 0
0.9 0.4 0
1.2 0.4 0
1.5 0.4 0
1.8 0.4 0
2.1 0.4 0
2.4 0.4 0
2.7 0.4 0
3 0.4 0
3.3 0.4 0
3.6 0.4 0
3.9 0.4 0
4.2 0.4 0
4.5 0.4 0
4.8 0.4 0
5.1 0.4 0
5.4 0.4 0
5.7 0.4 0
6 0.4 0
6.3 0.4 0
6.6 0.4 0
6.9 0.4 0
7.2 0.4 0
7.5 0.4 0
7.8 0.4 0
8.1 0.4 0
8.4 0.4 0
8.7 0.4 0
9 0.4 0
9.3 0.4 0
9.6 0.4 0
9.9 0.4 0
10.2 0.4 0
10.5 0.4 0
10.8 0.4 0
11.1 0.4 0
11.4 0.4 0
11.7 0.4 0
12 0.4 0
12.3 0.4 0
12.6 0.4 0
12.9 0.4 0
13.2 0.4 0
13.5 0.4 0
13.8 0.4 0
14.1 0.4 0
14.4 0.4 0
14.7 0.4 0
15 0.4 0
15.3 0.4 0
15.6 0.4 0
15.9 0.4 0
16.2 0.4 0
16.5 0.4 0
16.8 0.4 0
17.1 0.4 0
17.4 0.4 0
17.7 0.4 0
18 0.4 0
18.3 0.4 0
18.6 0.4 0
18.9 0.4 0
19.2 0.4 0
19.5 0.4 0
19.8 0.4 0
20.1 0.4 0
20.4 0.4 0
20.7 0.4 0
21 0.4 0
21.3 0.4 0
21.6 0.4 0
21.9 0.4 0
22.2 0.4 0
22.5 0.4 0
22.8 0.4 0
23.1 0.4 0
23.4 0.4 0
23.7 0.4 0
24 0.4 0
24.3 0.4 0
24.6 0.4 0
24.9 0.4 0
25.2 0.4 0
25.5 0.4 0
25.8 0.4 0
26.1 0.4 0
26.4 0.4 0
26.7 0.4 0
27 0.4 0
27.3 0.4 0
27.6 0.4 0
27.9 0.4 0
28.2 0.4 0
28.5 0.4 0
28.8 0.4 0
29.1 0.4 0
29.4 0.4 0
29.7 0.4 0
30 0.4 0
30.3 0.4 0
0 0.5 0
0.3 0.5 0
0.6 0.5 0
0.9 0.5 0
1.2 0.5 0
1.5 0.5 0
1.8 0.5 0
2.1 0.5 0
2.4 0.5 0
2.7 0.5 0
3 0.5 0
3.3 0.5 0
3.6 0.5 0
3.9 0.5 0
4.2 0.5 0
4.5 0.5 0
4.8 0.5 0
5.1 0.5 0
5.4 0.5 0
5.7 0.5 0
6 0.5 0
6.3 0.5 0
6.6 0.5 0
6.9 0.5 0
7.2 0.5 0
7.5 0.5 0
7.8 0.5 0
8.1 0.5 0
8.4 0.5 0
8.7 0.5 0
9 0.5 0
9.3 0.5 0
9.6 0.5 0
9.9 0.5 0
10.2 0.5 0
10.5 0.5 0
10.8 0.5 0
11.1 0.5 0
11.4 0.5 0
11.7 0.5 0
12 0.5 0
12.3 0.5 0
12.6 0.5 0
12.9 0.5 0
13.2 0.5 0
13.5 0.5 0
13.8 0.5 0
14.1 0.5 0
14.4 0.5 0
14.7 0.5 0
15 0.5 0
15.3 0.5 0
15.6 0.5 0
15.9 0.5 0
16.2 0.5 0
16.5 0.5 0
16.8 0.5 0
17.1 0.5 0
17.4 0.5 0
17.7 0.5 0
18 0.5 0
18.3 0.5 0
18.6 0.5 0
18.9 0.5 0
19.2 0.5 0
19.5 0.5 0
19.8 0.5 0
20.1 0.5 0
20.4 0.5 0
20.7 0.5 0
21 0.5 0
21.3 0.5 0
21.6 0.5 0
21.9 0.5 0
22.2 0.5 0
22.5 0.5 0
22.8 0.5 0
23.1 0.5 0
23.4 0.5 0
23.7 0.5 0
24 0.5 0
24.3 0.5 0
24.6 0.5 0
24.9 0.5 0
25.2 0.5 0
25.5 0.5 0
25.8 0.5 0
26.1 0.5 0
26.4 0.5 0
26.7 0.5 0
27 0.5 0
27.3 0.5 0
27.6 0.5 0
27.9 0.5 0
28.2 0.5 0
28.5 0.5 0
28.8 0.5 0
29.1 0.5 0
29.4 0.5 0
29.7 0.5 0
30 0.5 0
30.3 0.5 0
0 0.6 0
0.3 0.6 0
0.6 0.6 0
0.9 0.6 0
1.2 0.6 0
1.5 0.6 0
1.8 0.6 0
2.1 0.6 0
2.4 0.6 0
2.7 0.6 0
3 0.6 0
3.3 0.6 0
3.6 0.6 0
3.9 0.6 0
4.2 0.6 0
4.5 0.6 0
4.8 0.6 0
5.1 0.6 0
5.4 0.6 0
5.7 0.6 0
6 0.6 0
6.3 0.6 0
6.6 0.6 0
6.9 0.6 0
7.2 0.6 0
7.5 0.6 0
7.8 0.6 0
8.1 0.6 0
8.4 0.6 0
8.7 0.6 0
9 0.6 0
9.3 0.6 0
9.6 0.6 0
9.9 0.6 0
10.2 0.6 0
10.5 0.6 0
10.8 0.6 0
11.1 0.6 0
11.4 0.6 0
11.7 0.6 0
12 0.6 0
12.3 0.6 0
12.6 0.6 0
12.9 0.6 0
13.2 0.6 0
13.5 0.6 0
13.8 0.6 0
14.1 0.6 0
14.4 0.6 0
14.7 0.6 0
15 0.6 0
15.3 0.6 0
15.6 0.6 0
15.9 0.6 0
16.2 0.6 0
16.5 0.6 0
16.8 0.6 0
17.1 0.6 0
17.4 0.6 0
17.7 0.6 0
18 0.6 0
18.3 0.6 0
18.6 0.6 0
18.9 0.6 0
19.2 0.6 0
19.5 0.6 0
19.8 0.6 0
20.1 0.6 0
20.4 0.6 0
20.7 0.6 0
21 0.6 0
21.3 0.6 0
21.6 0.6 0
21.9 0.6 0
22.2 0.6 0
22.5 0.6 0
22.8 0.6 0
23.1 0.6 0
23.4 0.6 0
23.7 0.6 0
24 0.6 0
24.3 0.6 0
24.6 0.6 0
24.9 0.6 0
25.2 0.6 0
25.5 0.6 0
25.8 0.6 0
26.1 0.6 0
26.4 0.6 0
26.7 0.6 0
27 0.6 0
27.3 0.6 0
27.6 0.6 0
27.9 0.6 0
28.2 0.6 0
28.5 0.6 0
28.8 0.6 0
29.1 0.6 0
29.4 0.6 0
29.7 0.6 0
30 0.6 0
30.3 0.6 0
0 0.7 0
0.3 0.7 0
0.6 0.7 0
0.9 0.7 0
1.2 0.7 0
1.5 0.7 0
1.8 0.7 0
2.1 0.7 0
2.4 0.7 0
2.7 0.7 0
3 0.7 0
3.3 0.7 0
3.6 0.7 0
3.9 0.7 0
4.2 0.7 0
4.5 0.7 0
4.8 0.7 0
5.1 0.7 0
5.4 0.7 0
5.7 0.7 0
6 0.7 0
6.3 0.7 0
6.6 0.7 0
6.9 0.7 0
7.2 0.7 0
7.5 0.7 0
7.8 0.7 0
8.1 0.7 0
8.4 0.7 0
8.7 0.7 0
9 0.7 0
9.3 0.7 0
9.6 0.7 0
9.9 0.7 0
10.2 0.7 0
10.5 0.7 0
10.8 0.7 0
11.1 0.7 0
11.4 0.7 0
11.7 0.7 0
12 0.7 0
12.3 0.7 0
12.6 0.7 0
12.9 0.7 0
13.2 0.7 0
13.5 0.7 0
13.8 0.7 0
14.1 0.7 0
14.4 0.7 0
14.7 0.7 0
15 0.7 0
15.3 0.7 0
15.6 0.7 0
15.9 0.7 0
16.2 0.7 0
16.5 0.7 0
16.8 0.7 0
17.1 0.7 0
17.4 0.7 0
17.7 0.7 0
18 0.7 0
18.3 0.7 0
18.6 0.7 0
18.9 0.7 0
19.2 0.7 0
19.5 0.7 0
19.8 0.7 0
20.1 0.7 0
20.4 0.7 0
20.7 0.7 0
21 0.7 0
21.3 0.7 0
21.6 0.7 0
21.9 0.7 0
22.2 0.7 0
22.5 0.7 0
22.8 0.7 0
23.1 0.7 0
23.4 0.7 0
23.7 0.7 0
24 0.7 0
24.3 0.7 0
24.6 0.7 0
24.9 0.7 0
25.2 0.7 0
25.5 0.7 0
25.8 0.7 0
26.1 0.7 0
26.4 0.7 0
26.7 0.7 0
27 0.7 0
27.3 0.7 0
27.6 0.7 0
27.9 0.7 0
28.2 0.7 0
28.5 0.7 0
28.8 0.7 0
29.1 0.7 0
29.4 0.7 0
29.7 0.7 0
30 0.7 0
30.3 0.7 0
0 0.8 0
0.3 0.8 0
0.6 0.8 0
0.9 0.8 0
1.2 0.8 0
1.5 0.8 0
1.8 0.8 0
2.1 0.8 0
2.4 0.8 0
2.7 0.8 0
3 0.8 0
3.3 0.8 0
3.6 0.8 0
3.9 0.8 0
4.2 0.8 0
4.5 0.8 0
4.8 0.8 0
5.1 0.8 0
5.4 0.8 0
5.7 0.8 0
6 0.8 0
6.3 0.8 0
6.6 0.8 0
6.9 0.8 0
7.2 0.8 0
7.5 0.8 0
7.8 0.8 0
8.1 0.8 0
8.4 0.8 0
8.7 0.8 0
9 0.8 0
9.3 0.8 0
9.6 0.8 0
9.9 0.8 0
10.2 0.8 0
10.5 0.8 0
10.8 0.8 0
11.1 0.8 0
11.4 0.8 0
11.7 0.8 0
12 0.8 0
12.3 0.8 0
12.6 0.8 0
12.9 0.8 0
13.2 0.8 0
13.5 0.8 0
13.8 0.8 0
14.1 0.8 0
14.4 0.8 0
14.7 0.8 0
15 0.8 0
15.3 0.8 0
15.6 0.8 0
15.9 0.8 0
16.2 0.8 0
16.5 0.8 0
16.8 0.8 0
17.1 0.8 0
17.4 0.8 0
17.7 0.8 0
18 0.8 0
18.3 0.8 0
18.6 0.8 0
18.9 0.8 0
19.2 0.8 0
19.5 0.8 0
19.8 0.8 0
20.1 0.8 0
20.4 0.8 0
20.7 0.8 0
21 0.8 0
21.3 0.8 0
21.6 0.8 0
21.9 0.8 0
22.2 0.8 0
22.5 0.8 0
22.8 0.8 0
23.1 0.8 0
23.4 0.8 0
23.7 0.8 0
24 0.8 0
24.3 0.8 0
24.6 0.8 0
24.9 0.8 0
25.2 0.8 0
25.5 0.8 0
25.8 0.8 0
26.1 0.8 0
26.4 0.8 0
26.7 0.8 0
27 0.8 0
27.3 0.8 0
27.6 0.8 0
27.9 0.8 0
28.2 0.8 0
28.5 0.8 0
28.8 0.8 0
29.1 0.8 0
29.4 0.8 0
29.7 0.8 0
30 0.8 0
30.3 0.8 0
0 0.9 0
0.3 0.9 0
0.6 0.9 0
0.9 0.9 0
1.2 0.9 0
1.5 0.9 0
1.8 0.9 0
2.1 0.9 0
2.4 0.9 0
2.7 0.9 0
3 0.9 0
3.3 0.9 0
3.6 0.9 0
3.9 0.9 0
4.2 0.9 0
4.5 0.9 0
4.8 0.9 0
5.1 0.9 0
5.4 0.9 0
5.7 0.9 0
6 0.9 0
6.3 0.9 0
6.6 0.9 0
6.9 0.9 0
7.2 0.9 0
7.5 0.9 0
7.8 0.9 0
8.1 0.9 0
8.4 0.9 0
8.7 0.9 0
9 0.9 0
9.3 0.9 0
9.6 0.9 0
9.9 0.9 0
10.2 0.9 0
10.5 0.9 0
10.8 0.9 0
11.1 0.9 0
11.4 0.9 0
11.7 0.9 0
12 0.9 0
12.3 0.9 0
12.6 0.9 0
12.9 0.9 0
13.2 0.9 0
13.5 0.9 0
13.8 0.9 0
14.1 0.9 0
14.4 0.9 0
14.7 0.9 0
15 0.9 0
15.3 0.9 0
15.6 0.9 0
15.9 0.9 0
16.2 0.9 0
16.5 0.9 0
16.8 0.9 0
17.1 0.9 0
17.4 0.9 0
17.7 0.9 0
18 0.9 0
18.3 0.9 0
18.6 0.9 0
18.9 0.9 0
19.2 0.9 0
19.5 0.9 0
19.8 0.9 0
20.1 0.9 0
20.4 0.9 0
20.7 0.9 0
21 0.9 0
21.3 0.9 0
21.6 0.9 0
21.9 0.9 0
22.2 0.9 0
22.5 0.9 0
22.8 0.9 0
23.1 0.9 0
23.4 0.9 0
23.7 0.9 0
24 0.9 0
24.3 0.9 0
24.6 0.9 0
24.9 0.9 0
25.2 0.9 0
25.5 0.9 0
25.8 0.9 0
26.1 0.9 0
26.4 0.9 0
26.7 0.9 0
27 0.9 0
27.3 0.9 0
27.6 0.9 0
27.9 0.9 0
28.2 0.9 0
28.5 0.9 0
28.8 0.9 0
29.1 0.9 0
29.4 0.9 0
29.7 0.9 0
30 0.9 0
30.3 0.9 0
0 1 0
0.3 1 0
0.6 1 0
0.9 1 0
1.2 1 0
1.5 1 0
1.8 1 0
2.1 1 0
2.4 1 0
2.7 1 0
3 1 0
3.3 1 0
3.6 1 0
3.9 1 0
4.2 1 0
4.5 1 0
4.8 1 0
5.1 1 0
5.4 1 0
5.7 1 0
6 1 0
6.3 1 0
6.6 1 0
6.9 1 0
7.2 1 0
7.5 1 0
7.8 1 0
8.1 1 0
8.4 1 0
8.7 1 0
9 1 0
9.3 1 0
9.6 1 0
9.9 1 0
10.2 1 0
10.5 1 0
10.8 1 0
11.1 1 0
11.4 1 0
11.7 1 0
12 1 0
12.3 1 0
12.6 1 0
12.9 1 0
13.2 1 0
13.5 1 0
13.8 1 0
14.1 1 0
14.4 1 0
14.7 1 0
15 1 0
15.3 1 0
15.6 1 0
15.9 1 0
16.2 1 0
16.5 1 0
16.8 1 0
17.1 1 0
17.4 1 0
17.7 1 0
18 1 0
18.3 1 0
18.6 1 0
18.9 1 0
19.2 1 0
19.5 1 0
19.8 1 0
20.1 1 0
20.4 1 0
20.7 1 0
21 1 0
21.3 1 0
21.6 1 0
21.9 1 0
22.2 1 0
22.5 1 0
22.8 1 0
23.1 1 0
23.4 1 0
23.7 1 0
24 1 0
24.3 1 0
24.6 1 0
24.9 1 0
25.2 1 0
25.5 1 0
25.8 1 0
26.1 1 0
26.4 1 0
26.7 1 0
27 1 0
27.3 1 0
27.6 1 0
27.9 1 0
28.2 1 0
28.5 1 0
28.8 1 0
29.1 1 0
29.4 1 0
29.7 1 0
30 1 0
30.3 1 0
0 1.1 0
0.3 1.1 0
0.6 1.1 0
0.9 1.1 0
1.2 1.1 0
1.5 1.1 0
1.8 1.1 0
2.1 1.1 0
2.4 1.1 0
2.7 1.1 0
3 1.1 0
3.3 1.1 0
3.6 1.1 0
3.9 1.1 0
4.2 1.1 0
4.5 1.1 0
4.8 1.1 0
5.1 1.1 0
5.4 1.1 0
5.7 1.1 0
6 1.1 0
6.3 1.1 0
6.6 1.1 0
6.9 1.1 0
7.2 1.1 0
7.5 1.1 0
7.8 1.1 0
8.1 1.1 0
8.4 1.1 0
8.7 1.1 0
9 1.1 0
9.3 1.1 0
9.6 1.1 0
9.9 1.1 0
10.2 1.1 0
10.5 1.1 0
10.8 1.1 0
11.1 1.1 0
11.4 1.1 0
11.7 1.1 0
12 1.1 0
12.3 1.1 0
12.6 1.1 0
12.9 1.1 0
13.2 1.1 0
13.5 1.1 0
13.8 1.1 0
14.1 1.1 0
14.4 1.1 0
14.7 1.1 0
15 1.1 0
15.3 1.1 0
15.6 1.1 0
15.9 1.1 0
16.2 1.1 0
16.5 1.1 0
16.8 1.1 0
17.1 1.1 0
17.4 1.1 0
17.7 1.1 0
18 1.1 0
18.3 1.1 0
18.6 1.1 0
18.9 1.1 0
19.2 1.1 0
19.5 1.1 0
19.8 1.1 0
20.1 1.1 0
20.4 1.1 0
20.7 1.1 0
21 1.1 0
21.3 1.1 0
21.6 1.1 0
21.9 1.1 0
22.2 1.1 0
22.5 1.1 0
22.8 1.1 0
23.1 1.1 0
23.4 1.1 0
23.7 1.1 0
24 1.1 0
24.3 1.1 0
24.6 1.1 0
24.9 1.1 0
25.2 1.1 0
25.5 1.1 0
25.8 1.1 0
26.1 1.1 0
26.4 1.1 0
26.7 1.1 0
27 1.1 0
27.3 1.1 0
27.6 1.1 0
27.9 1.1 0
28.2 1.1 0
28.5 1.1 0
28.8 1.1 0
29.1 1.1 0
29.4 1.1 0
29.7 1.1 0
30 1.1 0
30.3 1.1 0

POINT_DATA 1224

SCALARS pressure double
LOOKUP_TABLE pressure
1.7652
1.7652
1.69847
1.65191
1.61236
1.57965
1.55198
1.52679
1.50245
1.4783
1.45416
1.43001
1.40585
1.38168
1.35752
1.33335
1.30918
1.28502
1.26085
1.23669
1.21252
1.18835
1.16419
1.14002
1.11586
1.09169
1.06753
1.04336
1.01919
0.995027
0.970861
0.946695
0.922529
0.898363
0.874197
0.850031
0.825865
0.801699
0.777533
0.753366
0.7292
0.705034
0.680868
0.656702
0.632535
0.608369
0.584203
0.560036
0.53587
0.511703
0.487537
0.46337
0.439204
0.415037
0.390871
0.366704
0.342537
0.318371
0.294204
0.270037
0.24587
0.221703
0.197537
0.17337
0.149203
0.125036
0.100869
0.0767016
0.0525345
0.0283673
0.00420013
-0.0199671
-0.0441344
-0.0683018
-0.0924691
-0.116637
-0.140804
-0.164972
-0.189139
-0.213307
-0.237474
-0.261642
-0.28581
-0.309978
-0.334146
-0.358314
-0.382482
-0.40665
-0.430818
-0.454986
-0.479154
-0.503322
-0.527491
-0.551659
-0.575828
-0.599996
-0.624167
-0.648339
-0.672549
-0.696747
-0.720637
0.720637
1.7652
1.7652
1.69847
1.65191
1.61236
1.57965
1.55198
1.52679
1.50245
1.4783
1.45416
1.43001
1.40585
1.38168
1.35752
1.33335
1.30918
1.28502
1.26085
1.23669
1.21252
1.18835
1.16419
1.14002
1.11586
1.09169
1.06753
1.04336
1.01919
0.995027
0.970861
0.946695
0.922529
0.898363
0.874197
0.850031
0.825865
0.801699
0.777533
0.753366
0.7292
0.705034
0.680868
0.656702
0.632535
0.608369
0.584203
0.560036
0.53587
0.511703
0.487537
0.46337
0.439204
0.415037
0.390871
0.366704
0.342537
0.318371
0.294204
0.270037
0.24587
0.221703
0.197537
0.17337
0.149203
0.125036
0.100869
0.0767016
0.0525345
0.0283673
0.00420013
-0.0199671
-0.0441344
-0.0683018
-0.0924691
-0.116637
-0.140804
-0.164972
-0.189139
-0.213307
-0.237474
-0.261642
-0.28581
-0.309978
-0.334146
-0.358314
-0.382482
-0.40665
-0.430818
-0.454986
-0.479154
-0.503322
-0.527491
-0.551659
-0.575828
-0.599996
-0.624167
-0.648339
-0.672549
-0.696747
-0.720637
0.720637
1.74454
1.74454
1.69672
1.65228
1.61303
1.58018
1.55229
1.52693
1.5025
1.47832
1.45417
1.43001
1.40585
1.38168
1.35752
1.33335
1.30918
1.28502
1.26085
1.23669
1.21252
1.18835
1.16419
1.14002
1.11586
1.09169
1.06753
1.04336
1.01919
0.995027
0.970861
0.946695
0.922529
0.898363
0.874197
0.850031
0.825865
0.801699
0.777533
0.753366
0.7292
0.705034
0.680868
0.656702
0.632535
0.608369
0.584203
0.560036
0.53587
0.511703
0.487537
0.46337
0.439204
0.415037
0.390871
0.366704
0.342537
0.318371
0.294204
0.270037
0.24587
0.221703
0.197537
0.17337
0.149203
0.125036
0.100869
0.0767016
0.0525345
0.0283673
0.00420012
-0.0199671
-0.0441344
-0.0683018
-0.0924692
-0.116637
-0.140804
-0.164972
-0.189139
-0.213307
-0.237474
-0.261642
-0.28581
-0.309978
-0.334146
-0.358314
-0.382482
-0.40665
-0.430818
-0.454986
-0.479154
-0.503322
-0.527491
-0.551659
-0.575827
-0.599996
-0.624166
-0.648334
-0.672522
-0.696664
-0.720632
0.720632
1.73015
1.73015
1.6944
1.65311
1.61458
1.58148
1.55305
1.52728
1.50264
1.47836
1.45418
1.43001
1.40585
1.38168
1.35752
1.33335
1.30918
1.28502
1.26085
1.23669
1.21252
1.18835
1.16419
1.14002
1.11586
1.09169
1.06753
1.04336
1.01919
0.995027
0.970861
0.946695
0.922529
0.898363
0.874197
0.850031
0.825865
0.801699
0.777533
0.753366
0.7292
0.705034
0.680868
0.656701
0.632535
0.608369
0.584203
0.560036
0.53587
0.511703
0.487537
0.46337
0.439204
0.415037
0.390871
0.366704
0.342537
0.318371
0.294204
0.270037
0.24587
0.221703
0.197537
0.17337
0.149203
0.125036
0.100869
0.0767016
0.0525345
0.0283673
0.00420011
-0.0199671
-0.0441344
-0.0683018
-0.0924692
-0.116637
-0.140804
-0.164972
-0.189139
-0.213307
-0.237474
-0.261642
-0.28581
-0.309978
-0.334146
-0.358314
-0.382482
-0.40665
-0.430818
-0.454986
-0.479154
-0.503322
-0.527491
-0.551659
-0.575827
-0.599996
-0.624163
-0.648326
-0.67248
-0.696524
-0.720601
0.720601
1.72146
1.72146
1.69254
1.65367
1.61577
1.5825
1.55366
1.52757
1.50275
1.47839
1.45418
1.43001
1.40585
1.38168
1.35752
1.33335
1.30918
1.28502
1.26085
1.23669
1.21252
1.18835
1.16419
1.14002
1.11586
1.09169
1.06753
1.04336
1.01919
0.995027
0.970861
0.946695
0.922529
0.898363
0.874197
0.850031
0.825865
0.801699
0.777533
0.753366
0.7292
0.705034
0.680868
0.656701
0.632535
0.608369
0.584202
0.560036
0.53587
0.511703
0.487537
0.46337
0.439204
0.415037
0.390871
0.366704
0.342537
0.318371
0.294204
0.270037
0.24587
0.221703
0.197537
0.17337
0.149203
0.125036
0.100869
0.0767016
0.0525345
0.0283673
0.0042001
-0.0199672
-0.0441344
-0.0683018
-0.0924692
-0.116637
-0.140804
-0.164972
-0.189139
-0.213307
-0.237474
-0.261642
-0.28581
-0.309978
-0.334146
-0.358314
-0.382482
-0.40665
-0.430818
-0.454986
-0.479154
-0.503322
-0.527491
-0.551659
-0.575827
-0.599995
-0.624161
-0.648318
-0.672445
-0.696423
-0.720572
0.720572
1.71739
1.71739
1.69152
1.65393
1.61636
1.58301
1.55398
1.52772
1.5028
1.47841
1.45419
1.43001
1.40585
1.38168
1.35752
1.33335
1.30918
1.28502
1.26085
1.23669
1.21252
1.18835
1.16419
1.14002
1.11586
1.09169
1.06753
1.04336
1.01919
0.995027
0.970861
0.946695
0.922529
0.898363
0.874197
0.850031
0.825865
0.801699
0.777533
0.753366
0.7292
0.705034
0.680868
0.656701
0.632535
0.608369
0.584202
0.560036
0.53587
0.511703
0.487537
0.46337
0.439204
0.415037
0.390871
0.366704
0.342537
0.318371
0.294204
0.270037
0.24587
0.221703
0.197537
0.17337
0.149203
0.125036
0.100869
0.0767016
0.0525345
0.0283673
0.00420008
-0.0199672
-0.0441345
-0.0683018
-0.0924692
-0.116637
-0.140804
-0.164972
-0.189139
-0.213307
-0.237475
-0.261642
-0.28581
-0.309978
-0.334146
-0.358314
-0.382482
-0.40665
-0.430818
-0.454986
-0.479154
-0.503322
-0.527491
-0.551659
-0.575827
-0.599995
-0.62416
-0.648314
-0.672427
-0.696374
-0.720555
0.720555
1.71739
1.71739
1.69152
1.65393
1.61636
1.58301
1.55398
1.52772
1.5028
1.47841
1.45419
1.43001
1.40585
1.38168
1.35752
1.33335
1.30918
1.28502
1.26085
1.23669
1.21252
1.18835
1.16419
1.14002
1.11586
1.09169
1.06753
1.04336
1.01919
0.995027
0.970861
0.946695
0.922529
0.898363
0.874197
0.850031
0.825865
0.801699
0.777533
0.753366
0.7292
0.705034
0.680868
0.656701
0.632535
0.608369
0.584202
0.560036
0.53587
0.511703
0.487537
0.46337
0.439204
0.415037
0.390871
0.366704
0.342537
0.318371
0.294204
0.270037
0.24587
0.221703
0.197537
0.17337
0.149203
0.125036
0.100869
0.0767016
0.0525344
0.0283673
0.00420007
-0.0199672
-0.0441345
-0.0683018
-0.0924692
-0.116637
-0.140804
-0.164972
-0.189139
-0.213307
-0.237475
-0.261642
-0.28581
-0.309978
-0.334146
-0.358314
-0.382482
-0.40665
-0.430818
-0.454986
-0.479154
-0.503322
-0.527491
-0.551659
-0.575827
-0.599995
-0.62416
-0.648314
-0.672427
-0.696374
-0.720555
0.720555
1.72146
1.72146
1.69254
1.65367
1.61577
1.5825
1.55366
1.52757
1.50275
1.47839
1.45418
1.43001
1.40585
1.38168
1.35752
1.33335
1.30918
1.28502
1.26085
1.23669
1.21252
1.18835
1.16419
1.14002
1.11586
1.09169
1.06753
1.04336
1.01919
0.995027
0.970861
0.946695
0.922529
0.898363
0.874197
0.850031
0.825865
0.801699
0.777533
0.753366
0.7292
0.705034
0.680868
0.656701
0.632535
0.608369
0.584202
0.560036
0.53587
0.511703
0.487537
0.46337
0.439204
0.415037
0.390871
0.366704
0.342537
0.318371
0.294204
0.270037
0.24587
0.221703
0.197537
0.17337
0.149203
0.125036
0.100869
0.0767015
0.0525344
0.0283673
0.00420005
-0.0199672
-0.0441345
-0.0683018
-0.0924692
-0.116637
-0.140804
-0.164972
-0.189139
-0.213307
-0.237475
-0.261642
-0.28581
-0.309978
-0.334146
-0.358314
-0.382482
-0.40665
-0.430818
-0.454986
-0.479154
-0.503322
-0.527491
-0.551659
-0.575827
-0.599995
-0.624161
-0.648318
-0.672445
-0.696423
-0.720572
0.720572
1.73015
1.73015
1.6944
1.65311
1.61458
1.58148
1.55305
1.52728
1.50264
1.47836
1.45418
1.43001
1.40585
1.38168
1.35752
1.33335
1.30918
1.28502
1.26085
1.23669
1.21252
1.18835
1.16419
1.14002
1.11586
1.09169
1.06753
1.04336
1.01919
0.995027
0.970861
0.946695
0.922529
0.898363
0.874197
0.850031
0.825865
0.801699
0.777533
0.753366
0.7292
0.705034
0.680868
0.656701
0.632535
0.608369
0.584202
0.560036
0.53587
0.511703
0.487537
0.46337
0.439204
0.415037
0.390871
0.366704
0.342537
0.318371
0.294204
0.270037
0.24587
0.221703
0.197537
0.17337
0.149203
0.125036
0.100869
0.0767015
0.0525344
0.0283672
0.00420004
-0.0199672
-0.0441345
-0.0683018
-0.0924692
-0.116637
-0.140804
-0.164972
-0.189139
-0.213307
-0.237475
-0.261642
-0.28581
-0.309978
-0.334146
-0.358314
-0.382482
-0.40665
-0.430818
-0.454986
-0.479154
-0.503322
-0.527491
-0.551659
-0.575827
-0.599996
-0.624163
-0.648326
-0.67248
-0.696524
-0.720601
0.720601
1.74454
1.74454
1.69672
1.65228
1.61303
1.58018
1.55229
1.52693
1.5025
1.47832
1.45416
1.43001
1.40585
1.38168
1.35752
1.33335
1.30918
1.28502
1.26085
1.23669
1.21252
1.18835
1.16419
1.14002
1.11586
1.09169
1.06753
1.04336
1.01919
0.995027
0.970861
0.946695
0.922529
0.898363
0.874197
0.850031
0.825865
0.801699
0.777533
0.753366
0.7292
0.705034
0.680868
0.656701
0.632535
0.608369
0.584202
0.560036
0.53587
0.511703
0.487537
0.46337
0.439204
0.415037
0.390871
0.366704
0.342537
0.318371
0.294204
0.270037
0.24587
0.221703
0.197537
0.17337
0.149203
0.125036
0.100869
0.0767015
0.0525344
0.0283672
0.00420002
-0.0199672
-0.0441345
-0.0683019
-0.0924693
-0.116637
-0.140804
-0.164972
-0.189139
-0.213307
-0.237475
-0.261642
-0.28581
-0.309978
-0.334146
-0.358314
-0.382482
-0.40665
-0.430818
-0.454986
-0.479154
-0.503322
-0.527491
-0.551659
-0.575828
-0.599996
-0.624166
-0.648335
-0.672522
-0.696664
-0.720632
0.720632
1.7652
1.7652
1.69847
1.65191
1.61236
1.57965
1.55198
1.52679
1.50245
1.4783
1.45416
1.43001
1.40585
1.38168
1.35752
1.33335
1.30918
1.28502
1.26085
1.23669
1.21252
1.18835
1.16419
1.14002
1.11586
1.09169
1.06753
1.04336
1.01919
0.995027
0.970861
0.946695
0.922529
0.898363
0.874197
0.850031
0.825865
0.801699
0.777533
0.753366
0.7292
0.705034
0.680868
0.656701
0.632535
0.608369
0.584202
0.560036
0.53587
0.511703
0.487537
0.46337
0.439204
0.415037
0.390871
0.366704
0.342537
0.318371
0.294204
0.270037
0.24587
0.221703
0.197537
0.17337
0.149203
0.125036
0.100869
0.0767015
0.0525344
0.0283672
0.00420001
-0.0199672
-0.0441345
-0.0683019
-0.0924693
-0.116637
-0.140804
-0.164972
-0.189139
-0.213307
-0.237475
-0.261642
-0.28581
-0.309978
-0.334146
-0.358314
-0.382482
-0.40665
-0.430818
-0.454986
-0.479154
-0.503322
-0.527491
-0.551659
-0.575828
-0.599997
-0.624167
-0.648339
-0.672549
-0.696748
-0.720637
0.720637
1.7652
1.7652
1.69847
1.65191
1.61236
1.57965
1.55198
1.52679
1.50245
1.4783
1.45416
1.43001
1.40585
1.38168
1.35752
1.33335
1.30918
1.28502
1.26085
1.23669
1.21252
1.18835
1.16419
1.14002
1.11586
1.09169
1.06753
1.04336
1.01919
0.995027
0.970861
0.946695
0.922529
0.898363
0.874197
0.850031
0.825865
0.801699
0.777533
0.753366
0.7292
0.705034
0.680868
0.656701
0.632535
0.608369
0.584202
0.560036
0.53587
0.511703
0.487537
0.46337
0.439204
0.415037
0.390871
0.366704
0.342537
0.318371
0.294204
0.270037
0.24587
0.221703
0.197537
0.17337
0.149203
0.125036
0.100869
0.0767015
0.0525344
0.0283672
0.00420001
-0.0199672
-0.0441345
-0.0683019
-0.0924693
-0.116637
-0.140804
-0.164972
-0.189139
-0.213307
-0.237475
-0.261642
-0.28581
-0.309978
-0.334146
-0.358314
-0.382482
-0.40665
-0.430818
-0.454986
-0.479154
-0.503322
-0.527491
-0.551659
-0.575828
-0.599997
-0.624167
-0.648339
-0.672549
-0.696748
-0.720637
0.720637
SCALARS phi double
LOOKUP_TABLE phi
0.991418
1.00858
1.00227
0.819481
0.51618
0.257471
0.106565
0.0379275
0.0118789
0.00332589
0.000842383
0.000194885
4.15135e-05
8.19651e-06
1.50823e-06
2.59802e-07
4.20461e-08
6.41202e-09
9.23632e-10
1.25925e-10
1.62769e-11
1.99768e-12
2.33104e-13
2.5892e-14
2.74069e-15
2.76753e-16
2.66865e-17
2.45964e-18
2.16883e-19
1.83116e-20
1.4816e-21
1.14968e-22
8.5623e-24
6.12458e-25
4.2104e-26
2.78359e-27
1.77085e-28
1.08466e-29
6.39989e-31
3.63941e-32
1.9956e-33
1.05557e-34
5.38822e-36
2.65533e-37
1.26373e-38
5.81034e-40
2.5816e-41
1.10876e-42
4.60428e-44
1.84912e-45
7.18355e-47
2.70006e-48
9.82069e-50
3.45713e-51
1.17803e-52
3.88611e-54
1.24119e-55
3.83855e-57
1.14955e-58
3.33387e-60
9.3636e-62
2.54695e-63
6.70943e-65
1.71171e-66
4.22907e-68
1.01183e-69
2.34421e-71
5.25864e-73
1.14209e-74
2.40117e-76
4.88643e-78
9.62362e-80
1.83397e-81
3.3812e-83
6.02957e-85
1.03977e-86
1.7335e-88
2.79332e-90
4.34914e-92
6.54087e-94
9.49878e-96
1.33149e-97
1.80085e-99
2.34908e-101
2.95393e-103
3.57908e-105
4.17621e-107
4.69013e-109
5.0666e-111
5.26131e-113
5.24823e-115
5.02511e-117
4.6147e-119
4.06094e-121
3.42129e-123
2.75675e-125
2.12215e-127
1.55916e-129
1.09163e-131
7.30214e-134
4.6394e-136
4.6394e-136
0.991418
1.00858
1.00227
0.819481
0.51618
0.257471
0.106565
0.0379275
0.0118789
0.00332589
0.000842383
0.000194885
4.15135e-05
8.19651e-06
1.50823e-06
2.59802e-07
4.20461e-08
6.41202e-09
9.23632e-10
1.25925e-10
1.62769e-11
1.99768e-12
2.33104e-13
2.5892e-14
2.74069e-15
2.76753e-16
2.66865e-17
2.45964e-18
2.16883e-19
1.83116e-20
1.4816e-21
1.14968e-22
8.5623e-24
6.12458e-25
4.2104e-26
2.78359e-27
1.77085e-28
1.08466e-29
6.39989e-31
3.63941e-32
1.9956e-33
1.05557e-34
5.38822e-36
2.65533e-37
1.26373e-38
5.81034e-40
2.5816e-41
1.10876e-42
4.60428e-44
1.84912e-45
7.18355e-47
2.70006e-48
9.82069e-50
3.45713e-51
1.17803e-52
3.88611e-54
1.24119e-55
3.83855e-57
1.14955e-58
3.33387e-60
9.3636e-62
2.54695e-63
6.70943e-65
1.71171e-66
4.22907e-68
1.01183e-69
2.34421e-71
5.25864e-73
1.14209e-74
2.40117e-76
4.88643e-78
9.62362e-80
1.83397e-81
3.3812e-83
6.02957e-85
1.03977e-86
1.7335e-88
2.79332e-90
4.34914e-92
6.54087e-94
9.49878e-96
1.33149e-97
1.80085e-99
2.34908e-101
2.95393e-103
3.57908e-105
4.17621e-107
4.69013e-109
5.0666e-111
5.26131e-113
5.24823e-115
5.02511e-117
4.6147e-119
4.06094e-121
3.42129e-123
2.75675e-125
2.12215e-127
1.55916e-129
1.09163e-131
7.30214e-134
4.6394e-136
4.6394e-136
0.993676
1.00632
1.01347
0.904154
0.675783
0.421717
0.222468
0.100725
0.0397193
0.0138218
0.00429258
0.00120115
0.000305281
7.09565e-05
1.5171e-05
2.99891e-06
5.50487e-07
9.41976e-08
1.50773e-08
2.2642e-09
3.19882e-10
4.26194e-11
5.36688e-12
6.40028e-13
7.24147e-14
7.78616e-15
7.96795e-16
7.77144e-17
7.23341e-18
6.43257e-19
5.4714e-20
4.45579e-21
3.4775e-22
2.60319e-23
1.87063e-24
1.29134e-25
8.56971e-27
5.47077e-28
3.36162e-29
1.98935e-30
1.1344e-31
6.23631e-33
3.30666e-34
1.69175e-35
8.35491e-37
3.98439e-38
1.83547e-39
8.17013e-41
3.51509e-42
1.46213e-43
5.88137e-45
2.28831e-46
8.61355e-48
3.13732e-49
1.1059e-50
3.77324e-52
1.24627e-53
3.98521e-55
1.23389e-56
3.69927e-58
1.07398e-59
3.01948e-61
8.22123e-63
2.16776e-64
5.53543e-66
1.36882e-67
3.27775e-69
7.60002e-71
1.7062e-72
3.70835e-74
7.80221e-76
1.58886e-77
3.13127e-79
5.97103e-81
1.10152e-82
1.96543e-84
3.39119e-86
5.65672e-88
9.11966e-90
1.42059e-91
2.13744e-93
3.10534e-95
4.35464e-97
5.89184e-99
7.68811e-101
9.67071e-103
1.17207e-104
1.36797e-106
1.53667e-108
1.66035e-110
1.72446e-112
1.72042e-114
1.64746e-116
1.51303e-118
1.33153e-120
1.12182e-122
9.03893e-125
6.95776e-127
5.11055e-129
3.57801e-131
2.3799e-133
2.3799e-133
0.994575
1.00543
1.015
0.923979
0.716273
0.466909
0.257538
0.121746
0.0500282
0.0181075
0.00583957
0.00169441
0.000446014
0.000107253
2.37034e-05
4.83945e-06
9.16905e-07
1.6185e-07
2.671e-08
4.13389e-09
6.01681e-10
8.25615e-11
1.07045e-11
1.31404e-12
1.53008e-13
1.6928e-14
1.7822e-15
1.78803e-16
1.7117e-17
1.56543e-18
1.36921e-19
1.14653e-20
9.19988e-22
7.08023e-23
5.23039e-24
3.71168e-25
2.53199e-26
1.66148e-27
1.04939e-28
6.38304e-30
3.74114e-31
2.11387e-32
1.152e-33
6.05768e-35
3.07481e-36
1.50711e-37
7.13574e-39
3.26463e-40
1.44364e-41
6.17206e-43
2.55184e-44
1.02054e-45
3.9486e-47
1.47835e-48
5.35679e-50
1.87883e-51
6.3794e-53
2.09717e-54
6.67552e-56
2.05765e-57
6.14207e-59
1.77556e-60
4.97102e-62
1.34787e-63
3.53947e-65
9.00135e-67
2.21686e-68
5.28697e-70
1.2209e-71
2.72972e-73
5.90846e-75
1.23793e-76
2.51024e-78
4.9257e-80
9.35129e-82
1.71727e-83
3.04982e-85
5.23688e-87
8.69196e-89
1.39407e-90
2.15993e-92
3.23171e-94
4.66776e-96
6.50574e-98
8.74607e-100
1.1336e-101
1.41589e-103
1.70331e-105
1.97245e-107
2.1974e-109
2.35353e-111
2.42181e-113
2.39245e-115
2.26717e-117
2.05915e-119
1.79082e-121
1.48985e-123
1.18437e-125
8.98616e-128
6.49934e-130
4.46376e-132
4.46376e-132
0.99626
1.00374
1.00589
0.910964
0.705063
0.460203
0.254696
0.120968
0.0499762
0.0181914
0.00590033
0.00172179
0.000455761
0.000110199
2.4485e-05
5.02523e-06
9.56984e-07
1.69771e-07
2.81548e-08
4.37844e-09
6.40279e-10
8.82642e-11
1.14958e-11
1.41749e-12
1.65777e-13
1.842e-14
1.94753e-15
1.96209e-16
1.88609e-17
1.73195e-18
1.52095e-19
1.27863e-20
1.03001e-21
7.95766e-23
5.90105e-24
4.20343e-25
2.87816e-26
1.89562e-27
1.20164e-28
7.33558e-30
4.31481e-31
2.44665e-32
1.33803e-33
7.06033e-35
3.59607e-36
1.76861e-37
8.40212e-39
3.85686e-40
1.71118e-41
7.3399e-43
3.04457e-44
1.22152e-45
4.74135e-47
1.78079e-48
6.47297e-50
2.2774e-51
7.75666e-53
2.55776e-54
8.16645e-56
2.52481e-57
7.55917e-59
2.19172e-60
6.15426e-62
1.67359e-63
4.40759e-65
1.12415e-66
2.7765e-68
6.64048e-70
1.53779e-71
3.44787e-73
7.48368e-75
1.5723e-76
3.19702e-78
6.29042e-80
1.19745e-81
2.2049e-83
3.92629e-85
6.75973e-87
1.1249e-88
1.80891e-90
2.80993e-92
4.21508e-94
6.10368e-96
8.52867e-98
1.14946e-99
1.49358e-101
1.87015e-103
2.25533e-105
2.61811e-107
2.92379e-109
3.13912e-111
3.23794e-113
3.20633e-115
3.04563e-117
2.77269e-119
2.41701e-121
2.01545e-123
1.60588e-125
1.2212e-127
8.85172e-130
6.09194e-132
6.09194e-132
1.04145
0.958548
0.898916
0.781307
0.590328
0.379969
0.208624
0.0986503
0.0406617
0.0147847
0.00479368
0.00139902
0.000370482
8.96375e-05
1.99327e-05
4.09476e-06
7.80591e-07
1.38631e-07
2.30172e-08
3.5838e-09
5.24729e-10
7.24279e-11
9.44559e-12
1.16624e-12
1.36578e-13
1.51965e-14
1.60895e-15
1.62327e-16
1.56263e-17
1.43699e-18
1.26376e-19
1.06398e-20
8.58371e-22
6.64152e-23
4.9325e-24