# vtk DataFile Version 3.0
FlowField
ASCII
DATASET STRUCTURED_GRID
DIMENSIONS 22 17 12 
POINTS 4488 double
0 0 0
0.1 0 0
0.2 0 0
0.3 0 0
0.4 0 0
0.5 0 0
0.6 0 0
0.7 0 0
0.8 0 0
0.9 0 0
1 0 0
1.1 0 0
1.2 0 0
1.3 0 0
1.4 0 0
1.5 0 0
1.6 0 0
1.7 0 0
1.8 0 0
1.9 0 0
2 0 0
2.1 0 0
0 0.1 0
0.1 0.1 0
0.2 0.1 0
0.3 0.1 0
0.4 0.1 0
0.5 0.1 0
0.6 0.1 0
0.7 0.1 0
0.8 0.1 0
0.9 0.1 0
1 0.1 0
1.1 0.1 0
1.2 0.1 0
1.3 0.1 0
1.4 0.1 0
1.5 0.1 0
1.6 0.1 0
1.7 0.1 0
1.8 0.1 0
1.9 0.1 0
2 0.1 0
2.1 0.1 0
0 0.2 0
0.1 0.2 0
0.2 0.2 0
0.3 0.2 0
0.4 0.2 0
0.5 0.2 0
0.6 0.2 0
0.7 0.2 0
0.8 0.2 0
0.9 0.2 0
1 0.2 0
1.1 0.2 0
1.2 0.2 0
1.3 0.2 0
1.4 0.2 0
1.5 0.2 0
1.6 0.2 0
1.7 0.2 0
1.8 0.2 0
1.9 0.2 0
2 0.2 0
2.1 0.2 0
0 0.3 0
0.1 0.3 0
0.2 0.3 0
0.3 0.3 0
0.4 0.3 0
0.5 0.3 0
0.6 0.3 0
0.7 0.3 0
0.8 0.3 0
0.9 0.3 0
1 0.3 0
1.1 0.3 0
1.2 0.3 0
1.3 0.3 0
1.4 0.3 0
1.5 0.3 0
1.6 0.3 0
1.7 0.3 0
1.8 0.3 0
1.9 0.3 0
2 0.3 0
2.1 0.3 0
0 0.4 0
0.1 0.4 0
0.2 0.4 0
0.3 0.4 0
0.4 0.4 0
0.5 0.4 0
0.6 0.4 0
0.7 0.4 0
0.8 0.4 0
0.9 0.4 0
1 0.4 0
1.1 0.4 0
1.2 0.4 0
1.3 0.4 0
1.4 0.4 0
1.5 0.4 0
1.6 0.4 0
1.7 0.4 0
1.8 0.4 0
1.9 0.4 0
2 0.4 0
2.1 0.4 0
0 0.5 0
0.1 0.5 0
0.2 0.5 0
0.3 0.5 0
0.4 0.5 0
0.5 0.5 0
0.6 0.5 0
0.7 0.5 0
0.8 0.5 0
0.9 0.5 0
1 0.5 0
1.1 0.5 0
1.2 0.5 0
1.3 0.5 0
1.4 0.5 0
1.5 0.5 0
1.6 0.5 0
1.7 0.5 0
1.8 0.5 0
1.9 0.5 0
2 0.5 0
2.1 0.5 0
0 0.6 0
0.1 0.6 0
0.2 0.6 0
0.3 0.6 0
0.4 0.6 0
0.5 0.6 0
0.6 0.6 0
0.7 0.6 0
0.8 0.6 0
0.9 0.6 0
1 0.6 0
1.1 0.6 0
1.2 0.6 0
1.3 0.6 0
1.4 0.6 0
1.5 0.6 0
1.6 0.6 0
1.7 0.6 0
1.8 0.6 0
1.9 0.6 0
2 0.6 0
2.1 0.6 0
0 0.7 0
0.1 0.7 0
0.2 0.7 0
0.3 0.7 0
0.4 0.7 0
0.5 0.7 0
0.6 0.7 0
0.7 0.7 0
0.8 0.7 0
0.9 0.7 0
1 0.7 0
1.1 0.7 0
1.2 0.7 0
1.3 0.7 0
1.4 0.7 0
1.5 0.7 0
1.6 0.7 0
1.7 0.7 0
1.8 0.7 0
1.9 0.7 0
2 0.7 0
2.1 0.7 0
0 0.8 0
0.1 0.8 0
0.2 0.8 0
0.3 0.8 0
0.4 0.8 0
0.5 0.8 0
0.6 0.8 0
0.7 0.8 0
0.8 0.8 0
0.9 0.8 0
1 0.8 0
1.1 0.8 0
1.2 0.8 0
1.3 0.8 0
1.4 0.8 0
1.5 0.8 0
1.6 0.8 0
1.7 0.8 0
1.8 0.8 0
1.9 0.8 0
2 0.8 0
2.1 0.8 0
0 0.9 0
0.1 0.9 0
0.2 0.9 0
0.3 0.9 0
0.4 0.9 0
0.5 0.9 0
0.6 0.9 0
0.7 0.9 0
0.8 0.9 0
0.9 0.9 0
1 0.9 0
1.1 0.9 0
1.2 0.9 0
1.3 0.9 0
1.4 0.9 0
1.5 0.9 0
1.6 0.9 0
1.7 0.9 0
1.8 0.9 0
1.9 0.9 0
2 0.9 0
2.1 0.9 0
0 1 0
0.1 1 0
0.2 1 0
0.3 1 0
0.4 1 0
0.5 1 0
0.6 1 0
0.7 1 0
0.8 1 0
0.9 1 0
1 1 0
1.1 1 0
1.2 1 0
1.3 1 0
1.4 1 0
1.5 1 0
1.6 1 0
1.7 1 0
1.8 1 0
1.9 1 0
2 1 0
2.1 1 0
0 1.1 0
0.1 1.1 0
0.2 1.1 0
0.3 1.1 0
0.4 1.1 0
0.5 1.1 0
0.6 1.1 0
0.7 1.1 0
0.8 1.1 0
0.9 1.1 0
1 1.1 0
1.1 1.1 0
1.2 1.1 0
1.3 1.1 0
1.4 1.1 0
1.5 1.1 0
1.6 1.1 0
1.7 1.1 0
1.8 1.1 0
1.9 1.1 0
2 1.1 0
2.1 1.1 0
0 1.2 0
0.1 1.2 0
0.2 1.2 0
0.3 1.2 0
0.4 1.2 0
0.5 1.2 0
0.6 1.2 0
0.7 1.2 0
0.8 1.2 0
0.9 1.2 0
1 1.2 0
1.1 1.2 0
1.2 1.2 0
1.3 1.2 0
1.4 1.2 0
1.5 1.2 0
1.6 1.2 0
1.7 1.2 0
1.8 1.2 0
1.9 1.2 0
2 1.2 0
2.1 1.2 0
0 1.3 0
0.1 1.3 0
0.2 1.3 0
0.3 1.3 0
0.4 1.3 0
0.5 1.3 0
0.6 1.3 0
0.7 1.3 0
0.8 1.3 0
0.9 1.3 0
1 1.3 0
1.1 1.3 0
1.2 1.3 0
1.3 1.3 0
1.4 1.3 0
1.5 1.3 0
1.6 1.3 0
1.7 1.3 0
1.8 1.3 0
1.9 1.3 0
2 1.3 0
2.1 1.3 0
0 1.4 0
0.1 1.4 0
0.2 1.4 0
0.3 1.4 0
0.4 1.4 0
0.5 1.4 0
0.6 1.4 0
0.7 1.4 0
0.8 1.4 0
0.9 1.4 0
1 1.4 0
1.1 1.4 0
1.2 1.4 0
1.3 1.4 0
1.4 1.4 0
1.5 1.4 0
1.6 1.4 0
1.7 1.4 0
1.8 1.4 0
1.9 1.4 0
2 1.4 0
2.1 1.4 0
0 1.5 0
0.1 1.5 0
0.2 1.5 0
0.3 1.5 0
0.4 1.5 0
0.5 1.5 0
0.6 1.5 0
0.7 1.5 0
0.8 1.5 0
0.9 1.5 0
1 1.5 0
1.1 1.5 0
1.2 1.5 0
1.3 1.5 0
1.4 1.5 0
1.5 1.5 0
1.6 1.5 0
1.7 1.5 0
1.8 1.5 0
1.9 1.5 0
2 1.5 0
2.1 1.5 0
0 1.6 0
0.1 1.6 0
0.2 1.6 0
0.3 1.6 0
0.4 1.6 0
0.5 1.6 0
0.6 1.6 0
0.7 1.6 0
0.8 1.6 0
0.9 1.6 0
1 1.6 0
1.1 1.6 0
1.2 1.6 0
1.3 1.6 0
1.4 1.6 0
1.5 1.6 0
1.6 1.6 0
1.7 1.6 0
1.8 1.6 0
1.9 1.6 0
2 1.6 0
2.1 1.6 0
0 0 0.1
0.1 0 0.1
0.2 0 0.1
0.3 0 0.1
0.4 0 0.1
0.5 0 0.1
0.6 0 0.1
0.7 0 0.1
0.8 0 0.1
0.9 0 0.1
1 0 0.1
1.1 0 0.1
1.2 0 0.1
1.3 0 0.1
1.4 0 0.1
1.5 0 0.1
1.6 0 0.1
1.7 0 0.1
1.8 0 0.1
1.9 0 0.1
2 0 0.1
2.1 0 0.1
0 0.1 0.1
0.1 0.1 0.1
0.2 0.1 0.1
0.3 0.1 0.1
0.4 0.1 0.1
0.5 0.1 0.1
0.6 0.1 0.1
0.7 0.1 0.1
0.8 0.1 0.1
0.9 0.1 0.1
1 0.1 0.1
1.1 0.1 0.1
1.2 0.1 0.1
1.3 0.1 0.1
1.4 0.1 0.1
1.5 0.1 0.1
1.6 0.1 0.1
1.7 0.1 0.1
1.8 0.1 0.1
1.9 0.1 0.1
2 0.1 0.1
2.1 0.1 0.1
0 0.2 0.1
0.1 0.2 0.1
0.2 0.2 0.1
0.3 0.2 0.1
0.4 0.2 0.1
0.5 0.2 0.1
0.6 0.2 0.1
0.7 0.2 0.1
0.8 0.2 0.1
0.9 0.2 0.1
1 0.2 0.1
1.1 0.2 0.1
1.2 0.2 0.1
1.3 0.2 0.1
1.4 0.2 0.1
1.5 0.2 0.1
1.6 0.2 0.1
1.7 0.2 0.1
1.8 0.2 0.1
1.9 0.2 0.1
2 0.2 0.1
2.1 0.2 0.1
0 0.3 0.1
0.1 0.3 0.1
0.2 0.3 0.1
0.3 0.3 0.1
0.4 0.3 0.1
0.5 0.3 0.1
0.6 0.3 0.1
0.7 0.3 0.1
0.8 0.3 0.1
0.9 0.3 0.1
1 0.3 0.1
1.1 0.3 0.1
1.2 0.3 0.1
1.3 0.3 0.1
1.4 0.3 0.1
1.5 0.3 0.1
1.6 0.3 0.1
1.7 0.3 0.1
1.8 0.3 0.1
1.9 0.3 0.1
2 0.3 0.1
2.1 0.3 0.1
0 0.4 0.1
0.1 0.4 0.1
0.2 0.4 0.1
0.3 0.4 0.1
0.4 0.4 0.1
0.5 0.4 0.1
0.6 0.4 0.1
0.7 0.4 0.1
0.8 0.4 0.1
0.9 0.4 0.1
1 0.4 0.1
1.1 0.4 0.1
1.2 0.4 0.1
1.3 0.4 0.1
1.4 0.4 0.1
1.5 0.4 0.1
1.6 0.4 0.1
1.7 0.4 0.1
1.8 0.4 0.1
1.9 0.4 0.1
2 0.4 0.1
2.1 0.4 0.1
0 0.5 0.1
0.1 0.5 0.1
0.2 0.5 0.1
0.3 0.5 0.1
0.4 0.5 0.1
0.5 0.5 0.1
0.6 0.5 0.1
0.7 0.5 0.1
0.8 0.5 0.1
0.9 0.5 0.1
1 0.5 0.1
1.1 0.5 0.1
1.2 0.5 0.1
1.3 0.5 0.1
1.4 0.5 0.1
1.5 0.5 0.1
1.6 0.5 0.1
1.7 0.5 0.1
1.8 0.5 0.1
1.9 0.5 0.1
2 0.5 0.1
2.1 0.5 0.1
0 0.6 0.1
0.1 0.6 0.1
0.2 0.6 0.1
0.3 0.6 0.1
0.4 0.6 0.1
0.5 0.6 0.1
0.6 0.6 0.1
0.7 0.6 0.1
0.8 0.6 0.1
0.9 0.6 0.1
1 0.6 0.1
1.1 0.6 0.1
1.2 0.6 0.1
1.3 0.6 0.1
1.4 0.6 0.1
1.5 0.6 0.1
1.6 0.6 0.1
1.7 0.6 0.1
1.8 0.6 0.1
1.9 0.6 0.1
2 0.6 0.1
2.1 0.6 0.1
0 0.7 0.1
0.1 0.7 0.1
0.2 0.7 0.1
0.3 0.7 0.1
0.4 0.7 0.1
0.5 0.7 0.1
0.6 0.7 0.1
0.7 0.7 0.1
0.8 0.7 0.1
0.9 0.7 0.1
1 0.7 0.1
1.1 0.7 0.1
1.2 0.7 0.1
1.3 0.7 0.1
1.4 0.7 0.1
1.5 0.7 0.1
1.6 0.7 0.1
1.7 0.7 0.1
1.8 0.7 0.1
1.9 0.7 0.1
2 0.7 0.1
2.1 0.7 0.1
0 0.8 0.1
0.1 0.8 0.1
0.2 0.8 0.1
0.3 0.8 0.1
0.4 0.8 0.1
0.5 0.8 0.1
0.6 0.8 0.1
0.7 0.8 0.1
0.8 0.8 0.1
0.9 0.8 0.1
1 0.8 0.1
1.1 0.8 0.1
1.2 0.8 0.1
1.3 0.8 0.1
1.4 0.8 0.1
1.5 0.8 0.1
1.6 0.8 0.1
1.7 0.8 0.1
1.8 0.8 0.1
1.9 0.8 0.1
2 0.8 0.1
2.1 0.8 0.1
0 0.9 0.1
0.1 0.9 0.1
0.2 0.9 0.1
0.3 0.9 0.1
0.4 0.9 0.1
0.5 0.9 0.1
0.6 0.9 0.1
0.7 0.9 0.1
0.8 0.9 0.1
0.9 0.9 0.1
1 0.9 0.1
1.1 0.9 0.1
1.2 0.9 0.1
1.3 0.9 0.1
1.4 0.9 0.1
1.5 0.9 0.1
1.6 0.9 0.1
1.7 0.9 0.1
1.8 0.9 0.1
1.9 0.9 0.1
2 0.9 0.1
2.1 0.9 0.1
0 1 0.1
0.1 1 0.1
0.2 1 0.1
0.3 1 0.1
0.4 1 0.1
0.5 1 0.1
0.6 1 0.1
0.7 1 0.1
0.8 1 0.1
0.9 1 0.1
1 1 0.1
1.1 1 0.1
1.2 1 0.1
1.3 1 0.1
1.4 1 0.1
1.5 1 0.1
1.6 1 0.1
1.7 1 0.1
1.8 1 0.1
1.9 1 0.1
2 1 0.1
2.1 1 0.1
0 1.1 0.1
0.1 1.1 0.1
0.2 1.1 0.1
0.3 1.1 0.1
0.4 1.1 0.1
0.5 1.1 0.1
0.6 1.1 0.1
0.7 1.1 0.1
0.8 1.1 0.1
0.9 1.1 0.1
1 1.1 0.1
1.1 1.1 0.1
1.2 1.1 0.1
1.3 1.1 0.1
1.4 1.1 0.1
1.5 1.1 0.1
1.6 1.1 0.1
1.7 1.1 0.1
1.8 1.1 0.1
1.9 1.1 0.1
2 1.1 0.1
2.1 1.1 0.1
0 1.2 0.1
0.1 1.2 0.1
0.2 1.2 0.1
0.3 1.2 0.1
0.4 1.2 0.1
0.5 1.2 0.1
0.6 1.2 0.1
0.7 1.2 0.1
0.8 1.2 0.1
0.9 1.2 0.1
1 1.2 0.1
1.1 1.2 0.1
1.2 1.2 0.1
1.3 1.2 0.1
1.4 1.2 0.1
1.5 1.2 0.1
1.6 1.2 0.1
1.7 1.2 0.1
1.8 1.2 0.1
1.9 1.2 0.1
2 1.2 0.1
2.1 1.2 0.1
0 1.3 0.1
0.1 1.3 0.1
0.2 1.3 0.1
0.3 1.3 0.1
0.4 1.3 0.1
0.5 1.3 0.1
0.6 1.3 0.1
0.7 1.3 0.1
0.8 1.3 0.1
0.9 1.3 0.1
1 1.3 0.1
1.1 1.3 0.1
1.2 1.3 0.1
1.3 1.3 0.1
1.4 1.3 0.1
1.5 1.3 0.1
1.6 1.3 0.1
1.7 1.3 0.1
1.8 1.3 0.1
1.9 1.3 0.1
2 1.3 0.1
2.1 1.3 0.1
0 1.4 0.1
0.1 1.4 0.1
0.2 1.4 0.1
0.3 1.4 0.1
0.4 1.4 0.1
0.5 1.4 0.1
0.6 1.4 0.1
0.7 1.4 0.1
0.8 1.4 0.1
0.9 1.4 0.1
1 1.4 0.1
1.1 1.4 0.1
1.2 1.4 0.1
1.3 1.4 0.1
1.4 1.4 0.1
1.5 1.4 0.1
1.6 1.4 0.1
1.7 1.4 0.1
1.8 1.4 0.1
1.9 1.4 0.1
2 1.4 0.1
2.1 1.4 0.1
0 1.5 0.1
0.1 1.5 0.1
0.2 1.5 0.1
0.3 1.5 0.1
0.4 1.5 0.1
0.5 1.5 0.1
0.6 1.5 0.1
0.7 1.5 0.1
0.8 1.5 0.1
0.9 1.5 0.1
1 1.5 0.1
1.1 1.5 0.1
1.2 1.5 0.1
1.3 1.5 0.1
1.4 1.5 0.1
1.5 1.5 0.1
1.6 1.5 0.1
1.7 1.5 0.1
1.8 1.5 0.1
1.9 1.5 0.1
2 1.5 0.1
2.1 1.5 0.1
0 1.6 0.1
0.1 1.6 0.1
0.2 1.6 0.1
0.3 1.6 0.1
0.4 1.6 0.1
0.5 1.6 0.1
0.6 1.6 0.1
0.7 1.6 0.1
0.8 1.6 0.1
0.9 1.6 0.1
1 1.6 0.1
1.1 1.6 0.1
1.2 1.6 0.1
1.3 1.6 0.1
1.4 1.6 0.1
1.5 1.6 0.1
1.6 1.6 0.1
1.7 1.6 0.1
1.8 1.6 0.1
1.9 1.6 0.1
2 1.6 0.1
2.1 1.6 0.1
0 0 0.2
0.1 0 0.2
0.2 0 0.2
0.3 0 0.2
0.4 0 0.2
0.5 0 0.2
0.6 0 0.2
0.7 0 0.2
0.8 0 0.2
0.9 0 0.2
1 0 0.2
1.1 0 0.2
1.2 0 0.2
1.3 0 0.2
1.4 0 0.2
1.5 0 0.2
1.6 0 0.2
1.7 0 0.2
1.8 0 0.2
1.9 0 0.2
2 0 0.2
2.1 0 0.2
0 0.1 0.2
0.1 0.1 0.2
0.2 0.1 0.2
0.3 0.1 0.2
0.4 0.1 0.2
0.5 0.1 0.2
0.6 0.1 0.2
0.7 0.1 0.2
0.8 0.1 0.2
0.9 0.1 0.2
1 0.1 0.2
1.1 0.1 0.2
1.2 0.1 0.2
1.3 0.1 0.2
1.4 0.1 0.2
1.5 0.1 0.2
1.6 0.1 0.2
1.7 0.1 0.2
1.8 0.1 0.2
1.9 0.1 0.2
2 0.1 0.2
2.1 0.1 0.2
0 0.2 0.2
0.1 0.2 0.2
0.2 0.2 0.2
0.3 0.2 0.2
0.4 0.2 0.2
0.5 0.2 0.2
0.6 0.2 0.2
0.7 0.2 0.2
0.8 0.2 0.2
0.9 0.2 0.2
1 0.2 0.2
1.1 0.2 0.2
1.2 0.2 0.2
1.3 0.2 0.2
1.4 0.2 0.2
1.5 0.2 0.2
1.6 0.2 0.2
1.7 0.2 0.2
1.8 0.2 0.2
1.9 0.2 0.2
2 0.2 0.2
2.1 0.2 0.2
0 0.3 0.2
0.1 0.3 0.2
0.2 0.3 0.2
0.3 0.3 0.2
0.4 0.3 0.2
0.5 0.3 0.2
0.6 0.3 0.2
0.7 0.3 0.2
0.8 0.3 0.2
0.9 0.3 0.2
1 0.3 0.2
1.1 0.3 0.2
1.2 0.3 0.2
1.3 0.3 0.2
1.4 0.3 0.2
1.5 0.3 0.2
1.6 0.3 0.2
1.7 0.3 0.2
1.8 0.3 0.2
1.9 0.3 0.2
2 0.3 0.2
2.1 0.3 0.2
0 0.4 0.2
0.1 0.4 0.2
0.2 0.4 0.2
0.3 0.4 0.2
0.4 0.4 0.2
0.5 0.4 0.2
0.6 0.4 0.2
0.7 0.4 0.2
0.8 0.4 0.2
0.9 0.4 0.2
1 0.4 0.2
1.1 0.4 0.2
1.2 0.4 0.2
1.3 0.4 0.2
1.4 0.4 0.2
1.5 0.4 0.2
1.6 0.4 0.2
1.7 0.4 0.2
1.8 0.4 0.2
1.9 0.4 0.2
2 0.4 0.2
2.1 0.4 0.2
0 0.5 0.2
0.1 0.5 0.2
0.2 0.5 0.2
0.3 0.5 0.2
0.4 0.5 0.2
0.5 0.5 0.2
0.6 0.5 0.2
0.7 0.5 0.2
0.8 0.5 0.2
0.9 0.5 0.2
1 0.5 0.2
1.1 0.5 0.2
1.2 0.5 0.2
1.3 0.5 0.2
1.4 0.5 0.2
1.5 0.5 0.2
1.6 0.5 0.2
1.7 0.5 0.2
1.8 0.5 0.2
1.9 0.5 0.2
2 0.5 0.2
2.1 0.5 0.2
0 0.6 0.2
0.1 0.6 0.2
0.2 0.6 0.2
0.3 0.6 0.2
0.4 0.6 0.2
0.5 0.6 0.2
0.6 0.6 0.2
0.7 0.6 0.2
0.8 0.6 0.2
0.9 0.6 0.2
1 0.6 0.2
1.1 0.6 0.2
1.2 0.6 0.2
1.3 0.6 0.2
1.4 0.6 0.2
1.5 0.6 0.2
1.6 0.6 0.2
1.7 0.6 0.2
1.8 0.6 0.2
1.9 0.6 0.2
2 0.6 0.2
2.1 0.6 0.2
0 0.7 0.2
0.1 0.7 0.2
0.2 0.7 0.2
0.3 0.7 0.2
0.4 0.7 0.2
0.5 0.7 0.2
0.6 0.7 0.2
0.7 0.7 0.2
0.8 0.7 0.2
0.9 0.7 0.2
1 0.7 0.2
1.1 0.7 0.2
1.2 0.7 0.2
1.3 0.7 0.2
1.4 0.7 0.2
1.5 0.7 0.2
1.6 0.7 0.2
1.7 0.7 0.2
1.8 0.7 0.2
1.9 0.7 0.2
2 0.7 0.2
2.1 0.7 0.2
0 0.8 0.2
0.1 0.8 0.2
[...]
POINT_DATA 4488

SCALARS pressure double
LOOKUP_TABLE pressure
0
0
0
0
0
0
0
0
0
0
0
0
0
0
0
0
0
0
0
0
0
0
0
214.701
214.698
214.696
214.695
214.694
214.693
214.693
214.693
214.693
214.693
214.694
214.694
214.695
214.695
214.695
214.698
214.698
214.698
214.697
214.697
0
0
214.696
214.696
214.696
214.695
214.694
214.693
214.693
214.693
214.693
214.693
214.694
214.694
214.695
214.695
214.696
214.697
214.698
214.698
214.698
214.698
0
0
214.693
214.694
214.695
214.695
214.692
214.693
214.693
214.693
214.693
214.693
214.694
214.695
214.696
214.696
214.697
214.698
214.699
214.699
214.7
214.7
0
0
214.692
214.693
214.694
214.693
214.693
214.692
214.693
214.693
214.693
214.693
214.693
214.698
214.697
214.697
214.698
214.699
214.7
214.7
214.701
214.702
0
0
214.69
214.692
214.693
214.693
214.694
214.691
214.693
214.694
214.694
214.694
214.695
214.697
214.698
214.698
214.699
214.7
214.701
214.702
214.702
214.704
0
0
214.69
214.691
214.692
214.692
214.692
214.692
214.693
214.694
214.695
214.695
214.694
214.696
214.699
214.699
214.7
214.701
214.702
214.703
214.704
214.705
0
0
214.689
214.691
214.692
214.692
214.692
214.693
214.694
214.695
214.695
214.696
214.696
214.697
214.699
214.7
214.701
214.702
214.702
214.704
214.705
214.706
0
0
214.689
214.691
214.692
214.693
214.694
214.694
214.694
214.695
214.696
214.696
214.697
214.698
214.699
214.701
214.702
214.703
214.704
214.705
214.705
214.707
0
0
214.688
214.691
214.692
214.693
214.694
214.694
214.695
214.696
214.696
214.697
214.698
214.699
214.7
214.701
214.702
214.703
214.705
214.706
214.707
214.708
0
0
214.687
214.691
214.692
214.693
214.694
214.695
214.696
214.696
214.697
214.698
214.699
214.7
214.701
214.702
214.703
214.704
214.705
214.707
214.708
214.709
0
0
214.689
214.691
214.692
214.694
214.695
214.695
214.696
214.697
214.698
214.699
214.7
214.701
214.702
214.703
214.704
214.705
214.706
214.708
214.709
214.71
0
0
214.69
214.692
214.693
214.694
214.695
214.696
214.697
214.698
214.699
214.7
214.701
214.702
214.703
214.705
214.706
214.705
214.707
214.709
214.71
214.711
0
0
214.691
214.693
214.694
214.695
214.696
214.697
214.698
214.698
214.699
214.7
214.701
214.702
214.703
214.706
214.707
214.707
214.708
214.71
214.711
214.713
0
0
214.692
214.693
214.694
214.695
214.696
214.697
214.698
214.699
214.7
214.701
214.702
214.703
214.705
214.706
214.707
214.709
214.71
214.711
214.712
214.714
0
0
214.693
214.695
214.695
214.696
214.697
214.698
214.699
214.7
214.701
214.702
214.703
214.705
214.706
214.707
214.708
214.71
214.711
214.712
214.714
214.715
0
0
0
0
0
0
0
0
0
0
0
0
0
0
0
0
0
0
0
0
0
0
0
0
214.701
214.698
214.696
214.695
214.694
214.693
214.693
214.693
214.693
214.693
214.694
214.694
214.695
214.695
214.695
214.698
214.698
214.698
214.697
214.697
0
214.701
214.701
214.698
214.696
214.695
214.694
214.693
214.693
214.693
214.693
214.693
214.694
214.694
214.695
214.695
214.695
214.698
214.698
214.698
214.697
214.697
214.697
214.696
214.696
214.696
214.696
214.695
214.694
214.693
214.693
214.693
214.693
214.693
214.694
214.694
214.695
214.695
214.696
214.697
214.698
214.698
214.698
214.698
214.698
214.693
214.693
214.694
214.695
214.695
214.692
214.693
214.693
214.693
214.693
214.693
214.694
214.695
214.696
214.696
214.697
214.698
214.699
214.699
214.7
214.7
214.7
214.692
214.692
214.693
214.694
214.693
214.693
214.692
214.693
214.693
214.693
214.693
214.693
214.698
214.697
214.697
214.698
214.699
214.7
214.7
214.701
214.702
214.702
214.69
214.69
214.692
214.693
214.693
214.694
214.691
214.693
214.694
214.694
214.694
214.695
214.697
214.698
214.698
214.699
214.7
214.701
214.702
214.702
214.704
214.704
214.69
214.69
214.691
214.692
214.692
214.692
214.692
214.693
214.694
214.695
214.695
214.694
214.696
214.699
214.699
214.7
214.701
214.702
214.703
214.704
214.705
214.705
214.689
214.689
214.691
214.692
214.692
214.692
214.693
214.694
214.695
214.695
214.696
214.696
214.697
214.699
214.7
214.701
214.702
214.702
214.704
214.705
214.706
214.706
214.689
214.689
214.691
214.692
214.693
214.694
214.694
214.694
214.695
214.696
214.696
214.697
214.698
214.699
214.701
214.702
214.703
214.704
214.705
214.705
214.707
214.707
214.688
214.688
214.691
214.692
214.693
214.694
214.694
214.695
214.696
214.696
214.697
214.698
214.699
214.7
214.701
214.702
214.703
214.705
214.706
214.707
214.708
214.708
214.687
214.687
214.691
214.692
214.693
214.694
214.695
214.696
214.696
214.697
214.698
214.699
214.7
214.701
214.702
214.703
214.704
214.705
214.707
214.708
214.709
214.709
214.689
214.689
214.691
214.692
214.694
214.695
214.695
214.696
214.697
214.698
214.699
214.7
214.701
214.702
214.703
214.704
214.705
214.706
214.708
214.709
214.71
214.71
214.69
214.69
214.692
214.693
214.694
214.695
214.696
214.697
214.698
214.699
214.7
214.701
214.702
214.703
214.705
214.706
214.705
214.707
214.709
214.71
214.711
214.711
214.691
214.691
214.693
214.694
214.695
214.696
214.697
214.698
214.698
214.699
214.7
214.701
214.702
214.703
214.706
214.707
214.707
214.708
214.71
214.711
214.713
214.713
214.692
214.692
214.693
214.694
214.695
214.696
214.697
214.698
214.699
214.7
214.701
214.702
214.703
214.705
214.706
214.707
214.709
214.71
214.711
214.712
214.714
214.714
214.693
214.693
214.695
214.695
214.696
214.697
214.698
214.699
214.7
214.701
214.702
214.703
214.705
214.706
214.707
214.708
214.71
214.711
214.712
214.714
214.715
214.715
0
214.693
214.695
214.695
214.696
214.697
214.698
214.699
214.7
214.701
214.702
214.703
214.705
214.706
214.707
214.708
214.71
214.711
214.712
214.714
214.715
0
0
214.707
214.703
214.7
214.697
214.69
214.687
214.688
214.691
214.693
214.695
214.695
214.696
214.697
214.697
214.698
214.699
214.699
214.699
214.698
214.698
0
214.707
214.707
214.703
214.7
214.697
214.69
214.687
214.688
214.691
214.693
214.695
214.695
214.696
214.697
214.697
214.698
214.699
214.699
214.699
214.698
214.698
214.698
214.701
214.701
214.701
214.7
214.697
214.692
214.688
214.689
214.691
214.693
214.694
214.695
214.696
214.697
214.697
214.698
214.699
214.699
214.699
214.699
214.699
214.699
214.698
214.698
214.699
214.698
214.697
214.694
214.69
214.689
214.69
214.692
214.694
214.695
214.696
214.697
214.698
214.699
214.699
214.7
214.7
214.701
214.702
214.702
214.696
214.696
214.697
214.697
214.697
214.695
214.692
214.691
214.691
214.692
214.693
214.695
214.697
214.698
214.699
214.699
214.7
214.701
214.702
214.702
214.703
214.703
214.694
214.694
214.696
214.696
214.696
214.696
214.694
214.692
214.692
214.692
214.693
214.695
214.697
214.698
214.699
214.7
214.701
214.702
214.703
214.704
214.705
214.705
214.693
214.693
214.695
214.695
214.696
214.696
214.695
214.694
214.694
214.694
214.694
214.695
214.696
214.698
214.699
214.701
214.702
214.703
214.704
214.705
214.706
214.706
214.692
214.692
214.694
214.695
214.696
214.696
214.696
214.696
214.695
214.695
214.695
214.696
214.697
214.698
214.7
214.701
214.702
214.703
214.705
214.706
214.707
214.707
214.692
214.692
214.693
214.694
214.695
214.696
214.697
214.697
214.697
214.697
214.697
214.697
214.698
214.699
214.7
214.702
214.703
214.704
214.705
214.706
214.708
214.708
214.691
214.691
214.693
214.694
214.695
214.696
214.697
214.697
214.698
214.698
214.698
214.699
214.7
214.7
214.701
214.702
214.704
214.705
214.706
214.707
214.709
214.709
214.691
214.691
214.693
214.694
214.695
214.696
214.697
214.698
214.698
214.699
214.7
214.7
214.701
214.702
214.703
214.704
214.705
214.706
214.707
214.708
214.71
214.71
214.692
214.692
214.693
214.695
214.696
214.696
214.697
214.698
214.699
214.7
214.701
214.701
214.702
214.703
214.704
214.705
214.706
214.707
214.708
214.71
214.711
214.711
214.692
214.692
214.694
214.695
214.696
214.697
214.698
214.699
214.699
214.7
214.701
214.702
214.703
214.704
214.705
214.707
214.707
214.708
214.71
214.711
214.712
214.712
214.693
214.693
214.694
214.695
214.696
214.697
214.698
214.699
214.7
214.701
214.702
214.703
214.704
214.705
214.707
214.708
214.709
214.71
214.711
214.712
214.714
214.714
214.694
214.694
214.695
214.696
214.697
214.698
214.699
214.7
214.701
214.702
214.703
214.704
214.705
214.706
214.707
214.709
214.71
214.711
214.712
214.714
214.715
214.715
214.695
214.695
214.696
214.697
214.698
214.699
214.699
214.7
214.701
214.702
214.703
214.705
214.706
214.707
214.708
214.71
214.711
214.712
214.714
214.715
214.716
214.716
0
214.695
214.696
214.697
214.698
214.699
214.699
214.7
214.701
214.702
214.703
214.705
214.706
214.707
214.708
214.71
214.711
214.712
214.714
214.715
214.716
0
0
214.712
214.708
214.706
214.7
214.68
214.675
214.682
214.689
214.694
214.697
214.698
214.699
214.699
214.699
214.7
214.7
214.7
214.7
214.7
214.699
0
214.712
214.712
214.708
214.706
214.7
214.68
214.675
214.682
214.689
214.694
214.697
214.698
214.699
214.699
214.699
214.7
214.7
214.7
214.7
214.7
214.699
214.699
214.706
214.706
214.706
214.705
214.701
214.69
214.679
214.681
214.687
214.692
214.695
214.697
214.698
214.699
214.699
214.7
214.7
214.701
214.701
214.701
214.701
214.701
214.702
214.702
214.703
214.703
214.702
214.696
214.685
214.683
214.686
214.691
214.694
214.696
214.698
214.699
214.7
214.7
214.701
214.701
214.702
214.702
214.703
214.703
214.7
214.7
214.701
214.702
214.701
214.698
214.69
214.686
214.686
214.689
214.693
214.695
214.698
214.699
214.7
214.701
214.702
214.702
214.703
214.704
214.705
214.705
214.698
214.698
214.699
214.7
214.701
214.699
214.695
214.69
214.688
214.689
214.692
214.694
214.697
214.698
214.7
214.701
214.702
214.703
214.704
214.705
214.706
214.706
214.696
214.696
214.698
214.699
214.7
214.7
214.698
214.695
214.692
214.691
214.692
214.694
214.696
214.698
214.7
214.701
214.702
214.704
214.705
214.706
214.707
214.707
214.695
214.695
214.697
214.698
214.699
214.7
214.699
214.698
214.696
214.695
214.694
214.694
214.696
214.698
214.7
214.701
214.703
214.704
214.705
214.707
214.708
214.708
214.695
214.695
214.696
214.697
214.698
214.699
214.7
214.7
214.699
214.698
214.697
214.697
214.697
214.698
214.7
214.701
214.703
214.704
214.706
214.707
214.709
214.709
214.694
214.694
214.696
214.697
214.698
214.699
214.7
214.7
214.7
214.7
214.7
214.7
214.7
214.7
214.701
214.702
214.704
214.705
214.707
214.708
214.71
214.71
214.694
214.694
214.695
214.697
214.698
214.699
214.699
214.7
214.701
214.701
214.702
214.702
214.702
214.703
214.703
214.704
214.705
214.706
214.707
214.709
214.71
214.71
214.694
214.694
214.695
214.697
214.698
214.698
214.699
214.7
214.701
214.702
214.702
214.703
214.704
214.705
214.705
214.706
214.707
214.708
214.709
214.71
214.712
214.712
214.694
214.694
214.696
214.697
214.698
214.699
214.7
214.7
214.701
214.702
214.703
214.704
214.705
214.706
214.707
214.708
214.709
214.709
214.711
214.712
214.713
214.713
214.695
214.695
214.696
214.697
214.698
214.699
214.7
214.701
214.702
214.703
214.704
214.705
214.706
214.707
214.708
214.709
214.71
214.711
214.712
214.714
214.715
214.715
214.696
214.696
214.697
214.698
214.699
214.699
214.7
214.701
214.702
214.703
214.704
214.705
214.706
214.707
214.709
214.71
214.711
214.712
214.714
214.715
214.716
214.716
214.697
214.697
214.698
214.699
214.699
214.7
214.701
214.702
214.703
214.704
214.705
214.706
214.707
214.708
214.709
214.711
214.712
214.713
214.715
214.716
214.717
214.717
0
214.697
214.698
214.699
214.699
214.7
214.701
214.702
214.703
214.704
214.705
214.706
214.707
214.708
214.709
214.711
214.712
214.713
214.715
214.716
214.717
0
0
214.717
214.715
214.717
214.712
214.644
214.644
214.673
214.69
214.697
214.7
214.701
214.701
214.701
214.701
214.701
214.701
214.701
214.701
214.701
214.701
0
214.717
214.717
214.715
214.717
214.712
214.644
214.644
214.673
214.69
214.697
214.7
214.701
214.701
214.701
214.701
214.701
214.701
214.701
214.701
214.701
214.701
214.701
214.711
214.711
214.712
214.713
214.712
214.692
214.653
214.667
214.685
214.694
214.699
214.7
214.701
214.701
214.702
214.702
214.702
214.702
214.702
214.702
214.702
214.702
214.706
214.706
214.708
214.709
214.71
214.703
214.673
214.669
214.68
214.69
214.696
214.699
214.701
214.701
214.702
214.702
214.703
214.703
214.703
214.704
214.704
214.704
214.703
214.703
214.705
214.707
214.708
214.705
214.687
214.674
214.677
214.685
214.692
214.697
214.699
214.701
214.702
214.703
214.703
214.704
214.705
214.705
214.706
214.706
214.701
214.701
214.703
214.705
214.707
214.707
214.698
214.685
214.68
214.683
214.688
214.694
214.697
214.7
214.701
214.703
214.704
214.705
214.706
214.707
214.708
214.708
214.699
214.699
214.701
214.703
214.705
214.706
214.704
214.696
214.689
214.685
214.687
214.691
214.695
214.698
214.7
214.702
214.704
214.705
214.706
214.708
214.709
214.709
214.698
214.698
214.7
214.701
214.703
214.704
214.704
214.702
214.698
214.693
214.691
214.691
214.693
214.696
214.699
214.701
214.703
214.705
214.707
214.708
214.71
214.71
214.697
214.697
214.699
214.7
214.701
214.703
214.704
214.704
214.703
214.7
214.697
214.695
214.695
214.696
214.698
214.701
214.703
214.705
214.707
214.709
214.71
214.71
214.696
214.696
214.698
214.699
214.7
214.702
214.703
214.703
214.703
214.703
214.703
214.701
214.7
214.7
214.7
214.701
214.703
214.705
214.707
214.709
214.71
214.71
214.696
214.696
214.698
214.699
214.7
214.701
214.702
214.703
214.703
214.704
214.704
214.704
214.704
214.704
214.704
214.704
214.705
214.706
214.708
214.709
214.711
214.711
214.696
214.696
214.697
214.698
214.7
214.701
214.701
214.702
214.703
214.704
214.705
214.705
214.706
214.706
214.707
214.708
214.708
214.709
214.709
214.71
214.712
214.712
214.696
214.696
214.698
214.699
214.7
214.7
214.701
214.702
214.703
214.704
214.705
214.706
214.707
214.708
214.709
214.709
214.71
214.711
214.712
214.713
214.714
214.714
214.697
214.697
214.698
214.699
214.7
214.701
214.702
214.702
214.703
214.704
214.705
214.706
214.707
214.708
214.709
214.71
214.711
214.713
214.714
214.715
214.716
214.716
214.698
214.698
214.699
214.7
214.7
214.701
214.702
214.703
214.704
214.705
214.706
214.707
214.708
214.709
214.71
214.711
214.712
214.714
214.715
214.716
214.718
214.718
214.699
214.699
214.7
214.7
214.701
214.701
214.702
214.703
214.704
214.705
214.706
214.707
214.708
214.709
214.711
214.712
214.713
214.714
214.716
214.717
214.719
214.719
0
214.699
214.7
214.7
214.701
214.701
214.702
214.703
214.704
214.705
214.706
214.707
214.708
214.709
214.711
214.712
214.713
214.714
214.716
214.717
214.719
0
0
214.721
214.721
214.731
214.763
214.675
214.598
214.668
214.696
214.703
214.704
214.704
214.703
214.703
214.703
214.703
214.703
214.703
214.702
214.702
214.702
0
214.721
214.721
214.721
214.731
214.763
214.675
214.598
214.668
214.696
214.703
214.704
214.704
214.703
214.703
214.703
214.703
214.703
214.703
214.702
214.702
214.702
214.702
214.714
214.714
214.716
214.722
214.743
214.705
214.625
214.655
214.686
214.699
214.703
214.704
214.704
214.703
214.703
214.703
214.703
214.703
214.703
214.703
214.704
214.704
214.709
214.709
214.711
214.715
214.724
214.721
214.653
214.652
214.674
214.691
214.699
214.702
214.703
214.704
214.704
214.704
214.704
214.704
214.705
214.705
214.707
214.707
214.706
214.706
214.708
214.711
214.717
214.729
214.68
214.66
214.667
214.682
214.693
214.699
214.702
214.703
214.704
214.704
214.705
214.705
214.706
214.707
214.709
214.709
214.703
214.703
214.706
214.709
214.715
214.73
214.704
214.678
214.67
214.676
214.686
214.694
214.699
214.702
214.703
214.704
214.705
214.706
214.707
214.708
214.71
214.71
214.702
214.702
214.704
214.706
214.711
214.721
214.717
214.698
214.684
214.679
214.682
214.688
214.694
214.699
214.702
214.704
214.705
214.707
214.708
214.709
214.711
214.711
214.7
214.7
214.702
214.704
214.707
214.712
214.716
214.712
214.701
214.691
214.686
214.687
214.69
214.695
214.699
214.702
214.704
214.706
214.708
214.71
214.712
214.712
214.699
214.699
214.701
214.702
214.704
214.707
214.711
214.713
214.71
214.704
214.698
214.694
214.692
214.694
214.697
214.7
214.703
214.705
214.708
214.71
214.712
214.712
214.698
214.698
214.7
214.701
214.703
214.704
214.706
214.709
214.71
214.71
214.707
214.703
214.7
214.699
214.699
214.7
214.702
214.704
214.707
214.71
214.711
214.711
214.698
214.698
214.699
214.701
214.702
214.703
214.704
214.706
214.708
214.709
214.71
214.709
214.708
214.707
214.704
214.704
214.705
214.706
214.707
214.709
214.711
214.711
214.698
214.698
214.699
214.7
214.701
214.702
214.703
214.705
214.706
214.707
214.708
214.71
214.71
214.71
214.709
214.71
214.71
214.709
214.709
214.71
214.714
214.714
214.698
214.698
214.699
214.7
214.701
214.702
214.703
214.704
214.705
214.706
214.707
214.709
214.71
214.711
214.712
214.713
214.713
214.712
214.713
214.714
214.716
214.716
214.699
214.699
214.7
214.701
214.701
214.702
214.703
214.704
214.705
214.706
214.707
214.708
214.709
214.71
214.712
214.713
214.713
214.714
214.717
214.718
214.718
214.718
214.699
214.699
214.7
214.701
214.702
214.703
214.703
214.704
214.705
214.706
214.707
214.708
214.709
214.71
214.712
214.713
214.714
214.716
214.717
214.719
214.719
214.719
214.701
214.701
214.701
214.702
214.702
214.703
214.704
214.705
214.705
214.706
214.707
214.708
214.71
214.711
214.712
214.713
214.714
214.716
214.717
214.719
214.72
214.72
0
214.701
214.701
214.702
214.702
214.703
214.704
214.705
214.705
214.706
214.707
214.708
214.71
214.711
214.712
214.713
214.714
214.716
214.717
214.719
214.72
0
0
214.721
214.719
214.721
214.718
214.662
214.648
214.675
214.692
214.699
214.702
214.703
214.703
214.703
214.703
214.703
214.703
214.703
214.703
214.703
214.703
0
214.721
214.721
214.719
214.721
214.718
214.662
214.648
214.675
214.692
214.699
214.702
214.703
214.703
214.703
214.703
214.703
214.703
214.703
214.703
214.703
214.703
214.703
214.714
214.714
214.715
214.716
214.714
214.686
214.657
214.67
214.687
214.697
214.701
214.703
214.704
214.704
214.704
214.704
214.704
214.704
214.704
214.704
214.704
214.704
214.71
214.71
214.711
214.712
214.712
214.702
214.674
214.671
214.682
214.692
214.698
214.701
214.703
214.704
214.704
214.705
214.705
214.705
214.706
214.706
214.707
214.707
214.707
214.707
214.709
214.71
214.711
214.709
214.689
214.678
214.68
214.688
214.695
214.699
214.702
214.703
214.704
214.705
214.705
214.706
214.707
214.708
214.709
214.709
214.705
214.705
214.706
214.708
214.711
214.712
214.7
214.688
214.683
214.686
214.691
214.696
214.7
214.702
214.704
214.705
214.706
214.707
214.708
214.709
214.711
214.711
214.703
214.703
214.705
214.707
214.709
214.711
214.707
214.698
214.691
214.688
214.69
214.694
214.697
214.7
214.703
214.704
214.706
214.707
214.709
214.71
214.712
214.712
214.702
214.702
214.703
214.705
214.707
214.709
214.709
214.705
214.7
214.695
214.693
214.694
214.696
214.699
214.701
214.704
214.706
214.707
214.709
214.711
214.712
214.712
214.701
214.701
214.702
214.704
214.705
214.707
214.708
214.708
214.706
214.702
214.7
214.698
214.698
214.699
214.701
214.703
214.705
214.707
214.709
214.711
214.713
214.713
214.7
214.7
214.701
214.703
214.704
214.705
214.706
214.707
214.707
214.706
214.705
214.704
214.702
214.702
214.703
214.704
214.705
214.707
214.709
214.711
214.713
214.713
214.7
214.7
214.701
214.702
214.703
214.704
214.705
214.706
214.707
214.708
214.708
214.707
214.707
214.707
214.706
214.706
214.707
214.709
214.71
214.712
214.714
214.714
214.7
214.7
214.701
214.702
214.703
214.704
214.705
214.706
214.707
214.707
214.708
214.709
214.709
214.709
214.709
214.71
214.711
214.711
214.712
214.713
214.715
214.715
214.7
214.7
214.701
214.702
214.703
214.704
214.705
214.705
214.706
214.707
214.708
214.709
214.71
214.711
214.711
214.712
214.713
214.713
214.714
214.716
214.717
214.717
214.7
214.7
214.702
214.702
214.703
214.704
214.705
214.705
214.706
214.707
214.708
214.709
214.71
214.711
214.712
214.713
214.714
214.715
214.717
214.718
214.719
214.719
214.701
214.701
214.702
214.703
214.703
214.704
214.705
214.706
214.707
214.707
214.708
214.709
214.71
214.712
214.713
214.714
214.715
214.716
214.718
214.719
214.72
214.72
214.702
214.702
214.703
214.703
214.704
214.705
214.705
214.706
214.707
214.708
214.709
214.71
214.711
214.712
214.713
214.714
214.716
214.717
214.718
214.72
214.721
214.721
0
214.702
214.703
214.703
214.704
214.705
214.705
214.706
214.707
214.708
214.709
214.71
214.711
214.712
214.713
214.714
214.716