# vtk DataFile Version 3.0
FlowField
ASCII
DATASET STRUCTURED_GRID
DIMENSIONS 22 17 12 
POINTS 4488 double
0 0 0
0.1 0 0
0.2 0 0
0.3 0 0
0.4 0 0
0.5 0 0
0.6 0 0
0.7 0 0
0.8 0 0
0.9 0 0
1 0 0
1.1 0 0
1.2 0 0
1.3 0 0
1.4 0 0
1.5 0 0
1.6 0 0
1.7 0 0
1.8 0 0
1.9 0 0
2 0 0
2.1 0 0
0 0.1 0
0.1 0.1 0
0.2 0.1 0
0.3 0.1 0
0.4 0.1 0
0.5 0.1 0
0.6 0.1 0
0.7 0.1 0
0.8 0.1 0
0.9 0.1 0
1 0.1 0
1.1 0.1 0
1.2 0.1 0
1.3 0.1 0
1.4 0.1 0
1.5 0.1 0
1.6 0.1 0
1.7 0.1 0
1.8 0.1 0
1.9 0.1 0
2 0.1 0
2.1 0.1 0
0 0.2 0
0.1 0.2 0
0.2 0.2 0
0.3 0.2 0
0.4 0.2 0
0.5 0.2 0
0.6 0.2 0
0.7 0.2 0
0.8 0.2 0
0.9 0.2 0
1 0.2 0
1.1 0.2 0
1.2 0.2 0
1.3 0.2 0
1.4 0.2 0
1.5 0.2 0
1.6 0.2 0
1.7 0.2 0
1.8 0.2 0
1.9 0.2 0
2 0.2 0
2.1 0.2 0
0 0.3 0
0.1 0.3 0
0.2 0.3 0
0.3 0.3 0
0.4 0.3 0
0.5 0.3 0
0.6 0.3 0
0.7 0.3 0
0.8 0.3 0
0.9 0.3 0
1 0.3 0
1.1 0.3 0
1.2 0.3 0
1.3 0.3 0
1.4 0.3 0
1.5 0.3 0
1.6 0.3 0
1.7 0.3 0
1.8 0.3 0
1.9 0.3 0
2 0.3 0
2.1 0.3 0
0 0.4 0
0.1 0.4 0
0.2 0.4 0
0.3 0.4 0
0.4 0.4 0
0.5 0.4 0
0.6 0.4 0
0.7 0.4 0
0.8 0.4 0
0.9 0.4 0
1 0.4 0
1.1 0.4 0
1.2 0.4 0
1.3 0.4 0
1.4 0.4 0
1.5 0.4 0
1.6 0.4 0
1.7 0.4 0
1.8 0.4 0
1.9 0.4 0
2 0.4 0
2.1 0.4 0
0 0.5 0
0.1 0.5 0
0.2 0.5 0
0.3 0.5 0
0.4 0.5 0
0.5 0.5 0
0.6 0.5 0
0.7 0.5 0
0.8 0.5 0
0.9 0.5 0
1 0.5 0
1.1 0.5 0
1.2 0.5 0
1.3 0.5 0
1.4 0.5 0
1.5 0.5 0
1.6 0.5 0
1.7 0.5 0
1.8 0.5 0
1.9 0.5 0
2 0.5 0
2.1 0.5 0
0 0.6 0
0.1 0.6 0
0.2 0.6 0
0.3 0.6 0
0.4 0.6 0
0.5 0.6 0
0.6 0.6 0
0.7 0.6 0
0.8 0.6 0
0.9 0.6 0
1 0.6 0
1.1 0.6 0
1.2 0.6 0
1.3 0.6 0
1.4 0.6 0
1.5 0.6 0
1.6 0.6 0
1.7 0.6 0
1.8 0.6 0
1.9 0.6 0
2 0.6 0
2.1 0.6 0
0 0.7 0
0.1 0.7 0
0.2 0.7 0
0.3 0.7 0
0.4 0.7 0
0.5 0.7 0
0.6 0.7 0
0.7 0.7 0
0.8 0.7 0
0.9 0.7 0
1 0.7 0
1.1 0.7 0
1.2 0.7 0
1.3 0.7 0
1.4 0.7 0
1.5 0.7 0
1.6 0.7 0
1.7 0.7 0
1.8 0.7 0
1.9 0.7 0
2 0.7 0
2.1 0.7 0
0 0.8 0
0.1 0.8 0
0.2 0.8 0
0.3 0.8 0
0.4 0.8 0
0.5 0.8 0
0.6 0.8 0
0.7 0.8 0
0.8 0.8 0
0.9 0.8 0
1 0.8 0
1.1 0.8 0
1.2 0.8 0
1.3 0.8 0
1.4 0.8 0
1.5 0.8 0
1.6 0.8 0
1.7 0.8 0
1.8 0.8 0
1.9 0.8 0
2 0.8 0
2.1 0.8 0
0 0.9 0
0.1 0.9 0
0.2 0.9 0
0.3 0.9 0
0.4 0.9 0
0.5 0.9 0
0.6 0.9 0
0.7 0.9 0
0.8 0.9 0
0.9 0.9 0
1 0.9 0
1.1 0.9 0
1.2 0.9 0
1.3 0.9 0
1.4 0.9 0
1.5 0.9 0
1.6 0.9 0
1.7 0.9 0
1.8 0.9 0
1.9 0.9 0
2 0.9 0
2.1 0.9 0
0 1 0
0.1 1 0
0.2 1 0
0.3 1 0
0.4 1 0
0.5 1 0
0.6 1 0
0.7 1 0
0.8 1 0
0.9 1 0
1 1 0
1.1 1 0
1.2 1 0
1.3 1 0
1.4 1 0
1.5 1 0
1.6 1 0
1.7 1 0
1.8 1 0
1.9 1 0
2 1 0
2.1 1 0
0 1.1 0
0.1 1.1 0
0.2 1.1 0
0.3 1.1 0
0.4 1.1 0
0.5 1.1 0
0.6 1.1 0
0.7 1.1 0
0.8 1.1 0
0.9 1.1 0
1 1.1 0
1.1 1.1 0
1.2 1.1 0
1.3 1.1 0
1.4 1.1 0
1.5 1.1 0
1.6 1.1 0
1.7 1.1 0
1.8 1.1 0
1.9 1.1 0
2 1.1 0
2.1 1.1 0
0 1.2 0
0.1 1.2 0
0.2 1.2 0
0.3 1.2 0
0.4 1.2 0
0.5 1.2 0
0.6 1.2 0
0.7 1.2 0
0.8 1.2 0
0.9 1.2 0
1 1.2 0
1.1 1.2 0
1.2 1.2 0
1.3 1.2 0
1.4 1.2 0
1.5 1.2 0
1.6 1.2 0
1.7 1.2 0
1.8 1.2 0
1.9 1.2 0
2 1.2 0
2.1 1.2 0
0 1.3 0
0.1 1.3 0
0.2 1.3 0
0.3 1.3 0
0.4 1.3 0
0.5 1.3 0
0.6 1.3 0
0.7 1.3 0
0.8 1.3 0
0.9 1.3 0
1 1.3 0
1.1 1.3 0
1.2 1.3 0
1.3 1.3 0
1.4 1.3 0
1.5 1.3 0
1.6 1.3 0
1.7 1.3 0
1.8 1.3 0
1.9 1.3 0
2 1.3 0
2.1 1.3 0
0 1.4 0
0.1 1.4 0
0.2 1.4 0
0.3 1.4 0
0.4 1.4 0
0.5 1.4 0
0.6 1.4 0
0.7 1.4 0
0.8 1.4 0
0.9 1.4 0
1 1.4 0
1.1 1.4 0
1.2 1.4 0
1.3 1.4 0
1.4 1.4 0
1.5 1.4 0
1.6 1.4 0
1.7 1.4 0
1.8 1.4 0
1.9 1.4 0
2 1.4 0
2.1 1.4 0
0 1.5 0
0.1 1.5 0
0.2 1.5 0
0.3 1.5 0
0.4 1.5 0
0.5 1.5 0
0.6 1.5 0
0.7 1.5 0
0.8 1.5 0
0.9 1.5 0
1 1.5 0
1.1 1.5 0
1.2 1.5 0
1.3 1.5 0
1.4 1.5 0
1.5 1.5 0
1.6 1.5 0
1.7 1.5 0
1.8 1.5 0
1.9 1.5 0
2 1.5 0
2.1 1.5 0
0 1.6 0
0.1 1.6 0
0.2 1.6 0
0.3 1.6 0
0.4 1.6 0
0.5 1.6 0
0.6 1.6 0
0.7 1.6 0
0.8 1.6 0
0.9 1.6 0
1 1.6 0
1.1 1.6 0
1.2 1.6 0
1.3 1.6 0
1.4 1.6 0
1.5 1.6 0
1.6 1.6 0
1.7 1.6 0
1.8 1.6 0
1.9 1.6 0
2 1.6 0
2.1 1.6 0
0 0 0.1
0.1 0 0.1
0.2 0 0.1
0.3 0 0.1
0.4 0 0.1
0.5 0 0.1
0.6 0 0.1
0.7 0 0.1
0.8 0 0.1
0.9 0 0.1
1 0 0.1
1.1 0 0.1
1.2 0 0.1
1.3 0 0.1
1.4 0 0.1
1.5 0 0.1
1.6 0 0.1
1.7 0 0.1
1.8 0 0.1
1.9 0 0.1
2 0 0.1
2.1 0 0.1
0 0.1 0.1
0.1 0.1 0.1
0.2 0.1 0.1
0.3 0.1 0.1
0.4 0.1 0.1
0.5 0.1 0.1
0.6 0.1 0.1
0.7 0.1 0.1
0.8 0.1 0.1
0.9 0.1 0.1
1 0.1 0.1
1.1 0.1 0.1
1.2 0.1 0.1
1.3 0.1 0.1
1.4 0.1 0.1
1.5 0.1 0.1
1.6 0.1 0.1
1.7 0.1 0.1
1.8 0.1 0.1
1.9 0.1 0.1
2 0.1 0.1
2.1 0.1 0.1
0 0.2 0.1
0.1 0.2 0.1
0.2 0.2 0.1
0.3 0.2 0.1
0.4 0.2 0.1
0.5 0.2 0.1
0.6 0.2 0.1
0.7 0.2 0.1
0.8 0.2 0.1
0.9 0.2 0.1
1 0.2 0.1
1.1 0.2 0.1
1.2 0.2 0.1
1.3 0.2 0.1
1.4 0.2 0.1
1.5 0.2 0.1
1.6 0.2 0.1
1.7 0.2 0.1
1.8 0.2 0.1
1.9 0.2 0.1
2 0.2 0.1
2.1 0.2 0.1
0 0.3 0.1
0.1 0.3 0.1
0.2 0.3 0.1
0.3 0.3 0.1
0.4 0.3 0.1
0.5 0.3 0.1
0.6 0.3 0.1
0.7 0.3 0.1
0.8 0.3 0.1
0.9 0.3 0.1
1 0.3 0.1
1.1 0.3 0.1
1.2 0.3 0.1
1.3 0.3 0.1
1.4 0.3 0.1
1.5 0.3 0.1
1.6 0.3 0.1
1.7 0.3 0.1
1.8 0.3 0.1
1.9 0.3 0.1
2 0.3 0.1
2.1 0.3 0.1
0 0.4 0.1
0.1 0.4 0.1
0.2 0.4 0.1
0.3 0.4 0.1
0.4 0.4 0.1
0.5 0.4 0.1
0.6 0.4 0.1
0.7 0.4 0.1
0.8 0.4 0.1
0.9 0.4 0.1
1 0.4 0.1
1.1 0.4 0.1
1.2 0.4 0.1
1.3 0.4 0.1
1.4 0.4 0.1
1.5 0.4 0.1
1.6 0.4 0.1
1.7 0.4 0.1
1.8 0.4 0.1
1.9 0.4 0.1
2 0.4 0.1
2.1 0.4 0.1
0 0.5 0.1
0.1 0.5 0.1
0.2 0.5 0.1
0.3 0.5 0.1
0.4 0.5 0.1
0.5 0.5 0.1
0.6 0.5 0.1
0.7 0.5 0.1
0.8 0.5 0.1
0.9 0.5 0.1
1 0.5 0.1
1.1 0.5 0.1
1.2 0.5 0.1
1.3 0.5 0.1
1.4 0.5 0.1
1.5 0.5 0.1
1.6 0.5 0.1
1.7 0.5 0.1
1.8 0.5 0.1
1.9 0.5 0.1
2 0.5 0.1
2.1 0.5 0.1
0 0.6 0.1
0.1 0.6 0.1
0.2 0.6 0.1
0.3 0.6 0.1
0.4 0.6 0.1
0.5 0.6 0.1
0.6 0.6 0.1
0.7 0.6 0.1
0.8 0.6 0.1
0.9 0.6 0.1
1 0.6 0.1
1.1 0.6 0.1
1.2 0.6 0.1
1.3 0.6 0.1
1.4 0.6 0.1
1.5 0.6 0.1
1.6 0.6 0.1
1.7 0.6 0.1
1.8 0.6 0.1
1.9 0.6 0.1
2 0.6 0.1
2.1 0.6 0.1
0 0.7 0.1
0.1 0.7 0.1
0.2 0.7 0.1
0.3 0.7 0.1
0.4 0.7 0.1
0.5 0.7 0.1
0.6 0.7 0.1
0.7 0.7 0.1
0.8 0.7 0.1
0.9 0.7 0.1
1 0.7 0.1
1.1 0.7 0.1
1.2 0.7 0.1
1.3 0.7 0.1
1.4 0.7 0.1
1.5 0.7 0.1
1.6 0.7 0.1
1.7 0.7 0.1
1.8 0.7 0.1
1.9 0.7 0.1
2 0.7 0.1
2.1 0.7 0.1
0 0.8 0.1
0.1 0.8 0.1
0.2 0.8 0.1
0.3 0.8 0.1
0.4 0.8 0.1
0.5 0.8 0.1
0.6 0.8 0.1
0.7 0.8 0.1
0.8 0.8 0.1
0.9 0.8 0.1
1 0.8 0.1
1.1 0.8 0.1
1.2 0.8 0.1
1.3 0.8 0.1
1.4 0.8 0.1
1.5 0.8 0.1
1.6 0.8 0.1
1.7 0.8 0.1
1.8 0.8 0.1
1.9 0.8 0.1
2 0.8 0.1
2.1 0.8 0.1
0 0.9 0.1
0.1 0.9 0.1
0.2 0.9 0.1
0.3 0.9 0.1
0.4 0.9 0.1
0.5 0.9 0.1
0.6 0.9 0.1
0.7 0.9 0.1
0.8 0.9 0.1
0.9 0.9 0.1
1 0.9 0.1
1.1 0.9 0.1
1.2 0.9 0.1
1.3 0.9 0.1
1.4 0.9 0.1
1.5 0.9 0.1
1.6 0.9 0.1
1.7 0.9 0.1
1.8 0.9 0.1
1.9 0.9 0.1
2 0.9 0.1
2.1 0.9 0.1
0 1 0.1
0.1 1 0.1
0.2 1 0.1
0.3 1 0.1
0.4 1 0.1
0.5 1 0.1
0.6 1 0.1
0.7 1 0.1
0.8 1 0.1
0.9 1 0.1
1 1 0.1
1.1 1 0.1
1.2 1 0.1
1.3 1 0.1
1.4 1 0.1
1.5 1 0.1
1.6 1 0.1
1.7 1 0.1
1.8 1 0.1
1.9 1 0.1
2 1 0.1
2.1 1 0.1
0 1.1 0.1
0.1 1.1 0.1
0.2 1.1 0.1
0.3 1.1 0.1
0.4 1.1 0.1
0.5 1.1 0.1
0.6 1.1 0.1
0.7 1.1 0.1
0.8 1.1 0.1
0.9 1.1 0.1
1 1.1 0.1
1.1 1.1 0.1
1.2 1.1 0.1
1.3 1.1 0.1
1.4 1.1 0.1
1.5 1.1 0.1
1.6 1.1 0.1
1.7 1.1 0.1
1.8 1.1 0.1
1.9 1.1 0.1
2 1.1 0.1
2.1 1.1 0.1
0 1.2 0.1
0.1 1.2 0.1
0.2 1.2 0.1
0.3 1.2 0.1
0.4 1.2 0.1
0.5 1.2 0.1
0.6 1.2 0.1
0.7 1.2 0.1
0.8 1.2 0.1
0.9 1.2 0.1
1 1.2 0.1
1.1 1.2 0.1
1.2 1.2 0.1
1.3 1.2 0.1
1.4 1.2 0.1
1.5 1.2 0.1
1.6 1.2 0.1
1.7 1.2 0.1
1.8 1.2 0.1
1.9 1.2 0.1
2 1.2 0.1
2.1 1.2 0.1
0 1.3 0.1
0.1 1.3 0.1
0.2 1.3 0.1
0.3 1.3 0.1
0.4 1.3 0.1
0.5 1.3 0.1
0.6 1.3 0.1
0.7 1.3 0.1
0.8 1.3 0.1
0.9 1.3 0.1
1 1.3 0.1
1.1 1.3 0.1
1.2 1.3 0.1
1.3 1.3 0.1
1.4 1.3 0.1
1.5 1.3 0.1
1.6 1.3 0.1
1.7 1.3 0.1
1.8 1.3 0.1
1.9 1.3 0.1
2 1.3 0.1
2.1 1.3 0.1
0 1.4 0.1
0.1 1.4 0.1
0.2 1.4 0.1
0.3 1.4 0.1
0.4 1.4 0.1
0.5 1.4 0.1
0.6 1.4 0.1
0.7 1.4 0.1
0.8 1.4 0.1
0.9 1.4 0.1
1 1.4 0.1
1.1 1.4 0.1
1.2 1.4 0.1
1.3 1.4 0.1
1.4 1.4 0.1
1.5 1.4 0.1
1.6 1.4 0.1
1.7 1.4 0.1
1.8 1.4 0.1
1.9 1.4 0.1
2 1.4 0.1
2.1 1.4 0.1
0 1.5 0.1
0.1 1.5 0.1
0.2 1.5 0.1
0.3 1.5 0.1
0.4 1.5 0.1
0.5 1.5 0.1
0.6 1.5 0.1
0.7 1.5 0.1
0.8 1.5 0.1
0.9 1.5 0.1
1 1.5 0.1
1.1 1.5 0.1
1.2 1.5 0.1
1.3 1.5 0.1
1.4 1.5 0.1
1.5 1.5 0.1
1.6 1.5 0.1
1.7 1.5 0.1
1.8 1.5 0.1
1.9 1.5 0.1
2 1.5 0.1
2.1 1.5 0.1
0 1.6 0.1
0.1 1.6 0.1
0.2 1.6 0.1
0.3 1.6 0.1
0.4 1.6 0.1
0.5 1.6 0.1
0.6 1.6 0.1
0.7 1.6 0.1
0.8 1.6 0.1
0.9 1.6 0.1
1 1.6 0.1
1.1 1.6 0.1
1.2 1.6 0.1
1.3 1.6 0.1
1.4 1.6 0.1
1.5 1.6 0.1
1.6 1.6 0.1
1.7 1.6 0.1
1.8 1.6 0.1
1.9 1.6 0.1
2 1.6 0.1
2.1 1.6 0.1
0 0 0.2
0.1 0 0.2
0.2 0 0.2
0.3 0 0.2
0.4 0 0.2
0.5 0 0.2
0.6 0 0.2
0.7 0 0.2
0.8 0 0.2
0.9 0 0.2
1 0 0.2
1.1 0 0.2
1.2 0 0.2
1.3 0 0.2
1.4 0 0.2
1.5 0 0.2
1.6 0 0.2
1.7 0 0.2
1.8 0 0.2
1.9 0 0.2
2 0 0.2
2.1 0 0.2
0 0.1 0.2
0.1 0.1 0.2
0.2 0.1 0.2
0.3 0.1 0.2
0.4 0.1 0.2
0.5 0.1 0.2
0.6 0.1 0.2
0.7 0.1 0.2
0.8 0.1 0.2
0.9 0.1 0.2
1 0.1 0.2
1.1 0.1 0.2
1.2 0.1 0.2
1.3 0.1 0.2
1.4 0.1 0.2
1.5 0.1 0.2
1.6 0.1 0.2
1.7 0.1 0.2
1.8 0.1 0.2
1.9 0.1 0.2
2 0.1 0.2
2.1 0.1 0.2
0 0.2 0.2
0.1 0.2 0.2
0.2 0.2 0.2
0.3 0.2 0.2
0.4 0.2 0.2
0.5 0.2 0.2
0.6 0.2 0.2
0.7 0.2 0.2
0.8 0.2 0.2
0.9 0.2 0.2
1 0.2 0.2
1.1 0.2 0.2
1.2 0.2 0.2
1.3 0.2 0.2
1.4 0.2 0.2
1.5 0.2 0.2
1.6 0.2 0.2
1.7 0.2 0.2
1.8 0.2 0.2
1.9 0.2 0.2
2 0.2 0.2
2.1 0.2 0.2
0 0.3 0.2
0.1 0.3 0.2
0.2 0.3 0.2
0.3 0.3 0.2
0.4 0.3 0.2
0.5 0.3 0.2
0.6 0.3 0.2
0.7 0.3 0.2
0.8 0.3 0.2
0.9 0.3 0.2
1 0.3 0.2
1.1 0.3 0.2
1.2 0.3 0.2
1.3 0.3 0.2
1.4 0.3 0.2
1.5 0.3 0.2
1.6 0.3 0.2
1.7 0.3 0.2
1.8 0.3 0.2
1.9 0.3 0.2
2 0.3 0.2
2.1 0.3 0.2
0 0.4 0.2
0.1 0.4 0.2
0.2 0.4 0.2
0.3 0.4 0.2
0.4 0.4 0.2
0.5 0.4 0.2
0.6 0.4 0.2
0.7 0.4 0.2
0.8 0.4 0.2
0.9 0.4 0.2
1 0.4 0.2
1.1 0.4 0.2
1.2 0.4 0.2
1.3 0.4 0.2
1.4 0.4 0.2
1.5 0.4 0.2
1.6 0.4 0.2
1.7 0.4 0.2
1.8 0.4 0.2
1.9 0.4 0.2
2 0.4 0.2
2.1 0.4 0.2
0 0.5 0.2
0.1 0.5 0.2
0.2 0.5 0.2
0.3 0.5 0.2
0.4 0.5 0.2
0.5 0.5 0.2
0.6 0.5 0.2
0.7 0.5 0.2
0.8 0.5 0.2
0.9 0.5 0.2
1 0.5 0.2
1.1 0.5 0.2
1.2 0.5 0.2
1.3 0.5 0.2
1.4 0.5 0.2
1.5 0.5 0.2
1.6 0.5 0.2
1.7 0.5 0.2
1.8 0.5 0.2
1.9 0.5 0.2
2 0.5 0.2
2.1 0.5 0.2
0 0.6 0.2
0.1 0.6 0.2
0.2 0.6 0.2
0.3 0.6 0.2
0.4 0.6 0.2
0.5 0.6 0.2
0.6 0.6 0.2
0.7 0.6 0.2
0.8 0.6 0.2
0.9 0.6 0.2
1 0.6 0.2
1.1 0.6 0.2
1.2 0.6 0.2
1.3 0.6 0.2
1.4 0.6 0.2
1.5 0.6 0.2
1.6 0.6 0.2
1.7 0.6 0.2
1.8 0.6 0.2
1.9 0.6 0.2
2 0.6 0.2
2.1 0.6 0.2
0 0.7 0.2
0.1 0.7 0.2
0.2 0.7 0.2
0.3 0.7 0.2
0.4 0.7 0.2
0.5 0.7 0.2
0.6 0.7 0.2
0.7 0.7 0.2
0.8 0.7 0.2
0.9 0.7 0.2
1 0.7 0.2
1.1 0.7 0.2
1.2 0.7 0.2
1.3 0.7 0.2
1.4 0.7 0.2
1.5 0.7 0.2
1.6 0.7 0.2
1.7 0.7 0.2
1.8 0.7 0.2
1.9 0.7 0.2
2 0.7 0.2
2.1 0.7 0.2
0 0.8 0.2
0.1 0.8 0.2
[...]
POINT_DATA 4488

SCALARS pressure double
LOOKUP_TABLE pressure
0
0
0
0
0
0
0
0
0
0
0
0
0
0
0
0
0
0
0
0
0
0
0
114.888
114.884
114.881
114.879
114.878
114.875
114.874
114.874
114.873
114.872
114.871
114.87
114.871
114.869
114.868
114.87
114.87
114.868
114.866
114.865
0
0
114.882
114.882
114.88
114.879
114.877
114.875
114.874
114.873
114.873
114.872
114.871
114.871
114.87
114.87
114.869
114.869
114.87
114.869
114.867
114.866
0
0
114.879
114.88
114.879
114.878
114.875
114.875
114.874
114.873
114.873
114.872
114.871
114.872
114.871
114.87
114.87
114.87
114.87
114.869
114.869
114.868
0
0
114.877
114.878
114.878
114.877
114.875
114.874
114.874
114.873
114.872
114.871
114.87
114.874
114.872
114.871
114.871
114.871
114.87
114.87
114.87
114.87
0
0
114.876
114.877
114.877
114.876
114.876
114.873
114.873
114.873
114.873
114.872
114.871
114.872
114.872
114.872
114.871
114.871
114.871
114.871
114.871
114.871
0
0
114.874
114.875
114.875
114.875
114.874
114.873
114.873
114.874
114.874
114.872
114.871
114.871
114.873
114.872
114.872
114.872
114.872
114.872
114.872
114.871
0
0
114.873
114.874
114.874
114.874
114.873
114.874
114.874
114.873
114.873
114.873
114.872
114.872
114.873
114.872
114.872
114.872
114.872
114.872
114.872
114.872
0
0
114.872
114.873
114.874
114.874
114.875
114.874
114.874
114.873
114.873
114.873
114.873
114.873
114.873
114.873
114.873
114.873
114.873
114.873
114.872
114.872
0
0
114.871
114.873
114.873
114.874
114.874
114.874
114.874
114.873
114.873
114.873
114.873
114.873
114.873
114.873
114.873
114.873
114.873
114.873
114.873
114.873
0
0
114.87
114.873
114.873
114.873
114.874
114.874
114.874
114.873
114.873
114.873
114.873
114.873
114.873
114.873
114.873
114.873
114.873
114.873
114.873
114.873
0
0
114.871
114.872
114.873
114.873
114.873
114.873
114.873
114.873
114.873
114.873
114.873
114.873
114.874
114.874
114.874
114.873
114.873
114.873
114.874
114.874
0
0
114.871
114.872
114.872
114.873
114.873
114.873
114.873
114.873
114.873
114.873
114.873
114.873
114.874
114.874
114.875
114.872
114.873
114.874
114.874
114.874
0
0
114.871
114.871
114.872
114.872
114.873
114.873
114.873
114.873
114.873
114.873
114.873
114.873
114.873
114.874
114.874
114.874
114.874
114.874
114.874
114.874
0
0
114.871
114.871
114.872
114.872
114.872
114.873
114.873
114.873
114.873
114.873
114.873
114.873
114.874
114.874
114.874
114.874
114.874
114.874
114.875
114.875
0
0
114.871
114.871
114.872
114.872
114.872
114.872
114.873
114.873
114.873
114.873
114.873
114.874
114.874
114.874
114.874
114.874
114.875
114.875
114.875
114.875
0
0
0
0
0
0
0
0
0
0
0
0
0
0
0
0
0
0
0
0
0
0
0
0
114.888
114.884
114.881
114.879
114.878
114.875
114.874
114.874
114.873
114.872
114.871
114.87
114.871
114.869
114.868
114.87
114.87
114.868
114.866
114.865
0
114.888
114.888
114.884
114.881
114.879
114.878
114.875
114.874
114.874
114.873
114.872
114.871
114.87
114.871
114.869
114.868
114.87
114.87
114.868
114.866
114.865
114.865
114.882
114.882
114.882
114.88
114.879
114.877
114.875
114.874
114.873
114.873
114.872
114.871
114.871
114.87
114.87
114.869
114.869
114.87
114.869
114.867
114.866
114.866
114.879
114.879
114.88
114.879
114.878
114.875
114.875
114.874
114.873
114.873
114.872
114.871
114.872
114.871
114.87
114.87
114.87
114.87
114.869
114.869
114.868
114.868
114.877
114.877
114.878
114.878
114.877
114.875
114.874
114.874
114.873
114.872
114.871
114.87
114.874
114.872
114.871
114.871
114.871
114.87
114.87
114.87
114.87
114.87
114.876
114.876
114.877
114.877
114.876
114.876
114.873
114.873
114.873
114.873
114.872
114.871
114.872
114.872
114.872
114.871
114.871
114.871
114.871
114.871
114.871
114.871
114.874
114.874
114.875
114.875
114.875
114.874
114.873
114.873
114.874
114.874
114.872
114.871
114.871
114.873
114.872
114.872
114.872
114.872
114.872
114.872
114.871
114.871
114.873
114.873
114.874
114.874
114.874
114.873
114.874
114.874
114.873
114.873
114.873
114.872
114.872
114.873
114.872
114.872
114.872
114.872
114.872
114.872
114.872
114.872
114.872
114.872
114.873
114.874
114.874
114.875
114.874
114.874
114.873
114.873
114.873
114.873
114.873
114.873
114.873
114.873
114.873
114.873
114.873
114.872
114.872
114.872
114.871
114.871
114.873
114.873
114.874
114.874
114.874
114.874
114.873
114.873
114.873
114.873
114.873
114.873
114.873
114.873
114.873
114.873
114.873
114.873
114.873
114.873
114.87
114.87
114.873
114.873
114.873
114.874
114.874
114.874
114.873
114.873
114.873
114.873
114.873
114.873
114.873
114.873
114.873
114.873
114.873
114.873
114.873
114.873
114.871
114.871
114.872
114.873
114.873
114.873
114.873
114.873
114.873
114.873
114.873
114.873
114.873
114.874
114.874
114.874
114.873
114.873
114.873
114.874
114.874
114.874
114.871
114.871
114.872
114.872
114.873
114.873
114.873
114.873
114.873
114.873
114.873
114.873
114.873
114.874
114.874
114.875
114.872
114.873
114.874
114.874
114.874
114.874
114.871
114.871
114.871
114.872
114.872
114.873
114.873
114.873
114.873
114.873
114.873
114.873
114.873
114.873
114.874
114.874
114.874
114.874
114.874
114.874
114.874
114.874
114.871
114.871
114.871
114.872
114.872
114.872
114.873
114.873
114.873
114.873
114.873
114.873
114.873
114.874
114.874
114.874
114.874
114.874
114.874
114.875
114.875
114.875
114.871
114.871
114.871
114.872
114.872
114.872
114.872
114.873
114.873
114.873
114.873
114.873
114.874
114.874
114.874
114.874
114.874
114.875
114.875
114.875
114.875
114.875
0
114.871
114.871
114.872
114.872
114.872
114.872
114.873
114.873
114.873
114.873
114.873
114.874
114.874
114.874
114.874
114.874
114.875
114.875
114.875
114.875
0
0
114.892
114.887
114.884
114.88
114.872
114.868
114.869
114.871
114.872
114.872
114.872
114.872
114.871
114.87
114.87
114.87
114.869
114.868
114.866
114.865
0
114.892
114.892
114.887
114.884
114.88
114.872
114.868
114.869
114.871
114.872
114.872
114.872
114.872
114.871
114.87
114.87
114.87
114.869
114.868
114.866
114.865
114.865
114.886
114.886
114.885
114.883
114.88
114.874
114.87
114.869
114.87
114.871
114.871
114.872
114.871
114.871
114.87
114.87
114.87
114.869
114.868
114.867
114.866
114.866
114.883
114.883
114.883
114.882
114.879
114.876
114.871
114.869
114.869
114.87
114.871
114.871
114.871
114.871
114.871
114.87
114.87
114.87
114.869
114.868
114.868
114.868
114.88
114.88
114.88
114.88
114.879
114.876
114.873
114.87
114.87
114.87
114.87
114.871
114.872
114.872
114.871
114.871
114.871
114.87
114.87
114.87
114.869
114.869
114.878
114.878
114.879
114.879
114.878
114.877
114.874
114.872
114.87
114.87
114.87
114.87
114.871
114.871
114.871
114.871
114.871
114.871
114.871
114.871
114.87
114.87
114.877
114.877
114.877
114.877
114.877
114.876
114.875
114.873
114.872
114.871
114.87
114.87
114.871
114.871
114.871
114.871
114.871
114.871
114.871
114.871
114.871
114.871
114.875
114.875
114.876
114.876
114.876
114.876
114.875
114.874
114.873
114.872
114.871
114.871
114.871
114.871
114.871
114.871
114.872
114.872
114.872
114.872
114.871
114.871
114.874
114.874
114.875
114.875
114.876
114.876
114.875
114.875
114.874
114.873
114.872
114.872
114.871
114.871
114.871
114.872
114.872
114.872
114.872
114.872
114.872
114.872
114.873
114.873
114.874
114.875
114.875
114.875
114.875
114.875
114.874
114.874
114.873
114.873
114.872
114.872
114.872
114.872
114.872
114.872
114.872
114.872
114.872
114.872
114.872
114.872
114.873
114.874
114.874
114.875
114.875
114.874
114.874
114.874
114.874
114.873
114.873
114.873
114.873
114.873
114.872
114.872
114.873
114.873
114.872
114.872
114.872
114.872
114.873
114.873
114.874
114.874
114.874
114.874
114.874
114.874
114.874
114.874
114.874
114.873
114.873
114.873
114.873
114.873
114.873
114.873
114.873
114.873
114.872
114.872
114.872
114.873
114.873
114.874
114.874
114.874
114.874
114.874
114.874
114.874
114.874
114.874
114.874
114.874
114.873
114.873
114.873
114.874
114.874
114.874
114.871
114.871
114.872
114.873
114.873
114.873
114.873
114.873
114.874
114.874
114.874
114.874
114.874
114.874
114.874
114.874
114.874
114.874
114.874
114.874
114.874
114.874
114.871
114.871
114.872
114.872
114.873
114.873
114.873
114.873
114.873
114.873
114.873
114.874
114.874
114.874
114.874
114.874
114.874
114.874
114.874
114.874
114.874
114.874
114.872
114.872
114.872
114.872
114.872
114.872
114.873
114.873
114.873
114.873
114.873
114.873
114.874
114.874
114.874
114.874
114.874
114.874
114.875
114.875
114.875
114.875
0
114.872
114.872
114.872
114.872
114.872
114.873
114.873
114.873
114.873
114.873
114.873
114.874
114.874
114.874
114.874
114.874
114.874
114.875
114.875
114.875
0
0
114.896
114.892
114.889
114.882
114.861
114.855
114.861
114.868
114.871
114.873
114.873
114.873
114.872
114.871
114.87
114.87
114.869
114.868
114.866
114.865
0
114.896
114.896
114.892
114.889
114.882
114.861
114.855
114.861
114.868
114.871
114.873
114.873
114.873
114.872
114.871
114.87
114.87
114.869
114.868
114.866
114.865
114.865
114.89
114.89
114.889
114.887
114.883
114.871
114.859
114.86
114.865
114.869
114.872
114.872
114.872
114.872
114.871
114.87
114.87
114.869
114.868
114.867
114.866
114.866
114.886
114.886
114.886
114.885
114.883
114.876
114.865
114.862
114.864
114.868
114.87
114.871
114.872
114.872
114.871
114.871
114.87
114.87
114.869
114.868
114.868
114.868
114.883
114.883
114.883
114.883
114.882
114.878
114.87
114.864
114.864
114.866
114.868
114.87
114.871
114.871
114.871
114.871
114.871
114.87
114.87
114.869
114.869
114.869
114.881
114.881
114.881
114.882
114.881
114.879
114.874
114.869
114.866
114.866
114.867
114.869
114.87
114.871
114.871
114.871
114.871
114.871
114.87
114.87
114.87
114.87
114.879
114.879
114.879
114.88
114.88
114.879
114.877
114.873
114.869
114.867
114.867
114.868
114.869
114.87
114.87
114.871
114.871
114.871
114.871
114.871
114.871
114.871
114.877
114.877
114.878
114.878
114.879
114.879
114.877
114.875
114.873
114.87
114.869
114.868
114.869
114.869
114.87
114.87
114.871
114.871
114.871
114.871
114.871
114.871
114.876
114.876
114.876
114.877
114.877
114.878
114.877
114.876
114.875
114.873
114.871
114.87
114.87
114.87
114.87
114.87
114.871
114.871
114.871
114.871
114.871
114.871
114.875
114.875
114.875
114.876
114.876
114.877
114.876
114.876
114.876
114.875
114.874
114.872
114.871
114.871
114.871
114.871
114.871
114.871
114.871
114.872
114.871
114.871
114.874
114.874
114.874
114.875
114.875
114.876
114.876
114.876
114.875
114.875
114.874
114.874
114.873
114.872
114.872
114.872
114.871
114.871
114.872
114.872
114.872
114.872
114.873
114.873
114.874
114.874
114.875
114.875
114.875
114.875
114.875
114.875
114.875
114.874
114.874
114.874
114.873
114.872
114.872
114.872
114.872
114.873
114.872
114.872
114.873
114.873
114.873
114.874
114.874
114.874
114.874
114.874
114.874
114.874
114.874
114.874
114.874
114.874
114.873
114.873
114.873
114.873
114.873
114.873
114.873
114.873
114.872
114.872
114.873
114.873
114.873
114.874
114.874
114.874
114.874
114.874
114.874
114.874
114.874
114.874
114.874
114.874
114.874
114.874
114.874
114.873
114.873
114.873
114.872
114.872
114.873
114.873
114.873
114.873
114.873
114.873
114.874
114.874
114.874
114.874
114.874
114.874
114.874
114.874
114.874
114.874
114.874
114.874
114.874
114.874
114.872
114.872
114.872
114.873
114.873
114.873
114.873
114.873
114.873
114.873
114.873
114.873
114.874
114.874
114.874
114.874
114.874
114.874
114.874
114.874
114.874
114.874
0
114.872
114.872
114.873
114.873
114.873
114.873
114.873
114.873
114.873
114.873
114.873
114.874
114.874
114.874
114.874
114.874
114.874
114.874
114.874
114.874
0
0
114.9
114.897
114.898
114.893
114.825
114.822
114.851
114.867
114.873
114.875
114.875
114.874
114.873
114.872
114.871
114.87
114.869
114.867
114.866
114.865
0
114.9
114.9
114.897
114.898
114.893
114.825
114.822
114.851
114.867
114.873
114.875
114.875
114.874
114.873
114.872
114.871
114.87
114.869
114.867
114.866
114.865
114.865
114.893
114.893
114.893
114.894
114.892
114.872
114.831
114.844
114.861
114.87
114.873
114.874
114.874
114.873
114.872
114.871
114.87
114.869
114.868
114.867
114.866
114.866
114.889
114.889
114.889
114.89
114.89
114.883
114.851
114.846
114.856
114.866
114.871
114.873
114.873
114.873
114.872
114.871
114.871
114.87
114.869
114.868
114.868
114.868
114.885
114.885
114.886
114.887
114.888
114.884
114.865
114.851
114.853
114.861
114.867
114.87
114.872
114.872
114.872
114.871
114.871
114.87
114.87
114.869
114.869
114.869
114.883
114.883
114.883
114.885
114.886
114.886
114.876
114.862
114.856
114.858
114.862
114.866
114.869
114.87
114.871
114.871
114.871
114.871
114.87
114.87
114.87
114.87
114.88
114.88
114.881
114.882
114.884
114.884
114.881
114.873
114.864
114.86
114.861
114.864
114.866
114.868
114.87
114.87
114.871
114.871
114.871
114.871
114.871
114.871
114.879
114.879
114.879
114.88
114.881
114.882
114.881
114.879
114.874
114.868
114.864
114.863
114.865
114.867
114.868
114.869
114.87
114.87
114.871
114.871
114.871
114.871
114.877
114.877
114.878
114.878
114.879
114.88
114.88
114.879
114.877
114.873
114.87
114.868
114.867
114.867
114.867
114.868
114.87
114.87
114.871
114.871
114.871
114.871
114.876
114.876
114.876
114.877
114.878
114.878
114.878
114.878
114.877
114.877
114.875
114.873
114.87
114.868
114.868
114.869
114.87
114.87
114.87
114.871
114.87
114.87
114.875
114.875
114.875
114.876
114.876
114.877
114.877
114.877
114.877
114.877
114.876
114.874
114.872
114.872
114.872
114.871
114.87
114.87
114.87
114.871
114.871
114.871
114.874
114.874
114.875
114.875
114.875
114.876
114.876
114.876
114.876
114.876
114.875
114.875
114.875
114.874
114.873
114.871
114.87
114.871
114.872
114.873
114.871
114.871
114.873
114.873
114.874
114.874
114.875
114.875
114.875
114.875
114.875
114.875
114.875
114.875
114.875
114.874
114.873
114.872
114.873
114.873
114.873
114.873
114.872
114.872
114.873
114.873
114.873
114.874
114.874
114.874
114.874
114.874
114.874
114.874
114.875
114.874
114.874
114.874
114.874
114.874
114.874
114.874
114.873
114.872
114.873
114.873
114.873
114.873
114.873
114.873
114.873
114.874
114.874
114.874
114.874
114.874
114.874
114.874
114.874
114.874
114.874
114.874
114.874
114.874
114.874
114.873
114.874
114.874
114.873
114.873
114.873
114.873
114.873
114.873
114.873
114.873
114.873
114.873
114.873
114.874
114.874
114.874
114.874
114.874
114.874
114.874
114.874
114.874
114.874
114.874
0
114.873
114.873
114.873
114.873
114.873
114.873
114.873
114.873
114.873
114.873
114.874
114.874
114.874
114.874
114.874
114.874
114.874
114.874
114.874
114.874
0
0
114.903
114.902
114.911
114.942
114.854
114.775
114.845
114.872
114.878
114.878
114.876
114.875
114.874
114.872
114.871
114.87
114.868
114.867
114.866
114.865
0
114.903
114.903
114.902
114.911
114.942
114.854
114.775
114.845
114.872
114.878
114.878
114.876
114.875
114.874
114.872
114.871
114.87
114.868
114.867
114.866
114.865
114.865
114.895
114.895
114.897
114.902
114.922
114.883
114.802
114.832
114.862
114.874
114.877
114.876
114.875
114.874
114.873
114.871
114.87
114.869
114.868
114.867
114.866
114.866
114.89
114.89
114.891
114.894
114.903
114.9
114.831
114.828
114.85
114.866
114.873
114.875
114.875
114.874
114.873
114.872
114.871
114.87
114.869
114.868
114.868
114.868
114.886
114.886
114.888
114.89
114.895
114.906
114.857
114.835
114.842
114.857
114.866
114.871
114.873
114.873
114.873
114.872
114.871
114.871
114.87
114.87
114.87
114.87
114.884
114.884
114.885
114.887
114.893
114.907
114.881
114.853
114.846
114.85
114.858
114.865
114.869
114.871
114.872
114.872
114.871
114.871
114.871
114.871
114.871
114.871
114.881
114.881
114.883
114.884
114.889
114.898
114.894
114.873
114.858
114.852
114.854
114.86
114.864
114.868
114.87
114.871
114.871
114.871
114.871
114.871
114.871
114.871
114.879
114.879
114.88
114.882
114.884
114.888
114.891
114.885
114.876
114.864
114.858
114.859
114.86
114.864
114.867
114.869
114.869
114.87
114.87
114.87
114.871
114.871
114.878
114.878
114.879
114.879
114.881
114.883
114.885
114.888
114.884
114.874
114.869
114.865
114.863
114.864
114.865
114.866
114.868
114.87
114.87
114.869
114.871
114.871
114.876
114.876
114.877
114.878
114.879
114.88
114.881
114.883
114.882
114.88
114.88
114.874
114.867
114.865
114.866
114.867
114.869
114.87
114.87
114.869
114.87
114.87
114.875
114.875
114.876
114.876
114.877
114.878
114.878
114.879
114.88
114.881
114.881
114.874
114.871
114.874
114.872
114.869
114.868
114.868
114.869
114.87
114.87
114.87
114.874
114.874
114.875
114.876
114.876
114.876
114.877
114.877
114.877
114.878
114.877
114.876
114.878
114.879
114.873
114.868
114.867
114.871
114.871
114.873
114.87
114.87
114.874
114.874
114.874
114.875
114.875
114.875
114.875
114.876
114.876
114.876
114.876
114.877
114.878
114.876
114.873
114.871
114.874
114.875
114.873
114.873
114.87
114.87
114.873
114.873
114.874
114.874
114.874
114.875
114.875
114.875
114.875
114.875
114.875
114.875
114.876
114.875
114.874
114.875
114.877
114.875
114.873
114.871
114.872
114.872
114.873
114.873
114.874
114.874
114.874
114.874
114.874
114.874
114.874
114.874
114.874
114.874
114.874
114.874
114.874
114.875
114.875
114.874
114.873
114.873
114.874
114.874
114.873
114.873
114.873
114.873
114.873
114.873
114.873
114.873
114.873
114.874
114.874
114.874
114.874
114.874
114.874
114.873
114.873
114.873
114.874
114.873
114.874
114.874
0
114.873
114.873
114.873
114.873
114.873
114.873
114.873
114.873
114.874
114.874
114.874
114.874
114.874
114.874
114.873
114.873
114.873
114.874
114.873
114.874
0
0
114.901
114.898
114.899
114.896
114.838
114.824
114.851
114.867
114.873
114.875
114.875
114.874
114.873
114.872
114.87
114.869
114.868
114.867
114.865
114.864
0
114.901
114.901
114.898
114.899
114.896
114.838
114.824
114.851
114.867
114.873
114.875
114.875
114.874
114.873
114.872
114.87
114.869
114.868
114.867
114.865
114.864
114.864
114.894
114.894
114.894
114.895
114.892
114.863
114.833
114.845
114.862
114.87
114.874
114.874
114.874
114.873
114.872
114.871
114.87
114.868
114.867
114.866
114.865
114.865
114.89
114.89
114.89
114.891
114.89
114.879
114.85
114.846
114.856
114.866
114.871
114.873
114.873
114.873
114.872
114.871
114.87
114.869
114.868
114.867
114.867
114.867
114.886
114.886
114.887
114.888
114.889
114.885
114.864
114.852
114.854
114.861
114.867
114.87
114.871
114.872
114.872
114.871
114.87
114.87
114.869
114.869
114.868
114.868
114.884
114.884
114.885
114.886
114.887
114.887
114.875
114.863
114.857
114.859
114.863
114.867
114.869
114.87
114.871
114.871
114.87
114.87
114.87
114.87
114.869
114.869
114.881
114.881
114.882
114.884
114.885
114.886
114.882
114.872
114.864
114.861
114.862
114.864
114.866
114.868
114.87
114.87
114.87
114.87
114.87
114.87
114.87
114.87
114.88
114.88
114.88
114.881
114.883
114.884
114.883
114.878
114.873
114.867
114.864
114.864
114.865
114.867
114.868
114.869
114.87
114.87
114.87
114.87
114.87
114.87
114.878
114.878
114.879
114.879
114.88
114.881
114.881
114.88
114.878
114.873
114.869
114.867
114.867
114.867
114.867
114.868
114.869
114.87
114.87
114.87
114.87
114.87
114.877
114.877
114.877
114.878
114.879
114.879
114.879
114.879
114.878
114.877
114.875
114.872
114.869
114.868
114.868
114.869
114.87
114.87
114.87
114.87
114.87
114.87
114.876
114.876
114.876
114.877
114.877
114.878
114.878
114.878
114.878
114.877
114.876
114.874
114.872
114.871
114.871
114.87
114.87
114.87
114.87
114.871
114.87
114.87
114.875
114.875
114.876
114.876
114.876
114.876
114.877
114.877
114.877
114.877
114.876
114.875
114.875
114.875
114.873
114.871
114.87
114.87
114.871
114.872
114.871
114.871
114.874
114.874
114.875
114.875
114.875
114.875
114.876
114.876
114.876
114.876
114.876
114.875
114.875
114.875
114.873
114.872
114.872
114.873
114.873
114.872
114.871
114.871
114.874
114.874
114.874
114.875
114.875
114.875
114.875
114.875
114.875
114.875
114.875
114.875
114.875
114.874
114.874
114.874
114.874
114.874
114.873
114.872
114.872
114.872
114.874
114.874
114.874
114.874
114.874
114.874
114.874
114.874
114.874
114.874
114.874
114.874
114.874
114.874
114.874
114.874
114.874
114.874
114.873
114.873
114.873
114.873
114.874
114.874
114.874
114.874
114.874
114.874
114.874
114.874
114.874
114.874
114.874
114.874
114.874
114.874
114.874
114.874
114.873
114.874
114.874
114.874
114.874