# vtk DataFile Version 3.0
FlowField
ASCII
DATASET STRUCTURED_GRID
DIMENSIONS 102 12 1 
POINTS 1224 double
0 0 0
0.3 0 0
0.6 0 0
0.9 0 0
1.2 0 0
1.5 0 0
1.8 0 0
2.1 0 0
2.4 0 0
2.7 0 0
3 0 0
3.3 0 0
3.6 0 0
3.9 0 0
4.2 0 0
4.5 0 0
4.8 0 0
5.1 0 0
5.4 0 0
5.7 0 0
6 0 0
6.3 0 0
6.6 0 0
6.9 0 0
7.2 0 0
7.5 0 0
7.8 0 0
8.1 0 0
8.4 0 0
8.7 0 0
9 0 0
9.3 0 0
9.6 0 0
9.9 0 0
10.2 0 0
10.5 0 0
10.8 0 0
11.1 0 0
11.4 0 0
11.7 0 0
12 0 0
12.3 0 0
12.6 0 0
12.9 0 0
13.2 0 0
13.5 0 0
13.8 0 0
14.1 0 0
14.4 0 0
14.7 0 0
15 0 0
15.3 0 0
15.6 0 0
15.9 0 0
16.2 0 0
16.5 0 0
16.8 0 0
17.1 0 0
17.4 0 0
17.7 0 0
18 0 0
18.3 0 0
18.6 0 0
18.9 0 0
19.2 0 0
19.5 0 0
19.8 0 0
20.1 0 0
20.4 0 0
20.7 0 0
21 0 0
21.3 0 0
21.6 0 0
21.9 0 0
22.2 0 0
22.5 0 0
22.8 0 0
23.1 0 0
23.4 0 0
23.7 0 0
24 0 0
24.3 0 0
24.6 0 0
24.9 0 0
25.2 0 0
25.5 0 0
25.8 0 0
26.1 0 0
26.4 0 0
26.7 0 0
27 0 0
27.3 0 0
27.6 0 0
27.9 0 0
28.2 0 0
28.5 0 0
28.8 0 0
29.1 0 0
29.4 0 0
29.7 0 0
30 0 0
30.3 0 0
0 0.1 0
0.3 0.1 0
0.6 0.1 0
0.9 0.1 0
1.2 0.1 0
1.5 0.1 0
1.8 0.1 0
2.1 0.1 0
2.4 0.1 0
2.7 0.1 0
3 0.1 0
3.3 0.1 0
3.6 0.1 0
3.9 0.1 0
4.2 0.1 0
4.5 0.1 0
4.8 0.1 0
5.1 0.1 0
5.4 0.1 0
5.7 0.1 0
6 0.1 0
6.3 0.1 0
6.6 0.1 0
6.9 0.1 0
7.2 0.1 0
7.5 0.1 0
7.8 0.1 0
8.1 0.1 0
8.4 0.1 0
8.7 0.1 0
9 0.1 0
9.3 0.1 0
9.6 0.1 0
9.9 0.1 0
10.2 0.1 0
10.5 0.1 0
10.8 0.1 0
11.1 0.1 0
11.4 0.1 0
11.7 0.1 0
12 0.1 0
12.3 0.1 0
12.6 0.1 0
12.9 0.1 0
13.2 0.1 0
13.5 0.1 0
13.8 0.1 0
14.1 0.1 0
14.4 0.1 0
14.7 0.1 0
15 0.1 0
15.3 0.1 0
15.6 0.1 0
15.9 0.1 0
16.2 0.1 0
16.5 0.1 0
16.8 0.1 0
17.1 0.1 0
17.4 0.1 0
17.7 0.1 0
18 0.1 0
18.3 0.1 0
18.6 0.1 0
18.9 0.1 0
19.2 0.1 0
19.5 0.1 0
19.8 0.1 0
20.1 0.1 0
20.4 0.1 0
20.7 0.1 0
21 0.1 0
21.3 0.1 0
21.6 0.1 0
21.9 0.1 0
22.2 0.1 0
22.5 0.1 0
22.8 0.1 0
23.1 0.1 0
23.4 0.1 0
23.7 0.1 0
24 0.1 0
24.3 0.1 0
24.6 0.1 0
24.9 0.1 0
25.2 0.1 0
25.5 0.1 0
25.8 0.1 0
26.1 0.1 0
26.4 0.1 0
26.7 0.1 0
27 0.1 0
27.3 0.1 0
27.6 0.1 0
27.9 0.1 0
28.2 0.1 0
28.5 0.1 0
28.8 0.1 0
29.1 0.1 0
29.4 0.1 0
29.7 0.1 0
30 0.1 0
30.3 0.1 0
0 0.2 0
0.3 0.2 0
0.6 0.2 0
0.9 0.2 0
1.2 0.2 0
1.5 0.2 0
1.8 0.2 0
2.1 0.2 0
2.4 0.2 0
2.7 0.2 0
3 0.2 0
3.3 0.2 0
3.6 0.2 0
3.9 0.2 0
4.2 0.2 0
4.5 0.2 0
4.8 0.2 0
5.1 0.2 0
5.4 0.2 0
5.7 0.2 0
6 0.2 0
6.3 0.2 0
6.6 0.2 0
6.9 0.2 0
7.2 0.2 0
7.5 0.2 0
7.8 0.2 0
8.1 0.2 0
8.4 0.2 0
8.7 0.2 0
9 0.2 0
9.3 0.2 0
9.6 0.2 0
9.9 0.2 0
10.2 0.2 0
10.5 0.2 0
10.8 0.2 0
11.1 0.2 0
11.4 0.2 0
11.7 0.2 0
12 0.2 0
12.3 0.2 0
12.6 0.2 0
12.9 0.2 0
13.2 0.2 0
13.5 0.2 0
13.8 0.2 0
14.1 0.2 0
14.4 0.2 0
14.7 0.2 0
15 0.2 0
15.3 0.2 0
15.6 0.2 0
15.9 0.2 0
16.2 0.2 0
16.5 0.2 0
16.8 0.2 0
17.1 0.2 0
17.4 0.2 0
17.7 0.2 0
18 0.2 0
18.3 0.2 0
18.6 0.2 0
18.9 0.2 0
19.2 0.2 0
19.5 0.2 0
19.8 0.2 0
20.1 0.2 0
20.4 0.2 0
20.7 0.2 0
21 0.2 0
21.3 0.2 0
21.6 0.2 0
21.9 0.2 0
22.2 0.2 0
22.5 0.2 0
22.8 0.2 0
23.1 0.2 0
23.4 0.2 0
23.7 0.2 0
24 0.2 0
24.3 0.2 0
24.6 0.2 0
24.9 0.2 0
25.2 0.2 0
25.5 0.2 0
25.8 0.2 0
26.1 0.2 0
26.4 0.2 0
26.7 0.2 0
27 0.2 0
27.3 0.2 0
27.6 0.2 0
27.9 0.2 0
28.2 0.2 0
28.5 0.2 0
28.8 0.2 0
29.1 0.2 0
29.4 0.2 0
29.7 0.2 0
30 0.2 0
30.3 0.2 0
0 0.3 0
0.3 0.3 0
0.6 0.3 0
0.9 0.3 0
1.2 0.3 0
1.5 0.3 0
1.8 0.3 0
2.1 0.3 0
2.4 0.3 0
2.7 0.3 0
3 0.3 0
3.3 0.3 0
3.6 0.3 0
3.9 0.3 0
4.2 0.3 0
4.5 0.3 0
4.8 0.3 0
5.1 0.3 0
5.4 0.3 0
5.7 0.3 0
6 0.3 0
6.3 0.3 0
6.6 0.3 0
6.9 0.3 0
7.2 0.3 0
7.5 0.3 0
7.8 0.3 0
8.1 0.3 0
8.4 0.3 0
8.7 0.3 0
9 0.3 0
9.3 0.3 0
9.6 0.3 0
9.9 0.3 0
10.2 0.3 0
10.5 0.3 0
10.8 0.3 0
11.1 0.3 0
11.4 0.3 0
11.7 0.3 0
12 0.3 0
12.3 0.3 0
12.6 0.3 0
12.9 0.3 0
13.2 0.3 0
13.5 0.3 0
13.8 0.3 0
14.1 0.3 0
14.4 0.3 0
14.7 0.3 0
15 0.3 0
15.3 0.3 0
15.6 0.3 0
15.9 0.3 0
16.2 0.3 0
16.5 0.3 0
16.8 0.3 0
17.1 0.3 0
17.4 0.3 0
17.7 0.3 0
18 0.3 0
18.3 0.3 0
18.6 0.3 0
18.9 0.3 0
19.2 0.3 0
19.5 0.3 0
19.8 0.3 0
20.1 0.3 0
20.4 0.3 0
20.7 0.3 0
21 0.3 0
21.3 0.3 0
21.6 0.3 0
21.9 0.3 0
22.2 0.3 0
22.5 0.3 0
22.8 0.3 0
23.1 0.3 0
23.4 0.3 0
23.7 0.3 0
24 0.3 0
24.3 0.3 0
24.6 0.3 0
24.9 0.3 0
25.2 0.3 0
25.5 0.3 0
25.8 0.3 0
26.1 0.3 0
26.4 0.3 0
26.7 0.3 0
27 0.3 0
27.3 0.3 0
27.6 0.3 0
27.9 0.3 0
28.2 0.3 0
28.5 0.3 0
28.8 0.3 0
29.1 0.3 0
29.4 0.3 0
29.7 0.3 0
30 0.3 0
30.3 0.3 0
0 0.4 0
0.3 0.4 0
0.6 0.4 0
0.9 0.4 0
1.2 0.4 0
1.5 0.4 0
1.8 0.4 0
2.1 0.4 0
2.4 0.4 0
2.7 0.4 0
3 0.4 0
3.3 0.4 0
3.6 0.4 0
3.9 0.4 0
4.2 0.4 0
4.5 0.4 0
4.8 0.4 0
5.1 0.4 0
5.4 0.4 0
5.7 0.4 0
6 0.4 0
6.3 0.4 0
6.6 0.4 0
6.9 0.4 0
7.2 0.4 0
7.5 0.4 0
7.8 0.4 0
8.1 0.4 0
8.4 0.4 0
8.7 0.4 0
9 0.4 0
9.3 0.4 0
9.6 0.4 0
9.9 0.4 0
10.2 0.4 0
10.5 0.4 0
10.8 0.4 0
11.1 0.4 0
11.4 0.4 0
11.7 0.4 0
12 0.4 0
12.3 0.4 0
12.6 0.4 0
12.9 0.4 0
13.2 0.4 0
13.5 0.4 0
13.8 0.4 0
14.1 0.4 0
14.4 0.4 0
14.7 0.4 0
15 0.4 0
15.3 0.4 0
15.6 0.4 0
15.9 0.4 0
16.2 0.4 0
16.5 0.4 0
16.8 0.4 0
17.1 0.4 0
17.4 0.4 0
17.7 0.4 0
18 0.4 0
18.3 0.4 0
18.6 0.4 0
18.9 0.4 0
19.2 0.4 0
19.5 0.4 0
19.8 0.4 0
20.1 0.4 0
20.4 0.4 0
20.7 0.4 0
21 0.4 0
21.3 0.4 0
21.6 0.4 0
21.9 0.4 0
22.2 0.4 0
22.5 0.4 0
22.8 0.4 0
23.1 0.4 0
23.4 0.4 0
23.7 0.4 0
24 0.4 0
24.3 0.4 0
24.6 0.4 0
24.9 0.4 0
25.2 0.4 0
25.5 0.4 0
25.8 0.4 0
26.1 0.4 0
26.4 0.4 0
26.7 0.4 0
27 0.4 0
27.3 0.4 0
27.6 0.4 0
27.9 0.4 0
28.2 0.4 0
28.5 0.4 0
28.8 0.4 0
29.1 0.4 0
29.4 0.4 0
29.7 0.4 0
30 0.4 0
30.3 0.4 0
0 0.5 0
0.3 0.5 0
0.6 0.5 0
0.9 0.5 0
1.2 0.5 0
1.5 0.5 0
1.8 0.5 0
2.1 0.5 0
2.4 0.5 0
2.7 0.5 0
3 0.5 0
3.3 0.5 0
3.6 0.5 0
3.9 0.5 0
4.2 0.5 0
4.5 0.5 0
4.8 0.5 0
5.1 0.5 0
5.4 0.5 0
5.7 0.5 0
6 0.5 0
6.3 0.5 0
6.6 0.5 0
6.9 0.5 0
7.2 0.5 0
7.5 0.5 0
7.8 0.5 0
8.1 0.5 0
8.4 0.5 0
8.7 0.5 0
9 0.5 0
9.3 0.5 0
9.6 0.5 0
9.9 0.5 0
10.2 0.5 0
10.5 0.5 0
10.8 0.5 0
11.1 0.5 0
11.4 0.5 0
11.7 0.5 0
12 0.5 0
12.3 0.5 0
12.6 0.5 0
12.9 0.5 0
13.2 0.5 0
13.5 0.5 0
13.8 0.5 0
14.1 0.5 0
14.4 0.5 0
14.7 0.5 0
15 0.5 0
15.3 0.5 0
15.6 0.5 0
15.9 0.5 0
16.2 0.5 0
16.5 0.5 0
16.8 0.5 0
17.1 0.5 0
17.4 0.5 0
17.7 0.5 0
18 0.5 0
18.3 0.5 0
18.6 0.5 0
18.9 0.5 0
19.2 0.5 0
19.5 0.5 0
19.8 0.5 0
20.1 0.5 0
20.4 0.5 0
20.7 0.5 0
21 0.5 0
21.3 0.5 0
21.6 0.5 0
21.9 0.5 0
22.2 0.5 0
22.5 0.5 0
22.8 0.5 0
23.1 0.5 0
23.4 0.5 0
23.7 0.5 0
24 0.5 0
24.3 0.5 0
24.6 0.5 0
24.9 0.5 0
25.2 0.5 0
25.5 0.5 0
25.8 0.5 0
26.1 0.5 0
26.4 0.5 0
26.7 0.5 0
27 0.5 0
27.3 0.5 0
27.6 0.5 0
27.9 0.5 0
28.2 0.5 0
28.5 0.5 0
28.8 0.5 0
29.1 0.5 0
29.4 0.5 0
29.7 0.5 0
30 0.5 0
30.3 0.5 0
0 0.6 0
0.3 0.6 0
0.6 0.6 0
0.9 0.6 0
1.2 0.6 0
1.5 0.6 0
1.8 0.6 0
2.1 0.6 0
2.4 0.6 0
2.7 0.6 0
3 0.6 0
3.3 0.6 0
3.6 0.6 0
3.9 0.6 0
4.2 0.6 0
4.5 0.6 0
4.8 0.6 0
5.1 0.6 0
5.4 0.6 0
5.7 0.6 0
6 0.6 0
6.3 0.6 0
6.6 0.6 0
6.9 0.6 0
7.2 0.6 0
7.5 0.6 0
7.8 0.6 0
8.1 0.6 0
8.4 0.6 0
8.7 0.6 0
9 0.6 0
9.3 0.6 0
9.6 0.6 0
9.9 0.6 0
10.2 0.6 0
10.5 0.6 0
10.8 0.6 0
11.1 0.6 0
11.4 0.6 0
11.7 0.6 0
12 0.6 0
12.3 0.6 0
12.6 0.6 0
12.9 0.6 0
13.2 0.6 0
13.5 0.6 0
13.8 0.6 0
14.1 0.6 0
14.4 0.6 0
14.7 0.6 0
15 0.6 0
15.3 0.6 0
15.6 0.6 0
15.9 0.6 0
16.2 0.6 0
16.5 0.6 0
16.8 0.6 0
17.1 0.6 0
17.4 0.6 0
17.7 0.6 0
18 0.6 0
18.3 0.6 0
18.6 0.6 0
18.9 0.6 0
19.2 0.6 0
19.5 0.6 0
19.8 0.6 0
20.1 0.6 0
20.4 0.6 0
20.7 0.6 0
21 0.6 0
21.3 0.6 0
21.6 0.6 0
21.9 0.6 0
22.2 0.6 0
22.5 0.6 0
22.8 0.6 0
23.1 0.6 0
23.4 0.6 0
23.7 0.6 0
24 0.6 0
24.3 0.6 0
24.6 0.6 0
24.9 0.6 0
25.2 0.6 0
25.5 0.6 0
25.8 0.6 0
26.1 0.6 0
26.4 0.6 0
26.7 0.6 0
27 0.6 0
27.3 0.6 0
27.6 0.6 0
27.9 0.6 0
28.2 0.6 0
28.5 0.6 0
28.8 0.6 0
29.1 0.6 0
29.4 0.6 0
29.7 0.6 0
30 0.6 0
30.3 0.6 0
0 0.7 0
0.3 0.7 0
0.6 0.7 0
0.9 0.7 0
1.2 0.7 0
1.5 0.7 0
1.8 0.7 0
2.1 0.7 0
2.4 0.7 0
2.7 0.7 0
3 0.7 0
3.3 0.7 0
3.6 0.7 0
3.9 0.7 0
4.2 0.7 0
4.5 0.7 0
4.8 0.7 0
5.1 0.7 0
5.4 0.7 0
5.7 0.7 0
6 0.7 0
6.3 0.7 0
6.6 0.7 0
6.9 0.7 0
7.2 0.7 0
7.5 0.7 0
7.8 0.7 0
8.1 0.7 0
8.4 0.7 0
8.7 0.7 0
9 0.7 0
9.3 0.7 0
9.6 0.7 0
9.9 0.7 0
10.2 0.7 0
10.5 0.7 0
10.8 0.7 0
11.1 0.7 0
11.4 0.7 0
11.7 0.7 0
12 0.7 0
12.3 0.7 0
12.6 0.7 0
12.9 0.7 0
13.2 0.7 0
13.5 0.7 0
13.8 0.7 0
14.1 0.7 0
14.4 0.7 0
14.7 0.7 0
15 0.7 0
15.3 0.7 0
15.6 0.7 0
15.9 0.7 0
16.2 0.7 0
16.5 0.7 0
16.8 0.7 0
17.1 0.7 0
17.4 0.7 0
17.7 0.7 0
18 0.7 0
18.3 0.7 0
18.6 0.7 0
18.9 0.7 0
19.2 0.7 0
19.5 0.7 0
19.8 0.7 0
20.1 0.7 0
20.4 0.7 0
20.7 0.7 0
21 0.7 0
21.3 0.7 0
21.6 0.7 0
21.9 0.7 0
22.2 0.7 0
22.5 0.7 0
22.8 0.7 0
23.1 0.7 0
23.4 0.7 0
23.7 0.7 0
24 0.7 0
24.3 0.7 0
24.6 0.7 0
24.9 0.7 0
25.2 0.7 0
25.5 0.7 0
25.8 0.7 0
26.1 0.7 0
26.4 0.7 0
26.7 0.7 0
27 0.7 0
27.3 0.7 0
27.6 0.7 0
27.9 0.7 0
28.2 0.7 0
28.5 0.7 0
28.8 0.7 0
29.1 0.7 0
29.4 0.7 0
29.7 0.7 0
30 0.7 0
30.3 0.7 0
0 0.8 0
0.3 0.8 0
0.6 0.8 0
0.9 0.8 0
1.2 0.8 0
1.5 0.8 0
1.8 0.8 0
2.1 0.8 0
2.4 0.8 0
2.7 0.8 0
3 0.8 0
3.3 0.8 0
3.6 0.8 0
3.9 0.8 0
4.2 0.8 0
4.5 0.8 0
4.8 0.8 0
5.1 0.8 0
5.4 0.8 0
5.7 0.8 0
6 0.8 0
6.3 0.8 0
6.6 0.8 0
6.9 0.8 0
7.2 0.8 0
7.5 0.8 0
7.8 0.8 0
8.1 0.8 0
8.4 0.8 0
8.7 0.8 0
9 0.8 0
9.3 0.8 0
9.6 0.8 0
9.9 0.8 0
10.2 0.8 0
10.5 0.8 0
10.8 0.8 0
11.1 0.8 0
11.4 0.8 0
11.7 0.8 0
12 0.8 0
12.3 0.8 0
12.6 0.8 0
12.9 0.8 0
13.2 0.8 0
13.5 0.8 0
13.8 0.8 0
14.1 0.8 0
14.4 0.8 0
14.7 0.8 0
15 0.8 0
15.3 0.8 0
15.6 0.8 0
15.9 0.8 0
16.2 0.8 0
16.5 0.8 0
16.8 0.8 0
17.1 0.8 0
17.4 0.8 0
17.7 0.8 0
18 0.8 0
18.3 0.8 0
18.6 0.8 0
18.9 0.8 0
19.2 0.8 0
19.5 0.8 0
19.8 0.8 0
20.1 0.8 0
20.4 0.8 0
20.7 0.8 0
21 0.8 0
21.3 0.8 0
21.6 0.8 0
21.9 0.8 0
22.2 0.8 0
22.5 0.8 0
22.8 0.8 0
23.1 0.8 0
23.4 0.8 0
23.7 0.8 0
24 0.8 0
24.3 0.8 0
24.6 0.8 0
24.9 0.8 0
25.2 0.8 0
25.5 0.8 0
25.8 0.8 0
26.1 0.8 0
26.4 0.8 0
26.7 0.8 0
27 0.8 0
27.3 0.8 0
27.6 0.8 0
27.9 0.8 0
28.2 0.8 0
28.5 0.8 0
28.8 0.8 0
29.1 0.8 0
29.4 0.8 0
29.7 0.8 0
30 0.8 0
30.3 0.8 0
0 0.9 0
0.3 0.9 0
0.6 0.9 0
0.9 0.9 0
1.2 0.9 0
1.5 0.9 0
1.8 0.9 0
2.1 0.9 0
2.4 0.9 0
2.7 0.9 0
3 0.9 0
3.3 0.9 0
3.6 0.9 0
3.9 0.9 0
4.2 0.9 0
4.5 0.9 0
4.8 0.9 0
5.1 0.9 0
5.4 0.9 0
5.7 0.9 0
6 0.9 0
6.3 0.9 0
6.6 0.9 0
6.9 0.9 0
7.2 0.9 0
7.5 0.9 0
7.8 0.9 0
8.1 0.9 0
8.4 0.9 0
8.7 0.9 0
9 0.9 0
9.3 0.9 0
9.6 0.9 0
9.9 0.9 0
10.2 0.9 0
10.5 0.9 0
10.8 0.9 0
11.1 0.9 0
11.4 0.9 0
11.7 0.9 0
12 0.9 0
12.3 0.9 0
12.6 0.9 0
12.9 0.9 0
13.2 0.9 0
13.5 0.9 0
13.8 0.9 0
14.1 0.9 0
14.4 0.9 0
14.7 0.9 0
15 0.9 0
15.3 0.9 0
15.6 0.9 0
15.9 0.9 0
16.2 0.9 0
16.5 0.9 0
16.8 0.9 0
17.1 0.9 0
17.4 0.9 0
17.7 0.9 0
18 0.9 0
18.3 0.9 0
18.6 0.9 0
18.9 0.9 0
19.2 0.9 0
19.5 0.9 0
19.8 0.9 0
20.1 0.9 0
20.4 0.9 0
20.7 0.9 0
21 0.9 0
21.3 0.9 0
21.6 0.9 0
21.9 0.9 0
22.2 0.9 0
22.5 0.9 0
22.8 0.9 0
23.1 0.9 0
23.4 0.9 0
23.7 0.9 0
24 0.9 0
24.3 0.9 0
24.6 0.9 0
24.9 0.9 0
25.2 0.9 0
25.5 0.9 0
25.8 0.9 0
26.1 0.9 0
26.4 0.9 0
26.7 0.9 0
27 0.9 0
27.3 0.9 0
27.6 0.9 0
27.9 0.9 0
28.2 0.9 0
28.5 0.9 0
28.8 0.9 0
29.1 0.9 0
29.4 0.9 0
29.7 0.9 0
30 0.9 0
30.3 0.9 0
0 1 0
0.3 1 0
0.6 1 0
0.9 1 0
1.2 1 0
1.5 1 0
1.8 1 0
2.1 1 0
2.4 1 0
2.7 1 0
3 1 0
3.3 1 0
3.6 1 0
3.9 1 0
4.2 1 0
4.5 1 0
4.8 1 0
5.1 1 0
5.4 1 0
5.7 1 0
6 1 0
6.3 1 0
6.6 1 0
6.9 1 0
7.2 1 0
7.5 1 0
7.8 1 0
8.1 1 0
8.4 1 0
8.7 1 0
9 1 0
9.3 1 0
9.6 1 0
9.9 1 0
10.2 1 0
10.5 1 0
10.8 1 0
11.1 1 0
11.4 1 0
11.7 1 0
12 1 0
12.3 1 0
12.6 1 0
12.9 1 0
13.2 1 0
13.5 1 0
13.8 1 0
14.1 1 0
14.4 1 0
14.7 1 0
15 1 0
15.3 1 0
15.6 1 0
15.9 1 0
16.2 1 0
16.5 1 0
16.8 1 0
17.1 1 0
17.4 1 0
17.7 1 0
18 1 0
18.3 1 0
18.6 1 0
18.9 1 0
19.2 1 0
19.5 1 0
19.8 1 0
20.1 1 0
20.4 1 0
20.7 1 0
21 1 0
21.3 1 0
21.6 1 0
21.9 1 0
22.2 1 0
22.5 1 0
22.8 1 0
23.1 1 0
23.4 1 0
23.7 1 0
24 1 0
24.3 1 0
24.6 1 0
24.9 1 0
25.2 1 0
25.5 1 0
25.8 1 0
26.1 1 0
26.4 1 0
26.7 1 0
27 1 0
27.3 1 0
27.6 1 0
27.9 1 0
28.2 1 0
28.5 1 0
28.8 1 0
29.1 1 0
29.4 1 0
29.7 1 0
30 1 0
30.3 1 0
0 1.1 0
0.3 1.1 0
0.6 1.1 0
0.9 1.1 0
1.2 1.1 0
1.5 1.1 0
1.8 1.1 0
2.1 1.1 0
2.4 1.1 0
2.7 1.1 0
3 1.1 0
3.3 1.1 0
3.6 1.1 0
3.9 1.1 0
4.2 1.1 0
4.5 1.1 0
4.8 1.1 0
5.1 1.1 0
5.4 1.1 0
5.7 1.1 0
6 1.1 0
6.3 1.1 0
6.6 1.1 0
6.9 1.1 0
7.2 1.1 0
7.5 1.1 0
7.8 1.1 0
8.1 1.1 0
8.4 1.1 0
8.7 1.1 0
9 1.1 0
9.3 1.1 0
9.6 1.1 0
9.9 1.1 0
10.2 1.1 0
10.5 1.1 0
10.8 1.1 0
11.1 1.1 0
11.4 1.1 0
11.7 1.1 0
12 1.1 0
12.3 1.1 0
12.6 1.1 0
12.9 1.1 0
13.2 1.1 0
13.5 1.1 0
13.8 1.1 0
14.1 1.1 0
14.4 1.1 0
14.7 1.1 0
15 1.1 0
15.3 1.1 0
15.6 1.1 0
15.9 1.1 0
16.2 1.1 0
16.5 1.1 0
16.8 1.1 0
17.1 1.1 0
17.4 1.1 0
17.7 1.1 0
18 1.1 0
18.3 1.1 0
18.6 1.1 0
18.9 1.1 0
19.2 1.1 0
19.5 1.1 0
19.8 1.1 0
20.1 1.1 0
20.4 1.1 0
20.7 1.1 0
21 1.1 0
21.3 1.1 0
21.6 1.1 0
21.9 1.1 0
22.2 1.1 0
22.5 1.1 0
22.8 1.1 0
23.1 1.1 0
23.4 1.1 0
23.7 1.1 0
24 1.1 0
24.3 1.1 0
24.6 1.1 0
24.9 1.1 0
25.2 1.1 0
25.5 1.1 0
25.8 1.1 0
26.1 1.1 0
26.4 1.1 0
26.7 1.1 0
27 1.1 0
27.3 1.1 0
27.6 1.1 0
27.9 1.1 0
28.2 1.1 0
28.5 1.1 0
28.8 1.1 0
29.1 1.1 0
29.4 1.1 0
29.7 1.1 0
30 1.1 0
30.3 1.1 0

POINT_DATA 1224

SCALARS pressure double
LOOKUP_TABLE pressure
1.32451
1.32451
1.258
1.21092
1.16796
1.12831
1.09229
1.0599
1.0308
1.00446
0.980353
0.958
0.937027
0.917146
0.89814
0.87985
0.862159
0.844977
0.828238
0.811888
0.795885
0.780192
0.764782
0.749629
0.734711
0.720008
0.705507
0.691191
0.677052
0.66308
0.64927
0.635616
0.622115
0.608764
0.595556
0.582487
0.569549
0.556732
0.544024
0.531413
0.518886
0.50643
0.494032
0.481681
0.469368
0.457082
0.444818
0.432569
0.420332
0.408102
0.395878
0.383657
0.371439
0.359222
0.347007
0.334791
0.322576
0.310362
0.298147
0.285933
0.273719
0.261504
0.24929
0.237075
0.224861
0.212647
0.200432
0.188218
0.176004
0.163789
0.151575
0.139361
0.127146
0.114932
0.102718
0.0905034
0.078289
0.0660747
0.0538604
0.041646
0.0294317
0.0172174
0.00500305
-0.00721128
-0.0194256
-0.0316399
-0.0438542
-0.0560686
-0.0682829
-0.0804972
-0.0927115
-0.104926
-0.11714
-0.129354
-0.141569
-0.153783
-0.165997
-0.178211
-0.190426
-0.202641
-0.214843
0.214843
1.32451
1.32451
1.258
1.21092
1.16796
1.12831
1.09229
1.0599
1.0308
1.00446
0.980353
0.958
0.937027
0.917146
0.89814
0.87985
0.862159
0.844977
0.828238
0.811888
0.795885
0.780192
0.764782
0.749629
0.734711
0.720008
0.705507
0.691191
0.677052
0.66308
0.64927
0.635616
0.622115
0.608764
0.595556
0.582487
0.569549
0.556732
0.544024
0.531413
0.518886
0.50643
0.494032
0.481681
0.469368
0.457082
0.444818
0.432569
0.420332
0.408102
0.395878
0.383657
0.371439
0.359222
0.347007
0.334791
0.322576
0.310362
0.298147
0.285933
0.273719
0.261504
0.24929
0.237075
0.224861
0.212647
0.200432
0.188218
0.176004
0.163789
0.151575
0.139361
0.127146
0.114932
0.102718
0.0905034
0.078289
0.0660747
0.0538604
0.041646
0.0294317
0.0172174
0.00500305
-0.00721128
-0.0194256
-0.0316399
-0.0438542
-0.0560686
-0.0682829
-0.0804972
-0.0927115
-0.104926
-0.11714
-0.129354
-0.141569
-0.153783
-0.165997
-0.178211
-0.190426
-0.202641
-0.214843
0.214843
1.30386
1.30386
1.2562
1.21123
1.16868
1.12908
1.09299
1.06049
1.03127
1.00483
0.980639
0.958221
0.9372
0.917283
0.898251
0.879942
0.862236
0.845044
0.828296
0.811939
0.79593
0.780233
0.764818
0.749662
0.73474
0.720036
0.705531
0.691214
0.677072
0.663098
0.649285
0.635629
0.622126
0.608772
0.595563
0.582492
0.569553
0.556734
0.544025
0.531413
0.518886
0.506429
0.494032
0.481681
0.469367
0.457082
0.444818
0.432569
0.420332
0.408102
0.395878
0.383657
0.371439
0.359222
0.347007
0.334791
0.322576
0.310362
0.298147
0.285933
0.273719
0.261504
0.24929
0.237075
0.224861
0.212647
0.200432
0.188218
0.176004
0.163789
0.151575
0.139361
0.127146
0.114932
0.102718
0.0905034
0.078289
0.0660747
0.0538604
0.041646
0.0294317
0.0172174
0.00500305
-0.00721128
-0.0194256
-0.0316399
-0.0438542
-0.0560686
-0.0682829
-0.0804972
-0.0927115
-0.104926
-0.11714
-0.129354
-0.141569
-0.153783
-0.165997
-0.178211
-0.190426
-0.202641
-0.214843
0.214843
1.28947
1.28947
1.25369
1.21162
1.16981
1.13034
1.09416
1.06148
1.03206
1.00544
0.981095
0.958562
0.937456
0.917477
0.898401
0.88006
0.862332
0.845122
0.828362
0.811995
0.795978
0.780275
0.764856
0.749695
0.73477
0.720062
0.705555
0.691235
0.677091
0.663115
0.6493
0.635642
0.622137
0.608782
0.595571
0.582499
0.569557
0.556737
0.544027
0.531415
0.518887
0.50643
0.494032
0.481681
0.469367
0.457082
0.444818
0.432569
0.420332
0.408102
0.395878
0.383657
0.371439
0.359222
0.347007
0.334791
0.322576
0.310362
0.298147
0.285933
0.273719
0.261504
0.24929
0.237075
0.224861
0.212647
0.200432
0.188218
0.176004
0.163789
0.151575
0.139361
0.127146
0.114932
0.102718
0.0905034
0.078289
0.0660747
0.0538604
0.041646
0.0294317
0.0172174
0.00500305
-0.00721128
-0.0194256
-0.0316399
-0.0438542
-0.0560686
-0.0682829
-0.0804972
-0.0927115
-0.104926
-0.11714
-0.129354
-0.141569
-0.153783
-0.165997
-0.178211
-0.190425
-0.202637
-0.21484
0.21484
1.28078
1.28078
1.25168
1.21188
1.17074
1.13142
1.09519
1.06238
1.0328
1.00602
0.981543
0.958907
0.937722
0.917685
0.898566
0.880194
0.862441
0.845214
0.82844
0.812062
0.796036
0.780326
0.764901
0.749735
0.734805
0.720094
0.705584
0.691261
0.677115
0.663137
0.649321
0.635661
0.622155
0.608798
0.595585
0.582512
0.569569
0.556747
0.544036
0.531422
0.518892
0.506434
0.494035
0.481683
0.469369
0.457083
0.444818
0.43257
0.420332
0.408102
0.395878
0.383657
0.371439
0.359222
0.347007
0.334791
0.322576
0.310362
0.298147
0.285933
0.273719
0.261504
0.24929
0.237075
0.224861
0.212647
0.200432
0.188218
0.176004
0.163789
0.151575
0.139361
0.127146
0.114932
0.102718
0.0905034
0.078289
0.0660747
0.0538604
0.041646
0.0294317
0.0172174
0.00500305
-0.00721128
-0.0194256
-0.0316399
-0.0438542
-0.0560686
-0.0682829
-0.0804972
-0.0927115
-0.104926
-0.11714
-0.129354
-0.141569
-0.153783
-0.165997
-0.178211
-0.190423
-0.202628
-0.214836
0.214836
1.2767
1.2767
1.2506
1.212
1.17123
1.13201
1.09576
1.06288
1.03321
1.00635
0.981807
0.959114
0.937885
0.917815
0.898672
0.880281
0.862514
0.845276
0.828493
0.812109
0.796077
0.780362
0.764933
0.749764
0.734832
0.720118
0.705605
0.691281
0.677134
0.663154
0.649337
0.635677
0.622169
0.608811
0.595598
0.582523
0.569579
0.556757
0.544044
0.531429
0.518898
0.506439
0.494039
0.481686
0.469371
0.457085
0.44482
0.43257
0.420333
0.408103
0.395878
0.383658
0.371439
0.359222
0.347007
0.334791
0.322577
0.310362
0.298147
0.285933
0.273719
0.261504
0.24929
0.237075
0.224861
0.212647
0.200432
0.188218
0.176004
0.163789
0.151575
0.139361
0.127146
0.114932
0.102718
0.0905034
0.078289
0.0660747
0.0538604
0.041646
0.0294317
0.0172174
0.00500305
-0.00721128
-0.0194256
-0.0316399
-0.0438542
-0.0560686
-0.0682829
-0.0804972
-0.0927115
-0.104926
-0.11714
-0.129354
-0.141569
-0.153783
-0.165997
-0.178211
-0.190422
-0.202621
-0.214834
0.214834
1.2767
1.2767
1.2506
1.212
1.17123
1.13201
1.09576
1.06288
1.03321
1.00635
0.981807
0.959114
0.937885
0.917815
0.898672
0.880281
0.862514
0.845276
0.828493
0.812109
0.796077
0.780362
0.764933
0.749764
0.734832
0.720118
0.705605
0.691281
0.677134
0.663154
0.649337
0.635677
0.622169
0.608811
0.595598
0.582523
0.569579
0.556757
0.544044
0.531429
0.518898
0.506439
0.494039
0.481686
0.469371
0.457085
0.44482
0.43257
0.420333
0.408103
0.395878
0.383658
0.371439
0.359222
0.347007
0.334791
0.322577
0.310362
0.298147
0.285933
0.273719
0.261504
0.24929
0.237075
0.224861
0.212647
0.200432
0.188218
0.176004
0.163789
0.151575
0.139361
0.127146
0.114932
0.102718
0.0905034
0.078289
0.0660747
0.0538604
0.041646
0.0294317
0.0172174
0.00500305
-0.00721128
-0.0194256
-0.0316399
-0.0438542
-0.0560686
-0.0682829
-0.0804972
-0.0927115
-0.104926
-0.11714
-0.129354
-0.141569
-0.153783
-0.165997
-0.178211
-0.190422
-0.202621
-0.214834
0.214834
1.28078
1.28078
1.25168
1.21188
1.17074
1.13142
1.09519
1.06238
1.0328
1.00602
0.981543
0.958907
0.937722
0.917685
0.898566
0.880194
0.862441
0.845214
0.82844
0.812062
0.796036
0.780326
0.764901
0.749735
0.734805
0.720094
0.705584
0.691261
0.677115
0.663137
0.649321
0.635661
0.622155
0.608798
0.595585
0.582512
0.569569
0.556747
0.544036
0.531422
0.518892
0.506434
0.494035
0.481683
0.469369
0.457083
0.444818
0.43257
0.420332
0.408102
0.395878
0.383657
0.371439
0.359222
0.347007
0.334791
0.322576
0.310362
0.298147
0.285933
0.273719
0.261504
0.24929
0.237075
0.224861
0.212647
0.200432
0.188218
0.176004
0.163789
0.151575
0.139361
0.127146
0.114932
0.102718
0.0905034
0.078289
0.0660747
0.0538604
0.041646
0.0294317
0.0172174
0.00500305
-0.00721128
-0.0194256
-0.0316399
-0.0438542
-0.0560686
-0.0682829
-0.0804972
-0.0927115
-0.104926
-0.11714
-0.129354
-0.141569
-0.153783
-0.165997
-0.178211
-0.190423
-0.202628
-0.214836
0.214836
1.28947
1.28947
1.25369
1.21162
1.16981
1.13034
1.09416
1.06148
1.03206
1.00544
0.981095
0.958562
0.937456
0.917477
0.898401
0.88006
0.862332
0.845122
0.828362
0.811995
0.795978
0.780275
0.764856
0.749695
0.73477
0.720062
0.705555
0.691235
0.677091
0.663115
0.6493
0.635642
0.622137
0.608782
0.595571
0.582499
0.569557
0.556737
0.544027
0.531415
0.518887
0.50643
0.494032
0.481681
0.469367
0.457082
0.444818
0.432569
0.420332
0.408102
0.395878
0.383657
0.371439
0.359222
0.347007
0.334791
0.322576
0.310362
0.298147
0.285933
0.273719
0.261504
0.24929
0.237075
0.224861
0.212647
0.200432
0.188218
0.176004
0.163789
0.151575
0.139361
0.127146
0.114932
0.102718
0.0905034
0.078289
0.0660747
0.0538604
0.041646
0.0294317
0.0172174
0.00500305
-0.00721127
-0.0194256
-0.0316399
-0.0438542
-0.0560686
-0.0682829
-0.0804972
-0.0927115
-0.104926
-0.11714
-0.129354
-0.141569
-0.153783
-0.165997
-0.178211
-0.190425
-0.202637
-0.21484
0.21484
1.30386
1.30386
1.2562
1.21123
1.16868
1.12908
1.09299
1.06049
1.03127
1.00483
0.980639
0.958221
0.9372
0.917283
0.898251
0.879942
0.862236
0.845044
0.828296
0.811939
0.79593
0.780233
0.764818
0.749662
0.73474
0.720036
0.705531
0.691214
0.677072
0.663098
0.649285
0.635629
0.622126
0.608772
0.595563
0.582492
0.569553
0.556734
0.544025
0.531413
0.518886
0.506429
0.494032
0.481681
0.469367
0.457082
0.444818
0.432569
0.420332
0.408102
0.395878
0.383657
0.371439
0.359222
0.347007
0.334791
0.322576
0.310362
0.298147
0.285933
0.273719
0.261504
0.24929
0.237075
0.224861
0.212647
0.200432
0.188218
0.176004
0.163789
0.151575
0.139361
0.127146
0.114932
0.102718
0.0905034
0.078289
0.0660747
0.0538604
0.041646
0.0294317
0.0172174
0.00500305
-0.00721127
-0.0194256
-0.0316399
-0.0438542
-0.0560686
-0.0682829
-0.0804972
-0.0927115
-0.104926
-0.11714
-0.129354
-0.141569
-0.153783
-0.165997
-0.178211
-0.190426
-0.202641
-0.214843
0.214843
1.32451
1.32451
1.258
1.21092
1.16796
1.12831
1.09229
1.0599
1.0308
1.00446
0.980353
0.958
0.937027
0.917146
0.89814
0.87985
0.862159
0.844977
0.828238
0.811888
0.795885
0.780192
0.764782
0.749629
0.734711
0.720008
0.705507
0.691191
0.677052
0.66308
0.64927
0.635616
0.622115
0.608764
0.595556
0.582487
0.569549
0.556732
0.544024
0.531413
0.518886
0.50643
0.494032
0.481681
0.469368
0.457082
0.444818
0.432569
0.420332
0.408102
0.395878
0.383657
0.371439
0.359222
0.347007
0.334791
0.322576
0.310362
0.298147
0.285933
0.273719
0.261504
0.24929
0.237075
0.224861
0.212647
0.200432
0.188218
0.176004
0.163789
0.151575
0.139361
0.127146
0.114932
0.102718
0.0905034
0.078289
0.0660747
0.0538604
0.041646
0.0294317
0.0172174
0.00500305
-0.00721127
-0.0194256
-0.0316399
-0.0438542
-0.0560686
-0.0682829
-0.0804972
-0.0927115
-0.104926
-0.11714
-0.129354
-0.141569
-0.153783
-0.165997
-0.178212
-0.190426
-0.202641
-0.214843
0.214843
1.32451
1.32451
1.258
1.21092
1.16796
1.12831
1.09229
1.0599
1.0308
1.00446
0.980353
0.958
0.937027
0.917146
0.89814
0.87985
0.862159
0.844977
0.828238
0.811888
0.795885
0.780192
0.764782
0.749629
0.734711
0.720008
0.705507
0.691191
0.677052
0.66308
0.64927
0.635616
0.622115
0.608764
0.595556
0.582487
0.569549
0.556732
0.544024
0.531413
0.518886
0.50643
0.494032
0.481681
0.469368
0.457082
0.444818
0.432569
0.420332
0.408102
0.395878
0.383657
0.371439
0.359222
0.347007
0.334791
0.322576
0.310362
0.298147
0.285933
0.273719
0.261504
0.24929
0.237075
0.224861
0.212647
0.200432
0.188218
0.176004
0.163789
0.151575
0.139361
0.127146
0.114932
0.102718
0.0905034
0.078289
0.0660747
0.0538604
0.041646
0.0294317
0.0172174
0.00500305
-0.00721127
-0.0194256
-0.0316399
-0.0438542
-0.0560686
-0.0682829
-0.0804972
-0.0927115
-0.104926
-0.11714
-0.129354
-0.141569
-0.153783
-0.165997
-0.178212
-0.190426
-0.202641
-0.214843
0.214843
SCALARS phi double
LOOKUP_TABLE phi
1
1
1
0.999995
0.999977
0.999931
0.999832
0.999654
0.999372
0.998921
0.998267
0.997536
0.996866
0.995852
0.99309
0.986373
0.973485
0.953024
0.92477
0.889534
0.848709
0.803839
0.756343
0.707404
0.657968
0.608776
0.560406
0.513306
0.467816
0.424189
0.382603
0.343178
0.305994
0.271098
0.238519
0.208274
0.180371
0.154812
0.13159
0.110685
0.09206
0.0756575
0.0613937
0.0491586
0.0388165
0.0302088
0.0231602
0.0174847
0.0129934
0.00950181
0.00683602
0.0048376
0.00336686
0.00230433
0.00155083
0.0010263
0.000667839
0.000427344
0.000268913
0.000166422
0.000101301
6.06546e-05
3.57287e-05
2.07075e-05
1.18101e-05
6.62918e-06
3.66277e-06
1.99236e-06
1.0671e-06
5.62842e-07
2.92404e-07
1.49645e-07
7.54565e-08
3.74931e-08
1.83611e-08
8.86345e-09
4.21828e-09
1.97953e-09
9.16109e-10
4.18176e-10
1.88305e-10
8.36598e-11
3.66766e-11
1.58686e-11
6.77684e-12
2.85703e-12
1.18921e-12
4.88783e-13
1.98402e-13
7.95428e-14
3.15019e-14
1.23256e-14
4.76503e-15
1.82038e-15
6.87301e-16
2.56491e-16
9.46197e-17
3.45094e-17
1.2443e-17
4.44827e-18
1.46866e-18
1.46866e-18
1
1
1
0.999995
0.999977
0.999931
0.999832
0.999654
0.999372
0.998921
0.998267
0.997536
0.996866
0.995852
0.99309
0.986373
0.973485
0.953024
0.92477
0.889534
0.848709
0.803839
0.756343
0.707404
0.657968
0.608776
0.560406
0.513306
0.467816
0.424189
0.382603
0.343178
0.305994
0.271098
0.238519
0.208274
0.180371
0.154812
0.13159
0.110685
0.09206
0.0756575
0.0613937
0.0491586
0.0388165
0.0302088
0.0231602
0.0174847
0.0129934
0.00950181
0.00683602
0.0048376
0.00336686
0.00230433
0.00155083
0.0010263
0.000667839
0.000427344
0.000268913
0.000166422
0.000101301
6.06546e-05
3.57287e-05
2.07075e-05
1.18101e-05
6.62918e-06
3.66277e-06
1.99236e-06
1.0671e-06
5.62842e-07
2.92404e-07
1.49645e-07
7.54565e-08
3.74931e-08
1.83611e-08
8.86345e-09
4.21828e-09
1.97953e-09
9.16109e-10
4.18176e-10
1.88305e-10
8.36598e-11
3.66766e-11
1.58686e-11
6.77684e-12
2.85703e-12
1.18921e-12
4.88783e-13
1.98402e-13
7.95428e-14
3.15019e-14
1.23256e-14
4.76503e-15
1.82038e-15
6.87301e-16
2.56491e-16
9.46197e-17
3.45094e-17
1.2443e-17
4.44827e-18
1.46866e-18
1.46866e-18
0.999998
1
0.999984
0.999921
0.999783
0.999536
0.999146
0.998579
0.997813
0.996821
0.995581
0.994099
0.99243
0.990588
0.988381
0.985277
0.980429
0.972859
0.961696
0.946353
0.926604
0.902555
0.874562
0.843143
0.808895
0.772439
0.734381
0.695283
0.655644
0.615888
0.576359
0.537316
0.498942
0.461352
0.424611
0.388752
0.353803
0.319801
0.286817
0.254963
0.2244
0.195325
0.167965
0.142547
0.119281
0.0983303
0.0797966
0.0637069
0.0500106
0.0385856
0.0292501
0.0217801
0.0159273
0.0114374
0.00806471
0.00558373
0.00379618
0.00253447
0.00166183
0.00107028
0.000677141
0.000420921
0.000257118
0.000154367
9.11049e-05
5.28665e-05
3.01685e-05
1.69334e-05
9.35061e-06
5.08072e-06
2.71696e-06
1.43022e-06
7.41247e-07
3.78312e-07
1.90171e-07
9.41735e-08
4.59494e-08
2.20942e-08
1.04713e-08
4.89236e-09
2.25378e-09
1.02388e-09
4.58777e-10
2.02787e-10
8.84369e-11
3.80582e-11
1.6164e-11
6.77639e-12
2.80454e-12
1.14604e-12
4.62456e-13
1.84304e-13
7.25521e-14
2.82145e-14
1.08406e-14
4.1158e-15
1.54426e-15
5.72686e-16
2.09907e-16
7.62821e-17
2.55088e-17
2.55088e-17
1.00001
0.999992
0.99954
0.998615
0.997207
0.995316
0.992954
0.990144
0.986922
0.983332
0.979421
0.975237
0.970833
0.966263
0.961556
0.956681
0.951513
0.945822
0.939301
0.931607
0.922409
0.911432
0.898476
0.883427
0.866258
0.847018
0.825821
0.802832
0.77825
0.752293
0.725181
0.697118
0.668274
0.638771
0.608669
0.577963
0.546589
0.51444
0.481399
0.447382
0.412379
0.376497
0.339986
0.303246
0.266805
0.231279
0.197316
0.16553
0.136443
0.110439
0.0877365
0.0683872
0.0522878
0.0392095
0.0288348
0.0207958
0.0147091
0.0102045
0.00694465
0.0046369
0.0030381
0.00195371
0.00123337
0.000764532
0.000465444
0.000278361
0.000163576
9.44719e-05
5.36363e-05
2.99425e-05
1.64396e-05
8.87903e-06
4.71856e-06
2.46784e-06
1.27052e-06
6.44019e-07
3.2148e-07
1.58066e-07
7.65659e-08
3.65453e-08
1.71913e-08
7.9716e-09
3.64437e-09
1.64292e-09
7.30469e-10
3.20369e-10
1.38623e-10
5.9187e-11
2.49396e-11
1.03727e-11
4.25894e-12
1.72655e-12
6.91169e-13
2.73263e-13
1.06715e-13
4.11698e-14
1.56926e-14
5.91061e-15
2.19981e-15
8.11672e-16
2.75026e-16
2.75026e-16
1.00143
0.99857
0.991252
0.98188
0.971566
0.96086
0.950051
0.939311
0.928756
0.918467
0.908503
0.898898
0.88967
0.880827
0.872365
0.864271
0.856511
0.849029
0.841739
0.834526
0.827256
0.819777
0.811934
0.80358
0.794578
0.784813
0.774191
0.762645
0.750134
0.736642
0.722174
0.706756
0.690418
0.673187
0.655066
0.636014
0.615925
0.594613
0.571812
0.547199
0.520435
0.491231
0.459422
0.425038
0.388351
0.349891
0.310414
0.270845
0.232177
0.195376
0.161284
0.130546
0.103571
0.0805219
0.0613401
0.0457841
0.0334843
0.0239976
0.0168561
0.011606
0.00783499
0.00518704
0.00336845
0.00214625
0.00134208
0.000823843
0.000496578
0.000293984
0.000170989
9.77303e-05
5.49062e-05
3.03287e-05
1.64753e-05
8.80365e-06
4.62859e-06
2.39491e-06
1.21979e-06
6.11687e-07
3.02077e-07
1.4694e-07
7.04183e-08
3.32539e-08
1.54772e-08
7.10104e-09
3.21224e-09
1.43294e-09
6.30466e-10
2.7364e-10
1.17181e-10
4.95179e-11
2.06521e-11
8.50221e-12
3.45564e-12
1.38681e-12
5.49621e-13
2.15142e-13
8.31883e-14
3.17787e-14
1.19933e-14
4.48682e-15
1.53948e-15
1.53948e-15
1.0456
0.954401
0.887723
0.838674
0.801641
0.772861
0.749886
0.731119
0.715499
0.702298
0.691001
0.681228
0.672693
0.665173
0.658494
0.652516
0.647128
0.642235
0.637753
0.633606
0.629718
0.626014
0.622416
0.618846
0.615223
0.611468
0.607502
0.603252
0.598647
0.593625
0.588134
0.582131
0.575585
0.568472
0.560762
0.552405
0.5433
0.533272
0.522042
0.509227
0.494351
0.476896
0.456385
0.43247
0.405028
0.374228
0.34056
0.304808
0.26798
0.2312
0.195589
0.162153
0.131689
0.104739
0.0815731
0.0622086
0.0464559
0.0339757
0.024339
0.0170818
0.0117479
0.00791937
0.0052341
0.0033926
0.00215719
0.00134595
0.000824289
0.000495638
0.000292688
0.000169794
9.67911e-05
5.42325e-05
2.9875e-05
1.61843e-05
8.62432e-06
4.52175e-06
2.33315e-06
1.18504e-06
5.92622e-07
2.91857e-07
1.4158e-07
6.76656e-08
3.18677e-08
1.47924e-08
6.76884e-09
3.05392e-09
1.35878e-09
5.96299e-10
2.58153e-10
1.10271e-10
4.64823e-11
1.93386e-11
7.94219e-12
3.22032e-12
1.28933e-12
5.09799e-13
1.99096e-13
7.68104e-14