# vtk DataFile Version 3.0
FlowField
ASCII
DATASET STRUCTURED_GRID
DIMENSIONS 102 12 1 
POINTS 1224 double
0 0 0
0.3 0 0
0.6 0 0
0.9 0 0
1.2 0 0
1.5 0 0
1.8 0 0
2.1 0 0
2.4 0 0
2.7 0 0
3 0 0
3.3 0 0
3.6 0 0
3.9 0 0
4.2 0 0
4.5 0 0
4.8 0 0
5.1 0 0
5.4 0 0
5.7 0 0
6 0 0
6.3 0 0
6.6 0 0
6.9 0 0
7.2 0 0
7.5 0 0
7.8 0 0
8.1 0 0
8.4 0 0
8.7 0 0
9 0 0
9.3 0 0
9.6 0 0
9.9 0 0
10.2 0 0
10.5 0 0
10.8 0 0
11.1 0 0
11.4 0 0
11.7 0 0
12 0 0
12.3 0 0
12.6 0 0
12.9 0 0
13.2 0 0
13.5 0 0
13.8 0 0
14.1 0 0
14.4 0 0
14.7 0 0
15 0 0
15.3 0 0
15.6 0 0
15.9 0 0
16.2 0 0
16.5 0 0
16.8 0 0
17.1 0 0
17.4 0 0
17.7 0 0
18 0 0
18.3 0 0
18.6 0 0
18.9 0 0
19.2 0 0
19.5 0 0
19.8 0 0
20.1 0 0
20.4 0 0
20.7 0 0
21 0 0
21.3 0 0
21.6 0 0
21.9 0 0
22.2 0 0
22.5 0 0
22.8 0 0
23.1 0 0
23.4 0 0
23.7 0 0
24 0 0
24.3 0 0
24.6 0 0
24.9 0 0
25.2 0 0
25.5 0 0
25.8 0 0
26.1 0 0
26.4 0 0
26.7 0 0
27 0 0
27.3 0 0
27.6 0 0
27.9 0 0
28.2 0 0
28.5 0 0
28.8 0 0
29.1 0 0
29.4 0 0
29.7 0 0
30 0 0
30.3 0 0
0 0.1 0
0.3 0.1 0
0.6 0.1 0
0.9 0.1 0
1.2 0.1 0
1.5 0.1 0
1.8 0.1 0
2.1 0.1 0
2.4 0.1 0
2.7 0.1 0
3 0.1 0
3.3 0.1 0
3.6 0.1 0
3.9 0.1 0
4.2 0.1 0
4.5 0.1 0
4.8 0.1 0
5.1 0.1 0
5.4 0.1 0
5.7 0.1 0
6 0.1 0
6.3 0.1 0
6.6 0.1 0
6.9 0.1 0
7.2 0.1 0
7.5 0.1 0
7.8 0.1 0
8.1 0.1 0
8.4 0.1 0
8.7 0.1 0
9 0.1 0
9.3 0.1 0
9.6 0.1 0
9.9 0.1 0
10.2 0.1 0
10.5 0.1 0
10.8 0.1 0
11.1 0.1 0
11.4 0.1 0
11.7 0.1 0
12 0.1 0
12.3 0.1 0
12.6 0.1 0
12.9 0.1 0
13.2 0.1 0
13.5 0.1 0
13.8 0.1 0
14.1 0.1 0
14.4 0.1 0
14.7 0.1 0
15 0.1 0
15.3 0.1 0
15.6 0.1 0
15.9 0.1 0
16.2 0.1 0
16.5 0.1 0
16.8 0.1 0
17.1 0.1 0
17.4 0.1 0
17.7 0.1 0
18 0.1 0
18.3 0.1 0
18.6 0.1 0
18.9 0.1 0
19.2 0.1 0
19.5 0.1 0
19.8 0.1 0
20.1 0.1 0
20.4 0.1 0
20.7 0.1 0
21 0.1 0
21.3 0.1 0
21.6 0.1 0
21.9 0.1 0
22.2 0.1 0
22.5 0.1 0
22.8 0.1 0
23.1 0.1 0
23.4 0.1 0
23.7 0.1 0
24 0.1 0
24.3 0.1 0
24.6 0.1 0
24.9 0.1 0
25.2 0.1 0
25.5 0.1 0
25.8 0.1 0
26.1 0.1 0
26.4 0.1 0
26.7 0.1 0
27 0.1 0
27.3 0.1 0
27.6 0.1 0
27.9 0.1 0
28.2 0.1 0
28.5 0.1 0
28.8 0.1 0
29.1 0.1 0
29.4 0.1 0
29.7 0.1 0
30 0.1 0
30.3 0.1 0
0 0.2 0
0.3 0.2 0
0.6 0.2 0
0.9 0.2 0
1.2 0.2 0
1.5 0.2 0
1.8 0.2 0
2.1 0.2 0
2.4 0.2 0
2.7 0.2 0
3 0.2 0
3.3 0.2 0
3.6 0.2 0
3.9 0.2 0
4.2 0.2 0
4.5 0.2 0
4.8 0.2 0
5.1 0.2 0
5.4 0.2 0
5.7 0.2 0
6 0.2 0
6.3 0.2 0
6.6 0.2 0
6.9 0.2 0
7.2 0.2 0
7.5 0.2 0
7.8 0.2 0
8.1 0.2 0
8.4 0.2 0
8.7 0.2 0
9 0.2 0
9.3 0.2 0
9.6 0.2 0
9.9 0.2 0
10.2 0.2 0
10.5 0.2 0
10.8 0.2 0
11.1 0.2 0
11.4 0.2 0
11.7 0.2 0
12 0.2 0
12.3 0.2 0
12.6 0.2 0
12.9 0.2 0
13.2 0.2 0
13.5 0.2 0
13.8 0.2 0
14.1 0.2 0
14.4 0.2 0
14.7 0.2 0
15 0.2 0
15.3 0.2 0
15.6 0.2 0
15.9 0.2 0
16.2 0.2 0
16.5 0.2 0
16.8 0.2 0
17.1 0.2 0
17.4 0.2 0
17.7 0.2 0
18 0.2 0
18.3 0.2 0
18.6 0.2 0
18.9 0.2 0
19.2 0.2 0
19.5 0.2 0
19.8 0.2 0
20.1 0.2 0
20.4 0.2 0
20.7 0.2 0
21 0.2 0
21.3 0.2 0
21.6 0.2 0
21.9 0.2 0
22.2 0.2 0
22.5 0.2 0
22.8 0.2 0
23.1 0.2 0
23.4 0.2 0
23.7 0.2 0
24 0.2 0
24.3 0.2 0
24.6 0.2 0
24.9 0.2 0
25.2 0.2 0
25.5 0.2 0
25.8 0.2 0
26.1 0.2 0
26.4 0.2 0
26.7 0.2 0
27 0.2 0
27.3 0.2 0
27.6 0.2 0
27.9 0.2 0
28.2 0.2 0
28.5 0.2 0
28.8 0.2 0
29.1 0.2 0
29.4 0.2 0
29.7 0.2 0
30 0.2 0
30.3 0.2 0
0 0.3 0
0.3 0.3 0
0.6 0.3 0
0.9 0.3 0
1.2 0.3 0
1.5 0.3 0
1.8 0.3 0
2.1 0.3 0
2.4 0.3 0
2.7 0.3 0
3 0.3 0
3.3 0.3 0
3.6 0.3 0
3.9 0.3 0
4.2 0.3 0
4.5 0.3 0
4.8 0.3 0
5.1 0.3 0
5.4 0.3 0
5.7 0.3 0
6 0.3 0
6.3 0.3 0
6.6 0.3 0
6.9 0.3 0
7.2 0.3 0
7.5 0.3 0
7.8 0.3 0
8.1 0.3 0
8.4 0.3 0
8.7 0.3 0
9 0.3 0
9.3 0.3 0
9.6 0.3 0
9.9 0.3 0
10.2 0.3 0
10.5 0.3 0
10.8 0.3 0
11.1 0.3 0
11.4 0.3 0
11.7 0.3 0
12 0.3 0
12.3 0.3 0
12.6 0.3 0
12.9 0.3 0
13.2 0.3 0
13.5 0.3 0
13.8 0.3 0
14.1 0.3 0
14.4 0.3 0
14.7 0.3 0
15 0.3 0
15.3 0.3 0
15.6 0.3 0
15.9 0.3 0
16.2 0.3 0
16.5 0.3 0
16.8 0.3 0
17.1 0.3 0
17.4 0.3 0
17.7 0.3 0
18 0.3 0
18.3 0.3 0
18.6 0.3 0
18.9 0.3 0
19.2 0.3 0
19.5 0.3 0
19.8 0.3 0
20.1 0.3 0
20.4 0.3 0
20.7 0.3 0
21 0.3 0
21.3 0.3 0
21.6 0.3 0
21.9 0.3 0
22.2 0.3 0
22.5 0.3 0
22.8 0.3 0
23.1 0.3 0
23.4 0.3 0
23.7 0.3 0
24 0.3 0
24.3 0.3 0
24.6 0.3 0
24.9 0.3 0
25.2 0.3 0
25.5 0.3 0
25.8 0.3 0
26.1 0.3 0
26.4 0.3 0
26.7 0.3 0
27 0.3 0
27.3 0.3 0
27.6 0.3 0
27.9 0.3 0
28.2 0.3 0
28.5 0.3 0
28.8 0.3 0
29.1 0.3 0
29.4 0.3 0
29.7 0.3 0
30 0.3 0
30.3 0.3 0
0 0.4 0
0.3 0.4 0
0.6 0.4 0
0.9 0.4 0
1.2 0.4 0
1.5 0.4 0
1.8 0.4 0
2.1 0.4 0
2.4 0.4 0
2.7 0.4 0
3 0.4 0
3.3 0.4 0
3.6 0.4 0
3.9 0.4 0
4.2 0.4 0
4.5 0.4 0
4.8 0.4 0
5.1 0.4 0
5.4 0.4 0
5.7 0.4 0
6 0.4 0
6.3 0.4 0
6.6 0.4 0
6.9 0.4 0
7.2 0.4 0
7.5 0.4 0
7.8 0.4 0
8.1 0.4 0
8.4 0.4 0
8.7 0.4 0
9 0.4 0
9.3 0.4 0
9.6 0.4 0
9.9 0.4 0
10.2 0.4 0
10.5 0.4 0
10.8 0.4 0
11.1 0.4 0
11.4 0.4 0
11.7 0.4 0
12 0.4 0
12.3 0.4 0
12.6 0.4 0
12.9 0.4 0
13.2 0.4 0
13.5 0.4 0
13.8 0.4 0
14.1 0.4 0
14.4 0.4 0
14.7 0.4 0
15 0.4 0
15.3 0.4 0
15.6 0.4 0
15.9 0.4 0
16.2 0.4 0
16.5 0.4 0
16.8 0.4 0
17.1 0.4 0
17.4 0.4 0
17.7 0.4 0
18 0.4 0
18.3 0.4 0
18.6 0.4 0
18.9 0.4 0
19.2 0.4 0
19.5 0.4 0
19.8 0.4 0
20.1 0.4 0
20.4 0.4 0
20.7 0.4 0
21 0.4 0
21.3 0.4 0
21.6 0.4 0
21.9 0.4 0
22.2 0.4 0
22.5 0.4 0
22.8 0.4 0
23.1 0.4 0
23.4 0.4 0
23.7 0.4 0
24 0.4 0
24.3 0.4 0
24.6 0.4 0
24.9 0.4 0
25.2 0.4 0
25.5 0.4 0
25.8 0.4 0
26.1 0.4 0
26.4 0.4 0
26.7 0.4 0
27 0.4 0
27.3 0.4 0
27.6 0.4 0
27.9 0.4 0
28.2 0.4 0
28.5 0.4 0
28.8 0.4 0
29.1 0.4 0
29.4 0.4 0
29.7 0.4 0
30 0.4 0
30.3 0.4 0
0 0.5 0
0.3 0.5 0
0.6 0.5 0
0.9 0.5 0
1.2 0.5 0
1.5 0.5 0
1.8 0.5 0
2.1 0.5 0
2.4 0.5 0
2.7 0.5 0
3 0.5 0
3.3 0.5 0
3.6 0.5 0
3.9 0.5 0
4.2 0.5 0
4.5 0.5 0
4.8 0.5 0
5.1 0.5 0
5.4 0.5 0
5.7 0.5 0
6 0.5 0
6.3 0.5 0
6.6 0.5 0
6.9 0.5 0
7.2 0.5 0
7.5 0.5 0
7.8 0.5 0
8.1 0.5 0
8.4 0.5 0
8.7 0.5 0
9 0.5 0
9.3 0.5 0
9.6 0.5 0
9.9 0.5 0
10.2 0.5 0
10.5 0.5 0
10.8 0.5 0
11.1 0.5 0
11.4 0.5 0
11.7 0.5 0
12 0.5 0
12.3 0.5 0
12.6 0.5 0
12.9 0.5 0
13.2 0.5 0
13.5 0.5 0
13.8 0.5 0
14.1 0.5 0
14.4 0.5 0
14.7 0.5 0
15 0.5 0
15.3 0.5 0
15.6 0.5 0
15.9 0.5 0
16.2 0.5 0
16.5 0.5 0
16.8 0.5 0
17.1 0.5 0
17.4 0.5 0
17.7 0.5 0
18 0.5 0
18.3 0.5 0
18.6 0.5 0
18.9 0.5 0
19.2 0.5 0
19.5 0.5 0
19.8 0.5 0
20.1 0.5 0
20.4 0.5 0
20.7 0.5 0
21 0.5 0
21.3 0.5 0
21.6 0.5 0
21.9 0.5 0
22.2 0.5 0
22.5 0.5 0
22.8 0.5 0
23.1 0.5 0
23.4 0.5 0
23.7 0.5 0
24 0.5 0
24.3 0.5 0
24.6 0.5 0
24.9 0.5 0
25.2 0.5 0
25.5 0.5 0
25.8 0.5 0
26.1 0.5 0
26.4 0.5 0
26.7 0.5 0
27 0.5 0
27.3 0.5 0
27.6 0.5 0
27.9 0.5 0
28.2 0.5 0
28.5 0.5 0
28.8 0.5 0
29.1 0.5 0
29.4 0.5 0
29.7 0.5 0
30 0.5 0
30.3 0.5 0
0 0.6 0
0.3 0.6 0
0.6 0.6 0
0.9 0.6 0
1.2 0.6 0
1.5 0.6 0
1.8 0.6 0
2.1 0.6 0
2.4 0.6 0
2.7 0.6 0
3 0.6 0
3.3 0.6 0
3.6 0.6 0
3.9 0.6 0
4.2 0.6 0
4.5 0.6 0
4.8 0.6 0
5.1 0.6 0
5.4 0.6 0
5.7 0.6 0
6 0.6 0
6.3 0.6 0
6.6 0.6 0
6.9 0.6 0
7.2 0.6 0
7.5 0.6 0
7.8 0.6 0
8.1 0.6 0
8.4 0.6 0
8.7 0.6 0
9 0.6 0
9.3 0.6 0
9.6 0.6 0
9.9 0.6 0
10.2 0.6 0
10.5 0.6 0
10.8 0.6 0
11.1 0.6 0
11.4 0.6 0
11.7 0.6 0
12 0.6 0
12.3 0.6 0
12.6 0.6 0
12.9 0.6 0
13.2 0.6 0
13.5 0.6 0
13.8 0.6 0
14.1 0.6 0
14.4 0.6 0
14.7 0.6 0
15 0.6 0
15.3 0.6 0
15.6 0.6 0
15.9 0.6 0
16.2 0.6 0
16.5 0.6 0
16.8 0.6 0
17.1 0.6 0
17.4 0.6 0
17.7 0.6 0
18 0.6 0
18.3 0.6 0
18.6 0.6 0
18.9 0.6 0
19.2 0.6 0
19.5 0.6 0
19.8 0.6 0
20.1 0.6 0
20.4 0.6 0
20.7 0.6 0
21 0.6 0
21.3 0.6 0
21.6 0.6 0
21.9 0.6 0
22.2 0.6 0
22.5 0.6 0
22.8 0.6 0
23.1 0.6 0
23.4 0.6 0
23.7 0.6 0
24 0.6 0
24.3 0.6 0
24.6 0.6 0
24.9 0.6 0
25.2 0.6 0
25.5 0.6 0
25.8 0.6 0
26.1 0.6 0
26.4 0.6 0
26.7 0.6 0
27 0.6 0
27.3 0.6 0
27.6 0.6 0
27.9 0.6 0
28.2 0.6 0
28.5 0.6 0
28.8 0.6 0
29.1 0.6 0
29.4 0.6 0
29.7 0.6 0
30 0.6 0
30.3 0.6 0
0 0.7 0
0.3 0.7 0
0.6 0.7 0
0.9 0.7 0
1.2 0.7 0
1.5 0.7 0
1.8 0.7 0
2.1 0.7 0
2.4 0.7 0
2.7 0.7 0
3 0.7 0
3.3 0.7 0
3.6 0.7 0
3.9 0.7 0
4.2 0.7 0
4.5 0.7 0
4.8 0.7 0
5.1 0.7 0
5.4 0.7 0
5.7 0.7 0
6 0.7 0
6.3 0.7 0
6.6 0.7 0
6.9 0.7 0
7.2 0.7 0
7.5 0.7 0
7.8 0.7 0
8.1 0.7 0
8.4 0.7 0
8.7 0.7 0
9 0.7 0
9.3 0.7 0
9.6 0.7 0
9.9 0.7 0
10.2 0.7 0
10.5 0.7 0
10.8 0.7 0
11.1 0.7 0
11.4 0.7 0
11.7 0.7 0
12 0.7 0
12.3 0.7 0
12.6 0.7 0
12.9 0.7 0
13.2 0.7 0
13.5 0.7 0
13.8 0.7 0
14.1 0.7 0
14.4 0.7 0
14.7 0.7 0
15 0.7 0
15.3 0.7 0
15.6 0.7 0
15.9 0.7 0
16.2 0.7 0
16.5 0.7 0
16.8 0.7 0
17.1 0.7 0
17.4 0.7 0
17.7 0.7 0
18 0.7 0
18.3 0.7 0
18.6 0.7 0
18.9 0.7 0
19.2 0.7 0
19.5 0.7 0
19.8 0.7 0
20.1 0.7 0
20.4 0.7 0
20.7 0.7 0
21 0.7 0
21.3 0.7 0
21.6 0.7 0
21.9 0.7 0
22.2 0.7 0
22.5 0.7 0
22.8 0.7 0
23.1 0.7 0
23.4 0.7 0
23.7 0.7 0
24 0.7 0
24.3 0.7 0
24.6 0.7 0
24.9 0.7 0
25.2 0.7 0
25.5 0.7 0
25.8 0.7 0
26.1 0.7 0
26.4 0.7 0
26.7 0.7 0
27 0.7 0
27.3 0.7 0
27.6 0.7 0
27.9 0.7 0
28.2 0.7 0
28.5 0.7 0
28.8 0.7 0
29.1 0.7 0
29.4 0.7 0
29.7 0.7 0
30 0.7 0
30.3 0.7 0
0 0.8 0
0.3 0.8 0
0.6 0.8 0
0.9 0.8 0
1.2 0.8 0
1.5 0.8 0
1.8 0.8 0
2.1 0.8 0
2.4 0.8 0
2.7 0.8 0
3 0.8 0
3.3 0.8 0
3.6 0.8 0
3.9 0.8 0
4.2 0.8 0
4.5 0.8 0
4.8 0.8 0
5.1 0.8 0
5.4 0.8 0
5.7 0.8 0
6 0.8 0
6.3 0.8 0
6.6 0.8 0
6.9 0.8 0
7.2 0.8 0
7.5 0.8 0
7.8 0.8 0
8.1 0.8 0
8.4 0.8 0
8.7 0.8 0
9 0.8 0
9.3 0.8 0
9.6 0.8 0
9.9 0.8 0
10.2 0.8 0
10.5 0.8 0
10.8 0.8 0
11.1 0.8 0
11.4 0.8 0
11.7 0.8 0
12 0.8 0
12.3 0.8 0
12.6 0.8 0
12.9 0.8 0
13.2 0.8 0
13.5 0.8 0
13.8 0.8 0
14.1 0.8 0
14.4 0.8 0
14.7 0.8 0
15 0.8 0
15.3 0.8 0
15.6 0.8 0
15.9 0.8 0
16.2 0.8 0
16.5 0.8 0
16.8 0.8 0
17.1 0.8 0
17.4 0.8 0
17.7 0.8 0
18 0.8 0
18.3 0.8 0
18.6 0.8 0
18.9 0.8 0
19.2 0.8 0
19.5 0.8 0
19.8 0.8 0
20.1 0.8 0
20.4 0.8 0
20.7 0.8 0
21 0.8 0
21.3 0.8 0
21.6 0.8 0
21.9 0.8 0
22.2 0.8 0
22.5 0.8 0
22.8 0.8 0
23.1 0.8 0
23.4 0.8 0
23.7 0.8 0
24 0.8 0
24.3 0.8 0
24.6 0.8 0
24.9 0.8 0
25.2 0.8 0
25.5 0.8 0
25.8 0.8 0
26.1 0.8 0
26.4 0.8 0
26.7 0.8 0
27 0.8 0
27.3 0.8 0
27.6 0.8 0
27.9 0.8 0
28.2 0.8 0
28.5 0.8 0
28.8 0.8 0
29.1 0.8 0
29.4 0.8 0
29.7 0.8 0
30 0.8 0
30.3 0.8 0
0 0.9 0
0.3 0.9 0
0.6 0.9 0
0.9 0.9 0
1.2 0.9 0
1.5 0.9 0
1.8 0.9 0
2.1 0.9 0
2.4 0.9 0
2.7 0.9 0
3 0.9 0
3.3 0.9 0
3.6 0.9 0
3.9 0.9 0
4.2 0.9 0
4.5 0.9 0
4.8 0.9 0
5.1 0.9 0
5.4 0.9 0
5.7 0.9 0
6 0.9 0
6.3 0.9 0
6.6 0.9 0
6.9 0.9 0
7.2 0.9 0
7.5 0.9 0
7.8 0.9 0
8.1 0.9 0
8.4 0.9 0
8.7 0.9 0
9 0.9 0
9.3 0.9 0
9.6 0.9 0
9.9 0.9 0
10.2 0.9 0
10.5 0.9 0
10.8 0.9 0
11.1 0.9 0
11.4 0.9 0
11.7 0.9 0
12 0.9 0
12.3 0.9 0
12.6 0.9 0
12.9 0.9 0
13.2 0.9 0
13.5 0.9 0
13.8 0.9 0
14.1 0.9 0
14.4 0.9 0
14.7 0.9 0
15 0.9 0
15.3 0.9 0
15.6 0.9 0
15.9 0.9 0
16.2 0.9 0
16.5 0.9 0
16.8 0.9 0
17.1 0.9 0
17.4 0.9 0
17.7 0.9 0
18 0.9 0
18.3 0.9 0
18.6 0.9 0
18.9 0.9 0
19.2 0.9 0
19.5 0.9 0
19.8 0.9 0
20.1 0.9 0
20.4 0.9 0
20.7 0.9 0
21 0.9 0
21.3 0.9 0
21.6 0.9 0
21.9 0.9 0
22.2 0.9 0
22.5 0.9 0
22.8 0.9 0
23.1 0.9 0
23.4 0.9 0
23.7 0.9 0
24 0.9 0
24.3 0.9 0
24.6 0.9 0
24.9 0.9 0
25.2 0.9 0
25.5 0.9 0
25.8 0.9 0
26.1 0.9 0
26.4 0.9 0
26.7 0.9 0
27 0.9 0
27.3 0.9 0
27.6 0.9 0
27.9 0.9 0
28.2 0.9 0
28.5 0.9 0
28.8 0.9 0
29.1 0.9 0
29.4 0.9 0
29.7 0.9 0
30 0.9 0
30.3 0.9 0
0 1 0
0.3 1 0
0.6 1 0
0.9 1 0
1.2 1 0
1.5 1 0
1.8 1 0
2.1 1 0
2.4 1 0
2.7 1 0
3 1 0
3.3 1 0
3.6 1 0
3.9 1 0
4.2 1 0
4.5 1 0
4.8 1 0
5.1 1 0
5.4 1 0
5.7 1 0
6 1 0
6.3 1 0
6.6 1 0
6.9 1 0
7.2 1 0
7.5 1 0
7.8 1 0
8.1 1 0
8.4 1 0
8.7 1 0
9 1 0
9.3 1 0
9.6 1 0
9.9 1 0
10.2 1 0
10.5 1 0
10.8 1 0
11.1 1 0
11.4 1 0
11.7 1 0
12 1 0
12.3 1 0
12.6 1 0
12.9 1 0
13.2 1 0
13.5 1 0
13.8 1 0
14.1 1 0
14.4 1 0
14.7 1 0
15 1 0
15.3 1 0
15.6 1 0
15.9 1 0
16.2 1 0
16.5 1 0
16.8 1 0
17.1 1 0
17.4 1 0
17.7 1 0
18 1 0
18.3 1 0
18.6 1 0
18.9 1 0
19.2 1 0
19.5 1 0
19.8 1 0
20.1 1 0
20.4 1 0
20.7 1 0
21 1 0
21.3 1 0
21.6 1 0
21.9 1 0
22.2 1 0
22.5 1 0
22.8 1 0
23.1 1 0
23.4 1 0
23.7 1 0
24 1 0
24.3 1 0
24.6 1 0
24.9 1 0
25.2 1 0
25.5 1 0
25.8 1 0
26.1 1 0
26.4 1 0
26.7 1 0
27 1 0
27.3 1 0
27.6 1 0
27.9 1 0
28.2 1 0
28.5 1 0
28.8 1 0
29.1 1 0
29.4 1 0
29.7 1 0
30 1 0
30.3 1 0
0 1.1 0
0.3 1.1 0
0.6 1.1 0
0.9 1.1 0
1.2 1.1 0
1.5 1.1 0
1.8 1.1 0
2.1 1.1 0
2.4 1.1 0
2.7 1.1 0
3 1.1 0
3.3 1.1 0
3.6 1.1 0
3.9 1.1 0
4.2 1.1 0
4.5 1.1 0
4.8 1.1 0
5.1 1.1 0
5.4 1.1 0
5.7 1.1 0
6 1.1 0
6.3 1.1 0
6.6 1.1 0
6.9 1.1 0
7.2 1.1 0
7.5 1.1 0
7.8 1.1 0
8.1 1.1 0
8.4 1.1 0
8.7 1.1 0
9 1.1 0
9.3 1.1 0
9.6 1.1 0
9.9 1.1 0
10.2 1.1 0
10.5 1.1 0
10.8 1.1 0
11.1 1.1 0
11.4 1.1 0
11.7 1.1 0
12 1.1 0
12.3 1.1 0
12.6 1.1 0
12.9 1.1 0
13.2 1.1 0
13.5 1.1 0
13.8 1.1 0
14.1 1.1 0
14.4 1.1 0
14.7 1.1 0
15 1.1 0
15.3 1.1 0
15.6 1.1 0
15.9 1.1 0
16.2 1.1 0
16.5 1.1 0
16.8 1.1 0
17.1 1.1 0
17.4 1.1 0
17.7 1.1 0
18 1.1 0
18.3 1.1 0
18.6 1.1 0
18.9 1.1 0
19.2 1.1 0
19.5 1.1 0
19.8 1.1 0
20.1 1.1 0
20.4 1.1 0
20.7 1.1 0
21 1.1 0
21.3 1.1 0
21.6 1.1 0
21.9 1.1 0
22.2 1.1 0
22.5 1.1 0
22.8 1.1 0
23.1 1.1 0
23.4 1.1 0
23.7 1.1 0
24 1.1 0
24.3 1.1 0
24.6 1.1 0
24.9 1.1 0
25.2 1.1 0
25.5 1.1 0
25.8 1.1 0
26.1 1.1 0
26.4 1.1 0
26.7 1.1 0
27 1.1 0
27.3 1.1 0
27.6 1.1 0
27.9 1.1 0
28.2 1.1 0
28.5 1.1 0
28.8 1.1 0
29.1 1.1 0
29.4 1.1 0
29.7 1.1 0
30 1.1 0
30.3 1.1 0

POINT_DATA 1224

SCALARS pressure double
LOOKUP_TABLE pressure
1.31742
1.31742
1.25091
1.20383
1.16088
1.12122
1.0852
1.05281
1.02371
0.997375
0.973265
0.950912
0.929939
0.910058
0.891052
0.872762
0.855071
0.837889
0.82115
0.8048
0.788797
0.773105
0.757695
0.742542
0.727625
0.712924
0.698422
0.684103
0.669955
0.655964
0.642119
0.62841
0.614827
0.601361
0.588005
0.57475
0.561591
0.54852
0.535534
0.522626
0.509794
0.497033
0.484341
0.471716
0.459155
0.446657
0.434218
0.421836
0.40951
0.397234
0.385006
0.372821
0.360676
0.348566
0.336486
0.324433
0.312402
0.300389
0.288391
0.276406
0.26443
0.252462
0.2405
0.228542
0.216587
0.204635
0.192684
0.180734
0.168785
0.156837
0.144889
0.132942
0.120994
0.109047
0.0971
0.0851528
0.0732057
0.0612586
0.0493115
0.0373644
0.0254174
0.0134703
0.00152321
-0.0104239
-0.0223709
-0.034318
-0.0462651
-0.0582121
-0.0701592
-0.0821063
-0.0940533
-0.106
-0.117947
-0.129895
-0.141842
-0.153789
-0.165736
-0.177683
-0.18963
-0.201577
-0.213519
0.213519
1.31742
1.31742
1.25091
1.20383
1.16088
1.12122
1.0852
1.05281
1.02371
0.997375
0.973265
0.950912
0.929939
0.910058
0.891052
0.872762
0.855071
0.837889
0.82115
0.8048
0.788797
0.773105
0.757695
0.742542
0.727625
0.712924
0.698422
0.684103
0.669955
0.655964
0.642119
0.62841
0.614827
0.601361
0.588005
0.57475
0.561591
0.54852
0.535534
0.522626
0.509794
0.497033
0.484341
0.471716
0.459155
0.446657
0.434218
0.421836
0.40951
0.397234
0.385006
0.372821
0.360676
0.348566
0.336486
0.324433
0.312402
0.300389
0.288391
0.276406
0.26443
0.252462
0.2405
0.228542
0.216587
0.204635
0.192684
0.180734
0.168785
0.156837
0.144889
0.132942
0.120994
0.109047
0.0971
0.0851528
0.0732057
0.0612586
0.0493115
0.0373644
0.0254174
0.0134703
0.00152321
-0.0104239
-0.0223709
-0.034318
-0.0462651
-0.0582121
-0.0701592
-0.0821063
-0.0940533
-0.106
-0.117947
-0.129895
-0.141842
-0.153789
-0.165736
-0.177683
-0.18963
-0.201577
-0.213519
0.213519
1.29677
1.29677
1.24911
1.20414
1.16159
1.12199
1.0859
1.0534
1.02419
0.997745
0.97355
0.951133
0.930112
0.910195
0.891163
0.872854
0.855148
0.837956
0.821208
0.804851
0.788842
0.773145
0.757731
0.742575
0.727655
0.712951
0.698447
0.684126
0.669976
0.655983
0.642137
0.628427
0.614842
0.601376
0.588018
0.574762
0.561602
0.548531
0.535543
0.522635
0.509802
0.49704
0.484348
0.471722
0.45916
0.446661
0.434221
0.421839
0.409512
0.397236
0.385007
0.372822
0.360677
0.348566
0.336486
0.324433
0.312402
0.300389
0.288391
0.276406
0.26443
0.252462
0.2405
0.228542
0.216587
0.204635
0.192684
0.180734
0.168785
0.156837
0.144889
0.132942
0.120994
0.109047
0.0971
0.0851528
0.0732057
0.0612586
0.0493115
0.0373644
0.0254174
0.0134703
0.0015232
-0.0104239
-0.0223709
-0.034318
-0.0462651
-0.0582121
-0.0701592
-0.0821063
-0.0940533
-0.106
-0.117947
-0.129895
-0.141842
-0.153789
-0.165736
-0.177683
-0.18963
-0.201577
-0.213519
0.213519
1.28238
1.28238
1.2466
1.20453
1.16272
1.12326
1.08708
1.0544
1.02498
0.998352
0.974007
0.951474
0.930368
0.910389
0.891313
0.872972
0.855244
0.838034
0.821274
0.804907
0.78889
0.773187
0.757768
0.742608
0.727684
0.712977
0.69847
0.684148
0.669996
0.656001
0.642153
0.628441
0.614856
0.601388
0.588029
0.574773
0.561612
0.54854
0.535551
0.522642
0.509809
0.497046
0.484353
0.471727
0.459165
0.446665
0.434225
0.421842
0.409514
0.397237
0.385008
0.372823
0.360677
0.348567
0.336487
0.324433
0.312402
0.300389
0.288391
0.276406
0.26443
0.252462
0.2405
0.228542
0.216587
0.204634
0.192684
0.180734
0.168785
0.156837
0.144889
0.132942
0.120994
0.109047
0.0971
0.0851528
0.0732057
0.0612586
0.0493115
0.0373644
0.0254174
0.0134703
0.0015232
-0.0104239
-0.0223709
-0.034318
-0.0462651
-0.0582121
-0.0701592
-0.0821063
-0.0940533
-0.106
-0.117947
-0.129895
-0.141842
-0.153789
-0.165736
-0.177683
-0.189629
-0.201575
-0.213518
0.213518
1.27369
1.27369
1.24459
1.20479
1.16365
1.12434
1.08811
1.05529
1.02571
0.998931
0.974455
0.951819
0.930634
0.910597
0.891478
0.873106
0.855353
0.838126
0.821352
0.804974
0.788948
0.773238
0.757813
0.742648
0.72772
0.713009
0.698499
0.684174
0.670019
0.656023
0.642173
0.628459
0.614872
0.601403
0.588043
0.574785
0.561623
0.54855
0.535561
0.522652
0.509817
0.497054
0.484361
0.471734
0.459171
0.446671
0.43423
0.421847
0.409519
0.397241
0.385012
0.372826
0.36068
0.348569
0.336489
0.324435
0.312403
0.30039
0.288392
0.276407
0.264431
0.252462
0.2405
0.228542
0.216587
0.204635
0.192684
0.180734
0.168785
0.156837
0.144889
0.132942
0.120994
0.109047
0.0971
0.0851528
0.0732057
0.0612586
0.0493115
0.0373644
0.0254174
0.0134703
0.00152321
-0.0104239
-0.0223709
-0.034318
-0.0462651
-0.0582121
-0.0701592
-0.0821063
-0.0940533
-0.106
-0.117947
-0.129895
-0.141842
-0.153789
-0.165736
-0.177682
-0.189629
-0.201572
-0.213516
0.213516
1.26961
1.26961
1.24351
1.20491
1.16414
1.12492
1.08868
1.05579
1.02613
0.999265
0.974719
0.952026
0.930797
0.910727
0.891584
0.873193
0.855426
0.838188
0.821405
0.805021
0.788989
0.773275
0.757846
0.742677
0.727746
0.713033
0.698521
0.684193
0.670037
0.656039
0.642188
0.628473
0.614885
0.601414
0.588054
0.574795
0.561632
0.548559
0.535569
0.522659
0.509824
0.497061
0.484367
0.47174
0.459177
0.446676
0.434235
0.421852
0.409523
0.397245
0.385016
0.372829
0.360683
0.348571
0.336491
0.324436
0.312404
0.300391
0.288393
0.276407
0.264431
0.252463
0.2405
0.228542
0.216587
0.204635
0.192684
0.180734
0.168785
0.156837
0.144889
0.132942
0.120994
0.109047
0.0971
0.0851528
0.0732057
0.0612586
0.0493115
0.0373644
0.0254174
0.0134703
0.00152321
-0.0104239
-0.0223709
-0.034318
-0.0462651
-0.0582121
-0.0701592
-0.0821063
-0.0940533
-0.106
-0.117947
-0.129895
-0.141842
-0.153789
-0.165736
-0.177682
-0.189628
-0.201569
-0.213515
0.213515
1.26961
1.26961
1.24351
1.20491
1.16414
1.12492
1.08868
1.05579
1.02613
0.999265
0.974719
0.952026
0.930797
0.910727
0.891584
0.873193
0.855426
0.838188
0.821405
0.805021
0.788989
0.773275
0.757846
0.742677
0.727746
0.713033
0.698521
0.684193
0.670037
0.656039
0.642188
0.628473
0.614885
0.601414
0.588054
0.574795
0.561632
0.548559
0.535569
0.522659
0.509824
0.497061
0.484367
0.47174
0.459177
0.446676
0.434235
0.421852
0.409523
0.397245
0.385016
0.372829
0.360683
0.348571
0.336491
0.324436
0.312404
0.300391
0.288393
0.276407
0.264431
0.252463
0.2405
0.228542
0.216587
0.204635
0.192684
0.180734
0.168785
0.156837
0.144889
0.132942
0.120994
0.109047
0.0971
0.0851528
0.0732057
0.0612586
0.0493115
0.0373644
0.0254174
0.0134703
0.00152321
-0.0104239
-0.0223709
-0.034318
-0.0462651
-0.0582121
-0.0701592
-0.0821063
-0.0940533
-0.106
-0.117947
-0.129895
-0.141842
-0.153789
-0.165736
-0.177682
-0.189628
-0.201569
-0.213515
0.213515
1.27369
1.27369
1.24459
1.20479
1.16365
1.12434
1.08811
1.05529
1.02571
0.998931
0.974455
0.951819
0.930634
0.910597
0.891478
0.873106
0.855353
0.838126
0.821352
0.804974
0.788948
0.773238
0.757813
0.742648
0.72772
0.713009
0.698499
0.684174
0.670019
0.656023
0.642173
0.628459
0.614872
0.601403
0.588043
0.574785
0.561623
0.54855
0.535561
0.522652
0.509817
0.497054
0.484361
0.471734
0.459171
0.446671
0.43423
0.421847
0.409519
0.397241
0.385012
0.372826
0.36068
0.348569
0.336489
0.324435
0.312403
0.30039
0.288392
0.276407
0.264431
0.252462
0.2405
0.228542
0.216587
0.204635
0.192684
0.180734
0.168785
0.156837
0.144889
0.132942
0.120994
0.109047
0.0971
0.0851528
0.0732057
0.0612586
0.0493115
0.0373644
0.0254174
0.0134703
0.00152321
-0.0104239
-0.0223709
-0.034318
-0.0462651
-0.0582121
-0.0701592
-0.0821063
-0.0940533
-0.106
-0.117947
-0.129895
-0.141842
-0.153789
-0.165736
-0.177682
-0.189629
-0.201572
-0.213516
0.213516
1.28238
1.28238
1.2466
1.20453
1.16272
1.12326
1.08708
1.0544
1.02498
0.998352
0.974007
0.951474
0.930368
0.910389
0.891313
0.872972
0.855244
0.838034
0.821274
0.804907
0.78889
0.773187
0.757768
0.742608
0.727684
0.712977
0.69847
0.684148
0.669996
0.656001
0.642153
0.628441
0.614856
0.601388
0.588029
0.574773
0.561612
0.54854
0.535551
0.522642
0.509809
0.497046
0.484353
0.471727
0.459165
0.446665
0.434225
0.421842
0.409514
0.397237
0.385008
0.372823
0.360677
0.348567
0.336487
0.324433
0.312402
0.300389
0.288391
0.276406
0.26443
0.252462
0.2405
0.228542
0.216587
0.204634
0.192684
0.180734
0.168785
0.156837
0.144889
0.132942
0.120994
0.109047
0.0971
0.0851528
0.0732057
0.0612586
0.0493115
0.0373644
0.0254174
0.0134703
0.00152321
-0.0104239
-0.0223709
-0.034318
-0.0462651
-0.0582121
-0.0701592
-0.0821063
-0.0940533
-0.106
-0.117947
-0.129895
-0.141842
-0.153789
-0.165736
-0.177683
-0.189629
-0.201575
-0.213518
0.213518
1.29677
1.29677
1.24911
1.20414
1.16159
1.12199
1.0859
1.0534
1.02419
0.997745
0.97355
0.951133
0.930112
0.910195
0.891163
0.872854
0.855148
0.837956
0.821208
0.804851
0.788842
0.773145
0.757731
0.742575
0.727655
0.712951
0.698447
0.684126
0.669976
0.655983
0.642137
0.628427
0.614842
0.601376
0.588018
0.574762
0.561602
0.548531
0.535543
0.522635
0.509802
0.49704
0.484348
0.471722
0.45916
0.446661
0.434221
0.421839
0.409512
0.397236
0.385007
0.372822
0.360677
0.348566
0.336486
0.324433
0.312402
0.300389
0.288391
0.276406
0.26443
0.252462
0.2405
0.228542
0.216587
0.204635
0.192684
0.180734
0.168785
0.156837
0.144889
0.132942
0.120994
0.109047
0.0971
0.0851528
0.0732057
0.0612586
0.0493115
0.0373644
0.0254174
0.0134703
0.00152321
-0.0104239
-0.0223709
-0.034318
-0.0462651
-0.0582121
-0.0701592
-0.0821063
-0.0940533
-0.106
-0.117947
-0.129895
-0.141842
-0.153789
-0.165736
-0.177683
-0.18963
-0.201577
-0.213519
0.213519
1.31742
1.31742
1.25091
1.20383
1.16088
1.12122
1.0852
1.05281
1.02371
0.997375
0.973265
0.950912
0.929939
0.910058
0.891052
0.872762
0.855071
0.837889
0.82115
0.8048
0.788797
0.773105
0.757695
0.742542
0.727625
0.712924
0.698422
0.684103
0.669955
0.655964
0.642119
0.62841
0.614827
0.601361
0.588005
0.57475
0.561591
0.54852
0.535534
0.522626
0.509794
0.497033
0.484341
0.471716
0.459155
0.446657
0.434218
0.421836
0.40951
0.397234
0.385006
0.372821
0.360676
0.348566
0.336486
0.324433
0.312402
0.300389
0.288391
0.276406
0.26443
0.252462
0.2405
0.228542
0.216587
0.204635
0.192684
0.180734
0.168785
0.156837
0.144889
0.132942
0.120994
0.109047
0.0971
0.0851528
0.0732057
0.0612586
0.0493115
0.0373644
0.0254174
0.0134703
0.00152321
-0.0104239
-0.0223709
-0.034318
-0.0462651
-0.0582121
-0.0701592
-0.0821063
-0.0940533
-0.106
-0.117947
-0.129895
-0.141842
-0.153789
-0.165736
-0.177683
-0.18963
-0.201577
-0.213519
0.213519
1.31742
1.31742
1.25091
1.20383
1.16088
1.12122
1.0852
1.05281
1.02371
0.997375
0.973265
0.950912
0.929939
0.910058
0.891052
0.872762
0.855071
0.837889
0.82115
0.8048
0.788797
0.773105
0.757695
0.742542
0.727625
0.712924
0.698422
0.684103
0.669955
0.655964
0.642119
0.62841
0.614827
0.601361
0.588005
0.57475
0.561591
0.54852
0.535534
0.522626
0.509794
0.497033
0.484341
0.471716
0.459155
0.446657
0.434218
0.421836
0.40951
0.397234
0.385006
0.372821
0.360676
0.348566
0.336486
0.324433
0.312402
0.300389
0.288391
0.276406
0.26443
0.252462
0.2405
0.228542
0.216587
0.204635
0.192684
0.180734
0.168785
0.156837
0.144889
0.132942
0.120994
0.109047
0.0971
0.0851528
0.0732057
0.0612586
0.0493115
0.0373644
0.0254174
0.0134703
0.00152321
-0.0104239
-0.0223709
-0.034318
-0.0462651
-0.0582121
-0.0701592
-0.0821063
-0.0940533
-0.106
-0.117947
-0.129895
-0.141842
-0.153789
-0.165736
-0.177683
-0.18963
-0.201577
-0.213519
0.213519
SCALARS phi double
LOOKUP_TABLE phi
1
1
1
0.999995
0.999977
0.999931
0.999833
0.999654
0.999363
0.998928
0.998323
0.997524
0.996508
0.995264
0.993816
0.992199
0.990359
0.988025
0.984639
0.97942
0.971534
0.96029
0.945269
0.926364
0.903735
0.877729
0.848804
0.817458
0.784193
0.749492
0.7138
0.677526
0.641031
0.604633
0.568605
0.533177
0.498536
0.464834
0.432189
0.40069
0.370403
0.341369
0.313618
0.287162
0.262006
0.238148
0.215581
0.194295
0.17428
0.155523
0.138014
0.121741
0.106692
0.0928527
0.0802067
0.0687319
0.0584009
0.0491787
0.0410224
0.0338806
0.0276933
0.022393
0.0179061
0.0141542
0.0110569
0.0085334
0.00650497
0.0048968
0.00363953
0.00267042
0.00193404
0.00138248
0.000975296
0.000679005
0.000466509
0.000316295
0.00021163
0.00013974
9.10626e-05
5.85675e-05
3.71787e-05
2.32959e-05
1.44095e-05
8.79893e-06
5.30473e-06
3.15782e-06
1.85627e-06
1.07762e-06
6.17879e-07
3.49944e-07
1.95791e-07
1.08227e-07
5.91106e-08
3.19029e-08
1.70167e-08
8.9711e-09
4.67502e-09
2.40854e-09
1.22627e-09
6.20904e-10
2.87667e-10
2.87667e-10
1
1
1
0.999995
0.999977
0.999931
0.999833
0.999654
0.999363
0.998928
0.998323
0.997524
0.996508
0.995264
0.993816
0.992199
0.990359
0.988025
0.984639
0.97942
0.971534
0.96029
0.945269
0.926364
0.903735
0.877729
0.848804
0.817458
0.784193
0.749492
0.7138
0.677526
0.641031
0.604633
0.568605
0.533177
0.498536
0.464834
0.432189
0.40069
0.370403
0.341369
0.313618
0.287162
0.262006
0.238148
0.215581
0.194295
0.17428
0.155523
0.138014
0.121741
0.106692
0.0928527
0.0802067
0.0687319
0.0584009
0.0491787
0.0410224
0.0338806
0.0276933
0.022393
0.0179061
0.0141542
0.0110569
0.0085334
0.00650497
0.0048968
0.00363953
0.00267042
0.00193404
0.00138248
0.000975296
0.000679005
0.000466509
0.000316295
0.00021163
0.00013974
9.10626e-05
5.85675e-05
3.71787e-05
2.32959e-05
1.44095e-05
8.79893e-06
5.30473e-06
3.15782e-06
1.85627e-06
1.07762e-06
6.17879e-07
3.49944e-07
1.95791e-07
1.08227e-07
5.91106e-08
3.19029e-08
1.70167e-08
8.9711e-09
4.67502e-09
2.40854e-09
1.22627e-09
6.20904e-10
2.87667e-10
2.87667e-10
0.999998
1
0.999984
0.999921
0.999783
0.999536
0.999146
0.99858
0.997811
0.996819
0.995589
0.994116
0.992397
0.990434
0.988236
0.985823
0.983213
0.980387
0.977243
0.973565
0.969027
0.963235
0.955782
0.946315
0.934572
0.920401
0.903765
0.884727
0.863428
0.84007
0.814894
0.788168
0.760168
0.731168
0.701437
0.671224
0.640762
0.610257
0.579895
0.549833
0.520205
0.491117
0.462655
0.43488
0.407835
0.381543
0.356016
0.331251
0.307243
0.283978
0.261447
0.239646
0.218578
0.19826
0.178722
0.160008
0.142176
0.125294
0.109433
0.0946653
0.0810551
0.0686523
0.0574878
0.0475689
0.0388781
0.0313725
0.0249868
0.0196366
0.0152234
0.0116403
0.00877737
0.00652621
0.00478434
0.00345803
0.00246419
0.00173125
0.00119921
0.000819038
0.00055158
0.000366304
0.000239905
0.000154967
9.87386e-05
6.20622e-05
3.84866e-05
2.35495e-05
1.42199e-05
8.47433e-06
4.98496e-06
2.8948e-06
1.6597e-06
9.39613e-07
5.25328e-07
2.90086e-07
1.58232e-07
8.52671e-08
4.53985e-08
2.38863e-08
1.24139e-08
6.4175e-09
3.02254e-09
3.02254e-09
1.00001
0.999992
0.99954
0.998615
0.997207
0.995316
0.992954
0.990144
0.986922
0.983331
0.979421
0.975241
0.970836
0.966247
0.961512
0.956663
0.951731
0.946738
0.941694
0.936581
0.931349
0.925903
0.920114
0.913826
0.906869
0.899077
0.890299
0.880411
0.869318
0.856962
0.843319
0.828397
0.812237
0.7949
0.776471
0.75705
0.736747
0.715682
0.693974
0.671744
0.649109
0.626176
0.603047
0.579806
0.556525
0.53326
0.510049
0.486909
0.463841
0.440828
0.417835
0.394821
0.371739
0.348547
0.32522
0.301756
0.278193
0.254611
0.231137
0.207943
0.185242
0.163269
0.142272
0.122487
0.104126
0.0873574
0.0722964
0.0589996
0.0474641
0.0376324
0.0294007
0.0226307
0.017161
0.0128196
0.00943377
0.00683886
0.00488414
0.00343657
0.00238248
0.00162758
0.00109574
0.000727075
0.000475565
0.000306659
0.000194973
0.000122244
7.55918e-05
4.61083e-05
2.77462e-05
1.64743e-05
9.65286e-06
5.58227e-06
3.18663e-06
1.7959e-06
9.9936e-07
5.49175e-07
2.98061e-07
1.59804e-07
8.45947e-08
4.45486e-08
2.13291e-08
2.13291e-08
1.00143
0.99857
0.991252
0.98188
0.971566
0.96086
0.950051
0.939311
0.928756
0.918467
0.908503
0.898898
0.889671
0.880827
0.87236
0.864261
0.856512
0.849098
0.842
0.835194
0.828655
0.822348
0.816228
0.810238
0.804313
0.798375
0.792342
0.786128
0.779647
0.772818
0.765566
0.757823
0.749535
0.740658
0.73116
0.721023
0.710237
0.698808
0.686749
0.674081
0.660833
0.647041
0.632743
0.617977
0.602782
0.587192
0.571235
0.55493
0.53828
0.52127
0.503863
0.485999
0.467591
0.448528
0.428689
0.407952
0.386212
0.363406
0.33953
0.314661
0.288965
0.262698
0.236198
0.20986
0.184114
0.15939
0.136082
0.114525
0.0949706
0.077578
0.062409
0.0494359
0.0385548
0.0296026
0.0223763
0.0166518
0.0122003
0.0088014
0.00625232
0.00437409
0.00301402
0.00204585
0.00136814
0.00090154
0.000585465
0.000374755
0.000236479
0.000147132
9.02731e-05
5.46283e-05
3.26102e-05
1.92059e-05
1.11617e-05
6.4018e-06
3.62428e-06
2.0256e-06
1.11779e-06
6.09152e-07
3.27659e-07
1.75335e-07
8.52055e-08
8.52055e-08
1.0456
0.954401
0.887723
0.838674
0.801641
0.772861
0.749886
0.731119
0.715499
0.702298
0.691001
0.681228
0.672693
0.665173
0.658493
0.652515
0.647126
0.642236
0.637773
0.633674
0.629891
0.62638
0.623103
0.620024
0.617108
0.61432
0.611623
0.608979
0.606347
0.603685
0.600951
0.5981
0.595091
0.591883
0.588436
0.584714
0.580683
0.576315
0.571585
0.566472
0.56096
0.555036
0.548694
0.541928
0.534738
0.527124
0.519085
0.510621
0.501724
0.492371
0.482525
0.47212
0.461059
0.449204
0.436387
0.422408
0.407058
0.390143
0.37151
0.351085
0.328892
0.305079
0.279917
0.253796
0.227197
0.200655
0.174723
0.149923
0.126713
0.105454
0.0863939
0.0696638
0.0552824
0.0431715
0.0331768
0.0250906
0.0186747
0.0136805
0.00986503
0.00700327
0.00489517
0.0033695
0.00228434
0.00152555
0.00100376
0.000650804
0.000415871
0.000261958
0.000162682
9.96236e-05
6.01685e-05
3.58454e-05
2.10682e-05
1.22186e-05
6.99334e-06
3.95081e-06
2.20339e-06
1.21337e-06
6.59394e-07
3.56507e-07
1.7495e-07
1.7495e-07
-0.0455988
0.0455988
0.112277
0.161327
0.198359
0.227139
0.250114
0.268881
0.284502
0.297702
0.308999
0.318772
0.327307
0.334827
0.341507
0.347485
0.352874
0.357764
0.362228
0.366327
0.37011
0.373618
0.376885
0.379938
0.382801
0.385492
0.388022
0.390403
0.39264
0.394735
0.396686
0.398489
0.400138