# vtk DataFile Version 3.0
FlowField
ASCII
DATASET STRUCTURED_GRID
DIMENSIONS 22 17 12 
POINTS 4488 double
0 0 0
5 0 0
10 0 0
15 0 0
20 0 0
25 0 0
30 0 0
35 0 0
40 0 0
45 0 0
50 0 0
55 0 0
60 0 0
65 0 0
70 0 0
75 0 0
80 0 0
85 0 0
90 0 0
95 0 0
100 0 0
105 0 0
0 1 0
5 1 0
10 1 0
15 1 0
20 1 0
25 1 0
30 1 0
35 1 0
40 1 0
45 1 0
50 1 0
55 1 0
60 1 0
65 1 0
70 1 0
75 1 0
80 1 0
85 1 0
90 1 0
95 1 0
100 1 0
105 1 0
0 2 0
5 2 0
10 2 0
15 2 0
20 2 0
25 2 0
30 2 0
35 2 0
40 2 0
45 2 0
50 2 0
55 2 0
60 2 0
65 2 0
70 2 0
75 2 0
80 2 0
85 2 0
90 2 0
95 2 0
100 2 0
105 2 0
0 3 0
5 3 0
10 3 0
15 3 0
20 3 0
25 3 0
30 3 0
35 3 0
40 3 0
45 3 0
50 3 0
55 3 0
60 3 0
65 3 0
70 3 0
75 3 0
80 3 0
85 3 0
90 3 0
95 3 0
100 3 0
105 3 0
0 4 0
5 4 0
10 4 0
15 4 0
20 4 0
25 4 0
30 4 0
35 4 0
40 4 0
45 4 0
50 4 0
55 4 0
60 4 0
65 4 0
70 4 0
75 4 0
80 4 0
85 4 0
90 4 0
95 4 0
100 4 0
105 4 0
0 5 0
5 5 0
10 5 0
15 5 0
20 5 0
25 5 0
30 5 0
35 5 0
40 5 0
45 5 0
50 5 0
55 5 0
60 5 0
65 5 0
70 5 0
75 5 0
80 5 0
85 5 0
90 5 0
95 5 0
100 5 0
105 5 0
0 6 0
5 6 0
10 6 0
15 6 0
20 6 0
25 6 0
30 6 0
35 6 0
40 6 0
45 6 0
50 6 0
55 6 0
60 6 0
65 6 0
70 6 0
75 6 0
80 6 0
85 6 0
90 6 0
95 6 0
100 6 0
105 6 0
0 7 0
5 7 0
10 7 0
15 7 0
20 7 0
25 7 0
30 7 0
35 7 0
40 7 0
45 7 0
50 7 0
55 7 0
60 7 0
65 7 0
70 7 0
75 7 0
80 7 0
85 7 0
90 7 0
95 7 0
100 7 0
105 7 0
0 8 0
5 8 0
10 8 0
15 8 0
20 8 0
25 8 0
30 8 0
35 8 0
40 8 0
45 8 0
50 8 0
55 8 0
60 8 0
65 8 0
70 8 0
75 8 0
80 8 0
85 8 0
90 8 0
95 8 0
100 8 0
105 8 0
0 9 0
5 9 0
10 9 0
15 9 0
20 9 0
25 9 0
30 9 0
35 9 0
40 9 0
45 9 0
50 9 0
55 9 0
60 9 0
65 9 0
70 9 0
75 9 0
80 9 0
85 9 0
90 9 0
95 9 0
100 9 0
105 9 0
0 10 0
5 10 0
10 10 0
15 10 0
20 10 0
25 10 0
30 10 0
35 10 0
40 10 0
45 10 0
50 10 0
55 10 0
60 10 0
65 10 0
70 10 0
75 10 0
80 10 0
85 10 0
90 10 0
95 10 0
100 10 0
105 10 0
0 11 0
5 11 0
10 11 0
15 11 0
20 11 0
25 11 0
30 11 0
35 11 0
40 11 0
45 11 0
50 11 0
55 11 0
60 11 0
65 11 0
70 11 0
75 11 0
80 11 0
85 11 0
90 11 0
95 11 0
100 11 0
105 11 0
0 12 0
5 12 0
10 12 0
15 12 0
20 12 0
25 12 0
30 12 0
35 12 0
40 12 0
45 12 0
50 12 0
55 12 0
60 12 0
65 12 0
70 12 0
75 12 0
80 12 0
85 12 0
90 12 0
95 12 0
100 12 0
105 12 0
0 13 0
5 13 0
10 13 0
15 13 0
20 13 0
25 13 0
30 13 0
35 13 0
40 13 0
45 13 0
50 13 0
55 13 0
60 13 0
65 13 0
70 13 0
75 13 0
80 13 0
85 13 0
90 13 0
95 13 0
100 13 0
105 13 0
0 14 0
5 14 0
10 14 0
15 14 0
20 14 0
25 14 0
30 14 0
35 14 0
40 14 0
45 14 0
50 14 0
55 14 0
60 14 0
65 14 0
70 14 0
75 14 0
80 14 0
85 14 0
90 14 0
95 14 0
100 14 0
105 14 0
0 15 0
5 15 0
10 15 0
15 15 0
20 15 0
25 15 0
30 15 0
35 15 0
40 15 0
45 15 0
50 15 0
55 15 0
60 15 0
65 15 0
70 15 0
75 15 0
80 15 0
85 15 0
90 15 0
95 15 0
100 15 0
105 15 0
0 16 0
5 16 0
10 16 0
15 16 0
20 16 0
25 16 0
30 16 0
35 16 0
40 16 0
45 16 0
50 16 0
55 16 0
60 16 0
65 16 0
70 16 0
75 16 0
80 16 0
85 16 0
90 16 0
95 16 0
100 16 0
105 16 0
0 0 1
5 0 1
10 0 1
15 0 1
20 0 1
25 0 1
30 0 1
35 0 1
40 0 1
45 0 1
50 0 1
55 0 1
60 0 1
65 0 1
70 0 1
75 0 1
80 0 1
85 0 1
90 0 1
95 0 1
100 0 1
105 0 1
0 1 1
5 1 1
10 1 1
15 1 1
20 1 1
25 1 1
30 1 1
35 1 1
40 1 1
45 1 1
50 1 1
55 1 1
60 1 1
65 1 1
70 1 1
75 1 1
80 1 1
85 1 1
90 1 1
95 1 1
100 1 1
105 1 1
0 2 1
5 2 1
10 2 1
15 2 1
20 2 1
25 2 1
30 2 1
35 2 1
40 2 1
45 2 1
50 2 1
55 2 1
60 2 1
65 2 1
70 2 1
75 2 1
80 2 1
85 2 1
90 2 1
95 2 1
100 2 1
105 2 1
0 3 1
5 3 1
10 3 1
15 3 1
20 3 1
25 3 1
30 3 1
35 3 1
40 3 1
45 3 1
50 3 1
55 3 1
60 3 1
65 3 1
70 3 1
75 3 1
80 3 1
85 3 1
90 3 1
95 3 1
100 3 1
105 3 1
0 4 1
5 4 1
10 4 1
15 4 1
20 4 1
25 4 1
30 4 1
35 4 1
40 4 1
45 4 1
50 4 1
55 4 1
60 4 1
65 4 1
70 4 1
75 4 1
80 4 1
85 4 1
90 4 1
95 4 1
100 4 1
105 4 1
0 5 1
5 5 1
10 5 1
15 5 1
20 5 1
25 5 1
30 5 1
35 5 1
40 5 1
45 5 1
50 5 1
55 5 1
60 5 1
65 5 1
70 5 1
75 5 1
80 5 1
85 5 1
90 5 1
95 5 1
100 5 1
105 5 1
0 6 1
5 6 1
10 6 1
15 6 1
20 6 1
25 6 1
30 6 1
35 6 1
40 6 1
45 6 1
50 6 1
55 6 1
60 6 1
65 6 1
70 6 1
75 6 1
80 6 1
85 6 1
90 6 1
95 6 1
100 6 1
105 6 1
0 7 1
5 7 1
10 7 1
15 7 1
20 7 1
25 7 1
30 7 1
35 7 1
40 7 1
45 7 1
50 7 1
55 7 1
60 7 1
65 7 1
70 7 1
75 7 1
80 7 1
85 7 1
90 7 1
95 7 1
100 7 1
105 7 1
0 8 1
5 8 1
10 8 1
15 8 1
20 8 1
25 8 1
30 8 1
35 8 1
40 8 1
45 8 1
50 8 1
55 8 1
60 8 1
65 8 1
70 8 1
75 8 1
80 8 1
85 8 1
90 8 1
95 8 1
100 8 1
105 8 1
0 9 1
5 9 1
10 9 1
15 9 1
20 9 1
25 9 1
30 9 1
35 9 1
40 9 1
45 9 1
50 9 1
55 9 1
60 9 1
65 9 1
70 9 1
75 9 1
80 9 1
85 9 1
90 9 1
95 9 1
100 9 1
105 9 1
0 10 1
5 10 1
10 10 1
15 10 1
20 10 1
25 10 1
30 10 1
35 10 1
40 10 1
45 10 1
50 10 1
55 10 1
60 10 1
65 10 1
70 10 1
75 10 1
80 10 1
85 10 1
90 10 1
95 10 1
100 10 1
105 10 1
0 11 1
5 11 1
10 11 1
15 11 1
20 11 1
25 11 1
30 11 1
35 11 1
40 11 1
45 11 1
50 11 1
55 11 1
60 11 1
65 11 1
70 11 1
75 11 1
80 11 1
85 11 1
90 11 1
95 11 1
100 11 1
105 11 1
0 12 1
5 12 1
10 12 1
15 12 1
20 12 1
25 12 1
30 12 1
35 12 1
40 12 1
45 12 1
50 12 1
55 12 1
60 12 1
65 12 1
70 12 1
75 12 1
80 12 1
85 12 1
90 12 1
95 12 1
100 12 1
105 12 1
0 13 1
5 13 1
10 13 1
15 13 1
20 13 1
25 13 1
30 13 1
35 13 1
40 13 1
45 13 1
50 13 1
55 13 1
60 13 1
65 13 1
70 13 1
75 13 1
80 13 1
85 13 1
90 13 1
95 13 1
100 13 1
105 13 1
0 14 1
5 14 1
10 14 1
15 14 1
20 14 1
25 14 1
30 14 1
35 14 1
40 14 1
45 14 1
50 14 1
55 14 1
60 14 1
65 14 1
70 14 1
75 14 1
80 14 1
85 14 1
90 14 1
95 14 1
100 14 1
105 14 1
0 15 1
5 15 1
10 15 1
15 15 1
20 15 1
25 15 1
30 15 1
35 15 1
40 15 1
45 15 1
50 15 1
55 15 1
60 15 1
65 15 1
70 15 1
75 15 1
80 15 1
85 15 1
90 15 1
95 15 1
100 15 1
105 15 1
0 16 1
5 16 1
10 16 1
15 16 1
20 16 1
25 16 1
30 16 1
35 16 1
40 16 1
45 16 1
50 16 1
55 16 1
60 16 1
65 16 1
70 16 1
75 16 1
80 16 1
85 16 1
90 16 1
95 16 1
100 16 1
105 16 1
0 0 2
5 0 2
10 0 2
15 0 2
20 0 2
25 0 2
30 0 2
35 0 2
40 0 2
45 0 2
50 0 2
55 0 2
60 0 2
65 0 2
70 0 2
75 0 2
80 0 2
85 0 2
90 0 2
95 0 2
100 0 2
105 0 2
0 1 2
5 1 2
10 1 2
15 1 2
20 1 2
25 1 2
30 1 2
35 1 2
40 1 2
45 1 2
50 1 2
55 1 2
60 1 2
65 1 2
70 1 2
75 1 2
80 1 2
85 1 2
90 1 2
95 1 2
100 1 2
105 1 2
0 2 2
5 2 2
10 2 2
15 2 2
20 2 2
25 2 2
30 2 2
35 2 2
40 2 2
45 2 2
50 2 2
55 2 2
60 2 2
65 2 2
70 2 2
75 2 2
80 2 2
85 2 2
90 2 2
95 2 2
100 2 2
105 2 2
0 3 2
5 3 2
10 3 2
15 3 2
20 3 2
25 3 2
30 3 2
35 3 2
40 3 2
45 3 2
50 3 2
55 3 2
60 3 2
65 3 2
70 3 2
75 3 2
80 3 2
85 3 2
90 3 2
95 3 2
100 3 2
105 3 2
0 4 2
5 4 2
10 4 2
15 4 2
20 4 2
25 4 2
30 4 2
35 4 2
40 4 2
45 4 2
50 4 2
55 4 2
60 4 2
65 4 2
70 4 2
75 4 2
80 4 2
85 4 2
90 4 2
95 4 2
100 4 2
105 4 2
0 5 2
5 5 2
10 5 2
15 5 2
20 5 2
25 5 2
30 5 2
35 5 2
40 5 2
45 5 2
50 5 2
55 5 2
60 5 2
65 5 2
70 5 2
75 5 2
80 5 2
85 5 2
90 5 2
95 5 2
100 5 2
105 5 2
0 6 2
5 6 2
10 6 2
15 6 2
20 6 2
25 6 2
30 6 2
35 6 2
40 6 2
45 6 2
50 6 2
55 6 2
60 6 2
65 6 2
70 6 2
75 6 2
80 6 2
85 6 2
90 6 2
95 6 2
100 6 2
105 6 2
0 7 2
5 7 2
10 7 2
15 7 2
20 7 2
25 7 2
30 7 2
35 7 2
40 7 2
45 7 2
50 7 2
55 7 2
60 7 2
65 7 2
70 7 2
75 7 2
80 7 2
85 7 2
90 7 2
95 7 2
100 7 2
105 7 2
0 8 2
5 8 2
10 8 2
15 8 2
20 8 2
25 8 2
30 8 2
35 8 2
40 8 2
45 8 2
50 8 2
55 8 2
60 8 2
65 8 2
70 8 2
75 8 2
80 8 2
85 8 2
90 8 2
95 8 2
100 8 2
105 8 2
0 9 2
5 9 2
10 9 2
15 9 2
20 9 2
25 9 2
30 9 2
35 9 2
40 9 2
45 9 2
50 9 2
55 9 2
60 9 2
65 9 2
70 9 2
75 9 2
80 9 2
85 9 2
90 9 2
95 9 2
100 9 2
105 9 2
0 10 2
5 10 2
10 10 2
15 10 2
20 10 2
25 10 2
30 10 2
35 10 2
40 10 2
45 10 2
50 10 2
55 10 2
60 10 2
65 10 2
70 10 2
75 10 2
80 10 2
85 10 2
90 10 2
95 10 2
100 10 2
105 10 2
0 11 2
5 11 2
10 11 2
15 11 2
20 11 2
25 11 2
30 11 2
35 11 2
40 11 2
45 11 2
50 11 2
55 11 2
60 11 2
65 11 2
70 11 2
75 11 2
80 11 2
85 11 2
90 11 2
95 11 2
100 11 2
105 11 2
0 12 2
5 12 2
10 12 2
15 12 2
20 12 2
25 12 2
30 12 2
35 12 2
40 12 2
45 12 2
50 12 2
55 12 2
60 12 2
65 12 2
70 12 2
75 12 2
80 12 2
85 12 2
90 12 2
95 12 2
100 12 2
105 12 2
0 13 2
5 13 2
10 13 2
15 13 2
20 13 2
25 13 2
30 13 2
35 13 2
40 13 2
45 13 2
50 13 2
55 13 2
60 13 2
65 13 2
70 13 2
75 13 2
80 13 2
85 13 2
90 13 2
95 13 2
100 13 2
105 13 2
0 14 2
5 14 2
10 14 2
15 14 2
20 14 2
25 14 2
30 14 2
35 14 2
40 14 2
45 14 2
50 14 2
55 14 2
60 14 2
65 14 2
70 14 2
75 14 2
80 14 2
85 14 2
90 14 2
95 14 2
100 14 2
105 14 2
0 15 2
5 15 2
10 15 2
15 15 2
20 15 2
25 15 2
30 15 2
35 15 2
40 15 2
45 15 2
50 15 2
55 15 2
60 15 2
65 15 2
70 15 2
75 15 2
80 15 2
85 15 2
90 15 2
95 15 2
100 15 2
105 15 2
0 16 2
5 16 2
10 16 2
15 16 2
20 16 2
25 16 2
30 16 2
35 16 2
40 16 2
45 16 2
50 16 2
55 16 2
60 16 2
65 16 2
70 16 2
75 16 2
80 16 2
85 16 2
90 16 2
95 16 2
100 16 2
105 16 2
0 0 3
5 0 3
10 0 3
15 0 3
20 0 3
25 0 3
30 0 3
35 0 3
40 0 3
45 0 3
50 0 3
55 0 3
60 0 3
65 0 3
70 0 3
75 0 3
80 0 3
85 0 3
90 0 3
95 0 3
100 0 3
105 0 3
0 1 3
5 1 3
10 1 3
15 1 3
20 1 3
25 1 3
30 1 3
35 1 3
40 1 3
45 1 3
50 1 3
55 1 3
60 1 3
65 1 3
70 1 3
75 1 3
80 1 3
85 1 3
90 1 3
95 1 3
100 1 3
105 1 3
0 2 3
5 2 3
10 2 3
15 2 3
20 2 3
25 2 3
30 2 3
35 2 3
40 2 3
45 2 3
50 2 3
55 2 3
60 2 3
65 2 3
70 2 3
75 2 3
80 2 3
85 2 3
90 2 3
95 2 3
100 2 3
105 2 3
0 3 3
5 3 3
10 3 3
15 3 3
20 3 3
25 3 3
30 3 3
35 3 3
40 3 3
45 3 3
50 3 3
55 3 3
60 3 3
65 3 3
70 3 3
75 3 3
80 3 3
85 3 3
90 3 3
95 3 3
100 3 3
105 3 3
0 4 3
5 4 3
10 4 3
15 4 3
20 4 3
25 4 3
30 4 3
35 4 3
40 4 3
45 4 3
50 4 3
55 4 3
60 4 3
65 4 3
70 4 3
75 4 3
80 4 3
85 4 3
90 4 3
95 4 3
100 4 3
105 4 3
0 5 3
5 5 3
10 5 3
15 5 3
20 5 3
25 5 3
30 5 3
35 5 3
40 5 3
45 5 3
50 5 3
55 5 3
60 5 3
65 5 3
70 5 3
75 5 3
80 5 3
85 5 3
90 5 3
95 5 3
100 5 3
105 5 3
0 6 3
5 6 3
10 6 3
15 6 3
20 6 3
25 6 3
30 6 3
35 6 3
40 6 3
45 6 3
50 6 3
55 6 3
60 6 3
65 6 3
70 6 3
75 6 3
80 6 3
85 6 3
90 6 3
95 6 3
100 6 3
105 6 3
0 7 3
5 7 3
10 7 3
15 7 3
20 7 3
25 7 3
30 7 3
35 7 3
40 7 3
45 7 3
50 7 3
55 7 3
60 7 3
65 7 3
70 7 3
75 7 3
80 7 3
85 7 3
90 7 3
95 7 3
100 7 3
105 7 3
0 8 3
5 8 3
10 8 3
15 8 3
20 8 3
25 8 3
30 8 3
35 8 3
40 8 3
45 8 3
50 8 3
55 8 3
60 8 3
65 8 3
70 8 3
75 8 3
80 8 3
85 8 3
90 8 3
95 8 3
100 8 3
105 8 3
0 9 3
5 9 3
10 9 3
15 9 3
20 9 3
25 9 3
30 9 3
35 9 3
40 9 3
45 9 3
50 9 3
55 9 3
60 9 3
65 9 3
70 9 3
75 9 3
80 9 3
85 9 3
90 9 3
95 9 3
100 9 3
105 9 3
0 10 3
5 10 3
10 10 3
15 10 3
[...]
POINT_DATA 4488

SCALARS pressure double
LOOKUP_TABLE pressure
0
0
0
0
0
0
0
0
0
0
0
0
0
0
0
0
0
0
0
0
0
0
0
9.25898
9.32605
9.4113
9.3238
9.36966
9.81795
10.2172
10.5188
10.8032
11.0475
11.3136
11.2792
11.3821
11.6643
11.5663
10.8212
10.6092
10.1655
9.89521
9.70806
0
0
9.26691
9.33463
9.42749
9.32231
9.36358
9.81953
10.2218
10.5188
10.7532
11.0484
11.3222
11.2696
11.3924
11.6741
11.587
10.758
10.6092
10.153
9.88746
9.70679
0
0
9.2766
9.34461
9.43471
9.336
9.36392
9.81604
10.2317
10.5202
10.7634
11.0516
11.3392
11.3673
11.408
11.7002
11.6334
11.684
10.6213
10.1281
9.87266
9.7056
0
0
9.28836
9.35768
9.45516
9.34858
9.02028
9.82321
10.2472
10.5371
10.7712
11.0557
11.3629
11.3314
11.4281
11.7438
11.6872
11.6277
10.597
10.0888
9.85054
9.70457
0
0
9.30182
9.37344
9.46563
9.36968
8.97822
9.84968
10.2685
10.5423
10.7769
11.0602
11.3929
12.0647
11.4762
11.8097
11.752
11.6279
10.5481
10.0337
9.82067
9.70374
0
0
9.31711
9.39232
9.49285
9.41847
8.89127
9.89621
10.2958
10.5496
10.7843
11.0609
11.4031
11.9501
11.5483
11.8854
11.8392
11.6744
10.4709
9.89506
9.78153
9.70323
0
0
9.33401
9.41397
9.52717
9.48572
8.75572
9.96811
10.3293
10.5578
10.7912
11.061
11.4027
11.8931
11.6484
11.9806
11.9452
11.7732
10.3614
9.79266
9.73481
9.7026
0
0
9.35266
9.43823
9.56935
9.58023
8.56115
10.074
10.368
10.6022
10.7978
11.0593
11.3943
11.8383
11.7338
12.0919
12.0609
11.9271
10.2094
9.66328
9.682
9.7026
0
0
9.37241
9.46427
9.61791
9.7132
8.25145
10.2293
10.4093
10.6133
10.803
11.0565
11.381
11.7915
11.8085
12.241
12.1645
12.1466
9.99743
9.50011
9.64158
9.70301
0
0
9.39295
9.49152
9.67084
9.89333
11.3847
10.4347
10.4496
10.6271
10.8072
11.0529
11.3649
11.7532
11.8737
12.305
12.3743
12.448
9.69575
9.29543
9.5821
9.70412
0
0
9.41406
9.51946
9.72456
10.044
11.2964
10.5517
10.5037
10.6432
10.8104
11.0487
11.3469
11.7225
11.9333
12.3841
12.5831
12.8578
9.24634
9.04621
9.52387
9.70627
0
0
9.4355
9.54778
9.77641
10.1558
11.191
10.6318
10.5508
10.6608
10.8125
11.0415
11.33
11.6976
11.9915
12.474
12.7781
13.4145
8.65066
8.75022
9.47157
9.70962
0
0
9.458
9.57728
9.82596
10.2422
11.1177
10.6895
10.5912
10.657
10.8129
11.0336
11.3115
11.6762
12.0473
12.5654
13.9104
14.1745
7.82016
8.40577
9.4339
9.71462
0
0
9.48071
9.60783
9.87054
10.3125
11.0732
10.7328
10.6263
10.6723
10.8124
11.0214
11.2951
11.6559
12.1014
12.9252
14.1559
15.1603
6.67213
8.01112
9.42181
9.72086
0
0
9.50294
9.63794
9.9116
10.373
11.0574
10.7669
10.6571
10.6842
10.8107
11.0081
11.277
11.634
12.1476
12.9916
14.439
16.6196
5.23423
7.56327
9.4537
9.7279
0
0
0
0
0
0
0
0
0
0
0
0
0
0
0
0
0
0
0
0
0
0
0
0
9.25898
9.32605
9.4113
9.3238
9.36966
9.81795
10.2172
10.5188
10.8032
11.0475
11.3136
11.2792
11.3821
11.6643
11.5663
10.8212
10.6092
10.1655
9.89521
9.70806
0
-9.25898
9.25898
9.32605
9.4113
9.3238
9.36966
9.81795
10.2172
10.5188
10.8032
11.0475
11.3136
11.2792
11.3821
11.6643
11.5663
10.8212
10.6092
10.1655
9.89521
9.70806
9.70806
0.00600386
9.26691
9.33463
9.42749
9.32231
9.36358
9.81953
10.2218
10.5188
10.7532
11.0484
11.3222
11.2696
11.3924
11.6741
11.587
10.758
10.6092
10.153
9.88746
9.70679
9.70679
-9.2766
9.2766
9.34461
9.43471
9.336
9.36392
9.81604
10.2317
10.5202
10.7634
11.0516
11.3392
11.3673
11.408
11.7002
11.6334
11.684
10.6213
10.1281
9.87266
9.7056
9.7056
-9.28836
9.28836
9.35768
9.45516
9.34858
9.02028
9.82321
10.2472
10.5371
10.7712
11.0557
11.3629
11.3314
11.4281
11.7438
11.6872
11.6277
10.597
10.0888
9.85054
9.70457
9.70457
-9.30182
9.30182
9.37344
9.46563
9.36968
8.97822
9.84968
10.2685
10.5423
10.7769
11.0602
11.3929
12.0647
11.4762
11.8097
11.752
11.6279
10.5481
10.0337
9.82067
9.70374
9.70374
-9.31711
9.31711
9.39232
9.49285
9.41847
8.89127
9.89621
10.2958
10.5496
10.7843
11.0609
11.4031
11.9501
11.5483
11.8854
11.8392
11.6744
10.4709
9.89506
9.78153
9.70323
9.70323
-9.33401
9.33401
9.41397
9.52717
9.48572
8.75572
9.96811
10.3293
10.5578
10.7912
11.061
11.4027
11.8931
11.6484
11.9806
11.9452
11.7732
10.3614
9.79266
9.73481
9.7026
9.7026
-9.35266
9.35266
9.43823
9.56935
9.58023
8.56115
10.074
10.368
10.6022
10.7978
11.0593
11.3943
11.8383
11.7338
12.0919
12.0609
11.9271
10.2094
9.66328
9.682
9.7026
9.7026
-9.37241
9.37241
9.46427
9.61791
9.7132
8.25145
10.2293
10.4093
10.6133
10.803
11.0565
11.381
11.7915
11.8085
12.241
12.1645
12.1466
9.99743
9.50011
9.64158
9.70301
9.70301
-9.39295
9.39295
9.49152
9.67084
9.89333
11.3847
10.4347
10.4496
10.6271
10.8072
11.0529
11.3649
11.7532
11.8737
12.305
12.3743
12.448
9.69575
9.29543
9.5821
9.70412
9.70412
-9.41406
9.41406
9.51946
9.72456
10.044
11.2964
10.5517
10.5037
10.6432
10.8104
11.0487
11.3469
11.7225
11.9333
12.3841
12.5831
12.8578
9.24634
9.04621
9.52387
9.70627
9.70627
-9.4355
9.4355
9.54778
9.77641
10.1558
11.191
10.6318
10.5508
10.6608
10.8125
11.0415
11.33
11.6976
11.9915
12.474
12.7781
13.4145
8.65066
8.75022
9.47157
9.70962
9.70962
-9.458
9.458
9.57728
9.82596
10.2422
11.1177
10.6895
10.5912
10.657
10.8129
11.0336
11.3115
11.6762
12.0473
12.5654
13.9104
14.1745
7.82016
8.40577
9.4339
9.71462
9.71462
-9.48071
9.48071
9.60783
9.87054
10.3125
11.0732
10.7328
10.6263
10.6723
10.8124
11.0214
11.2951
11.6559
12.1014
12.9252
14.1559
15.1603
6.67213
8.01112
9.42181
9.72086
9.72086
-9.50294
9.50294
9.63794
9.9116
10.373
11.0574
10.7669
10.6571
10.6842
10.8107
11.0081
11.277
11.634
12.1476
12.9916
14.439
16.6196
5.23423
7.56327
9.4537
9.7279
9.7279
0
9.50294
9.63794
9.9116
10.373
11.0574
10.7669
10.6571
10.6842
10.8107
11.0081
11.277
11.634
12.1476
12.9916
14.439
16.6196
5.23423
7.56327
9.4537
9.7279
0
0
9.27277
9.34362
9.42918
9.40197
9.45544
9.85047
10.2247
10.5259
10.7627
11.0302
11.2993
11.7016
11.4733
11.6863
11.5876
11.0404
10.6573
10.1993
9.92335
9.72931
0
-9.27277
9.27277
9.34362
9.42918
9.40197
9.45544
9.85047
10.2247
10.5259
10.7627
11.0302
11.2993
11.7016
11.4733
11.6863
11.5876
11.0404
10.6573
10.1993
9.92335
9.72931
9.72931
-9.28071
9.28071
9.35562
9.43944
9.40299
9.47689
9.85546
10.2181
10.524
10.7596
11.0313
11.3044
11.4879
11.481
11.6965
11.599
11.1093
10.6533
10.1869
9.91612
9.72813
9.72813
-9.29051
9.29051
9.36172
9.45088
9.41069
9.41796
9.86334
10.2414
10.5273
10.7633
11.0349
11.3159
11.4735
11.5079
11.7202
11.6191
11.406
10.6504
10.1622
9.90229
9.72706
9.72706
-9.30222
9.30222
9.37347
9.4673
9.42508
9.29324
9.87825
10.2608
10.5362
10.7685
11.0386
11.3327
11.5223
11.572
11.759
11.6152
11.498
10.6289
10.1226
9.88198
9.72623
9.72623
-9.31569
9.31569
9.38876
9.48571
9.45037
9.2385
9.90701
10.2827
10.5445
10.7738
11.042
11.3522
11.748
11.5732
11.8139
11.502
11.5507
10.5877
10.0627
9.85451
9.72561
9.72561
-9.33081
9.33081
9.40704
9.51189
9.49372
9.20074
9.95243
10.3091
10.5548
10.78
11.0442
11.3625
11.7796
11.6231
11.8852
11.7605
11.6199
10.5238
9.97012
9.81946
9.72517
9.72517
-9.34782
9.34782
9.42838
9.54549
9.55671
9.18787
10.0198
10.3408
10.5685
10.7861
11.0449
11.3646
11.7703
11.6891
11.9693
11.9176
11.7204
10.4357
9.87107
9.77768
9.72488
9.72488
-9.36637
9.36637
9.45194
9.58565
9.64349
9.24817
10.1141
10.377
10.5911
10.792
11.0442
11.3602
11.7489
11.7547
12.0655
12.052
11.8613
10.3209
9.75567
9.73206
9.72497
9.72497
-9.38595
9.38595
9.477
9.63115
9.75895
9.42562
10.2385
10.4163
10.6071
10.797
11.0423
11.3517
11.7254
11.816
12.1704
12.1943
12.0502
10.1882
9.61717
9.68691
9.72558
9.72558
-9.40632
9.40632
9.50284
9.68052
9.89895
10.4664
10.3854
10.4576
10.6221
10.8012
11.0394
11.3404
11.7037
11.8718
12.2585
12.3824
12.3032
10.0879
9.45718
9.63542
9.72694
9.72694
-9.42722
9.42722
9.52804
9.73147
10.022
10.792
10.4923
10.5017
10.6369
10.8045
11.0353
11.3275
11.6849
11.9209
12.3505
12.6091
12.6388
9.59011
9.2251
9.58212
9.72929
9.72929
-9.44911
9.44911
9.55017
9.78399
10.1222
10.8616
10.5716
10.5431
10.6503
10.8066
11.0293
11.3138
11.6684
11.9776
12.454
12.9084
13.0816
9.08358
8.97004
9.53257
9.73304
9.73304
-9.47148
9.47148
9.55848
9.84217
10.2039
10.8779
10.6319
10.5803
10.6584
10.8074
11.0218
11.299
11.6535
12.029
12.5801
13.4331
13.6626
8.4644
8.68392
9.49119
9.73802
9.73802
-9.4942
9.4942
9.60959
9.87385
10.2721
10.8822
10.6793
10.6134
10.6696
10.8071
11.012
11.2838
11.6381
12.077
12.7623
13.7764
14.3979
7.69614
8.37055
9.46318
9.74411
9.74411
-9.51614
9.51614
9.64639
9.90938
10.3313
10.8861
10.7183
10.6428
10.68
10.8059
11.0012
11.2676
11.621
12.1192
12.8775
14.0746
15.2968
6.7989
8.04262
9.44948
9.75076
9.75076
0
9.51614
9.64639
9.90938
10.3313
10.8861
10.7183
10.6428
10.68
10.8059
11.0012
11.2676
11.621
12.1192
12.8775
14.0746
15.2968
6.7989
8.04262
9.44948
9.75076
0
0
9.2874
9.35885
9.44969
9.47081
9.50277
9.87822
10.2422
10.5261
10.758
11.0144
11.2809
11.585
11.532
11.7058
11.6084
11.1766
10.6972
10.2357
9.95356
9.75124
0
-9.2874
9.2874
9.35885
9.44969
9.47081
9.50277
9.87822
10.2422
10.5261
10.758
11.0144
11.2809
11.585
11.532
11.7058
11.6084
11.1766
10.6972
10.2357
9.95356
9.75124
9.75124
-9.29538
9.29538
9.36765
9.4584
9.47369
9.53976
9.88948
10.2453
10.5272
10.7584
11.0162
11.285
11.5218
11.5403
11.7152
11.6165
11.2303
10.6934
10.2237
9.94673
9.7501
9.7501
-9.30515
9.30515
9.37695
9.47021
9.48051
9.51557
9.90572
10.2589
10.5312
10.7611
11.0191
11.2932
11.5125
11.5616
11.7363
11.6331
11.3521
10.6846
10.2004
9.93421
9.74916
9.74916
-9.31679
9.31679
9.38918
9.48615
9.4957
9.46701
9.92686
10.2761
10.5382
10.7651
11.0223
11.305
11.5499
11.596
11.7709
11.6496
11.4353
10.665
10.1636
9.91574
9.74847
9.74847
-9.32999
9.32999
9.40407
9.5059
9.52111
9.44263
9.9575
10.2966
10.5468
10.77
11.0257
11.3183
11.6378
11.6244
11.8197
11.6685
11.5005
10.63
10.1099
9.8913
9.74805
9.74805
-9.34519
9.34519
9.42233
9.53207
9.56197
9.44517
10.0022
10.3218
10.5577
10.7753
11.0279
11.3267
11.6716
11.6642
11.8829
11.7859
11.5738
10.578
10.0361
9.85972
9.74789
9.74789
-9.36215
9.36215
9.44313
9.5643
9.61977
9.4886
10.0637
10.3514
10.5711
10.7808
11.0293
11.3301
11.6804
11.7137
11.9563
11.9125
11.6695
10.5058
9.94949
9.82243
9.74775
9.74775
-9.38055
9.38055
9.46602
9.60202
9.69645
9.60573
10.1445
10.3847
10.5874
10.7861
11.0293
11.3287
11.677
11.7657
12.0393
12.04
11.7936
10.4113
9.84912
9.78189
9.74802
9.74802
-9.39993
9.39993
9.49026
9.64423
9.79269
9.84393
10.2438
10.421
10.6027
10.7909
11.0282
11.3238
11.6688
11.8171
12.1276
12.1829
11.9526
10.2914
9.72725
9.73928
9.74885
9.74885
-9.42011
9.42011
9.51528
9.6897
9.90174
10.285
10.3521
10.4591
10.6174
10.795
11.026
11.3165
11.6591
11.8664
12.2157
12.356
12.1607
10.1298
9.58058
9.69279
9.75046
9.75046
-9.44165
9.44165
9.54099
9.73733
10.0041
10.521
10.4449
10.4978
10.6313
10.7982
11.0225
11.3074
11.6493
11.913
12.308
12.565
12.4275
9.82925
9.3979
9.64504
9.75327
9.75327
-9.46346
9.46346
9.56536
9.78503
10.0927
10.6314
10.5195
10.5349
10.6441
10.8005
11.0176
11.2969
11.6401
11.9607
12.4103
12.8271
12.772
9.46315
9.18893
9.59797
9.75703
9.75703
-9.48567
9.48567
9.58891
9.83178
10.1682
10.6893
10.5794
10.569
10.6548
10.8016
11.0111
11.285
11.6305
12.0061
12.5255
13.1567
13.2063
9.02652
8.95892
9.55543
9.76189
9.76189
-9.50747
9.50747
9.62232
9.86975
10.2328
10.7243
10.6284
10.5999
10.6655
10.802
11.0036
11.2725
11.6203
12.049
12.654
13.453
13.7379
8.51906
8.71309
9.51882
9.76732
9.76732
-9.5291
9.5291
9.65466
9.90567
10.2902
10.7501
10.6704
10.6277
10.6751
10.801
10.9943
11.2581
11.6073
12.0868
12.7618
13.7195
14.3482
7.96654
8.46689
9.48942
9.77366
9.77366
0
9.5291
9.65466
9.90567
10.2902
10.7501
10.6704
10.6277
10.6751
10.801
10.9943
11.2581
11.6073
12.0868
12.7618
13.7195
14.3482
7.96654
8.46689
9.48942
9.77366
0
0
9.30278
9.3747
9.47224
9.53954
9.48878
9.89344
10.26
10.5279
10.7537
10.9993
11.2601
11.5263
11.5716
11.7225
11.629
11.2554
10.7367
10.2736
9.98493
9.77357
0
-9.30278
9.30278
9.3747
9.47224
9.53954
9.48878
9.89344
10.26
10.5279
10.7537
10.9993
11.2601
11.5263
11.5716
11.7225
11.629
11.2554
10.7367
10.2736
9.98493
9.77357
9.77357
-9.31069
9.31069
9.38275
9.48028
9.53909
9.64703
9.91834
10.265
10.5299
10.755
11.0013
11.2639
11.5103
11.5792
11.7309
11.6358
11.2875
10.732
10.2629
9.97881
9.77249
9.77249
-9.32042
9.32042
9.39275
9.49181
9.54398
9.61731
9.94349
10.2761
10.5341
10.7575
11.0039
11.2702
11.5114
11.596
11.7495
11.6541
11.3496
10.7215
10.2417
9.96749
9.77163
9.77163
-9.33178
9.33178
9.40495
9.50708
9.55766
9.60012
9.96939
10.2911
10.5404
10.7611
11.007
11.2791
11.5354
11.6212
11.7801
11.6821
11.4099
10.7041
10.2098
9.95159
9.77119
9.77119
-9.34498
9.34498
9.41995
9.52709
9.58277
9.59811
10.0019
10.3104
10.5489
10.7654
11.01
11.2884
11.5758
11.6499
11.8238
11.7266
11.4702
10.6744
10.1622
9.92929
9.77098
9.77098
-9.36011
9.36011
9.43793
9.55248
9.62053
9.62113
10.0444
10.3337
10.5594
10.7702
11.0124
11.2954
11.6021
11.685
11.8789
11.8076
11.5376
10.6319
10.101
9.90149
9.77106
9.77106
-9.37698
9.37698
9.45823
9.58313
9.67239
9.68001
10.0995
10.3609
10.5717
10.7752
11.0141
11.2993
11.6158
11.7256
11.9432
11.9083
11.6233
10.5724
10.0275
9.8685
9.7711
9.7711
-9.39516
9.39516
9.48044
9.61826
9.73869
9.78905
10.1677
10.3912
10.5855
10.7801
11.0147
11.2999
11.6211
11.7687
12.0149
12.0206
11.7294
10.4937
9.9418
9.83281
9.77156
9.77156
-9.41434
9.41434
9.50403
9.6572
9.81821
9.96161
10.2472
10.424
10.5995
10.7847
11.0144
11.2979
11.6218
11.8126
12.0926
12.1506
11.8602
10.3904
9.83722
9.79456
9.77264
9.77264
-9.43523
9.43523
9.52943
9.69965
9.90582
10.1923
10.3317
10.4584
10.6132
10.7887
11.0129
11.2936
11.62
11.8558
12.1735
12.3022
12.0267
10.2488
9.71346
9.75345
9.77469
9.77469
-9.45652
9.45652
9.55502
9.74319
9.99096
10.3664
10.4097
10.4929
10.6265
10.792
11.0103
11.2876
11.617
11.8982
12.2603
12.4833
12.2376
10.0423
9.56541
9.71029
9.77755
9.77755
-9.47819
9.47819
9.5806
9.78661
10.0683
10.4775
10.4769
10.5263
10.6388
10.7943
11.0064
11.2799
11.613
11.94
12.3537
12.6957
12.5004
9.78582
9.39855
9.66736
9.78135
9.78135
-9.49936
9.49936
9.60597
9.82783
10.1363
10.5496
10.5337
10.5575
10.6502
10.7962
11.0017
11.2713
11.6087
11.9809
12.4547
12.9379
12.823
9.48418
9.21555
9.62554
9.7856
9.7856
-9.52079
9.52079
9.63446
9.86572
10.1966
10.6006
10.5821
10.586
10.6604
10.7967
10.9953
11.261
11.6022
12.0187
12.5568
13.1734
13.1992
9.14773
9.02707
9.58839
9.79094
9.79094
-9.54215
9.54215
9.66316
9.9014
10.2516
10.6413
10.625
10.612
10.6695
10.7959
10.9874
11.2486
11.5926
12.0519
12.6489
13.3929
13.6127
8.79197
8.84187
9.55581
9.79723
9.79723
0
9.54215
9.66316
9.9014
10.2516
10.6413
10.625
10.612
10.6695
10.7959
10.9874
11.2486
11.5926
12.0519
12.6489
13.3929
13.6127
8.79197
8.84187
9.55581
9.79723
0
0
9.31875
9.39135
9.49561
9.61116
9.64708
9.88708
10.2766
10.5303
10.7489
10.9845
11.2384
11.4914
11.5981
11.7367
11.6464
11.3024
10.7745
10.313
10.0172
9.79615
0
-9.31875
9.31875
9.39135
9.49561
9.61116
9.64708
9.88708
10.2766
10.5303
10.7489
10.9845
11.2384
11.4914
11.5981
11.7367
11.6464
11.3024
10.7745
10.313
10.0172
9.79615
9.79615
-9.3266
9.3266
9.3992
9.50321
9.59763
9.7375
9.94408
10.282
10.5325
10.7505
10.9865
11.2419
11.4895
11.6048
11.7438
11.6532
11.3214
10.7696
10.3034
10.0116
9.79508
9.79508
-9.33608
9.33608
9.40902
9.51395
9.59847
9.73285
9.97893
10.2917
10.5365
10.753
10.9892
11.2474
11.4953
11.6185
11.7599
11.6714
11.3572
10.7593
10.2858
10.0023
9.79449
9.79449
-9.34733
9.34733
9.42128
9.52886
9.61107
9.71377
10.0082
10.3056
10.5426
10.7564
10.9921
11.2543
11.5115
11.6388
11.787
11.7038
11.4019
10.7439
10.2568
9.98769
9.79419
9.79419
-9.36044
9.36044
9.43613
9.54835
9.6348
9.71556
10.0403
10.3233
10.5506
10.7604
10.995
11.2615
11.5345
11.6641
11.826
11.7492
11.4507
10.7195
10.2165
9.96825
9.79422
9.79422
-9.37548
9.37548
9.4538
9.57272
9.66955
9.74365
10.0797
10.3446
10.5605
10.7648
10.9975
11.2676
11.5541
11.6947
11.8737
11.8154
11.51
10.6844
10.1652
9.94372
9.79443
9.79443
-9.39222
9.39222
9.47364
9.60161
9.7155
9.80041
10.1281
10.3693
10.5718
10.7695
10.9995
11.2718
11.5681
11.7292
11.9298
11.8976
11.5829
10.6361
10.1043
9.91513
9.7947
9.7947
-9.41018
9.41018
9.49521
9.63421
9.77225
9.88901
10.1854
10.3965
10.584
10.7741
11.0007
11.2739
11.5773
11.7661
11.9919
11.9939
11.6705
10.5728
10.0325
9.88435
9.79539
9.79539
-9.43007
9.43007
9.51916
9.67089
9.83896
10.0109
10.2503
10.4261
10.5968
10.7785
11.001
11.274
11.5829
11.804
12.0598
12.1062
11.7759
10.4896
9.94539
9.85082
9.79685
9.79685
-9.45061
9.45061
9.54383
9.70967
9.91052
10.154
10.3183
10.4568
10.6096
10.7824
11.0003
11.2721
11.5861
11.8422
12.1327
12.2363
11.9088
10.3791
9.84308
9.81478
9.79903
9.79903
-9.47176
9.47176
9.56917
9.74958
9.98179
10.2804
10.3838
10.4877
10.622
10.7857
10.9985
11.2685
11.5876
11.88
12.2105
12.3869
12.0724
10.233
9.72509
9.77704
9.80203
9.80203
-9.49221
9.49221
9.59372
9.78835
10.0481
10.3765
10.4427
10.5177
10.6341
10.7887
10.9963
11.264
11.5885
11.9179
12.2943
12.5591
12.2729
10.0537
9.59203
9.73809
9.80537
9.80537
-9.51323
9.51323
9.61919
9.82642
10.109
10.4485
10.4947
10.5459
10.645
10.7906
10.9925
11.2576
11.5873
11.9539
12.3798
12.7431
12.5064
9.84874
9.45206
9.70123
9.80986
9.80986
-9.53444
9.53444
9.6457
9.8628
10.1648
10.5052
10.5411
10.5722
10.6548
10.7912
10.9872
11.2493
11.5839
11.987
12.4641
12.9276
12.7713
9.62454
9.30863
9.66693
9.81527
9.81527
-9.55553
9.55553
9.67213
9.8974
10.2167
10.5533
10.5831
10.5965
10.6634
10.7906
10.9803
11.2389
11.5776
12.0161
12.5414
13.1025
13.0536
9.39134
9.16919
9.63618
9.82155
9.82155
0
9.55553
9.67213
9.8974
10.2167
10.5533
10.5831
10.5965
10.6634
10.7906
10.9803
11.2389
11.5776
12.0161
12.5414
13.1025
13.0536
9.39134
9.16919
9.63618
9.82155
0
0
9.33521
9.40859
9.51814
9.63619
9.66505
9.9663
10.2933
10.5327
10.7438
10.9699
11.2163
11.4651
11.6158
11.7479
11.6619
11.3325
10.8105
10.3524
10.0496
9.81877
0
-9.33521
9.33521
9.40859
9.51814
9.63619
9.66505
9.9663
10.2933
10.5327
10.7438
10.9699
11.2163
11.4651
11.6158
11.7479
11.6619
11.3325
10.8105
10.3524
10.0496
9.81877
9.81877
-9.34285
9.34285
9.4161
9.52542
9.63451
9.74442
9.99134
10.2978
10.5348
10.7455
10.972
11.2198
11.4677
11.6214
11.7534
11.6678
11.3434
10.8057
10.3452
10.0453
9.81794
9.81794
-9.35217
9.35217
9.42582
9.53592
9.6408
9.76772
10.0173
10.3066
10.5387
10.748
10.9746
11.2247
11.4746
11.6328
11.7678
11.6858
11.3674
10.7965
10.3287
10.0367
9.81744
9.81744
-9.36332
9.36332
9.43796
9.55051
9.65485
9.77857
10.0439
10.3192
10.5445
10.7512
10.9775
11.2305
11.4867
11.6498
11.7917
11.7168
11.3998
10.7835
10.3044
10.024
9.8173
9.8173
-9.37633
9.37633
9.45264
9.56933
9.67787
9.79435
10.0735
10.3351
10.5521
10.755
10.9804
11.2367
11.5025
11.6716
11.8261
11.7572
11.439
10.7635
10.2708
10.0071
9.8175
9.8175
-9.39126
9.39126
9.46995
9.59254
9.70978
9.82591
10.1089
10.3545
10.5612
10.7591
10.983
11.2423
11.5178
11.6983
11.8672
11.8134
11.4884
10.7355
10.2283
9.98598
9.8179
9.8179
-9.40783
9.40783
9.4893
9.61963
9.75026
9.87717
10.1509
10.3766
10.5715
10.7636
10.9854
11.2469
11.5311
11.728
11.916
11.8814
11.5486
10.6972
10.1787
9.96165
9.81842
9.81842
-9.42643
9.42643
9.5112
9.65069
9.79967
9.94853
10.1997
10.4013
10.5827
10.7681
10.9871
11.2502
11.5418
11.76
11.9698
11.963
11.6188
10.6484
10.1191
9.93511
9.81937
9.81937
-9.44601
9.44601
9.53437
9.68435
9.8557
10.0375
10.2533
10.4276
10.5944
10.7723
10.9881
11.2518
11.5501
11.7931
12.0293
12.0579
11.7031
10.5845
10.0483
9.90657
9.82102
9.82102
-9.46641
9.46641
9.55851
9.72
9.91547
10.1369
10.3094
10.455
10.6063
10.7762
10.9881
11.2518
11.5564
11.8269
12.0936
12.1661
11.807
10.5024
9.96635
9.87574
9.82338
9.82338
-9.4862
9.4862
9.58204
9.75538
9.97473
10.2298
10.3638
10.4824
10.6181
10.7801
10.9879
11.251
11.5619
11.8612
12.1625
12.2899
11.9339
10.3986
9.8729
9.84322
9.82618
9.82618
-9.5067
9.5067
9.60647
9.79129
10.0322
10.3095
10.415
10.5092
10.6293
10.783
10.9864
11.2484
11.5654
11.8947
12.234
12.4254
12.0813
10.2762
9.77171
9.81053
9.82995
9.82995
-9.52754
9.52754
9.63141
9.82676
10.0867
10.3754
10.4621
10.535
10.6397
10.7849
10.9835
11.244
11.5671
11.9264
12.3064
12.569
12.2507
10.1376
9.6645
9.77858
9.83457
9.83457
-9.54848
9.54848
9.65664
9.86119
10.1378
10.4311
10.5051
10.5592
10.6491
10.7857
10.9791
11.2377
11.5664
11.9555
12.3768
12.7132
12.4373
9.98846
9.55612
9.7488
9.84008
9.84008
-9.5693
9.5693
9.68163
9.89429
10.1859
10.4809
10.545
10.5816
10.6572
10.7853
10.9732
11.2292
11.5628
11.981
12.4416
12.8507
12.6314
9.8354
9.45203