# vtk DataFile Version 3.0
FlowField
ASCII
DATASET STRUCTURED_GRID
DIMENSIONS 22 17 12 
POINTS 4488 double
0 0 0
5 0 0
10 0 0
15 0 0
20 0 0
25 0 0
30 0 0
35 0 0
40 0 0
45 0 0
50 0 0
55 0 0
60 0 0
65 0 0
70 0 0
75 0 0
80 0 0
85 0 0
90 0 0
95 0 0
100 0 0
105 0 0
0 1 0
5 1 0
10 1 0
15 1 0
20 1 0
25 1 0
30 1 0
35 1 0
40 1 0
45 1 0
50 1 0
55 1 0
60 1 0
65 1 0
70 1 0
75 1 0
80 1 0
85 1 0
90 1 0
95 1 0
100 1 0
105 1 0
0 2 0
5 2 0
10 2 0
15 2 0
20 2 0
25 2 0
30 2 0
35 2 0
40 2 0
45 2 0
50 2 0
55 2 0
60 2 0
65 2 0
70 2 0
75 2 0
80 2 0
85 2 0
90 2 0
95 2 0
100 2 0
105 2 0
0 3 0
5 3 0
10 3 0
15 3 0
20 3 0
25 3 0
30 3 0
35 3 0
40 3 0
45 3 0
50 3 0
55 3 0
60 3 0
65 3 0
70 3 0
75 3 0
80 3 0
85 3 0
90 3 0
95 3 0
100 3 0
105 3 0
0 4 0
5 4 0
10 4 0
15 4 0
20 4 0
25 4 0
30 4 0
35 4 0
40 4 0
45 4 0
50 4 0
55 4 0
60 4 0
65 4 0
70 4 0
75 4 0
80 4 0
85 4 0
90 4 0
95 4 0
100 4 0
105 4 0
0 5 0
5 5 0
10 5 0
15 5 0
20 5 0
25 5 0
30 5 0
35 5 0
40 5 0
45 5 0
50 5 0
55 5 0
60 5 0
65 5 0
70 5 0
75 5 0
80 5 0
85 5 0
90 5 0
95 5 0
100 5 0
105 5 0
0 6 0
5 6 0
10 6 0
15 6 0
20 6 0
25 6 0
30 6 0
35 6 0
40 6 0
45 6 0
50 6 0
55 6 0
60 6 0
65 6 0
70 6 0
75 6 0
80 6 0
85 6 0
90 6 0
95 6 0
100 6 0
105 6 0
0 7 0
5 7 0
10 7 0
15 7 0
20 7 0
25 7 0
30 7 0
35 7 0
40 7 0
45 7 0
50 7 0
55 7 0
60 7 0
65 7 0
70 7 0
75 7 0
80 7 0
85 7 0
90 7 0
95 7 0
100 7 0
105 7 0
0 8 0
5 8 0
10 8 0
15 8 0
20 8 0
25 8 0
30 8 0
35 8 0
40 8 0
45 8 0
50 8 0
55 8 0
60 8 0
65 8 0
70 8 0
75 8 0
80 8 0
85 8 0
90 8 0
95 8 0
100 8 0
105 8 0
0 9 0
5 9 0
10 9 0
15 9 0
20 9 0
25 9 0
30 9 0
35 9 0
40 9 0
45 9 0
50 9 0
55 9 0
60 9 0
65 9 0
70 9 0
75 9 0
80 9 0
85 9 0
90 9 0
95 9 0
100 9 0
105 9 0
0 10 0
5 10 0
10 10 0
15 10 0
20 10 0
25 10 0
30 10 0
35 10 0
40 10 0
45 10 0
50 10 0
55 10 0
60 10 0
65 10 0
70 10 0
75 10 0
80 10 0
85 10 0
90 10 0
95 10 0
100 10 0
105 10 0
0 11 0
5 11 0
10 11 0
15 11 0
20 11 0
25 11 0
30 11 0
35 11 0
40 11 0
45 11 0
50 11 0
55 11 0
60 11 0
65 11 0
70 11 0
75 11 0
80 11 0
85 11 0
90 11 0
95 11 0
100 11 0
105 11 0
0 12 0
5 12 0
10 12 0
15 12 0
20 12 0
25 12 0
30 12 0
35 12 0
40 12 0
45 12 0
50 12 0
55 12 0
60 12 0
65 12 0
70 12 0
75 12 0
80 12 0
85 12 0
90 12 0
95 12 0
100 12 0
105 12 0
0 13 0
5 13 0
10 13 0
15 13 0
20 13 0
25 13 0
30 13 0
35 13 0
40 13 0
45 13 0
50 13 0
55 13 0
60 13 0
65 13 0
70 13 0
75 13 0
80 13 0
85 13 0
90 13 0
95 13 0
100 13 0
105 13 0
0 14 0
5 14 0
10 14 0
15 14 0
20 14 0
25 14 0
30 14 0
35 14 0
40 14 0
45 14 0
50 14 0
55 14 0
60 14 0
65 14 0
70 14 0
75 14 0
80 14 0
85 14 0
90 14 0
95 14 0
100 14 0
105 14 0
0 15 0
5 15 0
10 15 0
15 15 0
20 15 0
25 15 0
30 15 0
35 15 0
40 15 0
45 15 0
50 15 0
55 15 0
60 15 0
65 15 0
70 15 0
75 15 0
80 15 0
85 15 0
90 15 0
95 15 0
100 15 0
105 15 0
0 16 0
5 16 0
10 16 0
15 16 0
20 16 0
25 16 0
30 16 0
35 16 0
40 16 0
45 16 0
50 16 0
55 16 0
60 16 0
65 16 0
70 16 0
75 16 0
80 16 0
85 16 0
90 16 0
95 16 0
100 16 0
105 16 0
0 0 1
5 0 1
10 0 1
15 0 1
20 0 1
25 0 1
30 0 1
35 0 1
40 0 1
45 0 1
50 0 1
55 0 1
60 0 1
65 0 1
70 0 1
75 0 1
80 0 1
85 0 1
90 0 1
95 0 1
100 0 1
105 0 1
0 1 1
5 1 1
10 1 1
15 1 1
20 1 1
25 1 1
30 1 1
35 1 1
40 1 1
45 1 1
50 1 1
55 1 1
60 1 1
65 1 1
70 1 1
75 1 1
80 1 1
85 1 1
90 1 1
95 1 1
100 1 1
105 1 1
0 2 1
5 2 1
10 2 1
15 2 1
20 2 1
25 2 1
30 2 1
35 2 1
40 2 1
45 2 1
50 2 1
55 2 1
60 2 1
65 2 1
70 2 1
75 2 1
80 2 1
85 2 1
90 2 1
95 2 1
100 2 1
105 2 1
0 3 1
5 3 1
10 3 1
15 3 1
20 3 1
25 3 1
30 3 1
35 3 1
40 3 1
45 3 1
50 3 1
55 3 1
60 3 1
65 3 1
70 3 1
75 3 1
80 3 1
85 3 1
90 3 1
95 3 1
100 3 1
105 3 1
0 4 1
5 4 1
10 4 1
15 4 1
20 4 1
25 4 1
30 4 1
35 4 1
40 4 1
45 4 1
50 4 1
55 4 1
60 4 1
65 4 1
70 4 1
75 4 1
80 4 1
85 4 1
90 4 1
95 4 1
100 4 1
105 4 1
0 5 1
5 5 1
10 5 1
15 5 1
20 5 1
25 5 1
30 5 1
35 5 1
40 5 1
45 5 1
50 5 1
55 5 1
60 5 1
65 5 1
70 5 1
75 5 1
80 5 1
85 5 1
90 5 1
95 5 1
100 5 1
105 5 1
0 6 1
5 6 1
10 6 1
15 6 1
20 6 1
25 6 1
30 6 1
35 6 1
40 6 1
45 6 1
50 6 1
55 6 1
60 6 1
65 6 1
70 6 1
75 6 1
80 6 1
85 6 1
90 6 1
95 6 1
100 6 1
105 6 1
0 7 1
5 7 1
10 7 1
15 7 1
20 7 1
25 7 1
30 7 1
35 7 1
40 7 1
45 7 1
50 7 1
55 7 1
60 7 1
65 7 1
70 7 1
75 7 1
80 7 1
85 7 1
90 7 1
95 7 1
100 7 1
105 7 1
0 8 1
5 8 1
10 8 1
15 8 1
20 8 1
25 8 1
30 8 1
35 8 1
40 8 1
45 8 1
50 8 1
55 8 1
60 8 1
65 8 1
70 8 1
75 8 1
80 8 1
85 8 1
90 8 1
95 8 1
100 8 1
105 8 1
0 9 1
5 9 1
10 9 1
15 9 1
20 9 1
25 9 1
30 9 1
35 9 1
40 9 1
45 9 1
50 9 1
55 9 1
60 9 1
65 9 1
70 9 1
75 9 1
80 9 1
85 9 1
90 9 1
95 9 1
100 9 1
105 9 1
0 10 1
5 10 1
10 10 1
15 10 1
20 10 1
25 10 1
30 10 1
35 10 1
40 10 1
45 10 1
50 10 1
55 10 1
60 10 1
65 10 1
70 10 1
75 10 1
80 10 1
85 10 1
90 10 1
95 10 1
100 10 1
105 10 1
0 11 1
5 11 1
10 11 1
15 11 1
20 11 1
25 11 1
30 11 1
35 11 1
40 11 1
45 11 1
50 11 1
55 11 1
60 11 1
65 11 1
70 11 1
75 11 1
80 11 1
85 11 1
90 11 1
95 11 1
100 11 1
105 11 1
0 12 1
5 12 1
10 12 1
15 12 1
20 12 1
25 12 1
30 12 1
35 12 1
40 12 1
45 12 1
50 12 1
55 12 1
60 12 1
65 12 1
70 12 1
75 12 1
80 12 1
85 12 1
90 12 1
95 12 1
100 12 1
105 12 1
0 13 1
5 13 1
10 13 1
15 13 1
20 13 1
25 13 1
30 13 1
35 13 1
40 13 1
45 13 1
50 13 1
55 13 1
60 13 1
65 13 1
70 13 1
75 13 1
80 13 1
85 13 1
90 13 1
95 13 1
100 13 1
105 13 1
0 14 1
5 14 1
10 14 1
15 14 1
20 14 1
25 14 1
30 14 1
35 14 1
40 14 1
45 14 1
50 14 1
55 14 1
60 14 1
65 14 1
70 14 1
75 14 1
80 14 1
85 14 1
90 14 1
95 14 1
100 14 1
105 14 1
0 15 1
5 15 1
10 15 1
15 15 1
20 15 1
25 15 1
30 15 1
35 15 1
40 15 1
45 15 1
50 15 1
55 15 1
60 15 1
65 15 1
70 15 1
75 15 1
80 15 1
85 15 1
90 15 1
95 15 1
100 15 1
105 15 1
0 16 1
5 16 1
10 16 1
15 16 1
20 16 1
25 16 1
30 16 1
35 16 1
40 16 1
45 16 1
50 16 1
55 16 1
60 16 1
65 16 1
70 16 1
75 16 1
80 16 1
85 16 1
90 16 1
95 16 1
100 16 1
105 16 1
0 0 2
5 0 2
10 0 2
15 0 2
20 0 2
25 0 2
30 0 2
35 0 2
40 0 2
45 0 2
50 0 2
55 0 2
60 0 2
65 0 2
70 0 2
75 0 2
80 0 2
85 0 2
90 0 2
95 0 2
100 0 2
105 0 2
0 1 2
5 1 2
10 1 2
15 1 2
20 1 2
25 1 2
30 1 2
35 1 2
40 1 2
45 1 2
50 1 2
55 1 2
60 1 2
65 1 2
70 1 2
75 1 2
80 1 2
85 1 2
90 1 2
95 1 2
100 1 2
105 1 2
0 2 2
5 2 2
10 2 2
15 2 2
20 2 2
25 2 2
30 2 2
35 2 2
40 2 2
45 2 2
50 2 2
55 2 2
60 2 2
65 2 2
70 2 2
75 2 2
80 2 2
85 2 2
90 2 2
95 2 2
100 2 2
105 2 2
0 3 2
5 3 2
10 3 2
15 3 2
20 3 2
25 3 2
30 3 2
35 3 2
40 3 2
45 3 2
50 3 2
55 3 2
60 3 2
65 3 2
70 3 2
75 3 2
80 3 2
85 3 2
90 3 2
95 3 2
100 3 2
105 3 2
0 4 2
5 4 2
10 4 2
15 4 2
20 4 2
25 4 2
30 4 2
35 4 2
40 4 2
45 4 2
50 4 2
55 4 2
60 4 2
65 4 2
70 4 2
75 4 2
80 4 2
85 4 2
90 4 2
95 4 2
100 4 2
105 4 2
0 5 2
5 5 2
10 5 2
15 5 2
20 5 2
25 5 2
30 5 2
35 5 2
40 5 2
45 5 2
50 5 2
55 5 2
60 5 2
65 5 2
70 5 2
75 5 2
80 5 2
85 5 2
90 5 2
95 5 2
100 5 2
105 5 2
0 6 2
5 6 2
10 6 2
15 6 2
20 6 2
25 6 2
30 6 2
35 6 2
40 6 2
45 6 2
50 6 2
55 6 2
60 6 2
65 6 2
70 6 2
75 6 2
80 6 2
85 6 2
90 6 2
95 6 2
100 6 2
105 6 2
0 7 2
5 7 2
10 7 2
15 7 2
20 7 2
25 7 2
30 7 2
35 7 2
40 7 2
45 7 2
50 7 2
55 7 2
60 7 2
65 7 2
70 7 2
75 7 2
80 7 2
85 7 2
90 7 2
95 7 2
100 7 2
105 7 2
0 8 2
5 8 2
10 8 2
15 8 2
20 8 2
25 8 2
30 8 2
35 8 2
40 8 2
45 8 2
50 8 2
55 8 2
60 8 2
65 8 2
70 8 2
75 8 2
80 8 2
85 8 2
90 8 2
95 8 2
100 8 2
105 8 2
0 9 2
5 9 2
10 9 2
15 9 2
20 9 2
25 9 2
30 9 2
35 9 2
40 9 2
45 9 2
50 9 2
55 9 2
60 9 2
65 9 2
70 9 2
75 9 2
80 9 2
85 9 2
90 9 2
95 9 2
100 9 2
105 9 2
0 10 2
5 10 2
10 10 2
15 10 2
20 10 2
25 10 2
30 10 2
35 10 2
40 10 2
45 10 2
50 10 2
55 10 2
60 10 2
65 10 2
70 10 2
75 10 2
80 10 2
85 10 2
90 10 2
95 10 2
100 10 2
105 10 2
0 11 2
5 11 2
10 11 2
15 11 2
20 11 2
25 11 2
30 11 2
35 11 2
40 11 2
45 11 2
50 11 2
55 11 2
60 11 2
65 11 2
70 11 2
75 11 2
80 11 2
85 11 2
90 11 2
95 11 2
100 11 2
105 11 2
0 12 2
5 12 2
10 12 2
15 12 2
20 12 2
25 12 2
30 12 2
35 12 2
40 12 2
45 12 2
50 12 2
55 12 2
60 12 2
65 12 2
70 12 2
75 12 2
80 12 2
85 12 2
90 12 2
95 12 2
100 12 2
105 12 2
0 13 2
5 13 2
10 13 2
15 13 2
20 13 2
25 13 2
30 13 2
35 13 2
40 13 2
45 13 2
50 13 2
55 13 2
60 13 2
65 13 2
70 13 2
75 13 2
80 13 2
85 13 2
90 13 2
95 13 2
100 13 2
105 13 2
0 14 2
5 14 2
10 14 2
15 14 2
20 14 2
25 14 2
30 14 2
35 14 2
40 14 2
45 14 2
50 14 2
55 14 2
60 14 2
65 14 2
70 14 2
75 14 2
80 14 2
85 14 2
90 14 2
95 14 2
100 14 2
105 14 2
0 15 2
5 15 2
10 15 2
15 15 2
20 15 2
25 15 2
30 15 2
35 15 2
40 15 2
45 15 2
50 15 2
55 15 2
60 15 2
65 15 2
70 15 2
75 15 2
80 15 2
85 15 2
90 15 2
95 15 2
100 15 2
105 15 2
0 16 2
5 16 2
10 16 2
15 16 2
20 16 2
25 16 2
30 16 2
35 16 2
40 16 2
45 16 2
50 16 2
55 16 2
60 16 2
65 16 2
70 16 2
75 16 2
80 16 2
85 16 2
90 16 2
95 16 2
100 16 2
105 16 2
0 0 3
5 0 3
10 0 3
15 0 3
20 0 3
25 0 3
30 0 3
35 0 3
40 0 3
45 0 3
50 0 3
55 0 3
60 0 3
65 0 3
70 0 3
75 0 3
80 0 3
85 0 3
90 0 3
95 0 3
100 0 3
105 0 3
0 1 3
5 1 3
10 1 3
15 1 3
20 1 3
25 1 3
30 1 3
35 1 3
40 1 3
45 1 3
50 1 3
55 1 3
60 1 3
65 1 3
70 1 3
75 1 3
80 1 3
85 1 3
90 1 3
95 1 3
100 1 3
105 1 3
0 2 3
5 2 3
10 2 3
15 2 3
20 2 3
25 2 3
30 2 3
35 2 3
40 2 3
45 2 3
50 2 3
55 2 3
60 2 3
65 2 3
70 2 3
75 2 3
80 2 3
85 2 3
90 2 3
95 2 3
100 2 3
105 2 3
0 3 3
5 3 3
10 3 3
15 3 3
20 3 3
25 3 3
30 3 3
35 3 3
40 3 3
45 3 3
50 3 3
55 3 3
60 3 3
65 3 3
70 3 3
75 3 3
80 3 3
85 3 3
90 3 3
95 3 3
100 3 3
105 3 3
0 4 3
5 4 3
10 4 3
15 4 3
20 4 3
25 4 3
30 4 3
35 4 3
40 4 3
45 4 3
50 4 3
55 4 3
60 4 3
65 4 3
70 4 3
75 4 3
80 4 3
85 4 3
90 4 3
95 4 3
100 4 3
105 4 3
0 5 3
5 5 3
10 5 3
15 5 3
20 5 3
25 5 3
30 5 3
35 5 3
40 5 3
45 5 3
50 5 3
55 5 3
60 5 3
65 5 3
70 5 3
75 5 3
80 5 3
85 5 3
90 5 3
95 5 3
100 5 3
105 5 3
0 6 3
5 6 3
10 6 3
15 6 3
20 6 3
25 6 3
30 6 3
35 6 3
40 6 3
45 6 3
50 6 3
55 6 3
60 6 3
65 6 3
70 6 3
75 6 3
80 6 3
85 6 3
90 6 3
95 6 3
100 6 3
105 6 3
0 7 3
5 7 3
10 7 3
15 7 3
20 7 3
25 7 3
30 7 3
35 7 3
40 7 3
45 7 3
50 7 3
55 7 3
60 7 3
65 7 3
70 7 3
75 7 3
80 7 3
85 7 3
90 7 3
95 7 3
100 7 3
105 7 3
0 8 3
5 8 3
10 8 3
15 8 3
20 8 3
25 8 3
30 8 3
35 8 3
40 8 3
45 8 3
50 8 3
55 8 3
60 8 3
65 8 3
70 8 3
75 8 3
80 8 3
85 8 3
90 8 3
95 8 3
100 8 3
105 8 3
0 9 3
5 9 3
10 9 3
15 9 3
20 9 3
25 9 3
30 9 3
35 9 3
40 9 3
45 9 3
50 9 3
55 9 3
60 9 3
65 9 3
70 9 3
75 9 3
80 9 3
85 9 3
90 9 3
95 9 3
100 9 3
105 9 3
0 10 3
5 10 3
10 10 3
15 10 3
[...]
POINT_DATA 4488

SCALARS pressure double
LOOKUP_TABLE pressure
0
0
0
0
0
0
0
0
0
0
0
0
0
0
0
0
0
0
0
0
0
0
0
6.61008e+190
6.61046e+190
6.61163e+190
6.61497e+190
6.62443e+190
6.65122e+190
6.72547e+190
6.91164e+190
7.20584e+190
6.31123e+190
-4.89126e+190
-4.43482e+191
3.31101e+190
-4.58394e+191
-5.40643e+190
6.31719e+190
7.25786e+190
6.94644e+190
6.75278e+190
6.68427e+190
0
0
6.61007e+190
6.61043e+190
6.61155e+190
6.61477e+190
6.62392e+190
6.65009e+190
6.72402e+190
6.9181e+190
7.282e+190
6.73216e+190
-4.06802e+190
-4.7836e+191
6.78179e+190
-4.93944e+191
-4.578e+190
6.76302e+190
7.33888e+190
6.95333e+190
6.75106e+190
6.68254e+190
0
0
6.61004e+190
6.61037e+190
6.61141e+190
6.61438e+190
6.62292e+190
6.6478e+190
6.72078e+190
6.92855e+190
7.42144e+190
7.54355e+190
-2.40214e+190
-5.47795e+191
1.48427e+191
-5.655e+191
-2.90837e+190
7.61853e+190
7.4873e+190
6.96448e+190
6.74729e+190
6.67908e+190
0
0
6.61e+190
6.61029e+190
6.61119e+190
6.6138e+190
6.62144e+190
6.64435e+190
6.71521e+190
6.93831e+190
7.59775e+190
8.65956e+190
-6.59243e+188
-6.55003e+191
2.94707e+191
-6.75001e+191
-5.33892e+189
8.79733e+190
7.67523e+190
6.97491e+190
6.74088e+190
6.67392e+190
0
0
6.60995e+190
6.61018e+190
6.61091e+190
6.61307e+190
6.61954e+190
6.63975e+190
6.7066e+190
6.94107e+190
7.77103e+190
9.91155e+190
2.59895e+190
-8.05265e+191
4.08218e+191
-8.32345e+191
2.20973e+190
1.01262e+191
7.85993e+190
6.97792e+190
6.73111e+190
6.66709e+190
0
0
6.60989e+190
6.61006e+190
6.61059e+190
6.61221e+190
6.61727e+190
6.63405e+190
6.69435e+190
6.92998e+190
7.88889e+190
1.10113e+191
4.67698e+190
-9.6637e+191
7.8178e+191
-9.92084e+191
4.31307e+190
1.1295e+191
7.98593e+190
6.96619e+190
6.71736e+190
6.65871e+190
0
0
6.60983e+190
6.60992e+190
6.61024e+190
6.61125e+190
6.61471e+190
6.62737e+190
6.67812e+190
6.89917e+190
7.89624e+190
1.15469e+191
5.12104e+190
-1.00815e+192
9.70416e+191
-1.03372e+192
4.79666e+190
1.18605e+191
7.994e+190
6.93347e+190
6.69929e+190
6.649e+190
0
0
6.60976e+190
6.60978e+190
6.60986e+190
6.61024e+190
6.61196e+190
6.61992e+190
6.65806e+190
6.84582e+190
7.75434e+190
1.11151e+191
2.64118e+190
-8.89445e+191
1.16202e+192
-9.1313e+191
2.37775e+190
1.13861e+191
7.84244e+190
6.87675e+190
6.67711e+190
6.63827e+190
0
0
6.60969e+190
6.60963e+190
6.60949e+190
6.60922e+190
6.60914e+190
6.612e+190
6.63494e+190
6.77183e+190
7.4687e+190
9.76064e+190
-4.26017e+189
-7.22344e+191
1.024e+192
-7.42708e+191
-8.35356e+189
9.94284e+190
7.53804e+190
6.79811e+190
6.65167e+190
6.62697e+190
0
0
6.60963e+190
6.6095e+190
6.60913e+190
6.60823e+190
6.60637e+190
6.604e+190
6.61011e+190
6.68387e+190
7.09296e+190
8.01306e+190
-3.51023e+190
-5.95577e+191
4.43012e+191
-6.14334e+191
-4.03032e+190
8.08766e+190
7.1383e+190
6.70472e+190
6.62446e+190
6.61564e+190
0
0
6.60957e+190
6.60937e+190
6.6088e+190
6.60732e+190
6.6038e+190
6.59636e+190
6.58533e+190
6.59123e+190
6.69243e+190
6.30134e+190
-5.79591e+190
-4.81779e+191
1.63942e+191
-4.98218e+191
-6.35329e+190
6.2859e+190
6.71226e+190
6.60648e+190
6.59739e+190
6.60489e+190
0
0
6.60952e+190
6.60927e+190
6.60852e+190
6.60654e+190
6.60155e+190
6.58955e+190
6.56254e+190
6.50359e+190
6.3143e+190
4.83348e+190
-7.18749e+190
-3.93873e+191
2.35832e+190
-4.0781e+191
-7.80019e+190
4.77711e+190
6.31663e+190
6.51374e+190
6.57253e+190
6.59535e+190
0
0
6.60947e+190
6.60918e+190
6.60829e+190
6.60591e+190
6.59974e+190
6.58399e+190
6.54358e+190
6.42976e+190
6.00477e+190
3.7551e+190
-8.0427e+190
-3.32849e+191
-4.9512e+190
-3.43767e+191
-8.65245e+190
3.64583e+190
5.99215e+190
6.4357e+190
6.55189e+190
6.5876e+190
0
0
6.60945e+190
6.60912e+190
6.60813e+190
6.60548e+190
6.59848e+190
6.58007e+190
6.52999e+190
6.37663e+190
5.7874e+190
3.04482e+190
-8.52061e+190
-2.95425e+191
-8.9048e+190
-3.05488e+191
-9.15189e+190
2.90001e+190
5.76401e+190
6.37958e+190
6.53711e+190
6.58213e+190
0
0
6.60943e+190
6.60909e+190
6.60805e+190
6.60525e+190
6.59782e+190
6.57803e+190
6.52291e+190
6.3489e+190
5.67566e+190
2.69297e+190
-8.73594e+190
-2.78053e+191
-1.06688e+191
-2.87855e+191
-9.36312e+190
2.53201e+190
5.64671e+190
6.35029e+190
6.52941e+190
6.57931e+190
0
0
0
0
0
0
0
0
0
0
0
0
0
0
0
0
0
0
0
0
0
0
0
0
6.61008e+190
6.61046e+190
6.61163e+190
6.61497e+190
6.62443e+190
6.65122e+190
6.72547e+190
6.91164e+190
7.20584e+190
6.31123e+190
-4.89126e+190
-4.43482e+191
3.31101e+190
-4.58394e+191
-5.40643e+190
6.31719e+190
7.25786e+190
6.94644e+190
6.75278e+190
6.68427e+190
0
-6.61008e+190
6.61008e+190
6.61046e+190
6.61163e+190
6.61497e+190
6.62443e+190
6.65122e+190
6.72547e+190
6.91164e+190
7.20584e+190
6.31123e+190
-4.89126e+190
-4.43482e+191
3.31101e+190
-4.58394e+191
-5.40643e+190
6.31719e+190
7.25786e+190
6.94644e+190
6.75278e+190
6.68427e+190
6.68427e+190
-4.57527e+90
6.61007e+190
6.61043e+190
6.61155e+190
6.61477e+190
6.62392e+190
6.65009e+190
6.72402e+190
6.9181e+190
7.282e+190
6.73216e+190
-4.06802e+190
-4.7836e+191
6.78179e+190
-4.93944e+191
-4.578e+190
6.76302e+190
7.33888e+190
6.95333e+190
6.75106e+190
6.68254e+190
6.68254e+190
-6.61004e+190
6.61004e+190
6.61037e+190
6.61141e+190
6.61438e+190
6.62292e+190
6.6478e+190
6.72078e+190
6.92855e+190
7.42144e+190
7.54355e+190
-2.40214e+190
-5.47795e+191
1.48427e+191
-5.655e+191
-2.90837e+190
7.61853e+190
7.4873e+190
6.96448e+190
6.74729e+190
6.67908e+190
6.67908e+190
-6.61e+190
6.61e+190
6.61029e+190
6.61119e+190
6.6138e+190
6.62144e+190
6.64435e+190
6.71521e+190
6.93831e+190
7.59775e+190
8.65956e+190
-6.59243e+188
-6.55003e+191
2.94707e+191
-6.75001e+191
-5.33892e+189
8.79733e+190
7.67523e+190
6.97491e+190
6.74088e+190
6.67392e+190
6.67392e+190
-6.60995e+190
6.60995e+190
6.61018e+190
6.61091e+190
6.61307e+190
6.61954e+190
6.63975e+190
6.7066e+190
6.94107e+190
7.77103e+190
9.91155e+190
2.59895e+190
-8.05265e+191
4.08218e+191
-8.32345e+191
2.20973e+190
1.01262e+191
7.85993e+190
6.97792e+190
6.73111e+190
6.66709e+190
6.66709e+190
-6.60989e+190
6.60989e+190
6.61006e+190
6.61059e+190
6.61221e+190
6.61727e+190
6.63405e+190
6.69435e+190
6.92998e+190
7.88889e+190
1.10113e+191
4.67698e+190
-9.6637e+191
7.8178e+191
-9.92084e+191
4.31307e+190
1.1295e+191
7.98593e+190
6.96619e+190
6.71736e+190
6.65871e+190
6.65871e+190
-6.60983e+190
6.60983e+190
6.60992e+190
6.61024e+190
6.61125e+190
6.61471e+190
6.62737e+190
6.67812e+190
6.89917e+190
7.89624e+190
1.15469e+191
5.12104e+190
-1.00815e+192
9.70416e+191
-1.03372e+192
4.79666e+190
1.18605e+191
7.994e+190
6.93347e+190
6.69929e+190
6.649e+190
6.649e+190
-6.60976e+190
6.60976e+190
6.60978e+190
6.60986e+190
6.61024e+190
6.61196e+190
6.61992e+190
6.65806e+190
6.84582e+190
7.75434e+190
1.11151e+191
2.64118e+190
-8.89445e+191
1.16202e+192
-9.1313e+191
2.37775e+190
1.13861e+191
7.84244e+190
6.87675e+190
6.67711e+190
6.63827e+190
6.63827e+190
-6.60969e+190
6.60969e+190
6.60963e+190
6.60949e+190
6.60922e+190
6.60914e+190
6.612e+190
6.63494e+190
6.77183e+190
7.4687e+190
9.76064e+190
-4.26017e+189
-7.22344e+191
1.024e+192
-7.42708e+191
-8.35356e+189
9.94284e+190
7.53804e+190
6.79811e+190
6.65167e+190
6.62697e+190
6.62697e+190
-6.60963e+190
6.60963e+190
6.6095e+190
6.60913e+190
6.60823e+190
6.60637e+190
6.604e+190
6.61011e+190
6.68387e+190
7.09296e+190
8.01306e+190
-3.51023e+190
-5.95577e+191
4.43012e+191
-6.14334e+191
-4.03032e+190
8.08766e+190
7.1383e+190
6.70472e+190
6.62446e+190
6.61564e+190
6.61564e+190
-6.60957e+190
6.60957e+190
6.60937e+190
6.6088e+190
6.60732e+190
6.6038e+190
6.59636e+190
6.58533e+190
6.59123e+190
6.69243e+190
6.30134e+190
-5.79591e+190
-4.81779e+191
1.63942e+191
-4.98218e+191
-6.35329e+190
6.2859e+190
6.71226e+190
6.60648e+190
6.59739e+190
6.60489e+190
6.60489e+190
-6.60952e+190
6.60952e+190
6.60927e+190
6.60852e+190
6.60654e+190
6.60155e+190
6.58955e+190
6.56254e+190
6.50359e+190
6.3143e+190
4.83348e+190
-7.18749e+190
-3.93873e+191
2.35832e+190
-4.0781e+191
-7.80019e+190
4.77711e+190
6.31663e+190
6.51374e+190
6.57253e+190
6.59535e+190
6.59535e+190
-6.60947e+190
6.60947e+190
6.60918e+190
6.60829e+190
6.60591e+190
6.59974e+190
6.58399e+190
6.54358e+190
6.42976e+190
6.00477e+190
3.7551e+190
-8.0427e+190
-3.32849e+191
-4.9512e+190
-3.43767e+191
-8.65245e+190
3.64583e+190
5.99215e+190
6.4357e+190
6.55189e+190
6.5876e+190
6.5876e+190
-6.60945e+190
6.60945e+190
6.60912e+190
6.60813e+190
6.60548e+190
6.59848e+190
6.58007e+190
6.52999e+190
6.37663e+190
5.7874e+190
3.04482e+190
-8.52061e+190
-2.95425e+191
-8.9048e+190
-3.05488e+191
-9.15189e+190
2.90001e+190
5.76401e+190
6.37958e+190
6.53711e+190
6.58213e+190
6.58213e+190
-6.60943e+190
6.60943e+190
6.60909e+190
6.60805e+190
6.60525e+190
6.59782e+190
6.57803e+190
6.52291e+190
6.3489e+190
5.67566e+190
2.69297e+190
-8.73594e+190
-2.78053e+191
-1.06688e+191
-2.87855e+191
-9.36312e+190
2.53201e+190
5.64671e+190
6.35029e+190
6.52941e+190
6.57931e+190
6.57931e+190
0
6.60943e+190
6.60909e+190
6.60805e+190
6.60525e+190
6.59782e+190
6.57803e+190
6.52291e+190
6.3489e+190
5.67566e+190
2.69297e+190
-8.73594e+190
-2.78053e+191
-1.06688e+191
-2.87855e+191
-9.36312e+190
2.53201e+190
5.64671e+190
6.35029e+190
6.52941e+190
6.57931e+190
0
0
6.61008e+190
6.61046e+190
6.61162e+190
6.61493e+190
6.62425e+190
6.65046e+190
6.72245e+190
6.90085e+190
7.17714e+190
6.29945e+190
-4.60936e+190
-4.4475e+191
3.68738e+190
-4.59898e+191
-5.13622e+190
6.30198e+190
7.22682e+190
6.93484e+190
6.7495e+190
6.68325e+190
0
-6.61008e+190
6.61008e+190
6.61046e+190
6.61162e+190
6.61493e+190
6.62425e+190
6.65046e+190
6.72245e+190
6.90085e+190
7.17714e+190
6.29945e+190
-4.60936e+190
-4.4475e+191
3.68738e+190
-4.59898e+191
-5.13622e+190
6.30198e+190
7.22682e+190
6.93484e+190
6.7495e+190
6.68325e+190
6.68325e+190
-6.61007e+190
6.61007e+190
6.61043e+190
6.61154e+190
6.61473e+190
6.62374e+190
6.64932e+190
6.72098e+190
6.90732e+190
7.25515e+190
6.75183e+190
-3.58819e+190
-4.83556e+191
6.49413e+190
-4.99854e+191
-4.10656e+190
6.77894e+190
7.30981e+190
6.94173e+190
6.74777e+190
6.68153e+190
6.68153e+190
-6.61004e+190
6.61004e+190
6.61037e+190
6.6114e+190
6.61433e+190
6.62273e+190
6.64704e+190
6.71773e+190
6.91784e+190
7.39927e+190
7.63874e+190
-1.44342e+190
-5.6157e+191
1.29754e+191
-5.80077e+191
-1.93355e+190
7.71604e+190
7.46329e+190
6.95297e+190
6.74398e+190
6.67807e+190
6.67807e+190
-6.61e+190
6.61e+190
6.61028e+190
6.61118e+190
6.61376e+190
6.62126e+190
6.64359e+190
6.71215e+190
6.92784e+190
7.58493e+190
8.90887e+190
1.88338e+190
-6.7706e+191
3.6342e+191
-6.98976e+191
1.45515e+190
9.0619e+190
7.66135e+190
6.96367e+190
6.73755e+190
6.6729e+190
6.6729e+190
-6.60995e+190
6.60995e+190
6.61018e+190
6.6109e+190
6.61303e+190
6.61936e+190
6.63899e+190
6.70354e+190
6.93111e+190
7.77362e+190
1.04338e+191
5.99705e+190
-8.91549e+191
2.03028e+190
-9.1892e+191
5.61118e+190
1.06848e+191
7.86308e+190
6.96725e+190
6.72779e+190
6.66607e+190
6.66607e+190
-6.60989e+190
6.60989e+190
6.61005e+190
6.61058e+190
6.61217e+190
6.61709e+190
6.63329e+190
6.69132e+190
6.92075e+190
7.91258e+190
1.19394e+191
9.85422e+190
-1.21263e+192
9.34576e+191
-1.24554e+192
9.51426e+190
1.22938e+191
8.01223e+190
6.95633e+190
6.71407e+190
6.6577e+190
6.6577e+190
-6.60983e+190
6.60983e+190
6.60992e+190
6.61023e+190
6.61121e+190
6.61453e+190
6.62662e+190
6.67513e+190
6.89066e+190
7.9394e+190
1.28958e+191
1.17239e+191
-1.3144e+192
1.11382e+192
-1.34564e+192
1.14423e+191
1.33131e+191
8.04146e+190
6.9244e+190
6.69605e+190
6.648e+190
6.648e+190
-6.60976e+190
6.60976e+190
6.60978e+190
6.60985e+190
6.6102e+190
6.61178e+190
6.61918e+190
6.65513e+190
6.83761e+190
7.8e+190
1.24865e+191
6.04311e+190
-1.11786e+192
7.4966e+191
-1.14683e+192
5.73539e+190
1.28436e+191
7.89216e+190
6.868e+190
6.67394e+190
6.63729e+190
6.63729e+190
-6.60969e+190
6.60969e+190
6.60963e+190
6.60948e+190
6.60918e+190
6.60897e+190
6.61128e+190
6.63208e+190
6.7634e+190
7.49483e+190
1.0636e+191
1.67874e+190
-8.12634e+191
1.36665e+192
-8.33734e+191
1.24182e+190
1.08738e+191
7.56673e+190
6.78912e+190
6.64858e+190
6.62601e+190
6.62601e+190
-6.60962e+190
6.60962e+190
6.6095e+190
6.60912e+190
6.60819e+190
6.6062e+190
6.6033e+190
6.60734e+190
6.67513e+190
7.09707e+190
8.43917e+190
-2.63903e+190
-6.49204e+191
2.46048e+191
-6.70224e+191
-3.19814e+190
8.54753e+190
7.144e+190
6.6954e+190
6.62146e+190
6.61471e+190
6.61471e+190
-6.60957e+190
6.60957e+190
6.60937e+190
6.60879e+190
6.60728e+190
6.60363e+190
6.59568e+190
6.58267e+190
6.58241e+190
6.68026e+190
6.47342e+190
-5.40298e+190
-5.01194e+191
9.67694e+190
-5.1838e+191
-6.01415e+190
6.47739e+190
6.70238e+190
6.5971e+190
6.5945e+190
6.60399e+190
6.60399e+190
-6.60951e+190
6.60951e+190
6.60926e+190
6.60851e+190
6.6065e+190
6.60139e+190
6.58889e+190
6.55999e+190
6.49498e+190
6.29719e+190
4.90488e+190
-6.97661e+190
-3.97917e+191
-5.60817e+189
-4.11837e+191
-7.60691e+190
4.84154e+190
6.29918e+190
6.50457e+190
6.56977e+190
6.59447e+190
6.59447e+190
-6.60947e+190
6.60947e+190
6.60918e+190
6.60828e+190
6.60587e+190
6.59958e+190
6.58335e+190
6.54113e+190
6.42149e+190
5.9856e+190
3.76915e+190
-7.8989e+190
-3.31702e+191
-6.24207e+190
-3.43102e+191
-8.52641e+190
3.65465e+190
5.97177e+190
6.42686e+190
6.54923e+190
6.58674e+190
6.58674e+190
-6.60945e+190
6.60945e+190
6.60912e+190
6.60812e+190
6.60544e+190
6.59832e+190
6.57944e+190
6.52762e+190
6.36867e+190
5.76778e+190
3.03617e+190
-8.41277e+190
-2.9305e+191
-9.55746e+190
-3.03158e+191
-9.04204e+190
2.88815e+190
5.743e+190
6.37107e+190
6.53454e+190
6.58129e+190
6.58129e+190
-6.60943e+190
6.60943e+190
6.60909e+190
6.60804e+190
6.60521e+190
6.59767e+190
6.57741e+190
6.52058e+190
6.34112e+190
5.65611e+190
2.67742e+190
-8.64519e+190
-2.75525e+191
-1.11133e+191
-2.85126e+191
-9.27276e+190
2.51331e+190
5.62577e+190
6.34197e+190
6.52689e+190
6.57847e+190
6.57847e+190
0
6.60943e+190
6.60909e+190
6.60804e+190
6.60521e+190
6.59767e+190
6.57741e+190
6.52058e+190
6.34112e+190
5.65611e+190
2.67742e+190
-8.64519e+190
-2.75525e+191
-1.11133e+191
-2.85126e+191
-9.27276e+190
2.51331e+190
5.62577e+190
6.34197e+190
6.52689e+190
6.57847e+190
0
0
6.61008e+190
6.61045e+190
6.6116e+190
6.61485e+190
6.6239e+190
6.64901e+190
6.71665e+190
6.87967e+190
7.1165e+190
6.23513e+190
-4.20082e+190
-4.43982e+191
5.05207e+190
-4.59426e+191
-4.74756e+190
6.22813e+190
7.16136e+190
6.91207e+190
6.74318e+190
6.68132e+190
0
-6.61008e+190
6.61008e+190
6.61045e+190
6.6116e+190
6.61485e+190
6.6239e+190
6.64901e+190
6.71665e+190
6.87967e+190
7.1165e+190
6.23513e+190
-4.20082e+190
-4.43982e+191
5.05207e+190
-4.59426e+191
-4.74756e+190
6.22813e+190
7.16136e+190
6.91207e+190
6.74318e+190
6.68132e+190
6.68132e+190
-6.61007e+190
6.61007e+190
6.61042e+190
6.61153e+190
6.61464e+190
6.62339e+190
6.64787e+190
6.71515e+190
6.88602e+190
7.19608e+190
6.72592e+190
-2.89562e+190
-4.92198e+191
6.84346e+190
-5.09013e+191
-3.42524e+190
6.74591e+190
7.24605e+190
6.91883e+190
6.74141e+190
6.67959e+190
6.67959e+190
-6.61004e+190
6.61004e+190
6.61036e+190
6.61138e+190
6.61425e+190
6.62238e+190
6.64558e+190
6.71185e+190
6.8964e+190
7.34506e+190
7.71892e+190
7.00221e+188
-5.90934e+191
-1.44686e+191
-6.10768e+191
-4.15824e+189
7.7962e+190
7.40482e+190
6.92993e+190
6.73757e+190
6.67613e+190
6.67613e+190
-6.61e+190
6.61e+190
6.61028e+190
6.61116e+190
6.61368e+190
6.62091e+190
6.64212e+190
6.70621e+190
6.90645e+190
7.54213e+190
9.22933e+190
5.36263e+190
-6.82785e+191
6.1963e+191
-7.06284e+191
4.95775e+190
9.40081e+190
7.61537e+190
6.94071e+190
6.7311e+190
6.67096e+190
6.67096e+190
-6.60995e+190
6.60995e+190
6.61017e+190
6.61088e+190
6.61295e+190
6.61901e+190
6.63753e+190
6.69759e+190
6.91017e+190
7.7529e+190
1.12406e+191
1.29691e+191
-1.11433e+192
9.27158e+190
-1.15099e+192
1.26544e+191
1.15525e+191
7.84145e+190
6.94479e+190
6.72132e+190
6.66413e+190
6.66413e+190
-6.60989e+190
6.60989e+190
6.61005e+190
6.61056e+190
6.61209e+190
6.61674e+190
6.63184e+190
6.68539e+190
6.90073e+190
7.9267e+190
1.36195e+191
2.12777e+191
-1.84053e+192
-4.18283e+189
-1.89289e+192
2.09912e+191
1.41186e+191
8.02909e+190
6.93491e+190
6.70762e+190
6.65577e+190
6.65577e+190
-6.60983e+190
6.60983e+190
6.60991e+190
6.61021e+190
6.61113e+190
6.61419e+190
6.62518e+190
6.66927e+190
6.87176e+190
7.99209e+190
1.57894e+191
2.92265e+191
-2.10125e+192
2.63398e+192
-2.14555e+192
2.8807e+191
1.64678e+191
8.10079e+190
6.90422e+190
6.68969e+190
6.64609e+190
6.64609e+190
-6.60976e+190
6.60976e+190
6.60977e+190
6.60983e+190
6.61012e+190
6.61145e+190
6.61777e+190
6.64939e+190
6.81934e+190
7.86198e+190
1.56561e+191
1.10004e+191
-1.94423e+192
-6.77633e+191
-2.00155e+192
1.05924e+191
1.61869e+191
7.96035e+190
6.84851e+190
6.66771e+190
6.63541e+190
6.63541e+190
-6.60969e+190
6.60969e+190
6.60963e+190
6.60946e+190
6.6091e+190
6.60863e+190
6.6099e+190
6.6265e+190
6.74498e+190
7.51677e+190
1.22945e+191
4.91026e+190
-1.0475e+192
1.09674e+192
-1.07628e+192
4.32748e+190
1.26263e+191
7.59099e+190
6.76946e+190
6.64252e+190
6.62418e+190
6.62418e+190
-6.60962e+190
6.60962e+190
6.60949e+190
6.6091e+190
6.60812e+190
6.60588e+190
6.60195e+190
6.60196e+190
6.65667e+190
7.08307e+190
9.11718e+190
-1.48291e+190
-7.28451e+191
-1.29979e+190
-7.5327e+191
-2.13492e+190
9.26276e+190
7.12973e+190
6.67569e+190
6.61562e+190
6.61292e+190
6.61292e+190
-6.60956e+190
6.60956e+190
6.60937e+190
6.60877e+190
6.60721e+190
6.60332e+190
6.59438e+190
6.57752e+190
6.56437e+190
6.64623e+190
6.7045e+190
-4.80925e+190
-5.1279e+191
1.0863e+190
-5.30869e+191
-5.48969e+190
6.72132e+190
6.66714e+190
6.57784e+190
6.58891e+190
6.60225e+190
6.60225e+190
-6.60951e+190
6.60951e+190
6.60926e+190
6.60849e+190
6.60642e+190
6.60108e+190
6.58763e+190
6.55507e+190
6.47775e+190
6.25623e+190
4.96134e+190
-6.57368e+190
-3.93226e+191
-3.54173e+190
-4.07113e+191
-7.23394e+190
4.89489e+190
6.25584e+190
6.48616e+190
6.56443e+190
6.59279e+190
6.59279e+190
-6.60947e+190
6.60947e+190
6.60917e+190
6.60826e+190
6.6058e+190
6.59928e+190
6.58213e+190
6.53642e+190
6.40517e+190
5.94375e+190
3.75749e+190
-7.62845e+190
-3.24897e+191
-8.08941e+190
-3.36285e+191
-8.27291e+190
3.63641e+190
5.92707e+190
6.40942e+190
6.54412e+190
6.58511e+190
6.58511e+190
-6.60944e+190
6.60944e+190
6.60911e+190
6.60811e+190
6.60536e+190
6.59802e+190
6.57824e+190
6.52307e+190
6.35313e+190
5.72708e+190
3.00072e+190
-8.21698e+190
-2.86959e+191
-1.06036e+191
-2.96989e+191
-8.85268e+190
2.8462e+190
5.69938e+190
6.35444e+190
6.5296e+190
6.57969e+190
6.57969e+190
-6.60943e+190
6.60943e+190
6.60908e+190
6.60803e+190
6.60514e+190
6.59737e+190
6.57623e+190
6.51612e+190
6.326e+190
5.61647e+190
2.63533e+190
-8.4817e+190
-2.70076e+191
-1.18628e+191
-2.79532e+191
-9.11309e+190
2.46498e+190
5.58322e+190
6.32579e+190
6.52204e+190
6.57689e+190
6.57689e+190
0
6.60943e+190
6.60908e+190
6.60803e+190
6.60514e+190
6.59737e+190
6.57623e+190
6.51612e+190
6.326e+190
5.61647e+190
2.63533e+190
-8.4817e+190
-2.70076e+191
-1.18628e+191
-2.79532e+191
-9.11309e+190
2.46498e+190
5.58322e+190
6.32579e+190
6.52204e+190
6.57689e+190
0
0
6.61008e+190
6.61044e+190
6.61157e+190
6.61473e+190
6.62342e+190
6.647e+190
6.70852e+190
6.8492e+190
7.02093e+190
6.0601e+190
-3.94044e+190
-4.33112e+191
7.61381e+190
-4.48505e+191
-4.5095e+190
6.03584e+190
7.05842e+190
6.87932e+190
6.73434e+190
6.67865e+190
0
-6.61008e+190
6.61008e+190
6.61044e+190
6.61157e+190
6.61473e+190
6.62342e+190
6.647e+190
6.70852e+190
6.8492e+190
7.02093e+190
6.0601e+190
-3.94044e+190
-4.33112e+191
7.61381e+190
-4.48505e+191
-4.5095e+190
6.03584e+190
7.05842e+190
6.87932e+190
6.73434e+190
6.67865e+190
6.67865e+190
-6.61007e+190
6.61007e+190
6.61041e+190
6.6115e+190
6.61453e+190
6.62291e+190
6.64585e+190
6.70697e+190
6.8551e+190
7.09872e+190
6.56052e+190
-2.46333e+190
-4.96144e+191
1.93885e+191
-5.13384e+191
-3.01416e+190
6.56356e+190
7.14118e+190
6.8856e+190
6.73252e+190
6.67691e+190
6.67691e+190
-6.61004e+190
6.61004e+190
6.61036e+190
6.61135e+190
6.61414e+190
6.6219e+190
6.64355e+190
6.70357e+190
6.86473e+190
7.24553e+190
7.59596e+190
1.13087e+190
-6.92907e+191
-1.47943e+191
-7.15834e+191
6.28727e+189
7.65875e+190
7.29765e+190
6.89589e+190
6.72857e+190
6.67344e+190
6.67344e+190
-6.61e+190
6.61e+190
6.61027e+190
6.61113e+190
6.61356e+190
6.62043e+190
6.64009e+190
6.69782e+190
6.87397e+190
7.44323e+190
9.25233e+190
8.7621e+190
-7.08918e+191
-2.84691e+190
-7.36642e+191
8.36077e+190