# vtk DataFile Version 2.0
FlowField
ACSII
DATASET STRUCTURED_GRID
DIMENSIONS11 1 11
POINTS121float
0 0 0
1 0 0
2 0 0
3 0 0
4 0 0
5 0 0
6 0 0
7 0 0
8 0 0
9 0 0
10 0 0
0 1 0
1 1 0
2 1 0
3 1 0
4 1 0
5 1 0
6 1 0
7 1 0
8 1 0
9 1 0
10 1 0
0 2 0
1 2 0
2 2 0
3 2 0
4 2 0
5 2 0
6 2 0
7 2 0
8 2 0
9 2 0
10 2 0
0 3 0
1 3 0
2 3 0
3 3 0
4 3 0
5 3 0
6 3 0
7 3 0
8 3 0
9 3 0
10 3 0
0 4 0
1 4 0
2 4 0
3 4 0
4 4 0
5 4 0
6 4 0
7 4 0
8 4 0
9 4 0
10 4 0
0 5 0
1 5 0
2 5 0
3 5 0
4 5 0
5 5 0
6 5 0
7 5 0
8 5 0
9 5 0
10 5 0
0 6 0
1 6 0
2 6 0
3 6 0
4 6 0
5 6 0
6 6 0
7 6 0
8 6 0
9 6 0
10 6 0
0 7 0
1 7 0
2 7 0
3 7 0
4 7 0
5 7 0
6 7 0
7 7 0
8 7 0
9 7 0
10 7 0
0 8 0
1 8 0
2 8 0
3 8 0
4 8 0
5 8 0
6 8 0
7 8 0
8 8 0
9 8 0
10 8 0
0 9 0
1 9 0
2 9 0
3 9 0
4 9 0
5 9 0
6 9 0
7 9 0
8 9 0
9 9 0
10 9 0
0 10 0
1 10 0
2 10 0
3 10 0
4 10 0
5 10 0
6 10 0
7 10 0
8 10 0
9 10 0
10 10 0

POINT_DATAPOINTS121

SCALARS PHI float 1
LOOKUP_TABLE default
0
0
0
0
0
0
0
0
0
0
0
0
1.02209e-12
9.81528e-11
5.65666e-09
1.8121e-07
2.49297e-06
1.8121e-07
5.65666e-09
9.81528e-11
1.02209e-12
0
0
9.81528e-11
7.54222e-09
3.62321e-07
9.95303e-06
0.000119935
9.95303e-06
3.62321e-07
7.54222e-09
9.81528e-11
0
0
5.65666e-09
3.62321e-07
1.49239e-05
0.000358898
0.0038487
0.000358898
1.49239e-05
3.62321e-07
5.65666e-09
0
0
1.8121e-07
9.95303e-06
0.000358898
0.0076775
0.0742065
0.0076775
0.000358898
9.95303e-06
1.8121e-07
0
0
2.49297e-06
0.000119935
0.0038487
0.0742065
0.653565
0.0742065
0.0038487
0.000119935
2.49297e-06
0
0
1.8121e-07
9.95303e-06
0.000358898
0.0076775
0.0742065
0.0076775
0.000358898
9.95303e-06
1.8121e-07
0
0
5.65666e-09
3.62321e-07
1.49239e-05
0.000358898
0.0038487
0.000358898
1.49239e-05
3.62321e-07
5.65666e-09
0
0
9.81528e-11
7.54222e-09
3.62321e-07
9.95303e-06
0.000119935
9.95303e-06
3.62321e-07
7.54222e-09
9.81528e-11
0
0
1.02209e-12
9.81528e-11
5.65666e-09
1.8121e-07
2.49297e-06
1.8121e-07
5.65666e-09
9.81528e-11
1.02209e-12
0
0
0
0
0
0
0
0
0
0
0
0
