# vtk DataFile Version 2.0
FlowField
ASCII
DATASET STRUCTURED_GRID
DIMENSIONS 62 47 32 
POINTS 93248 double
0 0 0
0.01 0 0
0.02 0 0
0.03 0 0
0.04 0 0
0.05 0 0
0.06 0 0
0.07 0 0
0.08 0 0
0.09 0 0
0.1 0 0
0.11 0 0
0.12 0 0
0.13 0 0
0.14 0 0
0.15 0 0
0.16 0 0
0.17 0 0
0.18 0 0
0.19 0 0
0.2 0 0
0.21 0 0
0.22 0 0
0.23 0 0
0.24 0 0
0.25 0 0
0.26 0 0
0.27 0 0
0.28 0 0
0.29 0 0
0.3 0 0
0.31 0 0
0.32 0 0
0.33 0 0
0.34 0 0
0.35 0 0
0.36 0 0
0.37 0 0
0.38 0 0
0.39 0 0
0.4 0 0
0.41 0 0
0.42 0 0
0.43 0 0
0.44 0 0
0.45 0 0
0.46 0 0
0.47 0 0
0.48 0 0
0.49 0 0
0.5 0 0
0.51 0 0
0.52 0 0
0.53 0 0
0.54 0 0
0.55 0 0
0.56 0 0
0.57 0 0
0.58 0 0
0.59 0 0
0.6 0 0
0.61 0 0
0 0.01 0
0.01 0.01 0
0.02 0.01 0
0.03 0.01 0
0.04 0.01 0
0.05 0.01 0
0.06 0.01 0
0.07 0.01 0
0.08 0.01 0
0.09 0.01 0
0.1 0.01 0
0.11 0.01 0
0.12 0.01 0
0.13 0.01 0
0.14 0.01 0
0.15 0.01 0
0.16 0.01 0
0.17 0.01 0
0.18 0.01 0
0.19 0.01 0
0.2 0.01 0
0.21 0.01 0
0.22 0.01 0
0.23 0.01 0
0.24 0.01 0
0.25 0.01 0
0.26 0.01 0
0.27 0.01 0
0.28 0.01 0
0.29 0.01 0
0.3 0.01 0
0.31 0.01 0
0.32 0.01 0
0.33 0.01 0
0.34 0.01 0
0.35 0.01 0
0.36 0.01 0
0.37 0.01 0
0.38 0.01 0
0.39 0.01 0
0.4 0.01 0
0.41 0.01 0
0.42 0.01 0
0.43 0.01 0
0.44 0.01 0
0.45 0.01 0
0.46 0.01 0
0.47 0.01 0
0.48 0.01 0
0.49 0.01 0
0.5 0.01 0
0.51 0.01 0
0.52 0.01 0
0.53 0.01 0
0.54 0.01 0
0.55 0.01 0
0.56 0.01 0
0.57 0.01 0
0.58 0.01 0
0.59 0.01 0
0.6 0.01 0
0.61 0.01 0
0 0.02 0
0.01 0.02 0
0.02 0.02 0
0.03 0.02 0
0.04 0.02 0
0.05 0.02 0
0.06 0.02 0
0.07 0.02 0
0.08 0.02 0
0.09 0.02 0
0.1 0.02 0
0.11 0.02 0
0.12 0.02 0
0.13 0.02 0
0.14 0.02 0
0.15 0.02 0
0.16 0.02 0
0.17 0.02 0
0.18 0.02 0
0.19 0.02 0
0.2 0.02 0
0.21 0.02 0
0.22 0.02 0
0.23 0.02 0
0.24 0.02 0
0.25 0.02 0
0.26 0.02 0
0.27 0.02 0
0.28 0.02 0
0.29 0.02 0
0.3 0.02 0
0.31 0.02 0
0.32 0.02 0
0.33 0.02 0
0.34 0.02 0
0.35 0.02 0
0.36 0.02 0
0.37 0.02 0
0.38 0.02 0
0.39 0.02 0
0.4 0.02 0
0.41 0.02 0
0.42 0.02 0
0.43 0.02 0
0.44 0.02 0
0.45 0.02 0
0.46 0.02 0
0.47 0.02 0
0.48 0.02 0
0.49 0.02 0
0.5 0.02 0
0.51 0.02 0
0.52 0.02 0
0.53 0.02 0
0.54 0.02 0
0.55 0.02 0
0.56 0.02 0
0.57 0.02 0
0.58 0.02 0
0.59 0.02 0
0.6 0.02 0
0.61 0.02 0
0 0.03 0
0.01 0.03 0
0.02 0.03 0
0.03 0.03 0
0.04 0.03 0
0.05 0.03 0
0.06 0.03 0
0.07 0.03 0
0.08 0.03 0
0.09 0.03 0
0.1 0.03 0
0.11 0.03 0
0.12 0.03 0
0.13 0.03 0
0.14 0.03 0
0.15 0.03 0
0.16 0.03 0
0.17 0.03 0
0.18 0.03 0
0.19 0.03 0
0.2 0.03 0
0.21 0.03 0
0.22 0.03 0
0.23 0.03 0
0.24 0.03 0
0.25 0.03 0
0.26 0.03 0
0.27 0.03 0
0.28 0.03 0
0.29 0.03 0
0.3 0.03 0
0.31 0.03 0
0.32 0.03 0
0.33 0.03 0
0.34 0.03 0
0.35 0.03 0
0.36 0.03 0
0.37 0.03 0
0.38 0.03 0
0.39 0.03 0
0.4 0.03 0
0.41 0.03 0
0.42 0.03 0
0.43 0.03 0
0.44 0.03 0
0.45 0.03 0
0.46 0.03 0
0.47 0.03 0
0.48 0.03 0
0.49 0.03 0
0.5 0.03 0
0.51 0.03 0
0.52 0.03 0
0.53 0.03 0
0.54 0.03 0
0.55 0.03 0
0.56 0.03 0
0.57 0.03 0
0.58 0.03 0
0.59 0.03 0
0.6 0.03 0
0.61 0.03 0
0 0.04 0
0.01 0.04 0
0.02 0.04 0
0.03 0.04 0
0.04 0.04 0
0.05 0.04 0
0.06 0.04 0
0.07 0.04 0
0.08 0.04 0
0.09 0.04 0
0.1 0.04 0
0.11 0.04 0
0.12 0.04 0
0.13 0.04 0
0.14 0.04 0
0.15 0.04 0
0.16 0.04 0
0.17 0.04 0
0.18 0.04 0
0.19 0.04 0
0.2 0.04 0
0.21 0.04 0
0.22 0.04 0
0.23 0.04 0
0.24 0.04 0
0.25 0.04 0
0.26 0.04 0
0.27 0.04 0
0.28 0.04 0
0.29 0.04 0
0.3 0.04 0
0.31 0.04 0
0.32 0.04 0
0.33 0.04 0
0.34 0.04 0
0.35 0.04 0
0.36 0.04 0
0.37 0.04 0
0.38 0.04 0
0.39 0.04 0
0.4 0.04 0
0.41 0.04 0
0.42 0.04 0
0.43 0.04 0
0.44 0.04 0
0.45 0.04 0
0.46 0.04 0
0.47 0.04 0
0.48 0.04 0
0.49 0.04 0
0.5 0.04 0
0.51 0.04 0
0.52 0.04 0
0.53 0.04 0
0.54 0.04 0
0.55 0.04 0
0.56 0.04 0
0.57 0.04 0
0.58 0.04 0
0.59 0.04 0
0.6 0.04 0
0.61 0.04 0
0 0.05 0
0.01 0.05 0
0.02 0.05 0
0.03 0.05 0
0.04 0.05 0
0.05 0.05 0
0.06 0.05 0
0.07 0.05 0
0.08 0.05 0
0.09 0.05 0
0.1 0.05 0
0.11 0.05 0
0.12 0.05 0
0.13 0.05 0
0.14 0.05 0
0.15 0.05 0
0.16 0.05 0
0.17 0.05 0
0.18 0.05 0
0.19 0.05 0
0.2 0.05 0
0.21 0.05 0
0.22 0.05 0
0.23 0.05 0
0.24 0.05 0
0.25 0.05 0
0.26 0.05 0
0.27 0.05 0
0.28 0.05 0
0.29 0.05 0
0.3 0.05 0
0.31 0.05 0
0.32 0.05 0
0.33 0.05 0
0.34 0.05 0
0.35 0.05 0
0.36 0.05 0
0.37 0.05 0
0.38 0.05 0
0.39 0.05 0
0.4 0.05 0
0.41 0.05 0
0.42 0.05 0
0.43 0.05 0
0.44 0.05 0
0.45 0.05 0
0.46 0.05 0
0.47 0.05 0
0.48 0.05 0
0.49 0.05 0
0.5 0.05 0
0.51 0.05 0
0.52 0.05 0
0.53 0.05 0
0.54 0.05 0
0.55 0.05 0
0.56 0.05 0
0.57 0.05 0
0.58 0.05 0
0.59 0.05 0
0.6 0.05 0
0.61 0.05 0
0 0.06 0
0.01 0.06 0
0.02 0.06 0
0.03 0.06 0
0.04 0.06 0
0.05 0.06 0
0.06 0.06 0
0.07 0.06 0
0.08 0.06 0
0.09 0.06 0
0.1 0.06 0
0.11 0.06 0
0.12 0.06 0
0.13 0.06 0
0.14 0.06 0
0.15 0.06 0
0.16 0.06 0
0.17 0.06 0
0.18 0.06 0
0.19 0.06 0
0.2 0.06 0
0.21 0.06 0
0.22 0.06 0
0.23 0.06 0
0.24 0.06 0
0.25 0.06 0
0.26 0.06 0
0.27 0.06 0
0.28 0.06 0
0.29 0.06 0
0.3 0.06 0
0.31 0.06 0
0.32 0.06 0
0.33 0.06 0
0.34 0.06 0
0.35 0.06 0
0.36 0.06 0
0.37 0.06 0
0.38 0.06 0
0.39 0.06 0
0.4 0.06 0
0.41 0.06 0
0.42 0.06 0
0.43 0.06 0
0.44 0.06 0
0.45 0.06 0
0.46 0.06 0
0.47 0.06 0
0.48 0.06 0
0.49 0.06 0
0.5 0.06 0
0.51 0.06 0
0.52 0.06 0
0.53 0.06 0
0.54 0.06 0
0.55 0.06 0
0.56 0.06 0
0.57 0.06 0
0.58 0.06 0
0.59 0.06 0
0.6 0.06 0
0.61 0.06 0
0 0.07 0
0.01 0.07 0
0.02 0.07 0
0.03 0.07 0
0.04 0.07 0
0.05 0.07 0
0.06 0.07 0
0.07 0.07 0
0.08 0.07 0
0.09 0.07 0
0.1 0.07 0
0.11 0.07 0
0.12 0.07 0
0.13 0.07 0
0.14 0.07 0
0.15 0.07 0
0.16 0.07 0
0.17 0.07 0
0.18 0.07 0
0.19 0.07 0
0.2 0.07 0
0.21 0.07 0
0.22 0.07 0
0.23 0.07 0
0.24 0.07 0
0.25 0.07 0
0.26 0.07 0
0.27 0.07 0
0.28 0.07 0
0.29 0.07 0
0.3 0.07 0
0.31 0.07 0
0.32 0.07 0
0.33 0.07 0
0.34 0.07 0
0.35 0.07 0
0.36 0.07 0
0.37 0.07 0
0.38 0.07 0
0.39 0.07 0
0.4 0.07 0
0.41 0.07 0
0.42 0.07 0
0.43 0.07 0
0.44 0.07 0
0.45 0.07 0
0.46 0.07 0
0.47 0.07 0
0.48 0.07 0
0.49 0.07 0
0.5 0.07 0
0.51 0.07 0
0.52 0.07 0
0.53 0.07 0
0.54 0.07 0
0.55 0.07 0
0.56 0.07 0
0.57 0.07 0
0.58 0.07 0
0.59 0.07 0
0.6 0.07 0
0.61 0.07 0
0 0.08 0
0.01 0.08 0
0.02 0.08 0
0.03 0.08 0
0.04 0.08 0
0.05 0.08 0
0.06 0.08 0
0.07 0.08 0
0.08 0.08 0
0.09 0.08 0
0.1 0.08 0
0.11 0.08 0
0.12 0.08 0
0.13 0.08 0
0.14 0.08 0
0.15 0.08 0
0.16 0.08 0
0.17 0.08 0
0.18 0.08 0
0.19 0.08 0
0.2 0.08 0
0.21 0.08 0
0.22 0.08 0
0.23 0.08 0
0.24 0.08 0
0.25 0.08 0
0.26 0.08 0
0.27 0.08 0
0.28 0.08 0
0.29 0.08 0
0.3 0.08 0
0.31 0.08 0
0.32 0.08 0
0.33 0.08 0
0.34 0.08 0
0.35 0.08 0
0.36 0.08 0
0.37 0.08 0
0.38 0.08 0
0.39 0.08 0
0.4 0.08 0
0.41 0.08 0
0.42 0.08 0
0.43 0.08 0
0.44 0.08 0
0.45 0.08 0
0.46 0.08 0
0.47 0.08 0
0.48 0.08 0
0.49 0.08 0
0.5 0.08 0
0.51 0.08 0
0.52 0.08 0
0.53 0.08 0
0.54 0.08 0
0.55 0.08 0
0.56 0.08 0
0.57 0.08 0
0.58 0.08 0
0.59 0.08 0
0.6 0.08 0
0.61 0.08 0
0 0.09 0
0.01 0.09 0
0.02 0.09 0
0.03 0.09 0
0.04 0.09 0
0.05 0.09 0
0.06 0.09 0
0.07 0.09 0
0.08 0.09 0
0.09 0.09 0
0.1 0.09 0
0.11 0.09 0
0.12 0.09 0
0.13 0.09 0
0.14 0.09 0
0.15 0.09 0
0.16 0.09 0
0.17 0.09 0
0.18 0.09 0
0.19 0.09 0
0.2 0.09 0
0.21 0.09 0
0.22 0.09 0
0.23 0.09 0
0.24 0.09 0
0.25 0.09 0
0.26 0.09 0
0.27 0.09 0
0.28 0.09 0
0.29 0.09 0
0.3 0.09 0
0.31 0.09 0
0.32 0.09 0
0.33 0.09 0
0.34 0.09 0
0.35 0.09 0
0.36 0.09 0
0.37 0.09 0
0.38 0.09 0
0.39 0.09 0
0.4 0.09 0
0.41 0.09 0
0.42 0.09 0
0.43 0.09 0
0.44 0.09 0
0.45 0.09 0
0.46 0.09 0
0.47 0.09 0
0.48 0.09 0
0.49 0.09 0
0.5 0.09 0
0.51 0.09 0
0.52 0.09 0
0.53 0.09 0
0.54 0.09 0
0.55 0.09 0
0.56 0.09 0
0.57 0.09 0
0.58 0.09 0
0.59 0.09 0
0.6 0.09 0
0.61 0.09 0
0 0.1 0
0.01 0.1 0
0.02 0.1 0
0.03 0.1 0
0.04 0.1 0
0.05 0.1 0
0.06 0.1 0
0.07 0.1 0
0.08 0.1 0
0.09 0.1 0
0.1 0.1 0
0.11 0.1 0
0.12 0.1 0
0.13 0.1 0
0.14 0.1 0
0.15 0.1 0
0.16 0.1 0
0.17 0.1 0
0.18 0.1 0
0.19 0.1 0
0.2 0.1 0
0.21 0.1 0
0.22 0.1 0
0.23 0.1 0
0.24 0.1 0
0.25 0.1 0
0.26 0.1 0
0.27 0.1 0
0.28 0.1 0
0.29 0.1 0
0.3 0.1 0
0.31 0.1 0
0.32 0.1 0
0.33 0.1 0
0.34 0.1 0
0.35 0.1 0
0.36 0.1 0
0.37 0.1 0
0.38 0.1 0
0.39 0.1 0
0.4 0.1 0
0.41 0.1 0
0.42 0.1 0
0.43 0.1 0
0.44 0.1 0
0.45 0.1 0
0.46 0.1 0
0.47 0.1 0
0.48 0.1 0
0.49 0.1 0
0.5 0.1 0
0.51 0.1 0
0.52 0.1 0
0.53 0.1 0
0.54 0.1 0
0.55 0.1 0
0.56 0.1 0
0.57 0.1 0
0.58 0.1 0
0.59 0.1 0
0.6 0.1 0
0.61 0.1 0
0 0.11 0
0.01 0.11 0
0.02 0.11 0
0.03 0.11 0
0.04 0.11 0
0.05 0.11 0
0.06 0.11 0
0.07 0.11 0
0.08 0.11 0
0.09 0.11 0
0.1 0.11 0
0.11 0.11 0
0.12 0.11 0
0.13 0.11 0
0.14 0.11 0
0.15 0.11 0
0.16 0.11 0
0.17 0.11 0
0.18 0.11 0
0.19 0.11 0
0.2 0.11 0
0.21 0.11 0
0.22 0.11 0
0.23 0.11 0
0.24 0.11 0
0.25 0.11 0
0.26 0.11 0
0.27 0.11 0
0.28 0.11 0
0.29 0.11 0
0.3 0.11 0
0.31 0.11 0
0.32 0.11 0
0.33 0.11 0
0.34 0.11 0
0.35 0.11 0
0.36 0.11 0
0.37 0.11 0
0.38 0.11 0
0.39 0.11 0
0.4 0.11 0
0.41 0.11 0
0.42 0.11 0
0.43 0.11 0
0.44 0.11 0
0.45 0.11 0
0.46 0.11 0
0.47 0.11 0
0.48 0.11 0
0.49 0.11 0
0.5 0.11 0
0.51 0.11 0
0.52 0.11 0
0.53 0.11 0
0.54 0.11 0
0.55 0.11 0
0.56 0.11 0
0.57 0.11 0
0.58 0.11 0
0.59 0.11 0
0.6 0.11 0
0.61 0.11 0
0 0.12 0
0.01 0.12 0
0.02 0.12 0
0.03 0.12 0
0.04 0.12 0
0.05 0.12 0
0.06 0.12 0
0.07 0.12 0
0.08 0.12 0
0.09 0.12 0
0.1 0.12 0
0.11 0.12 0
0.12 0.12 0
0.13 0.12 0
0.14 0.12 0
0.15 0.12 0
0.16 0.12 0
0.17 0.12 0
0.18 0.12 0
0.19 0.12 0
0.2 0.12 0
0.21 0.12 0
0.22 0.12 0
0.23 0.12 0
0.24 0.12 0
0.25 0.12 0
0.26 0.12 0
0.27 0.12 0
0.28 0.12 0
0.29 0.12 0
0.3 0.12 0
0.31 0.12 0
0.32 0.12 0
0.33 0.12 0
0.34 0.12 0
0.35 0.12 0
0.36 0.12 0
0.37 0.12 0
0.38 0.12 0
0.39 0.12 0
0.4 0.12 0
0.41 0.12 0
0.42 0.12 0
0.43 0.12 0
0.44 0.12 0
0.45 0.12 0
0.46 0.12 0
0.47 0.12 0
0.48 0.12 0
0.49 0.12 0
0.5 0.12 0
0.51 0.12 0
0.52 0.12 0
0.53 0.12 0
0.54 0.12 0
0.55 0.12 0
0.56 0.12 0
0.57 0.12 0
0.58 0.12 0
0.59 0.12 0
0.6 0.12 0
0.61 0.12 0
0 0.13 0
0.01 0.13 0
0.02 0.13 0
0.03 0.13 0
0.04 0.13 0
0.05 0.13 0
0.06 0.13 0
0.07 0.13 0
0.08 0.13 0
0.09 0.13 0
0.1 0.13 0
0.11 0.13 0
0.12 0.13 0
0.13 0.13 0
0.14 0.13 0
0.15 0.13 0
0.16 0.13 0
0.17 0.13 0
0.18 0.13 0
0.19 0.13 0
0.2 0.13 0
0.21 0.13 0
0.22 0.13 0
0.23 0.13 0
0.24 0.13 0
0.25 0.13 0
0.26 0.13 0
0.27 0.13 0
0.28 0.13 0
0.29 0.13 0
0.3 0.13 0
0.31 0.13 0
0.32 0.13 0
0.33 0.13 0
0.34 0.13 0
0.35 0.13 0
0.36 0.13 0
0.37 0.13 0
0.38 0.13 0
0.39 0.13 0
0.4 0.13 0
0.41 0.13 0
0.42 0.13 0
0.43 0.13 0
0.44 0.13 0
0.45 0.13 0
0.46 0.13 0
0.47 0.13 0
0.48 0.13 0
[...]
POINT_DATA 93248

SCALARS u double
LOOKUP_TABLE default
0
0
0
0
0
0
0
0
0
0
0
0
0
0
0
0
0
0
0
0
0
0
0
0
0.303059
0
0
0
0
0
0
0
0.0474853
0.228465
0
0
0
0
0
0
0
0
0
0
0
0
0
0.0877671
0
0
0.0764889
0
0
0
0
0
0
0
0
0
0
0
0
0.417259
0.337827
0.262571
0.201341
0.155941
0.12414
0.103642
0.0918677
0.0855029
0.0819682
0.0797115
0.0788445
0.0775111
0.0759437
0.0741906
0.0725194
0.0705858
0.0683671
0.0649616
0.0659579
0.0648248
0.0621361
0.0599413
0.057891
0.055928
0.0540106
0.0521044
0.050183
0.0482208
0.0461897
0.0441391
0.0426397
0.0405686
0.0380066
0.0355965
0.0339817
0.031575
0.0301355
0.163312
0.021919
0.0227464
0.0227402
0.022831
0.0240567
0.00972725
0.0137742
0.012617
0.0113232
0.00909078
0.00679596
0.0351752
0.00402882
0.00522792
-0.00855296
-0.00841179
0.010976
-0.0105069
-0.0142453
-0.0205024
-0.0205024
0
0
0.491049
0.474431
0.448469
0.415086
0.38237
0.348989
0.319728
0.296277
0.279007
0.266329
0.256408
0.250022
0.243201
0.236913
0.230773
0.225168
0.2194
0.215071
0.339809
0.207303
0.199922
0.191059
0.185399
0.179645
0.173956
0.168326
0.162721
0.157112
0.151467
0.14573
0.13978
0.135
0.129276
0.123021
0.117136
0.109704
0.10113
-0.0348844
0.0892473
0.0858445
0.0815895
0.0777105
0.0739942
0.0694012
0.0601527
0.0533129
0.0488771
0.0437943
0.0384073
0.0331977
0.0281743
0.0227394
0.0168123
0.00613235
0.00015653
-0.00685871
-0.0119682
-0.0195446
-0.02779
-0.02779
0
0
0.48529
0.484949
0.483662
0.474023
0.469736
0.451149
0.433076
0.415004
0.397511
0.397147
0.368383
0.35466
0.34397
0.334386
0.325826
0.317856
0.308774
0.300839
0.292195
0.283648
0.276525
0.26851
0.260786
0.253028
0.245254
0.237484
0.229722
0.221964
0.214218
0.20654
0.199078
0.190389
0.183766
0.214562
0.16853
0.159731
0.152337
0.147785
0.139047
0.129945
0.121537
0.135718
0.106785
0.0993713
0.128035
0.0814783
0.0726256
0.0437943
0.0571869
0.0502965
0.0430866
0.0351752
0.0265456
0.0167452
0.00818381
-0.00024427
-0.0101088
-0.0184914
-0.0268638
-0.0268638
0
0
0.478205
0.473701
0.479381
0.478394
0.478134
0.473282
0.465378
0.45455
0.441195
0.426634
0.412545
0.39882
0.386598
0.375571
0.365298
0.355167
0.34686
0.337594
0.337864
0.318472
0.309633
0.300953
0.292363
0.283769
0.275153
0.266526
0.257896
0.249267
0.240642
0.23203
0.223397
0.214399
0.206086
0.197276
0.189097
0.18096
0.173555
0.16733
0.158422
0.148505
0.138535
0.128882
0.120064
0.11119
0.101664
0.0921083
0.0833911
0.0751604
0.0665217
0.0580629
0.0495351
0.0406576
0.0313473
0.0217031
0.0123024
0.00292277
-0.00687084
-0.0160512
-0.0250136
-0.0250136
0
0
0.475354
0.467215
0.465586
0.46544
0.466185
0.465473
0.462345
0.456148
0.446709
0.435052
0.422614
0.410193
0.398409
0.387287
0.376767
0.367087
0.357834
0.34845
0.338695
0.329202
0.320038
0.311051
0.302155
0.293286
0.284419
0.27555
0.266679
0.257805
0.248918
0.239994
0.230966
0.221786
0.213483
0.204675
0.196098
0.187788
0.179854
0.172089
0.163266
0.153659
0.143761
0.133924
0.124474
0.115199
0.106141
0.098812
0.0870895
0.0784926
0.06961
0.0606986
0.0517445
0.0426268
0.0332515
0.0237205
0.0142291
0.00480072
-0.00456023
-0.0136011
-0.0230524
-0.0230524
0
0
0.474106
0.462911
0.456727
0.453685
0.452672
0.452
0.45036
0.44679
0.440039
0.430913
0.420506
0.409681
0.398966
0.38859
0.378621
0.369417
0.359662
0.350603
0.340797
0.331407
0.32228
0.313288
0.304356
0.295449
0.286551
0.277655
0.268763
0.25987
0.25096
0.241997
0.232888
0.223365
0.215837
0.206793
0.197972
0.18941
0.181029
0.172586
0.163697
0.154369
0.144789
0.135137
0.125532
0.115824
0.105883
0.0981735
0.0889314
0.0797339
0.0706013
0.0615422
0.05253
0.0434562
0.034135
0.0247051
0.0153263
0.0060909
-0.00275435
-0.0101982
-0.0152062
-0.0152062
0
0
0.473464
0.460414
0.451473
0.445836
0.442881
0.458671
0.44042
0.436984
0.43166
0.424288
0.415504
0.406073
0.396375
0.386569
0.376821
0.368211
0.358289
0.348878
0.339809
0.330927
0.322147
0.313346
0.30451
0.295656
0.2868
0.27794
0.269095
0.260258
0.251417
0.242578
0.233863
0.225587
0.215191
0.206523
0.197993
0.189484
0.180931
0.172243
0.163312
0.154139
0.144796
0.136162
0.12586
0.11631
0.106869
0.0982975
0.0892701
0.080091
0.0709217
0.0618405
0.0528932
0.0439961
0.0346853
0.0253194
0.0160721
0.00688751
-0.00254167
-0.0121899
-0.0108988
-0.0108988
0
0
0.473087
0.458918
0.448303
0.440846
0.436178
0.43345
0.431678
0.42892
0.42442
0.418094
0.410411
0.402185
0.393291
0.383803
0.373041
0.225168
0.35258
0.345465
0.337864
0.329788
0.321491
0.312918
0.304189
0.295396
0.284419
0.277783
0.269027
0.260279
0.251529
0.24274
0.233979
0.225238
0.215783
0.206809
0.198085
0.189427
0.180726
0.171917
0.162965
0.153869
0.144654
0.13535
0.126013
0.116669
0.107422
0.0984354
0.0893612
0.0801913
0.0709895
0.0618364
0.052879
0.0442811
0.034845
0.0255991
0.0166598
0.00798667
-0.000459433
-0.0100852
-0.0159308
-0.0159308
0
0
0.472847
0.457972
0.446305
0.437676
0.431889
0.428332
0.425922
0.423072
0.418832
0.413013
0.405873
0.39937
0.390633
0.381879
0.373059
0.365546
0.356336
0.347104
0.338291
0.329584
0.321191
0.312502
0.303759
0.294992
0.286311
0.277559
0.268854
0.26021
0.251608
0.242911
0.234019
0.225076
0.215988
0.207028
0.198186
0.189399
0.180584
0.171706
0.162747
0.1537
0.144573
0.13538
0.126155
0.116925
0.107737
0.0986163
0.089471
0.0802541
0.0709402
0.0615091
0.0520318
0.0438029
0.0341636
0.0253675
0.0168627
0.00842889
-4.23655e-05
-0.00893015
-0.0172948
-0.0172948
0
0
0.472689
0.45735
0.444981
0.435612
0.429078
0.424905
0.421977
0.418861
0.414611
0.409046
0.40246
0.395543
0.387885
0.379946
0.371825
0.364123
0.355613
0.346793
0.338029
0.329467
0.320522
0.311846
0.303161
0.294416
0.285963
0.277207
0.268569
0.260068
0.251766
0.252
0.234211
0.225046
0.216055
0.20713
0.19823
0.188749
0.180464
0.171562
0.162619
0.153618
0.144556
0.135445
0.126293
0.117126
0.107964
0.098812
0.0896357
0.0803869
0.0709816
0.0612363
0.0507313
-0.00828666
0.0324119
0.0250179
0.0170256
0.0087395
0.000276423
-0.00843271
-0.0173892
-0.0173892
0
0
0.472584
0.456938
0.444062
0.434249
0.427153
0.42248
0.419126
0.415721
0.411356
0.405872
0.399539
0.392725
0.38553
0.378145
0.370089
0.362186
0.354037
0.345643
0.337121
0.324508
0.319827
0.311239
0.302615
0.293949
0.285338
0.276682
0.268115
0.259714
0.25152
0.243474
0.233502
0.224825
0.216079
0.207217
0.198298
0.189366
0.179627
0.171481
0.162566
0.153606
0.144595
0.135548
0.126445
0.117312
0.108171
0.099027
0.0898698
0.0806769
0.0714293
0.0622027
0.0532502
0.0451211
0.035436
0.0264258
0.0177819
0.00923632
0.000660008
-0.00807492
-0.0171823
-0.0171823
0
0
0.472522
0.456711
0.443708
0.433208
0.425685
0.420635
0.416957
0.413299
0.408791
0.403305
0.39707
0.390382
0.383435
0.376564
0.36816
0.360478
0.352601
0.344498
0.336272
0.327967
0.319426
0.310812
0.302147
0.293442
0.284726
0.276025
0.267458
0.259134
0.251003
0.241927
0.234683
0.225732
0.216594
0.207474
0.198408
0.189401
0.18045
0.171516
0.162602
0.153662
0.144676
0.135718
0.126628
0.117507
0.10838
0.0992583
0.0901482
0.0810442
0.0719345
0.0630102
0.0543934
0.0460049
0.0367289
0.0275064
0.0185577
0.00979724
0.00108668
-0.0077223
-0.0169074
-0.0169074
0
0
0.472474
0.456518
0.443239
0.432525
0.424693
0.419332
0.415361
0.411462
0.40678
0.401246
0.395009
0.388341
0.381304
0.373652
0.367196
0.359587
0.351665
0.343558
0.335511
0.327308
0.318883
0.310308
0.30163
0.292866
0.284028
0.275165
0.266477
0.258312
0.251703
0.243263
0.234879
0.225927
0.216754
0.207555
0.198407
0.189344
0.180367
0.171495
0.162661
0.153764
0.144715
0.136056
0.12686
0.117716
0.10859
0.0994873
0.0904268
0.081408
0.0722952
0.0634584
0.054796
0.0461343
0.0371251
0.0280644
0.0191221
0.010311
0.00150213
-0.00735964
-0.0166044
-0.0166044
0
0
0.472439
0.456376
0.442959
0.43193
0.423946
0.418364
0.414162
0.410061
0.405262
0.399561
0.393297
0.386665
0.379742
0.372536
0.365601
0.358232
0.350479
0.34241
0.334767
0.326689
0.318309
0.309758
0.301074
0.292251
0.283241
0.273997
0.264651
0.255639
0.254912
0.245701
0.235955
0.226356
0.216892
0.207539
0.198294
0.189192
0.180157
0.171429
0.162788
0.154014
0.145086
0.136162
0.12706
0.117923
0.108788
0.0996837
0.0906457
0.0817297
0.0724849
0.0637358
0.0550186
0.0462515
0.0372746
0.0283687
0.0195278
0.0108227
0.00184154
-0.00697748
-0.0162598
-0.0162598
0
0
0.472416
0.456244
0.442642
0.431626
0.423427
0.417647
0.413248
0.408962
0.404003
0.398234
0.391928
0.385316
0.378492
0.371492
0.364422
0.3571
0.349437
0.34119
0.334256
0.326057
0.317663
0.309148
0.30051
0.291678
0.282516
0.272643
0.260796
0.242967
0.269655
0.250058
0.237421
0.226834
0.216965
0.207412
0.198029
0.188807
0.179822
0.171293
0.163101
0.154487
0.145547
0.136473
0.127318
0.118142
0.108969
0.0998208
0.090684
0.0815394
0.0729592
0.0641035
0.0552938
0.046576
0.0372839
0.0285788
0.0197953
0.0111241
0.00235468
-0.00648902
-0.0158027
-0.0158027
0
0
0.472431
0.456143
0.44244
0.431376
0.423058
0.417116
0.412544
0.408092
0.402994
0.397147
0.390799
0.384193
0.377433
0.370535
0.363491
0.356266
0.34892
0.341774
0.332805
0.324799
0.316713
0.308451
0.299983
0.291286
0.282285
0.272845
0.26288
0.253673
0.255271
0.246418
0.236284
0.226303
0.216581
0.207035
0.197548
0.18814
0.179017
0.170779
0.163995
0.155491
0.146299
0.136968
0.127653
0.118387
0.109146
0.0999659
0.0908205
0.0817304
0.0729173
0.0642688
0.0554648
0.0466081
0.0376459
0.0288881
0.0199147
0.0114088
0.00283225
-0.00584039
-0.0150623
-0.0150623
0
0
0.472521
0.456039
0.442329
0.431248
0.422875
0.41675
0.41201
0.407399
0.402178
0.396259
0.389851
0.383234
0.376522
0.369705
0.362712
0.355525
0.348179
0.340704
0.332502
0.324393
0.316276
0.308052
0.299676
0.291123
0.282382
0.273486
0.264645
0.256742
0.2513
0.243566
0.234651
0.225335
0.215924
0.206491
0.19687
0.187065
0.177145
0.168226
0.167231
0.157746
0.147544
0.13764
0.128035
0.118636
0.109306
0.100106
0.0909464
0.0818035
0.0727852
0.0644771
0.0556272
0.0467087
0.03792
0.0295752
0.0194184
0.0114843
0.00324674
-0.00489256
-0.0135198
-0.0135198
0
0
0.472227
0.456215
0.442443
0.431342
0.422981
0.416957
0.41162
0.406863
0.401554
0.395599
0.389069
0.382408
0.37574
0.369024
0.362061
0.354857
0.347463
0.339908
0.332048
0.324068
0.315996
0.307817
0.299515
0.291087
0.282559
0.274015
0.269358
0.257424
0.250295
0.242274
0.233567
0.224509
0.215264
0.205913
0.196149
0.185803
0.173573
0.154329
0.182114
0.161968
0.148989
0.138235
0.128312
0.118759
0.109472
0.100251
0.091093
0.0819072
0.072558
0.0648015
0.0556512
0.0466685
0.0378483
0.0290773
0.0197875
0.000276423
0.00342595
-0.00370069
-0.00958448
0
0
0
0.472318
0.455714
0.442286
0.431316
0.423043
0.416403
0.411335
0.406522
0.401182
0.395283
0.388423
0.381677
0.37507
0.368498
0.361468
0.354177
0.34673
0.339247
0.331573
0.323732
0.315751
0.307643
0.299415
0.291082
0.282681
0.274273
0.265877
0.257223
0.250184
0.241649
0.232857
0.223871
0.214661
0.197646
0.195734
0.186022
0.175754
0.166105
0.167851
0.1537
0.148056
0.137987
0.128256
0.118778
0.109497
0.100339
0.0913103
0.0824763
0.0739278
0.0636572
0.0550256
0.0463936
0.0377202
0.0290331
0.0203427
0.0120129
0.00359169
-0.00465968
-0.0134312
-0.0134312
0
0
0.472349
0.456048
0.442051
0.431318
0.423245
0.41598
0.411019
0.40624
0.400908
0.395229
0.387693
0.381026
0.374442
0.367912
0.360608
0.353248
0.345809
0.33861
0.331121
0.323405
0.315525
0.307499
0.29934
0.291071
0.282731
0.274446
0.266625
0.258791
0.249107
0.240652
0.232109
0.223402
0.214562
0.205693
0.196452
0.187125
0.177957
0.169762
0.163993
0.155985
0.146811
0.13738
0.127961
0.118643
0.109431
0.100334
0.0913442
0.0824538
0.0735454
0.0640373
0.0550698
0.0463299
0.0376569
0.0290184
0.0203882
0.0118619
0.00322705
-0.00555911
-0.0149124
-0.0149124
0
0
0.472369
0.456125
0.442521
0.4307
0.421487
0.416219
0.41128
0.406313
0.400563
0.393685
0.388001
0.381011
0.373703
0.335348
0.358763
0.352042
0.344847
0.338216
0.330777
0.323135
0.315336
0.307389
0.299287
0.291047
0.28265
0.273873
0.267324
0.258553
0.249407
0.240605
0.231909
0.223205
0.214514
0.205864
0.196967
0.188
0.17919
0.170848
0.163003
0.15469
0.145877
0.136809
0.12759
0.118435
0.109312
0.100279
0.0913015
0.0823552
0.0733682
0.0642038
0.0551556
0.0463208
0.0375891
0.0289377
0.0202067
0.0115284
0.00278411
-0.00617487
-0.0156011
-0.0156011
0
0
0.472365
0.456091
0.442305
0.430771
0.421878
0.415907
0.411078
0.406192
0.400471
0.393829
0.387409
0.380335
0.349812
0.366591
0.359709
0.352706
0.345803
0.337883
0.330448
0.322917
0.315226
0.307357
0.299291
0.291094
0.282803
0.274485
0.266665
0.258169
0.249401
0.240609
0.23182
0.223048
0.214424
0.206166
0.197451
0.18864
0.179847
0.171231
0.162735
0.15413
0.145351
0.136487
0.12717
0.118229
0.10921
0.100237
0.0912595
0.0822989
0.0733414
0.064294
0.0551895
0.0462838
0.0374207
0.0286983
0.0198831
0.0111907
0.00242113
-0.00662031
-0.0160293
-0.0160293
0
0
0.472358
0.456061
0.442222
0.430852
0.422157
0.415957
0.411079
0.406294
0.400751
0.39383
0.387383
0.380964
0.375198
0.367323
0.360231
0.353114
0.345907
0.338294
0.330708
0.323079
0.315355
0.307498
0.299375
0.291181
0.282952
0.274706
0.266485
0.257999
0.249354
0.240575
0.231682
0.2227
0.213886
0.207069
0.198113
0.189304
0.180301
0.171438
0.162659
0.153874
0.145026
0.136099
0.127046
0.118108
0.109736
0.100198
0.0911756
0.0822133
0.0733353
0.0643771
0.0581093
0.0462118
0.0370555
0.0169425
0.0194052
0.0109359
0.00221282
-0.00700044
-0.0163808
-0.0163808
0
0
0.472355
0.456054
0.442223
0.430935
0.422339
0.416126
0.411244
0.406665
0.401964
0.39332
0.387491
0.381135
0.374851
0.36776
0.360653
0.353489
0.34607
0.338585
0.331002
0.323336
0.315599
0.3078
0.299476
0.291271
0.283095
0.274867
0.266573
0.25987
0.24943
0.24059
0.231529
0.221996
0.210691
0.210976
0.19875
0.190318
0.180696
0.17157
0.162629
0.153739
0.144826
0.135833
0.126815
0.117814
0.108785
0.0998444
0.0908892
0.0819452
0.0731197
0.0641266
0.0545205
0.045887
0.0372013
0.0285888
0.0197119
0.011022
0.00228453
-0.00740868
-0.0167007
-0.0167007
0
0
0.472355
0.45606
0.442249
0.431014
0.422497
0.416415
0.411423
0.406658
0.40121
0.394111
0.387582
0.381165
0.374686
0.36791
0.360973
0.353984
0.346059
0.338804
0.331269
0.323586
0.31584
0.308208
0.299477
0.291439
0.283331
0.275085
0.266716
0.258045
0.249427
0.240673
0.231647
0.222553
0.213493
0.207372
0.198418
0.189673
0.180557
0.171517
0.162559
0.153647
0.144716
0.135611
0.126571
0.117573
0.108572
0.0996048
0.0906101
0.0815136
0.0637599
0.0639532
0.0539403
0.0458184
0.0371674
0.0284697
0.0196482
0.0109674
0.00252742
-0.00786046
-0.0168108
-0.0168108
0
0
0.472355
0.456064
0.44227
0.431066
0.422573
0.41644
0.41155
0.406588
0.400977
0.394551
0.388039
0.38153
0.374961
0.368222
0.361313
0.354233
0.346757
0.339255
0.331611
0.32383
0.315878
0.307534
0.300246
0.292099
0.283842
0.275393
0.266792
0.258286
0.249644
0.241034
0.231719
0.223077
0.214498
0.206481
0.197917
0.189184
0.180289
0.171356
0.162442
0.153571
0.144702
0.135366
0.126336
0.117392
0.108438
0.0994799
0.0905108
0.0815288
0.0725383
0.0631087
0.0555944
0.0460528
0.0371163
0.028258
0.0193203
0.0102297
0.000915818
-0.00637415
-0.0160846
-0.0160846
0
0
0.47235
0.456057
0.442273
0.431097
0.422647
0.416597
0.411978
0.406697
0.401089
0.394943
0.388557
0.382066
0.375459
0.368701
0.361783
0.354717
0.347339
0.339738
0.332002
0.324164
0.316256
0.308045
0.30051
0.292259
0.284107
0.275559
0.266911
0.258318
0.2497
0.241042
0.232184
0.223482
0.214866
0.206342
0.197693
0.188934
0.180084
0.171188
0.162287
0.153441
0.14476
0.135039
0.126196
0.117306
0.108365
0.0994081
0.0904548
0.0815088
0.0725563
0.0635478
0.0551257
0.0460656
0.0370754
0.0281449
0.0192074
0.0102382
0.00130393
-0.00694731
-0.0162521
-0.0162521
0
0
0.472338
0.456026
0.442243
0.431104
0.422703
0.416754
0.41262
0.406673
0.401459
0.395561
0.389336
0.382836
0.376168
0.369339
0.362372
0.355415
0.347984
0.340225
0.3324
0.324508
0.316626
0.308573
0.300485
0.292254
0.284064
0.275329
0.266725
0.258214
0.249688
0.241099
0.232421
0.223736
0.215055
0.206365
0.19762
0.188811
0.179944
0.171032
0.162072
0.153012
0.143741
0.135619
0.126504
0.11739
0.108343
0.0993513
0.0903971
0.0814669
0.072549
0.0636498
0.0548734
0.0459472
0.0370036
0.0280852
0.0192039
0.0104215
0.00133693
-0.0072808
-0.0165036
-0.0165036
0
0
0.472311
0.455941
0.442166
0.431092
0.422707
0.416553
0.41116
0.408023
0.402896
0.40121
0.390602
0.383869
0.377025
0.370066
0.362854
0.356193
0.348502
0.340536
0.332707
0.324786
0.317064
0.309052
0.300778
0.292083
0.252685
0.274382
0.266401
0.258178
0.249778
0.241248
0.23262
0.223932
0.215199
0.206427
0.197609
0.188749
0.179849
0.170916
0.16195
0.15294
0.143925
0.135276
0.126321
0.117268
0.108236
0.0992538
0.0903155
0.0814054
0.0725099
0.0636255
0.054756
0.0458501
0.0369332
0.0280328
0.0191636
0.0103295
0.00144257
-0.0073963
-0.0166457
-0.0166457
0
0
0.472266
0.455714
0.444901
0.431138
0.422847
0.416856
0.412107
0.408157
0.403271
0.397393
0.39109
0.384493
0.377711
0.370863
0.362449
0.356146
0.347924
0.34845
0.33283
0.324919
0.317599
0.309536
0.30133
0.293046
0.284955
0.276173
0.267473
0.258851
0.250233
0.241583
0.232887
0.224142
0.215349
0.206507
0.197625
0.188712
0.179776
0.170823
0.161867
0.152921
0.143998
0.135103
0.126101
0.117062
0.108058
0.099109
0.0902068
0.0813313
0.0724624
0.0635871
0.0546979
0.045789
0.0368774
0.0279863
0.019118
0.0102637
0.00141856
-0.00746885
-0.0165036
-0.0167245
0
0
0.472327
0.454946
0.441496
0.430886
0.422927
0.41725
0.412869
0.408738
0.403895
0.398185
0.391938
0.385355
0.378475
0.371112
0.362157
0.2194
0.344089
0.338558
0.332339
0.32565
0.317556
0.309724
0.301721
0.293652
0.285297
0.276723
0.268073
0.259386
0.250676
0.241939
0.233173
0.224368
0.215514
0.206597
0.197646
0.188679
0.1797
0.170719
0.161761
0.152867
0.144009
0.134988
0.125876
0.116799
0.107815
0.0989164
0.0900742
0.0812562
0.0724296
0.0635742
0.0546814
0.0457587
0.0368356
0.0279504
0.0190737
0.0101965
0.00131719
-0.0101982
-0.0168597
-0.0168597
0
0
0.473417
0.452614
0.440889
0.430831
0.423225
0.417826
0.413678
0.409626
0.404882
0.399293
0.393109
0.386556
0.379712
0.372583
0.36525
0.359171
0.350633
0.342391
0.334541
0.326787
0.318656
0.31052
0.302371
0.294299
0.285512
0.277058
0.268479
0.259799
0.25105
0.242266
0.233453
0.224607
0.215704
0.20669
0.197656
0.18863
0.179601
0.170566
0.161562
0.152706
0.14398
0.134772
0.125498
0.116388
0.107465
0.0986627
0.0899213
0.0811976
0.0724384
0.063615
0.0547175
0.0457614
0.0368018
0.0279309
0.0175955
0.0101418
0.00131124
-0.00759337
-0.0177438
-0.0169008
0
0
0.472459
0.45517
0.441944
0.431621
0.424037
0.418776
0.414784
0.410885
0.406256
0.400744
0.394602
0.388064
0.381247
0.374236
0.367136
0.360297
0.352462
0.344308
0.33614
0.327973
0.319699
0.31136
0.302927
0.29428
0.286302
0.277708
0.268998
0.260228
0.251403
0.242571
0.233727
0.224867
0.21595
0.206765
0.197636
0.18856
0.179476
0.170345
0.161145
0.152207
0.143693
0.134035
0.124628
0.115633
0.106928
0.0983338
0.0897587
0.081187
0.0725377
0.0637599
0.0548449
0.0458209
0.0367804
0.0280274
0.0190842
0.0101387
0.00127023
-0.00763852
-0.0168753
-0.0168753
0
0
0.47237
0.456085
0.442842
0.432495
0.422875
0.419942
0.416371
0.412821
0.408119
0.402603
0.396456
0.389885
0.382987
0.370535
0.368571
0.361267
0.353523
0.345483
0.337295
0.32902
0.32066
0.312193
0.303646
0.295045
0.286645
0.278063
0.269358
0.260586
0.251676
0.242843
0.233983
0.225143
0.216306
0.206769
0.197582
0.188505
0.179372
0.170157
0.160294
0.150798
0.142031
0.131767
0.122808
0.114353
0.106145
0.0979809
0.0896262
0.0812669
0.0728466
0.0641256
0.0551523
0.0460142
0.0367666
0.0281433
0.0190266
0.0100432
0.00116743
-0.00773913
-0.0169568
-0.0169568
0
0
0.472452
0.456543
0.443525
0.433404
0.426199
0.421422
0.417954
0.414437
0.410109
0.404789
0.398706
0.392078
0.385082
0.377845
0.370339
0.362645
0.354727
0.346616
0.338369
0.330028
0.321612
0.313009
0.304353
0.295704
0.2871
0.278429
0.269689
0.260884
0.252
0.2431
0.23419
0.225336
0.216739
0.206605
0.197649
0.188594
0.179364
0.169858
0.15967
0.148095
0.0227464
0.127152
0.120525
0.112789
0.105084
0.0979438
0.0896168
0.081332
0.0737391
0.0650021
0.0557932
0.0465312
0.0373938
0.027665
0.0187112
0.00983224
0.000999413
-0.007881
-0.0170687
-0.0170687
0
0
0.472541
0.456888
0.444168
0.434384
0.427537
0.423153
0.420076
0.416917
0.412813
0.40757
0.401459
0.394642
0.387407
0.379891
0.372134
0.364185
0.356071
0.34782
0.339466
0.331042
0.322578
0.31375
0.304972
0.296269