# vtk DataFile Version 2.0
FlowField
ASCII
DATASET STRUCTURED_GRID
DIMENSIONS 62 47 32 
POINTS 93248 double
0 0 0
0.01 0 0
0.02 0 0
0.03 0 0
0.04 0 0
0.05 0 0
0.06 0 0
0.07 0 0
0.08 0 0
0.09 0 0
0.1 0 0
0.11 0 0
0.12 0 0
0.13 0 0
0.14 0 0
0.15 0 0
0.16 0 0
0.17 0 0
0.18 0 0
0.19 0 0
0.2 0 0
0.21 0 0
0.22 0 0
0.23 0 0
0.24 0 0
0.25 0 0
0.26 0 0
0.27 0 0
0.28 0 0
0.29 0 0
0.3 0 0
0.31 0 0
0.32 0 0
0.33 0 0
0.34 0 0
0.35 0 0
0.36 0 0
0.37 0 0
0.38 0 0
0.39 0 0
0.4 0 0
0.41 0 0
0.42 0 0
0.43 0 0
0.44 0 0
0.45 0 0
0.46 0 0
0.47 0 0
0.48 0 0
0.49 0 0
0.5 0 0
0.51 0 0
0.52 0 0
0.53 0 0
0.54 0 0
0.55 0 0
0.56 0 0
0.57 0 0
0.58 0 0
0.59 0 0
0.6 0 0
0.61 0 0
0 0.01 0
0.01 0.01 0
0.02 0.01 0
0.03 0.01 0
0.04 0.01 0
0.05 0.01 0
0.06 0.01 0
0.07 0.01 0
0.08 0.01 0
0.09 0.01 0
0.1 0.01 0
0.11 0.01 0
0.12 0.01 0
0.13 0.01 0
0.14 0.01 0
0.15 0.01 0
0.16 0.01 0
0.17 0.01 0
0.18 0.01 0
0.19 0.01 0
0.2 0.01 0
0.21 0.01 0
0.22 0.01 0
0.23 0.01 0
0.24 0.01 0
0.25 0.01 0
0.26 0.01 0
0.27 0.01 0
0.28 0.01 0
0.29 0.01 0
0.3 0.01 0
0.31 0.01 0
0.32 0.01 0
0.33 0.01 0
0.34 0.01 0
0.35 0.01 0
0.36 0.01 0
0.37 0.01 0
0.38 0.01 0
0.39 0.01 0
0.4 0.01 0
0.41 0.01 0
0.42 0.01 0
0.43 0.01 0
0.44 0.01 0
0.45 0.01 0
0.46 0.01 0
0.47 0.01 0
0.48 0.01 0
0.49 0.01 0
0.5 0.01 0
0.51 0.01 0
0.52 0.01 0
0.53 0.01 0
0.54 0.01 0
0.55 0.01 0
0.56 0.01 0
0.57 0.01 0
0.58 0.01 0
0.59 0.01 0
0.6 0.01 0
0.61 0.01 0
0 0.02 0
0.01 0.02 0
0.02 0.02 0
0.03 0.02 0
0.04 0.02 0
0.05 0.02 0
0.06 0.02 0
0.07 0.02 0
0.08 0.02 0
0.09 0.02 0
0.1 0.02 0
0.11 0.02 0
0.12 0.02 0
0.13 0.02 0
0.14 0.02 0
0.15 0.02 0
0.16 0.02 0
0.17 0.02 0
0.18 0.02 0
0.19 0.02 0
0.2 0.02 0
0.21 0.02 0
0.22 0.02 0
0.23 0.02 0
0.24 0.02 0
0.25 0.02 0
0.26 0.02 0
0.27 0.02 0
0.28 0.02 0
0.29 0.02 0
0.3 0.02 0
0.31 0.02 0
0.32 0.02 0
0.33 0.02 0
0.34 0.02 0
0.35 0.02 0
0.36 0.02 0
0.37 0.02 0
0.38 0.02 0
0.39 0.02 0
0.4 0.02 0
0.41 0.02 0
0.42 0.02 0
0.43 0.02 0
0.44 0.02 0
0.45 0.02 0
0.46 0.02 0
0.47 0.02 0
0.48 0.02 0
0.49 0.02 0
0.5 0.02 0
0.51 0.02 0
0.52 0.02 0
0.53 0.02 0
0.54 0.02 0
0.55 0.02 0
0.56 0.02 0
0.57 0.02 0
0.58 0.02 0
0.59 0.02 0
0.6 0.02 0
0.61 0.02 0
0 0.03 0
0.01 0.03 0
0.02 0.03 0
0.03 0.03 0
0.04 0.03 0
0.05 0.03 0
0.06 0.03 0
0.07 0.03 0
0.08 0.03 0
0.09 0.03 0
0.1 0.03 0
0.11 0.03 0
0.12 0.03 0
0.13 0.03 0
0.14 0.03 0
0.15 0.03 0
0.16 0.03 0
0.17 0.03 0
0.18 0.03 0
0.19 0.03 0
0.2 0.03 0
0.21 0.03 0
0.22 0.03 0
0.23 0.03 0
0.24 0.03 0
0.25 0.03 0
0.26 0.03 0
0.27 0.03 0
0.28 0.03 0
0.29 0.03 0
0.3 0.03 0
0.31 0.03 0
0.32 0.03 0
0.33 0.03 0
0.34 0.03 0
0.35 0.03 0
0.36 0.03 0
0.37 0.03 0
0.38 0.03 0
0.39 0.03 0
0.4 0.03 0
0.41 0.03 0
0.42 0.03 0
0.43 0.03 0
0.44 0.03 0
0.45 0.03 0
0.46 0.03 0
0.47 0.03 0
0.48 0.03 0
0.49 0.03 0
0.5 0.03 0
0.51 0.03 0
0.52 0.03 0
0.53 0.03 0
0.54 0.03 0
0.55 0.03 0
0.56 0.03 0
0.57 0.03 0
0.58 0.03 0
0.59 0.03 0
0.6 0.03 0
0.61 0.03 0
0 0.04 0
0.01 0.04 0
0.02 0.04 0
0.03 0.04 0
0.04 0.04 0
0.05 0.04 0
0.06 0.04 0
0.07 0.04 0
0.08 0.04 0
0.09 0.04 0
0.1 0.04 0
0.11 0.04 0
0.12 0.04 0
0.13 0.04 0
0.14 0.04 0
0.15 0.04 0
0.16 0.04 0
0.17 0.04 0
0.18 0.04 0
0.19 0.04 0
0.2 0.04 0
0.21 0.04 0
0.22 0.04 0
0.23 0.04 0
0.24 0.04 0
0.25 0.04 0
0.26 0.04 0
0.27 0.04 0
0.28 0.04 0
0.29 0.04 0
0.3 0.04 0
0.31 0.04 0
0.32 0.04 0
0.33 0.04 0
0.34 0.04 0
0.35 0.04 0
0.36 0.04 0
0.37 0.04 0
0.38 0.04 0
0.39 0.04 0
0.4 0.04 0
0.41 0.04 0
0.42 0.04 0
0.43 0.04 0
0.44 0.04 0
0.45 0.04 0
0.46 0.04 0
0.47 0.04 0
0.48 0.04 0
0.49 0.04 0
0.5 0.04 0
0.51 0.04 0
0.52 0.04 0
0.53 0.04 0
0.54 0.04 0
0.55 0.04 0
0.56 0.04 0
0.57 0.04 0
0.58 0.04 0
0.59 0.04 0
0.6 0.04 0
0.61 0.04 0
0 0.05 0
0.01 0.05 0
0.02 0.05 0
0.03 0.05 0
0.04 0.05 0
0.05 0.05 0
0.06 0.05 0
0.07 0.05 0
0.08 0.05 0
0.09 0.05 0
0.1 0.05 0
0.11 0.05 0
0.12 0.05 0
0.13 0.05 0
0.14 0.05 0
0.15 0.05 0
0.16 0.05 0
0.17 0.05 0
0.18 0.05 0
0.19 0.05 0
0.2 0.05 0
0.21 0.05 0
0.22 0.05 0
0.23 0.05 0
0.24 0.05 0
0.25 0.05 0
0.26 0.05 0
0.27 0.05 0
0.28 0.05 0
0.29 0.05 0
0.3 0.05 0
0.31 0.05 0
0.32 0.05 0
0.33 0.05 0
0.34 0.05 0
0.35 0.05 0
0.36 0.05 0
0.37 0.05 0
0.38 0.05 0
0.39 0.05 0
0.4 0.05 0
0.41 0.05 0
0.42 0.05 0
0.43 0.05 0
0.44 0.05 0
0.45 0.05 0
0.46 0.05 0
0.47 0.05 0
0.48 0.05 0
0.49 0.05 0
0.5 0.05 0
0.51 0.05 0
0.52 0.05 0
0.53 0.05 0
0.54 0.05 0
0.55 0.05 0
0.56 0.05 0
0.57 0.05 0
0.58 0.05 0
0.59 0.05 0
0.6 0.05 0
0.61 0.05 0
0 0.06 0
0.01 0.06 0
0.02 0.06 0
0.03 0.06 0
0.04 0.06 0
0.05 0.06 0
0.06 0.06 0
0.07 0.06 0
0.08 0.06 0
0.09 0.06 0
0.1 0.06 0
0.11 0.06 0
0.12 0.06 0
0.13 0.06 0
0.14 0.06 0
0.15 0.06 0
0.16 0.06 0
0.17 0.06 0
0.18 0.06 0
0.19 0.06 0
0.2 0.06 0
0.21 0.06 0
0.22 0.06 0
0.23 0.06 0
0.24 0.06 0
0.25 0.06 0
0.26 0.06 0
0.27 0.06 0
0.28 0.06 0
0.29 0.06 0
0.3 0.06 0
0.31 0.06 0
0.32 0.06 0
0.33 0.06 0
0.34 0.06 0
0.35 0.06 0
0.36 0.06 0
0.37 0.06 0
0.38 0.06 0
0.39 0.06 0
0.4 0.06 0
0.41 0.06 0
0.42 0.06 0
0.43 0.06 0
0.44 0.06 0
0.45 0.06 0
0.46 0.06 0
0.47 0.06 0
0.48 0.06 0
0.49 0.06 0
0.5 0.06 0
0.51 0.06 0
0.52 0.06 0
0.53 0.06 0
0.54 0.06 0
0.55 0.06 0
0.56 0.06 0
0.57 0.06 0
0.58 0.06 0
0.59 0.06 0
0.6 0.06 0
0.61 0.06 0
0 0.07 0
0.01 0.07 0
0.02 0.07 0
0.03 0.07 0
0.04 0.07 0
0.05 0.07 0
0.06 0.07 0
0.07 0.07 0
0.08 0.07 0
0.09 0.07 0
0.1 0.07 0
0.11 0.07 0
0.12 0.07 0
0.13 0.07 0
0.14 0.07 0
0.15 0.07 0
0.16 0.07 0
0.17 0.07 0
0.18 0.07 0
0.19 0.07 0
0.2 0.07 0
0.21 0.07 0
0.22 0.07 0
0.23 0.07 0
0.24 0.07 0
0.25 0.07 0
0.26 0.07 0
0.27 0.07 0
0.28 0.07 0
0.29 0.07 0
0.3 0.07 0
0.31 0.07 0
0.32 0.07 0
0.33 0.07 0
0.34 0.07 0
0.35 0.07 0
0.36 0.07 0
0.37 0.07 0
0.38 0.07 0
0.39 0.07 0
0.4 0.07 0
0.41 0.07 0
0.42 0.07 0
0.43 0.07 0
0.44 0.07 0
0.45 0.07 0
0.46 0.07 0
0.47 0.07 0
0.48 0.07 0
0.49 0.07 0
0.5 0.07 0
0.51 0.07 0
0.52 0.07 0
0.53 0.07 0
0.54 0.07 0
0.55 0.07 0
0.56 0.07 0
0.57 0.07 0
0.58 0.07 0
0.59 0.07 0
0.6 0.07 0
0.61 0.07 0
0 0.08 0
0.01 0.08 0
0.02 0.08 0
0.03 0.08 0
0.04 0.08 0
0.05 0.08 0
0.06 0.08 0
0.07 0.08 0
0.08 0.08 0
0.09 0.08 0
0.1 0.08 0
0.11 0.08 0
0.12 0.08 0
0.13 0.08 0
0.14 0.08 0
0.15 0.08 0
0.16 0.08 0
0.17 0.08 0
0.18 0.08 0
0.19 0.08 0
0.2 0.08 0
0.21 0.08 0
0.22 0.08 0
0.23 0.08 0
0.24 0.08 0
0.25 0.08 0
0.26 0.08 0
0.27 0.08 0
0.28 0.08 0
0.29 0.08 0
0.3 0.08 0
0.31 0.08 0
0.32 0.08 0
0.33 0.08 0
0.34 0.08 0
0.35 0.08 0
0.36 0.08 0
0.37 0.08 0
0.38 0.08 0
0.39 0.08 0
0.4 0.08 0
0.41 0.08 0
0.42 0.08 0
0.43 0.08 0
0.44 0.08 0
0.45 0.08 0
0.46 0.08 0
0.47 0.08 0
0.48 0.08 0
0.49 0.08 0
0.5 0.08 0
0.51 0.08 0
0.52 0.08 0
0.53 0.08 0
0.54 0.08 0
0.55 0.08 0
0.56 0.08 0
0.57 0.08 0
0.58 0.08 0
0.59 0.08 0
0.6 0.08 0
0.61 0.08 0
0 0.09 0
0.01 0.09 0
0.02 0.09 0
0.03 0.09 0
0.04 0.09 0
0.05 0.09 0
0.06 0.09 0
0.07 0.09 0
0.08 0.09 0
0.09 0.09 0
0.1 0.09 0
0.11 0.09 0
0.12 0.09 0
0.13 0.09 0
0.14 0.09 0
0.15 0.09 0
0.16 0.09 0
0.17 0.09 0
0.18 0.09 0
0.19 0.09 0
0.2 0.09 0
0.21 0.09 0
0.22 0.09 0
0.23 0.09 0
0.24 0.09 0
0.25 0.09 0
0.26 0.09 0
0.27 0.09 0
0.28 0.09 0
0.29 0.09 0
0.3 0.09 0
0.31 0.09 0
0.32 0.09 0
0.33 0.09 0
0.34 0.09 0
0.35 0.09 0
0.36 0.09 0
0.37 0.09 0
0.38 0.09 0
0.39 0.09 0
0.4 0.09 0
0.41 0.09 0
0.42 0.09 0
0.43 0.09 0
0.44 0.09 0
0.45 0.09 0
0.46 0.09 0
0.47 0.09 0
0.48 0.09 0
0.49 0.09 0
0.5 0.09 0
0.51 0.09 0
0.52 0.09 0
0.53 0.09 0
0.54 0.09 0
0.55 0.09 0
0.56 0.09 0
0.57 0.09 0
0.58 0.09 0
0.59 0.09 0
0.6 0.09 0
0.61 0.09 0
0 0.1 0
0.01 0.1 0
0.02 0.1 0
0.03 0.1 0
0.04 0.1 0
0.05 0.1 0
0.06 0.1 0
0.07 0.1 0
0.08 0.1 0
0.09 0.1 0
0.1 0.1 0
0.11 0.1 0
0.12 0.1 0
0.13 0.1 0
0.14 0.1 0
0.15 0.1 0
0.16 0.1 0
0.17 0.1 0
0.18 0.1 0
0.19 0.1 0
0.2 0.1 0
0.21 0.1 0
0.22 0.1 0
0.23 0.1 0
0.24 0.1 0
0.25 0.1 0
0.26 0.1 0
0.27 0.1 0
0.28 0.1 0
0.29 0.1 0
0.3 0.1 0
0.31 0.1 0
0.32 0.1 0
0.33 0.1 0
0.34 0.1 0
0.35 0.1 0
0.36 0.1 0
0.37 0.1 0
0.38 0.1 0
0.39 0.1 0
0.4 0.1 0
0.41 0.1 0
0.42 0.1 0
0.43 0.1 0
0.44 0.1 0
0.45 0.1 0
0.46 0.1 0
0.47 0.1 0
0.48 0.1 0
0.49 0.1 0
0.5 0.1 0
0.51 0.1 0
0.52 0.1 0
0.53 0.1 0
0.54 0.1 0
0.55 0.1 0
0.56 0.1 0
0.57 0.1 0
0.58 0.1 0
0.59 0.1 0
0.6 0.1 0
0.61 0.1 0
0 0.11 0
0.01 0.11 0
0.02 0.11 0
0.03 0.11 0
0.04 0.11 0
0.05 0.11 0
0.06 0.11 0
0.07 0.11 0
0.08 0.11 0
0.09 0.11 0
0.1 0.11 0
0.11 0.11 0
0.12 0.11 0
0.13 0.11 0
0.14 0.11 0
0.15 0.11 0
0.16 0.11 0
0.17 0.11 0
0.18 0.11 0
0.19 0.11 0
0.2 0.11 0
0.21 0.11 0
0.22 0.11 0
0.23 0.11 0
0.24 0.11 0
0.25 0.11 0
0.26 0.11 0
0.27 0.11 0
0.28 0.11 0
0.29 0.11 0
0.3 0.11 0
0.31 0.11 0
0.32 0.11 0
0.33 0.11 0
0.34 0.11 0
0.35 0.11 0
0.36 0.11 0
0.37 0.11 0
0.38 0.11 0
0.39 0.11 0
0.4 0.11 0
0.41 0.11 0
0.42 0.11 0
0.43 0.11 0
0.44 0.11 0
0.45 0.11 0
0.46 0.11 0
0.47 0.11 0
0.48 0.11 0
0.49 0.11 0
0.5 0.11 0
0.51 0.11 0
0.52 0.11 0
0.53 0.11 0
0.54 0.11 0
0.55 0.11 0
0.56 0.11 0
0.57 0.11 0
0.58 0.11 0
0.59 0.11 0
0.6 0.11 0
0.61 0.11 0
0 0.12 0
0.01 0.12 0
0.02 0.12 0
0.03 0.12 0
0.04 0.12 0
0.05 0.12 0
0.06 0.12 0
0.07 0.12 0
0.08 0.12 0
0.09 0.12 0
0.1 0.12 0
0.11 0.12 0
0.12 0.12 0
0.13 0.12 0
0.14 0.12 0
0.15 0.12 0
0.16 0.12 0
0.17 0.12 0
0.18 0.12 0
0.19 0.12 0
0.2 0.12 0
0.21 0.12 0
0.22 0.12 0
0.23 0.12 0
0.24 0.12 0
0.25 0.12 0
0.26 0.12 0
0.27 0.12 0
0.28 0.12 0
0.29 0.12 0
0.3 0.12 0
0.31 0.12 0
0.32 0.12 0
0.33 0.12 0
0.34 0.12 0
0.35 0.12 0
0.36 0.12 0
0.37 0.12 0
0.38 0.12 0
0.39 0.12 0
0.4 0.12 0
0.41 0.12 0
0.42 0.12 0
0.43 0.12 0
0.44 0.12 0
0.45 0.12 0
0.46 0.12 0
0.47 0.12 0
0.48 0.12 0
0.49 0.12 0
0.5 0.12 0
0.51 0.12 0
0.52 0.12 0
0.53 0.12 0
0.54 0.12 0
0.55 0.12 0
0.56 0.12 0
0.57 0.12 0
0.58 0.12 0
0.59 0.12 0
0.6 0.12 0
0.61 0.12 0
0 0.13 0
0.01 0.13 0
0.02 0.13 0
0.03 0.13 0
0.04 0.13 0
0.05 0.13 0
0.06 0.13 0
0.07 0.13 0
0.08 0.13 0
0.09 0.13 0
0.1 0.13 0
0.11 0.13 0
0.12 0.13 0
0.13 0.13 0
0.14 0.13 0
0.15 0.13 0
0.16 0.13 0
0.17 0.13 0
0.18 0.13 0
0.19 0.13 0
0.2 0.13 0
0.21 0.13 0
0.22 0.13 0
0.23 0.13 0
0.24 0.13 0
0.25 0.13 0
0.26 0.13 0
0.27 0.13 0
0.28 0.13 0
0.29 0.13 0
0.3 0.13 0
0.31 0.13 0
0.32 0.13 0
0.33 0.13 0
0.34 0.13 0
0.35 0.13 0
0.36 0.13 0
0.37 0.13 0
0.38 0.13 0
0.39 0.13 0
0.4 0.13 0
0.41 0.13 0
0.42 0.13 0
0.43 0.13 0
0.44 0.13 0
0.45 0.13 0
0.46 0.13 0
0.47 0.13 0
0.48 0.13 0
[...]
POINT_DATA 93248

SCALARS v double
LOOKUP_TABLE default
0
0
0
0
0
0
0
0
0
0
0
0
0
0
0
0
0
0
0
0
0
0
0
0
0
0
0
0
0
0
0
0
0
0
0
0
0
0
-0.00826087
0
0
0
0
0
-0.00836763
0
0
0
0
0
0
0
0
0
0
0
0
0
0
0
0
0
0
0.0171862
-0.0191256
-0.00343865
-0.00524243
-0.00607983
0
-0.0067774
-0.00693925
-0.0070477
-0.00712395
-0.00717968
-0.00722174
-0.00725435
-0.00728023
-0.0073012
-0.0073185
-0.00733302
-0.0073454
-0.00735609
-0.00736547
-0.00737378
-0.00738123
-0.00738799
-0.00739418
-0.00739989
-0.0074052
-0.00741018
-0.00741488
-0.00741933
-0.00742356
-0.0074276
-0.00743148
-0.0074352
-0.00743877
-0.0074422
-0.00708105
-0.00744869
-0.00745175
-0.00745468
-0.0074575
-0.0070705
-0.00746274
-0.00746517
-0.00746747
-0.00746963
-0.00757194
-0.00747352
-0.00724575
-0.00747679
-0.00747816
-0.00747934
-0.0074803
-0.00748098
-0.00714682
-0.00748115
-0.00732513
-0.00747753
-0.00747118
-0.00745476
-0.00667983
0
0
0.0089219
0.00123115
-0.00195737
-0.00384549
-0.00494984
-0.00561805
-0.00604153
-0.00632258
-0.006517
-0.00665641
-0.00675947
-0.00800567
-0.00689835
-0.00694636
-0.00656001
-0.00701654
-0.00704268
-0.00706459
-0.00708318
-0.00795403
-0.00711293
-0.007125
-0.00713565
-0.00714514
-0.00715365
-0.00716136
-0.00716838
-0.00717483
-0.00718078
-0.0071863
-0.00719146
-0.00737731
-0.00720086
-0.00720515
-0.00720922
-0.00721308
-0.00721675
-0.00722022
-0.00722353
-0.00722666
-0.00722963
-0.00723244
-0.00723508
-0.00723756
-0.00723988
-0.00724202
-0.00724398
-0.00724575
-0.00724732
-0.00724867
-0.00724977
-0.00725058
-0.00725102
-0.00725097
-0.00725024
-0.00724844
-0.00743526
-0.00723821
-0.00722659
-0.00647607
0
0
0.0050106
-2.44874e-05
-0.00191242
-0.00336821
-0.00439186
-0.00509606
-0.00558391
-0.00592832
-0.00617707
-0.00636093
-0.00649979
-0.00660675
-0.0066906
-0.00675738
-0.0068113
-0.00685541
0
-0.00692239
-0.00694813
-0.00697005
-0.00698887
-0.00700518
-0.00701941
-0.00703192
-0.00704301
-0.0070529
-0.00706179
-0.00706982
-0.00707713
-0.00708381
-0.00708997
-0.00709566
-0.00710094
-0.00710587
-0.00711048
-0.00711481
-0.00711887
-0.00712269
-0.0071263
-0.00712969
-0.00713288
-0.00713587
-0.00713867
-0.00714128
-0.0071437
-0.00714592
-0.00714794
-0.00714974
-0.00715131
-0.00715264
-0.00715367
-0.00715437
-0.00715466
-0.00715442
-0.00715348
-0.00715157
-0.0071483
-0.00714326
-0.00713644
-0.00638897
0
0
0.00284797
-0.00125038
-0.00235435
-0.0033778
-0.00420805
-0.00484513
-0.00532442
-0.00568438
-0.00595669
-0.00616507
-0.00632661
-0.00645352
-0.00655448
-0.00663578
-0.00670195
-0.00675637
-0.00680154
-0.00683935
-0.00687127
-0.00689841
-0.00692166
-0.00694172
-0.00695913
-0.00697435
-0.00698774
-0.00699959
-0.00701014
-0.0070196
-0.00702812
-0.00703585
-0.00704289
-0.00704933
-0.00705527
-0.00706075
-0.00706583
-0.00707056
-0.00707497
-0.0070791
-0.00708295
-0.00708656
-0.00708993
-0.00709308
-0.00709601
-0.00709873
-0.00710123
-0.00710352
-0.00710558
-0.00710741
-0.00710899
-0.0071103
-0.0071113
-0.00711195
-0.00711219
-0.00711193
-0.00711105
-0.0071094
-0.00710686
-0.00710343
-0.00709951
-0.00634874
0
0
0.00149668
-0.0022347
-0.00290232
-0.00360609
-0.00424293
-0.00477748
-0.00520975
-0.00555356
-0.0058257
-0.00604149
-0.00621351
-0.00635164
-0.00646344
-0.00655468
-0.00662973
-0.00669193
-0.00674387
-0.00678754
-0.00682448
-0.00685595
-0.0068829
-0.00690612
-0.00692625
-0.00694379
-0.00695916
-0.00697271
-0.00698471
-0.0069954
-0.00700498
-0.00701361
-0.00702142
-0.00702853
-0.00703502
-0.00704098
-0.00704648
-0.00705156
-0.00705627
-0.00706064
-0.00706471
-0.0070685
-0.00707203
-0.00707531
-0.00707835
-0.00708116
-0.00708373
0
-0.00708818
-0.00709004
-0.00709164
-0.00709296
-0.00709397
-0.00709463
-0.0070949
-0.00709473
-0.00709404
-0.00709279
-0.00709098
-0.00708873
-0.00708643
-0.00633025
-0.00890961
0
0.000571947
-0.00300504
-0.00342769
-0.00391485
-0.00439363
-0.00482561
-0.00519703
0
-0.00576455
-0.00597514
-0.00614776
-0.00628954
-0.00640641
-0.0065032
-0.00658376
-0.00665116
-0.00670786
-0.0067558
-0.00679654
-0.00683133
-0.00686119
-0.00688694
-0.00690925
-0.00692867
-0.00694567
-0.00696061
-0.00697381
-0.00698553
-0.00699599
-0.00700536
-0.00701382
-0.00702147
-0.00763504
-0.00703479
-0.00704062
-0.00704599
-0.00705095
-0.00705553
-0.00705978
-0.00706372
-0.00706738
-0.00707076
-0.0070739
-0.00707678
-0.00707942
-0.00708181
-0.00708396
-0.00708586
-0.00708748
-0.00708883
-0.00708988
-0.00709059
-0.00709095
-0.00709092
-0.00709048
-0.00708962
-0.0070884
-0.00708696
-0.00708557
-0.0063232
0
0
-0.000104887
-0.00361656
-0.00389653
-0.00423995
-0.00459907
-0.00494224
-0.00525277
-0.00552446
-0.00575737
-0.00595467
-0.00612077
-0.00626025
-0.00637735
-0.00647582
-0.0065588
-0.00662896
-0.00668845
-0.00673909
-0.00678235
-0.00681945
-0.00685137
-0.00687896
-0.00690289
-0.00692373
-0.00694196
-0.00695796
-0.00697209
-0.0069846
-0.00699574
-0.0070057
-0.00701465
-0.00702273
-0.00703005
-0.00703672
-0.00704282
-0.00704841
-0.00705355
-0.0070583
-0.00706269
-0.00706675
-0.0070705
-0.00707398
-0.00707718
-0.00708012
-0.00708282
-0.00708526
-0.00708745
-0.00708938
-0.00709105
-0.00709244
-0.00709355
-0.00709434
-0.00709481
-0.00709495
-0.00709475
-0.00709423
-0.00709347
-0.00741411
-0.0070917
-0.00632281
0
0
-0.000626076
-0.00411395
-0.00430702
-0.00455445
-0.00482553
-0.0050966
-0.00535242
-0.00558486
-0.00579085
-0.00597045
-0.00612543
-0.00625835
-0.00646344
-0.00646892
-0.00655169
-0.00662239
-0.00668288
-0.00673473
-0.00677929
-0.00681767
-0.00685083
-0.00687955
-0.00690452
-0.00692629
-0.00695796
-0.00696207
-0.00697682
-0.00698988
-0.00700149
-0.00701186
-0.00702115
-0.00702953
-0.0070371
-0.00704398
-0.00705026
-0.00705601
-0.00706128
-0.00706614
-0.00707062
-0.00707476
-0.00707859
-0.00708212
-0.00708538
-0.00708837
-0.00709111
-0.00709359
-0.00709582
-0.0070978
-0.00709951
-0.00710096
-0.00710212
-0.00710301
-0.0071036
-0.0071039
-0.00710392
-0.00710368
-0.00710325
-0.00710271
-0.00710217
-0.00632661
0
0
-0.00104362
-0.00452889
-0.00466663
-0.00484877
-0.00505547
-0.00526968
-0.0054789
-0.00567515
-0.00585415
-0.00601427
-0.00615559
-0.00627917
-0.0063866
-0.00647963
-0.00656001
-0.0066294
-0.0066893
-0.00674102
-0.00678574
-0.00682445
-0.00703937
-0.00688721
-0.00691264
-0.00693485
-0.00695431
-0.00697141
-0.00698649
-0.00699984
-0.0070117
-0.00702229
-0.00703177
-0.0070403
-0.00704801
-0.00705501
-0.00706138
-0.00706721
-0.00707255
-0.00707747
-0.007082
-0.00708618
-0.00709005
-0.00709362
-0.00709691
-0.00709993
-0.0071027
-0.00710522
-0.00710748
-0.00710949
-0.00711126
-0.00711276
-0.007114
-0.00711498
-0.00711569
-0.00711614
-0.00711634
-0.00711633
-0.00711614
-0.00711585
-0.00711552
-0.0063332
0
0
-0.00138896
-0.00488328
-0.00498433
-0.00512104
-0.00528038
-0.00545023
-0.00562082
-0.00578516
-0.0059388
-0.00607935
-0.00620592
-0.00631859
-0.00641807
-0.0065054
-0.00658174
-0.00664832
-0.00670627
-0.0067567
-0.00680055
-0.00683872
-0.00687197
-0.00690096
-0.00692629
-0.00694847
-0.00696793
-0.00698505
-0.00700017
-0.00701355
-0.00702544
-0.00703605
-0.00704556
-0.00705411
-0.00706184
-0.00706884
-0.00707522
-0.00708105
-0.0070864
-0.00709132
-0.00709586
-0.00710005
-0.00710392
-0.0071075
-0.0071108
-0.00711384
-0.00711663
-0.00711916
-0.00712146
-0.00712351
-0.00712532
-0.00712688
-0.00712819
-0.00712926
-0.00713008
-0.00713066
-0.00713102
-0.00713118
-0.00713118
-0.00713106
-0.00713087
-0.00634175
0
0
-0.00168225
-0.00519245
-0.00526825
-0.00597841
-0.00549664
-0.00563189
-0.00577085
-0.00590771
-0.00603837
-0.00616026
-0.00627197
-0.00637302
-0.00646351
-0.00654394
-0.00661503
-0.00667762
-0.00673256
-0.00678069
-0.00682281
-0.00685965
-0.00689188
-0.00692009
-0.00694481
-0.00696649
-0.00698556
-0.00700237
-0.00701722
-0.00703038
-0.00704209
-0.00705254
0
-0.00707034
-0.00707796
-0.00708487
-0.00709117
-0.00709693
-0.00710222
-0.00710709
-0.00711158
-0.00711574
-0.00711958
-0.00712314
-0.00712644
-0.00712947
-0.00713226
-0.00713482
-0.00713713
-0.00713922
-0.00714107
-0.00714268
-0.00714406
-0.00714521
-0.00714613
-0.00714682
-0.00714731
-0.00714761
-0.00714775
-0.00714776
-0.00714767
-0.00635173
0
0
-0.001937
-0.00546728
-0.00552512
-0.00560575
-0.00570319
-0.00581128
-0.0059244
-0.00603788
-0.00614815
-0.00625274
-0.00635009
-0.00643939
-0.00652039
-0.0065932
0
-0.00671593
-0.006767
-0.00681203
-0.00685167
-0.00688651
-0.00691712
-0.006944
-0.00696763
-0.00698841
-0.00700672
-0.00702289
-0.0070372
-0.0070499
-0.00706121
-0.00707132
-0.00708039
-0.00708856
-0.00709595
-0.00710267
-0.0071088
-0.00711442
-0.00711958
-0.00712434
-0.00712875
-0.00713283
-0.00713662
-0.00714013
-0.00714339
-0.00714641
-0.0071492
-0.00715175
-0.00715408
-0.00715619
-0.00715808
-0.00715974
-0.00716119
-0.00716241
-0.00716341
-0.00716421
-0.00716481
-0.00716522
-0.00716546
-0.00716556
-0.00716554
-0.00636276
0
0
-0.00216265
-0.00571571
-0.00576039
-0.00582328
-0.00590023
-0.0059868
-0.00607875
-0.00617239
-0.00626474
-0.00638576
-0.00643737
-0.00651519
-0.00658655
-0.00665135
-0.00670972
-0.00676198
-0.00680853
-0.00684983
-0.00688637
-0.00691864
-0.00694709
-0.00697218
-0.00699428
-0.00701378
-0.007031
-0.00704623
-0.00705974
-0.00707174
-0.00708245
-0.00709204
-0.00710066
-0.00710844
-0.0071155
-0.00712192
-0.0071278
-0.0071332
-0.00713817
-0.00714278
-0.00714705
-0.00715102
-0.00715472
-0.00715817
-0.00716137
-0.00716435
-0.00716712
-0.00716967
-0.00717201
-0.00717414
-0.00717605
-0.00717776
-0.00717926
-0.00718055
-0.00718164
-0.00718252
-0.0071832
-0.00718371
-0.00718404
-0.00718421
-0.00718425
-0.00637461
0
0
-0.00236603
-0.00594366
-0.00597841
-0.00602771
-0.0060886
-0.00615788
-0.00623234
-0.00630911
-0.00638576
-0.00646037
-0.00653154
-0.00659832
-0.00666017
-0.00671681
-0.00676824
-0.0068146
-0.00685615
-0.00689322
-0.00692617
-0.00695539
-0.00698126
-0.00700412
-0.00702433
-0.00704221
-0.00705802
-0.00707205
-0.00708451
-0.00700498
-0.00710553
-0.00711444
-0.00712247
-0.00712974
-0.00713634
-0.00714238
-0.00714792
-0.00715303
-0.00715776
-0.00716216
-0.00716626
-0.00717008
-0.00717366
-0.00717701
-0.00718015
-0.00718308
-0.00718581
-0.00718834
-0.00719068
-0.00719282
-0.00710899
-0.00719652
-0.00719807
-0.00719943
-0.00720058
-0.00720154
-0.0072023
-0.00720288
-0.00720328
-0.00720351
-0.00720359
-0.0063871
0
0
-0.00255223
-0.00615564
-0.00618271
-0.00622133
-0.00626939
-0.00632455
-0.00638441
-0.00644674
-0.00650959
-0.00657137
-0.00663085
-0.00668715
-0.00673971
-0.00678821
-0.00683254
-0.00687273
-0.00690895
-0.00694141
-0.00783821
-0.00699617
-0.00701907
-0.00703937
-0.00705736
-0.0070733
-0.00708745
-0.00710002
-0.00711122
-0.00712122
-0.00713019
-0.00713827
-0.00714557
-0.00715221
-0.00715827
-0.00716384
-0.00716897
-0.00717373
-0.00717816
-0.0071823
-0.00718619
-0.00718984
-0.00719327
-0.00719651
-0.00719955
-0.00720241
-0.0072051
-0.00720761
-0.00720994
-0.00721209
-0.00721407
-0.00721585
-0.00721745
-0.00721886
-0.00722008
-0.00722111
-0.00722194
-0.00722259
-0.00722305
-0.00722333
-0.00722344
-0.00640009
0
0
-0.00272516
-0.00635521
-0.00637616
-0.00640618
-0.00644376
-0.00648719
-0.00653467
-0.00658449
-0.00663514
-0.0066853
-0.00673396
-0.00678035
-0.00682394
-0.00686439
-0.00690157
-0.00693544
-0.00696609
-0.00699366
-0.00701835
-0.00704039
-0.00706001
-0.00707745
-0.00709294
-0.0071067
-0.00711894
-0.00712985
-0.00713959
-0.00714833
-0.00715619
-0.0071633
-0.00716976
-0.00717567
-0.0071811
-0.00718611
-0.00719077
-0.00719512
-0.00719921
-0.00720305
-0.00720669
-0.00721013
-0.00721339
-0.00721649
-0.00721943
-0.00722222
-0.00722485
-0.00722733
-0.00722965
-0.00723181
-0.00723381
-0.00723563
-0.00723728
-0.00723874
-0.00724002
-0.00724111
-0.00724201
-0.00724272
-0.00724324
-0.00724357
-0.00724371
-0.00641349
0
0
-0.00288793
-0.00452889
-0.00656114
-0.00658406
-0.00661288
-0.00664635
-0.00668316
-0.006722
-0.00676172
-0.0068013
-0.0068399
-0.00687689
-0.00691182
-0.00694438
-0.00697441
-0.00700187
-0.00702679
-0.00704926
-0.00706944
-0.00708748
-0.00710358
-0.00711791
-0.00713067
-0.00714203
-0.00715217
-0.00716123
-0.00716935
-0.00717667
-0.0071833
-0.00718932
-0.00719484
-0.00719993
-0.00720464
-0.00720904
-0.00721317
-0.00721706
-0.00722075
-0.00722427
-0.00722762
-0.00723083
-0.00723391
-0.00723686
-0.00723968
-0.00724238
-0.00722485
-0.0072474
-0.00724971
-0.00725187
-0.00725389
-0.00725575
-0.00725745
-0.00725897
-0.00726031
-0.00726147
-0.00726243
-0.0072632
-0.00726377
-0.00726414
-0.00726431
-0.00642723
0
0
-0.00304304
-0.00672794
-0.00673967
-0.00675656
-0.00677787
-0.0068027
-0.0068301
-0.00685913
-0.00688894
-0.00691874
-0.00694792
-0.00697597
-0.00700252
-0.00702733
-0.00705027
-0.00707127
-0.00709035
-0.00710758
-0.00712306
-0.00713691
-0.00714928
-0.00716032
-0.00717015
-0.00717894
-0.0071868
-0.00719386
-0.00720023
-0.007206
-0.00721128
-0.00721612
-0.00722061
-0.0072248
-0.00722874
-0.00723246
-0.00723601
-0.0072394
-0.00724267
-0.00724582
-0.00724887
-0.00725183
-0.00725471
-0.00725749
-0.00726019
-0.0072628
-0.00726531
-0.00726772
-0.00727001
-0.00727219
-0.00727423
-0.00774994
-0.00727788
-0.00727946
-0.00728087
-0.00728209
-0.00728312
-0.00728395
-0.00728457
-0.00728499
-0.00728519
-0.00644124
0
0
-0.00319262
-0.00690545
-0.0069135
-0.00692512
-0.0069398
-0.00695692
-0.00697585
-0.00699593
-0.00701658
-0.00703724
-0.00705748
-0.00707695
-0.00709536
-0.00711256
-0.00712844
-0.00714296
-0.00715612
-0.00716799
-0.00717864
-0.00718815
-0.00719664
-0.00720422
-0.00721099
-0.00721705
-0.0072225
-0.00722744
-0.00723194
-0.00723607
-0.0077183
-0.0072435
-0.00724689
-0.00725012
-0.00725322
-0.00725623
-0.00725915
-0.00726202
-0.00726483
-0.0072676
-0.00727033
-0.00727303
-0.00727569
-0.0072783
-0.00728087
-0.00728338
-0.00728583
-0.00728821
-0.00729049
-0.00729268
-0.00729475
-0.0072967
-0.00729851
-0.00730016
-0.00730164
-0.00730293
-0.00730403
-0.00730493
-0.00730561
-0.00730607
-0.0073063
-0.00645549
0
0
-0.0033385
-0.00707945
-0.0070842
-0.00846877
-0.00709969
0
-0.00712084
-0.00713257
-0.00714458
-0.00715655
-0.00614776
-0.00717933
-0.00718978
-0.00719946
-0.00720831
-0.00721632
-0.00722351
-0.00722993
-0.00723564
-0.0072407
-0.00724519
-0.00724919
-0.00725277
-0.007256
-0.00725895
-0.00726167
-0.00726421
-0.00726663
-0.00726896
-0.00727123
-0.00727347
-0.0072757
-0.00727794
-0.00728019
-0.00728247
-0.00728478
-0.00728712
-0.0072895
-0.0072919
-0.00729432
-0.00729676
-0.0072992
-0.00730164
-0.00730406
-0.00730645
-0.00730879
-0.00731107
-0.00731328
-0.0073154
-0.0073174
-0.00731927
-0.007321
-0.00732256
-0.00732394
-0.00732513
-0.0073261
-0.00732684
-0.00732735
-0.00732762
-0.00646994
0
0
-0.00348233
-0.00725152
-0.00725319
-0.00725557
-0.00725852
-0.0072619
-0.00726554
-0.00726928
-0.00727297
-0.0072765
-0.00727977
-0.00728271
-0.00728528
-0.00728748
-0.00728931
-0.00729078
-0.00729195
-0.00786318
-0.00729354
-0.00729406
-0.00729447
-0.0072948
-0.00729511
-0.00729543
-0.0072958
-0.00729624
-0.00729678
-0.00729743
-0.00729821
-0.00729912
-0.00730018
-0.00730138
-0.00730272
-0.00730421
-0.00730583
-0.00730757
-0.00730943
-0.0073114
-0.00731347
-0.00731561
-0.00731783
-0.0073201
-0.00732241
-0.00732474
-0.00732708
-0.0073294
-0.0073317
-0.00733394
-0.0073361
-0.00733818
-0.00734013
-0.00734195
-0.00734361
-0.00734509
-0.00734637
-0.00734742
-0.00734824
-0.00734881
-0.00734911
-0.00648457
0
0
-0.00362567
-0.00742315
-0.00742182
-0.00741985
-0.00741728
-0.00741414
-0.00741048
-0.00740636
-0.00740185
-0.00739703
-0.00739197
-0.00738675
-0.00738145
-0.00808603
-0.00737092
-0.00736581
-0.0073609
-0.00735623
-0.00735183
-0.00734775
-0.00734401
-0.00734063
-0.00733762
-0.00733499
-0.00733274
-0.00733086
-0.00732936
-0.00732822
-0.00732742
-0.00732697
-0.00732683
-0.00732699
-0.00732743
-0.00732814
-0.00732909
-0.00733027
-0.00733165
-0.00733321
-0.00733495
-0.00733682
-0.00733883
-0.00734093
-0.00734312
-0.00734538
-0.00734767
-0.00734999
-0.0073523
-0.00735459
-0.00735683
-0.00735898
-0.00736104
-0.00736297
-0.00736475
-0.00736634
-0.00736772
-0.00736888
-0.00736979
-0.00737042
-0.00737078
-0.00649937
0
0
-0.00377001
-0.00759576
-0.00759141
-0.00758507
-0.00757692
-0.0075672
-0.00755617
-0.00754412
-0.00753133
-0.00751807
-0.00750459
-0.00749113
-0.00747787
-0.007465
-0.00745263
-0.00744088
-0.00742983
-0.00741952
-0.00741
-0.00740128
-0.00739337
-0.00738624
-0.0073799
-0.0073743
-0.00736942
-0.00736523
-0.00736168
-0.00735875
-0.00735638
-0.00735456
-0.00735322
-0.00735235
-0.0073519
-0.00735184
-0.00735214
-0.00735275
-0.00735367
-0.00735484
-0.00735625
-0.00735786
-0.00735966
-0.00736162
-0.0073637
-0.00736589
-0.00736816
-0.00737048
-0.00737284
-0.00737519
-0.00737751
-0.00737978
-0.00738196
-0.00738403
-0.00738594
-0.00738767
-0.00738919
-0.00739046
-0.00739147
-0.00739219
-0.0073926
-0.00651434
0
0
-0.00391687
-0.00777082
-0.00776331
-0.0077524
-0.00773843
-0.00772185
-0.00770317
-0.0076829
-0.00766154
-0.00763958
-0.00761745
-0.00759554
-0.00757416
-0.00755356
-0.00753394
-0.00751546
-0.0074982
-0.00748222
-0.00746755
-0.00745418
-0.00744208
-0.00743122
-0.00742155
-0.007413
-0.00740552
-0.00739903
-0.00739347
-0.00738877
-0.00738486
-0.00738169
-0.00737919
-0.00737731
-0.00737599
-0.00737519
-0.00737484
-0.00737492
-0.00737538
-0.00737618
-0.00737728
-0.00737866
-0.00738027
-0.00738209
-0.00738408
-0.00738622
-0.00738849
-0.00739084
-0.00739325
-0.00739569
-0.00739813
-0.00740053
-0.00740286
-0.00740508
-0.00740716
-0.00740906
-0.00741074
-0.00741216
-0.0074133
-0.00741411
-0.00741459
-0.00652948
0
0
-0.00406784
-0.00794985
-0.00793892
-0.00792305
-0.00790281
-0.00787888
-0.00785202
-0.00782301
-0.0077926
-0.0077615
-0.00773034
-0.00769965
-0.00766986
-0.00764134
-0.00761432
-0.007589
-0.00756546
-0.00754378
-0.00752394
-0.00750593
-0.00748969
-0.00747514
-0.00693485
-0.00745074
-0.00744071
-0.00743198
-0.00742445
-0.00735875
-0.00741264
-0.00740818
-0.00740456
-0.00740171
-0.00739956
-0.00739804
-0.0073971
-0.00739667
-0.0073967
-0.00739715
-0.00739797
-0.00739913
-0.00740057
-0.00740228
-0.0074042
-0.00740632
-0.00740859
-0.00741099
-0.00741349
-0.00741604
-0.00741862
-0.00742119
-0.0074803
-0.00755064
-0.0074284
-0.0074305
-0.00743237
-0.00743397
-0.00743526
-0.00745476
-0.00743677
-0.00654481
0
0
-0.00422465
-0.0081345
-0.00811974
-0.00809835
-0.00807115
-0.0080391
-0.00800327
-0.00796475
-0.00792458
-0.00788371
-0.00784296
-0.00780305
-0.00776452
-0.0077278
-0.0076932
-0.00766091
-0.00763104
-0.00760363
-0.00757865
-0.00755605
-0.00753572
-0.00751755
-0.00750141
-0.00748715
-0.00747466
-0.00746377
-0.00745437
-0.00744633
-0.00743951
-0.00743382
-0.00742914
-0.00742539
-0.00742246
-0.00742028
-0.00741878
-0.00741788
-0.00741753
-0.00741767
-0.00741824
-0.0074192
-0.00742051
-0.00742212
-0.007424
-0.00742612
-0.00742843
-0.00743091
-0.00743351
-0.00743621
-0.00743896
-0.00744173
-0.00744446
-0.00744711
-0.00744964
-0.00745198
-0.00745409
-0.00745591
-0.00745738
-0.00745847
-0.00745914
-0.00656035
0
0
-0.00438926
-0.00832665
-0.00830746
-0.00827973
-0.00824457
-0.00820333
-0.00815745
-0.00810838
-0.00805749
-0.008006
-0.00795497
-0.00790526
-0.00785755
-0.00781232
-0.00776993
-0.00773056
-0.00769431
-0.00766118
-0.00763112
-0.007604
-0.00757969
-0.00755802
-0.00753881
-0.00752188
-0.00750705
-0.00749413
-0.00748297
-0.0074734
-0.00746527
-0.00745844
-0.00745279
-0.00744821
-0.00744457
-0.0074418
-0.00743979
-0.00743848
-0.00743779
-0.00743765
-0.007438
-0.00743881
-0.00744001
-0.00709362
-0.00744343
-0.00744557
-0.00744794
-0.00745053
-0.00745327
-0.00745615
-0.00745911
-0.00746211
-0.00746511
-0.00746804
-0.00747086
-0.0074735
-0.00747589
-0.00747798
-0.00747969
-0.00748097
-0.00748177
-0.00657615
0
0
-0.00456394
-0.00852843
-0.00850399
-0.00846877
-0.00842431
-0.00837243
-0.00831504
-0.0070477
-0.0081912
-0.00812803
-0.00806585
-0.00800567
-0.00794827
-0.00789419
-0.00784379
-0.00779724
-0.00775459
-0.0077158
-0.00768075
-0.00764926
-0.00762112
-0.00759612
-0.00757401
-0.00755457
-0.00753756
-0.00752277
-0.00750999
-0.00749903
-0.00748971
-0.00748187
-0.00747536
-0.00747003
-0.00746578
-0.00746248
-0.00746004
-0.00745837
-0.00745739
-0.00745702
-0.00745721
-0.00745789
-0.00745902
-0.00746054