# vtk DataFile Version 2.0
FlowField
ASCII
DATASET STRUCTURED_GRID
DIMENSIONS 62 47 32 
POINTS 93248 double
0 0 0
0.01 0 0
0.02 0 0
0.03 0 0
0.04 0 0
0.05 0 0
0.06 0 0
0.07 0 0
0.08 0 0
0.09 0 0
0.1 0 0
0.11 0 0
0.12 0 0
0.13 0 0
0.14 0 0
0.15 0 0
0.16 0 0
0.17 0 0
0.18 0 0
0.19 0 0
0.2 0 0
0.21 0 0
0.22 0 0
0.23 0 0
0.24 0 0
0.25 0 0
0.26 0 0
0.27 0 0
0.28 0 0
0.29 0 0
0.3 0 0
0.31 0 0
0.32 0 0
0.33 0 0
0.34 0 0
0.35 0 0
0.36 0 0
0.37 0 0
0.38 0 0
0.39 0 0
0.4 0 0
0.41 0 0
0.42 0 0
0.43 0 0
0.44 0 0
0.45 0 0
0.46 0 0
0.47 0 0
0.48 0 0
0.49 0 0
0.5 0 0
0.51 0 0
0.52 0 0
0.53 0 0
0.54 0 0
0.55 0 0
0.56 0 0
0.57 0 0
0.58 0 0
0.59 0 0
0.6 0 0
0.61 0 0
0 0.01 0
0.01 0.01 0
0.02 0.01 0
0.03 0.01 0
0.04 0.01 0
0.05 0.01 0
0.06 0.01 0
0.07 0.01 0
0.08 0.01 0
0.09 0.01 0
0.1 0.01 0
0.11 0.01 0
0.12 0.01 0
0.13 0.01 0
0.14 0.01 0
0.15 0.01 0
0.16 0.01 0
0.17 0.01 0
0.18 0.01 0
0.19 0.01 0
0.2 0.01 0
0.21 0.01 0
0.22 0.01 0
0.23 0.01 0
0.24 0.01 0
0.25 0.01 0
0.26 0.01 0
0.27 0.01 0
0.28 0.01 0
0.29 0.01 0
0.3 0.01 0
0.31 0.01 0
0.32 0.01 0
0.33 0.01 0
0.34 0.01 0
0.35 0.01 0
0.36 0.01 0
0.37 0.01 0
0.38 0.01 0
0.39 0.01 0
0.4 0.01 0
0.41 0.01 0
0.42 0.01 0
0.43 0.01 0
0.44 0.01 0
0.45 0.01 0
0.46 0.01 0
0.47 0.01 0
0.48 0.01 0
0.49 0.01 0
0.5 0.01 0
0.51 0.01 0
0.52 0.01 0
0.53 0.01 0
0.54 0.01 0
0.55 0.01 0
0.56 0.01 0
0.57 0.01 0
0.58 0.01 0
0.59 0.01 0
0.6 0.01 0
0.61 0.01 0
0 0.02 0
0.01 0.02 0
0.02 0.02 0
0.03 0.02 0
0.04 0.02 0
0.05 0.02 0
0.06 0.02 0
0.07 0.02 0
0.08 0.02 0
0.09 0.02 0
0.1 0.02 0
0.11 0.02 0
0.12 0.02 0
0.13 0.02 0
0.14 0.02 0
0.15 0.02 0
0.16 0.02 0
0.17 0.02 0
0.18 0.02 0
0.19 0.02 0
0.2 0.02 0
0.21 0.02 0
0.22 0.02 0
0.23 0.02 0
0.24 0.02 0
0.25 0.02 0
0.26 0.02 0
0.27 0.02 0
0.28 0.02 0
0.29 0.02 0
0.3 0.02 0
0.31 0.02 0
0.32 0.02 0
0.33 0.02 0
0.34 0.02 0
0.35 0.02 0
0.36 0.02 0
0.37 0.02 0
0.38 0.02 0
0.39 0.02 0
0.4 0.02 0
0.41 0.02 0
0.42 0.02 0
0.43 0.02 0
0.44 0.02 0
0.45 0.02 0
0.46 0.02 0
0.47 0.02 0
0.48 0.02 0
0.49 0.02 0
0.5 0.02 0
0.51 0.02 0
0.52 0.02 0
0.53 0.02 0
0.54 0.02 0
0.55 0.02 0
0.56 0.02 0
0.57 0.02 0
0.58 0.02 0
0.59 0.02 0
0.6 0.02 0
0.61 0.02 0
0 0.03 0
0.01 0.03 0
0.02 0.03 0
0.03 0.03 0
0.04 0.03 0
0.05 0.03 0
0.06 0.03 0
0.07 0.03 0
0.08 0.03 0
0.09 0.03 0
0.1 0.03 0
0.11 0.03 0
0.12 0.03 0
0.13 0.03 0
0.14 0.03 0
0.15 0.03 0
0.16 0.03 0
0.17 0.03 0
0.18 0.03 0
0.19 0.03 0
0.2 0.03 0
0.21 0.03 0
0.22 0.03 0
0.23 0.03 0
0.24 0.03 0
0.25 0.03 0
0.26 0.03 0
0.27 0.03 0
0.28 0.03 0
0.29 0.03 0
0.3 0.03 0
0.31 0.03 0
0.32 0.03 0
0.33 0.03 0
0.34 0.03 0
0.35 0.03 0
0.36 0.03 0
0.37 0.03 0
0.38 0.03 0
0.39 0.03 0
0.4 0.03 0
0.41 0.03 0
0.42 0.03 0
0.43 0.03 0
0.44 0.03 0
0.45 0.03 0
0.46 0.03 0
0.47 0.03 0
0.48 0.03 0
0.49 0.03 0
0.5 0.03 0
0.51 0.03 0
0.52 0.03 0
0.53 0.03 0
0.54 0.03 0
0.55 0.03 0
0.56 0.03 0
0.57 0.03 0
0.58 0.03 0
0.59 0.03 0
0.6 0.03 0
0.61 0.03 0
0 0.04 0
0.01 0.04 0
0.02 0.04 0
0.03 0.04 0
0.04 0.04 0
0.05 0.04 0
0.06 0.04 0
0.07 0.04 0
0.08 0.04 0
0.09 0.04 0
0.1 0.04 0
0.11 0.04 0
0.12 0.04 0
0.13 0.04 0
0.14 0.04 0
0.15 0.04 0
0.16 0.04 0
0.17 0.04 0
0.18 0.04 0
0.19 0.04 0
0.2 0.04 0
0.21 0.04 0
0.22 0.04 0
0.23 0.04 0
0.24 0.04 0
0.25 0.04 0
0.26 0.04 0
0.27 0.04 0
0.28 0.04 0
0.29 0.04 0
0.3 0.04 0
0.31 0.04 0
0.32 0.04 0
0.33 0.04 0
0.34 0.04 0
0.35 0.04 0
0.36 0.04 0
0.37 0.04 0
0.38 0.04 0
0.39 0.04 0
0.4 0.04 0
0.41 0.04 0
0.42 0.04 0
0.43 0.04 0
0.44 0.04 0
0.45 0.04 0
0.46 0.04 0
0.47 0.04 0
0.48 0.04 0
0.49 0.04 0
0.5 0.04 0
0.51 0.04 0
0.52 0.04 0
0.53 0.04 0
0.54 0.04 0
0.55 0.04 0
0.56 0.04 0
0.57 0.04 0
0.58 0.04 0
0.59 0.04 0
0.6 0.04 0
0.61 0.04 0
0 0.05 0
0.01 0.05 0
0.02 0.05 0
0.03 0.05 0
0.04 0.05 0
0.05 0.05 0
0.06 0.05 0
0.07 0.05 0
0.08 0.05 0
0.09 0.05 0
0.1 0.05 0
0.11 0.05 0
0.12 0.05 0
0.13 0.05 0
0.14 0.05 0
0.15 0.05 0
0.16 0.05 0
0.17 0.05 0
0.18 0.05 0
0.19 0.05 0
0.2 0.05 0
0.21 0.05 0
0.22 0.05 0
0.23 0.05 0
0.24 0.05 0
0.25 0.05 0
0.26 0.05 0
0.27 0.05 0
0.28 0.05 0
0.29 0.05 0
0.3 0.05 0
0.31 0.05 0
0.32 0.05 0
0.33 0.05 0
0.34 0.05 0
0.35 0.05 0
0.36 0.05 0
0.37 0.05 0
0.38 0.05 0
0.39 0.05 0
0.4 0.05 0
0.41 0.05 0
0.42 0.05 0
0.43 0.05 0
0.44 0.05 0
0.45 0.05 0
0.46 0.05 0
0.47 0.05 0
0.48 0.05 0
0.49 0.05 0
0.5 0.05 0
0.51 0.05 0
0.52 0.05 0
0.53 0.05 0
0.54 0.05 0
0.55 0.05 0
0.56 0.05 0
0.57 0.05 0
0.58 0.05 0
0.59 0.05 0
0.6 0.05 0
0.61 0.05 0
0 0.06 0
0.01 0.06 0
0.02 0.06 0
0.03 0.06 0
0.04 0.06 0
0.05 0.06 0
0.06 0.06 0
0.07 0.06 0
0.08 0.06 0
0.09 0.06 0
0.1 0.06 0
0.11 0.06 0
0.12 0.06 0
0.13 0.06 0
0.14 0.06 0
0.15 0.06 0
0.16 0.06 0
0.17 0.06 0
0.18 0.06 0
0.19 0.06 0
0.2 0.06 0
0.21 0.06 0
0.22 0.06 0
0.23 0.06 0
0.24 0.06 0
0.25 0.06 0
0.26 0.06 0
0.27 0.06 0
0.28 0.06 0
0.29 0.06 0
0.3 0.06 0
0.31 0.06 0
0.32 0.06 0
0.33 0.06 0
0.34 0.06 0
0.35 0.06 0
0.36 0.06 0
0.37 0.06 0
0.38 0.06 0
0.39 0.06 0
0.4 0.06 0
0.41 0.06 0
0.42 0.06 0
0.43 0.06 0
0.44 0.06 0
0.45 0.06 0
0.46 0.06 0
0.47 0.06 0
0.48 0.06 0
0.49 0.06 0
0.5 0.06 0
0.51 0.06 0
0.52 0.06 0
0.53 0.06 0
0.54 0.06 0
0.55 0.06 0
0.56 0.06 0
0.57 0.06 0
0.58 0.06 0
0.59 0.06 0
0.6 0.06 0
0.61 0.06 0
0 0.07 0
0.01 0.07 0
0.02 0.07 0
0.03 0.07 0
0.04 0.07 0
0.05 0.07 0
0.06 0.07 0
0.07 0.07 0
0.08 0.07 0
0.09 0.07 0
0.1 0.07 0
0.11 0.07 0
0.12 0.07 0
0.13 0.07 0
0.14 0.07 0
0.15 0.07 0
0.16 0.07 0
0.17 0.07 0
0.18 0.07 0
0.19 0.07 0
0.2 0.07 0
0.21 0.07 0
0.22 0.07 0
0.23 0.07 0
0.24 0.07 0
0.25 0.07 0
0.26 0.07 0
0.27 0.07 0
0.28 0.07 0
0.29 0.07 0
0.3 0.07 0
0.31 0.07 0
0.32 0.07 0
0.33 0.07 0
0.34 0.07 0
0.35 0.07 0
0.36 0.07 0
0.37 0.07 0
0.38 0.07 0
0.39 0.07 0
0.4 0.07 0
0.41 0.07 0
0.42 0.07 0
0.43 0.07 0
0.44 0.07 0
0.45 0.07 0
0.46 0.07 0
0.47 0.07 0
0.48 0.07 0
0.49 0.07 0
0.5 0.07 0
0.51 0.07 0
0.52 0.07 0
0.53 0.07 0
0.54 0.07 0
0.55 0.07 0
0.56 0.07 0
0.57 0.07 0
0.58 0.07 0
0.59 0.07 0
0.6 0.07 0
0.61 0.07 0
0 0.08 0
0.01 0.08 0
0.02 0.08 0
0.03 0.08 0
0.04 0.08 0
0.05 0.08 0
0.06 0.08 0
0.07 0.08 0
0.08 0.08 0
0.09 0.08 0
0.1 0.08 0
0.11 0.08 0
0.12 0.08 0
0.13 0.08 0
0.14 0.08 0
0.15 0.08 0
0.16 0.08 0
0.17 0.08 0
0.18 0.08 0
0.19 0.08 0
0.2 0.08 0
0.21 0.08 0
0.22 0.08 0
0.23 0.08 0
0.24 0.08 0
0.25 0.08 0
0.26 0.08 0
0.27 0.08 0
0.28 0.08 0
0.29 0.08 0
0.3 0.08 0
0.31 0.08 0
0.32 0.08 0
0.33 0.08 0
0.34 0.08 0
0.35 0.08 0
0.36 0.08 0
0.37 0.08 0
0.38 0.08 0
0.39 0.08 0
0.4 0.08 0
0.41 0.08 0
0.42 0.08 0
0.43 0.08 0
0.44 0.08 0
0.45 0.08 0
0.46 0.08 0
0.47 0.08 0
0.48 0.08 0
0.49 0.08 0
0.5 0.08 0
0.51 0.08 0
0.52 0.08 0
0.53 0.08 0
0.54 0.08 0
0.55 0.08 0
0.56 0.08 0
0.57 0.08 0
0.58 0.08 0
0.59 0.08 0
0.6 0.08 0
0.61 0.08 0
0 0.09 0
0.01 0.09 0
0.02 0.09 0
0.03 0.09 0
0.04 0.09 0
0.05 0.09 0
0.06 0.09 0
0.07 0.09 0
0.08 0.09 0
0.09 0.09 0
0.1 0.09 0
0.11 0.09 0
0.12 0.09 0
0.13 0.09 0
0.14 0.09 0
0.15 0.09 0
0.16 0.09 0
0.17 0.09 0
0.18 0.09 0
0.19 0.09 0
0.2 0.09 0
0.21 0.09 0
0.22 0.09 0
0.23 0.09 0
0.24 0.09 0
0.25 0.09 0
0.26 0.09 0
0.27 0.09 0
0.28 0.09 0
0.29 0.09 0
0.3 0.09 0
0.31 0.09 0
0.32 0.09 0
0.33 0.09 0
0.34 0.09 0
0.35 0.09 0
0.36 0.09 0
0.37 0.09 0
0.38 0.09 0
0.39 0.09 0
0.4 0.09 0
0.41 0.09 0
0.42 0.09 0
0.43 0.09 0
0.44 0.09 0
0.45 0.09 0
0.46 0.09 0
0.47 0.09 0
0.48 0.09 0
0.49 0.09 0
0.5 0.09 0
0.51 0.09 0
0.52 0.09 0
0.53 0.09 0
0.54 0.09 0
0.55 0.09 0
0.56 0.09 0
0.57 0.09 0
0.58 0.09 0
0.59 0.09 0
0.6 0.09 0
0.61 0.09 0
0 0.1 0
0.01 0.1 0
0.02 0.1 0
0.03 0.1 0
0.04 0.1 0
0.05 0.1 0
0.06 0.1 0
0.07 0.1 0
0.08 0.1 0
0.09 0.1 0
0.1 0.1 0
0.11 0.1 0
0.12 0.1 0
0.13 0.1 0
0.14 0.1 0
0.15 0.1 0
0.16 0.1 0
0.17 0.1 0
0.18 0.1 0
0.19 0.1 0
0.2 0.1 0
0.21 0.1 0
0.22 0.1 0
0.23 0.1 0
0.24 0.1 0
0.25 0.1 0
0.26 0.1 0
0.27 0.1 0
0.28 0.1 0
0.29 0.1 0
0.3 0.1 0
0.31 0.1 0
0.32 0.1 0
0.33 0.1 0
0.34 0.1 0
0.35 0.1 0
0.36 0.1 0
0.37 0.1 0
0.38 0.1 0
0.39 0.1 0
0.4 0.1 0
0.41 0.1 0
0.42 0.1 0
0.43 0.1 0
0.44 0.1 0
0.45 0.1 0
0.46 0.1 0
0.47 0.1 0
0.48 0.1 0
0.49 0.1 0
0.5 0.1 0
0.51 0.1 0
0.52 0.1 0
0.53 0.1 0
0.54 0.1 0
0.55 0.1 0
0.56 0.1 0
0.57 0.1 0
0.58 0.1 0
0.59 0.1 0
0.6 0.1 0
0.61 0.1 0
0 0.11 0
0.01 0.11 0
0.02 0.11 0
0.03 0.11 0
0.04 0.11 0
0.05 0.11 0
0.06 0.11 0
0.07 0.11 0
0.08 0.11 0
0.09 0.11 0
0.1 0.11 0
0.11 0.11 0
0.12 0.11 0
0.13 0.11 0
0.14 0.11 0
0.15 0.11 0
0.16 0.11 0
0.17 0.11 0
0.18 0.11 0
0.19 0.11 0
0.2 0.11 0
0.21 0.11 0
0.22 0.11 0
0.23 0.11 0
0.24 0.11 0
0.25 0.11 0
0.26 0.11 0
0.27 0.11 0
0.28 0.11 0
0.29 0.11 0
0.3 0.11 0
0.31 0.11 0
0.32 0.11 0
0.33 0.11 0
0.34 0.11 0
0.35 0.11 0
0.36 0.11 0
0.37 0.11 0
0.38 0.11 0
0.39 0.11 0
0.4 0.11 0
0.41 0.11 0
0.42 0.11 0
0.43 0.11 0
0.44 0.11 0
0.45 0.11 0
0.46 0.11 0
0.47 0.11 0
0.48 0.11 0
0.49 0.11 0
0.5 0.11 0
0.51 0.11 0
0.52 0.11 0
0.53 0.11 0
0.54 0.11 0
0.55 0.11 0
0.56 0.11 0
0.57 0.11 0
0.58 0.11 0
0.59 0.11 0
0.6 0.11 0
0.61 0.11 0
0 0.12 0
0.01 0.12 0
0.02 0.12 0
0.03 0.12 0
0.04 0.12 0
0.05 0.12 0
0.06 0.12 0
0.07 0.12 0
0.08 0.12 0
0.09 0.12 0
0.1 0.12 0
0.11 0.12 0
0.12 0.12 0
0.13 0.12 0
0.14 0.12 0
0.15 0.12 0
0.16 0.12 0
0.17 0.12 0
0.18 0.12 0
0.19 0.12 0
0.2 0.12 0
0.21 0.12 0
0.22 0.12 0
0.23 0.12 0
0.24 0.12 0
0.25 0.12 0
0.26 0.12 0
0.27 0.12 0
0.28 0.12 0
0.29 0.12 0
0.3 0.12 0
0.31 0.12 0
0.32 0.12 0
0.33 0.12 0
0.34 0.12 0
0.35 0.12 0
0.36 0.12 0
0.37 0.12 0
0.38 0.12 0
0.39 0.12 0
0.4 0.12 0
0.41 0.12 0
0.42 0.12 0
0.43 0.12 0
0.44 0.12 0
0.45 0.12 0
0.46 0.12 0
0.47 0.12 0
0.48 0.12 0
0.49 0.12 0
0.5 0.12 0
0.51 0.12 0
0.52 0.12 0
0.53 0.12 0
0.54 0.12 0
0.55 0.12 0
0.56 0.12 0
0.57 0.12 0
0.58 0.12 0
0.59 0.12 0
0.6 0.12 0
0.61 0.12 0
0 0.13 0
0.01 0.13 0
0.02 0.13 0
0.03 0.13 0
0.04 0.13 0
0.05 0.13 0
0.06 0.13 0
0.07 0.13 0
0.08 0.13 0
0.09 0.13 0
0.1 0.13 0
0.11 0.13 0
0.12 0.13 0
0.13 0.13 0
0.14 0.13 0
0.15 0.13 0
0.16 0.13 0
0.17 0.13 0
0.18 0.13 0
0.19 0.13 0
0.2 0.13 0
0.21 0.13 0
0.22 0.13 0
0.23 0.13 0
0.24 0.13 0
0.25 0.13 0
0.26 0.13 0
0.27 0.13 0
0.28 0.13 0
0.29 0.13 0
0.3 0.13 0
0.31 0.13 0
0.32 0.13 0
0.33 0.13 0
0.34 0.13 0
0.35 0.13 0
0.36 0.13 0
0.37 0.13 0
0.38 0.13 0
0.39 0.13 0
0.4 0.13 0
0.41 0.13 0
0.42 0.13 0
0.43 0.13 0
0.44 0.13 0
0.45 0.13 0
0.46 0.13 0
0.47 0.13 0
0.48 0.13 0
[...]
POINT_DATA 93248

SCALARS w double
LOOKUP_TABLE default
0
0
0
0
0
0
0
0
0
0
0
0
0
-0.0642421
0
0
0
0
0
0
0
0
0
0
0
0
-0.140132
0
0
0
0
0
-0.136375
0
0
0
0
0
0
0
0
0
0
0
0
0
-0.123581
0
0
0
0
0
0
0
0
0
0
0
0
0
0
0
0
-0.0216891
-0.0416583
-0.0556546
-0.0639159
-0.0681983
-0.071
-0.0730062
-0.0741949
-0.0748012
-0.0747909
-0.0740373
-0.0725865
-0.0725713
-0.0730869
-0.0736478
-0.0740884
-0.0746213
-0.0749653
-0.0743442
-0.0690531
-0.0688534
-0.0707416
-0.07039
-0.0700573
-0.0698194
-0.0695926
-0.0693491
-0.069087
-0.0687969
-0.0684314
-0.0678729
-0.067076
-0.0672285
-0.0673092
-0.0665941
-0.0655442
-0.0664646
-0.0683068
-0.0725123
-0.0644433
-0.0664672
-0.0688138
-0.0703441
-0.0726757
-0.144431
-0.0683416
-0.0676166
-0.0676885
-0.0686329
-0.0695723
-0.0707727
-0.0701633
-0.0722666
-0.144328
-0.0712159
-0.0672594
-0.0663763
-0.066781
-0.0658612
-0.0633454
0
0
-0.0251294
-0.0579846
-0.077644
-0.0922662
-0.102807
-0.114096
-0.122804
-0.129164
-0.133459
-0.135986
-0.13654
-0.134994
-0.135523
-0.13601
-0.136479
-0.136884
-0.137773
-0.138728
-0.139982
-0.129657
-0.130552
-0.162764
-0.132181
-0.130741
-0.130081
-0.129598
-0.129146
-0.12869
-0.128222
-0.127717
-0.127041
-0.125744
-0.126229
-0.126362
-0.125256
-0.125304
-0.124445
-0.124559
-0.129695
-0.127044
-0.128122
-0.129243
-0.130349
-0.132926
-0.136359
-0.133594
-0.129572
-0.128429
-0.128596
-0.129559
-0.145109
-0.13085
-0.132418
-0.135371
-0.132379
-0.130436
-0.126394
-0.125017
-0.121533
-0.11519
0
0
-0.0249234
-0.0578198
-0.0796522
-0.0966174
-0.0681983
-0.121923
-0.134604
-0.144209
-0.151584
-0.157208
-0.160072
-0.163344
-0.162454
-0.16142
-0.160596
-0.160466
-0.161372
-0.161597
-0.162463
-0.161099
-0.158115
-0.157556
-0.155599
-0.154256
-0.153356
-0.152669
-0.152076
-0.15153
-0.151031
-0.150638
-0.150582
-0.151435
-0.155674
-0.150359
-0.147322
-0.147094
-0.14683
-0.147098
-0.149475
-0.149757
-0.150589
-0.151799
-0.15156
-0.153385
-0.155356
-0.153123
-0.151514
-0.150494
-0.151138
-0.151461
-0.152322
-0.152311
-0.153065
-0.153956
-0.153675
-0.153349
-0.152559
-0.148524
-0.143082
-0.13483
0
0
-0.0244362
-0.0565975
-0.0570394
-0.0973061
-0.112059
-0.126315
-0.13814
-0.147906
-0.155858
-0.162078
-0.166199
-0.168959
-0.169425
-0.168744
-0.167522
-0.166563
-0.165132
-0.165639
-0.166536
-0.165448
-0.164147
-0.163001
-0.161739
-0.160632
-0.159713
-0.15894
-0.158265
-0.157662
-0.157131
-0.156708
-0.156469
-0.156415
-0.155841
-0.155251
-0.153861
-0.153318
-0.153092
-0.152346
-0.154177
-0.154896
-0.155592
-0.156287
-0.156435
-0.157192
-0.157997
-0.157644
-0.15655
-0.15589
-0.156082
-0.156278
-0.156571
-0.156827
-0.157231
-0.15765
-0.157938
-0.157971
-0.157187
-0.154174
-0.148628
-0.139843
0
0
-0.0242849
-0.0565995
-0.0798563
-0.0993055
-0.114902
-0.12831
-0.139552
-0.148946
-0.156719
-0.16278
-0.16699
-0.169437
-0.170149
-0.169513
-0.158117
-0.166941
-0.165957
-0.16549
-0.16543
-0.164694
-0.163766
-0.162764
-0.161745
-0.160777
-0.159894
-0.15911
-0.158404
-0.157767
-0.157202
-0.15671
-0.156258
-0.155674
-0.154613
-0.154329
-0.153963
-0.153685
-0.153526
-0.153526
-0.153884
-0.15431
-0.15474
-0.155115
-0.155313
-0.155595
-0.155992
-0.156759
-0.15542
-0.155006
-0.15508
-0.155254
-0.15547
-0.155743
-0.156082
-0.156438
-0.156747
-0.156752
-0.155874
-0.153132
-0.147608
-0.139078
0
0
-0.024217
-0.0565753
-0.08066
-0.100018
-0.115906
-0.129349
-0.140192
-0.149241
-0.156826
-0.162645
-0.166587
-0.168733
-0.169362
-0.168773
-0.167245
-0.165805
-0.165
-0.160152
-0.163776
-0.163148
-0.162247
-0.161277
-0.160307
-0.159371
-0.158491
-0.15772
-0.157006
-0.156351
-0.155769
-0.155256
-0.154756
-0.154051
-0.15241
-0.152815
-0.152831
-0.152639
-0.152443
-0.152346
-0.152392
-0.152536
-0.152719
-0.152882
-0.152926
-0.152853
-0.152392
-0.151047
-0.151829
-0.152389
-0.152741
-0.15299
-0.153222
-0.15352
-0.153915
-0.154304
-0.154577
-0.154452
-0.153225
-0.149578
-0.142417
-0.135548
0
0
-0.0241551
-0.0564556
-0.0806729
-0.100086
-0.116162
-0.130083
-0.14023
-0.149576
-0.15699
-0.162458
-0.165978
-0.167679
-0.168214
-0.167575
-0.165969
-0.163607
-0.163758
-0.163489
-0.162918
-0.162001
-0.160936
-0.159889
-0.158884
-0.157914
-0.156985
-0.156273
-0.155551
-0.154882
-0.154306
-0.153843
-0.153518
-0.153551
-0.154742
-0.153448
-0.152407
-0.151713
-0.15127
-0.15101
-0.150886
-0.150856
-0.150883
-0.150926
-0.150826
-0.150689
-0.150346
-0.149835
-0.150073
-0.150439
-0.15073
-0.150942
-0.151147
-0.151472
-0.152013
-0.152491
-0.152772
-0.152571
-0.150896
-0.144651
-0.0658612
-0.131401
0
0
-0.0240901
-0.0562889
-0.0804638
-0.0998483
-0.115886
-0.129466
-0.140358
-0.149524
-0.156774
-0.161979
-0.165049
-0.165804
-0.16677
-0.166272
-0.164385
-0.160082
-0.151097
-0.163165
-0.162317
-0.161158
-0.15986
-0.158756
-0.157722
-0.156699
-0.155642
-0.155104
-0.154339
-0.153645
-0.153093
-0.152707
-0.15244
-0.152357
-0.152522
-0.151929
-0.151191
-0.150566
-0.150099
-0.149783
-0.149587
-0.149476
-0.149416
-0.149376
-0.14929
-0.149183
-0.149031
-0.148893
-0.148951
-0.149101
-0.149243
-0.149341
-0.149446
-0.149746
-0.150606
-0.15123
-0.151587
-0.151628
-0.150944
-0.148318
-0.139426
-0.132958
0
0
-0.0240266
-0.0561145
-0.0802032
-0.0995162
-0.115482
-0.128919
-0.140079
-0.149258
-0.15642
-0.161408
-0.163842
-0.134994
-0.164634
-0.165153
-0.164003
-0.161838
-0.161987
-0.161981
-0.161266
-0.160171
-0.158791
-0.157816
-0.156802
-0.155744
-0.154639
-0.153919
-0.153195
-0.152546
-0.152066
-0.151824
-0.15157
-0.151268
-0.150921
-0.150414
-0.14987
-0.149386
-0.148977
-0.148679
-0.148477
-0.148345
-0.148256
-0.148192
-0.148133
-0.148078
-0.148029
-0.148009
-0.14804
-0.148097
-0.148133
-0.148107
-0.148036
-0.147028
-0.149688
-0.150434
-0.150808
-0.150942
-0.150513
-0.148476
-0.142691
-0.133456
0
0
-0.0239696
-0.0559548
-0.0799551
-0.0991873
-0.115097
-0.128491
-0.13972
-0.148932
-0.156087
-0.161073
-0.163802
-0.164109
-0.165079
-0.164999
-0.164187
-0.162894
-0.162064
-0.161283
-0.160346
-0.159343
-0.158599
-0.157362
-0.156142
-0.154937
-0.151564
-0.152887
-0.152166
-0.151518
-0.151096
-0.151104
-0.150899
-0.150353
-0.149723
-0.149155
-0.148679
-0.148305
-0.147941
-0.147678
-0.147507
-0.147388
-0.147302
-0.147243
-0.147212
-0.1472
-0.147206
-0.147231
-0.14727
-0.147307
-0.147305
-0.147216
-0.147041
-0.147028
-0.149344
-0.149901
-0.150203
-0.150354
-0.149992
-0.148148
-0.14305
-0.133528
0
0
-0.0239219
-0.0558214
-0.079748
-0.0989021
-0.114789
-0.128171
-0.139419
-0.148652
-0.155824
-0.160868
-0.163848
-0.165089
-0.165424
-0.16508
-0.164524
-0.163294
-0.162011
-0.160787
-0.159592
-0.158441
-0.15753
-0.156442
-0.155313
-0.154174
-0.153007
-0.152066
-0.151184
-0.150425
-0.149876
-0.149734
-0.150304
-0.149143
-0.148354
-0.14786
-0.147514
-0.147247
-0.147026
-0.146765
-0.146636
-0.146544
-0.146471
-0.146414
-0.146425
-0.14646
-0.146507
-0.146564
-0.146629
-0.146695
-0.146733
-0.146703
-0.146696
-0.147023
-0.14836
-0.149101
-0.149548
-0.14979
-0.149502
-0.147757
-0.142835
-0.133374
0
0
-0.0238844
-0.0557197
-0.0796075
-0.0988106
-0.114635
-0.127975
-0.139208
-0.14844
-0.15562
-0.160692
-0.163765
-0.165159
-0.165373
-0.16494
-0.16474
-0.163074
-0.161514
-0.16011
-0.158786
-0.157597
-0.156568
-0.155546
-0.154502
-0.153423
-0.15231
-0.151197
-0.150093
-0.149072
-0.148063
-0.14721
-0.145402
-0.145887
-0.146245
-0.146361
-0.146333
-0.146234
-0.146105
-0.145949
-0.145844
-0.145767
-0.145685
-0.145553
-0.145685
-0.145801
-0.145899
-0.145994
-0.1461
-0.146227
-0.146362
-0.146411
-0.146537
-0.146924
-0.147688
-0.148367
-0.148907
-0.149263
-0.149072
-0.147404
-0.14256
-0.133153
0
0
-0.0238549
-0.0556397
-0.0794902
-0.0986685
-0.11446
-0.127783
-0.139014
-0.148251
-0.155438
-0.160513
-0.163605
-0.164986
-0.165072
-0.164188
-0.16206
-0.161216
-0.160272
-0.159137
-0.157821
-0.156713
-0.155753
-0.154812
-0.153822
-0.152749
-0.151564
-0.150232
-0.14873
-0.147078
-0.144702
-0.144368
-0.144171
-0.14455
-0.144964
-0.145232
-0.145342
-0.145335
-0.145269
-0.145142
-0.145053
-0.144992
-0.14486
-0.141033
-0.14491
-0.145192
-0.145359
-0.145497
-0.145642
-0.145839
-0.14611
-0.146155
-0.146322
-0.146701
-0.147264
-0.147842
-0.1484
-0.148836
-0.148758
-0.14712
-0.142316
-0.132925
0
0
-0.0238322
-0.0555801
-0.0794127
-0.0998483
-0.114355
-0.127626
-0.138844
-0.148082
-0.155278
-0.160388
-0.163459
-0.164803
-0.164837
-0.163959
-0.162453
-0.161191
-0.15999
-0.15866
-0.15696
-0.155993
-0.155203
-0.154349
-0.153371
-0.152241
-0.150899
-0.149208
-0.146883
-0.143229
-0.133845
-0.137839
-0.140879
-0.142668
-0.14369
-0.144241
-0.144479
-0.144521
-0.145167
-0.144271
-0.144137
-0.144122
-0.144143
-0.144114
-0.144415
-0.144675
-0.144879
-0.145046
-0.145202
-0.145409
-0.145817
-0.145749
-0.145973
-0.146425
-0.147044
-0.14752
-0.148063
-0.148553
-0.149578
-0.146926
-0.142117
-0.132707
0
0
-0.023815
-0.0555342
-0.0793126
-0.0984171
-0.114158
-0.127459
-0.138687
-0.14793
-0.155127
-0.160225
-0.163299
-0.164637
-0.164676
-0.163874
-0.162634
-0.161328
-0.160026
-0.15859
-0.156335
-0.155891
-0.155232
-0.154323
-0.153233
-0.15197
-0.150434
-0.148318
-0.144623
-0.134766
0.0605967
-0.124353
-0.136098
-0.140614
-0.142583
-0.143453
-0.143754
-0.143712
-0.143462
-0.143043
-0.142664
-0.142764
-0.143083
-0.143443
-0.143824
-0.144159
-0.144431
-0.144626
-0.144742
-0.144722
-0.144445
-0.144912
-0.145469
-0.146163
-0.149688
-0.147394
-0.147909
-0.148319
-0.14831
-0.146719
-0.141945
-0.13249
0
0
-0.0238047
-0.0555245
-0.079249
-0.0982619
-0.114002
-0.127315
-0.138556
-0.147805
-0.155002
-0.160098
-0.163184
-0.164529
-0.164572
-0.1638
-0.162633
-0.161363
-0.160161
-0.159264
-0.159552
-0.157808
-0.156162
-0.154707
-0.153332
-0.151912
-0.15029
-0.148188
-0.145002
-0.139345
-0.129043
-0.134459
-0.138845
-0.141368
-0.142668
-0.143219
-0.143279
-0.142936
-0.142188
-0.140936
-0.139159
-0.139905
-0.141147
-0.142209
-0.143005
-0.143581
-0.143998
-0.144256
-0.144403
-0.144405
-0.144327
-0.144461
-0.14505
-0.145789
-0.146609
-0.147252
-0.148128
-0.148238
-0.148133
-0.146574
-0.141806
-0.132245
0
0
-0.0237854
-0.0555425
-0.0791564
-0.0980996
-0.113831
-0.127196
-0.138472
-0.147723
-0.154916
-0.160023
-0.163151
-0.164501
-0.164516
-0.163711
-0.162532
-0.161266
-0.160074
-0.159088
-0.158438
-0.157256
-0.15592
-0.154582
-0.153251
-0.151873
-0.150361
-0.14859
-0.146389
-0.143452
-0.140649
-0.140978
-0.142007
-0.142829
-0.143252
-0.143287
-0.142975
-0.14216
-0.140455
-0.136637
-0.127626
-0.133292
-0.137778
-0.140464
-0.142033
-0.142982
-0.143598
-0.143941
-0.144161
-0.144257
-0.144178
-0.143988
-0.144745
-0.145545
-0.14632
-0.147356
-0.157938
-0.14835
-0.148119
-0.146491
-0.141678
-0.131945
0
0
-0.0236866
-0.0550547
-0.0787387
-0.097748
-0.113588
-0.128491
-0.138519
-0.147709
-0.154865
-0.159993
-0.163245
-0.164569
-0.164476
-0.163551
-0.162308
-0.161023
-0.159802
-0.158673
-0.157659
-0.156586
-0.155458
-0.154296
-0.1531
-0.151852
-0.150524
-0.149111
-0.147669
-0.145587
-0.143964
-0.143719
-0.143865
-0.143942
-0.143809
-0.143424
-0.142822
-0.141538
-0.138541
-0.128824
0.0646022
-0.120835
-0.133866
-0.138962
-0.14131
-0.142525
-0.143189
-0.143677
-0.144013
-0.14424
-0.144271
-0.143751
-0.144869
-0.145571
-0.146167
-0.146905
-0.147859
-0.14772
-0.148075
-0.14637
-0.141527
-0.131019
0
0
-0.0236729
-0.0550886
-0.0786812
-0.0975718
-0.113441
-0.127204
-0.13849
-0.147632
-0.154749
-0.159925
-0.163495
-0.164643
-0.1643
-0.163154
-0.16185
-0.160603
-0.159406
-0.158196
-0.15714
-0.156146
-0.155142
-0.154102
-0.153018
-0.151882
-0.150692
-0.149463
-0.148216
-0.146875
-0.145127
-0.145223
-0.145123
-0.144797
-0.144288
-0.143591
-0.142926
-0.141596
-0.139122
-0.134058
-0.124116
-0.13078
-0.136522
-0.139682
-0.141459
-0.142492
-0.143128
-0.143595
-0.14399
-0.144445
-0.145218
-0.146728
-0.146081
-0.145901
-0.146096
-0.146533
-0.147086
-0.147472
-0.147623
-0.146075
-0.141246
-0.131495
0
0
-0.0236804
-0.0551372
-0.0786822
-0.0973997
-0.113354
-0.12747
-0.138378
-0.147344
-0.154392
-0.159571
-0.163614
-0.164192
-0.163605
-0.162234
-0.161043
-0.160029
-0.158977
-0.157688
-0.156783
-0.155942
-0.155043
-0.154076
-0.153054
-0.151978
-0.150842
-0.149631
-0.148268
-0.148018
-0.14879
-0.147569
-0.146468
-0.145542
-0.144702
-0.143882
-0.143104
-0.142067
-0.140605
-0.13866
-0.136785
-0.137826
-0.139606
-0.141033
-0.14205
-0.142723
-0.143201
-0.143596
-0.143966
-0.144405
-0.14502
-0.145759
-0.145793
-0.145784
-0.145937
-0.146296
-0.146834
-0.147329
-0.14737
-0.145884
-0.141138
-0.131624
0
0
-0.0236898
-0.05518
-0.0787976
-0.0979516
-0.113369
-0.125642
-0.137044
-0.146451
-0.153661
-0.158437
-0.160012
-0.161812
-0.162168
-0.160787
-0.160113
-0.15961
-0.158837
-0.157421
-0.156879
-0.156134
-0.155225
-0.154237
-0.153216
-0.152145
-0.150978
-0.149482
-0.134526
-0.147677
-0.148037
-0.147466
-0.14659
-0.145659
-0.14474
-0.143876
-0.143182
-0.142491
-0.14176
-0.14109
-0.140761
-0.140989
-0.141535
-0.142146
-0.142749
-0.143055
-0.143326
-0.143632
-0.143923
-0.144256
-0.14467
-0.145109
-0.145375
-0.145531
-0.145716
-0.146085
-0.146733
-0.147272
-0.147299
-0.145838
-0.141108
-0.131692
0
0
-0.023692
-0.0551877
-0.0787882
-0.0977587
-0.11329
-0.126144
-0.137244
-0.146435
-0.153509
-0.158271
-0.160854
-0.162274
-0.162594
-0.160166
-0.160314
-0.160109
-0.15963
-0.159561
-0.158204
-0.156856
-0.155626
-0.154502
-0.153457
-0.152384
-0.151241
-0.149975
-0.148453
-0.148174
-0.147839
-0.147221
-0.146398
-0.145424
-0.144318
-0.143109
-0.14271
-0.142441
-0.14226
-0.142135
-0.142145
-0.142283
-0.142534
-0.142918
-0.14646
-0.143418
-0.143428
-0.143693
-0.143885
-0.144114
-0.144432
-0.144837
-0.145179
-0.145364
-0.145494
-0.145831
-0.146718
-0.147285
-0.147344
-0.145925
-0.141129
-0.131703
0
0
-0.0236907
-0.0551838
-0.0787663
-0.0976778
-0.113293
-0.126437
-0.13758
-0.146651
-0.153561
-0.158014
-0.161295
-0.162969
-0.163725
-0.164982
-0.16336
-0.161772
-0.160491
-0.159451
-0.158185
-0.156902
-0.155698
-0.154619
-0.153691
-0.152636
-0.151514
-0.150405
-0.149392
-0.148658
-0.14797
-0.147181
-0.146236
-0.145001
-0.14314
-0.139733
-0.140883
-0.14144
-0.142086
-0.142444
-0.142659
-0.142835
-0.143025
-0.143261
-0.143536
-0.143477
-0.143397
-0.143776
-0.143846
-0.143982
-0.144267
-0.144774
-0.145215
-0.145329
-0.145305
-0.145494
-0.146782
-0.147295
-0.147435
-0.146153
-0.141179
-0.131656
0
0
-0.02369
-0.0551829
-0.0787621
-0.0976745
-0.113356
-0.126664
-0.138093
-0.146966
-0.15347
-0.140207
-0.161035
-0.163196
-0.163916
-0.164036
-0.163082
-0.161839
-0.160728
-0.159332
-0.158
-0.156753
-0.155606
-0.154629
-0.153961
-0.152831
-0.151646
-0.150579
-0.149664
-0.148882
-0.148118
-0.14724
-0.146188
-0.144548
-0.140817
-0.0673092
-0.136848
-0.130789
-0.141503
-0.142476
-0.142892
-0.143122
-0.143313
-0.143499
-0.143586
-0.143562
-0.14353
-0.143649
-0.143707
-0.143802
-0.14406
-0.144814
-0.145575
-0.145214
-0.145204
-0.145542
-0.146386
-0.147045
-0.147399
-0.146488
-0.141161
-0.131503
0
0
-0.0236913
-0.0551886
-0.0787725
-0.0976996
-0.11344
-0.126962
-0.148251
-0.147704
-0.154199
-0.158378
-0.161868
-0.163573
-0.163957
-0.163554
-0.162649
-0.161697
-0.166201
-0.159418
-0.157897
-0.156611
-0.155458
-0.154491
-0.154116
-0.152643
-0.151424
-0.150455
-0.14965
-0.148982
-0.148181
-0.147376
-0.14653
-0.144985
-0.142562
-0.138373
-0.140142
-0.141151
-0.142258
-0.14286
-0.143165
-0.143354
-0.143548
-0.143772
-0.143751
-0.143645
-0.143566
-0.143556
-0.143563
-0.143581
-0.143671
-0.144605
-0.14572
-0.144774
-0.144974
-0.14541
-0.146013
-0.146571
-0.146872
-0.146466
-0.14073
-0.131183
0
0
-0.0236951
-0.0552014
-0.0787905
-0.0977188
-0.113452
-0.126888
-0.138578
-0.14776
-0.15472
-0.159505
-0.162485
-0.16383
-0.163963
-0.163341
-0.162343
-0.161278
-0.160405
-0.159003
-0.157685
-0.156453
-0.155242
-0.153908
-0.151823
-0.151284
-0.150722
-0.15014
-0.149499
-0.148724
-0.148144
-0.147632
-0.15244
-0.145926
-0.144434
-0.143147
-0.14298
-0.14307
-0.143259
-0.143393
-0.14347
-0.14355
-0.143733
-0.144094
-0.143877
-0.143639
-0.143508
-0.143458
-0.143443
-0.143426
-0.143366
-0.143199
-0.142168
-0.144018
-0.144679
-0.145182
-0.14565
-0.145867
-0.145123
-0.142145
-0.139176
-0.130754
0
0
-0.0237034
-0.0552262
-0.0788209
-0.0977371
-0.113436
-0.126788
-0.138244
-0.148026
-0.155042
-0.159774
-0.16258
-0.16379
-0.163828
-0.163133
-0.162064
-0.160875
-0.159775
-0.158653
-0.157524
-0.156374
-0.155189
-0.154502
-0.152504
-0.15159
-0.150773
-0.150228
-0.149653
-0.148994
-0.148369
-0.147789
-0.147311
-0.146351
-0.145459
-0.144774
-0.144356
-0.144101
-0.143935
-0.143806
-0.143699
-0.14363
-0.143698
-0.144226
-0.143663
-0.143413
-0.143339
-0.143331
-0.14334
-0.143343
-0.143313
-0.143215
-0.143077
-0.143836
-0.144457
-0.144984
-0.145457
-0.145737
-0.145358
-0.143379
-0.139327
-0.130642
0
0
-0.0237223
-0.05528
-0.078885
-0.097772
-0.113417
-0.12668
-0.138052
-0.148317
-0.154764
-0.159334
-0.162163
-0.163447
-0.163549
-0.162882
-0.161793
-0.160495
-0.159499
-0.158576
-0.157568
-0.156454
-0.155241
-0.154094
-0.152929
-0.151881
-0.150839
-0.150549
-0.150008
-0.149334
-0.148642
-0.147975
-0.147325
-0.146628
-0.145979
-0.145434
-0.144992
-0.144632
-0.144331
-0.144067
-0.143821
-0.143544
-0.143082
-0.142065
-0.142584
-0.142933
-0.143109
-0.143197
-0.14325
-0.143292
-0.143336
-0.1434
-0.14355
-0.143929
-0.144384
-0.144875
-0.145394
-0.145872
-0.147757
-0.144184
-0.139659
-0.130681
0
0
-0.0237679
-0.0554088
-0.0790369
-0.0978525
-0.113412
-0.126499
-0.137271
-0.144858
-0.152469
-0.158015
-0.161419
-0.16302
-0.163286
-0.162704
-0.161682
-0.16003
-0.159448
-0.158816
-0.157877
-0.15672
-0.155372
-0.154272
-0.153231
-0.15213
-0.15078
-0.151117
-0.150455
-0.149652
-0.148882
-0.148164
-0.147492
-0.146862
-0.146291
-0.145788
-0.145342
-0.144942
-0.144576
-0.144236
-0.143907
-0.143562
-0.143156
-0.142708
-0.14277
-0.142932
-0.143054
-0.14313
-0.143184
-0.143242
-0.143326
-0.143455
-0.143657
-0.14395
-0.144328
-0.144791
-0.145332
-0.145845
-0.145906
-0.144364
-0.139815
-0.130735
0
0
-0.0238807
-0.0557486
-0.0793952
-0.0980311
-0.113512
-0.126534
-0.137333
-0.145868
-0.152959
-0.158194
-0.161477
-0.163035
-0.163292
-0.16275
-0.166941
-0.159255
-0.159836
-0.159485
-0.158455
-0.157179
-0.155625
-0.154692
-0.153701
-0.152684
-0.151721
-0.151246
-0.150547
-0.149765
-0.149
-0.148287
-0.147634
-0.147041
-0.14651
-0.146035
-0.145592
-0.145167
-0.144755
-0.144357
-0.14397
-0.143597
-0.14327
-0.143063
-0.143026
-0.143057
-0.143087
-0.143106
-0.143126
-0.143172
-0.143263
-0.143406
-0.14361
-0.143882
-0.144233
-0.14468
-0.145233
-0.145765
-0.145772
-0.144335
-0.139878
-0.130773
0
0
-0.0241536
-0.0568076
-0.0800305
-0.0985076
-0.113832
-0.126763
-0.137606
-0.146482
-0.153509
-0.158587
-0.16174
-0.16321
-0.163385
-0.162645
-0.161119
-0.157271
-0.160982
-0.160349
-0.159
-0.157808
-0.156995
-0.155599
-0.154324
-0.15324
-0.152448
-0.151547
-0.150643
-0.149803
-0.149041
-0.148352
-0.147731
-0.147178
-0.146692
-0.146261
-0.145826
-0.145372
-0.144908
-0.144446
-0.14399
-0.143557
-0.14323
-0.143139
-0.143149
-0.14315
-0.143118
-0.143073
-0.143039
-0.143052
-0.143134
-0.143276
-0.14348
-0.143749
-0.144089
-0.144522
-0.145099
-0.145708
-0.145709
-0.144251
-0.139908
-0.130813
0
0
-0.0246542
-0.077644
-0.0814816
-0.0991346
-0.114158
-0.126952
-0.137756
-0.146658
-0.153697
-0.158753
-0.161883
-0.163341
-0.163506
-0.162761
-0.161449
-0.159643
-0.160068
-0.159612
-0.15866
-0.157594
-0.15661
-0.155483
-0.154365
-0.153371
-0.152775
-0.151585
-0.150593
-0.149764
-0.14904
-0.148393
-0.147813
-0.147305
-0.146882
-0.146529
-0.146095
-0.145587
-0.14505
-0.144507
-0.143957
-0.143388
-0.142984
-0.143091
-0.143221
-0.14321
-0.143097
-0.142956
-0.142832
-0.142794
-0.142867
-0.143018
-0.143248
-0.143548
-0.143899
-0.144319
-0.144946
-0.145708
-0.145734
-0.144314
-0.139827
-0.130852
0
0
-0.0242329
-0.0570394
-0.0802328
-0.0986749
-0.113915
-0.126803
-0.137593
-0.146348
-0.153519
-0.158665
-0.161865
-0.163391
-0.163622
-0.162951
-0.162087
-0.160984
-0.160218
-0.159365
-0.158388
-0.157362
-0.156339
-0.15531
-0.154264
-0.153123
-0.15156
-0.150928
-0.150317
-0.149681
-0.149047
-0.148451
-0.147908
-0.147442
-0.147101
-0.146897
-0.146414
-0.145795
-0.145162
-0.144543
-0.143915
-0.143067
-0.142446
-0.143074
-0.143358
-0.143233
-0.142911
-0.142556
-0.142276
-0.142166
-0.142238