# vtk DataFile Version 2.0
FlowField
ASCII
DATASET STRUCTURED_GRID
DIMENSIONS 62 47 32 
POINTS 93248 double
0 0 0
0.01 0 0
0.02 0 0
0.03 0 0
0.04 0 0
0.05 0 0
0.06 0 0
0.07 0 0
0.08 0 0
0.09 0 0
0.1 0 0
0.11 0 0
0.12 0 0
0.13 0 0
0.14 0 0
0.15 0 0
0.16 0 0
0.17 0 0
0.18 0 0
0.19 0 0
0.2 0 0
0.21 0 0
0.22 0 0
0.23 0 0
0.24 0 0
0.25 0 0
0.26 0 0
0.27 0 0
0.28 0 0
0.29 0 0
0.3 0 0
0.31 0 0
0.32 0 0
0.33 0 0
0.34 0 0
0.35 0 0
0.36 0 0
0.37 0 0
0.38 0 0
0.39 0 0
0.4 0 0
0.41 0 0
0.42 0 0
0.43 0 0
0.44 0 0
0.45 0 0
0.46 0 0
0.47 0 0
0.48 0 0
0.49 0 0
0.5 0 0
0.51 0 0
0.52 0 0
0.53 0 0
0.54 0 0
0.55 0 0
0.56 0 0
0.57 0 0
0.58 0 0
0.59 0 0
0.6 0 0
0.61 0 0
0 0.01 0
0.01 0.01 0
0.02 0.01 0
0.03 0.01 0
0.04 0.01 0
0.05 0.01 0
0.06 0.01 0
0.07 0.01 0
0.08 0.01 0
0.09 0.01 0
0.1 0.01 0
0.11 0.01 0
0.12 0.01 0
0.13 0.01 0
0.14 0.01 0
0.15 0.01 0
0.16 0.01 0
0.17 0.01 0
0.18 0.01 0
0.19 0.01 0
0.2 0.01 0
0.21 0.01 0
0.22 0.01 0
0.23 0.01 0
0.24 0.01 0
0.25 0.01 0
0.26 0.01 0
0.27 0.01 0
0.28 0.01 0
0.29 0.01 0
0.3 0.01 0
0.31 0.01 0
0.32 0.01 0
0.33 0.01 0
0.34 0.01 0
0.35 0.01 0
0.36 0.01 0
0.37 0.01 0
0.38 0.01 0
0.39 0.01 0
0.4 0.01 0
0.41 0.01 0
0.42 0.01 0
0.43 0.01 0
0.44 0.01 0
0.45 0.01 0
0.46 0.01 0
0.47 0.01 0
0.48 0.01 0
0.49 0.01 0
0.5 0.01 0
0.51 0.01 0
0.52 0.01 0
0.53 0.01 0
0.54 0.01 0
0.55 0.01 0
0.56 0.01 0
0.57 0.01 0
0.58 0.01 0
0.59 0.01 0
0.6 0.01 0
0.61 0.01 0
0 0.02 0
0.01 0.02 0
0.02 0.02 0
0.03 0.02 0
0.04 0.02 0
0.05 0.02 0
0.06 0.02 0
0.07 0.02 0
0.08 0.02 0
0.09 0.02 0
0.1 0.02 0
0.11 0.02 0
0.12 0.02 0
0.13 0.02 0
0.14 0.02 0
0.15 0.02 0
0.16 0.02 0
0.17 0.02 0
0.18 0.02 0
0.19 0.02 0
0.2 0.02 0
0.21 0.02 0
0.22 0.02 0
0.23 0.02 0
0.24 0.02 0
0.25 0.02 0
0.26 0.02 0
0.27 0.02 0
0.28 0.02 0
0.29 0.02 0
0.3 0.02 0
0.31 0.02 0
0.32 0.02 0
0.33 0.02 0
0.34 0.02 0
0.35 0.02 0
0.36 0.02 0
0.37 0.02 0
0.38 0.02 0
0.39 0.02 0
0.4 0.02 0
0.41 0.02 0
0.42 0.02 0
0.43 0.02 0
0.44 0.02 0
0.45 0.02 0
0.46 0.02 0
0.47 0.02 0
0.48 0.02 0
0.49 0.02 0
0.5 0.02 0
0.51 0.02 0
0.52 0.02 0
0.53 0.02 0
0.54 0.02 0
0.55 0.02 0
0.56 0.02 0
0.57 0.02 0
0.58 0.02 0
0.59 0.02 0
0.6 0.02 0
0.61 0.02 0
0 0.03 0
0.01 0.03 0
0.02 0.03 0
0.03 0.03 0
0.04 0.03 0
0.05 0.03 0
0.06 0.03 0
0.07 0.03 0
0.08 0.03 0
0.09 0.03 0
0.1 0.03 0
0.11 0.03 0
0.12 0.03 0
0.13 0.03 0
0.14 0.03 0
0.15 0.03 0
0.16 0.03 0
0.17 0.03 0
0.18 0.03 0
0.19 0.03 0
0.2 0.03 0
0.21 0.03 0
0.22 0.03 0
0.23 0.03 0
0.24 0.03 0
0.25 0.03 0
0.26 0.03 0
0.27 0.03 0
0.28 0.03 0
0.29 0.03 0
0.3 0.03 0
0.31 0.03 0
0.32 0.03 0
0.33 0.03 0
0.34 0.03 0
0.35 0.03 0
0.36 0.03 0
0.37 0.03 0
0.38 0.03 0
0.39 0.03 0
0.4 0.03 0
0.41 0.03 0
0.42 0.03 0
0.43 0.03 0
0.44 0.03 0
0.45 0.03 0
0.46 0.03 0
0.47 0.03 0
0.48 0.03 0
0.49 0.03 0
0.5 0.03 0
0.51 0.03 0
0.52 0.03 0
0.53 0.03 0
0.54 0.03 0
0.55 0.03 0
0.56 0.03 0
0.57 0.03 0
0.58 0.03 0
0.59 0.03 0
0.6 0.03 0
0.61 0.03 0
0 0.04 0
0.01 0.04 0
0.02 0.04 0
0.03 0.04 0
0.04 0.04 0
0.05 0.04 0
0.06 0.04 0
0.07 0.04 0
0.08 0.04 0
0.09 0.04 0
0.1 0.04 0
0.11 0.04 0
0.12 0.04 0
0.13 0.04 0
0.14 0.04 0
0.15 0.04 0
0.16 0.04 0
0.17 0.04 0
0.18 0.04 0
0.19 0.04 0
0.2 0.04 0
0.21 0.04 0
0.22 0.04 0
0.23 0.04 0
0.24 0.04 0
0.25 0.04 0
0.26 0.04 0
0.27 0.04 0
0.28 0.04 0
0.29 0.04 0
0.3 0.04 0
0.31 0.04 0
0.32 0.04 0
0.33 0.04 0
0.34 0.04 0
0.35 0.04 0
0.36 0.04 0
0.37 0.04 0
0.38 0.04 0
0.39 0.04 0
0.4 0.04 0
0.41 0.04 0
0.42 0.04 0
0.43 0.04 0
0.44 0.04 0
0.45 0.04 0
0.46 0.04 0
0.47 0.04 0
0.48 0.04 0
0.49 0.04 0
0.5 0.04 0
0.51 0.04 0
0.52 0.04 0
0.53 0.04 0
0.54 0.04 0
0.55 0.04 0
0.56 0.04 0
0.57 0.04 0
0.58 0.04 0
0.59 0.04 0
0.6 0.04 0
0.61 0.04 0
0 0.05 0
0.01 0.05 0
0.02 0.05 0
0.03 0.05 0
0.04 0.05 0
0.05 0.05 0
0.06 0.05 0
0.07 0.05 0
0.08 0.05 0
0.09 0.05 0
0.1 0.05 0
0.11 0.05 0
0.12 0.05 0
0.13 0.05 0
0.14 0.05 0
0.15 0.05 0
0.16 0.05 0
0.17 0.05 0
0.18 0.05 0
0.19 0.05 0
0.2 0.05 0
0.21 0.05 0
0.22 0.05 0
0.23 0.05 0
0.24 0.05 0
0.25 0.05 0
0.26 0.05 0
0.27 0.05 0
0.28 0.05 0
0.29 0.05 0
0.3 0.05 0
0.31 0.05 0
0.32 0.05 0
0.33 0.05 0
0.34 0.05 0
0.35 0.05 0
0.36 0.05 0
0.37 0.05 0
0.38 0.05 0
0.39 0.05 0
0.4 0.05 0
0.41 0.05 0
0.42 0.05 0
0.43 0.05 0
0.44 0.05 0
0.45 0.05 0
0.46 0.05 0
0.47 0.05 0
0.48 0.05 0
0.49 0.05 0
0.5 0.05 0
0.51 0.05 0
0.52 0.05 0
0.53 0.05 0
0.54 0.05 0
0.55 0.05 0
0.56 0.05 0
0.57 0.05 0
0.58 0.05 0
0.59 0.05 0
0.6 0.05 0
0.61 0.05 0
0 0.06 0
0.01 0.06 0
0.02 0.06 0
0.03 0.06 0
0.04 0.06 0
0.05 0.06 0
0.06 0.06 0
0.07 0.06 0
0.08 0.06 0
0.09 0.06 0
0.1 0.06 0
0.11 0.06 0
0.12 0.06 0
0.13 0.06 0
0.14 0.06 0
0.15 0.06 0
0.16 0.06 0
0.17 0.06 0
0.18 0.06 0
0.19 0.06 0
0.2 0.06 0
0.21 0.06 0
0.22 0.06 0
0.23 0.06 0
0.24 0.06 0
0.25 0.06 0
0.26 0.06 0
0.27 0.06 0
0.28 0.06 0
0.29 0.06 0
0.3 0.06 0
0.31 0.06 0
0.32 0.06 0
0.33 0.06 0
0.34 0.06 0
0.35 0.06 0
0.36 0.06 0
0.37 0.06 0
0.38 0.06 0
0.39 0.06 0
0.4 0.06 0
0.41 0.06 0
0.42 0.06 0
0.43 0.06 0
0.44 0.06 0
0.45 0.06 0
0.46 0.06 0
0.47 0.06 0
0.48 0.06 0
0.49 0.06 0
0.5 0.06 0
0.51 0.06 0
0.52 0.06 0
0.53 0.06 0
0.54 0.06 0
0.55 0.06 0
0.56 0.06 0
0.57 0.06 0
0.58 0.06 0
0.59 0.06 0
0.6 0.06 0
0.61 0.06 0
0 0.07 0
0.01 0.07 0
0.02 0.07 0
0.03 0.07 0
0.04 0.07 0
0.05 0.07 0
0.06 0.07 0
0.07 0.07 0
0.08 0.07 0
0.09 0.07 0
0.1 0.07 0
0.11 0.07 0
0.12 0.07 0
0.13 0.07 0
0.14 0.07 0
0.15 0.07 0
0.16 0.07 0
0.17 0.07 0
0.18 0.07 0
0.19 0.07 0
0.2 0.07 0
0.21 0.07 0
0.22 0.07 0
0.23 0.07 0
0.24 0.07 0
0.25 0.07 0
0.26 0.07 0
0.27 0.07 0
0.28 0.07 0
0.29 0.07 0
0.3 0.07 0
0.31 0.07 0
0.32 0.07 0
0.33 0.07 0
0.34 0.07 0
0.35 0.07 0
0.36 0.07 0
0.37 0.07 0
0.38 0.07 0
0.39 0.07 0
0.4 0.07 0
0.41 0.07 0
0.42 0.07 0
0.43 0.07 0
0.44 0.07 0
0.45 0.07 0
0.46 0.07 0
0.47 0.07 0
0.48 0.07 0
0.49 0.07 0
0.5 0.07 0
0.51 0.07 0
0.52 0.07 0
0.53 0.07 0
0.54 0.07 0
0.55 0.07 0
0.56 0.07 0
0.57 0.07 0
0.58 0.07 0
0.59 0.07 0
0.6 0.07 0
0.61 0.07 0
0 0.08 0
0.01 0.08 0
0.02 0.08 0
0.03 0.08 0
0.04 0.08 0
0.05 0.08 0
0.06 0.08 0
0.07 0.08 0
0.08 0.08 0
0.09 0.08 0
0.1 0.08 0
0.11 0.08 0
0.12 0.08 0
0.13 0.08 0
0.14 0.08 0
0.15 0.08 0
0.16 0.08 0
0.17 0.08 0
0.18 0.08 0
0.19 0.08 0
0.2 0.08 0
0.21 0.08 0
0.22 0.08 0
0.23 0.08 0
0.24 0.08 0
0.25 0.08 0
0.26 0.08 0
0.27 0.08 0
0.28 0.08 0
0.29 0.08 0
0.3 0.08 0
0.31 0.08 0
0.32 0.08 0
0.33 0.08 0
0.34 0.08 0
0.35 0.08 0
0.36 0.08 0
0.37 0.08 0
0.38 0.08 0
0.39 0.08 0
0.4 0.08 0
0.41 0.08 0
0.42 0.08 0
0.43 0.08 0
0.44 0.08 0
0.45 0.08 0
0.46 0.08 0
0.47 0.08 0
0.48 0.08 0
0.49 0.08 0
0.5 0.08 0
0.51 0.08 0
0.52 0.08 0
0.53 0.08 0
0.54 0.08 0
0.55 0.08 0
0.56 0.08 0
0.57 0.08 0
0.58 0.08 0
0.59 0.08 0
0.6 0.08 0
0.61 0.08 0
0 0.09 0
0.01 0.09 0
0.02 0.09 0
0.03 0.09 0
0.04 0.09 0
0.05 0.09 0
0.06 0.09 0
0.07 0.09 0
0.08 0.09 0
0.09 0.09 0
0.1 0.09 0
0.11 0.09 0
0.12 0.09 0
0.13 0.09 0
0.14 0.09 0
0.15 0.09 0
0.16 0.09 0
0.17 0.09 0
0.18 0.09 0
0.19 0.09 0
0.2 0.09 0
0.21 0.09 0
0.22 0.09 0
0.23 0.09 0
0.24 0.09 0
0.25 0.09 0
0.26 0.09 0
0.27 0.09 0
0.28 0.09 0
0.29 0.09 0
0.3 0.09 0
0.31 0.09 0
0.32 0.09 0
0.33 0.09 0
0.34 0.09 0
0.35 0.09 0
0.36 0.09 0
0.37 0.09 0
0.38 0.09 0
0.39 0.09 0
0.4 0.09 0
0.41 0.09 0
0.42 0.09 0
0.43 0.09 0
0.44 0.09 0
0.45 0.09 0
0.46 0.09 0
0.47 0.09 0
0.48 0.09 0
0.49 0.09 0
0.5 0.09 0
0.51 0.09 0
0.52 0.09 0
0.53 0.09 0
0.54 0.09 0
0.55 0.09 0
0.56 0.09 0
0.57 0.09 0
0.58 0.09 0
0.59 0.09 0
0.6 0.09 0
0.61 0.09 0
0 0.1 0
0.01 0.1 0
0.02 0.1 0
0.03 0.1 0
0.04 0.1 0
0.05 0.1 0
0.06 0.1 0
0.07 0.1 0
0.08 0.1 0
0.09 0.1 0
0.1 0.1 0
0.11 0.1 0
0.12 0.1 0
0.13 0.1 0
0.14 0.1 0
0.15 0.1 0
0.16 0.1 0
0.17 0.1 0
0.18 0.1 0
0.19 0.1 0
0.2 0.1 0
0.21 0.1 0
0.22 0.1 0
0.23 0.1 0
0.24 0.1 0
0.25 0.1 0
0.26 0.1 0
0.27 0.1 0
0.28 0.1 0
0.29 0.1 0
0.3 0.1 0
0.31 0.1 0
0.32 0.1 0
0.33 0.1 0
0.34 0.1 0
0.35 0.1 0
0.36 0.1 0
0.37 0.1 0
0.38 0.1 0
0.39 0.1 0
0.4 0.1 0
0.41 0.1 0
0.42 0.1 0
0.43 0.1 0
0.44 0.1 0
0.45 0.1 0
0.46 0.1 0
0.47 0.1 0
0.48 0.1 0
0.49 0.1 0
0.5 0.1 0
0.51 0.1 0
0.52 0.1 0
0.53 0.1 0
0.54 0.1 0
0.55 0.1 0
0.56 0.1 0
0.57 0.1 0
0.58 0.1 0
0.59 0.1 0
0.6 0.1 0
0.61 0.1 0
0 0.11 0
0.01 0.11 0
0.02 0.11 0
0.03 0.11 0
0.04 0.11 0
0.05 0.11 0
0.06 0.11 0
0.07 0.11 0
0.08 0.11 0
0.09 0.11 0
0.1 0.11 0
0.11 0.11 0
0.12 0.11 0
0.13 0.11 0
0.14 0.11 0
0.15 0.11 0
0.16 0.11 0
0.17 0.11 0
0.18 0.11 0
0.19 0.11 0
0.2 0.11 0
0.21 0.11 0
0.22 0.11 0
0.23 0.11 0
0.24 0.11 0
0.25 0.11 0
0.26 0.11 0
0.27 0.11 0
0.28 0.11 0
0.29 0.11 0
0.3 0.11 0
0.31 0.11 0
0.32 0.11 0
0.33 0.11 0
0.34 0.11 0
0.35 0.11 0
0.36 0.11 0
0.37 0.11 0
0.38 0.11 0
0.39 0.11 0
0.4 0.11 0
0.41 0.11 0
0.42 0.11 0
0.43 0.11 0
0.44 0.11 0
0.45 0.11 0
0.46 0.11 0
0.47 0.11 0
0.48 0.11 0
0.49 0.11 0
0.5 0.11 0
0.51 0.11 0
0.52 0.11 0
0.53 0.11 0
0.54 0.11 0
0.55 0.11 0
0.56 0.11 0
0.57 0.11 0
0.58 0.11 0
0.59 0.11 0
0.6 0.11 0
0.61 0.11 0
0 0.12 0
0.01 0.12 0
0.02 0.12 0
0.03 0.12 0
0.04 0.12 0
0.05 0.12 0
0.06 0.12 0
0.07 0.12 0
0.08 0.12 0
0.09 0.12 0
0.1 0.12 0
0.11 0.12 0
0.12 0.12 0
0.13 0.12 0
0.14 0.12 0
0.15 0.12 0
0.16 0.12 0
0.17 0.12 0
0.18 0.12 0
0.19 0.12 0
0.2 0.12 0
0.21 0.12 0
0.22 0.12 0
0.23 0.12 0
0.24 0.12 0
0.25 0.12 0
0.26 0.12 0
0.27 0.12 0
0.28 0.12 0
0.29 0.12 0
0.3 0.12 0
0.31 0.12 0
0.32 0.12 0
0.33 0.12 0
0.34 0.12 0
0.35 0.12 0
0.36 0.12 0
0.37 0.12 0
0.38 0.12 0
0.39 0.12 0
0.4 0.12 0
0.41 0.12 0
0.42 0.12 0
0.43 0.12 0
0.44 0.12 0
0.45 0.12 0
0.46 0.12 0
0.47 0.12 0
0.48 0.12 0
0.49 0.12 0
0.5 0.12 0
0.51 0.12 0
0.52 0.12 0
0.53 0.12 0
0.54 0.12 0
0.55 0.12 0
0.56 0.12 0
0.57 0.12 0
0.58 0.12 0
0.59 0.12 0
0.6 0.12 0
0.61 0.12 0
0 0.13 0
0.01 0.13 0
0.02 0.13 0
0.03 0.13 0
0.04 0.13 0
0.05 0.13 0
0.06 0.13 0
0.07 0.13 0
0.08 0.13 0
0.09 0.13 0
0.1 0.13 0
0.11 0.13 0
0.12 0.13 0
0.13 0.13 0
0.14 0.13 0
0.15 0.13 0
0.16 0.13 0
0.17 0.13 0
0.18 0.13 0
0.19 0.13 0
0.2 0.13 0
0.21 0.13 0
0.22 0.13 0
0.23 0.13 0
0.24 0.13 0
0.25 0.13 0
0.26 0.13 0
0.27 0.13 0
0.28 0.13 0
0.29 0.13 0
0.3 0.13 0
0.31 0.13 0
0.32 0.13 0
0.33 0.13 0
0.34 0.13 0
0.35 0.13 0
0.36 0.13 0
0.37 0.13 0
0.38 0.13 0
0.39 0.13 0
0.4 0.13 0
0.41 0.13 0
0.42 0.13 0
0.43 0.13 0
0.44 0.13 0
0.45 0.13 0
0.46 0.13 0
0.47 0.13 0
0.48 0.13 0
[...]
POINT_DATA 93248

SCALARS v double
LOOKUP_TABLE default
0
0
0
0
0
0
0
0
0
0
0
0
0
0
0
0
0
0
0
0
0
0
0
0
0
0
0
0
0
0
0
0
0
0
0
0
0
0
-0.104056
0
0
0
0
0
-0.109647
0
0
0
0
0
0
0
0
0
0
0
0
0
0
0
0
0
0
0.0441044
-0.0850429
0.0463509
0.0325308
0.015341
0
-0.00731021
-0.0147861
-0.0194468
-0.0224848
-0.0256625
-0.0320198
-0.0316689
-0.0321109
-0.0327364
-0.0332598
-0.0324741
-0.0319379
-0.0309183
-0.0404938
-0.0339179
-0.0274576
-0.0323469
-0.032812
-0.0327198
-0.032653
-0.0326166
-0.0325581
-0.032424
-0.0322024
-0.0323182
-0.0346256
-0.0323911
-0.0314741
-0.0320445
-0.0732366
-0.0306756
-0.0296212
-0.0275963
-0.0350305
-0.0658364
-0.0350549
-0.0365788
-0.0422311
-0.0652897
-0.138081
-0.0345198
-0.0476914
-0.0321161
-0.0320728
-0.0308238
-0.0355238
-0.0425208
-0.0676523
-0.0406467
-0.0975186
-0.0331172
-0.0281465
-0.024694
-0.0203852
0
0
0.0256075
0.0492765
0.0567961
0.0525731
0.0345729
0.0291337
0.018038
0.00652943
-0.00417956
-0.0130925
-0.0214518
-0.13519
-0.0374909
-0.0407478
-0.0409434
-0.0456765
-0.0444699
-0.0462101
-0.0490468
-0.180739
-0.047487
-0.053481
-0.0476314
-0.0460762
-0.0456325
-0.0454996
-0.0454363
-0.0453367
-0.0451134
-0.0446804
-0.0444102
-0.109522
-0.044444
-0.0438954
-0.0456043
-0.0452248
-0.0423262
-0.0404098
-0.0442412
-0.0478399
-0.0504391
-0.0503219
-0.0526433
-0.055701
-0.0605231
-0.0581078
-0.0503359
-0.0476914
-0.046059
-0.0469889
-0.0515514
-0.0503264
-0.0535812
-0.058154
-0.0512706
-0.047314
-0.112223
-0.0355468
-0.0313863
-0.0281941
0
0
0.013029
0.033627
0.0424507
0.0512069
0.0549661
0.041852
0.0306857
0.0194109
0.0081777
-0.00325572
-0.0137462
-0.0265589
-0.0339061
-0.040357
-0.0461696
-0.0501577
0
-0.0525479
-0.0549509
-0.0581249
-0.0560233
-0.0558327
-0.0542913
-0.0533493
-0.0529211
-0.052743
-0.0526532
-0.0525621
-0.0524321
-0.0523483
-0.0528239
-0.0552383
-0.0562929
-0.0551344
-0.0515207
-0.0507058
-0.0498445
-0.0499314
-0.0523531
-0.0546255
-0.0569143
-0.0588733
-0.0589248
-0.0609223
-0.0621713
-0.0574728
-0.0556626
-0.0543835
-0.0545912
-0.0548026
-0.0557674
-0.0559012
-0.0563879
-0.0560984
-0.0535078
-0.0502529
-0.0469189
-0.0399224
-0.0360472
-0.035031
0
0
0.0075368
0.022972
0.0370624
0.0398444
0.0409907
0.0359421
0.0285244
0.0197179
0.0101952
0.000288493
-0.00954064
-0.0194772
-0.0279499
-0.0358549
-0.044407
-0.047616
-0.0498902
-0.0535249
-0.0565622
-0.0572085
-0.0575206
-0.0575736
-0.057316
-0.0570704
-0.0569257
-0.0568372
-0.0567878
-0.0567472
-0.0567073
-0.056741
-0.057073
-0.0580528
-0.0597368
-0.058937
-0.0567873
-0.055578
-0.0551591
-0.0555229
-0.0570365
-0.0585489
-0.0600705
-0.0614371
-0.0621306
-0.06288
-0.0622458
-0.0574519
-0.0584964
-0.0585022
-0.0584714
-0.0583205
-0.05813
-0.0576879
-0.0568187
-0.0553015
-0.0530801
-0.0499315
-0.0459338
-0.0411257
-0.0381927
-0.0407612
0
0
0.0045093
0.0144525
0.0226225
0.0262896
0.0271241
0.0247447
0.0194542
0.0126664
0.00527202
-0.0024956
-0.0102912
-0.0179
-0.0248322
-0.0311485
-0.0348629
-0.0433754
-0.0481367
-0.0523449
-0.0546821
-0.0563708
-0.0576413
-0.0584408
-0.0589077
-0.0591964
-0.0593903
-0.0594561
-0.0595143
-0.0595601
-0.0595661
-0.0595246
-0.0594703
-0.059822
-0.0634544
-0.0616839
-0.0600125
-0.0591508
-0.0590016
-0.0594372
-0.060271
-0.061192
-0.06209
-0.0628884
-0.0635424
-0.0639874
-0.0635849
0
-0.0605485
-0.0608616
-0.0605519
-0.0600795
-0.0594233
-0.0584608
-0.0570114
-0.0551133
-0.0527977
-0.0499173
-0.0466441
-0.0432911
-0.0397287
-0.0448672
-0.11762
0
0.00258062
0.00869087
0.0133782
0.0156309
0.0156787
0.0140403
0.0090301
0
-0.00223622
-0.00821076
-0.0142948
-0.020268
-0.0253399
-0.0304158
-0.0357942
-0.0426765
-0.0462467
-0.0484951
-0.0525042
-0.055443
-0.0576315
-0.059124
-0.0601253
-0.0608369
-0.0613637
-0.0615465
-0.0617661
-0.0619388
-0.0619881
-0.0618418
-0.0613962
-0.0608024
-0.144977
-0.0635309
-0.062311
-0.0619588
-0.0620471
-0.0624138
-0.0629112
-0.0634282
-0.063894
-0.0642529
-0.064549
-0.0644328
-0.0634995
-0.0609659
-0.0617152
-0.0620182
-0.0618052
-0.0612752
-0.0604709
-0.0593031
-0.0576495
-0.0557339
-0.0536121
-0.0513963
-0.0499262
-0.0514168
-0.0563727
-0.0458493
0
0
0.00125305
0.00473349
0.00710153
0.00777718
0.00659765
0.00326477
0.000605348
-0.00417412
-0.0093015
-0.0144547
-0.0197106
-0.0253703
-0.0282853
-0.0321163
-0.0369978
-0.0440449
-0.0465173
-0.0484737
-0.05237
-0.0556574
-0.0584241
-0.0602476
-0.0615275
-0.0625138
-0.0633319
-0.0635668
-0.0640416
-0.0643824
-0.0645068
-0.0643826
-0.0641686
-0.0645024
-0.0669551
-0.0659639
-0.0651999
-0.0649
-0.0649374
-0.0651502
-0.0654108
-0.0656511
-0.0658364
-0.0659413
-0.0657699
-0.0654368
-0.064737
-0.0638287
-0.063592
-0.0634352
-0.0630882
-0.0625135
-0.0617069
-0.0605737
-0.0588765
-0.0571829
-0.0554101
-0.0535139
-0.0516963
-0.10219
-0.0298549
-0.0441104
0
0
0.000296771
0.00191338
0.00262964
0.00204541
3.4978e-05
-0.00330364
-0.00690036
-0.0112717
-0.0158544
-0.0203825
-0.0253451
-0.0339054
-0.0248322
-0.0347817
-0.037649
-0.0382891
-0.0439175
-0.0507803
-0.0544942
-0.0573624
-0.0603854
-0.0619879
-0.0632531
-0.0643252
-0.0635668
-0.0661358
-0.0667412
-0.067151
-0.067323
-0.0671424
-0.0668408
-0.0670537
-0.0677787
-0.0678518
-0.067737
-0.0676641
-0.0677372
-0.0678546
-0.0679462
-0.0679845
-0.0679514
-0.0678179
-0.0675245
-0.0671093
-0.0665815
-0.0660525
-0.0656095
-0.0651742
-0.0646478
-0.0639973
-0.0632377
-0.0623843
-0.0605971
-0.059295
-0.0579609
-0.0565198
-0.0550059
-0.0530058
-0.0463293
-0.0453558
0
0
-0.000416463
-0.000165482
-0.000681048
-0.00225734
-0.00493405
-0.00855425
-0.0126795
-0.0171031
-0.0214271
-0.0252487
-0.0278011
-0.0244641
-0.0332442
-0.0379183
-0.0409434
-0.0434398
-0.0480986
-0.0527874
-0.0563733
-0.0590385
-0.0826943
-0.0639057
-0.065209
-0.0664665
-0.0677715
-0.0685728
-0.0694434
-0.0701327
-0.0704747
-0.0701435
-0.0691131
-0.069177
-0.0696808
-0.0700599
-0.0702646
-0.0703524
-0.0704984
-0.0705851
-0.070561
-0.0704542
-0.0702695
-0.0699941
-0.0696173
-0.0691716
-0.0686914
-0.0682077
-0.0676953
-0.0671186
-0.0664465
-0.0656874
-0.0648392
-0.0638537
-0.0626233
-0.0619006
-0.0608589
-0.0595888
-0.0580325
-0.0557511
-0.0518918
-0.0474949
0
0
-0.000966227
-0.00174819
-0.00321512
-0.00562278
-0.00889335
-0.0129219
-0.0174142
-0.0220296
-0.0263866
-0.0301324
-0.0329388
-0.034903
-0.0391337
-0.0429248
-0.0454896
-0.0486583
-0.052444
-0.0561038
-0.05928
-0.0619966
-0.0646514
-0.0662588
-0.0676031
-0.0687679
-0.069434
-0.0711264
-0.0724528
-0.0735193
-0.0742062
-0.0742525
-0.0701057
-0.0711024
-0.0720896
-0.0726665
-0.0730086
-0.0732366
-0.0732114
-0.0733515
-0.073252
-0.0730446
-0.0727628
-0.072403
-0.0719461
-0.0714605
-0.070967
-0.0704587
-0.0698959
-0.0692298
-0.0684419
-0.0675962
-0.0665802
-0.0654895
-0.0659718
-0.0650355
-0.0638728
-0.0625616
-0.0608992
-0.0584855
-0.0547867
-0.0498407
0
0
-0.00140586
-0.00299598
-0.00521085
-0.00978423
-0.0121629
-0.0166533
-0.0215226
-0.0264392
-0.031056
-0.0351337
-0.0386306
-0.0419347
-0.0455391
-0.04901
-0.050069
-0.0536829
-0.0571894
-0.0602803
-0.063056
-0.0653938
-0.0674448
-0.0690096
-0.0703268
-0.0715298
-0.0727343
-0.0742549
-0.0758808
-0.0773305
-0.0781977
-0.0783246
0
-0.0742142
-0.075165
-0.0755852
-0.0758771
-0.076112
-0.0762709
-0.076146
-0.0760067
-0.0757314
-0.0753923
-0.0750174
-0.074435
-0.0738933
-0.0733734
-0.0728416
-0.0722497
-0.0715246
-0.0706527
-0.069946
-0.0692095
-0.0685475
-0.0683349
-0.0676523
-0.0666542
-0.0653813
-0.0636533
-0.0611088
-0.0572542
-0.0521597
0
0
-0.00177398
-0.00403243
-0.00691808
-0.0105658
-0.0149841
-0.0199603
-0.0252522
-0.0305504
-0.0355516
-0.0400758
-0.0441296
-0.0479248
-0.0516917
-0.0556455
0
-0.0591652
-0.0623401
-0.0649204
-0.0674744
-0.0694246
-0.0709377
-0.0721901
-0.0733397
-0.0745095
-0.0758472
-0.0775321
-0.0796369
-0.0816046
-0.0823027
-0.0803722
-0.0768139
-0.0770912
-0.0777335
-0.0782629
-0.0786678
-0.0789799
-0.0791897
-0.0792082
-0.0789519
-0.078512
-0.0780932
-0.0780012
-0.0769989
-0.0764073
-0.0758826
-0.0753553
-0.0747755
-0.0740223
-0.0729929
-0.0726218
-0.0721643
-0.071583
-0.070982
-0.0702652
-0.0693489
-0.0681185
-0.0663435
-0.0636924
-0.0596693
-0.0544014
0
0
-0.00209379
-0.00492103
-0.00837152
-0.0123909
-0.0174987
-0.0229791
-0.0287233
-0.0344588
-0.0399004
-0.044126
-0.049352
-0.0534154
-0.0571208
-0.060258
-0.0616276
-0.0645922
-0.0671765
-0.0694288
-0.0724232
-0.0738936
-0.0748102
-0.0756369
-0.0765202
-0.0775343
-0.0788174
-0.0806474
-0.0834523
-0.0865907
-0.0894644
-0.0841538
-0.0810644
-0.0803961
-0.0806215
-0.0810542
-0.0814939
-0.0819055
-0.0822103
-0.0824458
-0.0820271
-0.0812782
-0.0804005
-0.0788671
-0.079191
-0.0789064
-0.0784558
-0.0779725
-0.0774638
-0.0767484
-0.0752753
-0.0755636
-0.0752763
-0.0746007
-0.0737846
-0.0730232
-0.072129
-0.0709049
-0.0690092
-0.066294
-0.0620617
-0.0565481
0
0
-0.0023837
-0.00572372
-0.00978423
-0.014772
-0.0199596
-0.025825
-0.0320166
-0.0382171
-0.044126
-0.0495377
-0.0543743
-0.0586684
-0.0624396
-0.0655829
-0.0680193
-0.0703271
-0.0722223
-0.0738431
-0.0784509
-0.0786425
-0.0787465
-0.0791491
-0.0797396
-0.0804828
-0.0814564
-0.0829767
-0.085957
-0.0595661
-0.109943
-0.0874958
-0.0832964
-0.0828727
-0.0832299
-0.0837148
-0.0842589
-0.0849358
-0.0858596
-0.0861254
-0.0853799
-0.0842109
-0.083158
-0.0823131
-0.0819362
-0.0815466
-0.0810855
-0.0806357
-0.0802299
-0.0797554
-0.0584714
-0.0789301
-0.0785389
-0.077655
-0.076477
-0.0759289
-0.0750816
-0.0739426
-0.0723014
-0.0690943
-0.0644653
-0.0585663
0
0
-0.0026501
-0.00641038
-0.0109485
-0.0162539
-0.0221143
-0.0284906
-0.0351653
-0.0418566
-0.0482485
-0.0540916
-0.0592602
-0.0638062
-0.0677685
-0.0711173
-0.0738427
-0.0759673
-0.0773567
-0.0778328
-0.164781
-0.0828425
-0.0824953
-0.0826943
-0.0830254
-0.0833663
-0.0836475
-0.0836273
-0.0821861
-0.0739954
-0.0367784
-0.0702414
-0.0800796
-0.0834983
-0.0850005
-0.0859104
-0.0867246
-0.0877561
-0.0891591
-0.0903791
-0.0893925
-0.0874728
-0.0860979
-0.0852893
-0.0847595
-0.0842688
-0.0837251
-0.0832478
-0.0827733
-0.0822461
-0.0815769
-0.0822328
-0.0817586
-0.0809902
-0.0807935
-0.0792468
-0.078161
-0.0771285
-0.0752667
-0.0720711
-0.066949
-0.0603864
0
0
-0.00293056
-0.00698243
-0.0120129
-0.0177957
-0.0241807
-0.0310289
-0.0381865
-0.0454014
-0.0523043
-0.0585855
-0.0640427
-0.0688511
-0.073073
-0.0766698
-0.0795611
-0.0817103
-0.083224
-0.0845976
-0.0875054
-0.0872775
-0.086924
-0.0867285
-0.0866077
-0.0864328
-0.086001
-0.084871
-0.0821012
-0.07669
-0.069964
-0.0767466
-0.0819223
-0.0849403
-0.086689
-0.0878484
-0.0888615
-0.090212
-0.0924353
-0.0956135
-0.095919
-0.0913521
-0.088995
-0.087995
-0.0874243
-0.0869054
-0.0862708
-0.0858261
-0.0853489
-0.084945
-0.0850642
-0.0862029
-0.0851124
-0.0840443
-0.0833269
-0.0823971
-0.0807663
-0.0807227
-0.0789279
-0.0757171
-0.0698871
-0.0618837
0
0
-0.00329895
-0.000165482
-0.0130923
-0.0193736
-0.0262415
-0.0333633
-0.0410815
-0.0489006
-0.0563658
-0.0630994
-0.0686949
-0.0737711
-0.0783232
-0.0822346
-0.0853147
-0.0875084
-0.0890211
-0.0902542
-0.0912842
-0.091403
-0.0911418
-0.0907671
-0.0903368
-0.0897915
-0.0889749
-0.0875994
-0.0852964
-0.0832145
-0.0832236
-0.0847047
-0.0864273
-0.0879039
-0.089054
-0.0899496
-0.0907228
-0.0918278
-0.0940987
-0.0999711
-0.114959
-0.0946581
-0.0906655
-0.0898838
-0.0895932
-0.0892655
-0.0862708
-0.0883694
-0.0879341
-0.0875782
-0.0880042
-0.0908617
-0.0883258
-0.0870363
-0.086582
-0.0867277
-0.0887137
-0.085841
-0.0836802
-0.0808768
-0.0746382
-0.0628546
0
0
-0.00338766
-0.00823311
-0.0141166
-0.0209808
-0.0284131
-0.0360362
-0.0441952
-0.0525376
-0.0605631
-0.0677723
-0.0730635
-0.078521
-0.0835346
-0.0878908
-0.0911898
-0.0933356
-0.0946617
-0.0956616
-0.0960332
-0.0958696
-0.0954257
-0.0948542
-0.0942035
-0.0934594
-0.0925711
-0.0914854
-0.0902121
-0.0884799
-0.0911636
-0.0907631
-0.0908292
-0.0913088
-0.0918388
-0.0922261
-0.0922929
-0.0920096
-0.0902611
-0.0819785
-0.0441161
-0.0777952
-0.0870194
-0.0900048
-0.0909567
-0.091161
-0.0910114
-0.0908303
-0.0905326
-0.0901708
-0.0902834
-0.149216
-0.0908596
-0.0900259
-0.0899881
-0.0902092
-0.0904343
-0.0897018
-0.0895909
-0.0882723
-0.0863295
-0.0840949
0
0
-0.00356247
-0.00886099
-0.0151319
-0.0227755
-0.0307617
-0.0377458
-0.0468404
-0.0560632
-0.0648593
-0.0727996
-0.0767183
-0.0831782
-0.088808
-0.0938139
-0.0973165
-0.0991928
-0.100166
-0.101236
-0.101148
-0.100563
-0.0998242
-0.0990325
-0.0982015
-0.097349
-0.0965058
-0.0957065
-0.0946702
-0.092849
-0.162234
-0.0950803
-0.0946097
-0.0947266
-0.0948733
-0.0946823
-0.0941842
-0.0928136
-0.089832
-0.0840485
-0.0767623
-0.0828979
-0.0882944
-0.0910317
-0.0923841
-0.0930411
-0.0933143
-0.0933805
-0.0933809
-0.0934731
-0.0940687
-0.0957997
-0.0943709
-0.0936758
-0.0935976
-0.093749
-0.093859
-0.0939704
-0.0940234
-0.093172
-0.0905392
-0.085046
0
0
-0.00377187
-0.0094459
-0.0159573
-0.0365955
-0.0333841
0
-0.0497893
-0.0597413
-0.0692784
-0.0784028
-0.0142948
-0.0883848
-0.094184
-0.100334
-0.103726
-0.104924
-0.105319
-0.107216
-0.106318
-0.105236
-0.104238
-0.103264
-0.102271
-0.101321
-0.100516
-0.100156
-0.100709
-0.0985801
-0.0999073
-0.0991069
-0.0986282
-0.0984904
-0.0983884
-0.0978143
-0.0967471
-0.0951055
-0.0927808
-0.090159
-0.0890162
-0.0901942
-0.092058
-0.0935158
-0.0945297
-0.0953136
-0.0958131
-0.0960559
-0.0962906
-0.096588
-0.0969933
-0.0973506
-0.0970917
-0.0969596
-0.0971168
-0.0973752
-0.0975186
-0.0977191
-0.0975218
-0.0962557
-0.0928747
-0.0866065
0
0
-0.00400198
-0.0100871
-0.0171733
-0.0256182
-0.0344
-0.0426447
-0.0527795
-0.0631131
-0.0730027
-0.0815942
-0.086961
-0.0934892
-0.098769
-0.108362
-0.109563
-0.10998
-0.109786
-0.158662
-0.111003
-0.109723
-0.108647
-0.107556
-0.106357
-0.105231
-0.104167
-0.102785
-0.0986273
-0.101411
-0.102266
-0.102261
-0.102141
-0.102192
-0.102293
-0.101559
-0.100079
-0.0984673
-0.0968598
-0.0956559
-0.0953787
-0.0956653
-0.0962197
-0.0967579
-0.0970618
-0.0980303
-0.0986204
-0.0988504
-0.0992095
-0.0995593
-0.099795
-0.0997777
-0.0996775
-0.0999402
-0.100459
-0.10093
-0.100962
-0.101044
-0.100431
-0.0986057
-0.0949405
-0.0884869
0
0
-0.00422939
-0.010699
-0.0181973
-0.0267372
-0.0359338
-0.0455288
-0.0558874
-0.066641
-0.0770873
-0.0863509
-0.0930958
-0.0992452
-0.104215
-0.216409
-0.114488
-0.115039
-0.115632
-0.116749
-0.115802
-0.114582
-0.113336
-0.112026
-0.110437
-0.109129
-0.10798
-0.106739
-0.105441
-0.105475
-0.105464
-0.105375
-0.105386
-0.10576
-0.10664
-0.106508
-0.103978
-0.102297
-0.100935
-0.100172
-0.0999355
-0.0999597
-0.100117
-0.100457
-0.101604
-0.101319
-0.101693
-0.101761
-0.102215
-0.102576
-0.102721
-0.102434
-0.102082
-0.102788
-0.103673
-0.10437
-0.104253
-0.10423
-0.103075
-0.100533
-0.0970085
-0.0905701
0
0
-0.00445322
-0.0112966
-0.0191893
-0.0280857
-0.0377741
-0.0480116
-0.0586619
-0.0701486
-0.0815195
-0.0930005
-0.0986322
-0.105334
-0.111491
-0.118204
-0.120174
-0.120992
-0.121356
-0.121392
-0.120583
-0.11939
-0.118074
-0.116612
-0.114312
-0.113004
-0.111999
-0.111012
-0.11015
-0.10946
-0.108879
-0.108492
-0.108318
-0.108709
-0.110702
-0.116373
-0.107638
-0.106321
-0.104418
-0.103871
-0.103671
-0.103614
-0.103596
-0.10362
-0.103931
-0.104116
-0.104306
-0.105138
-0.105443
-0.105717
-0.105822
-0.105098
-0.103715
-0.105956
-0.106825
-0.107127
-0.108141
-0.10763
-0.105693
-0.101864
-0.099153
-0.0928109
0
0
-0.00468009
-0.0119083
-0.0202298
-0.029601
-0.039835
-0.0505073
-0.0605651
-0.0733561
-0.0839064
-0.0895163
-0.102143
-0.110737
-0.117434
-0.122537
-0.125368
-0.1265
-0.126549
-0.12658
-0.125565
-0.124244
-0.122882
-0.121421
-0.117632
-0.116907
-0.116179
-0.115228
-0.114235
-0.112952
-0.112281
-0.111463
-0.110601
-0.109522
-0.105975
-0.0884761
-0.101993
-0.103035
-0.105986
-0.10665
-0.10682
-0.106851
-0.106737
-0.106408
-0.106604
-0.107024
-0.107471
-0.108021
-0.108426
-0.108801
-0.109098
-0.108161
-0.104812
-0.109386
-0.11028
-0.110664
-0.111138
-0.110828
-0.108513
-0.10219
-0.101645
-0.0951624
0
0
-0.00491337
-0.0125457
-0.0213383
-0.0312783
-0.0422664
-0.0542473
-0.0685154
-0.0780783
-0.0883599
-0.0979818
-0.108036
-0.116507
-0.123189
-0.128023
-0.131058
-0.132668
-0.133986
-0.132231
-0.130666
-0.129092
-0.127675
-0.126566
-0.0664665
-0.121341
-0.120529
-0.119318
-0.118115
-0.10946
-0.115549
-0.114336
-0.112537
-0.111384
-0.108457
-0.104546
-0.106328
-0.107508
-0.108705
-0.109372
-0.10973
-0.109905
-0.109738
-0.10882
-0.109289
-0.109974
-0.110529
-0.110971
-0.111338
-0.111676
-0.111989
-0.112286
-0.0355238
-0.129799
-0.113556
-0.113796
-0.114094
-0.114017
-0.112223
-0.024694
-0.105075
-0.0975273
0
0
-0.00514968
-0.0131975
-0.0224855
-0.0330204
-0.044698
-0.0573347
-0.0704492
-0.0815322
-0.0930089
-0.104072
-0.114131
-0.122583
-0.129223
-0.133992
-0.13703
-0.138537
-0.138622
-0.137334
-0.135596
-0.133755
-0.131951
-0.129904
-0.126844
-0.125567
-0.124398
-0.12291
-0.121459
-0.119994
-0.118897
-0.117932
-0.117999
-0.11514
-0.112991
-0.11166
-0.111457
-0.111688
-0.112062
-0.112418
-0.112741
-0.113013
-0.11286
-0.110683
-0.112062
-0.113026
-0.11356
-0.11391
-0.114192
-0.114431
-0.114552
-0.114238
-0.112605
-0.115274
-0.116116
-0.116514
-0.116648
-0.116204
-0.114275
-0.109605
-0.106863
-0.0997764
0
0
-0.00537892
-0.013836
-0.0236336
-0.0347907
-0.0471494
-0.0604612
-0.0741496
-0.0844902
-0.0975597
-0.10973
-0.120218
-0.12883
-0.135476
-0.14018
-0.143134
-0.144428
-0.143872
-0.142292
-0.140309
-0.138249
-0.13631
-0.134254
-0.131798
-0.130059
-0.128439
-0.126374
-0.124768
-0.12341
-0.12223
-0.121152
-0.120101
-0.118526
-0.117117
-0.116185
-0.115658
-0.115445
-0.115431
-0.115548
-0.115777
-0.11612
-0.116316
-0.0699941
-0.115356
-0.116168
-0.11652
-0.116765
-0.116978
-0.117156
-0.117253
-0.117225
-0.117252
-0.118048
-0.118721
-0.11914
-0.119238
-0.118799
-0.117311
-0.114544
-0.10978
-0.102101
0
0
-0.00558081
-0.0144104
-0.024742
-0.0365955
-0.0496725
-0.0638042
-0.0789228
-0.0194468
-0.102871
-0.115695
-0.126472
-0.13519
-0.141851
-0.146436
-0.149289
-0.150523
-0.149165
-0.147115
-0.144874
-0.142645
-0.140816
-0.138535
-0.136158
-0.134016
-0.132166
-0.129596
-0.128082
-0.12676
-0.1255
-0.124283
-0.123048
-0.121796
-0.120675
-0.1198
-0.119172
-0.118779
-0.118585
-0.11855
-0.118623
-0.118698
-0.118456
-0.117248
-0.118135
-0.118806
-0.119213
-0.119483
-0.1197
-0.119891
-0.120064
-0.120272
-0.120614
-0.121072
-0.12156
-0.121942
-0.122093
-0.121909
-0.121327
-0.118263
-0.112791
-0.104546
0
0
-0.00571555
-0.0148172
-0.0257971
-0.0384815
-0.0522128
-0.066758
-0.081426
-0.0940725
-0.108381
-0.121429
-0.132548
-0.141538
-0.148282
-0.152738
-0.155101
-0.156858
-0.154091
-0.151791
-0.149432
-0.147027
-0.145621
-0.142838
-0.140085
-0.137437
-0.134473
-0.13343
-0.13176
-0.130171
-0.128728
-0.127387
-0.126115
-0.124927
-0.12386
-0.12295
-0.122245
-0.121765
-0.12149
-0.121377
-0.121366
-0.121358
-0.121232
-0.12102
-0.121255
-0.121619
-0.121939
-0.122176
-0.122393
-0.122609
-0.122833
-0.123148
-0.123572
-0.124035
-0.124505
-0.124901
-0.125074
-0.124881
-0.123993
-0.121336
-0.115653
-0.107078
0
0
-0.00572469
-0.0147974
-0.0271343
-0.0404752
-0.0549215
-0.0700738
-0.0853518
-0.100103
-0.114511
-0.127678
-0.138999
-0.148139
-0.154966
-0.159604
-0.163333
-0.163467
-0.158662
-0.156788
-0.154557
-0.151555
-0.175208
-0.146801
-0.143818
-0.141044
-0.138031
-0.136239
-0.134666
-0.133156
-0.131709
-0.13034
-0.129056
-0.127865
-0.126765
-0.125759
-0.124974
-0.124455
-0.124163
-0.124041
-0.124041
-0.124086
-0.124103
-0.124075
-0.124217
-0.124497
-0.124747
-0.124894
-0.125078
-0.12529
-0.125497
-0.125866
-0.126381
-0.126934
-0.127478
-0.127942
-0.128083
-0.127778
-0.126825
-0.124249
-0.118479
-0.109656
0
0
-0.00574593
-0.0132501
-0.0286689
-0.043136
-0.0582581
-0.0740627
-0.0901346
-0.105878
-0.120767
-0.134237
-0.145767
-0.154994
-0.161731
-0.1659
-0.16712
-0.164154
-0.166715
-0.164142
-0.16054
-0.156999
-0.154119
-0.150659
-0.147525
-0.144683
-0.140791
-0.139071
-0.137551
-0.136022
-0.134537
-0.133131
-0.131824
-0.130606
-0.12943
-0.12824
-0.127376
-0.126871
-0.126619
-0.126535
-0.126602
-0.126751
-0.126879
-0.126786
-0.126989
-0.127385
-0.127637
-0.127624
-0.12777
-0.127961
-0.12804
-0.128457
-0.12912
-0.129799
-0.130452
-0.131042
-0.131083
-0.130638
-0.129633
-0.126934
-0.121407
-0.112283
0
0
-0.0077533