# vtk DataFile Version 2.0
FlowField
ASCII
DATASET STRUCTURED_GRID
DIMENSIONS 62 47 32 
POINTS 93248 double
0 0 0
0.01 0 0
0.02 0 0
0.03 0 0
0.04 0 0
0.05 0 0
0.06 0 0
0.07 0 0
0.08 0 0
0.09 0 0
0.1 0 0
0.11 0 0
0.12 0 0
0.13 0 0
0.14 0 0
0.15 0 0
0.16 0 0
0.17 0 0
0.18 0 0
0.19 0 0
0.2 0 0
0.21 0 0
0.22 0 0
0.23 0 0
0.24 0 0
0.25 0 0
0.26 0 0
0.27 0 0
0.28 0 0
0.29 0 0
0.3 0 0
0.31 0 0
0.32 0 0
0.33 0 0
0.34 0 0
0.35 0 0
0.36 0 0
0.37 0 0
0.38 0 0
0.39 0 0
0.4 0 0
0.41 0 0
0.42 0 0
0.43 0 0
0.44 0 0
0.45 0 0
0.46 0 0
0.47 0 0
0.48 0 0
0.49 0 0
0.5 0 0
0.51 0 0
0.52 0 0
0.53 0 0
0.54 0 0
0.55 0 0
0.56 0 0
0.57 0 0
0.58 0 0
0.59 0 0
0.6 0 0
0.61 0 0
0 0.01 0
0.01 0.01 0
0.02 0.01 0
0.03 0.01 0
0.04 0.01 0
0.05 0.01 0
0.06 0.01 0
0.07 0.01 0
0.08 0.01 0
0.09 0.01 0
0.1 0.01 0
0.11 0.01 0
0.12 0.01 0
0.13 0.01 0
0.14 0.01 0
0.15 0.01 0
0.16 0.01 0
0.17 0.01 0
0.18 0.01 0
0.19 0.01 0
0.2 0.01 0
0.21 0.01 0
0.22 0.01 0
0.23 0.01 0
0.24 0.01 0
0.25 0.01 0
0.26 0.01 0
0.27 0.01 0
0.28 0.01 0
0.29 0.01 0
0.3 0.01 0
0.31 0.01 0
0.32 0.01 0
0.33 0.01 0
0.34 0.01 0
0.35 0.01 0
0.36 0.01 0
0.37 0.01 0
0.38 0.01 0
0.39 0.01 0
0.4 0.01 0
0.41 0.01 0
0.42 0.01 0
0.43 0.01 0
0.44 0.01 0
0.45 0.01 0
0.46 0.01 0
0.47 0.01 0
0.48 0.01 0
0.49 0.01 0
0.5 0.01 0
0.51 0.01 0
0.52 0.01 0
0.53 0.01 0
0.54 0.01 0
0.55 0.01 0
0.56 0.01 0
0.57 0.01 0
0.58 0.01 0
0.59 0.01 0
0.6 0.01 0
0.61 0.01 0
0 0.02 0
0.01 0.02 0
0.02 0.02 0
0.03 0.02 0
0.04 0.02 0
0.05 0.02 0
0.06 0.02 0
0.07 0.02 0
0.08 0.02 0
0.09 0.02 0
0.1 0.02 0
0.11 0.02 0
0.12 0.02 0
0.13 0.02 0
0.14 0.02 0
0.15 0.02 0
0.16 0.02 0
0.17 0.02 0
0.18 0.02 0
0.19 0.02 0
0.2 0.02 0
0.21 0.02 0
0.22 0.02 0
0.23 0.02 0
0.24 0.02 0
0.25 0.02 0
0.26 0.02 0
0.27 0.02 0
0.28 0.02 0
0.29 0.02 0
0.3 0.02 0
0.31 0.02 0
0.32 0.02 0
0.33 0.02 0
0.34 0.02 0
0.35 0.02 0
0.36 0.02 0
0.37 0.02 0
0.38 0.02 0
0.39 0.02 0
0.4 0.02 0
0.41 0.02 0
0.42 0.02 0
0.43 0.02 0
0.44 0.02 0
0.45 0.02 0
0.46 0.02 0
0.47 0.02 0
0.48 0.02 0
0.49 0.02 0
0.5 0.02 0
0.51 0.02 0
0.52 0.02 0
0.53 0.02 0
0.54 0.02 0
0.55 0.02 0
0.56 0.02 0
0.57 0.02 0
0.58 0.02 0
0.59 0.02 0
0.6 0.02 0
0.61 0.02 0
0 0.03 0
0.01 0.03 0
0.02 0.03 0
0.03 0.03 0
0.04 0.03 0
0.05 0.03 0
0.06 0.03 0
0.07 0.03 0
0.08 0.03 0
0.09 0.03 0
0.1 0.03 0
0.11 0.03 0
0.12 0.03 0
0.13 0.03 0
0.14 0.03 0
0.15 0.03 0
0.16 0.03 0
0.17 0.03 0
0.18 0.03 0
0.19 0.03 0
0.2 0.03 0
0.21 0.03 0
0.22 0.03 0
0.23 0.03 0
0.24 0.03 0
0.25 0.03 0
0.26 0.03 0
0.27 0.03 0
0.28 0.03 0
0.29 0.03 0
0.3 0.03 0
0.31 0.03 0
0.32 0.03 0
0.33 0.03 0
0.34 0.03 0
0.35 0.03 0
0.36 0.03 0
0.37 0.03 0
0.38 0.03 0
0.39 0.03 0
0.4 0.03 0
0.41 0.03 0
0.42 0.03 0
0.43 0.03 0
0.44 0.03 0
0.45 0.03 0
0.46 0.03 0
0.47 0.03 0
0.48 0.03 0
0.49 0.03 0
0.5 0.03 0
0.51 0.03 0
0.52 0.03 0
0.53 0.03 0
0.54 0.03 0
0.55 0.03 0
0.56 0.03 0
0.57 0.03 0
0.58 0.03 0
0.59 0.03 0
0.6 0.03 0
0.61 0.03 0
0 0.04 0
0.01 0.04 0
0.02 0.04 0
0.03 0.04 0
0.04 0.04 0
0.05 0.04 0
0.06 0.04 0
0.07 0.04 0
0.08 0.04 0
0.09 0.04 0
0.1 0.04 0
0.11 0.04 0
0.12 0.04 0
0.13 0.04 0
0.14 0.04 0
0.15 0.04 0
0.16 0.04 0
0.17 0.04 0
0.18 0.04 0
0.19 0.04 0
0.2 0.04 0
0.21 0.04 0
0.22 0.04 0
0.23 0.04 0
0.24 0.04 0
0.25 0.04 0
0.26 0.04 0
0.27 0.04 0
0.28 0.04 0
0.29 0.04 0
0.3 0.04 0
0.31 0.04 0
0.32 0.04 0
0.33 0.04 0
0.34 0.04 0
0.35 0.04 0
0.36 0.04 0
0.37 0.04 0
0.38 0.04 0
0.39 0.04 0
0.4 0.04 0
0.41 0.04 0
0.42 0.04 0
0.43 0.04 0
0.44 0.04 0
0.45 0.04 0
0.46 0.04 0
0.47 0.04 0
0.48 0.04 0
0.49 0.04 0
0.5 0.04 0
0.51 0.04 0
0.52 0.04 0
0.53 0.04 0
0.54 0.04 0
0.55 0.04 0
0.56 0.04 0
0.57 0.04 0
0.58 0.04 0
0.59 0.04 0
0.6 0.04 0
0.61 0.04 0
0 0.05 0
0.01 0.05 0
0.02 0.05 0
0.03 0.05 0
0.04 0.05 0
0.05 0.05 0
0.06 0.05 0
0.07 0.05 0
0.08 0.05 0
0.09 0.05 0
0.1 0.05 0
0.11 0.05 0
0.12 0.05 0
0.13 0.05 0
0.14 0.05 0
0.15 0.05 0
0.16 0.05 0
0.17 0.05 0
0.18 0.05 0
0.19 0.05 0
0.2 0.05 0
0.21 0.05 0
0.22 0.05 0
0.23 0.05 0
0.24 0.05 0
0.25 0.05 0
0.26 0.05 0
0.27 0.05 0
0.28 0.05 0
0.29 0.05 0
0.3 0.05 0
0.31 0.05 0
0.32 0.05 0
0.33 0.05 0
0.34 0.05 0
0.35 0.05 0
0.36 0.05 0
0.37 0.05 0
0.38 0.05 0
0.39 0.05 0
0.4 0.05 0
0.41 0.05 0
0.42 0.05 0
0.43 0.05 0
0.44 0.05 0
0.45 0.05 0
0.46 0.05 0
0.47 0.05 0
0.48 0.05 0
0.49 0.05 0
0.5 0.05 0
0.51 0.05 0
0.52 0.05 0
0.53 0.05 0
0.54 0.05 0
0.55 0.05 0
0.56 0.05 0
0.57 0.05 0
0.58 0.05 0
0.59 0.05 0
0.6 0.05 0
0.61 0.05 0
0 0.06 0
0.01 0.06 0
0.02 0.06 0
0.03 0.06 0
0.04 0.06 0
0.05 0.06 0
0.06 0.06 0
0.07 0.06 0
0.08 0.06 0
0.09 0.06 0
0.1 0.06 0
0.11 0.06 0
0.12 0.06 0
0.13 0.06 0
0.14 0.06 0
0.15 0.06 0
0.16 0.06 0
0.17 0.06 0
0.18 0.06 0
0.19 0.06 0
0.2 0.06 0
0.21 0.06 0
0.22 0.06 0
0.23 0.06 0
0.24 0.06 0
0.25 0.06 0
0.26 0.06 0
0.27 0.06 0
0.28 0.06 0
0.29 0.06 0
0.3 0.06 0
0.31 0.06 0
0.32 0.06 0
0.33 0.06 0
0.34 0.06 0
0.35 0.06 0
0.36 0.06 0
0.37 0.06 0
0.38 0.06 0
0.39 0.06 0
0.4 0.06 0
0.41 0.06 0
0.42 0.06 0
0.43 0.06 0
0.44 0.06 0
0.45 0.06 0
0.46 0.06 0
0.47 0.06 0
0.48 0.06 0
0.49 0.06 0
0.5 0.06 0
0.51 0.06 0
0.52 0.06 0
0.53 0.06 0
0.54 0.06 0
0.55 0.06 0
0.56 0.06 0
0.57 0.06 0
0.58 0.06 0
0.59 0.06 0
0.6 0.06 0
0.61 0.06 0
0 0.07 0
0.01 0.07 0
0.02 0.07 0
0.03 0.07 0
0.04 0.07 0
0.05 0.07 0
0.06 0.07 0
0.07 0.07 0
0.08 0.07 0
0.09 0.07 0
0.1 0.07 0
0.11 0.07 0
0.12 0.07 0
0.13 0.07 0
0.14 0.07 0
0.15 0.07 0
0.16 0.07 0
0.17 0.07 0
0.18 0.07 0
0.19 0.07 0
0.2 0.07 0
0.21 0.07 0
0.22 0.07 0
0.23 0.07 0
0.24 0.07 0
0.25 0.07 0
0.26 0.07 0
0.27 0.07 0
0.28 0.07 0
0.29 0.07 0
0.3 0.07 0
0.31 0.07 0
0.32 0.07 0
0.33 0.07 0
0.34 0.07 0
0.35 0.07 0
0.36 0.07 0
0.37 0.07 0
0.38 0.07 0
0.39 0.07 0
0.4 0.07 0
0.41 0.07 0
0.42 0.07 0
0.43 0.07 0
0.44 0.07 0
0.45 0.07 0
0.46 0.07 0
0.47 0.07 0
0.48 0.07 0
0.49 0.07 0
0.5 0.07 0
0.51 0.07 0
0.52 0.07 0
0.53 0.07 0
0.54 0.07 0
0.55 0.07 0
0.56 0.07 0
0.57 0.07 0
0.58 0.07 0
0.59 0.07 0
0.6 0.07 0
0.61 0.07 0
0 0.08 0
0.01 0.08 0
0.02 0.08 0
0.03 0.08 0
0.04 0.08 0
0.05 0.08 0
0.06 0.08 0
0.07 0.08 0
0.08 0.08 0
0.09 0.08 0
0.1 0.08 0
0.11 0.08 0
0.12 0.08 0
0.13 0.08 0
0.14 0.08 0
0.15 0.08 0
0.16 0.08 0
0.17 0.08 0
0.18 0.08 0
0.19 0.08 0
0.2 0.08 0
0.21 0.08 0
0.22 0.08 0
0.23 0.08 0
0.24 0.08 0
0.25 0.08 0
0.26 0.08 0
0.27 0.08 0
0.28 0.08 0
0.29 0.08 0
0.3 0.08 0
0.31 0.08 0
0.32 0.08 0
0.33 0.08 0
0.34 0.08 0
0.35 0.08 0
0.36 0.08 0
0.37 0.08 0
0.38 0.08 0
0.39 0.08 0
0.4 0.08 0
0.41 0.08 0
0.42 0.08 0
0.43 0.08 0
0.44 0.08 0
0.45 0.08 0
0.46 0.08 0
0.47 0.08 0
0.48 0.08 0
0.49 0.08 0
0.5 0.08 0
0.51 0.08 0
0.52 0.08 0
0.53 0.08 0
0.54 0.08 0
0.55 0.08 0
0.56 0.08 0
0.57 0.08 0
0.58 0.08 0
0.59 0.08 0
0.6 0.08 0
0.61 0.08 0
0 0.09 0
0.01 0.09 0
0.02 0.09 0
0.03 0.09 0
0.04 0.09 0
0.05 0.09 0
0.06 0.09 0
0.07 0.09 0
0.08 0.09 0
0.09 0.09 0
0.1 0.09 0
0.11 0.09 0
0.12 0.09 0
0.13 0.09 0
0.14 0.09 0
0.15 0.09 0
0.16 0.09 0
0.17 0.09 0
0.18 0.09 0
0.19 0.09 0
0.2 0.09 0
0.21 0.09 0
0.22 0.09 0
0.23 0.09 0
0.24 0.09 0
0.25 0.09 0
0.26 0.09 0
0.27 0.09 0
0.28 0.09 0
0.29 0.09 0
0.3 0.09 0
0.31 0.09 0
0.32 0.09 0
0.33 0.09 0
0.34 0.09 0
0.35 0.09 0
0.36 0.09 0
0.37 0.09 0
0.38 0.09 0
0.39 0.09 0
0.4 0.09 0
0.41 0.09 0
0.42 0.09 0
0.43 0.09 0
0.44 0.09 0
0.45 0.09 0
0.46 0.09 0
0.47 0.09 0
0.48 0.09 0
0.49 0.09 0
0.5 0.09 0
0.51 0.09 0
0.52 0.09 0
0.53 0.09 0
0.54 0.09 0
0.55 0.09 0
0.56 0.09 0
0.57 0.09 0
0.58 0.09 0
0.59 0.09 0
0.6 0.09 0
0.61 0.09 0
0 0.1 0
0.01 0.1 0
0.02 0.1 0
0.03 0.1 0
0.04 0.1 0
0.05 0.1 0
0.06 0.1 0
0.07 0.1 0
0.08 0.1 0
0.09 0.1 0
0.1 0.1 0
0.11 0.1 0
0.12 0.1 0
0.13 0.1 0
0.14 0.1 0
0.15 0.1 0
0.16 0.1 0
0.17 0.1 0
0.18 0.1 0
0.19 0.1 0
0.2 0.1 0
0.21 0.1 0
0.22 0.1 0
0.23 0.1 0
0.24 0.1 0
0.25 0.1 0
0.26 0.1 0
0.27 0.1 0
0.28 0.1 0
0.29 0.1 0
0.3 0.1 0
0.31 0.1 0
0.32 0.1 0
0.33 0.1 0
0.34 0.1 0
0.35 0.1 0
0.36 0.1 0
0.37 0.1 0
0.38 0.1 0
0.39 0.1 0
0.4 0.1 0
0.41 0.1 0
0.42 0.1 0
0.43 0.1 0
0.44 0.1 0
0.45 0.1 0
0.46 0.1 0
0.47 0.1 0
0.48 0.1 0
0.49 0.1 0
0.5 0.1 0
0.51 0.1 0
0.52 0.1 0
0.53 0.1 0
0.54 0.1 0
0.55 0.1 0
0.56 0.1 0
0.57 0.1 0
0.58 0.1 0
0.59 0.1 0
0.6 0.1 0
0.61 0.1 0
0 0.11 0
0.01 0.11 0
0.02 0.11 0
0.03 0.11 0
0.04 0.11 0
0.05 0.11 0
0.06 0.11 0
0.07 0.11 0
0.08 0.11 0
0.09 0.11 0
0.1 0.11 0
0.11 0.11 0
0.12 0.11 0
0.13 0.11 0
0.14 0.11 0
0.15 0.11 0
0.16 0.11 0
0.17 0.11 0
0.18 0.11 0
0.19 0.11 0
0.2 0.11 0
0.21 0.11 0
0.22 0.11 0
0.23 0.11 0
0.24 0.11 0
0.25 0.11 0
0.26 0.11 0
0.27 0.11 0
0.28 0.11 0
0.29 0.11 0
0.3 0.11 0
0.31 0.11 0
0.32 0.11 0
0.33 0.11 0
0.34 0.11 0
0.35 0.11 0
0.36 0.11 0
0.37 0.11 0
0.38 0.11 0
0.39 0.11 0
0.4 0.11 0
0.41 0.11 0
0.42 0.11 0
0.43 0.11 0
0.44 0.11 0
0.45 0.11 0
0.46 0.11 0
0.47 0.11 0
0.48 0.11 0
0.49 0.11 0
0.5 0.11 0
0.51 0.11 0
0.52 0.11 0
0.53 0.11 0
0.54 0.11 0
0.55 0.11 0
0.56 0.11 0
0.57 0.11 0
0.58 0.11 0
0.59 0.11 0
0.6 0.11 0
0.61 0.11 0
0 0.12 0
0.01 0.12 0
0.02 0.12 0
0.03 0.12 0
0.04 0.12 0
0.05 0.12 0
0.06 0.12 0
0.07 0.12 0
0.08 0.12 0
0.09 0.12 0
0.1 0.12 0
0.11 0.12 0
0.12 0.12 0
0.13 0.12 0
0.14 0.12 0
0.15 0.12 0
0.16 0.12 0
0.17 0.12 0
0.18 0.12 0
0.19 0.12 0
0.2 0.12 0
0.21 0.12 0
0.22 0.12 0
0.23 0.12 0
0.24 0.12 0
0.25 0.12 0
0.26 0.12 0
0.27 0.12 0
0.28 0.12 0
0.29 0.12 0
0.3 0.12 0
0.31 0.12 0
0.32 0.12 0
0.33 0.12 0
0.34 0.12 0
0.35 0.12 0
0.36 0.12 0
0.37 0.12 0
0.38 0.12 0
0.39 0.12 0
0.4 0.12 0
0.41 0.12 0
0.42 0.12 0
0.43 0.12 0
0.44 0.12 0
0.45 0.12 0
0.46 0.12 0
0.47 0.12 0
0.48 0.12 0
0.49 0.12 0
0.5 0.12 0
0.51 0.12 0
0.52 0.12 0
0.53 0.12 0
0.54 0.12 0
0.55 0.12 0
0.56 0.12 0
0.57 0.12 0
0.58 0.12 0
0.59 0.12 0
0.6 0.12 0
0.61 0.12 0
0 0.13 0
0.01 0.13 0
0.02 0.13 0
0.03 0.13 0
0.04 0.13 0
0.05 0.13 0
0.06 0.13 0
0.07 0.13 0
0.08 0.13 0
0.09 0.13 0
0.1 0.13 0
0.11 0.13 0
0.12 0.13 0
0.13 0.13 0
0.14 0.13 0
0.15 0.13 0
0.16 0.13 0
0.17 0.13 0
0.18 0.13 0
0.19 0.13 0
0.2 0.13 0
0.21 0.13 0
0.22 0.13 0
0.23 0.13 0
0.24 0.13 0
0.25 0.13 0
0.26 0.13 0
0.27 0.13 0
0.28 0.13 0
0.29 0.13 0
0.3 0.13 0
0.31 0.13 0
0.32 0.13 0
0.33 0.13 0
0.34 0.13 0
0.35 0.13 0
0.36 0.13 0
0.37 0.13 0
0.38 0.13 0
0.39 0.13 0
0.4 0.13 0
0.41 0.13 0
0.42 0.13 0
0.43 0.13 0
0.44 0.13 0
0.45 0.13 0
0.46 0.13 0
0.47 0.13 0
0.48 0.13 0
[...]
POINT_DATA 93248

SCALARS w double
LOOKUP_TABLE default
0
0
0
0
0
0
0
0
0
0
0
0
0
-0.00678982
0
0
0
0
0
0
0
0
0
0
0
0
-0.00675139
0
0
0
0
0
-0.00673781
0
0
0
0
0
0
0
0
0
0
0
0
0
-0.00669726
0
0
0
0
0
0
0
0
0
0
0
0
0
0
0
0
0.017079
0.000928714
-0.00355944
-0.00536183
-0.00619743
-0.00663607
-0.00689037
-0.00704946
-0.00715494
-0.00722807
-0.00728056
-0.00731932
-0.00734863
-0.00737123
-0.00738899
-0.00740319
-0.00741472
-0.00742424
-0.00743225
-0.00743909
-0.00744504
-0.00745031
-0.00745505
-0.00745939
-0.00746341
-0.0074672
-0.00747079
-0.00747424
-0.00747758
-0.00748082
-0.00748398
-0.00748707
-0.0074901
-0.00749308
-0.00749599
-0.00749885
-0.00750165
-0.00750439
-0.00750705
-0.00750964
-0.00751215
-0.00751458
-0.00751691
-0.00751914
-0.00751077
-0.00752326
-0.00752513
-0.00752687
-0.00752846
-0.00752988
-0.00753111
-0.00753213
-0.00753288
-0.0075183
-0.00753317
-0.00753222
-0.00752965
-0.00752334
-0.00750694
-0.00672859
0
0
0.0168365
0.000686296
-0.00380186
-0.00560424
-0.00643981
-0.00687842
-0.00713267
-0.00729172
-0.00739715
-0.00747021
-0.00752264
-0.00756134
-0.00759057
-0.0076131
-0.00763078
-0.00764488
-0.00765633
-0.00766576
-0.00767367
-0.00768041
-0.00768626
-0.00747732
-0.00769606
-0.00770029
-0.00770421
-0.00770788
-0.00771137
-0.00771471
-0.00771793
-0.00772105
-0.0077241
-0.00772709
-0.00773001
-0.00773288
-0.00773569
-0.00773844
-0.00774114
-0.00774377
-0.00774634
-0.00774884
-0.00775126
-0.00775359
-0.00775584
-0.00775799
-0.00776003
-0.00776196
-0.00776377
-0.00776544
-0.00776697
-0.00776834
-0.00751682
-0.0077705
-0.00777121
-0.00777158
-0.00777145
-0.00777048
-0.00776789
-0.00776157
-0.00774517
-0.0069668
0
0
0.0169721
0.000821901
-0.00366628
-0.00546868
-0.00619743
-0.0067429
-0.00699718
-0.00715625
-0.00726171
-0.0073348
-0.00738727
-0.007426
-0.00745527
-0.00747784
-0.00749556
-0.00750971
-0.0075212
-0.00753068
-0.00753864
-0.00754544
-0.00755134
-0.00755656
-0.00756125
-0.00756554
-0.00756951
-0.00757324
-0.00757679
-0.00758018
-0.00758346
-0.00758665
-0.00758976
-0.0075928
-0.00751379
-0.0075987
-0.00760157
-0.00760438
-0.00760713
-0.00760981
-0.00761243
-0.00761498
-0.00761745
-0.00761983
-0.00762212
-0.00762431
-0.00762639
-0.00762836
-0.0076302
-0.00763191
-0.00763347
-0.00763486
-0.00763607
-0.00763707
-0.0076378
-0.00763819
-0.00763807
-0.00763711
-0.00763453
-0.00762822
-0.00761182
-0.00683343
0
0
0.0170265
0.000876319
0.000936803
-0.0054143
-0.0062499
-0.00668854
-0.00694282
-0.0071019
-0.00720737
-0.00728048
-0.00733295
-0.0073717
-0.00740098
-0.00742356
-0.0074413
-0.00745546
-0.00746697
-0.00747647
-0.00748444
-0.00749126
-0.00749718
-0.00750241
-0.00750712
-0.00751143
-0.00751542
-0.00751917
-0.00752273
-0.00752615
-0.00752945
-0.00753265
-0.00753578
-0.00753884
-0.00754184
-0.00754478
-0.00754767
-0.00755049
-0.00755326
-0.00751776
-0.0075586
-0.00756116
-0.00756364
-0.00756604
-0.00756835
-0.00757055
-0.00757265
-0.00757463
-0.00757648
-0.0075782
-0.00757977
-0.00758117
-0.00758239
-0.00758339
-0.00758413
-0.00758452
-0.00758441
-0.00758345
-0.00758088
-0.00757456
-0.00755817
-0.00677977
0
0
0.0170517
0.000901516
-0.00358671
-0.00538913
-0.00622474
-0.00666338
-0.00691766
-0.00707675
-0.00718222
-0.00725533
-0.00730781
-0.00734655
-0.00737584
-0.00739843
-0.00651232
-0.00743034
-0.00744185
-0.00745135
-0.00745933
-0.00746615
-0.00747207
-0.00747732
-0.00748203
-0.00748634
-0.00749034
-0.00749409
-0.00749766
-0.00750108
-0.00750439
-0.0075076
-0.00751073
-0.00751379
-0.0075168
-0.00751974
-0.00752263
-0.00752547
-0.00752824
-0.00753095
-0.00753359
-0.00753615
-0.00753864
-0.00754104
-0.00754335
-0.00754556
-0.00754766
-0.00754964
-0.0075515
-0.00755322
-0.00755479
-0.0075562
-0.00755742
-0.00755842
-0.00755916
-0.00755955
-0.00755944
-0.00755849
-0.00755591
-0.0075496
-0.0075332
-0.00675478
0
0
0.0170649
0.000914719
-0.00357352
-0.00537595
-0.00621156
-0.0066502
-0.00690449
-0.00706358
-0.00716905
-0.00724216
-0.00729464
-0.00733339
-0.00736267
-0.00738526
-0.007403
-0.00741717
-0.00742868
-0.00741547
-0.00744616
-0.00745298
-0.0074589
-0.00746414
-0.00746886
-0.00747317
-0.00747716
-0.00748092
-0.00748448
-0.0074879
-0.00749121
-0.00749442
-0.00749755
-0.00750061
-0.00750362
-0.00750656
-0.00750945
-0.00751228
-0.00751505
-0.00751776
-0.0075204
-0.00752297
-0.00752545
-0.00752785
-0.00753016
-0.00753237
-0.00753447
-0.00753645
-0.00753831
-0.00754003
-0.0075416
-0.007543
-0.00754423
-0.00754523
-0.00754597
-0.00754636
-0.00754625
-0.0075453
-0.00754272
-0.00753641
-0.00752001
-0.00674158
0
0
0.0170725
0.000922353
-0.00356591
-0.00536834
-0.00620396
-0.0066426
-0.00689688
-0.00705597
-0.00716144
-0.00723455
-0.00728703
-0.00732577
-0.00735506
-0.00737764
-0.00739538
-0.00740955
-0.00742105
-0.00743055
-0.00743853
-0.00744534
-0.00745127
-0.00745651
-0.00746122
-0.00746552
-0.00746952
-0.00747327
-0.00747683
-0.00748025
-0.00748355
-0.00748675
-0.00748988
-0.00749294
-0.00749594
-0.00749888
-0.00750177
-0.0075046
-0.00750737
-0.00751007
-0.00751271
-0.00751527
-0.00751776
-0.00752015
-0.00752246
-0.00752466
-0.00752676
-0.00752874
-0.00753059
-0.00753231
-0.00753388
-0.00753529
-0.0075365
-0.00753751
-0.00753825
-0.00753864
-0.00753852
-0.00753757
-0.00753499
-0.00752868
-0.00750694
-0.00670168
0
0
0.0170772
0.000927113
-0.00356116
-0.0053636
-0.00619922
-0.00663786
-0.00689215
-0.00705124
-0.0071567
-0.00722981
-0.00728229
-0.00732103
-0.00735031
-0.00737289
-0.00739063
-0.00740479
-0.00655598
-0.00742579
-0.00743376
-0.00744057
-0.00744649
-0.00745173
-0.00745643
-0.00746073
-0.00746472
-0.00746847
-0.00747203
-0.00747544
-0.00747873
-0.00748194
-0.00748506
-0.00748812
-0.00749111
-0.00749405
-0.00749693
-0.00749975
-0.00750252
-0.00750522
-0.00750785
-0.00751041
-0.00751289
-0.00751528
-0.00751758
-0.00751978
-0.00752188
-0.00752385
-0.00752571
-0.00752742
-0.00752899
-0.00753039
-0.00753161
-0.00753261
-0.00753334
-0.00753373
-0.00753362
-0.00753266
-0.00753009
-0.00752377
-0.00750737
-0.00672891
0
0
0.0170804
0.000930253
-0.00355804
-0.00536049
-0.00619611
-0.00663475
-0.00688903
-0.00704812
-0.00715359
-0.00722669
-0.00727916
-0.00756134
-0.00734718
-0.00736976
-0.00738749
-0.00740165
-0.00741315
-0.00742264
-0.00743061
-0.00743741
-0.00744333
-0.00744855
-0.00745326
-0.00745755
-0.00746154
-0.00746528
-0.00746883
-0.00747224
-0.00747553
-0.00747872
-0.00748184
-0.00748489
-0.00748788
-0.00749081
-0.00749369
-0.00749651
-0.00749926
-0.00750196
-0.00750459
-0.00750714
-0.00750962
-0.007512
-0.0075143
-0.0075165
-0.00751859
-0.00752056
-0.00752241
-0.00752412
-0.00752569
-0.00752708
-0.0075283
-0.00752695
-0.00753003
-0.00753042
-0.0075303
-0.00752935
-0.00752677
-0.00752045
-0.00750406
-0.00672558
0
0
0.0170825
0.000932415
-0.0035559
-0.00535835
-0.00619397
-0.00663261
-0.0068869
-0.00704598
-0.00715144
-0.00722455
-0.00727702
-0.00731575
-0.00734503
-0.0073676
-0.00738533
-0.00739948
-0.00741098
-0.00742046
-0.00742843
-0.00743523
-0.00744113
-0.00744636
-0.00745105
-0.00745534
-0.00745566
-0.00746305
-0.0074666
-0.00747
-0.00747329
-0.00747648
-0.00747959
-0.00748263
-0.00748562
-0.00748854
-0.00749141
-0.00749422
-0.00749698
-0.00749967
-0.00750229
-0.00750484
-0.00750731
-0.00750969
-0.00751198
-0.00751418
-0.00751626
-0.00751823
-0.00752007
-0.00752178
-0.00752334
-0.00752474
-0.00752595
-0.00752695
-0.00752768
-0.00752807
-0.00752795
-0.00752699
-0.00752441
-0.0075181
-0.0075017
-0.0067232
0
0
0.017084
0.00093395
-0.00355438
-0.00535683
-0.00619246
-0.0066311
-0.00688539
-0.00704447
-0.00714993
-0.00722303
-0.00727549
-0.00731423
-0.0073435
-0.00736607
-0.00738379
-0.00739794
-0.00740943
-0.00741891
-0.00742687
-0.00743366
-0.00743956
-0.00744478
-0.00744947
-0.00745376
-0.00745773
-0.00746145
-0.007465
-0.00746839
-0.00747167
-0.00747485
-0.00747796
-0.00748099
-0.00748397
-0.00748689
-0.00748975
-0.00749256
-0.00749531
-0.00749799
-0.00750061
-0.00750315
-0.00750561
-0.00750799
-0.00751028
-0.00751247
-0.00751455
-0.00751651
-0.00751835
-0.00752006
-0.00752162
-0.00752301
-0.00752422
-0.00752521
-0.00752594
-0.00752633
-0.00752621
-0.00752525
-0.00752267
-0.00751635
-0.00749995
-0.00672144
0
0
0.0170851
0.000935065
-0.00355328
-0.00535574
-0.00619137
-0.00663001
-0.00688429
-0.00704337
-0.00714883
-0.00722193
-0.00727439
-0.00731312
-0.00734239
-0.00736495
-0.00738267
-0.00739682
-0.0074083
-0.00741778
-0.00742573
-0.00743252
-0.00743841
-0.00744362
-0.00744831
-0.00745258
-0.00745655
-0.00746027
-0.0074638
-0.00746719
-0.00747046
-0.00747364
-0.00747674
-0.00747977
-0.00748274
-0.00748565
-0.00748851
-0.00749131
-0.00749405
-0.00749673
-0.00749934
-0.00750188
-0.00750433
-0.00750671
-0.00750899
-0.00751117
-0.00751325
-0.00751521
-0.00751705
-0.00751875
-0.0075203
-0.00752169
-0.0075229
-0.00752389
-0.00752461
-0.007525
-0.00752487
-0.00752392
-0.00752133
-0.00751502
-0.00749862
-0.00672009
0
0
0.0170859
0.000935888
-0.00355247
-0.00535494
-0.00619057
-0.00662921
-0.00688349
-0.00704257
-0.00714803
-0.00722112
-0.00727358
-0.00731231
-0.00734157
-0.00736413
-0.00738184
-0.00739598
-0.00740746
-0.00741693
-0.00742488
-0.00743166
-0.00743755
-0.00744276
-0.00744743
-0.0074517
-0.00745566
-0.00745938
-0.0074629
-0.00746628
-0.00746955
-0.00747272
-0.00747581
-0.00747883
-0.0074818
-0.0074847
-0.00748755
-0.00749035
-0.00749308
-0.00749575
-0.00749836
-0.00750089
-0.00750334
-0.00750239
-0.00750799
-0.00751016
-0.00751224
-0.00751419
-0.00751602
-0.00751772
-0.00751927
-0.00752066
-0.00752186
-0.00752285
-0.00752357
-0.00752395
-0.00752383
-0.00752287
-0.00752029
-0.00751397
-0.00749757
-0.00671902
0
0
0.0170865
0.0009365
-0.00355188
-0.0053636
-0.00618998
-0.00662863
-0.00688291
-0.00704198
-0.00714744
-0.00722052
-0.00727298
-0.0073117
-0.00734096
-0.00736352
-0.00738122
-0.00739536
-0.00740683
-0.0074163
-0.00742424
-0.00743101
-0.0074369
-0.0074421
-0.00744677
-0.00745103
-0.00745498
-0.00745869
-0.00746221
-0.00746558
-0.00746884
-0.007472
-0.00747509
-0.0074781
-0.00748106
-0.00748396
-0.0074868
-0.00748959
-0.00748643
-0.00749498
-0.00749758
-0.00750011
-0.00750255
-0.00750492
-0.00750719
-0.00750936
-0.00751143
-0.00751338
-0.00751521
-0.0075169
-0.00751845
-0.00751983
-0.00752103
-0.00752201
-0.00752274
-0.00752312
-0.00752299
-0.00752203
-0.00753641
-0.00751313
-0.00749673
-0.00671816
0
0
0.0170869
0.000936956
-0.00355144
-0.00535392
-0.00618955
-0.00662819
-0.00688247
-0.00704155
-0.007147
-0.00722008
-0.00727254
-0.00731125
-0.00734051
-0.00736306
-0.00738076
-0.00739489
-0.00740636
-0.00741582
-0.00742375
-0.00743052
-0.0074364
-0.00744159
-0.00744626
-0.00745051
-0.00745446
-0.00745816
-0.00746167
-0.00746504
0.00674129
-0.00747144
-0.00747452
-0.00747753
-0.00748048
-0.00748337
-0.00748621
-0.00748899
-0.00749171
-0.00749437
-0.00749696
-0.00749948
-0.00750192
-0.00750428
-0.00750654
-0.00750871
-0.00751077
-0.00751272
-0.00751454
-0.00751623
-0.00751777
-0.00751915
-0.00752035
-0.00752133
-0.00753003
-0.00752243
-0.0075223
-0.00752134
-0.00751875
-0.00751244
-0.00749604
-0.00671745
0
0
0.0170872
0.000937294
-0.00355112
-0.00535361
-0.00618924
-0.00662788
-0.00688216
-0.00704123
-0.00714668
-0.00721976
-0.00727221
-0.00731092
-0.00734017
-0.00736272
-0.00738042
-0.00739454
-0.007406
-0.00741546
-0.00742339
-0.00743015
-0.00743602
-0.00744121
-0.00744586
-0.00745011
-0.00745405
-0.00745774
-0.00746125
-0.00746461
-0.00746785
-0.007471
-0.00747407
-0.00747707
-0.00748001
-0.0074829
-0.00748573
-0.0074885
-0.00749122
-0.00749387
-0.00749645
-0.00749897
-0.0075014
-0.00750375
-0.00750601
-0.00750818
-0.00751023
-0.00751217
-0.00751399
-0.00751419
-0.00751722
-0.00751859
-0.00751979
-0.00752077
-0.00752148
-0.00752186
-0.00752173
-0.00752077
-0.00751818
-0.00751186
-0.00749546
-0.00671686
0
0
0.0170874
0.00093754
-0.00355089
-0.00535338
-0.00618902
-0.00662766
-0.00688194
-0.00704101
-0.00714645
-0.00721953
-0.00727198
-0.00731069
-0.00733993
-0.00736247
-0.00738016
-0.00739428
-0.00740574
-0.00741519
-0.00742311
-0.00742987
-0.00743573
-0.00744091
-0.00744556
-0.0074498
-0.00745373
-0.00745742
-0.00746092
-0.00746427
-0.0074675
-0.00747065
-0.00747371
-0.0074767
-0.00747964
-0.00748252
-0.00748534
-0.00748811
-0.00749081
-0.00749346
-0.00749604
-0.00749854
-0.00750097
-0.00750332
-0.00750557
-0.00750773
-0.00750978
-0.00751172
-0.00751353
-0.00751521
-0.00751675
-0.00751812
-0.00751931
-0.00752029
-0.007521
-0.00752138
-0.00758441
-0.00752028
-0.00751769
-0.00751137
-0.00749497
-0.00671635
0
0
0.0170876
0.000937713
-0.00355074
-0.00535323
-0.00618887
-0.00663261
-0.00688179
-0.00704085
-0.0071463
-0.00721937
-0.00727182
-0.00731052
-0.00733976
-0.0073623
-0.00737998
-0.0073941
-0.00740555
-0.00741499
-0.00742291
-0.00742966
-0.00743552
-0.00744069
-0.00744533
-0.00744957
-0.00745349
-0.00745717
-0.00746066
-0.007464
-0.00746723
-0.00747036
-0.00747342
-0.00747641
-0.00747933
-0.00748221
-0.00748502
-0.00748778
-0.00749048
-0.00749312
0.00670903
-0.00749819
-0.00750062
-0.00750296
-0.0075052
-0.00750736
-0.0075094
-0.00751133
-0.00751314
-0.00751482
-0.00751635
-0.00751772
-0.00751891
-0.00751988
-0.00752059
-0.00752096
-0.00752083
-0.00751986
-0.00751728
-0.00751096
-0.00749455
-0.00671592
0
0
0.0170877
0.000937827
-0.00355064
-0.00535314
-0.00618878
-0.00662742
-0.0068817
-0.00704076
-0.0071462
-0.00721927
-0.00727171
-0.00731041
-0.00733965
-0.00736218
-0.00737986
-0.00739397
-0.00740542
-0.00741485
-0.00742276
-0.00742951
-0.00743536
-0.00744052
-0.00744516
-0.00744939
-0.0074533
-0.00745697
-0.00746046
-0.00746379
-0.00746701
-0.00747014
-0.00747319
-0.00747617
-0.00747909
-0.00748195
-0.00748476
-0.00748751
-0.00749021
-0.00749284
-0.0074954
-0.0074979
-0.00750032
-0.00750265
-0.00750489
-0.00750704
-0.00750908
-0.00751101
-0.00751281
-0.00751448
-0.00751601
-0.00751738
-0.00751856
-0.00751953
-0.00752024
-0.00752061
-0.00752047
-0.00751951
-0.00751692
-0.00751059
-0.00749419
-0.00671554
0
0
0.0170877
0.000937893
-0.00355059
-0.0053531
-0.00618874
-0.00662738
-0.00688165
-0.00704072
-0.00714615
-0.00721922
-0.00727166
-0.00731036
-0.00733959
-0.00736211
-0.00737979
-0.00739389
-0.00740533
-0.00741476
-0.00742266
-0.0074294
-0.00743525
-0.0074404
-0.00744503
-0.00744925
-0.00745316
-0.00745683
-0.0074603
-0.00746363
-0.00746684
-0.00746996
-0.007473
-0.00747598
-0.00747889
-0.00748175
-0.00748455
-0.00748729
-0.00748998
-0.0074926
-0.00749516
-0.00749765
-0.00750006
-0.00750239
-0.00750463
-0.00750677
-0.0075088
-0.00751073
-0.00751253
-0.00751419
-0.00751572
-0.00751708
-0.00751826
-0.00751923
-0.00751993
-0.0075203
-0.00752016
-0.00751919
-0.0075166
-0.00751028
-0.00749388
-0.0067152
0
0
0.0170877
0.000937918
-0.00355058
-0.0053531
-0.00618874
-0.00662738
-0.00688165
-0.00704071
-0.00714615
-0.00721921
-0.00727164
-0.00731034
-0.00733956
-0.00736209
-0.00737976
-0.00739385
-0.00740529
-0.00741471
-0.00742261
-0.00742934
-0.00743518
-0.00744033
-0.00744495
-0.00744916
-0.00745306
-0.00745672
-0.00661271
-0.00746351
-0.00746671
-0.00746983
-0.00747286
-0.00747582
-0.00747873
-0.00748158
-0.00748437
-0.00748711
-0.00748979
-0.00749241
-0.00749496
-0.00749744
-0.00749985
-0.00750217
-0.0075044
-0.00750653
-0.00750856
-0.00751048
-0.00751228
-0.00751394
-0.00751546
-0.00751682
-0.007518
-0.00751896
-0.00751967
-0.00752003
-0.00751989
-0.00751892
-0.00751633
-0.00751
-0.0074936
-0.00671491
0
0
0.0170877
0.00093791
-0.00355061
-0.00535313
-0.00618878
-0.00662742
-0.00688168
-0.00704074
-0.00714617
-0.00721924
-0.00727166
-0.00731035
-0.00733957
-0.00736209
-0.00737976
-0.00739385
-0.00740528
-0.00741469
-0.00742258
-0.00742931
-0.00743514
-0.00744028
-0.0074449
-0.0074491
-0.007453
-0.00745665
-0.00746011
-0.00746342
-0.00746662
-0.00746972
-0.00747275
-0.0074757
-0.0074786
-0.00748144
-0.00748423
-0.00748696
-0.00748963
-0.00749224
-0.00749479
-0.00749726
-0.00749966
-0.00750198
-0.00751247
-0.00750633
-0.00750836
-0.00751027
-0.00751206
-0.00751372
-0.00751524
-0.00751659
-0.00751776
-0.00751873
-0.00751943
-0.00751979
-0.00751965
-0.00751868
-0.00751608
-0.00750976
-0.00749336
-0.00671465
0
0
0.0170876
0.000937874
-0.00355066
-0.00535319
-0.00618884
-0.00662748
-0.00688175
-0.0070408
-0.00714623
-0.00721929
-0.00727171
-0.0073104
-0.00733961
-0.00736213
-0.00737978
-0.00739387
-0.00740529
-0.0074147
-0.00742259
-0.00742931
-0.00743513
-0.00744027
-0.00744487
-0.00744907
-0.00745296
-0.0074566
-0.00746005
-0.00746336
-0.00746655
-0.00746964
-0.00747266
-0.00747561
-0.0074785
-0.00748134
-0.00748411
-0.00748684
-0.0074895
-0.00749211
-0.00749465
-0.00749711
-0.00749951
-0.00750182
-0.00750404
-0.00750616
-0.00750818
-0.00751009
-0.00751187
-0.00751353
-0.00751504
-0.00751639
-0.00751756
-0.00751852
-0.00751922
-0.00751958
-0.00751943
-0.00751846
-0.00751586
-0.00750954
-0.00749314
-0.00671441
0
0
0.0170875
0.000937813
-0.00355074
-0.00535328
-0.00618893
-0.00662756
-0.00688183
-0.00704088
-0.00714631
-0.00629574
-0.00727178
-0.00731046
-0.00733968
-0.00736218
-0.00737984
-0.00739392
-0.00740533
-0.00741474
-0.00742262
-0.00742933
-0.00743514
-0.00744027
-0.00744487
-0.00744907
-0.00745294
-0.00745658
-0.00746002
-0.00746332
-0.0074665
-0.00746959
-0.0074726
-0.00747554
-0.00747842
-0.00749308
-0.00748402
-0.00663842
-0.0074894
-0.00749199
-0.00749453
-0.00749699
-0.00749937
-0.00750168
-0.00750389
-0.00750601
-0.00750802
-0.00750992
-0.00751171
-0.00751336
-0.00751486
-0.00751621
-0.00751738
-0.00751833
-0.00751903
-0.00751939
-0.00751924
-0.00751827
-0.00751567
-0.00750935
-0.00749294
-0.00671419
0
0
0.0170874
0.000937732
-0.00355084
-0.00535338
-0.00618903
-0.00662767
-0.00704257
-0.00704099
-0.00714641
-0.00721946
-0.00727188
-0.00731055
-0.00733976
-0.00736226
-0.00737991
-0.00739399
-0.00738629
-0.00741479
-0.00742266
-0.00742937
-0.00743518
-0.0074403
-0.00744489
-0.00744908
-0.00745295
-0.00745657
-0.00746001
-0.0074633
-0.00746648
-0.00746956
-0.00747256
-0.00747549
-0.00747837
-0.00748119
-0.00748395
-0.00748666
-0.00748931
-0.0074919
-0.00749442
-0.00749688
-0.00749926
-0.00750155
-0.00750376
-0.00750588
-0.00750788
-0.00750978
-0.00751156
-0.0075132
-0.00751471
-0.00751605
-0.00751721
-0.00751817
-0.00751886
-0.00751921
-0.00751907
-0.00751809
-0.00751549
-0.00750917
-0.00749276
-0.006714
0
0
0.0170873
0.000937634
-0.00355096
-0.00535351
-0.00618916
-0.0066278
-0.00688206
-0.00704111
-0.00714653
-0.00721958
-0.00727199
-0.00731066
-0.00733986
-0.00736236
-0.00738
-0.00739407
-0.00740547
-0.00741486
-0.00742273
-0.00742943
-0.00743523
-0.00744034
-0.00744493
-0.00744911
-0.00745297
-0.00745659
-0.00746002
-0.0074633
-0.00746647
-0.00746954
-0.00748506
-0.00747546
-0.00747833
-0.00748114
-0.00748389
-0.00748659
-0.00748924
-0.00749182
-0.00749434
-0.00749679
-0.00749916
-0.00750145
-0.00750365
-0.00750576
-0.00750776
-0.00750965
-0.00751143
-0.00751307
-0.00751457
-0.00751591
-0.00751707
-0.00751801
-0.00751871
-0.00751906
-0.00751891
-0.00751793
-0.00751533
-0.00750901
-0.0074926
-0.00671382
0
0
0.0170872
0.000937522
-0.00355109
-0.00535364
-0.0061893
-0.00662793
-0.00688219
-0.00704124
-0.00714666
-0.0072197
-0.00727211
-0.00731078
-0.00733997
-0.00736247
-0.0073801
-0.00739417
-0.00740556
-0.00741495
-0.00742281
-0.0074295
-0.00743529
-0.00744831
-0.00744498
-0.00744915
-0.007453
-0.00745661
-0.00746004
-0.00746331
-0.00746647
-0.00746953
-0.00747252
-0.00747544
-0.0074783
-0.0074811
-0.00748385
-0.00748654
-0.00748918
-0.00749175
-0.00749427
-0.00749671
-0.00749907
-0.00750136
-0.00750355
-0.00750565
-0.00750765
-0.00750954
-0.00751131
-0.00751294
-0.00751444
-0.00751577
-0.00751693
-0.00751788
-0.00751856
-0.00751891
-0.00751876
-0.00751778
-0.00751518
-0.00750886
-0.00749245
-0.00671365
0
0
0.017087
0.000937401
-0.00355123
-0.00535379
-0.00618944
-0.00662808
-0.00688234
-0.00704138
-0.0071468
-0.00721984
-0.00727224
-0.0073109
-0.0073401
-0.00736258
-0.00738022
-0.00739427
-0.00740566
-0.00741504
-0.00742289
-0.00742958
-0.00743537
-0.00744047
-0.00744504
-0.0074492
-0.00745305
-0.00745665
-0.00746006
-0.00746333
-0.00746648
-0.00746954
-0.00747251
-0.00747543
-0.00747828
-0.00748107
-0.00748381
-0.0074865
-0.00748913
-0.0074917
-0.0074942