# vtk DataFile Version 2.0
FlowField
ASCII
DATASET STRUCTURED_GRID
DIMENSIONS 102 11 11 
POINTS 12342 double
0 0 0
0 0 0.2
0 0 0.4
0 0 0.6
0 0 0.8
0 0 1
0 0 1.2
0 0 1.4
0 0 1.6
0 0 1.8
0 0 2
0 0.1 0
0 0.1 0.2
0 0.1 0.4
0 0.1 0.6
0 0.1 0.8
0 0.1 1
0 0.1 1.2
0 0.1 1.4
0 0.1 1.6
0 0.1 1.8
0 0.1 2
0 0.2 0
0 0.2 0.2
0 0.2 0.4
0 0.2 0.6
0 0.2 0.8
0 0.2 1
0 0.2 1.2
0 0.2 1.4
0 0.2 1.6
0 0.2 1.8
0 0.2 2
0 0.3 0
0 0.3 0.2
0 0.3 0.4
0 0.3 0.6
0 0.3 0.8
0 0.3 1
0 0.3 1.2
0 0.3 1.4
0 0.3 1.6
0 0.3 1.8
0 0.3 2
0 0.4 0
0 0.4 0.2
0 0.4 0.4
0 0.4 0.6
0 0.4 0.8
0 0.4 1
0 0.4 1.2
0 0.4 1.4
0 0.4 1.6
0 0.4 1.8
0 0.4 2
0 0.5 0
0 0.5 0.2
0 0.5 0.4
0 0.5 0.6
0 0.5 0.8
0 0.5 1
0 0.5 1.2
0 0.5 1.4
0 0.5 1.6
0 0.5 1.8
0 0.5 2
0 0.6 0
0 0.6 0.2
0 0.6 0.4
0 0.6 0.6
0 0.6 0.8
0 0.6 1
0 0.6 1.2
0 0.6 1.4
0 0.6 1.6
0 0.6 1.8
0 0.6 2
0 0.7 0
0 0.7 0.2
0 0.7 0.4
0 0.7 0.6
0 0.7 0.8
0 0.7 1
0 0.7 1.2
0 0.7 1.4
0 0.7 1.6
0 0.7 1.8
0 0.7 2
0 0.8 0
0 0.8 0.2
0 0.8 0.4
0 0.8 0.6
0 0.8 0.8
0 0.8 1
0 0.8 1.2
0 0.8 1.4
0 0.8 1.6
0 0.8 1.8
0 0.8 2
0 0.9 0
0 0.9 0.2
0 0.9 0.4
0 0.9 0.6
0 0.9 0.8
0 0.9 1
0 0.9 1.2
0 0.9 1.4
0 0.9 1.6
0 0.9 1.8
0 0.9 2
0 1 0
0 1 0.2
0 1 0.4
0 1 0.6
0 1 0.8
0 1 1
0 1 1.2
0 1 1.4
0 1 1.6
0 1 1.8
0 1 2
0.2 0 0
0.2 0 0.2
0.2 0 0.4
0.2 0 0.6
0.2 0 0.8
0.2 0 1
0.2 0 1.2
0.2 0 1.4
0.2 0 1.6
0.2 0 1.8
0.2 0 2
0.2 0.1 0
0.2 0.1 0.2
0.2 0.1 0.4
0.2 0.1 0.6
0.2 0.1 0.8
0.2 0.1 1
0.2 0.1 1.2
0.2 0.1 1.4
0.2 0.1 1.6
0.2 0.1 1.8
0.2 0.1 2
0.2 0.2 0
0.2 0.2 0.2
0.2 0.2 0.4
0.2 0.2 0.6
0.2 0.2 0.8
0.2 0.2 1
0.2 0.2 1.2
0.2 0.2 1.4
0.2 0.2 1.6
0.2 0.2 1.8
0.2 0.2 2
0.2 0.3 0
0.2 0.3 0.2
0.2 0.3 0.4
0.2 0.3 0.6
0.2 0.3 0.8
0.2 0.3 1
0.2 0.3 1.2
0.2 0.3 1.4
0.2 0.3 1.6
0.2 0.3 1.8
0.2 0.3 2
0.2 0.4 0
0.2 0.4 0.2
0.2 0.4 0.4
0.2 0.4 0.6
0.2 0.4 0.8
0.2 0.4 1
0.2 0.4 1.2
0.2 0.4 1.4
0.2 0.4 1.6
0.2 0.4 1.8
0.2 0.4 2
0.2 0.5 0
0.2 0.5 0.2
0.2 0.5 0.4
0.2 0.5 0.6
0.2 0.5 0.8
0.2 0.5 1
0.2 0.5 1.2
0.2 0.5 1.4
0.2 0.5 1.6
0.2 0.5 1.8
0.2 0.5 2
0.2 0.6 0
0.2 0.6 0.2
0.2 0.6 0.4
0.2 0.6 0.6
0.2 0.6 0.8
0.2 0.6 1
0.2 0.6 1.2
0.2 0.6 1.4
0.2 0.6 1.6
0.2 0.6 1.8
0.2 0.6 2
0.2 0.7 0
0.2 0.7 0.2
0.2 0.7 0.4
0.2 0.7 0.6
0.2 0.7 0.8
0.2 0.7 1
0.2 0.7 1.2
0.2 0.7 1.4
0.2 0.7 1.6
0.2 0.7 1.8
0.2 0.7 2
0.2 0.8 0
0.2 0.8 0.2
0.2 0.8 0.4
0.2 0.8 0.6
0.2 0.8 0.8
0.2 0.8 1
0.2 0.8 1.2
0.2 0.8 1.4
0.2 0.8 1.6
0.2 0.8 1.8
0.2 0.8 2
0.2 0.9 0
0.2 0.9 0.2
0.2 0.9 0.4
0.2 0.9 0.6
0.2 0.9 0.8
0.2 0.9 1
0.2 0.9 1.2
0.2 0.9 1.4
0.2 0.9 1.6
0.2 0.9 1.8
0.2 0.9 2
0.2 1 0
0.2 1 0.2
0.2 1 0.4
0.2 1 0.6
0.2 1 0.8
0.2 1 1
0.2 1 1.2
0.2 1 1.4
0.2 1 1.6
0.2 1 1.8
0.2 1 2
0.4 0 0
0.4 0 0.2
0.4 0 0.4
0.4 0 0.6
0.4 0 0.8
0.4 0 1
0.4 0 1.2
0.4 0 1.4
0.4 0 1.6
0.4 0 1.8
0.4 0 2
0.4 0.1 0
0.4 0.1 0.2
0.4 0.1 0.4
0.4 0.1 0.6
0.4 0.1 0.8
0.4 0.1 1
0.4 0.1 1.2
0.4 0.1 1.4
0.4 0.1 1.6
0.4 0.1 1.8
0.4 0.1 2
0.4 0.2 0
0.4 0.2 0.2
0.4 0.2 0.4
0.4 0.2 0.6
0.4 0.2 0.8
0.4 0.2 1
0.4 0.2 1.2
0.4 0.2 1.4
0.4 0.2 1.6
0.4 0.2 1.8
0.4 0.2 2
0.4 0.3 0
0.4 0.3 0.2
0.4 0.3 0.4
0.4 0.3 0.6
0.4 0.3 0.8
0.4 0.3 1
0.4 0.3 1.2
0.4 0.3 1.4
0.4 0.3 1.6
0.4 0.3 1.8
0.4 0.3 2
0.4 0.4 0
0.4 0.4 0.2
0.4 0.4 0.4
0.4 0.4 0.6
0.4 0.4 0.8
0.4 0.4 1
0.4 0.4 1.2
0.4 0.4 1.4
0.4 0.4 1.6
0.4 0.4 1.8
0.4 0.4 2
0.4 0.5 0
0.4 0.5 0.2
0.4 0.5 0.4
0.4 0.5 0.6
0.4 0.5 0.8
0.4 0.5 1
0.4 0.5 1.2
0.4 0.5 1.4
0.4 0.5 1.6
0.4 0.5 1.8
0.4 0.5 2
0.4 0.6 0
0.4 0.6 0.2
0.4 0.6 0.4
0.4 0.6 0.6
0.4 0.6 0.8
0.4 0.6 1
0.4 0.6 1.2
0.4 0.6 1.4
0.4 0.6 1.6
0.4 0.6 1.8
0.4 0.6 2
0.4 0.7 0
0.4 0.7 0.2
0.4 0.7 0.4
0.4 0.7 0.6
0.4 0.7 0.8
0.4 0.7 1
0.4 0.7 1.2
0.4 0.7 1.4
0.4 0.7 1.6
0.4 0.7 1.8
0.4 0.7 2
0.4 0.8 0
0.4 0.8 0.2
0.4 0.8 0.4
0.4 0.8 0.6
0.4 0.8 0.8
0.4 0.8 1
0.4 0.8 1.2
0.4 0.8 1.4
0.4 0.8 1.6
0.4 0.8 1.8
0.4 0.8 2
0.4 0.9 0
0.4 0.9 0.2
0.4 0.9 0.4
0.4 0.9 0.6
0.4 0.9 0.8
0.4 0.9 1
0.4 0.9 1.2
0.4 0.9 1.4
0.4 0.9 1.6
0.4 0.9 1.8
0.4 0.9 2
0.4 1 0
0.4 1 0.2
0.4 1 0.4
0.4 1 0.6
0.4 1 0.8
0.4 1 1
0.4 1 1.2
0.4 1 1.4
0.4 1 1.6
0.4 1 1.8
0.4 1 2
0.6 0 0
0.6 0 0.2
0.6 0 0.4
0.6 0 0.6
0.6 0 0.8
0.6 0 1
0.6 0 1.2
0.6 0 1.4
0.6 0 1.6
0.6 0 1.8
0.6 0 2
0.6 0.1 0
0.6 0.1 0.2
0.6 0.1 0.4
0.6 0.1 0.6
0.6 0.1 0.8
0.6 0.1 1
0.6 0.1 1.2
0.6 0.1 1.4
0.6 0.1 1.6
0.6 0.1 1.8
0.6 0.1 2
0.6 0.2 0
0.6 0.2 0.2
0.6 0.2 0.4
0.6 0.2 0.6
0.6 0.2 0.8
0.6 0.2 1
0.6 0.2 1.2
0.6 0.2 1.4
0.6 0.2 1.6
0.6 0.2 1.8
0.6 0.2 2
0.6 0.3 0
0.6 0.3 0.2
0.6 0.3 0.4
0.6 0.3 0.6
0.6 0.3 0.8
0.6 0.3 1
0.6 0.3 1.2
0.6 0.3 1.4
0.6 0.3 1.6
0.6 0.3 1.8
0.6 0.3 2
0.6 0.4 0
0.6 0.4 0.2
0.6 0.4 0.4
0.6 0.4 0.6
0.6 0.4 0.8
0.6 0.4 1
0.6 0.4 1.2
0.6 0.4 1.4
0.6 0.4 1.6
0.6 0.4 1.8
0.6 0.4 2
0.6 0.5 0
0.6 0.5 0.2
0.6 0.5 0.4
0.6 0.5 0.6
0.6 0.5 0.8
0.6 0.5 1
0.6 0.5 1.2
0.6 0.5 1.4
0.6 0.5 1.6
0.6 0.5 1.8
0.6 0.5 2
0.6 0.6 0
0.6 0.6 0.2
0.6 0.6 0.4
0.6 0.6 0.6
0.6 0.6 0.8
0.6 0.6 1
0.6 0.6 1.2
0.6 0.6 1.4
0.6 0.6 1.6
0.6 0.6 1.8
0.6 0.6 2
0.6 0.7 0
0.6 0.7 0.2
0.6 0.7 0.4
0.6 0.7 0.6
0.6 0.7 0.8
0.6 0.7 1
0.6 0.7 1.2
0.6 0.7 1.4
0.6 0.7 1.6
0.6 0.7 1.8
0.6 0.7 2
0.6 0.8 0
0.6 0.8 0.2
0.6 0.8 0.4
0.6 0.8 0.6
0.6 0.8 0.8
0.6 0.8 1
0.6 0.8 1.2
0.6 0.8 1.4
0.6 0.8 1.6
0.6 0.8 1.8
0.6 0.8 2
0.6 0.9 0
0.6 0.9 0.2
0.6 0.9 0.4
0.6 0.9 0.6
0.6 0.9 0.8
0.6 0.9 1
0.6 0.9 1.2
0.6 0.9 1.4
0.6 0.9 1.6
0.6 0.9 1.8
0.6 0.9 2
0.6 1 0
0.6 1 0.2
0.6 1 0.4
0.6 1 0.6
0.6 1 0.8
0.6 1 1
0.6 1 1.2
0.6 1 1.4
0.6 1 1.6
0.6 1 1.8
0.6 1 2
0.8 0 0
0.8 0 0.2
0.8 0 0.4
0.8 0 0.6
0.8 0 0.8
0.8 0 1
0.8 0 1.2
0.8 0 1.4
0.8 0 1.6
0.8 0 1.8
0.8 0 2
0.8 0.1 0
0.8 0.1 0.2
0.8 0.1 0.4
0.8 0.1 0.6
0.8 0.1 0.8
0.8 0.1 1
0.8 0.1 1.2
0.8 0.1 1.4
0.8 0.1 1.6
0.8 0.1 1.8
0.8 0.1 2
0.8 0.2 0
0.8 0.2 0.2
0.8 0.2 0.4
0.8 0.2 0.6
0.8 0.2 0.8
0.8 0.2 1
0.8 0.2 1.2
0.8 0.2 1.4
0.8 0.2 1.6
0.8 0.2 1.8
0.8 0.2 2
0.8 0.3 0
0.8 0.3 0.2
0.8 0.3 0.4
0.8 0.3 0.6
0.8 0.3 0.8
0.8 0.3 1
0.8 0.3 1.2
0.8 0.3 1.4
0.8 0.3 1.6
0.8 0.3 1.8
0.8 0.3 2
0.8 0.4 0
0.8 0.4 0.2
0.8 0.4 0.4
0.8 0.4 0.6
0.8 0.4 0.8
0.8 0.4 1
0.8 0.4 1.2
0.8 0.4 1.4
0.8 0.4 1.6
0.8 0.4 1.8
0.8 0.4 2
0.8 0.5 0
0.8 0.5 0.2
0.8 0.5 0.4
0.8 0.5 0.6
0.8 0.5 0.8
0.8 0.5 1
0.8 0.5 1.2
0.8 0.5 1.4
0.8 0.5 1.6
0.8 0.5 1.8
0.8 0.5 2
0.8 0.6 0
0.8 0.6 0.2
0.8 0.6 0.4
0.8 0.6 0.6
0.8 0.6 0.8
0.8 0.6 1
0.8 0.6 1.2
0.8 0.6 1.4
0.8 0.6 1.6
0.8 0.6 1.8
0.8 0.6 2
0.8 0.7 0
0.8 0.7 0.2
0.8 0.7 0.4
0.8 0.7 0.6
0.8 0.7 0.8
0.8 0.7 1
0.8 0.7 1.2
0.8 0.7 1.4
0.8 0.7 1.6
0.8 0.7 1.8
0.8 0.7 2
0.8 0.8 0
0.8 0.8 0.2
0.8 0.8 0.4
0.8 0.8 0.6
0.8 0.8 0.8
0.8 0.8 1
0.8 0.8 1.2
0.8 0.8 1.4
0.8 0.8 1.6
0.8 0.8 1.8
0.8 0.8 2
0.8 0.9 0
0.8 0.9 0.2
0.8 0.9 0.4
0.8 0.9 0.6
0.8 0.9 0.8
0.8 0.9 1
0.8 0.9 1.2
0.8 0.9 1.4
0.8 0.9 1.6
0.8 0.9 1.8
0.8 0.9 2
0.8 1 0
0.8 1 0.2
0.8 1 0.4
0.8 1 0.6
0.8 1 0.8
0.8 1 1
0.8 1 1.2
0.8 1 1.4
0.8 1 1.6
0.8 1 1.8
0.8 1 2
1 0 0
1 0 0.2
1 0 0.4
1 0 0.6
1 0 0.8
1 0 1
1 0 1.2
1 0 1.4
1 0 1.6
1 0 1.8
1 0 2
1 0.1 0
1 0.1 0.2
1 0.1 0.4
1 0.1 0.6
1 0.1 0.8
1 0.1 1
1 0.1 1.2
1 0.1 1.4
1 0.1 1.6
1 0.1 1.8
1 0.1 2
1 0.2 0
1 0.2 0.2
1 0.2 0.4
1 0.2 0.6
1 0.2 0.8
1 0.2 1
1 0.2 1.2
1 0.2 1.4
1 0.2 1.6
1 0.2 1.8
1 0.2 2
1 0.3 0
1 0.3 0.2
1 0.3 0.4
1 0.3 0.6
1 0.3 0.8
1 0.3 1
1 0.3 1.2
1 0.3 1.4
1 0.3 1.6
1 0.3 1.8
1 0.3 2
1 0.4 0
1 0.4 0.2
1 0.4 0.4
1 0.4 0.6
1 0.4 0.8
1 0.4 1
1 0.4 1.2
1 0.4 1.4
1 0.4 1.6
1 0.4 1.8
1 0.4 2
1 0.5 0
1 0.5 0.2
1 0.5 0.4
1 0.5 0.6
1 0.5 0.8
1 0.5 1
1 0.5 1.2
1 0.5 1.4
1 0.5 1.6
1 0.5 1.8
1 0.5 2
1 0.6 0
1 0.6 0.2
1 0.6 0.4
1 0.6 0.6
1 0.6 0.8
1 0.6 1
1 0.6 1.2
1 0.6 1.4
1 0.6 1.6
1 0.6 1.8
1 0.6 2
1 0.7 0
1 0.7 0.2
1 0.7 0.4
1 0.7 0.6
1 0.7 0.8
1 0.7 1
1 0.7 1.2
1 0.7 1.4
1 0.7 1.6
1 0.7 1.8
1 0.7 2
1 0.8 0
1 0.8 0.2
1 0.8 0.4
1 0.8 0.6
1 0.8 0.8
1 0.8 1
1 0.8 1.2
1 0.8 1.4
1 0.8 1.6
1 0.8 1.8
1 0.8 2
1 0.9 0
1 0.9 0.2
1 0.9 0.4
1 0.9 0.6
1 0.9 0.8
1 0.9 1
1 0.9 1.2
1 0.9 1.4
1 0.9 1.6
1 0.9 1.8
1 0.9 2
1 1 0
1 1 0.2
1 1 0.4
1 1 0.6
1 1 0.8
1 1 1
1 1 1.2
1 1 1.4
1 1 1.6
1 1 1.8
1 1 2
1.2 0 0
1.2 0 0.2
1.2 0 0.4
1.2 0 0.6
1.2 0 0.8
1.2 0 1
1.2 0 1.2
1.2 0 1.4
1.2 0 1.6
1.2 0 1.8
1.2 0 2
1.2 0.1 0
1.2 0.1 0.2
1.2 0.1 0.4
1.2 0.1 0.6
1.2 0.1 0.8
1.2 0.1 1
1.2 0.1 1.2
1.2 0.1 1.4
1.2 0.1 1.6
1.2 0.1 1.8
1.2 0.1 2
1.2 0.2 0
1.2 0.2 0.2
1.2 0.2 0.4
1.2 0.2 0.6
1.2 0.2 0.8
1.2 0.2 1
1.2 0.2 1.2
1.2 0.2 1.4
1.2 0.2 1.6
1.2 0.2 1.8
1.2 0.2 2
1.2 0.3 0
1.2 0.3 0.2
1.2 0.3 0.4
1.2 0.3 0.6
1.2 0.3 0.8
1.2 0.3 1
1.2 0.3 1.2
1.2 0.3 1.4
1.2 0.3 1.6
1.2 0.3 1.8
1.2 0.3 2
1.2 0.4 0
1.2 0.4 0.2
1.2 0.4 0.4
1.2 0.4 0.6
1.2 0.4 0.8
1.2 0.4 1
1.2 0.4 1.2
1.2 0.4 1.4
1.2 0.4 1.6
1.2 0.4 1.8
1.2 0.4 2
1.2 0.5 0
1.2 0.5 0.2
1.2 0.5 0.4
1.2 0.5 0.6
1.2 0.5 0.8
1.2 0.5 1
1.2 0.5 1.2
1.2 0.5 1.4
1.2 0.5 1.6
1.2 0.5 1.8
1.2 0.5 2
1.2 0.6 0
1.2 0.6 0.2
1.2 0.6 0.4
1.2 0.6 0.6
1.2 0.6 0.8
1.2 0.6 1
1.2 0.6 1.2
1.2 0.6 1.4
1.2 0.6 1.6
1.2 0.6 1.8
1.2 0.6 2
1.2 0.7 0
1.2 0.7 0.2
1.2 0.7 0.4
1.2 0.7 0.6
1.2 0.7 0.8
1.2 0.7 1
1.2 0.7 1.2
1.2 0.7 1.4
1.2 0.7 1.6
1.2 0.7 1.8
1.2 0.7 2
1.2 0.8 0
1.2 0.8 0.2
1.2 0.8 0.4
1.2 0.8 0.6
1.2 0.8 0.8
1.2 0.8 1
1.2 0.8 1.2
1.2 0.8 1.4
1.2 0.8 1.6
1.2 0.8 1.8
1.2 0.8 2
1.2 0.9 0
1.2 0.9 0.2
1.2 0.9 0.4
1.2 0.9 0.6
1.2 0.9 0.8
1.2 0.9 1
1.2 0.9 1.2
1.2 0.9 1.4
1.2 0.9 1.6
1.2 0.9 1.8
1.2 0.9 2
1.2 1 0
1.2 1 0.2
1.2 1 0.4
1.2 1 0.6
1.2 1 0.8
1.2 1 1
1.2 1 1.2
1.2 1 1.4
1.2 1 1.6
1.2 1 1.8
1.2 1 2
1.4 0 0
1.4 0 0.2
1.4 0 0.4
1.4 0 0.6
1.4 0 0.8
1.4 0 1
1.4 0 1.2
1.4 0 1.4
1.4 0 1.6
1.4 0 1.8
1.4 0 2
1.4 0.1 0
1.4 0.1 0.2
1.4 0.1 0.4
1.4 0.1 0.6
1.4 0.1 0.8
1.4 0.1 1
1.4 0.1 1.2
1.4 0.1 1.4
1.4 0.1 1.6
1.4 0.1 1.8
1.4 0.1 2
1.4 0.2 0
1.4 0.2 0.2
1.4 0.2 0.4
1.4 0.2 0.6
1.4 0.2 0.8
1.4 0.2 1
1.4 0.2 1.2
1.4 0.2 1.4
1.4 0.2 1.6
1.4 0.2 1.8
1.4 0.2 2
1.4 0.3 0
1.4 0.3 0.2
1.4 0.3 0.4
1.4 0.3 0.6
1.4 0.3 0.8
1.4 0.3 1
1.4 0.3 1.2
1.4 0.3 1.4
1.4 0.3 1.6
1.4 0.3 1.8
1.4 0.3 2
1.4 0.4 0
1.4 0.4 0.2
1.4 0.4 0.4
1.4 0.4 0.6
1.4 0.4 0.8
1.4 0.4 1
1.4 0.4 1.2
1.4 0.4 1.4
1.4 0.4 1.6
1.4 0.4 1.8
1.4 0.4 2
1.4 0.5 0
1.4 0.5 0.2
1.4 0.5 0.4
1.4 0.5 0.6
1.4 0.5 0.8
1.4 0.5 1
1.4 0.5 1.2
1.4 0.5 1.4
1.4 0.5 1.6
1.4 0.5 1.8
1.4 0.5 2
1.4 0.6 0
1.4 0.6 0.2
1.4 0.6 0.4
1.4 0.6 0.6
1.4 0.6 0.8
1.4 0.6 1
1.4 0.6 1.2
1.4 0.6 1.4
1.4 0.6 1.6
1.4 0.6 1.8
1.4 0.6 2
1.4 0.7 0
1.4 0.7 0.2
1.4 0.7 0.4
1.4 0.7 0.6
1.4 0.7 0.8
1.4 0.7 1
1.4 0.7 1.2
1.4 0.7 1.4
1.4 0.7 1.6
1.4 0.7 1.8
[...]
POINT_DATA 12342

SCALARS v double
LOOKUP_TABLE default
-0
-0
-0
-0
-0
-0
-0
-0
-0
-0
-0
0
0
0
0
0
0
0
0
0
0
0
0
0
0
0
0
0
0
0
0
0
0
0
0
0
0
0
0
0
0
0
0
0
0
0
0
0
0
0
0
0
0
0
0
0
0
0
0
0
0
0
0
0
0
0
0
0
0
0
0
0
0
0
0
0
0
0
0
0
0
0
0
0
0
0
0
0
0
0
0
0
0
0
0
0
0
0
0
0
0
0
0
0
0
0
0
0
0
0
-0
-0
-0
-0
-0
-0
-0
-0
-0
-0
-0
-0
-0
-0
-0
-0
-0
-0
-0
-0
-0
-0
0
0.00414525
0.00414527
0.00414529
0.00414532
0.00414534
0.00414537
0.00414539
0.00414542
0.00414545
0
0
0.00252888
0.0025289
0.00252893
0.00252895
0.00252898
0.002529
0.00252903
0.00252906
0.00252909
0
0
0.00135513
0.00135516
0.00135518
0.00135521
0.00135523
0.00135526
0.00135529
0.00135532
0.00135535
0
0
0.00039313
0.000393155
0.00039318
0.000393207
0.000393234
0.000393263
0.000393293
0.000393324
0.000393356
0
0
-0.000506043
-0.000506018
-0.000505991
-0.000505964
-0.000505935
-0.000505905
-0.000505874
-0.000505842
-0.000505809
0
0
-0.00146804
-0.00146801
-0.00146799
-0.00146796
-0.00146793
-0.0014679
-0.00146787
-0.00146783
-0.0014678
0
0
-0.00264177
-0.00264175
-0.00264172
-0.00264169
-0.00264166
-0.00264162
-0.00264159
-0.00264156
-0.00264152
0
0
-0.00425812
-0.00425809
-0.00425806
-0.00425803
-0.004258
-0.00425797
-0.00425793
-0.0042579
-0.00425786
0
0
0
0
0
0
0
0
0
0
0
0
-0
-0
-0
-0
-0
-0
-0
-0
-0
-0
-0
-0
-0
-0
-0
-0
-0
-0
-0
-0
-0
-0
0
0.00071156
0.000711582
0.000711604
0.000711627
0.000711652
0.000711677
0.000711703
0.00071173
0.000711758
0
0
0.000758466
0.000758488
0.000758512
0.000758536
0.000758562
0.000758588
0.000758615
0.000758644
0.000758673
0
0
0.000508258
0.000508281
0.000508305
0.000508331
0.000508357
0.000508385
0.000508413
0.000508443
0.000508474
0
0
0.0001419
0.000141924
0.000141949
0.000141976
0.000142004
0.000142032
0.000142062
0.000142093
0.000142125
0
0
-0.000254655
-0.000254629
-0.000254603
-0.000254576
-0.000254547
-0.000254517
-0.000254486
-0.000254454
-0.000254421
0
0
-0.000621006
-0.00062098
-0.000620952
-0.000620924
-0.000620894
-0.000620863
-0.000620831
-0.000620798
-0.000620763
0
0
-0.000871201
-0.000871174
-0.000871145
-0.000871116
-0.000871085
-0.000871053
-0.00087102
-0.000870985
-0.000870949
0
0
-0.000824275
-0.000824247
-0.000824217
-0.000824187
-0.000824155
-0.000824122
-0.000824087
-0.000824051
-0.000824014
0
0
0
0
0
0
0
0
0
0
0
0
-0
-0
-0
-0
-0
-0
-0
-0
-0
-0
-0
-0
-0
-0
-0
-0
-0
-0
-0
-0
-0
-0
0
0.000122709
0.00012273
0.000122753
0.000122776
0.0001228
0.000122825
0.000122852
0.000122879
0.000122907
0
0
0.000176572
0.000176595
0.000176618
0.000176642
0.000176668
0.000176694
0.000176721
0.00017675
0.000176779
0
0
0.000126044
0.000126067
0.000126092
0.000126117
0.000126143
0.000126171
0.000126199
0.000126229
0.000126259
0
0
1.15226e-05
1.15469e-05
1.15722e-05
1.15987e-05
1.16262e-05
1.16548e-05
1.16845e-05
1.17152e-05
1.17471e-05
0
0
-0.00012401
-0.000123985
-0.000123958
-0.000123931
-0.000123902
-0.000123872
-0.000123842
-0.00012381
-0.000123776
0
0
-0.000238524
-0.000238498
-0.000238471
-0.000238442
-0.000238413
-0.000238382
-0.00023835
-0.000238317
-0.000238282
0
0
-0.000289039
-0.000289012
-0.000288984
-0.000288954
-0.000288923
-0.000288891
-0.000288858
-0.000288824
-0.000288788
0
0
-0.000235156
-0.000235128
-0.000235098
-0.000235068
-0.000235036
-0.000235003
-0.000234968
-0.000234933
-0.000234896
0
0
0
0
0
0
0
0
0
0
0
0
-0
-0
-0
-0
-0
-0
-0
-0
-0
-0
-0
-0
-0
-0
-0
-0
-0
-0
-0
-0
-0
-0
0
-4.98191e-06
-4.9606e-06
-4.93833e-06
-4.91511e-06
-4.89093e-06
-4.8658e-06
-4.83972e-06
-4.81269e-06
-4.78471e-06
0
0
1.23074e-05
1.23297e-05
1.23529e-05
1.23772e-05
1.24025e-05
1.24287e-05
1.2456e-05
1.24842e-05
1.25135e-05
0
0
-1.33309e-07
-1.10086e-07
-8.58205e-08
-6.05128e-08
-3.41648e-08
-6.7781e-09
2.16457e-08
5.11051e-08
8.15985e-08
0
0
-3.47428e-05
-3.47186e-05
-3.46934e-05
-3.4667e-05
-3.46396e-05
-3.46111e-05
-3.45815e-05
-3.45508e-05
-3.45191e-05
0
0
-7.73668e-05
-7.73416e-05
-7.73154e-05
-7.7288e-05
-7.72595e-05
-7.72298e-05
-7.71991e-05
-7.71672e-05
-7.71342e-05
0
0
-0.00011197
-0.000111943
-0.000111916
-0.000111888
-0.000111858
-0.000111827
-0.000111796
-0.000111762
-0.000111728
0
0
-0.000124397
-0.00012437
-0.000124342
-0.000124312
-0.000124281
-0.00012425
-0.000124217
-0.000124182
-0.000124147
0
0
-0.000107088
-0.00010706
-0.00010703
-0.000107
-0.000106968
-0.000106935
-0.000106901
-0.000106865
-0.000106829
0
0
0
0
0
0
0
0
0
0
0
0
-0
-0
-0
-0
-0
-0
-0
-0
-0
-0
-0
-0
-0
-0
-0
-0
-0
-0
-0
-0
-0
-0
0
-3.6603e-05
-3.65818e-05
-3.65596e-05
-3.65365e-05
-3.65124e-05
-3.64874e-05
-3.64614e-05
-3.64345e-05
-3.64066e-05
0
0
-3.2975e-05
-3.29529e-05
-3.29297e-05
-3.29055e-05
-3.28804e-05
-3.28542e-05
-3.28271e-05
-3.2799e-05
-3.27699e-05
0
0
-3.75708e-05
-3.75477e-05
-3.75235e-05
-3.74983e-05
-3.74721e-05
-3.74448e-05
-3.74165e-05
-3.73871e-05
-3.73568e-05
0
0
-4.88835e-05
-4.88594e-05
-4.88342e-05
-4.8808e-05
-4.87807e-05
-4.87523e-05
-4.87228e-05
-4.86923e-05
-4.86607e-05
0
0
-6.27392e-05
-6.27142e-05
-6.2688e-05
-6.26608e-05
-6.26324e-05
-6.26029e-05
-6.25722e-05
-6.25405e-05
-6.25076e-05
0
0
-7.40452e-05
-7.40193e-05
-7.39921e-05
-7.39638e-05
-7.39344e-05
-7.39037e-05
-7.38719e-05
-7.3839e-05
-7.38049e-05
0
0
-7.86277e-05
-7.86007e-05
-7.85726e-05
-7.85433e-05
-7.85127e-05
-7.8481e-05
-7.8448e-05
-7.84139e-05
-7.83786e-05
0
0
-7.49797e-05
-7.49519e-05
-7.49228e-05
-7.48924e-05
-7.48608e-05
-7.48279e-05
-7.47938e-05
-7.47585e-05
-7.47219e-05
0
0
0
0
0
0
0
0
0
0
0
0
-0
-0
-0
-0
-0
-0
-0
-0
-0
-0
-0
-0
-0
-0
-0
-0
-0
-0
-0
-0
-0
-0
0
-4.47973e-05
-4.47762e-05
-4.47541e-05
-4.47311e-05
-4.47072e-05
-4.46823e-05
-4.46564e-05
-4.46297e-05
-4.46019e-05
0
0
-4.53008e-05
-4.52787e-05
-4.52557e-05
-4.52316e-05
-4.52066e-05
-4.51806e-05
-4.51536e-05
-4.51256e-05
-4.50967e-05
0
0
-4.80762e-05
-4.80532e-05
-4.80291e-05
-4.80041e-05
-4.7978e-05
-4.79508e-05
-4.79227e-05
-4.78935e-05
-4.78633e-05
0
0
-5.27853e-05
-5.27614e-05
-5.27363e-05
-5.27102e-05
-5.26831e-05
-5.26548e-05
-5.26255e-05
-5.25951e-05
-5.25637e-05
0
0
-5.82418e-05
-5.82169e-05
-5.81909e-05
-5.81637e-05
-5.81355e-05
-5.81061e-05
-5.80757e-05
-5.80441e-05
-5.80114e-05
0
0
-6.29443e-05
-6.29185e-05
-6.28915e-05
-6.28633e-05
-6.2834e-05
-6.28035e-05
-6.27719e-05
-6.27391e-05
-6.27052e-05
0
0
-6.57064e-05
-6.56797e-05
-6.56517e-05
-6.56225e-05
-6.55921e-05
-6.55605e-05
-6.55278e-05
-6.54938e-05
-6.54586e-05
0
0
-6.61901e-05
-6.61624e-05
-6.61334e-05
-6.61032e-05
-6.60717e-05
-6.60391e-05
-6.60051e-05
-6.597e-05
-6.59336e-05
0
0
0
0
0
0
0
0
0
0
0
0
-0
-0
-0
-0
-0
-0
-0
-0
-0
-0
-0
-0
-0
-0
-0
-0
-0
-0
-0
-0
-0
-0
0
-4.67998e-05
-4.67788e-05
-4.67569e-05
-4.6734e-05
-4.67102e-05
-4.66855e-05
-4.66598e-05
-4.66332e-05
-4.66057e-05
0
0
-4.84774e-05
-4.84555e-05
-4.84326e-05
-4.84087e-05
-4.83838e-05
-4.8358e-05
-4.83311e-05
-4.83033e-05
-4.82746e-05
0
0
-5.07827e-05
-5.07598e-05
-5.07359e-05
-5.0711e-05
-5.06851e-05
-5.06581e-05
-5.06301e-05
-5.06011e-05
-5.05711e-05
0
0
-5.36317e-05
-5.36079e-05
-5.35831e-05
-5.35571e-05
-5.35301e-05
-5.35021e-05
-5.34729e-05
-5.34427e-05
-5.34115e-05
0
0
-5.66918e-05
-5.6667e-05
-5.66412e-05
-5.66142e-05
-5.65861e-05
-5.6557e-05
-5.65267e-05
-5.64953e-05
-5.64628e-05
0
0
-5.95343e-05
-5.95086e-05
-5.94817e-05
-5.94538e-05
-5.94246e-05
-5.93944e-05
-5.93629e-05
-5.93303e-05
-5.92966e-05
0
0
-6.18264e-05
-6.17997e-05
-6.17719e-05
-6.17429e-05
-6.17127e-05
-6.16814e-05
-6.16488e-05
-6.1615e-05
-6.15801e-05
0
0
-6.34842e-05
-6.34567e-05
-6.34279e-05
-6.33979e-05
-6.33666e-05
-6.33341e-05
-6.33004e-05
-6.32655e-05
-6.32293e-05
0
0
0
0
0
0
0
0
0
0
0
0
-0
-0
-0
-0
-0
-0
-0
-0
-0
-0
-0
-0
-0
-0
-0
-0
-0
-0
-0
-0
-0
-0
0
-4.70861e-05
-4.70653e-05
-4.70435e-05
-4.70208e-05
-4.69972e-05
-4.69726e-05
-4.69471e-05
-4.69207e-05
-4.68933e-05
0
0
-4.90823e-05
-4.90605e-05
-4.90378e-05
-4.9014e-05
-4.89893e-05
-4.89637e-05
-4.8937e-05
-4.89094e-05
-4.88809e-05
0
0
-5.12505e-05
-5.12278e-05
-5.12041e-05
-5.11794e-05
-5.11536e-05
-5.11268e-05
-5.1099e-05
-5.10703e-05
-5.10404e-05
0
0
-5.35687e-05
-5.35451e-05
-5.35204e-05
-5.34946e-05
-5.34678e-05
-5.344e-05
-5.3411e-05
-5.33811e-05
-5.335e-05
0
0
-5.5944e-05
-5.59194e-05
-5.58937e-05
-5.5867e-05
-5.58391e-05
-5.58101e-05
-5.57801e-05
-5.57489e-05
-5.57166e-05
0
0
-5.82556e-05
-5.82302e-05
-5.82035e-05
-5.81757e-05
-5.81468e-05
-5.81167e-05
-5.80855e-05
-5.80532e-05
-5.80197e-05
0
0
-6.04108e-05
-6.03844e-05
-6.03568e-05
-6.0328e-05
-6.0298e-05
-6.02668e-05
-6.02345e-05
-6.0201e-05
-6.01663e-05
0
0
-6.23874e-05
-6.236e-05
-6.23314e-05
-6.23016e-05
-6.22706e-05
-6.22384e-05
-6.22049e-05
-6.21702e-05
-6.21343e-05
0
0
0
0
0
0
0
0
0
0
0
0
-0
-0
-0
-0
-0
-0
-0
-0
-0
-0
-0
-0
-0
-0
-0
-0
-0
-0
-0
-0
-0
-0
0
-4.68663e-05
-4.68457e-05
-4.68241e-05
-4.68016e-05
-4.67781e-05
-4.67538e-05
-4.67285e-05
-4.67023e-05
-4.66751e-05
0
0
-4.89381e-05
-4.89165e-05
-4.8894e-05
-4.88704e-05
-4.8846e-05
-4.88205e-05
-4.87941e-05
-4.87667e-05
-4.87383e-05
0
0
-5.10555e-05
-5.1033e-05
-5.10095e-05
-5.09849e-05
-5.09594e-05
-5.09328e-05
-5.09053e-05
-5.08767e-05
-5.08472e-05
0
0
-5.32125e-05
-5.3189e-05
-5.31645e-05
-5.3139e-05
-5.31124e-05
-5.30847e-05
-5.30561e-05
-5.30263e-05
-5.29955e-05
0
0
-5.5383e-05
-5.53587e-05
-5.53332e-05
-5.53067e-05
-5.5279e-05
-5.52503e-05
-5.52205e-05
-5.51896e-05
-5.51576e-05
0
0
-5.75335e-05
-5.75082e-05
-5.74818e-05
-5.74542e-05
-5.74256e-05
-5.73957e-05
-5.73648e-05
-5.73327e-05
-5.72995e-05
0
0
-5.96379e-05
-5.96117e-05
-5.95843e-05
-5.95558e-05
-5.9526e-05
-5.94951e-05
-5.94631e-05
-5.94298e-05
-5.93954e-05
0
0
-6.16903e-05
-6.16632e-05
-6.16348e-05
-6.16053e-05
-6.15745e-05
-6.15425e-05
-6.15093e-05
-6.14749e-05
-6.14393e-05
0
0
0
0
0
0
0
0
0
0
0
0
-0
-0
-0
-0
-0
-0
-0
-0
-0
-0
-0
-0
-0
-0
-0
-0
-0
-0
-0
-0
-0
-0
0
-4.64735e-05
-4.6453e-05
-4.64316e-05
-4.64093e-05
-4.63861e-05
-4.63619e-05
-4.63369e-05
-4.63109e-05
-4.6284e-05
0
0
-4.85515e-05
-4.85301e-05
-4.85077e-05
-4.84844e-05
-4.84601e-05
-4.84349e-05
-4.84087e-05
-4.83816e-05
-4.83535e-05
0
0
-5.06399e-05
-5.06176e-05
-5.05943e-05
-5.057e-05
-5.05447e-05
-5.05184e-05
-5.04911e-05
-5.04628e-05
-5.04335e-05
0
0
-5.27371e-05
-5.27139e-05
-5.26896e-05
-5.26643e-05
-5.2638e-05
-5.26106e-05
-5.25821e-05
-5.25527e-05
-5.25222e-05
0
0
-5.48358e-05
-5.48117e-05
-5.47864e-05
-5.47601e-05
-5.47327e-05
-5.47043e-05
-5.46747e-05
-5.46441e-05
-5.46124e-05
0
0
-5.69266e-05
-5.69015e-05
-5.68754e-05
-5.6848e-05
-5.68196e-05
-5.67901e-05
-5.67594e-05
-5.67276e-05
-5.66947e-05
0
0
-5.90022e-05
-5.89762e-05
-5.89491e-05
-5.89208e-05
-5.88913e-05
-5.88607e-05
-5.88289e-05
-5.8796e-05
-5.87619e-05
0
0
-6.10609e-05
-6.1034e-05
-6.1006e-05
-6.09767e-05
-6.09462e-05
-6.09145e-05
-6.08816e-05
-6.08475e-05
-6.08122e-05
0
0
0
0
0
0
0
0
0
0
0
0
-0
-0
-0
-0
-0
-0
-0
-0
-0
-0
-0
-0
-0
-0
-0
-0
-0
-0
-0
-0
-0
-0
0
-4.60001e-05
-4.59798e-05
-4.59587e-05
-4.59366e-05
-4.59136e-05
-4.58897e-05
-4.58649e-05
-4.58392e-05
-4.58126e-05
0
0
-4.80635e-05
-4.80423e-05
-4.80202e-05
-4.79971e-05
-4.79731e-05
-4.79481e-05
-4.79222e-05
-4.78954e-05
-4.78676e-05
0
0
-5.01275e-05
-5.01055e-05
-5.00824e-05
-5.00583e-05
-5.00333e-05
-5.00072e-05
-4.99802e-05
-4.99522e-05
-4.99232e-05
0
0
-5.21918e-05
-5.21688e-05
-5.21448e-05
-5.21197e-05
-5.20937e-05
-5.20666e-05
-5.20384e-05
-5.20093e-05
-5.19791e-05
0
0
-5.42542e-05
-5.42303e-05
-5.42054e-05
-5.41793e-05
-5.41522e-05
-5.4124e-05
-5.40948e-05
-5.40645e-05
-5.40331e-05
0
0
-5.63121e-05
-5.62873e-05
-5.62614e-05
-5.62344e-05
-5.62063e-05
-5.6177e-05
-5.61467e-05
-5.61152e-05
-5.60826e-05
0
0
-5.83635e-05
-5.83378e-05
-5.83109e-05
-5.82829e-05
-5.82537e-05
-5.82234e-05
-5.8192e-05
-5.81594e-05
-5.81256e-05
0
0
-6.04078e-05
-6.03812e-05
-6.03534e-05
-6.03244e-05
-6.02942e-05
-6.02628e-05
-6.02303e-05
-6.01965e-05
-6.01616e-05
0
0
0
0
0
0
0
0
0
0
0
0
-0
-0
-0
-0
-0
-0
-0
-0
-0
-0
-0
-0
-0
-0
-0
-0
-0
-0
-0
-0
-0
-0
0
-4.54723e-05
-4.54523e-05
-4.54314e-05
-4.54095e-05
-4.53868e-05
-4.53632e-05
-4.53386e-05
-4.53132e-05
-4.52869e-05
0
0
-4.75138e-05
-4.74929e-05
-4.7471e-05
-4.74482e-05
-4.74245e-05
-4.73998e-05
-4.73742e-05
-4.73476e-05
-4.73201e-05
0
0
-4.95534e-05
-4.95315e-05
-4.95087e-05
-4.94849e-05
-4.94601e-05
-4.94344e-05
-4.94077e-05
-4.938e-05
-4.93513e-05
0
0
-5.15907e-05
-5.1568e-05
-5.15442e-05
-5.15195e-05
-5.14937e-05
-5.14669e-05
-5.1439e-05
-5.14102e-05
-5.13804e-05
0
0
-5.36253e-05
-5.36017e-05
-5.3577e-05
-5.35512e-05
-5.35244e-05
-5.34966e-05
-5.34677e-05
-5.34377e-05
-5.34067e-05
0
0
-5.56564e-05
-5.56319e-05
-5.56062e-05
-5.55795e-05
-5.55517e-05
-5.55228e-05
-5.54928e-05
-5.54617e-05
-5.54295e-05
0
0
-5.76833e-05
-5.76579e-05
-5.76314e-05
-5.76037e-05
-5.75748e-05
-5.75449e-05
-5.75137e-05
-5.74815e-05
-5.74481e-05
0
0
-5.9706e-05
-5.96797e-05
-5.96522e-05
-5.96235e-05
-5.95937e-05
-5.95627e-05
-5.95305e-05
-5.94971e-05
-5.94625e-05
0
0
0
0
0
0
0
0
0
0
0
0
-0
-0
-0
-0
-0
-0
-0
-0
-0
-0
-0
-0
-0
-0
-0
-0
-0
-0
-0
-0
-0
-0
0
-4.48978e-05
-4.4878e-05
-4.48573e-05
-4.48358e-05
-4.48133e-05
-4.479e-05
-4.47658e-05
-4.47407e-05
-4.47147e-05
0
0
-4.6914e-05
-4.68933e-05
-4.68717e-05
-4.68492e-05
-4.68257e-05
-4.68013e-05
-4.6776e-05
-4.67498e-05
-4.67227e-05
0
0
-4.89275e-05
-4.89059e-05
-4.88834e-05
-4.88599e-05
-4.88354e-05
-4.881e-05
-4.87836e-05
-4.87563e-05
-4.87279e-05
0
0
-5.09382e-05
-5.09158e-05
-5.08923e-05
-5.08678e-05
-5.08424e-05
-5.08159e-05
-5.07884e-05
-5.07599e-05
-5.07305e-05
0
0
-5.29459e-05
-5.29226e-05
-5.28982e-05
-5.28728e-05
-5.28463e-05
-5.28188e-05
-5.27902e-05
-5.27606e-05
-5.273e-05
0
0
-5.49504e-05
-5.49262e-05
-5.49009e-05
-5.48745e-05
-5.4847e-05
-5.48185e-05
-5.47888e-05
-5.47581e-05
-5.47263e-05
0
0
-5.69515e-05
-5.69264e-05
-5.69002e-05
-5.68728e-05
-5.68444e-05
-5.68148e-05
-5.6784e-05
-5.67522e-05
-5.67192e-05
0
0
-5.89491e-05
-5.89231e-05
-5.8896e-05
-5.88677e-05
-5.88382e-05
-5.88076e-05
-5.87758e-05
-5.87428e-05
-5.87087e-05
0
0
0
0
0
0
0
0
0
0
0
0
-0
-0
-0
-0
-0
-0
-0
-0
-0
-0
-0
-0
-0
-0
-0
-0
-0
-0
-0
-0
-0
-0
0
-4.42791e-05
-4.42595e-05
-4.42391e-05
-4.42179e-05
-4.41957e-05
-4.41727e-05
-4.41488e-05
-4.4124e-05
-4.40984e-05
0
0
-4.62676e-05
-4.62472e-05
-4.62259e-05
-4.62037e-05
-4.61805e-05
-4.61565e-05
-4.61315e-05
-4.61056e-05
-4.60788e-05
0
0
-4.82533e-05
-4.8232e-05
-4.82098e-05
-4.81866e-05
-4.81625e-05
-4.81374e-05
-4.81113e-05
-4.80843e-05
-4.80564e-05
0
0
-5.0236e-05
-5.02139e-05
-5.01907e-05
-5.01666e-05
-5.01415e-05
-5.01154e-05
-5.00882e-05
-5.00601e-05
-5.00311e-05
0
0
-5.22158e-05
-5.21927e-05
-5.21687e-05
-5.21436e-05
-5.21175e-05
-5.20903e-05
-5.20621e-05
-5.20329e-05
-5.20027e-05
0
0
-5.41924e-05
-5.41685e-05
-5.41435e-05
-5.41175e-05
-5.40904e-05
-5.40622e-05
-5.40329e-05
-5.40026e-05
-5.39713e-05
0
0
-5.61658e-05
-5.6141e-05
-5.61152e-05
-5.60882e-05
-5.60601e-05
-5.60309e-05
-5.60006e-05
-5.59691e-05
-5.59366e-05
0
0
-5.8136e-05
-5.81104e-05
-5.80836e-05
-5.80556e-05
-5.80266e-05
-5.79963e-05
-5.79649e-05
-5.79324e-05
-5.78988e-05
0
0
0
0
0
0
0
0
0
0
0
0
-0
-0
-0
-0
-0
-0
-0
-0
-0
-0
-0
-0
-0
-0
-0
-0
-0
-0
-0
-0
-0
-0
0
-4.36173e-05
-4.35981e-05
-4.3578e-05
-4.3557e-05
-4.35352e-05
-4.35125e-05
-4.3489e-05
-4.34645e-05
-4.34393e-05
0
0
-4.55762e-05
-4.55561e-05
-4.55351e-05
-4.55132e-05
-4.54904e-05
-4.54667e-05
-4.54421e-05
-4.54166e-05
-4.53902e-05
0
0
-4.75322e-05
-4.75112e-05
-4.74893e-05
-4.74664e-05
-4.74427e-05
-4.74179e-05
-4.73923e-05
-4.73657e-05
-4.73381e-05
0
0
-4.94852e-05
-4.94634e-05
-4.94406e-05
-4.94168e-05
-4.9392e-05
-4.93663e-05
-4.93395e-05
-4.93119e-05
-4.92832e-05
0
0
-5.14352e-05
-5.14125e-05
-5.13888e-05
-5.13641e-05
-5.13384e-05
-5.13116e-05
-5.12838e-05
-5.12551e-05
-5.12253e-05
0
0
-5.33822e-05
-5.33587e-05
-5.33341e-05
-5.33084e-05
-5.32817e-05
-5.32539e-05
-5.32251e-05
-5.31952e-05
-5.31643e-05
0
0
-5.53261e-05
-5.53017e-05
-5.52762e-05
-5.52496e-05
-5.52219e-05
-5.51931e-05
-5.51633e-05
-5.51323e-05
-5.51003e-05
0
0
-5.72669e-05
-5.72416e-05
-5.72152e-05
-5.71877e-05
-5.7159e-05
-5.71292e-05
-5.70983e-05
-5.70663e-05
-5.70331e-05
0
0
0
0
0
0
0
0
0
0
0
0
-0
-0
-0
-0
-0
-0
-0
-0
-0
-0
-0
-0
-0
-0
-0
-0
-0
-0
-0
-0
-0
-0
0
-4.29134e-05
-4.28945e-05
-4.28747e-05
-4.2854e-05
-4.28326e-05
-4.28102e-05
-4.2787e-05
-4.2763e-05
-4.27382e-05
0
0
-4.48407e-05
-4.48209e-05
-4.48002e-05
-4.47786e-05
-4.47562e-05
-4.47328e-05
-4.47086e-05
-4.46835e-05
-4.46575e-05
0
0
-4.6765e-05
-4.67444e-05
-4.67228e-05
-4.67004e-05
-4.66769e-05
-4.66526e-05
-4.66273e-05
-4.66012e-05
-4.65741e-05
0
0
-4.86865e-05
-4.8665e-05
-4.86426e-05
-4.86192e-05
-4.85948e-05
-4.85695e-05
-4.85432e-05
-4.85159e-05
-4.84877e-05
0
0
-5.0605e-05
-5.05827e-05
-5.05594e-05
-5.0535e-05
-5.05097e-05
-5.04834e-05
-5.0456e-05
-5.04277e-05
-5.03984e-05
0
0
-5.25206e-05
-5.24974e-05
-5.24732e-05
-5.24479e-05
-5.24216e-05
-5.23943e-05
-5.23659e-05
-5.23365e-05
-5.23061e-05
0
0
-5.44331e-05
-5.44091e-05
-5.4384e-05
-5.43578e-05
-5.43305e-05
-5.43022e-05
-5.42728e-05
-5.42423e-05
-5.42108e-05
0
0
-5.63425e-05
-5.63177e-05
-5.62917e-05
-5.62646e-05
-5.62364e-05
-5.6207e-05
-5.61766e-05
-5.61451e-05
-5.61124e-05
0
0
0
0
0
0
0
0
0
0
0
0
-0
-0
-0
-0
-0
-0
-0
-0
-0
-0
-0
-0
-0
-0
-0
-0
-0
-0
-0
-0
-0
-0
0
-4.21681e-05
-4.21494e-05
-4.213e-05
-4.21097e-05
-4.20886e-05
-4.20666e-05
-4.20438e-05
-4.20202e-05
-4.19958e-05
0
0
-4.40618e-05
-4.40424e-05
-4.40221e-05
-4.40009e-05
-4.39788e-05
-4.39558e-05
-4.3932e-05
-4.39074e-05
-4.38818e-05
0
0
-4.59528e-05
-4.59325e-05
-4.59113e-05
-4.58892e-05
-4.58662e-05
-4.58422e-05
-4.58174e-05
-4.57917e-05
-4.5765e-05
0
0
-4.78409e-05
-4.78197e-05
-4.77977e-05
-4.77747e-05
-4.77507e-05
-4.77258e-05
-4.76999e-05
-4.76731e-05
-4.76454e-05
0
0
-4.9726e-05
-4.97041e-05
-4.96812e-05
-4.96572e-05
-4.96323e-05
-4.96064e-05
-4.95796e-05
-4.95517e-05
-4.95229e-05
0
0
-5.16083e-05
-5.15855e-05
-5.15617e-05
-5.15369e-05
-5.1511e-05
-5.14841e-05
-5.14562e-05
-5.14273e-05
-5.13974e-05
0
0
-5.34876e-05
-5.34639e-05
-5.34393e-05
-5.34135e-05
-5.33867e-05
-5.33589e-05
-5.333e-05
-5.33e-05
-5.3269e-05
0
0
-5.53638e-05
-5.53394e-05
-5.53138e-05
-5.52872e-05
-5.52594e-05
-5.52306e-05
-5.52007e-05
-5.51697e-05
-5.51376e-05
0
0
0
0
0
0
0
0
0
0
0
0
-0
-0
-0
-0
-0
-0
-0
-0
-0
-0
-0
-0
-0
-0
-0
-0
-0
-0
-0
-0
-0
-0
0
-4.13821e-05
-4.13638e-05
-4.13447e-05
-4.13248e-05
-4.1304e-05
-4.12825e-05
-4.12601e-05
-4.12369e-05
-4.12129e-05
0
0
-4.32405e-05
-4.32214e-05
-4.32015e-05
-4.31806e-05
-4.3159e-05
-4.31364e-05
-4.31131e-05
-4.30888e-05
-4.30638e-05
0
0
-4.50962e-05
-4.50763e-05
-4.50555e-05
-4.50338e-05
-4.50112e-05
-4.49877e-05
-4.49633e-05
-4.4938e-05
-4.49119e-05
0
0
-4.69491e-05
-4.69283e-05
-4.69067e-05
-4.68841e-05
-4.68605e-05
-4.68361e-05
-4.68107e-05
-4.67844e-05
-4.67571e-05
0
0
-4.87991e-05
-4.87775e-05
-4.8755e-05
-4.87315e-05
-4.87071e-05
-4.86816e-05
-4.86553e-05
-4.86279e-05
-4.85996e-05
0
0
-5.06462e-05
-5.06239e-05
-5.06005e-05
-5.05761e-05
-5.05507e-05
-5.05243e-05
-5.04969e-05
-5.04686e-05
-5.04392e-05
0
0
-5.24905e-05
-5.24673e-05
-5.2443e-05
-5.24178e-05
-5.23915e-05
-5.23641e-05
-5.23357e-05
-5.23063e-05
-5.22759e-05
0
0
-5.43317e-05
-5.43077e-05
-5.42826e-05
-5.42565e-05
-5.42292e-05
-5.42009e-05
-5.41716e-05
-5.41411e-05
-5.41096e-05
0
0
0
0
0
0
0
0
0
0
0
0
-0
-0
-0
-0
-0
-0
-0
-0
-0
-0
-0
-0
-0
-0
-0
-0
-0
-0
-0
-0
-0
-0
0
-4.05562e-05
-4.05383e-05
-4.05195e-05
-4.05e-05
-4.04797e-05
-4.04585e-05
-4.04366e-05
-4.04138e-05
-4.03903e-05
0
0
-4.23775e-05
-4.23588e-05
-4.23392e-05
-4.23188e-05
-4.22976e-05
-4.22755e-05
-4.22526e-05
-4.22288e-05
-4.22042e-05
0
0
-4.41962e-05
-4.41766e-05
-4.41562e-05
-4.41349e-05
-4.41128e-05
-4.40897e-05
-4.40658e-05
-4.4041e-05
-4.40154e-05
0
0
-4.60121e-05
-4.59917e-05
-4.59705e-05
-4.59483e-05
-4.59252e-05
-4.59012e-05
-4.58764e-05
-4.58505e-05
-4.58238e-05
0
0
-4.78251e-05
-4.7804e-05
-4.77819e-05
-4.77589e-05
-4.77349e-05
-4.771e-05
-4.76841e-05
-4.76573e-05
-4.76295e-05
0
0
-4.96354e-05
-4.96135e-05
-4.95905e-05
-4.95666e-05
-4.95417e-05
-4.95158e-05
-4.9489e-05
-4.94612e-05
-4.94324e-05
0
0
-5.14428e-05
-5.142e-05
-5.13963e-05
-5.13715e-05
-5.13457e-05
-5.13189e-05
-5.12911e-05
-5.12622e-05
-5.12323e-05
0
0
-5.32473e-05
-5.32237e-05
-5.31991e-05
-5.31735e-05
-5.31468e-05
-5.3119e-05
-5.30902e-05
-5.30604e-05
-5.30295e-05
0
0