# vtk DataFile Version 2.0
FlowField
ASCII
DATASET STRUCTURED_GRID
DIMENSIONS 62 47 32 
POINTS 93248 double
0 0 0
0.01 0 0
0.02 0 0
0.03 0 0
0.04 0 0
0.05 0 0
0.06 0 0
0.07 0 0
0.08 0 0
0.09 0 0
0.1 0 0
0.11 0 0
0.12 0 0
0.13 0 0
0.14 0 0
0.15 0 0
0.16 0 0
0.17 0 0
0.18 0 0
0.19 0 0
0.2 0 0
0.21 0 0
0.22 0 0
0.23 0 0
0.24 0 0
0.25 0 0
0.26 0 0
0.27 0 0
0.28 0 0
0.29 0 0
0.3 0 0
0.31 0 0
0.32 0 0
0.33 0 0
0.34 0 0
0.35 0 0
0.36 0 0
0.37 0 0
0.38 0 0
0.39 0 0
0.4 0 0
0.41 0 0
0.42 0 0
0.43 0 0
0.44 0 0
0.45 0 0
0.46 0 0
0.47 0 0
0.48 0 0
0.49 0 0
0.5 0 0
0.51 0 0
0.52 0 0
0.53 0 0
0.54 0 0
0.55 0 0
0.56 0 0
0.57 0 0
0.58 0 0
0.59 0 0
0.6 0 0
0.61 0 0
0 0.01 0
0.01 0.01 0
0.02 0.01 0
0.03 0.01 0
0.04 0.01 0
0.05 0.01 0
0.06 0.01 0
0.07 0.01 0
0.08 0.01 0
0.09 0.01 0
0.1 0.01 0
0.11 0.01 0
0.12 0.01 0
0.13 0.01 0
0.14 0.01 0
0.15 0.01 0
0.16 0.01 0
0.17 0.01 0
0.18 0.01 0
0.19 0.01 0
0.2 0.01 0
0.21 0.01 0
0.22 0.01 0
0.23 0.01 0
0.24 0.01 0
0.25 0.01 0
0.26 0.01 0
0.27 0.01 0
0.28 0.01 0
0.29 0.01 0
0.3 0.01 0
0.31 0.01 0
0.32 0.01 0
0.33 0.01 0
0.34 0.01 0
0.35 0.01 0
0.36 0.01 0
0.37 0.01 0
0.38 0.01 0
0.39 0.01 0
0.4 0.01 0
0.41 0.01 0
0.42 0.01 0
0.43 0.01 0
0.44 0.01 0
0.45 0.01 0
0.46 0.01 0
0.47 0.01 0
0.48 0.01 0
0.49 0.01 0
0.5 0.01 0
0.51 0.01 0
0.52 0.01 0
0.53 0.01 0
0.54 0.01 0
0.55 0.01 0
0.56 0.01 0
0.57 0.01 0
0.58 0.01 0
0.59 0.01 0
0.6 0.01 0
0.61 0.01 0
0 0.02 0
0.01 0.02 0
0.02 0.02 0
0.03 0.02 0
0.04 0.02 0
0.05 0.02 0
0.06 0.02 0
0.07 0.02 0
0.08 0.02 0
0.09 0.02 0
0.1 0.02 0
0.11 0.02 0
0.12 0.02 0
0.13 0.02 0
0.14 0.02 0
0.15 0.02 0
0.16 0.02 0
0.17 0.02 0
0.18 0.02 0
0.19 0.02 0
0.2 0.02 0
0.21 0.02 0
0.22 0.02 0
0.23 0.02 0
0.24 0.02 0
0.25 0.02 0
0.26 0.02 0
0.27 0.02 0
0.28 0.02 0
0.29 0.02 0
0.3 0.02 0
0.31 0.02 0
0.32 0.02 0
0.33 0.02 0
0.34 0.02 0
0.35 0.02 0
0.36 0.02 0
0.37 0.02 0
0.38 0.02 0
0.39 0.02 0
0.4 0.02 0
0.41 0.02 0
0.42 0.02 0
0.43 0.02 0
0.44 0.02 0
0.45 0.02 0
0.46 0.02 0
0.47 0.02 0
0.48 0.02 0
0.49 0.02 0
0.5 0.02 0
0.51 0.02 0
0.52 0.02 0
0.53 0.02 0
0.54 0.02 0
0.55 0.02 0
0.56 0.02 0
0.57 0.02 0
0.58 0.02 0
0.59 0.02 0
0.6 0.02 0
0.61 0.02 0
0 0.03 0
0.01 0.03 0
0.02 0.03 0
0.03 0.03 0
0.04 0.03 0
0.05 0.03 0
0.06 0.03 0
0.07 0.03 0
0.08 0.03 0
0.09 0.03 0
0.1 0.03 0
0.11 0.03 0
0.12 0.03 0
0.13 0.03 0
0.14 0.03 0
0.15 0.03 0
0.16 0.03 0
0.17 0.03 0
0.18 0.03 0
0.19 0.03 0
0.2 0.03 0
0.21 0.03 0
0.22 0.03 0
0.23 0.03 0
0.24 0.03 0
0.25 0.03 0
0.26 0.03 0
0.27 0.03 0
0.28 0.03 0
0.29 0.03 0
0.3 0.03 0
0.31 0.03 0
0.32 0.03 0
0.33 0.03 0
0.34 0.03 0
0.35 0.03 0
0.36 0.03 0
0.37 0.03 0
0.38 0.03 0
0.39 0.03 0
0.4 0.03 0
0.41 0.03 0
0.42 0.03 0
0.43 0.03 0
0.44 0.03 0
0.45 0.03 0
0.46 0.03 0
0.47 0.03 0
0.48 0.03 0
0.49 0.03 0
0.5 0.03 0
0.51 0.03 0
0.52 0.03 0
0.53 0.03 0
0.54 0.03 0
0.55 0.03 0
0.56 0.03 0
0.57 0.03 0
0.58 0.03 0
0.59 0.03 0
0.6 0.03 0
0.61 0.03 0
0 0.04 0
0.01 0.04 0
0.02 0.04 0
0.03 0.04 0
0.04 0.04 0
0.05 0.04 0
0.06 0.04 0
0.07 0.04 0
0.08 0.04 0
0.09 0.04 0
0.1 0.04 0
0.11 0.04 0
0.12 0.04 0
0.13 0.04 0
0.14 0.04 0
0.15 0.04 0
0.16 0.04 0
0.17 0.04 0
0.18 0.04 0
0.19 0.04 0
0.2 0.04 0
0.21 0.04 0
0.22 0.04 0
0.23 0.04 0
0.24 0.04 0
0.25 0.04 0
0.26 0.04 0
0.27 0.04 0
0.28 0.04 0
0.29 0.04 0
0.3 0.04 0
0.31 0.04 0
0.32 0.04 0
0.33 0.04 0
0.34 0.04 0
0.35 0.04 0
0.36 0.04 0
0.37 0.04 0
0.38 0.04 0
0.39 0.04 0
0.4 0.04 0
0.41 0.04 0
0.42 0.04 0
0.43 0.04 0
0.44 0.04 0
0.45 0.04 0
0.46 0.04 0
0.47 0.04 0
0.48 0.04 0
0.49 0.04 0
0.5 0.04 0
0.51 0.04 0
0.52 0.04 0
0.53 0.04 0
0.54 0.04 0
0.55 0.04 0
0.56 0.04 0
0.57 0.04 0
0.58 0.04 0
0.59 0.04 0
0.6 0.04 0
0.61 0.04 0
0 0.05 0
0.01 0.05 0
0.02 0.05 0
0.03 0.05 0
0.04 0.05 0
0.05 0.05 0
0.06 0.05 0
0.07 0.05 0
0.08 0.05 0
0.09 0.05 0
0.1 0.05 0
0.11 0.05 0
0.12 0.05 0
0.13 0.05 0
0.14 0.05 0
0.15 0.05 0
0.16 0.05 0
0.17 0.05 0
0.18 0.05 0
0.19 0.05 0
0.2 0.05 0
0.21 0.05 0
0.22 0.05 0
0.23 0.05 0
0.24 0.05 0
0.25 0.05 0
0.26 0.05 0
0.27 0.05 0
0.28 0.05 0
0.29 0.05 0
0.3 0.05 0
0.31 0.05 0
0.32 0.05 0
0.33 0.05 0
0.34 0.05 0
0.35 0.05 0
0.36 0.05 0
0.37 0.05 0
0.38 0.05 0
0.39 0.05 0
0.4 0.05 0
0.41 0.05 0
0.42 0.05 0
0.43 0.05 0
0.44 0.05 0
0.45 0.05 0
0.46 0.05 0
0.47 0.05 0
0.48 0.05 0
0.49 0.05 0
0.5 0.05 0
0.51 0.05 0
0.52 0.05 0
0.53 0.05 0
0.54 0.05 0
0.55 0.05 0
0.56 0.05 0
0.57 0.05 0
0.58 0.05 0
0.59 0.05 0
0.6 0.05 0
0.61 0.05 0
0 0.06 0
0.01 0.06 0
0.02 0.06 0
0.03 0.06 0
0.04 0.06 0
0.05 0.06 0
0.06 0.06 0
0.07 0.06 0
0.08 0.06 0
0.09 0.06 0
0.1 0.06 0
0.11 0.06 0
0.12 0.06 0
0.13 0.06 0
0.14 0.06 0
0.15 0.06 0
0.16 0.06 0
0.17 0.06 0
0.18 0.06 0
0.19 0.06 0
0.2 0.06 0
0.21 0.06 0
0.22 0.06 0
0.23 0.06 0
0.24 0.06 0
0.25 0.06 0
0.26 0.06 0
0.27 0.06 0
0.28 0.06 0
0.29 0.06 0
0.3 0.06 0
0.31 0.06 0
0.32 0.06 0
0.33 0.06 0
0.34 0.06 0
0.35 0.06 0
0.36 0.06 0
0.37 0.06 0
0.38 0.06 0
0.39 0.06 0
0.4 0.06 0
0.41 0.06 0
0.42 0.06 0
0.43 0.06 0
0.44 0.06 0
0.45 0.06 0
0.46 0.06 0
0.47 0.06 0
0.48 0.06 0
0.49 0.06 0
0.5 0.06 0
0.51 0.06 0
0.52 0.06 0
0.53 0.06 0
0.54 0.06 0
0.55 0.06 0
0.56 0.06 0
0.57 0.06 0
0.58 0.06 0
0.59 0.06 0
0.6 0.06 0
0.61 0.06 0
0 0.07 0
0.01 0.07 0
0.02 0.07 0
0.03 0.07 0
0.04 0.07 0
0.05 0.07 0
0.06 0.07 0
0.07 0.07 0
0.08 0.07 0
0.09 0.07 0
0.1 0.07 0
0.11 0.07 0
0.12 0.07 0
0.13 0.07 0
0.14 0.07 0
0.15 0.07 0
0.16 0.07 0
0.17 0.07 0
0.18 0.07 0
0.19 0.07 0
0.2 0.07 0
0.21 0.07 0
0.22 0.07 0
0.23 0.07 0
0.24 0.07 0
0.25 0.07 0
0.26 0.07 0
0.27 0.07 0
0.28 0.07 0
0.29 0.07 0
0.3 0.07 0
0.31 0.07 0
0.32 0.07 0
0.33 0.07 0
0.34 0.07 0
0.35 0.07 0
0.36 0.07 0
0.37 0.07 0
0.38 0.07 0
0.39 0.07 0
0.4 0.07 0
0.41 0.07 0
0.42 0.07 0
0.43 0.07 0
0.44 0.07 0
0.45 0.07 0
0.46 0.07 0
0.47 0.07 0
0.48 0.07 0
0.49 0.07 0
0.5 0.07 0
0.51 0.07 0
0.52 0.07 0
0.53 0.07 0
0.54 0.07 0
0.55 0.07 0
0.56 0.07 0
0.57 0.07 0
0.58 0.07 0
0.59 0.07 0
0.6 0.07 0
0.61 0.07 0
0 0.08 0
0.01 0.08 0
0.02 0.08 0
0.03 0.08 0
0.04 0.08 0
0.05 0.08 0
0.06 0.08 0
0.07 0.08 0
0.08 0.08 0
0.09 0.08 0
0.1 0.08 0
0.11 0.08 0
0.12 0.08 0
0.13 0.08 0
0.14 0.08 0
0.15 0.08 0
0.16 0.08 0
0.17 0.08 0
0.18 0.08 0
0.19 0.08 0
0.2 0.08 0
0.21 0.08 0
0.22 0.08 0
0.23 0.08 0
0.24 0.08 0
0.25 0.08 0
0.26 0.08 0
0.27 0.08 0
0.28 0.08 0
0.29 0.08 0
0.3 0.08 0
0.31 0.08 0
0.32 0.08 0
0.33 0.08 0
0.34 0.08 0
0.35 0.08 0
0.36 0.08 0
0.37 0.08 0
0.38 0.08 0
0.39 0.08 0
0.4 0.08 0
0.41 0.08 0
0.42 0.08 0
0.43 0.08 0
0.44 0.08 0
0.45 0.08 0
0.46 0.08 0
0.47 0.08 0
0.48 0.08 0
0.49 0.08 0
0.5 0.08 0
0.51 0.08 0
0.52 0.08 0
0.53 0.08 0
0.54 0.08 0
0.55 0.08 0
0.56 0.08 0
0.57 0.08 0
0.58 0.08 0
0.59 0.08 0
0.6 0.08 0
0.61 0.08 0
0 0.09 0
0.01 0.09 0
0.02 0.09 0
0.03 0.09 0
0.04 0.09 0
0.05 0.09 0
0.06 0.09 0
0.07 0.09 0
0.08 0.09 0
0.09 0.09 0
0.1 0.09 0
0.11 0.09 0
0.12 0.09 0
0.13 0.09 0
0.14 0.09 0
0.15 0.09 0
0.16 0.09 0
0.17 0.09 0
0.18 0.09 0
0.19 0.09 0
0.2 0.09 0
0.21 0.09 0
0.22 0.09 0
0.23 0.09 0
0.24 0.09 0
0.25 0.09 0
0.26 0.09 0
0.27 0.09 0
0.28 0.09 0
0.29 0.09 0
0.3 0.09 0
0.31 0.09 0
0.32 0.09 0
0.33 0.09 0
0.34 0.09 0
0.35 0.09 0
0.36 0.09 0
0.37 0.09 0
0.38 0.09 0
0.39 0.09 0
0.4 0.09 0
0.41 0.09 0
0.42 0.09 0
0.43 0.09 0
0.44 0.09 0
0.45 0.09 0
0.46 0.09 0
0.47 0.09 0
0.48 0.09 0
0.49 0.09 0
0.5 0.09 0
0.51 0.09 0
0.52 0.09 0
0.53 0.09 0
0.54 0.09 0
0.55 0.09 0
0.56 0.09 0
0.57 0.09 0
0.58 0.09 0
0.59 0.09 0
0.6 0.09 0
0.61 0.09 0
0 0.1 0
0.01 0.1 0
0.02 0.1 0
0.03 0.1 0
0.04 0.1 0
0.05 0.1 0
0.06 0.1 0
0.07 0.1 0
0.08 0.1 0
0.09 0.1 0
0.1 0.1 0
0.11 0.1 0
0.12 0.1 0
0.13 0.1 0
0.14 0.1 0
0.15 0.1 0
0.16 0.1 0
0.17 0.1 0
0.18 0.1 0
0.19 0.1 0
0.2 0.1 0
0.21 0.1 0
0.22 0.1 0
0.23 0.1 0
0.24 0.1 0
0.25 0.1 0
0.26 0.1 0
0.27 0.1 0
0.28 0.1 0
0.29 0.1 0
0.3 0.1 0
0.31 0.1 0
0.32 0.1 0
0.33 0.1 0
0.34 0.1 0
0.35 0.1 0
0.36 0.1 0
0.37 0.1 0
0.38 0.1 0
0.39 0.1 0
0.4 0.1 0
0.41 0.1 0
0.42 0.1 0
0.43 0.1 0
0.44 0.1 0
0.45 0.1 0
0.46 0.1 0
0.47 0.1 0
0.48 0.1 0
0.49 0.1 0
0.5 0.1 0
0.51 0.1 0
0.52 0.1 0
0.53 0.1 0
0.54 0.1 0
0.55 0.1 0
0.56 0.1 0
0.57 0.1 0
0.58 0.1 0
0.59 0.1 0
0.6 0.1 0
0.61 0.1 0
0 0.11 0
0.01 0.11 0
0.02 0.11 0
0.03 0.11 0
0.04 0.11 0
0.05 0.11 0
0.06 0.11 0
0.07 0.11 0
0.08 0.11 0
0.09 0.11 0
0.1 0.11 0
0.11 0.11 0
0.12 0.11 0
0.13 0.11 0
0.14 0.11 0
0.15 0.11 0
0.16 0.11 0
0.17 0.11 0
0.18 0.11 0
0.19 0.11 0
0.2 0.11 0
0.21 0.11 0
0.22 0.11 0
0.23 0.11 0
0.24 0.11 0
0.25 0.11 0
0.26 0.11 0
0.27 0.11 0
0.28 0.11 0
0.29 0.11 0
0.3 0.11 0
0.31 0.11 0
0.32 0.11 0
0.33 0.11 0
0.34 0.11 0
0.35 0.11 0
0.36 0.11 0
0.37 0.11 0
0.38 0.11 0
0.39 0.11 0
0.4 0.11 0
0.41 0.11 0
0.42 0.11 0
0.43 0.11 0
0.44 0.11 0
0.45 0.11 0
0.46 0.11 0
0.47 0.11 0
0.48 0.11 0
0.49 0.11 0
0.5 0.11 0
0.51 0.11 0
0.52 0.11 0
0.53 0.11 0
0.54 0.11 0
0.55 0.11 0
0.56 0.11 0
0.57 0.11 0
0.58 0.11 0
0.59 0.11 0
0.6 0.11 0
0.61 0.11 0
0 0.12 0
0.01 0.12 0
0.02 0.12 0
0.03 0.12 0
0.04 0.12 0
0.05 0.12 0
0.06 0.12 0
0.07 0.12 0
0.08 0.12 0
0.09 0.12 0
0.1 0.12 0
0.11 0.12 0
0.12 0.12 0
0.13 0.12 0
0.14 0.12 0
0.15 0.12 0
0.16 0.12 0
0.17 0.12 0
0.18 0.12 0
0.19 0.12 0
0.2 0.12 0
0.21 0.12 0
0.22 0.12 0
0.23 0.12 0
0.24 0.12 0
0.25 0.12 0
0.26 0.12 0
0.27 0.12 0
0.28 0.12 0
0.29 0.12 0
0.3 0.12 0
0.31 0.12 0
0.32 0.12 0
0.33 0.12 0
0.34 0.12 0
0.35 0.12 0
0.36 0.12 0
0.37 0.12 0
0.38 0.12 0
0.39 0.12 0
0.4 0.12 0
0.41 0.12 0
0.42 0.12 0
0.43 0.12 0
0.44 0.12 0
0.45 0.12 0
0.46 0.12 0
0.47 0.12 0
0.48 0.12 0
0.49 0.12 0
0.5 0.12 0
0.51 0.12 0
0.52 0.12 0
0.53 0.12 0
0.54 0.12 0
0.55 0.12 0
0.56 0.12 0
0.57 0.12 0
0.58 0.12 0
0.59 0.12 0
0.6 0.12 0
0.61 0.12 0
0 0.13 0
0.01 0.13 0
0.02 0.13 0
0.03 0.13 0
0.04 0.13 0
0.05 0.13 0
0.06 0.13 0
0.07 0.13 0
0.08 0.13 0
0.09 0.13 0
0.1 0.13 0
0.11 0.13 0
0.12 0.13 0
0.13 0.13 0
0.14 0.13 0
0.15 0.13 0
0.16 0.13 0
0.17 0.13 0
0.18 0.13 0
0.19 0.13 0
0.2 0.13 0
0.21 0.13 0
0.22 0.13 0
0.23 0.13 0
0.24 0.13 0
0.25 0.13 0
0.26 0.13 0
0.27 0.13 0
0.28 0.13 0
0.29 0.13 0
0.3 0.13 0
0.31 0.13 0
0.32 0.13 0
0.33 0.13 0
0.34 0.13 0
0.35 0.13 0
0.36 0.13 0
0.37 0.13 0
0.38 0.13 0
0.39 0.13 0
0.4 0.13 0
0.41 0.13 0
0.42 0.13 0
0.43 0.13 0
0.44 0.13 0
0.45 0.13 0
0.46 0.13 0
0.47 0.13 0
0.48 0.13 0
[...]
POINT_DATA 93248

SCALARS v double
LOOKUP_TABLE default
0
0
0
0
0
0
0
0
0
0
0
0
0
0
0
0
0
0
0
0
0
0
0
0
0
0
0
0
0
0
0
0
0
0
0
0
0
0
-0.0766482
0
0
0
0
0
-0.0810604
0
0
0
0
0
0
0
0
0
0
0
0
0
0
0
0
0
0
0.04568
-0.0695041
0.0488648
0.035429
0.0192106
0
-0.00336038
-0.0111863
-0.0165559
-0.0203396
-0.0235865
-0.0277507
-0.0276337
-0.0275046
-0.0273068
-0.0273479
-0.0267342
-0.026176
-0.0248065
-0.0320426
-0.0282197
-0.0246574
-0.0265892
-0.0268806
-0.0269563
-0.0270058
-0.0270319
-0.0270255
-0.0269744
-0.0268767
-0.0269247
-0.0281508
-0.0269859
-0.0262211
-0.0266208
-0.0511878
-0.025833
-0.0256206
-0.022026
-0.0288996
-0.0472242
-0.0293937
-0.0299243
-0.0324588
-0.0441529
-0.0943687
-0.028483
-0.0377431
-0.026613
-0.0264865
-0.0261474
-0.0288788
-0.0324705
-0.0489408
-0.0312749
-0.066703
-0.0276172
-0.0243919
-0.0213703
-0.0170262
0
0
0.0269512
0.0517022
0.0595087
0.0553257
0.0392344
0.0317557
0.0202276
0.00828365
-0.00336033
-0.0132947
-0.0219716
-0.0978615
-0.0339499
-0.0351856
-0.0296817
-0.0363727
-0.0352154
-0.0363484
-0.0389321
-0.113434
-0.0361104
-0.0382052
-0.0361466
-0.0358175
-0.035876
-0.0359866
-0.036061
-0.0360721
-0.0359963
-0.0357885
-0.0356126
-0.0734553
-0.0359858
-0.034719
-0.0359795
-0.0352602
-0.0326539
-0.0300911
-0.0360168
-0.0393392
-0.0410112
-0.0404365
-0.0414182
-0.0422053
-0.0441212
-0.0437569
-0.0392275
-0.0377431
-0.0361343
-0.0363883
-0.037967
-0.0384495
-0.0403755
-0.0429082
-0.0390045
-0.0370855
-0.0766498
-0.0303504
-0.0266131
-0.0227784
0
0
0.0141539
0.0354427
0.045337
0.0527025
0.0545183
0.0427236
0.0317759
0.020241
0.00830321
-0.00405221
-0.0146279
-0.0255053
-0.0314805
-0.0353087
-0.0377062
-0.0395597
0
-0.0396704
-0.0411077
-0.0421773
-0.0407015
-0.0404472
-0.0399494
-0.0398273
-0.0399076
-0.0400355
-0.0401373
-0.0401848
-0.0401743
-0.0401504
-0.0403628
-0.0416067
-0.0414965
-0.0415093
-0.0388177
-0.0380549
-0.0370608
-0.0369497
-0.040132
-0.0427627
-0.0446369
-0.0457611
-0.044968
-0.0457229
-0.0464453
-0.0428673
-0.0416681
-0.0408144
-0.0414228
-0.0412956
-0.0415628
-0.0418101
-0.0422432
-0.0422148
-0.0406968
-0.0390692
-0.0374705
-0.0330252
-0.0296809
-0.0273752
0
0
0.00845295
0.0239321
0.0371838
0.0405867
0.0416186
0.0371171
0.0302445
0.0217032
0.0121364
0.00184618
-0.00838877
-0.0182343
-0.0259645
-0.0316005
-0.0358502
-0.0381507
-0.0384601
-0.0399423
-0.0412888
-0.0412575
-0.0412458
-0.0413129
-0.0413714
-0.0414992
-0.0416727
-0.0418381
-0.0419717
-0.0420592
-0.0421025
-0.0421426
-0.0423043
-0.0428055
-0.0435873
-0.0431857
-0.0416298
-0.0406653
-0.0401827
-0.0403613
-0.0422425
-0.0440053
-0.0454127
-0.0463217
-0.0464144
-0.0466342
-0.0461215
-0.0425661
-0.0430071
-0.0429988
-0.0432108
-0.0431323
-0.0430005
-0.042772
-0.0423835
-0.0416417
-0.0404245
-0.0387941
-0.0366317
-0.0335393
-0.0310001
-0.0311176
0
0
0.00539846
0.015259
0.0232822
0.0272533
0.0284883
0.0268473
0.0227978
0.016983
0.0104206
0.00282758
-0.00551201
-0.0140061
-0.0216225
-0.0278642
-0.0323153
-0.0360711
-0.0377363
-0.0392772
-0.0400165
-0.0406206
-0.0411698
-0.0416409
-0.0420338
-0.0423779
-0.0426776
-0.0429034
-0.0430872
-0.0432193
-0.0432878
-0.0432946
-0.0432733
-0.04348
-0.0456846
-0.0445545
-0.0433633
-0.0426656
-0.0424965
-0.042884
-0.0438341
-0.0448628
-0.0457471
-0.0463755
-0.0467282
-0.0469533
-0.0466374
0
-0.0440906
-0.044337
-0.0442376
-0.0440239
-0.0437013
-0.0431769
-0.0423674
-0.0413378
-0.040089
-0.0385417
-0.0366735
-0.0344909
-0.031922
-0.0339002
-0.0903446
0
0.00353034
0.00956423
0.0143132
0.0169456
0.0177144
0.0171379
0.0143222
0
0.00610018
0.000737124
-0.00576311
-0.0129037
-0.0196679
-0.025647
-0.0307374
-0.035397
-0.0363214
-0.0368776
-0.0387357
-0.0401021
-0.0411997
-0.0420255
-0.0426621
-0.0431788
-0.0436099
-0.0438788
-0.0441317
-0.0443222
-0.0444119
-0.0443654
-0.0441229
-0.0437683
-0.0985394
-0.045662
-0.0446297
-0.044313
-0.0443465
-0.0446866
-0.0452304
-0.0458134
-0.046321
-0.0466823
-0.0469233
-0.0468694
-0.0462257
-0.0442494
-0.0447474
-0.044988
-0.0449424
-0.0447382
-0.0443775
-0.0437239
-0.0426448
-0.0414888
-0.040291
-0.0390292
-0.0381129
-0.0389138
-0.0414485
-0.0344714
0
0
0.00229425
0.00572355
0.00825443
0.00945083
0.0093232
0.00786685
0.00693921
0.00429632
0.00120924
-0.00289043
-0.00816658
-0.0144005
-0.0199028
-0.0250694
-0.0299328
-0.0358326
-0.0352283
-0.0365042
-0.0386137
-0.0404131
-0.0418515
-0.0428338
-0.0435617
-0.0441688
-0.044714
-0.0449747
-0.0453385
-0.045608
-0.0457398
-0.0457198
-0.0456602
-0.0459003
-0.0476189
-0.0469454
-0.0463665
-0.0461164
-0.0461323
-0.0463356
-0.0466371
-0.0469526
-0.0472242
-0.047415
-0.0474031
-0.0472421
-0.0467744
-0.0460477
-0.0459002
-0.0458595
-0.0457499
-0.0455599
-0.0452531
-0.0446156
-0.0432464
-0.0420977
-0.0410467
-0.0399031
-0.0388249
-0.0707769
-0.0270823
-0.0337674
0
0
0.00143904
0.00302592
0.00396618
0.00400229
0.00318657
0.00174131
0.000382434
-0.00150646
-0.00394266
-0.00726633
-0.0117542
-0.0184516
-0.0216225
-0.0254437
-0.0284618
-0.0286835
-0.0349288
-0.0385528
-0.0404873
-0.0418453
-0.0433069
-0.0440811
-0.0447315
-0.0453289
-0.0449747
-0.0464452
-0.0468614
-0.0471712
-0.0473323
-0.0472775
-0.0472131
-0.0474216
-0.0479804
-0.0480169
-0.0478961
-0.0478259
-0.0478568
-0.0479677
-0.0481178
-0.0482635
-0.0483686
-0.0484005
-0.0483101
-0.0481063
-0.0477759
-0.0473961
-0.0471284
-0.0469181
-0.0467055
-0.0464862
-0.0462699
-0.0459126
-0.0440482
-0.0431534
-0.0424201
-0.0416168
-0.0408331
-0.0400073
-0.0360263
-0.0345691
0
0
0.000829093
0.00106022
0.000804487
-0.000101646
-0.00152672
-0.00322993
-0.00492189
-0.00674688
-0.00893249
-0.0117178
-0.0149551
-0.0166711
-0.0227639
-0.02686
-0.0296817
-0.0316513
-0.0356358
-0.0388927
-0.0411317
-0.0426722
-0.0553353
-0.0452628
-0.0459351
-0.0466391
-0.0474109
-0.0479223
-0.0484801
-0.0489493
-0.0492175
-0.0490486
-0.0486064
-0.0487084
-0.0490776
-0.0493175
-0.0494271
-0.0494833
-0.0495533
-0.0496223
-0.0496852
-0.0497235
-0.0497176
-0.0496476
-0.0494946
-0.0492684
-0.0489852
-0.0486795
-0.0483762
-0.048065
-0.0477255
-0.0473634
-0.0470289
-0.0467094
-0.0449433
-0.0447685
-0.0442832
-0.0435852
-0.0427761
-0.0416078
-0.0392845
-0.0359822
0
0
0.000381677
-0.000421831
-0.00160945
-0.00334445
-0.00533851
-0.0074399
-0.00946944
-0.011483
-0.0137066
-0.0163523
-0.0193688
-0.0224506
-0.0263316
-0.0296813
-0.0320318
-0.0344667
-0.0373661
-0.0400283
-0.0422093
-0.0439805
-0.0455125
-0.0464875
-0.0472941
-0.0480036
-0.0484907
-0.0494761
-0.0503025
-0.0510267
-0.051585
-0.0517515
-0.0491339
-0.0498279
-0.0504939
-0.0508744
-0.0510723
-0.0511878
-0.0512547
-0.0513289
-0.0513456
-0.0513157
-0.0512348
-0.0510957
-0.0508773
-0.0506152
-0.0503264
-0.0500181
-0.0496808
-0.0492885
-0.0488049
-0.0481918
-0.0473128
-0.0462787
-0.0481045
-0.0474131
-0.0465096
-0.0456292
-0.04469
-0.0433869
-0.0412195
-0.0375332
0
0
4.19687e-05
-0.00158399
-0.00350958
-0.00796032
-0.00854401
-0.0110957
-0.0135233
-0.0158447
-0.0182689
-0.0209939
-0.0240052
-0.027172
-0.0304048
-0.0333157
-0.034499
-0.0370751
-0.039618
-0.0418942
-0.0438579
-0.0454342
-0.0469094
-0.0479619
-0.0488169
-0.0495927
-0.050368
-0.0513208
-0.0523611
-0.0533808
-0.0542089
-0.0545251
0
-0.0517371
-0.0524158
-0.0526682
-0.0528203
-0.0529355
-0.0530334
-0.0530917
-0.0530988
-0.0530224
-0.0528892
-0.0527176
-0.0524025
-0.052086
-0.0517709
-0.0514454
-0.0510838
-0.0506422
-0.0500889
-0.0495283
-0.0489038
-0.0485086
-0.0491505
-0.0489408
-0.048293
-0.0474826
-0.0465159
-0.0451477
-0.0429175
-0.0390767
0
0
-0.000230613
-0.00255806
-0.00519584
-0.00819509
-0.0113276
-0.0143878
-0.0172426
-0.0199282
-0.0226253
-0.0255302
-0.0285626
-0.0316232
-0.0345936
-0.0375504
0
-0.0399974
-0.0423193
-0.044233
-0.0460503
-0.0474817
-0.048666
-0.049619
-0.0504468
-0.0512471
-0.0521259
-0.0532115
-0.0545769
-0.0560181
-0.0570344
-0.0560068
-0.0535095
-0.0536334
-0.053993
-0.0542776
-0.0544955
-0.0546797
-0.0548398
-0.0549656
-0.0549642
-0.0548274
-0.054639
-0.054584
-0.0540115
-0.053633
-0.0532966
-0.0529661
-0.0526083
-0.0521525
-0.0515316
-0.0511985
-0.0508573
-0.0506083
-0.0505849
-0.0503615
-0.0498777
-0.0491839
-0.0482372
-0.0468571
-0.0445567
-0.0405793
0
0
-0.000455522
-0.00338851
-0.00662935
-0.0100531
-0.0138219
-0.017392
-0.0206984
-0.0237794
-0.02678
-0.0308024
-0.0329701
-0.0358844
-0.0384811
-0.0405868
-0.0413512
-0.0432136
-0.0449878
-0.0466418
-0.0486442
-0.049851
-0.0507147
-0.051458
-0.0521654
-0.0529043
-0.0537758
-0.0549697
-0.0567941
-0.0591216
-0.0622224
-0.0586801
-0.0563664
-0.0557157
-0.0557298
-0.0559293
-0.0561779
-0.0564519
-0.0567037
-0.0569913
-0.0569921
-0.0567198
-0.0562737
-0.0554801
-0.055466
-0.0551933
-0.0548751
-0.0545651
-0.0542524
-0.0538278
-0.0529625
-0.0530433
-0.0528716
-0.0525743
-0.0522545
-0.0519526
-0.0515135
-0.0508805
-0.049861
-0.0485399
-0.046158
-0.0420295
0
0
-0.000648182
-0.00412217
-0.00796032
-0.0121839
-0.0162142
-0.0202086
-0.0239587
-0.0274523
-0.0308024
-0.0341095
-0.0372419
-0.0400572
-0.0423975
-0.0441829
-0.0454108
-0.046688
-0.0479086
-0.0490983
-0.0519869
-0.0524902
-0.0528889
-0.0533754
-0.0539239
-0.0545182
-0.0552199
-0.0562342
-0.0581816
-0.0432878
-0.0766579
-0.0610319
-0.0576978
-0.0571484
-0.0572289
-0.057479
-0.0578155
-0.0582713
-0.0589068
-0.0593342
-0.059335
-0.0588268
-0.0581854
-0.0575749
-0.057187
-0.0568312
-0.0564933
-0.0562048
-0.0559673
-0.055687
-0.0432108
-0.055111
-0.0549438
-0.0545192
-0.0539121
-0.0537033
-0.053287
-0.0527706
-0.0520588
-0.0503453
-0.0477469
-0.0434104
0
0
-0.000818889
-0.00475001
-0.00909594
-0.0137265
-0.0183618
-0.0228481
-0.0270567
-0.0309727
-0.0346703
-0.0381841
-0.0414002
-0.0441663
-0.0463636
-0.0479932
-0.0491873
-0.0501683
-0.0509369
-0.0513066
-0.104803
-0.0549614
-0.0549667
-0.0553353
-0.0557404
-0.056124
-0.0564327
-0.0565253
-0.0557511
-0.0509318
-0.0281048
-0.0494189
-0.0553418
-0.0573348
-0.0582099
-0.0587684
-0.0592928
-0.0599857
-0.0609819
-0.0621012
-0.0623498
-0.061249
-0.060196
-0.0594451
-0.058915
-0.0584882
-0.0581078
-0.0578169
-0.0575596
-0.0572703
-0.0568372
-0.0571902
-0.0569787
-0.0566158
-0.0565347
-0.0557231
-0.0551135
-0.0546973
-0.0537957
-0.0521485
-0.0493271
-0.0446812
0
0
-0.00100509
-0.00526832
-0.0101388
-0.0152731
-0.0204222
-0.0253574
-0.0300212
-0.0343666
-0.0384191
-0.042162
-0.0454533
-0.0482072
-0.0503371
-0.0518714
-0.0529465
-0.0537563
-0.0544468
-0.0552334
-0.0572172
-0.0573796
-0.0574533
-0.0576088
-0.0577867
-0.057906
-0.0578516
-0.0573823
-0.0559756
-0.0529166
-0.0485637
-0.0530934
-0.0563789
-0.0582069
-0.0592605
-0.0599835
-0.0606105
-0.0614939
-0.0630313
-0.0655569
-0.0674704
-0.0641137
-0.0621077
-0.0611011
-0.0605145
-0.0600798
-0.0596642
-0.0594144
-0.0591749
-0.0589771
-0.0590242
-0.0596754
-0.0591092
-0.0585487
-0.0581797
-0.0576432
-0.0565541
-0.0568605
-0.0559219
-0.0542745
-0.0510917
-0.0457529
0
0
-0.00127608
0.00106022
-0.0111592
-0.0168468
-0.0224585
-0.0277106
-0.0328618
-0.0376614
-0.0420891
-0.0460723
-0.0493706
-0.0521454
-0.0542875
-0.0557922
-0.0567433
-0.057387
-0.057942
-0.0585871
-0.0593874
-0.059724
-0.059859
-0.0599318
-0.0599603
-0.0599046
-0.0596749
-0.0591132
-0.0580036
-0.0568876
-0.0567042
-0.0577954
-0.0589962
-0.0599654
-0.0607115
-0.0613205
-0.0617572
-0.0624793
-0.0640616
-0.0684806
-0.0815225
-0.066455
-0.0630384
-0.0621641
-0.0617932
-0.0615176
-0.0596642
-0.0610034
-0.0607938
-0.0606141
-0.0608761
-0.0627101
-0.0611825
-0.0604291
-0.0601957
-0.0603102
-0.0615349
-0.0599883
-0.0586681
-0.057257
-0.0538202
-0.046456
0
0
-0.00127327
-0.00640593
-0.0121837
-0.0184029
-0.0245598
-0.0302344
-0.0357102
-0.0409357
-0.0457528
-0.0500047
-0.0530416
-0.05593
-0.0582172
-0.0597948
-0.0605876
-0.0610127
-0.0613643
-0.0618202
-0.0621789
-0.0623411
-0.0623755
-0.0623429
-0.062259
-0.0621077
-0.0618515
-0.0614505
-0.0609124
-0.0600479
-0.061717
-0.0615237
-0.0616448
-0.0619874
-0.062388
-0.0627625
-0.0627258
-0.0626296
-0.0616289
-0.0566484
-0.0327107
-0.0546907
-0.0603356
-0.0620865
-0.062612
-0.0627201
-0.0626421
-0.0625759
-0.0624312
-0.0622091
-0.0622953
-0.101595
-0.0628366
-0.0622353
-0.0622216
-0.0623435
-0.0624672
-0.0620052
-0.0622935
-0.0616599
-0.0604888
-0.0577679
0
0
-0.00135516
-0.00698371
-0.0131561
-0.0201355
-0.0267991
-0.0320079
-0.0382626
-0.0441397
-0.0494789
-0.0541636
-0.0561423
-0.0595824
-0.0621922
-0.063987
-0.064469
-0.0646056
-0.0647323
-0.0651921
-0.0652753
-0.0651872
-0.0650428
-0.0648728
-0.0646799
-0.0644616
-0.064219
-0.0639669
-0.0636051
-0.062604
-0.107682
-0.0643242
-0.0639173
-0.0640289
-0.0641633
-0.0641085
-0.0641555
-0.0634759
-0.061793
-0.0583095
-0.0533817
-0.0576157
-0.0611144
-0.0627955
-0.0635937
-0.0639807
-0.0641554
-0.0642349
-0.0642606
-0.0643135
-0.064695
-0.0659902
-0.0649945
-0.0645137
-0.0644338
-0.0644822
-0.0645031
-0.0645607
-0.0648239
-0.0645247
-0.063057
-0.0584276
0
0
-0.00146996
-0.00750776
-0.0139488
-0.0332402
-0.0293029
0
-0.0409431
-0.0474772
-0.0532768
-0.0588013
-0.00576311
-0.0634962
-0.066265
-0.0684007
-0.0683261
-0.0681794
-0.0680414
-0.0689597
-0.0685673
-0.0681532
-0.0678077
-0.0674977
-0.0671888
-0.066895
-0.0666483
-0.0665805
-0.0673527
-0.0661562
-0.0671444
-0.0666897
-0.0663921
-0.0663365
-0.0663565
-0.0662272
-0.0658823
-0.0651002
-0.0637978
-0.0621388
-0.0611296
-0.0620185
-0.0633586
-0.0643536
-0.0649964
-0.065478
-0.0657887
-0.0659828
-0.0661404
-0.0663138
-0.0665796
-0.0668978
-0.0667052
-0.066588
-0.0666221
-0.0667025
-0.066703
-0.0668451
-0.0669516
-0.0664825
-0.0646217
-0.0594884
0
0
-0.00160624
-0.00809077
-0.0151298
-0.0229309
-0.0304165
-0.0367303
-0.0438569
-0.0505435
-0.05654
-0.0616121
-0.0642584
-0.0674674
-0.069485
-0.0722789
-0.0725565
-0.0720114
-0.0712724
-0.100877
-0.0717576
-0.0710704
-0.0706142
-0.0701878
-0.0697431
-0.0693322
-0.0689307
-0.0683651
-0.0663623
-0.0678233
-0.0685157
-0.0685837
-0.0685498
-0.0686174
-0.0687864
-0.0687404
-0.0681238
-0.0673187
-0.0663649
-0.0655269
-0.0652037
-0.0654207
-0.0659005
-0.0663656
-0.0666326
-0.0672281
-0.067594
-0.0678091
-0.0680273
-0.0682265
-0.0683805
-0.0684132
-0.0683592
-0.0685011
-0.0687144
-0.0689056
-0.0687907
-0.0689151
-0.0688404
-0.0681035
-0.0660597
-0.060755
0
0
-0.00174065
-0.00864674
-0.0161299
-0.024067
-0.0319783
-0.0394919
-0.046839
-0.0537467
-0.059969
-0.0653527
-0.0690141
-0.0716119
-0.0725669
-0.141883
-0.07622
-0.0754381
-0.0750439
-0.075395
-0.0747783
-0.0741312
-0.073548
-0.0729742
-0.0723102
-0.0717876
-0.0713344
-0.0708228
-0.0702103
-0.0703285
-0.070483
-0.070523
-0.0705711
-0.0708166
-0.0714387
-0.0720374
-0.0707094
-0.0698133
-0.0689078
-0.0683309
-0.0681083
-0.0681437
-0.0683361
-0.0686471
-0.0693012
-0.0693071
-0.0695713
-0.0696947
-0.0699446
-0.0701526
-0.0702584
-0.0701183
-0.0699479
-0.0703105
-0.0706882
-0.0710524
-0.0707921
-0.0709512
-0.0706294
-0.0695119
-0.0675045
-0.0621541
0
0
-0.00187121
-0.00918475
-0.0170872
-0.0253965
-0.0337951
-0.0419617
-0.0496723
-0.056978
-0.0635458
-0.0700994
-0.0734965
-0.0761222
-0.077819
-0.0800525
-0.0797548
-0.0790926
-0.0784697
-0.0782103
-0.0776958
-0.0770841
-0.0764629
-0.0757936
-0.0747514
-0.0742084
-0.0738229
-0.073425
-0.0730433
-0.0727619
-0.0726175
-0.0724857
-0.0724263
-0.0726803
-0.073929
-0.0782789
-0.0730793
-0.072481
-0.0711146
-0.0706419
-0.0704922
-0.0704869
-0.0705599
-0.070694
-0.0709758
-0.0711947
-0.0714008
-0.0717569
-0.0719441
-0.0721449
-0.0722627
-0.0718726
-0.071229
-0.0721393
-0.072497
-0.0725805
-0.0733889
-0.0732259
-0.0724257
-0.0705394
-0.0689732
-0.0636652
0
0
-0.00200327
-0.00972728
-0.0180679
-0.0268382
-0.0357507
-0.0444204
-0.0522044
-0.0602169
-0.0669826
-0.0714145
-0.0769148
-0.0802949
-0.0821771
-0.083234
-0.0831859
-0.0825487
-0.0813727
-0.081299
-0.0807213
-0.0800474
-0.0794045
-0.0787355
-0.0768315
-0.0766062
-0.0763779
-0.0760189
-0.0756048
-0.0750457
-0.0747139
-0.0743646
-0.0739549
-0.0734553
-0.0717494
-0.0629484
-0.0700838
-0.0704589
-0.07203
-0.072432
-0.0725433
-0.0726041
-0.0726182
-0.072566
-0.072784
-0.0730955
-0.0733877
-0.0736688
-0.0738939
-0.0741385
-0.074388
-0.0737708
-0.0719116
-0.0743757
-0.0747432
-0.0749077
-0.0753095
-0.0753059
-0.0742813
-0.0707769
-0.0706168
-0.0652692
0
0
-0.00214006
-0.0102844
-0.0190868
-0.0283666
-0.0378562
-0.0472446
-0.0567051
-0.0639134
-0.0707372
-0.0764758
-0.0813003
-0.0845695
-0.0863787
-0.0870678
-0.0869686
-0.0865261
-0.0867051
-0.0849993
-0.0839032
-0.0830337
-0.08235
-0.0819102
-0.0466391
-0.0792423
-0.0790812
-0.0785718
-0.078048
-0.0727619
-0.0768191
-0.0762882
-0.0754047
-0.074932
-0.0735922
-0.0715753
-0.0726361
-0.0732376
-0.0739053
-0.0742932
-0.0745161
-0.0746475
-0.0746131
-0.0742142
-0.0745596
-0.0750067
-0.0753528
-0.0756098
-0.0758096
-0.075983
-0.0761416
-0.0765121
-0.0288788
-0.0882727
-0.0769911
-0.0770457
-0.0772796
-0.077424
-0.0766498
-0.0213703
-0.0728378
-0.0668898
0
0
-0.00228038
-0.0108522
-0.020134
-0.0299473
-0.0400092
-0.0499542
-0.0593668
-0.0670301
-0.0743492
-0.0806827
-0.0856195
-0.0888996
-0.0906077
-0.0911107
-0.0908609
-0.0902396
-0.0893949
-0.0881031
-0.0869075
-0.0858712
-0.0849641
-0.0839933
-0.0823968
-0.0819416
-0.0815493
-0.0808402
-0.0801455
-0.0794305
-0.0789528
-0.0785376
-0.0785449
-0.0772914
-0.0763137
-0.0756247
-0.0756176
-0.0758034
-0.0760727
-0.0763228
-0.0765463
-0.07674
-0.0766993
-0.0754691
-0.0763608
-0.0769884
-0.0773462
-0.0775719
-0.0777405
-0.0778756
-0.0779606
-0.0778549
-0.0767046
-0.0783814
-0.0787717
-0.0789319
-0.0790301
-0.0789024
-0.0779645
-0.0752698
-0.0741204
-0.0683711
0
0
-0.00241797
-0.011415
-0.0211918
-0.0315713
-0.0422329
-0.052794
-0.0628078
-0.0696623
-0.077906
-0.0848513
-0.0900411
-0.0933275
-0.0949157
-0.0952256
-0.0947978
-0.0939835
-0.0926235
-0.0911018
-0.0897522
-0.0885959
-0.08764
-0.0867172
-0.0854986
-0.0847443
-0.0841564
-0.0829872
-0.0821882
-0.0815796
-0.0810791
-0.0806193
-0.080167
-0.0794644
-0.0788185
-0.0783804
-0.0781856
-0.0781606
-0.0782424
-0.0783866
-0.0785839
-0.0788507
-0.0790208
-0.0496476
-0.0784492
-0.0790702
-0.0793358
-0.0795222
-0.0796763
-0.0798003
-0.0798724
-0.0798456
-0.0797421
-0.0802246
-0.0805584
-0.0807428
-0.0807981
-0.0806172
-0.0798603
-0.0785098
-0.0760576
-0.069905
0
0
-0.00253816
-0.0119385
-0.0222344
-0.0332402
-0.0445323
-0.0557894
-0.0669566
-0.0165559
-0.0819753
-0.0894443
-0.094659
-0.0978615
-0.0992537
-0.0993286
-0.098718
-0.0979245
-0.0958757
-0.0939266
-0.0924476
-0.0912207
-0.0903601
-0.089292
-0.0881539
-0.0872081
-0.086618
-0.0848781
-0.0842622
-0.0837493
-0.0832384
-0.0827152
-0.0821703
-0.0815962
-0.0810769
-0.0806844
-0.0804366
-0.0803218
-0.0803141
-0.0803855
-0.0805087
-0.080627
-0.0805371
-0.0797255
-0.0803465
-0.08084
-0.0811668
-0.0814087
-0.0816034
-0.0817572
-0.0818671
-0.0819433
-0.0820455
-0.0822541
-0.082468
-0.0826287
-0.0827049
-0.0826706
-0.0825429
-0.0810127
-0.0780673
-0.0715268
0
0
-0.00260978
-0.0123478
-0.0232477
-0.034985
-0.0468452
-0.0584785
-0.0693047
-0.0776409
-0.0865426
-0.0939107
-0.0991833
-0.102309
-0.103541
-0.103333
-0.102318
-0.102208
-0.0987517
-0.0964808
-0.095085
-0.0937981
-0.0933243
-0.0919375
-0.0905546
-0.0891568
-0.0874284
-0.0876124
-0.086876
-0.0861299
-0.0854504
-0.0848224
-0.0842239
-0.08366
-0.0831594
-0.0827551
-0.0824734
-0.0823175
-0.0822709
-0.0823079
-0.0823958
-0.0824747
-0.0824438
-0.0822726
-0.0824336
-0.0827178
-0.0830199
-0.0833011
-0.0835461
-0.0837422
-0.0838881
-0.0840077
-0.0841341
-0.0842798
-0.08444
-0.0845854
-0.0846646
-0.0846282
-0.0843273
-0.0830833
-0.0799853
-0.0732076
0
0
-0.00258559
-0.0124435
-0.0244864
-0.0367979
-0.0492817
-0.0614213
-0.0726853
-0.08258
-0.0914447
-0.0987112
-0.103904
-0.106891
-0.107931
-0.10769
-0.10768
-0.106793
-0.100877
-0.0994761
-0.0980344
-0.0965222
-0.112934
-0.0945569
-0.0929248
-0.0914872
-0.0899189
-0.0893152
-0.0887142
-0.0880677
-0.087417
-0.086782
-0.0861737
-0.085604
-0.085087
-0.0846439
-0.0843321
-0.0841631
-0.0841143
-0.0841582
-0.0842702
-0.0844019
-0.0844613
-0.0843827
-0.084413
-0.0846123
-0.0849137
-0.0852324
-0.0855277
-0.0857619
-0.0859211
-0.0860459
-0.0861628
-0.0862858
-0.0864325
-0.0865849
-0.0866428
-0.0865491
-0.0862228
-0.0850538
-0.0818795
-0.0749207
0
0
-0.0025283
-0.0113835
-0.0258558
-0.0390893
-0.0521612
-0.0648258
-0.0766629
-0.0872649