# vtk DataFile Version 2.0
FlowField
ASCII
DATASET STRUCTURED_GRID
DIMENSIONS 62 47 32 
POINTS 93248 double
0 0 0
0.01 0 0
0.02 0 0
0.03 0 0
0.04 0 0
0.05 0 0
0.06 0 0
0.07 0 0
0.08 0 0
0.09 0 0
0.1 0 0
0.11 0 0
0.12 0 0
0.13 0 0
0.14 0 0
0.15 0 0
0.16 0 0
0.17 0 0
0.18 0 0
0.19 0 0
0.2 0 0
0.21 0 0
0.22 0 0
0.23 0 0
0.24 0 0
0.25 0 0
0.26 0 0
0.27 0 0
0.28 0 0
0.29 0 0
0.3 0 0
0.31 0 0
0.32 0 0
0.33 0 0
0.34 0 0
0.35 0 0
0.36 0 0
0.37 0 0
0.38 0 0
0.39 0 0
0.4 0 0
0.41 0 0
0.42 0 0
0.43 0 0
0.44 0 0
0.45 0 0
0.46 0 0
0.47 0 0
0.48 0 0
0.49 0 0
0.5 0 0
0.51 0 0
0.52 0 0
0.53 0 0
0.54 0 0
0.55 0 0
0.56 0 0
0.57 0 0
0.58 0 0
0.59 0 0
0.6 0 0
0.61 0 0
0 0.01 0
0.01 0.01 0
0.02 0.01 0
0.03 0.01 0
0.04 0.01 0
0.05 0.01 0
0.06 0.01 0
0.07 0.01 0
0.08 0.01 0
0.09 0.01 0
0.1 0.01 0
0.11 0.01 0
0.12 0.01 0
0.13 0.01 0
0.14 0.01 0
0.15 0.01 0
0.16 0.01 0
0.17 0.01 0
0.18 0.01 0
0.19 0.01 0
0.2 0.01 0
0.21 0.01 0
0.22 0.01 0
0.23 0.01 0
0.24 0.01 0
0.25 0.01 0
0.26 0.01 0
0.27 0.01 0
0.28 0.01 0
0.29 0.01 0
0.3 0.01 0
0.31 0.01 0
0.32 0.01 0
0.33 0.01 0
0.34 0.01 0
0.35 0.01 0
0.36 0.01 0
0.37 0.01 0
0.38 0.01 0
0.39 0.01 0
0.4 0.01 0
0.41 0.01 0
0.42 0.01 0
0.43 0.01 0
0.44 0.01 0
0.45 0.01 0
0.46 0.01 0
0.47 0.01 0
0.48 0.01 0
0.49 0.01 0
0.5 0.01 0
0.51 0.01 0
0.52 0.01 0
0.53 0.01 0
0.54 0.01 0
0.55 0.01 0
0.56 0.01 0
0.57 0.01 0
0.58 0.01 0
0.59 0.01 0
0.6 0.01 0
0.61 0.01 0
0 0.02 0
0.01 0.02 0
0.02 0.02 0
0.03 0.02 0
0.04 0.02 0
0.05 0.02 0
0.06 0.02 0
0.07 0.02 0
0.08 0.02 0
0.09 0.02 0
0.1 0.02 0
0.11 0.02 0
0.12 0.02 0
0.13 0.02 0
0.14 0.02 0
0.15 0.02 0
0.16 0.02 0
0.17 0.02 0
0.18 0.02 0
0.19 0.02 0
0.2 0.02 0
0.21 0.02 0
0.22 0.02 0
0.23 0.02 0
0.24 0.02 0
0.25 0.02 0
0.26 0.02 0
0.27 0.02 0
0.28 0.02 0
0.29 0.02 0
0.3 0.02 0
0.31 0.02 0
0.32 0.02 0
0.33 0.02 0
0.34 0.02 0
0.35 0.02 0
0.36 0.02 0
0.37 0.02 0
0.38 0.02 0
0.39 0.02 0
0.4 0.02 0
0.41 0.02 0
0.42 0.02 0
0.43 0.02 0
0.44 0.02 0
0.45 0.02 0
0.46 0.02 0
0.47 0.02 0
0.48 0.02 0
0.49 0.02 0
0.5 0.02 0
0.51 0.02 0
0.52 0.02 0
0.53 0.02 0
0.54 0.02 0
0.55 0.02 0
0.56 0.02 0
0.57 0.02 0
0.58 0.02 0
0.59 0.02 0
0.6 0.02 0
0.61 0.02 0
0 0.03 0
0.01 0.03 0
0.02 0.03 0
0.03 0.03 0
0.04 0.03 0
0.05 0.03 0
0.06 0.03 0
0.07 0.03 0
0.08 0.03 0
0.09 0.03 0
0.1 0.03 0
0.11 0.03 0
0.12 0.03 0
0.13 0.03 0
0.14 0.03 0
0.15 0.03 0
0.16 0.03 0
0.17 0.03 0
0.18 0.03 0
0.19 0.03 0
0.2 0.03 0
0.21 0.03 0
0.22 0.03 0
0.23 0.03 0
0.24 0.03 0
0.25 0.03 0
0.26 0.03 0
0.27 0.03 0
0.28 0.03 0
0.29 0.03 0
0.3 0.03 0
0.31 0.03 0
0.32 0.03 0
0.33 0.03 0
0.34 0.03 0
0.35 0.03 0
0.36 0.03 0
0.37 0.03 0
0.38 0.03 0
0.39 0.03 0
0.4 0.03 0
0.41 0.03 0
0.42 0.03 0
0.43 0.03 0
0.44 0.03 0
0.45 0.03 0
0.46 0.03 0
0.47 0.03 0
0.48 0.03 0
0.49 0.03 0
0.5 0.03 0
0.51 0.03 0
0.52 0.03 0
0.53 0.03 0
0.54 0.03 0
0.55 0.03 0
0.56 0.03 0
0.57 0.03 0
0.58 0.03 0
0.59 0.03 0
0.6 0.03 0
0.61 0.03 0
0 0.04 0
0.01 0.04 0
0.02 0.04 0
0.03 0.04 0
0.04 0.04 0
0.05 0.04 0
0.06 0.04 0
0.07 0.04 0
0.08 0.04 0
0.09 0.04 0
0.1 0.04 0
0.11 0.04 0
0.12 0.04 0
0.13 0.04 0
0.14 0.04 0
0.15 0.04 0
0.16 0.04 0
0.17 0.04 0
0.18 0.04 0
0.19 0.04 0
0.2 0.04 0
0.21 0.04 0
0.22 0.04 0
0.23 0.04 0
0.24 0.04 0
0.25 0.04 0
0.26 0.04 0
0.27 0.04 0
0.28 0.04 0
0.29 0.04 0
0.3 0.04 0
0.31 0.04 0
0.32 0.04 0
0.33 0.04 0
0.34 0.04 0
0.35 0.04 0
0.36 0.04 0
0.37 0.04 0
0.38 0.04 0
0.39 0.04 0
0.4 0.04 0
0.41 0.04 0
0.42 0.04 0
0.43 0.04 0
0.44 0.04 0
0.45 0.04 0
0.46 0.04 0
0.47 0.04 0
0.48 0.04 0
0.49 0.04 0
0.5 0.04 0
0.51 0.04 0
0.52 0.04 0
0.53 0.04 0
0.54 0.04 0
0.55 0.04 0
0.56 0.04 0
0.57 0.04 0
0.58 0.04 0
0.59 0.04 0
0.6 0.04 0
0.61 0.04 0
0 0.05 0
0.01 0.05 0
0.02 0.05 0
0.03 0.05 0
0.04 0.05 0
0.05 0.05 0
0.06 0.05 0
0.07 0.05 0
0.08 0.05 0
0.09 0.05 0
0.1 0.05 0
0.11 0.05 0
0.12 0.05 0
0.13 0.05 0
0.14 0.05 0
0.15 0.05 0
0.16 0.05 0
0.17 0.05 0
0.18 0.05 0
0.19 0.05 0
0.2 0.05 0
0.21 0.05 0
0.22 0.05 0
0.23 0.05 0
0.24 0.05 0
0.25 0.05 0
0.26 0.05 0
0.27 0.05 0
0.28 0.05 0
0.29 0.05 0
0.3 0.05 0
0.31 0.05 0
0.32 0.05 0
0.33 0.05 0
0.34 0.05 0
0.35 0.05 0
0.36 0.05 0
0.37 0.05 0
0.38 0.05 0
0.39 0.05 0
0.4 0.05 0
0.41 0.05 0
0.42 0.05 0
0.43 0.05 0
0.44 0.05 0
0.45 0.05 0
0.46 0.05 0
0.47 0.05 0
0.48 0.05 0
0.49 0.05 0
0.5 0.05 0
0.51 0.05 0
0.52 0.05 0
0.53 0.05 0
0.54 0.05 0
0.55 0.05 0
0.56 0.05 0
0.57 0.05 0
0.58 0.05 0
0.59 0.05 0
0.6 0.05 0
0.61 0.05 0
0 0.06 0
0.01 0.06 0
0.02 0.06 0
0.03 0.06 0
0.04 0.06 0
0.05 0.06 0
0.06 0.06 0
0.07 0.06 0
0.08 0.06 0
0.09 0.06 0
0.1 0.06 0
0.11 0.06 0
0.12 0.06 0
0.13 0.06 0
0.14 0.06 0
0.15 0.06 0
0.16 0.06 0
0.17 0.06 0
0.18 0.06 0
0.19 0.06 0
0.2 0.06 0
0.21 0.06 0
0.22 0.06 0
0.23 0.06 0
0.24 0.06 0
0.25 0.06 0
0.26 0.06 0
0.27 0.06 0
0.28 0.06 0
0.29 0.06 0
0.3 0.06 0
0.31 0.06 0
0.32 0.06 0
0.33 0.06 0
0.34 0.06 0
0.35 0.06 0
0.36 0.06 0
0.37 0.06 0
0.38 0.06 0
0.39 0.06 0
0.4 0.06 0
0.41 0.06 0
0.42 0.06 0
0.43 0.06 0
0.44 0.06 0
0.45 0.06 0
0.46 0.06 0
0.47 0.06 0
0.48 0.06 0
0.49 0.06 0
0.5 0.06 0
0.51 0.06 0
0.52 0.06 0
0.53 0.06 0
0.54 0.06 0
0.55 0.06 0
0.56 0.06 0
0.57 0.06 0
0.58 0.06 0
0.59 0.06 0
0.6 0.06 0
0.61 0.06 0
0 0.07 0
0.01 0.07 0
0.02 0.07 0
0.03 0.07 0
0.04 0.07 0
0.05 0.07 0
0.06 0.07 0
0.07 0.07 0
0.08 0.07 0
0.09 0.07 0
0.1 0.07 0
0.11 0.07 0
0.12 0.07 0
0.13 0.07 0
0.14 0.07 0
0.15 0.07 0
0.16 0.07 0
0.17 0.07 0
0.18 0.07 0
0.19 0.07 0
0.2 0.07 0
0.21 0.07 0
0.22 0.07 0
0.23 0.07 0
0.24 0.07 0
0.25 0.07 0
0.26 0.07 0
0.27 0.07 0
0.28 0.07 0
0.29 0.07 0
0.3 0.07 0
0.31 0.07 0
0.32 0.07 0
0.33 0.07 0
0.34 0.07 0
0.35 0.07 0
0.36 0.07 0
0.37 0.07 0
0.38 0.07 0
0.39 0.07 0
0.4 0.07 0
0.41 0.07 0
0.42 0.07 0
0.43 0.07 0
0.44 0.07 0
0.45 0.07 0
0.46 0.07 0
0.47 0.07 0
0.48 0.07 0
0.49 0.07 0
0.5 0.07 0
0.51 0.07 0
0.52 0.07 0
0.53 0.07 0
0.54 0.07 0
0.55 0.07 0
0.56 0.07 0
0.57 0.07 0
0.58 0.07 0
0.59 0.07 0
0.6 0.07 0
0.61 0.07 0
0 0.08 0
0.01 0.08 0
0.02 0.08 0
0.03 0.08 0
0.04 0.08 0
0.05 0.08 0
0.06 0.08 0
0.07 0.08 0
0.08 0.08 0
0.09 0.08 0
0.1 0.08 0
0.11 0.08 0
0.12 0.08 0
0.13 0.08 0
0.14 0.08 0
0.15 0.08 0
0.16 0.08 0
0.17 0.08 0
0.18 0.08 0
0.19 0.08 0
0.2 0.08 0
0.21 0.08 0
0.22 0.08 0
0.23 0.08 0
0.24 0.08 0
0.25 0.08 0
0.26 0.08 0
0.27 0.08 0
0.28 0.08 0
0.29 0.08 0
0.3 0.08 0
0.31 0.08 0
0.32 0.08 0
0.33 0.08 0
0.34 0.08 0
0.35 0.08 0
0.36 0.08 0
0.37 0.08 0
0.38 0.08 0
0.39 0.08 0
0.4 0.08 0
0.41 0.08 0
0.42 0.08 0
0.43 0.08 0
0.44 0.08 0
0.45 0.08 0
0.46 0.08 0
0.47 0.08 0
0.48 0.08 0
0.49 0.08 0
0.5 0.08 0
0.51 0.08 0
0.52 0.08 0
0.53 0.08 0
0.54 0.08 0
0.55 0.08 0
0.56 0.08 0
0.57 0.08 0
0.58 0.08 0
0.59 0.08 0
0.6 0.08 0
0.61 0.08 0
0 0.09 0
0.01 0.09 0
0.02 0.09 0
0.03 0.09 0
0.04 0.09 0
0.05 0.09 0
0.06 0.09 0
0.07 0.09 0
0.08 0.09 0
0.09 0.09 0
0.1 0.09 0
0.11 0.09 0
0.12 0.09 0
0.13 0.09 0
0.14 0.09 0
0.15 0.09 0
0.16 0.09 0
0.17 0.09 0
0.18 0.09 0
0.19 0.09 0
0.2 0.09 0
0.21 0.09 0
0.22 0.09 0
0.23 0.09 0
0.24 0.09 0
0.25 0.09 0
0.26 0.09 0
0.27 0.09 0
0.28 0.09 0
0.29 0.09 0
0.3 0.09 0
0.31 0.09 0
0.32 0.09 0
0.33 0.09 0
0.34 0.09 0
0.35 0.09 0
0.36 0.09 0
0.37 0.09 0
0.38 0.09 0
0.39 0.09 0
0.4 0.09 0
0.41 0.09 0
0.42 0.09 0
0.43 0.09 0
0.44 0.09 0
0.45 0.09 0
0.46 0.09 0
0.47 0.09 0
0.48 0.09 0
0.49 0.09 0
0.5 0.09 0
0.51 0.09 0
0.52 0.09 0
0.53 0.09 0
0.54 0.09 0
0.55 0.09 0
0.56 0.09 0
0.57 0.09 0
0.58 0.09 0
0.59 0.09 0
0.6 0.09 0
0.61 0.09 0
0 0.1 0
0.01 0.1 0
0.02 0.1 0
0.03 0.1 0
0.04 0.1 0
0.05 0.1 0
0.06 0.1 0
0.07 0.1 0
0.08 0.1 0
0.09 0.1 0
0.1 0.1 0
0.11 0.1 0
0.12 0.1 0
0.13 0.1 0
0.14 0.1 0
0.15 0.1 0
0.16 0.1 0
0.17 0.1 0
0.18 0.1 0
0.19 0.1 0
0.2 0.1 0
0.21 0.1 0
0.22 0.1 0
0.23 0.1 0
0.24 0.1 0
0.25 0.1 0
0.26 0.1 0
0.27 0.1 0
0.28 0.1 0
0.29 0.1 0
0.3 0.1 0
0.31 0.1 0
0.32 0.1 0
0.33 0.1 0
0.34 0.1 0
0.35 0.1 0
0.36 0.1 0
0.37 0.1 0
0.38 0.1 0
0.39 0.1 0
0.4 0.1 0
0.41 0.1 0
0.42 0.1 0
0.43 0.1 0
0.44 0.1 0
0.45 0.1 0
0.46 0.1 0
0.47 0.1 0
0.48 0.1 0
0.49 0.1 0
0.5 0.1 0
0.51 0.1 0
0.52 0.1 0
0.53 0.1 0
0.54 0.1 0
0.55 0.1 0
0.56 0.1 0
0.57 0.1 0
0.58 0.1 0
0.59 0.1 0
0.6 0.1 0
0.61 0.1 0
0 0.11 0
0.01 0.11 0
0.02 0.11 0
0.03 0.11 0
0.04 0.11 0
0.05 0.11 0
0.06 0.11 0
0.07 0.11 0
0.08 0.11 0
0.09 0.11 0
0.1 0.11 0
0.11 0.11 0
0.12 0.11 0
0.13 0.11 0
0.14 0.11 0
0.15 0.11 0
0.16 0.11 0
0.17 0.11 0
0.18 0.11 0
0.19 0.11 0
0.2 0.11 0
0.21 0.11 0
0.22 0.11 0
0.23 0.11 0
0.24 0.11 0
0.25 0.11 0
0.26 0.11 0
0.27 0.11 0
0.28 0.11 0
0.29 0.11 0
0.3 0.11 0
0.31 0.11 0
0.32 0.11 0
0.33 0.11 0
0.34 0.11 0
0.35 0.11 0
0.36 0.11 0
0.37 0.11 0
0.38 0.11 0
0.39 0.11 0
0.4 0.11 0
0.41 0.11 0
0.42 0.11 0
0.43 0.11 0
0.44 0.11 0
0.45 0.11 0
0.46 0.11 0
0.47 0.11 0
0.48 0.11 0
0.49 0.11 0
0.5 0.11 0
0.51 0.11 0
0.52 0.11 0
0.53 0.11 0
0.54 0.11 0
0.55 0.11 0
0.56 0.11 0
0.57 0.11 0
0.58 0.11 0
0.59 0.11 0
0.6 0.11 0
0.61 0.11 0
0 0.12 0
0.01 0.12 0
0.02 0.12 0
0.03 0.12 0
0.04 0.12 0
0.05 0.12 0
0.06 0.12 0
0.07 0.12 0
0.08 0.12 0
0.09 0.12 0
0.1 0.12 0
0.11 0.12 0
0.12 0.12 0
0.13 0.12 0
0.14 0.12 0
0.15 0.12 0
0.16 0.12 0
0.17 0.12 0
0.18 0.12 0
0.19 0.12 0
0.2 0.12 0
0.21 0.12 0
0.22 0.12 0
0.23 0.12 0
0.24 0.12 0
0.25 0.12 0
0.26 0.12 0
0.27 0.12 0
0.28 0.12 0
0.29 0.12 0
0.3 0.12 0
0.31 0.12 0
0.32 0.12 0
0.33 0.12 0
0.34 0.12 0
0.35 0.12 0
0.36 0.12 0
0.37 0.12 0
0.38 0.12 0
0.39 0.12 0
0.4 0.12 0
0.41 0.12 0
0.42 0.12 0
0.43 0.12 0
0.44 0.12 0
0.45 0.12 0
0.46 0.12 0
0.47 0.12 0
0.48 0.12 0
0.49 0.12 0
0.5 0.12 0
0.51 0.12 0
0.52 0.12 0
0.53 0.12 0
0.54 0.12 0
0.55 0.12 0
0.56 0.12 0
0.57 0.12 0
0.58 0.12 0
0.59 0.12 0
0.6 0.12 0
0.61 0.12 0
0 0.13 0
0.01 0.13 0
0.02 0.13 0
0.03 0.13 0
0.04 0.13 0
0.05 0.13 0
0.06 0.13 0
0.07 0.13 0
0.08 0.13 0
0.09 0.13 0
0.1 0.13 0
0.11 0.13 0
0.12 0.13 0
0.13 0.13 0
0.14 0.13 0
0.15 0.13 0
0.16 0.13 0
0.17 0.13 0
0.18 0.13 0
0.19 0.13 0
0.2 0.13 0
0.21 0.13 0
0.22 0.13 0
0.23 0.13 0
0.24 0.13 0
0.25 0.13 0
0.26 0.13 0
0.27 0.13 0
0.28 0.13 0
0.29 0.13 0
0.3 0.13 0
0.31 0.13 0
0.32 0.13 0
0.33 0.13 0
0.34 0.13 0
0.35 0.13 0
0.36 0.13 0
0.37 0.13 0
0.38 0.13 0
0.39 0.13 0
0.4 0.13 0
0.41 0.13 0
0.42 0.13 0
0.43 0.13 0
0.44 0.13 0
0.45 0.13 0
0.46 0.13 0
0.47 0.13 0
0.48 0.13 0
[...]
POINT_DATA 93248

SCALARS w double
LOOKUP_TABLE default
0
0
0
0
0
0
0
0
0
0
0
0
0
-0.0825313
0
0
0
0
0
0
0
0
0
0
0
0
-0.180858
0
0
0
0
0
-0.178952
0
0
0
0
0
0
0
0
0
0
0
0
0
-0.160251
0
0
0
0
0
0
0
0
0
0
0
0
0
0
0
0
-0.0207444
-0.0418413
-0.0569385
-0.0659132
-0.0707163
-0.0741997
-0.0768657
-0.078838
-0.0801258
-0.0805871
-0.080009
-0.0784622
-0.0786666
-0.0794665
-0.0802286
-0.0808069
-0.0813936
-0.0815568
-0.0803845
-0.074442
-0.0746792
-0.0771839
-0.0763415
-0.075598
-0.0750966
-0.0746835
-0.0742872
-0.0738849
-0.0734517
-0.0729151
-0.0721197
-0.07105
-0.0712429
-0.0713015
-0.0704346
-0.0691917
-0.0703449
-0.0721818
-0.0756124
-0.0682901
-0.0703718
-0.0730084
-0.0748705
-0.0777612
-0.171821
-0.0728796
-0.0718311
-0.0718449
-0.0728855
-0.0740015
-0.0755097
-0.0754423
-0.0778421
-0.172439
-0.0763743
-0.0711437
-0.0705148
-0.0707631
-0.0696251
-0.0652507
0
0
-0.0245755
-0.0594586
-0.0812325
-0.0976052
-0.109861
-0.123365
-0.13456
-0.143415
-0.150225
-0.155067
-0.157505
-0.157113
-0.158686
-0.159837
-0.160586
-0.161088
-0.161969
-0.162634
-0.163176
-0.151802
-0.153466
-0.199723
-0.154729
-0.152256
-0.150996
-0.150076
-0.149267
-0.1485
-0.147747
-0.146966
-0.145996
-0.144368
-0.144925
-0.144866
-0.143627
-0.143879
-0.142997
-0.143259
-0.14687
-0.144638
-0.146381
-0.147811
-0.149466
-0.153011
-0.157788
-0.154053
-0.148871
-0.147355
-0.147374
-0.148786
-0.172853
-0.151162
-0.153182
-0.1571
-0.152757
-0.149784
-0.144638
-0.142245
-0.137584
-0.127965
0
0
-0.0243963
-0.0595256
-0.0836612
-0.102683
-0.0707163
-0.132488
-0.148206
-0.160948
-0.171702
-0.18086
-0.187326
-0.194015
-0.194931
-0.194975
-0.194586
-0.194575
-0.195407
-0.195323
-0.195958
-0.19464
-0.190898
-0.190317
-0.187113
-0.184761
-0.183111
-0.18184
-0.180764
-0.179807
-0.178955
-0.178291
-0.178132
-0.179222
-0.187659
-0.177316
-0.173789
-0.173587
-0.173308
-0.173533
-0.175211
-0.175415
-0.176508
-0.178026
-0.178188
-0.180596
-0.182995
-0.180719
-0.17871
-0.177436
-0.177854
-0.178498
-0.180104
-0.180151
-0.181131
-0.18222
-0.181726
-0.18098
-0.179411
-0.173534
-0.166241
-0.154105
0
0
-0.0238944
-0.0582781
-0.0593455
-0.103798
-0.120756
-0.137706
-0.152389
-0.16527
-0.17667
-0.186682
-0.194846
-0.201511
-0.205008
-0.206236
-0.205593
-0.205154
-0.20347
-0.203775
-0.204386
-0.202745
-0.200813
-0.199002
-0.196929
-0.195027
-0.193403
-0.192021
-0.190819
-0.189758
-0.18884
-0.188116
-0.187692
-0.187558
-0.186835
-0.185749
-0.183947
-0.183224
-0.182913
-0.182845
-0.183584
-0.18415
-0.184879
-0.18571
-0.186035
-0.187021
-0.18799
-0.187785
-0.186607
-0.185895
-0.18606
-0.186413
-0.186981
-0.187442
-0.188007
-0.188557
-0.188964
-0.188832
-0.18731
-0.182674
-0.175117
-0.162173
0
0
-0.0237627
-0.0584058
-0.0842435
-0.106205
-0.124313
-0.140362
-0.154402
-0.16686
-0.178003
-0.18778
-0.195967
-0.202346
-0.206444
-0.208025
-0.183562
-0.206756
-0.206197
-0.205324
-0.204674
-0.203167
-0.201477
-0.199723
-0.197975
-0.196314
-0.194788
-0.193421
-0.192189
-0.191081
-0.190106
-0.189268
-0.188528
-0.187659
-0.186229
-0.185698
-0.185093
-0.184607
-0.184275
-0.184123
-0.184273
-0.18457
-0.184955
-0.185345
-0.185587
-0.185918
-0.186371
-0.187321
-0.1859
-0.185566
-0.185735
-0.186042
-0.186424
-0.186877
-0.187388
-0.187923
-0.188407
-0.188339
-0.186819
-0.182605
-0.175026
-0.162191
0
0
-0.0237122
-0.0584488
-0.0852525
-0.107185
-0.125728
-0.141926
-0.155574
-0.167733
-0.178683
-0.188161
-0.195976
-0.201949
-0.205979
-0.207784
-0.20716
-0.206611
-0.205741
-0.200133
-0.203279
-0.201743
-0.199989
-0.198223
-0.196528
-0.194924
-0.193426
-0.192102
-0.190872
-0.189743
-0.188736
-0.18785
-0.187021
-0.185993
-0.183983
-0.184185
-0.183998
-0.183566
-0.183145
-0.182845
-0.182712
-0.182723
-0.182823
-0.18294
-0.182948
-0.182835
-0.18228
-0.18075
-0.1818
-0.18257
-0.18308
-0.183479
-0.18387
-0.184338
-0.184909
-0.185494
-0.185938
-0.185756
-0.183894
-0.178652
-0.169005
-0.158229
0
0
-0.0236583
-0.058357
-0.0853356
-0.107378
-0.126203
-0.143038
-0.155887
-0.168344
-0.17921
-0.1884
-0.195757
-0.201168
-0.205103
-0.206924
-0.206652
-0.204775
-0.20425
-0.203447
-0.202096
-0.200314
-0.198367
-0.196522
-0.194794
-0.193156
-0.191602
-0.19037
-0.189137
-0.187986
-0.186979
-0.186144
-0.185507
-0.18533
-0.186502
-0.1848
-0.183353
-0.18234
-0.181629
-0.181142
-0.18083
-0.180656
-0.180577
-0.180546
-0.180361
-0.180163
-0.179754
-0.179214
-0.179566
-0.180088
-0.18054
-0.180919
-0.181299
-0.181793
-0.182482
-0.183142
-0.183582
-0.183311
-0.180891
-0.172385
-0.0696251
-0.152917
0
0
-0.0235937
-0.05819
-0.0851315
-0.107159
-0.125966
-0.142442
-0.156264
-0.168606
-0.179345
-0.188268
-0.195056
-0.19916
-0.203722
-0.205677
-0.205097
-0.201183
-0.17926
-0.202257
-0.201091
-0.199104
-0.196942
-0.19506
-0.19331
-0.191603
-0.189877
-0.188885
-0.187587
-0.186405
-0.185425
-0.184681
-0.184118
-0.183791
-0.183735
-0.18282
-0.181741
-0.180805
-0.18006
-0.179507
-0.179118
-0.178855
-0.178679
-0.178548
-0.178382
-0.178221
-0.178042
-0.177927
-0.178052
-0.178311
-0.178596
-0.17887
-0.179174
-0.179646
-0.180572
-0.18135
-0.181881
-0.181908
-0.180674
-0.176444
-0.164481
-0.154637
0
0
-0.023526
-0.0579993
-0.084843
-0.10679
-0.125517
-0.141838
-0.156034
-0.168484
-0.179191
-0.187887
-0.193756
-0.157113
-0.201001
-0.204232
-0.204379
-0.202422
-0.201679
-0.201226
-0.199822
-0.197907
-0.195615
-0.193883
-0.192141
-0.190372
-0.188582
-0.187334
-0.186097
-0.184972
-0.184081
-0.183506
-0.182955
-0.182339
-0.181656
-0.180825
-0.179978
-0.179221
-0.17854
-0.178009
-0.177623
-0.177345
-0.177142
-0.176989
-0.176862
-0.176767
-0.176712
-0.176722
-0.176812
-0.176964
-0.177138
-0.177301
-0.177465
-0.176522
-0.1792
-0.180097
-0.180698
-0.180903
-0.180079
-0.176815
-0.168943
-0.155286
0
0
-0.0234625
-0.0578162
-0.0845535
-0.106404
-0.125056
-0.141326
-0.155631
-0.168177
-0.178945
-0.187709
-0.194038
-0.197262
-0.20162
-0.203938
-0.204384
-0.203338
-0.202031
-0.20054
-0.198782
-0.196939
-0.195435
-0.193323
-0.191281
-0.189306
-0.184503
-0.185971
-0.184737
-0.183625
-0.182813
-0.182526
-0.182002
-0.181065
-0.180037
-0.179127
-0.178368
-0.177764
-0.177126
-0.17664
-0.176305
-0.176059
-0.175871
-0.175732
-0.175645
-0.175605
-0.175611
-0.175667
-0.175765
-0.175897
-0.176034
-0.176141
-0.176242
-0.176522
-0.178409
-0.179205
-0.179811
-0.180098
-0.179433
-0.176516
-0.16952
-0.155451
0
0
-0.0234078
-0.0576572
-0.0843011
-0.106063
-0.124664
-0.140914
-0.155255
-0.167865
-0.178723
-0.187662
-0.194484
-0.199204
-0.202496
-0.204226
-0.204796
-0.203699
-0.201932
-0.199925
-0.19784
-0.195827
-0.194022
-0.192105
-0.190186
-0.188291
-0.186396
-0.18486
-0.183439
-0.182212
-0.181266
-0.180779
-0.181065
-0.179391
-0.178197
-0.177392
-0.176791
-0.176317
-0.175909
-0.175392
-0.175131
-0.174935
-0.174769
-0.174636
-0.174605
-0.174622
-0.174674
-0.174763
-0.17489
-0.175051
-0.175225
-0.175365
-0.175575
-0.176096
-0.177366
-0.178294
-0.179012
-0.179393
-0.17883
-0.176056
-0.169266
-0.155289
0
0
-0.0233637
-0.0575307
-0.0841121
-0.105874
-0.124414
-0.14062
-0.15496
-0.167607
-0.178539
-0.187608
-0.194655
-0.199654
-0.20274
-0.204232
-0.205043
-0.203356
-0.201251
-0.199035
-0.196777
-0.194678
-0.192773
-0.190936
-0.189119
-0.187302
-0.185487
-0.183722
-0.182025
-0.180495
-0.179011
-0.177656
-0.175149
-0.175412
-0.17556
-0.175454
-0.175217
-0.174935
-0.174646
-0.174319
-0.174094
-0.17392
-0.173738
-0.173498
-0.173623
-0.173741
-0.173855
-0.173986
-0.174155
-0.174381
-0.174651
-0.174836
-0.175131
-0.175698
-0.176591
-0.177487
-0.178286
-0.178766
-0.178304
-0.175614
-0.168909
-0.155007
0
0
-0.0233292
-0.0574316
-0.0839633
-0.105704
-0.124181
-0.140361
-0.154706
-0.167382
-0.178365
-0.187509
-0.194622
-0.199623
-0.202532
-0.203412
-0.201882
-0.201157
-0.199776
-0.197837
-0.195538
-0.19352
-0.19172
-0.189986
-0.188233
-0.186416
-0.184503
-0.182454
-0.180257
-0.177953
-0.174795
-0.174048
-0.173486
-0.173617
-0.173829
-0.173914
-0.173856
-0.173702
-0.173518
-0.173263
-0.17308
-0.172925
-0.172654
-0.167239
-0.172582
-0.172917
-0.173119
-0.1733
-0.173511
-0.173807
-0.17422
-0.174365
-0.174688
-0.175266
-0.17605
-0.176884
-0.177704
-0.178262
-0.177913
-0.175255
-0.168588
-0.154705
0
0
-0.0233031
-0.0573576
-0.0838656
-0.107159
-0.124048
-0.140158
-0.154492
-0.167183
-0.178193
-0.187358
-0.194501
-0.199478
-0.202312
-0.203171
-0.202374
-0.201101
-0.199376
-0.197189
-0.194411
-0.192606
-0.191032
-0.1894
-0.187645
-0.185738
-0.183606
-0.181082
-0.177822
-0.172952
-0.161273
-0.165827
-0.169252
-0.171117
-0.172091
-0.172541
-0.17266
-0.172593
-0.173705
-0.172152
-0.171931
-0.171827
-0.171726
-0.171548
-0.171889
-0.172196
-0.172451
-0.172672
-0.172892
-0.173183
-0.173716
-0.173739
-0.174144
-0.174843
-0.17575
-0.176497
-0.177307
-0.177922
-0.178652
-0.175006
-0.168324
-0.154414
0
0
-0.0232826
-0.0572967
-0.0837359
-0.10539
-0.123801
-0.139949
-0.154299
-0.167007
-0.178036
-0.187224
-0.194371
-0.199338
-0.202163
-0.203099
-0.202597
-0.201242
-0.199375
-0.197069
-0.193713
-0.19253
-0.19109
-0.189352
-0.187435
-0.185341
-0.182937
-0.179831
-0.17476
-0.16201
0.0778476
-0.149137
-0.163182
-0.168399
-0.170558
-0.171432
-0.171652
-0.171498
-0.17114
-0.170586
-0.170112
-0.170131
-0.170381
-0.170701
-0.171099
-0.171484
-0.171821
-0.172082
-0.172257
-0.17227
-0.17199
-0.172658
-0.173482
-0.174496
-0.1792
-0.176349
-0.177123
-0.177649
-0.177372
-0.174764
-0.168108
-0.154132
0
0
-0.0232696
-0.0572724
-0.0836449
-0.105189
-0.123602
-0.139766
-0.154137
-0.166861
-0.177903
-0.187108
-0.194277
-0.19925
-0.202072
-0.203028
-0.202584
-0.201252
-0.199501
-0.197886
-0.197675
-0.194835
-0.192134
-0.189735
-0.187476
-0.185187
-0.182657
-0.179512
-0.174951
-0.167175
-0.153789
-0.160451
-0.165887
-0.168947
-0.170453
-0.171016
-0.17097
-0.170448
-0.169466
-0.167923
-0.165801
-0.166581
-0.167926
-0.169095
-0.169996
-0.170681
-0.171206
-0.171556
-0.171782
-0.171818
-0.171835
-0.172107
-0.172976
-0.174053
-0.17525
-0.176193
-0.177376
-0.177558
-0.177162
-0.174598
-0.167942
-0.15384
0
0
-0.0232488
-0.0572647
-0.0835383
-0.104999
-0.123403
-0.139625
-0.154041
-0.166769
-0.17781
-0.187035
-0.194263
-0.199243
-0.202022
-0.202919
-0.202429
-0.201081
-0.199333
-0.197593
-0.196148
-0.194034
-0.191753
-0.189512
-0.187315
-0.185084
-0.182695
-0.179979
-0.176721
-0.172554
-0.168775
-0.16888
-0.169951
-0.17081
-0.171192
-0.171099
-0.170553
-0.169406
-0.167206
-0.162502
-0.151744
-0.158447
-0.16372
-0.166847
-0.168696
-0.169848
-0.170631
-0.171107
-0.171446
-0.171655
-0.171686
-0.171602
-0.172665
-0.173778
-0.17489
-0.176325
-0.188964
-0.177715
-0.177131
-0.174499
-0.167812
-0.153412
0
0
-0.0231577
-0.0568183
-0.0831152
-0.104643
-0.123154
-0.141326
-0.15411
-0.166754
-0.177747
-0.186996
-0.194371
-0.199315
-0.20196
-0.202698
-0.202094
-0.200695
-0.198895
-0.196951
-0.19505
-0.193089
-0.191095
-0.189096
-0.187085
-0.185031
-0.182895
-0.180674
-0.178469
-0.175472
-0.173245
-0.172667
-0.172561
-0.1724
-0.172019
-0.171355
-0.170346
-0.168534
-0.164641
-0.152612
0.0803572
-0.1433
-0.158834
-0.164884
-0.167701
-0.169205
-0.170071
-0.170742
-0.171242
-0.171635
-0.171842
-0.171509
-0.172877
-0.17383
-0.17472
-0.175838
-0.177209
-0.177064
-0.177042
-0.174339
-0.16756
-0.15317
0
0
-0.0231449
-0.0568348
-0.0830534
-0.104457
-0.122993
-0.139626
-0.15403
-0.166625
-0.177574
-0.186883
-0.194607
-0.199337
-0.201711
-0.202193
-0.201456
-0.200071
-0.198289
-0.196241
-0.194317
-0.192478
-0.190658
-0.188826
-0.186969
-0.185072
-0.183125
-0.181152
-0.179204
-0.177237
-0.174999
-0.174739
-0.174296
-0.173592
-0.172715
-0.171661
-0.170436
-0.168499
-0.165114
-0.15848
-0.146099
-0.1544
-0.161567
-0.165518
-0.167767
-0.169104
-0.169962
-0.170621
-0.171202
-0.171864
-0.172921
-0.174802
-0.174218
-0.174176
-0.174605
-0.175337
-0.176177
-0.176665
-0.176509
-0.173938
-0.167185
-0.152787
0
0
-0.0231544
-0.0568807
-0.0830509
-0.10429
-0.122882
-0.139816
-0.153846
-0.166239
-0.177116
-0.186417
-0.19458
-0.198732
-0.200913
-0.201182
-0.200428
-0.199293
-0.197696
-0.195565
-0.193871
-0.192239
-0.190552
-0.188813
-0.187038
-0.185219
-0.183335
-0.181341
-0.179118
-0.17859
-0.179214
-0.177526
-0.175899
-0.174499
-0.173219
-0.171979
-0.170704
-0.169124
-0.167037
-0.164433
-0.16213
-0.163311
-0.165468
-0.167239
-0.16853
-0.16941
-0.170061
-0.170633
-0.171182
-0.171818
-0.172665
-0.173638
-0.173849
-0.174025
-0.174396
-0.175015
-0.175818
-0.176432
-0.176197
-0.173701
-0.167051
-0.153012
0
0
-0.0231674
-0.0569253
-0.0831609
-0.104796
-0.122863
-0.137935
-0.152397
-0.165252
-0.176264
-0.185085
-0.190602
-0.196173
-0.199516
-0.199793
-0.199306
-0.198824
-0.197594
-0.195379
-0.194104
-0.192563
-0.190837
-0.189061
-0.187286
-0.185469
-0.183526
-0.181112
-0.156962
-0.177904
-0.178287
-0.177351
-0.176021
-0.174613
-0.173234
-0.171942
-0.170826
-0.169721
-0.16862
-0.167687
-0.167274
-0.167472
-0.168067
-0.168781
-0.169516
-0.169894
-0.170254
-0.170712
-0.171153
-0.171644
-0.172231
-0.172853
-0.17333
-0.173717
-0.174127
-0.174751
-0.175673
-0.176338
-0.176116
-0.173667
-0.167054
-0.153143
0
0
-0.0231749
-0.0569403
-0.0831593
-0.104619
-0.12278
-0.13843
-0.152589
-0.165171
-0.175989
-0.184756
-0.191452
-0.196683
-0.200118
-0.198952
-0.199881
-0.199714
-0.198783
-0.198168
-0.195828
-0.1935
-0.191375
-0.189435
-0.187639
-0.185816
-0.183893
-0.181762
-0.179203
-0.178652
-0.178028
-0.17703
-0.175748
-0.174271
-0.172639
-0.170917
-0.170192
-0.169645
-0.169286
-0.169068
-0.169049
-0.16917
-0.169427
-0.169875
-0.174622
-0.170426
-0.17042
-0.17084
-0.171143
-0.171486
-0.171944
-0.17252
-0.173072
-0.173522
-0.173866
-0.17445
-0.175633
-0.176332
-0.17617
-0.173786
-0.167104
-0.153187
0
0
-0.0231808
-0.0569483
-0.0831532
-0.104561
-0.122815
-0.138771
-0.152975
-0.165366
-0.175887
-0.184086
-0.191741
-0.19733
-0.201272
-0.20473
-0.203632
-0.201817
-0.199912
-0.198065
-0.195856
-0.193623
-0.191527
-0.189639
-0.187989
-0.186179
-0.184289
-0.182426
-0.180708
-0.179427
-0.178286
-0.17701
-0.175525
-0.173664
-0.170997
-0.166457
-0.167702
-0.168177
-0.168987
-0.16942
-0.169677
-0.169871
-0.170082
-0.170363
-0.170703
-0.170555
-0.170398
-0.171011
-0.17113
-0.171345
-0.171749
-0.172424
-0.173056
-0.173486
-0.173627
-0.174045
-0.17567
-0.176303
-0.176247
-0.174035
-0.167147
-0.153125
0
0
-0.023189
-0.0569638
-0.0831726
-0.104593
-0.122934
-0.139098
-0.153673
-0.165738
-0.175612
-0.158242
-0.190909
-0.197397
-0.201256
-0.203394
-0.203235
-0.201917
-0.200173
-0.197938
-0.19568
-0.1935
-0.191472
-0.189698
-0.18836
-0.186429
-0.184475
-0.182704
-0.181153
-0.179777
-0.178549
-0.177118
-0.175448
-0.172985
-0.167741
-0.0713015
-0.162291
-0.151147
-0.168008
-0.169403
-0.169944
-0.170227
-0.170451
-0.170669
-0.170746
-0.170678
-0.170625
-0.17084
-0.170966
-0.171139
-0.171508
-0.172437
-0.17347
-0.173221
-0.173422
-0.174032
-0.175167
-0.175964
-0.176129
-0.174345
-0.167059
-0.152909
0
0
-0.0232006
-0.0569894
-0.0832119
-0.10466
-0.123094
-0.139588
-0.167382
-0.166744
-0.176581
-0.184188
-0.192058
-0.197733
-0.201178
-0.202694
-0.202637
-0.201667
-0.20272
-0.197998
-0.195581
-0.19338
-0.191335
-0.189542
-0.188468
-0.186163
-0.184207
-0.182599
-0.181202
-0.179978
-0.178657
-0.17732
-0.175901
-0.173516
-0.169874
-0.163881
-0.166194
-0.167451
-0.169017
-0.169878
-0.170295
-0.170528
-0.170751
-0.171009
-0.170947
-0.170792
-0.170701
-0.170726
-0.170789
-0.170877
-0.171049
-0.1721
-0.173453
-0.172601
-0.173073
-0.173812
-0.174677
-0.175333
-0.17538
-0.174089
-0.166465
-0.152507
0
0
-0.0232157
-0.057024
-0.0832599
-0.104716
-0.123142
-0.139499
-0.154482
-0.16691
-0.177435
-0.186084
-0.193118
-0.198175
-0.201212
-0.202446
-0.202284
-0.201246
-0.199843
-0.197663
-0.195427
-0.193251
-0.191109
-0.188825
-0.185669
-0.184556
-0.183459
-0.18232
-0.181114
-0.179766
-0.178691
-0.177743
-0.184118
-0.174882
-0.172621
-0.170726
-0.170332
-0.17034
-0.170541
-0.17069
-0.170759
-0.170819
-0.170995
-0.171391
-0.171078
-0.170783
-0.170644
-0.17062
-0.170651
-0.170683
-0.170651
-0.170424
-0.169227
-0.171656
-0.172688
-0.173506
-0.17422
-0.174466
-0.173254
-0.169026
-0.164669
-0.152059
0
0
-0.0232363
-0.0570732
-0.0833222
-0.104767
-0.123144
-0.139361
-0.153949
-0.16716
-0.17786
-0.18656
-0.193372
-0.198214
-0.2011
-0.202236
-0.201992
-0.200829
-0.199228
-0.197322
-0.195285
-0.193199
-0.191083
-0.189119
-0.186609
-0.185102
-0.183681
-0.182552
-0.181399
-0.180185
-0.17905
-0.178022
-0.177173
-0.175625
-0.174218
-0.173153
-0.172437
-0.171962
-0.171631
-0.171374
-0.171156
-0.170989
-0.170977
-0.171462
-0.170799
-0.170518
-0.170467
-0.170499
-0.170557
-0.170608
-0.170617
-0.170542
-0.170482
-0.171514
-0.172445
-0.173279
-0.174006
-0.174352
-0.173628
-0.170646
-0.164931
-0.151982
0
0
-0.0232691
-0.0571564
-0.0834254
-0.104841
-0.123153
-0.139252
-0.153714
-0.167372
-0.177552
-0.186104
-0.192956
-0.197875
-0.200826
-0.201997
-0.201737
-0.200471
-0.198995
-0.197285
-0.195383
-0.193342
-0.191215
-0.18922
-0.18731
-0.185614
-0.183976
-0.183054
-0.181909
-0.180666
-0.179452
-0.178303
-0.177202
-0.176065
-0.175025
-0.174153
-0.173423
-0.172812
-0.172291
-0.171836
-0.171418
-0.170974
-0.170313
-0.169023
-0.169598
-0.170023
-0.170258
-0.170403
-0.170514
-0.170618
-0.170729
-0.170882
-0.171171
-0.171728
-0.172425
-0.173199
-0.173989
-0.174589
-0.176056
-0.171694
-0.165408
-0.15209
0
0
-0.0233323
-0.0573263
-0.0836335
-0.104977
-0.123197
-0.139103
-0.152914
-0.163785
-0.175158
-0.184785
-0.192237
-0.197475
-0.2006
-0.201868
-0.201663
-0.200107
-0.199056
-0.197599
-0.195787
-0.19371
-0.191457
-0.189568
-0.18781
-0.186064
-0.184156
-0.183785
-0.182485
-0.181114
-0.179813
-0.178605
-0.177482
-0.176449
-0.175522
-0.174707
-0.17398
-0.173321
-0.172717
-0.172157
-0.171625
-0.171088
-0.170499
-0.169906
-0.169927
-0.170107
-0.170276
-0.170412
-0.170532
-0.170662
-0.170829
-0.171061
-0.171394
-0.171847
-0.172439
-0.173171
-0.173992
-0.174658
-0.174498
-0.17199
-0.165663
-0.152221
0
0
-0.0234722
-0.0577337
-0.084083
-0.105231
-0.123382
-0.139222
-0.153066
-0.164955
-0.175784
-0.185042
-0.192344
-0.197532
-0.200658
-0.202017
-0.206756
-0.199511
-0.199601
-0.198322
-0.196481
-0.194293
-0.191908
-0.190164
-0.188457
-0.186771
-0.185211
-0.184074
-0.182738
-0.181362
-0.180054
-0.17885
-0.177753
-0.176768
-0.175893
-0.175115
-0.174394
-0.173705
-0.173042
-0.17241
-0.171807
-0.17124
-0.17075
-0.170433
-0.170331
-0.170349
-0.170412
-0.170493
-0.170583
-0.170705
-0.17088
-0.171117
-0.171435
-0.171855
-0.172407
-0.173114
-0.173948
-0.174639
-0.174411
-0.172016
-0.165794
-0.152337
0
0
-0.0237946
-0.0589272
-0.0848327
-0.105844
-0.123839
-0.139593
-0.153497
-0.165751
-0.176494
-0.185542
-0.192668
-0.19774
-0.200782
-0.201968
-0.201455
-0.198003
-0.200915
-0.199288
-0.197102
-0.194835
-0.193426
-0.191251
-0.189212
-0.187447
-0.186054
-0.184476
-0.182925
-0.181493
-0.180194
-0.179023
-0.177971
-0.177035
-0.176217
-0.175495
-0.174783
-0.174056
-0.173329
-0.172623
-0.171944
-0.171317
-0.17083
-0.170623
-0.170556
-0.170535
-0.17054
-0.170568
-0.170605
-0.170691
-0.170854
-0.171075
-0.171374
-0.171781
-0.172316
-0.173005
-0.173868
-0.174653
-0.174412
-0.171993
-0.165878
-0.152459
0
0
-0.0244258
-0.0812325
-0.0864485
-0.106642
-0.124323
-0.139952
-0.15382
-0.166097
-0.176808
-0.185774
-0.192822
-0.197848
-0.200875
-0.202058
-0.201761
-0.200233
-0.200148
-0.198871
-0.197006
-0.195036
-0.193181
-0.191245
-0.18937
-0.187671
-0.186426
-0.184547
-0.182921
-0.181524
-0.18028
-0.179167
-0.178169
-0.17729
-0.176547
-0.175922
-0.175204
-0.174405
-0.173591
-0.172799
-0.172027
-0.171271
-0.170706
-0.170671
-0.170694
-0.170647
-0.170576
-0.170518
-0.170455
-0.17048
-0.170634
-0.170852
-0.171168
-0.171611
-0.172169
-0.172853
-0.173773
-0.174752
-0.174523
-0.172132
-0.165863
-0.152603
0
0
-0.023954
-0.0593455
-0.0852635
-0.106289
-0.124225
-0.139967
-0.153836
-0.166003
-0.176741
-0.185708
-0.192754
-0.197815
-0.200909
-0.202193
-0.202433
-0.201607
-0.20043
-0.198816
-0.196942
-0.194995
-0.19308
-0.191229
-0.189411
-0.187506
-0.185117
-0.18388
-0.182714
-0.181534
-0.180366
-0.179334
-0.178386
-0.177558
-0.176908
-0.176452
-0.17566
-0.174722
-0.173803
-0.17294
-0.172103
-0.171097
-0.170326
-0.170738
-0.170845
-0.170646
-0.170351
-0.170068
-0.169807
-0.16974
-0.169904
-0.170199