# vtk DataFile Version 2.0
FlowField
ASCII
DATASET STRUCTURED_GRID
DIMENSIONS 62 47 32 
POINTS 93248 double
0 0 0
0.01 0 0
0.02 0 0
0.03 0 0
0.04 0 0
0.05 0 0
0.06 0 0
0.07 0 0
0.08 0 0
0.09 0 0
0.1 0 0
0.11 0 0
0.12 0 0
0.13 0 0
0.14 0 0
0.15 0 0
0.16 0 0
0.17 0 0
0.18 0 0
0.19 0 0
0.2 0 0
0.21 0 0
0.22 0 0
0.23 0 0
0.24 0 0
0.25 0 0
0.26 0 0
0.27 0 0
0.28 0 0
0.29 0 0
0.3 0 0
0.31 0 0
0.32 0 0
0.33 0 0
0.34 0 0
0.35 0 0
0.36 0 0
0.37 0 0
0.38 0 0
0.39 0 0
0.4 0 0
0.41 0 0
0.42 0 0
0.43 0 0
0.44 0 0
0.45 0 0
0.46 0 0
0.47 0 0
0.48 0 0
0.49 0 0
0.5 0 0
0.51 0 0
0.52 0 0
0.53 0 0
0.54 0 0
0.55 0 0
0.56 0 0
0.57 0 0
0.58 0 0
0.59 0 0
0.6 0 0
0.61 0 0
0 0.01 0
0.01 0.01 0
0.02 0.01 0
0.03 0.01 0
0.04 0.01 0
0.05 0.01 0
0.06 0.01 0
0.07 0.01 0
0.08 0.01 0
0.09 0.01 0
0.1 0.01 0
0.11 0.01 0
0.12 0.01 0
0.13 0.01 0
0.14 0.01 0
0.15 0.01 0
0.16 0.01 0
0.17 0.01 0
0.18 0.01 0
0.19 0.01 0
0.2 0.01 0
0.21 0.01 0
0.22 0.01 0
0.23 0.01 0
0.24 0.01 0
0.25 0.01 0
0.26 0.01 0
0.27 0.01 0
0.28 0.01 0
0.29 0.01 0
0.3 0.01 0
0.31 0.01 0
0.32 0.01 0
0.33 0.01 0
0.34 0.01 0
0.35 0.01 0
0.36 0.01 0
0.37 0.01 0
0.38 0.01 0
0.39 0.01 0
0.4 0.01 0
0.41 0.01 0
0.42 0.01 0
0.43 0.01 0
0.44 0.01 0
0.45 0.01 0
0.46 0.01 0
0.47 0.01 0
0.48 0.01 0
0.49 0.01 0
0.5 0.01 0
0.51 0.01 0
0.52 0.01 0
0.53 0.01 0
0.54 0.01 0
0.55 0.01 0
0.56 0.01 0
0.57 0.01 0
0.58 0.01 0
0.59 0.01 0
0.6 0.01 0
0.61 0.01 0
0 0.02 0
0.01 0.02 0
0.02 0.02 0
0.03 0.02 0
0.04 0.02 0
0.05 0.02 0
0.06 0.02 0
0.07 0.02 0
0.08 0.02 0
0.09 0.02 0
0.1 0.02 0
0.11 0.02 0
0.12 0.02 0
0.13 0.02 0
0.14 0.02 0
0.15 0.02 0
0.16 0.02 0
0.17 0.02 0
0.18 0.02 0
0.19 0.02 0
0.2 0.02 0
0.21 0.02 0
0.22 0.02 0
0.23 0.02 0
0.24 0.02 0
0.25 0.02 0
0.26 0.02 0
0.27 0.02 0
0.28 0.02 0
0.29 0.02 0
0.3 0.02 0
0.31 0.02 0
0.32 0.02 0
0.33 0.02 0
0.34 0.02 0
0.35 0.02 0
0.36 0.02 0
0.37 0.02 0
0.38 0.02 0
0.39 0.02 0
0.4 0.02 0
0.41 0.02 0
0.42 0.02 0
0.43 0.02 0
0.44 0.02 0
0.45 0.02 0
0.46 0.02 0
0.47 0.02 0
0.48 0.02 0
0.49 0.02 0
0.5 0.02 0
0.51 0.02 0
0.52 0.02 0
0.53 0.02 0
0.54 0.02 0
0.55 0.02 0
0.56 0.02 0
0.57 0.02 0
0.58 0.02 0
0.59 0.02 0
0.6 0.02 0
0.61 0.02 0
0 0.03 0
0.01 0.03 0
0.02 0.03 0
0.03 0.03 0
0.04 0.03 0
0.05 0.03 0
0.06 0.03 0
0.07 0.03 0
0.08 0.03 0
0.09 0.03 0
0.1 0.03 0
0.11 0.03 0
0.12 0.03 0
0.13 0.03 0
0.14 0.03 0
0.15 0.03 0
0.16 0.03 0
0.17 0.03 0
0.18 0.03 0
0.19 0.03 0
0.2 0.03 0
0.21 0.03 0
0.22 0.03 0
0.23 0.03 0
0.24 0.03 0
0.25 0.03 0
0.26 0.03 0
0.27 0.03 0
0.28 0.03 0
0.29 0.03 0
0.3 0.03 0
0.31 0.03 0
0.32 0.03 0
0.33 0.03 0
0.34 0.03 0
0.35 0.03 0
0.36 0.03 0
0.37 0.03 0
0.38 0.03 0
0.39 0.03 0
0.4 0.03 0
0.41 0.03 0
0.42 0.03 0
0.43 0.03 0
0.44 0.03 0
0.45 0.03 0
0.46 0.03 0
0.47 0.03 0
0.48 0.03 0
0.49 0.03 0
0.5 0.03 0
0.51 0.03 0
0.52 0.03 0
0.53 0.03 0
0.54 0.03 0
0.55 0.03 0
0.56 0.03 0
0.57 0.03 0
0.58 0.03 0
0.59 0.03 0
0.6 0.03 0
0.61 0.03 0
0 0.04 0
0.01 0.04 0
0.02 0.04 0
0.03 0.04 0
0.04 0.04 0
0.05 0.04 0
0.06 0.04 0
0.07 0.04 0
0.08 0.04 0
0.09 0.04 0
0.1 0.04 0
0.11 0.04 0
0.12 0.04 0
0.13 0.04 0
0.14 0.04 0
0.15 0.04 0
0.16 0.04 0
0.17 0.04 0
0.18 0.04 0
0.19 0.04 0
0.2 0.04 0
0.21 0.04 0
0.22 0.04 0
0.23 0.04 0
0.24 0.04 0
0.25 0.04 0
0.26 0.04 0
0.27 0.04 0
0.28 0.04 0
0.29 0.04 0
0.3 0.04 0
0.31 0.04 0
0.32 0.04 0
0.33 0.04 0
0.34 0.04 0
0.35 0.04 0
0.36 0.04 0
0.37 0.04 0
0.38 0.04 0
0.39 0.04 0
0.4 0.04 0
0.41 0.04 0
0.42 0.04 0
0.43 0.04 0
0.44 0.04 0
0.45 0.04 0
0.46 0.04 0
0.47 0.04 0
0.48 0.04 0
0.49 0.04 0
0.5 0.04 0
0.51 0.04 0
0.52 0.04 0
0.53 0.04 0
0.54 0.04 0
0.55 0.04 0
0.56 0.04 0
0.57 0.04 0
0.58 0.04 0
0.59 0.04 0
0.6 0.04 0
0.61 0.04 0
0 0.05 0
0.01 0.05 0
0.02 0.05 0
0.03 0.05 0
0.04 0.05 0
0.05 0.05 0
0.06 0.05 0
0.07 0.05 0
0.08 0.05 0
0.09 0.05 0
0.1 0.05 0
0.11 0.05 0
0.12 0.05 0
0.13 0.05 0
0.14 0.05 0
0.15 0.05 0
0.16 0.05 0
0.17 0.05 0
0.18 0.05 0
0.19 0.05 0
0.2 0.05 0
0.21 0.05 0
0.22 0.05 0
0.23 0.05 0
0.24 0.05 0
0.25 0.05 0
0.26 0.05 0
0.27 0.05 0
0.28 0.05 0
0.29 0.05 0
0.3 0.05 0
0.31 0.05 0
0.32 0.05 0
0.33 0.05 0
0.34 0.05 0
0.35 0.05 0
0.36 0.05 0
0.37 0.05 0
0.38 0.05 0
0.39 0.05 0
0.4 0.05 0
0.41 0.05 0
0.42 0.05 0
0.43 0.05 0
0.44 0.05 0
0.45 0.05 0
0.46 0.05 0
0.47 0.05 0
0.48 0.05 0
0.49 0.05 0
0.5 0.05 0
0.51 0.05 0
0.52 0.05 0
0.53 0.05 0
0.54 0.05 0
0.55 0.05 0
0.56 0.05 0
0.57 0.05 0
0.58 0.05 0
0.59 0.05 0
0.6 0.05 0
0.61 0.05 0
0 0.06 0
0.01 0.06 0
0.02 0.06 0
0.03 0.06 0
0.04 0.06 0
0.05 0.06 0
0.06 0.06 0
0.07 0.06 0
0.08 0.06 0
0.09 0.06 0
0.1 0.06 0
0.11 0.06 0
0.12 0.06 0
0.13 0.06 0
0.14 0.06 0
0.15 0.06 0
0.16 0.06 0
0.17 0.06 0
0.18 0.06 0
0.19 0.06 0
0.2 0.06 0
0.21 0.06 0
0.22 0.06 0
0.23 0.06 0
0.24 0.06 0
0.25 0.06 0
0.26 0.06 0
0.27 0.06 0
0.28 0.06 0
0.29 0.06 0
0.3 0.06 0
0.31 0.06 0
0.32 0.06 0
0.33 0.06 0
0.34 0.06 0
0.35 0.06 0
0.36 0.06 0
0.37 0.06 0
0.38 0.06 0
0.39 0.06 0
0.4 0.06 0
0.41 0.06 0
0.42 0.06 0
0.43 0.06 0
0.44 0.06 0
0.45 0.06 0
0.46 0.06 0
0.47 0.06 0
0.48 0.06 0
0.49 0.06 0
0.5 0.06 0
0.51 0.06 0
0.52 0.06 0
0.53 0.06 0
0.54 0.06 0
0.55 0.06 0
0.56 0.06 0
0.57 0.06 0
0.58 0.06 0
0.59 0.06 0
0.6 0.06 0
0.61 0.06 0
0 0.07 0
0.01 0.07 0
0.02 0.07 0
0.03 0.07 0
0.04 0.07 0
0.05 0.07 0
0.06 0.07 0
0.07 0.07 0
0.08 0.07 0
0.09 0.07 0
0.1 0.07 0
0.11 0.07 0
0.12 0.07 0
0.13 0.07 0
0.14 0.07 0
0.15 0.07 0
0.16 0.07 0
0.17 0.07 0
0.18 0.07 0
0.19 0.07 0
0.2 0.07 0
0.21 0.07 0
0.22 0.07 0
0.23 0.07 0
0.24 0.07 0
0.25 0.07 0
0.26 0.07 0
0.27 0.07 0
0.28 0.07 0
0.29 0.07 0
0.3 0.07 0
0.31 0.07 0
0.32 0.07 0
0.33 0.07 0
0.34 0.07 0
0.35 0.07 0
0.36 0.07 0
0.37 0.07 0
0.38 0.07 0
0.39 0.07 0
0.4 0.07 0
0.41 0.07 0
0.42 0.07 0
0.43 0.07 0
0.44 0.07 0
0.45 0.07 0
0.46 0.07 0
0.47 0.07 0
0.48 0.07 0
0.49 0.07 0
0.5 0.07 0
0.51 0.07 0
0.52 0.07 0
0.53 0.07 0
0.54 0.07 0
0.55 0.07 0
0.56 0.07 0
0.57 0.07 0
0.58 0.07 0
0.59 0.07 0
0.6 0.07 0
0.61 0.07 0
0 0.08 0
0.01 0.08 0
0.02 0.08 0
0.03 0.08 0
0.04 0.08 0
0.05 0.08 0
0.06 0.08 0
0.07 0.08 0
0.08 0.08 0
0.09 0.08 0
0.1 0.08 0
0.11 0.08 0
0.12 0.08 0
0.13 0.08 0
0.14 0.08 0
0.15 0.08 0
0.16 0.08 0
0.17 0.08 0
0.18 0.08 0
0.19 0.08 0
0.2 0.08 0
0.21 0.08 0
0.22 0.08 0
0.23 0.08 0
0.24 0.08 0
0.25 0.08 0
0.26 0.08 0
0.27 0.08 0
0.28 0.08 0
0.29 0.08 0
0.3 0.08 0
0.31 0.08 0
0.32 0.08 0
0.33 0.08 0
0.34 0.08 0
0.35 0.08 0
0.36 0.08 0
0.37 0.08 0
0.38 0.08 0
0.39 0.08 0
0.4 0.08 0
0.41 0.08 0
0.42 0.08 0
0.43 0.08 0
0.44 0.08 0
0.45 0.08 0
0.46 0.08 0
0.47 0.08 0
0.48 0.08 0
0.49 0.08 0
0.5 0.08 0
0.51 0.08 0
0.52 0.08 0
0.53 0.08 0
0.54 0.08 0
0.55 0.08 0
0.56 0.08 0
0.57 0.08 0
0.58 0.08 0
0.59 0.08 0
0.6 0.08 0
0.61 0.08 0
0 0.09 0
0.01 0.09 0
0.02 0.09 0
0.03 0.09 0
0.04 0.09 0
0.05 0.09 0
0.06 0.09 0
0.07 0.09 0
0.08 0.09 0
0.09 0.09 0
0.1 0.09 0
0.11 0.09 0
0.12 0.09 0
0.13 0.09 0
0.14 0.09 0
0.15 0.09 0
0.16 0.09 0
0.17 0.09 0
0.18 0.09 0
0.19 0.09 0
0.2 0.09 0
0.21 0.09 0
0.22 0.09 0
0.23 0.09 0
0.24 0.09 0
0.25 0.09 0
0.26 0.09 0
0.27 0.09 0
0.28 0.09 0
0.29 0.09 0
0.3 0.09 0
0.31 0.09 0
0.32 0.09 0
0.33 0.09 0
0.34 0.09 0
0.35 0.09 0
0.36 0.09 0
0.37 0.09 0
0.38 0.09 0
0.39 0.09 0
0.4 0.09 0
0.41 0.09 0
0.42 0.09 0
0.43 0.09 0
0.44 0.09 0
0.45 0.09 0
0.46 0.09 0
0.47 0.09 0
0.48 0.09 0
0.49 0.09 0
0.5 0.09 0
0.51 0.09 0
0.52 0.09 0
0.53 0.09 0
0.54 0.09 0
0.55 0.09 0
0.56 0.09 0
0.57 0.09 0
0.58 0.09 0
0.59 0.09 0
0.6 0.09 0
0.61 0.09 0
0 0.1 0
0.01 0.1 0
0.02 0.1 0
0.03 0.1 0
0.04 0.1 0
0.05 0.1 0
0.06 0.1 0
0.07 0.1 0
0.08 0.1 0
0.09 0.1 0
0.1 0.1 0
0.11 0.1 0
0.12 0.1 0
0.13 0.1 0
0.14 0.1 0
0.15 0.1 0
0.16 0.1 0
0.17 0.1 0
0.18 0.1 0
0.19 0.1 0
0.2 0.1 0
0.21 0.1 0
0.22 0.1 0
0.23 0.1 0
0.24 0.1 0
0.25 0.1 0
0.26 0.1 0
0.27 0.1 0
0.28 0.1 0
0.29 0.1 0
0.3 0.1 0
0.31 0.1 0
0.32 0.1 0
0.33 0.1 0
0.34 0.1 0
0.35 0.1 0
0.36 0.1 0
0.37 0.1 0
0.38 0.1 0
0.39 0.1 0
0.4 0.1 0
0.41 0.1 0
0.42 0.1 0
0.43 0.1 0
0.44 0.1 0
0.45 0.1 0
0.46 0.1 0
0.47 0.1 0
0.48 0.1 0
0.49 0.1 0
0.5 0.1 0
0.51 0.1 0
0.52 0.1 0
0.53 0.1 0
0.54 0.1 0
0.55 0.1 0
0.56 0.1 0
0.57 0.1 0
0.58 0.1 0
0.59 0.1 0
0.6 0.1 0
0.61 0.1 0
0 0.11 0
0.01 0.11 0
0.02 0.11 0
0.03 0.11 0
0.04 0.11 0
0.05 0.11 0
0.06 0.11 0
0.07 0.11 0
0.08 0.11 0
0.09 0.11 0
0.1 0.11 0
0.11 0.11 0
0.12 0.11 0
0.13 0.11 0
0.14 0.11 0
0.15 0.11 0
0.16 0.11 0
0.17 0.11 0
0.18 0.11 0
0.19 0.11 0
0.2 0.11 0
0.21 0.11 0
0.22 0.11 0
0.23 0.11 0
0.24 0.11 0
0.25 0.11 0
0.26 0.11 0
0.27 0.11 0
0.28 0.11 0
0.29 0.11 0
0.3 0.11 0
0.31 0.11 0
0.32 0.11 0
0.33 0.11 0
0.34 0.11 0
0.35 0.11 0
0.36 0.11 0
0.37 0.11 0
0.38 0.11 0
0.39 0.11 0
0.4 0.11 0
0.41 0.11 0
0.42 0.11 0
0.43 0.11 0
0.44 0.11 0
0.45 0.11 0
0.46 0.11 0
0.47 0.11 0
0.48 0.11 0
0.49 0.11 0
0.5 0.11 0
0.51 0.11 0
0.52 0.11 0
0.53 0.11 0
0.54 0.11 0
0.55 0.11 0
0.56 0.11 0
0.57 0.11 0
0.58 0.11 0
0.59 0.11 0
0.6 0.11 0
0.61 0.11 0
0 0.12 0
0.01 0.12 0
0.02 0.12 0
0.03 0.12 0
0.04 0.12 0
0.05 0.12 0
0.06 0.12 0
0.07 0.12 0
0.08 0.12 0
0.09 0.12 0
0.1 0.12 0
0.11 0.12 0
0.12 0.12 0
0.13 0.12 0
0.14 0.12 0
0.15 0.12 0
0.16 0.12 0
0.17 0.12 0
0.18 0.12 0
0.19 0.12 0
0.2 0.12 0
0.21 0.12 0
0.22 0.12 0
0.23 0.12 0
0.24 0.12 0
0.25 0.12 0
0.26 0.12 0
0.27 0.12 0
0.28 0.12 0
0.29 0.12 0
0.3 0.12 0
0.31 0.12 0
0.32 0.12 0
0.33 0.12 0
0.34 0.12 0
0.35 0.12 0
0.36 0.12 0
0.37 0.12 0
0.38 0.12 0
0.39 0.12 0
0.4 0.12 0
0.41 0.12 0
0.42 0.12 0
0.43 0.12 0
0.44 0.12 0
0.45 0.12 0
0.46 0.12 0
0.47 0.12 0
0.48 0.12 0
0.49 0.12 0
0.5 0.12 0
0.51 0.12 0
0.52 0.12 0
0.53 0.12 0
0.54 0.12 0
0.55 0.12 0
0.56 0.12 0
0.57 0.12 0
0.58 0.12 0
0.59 0.12 0
0.6 0.12 0
0.61 0.12 0
0 0.13 0
0.01 0.13 0
0.02 0.13 0
0.03 0.13 0
0.04 0.13 0
0.05 0.13 0
0.06 0.13 0
0.07 0.13 0
0.08 0.13 0
0.09 0.13 0
0.1 0.13 0
0.11 0.13 0
0.12 0.13 0
0.13 0.13 0
0.14 0.13 0
0.15 0.13 0
0.16 0.13 0
0.17 0.13 0
0.18 0.13 0
0.19 0.13 0
0.2 0.13 0
0.21 0.13 0
0.22 0.13 0
0.23 0.13 0
0.24 0.13 0
0.25 0.13 0
0.26 0.13 0
0.27 0.13 0
0.28 0.13 0
0.29 0.13 0
0.3 0.13 0
0.31 0.13 0
0.32 0.13 0
0.33 0.13 0
0.34 0.13 0
0.35 0.13 0
0.36 0.13 0
0.37 0.13 0
0.38 0.13 0
0.39 0.13 0
0.4 0.13 0
0.41 0.13 0
0.42 0.13 0
0.43 0.13 0
0.44 0.13 0
0.45 0.13 0
0.46 0.13 0
0.47 0.13 0
0.48 0.13 0
[...]
POINT_DATA 93248

SCALARS w double
LOOKUP_TABLE default
0
0
0
0
0
0
0
0
0
0
0
0
0
-0.0137065
0
0
0
0
0
0
0
0
0
0
0
0
-0.0146701
0
0
0
0
0
-0.0144285
0
0
0
0
0
0
0
0
0
0
0
0
0
-0.0142551
0
0
0
0
0
0
0
0
0
0
0
0
0
0
0
0
0.00014914
0.00477184
-0.00117487
-0.00748512
-0.0100477
-0.0114725
-0.0121224
-0.0124998
-0.0127748
-0.0129673
-0.013104
-0.0131957
-0.013274
-0.0133333
-0.0133779
-0.0134145
-0.0134465
-0.0134602
-0.0134671
-0.0134682
-0.0134792
-0.013483
-0.0134949
-0.0135045
-0.0135107
-0.0135151
-0.0135182
-0.0135205
-0.0135219
-0.0135219
-0.0135193
-0.0135109
-0.0135025
-0.0134732
-0.0133764
-0.0131831
-0.0127243
-0.0120042
-0.0153102
-0.0141777
-0.0138897
-0.0137152
-0.0136429
-0.0136145
-0.0150907
-0.0135417
-0.0135473
-0.0135614
-0.0135546
-0.013524
-0.013467
-0.0136567
-0.0136249
-0.0150916
-0.0136383
-0.0137451
-0.0133871
-0.0134929
-0.0134478
-0.0123872
0
0
0.00177123
0.00489476
-0.00166624
-0.00894312
-0.011862
-0.013246
-0.0141345
-0.0146803
-0.0150079
-0.0152237
-0.0153814
-0.0154691
-0.0155577
-0.0156301
-0.0156843
-0.0157236
-0.0157837
-0.0157812
-0.0157774
-0.0157715
-0.0157824
-0.0151944
-0.0157984
-0.0158155
-0.0158228
-0.0158273
-0.0158304
-0.0158327
-0.0158341
-0.0158342
-0.0158316
-0.0158234
-0.0158203
-0.0158178
-0.0156464
-0.0153557
-0.0141925
-0.00963058
-0.0215936
-0.0179105
-0.0164107
-0.0160604
-0.0159646
-0.0159524
-0.0159865
-0.0158215
-0.0158469
-0.0158605
-0.0158668
-0.0158551
-0.0151024
-0.0159045
-0.0159044
-0.0158997
-0.0159153
-0.0159315
-0.0158281
-0.0158425
-0.0157482
-0.0144204
0
0
0.00204133
0.00534195
-0.00135367
-0.00862043
-0.0100477
-0.0130209
-0.0138759
-0.0143913
-0.0147138
-0.0149125
-0.01512
-0.0152282
-0.0152934
-0.0153383
-0.0153754
-0.0154388
-0.0155761
-0.0155278
-0.0154983
-0.0155206
-0.0155203
-0.0155097
-0.0155179
-0.015526
-0.0155317
-0.0155357
-0.0155388
-0.0155412
-0.0155429
-0.0155442
-0.015547
-0.015556
-0.0152233
-0.0156619
-0.0153101
-0.0152213
-0.0148952
-0.0142204
-0.0168092
-0.0162803
-0.0158738
-0.0157119
-0.0156663
-0.0157147
-0.0159413
-0.0153155
-0.0154735
-0.0155602
-0.015578
-0.0155791
-0.0155753
-0.0155947
-0.0156004
-0.0156031
-0.0156062
-0.0156103
-0.0155956
-0.0155783
-0.0154677
-0.0141421
0
0
0.00217327
0.00549851
0.00556435
-0.00818142
-0.0113315
-0.0128431
-0.0136833
-0.0141913
-0.0145101
-0.0147226
-0.0148834
-0.014995
-0.0150672
-0.0151153
-0.0151283
-0.0151574
-0.0150878
-0.0151882
-0.0152578
-0.0152905
-0.0152963
-0.0153003
-0.0153065
-0.0153125
-0.0153173
-0.0153211
-0.0153241
-0.0153266
-0.0153285
-0.01533
-0.0153316
-0.0153353
-0.015335
-0.0153452
-0.0152417
-0.0152007
-0.0151263
-0.0151718
-0.01558
-0.0155778
-0.015493
-0.0154395
-0.0154203
-0.0154335
-0.0154828
-0.0153513
-0.0153531
-0.015364
-0.0153693
-0.0153712
-0.0153728
-0.0153787
-0.0153827
-0.0153849
-0.0153858
-0.0153853
-0.015382
-0.0153675
-0.0152577
-0.0139417
0
0
0.00226384
0.00566024
-0.00112787
-0.00835338
-0.0112856
-0.0127608
-0.0136037
-0.0141227
-0.0144226
-0.0146249
-0.0147737
-0.0148815
-0.0149576
-0.0150115
-0.0133495
-0.0150143
-0.0150611
-0.0151163
-0.0151529
-0.0151748
-0.0151865
-0.0151944
-0.015201
-0.0152065
-0.015211
-0.0152147
-0.0152178
-0.0152203
-0.0152223
-0.0152238
-0.0152244
-0.0152233
-0.0152163
-0.0152166
-0.015195
-0.0151798
-0.0151682
-0.0151873
-0.0152962
-0.0153218
-0.0153102
-0.0152962
-0.0152895
-0.0152936
-0.0153197
-0.0154023
-0.0152999
-0.0152686
-0.0152656
-0.0152663
-0.0152681
-0.0152719
-0.0152763
-0.0152786
-0.0152788
-0.0152771
-0.0152735
-0.0152615
-0.0151529
-0.0138441
0
0
0.00230505
0.00569641
-0.00122013
-0.00838509
-0.0112518
-0.012701
-0.0136016
-0.0141381
-0.0144095
-0.0145731
-0.0147161
-0.014823
-0.0148996
-0.0149504
-0.0149651
-0.0150075
-0.0150372
-0.0149805
-0.0150954
-0.015115
-0.0151276
-0.0151366
-0.0151434
-0.0151489
-0.0151533
-0.015157
-0.0151601
-0.0151628
-0.015165
-0.0151666
-0.0151666
-0.0151633
-0.0151495
-0.0151543
-0.0151584
-0.0151565
-0.0151582
-0.0151718
-0.0152027
-0.0152178
-0.01522
-0.0152179
-0.0152151
-0.0152092
-0.0151801
-0.0150581
-0.0151605
-0.0151975
-0.0152043
-0.0152056
-0.0152067
-0.0152114
-0.0152213
-0.0152251
-0.0152242
-0.0152209
-0.0152157
-0.015201
-0.0150935
-0.0137799
0
0
0.00232663
0.00571593
-0.00122938
-0.00837592
-0.0111847
-0.0123673
-0.0139499
-0.0138479
-0.0142435
-0.0145174
-0.014679
-0.0147905
-0.0148686
-0.0149232
-0.0149592
-0.0149879
-0.0149899
-0.0150273
-0.0150596
-0.0150796
-0.0150925
-0.0151019
-0.015109
-0.0151145
-0.015119
-0.0151223
-0.0151256
-0.0151287
-0.0151318
-0.0151341
-0.0151337
-0.0151383
-0.0151537
-0.0151471
-0.0151373
-0.0151367
-0.0151399
-0.0151478
-0.0151595
-0.0151678
-0.0151717
-0.0151727
-0.0151727
-0.0151689
-0.0151567
-0.0151256
-0.0151519
-0.0151638
-0.0151657
-0.0151626
-0.0151587
-0.0151645
-0.0151991
-0.0152047
-0.0151988
-0.0151912
-0.015182
-0.0151618
-0.0134478
-0.0136372
0
0
0.00234
0.00572996
-0.00122617
-0.0083765
-0.0112225
-0.0126533
-0.013525
-0.0139409
-0.0142723
-0.0145021
-0.0146597
-0.014777
-0.0148519
-0.014908
-0.0149477
-0.0149801
-0.013405
-0.0149673
-0.0150319
-0.0150566
-0.0150691
-0.0150792
-0.0150866
-0.0150922
-0.0150968
-0.0150994
-0.0151032
-0.0151075
-0.0151133
-0.0151189
-0.015108
-0.015111
-0.0151203
-0.0151189
-0.0151183
-0.0151199
-0.0151233
-0.0151283
-0.0151345
-0.0151397
-0.0151432
-0.0151454
-0.0151464
-0.0151457
-0.0151424
-0.0151369
-0.0151406
-0.0151414
-0.0151356
-0.0151199
-0.0150921
-0.0150803
-0.0152373
-0.0152282
-0.0151988
-0.0151798
-0.0151712
-0.0151643
-0.0150455
-0.0137329
0
0
0.00234928
0.00574076
-0.00122071
-0.00837282
-0.0112272
-0.0126633
-0.0134788
-0.0139565
-0.0142741
-0.0144925
-0.0146455
-0.0154691
-0.0148535
-0.0148971
-0.0149381
-0.0149641
-0.0149624
-0.0149967
-0.0150258
-0.0150435
-0.0150524
-0.0150626
-0.0150713
-0.0150764
-0.0150802
-0.0150831
-0.0150873
-0.0150941
-0.0151094
-0.0151403
-0.0150698
-0.0150815
-0.0150948
-0.0151004
-0.0151036
-0.0151065
-0.0151098
-0.0151136
-0.0151177
-0.0151216
-0.0151249
-0.0151273
-0.0151291
-0.01513
-0.0151298
-0.0151288
-0.0151281
-0.0151235
-0.0151075
-0.0150612
-0.0149392
-0.0132192
-0.0155576
-0.015357
-0.0152303
-0.0151794
-0.0151594
-0.0151449
-0.0150304
-0.0137207
0
0
0.00235613
0.00574913
-0.00121498
-0.00836603
-0.0112232
-0.0126594
-0.0134653
-0.0139525
-0.014269
-0.0144849
-0.0146381
-0.0147548
-0.014832
-0.0148906
-0.0149385
-0.0149653
-0.0149818
-0.0150026
-0.0150215
-0.0150366
-0.0150512
-0.0150575
-0.0150611
-0.015065
-0.0150383
-0.0150701
-0.0150736
-0.0150831
-0.0151203
-0.015255
-0.0149987
-0.0150299
-0.0150755
-0.0150869
-0.015092
-0.0150951
-0.0150995
-0.0151018
-0.0151053
-0.0151087
-0.0151118
-0.0151145
-0.0151168
-0.0151185
-0.0151195
-0.0151195
-0.0151179
-0.0151106
-0.0150852
-0.0149923
-0.0146048
-0.0132192
-0.0169927
-0.0157085
-0.0152843
-0.0151818
-0.0151511
-0.015132
-0.0150196
-0.0137111
0
0
0.00236132
0.00575559
-0.0012097
-0.00835382
-0.0112169
-0.0126543
-0.0134584
-0.0139469
-0.0142633
-0.0144783
-0.0146301
-0.014741
-0.0148231
-0.0148917
-0.0149667
-0.0149764
-0.0149859
-0.0150014
-0.0150165
-0.0150284
-0.015043
-0.0150478
-0.0150525
-0.0150558
-0.0150574
-0.0150577
-0.0150571
-0.0150587
-0.0150722
-0.0151238
-0.0151676
-0.0151002
-0.0150751
-0.015078
-0.0150826
-0.0150864
-0.0150893
-0.0150928
-0.015095
-0.0150984
-0.0151016
-0.0151046
-0.0151074
-0.0151097
-0.0151113
-0.0151121
-0.0151111
-0.0151058
-0.0150896
-0.0150433
-0.0149227
-0.0147123
-0.01553
-0.0153368
-0.0152116
-0.0151608
-0.0151399
-0.0151228
-0.0150114
-0.0137036
0
0
0.00236521
0.00576
-0.00120931
-0.00837012
-0.0112188
-0.012651
-0.0134538
-0.0139423
-0.0142584
-0.0144728
-0.0146239
-0.0147335
-0.0148166
-0.0148947
-0.0150452
-0.0150138
-0.0149864
-0.0149975
-0.0150117
-0.015024
-0.0150342
-0.015041
-0.0150456
-0.015048
-0.0150477
-0.0150441
-0.0150358
-0.0150222
-0.015006
-0.0149946
-0.014885
-0.0149895
-0.0150491
-0.0150663
-0.0150737
-0.0150779
-0.0150807
-0.015083
-0.0150856
-0.0150888
-0.0150924
-0.0150961
-0.0150995
-0.0151025
-0.0151049
-0.0151064
-0.0151066
-0.0151045
-0.0150977
-0.0150815
-0.0150543
-0.0150441
-0.0151951
-0.0151878
-0.0151593
-0.0151404
-0.0151294
-0.0151152
-0.0150049
-0.0136978
0
0
0.00236834
0.00576397
-0.0012055
-0.00835936
-0.0112136
-0.0126473
-0.0134502
-0.0139386
-0.0142546
-0.0144683
-0.0146187
-0.0147268
-0.0148028
-0.0148427
-0.0147795
-0.0148804
-0.0149601
-0.0149891
-0.0150058
-0.015019
-0.0150289
-0.0150358
-0.01504
-0.0150412
-0.0150383
-0.0150286
-0.0150064
-0.0149627
-0.0148892
-0.0149221
-0.0149449
-0.0150061
-0.0150414
-0.0150579
-0.0150658
-0.0150696
-0.0150712
-0.0150723
-0.015074
-0.0150778
-0.0150827
-0.0150425
-0.0150924
-0.0150964
-0.0150995
-0.0151018
-0.0151033
-0.0151038
-0.0151036
-0.0150983
-0.0150937
-0.0150995
-0.0151325
-0.0151384
-0.0151331
-0.0151268
-0.0151216
-0.0151094
-0.0149999
-0.0136932
0
0
0.0023707
0.00576701
-0.00120243
-0.0083765
-0.0112101
-0.012644
-0.0134475
-0.0139361
-0.0142522
-0.0144667
-0.0146164
-0.0147232
-0.0147995
-0.0148487
-0.0148636
-0.0149196
-0.0149607
-0.0149848
-0.0149978
-0.0150135
-0.0150248
-0.0150318
-0.0150356
-0.0150357
-0.0150299
-0.0150123
-0.0149671
-0.0148519
-0.0144243
-0.0147255
-0.0149027
-0.0149922
-0.0150325
-0.0150505
-0.0150584
-0.0150607
-0.0150644
-0.0150566
-0.0150556
-0.0150612
-0.0150699
-0.0150783
-0.0150853
-0.0150907
-0.0150949
-0.015098
-0.0151003
-0.0151029
-0.0151064
-0.0151045
-0.0151036
-0.0151078
-0.0151172
-0.0151208
-0.0151203
-0.0151185
-0.015201
-0.0151055
-0.0149963
-0.0136898
0
0
0.00237204
0.0057683
-0.00120067
-0.00835127
-0.011206
-0.0126403
-0.0134461
-0.0139352
-0.0142506
-0.0144642
-0.0146136
-0.0147209
-0.0147989
-0.0148549
-0.0148946
-0.0149325
-0.0149625
-0.0149822
-0.0149846
-0.0150055
-0.0150216
-0.015029
-0.0150325
-0.0150319
-0.0150245
-0.0150013
-0.0149339
-0.0146657
0.0137157
-0.0141014
-0.0147902
-0.0149699
-0.0150245
-0.0150443
-0.0150514
-0.0150504
-0.0150424
-0.0150286
-0.0150161
-0.0150293
-0.0150493
-0.0150657
-0.0150773
-0.0150852
-0.0150907
-0.0150945
-0.0150971
-0.0150978
-0.0150962
-0.0150999
-0.0151039
-0.0151073
-0.0155576
-0.0151128
-0.0151127
-0.0151118
-0.015113
-0.015103
-0.0149941
-0.0136877
0
0
0.00237182
0.00576436
-0.00120052
-0.00834797
-0.0112004
-0.0126324
-0.013449
-0.0139384
-0.0142512
-0.014463
-0.0146118
-0.014719
-0.0147978
-0.0148565
-0.014901
-0.0149365
-0.0149645
-0.0149881
-0.0150183
-0.0150213
-0.0150228
-0.0150277
-0.0150308
-0.0150305
-0.0150243
-0.0150059
-0.0149584
-0.0148353
-0.0144076
-0.0147218
-0.0149062
-0.0149914
-0.0150263
-0.0150404
-0.0150458
-0.0150384
-0.0150152
-0.0149692
-0.0149044
-0.0149552
-0.0150118
-0.0150478
-0.0150681
-0.0150798
-0.0150871
-0.0150916
-0.0150946
-0.0150919
-0.0150966
-0.015099
-0.0151023
-0.0151049
-0.0151069
-0.0151071
-0.0151059
-0.0151025
-0.0151158
-0.0151049
-0.0149942
-0.0136873
0
0
0.00237079
0.00574168
-0.00120338
-0.0083436
-0.0111886
-0.0125982
-0.0134735
-0.0139556
-0.014256
-0.014463
-0.0146102
-0.0147168
-0.0147957
-0.0148558
-0.0149028
-0.0149382
-0.0149649
-0.0149863
-0.0150058
-0.0150144
-0.015021
-0.0150265
-0.0150299
-0.0150305
-0.0150269
-0.0150162
-0.0149925
-0.0149453
-0.0148755
-0.0149222
-0.014978
-0.0150125
-0.0150282
-0.0150334
-0.0150455
-0.0150278
-0.0149753
-0.0148448
-0.0144365
-0.0147659
-0.0149439
-0.0150237
-0.0150584
-0.0150749
-0.0150843
-0.0150893
-0.0150926
-0.0150948
-0.0150952
-0.0150929
-0.015099
-0.0151021
-0.015103
-0.015101
-0.0153858
-0.0150664
-0.0151482
-0.0151174
-0.0149979
-0.0136893
0
0
0.00238494
0.00581094
-0.00118242
-0.00833534
-0.0111706
-0.0126594
-0.0135406
-0.0140211
-0.0142659
-0.0144633
-0.0146086
-0.0147132
-0.0147908
-0.0148524
-0.0149061
-0.0149416
-0.0149664
-0.0149854
-0.0150007
-0.0150115
-0.0150196
-0.0150256
-0.0150295
-0.015031
-0.0150296
-0.0150242
-0.0150146
-0.0149951
-0.0149778
-0.0149928
-0.0150123
-0.0150237
-0.015021
-0.0149993
-0.0150728
-0.0150338
-0.0149432
-0.0146084
0.0142363
-0.0142221
-0.0148487
-0.0150027
-0.0150519
-0.0150716
-0.0150809
-0.0150869
-0.0150909
-0.0150933
-0.015092
-0.0150834
-0.0150938
-0.0150996
-0.0150993
-0.0150916
-0.015054
-0.014938
-0.0152681
-0.0151511
-0.0150034
-0.0137033
0
0
0.00238301
0.00578582
-0.0011855
-0.00833531
-0.0111958
-0.0126409
-0.0134917
-0.0139588
-0.0142538
-0.0144592
-0.0146074
-0.0147059
-0.0147768
-0.0148383
-0.0149227
-0.0149533
-0.0149712
-0.014986
-0.0149994
-0.0150103
-0.0150188
-0.015025
-0.0150293
-0.0150314
-0.0150309
-0.015027
-0.0150191
-0.0150141
-0.0150046
-0.0150144
-0.0150278
-0.0150278
-0.0149986
-0.0148801
-0.0151717
-0.0150897
-0.0149854
-0.0148407
-0.0144267
-0.0147616
-0.0149401
-0.0150209
-0.0150558
-0.0150723
-0.0150808
-0.0150858
-0.0150897
-0.0150936
-0.0151003
-0.0151138
-0.0151056
-0.0151001
-0.0150983
-0.0150946
-0.0150838
-0.0150622
-0.0151426
-0.0151135
-0.0149943
-0.013686
0
0
0.00238165
0.00578148
-0.00118736
-0.00832155
-0.0112087
-0.012759
-0.0135162
-0.0139435
-0.0142448
-0.0144536
-0.01461
-0.0146905
-0.014731
-0.0147627
-0.0150126
-0.0149902
-0.0149822
-0.0149864
-0.0149987
-0.0150097
-0.0150183
-0.0150247
-0.0150292
-0.0150316
-0.0150309
-0.0150245
-0.0150012
-0.0150188
-0.0150421
-0.0150441
-0.0150403
-0.0150387
-0.0150293
-0.0150061
-0.0150786
-0.0150544
-0.0150169
-0.014965
-0.0148984
-0.0149495
-0.0150062
-0.0150425
-0.0150634
-0.0150756
-0.0150825
-0.0150842
-0.0150876
-0.0150919
-0.0150971
-0.0151043
-0.0151016
-0.015097
-0.0150955
-0.0150952
-0.0150964
-0.0150954
-0.0151082
-0.0150976
-0.0149871
-0.0136804
0
0
0.00238086
0.00577936
-0.00119444
-0.00836089
-0.0111815
-0.0124953
-0.0133607
-0.0139104
-0.0142325
-0.0144381
-0.014557
-0.0146306
-0.0145883
-0.0143026
-0.0155442
-0.0150791
-0.0149977
-0.0149823
-0.0149959
-0.0150092
-0.015018
-0.0150246
-0.0150293
-0.0150319
-0.0150314
-0.0150241
-0.0134832
-0.014987
-0.015034
-0.0150429
-0.0150452
-0.0150459
-0.0150444
-0.0150424
-0.0150535
-0.0150477
-0.0150357
-0.0150202
-0.0150074
-0.0150205
-0.0150407
-0.015058
-0.0150715
-0.0150822
-0.0150893
-0.0150781
-0.0150822
-0.0150888
-0.0150954
-0.0151024
-0.0151047
-0.015088
-0.0150862
-0.0150875
-0.0151046
-0.0151041
-0.015103
-0.0150924
-0.0149833
-0.0136772
0
0
0.00238057
0.00577923
-0.00119286
-0.00834423
-0.0111857
-0.0125859
-0.0134094
-0.0139122
-0.0142277
-0.014429
-0.0145549
-0.0145816
-0.0142566
-0.0152702
-0.0150479
-0.0149997
-0.0149873
-0.0150012
-0.0150048
-0.0150104
-0.0150181
-0.0150247
-0.0150297
-0.0150328
-0.0150332
-0.0150283
-0.0150068
-0.0150243
-0.015039
-0.0150454
-0.0150483
-0.0150498
-0.0150501
-0.0150497
-0.0150492
-0.0150437
-0.0150431
-0.0150421
-0.0150422
-0.0150484
-0.0150578
-0.0150681
-0.0151097
-0.0150976
-0.0151248
-0.0150453
-0.015066
-0.0150828
-0.0150953
-0.0151144
-0.0151381
-0.0150501
-0.0150573
-0.0150474
-0.0151378
-0.0151183
-0.0151052
-0.0150913
-0.0149815
-0.0136753
0
0
0.00238027
0.00577911
-0.00119239
-0.00834202
-0.0111933
-0.0126211
-0.013427
-0.0139161
-0.0142245
-0.0144057
-0.0145584
-0.0146562
-0.0147085
-0.0149245
-0.0149562
-0.0149621
-0.014974
-0.0149895
-0.015
-0.0150095
-0.0150179
-0.015025
-0.0150309
-0.0150342
-0.015036
-0.0150359
-0.0150339
-0.015039
-0.0150442
-0.0150481
-0.0150506
-0.015052
-0.0150524
-0.015051
-0.0150438
-0.0150215
-0.0150375
-0.0150488
-0.0150546
-0.01506
-0.0150663
-0.0150742
-0.0150879
-0.0151283
-0.0152473
-0.014936
-0.0150221
-0.0150715
-0.0150922
-0.0151502
-0.0152637
-0.014931
-0.0149869
-0.0149147
-0.015257
-0.0151539
-0.0151106
-0.0150919
-0.0149806
-0.013674
0
0
0.00237965
0.00577856
-0.00119291
-0.00834286
-0.0111971
-0.0126306
-0.0134378
-0.0139225
-0.0142343
-0.01992
-0.0145215
-0.0146782
-0.0147705
-0.0148668
-0.0149147
-0.0149437
-0.0149652
-0.0149833
-0.0149973
-0.0150085
-0.0150176
-0.0150257
-0.0150346
-0.0150363
-0.015038
-0.0150402
-0.0150423
-0.015047
-0.015046
-0.0150503
-0.0150523
-0.0150536
-0.0150538
-0.0134732
-0.0150388
-0.0135025
-0.0150101
-0.0150483
-0.0150595
-0.0150652
-0.0150702
-0.0150759
-0.0150839
-0.0150986
-0.0151227
-0.0150444
-0.015059
-0.0150634
-0.0150523
-0.0151524
-0.015158
-0.0150572
-0.0150587
-0.0150486
-0.0151349
-0.0151167
-0.0151042
-0.0150933
-0.0149802
-0.013673
0
0
0.0023785
0.00577746
-0.00119401
-0.00834412
-0.0111991
-0.0126323
-0.0139386
-0.0139331
-0.0142318
-0.0144138
-0.0145752
-0.0146964
-0.0147839
-0.0148537
-0.0149021
-0.0149362
-0.0149277
-0.0149798
-0.0149957
-0.0150076
-0.0150171
-0.0150262
-0.015041
-0.0150406
-0.015039
-0.0150426
-0.0150458
-0.0150494
-0.0150506
-0.0150521
-0.015054
-0.015055
-0.0150553
-0.015054
-0.015047
-0.0150257
-0.0150435
-0.0150567
-0.0150637
-0.0150683
-0.0150724
-0.0150769
-0.0150809
-0.0150856
-0.0150884
-0.0150738
-0.0150673
-0.0150352
-0.0149249
-0.0152545
-0.0151653
-0.0151004
-0.015087
-0.0150867
-0.0151025
-0.0151019
-0.0151005
-0.0150934
-0.0149806
-0.0136719
0
0
0.0023765
0.00577552
-0.00119581
-0.00834581
-0.011201
-0.012636
-0.0134437
-0.0139295
-0.0142392
-0.0144449
-0.0145931
-0.014704
-0.0147874
-0.0148509
-0.0148981
-0.014933
-0.014959
-0.0149795
-0.0149951
-0.0150069
-0.0150156
-0.0150203
-0.0150151
-0.015024
-0.0150347
-0.0150454
-0.0150491
-0.0150494
-0.0150512
-0.0150533
-0.015108
-0.0150566
-0.0150569
-0.0150569
-0.0150553
-0.0150524
-0.0150571
-0.0150624
-0.0150665
-0.0150702
-0.0150743
-0.0150805
-0.0150805
-0.0150816
-0.0150823
-0.0150795
-0.0150764
-0.0150669
-0.0150477
-0.015128
-0.0151082
-0.0150986
-0.0150948
-0.0150938
-0.0150964
-0.0150956
-0.0150901
-0.0150753
-0.0149713
-0.0136691
0
0
0.00237296
0.00577199
-0.0011989
-0.0083482
-0.0112029
-0.0126374
-0.0134429
-0.0139376
-0.0142497
-0.0144607
-0.0145956
-0.0147032
-0.0147867
-0.0148495
-0.0148963
-0.0149316
-0.0149589
-0.0149796
-0.014995
-0.0150066
-0.0150148
-0.0150456
-0.0150191
-0.0150199
-0.0150238
-0.0150579
-0.0150587
-0.0150552
-0.0150542
-0.0150547
-0.0150561
-0.0150571
-0.0150581
-0.0150589
-0.0150594
-0.0150601
-0.0150624
-0.0150653
-0.0150681
-0.0150711
-0.0150759
-0.0150859
-0.0150828
-0.0150802
-0.0150807
-0.0150809
-0.0150807
-0.0150798
-0.0150803
-0.0150956
-0.0150939
-0.0150952
-0.0150944
-0.0150943
-0.0150947
-0.0150936
-0.0150904
-0.0150776
-0.0149724
-0.0136682
0
0
0.00236648
0.005765
-0.00120502
-0.00835201
-0.0112054
-0.0126391
-0.0134454
-0.0139561
-0.0142728
-0.0144998
-0.0145729
-0.0146872
-0.0147813
-0.0148472
-0.0148947
-0.0149301
-0.0149598
-0.0149809
-0.0149957
-0.0150065
-0.0150139
-0.0150176
-0.0150135
-0.0149947
-0.0149588
-0.0151242
-0.0150866
-0.0150649
-0.0150576
-0.0150561
-0.0150566
-0.0150577
-0.0150589
-0.0150601
-0.0150614
-0.0150628
-0.0150646
-0.0150667
-0.0150687
-0.0150703
-0.0150697
-0.0150636
-0.015071
-0.0150771
-0.0150793
-0.0150805
-0.0150815
-0.0150827
-0.0150848
-0.0150894
-0.0150911
-0.0150924
-0.0150931
-0.0150935
-0.0150936
-0.0150927
-0.0151228
-0.0150803
-0.0149726
-0.0136677
0
0
0.00235428
0.00574902
-0.0012195
-0.00835788
-0.0112087
-0.0126397
-0.0134391
-0.0139124
-0.0142638
-0.0146124
-0.014507
-0.0146257
-0.0147707
-0.0148441
-0.0148918
-0.0149245
-0.0149649
-0.0149863
-0.0149974
-0.0150069
-0.0150117
-0.0150146
-0.0150024
-0.0149297
-0.0145594
-0.015525
-0.0151526
-0.0150772
-0.0150605
-0.015057
-0.0150571
-0.0150581
-0.0150595
-0.0150609
-0.0150624
-0.0150639
-0.0150655
-0.0150673
-0.0150689
-0.0150703
-0.0150708
-0.0150693
-0.0150733
-0.015076
-0.0150776
-0.0150789
-0.0150802
-0.0150818
-0.0150839
-0.0150865
-0.0150886
-0.0150903
-0.0150916
-0.0150923
-0.0150925
-0.0150918
-0.0150899
-0.0150802
-0.0149722
-0.0136671
0
0
0.00233235
0.00570542
-0.00126275
-0.00836191
-0.0112137
-0.0126424
-0.0134412
-0.0139251
-0.0142544
-0.0144957
-0.0145758
-0.0146884
-0.0147808
-0.0148427
-0.0150143
-0.0148926
-0.0149921
-0.0150078
-0.014999
-0.0150086
-0.0150127
-0.015014
-0.0150146
-0.0149961
-0.0149602
-0.0151253
-0.0150874
-0.0150657
-0.0150583
-0.0150567
-0.0150572
-0.0150584
-0.0150598
-0.0150613
-0.0150628
-0.0150644
-0.0150659
-0.0150674
-0.0150688
-0.01507
-0.0150709
-0.0150717
-0.0150731
-0.0150742
-0.015075
-0.0150759
-0.015077
-0.0150786
-0.0150807
-0.0150832
-0.0150857
-0.0150879
-0.0150897
-0.0150908
-0.0150913
-0.0150908
-0.0150891
-0.0150795
-0.0149716