# vtk DataFile Version 2.0
FlowField
ASCII
DATASET STRUCTURED_GRID
DIMENSIONS 62 47 32 
POINTS 93248 double
0 0 0
0.01 0 0
0.02 0 0
0.03 0 0
0.04 0 0
0.05 0 0
0.06 0 0
0.07 0 0
0.08 0 0
0.09 0 0
0.1 0 0
0.11 0 0
0.12 0 0
0.13 0 0
0.14 0 0
0.15 0 0
0.16 0 0
0.17 0 0
0.18 0 0
0.19 0 0
0.2 0 0
0.21 0 0
0.22 0 0
0.23 0 0
0.24 0 0
0.25 0 0
0.26 0 0
0.27 0 0
0.28 0 0
0.29 0 0
0.3 0 0
0.31 0 0
0.32 0 0
0.33 0 0
0.34 0 0
0.35 0 0
0.36 0 0
0.37 0 0
0.38 0 0
0.39 0 0
0.4 0 0
0.41 0 0
0.42 0 0
0.43 0 0
0.44 0 0
0.45 0 0
0.46 0 0
0.47 0 0
0.48 0 0
0.49 0 0
0.5 0 0
0.51 0 0
0.52 0 0
0.53 0 0
0.54 0 0
0.55 0 0
0.56 0 0
0.57 0 0
0.58 0 0
0.59 0 0
0.6 0 0
0.61 0 0
0 0.01 0
0.01 0.01 0
0.02 0.01 0
0.03 0.01 0
0.04 0.01 0
0.05 0.01 0
0.06 0.01 0
0.07 0.01 0
0.08 0.01 0
0.09 0.01 0
0.1 0.01 0
0.11 0.01 0
0.12 0.01 0
0.13 0.01 0
0.14 0.01 0
0.15 0.01 0
0.16 0.01 0
0.17 0.01 0
0.18 0.01 0
0.19 0.01 0
0.2 0.01 0
0.21 0.01 0
0.22 0.01 0
0.23 0.01 0
0.24 0.01 0
0.25 0.01 0
0.26 0.01 0
0.27 0.01 0
0.28 0.01 0
0.29 0.01 0
0.3 0.01 0
0.31 0.01 0
0.32 0.01 0
0.33 0.01 0
0.34 0.01 0
0.35 0.01 0
0.36 0.01 0
0.37 0.01 0
0.38 0.01 0
0.39 0.01 0
0.4 0.01 0
0.41 0.01 0
0.42 0.01 0
0.43 0.01 0
0.44 0.01 0
0.45 0.01 0
0.46 0.01 0
0.47 0.01 0
0.48 0.01 0
0.49 0.01 0
0.5 0.01 0
0.51 0.01 0
0.52 0.01 0
0.53 0.01 0
0.54 0.01 0
0.55 0.01 0
0.56 0.01 0
0.57 0.01 0
0.58 0.01 0
0.59 0.01 0
0.6 0.01 0
0.61 0.01 0
0 0.02 0
0.01 0.02 0
0.02 0.02 0
0.03 0.02 0
0.04 0.02 0
0.05 0.02 0
0.06 0.02 0
0.07 0.02 0
0.08 0.02 0
0.09 0.02 0
0.1 0.02 0
0.11 0.02 0
0.12 0.02 0
0.13 0.02 0
0.14 0.02 0
0.15 0.02 0
0.16 0.02 0
0.17 0.02 0
0.18 0.02 0
0.19 0.02 0
0.2 0.02 0
0.21 0.02 0
0.22 0.02 0
0.23 0.02 0
0.24 0.02 0
0.25 0.02 0
0.26 0.02 0
0.27 0.02 0
0.28 0.02 0
0.29 0.02 0
0.3 0.02 0
0.31 0.02 0
0.32 0.02 0
0.33 0.02 0
0.34 0.02 0
0.35 0.02 0
0.36 0.02 0
0.37 0.02 0
0.38 0.02 0
0.39 0.02 0
0.4 0.02 0
0.41 0.02 0
0.42 0.02 0
0.43 0.02 0
0.44 0.02 0
0.45 0.02 0
0.46 0.02 0
0.47 0.02 0
0.48 0.02 0
0.49 0.02 0
0.5 0.02 0
0.51 0.02 0
0.52 0.02 0
0.53 0.02 0
0.54 0.02 0
0.55 0.02 0
0.56 0.02 0
0.57 0.02 0
0.58 0.02 0
0.59 0.02 0
0.6 0.02 0
0.61 0.02 0
0 0.03 0
0.01 0.03 0
0.02 0.03 0
0.03 0.03 0
0.04 0.03 0
0.05 0.03 0
0.06 0.03 0
0.07 0.03 0
0.08 0.03 0
0.09 0.03 0
0.1 0.03 0
0.11 0.03 0
0.12 0.03 0
0.13 0.03 0
0.14 0.03 0
0.15 0.03 0
0.16 0.03 0
0.17 0.03 0
0.18 0.03 0
0.19 0.03 0
0.2 0.03 0
0.21 0.03 0
0.22 0.03 0
0.23 0.03 0
0.24 0.03 0
0.25 0.03 0
0.26 0.03 0
0.27 0.03 0
0.28 0.03 0
0.29 0.03 0
0.3 0.03 0
0.31 0.03 0
0.32 0.03 0
0.33 0.03 0
0.34 0.03 0
0.35 0.03 0
0.36 0.03 0
0.37 0.03 0
0.38 0.03 0
0.39 0.03 0
0.4 0.03 0
0.41 0.03 0
0.42 0.03 0
0.43 0.03 0
0.44 0.03 0
0.45 0.03 0
0.46 0.03 0
0.47 0.03 0
0.48 0.03 0
0.49 0.03 0
0.5 0.03 0
0.51 0.03 0
0.52 0.03 0
0.53 0.03 0
0.54 0.03 0
0.55 0.03 0
0.56 0.03 0
0.57 0.03 0
0.58 0.03 0
0.59 0.03 0
0.6 0.03 0
0.61 0.03 0
0 0.04 0
0.01 0.04 0
0.02 0.04 0
0.03 0.04 0
0.04 0.04 0
0.05 0.04 0
0.06 0.04 0
0.07 0.04 0
0.08 0.04 0
0.09 0.04 0
0.1 0.04 0
0.11 0.04 0
0.12 0.04 0
0.13 0.04 0
0.14 0.04 0
0.15 0.04 0
0.16 0.04 0
0.17 0.04 0
0.18 0.04 0
0.19 0.04 0
0.2 0.04 0
0.21 0.04 0
0.22 0.04 0
0.23 0.04 0
0.24 0.04 0
0.25 0.04 0
0.26 0.04 0
0.27 0.04 0
0.28 0.04 0
0.29 0.04 0
0.3 0.04 0
0.31 0.04 0
0.32 0.04 0
0.33 0.04 0
0.34 0.04 0
0.35 0.04 0
0.36 0.04 0
0.37 0.04 0
0.38 0.04 0
0.39 0.04 0
0.4 0.04 0
0.41 0.04 0
0.42 0.04 0
0.43 0.04 0
0.44 0.04 0
0.45 0.04 0
0.46 0.04 0
0.47 0.04 0
0.48 0.04 0
0.49 0.04 0
0.5 0.04 0
0.51 0.04 0
0.52 0.04 0
0.53 0.04 0
0.54 0.04 0
0.55 0.04 0
0.56 0.04 0
0.57 0.04 0
0.58 0.04 0
0.59 0.04 0
0.6 0.04 0
0.61 0.04 0
0 0.05 0
0.01 0.05 0
0.02 0.05 0
0.03 0.05 0
0.04 0.05 0
0.05 0.05 0
0.06 0.05 0
0.07 0.05 0
0.08 0.05 0
0.09 0.05 0
0.1 0.05 0
0.11 0.05 0
0.12 0.05 0
0.13 0.05 0
0.14 0.05 0
0.15 0.05 0
0.16 0.05 0
0.17 0.05 0
0.18 0.05 0
0.19 0.05 0
0.2 0.05 0
0.21 0.05 0
0.22 0.05 0
0.23 0.05 0
0.24 0.05 0
0.25 0.05 0
0.26 0.05 0
0.27 0.05 0
0.28 0.05 0
0.29 0.05 0
0.3 0.05 0
0.31 0.05 0
0.32 0.05 0
0.33 0.05 0
0.34 0.05 0
0.35 0.05 0
0.36 0.05 0
0.37 0.05 0
0.38 0.05 0
0.39 0.05 0
0.4 0.05 0
0.41 0.05 0
0.42 0.05 0
0.43 0.05 0
0.44 0.05 0
0.45 0.05 0
0.46 0.05 0
0.47 0.05 0
0.48 0.05 0
0.49 0.05 0
0.5 0.05 0
0.51 0.05 0
0.52 0.05 0
0.53 0.05 0
0.54 0.05 0
0.55 0.05 0
0.56 0.05 0
0.57 0.05 0
0.58 0.05 0
0.59 0.05 0
0.6 0.05 0
0.61 0.05 0
0 0.06 0
0.01 0.06 0
0.02 0.06 0
0.03 0.06 0
0.04 0.06 0
0.05 0.06 0
0.06 0.06 0
0.07 0.06 0
0.08 0.06 0
0.09 0.06 0
0.1 0.06 0
0.11 0.06 0
0.12 0.06 0
0.13 0.06 0
0.14 0.06 0
0.15 0.06 0
0.16 0.06 0
0.17 0.06 0
0.18 0.06 0
0.19 0.06 0
0.2 0.06 0
0.21 0.06 0
0.22 0.06 0
0.23 0.06 0
0.24 0.06 0
0.25 0.06 0
0.26 0.06 0
0.27 0.06 0
0.28 0.06 0
0.29 0.06 0
0.3 0.06 0
0.31 0.06 0
0.32 0.06 0
0.33 0.06 0
0.34 0.06 0
0.35 0.06 0
0.36 0.06 0
0.37 0.06 0
0.38 0.06 0
0.39 0.06 0
0.4 0.06 0
0.41 0.06 0
0.42 0.06 0
0.43 0.06 0
0.44 0.06 0
0.45 0.06 0
0.46 0.06 0
0.47 0.06 0
0.48 0.06 0
0.49 0.06 0
0.5 0.06 0
0.51 0.06 0
0.52 0.06 0
0.53 0.06 0
0.54 0.06 0
0.55 0.06 0
0.56 0.06 0
0.57 0.06 0
0.58 0.06 0
0.59 0.06 0
0.6 0.06 0
0.61 0.06 0
0 0.07 0
0.01 0.07 0
0.02 0.07 0
0.03 0.07 0
0.04 0.07 0
0.05 0.07 0
0.06 0.07 0
0.07 0.07 0
0.08 0.07 0
0.09 0.07 0
0.1 0.07 0
0.11 0.07 0
0.12 0.07 0
0.13 0.07 0
0.14 0.07 0
0.15 0.07 0
0.16 0.07 0
0.17 0.07 0
0.18 0.07 0
0.19 0.07 0
0.2 0.07 0
0.21 0.07 0
0.22 0.07 0
0.23 0.07 0
0.24 0.07 0
0.25 0.07 0
0.26 0.07 0
0.27 0.07 0
0.28 0.07 0
0.29 0.07 0
0.3 0.07 0
0.31 0.07 0
0.32 0.07 0
0.33 0.07 0
0.34 0.07 0
0.35 0.07 0
0.36 0.07 0
0.37 0.07 0
0.38 0.07 0
0.39 0.07 0
0.4 0.07 0
0.41 0.07 0
0.42 0.07 0
0.43 0.07 0
0.44 0.07 0
0.45 0.07 0
0.46 0.07 0
0.47 0.07 0
0.48 0.07 0
0.49 0.07 0
0.5 0.07 0
0.51 0.07 0
0.52 0.07 0
0.53 0.07 0
0.54 0.07 0
0.55 0.07 0
0.56 0.07 0
0.57 0.07 0
0.58 0.07 0
0.59 0.07 0
0.6 0.07 0
0.61 0.07 0
0 0.08 0
0.01 0.08 0
0.02 0.08 0
0.03 0.08 0
0.04 0.08 0
0.05 0.08 0
0.06 0.08 0
0.07 0.08 0
0.08 0.08 0
0.09 0.08 0
0.1 0.08 0
0.11 0.08 0
0.12 0.08 0
0.13 0.08 0
0.14 0.08 0
0.15 0.08 0
0.16 0.08 0
0.17 0.08 0
0.18 0.08 0
0.19 0.08 0
0.2 0.08 0
0.21 0.08 0
0.22 0.08 0
0.23 0.08 0
0.24 0.08 0
0.25 0.08 0
0.26 0.08 0
0.27 0.08 0
0.28 0.08 0
0.29 0.08 0
0.3 0.08 0
0.31 0.08 0
0.32 0.08 0
0.33 0.08 0
0.34 0.08 0
0.35 0.08 0
0.36 0.08 0
0.37 0.08 0
0.38 0.08 0
0.39 0.08 0
0.4 0.08 0
0.41 0.08 0
0.42 0.08 0
0.43 0.08 0
0.44 0.08 0
0.45 0.08 0
0.46 0.08 0
0.47 0.08 0
0.48 0.08 0
0.49 0.08 0
0.5 0.08 0
0.51 0.08 0
0.52 0.08 0
0.53 0.08 0
0.54 0.08 0
0.55 0.08 0
0.56 0.08 0
0.57 0.08 0
0.58 0.08 0
0.59 0.08 0
0.6 0.08 0
0.61 0.08 0
0 0.09 0
0.01 0.09 0
0.02 0.09 0
0.03 0.09 0
0.04 0.09 0
0.05 0.09 0
0.06 0.09 0
0.07 0.09 0
0.08 0.09 0
0.09 0.09 0
0.1 0.09 0
0.11 0.09 0
0.12 0.09 0
0.13 0.09 0
0.14 0.09 0
0.15 0.09 0
0.16 0.09 0
0.17 0.09 0
0.18 0.09 0
0.19 0.09 0
0.2 0.09 0
0.21 0.09 0
0.22 0.09 0
0.23 0.09 0
0.24 0.09 0
0.25 0.09 0
0.26 0.09 0
0.27 0.09 0
0.28 0.09 0
0.29 0.09 0
0.3 0.09 0
0.31 0.09 0
0.32 0.09 0
0.33 0.09 0
0.34 0.09 0
0.35 0.09 0
0.36 0.09 0
0.37 0.09 0
0.38 0.09 0
0.39 0.09 0
0.4 0.09 0
0.41 0.09 0
0.42 0.09 0
0.43 0.09 0
0.44 0.09 0
0.45 0.09 0
0.46 0.09 0
0.47 0.09 0
0.48 0.09 0
0.49 0.09 0
0.5 0.09 0
0.51 0.09 0
0.52 0.09 0
0.53 0.09 0
0.54 0.09 0
0.55 0.09 0
0.56 0.09 0
0.57 0.09 0
0.58 0.09 0
0.59 0.09 0
0.6 0.09 0
0.61 0.09 0
0 0.1 0
0.01 0.1 0
0.02 0.1 0
0.03 0.1 0
0.04 0.1 0
0.05 0.1 0
0.06 0.1 0
0.07 0.1 0
0.08 0.1 0
0.09 0.1 0
0.1 0.1 0
0.11 0.1 0
0.12 0.1 0
0.13 0.1 0
0.14 0.1 0
0.15 0.1 0
0.16 0.1 0
0.17 0.1 0
0.18 0.1 0
0.19 0.1 0
0.2 0.1 0
0.21 0.1 0
0.22 0.1 0
0.23 0.1 0
0.24 0.1 0
0.25 0.1 0
0.26 0.1 0
0.27 0.1 0
0.28 0.1 0
0.29 0.1 0
0.3 0.1 0
0.31 0.1 0
0.32 0.1 0
0.33 0.1 0
0.34 0.1 0
0.35 0.1 0
0.36 0.1 0
0.37 0.1 0
0.38 0.1 0
0.39 0.1 0
0.4 0.1 0
0.41 0.1 0
0.42 0.1 0
0.43 0.1 0
0.44 0.1 0
0.45 0.1 0
0.46 0.1 0
0.47 0.1 0
0.48 0.1 0
0.49 0.1 0
0.5 0.1 0
0.51 0.1 0
0.52 0.1 0
0.53 0.1 0
0.54 0.1 0
0.55 0.1 0
0.56 0.1 0
0.57 0.1 0
0.58 0.1 0
0.59 0.1 0
0.6 0.1 0
0.61 0.1 0
0 0.11 0
0.01 0.11 0
0.02 0.11 0
0.03 0.11 0
0.04 0.11 0
0.05 0.11 0
0.06 0.11 0
0.07 0.11 0
0.08 0.11 0
0.09 0.11 0
0.1 0.11 0
0.11 0.11 0
0.12 0.11 0
0.13 0.11 0
0.14 0.11 0
0.15 0.11 0
0.16 0.11 0
0.17 0.11 0
0.18 0.11 0
0.19 0.11 0
0.2 0.11 0
0.21 0.11 0
0.22 0.11 0
0.23 0.11 0
0.24 0.11 0
0.25 0.11 0
0.26 0.11 0
0.27 0.11 0
0.28 0.11 0
0.29 0.11 0
0.3 0.11 0
0.31 0.11 0
0.32 0.11 0
0.33 0.11 0
0.34 0.11 0
0.35 0.11 0
0.36 0.11 0
0.37 0.11 0
0.38 0.11 0
0.39 0.11 0
0.4 0.11 0
0.41 0.11 0
0.42 0.11 0
0.43 0.11 0
0.44 0.11 0
0.45 0.11 0
0.46 0.11 0
0.47 0.11 0
0.48 0.11 0
0.49 0.11 0
0.5 0.11 0
0.51 0.11 0
0.52 0.11 0
0.53 0.11 0
0.54 0.11 0
0.55 0.11 0
0.56 0.11 0
0.57 0.11 0
0.58 0.11 0
0.59 0.11 0
0.6 0.11 0
0.61 0.11 0
0 0.12 0
0.01 0.12 0
0.02 0.12 0
0.03 0.12 0
0.04 0.12 0
0.05 0.12 0
0.06 0.12 0
0.07 0.12 0
0.08 0.12 0
0.09 0.12 0
0.1 0.12 0
0.11 0.12 0
0.12 0.12 0
0.13 0.12 0
0.14 0.12 0
0.15 0.12 0
0.16 0.12 0
0.17 0.12 0
0.18 0.12 0
0.19 0.12 0
0.2 0.12 0
0.21 0.12 0
0.22 0.12 0
0.23 0.12 0
0.24 0.12 0
0.25 0.12 0
0.26 0.12 0
0.27 0.12 0
0.28 0.12 0
0.29 0.12 0
0.3 0.12 0
0.31 0.12 0
0.32 0.12 0
0.33 0.12 0
0.34 0.12 0
0.35 0.12 0
0.36 0.12 0
0.37 0.12 0
0.38 0.12 0
0.39 0.12 0
0.4 0.12 0
0.41 0.12 0
0.42 0.12 0
0.43 0.12 0
0.44 0.12 0
0.45 0.12 0
0.46 0.12 0
0.47 0.12 0
0.48 0.12 0
0.49 0.12 0
0.5 0.12 0
0.51 0.12 0
0.52 0.12 0
0.53 0.12 0
0.54 0.12 0
0.55 0.12 0
0.56 0.12 0
0.57 0.12 0
0.58 0.12 0
0.59 0.12 0
0.6 0.12 0
0.61 0.12 0
0 0.13 0
0.01 0.13 0
0.02 0.13 0
0.03 0.13 0
0.04 0.13 0
0.05 0.13 0
0.06 0.13 0
0.07 0.13 0
0.08 0.13 0
0.09 0.13 0
0.1 0.13 0
0.11 0.13 0
0.12 0.13 0
0.13 0.13 0
0.14 0.13 0
0.15 0.13 0
0.16 0.13 0
0.17 0.13 0
0.18 0.13 0
0.19 0.13 0
0.2 0.13 0
0.21 0.13 0
0.22 0.13 0
0.23 0.13 0
0.24 0.13 0
0.25 0.13 0
0.26 0.13 0
0.27 0.13 0
0.28 0.13 0
0.29 0.13 0
0.3 0.13 0
0.31 0.13 0
0.32 0.13 0
0.33 0.13 0
0.34 0.13 0
0.35 0.13 0
0.36 0.13 0
0.37 0.13 0
0.38 0.13 0
0.39 0.13 0
0.4 0.13 0
0.41 0.13 0
0.42 0.13 0
0.43 0.13 0
0.44 0.13 0
0.45 0.13 0
0.46 0.13 0
0.47 0.13 0
0.48 0.13 0
[...]
POINT_DATA 93248

SCALARS w double
LOOKUP_TABLE default
0
0
0
0
0
0
0
0
0
0
0
0
0
-0.0775278
0
0
0
0
0
0
0
0
0
0
0
0
-0.166424
0
0
0
0
0
-0.163606
0
0
0
0
0
0
0
0
0
0
0
0
0
-0.147441
0
0
0
0
0
0
0
0
0
0
0
0
0
0
0
0
-0.0200632
-0.0403013
-0.0547755
-0.0633165
-0.0677978
-0.0709215
-0.0732611
-0.0748675
-0.0758295
-0.076046
-0.0753379
-0.0737669
-0.0738236
-0.0744625
-0.0751097
-0.0756017
-0.0761473
-0.0763799
-0.07543
-0.0697045
-0.0697286
-0.0719686
-0.0713386
-0.0707722
-0.0703847
-0.0700515
-0.0697199
-0.0693766
-0.0690038
-0.0685405
-0.0678472
-0.066893
-0.0670696
-0.0671404
-0.0663365
-0.0651819
-0.0662426
-0.0680951
-0.0718285
-0.064149
-0.066239
-0.0687679
-0.0704996
-0.073159
-0.157963
-0.0685226
-0.0675883
-0.0676323
-0.0686417
-0.0696909
-0.0710798
-0.0708103
-0.0730936
-0.158351
-0.0718312
-0.0671724
-0.0664761
-0.0668297
-0.0658751
-0.0618321
0
0
-0.0237927
-0.057428
-0.0782439
-0.0937622
-0.105234
-0.117782
-0.127945
-0.13577
-0.141545
-0.145408
-0.147002
-0.146028
-0.14702
-0.147774
-0.148313
-0.148693
-0.149543
-0.150326
-0.151193
-0.140131
-0.141445
-0.181701
-0.142887
-0.140856
-0.139855
-0.139126
-0.138472
-0.137841
-0.137211
-0.13655
-0.135709
-0.134235
-0.134752
-0.134787
-0.133599
-0.133771
-0.132926
-0.133146
-0.137361
-0.134907
-0.136383
-0.137706
-0.139137
-0.14228
-0.146479
-0.143143
-0.138476
-0.137128
-0.137216
-0.138444
-0.158879
-0.140391
-0.142228
-0.145734
-0.142006
-0.139502
-0.134906
-0.132981
-0.128923
-0.120075
0
0
-0.0236171
-0.0574635
-0.0805622
-0.0986269
-0.0677978
-0.126435
-0.14091
-0.152375
-0.161767
-0.169491
-0.174439
-0.179618
-0.17963
-0.179008
-0.178219
-0.17802
-0.178809
-0.178828
-0.179555
-0.178154
-0.174735
-0.174149
-0.171491
-0.169581
-0.16826
-0.167245
-0.166382
-0.165605
-0.164909
-0.164366
-0.164255
-0.165236
-0.171846
-0.163732
-0.160372
-0.160179
-0.159925
-0.160184
-0.162142
-0.162361
-0.163346
-0.164753
-0.16473
-0.166912
-0.169147
-0.166865
-0.165044
-0.163885
-0.164408
-0.164913
-0.166204
-0.166247
-0.167145
-0.168165
-0.167796
-0.16728
-0.166097
-0.161079
-0.154683
-0.143539
0
0
-0.0231262
-0.0562334
-0.0570868
-0.0996189
-0.115586
-0.131392
-0.144887
-0.156498
-0.166512
-0.175
-0.181506
-0.186494
-0.188576
-0.188757
-0.187564
-0.186689
-0.184972
-0.185311
-0.186046
-0.184601
-0.182952
-0.181433
-0.179719
-0.178167
-0.176854
-0.175741
-0.174772
-0.173913
-0.173167
-0.172576
-0.172235
-0.172137
-0.171482
-0.17062
-0.16899
-0.16835
-0.168086
-0.167673
-0.168939
-0.169569
-0.170288
-0.171069
-0.171322
-0.172224
-0.173137
-0.172868
-0.171726
-0.17104
-0.171222
-0.171511
-0.171967
-0.172353
-0.172865
-0.173374
-0.173762
-0.173748
-0.172608
-0.168734
-0.162153
-0.150321
0
0
-0.0229914
-0.0563275
-0.0810331
-0.101871
-0.118895
-0.133821
-0.146698
-0.157905
-0.167692
-0.175979
-0.182546
-0.187256
-0.189804
-0.190227
-0.170124
-0.18769
-0.18685
-0.186062
-0.185644
-0.184463
-0.183114
-0.181701
-0.18028
-0.178928
-0.177688
-0.176579
-0.17558
-0.17468
-0.173886
-0.173202
-0.172589
-0.171846
-0.170577
-0.170157
-0.169658
-0.169268
-0.169017
-0.168934
-0.169177
-0.169532
-0.169942
-0.170332
-0.170564
-0.170884
-0.171324
-0.172202
-0.17081
-0.170446
-0.170578
-0.170835
-0.171153
-0.171539
-0.171989
-0.172463
-0.172899
-0.172906
-0.171722
-0.168206
-0.161626
-0.149983
0
0
-0.022936
-0.0563455
-0.0819597
-0.102748
-0.120156
-0.135193
-0.147676
-0.158563
-0.168164
-0.176172
-0.182405
-0.186745
-0.189212
-0.189764
-0.188435
-0.187212
-0.186158
-0.180918
-0.184099
-0.18294
-0.181572
-0.180169
-0.178804
-0.1775
-0.176277
-0.1752
-0.174198
-0.173279
-0.172459
-0.171739
-0.171056
-0.170172
-0.168351
-0.168614
-0.168524
-0.168201
-0.167882
-0.167673
-0.16762
-0.167692
-0.167833
-0.167976
-0.168006
-0.167916
-0.167405
-0.165957
-0.166894
-0.167581
-0.16803
-0.168372
-0.168703
-0.169108
-0.169614
-0.170132
-0.170526
-0.17041
-0.168875
-0.164374
-0.155894
-0.146233
0
0
-0.0228796
-0.0562422
-0.082012
-0.10289
-0.120544
-0.136161
-0.147883
-0.159077
-0.168549
-0.176242
-0.18202
-0.185826
-0.188181
-0.188715
-0.18757
-0.185193
-0.184745
-0.184077
-0.183019
-0.181613
-0.180062
-0.178581
-0.177181
-0.175844
-0.174568
-0.173571
-0.172565
-0.171626
-0.170809
-0.170139
-0.169641
-0.16956
-0.170727
-0.169235
-0.167964
-0.167091
-0.166498
-0.166111
-0.165883
-0.165774
-0.165746
-0.165752
-0.165607
-0.165441
-0.165064
-0.16454
-0.164847
-0.165308
-0.165698
-0.166013
-0.166326
-0.166757
-0.167392
-0.167991
-0.168387
-0.168186
-0.166137
-0.158655
-0.0658751
-0.141639
0
0
-0.0228148
-0.056074
-0.0818029
-0.102659
-0.120287
-0.13555
-0.148162
-0.159213
-0.168548
-0.175969
-0.181211
-0.183826
-0.186711
-0.187385
-0.185957
-0.181592
-0.164517
-0.183189
-0.182198
-0.180557
-0.178785
-0.177252
-0.175826
-0.174424
-0.17299
-0.172214
-0.171149
-0.170182
-0.16939
-0.168805
-0.168374
-0.168159
-0.168203
-0.167438
-0.166511
-0.165713
-0.16509
-0.164641
-0.164338
-0.164143
-0.164022
-0.163934
-0.163807
-0.163674
-0.163511
-0.163391
-0.163492
-0.16371
-0.16394
-0.164146
-0.164374
-0.164781
-0.165686
-0.166412
-0.166896
-0.166972
-0.166034
-0.162544
-0.152005
-0.143037
0
0
-0.0227487
-0.0558884
-0.0815227
-0.102301
-0.119852
-0.134964
-0.14791
-0.159035
-0.168318
-0.175512
-0.179935
-0.146028
-0.184173
-0.186029
-0.185358
-0.18307
-0.18255
-0.182192
-0.181039
-0.179469
-0.177579
-0.176178
-0.174762
-0.173308
-0.17182
-0.170808
-0.169799
-0.168884
-0.168175
-0.167749
-0.16733
-0.166855
-0.166323
-0.16564
-0.164928
-0.164293
-0.163732
-0.163304
-0.163
-0.162788
-0.162639
-0.162528
-0.162435
-0.162362
-0.162314
-0.162317
-0.162387
-0.162504
-0.162625
-0.162715
-0.16279
-0.161831
-0.164499
-0.165344
-0.165877
-0.166095
-0.1655
-0.162826
-0.155956
-0.143594
0
0
-0.0226877
-0.0557135
-0.0812477
-0.101935
-0.119418
-0.134482
-0.147524
-0.158722
-0.16804
-0.175273
-0.180089
-0.181987
-0.184735
-0.185789
-0.185438
-0.184062
-0.182797
-0.181515
-0.180067
-0.17857
-0.177391
-0.175667
-0.173987
-0.172351
-0.168161
-0.169581
-0.168574
-0.167668
-0.16703
-0.166879
-0.166491
-0.165732
-0.16488
-0.164123
-0.163491
-0.162991
-0.162473
-0.162086
-0.161825
-0.161638
-0.161498
-0.161397
-0.161339
-0.161316
-0.161327
-0.161375
-0.161454
-0.16155
-0.161635
-0.161667
-0.161663
-0.161831
-0.163891
-0.164596
-0.165102
-0.165373
-0.164895
-0.1625
-0.156425
-0.143702
0
0
-0.0226357
-0.0555639
-0.0810119
-0.101617
-0.119057
-0.134106
-0.147178
-0.158425
-0.167806
-0.175163
-0.180368
-0.183526
-0.185379
-0.18598
-0.185814
-0.184444
-0.182728
-0.180964
-0.179216
-0.177557
-0.176133
-0.174578
-0.173005
-0.171442
-0.169866
-0.168592
-0.167408
-0.166388
-0.165617
-0.165284
-0.165692
-0.164251
-0.163233
-0.162567
-0.162082
-0.161703
-0.161382
-0.160975
-0.160776
-0.160629
-0.160508
-0.160412
-0.160404
-0.160433
-0.160489
-0.16057
-0.160675
-0.160801
-0.160924
-0.161
-0.161126
-0.161575
-0.162873
-0.163733
-0.16436
-0.164722
-0.164331
-0.162058
-0.156174
-0.143531
0
0
-0.0225944
-0.0554467
-0.0808405
-0.10146
-0.118844
-0.13385
-0.146917
-0.158187
-0.167615
-0.175058
-0.180427
-0.183806
-0.185484
-0.185909
-0.186029
-0.184153
-0.182128
-0.180171
-0.17827
-0.176544
-0.175012
-0.173527
-0.172047
-0.170553
-0.169045
-0.167566
-0.166129
-0.164824
-0.163547
-0.162408
-0.160205
-0.160562
-0.160809
-0.160807
-0.160669
-0.160473
-0.16026
-0.16001
-0.159841
-0.159713
-0.159578
-0.159389
-0.159522
-0.159645
-0.159757
-0.159879
-0.160026
-0.160216
-0.160435
-0.160569
-0.1608
-0.161297
-0.162141
-0.162956
-0.163669
-0.164132
-0.163839
-0.161645
-0.155841
-0.143266
0
0
-0.0225621
-0.0553551
-0.080704
-0.101303
-0.118634
-0.133619
-0.146688
-0.157978
-0.167438
-0.174926
-0.180338
-0.183708
-0.185226
-0.185108
-0.18308
-0.182085
-0.180747
-0.179069
-0.177151
-0.175506
-0.174062
-0.172671
-0.171249
-0.169757
-0.168161
-0.166425
-0.164532
-0.162515
-0.159691
-0.159121
-0.158716
-0.158958
-0.159265
-0.159437
-0.159461
-0.159379
-0.159254
-0.159059
-0.15892
-0.158809
-0.158603
-0.153873
-0.158593
-0.158912
-0.159104
-0.159272
-0.159461
-0.15972
-0.16008
-0.160188
-0.160451
-0.160951
-0.161648
-0.162385
-0.163118
-0.163658
-0.16348
-0.161312
-0.155543
-0.142989
0
0
-0.0225377
-0.0552871
-0.0806142
-0.102659
-0.118513
-0.133435
-0.146493
-0.157793
-0.167274
-0.174789
-0.180207
-0.183544
-0.184994
-0.184865
-0.183517
-0.182043
-0.1804
-0.178498
-0.176141
-0.174678
-0.173435
-0.17214
-0.170723
-0.169154
-0.167365
-0.165201
-0.162347
-0.157998
-0.1473
-0.151591
-0.154869
-0.156713
-0.15772
-0.158223
-0.158404
-0.158393
-0.159349
-0.158051
-0.157869
-0.157807
-0.157764
-0.157656
-0.157985
-0.158278
-0.158516
-0.158719
-0.158918
-0.159178
-0.159657
-0.159653
-0.159987
-0.160588
-0.161381
-0.162025
-0.162745
-0.163343
-0.164374
-0.161083
-0.155297
-0.142725
0
0
-0.022519
-0.0552324
-0.0804969
-0.101014
-0.118286
-0.133243
-0.146314
-0.157627
-0.16712
-0.174643
-0.180063
-0.183391
-0.184837
-0.184784
-0.183719
-0.182182
-0.180419
-0.178406
-0.175489
-0.174593
-0.17349
-0.17211
-0.170552
-0.168818
-0.166788
-0.164108
-0.159627
-0.148119
0.0732411
-0.136226
-0.149326
-0.154272
-0.156366
-0.157251
-0.157516
-0.157418
-0.157116
-0.156626
-0.156195
-0.156251
-0.156536
-0.15688
-0.157278
-0.157648
-0.157963
-0.158202
-0.158357
-0.15836
-0.15809
-0.158671
-0.159388
-0.160274
-0.164499
-0.161886
-0.162573
-0.163081
-0.16297
-0.160846
-0.155089
-0.142469
0
0
-0.0225075
-0.0552142
-0.080417
-0.100832
-0.118104
-0.133075
-0.146166
-0.15749
-0.166991
-0.174522
-0.17996
-0.183293
-0.184739
-0.18471
-0.18371
-0.182204
-0.180551
-0.179166
-0.179126
-0.176756
-0.174502
-0.172507
-0.170628
-0.168713
-0.166573
-0.163877
-0.159909
-0.153045
-0.14097
-0.147095
-0.152089
-0.154926
-0.156351
-0.156917
-0.156923
-0.156485
-0.155611
-0.1542
-0.152221
-0.152986
-0.154292
-0.155425
-0.156292
-0.156939
-0.157426
-0.157743
-0.15794
-0.157974
-0.157945
-0.158161
-0.158916
-0.159857
-0.160905
-0.161737
-0.162815
-0.162994
-0.162767
-0.160681
-0.154924
-0.142203
0
0
-0.0224879
-0.055212
-0.0803182
-0.100652
-0.117916
-0.132942
-0.146075
-0.157404
-0.166902
-0.174449
-0.179939
-0.183279
-0.184688
-0.18461
-0.183579
-0.182065
-0.18042
-0.178925
-0.177785
-0.176061
-0.174183
-0.17233
-0.170506
-0.168642
-0.166631
-0.164323
-0.161522
-0.157887
-0.15453
-0.154725
-0.155779
-0.156626
-0.15703
-0.156997
-0.156556
-0.155556
-0.153574
-0.149251
-0.139223
-0.145469
-0.150428
-0.153383
-0.155127
-0.156204
-0.156924
-0.157351
-0.157645
-0.157809
-0.157796
-0.157668
-0.158608
-0.159596
-0.160576
-0.16186
-0.173762
-0.163135
-0.162741
-0.160586
-0.154791
-0.141814
0
0
-0.0223962
-0.0547621
-0.0798955
-0.1003
-0.117669
-0.134482
-0.146136
-0.157391
-0.166845
-0.174415
-0.180044
-0.183353
-0.184638
-0.184417
-0.18329
-0.181739
-0.180051
-0.17838
-0.176824
-0.175232
-0.173608
-0.17197
-0.170311
-0.168605
-0.166818
-0.164945
-0.163072
-0.160459
-0.158496
-0.158062
-0.158067
-0.158014
-0.157744
-0.157205
-0.156373
-0.154791
-0.151281
-0.14023
0.0763787
-0.131432
-0.145941
-0.151615
-0.154248
-0.155642
-0.156431
-0.15703
-0.157465
-0.157792
-0.157929
-0.157543
-0.158788
-0.159641
-0.160415
-0.161385
-0.162603
-0.16249
-0.162671
-0.160447
-0.154559
-0.141588
0
0
-0.0223838
-0.0547821
-0.0798376
-0.100118
-0.117514
-0.132947
-0.146076
-0.157282
-0.166694
-0.174319
-0.180289
-0.183398
-0.184421
-0.183956
-0.182722
-0.181192
-0.179525
-0.177762
-0.176177
-0.17469
-0.173221
-0.171732
-0.17021
-0.168642
-0.167021
-0.165364
-0.163711
-0.162015
-0.16002
-0.159888
-0.159603
-0.159066
-0.158352
-0.157455
-0.156471
-0.154797
-0.151806
-0.145845
-0.134492
-0.142098
-0.148676
-0.152299
-0.154357
-0.155574
-0.156345
-0.156928
-0.157435
-0.158014
-0.158957
-0.16067
-0.160081
-0.159985
-0.160321
-0.160939
-0.161676
-0.162153
-0.162173
-0.160091
-0.154253
-0.141283
0
0
-0.0223933
-0.0548293
-0.0798381
-0.0999553
-0.117412
-0.133155
-0.145923
-0.156931
-0.166273
-0.173894
-0.180309
-0.182851
-0.183659
-0.182977
-0.181767
-0.180477
-0.178983
-0.177142
-0.175759
-0.17446
-0.173115
-0.171713
-0.170266
-0.168769
-0.167205
-0.165537
-0.16365
-0.163261
-0.163946
-0.162499
-0.161103
-0.159911
-0.158822
-0.157764
-0.156704
-0.155359
-0.153546
-0.151233
-0.14912
-0.150241
-0.152243
-0.153873
-0.155054
-0.155852
-0.156436
-0.156938
-0.157416
-0.157974
-0.158727
-0.159604
-0.159748
-0.15985
-0.160136
-0.160655
-0.161364
-0.16196
-0.161888
-0.159877
-0.154137
-0.141472
0
0
-0.0224058
-0.054874
-0.0799499
-0.10047
-0.117411
-0.131316
-0.144509
-0.155977
-0.165462
-0.172629
-0.176469
-0.180339
-0.182237
-0.181562
-0.18069
-0.180004
-0.178849
-0.176918
-0.175927
-0.174729
-0.173359
-0.171928
-0.170481
-0.168987
-0.167376
-0.165358
-0.14448
-0.162671
-0.163112
-0.162351
-0.161227
-0.160029
-0.15885
-0.157741
-0.156806
-0.15588
-0.154944
-0.154133
-0.153764
-0.15398
-0.15456
-0.155236
-0.155921
-0.156274
-0.156601
-0.157001
-0.157384
-0.157812
-0.158331
-0.158879
-0.159272
-0.159568
-0.15989
-0.160416
-0.161241
-0.161885
-0.161815
-0.159844
-0.154135
-0.141573
0
0
-0.0224124
-0.0548872
-0.0799464
-0.100291
-0.117328
-0.131806
-0.144708
-0.15592
-0.16523
-0.172352
-0.177304
-0.180833
-0.182787
-0.180793
-0.181117
-0.180745
-0.179886
-0.179439
-0.177502
-0.175586
-0.173848
-0.172261
-0.170791
-0.169292
-0.167705
-0.165942
-0.16381
-0.163381
-0.162893
-0.16207
-0.160992
-0.159736
-0.15833
-0.156823
-0.156235
-0.155805
-0.15553
-0.155366
-0.15537
-0.155507
-0.155768
-0.156195
-0.160433
-0.156735
-0.15674
-0.157103
-0.157365
-0.157664
-0.158067
-0.158574
-0.159042
-0.159389
-0.15965
-0.160139
-0.161216
-0.161891
-0.161872
-0.159959
-0.154183
-0.141607
0
0
-0.0224168
-0.0548918
-0.0799354
-0.100225
-0.117351
-0.132128
-0.145075
-0.156123
-0.16518
-0.171802
-0.177635
-0.181488
-0.183913
-0.186188
-0.184635
-0.182712
-0.180939
-0.17936
-0.177521
-0.175684
-0.17397
-0.172432
-0.171095
-0.169614
-0.168055
-0.166514
-0.165092
-0.164047
-0.163107
-0.162048
-0.160799
-0.15921
-0.156888
-0.152821
-0.15401
-0.154501
-0.155271
-0.155693
-0.155949
-0.156146
-0.156356
-0.156624
-0.15694
-0.156835
-0.156711
-0.157245
-0.157345
-0.15753
-0.157887
-0.158495
-0.159048
-0.159364
-0.159437
-0.159763
-0.161273
-0.161885
-0.161964
-0.160208
-0.154241
-0.141557
0
0
-0.0224229
-0.0549023
-0.0799467
-0.100245
-0.117449
-0.132415
-0.145699
-0.156476
-0.164993
-0.148354
-0.176951
-0.181622
-0.183976
-0.185026
-0.184292
-0.182814
-0.181222
-0.179256
-0.177352
-0.175555
-0.173902
-0.172472
-0.171427
-0.169843
-0.168222
-0.166752
-0.165472
-0.16435
-0.16333
-0.16214
-0.160739
-0.158631
-0.154033
-0.0671404
-0.149179
-0.139587
-0.154421
-0.155697
-0.156203
-0.156476
-0.156694
-0.156905
-0.156992
-0.156948
-0.156908
-0.15709
-0.157192
-0.157337
-0.157664
-0.158526
-0.159452
-0.159161
-0.159279
-0.159783
-0.160817
-0.161588
-0.161888
-0.16054
-0.154191
-0.141373
0
0
-0.022432
-0.0549215
-0.0799757
-0.100297
-0.11758
-0.132834
-0.157978
-0.157377
-0.165869
-0.172041
-0.178077
-0.181995
-0.183965
-0.184425
-0.18377
-0.182623
-0.185616
-0.179363
-0.177259
-0.17543
-0.173762
-0.172325
-0.171544
-0.169614
-0.167973
-0.16664
-0.165497
-0.164513
-0.163421
-0.162317
-0.161149
-0.15913
-0.156014
-0.15079
-0.152864
-0.153999
-0.15538
-0.156146
-0.156528
-0.156752
-0.156971
-0.157222
-0.157184
-0.157055
-0.156973
-0.156988
-0.157031
-0.157094
-0.157234
-0.158246
-0.159487
-0.158621
-0.158981
-0.159603
-0.160379
-0.161025
-0.161235
-0.160364
-0.153666
-0.141007
0
0
-0.0224442
-0.054949
-0.080013
-0.100339
-0.117613
-0.132748
-0.146383
-0.157503
-0.166601
-0.173669
-0.17899
-0.182385
-0.184001
-0.1842
-0.183439
-0.182199
-0.180913
-0.178971
-0.177078
-0.175287
-0.173541
-0.171665
-0.16898
-0.168104
-0.16724
-0.166343
-0.165383
-0.164286
-0.163426
-0.162671
-0.168374
-0.160318
-0.158392
-0.156759
-0.156459
-0.156498
-0.156698
-0.15685
-0.156931
-0.157007
-0.157195
-0.157585
-0.157317
-0.157051
-0.156919
-0.156888
-0.156903
-0.156918
-0.156878
-0.156679
-0.155568
-0.157746
-0.158634
-0.159332
-0.159964
-0.160227
-0.159263
-0.155636
-0.15197
-0.140574
0
0
-0.0224615
-0.0549898
-0.0800635
-0.100377
-0.117609
-0.132626
-0.145931
-0.157766
-0.16699
-0.174075
-0.179192
-0.1824
-0.183886
-0.183994
-0.183149
-0.181773
-0.180253
-0.178603
-0.176918
-0.175221
-0.173504
-0.172047
-0.169796
-0.168552
-0.16739
-0.166518
-0.165616
-0.164645
-0.163732
-0.1629
-0.162215
-0.160925
-0.159745
-0.158845
-0.158257
-0.157877
-0.157621
-0.157424
-0.157261
-0.157143
-0.157171
-0.157667
-0.157067
-0.156803
-0.156746
-0.156765
-0.156806
-0.156841
-0.156837
-0.156756
-0.156669
-0.157592
-0.158403
-0.15912
-0.159761
-0.160111
-0.159585
-0.157092
-0.152192
-0.140488
0
0
-0.0224901
-0.0550623
-0.0801518
-0.100436
-0.117607
-0.132518
-0.145714
-0.157991
-0.166698
-0.173624
-0.178777
-0.182062
-0.183612
-0.183751
-0.182882
-0.181393
-0.179987
-0.178539
-0.176988
-0.175335
-0.173602
-0.171973
-0.170387
-0.168971
-0.167591
-0.166947
-0.166067
-0.16507
-0.164084
-0.163146
-0.162243
-0.1613
-0.160431
-0.159703
-0.159099
-0.158597
-0.158174
-0.157806
-0.157467
-0.1571
-0.156528
-0.155368
-0.155914
-0.156313
-0.156529
-0.156654
-0.156745
-0.156826
-0.156913
-0.157033
-0.15727
-0.157759
-0.158363
-0.159031
-0.159729
-0.160311
-0.162058
-0.158046
-0.152617
-0.140575
0
0
-0.0225474
-0.0552162
-0.0803375
-0.10055
-0.117632
-0.132357
-0.144923
-0.154478
-0.164327
-0.172301
-0.178051
-0.181656
-0.183378
-0.183604
-0.18278
-0.180975
-0.179994
-0.178818
-0.177352
-0.175662
-0.173799
-0.172253
-0.170805
-0.169339
-0.167668
-0.167623
-0.166592
-0.165469
-0.164398
-0.163404
-0.162479
-0.161623
-0.160854
-0.160176
-0.159573
-0.159027
-0.158529
-0.158067
-0.157626
-0.157176
-0.156669
-0.156144
-0.156186
-0.156364
-0.156519
-0.156633
-0.156729
-0.156832
-0.156968
-0.157163
-0.157447
-0.15784
-0.158351
-0.158982
-0.159708
-0.160342
-0.160333
-0.158298
-0.152838
-0.14068
0
0
-0.0226774
-0.0555951
-0.0807506
-0.100772
-0.117784
-0.132442
-0.145038
-0.155578
-0.164908
-0.172535
-0.178146
-0.181708
-0.183428
-0.183727
-0.18769
-0.180274
-0.180478
-0.179522
-0.178002
-0.176194
-0.174187
-0.172774
-0.171382
-0.169987
-0.168688
-0.167843
-0.166783
-0.165664
-0.164592
-0.163601
-0.162699
-0.161887
-0.161164
-0.16052
-0.159922
-0.159349
-0.158797
-0.158269
-0.157761
-0.157281
-0.156865
-0.1566
-0.156532
-0.156561
-0.156616
-0.156674
-0.156738
-0.156831
-0.156975
-0.157177
-0.157454
-0.15782
-0.158296
-0.158905
-0.159643
-0.1603
-0.160228
-0.158305
-0.152947
-0.140771
0
0
-0.0229812
-0.056728
-0.0814501
-0.101331
-0.118187
-0.132757
-0.145407
-0.156301
-0.165558
-0.172999
-0.178456
-0.181918
-0.183557
-0.183667
-0.182443
-0.178564
-0.181773
-0.180452
-0.178593
-0.176756
-0.175596
-0.173784
-0.17208
-0.170616
-0.169489
-0.168205
-0.166935
-0.165759
-0.164692
-0.163731
-0.162869
-0.162102
-0.161431
-0.160839
-0.16025
-0.159644
-0.159033
-0.158434
-0.157853
-0.157311
-0.156895
-0.156744
-0.156718
-0.156714
-0.156709
-0.156709
-0.156719
-0.156778
-0.15691
-0.157103
-0.157369
-0.157726
-0.158186
-0.158779
-0.159544
-0.160288
-0.160205
-0.15826
-0.153014
-0.140864
0
0
-0.0235799
-0.0782439
-0.0829846
-0.102065
-0.118607
-0.133048
-0.145658
-0.156575
-0.165819
-0.173206
-0.178614
-0.182051
-0.183682
-0.183793
-0.182795
-0.180922
-0.180915
-0.179903
-0.178386
-0.17679
-0.175306
-0.173727
-0.172186
-0.170799
-0.169833
-0.168263
-0.16691
-0.16576
-0.164741
-0.163832
-0.16302
-0.162306
-0.161706
-0.161203
-0.160613
-0.159942
-0.15925
-0.158566
-0.15789
-0.157215
-0.156721
-0.156755
-0.156833
-0.156811
-0.156729
-0.156639
-0.156554
-0.156557
-0.156679
-0.156874
-0.15716
-0.157549
-0.158026
-0.15861
-0.159425
-0.160352
-0.160285
-0.158372
-0.152973
-0.140972
0
0
-0.02312
-0.0570868
-0.0817963
-0.101671
-0.118453
-0.132994
-0.145595
-0.156384
-0.165699
-0.173128
-0.178571
-0.182066
-0.183774
-0.183979
-0.183488
-0.182319
-0.181156
-0.17977
-0.178234
-0.176666
-0.175132
-0.173642
-0.172164
-0.170595
-0.168572
-0.167593
-0.166672
-0.165729
-0.164791
-0.163955
-0.163187
-0.162522
-0.162011
-0.161671
-0.161018
-0.16022
-0.159426
-0.158667
-0.157917
-0.15698
-0.156274
-0.156792
-0.156986
-0.156828
-0.15653
-0.156221
-0.155957
-0.155875
-0.156001
-0.15627
-0.156695
-0.157241