# vtk DataFile Version 2.0
FlowField
ASCII
DATASET STRUCTURED_GRID
DIMENSIONS 62 47 32 
POINTS 93248 double
0 0 0
0.01 0 0
0.02 0 0
0.03 0 0
0.04 0 0
0.05 0 0
0.06 0 0
0.07 0 0
0.08 0 0
0.09 0 0
0.1 0 0
0.11 0 0
0.12 0 0
0.13 0 0
0.14 0 0
0.15 0 0
0.16 0 0
0.17 0 0
0.18 0 0
0.19 0 0
0.2 0 0
0.21 0 0
0.22 0 0
0.23 0 0
0.24 0 0
0.25 0 0
0.26 0 0
0.27 0 0
0.28 0 0
0.29 0 0
0.3 0 0
0.31 0 0
0.32 0 0
0.33 0 0
0.34 0 0
0.35 0 0
0.36 0 0
0.37 0 0
0.38 0 0
0.39 0 0
0.4 0 0
0.41 0 0
0.42 0 0
0.43 0 0
0.44 0 0
0.45 0 0
0.46 0 0
0.47 0 0
0.48 0 0
0.49 0 0
0.5 0 0
0.51 0 0
0.52 0 0
0.53 0 0
0.54 0 0
0.55 0 0
0.56 0 0
0.57 0 0
0.58 0 0
0.59 0 0
0.6 0 0
0.61 0 0
0 0.01 0
0.01 0.01 0
0.02 0.01 0
0.03 0.01 0
0.04 0.01 0
0.05 0.01 0
0.06 0.01 0
0.07 0.01 0
0.08 0.01 0
0.09 0.01 0
0.1 0.01 0
0.11 0.01 0
0.12 0.01 0
0.13 0.01 0
0.14 0.01 0
0.15 0.01 0
0.16 0.01 0
0.17 0.01 0
0.18 0.01 0
0.19 0.01 0
0.2 0.01 0
0.21 0.01 0
0.22 0.01 0
0.23 0.01 0
0.24 0.01 0
0.25 0.01 0
0.26 0.01 0
0.27 0.01 0
0.28 0.01 0
0.29 0.01 0
0.3 0.01 0
0.31 0.01 0
0.32 0.01 0
0.33 0.01 0
0.34 0.01 0
0.35 0.01 0
0.36 0.01 0
0.37 0.01 0
0.38 0.01 0
0.39 0.01 0
0.4 0.01 0
0.41 0.01 0
0.42 0.01 0
0.43 0.01 0
0.44 0.01 0
0.45 0.01 0
0.46 0.01 0
0.47 0.01 0
0.48 0.01 0
0.49 0.01 0
0.5 0.01 0
0.51 0.01 0
0.52 0.01 0
0.53 0.01 0
0.54 0.01 0
0.55 0.01 0
0.56 0.01 0
0.57 0.01 0
0.58 0.01 0
0.59 0.01 0
0.6 0.01 0
0.61 0.01 0
0 0.02 0
0.01 0.02 0
0.02 0.02 0
0.03 0.02 0
0.04 0.02 0
0.05 0.02 0
0.06 0.02 0
0.07 0.02 0
0.08 0.02 0
0.09 0.02 0
0.1 0.02 0
0.11 0.02 0
0.12 0.02 0
0.13 0.02 0
0.14 0.02 0
0.15 0.02 0
0.16 0.02 0
0.17 0.02 0
0.18 0.02 0
0.19 0.02 0
0.2 0.02 0
0.21 0.02 0
0.22 0.02 0
0.23 0.02 0
0.24 0.02 0
0.25 0.02 0
0.26 0.02 0
0.27 0.02 0
0.28 0.02 0
0.29 0.02 0
0.3 0.02 0
0.31 0.02 0
0.32 0.02 0
0.33 0.02 0
0.34 0.02 0
0.35 0.02 0
0.36 0.02 0
0.37 0.02 0
0.38 0.02 0
0.39 0.02 0
0.4 0.02 0
0.41 0.02 0
0.42 0.02 0
0.43 0.02 0
0.44 0.02 0
0.45 0.02 0
0.46 0.02 0
0.47 0.02 0
0.48 0.02 0
0.49 0.02 0
0.5 0.02 0
0.51 0.02 0
0.52 0.02 0
0.53 0.02 0
0.54 0.02 0
0.55 0.02 0
0.56 0.02 0
0.57 0.02 0
0.58 0.02 0
0.59 0.02 0
0.6 0.02 0
0.61 0.02 0
0 0.03 0
0.01 0.03 0
0.02 0.03 0
0.03 0.03 0
0.04 0.03 0
0.05 0.03 0
0.06 0.03 0
0.07 0.03 0
0.08 0.03 0
0.09 0.03 0
0.1 0.03 0
0.11 0.03 0
0.12 0.03 0
0.13 0.03 0
0.14 0.03 0
0.15 0.03 0
0.16 0.03 0
0.17 0.03 0
0.18 0.03 0
0.19 0.03 0
0.2 0.03 0
0.21 0.03 0
0.22 0.03 0
0.23 0.03 0
0.24 0.03 0
0.25 0.03 0
0.26 0.03 0
0.27 0.03 0
0.28 0.03 0
0.29 0.03 0
0.3 0.03 0
0.31 0.03 0
0.32 0.03 0
0.33 0.03 0
0.34 0.03 0
0.35 0.03 0
0.36 0.03 0
0.37 0.03 0
0.38 0.03 0
0.39 0.03 0
0.4 0.03 0
0.41 0.03 0
0.42 0.03 0
0.43 0.03 0
0.44 0.03 0
0.45 0.03 0
0.46 0.03 0
0.47 0.03 0
0.48 0.03 0
0.49 0.03 0
0.5 0.03 0
0.51 0.03 0
0.52 0.03 0
0.53 0.03 0
0.54 0.03 0
0.55 0.03 0
0.56 0.03 0
0.57 0.03 0
0.58 0.03 0
0.59 0.03 0
0.6 0.03 0
0.61 0.03 0
0 0.04 0
0.01 0.04 0
0.02 0.04 0
0.03 0.04 0
0.04 0.04 0
0.05 0.04 0
0.06 0.04 0
0.07 0.04 0
0.08 0.04 0
0.09 0.04 0
0.1 0.04 0
0.11 0.04 0
0.12 0.04 0
0.13 0.04 0
0.14 0.04 0
0.15 0.04 0
0.16 0.04 0
0.17 0.04 0
0.18 0.04 0
0.19 0.04 0
0.2 0.04 0
0.21 0.04 0
0.22 0.04 0
0.23 0.04 0
0.24 0.04 0
0.25 0.04 0
0.26 0.04 0
0.27 0.04 0
0.28 0.04 0
0.29 0.04 0
0.3 0.04 0
0.31 0.04 0
0.32 0.04 0
0.33 0.04 0
0.34 0.04 0
0.35 0.04 0
0.36 0.04 0
0.37 0.04 0
0.38 0.04 0
0.39 0.04 0
0.4 0.04 0
0.41 0.04 0
0.42 0.04 0
0.43 0.04 0
0.44 0.04 0
0.45 0.04 0
0.46 0.04 0
0.47 0.04 0
0.48 0.04 0
0.49 0.04 0
0.5 0.04 0
0.51 0.04 0
0.52 0.04 0
0.53 0.04 0
0.54 0.04 0
0.55 0.04 0
0.56 0.04 0
0.57 0.04 0
0.58 0.04 0
0.59 0.04 0
0.6 0.04 0
0.61 0.04 0
0 0.05 0
0.01 0.05 0
0.02 0.05 0
0.03 0.05 0
0.04 0.05 0
0.05 0.05 0
0.06 0.05 0
0.07 0.05 0
0.08 0.05 0
0.09 0.05 0
0.1 0.05 0
0.11 0.05 0
0.12 0.05 0
0.13 0.05 0
0.14 0.05 0
0.15 0.05 0
0.16 0.05 0
0.17 0.05 0
0.18 0.05 0
0.19 0.05 0
0.2 0.05 0
0.21 0.05 0
0.22 0.05 0
0.23 0.05 0
0.24 0.05 0
0.25 0.05 0
0.26 0.05 0
0.27 0.05 0
0.28 0.05 0
0.29 0.05 0
0.3 0.05 0
0.31 0.05 0
0.32 0.05 0
0.33 0.05 0
0.34 0.05 0
0.35 0.05 0
0.36 0.05 0
0.37 0.05 0
0.38 0.05 0
0.39 0.05 0
0.4 0.05 0
0.41 0.05 0
0.42 0.05 0
0.43 0.05 0
0.44 0.05 0
0.45 0.05 0
0.46 0.05 0
0.47 0.05 0
0.48 0.05 0
0.49 0.05 0
0.5 0.05 0
0.51 0.05 0
0.52 0.05 0
0.53 0.05 0
0.54 0.05 0
0.55 0.05 0
0.56 0.05 0
0.57 0.05 0
0.58 0.05 0
0.59 0.05 0
0.6 0.05 0
0.61 0.05 0
0 0.06 0
0.01 0.06 0
0.02 0.06 0
0.03 0.06 0
0.04 0.06 0
0.05 0.06 0
0.06 0.06 0
0.07 0.06 0
0.08 0.06 0
0.09 0.06 0
0.1 0.06 0
0.11 0.06 0
0.12 0.06 0
0.13 0.06 0
0.14 0.06 0
0.15 0.06 0
0.16 0.06 0
0.17 0.06 0
0.18 0.06 0
0.19 0.06 0
0.2 0.06 0
0.21 0.06 0
0.22 0.06 0
0.23 0.06 0
0.24 0.06 0
0.25 0.06 0
0.26 0.06 0
0.27 0.06 0
0.28 0.06 0
0.29 0.06 0
0.3 0.06 0
0.31 0.06 0
0.32 0.06 0
0.33 0.06 0
0.34 0.06 0
0.35 0.06 0
0.36 0.06 0
0.37 0.06 0
0.38 0.06 0
0.39 0.06 0
0.4 0.06 0
0.41 0.06 0
0.42 0.06 0
0.43 0.06 0
0.44 0.06 0
0.45 0.06 0
0.46 0.06 0
0.47 0.06 0
0.48 0.06 0
0.49 0.06 0
0.5 0.06 0
0.51 0.06 0
0.52 0.06 0
0.53 0.06 0
0.54 0.06 0
0.55 0.06 0
0.56 0.06 0
0.57 0.06 0
0.58 0.06 0
0.59 0.06 0
0.6 0.06 0
0.61 0.06 0
0 0.07 0
0.01 0.07 0
0.02 0.07 0
0.03 0.07 0
0.04 0.07 0
0.05 0.07 0
0.06 0.07 0
0.07 0.07 0
0.08 0.07 0
0.09 0.07 0
0.1 0.07 0
0.11 0.07 0
0.12 0.07 0
0.13 0.07 0
0.14 0.07 0
0.15 0.07 0
0.16 0.07 0
0.17 0.07 0
0.18 0.07 0
0.19 0.07 0
0.2 0.07 0
0.21 0.07 0
0.22 0.07 0
0.23 0.07 0
0.24 0.07 0
0.25 0.07 0
0.26 0.07 0
0.27 0.07 0
0.28 0.07 0
0.29 0.07 0
0.3 0.07 0
0.31 0.07 0
0.32 0.07 0
0.33 0.07 0
0.34 0.07 0
0.35 0.07 0
0.36 0.07 0
0.37 0.07 0
0.38 0.07 0
0.39 0.07 0
0.4 0.07 0
0.41 0.07 0
0.42 0.07 0
0.43 0.07 0
0.44 0.07 0
0.45 0.07 0
0.46 0.07 0
0.47 0.07 0
0.48 0.07 0
0.49 0.07 0
0.5 0.07 0
0.51 0.07 0
0.52 0.07 0
0.53 0.07 0
0.54 0.07 0
0.55 0.07 0
0.56 0.07 0
0.57 0.07 0
0.58 0.07 0
0.59 0.07 0
0.6 0.07 0
0.61 0.07 0
0 0.08 0
0.01 0.08 0
0.02 0.08 0
0.03 0.08 0
0.04 0.08 0
0.05 0.08 0
0.06 0.08 0
0.07 0.08 0
0.08 0.08 0
0.09 0.08 0
0.1 0.08 0
0.11 0.08 0
0.12 0.08 0
0.13 0.08 0
0.14 0.08 0
0.15 0.08 0
0.16 0.08 0
0.17 0.08 0
0.18 0.08 0
0.19 0.08 0
0.2 0.08 0
0.21 0.08 0
0.22 0.08 0
0.23 0.08 0
0.24 0.08 0
0.25 0.08 0
0.26 0.08 0
0.27 0.08 0
0.28 0.08 0
0.29 0.08 0
0.3 0.08 0
0.31 0.08 0
0.32 0.08 0
0.33 0.08 0
0.34 0.08 0
0.35 0.08 0
0.36 0.08 0
0.37 0.08 0
0.38 0.08 0
0.39 0.08 0
0.4 0.08 0
0.41 0.08 0
0.42 0.08 0
0.43 0.08 0
0.44 0.08 0
0.45 0.08 0
0.46 0.08 0
0.47 0.08 0
0.48 0.08 0
0.49 0.08 0
0.5 0.08 0
0.51 0.08 0
0.52 0.08 0
0.53 0.08 0
0.54 0.08 0
0.55 0.08 0
0.56 0.08 0
0.57 0.08 0
0.58 0.08 0
0.59 0.08 0
0.6 0.08 0
0.61 0.08 0
0 0.09 0
0.01 0.09 0
0.02 0.09 0
0.03 0.09 0
0.04 0.09 0
0.05 0.09 0
0.06 0.09 0
0.07 0.09 0
0.08 0.09 0
0.09 0.09 0
0.1 0.09 0
0.11 0.09 0
0.12 0.09 0
0.13 0.09 0
0.14 0.09 0
0.15 0.09 0
0.16 0.09 0
0.17 0.09 0
0.18 0.09 0
0.19 0.09 0
0.2 0.09 0
0.21 0.09 0
0.22 0.09 0
0.23 0.09 0
0.24 0.09 0
0.25 0.09 0
0.26 0.09 0
0.27 0.09 0
0.28 0.09 0
0.29 0.09 0
0.3 0.09 0
0.31 0.09 0
0.32 0.09 0
0.33 0.09 0
0.34 0.09 0
0.35 0.09 0
0.36 0.09 0
0.37 0.09 0
0.38 0.09 0
0.39 0.09 0
0.4 0.09 0
0.41 0.09 0
0.42 0.09 0
0.43 0.09 0
0.44 0.09 0
0.45 0.09 0
0.46 0.09 0
0.47 0.09 0
0.48 0.09 0
0.49 0.09 0
0.5 0.09 0
0.51 0.09 0
0.52 0.09 0
0.53 0.09 0
0.54 0.09 0
0.55 0.09 0
0.56 0.09 0
0.57 0.09 0
0.58 0.09 0
0.59 0.09 0
0.6 0.09 0
0.61 0.09 0
0 0.1 0
0.01 0.1 0
0.02 0.1 0
0.03 0.1 0
0.04 0.1 0
0.05 0.1 0
0.06 0.1 0
0.07 0.1 0
0.08 0.1 0
0.09 0.1 0
0.1 0.1 0
0.11 0.1 0
0.12 0.1 0
0.13 0.1 0
0.14 0.1 0
0.15 0.1 0
0.16 0.1 0
0.17 0.1 0
0.18 0.1 0
0.19 0.1 0
0.2 0.1 0
0.21 0.1 0
0.22 0.1 0
0.23 0.1 0
0.24 0.1 0
0.25 0.1 0
0.26 0.1 0
0.27 0.1 0
0.28 0.1 0
0.29 0.1 0
0.3 0.1 0
0.31 0.1 0
0.32 0.1 0
0.33 0.1 0
0.34 0.1 0
0.35 0.1 0
0.36 0.1 0
0.37 0.1 0
0.38 0.1 0
0.39 0.1 0
0.4 0.1 0
0.41 0.1 0
0.42 0.1 0
0.43 0.1 0
0.44 0.1 0
0.45 0.1 0
0.46 0.1 0
0.47 0.1 0
0.48 0.1 0
0.49 0.1 0
0.5 0.1 0
0.51 0.1 0
0.52 0.1 0
0.53 0.1 0
0.54 0.1 0
0.55 0.1 0
0.56 0.1 0
0.57 0.1 0
0.58 0.1 0
0.59 0.1 0
0.6 0.1 0
0.61 0.1 0
0 0.11 0
0.01 0.11 0
0.02 0.11 0
0.03 0.11 0
0.04 0.11 0
0.05 0.11 0
0.06 0.11 0
0.07 0.11 0
0.08 0.11 0
0.09 0.11 0
0.1 0.11 0
0.11 0.11 0
0.12 0.11 0
0.13 0.11 0
0.14 0.11 0
0.15 0.11 0
0.16 0.11 0
0.17 0.11 0
0.18 0.11 0
0.19 0.11 0
0.2 0.11 0
0.21 0.11 0
0.22 0.11 0
0.23 0.11 0
0.24 0.11 0
0.25 0.11 0
0.26 0.11 0
0.27 0.11 0
0.28 0.11 0
0.29 0.11 0
0.3 0.11 0
0.31 0.11 0
0.32 0.11 0
0.33 0.11 0
0.34 0.11 0
0.35 0.11 0
0.36 0.11 0
0.37 0.11 0
0.38 0.11 0
0.39 0.11 0
0.4 0.11 0
0.41 0.11 0
0.42 0.11 0
0.43 0.11 0
0.44 0.11 0
0.45 0.11 0
0.46 0.11 0
0.47 0.11 0
0.48 0.11 0
0.49 0.11 0
0.5 0.11 0
0.51 0.11 0
0.52 0.11 0
0.53 0.11 0
0.54 0.11 0
0.55 0.11 0
0.56 0.11 0
0.57 0.11 0
0.58 0.11 0
0.59 0.11 0
0.6 0.11 0
0.61 0.11 0
0 0.12 0
0.01 0.12 0
0.02 0.12 0
0.03 0.12 0
0.04 0.12 0
0.05 0.12 0
0.06 0.12 0
0.07 0.12 0
0.08 0.12 0
0.09 0.12 0
0.1 0.12 0
0.11 0.12 0
0.12 0.12 0
0.13 0.12 0
0.14 0.12 0
0.15 0.12 0
0.16 0.12 0
0.17 0.12 0
0.18 0.12 0
0.19 0.12 0
0.2 0.12 0
0.21 0.12 0
0.22 0.12 0
0.23 0.12 0
0.24 0.12 0
0.25 0.12 0
0.26 0.12 0
0.27 0.12 0
0.28 0.12 0
0.29 0.12 0
0.3 0.12 0
0.31 0.12 0
0.32 0.12 0
0.33 0.12 0
0.34 0.12 0
0.35 0.12 0
0.36 0.12 0
0.37 0.12 0
0.38 0.12 0
0.39 0.12 0
0.4 0.12 0
0.41 0.12 0
0.42 0.12 0
0.43 0.12 0
0.44 0.12 0
0.45 0.12 0
0.46 0.12 0
0.47 0.12 0
0.48 0.12 0
0.49 0.12 0
0.5 0.12 0
0.51 0.12 0
0.52 0.12 0
0.53 0.12 0
0.54 0.12 0
0.55 0.12 0
0.56 0.12 0
0.57 0.12 0
0.58 0.12 0
0.59 0.12 0
0.6 0.12 0
0.61 0.12 0
0 0.13 0
0.01 0.13 0
0.02 0.13 0
0.03 0.13 0
0.04 0.13 0
0.05 0.13 0
0.06 0.13 0
0.07 0.13 0
0.08 0.13 0
0.09 0.13 0
0.1 0.13 0
0.11 0.13 0
0.12 0.13 0
0.13 0.13 0
0.14 0.13 0
0.15 0.13 0
0.16 0.13 0
0.17 0.13 0
0.18 0.13 0
0.19 0.13 0
0.2 0.13 0
0.21 0.13 0
0.22 0.13 0
0.23 0.13 0
0.24 0.13 0
0.25 0.13 0
0.26 0.13 0
0.27 0.13 0
0.28 0.13 0
0.29 0.13 0
0.3 0.13 0
0.31 0.13 0
0.32 0.13 0
0.33 0.13 0
0.34 0.13 0
0.35 0.13 0
0.36 0.13 0
0.37 0.13 0
0.38 0.13 0
0.39 0.13 0
0.4 0.13 0
0.41 0.13 0
0.42 0.13 0
0.43 0.13 0
0.44 0.13 0
0.45 0.13 0
0.46 0.13 0
0.47 0.13 0
0.48 0.13 0
[...]
POINT_DATA 93248

SCALARS v double
LOOKUP_TABLE default
0
0
0
0
0
0
0
0
0
0
0
0
0
0
0
0
0
0
0
0
0
0
0
0
0
0
0
0
0
0
0
0
0
0
0
0
0
0
-0.11113
0
0
0
0
0
-0.117012
0
0
0
0
0
0
0
0
0
0
0
0
0
0
0
0
0
0
0.0438553
-0.0874849
0.0458998
0.0320008
0.0145639
0
-0.00815099
-0.015629
-0.0202486
-0.0232168
-0.0263743
-0.0331128
-0.0325406
-0.0330419
-0.0338871
-0.0345104
-0.0336993
-0.0332273
-0.0323715
-0.0424882
-0.0351732
-0.0279952
-0.0337086
-0.0342046
-0.0340524
-0.0339428
-0.0338801
-0.0337997
-0.0336363
-0.0333765
-0.0335111
-0.0360946
-0.0335694
-0.0326496
-0.0332393
-0.0779529
-0.0317403
-0.0305512
-0.0288338
-0.0363817
-0.0698505
-0.0362989
-0.0380576
-0.044557
-0.0707516
-0.146238
-0.0358563
-0.0499131
-0.0333689
-0.0333587
-0.031868
-0.0370479
-0.0449668
-0.0715585
-0.0428968
-0.103917
-0.0342506
-0.0288663
-0.0253632
-0.0210913
0
0
0.0254382
0.0489228
0.0564118
0.0521899
0.0337948
0.0287465
0.0176709
0.00606631
-0.0047588
-0.0136778
-0.0220337
-0.142034
-0.0383943
-0.0418477
-0.0440893
-0.0474586
-0.0462535
-0.0482441
-0.0512315
-0.195805
-0.0501768
-0.057455
-0.0504149
-0.0484773
-0.0478722
-0.04765
-0.0475279
-0.0473806
-0.0471037
-0.0466034
-0.0463229
-0.117021
-0.0462072
-0.0459161
-0.0476673
-0.0473584
-0.0443923
-0.0426132
-0.0460927
-0.0497269
-0.0525215
-0.0525062
-0.0551234
-0.0588115
-0.0643924
-0.0613474
-0.0528146
-0.0499131
-0.0482919
-0.0494273
-0.0548923
-0.0531022
-0.0566716
-0.0616968
-0.0540706
-0.0495217
-0.119343
-0.0364736
-0.0323164
-0.0293246
0
0
0.0129376
0.0334215
0.042099
0.0511434
0.0553313
0.0419622
0.0306767
0.0192659
0.00787967
-0.00372933
-0.0144598
-0.0276419
-0.0349937
-0.041634
-0.047925
-0.0520358
0
-0.0550496
-0.0578928
-0.0617162
-0.0595919
-0.059506
-0.0576896
-0.0564955
-0.0558946
-0.0555999
-0.0554282
-0.0552747
-0.0550934
-0.0549816
-0.055522
-0.0582174
-0.0596867
-0.0580823
-0.0542645
-0.0534286
-0.0525922
-0.0527058
-0.0550346
-0.057222
-0.059577
-0.0616987
-0.0619974
-0.0642837
-0.0655952
-0.0606937
-0.0588007
-0.0574308
-0.0575384
-0.0578476
-0.0590007
-0.0590896
-0.059549
-0.0590894
-0.0562313
-0.0525252
-0.0487168
-0.04118
-0.0373004
-0.0366214
0
0
0.00751491
0.0229725
0.0372466
0.0399745
0.0412134
0.036102
0.028555
0.0195618
0.00977216
-0.00046836
-0.0106568
-0.0208419
-0.0293758
-0.0374072
-0.0466568
-0.0492766
-0.0517633
-0.05596
-0.0595616
-0.0606215
-0.0611878
-0.0613065
-0.0609974
-0.0606469
-0.0603922
-0.0602045
-0.0600758
-0.0599754
-0.0598938
-0.0599127
-0.0602795
-0.0613688
-0.0632902
-0.062347
-0.0600559
-0.0587958
-0.0584143
-0.0588822
-0.0602815
-0.0617256
-0.0632513
-0.0647014
-0.0655369
-0.0663829
-0.0656852
-0.0606527
-0.0619174
-0.0619501
-0.0618569
-0.061675
-0.0614458
-0.0609331
-0.0599033
-0.0581296
-0.0556353
-0.0521035
-0.0476739
-0.0425337
-0.039615
-0.0427498
0
0
0.00452023
0.0145207
0.0227679
0.0264452
0.0272795
0.024833
0.0193304
0.0122752
0.0044688
-0.00378821
-0.0120491
-0.0199212
-0.026786
-0.0327171
-0.0351385
-0.0445322
-0.0498462
-0.0546012
-0.0574157
-0.0595512
-0.0611659
-0.0621512
-0.0626925
-0.0629859
-0.0631467
-0.0631547
-0.0631599
-0.0631635
-0.0631365
-0.0630693
-0.0629943
-0.0633689
-0.0673249
-0.0653733
-0.0635988
-0.0627163
-0.0625945
-0.0630586
-0.0638627
-0.0647534
-0.0656411
-0.0664595
-0.0671617
-0.0676259
-0.0671793
0
-0.0641432
-0.0644843
-0.0641197
-0.0635649
-0.0627973
-0.0616985
-0.0600565
-0.05792
-0.0553276
-0.0521434
-0.0485796
-0.0450101
-0.0413148
-0.047092
-0.124997
0
0.00260715
0.00878869
0.0135272
0.0157833
0.0157827
0.0140373
0.00866994
0
-0.00347389
-0.0100756
-0.0167278
-0.0230244
-0.0279204
-0.0325101
-0.0373211
-0.0441824
-0.0481296
-0.050552
-0.0550242
-0.0584184
-0.0609974
-0.0627555
-0.063917
-0.0647166
-0.0652823
-0.0654519
-0.06566
-0.0658186
-0.065846
-0.0656622
-0.0651562
-0.0645171
-0.153663
-0.067387
-0.0661146
-0.065777
-0.0658915
-0.0662711
-0.0667582
-0.0672564
-0.0677034
-0.068046
-0.06833
-0.0681729
-0.0671593
-0.064533
-0.065364
-0.0656928
-0.0654366
-0.0648117
-0.0638757
-0.0625573
-0.0607416
-0.0586429
-0.0563073
-0.0539099
-0.0523645
-0.0540388
-0.0596347
-0.048111
0
0
0.00128874
0.00484904
0.00726104
0.00792207
0.00663993
0.00305556
0.000149573
-0.00509169
-0.0108769
-0.016757
-0.0226859
-0.0288066
-0.0313978
-0.0347935
-0.0392506
-0.04603
-0.0492239
-0.0508184
-0.0549314
-0.0585741
-0.0617321
-0.0638344
-0.0653123
-0.0664401
-0.0673529
-0.0676194
-0.0681334
-0.0684926
-0.0686092
-0.0684476
-0.0681803
-0.0685298
-0.0711036
-0.0700489
-0.0692515
-0.0689514
-0.069004
-0.0692238
-0.0694749
-0.0696938
-0.0698505
-0.0699214
-0.0696944
-0.0693035
-0.0685448
-0.0676129
-0.0673606
-0.0671786
-0.0667722
-0.0660976
-0.0651601
-0.063895
-0.0621066
-0.0602905
-0.0583831
-0.0563655
-0.0544149
-0.108328
-0.0298237
-0.0459865
0
0
0.000339291
0.00204316
0.00280157
0.00219088
5.54846e-05
-0.00353667
-0.00748866
-0.012393
-0.0176673
-0.0229466
-0.0286508
-0.0380846
-0.026786
-0.0378845
-0.0404384
-0.0408018
-0.0452689
-0.0529848
-0.0571272
-0.0603418
-0.0637929
-0.0656246
-0.0670822
-0.0683156
-0.0676194
-0.0703633
-0.0710378
-0.0714865
-0.071664
-0.0714445
-0.0710637
-0.071267
-0.0720098
-0.0720993
-0.071995
-0.0719298
-0.0720191
-0.0721405
-0.0722162
-0.0722234
-0.0721489
-0.0719648
-0.0716114
-0.071137
-0.0705616
-0.0700037
-0.0695195
-0.0690285
-0.0684258
-0.0676748
-0.0667921
-0.0658262
-0.0640346
-0.0626428
-0.0612044
-0.059649
-0.0579554
-0.0555855
-0.0482426
-0.0472996
0
0
-0.00036792
-2.18942e-05
-0.000494134
-0.0021017
-0.00491429
-0.0087987
-0.0133328
-0.0183259
-0.0233376
-0.0278368
-0.0307862
-0.0266988
-0.036398
-0.0412324
-0.0440893
-0.0463821
-0.050764
-0.0556085
-0.0594196
-0.0623043
-0.0887946
-0.0677176
-0.069182
-0.0706041
-0.0720729
-0.0729695
-0.0739415
-0.0747013
-0.0750625
-0.0746804
-0.0734785
-0.0735296
-0.0740671
-0.0744869
-0.0747231
-0.0748258
-0.0749938
-0.075084
-0.0750335
-0.0748835
-0.0746467
-0.0743128
-0.073876
-0.0733751
-0.072849
-0.0723245
-0.0717612
-0.0711182
-0.0703666
-0.0695224
-0.0685702
-0.0674412
-0.0662957
-0.0654617
-0.0643197
-0.0629304
-0.0611809
-0.0585891
-0.054349
-0.0495759
0
0
-0.00091181
-0.00158976
-0.00301025
-0.00544707
-0.00885971
-0.0131633
-0.0180829
-0.023275
-0.0283005
-0.0326762
-0.0358967
-0.0380218
-0.0425686
-0.0464917
-0.0489475
-0.0520809
-0.0558612
-0.0595959
-0.0629034
-0.0657751
-0.0686609
-0.0703815
-0.0718378
-0.0731138
-0.0738275
-0.0757215
-0.0771941
-0.078355
-0.079058
-0.0790508
-0.0745065
-0.0755992
-0.0766727
-0.077305
-0.0776896
-0.0779529
-0.0779076
-0.0780599
-0.0779219
-0.0776593
-0.0773182
-0.0768972
-0.0763815
-0.075845
-0.0753064
-0.0747522
-0.0741347
-0.0734005
-0.0725389
-0.0716461
-0.0706055
-0.0694984
-0.0697052
-0.0687148
-0.0674999
-0.0660805
-0.0642256
-0.0615122
-0.0574254
-0.0520741
0
0
-0.00134532
-0.00282109
-0.0049849
-0.00947399
-0.0121033
-0.0168744
-0.0221759
-0.0276687
-0.0329493
-0.037668
-0.0416933
-0.0454066
-0.0492998
-0.0529194
-0.0538157
-0.0575751
-0.0611984
-0.0643862
-0.0672831
-0.0697409
-0.0718519
-0.0734855
-0.074877
-0.0761646
-0.0774721
-0.0791418
-0.0809262
-0.0824776
-0.0833019
-0.0833331
0
-0.0789439
-0.0799789
-0.0804498
-0.0807862
-0.0810572
-0.0812349
-0.081058
-0.0808663
-0.0805236
-0.0801218
-0.079691
-0.0790486
-0.0784617
-0.0779006
-0.0773236
-0.0766774
-0.0758828
-0.074934
-0.0742046
-0.0734498
-0.0727288
-0.072343
-0.0715585
-0.0704813
-0.0690847
-0.0671531
-0.0642934
-0.0600292
-0.0545381
0
0
-0.00170679
-0.00383792
-0.00665983
-0.010325
-0.0148888
-0.0201475
-0.0258742
-0.0317535
-0.0374325
-0.042621
-0.0472927
-0.0515843
-0.0557072
-0.0598978
0
-0.0635429
-0.0668799
-0.0695736
-0.0722827
-0.0743029
-0.0758202
-0.0770775
-0.0782551
-0.0794839
-0.0809214
-0.0827531
-0.0850444
-0.0871152
-0.0876216
-0.085437
-0.0816648
-0.0820072
-0.0827437
-0.0833497
-0.0838103
-0.0841586
-0.0843805
-0.0843628
-0.0840138
-0.0834719
-0.0829848
-0.082884
-0.0817881
-0.0811614
-0.0806037
-0.0800357
-0.0794051
-0.0785803
-0.0774535
-0.0770905
-0.0766124
-0.0759555
-0.0752351
-0.0744109
-0.0733947
-0.0720236
-0.0700301
-0.0670399
-0.062586
-0.0569134
0
0
-0.00201998
-0.00470661
-0.00808119
-0.0121016
-0.0173647
-0.0231279
-0.0293101
-0.0356375
-0.0417852
-0.0460019
-0.0526003
-0.0572079
-0.0613041
-0.064679
-0.0661533
-0.0693601
-0.0721406
-0.0745502
-0.077818
-0.0793052
-0.0801623
-0.080943
-0.0818162
-0.0828614
-0.0842248
-0.086203
-0.0892426
-0.0925278
-0.095139
-0.0894235
-0.0862088
-0.0855762
-0.0858797
-0.0863842
-0.0868784
-0.0873263
-0.0876364
-0.0878444
-0.0872692
-0.0863666
-0.0853719
-0.0836386
-0.0840984
-0.0838404
-0.0833742
-0.082857
-0.0823036
-0.0815193
-0.0799061
-0.0802635
-0.0799485
-0.0791825
-0.0782597
-0.0773978
-0.0764001
-0.0750256
-0.0729101
-0.0698185
-0.0651246
-0.0591811
0
0
-0.00230383
-0.00549187
-0.00947399
-0.0144959
-0.0197973
-0.0259359
-0.032568
-0.0393716
-0.0460019
-0.0521564
-0.0576983
-0.0625699
-0.0667742
-0.0702327
-0.0729399
-0.0755009
-0.0775984
-0.0793824
-0.0844918
-0.0845516
-0.0845286
-0.0848558
-0.0854096
-0.086151
-0.0871651
-0.0887918
-0.0919983
-0.0631365
-0.116967
-0.092997
-0.0886397
-0.0882898
-0.0887321
-0.0892825
-0.0898822
-0.0906182
-0.0916256
-0.0917993
-0.0907711
-0.089403
-0.0882579
-0.0873848
-0.0870463
-0.086678
-0.0862048
-0.085724
-0.0852778
-0.0847524
-0.0618569
-0.0838965
-0.0834476
-0.0824512
-0.0811475
-0.0805286
-0.0795863
-0.0782819
-0.0763752
-0.0728053
-0.0676779
-0.0613037
0
0
-0.00256389
-0.00615959
-0.0106078
-0.0159232
-0.0219086
-0.0285612
-0.0356832
-0.0429931
-0.0501321
-0.0567632
-0.062663
-0.0678198
-0.0722669
-0.0760129
-0.0790958
-0.0815296
-0.0831453
-0.0837605
-0.178097
-0.0891442
-0.0886711
-0.0887946
-0.0890617
-0.0893514
-0.0895904
-0.0895082
-0.0878455
-0.0786865
-0.0375258
-0.0742722
-0.0851896
-0.0889957
-0.090661
-0.0916601
-0.092549
-0.0936667
-0.0951621
-0.0963471
-0.0948986
-0.0927736
-0.0913648
-0.0905922
-0.0900993
-0.0896183
-0.0890496
-0.088534
-0.0880067
-0.0874227
-0.0867159
-0.087447
-0.0868971
-0.0860322
-0.0858367
-0.0841127
-0.0829258
-0.0817247
-0.0796113
-0.0760207
-0.0703321
-0.0632062
0
0
-0.0028373
-0.00671261
-0.0116402
-0.0174215
-0.0239311
-0.0310577
-0.0386717
-0.0465263
-0.0542074
-0.0613136
-0.0675284
-0.0729843
-0.077747
-0.0818164
-0.0851405
-0.0876685
-0.0894912
-0.0911453
-0.0943403
-0.0940402
-0.0935646
-0.0932468
-0.093009
-0.0927158
-0.0921425
-0.0907885
-0.0875916
-0.0814956
-0.0742101
-0.0815178
-0.0871819
-0.0905134
-0.0924475
-0.0937229
-0.0948375
-0.0963037
-0.0986791
-0.101937
-0.101611
-0.0968285
-0.0944662
-0.0935217
-0.0929871
-0.0924666
-0.0917895
-0.091303
-0.0907683
-0.0903136
-0.0904619
-0.0917154
-0.0904833
-0.0892997
-0.0885156
-0.0875137
-0.0857868
-0.0856167
-0.0835963
-0.0799803
-0.0734986
-0.0647592
0
0
-0.00319722
-2.18942e-05
-0.0126886
-0.0189605
-0.0259508
-0.0333398
-0.0415364
-0.0500251
-0.0583044
-0.0658997
-0.0722675
-0.0780306
-0.0831824
-0.0876432
-0.0912366
-0.0938755
-0.0957516
-0.0972756
-0.0984456
-0.0985537
-0.0981926
-0.0976788
-0.0970932
-0.0963785
-0.0953624
-0.0937227
-0.091055
-0.0886898
-0.0887886
-0.0903211
-0.0921406
-0.0937352
-0.0949888
-0.09596
-0.0968189
-0.0980131
-0.100428
-0.106565
-0.12172
-0.10036
-0.0962993
-0.0955832
-0.0953312
-0.0950012
-0.0917895
-0.0940261
-0.0935406
-0.0931474
-0.0936128
-0.0966881
-0.0939045
-0.0925075
-0.0920178
-0.0921842
-0.0943488
-0.0911489
-0.0887679
-0.0855847
-0.0786551
-0.0657597
0
0
-0.0032817
-0.00792338
-0.0136827
-0.0205353
-0.0280981
-0.0360255
-0.044665
-0.0536914
-0.0625611
-0.070667
-0.0767182
-0.0829137
-0.0885891
-0.0935815
-0.0974818
-0.100118
-0.101824
-0.103121
-0.103604
-0.103413
-0.102859
-0.102134
-0.101306
-0.10037
-0.0992765
-0.0979731
-0.0964678
-0.0944956
-0.0974299
-0.0969326
-0.096958
-0.0974544
-0.0980105
-0.0983923
-0.09847
-0.0981213
-0.0961512
-0.0869533
-0.0454149
-0.0821988
-0.0923955
-0.0957103
-0.0967741
-0.0970075
-0.0968487
-0.0966464
-0.0963216
-0.0959389
-0.0960712
-0.158017
-0.0966155
-0.0957429
-0.0957201
-0.0959776
-0.0962218
-0.0954189
-0.0951508
-0.093583
-0.0913397
-0.0889058
0
0
-0.00345106
-0.00853076
-0.01467
-0.0222993
-0.0304202
-0.037683
-0.0472915
-0.0572381
-0.0669245
-0.0758031
-0.0804367
-0.0877221
-0.0940688
-0.0998217
-0.104018
-0.106386
-0.107725
-0.109141
-0.109134
-0.108491
-0.107623
-0.106665
-0.105645
-0.104596
-0.103567
-0.102607
-0.101371
-0.0993351
-0.17306
-0.101609
-0.101077
-0.101185
-0.101315
-0.101059
-0.100388
-0.0988072
-0.0954536
-0.0890588
-0.0812711
-0.0878502
-0.0937265
-0.0967367
-0.0982386
-0.0989708
-0.0992774
-0.0993506
-0.0993576
-0.0994701
-0.100112
-0.101891
-0.10039
-0.0996733
-0.0996232
-0.0998161
-0.0999468
-0.100049
-0.0999849
-0.0988991
-0.0958803
-0.0898901
0
0
-0.00365487
-0.00909722
-0.0154693
-0.0359583
-0.0330123
0
-0.0502347
-0.0609417
-0.0714134
-0.0815141
-0.0167278
-0.0931157
-0.0996554
-0.106745
-0.110858
-0.112477
-0.113212
-0.115579
-0.114686
-0.113518
-0.112386
-0.111241
-0.11005
-0.108901
-0.107927
-0.107474
-0.108026
-0.105565
-0.106885
-0.105985
-0.105442
-0.105267
-0.105108
-0.10436
-0.103067
-0.101177
-0.098579
-0.0957384
-0.0946379
-0.0958668
-0.0978338
-0.0993953
-0.100506
-0.101367
-0.101919
-0.102187
-0.102456
-0.102792
-0.103224
-0.103563
-0.1033
-0.103199
-0.103421
-0.103742
-0.103917
-0.104092
-0.103741
-0.102172
-0.0983354
-0.0915343
0
0
-0.00387934
-0.0097199
-0.0166557
-0.0250728
-0.0339782
-0.0425227
-0.0532028
-0.0643278
-0.075193
-0.0847603
-0.0909872
-0.0983691
-0.104469
-0.115464
-0.116938
-0.117758
-0.117953
-0.171002
-0.119699
-0.11835
-0.117152
-0.115886
-0.114464
-0.113121
-0.111853
-0.11021
-0.105219
-0.108501
-0.109426
-0.109395
-0.109243
-0.109276
-0.109326
-0.108315
-0.106585
-0.104763
-0.103002
-0.101739
-0.101508
-0.101807
-0.102358
-0.102895
-0.103207
-0.104259
-0.104905
-0.105156
-0.105565
-0.105959
-0.106209
-0.106164
-0.106051
-0.106389
-0.10702
-0.107577
-0.107635
-0.107654
-0.10682
-0.104624
-0.100502
-0.0935235
0
0
-0.00410138
-0.0103139
-0.0176507
-0.0261535
-0.0354675
-0.0453729
-0.0562854
-0.0678763
-0.0793663
-0.0896668
-0.0973107
-0.104355
-0.110244
-0.231077
-0.122099
-0.123173
-0.124287
-0.125788
-0.12491
-0.123625
-0.122237
-0.12073
-0.118864
-0.117317
-0.115949
-0.114463
-0.112922
-0.112927
-0.112868
-0.11274
-0.112738
-0.113135
-0.114041
-0.113562
-0.110746
-0.108894
-0.10743
-0.106641
-0.106411
-0.106429
-0.106565
-0.106896
-0.108174
-0.10779
-0.108183
-0.108259
-0.108774
-0.109177
-0.10933
-0.108997
-0.108591
-0.109441
-0.110483
-0.111272
-0.111174
-0.11105
-0.109604
-0.106619
-0.10268
-0.0957291
0
0
-0.00432037
-0.0108951
-0.0186165
-0.0274688
-0.0372707
-0.0478101
-0.0590045
-0.0713991
-0.083901
-0.0966186
-0.103004
-0.110707
-0.117897
-0.125597
-0.128213
-0.129623
-0.130525
-0.130829
-0.130099
-0.128845
-0.127385
-0.125712
-0.123036
-0.121501
-0.120304
-0.119122
-0.1181
-0.117267
-0.116555
-0.116088
-0.11588
-0.116294
-0.118433
-0.124211
-0.11468
-0.113285
-0.111201
-0.110625
-0.110414
-0.11034
-0.11029
-0.110272
-0.110583
-0.110756
-0.110945
-0.111888
-0.112226
-0.112526
-0.112634
-0.111829
-0.110264
-0.112878
-0.113891
-0.114253
-0.115304
-0.114653
-0.112367
-0.10799
-0.104955
-0.0980992
0
0
-0.00454328
-0.0114933
-0.019637
-0.0289625
-0.0393121
-0.0502709
-0.0607592
-0.074579
-0.0860881
-0.0921499
-0.106454
-0.116335
-0.124124
-0.13014
-0.133751
-0.135573
-0.136323
-0.13646
-0.135492
-0.134107
-0.132604
-0.130935
-0.126605
-0.125741
-0.124849
-0.123706
-0.122523
-0.121014
-0.120226
-0.119262
-0.118277
-0.117021
-0.11293
-0.0929343
-0.108244
-0.109328
-0.112777
-0.113559
-0.113751
-0.113776
-0.113623
-0.11321
-0.113397
-0.113847
-0.114334
-0.114941
-0.11539
-0.115801
-0.116116
-0.115112
-0.111422
-0.11654
-0.117565
-0.118008
-0.118482
-0.118053
-0.115374
-0.108328
-0.107622
-0.100581
0
0
-0.00477367
-0.0121206
-0.0207333
-0.0306357
-0.0417719
-0.054158
-0.0693549
-0.0794461
-0.0905937
-0.10126
-0.112633
-0.122361
-0.130151
-0.135929
-0.13978
-0.142048
-0.143592
-0.142371
-0.140958
-0.139344
-0.137795
-0.136502
-0.0706041
-0.130574
-0.129564
-0.128123
-0.126702
-0.117267
-0.123715
-0.122292
-0.120242
-0.118858
-0.115456
-0.111049
-0.112976
-0.114282
-0.115639
-0.116398
-0.116801
-0.11699
-0.116788
-0.115732
-0.116238
-0.116983
-0.117585
-0.118063
-0.118466
-0.118842
-0.119195
-0.11948
-0.0370479
-0.13797
-0.121013
-0.121303
-0.121604
-0.121436
-0.119343
-0.0253632
-0.111282
-0.103075
0
0
-0.00500794
-0.0127648
-0.021873
-0.0323801
-0.0442289
-0.0572912
-0.0710954
-0.0829228
-0.0954091
-0.107701
-0.119065
-0.128761
-0.136514
-0.14226
-0.14615
-0.148343
-0.14888
-0.147921
-0.146293
-0.144392
-0.142421
-0.140104
-0.136658
-0.135131
-0.133719
-0.131987
-0.130296
-0.128599
-0.127298
-0.126153
-0.126232
-0.122888
-0.120403
-0.118914
-0.118626
-0.118846
-0.119237
-0.119618
-0.119966
-0.120257
-0.120074
-0.117672
-0.119182
-0.120222
-0.12079
-0.121158
-0.121459
-0.121719
-0.121852
-0.121511
-0.119841
-0.122722
-0.123688
-0.124154
-0.124291
-0.123752
-0.121556
-0.116389
-0.113147
-0.105459
0
0
-0.00523537
-0.013396
-0.0230139
-0.0341517
-0.0466943
-0.060435
-0.0747933
-0.0859148
-0.100133
-0.113624
-0.12546
-0.135341
-0.143129
-0.148843
-0.152687
-0.154686
-0.15462
-0.153333
-0.151428
-0.149276
-0.147142
-0.144778
-0.142006
-0.139982
-0.138045
-0.135713
-0.133856
-0.132262
-0.130862
-0.129587
-0.128342
-0.12651
-0.124885
-0.123816
-0.123183
-0.122899
-0.122841
-0.122939
-0.123165
-0.123516
-0.123702
-0.0743128
-0.122679
-0.123539
-0.123901
-0.124145
-0.124358
-0.124542
-0.124651
-0.124653
-0.124766
-0.125646
-0.126422
-0.126913
-0.127025
-0.126517
-0.124838
-0.121653
-0.116248
-0.107923
0
0
-0.00543471
-0.0139605
-0.0241131
-0.0359583
-0.049232
-0.0638076
-0.0796284
-0.0202486
-0.105643
-0.119834
-0.132002
-0.142034
-0.149882
-0.155517
-0.159292
-0.161226
-0.160376
-0.15863
-0.156437
-0.15408
-0.152049
-0.149441
-0.146719
-0.144233
-0.142013
-0.139191
-0.137404
-0.135827
-0.134333
-0.132896
-0.131445
-0.129991
-0.128698
-0.127682
-0.126936
-0.12645
-0.12619
-0.12611
-0.126156
-0.126205
-0.125918
-0.124647
-0.125594
-0.126305
-0.12672
-0.126974
-0.127175
-0.127362
-0.127555
-0.127826
-0.128273
-0.12883
-0.129418
-0.129878
-0.130053
-0.129813
-0.129045
-0.125577
-0.119444
-0.110514
0
0
-0.00556451
-0.0143501
-0.0251574
-0.037853
-0.0517951
-0.0667929
-0.0821633
-0.0957607
-0.111332
-0.125804
-0.138367
-0.148732
-0.15672
-0.162269
-0.165564
-0.167985
-0.165803
-0.163831
-0.161467
-0.158884
-0.157265
-0.154082
-0.150938
-0.14793
-0.144616
-0.143202
-0.141249
-0.139408
-0.137731
-0.13617
-0.134689
-0.133314
-0.132081
-0.131019
-0.130182
-0.129598
-0.129246
-0.129076
-0.129023
-0.128977
-0.128821
-0.128615
-0.128874
-0.129262
-0.129572
-0.129765
-0.129943
-0.130143
-0.130386
-0.13078
-0.131334
-0.131936
-0.132532
-0.133023
-0.133226
-0.132977
-0.131895
-0.128829
-0.122481
-0.113197
0
0
-0.005564
-0.0142966
-0.0265027
-0.0398651
-0.0545427
-0.070169
-0.0861889
-0.101978
-0.117688
-0.13232
-0.145144
-0.155719
-0.163855
-0.16965
-0.174396
-0.175059
-0.171002
-0.16935
-0.167087
-0.163815
-0.18887
-0.158307
-0.154906
-0.151752
-0.148321
-0.146186
-0.144331
-0.142566
-0.140879
-0.139287
-0.137797
-0.136419
-0.135146
-0.13397
-0.13304
-0.132409
-0.132035
-0.131852
-0.131805
-0.13181
-0.131808
-0.1318
-0.131986
-0.132294
-0.13251
-0.132563
-0.132678
-0.132859
-0.133067
-0.133536
-0.134228
-0.13497
-0.135677
-0.136259
-0.136428
-0.136058
-0.134908
-0.131915
-0.125481
-0.11593
0
0
-0.00557612
-0.0126605
-0.0280608
-0.0425868
-0.0579627
-0.0742686
-0.0911267
-0.107961
-0.124205
-0.139189
-0.152275
-0.163
-0.171116
-0.176515
-0.17877
-0.176704
-0.179554
-0.177112
-0.17341
-0.16958
-0.166317
-0.162394
-0.158821
-0.155574
-0.151169
-0.149157
-0.14737
-0.145583
-0.143852
-0.14222
-0.140705
-0.139299
-0.13794
-0.136551
-0.135528
-0.134912
-0.13458
-0.134435
-0.134454
-0.134559
-0.134668
-0.13462
-0.134901
-0.135341
-0.135525
-0.135339
-0.135391
-0.135539
-0.135581
-0.136133
-0.137043
-0.13797
-0.138824
-0.139555
-0.139614
-0.1391
-0.137899
-0.134779
-0.128571
-0.118714
0
0
-0.00765305
-0.0227347
-0.0325177
-0.0462158
-0.0619849
-0.0789452
-0.096652
-0.114256
-0.131