# vtk DataFile Version 2.0
FlowField
ASCII
DATASET STRUCTURED_GRID
DIMENSIONS 62 47 32 
POINTS 93248 double
0 0 0
0.01 0 0
0.02 0 0
0.03 0 0
0.04 0 0
0.05 0 0
0.06 0 0
0.07 0 0
0.08 0 0
0.09 0 0
0.1 0 0
0.11 0 0
0.12 0 0
0.13 0 0
0.14 0 0
0.15 0 0
0.16 0 0
0.17 0 0
0.18 0 0
0.19 0 0
0.2 0 0
0.21 0 0
0.22 0 0
0.23 0 0
0.24 0 0
0.25 0 0
0.26 0 0
0.27 0 0
0.28 0 0
0.29 0 0
0.3 0 0
0.31 0 0
0.32 0 0
0.33 0 0
0.34 0 0
0.35 0 0
0.36 0 0
0.37 0 0
0.38 0 0
0.39 0 0
0.4 0 0
0.41 0 0
0.42 0 0
0.43 0 0
0.44 0 0
0.45 0 0
0.46 0 0
0.47 0 0
0.48 0 0
0.49 0 0
0.5 0 0
0.51 0 0
0.52 0 0
0.53 0 0
0.54 0 0
0.55 0 0
0.56 0 0
0.57 0 0
0.58 0 0
0.59 0 0
0.6 0 0
0.61 0 0
0 0.01 0
0.01 0.01 0
0.02 0.01 0
0.03 0.01 0
0.04 0.01 0
0.05 0.01 0
0.06 0.01 0
0.07 0.01 0
0.08 0.01 0
0.09 0.01 0
0.1 0.01 0
0.11 0.01 0
0.12 0.01 0
0.13 0.01 0
0.14 0.01 0
0.15 0.01 0
0.16 0.01 0
0.17 0.01 0
0.18 0.01 0
0.19 0.01 0
0.2 0.01 0
0.21 0.01 0
0.22 0.01 0
0.23 0.01 0
0.24 0.01 0
0.25 0.01 0
0.26 0.01 0
0.27 0.01 0
0.28 0.01 0
0.29 0.01 0
0.3 0.01 0
0.31 0.01 0
0.32 0.01 0
0.33 0.01 0
0.34 0.01 0
0.35 0.01 0
0.36 0.01 0
0.37 0.01 0
0.38 0.01 0
0.39 0.01 0
0.4 0.01 0
0.41 0.01 0
0.42 0.01 0
0.43 0.01 0
0.44 0.01 0
0.45 0.01 0
0.46 0.01 0
0.47 0.01 0
0.48 0.01 0
0.49 0.01 0
0.5 0.01 0
0.51 0.01 0
0.52 0.01 0
0.53 0.01 0
0.54 0.01 0
0.55 0.01 0
0.56 0.01 0
0.57 0.01 0
0.58 0.01 0
0.59 0.01 0
0.6 0.01 0
0.61 0.01 0
0 0.02 0
0.01 0.02 0
0.02 0.02 0
0.03 0.02 0
0.04 0.02 0
0.05 0.02 0
0.06 0.02 0
0.07 0.02 0
0.08 0.02 0
0.09 0.02 0
0.1 0.02 0
0.11 0.02 0
0.12 0.02 0
0.13 0.02 0
0.14 0.02 0
0.15 0.02 0
0.16 0.02 0
0.17 0.02 0
0.18 0.02 0
0.19 0.02 0
0.2 0.02 0
0.21 0.02 0
0.22 0.02 0
0.23 0.02 0
0.24 0.02 0
0.25 0.02 0
0.26 0.02 0
0.27 0.02 0
0.28 0.02 0
0.29 0.02 0
0.3 0.02 0
0.31 0.02 0
0.32 0.02 0
0.33 0.02 0
0.34 0.02 0
0.35 0.02 0
0.36 0.02 0
0.37 0.02 0
0.38 0.02 0
0.39 0.02 0
0.4 0.02 0
0.41 0.02 0
0.42 0.02 0
0.43 0.02 0
0.44 0.02 0
0.45 0.02 0
0.46 0.02 0
0.47 0.02 0
0.48 0.02 0
0.49 0.02 0
0.5 0.02 0
0.51 0.02 0
0.52 0.02 0
0.53 0.02 0
0.54 0.02 0
0.55 0.02 0
0.56 0.02 0
0.57 0.02 0
0.58 0.02 0
0.59 0.02 0
0.6 0.02 0
0.61 0.02 0
0 0.03 0
0.01 0.03 0
0.02 0.03 0
0.03 0.03 0
0.04 0.03 0
0.05 0.03 0
0.06 0.03 0
0.07 0.03 0
0.08 0.03 0
0.09 0.03 0
0.1 0.03 0
0.11 0.03 0
0.12 0.03 0
0.13 0.03 0
0.14 0.03 0
0.15 0.03 0
0.16 0.03 0
0.17 0.03 0
0.18 0.03 0
0.19 0.03 0
0.2 0.03 0
0.21 0.03 0
0.22 0.03 0
0.23 0.03 0
0.24 0.03 0
0.25 0.03 0
0.26 0.03 0
0.27 0.03 0
0.28 0.03 0
0.29 0.03 0
0.3 0.03 0
0.31 0.03 0
0.32 0.03 0
0.33 0.03 0
0.34 0.03 0
0.35 0.03 0
0.36 0.03 0
0.37 0.03 0
0.38 0.03 0
0.39 0.03 0
0.4 0.03 0
0.41 0.03 0
0.42 0.03 0
0.43 0.03 0
0.44 0.03 0
0.45 0.03 0
0.46 0.03 0
0.47 0.03 0
0.48 0.03 0
0.49 0.03 0
0.5 0.03 0
0.51 0.03 0
0.52 0.03 0
0.53 0.03 0
0.54 0.03 0
0.55 0.03 0
0.56 0.03 0
0.57 0.03 0
0.58 0.03 0
0.59 0.03 0
0.6 0.03 0
0.61 0.03 0
0 0.04 0
0.01 0.04 0
0.02 0.04 0
0.03 0.04 0
0.04 0.04 0
0.05 0.04 0
0.06 0.04 0
0.07 0.04 0
0.08 0.04 0
0.09 0.04 0
0.1 0.04 0
0.11 0.04 0
0.12 0.04 0
0.13 0.04 0
0.14 0.04 0
0.15 0.04 0
0.16 0.04 0
0.17 0.04 0
0.18 0.04 0
0.19 0.04 0
0.2 0.04 0
0.21 0.04 0
0.22 0.04 0
0.23 0.04 0
0.24 0.04 0
0.25 0.04 0
0.26 0.04 0
0.27 0.04 0
0.28 0.04 0
0.29 0.04 0
0.3 0.04 0
0.31 0.04 0
0.32 0.04 0
0.33 0.04 0
0.34 0.04 0
0.35 0.04 0
0.36 0.04 0
0.37 0.04 0
0.38 0.04 0
0.39 0.04 0
0.4 0.04 0
0.41 0.04 0
0.42 0.04 0
0.43 0.04 0
0.44 0.04 0
0.45 0.04 0
0.46 0.04 0
0.47 0.04 0
0.48 0.04 0
0.49 0.04 0
0.5 0.04 0
0.51 0.04 0
0.52 0.04 0
0.53 0.04 0
0.54 0.04 0
0.55 0.04 0
0.56 0.04 0
0.57 0.04 0
0.58 0.04 0
0.59 0.04 0
0.6 0.04 0
0.61 0.04 0
0 0.05 0
0.01 0.05 0
0.02 0.05 0
0.03 0.05 0
0.04 0.05 0
0.05 0.05 0
0.06 0.05 0
0.07 0.05 0
0.08 0.05 0
0.09 0.05 0
0.1 0.05 0
0.11 0.05 0
0.12 0.05 0
0.13 0.05 0
0.14 0.05 0
0.15 0.05 0
0.16 0.05 0
0.17 0.05 0
0.18 0.05 0
0.19 0.05 0
0.2 0.05 0
0.21 0.05 0
0.22 0.05 0
0.23 0.05 0
0.24 0.05 0
0.25 0.05 0
0.26 0.05 0
0.27 0.05 0
0.28 0.05 0
0.29 0.05 0
0.3 0.05 0
0.31 0.05 0
0.32 0.05 0
0.33 0.05 0
0.34 0.05 0
0.35 0.05 0
0.36 0.05 0
0.37 0.05 0
0.38 0.05 0
0.39 0.05 0
0.4 0.05 0
0.41 0.05 0
0.42 0.05 0
0.43 0.05 0
0.44 0.05 0
0.45 0.05 0
0.46 0.05 0
0.47 0.05 0
0.48 0.05 0
0.49 0.05 0
0.5 0.05 0
0.51 0.05 0
0.52 0.05 0
0.53 0.05 0
0.54 0.05 0
0.55 0.05 0
0.56 0.05 0
0.57 0.05 0
0.58 0.05 0
0.59 0.05 0
0.6 0.05 0
0.61 0.05 0
0 0.06 0
0.01 0.06 0
0.02 0.06 0
0.03 0.06 0
0.04 0.06 0
0.05 0.06 0
0.06 0.06 0
0.07 0.06 0
0.08 0.06 0
0.09 0.06 0
0.1 0.06 0
0.11 0.06 0
0.12 0.06 0
0.13 0.06 0
0.14 0.06 0
0.15 0.06 0
0.16 0.06 0
0.17 0.06 0
0.18 0.06 0
0.19 0.06 0
0.2 0.06 0
0.21 0.06 0
0.22 0.06 0
0.23 0.06 0
0.24 0.06 0
0.25 0.06 0
0.26 0.06 0
0.27 0.06 0
0.28 0.06 0
0.29 0.06 0
0.3 0.06 0
0.31 0.06 0
0.32 0.06 0
0.33 0.06 0
0.34 0.06 0
0.35 0.06 0
0.36 0.06 0
0.37 0.06 0
0.38 0.06 0
0.39 0.06 0
0.4 0.06 0
0.41 0.06 0
0.42 0.06 0
0.43 0.06 0
0.44 0.06 0
0.45 0.06 0
0.46 0.06 0
0.47 0.06 0
0.48 0.06 0
0.49 0.06 0
0.5 0.06 0
0.51 0.06 0
0.52 0.06 0
0.53 0.06 0
0.54 0.06 0
0.55 0.06 0
0.56 0.06 0
0.57 0.06 0
0.58 0.06 0
0.59 0.06 0
0.6 0.06 0
0.61 0.06 0
0 0.07 0
0.01 0.07 0
0.02 0.07 0
0.03 0.07 0
0.04 0.07 0
0.05 0.07 0
0.06 0.07 0
0.07 0.07 0
0.08 0.07 0
0.09 0.07 0
0.1 0.07 0
0.11 0.07 0
0.12 0.07 0
0.13 0.07 0
0.14 0.07 0
0.15 0.07 0
0.16 0.07 0
0.17 0.07 0
0.18 0.07 0
0.19 0.07 0
0.2 0.07 0
0.21 0.07 0
0.22 0.07 0
0.23 0.07 0
0.24 0.07 0
0.25 0.07 0
0.26 0.07 0
0.27 0.07 0
0.28 0.07 0
0.29 0.07 0
0.3 0.07 0
0.31 0.07 0
0.32 0.07 0
0.33 0.07 0
0.34 0.07 0
0.35 0.07 0
0.36 0.07 0
0.37 0.07 0
0.38 0.07 0
0.39 0.07 0
0.4 0.07 0
0.41 0.07 0
0.42 0.07 0
0.43 0.07 0
0.44 0.07 0
0.45 0.07 0
0.46 0.07 0
0.47 0.07 0
0.48 0.07 0
0.49 0.07 0
0.5 0.07 0
0.51 0.07 0
0.52 0.07 0
0.53 0.07 0
0.54 0.07 0
0.55 0.07 0
0.56 0.07 0
0.57 0.07 0
0.58 0.07 0
0.59 0.07 0
0.6 0.07 0
0.61 0.07 0
0 0.08 0
0.01 0.08 0
0.02 0.08 0
0.03 0.08 0
0.04 0.08 0
0.05 0.08 0
0.06 0.08 0
0.07 0.08 0
0.08 0.08 0
0.09 0.08 0
0.1 0.08 0
0.11 0.08 0
0.12 0.08 0
0.13 0.08 0
0.14 0.08 0
0.15 0.08 0
0.16 0.08 0
0.17 0.08 0
0.18 0.08 0
0.19 0.08 0
0.2 0.08 0
0.21 0.08 0
0.22 0.08 0
0.23 0.08 0
0.24 0.08 0
0.25 0.08 0
0.26 0.08 0
0.27 0.08 0
0.28 0.08 0
0.29 0.08 0
0.3 0.08 0
0.31 0.08 0
0.32 0.08 0
0.33 0.08 0
0.34 0.08 0
0.35 0.08 0
0.36 0.08 0
0.37 0.08 0
0.38 0.08 0
0.39 0.08 0
0.4 0.08 0
0.41 0.08 0
0.42 0.08 0
0.43 0.08 0
0.44 0.08 0
0.45 0.08 0
0.46 0.08 0
0.47 0.08 0
0.48 0.08 0
0.49 0.08 0
0.5 0.08 0
0.51 0.08 0
0.52 0.08 0
0.53 0.08 0
0.54 0.08 0
0.55 0.08 0
0.56 0.08 0
0.57 0.08 0
0.58 0.08 0
0.59 0.08 0
0.6 0.08 0
0.61 0.08 0
0 0.09 0
0.01 0.09 0
0.02 0.09 0
0.03 0.09 0
0.04 0.09 0
0.05 0.09 0
0.06 0.09 0
0.07 0.09 0
0.08 0.09 0
0.09 0.09 0
0.1 0.09 0
0.11 0.09 0
0.12 0.09 0
0.13 0.09 0
0.14 0.09 0
0.15 0.09 0
0.16 0.09 0
0.17 0.09 0
0.18 0.09 0
0.19 0.09 0
0.2 0.09 0
0.21 0.09 0
0.22 0.09 0
0.23 0.09 0
0.24 0.09 0
0.25 0.09 0
0.26 0.09 0
0.27 0.09 0
0.28 0.09 0
0.29 0.09 0
0.3 0.09 0
0.31 0.09 0
0.32 0.09 0
0.33 0.09 0
0.34 0.09 0
0.35 0.09 0
0.36 0.09 0
0.37 0.09 0
0.38 0.09 0
0.39 0.09 0
0.4 0.09 0
0.41 0.09 0
0.42 0.09 0
0.43 0.09 0
0.44 0.09 0
0.45 0.09 0
0.46 0.09 0
0.47 0.09 0
0.48 0.09 0
0.49 0.09 0
0.5 0.09 0
0.51 0.09 0
0.52 0.09 0
0.53 0.09 0
0.54 0.09 0
0.55 0.09 0
0.56 0.09 0
0.57 0.09 0
0.58 0.09 0
0.59 0.09 0
0.6 0.09 0
0.61 0.09 0
0 0.1 0
0.01 0.1 0
0.02 0.1 0
0.03 0.1 0
0.04 0.1 0
0.05 0.1 0
0.06 0.1 0
0.07 0.1 0
0.08 0.1 0
0.09 0.1 0
0.1 0.1 0
0.11 0.1 0
0.12 0.1 0
0.13 0.1 0
0.14 0.1 0
0.15 0.1 0
0.16 0.1 0
0.17 0.1 0
0.18 0.1 0
0.19 0.1 0
0.2 0.1 0
0.21 0.1 0
0.22 0.1 0
0.23 0.1 0
0.24 0.1 0
0.25 0.1 0
0.26 0.1 0
0.27 0.1 0
0.28 0.1 0
0.29 0.1 0
0.3 0.1 0
0.31 0.1 0
0.32 0.1 0
0.33 0.1 0
0.34 0.1 0
0.35 0.1 0
0.36 0.1 0
0.37 0.1 0
0.38 0.1 0
0.39 0.1 0
0.4 0.1 0
0.41 0.1 0
0.42 0.1 0
0.43 0.1 0
0.44 0.1 0
0.45 0.1 0
0.46 0.1 0
0.47 0.1 0
0.48 0.1 0
0.49 0.1 0
0.5 0.1 0
0.51 0.1 0
0.52 0.1 0
0.53 0.1 0
0.54 0.1 0
0.55 0.1 0
0.56 0.1 0
0.57 0.1 0
0.58 0.1 0
0.59 0.1 0
0.6 0.1 0
0.61 0.1 0
0 0.11 0
0.01 0.11 0
0.02 0.11 0
0.03 0.11 0
0.04 0.11 0
0.05 0.11 0
0.06 0.11 0
0.07 0.11 0
0.08 0.11 0
0.09 0.11 0
0.1 0.11 0
0.11 0.11 0
0.12 0.11 0
0.13 0.11 0
0.14 0.11 0
0.15 0.11 0
0.16 0.11 0
0.17 0.11 0
0.18 0.11 0
0.19 0.11 0
0.2 0.11 0
0.21 0.11 0
0.22 0.11 0
0.23 0.11 0
0.24 0.11 0
0.25 0.11 0
0.26 0.11 0
0.27 0.11 0
0.28 0.11 0
0.29 0.11 0
0.3 0.11 0
0.31 0.11 0
0.32 0.11 0
0.33 0.11 0
0.34 0.11 0
0.35 0.11 0
0.36 0.11 0
0.37 0.11 0
0.38 0.11 0
0.39 0.11 0
0.4 0.11 0
0.41 0.11 0
0.42 0.11 0
0.43 0.11 0
0.44 0.11 0
0.45 0.11 0
0.46 0.11 0
0.47 0.11 0
0.48 0.11 0
0.49 0.11 0
0.5 0.11 0
0.51 0.11 0
0.52 0.11 0
0.53 0.11 0
0.54 0.11 0
0.55 0.11 0
0.56 0.11 0
0.57 0.11 0
0.58 0.11 0
0.59 0.11 0
0.6 0.11 0
0.61 0.11 0
0 0.12 0
0.01 0.12 0
0.02 0.12 0
0.03 0.12 0
0.04 0.12 0
0.05 0.12 0
0.06 0.12 0
0.07 0.12 0
0.08 0.12 0
0.09 0.12 0
0.1 0.12 0
0.11 0.12 0
0.12 0.12 0
0.13 0.12 0
0.14 0.12 0
0.15 0.12 0
0.16 0.12 0
0.17 0.12 0
0.18 0.12 0
0.19 0.12 0
0.2 0.12 0
0.21 0.12 0
0.22 0.12 0
0.23 0.12 0
0.24 0.12 0
0.25 0.12 0
0.26 0.12 0
0.27 0.12 0
0.28 0.12 0
0.29 0.12 0
0.3 0.12 0
0.31 0.12 0
0.32 0.12 0
0.33 0.12 0
0.34 0.12 0
0.35 0.12 0
0.36 0.12 0
0.37 0.12 0
0.38 0.12 0
0.39 0.12 0
0.4 0.12 0
0.41 0.12 0
0.42 0.12 0
0.43 0.12 0
0.44 0.12 0
0.45 0.12 0
0.46 0.12 0
0.47 0.12 0
0.48 0.12 0
0.49 0.12 0
0.5 0.12 0
0.51 0.12 0
0.52 0.12 0
0.53 0.12 0
0.54 0.12 0
0.55 0.12 0
0.56 0.12 0
0.57 0.12 0
0.58 0.12 0
0.59 0.12 0
0.6 0.12 0
0.61 0.12 0
0 0.13 0
0.01 0.13 0
0.02 0.13 0
0.03 0.13 0
0.04 0.13 0
0.05 0.13 0
0.06 0.13 0
0.07 0.13 0
0.08 0.13 0
0.09 0.13 0
0.1 0.13 0
0.11 0.13 0
0.12 0.13 0
0.13 0.13 0
0.14 0.13 0
0.15 0.13 0
0.16 0.13 0
0.17 0.13 0
0.18 0.13 0
0.19 0.13 0
0.2 0.13 0
0.21 0.13 0
0.22 0.13 0
0.23 0.13 0
0.24 0.13 0
0.25 0.13 0
0.26 0.13 0
0.27 0.13 0
0.28 0.13 0
0.29 0.13 0
0.3 0.13 0
0.31 0.13 0
0.32 0.13 0
0.33 0.13 0
0.34 0.13 0
0.35 0.13 0
0.36 0.13 0
0.37 0.13 0
0.38 0.13 0
0.39 0.13 0
0.4 0.13 0
0.41 0.13 0
0.42 0.13 0
0.43 0.13 0
0.44 0.13 0
0.45 0.13 0
0.46 0.13 0
0.47 0.13 0
0.48 0.13 0
[...]
POINT_DATA 93248

SCALARS v double
LOOKUP_TABLE default
0
0
0
0
0
0
0
0
0
0
0
0
0
0
0
0
0
0
0
0
0
0
0
0
0
0
0
0
0
0
0
0
0
0
0
0
0
0
0
0
0
0
0
0
0
0
0
0
0
0
0
0
0
0
0
0
0
0
0
0
0
0
0
-0.0067737
-0.0095104
-0.00677283
-0.00677211
-0.0067712
0
-0.00676886
-0.00676743
-0.00676583
-0.00676407
-0.00676216
-0.0067601
-0.00675789
-0.00675555
-0.00675307
-0.00675048
-0.00674777
-0.00674496
-0.00674205
-0.00673905
-0.00673598
-0.00673283
-0.00672962
-0.00672636
-0.00672305
-0.00671971
-0.00671635
-0.00671297
-0.00670959
-0.00670621
-0.00670285
-0.0066995
-0.00669619
-0.00669292
-0.0066897
-0.00725431
-0.00668344
-0.00668042
-0.00667749
-0.00667464
-0.00704978
-0.00666925
-0.00666672
-0.00666431
-0.00666202
-0.00874047
-0.00665784
-0.00671881
-0.00665422
-0.00665263
-0.00665119
-0.00664991
-0.00664879
-0.00727609
-0.00664703
-0.00784115
-0.00664592
-0.00664561
-0.00664547
-0.0066455
0
0
-0.00683739
-0.00683705
-0.00683651
-0.00683579
-0.00683488
-0.00683379
-0.00683252
-0.00683108
-0.00682947
-0.0068277
-0.00682577
-0.00847679
-0.00682147
-0.00681911
-0.00726139
-0.00681401
-0.00681128
-0.00680845
-0.00680552
-0.00890356
-0.0067994
-0.00679623
-0.006793
-0.00678971
-0.00678638
-0.00678302
-0.00677964
-0.00677623
-0.00677283
-0.00676942
-0.00676604
-0.008153
-0.00675934
-0.00675604
-0.0067528
-0.00674961
-0.0067465
-0.00674346
-0.0067405
-0.00673763
-0.00673486
-0.0067322
-0.00672965
-0.00672722
-0.00672492
-0.00672275
-0.00672071
-0.00671881
-0.00671706
-0.00671547
-0.00671402
-0.00671273
-0.0067116
-0.00671063
-0.00670982
-0.00670918
-0.0081545
-0.0067084
-0.00670826
-0.00670828
0
0
-0.00690108
-0.00690073
-0.00690019
-0.00689946
-0.00689854
-0.00689745
-0.00689617
-0.00689472
-0.0068931
-0.00689132
-0.00688937
-0.00688728
-0.00688504
-0.00688267
-0.00688016
-0.00687753
0
-0.00687193
-0.00686898
-0.00686594
-0.00686282
-0.00685963
-0.00685638
-0.00685307
-0.00684972
-0.00684633
-0.00684292
-0.0068395
-0.00683607
-0.00683264
-0.00682923
-0.00682584
-0.00682248
-0.00681916
-0.0068159
-0.00681269
-0.00680955
-0.00680649
-0.00680351
-0.00680063
-0.00679784
-0.00679516
-0.00679259
-0.00679015
-0.00678783
-0.00678564
-0.00678359
-0.00678168
-0.00677992
-0.00677831
-0.00677685
-0.00677555
-0.00677441
-0.00677344
-0.00677263
-0.00677198
-0.0067715
-0.00677119
-0.00677105
-0.00677108
0
0
-0.00696476
-0.00696441
-0.00696386
-0.00696313
-0.00696221
-0.0069611
-0.00695982
-0.00695836
-0.00695673
-0.00695493
-0.00695298
-0.00695087
-0.00694862
-0.00694622
-0.0069437
-0.00694105
-0.00693829
-0.00693542
-0.00693245
-0.00692939
-0.00692625
-0.00692303
-0.00691975
-0.00691642
-0.00691305
-0.00690964
-0.00690621
-0.00690276
-0.00689931
-0.00689586
-0.00689242
-0.00688901
-0.00688563
-0.00688229
-0.006879
-0.00687577
-0.00687261
-0.00686953
-0.00686653
-0.00686362
-0.00686082
-0.00685812
-0.00685554
-0.00685307
-0.00685074
-0.00684853
-0.00684647
-0.00684455
-0.00684277
-0.00684115
-0.00683969
-0.00683838
-0.00683723
-0.00683625
-0.00683543
-0.00683479
-0.0068343
-0.00683399
-0.00683385
-0.00683387
0
0
-0.00702844
-0.00702809
-0.00702754
-0.0070268
-0.00702587
-0.00702476
-0.00702347
-0.007022
-0.00702035
-0.00701855
-0.00701658
-0.00701446
-0.00701219
-0.00700978
-0.00700724
-0.00700457
-0.00700179
-0.0069989
-0.00699591
-0.00699283
-0.00698967
-0.00698643
-0.00698313
-0.00697978
-0.00697638
-0.00697295
-0.00696949
-0.00696602
-0.00696255
-0.00695907
-0.00695561
-0.00695218
-0.00694877
-0.00694541
-0.0069421
-0.00693885
-0.00693567
-0.00693257
-0.00692955
-0.00692662
-0.0069238
-0.00692108
-0.00691848
-0.006916
-0.00691365
0
-0.00690935
-0.00690742
-0.00690563
-0.006904
-0.00690253
-0.00690121
-0.00690006
-0.00689907
-0.00689825
-0.00689759
-0.00689711
-0.0068968
-0.00689665
-0.00689668
0
0
-0.00709212
-0.00709176
-0.00709121
-0.00709047
-0.00708953
-0.00708841
-0.00708711
0
-0.00708398
-0.00708216
-0.00708018
-0.00707804
-0.00707576
-0.00707334
-0.00707078
-0.00706809
-0.00706529
-0.00706238
-0.00705937
-0.00705627
-0.00705309
-0.00704983
-0.00704651
-0.00704314
-0.00703972
-0.00703626
-0.00703278
-0.00702929
-0.00702579
-0.00702229
-0.00701881
-0.00701535
-0.009161
-0.00700854
-0.00700521
-0.00700194
-0.00699874
-0.00699561
-0.00699257
-0.00698963
-0.00698679
-0.00698405
-0.00698143
-0.00697894
-0.00697657
-0.00697434
-0.00697224
-0.0069703
-0.0069685
-0.00696686
-0.00696537
-0.00696405
-0.00696289
-0.00696189
-0.00696106
-0.00696041
-0.00695992
-0.0069596
-0.00695946
-0.00695948
0
0
-0.00715579
-0.00715543
-0.00715488
-0.00715413
-0.00715319
-0.00715206
-0.00715075
-0.00714926
-0.0071476
-0.00714577
-0.00714378
-0.00714163
-0.00713933
-0.00713689
-0.00713431
-0.00713161
-0.0071288
-0.00712587
-0.00712284
-0.00711972
-0.00711651
-0.00711323
-0.00710989
-0.00710649
-0.00710305
-0.00709957
-0.00709607
-0.00709255
-0.00708903
-0.00708551
-0.00708201
-0.00707853
-0.00707508
-0.00707167
-0.00706832
-0.00706503
-0.0070618
-0.00705866
-0.0070556
-0.00705264
-0.00704978
-0.00704702
-0.00704439
-0.00704188
-0.00703949
-0.00703725
-0.00703514
-0.00703318
-0.00703137
-0.00702972
-0.00702822
-0.00702689
-0.00702572
-0.00702472
-0.00702389
-0.00702323
-0.00702274
-0.00809122
-0.00702227
-0.0070223
0
0
-0.00721946
-0.0072191
-0.00721855
-0.00721779
-0.00721685
-0.00721571
-0.00721439
-0.00721289
-0.00721122
-0.00720938
-0.00720737
-0.00720521
-0.00701219
-0.00720044
-0.00719785
-0.00719513
-0.0071923
-0.00718935
-0.0071863
-0.00718316
-0.00717993
-0.00717663
-0.00717327
-0.00716985
-0.00709957
-0.00716289
-0.00715936
-0.00715582
-0.00715228
-0.00714874
-0.00714521
-0.00714171
-0.00713824
-0.00713481
-0.00713143
-0.00712812
-0.00712488
-0.00712171
-0.00711863
-0.00711565
-0.00711277
-0.00711
-0.00710735
-0.00710482
-0.00710242
-0.00710016
-0.00709804
-0.00709607
-0.00709425
-0.00709258
-0.00709108
-0.00708974
-0.00708856
-0.00708755
-0.00708672
-0.00708605
-0.00708556
-0.00708524
-0.00708509
-0.00708512
0
0
-0.00728313
-0.00728277
-0.00728221
-0.00728145
-0.0072805
-0.00727936
-0.00727803
-0.00727652
-0.00727484
-0.00727299
-0.00727097
-0.00726879
-0.00726646
-0.00726399
-0.00726139
-0.00725865
-0.0072558
-0.00725283
-0.00724976
-0.0072466
-0.00762047
-0.00724004
-0.00723665
-0.00723321
-0.00722972
-0.0072262
-0.00722266
-0.00721909
-0.00721553
-0.00721196
-0.00720841
-0.00720489
-0.00720139
-0.00719795
-0.00719455
-0.00719122
-0.00718795
-0.00718477
-0.00718167
-0.00717867
-0.00717577
-0.00717298
-0.00717031
-0.00716777
-0.00716535
-0.00716308
-0.00716095
-0.00715896
-0.00715713
-0.00715546
-0.00715394
-0.00715259
-0.00715141
-0.00715039
-0.00714955
-0.00714888
-0.00714839
-0.00714807
-0.00714792
-0.00714794
0
0
-0.0073468
-0.00734644
-0.00734587
-0.00734511
-0.00734415
-0.00734301
-0.00734167
-0.00734015
-0.00733846
-0.00733659
-0.00733456
-0.00733237
-0.00733003
-0.00732754
-0.00732492
-0.00732217
-0.0073193
-0.00731631
-0.00731323
-0.00731004
-0.00730678
-0.00730344
-0.00730003
-0.00729657
-0.00729306
-0.00728952
-0.00728595
-0.00728237
-0.00727878
-0.00727519
-0.00727162
-0.00726807
-0.00726456
-0.00726109
-0.00725767
-0.00725431
-0.00725103
-0.00724782
-0.00724471
-0.00724169
-0.00723877
-0.00723597
-0.00723328
-0.00723072
-0.00722829
-0.007226
-0.00722386
-0.00722186
-0.00722002
-0.00721833
-0.00721681
-0.00721545
-0.00721426
-0.00721324
-0.00721239
-0.00721172
-0.00721122
-0.0072109
-0.00721075
-0.00721078
0
0
-0.00741047
-0.0074101
-0.00740954
-0.00760052
-0.00740781
-0.00740665
-0.00740531
-0.00740378
-0.00740208
-0.0074002
-0.00739816
-0.00739595
-0.0073936
-0.0073911
-0.00738846
-0.00738569
-0.0073828
-0.0073798
-0.00737669
-0.00737349
-0.0073702
-0.00736684
-0.00736341
-0.00735993
-0.0073564
-0.00735284
-0.00734925
-0.00734564
-0.00734203
-0.00733842
0
-0.00733126
-0.00732772
-0.00732423
-0.00732079
-0.00731742
-0.00731411
-0.00731089
-0.00730775
-0.00730471
-0.00730178
-0.00729896
-0.00729626
-0.00729368
-0.00729124
-0.00728893
-0.00728677
-0.00728477
-0.00728291
-0.00728122
-0.00727968
-0.00727832
-0.00727712
-0.00727609
-0.00727524
-0.00727456
-0.00727406
-0.00727374
-0.00727359
-0.00727361
0
0
-0.00747414
-0.00747377
-0.0074732
-0.00747243
-0.00747146
-0.0074703
-0.00746894
-0.00746741
-0.00746569
-0.0074638
-0.00746175
-0.00745953
-0.00745716
-0.00745465
0
-0.00744921
-0.0074463
-0.00744328
-0.00744015
-0.00743693
-0.00743363
-0.00743025
-0.0074268
-0.00742329
-0.00741974
-0.00741616
-0.00741255
-0.00740892
-0.00740528
-0.00740165
-0.00739804
-0.00739445
-0.00739089
-0.00738738
-0.00738392
-0.00738052
-0.0073772
-0.00737395
-0.0073708
-0.00736774
-0.00736479
-0.00736195
-0.00735923
-0.00735664
-0.00735419
-0.00735187
-0.0073497
-0.00734768
-0.00734581
-0.0073441
-0.00734256
-0.00734119
-0.00733998
-0.00733895
-0.00733809
-0.00733741
-0.00733691
-0.00733658
-0.00733643
-0.00733646
0
0
-0.0075378
-0.00753743
-0.00753686
-0.00753608
-0.00753511
-0.00753394
-0.00753258
-0.00753103
-0.00752931
-0.00759292
-0.00752534
-0.00752311
-0.00752073
-0.0075182
-0.00751553
-0.00751272
-0.0075098
-0.00750676
-0.00750362
-0.00750038
-0.00749705
-0.00749365
-0.00749018
-0.00748666
-0.00748309
-0.00747948
-0.00747585
-0.0074722
-0.00746854
-0.00746489
-0.00746125
-0.00745764
-0.00745406
-0.00745053
-0.00744705
-0.00744363
-0.00744029
-0.00743703
-0.00743385
-0.00743078
-0.00742781
-0.00742495
-0.00742222
-0.00741961
-0.00741714
-0.00741481
-0.00741262
-0.00741059
-0.00740872
-0.007407
-0.00740545
-0.00740407
-0.00740285
-0.00740182
-0.00740095
-0.00740027
-0.00739976
-0.00739943
-0.00739928
-0.00739931
0
0
-0.00760147
-0.00760109
-0.00760052
-0.00759974
-0.00759876
-0.00759758
-0.00759621
-0.00759466
-0.00759292
-0.00759101
-0.00758893
-0.00758669
-0.00758429
-0.00758175
-0.00757906
-0.00757624
-0.0075733
-0.00757024
-0.00756708
-0.00756382
-0.00756048
-0.00755706
-0.00755357
-0.00755002
-0.00754643
-0.0075428
-0.00753915
-0.00696255
-0.0075318
-0.00752813
-0.00752447
-0.00752084
-0.00751724
-0.00751369
-0.00751019
-0.00750675
-0.00750338
-0.0075001
-0.00749691
-0.00749382
-0.00749083
-0.00748796
-0.00748521
-0.00748259
-0.0074801
-0.00747776
-0.00747556
-0.00747351
-0.00684277
-0.0074699
-0.00746834
-0.00746695
-0.00746573
-0.00746469
-0.00746382
-0.00746313
-0.00746262
-0.00746229
-0.00746214
-0.00746217
0
0
-0.00766513
-0.00766475
-0.00766417
-0.00766339
-0.0076624
-0.00766122
-0.00765985
-0.00765828
-0.00765654
-0.00765462
-0.00765253
-0.00765027
-0.00764786
-0.0076453
-0.0076426
-0.00763976
-0.0076368
-0.00763373
-0.00870962
-0.00762727
-0.00762391
-0.00762047
-0.00761696
-0.00761339
-0.00760978
-0.00760613
-0.00760245
-0.00759876
-0.00759506
-0.00759137
-0.00758769
-0.00758404
-0.00758042
-0.00757684
-0.00757332
-0.00756987
-0.00756648
-0.00756318
-0.00755997
-0.00755686
-0.00755386
-0.00755097
-0.0075482
-0.00754557
-0.00754307
-0.00754071
-0.0075385
-0.00753644
-0.00753454
-0.00753281
-0.00753124
-0.00752984
-0.00752861
-0.00752756
-0.00752669
-0.007526
-0.00752549
-0.00752515
-0.007525
-0.00752503
0
0
-0.00772879
-0.00772842
-0.00772783
-0.00772704
-0.00772605
-0.00772486
-0.00772348
-0.00772191
-0.00772015
-0.00771822
-0.00771612
-0.00771385
-0.00771142
-0.00770885
-0.00770613
-0.00770328
-0.0077003
-0.00769721
-0.00769402
-0.00769072
-0.00768734
-0.00768388
-0.00768035
-0.00767676
-0.00767313
-0.00766946
-0.00766576
-0.00766205
-0.00765833
-0.00765462
-0.00765092
-0.00764724
-0.0076436
-0.00764001
-0.00763647
-0.00763299
-0.00762959
-0.00762627
-0.00762304
-0.00761991
-0.00761689
-0.00761399
-0.0076112
-0.00760855
-0.00760604
-0.00760367
-0.00760144
-0.00759938
-0.00759747
-0.00759572
-0.00759414
-0.00759274
-0.0075915
-0.00759045
-0.00758957
-0.00758887
-0.00758836
-0.00758802
-0.00758787
-0.0075879
0
0
-0.00779245
-0.00728277
-0.00779149
-0.00779069
-0.0077897
-0.0077885
-0.00778711
-0.00778553
-0.00778377
-0.00778182
-0.00777971
-0.00777743
-0.00777499
-0.0077724
-0.00776967
-0.0077668
-0.00776381
-0.0077607
-0.00775748
-0.00775417
-0.00775077
-0.00774729
-0.00774374
-0.00774013
-0.00773648
-0.00773279
-0.00772907
-0.00772534
-0.0077216
-0.00771786
-0.00771414
-0.00771045
-0.00770679
-0.00770317
-0.00769961
-0.00769612
-0.0076927
-0.00768936
-0.00768611
-0.00768297
-0.00767993
-0.00767701
-0.00767421
-0.00767154
-0.00760604
-0.00766663
-0.0076644
-0.00766232
-0.0076604
-0.00765864
-0.00765705
-0.00765564
-0.0076544
-0.00765334
-0.00765246
-0.00765176
-0.00765124
-0.0076509
-0.00765075
-0.00765077
0
0
-0.00785611
-0.00785573
-0.00785514
-0.00785435
-0.00785334
-0.00785214
-0.00785074
-0.00784915
-0.00784738
-0.00784543
-0.0078433
-0.00784101
-0.00783855
-0.00783595
-0.0078332
-0.00783032
-0.00782731
-0.00782419
-0.00782095
-0.00781762
-0.0078142
-0.0078107
-0.00780713
-0.00780351
-0.00779983
-0.00779612
-0.00779239
-0.00778863
-0.00778487
-0.00778111
-0.00777737
-0.00777366
-0.00776998
-0.00776634
-0.00776276
-0.00775925
-0.00775581
-0.00775245
-0.00774919
-0.00774603
-0.00774297
-0.00774003
-0.00773722
-0.00773454
-0.007732
-0.0077296
-0.00772735
-0.00772526
-0.00772333
-0.00929654
-0.00771997
-0.00771855
-0.0077173
-0.00771624
-0.00771535
-0.00771464
-0.00771412
-0.00771378
-0.00771363
-0.00771366
0
0
-0.00791978
-0.00791939
-0.0079188
-0.007918
-0.00791699
-0.00791578
-0.00791438
-0.00791278
-0.00791099
-0.00790903
-0.00790689
-0.00790458
-0.00790212
-0.0078995
-0.00789674
-0.00789384
-0.00789082
-0.00788767
-0.00788442
-0.00788107
-0.00787763
-0.00787412
-0.00787053
-0.00786688
-0.00786319
-0.00785946
-0.0078557
-0.00785193
-0.00943075
-0.00784437
-0.00784061
-0.00783687
-0.00783317
-0.00782952
-0.00782592
-0.00782239
-0.00781893
-0.00781555
-0.00781227
-0.00780909
-0.00780602
-0.00780307
-0.00780024
-0.00779754
-0.00779499
-0.00779258
-0.00779032
-0.00778821
-0.00778627
-0.0077845
-0.00778289
-0.00778146
-0.00778021
-0.00777914
-0.00777825
-0.00777754
-0.00777701
-0.00777667
-0.00777652
-0.00777655
0
0
-0.00798344
-0.00798305
-0.00798245
-0.00849083
-0.00798063
0
-0.00797801
-0.0079764
-0.00797461
-0.00797263
-0.00708018
-0.00796816
-0.00796568
-0.00796305
-0.00796028
-0.00795736
-0.00795432
-0.00795116
-0.00794789
-0.00794453
-0.00794107
-0.00793753
-0.00793393
-0.00793026
-0.00792655
-0.0079228
-0.00791902
-0.00791522
-0.00791142
-0.00790763
-0.00790385
-0.00790009
-0.00789637
-0.0078927
-0.00788908
-0.00788553
-0.00788205
-0.00787866
-0.00787536
-0.00787216
-0.00786907
-0.0078661
-0.00786326
-0.00786055
-0.00785798
-0.00785556
-0.00785329
-0.00785117
-0.00784922
-0.00784744
-0.00784582
-0.00784439
-0.00784313
-0.00784205
-0.00784115
-0.00784044
-0.00783991
-0.00783957
-0.00783941
-0.00783944
0
0
-0.00804709
-0.00804671
-0.00804611
-0.0080453
-0.00804428
-0.00804306
-0.00804164
-0.00804002
-0.00803822
-0.00803623
-0.00803407
-0.00803174
-0.00802925
-0.0080266
-0.00802381
-0.00802088
-0.00801783
-0.00858941
-0.00801137
-0.00800798
-0.00800451
-0.00800095
-0.00799733
-0.00799364
-0.00798991
-0.00798614
-0.00798234
-0.00797852
-0.0079747
-0.00797089
-0.00796709
-0.00796331
-0.00795957
-0.00795588
-0.00795224
-0.00794867
-0.00794518
-0.00794177
-0.00793845
-0.00793523
-0.00793213
-0.00792915
-0.00792629
-0.00792356
-0.00792098
-0.00791854
-0.00791626
-0.00791414
-0.00791217
-0.00791038
-0.00790876
-0.00790732
-0.00790605
-0.00790496
-0.00790406
-0.00790335
-0.00790282
-0.00790247
-0.00790232
-0.00790235
0
0
-0.00811075
-0.00811036
-0.00810976
-0.00810895
-0.00810792
-0.00810669
-0.00810527
-0.00810364
-0.00810183
-0.00809984
-0.00809766
-0.00809532
-0.00809282
-0.009364
-0.00808735
-0.00808441
-0.00808134
-0.00807814
-0.00807484
-0.00807144
-0.00806794
-0.00806437
-0.00806073
-0.00805702
-0.00805327
-0.00804948
-0.00804566
-0.00804183
-0.00803799
-0.00803415
-0.00803033
-0.00802654
-0.00802278
-0.00801907
-0.00801541
-0.00801182
-0.00800831
-0.00800488
-0.00800154
-0.00799831
-0.00799519
-0.00799219
-0.00798932
-0.00798658
-0.00798399
-0.00798154
-0.00797924
-0.00797711
-0.00797513
-0.00797333
-0.0079717
-0.00797025
-0.00796898
-0.00796789
-0.00796698
-0.00796626
-0.00796573
-0.00796538
-0.00796523
-0.00796525
0
0
-0.00817441
-0.00817402
-0.00817341
-0.00817259
-0.00817157
-0.00817033
-0.0081689
-0.00816727
-0.00816544
-0.00816344
-0.00816125
-0.0081589
-0.00815638
-0.00815371
-0.00815089
-0.00814793
-0.00814484
-0.00814163
-0.00813831
-0.00813489
-0.00813138
-0.00812779
-0.00812413
-0.00812041
-0.00811664
-0.00811283
-0.00810899
-0.00810513
-0.00810127
-0.00809742
-0.00809358
-0.00808976
-0.00808599
-0.00808226
-0.00807858
-0.00807497
-0.00807144
-0.008068
-0.00806465
-0.0080614
-0.00805826
-0.00805525
-0.00805236
-0.00804961
-0.008047
-0.00804454
-0.00804223
-0.00804008
-0.0080381
-0.00803629
-0.00803465
-0.00803319
-0.00803191
-0.00803082
-0.00802991
-0.00802918
-0.00802865
-0.0080283
-0.00802814
-0.00802817
0
0
-0.00823807
-0.00823768
-0.00823707
-0.00823624
-0.00823521
-0.00823397
-0.00823253
-0.00823089
-0.00822906
-0.00822704
-0.00822485
-0.00822248
-0.00821995
-0.00821726
-0.00821443
-0.00821145
-0.00820835
-0.00820513
-0.00820179
-0.00819835
-0.00819482
-0.00819121
-0.00818753
-0.00818379
-0.00818
-0.00817617
-0.00817232
-0.00816844
-0.00816456
-0.00816069
-0.00815683
-0.008153
-0.0081492
-0.00814545
-0.00814176
-0.00813813
-0.00813458
-0.00813112
-0.00812775
-0.00812449
-0.00812134
-0.00811831
-0.0081154
-0.00811264
-0.00811001
-0.00810754
-0.00810522
-0.00810306
-0.00810107
-0.00809925
-0.00809761
-0.00809614
-0.00809485
-0.00809375
-0.00809284
-0.00809211
-0.00809157
-0.00809122
-0.00809106
-0.00809109
0
0
-0.00830172
-0.00830133
-0.00830072
-0.00829989
-0.00829885
-0.0082976
-0.00829615
-0.00829451
-0.00829267
-0.00829064
-0.00828844
-0.00828606
-0.00828351
-0.00828082
-0.00827797
-0.00827498
-0.00827186
-0.00826862
-0.00826527
-0.00826181
-0.00825827
-0.00825464
-0.00723321
-0.00824718
-0.00824337
-0.00823952
-0.00823565
-0.00810513
-0.00822786
-0.00822396
-0.00822008
-0.00821623
-0.00821242
-0.00820865
-0.00820494
-0.00820129
-0.00819773
-0.00819425
-0.00819086
-0.00818758
-0.00818441
-0.00818137
-0.00817845
-0.00817567
-0.00817304
-0.00817055
-0.00816822
-0.00816605
-0.00816405
-0.00816222
-0.00664991
-0.00853694
-0.0081578
-0.00815669
-0.00815577
-0.00815504
-0.0081545
-0.00664547
-0.00815399
-0.00815402
0
0
-0.00836538
-0.00836498
-0.00836437
-0.00836354
-0.00836249
-0.00836124
-0.00835978
-0.00835813
-0.00835628
-0.00835424
-0.00835203
-0.00834964
-0.00834708
-0.00834437
-0.00834151
-0.0083385
-0.00833537
-0.00833211
-0.00832874
-0.00832527
-0.00832171
-0.00831806
-0.00831435
-0.00831057
-0.00830674
-0.00830287
-0.00829898
-0.00829507
-0.00829115
-0.00828724
-0.00828334
-0.00827947
-0.00827564
-0.00827185
-0.00826812
-0.00826446
-0.00826087
-0.00825738
-0.00825398
-0.00825068
-0.0082475
-0.00824444
-0.00824151
-0.00823871
-0.00823606
-0.00823357
-0.00823123
-0.00822905
-0.00822704
-0.0082252
-0.00822353
-0.00822205
-0.00822075
-0.00821964
-0.00821872
-0.00821798
-0.00821744
-0.00821709
-0.00821692
-0.00821695
0
0
-0.00842903
-0.00842864
-0.00842802
-0.00842718
-0.00842613
-0.00842487
-0.00842341
-0.00842175
-0.00841989
-0.00841784
-0.00841562
-0.00841321
-0.00841065
-0.00840792
-0.00840505
-0.00840203
-0.00839888
-0.00839561
-0.00839222
-0.00838873
-0.00838515
-0.00838149
-0.00837775
-0.00837396
-0.00837011
-0.00836623
-0.00836232
-0.00835839
-0.00835445
-0.00835052
-0.0083466
-0.00834271
-0.00833886
-0.00833505
-0.00833131
-0.00832763
-0.00832403
-0.00832051
-0.0083171
-0.00831378
-0.00831059
-0.00717298
-0.00830457
-0.00830176
-0.0082991
-0.00829659
-0.00829423
-0.00829205
-0.00829002
-0.00828818
-0.00828651
-0.00828502
-0.00828371
-0.0082826
-0.00828167
-0.00828093
-0.00828038
-0.00828003
-0.00827987
-0.00827989
0
0
-0.00849269
-0.00849229
-0.00849166
-0.00849083
-0.00848977
-0.00848851
-0.00848704
-0.00676583
-0.0084835
-0.00848144
-0.0084792
-0.00847679
-0.00847421
-0.00847147
-0.00846858
-0.00846555
-0.00846239
-0.0084591
-0.0084557
-0.0084522
-0.0084486
-0.00844492
-0.00844116
-0.00843735
-0.00843349
-0.00842958
-0.00842565
-0.0084217
-0.00841775
-0.0084138
-0.00840986
-0.00840596
-0.00840209
-0.00839826
-0.0083945
-0.0083908
-0.00838718
-0.00838365
-0.00838022
-0.00837689
-0.00837368
-0.00837059
-0.00836763