# vtk DataFile Version 2.0
FlowField
ASCII
DATASET STRUCTURED_GRID
DIMENSIONS 62 47 32 
POINTS 93248 double
0 0 0
0.01 0 0
0.02 0 0
0.03 0 0
0.04 0 0
0.05 0 0
0.06 0 0
0.07 0 0
0.08 0 0
0.09 0 0
0.1 0 0
0.11 0 0
0.12 0 0
0.13 0 0
0.14 0 0
0.15 0 0
0.16 0 0
0.17 0 0
0.18 0 0
0.19 0 0
0.2 0 0
0.21 0 0
0.22 0 0
0.23 0 0
0.24 0 0
0.25 0 0
0.26 0 0
0.27 0 0
0.28 0 0
0.29 0 0
0.3 0 0
0.31 0 0
0.32 0 0
0.33 0 0
0.34 0 0
0.35 0 0
0.36 0 0
0.37 0 0
0.38 0 0
0.39 0 0
0.4 0 0
0.41 0 0
0.42 0 0
0.43 0 0
0.44 0 0
0.45 0 0
0.46 0 0
0.47 0 0
0.48 0 0
0.49 0 0
0.5 0 0
0.51 0 0
0.52 0 0
0.53 0 0
0.54 0 0
0.55 0 0
0.56 0 0
0.57 0 0
0.58 0 0
0.59 0 0
0.6 0 0
0.61 0 0
0 0.01 0
0.01 0.01 0
0.02 0.01 0
0.03 0.01 0
0.04 0.01 0
0.05 0.01 0
0.06 0.01 0
0.07 0.01 0
0.08 0.01 0
0.09 0.01 0
0.1 0.01 0
0.11 0.01 0
0.12 0.01 0
0.13 0.01 0
0.14 0.01 0
0.15 0.01 0
0.16 0.01 0
0.17 0.01 0
0.18 0.01 0
0.19 0.01 0
0.2 0.01 0
0.21 0.01 0
0.22 0.01 0
0.23 0.01 0
0.24 0.01 0
0.25 0.01 0
0.26 0.01 0
0.27 0.01 0
0.28 0.01 0
0.29 0.01 0
0.3 0.01 0
0.31 0.01 0
0.32 0.01 0
0.33 0.01 0
0.34 0.01 0
0.35 0.01 0
0.36 0.01 0
0.37 0.01 0
0.38 0.01 0
0.39 0.01 0
0.4 0.01 0
0.41 0.01 0
0.42 0.01 0
0.43 0.01 0
0.44 0.01 0
0.45 0.01 0
0.46 0.01 0
0.47 0.01 0
0.48 0.01 0
0.49 0.01 0
0.5 0.01 0
0.51 0.01 0
0.52 0.01 0
0.53 0.01 0
0.54 0.01 0
0.55 0.01 0
0.56 0.01 0
0.57 0.01 0
0.58 0.01 0
0.59 0.01 0
0.6 0.01 0
0.61 0.01 0
0 0.02 0
0.01 0.02 0
0.02 0.02 0
0.03 0.02 0
0.04 0.02 0
0.05 0.02 0
0.06 0.02 0
0.07 0.02 0
0.08 0.02 0
0.09 0.02 0
0.1 0.02 0
0.11 0.02 0
0.12 0.02 0
0.13 0.02 0
0.14 0.02 0
0.15 0.02 0
0.16 0.02 0
0.17 0.02 0
0.18 0.02 0
0.19 0.02 0
0.2 0.02 0
0.21 0.02 0
0.22 0.02 0
0.23 0.02 0
0.24 0.02 0
0.25 0.02 0
0.26 0.02 0
0.27 0.02 0
0.28 0.02 0
0.29 0.02 0
0.3 0.02 0
0.31 0.02 0
0.32 0.02 0
0.33 0.02 0
0.34 0.02 0
0.35 0.02 0
0.36 0.02 0
0.37 0.02 0
0.38 0.02 0
0.39 0.02 0
0.4 0.02 0
0.41 0.02 0
0.42 0.02 0
0.43 0.02 0
0.44 0.02 0
0.45 0.02 0
0.46 0.02 0
0.47 0.02 0
0.48 0.02 0
0.49 0.02 0
0.5 0.02 0
0.51 0.02 0
0.52 0.02 0
0.53 0.02 0
0.54 0.02 0
0.55 0.02 0
0.56 0.02 0
0.57 0.02 0
0.58 0.02 0
0.59 0.02 0
0.6 0.02 0
0.61 0.02 0
0 0.03 0
0.01 0.03 0
0.02 0.03 0
0.03 0.03 0
0.04 0.03 0
0.05 0.03 0
0.06 0.03 0
0.07 0.03 0
0.08 0.03 0
0.09 0.03 0
0.1 0.03 0
0.11 0.03 0
0.12 0.03 0
0.13 0.03 0
0.14 0.03 0
0.15 0.03 0
0.16 0.03 0
0.17 0.03 0
0.18 0.03 0
0.19 0.03 0
0.2 0.03 0
0.21 0.03 0
0.22 0.03 0
0.23 0.03 0
0.24 0.03 0
0.25 0.03 0
0.26 0.03 0
0.27 0.03 0
0.28 0.03 0
0.29 0.03 0
0.3 0.03 0
0.31 0.03 0
0.32 0.03 0
0.33 0.03 0
0.34 0.03 0
0.35 0.03 0
0.36 0.03 0
0.37 0.03 0
0.38 0.03 0
0.39 0.03 0
0.4 0.03 0
0.41 0.03 0
0.42 0.03 0
0.43 0.03 0
0.44 0.03 0
0.45 0.03 0
0.46 0.03 0
0.47 0.03 0
0.48 0.03 0
0.49 0.03 0
0.5 0.03 0
0.51 0.03 0
0.52 0.03 0
0.53 0.03 0
0.54 0.03 0
0.55 0.03 0
0.56 0.03 0
0.57 0.03 0
0.58 0.03 0
0.59 0.03 0
0.6 0.03 0
0.61 0.03 0
0 0.04 0
0.01 0.04 0
0.02 0.04 0
0.03 0.04 0
0.04 0.04 0
0.05 0.04 0
0.06 0.04 0
0.07 0.04 0
0.08 0.04 0
0.09 0.04 0
0.1 0.04 0
0.11 0.04 0
0.12 0.04 0
0.13 0.04 0
0.14 0.04 0
0.15 0.04 0
0.16 0.04 0
0.17 0.04 0
0.18 0.04 0
0.19 0.04 0
0.2 0.04 0
0.21 0.04 0
0.22 0.04 0
0.23 0.04 0
0.24 0.04 0
0.25 0.04 0
0.26 0.04 0
0.27 0.04 0
0.28 0.04 0
0.29 0.04 0
0.3 0.04 0
0.31 0.04 0
0.32 0.04 0
0.33 0.04 0
0.34 0.04 0
0.35 0.04 0
0.36 0.04 0
0.37 0.04 0
0.38 0.04 0
0.39 0.04 0
0.4 0.04 0
0.41 0.04 0
0.42 0.04 0
0.43 0.04 0
0.44 0.04 0
0.45 0.04 0
0.46 0.04 0
0.47 0.04 0
0.48 0.04 0
0.49 0.04 0
0.5 0.04 0
0.51 0.04 0
0.52 0.04 0
0.53 0.04 0
0.54 0.04 0
0.55 0.04 0
0.56 0.04 0
0.57 0.04 0
0.58 0.04 0
0.59 0.04 0
0.6 0.04 0
0.61 0.04 0
0 0.05 0
0.01 0.05 0
0.02 0.05 0
0.03 0.05 0
0.04 0.05 0
0.05 0.05 0
0.06 0.05 0
0.07 0.05 0
0.08 0.05 0
0.09 0.05 0
0.1 0.05 0
0.11 0.05 0
0.12 0.05 0
0.13 0.05 0
0.14 0.05 0
0.15 0.05 0
0.16 0.05 0
0.17 0.05 0
0.18 0.05 0
0.19 0.05 0
0.2 0.05 0
0.21 0.05 0
0.22 0.05 0
0.23 0.05 0
0.24 0.05 0
0.25 0.05 0
0.26 0.05 0
0.27 0.05 0
0.28 0.05 0
0.29 0.05 0
0.3 0.05 0
0.31 0.05 0
0.32 0.05 0
0.33 0.05 0
0.34 0.05 0
0.35 0.05 0
0.36 0.05 0
0.37 0.05 0
0.38 0.05 0
0.39 0.05 0
0.4 0.05 0
0.41 0.05 0
0.42 0.05 0
0.43 0.05 0
0.44 0.05 0
0.45 0.05 0
0.46 0.05 0
0.47 0.05 0
0.48 0.05 0
0.49 0.05 0
0.5 0.05 0
0.51 0.05 0
0.52 0.05 0
0.53 0.05 0
0.54 0.05 0
0.55 0.05 0
0.56 0.05 0
0.57 0.05 0
0.58 0.05 0
0.59 0.05 0
0.6 0.05 0
0.61 0.05 0
0 0.06 0
0.01 0.06 0
0.02 0.06 0
0.03 0.06 0
0.04 0.06 0
0.05 0.06 0
0.06 0.06 0
0.07 0.06 0
0.08 0.06 0
0.09 0.06 0
0.1 0.06 0
0.11 0.06 0
0.12 0.06 0
0.13 0.06 0
0.14 0.06 0
0.15 0.06 0
0.16 0.06 0
0.17 0.06 0
0.18 0.06 0
0.19 0.06 0
0.2 0.06 0
0.21 0.06 0
0.22 0.06 0
0.23 0.06 0
0.24 0.06 0
0.25 0.06 0
0.26 0.06 0
0.27 0.06 0
0.28 0.06 0
0.29 0.06 0
0.3 0.06 0
0.31 0.06 0
0.32 0.06 0
0.33 0.06 0
0.34 0.06 0
0.35 0.06 0
0.36 0.06 0
0.37 0.06 0
0.38 0.06 0
0.39 0.06 0
0.4 0.06 0
0.41 0.06 0
0.42 0.06 0
0.43 0.06 0
0.44 0.06 0
0.45 0.06 0
0.46 0.06 0
0.47 0.06 0
0.48 0.06 0
0.49 0.06 0
0.5 0.06 0
0.51 0.06 0
0.52 0.06 0
0.53 0.06 0
0.54 0.06 0
0.55 0.06 0
0.56 0.06 0
0.57 0.06 0
0.58 0.06 0
0.59 0.06 0
0.6 0.06 0
0.61 0.06 0
0 0.07 0
0.01 0.07 0
0.02 0.07 0
0.03 0.07 0
0.04 0.07 0
0.05 0.07 0
0.06 0.07 0
0.07 0.07 0
0.08 0.07 0
0.09 0.07 0
0.1 0.07 0
0.11 0.07 0
0.12 0.07 0
0.13 0.07 0
0.14 0.07 0
0.15 0.07 0
0.16 0.07 0
0.17 0.07 0
0.18 0.07 0
0.19 0.07 0
0.2 0.07 0
0.21 0.07 0
0.22 0.07 0
0.23 0.07 0
0.24 0.07 0
0.25 0.07 0
0.26 0.07 0
0.27 0.07 0
0.28 0.07 0
0.29 0.07 0
0.3 0.07 0
0.31 0.07 0
0.32 0.07 0
0.33 0.07 0
0.34 0.07 0
0.35 0.07 0
0.36 0.07 0
0.37 0.07 0
0.38 0.07 0
0.39 0.07 0
0.4 0.07 0
0.41 0.07 0
0.42 0.07 0
0.43 0.07 0
0.44 0.07 0
0.45 0.07 0
0.46 0.07 0
0.47 0.07 0
0.48 0.07 0
0.49 0.07 0
0.5 0.07 0
0.51 0.07 0
0.52 0.07 0
0.53 0.07 0
0.54 0.07 0
0.55 0.07 0
0.56 0.07 0
0.57 0.07 0
0.58 0.07 0
0.59 0.07 0
0.6 0.07 0
0.61 0.07 0
0 0.08 0
0.01 0.08 0
0.02 0.08 0
0.03 0.08 0
0.04 0.08 0
0.05 0.08 0
0.06 0.08 0
0.07 0.08 0
0.08 0.08 0
0.09 0.08 0
0.1 0.08 0
0.11 0.08 0
0.12 0.08 0
0.13 0.08 0
0.14 0.08 0
0.15 0.08 0
0.16 0.08 0
0.17 0.08 0
0.18 0.08 0
0.19 0.08 0
0.2 0.08 0
0.21 0.08 0
0.22 0.08 0
0.23 0.08 0
0.24 0.08 0
0.25 0.08 0
0.26 0.08 0
0.27 0.08 0
0.28 0.08 0
0.29 0.08 0
0.3 0.08 0
0.31 0.08 0
0.32 0.08 0
0.33 0.08 0
0.34 0.08 0
0.35 0.08 0
0.36 0.08 0
0.37 0.08 0
0.38 0.08 0
0.39 0.08 0
0.4 0.08 0
0.41 0.08 0
0.42 0.08 0
0.43 0.08 0
0.44 0.08 0
0.45 0.08 0
0.46 0.08 0
0.47 0.08 0
0.48 0.08 0
0.49 0.08 0
0.5 0.08 0
0.51 0.08 0
0.52 0.08 0
0.53 0.08 0
0.54 0.08 0
0.55 0.08 0
0.56 0.08 0
0.57 0.08 0
0.58 0.08 0
0.59 0.08 0
0.6 0.08 0
0.61 0.08 0
0 0.09 0
0.01 0.09 0
0.02 0.09 0
0.03 0.09 0
0.04 0.09 0
0.05 0.09 0
0.06 0.09 0
0.07 0.09 0
0.08 0.09 0
0.09 0.09 0
0.1 0.09 0
0.11 0.09 0
0.12 0.09 0
0.13 0.09 0
0.14 0.09 0
0.15 0.09 0
0.16 0.09 0
0.17 0.09 0
0.18 0.09 0
0.19 0.09 0
0.2 0.09 0
0.21 0.09 0
0.22 0.09 0
0.23 0.09 0
0.24 0.09 0
0.25 0.09 0
0.26 0.09 0
0.27 0.09 0
0.28 0.09 0
0.29 0.09 0
0.3 0.09 0
0.31 0.09 0
0.32 0.09 0
0.33 0.09 0
0.34 0.09 0
0.35 0.09 0
0.36 0.09 0
0.37 0.09 0
0.38 0.09 0
0.39 0.09 0
0.4 0.09 0
0.41 0.09 0
0.42 0.09 0
0.43 0.09 0
0.44 0.09 0
0.45 0.09 0
0.46 0.09 0
0.47 0.09 0
0.48 0.09 0
0.49 0.09 0
0.5 0.09 0
0.51 0.09 0
0.52 0.09 0
0.53 0.09 0
0.54 0.09 0
0.55 0.09 0
0.56 0.09 0
0.57 0.09 0
0.58 0.09 0
0.59 0.09 0
0.6 0.09 0
0.61 0.09 0
0 0.1 0
0.01 0.1 0
0.02 0.1 0
0.03 0.1 0
0.04 0.1 0
0.05 0.1 0
0.06 0.1 0
0.07 0.1 0
0.08 0.1 0
0.09 0.1 0
0.1 0.1 0
0.11 0.1 0
0.12 0.1 0
0.13 0.1 0
0.14 0.1 0
0.15 0.1 0
0.16 0.1 0
0.17 0.1 0
0.18 0.1 0
0.19 0.1 0
0.2 0.1 0
0.21 0.1 0
0.22 0.1 0
0.23 0.1 0
0.24 0.1 0
0.25 0.1 0
0.26 0.1 0
0.27 0.1 0
0.28 0.1 0
0.29 0.1 0
0.3 0.1 0
0.31 0.1 0
0.32 0.1 0
0.33 0.1 0
0.34 0.1 0
0.35 0.1 0
0.36 0.1 0
0.37 0.1 0
0.38 0.1 0
0.39 0.1 0
0.4 0.1 0
0.41 0.1 0
0.42 0.1 0
0.43 0.1 0
0.44 0.1 0
0.45 0.1 0
0.46 0.1 0
0.47 0.1 0
0.48 0.1 0
0.49 0.1 0
0.5 0.1 0
0.51 0.1 0
0.52 0.1 0
0.53 0.1 0
0.54 0.1 0
0.55 0.1 0
0.56 0.1 0
0.57 0.1 0
0.58 0.1 0
0.59 0.1 0
0.6 0.1 0
0.61 0.1 0
0 0.11 0
0.01 0.11 0
0.02 0.11 0
0.03 0.11 0
0.04 0.11 0
0.05 0.11 0
0.06 0.11 0
0.07 0.11 0
0.08 0.11 0
0.09 0.11 0
0.1 0.11 0
0.11 0.11 0
0.12 0.11 0
0.13 0.11 0
0.14 0.11 0
0.15 0.11 0
0.16 0.11 0
0.17 0.11 0
0.18 0.11 0
0.19 0.11 0
0.2 0.11 0
0.21 0.11 0
0.22 0.11 0
0.23 0.11 0
0.24 0.11 0
0.25 0.11 0
0.26 0.11 0
0.27 0.11 0
0.28 0.11 0
0.29 0.11 0
0.3 0.11 0
0.31 0.11 0
0.32 0.11 0
0.33 0.11 0
0.34 0.11 0
0.35 0.11 0
0.36 0.11 0
0.37 0.11 0
0.38 0.11 0
0.39 0.11 0
0.4 0.11 0
0.41 0.11 0
0.42 0.11 0
0.43 0.11 0
0.44 0.11 0
0.45 0.11 0
0.46 0.11 0
0.47 0.11 0
0.48 0.11 0
0.49 0.11 0
0.5 0.11 0
0.51 0.11 0
0.52 0.11 0
0.53 0.11 0
0.54 0.11 0
0.55 0.11 0
0.56 0.11 0
0.57 0.11 0
0.58 0.11 0
0.59 0.11 0
0.6 0.11 0
0.61 0.11 0
0 0.12 0
0.01 0.12 0
0.02 0.12 0
0.03 0.12 0
0.04 0.12 0
0.05 0.12 0
0.06 0.12 0
0.07 0.12 0
0.08 0.12 0
0.09 0.12 0
0.1 0.12 0
0.11 0.12 0
0.12 0.12 0
0.13 0.12 0
0.14 0.12 0
0.15 0.12 0
0.16 0.12 0
0.17 0.12 0
0.18 0.12 0
0.19 0.12 0
0.2 0.12 0
0.21 0.12 0
0.22 0.12 0
0.23 0.12 0
0.24 0.12 0
0.25 0.12 0
0.26 0.12 0
0.27 0.12 0
0.28 0.12 0
0.29 0.12 0
0.3 0.12 0
0.31 0.12 0
0.32 0.12 0
0.33 0.12 0
0.34 0.12 0
0.35 0.12 0
0.36 0.12 0
0.37 0.12 0
0.38 0.12 0
0.39 0.12 0
0.4 0.12 0
0.41 0.12 0
0.42 0.12 0
0.43 0.12 0
0.44 0.12 0
0.45 0.12 0
0.46 0.12 0
0.47 0.12 0
0.48 0.12 0
0.49 0.12 0
0.5 0.12 0
0.51 0.12 0
0.52 0.12 0
0.53 0.12 0
0.54 0.12 0
0.55 0.12 0
0.56 0.12 0
0.57 0.12 0
0.58 0.12 0
0.59 0.12 0
0.6 0.12 0
0.61 0.12 0
0 0.13 0
0.01 0.13 0
0.02 0.13 0
0.03 0.13 0
0.04 0.13 0
0.05 0.13 0
0.06 0.13 0
0.07 0.13 0
0.08 0.13 0
0.09 0.13 0
0.1 0.13 0
0.11 0.13 0
0.12 0.13 0
0.13 0.13 0
0.14 0.13 0
0.15 0.13 0
0.16 0.13 0
0.17 0.13 0
0.18 0.13 0
0.19 0.13 0
0.2 0.13 0
0.21 0.13 0
0.22 0.13 0
0.23 0.13 0
0.24 0.13 0
0.25 0.13 0
0.26 0.13 0
0.27 0.13 0
0.28 0.13 0
0.29 0.13 0
0.3 0.13 0
0.31 0.13 0
0.32 0.13 0
0.33 0.13 0
0.34 0.13 0
0.35 0.13 0
0.36 0.13 0
0.37 0.13 0
0.38 0.13 0
0.39 0.13 0
0.4 0.13 0
0.41 0.13 0
0.42 0.13 0
0.43 0.13 0
0.44 0.13 0
0.45 0.13 0
0.46 0.13 0
0.47 0.13 0
0.48 0.13 0
[...]
POINT_DATA 93248

SCALARS w double
LOOKUP_TABLE default
0
0
0
0
0
0
0
0
0
0
0
0
0
-0.0421477
0
0
0
0
0
0
0
0
0
0
0
0
-0.081908
0
0
0
0
0
-0.0771976
0
0
0
0
0
0
0
0
0
0
0
0
0
-0.0719904
0
0
0
0
0
0
0
0
0
0
0
0
0
0
0
0
-0.0175447
-0.0322525
-0.0422225
-0.0475592
-0.0496287
-0.0501676
-0.0502665
-0.0500438
-0.0498626
-0.0497845
-0.0496263
-0.0492057
-0.0493676
-0.0497167
-0.0500926
-0.0503977
-0.0507979
-0.0512321
-0.0513554
-0.0480226
-0.0475802
-0.0483896
-0.0486162
-0.0487315
-0.0487618
-0.048729
-0.0486586
-0.0485661
-0.0484529
-0.048301
-0.0480573
-0.0476707
-0.0476729
-0.0476418
-0.0471158
-0.0463074
-0.0464363
-0.047945
-0.0540821
-0.0459926
-0.0476482
-0.0491032
-0.0498551
-0.0510104
-0.0863211
-0.0484981
-0.0481325
-0.0481639
-0.0487976
-0.0494178
-0.0501186
-0.0484259
-0.0500083
-0.0861328
-0.0501945
-0.0485016
-0.0471096
-0.0476345
-0.0473497
-0.0458792
0
0
-0.0203786
-0.0456034
-0.0591666
-0.0682275
-0.0736295
-0.0785198
-0.0808403
-0.081647
-0.0818342
-0.0821187
-0.0823424
-0.0820383
-0.0828961
-0.0836313
-0.0842871
-0.0847779
-0.0855429
-0.086494
-0.0883085
-0.0813001
-0.0814244
-0.0929844
-0.0829314
-0.0828296
-0.0828311
-0.0827902
-0.0827003
-0.0825756
-0.0824239
-0.0822348
-0.0819363
-0.0812458
-0.081372
-0.0814758
-0.0805812
-0.0799924
-0.0785555
-0.0775786
-0.0868544
-0.0843827
-0.0842515
-0.0844692
-0.0845593
-0.0854692
-0.0868558
-0.0854476
-0.0834247
-0.0828598
-0.0832071
-0.083533
-0.0866376
-0.0831703
-0.0841038
-0.0857303
-0.0847396
-0.0841122
-0.0818163
-0.0815524
-0.0801017
-0.0763322
0
0
-0.0201863
-0.0452141
-0.0604821
-0.0712313
-0.0496287
-0.083355
-0.0878417
-0.0896564
-0.0902578
-0.0907935
-0.0910557
-0.0926942
-0.0929597
-0.0932049
-0.0933933
-0.0938238
-0.0948083
-0.0951899
-0.0959495
-0.094872
-0.0933524
-0.0930061
-0.092587
-0.0923957
-0.0922905
-0.0921912
-0.0920742
-0.0919398
-0.091797
-0.0916698
-0.0916458
-0.0919626
-0.0911101
-0.0916293
-0.0896702
-0.0892097
-0.0885472
-0.0884848
-0.0924415
-0.0932834
-0.0936674
-0.094066
-0.0933233
-0.0939901
-0.0950026
-0.0931158
-0.0922405
-0.0916321
-0.0926252
-0.0926029
-0.0925531
-0.092388
-0.0927559
-0.0933048
-0.0933129
-0.0933297
-0.0931521
-0.0916354
-0.0892769
-0.0844566
0
0
-0.0197613
-0.0440832
-0.0437645
-0.0710981
-0.0792215
-0.0857877
-0.0896529
-0.0913364
-0.091774
-0.0919429
-0.092238
-0.0931113
-0.093707
-0.0940846
-0.0942828
-0.0942974
-0.0938482
-0.0944518
-0.0951554
-0.0948402
-0.0943604
-0.0939933
-0.0936861
-0.0934642
-0.0932936
-0.0931425
-0.0929951
-0.0928474
-0.092703
-0.0925734
-0.0924852
-0.0924395
-0.0920767
-0.091952
-0.091173
-0.0907705
-0.0904922
-0.0896383
-0.092092
-0.0930738
-0.0936143
-0.0938879
-0.0937038
-0.0939211
-0.0942731
-0.0938112
-0.0930685
-0.0926283
-0.0929096
-0.0929523
-0.0929304
-0.0929326
-0.0930949
-0.0933174
-0.0934538
-0.0935385
-0.0934098
-0.0924173
-0.0900595
-0.0850485
0
0
-0.0195765
-0.0438222
-0.0598569
-0.0719722
-0.0804223
-0.0863464
-0.0898076
-0.0912465
-0.0915807
-0.0916019
-0.0917999
-0.0922956
-0.0927796
-0.0930799
-0.0939783
-0.0932218
-0.0930585
-0.0932017
-0.0934913
-0.0934395
-0.093233
-0.0929844
-0.0927394
-0.0925202
-0.0923261
-0.0921502
-0.0919845
-0.0918269
-0.0916771
-0.0915317
-0.0913704
-0.0911101
-0.0905776
-0.0905163
-0.0903708
-0.0902511
-0.0902031
-0.0903458
-0.0909084
-0.0914433
-0.0918118
-0.0920035
-0.0920186
-0.0920941
-0.0922873
-0.0927185
-0.0917987
-0.0914337
-0.0914443
-0.0914782
-0.091507
-0.0915751
-0.091714
-0.0918645
-0.0919719
-0.091998
-0.0917903
-0.0908926
-0.0885527
-0.0838006
0
0
-0.0194745
-0.0436331
-0.0601223
-0.0720624
-0.0805483
-0.0863358
-0.0894758
-0.0906268
-0.0909999
-0.0910515
-0.0912049
-0.0915419
-0.091889
-0.0920807
-0.0920564
-0.091804
-0.0920393
-0.0897364
-0.0923635
-0.0923864
-0.0922064
-0.091964
-0.0917165
-0.0914859
-0.0912765
-0.0910904
-0.0909157
-0.090754
-0.0906065
-0.0904664
-0.0903003
-0.0899799
-0.0890503
-0.0894133
-0.0895396
-0.0895419
-0.0895465
-0.0896383
-0.0898536
-0.0900954
-0.090289
-0.0904013
-0.0904058
-0.0903283
-0.0900079
-0.0890925
-0.0895345
-0.0898225
-0.0899785
-0.0900514
-0.0901049
-0.0902176
-0.0904276
-0.0906076
-0.0906912
-0.0906322
-0.09022
-0.0888389
-0.0856696
-0.0818567
0
0
-0.0194012
-0.043459
-0.0599804
-0.071893
-0.0803999
-0.0863238
-0.089057
-0.0905838
-0.0908027
-0.0907005
-0.0907434
-0.0909465
-0.0911884
-0.0912506
-0.0909278
-0.0900169
-0.091247
-0.0918785
-0.0920344
-0.0918632
-0.0915551
-0.0912389
-0.0909509
-0.0906942
-0.0904641
-0.0902814
-0.0901002
-0.0899375
-0.0898038
-0.0897035
-0.089646
-0.0897646
-0.0905451
-0.0898781
-0.0893909
-0.0891139
-0.0889939
-0.0889848
-0.0890501
-0.0891453
-0.0892348
-0.0892966
-0.0892582
-0.0891748
-0.0889469
-0.0885706
-0.0886775
-0.0888429
-0.0889369
-0.0889566
-0.0889655
-0.0891069
-0.0895139
-0.0898039
-0.0898889
-0.0897647
-0.0891095
-0.086431
-0.0473497
-0.0801524
0
0
-0.0193427
-0.0433072
-0.0597817
-0.0716538
-0.0800998
-0.0857729
-0.0887762
-0.0900881
-0.090323
-0.09026
-0.09029
-0.0903286
-0.0906045
-0.090629
-0.0899438
-0.0872239
-0.0862889
-0.0920085
-0.0919048
-0.0915232
-0.0910525
-0.0906841
-0.090375
-0.0900986
-0.0898335
-0.089685
-0.0894888
-0.0893238
-0.0892118
-0.0891594
-0.0891255
-0.089174
-0.0893782
-0.0891347
-0.0888241
-0.0885936
-0.0884689
-0.0884254
-0.0884313
-0.0884607
-0.0884941
-0.0885152
-0.0884947
-0.0884415
-0.0883354
-0.0882062
-0.0881969
-0.0882196
-0.0881945
-0.0880876
-0.0879505
-0.0880517
-0.0889486
-0.089429
-0.0895234
-0.0894622
-0.0892871
-0.0885435
-0.0845622
-0.080718
0
0
-0.0192951
-0.0431806
-0.0595983
-0.0714205
-0.0798104
-0.0853692
-0.0884288
-0.0896756
-0.0899175
-0.0898824
-0.0898903
-0.0820383
-0.0901408
-0.0904214
-0.0901475
-0.0892921
-0.0904567
-0.0911442
-0.0911914
-0.0909171
-0.0904564
-0.0901955
-0.0899229
-0.0896416
-0.08934
-0.089152
-0.0889655
-0.0888139
-0.0887411
-0.0887811
-0.0887396
-0.0886711
-0.0885957
-0.0884217
-0.0882263
-0.0880673
-0.0879823
-0.0879463
-0.0879355
-0.0879381
-0.0879461
-0.0879517
-0.0879446
-0.0879221
-0.0878813
-0.0878337
-0.0878011
-0.0877524
-0.0876282
-0.0873599
-0.0869396
-0.0856771
-0.0887891
-0.0894191
-0.0894033
-0.0892647
-0.0891022
-0.0884693
-0.0859217
-0.0809067
0
0
-0.0192574
-0.0430794
-0.0594452
-0.071208
-0.0795618
-0.0850768
-0.0881282
-0.0893575
-0.0896082
-0.0896136
-0.0897125
-0.0897988
-0.0902082
-0.0904327
-0.0904593
-0.0902745
-0.090501
-0.0906573
-0.0906008
-0.090409
-0.0903448
-0.0899984
-0.0896451
-0.0892942
-0.0879674
-0.0886891
-0.0884971
-0.0883355
-0.0882951
-0.0885158
-0.088488
-0.088303
-0.0880769
-0.0878766
-0.0877156
-0.08759
-0.0875469
-0.0875314
-0.0875193
-0.0875116
-0.08751
-0.0875125
-0.0875175
-0.0875184
-0.0875109
-0.0874947
-0.087465
-0.0873958
-0.0872286
-0.086865
-0.086224
-0.0856771
-0.0893057
-0.0895477
-0.0892893
-0.0890537
-0.0888495
-0.0882271
-0.0860031
-0.080885
0
0
-0.0192293
-0.0430052
-0.0593336
-0.0710277
-0.0793876
-0.0848891
-0.0879221
-0.0891328
-0.0893832
-0.089411
-0.0895664
-0.0898409
-0.0901697
-0.0904364
-0.0907204
-0.0906433
-0.0905326
-0.0903951
-0.090192
-0.0899126
-0.0898677
-0.0896143
-0.0893064
-0.0889772
-0.0886205
-0.0883268
-0.0880394
-0.087795
-0.0876598
-0.0877927
-0.088388
-0.0878415
-0.0875025
-0.0873328
-0.0872382
-0.0871702
-0.0871281
-0.0871501
-0.0871415
-0.0871328
-0.0871302
-0.0871332
-0.0871581
-0.0871834
-0.087201
-0.0872074
-0.0871962
-0.0871501
-0.0870306
-0.0867848
-0.086469
-0.0865395
-0.0882637
-0.0888194
-0.088826
-0.0887251
-0.0885851
-0.0880078
-0.0858772
-0.0807895
0
0
-0.0192101
-0.0429598
-0.0592969
-0.0711483
-0.0794432
-0.0848685
-0.0878359
-0.0890004
-0.0892276
-0.0892508
-0.0894257
-0.0897356
-0.0900555
-0.0903483
-0.0909504
-0.0906409
-0.0903447
-0.0900867
-0.0898271
-0.0895808
-0.0894232
-0.0892164
-0.088958
-0.0886537
-0.0883043
-0.0879213
-0.0875054
-0.0870899
-0.0866618
-0.0863631
-0.0854873
-0.0860057
-0.08641
-0.0866334
-0.0867355
-0.0867659
-0.0867641
-0.0867676
-0.0867633
-0.0867625
-0.0867626
-0.0867422
-0.0868229
-0.0868891
-0.0869363
-0.0869682
-0.0869867
-0.0869903
-0.0869636
-0.0868599
-0.0867855
-0.0869796
-0.0876996
-0.088141
-0.0883066
-0.0883674
-0.0883366
-0.0878206
-0.0857393
-0.0806812
0
0
-0.0191953
-0.0429226
-0.0592431
-0.0710503
-0.0793468
-0.0847655
-0.0877189
-0.0888689
-0.0890893
-0.0891061
-0.0892965
-0.0896074
-0.0898762
-0.0899278
-0.0893514
-0.089544
-0.0896352
-0.0895702
-0.0893602
-0.08919
-0.089054
-0.0888864
-0.0886583
-0.0883568
-0.0879674
-0.0874669
-0.0868288
-0.0860381
-0.0848027
-0.0848626
-0.084982
-0.0854434
-0.0858807
-0.0861796
-0.0863431
-0.0864069
-0.0864163
-0.0863881
-0.0863697
-0.0863764
-0.0863711
-0.0848256
-0.0864748
-0.0866201
-0.086705
-0.0867644
-0.0868143
-0.0868741
-0.0869538
-0.0869097
-0.0869233
-0.0870935
-0.0874402
-0.0877262
-0.0879266
-0.0880864
-0.0881608
-0.0876752
-0.0856205
-0.0805788
0
0
-0.0191847
-0.0428964
-0.0592069
-0.0716538
-0.0792787
-0.0846673
-0.0876065
-0.0887507
-0.0889792
-0.0890443
-0.0892267
-0.0895241
-0.0897769
-0.0898481
-0.0896463
-0.089594
-0.0895364
-0.0893609
-0.0889463
-0.0888371
-0.0887807
-0.0886591
-0.0884448
-0.0881238
-0.0876645
-0.0869862
-0.0859141
-0.0840093
-0.0785829
-0.081246
-0.0833195
-0.0846024
-0.0853683
-0.0857986
-0.0860049
-0.0860676
-0.0863424
-0.0859577
-0.0858909
-0.0859252
-0.0860097
-0.0860808
-0.0862548
-0.0863969
-0.0865037
-0.086583
-0.0866492
-0.0867362
-0.0869288
-0.0868396
-0.0868896
-0.0870658
-0.0873456
-0.0875153
-0.0877021
-0.0879144
-0.0888389
-0.0875835
-0.0855259
-0.0804867
0
0
-0.0191789
-0.0428848
-0.0591682
-0.0709115
-0.0791729
-0.0845719
-0.0875091
-0.0886512
-0.0888815
-0.0889409
-0.0891392
-0.0894477
-0.0897146
-0.0898368
-0.089803
-0.0897275
-0.0896068
-0.0893525
-0.0885642
-0.0887271
-0.0887533
-0.0886224
-0.0883677
-0.0879971
-0.0874601
-0.08659
-0.0848258
-0.0795204
0.0416859
-0.073322
-0.0806849
-0.0835979
-0.0848949
-0.0854814
-0.0857035
-0.0857053
-0.0855651
-0.0853175
-0.0850874
-0.0852096
-0.0854787
-0.0857488
-0.0859893
-0.0861791
-0.0863211
-0.0864157
-0.0864656
-0.086445
-0.0862845
-0.0864856
-0.0867057
-0.0869889
-0.0887891
-0.087441
-0.0875972
-0.087766
-0.0879108
-0.0874742
-0.0854458
-0.080402
0
0
-0.0191792
-0.042908
-0.0591615
-0.070848
-0.0791004
-0.0845001
-0.0874331
-0.0885739
-0.0888077
-0.0888711
-0.0890818
-0.0893995
-0.0896754
-0.0898223
-0.089844
-0.0897946
-0.0897238
-0.0897414
-0.090308
-0.0897782
-0.0892748
-0.0888423
-0.0884334
-0.0879872
-0.0874266
-0.0866109
-0.0852327
-0.0825477
-0.0769571
-0.0802241
-0.0828048
-0.0842927
-0.0850721
-0.0854218
-0.0855001
-0.0853413
-0.0849275
-0.0841869
-0.0830964
-0.083664
-0.0845115
-0.0851845
-0.0856453
-0.0859507
-0.086157
-0.086276
-0.0863357
-0.0863368
-0.08625
-0.0862771
-0.0865093
-0.0867996
-0.0871167
-0.0873335
-0.087693
-0.0877025
-0.0878295
-0.0874192
-0.0853885
-0.0803133
0
0
-0.0191693
-0.0429561
-0.0591161
-0.0707468
-0.0789909
-0.0844353
-0.0873692
-0.0885153
-0.0887592
-0.0888377
-0.0890708
-0.0893908
-0.0896548
-0.0897941
-0.089829
-0.0897955
-0.0897335
-0.0897049
-0.0898011
-0.0895595
-0.0891997
-0.0888156
-0.0884201
-0.0879923
-0.0874897
-0.0868466
-0.0859707
-0.0847182
-0.083375
-0.083783
-0.0845036
-0.0850525
-0.0853511
-0.0854283
-0.0853508
-0.0849736
-0.0840478
-0.0818046
-0.0761873
-0.0798445
-0.0827054
-0.0843449
-0.0852308
-0.085719
-0.0860152
-0.0861604
-0.0862414
-0.0862517
-0.0861509
-0.085968
-0.0863045
-0.0866487
-0.0869495
-0.0873642
-0.0934538
-0.0877238
-0.0878639
-0.0874174
-0.0853423
-0.0802029
0
0
-0.0190774
-0.0424841
-0.0587236
-0.0704289
-0.0787791
-0.0850768
-0.0873618
-0.0884974
-0.0887438
-0.0888407
-0.0891285
-0.0894297
-0.089637
-0.0897259
-0.0897666
-0.0897529
-0.0896898
-0.089596
-0.0894992
-0.0893046
-0.089036
-0.0887235
-0.0883806
-0.0880045
-0.0875817
-0.0870984
-0.0865604
-0.0857373
-0.0850117
-0.0850633
-0.0853189
-0.0855024
-0.0855335
-0.0854038
-0.0852834
-0.0847183
-0.0831132
-0.077377
0.0474891
-0.0721733
-0.0804422
-0.0835773
-0.0849148
-0.0855391
-0.0858441
-0.0860544
-0.0861821
-0.086239
-0.0861497
-0.0856731
-0.0862869
-0.0866248
-0.086845
-0.0870799
-0.0874034
-0.0872651
-0.0879256
-0.0874059
-0.0852835
-0.0798094
0
0
-0.0190711
-0.0425436
-0.0586971
-0.0702918
-0.0786625
-0.0844349
-0.0874229
-0.0885296
-0.0887417
-0.0888512
-0.0892945
-0.0894949
-0.0895466
-0.0895183
-0.0896265
-0.0896849
-0.0896423
-0.0894995
-0.0893523
-0.0891707
-0.0889411
-0.088669
-0.0883641
-0.0880299
-0.087664
-0.0872635
-0.0868218
-0.0863013
-0.0854119
-0.0856878
-0.0858413
-0.0858409
-0.085687
-0.0853589
-0.0854017
-0.0848623
-0.0836624
-0.0809796
-0.0751184
-0.0790921
-0.082401
-0.0841439
-0.0850614
-0.0855575
-0.0858394
-0.0860296
-0.0861815
-0.0863618
-0.0867135
-0.0875113
-0.0870312
-0.0868291
-0.086825
-0.0869317
-0.087103
-0.087273
-0.0876263
-0.0872363
-0.0851748
-0.0800387
0
0
-0.0190831
-0.0426041
-0.0587294
-0.0701653
-0.0786305
-0.0847283
-0.0874722
-0.0884539
-0.0886105
-0.0887239
-0.0894892
-0.0893352
-0.0891356
-0.0889294
-0.0893953
-0.0896369
-0.0896345
-0.0893955
-0.0892661
-0.0891219
-0.0889193
-0.088667
-0.0883811
-0.0880689
-0.0877275
-0.0873438
-0.086859
-0.0869246
-0.08757
-0.0870265
-0.0865801
-0.0862344
-0.0859226
-0.0856094
-0.0854403
-0.0850779
-0.0844417
-0.0834728
-0.0823746
-0.0830361
-0.0840582
-0.0848256
-0.0853408
-0.085668
-0.0858826
-0.0860302
-0.0861632
-0.0863368
-0.0866118
-0.0869735
-0.0868883
-0.0867686
-0.0867464
-0.0868391
-0.087041
-0.0872766
-0.0874753
-0.087106
-0.0850987
-0.0800496
0
0
-0.0190959
-0.0426567
-0.0588683
-0.0707638
-0.0788001
-0.083435
-0.0865421
-0.0878656
-0.088197
-0.088159
-0.0875584
-0.0879879
-0.0880446
-0.0877995
-0.0892929
-0.0897257
-0.0897309
-0.0892975
-0.0893059
-0.089196
-0.0889856
-0.0887211
-0.0884342
-0.0881259
-0.0877772
-0.0872725
-0.0805843
-0.0867384
-0.0871263
-0.086976
-0.0866624
-0.0863257
-0.0859915
-0.0856774
-0.0854789
-0.0852604
-0.0849792
-0.0846663
-0.0844699
-0.0846321
-0.0849689
-0.0853139
-0.0856319
-0.0858141
-0.0859514
-0.0860347
-0.0861214
-0.0862504
-0.0864358
-0.0866376
-0.0866926
-0.0866285
-0.0866125
-0.0867232
-0.087023
-0.0872857
-0.0874325
-0.0870534
-0.0850521
-0.0800351
0
0
-0.0191003
-0.0426709
-0.0588731
-0.0706026
-0.0787542
-0.0838536
-0.0867511
-0.0879599
-0.0882601
-0.0882798
-0.0881252
-0.0882045
-0.0878727
-0.0881856
-0.0892573
-0.0897735
-0.0899794
-0.0902959
-0.0899157
-0.0895115
-0.0891433
-0.088815
-0.0885188
-0.0882149
-0.0878879
-0.0875157
-0.0870244
-0.0870481
-0.0870319
-0.0868645
-0.0865966
-0.0862595
-0.0858537
-0.0853759
-0.0852944
-0.0852499
-0.0852207
-0.0851824
-0.0851883
-0.085278
-0.0854345
-0.085646
-0.0871834
-0.0859832
-0.086032
-0.086032
-0.0860651
-0.0861582
-0.0863163
-0.0865239
-0.0866419
-0.0865089
-0.0864479
-0.0865455
-0.0870568
-0.0873327
-0.0874612
-0.0870795
-0.0850448
-0.080015
0
0
-0.0190999
-0.042669
-0.0588553
-0.070524
-0.0787359
-0.0840566
-0.0869922
-0.0882007
-0.0885677
-0.0888046
-0.0887636
-0.0888784
-0.0890842
-0.0902716
-0.0903272
-0.0902519
-0.0901526
-0.0900717
-0.0897912
-0.0894515
-0.0891216
-0.0888351
-0.0886074
-0.0883227
-0.0880089
-0.0877004
-0.0874276
-0.0872732
-0.0870757
-0.086841
-0.0865414
-0.0861149
-0.0853951
-0.0838631
-0.0845036
-0.0848012
-0.0851657
-0.0853613
-0.085475
-0.0855721
-0.0856802
-0.0858093
-0.0859637
-0.0860246
-0.0860757
-0.0860098
-0.0860046
-0.0860686
-0.0862257
-0.0865362
-0.0867618
-0.0864425
-0.0863106
-0.0863015
-0.0871817
-0.0873947
-0.0875336
-0.0872069
-0.0850834
-0.0799957
0
0
-0.0190986
-0.0426656
-0.0588455
-0.0705042
-0.0787484
-0.0841572
-0.0871704
-0.0884281
-0.0889367
-0.0892793
-0.0894517
-0.0894071
-0.0896218
-0.0900701
-0.090193
-0.0901535
-0.0901048
-0.0898737
-0.0895979
-0.0893083
-0.0890349
-0.0888248
-0.0887524
-0.0884432
-0.0880938
-0.0877936
-0.0875653
-0.0874204
-0.0871286
-0.0868652
-0.0865396
-0.0859673
-0.0844552
-0.0476418
-0.0826255
-0.0794423
-0.0848923
-0.0854013
-0.0856151
-0.0857339
-0.0858343
-0.0859349
-0.0860045
-0.0860402
-0.0860526
-0.0859989
-0.0859661
-0.0859769
-0.0860943
-0.0865899
-0.0869482
-0.0865498
-0.086398
-0.0864778
-0.0869497
-0.0872754
-0.0875711
-0.0874696
-0.0851429
-0.0799556
0
0
-0.0190981
-0.0426653
-0.0588444
-0.0705044
-0.0787661
-0.0842176
-0.0888689
-0.088573
-0.0889699
-0.0892911
-0.0893123
-0.0894453
-0.0896546
-0.0898686
-0.0899585
-0.0899874
-0.0933828
-0.089821
-0.0894781
-0.0891945
-0.0889401
-0.0887652
-0.0889179
-0.0884151
-0.0880222
-0.0877517
-0.0875657
-0.0874532
-0.087199
-0.0869536
-0.0867075
-0.0861982
-0.0853419
-0.0836525
-0.0844583
-0.0848668
-0.085354
-0.0856212
-0.0857626
-0.0858587
-0.0859613
-0.0860811
-0.086091
-0.0860607
-0.0860256
-0.085976
-0.0859272
-0.0858725
-0.0858531
-0.0866103
-0.0872028
-0.0864726
-0.0864165
-0.0865272
-0.0867906
-0.0870792
-0.0874198
-0.0876936
-0.0850325
-0.079838
0
0
-0.0190994
-0.0426696
-0.0588494
-0.0705083
-0.0787701
-0.0842225
-0.0872988
-0.0886352
-0.0889688
-0.089053
-0.0891451
-0.0893423
-0.0895608
-0.0897166
-0.0897748
-0.0897672
-0.0897813
-0.0895751
-0.0893465
-0.0890984
-0.08882
-0.0884622
-0.0876935
-0.0876663
-0.0876104
-0.0875595
-0.0874704
-0.0872877
-0.0871736
-0.0870566
-0.0891255
-0.0865643
-0.086054
-0.0855806
-0.0855746
-0.0856453
-0.0857529
-0.0858325
-0.0858881
-0.0859495
-0.0860691
-0.0862849
-0.0861897
-0.0860715
-0.0859957
-0.0859449
-0.085903
-0.0858566
-0.0858138
-0.085845
-0.0853136
-0.0861733
-0.0863544
-0.0864848
-0.0866434
-0.0867491
-0.0865367
-0.0853322
-0.0841978
-0.0796117
0
0
-0.019104
-0.0426823
-0.0588638
-0.0705155
-0.078765
-0.0842056
-0.087299
-0.0888674
-0.0891052
-0.0890332
-0.0890666
-0.0892496
-0.0894595
-0.089594
-0.0896277
-0.0895872
-0.0895505
-0.0894596
-0.0892952
-0.0890657
-0.0887858
-0.088958
-0.0880103
-0.0877207
-0.0875185
-0.0875411
-0.0875285
-0.0874235
-0.0872907
-0.0871378
-0.0870004
-0.0866946
-0.0864038
-0.0861742
-0.0860592
-0.0860055
-0.0859828
-0.0859695
-0.0859615
-0.085974
-0.0860725
-0.0864585
-0.0861437
-0.0859868
-0.0859227
-0.0858927
-0.085872
-0.0858523
-0.0858326
-0.0858086
-0.0857081
-0.0860446
-0.0862539
-0.0864097
-0.0865608
-0.0866824
-0.0866312
-0.0859429
-0.0842588
-0.079547
0
0
-0.0191158
-0.0427137
-0.0588995
-0.0705329
-0.0787539
-0.084159
-0.087245
-0.0892095
-0.0890571
-0.0888686
-0.0888581
-0.0890659
-0.0893055
-0.0894508
-0.0894751
-0.0893827
-0.0894391
-0.0894772
-0.0893506
-0.089105
-0.0887723
-0.08846
-0.0881032
-0.087742
-0.0873424
-0.0876527
-0.0877171
-0.0876145
-0.0874422
-0.0872429
-0.0870332
-0.0868014
-0.0865859
-0.0864094
-0.0862785
-0.0861823
-0.0861079
-0.0860445
-0.0859825
-0.0858994
-0.0857133
-0.0852026
-0.0855238
-0.085713
-0.085791
-0.0858152
-0.0858204
-0.085823
-0.0858314
-0.0858499
-0.0858882
-0.0860378
-0.0861929
-0.0863471
-0.0865185
-0.086723
-0.0880078
-0.0863247
-0.0843994
-0.0795503
0
0
-0.019145
-0.0427915
-0.0589874
-0.0705725
-0.0787415
-0.084045
-0.0867685
-0.0869372
-0.0875724
-0.0880708
-0.0883507
-0.0887618
-0.089111
-0.0893003
-0.089359
-0.089025
-0.0894087
-0.089705
-0.0895566
-0.0892379
-0.0887732
-0.0884526
-0.0881433
-0.0877195
-0.0869687
-0.0880012
-0.087997
-0.0877895
-0.0875557
-0.0873215
-0.0870954
-0.0868819
-0.0866917
-0.0865304
-0.0863952
-0.0862799
-0.0861779
-0.0860833
-0.0859887
-0.0858801
-0.0857281
-0.0855235
-0.0855906
-0.0856828
-0.0857323
-0.0857481
-0.0857519
-0.0857604
-0.085783
-0.0858254
-0.0858946
-0.0860025
-0.0861328
-0.086284
-0.0864662
-0.0866771
-0.0868208
-0.0863894
-0.0844548
-0.0795581
0
0
-0.0192168
-0.0430027
-0.0591991
-0.070661
-0.0787771
-0.0840485
-0.0868035
-0.0875883
-0.0878507
-0.0880756
-0.0883648
-0.0887502
-0.0890766
-0.0892502
-0.0932218
-0.0882248
-0.0896494
-0.0903223
-0.0899368
-0.089498
-0.0888216
-0.0886086
-0.0883414
-0.0880226
-0.0876861
-0.0878977
-0.0878825
-0.0877327
-0.0875329
-0.0873215
-0.0871155
-0.0869248
-0.0867555
-0.0866068
-0.086471
-0.0863424
-0.0862184
-0.086097
-0.0859763
-0.0858572
-0.0857509
-0.0856861
-0.0856955
-0.0857097
-0.0857008
-0.0856779
-0.0856593
-0.0856594
-0.0856853
-0.0857389
-0.0858197
-0.0859254
-0.0860523
-0.0862048
-0.0863974
-0.0866207
-0.0867447
-0.086363
-0.0844728
-0.0795599
0
0
-0.0193898
-0.0437027
-0.0595912
-0.0709261
-0.0789344