# vtk DataFile Version 2.0
FlowField
ASCII
DATASET STRUCTURED_GRID
DIMENSIONS 62 47 32 
POINTS 93248 double
0 0 0
0.01 0 0
0.02 0 0
0.03 0 0
0.04 0 0
0.05 0 0
0.06 0 0
0.07 0 0
0.08 0 0
0.09 0 0
0.1 0 0
0.11 0 0
0.12 0 0
0.13 0 0
0.14 0 0
0.15 0 0
0.16 0 0
0.17 0 0
0.18 0 0
0.19 0 0
0.2 0 0
0.21 0 0
0.22 0 0
0.23 0 0
0.24 0 0
0.25 0 0
0.26 0 0
0.27 0 0
0.28 0 0
0.29 0 0
0.3 0 0
0.31 0 0
0.32 0 0
0.33 0 0
0.34 0 0
0.35 0 0
0.36 0 0
0.37 0 0
0.38 0 0
0.39 0 0
0.4 0 0
0.41 0 0
0.42 0 0
0.43 0 0
0.44 0 0
0.45 0 0
0.46 0 0
0.47 0 0
0.48 0 0
0.49 0 0
0.5 0 0
0.51 0 0
0.52 0 0
0.53 0 0
0.54 0 0
0.55 0 0
0.56 0 0
0.57 0 0
0.58 0 0
0.59 0 0
0.6 0 0
0.61 0 0
0 0.01 0
0.01 0.01 0
0.02 0.01 0
0.03 0.01 0
0.04 0.01 0
0.05 0.01 0
0.06 0.01 0
0.07 0.01 0
0.08 0.01 0
0.09 0.01 0
0.1 0.01 0
0.11 0.01 0
0.12 0.01 0
0.13 0.01 0
0.14 0.01 0
0.15 0.01 0
0.16 0.01 0
0.17 0.01 0
0.18 0.01 0
0.19 0.01 0
0.2 0.01 0
0.21 0.01 0
0.22 0.01 0
0.23 0.01 0
0.24 0.01 0
0.25 0.01 0
0.26 0.01 0
0.27 0.01 0
0.28 0.01 0
0.29 0.01 0
0.3 0.01 0
0.31 0.01 0
0.32 0.01 0
0.33 0.01 0
0.34 0.01 0
0.35 0.01 0
0.36 0.01 0
0.37 0.01 0
0.38 0.01 0
0.39 0.01 0
0.4 0.01 0
0.41 0.01 0
0.42 0.01 0
0.43 0.01 0
0.44 0.01 0
0.45 0.01 0
0.46 0.01 0
0.47 0.01 0
0.48 0.01 0
0.49 0.01 0
0.5 0.01 0
0.51 0.01 0
0.52 0.01 0
0.53 0.01 0
0.54 0.01 0
0.55 0.01 0
0.56 0.01 0
0.57 0.01 0
0.58 0.01 0
0.59 0.01 0
0.6 0.01 0
0.61 0.01 0
0 0.02 0
0.01 0.02 0
0.02 0.02 0
0.03 0.02 0
0.04 0.02 0
0.05 0.02 0
0.06 0.02 0
0.07 0.02 0
0.08 0.02 0
0.09 0.02 0
0.1 0.02 0
0.11 0.02 0
0.12 0.02 0
0.13 0.02 0
0.14 0.02 0
0.15 0.02 0
0.16 0.02 0
0.17 0.02 0
0.18 0.02 0
0.19 0.02 0
0.2 0.02 0
0.21 0.02 0
0.22 0.02 0
0.23 0.02 0
0.24 0.02 0
0.25 0.02 0
0.26 0.02 0
0.27 0.02 0
0.28 0.02 0
0.29 0.02 0
0.3 0.02 0
0.31 0.02 0
0.32 0.02 0
0.33 0.02 0
0.34 0.02 0
0.35 0.02 0
0.36 0.02 0
0.37 0.02 0
0.38 0.02 0
0.39 0.02 0
0.4 0.02 0
0.41 0.02 0
0.42 0.02 0
0.43 0.02 0
0.44 0.02 0
0.45 0.02 0
0.46 0.02 0
0.47 0.02 0
0.48 0.02 0
0.49 0.02 0
0.5 0.02 0
0.51 0.02 0
0.52 0.02 0
0.53 0.02 0
0.54 0.02 0
0.55 0.02 0
0.56 0.02 0
0.57 0.02 0
0.58 0.02 0
0.59 0.02 0
0.6 0.02 0
0.61 0.02 0
0 0.03 0
0.01 0.03 0
0.02 0.03 0
0.03 0.03 0
0.04 0.03 0
0.05 0.03 0
0.06 0.03 0
0.07 0.03 0
0.08 0.03 0
0.09 0.03 0
0.1 0.03 0
0.11 0.03 0
0.12 0.03 0
0.13 0.03 0
0.14 0.03 0
0.15 0.03 0
0.16 0.03 0
0.17 0.03 0
0.18 0.03 0
0.19 0.03 0
0.2 0.03 0
0.21 0.03 0
0.22 0.03 0
0.23 0.03 0
0.24 0.03 0
0.25 0.03 0
0.26 0.03 0
0.27 0.03 0
0.28 0.03 0
0.29 0.03 0
0.3 0.03 0
0.31 0.03 0
0.32 0.03 0
0.33 0.03 0
0.34 0.03 0
0.35 0.03 0
0.36 0.03 0
0.37 0.03 0
0.38 0.03 0
0.39 0.03 0
0.4 0.03 0
0.41 0.03 0
0.42 0.03 0
0.43 0.03 0
0.44 0.03 0
0.45 0.03 0
0.46 0.03 0
0.47 0.03 0
0.48 0.03 0
0.49 0.03 0
0.5 0.03 0
0.51 0.03 0
0.52 0.03 0
0.53 0.03 0
0.54 0.03 0
0.55 0.03 0
0.56 0.03 0
0.57 0.03 0
0.58 0.03 0
0.59 0.03 0
0.6 0.03 0
0.61 0.03 0
0 0.04 0
0.01 0.04 0
0.02 0.04 0
0.03 0.04 0
0.04 0.04 0
0.05 0.04 0
0.06 0.04 0
0.07 0.04 0
0.08 0.04 0
0.09 0.04 0
0.1 0.04 0
0.11 0.04 0
0.12 0.04 0
0.13 0.04 0
0.14 0.04 0
0.15 0.04 0
0.16 0.04 0
0.17 0.04 0
0.18 0.04 0
0.19 0.04 0
0.2 0.04 0
0.21 0.04 0
0.22 0.04 0
0.23 0.04 0
0.24 0.04 0
0.25 0.04 0
0.26 0.04 0
0.27 0.04 0
0.28 0.04 0
0.29 0.04 0
0.3 0.04 0
0.31 0.04 0
0.32 0.04 0
0.33 0.04 0
0.34 0.04 0
0.35 0.04 0
0.36 0.04 0
0.37 0.04 0
0.38 0.04 0
0.39 0.04 0
0.4 0.04 0
0.41 0.04 0
0.42 0.04 0
0.43 0.04 0
0.44 0.04 0
0.45 0.04 0
0.46 0.04 0
0.47 0.04 0
0.48 0.04 0
0.49 0.04 0
0.5 0.04 0
0.51 0.04 0
0.52 0.04 0
0.53 0.04 0
0.54 0.04 0
0.55 0.04 0
0.56 0.04 0
0.57 0.04 0
0.58 0.04 0
0.59 0.04 0
0.6 0.04 0
0.61 0.04 0
0 0.05 0
0.01 0.05 0
0.02 0.05 0
0.03 0.05 0
0.04 0.05 0
0.05 0.05 0
0.06 0.05 0
0.07 0.05 0
0.08 0.05 0
0.09 0.05 0
0.1 0.05 0
0.11 0.05 0
0.12 0.05 0
0.13 0.05 0
0.14 0.05 0
0.15 0.05 0
0.16 0.05 0
0.17 0.05 0
0.18 0.05 0
0.19 0.05 0
0.2 0.05 0
0.21 0.05 0
0.22 0.05 0
0.23 0.05 0
0.24 0.05 0
0.25 0.05 0
0.26 0.05 0
0.27 0.05 0
0.28 0.05 0
0.29 0.05 0
0.3 0.05 0
0.31 0.05 0
0.32 0.05 0
0.33 0.05 0
0.34 0.05 0
0.35 0.05 0
0.36 0.05 0
0.37 0.05 0
0.38 0.05 0
0.39 0.05 0
0.4 0.05 0
0.41 0.05 0
0.42 0.05 0
0.43 0.05 0
0.44 0.05 0
0.45 0.05 0
0.46 0.05 0
0.47 0.05 0
0.48 0.05 0
0.49 0.05 0
0.5 0.05 0
0.51 0.05 0
0.52 0.05 0
0.53 0.05 0
0.54 0.05 0
0.55 0.05 0
0.56 0.05 0
0.57 0.05 0
0.58 0.05 0
0.59 0.05 0
0.6 0.05 0
0.61 0.05 0
0 0.06 0
0.01 0.06 0
0.02 0.06 0
0.03 0.06 0
0.04 0.06 0
0.05 0.06 0
0.06 0.06 0
0.07 0.06 0
0.08 0.06 0
0.09 0.06 0
0.1 0.06 0
0.11 0.06 0
0.12 0.06 0
0.13 0.06 0
0.14 0.06 0
0.15 0.06 0
0.16 0.06 0
0.17 0.06 0
0.18 0.06 0
0.19 0.06 0
0.2 0.06 0
0.21 0.06 0
0.22 0.06 0
0.23 0.06 0
0.24 0.06 0
0.25 0.06 0
0.26 0.06 0
0.27 0.06 0
0.28 0.06 0
0.29 0.06 0
0.3 0.06 0
0.31 0.06 0
0.32 0.06 0
0.33 0.06 0
0.34 0.06 0
0.35 0.06 0
0.36 0.06 0
0.37 0.06 0
0.38 0.06 0
0.39 0.06 0
0.4 0.06 0
0.41 0.06 0
0.42 0.06 0
0.43 0.06 0
0.44 0.06 0
0.45 0.06 0
0.46 0.06 0
0.47 0.06 0
0.48 0.06 0
0.49 0.06 0
0.5 0.06 0
0.51 0.06 0
0.52 0.06 0
0.53 0.06 0
0.54 0.06 0
0.55 0.06 0
0.56 0.06 0
0.57 0.06 0
0.58 0.06 0
0.59 0.06 0
0.6 0.06 0
0.61 0.06 0
0 0.07 0
0.01 0.07 0
0.02 0.07 0
0.03 0.07 0
0.04 0.07 0
0.05 0.07 0
0.06 0.07 0
0.07 0.07 0
0.08 0.07 0
0.09 0.07 0
0.1 0.07 0
0.11 0.07 0
0.12 0.07 0
0.13 0.07 0
0.14 0.07 0
0.15 0.07 0
0.16 0.07 0
0.17 0.07 0
0.18 0.07 0
0.19 0.07 0
0.2 0.07 0
0.21 0.07 0
0.22 0.07 0
0.23 0.07 0
0.24 0.07 0
0.25 0.07 0
0.26 0.07 0
0.27 0.07 0
0.28 0.07 0
0.29 0.07 0
0.3 0.07 0
0.31 0.07 0
0.32 0.07 0
0.33 0.07 0
0.34 0.07 0
0.35 0.07 0
0.36 0.07 0
0.37 0.07 0
0.38 0.07 0
0.39 0.07 0
0.4 0.07 0
0.41 0.07 0
0.42 0.07 0
0.43 0.07 0
0.44 0.07 0
0.45 0.07 0
0.46 0.07 0
0.47 0.07 0
0.48 0.07 0
0.49 0.07 0
0.5 0.07 0
0.51 0.07 0
0.52 0.07 0
0.53 0.07 0
0.54 0.07 0
0.55 0.07 0
0.56 0.07 0
0.57 0.07 0
0.58 0.07 0
0.59 0.07 0
0.6 0.07 0
0.61 0.07 0
0 0.08 0
0.01 0.08 0
0.02 0.08 0
0.03 0.08 0
0.04 0.08 0
0.05 0.08 0
0.06 0.08 0
0.07 0.08 0
0.08 0.08 0
0.09 0.08 0
0.1 0.08 0
0.11 0.08 0
0.12 0.08 0
0.13 0.08 0
0.14 0.08 0
0.15 0.08 0
0.16 0.08 0
0.17 0.08 0
0.18 0.08 0
0.19 0.08 0
0.2 0.08 0
0.21 0.08 0
0.22 0.08 0
0.23 0.08 0
0.24 0.08 0
0.25 0.08 0
0.26 0.08 0
0.27 0.08 0
0.28 0.08 0
0.29 0.08 0
0.3 0.08 0
0.31 0.08 0
0.32 0.08 0
0.33 0.08 0
0.34 0.08 0
0.35 0.08 0
0.36 0.08 0
0.37 0.08 0
0.38 0.08 0
0.39 0.08 0
0.4 0.08 0
0.41 0.08 0
0.42 0.08 0
0.43 0.08 0
0.44 0.08 0
0.45 0.08 0
0.46 0.08 0
0.47 0.08 0
0.48 0.08 0
0.49 0.08 0
0.5 0.08 0
0.51 0.08 0
0.52 0.08 0
0.53 0.08 0
0.54 0.08 0
0.55 0.08 0
0.56 0.08 0
0.57 0.08 0
0.58 0.08 0
0.59 0.08 0
0.6 0.08 0
0.61 0.08 0
0 0.09 0
0.01 0.09 0
0.02 0.09 0
0.03 0.09 0
0.04 0.09 0
0.05 0.09 0
0.06 0.09 0
0.07 0.09 0
0.08 0.09 0
0.09 0.09 0
0.1 0.09 0
0.11 0.09 0
0.12 0.09 0
0.13 0.09 0
0.14 0.09 0
0.15 0.09 0
0.16 0.09 0
0.17 0.09 0
0.18 0.09 0
0.19 0.09 0
0.2 0.09 0
0.21 0.09 0
0.22 0.09 0
0.23 0.09 0
0.24 0.09 0
0.25 0.09 0
0.26 0.09 0
0.27 0.09 0
0.28 0.09 0
0.29 0.09 0
0.3 0.09 0
0.31 0.09 0
0.32 0.09 0
0.33 0.09 0
0.34 0.09 0
0.35 0.09 0
0.36 0.09 0
0.37 0.09 0
0.38 0.09 0
0.39 0.09 0
0.4 0.09 0
0.41 0.09 0
0.42 0.09 0
0.43 0.09 0
0.44 0.09 0
0.45 0.09 0
0.46 0.09 0
0.47 0.09 0
0.48 0.09 0
0.49 0.09 0
0.5 0.09 0
0.51 0.09 0
0.52 0.09 0
0.53 0.09 0
0.54 0.09 0
0.55 0.09 0
0.56 0.09 0
0.57 0.09 0
0.58 0.09 0
0.59 0.09 0
0.6 0.09 0
0.61 0.09 0
0 0.1 0
0.01 0.1 0
0.02 0.1 0
0.03 0.1 0
0.04 0.1 0
0.05 0.1 0
0.06 0.1 0
0.07 0.1 0
0.08 0.1 0
0.09 0.1 0
0.1 0.1 0
0.11 0.1 0
0.12 0.1 0
0.13 0.1 0
0.14 0.1 0
0.15 0.1 0
0.16 0.1 0
0.17 0.1 0
0.18 0.1 0
0.19 0.1 0
0.2 0.1 0
0.21 0.1 0
0.22 0.1 0
0.23 0.1 0
0.24 0.1 0
0.25 0.1 0
0.26 0.1 0
0.27 0.1 0
0.28 0.1 0
0.29 0.1 0
0.3 0.1 0
0.31 0.1 0
0.32 0.1 0
0.33 0.1 0
0.34 0.1 0
0.35 0.1 0
0.36 0.1 0
0.37 0.1 0
0.38 0.1 0
0.39 0.1 0
0.4 0.1 0
0.41 0.1 0
0.42 0.1 0
0.43 0.1 0
0.44 0.1 0
0.45 0.1 0
0.46 0.1 0
0.47 0.1 0
0.48 0.1 0
0.49 0.1 0
0.5 0.1 0
0.51 0.1 0
0.52 0.1 0
0.53 0.1 0
0.54 0.1 0
0.55 0.1 0
0.56 0.1 0
0.57 0.1 0
0.58 0.1 0
0.59 0.1 0
0.6 0.1 0
0.61 0.1 0
0 0.11 0
0.01 0.11 0
0.02 0.11 0
0.03 0.11 0
0.04 0.11 0
0.05 0.11 0
0.06 0.11 0
0.07 0.11 0
0.08 0.11 0
0.09 0.11 0
0.1 0.11 0
0.11 0.11 0
0.12 0.11 0
0.13 0.11 0
0.14 0.11 0
0.15 0.11 0
0.16 0.11 0
0.17 0.11 0
0.18 0.11 0
0.19 0.11 0
0.2 0.11 0
0.21 0.11 0
0.22 0.11 0
0.23 0.11 0
0.24 0.11 0
0.25 0.11 0
0.26 0.11 0
0.27 0.11 0
0.28 0.11 0
0.29 0.11 0
0.3 0.11 0
0.31 0.11 0
0.32 0.11 0
0.33 0.11 0
0.34 0.11 0
0.35 0.11 0
0.36 0.11 0
0.37 0.11 0
0.38 0.11 0
0.39 0.11 0
0.4 0.11 0
0.41 0.11 0
0.42 0.11 0
0.43 0.11 0
0.44 0.11 0
0.45 0.11 0
0.46 0.11 0
0.47 0.11 0
0.48 0.11 0
0.49 0.11 0
0.5 0.11 0
0.51 0.11 0
0.52 0.11 0
0.53 0.11 0
0.54 0.11 0
0.55 0.11 0
0.56 0.11 0
0.57 0.11 0
0.58 0.11 0
0.59 0.11 0
0.6 0.11 0
0.61 0.11 0
0 0.12 0
0.01 0.12 0
0.02 0.12 0
0.03 0.12 0
0.04 0.12 0
0.05 0.12 0
0.06 0.12 0
0.07 0.12 0
0.08 0.12 0
0.09 0.12 0
0.1 0.12 0
0.11 0.12 0
0.12 0.12 0
0.13 0.12 0
0.14 0.12 0
0.15 0.12 0
0.16 0.12 0
0.17 0.12 0
0.18 0.12 0
0.19 0.12 0
0.2 0.12 0
0.21 0.12 0
0.22 0.12 0
0.23 0.12 0
0.24 0.12 0
0.25 0.12 0
0.26 0.12 0
0.27 0.12 0
0.28 0.12 0
0.29 0.12 0
0.3 0.12 0
0.31 0.12 0
0.32 0.12 0
0.33 0.12 0
0.34 0.12 0
0.35 0.12 0
0.36 0.12 0
0.37 0.12 0
0.38 0.12 0
0.39 0.12 0
0.4 0.12 0
0.41 0.12 0
0.42 0.12 0
0.43 0.12 0
0.44 0.12 0
0.45 0.12 0
0.46 0.12 0
0.47 0.12 0
0.48 0.12 0
0.49 0.12 0
0.5 0.12 0
0.51 0.12 0
0.52 0.12 0
0.53 0.12 0
0.54 0.12 0
0.55 0.12 0
0.56 0.12 0
0.57 0.12 0
0.58 0.12 0
0.59 0.12 0
0.6 0.12 0
0.61 0.12 0
0 0.13 0
0.01 0.13 0
0.02 0.13 0
0.03 0.13 0
0.04 0.13 0
0.05 0.13 0
0.06 0.13 0
0.07 0.13 0
0.08 0.13 0
0.09 0.13 0
0.1 0.13 0
0.11 0.13 0
0.12 0.13 0
0.13 0.13 0
0.14 0.13 0
0.15 0.13 0
0.16 0.13 0
0.17 0.13 0
0.18 0.13 0
0.19 0.13 0
0.2 0.13 0
0.21 0.13 0
0.22 0.13 0
0.23 0.13 0
0.24 0.13 0
0.25 0.13 0
0.26 0.13 0
0.27 0.13 0
0.28 0.13 0
0.29 0.13 0
0.3 0.13 0
0.31 0.13 0
0.32 0.13 0
0.33 0.13 0
0.34 0.13 0
0.35 0.13 0
0.36 0.13 0
0.37 0.13 0
0.38 0.13 0
0.39 0.13 0
0.4 0.13 0
0.41 0.13 0
0.42 0.13 0
0.43 0.13 0
0.44 0.13 0
0.45 0.13 0
0.46 0.13 0
0.47 0.13 0
0.48 0.13 0
[...]
POINT_DATA 93248

SCALARS u double
LOOKUP_TABLE default
0
0
0
0
0
0
0
0
0
0
0
0
0
0
0
0
0
0
0
0
0
0
0
0
0.229077
0
0
0
0
0
0
0
-0.00717963
0.180522
0
0
0
0
0
0
0
0
0
0
0
0
0
0.0190124
0
0
0.0359464
0
0
0
0
0
0
0
0
0
0
0
0
0.401273
0.312403
0.226555
0.155144
0.102423
0.0624001
0.033331
0.0120679
-0.00433614
-0.0175256
-0.0270669
-0.0282423
-0.0305574
-0.0318173
-0.0311032
-0.0294993
-0.0288127
-0.0282636
-0.0279043
-0.0153011
-0.0125912
-0.0193753
-0.0173838
-0.0150627
-0.0133165
-0.0119841
-0.0109352
-0.0101639
-0.00978736
-0.00994796
-0.0100305
-0.0066164
-0.00692009
-0.00809167
-0.00874442
-0.00524829
-0.0079225
-0.0121406
0.122236
-0.0140612
-0.00727382
-0.00449041
0.0010698
0.0168912
-0.0418414
-0.0165511
-0.0135313
-0.011557
-0.0114622
-0.0111139
-0.0218183
-0.00798578
0.00903212
-0.0502677
-0.0363279
-0.0483006
-0.0278566
-0.0354277
-0.0468166
-0.0468166
0
0
0.475955
0.446806
0.40839
0.360711
0.314966
0.261407
0.209052
0.162206
0.123288
0.0918626
0.0671538
0.0557934
0.0440798
0.0366933
0.0334104
0.0321952
0.0307676
0.0325245
0.253742
0.0451268
0.0507956
0.0256923
0.0327399
0.0350012
0.0360131
0.0364109
0.0363479
0.0358715
0.0349636
0.033501
0.0313735
0.0338905
0.0307128
0.0290077
0.0284018
0.0234618
0.0214365
0.0137536
0.0206036
0.0177027
0.0149265
0.0166893
0.0198397
0.019794
-0.0103752
-0.0170134
-0.0134564
-0.0130042
-0.0123186
-0.00953955
-0.0229449
-0.0192177
-0.0221967
-0.0554345
-0.0598032
-0.0679518
-0.0697506
-0.0814118
-0.0941466
-0.0941466
0
0
0.470013
0.457017
0.443846
0.417257
0.40918
0.369024
0.330616
0.293237
0.257826
0.264895
0.201344
0.171733
0.154352
0.141828
0.133349
0.127245
0.120573
0.118672
0.117832
0.110306
0.113293
0.10335
0.102604
0.102529
0.101863
0.100578
0.0987896
0.096623
0.0942888
0.0922707
0.0911672
0.0853482
0.0776941
0.173932
0.0746585
0.0689887
0.0656401
0.0636643
0.0610956
0.0567829
0.0516744
0.0983743
0.0441619
0.0365605
0.0964136
0.00773043
0.00253648
-0.0130042
-0.0026683
-0.00575233
-0.015893
-0.0218183
-0.0324472
-0.050989
-0.0632086
-0.0744354
-0.0901942
-0.100563
-0.111797
-0.111797
0
0
0.462971
0.444611
0.442443
0.426761
0.415787
0.396727
0.374866
0.351801
0.328658
0.305939
0.284692
0.262055
0.24299
0.227231
0.217431
0.205167
0.199285
0.19248
0.251094
0.177664
0.172042
0.165958
0.161893
0.158893
0.156071
0.153018
0.149649
0.146013
0.142232
0.138399
0.13409
0.127464
0.120027
0.114466
0.110404
0.10566
0.101335
0.0963831
0.0912979
0.0854744
0.0786183
0.0708149
0.0630808
0.0531694
0.040962
0.0285298
0.0203962
0.0141538
0.0078474
0.00056276
-0.00895906
-0.0191439
-0.0311774
-0.0447997
-0.0582124
-0.0713956
-0.0856372
-0.0979943
-0.110699
-0.110699
0
0
0.460674
0.440831
0.428146
0.415277
0.404054
0.391076
0.377246
0.362764
0.347827
0.332626
0.317292
0.301465
0.285496
0.267606
0.270144
0.254336
0.245069
0.237042
0.228112
0.220059
0.212837
0.206498
0.20099
0.196127
0.191592
0.18706
0.182428
0.177651
0.172674
0.167303
0.161034
0.153499
0.147932
0.141076
0.134771
0.128797
0.122863
0.116366
0.109532
0.102191
0.094107
0.0850975
0.075513
0.0652552
0.0553715
0.0586143
0.0335289
0.0247858
0.0158537
0.00641197
-0.00378387
-0.0147573
-0.0262311
-0.0378308
-0.0495223
-0.0607601
-0.0712457
-0.0810289
-0.0933686
-0.0933686
0
0
0.459647
0.437176
0.41924
0.403703
0.390102
0.376888
0.364972
0.353257
0.341406
0.329618
0.317958
0.306511
0.294444
0.282539
0.278582
0.270741
0.262791
0.257136
0.248796
0.241456
0.234722
0.228432
0.222466
0.216785
0.211328
0.20585
0.200394
0.194883
0.18917
0.183016
0.176032
0.167654
0.163472
0.155504
0.147934
0.140843
0.133761
0.126348
0.118558
0.110302
0.101482
0.0919773
0.0817788
0.0707299
0.0589734
0.0529683
0.0422631
0.0316446
0.0212578
0.0108578
0.000345862
-0.010294
-0.0207838
-0.0308353
-0.0403139
-0.0487568
-0.0550862
-0.0561015
-0.0469023
-0.0469023
0
0
0.459072
0.434858
0.413969
0.395693
0.379867
0.444583
0.35305
0.339468
0.327142
0.315731
0.305376
0.296762
0.2871
0.278412
0.272079
0.266734
0.263942
0.259254
0.253742
0.248322
0.243121
0.237697
0.232049
0.226314
0.220606
0.214742
0.208991
0.203213
0.19727
0.191063
0.184848
0.179557
0.167416
0.160107
0.153139
0.145905
0.138374
0.130495
0.122236
0.113557
0.10444
0.10032
0.0846581
0.074106
0.0638754
0.0555101
0.0457031
0.0352346
0.0246401
0.0141122
0.00376216
-0.00627642
-0.0158725
-0.0247868
-0.032983
-0.0408578
-0.0501279
-0.0650337
-0.0229777
-0.0229777
0
0
0.45871
0.433379
0.410695
0.390282
0.371784
0.354329
0.339399
0.325466
0.31245
0.300315
0.289605
0.284799
0.2752
0.267064
0.259224
0.0321952
0.261214
0.254697
0.251094
0.247462
0.244136
0.239808
0.234814
0.229375
0.191592
0.21803
0.212569
0.206931
0.201089
0.194906
0.188229
0.181075
0.171626
0.163312
0.155607
0.147938
0.140104
0.131985
0.123509
0.114651
0.105405
0.095765
0.0859336
0.075995
0.0662674
0.0568533
0.047133
0.037027
0.0267399
0.0165107
0.00655002
-0.00285478
-0.0118845
-0.0202923
-0.0281993
-0.0360269
-0.0446832
-0.0568655
-0.0467283
-0.0467283
0
0
0.45847
0.4324
0.408548
0.386667
0.366486
0.347685
0.33077
0.315278
0.30084
0.286791
0.270256
0.279789
0.26566
0.257172
0.251019
0.248415
0.251603
0.249594
0.247029
0.244085
0.242174
0.238487
0.234145
0.229404
0.224971
0.219526
0.21405
0.208592
0.202996
0.196872
0.189311
0.181353
0.173069
0.164927
0.156967
0.148994
0.140928
0.132644
0.124042
0.115104
0.105859
0.0963599
0.086731
0.0770681
0.0674442
0.0577994
0.0480646
0.0381851
0.0282206
0.0183369
0.00860058
0.00010263
-0.00881446
-0.0171637
-0.0252674
-0.0335398
-0.0425334
-0.0524005
-0.0595885
-0.0595885
0
0
0.458305
0.431733
0.407086
0.384219
0.362958
0.343205
0.325034
0.308315
0.292854
0.278443
0.26568
0.263829
0.256508
0.250005
0.244994
0.243105
0.243244
0.242822
0.242051
0.241275
0.237951
0.235193
0.231734
0.227327
0.224504
0.219225
0.214175
0.209188
0.204098
0.234499
0.189525
0.181299
0.173508
0.16571
0.157865
0.161143
0.141699
0.133267
0.124548
0.115544
0.106308
0.0969035
0.0873846
0.0778245
0.0682424
0.0586143
0.0489455
0.0392273
0.0294895
0.0199302
0.0106494
-0.00281101
-0.00655601
-0.0149449
-0.023293
-0.031855
-0.0410358
-0.0512287
-0.0627141
-0.0627141
0
0
0.458192
0.431275
0.40607
0.382522
0.360513
0.340021
0.321064
0.303631
0.287755
0.273659
0.262302
0.255028
0.248814
0.244118
0.239317
0.237416
0.237015
0.23701
0.237063
0.246544
0.234833
0.232381
0.22929
0.225591
0.222205
0.217861
0.213418
0.208946
0.203883
0.198321
0.188113
0.181226
0.174031
0.166417
0.15855
0.150494
0.155694
0.134031
0.125199
0.116106
0.106845
0.0975268
0.0880513
0.0785302
0.0689917
0.0594391
0.0498862
0.0403181
0.0307217
0.0214727
0.0126325
0.00414698
-0.0045849
-0.0131904
-0.0217267
-0.030446
-0.0397645
-0.0502265
-0.0623096
-0.0623096
0
0
0.458117
0.430971
0.405423
0.381302
0.358754
0.337753
0.318309
0.300501
0.284487
0.270487
0.25907
0.250238
0.243682
0.239768
0.234174
0.232884
0.232563
0.232561
0.232958
0.232805
0.231726
0.229729
0.22695
0.223561
0.219803
0.215709
0.211745
0.207809
0.202398
0.193944
0.191154
0.183575
0.17554
0.167524
0.159458
0.151277
0.142945
0.134661
0.125904
0.116701
0.107315
0.0983743
0.0888539
0.0793181
0.0698073
0.0603266
0.0508984
0.0414817
0.0318885
0.0228565
0.0141716
0.00558977
-0.00307963
-0.0117112
-0.0202968
-0.0290553
-0.0383989
-0.0488858
-0.0609917
-0.0609917
0
0
0.458067
0.430768
0.404961
0.380396
0.357518
0.336177
0.316427
0.298401
0.282316
0.268184
0.256498
0.247024
0.239435
0.232785
0.232796
0.230996
0.229842
0.229297
0.230123
0.230218
0.229264
0.227367
0.224644
0.22119
0.217104
0.212665
0.208622
0.205363
0.203159
0.196859
0.191246
0.184326
0.176675
0.168679
0.160513
0.152277
0.143913
0.135669
0.126778
0.117226
0.106895
0.100268
0.0899528
0.0802627
0.0707246
0.0612669
0.0519288
0.042691
0.032902
0.0241153
0.0155265
0.0068837
-0.00180336
-0.0103837
-0.0188901
-0.0275681
-0.0368369
-0.0472502
-0.0593708
-0.0593708
0
0
0.458038
0.43066
0.404854
0.379543
0.356642
0.335108
0.315154
0.296951
0.280642
0.266663
0.254711
0.244914
0.237198
0.231662
0.2296
0.228295
0.22734
0.226444
0.228502
0.228521
0.227312
0.225255
0.222382
0.218611
0.213826
0.207963
0.201536
0.195844
0.210256
0.203203
0.194713
0.186569
0.178382
0.170026
0.161611
0.153451
0.1445
0.136766
0.127826
0.11819
0.108474
0.10032
0.0908841
0.0813011
0.0717232
0.0622022
0.0528229
0.0437819
0.0338495
0.0254917
0.0169923
0.00832513
-0.000630763
-0.00911104
-0.0174382
-0.0259081
-0.0350136
-0.0452337
-0.057349
-0.057349
0
0
0.458013
0.430511
0.404407
0.379451
0.356167
0.334429
0.314326
0.296022
0.279692
0.26553
0.253475
0.243605
0.236015
0.230838
0.227983
0.226577
0.225793
0.224454
0.227959
0.226993
0.225397
0.22325
0.220243
0.216079
0.210252
0.201394
0.185029
0.148528
0.256371
0.218324
0.201615
0.190409
0.180672
0.171362
0.162285
0.153551
0.145104
0.137747
0.129046
0.119668
0.110288
0.101224
0.091938
0.0824476
0.0727995
0.0631032
0.0533116
0.0434903
0.0359788
0.0273911
0.0187582
0.0105028
6.91046e-06
-0.00785163
-0.0159396
-0.0240804
-0.0327453
-0.0425405
-0.0544989
-0.0544989
0
0
0.458021
0.430405
0.404187
0.379321
0.355935
0.334054
0.313822
0.29545
0.279108
0.264895
0.252756
0.242846
0.235321
0.230224
0.227282
0.226052
0.226356
0.228834
0.224071
0.22379
0.223171
0.221472
0.218572
0.214285
0.208178
0.199407
0.187326
0.178287
0.216236
0.213233
0.202932
0.192091
0.181704
0.171667
0.161844
0.152308
0.143648
0.137228
0.130939
0.122296
0.11291
0.103377
0.0937557
0.0840236
0.0741225
0.064265
0.0544286
0.0449263
0.0364178
0.0286616
0.0201404
0.0114409
0.00204954
-0.00603829
-0.0145778
-0.0221233
-0.0299455
-0.0387629
-0.0500428
-0.0500428
0
0
0.458091
0.430345
0.404106
0.379305
0.355915
0.333798
0.313455
0.29509
0.278819
0.264683
0.252423
0.24242
0.234892
0.229876
0.22706
0.225946
0.226079
0.226691
0.225052
0.223956
0.222765
0.220874
0.217978
0.213909
0.208583
0.202212
0.196054
0.194743
0.202668
0.20284
0.197365
0.189246
0.180006
0.170157
0.159784
0.148778
0.137443
0.129158
0.138354
0.129017
0.11782
0.106965
0.0964136
0.0860718
0.0757446
0.0657118
0.0558358
0.0461681
0.0368939
0.0298516
0.021064
0.0123148
0.00414509
-0.00239121
-0.0149082
-0.0204193
-0.026805
-0.033659
-0.0424851
-0.0424851
0
0
0.457861
0.430466
0.404257
0.379495
0.356303
0.318309
0.312947
0.294845
0.278798
0.264894
0.252315
0.242158
0.234624
0.229789
0.227183
0.226055
0.225794
0.225936
0.225558
0.224728
0.223386
0.221363
0.218523
0.214855
0.21058
0.206361
0.247367
0.200583
0.200663
0.197892
0.192601
0.185541
0.177213
0.167687
0.156737
0.14326
0.123439
0.0825995
0.182878
0.144245
0.125109
0.11133
0.0992943
0.0880438
0.0775527
0.0672731
0.0573426
0.0476007
0.0376404
0.0308051
0.021351
0.0127719
0.00501025
-0.00245039
-0.0123226
-0.0410358
-0.0241287
-0.0282483
-0.0283611
0
0
0
0.457933
0.429825
0.404125
0.379567
0.356525
0.333829
0.313299
0.29503
0.279103
0.265585
0.252197
0.242004
0.234541
0.230131
0.227844
0.226632
0.226031
0.226385
0.226387
0.225754
0.224466
0.222484
0.21978
0.21645
0.212792
0.209313
0.205881
0.202096
0.200972
0.195856
0.189727
0.182823
0.174983
0.172471
0.154908
0.141677
0.125871
0.11336
0.146861
0.115104
0.126524
0.113329
0.100995
0.0895005
0.0787464
0.0684822
0.0587771
0.0498164
0.041527
0.0283909
0.0201789
0.0123545
0.00472112
-0.00282041
-0.010411
-0.0170702
-0.0238833
-0.0311181
-0.0406711
-0.0406711
0
0
0.457966
0.430371
0.403969
0.379607
0.356814
0.333555
0.313266
0.295168
0.279341
0.266346
0.251949
0.242352
0.234984
0.231478
0.22949
0.22792
0.226808
0.227742
0.22772
0.227044
0.225797
0.223917
0.22132
0.218097
0.214485
0.211103
0.210322
0.207926
0.199217
0.193672
0.187837
0.181275
0.173932
0.165275
0.15545
0.144859
0.13515
0.130348
0.133904
0.130717
0.12215
0.111552
0.100463
0.0895895
0.0791176
0.0690087
0.0593581
0.0500923
0.0406492
0.0297665
0.0204126
0.0120226
0.00418517
-0.00333083
-0.0107297
-0.0182951
-0.0267775
-0.0369145
-0.0493716
-0.0493716
0
0
0.457988
0.430455
0.404414
0.378928
0.354538
0.333993
0.313852
0.295401
0.27885
0.263296
0.254569
0.24475
0.236604
0.308952
0.232315
0.229869
0.22813
0.229642
0.22909
0.228324
0.227217
0.225507
0.222939
0.219556
0.215124
0.207948
0.217617
0.209226
0.201369
0.194418
0.187726
0.181005
0.17418
0.166288
0.157691
0.149159
0.141783
0.136408
0.131601
0.125741
0.118047
0.108907
0.0986559
0.0885915
0.0786523
0.0687626
0.0591325
0.0496487
0.0400455
0.03018
0.0205245
0.0116492
0.00348586
-0.00426571
-0.0121178
-0.0204104
-0.0298793
-0.0410827
-0.0538339
-0.0538339
0
0
0.457991
0.430442
0.404236
0.379033
0.355171
0.333657
0.313557
0.295295
0.279223
0.265604
0.25516
0.246344
0.338425
0.237294
0.233401
0.231594
0.232201
0.229396
0.229417
0.229372
0.228729
0.22732
0.22472
0.221295
0.217104
0.212484
0.214021
0.209144
0.2024
0.195239
0.188011
0.180982
0.174744
0.168301
0.160676
0.153145
0.145912
0.139068
0.131886
0.124308
0.116231
0.107924
0.0960955
0.0870572
0.0776039
0.067952
0.0584742
0.0490489
0.0396057
0.0299383
0.0199457
0.010879
0.00248604
-0.00555458
-0.013744
-0.0223097
-0.0321378
-0.0438522
-0.0565295
-0.0565295
0
0
0.457995
0.430451
0.404242
0.379299
0.355785
0.333889
0.313375
0.29509
0.279328
0.268242
0.257196
0.248969
0.244511
0.234285
0.231987
0.231721
0.232185
0.231639
0.231493
0.231341
0.230811
0.229636
0.226768
0.223464
0.219918
0.216432
0.213457
0.208681
0.202476
0.19537
0.187597
0.179413
0.17241
0.172631
0.164599
0.157692
0.149469
0.14123
0.132871
0.124344
0.115594
0.106378
0.0956493
0.0858608
0.0423441
0.0668833
0.0576907
0.0483946
0.0391304
0.029417
-0.00635478
0.0097306
0.00122369
-0.043237
-0.015347
-0.0237412
-0.0335507
-0.0459472
-0.0584599
-0.0584599
0
0
0.458008
0.430504
0.404389
0.379684
0.356495
0.334706
0.313073
0.294379
0.275477
0.274319
0.259938
0.250812
0.244374
0.237877
0.234539
0.233479
0.233894
0.233948
0.233971
0.233815
0.233363
0.23251
0.228903
0.225859
0.222683
0.219092
0.214786
0.194883
0.202922
0.195535
0.186582
0.174569
0.15265
0.193001
0.169123
0.166096
0.153518
0.143477
0.134068
0.124823
0.115454
0.105523
0.0954418
0.0857631
0.0765131
0.0667328
0.0571178
0.0476736
0.0385554
0.0294082
0.0177592
0.0092875
0.000868495
-0.00733212
-0.0161539
-0.0247576
-0.034183
-0.0476822
-0.0596863
-0.0596863
0
0
0.458027
0.430581
0.404594
0.380159
0.35759
0.337895
0.311616
0.295121
0.279188
0.271266
0.260987
0.252234
0.245432
0.240365
0.23721
0.235163
0.237888
0.236959
0.236755
0.236496
0.235955
0.235414
0.231095
0.228778
0.225741
0.2218
0.217081
0.21126
0.204731
0.197051
0.187357
0.176601
0.166057
0.178995
0.171355
0.165026
0.154956
0.144731
0.134857
0.125243
0.11559
0.105107
0.0951018
0.0854669
0.0759389
0.066216
0.0564276
0.046632
0.0201157
0.0288336
0.0164697
0.00903852
0.000205741
-0.00864625
-0.0175677
-0.0262471
-0.0346389
-0.0485417
-0.0595217
-0.0595217
0
0
0.458043
0.430644
0.404748
0.380454
0.357941
0.33724
0.315558
0.297506
0.282498
0.271165
0.261402
0.253299
0.247017
0.242644
0.240044
0.238795
0.239722
0.239765
0.239698
0.239257
0.237977
0.23496
0.236289
0.233366
0.229439
0.224764
0.219331
0.213952
0.20763
0.20135
0.189015
0.182089
0.176289
0.174326
0.16915
0.162274
0.153689
0.144327
0.134757
0.12524
0.115735
0.104584
0.0947508
0.0851956
0.0755376
0.0657103
0.0557318
0.045594
0.0351756
0.0241441
0.0207957
0.00920496
-0.000587806
-0.00996595
-0.0194126
-0.0293836
-0.0397773
-0.0437354
-0.0570406
-0.0570406
0
0
0.458048
0.430662
0.404808
0.380587
0.358095
0.337342
0.318214
0.299781
0.284842
0.272802
0.262987
0.255157
0.249289
0.245342
0.243214
0.242514
0.242673
0.242936
0.242999
0.242574
0.241525
0.23996
0.220243
0.236168
0.232487
0.227702
0.222274
0.216526
0.210264
0.203479
0.19415
0.187007
0.180876
0.174884
0.168299
0.160807
0.152454
0.143475
0.134124
0.124666
0.115505
0.104016
0.094749
0.0852168
0.0753916
0.0653772
0.0552173
0.0449469
0.034695
0.0250757
0.0176665
0.00810611
-0.00154734
-0.0109806
-0.0203195
-0.0296554
-0.038625
-0.0464342
-0.0580641
-0.0580641
0
0
0.458031
0.430601
0.404742
0.380611
0.358253
0.337824
0.320031
0.301162
0.287025
0.275338
0.265669
0.258038
0.25242
0.248705
0.246819
0.246368
0.246391
0.246688
0.24684
0.246544
0.245976
0.244718
0.242783
0.239667
0.235627
0.230628
0.225181
0.219269
0.212844
0.205829
0.198219
0.190915
0.183825
0.176489
0.16879
0.160621
0.151979
0.142898
0.133388
0.123322
0.112566
0.105783
0.095773
0.0855743
0.0754187
0.0652011
0.0549137
0.0446259
0.0345002
0.0248439
0.0156774
0.00647325
-0.00274621
-0.011821
-0.020743
-0.0295614
-0.0388486
-0.0484001
-0.0598919
-0.0598919
0
0
0.457968
0.430383
0.404516
0.380566
0.358339
0.337655
0.317767
0.304469
0.290797
0.279188
0.269305
0.261831
0.256443
0.252873
0.250833
0.250612
0.250533
0.250926
0.251253
0.251064
0.250958
0.249517
0.247002
0.243396
0.200068
0.233633
0.228263
0.222264
0.215717
0.208701
0.201388
0.193911
0.186238
0.178224
0.169852
0.161143
0.152122
0.142796
0.133164
0.12326
0.113438
0.104768
0.0952902
0.0853979
0.0753053
0.0650171
0.0546392
0.044272
0.0339917
0.0239898
0.0143276
0.00504998
-0.00394404
-0.0126982
-0.0213447
-0.0301186
-0.0395285
-0.0496395
-0.0612664
-0.0612664
0
0
0.457837
0.429825
0.411967
0.38066
0.358758
0.338655
0.320524
0.306054
0.293298
0.282315
0.2733
0.266317
0.261411
0.258797
0.254598
0.254849
0.254819
0.237042
0.256409
0.256409
0.256443
0.254524
0.25164
0.248039
0.243533
0.237926
0.231968
0.225634
0.218883
0.211745
0.204296
0.196559
0.188491
0.179992
0.171127
0.161991
0.152636
0.143084
0.133374
0.123584
0.113887
0.104336
0.0947342
0.0850159
0.0750518
0.0647147
0.0542452
0.0437554
0.0332088
0.0229255
0.0131176
0.00380512
-0.00509829
-0.0136889
-0.0222501
-0.0310537
-0.0403639
-0.0505694
-0.0598919
-0.0621639
0
0
0.457806
0.428219
0.403127
0.380315
0.359336
0.340244
0.323342
0.308945
0.296687
0.286411
0.278068
0.271615
0.266994
0.263939
0.260258
0.0307676
0.259796
0.26201
0.263105
0.264111
0.261582
0.259387
0.256479
0.252822
0.247351
0.241704
0.235674
0.229185
0.222235
0.214882
0.207183
0.199161
0.190757
0.181791
0.172471
0.16297
0.153333
0.143565
0.133718
0.123836
0.113978
0.104077
0.0943188
0.0846641
0.0747578
0.0642537
0.0536836
0.0431231
0.0322814
0.0217937
0.0119608
0.00267165
-0.00620234
-0.0147144
-0.0232837
-0.0321005
-0.0413841
-0.0561015
-0.0632149
-0.0632149
0
0
0.460272
0.424469
0.402508
0.380835
0.360699
0.342495
0.326502
0.312758
0.301203
0.291689
0.284061
0.27815
0.27381
0.270892
0.269317
0.270842
0.270449
0.270516
0.270547
0.270117
0.268131
0.265329
0.261771
0.257705
0.251409
0.245824
0.239671
0.232937
0.225726
0.21808
0.210087
0.201784
0.193082
0.18355
0.173775
0.16397
0.154092
0.144083
0.133993
0.123873
0.113817
0.103637
0.0937785
0.0842091
0.0743494
0.0635006
0.0529171
0.042501
0.0313425
0.0207504
0.0110065
0.00176056
-0.00717094
-0.0156761
-0.0387172
-0.0332012
-0.0423489
-0.0524916
-0.0754527
-0.0643267
0
0
0.458213
0.428865
0.404466
0.382566
0.362925
0.345457
0.33039
0.317474
0.306914
0.298403
0.291641
0.286358
0.282381
0.279762
0.278406
0.27837
0.278346
0.278272
0.277868
0.276751
0.274605
0.271281
0.266778
0.260885
0.256966
0.250796
0.243931
0.236671
0.229232
0.221228
0.212897
0.204329
0.1954
0.185081
0.17491
0.164922
0.154855
0.144566
0.134027
0.123524
0.113233
0.102654
0.0926756
0.0832323
0.0735242
0.0621384
0.0518669
0.0420903
0.030593
0.0201157
0.0106045
0.00135721
-0.00781147
-0.0161853
-0.0250546
-0.0341489
-0.0433955
-0.0533932
-0.0646716
-0.0646716
0
0
0.458158
0.430953
0.406625
0.384904
0.355915
0.349099
0.335276
0.323038
0.314093
0.306851
0.301119
0.296493
0.29271
0.230224
0.28811
0.287282
0.286669
0.286052
0.285107
0.283488
0.280944
0.277031
0.272019
0.266335
0.260818
0.254469
0.247367
0.239512
0.232793
0.224063
0.21532
0.206473
0.197494
0.186023
0.175803
0.165808
0.155598
0.14516
0.133479
0.122441
0.111636
0.100526
0.0903676
0.0809321
0.0716611
0.0597312
0.050455
0.0421384
0.0304387
0.0205451
0.0113129
0.00184815
-0.0079529
-0.0168233
-0.0262925
-0.0354573
-0.0447221
-0.0546895
-0.0659315
-0.0659315
0
0
0.458387
0.432098
0.408444
0.387509
0.369417
0.353982
0.341357
0.331128
0.323353
0.317394
0.312711
0.308706
0.305294
0.302696
0.299929
0.297587
0.295635
0.293879
0.292008
0.289694
0.286653
0.28196
0.276429
0.27049
0.264222
0.257461
0.250114
0.242235
0.234499
0.225855
0.216782
0.207518
0.198535
0.186272
0.17663
0.166611
0.156017
0.14492
0.132883
0.120489