# vtk DataFile Version 2.0
FlowField
ASCII
DATASET STRUCTURED_GRID
DIMENSIONS 102 11 11 
POINTS 12342 double
0 0 0
0 0 0.2
0 0 0.4
0 0 0.6
0 0 0.8
0 0 1
0 0 1.2
0 0 1.4
0 0 1.6
0 0 1.8
0 0 2
0 0.1 0
0 0.1 0.2
0 0.1 0.4
0 0.1 0.6
0 0.1 0.8
0 0.1 1
0 0.1 1.2
0 0.1 1.4
0 0.1 1.6
0 0.1 1.8
0 0.1 2
0 0.2 0
0 0.2 0.2
0 0.2 0.4
0 0.2 0.6
0 0.2 0.8
0 0.2 1
0 0.2 1.2
0 0.2 1.4
0 0.2 1.6
0 0.2 1.8
0 0.2 2
0 0.3 0
0 0.3 0.2
0 0.3 0.4
0 0.3 0.6
0 0.3 0.8
0 0.3 1
0 0.3 1.2
0 0.3 1.4
0 0.3 1.6
0 0.3 1.8
0 0.3 2
0 0.4 0
0 0.4 0.2
0 0.4 0.4
0 0.4 0.6
0 0.4 0.8
0 0.4 1
0 0.4 1.2
0 0.4 1.4
0 0.4 1.6
0 0.4 1.8
0 0.4 2
0 0.5 0
0 0.5 0.2
0 0.5 0.4
0 0.5 0.6
0 0.5 0.8
0 0.5 1
0 0.5 1.2
0 0.5 1.4
0 0.5 1.6
0 0.5 1.8
0 0.5 2
0 0.6 0
0 0.6 0.2
0 0.6 0.4
0 0.6 0.6
0 0.6 0.8
0 0.6 1
0 0.6 1.2
0 0.6 1.4
0 0.6 1.6
0 0.6 1.8
0 0.6 2
0 0.7 0
0 0.7 0.2
0 0.7 0.4
0 0.7 0.6
0 0.7 0.8
0 0.7 1
0 0.7 1.2
0 0.7 1.4
0 0.7 1.6
0 0.7 1.8
0 0.7 2
0 0.8 0
0 0.8 0.2
0 0.8 0.4
0 0.8 0.6
0 0.8 0.8
0 0.8 1
0 0.8 1.2
0 0.8 1.4
0 0.8 1.6
0 0.8 1.8
0 0.8 2
0 0.9 0
0 0.9 0.2
0 0.9 0.4
0 0.9 0.6
0 0.9 0.8
0 0.9 1
0 0.9 1.2
0 0.9 1.4
0 0.9 1.6
0 0.9 1.8
0 0.9 2
0 1 0
0 1 0.2
0 1 0.4
0 1 0.6
0 1 0.8
0 1 1
0 1 1.2
0 1 1.4
0 1 1.6
0 1 1.8
0 1 2
0.2 0 0
0.2 0 0.2
0.2 0 0.4
0.2 0 0.6
0.2 0 0.8
0.2 0 1
0.2 0 1.2
0.2 0 1.4
0.2 0 1.6
0.2 0 1.8
0.2 0 2
0.2 0.1 0
0.2 0.1 0.2
0.2 0.1 0.4
0.2 0.1 0.6
0.2 0.1 0.8
0.2 0.1 1
0.2 0.1 1.2
0.2 0.1 1.4
0.2 0.1 1.6
0.2 0.1 1.8
0.2 0.1 2
0.2 0.2 0
0.2 0.2 0.2
0.2 0.2 0.4
0.2 0.2 0.6
0.2 0.2 0.8
0.2 0.2 1
0.2 0.2 1.2
0.2 0.2 1.4
0.2 0.2 1.6
0.2 0.2 1.8
0.2 0.2 2
0.2 0.3 0
0.2 0.3 0.2
0.2 0.3 0.4
0.2 0.3 0.6
0.2 0.3 0.8
0.2 0.3 1
0.2 0.3 1.2
0.2 0.3 1.4
0.2 0.3 1.6
0.2 0.3 1.8
0.2 0.3 2
0.2 0.4 0
0.2 0.4 0.2
0.2 0.4 0.4
0.2 0.4 0.6
0.2 0.4 0.8
0.2 0.4 1
0.2 0.4 1.2
0.2 0.4 1.4
0.2 0.4 1.6
0.2 0.4 1.8
0.2 0.4 2
0.2 0.5 0
0.2 0.5 0.2
0.2 0.5 0.4
0.2 0.5 0.6
0.2 0.5 0.8
0.2 0.5 1
0.2 0.5 1.2
0.2 0.5 1.4
0.2 0.5 1.6
0.2 0.5 1.8
0.2 0.5 2
0.2 0.6 0
0.2 0.6 0.2
0.2 0.6 0.4
0.2 0.6 0.6
0.2 0.6 0.8
0.2 0.6 1
0.2 0.6 1.2
0.2 0.6 1.4
0.2 0.6 1.6
0.2 0.6 1.8
0.2 0.6 2
0.2 0.7 0
0.2 0.7 0.2
0.2 0.7 0.4
0.2 0.7 0.6
0.2 0.7 0.8
0.2 0.7 1
0.2 0.7 1.2
0.2 0.7 1.4
0.2 0.7 1.6
0.2 0.7 1.8
0.2 0.7 2
0.2 0.8 0
0.2 0.8 0.2
0.2 0.8 0.4
0.2 0.8 0.6
0.2 0.8 0.8
0.2 0.8 1
0.2 0.8 1.2
0.2 0.8 1.4
0.2 0.8 1.6
0.2 0.8 1.8
0.2 0.8 2
0.2 0.9 0
0.2 0.9 0.2
0.2 0.9 0.4
0.2 0.9 0.6
0.2 0.9 0.8
0.2 0.9 1
0.2 0.9 1.2
0.2 0.9 1.4
0.2 0.9 1.6
0.2 0.9 1.8
0.2 0.9 2
0.2 1 0
0.2 1 0.2
0.2 1 0.4
0.2 1 0.6
0.2 1 0.8
0.2 1 1
0.2 1 1.2
0.2 1 1.4
0.2 1 1.6
0.2 1 1.8
0.2 1 2
0.4 0 0
0.4 0 0.2
0.4 0 0.4
0.4 0 0.6
0.4 0 0.8
0.4 0 1
0.4 0 1.2
0.4 0 1.4
0.4 0 1.6
0.4 0 1.8
0.4 0 2
0.4 0.1 0
0.4 0.1 0.2
0.4 0.1 0.4
0.4 0.1 0.6
0.4 0.1 0.8
0.4 0.1 1
0.4 0.1 1.2
0.4 0.1 1.4
0.4 0.1 1.6
0.4 0.1 1.8
0.4 0.1 2
0.4 0.2 0
0.4 0.2 0.2
0.4 0.2 0.4
0.4 0.2 0.6
0.4 0.2 0.8
0.4 0.2 1
0.4 0.2 1.2
0.4 0.2 1.4
0.4 0.2 1.6
0.4 0.2 1.8
0.4 0.2 2
0.4 0.3 0
0.4 0.3 0.2
0.4 0.3 0.4
0.4 0.3 0.6
0.4 0.3 0.8
0.4 0.3 1
0.4 0.3 1.2
0.4 0.3 1.4
0.4 0.3 1.6
0.4 0.3 1.8
0.4 0.3 2
0.4 0.4 0
0.4 0.4 0.2
0.4 0.4 0.4
0.4 0.4 0.6
0.4 0.4 0.8
0.4 0.4 1
0.4 0.4 1.2
0.4 0.4 1.4
0.4 0.4 1.6
0.4 0.4 1.8
0.4 0.4 2
0.4 0.5 0
0.4 0.5 0.2
0.4 0.5 0.4
0.4 0.5 0.6
0.4 0.5 0.8
0.4 0.5 1
0.4 0.5 1.2
0.4 0.5 1.4
0.4 0.5 1.6
0.4 0.5 1.8
0.4 0.5 2
0.4 0.6 0
0.4 0.6 0.2
0.4 0.6 0.4
0.4 0.6 0.6
0.4 0.6 0.8
0.4 0.6 1
0.4 0.6 1.2
0.4 0.6 1.4
0.4 0.6 1.6
0.4 0.6 1.8
0.4 0.6 2
0.4 0.7 0
0.4 0.7 0.2
0.4 0.7 0.4
0.4 0.7 0.6
0.4 0.7 0.8
0.4 0.7 1
0.4 0.7 1.2
0.4 0.7 1.4
0.4 0.7 1.6
0.4 0.7 1.8
0.4 0.7 2
0.4 0.8 0
0.4 0.8 0.2
0.4 0.8 0.4
0.4 0.8 0.6
0.4 0.8 0.8
0.4 0.8 1
0.4 0.8 1.2
0.4 0.8 1.4
0.4 0.8 1.6
0.4 0.8 1.8
0.4 0.8 2
0.4 0.9 0
0.4 0.9 0.2
0.4 0.9 0.4
0.4 0.9 0.6
0.4 0.9 0.8
0.4 0.9 1
0.4 0.9 1.2
0.4 0.9 1.4
0.4 0.9 1.6
0.4 0.9 1.8
0.4 0.9 2
0.4 1 0
0.4 1 0.2
0.4 1 0.4
0.4 1 0.6
0.4 1 0.8
0.4 1 1
0.4 1 1.2
0.4 1 1.4
0.4 1 1.6
0.4 1 1.8
0.4 1 2
0.6 0 0
0.6 0 0.2
0.6 0 0.4
0.6 0 0.6
0.6 0 0.8
0.6 0 1
0.6 0 1.2
0.6 0 1.4
0.6 0 1.6
0.6 0 1.8
0.6 0 2
0.6 0.1 0
0.6 0.1 0.2
0.6 0.1 0.4
0.6 0.1 0.6
0.6 0.1 0.8
0.6 0.1 1
0.6 0.1 1.2
0.6 0.1 1.4
0.6 0.1 1.6
0.6 0.1 1.8
0.6 0.1 2
0.6 0.2 0
0.6 0.2 0.2
0.6 0.2 0.4
0.6 0.2 0.6
0.6 0.2 0.8
0.6 0.2 1
0.6 0.2 1.2
0.6 0.2 1.4
0.6 0.2 1.6
0.6 0.2 1.8
0.6 0.2 2
0.6 0.3 0
0.6 0.3 0.2
0.6 0.3 0.4
0.6 0.3 0.6
0.6 0.3 0.8
0.6 0.3 1
0.6 0.3 1.2
0.6 0.3 1.4
0.6 0.3 1.6
0.6 0.3 1.8
0.6 0.3 2
0.6 0.4 0
0.6 0.4 0.2
0.6 0.4 0.4
0.6 0.4 0.6
0.6 0.4 0.8
0.6 0.4 1
0.6 0.4 1.2
0.6 0.4 1.4
0.6 0.4 1.6
0.6 0.4 1.8
0.6 0.4 2
0.6 0.5 0
0.6 0.5 0.2
0.6 0.5 0.4
0.6 0.5 0.6
0.6 0.5 0.8
0.6 0.5 1
0.6 0.5 1.2
0.6 0.5 1.4
0.6 0.5 1.6
0.6 0.5 1.8
0.6 0.5 2
0.6 0.6 0
0.6 0.6 0.2
0.6 0.6 0.4
0.6 0.6 0.6
0.6 0.6 0.8
0.6 0.6 1
0.6 0.6 1.2
0.6 0.6 1.4
0.6 0.6 1.6
0.6 0.6 1.8
0.6 0.6 2
0.6 0.7 0
0.6 0.7 0.2
0.6 0.7 0.4
0.6 0.7 0.6
0.6 0.7 0.8
0.6 0.7 1
0.6 0.7 1.2
0.6 0.7 1.4
0.6 0.7 1.6
0.6 0.7 1.8
0.6 0.7 2
0.6 0.8 0
0.6 0.8 0.2
0.6 0.8 0.4
0.6 0.8 0.6
0.6 0.8 0.8
0.6 0.8 1
0.6 0.8 1.2
0.6 0.8 1.4
0.6 0.8 1.6
0.6 0.8 1.8
0.6 0.8 2
0.6 0.9 0
0.6 0.9 0.2
0.6 0.9 0.4
0.6 0.9 0.6
0.6 0.9 0.8
0.6 0.9 1
0.6 0.9 1.2
0.6 0.9 1.4
0.6 0.9 1.6
0.6 0.9 1.8
0.6 0.9 2
0.6 1 0
0.6 1 0.2
0.6 1 0.4
0.6 1 0.6
0.6 1 0.8
0.6 1 1
0.6 1 1.2
0.6 1 1.4
0.6 1 1.6
0.6 1 1.8
0.6 1 2
0.8 0 0
0.8 0 0.2
0.8 0 0.4
0.8 0 0.6
0.8 0 0.8
0.8 0 1
0.8 0 1.2
0.8 0 1.4
0.8 0 1.6
0.8 0 1.8
0.8 0 2
0.8 0.1 0
0.8 0.1 0.2
0.8 0.1 0.4
0.8 0.1 0.6
0.8 0.1 0.8
0.8 0.1 1
0.8 0.1 1.2
0.8 0.1 1.4
0.8 0.1 1.6
0.8 0.1 1.8
0.8 0.1 2
0.8 0.2 0
0.8 0.2 0.2
0.8 0.2 0.4
0.8 0.2 0.6
0.8 0.2 0.8
0.8 0.2 1
0.8 0.2 1.2
0.8 0.2 1.4
0.8 0.2 1.6
0.8 0.2 1.8
0.8 0.2 2
0.8 0.3 0
0.8 0.3 0.2
0.8 0.3 0.4
0.8 0.3 0.6
0.8 0.3 0.8
0.8 0.3 1
0.8 0.3 1.2
0.8 0.3 1.4
0.8 0.3 1.6
0.8 0.3 1.8
0.8 0.3 2
0.8 0.4 0
0.8 0.4 0.2
0.8 0.4 0.4
0.8 0.4 0.6
0.8 0.4 0.8
0.8 0.4 1
0.8 0.4 1.2
0.8 0.4 1.4
0.8 0.4 1.6
0.8 0.4 1.8
0.8 0.4 2
0.8 0.5 0
0.8 0.5 0.2
0.8 0.5 0.4
0.8 0.5 0.6
0.8 0.5 0.8
0.8 0.5 1
0.8 0.5 1.2
0.8 0.5 1.4
0.8 0.5 1.6
0.8 0.5 1.8
0.8 0.5 2
0.8 0.6 0
0.8 0.6 0.2
0.8 0.6 0.4
0.8 0.6 0.6
0.8 0.6 0.8
0.8 0.6 1
0.8 0.6 1.2
0.8 0.6 1.4
0.8 0.6 1.6
0.8 0.6 1.8
0.8 0.6 2
0.8 0.7 0
0.8 0.7 0.2
0.8 0.7 0.4
0.8 0.7 0.6
0.8 0.7 0.8
0.8 0.7 1
0.8 0.7 1.2
0.8 0.7 1.4
0.8 0.7 1.6
0.8 0.7 1.8
0.8 0.7 2
0.8 0.8 0
0.8 0.8 0.2
0.8 0.8 0.4
0.8 0.8 0.6
0.8 0.8 0.8
0.8 0.8 1
0.8 0.8 1.2
0.8 0.8 1.4
0.8 0.8 1.6
0.8 0.8 1.8
0.8 0.8 2
0.8 0.9 0
0.8 0.9 0.2
0.8 0.9 0.4
0.8 0.9 0.6
0.8 0.9 0.8
0.8 0.9 1
0.8 0.9 1.2
0.8 0.9 1.4
0.8 0.9 1.6
0.8 0.9 1.8
0.8 0.9 2
0.8 1 0
0.8 1 0.2
0.8 1 0.4
0.8 1 0.6
0.8 1 0.8
0.8 1 1
0.8 1 1.2
0.8 1 1.4
0.8 1 1.6
0.8 1 1.8
0.8 1 2
1 0 0
1 0 0.2
1 0 0.4
1 0 0.6
1 0 0.8
1 0 1
1 0 1.2
1 0 1.4
1 0 1.6
1 0 1.8
1 0 2
1 0.1 0
1 0.1 0.2
1 0.1 0.4
1 0.1 0.6
1 0.1 0.8
1 0.1 1
1 0.1 1.2
1 0.1 1.4
1 0.1 1.6
1 0.1 1.8
1 0.1 2
1 0.2 0
1 0.2 0.2
1 0.2 0.4
1 0.2 0.6
1 0.2 0.8
1 0.2 1
1 0.2 1.2
1 0.2 1.4
1 0.2 1.6
1 0.2 1.8
1 0.2 2
1 0.3 0
1 0.3 0.2
1 0.3 0.4
1 0.3 0.6
1 0.3 0.8
1 0.3 1
1 0.3 1.2
1 0.3 1.4
1 0.3 1.6
1 0.3 1.8
1 0.3 2
1 0.4 0
1 0.4 0.2
1 0.4 0.4
1 0.4 0.6
1 0.4 0.8
1 0.4 1
1 0.4 1.2
1 0.4 1.4
1 0.4 1.6
1 0.4 1.8
1 0.4 2
1 0.5 0
1 0.5 0.2
1 0.5 0.4
1 0.5 0.6
1 0.5 0.8
1 0.5 1
1 0.5 1.2
1 0.5 1.4
1 0.5 1.6
1 0.5 1.8
1 0.5 2
1 0.6 0
1 0.6 0.2
1 0.6 0.4
1 0.6 0.6
1 0.6 0.8
1 0.6 1
1 0.6 1.2
1 0.6 1.4
1 0.6 1.6
1 0.6 1.8
1 0.6 2
1 0.7 0
1 0.7 0.2
1 0.7 0.4
1 0.7 0.6
1 0.7 0.8
1 0.7 1
1 0.7 1.2
1 0.7 1.4
1 0.7 1.6
1 0.7 1.8
1 0.7 2
1 0.8 0
1 0.8 0.2
1 0.8 0.4
1 0.8 0.6
1 0.8 0.8
1 0.8 1
1 0.8 1.2
1 0.8 1.4
1 0.8 1.6
1 0.8 1.8
1 0.8 2
1 0.9 0
1 0.9 0.2
1 0.9 0.4
1 0.9 0.6
1 0.9 0.8
1 0.9 1
1 0.9 1.2
1 0.9 1.4
1 0.9 1.6
1 0.9 1.8
1 0.9 2
1 1 0
1 1 0.2
1 1 0.4
1 1 0.6
1 1 0.8
1 1 1
1 1 1.2
1 1 1.4
1 1 1.6
1 1 1.8
1 1 2
1.2 0 0
1.2 0 0.2
1.2 0 0.4
1.2 0 0.6
1.2 0 0.8
1.2 0 1
1.2 0 1.2
1.2 0 1.4
1.2 0 1.6
1.2 0 1.8
1.2 0 2
1.2 0.1 0
1.2 0.1 0.2
1.2 0.1 0.4
1.2 0.1 0.6
1.2 0.1 0.8
1.2 0.1 1
1.2 0.1 1.2
1.2 0.1 1.4
1.2 0.1 1.6
1.2 0.1 1.8
1.2 0.1 2
1.2 0.2 0
1.2 0.2 0.2
1.2 0.2 0.4
1.2 0.2 0.6
1.2 0.2 0.8
1.2 0.2 1
1.2 0.2 1.2
1.2 0.2 1.4
1.2 0.2 1.6
1.2 0.2 1.8
1.2 0.2 2
1.2 0.3 0
1.2 0.3 0.2
1.2 0.3 0.4
1.2 0.3 0.6
1.2 0.3 0.8
1.2 0.3 1
1.2 0.3 1.2
1.2 0.3 1.4
1.2 0.3 1.6
1.2 0.3 1.8
1.2 0.3 2
1.2 0.4 0
1.2 0.4 0.2
1.2 0.4 0.4
1.2 0.4 0.6
1.2 0.4 0.8
1.2 0.4 1
1.2 0.4 1.2
1.2 0.4 1.4
1.2 0.4 1.6
1.2 0.4 1.8
1.2 0.4 2
1.2 0.5 0
1.2 0.5 0.2
1.2 0.5 0.4
1.2 0.5 0.6
1.2 0.5 0.8
1.2 0.5 1
1.2 0.5 1.2
1.2 0.5 1.4
1.2 0.5 1.6
1.2 0.5 1.8
1.2 0.5 2
1.2 0.6 0
1.2 0.6 0.2
1.2 0.6 0.4
1.2 0.6 0.6
1.2 0.6 0.8
1.2 0.6 1
1.2 0.6 1.2
1.2 0.6 1.4
1.2 0.6 1.6
1.2 0.6 1.8
1.2 0.6 2
1.2 0.7 0
1.2 0.7 0.2
1.2 0.7 0.4
1.2 0.7 0.6
1.2 0.7 0.8
1.2 0.7 1
1.2 0.7 1.2
1.2 0.7 1.4
1.2 0.7 1.6
1.2 0.7 1.8
1.2 0.7 2
1.2 0.8 0
1.2 0.8 0.2
1.2 0.8 0.4
1.2 0.8 0.6
1.2 0.8 0.8
1.2 0.8 1
1.2 0.8 1.2
1.2 0.8 1.4
1.2 0.8 1.6
1.2 0.8 1.8
1.2 0.8 2
1.2 0.9 0
1.2 0.9 0.2
1.2 0.9 0.4
1.2 0.9 0.6
1.2 0.9 0.8
1.2 0.9 1
1.2 0.9 1.2
1.2 0.9 1.4
1.2 0.9 1.6
1.2 0.9 1.8
1.2 0.9 2
1.2 1 0
1.2 1 0.2
1.2 1 0.4
1.2 1 0.6
1.2 1 0.8
1.2 1 1
1.2 1 1.2
1.2 1 1.4
1.2 1 1.6
1.2 1 1.8
1.2 1 2
1.4 0 0
1.4 0 0.2
1.4 0 0.4
1.4 0 0.6
1.4 0 0.8
1.4 0 1
1.4 0 1.2
1.4 0 1.4
1.4 0 1.6
1.4 0 1.8
1.4 0 2
1.4 0.1 0
1.4 0.1 0.2
1.4 0.1 0.4
1.4 0.1 0.6
1.4 0.1 0.8
1.4 0.1 1
1.4 0.1 1.2
1.4 0.1 1.4
1.4 0.1 1.6
1.4 0.1 1.8
1.4 0.1 2
1.4 0.2 0
1.4 0.2 0.2
1.4 0.2 0.4
1.4 0.2 0.6
1.4 0.2 0.8
1.4 0.2 1
1.4 0.2 1.2
1.4 0.2 1.4
1.4 0.2 1.6
1.4 0.2 1.8
1.4 0.2 2
1.4 0.3 0
1.4 0.3 0.2
1.4 0.3 0.4
1.4 0.3 0.6
1.4 0.3 0.8
1.4 0.3 1
1.4 0.3 1.2
1.4 0.3 1.4
1.4 0.3 1.6
1.4 0.3 1.8
1.4 0.3 2
1.4 0.4 0
1.4 0.4 0.2
1.4 0.4 0.4
1.4 0.4 0.6
1.4 0.4 0.8
1.4 0.4 1
1.4 0.4 1.2
1.4 0.4 1.4
1.4 0.4 1.6
1.4 0.4 1.8
1.4 0.4 2
1.4 0.5 0
1.4 0.5 0.2
1.4 0.5 0.4
1.4 0.5 0.6
1.4 0.5 0.8
1.4 0.5 1
1.4 0.5 1.2
1.4 0.5 1.4
1.4 0.5 1.6
1.4 0.5 1.8
1.4 0.5 2
1.4 0.6 0
1.4 0.6 0.2
1.4 0.6 0.4
1.4 0.6 0.6
1.4 0.6 0.8
1.4 0.6 1
1.4 0.6 1.2
1.4 0.6 1.4
1.4 0.6 1.6
1.4 0.6 1.8
1.4 0.6 2
1.4 0.7 0
1.4 0.7 0.2
1.4 0.7 0.4
1.4 0.7 0.6
1.4 0.7 0.8
1.4 0.7 1
1.4 0.7 1.2
1.4 0.7 1.4
1.4 0.7 1.6
1.4 0.7 1.8
[...]
POINT_DATA 12342

SCALARS p double
LOOKUP_TABLE default
2.69435
2.69435
2.66324
2.64716
2.63932
2.63729
2.64045
2.64941
2.66663
2.69886
2.69886
2.69435
2.69435
2.66324
2.64716
2.63932
2.63729
2.64045
2.64941
2.66663
2.69886
2.69886
2.6529
2.6529
2.62179
2.6057
2.59786
2.59584
2.59899
2.60796
2.62517
2.65741
2.69886
2.62761
2.62761
2.5965
2.58041
2.57258
2.57055
2.5737
2.58267
2.59988
2.63212
2.69886
2.61406
2.61406
2.58295
2.56686
2.55902
2.55699
2.56015
2.56912
2.58633
2.61856
2.69886
2.61012
2.61012
2.57901
2.56293
2.55509
2.55306
2.55622
2.56518
2.5824
2.61463
2.69886
2.61518
2.61518
2.58408
2.56799
2.56015
2.55812
2.56128
2.57024
2.58745
2.61969
2.69886
2.62986
2.62986
2.59876
2.58267
2.57483
2.5728
2.57596
2.58492
2.60213
2.63437
2.69886
2.65628
2.65628
2.62517
2.60909
2.60125
2.59922
2.60237
2.61134
2.62855
2.66078
2.69886
2.69886
2.69886
2.66775
2.65167
2.64383
2.6418
2.64495
2.65392
2.67113
2.70336
2.69886
2.69886
2.69886
2.66775
2.65167
2.64383
2.6418
2.64495
2.65392
2.67113
2.70336
2.69886
2.69435
2.69435
2.66324
2.64716
2.63932
2.63729
2.64045
2.64941
2.66663
2.69886
2.69886
2.69435
2.69435
2.66324
2.64716
2.63932
2.63729
2.64045
2.64941
2.66663
2.69886
2.69886
2.6529
2.6529
2.62179
2.6057
2.59786
2.59584
2.59899
2.60796
2.62517
2.65741
2.69886
2.62761
2.62761
2.5965
2.58041
2.57258
2.57055
2.5737
2.58267
2.59988
2.63212
2.69886
2.61406
2.61406
2.58295
2.56686
2.55902
2.55699
2.56015
2.56912
2.58633
2.61856
2.69886
2.61012
2.61012
2.57901
2.56293
2.55509
2.55306
2.55622
2.56518
2.5824
2.61463
2.69886
2.61518
2.61518
2.58408
2.56799
2.56015
2.55812
2.56128
2.57024
2.58745
2.61969
2.69886
2.62986
2.62986
2.59876
2.58267
2.57483
2.5728
2.57596
2.58492
2.60213
2.63437
2.69886
2.65628
2.65628
2.62517
2.60909
2.60125
2.59922
2.60237
2.61134
2.62855
2.66078
2.69886
2.69886
2.69886
2.66775
2.65167
2.64383
2.6418
2.64495
2.65392
2.67113
2.70336
2.69886
2.69886
2.69886
2.66775
2.65167
2.64383
2.6418
2.64495
2.65392
2.67113
2.70336
2.69886
2.56192
2.56192
2.55088
2.54158
2.53617
2.53477
2.5373
2.54383
2.55426
2.56643
2.56643
2.56192
2.56192
2.55088
2.54158
2.53617
2.53477
2.5373
2.54383
2.55426
2.56643
2.56643
2.55481
2.55481
2.54377
2.53446
2.52906
2.52765
2.53018
2.53672
2.54715
2.55932
2.56643
2.54722
2.54722
2.53618
2.52688
2.52147
2.52007
2.5226
2.52913
2.53956
2.55173
2.56643
2.54214
2.54214
2.5311
2.52179
2.51639
2.51498
2.51751
2.52405
2.53448
2.54664
2.56643
2.54072
2.54072
2.52968
2.52037
2.51497
2.51356
2.51609
2.52262
2.53306
2.54522
2.56643
2.54327
2.54327
2.53223
2.52292
2.51751
2.51611
2.51864
2.52517
2.5356
2.54777
2.56643
2.54948
2.54948
2.53844
2.52913
2.52372
2.52232
2.52485
2.53138
2.54181
2.55397
2.56643
2.55819
2.55819
2.54715
2.53784
2.53243
2.53103
2.53356
2.54009
2.55052
2.56268
2.56643
2.56643
2.56643
2.55539
2.54608
2.54068
2.53927
2.5418
2.54833
2.55876
2.57092
2.56643
2.56643
2.56643
2.55539
2.54608
2.54068
2.53927
2.5418
2.54833
2.55876
2.57092
2.56643
2.47252
2.47252
2.4683
2.46361
2.46054
2.45983
2.46166
2.46586
2.47168
2.47702
2.47702
2.47252
2.47252
2.4683
2.46361
2.46054
2.45983
2.46166
2.46586
2.47168
2.47702
2.47702
2.47129
2.47129
2.46708
2.46239
2.45931
2.4586
2.46044
2.46464
2.47045
2.47579
2.47702
2.46953
2.46953
2.46531
2.46062
2.45755
2.45684
2.45867
2.46287
2.46868
2.47402
2.47702
2.46827
2.46827
2.46405
2.45936
2.45628
2.45557
2.45741
2.46161
2.46742
2.47276
2.47702
2.46815
2.46815
2.46393
2.45924
2.45617
2.45546
2.45729
2.46149
2.4673
2.47264
2.47702
2.46939
2.46939
2.46517
2.46048
2.45741
2.4567
2.45853
2.46273
2.46854
2.47388
2.47702
2.47178
2.47178
2.46756
2.46287
2.45979
2.45908
2.46091
2.46511
2.47092
2.47626
2.47702
2.47467
2.47467
2.47045
2.46576
2.46268
2.46197
2.4638
2.468
2.47381
2.47915
2.47702
2.47702
2.47702
2.4728
2.46811
2.46503
2.46432
2.46615
2.47035
2.47616
2.4815
2.47702
2.47702
2.47702
2.4728
2.46811
2.46503
2.46432
2.46615
2.47035
2.47616
2.4815
2.47702
2.39575
2.39575
2.39415
2.39199
2.39049
2.3903
2.39161
2.39423
2.39751
2.40024
2.40024
2.39575
2.39575
2.39415
2.39199
2.39049
2.3903
2.39161
2.39423
2.39751
2.40024
2.40024
2.3958
2.3958
2.3942
2.39204
2.39054
2.39035
2.39166
2.39428
2.39756
2.40028
2.40024
2.39568
2.39568
2.39408
2.39191
2.39042
2.39023
2.39154
2.39415
2.39744
2.40016
2.40024
2.39568
2.39568
2.39408
2.39192
2.39042
2.39023
2.39154
2.39415
2.39744
2.40016
2.40024
2.39603
2.39603
2.39442
2.39226
2.39076
2.39057
2.39188
2.3945
2.39778
2.4005
2.40024
2.3968
2.3968
2.3952
2.39304
2.39154
2.39135
2.39265
2.39527
2.39855
2.40127
2.40024
2.39792
2.39792
2.39632
2.39415
2.39266
2.39246
2.39377
2.39639
2.39967
2.40239
2.40024
2.39917
2.39917
2.39756
2.3954
2.3939
2.39371
2.39502
2.39763
2.40091
2.40363
2.40024
2.40024
2.40024
2.39863
2.39647
2.39497
2.39478
2.39608
2.3987
2.40198
2.4047
2.40024
2.40024
2.40024
2.39863
2.39647
2.39497
2.39478
2.39608
2.3987
2.40198
2.4047
2.40024
2.32388
2.32388
2.32339
2.32253
2.32197
2.3221
2.32308
2.32477
2.32674
2.32835
2.32835
2.32388
2.32388
2.32339
2.32253
2.32197
2.3221
2.32308
2.32477
2.32674
2.32835
2.32835
2.32425
2.32425
2.32375
2.3229
2.32233
2.32247
2.32345
2.32513
2.3271
2.32871
2.32835
2.32458
2.32458
2.32408
2.32323
2.32266
2.3228
2.32378
2.32546
2.32743
2.32904
2.32835
2.32496
2.32496
2.32446
2.3236
2.32304
2.32317
2.32415
2.32583
2.3278
2.32941
2.32835
2.32545
2.32545
2.32495
2.32409
2.32352
2.32366
2.32464
2.32632
2.32829
2.3299
2.32835
2.32607
2.32607
2.32557
2.32472
2.32415
2.32429
2.32526
2.32695
2.32891
2.33053
2.32835
2.32681
2.32681
2.32631
2.32546
2.32489
2.32503
2.326
2.32768
2.32965
2.33126
2.32835
2.3276
2.3276
2.3271
2.32624
2.32568
2.32581
2.32679
2.32847
2.33044
2.33205
2.32835
2.32835
2.32835
2.32785
2.32699
2.32642
2.32656
2.32754
2.32922
2.33118
2.3328
2.32835
2.32835
2.32835
2.32785
2.32699
2.32642
2.32656
2.32754
2.32922
2.33118
2.3328
2.32835
2.25453
2.25453
2.25453
2.25434
2.25429
2.25462
2.2554
2.25657
2.25786
2.25897
2.25897
2.25453
2.25453
2.25453
2.25434
2.25429
2.25462
2.2554
2.25657
2.25786
2.25897
2.25897
2.25498
2.25498
2.25498
2.25479
2.25474
2.25506
2.25585
2.25701
2.25831
2.25942
2.25897
2.25543
2.25543
2.25543
2.25525
2.25519
2.25552
2.2563
2.25746
2.25876
2.25987
2.25897
2.25591
2.25591
2.25592
2.25573
2.25567
2.256
2.25678
2.25794
2.25924
2.26035
2.25897
2.25644
2.25644
2.25644
2.25625
2.2562
2.25652
2.25731
2.25847
2.25977
2.26087
2.25897
2.25702
2.25702
2.25702
2.25683
2.25678
2.2571
2.25789
2.25905
2.26035
2.26145
2.25897
2.25765
2.25765
2.25765
2.25746
2.25741
2.25773
2.25852
2.25968
2.26097
2.26208
2.25897
2.25831
2.25831
2.25831
2.25812
2.25807
2.25839
2.25917
2.26033
2.26163
2.26273
2.25897
2.25897
2.25897
2.25897
2.25878
2.25873
2.25905
2.25983
2.26099
2.26229
2.26339
2.25897
2.25897
2.25897
2.25897
2.25878
2.25873
2.25905
2.25983
2.26099
2.26229
2.26339
2.25897
2.18684
2.18684
2.18708
2.18723
2.18745
2.18787
2.18855
2.18944
2.19039
2.19126
2.19126
2.18684
2.18684
2.18708
2.18723
2.18745
2.18787
2.18855
2.18944
2.19039
2.19126
2.19126
2.18731
2.18731
2.18755
2.1877
2.18792
2.18834
2.18902
2.1899
2.19086
2.19172
2.19126
2.1878
2.1878
2.18804
2.18818
2.1884
2.18883
2.1895
2.19039
2.19134
2.1922
2.19126
2.1883
2.1883
2.18854
2.18869
2.18891
2.18933
2.19001
2.19089
2.19185
2.19271
2.19126
2.18884
2.18884
2.18908
2.18922
2.18944
2.18987
2.19054
2.19143
2.19238
2.19324
2.19126
2.18941
2.18941
2.18965
2.18979
2.19001
2.19043
2.19111
2.19199
2.19295
2.19381
2.19126
2.19
2.19
2.19024
2.19039
2.1906
2.19103
2.1917
2.19259
2.19354
2.1944
2.19126
2.19062
2.19062
2.19086
2.191
2.19122
2.19164
2.19232
2.1932
2.19416
2.19502
2.19126
2.19126
2.19126
2.19149
2.19164
2.19186
2.19228
2.19295
2.19384
2.19479
2.19565
2.19126
2.19126
2.19126
2.19149
2.19164
2.19186
2.19228
2.19295
2.19384
2.19479
2.19565
2.19126
2.12048
2.12048
2.12083
2.12115
2.12151
2.12199
2.12261
2.12334
2.12412
2.12486
2.12486
2.12048
2.12048
2.12083
2.12115
2.12151
2.12199
2.12261
2.12334
2.12412
2.12486
2.12486
2.12095
2.12095
2.1213
2.12162
2.12198
2.12246
2.12308
2.12381
2.12459
2.12533
2.12486
2.12144
2.12144
2.1218
2.12211
2.12247
2.12295
2.12357
2.1243
2.12508
2.12582
2.12486
2.12195
2.12195
2.12231
2.12262
2.12298
2.12346
2.12408
2.12481
2.12559
2.12633
2.12486
2.12249
2.12249
2.12284
2.12316
2.12352
2.12399
2.12461
2.12534
2.12612
2.12686
2.12486
2.12305
2.12305
2.1234
2.12372
2.12408
2.12455
2.12517
2.1259
2.12668
2.12742
2.12486
2.12363
2.12363
2.12398
2.1243
2.12466
2.12513
2.12575
2.12648
2.12726
2.128
2.12486
2.12424
2.12424
2.12459
2.1249
2.12526
2.12574
2.12635
2.12708
2.12786
2.1286
2.12486
2.12486
2.12486
2.12521
2.12553
2.12588
2.12636
2.12698
2.12771
2.12848
2.12922
2.12486
2.12486
2.12486
2.12521
2.12553
2.12588
2.12636
2.12698
2.12771
2.12848
2.12922
2.12486
2.05529
2.05529
2.0557
2.0561
2.05653
2.05703
2.05762
2.05827
2.05896
2.05963
2.05963
2.05529
2.05529
2.0557
2.0561
2.05653
2.05703
2.05762
2.05827
2.05896
2.05963
2.05963
2.05576
2.05576
2.05617
2.05657
2.057
2.0575
2.05808
2.05874
2.05942
2.0601
2.05963
2.05625
2.05625
2.05666
2.05706
2.05749
2.05799
2.05857
2.05923
2.05991
2.06059
2.05963
2.05676
2.05676
2.05717
2.05757
2.058
2.0585
2.05908
2.05973
2.06042
2.0611
2.05963
2.05729
2.05729
2.0577
2.0581
2.05853
2.05903
2.05961
2.06026
2.06095
2.06163
2.05963
2.05784
2.05784
2.05825
2.05865
2.05908
2.05958
2.06016
2.06082
2.0615
2.06218
2.05963
2.05842
2.05842
2.05883
2.05923
2.05966
2.06016
2.06074
2.06139
2.06208
2.06275
2.05963
2.05902
2.05902
2.05942
2.05982
2.06025
2.06075
2.06133
2.06199
2.06267
2.06334
2.05963
2.05963
2.05963
2.06004
2.06044
2.06087
2.06137
2.06195
2.0626
2.06328
2.06396
2.05963
2.05963
2.05963
2.06004
2.06044
2.06087
2.06137
2.06195
2.0626
2.06328
2.06396
2.05963
1.9912
1.9912
1.99163
1.99207
1.99254
1.99305
1.99361
1.99422
1.99486
1.9955
1.9955
1.9912
1.9912
1.99163
1.99207
1.99254
1.99305
1.99361
1.99422
1.99486
1.9955
1.9955
1.99166
1.99166
1.9921
1.99254
1.993
1.99351
1.99408
1.99469
1.99532
1.99596
1.9955
1.99215
1.99215
1.99258
1.99302
1.99349
1.994
1.99456
1.99517
1.99581
1.99645
1.9955
1.99265
1.99265
1.99309
1.99353
1.99399
1.9945
1.99507
1.99567
1.99631
1.99695
1.9955
1.99318
1.99318
1.99361
1.99405
1.99452
1.99503
1.99559
1.9962
1.99684
1.99748
1.9955
1.99373
1.99373
1.99416
1.9946
1.99507
1.99558
1.99614
1.99675
1.99738
1.99802
1.9955
1.9943
1.9943
1.99473
1.99517
1.99563
1.99614
1.99671
1.99731
1.99795
1.99859
1.9955
1.99489
1.99489
1.99532
1.99576
1.99622
1.99673
1.9973
1.9979
1.99854
1.99918
1.9955
1.9955
1.9955
1.99593
1.99637
1.99683
1.99734
1.9979
1.99851
1.99915
1.99978
1.9955
1.9955
1.9955
1.99593
1.99637
1.99683
1.99734
1.9979
1.99851
1.99915
1.99978
1.9955
1.92816
1.92816
1.9286
1.92906
1.92954
1.93006
1.93061
1.93119
1.9318
1.93242
1.93242
1.92816
1.92816
1.9286
1.92906
1.92954
1.93006
1.93061
1.93119
1.9318
1.93242
1.93242
1.92862
1.92862
1.92906
1.92952
1.93
1.93051
1.93107
1.93165
1.93226
1.93288
1.93242
1.9291
1.9291
1.92954
1.93
1.93048
1.93099
1.93154
1.93213
1.93273
1.93335
1.93242
1.9296
1.9296
1.93005
1.9305
1.93098
1.93149
1.93204
1.93263
1.93323
1.93385
1.93242
1.93012
1.93012
1.93057
1.93102
1.9315
1.93202
1.93257
1.93315
1.93375
1.93437
1.93242
1.93067
1.93067
1.93111
1.93157
1.93204
1.93256
1.93311
1.93369
1.9343
1.93491
1.93242
1.93123
1.93123
1.93167
1.93213
1.93261
1.93312
1.93367
1.93425
1.93486
1.93547
1.93242
1.93181
1.93181
1.93226
1.93271
1.93319
1.9337
1.93425
1.93483
1.93544
1.93606
1.93242
1.93242
1.93242
1.93286
1.93331
1.93379
1.9343
1.93485
1.93543
1.93604
1.93666
1.93242
1.93242
1.93242
1.93286
1.93331
1.93379
1.9343
1.93485
1.93543
1.93604
1.93666
1.93242
1.86615
1.86615
1.8666
1.86706
1.86754
1.86806
1.8686
1.86916
1.86975
1.87036
1.87036
1.86615
1.86615
1.8666
1.86706
1.86754
1.86806
1.8686
1.86916
1.86975
1.87036
1.87036
1.8666
1.8666
1.86705
1.86751
1.868
1.86851
1.86905
1.86962
1.87021
1.87081
1.87036
1.86708
1.86708
1.86753
1.86799
1.86847
1.86898
1.86952
1.87009
1.87068
1.87128
1.87036
1.86758
1.86758
1.86802
1.86848
1.86897
1.86948
1.87002
1.87058
1.87117
1.87178
1.87036
1.86809
1.86809
1.86854
1.869
1.86948
1.86999
1.87053
1.8711
1.87169
1.87229
1.87036
1.86863
1.86863
1.86907
1.86953
1.87002
1.87053
1.87107
1.87163
1.87222
1.87283
1.87036
1.86918
1.86918
1.86963
1.87009
1.87057
1.87108
1.87162
1.87219
1.87278
1.87338
1.87036
1.86976
1.86976
1.87021
1.87067
1.87115
1.87166
1.8722
1.87276
1.87335
1.87395
1.87036
1.87036
1.87036
1.8708
1.87126
1.87175
1.87226
1.87279
1.87336
1.87395
1.87455
1.87036
1.87036
1.87036
1.8708
1.87126
1.87175
1.87226
1.87279
1.87336
1.87395
1.87455
1.87036
1.80515
1.80515
1.80559
1.80605
1.80654
1.80705
1.80758
1.80813
1.80871
1.8093
1.8093
1.80515
1.80515
1.80559
1.80605
1.80654
1.80705
1.80758
1.80813
1.80871
1.8093
1.8093
1.8056
1.8056
1.80604
1.8065
1.80699
1.80749
1.80802
1.80858
1.80916
1.80975
1.8093
1.80606
1.80606
1.80651
1.80697
1.80745
1.80796
1.80849
1.80905
1.80962
1.81022
1.8093
1.80655
1.80655
1.807
1.80746
1.80794
1.80845
1.80898
1.80954
1.81011
1.8107
1.8093
1.80706
1.80706
1.80751
1.80797
1.80845
1.80896
1.80949
1.81004
1.81062
1.81121
1.8093
1.80759
1.80759
1.80804
1.8085
1.80898
1.80949
1.81002
1.81057
1.81115
1.81174
1.8093
1.80814
1.80814
1.80859
1.80905
1.80953
1.81004
1.81057
1.81112
1.81169
1.81228
1.8093
1.80871
1.80871
1.80916
1.80962
1.8101
1.8106
1.81113
1.81169
1.81226
1.81285
1.8093
1.8093
1.8093
1.80974
1.81021
1.81069
1.81119
1.81172
1.81227
1.81285
1.81344
1.8093
1.8093
1.8093
1.80974
1.81021
1.81069
1.81119
1.81172
1.81227
1.81285
1.81344
1.8093
1.74513
1.74513
1.74557
1.74603
1.74651
1.74701
1.74754
1.74808
1.74865
1.74923
1.74923
1.74513
1.74513
1.74557
1.74603
1.74651
1.74701
1.74754
1.74808
1.74865
1.74923
1.74923
1.74557
1.74557
1.74602
1.74647
1.74695
1.74746
1.74798
1.74852
1.74909
1.74967
1.74923
1.74604
1.74604
1.74648
1.74694
1.74742
1.74792
1.74844
1.74898
1.74955
1.75013
1.74923
1.74652
1.74652
1.74696
1.74742
1.7479
1.7484
1.74892
1.74947
1.75003
1.75061
1.74923
1.74702
1.74702
1.74746
1.74792
1.7484
1.7489
1.74942
1.74997
1.75053
1.75111
1.74923
1.74754
1.74754
1.74798
1.74844
1.74892
1.74942
1.74994
1.75049
1.75105
1.75163
1.74923
1.74809
1.74809
1.74853
1.74898
1.74946
1.74996
1.75048
1.75103
1.75159
1.75217
1.74923
1.74865
1.74865
1.74909
1.74955
1.75002
1.75052
1.75104
1.75159
1.75215
1.75273
1.74923
1.74923
1.74923
1.74967
1.75013
1.7506
1.7511
1.75162
1.75217
1.75273
1.75331
1.74923
1.74923
1.74923
1.74967
1.75013
1.7506
1.7511
1.75162
1.75217
1.75273
1.75331
1.74923
1.68609
1.68609
1.68653
1.68698
1.68745
1.68795
1.68846
1.689
1.68955
1.69013
1.69013
1.68609
1.68609
1.68653
1.68698
1.68745
1.68795
1.68846
1.689
1.68955
1.69013
1.69013
1.68653
1.68653
1.68696
1.68742
1.68789
1.68838
1.6889
1.68943
1.68999
1.69056
1.69013
1.68698
1.68698
1.68742
1.68787
1.68834
1.68884
1.68935
1.68989
1.69044
1.69101
1.69013
1.68746
1.68746
1.68789
1.68835
1.68882
1.68931
1.68983
1.69036
1.69092
1.69149
1.69013
1.68795
1.68795
1.68839
1.68884
1.68931
1.68981
1.69032
1.69085
1.69141
1.69198
1.69013
1.68847
1.68847
1.6889
1.68935
1.68983
1.69032
1.69083
1.69137
1.69192
1.69249
1.69013
1.689
1.689
1.68943
1.68989
1.69036
1.69085
1.69137
1.6919
1.69245
1.69302
1.69013
1.68955
1.68955
1.68999
1.69044
1.69091
1.6914
1.69192
1.69245
1.693
1.69358
1.69013
1.69013
1.69013
1.69056
1.69101
1.69148
1.69198
1.69249
1.69302
1.69357
1.69415
1.69013
1.69013
1.69013
1.69056
1.69101
1.69148
1.69198
1.69249
1.69302
1.69357
1.69415
1.69013
1.628
1.628
1.62843
1.62888
1.62935
1.62983
1.63034
1.63087
1.63141
1.63197
1.63197
1.628
1.628
1.62843
1.62888
1.62935
1.62983
1.63034
1.63087
1.63141
1.63197
1.63197
1.62843
1.62843
1.62886
1.62931
1.62978
1.63026
1.63077
1.63129
1.63184
1.6324
1.63197
1.62888
1.62888
1.62931
1.62976
1.63022
1.63071
1.63122
1.63174
1.63229
1.63285
1.63197
1.62935
1.62935
1.62978
1.63022
1.63069
1.63118
1.63168
1.63221
1.63275
1.63331
1.63197
1.62984
1.62984
1.63026
1.63071
1.63118
1.63166
1.63217
1.63269
1.63324
1.6338
1.63197
1.63034
1.63034
1.63077
1.63122
1.63168
1.63217
1.63267
1.6332
1.63374
1.6343
1.63197
1.63087
1.63087
1.63129
1.63174
1.63221
1.63269
1.6332
1.63372
1.63426
1.63483
1.63197
1.63141
1.63141
1.63184
1.63228
1.63275
1.63323
1.63374
1.63426
1.63481
1.63537
1.63197
1.63197
1.63197
1.6324
1.63285
1.63331
1.6338
1.6343
1.63483
1.63537
1.63593
1.63197
1.63197
1.63197
1.6324
1.63285
1.63331
1.6338
1.6343
1.63483
1.63537
1.63593
1.63197
1.57086
1.57086
1.57128
1.57172
1.57218
1.57265
1.57315
1.57367
1.5742
1.57476
1.57476
1.57086
1.57086
1.57128
1.57172
1.57218
1.57265
1.57315
1.57367
1.5742
1.57476
1.57476
1.57128
1.57128
1.5717
1.57214
1.5726
1.57308
1.57357
1.57409
1.57462
1.57518
1.57476
1.57172
1.57172
1.57214
1.57258
1.57304
1.57352
1.57401
1.57453
1.57506
1.57562
1.57476
1.57218
1.57218
1.5726
1.57304
1.5735
1.57397
1.57447
1.57499
1.57552
1.57607
1.57476
1.57266
1.57266
1.57308
1.57352
1.57397
1.57445
1.57495
1.57546
1.576
1.57655
1.57476
1.57315
1.57315
1.57357
1.57401
1.57447
1.57495
1.57544
1.57596
1.57649
1.57705
1.57476
1.57367
1.57367
1.57409
1.57453
1.57499
1.57546
1.57596
1.57647
1.57701
1.57756
1.57476
1.5742
1.5742
1.57462
1.57506
1.57552
1.576
1.57649
1.57701
1.57754
1.57809
1.57476
1.57476
1.57476
1.57518
1.57562
1.57607
1.57655
1.57704
1.57756
1.57809
1.57864
1.57476
1.57476
1.57476
1.57518
1.57562
1.57607
1.57655
1.57704
1.57756
1.57809
1.57864
1.57476
1.51463
1.51463
1.51504
1.51547
1.51593
1.51639
1.51688
1.51739
1.51791
1.51846
1.51846
1.51463
1.51463
1.51504
1.51547
1.51593
1.51639
1.51688
1.51739
1.51791
1.51846
1.51846
1.51504
1.51504
1.51546
1.51589
1.51634
1.51681
1.5173
1.5178
1.51833
1.51887
1.51846
1.51547
1.51547
1.51589
1.51632
1.51677
1.51724
1.51773
1.51823
1.51876
1.5193
1.51846
1.51593
1.51593
1.51634
1.51677
1.51722
1.51769
1.51818
1.51868
1.51921
1.51975
1.51846
1.5164
1.5164
1.51681
1.51724
1.51769
1.51816
1.51865
1.51915
1.51967
1.52022
1.51846
1.51688
1.51688
1.5173
1.51773
1.51818
1.51864
1.51913
1.51964
1.52016
1.5207
1.51846
1.51739
1.51739
1.5178
1.51823
1.51868
1.51915
1.51964
1.52014
1.52067
1.52121
1.51846
1.51791
1.51791
1.51833
1.51876
1.51921
1.51967
1.52016
1.52067
1.52119
1.52173
1.51846
1.51846
1.51846
1.51887
1.5193
1.51975
1.52022
1.5207
1.52121
1.52173
1.52227
1.51846
1.51846
1.51846
1.51887
1.5193
1.51975
1.52022
1.5207
1.52121
1.52173
1.52227
1.51846
1.4593
1.4593
1.45971
1.46013
1.46057
1.46103
1.46151
1.46201
1.46252
1.46306
1.46306
1.4593
1.4593
1.45971
1.46013
1.46057
1.46103
1.46151
1.46201
1.46252
1.46306
1.46306
1.45971
1.45971
1.46011
1.46054
1.46098
1.46144
1.46192
1.46241
1.46293
1.46346
1.46306
1.46013
1.46013
1.46054
1.46096
1.4614
1.46186
1.46234
1.46284
1.46335
1.46388
1.46306
1.46057
1.46057
1.46098
1.4614
1.46184
1.4623
1.46278
1.46328
1.46379
1.46432
1.46306
1.46103
1.46103
1.46144
1.46186
1.4623
1.46276
1.46324
1.46374
1.46425
1.46478
1.46306
1.46151
1.46151
1.46192
1.46234
1.46278
1.46324
1.46372
1.46421
1.46473
1.46526
1.46306
1.46201
1.46201
1.46241
1.46284
1.46328
1.46374
1.46421
1.46471
1.46522
1.46575
1.46306
1.46252
1.46252
1.46293
1.46335
1.46379
1.46425
1.46473
1.46522
1.46573
1.46626
1.46306
1.46306
1.46306
1.46346
1.46388
1.46432
1.46478
1.46526
1.46575
1.46626
1.46679
1.46306
1.46306
1.46306
1.46346
1.46388
1.46432
1.46478
1.46526
1.46575
1.46626
1.46679
1.46306
1.40486
1.40486
1.40526
1.40567
1.4061
1.40655
1.40702
1.40751
1.40801
1.40853
1.40853
1.40486
1.40486
1.40526
1.40567
1.4061
1.40655
1.40702
1.40751
1.40801
1.40853
1.40853
1.40526
1.40526
1.40565
1.40607
1.4065
1.40695
1.40742
1.4079
1.40841
1.40893
1.40853
1.40567
1.40567
1.40607
1.40648
1.40692
1.40736
1.40783
1.40832
1.40882
1.40934
1.40853
1.4061
1.4061
1.4065
1.40692
1.40735
1.4078
1.40826
1.40875
1.40925
1.40977
1.40853
1.40655
1.40655
1.40695
1.40737
1.4078
1.40825
1.40871
1.4092
1.4097
1.41022
1.40853
1.40702
1.40702
1.40742
1.40783
1.40826
1.40871
1.40918
1.40966
1.41017
1.41069
1.40853
1.40751
1.40751
1.4079
1.40832
1.40875
1.4092
1.40966
1.41015
1.41065
1.41117
1.40853
1.40801
1.40801
1.40841
1.40882
1.40925
1.4097
1.41017
1.41065
1.41115
1.41167
1.40853
1.40853
1.40853
1.40893
1.40934
1.40977
1.41022
1.41069
1.41117
1.41167
1.41219
1.40853
1.40853