# vtk DataFile Version 2.0
FlowField
ASCII
DATASET STRUCTURED_GRID
DIMENSIONS 62 47 32 
POINTS 93248 double
0 0 0
0.01 0 0
0.02 0 0
0.03 0 0
0.04 0 0
0.05 0 0
0.06 0 0
0.07 0 0
0.08 0 0
0.09 0 0
0.1 0 0
0.11 0 0
0.12 0 0
0.13 0 0
0.14 0 0
0.15 0 0
0.16 0 0
0.17 0 0
0.18 0 0
0.19 0 0
0.2 0 0
0.21 0 0
0.22 0 0
0.23 0 0
0.24 0 0
0.25 0 0
0.26 0 0
0.27 0 0
0.28 0 0
0.29 0 0
0.3 0 0
0.31 0 0
0.32 0 0
0.33 0 0
0.34 0 0
0.35 0 0
0.36 0 0
0.37 0 0
0.38 0 0
0.39 0 0
0.4 0 0
0.41 0 0
0.42 0 0
0.43 0 0
0.44 0 0
0.45 0 0
0.46 0 0
0.47 0 0
0.48 0 0
0.49 0 0
0.5 0 0
0.51 0 0
0.52 0 0
0.53 0 0
0.54 0 0
0.55 0 0
0.56 0 0
0.57 0 0
0.58 0 0
0.59 0 0
0.6 0 0
0.61 0 0
0 0.01 0
0.01 0.01 0
0.02 0.01 0
0.03 0.01 0
0.04 0.01 0
0.05 0.01 0
0.06 0.01 0
0.07 0.01 0
0.08 0.01 0
0.09 0.01 0
0.1 0.01 0
0.11 0.01 0
0.12 0.01 0
0.13 0.01 0
0.14 0.01 0
0.15 0.01 0
0.16 0.01 0
0.17 0.01 0
0.18 0.01 0
0.19 0.01 0
0.2 0.01 0
0.21 0.01 0
0.22 0.01 0
0.23 0.01 0
0.24 0.01 0
0.25 0.01 0
0.26 0.01 0
0.27 0.01 0
0.28 0.01 0
0.29 0.01 0
0.3 0.01 0
0.31 0.01 0
0.32 0.01 0
0.33 0.01 0
0.34 0.01 0
0.35 0.01 0
0.36 0.01 0
0.37 0.01 0
0.38 0.01 0
0.39 0.01 0
0.4 0.01 0
0.41 0.01 0
0.42 0.01 0
0.43 0.01 0
0.44 0.01 0
0.45 0.01 0
0.46 0.01 0
0.47 0.01 0
0.48 0.01 0
0.49 0.01 0
0.5 0.01 0
0.51 0.01 0
0.52 0.01 0
0.53 0.01 0
0.54 0.01 0
0.55 0.01 0
0.56 0.01 0
0.57 0.01 0
0.58 0.01 0
0.59 0.01 0
0.6 0.01 0
0.61 0.01 0
0 0.02 0
0.01 0.02 0
0.02 0.02 0
0.03 0.02 0
0.04 0.02 0
0.05 0.02 0
0.06 0.02 0
0.07 0.02 0
0.08 0.02 0
0.09 0.02 0
0.1 0.02 0
0.11 0.02 0
0.12 0.02 0
0.13 0.02 0
0.14 0.02 0
0.15 0.02 0
0.16 0.02 0
0.17 0.02 0
0.18 0.02 0
0.19 0.02 0
0.2 0.02 0
0.21 0.02 0
0.22 0.02 0
0.23 0.02 0
0.24 0.02 0
0.25 0.02 0
0.26 0.02 0
0.27 0.02 0
0.28 0.02 0
0.29 0.02 0
0.3 0.02 0
0.31 0.02 0
0.32 0.02 0
0.33 0.02 0
0.34 0.02 0
0.35 0.02 0
0.36 0.02 0
0.37 0.02 0
0.38 0.02 0
0.39 0.02 0
0.4 0.02 0
0.41 0.02 0
0.42 0.02 0
0.43 0.02 0
0.44 0.02 0
0.45 0.02 0
0.46 0.02 0
0.47 0.02 0
0.48 0.02 0
0.49 0.02 0
0.5 0.02 0
0.51 0.02 0
0.52 0.02 0
0.53 0.02 0
0.54 0.02 0
0.55 0.02 0
0.56 0.02 0
0.57 0.02 0
0.58 0.02 0
0.59 0.02 0
0.6 0.02 0
0.61 0.02 0
0 0.03 0
0.01 0.03 0
0.02 0.03 0
0.03 0.03 0
0.04 0.03 0
0.05 0.03 0
0.06 0.03 0
0.07 0.03 0
0.08 0.03 0
0.09 0.03 0
0.1 0.03 0
0.11 0.03 0
0.12 0.03 0
0.13 0.03 0
0.14 0.03 0
0.15 0.03 0
0.16 0.03 0
0.17 0.03 0
0.18 0.03 0
0.19 0.03 0
0.2 0.03 0
0.21 0.03 0
0.22 0.03 0
0.23 0.03 0
0.24 0.03 0
0.25 0.03 0
0.26 0.03 0
0.27 0.03 0
0.28 0.03 0
0.29 0.03 0
0.3 0.03 0
0.31 0.03 0
0.32 0.03 0
0.33 0.03 0
0.34 0.03 0
0.35 0.03 0
0.36 0.03 0
0.37 0.03 0
0.38 0.03 0
0.39 0.03 0
0.4 0.03 0
0.41 0.03 0
0.42 0.03 0
0.43 0.03 0
0.44 0.03 0
0.45 0.03 0
0.46 0.03 0
0.47 0.03 0
0.48 0.03 0
0.49 0.03 0
0.5 0.03 0
0.51 0.03 0
0.52 0.03 0
0.53 0.03 0
0.54 0.03 0
0.55 0.03 0
0.56 0.03 0
0.57 0.03 0
0.58 0.03 0
0.59 0.03 0
0.6 0.03 0
0.61 0.03 0
0 0.04 0
0.01 0.04 0
0.02 0.04 0
0.03 0.04 0
0.04 0.04 0
0.05 0.04 0
0.06 0.04 0
0.07 0.04 0
0.08 0.04 0
0.09 0.04 0
0.1 0.04 0
0.11 0.04 0
0.12 0.04 0
0.13 0.04 0
0.14 0.04 0
0.15 0.04 0
0.16 0.04 0
0.17 0.04 0
0.18 0.04 0
0.19 0.04 0
0.2 0.04 0
0.21 0.04 0
0.22 0.04 0
0.23 0.04 0
0.24 0.04 0
0.25 0.04 0
0.26 0.04 0
0.27 0.04 0
0.28 0.04 0
0.29 0.04 0
0.3 0.04 0
0.31 0.04 0
0.32 0.04 0
0.33 0.04 0
0.34 0.04 0
0.35 0.04 0
0.36 0.04 0
0.37 0.04 0
0.38 0.04 0
0.39 0.04 0
0.4 0.04 0
0.41 0.04 0
0.42 0.04 0
0.43 0.04 0
0.44 0.04 0
0.45 0.04 0
0.46 0.04 0
0.47 0.04 0
0.48 0.04 0
0.49 0.04 0
0.5 0.04 0
0.51 0.04 0
0.52 0.04 0
0.53 0.04 0
0.54 0.04 0
0.55 0.04 0
0.56 0.04 0
0.57 0.04 0
0.58 0.04 0
0.59 0.04 0
0.6 0.04 0
0.61 0.04 0
0 0.05 0
0.01 0.05 0
0.02 0.05 0
0.03 0.05 0
0.04 0.05 0
0.05 0.05 0
0.06 0.05 0
0.07 0.05 0
0.08 0.05 0
0.09 0.05 0
0.1 0.05 0
0.11 0.05 0
0.12 0.05 0
0.13 0.05 0
0.14 0.05 0
0.15 0.05 0
0.16 0.05 0
0.17 0.05 0
0.18 0.05 0
0.19 0.05 0
0.2 0.05 0
0.21 0.05 0
0.22 0.05 0
0.23 0.05 0
0.24 0.05 0
0.25 0.05 0
0.26 0.05 0
0.27 0.05 0
0.28 0.05 0
0.29 0.05 0
0.3 0.05 0
0.31 0.05 0
0.32 0.05 0
0.33 0.05 0
0.34 0.05 0
0.35 0.05 0
0.36 0.05 0
0.37 0.05 0
0.38 0.05 0
0.39 0.05 0
0.4 0.05 0
0.41 0.05 0
0.42 0.05 0
0.43 0.05 0
0.44 0.05 0
0.45 0.05 0
0.46 0.05 0
0.47 0.05 0
0.48 0.05 0
0.49 0.05 0
0.5 0.05 0
0.51 0.05 0
0.52 0.05 0
0.53 0.05 0
0.54 0.05 0
0.55 0.05 0
0.56 0.05 0
0.57 0.05 0
0.58 0.05 0
0.59 0.05 0
0.6 0.05 0
0.61 0.05 0
0 0.06 0
0.01 0.06 0
0.02 0.06 0
0.03 0.06 0
0.04 0.06 0
0.05 0.06 0
0.06 0.06 0
0.07 0.06 0
0.08 0.06 0
0.09 0.06 0
0.1 0.06 0
0.11 0.06 0
0.12 0.06 0
0.13 0.06 0
0.14 0.06 0
0.15 0.06 0
0.16 0.06 0
0.17 0.06 0
0.18 0.06 0
0.19 0.06 0
0.2 0.06 0
0.21 0.06 0
0.22 0.06 0
0.23 0.06 0
0.24 0.06 0
0.25 0.06 0
0.26 0.06 0
0.27 0.06 0
0.28 0.06 0
0.29 0.06 0
0.3 0.06 0
0.31 0.06 0
0.32 0.06 0
0.33 0.06 0
0.34 0.06 0
0.35 0.06 0
0.36 0.06 0
0.37 0.06 0
0.38 0.06 0
0.39 0.06 0
0.4 0.06 0
0.41 0.06 0
0.42 0.06 0
0.43 0.06 0
0.44 0.06 0
0.45 0.06 0
0.46 0.06 0
0.47 0.06 0
0.48 0.06 0
0.49 0.06 0
0.5 0.06 0
0.51 0.06 0
0.52 0.06 0
0.53 0.06 0
0.54 0.06 0
0.55 0.06 0
0.56 0.06 0
0.57 0.06 0
0.58 0.06 0
0.59 0.06 0
0.6 0.06 0
0.61 0.06 0
0 0.07 0
0.01 0.07 0
0.02 0.07 0
0.03 0.07 0
0.04 0.07 0
0.05 0.07 0
0.06 0.07 0
0.07 0.07 0
0.08 0.07 0
0.09 0.07 0
0.1 0.07 0
0.11 0.07 0
0.12 0.07 0
0.13 0.07 0
0.14 0.07 0
0.15 0.07 0
0.16 0.07 0
0.17 0.07 0
0.18 0.07 0
0.19 0.07 0
0.2 0.07 0
0.21 0.07 0
0.22 0.07 0
0.23 0.07 0
0.24 0.07 0
0.25 0.07 0
0.26 0.07 0
0.27 0.07 0
0.28 0.07 0
0.29 0.07 0
0.3 0.07 0
0.31 0.07 0
0.32 0.07 0
0.33 0.07 0
0.34 0.07 0
0.35 0.07 0
0.36 0.07 0
0.37 0.07 0
0.38 0.07 0
0.39 0.07 0
0.4 0.07 0
0.41 0.07 0
0.42 0.07 0
0.43 0.07 0
0.44 0.07 0
0.45 0.07 0
0.46 0.07 0
0.47 0.07 0
0.48 0.07 0
0.49 0.07 0
0.5 0.07 0
0.51 0.07 0
0.52 0.07 0
0.53 0.07 0
0.54 0.07 0
0.55 0.07 0
0.56 0.07 0
0.57 0.07 0
0.58 0.07 0
0.59 0.07 0
0.6 0.07 0
0.61 0.07 0
0 0.08 0
0.01 0.08 0
0.02 0.08 0
0.03 0.08 0
0.04 0.08 0
0.05 0.08 0
0.06 0.08 0
0.07 0.08 0
0.08 0.08 0
0.09 0.08 0
0.1 0.08 0
0.11 0.08 0
0.12 0.08 0
0.13 0.08 0
0.14 0.08 0
0.15 0.08 0
0.16 0.08 0
0.17 0.08 0
0.18 0.08 0
0.19 0.08 0
0.2 0.08 0
0.21 0.08 0
0.22 0.08 0
0.23 0.08 0
0.24 0.08 0
0.25 0.08 0
0.26 0.08 0
0.27 0.08 0
0.28 0.08 0
0.29 0.08 0
0.3 0.08 0
0.31 0.08 0
0.32 0.08 0
0.33 0.08 0
0.34 0.08 0
0.35 0.08 0
0.36 0.08 0
0.37 0.08 0
0.38 0.08 0
0.39 0.08 0
0.4 0.08 0
0.41 0.08 0
0.42 0.08 0
0.43 0.08 0
0.44 0.08 0
0.45 0.08 0
0.46 0.08 0
0.47 0.08 0
0.48 0.08 0
0.49 0.08 0
0.5 0.08 0
0.51 0.08 0
0.52 0.08 0
0.53 0.08 0
0.54 0.08 0
0.55 0.08 0
0.56 0.08 0
0.57 0.08 0
0.58 0.08 0
0.59 0.08 0
0.6 0.08 0
0.61 0.08 0
0 0.09 0
0.01 0.09 0
0.02 0.09 0
0.03 0.09 0
0.04 0.09 0
0.05 0.09 0
0.06 0.09 0
0.07 0.09 0
0.08 0.09 0
0.09 0.09 0
0.1 0.09 0
0.11 0.09 0
0.12 0.09 0
0.13 0.09 0
0.14 0.09 0
0.15 0.09 0
0.16 0.09 0
0.17 0.09 0
0.18 0.09 0
0.19 0.09 0
0.2 0.09 0
0.21 0.09 0
0.22 0.09 0
0.23 0.09 0
0.24 0.09 0
0.25 0.09 0
0.26 0.09 0
0.27 0.09 0
0.28 0.09 0
0.29 0.09 0
0.3 0.09 0
0.31 0.09 0
0.32 0.09 0
0.33 0.09 0
0.34 0.09 0
0.35 0.09 0
0.36 0.09 0
0.37 0.09 0
0.38 0.09 0
0.39 0.09 0
0.4 0.09 0
0.41 0.09 0
0.42 0.09 0
0.43 0.09 0
0.44 0.09 0
0.45 0.09 0
0.46 0.09 0
0.47 0.09 0
0.48 0.09 0
0.49 0.09 0
0.5 0.09 0
0.51 0.09 0
0.52 0.09 0
0.53 0.09 0
0.54 0.09 0
0.55 0.09 0
0.56 0.09 0
0.57 0.09 0
0.58 0.09 0
0.59 0.09 0
0.6 0.09 0
0.61 0.09 0
0 0.1 0
0.01 0.1 0
0.02 0.1 0
0.03 0.1 0
0.04 0.1 0
0.05 0.1 0
0.06 0.1 0
0.07 0.1 0
0.08 0.1 0
0.09 0.1 0
0.1 0.1 0
0.11 0.1 0
0.12 0.1 0
0.13 0.1 0
0.14 0.1 0
0.15 0.1 0
0.16 0.1 0
0.17 0.1 0
0.18 0.1 0
0.19 0.1 0
0.2 0.1 0
0.21 0.1 0
0.22 0.1 0
0.23 0.1 0
0.24 0.1 0
0.25 0.1 0
0.26 0.1 0
0.27 0.1 0
0.28 0.1 0
0.29 0.1 0
0.3 0.1 0
0.31 0.1 0
0.32 0.1 0
0.33 0.1 0
0.34 0.1 0
0.35 0.1 0
0.36 0.1 0
0.37 0.1 0
0.38 0.1 0
0.39 0.1 0
0.4 0.1 0
0.41 0.1 0
0.42 0.1 0
0.43 0.1 0
0.44 0.1 0
0.45 0.1 0
0.46 0.1 0
0.47 0.1 0
0.48 0.1 0
0.49 0.1 0
0.5 0.1 0
0.51 0.1 0
0.52 0.1 0
0.53 0.1 0
0.54 0.1 0
0.55 0.1 0
0.56 0.1 0
0.57 0.1 0
0.58 0.1 0
0.59 0.1 0
0.6 0.1 0
0.61 0.1 0
0 0.11 0
0.01 0.11 0
0.02 0.11 0
0.03 0.11 0
0.04 0.11 0
0.05 0.11 0
0.06 0.11 0
0.07 0.11 0
0.08 0.11 0
0.09 0.11 0
0.1 0.11 0
0.11 0.11 0
0.12 0.11 0
0.13 0.11 0
0.14 0.11 0
0.15 0.11 0
0.16 0.11 0
0.17 0.11 0
0.18 0.11 0
0.19 0.11 0
0.2 0.11 0
0.21 0.11 0
0.22 0.11 0
0.23 0.11 0
0.24 0.11 0
0.25 0.11 0
0.26 0.11 0
0.27 0.11 0
0.28 0.11 0
0.29 0.11 0
0.3 0.11 0
0.31 0.11 0
0.32 0.11 0
0.33 0.11 0
0.34 0.11 0
0.35 0.11 0
0.36 0.11 0
0.37 0.11 0
0.38 0.11 0
0.39 0.11 0
0.4 0.11 0
0.41 0.11 0
0.42 0.11 0
0.43 0.11 0
0.44 0.11 0
0.45 0.11 0
0.46 0.11 0
0.47 0.11 0
0.48 0.11 0
0.49 0.11 0
0.5 0.11 0
0.51 0.11 0
0.52 0.11 0
0.53 0.11 0
0.54 0.11 0
0.55 0.11 0
0.56 0.11 0
0.57 0.11 0
0.58 0.11 0
0.59 0.11 0
0.6 0.11 0
0.61 0.11 0
0 0.12 0
0.01 0.12 0
0.02 0.12 0
0.03 0.12 0
0.04 0.12 0
0.05 0.12 0
0.06 0.12 0
0.07 0.12 0
0.08 0.12 0
0.09 0.12 0
0.1 0.12 0
0.11 0.12 0
0.12 0.12 0
0.13 0.12 0
0.14 0.12 0
0.15 0.12 0
0.16 0.12 0
0.17 0.12 0
0.18 0.12 0
0.19 0.12 0
0.2 0.12 0
0.21 0.12 0
0.22 0.12 0
0.23 0.12 0
0.24 0.12 0
0.25 0.12 0
0.26 0.12 0
0.27 0.12 0
0.28 0.12 0
0.29 0.12 0
0.3 0.12 0
0.31 0.12 0
0.32 0.12 0
0.33 0.12 0
0.34 0.12 0
0.35 0.12 0
0.36 0.12 0
0.37 0.12 0
0.38 0.12 0
0.39 0.12 0
0.4 0.12 0
0.41 0.12 0
0.42 0.12 0
0.43 0.12 0
0.44 0.12 0
0.45 0.12 0
0.46 0.12 0
0.47 0.12 0
0.48 0.12 0
0.49 0.12 0
0.5 0.12 0
0.51 0.12 0
0.52 0.12 0
0.53 0.12 0
0.54 0.12 0
0.55 0.12 0
0.56 0.12 0
0.57 0.12 0
0.58 0.12 0
0.59 0.12 0
0.6 0.12 0
0.61 0.12 0
0 0.13 0
0.01 0.13 0
0.02 0.13 0
0.03 0.13 0
0.04 0.13 0
0.05 0.13 0
0.06 0.13 0
0.07 0.13 0
0.08 0.13 0
0.09 0.13 0
0.1 0.13 0
0.11 0.13 0
0.12 0.13 0
0.13 0.13 0
0.14 0.13 0
0.15 0.13 0
0.16 0.13 0
0.17 0.13 0
0.18 0.13 0
0.19 0.13 0
0.2 0.13 0
0.21 0.13 0
0.22 0.13 0
0.23 0.13 0
0.24 0.13 0
0.25 0.13 0
0.26 0.13 0
0.27 0.13 0
0.28 0.13 0
0.29 0.13 0
0.3 0.13 0
0.31 0.13 0
0.32 0.13 0
0.33 0.13 0
0.34 0.13 0
0.35 0.13 0
0.36 0.13 0
0.37 0.13 0
0.38 0.13 0
0.39 0.13 0
0.4 0.13 0
0.41 0.13 0
0.42 0.13 0
0.43 0.13 0
0.44 0.13 0
0.45 0.13 0
0.46 0.13 0
0.47 0.13 0
0.48 0.13 0
[...]
POINT_DATA 93248

SCALARS v double
LOOKUP_TABLE default
0
0
0
0
0
0
0
0
0
0
0
0
0
0
0
0
0
0
0
0
0
0
0
0
0
0
0
0
0
0
0
0
0
0
0
0
0
0
-0.0254066
0
0
0
0
0
-0.0266938
0
0
0
0
0
0
0
0
0
0
0
0
0
0
0
0
0
0
0.0470566
-0.0478098
0.0506575
0.0304522
0.00838689
0
-0.0111419
-0.013527
-0.0146003
-0.0152142
-0.0154574
-0.0159329
-0.0160081
-0.0161085
-0.016144
-0.0162614
-0.0162242
-0.0162342
-0.0159514
-0.0171669
-0.0167743
-0.0167002
-0.0165765
-0.016589
-0.0166131
-0.0166317
-0.0166445
-0.016652
-0.0166536
-0.0166485
-0.0166456
-0.0167427
-0.0166017
-0.0164431
-0.0165037
-0.0188204
-0.0176391
-0.0208518
-0.011604
-0.0158955
-0.018458
-0.0173034
-0.0171621
-0.0171368
-0.0178259
-0.0296208
-0.0169688
-0.0184655
-0.0166303
-0.0165786
-0.0166637
-0.0170298
-0.0171248
-0.0197752
-0.0167942
-0.0228437
-0.0166538
-0.0159672
-0.0146618
-0.0119175
0
0
0.0279202
0.055386
0.0598219
0.0427876
0.0193694
0.00370083
-0.00499551
-0.00954587
-0.0121524
-0.0138833
-0.0145238
-0.0279465
-0.0161938
-0.0165108
-0.0126575
-0.0170524
-0.0168698
-0.0172874
-0.0179132
-0.0311148
-0.0176037
-0.01751
-0.0177358
-0.0178464
-0.0179216
-0.0179734
-0.0180098
-0.0180335
-0.0180437
-0.018033
-0.0180043
-0.0238505
-0.0180492
-0.0175657
-0.0175893
-0.0167635
-0.01457
-0.0100143
-0.0224061
-0.022929
-0.0212649
-0.0198524
-0.0191704
-0.0187748
-0.0185009
-0.0191337
-0.0186323
-0.0184655
-0.0180458
-0.0180071
-0.0178395
-0.0182615
-0.0183738
-0.0184593
-0.0180452
-0.017838
-0.0252375
-0.0169604
-0.0157071
-0.0135159
0
0
0.0145813
0.0390088
0.048791
0.0402324
0.0240809
0.0097913
0.000831225
-0.00466713
-0.00818055
-0.0103937
-0.0124116
-0.0138436
-0.0145958
-0.0152137
-0.0157604
-0.0163091
0
-0.0164609
-0.0170112
-0.0171771
-0.0171632
-0.0172193
-0.017346
-0.017466
-0.017564
-0.0176413
-0.0177004
-0.0177432
-0.0177705
-0.0177829
-0.0177916
-0.0178794
-0.0176759
-0.0177075
-0.0169718
-0.0163263
-0.0151166
-0.0139916
-0.0195874
-0.0211245
-0.0205213
-0.0196859
-0.019094
-0.0189253
-0.0190173
-0.0179108
-0.0179148
-0.0178733
-0.018129
-0.0179908
-0.017908
-0.0179826
-0.0179848
-0.0179098
-0.0176932
-0.0174927
-0.0173577
-0.0167125
-0.0157989
-0.0142128
0
0
0.0082334
0.0262373
0.0369453
0.0336883
0.0225307
0.0117624
0.00395769
-0.00145248
-0.00529254
-0.00806174
-0.0102599
-0.011885
-0.0130261
-0.013922
-0.0149641
-0.0152263
-0.0152076
-0.0157411
-0.01618
-0.0165039
-0.0166728
-0.016812
-0.0169577
-0.017095
-0.017215
-0.0173155
-0.0173962
-0.0174579
-0.017502
-0.0175307
-0.0175518
-0.0175821
-0.0175838
-0.0174449
-0.0170239
-0.0166307
-0.0162486
-0.0163725
-0.0183169
-0.0193105
-0.0193438
-0.0190626
-0.0187956
-0.0186625
-0.0185006
-0.0175019
-0.0177563
-0.0178495
-0.017919
-0.0178616
-0.017803
-0.0177632
-0.0176801
-0.017555
-0.0173837
-0.0171953
-0.0169746
-0.0165652
-0.0159069
-0.0148076
0
0
0.00516702
0.0180774
0.0275237
0.0267694
0.0192979
0.0111542
0.00476088
6.48822e-05
-0.00361358
-0.00650161
-0.00879874
-0.0105404
-0.0118569
-0.0128534
-0.0133088
-0.0142825
-0.0147801
-0.0152942
-0.015712
-0.0160651
-0.0163295
-0.0165428
-0.0167304
-0.016897
-0.0170423
-0.0171669
-0.0172686
-0.017348
-0.017406
-0.0174448
-0.0174691
-0.0175003
-0.0177658
-0.0174816
-0.0172238
-0.0170502
-0.0169987
-0.0172474
-0.0179926
-0.0185276
-0.0186998
-0.0186665
-0.0185813
-0.0185368
-0.0184559
0
-0.0178854
-0.0179941
-0.0179589
-0.0179051
-0.0178483
-0.0177557
-0.0175874
-0.0174249
-0.0172719
-0.0171119
-0.0169239
-0.0166391
-0.0160535
-0.015447
-0.0296611
0
0.00347219
0.012834
0.0206022
0.0207304
0.0153845
0.00924693
0.00410094
0
-0.00294436
-0.00572094
-0.00795241
-0.0097296
-0.0111193
-0.012219
-0.0130969
-0.0140166
-0.014437
-0.0148966
-0.0154093
-0.0158187
-0.0161446
-0.0164091
-0.0166348
-0.0168314
-0.0170021
-0.0171531
-0.0172756
-0.0173711
-0.0174401
-0.0174835
-0.0175008
-0.0174794
-0.0309422
-0.017678
-0.0174479
-0.0174228
-0.0174774
-0.0176734
-0.0180153
-0.0183081
-0.0184612
-0.018498
-0.0184735
-0.0184133
-0.0182512
-0.017669
-0.017958
-0.0180633
-0.0180757
-0.0180743
-0.0180606
-0.0179489
-0.0176085
-0.0173991
-0.0172818
-0.0171761
-0.0170825
-0.0171429
-0.0171381
-0.0155643
0
0
0.00241848
0.00929192
0.0154328
0.0156239
0.0115252
0.00691418
0.00304042
-0.000349004
-0.00322506
-0.00563606
-0.00766808
-0.00930982
-0.0107331
-0.0118748
-0.0128935
-0.014164
-0.0142631
-0.0147116
-0.0152614
-0.015722
-0.0160924
-0.0163882
-0.0166413
-0.0168648
-0.0170586
-0.01724
-0.0173822
-0.0174933
-0.0175701
-0.0176197
-0.0176997
-0.0177849
-0.0180789
-0.0178921
-0.0177982
-0.0177939
-0.0178564
-0.0179897
-0.0181758
-0.0183471
-0.018458
-0.0185038
-0.0184966
-0.0184483
-0.0183409
-0.0181556
-0.0181922
-0.0182367
-0.0182779
-0.0183556
-0.0184755
-0.0184402
-0.0175961
-0.0173444
-0.017337
-0.0173026
-0.017217
-0.0244722
-0.0159513
-0.0153463
0
0
0.00169781
0.00672324
0.0114306
0.0113532
0.0079676
0.00436966
0.00129942
-0.00143423
-0.00383978
-0.00594953
-0.00774554
-0.00915228
-0.0118569
-0.011713
-0.0125377
-0.0128621
-0.0141298
-0.0148665
-0.0153375
-0.0157488
-0.0161631
-0.0164593
-0.0167301
-0.0169792
-0.01724
-0.017394
-0.0175648
-0.0176981
-0.0177766
-0.0177948
-0.0179441
-0.018058
-0.0181638
-0.0181428
-0.0181249
-0.0181484
-0.0181983
-0.0182908
-0.0184077
-0.0185165
-0.0185933
-0.0186305
-0.0186304
-0.0185982
-0.0185369
-0.0184626
-0.0184464
-0.0184594
-0.0185154
-0.0186881
-0.0190973
-0.0195508
-0.017285
-0.01716
-0.0174439
-0.0175722
-0.0175733
-0.0175514
-0.0169007
-0.015667
0
0
0.0011679
0.00475306
0.00822701
0.00774527
0.00474483
0.00181016
-0.000589665
-0.00274881
-0.00475073
-0.00656849
-0.00820851
-0.0097829
-0.0108827
-0.0118561
-0.0126575
-0.0133207
-0.0142192
-0.0148941
-0.0154119
-0.0158536
-0.0185373
-0.016606
-0.0168787
-0.0171557
-0.0174182
-0.0176311
-0.0178317
-0.0179994
-0.0180917
-0.0180214
-0.0182075
-0.0183136
-0.0184011
-0.0184319
-0.0184542
-0.0185016
-0.0185347
-0.0186028
-0.0186883
-0.0187641
-0.0188172
-0.0188432
-0.0188425
-0.0188191
-0.0187787
-0.0187326
-0.0187
-0.018682
-0.0186982
-0.0188364
-0.0193301
-0.0201238
-0.0165394
-0.0172625
-0.017814
-0.0179825
-0.0179778
-0.0178748
-0.0174216
-0.0160515
0
0
0.000756713
0.00317555
0.00559154
0.0046404
0.00185151
-0.00060403
-0.00249216
-0.00420867
-0.00585656
-0.00740787
-0.00883716
-0.0101409
-0.0112359
-0.0121666
-0.0128863
-0.0136398
-0.0144122
-0.0150663
-0.015611
-0.0161047
-0.016463
-0.0167929
-0.017103
-0.0173885
-0.017646
-0.0179148
-0.0181706
-0.0184172
-0.0186494
-0.0188291
-0.0180566
-0.0183853
-0.0186266
-0.0187326
-0.0187807
-0.0188204
-0.0189174
-0.0189491
-0.0190142
-0.0190694
-0.0191044
-0.0191183
-0.0191114
-0.0190885
-0.0190537
-0.0190112
-0.0189632
-0.0188995
-0.0187874
-0.0185197
-0.0177965
-0.0164913
-0.0205079
-0.0196782
-0.0189499
-0.0186117
-0.018446
-0.0182858
-0.0178571
-0.0164304
0
0
0.000423385
0.00186772
0.00338357
-0.0018481
-0.000740966
-0.00284503
-0.00435711
-0.00572753
-0.00708301
-0.00839289
-0.00962391
-0.0107592
-0.0117752
-0.0126607
-0.0130829
-0.0139305
-0.0147162
-0.0153652
-0.015883
-0.0162886
-0.0167655
-0.0170976
-0.0173911
-0.0176749
-0.0179554
-0.0182491
-0.0185635
-0.0189018
-0.0192458
-0.0194496
0
-0.0187893
-0.0190488
-0.0191096
-0.0191427
-0.0191839
-0.0192441
-0.0193416
-0.0193929
-0.0194264
-0.0194427
-0.0194438
-0.0194239
-0.0193947
-0.0193583
-0.0193144
-0.0192584
-0.0191767
-0.0190386
-0.0187873
-0.0183422
-0.0180416
-0.019811
-0.0197752
-0.0193536
-0.0190558
-0.0188734
-0.0186985
-0.0182665
-0.0167954
0
0
0.000140959
0.000738041
0.00141058
-0.000378066
-0.00304813
-0.00493276
-0.00616537
-0.00726455
-0.00837308
-0.00947545
-0.0105274
-0.011522
-0.0124624
-0.0134051
0
-0.0143264
-0.0151586
-0.0157681
-0.0162727
-0.0166742
-0.0170653
-0.017397
-0.0176972
-0.0179853
-0.0182784
-0.0186016
-0.0189883
-0.01946
-0.0199681
-0.0198331
-0.0191341
-0.0192574
-0.0193721
-0.0194356
-0.0194894
-0.0195574
-0.0196407
-0.0197369
-0.0198019
-0.0198282
-0.0198254
-0.0198198
-0.0197698
-0.0197292
-0.0196889
-0.0196448
-0.0195905
-0.0195136
-0.019395
-0.0192598
-0.0190962
-0.0190902
-0.0196362
-0.019722
-0.0195737
-0.0194042
-0.0192574
-0.0190929
-0.0186576
-0.0171453
0
0
-0.000102383
-0.000247144
-0.000311822
-0.00244753
-0.0051493
-0.006877
-0.00789987
-0.00878213
-0.00968582
-0.011005
-0.0115057
-0.0123578
-0.0131591
-0.0138744
-0.0141962
-0.0149317
-0.0156159
-0.0161987
-0.0167249
-0.0170992
-0.0174313
-0.0177418
-0.0180327
-0.0183125
-0.0185999
-0.0189354
-0.0194047
-0.0201444
-0.0215428
-0.0206445
-0.0199602
-0.0197475
-0.0197226
-0.0197636
-0.0198378
-0.0199388
-0.0200586
-0.0201913
-0.0202828
-0.0202927
-0.0202469
-0.0201667
-0.0201275
-0.0200818
-0.0200391
-0.0199981
-0.0199533
-0.0198908
-0.0197617
-0.0197389
-0.01969
-0.0197024
-0.019835
-0.0198969
-0.0198482
-0.0197496
-0.0196142
-0.0194742
-0.0190332
-0.0174785
0
0
-0.000316308
-0.00111586
-0.0018481
-0.00436495
-0.00710275
-0.00870781
-0.00956005
-0.0102663
-0.011005
-0.0117739
-0.012531
-0.0132626
-0.013949
-0.0145653
-0.015061
-0.015624
-0.0161728
-0.0166762
-0.0173394
-0.0175843
-0.0178445
-0.0181224
-0.018395
-0.0186501
-0.0188999
-0.019185
-0.0196442
-0.017406
-0.0263516
-0.0214095
-0.0202772
-0.0200203
-0.0200057
-0.0200746
-0.0201818
-0.0203279
-0.0205206
-0.0207307
-0.0208938
-0.0208567
-0.0207324
-0.0206055
-0.0205143
-0.0204493
-0.020402
-0.0203661
-0.0203375
-0.0203001
-0.017919
-0.0202042
-0.0201945
-0.020174
-0.0201083
-0.0202138
-0.020199
-0.0201409
-0.0200562
-0.0198641
-0.019396
-0.0177911
0
0
-0.000512743
-0.00187195
-0.00322746
-0.00611347
-0.00892578
-0.010446
-0.0111503
-0.0117057
-0.0123059
-0.0129453
-0.0135909
-0.01422
-0.0148151
-0.0153603
-0.0158487
-0.0163243
-0.0167661
-0.017128
-0.0292396
-0.018111
-0.0182676
-0.0185373
-0.018786
-0.019005
-0.0191822
-0.0192912
-0.0192042
-0.018237
-0.0123508
-0.0180685
-0.0194535
-0.0199272
-0.020178
-0.0203567
-0.0205091
-0.0207045
-0.0209914
-0.0213902
-0.0217902
-0.021575
-0.0212697
-0.0210402
-0.0208991
-0.0208169
-0.0207663
-0.0207363
-0.0207128
-0.020685
-0.0206157
-0.0206599
-0.0206566
-0.0206701
-0.0207862
-0.0206667
-0.020608
-0.0205659
-0.0204219
-0.0202362
-0.0197402
-0.0180728
0
0
-0.000726925
-0.0024659
-0.00446246
-0.00774701
-0.010653
-0.0121172
-0.012666
-0.0130939
-0.0135822
-0.0141205
-0.0146714
-0.0152167
-0.0157358
-0.0162126
-0.01664
-0.0170472
-0.0174434
-0.0178363
-0.0183977
-0.0185907
-0.0187953
-0.0190179
-0.0192293
-0.0194063
-0.0195313
-0.0195663
-0.0194168
-0.0188653
-0.0176939
-0.0188744
-0.0196711
-0.0201474
-0.020459
-0.0206797
-0.0208163
-0.0210298
-0.0214288
-0.022207
-0.0235379
-0.0224995
-0.0217928
-0.0214269
-0.0212516
-0.0211693
-0.0211219
-0.0211082
-0.0210959
-0.0210833
-0.0210846
-0.0211505
-0.0211085
-0.0210972
-0.0211163
-0.0210857
-0.0209925
-0.0210647
-0.0208026
-0.0206251
-0.0200835
-0.0182999
0
0
-0.00104386
0.00475306
-0.00560931
-0.00931851
-0.0122901
-0.0137001
-0.0140664
-0.0144381
-0.0148601
-0.0153107
-0.0157687
-0.0162428
-0.0167045
-0.0171179
-0.0174506
-0.0177767
-0.0181241
-0.0184818
-0.0188484
-0.0191067
-0.0193262
-0.0195297
-0.0197107
-0.0198593
-0.019962
-0.0199967
-0.0199297
-0.0197356
-0.0195736
-0.0198678
-0.0202346
-0.0205624
-0.0208384
-0.0210701
-0.0210724
-0.0212274
-0.0216256
-0.0229198
-0.0286757
-0.0233012
-0.0220113
-0.0216463
-0.0215315
-0.0214958
-0.0211219
-0.0214823
-0.0214834
-0.0214794
-0.0215098
-0.0217569
-0.0215529
-0.0215131
-0.0215288
-0.0215639
-0.0217154
-0.0217002
-0.0212219
-0.0211441
-0.0205597
-0.0183921
0
0
-0.00106005
-0.00383534
-0.00686007
-0.0108001
-0.0137809
-0.0148915
-0.0155052
-0.015864
-0.0162111
-0.0165545
-0.0168711
-0.0172909
-0.0177304
-0.0181074
-0.0182697
-0.0184867
-0.0187897
-0.0191286
-0.0194326
-0.0196781
-0.019886
-0.0200683
-0.020226
-0.0203558
-0.020452
-0.0205066
-0.0205116
-0.0204773
-0.0207229
-0.020688
-0.0208186
-0.021019
-0.0212425
-0.0215124
-0.0212621
-0.0212919
-0.0211383
-0.0200532
-0.0136609
-0.0197784
-0.0211673
-0.0215781
-0.0217284
-0.0217955
-0.0218272
-0.0218614
-0.0218744
-0.0218597
-0.0218632
-0.032127
-0.0219526
-0.0219084
-0.0219421
-0.0219464
-0.021902
-0.0217644
-0.0222039
-0.0221077
-0.0218804
-0.0205597
0
0
-0.00118398
-0.00460631
-0.00803841
-0.0123782
-0.015364
-0.0161433
-0.0167092
-0.0171074
-0.0174485
-0.0177367
-0.0178415
-0.0183181
-0.0188318
-0.019255
-0.0190523
-0.0191292
-0.0194388
-0.0198047
-0.020084
-0.0202962
-0.0204765
-0.0206337
-0.0207695
-0.0208837
-0.0209775
-0.0210572
-0.0211297
-0.0210471
-0.0330598
-0.0213663
-0.0213246
-0.0214512
-0.0215282
-0.0214733
-0.0218557
-0.0217605
-0.0214355
-0.0207085
-0.0193525
-0.0205544
-0.0213836
-0.0217995
-0.0220123
-0.022126
-0.0221963
-0.0222608
-0.022298
-0.0223162
-0.0223594
-0.0225817
-0.0224093
-0.0223927
-0.0224088
-0.0224052
-0.0223667
-0.0223636
-0.0225941
-0.0226199
-0.0223556
-0.0206506
0
0
-0.00133811
-0.0052564
-0.00904952
-0.0239058
-0.01708
0
-0.017936
-0.0183842
-0.0186496
-0.0189435
-0.00795241
-0.0193065
-0.0199976
-0.0205499
-0.0196104
-0.0198113
-0.0201471
-0.0206257
-0.0208013
-0.020953
-0.0210929
-0.021222
-0.021334
-0.0214303
-0.0215161
-0.0216171
-0.0219748
-0.0217709
-0.0219875
-0.0218898
-0.021891
-0.0219539
-0.0220125
-0.0220396
-0.0221921
-0.0221515
-0.0219433
-0.0216017
-0.0212731
-0.0215583
-0.0219313
-0.022208
-0.0223833
-0.0224923
-0.0225707
-0.0226863
-0.0227438
-0.0227662
-0.0227883
-0.022831
-0.0228055
-0.0228705
-0.0229066
-0.0229074
-0.0228437
-0.0228715
-0.0229889
-0.0230177
-0.0227043
-0.0208838
0
0
-0.00150299
-0.00589824
-0.0102161
-0.0150735
-0.0182126
-0.0189996
-0.0193827
-0.0195973
-0.0197402
-0.0197989
-0.019825
-0.0202233
-0.0208061
-0.0199782
-0.0210938
-0.0212384
-0.0213109
-0.0279343
-0.0216188
-0.0216315
-0.021731
-0.021828
-0.0219133
-0.0219856
-0.0220383
-0.0220464
-0.0217506
-0.0221063
-0.0223053
-0.022357
-0.0224022
-0.0224655
-0.0225385
-0.0226145
-0.0226593
-0.0226308
-0.022507
-0.0223507
-0.0222557
-0.0223502
-0.0225256
-0.0226907
-0.0228022
-0.0228828
-0.0229306
-0.0231541
-0.0232174
-0.0232226
-0.0232139
-0.0231792
-0.0231564
-0.0233685
-0.0234333
-0.0234516
-0.0232586
-0.0233015
-0.0233954
-0.0234075
-0.0230614
-0.0211778
0
0
-0.00166517
-0.00650837
-0.0112611
-0.0162267
-0.019496
-0.0205881
-0.0208136
-0.0208641
-0.0208256
-0.0205093
-0.0207626
-0.0209134
-0.0205803
-0.0339831
-0.0222607
-0.0222764
-0.0222684
-0.0223797
-0.0223328
-0.0223463
-0.0223967
-0.0224546
-0.0225029
-0.0225554
-0.0225942
-0.0226021
-0.0225643
-0.022661
-0.0227791
-0.0228456
-0.0228996
-0.0229671
-0.0230698
-0.0232496
-0.0232079
-0.0231993
-0.0230756
-0.0229815
-0.022947
-0.0229942
-0.023091
-0.0231992
-0.0233003
-0.0233282
-0.0232909
-0.0236674
-0.0236819
-0.0236795
-0.0236708
-0.0235676
-0.0234654
-0.0238708
-0.0239055
-0.0240041
-0.0236091
-0.023732
-0.0238238
-0.0238066
-0.0234407
-0.021508
0
0
-0.00182508
-0.00710195
-0.0122721
-0.01747
-0.0208472
-0.0220177
-0.0221764
-0.0221582
-0.0219265
-0.0202289
-0.0217761
-0.0220466
-0.0221238
-0.0227602
-0.0229759
-0.0230223
-0.0230214
-0.0230334
-0.0230303
-0.0230407
-0.0230655
-0.0230887
-0.0230826
-0.0231308
-0.0231703
-0.0231828
-0.023181
-0.0231945
-0.0233012
-0.0233449
-0.0233832
-0.0234404
-0.0235757
-0.0242263
-0.023754
-0.0239249
-0.0236108
-0.0235215
-0.023515
-0.023553
-0.0236203
-0.0237034
-0.0238038
-0.0239317
-0.0241162
-0.0238405
-0.0239513
-0.0240914
-0.0242008
-0.0240974
-0.0241936
-0.0239185
-0.0239773
-0.0239457
-0.0244382
-0.0243765
-0.0243179
-0.0241998
-0.0238387
-0.0218658
0
0
-0.00198597
-0.0076909
-0.0132773
-0.0187391
-0.0222189
-0.0234161
-0.0234462
-0.0235963
-0.0238605
-0.0257857
-0.0240572
-0.0237231
-0.0235721
-0.0236767
-0.0237494
-0.0237686
-0.0237584
-0.0237455
-0.0237341
-0.0237317
-0.0237382
-0.0237399
-0.0236001
-0.0237065
-0.0237607
-0.0237656
-0.0237646
-0.0237791
-0.023768
-0.0238094
-0.0238387
-0.0238505
-0.0237792
-0.0231184
-0.0236835
-0.0235041
-0.0238537
-0.0239621
-0.0240126
-0.0240625
-0.0241183
-0.0241802
-0.0242702
-0.0243741
-0.024465
-0.0243759
-0.024427
-0.0245592
-0.024753
-0.0244322
-0.0243853
-0.0245084
-0.0244978
-0.0245339
-0.024769
-0.0248029
-0.0247569
-0.0244722
-0.0242554
-0.0222499
0
0
-0.00215021
-0.00828097
-0.014283
-0.0200166
-0.0235993
-0.0248242
-0.0251629
-0.0250125
-0.0250529
-0.0253929
-0.0250773
-0.0248449
-0.0246888
-0.0246323
-0.024602
-0.0245634
-0.0245153
-0.0244746
-0.0244418
-0.0244201
-0.0244167
-0.0244406
-0.0171557
-0.0242954
-0.0243893
-0.0243379
-0.0243069
-0.0231945
-0.0242856
-0.0243129
-0.0243048
-0.0243158
-0.0242696
-0.0241341
-0.0242232
-0.024243
-0.0243593
-0.0244415
-0.024502
-0.0245542
-0.0245978
-0.0246191
-0.0247152
-0.0248031
-0.0248606
-0.0248581
-0.0248715
-0.0248663
-0.0248041
-0.0252376
-0.0170298
-0.0279438
-0.0250761
-0.0250807
-0.0251777
-0.0252399
-0.0252375
-0.0146618
-0.0247303
-0.0226564
0
0
-0.00231923
-0.00887484
-0.0152913
-0.0212984
-0.0249766
-0.0261966
-0.0263509
-0.0261874
-0.0261353
-0.0261327
-0.0260187
-0.0258655
-0.0257123
-0.0255878
-0.0254828
-0.0253859
-0.0252889
-0.0252057
-0.0251443
-0.0250965
-0.025058
-0.0250057
-0.0248475
-0.0249662
-0.0250136
-0.0248637
-0.0247792
-0.0247557
-0.0247896
-0.0248172
-0.0248503
-0.0248248
-0.0247975
-0.0247656
-0.0247869
-0.0248178
-0.0248759
-0.0249353
-0.0249912
-0.025045
-0.0250804
-0.0249759
-0.0251581
-0.0252561
-0.0253071
-0.0253307
-0.0253481
-0.0253536
-0.0253654
-0.0255411
-0.0254273
-0.0255895
-0.0255655
-0.0255752
-0.0256137
-0.0256406
-0.0256141
-0.0253633
-0.0251087
-0.0230157
0
0
-0.00249376
-0.0094743
-0.0163052
-0.0225905
-0.0263628
-0.0275707
-0.0276599
-0.0272521
-0.0272025
-0.0270869
-0.0270463
-0.0269013
-0.0267189
-0.0265357
-0.0263706
-0.0262199
-0.0260546
-0.0259184
-0.0258362
-0.0257674
-0.0257102
-0.0256589
-0.025607
-0.0256219
-0.0257431
-0.0253283
-0.0251946
-0.0252258
-0.0252809
-0.0253158
-0.0253291
-0.0253217
-0.0253098
-0.0253023
-0.0253138
-0.0253389
-0.0253781
-0.0254248
-0.0254772
-0.0255417
-0.0256028
-0.0188432
-0.0256224
-0.0257411
-0.0257785
-0.02581
-0.0258383
-0.0258634
-0.025896
-0.0259636
-0.0259695
-0.0260171
-0.0260298
-0.0260439
-0.0260642
-0.0260766
-0.0260518
-0.0259562
-0.025551
-0.0233966
0
0
-0.00267295
-0.010081
-0.0173293
-0.0239058
-0.0277739
-0.0289788
-0.0291075
-0.0146003
-0.0283056
-0.0281415
-0.0281678
-0.0279465
-0.027688
-0.0274557
-0.0272491
-0.0270764
-0.026791
-0.026578
-0.0265131
-0.0264296
-0.0263691
-0.0262689
-0.026195
-0.0262289
-0.0265947
-0.0256358
-0.0256568
-0.0257386
-0.0258044
-0.025825
-0.0258257
-0.0258162
-0.0258072
-0.0258046
-0.0258136
-0.025834
-0.025865
-0.025904
-0.0259481
-0.0259935
-0.0260201
-0.0259272
-0.0260879
-0.026184
-0.0262447
-0.0262925
-0.0263336
-0.0263691
-0.026403
-0.0264389
-0.026459
-0.0264814
-0.026496
-0.0265098
-0.0265251
-0.0265397
-0.0265529
-0.0264589
-0.0260085
-0.0237956
0
0
-0.00284944
-0.0106945
-0.0183823
-0.0252775
-0.0292065
-0.0303669
-0.0303356
-0.0298421
-0.0296897
-0.0296209
-0.0290906
-0.0287835
-0.0285281
-0.0282997
-0.0280871
-0.0280296
-0.0274464
-0.027142
-0.0271792
-0.0270644
-0.0270711
-0.026862
-0.0266771
-0.026439
-0.0259093
-0.0268204
-0.0267273
-0.0265641
-0.0264358
-0.0263667
-0.0263281
-0.0263056
-0.0262923
-0.0262881
-0.0262948
-0.0263124
-0.02634
-0.0263758
-0.0264167
-0.0264572
-0.0264865
-0.026496
-0.026571
-0.0266514
-0.0267239
-0.0267873
-0.0268399
-0.0268813
-0.0269128
-0.0269355
-0.0269491
-0.0269595
-0.0269685
-0.0269786
-0.02699
-0.0270012
-0.027006
-0.0269301
-0.0264657
-0.0242039
0
0
-0.00299835
-0.0112849
-0.0196282
-0.0267017
-0.0306712
-0.0317875
-0.0316961
-0.0312999
-0.0309675
-0.0306702
-0.0302161
-0.0298147
-0.0294697
-0.0291874
-0.029061
-0.0292457
-0.0279343
-0.0279342
-0.027694
-0.0275522
-0.0335248
-0.027465
-0.0272039
-0.0270095
-0.026774
-0.0270807
-0.027135
-0.0270413
-0.0269374
-0.0268615
-0.0268142
-0.0267837
-0.0267647
-0.0267566
-0.0267612
-0.0267778
-0.0268052
-0.0268426
-0.0268874
-0.0269332
-0.0269675
-0.026986
-0.0270428
-0.0271272
-0.0272187
-0.027302
-0.0273679
-0.0274142
-0.0274415
-0.0274517
-0.0274509
-0.0274474
-0.027447
-0.0274519
-0.0274589
-0.0274645
-0.0274693
-0.0274001
-0.0269248
-0.0246178
0
0
-0.00321117
-0.0117803
-0.0207622
-0.0283623
-0.0323191