# vtk DataFile Version 2.0
FlowField
ASCII
DATASET STRUCTURED_GRID
DIMENSIONS 62 47 32 
POINTS 93248 double
0 0 0
0.01 0 0
0.02 0 0
0.03 0 0
0.04 0 0
0.05 0 0
0.06 0 0
0.07 0 0
0.08 0 0
0.09 0 0
0.1 0 0
0.11 0 0
0.12 0 0
0.13 0 0
0.14 0 0
0.15 0 0
0.16 0 0
0.17 0 0
0.18 0 0
0.19 0 0
0.2 0 0
0.21 0 0
0.22 0 0
0.23 0 0
0.24 0 0
0.25 0 0
0.26 0 0
0.27 0 0
0.28 0 0
0.29 0 0
0.3 0 0
0.31 0 0
0.32 0 0
0.33 0 0
0.34 0 0
0.35 0 0
0.36 0 0
0.37 0 0
0.38 0 0
0.39 0 0
0.4 0 0
0.41 0 0
0.42 0 0
0.43 0 0
0.44 0 0
0.45 0 0
0.46 0 0
0.47 0 0
0.48 0 0
0.49 0 0
0.5 0 0
0.51 0 0
0.52 0 0
0.53 0 0
0.54 0 0
0.55 0 0
0.56 0 0
0.57 0 0
0.58 0 0
0.59 0 0
0.6 0 0
0.61 0 0
0 0.01 0
0.01 0.01 0
0.02 0.01 0
0.03 0.01 0
0.04 0.01 0
0.05 0.01 0
0.06 0.01 0
0.07 0.01 0
0.08 0.01 0
0.09 0.01 0
0.1 0.01 0
0.11 0.01 0
0.12 0.01 0
0.13 0.01 0
0.14 0.01 0
0.15 0.01 0
0.16 0.01 0
0.17 0.01 0
0.18 0.01 0
0.19 0.01 0
0.2 0.01 0
0.21 0.01 0
0.22 0.01 0
0.23 0.01 0
0.24 0.01 0
0.25 0.01 0
0.26 0.01 0
0.27 0.01 0
0.28 0.01 0
0.29 0.01 0
0.3 0.01 0
0.31 0.01 0
0.32 0.01 0
0.33 0.01 0
0.34 0.01 0
0.35 0.01 0
0.36 0.01 0
0.37 0.01 0
0.38 0.01 0
0.39 0.01 0
0.4 0.01 0
0.41 0.01 0
0.42 0.01 0
0.43 0.01 0
0.44 0.01 0
0.45 0.01 0
0.46 0.01 0
0.47 0.01 0
0.48 0.01 0
0.49 0.01 0
0.5 0.01 0
0.51 0.01 0
0.52 0.01 0
0.53 0.01 0
0.54 0.01 0
0.55 0.01 0
0.56 0.01 0
0.57 0.01 0
0.58 0.01 0
0.59 0.01 0
0.6 0.01 0
0.61 0.01 0
0 0.02 0
0.01 0.02 0
0.02 0.02 0
0.03 0.02 0
0.04 0.02 0
0.05 0.02 0
0.06 0.02 0
0.07 0.02 0
0.08 0.02 0
0.09 0.02 0
0.1 0.02 0
0.11 0.02 0
0.12 0.02 0
0.13 0.02 0
0.14 0.02 0
0.15 0.02 0
0.16 0.02 0
0.17 0.02 0
0.18 0.02 0
0.19 0.02 0
0.2 0.02 0
0.21 0.02 0
0.22 0.02 0
0.23 0.02 0
0.24 0.02 0
0.25 0.02 0
0.26 0.02 0
0.27 0.02 0
0.28 0.02 0
0.29 0.02 0
0.3 0.02 0
0.31 0.02 0
0.32 0.02 0
0.33 0.02 0
0.34 0.02 0
0.35 0.02 0
0.36 0.02 0
0.37 0.02 0
0.38 0.02 0
0.39 0.02 0
0.4 0.02 0
0.41 0.02 0
0.42 0.02 0
0.43 0.02 0
0.44 0.02 0
0.45 0.02 0
0.46 0.02 0
0.47 0.02 0
0.48 0.02 0
0.49 0.02 0
0.5 0.02 0
0.51 0.02 0
0.52 0.02 0
0.53 0.02 0
0.54 0.02 0
0.55 0.02 0
0.56 0.02 0
0.57 0.02 0
0.58 0.02 0
0.59 0.02 0
0.6 0.02 0
0.61 0.02 0
0 0.03 0
0.01 0.03 0
0.02 0.03 0
0.03 0.03 0
0.04 0.03 0
0.05 0.03 0
0.06 0.03 0
0.07 0.03 0
0.08 0.03 0
0.09 0.03 0
0.1 0.03 0
0.11 0.03 0
0.12 0.03 0
0.13 0.03 0
0.14 0.03 0
0.15 0.03 0
0.16 0.03 0
0.17 0.03 0
0.18 0.03 0
0.19 0.03 0
0.2 0.03 0
0.21 0.03 0
0.22 0.03 0
0.23 0.03 0
0.24 0.03 0
0.25 0.03 0
0.26 0.03 0
0.27 0.03 0
0.28 0.03 0
0.29 0.03 0
0.3 0.03 0
0.31 0.03 0
0.32 0.03 0
0.33 0.03 0
0.34 0.03 0
0.35 0.03 0
0.36 0.03 0
0.37 0.03 0
0.38 0.03 0
0.39 0.03 0
0.4 0.03 0
0.41 0.03 0
0.42 0.03 0
0.43 0.03 0
0.44 0.03 0
0.45 0.03 0
0.46 0.03 0
0.47 0.03 0
0.48 0.03 0
0.49 0.03 0
0.5 0.03 0
0.51 0.03 0
0.52 0.03 0
0.53 0.03 0
0.54 0.03 0
0.55 0.03 0
0.56 0.03 0
0.57 0.03 0
0.58 0.03 0
0.59 0.03 0
0.6 0.03 0
0.61 0.03 0
0 0.04 0
0.01 0.04 0
0.02 0.04 0
0.03 0.04 0
0.04 0.04 0
0.05 0.04 0
0.06 0.04 0
0.07 0.04 0
0.08 0.04 0
0.09 0.04 0
0.1 0.04 0
0.11 0.04 0
0.12 0.04 0
0.13 0.04 0
0.14 0.04 0
0.15 0.04 0
0.16 0.04 0
0.17 0.04 0
0.18 0.04 0
0.19 0.04 0
0.2 0.04 0
0.21 0.04 0
0.22 0.04 0
0.23 0.04 0
0.24 0.04 0
0.25 0.04 0
0.26 0.04 0
0.27 0.04 0
0.28 0.04 0
0.29 0.04 0
0.3 0.04 0
0.31 0.04 0
0.32 0.04 0
0.33 0.04 0
0.34 0.04 0
0.35 0.04 0
0.36 0.04 0
0.37 0.04 0
0.38 0.04 0
0.39 0.04 0
0.4 0.04 0
0.41 0.04 0
0.42 0.04 0
0.43 0.04 0
0.44 0.04 0
0.45 0.04 0
0.46 0.04 0
0.47 0.04 0
0.48 0.04 0
0.49 0.04 0
0.5 0.04 0
0.51 0.04 0
0.52 0.04 0
0.53 0.04 0
0.54 0.04 0
0.55 0.04 0
0.56 0.04 0
0.57 0.04 0
0.58 0.04 0
0.59 0.04 0
0.6 0.04 0
0.61 0.04 0
0 0.05 0
0.01 0.05 0
0.02 0.05 0
0.03 0.05 0
0.04 0.05 0
0.05 0.05 0
0.06 0.05 0
0.07 0.05 0
0.08 0.05 0
0.09 0.05 0
0.1 0.05 0
0.11 0.05 0
0.12 0.05 0
0.13 0.05 0
0.14 0.05 0
0.15 0.05 0
0.16 0.05 0
0.17 0.05 0
0.18 0.05 0
0.19 0.05 0
0.2 0.05 0
0.21 0.05 0
0.22 0.05 0
0.23 0.05 0
0.24 0.05 0
0.25 0.05 0
0.26 0.05 0
0.27 0.05 0
0.28 0.05 0
0.29 0.05 0
0.3 0.05 0
0.31 0.05 0
0.32 0.05 0
0.33 0.05 0
0.34 0.05 0
0.35 0.05 0
0.36 0.05 0
0.37 0.05 0
0.38 0.05 0
0.39 0.05 0
0.4 0.05 0
0.41 0.05 0
0.42 0.05 0
0.43 0.05 0
0.44 0.05 0
0.45 0.05 0
0.46 0.05 0
0.47 0.05 0
0.48 0.05 0
0.49 0.05 0
0.5 0.05 0
0.51 0.05 0
0.52 0.05 0
0.53 0.05 0
0.54 0.05 0
0.55 0.05 0
0.56 0.05 0
0.57 0.05 0
0.58 0.05 0
0.59 0.05 0
0.6 0.05 0
0.61 0.05 0
0 0.06 0
0.01 0.06 0
0.02 0.06 0
0.03 0.06 0
0.04 0.06 0
0.05 0.06 0
0.06 0.06 0
0.07 0.06 0
0.08 0.06 0
0.09 0.06 0
0.1 0.06 0
0.11 0.06 0
0.12 0.06 0
0.13 0.06 0
0.14 0.06 0
0.15 0.06 0
0.16 0.06 0
0.17 0.06 0
0.18 0.06 0
0.19 0.06 0
0.2 0.06 0
0.21 0.06 0
0.22 0.06 0
0.23 0.06 0
0.24 0.06 0
0.25 0.06 0
0.26 0.06 0
0.27 0.06 0
0.28 0.06 0
0.29 0.06 0
0.3 0.06 0
0.31 0.06 0
0.32 0.06 0
0.33 0.06 0
0.34 0.06 0
0.35 0.06 0
0.36 0.06 0
0.37 0.06 0
0.38 0.06 0
0.39 0.06 0
0.4 0.06 0
0.41 0.06 0
0.42 0.06 0
0.43 0.06 0
0.44 0.06 0
0.45 0.06 0
0.46 0.06 0
0.47 0.06 0
0.48 0.06 0
0.49 0.06 0
0.5 0.06 0
0.51 0.06 0
0.52 0.06 0
0.53 0.06 0
0.54 0.06 0
0.55 0.06 0
0.56 0.06 0
0.57 0.06 0
0.58 0.06 0
0.59 0.06 0
0.6 0.06 0
0.61 0.06 0
0 0.07 0
0.01 0.07 0
0.02 0.07 0
0.03 0.07 0
0.04 0.07 0
0.05 0.07 0
0.06 0.07 0
0.07 0.07 0
0.08 0.07 0
0.09 0.07 0
0.1 0.07 0
0.11 0.07 0
0.12 0.07 0
0.13 0.07 0
0.14 0.07 0
0.15 0.07 0
0.16 0.07 0
0.17 0.07 0
0.18 0.07 0
0.19 0.07 0
0.2 0.07 0
0.21 0.07 0
0.22 0.07 0
0.23 0.07 0
0.24 0.07 0
0.25 0.07 0
0.26 0.07 0
0.27 0.07 0
0.28 0.07 0
0.29 0.07 0
0.3 0.07 0
0.31 0.07 0
0.32 0.07 0
0.33 0.07 0
0.34 0.07 0
0.35 0.07 0
0.36 0.07 0
0.37 0.07 0
0.38 0.07 0
0.39 0.07 0
0.4 0.07 0
0.41 0.07 0
0.42 0.07 0
0.43 0.07 0
0.44 0.07 0
0.45 0.07 0
0.46 0.07 0
0.47 0.07 0
0.48 0.07 0
0.49 0.07 0
0.5 0.07 0
0.51 0.07 0
0.52 0.07 0
0.53 0.07 0
0.54 0.07 0
0.55 0.07 0
0.56 0.07 0
0.57 0.07 0
0.58 0.07 0
0.59 0.07 0
0.6 0.07 0
0.61 0.07 0
0 0.08 0
0.01 0.08 0
0.02 0.08 0
0.03 0.08 0
0.04 0.08 0
0.05 0.08 0
0.06 0.08 0
0.07 0.08 0
0.08 0.08 0
0.09 0.08 0
0.1 0.08 0
0.11 0.08 0
0.12 0.08 0
0.13 0.08 0
0.14 0.08 0
0.15 0.08 0
0.16 0.08 0
0.17 0.08 0
0.18 0.08 0
0.19 0.08 0
0.2 0.08 0
0.21 0.08 0
0.22 0.08 0
0.23 0.08 0
0.24 0.08 0
0.25 0.08 0
0.26 0.08 0
0.27 0.08 0
0.28 0.08 0
0.29 0.08 0
0.3 0.08 0
0.31 0.08 0
0.32 0.08 0
0.33 0.08 0
0.34 0.08 0
0.35 0.08 0
0.36 0.08 0
0.37 0.08 0
0.38 0.08 0
0.39 0.08 0
0.4 0.08 0
0.41 0.08 0
0.42 0.08 0
0.43 0.08 0
0.44 0.08 0
0.45 0.08 0
0.46 0.08 0
0.47 0.08 0
0.48 0.08 0
0.49 0.08 0
0.5 0.08 0
0.51 0.08 0
0.52 0.08 0
0.53 0.08 0
0.54 0.08 0
0.55 0.08 0
0.56 0.08 0
0.57 0.08 0
0.58 0.08 0
0.59 0.08 0
0.6 0.08 0
0.61 0.08 0
0 0.09 0
0.01 0.09 0
0.02 0.09 0
0.03 0.09 0
0.04 0.09 0
0.05 0.09 0
0.06 0.09 0
0.07 0.09 0
0.08 0.09 0
0.09 0.09 0
0.1 0.09 0
0.11 0.09 0
0.12 0.09 0
0.13 0.09 0
0.14 0.09 0
0.15 0.09 0
0.16 0.09 0
0.17 0.09 0
0.18 0.09 0
0.19 0.09 0
0.2 0.09 0
0.21 0.09 0
0.22 0.09 0
0.23 0.09 0
0.24 0.09 0
0.25 0.09 0
0.26 0.09 0
0.27 0.09 0
0.28 0.09 0
0.29 0.09 0
0.3 0.09 0
0.31 0.09 0
0.32 0.09 0
0.33 0.09 0
0.34 0.09 0
0.35 0.09 0
0.36 0.09 0
0.37 0.09 0
0.38 0.09 0
0.39 0.09 0
0.4 0.09 0
0.41 0.09 0
0.42 0.09 0
0.43 0.09 0
0.44 0.09 0
0.45 0.09 0
0.46 0.09 0
0.47 0.09 0
0.48 0.09 0
0.49 0.09 0
0.5 0.09 0
0.51 0.09 0
0.52 0.09 0
0.53 0.09 0
0.54 0.09 0
0.55 0.09 0
0.56 0.09 0
0.57 0.09 0
0.58 0.09 0
0.59 0.09 0
0.6 0.09 0
0.61 0.09 0
0 0.1 0
0.01 0.1 0
0.02 0.1 0
0.03 0.1 0
0.04 0.1 0
0.05 0.1 0
0.06 0.1 0
0.07 0.1 0
0.08 0.1 0
0.09 0.1 0
0.1 0.1 0
0.11 0.1 0
0.12 0.1 0
0.13 0.1 0
0.14 0.1 0
0.15 0.1 0
0.16 0.1 0
0.17 0.1 0
0.18 0.1 0
0.19 0.1 0
0.2 0.1 0
0.21 0.1 0
0.22 0.1 0
0.23 0.1 0
0.24 0.1 0
0.25 0.1 0
0.26 0.1 0
0.27 0.1 0
0.28 0.1 0
0.29 0.1 0
0.3 0.1 0
0.31 0.1 0
0.32 0.1 0
0.33 0.1 0
0.34 0.1 0
0.35 0.1 0
0.36 0.1 0
0.37 0.1 0
0.38 0.1 0
0.39 0.1 0
0.4 0.1 0
0.41 0.1 0
0.42 0.1 0
0.43 0.1 0
0.44 0.1 0
0.45 0.1 0
0.46 0.1 0
0.47 0.1 0
0.48 0.1 0
0.49 0.1 0
0.5 0.1 0
0.51 0.1 0
0.52 0.1 0
0.53 0.1 0
0.54 0.1 0
0.55 0.1 0
0.56 0.1 0
0.57 0.1 0
0.58 0.1 0
0.59 0.1 0
0.6 0.1 0
0.61 0.1 0
0 0.11 0
0.01 0.11 0
0.02 0.11 0
0.03 0.11 0
0.04 0.11 0
0.05 0.11 0
0.06 0.11 0
0.07 0.11 0
0.08 0.11 0
0.09 0.11 0
0.1 0.11 0
0.11 0.11 0
0.12 0.11 0
0.13 0.11 0
0.14 0.11 0
0.15 0.11 0
0.16 0.11 0
0.17 0.11 0
0.18 0.11 0
0.19 0.11 0
0.2 0.11 0
0.21 0.11 0
0.22 0.11 0
0.23 0.11 0
0.24 0.11 0
0.25 0.11 0
0.26 0.11 0
0.27 0.11 0
0.28 0.11 0
0.29 0.11 0
0.3 0.11 0
0.31 0.11 0
0.32 0.11 0
0.33 0.11 0
0.34 0.11 0
0.35 0.11 0
0.36 0.11 0
0.37 0.11 0
0.38 0.11 0
0.39 0.11 0
0.4 0.11 0
0.41 0.11 0
0.42 0.11 0
0.43 0.11 0
0.44 0.11 0
0.45 0.11 0
0.46 0.11 0
0.47 0.11 0
0.48 0.11 0
0.49 0.11 0
0.5 0.11 0
0.51 0.11 0
0.52 0.11 0
0.53 0.11 0
0.54 0.11 0
0.55 0.11 0
0.56 0.11 0
0.57 0.11 0
0.58 0.11 0
0.59 0.11 0
0.6 0.11 0
0.61 0.11 0
0 0.12 0
0.01 0.12 0
0.02 0.12 0
0.03 0.12 0
0.04 0.12 0
0.05 0.12 0
0.06 0.12 0
0.07 0.12 0
0.08 0.12 0
0.09 0.12 0
0.1 0.12 0
0.11 0.12 0
0.12 0.12 0
0.13 0.12 0
0.14 0.12 0
0.15 0.12 0
0.16 0.12 0
0.17 0.12 0
0.18 0.12 0
0.19 0.12 0
0.2 0.12 0
0.21 0.12 0
0.22 0.12 0
0.23 0.12 0
0.24 0.12 0
0.25 0.12 0
0.26 0.12 0
0.27 0.12 0
0.28 0.12 0
0.29 0.12 0
0.3 0.12 0
0.31 0.12 0
0.32 0.12 0
0.33 0.12 0
0.34 0.12 0
0.35 0.12 0
0.36 0.12 0
0.37 0.12 0
0.38 0.12 0
0.39 0.12 0
0.4 0.12 0
0.41 0.12 0
0.42 0.12 0
0.43 0.12 0
0.44 0.12 0
0.45 0.12 0
0.46 0.12 0
0.47 0.12 0
0.48 0.12 0
0.49 0.12 0
0.5 0.12 0
0.51 0.12 0
0.52 0.12 0
0.53 0.12 0
0.54 0.12 0
0.55 0.12 0
0.56 0.12 0
0.57 0.12 0
0.58 0.12 0
0.59 0.12 0
0.6 0.12 0
0.61 0.12 0
0 0.13 0
0.01 0.13 0
0.02 0.13 0
0.03 0.13 0
0.04 0.13 0
0.05 0.13 0
0.06 0.13 0
0.07 0.13 0
0.08 0.13 0
0.09 0.13 0
0.1 0.13 0
0.11 0.13 0
0.12 0.13 0
0.13 0.13 0
0.14 0.13 0
0.15 0.13 0
0.16 0.13 0
0.17 0.13 0
0.18 0.13 0
0.19 0.13 0
0.2 0.13 0
0.21 0.13 0
0.22 0.13 0
0.23 0.13 0
0.24 0.13 0
0.25 0.13 0
0.26 0.13 0
0.27 0.13 0
0.28 0.13 0
0.29 0.13 0
0.3 0.13 0
0.31 0.13 0
0.32 0.13 0
0.33 0.13 0
0.34 0.13 0
0.35 0.13 0
0.36 0.13 0
0.37 0.13 0
0.38 0.13 0
0.39 0.13 0
0.4 0.13 0
0.41 0.13 0
0.42 0.13 0
0.43 0.13 0
0.44 0.13 0
0.45 0.13 0
0.46 0.13 0
0.47 0.13 0
0.48 0.13 0
[...]
POINT_DATA 93248

SCALARS v double
LOOKUP_TABLE default
0
0
0
0
0
0
0
0
0
0
0
0
0
0
0
0
0
0
0
0
0
0
0
0
0
0
0
0
0
0
0
0
0
0
0
0
0
0
-0.112062
0
0
0
0
0
-0.118135
0
0
0
0
0
0
0
0
0
0
0
0
0
0
0
0
0
0
0.0445422
-0.0820321
0.0466987
0.0329206
0.0154927
0
-0.00731172
-0.0148421
-0.0195082
-0.0225358
-0.0257162
-0.0322756
-0.0318445
-0.0323376
-0.0330812
-0.0336671
-0.0328632
-0.0323387
-0.0313146
-0.0413102
-0.0342967
-0.0275079
-0.0327662
-0.0332461
-0.0331242
-0.033037
-0.0329885
-0.0329203
-0.0327729
-0.0325341
-0.0326559
-0.0350927
-0.0327225
-0.0318057
-0.0324069
-0.073931
-0.0309603
-0.0298381
-0.0279492
-0.0354636
-0.0666749
-0.0354402
-0.0370791
-0.0431498
-0.0678642
-0.136047
-0.0350141
-0.0484642
-0.0325023
-0.0324804
-0.0311489
-0.036063
-0.0435556
-0.0680341
-0.0416502
-0.0973448
-0.0334815
-0.0282633
-0.0247365
-0.0202981
0
0
0.0261488
0.0498845
0.0574638
0.0532697
0.0350042
0.0296911
0.0185942
0.00697263
-0.00385699
-0.0127971
-0.0212566
-0.134469
-0.0375769
-0.0409372
-0.0408192
-0.046302
-0.0450614
-0.0469239
-0.0499291
-0.182589
-0.0485128
-0.0550421
-0.0486255
-0.0468843
-0.046363
-0.0461875
-0.0460968
-0.0459754
-0.0457282
-0.0452664
-0.0450281
-0.109233
-0.0450076
-0.0444991
-0.0462951
-0.0458965
-0.0429689
-0.041108
-0.0448371
-0.0484119
-0.0511149
-0.0510486
-0.0535564
-0.0569031
-0.0620358
-0.059365
-0.0512394
-0.0484642
-0.046818
-0.0478488
-0.0528526
-0.0513834
-0.0548085
-0.0595561
-0.0523876
-0.0481733
-0.111408
-0.035725
-0.0315105
-0.0281335
0
0
0.0137315
0.0342947
0.0432412
0.052125
0.0561663
0.0428924
0.0316118
0.0202356
0.00888453
-0.00270271
-0.013323
-0.0263381
-0.0337913
-0.0404301
-0.0466313
-0.0507013
0
-0.0533367
-0.0559257
-0.059369
-0.0572762
-0.0571065
-0.0554456
-0.0543797
-0.0538681
-0.053634
-0.0535057
-0.0533858
-0.0532328
-0.0531381
-0.0536485
-0.056161
-0.0574465
-0.056107
-0.0523215
-0.051525
-0.0506855
-0.0508115
-0.0531931
-0.0554094
-0.0577394
-0.0598074
-0.0599438
-0.0620999
-0.0633743
-0.0585286
-0.0567357
-0.0554129
-0.0555923
-0.0558455
-0.0568979
-0.0570301
-0.0575119
-0.0571234
-0.0544456
-0.0509769
-0.0473708
-0.0401425
-0.0362899
-0.0350458
0
0
0.00839535
0.0238681
0.0379436
0.0407815
0.0420794
0.0370373
0.0295574
0.0206447
0.010973
0.000876757
-0.00914704
-0.0192089
-0.0277581
-0.0357322
-0.0452205
-0.0479905
-0.0502001
-0.0540933
-0.0574141
-0.0581844
-0.0586579
-0.0587267
-0.0584506
-0.0581545
-0.0579573
-0.0578214
-0.0577346
-0.0576667
-0.0576087
-0.0576373
-0.0579851
-0.059001
-0.0608011
-0.0599511
-0.0577257
-0.0564938
-0.0560996
-0.0565119
-0.0579817
-0.0594618
-0.06099
-0.0624053
-0.063168
-0.0639625
-0.063286
-0.0583691
-0.0595593
-0.0595857
-0.0595344
-0.0593739
-0.0591679
-0.0587024
-0.057765
-0.0561253
-0.053796
-0.0504749
-0.0462684
-0.0413366
-0.0384861
-0.0408258
0
0
0.00549272
0.0154515
0.0236341
0.0273399
0.0282135
0.0258408
0.0204572
0.013536
0.00594336
-0.00206164
-0.0100877
-0.0178129
-0.0247184
-0.0308888
-0.0335603
-0.0427695
-0.0481206
-0.0525283
-0.0551729
-0.0571007
-0.0585385
-0.0594263
-0.0599301
-0.0602227
-0.0604018
-0.0604398
-0.0604736
-0.0605007
-0.0604929
-0.0604412
-0.0603769
-0.0607266
-0.0645067
-0.0626604
-0.0609615
-0.0600846
-0.0599533
-0.0604038
-0.0612254
-0.0621321
-0.0630268
-0.0638384
-0.0645192
-0.0649739
-0.0645376
0
-0.0615307
-0.0618743
-0.0615494
-0.0610466
-0.0603451
-0.0593281
-0.0577966
-0.0557982
-0.0533696
-0.050365
-0.0469798
-0.0435666
-0.0402537
-0.0448789
-0.128952
0
0.0036849
0.00981859
0.0145159
0.0167793
0.0168239
0.0151638
0.00997318
0
-0.0016701
-0.00798138
-0.0143142
-0.0204222
-0.0253806
-0.0301877
-0.0352024
-0.0422055
-0.0461705
-0.0486221
-0.0528203
-0.0559127
-0.0582895
-0.0599056
-0.0609877
-0.0617443
-0.0622925
-0.0624679
-0.0626827
-0.0628509
-0.0628919
-0.0627312
-0.0622634
-0.0617037
-0.141714
-0.0645547
-0.0631968
-0.0628648
-0.0629621
-0.0633364
-0.0638287
-0.0643365
-0.0647938
-0.065146
-0.0654408
-0.0653048
-0.0643316
-0.0617774
-0.0625686
-0.0628988
-0.0626779
-0.0621145
-0.0612592
-0.0600335
-0.0583187
-0.0563372
-0.05414
-0.0518736
-0.0504109
-0.0520187
-0.0573978
-0.0456892
0
0
0.00247956
0.00598973
0.00836742
0.00903369
0.00780643
0.00434897
0.00160526
-0.00341775
-0.00884624
-0.0143396
-0.0198981
-0.0257465
-0.0284672
-0.0320472
-0.0366916
-0.043687
-0.0468993
-0.0486684
-0.0524494
-0.0559247
-0.0588699
-0.0608397
-0.0622204
-0.0632821
-0.0641551
-0.0643899
-0.0648942
-0.0652444
-0.0653672
-0.0652274
-0.0649926
-0.0653385
-0.067785
-0.0668335
-0.0660535
-0.0657541
-0.0658001
-0.0660166
-0.0662726
-0.0665026
-0.0666749
-0.0667658
-0.0665675
-0.0662106
-0.0654888
-0.0645878
-0.0643497
-0.0641929
-0.0638309
-0.0632227
-0.0623691
-0.0611914
-0.0594728
-0.0577529
-0.0559504
-0.0540448
-0.052273
-0.101052
-0.0291958
-0.0440301
0
0
0.00164785
0.00330006
0.00402576
0.0034231
0.0013491
-0.00211251
-0.00587998
-0.0105076
-0.0154166
-0.0202927
-0.0255831
-0.034536
-0.0247184
-0.0347814
-0.037463
-0.0379071
-0.0427794
-0.0501647
-0.0543662
-0.0574305
-0.0606998
-0.062429
-0.0638038
-0.0649567
-0.0643899
-0.0668993
-0.0675345
-0.0679636
-0.0681386
-0.0679417
-0.0676061
-0.0678141
-0.0685233
-0.0686301
-0.0685256
-0.0684601
-0.0685427
-0.068663
-0.0687469
-0.0687706
-0.0687186
-0.0685626
-0.0682432
-0.0678045
-0.0672625
-0.0667334
-0.0662805
-0.0658303
-0.0652812
-0.0645985
-0.0637986
-0.0629146
-0.0611547
-0.0598451
-0.0585045
-0.0570613
-0.0555236
-0.0533646
-0.0465181
-0.0451234
0
0
0.0010614
0.0013536
0.000848628
-0.000749909
-0.0034982
-0.00724936
-0.0115751
-0.016274
-0.0209234
-0.0250558
-0.0277726
-0.0239761
-0.033199
-0.0379138
-0.0408192
-0.0431831
-0.0476272
-0.0524613
-0.0562493
-0.059085
-0.0832994
-0.0642867
-0.0656641
-0.0670147
-0.0684002
-0.0692566
-0.0701766
-0.0708995
-0.0712499
-0.0708876
-0.0698005
-0.0698419
-0.070358
-0.070764
-0.0709893
-0.0710852
-0.0712478
-0.071335
-0.0712991
-0.0711721
-0.070964
-0.070663
-0.0702616
-0.0697956
-0.0693023
-0.0688104
-0.0682847
-0.0676888
-0.0669933
-0.0662105
-0.0653333
-0.0643074
-0.0631436
-0.0624151
-0.0613729
-0.0601008
-0.0585133
-0.0561347
-0.0522168
-0.0471718
0
0
0.000639808
-9.50644e-05
-0.00154916
-0.00397605
-0.0073241
-0.0114921
-0.0161938
-0.021089
-0.0257624
-0.0297954
-0.0327717
-0.0347834
-0.0391155
-0.0429394
-0.0454233
-0.0485484
-0.052302
-0.0560171
-0.0593036
-0.0621329
-0.0649229
-0.0666168
-0.0680314
-0.0692615
-0.0699585
-0.071752
-0.0731477
-0.0742582
-0.0749537
-0.0749876
-0.0706201
-0.0716853
-0.0727076
-0.073318
-0.0736832
-0.073931
-0.0738889
-0.0740438
-0.0739236
-0.0736916
-0.0733836
-0.0729976
-0.072518
-0.0720148
-0.0715084
-0.0709884
-0.0704108
-0.0697251
-0.0689172
-0.0680669
-0.0670611
-0.0659878
-0.0663884
-0.0654608
-0.0643243
-0.0630201
-0.0613315
-0.0588404
-0.0550795
-0.0494496
0
0
0.000329813
-0.00120709
-0.00340908
-0.00754861
-0.0104639
-0.0150826
-0.0201696
-0.0253647
-0.0302979
-0.0346709
-0.0383999
-0.0418732
-0.0455768
-0.0490901
-0.0500462
-0.0537119
-0.0572508
-0.0603985
-0.0632507
-0.0656709
-0.0677658
-0.0693878
-0.0707557
-0.0720114
-0.0732748
-0.0748682
-0.0765685
-0.0780609
-0.0789018
-0.0789715
0
-0.0747273
-0.0757468
-0.0761904
-0.0765057
-0.0767568
-0.0769236
-0.0767671
-0.0766074
-0.0763026
-0.0759367
-0.0755381
-0.0749344
-0.0743785
-0.0738471
-0.0733033
-0.0726965
-0.0719514
-0.0710584
-0.0703604
-0.0696398
-0.0689814
-0.0687212
-0.0680341
-0.0670512
-0.0657814
-0.0640275
-0.0614112
-0.0574982
-0.0517083
0
0
9.28625e-05
-0.0021044
-0.00496799
-0.00862708
-0.0131266
-0.0182467
-0.0237543
-0.0293365
-0.0346622
-0.0394958
-0.043828
-0.0478359
-0.0517406
-0.0557674
0
-0.0592835
-0.0625713
-0.0651944
-0.0678334
-0.0698274
-0.0713549
-0.0726234
-0.0737991
-0.0750073
-0.0764009
-0.0781585
-0.0803489
-0.0823519
-0.0829314
-0.0808984
-0.0772735
-0.0775661
-0.0782569
-0.0788234
-0.0792529
-0.0795772
-0.0797837
-0.0797849
-0.0794869
-0.0790026
-0.0785558
-0.0784572
-0.0774258
-0.0768234
-0.0762905
-0.0757525
-0.0751589
-0.0743842
-0.0733254
-0.0729771
-0.0725349
-0.0719479
-0.0713248
-0.070601
-0.0696923
-0.0684572
-0.0666513
-0.063937
-0.0598684
-0.0538946
0
0
-9.52267e-05
-0.00285374
-0.00627637
-0.0102991
-0.0154904
-0.021117
-0.0270796
-0.0331056
-0.0388879
-0.0429816
-0.0489723
-0.0532698
-0.0571362
-0.0603611
-0.0617879
-0.0648289
-0.0674995
-0.0698202
-0.072943
-0.0744291
-0.0753201
-0.076134
-0.0770196
-0.0780572
-0.0793858
-0.081291
-0.0842067
-0.0873874
-0.0900694
-0.0846244
-0.0815215
-0.0808553
-0.0811173
-0.0815798
-0.0820414
-0.0824643
-0.0827381
-0.0829725
-0.0824847
-0.081668
-0.0807427
-0.0791197
-0.0795166
-0.0792497
-0.0787982
-0.0783064
-0.0777853
-0.0770505
-0.0755262
-0.0758679
-0.0755878
-0.0748984
-0.0740663
-0.0733002
-0.0724127
-0.0711787
-0.0692282
-0.0664797
-0.0622162
-0.0559902
0
0
-0.000253416
-0.00351851
-0.00754861
-0.0125629
-0.0178113
-0.0238152
-0.0302271
-0.0367241
-0.0429816
-0.0487431
-0.0539041
-0.0584534
-0.0624086
-0.0656835
-0.0682449
-0.0706528
-0.072633
-0.0743173
-0.0791651
-0.0792823
-0.0793371
-0.0796987
-0.0802777
-0.0810247
-0.0820247
-0.0836026
-0.0866855
-0.0604929
-0.110835
-0.088074
-0.0836814
-0.0833054
-0.0836899
-0.0842017
-0.0847677
-0.0854686
-0.0864453
-0.086642
-0.0857424
-0.0844852
-0.0833998
-0.0825533
-0.0821983
-0.0818243
-0.0813629
-0.0809043
-0.0804856
-0.0799792
-0.0595344
-0.0791724
-0.0787914
-0.0778808
-0.0766771
-0.0761348
-0.0753015
-0.0741654
-0.0725261
-0.0692338
-0.0645715
-0.0579595
0
0
-0.00038773
-0.00406762
-0.00856846
-0.0138852
-0.0198139
-0.0263323
-0.0332305
-0.0402267
-0.0469805
-0.0531967
-0.0587024
-0.063521
-0.0676946
-0.0712173
-0.0741047
-0.076364
-0.0778503
-0.0783993
-0.166275
-0.0836021
-0.0831288
-0.0832994
-0.0835949
-0.0839148
-0.0841796
-0.0841346
-0.0825907
-0.0739747
-0.0346839
-0.0698519
-0.0801924
-0.0837992
-0.0853759
-0.0863257
-0.087173
-0.0882426
-0.0896848
-0.0908635
-0.0896219
-0.0876336
-0.0862601
-0.085481
-0.0849729
-0.0844903
-0.0839385
-0.0834474
-0.0829532
-0.082403
-0.0817468
-0.0824394
-0.0819467
-0.0811552
-0.0809916
-0.0793917
-0.0783053
-0.0772629
-0.075384
-0.0721246
-0.0669834
-0.0597297
0
0
-0.000534586
-0.00450427
-0.00948741
-0.0152718
-0.0217298
-0.0287206
-0.0361073
-0.0436374
-0.0509182
-0.0575915
-0.063399
-0.0684983
-0.0729596
-0.0767674
-0.0798557
-0.0821752
-0.0838249
-0.0853224
-0.0883176
-0.088079
-0.0876519
-0.0873904
-0.0872094
-0.0869765
-0.0864771
-0.0852388
-0.0822609
-0.0765285
-0.0696247
-0.0765307
-0.0819481
-0.0851102
-0.0869476
-0.0881618
-0.0892239
-0.0906294
-0.0929185
-0.0960994
-0.096019
-0.0914321
-0.0891073
-0.0881359
-0.0875843
-0.0870654
-0.0864122
-0.0859514
-0.0854521
-0.0850345
-0.0851817
-0.0863764
-0.0852344
-0.0841275
-0.0833976
-0.0824586
-0.0808097
-0.080757
-0.0789375
-0.075657
-0.0698059
-0.0611728
0
0
-0.000761054
0.0013536
-0.010388
-0.0167109
-0.0236346
-0.0309051
-0.0388572
-0.0470083
-0.0548698
-0.0620145
-0.0679673
-0.0733532
-0.0781725
-0.0823323
-0.0856479
-0.0880448
-0.089718
-0.0910728
-0.0921363
-0.0922467
-0.0919249
-0.0914745
-0.0909632
-0.0903338
-0.0894224
-0.0879245
-0.0854469
-0.0832679
-0.0833303
-0.0847852
-0.0865232
-0.0880446
-0.0892364
-0.0901668
-0.090983
-0.0921354
-0.0944788
-0.100452
-0.115201
-0.0948213
-0.090694
-0.0899482
-0.0896701
-0.0893387
-0.0864122
-0.0884086
-0.0879569
-0.0875926
-0.0880403
-0.0910085
-0.0883573
-0.0870389
-0.0865783
-0.0867518
-0.0888635
-0.0858272
-0.083591
-0.0806608
-0.0743688
-0.0620973
0
0
-0.000726973
-0.00547633
-0.0113004
-0.0181602
-0.0256708
-0.0334524
-0.04185
-0.0505325
-0.058969
-0.0666096
-0.072251
-0.0780393
-0.0833506
-0.0879945
-0.0915747
-0.0939435
-0.0954361
-0.0965568
-0.0969544
-0.0967615
-0.0962493
-0.0955921
-0.0948478
-0.0940085
-0.0930276
-0.0918571
-0.0905161
-0.0886353
-0.0914388
-0.0909434
-0.0909837
-0.0914411
-0.0919746
-0.0923532
-0.0924276
-0.0921159
-0.0902634
-0.0815634
-0.0417686
-0.0770749
-0.0867356
-0.0898893
-0.0908947
-0.0911141
-0.090964
-0.0907746
-0.0904706
-0.0901107
-0.0902972
-0.145359
-0.0908642
-0.0899629
-0.0899328
-0.0901716
-0.0903977
-0.089621
-0.0893908
-0.0878423
-0.0854742
-0.08152
0
0
-0.000772057
-0.00596215
-0.0121698
-0.0198091
-0.0278757
-0.0350166
-0.0443613
-0.0539331
-0.0631759
-0.0715677
-0.0758097
-0.0826489
-0.0885883
-0.0939426
-0.097768
-0.0998721
-0.100996
-0.102209
-0.102134
-0.101498
-0.100678
-0.0997906
-0.0988575
-0.0979057
-0.0969802
-0.0961474
-0.09511
-0.0931824
-0.158928
-0.0953896
-0.0947455
-0.0948515
-0.0949709
-0.094744
-0.0941622
-0.0926894
-0.0895214
-0.0834418
-0.0760148
-0.0822303
-0.0878712
-0.0907332
-0.0921614
-0.0928568
-0.0931497
-0.0932223
-0.0932313
-0.0933412
-0.0939679
-0.0956695
-0.09426
-0.0935544
-0.0934843
-0.0936446
-0.0937435
-0.0938171
-0.0937428
-0.0926396
-0.0896554
-0.0823804
0
0
-0.000850294
-0.0064071
-0.0128622
-0.0324125
-0.0303599
0
-0.0471007
-0.0575166
-0.0674956
-0.0770932
-0.0143142
-0.0877821
-0.0939423
-0.100502
-0.104287
-0.105634
-0.106173
-0.108271
-0.10734
-0.106198
-0.105109
-0.104035
-0.102931
-0.101873
-0.100981
-0.100557
-0.101558
-0.0990303
-0.100112
-0.0992997
-0.0987588
-0.0985876
-0.0984472
-0.0977862
-0.0966172
-0.0948642
-0.092407
-0.0896895
-0.088602
-0.0897438
-0.0916322
-0.0931312
-0.0941925
-0.0950126
-0.0955399
-0.0957966
-0.0960524
-0.0963735
-0.0967925
-0.0971227
-0.0968809
-0.0967628
-0.0969429
-0.0972149
-0.0973448
-0.0974877
-0.0971389
-0.0955931
-0.0918981
-0.0838723
0
0
-0.000948979
-0.0069084
-0.0139281
-0.0223527
-0.0312125
-0.0396417
-0.0500188
-0.0607527
-0.0711323
-0.0802123
-0.0859993
-0.0928659
-0.098485
-0.108817
-0.110033
-0.11067
-0.110631
-0.16002
-0.112067
-0.110694
-0.10954
-0.108341
-0.107014
-0.105763
-0.104576
-0.103047
-0.0981231
-0.101295
-0.102331
-0.102344
-0.102216
-0.102254
-0.102324
-0.101454
-0.0998819
-0.0982004
-0.0965133
-0.0952707
-0.0950121
-0.0952714
-0.0958002
-0.0963255
-0.0966411
-0.0976365
-0.0982551
-0.0984954
-0.0988821
-0.0992572
-0.0994998
-0.099464
-0.0993622
-0.0996569
-0.10022
-0.100714
-0.100726
-0.10073
-0.0999383
-0.0978192
-0.0938949
-0.0856923
0
0
-0.00104587
-0.00738235
-0.014808
-0.023329
-0.0325936
-0.0423589
-0.0529897
-0.0641606
-0.0751444
-0.0849739
-0.092117
-0.0986352
-0.104038
-0.217016
-0.115029
-0.115727
-0.116559
-0.117804
-0.116887
-0.115604
-0.114264
-0.112835
-0.111087
-0.109636
-0.108347
-0.106937
-0.105412
-0.105453
-0.10546
-0.105379
-0.105394
-0.10578
-0.106665
-0.106351
-0.103756
-0.102086
-0.100621
-0.0998033
-0.0995413
-0.0995387
-0.0996667
-0.0999894
-0.101193
-0.10086
-0.101257
-0.101307
-0.101806
-0.102191
-0.102341
-0.10203
-0.101661
-0.10241
-0.103372
-0.104105
-0.103945
-0.103841
-0.102482
-0.0996313
-0.0959112
-0.0877165
0
0
-0.00114061
-0.007844
-0.0156585
-0.0245331
-0.0342821
-0.0446781
-0.0556079
-0.0675282
-0.0794072
-0.0918559
-0.0976857
-0.104671
-0.111308
-0.118404
-0.120717
-0.12178
-0.12236
-0.122493
-0.121705
-0.120458
-0.119045
-0.117456
-0.114948
-0.113494
-0.112365
-0.111241
-0.110253
-0.109485
-0.108843
-0.108432
-0.108249
-0.108652
-0.110707
-0.116314
-0.107378
-0.106367
-0.104125
-0.10343
-0.103201
-0.103119
-0.103076
-0.103072
-0.103375
-0.103555
-0.103737
-0.104651
-0.104964
-0.105253
-0.105359
-0.104591
-0.103111
-0.105554
-0.10647
-0.106774
-0.107805
-0.107176
-0.105015
-0.10085
-0.0980183
-0.0898966
0
0
-0.00124046
-0.00832288
-0.0165618
-0.0259086
-0.0361979
-0.0470036
-0.0573391
-0.0705788
-0.0815828
-0.0870614
-0.100607
-0.109974
-0.117186
-0.122708
-0.125919
-0.127372
-0.127626
-0.127724
-0.126741
-0.125356
-0.123898
-0.122312
-0.118223
-0.117408
-0.116553
-0.115481
-0.11436
-0.112947
-0.112221
-0.111326
-0.110408
-0.109233
-0.105422
-0.0865893
-0.10104
-0.101781
-0.105146
-0.106008
-0.10621
-0.106247
-0.106114
-0.105742
-0.105932
-0.106367
-0.106837
-0.107422
-0.107852
-0.108248
-0.108558
-0.107585
-0.104062
-0.108922
-0.109857
-0.110259
-0.110714
-0.110312
-0.107784
-0.101052
-0.100502
-0.0921828
0
0
-0.00134947
-0.00883147
-0.0175393
-0.0274568
-0.0385135
-0.0506891
-0.0653709
-0.0751726
-0.0858633
-0.095889
-0.106584
-0.115694
-0.122918
-0.1282
-0.131629
-0.133543
-0.135042
-0.133463
-0.131883
-0.130247
-0.128727
-0.127482
-0.0670147
-0.121814
-0.120925
-0.119562
-0.118225
-0.109485
-0.115416
-0.114096
-0.112189
-0.110883
-0.107707
-0.103572
-0.105333
-0.106492
-0.107807
-0.108573
-0.10898
-0.109176
-0.108998
-0.108018
-0.108503
-0.109222
-0.109803
-0.110269
-0.110658
-0.111018
-0.111347
-0.111607
-0.036063
-0.128601
-0.113054
-0.113305
-0.113588
-0.113443
-0.111408
-0.0247365
-0.103889
-0.0944762
0
0
-0.00146471
-0.00935869
-0.0185606
-0.0290755
-0.0408294
-0.0536625
-0.0670863
-0.0785236
-0.0904578
-0.102077
-0.112742
-0.121797
-0.128969
-0.134209
-0.137657
-0.139487
-0.139782
-0.138605
-0.136859
-0.134938
-0.133005
-0.130833
-0.127562
-0.126072
-0.124761
-0.123119
-0.121525
-0.119928
-0.118708
-0.117636
-0.11769
-0.114578
-0.112263
-0.110851
-0.110558
-0.110744
-0.11113
-0.111519
-0.111871
-0.112163
-0.112008
-0.10972
-0.111176
-0.112171
-0.11273
-0.113095
-0.113394
-0.113649
-0.113781
-0.113456
-0.111863
-0.11458
-0.115494
-0.115923
-0.116049
-0.115545
-0.113463
-0.108578
-0.105633
-0.096652
0
0
-0.00157631
-0.00987651
-0.0195865
-0.030725
-0.043162
-0.0566681
-0.0706684
-0.0813692
-0.0949836
-0.10774
-0.118872
-0.128073
-0.135265
-0.140452
-0.143841
-0.145455
-0.145101
-0.143612
-0.141612
-0.139455
-0.137375
-0.135101
-0.132477
-0.13058
-0.128768
-0.12654
-0.124781
-0.123288
-0.121977
-0.120782
-0.119611
-0.117902
-0.116377
-0.115366
-0.114759
-0.114488
-0.114447
-0.11456
-0.114795
-0.115146
-0.115311
-0.070663
-0.114322
-0.115205
-0.115569
-0.115824
-0.116047
-0.116237
-0.11635
-0.116349
-0.116446
-0.117267
-0.117995
-0.118451
-0.118554
-0.11808
-0.116505
-0.11352
-0.108531
-0.0988995
0
0
-0.00166375
-0.010334
-0.0205762
-0.0324125
-0.0455696
-0.0598958
-0.0753139
-0.0195082
-0.100161
-0.113733
-0.12512
-0.134469
-0.141683
-0.146781
-0.150098
-0.151631
-0.150451
-0.148497
-0.146221
-0.143881
-0.141899
-0.139419
-0.136841
-0.134505
-0.13245
-0.129692
-0.128039
-0.126562
-0.125165
-0.123816
-0.122454
-0.121088
-0.119869
-0.11891
-0.118205
-0.11775
-0.117516
-0.117458
-0.117521
-0.117585
-0.117323
-0.116127
-0.117012
-0.117709
-0.118129
-0.118402
-0.118624
-0.118827
-0.119024
-0.119279
-0.119691
-0.1202
-0.120744
-0.121172
-0.12134
-0.121133
-0.120464
-0.117196
-0.111519
-0.101267
0
0
-0.00168506
-0.0106294
-0.0215153
-0.034193
-0.047999
-0.0627438
-0.0777293
-0.090863
-0.105712
-0.119427
-0.131224
-0.140845
-0.148165
-0.153114
-0.156114
-0.158042
-0.155451
-0.153243
-0.150838
-0.148297
-0.14674
-0.143703
-0.140746
-0.137873
-0.134694
-0.133472
-0.131613
-0.129876
-0.12829
-0.126817
-0.12542
-0.124122
-0.122957
-0.121956
-0.12117
-0.120626
-0.120305
-0.120161
-0.12013
-0.120105
-0.119968
-0.119778
-0.120016
-0.120395
-0.120718
-0.120946
-0.121159
-0.121385
-0.121637
-0.122009
-0.122516
-0.12306
-0.123604
-0.124061
-0.124262
-0.124053
-0.123081
-0.120222
-0.114349
-0.103721
0
0
-0.00157668
-0.0105099
-0.0227673
-0.0360714
-0.050607
-0.0659643
-0.0815814
-0.0968313
-0.11183
-0.12568
-0.137696
-0.147496
-0.154921
-0.160091
-0.16418
-0.164613
-0.16002
-0.158339
-0.156023
-0.152916
-0.173794
-0.147709
-0.144395
-0.141415
-0.138156
-0.136162
-0.13442
-0.132755
-0.131165
-0.129659
-0.128249
-0.126945
-0.125741
-0.124635
-0.123763
-0.123177
-0.122837
-0.122681
-0.122658
-0.122684
-0.122695
-0.122683
-0.122847
-0.123145
-0.123388
-0.123502
-0.12367
-0.123888
-0.124118
-0.124559
-0.125183
-0.125849
-0.126492
-0.127035
-0.127209
-0.126892
-0.125862
-0.123083
-0.117143
-0.10622
0
0
-0.00142334
-0.00892801
-0.0242228
-0.0386375
-0.0538628
-0.0698812
-0.0863137
-0.102563
-0.118081
-0.132256
-0.144505
-0.154418
-0.161779
-0.166494
-0.168117
-0.16549
-0.168359
-0.165692
-0.162011
-0.158239
-0.155091
-0.15142
-0.148026
-0.144952
-0.140765
-0.138878
-0.137183
-0.135503
-0.133871
-0.132325
-0.130887
-0.129552
-0.128265
-0.126958
-0.126001
-0.125429
-0.12513
-0.125014
-0.12506
-0.125185
-0.125303
-0.125234
-0.125478
-0.125901
-0.12613
-0.126047
-0.126168
-0.126362
-0.126449
-0.126961
-0.127774
-0.128601
-0.129379
-0.130067
-0.130148
-0.129685