# vtk DataFile Version 2.0
FlowField
ASCII
DATASET STRUCTURED_GRID
DIMENSIONS 62 47 32 
POINTS 93248 double
0 0 0
0.01 0 0
0.02 0 0
0.03 0 0
0.04 0 0
0.05 0 0
0.06 0 0
0.07 0 0
0.08 0 0
0.09 0 0
0.1 0 0
0.11 0 0
0.12 0 0
0.13 0 0
0.14 0 0
0.15 0 0
0.16 0 0
0.17 0 0
0.18 0 0
0.19 0 0
0.2 0 0
0.21 0 0
0.22 0 0
0.23 0 0
0.24 0 0
0.25 0 0
0.26 0 0
0.27 0 0
0.28 0 0
0.29 0 0
0.3 0 0
0.31 0 0
0.32 0 0
0.33 0 0
0.34 0 0
0.35 0 0
0.36 0 0
0.37 0 0
0.38 0 0
0.39 0 0
0.4 0 0
0.41 0 0
0.42 0 0
0.43 0 0
0.44 0 0
0.45 0 0
0.46 0 0
0.47 0 0
0.48 0 0
0.49 0 0
0.5 0 0
0.51 0 0
0.52 0 0
0.53 0 0
0.54 0 0
0.55 0 0
0.56 0 0
0.57 0 0
0.58 0 0
0.59 0 0
0.6 0 0
0.61 0 0
0 0.01 0
0.01 0.01 0
0.02 0.01 0
0.03 0.01 0
0.04 0.01 0
0.05 0.01 0
0.06 0.01 0
0.07 0.01 0
0.08 0.01 0
0.09 0.01 0
0.1 0.01 0
0.11 0.01 0
0.12 0.01 0
0.13 0.01 0
0.14 0.01 0
0.15 0.01 0
0.16 0.01 0
0.17 0.01 0
0.18 0.01 0
0.19 0.01 0
0.2 0.01 0
0.21 0.01 0
0.22 0.01 0
0.23 0.01 0
0.24 0.01 0
0.25 0.01 0
0.26 0.01 0
0.27 0.01 0
0.28 0.01 0
0.29 0.01 0
0.3 0.01 0
0.31 0.01 0
0.32 0.01 0
0.33 0.01 0
0.34 0.01 0
0.35 0.01 0
0.36 0.01 0
0.37 0.01 0
0.38 0.01 0
0.39 0.01 0
0.4 0.01 0
0.41 0.01 0
0.42 0.01 0
0.43 0.01 0
0.44 0.01 0
0.45 0.01 0
0.46 0.01 0
0.47 0.01 0
0.48 0.01 0
0.49 0.01 0
0.5 0.01 0
0.51 0.01 0
0.52 0.01 0
0.53 0.01 0
0.54 0.01 0
0.55 0.01 0
0.56 0.01 0
0.57 0.01 0
0.58 0.01 0
0.59 0.01 0
0.6 0.01 0
0.61 0.01 0
0 0.02 0
0.01 0.02 0
0.02 0.02 0
0.03 0.02 0
0.04 0.02 0
0.05 0.02 0
0.06 0.02 0
0.07 0.02 0
0.08 0.02 0
0.09 0.02 0
0.1 0.02 0
0.11 0.02 0
0.12 0.02 0
0.13 0.02 0
0.14 0.02 0
0.15 0.02 0
0.16 0.02 0
0.17 0.02 0
0.18 0.02 0
0.19 0.02 0
0.2 0.02 0
0.21 0.02 0
0.22 0.02 0
0.23 0.02 0
0.24 0.02 0
0.25 0.02 0
0.26 0.02 0
0.27 0.02 0
0.28 0.02 0
0.29 0.02 0
0.3 0.02 0
0.31 0.02 0
0.32 0.02 0
0.33 0.02 0
0.34 0.02 0
0.35 0.02 0
0.36 0.02 0
0.37 0.02 0
0.38 0.02 0
0.39 0.02 0
0.4 0.02 0
0.41 0.02 0
0.42 0.02 0
0.43 0.02 0
0.44 0.02 0
0.45 0.02 0
0.46 0.02 0
0.47 0.02 0
0.48 0.02 0
0.49 0.02 0
0.5 0.02 0
0.51 0.02 0
0.52 0.02 0
0.53 0.02 0
0.54 0.02 0
0.55 0.02 0
0.56 0.02 0
0.57 0.02 0
0.58 0.02 0
0.59 0.02 0
0.6 0.02 0
0.61 0.02 0
0 0.03 0
0.01 0.03 0
0.02 0.03 0
0.03 0.03 0
0.04 0.03 0
0.05 0.03 0
0.06 0.03 0
0.07 0.03 0
0.08 0.03 0
0.09 0.03 0
0.1 0.03 0
0.11 0.03 0
0.12 0.03 0
0.13 0.03 0
0.14 0.03 0
0.15 0.03 0
0.16 0.03 0
0.17 0.03 0
0.18 0.03 0
0.19 0.03 0
0.2 0.03 0
0.21 0.03 0
0.22 0.03 0
0.23 0.03 0
0.24 0.03 0
0.25 0.03 0
0.26 0.03 0
0.27 0.03 0
0.28 0.03 0
0.29 0.03 0
0.3 0.03 0
0.31 0.03 0
0.32 0.03 0
0.33 0.03 0
0.34 0.03 0
0.35 0.03 0
0.36 0.03 0
0.37 0.03 0
0.38 0.03 0
0.39 0.03 0
0.4 0.03 0
0.41 0.03 0
0.42 0.03 0
0.43 0.03 0
0.44 0.03 0
0.45 0.03 0
0.46 0.03 0
0.47 0.03 0
0.48 0.03 0
0.49 0.03 0
0.5 0.03 0
0.51 0.03 0
0.52 0.03 0
0.53 0.03 0
0.54 0.03 0
0.55 0.03 0
0.56 0.03 0
0.57 0.03 0
0.58 0.03 0
0.59 0.03 0
0.6 0.03 0
0.61 0.03 0
0 0.04 0
0.01 0.04 0
0.02 0.04 0
0.03 0.04 0
0.04 0.04 0
0.05 0.04 0
0.06 0.04 0
0.07 0.04 0
0.08 0.04 0
0.09 0.04 0
0.1 0.04 0
0.11 0.04 0
0.12 0.04 0
0.13 0.04 0
0.14 0.04 0
0.15 0.04 0
0.16 0.04 0
0.17 0.04 0
0.18 0.04 0
0.19 0.04 0
0.2 0.04 0
0.21 0.04 0
0.22 0.04 0
0.23 0.04 0
0.24 0.04 0
0.25 0.04 0
0.26 0.04 0
0.27 0.04 0
0.28 0.04 0
0.29 0.04 0
0.3 0.04 0
0.31 0.04 0
0.32 0.04 0
0.33 0.04 0
0.34 0.04 0
0.35 0.04 0
0.36 0.04 0
0.37 0.04 0
0.38 0.04 0
0.39 0.04 0
0.4 0.04 0
0.41 0.04 0
0.42 0.04 0
0.43 0.04 0
0.44 0.04 0
0.45 0.04 0
0.46 0.04 0
0.47 0.04 0
0.48 0.04 0
0.49 0.04 0
0.5 0.04 0
0.51 0.04 0
0.52 0.04 0
0.53 0.04 0
0.54 0.04 0
0.55 0.04 0
0.56 0.04 0
0.57 0.04 0
0.58 0.04 0
0.59 0.04 0
0.6 0.04 0
0.61 0.04 0
0 0.05 0
0.01 0.05 0
0.02 0.05 0
0.03 0.05 0
0.04 0.05 0
0.05 0.05 0
0.06 0.05 0
0.07 0.05 0
0.08 0.05 0
0.09 0.05 0
0.1 0.05 0
0.11 0.05 0
0.12 0.05 0
0.13 0.05 0
0.14 0.05 0
0.15 0.05 0
0.16 0.05 0
0.17 0.05 0
0.18 0.05 0
0.19 0.05 0
0.2 0.05 0
0.21 0.05 0
0.22 0.05 0
0.23 0.05 0
0.24 0.05 0
0.25 0.05 0
0.26 0.05 0
0.27 0.05 0
0.28 0.05 0
0.29 0.05 0
0.3 0.05 0
0.31 0.05 0
0.32 0.05 0
0.33 0.05 0
0.34 0.05 0
0.35 0.05 0
0.36 0.05 0
0.37 0.05 0
0.38 0.05 0
0.39 0.05 0
0.4 0.05 0
0.41 0.05 0
0.42 0.05 0
0.43 0.05 0
0.44 0.05 0
0.45 0.05 0
0.46 0.05 0
0.47 0.05 0
0.48 0.05 0
0.49 0.05 0
0.5 0.05 0
0.51 0.05 0
0.52 0.05 0
0.53 0.05 0
0.54 0.05 0
0.55 0.05 0
0.56 0.05 0
0.57 0.05 0
0.58 0.05 0
0.59 0.05 0
0.6 0.05 0
0.61 0.05 0
0 0.06 0
0.01 0.06 0
0.02 0.06 0
0.03 0.06 0
0.04 0.06 0
0.05 0.06 0
0.06 0.06 0
0.07 0.06 0
0.08 0.06 0
0.09 0.06 0
0.1 0.06 0
0.11 0.06 0
0.12 0.06 0
0.13 0.06 0
0.14 0.06 0
0.15 0.06 0
0.16 0.06 0
0.17 0.06 0
0.18 0.06 0
0.19 0.06 0
0.2 0.06 0
0.21 0.06 0
0.22 0.06 0
0.23 0.06 0
0.24 0.06 0
0.25 0.06 0
0.26 0.06 0
0.27 0.06 0
0.28 0.06 0
0.29 0.06 0
0.3 0.06 0
0.31 0.06 0
0.32 0.06 0
0.33 0.06 0
0.34 0.06 0
0.35 0.06 0
0.36 0.06 0
0.37 0.06 0
0.38 0.06 0
0.39 0.06 0
0.4 0.06 0
0.41 0.06 0
0.42 0.06 0
0.43 0.06 0
0.44 0.06 0
0.45 0.06 0
0.46 0.06 0
0.47 0.06 0
0.48 0.06 0
0.49 0.06 0
0.5 0.06 0
0.51 0.06 0
0.52 0.06 0
0.53 0.06 0
0.54 0.06 0
0.55 0.06 0
0.56 0.06 0
0.57 0.06 0
0.58 0.06 0
0.59 0.06 0
0.6 0.06 0
0.61 0.06 0
0 0.07 0
0.01 0.07 0
0.02 0.07 0
0.03 0.07 0
0.04 0.07 0
0.05 0.07 0
0.06 0.07 0
0.07 0.07 0
0.08 0.07 0
0.09 0.07 0
0.1 0.07 0
0.11 0.07 0
0.12 0.07 0
0.13 0.07 0
0.14 0.07 0
0.15 0.07 0
0.16 0.07 0
0.17 0.07 0
0.18 0.07 0
0.19 0.07 0
0.2 0.07 0
0.21 0.07 0
0.22 0.07 0
0.23 0.07 0
0.24 0.07 0
0.25 0.07 0
0.26 0.07 0
0.27 0.07 0
0.28 0.07 0
0.29 0.07 0
0.3 0.07 0
0.31 0.07 0
0.32 0.07 0
0.33 0.07 0
0.34 0.07 0
0.35 0.07 0
0.36 0.07 0
0.37 0.07 0
0.38 0.07 0
0.39 0.07 0
0.4 0.07 0
0.41 0.07 0
0.42 0.07 0
0.43 0.07 0
0.44 0.07 0
0.45 0.07 0
0.46 0.07 0
0.47 0.07 0
0.48 0.07 0
0.49 0.07 0
0.5 0.07 0
0.51 0.07 0
0.52 0.07 0
0.53 0.07 0
0.54 0.07 0
0.55 0.07 0
0.56 0.07 0
0.57 0.07 0
0.58 0.07 0
0.59 0.07 0
0.6 0.07 0
0.61 0.07 0
0 0.08 0
0.01 0.08 0
0.02 0.08 0
0.03 0.08 0
0.04 0.08 0
0.05 0.08 0
0.06 0.08 0
0.07 0.08 0
0.08 0.08 0
0.09 0.08 0
0.1 0.08 0
0.11 0.08 0
0.12 0.08 0
0.13 0.08 0
0.14 0.08 0
0.15 0.08 0
0.16 0.08 0
0.17 0.08 0
0.18 0.08 0
0.19 0.08 0
0.2 0.08 0
0.21 0.08 0
0.22 0.08 0
0.23 0.08 0
0.24 0.08 0
0.25 0.08 0
0.26 0.08 0
0.27 0.08 0
0.28 0.08 0
0.29 0.08 0
0.3 0.08 0
0.31 0.08 0
0.32 0.08 0
0.33 0.08 0
0.34 0.08 0
0.35 0.08 0
0.36 0.08 0
0.37 0.08 0
0.38 0.08 0
0.39 0.08 0
0.4 0.08 0
0.41 0.08 0
0.42 0.08 0
0.43 0.08 0
0.44 0.08 0
0.45 0.08 0
0.46 0.08 0
0.47 0.08 0
0.48 0.08 0
0.49 0.08 0
0.5 0.08 0
0.51 0.08 0
0.52 0.08 0
0.53 0.08 0
0.54 0.08 0
0.55 0.08 0
0.56 0.08 0
0.57 0.08 0
0.58 0.08 0
0.59 0.08 0
0.6 0.08 0
0.61 0.08 0
0 0.09 0
0.01 0.09 0
0.02 0.09 0
0.03 0.09 0
0.04 0.09 0
0.05 0.09 0
0.06 0.09 0
0.07 0.09 0
0.08 0.09 0
0.09 0.09 0
0.1 0.09 0
0.11 0.09 0
0.12 0.09 0
0.13 0.09 0
0.14 0.09 0
0.15 0.09 0
0.16 0.09 0
0.17 0.09 0
0.18 0.09 0
0.19 0.09 0
0.2 0.09 0
0.21 0.09 0
0.22 0.09 0
0.23 0.09 0
0.24 0.09 0
0.25 0.09 0
0.26 0.09 0
0.27 0.09 0
0.28 0.09 0
0.29 0.09 0
0.3 0.09 0
0.31 0.09 0
0.32 0.09 0
0.33 0.09 0
0.34 0.09 0
0.35 0.09 0
0.36 0.09 0
0.37 0.09 0
0.38 0.09 0
0.39 0.09 0
0.4 0.09 0
0.41 0.09 0
0.42 0.09 0
0.43 0.09 0
0.44 0.09 0
0.45 0.09 0
0.46 0.09 0
0.47 0.09 0
0.48 0.09 0
0.49 0.09 0
0.5 0.09 0
0.51 0.09 0
0.52 0.09 0
0.53 0.09 0
0.54 0.09 0
0.55 0.09 0
0.56 0.09 0
0.57 0.09 0
0.58 0.09 0
0.59 0.09 0
0.6 0.09 0
0.61 0.09 0
0 0.1 0
0.01 0.1 0
0.02 0.1 0
0.03 0.1 0
0.04 0.1 0
0.05 0.1 0
0.06 0.1 0
0.07 0.1 0
0.08 0.1 0
0.09 0.1 0
0.1 0.1 0
0.11 0.1 0
0.12 0.1 0
0.13 0.1 0
0.14 0.1 0
0.15 0.1 0
0.16 0.1 0
0.17 0.1 0
0.18 0.1 0
0.19 0.1 0
0.2 0.1 0
0.21 0.1 0
0.22 0.1 0
0.23 0.1 0
0.24 0.1 0
0.25 0.1 0
0.26 0.1 0
0.27 0.1 0
0.28 0.1 0
0.29 0.1 0
0.3 0.1 0
0.31 0.1 0
0.32 0.1 0
0.33 0.1 0
0.34 0.1 0
0.35 0.1 0
0.36 0.1 0
0.37 0.1 0
0.38 0.1 0
0.39 0.1 0
0.4 0.1 0
0.41 0.1 0
0.42 0.1 0
0.43 0.1 0
0.44 0.1 0
0.45 0.1 0
0.46 0.1 0
0.47 0.1 0
0.48 0.1 0
0.49 0.1 0
0.5 0.1 0
0.51 0.1 0
0.52 0.1 0
0.53 0.1 0
0.54 0.1 0
0.55 0.1 0
0.56 0.1 0
0.57 0.1 0
0.58 0.1 0
0.59 0.1 0
0.6 0.1 0
0.61 0.1 0
0 0.11 0
0.01 0.11 0
0.02 0.11 0
0.03 0.11 0
0.04 0.11 0
0.05 0.11 0
0.06 0.11 0
0.07 0.11 0
0.08 0.11 0
0.09 0.11 0
0.1 0.11 0
0.11 0.11 0
0.12 0.11 0
0.13 0.11 0
0.14 0.11 0
0.15 0.11 0
0.16 0.11 0
0.17 0.11 0
0.18 0.11 0
0.19 0.11 0
0.2 0.11 0
0.21 0.11 0
0.22 0.11 0
0.23 0.11 0
0.24 0.11 0
0.25 0.11 0
0.26 0.11 0
0.27 0.11 0
0.28 0.11 0
0.29 0.11 0
0.3 0.11 0
0.31 0.11 0
0.32 0.11 0
0.33 0.11 0
0.34 0.11 0
0.35 0.11 0
0.36 0.11 0
0.37 0.11 0
0.38 0.11 0
0.39 0.11 0
0.4 0.11 0
0.41 0.11 0
0.42 0.11 0
0.43 0.11 0
0.44 0.11 0
0.45 0.11 0
0.46 0.11 0
0.47 0.11 0
0.48 0.11 0
0.49 0.11 0
0.5 0.11 0
0.51 0.11 0
0.52 0.11 0
0.53 0.11 0
0.54 0.11 0
0.55 0.11 0
0.56 0.11 0
0.57 0.11 0
0.58 0.11 0
0.59 0.11 0
0.6 0.11 0
0.61 0.11 0
0 0.12 0
0.01 0.12 0
0.02 0.12 0
0.03 0.12 0
0.04 0.12 0
0.05 0.12 0
0.06 0.12 0
0.07 0.12 0
0.08 0.12 0
0.09 0.12 0
0.1 0.12 0
0.11 0.12 0
0.12 0.12 0
0.13 0.12 0
0.14 0.12 0
0.15 0.12 0
0.16 0.12 0
0.17 0.12 0
0.18 0.12 0
0.19 0.12 0
0.2 0.12 0
0.21 0.12 0
0.22 0.12 0
0.23 0.12 0
0.24 0.12 0
0.25 0.12 0
0.26 0.12 0
0.27 0.12 0
0.28 0.12 0
0.29 0.12 0
0.3 0.12 0
0.31 0.12 0
0.32 0.12 0
0.33 0.12 0
0.34 0.12 0
0.35 0.12 0
0.36 0.12 0
0.37 0.12 0
0.38 0.12 0
0.39 0.12 0
0.4 0.12 0
0.41 0.12 0
0.42 0.12 0
0.43 0.12 0
0.44 0.12 0
0.45 0.12 0
0.46 0.12 0
0.47 0.12 0
0.48 0.12 0
0.49 0.12 0
0.5 0.12 0
0.51 0.12 0
0.52 0.12 0
0.53 0.12 0
0.54 0.12 0
0.55 0.12 0
0.56 0.12 0
0.57 0.12 0
0.58 0.12 0
0.59 0.12 0
0.6 0.12 0
0.61 0.12 0
0 0.13 0
0.01 0.13 0
0.02 0.13 0
0.03 0.13 0
0.04 0.13 0
0.05 0.13 0
0.06 0.13 0
0.07 0.13 0
0.08 0.13 0
0.09 0.13 0
0.1 0.13 0
0.11 0.13 0
0.12 0.13 0
0.13 0.13 0
0.14 0.13 0
0.15 0.13 0
0.16 0.13 0
0.17 0.13 0
0.18 0.13 0
0.19 0.13 0
0.2 0.13 0
0.21 0.13 0
0.22 0.13 0
0.23 0.13 0
0.24 0.13 0
0.25 0.13 0
0.26 0.13 0
0.27 0.13 0
0.28 0.13 0
0.29 0.13 0
0.3 0.13 0
0.31 0.13 0
0.32 0.13 0
0.33 0.13 0
0.34 0.13 0
0.35 0.13 0
0.36 0.13 0
0.37 0.13 0
0.38 0.13 0
0.39 0.13 0
0.4 0.13 0
0.41 0.13 0
0.42 0.13 0
0.43 0.13 0
0.44 0.13 0
0.45 0.13 0
0.46 0.13 0
0.47 0.13 0
0.48 0.13 0
[...]
POINT_DATA 93248

SCALARS w double
LOOKUP_TABLE default
0
0
0
0
0
0
0
0
0
0
0
0
0
-0.00734863
0
0
0
0
0
0
0
0
0
0
0
0
-0.00757324
0
0
0
0
0
-0.00746894
0
0
0
0
0
0
0
0
0
0
0
0
0
-0.00750637
0
0
0
0
0
0
0
0
0
0
0
0
0
0
0
0
-0.00346566
-0.00154601
-0.00958197
-0.0118525
-0.0127756
-0.0132965
-0.0134094
-0.0135139
-0.0135866
-0.0136353
-0.013667
-0.013686
-0.0137065
-0.0137198
-0.0137283
-0.0137372
-0.0137438
-0.0137414
-0.0137367
-0.0137294
-0.0137331
-0.0137337
-0.0137325
-0.0137304
-0.0137279
-0.0137252
-0.0137223
-0.0137192
-0.0137157
-0.0137116
-0.0137061
-0.0136978
-0.0136939
-0.0136791
-0.0136337
-0.013548
-0.0133867
-0.0131461
-0.0142363
-0.0139918
-0.0138155
-0.013746
-0.0137162
-0.0137034
-0.0143927
-0.0136322
-0.0136604
-0.0136644
-0.0136596
-0.0136323
-0.0135196
-0.0138242
-0.0137114
-0.0143792
-0.013705
-0.0137965
-0.0135041
-0.0136232
-0.0135767
-0.013078
0
0
-0.00234688
-0.00178831
-0.0102982
-0.0127658
-0.0137547
-0.0141352
-0.0144688
-0.0146244
-0.0147146
-0.0147719
-0.014807
-0.0148119
-0.0148528
-0.0148693
-0.0148752
-0.0148936
-0.0149132
-0.0148993
-0.014889
-0.0148579
-0.0148843
-0.014527
-0.0148858
-0.0148835
-0.0148807
-0.0148778
-0.0148746
-0.0148712
-0.0148675
-0.0148632
-0.0148564
-0.0148344
-0.0148506
-0.0148481
-0.0147658
-0.0146666
-0.0142145
-0.0120961
-0.0175839
-0.0154654
-0.0150203
-0.0149008
-0.0148675
-0.0148658
-0.0148841
-0.0148171
-0.0148076
-0.0148131
-0.0148113
-0.0148035
-0.0143891
-0.014844
-0.0148343
-0.0148374
-0.0148347
-0.0148549
-0.014766
-0.0147927
-0.0147258
-0.0141257
0
0
-0.00221723
-0.00162616
-0.010117
-0.0125692
-0.0127756
-0.01401
-0.0142696
-0.0144179
-0.0145078
-0.0145667
-0.0146084
-0.0146576
-0.0146548
-0.0146658
-0.0146828
-0.0146978
-0.0147919
-0.0147031
-0.0146932
-0.0147177
-0.0146881
-0.0146817
-0.0146787
-0.014676
-0.0146731
-0.0146701
-0.0146669
-0.0146636
-0.0146602
-0.0146572
-0.0146571
-0.0146751
-0.0144944
-0.0147575
-0.0144672
-0.014512
-0.0143916
-0.014168
-0.0150954
-0.0148684
-0.0147303
-0.0146743
-0.0146593
-0.0146915
-0.0148924
-0.0143708
-0.0145642
-0.0146
-0.0146057
-0.0146048
-0.0146044
-0.0146143
-0.0146146
-0.0146151
-0.0146151
-0.0146191
-0.0146242
-0.0146025
-0.0145232
-0.0139348
0
0
-0.00213847
-0.00153243
-0.00141317
-0.0124699
-0.0134618
-0.0139238
-0.0141699
-0.0143163
-0.0144036
-0.0144608
-0.0145008
-0.0145313
-0.0145465
-0.0145579
-0.0145645
-0.0145544
-0.0144665
-0.0145602
-0.0145778
-0.0145843
-0.0145792
-0.0145757
-0.014573
-0.0145703
-0.0145674
-0.0145644
-0.0145612
-0.0145579
-0.0145546
-0.0145515
-0.0145492
-0.0145493
-0.014546
-0.0145478
-0.0144895
-0.0144773
-0.0144491
-0.0144494
-0.0146136
-0.014602
-0.0145688
-0.0145479
-0.0145404
-0.0145479
-0.0145716
-0.0144953
-0.0144984
-0.0145022
-0.0145029
-0.0145023
-0.0145023
-0.0145042
-0.0145047
-0.0145048
-0.0145046
-0.0145046
-0.0145038
-0.0144981
-0.0144194
-0.0138364
0
0
-0.00210246
-0.00148881
-0.00997595
-0.012427
-0.0134219
-0.0138881
-0.014123
-0.0142823
-0.0143589
-0.0144127
-0.0144512
-0.0144787
-0.0144967
-0.0145088
-0.0137908
-0.0145149
-0.0145035
-0.0145206
-0.0145281
-0.0145305
-0.0145291
-0.014527
-0.0145246
-0.014522
-0.0145191
-0.0145161
-0.014513
-0.0145097
-0.0145064
-0.0145029
-0.0144992
-0.0144944
-0.0144858
-0.0144846
-0.0144703
-0.014462
-0.014455
-0.0144599
-0.0144969
-0.0145015
-0.0144939
-0.0144861
-0.0144817
-0.0144825
-0.014495
-0.0145672
-0.0144734
-0.014459
-0.0144561
-0.0144549
-0.0144543
-0.0144547
-0.0144554
-0.0144555
-0.0144549
-0.0144541
-0.0144525
-0.0144494
-0.0143717
-0.0137917
0
0
-0.00208351
-0.00146612
-0.00995377
-0.0124081
-0.0134132
-0.0139015
-0.0140719
-0.0143307
-0.0143386
-0.0143864
-0.0144249
-0.0144523
-0.0144711
-0.0144836
-0.0144914
-0.0144953
-0.0144961
-0.0144526
-0.0145034
-0.0145042
-0.0145033
-0.0145015
-0.0144993
-0.0144968
-0.014494
-0.014491
-0.0144878
-0.0144847
-0.0144814
-0.0144779
-0.0144733
-0.014465
-0.0144326
-0.0144563
-0.0144544
-0.0144502
-0.0144475
-0.0144494
-0.0144576
-0.0144595
-0.0144571
-0.0144533
-0.0144492
-0.0144435
-0.0144249
-0.0143268
-0.0144154
-0.0144287
-0.0144298
-0.0144287
-0.0144278
-0.0144284
-0.014431
-0.0144315
-0.0144306
-0.0144289
-0.0144264
-0.014422
-0.0143464
-0.0137687
0
0
-0.00207224
-0.0014528
-0.00994109
-0.0124004
-0.0134342
-0.0141018
-0.0137983
-0.0140537
-0.0142794
-0.0143633
-0.0144084
-0.0144372
-0.0144568
-0.0144694
-0.0144778
-0.0144829
-0.0144858
-0.0144882
-0.0144895
-0.0144894
-0.0144883
-0.0144867
-0.0144846
-0.0144821
-0.0144794
-0.0144763
-0.0144733
-0.0144703
-0.0144675
-0.0144643
-0.0144602
-0.0144612
-0.0144863
-0.0144542
-0.0144455
-0.0144414
-0.0144389
-0.0144384
-0.0144394
-0.0144391
-0.0144374
-0.0144349
-0.014431
-0.0144265
-0.0144173
-0.0143988
-0.014411
-0.0144146
-0.0144138
-0.0144111
-0.0144082
-0.0144093
-0.0144209
-0.0144221
-0.0144193
-0.014416
-0.0144114
-0.0143948
-0.0135767
-0.0137283
0
0
-0.00206486
-0.00144377
-0.00993078
-0.0123848
-0.0133887
-0.013872
-0.0140203
-0.0141692
-0.0142865
-0.0143561
-0.0143994
-0.0144283
-0.0144502
-0.014461
-0.0144695
-0.0144747
-0.0137868
-0.0144798
-0.0144806
-0.01448
-0.014478
-0.014477
-0.0144751
-0.0144727
-0.0144706
-0.0144671
-0.014464
-0.0144617
-0.0144604
-0.0144586
-0.0144483
-0.0144472
-0.0144497
-0.0144424
-0.0144376
-0.0144342
-0.0144318
-0.0144301
-0.014429
-0.0144276
-0.0144257
-0.0144234
-0.0144206
-0.0144172
-0.0144127
-0.0144072
-0.0144071
-0.0144058
-0.0144019
-0.0143944
-0.0143828
-0.0143781
-0.0144341
-0.0144295
-0.0144183
-0.0144114
-0.0144096
-0.0144207
-0.0143284
-0.0137488
0
0
-0.00205967
-0.00143733
-0.00992313
-0.0123738
-0.0133677
-0.0138309
-0.0140564
-0.0141967
-0.014291
-0.0143528
-0.0143939
-0.0148119
-0.0144385
-0.0144548
-0.0144647
-0.0144699
-0.0144728
-0.0144743
-0.0144746
-0.0144733
-0.014467
-0.0144701
-0.0144686
-0.0144658
-0.0144619
-0.0144598
-0.0144574
-0.0144568
-0.014461
-0.0144713
-0.0144269
-0.0144332
-0.0144359
-0.014434
-0.0144313
-0.0144287
-0.0144259
-0.0144239
-0.0144221
-0.0144202
-0.0144182
-0.0144161
-0.0144137
-0.0144111
-0.0144081
-0.014405
-0.0144026
-0.0143989
-0.014391
-0.014372
-0.0143259
-0.0135001
-0.0145507
-0.0144745
-0.0144289
-0.0144106
-0.014404
-0.0144022
-0.0143213
-0.0137432
0
0
-0.00205588
-0.00143265
-0.00991768
-0.0123668
-0.0133587
-0.0138208
-0.0140609
-0.0142017
-0.0142912
-0.0143503
-0.0143903
-0.014418
-0.0144375
-0.0144532
-0.0144652
-0.0144681
-0.0144696
-0.0144705
-0.0144708
-0.0144711
-0.0144744
-0.0144675
-0.0144642
-0.014461
-0.0144444
-0.0144542
-0.0144517
-0.0144532
-0.0144729
-0.0145803
-0.0143283
-0.0144141
-0.0144272
-0.014428
-0.0144264
-0.014425
-0.0144207
-0.0144187
-0.0144169
-0.0144149
-0.0144129
-0.0144109
-0.0144088
-0.0144066
-0.0144042
-0.0144017
-0.0143988
-0.0143939
-0.0143824
-0.0143457
-0.0141992
-0.0135001
-0.0152917
-0.0145929
-0.0144469
-0.0144109
-0.0144002
-0.0143957
-0.0143166
-0.0137393
0
0
-0.00205306
-0.00142922
-0.00991369
-0.0123603
-0.0133538
-0.0138167
-0.01406
-0.0142014
-0.0142899
-0.014348
-0.0143876
-0.0144154
-0.0144363
-0.0144562
-0.0144814
-0.014471
-0.0144678
-0.0144675
-0.0144676
-0.014468
-0.0144656
-0.0144634
-0.0144605
-0.014457
-0.0144531
-0.0144486
-0.0144439
-0.0144408
-0.0144447
-0.0144698
-0.0145221
-0.0144357
-0.0144256
-0.0144238
-0.0144222
-0.0144203
-0.0144187
-0.0144136
-0.0144125
-0.0144106
-0.0144087
-0.0144068
-0.014405
-0.0144031
-0.0144011
-0.0143989
-0.0143962
-0.0143921
-0.014384
-0.0143649
-0.0143187
-0.0142423
-0.0145435
-0.0144674
-0.0144217
-0.0144033
-0.0143958
-0.0143918
-0.0143132
-0.0137364
0
0
-0.00205095
-0.00142684
-0.00991198
-0.0123636
-0.013352
-0.0138143
-0.0140583
-0.0141999
-0.0142882
-0.0143459
-0.0143853
-0.0144129
-0.0144346
-0.0144639
-0.0145717
-0.0144786
-0.0144658
-0.0144647
-0.0144646
-0.0144642
-0.0144626
-0.0144604
-0.0144574
-0.0144536
-0.0144487
-0.0144423
-0.0144337
-0.0144224
-0.0144089
-0.0143946
-0.0142942
-0.0143961
-0.0144152
-0.0144187
-0.0144182
-0.0144164
-0.0144139
-0.0144108
-0.0144085
-0.0144065
-0.0144048
-0.0144033
-0.0144018
-0.0144002
-0.0143985
-0.0143967
-0.0143945
-0.0143917
-0.0143873
-0.0143793
-0.0143675
-0.0143626
-0.0144187
-0.0144141
-0.014403
-0.0143958
-0.0143918
-0.0143889
-0.0143108
-0.0137343
0
0
-0.00204929
-0.00142483
-0.00990963
-0.0123591
-0.0133497
-0.0138124
-0.0140567
-0.0141985
-0.0142866
-0.0143434
-0.0143831
-0.0144095
-0.0144252
-0.0144219
-0.0143318
-0.0144365
-0.0144562
-0.0144607
-0.0144614
-0.0144614
-0.0144603
-0.0144581
-0.0144549
-0.0144505
-0.0144444
-0.0144351
-0.0144199
-0.0143934
-0.0143497
-0.0143611
-0.014368
-0.014398
-0.0144109
-0.0144148
-0.0144146
-0.0144126
-0.0144097
-0.0144062
-0.0144033
-0.0144015
-0.0144005
-0.0143791
-0.0143988
-0.0143977
-0.0143964
-0.0143949
-0.0143933
-0.0143917
-0.0143904
-0.0143858
-0.0143822
-0.0143831
-0.0143947
-0.0143959
-0.0143933
-0.0143907
-0.0143888
-0.0143867
-0.014309
-0.0137327
0
0
-0.00204799
-0.00142324
-0.00990778
-0.0123848
-0.0133478
-0.0138108
-0.0140555
-0.0141975
-0.0142858
-0.0143441
-0.0143819
-0.0144079
-0.0144243
-0.0144304
-0.014423
-0.014445
-0.014455
-0.014458
-0.0144568
-0.0144588
-0.0144583
-0.0144562
-0.0144529
-0.014448
-0.0144406
-0.0144278
-0.0144024
-0.0143449
-0.0141462
-0.0142609
-0.0143501
-0.0143909
-0.0144066
-0.0144114
-0.0144113
-0.0144086
-0.0144114
-0.0143991
-0.0143945
-0.0143937
-0.0143945
-0.0143954
-0.0143957
-0.0143953
-0.0143945
-0.0143933
-0.0143922
-0.0143919
-0.0143986
-0.0143885
-0.014386
-0.0143861
-0.0143886
-0.0143891
-0.0143884
-0.0143874
-0.014422
-0.0143853
-0.0143077
-0.0137316
0
0
-0.00204704
-0.00142214
-0.00990634
-0.012355
-0.0133458
-0.013809
-0.0140551
-0.0141971
-0.014285
-0.0143424
-0.0143808
-0.014407
-0.0144245
-0.0144352
-0.0144411
-0.0144497
-0.014455
-0.0144555
-0.0144421
-0.014456
-0.0144569
-0.0144549
-0.0144514
-0.0144463
-0.0144382
-0.0144232
-0.0143895
-0.0142984
0.00747758
-0.0139843
-0.0143031
-0.0143813
-0.0144031
-0.0144086
-0.0144082
-0.0144038
-0.0143961
-0.0143852
-0.014375
-0.014378
-0.0143846
-0.0143895
-0.014392
-0.0143929
-0.0143927
-0.0143919
-0.0143905
-0.0143878
-0.014378
-0.0143851
-0.0143857
-0.0143857
-0.0145507
-0.0143858
-0.0143852
-0.0143849
-0.0143859
-0.0143848
-0.0143072
-0.0137311
0
0
-0.00204655
-0.00142221
-0.0099052
-0.012353
-0.0133426
-0.0138051
-0.0140578
-0.0141988
-0.0142853
-0.0143419
-0.0143802
-0.0144064
-0.0144245
-0.0144366
-0.0144448
-0.0144512
-0.0144559
-0.0144606
-0.0144756
-0.0144608
-0.014457
-0.0144542
-0.0144506
-0.0144457
-0.0144381
-0.0144249
-0.0143976
-0.0143313
-0.0141421
-0.0142605
-0.0143531
-0.0143909
-0.0144039
-0.0144069
-0.0144058
-0.0143982
-0.0143829
-0.0143558
-0.0143187
-0.0143409
-0.0143662
-0.0143808
-0.0143877
-0.0143905
-0.0143913
-0.0143907
-0.0143896
-0.0143871
-0.0143848
-0.0143846
-0.0143849
-0.0143848
-0.0143843
-0.0143831
-0.0143813
-0.0143804
-0.0143881
-0.0143863
-0.0143076
-0.0137311
0
0
-0.00204642
-0.0014274
-0.00990429
-0.01235
-0.013335
-0.0137875
-0.014076
-0.014206
-0.0142872
-0.014342
-0.0143799
-0.014406
-0.0144241
-0.0144366
-0.0144452
-0.0144512
-0.0144553
-0.0144583
-0.0144614
-0.0144585
-0.0144561
-0.0144535
-0.0144502
-0.0144458
-0.0144395
-0.0144298
-0.0144137
-0.0143852
-0.014344
-0.0143632
-0.0143879
-0.014401
-0.0144047
-0.0144036
-0.0144065
-0.0143935
-0.0143638
-0.0142938
-0.0141159
-0.0142451
-0.014333
-0.0143693
-0.0143832
-0.0143884
-0.0143908
-0.0143898
-0.0143888
-0.0143873
-0.0143846
-0.0143804
-0.0143831
-0.0143836
-0.0143826
-0.0143797
-0.0145046
-0.0143616
-0.0144051
-0.014393
-0.0143095
-0.0137318
0
0
-0.00204247
-0.0014101
-0.00990015
-0.012346
-0.0133183
-0.0138208
-0.0141884
-0.0142244
-0.0142902
-0.0143424
-0.0143801
-0.0144059
-0.0144238
-0.014436
-0.0144446
-0.0144505
-0.0144544
-0.0144567
-0.0144578
-0.014457
-0.0144554
-0.014453
-0.01445
-0.0144461
-0.0144411
-0.0144343
-0.0144254
-0.0144098
-0.014395
-0.0143994
-0.0144051
-0.0144063
-0.0144002
-0.0143864
-0.0144234
-0.0143968
-0.0143505
-0.0142264
0.00750705
-0.01401
-0.0142894
-0.0143597
-0.0143804
-0.0143869
-0.014388
-0.0143888
-0.0143882
-0.0143867
-0.0143824
-0.0143606
-0.0143805
-0.0143826
-0.0143812
-0.0143757
-0.0143543
-0.0142524
-0.0145131
-0.0144104
-0.0143124
-0.0137261
0
0
-0.00204269
-0.00141593
-0.00990059
-0.0123488
-0.0133418
-0.0138116
-0.0140836
-0.0142072
-0.0142868
-0.0143421
-0.0143821
-0.0144067
-0.014424
-0.0144346
-0.0144431
-0.0144493
-0.0144532
-0.0144553
-0.0144564
-0.0144561
-0.0144548
-0.0144527
-0.01445
-0.0144466
-0.0144424
-0.0144373
-0.0144308
-0.0144204
-0.0143935
-0.0144118
-0.0144132
-0.0144078
-0.0143847
-0.0142793
-0.0145334
-0.0144185
-0.0143688
-0.0142943
-0.0141152
-0.0142438
-0.0143325
-0.0143685
-0.0143824
-0.0143874
-0.0143887
-0.0143885
-0.014388
-0.0143878
-0.0143905
-0.0144106
-0.0143886
-0.0143836
-0.0143812
-0.0143782
-0.0143717
-0.0143606
-0.0144041
-0.014392
-0.0143084
-0.0137308
0
0
-0.00204275
-0.00141664
-0.00990029
-0.012345
-0.0133588
-0.0139284
-0.0140755
-0.0141996
-0.0142838
-0.0143423
-0.0143934
-0.0144096
-0.0144264
-0.0144301
-0.0144396
-0.0144473
-0.0144517
-0.014453
-0.0144552
-0.0144554
-0.0144543
-0.0144525
-0.01445
-0.0144469
-0.0144434
-0.0144395
-0.0144356
-0.0144344
-0.0144512
-0.0144267
-0.0144199
-0.0144142
-0.0144045
-0.0143895
-0.0144276
-0.0144073
-0.0143849
-0.0143552
-0.0143172
-0.014339
-0.0143644
-0.0143791
-0.0143862
-0.0143893
-0.0143897
-0.0143878
-0.014387
-0.0143871
-0.0143882
-0.0143912
-0.0143866
-0.0143822
-0.0143801
-0.014379
-0.0143791
-0.0143786
-0.0143862
-0.0143842
-0.0143054
-0.0137291
0
0
-0.00204265
-0.00141671
-0.00990141
-0.0123539
-0.0133205
-0.0136768
-0.0140289
-0.0141885
-0.0142797
-0.0143368
-0.0143665
-0.0144115
-0.0144424
-0.0144088
-0.0144295
-0.0144439
-0.0144496
-0.0144451
-0.0144538
-0.0144549
-0.0144541
-0.0144523
-0.01445
-0.0144472
-0.014444
-0.0144406
-0.0137632
-0.0144349
-0.0144347
-0.0144278
-0.0144228
-0.0144184
-0.0144134
-0.014409
-0.0144124
-0.0144054
-0.0143952
-0.014383
-0.0143721
-0.0143749
-0.0143816
-0.0143869
-0.0143903
-0.0143928
-0.0143934
-0.0143845
-0.0143844
-0.0143856
-0.0143871
-0.0143891
-0.0143881
-0.0143775
-0.0143754
-0.0143754
-0.0143838
-0.0143836
-0.0143836
-0.0143818
-0.0143038
-0.0137279
0
0
-0.00204241
-0.00141629
-0.00990032
-0.0123481
-0.0133309
-0.0137763
-0.0140385
-0.0141879
-0.0142788
-0.0143378
-0.0143802
-0.0144303
-0.014551
-0.0142806
-0.0144101
-0.0144409
-0.0144517
-0.0144629
-0.0144565
-0.0144552
-0.014454
-0.0144523
-0.0144501
-0.0144474
-0.0144444
-0.0144412
-0.014438
-0.014435
-0.0144322
-0.0144282
-0.0144243
-0.0144206
-0.0144169
-0.0144135
-0.0144112
-0.0144068
-0.0144011
-0.014395
-0.0143902
-0.0143892
-0.0143903
-0.0143921
-0.0144031
-0.0144012
-0.0144116
-0.0143663
-0.0143765
-0.0143828
-0.0143873
-0.0143956
-0.0144053
-0.0143573
-0.0143606
-0.0143554
-0.0144013
-0.0143911
-0.0143849
-0.0143815
-0.0143032
-0.0137273
0
0
-0.00204219
-0.00141595
-0.00989994
-0.0123481
-0.0133368
-0.0137966
-0.0140444
-0.0141888
-0.0142785
-0.0143374
-0.014379
-0.0144135
-0.0144466
-0.0144317
-0.014435
-0.0144451
-0.0144515
-0.0144557
-0.0144556
-0.014455
-0.0144539
-0.0144525
-0.0144507
-0.0144478
-0.0144447
-0.0144415
-0.0144383
-0.0144351
-0.0144323
-0.0144287
-0.0144252
-0.0144218
-0.0144184
-0.0144151
-0.014412
-0.0144085
-0.0144045
-0.0144005
-0.0143973
-0.0143954
-0.0143948
-0.0143954
-0.0143996
-0.0144199
-0.0145212
-0.0142565
-0.0143574
-0.0143775
-0.0143863
-0.0144163
-0.0145164
-0.0142461
-0.0143252
-0.0142438
-0.014509
-0.0144087
-0.014388
-0.0143824
-0.0143031
-0.0137269
0
0
-0.00204202
-0.00141568
-0.00989979
-0.0123485
-0.0133389
-0.0138014
-0.0140466
-0.0141895
-0.0142784
-0.0157194
-0.0143766
-0.0144056
-0.0144262
-0.0144337
-0.0144405
-0.014447
-0.0144516
-0.0144542
-0.014455
-0.0144547
-0.0144539
-0.0144532
-0.0144533
-0.0144486
-0.0144449
-0.0144417
-0.0144385
-0.0144348
-0.0144334
-0.0144292
-0.0144258
-0.0144224
-0.0144192
-0.0136791
-0.0144129
-0.0137333
-0.0144065
-0.0144032
-0.0144004
-0.0143983
-0.014397
-0.0143964
-0.0143974
-0.0144024
-0.0144117
-0.0143651
-0.0143726
-0.0143725
-0.0143659
-0.0144173
-0.0144187
-0.0143606
-0.0143613
-0.0143553
-0.0144011
-0.014391
-0.0143855
-0.0143851
-0.0143036
-0.0137266
0
0
-0.00204188
-0.00141545
-0.00989964
-0.0123486
-0.0133396
-0.0138027
-0.0141985
-0.01419
-0.0142786
-0.0143363
-0.0143752
-0.0144025
-0.0144214
-0.0144332
-0.0144415
-0.0144475
-0.0144414
-0.0144538
-0.0144546
-0.0144544
-0.0144538
-0.0144544
-0.0144658
-0.0144499
-0.014445
-0.0144418
-0.0144389
-0.0144374
-0.0144329
-0.0144293
-0.014426
-0.0144228
-0.0144197
-0.0144165
-0.0144135
-0.0144105
-0.0144074
-0.0144045
-0.0144019
-0.0143998
-0.0143982
-0.0143972
-0.0143958
-0.0143952
-0.0143935
-0.0143822
-0.0143764
-0.014356
-0.0142557
-0.0145204
-0.0144374
-0.0143812
-0.0143761
-0.0143753
-0.0143837
-0.0143835
-0.0143848
-0.0144027
-0.0143049
-0.0137261
0
0
-0.00204175
-0.00141522
-0.00989946
-0.0123486
-0.0133398
-0.0138032
-0.0140484
-0.0141915
-0.0142796
-0.0143367
-0.0143738
-0.0144005
-0.0144195
-0.0144325
-0.0144414
-0.0144475
-0.0144515
-0.0144537
-0.0144544
-0.0144541
-0.0144526
-0.0144486
-0.0144331
-0.0144445
-0.014444
-0.0144415
-0.0144383
-0.0144335
-0.0144322
-0.0144293
-0.0144483
-0.014423
-0.0144199
-0.0144169
-0.0144138
-0.0144109
-0.014408
-0.0144052
-0.0144027
-0.0144006
-0.0143995
-0.0144
-0.0143958
-0.014393
-0.0143903
-0.0143858
-0.0143815
-0.0143739
-0.0143617
-0.0144018
-0.0143703
-0.0143859
-0.0143804
-0.0143791
-0.0143802
-0.0143794
-0.0143752
-0.0143536
-0.0142961
-0.0137238
0
0
-0.00204165
-0.00141498
-0.00989923
-0.0123484
-0.0133398
-0.0138036
-0.0140501
-0.0141968
-0.0142831
-0.0143399
-0.0143701
-0.0143974
-0.0144176
-0.0144315
-0.0144408
-0.0144471
-0.0144514
-0.0144537
-0.0144544
-0.0144539
-0.0144524
-0.0144574
-0.014445
-0.0144463
-0.0144441
-0.0144414
-0.0144384
-0.0144352
-0.0144324
-0.0144294
-0.0144263
-0.0144232
-0.0144201
-0.0144171
-0.0144141
-0.0144111
-0.0144083
-0.0144055
-0.014403
-0.0144009
-0.0144011
-0.0144139
-0.0143968
-0.0143922
-0.0143895
-0.0143867
-0.014384
-0.014381
-0.014379
-0.014385
-0.0143803
-0.0143816
-0.0143803
-0.0143795
-0.0143793
-0.0143785
-0.0143764
-0.0143717
-0.0142976
-0.0137234
0
0
-0.00204155
-0.00141472
-0.00989898
-0.0123482
-0.0133396
-0.0138038
-0.014053
-0.0142204
-0.0142926
-0.0143578
-0.0143515
-0.0143894
-0.0144146
-0.0144299
-0.0144396
-0.0144462
-0.0144519
-0.0144542
-0.0144547
-0.0144538
-0.0144521
-0.0144504
-0.0144481
-0.0144466
-0.0144444
-0.0144413
-0.0144385
-0.0144355
-0.0144325
-0.0144295
-0.0144264
-0.0144233
-0.0144202
-0.0144172
-0.0144142
-0.0144113
-0.0144084
-0.0144056
-0.0144029
-0.0143998
-0.0143949
-0.0143775
-0.0143902
-0.0143905
-0.0143888
-0.0143867
-0.0143846
-0.0143828
-0.0143817
-0.0143821
-0.0143809
-0.0143805
-0.0143798
-0.0143793
-0.0143788
-0.0143781
-0.0143918
-0.0143751
-0.0142984
-0.0137234
0
0
-0.00204147
-0.00141446
-0.0098987
-0.0123478
-0.0133391
-0.0138019
-0.0140442
-0.0141685
-0.0143012
-0.0144659
-0.0142406
-0.0143707
-0.0144105
-0.0144279
-0.0144368
-0.0144427
-0.014455
-0.0144564
-0.0144557
-0.0144536
-0.0144501
-0.0144501
-0.0144488
-0.014447
-0.0144454
-0.0144406
-0.0144384
-0.0144356
-0.0144326
-0.0144295
-0.0144264
-0.0144234
-0.0144203
-0.0144173
-0.0144143
-0.0144114
-0.0144085
-0.0144056
-0.0144028
-0.0143998
-0.0143962
-0.0143912
-0.0143912
-0.0143899
-0.0143879
-0.0143859
-0.0143841
-0.0143826
-0.0143815
-0.0143809
-0.0143802
-0.0143797
-0.0143792
-0.0143788
-0.0143784
-0.0143779
-0.0143771
-0.0143758
-0.0142986
-0.0137233
0
0
-0.0020414
-0.00141421
-0.00989848
-0.0123474
-0.0133387
-0.0138016
-0.0140456
-0.0141864
-0.0142852
-0.0143556
-0.0143504
-0.0143883
-0.0144128
-0.0144259
-0.0145149
-0.0144243
-0.014473
-0.0144628
-0.0144591
-0.0144533
-0.0144393
-0.0144491
-0.0144489
-0.0144471
-0.0144449
-0.0144416
-0.0144386
-0.0144356
-0.0144326
-0.0144295
-0.0144264
-0.0144234
-0.0144204
-0.0144174
-0.0144144
-0.0144114
-0.0144085
-0.0144056
-0.0144027
-0.0143998
-0.0143967
-0.0143935
-0.0143913
-0.014389
-0.0143867
-0.0143845
-0.0143826
-0.0143811
-0.0143801
-0.0143794
-0.014379
-0.0143786
-0.0143784
-0.0143781
-0.0143779