# vtk DataFile Version 2.0
FlowField
ASCII
DATASET STRUCTURED_GRID
DIMENSIONS 62 47 32 
POINTS 93248 double
0 0 0
0.01 0 0
0.02 0 0
0.03 0 0
0.04 0 0
0.05 0 0
0.06 0 0
0.07 0 0
0.08 0 0
0.09 0 0
0.1 0 0
0.11 0 0
0.12 0 0
0.13 0 0
0.14 0 0
0.15 0 0
0.16 0 0
0.17 0 0
0.18 0 0
0.19 0 0
0.2 0 0
0.21 0 0
0.22 0 0
0.23 0 0
0.24 0 0
0.25 0 0
0.26 0 0
0.27 0 0
0.28 0 0
0.29 0 0
0.3 0 0
0.31 0 0
0.32 0 0
0.33 0 0
0.34 0 0
0.35 0 0
0.36 0 0
0.37 0 0
0.38 0 0
0.39 0 0
0.4 0 0
0.41 0 0
0.42 0 0
0.43 0 0
0.44 0 0
0.45 0 0
0.46 0 0
0.47 0 0
0.48 0 0
0.49 0 0
0.5 0 0
0.51 0 0
0.52 0 0
0.53 0 0
0.54 0 0
0.55 0 0
0.56 0 0
0.57 0 0
0.58 0 0
0.59 0 0
0.6 0 0
0.61 0 0
0 0.01 0
0.01 0.01 0
0.02 0.01 0
0.03 0.01 0
0.04 0.01 0
0.05 0.01 0
0.06 0.01 0
0.07 0.01 0
0.08 0.01 0
0.09 0.01 0
0.1 0.01 0
0.11 0.01 0
0.12 0.01 0
0.13 0.01 0
0.14 0.01 0
0.15 0.01 0
0.16 0.01 0
0.17 0.01 0
0.18 0.01 0
0.19 0.01 0
0.2 0.01 0
0.21 0.01 0
0.22 0.01 0
0.23 0.01 0
0.24 0.01 0
0.25 0.01 0
0.26 0.01 0
0.27 0.01 0
0.28 0.01 0
0.29 0.01 0
0.3 0.01 0
0.31 0.01 0
0.32 0.01 0
0.33 0.01 0
0.34 0.01 0
0.35 0.01 0
0.36 0.01 0
0.37 0.01 0
0.38 0.01 0
0.39 0.01 0
0.4 0.01 0
0.41 0.01 0
0.42 0.01 0
0.43 0.01 0
0.44 0.01 0
0.45 0.01 0
0.46 0.01 0
0.47 0.01 0
0.48 0.01 0
0.49 0.01 0
0.5 0.01 0
0.51 0.01 0
0.52 0.01 0
0.53 0.01 0
0.54 0.01 0
0.55 0.01 0
0.56 0.01 0
0.57 0.01 0
0.58 0.01 0
0.59 0.01 0
0.6 0.01 0
0.61 0.01 0
0 0.02 0
0.01 0.02 0
0.02 0.02 0
0.03 0.02 0
0.04 0.02 0
0.05 0.02 0
0.06 0.02 0
0.07 0.02 0
0.08 0.02 0
0.09 0.02 0
0.1 0.02 0
0.11 0.02 0
0.12 0.02 0
0.13 0.02 0
0.14 0.02 0
0.15 0.02 0
0.16 0.02 0
0.17 0.02 0
0.18 0.02 0
0.19 0.02 0
0.2 0.02 0
0.21 0.02 0
0.22 0.02 0
0.23 0.02 0
0.24 0.02 0
0.25 0.02 0
0.26 0.02 0
0.27 0.02 0
0.28 0.02 0
0.29 0.02 0
0.3 0.02 0
0.31 0.02 0
0.32 0.02 0
0.33 0.02 0
0.34 0.02 0
0.35 0.02 0
0.36 0.02 0
0.37 0.02 0
0.38 0.02 0
0.39 0.02 0
0.4 0.02 0
0.41 0.02 0
0.42 0.02 0
0.43 0.02 0
0.44 0.02 0
0.45 0.02 0
0.46 0.02 0
0.47 0.02 0
0.48 0.02 0
0.49 0.02 0
0.5 0.02 0
0.51 0.02 0
0.52 0.02 0
0.53 0.02 0
0.54 0.02 0
0.55 0.02 0
0.56 0.02 0
0.57 0.02 0
0.58 0.02 0
0.59 0.02 0
0.6 0.02 0
0.61 0.02 0
0 0.03 0
0.01 0.03 0
0.02 0.03 0
0.03 0.03 0
0.04 0.03 0
0.05 0.03 0
0.06 0.03 0
0.07 0.03 0
0.08 0.03 0
0.09 0.03 0
0.1 0.03 0
0.11 0.03 0
0.12 0.03 0
0.13 0.03 0
0.14 0.03 0
0.15 0.03 0
0.16 0.03 0
0.17 0.03 0
0.18 0.03 0
0.19 0.03 0
0.2 0.03 0
0.21 0.03 0
0.22 0.03 0
0.23 0.03 0
0.24 0.03 0
0.25 0.03 0
0.26 0.03 0
0.27 0.03 0
0.28 0.03 0
0.29 0.03 0
0.3 0.03 0
0.31 0.03 0
0.32 0.03 0
0.33 0.03 0
0.34 0.03 0
0.35 0.03 0
0.36 0.03 0
0.37 0.03 0
0.38 0.03 0
0.39 0.03 0
0.4 0.03 0
0.41 0.03 0
0.42 0.03 0
0.43 0.03 0
0.44 0.03 0
0.45 0.03 0
0.46 0.03 0
0.47 0.03 0
0.48 0.03 0
0.49 0.03 0
0.5 0.03 0
0.51 0.03 0
0.52 0.03 0
0.53 0.03 0
0.54 0.03 0
0.55 0.03 0
0.56 0.03 0
0.57 0.03 0
0.58 0.03 0
0.59 0.03 0
0.6 0.03 0
0.61 0.03 0
0 0.04 0
0.01 0.04 0
0.02 0.04 0
0.03 0.04 0
0.04 0.04 0
0.05 0.04 0
0.06 0.04 0
0.07 0.04 0
0.08 0.04 0
0.09 0.04 0
0.1 0.04 0
0.11 0.04 0
0.12 0.04 0
0.13 0.04 0
0.14 0.04 0
0.15 0.04 0
0.16 0.04 0
0.17 0.04 0
0.18 0.04 0
0.19 0.04 0
0.2 0.04 0
0.21 0.04 0
0.22 0.04 0
0.23 0.04 0
0.24 0.04 0
0.25 0.04 0
0.26 0.04 0
0.27 0.04 0
0.28 0.04 0
0.29 0.04 0
0.3 0.04 0
0.31 0.04 0
0.32 0.04 0
0.33 0.04 0
0.34 0.04 0
0.35 0.04 0
0.36 0.04 0
0.37 0.04 0
0.38 0.04 0
0.39 0.04 0
0.4 0.04 0
0.41 0.04 0
0.42 0.04 0
0.43 0.04 0
0.44 0.04 0
0.45 0.04 0
0.46 0.04 0
0.47 0.04 0
0.48 0.04 0
0.49 0.04 0
0.5 0.04 0
0.51 0.04 0
0.52 0.04 0
0.53 0.04 0
0.54 0.04 0
0.55 0.04 0
0.56 0.04 0
0.57 0.04 0
0.58 0.04 0
0.59 0.04 0
0.6 0.04 0
0.61 0.04 0
0 0.05 0
0.01 0.05 0
0.02 0.05 0
0.03 0.05 0
0.04 0.05 0
0.05 0.05 0
0.06 0.05 0
0.07 0.05 0
0.08 0.05 0
0.09 0.05 0
0.1 0.05 0
0.11 0.05 0
0.12 0.05 0
0.13 0.05 0
0.14 0.05 0
0.15 0.05 0
0.16 0.05 0
0.17 0.05 0
0.18 0.05 0
0.19 0.05 0
0.2 0.05 0
0.21 0.05 0
0.22 0.05 0
0.23 0.05 0
0.24 0.05 0
0.25 0.05 0
0.26 0.05 0
0.27 0.05 0
0.28 0.05 0
0.29 0.05 0
0.3 0.05 0
0.31 0.05 0
0.32 0.05 0
0.33 0.05 0
0.34 0.05 0
0.35 0.05 0
0.36 0.05 0
0.37 0.05 0
0.38 0.05 0
0.39 0.05 0
0.4 0.05 0
0.41 0.05 0
0.42 0.05 0
0.43 0.05 0
0.44 0.05 0
0.45 0.05 0
0.46 0.05 0
0.47 0.05 0
0.48 0.05 0
0.49 0.05 0
0.5 0.05 0
0.51 0.05 0
0.52 0.05 0
0.53 0.05 0
0.54 0.05 0
0.55 0.05 0
0.56 0.05 0
0.57 0.05 0
0.58 0.05 0
0.59 0.05 0
0.6 0.05 0
0.61 0.05 0
0 0.06 0
0.01 0.06 0
0.02 0.06 0
0.03 0.06 0
0.04 0.06 0
0.05 0.06 0
0.06 0.06 0
0.07 0.06 0
0.08 0.06 0
0.09 0.06 0
0.1 0.06 0
0.11 0.06 0
0.12 0.06 0
0.13 0.06 0
0.14 0.06 0
0.15 0.06 0
0.16 0.06 0
0.17 0.06 0
0.18 0.06 0
0.19 0.06 0
0.2 0.06 0
0.21 0.06 0
0.22 0.06 0
0.23 0.06 0
0.24 0.06 0
0.25 0.06 0
0.26 0.06 0
0.27 0.06 0
0.28 0.06 0
0.29 0.06 0
0.3 0.06 0
0.31 0.06 0
0.32 0.06 0
0.33 0.06 0
0.34 0.06 0
0.35 0.06 0
0.36 0.06 0
0.37 0.06 0
0.38 0.06 0
0.39 0.06 0
0.4 0.06 0
0.41 0.06 0
0.42 0.06 0
0.43 0.06 0
0.44 0.06 0
0.45 0.06 0
0.46 0.06 0
0.47 0.06 0
0.48 0.06 0
0.49 0.06 0
0.5 0.06 0
0.51 0.06 0
0.52 0.06 0
0.53 0.06 0
0.54 0.06 0
0.55 0.06 0
0.56 0.06 0
0.57 0.06 0
0.58 0.06 0
0.59 0.06 0
0.6 0.06 0
0.61 0.06 0
0 0.07 0
0.01 0.07 0
0.02 0.07 0
0.03 0.07 0
0.04 0.07 0
0.05 0.07 0
0.06 0.07 0
0.07 0.07 0
0.08 0.07 0
0.09 0.07 0
0.1 0.07 0
0.11 0.07 0
0.12 0.07 0
0.13 0.07 0
0.14 0.07 0
0.15 0.07 0
0.16 0.07 0
0.17 0.07 0
0.18 0.07 0
0.19 0.07 0
0.2 0.07 0
0.21 0.07 0
0.22 0.07 0
0.23 0.07 0
0.24 0.07 0
0.25 0.07 0
0.26 0.07 0
0.27 0.07 0
0.28 0.07 0
0.29 0.07 0
0.3 0.07 0
0.31 0.07 0
0.32 0.07 0
0.33 0.07 0
0.34 0.07 0
0.35 0.07 0
0.36 0.07 0
0.37 0.07 0
0.38 0.07 0
0.39 0.07 0
0.4 0.07 0
0.41 0.07 0
0.42 0.07 0
0.43 0.07 0
0.44 0.07 0
0.45 0.07 0
0.46 0.07 0
0.47 0.07 0
0.48 0.07 0
0.49 0.07 0
0.5 0.07 0
0.51 0.07 0
0.52 0.07 0
0.53 0.07 0
0.54 0.07 0
0.55 0.07 0
0.56 0.07 0
0.57 0.07 0
0.58 0.07 0
0.59 0.07 0
0.6 0.07 0
0.61 0.07 0
0 0.08 0
0.01 0.08 0
0.02 0.08 0
0.03 0.08 0
0.04 0.08 0
0.05 0.08 0
0.06 0.08 0
0.07 0.08 0
0.08 0.08 0
0.09 0.08 0
0.1 0.08 0
0.11 0.08 0
0.12 0.08 0
0.13 0.08 0
0.14 0.08 0
0.15 0.08 0
0.16 0.08 0
0.17 0.08 0
0.18 0.08 0
0.19 0.08 0
0.2 0.08 0
0.21 0.08 0
0.22 0.08 0
0.23 0.08 0
0.24 0.08 0
0.25 0.08 0
0.26 0.08 0
0.27 0.08 0
0.28 0.08 0
0.29 0.08 0
0.3 0.08 0
0.31 0.08 0
0.32 0.08 0
0.33 0.08 0
0.34 0.08 0
0.35 0.08 0
0.36 0.08 0
0.37 0.08 0
0.38 0.08 0
0.39 0.08 0
0.4 0.08 0
0.41 0.08 0
0.42 0.08 0
0.43 0.08 0
0.44 0.08 0
0.45 0.08 0
0.46 0.08 0
0.47 0.08 0
0.48 0.08 0
0.49 0.08 0
0.5 0.08 0
0.51 0.08 0
0.52 0.08 0
0.53 0.08 0
0.54 0.08 0
0.55 0.08 0
0.56 0.08 0
0.57 0.08 0
0.58 0.08 0
0.59 0.08 0
0.6 0.08 0
0.61 0.08 0
0 0.09 0
0.01 0.09 0
0.02 0.09 0
0.03 0.09 0
0.04 0.09 0
0.05 0.09 0
0.06 0.09 0
0.07 0.09 0
0.08 0.09 0
0.09 0.09 0
0.1 0.09 0
0.11 0.09 0
0.12 0.09 0
0.13 0.09 0
0.14 0.09 0
0.15 0.09 0
0.16 0.09 0
0.17 0.09 0
0.18 0.09 0
0.19 0.09 0
0.2 0.09 0
0.21 0.09 0
0.22 0.09 0
0.23 0.09 0
0.24 0.09 0
0.25 0.09 0
0.26 0.09 0
0.27 0.09 0
0.28 0.09 0
0.29 0.09 0
0.3 0.09 0
0.31 0.09 0
0.32 0.09 0
0.33 0.09 0
0.34 0.09 0
0.35 0.09 0
0.36 0.09 0
0.37 0.09 0
0.38 0.09 0
0.39 0.09 0
0.4 0.09 0
0.41 0.09 0
0.42 0.09 0
0.43 0.09 0
0.44 0.09 0
0.45 0.09 0
0.46 0.09 0
0.47 0.09 0
0.48 0.09 0
0.49 0.09 0
0.5 0.09 0
0.51 0.09 0
0.52 0.09 0
0.53 0.09 0
0.54 0.09 0
0.55 0.09 0
0.56 0.09 0
0.57 0.09 0
0.58 0.09 0
0.59 0.09 0
0.6 0.09 0
0.61 0.09 0
0 0.1 0
0.01 0.1 0
0.02 0.1 0
0.03 0.1 0
0.04 0.1 0
0.05 0.1 0
0.06 0.1 0
0.07 0.1 0
0.08 0.1 0
0.09 0.1 0
0.1 0.1 0
0.11 0.1 0
0.12 0.1 0
0.13 0.1 0
0.14 0.1 0
0.15 0.1 0
0.16 0.1 0
0.17 0.1 0
0.18 0.1 0
0.19 0.1 0
0.2 0.1 0
0.21 0.1 0
0.22 0.1 0
0.23 0.1 0
0.24 0.1 0
0.25 0.1 0
0.26 0.1 0
0.27 0.1 0
0.28 0.1 0
0.29 0.1 0
0.3 0.1 0
0.31 0.1 0
0.32 0.1 0
0.33 0.1 0
0.34 0.1 0
0.35 0.1 0
0.36 0.1 0
0.37 0.1 0
0.38 0.1 0
0.39 0.1 0
0.4 0.1 0
0.41 0.1 0
0.42 0.1 0
0.43 0.1 0
0.44 0.1 0
0.45 0.1 0
0.46 0.1 0
0.47 0.1 0
0.48 0.1 0
0.49 0.1 0
0.5 0.1 0
0.51 0.1 0
0.52 0.1 0
0.53 0.1 0
0.54 0.1 0
0.55 0.1 0
0.56 0.1 0
0.57 0.1 0
0.58 0.1 0
0.59 0.1 0
0.6 0.1 0
0.61 0.1 0
0 0.11 0
0.01 0.11 0
0.02 0.11 0
0.03 0.11 0
0.04 0.11 0
0.05 0.11 0
0.06 0.11 0
0.07 0.11 0
0.08 0.11 0
0.09 0.11 0
0.1 0.11 0
0.11 0.11 0
0.12 0.11 0
0.13 0.11 0
0.14 0.11 0
0.15 0.11 0
0.16 0.11 0
0.17 0.11 0
0.18 0.11 0
0.19 0.11 0
0.2 0.11 0
0.21 0.11 0
0.22 0.11 0
0.23 0.11 0
0.24 0.11 0
0.25 0.11 0
0.26 0.11 0
0.27 0.11 0
0.28 0.11 0
0.29 0.11 0
0.3 0.11 0
0.31 0.11 0
0.32 0.11 0
0.33 0.11 0
0.34 0.11 0
0.35 0.11 0
0.36 0.11 0
0.37 0.11 0
0.38 0.11 0
0.39 0.11 0
0.4 0.11 0
0.41 0.11 0
0.42 0.11 0
0.43 0.11 0
0.44 0.11 0
0.45 0.11 0
0.46 0.11 0
0.47 0.11 0
0.48 0.11 0
0.49 0.11 0
0.5 0.11 0
0.51 0.11 0
0.52 0.11 0
0.53 0.11 0
0.54 0.11 0
0.55 0.11 0
0.56 0.11 0
0.57 0.11 0
0.58 0.11 0
0.59 0.11 0
0.6 0.11 0
0.61 0.11 0
0 0.12 0
0.01 0.12 0
0.02 0.12 0
0.03 0.12 0
0.04 0.12 0
0.05 0.12 0
0.06 0.12 0
0.07 0.12 0
0.08 0.12 0
0.09 0.12 0
0.1 0.12 0
0.11 0.12 0
0.12 0.12 0
0.13 0.12 0
0.14 0.12 0
0.15 0.12 0
0.16 0.12 0
0.17 0.12 0
0.18 0.12 0
0.19 0.12 0
0.2 0.12 0
0.21 0.12 0
0.22 0.12 0
0.23 0.12 0
0.24 0.12 0
0.25 0.12 0
0.26 0.12 0
0.27 0.12 0
0.28 0.12 0
0.29 0.12 0
0.3 0.12 0
0.31 0.12 0
0.32 0.12 0
0.33 0.12 0
0.34 0.12 0
0.35 0.12 0
0.36 0.12 0
0.37 0.12 0
0.38 0.12 0
0.39 0.12 0
0.4 0.12 0
0.41 0.12 0
0.42 0.12 0
0.43 0.12 0
0.44 0.12 0
0.45 0.12 0
0.46 0.12 0
0.47 0.12 0
0.48 0.12 0
0.49 0.12 0
0.5 0.12 0
0.51 0.12 0
0.52 0.12 0
0.53 0.12 0
0.54 0.12 0
0.55 0.12 0
0.56 0.12 0
0.57 0.12 0
0.58 0.12 0
0.59 0.12 0
0.6 0.12 0
0.61 0.12 0
0 0.13 0
0.01 0.13 0
0.02 0.13 0
0.03 0.13 0
0.04 0.13 0
0.05 0.13 0
0.06 0.13 0
0.07 0.13 0
0.08 0.13 0
0.09 0.13 0
0.1 0.13 0
0.11 0.13 0
0.12 0.13 0
0.13 0.13 0
0.14 0.13 0
0.15 0.13 0
0.16 0.13 0
0.17 0.13 0
0.18 0.13 0
0.19 0.13 0
0.2 0.13 0
0.21 0.13 0
0.22 0.13 0
0.23 0.13 0
0.24 0.13 0
0.25 0.13 0
0.26 0.13 0
0.27 0.13 0
0.28 0.13 0
0.29 0.13 0
0.3 0.13 0
0.31 0.13 0
0.32 0.13 0
0.33 0.13 0
0.34 0.13 0
0.35 0.13 0
0.36 0.13 0
0.37 0.13 0
0.38 0.13 0
0.39 0.13 0
0.4 0.13 0
0.41 0.13 0
0.42 0.13 0
0.43 0.13 0
0.44 0.13 0
0.45 0.13 0
0.46 0.13 0
0.47 0.13 0
0.48 0.13 0
[...]
POINT_DATA 93248

SCALARS u double
LOOKUP_TABLE default
0
0
0
0
0
0
0
0
0
0
0
0
0
0
0
0
0
0
0
0
0
0
0
0
0.3017
0
0
0
0
0
0
0
0.0604942
0.227184
0
0
0
0
0
0
0
0
0
0
0
0
0
0.0929018
0
0
0.0785979
0
0
0
0
0
0
0
0
0
0
0
0
0.419592
0.341655
0.26842
0.209512
0.166869
0.139065
0.123633
0.115568
0.110921
0.107565
0.104567
0.102312
0.0998575
0.0973712
0.094832
0.0924245
0.0899025
0.0872656
0.083789
0.0831613
0.0812216
0.0785805
0.076016
0.0735492
0.0711541
0.0687945
0.0664449
0.0640874
0.0617052
0.0592789
0.0568267
0.0546615
0.0521438
0.0492802
0.0464511
0.0440361
0.0416787
0.0412893
0.164069
0.0318456
0.0314507
0.0306575
0.029763
0.029386
0.0198375
0.0211988
0.0193758
0.0174785
0.0149892
0.0124824
0.0429761
0.00863627
0.00809528
-0.00120046
-0.00244135
0.0171946
-0.00634886
-0.010058
-0.0158446
-0.0158446
0
0
0.49324
0.478726
0.455226
0.42609
0.398018
0.371208
0.347685
0.329176
0.314984
0.303688
0.293795
0.286151
0.278332
0.271023
0.263865
0.257182
0.250434
0.244795
0.338861
0.234214
0.226137
0.218367
0.211761
0.205293
0.198921
0.192605
0.186314
0.180026
0.17372
0.167355
0.160836
0.155027
0.148622
0.141756
0.134968
0.126853
0.116802
-0.0468275
0.102781
0.0998946
0.0957366
0.0912875
0.0866036
0.0812601
0.0732588
0.0664094
0.0609699
0.05514
0.0490278
0.0429994
0.0378311
0.0314251
0.0249167
0.0158468
0.00945348
0.00236172
-0.00367312
-0.0112265
-0.0191557
-0.0191557
0
0
0.487607
0.489419
0.490382
0.485615
0.481543
0.466792
0.449508
0.431183
0.414235
0.403368
0.387038
0.374802
0.364495
0.354842
0.345943
0.337407
0.327962
0.319453
0.310554
0.301811
0.293917
0.28569
0.277483
0.269267
0.26107
0.252896
0.244739
0.236593
0.228458
0.220359
0.212388
0.203617
0.196387
0.214476
0.179993
0.171068
0.163303
0.158626
0.148899
0.139368
0.130858
0.13711
0.115681
0.108194
0.129161
0.0911176
0.0822116
0.05514
0.0660446
0.0586588
0.0511743
0.0429761
0.0343897
0.025222
0.0167768
0.00841454
-0.000922171
-0.00927866
-0.0175235
-0.0175235
0
0
0.48056
0.478737
0.485325
0.487635
0.488553
0.483091
0.471908
0.45737
0.442208
0.428085
0.415193
0.402971
0.3918
0.381396
0.371592
0.361628
0.353009
0.34365
0.337589
0.324735
0.315865
0.307109
0.298364
0.289615
0.280868
0.272131
0.263406
0.25469
0.245983
0.237285
0.22858
0.219667
0.211221
0.202396
0.194001
0.185769
0.178363
0.172007
0.162792
0.152676
0.142847
0.133546
0.124874
0.116226
0.107144
0.0980258
0.0894085
0.0810982
0.072457
0.0639834
0.0555039
0.0467506
0.0377444
0.028571
0.0195599
0.0105739
0.00133482
-0.00749438
-0.0161494
-0.0161494
0
0
0.477501
0.471257
0.471674
0.47437
0.476472
0.474262
0.466907
0.455901
0.443439
0.431035
0.419143
0.407724
0.396831
0.386254
0.37686
0.367212
0.357974
0.348665
0.339201
0.3299
0.320828
0.311882
0.302992
0.294125
0.285273
0.276434
0.267606
0.258786
0.249965
0.241127
0.232236
0.223267
0.214884
0.206152
0.197606
0.189331
0.181454
0.173729
0.164886
0.155336
0.145697
0.136271
0.127181
0.118258
0.109513
0.101411
0.0912054
0.0827315
0.0740294
0.0653239
0.0566064
0.0477725
0.038762
0.029659
0.0205966
0.011585
0.00261362
-0.00615993
-0.0152291
-0.0152291
0
0
0.476194
0.466804
0.463085
0.463185
0.46424
0.462746
0.457375
0.448793
0.43842
0.427622
0.416923
0.406424
0.396186
0.386249
0.376774
0.367635
0.358164
0.349093
0.33966
0.33047
0.321442
0.312504
0.303613
0.29475
0.285905
0.277079
0.268267
0.259462
0.250653
0.241818
0.232897
0.223702
0.215932
0.207065
0.198392
0.189938
0.181655
0.17332
0.164543
0.155385
0.146082
0.136804
0.127606
0.118357
0.108928
0.101183
0.0922287
0.0833159
0.0744661
0.0656945
0.0569811
0.0482263
0.0392455
0.030179
0.0211616
0.0122403
0.00353683
-0.00433775
-0.0108102
-0.0108102
0
0
0.475543
0.464321
0.458076
0.455984
0.455775
0.465019
0.450037
0.442208
0.433003
0.423356
0.413639
0.403937
0.394297
0.384688
0.3752
0.366542
0.357012
0.347817
0.338861
0.329985
0.32115
0.312311
0.303473
0.294648
0.285838
0.277051
0.26828
0.259521
0.250765
0.242016
0.23337
0.225041
0.215271
0.206748
0.198293
0.189858
0.181401
0.172841
0.164069
0.155099
0.146019
0.137389
0.127778
0.118637
0.10957
0.101148
0.0923571
0.0834613
0.0745933
0.0658233
0.0572025
0.0486428
0.0396159
0.0305246
0.0215497
0.0126374
0.00356197
-0.00556491
-0.00854816
-0.00854816
0
0
0.475171
0.462874
0.455106
0.451471
0.44998
0.447691
0.443164
0.4363
0.428113
0.41941
0.410471
0.401376
0.392221
0.382769
0.372453
0.257182
0.353021
0.345535
0.337589
0.329225
0.320674
0.311957
0.303178
0.294399
0.285273
0.276897
0.268174
0.259474
0.25078
0.242058
0.233387
0.224751
0.215654
0.206907
0.198323
0.189776
0.181194
0.172533
0.16376
0.154877
0.145915
0.136907
0.127891
0.118881
0.109944
0.101196
0.0923698
0.0834735
0.0745652
0.0657252
0.0571179
0.0489159
0.0396778
0.0306067
0.0218281
0.013262
0.00487289
-0.00432211
-0.0113948
-0.0113948
0
0
0.474941
0.461981
0.45326
0.448606
0.446197
0.443327
0.438544
0.431877
0.42417
0.416031
0.407702
0.39919
0.39033
0.381422
0.372493
0.364467
0.355353
0.346307
0.337557
0.328842
0.320307
0.311562
0.302806
0.294055
0.28536
0.276659
0.267998
0.259387
0.250813
0.242159
0.233418
0.224654
0.215797
0.207038
0.198357
0.189717
0.181051
0.17234
0.163571
0.154738
0.145851
0.136927
0.127988
0.119052
0.110149
0.101294
0.0924107
0.0834622
0.0744203
0.0652544
0.0560467
0.0482674
0.0387279
0.030121
0.0217827
0.0134518
0.00507256
-0.00359469
-0.0120186
-0.0120186
0
0
0.474792
0.461401
0.452038
0.446724
0.443647
0.440284
0.43519
0.428489
0.42096
0.413116
0.405081
0.396884
0.388539
0.38011
0.371601
0.363404
0.354704
0.345878
0.337139
0.328552
0.319678
0.311
0.30232
0.293613
0.285059
0.276364
0.267755
0.259258
0.250939
0.249881
0.233634
0.224669
0.215848
0.207085
0.198342
0.188668
0.180907
0.172192
0.163446
0.154657
0.145825
0.13696
0.128074
0.11918
0.110293
0.101411
0.0925006
0.0835134
0.074347
0.0647528
0.0541912
-0.0110474
0.0362077
0.0293624
0.0216956
0.0135808
0.00524584
-0.00327897
-0.012018
-0.012018
0
0
0.474695
0.461017
0.451169
0.445469
0.441855
0.438043
0.432642
0.425824
0.418343
0.410663
0.402867
0.394944
0.386921
0.378856
0.370357
0.36202
0.35357
0.345011
0.336398
0.323842
0.31905
0.310469
0.301859
0.293214
0.28459
0.275952
0.267384
0.258949
0.250691
0.24256
0.232994
0.224433
0.21581
0.207099
0.198349
0.189595
0.179638
0.172084
0.163372
0.154622
0.145832
0.137015
0.128163
0.119296
0.110423
0.101547
0.0926553
0.083724
0.0747289
0.0657145
0.0569442
0.0490939
0.0395168
0.0307416
0.0223177
0.0139317
0.00549544
-0.00305183
-0.0118879
-0.0118879
0
0
0.474638
0.460807
0.450859
0.444412
0.440401
0.43627
0.430639
0.423698
0.416207
0.408615
0.400962
0.393215
0.385404
0.377737
0.368957
0.360801
0.352553
0.344196
0.335782
0.327344
0.318742
0.310114
0.301466
0.292795
0.284113
0.27544
0.26686
0.258463
0.250254
0.241366
0.233872
0.225074
0.216144
0.207236
0.198381
0.189581
0.180829
0.172087
0.16337
0.154638
0.145871
0.13711
0.128272
0.119415
0.110555
0.101698
0.0928454
0.0839949
0.0751468
0.0664458
0.0580411
0.0499011
0.0407533
0.0317004
0.0229337
0.0143335
0.00577943
-0.00283032
-0.0117275
-0.0117275
0
0
0.474592
0.46062
0.450392
0.443765
0.43943
0.434991
0.429117
0.42203
0.414477
0.406924
0.39933
0.391651
0.383802
0.375566
0.368291
0.360182
0.351902
0.343531
0.335221
0.32683
0.318304
0.309699
0.301042
0.292335
0.283576
0.274789
0.266105
0.257804
0.250757
0.242342
0.233974
0.22517
0.216208
0.207242
0.19833
0.189491
0.180723
0.172029
0.163377
0.154689
0.145904
0.137307
0.128412
0.119545
0.110687
0.101846
0.093033
0.0842501
0.075419
0.066788
0.0583125
0.0498486
0.0409992
0.0321064
0.0233354
0.0146827
0.00605025
-0.00260489
-0.0115511
-0.0115511
0
0
0.474558
0.460476
0.450091
0.443179
0.43867
0.434009
0.427939
0.42072
0.413124
0.405497
0.397939
0.390331
0.382601
0.374718
0.367088
0.359176
0.351026
0.342695
0.334654
0.32634
0.317847
0.309263
0.300607
0.291864
0.282992
0.273943
0.264784
0.25584
0.253244
0.244183
0.234735
0.225423
0.216244
0.207174
0.198198
0.189328
0.180519
0.171926
0.163426
0.154838
0.146131
0.137389
0.128542
0.119674
0.110811
0.101972
0.0931793
0.0844735
0.0755424
0.0669588
0.0584072
0.0498184
0.0410265
0.0322855
0.0236004
0.0150177
0.0062688
-0.00236794
-0.011348
-0.011348
0
0
0.474535
0.460348
0.449792
0.442856
0.438124
0.433263
0.427018
0.419667
0.411981
0.404344
0.396793
0.389234
0.381606
0.373893
0.366171
0.3583
0.350219
0.341766
0.334236
0.325847
0.31736
0.308808
0.300188
0.291444
0.282476
0.27301
0.262131
0.246768
0.264517
0.247457
0.235765
0.225698
0.21623
0.207031
0.197965
0.189008
0.180215
0.171752
0.163605
0.155151
0.146438
0.137605
0.128714
0.119814
0.110923
0.102056
0.0932022
0.0843432
0.0758562
0.0671764
0.0585446
0.0499891
0.0409587
0.0323935
0.0237694
0.015218
0.00659968
-0.00206514
-0.011077
-0.011077
0
0
0.474552
0.460245
0.449578
0.44256
0.437688
0.432679
0.426276
0.4188
0.411032
0.403368
0.39582
0.388298
0.380742
0.373122
0.365425
0.357623
0.349757
0.342037
0.33313
0.324926
0.316668
0.308303
0.299804
0.291156
0.282311
0.273178
0.263696
0.254705
0.25336
0.24444
0.234719
0.225191
0.21589
0.206731
0.197597
0.188498
0.179577
0.171288
0.164248
0.155872
0.146962
0.137939
0.12893
0.119964
0.111027
0.102139
0.0932817
0.0844631
0.0758166
0.0672605
0.0586137
0.0499411
0.0411814
0.0325708
0.0238452
0.0154129
0.00689686
-0.00167192
-0.0106376
-0.0106376
0
0
0.474645
0.460141
0.449456
0.442388
0.437418
0.432229
0.425642
0.418039
0.410208
0.402525
0.394971
0.387477
0.379985
0.372445
0.364793
0.357019
0.349153
0.341225
0.332848
0.324572
0.316308
0.307978
0.299548
0.291003
0.282338
0.273575
0.264855
0.256745
0.250363
0.24233
0.233521
0.224486
0.215417
0.206351
0.197113
0.187722
0.178213
0.169376
0.16679
0.157568
0.147842
0.13838
0.129161
0.120105
0.111109
0.102211
0.0933446
0.0844912
0.0757109
0.0673821
0.0586967
0.0499733
0.0413233
0.0329389
0.0235148
0.0154325
0.00711316
-0.00110269
-0.00968299
-0.00968299
0
0
0.474343
0.460319
0.44958
0.442467
0.437395
0.430639
0.424978
0.417344
0.409507
0.401838
0.39424
0.38675
0.379321
0.371883
0.364261
0.356474
0.348581
0.34061
0.332469
0.324279
0.316045
0.307748
0.299373
0.290916
0.282393
0.273853
0.267044
0.257111
0.249579
0.241406
0.232771
0.223914
0.214943
0.205934
0.196578
0.186828
0.175696
0.159214
0.178318
0.160723
0.14884
0.138741
0.129303
0.12015
0.111188
0.102278
0.0934115
0.0845217
0.0755007
0.0676134
0.0587154
0.0499403
0.0412629
0.0325993
0.0236059
0.00524584
0.00709161
-0.000356562
-0.00700765
0
0
0
0.47444
0.460045
0.449436
0.442438
0.437475
0.431786
0.424867
0.417074
0.409147
0.401471
0.393647
0.386099
0.37873
0.371434
0.363753
0.355898
0.347981
0.34008
0.332079
0.323986
0.315811
0.30756
0.299235
0.290845
0.282411
0.273973
0.265553
0.256927
0.249495
0.240972
0.232292
0.223471
0.214462
0.197306
0.196155
0.186967
0.17737
0.168151
0.167078
0.154738
0.148004
0.138475
0.12921
0.120123
0.11117
0.102305
0.0935256
0.0848715
0.0764226
0.0667909
0.0582939
0.0497664
0.0412006
0.0326217
0.0240491
0.0157323
0.00729271
-0.000992222
-0.0096524
-0.0096524
0
0
0.474471
0.460159
0.449195
0.442429
0.43764
0.431374
0.424568
0.416809
0.408877
0.401315
0.393007
0.385478
0.378116
0.370856
0.362909
0.355011
0.347159
0.339512
0.331687
0.323704
0.315601
0.307401
0.29912
0.290773
0.282384
0.274034
0.266007
0.25797
0.248656
0.240262
0.231782
0.223177
0.214476
0.205793
0.1968
0.187787
0.178896
0.170658
0.16415
0.156002
0.147088
0.138028
0.128986
0.120007
0.111094
0.102274
0.0935259
0.0848384
0.0761431
0.0670471
0.0583119
0.0497255
0.0411763
0.0326455
0.0241087
0.0156492
0.00709348
-0.00153623
-0.0105709
-0.0105709
0
0
0.47449
0.460227
0.44963
0.441838
0.436106
0.431531
0.424757
0.416864
0.408616
0.400229
0.393048
0.385212
0.377265
0.33779
0.36091
0.353702
0.346186
0.339057
0.331341
0.323449
0.315415
0.307269
0.299025
0.290699
0.282275
0.273593
0.266427
0.257756
0.248844
0.240202
0.231631
0.223038
0.214443
0.205888
0.197149
0.18837
0.179704
0.171363
0.163399
0.155093
0.146447
0.137636
0.128739
0.119863
0.110995
0.102229
0.0934975
0.0847792
0.0760329
0.0671578
0.0583494
0.0497153
0.0411406
0.0326157
0.0239959
0.0154219
0.00681603
-0.00190817
-0.0109824
-0.0109824
0
0
0.474486
0.460194
0.449424
0.441905
0.436423
0.431242
0.424562
0.416743
0.408496
0.400095
0.392415
0.384452
0.346276
0.369157
0.361751
0.354247
0.346837
0.338781
0.331058
0.323232
0.315272
0.30718
0.298965
0.290673
0.282328
0.273971
0.265923
0.257442
0.248804
0.240172
0.231543
0.22291
0.214345
0.206014
0.197407
0.188753
0.18011
0.171594
0.163181
0.154692
0.146078
0.137397
0.128493
0.119764
0.110963
0.102253
0.0935077
0.0847703
0.0760478
0.0672582
0.0584054
0.0497249
0.0410283
0.0324447
0.0237481
0.0151741
0.00657457
-0.00217923
-0.0112326
-0.0112326
0
0
0.47448
0.460166
0.449347
0.441972
0.436642
0.431258
0.424522
0.416826
0.408745
0.399609
0.392029
0.384767
0.378138
0.369944
0.362292
0.354636
0.34697
0.339056
0.331175
0.323261
0.315273
0.307191
0.298947
0.290667
0.282369
0.274058
0.265761
0.257293
0.248749
0.240126
0.231436
0.222681
0.213989
0.206508
0.197755
0.189144
0.180374
0.171703
0.1631
0.154493
0.145844
0.137148
0.12841
0.119776
0.114392
0.102381
0.0935139
0.0847418
0.0760865
0.0674157
0.0634511
0.0497965
0.0407369
0.022057
0.0233094
0.0149584
0.00642394
-0.00240627
-0.0114304
-0.0114304
0
0
0.474477
0.460159
0.449342
0.442034
0.436779
0.431367
0.424524
0.417168
0.410526
0.398032
0.39164
0.384626
0.377698
0.37015
0.362541
0.354874
0.347089
0.339222
0.331307
0.323349
0.315349
0.307307
0.298936
0.290658
0.282403
0.274111
0.265786
0.259462
0.248798
0.240123
0.231335
0.222285
0.212206
0.208866
0.19804
0.189794
0.180602
0.17176
0.16305
0.154375
0.145687
0.136954
0.12821
0.119461
0.110646
0.101965
0.0932349
0.084497
0.0758674
0.0670774
0.0579336
0.0494547
0.0408832
0.0323757
0.0236332
0.0150531
0.00648002
-0.00264853
-0.0116134
-0.0116134
0
0
0.474477
0.460162
0.449359
0.44209
0.436916
0.431771
0.424164
0.416723
0.408899
0.399625
0.392058
0.384856
0.377668
0.370255
0.362704
0.35507
0.347127
0.33933
0.331418
0.32344
0.315437
0.307521
0.298857
0.2907
0.282494
0.274194
0.265812
0.257226
0.248709
0.240113
0.231371
0.222583
0.213797
0.206591
0.197831
0.189275
0.180459
0.171692
0.162977
0.154289
0.145587
0.136783
0.128018
0.119259
0.110476
0.101751
0.0929866
0.0840948
0.066982
0.0668058
0.0574598
0.0493598
0.0408557
0.0323108
0.0236374
0.0150647
0.00668291
-0.00296817
-0.0117065
-0.0117065
0
0
0.474476
0.460165
0.449371
0.442111
0.436908
0.431518
0.424544
0.416694
0.408563
0.40032
0.392659
0.385263
0.377901
0.370443
0.362884
0.355227
0.347405
0.339518
0.331556
0.323524
0.315393
0.307015
0.299335
0.291081
0.282784
0.274344
0.265803
0.257334
0.248786
0.240255
0.231378
0.222828
0.2143
0.206073
0.197553
0.188965
0.180281
0.171578
0.162887
0.154223
0.145559
0.136601
0.127842
0.119127
0.110395
0.101672
0.092943
0.0842093
0.075507
0.0664377
0.0585842
0.0494821
0.0408071
0.0321641
0.0234478
0.0146352
0.00566324
-0.00203501
-0.0113027
-0.0113027
0
0
0.474473
0.460164
0.449375
0.442127
0.436933
0.431568
0.424884
0.416766
0.408612
0.40067
0.393082
0.385653
0.378224
0.370728
0.363153
0.355503
0.347686
0.339738
0.33173
0.323671
0.315571
0.307297
0.300188
0.291148
0.282935
0.274405
0.26582
0.257297
0.248774
0.240232
0.231591
0.223013
0.214469
0.205979
0.197422
0.18881
0.18015
0.171465
0.162781
0.154136
0.145611
0.136353
0.127724
0.119052
0.110343
0.101628
0.0929203
0.0842259
0.0755369
0.066755
0.0583217
0.0495172
0.0407851
0.0320889
0.0233785
0.0146431
0.00591829
-0.00239814
-0.0114065
-0.0114065
0
0
0.474468
0.460155
0.449367
0.442142
0.436981
0.431686
0.425358
0.416761
0.408871
0.401091
0.393631
0.386181
0.37869
0.371133
0.363519
0.35593
0.348054
0.339992
0.331932
0.323842
0.315757
0.307553
0.299307
0.290986
0.28278
0.274081
0.265542
0.257119
0.248697
0.240224
0.231682
0.223117
0.214546
0.205969
0.197364
0.188724
0.180053
0.171357
0.162634
0.153849
0.144917
0.136757
0.12791
0.119087
0.110316
0.101585
0.0928806
0.0841934
0.0755104
0.0668136
0.0581839
0.0494667
0.0407511
0.0320516
0.0233685
0.0147362
0.00594828
-0.00258612
-0.0115358
-0.0115358
0
0
0.47446
0.460129
0.449347
0.442161
0.437021
0.431615
0.424504
0.417759
0.409887
0.408899
0.39462
0.386928
0.379265
0.371595
0.363839
0.356471
0.348424
0.340215
0.33216
0.324025
0.316026
0.307812
0.2994
0.290631
0.254305
0.272954
0.265042
0.25693
0.248657
0.240254
0.231754
0.223194
0.214599
0.205979
0.197335
0.188668
0.179979
0.171272
0.162547
0.153794
0.145031
0.136506
0.127774
0.118992
0.110234
0.101514
0.0928213
0.0841452
0.0754729
0.0667959
0.0581219
0.0494232
0.0407191
0.0320235
0.0233433
0.0146841
0.0060095
-0.00264533
-0.0116034
-0.0116034
0
0
0.474458
0.460045
0.451447
0.442264
0.43717
0.431877
0.425176
0.41788
0.410125
0.402298
0.394739
0.387197
0.379603
0.371973
0.363567
0.356518
0.348135
0.348665
0.332425
0.324177
0.316424
0.308128
0.299774
0.291401
0.283267
0.274535
0.265922
0.257418
0.248936
0.240427
0.231874
0.223281
0.214654
0.205998
0.197319
0.188624
0.179915
0.171198
0.16248
0.153768
0.145064
0.136373
0.127615
0.118846
0.110109
0.101412
0.092746
0.0840942
0.075442
0.066778
0.0580983
0.0494009
0.040698
0.0320038
0.0233222
0.0146528
0.00599885
-0.00267917
-0.0115358
-0.0116393
0
0
0.474548
0.459603
0.449047
0.442167
0.437303
0.432199
0.425722
0.418293
0.410557
0.402849
0.395279
0.387721
0.380056
0.372101
0.363102
0.250434
0.345034
0.338774
0.331935
0.324606
0.316271
0.308185
0.299999
0.291806
0.283479
0.274944
0.266359
0.257775
0.249198
0.240612
0.232008
0.223378
0.214717
0.206021
0.197306
0.18858
0.179847
0.171114
0.162399
0.153727
0.145077
0.136295
0.127458
0.118661
0.109938
0.10128
0.0926575
0.0840481
0.0754304
0.0667858
0.0581073
0.0494016
0.040689
0.0319943
0.0233052
0.0146214
0.005947
-0.00433775
-0.0117039
-0.0117039
0
0
0.475159
0.45773
0.448529
0.442146
0.4376
0.432713
0.426363
0.418913
0.411223
0.403602
0.396061
0.388503
0.380852
0.373061
0.365187
0.358169
0.349488
0.341151
0.333131
0.325141
0.316869
0.30861
0.300362
0.292189
0.28353
0.275102
0.266581
0.258006
0.249397
0.240776
0.232141
0.223486
0.214796
0.206044
0.197284
0.188526
0.179761
0.170995
0.162258
0.153639
0.145127
0.1362
0.127223
0.118384
0.109695
0.101106
0.092557
0.0840163
0.075456
0.066841
0.0581602
0.0494296
0.0406884
0.0319974
0.0224399
0.0145935
0.00594379
-0.00274482
-0.0121816
-0.0117267
0
0
0.474625
0.45977
0.449405
0.442757
0.438203
0.433454
0.427253
0.419675
0.412079
0.404528
0.397022
0.389472
0.381829
0.374099
0.366369
0.358842
0.350642
0.342304
0.334019
0.325756
0.317423
0.309057
0.30064
0.29209
0.283997
0.275464
0.266864
0.258234
0.249576
0.240927
0.232275
0.223611
0.214912
0.206055
0.197242
0.188454
0.179651
0.170816
0.161956
0.153324
0.145099
0.135794
0.126676
0.117883
0.10932
0.100883
0.0924501
0.0840141
0.0755544
0.066982
0.0582851
0.0494983
0.0406926
0.0320774
0.0233334
0.0145984
0.00592237
-0.00277027
-0.0117162
-0.0117162
0
0
0.474532
0.460329
0.449978
0.44336
0.437418
0.434447
0.428899
0.420394
0.413135
0.40568
0.398191
0.390619
0.382925
0.373122
0.367274
0.35941
0.351282
0.343009
0.334687
0.32634
0.317951
0.30951
0.301029
0.292519
0.284142
0.275633
0.267044
0.258422
0.249701
0.24106
0.232401
0.223755
0.21511
0.206019
0.197171
0.188384
0.17954
0.170616
0.161296
0.152195
0.143896
0.134043
0.125323
0.116958
0.108742
0.100648
0.0923623
0.0840569
0.0758127
0.0672916
0.0585392
0.0496529
0.0406849
0.0321888
0.0233193
0.0145512
0.00586676
-0.00282463
-0.0117579
-0.0117579
0
0
0.474569
0.460604
0.450434
0.444028
0.439848
0.435529
0.429747
0.4223
0.414806
0.407276
0.399707
0.392018
0.384202
0.376282
0.368273
0.360182
0.351975
0.343673
0.335314
0.326918
0.318485
0.309959
0.301416
0.29288
0.284371
0.275814
0.26721
0.258569
0.249881
0.241193
0.232505
0.223861
0.215406
0.205857
0.19717
0.188395
0.179489
0.170357
0.160652
0.149536
0.0314507
0.129506
0.123243
0.115684
0.107894
0.10067
0.0923676
0.0840532
0.0765143
0.0679661
0.0590164
0.0500262
0.0411456
0.0318554
0.0231199
0.0144265
0.00577008
-0.00290391
-0.0118157
-0.0118157
0
0
0.474625
0.460835
0.450899
0.444773
0.440891
0.436856
0.43129
0.424309
0.416825
0.409201
0.4015
0.393621
0.385615
0.377511
0.369327
0.361076
0.352754
0.344374
0.335952
0.327505
0.319039
0.310375
0.301755
0.293186
0.284627
0.276014
0.267388
0.258727