# vtk DataFile Version 2.0
FlowField
ASCII
DATASET STRUCTURED_GRID
DIMENSIONS 62 47 32 
POINTS 93248 double
0 0 0
0.01 0 0
0.02 0 0
0.03 0 0
0.04 0 0
0.05 0 0
0.06 0 0
0.07 0 0
0.08 0 0
0.09 0 0
0.1 0 0
0.11 0 0
0.12 0 0
0.13 0 0
0.14 0 0
0.15 0 0
0.16 0 0
0.17 0 0
0.18 0 0
0.19 0 0
0.2 0 0
0.21 0 0
0.22 0 0
0.23 0 0
0.24 0 0
0.25 0 0
0.26 0 0
0.27 0 0
0.28 0 0
0.29 0 0
0.3 0 0
0.31 0 0
0.32 0 0
0.33 0 0
0.34 0 0
0.35 0 0
0.36 0 0
0.37 0 0
0.38 0 0
0.39 0 0
0.4 0 0
0.41 0 0
0.42 0 0
0.43 0 0
0.44 0 0
0.45 0 0
0.46 0 0
0.47 0 0
0.48 0 0
0.49 0 0
0.5 0 0
0.51 0 0
0.52 0 0
0.53 0 0
0.54 0 0
0.55 0 0
0.56 0 0
0.57 0 0
0.58 0 0
0.59 0 0
0.6 0 0
0.61 0 0
0 0.01 0
0.01 0.01 0
0.02 0.01 0
0.03 0.01 0
0.04 0.01 0
0.05 0.01 0
0.06 0.01 0
0.07 0.01 0
0.08 0.01 0
0.09 0.01 0
0.1 0.01 0
0.11 0.01 0
0.12 0.01 0
0.13 0.01 0
0.14 0.01 0
0.15 0.01 0
0.16 0.01 0
0.17 0.01 0
0.18 0.01 0
0.19 0.01 0
0.2 0.01 0
0.21 0.01 0
0.22 0.01 0
0.23 0.01 0
0.24 0.01 0
0.25 0.01 0
0.26 0.01 0
0.27 0.01 0
0.28 0.01 0
0.29 0.01 0
0.3 0.01 0
0.31 0.01 0
0.32 0.01 0
0.33 0.01 0
0.34 0.01 0
0.35 0.01 0
0.36 0.01 0
0.37 0.01 0
0.38 0.01 0
0.39 0.01 0
0.4 0.01 0
0.41 0.01 0
0.42 0.01 0
0.43 0.01 0
0.44 0.01 0
0.45 0.01 0
0.46 0.01 0
0.47 0.01 0
0.48 0.01 0
0.49 0.01 0
0.5 0.01 0
0.51 0.01 0
0.52 0.01 0
0.53 0.01 0
0.54 0.01 0
0.55 0.01 0
0.56 0.01 0
0.57 0.01 0
0.58 0.01 0
0.59 0.01 0
0.6 0.01 0
0.61 0.01 0
0 0.02 0
0.01 0.02 0
0.02 0.02 0
0.03 0.02 0
0.04 0.02 0
0.05 0.02 0
0.06 0.02 0
0.07 0.02 0
0.08 0.02 0
0.09 0.02 0
0.1 0.02 0
0.11 0.02 0
0.12 0.02 0
0.13 0.02 0
0.14 0.02 0
0.15 0.02 0
0.16 0.02 0
0.17 0.02 0
0.18 0.02 0
0.19 0.02 0
0.2 0.02 0
0.21 0.02 0
0.22 0.02 0
0.23 0.02 0
0.24 0.02 0
0.25 0.02 0
0.26 0.02 0
0.27 0.02 0
0.28 0.02 0
0.29 0.02 0
0.3 0.02 0
0.31 0.02 0
0.32 0.02 0
0.33 0.02 0
0.34 0.02 0
0.35 0.02 0
0.36 0.02 0
0.37 0.02 0
0.38 0.02 0
0.39 0.02 0
0.4 0.02 0
0.41 0.02 0
0.42 0.02 0
0.43 0.02 0
0.44 0.02 0
0.45 0.02 0
0.46 0.02 0
0.47 0.02 0
0.48 0.02 0
0.49 0.02 0
0.5 0.02 0
0.51 0.02 0
0.52 0.02 0
0.53 0.02 0
0.54 0.02 0
0.55 0.02 0
0.56 0.02 0
0.57 0.02 0
0.58 0.02 0
0.59 0.02 0
0.6 0.02 0
0.61 0.02 0
0 0.03 0
0.01 0.03 0
0.02 0.03 0
0.03 0.03 0
0.04 0.03 0
0.05 0.03 0
0.06 0.03 0
0.07 0.03 0
0.08 0.03 0
0.09 0.03 0
0.1 0.03 0
0.11 0.03 0
0.12 0.03 0
0.13 0.03 0
0.14 0.03 0
0.15 0.03 0
0.16 0.03 0
0.17 0.03 0
0.18 0.03 0
0.19 0.03 0
0.2 0.03 0
0.21 0.03 0
0.22 0.03 0
0.23 0.03 0
0.24 0.03 0
0.25 0.03 0
0.26 0.03 0
0.27 0.03 0
0.28 0.03 0
0.29 0.03 0
0.3 0.03 0
0.31 0.03 0
0.32 0.03 0
0.33 0.03 0
0.34 0.03 0
0.35 0.03 0
0.36 0.03 0
0.37 0.03 0
0.38 0.03 0
0.39 0.03 0
0.4 0.03 0
0.41 0.03 0
0.42 0.03 0
0.43 0.03 0
0.44 0.03 0
0.45 0.03 0
0.46 0.03 0
0.47 0.03 0
0.48 0.03 0
0.49 0.03 0
0.5 0.03 0
0.51 0.03 0
0.52 0.03 0
0.53 0.03 0
0.54 0.03 0
0.55 0.03 0
0.56 0.03 0
0.57 0.03 0
0.58 0.03 0
0.59 0.03 0
0.6 0.03 0
0.61 0.03 0
0 0.04 0
0.01 0.04 0
0.02 0.04 0
0.03 0.04 0
0.04 0.04 0
0.05 0.04 0
0.06 0.04 0
0.07 0.04 0
0.08 0.04 0
0.09 0.04 0
0.1 0.04 0
0.11 0.04 0
0.12 0.04 0
0.13 0.04 0
0.14 0.04 0
0.15 0.04 0
0.16 0.04 0
0.17 0.04 0
0.18 0.04 0
0.19 0.04 0
0.2 0.04 0
0.21 0.04 0
0.22 0.04 0
0.23 0.04 0
0.24 0.04 0
0.25 0.04 0
0.26 0.04 0
0.27 0.04 0
0.28 0.04 0
0.29 0.04 0
0.3 0.04 0
0.31 0.04 0
0.32 0.04 0
0.33 0.04 0
0.34 0.04 0
0.35 0.04 0
0.36 0.04 0
0.37 0.04 0
0.38 0.04 0
0.39 0.04 0
0.4 0.04 0
0.41 0.04 0
0.42 0.04 0
0.43 0.04 0
0.44 0.04 0
0.45 0.04 0
0.46 0.04 0
0.47 0.04 0
0.48 0.04 0
0.49 0.04 0
0.5 0.04 0
0.51 0.04 0
0.52 0.04 0
0.53 0.04 0
0.54 0.04 0
0.55 0.04 0
0.56 0.04 0
0.57 0.04 0
0.58 0.04 0
0.59 0.04 0
0.6 0.04 0
0.61 0.04 0
0 0.05 0
0.01 0.05 0
0.02 0.05 0
0.03 0.05 0
0.04 0.05 0
0.05 0.05 0
0.06 0.05 0
0.07 0.05 0
0.08 0.05 0
0.09 0.05 0
0.1 0.05 0
0.11 0.05 0
0.12 0.05 0
0.13 0.05 0
0.14 0.05 0
0.15 0.05 0
0.16 0.05 0
0.17 0.05 0
0.18 0.05 0
0.19 0.05 0
0.2 0.05 0
0.21 0.05 0
0.22 0.05 0
0.23 0.05 0
0.24 0.05 0
0.25 0.05 0
0.26 0.05 0
0.27 0.05 0
0.28 0.05 0
0.29 0.05 0
0.3 0.05 0
0.31 0.05 0
0.32 0.05 0
0.33 0.05 0
0.34 0.05 0
0.35 0.05 0
0.36 0.05 0
0.37 0.05 0
0.38 0.05 0
0.39 0.05 0
0.4 0.05 0
0.41 0.05 0
0.42 0.05 0
0.43 0.05 0
0.44 0.05 0
0.45 0.05 0
0.46 0.05 0
0.47 0.05 0
0.48 0.05 0
0.49 0.05 0
0.5 0.05 0
0.51 0.05 0
0.52 0.05 0
0.53 0.05 0
0.54 0.05 0
0.55 0.05 0
0.56 0.05 0
0.57 0.05 0
0.58 0.05 0
0.59 0.05 0
0.6 0.05 0
0.61 0.05 0
0 0.06 0
0.01 0.06 0
0.02 0.06 0
0.03 0.06 0
0.04 0.06 0
0.05 0.06 0
0.06 0.06 0
0.07 0.06 0
0.08 0.06 0
0.09 0.06 0
0.1 0.06 0
0.11 0.06 0
0.12 0.06 0
0.13 0.06 0
0.14 0.06 0
0.15 0.06 0
0.16 0.06 0
0.17 0.06 0
0.18 0.06 0
0.19 0.06 0
0.2 0.06 0
0.21 0.06 0
0.22 0.06 0
0.23 0.06 0
0.24 0.06 0
0.25 0.06 0
0.26 0.06 0
0.27 0.06 0
0.28 0.06 0
0.29 0.06 0
0.3 0.06 0
0.31 0.06 0
0.32 0.06 0
0.33 0.06 0
0.34 0.06 0
0.35 0.06 0
0.36 0.06 0
0.37 0.06 0
0.38 0.06 0
0.39 0.06 0
0.4 0.06 0
0.41 0.06 0
0.42 0.06 0
0.43 0.06 0
0.44 0.06 0
0.45 0.06 0
0.46 0.06 0
0.47 0.06 0
0.48 0.06 0
0.49 0.06 0
0.5 0.06 0
0.51 0.06 0
0.52 0.06 0
0.53 0.06 0
0.54 0.06 0
0.55 0.06 0
0.56 0.06 0
0.57 0.06 0
0.58 0.06 0
0.59 0.06 0
0.6 0.06 0
0.61 0.06 0
0 0.07 0
0.01 0.07 0
0.02 0.07 0
0.03 0.07 0
0.04 0.07 0
0.05 0.07 0
0.06 0.07 0
0.07 0.07 0
0.08 0.07 0
0.09 0.07 0
0.1 0.07 0
0.11 0.07 0
0.12 0.07 0
0.13 0.07 0
0.14 0.07 0
0.15 0.07 0
0.16 0.07 0
0.17 0.07 0
0.18 0.07 0
0.19 0.07 0
0.2 0.07 0
0.21 0.07 0
0.22 0.07 0
0.23 0.07 0
0.24 0.07 0
0.25 0.07 0
0.26 0.07 0
0.27 0.07 0
0.28 0.07 0
0.29 0.07 0
0.3 0.07 0
0.31 0.07 0
0.32 0.07 0
0.33 0.07 0
0.34 0.07 0
0.35 0.07 0
0.36 0.07 0
0.37 0.07 0
0.38 0.07 0
0.39 0.07 0
0.4 0.07 0
0.41 0.07 0
0.42 0.07 0
0.43 0.07 0
0.44 0.07 0
0.45 0.07 0
0.46 0.07 0
0.47 0.07 0
0.48 0.07 0
0.49 0.07 0
0.5 0.07 0
0.51 0.07 0
0.52 0.07 0
0.53 0.07 0
0.54 0.07 0
0.55 0.07 0
0.56 0.07 0
0.57 0.07 0
0.58 0.07 0
0.59 0.07 0
0.6 0.07 0
0.61 0.07 0
0 0.08 0
0.01 0.08 0
0.02 0.08 0
0.03 0.08 0
0.04 0.08 0
0.05 0.08 0
0.06 0.08 0
0.07 0.08 0
0.08 0.08 0
0.09 0.08 0
0.1 0.08 0
0.11 0.08 0
0.12 0.08 0
0.13 0.08 0
0.14 0.08 0
0.15 0.08 0
0.16 0.08 0
0.17 0.08 0
0.18 0.08 0
0.19 0.08 0
0.2 0.08 0
0.21 0.08 0
0.22 0.08 0
0.23 0.08 0
0.24 0.08 0
0.25 0.08 0
0.26 0.08 0
0.27 0.08 0
0.28 0.08 0
0.29 0.08 0
0.3 0.08 0
0.31 0.08 0
0.32 0.08 0
0.33 0.08 0
0.34 0.08 0
0.35 0.08 0
0.36 0.08 0
0.37 0.08 0
0.38 0.08 0
0.39 0.08 0
0.4 0.08 0
0.41 0.08 0
0.42 0.08 0
0.43 0.08 0
0.44 0.08 0
0.45 0.08 0
0.46 0.08 0
0.47 0.08 0
0.48 0.08 0
0.49 0.08 0
0.5 0.08 0
0.51 0.08 0
0.52 0.08 0
0.53 0.08 0
0.54 0.08 0
0.55 0.08 0
0.56 0.08 0
0.57 0.08 0
0.58 0.08 0
0.59 0.08 0
0.6 0.08 0
0.61 0.08 0
0 0.09 0
0.01 0.09 0
0.02 0.09 0
0.03 0.09 0
0.04 0.09 0
0.05 0.09 0
0.06 0.09 0
0.07 0.09 0
0.08 0.09 0
0.09 0.09 0
0.1 0.09 0
0.11 0.09 0
0.12 0.09 0
0.13 0.09 0
0.14 0.09 0
0.15 0.09 0
0.16 0.09 0
0.17 0.09 0
0.18 0.09 0
0.19 0.09 0
0.2 0.09 0
0.21 0.09 0
0.22 0.09 0
0.23 0.09 0
0.24 0.09 0
0.25 0.09 0
0.26 0.09 0
0.27 0.09 0
0.28 0.09 0
0.29 0.09 0
0.3 0.09 0
0.31 0.09 0
0.32 0.09 0
0.33 0.09 0
0.34 0.09 0
0.35 0.09 0
0.36 0.09 0
0.37 0.09 0
0.38 0.09 0
0.39 0.09 0
0.4 0.09 0
0.41 0.09 0
0.42 0.09 0
0.43 0.09 0
0.44 0.09 0
0.45 0.09 0
0.46 0.09 0
0.47 0.09 0
0.48 0.09 0
0.49 0.09 0
0.5 0.09 0
0.51 0.09 0
0.52 0.09 0
0.53 0.09 0
0.54 0.09 0
0.55 0.09 0
0.56 0.09 0
0.57 0.09 0
0.58 0.09 0
0.59 0.09 0
0.6 0.09 0
0.61 0.09 0
0 0.1 0
0.01 0.1 0
0.02 0.1 0
0.03 0.1 0
0.04 0.1 0
0.05 0.1 0
0.06 0.1 0
0.07 0.1 0
0.08 0.1 0
0.09 0.1 0
0.1 0.1 0
0.11 0.1 0
0.12 0.1 0
0.13 0.1 0
0.14 0.1 0
0.15 0.1 0
0.16 0.1 0
0.17 0.1 0
0.18 0.1 0
0.19 0.1 0
0.2 0.1 0
0.21 0.1 0
0.22 0.1 0
0.23 0.1 0
0.24 0.1 0
0.25 0.1 0
0.26 0.1 0
0.27 0.1 0
0.28 0.1 0
0.29 0.1 0
0.3 0.1 0
0.31 0.1 0
0.32 0.1 0
0.33 0.1 0
0.34 0.1 0
0.35 0.1 0
0.36 0.1 0
0.37 0.1 0
0.38 0.1 0
0.39 0.1 0
0.4 0.1 0
0.41 0.1 0
0.42 0.1 0
0.43 0.1 0
0.44 0.1 0
0.45 0.1 0
0.46 0.1 0
0.47 0.1 0
0.48 0.1 0
0.49 0.1 0
0.5 0.1 0
0.51 0.1 0
0.52 0.1 0
0.53 0.1 0
0.54 0.1 0
0.55 0.1 0
0.56 0.1 0
0.57 0.1 0
0.58 0.1 0
0.59 0.1 0
0.6 0.1 0
0.61 0.1 0
0 0.11 0
0.01 0.11 0
0.02 0.11 0
0.03 0.11 0
0.04 0.11 0
0.05 0.11 0
0.06 0.11 0
0.07 0.11 0
0.08 0.11 0
0.09 0.11 0
0.1 0.11 0
0.11 0.11 0
0.12 0.11 0
0.13 0.11 0
0.14 0.11 0
0.15 0.11 0
0.16 0.11 0
0.17 0.11 0
0.18 0.11 0
0.19 0.11 0
0.2 0.11 0
0.21 0.11 0
0.22 0.11 0
0.23 0.11 0
0.24 0.11 0
0.25 0.11 0
0.26 0.11 0
0.27 0.11 0
0.28 0.11 0
0.29 0.11 0
0.3 0.11 0
0.31 0.11 0
0.32 0.11 0
0.33 0.11 0
0.34 0.11 0
0.35 0.11 0
0.36 0.11 0
0.37 0.11 0
0.38 0.11 0
0.39 0.11 0
0.4 0.11 0
0.41 0.11 0
0.42 0.11 0
0.43 0.11 0
0.44 0.11 0
0.45 0.11 0
0.46 0.11 0
0.47 0.11 0
0.48 0.11 0
0.49 0.11 0
0.5 0.11 0
0.51 0.11 0
0.52 0.11 0
0.53 0.11 0
0.54 0.11 0
0.55 0.11 0
0.56 0.11 0
0.57 0.11 0
0.58 0.11 0
0.59 0.11 0
0.6 0.11 0
0.61 0.11 0
0 0.12 0
0.01 0.12 0
0.02 0.12 0
0.03 0.12 0
0.04 0.12 0
0.05 0.12 0
0.06 0.12 0
0.07 0.12 0
0.08 0.12 0
0.09 0.12 0
0.1 0.12 0
0.11 0.12 0
0.12 0.12 0
0.13 0.12 0
0.14 0.12 0
0.15 0.12 0
0.16 0.12 0
0.17 0.12 0
0.18 0.12 0
0.19 0.12 0
0.2 0.12 0
0.21 0.12 0
0.22 0.12 0
0.23 0.12 0
0.24 0.12 0
0.25 0.12 0
0.26 0.12 0
0.27 0.12 0
0.28 0.12 0
0.29 0.12 0
0.3 0.12 0
0.31 0.12 0
0.32 0.12 0
0.33 0.12 0
0.34 0.12 0
0.35 0.12 0
0.36 0.12 0
0.37 0.12 0
0.38 0.12 0
0.39 0.12 0
0.4 0.12 0
0.41 0.12 0
0.42 0.12 0
0.43 0.12 0
0.44 0.12 0
0.45 0.12 0
0.46 0.12 0
0.47 0.12 0
0.48 0.12 0
0.49 0.12 0
0.5 0.12 0
0.51 0.12 0
0.52 0.12 0
0.53 0.12 0
0.54 0.12 0
0.55 0.12 0
0.56 0.12 0
0.57 0.12 0
0.58 0.12 0
0.59 0.12 0
0.6 0.12 0
0.61 0.12 0
0 0.13 0
0.01 0.13 0
0.02 0.13 0
0.03 0.13 0
0.04 0.13 0
0.05 0.13 0
0.06 0.13 0
0.07 0.13 0
0.08 0.13 0
0.09 0.13 0
0.1 0.13 0
0.11 0.13 0
0.12 0.13 0
0.13 0.13 0
0.14 0.13 0
0.15 0.13 0
0.16 0.13 0
0.17 0.13 0
0.18 0.13 0
0.19 0.13 0
0.2 0.13 0
0.21 0.13 0
0.22 0.13 0
0.23 0.13 0
0.24 0.13 0
0.25 0.13 0
0.26 0.13 0
0.27 0.13 0
0.28 0.13 0
0.29 0.13 0
0.3 0.13 0
0.31 0.13 0
0.32 0.13 0
0.33 0.13 0
0.34 0.13 0
0.35 0.13 0
0.36 0.13 0
0.37 0.13 0
0.38 0.13 0
0.39 0.13 0
0.4 0.13 0
0.41 0.13 0
0.42 0.13 0
0.43 0.13 0
0.44 0.13 0
0.45 0.13 0
0.46 0.13 0
0.47 0.13 0
0.48 0.13 0
[...]
POINT_DATA 93248

SCALARS w double
LOOKUP_TABLE default
0
0
0
0
0
0
0
0
0
0
0
0
0
-0.0835064
0
0
0
0
0
0
0
0
0
0
0
0
-0.197207
0
0
0
0
0
-0.197174
0
0
0
0
0
0
0
0
0
0
0
0
0
-0.174143
0
0
0
0
0
0
0
0
0
0
0
0
0
0
0
0
-0.0246993
-0.048177
-0.0647086
-0.0747354
-0.0803312
-0.0845993
-0.0879508
-0.0906257
-0.0925494
-0.0935281
-0.0933023
-0.0919655
-0.092572
-0.0937652
-0.0948206
-0.095647
-0.0963819
-0.0964816
-0.0949994
-0.0888989
-0.0895686
-0.0925423
-0.0913512
-0.0903231
-0.0896429
-0.0891093
-0.0886187
-0.0881317
-0.08761
-0.0869603
-0.0860013
-0.0847507
-0.0849759
-0.0850142
-0.084054
-0.0826553
-0.0839495
-0.0857457
-0.0887355
-0.082076
-0.0840618
-0.0868438
-0.0889005
-0.0921831
-0.200908
-0.0868459
-0.0856405
-0.0855816
-0.0866444
-0.0878437
-0.0895124
-0.0896835
-0.0922592
-0.201573
-0.0902879
-0.0839986
-0.0833289
-0.0832655
-0.0815191
-0.0779301
0
0
-0.0285409
-0.0664732
-0.089991
-0.108063
-0.121768
-0.136924
-0.149796
-0.160306
-0.168751
-0.175173
-0.179048
-0.179758
-0.182578
-0.184669
-0.186038
-0.187019
-0.188124
-0.188684
-0.188701
-0.1772
-0.179522
-0.235852
-0.180455
-0.177265
-0.175582
-0.17435
-0.173288
-0.172302
-0.171347
-0.170368
-0.169186
-0.167279
-0.167929
-0.16769
-0.166386
-0.166754
-0.165755
-0.166037
-0.168781
-0.166995
-0.169129
-0.170679
-0.172689
-0.176881
-0.182652
-0.178255
-0.172164
-0.170337
-0.170221
-0.171916
-0.201994
-0.174877
-0.177164
-0.181762
-0.176243
-0.172365
-0.166048
-0.162752
-0.156747
-0.147871
0
0
-0.0283171
-0.0664242
-0.0924305
-0.113259
-0.0803312
-0.146636
-0.164327
-0.17908
-0.191944
-0.203303
-0.212174
-0.221354
-0.22395
-0.225513
-0.226337
-0.227078
-0.228305
-0.228256
-0.22886
-0.227902
-0.223672
-0.223171
-0.219024
-0.21592
-0.213715
-0.212011
-0.21058
-0.209318
-0.208206
-0.207339
-0.207095
-0.208387
-0.219962
-0.205702
-0.20202
-0.201749
-0.201382
-0.201522
-0.202785
-0.203002
-0.204262
-0.205914
-0.206427
-0.209156
-0.211787
-0.209571
-0.207187
-0.205692
-0.205917
-0.206785
-0.208895
-0.208888
-0.209945
-0.211085
-0.210243
-0.208924
-0.206517
-0.198996
-0.189849
-0.178281
0
0
-0.0277846
-0.0651327
-0.0663296
-0.114431
-0.133195
-0.152066
-0.168683
-0.183576
-0.197123
-0.209465
-0.220172
-0.229502
-0.235426
-0.23878
-0.239786
-0.240629
-0.239531
-0.240105
-0.240666
-0.238925
-0.236533
-0.234245
-0.231554
-0.229047
-0.226888
-0.225045
-0.223445
-0.22204
-0.220829
-0.219878
-0.219313
-0.219123
-0.218284
-0.216795
-0.214721
-0.213844
-0.213432
-0.214085
-0.213789
-0.214252
-0.214992
-0.215885
-0.216325
-0.217417
-0.218446
-0.21834
-0.217088
-0.216313
-0.216433
-0.216876
-0.217603
-0.218141
-0.218739
-0.219284
-0.219601
-0.219088
-0.216698
-0.210568
-0.201001
-0.188443
0
0
-0.0276442
-0.065265
-0.0930788
-0.11706
-0.137028
-0.15496
-0.170894
-0.18534
-0.19859
-0.21064
-0.2213
-0.230288
-0.236978
-0.240781
-0.212921
-0.243373
-0.243617
-0.243057
-0.242307
-0.240411
-0.238191
-0.235852
-0.233527
-0.231322
-0.229297
-0.227484
-0.22585
-0.224385
-0.223098
-0.222
-0.221043
-0.219962
-0.218262
-0.217533
-0.216744
-0.216081
-0.215599
-0.215328
-0.21531
-0.215501
-0.215834
-0.216207
-0.21645
-0.216773
-0.217219
-0.218263
-0.216805
-0.216503
-0.21671
-0.217077
-0.217531
-0.218057
-0.218616
-0.219188
-0.219641
-0.219279
-0.216977
-0.211372
-0.201726
-0.189092
0
0
-0.027595
-0.0653407
-0.0942161
-0.118184
-0.138645
-0.156762
-0.172305
-0.186489
-0.199519
-0.211248
-0.221477
-0.23001
-0.236655
-0.240847
-0.242064
-0.243367
-0.243529
-0.237168
-0.241205
-0.239266
-0.236903
-0.234515
-0.232234
-0.230094
-0.22811
-0.226353
-0.224725
-0.223235
-0.221907
-0.22074
-0.21966
-0.218379
-0.215981
-0.216147
-0.215777
-0.215149
-0.214545
-0.214085
-0.21381
-0.213711
-0.213732
-0.213791
-0.213746
-0.213575
-0.212935
-0.211261
-0.212482
-0.213365
-0.21395
-0.214415
-0.214873
-0.215409
-0.216039
-0.216673
-0.217093
-0.216645
-0.214032
-0.207338
-0.19539
-0.184531
0
0
-0.0275426
-0.0652663
-0.0943523
-0.118457
-0.139243
-0.158064
-0.172775
-0.187211
-0.200255
-0.211727
-0.221504
-0.229465
-0.23608
-0.240365
-0.242165
-0.241894
-0.242034
-0.241459
-0.239973
-0.237705
-0.235149
-0.232682
-0.230373
-0.2282
-0.226159
-0.224504
-0.222872
-0.221358
-0.220026
-0.218908
-0.218032
-0.217686
-0.218897
-0.216765
-0.215017
-0.213763
-0.212849
-0.212189
-0.211733
-0.211441
-0.211268
-0.211159
-0.210898
-0.210631
-0.210155
-0.209573
-0.209981
-0.210582
-0.211112
-0.211568
-0.212027
-0.21259
-0.213324
-0.214021
-0.214429
-0.213887
-0.210658
-0.200229
-0.0815191
-0.17716
0
0
-0.0274772
-0.0651034
-0.0941628
-0.118264
-0.139047
-0.157515
-0.173287
-0.187669
-0.200577
-0.211797
-0.22098
-0.227519
-0.234957
-0.239388
-0.240839
-0.238455
-0.211398
-0.240085
-0.238632
-0.236242
-0.233465
-0.231003
-0.228692
-0.226454
-0.224236
-0.222821
-0.221126
-0.219577
-0.218276
-0.217261
-0.21647
-0.215947
-0.215713
-0.21452
-0.213172
-0.211999
-0.211043
-0.210311
-0.209773
-0.209388
-0.209111
-0.208894
-0.208651
-0.208429
-0.208209
-0.208085
-0.20823
-0.208535
-0.208887
-0.209244
-0.209638
-0.210179
-0.211107
-0.211906
-0.212412
-0.212195
-0.210252
-0.204595
-0.189885
-0.180405
0
0
-0.0274065
-0.0649076
-0.0938681
-0.117888
-0.138588
-0.156896
-0.173099
-0.187631
-0.20053
-0.211524
-0.219651
-0.179758
-0.232084
-0.237926
-0.240017
-0.239289
-0.238794
-0.238629
-0.237117
-0.234778
-0.231882
-0.229628
-0.227338
-0.225029
-0.222723
-0.221058
-0.219425
-0.21794
-0.216737
-0.215905
-0.215129
-0.214264
-0.213317
-0.212223
-0.211134
-0.210163
-0.209275
-0.208567
-0.208037
-0.20764
-0.207338
-0.207101
-0.206906
-0.206759
-0.206674
-0.206679
-0.206783
-0.206971
-0.207206
-0.207456
-0.207728
-0.206761
-0.209451
-0.210375
-0.210987
-0.211009
-0.20959
-0.205122
-0.195212
-0.181325
0
0
-0.0273387
-0.0647137
-0.0935612
-0.117478
-0.138096
-0.156347
-0.172676
-0.18733
-0.20032
-0.211417
-0.220099
-0.22554
-0.232735
-0.237564
-0.239932
-0.240082
-0.239291
-0.237899
-0.235906
-0.233653
-0.231696
-0.228955
-0.226316
-0.223771
-0.217926
-0.219476
-0.217852
-0.216387
-0.215275
-0.214737
-0.214008
-0.212751
-0.211417
-0.210241
-0.209256
-0.208462
-0.207623
-0.206963
-0.206497
-0.206144
-0.205865
-0.205648
-0.2055
-0.205416
-0.205396
-0.205446
-0.205558
-0.205724
-0.205922
-0.206119
-0.206348
-0.206761
-0.208384
-0.209272
-0.209936
-0.210097
-0.208919
-0.204919
-0.196028
-0.181661
0
0
-0.0272788
-0.0645415
-0.0932864
-0.117101
-0.137664
-0.155886
-0.172256
-0.186992
-0.200107
-0.21145
-0.220787
-0.228085
-0.233977
-0.238029
-0.240425
-0.240419
-0.239138
-0.237155
-0.234787
-0.232343
-0.229989
-0.227503
-0.225019
-0.222571
-0.220139
-0.218161
-0.216337
-0.214759
-0.213514
-0.212763
-0.212853
-0.210768
-0.209274
-0.208226
-0.20742
-0.206769
-0.206199
-0.205504
-0.205127
-0.204838
-0.204587
-0.204379
-0.204295
-0.204274
-0.204303
-0.204387
-0.204527
-0.204725
-0.204958
-0.205173
-0.205481
-0.206085
-0.207295
-0.208283
-0.209054
-0.209327
-0.208286
-0.204469
-0.195819
-0.181561
0
0
-0.0272293
-0.0644011
-0.0930748
-0.116883
-0.137361
-0.155538
-0.171911
-0.1867
-0.199924
-0.211466
-0.22113
-0.228813
-0.234465
-0.238189
-0.240772
-0.240007
-0.23833
-0.236098
-0.233514
-0.230951
-0.228508
-0.226121
-0.22376
-0.22141
-0.219082
-0.216838
-0.2147
-0.212787
-0.210954
-0.209246
-0.206233
-0.206347
-0.206314
-0.206015
-0.205597
-0.205152
-0.204719
-0.204252
-0.203926
-0.203665
-0.203392
-0.203054
-0.203151
-0.203245
-0.203342
-0.20347
-0.203654
-0.203917
-0.204246
-0.204486
-0.204857
-0.205504
-0.20645
-0.207429
-0.208277
-0.208652
-0.207722
-0.204009
-0.195466
-0.18128
0
0
-0.0271895
-0.0642893
-0.0929064
-0.116687
-0.137095
-0.155238
-0.171615
-0.186444
-0.199746
-0.211413
-0.221184
-0.228893
-0.234349
-0.237353
-0.237245
-0.237629
-0.236717
-0.234745
-0.232067
-0.229583
-0.227271
-0.225006
-0.222716
-0.220366
-0.217926
-0.215356
-0.212644
-0.209842
-0.206141
-0.205115
-0.204298
-0.204242
-0.204284
-0.204204
-0.203991
-0.203695
-0.203385
-0.203023
-0.20276
-0.202521
-0.20213
-0.195536
-0.201927
-0.202271
-0.202469
-0.202654
-0.202882
-0.203216
-0.203691
-0.203871
-0.204265
-0.204943
-0.205833
-0.206774
-0.207652
-0.208103
-0.207278
-0.203627
-0.195141
-0.180952
0
0
-0.0271582
-0.0642042
-0.092795
-0.118264
-0.136938
-0.155003
-0.171369
-0.18622
-0.199556
-0.211227
-0.221068
-0.228776
-0.234153
-0.237127
-0.237854
-0.237553
-0.236228
-0.233961
-0.230745
-0.22852
-0.22647
-0.224311
-0.222009
-0.219548
-0.216852
-0.21373
-0.209788
-0.204044
-0.190714
-0.195824
-0.19946
-0.201342
-0.202236
-0.202574
-0.202571
-0.202386
-0.203582
-0.20173
-0.201449
-0.201266
-0.201056
-0.200742
-0.201087
-0.201404
-0.201667
-0.201899
-0.202137
-0.202457
-0.203072
-0.203102
-0.203599
-0.204428
-0.205483
-0.206345
-0.207217
-0.207715
-0.207338
-0.203357
-0.194881
-0.180624
0
0
-0.0271325
-0.0641312
-0.0926436
-0.116329
-0.136662
-0.154766
-0.17115
-0.186021
-0.199388
-0.211108
-0.220957
-0.228653
-0.234018
-0.237074
-0.238119
-0.237694
-0.236188
-0.233786
-0.229932
-0.228448
-0.226506
-0.224204
-0.221707
-0.219028
-0.216011
-0.212204
-0.206154
-0.191308
0.0780828
-0.177035
-0.192571
-0.198174
-0.200408
-0.201239
-0.201365
-0.201092
-0.200617
-0.19994
-0.199388
-0.199343
-0.199524
-0.199786
-0.200164
-0.200554
-0.200908
-0.201188
-0.201378
-0.201388
-0.201064
-0.201866
-0.202842
-0.204033
-0.209451
-0.206182
-0.207013
-0.207444
-0.206715
-0.203141
-0.194688
-0.180298
0
0
-0.0271141
-0.0640952
-0.0925338
-0.116097
-0.136435
-0.154557
-0.170966
-0.185857
-0.199244
-0.210993
-0.220871
-0.228575
-0.233934
-0.237006
-0.238099
-0.237681
-0.236296
-0.234686
-0.234443
-0.230923
-0.227556
-0.224525
-0.221659
-0.218766
-0.215598
-0.211713
-0.206159
-0.196849
-0.181288
-0.18889
-0.195068
-0.198499
-0.200129
-0.200676
-0.200527
-0.199846
-0.198662
-0.196878
-0.194529
-0.195336
-0.196738
-0.197944
-0.198878
-0.1996
-0.200165
-0.20055
-0.200805
-0.200793
-0.200901
-0.201251
-0.202285
-0.20355
-0.20495
-0.206016
-0.207271
-0.207354
-0.206521
-0.202992
-0.194555
-0.179929
0
0
-0.0270888
-0.0640899
-0.092407
-0.11589
-0.136217
-0.154402
-0.170857
-0.185753
-0.199139
-0.210914
-0.220859
-0.228569
-0.233875
-0.236873
-0.237902
-0.237455
-0.236069
-0.234302
-0.232591
-0.229951
-0.227068
-0.224217
-0.221422
-0.218594
-0.215585
-0.212194
-0.208167
-0.203106
-0.198613
-0.198603
-0.199719
-0.200605
-0.200949
-0.200749
-0.200019
-0.198614
-0.196032
-0.190679
-0.178721
-0.186256
-0.192002
-0.195375
-0.197361
-0.198608
-0.19947
-0.200003
-0.200399
-0.200661
-0.20075
-0.200727
-0.201963
-0.203248
-0.204532
-0.206144
-0.219601
-0.207525
-0.206481
-0.202893
-0.194434
-0.179474
0
0
-0.0269891
-0.0636104
-0.0919852
-0.115523
-0.135961
-0.156347
-0.170932
-0.185729
-0.199059
-0.210861
-0.220963
-0.228626
-0.233781
-0.236598
-0.237489
-0.23698
-0.235526
-0.23351
-0.231273
-0.228825
-0.226279
-0.223709
-0.22113
-0.218509
-0.215804
-0.213009
-0.210241
-0.206644
-0.203969
-0.203157
-0.202868
-0.202524
-0.201951
-0.201074
-0.199766
-0.197567
-0.193026
-0.179372
0.0795362
-0.169354
-0.186489
-0.193092
-0.19617
-0.197827
-0.198793
-0.19956
-0.200146
-0.200628
-0.200929
-0.200608
-0.202207
-0.203296
-0.204339
-0.205642
-0.207175
-0.206873
-0.206357
-0.20268
-0.194223
-0.177976
0
0
-0.0269718
-0.0636288
-0.0919087
-0.115324
-0.135786
-0.154388
-0.17082
-0.185566
-0.198855
-0.210719
-0.221178
-0.228603
-0.233472
-0.236017
-0.236754
-0.236257
-0.234818
-0.232673
-0.230418
-0.228116
-0.225769
-0.223391
-0.220989
-0.218554
-0.21608
-0.2136
-0.211188
-0.208777
-0.20605
-0.205643
-0.204922
-0.203932
-0.202778
-0.201458
-0.199836
-0.197454
-0.193398
-0.185631
-0.171554
-0.181023
-0.189124
-0.193601
-0.196143
-0.197657
-0.198636
-0.199399
-0.200079
-0.200857
-0.20208
-0.204251
-0.20361
-0.203632
-0.204179
-0.205051
-0.20598
-0.206372
-0.205765
-0.202204
-0.193635
-0.178625
0
0
-0.0269768
-0.0636688
-0.0918943
-0.115132
-0.135664
-0.154584
-0.170584
-0.185134
-0.198348
-0.210203
-0.221112
-0.227917
-0.232623
-0.234952
-0.235645
-0.235425
-0.234184
-0.231943
-0.229952
-0.227875
-0.225666
-0.223384
-0.221075
-0.218732
-0.216333
-0.213843
-0.211197
-0.210355
-0.210894
-0.208699
-0.206677
-0.204922
-0.203323
-0.201783
-0.200153
-0.198173
-0.19561
-0.19249
-0.189838
-0.191135
-0.193543
-0.195536
-0.196996
-0.197992
-0.198738
-0.199404
-0.200048
-0.200793
-0.201772
-0.202887
-0.203178
-0.203444
-0.203921
-0.204657
-0.205535
-0.206067
-0.2054
-0.201917
-0.193451
-0.178908
0
0
-0.0269852
-0.0637082
-0.0919996
-0.11565
-0.135604
-0.152578
-0.169105
-0.184107
-0.19745
-0.20879
-0.216928
-0.225325
-0.231261
-0.233573
-0.234526
-0.234999
-0.234154
-0.231807
-0.23029
-0.228279
-0.226006
-0.223674
-0.221364
-0.219022
-0.216542
-0.213499
-0.186038
-0.209707
-0.209763
-0.208488
-0.206786
-0.205019
-0.203307
-0.201718
-0.200307
-0.198903
-0.197507
-0.196345
-0.195829
-0.195989
-0.196597
-0.197363
-0.198169
-0.198569
-0.198968
-0.199499
-0.200015
-0.200587
-0.201269
-0.201994
-0.202582
-0.203084
-0.203603
-0.204341
-0.205344
-0.20593
-0.20529
-0.201861
-0.193428
-0.179103
0
0
-0.0269882
-0.0637191
-0.0919936
-0.115459
-0.135522
-0.153099
-0.169275
-0.183992
-0.19712
-0.208412
-0.217827
-0.225847
-0.23189
-0.232666
-0.235273
-0.236064
-0.235522
-0.234993
-0.232192
-0.229302
-0.226594
-0.224092
-0.22177
-0.219417
-0.216948
-0.21423
-0.211024
-0.210268
-0.209396
-0.208077
-0.206441
-0.204587
-0.202575
-0.200518
-0.199581
-0.198854
-0.198332
-0.197986
-0.197895
-0.197968
-0.198202
-0.198672
-0.204274
-0.199213
-0.199174
-0.199655
-0.200004
-0.200402
-0.200933
-0.201604
-0.202268
-0.202846
-0.203292
-0.20399
-0.205261
-0.205883
-0.205314
-0.201959
-0.193444
-0.179155
0
0
-0.0269899
-0.0637246
-0.0919876
-0.115403
-0.135568
-0.153466
-0.169685
-0.184176
-0.196966
-0.207681
-0.218094
-0.226511
-0.233141
-0.239055
-0.239282
-0.238269
-0.236672
-0.234772
-0.232194
-0.229438
-0.226774
-0.224336
-0.222181
-0.219831
-0.217399
-0.215017
-0.212839
-0.211177
-0.209687
-0.208042
-0.206154
-0.203833
-0.200594
-0.195294
-0.196702
-0.197241
-0.198008
-0.198404
-0.198611
-0.19877
-0.198962
-0.199249
-0.199614
-0.199384
-0.199171
-0.199845
-0.199989
-0.200237
-0.200701
-0.201465
-0.202215
-0.20276
-0.202996
-0.203533
-0.205233
-0.205795
-0.20534
-0.202173
-0.193427
-0.179057
0
0
-0.026994
-0.0637395
-0.0920108
-0.115445
-0.135711
-0.153846
-0.170496
-0.184566
-0.196538
-0.180199
-0.217243
-0.226468
-0.23301
-0.237389
-0.238763
-0.238303
-0.236778
-0.234545
-0.231968
-0.229306
-0.226727
-0.224415
-0.2226
-0.2201
-0.217603
-0.215349
-0.213369
-0.211584
-0.209993
-0.208158
-0.206035
-0.202978
-0.196659
-0.0850142
-0.190363
-0.178605
-0.196961
-0.198351
-0.198896
-0.199159
-0.199368
-0.199578
-0.199623
-0.199501
-0.199412
-0.199653
-0.199799
-0.200002
-0.200419
-0.201431
-0.202605
-0.202398
-0.202704
-0.203441
-0.204658
-0.205369
-0.205129
-0.202417
-0.19325
-0.178773
0
0
-0.0270018
-0.0637657
-0.0920568
-0.115528
-0.135902
-0.154423
-0.186444
-0.185725
-0.197619
-0.207496
-0.218176
-0.226697
-0.23278
-0.236496
-0.238014
-0.237902
-0.234443
-0.234399
-0.231833
-0.229176
-0.226586
-0.224241
-0.222724
-0.219768
-0.217305
-0.215251
-0.213443
-0.21183
-0.210119
-0.208393
-0.206552
-0.203539
-0.199012
-0.191742
-0.194488
-0.196007
-0.197852
-0.198826
-0.199264
-0.199484
-0.19969
-0.199937
-0.199816
-0.199606
-0.199486
-0.199511
-0.199589
-0.199702
-0.199909
-0.20099
-0.202542
-0.201641
-0.202265
-0.203144
-0.204073
-0.204617
-0.204216
-0.202076
-0.192533
-0.178303
0
0
-0.0270134
-0.0638023
-0.0921126
-0.115596
-0.135964
-0.154328
-0.171459
-0.185919
-0.198618
-0.20968
-0.219375
-0.227162
-0.232774
-0.236181
-0.23761
-0.237496
-0.23634
-0.234224
-0.231718
-0.229067
-0.226352
-0.223438
-0.219486
-0.218022
-0.216538
-0.215001
-0.213389
-0.211624
-0.210191
-0.208919
-0.21647
-0.20519
-0.202353
-0.200014
-0.199485
-0.199462
-0.199658
-0.19978
-0.199807
-0.199816
-0.199954
-0.200332
-0.199931
-0.199573
-0.199411
-0.199386
-0.199427
-0.199471
-0.199436
-0.199145
-0.197762
-0.200594
-0.201811
-0.202771
-0.203538
-0.203633
-0.201848
-0.196399
-0.190569
-0.177796
0
0
-0.0270309
-0.063855
-0.0921843
-0.115657
-0.135969
-0.154159
-0.170796
-0.186132
-0.199076
-0.210224
-0.219673
-0.227211
-0.232645
-0.235951
-0.237319
-0.237135
-0.235928
-0.233997
-0.231639
-0.22905
-0.226341
-0.22376
-0.220673
-0.218711
-0.216872
-0.215316
-0.213745
-0.212128
-0.210623
-0.209266
-0.208144
-0.206151
-0.204357
-0.203011
-0.202087
-0.201457
-0.200996
-0.200621
-0.200297
-0.200032
-0.199936
-0.200419
-0.199602
-0.199278
-0.199219
-0.199258
-0.199328
-0.199391
-0.199402
-0.199317
-0.199272
-0.200455
-0.201539
-0.202506
-0.203289
-0.203505
-0.202277
-0.198277
-0.190863
-0.177704
0
0
-0.0270622
-0.0639462
-0.0923022
-0.115747
-0.135986
-0.154039
-0.170524
-0.186365
-0.198728
-0.209753
-0.219242
-0.226853
-0.232353
-0.235709
-0.237086
-0.23684
-0.235786
-0.234034
-0.231796
-0.229244
-0.226527
-0.223962
-0.221527
-0.219373
-0.217311
-0.21592
-0.214333
-0.212683
-0.211089
-0.20959
-0.208156
-0.206688
-0.205353
-0.204236
-0.203296
-0.202499
-0.201808
-0.201197
-0.200634
-0.20005
-0.199228
-0.197689
-0.198323
-0.198769
-0.199017
-0.199177
-0.199306
-0.199429
-0.199562
-0.199745
-0.200089
-0.200727
-0.201533
-0.202426
-0.203279
-0.203777
-0.204469
-0.199442
-0.191389
-0.177819
0
0
-0.0271272
-0.064134
-0.0925375
-0.115908
-0.136052
-0.1539
-0.169698
-0.182593
-0.196323
-0.208442
-0.218519
-0.226442
-0.232114
-0.235592
-0.237104
-0.236572
-0.235938
-0.234403
-0.232259
-0.229675
-0.226845
-0.224413
-0.222154
-0.219949
-0.217659
-0.216705
-0.214973
-0.213192
-0.21151
-0.209946
-0.20849
-0.207153
-0.205958
-0.204909
-0.203971
-0.203117
-0.202329
-0.201598
-0.200904
-0.200213
-0.199474
-0.19875
-0.198727
-0.198892
-0.199065
-0.19922
-0.199365
-0.199522
-0.199721
-0.199991
-0.200372
-0.200889
-0.201573
-0.202414
-0.203304
-0.203887
-0.203281
-0.199784
-0.191668
-0.17796
0
0
-0.0272753
-0.0645828
-0.0930353
-0.116207
-0.136276
-0.154058
-0.169893
-0.183871
-0.196985
-0.208708
-0.218619
-0.226468
-0.232136
-0.235721
-0.243373
-0.236227
-0.236544
-0.235136
-0.233006
-0.23034
-0.227345
-0.225135
-0.222905
-0.220737
-0.218739
-0.217109
-0.215311
-0.213511
-0.211815
-0.210253
-0.208829
-0.207549
-0.206414
-0.205406
-0.204473
-0.203582
-0.202728
-0.201915
-0.201145
-0.200426
-0.199803
-0.199381
-0.199207
-0.199185
-0.199245
-0.199349
-0.199468
-0.199619
-0.199828
-0.200095
-0.200448
-0.200923
-0.201559
-0.202372
-0.203277
-0.203888
-0.203215
-0.199825
-0.191808
-0.178087
0
0
-0.0276182
-0.065884
-0.0938657
-0.116888
-0.136801
-0.1545
-0.170405
-0.184765
-0.197767
-0.20924
-0.218935
-0.226631
-0.232196
-0.235624
-0.236971
-0.234965
-0.237724
-0.236121
-0.233663
-0.230923
-0.229166
-0.226349
-0.223757
-0.221483
-0.219636
-0.217565
-0.215548
-0.213694
-0.212011
-0.210487
-0.209113
-0.207889
-0.206815
-0.205869
-0.204941
-0.204003
-0.203077
-0.202186
-0.201341
-0.200566
-0.19995
-0.199631
-0.199475
-0.199404
-0.199406
-0.199462
-0.199527
-0.199642
-0.199837
-0.200078
-0.2004
-0.200858
-0.201477
-0.202272
-0.203211
-0.203925
-0.203234
-0.199815
-0.191897
-0.178225
0
0
-0.0282373
-0.089991
-0.0956427
-0.117762
-0.13737
-0.154947
-0.170828
-0.185212
-0.198151
-0.209498
-0.219062
-0.226663
-0.232175
-0.23557
-0.237063
-0.236782
-0.237131
-0.23587
-0.233736
-0.23132
-0.228943
-0.226431
-0.224001
-0.221779
-0.220078
-0.217658
-0.215578
-0.213771
-0.212153
-0.210695
-0.209379
-0.208214
-0.20722
-0.206377
-0.205436
-0.204412
-0.20339
-0.202414
-0.201483
-0.200589
-0.199894
-0.199721
-0.199625
-0.199511
-0.199436
-0.199411
-0.199365
-0.19941
-0.1996
-0.199832
-0.200168
-0.200669
-0.201325
-0.202125
-0.203135
-0.20405
-0.203369
-0.199971
-0.191906
-0.178395
0
0
-0.0277636
-0.0663296
-0.0943838
-0.117456
-0.137338
-0.155058
-0.170953
-0.185248
-0.198167
-0.209446
-0.218946
-0.226521
-0.232058
-0.23553
-0.237571
-0.237977
-0.237398
-0.235895
-0.233788
-0.231403
-0.228947
-0.226529
-0.224149
-0.221679
-0.218667
-0.217007
-0.215425
-0.213847
-0.212312
-0.210928
-0.209666
-0.20855
-0.207652
-0.206989
-0.205949
-0.204769
-0.20364
-0.202606
-0.201636
-0.200499
-0.199607
-0.199808
-0.199745
-0.199447
-0.199131
-0.198871
-0.198591
-0.198528