# vtk DataFile Version 2.0
FlowField
ASCII
DATASET STRUCTURED_GRID
DIMENSIONS 62 47 32 
POINTS 93248 double
0 0 0
0.01 0 0
0.02 0 0
0.03 0 0
0.04 0 0
0.05 0 0
0.06 0 0
0.07 0 0
0.08 0 0
0.09 0 0
0.1 0 0
0.11 0 0
0.12 0 0
0.13 0 0
0.14 0 0
0.15 0 0
0.16 0 0
0.17 0 0
0.18 0 0
0.19 0 0
0.2 0 0
0.21 0 0
0.22 0 0
0.23 0 0
0.24 0 0
0.25 0 0
0.26 0 0
0.27 0 0
0.28 0 0
0.29 0 0
0.3 0 0
0.31 0 0
0.32 0 0
0.33 0 0
0.34 0 0
0.35 0 0
0.36 0 0
0.37 0 0
0.38 0 0
0.39 0 0
0.4 0 0
0.41 0 0
0.42 0 0
0.43 0 0
0.44 0 0
0.45 0 0
0.46 0 0
0.47 0 0
0.48 0 0
0.49 0 0
0.5 0 0
0.51 0 0
0.52 0 0
0.53 0 0
0.54 0 0
0.55 0 0
0.56 0 0
0.57 0 0
0.58 0 0
0.59 0 0
0.6 0 0
0.61 0 0
0 0.01 0
0.01 0.01 0
0.02 0.01 0
0.03 0.01 0
0.04 0.01 0
0.05 0.01 0
0.06 0.01 0
0.07 0.01 0
0.08 0.01 0
0.09 0.01 0
0.1 0.01 0
0.11 0.01 0
0.12 0.01 0
0.13 0.01 0
0.14 0.01 0
0.15 0.01 0
0.16 0.01 0
0.17 0.01 0
0.18 0.01 0
0.19 0.01 0
0.2 0.01 0
0.21 0.01 0
0.22 0.01 0
0.23 0.01 0
0.24 0.01 0
0.25 0.01 0
0.26 0.01 0
0.27 0.01 0
0.28 0.01 0
0.29 0.01 0
0.3 0.01 0
0.31 0.01 0
0.32 0.01 0
0.33 0.01 0
0.34 0.01 0
0.35 0.01 0
0.36 0.01 0
0.37 0.01 0
0.38 0.01 0
0.39 0.01 0
0.4 0.01 0
0.41 0.01 0
0.42 0.01 0
0.43 0.01 0
0.44 0.01 0
0.45 0.01 0
0.46 0.01 0
0.47 0.01 0
0.48 0.01 0
0.49 0.01 0
0.5 0.01 0
0.51 0.01 0
0.52 0.01 0
0.53 0.01 0
0.54 0.01 0
0.55 0.01 0
0.56 0.01 0
0.57 0.01 0
0.58 0.01 0
0.59 0.01 0
0.6 0.01 0
0.61 0.01 0
0 0.02 0
0.01 0.02 0
0.02 0.02 0
0.03 0.02 0
0.04 0.02 0
0.05 0.02 0
0.06 0.02 0
0.07 0.02 0
0.08 0.02 0
0.09 0.02 0
0.1 0.02 0
0.11 0.02 0
0.12 0.02 0
0.13 0.02 0
0.14 0.02 0
0.15 0.02 0
0.16 0.02 0
0.17 0.02 0
0.18 0.02 0
0.19 0.02 0
0.2 0.02 0
0.21 0.02 0
0.22 0.02 0
0.23 0.02 0
0.24 0.02 0
0.25 0.02 0
0.26 0.02 0
0.27 0.02 0
0.28 0.02 0
0.29 0.02 0
0.3 0.02 0
0.31 0.02 0
0.32 0.02 0
0.33 0.02 0
0.34 0.02 0
0.35 0.02 0
0.36 0.02 0
0.37 0.02 0
0.38 0.02 0
0.39 0.02 0
0.4 0.02 0
0.41 0.02 0
0.42 0.02 0
0.43 0.02 0
0.44 0.02 0
0.45 0.02 0
0.46 0.02 0
0.47 0.02 0
0.48 0.02 0
0.49 0.02 0
0.5 0.02 0
0.51 0.02 0
0.52 0.02 0
0.53 0.02 0
0.54 0.02 0
0.55 0.02 0
0.56 0.02 0
0.57 0.02 0
0.58 0.02 0
0.59 0.02 0
0.6 0.02 0
0.61 0.02 0
0 0.03 0
0.01 0.03 0
0.02 0.03 0
0.03 0.03 0
0.04 0.03 0
0.05 0.03 0
0.06 0.03 0
0.07 0.03 0
0.08 0.03 0
0.09 0.03 0
0.1 0.03 0
0.11 0.03 0
0.12 0.03 0
0.13 0.03 0
0.14 0.03 0
0.15 0.03 0
0.16 0.03 0
0.17 0.03 0
0.18 0.03 0
0.19 0.03 0
0.2 0.03 0
0.21 0.03 0
0.22 0.03 0
0.23 0.03 0
0.24 0.03 0
0.25 0.03 0
0.26 0.03 0
0.27 0.03 0
0.28 0.03 0
0.29 0.03 0
0.3 0.03 0
0.31 0.03 0
0.32 0.03 0
0.33 0.03 0
0.34 0.03 0
0.35 0.03 0
0.36 0.03 0
0.37 0.03 0
0.38 0.03 0
0.39 0.03 0
0.4 0.03 0
0.41 0.03 0
0.42 0.03 0
0.43 0.03 0
0.44 0.03 0
0.45 0.03 0
0.46 0.03 0
0.47 0.03 0
0.48 0.03 0
0.49 0.03 0
0.5 0.03 0
0.51 0.03 0
0.52 0.03 0
0.53 0.03 0
0.54 0.03 0
0.55 0.03 0
0.56 0.03 0
0.57 0.03 0
0.58 0.03 0
0.59 0.03 0
0.6 0.03 0
0.61 0.03 0
0 0.04 0
0.01 0.04 0
0.02 0.04 0
0.03 0.04 0
0.04 0.04 0
0.05 0.04 0
0.06 0.04 0
0.07 0.04 0
0.08 0.04 0
0.09 0.04 0
0.1 0.04 0
0.11 0.04 0
0.12 0.04 0
0.13 0.04 0
0.14 0.04 0
0.15 0.04 0
0.16 0.04 0
0.17 0.04 0
0.18 0.04 0
0.19 0.04 0
0.2 0.04 0
0.21 0.04 0
0.22 0.04 0
0.23 0.04 0
0.24 0.04 0
0.25 0.04 0
0.26 0.04 0
0.27 0.04 0
0.28 0.04 0
0.29 0.04 0
0.3 0.04 0
0.31 0.04 0
0.32 0.04 0
0.33 0.04 0
0.34 0.04 0
0.35 0.04 0
0.36 0.04 0
0.37 0.04 0
0.38 0.04 0
0.39 0.04 0
0.4 0.04 0
0.41 0.04 0
0.42 0.04 0
0.43 0.04 0
0.44 0.04 0
0.45 0.04 0
0.46 0.04 0
0.47 0.04 0
0.48 0.04 0
0.49 0.04 0
0.5 0.04 0
0.51 0.04 0
0.52 0.04 0
0.53 0.04 0
0.54 0.04 0
0.55 0.04 0
0.56 0.04 0
0.57 0.04 0
0.58 0.04 0
0.59 0.04 0
0.6 0.04 0
0.61 0.04 0
0 0.05 0
0.01 0.05 0
0.02 0.05 0
0.03 0.05 0
0.04 0.05 0
0.05 0.05 0
0.06 0.05 0
0.07 0.05 0
0.08 0.05 0
0.09 0.05 0
0.1 0.05 0
0.11 0.05 0
0.12 0.05 0
0.13 0.05 0
0.14 0.05 0
0.15 0.05 0
0.16 0.05 0
0.17 0.05 0
0.18 0.05 0
0.19 0.05 0
0.2 0.05 0
0.21 0.05 0
0.22 0.05 0
0.23 0.05 0
0.24 0.05 0
0.25 0.05 0
0.26 0.05 0
0.27 0.05 0
0.28 0.05 0
0.29 0.05 0
0.3 0.05 0
0.31 0.05 0
0.32 0.05 0
0.33 0.05 0
0.34 0.05 0
0.35 0.05 0
0.36 0.05 0
0.37 0.05 0
0.38 0.05 0
0.39 0.05 0
0.4 0.05 0
0.41 0.05 0
0.42 0.05 0
0.43 0.05 0
0.44 0.05 0
0.45 0.05 0
0.46 0.05 0
0.47 0.05 0
0.48 0.05 0
0.49 0.05 0
0.5 0.05 0
0.51 0.05 0
0.52 0.05 0
0.53 0.05 0
0.54 0.05 0
0.55 0.05 0
0.56 0.05 0
0.57 0.05 0
0.58 0.05 0
0.59 0.05 0
0.6 0.05 0
0.61 0.05 0
0 0.06 0
0.01 0.06 0
0.02 0.06 0
0.03 0.06 0
0.04 0.06 0
0.05 0.06 0
0.06 0.06 0
0.07 0.06 0
0.08 0.06 0
0.09 0.06 0
0.1 0.06 0
0.11 0.06 0
0.12 0.06 0
0.13 0.06 0
0.14 0.06 0
0.15 0.06 0
0.16 0.06 0
0.17 0.06 0
0.18 0.06 0
0.19 0.06 0
0.2 0.06 0
0.21 0.06 0
0.22 0.06 0
0.23 0.06 0
0.24 0.06 0
0.25 0.06 0
0.26 0.06 0
0.27 0.06 0
0.28 0.06 0
0.29 0.06 0
0.3 0.06 0
0.31 0.06 0
0.32 0.06 0
0.33 0.06 0
0.34 0.06 0
0.35 0.06 0
0.36 0.06 0
0.37 0.06 0
0.38 0.06 0
0.39 0.06 0
0.4 0.06 0
0.41 0.06 0
0.42 0.06 0
0.43 0.06 0
0.44 0.06 0
0.45 0.06 0
0.46 0.06 0
0.47 0.06 0
0.48 0.06 0
0.49 0.06 0
0.5 0.06 0
0.51 0.06 0
0.52 0.06 0
0.53 0.06 0
0.54 0.06 0
0.55 0.06 0
0.56 0.06 0
0.57 0.06 0
0.58 0.06 0
0.59 0.06 0
0.6 0.06 0
0.61 0.06 0
0 0.07 0
0.01 0.07 0
0.02 0.07 0
0.03 0.07 0
0.04 0.07 0
0.05 0.07 0
0.06 0.07 0
0.07 0.07 0
0.08 0.07 0
0.09 0.07 0
0.1 0.07 0
0.11 0.07 0
0.12 0.07 0
0.13 0.07 0
0.14 0.07 0
0.15 0.07 0
0.16 0.07 0
0.17 0.07 0
0.18 0.07 0
0.19 0.07 0
0.2 0.07 0
0.21 0.07 0
0.22 0.07 0
0.23 0.07 0
0.24 0.07 0
0.25 0.07 0
0.26 0.07 0
0.27 0.07 0
0.28 0.07 0
0.29 0.07 0
0.3 0.07 0
0.31 0.07 0
0.32 0.07 0
0.33 0.07 0
0.34 0.07 0
0.35 0.07 0
0.36 0.07 0
0.37 0.07 0
0.38 0.07 0
0.39 0.07 0
0.4 0.07 0
0.41 0.07 0
0.42 0.07 0
0.43 0.07 0
0.44 0.07 0
0.45 0.07 0
0.46 0.07 0
0.47 0.07 0
0.48 0.07 0
0.49 0.07 0
0.5 0.07 0
0.51 0.07 0
0.52 0.07 0
0.53 0.07 0
0.54 0.07 0
0.55 0.07 0
0.56 0.07 0
0.57 0.07 0
0.58 0.07 0
0.59 0.07 0
0.6 0.07 0
0.61 0.07 0
0 0.08 0
0.01 0.08 0
0.02 0.08 0
0.03 0.08 0
0.04 0.08 0
0.05 0.08 0
0.06 0.08 0
0.07 0.08 0
0.08 0.08 0
0.09 0.08 0
0.1 0.08 0
0.11 0.08 0
0.12 0.08 0
0.13 0.08 0
0.14 0.08 0
0.15 0.08 0
0.16 0.08 0
0.17 0.08 0
0.18 0.08 0
0.19 0.08 0
0.2 0.08 0
0.21 0.08 0
0.22 0.08 0
0.23 0.08 0
0.24 0.08 0
0.25 0.08 0
0.26 0.08 0
0.27 0.08 0
0.28 0.08 0
0.29 0.08 0
0.3 0.08 0
0.31 0.08 0
0.32 0.08 0
0.33 0.08 0
0.34 0.08 0
0.35 0.08 0
0.36 0.08 0
0.37 0.08 0
0.38 0.08 0
0.39 0.08 0
0.4 0.08 0
0.41 0.08 0
0.42 0.08 0
0.43 0.08 0
0.44 0.08 0
0.45 0.08 0
0.46 0.08 0
0.47 0.08 0
0.48 0.08 0
0.49 0.08 0
0.5 0.08 0
0.51 0.08 0
0.52 0.08 0
0.53 0.08 0
0.54 0.08 0
0.55 0.08 0
0.56 0.08 0
0.57 0.08 0
0.58 0.08 0
0.59 0.08 0
0.6 0.08 0
0.61 0.08 0
0 0.09 0
0.01 0.09 0
0.02 0.09 0
0.03 0.09 0
0.04 0.09 0
0.05 0.09 0
0.06 0.09 0
0.07 0.09 0
0.08 0.09 0
0.09 0.09 0
0.1 0.09 0
0.11 0.09 0
0.12 0.09 0
0.13 0.09 0
0.14 0.09 0
0.15 0.09 0
0.16 0.09 0
0.17 0.09 0
0.18 0.09 0
0.19 0.09 0
0.2 0.09 0
0.21 0.09 0
0.22 0.09 0
0.23 0.09 0
0.24 0.09 0
0.25 0.09 0
0.26 0.09 0
0.27 0.09 0
0.28 0.09 0
0.29 0.09 0
0.3 0.09 0
0.31 0.09 0
0.32 0.09 0
0.33 0.09 0
0.34 0.09 0
0.35 0.09 0
0.36 0.09 0
0.37 0.09 0
0.38 0.09 0
0.39 0.09 0
0.4 0.09 0
0.41 0.09 0
0.42 0.09 0
0.43 0.09 0
0.44 0.09 0
0.45 0.09 0
0.46 0.09 0
0.47 0.09 0
0.48 0.09 0
0.49 0.09 0
0.5 0.09 0
0.51 0.09 0
0.52 0.09 0
0.53 0.09 0
0.54 0.09 0
0.55 0.09 0
0.56 0.09 0
0.57 0.09 0
0.58 0.09 0
0.59 0.09 0
0.6 0.09 0
0.61 0.09 0
0 0.1 0
0.01 0.1 0
0.02 0.1 0
0.03 0.1 0
0.04 0.1 0
0.05 0.1 0
0.06 0.1 0
0.07 0.1 0
0.08 0.1 0
0.09 0.1 0
0.1 0.1 0
0.11 0.1 0
0.12 0.1 0
0.13 0.1 0
0.14 0.1 0
0.15 0.1 0
0.16 0.1 0
0.17 0.1 0
0.18 0.1 0
0.19 0.1 0
0.2 0.1 0
0.21 0.1 0
0.22 0.1 0
0.23 0.1 0
0.24 0.1 0
0.25 0.1 0
0.26 0.1 0
0.27 0.1 0
0.28 0.1 0
0.29 0.1 0
0.3 0.1 0
0.31 0.1 0
0.32 0.1 0
0.33 0.1 0
0.34 0.1 0
0.35 0.1 0
0.36 0.1 0
0.37 0.1 0
0.38 0.1 0
0.39 0.1 0
0.4 0.1 0
0.41 0.1 0
0.42 0.1 0
0.43 0.1 0
0.44 0.1 0
0.45 0.1 0
0.46 0.1 0
0.47 0.1 0
0.48 0.1 0
0.49 0.1 0
0.5 0.1 0
0.51 0.1 0
0.52 0.1 0
0.53 0.1 0
0.54 0.1 0
0.55 0.1 0
0.56 0.1 0
0.57 0.1 0
0.58 0.1 0
0.59 0.1 0
0.6 0.1 0
0.61 0.1 0
0 0.11 0
0.01 0.11 0
0.02 0.11 0
0.03 0.11 0
0.04 0.11 0
0.05 0.11 0
0.06 0.11 0
0.07 0.11 0
0.08 0.11 0
0.09 0.11 0
0.1 0.11 0
0.11 0.11 0
0.12 0.11 0
0.13 0.11 0
0.14 0.11 0
0.15 0.11 0
0.16 0.11 0
0.17 0.11 0
0.18 0.11 0
0.19 0.11 0
0.2 0.11 0
0.21 0.11 0
0.22 0.11 0
0.23 0.11 0
0.24 0.11 0
0.25 0.11 0
0.26 0.11 0
0.27 0.11 0
0.28 0.11 0
0.29 0.11 0
0.3 0.11 0
0.31 0.11 0
0.32 0.11 0
0.33 0.11 0
0.34 0.11 0
0.35 0.11 0
0.36 0.11 0
0.37 0.11 0
0.38 0.11 0
0.39 0.11 0
0.4 0.11 0
0.41 0.11 0
0.42 0.11 0
0.43 0.11 0
0.44 0.11 0
0.45 0.11 0
0.46 0.11 0
0.47 0.11 0
0.48 0.11 0
0.49 0.11 0
0.5 0.11 0
0.51 0.11 0
0.52 0.11 0
0.53 0.11 0
0.54 0.11 0
0.55 0.11 0
0.56 0.11 0
0.57 0.11 0
0.58 0.11 0
0.59 0.11 0
0.6 0.11 0
0.61 0.11 0
0 0.12 0
0.01 0.12 0
0.02 0.12 0
0.03 0.12 0
0.04 0.12 0
0.05 0.12 0
0.06 0.12 0
0.07 0.12 0
0.08 0.12 0
0.09 0.12 0
0.1 0.12 0
0.11 0.12 0
0.12 0.12 0
0.13 0.12 0
0.14 0.12 0
0.15 0.12 0
0.16 0.12 0
0.17 0.12 0
0.18 0.12 0
0.19 0.12 0
0.2 0.12 0
0.21 0.12 0
0.22 0.12 0
0.23 0.12 0
0.24 0.12 0
0.25 0.12 0
0.26 0.12 0
0.27 0.12 0
0.28 0.12 0
0.29 0.12 0
0.3 0.12 0
0.31 0.12 0
0.32 0.12 0
0.33 0.12 0
0.34 0.12 0
0.35 0.12 0
0.36 0.12 0
0.37 0.12 0
0.38 0.12 0
0.39 0.12 0
0.4 0.12 0
0.41 0.12 0
0.42 0.12 0
0.43 0.12 0
0.44 0.12 0
0.45 0.12 0
0.46 0.12 0
0.47 0.12 0
0.48 0.12 0
0.49 0.12 0
0.5 0.12 0
0.51 0.12 0
0.52 0.12 0
0.53 0.12 0
0.54 0.12 0
0.55 0.12 0
0.56 0.12 0
0.57 0.12 0
0.58 0.12 0
0.59 0.12 0
0.6 0.12 0
0.61 0.12 0
0 0.13 0
0.01 0.13 0
0.02 0.13 0
0.03 0.13 0
0.04 0.13 0
0.05 0.13 0
0.06 0.13 0
0.07 0.13 0
0.08 0.13 0
0.09 0.13 0
0.1 0.13 0
0.11 0.13 0
0.12 0.13 0
0.13 0.13 0
0.14 0.13 0
0.15 0.13 0
0.16 0.13 0
0.17 0.13 0
0.18 0.13 0
0.19 0.13 0
0.2 0.13 0
0.21 0.13 0
0.22 0.13 0
0.23 0.13 0
0.24 0.13 0
0.25 0.13 0
0.26 0.13 0
0.27 0.13 0
0.28 0.13 0
0.29 0.13 0
0.3 0.13 0
0.31 0.13 0
0.32 0.13 0
0.33 0.13 0
0.34 0.13 0
0.35 0.13 0
0.36 0.13 0
0.37 0.13 0
0.38 0.13 0
0.39 0.13 0
0.4 0.13 0
0.41 0.13 0
0.42 0.13 0
0.43 0.13 0
0.44 0.13 0
0.45 0.13 0
0.46 0.13 0
0.47 0.13 0
0.48 0.13 0
[...]
POINT_DATA 93248

SCALARS u double
LOOKUP_TABLE default
0
0
0
0
0
0
0
0
0
0
0
0
0
0
0
0
0
0
0
0
0
0
0
0
0.298374
0
0
0
0
0
0
0
0.0376512
0.224647
0
0
0
0
0
0
0
0
0
0
0
0
0
0.0796516
0
0
0.0713234
0
0
0
0
0
0
0
0
0
0
0
0
0.415672
0.334986
0.258441
0.195905
0.149582
0.116526
0.094056
0.0800736
0.0718269
0.0671741
0.0647776
0.0647506
0.0642671
0.0634772
0.0624192
0.0613987
0.0599683
0.05811
0.0548532
0.0571215
0.0565607
0.0537227
0.0518474
0.0501423
0.0485108
0.0469192
0.0453345
0.0437261
0.0420605
0.0403008
0.0385223
0.037521
0.0357418
0.0333621
0.0312365
0.0301735
0.0277408
0.0257431
0.1647
0.0183309
0.0199434
0.0204204
0.0212155
0.0237586
0.00540439
0.0115017
0.0109015
0.0100179
0.00798973
0.00589018
0.0315924
0.00387702
0.0064894
-0.0111565
-0.00974945
0.00789631
-0.0104237
-0.0142105
-0.0207885
-0.0207885
0
0
0.489869
0.472221
0.44495
0.409898
0.375477
0.338677
0.305503
0.277996
0.2575
0.242741
0.232063
0.226293
0.220304
0.21492
0.209704
0.205097
0.200166
0.196831
0.341428
0.191052
0.18459
0.174637
0.169871
0.164725
0.159578
0.154469
0.149374
0.144263
0.1391
0.133817
0.128305
0.12421
0.118987
0.113169
0.107937
0.100932
0.0932126
-0.0255147
0.082679
0.0790841
0.0748819
0.0714742
0.0684751
0.0643769
0.0537389
0.0469532
0.043203
0.0386468
0.0338027
0.0292575
0.0240144
0.0193466
0.0137927
0.00159502
-0.00413869
-0.0109741
-0.0155246
-0.023136
-0.0316171
-0.0316171
0
0
0.483984
0.482519
0.480148
0.468483
0.464452
0.442718
0.421996
0.402258
0.38368
0.389282
0.353512
0.3389
0.328036
0.318707
0.310676
0.303325
0.29473
0.287406
0.279121
0.270947
0.264454
0.256599
0.249357
0.242082
0.234746
0.227383
0.220007
0.212623
0.205248
0.197967
0.190951
0.182481
0.176163
0.216681
0.161956
0.153294
0.146179
0.141793
0.13368
0.125007
0.116836
0.136775
0.102546
0.0951544
0.129348
0.0764493
0.0677059
0.0386468
0.0529444
0.046406
0.0392801
0.0315924
0.0229098
0.0125467
0.00385948
-0.00467977
-0.0148569
-0.0232889
-0.0317412
-0.0317412
0
0
0.476885
0.470889
0.476126
0.47374
0.472694
0.466545
0.45787
0.447404
0.435292
0.421727
0.408056
0.393907
0.38115
0.369684
0.359376
0.349293
0.341345
0.332336
0.339229
0.313413
0.30468
0.296125
0.287768
0.27943
0.271055
0.262644
0.254208
0.245759
0.237309
0.228871
0.220393
0.211413
0.203216
0.19448
0.186559
0.178559
0.171199
0.165115
0.156436
0.146772
0.136866
0.127075
0.118211
0.109162
0.0992621
0.0893825
0.0806206
0.0724823
0.0639102
0.0554997
0.0469339
0.037982
0.0284579
0.0184662
0.00876955
-0.000907833
-0.0110971
-0.0205055
-0.0296597
-0.0296597
0
0
0.474139
0.464941
0.462323
0.460981
0.460726
0.459144
0.456002
0.451132
0.443891
0.434285
0.423046
0.410865
0.398825
0.387456
0.376904
0.366801
0.357537
0.348146
0.338265
0.328757
0.319616
0.310694
0.301899
0.293146
0.28439
0.27561
0.266812
0.257997
0.249156
0.240256
0.231206
0.221928
0.213715
0.204889
0.196344
0.188051
0.1801
0.172331
0.163542
0.153969
0.143993
0.133944
0.124269
0.114736
0.105433
0.0989929
0.0858562
0.0771684
0.0681784
0.0591325
0.0500074
0.0406852
0.031053
0.0212267
0.0114364
0.00172709
-0.00787023
-0.0170233
-0.0265724
-0.0265724
0
0
0.472918
0.460689
0.453403
0.449124
0.446817
0.445011
0.443165
0.440908
0.436419
0.429743
0.421131
0.411217
0.400736
0.39023
0.3802
0.371049
0.361156
0.352176
0.342219
0.332771
0.323657
0.314715
0.305852
0.297014
0.288181
0.279322
0.270456
0.261577
0.252667
0.243679
0.234496
0.224838
0.217339
0.208301
0.19938
0.190767
0.182325
0.173816
0.164863
0.155455
0.145734
0.13586
0.125982
0.115938
0.105621
0.0979302
0.0884747
0.0790601
0.06972
0.0604441
0.0511993
0.0418824
0.0323209
0.0226554
0.0130556
0.00365647
-0.00518816
-0.0121525
-0.0159319
-0.0159319
0
0
0.472278
0.458192
0.448076
0.441074
0.436569
0.457985
0.432149
0.429248
0.425945
0.421096
0.414486
0.406519
0.397533
0.387992
0.378338
0.369862
0.359918
0.350552
0.341428
0.332586
0.323895
0.315205
0.306468
0.297693
0.288905
0.28007
0.271248
0.262426
0.253589
0.24474
0.236022
0.227781
0.2171
0.20824
0.199678
0.191118
0.182503
0.173731
0.1647
0.155404
0.145904
0.137351
0.126503
0.116658
0.106946
0.0982585
0.0890524
0.0796584
0.0702601
0.0609367
0.0517318
0.042578
0.0330705
0.0235443
0.0141605
0.00485984
-0.00470419
-0.0147852
-0.00969221
-0.00969221
0
0
0.471895
0.456671
0.444821
0.435863
0.429353
0.424736
0.422018
0.419665
0.41698
0.413093
0.407649
0.401343
0.393429
0.384413
0.373765
0.205097
0.353792
0.346642
0.339229
0.331299
0.323199
0.31479
0.306193
0.297481
0.28439
0.279957
0.271268
0.262562
0.253838
0.245056
0.236275
0.227491
0.217821
0.20869
0.199866
0.191131
0.182351
0.173446
0.164379
0.155145
0.145765
0.136263
0.126705
0.117122
0.107654
0.0984874
0.0892292
0.0798565
0.0704364
0.0610492
0.0518326
0.0429565
0.0333873
0.0240469
0.0150403
0.00634894
-0.00211792
-0.0119315
-0.0165776
-0.0165776
0
0
0.471649
0.455698
0.442745
0.432511
0.424718
0.419111
0.415487
0.412892
0.410288
0.406711
0.401452
0.397968
0.389937
0.381809
0.373459
0.366576
0.357656
0.348584
0.339823
0.331195
0.322945
0.314395
0.305749
0.297071
0.288506
0.279799
0.271135
0.262536
0.253978
0.245296
0.236343
0.227298
0.218075
0.208984
0.200034
0.191146
0.182235
0.173247
0.164162
0.154972
0.145682
0.136306
0.126881
0.117443
0.108052
0.0987365
0.0893999
0.0799893
0.0704823
0.0608667
0.0512025
0.0427094
0.0329925
0.0240846
0.0154866
0.00701105
-0.00149336
-0.0104771
-0.0187078
-0.0187078
0
0
0.471486
0.455052
0.441361
0.430312
0.421688
0.415391
0.411151
0.408189
0.405461
0.402059
0.397563
0.392711
0.386282
0.379228
0.371789
0.364742
0.356695
0.348151
0.339567
0.331154
0.322283
0.313687
0.305098
0.296411
0.288148
0.279423
0.270839
0.262405
0.254183
0.256213
0.236529
0.227244
0.218151
0.209131
0.200138
0.191123
0.18216
0.173134
0.164053
0.154903
0.145682
0.136397
0.12706
0.117699
0.108341
0.0989929
0.0896244
0.0801894
0.0706177
0.0607681
0.0502924
-0.00412669
0.0317852
0.0240499
0.0158534
0.00746417
-0.00106873
-0.00987512
-0.018955
-0.018955
0
0
0.471378
0.454625
0.440416
0.428862
0.419652
0.41282
0.40812
0.404815
0.401892
0.398491
0.394208
0.389148
0.383257
0.376892
0.369567
0.362315
0.354691
0.346692
0.338461
0.326386
0.321524
0.313042
0.304504
0.295913
0.287411
0.278825
0.270337
0.262032
0.253935
0.245966
0.235785
0.227028
0.218228
0.20928
0.200263
0.191222
0.182099
0.1731
0.164037
0.154923
0.145753
0.136544
0.12726
0.117939
0.108604
0.0992666
0.0899184
0.0805392
0.0711137
0.0617417
0.0526656
0.044365
0.0346065
0.0254642
0.0166887
0.00804815
-0.000607953
-0.00945089
-0.0187237
-0.0187237
0
0
0.471312
0.454378
0.43999
0.427815
0.418154
0.410941
0.405893
0.402299
0.399167
0.39568
0.391407
0.38635
0.380685
0.374884
0.367205
0.360172
0.352884
0.345226
0.337367
0.329341
0.321006
0.312534
0.303972
0.295343
0.286697
0.278063
0.269593
0.261397
0.253362
0.244186
0.237143
0.228143
0.218879
0.209636
0.200443
0.191307
0.182222
0.173164
0.164112
0.155018
0.14587
0.136775
0.127504
0.118191
0.108871
0.0995581
0.0902615
0.0809742
0.0716731
0.0625867
0.0538162
0.0452536
0.0358994
0.0265869
0.0175395
0.00869096
-0.000108125
-0.00903434
-0.0183913
-0.0183913
0
0
0.471263
0.454181
0.439525
0.427093
0.417132
0.409612
0.404277
0.400427
0.397081
0.39347
0.389117
0.383995
0.378162
0.371413
0.36592
0.359056
0.35168
0.344026
0.336398
0.32853
0.320346
0.311938
0.303369
0.294673
0.285874
0.277046
0.268448
0.260464
0.254189
0.245764
0.237416
0.228407
0.219125
0.209793
0.200503
0.191301
0.182184
0.173191
0.164224
0.155164
0.145905
0.137236
0.127809
0.118463
0.109141
0.0998474
0.0906061
0.0814156
0.0720906
0.0631025
0.0542994
0.0454935
0.0363797
0.0272245
0.0181898
0.0092931
0.000374905
-0.00861035
-0.0180312
-0.0180312
0
0
0.471228
0.45404
0.439254
0.426458
0.416369
0.408641
0.403086
0.39903
0.395531
0.391717
0.387264
0.382115
0.376358
0.370097
0.364044
0.357408
0.350239
0.342609
0.335495
0.327783
0.319662
0.311281
0.302706
0.293933
0.284918
0.275619
0.266212
0.257285
0.257882
0.248651
0.238729
0.228982
0.219363
0.209845
0.200436
0.191189
0.181994
0.173183
0.164429
0.155501
0.146397
0.137351
0.128064
0.118729
0.109396
0.100098
0.0908772
0.0817898
0.0723491
0.0634614
0.0546228
0.0457249
0.0366148
0.0276064
0.018677
0.00991357
0.000748597
-0.00817165
-0.017632
-0.017632
0
0
0.471205
0.453908
0.438933
0.426184
0.415861
0.407941
0.402199
0.397961
0.394285
0.390356
0.385813
0.380638
0.374957
0.368909
0.362677
0.35608
0.349012
0.341186
0.334858
0.327052
0.318876
0.310542
0.302013
0.293224
0.284009
0.273906
0.261386
0.241668
0.275477
0.253908
0.240597
0.229666
0.219546
0.209768
0.20018
0.190786
0.181676
0.173111
0.164853
0.1561
0.146983
0.137732
0.128387
0.119012
0.109634
0.100279
0.0909299
0.0815832
0.0729112
0.0639496
0.0550131
0.0461876
0.0366691
0.0278805
0.0189947
0.0102459
0.00136338
-0.00760098
-0.0171024
-0.0171024
0
0
0.471219
0.453809
0.438733
0.42595
0.41552
0.407446
0.401548
0.397151
0.393324
0.389282
0.384653
0.379446
0.373803
0.367846
0.361628
0.355137
0.348458
0.34199
0.333235
0.325519
0.317743
0.309695
0.301373
0.292738
0.283702
0.274088
0.26378
0.254408
0.25856
0.249845
0.239462
0.229186
0.219181
0.209369
0.199637
0.190019
0.18077
0.172585
0.165914
0.1573
0.147909
0.138358
0.128824
0.11934
0.109877
0.100479
0.0911173
0.0818242
0.0728877
0.0641801
0.0552676
0.046278
0.0371533
0.0282886
0.019131
0.0105662
0.00193568
-0.00682671
-0.01623
-0.01623
0
0
0.471303
0.453729
0.43862
0.425844
0.41537
0.407128
0.401093
0.396556
0.392602
0.388462
0.383724
0.37846
0.372835
0.366944
0.36077
0.354316
0.34763
0.340742
0.332896
0.325099
0.317253
0.309247
0.301027
0.292567
0.283855
0.274934
0.266067
0.258417
0.253789
0.246406
0.237498
0.228031
0.218397
0.208708
0.198817
0.188719
0.178517
0.169571
0.169601
0.159974
0.149444
0.139232
0.129348
0.119692
0.110117
0.100687
0.0913062
0.0819484
0.0727503
0.0644581
0.055486
0.0464304
0.0375442
0.0292412
0.0184876
0.0106634
0.00246654
-0.00567409
-0.0143926
-0.0143926
0
0
0.471027
0.453862
0.43875
0.425943
0.415519
0.405893
0.400781
0.396134
0.392094
0.387913
0.382989
0.377631
0.372023
0.366221
0.360071
0.35359
0.346832
0.339829
0.332401
0.324765
0.316975
0.309021
0.30089
0.292585
0.284146
0.275698
0.273598
0.259428
0.252668
0.244834
0.236151
0.226995
0.217581
0.207995
0.197939
0.187154
0.174091
0.15273
0.187224
0.165096
0.1513
0.140059
0.129769
0.119909
0.110367
0.10091
0.0915315
0.0821307
0.0725951
0.0647851
0.0555107
0.0463856
0.0374742
0.0286326
0.0190818
-0.00106873
0.00279324
-0.00422406
-0.00994576
0
0
0
0.471112
0.45334
0.438578
0.425923
0.415595
0.406818
0.400479
0.395775
0.391753
0.387696
0.382355
0.376896
0.371338
0.365685
0.359473
0.352893
0.346057
0.339125
0.331906
0.324429
0.316745
0.308877
0.300838
0.292651
0.284367
0.276082
0.267831
0.259319
0.252477
0.244094
0.235253
0.226195
0.216868
0.200276
0.197513
0.187391
0.176572
0.166539
0.170661
0.154972
0.150368
0.139881
0.129781
0.119991
0.110449
0.101061
0.091837
0.082861
0.0741858
0.0635439
0.0547538
0.0460447
0.0372954
0.0285315
0.0197511
0.0114124
0.00299545
-0.00526924
-0.0141242
-0.0141242
0
0
0.471143
0.45372
0.438362
0.425914
0.415815
0.406439
0.400148
0.395516
0.391501
0.387764
0.381632
0.376271
0.370757
0.365162
0.358703
0.352037
0.34516
0.338534
0.331489
0.324132
0.316548
0.308772
0.300816
0.292705
0.284486
0.276291
0.268849
0.261241
0.251455
0.2429
0.234356
0.225597
0.216681
0.207688
0.198271
0.188715
0.179346
0.171213
0.166038
0.158208
0.148867
0.139157
0.129438
0.119849
0.1104
0.101085
0.0919054
0.0828543
0.0737735
0.0639719
0.0548218
0.0459626
0.0372008
0.0284907
0.0198026
0.0112368
0.00254705
-0.00636633
-0.01594
-0.01594
0
0
0.471164
0.453799
0.438827
0.425313
0.413943
0.40665
0.400507
0.395593
0.391098
0.385855
0.382203
0.376609
0.370229
0.338526
0.357239
0.351076
0.344333
0.338258
0.331238
0.323912
0.316409
0.308718
0.300827
0.292747
0.284446
0.275659
0.270166
0.261111
0.251816
0.242905
0.234132
0.225368
0.216633
0.207925
0.198927
0.189845
0.180958
0.172649
0.164905
0.156613
0.147692
0.138432
0.128959
0.119583
0.110261
0.101017
0.0918467
0.0827223
0.0735474
0.0641712
0.0549371
0.0459499
0.0371089
0.0283796
0.0195857
0.0108487
0.00201415
-0.00711491
-0.0167659
-0.0167659
0
0
0.471162
0.45377
0.438617
0.425378
0.414387
0.406374
0.400291
0.395483
0.391041
0.386303
0.381758
0.37617
0.359684
0.36471
0.358433
0.35192
0.345584
0.33797
0.330898
0.323736
0.316364
0.308774
0.300924
0.292891
0.284716
0.276467
0.269051
0.260651
0.251825
0.242942
0.234053
0.225201
0.216569
0.208376
0.199601
0.190727
0.181857
0.173187
0.164632
0.155945
0.147046
0.138049
0.12838
0.119277
0.110088
0.100907
0.0917501
0.0826188
0.0734831
0.0642414
0.0549431
0.045867
0.0368972
0.0281032
0.0192242
0.0104721
0.00159515
-0.0076512
-0.0172804
-0.0172804
0
0
0.471158
0.453745
0.438543
0.425478
0.414713
0.406466
0.400321
0.395572
0.391207
0.386723
0.382062
0.377
0.372402
0.365125
0.358731
0.352309
0.345658
0.338479
0.331288
0.324024
0.316629
0.309062
0.301138
0.293102
0.285013
0.2769
0.268856
0.260444
0.251774
0.242912
0.23389
0.224757
0.215889
0.20959
0.200477
0.191665
0.182528
0.173511
0.164591
0.155663
0.146658
0.137547
0.128228
0.119048
0.107738
0.100735
0.0915918
0.0824858
0.0734429
0.0642659
0.0554361
0.0456821
0.036475
0.0147087
0.0187302
0.0102106
0.00137232
-0.00811675
-0.0177159
-0.0177159
0
0
0.471158
0.453746
0.438558
0.425587
0.414937
0.406697
0.400529
0.395929
0.392101
0.387627
0.382567
0.377383
0.372085
0.365744
0.359345
0.352829
0.345862
0.338868
0.331724
0.32444
0.317045
0.309561
0.301378
0.293332
0.285301
0.277205
0.269012
0.261577
0.251867
0.242939
0.233686
0.22377
0.211446
0.214824
0.201426
0.193309
0.183145
0.17375
0.164603
0.155532
0.146435
0.137227
0.127982
0.118778
0.109589
0.100439
0.0913062
0.0822048
0.0732383
0.0641003
0.0541408
0.0453955
0.036637
0.027981
0.0190295
0.0102947
0.00147112
-0.00862526
-0.0181058
-0.0181058
0
0
0.471162
0.453761
0.438602
0.425696
0.415136
0.407007
0.4006
0.396062
0.391867
0.387292
0.382529
0.377378
0.371927
0.365997
0.359843
0.353657
0.345746
0.33919
0.332148
0.324861
0.317455
0.310145
0.301548
0.293647
0.285715
0.277581
0.26929
0.26063
0.251971
0.243125
0.233884
0.22454
0.215246
0.210181
0.201081
0.192319
0.182993
0.173715
0.164548
0.155447
0.146325
0.136973
0.127707
0.118516
0.109342
0.100184
0.0910062
0.0817467
0.0633144
0.0639434
0.053561
0.0453531
0.0366086
0.0278129
0.0189069
0.0101762
0.00168467
-0.00908574
-0.0181804
-0.0181804
0
0
0.471166
0.453775
0.438641
0.425782
0.415279
0.407186
0.401134
0.396292
0.392001
0.387586
0.382847
0.377723
0.37224
0.366415
0.360318
0.353968
0.346913
0.339917
0.332716
0.325296
0.317621
0.309441
0.302518
0.294593
0.286442
0.278064
0.269486
0.261006
0.252347
0.243721
0.23404
0.225354
0.216774
0.20899
0.200446
0.19166
0.182621
0.173508
0.164408
0.155362
0.146323
0.136683
0.127435
0.118303
0.10917
0.100022
0.0908604
0.0816807
0.0724684
0.0627994
0.0554947
0.0456917
0.0365553
0.0275493
0.0184701
0.00920717
-0.000268012
-0.00724919
-0.0171934
-0.0171934
0
0
0.471166
0.453775
0.438656
0.42584
0.415405
0.407428
0.401737
0.396514
0.392244
0.38801
0.38342
0.378356
0.372884
0.367066
0.360971
0.354626
0.34781
0.340688
0.333354
0.325848
0.318222
0.310199
0.302013
0.294875
0.286857
0.278373
0.269746
0.261158
0.252513
0.2438
0.234772
0.226001
0.217363
0.208848
0.200163
0.191321
0.182341
0.173284
0.164207
0.155189
0.146339
0.136346
0.127282
0.118215
0.10908
0.099925
0.0907706
0.0816204
0.0724606
0.0632908
0.054887
0.045661
0.0364907
0.0274005
0.0183196
0.0092181
0.000196274
-0.00795133
-0.017403
-0.017403
0
0
0.471154
0.453741
0.438623
0.425855
0.415487
0.407629
0.402484
0.396597
0.392703
0.388811
0.384367
0.379335
0.373816
0.367933
0.361784
0.355574
0.348717
0.341415
0.333963
0.326386
0.318793
0.310985
0.303131
0.295067
0.286991
0.278289
0.269717
0.261195
0.252628
0.24397
0.235195
0.226433
0.217689
0.208932
0.200099
0.191174
0.182165
0.173086
0.163936
0.154655
0.145137
0.136966
0.127681
0.118332
0.109061
0.0998536
0.0906925
0.0815632
0.0724595
0.0634116
0.0545294
0.045467
0.0363721
0.027314
0.0183197
0.00947558
0.00021874
-0.00840582
-0.0177625
-0.0177625
0
0
0.47112
0.453632
0.438514
0.425828
0.41548
0.407367
0.400688
0.398046
0.394459
0.391867
0.385834
0.380607
0.374949
0.368925
0.362484
0.356589
0.349405
0.341857
0.334385
0.326786
0.319408
0.311672
0.303632
0.295095
0.252805
0.277572
0.2696
0.261351
0.252888
0.244277
0.235557
0.226776
0.21795
0.20907
0.200127
0.191123
0.182061
0.172949
0.163787
0.154567
0.145349
0.136584
0.127455
0.118188
0.108933
0.0997328
0.0905877
0.0814832
0.0724081
0.0633645
0.0543508
0.0453045
0.0362506
0.0272279
0.0182589
0.00934462
0.000343648
-0.00857927
-0.0179804
-0.0179804
0
0
0.471054
0.45334
0.441988
0.425848
0.415621
0.407717
0.40185
0.398304
0.394975
0.391136
0.386683
0.38159
0.376004
0.370205
0.362214
0.356651
0.348784
0.348146
0.334528
0.327045
0.320056
0.312368
0.304377
0.296283
0.288329
0.27956
0.270862
0.262201
0.253519
0.244782
0.235985
0.227131
0.218217
0.209235
0.200196
0.191113
0.181994
0.17285
0.163695
0.154552
0.145442
0.136373
0.127181
0.117933
0.108712
0.0995499
0.0904453
0.0813793
0.0723303
0.0632873
0.054241
0.0451861
0.0361418
0.0271379
0.0181736
0.00923024
0.000293657
-0.00869901
-0.0177625
-0.0181083
0
0
0.471051
0.452431
0.437704
0.42554
0.415711
0.408194
0.402807
0.399073
0.395807
0.392162
0.387831
0.382787
0.377101
0.370655
0.362176
0.200166
0.345078
0.340149
0.334415
0.328185
0.320413
0.312782
0.305021
0.297129
0.288823
0.280282
0.271632
0.262915
0.25414
0.245313
0.236435
0.227504
0.218505
0.209417
0.200276
0.191112
0.181931
0.172743
0.163577
0.154481
0.14543
0.136205
0.126885
0.1176
0.10841
0.0993059
0.0902687
0.0812658
0.0722566
0.0632271
0.0541716
0.0450984
0.0360427
0.0270522
0.0180836
0.00910992
0.000133002
-0.0121525
-0.0183154
-0.0183154
0
0
0.472498
0.450041
0.437101
0.42556
0.4161
0.408908
0.403815
0.40024
0.397103
0.393607
0.389381
0.384398
0.37877
0.3726
0.36606
0.361003
0.352855
0.344965
0.337394
0.329913
0.321985
0.314013
0.306006
0.298062
0.289281
0.280823
0.272249
0.263526
0.254706
0.245818
0.23688
0.227893
0.218828
0.209604
0.200345
0.191096
0.181844
0.172583
0.163349
0.154262
0.14531
0.135865
0.126375
0.117076
0.107977
0.0989847
0.0900634
0.0811681
0.0722203
0.063216
0.0541529
0.0450429
0.0359478
0.026979
0.0157004
0.00900353
9.77705e-05
-0.00891115
-0.0198638
-0.0184083
0
0
0.471246
0.452713
0.43827
0.426438
0.417056
0.410011
0.40513
0.401952
0.398943
0.395541
0.391382
0.386439
0.380855
0.37485
0.368569
0.362516
0.355236
0.347476
0.339593
0.33164
0.323522
0.315283
0.306901
0.298239
0.290357
0.281785
0.273018
0.264167
0.255259
0.246306
0.237318
0.228306
0.219219
0.20977
0.200378
0.19106
0.181737
0.172357
0.162879
0.153658
0.144846
0.134909
0.125296
0.116159
0.107334
0.0985694
0.0898438
0.081133
0.0722806
0.0633144
0.0542354
0.0450563
0.0358718
0.027053
0.0180107
0.00896116
1.04246e-05
-0.0089969
-0.0183777
-0.0183777
0
0
0.471209
0.453835
0.439358
0.427525
0.41537
0.411332
0.406468
0.404721
0.401397
0.397983
0.393856
0.388905
0.38323
0.367846
0.370568
0.363972
0.356776
0.349137
0.341236
0.333163
0.324938
0.316532
0.307992
0.299366
0.290974
0.282367
0.273598
0.264729
0.255763
0.246752
0.237728
0.228726
0.219733
0.209837
0.200381
0.191053
0.181677
0.17222
0.161963
0.152152
0.143011
0.132453
0.123301
0.114721
0.106452
0.0981145
0.0896564
0.0812281
0.0725793
0.0636716
0.054541
0.0452456
0.0358536
0.0270965
0.0178714
0.00878698
-0.000167588
-0.00916844
-0.0185253
-0.0185253
0
0
0.47133
0.454424
0.440234
0.428689
0.419746
0.413237
0.408872
0.406327
0.403772
0.400715
0.396771
0.391842
0.386129
0.379913
0.373143
0.366038
0.358574
0.350805
0.342806
0.33464
0.326343
0.317753
0.309062
0.300363
0.291706
0.282971
0.274144
0.265221
0.256213
0.247155
0.238062
0.229021
0.220239
0.209791
0.200525
0.191242
0.181735
0.171934
0.161395
0.149548
0.0199434
0.128089
0.121002
0.113027
0.105265
0.0979784
0.0895951
0.0813392
0.0735638
0.0646676
0.0552848
0.0458406
0.03651
0.0265389
0.0174362
0.00846786
-0.000436711
-0.00940207
-0.0187179
-0.0187179
0
0
0.471453
0.454869
0.441058
0.429936
0.421435
0.415435
0.411595
0.409177
0.406992
0.404184
0.400355
0.395303
0.389359
0.382801
0.37574
0.368305
0.360567
0.352589
0.344425