# vtk DataFile Version 2.0
FlowField
ASCII
DATASET STRUCTURED_GRID
DIMENSIONS 62 47 32 
POINTS 93248 double
0 0 0
0.01 0 0
0.02 0 0
0.03 0 0
0.04 0 0
0.05 0 0
0.06 0 0
0.07 0 0
0.08 0 0
0.09 0 0
0.1 0 0
0.11 0 0
0.12 0 0
0.13 0 0
0.14 0 0
0.15 0 0
0.16 0 0
0.17 0 0
0.18 0 0
0.19 0 0
0.2 0 0
0.21 0 0
0.22 0 0
0.23 0 0
0.24 0 0
0.25 0 0
0.26 0 0
0.27 0 0
0.28 0 0
0.29 0 0
0.3 0 0
0.31 0 0
0.32 0 0
0.33 0 0
0.34 0 0
0.35 0 0
0.36 0 0
0.37 0 0
0.38 0 0
0.39 0 0
0.4 0 0
0.41 0 0
0.42 0 0
0.43 0 0
0.44 0 0
0.45 0 0
0.46 0 0
0.47 0 0
0.48 0 0
0.49 0 0
0.5 0 0
0.51 0 0
0.52 0 0
0.53 0 0
0.54 0 0
0.55 0 0
0.56 0 0
0.57 0 0
0.58 0 0
0.59 0 0
0.6 0 0
0.61 0 0
0 0.01 0
0.01 0.01 0
0.02 0.01 0
0.03 0.01 0
0.04 0.01 0
0.05 0.01 0
0.06 0.01 0
0.07 0.01 0
0.08 0.01 0
0.09 0.01 0
0.1 0.01 0
0.11 0.01 0
0.12 0.01 0
0.13 0.01 0
0.14 0.01 0
0.15 0.01 0
0.16 0.01 0
0.17 0.01 0
0.18 0.01 0
0.19 0.01 0
0.2 0.01 0
0.21 0.01 0
0.22 0.01 0
0.23 0.01 0
0.24 0.01 0
0.25 0.01 0
0.26 0.01 0
0.27 0.01 0
0.28 0.01 0
0.29 0.01 0
0.3 0.01 0
0.31 0.01 0
0.32 0.01 0
0.33 0.01 0
0.34 0.01 0
0.35 0.01 0
0.36 0.01 0
0.37 0.01 0
0.38 0.01 0
0.39 0.01 0
0.4 0.01 0
0.41 0.01 0
0.42 0.01 0
0.43 0.01 0
0.44 0.01 0
0.45 0.01 0
0.46 0.01 0
0.47 0.01 0
0.48 0.01 0
0.49 0.01 0
0.5 0.01 0
0.51 0.01 0
0.52 0.01 0
0.53 0.01 0
0.54 0.01 0
0.55 0.01 0
0.56 0.01 0
0.57 0.01 0
0.58 0.01 0
0.59 0.01 0
0.6 0.01 0
0.61 0.01 0
0 0.02 0
0.01 0.02 0
0.02 0.02 0
0.03 0.02 0
0.04 0.02 0
0.05 0.02 0
0.06 0.02 0
0.07 0.02 0
0.08 0.02 0
0.09 0.02 0
0.1 0.02 0
0.11 0.02 0
0.12 0.02 0
0.13 0.02 0
0.14 0.02 0
0.15 0.02 0
0.16 0.02 0
0.17 0.02 0
0.18 0.02 0
0.19 0.02 0
0.2 0.02 0
0.21 0.02 0
0.22 0.02 0
0.23 0.02 0
0.24 0.02 0
0.25 0.02 0
0.26 0.02 0
0.27 0.02 0
0.28 0.02 0
0.29 0.02 0
0.3 0.02 0
0.31 0.02 0
0.32 0.02 0
0.33 0.02 0
0.34 0.02 0
0.35 0.02 0
0.36 0.02 0
0.37 0.02 0
0.38 0.02 0
0.39 0.02 0
0.4 0.02 0
0.41 0.02 0
0.42 0.02 0
0.43 0.02 0
0.44 0.02 0
0.45 0.02 0
0.46 0.02 0
0.47 0.02 0
0.48 0.02 0
0.49 0.02 0
0.5 0.02 0
0.51 0.02 0
0.52 0.02 0
0.53 0.02 0
0.54 0.02 0
0.55 0.02 0
0.56 0.02 0
0.57 0.02 0
0.58 0.02 0
0.59 0.02 0
0.6 0.02 0
0.61 0.02 0
0 0.03 0
0.01 0.03 0
0.02 0.03 0
0.03 0.03 0
0.04 0.03 0
0.05 0.03 0
0.06 0.03 0
0.07 0.03 0
0.08 0.03 0
0.09 0.03 0
0.1 0.03 0
0.11 0.03 0
0.12 0.03 0
0.13 0.03 0
0.14 0.03 0
0.15 0.03 0
0.16 0.03 0
0.17 0.03 0
0.18 0.03 0
0.19 0.03 0
0.2 0.03 0
0.21 0.03 0
0.22 0.03 0
0.23 0.03 0
0.24 0.03 0
0.25 0.03 0
0.26 0.03 0
0.27 0.03 0
0.28 0.03 0
0.29 0.03 0
0.3 0.03 0
0.31 0.03 0
0.32 0.03 0
0.33 0.03 0
0.34 0.03 0
0.35 0.03 0
0.36 0.03 0
0.37 0.03 0
0.38 0.03 0
0.39 0.03 0
0.4 0.03 0
0.41 0.03 0
0.42 0.03 0
0.43 0.03 0
0.44 0.03 0
0.45 0.03 0
0.46 0.03 0
0.47 0.03 0
0.48 0.03 0
0.49 0.03 0
0.5 0.03 0
0.51 0.03 0
0.52 0.03 0
0.53 0.03 0
0.54 0.03 0
0.55 0.03 0
0.56 0.03 0
0.57 0.03 0
0.58 0.03 0
0.59 0.03 0
0.6 0.03 0
0.61 0.03 0
0 0.04 0
0.01 0.04 0
0.02 0.04 0
0.03 0.04 0
0.04 0.04 0
0.05 0.04 0
0.06 0.04 0
0.07 0.04 0
0.08 0.04 0
0.09 0.04 0
0.1 0.04 0
0.11 0.04 0
0.12 0.04 0
0.13 0.04 0
0.14 0.04 0
0.15 0.04 0
0.16 0.04 0
0.17 0.04 0
0.18 0.04 0
0.19 0.04 0
0.2 0.04 0
0.21 0.04 0
0.22 0.04 0
0.23 0.04 0
0.24 0.04 0
0.25 0.04 0
0.26 0.04 0
0.27 0.04 0
0.28 0.04 0
0.29 0.04 0
0.3 0.04 0
0.31 0.04 0
0.32 0.04 0
0.33 0.04 0
0.34 0.04 0
0.35 0.04 0
0.36 0.04 0
0.37 0.04 0
0.38 0.04 0
0.39 0.04 0
0.4 0.04 0
0.41 0.04 0
0.42 0.04 0
0.43 0.04 0
0.44 0.04 0
0.45 0.04 0
0.46 0.04 0
0.47 0.04 0
0.48 0.04 0
0.49 0.04 0
0.5 0.04 0
0.51 0.04 0
0.52 0.04 0
0.53 0.04 0
0.54 0.04 0
0.55 0.04 0
0.56 0.04 0
0.57 0.04 0
0.58 0.04 0
0.59 0.04 0
0.6 0.04 0
0.61 0.04 0
0 0.05 0
0.01 0.05 0
0.02 0.05 0
0.03 0.05 0
0.04 0.05 0
0.05 0.05 0
0.06 0.05 0
0.07 0.05 0
0.08 0.05 0
0.09 0.05 0
0.1 0.05 0
0.11 0.05 0
0.12 0.05 0
0.13 0.05 0
0.14 0.05 0
0.15 0.05 0
0.16 0.05 0
0.17 0.05 0
0.18 0.05 0
0.19 0.05 0
0.2 0.05 0
0.21 0.05 0
0.22 0.05 0
0.23 0.05 0
0.24 0.05 0
0.25 0.05 0
0.26 0.05 0
0.27 0.05 0
0.28 0.05 0
0.29 0.05 0
0.3 0.05 0
0.31 0.05 0
0.32 0.05 0
0.33 0.05 0
0.34 0.05 0
0.35 0.05 0
0.36 0.05 0
0.37 0.05 0
0.38 0.05 0
0.39 0.05 0
0.4 0.05 0
0.41 0.05 0
0.42 0.05 0
0.43 0.05 0
0.44 0.05 0
0.45 0.05 0
0.46 0.05 0
0.47 0.05 0
0.48 0.05 0
0.49 0.05 0
0.5 0.05 0
0.51 0.05 0
0.52 0.05 0
0.53 0.05 0
0.54 0.05 0
0.55 0.05 0
0.56 0.05 0
0.57 0.05 0
0.58 0.05 0
0.59 0.05 0
0.6 0.05 0
0.61 0.05 0
0 0.06 0
0.01 0.06 0
0.02 0.06 0
0.03 0.06 0
0.04 0.06 0
0.05 0.06 0
0.06 0.06 0
0.07 0.06 0
0.08 0.06 0
0.09 0.06 0
0.1 0.06 0
0.11 0.06 0
0.12 0.06 0
0.13 0.06 0
0.14 0.06 0
0.15 0.06 0
0.16 0.06 0
0.17 0.06 0
0.18 0.06 0
0.19 0.06 0
0.2 0.06 0
0.21 0.06 0
0.22 0.06 0
0.23 0.06 0
0.24 0.06 0
0.25 0.06 0
0.26 0.06 0
0.27 0.06 0
0.28 0.06 0
0.29 0.06 0
0.3 0.06 0
0.31 0.06 0
0.32 0.06 0
0.33 0.06 0
0.34 0.06 0
0.35 0.06 0
0.36 0.06 0
0.37 0.06 0
0.38 0.06 0
0.39 0.06 0
0.4 0.06 0
0.41 0.06 0
0.42 0.06 0
0.43 0.06 0
0.44 0.06 0
0.45 0.06 0
0.46 0.06 0
0.47 0.06 0
0.48 0.06 0
0.49 0.06 0
0.5 0.06 0
0.51 0.06 0
0.52 0.06 0
0.53 0.06 0
0.54 0.06 0
0.55 0.06 0
0.56 0.06 0
0.57 0.06 0
0.58 0.06 0
0.59 0.06 0
0.6 0.06 0
0.61 0.06 0
0 0.07 0
0.01 0.07 0
0.02 0.07 0
0.03 0.07 0
0.04 0.07 0
0.05 0.07 0
0.06 0.07 0
0.07 0.07 0
0.08 0.07 0
0.09 0.07 0
0.1 0.07 0
0.11 0.07 0
0.12 0.07 0
0.13 0.07 0
0.14 0.07 0
0.15 0.07 0
0.16 0.07 0
0.17 0.07 0
0.18 0.07 0
0.19 0.07 0
0.2 0.07 0
0.21 0.07 0
0.22 0.07 0
0.23 0.07 0
0.24 0.07 0
0.25 0.07 0
0.26 0.07 0
0.27 0.07 0
0.28 0.07 0
0.29 0.07 0
0.3 0.07 0
0.31 0.07 0
0.32 0.07 0
0.33 0.07 0
0.34 0.07 0
0.35 0.07 0
0.36 0.07 0
0.37 0.07 0
0.38 0.07 0
0.39 0.07 0
0.4 0.07 0
0.41 0.07 0
0.42 0.07 0
0.43 0.07 0
0.44 0.07 0
0.45 0.07 0
0.46 0.07 0
0.47 0.07 0
0.48 0.07 0
0.49 0.07 0
0.5 0.07 0
0.51 0.07 0
0.52 0.07 0
0.53 0.07 0
0.54 0.07 0
0.55 0.07 0
0.56 0.07 0
0.57 0.07 0
0.58 0.07 0
0.59 0.07 0
0.6 0.07 0
0.61 0.07 0
0 0.08 0
0.01 0.08 0
0.02 0.08 0
0.03 0.08 0
0.04 0.08 0
0.05 0.08 0
0.06 0.08 0
0.07 0.08 0
0.08 0.08 0
0.09 0.08 0
0.1 0.08 0
0.11 0.08 0
0.12 0.08 0
0.13 0.08 0
0.14 0.08 0
0.15 0.08 0
0.16 0.08 0
0.17 0.08 0
0.18 0.08 0
0.19 0.08 0
0.2 0.08 0
0.21 0.08 0
0.22 0.08 0
0.23 0.08 0
0.24 0.08 0
0.25 0.08 0
0.26 0.08 0
0.27 0.08 0
0.28 0.08 0
0.29 0.08 0
0.3 0.08 0
0.31 0.08 0
0.32 0.08 0
0.33 0.08 0
0.34 0.08 0
0.35 0.08 0
0.36 0.08 0
0.37 0.08 0
0.38 0.08 0
0.39 0.08 0
0.4 0.08 0
0.41 0.08 0
0.42 0.08 0
0.43 0.08 0
0.44 0.08 0
0.45 0.08 0
0.46 0.08 0
0.47 0.08 0
0.48 0.08 0
0.49 0.08 0
0.5 0.08 0
0.51 0.08 0
0.52 0.08 0
0.53 0.08 0
0.54 0.08 0
0.55 0.08 0
0.56 0.08 0
0.57 0.08 0
0.58 0.08 0
0.59 0.08 0
0.6 0.08 0
0.61 0.08 0
0 0.09 0
0.01 0.09 0
0.02 0.09 0
0.03 0.09 0
0.04 0.09 0
0.05 0.09 0
0.06 0.09 0
0.07 0.09 0
0.08 0.09 0
0.09 0.09 0
0.1 0.09 0
0.11 0.09 0
0.12 0.09 0
0.13 0.09 0
0.14 0.09 0
0.15 0.09 0
0.16 0.09 0
0.17 0.09 0
0.18 0.09 0
0.19 0.09 0
0.2 0.09 0
0.21 0.09 0
0.22 0.09 0
0.23 0.09 0
0.24 0.09 0
0.25 0.09 0
0.26 0.09 0
0.27 0.09 0
0.28 0.09 0
0.29 0.09 0
0.3 0.09 0
0.31 0.09 0
0.32 0.09 0
0.33 0.09 0
0.34 0.09 0
0.35 0.09 0
0.36 0.09 0
0.37 0.09 0
0.38 0.09 0
0.39 0.09 0
0.4 0.09 0
0.41 0.09 0
0.42 0.09 0
0.43 0.09 0
0.44 0.09 0
0.45 0.09 0
0.46 0.09 0
0.47 0.09 0
0.48 0.09 0
0.49 0.09 0
0.5 0.09 0
0.51 0.09 0
0.52 0.09 0
0.53 0.09 0
0.54 0.09 0
0.55 0.09 0
0.56 0.09 0
0.57 0.09 0
0.58 0.09 0
0.59 0.09 0
0.6 0.09 0
0.61 0.09 0
0 0.1 0
0.01 0.1 0
0.02 0.1 0
0.03 0.1 0
0.04 0.1 0
0.05 0.1 0
0.06 0.1 0
0.07 0.1 0
0.08 0.1 0
0.09 0.1 0
0.1 0.1 0
0.11 0.1 0
0.12 0.1 0
0.13 0.1 0
0.14 0.1 0
0.15 0.1 0
0.16 0.1 0
0.17 0.1 0
0.18 0.1 0
0.19 0.1 0
0.2 0.1 0
0.21 0.1 0
0.22 0.1 0
0.23 0.1 0
0.24 0.1 0
0.25 0.1 0
0.26 0.1 0
0.27 0.1 0
0.28 0.1 0
0.29 0.1 0
0.3 0.1 0
0.31 0.1 0
0.32 0.1 0
0.33 0.1 0
0.34 0.1 0
0.35 0.1 0
0.36 0.1 0
0.37 0.1 0
0.38 0.1 0
0.39 0.1 0
0.4 0.1 0
0.41 0.1 0
0.42 0.1 0
0.43 0.1 0
0.44 0.1 0
0.45 0.1 0
0.46 0.1 0
0.47 0.1 0
0.48 0.1 0
0.49 0.1 0
0.5 0.1 0
0.51 0.1 0
0.52 0.1 0
0.53 0.1 0
0.54 0.1 0
0.55 0.1 0
0.56 0.1 0
0.57 0.1 0
0.58 0.1 0
0.59 0.1 0
0.6 0.1 0
0.61 0.1 0
0 0.11 0
0.01 0.11 0
0.02 0.11 0
0.03 0.11 0
0.04 0.11 0
0.05 0.11 0
0.06 0.11 0
0.07 0.11 0
0.08 0.11 0
0.09 0.11 0
0.1 0.11 0
0.11 0.11 0
0.12 0.11 0
0.13 0.11 0
0.14 0.11 0
0.15 0.11 0
0.16 0.11 0
0.17 0.11 0
0.18 0.11 0
0.19 0.11 0
0.2 0.11 0
0.21 0.11 0
0.22 0.11 0
0.23 0.11 0
0.24 0.11 0
0.25 0.11 0
0.26 0.11 0
0.27 0.11 0
0.28 0.11 0
0.29 0.11 0
0.3 0.11 0
0.31 0.11 0
0.32 0.11 0
0.33 0.11 0
0.34 0.11 0
0.35 0.11 0
0.36 0.11 0
0.37 0.11 0
0.38 0.11 0
0.39 0.11 0
0.4 0.11 0
0.41 0.11 0
0.42 0.11 0
0.43 0.11 0
0.44 0.11 0
0.45 0.11 0
0.46 0.11 0
0.47 0.11 0
0.48 0.11 0
0.49 0.11 0
0.5 0.11 0
0.51 0.11 0
0.52 0.11 0
0.53 0.11 0
0.54 0.11 0
0.55 0.11 0
0.56 0.11 0
0.57 0.11 0
0.58 0.11 0
0.59 0.11 0
0.6 0.11 0
0.61 0.11 0
0 0.12 0
0.01 0.12 0
0.02 0.12 0
0.03 0.12 0
0.04 0.12 0
0.05 0.12 0
0.06 0.12 0
0.07 0.12 0
0.08 0.12 0
0.09 0.12 0
0.1 0.12 0
0.11 0.12 0
0.12 0.12 0
0.13 0.12 0
0.14 0.12 0
0.15 0.12 0
0.16 0.12 0
0.17 0.12 0
0.18 0.12 0
0.19 0.12 0
0.2 0.12 0
0.21 0.12 0
0.22 0.12 0
0.23 0.12 0
0.24 0.12 0
0.25 0.12 0
0.26 0.12 0
0.27 0.12 0
0.28 0.12 0
0.29 0.12 0
0.3 0.12 0
0.31 0.12 0
0.32 0.12 0
0.33 0.12 0
0.34 0.12 0
0.35 0.12 0
0.36 0.12 0
0.37 0.12 0
0.38 0.12 0
0.39 0.12 0
0.4 0.12 0
0.41 0.12 0
0.42 0.12 0
0.43 0.12 0
0.44 0.12 0
0.45 0.12 0
0.46 0.12 0
0.47 0.12 0
0.48 0.12 0
0.49 0.12 0
0.5 0.12 0
0.51 0.12 0
0.52 0.12 0
0.53 0.12 0
0.54 0.12 0
0.55 0.12 0
0.56 0.12 0
0.57 0.12 0
0.58 0.12 0
0.59 0.12 0
0.6 0.12 0
0.61 0.12 0
0 0.13 0
0.01 0.13 0
0.02 0.13 0
0.03 0.13 0
0.04 0.13 0
0.05 0.13 0
0.06 0.13 0
0.07 0.13 0
0.08 0.13 0
0.09 0.13 0
0.1 0.13 0
0.11 0.13 0
0.12 0.13 0
0.13 0.13 0
0.14 0.13 0
0.15 0.13 0
0.16 0.13 0
0.17 0.13 0
0.18 0.13 0
0.19 0.13 0
0.2 0.13 0
0.21 0.13 0
0.22 0.13 0
0.23 0.13 0
0.24 0.13 0
0.25 0.13 0
0.26 0.13 0
0.27 0.13 0
0.28 0.13 0
0.29 0.13 0
0.3 0.13 0
0.31 0.13 0
0.32 0.13 0
0.33 0.13 0
0.34 0.13 0
0.35 0.13 0
0.36 0.13 0
0.37 0.13 0
0.38 0.13 0
0.39 0.13 0
0.4 0.13 0
0.41 0.13 0
0.42 0.13 0
0.43 0.13 0
0.44 0.13 0
0.45 0.13 0
0.46 0.13 0
0.47 0.13 0
0.48 0.13 0
[...]
POINT_DATA 93248

SCALARS u double
LOOKUP_TABLE default
0
0
0
0
0
0
0
0
0
0
0
0
0
0
0
0
0
0
0
0
0
0
0
0
0.281393
0
0
0
0
0
0
0
0.0168694
0.215199
0
0
0
0
0
0
0
0
0
0
0
0
0
0.0565688
0
0
0.0606277
0
0
0
0
0
0
0
0
0
0
0
0
0.408834
0.324701
0.243787
0.177099
0.12772
0.0910665
0.0650345
0.0468574
0.0337206
0.0239336
0.0174392
0.0168547
0.0161657
0.0159398
0.0162034
0.0169178
0.0168893
0.0162209
0.0142033
0.0209478
0.0219698
0.0174737
0.0169248
0.0166581
0.0162587
0.0157652
0.0152046
0.0145548
0.0137456
0.0126881
0.0116427
0.0125386
0.0114924
0.00954392
0.00808264
0.00917058
0.00650275
0.00294188
0.146071
-0.0019496
0.00220359
0.00381905
0.00686728
0.0150113
-0.0216307
-0.00635342
-0.00539962
-0.00509808
-0.00641993
-0.00774685
0.0018805
-0.00776767
0.000685631
-0.0347169
-0.0282106
-0.0201833
-0.0241022
-0.0291872
-0.037834
-0.037834
0
0
0.482962
0.459491
0.426948
0.385807
0.346161
0.301064
0.257937
0.219865
0.188795
0.164511
0.146154
0.138137
0.130297
0.125258
0.122091
0.120397
0.118213
0.118023
0.311404
0.120655
0.118773
0.102856
0.102608
0.100331
0.0975776
0.0946447
0.0915872
0.0884012
0.0850467
0.0814102
0.07731
0.0763713
0.0722615
0.0682318
0.065254
0.0592984
0.0543904
-0.00741825
0.0483296
0.0446341
0.0407996
0.0395402
0.0392227
0.0368883
0.0190213
0.0116615
0.011032
0.0085044
0.00594066
0.00435926
-0.00402353
-0.00539341
-0.00981374
-0.0302071
-0.0351566
-0.0424862
-0.0450462
-0.0541125
-0.0644729
-0.0644729
0
0
0.477042
0.469695
0.462025
0.442704
0.437237
0.406155
0.376338
0.347618
0.320822
0.326754
0.278299
0.256567
0.243054
0.232976
0.225886
0.220523
0.213885
0.209721
0.204796
0.197172
0.194509
0.186681
0.181933
0.177323
0.172471
0.16739
0.162134
0.156756
0.151345
0.146154
0.141604
0.133966
0.127822
0.199093
0.118447
0.110808
0.105124
0.101543
0.0959981
0.0892074
0.0823278
0.118997
0.0707789
0.0634456
0.113377
0.0406051
0.0330121
0.0085044
0.0218602
0.0166922
0.00882406
0.0018805
-0.00741965
-0.0209562
-0.0307432
-0.0401016
-0.05277
-0.0619142
-0.0715841
-0.0715841
0
0
0.469938
0.457646
0.45972
0.450401
0.444422
0.431808
0.416708
0.400443
0.383828
0.367124
0.351323
0.334371
0.319642
0.307039
0.297005
0.286765
0.280625
0.273251
0.309506
0.256769
0.249224
0.241722
0.235019
0.228608
0.22218
0.215614
0.208904
0.202085
0.195213
0.188345
0.181299
0.172965
0.165334
0.157641
0.151191
0.144324
0.137873
0.132359
0.125063
0.116927
0.108101
0.0988198
0.0903325
0.0808746
0.0697434
0.0585944
0.0499609
0.042469
0.0346793
0.0266887
0.0178406
0.0085083
-0.00199119
-0.013594
-0.0247939
-0.0360044
-0.0481709
-0.0589734
-0.0697307
-0.0697307
0
0
0.467439
0.452902
0.445384
0.438261
0.432525
0.425323
0.41715
0.408214
0.398446
0.387959
0.377001
0.365308
0.353491
0.341283
0.334568
0.32351
0.31449
0.305756
0.296124
0.287182
0.278841
0.270885
0.263292
0.2559
0.248559
0.241139
0.233624
0.22602
0.218313
0.210424
0.202102
0.193134
0.18588
0.177616
0.169717
0.162072
0.154649
0.147303
0.139132
0.13029
0.120828
0.110871
0.10098
0.0908853
0.0810362
0.0793428
0.0599682
0.0511417
0.0420526
0.0327299
0.0230631
0.0129922
0.00242287
-0.00846493
-0.019402
-0.0301737
-0.0405975
-0.0502566
-0.0612954
-0.0612954
0
0
0.466328
0.449022
0.436447
0.426511
0.418534
0.41102
0.404318
0.397785
0.390776
0.383397
0.375821
0.36808
0.359846
0.351266
0.343951
0.335917
0.326668
0.318951
0.309066
0.30007
0.291628
0.283528
0.275635
0.267862
0.260148
0.252328
0.24446
0.236532
0.228493
0.220234
0.211509
0.201794
0.195773
0.186718
0.178006
0.169689
0.161529
0.15324
0.144536
0.135371
0.125757
0.115728
0.10539
0.0945407
0.0831643
0.0759639
0.065841
0.0557815
0.0458587
0.0359394
0.0259441
0.0158101
0.00549732
-0.00481089
-0.014942
-0.0245566
-0.0328375
-0.0373165
-0.0350767
-0.0350767
0
0
0.465723
0.446614
0.431112
0.41842
0.408155
0.450463
0.392297
0.384193
0.376997
0.370468
0.364587
0.359681
0.353988
0.347798
0.341323
0.335258
0.327499
0.319568
0.311404
0.303327
0.295497
0.287696
0.279885
0.272069
0.264276
0.256328
0.248414
0.240475
0.232452
0.224325
0.216318
0.209116
0.197099
0.188588
0.180363
0.172085
0.163668
0.155022
0.146071
0.136795
0.127213
0.120152
0.107078
0.0965666
0.0862427
0.0774498
0.0677966
0.0577825
0.0477029
0.0376408
0.0276366
0.0177052
0.00770501
-0.0020838
-0.0115501
-0.0207972
-0.0306519
-0.0424375
-0.0207498
-0.0207498
0
0
0.46535
0.445101
0.427801
0.413007
0.400284
0.388865
0.379573
0.371185
0.363738
0.35722
0.351843
0.350149
0.345448
0.340274
0.333294
0.120397
0.321122
0.315606
0.309506
0.302691
0.295774
0.288397
0.280753
0.272938
0.248559
0.257151
0.249518
0.24177
0.233912
0.225881
0.217688
0.209324
0.199282
0.190113
0.181426
0.172844
0.164195
0.155368
0.146308
0.137001
0.127447
0.117642
0.107692
0.0976443
0.0877457
0.0782301
0.0685514
0.0586573
0.0486476
0.0386241
0.0287114
0.0191185
0.00935135
-2.16483e-05
-0.00893726
-0.0174327
-0.0258095
-0.0367537
-0.0354227
-0.0354227
0
0
0.465104
0.444108
0.42564
0.409415
0.395105
0.382361
0.371436
0.361963
0.353771
0.34651
0.338555
0.345817
0.338781
0.334076
0.329678
0.326998
0.322329
0.315829
0.309098
0.301969
0.295424
0.288031
0.280445
0.272786
0.265486
0.257675
0.249921
0.242252
0.234598
0.226695
0.218052
0.209166
0.199942
0.190889
0.182028
0.173224
0.164388
0.155437
0.146314
0.137004
0.127514
0.117858
0.108097
0.0982884
0.0885214
0.0788172
0.0690703
0.0592221
0.0492769
0.0392744
0.0292503
0.0202077
0.0105371
0.00150332
-0.00717178
-0.0156657
-0.0243444
-0.0338128
-0.0416172
-0.0416172
0
0
0.464937
0.443437
0.42418
0.407007
0.391675
0.378034
0.366103
0.355817
0.347139
0.340008
0.334535
0.334522
0.331703
0.32873
0.325515
0.322783
0.318728
0.313432
0.307502
0.301384
0.293888
0.286771
0.279446
0.2718
0.265207
0.257363
0.249754
0.242335
0.235124
0.246835
0.218268
0.209048
0.200128
0.191272
0.182444
0.17711
0.164642
0.15559
0.146415
0.137105
0.127668
0.118122
0.108477
0.0987788
0.0890662
0.0793428
0.069591
0.059782
0.049897
0.0399558
0.0298645
-0.00476258
0.0113011
0.00275781
-0.00585594
-0.0144906
-0.0233511
-0.0327606
-0.0428046
-0.0428046
0
0
0.464824
0.442981
0.423171
0.405375
0.389334
0.37504
0.362485
0.351707
0.342777
0.335786
0.330892
0.32836
0.326203
0.324284
0.321136
0.318187
0.3146
0.310117
0.304926
0.297576
0.292499
0.285619
0.278468
0.271113
0.263986
0.256523
0.249156
0.241997
0.234923
0.227852
0.217169
0.208871
0.200398
0.191668
0.182799
0.173866
0.169846
0.155869
0.146648
0.137332
0.127929
0.11848
0.108895
0.0992436
0.0895648
0.0798722
0.0701697
0.0604408
0.0506756
0.0410836
0.0318376
0.023124
0.0135581
0.00434291
-0.00459332
-0.0134389
-0.0224474
-0.0319646
-0.0423999
-0.0423999
0
0
0.46475
0.442689
0.422584
0.40419
0.387672
0.372927
0.359975
0.348891
0.339784
0.332756
0.327764
0.324486
0.322239
0.32091
0.316977
0.314406
0.31118
0.307108
0.302454
0.297146
0.291056
0.284435
0.277424
0.270146
0.262757
0.255302
0.248085
0.241195
0.234088
0.22491
0.219447
0.210667
0.201513
0.192376
0.183273
0.174186
0.165102
0.156084
0.146942
0.137632
0.128214
0.118997
0.109396
0.0997395
0.0900769
0.0804265
0.0708056
0.0611913
0.0514839
0.0421263
0.0331023
0.0242276
0.0149358
0.00567806
-0.00339598
-0.0123756
-0.0214936
-0.0310844
-0.0416003
-0.0416003
0
0
0.464699
0.442482
0.42211
0.403354
0.38651
0.371454
0.358223
0.346918
0.33765
0.330497
0.325287
0.32161
0.318745
0.315521
0.315185
0.31249
0.308937
0.304701
0.300449
0.295452
0.289638
0.283181
0.276236
0.268907
0.261285
0.253552
0.246217
0.239761
0.235228
0.227348
0.21974
0.211146
0.202092
0.19289
0.183672
0.174504
0.165395
0.15645
0.147364
0.137985
0.128147
0.120055
0.110033
0.100286
0.0906097
0.0809853
0.071447
0.0619768
0.0521545
0.04296
0.0339858
0.0249911
0.0158324
0.00670054
-0.00232171
-0.0112938
-0.0204875
-0.030099
-0.0406656
-0.0406656
0
0
0.464666
0.442354
0.421919
0.402588
0.385667
0.370419
0.356991
0.345522
0.336134
0.328808
0.323414
0.319532
0.316573
0.313995
0.312394
0.309977
0.306595
0.302239
0.298891
0.294112
0.28833
0.281899
0.274941
0.267478
0.259468
0.250887
0.242139
0.234057
0.240837
0.231856
0.221969
0.212342
0.202838
0.193365
0.18396
0.174765
0.165489
0.156855
0.147974
0.138689
0.129175
0.120152
0.110534
0.100835
0.0911397
0.0814929
0.0719638
0.062685
0.0526508
0.0437577
0.0348413
0.0258166
0.0165425
0.00753764
-0.00134234
-0.0100954
-0.0195225
-0.0289697
-0.0395485
-0.0395485
0
0
0.464641
0.442207
0.421522
0.402402
0.38517
0.369725
0.356136
0.344531
0.33502
0.327592
0.322066
0.318073
0.315115
0.312732
0.310634
0.30814
0.304831
0.30006
0.298084
0.292854
0.286926
0.280524
0.27361
0.266055
0.257581
0.247368
0.232645
0.205395
0.270347
0.241148
0.225739
0.214159
0.203737
0.193731
0.183955
0.17447
0.165407
0.157191
0.148851
0.139757
0.130282
0.120781
0.11114
0.101429
0.0916704
0.0819129
0.0721153
0.0622752
0.0539283
0.0448833
0.0358619
0.0270512
0.0169085
0.00826908
-0.000516956
-0.00916222
-0.0181366
-0.0274624
-0.037993
-0.037993
0
0
0.464653
0.442098
0.421303
0.402212
0.384873
0.369286
0.355555
0.34384
0.334247
0.326754
0.321124
0.317037
0.314047
0.311678
0.309478
0.307069
0.304426
0.302254
0.295191
0.2903
0.285036
0.279098
0.272455
0.265061
0.256727
0.247059
0.23575
0.226181
0.242832
0.235836
0.225118
0.214282
0.203762
0.193484
0.183348
0.173437
0.164195
0.156675
0.150452
0.141645
0.131895
0.121986
0.112083
0.102204
0.0922917
0.0824461
0.0726266
0.0629551
0.0539983
0.045524
0.0365928
0.0274998
0.0180785
0.00928164
4.74939e-05
-0.00822974
-0.0165823
-0.0253227
-0.0354626
-0.0354626
0
0
0.464741
0.441999
0.421208
0.402136
0.384775
0.368985
0.355121
0.343344
0.333736
0.326244
0.320485
0.316274
0.313224
0.310852
0.308653
0.306258
0.303524
0.300332
0.295127
0.289891
0.284407
0.278453
0.271931
0.264793
0.25702
0.248707
0.240431
0.234665
0.234645
0.229709
0.221714
0.212385
0.202531
0.192412
0.181986
0.171215
0.160303
0.15155
0.155992
0.145988
0.13473
0.123859
0.113377
0.103166
0.0930144
0.0830912
0.0732429
0.0634643
0.0540053
0.0461802
0.0371238
0.027954
0.0191341
0.0114354
-0.000707177
-0.00756622
-0.0149346
-0.0223043
-0.0308123
-0.0308123
0
0
0.464457
0.442183
0.421333
0.402278
0.385007
0.359975
0.354614
0.342942
0.333438
0.326076
0.320044
0.31566
0.312556
0.310236
0.308088
0.305654
0.30272
0.299221
0.294778
0.289765
0.284288
0.278348
0.271935
0.265072
0.257866
0.250631
0.262771
0.237421
0.233081
0.226891
0.219104
0.210343
0.200955
0.191038
0.180334
0.168191
0.152035
0.121947
0.184938
0.155174
0.138632
0.125977
0.114675
0.103987
0.0938315
0.0838037
0.0739492
0.0641281
0.0540643
0.0468788
0.0372114
0.0280242
0.0193042
0.0107735
0.000784635
-0.0233511
-0.013615
-0.0189311
-0.0210952
0
0
0
0.464543
0.441319
0.421167
0.402289
0.385187
0.368771
0.354633
0.342836
0.333397
0.326351
0.319622
0.31511
0.31203
0.309904
0.307883
0.305385
0.302251
0.298814
0.294636
0.289782
0.284381
0.278511
0.272215
0.26556
0.25868
0.251788
0.244864
0.237599
0.233074
0.225542
0.217386
0.208767
0.199677
0.187116
0.179592
0.168075
0.155127
0.143819
0.159198
0.137004
0.138255
0.126475
0.115244
0.104539
0.094298
0.0843466
0.0747257
0.0655898
0.0570112
0.0447733
0.0360657
0.0275126
0.0189792
0.0104677
0.00193514
-0.00578941
-0.0135131
-0.0211739
-0.0302263
-0.0302263
0
0
0.464577
0.44202
0.420957
0.402319
0.385482
0.368299
0.354415
0.342721
0.333355
0.326835
0.318964
0.314893
0.311864
0.310205
0.308319
0.305634
0.302134
0.299014
0.294877
0.29001
0.284633
0.278824
0.272613
0.26606
0.259282
0.252627
0.247118
0.24128
0.231331
0.22371
0.215894
0.207678
0.199093
0.190069
0.180345
0.170193
0.160384
0.153129
0.151315
0.144989
0.135634
0.125291
0.114766
0.104441
0.0943853
0.0845523
0.0749896
0.065682
0.0562859
0.0456759
0.0362132
0.0273163
0.0186863
0.0102235
0.00186602
-0.00635395
-0.0149048
-0.0241856
-0.0349222
-0.0349222
0
0
0.464597
0.442095
0.421422
0.401547
0.383111
0.368787
0.354904
0.34287
0.332774
0.323825
0.320692
0.316458
0.31262
0.334154
0.309767
0.30653
0.302429
0.299817
0.295301
0.290311
0.284963
0.279241
0.273083
0.266517
0.259462
0.251223
0.249772
0.241329
0.232314
0.223887
0.21562
0.20735
0.199109
0.190636
0.181631
0.172483
0.163813
0.156308
0.149612
0.142061
0.133333
0.123829
0.113753
0.103877
0.0941165
0.0844027
0.0748494
0.0653966
0.0558457
0.0459955
0.0363739
0.027181
0.0183709
0.00982848
0.00126359
-0.00734659
-0.0164103
-0.0263377
-0.0373171
-0.0373171
0
0
0.464594
0.442063
0.421197
0.401636
0.383704
0.368362
0.354594
0.342682
0.332861
0.325303
0.320689
0.317043
0.359472
0.31392
0.310812
0.307613
0.304835
0.299319
0.295002
0.290401
0.285345
0.279817
0.273697
0.267165
0.260299
0.253273
0.248285
0.240888
0.232619
0.224136
0.215602
0.20717
0.199248
0.191788
0.183225
0.174477
0.165863
0.157615
0.149422
0.14098
0.132169
0.123196
0.112379
0.103072
0.0935698
0.0839756
0.0745008
0.0650754
0.0556119
0.0459554
0.0361506
0.0268159
0.0178648
0.00920398
0.00049556
-0.00824045
-0.0175371
-0.0278406
-0.0388214
-0.0388214
0
0
0.46459
0.442044
0.421146
0.401812
0.384186
0.368478
0.354431
0.342499
0.332952
0.326964
0.321742
0.318409
0.317213
0.31149
0.309284
0.307044
0.30424
0.300134
0.295809
0.291178
0.286182
0.280779
0.274513
0.267987
0.261324
0.254617
0.248042
0.240651
0.232609
0.22413
0.215292
0.20624
0.197885
0.194447
0.185398
0.176656
0.167479
0.158531
0.149642
0.140686
0.131572
0.122192
0.112123
0.102411
0.0785547
0.0833422
0.0740687
0.0647486
0.0554337
0.0457742
0.0267473
0.026189
0.0171394
-0.0118912
-0.000334547
-0.00887169
-0.0182023
-0.0290593
-0.0399917
-0.0399917
0
0
0.464593
0.442061
0.42121
0.402039
0.384633
0.368967
0.35423
0.342069
0.330719
0.330414
0.323255
0.319217
0.316698
0.3132
0.310536
0.307925
0.304557
0.300944
0.296808
0.292228
0.287304
0.282114
0.275373
0.268869
0.262352
0.255629
0.248585
0.236532
0.232791
0.224197
0.214779
0.203776
0.18731
0.205773
0.187893
0.180071
0.169133
0.159372
0.149983
0.140688
0.131314
0.12164
0.111855
0.102249
0.0928462
0.0832474
0.0737572
0.064379
0.0552124
0.045884
0.0348467
0.0259961
0.0172373
0.0086423
-0.000362966
-0.00914089
-0.0183451
-0.0301878
-0.0408503
-0.0408503
0
0
0.464599
0.442093
0.421308
0.402293
0.385231
0.370686
0.353213
0.342494
0.333033
0.328409
0.323327
0.319605
0.316854
0.314328
0.31208
0.310155
0.304961
0.301909
0.297925
0.293356
0.288425
0.283546
0.276064
0.269996
0.263616
0.256791
0.249581
0.241678
0.233562
0.224928
0.215278
0.205293
0.195424
0.196673
0.187906
0.179355
0.169489
0.159726
0.150165
0.14074
0.131272
0.121282
0.111509
0.101947
0.0924742
0.0829222
0.0733525
0.0637606
0.042534
0.0458339
0.0339442
0.0260565
0.0171053
0.00811534
-0.000965524
-0.00981203
-0.018292
-0.0309708
-0.0408309
-0.0408309
0
0
0.464603
0.442113
0.421369
0.40242
0.385371
0.370268
0.355708
0.343868
0.334611
0.328213
0.32344
0.320017
0.317491
0.315365
0.313322
0.311015
0.307117
0.303446
0.29928
0.294534
0.289119
0.28253
0.278543
0.272209
0.265384
0.258111
0.250419
0.242862
0.234825
0.226862
0.215894
0.207685
0.199855
0.194065
0.186442
0.177984
0.168836
0.159436
0.150012
0.140671
0.131337
0.120851
0.111147
0.101676
0.0921858
0.0826227
0.0729998
0.0633048
0.0534444
0.0429555
0.0374492
0.0265601
0.0169044
0.00749377
-0.00200053
-0.0118537
-0.0220562
-0.0274391
-0.0389135
-0.0389135
0
0
0.464597
0.442099
0.421363
0.40245
0.385432
0.37037
0.357283
0.344924
0.335595
0.32892
0.324212
0.320964
0.318622
0.316668
0.314712
0.312395
0.309155
0.30532
0.30093
0.296021
0.290682
0.284587
0.27361
0.273184
0.266579
0.259226
0.251536
0.243766
0.235756
0.227501
0.218185
0.209746
0.201756
0.194001
0.185851
0.177239
0.16824
0.158996
0.149641
0.140328
0.131316
0.120284
0.111029
0.10163
0.0920736
0.0824382
0.0727608
0.0630461
0.0533125
0.0438061
0.035843
0.0262407
0.0165992
0.00707546
-0.00240969
-0.011903
-0.0211648
-0.0290141
-0.0394341
-0.0394341
0
0
0.464573
0.442021
0.421258
0.402388
0.385443
0.370573
0.358462
0.345202
0.336573
0.330198
0.325655
0.322504
0.320256
0.318346
0.316419
0.314303
0.311114
0.307125
0.302581
0.297576
0.292375
0.286682
0.280829
0.274409
0.267609
0.260079
0.252454
0.24469
0.236683
0.228394
0.219792
0.211308
0.202935
0.194507
0.18589
0.177028
0.167933
0.15864
0.149153
0.139365
0.129097
0.12155
0.111772
0.101892
0.0920865
0.0823345
0.0726153
0.062931
0.053329
0.0439518
0.0349072
0.02558
0.0161526
0.00677763
-0.00246673
-0.0114444
-0.02125
-0.0301138
-0.0403961
-0.0403961
0
0
0.464513
0.441814
0.421016
0.402236
0.385312
0.370057
0.355696
0.347527
0.33905
0.333033
0.327709
0.324532
0.322319
0.32044
0.318184
0.316358
0.312809
0.308646
0.304097
0.299096
0.294216
0.288629
0.282462
0.275589
0.229437
0.2606
0.253442
0.24582
0.237834
0.229562
0.221091
0.212534
0.203901
0.195134
0.186205
0.17711
0.16786
0.158466
0.148927
0.139246
0.129595
0.120806
0.111387
0.101686
0.0919279
0.0821779
0.072463
0.0627995
0.0532086
0.0437358
0.0343647
0.0250176
0.0156999
0.00646759
-0.00265918
-0.0117504
-0.021216
-0.0306592
-0.0410526
-0.0410526
0
0
0.464401
0.441319
0.426129
0.40216
0.385412
0.370511
0.357521
0.347992
0.340128
0.334015
0.329638
0.326684
0.324698
0.323355
0.318957
0.31747
0.313509
0.305756
0.305702
0.300894
0.296522
0.290721
0.284474
0.277894
0.271123
0.263362
0.255477
0.247471
0.239281
0.230897
0.222348
0.213662
0.20483
0.195814
0.186637
0.177334
0.167929
0.158435
0.148876
0.139298
0.12979
0.120403
0.110884
0.101271
0.0916153
0.0819258
0.0722481
0.0626009
0.0529713
0.0434059
0.0339285
0.0245441
0.0152633
0.00611015
-0.00298365
-0.0121333
-0.0214349
-0.0310197
-0.0403961
-0.0414341
0
0
0.464431
0.439942
0.419667
0.401681
0.385559
0.371324
0.359181
0.349445
0.341729
0.33592
0.331838
0.329108
0.327169
0.325228
0.320959
0.118213
0.312905
0.311546
0.30858
0.304737
0.298645
0.292832
0.286631
0.280152
0.272686
0.265014
0.257155
0.249073
0.240775
0.232278
0.223613
0.214793
0.205792
0.196534
0.187116
0.177616
0.16806
0.158455
0.148834
0.139248
0.129707
0.120034
0.110358
0.100769
0.0912167
0.0815908
0.071971
0.0623625
0.0526795
0.0430405
0.0335168
0.0241087
0.0148352
0.00574237
-0.00334865
-0.0125204
-0.0218418
-0.0373165
-0.04194
-0.04194
0
0
0.466363
0.43647
0.418932
0.401819
0.386271
0.372572
0.360981
0.351547
0.34406
0.338504
0.334678
0.332166
0.330397
0.328777
0.326873
0.326777
0.32276
0.318302
0.313592
0.308433
0.302334
0.295939
0.289294
0.282613
0.274335
0.266771
0.258908
0.250738
0.242315
0.233688
0.224897
0.215961
0.206825
0.197267
0.187586
0.177905
0.168208
0.15846
0.148687
0.138993
0.129395
0.119434
0.10962
0.100114
0.0907332
0.0811628
0.0716443
0.0621513
0.0524003
0.042701
0.0331634
0.0237356
0.0144346
0.00540847
-0.00937483
-0.012881
-0.022062
-0.0316396
-0.0462773
-0.0422533
0
0
0.464709
0.440382
0.420511
0.403068
0.387694
0.374323
0.363128
0.354348
0.347163
0.341894
0.338337
0.336047
0.334478
0.333182
0.331726
0.330243
0.327065
0.322784
0.317767
0.312125
0.305861
0.299076
0.291777
0.283757
0.277229
0.269287
0.261007
0.25254
0.243914
0.23511
0.226185
0.217165
0.207964
0.197937
0.188001
0.178199
0.168393
0.158475
0.148326
0.138374
0.128725
0.118304
0.108443
0.0991746
0.0901203
0.080581
0.0712721
0.0620835
0.0522476
0.042534
0.0330273
0.0235643
0.014161
0.00536332
-0.00382618
-0.0131178
-0.0223647
-0.0319027
-0.0422319
-0.0422319
0
0
0.4646
0.442024
0.422172
0.404746
0.384775
0.376438
0.365175
0.358348
0.35119
0.346219
0.342935
0.340822
0.339279
0.311678
0.336266
0.334311
0.33112
0.326831
0.321665
0.315801
0.309351
0.302245
0.294642
0.28674
0.279165
0.271143
0.262771
0.254116
0.245468
0.236481
0.227408
0.218329
0.209217
0.198396
0.188366
0.178587
0.168724
0.15878
0.147509
0.137089
0.127012
0.116178
0.106623
0.0977507
0.0892316
0.0797517
0.0708526
0.0623132
0.0524844
0.0429057
0.0334498
0.0238766
0.0141095
0.00529911
-0.00426582
-0.0135894
-0.0228313
-0.0323522
-0.0426471
-0.0426471
0
0
0.464763
0.442901
0.423522
0.406597
0.392067
0.379697
0.36948
0.362174
0.356073
0.351579
0.34859
0.34663
0.345283
0.344223
0.342351
0.339645
0.33594
0.331262
0.325758
0.319604
0.312945
0.305399
0.297469
0.289409
0.281314
0.273016
0.264486
0.255729
0.246835
0.237704
0.228436
0.219168
0.210297
0.198522
0.189017
0.179275
0.169186
0.15872
0.147378
0.135268
0.00220359
0.1129
0.104364
0.0953715
0.087344
0.0788795
0.0704226
0.0626468
0.0539112
0.0446784
0.0349574
0.0250736
0.0152907
0.00432116
-0.00507007
-0.0142743
-0.0234656
-0.0329374
-0.043181