# vtk DataFile Version 2.0
FlowField
ASCII
DATASET STRUCTURED_GRID
DIMENSIONS 62 47 32 
POINTS 93248 double
0 0 0
0.01 0 0
0.02 0 0
0.03 0 0
0.04 0 0
0.05 0 0
0.06 0 0
0.07 0 0
0.08 0 0
0.09 0 0
0.1 0 0
0.11 0 0
0.12 0 0
0.13 0 0
0.14 0 0
0.15 0 0
0.16 0 0
0.17 0 0
0.18 0 0
0.19 0 0
0.2 0 0
0.21 0 0
0.22 0 0
0.23 0 0
0.24 0 0
0.25 0 0
0.26 0 0
0.27 0 0
0.28 0 0
0.29 0 0
0.3 0 0
0.31 0 0
0.32 0 0
0.33 0 0
0.34 0 0
0.35 0 0
0.36 0 0
0.37 0 0
0.38 0 0
0.39 0 0
0.4 0 0
0.41 0 0
0.42 0 0
0.43 0 0
0.44 0 0
0.45 0 0
0.46 0 0
0.47 0 0
0.48 0 0
0.49 0 0
0.5 0 0
0.51 0 0
0.52 0 0
0.53 0 0
0.54 0 0
0.55 0 0
0.56 0 0
0.57 0 0
0.58 0 0
0.59 0 0
0.6 0 0
0.61 0 0
0 0.01 0
0.01 0.01 0
0.02 0.01 0
0.03 0.01 0
0.04 0.01 0
0.05 0.01 0
0.06 0.01 0
0.07 0.01 0
0.08 0.01 0
0.09 0.01 0
0.1 0.01 0
0.11 0.01 0
0.12 0.01 0
0.13 0.01 0
0.14 0.01 0
0.15 0.01 0
0.16 0.01 0
0.17 0.01 0
0.18 0.01 0
0.19 0.01 0
0.2 0.01 0
0.21 0.01 0
0.22 0.01 0
0.23 0.01 0
0.24 0.01 0
0.25 0.01 0
0.26 0.01 0
0.27 0.01 0
0.28 0.01 0
0.29 0.01 0
0.3 0.01 0
0.31 0.01 0
0.32 0.01 0
0.33 0.01 0
0.34 0.01 0
0.35 0.01 0
0.36 0.01 0
0.37 0.01 0
0.38 0.01 0
0.39 0.01 0
0.4 0.01 0
0.41 0.01 0
0.42 0.01 0
0.43 0.01 0
0.44 0.01 0
0.45 0.01 0
0.46 0.01 0
0.47 0.01 0
0.48 0.01 0
0.49 0.01 0
0.5 0.01 0
0.51 0.01 0
0.52 0.01 0
0.53 0.01 0
0.54 0.01 0
0.55 0.01 0
0.56 0.01 0
0.57 0.01 0
0.58 0.01 0
0.59 0.01 0
0.6 0.01 0
0.61 0.01 0
0 0.02 0
0.01 0.02 0
0.02 0.02 0
0.03 0.02 0
0.04 0.02 0
0.05 0.02 0
0.06 0.02 0
0.07 0.02 0
0.08 0.02 0
0.09 0.02 0
0.1 0.02 0
0.11 0.02 0
0.12 0.02 0
0.13 0.02 0
0.14 0.02 0
0.15 0.02 0
0.16 0.02 0
0.17 0.02 0
0.18 0.02 0
0.19 0.02 0
0.2 0.02 0
0.21 0.02 0
0.22 0.02 0
0.23 0.02 0
0.24 0.02 0
0.25 0.02 0
0.26 0.02 0
0.27 0.02 0
0.28 0.02 0
0.29 0.02 0
0.3 0.02 0
0.31 0.02 0
0.32 0.02 0
0.33 0.02 0
0.34 0.02 0
0.35 0.02 0
0.36 0.02 0
0.37 0.02 0
0.38 0.02 0
0.39 0.02 0
0.4 0.02 0
0.41 0.02 0
0.42 0.02 0
0.43 0.02 0
0.44 0.02 0
0.45 0.02 0
0.46 0.02 0
0.47 0.02 0
0.48 0.02 0
0.49 0.02 0
0.5 0.02 0
0.51 0.02 0
0.52 0.02 0
0.53 0.02 0
0.54 0.02 0
0.55 0.02 0
0.56 0.02 0
0.57 0.02 0
0.58 0.02 0
0.59 0.02 0
0.6 0.02 0
0.61 0.02 0
0 0.03 0
0.01 0.03 0
0.02 0.03 0
0.03 0.03 0
0.04 0.03 0
0.05 0.03 0
0.06 0.03 0
0.07 0.03 0
0.08 0.03 0
0.09 0.03 0
0.1 0.03 0
0.11 0.03 0
0.12 0.03 0
0.13 0.03 0
0.14 0.03 0
0.15 0.03 0
0.16 0.03 0
0.17 0.03 0
0.18 0.03 0
0.19 0.03 0
0.2 0.03 0
0.21 0.03 0
0.22 0.03 0
0.23 0.03 0
0.24 0.03 0
0.25 0.03 0
0.26 0.03 0
0.27 0.03 0
0.28 0.03 0
0.29 0.03 0
0.3 0.03 0
0.31 0.03 0
0.32 0.03 0
0.33 0.03 0
0.34 0.03 0
0.35 0.03 0
0.36 0.03 0
0.37 0.03 0
0.38 0.03 0
0.39 0.03 0
0.4 0.03 0
0.41 0.03 0
0.42 0.03 0
0.43 0.03 0
0.44 0.03 0
0.45 0.03 0
0.46 0.03 0
0.47 0.03 0
0.48 0.03 0
0.49 0.03 0
0.5 0.03 0
0.51 0.03 0
0.52 0.03 0
0.53 0.03 0
0.54 0.03 0
0.55 0.03 0
0.56 0.03 0
0.57 0.03 0
0.58 0.03 0
0.59 0.03 0
0.6 0.03 0
0.61 0.03 0
0 0.04 0
0.01 0.04 0
0.02 0.04 0
0.03 0.04 0
0.04 0.04 0
0.05 0.04 0
0.06 0.04 0
0.07 0.04 0
0.08 0.04 0
0.09 0.04 0
0.1 0.04 0
0.11 0.04 0
0.12 0.04 0
0.13 0.04 0
0.14 0.04 0
0.15 0.04 0
0.16 0.04 0
0.17 0.04 0
0.18 0.04 0
0.19 0.04 0
0.2 0.04 0
0.21 0.04 0
0.22 0.04 0
0.23 0.04 0
0.24 0.04 0
0.25 0.04 0
0.26 0.04 0
0.27 0.04 0
0.28 0.04 0
0.29 0.04 0
0.3 0.04 0
0.31 0.04 0
0.32 0.04 0
0.33 0.04 0
0.34 0.04 0
0.35 0.04 0
0.36 0.04 0
0.37 0.04 0
0.38 0.04 0
0.39 0.04 0
0.4 0.04 0
0.41 0.04 0
0.42 0.04 0
0.43 0.04 0
0.44 0.04 0
0.45 0.04 0
0.46 0.04 0
0.47 0.04 0
0.48 0.04 0
0.49 0.04 0
0.5 0.04 0
0.51 0.04 0
0.52 0.04 0
0.53 0.04 0
0.54 0.04 0
0.55 0.04 0
0.56 0.04 0
0.57 0.04 0
0.58 0.04 0
0.59 0.04 0
0.6 0.04 0
0.61 0.04 0
0 0.05 0
0.01 0.05 0
0.02 0.05 0
0.03 0.05 0
0.04 0.05 0
0.05 0.05 0
0.06 0.05 0
0.07 0.05 0
0.08 0.05 0
0.09 0.05 0
0.1 0.05 0
0.11 0.05 0
0.12 0.05 0
0.13 0.05 0
0.14 0.05 0
0.15 0.05 0
0.16 0.05 0
0.17 0.05 0
0.18 0.05 0
0.19 0.05 0
0.2 0.05 0
0.21 0.05 0
0.22 0.05 0
0.23 0.05 0
0.24 0.05 0
0.25 0.05 0
0.26 0.05 0
0.27 0.05 0
0.28 0.05 0
0.29 0.05 0
0.3 0.05 0
0.31 0.05 0
0.32 0.05 0
0.33 0.05 0
0.34 0.05 0
0.35 0.05 0
0.36 0.05 0
0.37 0.05 0
0.38 0.05 0
0.39 0.05 0
0.4 0.05 0
0.41 0.05 0
0.42 0.05 0
0.43 0.05 0
0.44 0.05 0
0.45 0.05 0
0.46 0.05 0
0.47 0.05 0
0.48 0.05 0
0.49 0.05 0
0.5 0.05 0
0.51 0.05 0
0.52 0.05 0
0.53 0.05 0
0.54 0.05 0
0.55 0.05 0
0.56 0.05 0
0.57 0.05 0
0.58 0.05 0
0.59 0.05 0
0.6 0.05 0
0.61 0.05 0
0 0.06 0
0.01 0.06 0
0.02 0.06 0
0.03 0.06 0
0.04 0.06 0
0.05 0.06 0
0.06 0.06 0
0.07 0.06 0
0.08 0.06 0
0.09 0.06 0
0.1 0.06 0
0.11 0.06 0
0.12 0.06 0
0.13 0.06 0
0.14 0.06 0
0.15 0.06 0
0.16 0.06 0
0.17 0.06 0
0.18 0.06 0
0.19 0.06 0
0.2 0.06 0
0.21 0.06 0
0.22 0.06 0
0.23 0.06 0
0.24 0.06 0
0.25 0.06 0
0.26 0.06 0
0.27 0.06 0
0.28 0.06 0
0.29 0.06 0
0.3 0.06 0
0.31 0.06 0
0.32 0.06 0
0.33 0.06 0
0.34 0.06 0
0.35 0.06 0
0.36 0.06 0
0.37 0.06 0
0.38 0.06 0
0.39 0.06 0
0.4 0.06 0
0.41 0.06 0
0.42 0.06 0
0.43 0.06 0
0.44 0.06 0
0.45 0.06 0
0.46 0.06 0
0.47 0.06 0
0.48 0.06 0
0.49 0.06 0
0.5 0.06 0
0.51 0.06 0
0.52 0.06 0
0.53 0.06 0
0.54 0.06 0
0.55 0.06 0
0.56 0.06 0
0.57 0.06 0
0.58 0.06 0
0.59 0.06 0
0.6 0.06 0
0.61 0.06 0
0 0.07 0
0.01 0.07 0
0.02 0.07 0
0.03 0.07 0
0.04 0.07 0
0.05 0.07 0
0.06 0.07 0
0.07 0.07 0
0.08 0.07 0
0.09 0.07 0
0.1 0.07 0
0.11 0.07 0
0.12 0.07 0
0.13 0.07 0
0.14 0.07 0
0.15 0.07 0
0.16 0.07 0
0.17 0.07 0
0.18 0.07 0
0.19 0.07 0
0.2 0.07 0
0.21 0.07 0
0.22 0.07 0
0.23 0.07 0
0.24 0.07 0
0.25 0.07 0
0.26 0.07 0
0.27 0.07 0
0.28 0.07 0
0.29 0.07 0
0.3 0.07 0
0.31 0.07 0
0.32 0.07 0
0.33 0.07 0
0.34 0.07 0
0.35 0.07 0
0.36 0.07 0
0.37 0.07 0
0.38 0.07 0
0.39 0.07 0
0.4 0.07 0
0.41 0.07 0
0.42 0.07 0
0.43 0.07 0
0.44 0.07 0
0.45 0.07 0
0.46 0.07 0
0.47 0.07 0
0.48 0.07 0
0.49 0.07 0
0.5 0.07 0
0.51 0.07 0
0.52 0.07 0
0.53 0.07 0
0.54 0.07 0
0.55 0.07 0
0.56 0.07 0
0.57 0.07 0
0.58 0.07 0
0.59 0.07 0
0.6 0.07 0
0.61 0.07 0
0 0.08 0
0.01 0.08 0
0.02 0.08 0
0.03 0.08 0
0.04 0.08 0
0.05 0.08 0
0.06 0.08 0
0.07 0.08 0
0.08 0.08 0
0.09 0.08 0
0.1 0.08 0
0.11 0.08 0
0.12 0.08 0
0.13 0.08 0
0.14 0.08 0
0.15 0.08 0
0.16 0.08 0
0.17 0.08 0
0.18 0.08 0
0.19 0.08 0
0.2 0.08 0
0.21 0.08 0
0.22 0.08 0
0.23 0.08 0
0.24 0.08 0
0.25 0.08 0
0.26 0.08 0
0.27 0.08 0
0.28 0.08 0
0.29 0.08 0
0.3 0.08 0
0.31 0.08 0
0.32 0.08 0
0.33 0.08 0
0.34 0.08 0
0.35 0.08 0
0.36 0.08 0
0.37 0.08 0
0.38 0.08 0
0.39 0.08 0
0.4 0.08 0
0.41 0.08 0
0.42 0.08 0
0.43 0.08 0
0.44 0.08 0
0.45 0.08 0
0.46 0.08 0
0.47 0.08 0
0.48 0.08 0
0.49 0.08 0
0.5 0.08 0
0.51 0.08 0
0.52 0.08 0
0.53 0.08 0
0.54 0.08 0
0.55 0.08 0
0.56 0.08 0
0.57 0.08 0
0.58 0.08 0
0.59 0.08 0
0.6 0.08 0
0.61 0.08 0
0 0.09 0
0.01 0.09 0
0.02 0.09 0
0.03 0.09 0
0.04 0.09 0
0.05 0.09 0
0.06 0.09 0
0.07 0.09 0
0.08 0.09 0
0.09 0.09 0
0.1 0.09 0
0.11 0.09 0
0.12 0.09 0
0.13 0.09 0
0.14 0.09 0
0.15 0.09 0
0.16 0.09 0
0.17 0.09 0
0.18 0.09 0
0.19 0.09 0
0.2 0.09 0
0.21 0.09 0
0.22 0.09 0
0.23 0.09 0
0.24 0.09 0
0.25 0.09 0
0.26 0.09 0
0.27 0.09 0
0.28 0.09 0
0.29 0.09 0
0.3 0.09 0
0.31 0.09 0
0.32 0.09 0
0.33 0.09 0
0.34 0.09 0
0.35 0.09 0
0.36 0.09 0
0.37 0.09 0
0.38 0.09 0
0.39 0.09 0
0.4 0.09 0
0.41 0.09 0
0.42 0.09 0
0.43 0.09 0
0.44 0.09 0
0.45 0.09 0
0.46 0.09 0
0.47 0.09 0
0.48 0.09 0
0.49 0.09 0
0.5 0.09 0
0.51 0.09 0
0.52 0.09 0
0.53 0.09 0
0.54 0.09 0
0.55 0.09 0
0.56 0.09 0
0.57 0.09 0
0.58 0.09 0
0.59 0.09 0
0.6 0.09 0
0.61 0.09 0
0 0.1 0
0.01 0.1 0
0.02 0.1 0
0.03 0.1 0
0.04 0.1 0
0.05 0.1 0
0.06 0.1 0
0.07 0.1 0
0.08 0.1 0
0.09 0.1 0
0.1 0.1 0
0.11 0.1 0
0.12 0.1 0
0.13 0.1 0
0.14 0.1 0
0.15 0.1 0
0.16 0.1 0
0.17 0.1 0
0.18 0.1 0
0.19 0.1 0
0.2 0.1 0
0.21 0.1 0
0.22 0.1 0
0.23 0.1 0
0.24 0.1 0
0.25 0.1 0
0.26 0.1 0
0.27 0.1 0
0.28 0.1 0
0.29 0.1 0
0.3 0.1 0
0.31 0.1 0
0.32 0.1 0
0.33 0.1 0
0.34 0.1 0
0.35 0.1 0
0.36 0.1 0
0.37 0.1 0
0.38 0.1 0
0.39 0.1 0
0.4 0.1 0
0.41 0.1 0
0.42 0.1 0
0.43 0.1 0
0.44 0.1 0
0.45 0.1 0
0.46 0.1 0
0.47 0.1 0
0.48 0.1 0
0.49 0.1 0
0.5 0.1 0
0.51 0.1 0
0.52 0.1 0
0.53 0.1 0
0.54 0.1 0
0.55 0.1 0
0.56 0.1 0
0.57 0.1 0
0.58 0.1 0
0.59 0.1 0
0.6 0.1 0
0.61 0.1 0
0 0.11 0
0.01 0.11 0
0.02 0.11 0
0.03 0.11 0
0.04 0.11 0
0.05 0.11 0
0.06 0.11 0
0.07 0.11 0
0.08 0.11 0
0.09 0.11 0
0.1 0.11 0
0.11 0.11 0
0.12 0.11 0
0.13 0.11 0
0.14 0.11 0
0.15 0.11 0
0.16 0.11 0
0.17 0.11 0
0.18 0.11 0
0.19 0.11 0
0.2 0.11 0
0.21 0.11 0
0.22 0.11 0
0.23 0.11 0
0.24 0.11 0
0.25 0.11 0
0.26 0.11 0
0.27 0.11 0
0.28 0.11 0
0.29 0.11 0
0.3 0.11 0
0.31 0.11 0
0.32 0.11 0
0.33 0.11 0
0.34 0.11 0
0.35 0.11 0
0.36 0.11 0
0.37 0.11 0
0.38 0.11 0
0.39 0.11 0
0.4 0.11 0
0.41 0.11 0
0.42 0.11 0
0.43 0.11 0
0.44 0.11 0
0.45 0.11 0
0.46 0.11 0
0.47 0.11 0
0.48 0.11 0
0.49 0.11 0
0.5 0.11 0
0.51 0.11 0
0.52 0.11 0
0.53 0.11 0
0.54 0.11 0
0.55 0.11 0
0.56 0.11 0
0.57 0.11 0
0.58 0.11 0
0.59 0.11 0
0.6 0.11 0
0.61 0.11 0
0 0.12 0
0.01 0.12 0
0.02 0.12 0
0.03 0.12 0
0.04 0.12 0
0.05 0.12 0
0.06 0.12 0
0.07 0.12 0
0.08 0.12 0
0.09 0.12 0
0.1 0.12 0
0.11 0.12 0
0.12 0.12 0
0.13 0.12 0
0.14 0.12 0
0.15 0.12 0
0.16 0.12 0
0.17 0.12 0
0.18 0.12 0
0.19 0.12 0
0.2 0.12 0
0.21 0.12 0
0.22 0.12 0
0.23 0.12 0
0.24 0.12 0
0.25 0.12 0
0.26 0.12 0
0.27 0.12 0
0.28 0.12 0
0.29 0.12 0
0.3 0.12 0
0.31 0.12 0
0.32 0.12 0
0.33 0.12 0
0.34 0.12 0
0.35 0.12 0
0.36 0.12 0
0.37 0.12 0
0.38 0.12 0
0.39 0.12 0
0.4 0.12 0
0.41 0.12 0
0.42 0.12 0
0.43 0.12 0
0.44 0.12 0
0.45 0.12 0
0.46 0.12 0
0.47 0.12 0
0.48 0.12 0
0.49 0.12 0
0.5 0.12 0
0.51 0.12 0
0.52 0.12 0
0.53 0.12 0
0.54 0.12 0
0.55 0.12 0
0.56 0.12 0
0.57 0.12 0
0.58 0.12 0
0.59 0.12 0
0.6 0.12 0
0.61 0.12 0
0 0.13 0
0.01 0.13 0
0.02 0.13 0
0.03 0.13 0
0.04 0.13 0
0.05 0.13 0
0.06 0.13 0
0.07 0.13 0
0.08 0.13 0
0.09 0.13 0
0.1 0.13 0
0.11 0.13 0
0.12 0.13 0
0.13 0.13 0
0.14 0.13 0
0.15 0.13 0
0.16 0.13 0
0.17 0.13 0
0.18 0.13 0
0.19 0.13 0
0.2 0.13 0
0.21 0.13 0
0.22 0.13 0
0.23 0.13 0
0.24 0.13 0
0.25 0.13 0
0.26 0.13 0
0.27 0.13 0
0.28 0.13 0
0.29 0.13 0
0.3 0.13 0
0.31 0.13 0
0.32 0.13 0
0.33 0.13 0
0.34 0.13 0
0.35 0.13 0
0.36 0.13 0
0.37 0.13 0
0.38 0.13 0
0.39 0.13 0
0.4 0.13 0
0.41 0.13 0
0.42 0.13 0
0.43 0.13 0
0.44 0.13 0
0.45 0.13 0
0.46 0.13 0
0.47 0.13 0
0.48 0.13 0
[...]
POINT_DATA 93248

SCALARS v double
LOOKUP_TABLE default
0
0
0
0
0
0
0
0
0
0
0
0
0
0
0
0
0
0
0
0
0
0
0
0
0
0
0
0
0
0
0
0
0
0
0
0
0
0
-0.0374536
0
0
0
0
0
-0.0395547
0
0
0
0
0
0
0
0
0
0
0
0
0
0
0
0
0
0
0.0469446
-0.0517146
0.0513369
0.0378423
0.0210487
0
-0.00825991
-0.0150789
-0.0178209
-0.0187853
-0.0190427
-0.0197254
-0.0195776
-0.0195469
-0.0194625
-0.0195613
-0.0194131
-0.0192463
-0.0184313
-0.0214341
-0.0204077
-0.0197872
-0.0197249
-0.0197686
-0.0198176
-0.0198492
-0.0198652
-0.0198695
-0.0198622
-0.0198428
-0.0198434
-0.0201116
-0.0198171
-0.0195061
-0.019564
-0.0264124
-0.0199385
-0.0217531
-0.0149235
-0.0203859
-0.025493
-0.021278
-0.0209861
-0.0212059
-0.0235642
-0.0450576
-0.0204305
-0.0241828
-0.0197063
-0.0196202
-0.0197739
-0.0205681
-0.0211872
-0.0270816
-0.0205999
-0.0332148
-0.0199589
-0.018723
-0.0167997
-0.0133448
0
0
0.028082
0.054486
0.0623992
0.0565798
0.0399592
0.0213313
0.00354006
-0.00865586
-0.0150989
-0.0182143
-0.0194299
-0.0437521
-0.0216932
-0.0219523
-0.0170905
-0.0224421
-0.0221006
-0.0227762
-0.0241557
-0.0487277
-0.0226484
-0.0227471
-0.0229385
-0.0231132
-0.0232395
-0.0233195
-0.0233675
-0.0233899
-0.0233858
-0.023341
-0.0232705
-0.0353244
-0.0234435
-0.0226125
-0.0227714
-0.0217926
-0.0194269
-0.0156289
-0.0259536
-0.028232
-0.0278137
-0.0263903
-0.0256862
-0.0251731
-0.0250829
-0.0256571
-0.0244807
-0.0241828
-0.0232358
-0.0231856
-0.0230624
-0.0238583
-0.0243147
-0.0247845
-0.0237157
-0.0232321
-0.037454
-0.0212943
-0.0192026
-0.0162261
0
0
0.0149151
0.0377655
0.0494782
0.0520744
0.0448655
0.0285409
0.0119294
-0.000825092
-0.00884729
-0.0134363
-0.0164978
-0.0189423
-0.0200801
-0.0209176
-0.0215742
-0.0223069
0
-0.022458
-0.0233535
-0.0234045
-0.0230864
-0.0231205
-0.0232796
-0.0234552
-0.0236
-0.0237101
-0.0237873
-0.0238352
-0.0238559
-0.0238547
-0.0238709
-0.0241031
-0.0237246
-0.0238132
-0.0226201
-0.0218156
-0.0204917
-0.0196581
-0.0248295
-0.0274476
-0.0278109
-0.0272384
-0.026242
-0.0260015
-0.0260912
-0.0244236
-0.0241521
-0.0238776
-0.0244355
-0.0241873
-0.0240531
-0.0242129
-0.0243091
-0.024241
-0.0237587
-0.0233192
-0.0229902
-0.0215897
-0.0199471
-0.0178671
0
0
0.00867268
0.0245122
0.0366973
0.0410789
0.038257
0.0280908
0.0152161
0.00399703
-0.00402249
-0.00934618
-0.0131003
-0.015866
-0.0177462
-0.019139
-0.0205085
-0.0209569
-0.0208747
-0.0215887
-0.0222227
-0.0225469
-0.0227041
-0.0228705
-0.0230598
-0.0232451
-0.0234097
-0.023546
-0.023651
-0.0237244
-0.0237685
-0.023791
-0.0238155
-0.0238942
-0.0239609
-0.0237191
-0.0230079
-0.0224185
-0.0219425
-0.0221711
-0.0243048
-0.0259341
-0.0265104
-0.0264142
-0.0260261
-0.0258096
-0.0254804
-0.023848
-0.0240968
-0.024163
-0.0243549
-0.0242636
-0.0241502
-0.0240745
-0.0239411
-0.0237115
-0.0233481
-0.0229268
-0.0224076
-0.0214788
-0.0202825
-0.0191717
0
0
0.00549238
0.0159953
0.0248772
0.0303096
0.0303554
0.0243766
0.0148451
0.0056007
-0.00155577
-0.00678527
-0.0106847
-0.0136432
-0.0158561
-0.017486
-0.0183987
-0.0198089
-0.0203445
-0.0209799
-0.0214844
-0.0219601
-0.0223316
-0.0226315
-0.0228892
-0.0231161
-0.0233137
-0.0234821
-0.0236163
-0.0237139
-0.0237747
-0.0238019
-0.0238069
-0.0238587
-0.0244893
-0.0239581
-0.0234439
-0.023122
-0.0230409
-0.0233943
-0.0243484
-0.0252218
-0.0256867
-0.0257942
-0.025722
-0.0256587
-0.0254709
0
-0.0243523
-0.0245126
-0.0244914
-0.0243988
-0.0242806
-0.0240976
-0.0237924
-0.0234675
-0.0231311
-0.0227569
-0.0223031
-0.0216503
-0.0205542
-0.0203514
-0.0443532
0
0.00364819
0.0106468
0.0170806
0.0219513
0.0231461
0.0196833
0.012329
0
-0.000988593
-0.00569654
-0.00939771
-0.0123455
-0.0146833
-0.0165182
-0.0180373
-0.0196637
-0.0198204
-0.0201627
-0.0209477
-0.0216166
-0.022147
-0.0225504
-0.0228742
-0.0231481
-0.0233836
-0.0235899
-0.0237557
-0.0238772
-0.0239513
-0.023974
-0.0239335
-0.0238323
-0.0472826
-0.0243469
-0.0238791
-0.0237737
-0.0238435
-0.0241326
-0.0246206
-0.0250967
-0.0254124
-0.0255436
-0.0255534
-0.025458
-0.0251507
-0.0241716
-0.0245243
-0.0246856
-0.0247088
-0.0246851
-0.0246213
-0.0243902
-0.0238417
-0.0234173
-0.0231217
-0.022845
-0.0226211
-0.0228211
-0.0232106
-0.0205546
0
0
0.00246165
0.00710234
0.0116998
0.015614
0.0168769
0.0140702
0.00932642
0.00353648
-0.00150104
-0.00566726
-0.00905887
-0.0118245
-0.0141499
-0.0160072
-0.0177318
-0.0202148
-0.0194618
-0.0198984
-0.0207959
-0.0215818
-0.0221988
-0.0226496
-0.023011
-0.0233241
-0.0235966
-0.0238452
-0.0240445
-0.0241932
-0.0242835
-0.0243205
-0.0243743
-0.0244974
-0.0251345
-0.0247869
-0.0245443
-0.0244767
-0.0245465
-0.0247381
-0.0250139
-0.0252888
-0.025493
-0.0255999
-0.0255954
-0.0255102
-0.0253005
-0.0249533
-0.0249571
-0.0250071
-0.02505
-0.0251233
-0.025211
-0.0250265
-0.0239525
-0.0234243
-0.0232369
-0.0230454
-0.0227924
-0.035736
-0.0196931
-0.0201615
0
0
0.00164587
0.00460264
0.00777467
0.0107014
0.0117017
0.00961342
0.00562869
0.0011018
-0.00299522
-0.00648866
-0.009429
-0.0118587
-0.0158561
-0.0157236
-0.0168259
-0.0166919
-0.0195206
-0.0208719
-0.0214905
-0.0219791
-0.0225406
-0.0229185
-0.0232768
-0.0236214
-0.0238452
-0.0242162
-0.0244567
-0.0246433
-0.0247498
-0.0247609
-0.0248653
-0.0250144
-0.0252462
-0.0252193
-0.0251537
-0.0251503
-0.0251998
-0.0253212
-0.0254893
-0.025657
-0.0257844
-0.02585
-0.0258439
-0.0257749
-0.0256447
-0.0254867
-0.0254202
-0.0254067
-0.0254472
-0.0256084
-0.0259509
-0.026154
-0.0239237
-0.0234774
-0.0235553
-0.0235725
-0.0234754
-0.0233666
-0.0220185
-0.020625
0
0
0.00105732
0.0027391
0.00475642
0.00673563
0.00730184
0.00546128
0.00204682
-0.00164362
-0.0049521
-0.00783892
-0.0103916
-0.0126604
-0.0144879
-0.0159787
-0.0170905
-0.0178721
-0.0196132
-0.0208652
-0.0216561
-0.0222346
-0.0268334
-0.0232642
-0.0236222
-0.0240088
-0.0244042
-0.024703
-0.0249967
-0.0252457
-0.0253918
-0.0253167
-0.0253571
-0.0254779
-0.0256515
-0.0257291
-0.025759
-0.0258077
-0.0258415
-0.0259202
-0.0260333
-0.0261412
-0.0262179
-0.0262502
-0.0262329
-0.0261719
-0.0260769
-0.025969
-0.0258807
-0.0258137
-0.025781
-0.0258471
-0.0261544
-0.0265986
-0.023662
-0.0240503
-0.0243277
-0.0243473
-0.0242239
-0.0239458
-0.0230836
-0.0212915
0
0
0.000615299
0.00128569
0.00234695
0.00338071
0.00347909
0.00165954
-0.00135533
-0.00443144
-0.00712
-0.00948874
-0.0116341
-0.0135656
-0.0152303
-0.0166273
-0.0176584
-0.0187275
-0.0200033
-0.0211041
-0.0219648
-0.0226887
-0.0232258
-0.0236661
-0.0240821
-0.024478
-0.0248293
-0.0252539
-0.025647
-0.0260181
-0.0263441
-0.0265251
-0.025379
-0.0257866
-0.0261287
-0.0262971
-0.0263678
-0.0264124
-0.026536
-0.0265725
-0.0266526
-0.0267202
-0.0267582
-0.0267612
-0.0267246
-0.0266582
-0.0265703
-0.026469
-0.0263585
-0.0262258
-0.0260311
-0.0256712
-0.0249118
-0.0237831
-0.027213
-0.0265875
-0.0258544
-0.0253818
-0.0250572
-0.0246841
-0.0238861
-0.0219748
0
0
0.000269009
0.000106735
0.000400612
-0.00437998
0.000124443
-0.00177555
-0.00454342
-0.00716995
-0.00937871
-0.0113233
-0.013116
-0.0147745
-0.0162778
-0.0175972
-0.0181968
-0.0194116
-0.0205957
-0.0216167
-0.0224414
-0.0230606
-0.0237569
-0.0242337
-0.0246451
-0.0250442
-0.0254496
-0.0259
-0.0263908
-0.0269113
-0.0274167
-0.0276827
0
-0.0265219
-0.0268809
-0.0269847
-0.0270341
-0.0270801
-0.0271527
-0.0272881
-0.0273544
-0.0273853
-0.0273865
-0.0273639
-0.0272943
-0.0272106
-0.0271167
-0.0270114
-0.0268875
-0.0267241
-0.0264823
-0.0261204
-0.0255991
-0.025356
-0.0269851
-0.0270816
-0.0266297
-0.0261844
-0.0258286
-0.0254286
-0.0246232
-0.0226378
0
0
-2.05545e-05
-0.000920281
-0.00142773
-0.00184512
-0.00279854
-0.00492533
-0.00754504
-0.00983579
-0.0116631
-0.0132704
-0.0147568
-0.0161767
-0.0175412
-0.0189353
0
-0.0202262
-0.0214119
-0.0223414
-0.0231462
-0.0237649
-0.0243311
-0.0247991
-0.0252191
-0.0256293
-0.0260638
-0.026568
-0.0271886
-0.0279252
-0.0286563
-0.0283565
-0.0272184
-0.0273297
-0.0274884
-0.02759
-0.0276695
-0.0277599
-0.0278728
-0.0280131
-0.0281001
-0.0281171
-0.0280857
-0.028066
-0.0279208
-0.0278112
-0.0277079
-0.0276012
-0.0274792
-0.0273183
-0.0270879
-0.0268764
-0.0266518
-0.0266455
-0.0271864
-0.0273163
-0.0271188
-0.0268273
-0.0265217
-0.0261391
-0.0253238
-0.0232737
0
0
-0.000265306
-0.00180939
-0.00298501
-0.00390359
-0.00543259
-0.00780543
-0.0103582
-0.0124012
-0.0139226
-0.0161614
-0.0164822
-0.017667
-0.0188023
-0.0198266
-0.0202703
-0.021291
-0.0222598
-0.0231292
-0.0239955
-0.0245617
-0.0250159
-0.0254293
-0.0258257
-0.0262239
-0.0266552
-0.0271916
-0.0279765
-0.0291559
-0.0311896
-0.0296433
-0.0285266
-0.0281809
-0.0281394
-0.0281973
-0.0283028
-0.0284493
-0.0286222
-0.0288313
-0.0289581
-0.0289429
-0.0288264
-0.028621
-0.0285469
-0.0284379
-0.0283315
-0.0282309
-0.0281267
-0.0279873
-0.0277129
-0.0276859
-0.0276075
-0.0275936
-0.0277045
-0.027756
-0.0276544
-0.0274574
-0.0271609
-0.0268252
-0.0259958
-0.0238797
0
0
-0.000476325
-0.00259179
-0.00437998
-0.00598113
-0.00790363
-0.0104955
-0.0130161
-0.0148719
-0.0161614
-0.0172408
-0.0182496
-0.019241
-0.0201889
-0.021046
-0.0217282
-0.0224983
-0.0232564
-0.0239784
-0.0251361
-0.02547
-0.0257732
-0.026109
-0.0264648
-0.0268196
-0.0271879
-0.0276435
-0.0284443
-0.0237747
-0.0385088
-0.0308152
-0.0290596
-0.0286777
-0.0286563
-0.028757
-0.02892
-0.0291516
-0.0294716
-0.0297936
-0.0300177
-0.0299207
-0.0296817
-0.0294278
-0.0292396
-0.0290923
-0.028976
-0.0288852
-0.0288124
-0.0287252
-0.0243549
-0.0285164
-0.0284837
-0.0284136
-0.0282917
-0.0283695
-0.0282997
-0.0281716
-0.0279885
-0.0275363
-0.0266481
-0.0244511
0
0
-0.000666796
-0.00327442
-0.00562019
-0.00774284
-0.0101694
-0.0130142
-0.015532
-0.0172425
-0.0183397
-0.0192113
-0.0200437
-0.0208747
-0.0216803
-0.0224256
-0.0230899
-0.0237274
-0.0243057
-0.0247397
-0.0456382
-0.0263883
-0.0265257
-0.0268334
-0.0271452
-0.0274339
-0.0276651
-0.0277827
-0.027544
-0.0257223
-0.0162303
-0.0255298
-0.0278693
-0.0286129
-0.0289744
-0.0292436
-0.0294953
-0.0298223
-0.0303041
-0.0309509
-0.031504
-0.0311144
-0.0306011
-0.030198
-0.0299253
-0.0297449
-0.0296192
-0.0295372
-0.0294709
-0.0293949
-0.0292444
-0.0293374
-0.0293059
-0.0292766
-0.0293774
-0.0291631
-0.0290141
-0.0289257
-0.0286558
-0.0282206
-0.0272737
-0.0249743
0
0
-0.000874772
-0.00384422
-0.00675376
-0.00942491
-0.0123107
-0.0154053
-0.0179156
-0.0195111
-0.020459
-0.0211721
-0.0218529
-0.0225522
-0.0232455
-0.0238936
-0.0244713
-0.0250068
-0.0255213
-0.0260539
-0.02699
-0.0272264
-0.0274375
-0.0276804
-0.0279264
-0.0281332
-0.0282576
-0.0282198
-0.0278415
-0.0267704
-0.0248754
-0.0268863
-0.0282182
-0.0289562
-0.0294267
-0.029778
-0.0300367
-0.0304092
-0.0310957
-0.0323995
-0.0342609
-0.03258
-0.031463
-0.0308655
-0.0305456
-0.0303658
-0.0302415
-0.0301882
-0.030141
-0.0300983
-0.0301005
-0.030267
-0.0301349
-0.0300475
-0.0300232
-0.0299171
-0.0296233
-0.0297845
-0.0294054
-0.0289707
-0.0279229
-0.0254136
0
0
-0.00117534
0.0027391
-0.0078602
-0.0110874
-0.0143657
-0.0176518
-0.0201304
-0.0216779
-0.0225319
-0.0231282
-0.0236673
-0.0242611
-0.0248739
-0.0254406
-0.0258959
-0.0263092
-0.0267355
-0.0272034
-0.0277383
-0.0280803
-0.0283394
-0.0285688
-0.0287695
-0.028924
-0.0290017
-0.028956
-0.0287208
-0.0283407
-0.0281364
-0.0286226
-0.0291721
-0.0296457
-0.0300514
-0.0303991
-0.0305031
-0.0307799
-0.0314694
-0.0336643
-0.0419644
-0.0337819
-0.0318106
-0.031238
-0.0310266
-0.0309324
-0.0302415
-0.0308412
-0.0308156
-0.0307851
-0.0308583
-0.0314329
-0.0309545
-0.0307943
-0.0307876
-0.0308488
-0.0311852
-0.0309232
-0.0303035
-0.0299952
-0.028861
-0.0256662
0
0
-0.00118525
-0.00509092
-0.0089834
-0.0127059
-0.0163388
-0.0195918
-0.0223096
-0.0238445
-0.0246179
-0.0251038
-0.0254439
-0.0259732
-0.0265664
-0.0270941
-0.0273565
-0.0276071
-0.0279285
-0.0283288
-0.0287233
-0.02904
-0.0292915
-0.0294984
-0.0296666
-0.0297909
-0.0298593
-0.0298562
-0.0297745
-0.0296196
-0.0301728
-0.0300804
-0.0301931
-0.0304371
-0.0307352
-0.0310687
-0.0308728
-0.0308727
-0.0305148
-0.028533
-0.0181766
-0.0281652
-0.0304737
-0.0311319
-0.0313514
-0.0314379
-0.0314644
-0.0314998
-0.0314966
-0.0314412
-0.0314491
-0.049087
-0.0316467
-0.0314964
-0.0315419
-0.0315722
-0.0315549
-0.0313698
-0.0318311
-0.0316774
-0.0312725
-0.0296268
0
0
-0.00129224
-0.00575884
-0.0100602
-0.0144781
-0.0184445
-0.0213881
-0.0242211
-0.0258323
-0.0266045
-0.0270534
-0.0269951
-0.0276224
-0.0283198
-0.0289082
-0.0287835
-0.0288564
-0.0291136
-0.0295225
-0.0298425
-0.0300952
-0.0303037
-0.0304738
-0.0306099
-0.0307122
-0.0307819
-0.0308263
-0.0308375
-0.0305864
-0.050811
-0.0312459
-0.0310897
-0.0312189
-0.0313365
-0.0313129
-0.0316787
-0.0314926
-0.0308951
-0.0295649
-0.0273416
-0.0293571
-0.0307924
-0.0314732
-0.0318153
-0.0319991
-0.0321073
-0.0321979
-0.0322495
-0.0322758
-0.0323816
-0.0328716
-0.0324884
-0.0323842
-0.0323951
-0.0323994
-0.0323613
-0.032374
-0.032657
-0.0326738
-0.0321905
-0.0298703
0
0
-0.00143059
-0.00634607
-0.0109589
-0.0273414
-0.0207216
0
-0.0261711
-0.0278868
-0.0285801
-0.0291047
-0.00939771
-0.0292514
-0.0301332
-0.0308068
-0.0299824
-0.0301112
-0.0303878
-0.0309727
-0.0311219
-0.0312491
-0.0313745
-0.0314921
-0.0315885
-0.0316648
-0.0317289
-0.0318272
-0.0322986
-0.0319238
-0.0323717
-0.0321725
-0.032088
-0.032129
-0.0322036
-0.0322421
-0.0323478
-0.0322003
-0.031786
-0.0311511
-0.0306144
-0.0310752
-0.0316956
-0.0321518
-0.0324448
-0.0326403
-0.0327775
-0.0329355
-0.0330333
-0.0330871
-0.0331507
-0.0332597
-0.0331874
-0.0332314
-0.0332808
-0.0332892
-0.0332148
-0.0332629
-0.0334221
-0.0334196
-0.0328274
-0.0303103
0
0
-0.00158736
-0.00697369
-0.0121769
-0.0174113
-0.0220676
-0.0255147
-0.0283917
-0.0298451
-0.030349
-0.0305138
-0.0303898
-0.0308367
-0.0314857
-0.0309063
-0.0319712
-0.0320938
-0.0320511
-0.0433349
-0.032541
-0.0324643
-0.0324995
-0.032548
-0.0325924
-0.032628
-0.0326377
-0.03257
-0.0320164
-0.0325754
-0.0329031
-0.0329568
-0.0329784
-0.0330448
-0.0331557
-0.0332713
-0.0332377
-0.0330894
-0.0328052
-0.0324905
-0.0323166
-0.0324507
-0.0327257
-0.032992
-0.033168
-0.0333525
-0.0334723
-0.0337215
-0.0338392
-0.0338874
-0.0339026
-0.0338757
-0.0338467
-0.0340632
-0.0341687
-0.0342081
-0.0339995
-0.0340553
-0.0341683
-0.0341138
-0.0334551
-0.0308415
0
0
-0.00174159
-0.00757185
-0.0132279
-0.018625
-0.0236516
-0.0278013
-0.030605
-0.0318747
-0.0320831
-0.0318635
-0.0321887
-0.032238
-0.0316406
-0.0521267
-0.0337894
-0.033708
-0.0337046
-0.0339278
-0.0338089
-0.033711
-0.0336637
-0.0336418
-0.0336118
-0.033612
-0.0336043
-0.0335489
-0.0334269
-0.033542
-0.0337014
-0.0337784
-0.0338339
-0.033934
-0.0341456
-0.034521
-0.0342692
-0.0341088
-0.0338197
-0.0336118
-0.0335267
-0.0335811
-0.0337245
-0.033902
-0.0341092
-0.0341784
-0.0342223
-0.0345534
-0.0346298
-0.0346803
-0.0346957
-0.0345851
-0.0344829
-0.0348625
-0.0349554
-0.0350955
-0.0347146
-0.0348561
-0.0349327
-0.0347957
-0.0341099
-0.0314305
0
0
-0.00189168
-0.0081516
-0.0142346
-0.0199839
-0.0253782
-0.0298793
-0.0327206
-0.033962
-0.0338352
-0.0324324
-0.0340603
-0.0342216
-0.0341226
-0.034926
-0.0350834
-0.035087
-0.0350484
-0.0350542
-0.0349764
-0.0348875
-0.0348162
-0.0347438
-0.0345989
-0.0345938
-0.0346027
-0.0345706
-0.0345124
-0.0344785
-0.0345844
-0.0346174
-0.0346474
-0.0347406
-0.0350871
-0.0366728
-0.0352615
-0.0352982
-0.0347415
-0.0345623
-0.0345256
-0.0345663
-0.0346587
-0.0347829
-0.0349439
-0.0351173
-0.0353217
-0.0351582
-0.0352774
-0.0354395
-0.0355656
-0.0354264
-0.0354132
-0.0352931
-0.0353651
-0.0353504
-0.035927
-0.0358846
-0.0357626
-0.035411
-0.0347878
-0.0320694
0
0
-0.00204147
-0.00872975
-0.0152463
-0.0214061
-0.0271717
-0.031931
-0.0346567
-0.0363522
-0.0371494
-0.0390949
-0.0369703
-0.0364485
-0.0362943
-0.0364532
-0.0364852
-0.0364281
-0.0362971
-0.0362417
-0.0361484
-0.0360536
-0.0359728
-0.0358816
-0.0354575
-0.0355647
-0.0356244
-0.0355982
-0.0355393
-0.035473
-0.0354021
-0.0354016
-0.0353798
-0.0353244
-0.035008
-0.0330519
-0.0347271
-0.0345924
-0.0351697
-0.0353347
-0.0354021
-0.0354661
-0.0355365
-0.0356123
-0.0357563
-0.0359187
-0.0360516
-0.0360216
-0.0360915
-0.0362463
-0.0364623
-0.0361203
-0.0357754
-0.0362706
-0.0362673
-0.0363175
-0.0366151
-0.0366872
-0.0365407
-0.035736
-0.0355062
-0.0327596
0
0
-0.00219334
-0.00931368
-0.0162729
-0.0228646
-0.0290253
-0.034148
-0.0377315
-0.0387105
-0.0391123
-0.039407
-0.0387971
-0.0384124
-0.0382045
-0.0380921
-0.0379676
-0.0378194
-0.0377015
-0.0374989
-0.0373428
-0.0372192
-0.0371383
-0.0371204
-0.0240088
-0.0365903
-0.0367127
-0.0366153
-0.0365053
-0.0344785
-0.0362825
-0.03625
-0.0361316
-0.0360924
-0.0358743
-0.0354377
-0.0357034
-0.035808
-0.0360256
-0.0361667
-0.0362616
-0.0363369
-0.0363835
-0.0363616
-0.0365324
-0.0366999
-0.0368096
-0.0368452
-0.0368801
-0.0369021
-0.0368914
-0.0373534
-0.0205681
-0.042259
-0.0372564
-0.037249
-0.0373911
-0.0375137
-0.037454
-0.0167997
-0.0363873
-0.0334797
0
0
-0.00234747
-0.00990393
-0.0173112
-0.0243355
-0.0308623
-0.0362022
-0.039519
-0.0405965
-0.0408482
-0.0407828
-0.0404996
-0.0402123
-0.0399507
-0.039712
-0.0394746
-0.0392313
-0.0389724
-0.0387162
-0.0385139
-0.0383525
-0.0382132
-0.0380333
-0.0376268
-0.0377229
-0.0377625
-0.0375454
-0.0373445
-0.0371836
-0.0371445
-0.0371304
-0.0371706
-0.0370096
-0.0368646
-0.0367303
-0.0367622
-0.0368282
-0.036934
-0.0370357
-0.0371286
-0.0372152
-0.0372478
-0.0369476
-0.0373001
-0.0375132
-0.0376202
-0.0376739
-0.0377108
-0.0377357
-0.0377721
-0.0379287
-0.0376157
-0.0380833
-0.0380882
-0.0381026
-0.0381593
-0.0381914
-0.0380556
-0.037363
-0.0369938
-0.0341038
0
0
-0.00250273
-0.0104981
-0.0183588
-0.0258237
-0.0327142
-0.0382739
-0.0416267
-0.042245
-0.0425659
-0.0424406
-0.0422724
-0.0419796
-0.0416485
-0.0413143
-0.040992
-0.0406725
-0.0402614
-0.0398908
-0.03965
-0.0394673
-0.039318
-0.0391637
-0.0389386
-0.0388542
-0.0389129
-0.038393
-0.0381357
-0.0380325
-0.0380028
-0.037989
-0.037966
-0.0378881
-0.0378023
-0.0377381
-0.0377317
-0.0377646
-0.0378266
-0.0379031
-0.0379924
-0.0381064
-0.0382052
-0.0262502
-0.0381393
-0.0383792
-0.0384609
-0.0385174
-0.0385661
-0.03861
-0.0386587
-0.038724
-0.0387045
-0.0388389
-0.0388879
-0.0389165
-0.0389447
-0.0389436
-0.0388215
-0.0385407
-0.0377786
-0.0347622
0
0
-0.00265699
-0.0110894
-0.0194103
-0.0273414
-0.0346082
-0.0404176
-0.0440486
-0.0178209
-0.0444279
-0.0443029
-0.044158
-0.0437521
-0.043298
-0.042877
-0.0424961
-0.0421927
-0.0415042
-0.0409529
-0.0407314
-0.0405498
-0.0404366
-0.0402107
-0.0399735
-0.0398627
-0.0401012
-0.0390509
-0.0389749
-0.0389628
-0.0389363
-0.0388906
-0.0388333
-0.0387624
-0.0386947
-0.038647
-0.0386322
-0.0386488
-0.0386909
-0.0387507
-0.0388218
-0.0388921
-0.038907
-0.0386561
-0.0389495
-0.0391484
-0.03927
-0.0393587
-0.0394315
-0.0394923
-0.0395445
-0.0395895
-0.0396171
-0.0396689
-0.0397058
-0.0397335
-0.0397573
-0.0397744
-0.0397849
-0.0394915
-0.0385947
-0.0354597
0
0
-0.00280838
-0.0116608
-0.0204569
-0.028909
-0.0365345
-0.0425027
-0.0459116
-0.0465429
-0.0466969
-0.0465445
-0.0458452
-0.0453054
-0.044806
-0.0443461
-0.0439091
-0.0439691
-0.0425921
-0.0418409
-0.0417727
-0.0415664
-0.0416266
-0.0412443
-0.0408535
-0.0404137
-0.0396917
-0.0405399
-0.0404188
-0.0402049
-0.0400075
-0.0398504
-0.0397267
-0.0396289
-0.0395538
-0.0395043
-0.0394847
-0.0394943
-0.039529
-0.0395828
-0.0396472
-0.0397063
-0.0397297
-0.039698
-0.0398134
-0.0399605
-0.0400983
-0.0402184
-0.0403167
-0.0403916
-0.0404444
-0.0404784
-0.0404993
-0.0405206
-0.0405407
-0.0405605
-0.0405784
-0.0405896
-0.0405708
-0.040339
-0.0393981
-0.0361774
0
0
-0.00296105
-0.0121667
-0.0216259
-0.0304736
-0.0385141
-0.0446871
-0.0481141
-0.0490618
-0.0489266
-0.0484399
-0.0477251
-0.047035
-0.0463991
-0.0458696
-0.0457441
-0.0461893
-0.0433349
-0.0431389
-0.0427173
-0.0424163
-0.0519072
-0.0422492
-0.0417531
-0.0413504
-0.0409061
-0.0411281
-0.0411608
-0.0410448
-0.0408768
-0.0407116
-0.0405724
-0.0404618
-0.0403776
-0.0403207
-0.0402978
-0.0403071
-0.0403437
-0.0404037
-0.0404802
-0.0405566
-0.0405963
-0.0405783
-0.040639
-0.0407785
-0.0409491
-0.0411099
-0.0412381
-0.0413266
-0.0413762
-0.041393
-0.0413905
-0.041385
-0.041387
-0.0413983
-0.0414069
-0.0414038
-0.0413836
-0.0411728
-0.0401987
-0.0369064
0
0
-0.00313958
-0.0121984
-0.0228198
-0.0322431
-0.0406567