# vtk DataFile Version 2.0
FlowField
ASCII
DATASET STRUCTURED_GRID
DIMENSIONS 62 47 32 
POINTS 93248 double
0 0 0
0.01 0 0
0.02 0 0
0.03 0 0
0.04 0 0
0.05 0 0
0.06 0 0
0.07 0 0
0.08 0 0
0.09 0 0
0.1 0 0
0.11 0 0
0.12 0 0
0.13 0 0
0.14 0 0
0.15 0 0
0.16 0 0
0.17 0 0
0.18 0 0
0.19 0 0
0.2 0 0
0.21 0 0
0.22 0 0
0.23 0 0
0.24 0 0
0.25 0 0
0.26 0 0
0.27 0 0
0.28 0 0
0.29 0 0
0.3 0 0
0.31 0 0
0.32 0 0
0.33 0 0
0.34 0 0
0.35 0 0
0.36 0 0
0.37 0 0
0.38 0 0
0.39 0 0
0.4 0 0
0.41 0 0
0.42 0 0
0.43 0 0
0.44 0 0
0.45 0 0
0.46 0 0
0.47 0 0
0.48 0 0
0.49 0 0
0.5 0 0
0.51 0 0
0.52 0 0
0.53 0 0
0.54 0 0
0.55 0 0
0.56 0 0
0.57 0 0
0.58 0 0
0.59 0 0
0.6 0 0
0.61 0 0
0 0.01 0
0.01 0.01 0
0.02 0.01 0
0.03 0.01 0
0.04 0.01 0
0.05 0.01 0
0.06 0.01 0
0.07 0.01 0
0.08 0.01 0
0.09 0.01 0
0.1 0.01 0
0.11 0.01 0
0.12 0.01 0
0.13 0.01 0
0.14 0.01 0
0.15 0.01 0
0.16 0.01 0
0.17 0.01 0
0.18 0.01 0
0.19 0.01 0
0.2 0.01 0
0.21 0.01 0
0.22 0.01 0
0.23 0.01 0
0.24 0.01 0
0.25 0.01 0
0.26 0.01 0
0.27 0.01 0
0.28 0.01 0
0.29 0.01 0
0.3 0.01 0
0.31 0.01 0
0.32 0.01 0
0.33 0.01 0
0.34 0.01 0
0.35 0.01 0
0.36 0.01 0
0.37 0.01 0
0.38 0.01 0
0.39 0.01 0
0.4 0.01 0
0.41 0.01 0
0.42 0.01 0
0.43 0.01 0
0.44 0.01 0
0.45 0.01 0
0.46 0.01 0
0.47 0.01 0
0.48 0.01 0
0.49 0.01 0
0.5 0.01 0
0.51 0.01 0
0.52 0.01 0
0.53 0.01 0
0.54 0.01 0
0.55 0.01 0
0.56 0.01 0
0.57 0.01 0
0.58 0.01 0
0.59 0.01 0
0.6 0.01 0
0.61 0.01 0
0 0.02 0
0.01 0.02 0
0.02 0.02 0
0.03 0.02 0
0.04 0.02 0
0.05 0.02 0
0.06 0.02 0
0.07 0.02 0
0.08 0.02 0
0.09 0.02 0
0.1 0.02 0
0.11 0.02 0
0.12 0.02 0
0.13 0.02 0
0.14 0.02 0
0.15 0.02 0
0.16 0.02 0
0.17 0.02 0
0.18 0.02 0
0.19 0.02 0
0.2 0.02 0
0.21 0.02 0
0.22 0.02 0
0.23 0.02 0
0.24 0.02 0
0.25 0.02 0
0.26 0.02 0
0.27 0.02 0
0.28 0.02 0
0.29 0.02 0
0.3 0.02 0
0.31 0.02 0
0.32 0.02 0
0.33 0.02 0
0.34 0.02 0
0.35 0.02 0
0.36 0.02 0
0.37 0.02 0
0.38 0.02 0
0.39 0.02 0
0.4 0.02 0
0.41 0.02 0
0.42 0.02 0
0.43 0.02 0
0.44 0.02 0
0.45 0.02 0
0.46 0.02 0
0.47 0.02 0
0.48 0.02 0
0.49 0.02 0
0.5 0.02 0
0.51 0.02 0
0.52 0.02 0
0.53 0.02 0
0.54 0.02 0
0.55 0.02 0
0.56 0.02 0
0.57 0.02 0
0.58 0.02 0
0.59 0.02 0
0.6 0.02 0
0.61 0.02 0
0 0.03 0
0.01 0.03 0
0.02 0.03 0
0.03 0.03 0
0.04 0.03 0
0.05 0.03 0
0.06 0.03 0
0.07 0.03 0
0.08 0.03 0
0.09 0.03 0
0.1 0.03 0
0.11 0.03 0
0.12 0.03 0
0.13 0.03 0
0.14 0.03 0
0.15 0.03 0
0.16 0.03 0
0.17 0.03 0
0.18 0.03 0
0.19 0.03 0
0.2 0.03 0
0.21 0.03 0
0.22 0.03 0
0.23 0.03 0
0.24 0.03 0
0.25 0.03 0
0.26 0.03 0
0.27 0.03 0
0.28 0.03 0
0.29 0.03 0
0.3 0.03 0
0.31 0.03 0
0.32 0.03 0
0.33 0.03 0
0.34 0.03 0
0.35 0.03 0
0.36 0.03 0
0.37 0.03 0
0.38 0.03 0
0.39 0.03 0
0.4 0.03 0
0.41 0.03 0
0.42 0.03 0
0.43 0.03 0
0.44 0.03 0
0.45 0.03 0
0.46 0.03 0
0.47 0.03 0
0.48 0.03 0
0.49 0.03 0
0.5 0.03 0
0.51 0.03 0
0.52 0.03 0
0.53 0.03 0
0.54 0.03 0
0.55 0.03 0
0.56 0.03 0
0.57 0.03 0
0.58 0.03 0
0.59 0.03 0
0.6 0.03 0
0.61 0.03 0
0 0.04 0
0.01 0.04 0
0.02 0.04 0
0.03 0.04 0
0.04 0.04 0
0.05 0.04 0
0.06 0.04 0
0.07 0.04 0
0.08 0.04 0
0.09 0.04 0
0.1 0.04 0
0.11 0.04 0
0.12 0.04 0
0.13 0.04 0
0.14 0.04 0
0.15 0.04 0
0.16 0.04 0
0.17 0.04 0
0.18 0.04 0
0.19 0.04 0
0.2 0.04 0
0.21 0.04 0
0.22 0.04 0
0.23 0.04 0
0.24 0.04 0
0.25 0.04 0
0.26 0.04 0
0.27 0.04 0
0.28 0.04 0
0.29 0.04 0
0.3 0.04 0
0.31 0.04 0
0.32 0.04 0
0.33 0.04 0
0.34 0.04 0
0.35 0.04 0
0.36 0.04 0
0.37 0.04 0
0.38 0.04 0
0.39 0.04 0
0.4 0.04 0
0.41 0.04 0
0.42 0.04 0
0.43 0.04 0
0.44 0.04 0
0.45 0.04 0
0.46 0.04 0
0.47 0.04 0
0.48 0.04 0
0.49 0.04 0
0.5 0.04 0
0.51 0.04 0
0.52 0.04 0
0.53 0.04 0
0.54 0.04 0
0.55 0.04 0
0.56 0.04 0
0.57 0.04 0
0.58 0.04 0
0.59 0.04 0
0.6 0.04 0
0.61 0.04 0
0 0.05 0
0.01 0.05 0
0.02 0.05 0
0.03 0.05 0
0.04 0.05 0
0.05 0.05 0
0.06 0.05 0
0.07 0.05 0
0.08 0.05 0
0.09 0.05 0
0.1 0.05 0
0.11 0.05 0
0.12 0.05 0
0.13 0.05 0
0.14 0.05 0
0.15 0.05 0
0.16 0.05 0
0.17 0.05 0
0.18 0.05 0
0.19 0.05 0
0.2 0.05 0
0.21 0.05 0
0.22 0.05 0
0.23 0.05 0
0.24 0.05 0
0.25 0.05 0
0.26 0.05 0
0.27 0.05 0
0.28 0.05 0
0.29 0.05 0
0.3 0.05 0
0.31 0.05 0
0.32 0.05 0
0.33 0.05 0
0.34 0.05 0
0.35 0.05 0
0.36 0.05 0
0.37 0.05 0
0.38 0.05 0
0.39 0.05 0
0.4 0.05 0
0.41 0.05 0
0.42 0.05 0
0.43 0.05 0
0.44 0.05 0
0.45 0.05 0
0.46 0.05 0
0.47 0.05 0
0.48 0.05 0
0.49 0.05 0
0.5 0.05 0
0.51 0.05 0
0.52 0.05 0
0.53 0.05 0
0.54 0.05 0
0.55 0.05 0
0.56 0.05 0
0.57 0.05 0
0.58 0.05 0
0.59 0.05 0
0.6 0.05 0
0.61 0.05 0
0 0.06 0
0.01 0.06 0
0.02 0.06 0
0.03 0.06 0
0.04 0.06 0
0.05 0.06 0
0.06 0.06 0
0.07 0.06 0
0.08 0.06 0
0.09 0.06 0
0.1 0.06 0
0.11 0.06 0
0.12 0.06 0
0.13 0.06 0
0.14 0.06 0
0.15 0.06 0
0.16 0.06 0
0.17 0.06 0
0.18 0.06 0
0.19 0.06 0
0.2 0.06 0
0.21 0.06 0
0.22 0.06 0
0.23 0.06 0
0.24 0.06 0
0.25 0.06 0
0.26 0.06 0
0.27 0.06 0
0.28 0.06 0
0.29 0.06 0
0.3 0.06 0
0.31 0.06 0
0.32 0.06 0
0.33 0.06 0
0.34 0.06 0
0.35 0.06 0
0.36 0.06 0
0.37 0.06 0
0.38 0.06 0
0.39 0.06 0
0.4 0.06 0
0.41 0.06 0
0.42 0.06 0
0.43 0.06 0
0.44 0.06 0
0.45 0.06 0
0.46 0.06 0
0.47 0.06 0
0.48 0.06 0
0.49 0.06 0
0.5 0.06 0
0.51 0.06 0
0.52 0.06 0
0.53 0.06 0
0.54 0.06 0
0.55 0.06 0
0.56 0.06 0
0.57 0.06 0
0.58 0.06 0
0.59 0.06 0
0.6 0.06 0
0.61 0.06 0
0 0.07 0
0.01 0.07 0
0.02 0.07 0
0.03 0.07 0
0.04 0.07 0
0.05 0.07 0
0.06 0.07 0
0.07 0.07 0
0.08 0.07 0
0.09 0.07 0
0.1 0.07 0
0.11 0.07 0
0.12 0.07 0
0.13 0.07 0
0.14 0.07 0
0.15 0.07 0
0.16 0.07 0
0.17 0.07 0
0.18 0.07 0
0.19 0.07 0
0.2 0.07 0
0.21 0.07 0
0.22 0.07 0
0.23 0.07 0
0.24 0.07 0
0.25 0.07 0
0.26 0.07 0
0.27 0.07 0
0.28 0.07 0
0.29 0.07 0
0.3 0.07 0
0.31 0.07 0
0.32 0.07 0
0.33 0.07 0
0.34 0.07 0
0.35 0.07 0
0.36 0.07 0
0.37 0.07 0
0.38 0.07 0
0.39 0.07 0
0.4 0.07 0
0.41 0.07 0
0.42 0.07 0
0.43 0.07 0
0.44 0.07 0
0.45 0.07 0
0.46 0.07 0
0.47 0.07 0
0.48 0.07 0
0.49 0.07 0
0.5 0.07 0
0.51 0.07 0
0.52 0.07 0
0.53 0.07 0
0.54 0.07 0
0.55 0.07 0
0.56 0.07 0
0.57 0.07 0
0.58 0.07 0
0.59 0.07 0
0.6 0.07 0
0.61 0.07 0
0 0.08 0
0.01 0.08 0
0.02 0.08 0
0.03 0.08 0
0.04 0.08 0
0.05 0.08 0
0.06 0.08 0
0.07 0.08 0
0.08 0.08 0
0.09 0.08 0
0.1 0.08 0
0.11 0.08 0
0.12 0.08 0
0.13 0.08 0
0.14 0.08 0
0.15 0.08 0
0.16 0.08 0
0.17 0.08 0
0.18 0.08 0
0.19 0.08 0
0.2 0.08 0
0.21 0.08 0
0.22 0.08 0
0.23 0.08 0
0.24 0.08 0
0.25 0.08 0
0.26 0.08 0
0.27 0.08 0
0.28 0.08 0
0.29 0.08 0
0.3 0.08 0
0.31 0.08 0
0.32 0.08 0
0.33 0.08 0
0.34 0.08 0
0.35 0.08 0
0.36 0.08 0
0.37 0.08 0
0.38 0.08 0
0.39 0.08 0
0.4 0.08 0
0.41 0.08 0
0.42 0.08 0
0.43 0.08 0
0.44 0.08 0
0.45 0.08 0
0.46 0.08 0
0.47 0.08 0
0.48 0.08 0
0.49 0.08 0
0.5 0.08 0
0.51 0.08 0
0.52 0.08 0
0.53 0.08 0
0.54 0.08 0
0.55 0.08 0
0.56 0.08 0
0.57 0.08 0
0.58 0.08 0
0.59 0.08 0
0.6 0.08 0
0.61 0.08 0
0 0.09 0
0.01 0.09 0
0.02 0.09 0
0.03 0.09 0
0.04 0.09 0
0.05 0.09 0
0.06 0.09 0
0.07 0.09 0
0.08 0.09 0
0.09 0.09 0
0.1 0.09 0
0.11 0.09 0
0.12 0.09 0
0.13 0.09 0
0.14 0.09 0
0.15 0.09 0
0.16 0.09 0
0.17 0.09 0
0.18 0.09 0
0.19 0.09 0
0.2 0.09 0
0.21 0.09 0
0.22 0.09 0
0.23 0.09 0
0.24 0.09 0
0.25 0.09 0
0.26 0.09 0
0.27 0.09 0
0.28 0.09 0
0.29 0.09 0
0.3 0.09 0
0.31 0.09 0
0.32 0.09 0
0.33 0.09 0
0.34 0.09 0
0.35 0.09 0
0.36 0.09 0
0.37 0.09 0
0.38 0.09 0
0.39 0.09 0
0.4 0.09 0
0.41 0.09 0
0.42 0.09 0
0.43 0.09 0
0.44 0.09 0
0.45 0.09 0
0.46 0.09 0
0.47 0.09 0
0.48 0.09 0
0.49 0.09 0
0.5 0.09 0
0.51 0.09 0
0.52 0.09 0
0.53 0.09 0
0.54 0.09 0
0.55 0.09 0
0.56 0.09 0
0.57 0.09 0
0.58 0.09 0
0.59 0.09 0
0.6 0.09 0
0.61 0.09 0
0 0.1 0
0.01 0.1 0
0.02 0.1 0
0.03 0.1 0
0.04 0.1 0
0.05 0.1 0
0.06 0.1 0
0.07 0.1 0
0.08 0.1 0
0.09 0.1 0
0.1 0.1 0
0.11 0.1 0
0.12 0.1 0
0.13 0.1 0
0.14 0.1 0
0.15 0.1 0
0.16 0.1 0
0.17 0.1 0
0.18 0.1 0
0.19 0.1 0
0.2 0.1 0
0.21 0.1 0
0.22 0.1 0
0.23 0.1 0
0.24 0.1 0
0.25 0.1 0
0.26 0.1 0
0.27 0.1 0
0.28 0.1 0
0.29 0.1 0
0.3 0.1 0
0.31 0.1 0
0.32 0.1 0
0.33 0.1 0
0.34 0.1 0
0.35 0.1 0
0.36 0.1 0
0.37 0.1 0
0.38 0.1 0
0.39 0.1 0
0.4 0.1 0
0.41 0.1 0
0.42 0.1 0
0.43 0.1 0
0.44 0.1 0
0.45 0.1 0
0.46 0.1 0
0.47 0.1 0
0.48 0.1 0
0.49 0.1 0
0.5 0.1 0
0.51 0.1 0
0.52 0.1 0
0.53 0.1 0
0.54 0.1 0
0.55 0.1 0
0.56 0.1 0
0.57 0.1 0
0.58 0.1 0
0.59 0.1 0
0.6 0.1 0
0.61 0.1 0
0 0.11 0
0.01 0.11 0
0.02 0.11 0
0.03 0.11 0
0.04 0.11 0
0.05 0.11 0
0.06 0.11 0
0.07 0.11 0
0.08 0.11 0
0.09 0.11 0
0.1 0.11 0
0.11 0.11 0
0.12 0.11 0
0.13 0.11 0
0.14 0.11 0
0.15 0.11 0
0.16 0.11 0
0.17 0.11 0
0.18 0.11 0
0.19 0.11 0
0.2 0.11 0
0.21 0.11 0
0.22 0.11 0
0.23 0.11 0
0.24 0.11 0
0.25 0.11 0
0.26 0.11 0
0.27 0.11 0
0.28 0.11 0
0.29 0.11 0
0.3 0.11 0
0.31 0.11 0
0.32 0.11 0
0.33 0.11 0
0.34 0.11 0
0.35 0.11 0
0.36 0.11 0
0.37 0.11 0
0.38 0.11 0
0.39 0.11 0
0.4 0.11 0
0.41 0.11 0
0.42 0.11 0
0.43 0.11 0
0.44 0.11 0
0.45 0.11 0
0.46 0.11 0
0.47 0.11 0
0.48 0.11 0
0.49 0.11 0
0.5 0.11 0
0.51 0.11 0
0.52 0.11 0
0.53 0.11 0
0.54 0.11 0
0.55 0.11 0
0.56 0.11 0
0.57 0.11 0
0.58 0.11 0
0.59 0.11 0
0.6 0.11 0
0.61 0.11 0
0 0.12 0
0.01 0.12 0
0.02 0.12 0
0.03 0.12 0
0.04 0.12 0
0.05 0.12 0
0.06 0.12 0
0.07 0.12 0
0.08 0.12 0
0.09 0.12 0
0.1 0.12 0
0.11 0.12 0
0.12 0.12 0
0.13 0.12 0
0.14 0.12 0
0.15 0.12 0
0.16 0.12 0
0.17 0.12 0
0.18 0.12 0
0.19 0.12 0
0.2 0.12 0
0.21 0.12 0
0.22 0.12 0
0.23 0.12 0
0.24 0.12 0
0.25 0.12 0
0.26 0.12 0
0.27 0.12 0
0.28 0.12 0
0.29 0.12 0
0.3 0.12 0
0.31 0.12 0
0.32 0.12 0
0.33 0.12 0
0.34 0.12 0
0.35 0.12 0
0.36 0.12 0
0.37 0.12 0
0.38 0.12 0
0.39 0.12 0
0.4 0.12 0
0.41 0.12 0
0.42 0.12 0
0.43 0.12 0
0.44 0.12 0
0.45 0.12 0
0.46 0.12 0
0.47 0.12 0
0.48 0.12 0
0.49 0.12 0
0.5 0.12 0
0.51 0.12 0
0.52 0.12 0
0.53 0.12 0
0.54 0.12 0
0.55 0.12 0
0.56 0.12 0
0.57 0.12 0
0.58 0.12 0
0.59 0.12 0
0.6 0.12 0
0.61 0.12 0
0 0.13 0
0.01 0.13 0
0.02 0.13 0
0.03 0.13 0
0.04 0.13 0
0.05 0.13 0
0.06 0.13 0
0.07 0.13 0
0.08 0.13 0
0.09 0.13 0
0.1 0.13 0
0.11 0.13 0
0.12 0.13 0
0.13 0.13 0
0.14 0.13 0
0.15 0.13 0
0.16 0.13 0
0.17 0.13 0
0.18 0.13 0
0.19 0.13 0
0.2 0.13 0
0.21 0.13 0
0.22 0.13 0
0.23 0.13 0
0.24 0.13 0
0.25 0.13 0
0.26 0.13 0
0.27 0.13 0
0.28 0.13 0
0.29 0.13 0
0.3 0.13 0
0.31 0.13 0
0.32 0.13 0
0.33 0.13 0
0.34 0.13 0
0.35 0.13 0
0.36 0.13 0
0.37 0.13 0
0.38 0.13 0
0.39 0.13 0
0.4 0.13 0
0.41 0.13 0
0.42 0.13 0
0.43 0.13 0
0.44 0.13 0
0.45 0.13 0
0.46 0.13 0
0.47 0.13 0
0.48 0.13 0
[...]
POINT_DATA 93248

SCALARS w double
LOOKUP_TABLE default
0
0
0
0
0
0
0
0
0
0
0
0
0
-0.013274
0
0
0
0
0
0
0
0
0
0
0
0
-0.0155357
0
0
0
0
0
-0.0150528
0
0
0
0
0
0
0
0
0
0
0
0
0
-0.0148129
0
0
0
0
0
0
0
0
0
0
0
0
0
0
0
0
-0.00937951
-0.00872595
-0.0084524
-0.0131289
-0.01637
-0.0179276
-0.0185464
-0.0188644
-0.0190649
-0.0192067
-0.0193055
-0.0193533
-0.0194157
-0.0194625
-0.0194957
-0.0195205
-0.0195456
-0.0195433
-0.0195282
-0.0194809
-0.0194954
-0.0194953
-0.0195075
-0.0195121
-0.0195118
-0.0195087
-0.0195041
-0.0194981
-0.0194906
-0.0194799
-0.0194626
-0.0194327
-0.0194139
-0.0193582
-0.0191847
-0.0188421
-0.0181154
-0.0171031
-0.0224632
-0.0202523
-0.0199598
-0.0197435
-0.0196281
-0.0195967
-0.0223085
-0.0193758
-0.0194189
-0.0194378
-0.0194388
-0.0194396
-0.019532
-0.0193471
-0.0195008
-0.0222859
-0.019594
-0.019701
-0.0191042
-0.0193026
-0.019233
-0.018549
0
0
-0.00943284
-0.00923399
-0.00873296
-0.014426
-0.0189177
-0.0207169
-0.0217784
-0.0223683
-0.0227086
-0.0229061
-0.0230633
-0.0230705
-0.0231995
-0.0232656
-0.0233159
-0.023355
-0.0234196
-0.0234076
-0.0233974
-0.0232073
-0.0233148
-0.0226503
-0.0233301
-0.0233478
-0.02335
-0.0233473
-0.0233426
-0.0233366
-0.0233291
-0.0233186
-0.0232982
-0.0232314
-0.0232602
-0.0232396
-0.0229732
-0.0224997
-0.0207937
-0.0156543
-0.0295978
-0.0266729
-0.0244175
-0.0236902
-0.023494
-0.0234672
-0.0235254
-0.0233294
-0.023246
-0.0232571
-0.0232687
-0.0232566
-0.0223179
-0.0232753
-0.0233211
-0.0233684
-0.0233659
-0.0234089
-0.023136
-0.0232038
-0.023036
-0.0219292
0
0
-0.00886254
-0.00814857
-0.00820399
-0.0142037
-0.01637
-0.0205226
-0.0215575
-0.0221322
-0.022455
-0.022599
-0.0229094
-0.0230391
-0.0230124
-0.023033
-0.0230543
-0.0231102
-0.0232925
-0.0232027
-0.023167
-0.0232275
-0.0231383
-0.023106
-0.0231046
-0.023105
-0.0231032
-0.0230995
-0.0230946
-0.0230888
-0.0230823
-0.0230761
-0.0230763
-0.0231202
-0.0225881
-0.0231646
-0.0227019
-0.0224935
-0.0219283
-0.0209133
-0.0247699
-0.0243589
-0.0236432
-0.0233251
-0.0232212
-0.0232734
-0.0235411
-0.0227605
-0.0228835
-0.022973
-0.0230289
-0.0230217
-0.0230121
-0.023034
-0.0230495
-0.0230642
-0.0230704
-0.0230849
-0.0230977
-0.0230231
-0.0228105
-0.0216828
0
0
-0.00865783
-0.00771378
-0.00776666
-0.0135297
-0.0183342
-0.020321
-0.0213114
-0.0218638
-0.0221812
-0.0223731
-0.0225444
-0.0226467
-0.0226904
-0.0227182
-0.0227144
-0.0227253
-0.0225838
-0.0227065
-0.022779
-0.0228378
-0.0228239
-0.0228106
-0.0228056
-0.0228025
-0.0227991
-0.0227948
-0.0227898
-0.0227841
-0.022778
-0.0227718
-0.022767
-0.0227668
-0.0227466
-0.0227465
-0.0225883
-0.0224881
-0.0223528
-0.022469
-0.0230977
-0.0231495
-0.0230059
-0.0228998
-0.0228541
-0.0228672
-0.0229287
-0.0227431
-0.0227063
-0.0227124
-0.0227208
-0.0227203
-0.0227204
-0.0227269
-0.0227345
-0.022741
-0.0227443
-0.0227479
-0.0227483
-0.0227217
-0.0225123
-0.021402
0
0
-0.00857562
-0.00754144
-0.00787819
-0.013938
-0.0183653
-0.0202317
-0.0212007
-0.0217613
-0.0220626
-0.0222401
-0.0223719
-0.022463
-0.0225175
-0.0225374
-0.0211586
-0.0225377
-0.0225392
-0.0225875
-0.0226289
-0.022652
-0.0226535
-0.0226503
-0.0226471
-0.0226436
-0.0226397
-0.0226351
-0.0226301
-0.0226247
-0.0226187
-0.0226118
-0.022603
-0.0225881
-0.0225557
-0.0225551
-0.0225141
-0.0224785
-0.0224511
-0.0224793
-0.0226624
-0.0227162
-0.0226952
-0.0226638
-0.0226443
-0.0226443
-0.022679
-0.0227954
-0.0226258
-0.0225734
-0.0225621
-0.0225592
-0.0225593
-0.0225637
-0.0225713
-0.0225765
-0.0225781
-0.0225774
-0.0225739
-0.0225546
-0.022348
-0.0212511
0
0
-0.0085413
-0.00748219
-0.0080783
-0.0140188
-0.0183494
-0.0201342
-0.0211983
-0.0217742
-0.022016
-0.0221737
-0.0222834
-0.0223712
-0.0224306
-0.0224671
-0.0224682
-0.0224998
-0.0225093
-0.0223782
-0.0225461
-0.0225592
-0.0225628
-0.0225622
-0.0225599
-0.0225566
-0.0225526
-0.0225479
-0.0225429
-0.0225379
-0.0225325
-0.0225258
-0.022515
-0.0224894
-0.0223806
-0.0224612
-0.0224631
-0.0224543
-0.0224507
-0.022469
-0.0225186
-0.0225435
-0.0225437
-0.022534
-0.0225225
-0.0225053
-0.0224519
-0.0222553
-0.0224025
-0.0224549
-0.022465
-0.0224635
-0.0224619
-0.0224679
-0.0224862
-0.0224945
-0.0224941
-0.0224892
-0.022479
-0.0224471
-0.0222335
-0.0211539
0
0
-0.0085253
-0.00745297
-0.00809865
-0.0140279
-0.0183091
-0.0199332
-0.0211535
-0.0216516
-0.0217924
-0.0220536
-0.0222198
-0.0223192
-0.0223817
-0.0224213
-0.0224431
-0.0224564
-0.0224579
-0.0224826
-0.0224974
-0.0225062
-0.0225088
-0.0225091
-0.0225074
-0.0225044
-0.0225007
-0.022495
-0.0224905
-0.0224864
-0.0224828
-0.0224785
-0.0224712
-0.0224808
-0.0225739
-0.0224731
-0.0224436
-0.0224313
-0.0224292
-0.0224367
-0.022452
-0.022462
-0.0224636
-0.0224595
-0.0224528
-0.0224395
-0.0224102
-0.0223522
-0.0223858
-0.0224042
-0.0224035
-0.0223929
-0.0223799
-0.0223854
-0.0224515
-0.0224667
-0.0224582
-0.0224448
-0.0224226
-0.0223357
-0.019233
-0.0210219
0
0
-0.00851552
-0.00743182
-0.00809344
-0.014028
-0.0183196
-0.0200738
-0.0210951
-0.0215187
-0.0218193
-0.0220436
-0.0221917
-0.0222997
-0.0223565
-0.0223932
-0.0224117
-0.0223841
-0.0210815
-0.0224238
-0.0224581
-0.022471
-0.0224712
-0.0224735
-0.022473
-0.0224703
-0.0224688
-0.0224586
-0.0224556
-0.0224538
-0.0224551
-0.0224574
-0.0224332
-0.0224319
-0.0224491
-0.022429
-0.0224148
-0.022408
-0.0224064
-0.0224086
-0.0224132
-0.0224166
-0.0224171
-0.0224148
-0.0224102
-0.0224024
-0.0223897
-0.0223728
-0.0223736
-0.0223701
-0.0223542
-0.0223185
-0.0222577
-0.0222172
-0.0225119
-0.0225142
-0.0224667
-0.0224353
-0.0224258
-0.0224488
-0.0221742
-0.0210858
0
0
-0.00850837
-0.00741524
-0.00808357
-0.0140224
-0.0183209
-0.0201105
-0.0210259
-0.0215219
-0.0218293
-0.0220348
-0.0221771
-0.0230705
-0.0223566
-0.0223817
-0.0224043
-0.0224155
-0.0224145
-0.0224367
-0.0224458
-0.0224487
-0.0224344
-0.0224482
-0.0224487
-0.0224452
-0.0224387
-0.0224337
-0.0224303
-0.022432
-0.0224478
-0.0224848
-0.022391
-0.0223792
-0.0223944
-0.0223944
-0.0223905
-0.022387
-0.0223869
-0.0223865
-0.0223871
-0.0223876
-0.0223871
-0.0223854
-0.0223823
-0.0223776
-0.0223711
-0.0223632
-0.0223562
-0.0223423
-0.0223073
-0.0222165
-0.0219848
-0.0199813
-0.02296
-0.0227474
-0.0225311
-0.0224416
-0.0224106
-0.0223942
-0.0221728
-0.0210795
0
0
-0.00850278
-0.00740203
-0.00807289
-0.0140097
-0.0183116
-0.0201036
-0.0210111
-0.0215167
-0.0218245
-0.0220246
-0.0221611
-0.0222663
-0.0223243
-0.0223699
-0.0224089
-0.0224211
-0.0224254
-0.0224306
-0.0224348
-0.0224389
-0.0224622
-0.0224435
-0.0224348
-0.0224273
-0.0223685
-0.0224118
-0.022407
-0.0224111
-0.0224532
-0.0226144
-0.0223263
-0.0223234
-0.0223543
-0.0223696
-0.0223704
-0.0223654
-0.0223729
-0.0223696
-0.0223675
-0.0223666
-0.0223657
-0.0223644
-0.0223624
-0.0223594
-0.0223554
-0.0223497
-0.0223412
-0.0223226
-0.0222722
-0.0221082
-0.0215124
-0.0199813
-0.0245172
-0.0232903
-0.0226366
-0.0224509
-0.022399
-0.0223725
-0.0221612
-0.0210703
0
0
-0.00849851
-0.00739193
-0.00806292
-0.0139796
-0.0182986
-0.0200951
-0.0210025
-0.0215097
-0.0218172
-0.0220152
-0.022149
-0.0222434
-0.0223108
-0.0223711
-0.0224506
-0.0224453
-0.0224278
-0.0224235
-0.0224223
-0.0224116
-0.0224485
-0.0224308
-0.0224207
-0.0224122
-0.0224021
-0.0223906
-0.022378
-0.0223689
-0.0223796
-0.0224479
-0.0225394
-0.0223982
-0.0223617
-0.0223548
-0.0223549
-0.0223532
-0.0223497
-0.0223565
-0.022351
-0.0223492
-0.0223484
-0.0223477
-0.0223468
-0.0223452
-0.0223427
-0.0223386
-0.0223315
-0.0223168
-0.0222825
-0.0221962
-0.0219864
-0.0216865
-0.0229393
-0.0227194
-0.0225043
-0.0224146
-0.0223811
-0.0223582
-0.0221505
-0.0210616
0
0
-0.00849561
-0.00738621
-0.00806773
-0.0140411
-0.0183131
-0.0200935
-0.0209968
-0.0215035
-0.0218104
-0.022007
-0.0221394
-0.0222315
-0.0222997
-0.0223721
-0.0225673
-0.0224805
-0.0224343
-0.0224154
-0.0224141
-0.0224144
-0.0224207
-0.0224156
-0.0224084
-0.0223987
-0.0223853
-0.0223663
-0.0223394
-0.0223039
-0.0222639
-0.022236
-0.0220492
-0.0222154
-0.0222993
-0.0223307
-0.0223388
-0.0223395
-0.0223375
-0.022336
-0.0223331
-0.022332
-0.0223321
-0.0223324
-0.0223333
-0.0223334
-0.0223324
-0.02233
-0.0223256
-0.0223172
-0.0223006
-0.0222667
-0.0222156
-0.0221976
-0.0224573
-0.0224562
-0.0224094
-0.0223782
-0.0223634
-0.0223465
-0.0221415
-0.0210542
0
0
-0.0084932
-0.0073802
-0.00806058
-0.0140133
-0.0183024
-0.0200874
-0.0209916
-0.0214984
-0.0218048
-0.0219992
-0.0221316
-0.0222207
-0.0222778
-0.0222921
-0.0221548
-0.0222842
-0.0223592
-0.0223937
-0.0224008
-0.0224058
-0.0224083
-0.0224053
-0.0223983
-0.0223868
-0.0223685
-0.0223384
-0.0222871
-0.0222015
-0.0220586
-0.0221012
-0.0221304
-0.0222248
-0.0222877
-0.0223151
-0.0223243
-0.0223248
-0.022321
-0.0223156
-0.0223112
-0.0223111
-0.0223136
-0.0222317
-0.0223201
-0.0223229
-0.0223237
-0.0223231
-0.0223213
-0.0223189
-0.0223162
-0.0223008
-0.0222889
-0.0222981
-0.0223567
-0.0223697
-0.0223624
-0.0223542
-0.0223507
-0.0223377
-0.0221345
-0.0210483
0
0
-0.00849178
-0.00737608
-0.00805523
-0.014028
-0.0182965
-0.0200821
-0.0209875
-0.0214949
-0.0218018
-0.0219997
-0.022128
-0.0222151
-0.0222716
-0.0222977
-0.0222798
-0.0223255
-0.0223679
-0.0223842
-0.0223793
-0.022393
-0.0223995
-0.0223978
-0.0223904
-0.0223769
-0.0223533
-0.0223088
-0.0222184
-0.0220206
-0.0212539
-0.0217521
-0.0220471
-0.0221996
-0.0222715
-0.0223013
-0.0223106
-0.0223084
-0.0223233
-0.0222862
-0.0222761
-0.0222791
-0.0222889
-0.0222989
-0.0223074
-0.0223129
-0.0223158
-0.0223169
-0.0223171
-0.0223198
-0.0223412
-0.0223145
-0.0223094
-0.0223166
-0.0223365
-0.0223407
-0.02234
-0.02234
-0.0224471
-0.0223323
-0.0221295
-0.021044
0
0
-0.00849246
-0.00737674
-0.00805359
-0.0139986
-0.0182889
-0.0200758
-0.0209853
-0.0214942
-0.0218002
-0.0219953
-0.0221242
-0.0222115
-0.0222703
-0.0223073
-0.0223269
-0.0223535
-0.022374
-0.0223767
-0.0223178
-0.0223788
-0.0223927
-0.0223929
-0.0223851
-0.0223704
-0.0223434
-0.0222874
-0.0221466
-0.0216042
0.0135219
-0.0206711
-0.021832
-0.0221547
-0.0222565
-0.02229
-0.0222976
-0.022289
-0.0222667
-0.0222334
-0.0222031
-0.0222185
-0.0222488
-0.0222746
-0.0222921
-0.0223027
-0.0223085
-0.0223109
-0.0223106
-0.0223052
-0.0222793
-0.0223023
-0.0223099
-0.0223194
-0.02296
-0.022331
-0.0223274
-0.0223284
-0.0223372
-0.0223288
-0.022127
-0.0210416
0
0
-0.00849699
-0.00739375
-0.00805826
-0.0139948
-0.0182806
-0.0200633
-0.0209887
-0.0215011
-0.0218031
-0.0219945
-0.0221219
-0.0222089
-0.022269
-0.0223105
-0.0223395
-0.0223628
-0.0223816
-0.0224036
-0.0224756
-0.0224185
-0.0224015
-0.022392
-0.0223826
-0.0223683
-0.0223437
-0.0222968
-0.0221981
-0.0219655
-0.0212191
-0.0217426
-0.0220551
-0.0222008
-0.022262
-0.0222835
-0.0222873
-0.0222667
-0.0222167
-0.0221284
-0.0220056
-0.0220859
-0.0221779
-0.0222395
-0.022274
-0.0222924
-0.0223023
-0.022306
-0.0223067
-0.0223023
-0.0222972
-0.0222991
-0.022306
-0.0223124
-0.0223195
-0.022317
-0.0223157
-0.0223123
-0.0223424
-0.0223331
-0.0221284
-0.0210418
0
0
-0.00850239
-0.00746601
-0.00807282
-0.0139906
-0.0182658
-0.0200226
-0.0210075
-0.0215337
-0.0218164
-0.0219973
-0.0221212
-0.0222065
-0.0222662
-0.0223095
-0.0223427
-0.0223661
-0.0223826
-0.0223968
-0.0224152
-0.0224058
-0.0223972
-0.0223901
-0.0223816
-0.0223691
-0.0223495
-0.0223168
-0.0222603
-0.0221657
-0.0220289
-0.0220998
-0.0221877
-0.0222446
-0.0222687
-0.0222721
-0.0222856
-0.0222481
-0.0221475
-0.0219094
-0.0211882
-0.0217502
-0.0220554
-0.0221934
-0.0222551
-0.0222834
-0.0222992
-0.0223023
-0.0223037
-0.022302
-0.0222949
-0.0222813
-0.022297
-0.0223056
-0.0223081
-0.0223054
-0.0227443
-0.0222622
-0.0223865
-0.0223559
-0.022136
-0.0210473
0
0
-0.0084614
-0.00724935
-0.00800064
-0.0139675
-0.0182437
-0.0201036
-0.021081
-0.0215949
-0.0218507
-0.0220028
-0.0221222
-0.0222032
-0.0222594
-0.0223031
-0.022346
-0.0223711
-0.0223842
-0.0223923
-0.0223985
-0.0223973
-0.0223937
-0.0223885
-0.0223813
-0.022371
-0.022356
-0.0223336
-0.0222989
-0.0222593
-0.0222031
-0.0222243
-0.0222545
-0.0222701
-0.0222612
-0.0222253
-0.0223156
-0.0222606
-0.0220889
-0.0214601
0.0153102
-0.0207963
-0.0218781
-0.0221538
-0.0222428
-0.0222768
-0.0222888
-0.022298
-0.0223011
-0.0223
-0.0222867
-0.0222133
-0.0222861
-0.0223007
-0.0223009
-0.0222881
-0.0222372
-0.022105
-0.0225284
-0.0224022
-0.0221487
-0.02104
0
0
-0.00846725
-0.00732213
-0.00801727
-0.0139614
-0.0182709
-0.0200895
-0.0210518
-0.0215459
-0.0218174
-0.0219974
-0.0221287
-0.0221975
-0.0222398
-0.0222762
-0.0223639
-0.0223904
-0.022392
-0.0223913
-0.0223934
-0.0223936
-0.0223916
-0.0223876
-0.0223815
-0.022373
-0.0223612
-0.0223449
-0.0223222
-0.0222911
-0.0221937
-0.0222691
-0.0222868
-0.0222833
-0.0222371
-0.0220809
-0.0224323
-0.0223351
-0.0221718
-0.0219019
-0.0211698
-0.0217393
-0.0220511
-0.0221892
-0.0222511
-0.022279
-0.0222912
-0.0222968
-0.0223003
-0.0223053
-0.0223215
-0.0223974
-0.0223243
-0.0223064
-0.0222999
-0.022293
-0.0222763
-0.0222541
-0.0223776
-0.0223493
-0.0221302
-0.0210417
0
0
-0.0084735
-0.00734268
-0.00801945
-0.0139199
-0.0182817
-0.0202671
-0.0210816
-0.0215318
-0.0218014
-0.0219932
-0.0221676
-0.0221823
-0.0221777
-0.0221396
-0.0224695
-0.0224643
-0.0224144
-0.0223889
-0.0223897
-0.0223915
-0.0223904
-0.0223871
-0.0223819
-0.0223745
-0.0223643
-0.0223503
-0.0223192
-0.0223408
-0.022422
-0.022341
-0.0223198
-0.0223052
-0.022281
-0.0222404
-0.0223301
-0.0222997
-0.0222242
-0.0221228
-0.0219964
-0.0220768
-0.0221696
-0.0222317
-0.0222672
-0.0222866
-0.0222954
-0.0222947
-0.0222969
-0.0223023
-0.0223124
-0.0223299
-0.0223153
-0.0223006
-0.0222949
-0.022294
-0.0222981
-0.0223011
-0.0223302
-0.0223218
-0.0221174
-0.0210316
0
0
-0.008477
-0.00735087
-0.00804073
-0.0140387
-0.0182569
-0.0198403
-0.0208615
-0.021436
-0.0217746
-0.0219623
-0.0220161
-0.0220958
-0.0219869
-0.0217829
-0.0226976
-0.0227314
-0.0224566
-0.0223655
-0.0223846
-0.0223897
-0.0223898
-0.0223871
-0.0223825
-0.0223757
-0.0223654
-0.0223385
-0.0210435
-0.0223117
-0.0223531
-0.022342
-0.0223296
-0.022319
-0.0223065
-0.0222938
-0.0223056
-0.0222905
-0.0222603
-0.0222226
-0.0221912
-0.0222059
-0.0222363
-0.0222636
-0.0222843
-0.0222999
-0.0223088
-0.0222852
-0.0222871
-0.0222958
-0.0223061
-0.0223179
-0.0223176
-0.0222843
-0.0222777
-0.0222801
-0.0223125
-0.022317
-0.0223218
-0.0223128
-0.0221107
-0.0210262
0
0
-0.00847817
-0.00735171
-0.00803649
-0.0139919
-0.0182567
-0.0199853
-0.0209137
-0.0214548
-0.0217773
-0.0219761
-0.022068
-0.0220724
-0.0217784
-0.0222485
-0.0226941
-0.0224861
-0.0224297
-0.0224442
-0.0224064
-0.0223953
-0.0223907
-0.0223877
-0.0223838
-0.0223778
-0.0223697
-0.0223584
-0.0223297
-0.0223444
-0.0223477
-0.0223422
-0.0223345
-0.0223258
-0.0223153
-0.0223036
-0.0223005
-0.022291
-0.0222799
-0.0222667
-0.0222571
-0.0222604
-0.0222713
-0.022285
-0.0223452
-0.0223267
-0.0223595
-0.0222445
-0.0222575
-0.0222838
-0.0223042
-0.0223356
-0.0223632
-0.0222324
-0.0222271
-0.0222215
-0.0223568
-0.0223424
-0.0223266
-0.0223115
-0.0221077
-0.0210231
0
0
-0.00847862
-0.00735156
-0.00803402
-0.0139822
-0.0182653
-0.0200396
-0.0209508
-0.0214684
-0.0217894
-0.022022
-0.0221244
-0.0221582
-0.0221465
-0.022459
-0.022438
-0.0224127
-0.0224005
-0.0224036
-0.0223969
-0.0223927
-0.0223904
-0.0223888
-0.0223872
-0.0223807
-0.0223733
-0.0223657
-0.0223581
-0.022356
-0.0223487
-0.022344
-0.0223375
-0.0223285
-0.0223145
-0.0222863
-0.0222893
-0.0222698
-0.0222846
-0.0222852
-0.0222837
-0.0222849
-0.0222896
-0.0222979
-0.0223158
-0.0223688
-0.0225076
-0.0221187
-0.0221987
-0.0222614
-0.022297
-0.0223852
-0.0225179
-0.0220918
-0.0221318
-0.0220579
-0.0224958
-0.0223913
-0.0223375
-0.0223148
-0.0221071
-0.0210211
0
0
-0.00847921
-0.00735205
-0.00803403
-0.0139821
-0.0182712
-0.0200565
-0.0209677
-0.0214721
-0.0217601
-0.032975
-0.022212
-0.0222029
-0.0222494
-0.0223369
-0.0223672
-0.0223771
-0.0223831
-0.0223888
-0.0223901
-0.0223901
-0.02239
-0.0223916
-0.0223986
-0.0223863
-0.0223763
-0.02237
-0.0223664
-0.0223709
-0.0223439
-0.0223448
-0.0223397
-0.0223303
-0.0223125
-0.0193582
-0.0222471
-0.0209928
-0.022262
-0.0222909
-0.0222955
-0.0222967
-0.0222989
-0.0223032
-0.0223113
-0.0223304
-0.022357
-0.0222424
-0.0222456
-0.0222501
-0.0222405
-0.0223886
-0.0224066
-0.0222465
-0.0222307
-0.0222235
-0.0223525
-0.02234
-0.0223286
-0.0223242
-0.0221089
-0.0210196
0
0
-0.0084804
-0.00735354
-0.0080354
-0.0139838
-0.0182751
-0.0200654
-0.0214984
-0.0214902
-0.0218004
-0.0220322
-0.0221455
-0.0222058
-0.0222605
-0.0223115
-0.0223434
-0.0223624
-0.022364
-0.0223821
-0.0223864
-0.0223879
-0.0223887
-0.022395
-0.0224402
-0.0223918
-0.0223774
-0.0223719
-0.022369
-0.0223713
-0.0223556
-0.0223492
-0.0223431
-0.0223341
-0.0223205
-0.0222928
-0.0222957
-0.0222778
-0.0222973
-0.0223021
-0.0223031
-0.0223034
-0.0223047
-0.0223077
-0.0223079
-0.0223097
-0.0223088
-0.0222783
-0.0222617
-0.0222142
-0.0220856
-0.0225035
-0.0224609
-0.0222979
-0.0222796
-0.022279
-0.0223085
-0.0223139
-0.0223242
-0.0223738
-0.0221117
-0.0210169
0
0
-0.00848272
-0.00735657
-0.00803809
-0.0139861
-0.0182773
-0.0200662
-0.0209792
-0.0214891
-0.0217977
-0.0219999
-0.022119
-0.0221979
-0.0222574
-0.0223029
-0.0223349
-0.0223565
-0.0223706
-0.0223798
-0.0223844
-0.0223856
-0.0223833
-0.0223726
-0.0223195
-0.0223554
-0.0223637
-0.0223729
-0.0223704
-0.0223575
-0.0223561
-0.0223512
-0.0224332
-0.0223388
-0.0223293
-0.0223188
-0.0223143
-0.0223099
-0.0223095
-0.0223088
-0.0223077
-0.0223074
-0.0223105
-0.02232
-0.0223098
-0.0223033
-0.0222979
-0.0222873
-0.0222765
-0.0222565
-0.0222289
-0.0223352
-0.0222672
-0.022312
-0.0222939
-0.0222915
-0.0222973
-0.0222981
-0.0222885
-0.0222189
-0.0220786
-0.0210079
0
0
-0.00848718
-0.00736249
-0.00804318
-0.0139897
-0.0182799
-0.0200687
-0.0209813
-0.0215086
-0.0218094
-0.022003
-0.0221053
-0.0221849
-0.0222493
-0.0222968
-0.02233
-0.0223528
-0.0223692
-0.0223791
-0.0223834
-0.0223841
-0.0223816
-0.0224084
-0.0223634
-0.0223435
-0.0223438
-0.0223881
-0.0223864
-0.0223716
-0.0223614
-0.0223537
-0.0223476
-0.0223406
-0.0223338
-0.0223273
-0.0223223
-0.022318
-0.0223149
-0.0223122
-0.0223098
-0.022309
-0.0223161
-0.0223651
-0.022314
-0.0223008
-0.0222947
-0.0222892
-0.0222838
-0.0222776
-0.0222742
-0.022295
-0.0222858
-0.0222937
-0.0222922
-0.0222919
-0.0222937
-0.0222944
-0.0222918
-0.0222716
-0.0220827
-0.0210058
0
0
-0.00849597
-0.00737474
-0.00805372
-0.013996
-0.0182834
-0.0200709
-0.0209891
-0.0215804
-0.0218362
-0.0220526
-0.0220821
-0.0221493
-0.0222327
-0.0222892
-0.022325
-0.0223487
-0.0223699
-0.0223817
-0.0223834
-0.0223825
-0.022378
-0.0223722
-0.0223564
-0.0223176
-0.0222359
-0.0224746
-0.0224405
-0.0223917
-0.0223683
-0.0223563
-0.0223486
-0.0223421
-0.0223362
-0.0223306
-0.0223257
-0.0223213
-0.0223173
-0.0223135
-0.0223096
-0.0223044
-0.0222916
-0.0222369
-0.0222831
-0.0222911
-0.0222907
-0.0222879
-0.0222849
-0.0222825
-0.0222822
-0.0222864
-0.0222862
-0.0222885
-0.0222892
-0.02229
-0.0222915
-0.0222932
-0.0223582
-0.0222841
-0.0220858
-0.0210052
0
0
-0.0085137
-0.00740281
-0.00807913
-0.0140069
-0.0182875
-0.0200678
-0.0209589
-0.0213932
-0.0218014
-0.0221739
-0.0220011
-0.022088
-0.0221987
-0.0222797
-0.0223186
-0.022337
-0.0223779
-0.0223954
-0.0223829
-0.0223795
-0.0223677
-0.022366
-0.0223446
-0.022251
-0.0219118
-0.0226731
-0.0226185
-0.0224228
-0.0223748
-0.0223582
-0.0223495
-0.0223431
-0.0223374
-0.0223322
-0.0223273
-0.0223227
-0.0223183
-0.0223139
-0.0223094
-0.022304
-0.0222956
-0.0222816
-0.0222872
-0.0222888
-0.0222869
-0.0222842
-0.0222818
-0.0222802
-0.0222801
-0.0222815
-0.0222827
-0.0222844
-0.0222859
-0.0222874
-0.0222892
-0.0222914
-0.0222943
-0.0222858
-0.0220861
-0.0210045
0
0
-0.00854817
-0.00747679
-0.00814456
-0.0140298
-0.0182929
-0.0200717
-0.0209663
-0.0214583
-0.0217906
-0.0220315
-0.0220767
-0.0221475
-0.0222286
-0.0222804
-0.0225377
-0.0222915
-0.0224073
-0.0224556
-0.0223705
-0.0223741
-0.0223268
-0.022365
-0.0223579
-0.0223243
-0.0222475
-0.0224705
-0.0224408
-0.0223928
-0.0223693
-0.0223573
-0.0223496
-0.0223436
-0.0223382
-0.0223331
-0.0223281
-0.0223233
-0.0223184
-0.0223136
-0.0223086
-0.0223033
-0.0222975
-0.0222913
-0.0222887
-0.0222855
-0.0222815
-0.0222776
-0.0222748
-0.0222733
-0.0222733
-0.0222747
-0.0222768
-0.0222793
-0.0222817
-0.022284
-0.0222865
-0.0222894