# vtk DataFile Version 2.0
FlowField
ASCII
DATASET STRUCTURED_GRID
DIMENSIONS 62 47 32 
POINTS 93248 double
0 0 0
0.01 0 0
0.02 0 0
0.03 0 0
0.04 0 0
0.05 0 0
0.06 0 0
0.07 0 0
0.08 0 0
0.09 0 0
0.1 0 0
0.11 0 0
0.12 0 0
0.13 0 0
0.14 0 0
0.15 0 0
0.16 0 0
0.17 0 0
0.18 0 0
0.19 0 0
0.2 0 0
0.21 0 0
0.22 0 0
0.23 0 0
0.24 0 0
0.25 0 0
0.26 0 0
0.27 0 0
0.28 0 0
0.29 0 0
0.3 0 0
0.31 0 0
0.32 0 0
0.33 0 0
0.34 0 0
0.35 0 0
0.36 0 0
0.37 0 0
0.38 0 0
0.39 0 0
0.4 0 0
0.41 0 0
0.42 0 0
0.43 0 0
0.44 0 0
0.45 0 0
0.46 0 0
0.47 0 0
0.48 0 0
0.49 0 0
0.5 0 0
0.51 0 0
0.52 0 0
0.53 0 0
0.54 0 0
0.55 0 0
0.56 0 0
0.57 0 0
0.58 0 0
0.59 0 0
0.6 0 0
0.61 0 0
0 0.01 0
0.01 0.01 0
0.02 0.01 0
0.03 0.01 0
0.04 0.01 0
0.05 0.01 0
0.06 0.01 0
0.07 0.01 0
0.08 0.01 0
0.09 0.01 0
0.1 0.01 0
0.11 0.01 0
0.12 0.01 0
0.13 0.01 0
0.14 0.01 0
0.15 0.01 0
0.16 0.01 0
0.17 0.01 0
0.18 0.01 0
0.19 0.01 0
0.2 0.01 0
0.21 0.01 0
0.22 0.01 0
0.23 0.01 0
0.24 0.01 0
0.25 0.01 0
0.26 0.01 0
0.27 0.01 0
0.28 0.01 0
0.29 0.01 0
0.3 0.01 0
0.31 0.01 0
0.32 0.01 0
0.33 0.01 0
0.34 0.01 0
0.35 0.01 0
0.36 0.01 0
0.37 0.01 0
0.38 0.01 0
0.39 0.01 0
0.4 0.01 0
0.41 0.01 0
0.42 0.01 0
0.43 0.01 0
0.44 0.01 0
0.45 0.01 0
0.46 0.01 0
0.47 0.01 0
0.48 0.01 0
0.49 0.01 0
0.5 0.01 0
0.51 0.01 0
0.52 0.01 0
0.53 0.01 0
0.54 0.01 0
0.55 0.01 0
0.56 0.01 0
0.57 0.01 0
0.58 0.01 0
0.59 0.01 0
0.6 0.01 0
0.61 0.01 0
0 0.02 0
0.01 0.02 0
0.02 0.02 0
0.03 0.02 0
0.04 0.02 0
0.05 0.02 0
0.06 0.02 0
0.07 0.02 0
0.08 0.02 0
0.09 0.02 0
0.1 0.02 0
0.11 0.02 0
0.12 0.02 0
0.13 0.02 0
0.14 0.02 0
0.15 0.02 0
0.16 0.02 0
0.17 0.02 0
0.18 0.02 0
0.19 0.02 0
0.2 0.02 0
0.21 0.02 0
0.22 0.02 0
0.23 0.02 0
0.24 0.02 0
0.25 0.02 0
0.26 0.02 0
0.27 0.02 0
0.28 0.02 0
0.29 0.02 0
0.3 0.02 0
0.31 0.02 0
0.32 0.02 0
0.33 0.02 0
0.34 0.02 0
0.35 0.02 0
0.36 0.02 0
0.37 0.02 0
0.38 0.02 0
0.39 0.02 0
0.4 0.02 0
0.41 0.02 0
0.42 0.02 0
0.43 0.02 0
0.44 0.02 0
0.45 0.02 0
0.46 0.02 0
0.47 0.02 0
0.48 0.02 0
0.49 0.02 0
0.5 0.02 0
0.51 0.02 0
0.52 0.02 0
0.53 0.02 0
0.54 0.02 0
0.55 0.02 0
0.56 0.02 0
0.57 0.02 0
0.58 0.02 0
0.59 0.02 0
0.6 0.02 0
0.61 0.02 0
0 0.03 0
0.01 0.03 0
0.02 0.03 0
0.03 0.03 0
0.04 0.03 0
0.05 0.03 0
0.06 0.03 0
0.07 0.03 0
0.08 0.03 0
0.09 0.03 0
0.1 0.03 0
0.11 0.03 0
0.12 0.03 0
0.13 0.03 0
0.14 0.03 0
0.15 0.03 0
0.16 0.03 0
0.17 0.03 0
0.18 0.03 0
0.19 0.03 0
0.2 0.03 0
0.21 0.03 0
0.22 0.03 0
0.23 0.03 0
0.24 0.03 0
0.25 0.03 0
0.26 0.03 0
0.27 0.03 0
0.28 0.03 0
0.29 0.03 0
0.3 0.03 0
0.31 0.03 0
0.32 0.03 0
0.33 0.03 0
0.34 0.03 0
0.35 0.03 0
0.36 0.03 0
0.37 0.03 0
0.38 0.03 0
0.39 0.03 0
0.4 0.03 0
0.41 0.03 0
0.42 0.03 0
0.43 0.03 0
0.44 0.03 0
0.45 0.03 0
0.46 0.03 0
0.47 0.03 0
0.48 0.03 0
0.49 0.03 0
0.5 0.03 0
0.51 0.03 0
0.52 0.03 0
0.53 0.03 0
0.54 0.03 0
0.55 0.03 0
0.56 0.03 0
0.57 0.03 0
0.58 0.03 0
0.59 0.03 0
0.6 0.03 0
0.61 0.03 0
0 0.04 0
0.01 0.04 0
0.02 0.04 0
0.03 0.04 0
0.04 0.04 0
0.05 0.04 0
0.06 0.04 0
0.07 0.04 0
0.08 0.04 0
0.09 0.04 0
0.1 0.04 0
0.11 0.04 0
0.12 0.04 0
0.13 0.04 0
0.14 0.04 0
0.15 0.04 0
0.16 0.04 0
0.17 0.04 0
0.18 0.04 0
0.19 0.04 0
0.2 0.04 0
0.21 0.04 0
0.22 0.04 0
0.23 0.04 0
0.24 0.04 0
0.25 0.04 0
0.26 0.04 0
0.27 0.04 0
0.28 0.04 0
0.29 0.04 0
0.3 0.04 0
0.31 0.04 0
0.32 0.04 0
0.33 0.04 0
0.34 0.04 0
0.35 0.04 0
0.36 0.04 0
0.37 0.04 0
0.38 0.04 0
0.39 0.04 0
0.4 0.04 0
0.41 0.04 0
0.42 0.04 0
0.43 0.04 0
0.44 0.04 0
0.45 0.04 0
0.46 0.04 0
0.47 0.04 0
0.48 0.04 0
0.49 0.04 0
0.5 0.04 0
0.51 0.04 0
0.52 0.04 0
0.53 0.04 0
0.54 0.04 0
0.55 0.04 0
0.56 0.04 0
0.57 0.04 0
0.58 0.04 0
0.59 0.04 0
0.6 0.04 0
0.61 0.04 0
0 0.05 0
0.01 0.05 0
0.02 0.05 0
0.03 0.05 0
0.04 0.05 0
0.05 0.05 0
0.06 0.05 0
0.07 0.05 0
0.08 0.05 0
0.09 0.05 0
0.1 0.05 0
0.11 0.05 0
0.12 0.05 0
0.13 0.05 0
0.14 0.05 0
0.15 0.05 0
0.16 0.05 0
0.17 0.05 0
0.18 0.05 0
0.19 0.05 0
0.2 0.05 0
0.21 0.05 0
0.22 0.05 0
0.23 0.05 0
0.24 0.05 0
0.25 0.05 0
0.26 0.05 0
0.27 0.05 0
0.28 0.05 0
0.29 0.05 0
0.3 0.05 0
0.31 0.05 0
0.32 0.05 0
0.33 0.05 0
0.34 0.05 0
0.35 0.05 0
0.36 0.05 0
0.37 0.05 0
0.38 0.05 0
0.39 0.05 0
0.4 0.05 0
0.41 0.05 0
0.42 0.05 0
0.43 0.05 0
0.44 0.05 0
0.45 0.05 0
0.46 0.05 0
0.47 0.05 0
0.48 0.05 0
0.49 0.05 0
0.5 0.05 0
0.51 0.05 0
0.52 0.05 0
0.53 0.05 0
0.54 0.05 0
0.55 0.05 0
0.56 0.05 0
0.57 0.05 0
0.58 0.05 0
0.59 0.05 0
0.6 0.05 0
0.61 0.05 0
0 0.06 0
0.01 0.06 0
0.02 0.06 0
0.03 0.06 0
0.04 0.06 0
0.05 0.06 0
0.06 0.06 0
0.07 0.06 0
0.08 0.06 0
0.09 0.06 0
0.1 0.06 0
0.11 0.06 0
0.12 0.06 0
0.13 0.06 0
0.14 0.06 0
0.15 0.06 0
0.16 0.06 0
0.17 0.06 0
0.18 0.06 0
0.19 0.06 0
0.2 0.06 0
0.21 0.06 0
0.22 0.06 0
0.23 0.06 0
0.24 0.06 0
0.25 0.06 0
0.26 0.06 0
0.27 0.06 0
0.28 0.06 0
0.29 0.06 0
0.3 0.06 0
0.31 0.06 0
0.32 0.06 0
0.33 0.06 0
0.34 0.06 0
0.35 0.06 0
0.36 0.06 0
0.37 0.06 0
0.38 0.06 0
0.39 0.06 0
0.4 0.06 0
0.41 0.06 0
0.42 0.06 0
0.43 0.06 0
0.44 0.06 0
0.45 0.06 0
0.46 0.06 0
0.47 0.06 0
0.48 0.06 0
0.49 0.06 0
0.5 0.06 0
0.51 0.06 0
0.52 0.06 0
0.53 0.06 0
0.54 0.06 0
0.55 0.06 0
0.56 0.06 0
0.57 0.06 0
0.58 0.06 0
0.59 0.06 0
0.6 0.06 0
0.61 0.06 0
0 0.07 0
0.01 0.07 0
0.02 0.07 0
0.03 0.07 0
0.04 0.07 0
0.05 0.07 0
0.06 0.07 0
0.07 0.07 0
0.08 0.07 0
0.09 0.07 0
0.1 0.07 0
0.11 0.07 0
0.12 0.07 0
0.13 0.07 0
0.14 0.07 0
0.15 0.07 0
0.16 0.07 0
0.17 0.07 0
0.18 0.07 0
0.19 0.07 0
0.2 0.07 0
0.21 0.07 0
0.22 0.07 0
0.23 0.07 0
0.24 0.07 0
0.25 0.07 0
0.26 0.07 0
0.27 0.07 0
0.28 0.07 0
0.29 0.07 0
0.3 0.07 0
0.31 0.07 0
0.32 0.07 0
0.33 0.07 0
0.34 0.07 0
0.35 0.07 0
0.36 0.07 0
0.37 0.07 0
0.38 0.07 0
0.39 0.07 0
0.4 0.07 0
0.41 0.07 0
0.42 0.07 0
0.43 0.07 0
0.44 0.07 0
0.45 0.07 0
0.46 0.07 0
0.47 0.07 0
0.48 0.07 0
0.49 0.07 0
0.5 0.07 0
0.51 0.07 0
0.52 0.07 0
0.53 0.07 0
0.54 0.07 0
0.55 0.07 0
0.56 0.07 0
0.57 0.07 0
0.58 0.07 0
0.59 0.07 0
0.6 0.07 0
0.61 0.07 0
0 0.08 0
0.01 0.08 0
0.02 0.08 0
0.03 0.08 0
0.04 0.08 0
0.05 0.08 0
0.06 0.08 0
0.07 0.08 0
0.08 0.08 0
0.09 0.08 0
0.1 0.08 0
0.11 0.08 0
0.12 0.08 0
0.13 0.08 0
0.14 0.08 0
0.15 0.08 0
0.16 0.08 0
0.17 0.08 0
0.18 0.08 0
0.19 0.08 0
0.2 0.08 0
0.21 0.08 0
0.22 0.08 0
0.23 0.08 0
0.24 0.08 0
0.25 0.08 0
0.26 0.08 0
0.27 0.08 0
0.28 0.08 0
0.29 0.08 0
0.3 0.08 0
0.31 0.08 0
0.32 0.08 0
0.33 0.08 0
0.34 0.08 0
0.35 0.08 0
0.36 0.08 0
0.37 0.08 0
0.38 0.08 0
0.39 0.08 0
0.4 0.08 0
0.41 0.08 0
0.42 0.08 0
0.43 0.08 0
0.44 0.08 0
0.45 0.08 0
0.46 0.08 0
0.47 0.08 0
0.48 0.08 0
0.49 0.08 0
0.5 0.08 0
0.51 0.08 0
0.52 0.08 0
0.53 0.08 0
0.54 0.08 0
0.55 0.08 0
0.56 0.08 0
0.57 0.08 0
0.58 0.08 0
0.59 0.08 0
0.6 0.08 0
0.61 0.08 0
0 0.09 0
0.01 0.09 0
0.02 0.09 0
0.03 0.09 0
0.04 0.09 0
0.05 0.09 0
0.06 0.09 0
0.07 0.09 0
0.08 0.09 0
0.09 0.09 0
0.1 0.09 0
0.11 0.09 0
0.12 0.09 0
0.13 0.09 0
0.14 0.09 0
0.15 0.09 0
0.16 0.09 0
0.17 0.09 0
0.18 0.09 0
0.19 0.09 0
0.2 0.09 0
0.21 0.09 0
0.22 0.09 0
0.23 0.09 0
0.24 0.09 0
0.25 0.09 0
0.26 0.09 0
0.27 0.09 0
0.28 0.09 0
0.29 0.09 0
0.3 0.09 0
0.31 0.09 0
0.32 0.09 0
0.33 0.09 0
0.34 0.09 0
0.35 0.09 0
0.36 0.09 0
0.37 0.09 0
0.38 0.09 0
0.39 0.09 0
0.4 0.09 0
0.41 0.09 0
0.42 0.09 0
0.43 0.09 0
0.44 0.09 0
0.45 0.09 0
0.46 0.09 0
0.47 0.09 0
0.48 0.09 0
0.49 0.09 0
0.5 0.09 0
0.51 0.09 0
0.52 0.09 0
0.53 0.09 0
0.54 0.09 0
0.55 0.09 0
0.56 0.09 0
0.57 0.09 0
0.58 0.09 0
0.59 0.09 0
0.6 0.09 0
0.61 0.09 0
0 0.1 0
0.01 0.1 0
0.02 0.1 0
0.03 0.1 0
0.04 0.1 0
0.05 0.1 0
0.06 0.1 0
0.07 0.1 0
0.08 0.1 0
0.09 0.1 0
0.1 0.1 0
0.11 0.1 0
0.12 0.1 0
0.13 0.1 0
0.14 0.1 0
0.15 0.1 0
0.16 0.1 0
0.17 0.1 0
0.18 0.1 0
0.19 0.1 0
0.2 0.1 0
0.21 0.1 0
0.22 0.1 0
0.23 0.1 0
0.24 0.1 0
0.25 0.1 0
0.26 0.1 0
0.27 0.1 0
0.28 0.1 0
0.29 0.1 0
0.3 0.1 0
0.31 0.1 0
0.32 0.1 0
0.33 0.1 0
0.34 0.1 0
0.35 0.1 0
0.36 0.1 0
0.37 0.1 0
0.38 0.1 0
0.39 0.1 0
0.4 0.1 0
0.41 0.1 0
0.42 0.1 0
0.43 0.1 0
0.44 0.1 0
0.45 0.1 0
0.46 0.1 0
0.47 0.1 0
0.48 0.1 0
0.49 0.1 0
0.5 0.1 0
0.51 0.1 0
0.52 0.1 0
0.53 0.1 0
0.54 0.1 0
0.55 0.1 0
0.56 0.1 0
0.57 0.1 0
0.58 0.1 0
0.59 0.1 0
0.6 0.1 0
0.61 0.1 0
0 0.11 0
0.01 0.11 0
0.02 0.11 0
0.03 0.11 0
0.04 0.11 0
0.05 0.11 0
0.06 0.11 0
0.07 0.11 0
0.08 0.11 0
0.09 0.11 0
0.1 0.11 0
0.11 0.11 0
0.12 0.11 0
0.13 0.11 0
0.14 0.11 0
0.15 0.11 0
0.16 0.11 0
0.17 0.11 0
0.18 0.11 0
0.19 0.11 0
0.2 0.11 0
0.21 0.11 0
0.22 0.11 0
0.23 0.11 0
0.24 0.11 0
0.25 0.11 0
0.26 0.11 0
0.27 0.11 0
0.28 0.11 0
0.29 0.11 0
0.3 0.11 0
0.31 0.11 0
0.32 0.11 0
0.33 0.11 0
0.34 0.11 0
0.35 0.11 0
0.36 0.11 0
0.37 0.11 0
0.38 0.11 0
0.39 0.11 0
0.4 0.11 0
0.41 0.11 0
0.42 0.11 0
0.43 0.11 0
0.44 0.11 0
0.45 0.11 0
0.46 0.11 0
0.47 0.11 0
0.48 0.11 0
0.49 0.11 0
0.5 0.11 0
0.51 0.11 0
0.52 0.11 0
0.53 0.11 0
0.54 0.11 0
0.55 0.11 0
0.56 0.11 0
0.57 0.11 0
0.58 0.11 0
0.59 0.11 0
0.6 0.11 0
0.61 0.11 0
0 0.12 0
0.01 0.12 0
0.02 0.12 0
0.03 0.12 0
0.04 0.12 0
0.05 0.12 0
0.06 0.12 0
0.07 0.12 0
0.08 0.12 0
0.09 0.12 0
0.1 0.12 0
0.11 0.12 0
0.12 0.12 0
0.13 0.12 0
0.14 0.12 0
0.15 0.12 0
0.16 0.12 0
0.17 0.12 0
0.18 0.12 0
0.19 0.12 0
0.2 0.12 0
0.21 0.12 0
0.22 0.12 0
0.23 0.12 0
0.24 0.12 0
0.25 0.12 0
0.26 0.12 0
0.27 0.12 0
0.28 0.12 0
0.29 0.12 0
0.3 0.12 0
0.31 0.12 0
0.32 0.12 0
0.33 0.12 0
0.34 0.12 0
0.35 0.12 0
0.36 0.12 0
0.37 0.12 0
0.38 0.12 0
0.39 0.12 0
0.4 0.12 0
0.41 0.12 0
0.42 0.12 0
0.43 0.12 0
0.44 0.12 0
0.45 0.12 0
0.46 0.12 0
0.47 0.12 0
0.48 0.12 0
0.49 0.12 0
0.5 0.12 0
0.51 0.12 0
0.52 0.12 0
0.53 0.12 0
0.54 0.12 0
0.55 0.12 0
0.56 0.12 0
0.57 0.12 0
0.58 0.12 0
0.59 0.12 0
0.6 0.12 0
0.61 0.12 0
0 0.13 0
0.01 0.13 0
0.02 0.13 0
0.03 0.13 0
0.04 0.13 0
0.05 0.13 0
0.06 0.13 0
0.07 0.13 0
0.08 0.13 0
0.09 0.13 0
0.1 0.13 0
0.11 0.13 0
0.12 0.13 0
0.13 0.13 0
0.14 0.13 0
0.15 0.13 0
0.16 0.13 0
0.17 0.13 0
0.18 0.13 0
0.19 0.13 0
0.2 0.13 0
0.21 0.13 0
0.22 0.13 0
0.23 0.13 0
0.24 0.13 0
0.25 0.13 0
0.26 0.13 0
0.27 0.13 0
0.28 0.13 0
0.29 0.13 0
0.3 0.13 0
0.31 0.13 0
0.32 0.13 0
0.33 0.13 0
0.34 0.13 0
0.35 0.13 0
0.36 0.13 0
0.37 0.13 0
0.38 0.13 0
0.39 0.13 0
0.4 0.13 0
0.41 0.13 0
0.42 0.13 0
0.43 0.13 0
0.44 0.13 0
0.45 0.13 0
0.46 0.13 0
0.47 0.13 0
0.48 0.13 0
[...]
POINT_DATA 93248

SCALARS w double
LOOKUP_TABLE default
0
0
0
0
0
0
0
0
0
0
0
0
0
-0.0930869
0
0
0
0
0
0
0
0
0
0
0
0
-0.230531
0
0
0
0
0
-0.233325
0
0
0
0
0
0
0
0
0
0
0
0
0
-0.203375
0
0
0
0
0
0
0
0
0
0
0
0
0
0
0
0
-0.026138
-0.0512089
-0.0688417
-0.0795979
-0.085718
-0.0906061
-0.0945562
-0.0979208
-0.100504
-0.102059
-0.102264
-0.101274
-0.102508
-0.104301
-0.105822
-0.107085
-0.1081
-0.108139
-0.10626
-0.100156
-0.101513
-0.105064
-0.103372
-0.101901
-0.100925
-0.100183
-0.0995274
-0.0988921
-0.0982169
-0.0973772
-0.0961618
-0.0946522
-0.0948874
-0.0948585
-0.0937537
-0.0921516
-0.0935634
-0.0952809
-0.0978071
-0.0920802
-0.0939779
-0.0969086
-0.0992141
-0.103017
-0.233253
-0.0974862
-0.0958711
-0.095656
-0.096733
-0.0980613
-0.0999591
-0.100457
-0.103347
-0.234748
-0.100958
-0.0932316
-0.0924577
-0.0919942
-0.0897363
-0.0855512
0
0
-0.030162
-0.0704047
-0.0956218
-0.115193
-0.130274
-0.147127
-0.161851
-0.174256
-0.184671
-0.19307
-0.198849
-0.201258
-0.205951
-0.209683
-0.212318
-0.21437
-0.216137
-0.216785
-0.216303
-0.204961
-0.208281
-0.280065
-0.208556
-0.204274
-0.201909
-0.20016
-0.19867
-0.197309
-0.196008
-0.194693
-0.19317
-0.190912
-0.191545
-0.190982
-0.189564
-0.190011
-0.188765
-0.188993
-0.190822
-0.189692
-0.192354
-0.19406
-0.196604
-0.201783
-0.2091
-0.203566
-0.196261
-0.193973
-0.193682
-0.195799
-0.234596
-0.199644
-0.202444
-0.208132
-0.200828
-0.195431
-0.187444
-0.182722
-0.175163
-0.164917
0
0
-0.0299274
-0.0703992
-0.0982526
-0.120759
-0.085718
-0.157684
-0.177608
-0.1947
-0.210104
-0.224212
-0.236106
-0.248547
-0.253643
-0.257733
-0.260884
-0.263428
-0.265915
-0.266491
-0.267431
-0.267265
-0.262541
-0.262285
-0.256578
-0.252224
-0.249096
-0.246666
-0.244628
-0.242843
-0.241279
-0.240048
-0.239618
-0.241078
-0.257517
-0.237191
-0.233253
-0.232839
-0.232267
-0.232234
-0.232986
-0.233274
-0.234775
-0.236625
-0.237648
-0.240838
-0.243775
-0.241639
-0.238758
-0.236955
-0.236988
-0.238246
-0.241154
-0.241055
-0.242229
-0.24342
-0.242028
-0.239688
-0.235784
-0.22586
-0.21444
-0.201088
0
0
-0.0293726
-0.0690729
-0.0707734
-0.12214
-0.14263
-0.163519
-0.182267
-0.19947
-0.215568
-0.230747
-0.244607
-0.257312
-0.266524
-0.273041
-0.276853
-0.280513
-0.281319
-0.28322
-0.284333
-0.282853
-0.279986
-0.276984
-0.273294
-0.269767
-0.266692
-0.264056
-0.261767
-0.259762
-0.25804
-0.256682
-0.255848
-0.255514
-0.2545
-0.252325
-0.249797
-0.248627
-0.248009
-0.249752
-0.247851
-0.24817
-0.248918
-0.249887
-0.250486
-0.251684
-0.252745
-0.252815
-0.251533
-0.250723
-0.250839
-0.251465
-0.252459
-0.253133
-0.253794
-0.254325
-0.25449
-0.253284
-0.249422
-0.241008
-0.228873
-0.21421
0
0
-0.0292332
-0.0692499
-0.0990709
-0.125018
-0.146883
-0.166796
-0.184811
-0.201517
-0.217242
-0.232022
-0.245692
-0.25792
-0.267989
-0.274986
-0.240334
-0.284029
-0.28695
-0.287997
-0.287966
-0.286043
-0.283267
-0.280065
-0.276794
-0.273654
-0.270755
-0.26815
-0.265807
-0.263712
-0.261877
-0.260316
-0.258969
-0.257517
-0.255389
-0.254306
-0.253168
-0.252177
-0.251421
-0.250941
-0.250638
-0.250644
-0.250875
-0.251194
-0.251409
-0.251679
-0.252084
-0.253256
-0.251844
-0.251656
-0.251969
-0.252463
-0.253057
-0.253728
-0.254413
-0.255077
-0.255488
-0.254621
-0.251046
-0.243313
-0.230944
-0.215867
0
0
-0.0291904
-0.0693641
-0.100345
-0.126321
-0.148778
-0.168953
-0.186587
-0.203058
-0.218559
-0.232976
-0.246128
-0.25782
-0.267826
-0.275298
-0.27935
-0.284223
-0.287076
-0.281267
-0.287322
-0.285345
-0.282369
-0.279093
-0.275851
-0.272777
-0.269925
-0.267381
-0.265038
-0.262904
-0.261004
-0.259336
-0.257808
-0.256097
-0.253212
-0.253109
-0.252391
-0.251409
-0.250486
-0.249752
-0.249232
-0.248938
-0.248811
-0.248752
-0.248603
-0.248324
-0.247555
-0.245716
-0.247224
-0.248305
-0.249036
-0.249637
-0.250238
-0.25093
-0.251717
-0.25249
-0.252899
-0.252031
-0.248266
-0.239435
-0.224401
-0.21088
0
0
-0.0291419
-0.0693091
-0.100536
-0.126691
-0.149547
-0.170538
-0.187305
-0.204075
-0.219661
-0.23386
-0.246573
-0.257712
-0.267807
-0.275555
-0.280667
-0.283472
-0.285524
-0.286593
-0.285902
-0.283592
-0.280433
-0.277109
-0.273859
-0.270757
-0.267847
-0.265404
-0.263049
-0.260882
-0.25897
-0.257343
-0.256023
-0.255322
-0.256367
-0.253642
-0.251408
-0.249761
-0.248512
-0.247562
-0.246861
-0.246364
-0.24602
-0.245767
-0.245375
-0.244994
-0.244423
-0.243812
-0.244324
-0.245066
-0.245743
-0.246354
-0.246978
-0.247709
-0.248592
-0.24942
-0.249811
-0.248845
-0.244382
-0.231229
-0.0897363
-0.201254
0
0
-0.0290767
-0.0691498
-0.10036
-0.126529
-0.149408
-0.170061
-0.188036
-0.204798
-0.220276
-0.234255
-0.246375
-0.256037
-0.267238
-0.275251
-0.280038
-0.280539
-0.243232
-0.28469
-0.284115
-0.281695
-0.278326
-0.275077
-0.271877
-0.268731
-0.265651
-0.263446
-0.261025
-0.258824
-0.25695
-0.255436
-0.254217
-0.2533
-0.252673
-0.251013
-0.249217
-0.24765
-0.246346
-0.245316
-0.244528
-0.243933
-0.24348
-0.243113
-0.24274
-0.242419
-0.242145
-0.242026
-0.242216
-0.242611
-0.24309
-0.243606
-0.244181
-0.244893
-0.245922
-0.246834
-0.24732
-0.24669
-0.243578
-0.235617
-0.217186
-0.205838
0
0
-0.0290037
-0.0689471
-0.100055
-0.126142
-0.148939
-0.169433
-0.187921
-0.204886
-0.22039
-0.234151
-0.245081
-0.201258
-0.264391
-0.274043
-0.279403
-0.281159
-0.281678
-0.282989
-0.282173
-0.279787
-0.2763
-0.273344
-0.270198
-0.266986
-0.263805
-0.261377
-0.259031
-0.256903
-0.255138
-0.253822
-0.252617
-0.251279
-0.249838
-0.248283
-0.24678
-0.245441
-0.24421
-0.243209
-0.242435
-0.241835
-0.241361
-0.240979
-0.240667
-0.240438
-0.240313
-0.240321
-0.240459
-0.240718
-0.241069
-0.241478
-0.241945
-0.240946
-0.243851
-0.244899
-0.245536
-0.245224
-0.242802
-0.236422
-0.223763
-0.207061
0
0
-0.0289319
-0.0687406
-0.0997259
-0.125701
-0.148407
-0.168839
-0.187479
-0.2046
-0.220229
-0.234128
-0.245688
-0.25397
-0.265077
-0.273722
-0.27942
-0.282082
-0.282889
-0.282478
-0.280839
-0.278439
-0.27604
-0.272441
-0.268879
-0.265405
-0.257867
-0.259466
-0.25715
-0.25506
-0.253407
-0.252392
-0.251237
-0.249411
-0.247536
-0.245895
-0.244515
-0.243386
-0.242207
-0.241265
-0.240577
-0.240037
-0.239596
-0.239244
-0.23899
-0.238832
-0.238774
-0.238821
-0.238966
-0.239203
-0.239514
-0.239869
-0.240308
-0.240946
-0.242416
-0.243491
-0.24425
-0.244162
-0.242112
-0.236389
-0.224922
-0.207629
0
0
-0.0288673
-0.0685531
-0.0994239
-0.125285
-0.147921
-0.168317
-0.187004
-0.204228
-0.220025
-0.234261
-0.246701
-0.257353
-0.266884
-0.274547
-0.280192
-0.282595
-0.282914
-0.281767
-0.279589
-0.276893
-0.27391
-0.27063
-0.267262
-0.263907
-0.26057
-0.257835
-0.255318
-0.25313
-0.251356
-0.250098
-0.249727
-0.24698
-0.244966
-0.243489
-0.242314
-0.241345
-0.240484
-0.239505
-0.23893
-0.238472
-0.23807
-0.237728
-0.237548
-0.237459
-0.237452
-0.237532
-0.237704
-0.237974
-0.238321
-0.238679
-0.239172
-0.239961
-0.241212
-0.242361
-0.243234
-0.243297
-0.241441
-0.23596
-0.224766
-0.207614
0
0
-0.0288131
-0.0683972
-0.0991839
-0.125019
-0.147558
-0.167901
-0.186594
-0.203891
-0.219845
-0.234379
-0.247296
-0.258498
-0.267784
-0.275027
-0.280772
-0.28224
-0.282088
-0.280614
-0.278115
-0.275209
-0.272117
-0.268937
-0.265713
-0.262481
-0.25929
-0.256236
-0.253356
-0.250798
-0.248377
-0.246039
-0.242213
-0.241971
-0.241571
-0.240902
-0.240143
-0.239399
-0.238706
-0.238002
-0.237497
-0.237078
-0.236642
-0.236139
-0.23617
-0.236211
-0.236279
-0.236408
-0.236627
-0.236965
-0.237407
-0.237767
-0.238303
-0.239138
-0.240254
-0.241418
-0.242373
-0.242549
-0.240821
-0.235468
-0.224399
-0.20733
0
0
-0.0287691
-0.0682723
-0.0989934
-0.124797
-0.147248
-0.167547
-0.186246
-0.203597
-0.219664
-0.234396
-0.247483
-0.258759
-0.267847
-0.274247
-0.276888
-0.279742
-0.280415
-0.279145
-0.27645
-0.273593
-0.270651
-0.267594
-0.264434
-0.261193
-0.257867
-0.254426
-0.250871
-0.247269
-0.242714
-0.241157
-0.239853
-0.239403
-0.239097
-0.238695
-0.238187
-0.237628
-0.237098
-0.236538
-0.236126
-0.235729
-0.235125
-0.226732
-0.234674
-0.235015
-0.235202
-0.235399
-0.235666
-0.236075
-0.236668
-0.236948
-0.23751
-0.238403
-0.239527
-0.240685
-0.241679
-0.241934
-0.240307
-0.235053
-0.224055
-0.206962
0
0
-0.0287342
-0.0681762
-0.0988665
-0.126529
-0.147062
-0.167272
-0.185959
-0.203339
-0.21945
-0.234152
-0.247379
-0.258694
-0.267713
-0.27409
-0.277723
-0.279712
-0.279865
-0.27823
-0.274911
-0.272376
-0.269716
-0.266745
-0.26354
-0.260146
-0.256501
-0.252393
-0.247362
-0.240241
-0.224621
-0.2303
-0.234129
-0.235905
-0.236587
-0.236683
-0.236437
-0.236035
-0.237638
-0.235012
-0.234601
-0.234258
-0.233832
-0.23327
-0.233604
-0.233925
-0.2342
-0.234459
-0.234739
-0.235127
-0.23586
-0.235988
-0.236687
-0.237773
-0.239108
-0.240196
-0.241186
-0.241481
-0.239435
-0.234759
-0.223792
-0.206585
0
0
-0.0287048
-0.0680917
-0.0986932
-0.12439
-0.146752
-0.167004
-0.185709
-0.203117
-0.219271
-0.234065
-0.247298
-0.258603
-0.267615
-0.274098
-0.278089
-0.279901
-0.279816
-0.278028
-0.27406
-0.272338
-0.269721
-0.266533
-0.263077
-0.25941
-0.255363
-0.250403
-0.242805
-0.224864
0.0879603
-0.208487
-0.225999
-0.232048
-0.234301
-0.235
-0.234931
-0.234448
-0.233785
-0.232901
-0.232221
-0.232025
-0.232043
-0.232175
-0.232495
-0.232876
-0.233253
-0.233571
-0.233808
-0.233856
-0.23355
-0.234577
-0.235824
-0.237327
-0.243851
-0.240015
-0.240953
-0.241208
-0.239712
-0.234588
-0.223629
-0.206215
0
0
-0.0286832
-0.0680442
-0.0985641
-0.124126
-0.146496
-0.166769
-0.185502
-0.202934
-0.219118
-0.23396
-0.247231
-0.258544
-0.267549
-0.274049
-0.27808
-0.279889
-0.279935
-0.279073
-0.279223
-0.274994
-0.270727
-0.266734
-0.262876
-0.258964
-0.254714
-0.249587
-0.24241
-0.230667
-0.211797
-0.220746
-0.228014
-0.231956
-0.23372
-0.234192
-0.233846
-0.232898
-0.231401
-0.229269
-0.22661
-0.227391
-0.228794
-0.230001
-0.230948
-0.231705
-0.232326
-0.232772
-0.233095
-0.233068
-0.233371
-0.233893
-0.235217
-0.23681
-0.238563
-0.239844
-0.241213
-0.241132
-0.239569
-0.234498
-0.223556
-0.205801
0
0
-0.0286559
-0.0680291
-0.0984251
-0.123903
-0.146263
-0.166602
-0.185383
-0.202818
-0.219003
-0.233876
-0.247224
-0.25854
-0.267481
-0.273889
-0.27784
-0.279616
-0.279667
-0.278603
-0.276966
-0.273818
-0.27012
-0.266326
-0.262538
-0.258689
-0.254615
-0.250074
-0.244771
-0.238323
-0.232784
-0.232487
-0.233577
-0.234427
-0.234649
-0.234235
-0.233187
-0.231367
-0.228212
-0.221939
-0.208406
-0.216961
-0.223303
-0.226964
-0.229114
-0.230482
-0.231452
-0.232086
-0.232592
-0.23298
-0.233222
-0.233361
-0.234894
-0.23647
-0.238056
-0.239969
-0.25449
-0.241337
-0.23954
-0.23443
-0.223486
-0.20528
0
0
-0.0285587
-0.0675664
-0.0980133
-0.123539
-0.146009
-0.168839
-0.185469
-0.202788
-0.21891
-0.233812
-0.247322
-0.258573
-0.267339
-0.273542
-0.27734
-0.279057
-0.279029
-0.277649
-0.2754
-0.272489
-0.269195
-0.265728
-0.262187
-0.258582
-0.254879
-0.251089
-0.247375
-0.242854
-0.239524
-0.238271
-0.237589
-0.236866
-0.235921
-0.234658
-0.232851
-0.230032
-0.224505
-0.208524
0.0878837
-0.197552
-0.216844
-0.224191
-0.227622
-0.229493
-0.230613
-0.231534
-0.232274
-0.232928
-0.233431
-0.233299
-0.235174
-0.236503
-0.23783
-0.23946
-0.241246
-0.240703
-0.239373
-0.234167
-0.223245
-0.203437
0
0
-0.0285412
-0.0675801
-0.0979326
-0.123338
-0.145827
-0.166576
-0.185324
-0.202598
-0.218678
-0.233643
-0.24751
-0.258489
-0.266951
-0.272863
-0.276508
-0.278261
-0.278251
-0.276708
-0.274456
-0.271714
-0.268641
-0.265387
-0.262049
-0.258665
-0.255251
-0.251868
-0.248643
-0.245529
-0.242178
-0.241343
-0.240107
-0.238591
-0.236942
-0.235148
-0.232882
-0.229772
-0.224649
-0.215138
-0.198582
-0.209749
-0.219223
-0.224465
-0.227437
-0.229216
-0.230386
-0.23132
-0.232173
-0.23315
-0.234638
-0.237172
-0.2366
-0.236805
-0.237605
-0.238742
-0.239821
-0.240056
-0.23869
-0.233544
-0.222409
-0.204141
0
0
-0.028546
-0.0676182
-0.0979174
-0.123148
-0.145699
-0.166737
-0.185048
-0.202127
-0.218131
-0.233079
-0.247371
-0.257715
-0.266044
-0.271732
-0.275352
-0.277436
-0.277641
-0.275984
-0.274042
-0.271536
-0.268591
-0.265428
-0.26219
-0.258911
-0.255578
-0.252153
-0.248612
-0.247321
-0.247584
-0.244692
-0.24202
-0.239678
-0.237542
-0.235494
-0.233272
-0.23063
-0.227309
-0.223425
-0.220319
-0.221711
-0.224436
-0.226732
-0.22843
-0.229607
-0.230505
-0.231328
-0.232136
-0.233068
-0.234264
-0.235603
-0.236093
-0.236571
-0.237282
-0.238252
-0.239262
-0.239646
-0.238242
-0.233166
-0.222146
-0.204522
0
0
-0.0285552
-0.06766
-0.0980249
-0.123655
-0.14563
-0.164755
-0.183582
-0.201095
-0.217202
-0.231589
-0.243028
-0.255118
-0.264734
-0.270364
-0.274296
-0.277129
-0.277745
-0.275993
-0.274554
-0.27207
-0.269023
-0.265796
-0.262561
-0.259276
-0.255815
-0.251625
-0.214877
-0.246401
-0.246181
-0.244387
-0.242099
-0.239748
-0.237487
-0.235408
-0.233489
-0.231572
-0.229711
-0.228221
-0.227577
-0.227638
-0.228214
-0.229019
-0.229904
-0.230347
-0.230817
-0.231467
-0.232112
-0.232832
-0.233683
-0.234596
-0.235412
-0.236149
-0.236903
-0.237874
-0.239016
-0.239454
-0.23809
-0.233078
-0.222111
-0.204802
0
0
-0.0285605
-0.0676778
-0.0980301
-0.123481
-0.145562
-0.165273
-0.183743
-0.200951
-0.216818
-0.231153
-0.243967
-0.255654
-0.265397
-0.269491
-0.27527
-0.278364
-0.279293
-0.279596
-0.276635
-0.273176
-0.269677
-0.266287
-0.26306
-0.259757
-0.256289
-0.252466
-0.24797
-0.246911
-0.245672
-0.243861
-0.241654
-0.239193
-0.236572
-0.233982
-0.232634
-0.231549
-0.230761
-0.230239
-0.230048
-0.230032
-0.230204
-0.230678
-0.237459
-0.231188
-0.231119
-0.23169
-0.232123
-0.23263
-0.233303
-0.234156
-0.235044
-0.23586
-0.236535
-0.237471
-0.238889
-0.239362
-0.238079
-0.233153
-0.222107
-0.204883
0
0
-0.0285656
-0.0676944
-0.0980423
-0.123451
-0.145641
-0.165678
-0.184191
-0.201133
-0.216601
-0.230292
-0.244193
-0.256327
-0.266812
-0.276621
-0.279521
-0.280585
-0.280376
-0.279164
-0.276579
-0.273335
-0.269912
-0.266608
-0.263582
-0.26027
-0.256863
-0.253542
-0.250523
-0.248193
-0.246108
-0.243846
-0.241296
-0.238234
-0.234101
-0.227709
-0.22914
-0.229557
-0.230334
-0.230707
-0.230865
-0.23097
-0.231125
-0.231414
-0.231812
-0.231462
-0.231178
-0.231943
-0.232132
-0.232462
-0.233048
-0.233985
-0.234953
-0.235728
-0.23618
-0.23696
-0.238803
-0.239208
-0.238044
-0.233326
-0.222037
-0.20476
0
0
-0.0285746
-0.0677243
-0.0980908
-0.12353
-0.145838
-0.166141
-0.185138
-0.201564
-0.216062
-0.199478
-0.243143
-0.25617
-0.266524
-0.274477
-0.278778
-0.280459
-0.280179
-0.278755
-0.276278
-0.273199
-0.269899
-0.266742
-0.264095
-0.260594
-0.25715
-0.254046
-0.251307
-0.248805
-0.24656
-0.244028
-0.24114
-0.237119
-0.229152
-0.0948585
-0.221394
-0.204939
-0.228943
-0.230569
-0.231161
-0.231409
-0.231595
-0.231786
-0.231778
-0.231587
-0.231461
-0.231751
-0.231947
-0.232222
-0.232744
-0.233908
-0.235328
-0.23526
-0.235809
-0.236797
-0.238154
-0.238691
-0.237727
-0.2335
-0.221774
-0.204424
0
0
-0.0285884
-0.0677692
-0.098168
-0.123659
-0.1461
-0.166861
-0.203597
-0.202893
-0.217243
-0.229795
-0.243981
-0.256255
-0.266101
-0.273313
-0.277782
-0.279715
-0.268989
-0.278271
-0.276069
-0.273073
-0.269778
-0.266569
-0.264208
-0.260219
-0.256881
-0.254043
-0.251501
-0.249182
-0.246782
-0.244366
-0.241773
-0.237727
-0.231744
-0.222428
-0.225742
-0.227499
-0.229848
-0.23107
-0.231578
-0.231788
-0.231965
-0.232185
-0.231977
-0.2317
-0.23156
-0.231608
-0.231735
-0.231915
-0.232206
-0.233368
-0.235159
-0.234383
-0.235299
-0.236435
-0.237483
-0.237816
-0.236636
-0.233007
-0.220949
-0.203916
0
0
-0.0286069
-0.0678274
-0.0982592
-0.123775
-0.146219
-0.166808
-0.186396
-0.20322
-0.218488
-0.232441
-0.245432
-0.256797
-0.266064
-0.272926
-0.277319
-0.279379
-0.279354
-0.278271
-0.27602
-0.273018
-0.26957
-0.265683
-0.260515
-0.258375
-0.256188
-0.253918
-0.251568
-0.249066
-0.24698
-0.245113
-0.254217
-0.239866
-0.236099
-0.233054
-0.232218
-0.232068
-0.232233
-0.232323
-0.23229
-0.232223
-0.232289
-0.232624
-0.232099
-0.231675
-0.231503
-0.231503
-0.23159
-0.231689
-0.231695
-0.231377
-0.22987
-0.233254
-0.234804
-0.236016
-0.23689
-0.236731
-0.234025
-0.226778
-0.218863
-0.20342
0
0
-0.0286327
-0.0679053
-0.0983706
-0.123886
-0.146273
-0.166653
-0.185633
-0.203445
-0.219054
-0.233161
-0.245878
-0.256929
-0.265962
-0.272709
-0.277074
-0.279203
-0.279509
-0.278369
-0.276124
-0.273121
-0.269643
-0.265713
-0.262089
-0.259347
-0.256742
-0.25441
-0.252083
-0.249746
-0.24758
-0.245634
-0.244018
-0.241269
-0.238826
-0.237009
-0.235696
-0.234766
-0.234063
-0.233487
-0.232987
-0.232563
-0.232324
-0.23272
-0.231758
-0.231398
-0.231351
-0.231425
-0.231544
-0.231662
-0.231725
-0.23169
-0.231756
-0.233182
-0.234544
-0.235752
-0.236649
-0.236638
-0.234577
-0.229012
-0.219251
-0.203367
0
0
-0.0286741
-0.0680274
-0.0985365
-0.124033
-0.146348
-0.166578
-0.185381
-0.203703
-0.218757
-0.232767
-0.245524
-0.256625
-0.265699
-0.272491
-0.276893
-0.279044
-0.279572
-0.278585
-0.276433
-0.273456
-0.269985
-0.266541
-0.263253
-0.260288
-0.257452
-0.25521
-0.252833
-0.250457
-0.248192
-0.246069
-0.244045
-0.242008
-0.240168
-0.238625
-0.237306
-0.236171
-0.23518
-0.234302
-0.233502
-0.232698
-0.231644
-0.229809
-0.230478
-0.23095
-0.231225
-0.231429
-0.231616
-0.231806
-0.232018
-0.232303
-0.232791
-0.233591
-0.234615
-0.235728
-0.236706
-0.236999
-0.23596
-0.230347
-0.219888
-0.203546
0
0
-0.0287528
-0.0682572
-0.0988352
-0.124267
-0.146493
-0.16652
-0.184628
-0.199999
-0.216474
-0.231582
-0.244897
-0.256265
-0.265476
-0.272386
-0.27697
-0.278901
-0.279835
-0.279045
-0.277013
-0.274036
-0.270487
-0.267245
-0.264138
-0.261105
-0.258077
-0.256141
-0.25361
-0.251103
-0.248746
-0.246552
-0.24451
-0.242645
-0.240982
-0.239517
-0.238204
-0.237005
-0.2359
-0.234878
-0.233922
-0.232993
-0.232039
-0.231147
-0.231046
-0.231188
-0.23138
-0.231586
-0.231797
-0.232033
-0.232323
-0.232695
-0.233199
-0.233866
-0.234748
-0.235801
-0.236826
-0.237234
-0.235849
-0.230799
-0.220247
-0.203759
0
0
-0.0289218
-0.0687704
-0.0994232
-0.124658
-0.146824
-0.166797
-0.184955
-0.201435
-0.217271
-0.23195
-0.245057
-0.256305
-0.265474
-0.272503
-0.284029
-0.278766
-0.280466
-0.279783
-0.277844
-0.274851
-0.2712
-0.268217
-0.265113
-0.262074
-0.25926
-0.256741
-0.254119
-0.251571
-0.249191
-0.247001
-0.245004
-0.243207
-0.241612
-0.240194
-0.238883
-0.237638
-0.236455
-0.235342
-0.234305
-0.233354
-0.232539
-0.231972
-0.231689
-0.231613
-0.231683
-0.231843
-0.232033
-0.232264
-0.232562
-0.232915
-0.233368
-0.233986
-0.234819
-0.235843
-0.23689
-0.237339
-0.235901
-0.230924
-0.220455
-0.203965
0
0
-0.0292997
-0.0701898
-0.100365
-0.125472
-0.147496
-0.167406
-0.185658
-0.202533
-0.218236
-0.232619
-0.245443
-0.256463
-0.265465
-0.272302
-0.276884
-0.277767
-0.281471
-0.280725
-0.278569
-0.274994
-0.273347
-0.269677
-0.266162
-0.262985
-0.260288
-0.25733
-0.254488
-0.251887
-0.249526
-0.247383
-0.245444
-0.243708
-0.242179
-0.240827
-0.239515
-0.238209
-0.236942
-0.235748
-0.23464
-0.233644
-0.232843
-0.232362
-0.232076
-0.231937
-0.23195
-0.232071
-0.232199
-0.232384
-0.232665
-0.232975
-0.233381
-0.233979
-0.234802
-0.235819
-0.236909
-0.237473
-0.236013
-0.231001
-0.220606
-0.204197
0
0
-0.029972
-0.0956218
-0.102308
-0.126501
-0.148242
-0.168059
-0.186313
-0.203221
-0.218826
-0.233023
-0.245633
-0.256462
-0.265311
-0.272015
-0.276604
-0.278968
-0.280936
-0.280645
-0.278839
-0.2762
-0.273257
-0.26994
-0.266603
-0.263454
-0.260859
-0.25753
-0.254642
-0.252102
-0.249813
-0.247744
-0.245866
-0.244193
-0.242747
-0.241504
-0.240162
-0.23875
-0.23738
-0.236105
-0.234921
-0.233822
-0.232945
-0.232567
-0.232302
-0.232097
-0.23203
-0.232073
-0.23206
-0.232158
-0.232442
-0.232733
-0.233151
-0.23381
-0.234697
-0.23574
-0.236918
-0.237699
-0.236239
-0.231234
-0.220711
-0.20448
0
0
-0.0294868
-0.0707734
-0.101103
-0.126336
-0.148394
-0.168401
-0.18671
-0.203584
-0.21909
-0.233122
-0.245561
-0.256249
-0.265011
-0.271697
-0.276776
-0.279759
-0.281033
-0.280665
-0.279001
-0.276476
-0.273466
-0.270262
-0.266974
-0.263533
-0.259484
-0.257006
-0.254651
-0.252336
-0.250107
-0.248122
-0.246308
-0.244685
-0.243335
-0.242277
-0.240804
-0.239218
-0.237743
-0.236423
-0.235221
-0.233907
-0.232843
-0.232741
-0.232434
-0.232001
-0.231664
-0.231452
-0.231144
-0.231107
-0.231454
-0.231841
-0.232464
-0.233392
-0.234514