# vtk DataFile Version 2.0
FlowField
ASCII
DATASET STRUCTURED_GRID
DIMENSIONS 62 47 32 
POINTS 93248 double
0 0 0
0.01 0 0
0.02 0 0
0.03 0 0
0.04 0 0
0.05 0 0
0.06 0 0
0.07 0 0
0.08 0 0
0.09 0 0
0.1 0 0
0.11 0 0
0.12 0 0
0.13 0 0
0.14 0 0
0.15 0 0
0.16 0 0
0.17 0 0
0.18 0 0
0.19 0 0
0.2 0 0
0.21 0 0
0.22 0 0
0.23 0 0
0.24 0 0
0.25 0 0
0.26 0 0
0.27 0 0
0.28 0 0
0.29 0 0
0.3 0 0
0.31 0 0
0.32 0 0
0.33 0 0
0.34 0 0
0.35 0 0
0.36 0 0
0.37 0 0
0.38 0 0
0.39 0 0
0.4 0 0
0.41 0 0
0.42 0 0
0.43 0 0
0.44 0 0
0.45 0 0
0.46 0 0
0.47 0 0
0.48 0 0
0.49 0 0
0.5 0 0
0.51 0 0
0.52 0 0
0.53 0 0
0.54 0 0
0.55 0 0
0.56 0 0
0.57 0 0
0.58 0 0
0.59 0 0
0.6 0 0
0.61 0 0
0 0.01 0
0.01 0.01 0
0.02 0.01 0
0.03 0.01 0
0.04 0.01 0
0.05 0.01 0
0.06 0.01 0
0.07 0.01 0
0.08 0.01 0
0.09 0.01 0
0.1 0.01 0
0.11 0.01 0
0.12 0.01 0
0.13 0.01 0
0.14 0.01 0
0.15 0.01 0
0.16 0.01 0
0.17 0.01 0
0.18 0.01 0
0.19 0.01 0
0.2 0.01 0
0.21 0.01 0
0.22 0.01 0
0.23 0.01 0
0.24 0.01 0
0.25 0.01 0
0.26 0.01 0
0.27 0.01 0
0.28 0.01 0
0.29 0.01 0
0.3 0.01 0
0.31 0.01 0
0.32 0.01 0
0.33 0.01 0
0.34 0.01 0
0.35 0.01 0
0.36 0.01 0
0.37 0.01 0
0.38 0.01 0
0.39 0.01 0
0.4 0.01 0
0.41 0.01 0
0.42 0.01 0
0.43 0.01 0
0.44 0.01 0
0.45 0.01 0
0.46 0.01 0
0.47 0.01 0
0.48 0.01 0
0.49 0.01 0
0.5 0.01 0
0.51 0.01 0
0.52 0.01 0
0.53 0.01 0
0.54 0.01 0
0.55 0.01 0
0.56 0.01 0
0.57 0.01 0
0.58 0.01 0
0.59 0.01 0
0.6 0.01 0
0.61 0.01 0
0 0.02 0
0.01 0.02 0
0.02 0.02 0
0.03 0.02 0
0.04 0.02 0
0.05 0.02 0
0.06 0.02 0
0.07 0.02 0
0.08 0.02 0
0.09 0.02 0
0.1 0.02 0
0.11 0.02 0
0.12 0.02 0
0.13 0.02 0
0.14 0.02 0
0.15 0.02 0
0.16 0.02 0
0.17 0.02 0
0.18 0.02 0
0.19 0.02 0
0.2 0.02 0
0.21 0.02 0
0.22 0.02 0
0.23 0.02 0
0.24 0.02 0
0.25 0.02 0
0.26 0.02 0
0.27 0.02 0
0.28 0.02 0
0.29 0.02 0
0.3 0.02 0
0.31 0.02 0
0.32 0.02 0
0.33 0.02 0
0.34 0.02 0
0.35 0.02 0
0.36 0.02 0
0.37 0.02 0
0.38 0.02 0
0.39 0.02 0
0.4 0.02 0
0.41 0.02 0
0.42 0.02 0
0.43 0.02 0
0.44 0.02 0
0.45 0.02 0
0.46 0.02 0
0.47 0.02 0
0.48 0.02 0
0.49 0.02 0
0.5 0.02 0
0.51 0.02 0
0.52 0.02 0
0.53 0.02 0
0.54 0.02 0
0.55 0.02 0
0.56 0.02 0
0.57 0.02 0
0.58 0.02 0
0.59 0.02 0
0.6 0.02 0
0.61 0.02 0
0 0.03 0
0.01 0.03 0
0.02 0.03 0
0.03 0.03 0
0.04 0.03 0
0.05 0.03 0
0.06 0.03 0
0.07 0.03 0
0.08 0.03 0
0.09 0.03 0
0.1 0.03 0
0.11 0.03 0
0.12 0.03 0
0.13 0.03 0
0.14 0.03 0
0.15 0.03 0
0.16 0.03 0
0.17 0.03 0
0.18 0.03 0
0.19 0.03 0
0.2 0.03 0
0.21 0.03 0
0.22 0.03 0
0.23 0.03 0
0.24 0.03 0
0.25 0.03 0
0.26 0.03 0
0.27 0.03 0
0.28 0.03 0
0.29 0.03 0
0.3 0.03 0
0.31 0.03 0
0.32 0.03 0
0.33 0.03 0
0.34 0.03 0
0.35 0.03 0
0.36 0.03 0
0.37 0.03 0
0.38 0.03 0
0.39 0.03 0
0.4 0.03 0
0.41 0.03 0
0.42 0.03 0
0.43 0.03 0
0.44 0.03 0
0.45 0.03 0
0.46 0.03 0
0.47 0.03 0
0.48 0.03 0
0.49 0.03 0
0.5 0.03 0
0.51 0.03 0
0.52 0.03 0
0.53 0.03 0
0.54 0.03 0
0.55 0.03 0
0.56 0.03 0
0.57 0.03 0
0.58 0.03 0
0.59 0.03 0
0.6 0.03 0
0.61 0.03 0
0 0.04 0
0.01 0.04 0
0.02 0.04 0
0.03 0.04 0
0.04 0.04 0
0.05 0.04 0
0.06 0.04 0
0.07 0.04 0
0.08 0.04 0
0.09 0.04 0
0.1 0.04 0
0.11 0.04 0
0.12 0.04 0
0.13 0.04 0
0.14 0.04 0
0.15 0.04 0
0.16 0.04 0
0.17 0.04 0
0.18 0.04 0
0.19 0.04 0
0.2 0.04 0
0.21 0.04 0
0.22 0.04 0
0.23 0.04 0
0.24 0.04 0
0.25 0.04 0
0.26 0.04 0
0.27 0.04 0
0.28 0.04 0
0.29 0.04 0
0.3 0.04 0
0.31 0.04 0
0.32 0.04 0
0.33 0.04 0
0.34 0.04 0
0.35 0.04 0
0.36 0.04 0
0.37 0.04 0
0.38 0.04 0
0.39 0.04 0
0.4 0.04 0
0.41 0.04 0
0.42 0.04 0
0.43 0.04 0
0.44 0.04 0
0.45 0.04 0
0.46 0.04 0
0.47 0.04 0
0.48 0.04 0
0.49 0.04 0
0.5 0.04 0
0.51 0.04 0
0.52 0.04 0
0.53 0.04 0
0.54 0.04 0
0.55 0.04 0
0.56 0.04 0
0.57 0.04 0
0.58 0.04 0
0.59 0.04 0
0.6 0.04 0
0.61 0.04 0
0 0.05 0
0.01 0.05 0
0.02 0.05 0
0.03 0.05 0
0.04 0.05 0
0.05 0.05 0
0.06 0.05 0
0.07 0.05 0
0.08 0.05 0
0.09 0.05 0
0.1 0.05 0
0.11 0.05 0
0.12 0.05 0
0.13 0.05 0
0.14 0.05 0
0.15 0.05 0
0.16 0.05 0
0.17 0.05 0
0.18 0.05 0
0.19 0.05 0
0.2 0.05 0
0.21 0.05 0
0.22 0.05 0
0.23 0.05 0
0.24 0.05 0
0.25 0.05 0
0.26 0.05 0
0.27 0.05 0
0.28 0.05 0
0.29 0.05 0
0.3 0.05 0
0.31 0.05 0
0.32 0.05 0
0.33 0.05 0
0.34 0.05 0
0.35 0.05 0
0.36 0.05 0
0.37 0.05 0
0.38 0.05 0
0.39 0.05 0
0.4 0.05 0
0.41 0.05 0
0.42 0.05 0
0.43 0.05 0
0.44 0.05 0
0.45 0.05 0
0.46 0.05 0
0.47 0.05 0
0.48 0.05 0
0.49 0.05 0
0.5 0.05 0
0.51 0.05 0
0.52 0.05 0
0.53 0.05 0
0.54 0.05 0
0.55 0.05 0
0.56 0.05 0
0.57 0.05 0
0.58 0.05 0
0.59 0.05 0
0.6 0.05 0
0.61 0.05 0
0 0.06 0
0.01 0.06 0
0.02 0.06 0
0.03 0.06 0
0.04 0.06 0
0.05 0.06 0
0.06 0.06 0
0.07 0.06 0
0.08 0.06 0
0.09 0.06 0
0.1 0.06 0
0.11 0.06 0
0.12 0.06 0
0.13 0.06 0
0.14 0.06 0
0.15 0.06 0
0.16 0.06 0
0.17 0.06 0
0.18 0.06 0
0.19 0.06 0
0.2 0.06 0
0.21 0.06 0
0.22 0.06 0
0.23 0.06 0
0.24 0.06 0
0.25 0.06 0
0.26 0.06 0
0.27 0.06 0
0.28 0.06 0
0.29 0.06 0
0.3 0.06 0
0.31 0.06 0
0.32 0.06 0
0.33 0.06 0
0.34 0.06 0
0.35 0.06 0
0.36 0.06 0
0.37 0.06 0
0.38 0.06 0
0.39 0.06 0
0.4 0.06 0
0.41 0.06 0
0.42 0.06 0
0.43 0.06 0
0.44 0.06 0
0.45 0.06 0
0.46 0.06 0
0.47 0.06 0
0.48 0.06 0
0.49 0.06 0
0.5 0.06 0
0.51 0.06 0
0.52 0.06 0
0.53 0.06 0
0.54 0.06 0
0.55 0.06 0
0.56 0.06 0
0.57 0.06 0
0.58 0.06 0
0.59 0.06 0
0.6 0.06 0
0.61 0.06 0
0 0.07 0
0.01 0.07 0
0.02 0.07 0
0.03 0.07 0
0.04 0.07 0
0.05 0.07 0
0.06 0.07 0
0.07 0.07 0
0.08 0.07 0
0.09 0.07 0
0.1 0.07 0
0.11 0.07 0
0.12 0.07 0
0.13 0.07 0
0.14 0.07 0
0.15 0.07 0
0.16 0.07 0
0.17 0.07 0
0.18 0.07 0
0.19 0.07 0
0.2 0.07 0
0.21 0.07 0
0.22 0.07 0
0.23 0.07 0
0.24 0.07 0
0.25 0.07 0
0.26 0.07 0
0.27 0.07 0
0.28 0.07 0
0.29 0.07 0
0.3 0.07 0
0.31 0.07 0
0.32 0.07 0
0.33 0.07 0
0.34 0.07 0
0.35 0.07 0
0.36 0.07 0
0.37 0.07 0
0.38 0.07 0
0.39 0.07 0
0.4 0.07 0
0.41 0.07 0
0.42 0.07 0
0.43 0.07 0
0.44 0.07 0
0.45 0.07 0
0.46 0.07 0
0.47 0.07 0
0.48 0.07 0
0.49 0.07 0
0.5 0.07 0
0.51 0.07 0
0.52 0.07 0
0.53 0.07 0
0.54 0.07 0
0.55 0.07 0
0.56 0.07 0
0.57 0.07 0
0.58 0.07 0
0.59 0.07 0
0.6 0.07 0
0.61 0.07 0
0 0.08 0
0.01 0.08 0
0.02 0.08 0
0.03 0.08 0
0.04 0.08 0
0.05 0.08 0
0.06 0.08 0
0.07 0.08 0
0.08 0.08 0
0.09 0.08 0
0.1 0.08 0
0.11 0.08 0
0.12 0.08 0
0.13 0.08 0
0.14 0.08 0
0.15 0.08 0
0.16 0.08 0
0.17 0.08 0
0.18 0.08 0
0.19 0.08 0
0.2 0.08 0
0.21 0.08 0
0.22 0.08 0
0.23 0.08 0
0.24 0.08 0
0.25 0.08 0
0.26 0.08 0
0.27 0.08 0
0.28 0.08 0
0.29 0.08 0
0.3 0.08 0
0.31 0.08 0
0.32 0.08 0
0.33 0.08 0
0.34 0.08 0
0.35 0.08 0
0.36 0.08 0
0.37 0.08 0
0.38 0.08 0
0.39 0.08 0
0.4 0.08 0
0.41 0.08 0
0.42 0.08 0
0.43 0.08 0
0.44 0.08 0
0.45 0.08 0
0.46 0.08 0
0.47 0.08 0
0.48 0.08 0
0.49 0.08 0
0.5 0.08 0
0.51 0.08 0
0.52 0.08 0
0.53 0.08 0
0.54 0.08 0
0.55 0.08 0
0.56 0.08 0
0.57 0.08 0
0.58 0.08 0
0.59 0.08 0
0.6 0.08 0
0.61 0.08 0
0 0.09 0
0.01 0.09 0
0.02 0.09 0
0.03 0.09 0
0.04 0.09 0
0.05 0.09 0
0.06 0.09 0
0.07 0.09 0
0.08 0.09 0
0.09 0.09 0
0.1 0.09 0
0.11 0.09 0
0.12 0.09 0
0.13 0.09 0
0.14 0.09 0
0.15 0.09 0
0.16 0.09 0
0.17 0.09 0
0.18 0.09 0
0.19 0.09 0
0.2 0.09 0
0.21 0.09 0
0.22 0.09 0
0.23 0.09 0
0.24 0.09 0
0.25 0.09 0
0.26 0.09 0
0.27 0.09 0
0.28 0.09 0
0.29 0.09 0
0.3 0.09 0
0.31 0.09 0
0.32 0.09 0
0.33 0.09 0
0.34 0.09 0
0.35 0.09 0
0.36 0.09 0
0.37 0.09 0
0.38 0.09 0
0.39 0.09 0
0.4 0.09 0
0.41 0.09 0
0.42 0.09 0
0.43 0.09 0
0.44 0.09 0
0.45 0.09 0
0.46 0.09 0
0.47 0.09 0
0.48 0.09 0
0.49 0.09 0
0.5 0.09 0
0.51 0.09 0
0.52 0.09 0
0.53 0.09 0
0.54 0.09 0
0.55 0.09 0
0.56 0.09 0
0.57 0.09 0
0.58 0.09 0
0.59 0.09 0
0.6 0.09 0
0.61 0.09 0
0 0.1 0
0.01 0.1 0
0.02 0.1 0
0.03 0.1 0
0.04 0.1 0
0.05 0.1 0
0.06 0.1 0
0.07 0.1 0
0.08 0.1 0
0.09 0.1 0
0.1 0.1 0
0.11 0.1 0
0.12 0.1 0
0.13 0.1 0
0.14 0.1 0
0.15 0.1 0
0.16 0.1 0
0.17 0.1 0
0.18 0.1 0
0.19 0.1 0
0.2 0.1 0
0.21 0.1 0
0.22 0.1 0
0.23 0.1 0
0.24 0.1 0
0.25 0.1 0
0.26 0.1 0
0.27 0.1 0
0.28 0.1 0
0.29 0.1 0
0.3 0.1 0
0.31 0.1 0
0.32 0.1 0
0.33 0.1 0
0.34 0.1 0
0.35 0.1 0
0.36 0.1 0
0.37 0.1 0
0.38 0.1 0
0.39 0.1 0
0.4 0.1 0
0.41 0.1 0
0.42 0.1 0
0.43 0.1 0
0.44 0.1 0
0.45 0.1 0
0.46 0.1 0
0.47 0.1 0
0.48 0.1 0
0.49 0.1 0
0.5 0.1 0
0.51 0.1 0
0.52 0.1 0
0.53 0.1 0
0.54 0.1 0
0.55 0.1 0
0.56 0.1 0
0.57 0.1 0
0.58 0.1 0
0.59 0.1 0
0.6 0.1 0
0.61 0.1 0
0 0.11 0
0.01 0.11 0
0.02 0.11 0
0.03 0.11 0
0.04 0.11 0
0.05 0.11 0
0.06 0.11 0
0.07 0.11 0
0.08 0.11 0
0.09 0.11 0
0.1 0.11 0
0.11 0.11 0
0.12 0.11 0
0.13 0.11 0
0.14 0.11 0
0.15 0.11 0
0.16 0.11 0
0.17 0.11 0
0.18 0.11 0
0.19 0.11 0
0.2 0.11 0
0.21 0.11 0
0.22 0.11 0
0.23 0.11 0
0.24 0.11 0
0.25 0.11 0
0.26 0.11 0
0.27 0.11 0
0.28 0.11 0
0.29 0.11 0
0.3 0.11 0
0.31 0.11 0
0.32 0.11 0
0.33 0.11 0
0.34 0.11 0
0.35 0.11 0
0.36 0.11 0
0.37 0.11 0
0.38 0.11 0
0.39 0.11 0
0.4 0.11 0
0.41 0.11 0
0.42 0.11 0
0.43 0.11 0
0.44 0.11 0
0.45 0.11 0
0.46 0.11 0
0.47 0.11 0
0.48 0.11 0
0.49 0.11 0
0.5 0.11 0
0.51 0.11 0
0.52 0.11 0
0.53 0.11 0
0.54 0.11 0
0.55 0.11 0
0.56 0.11 0
0.57 0.11 0
0.58 0.11 0
0.59 0.11 0
0.6 0.11 0
0.61 0.11 0
0 0.12 0
0.01 0.12 0
0.02 0.12 0
0.03 0.12 0
0.04 0.12 0
0.05 0.12 0
0.06 0.12 0
0.07 0.12 0
0.08 0.12 0
0.09 0.12 0
0.1 0.12 0
0.11 0.12 0
0.12 0.12 0
0.13 0.12 0
0.14 0.12 0
0.15 0.12 0
0.16 0.12 0
0.17 0.12 0
0.18 0.12 0
0.19 0.12 0
0.2 0.12 0
0.21 0.12 0
0.22 0.12 0
0.23 0.12 0
0.24 0.12 0
0.25 0.12 0
0.26 0.12 0
0.27 0.12 0
0.28 0.12 0
0.29 0.12 0
0.3 0.12 0
0.31 0.12 0
0.32 0.12 0
0.33 0.12 0
0.34 0.12 0
0.35 0.12 0
0.36 0.12 0
0.37 0.12 0
0.38 0.12 0
0.39 0.12 0
0.4 0.12 0
0.41 0.12 0
0.42 0.12 0
0.43 0.12 0
0.44 0.12 0
0.45 0.12 0
0.46 0.12 0
0.47 0.12 0
0.48 0.12 0
0.49 0.12 0
0.5 0.12 0
0.51 0.12 0
0.52 0.12 0
0.53 0.12 0
0.54 0.12 0
0.55 0.12 0
0.56 0.12 0
0.57 0.12 0
0.58 0.12 0
0.59 0.12 0
0.6 0.12 0
0.61 0.12 0
0 0.13 0
0.01 0.13 0
0.02 0.13 0
0.03 0.13 0
0.04 0.13 0
0.05 0.13 0
0.06 0.13 0
0.07 0.13 0
0.08 0.13 0
0.09 0.13 0
0.1 0.13 0
0.11 0.13 0
0.12 0.13 0
0.13 0.13 0
0.14 0.13 0
0.15 0.13 0
0.16 0.13 0
0.17 0.13 0
0.18 0.13 0
0.19 0.13 0
0.2 0.13 0
0.21 0.13 0
0.22 0.13 0
0.23 0.13 0
0.24 0.13 0
0.25 0.13 0
0.26 0.13 0
0.27 0.13 0
0.28 0.13 0
0.29 0.13 0
0.3 0.13 0
0.31 0.13 0
0.32 0.13 0
0.33 0.13 0
0.34 0.13 0
0.35 0.13 0
0.36 0.13 0
0.37 0.13 0
0.38 0.13 0
0.39 0.13 0
0.4 0.13 0
0.41 0.13 0
0.42 0.13 0
0.43 0.13 0
0.44 0.13 0
0.45 0.13 0
0.46 0.13 0
0.47 0.13 0
0.48 0.13 0
[...]
POINT_DATA 93248

SCALARS u double
LOOKUP_TABLE default
0
0
0
0
0
0
0
0
0
0
0
0
0
0
0
0
0
0
0
0
0
0
0
0
0.299568
0
0
0
0
0
0
0
0.0482012
0.225277
0
0
0
0
0
0
0
0
0
0
0
0
0
0.0866662
0
0
0.0746387
0
0
0
0
0
0
0
0
0
0
0
0
0.417986
0.338794
0.264131
0.203477
0.158703
0.127771
0.108508
0.0978755
0.0922992
0.0891352
0.0869047
0.0857918
0.0842575
0.0825357
0.0806477
0.0788563
0.0768376
0.0745643
0.0711358
0.0717815
0.07048
0.0678712
0.0656118
0.0634814
0.0614349
0.0594315
0.0574382
0.0554312
0.0533876
0.0512824
0.0491515
0.0474853
0.045322
0.0427113
0.0402341
0.0383949
0.0360403
0.0348844
0.166614
0.0263659
0.0268965
0.0267413
0.0266104
0.0274369
0.0144857
0.0176875
0.0164497
0.0150379
0.0127651
0.0104364
0.0397922
0.00748644
0.00828666
-0.00427746
-0.00440908
0.0146072
-0.00693349
-0.0105911
-0.0166545
-0.0166545
0
0
0.492103
0.47659
0.451505
0.419234
0.387634
0.355956
0.328272
0.306301
0.290061
0.27795
0.268199
0.261431
0.254457
0.247917
0.241511
0.235677
0.229679
0.22507
0.34345
0.2165
0.208994
0.200451
0.194522
0.188571
0.182704
0.176896
0.171114
0.16533
0.159515
0.153618
0.147553
0.142396
0.136557
0.130123
0.123995
0.116419
0.107459
-0.0353059
0.0950766
0.0917519
0.0875141
0.083461
0.0795019
0.0747198
0.0657658
0.0590701
0.0543139
0.0490477
0.0434643
0.0380347
0.033065
0.0273739
0.0212969
0.011111
0.00500721
-0.00188561
-0.00733152
-0.0148132
-0.0229043
-0.0229043
0
0
0.48629
0.487057
0.486793
0.478633
0.474965
0.457866
0.440756
0.422992
0.405672
0.402814
0.376825
0.363555
0.352859
0.343244
0.334636
0.326492
0.317305
0.309168
0.300337
0.291899
0.284444
0.276381
0.268491
0.260579
0.25266
0.244752
0.236856
0.228965
0.221085
0.21326
0.205596
0.196944
0.190115
0.217909
0.174487
0.165629
0.158126
0.153567
0.144506
0.135246
0.126754
0.139047
0.111816
0.104365
0.131255
0.0866726
0.0777642
0.0490477
0.0620796
0.055055
0.0477894
0.0397922
0.0311628
0.0215371
0.0130036
0.00457
-0.00504254
-0.0134266
-0.021705
-0.021705
0
0
0.479214
0.475754
0.482043
0.482423
0.483146
0.479152
0.471395
0.46008
0.446118
0.43137
0.417401
0.404009
0.392021
0.38107
0.371035
0.360971
0.352516
0.343178
0.341673
0.32402
0.315139
0.3064
0.29773
0.28905
0.280355
0.271654
0.262955
0.254259
0.245567
0.236886
0.228188
0.219182
0.210792
0.201925
0.193659
0.185463
0.178032
0.171751
0.162722
0.152694
0.142693
0.133066
0.124246
0.115395
0.105947
0.0964913
0.0877671
0.0794909
0.0708087
0.0623191
0.0537855
0.0449198
0.0356697
0.026138
0.0168302
0.00755626
-0.0020637
-0.0111226
-0.0199413
-0.0199413
0
0
0.47634
0.469147
0.468381
0.469304
0.471067
0.470981
0.467752
0.460792
0.450492
0.438366
0.42587
0.413629
0.402047
0.3911
0.381196
0.371259
0.361963
0.352526
0.342797
0.333321
0.324139
0.315123
0.306185
0.297273
0.288365
0.279459
0.270555
0.261651
0.252737
0.243792
0.23476
0.225599
0.217222
0.208391
0.199793
0.191459
0.183509
0.17572
0.166853
0.157211
0.147321
0.137534
0.128131
0.118909
0.109889
0.102297
0.0909765
0.0823828
0.0735137
0.0646267
0.0557102
0.0466447
0.0373447
0.0279097
0.0185198
0.00919857
-4.68106e-05
-0.00899496
-0.018197
-0.018197
0
0
0.475072
0.464742
0.459515
0.457578
0.457657
0.457699
0.456095
0.451803
0.444125
0.434358
0.423682
0.412845
0.402202
0.391865
0.382124
0.372981
0.363268
0.354144
0.344417
0.335042
0.325901
0.316881
0.307918
0.298979
0.290053
0.281132
0.27222
0.263307
0.254382
0.245413
0.236319
0.226898
0.2191
0.210177
0.201346
0.192785
0.184393
0.175942
0.167042
0.157714
0.148156
0.138552
0.129009
0.11938
0.109543
0.101778
0.0925873
0.0834326
0.0743433
0.0653319
0.0563743
0.0473628
0.0381098
0.0287558
0.0194566
0.0102954
0.0014813
-0.00609582
-0.0115922
-0.0115922
0
0
0.474422
0.462232
0.454282
0.449804
0.44806
0.46286
0.446596
0.44265
0.436467
0.428341
0.419136
0.40952
0.399783
0.389994
0.380311
0.371671
0.361896
0.352551
0.34345
0.33454
0.325704
0.316852
0.307971
0.299082
0.290196
0.281314
0.272448
0.26359
0.25473
0.245871
0.237129
0.228748
0.218638
0.209868
0.201332
0.192801
0.184237
0.175543
0.166614
0.157451
0.148132
0.139449
0.129289
0.119805
0.110426
0.101857
0.0928592
0.0837219
0.0746006
0.0655735
0.0566882
0.0478578
0.0385985
0.0292821
0.0200875
0.0109625
0.00165129
-0.00793462
-0.00776495
-0.00776495
0
0
0.474042
0.460737
0.451139
0.444893
0.441521
0.439765
0.438278
0.435053
0.42975
0.422694
0.414552
0.405981
0.396978
0.387444
0.376735
0.235677
0.356867
0.349392
0.341673
0.333483
0.325087
0.316435
0.307653
0.298819
0.288365
0.281157
0.272368
0.26359
0.254814
0.246
0.23722
0.228465
0.219088
0.210132
0.201402
0.192735
0.184026
0.175216
0.166269
0.157187
0.147995
0.138726
0.129431
0.120134
0.11093
0.101968
0.0929235
0.0837908
0.0746329
0.0655314
0.0566383
0.0481186
0.0387098
0.0294865
0.0205695
0.0119085
0.00343936
-0.0060054
-0.0121982
-0.0121982
0
0
0.473802
0.459799
0.449168
0.441784
0.437339
0.434823
0.432736
0.429494
0.424512
0.418021
0.410477
0.4033
0.39451
0.385696
0.376814
0.369148
0.359984
0.350819
0.341968
0.333237
0.324744
0.316023
0.307232
0.298432
0.2897
0.280926
0.272193
0.263518
0.254882
0.24615
0.237266
0.22833
0.219273
0.210326
0.201487
0.192697
0.183882
0.175006
0.166056
0.157023
0.147917
0.138753
0.129561
0.120367
0.111214
0.102125
0.0930102
0.0838266
0.0745473
0.0651497
0.0557092
0.0475784
0.0379268
0.0291593
0.0206818
0.0122639
0.0038129
-0.00499946
-0.013359
-0.013359
0
0
0.473644
0.459183
0.447864
0.439761
0.434591
0.431477
0.428905
0.425438
0.420499
0.414288
0.407249
0.399916
0.392036
0.383943
0.375699
0.367853
0.359291
0.350446
0.341655
0.333042
0.324109
0.315377
0.306661
0.297887
0.289367
0.280589
0.271921
0.263381
0.255037
0.255188
0.237468
0.22832
0.219335
0.210414
0.201515
0.192005
0.183752
0.17486
0.165926
0.15694
0.147897
0.138808
0.129685
0.120548
0.111418
0.102297
0.0931511
0.0839317
0.0745498
0.0648052
0.0542492
-0.00652869
0.035966
0.0286842
0.0207584
0.0125079
0.0040783
-0.00456736
-0.0134348
-0.0134348
0
0
0.473541
0.458778
0.446958
0.438419
0.432704
0.429091
0.426108
0.422379
0.417364
0.411263
0.404479
0.397326
0.389884
0.382296
0.374105
0.36607
0.357819
0.349359
0.340781
0.328355
0.323406
0.314787
0.30613
0.297435
0.288783
0.280095
0.27149
0.263041
0.254788
0.24666
0.236811
0.228093
0.219346
0.210483
0.201569
0.19264
0.182867
0.174769
0.165867
0.156921
0.147926
0.138898
0.129819
0.120715
0.111603
0.102489
0.093361
0.084197
0.0749769
0.0657691
0.0568334
0.0487618
0.0390544
0.0300738
0.0214649
0.0129488
0.00440726
-0.00426552
-0.0132667
-0.0132667
0
0
0.47348
0.458556
0.446618
0.437393
0.431232
0.427255
0.423956
0.42
0.414873
0.4088
0.402134
0.395135
0.38794
0.380827
0.372356
0.364481
0.356496
0.348293
0.33999
0.331616
0.32303
0.314377
0.305682
0.29695
0.288207
0.279477
0.27087
0.262489
0.254297
0.245245
0.237857
0.22894
0.219814
0.210712
0.201659
0.192665
0.183723
0.174798
0.165893
0.156966
0.147996
0.139047
0.129982
0.120889
0.11179
0.102697
0.0936134
0.0845361
0.0754588
0.0665572
0.0579635
0.0496062
0.0403289
0.0311154
0.0221858
0.0134484
0.00477126
-0.00397632
-0.0130502
-0.0130502
0
0
0.473432
0.458365
0.446153
0.436715
0.43025
0.425956
0.422368
0.418183
0.412907
0.40681
0.400169
0.39321
0.385948
0.378138
0.3714
0.363678
0.355627
0.347429
0.33928
0.330998
0.322514
0.313897
0.30519
0.296406
0.287553
0.278673
0.269951
0.261717
0.254951
0.246482
0.238061
0.22911
0.219954
0.210774
0.201646
0.1926
0.183635
0.174766
0.165938
0.157055
0.148035
0.139347
0.13019
0.121077
0.111979
0.102903
0.093865
0.0848679
0.0757941
0.0669742
0.0583233
0.0496761
0.0406719
0.0316182
0.0226881
0.0138942
0.00511368
-0.00368918
-0.0128203
-0.0128203
0
0
0.473398
0.458224
0.445869
0.436117
0.429505
0.424987
0.421168
0.41679
0.411413
0.405177
0.398525
0.391619
0.384476
0.377081
0.369938
0.362407
0.35453
0.346365
0.338584
0.33041
0.321974
0.313379
0.304669
0.29583
0.286821
0.277592
0.26825
0.259275
0.257955
0.248784
0.239067
0.229502
0.220069
0.210746
0.201529
0.192446
0.183423
0.17469
0.166043
0.157278
0.148367
0.139449
0.130372
0.121262
0.112156
0.103079
0.094062
0.0851426
0.0759831
0.0672147
0.0585001
0.0497387
0.0407705
0.0318678
0.0230317
0.0143332
0.00536899
-0.00339901
-0.0125689
-0.0125689
0
0
0.473375
0.458095
0.44556
0.435821
0.428985
0.424266
0.420248
0.415693
0.41017
0.403882
0.397206
0.39033
0.38329
0.376093
0.368833
0.361347
0.353553
0.345245
0.338049
0.329831
0.321366
0.312815
0.304145
0.295302
0.286155
0.276354
0.264734
0.247487
0.27185
0.252862
0.240431
0.229931
0.220122
0.210617
0.201274
0.19208
0.183101
0.174546
0.166321
0.157709
0.148789
0.139736
0.130607
0.121461
0.112319
0.103202
0.0940993
0.0850043
0.076364
0.0675305
0.0587246
0.0500066
0.0407393
0.0320271
0.0232408
0.0145591
0.00578902
-0.00302755
-0.0122409
-0.0122409
0
0
0.47339
0.457996
0.44536
0.435567
0.428609
0.423725
0.419533
0.414815
0.409166
0.402814
0.39611
0.389252
0.382281
0.375187
0.367956
0.360558
0.353049
0.345705
0.336793
0.328647
0.320497
0.31217
0.303662
0.294943
0.285948
0.276554
0.266682
0.257486
0.258316
0.249386
0.239314
0.229404
0.219748
0.21026
0.200823
0.191455
0.182344
0.174052
0.167151
0.158641
0.149483
0.14019
0.130912
0.12168
0.112476
0.10333
0.0942177
0.0851582
0.0763381
0.0676647
0.058858
0.0500049
0.0410494
0.0322811
0.0233173
0.0147744
0.00615548
-0.00254017
-0.0117049
-0.0117049
0
0
0.473475
0.457914
0.445241
0.435439
0.428414
0.423343
0.418974
0.414098
0.408339
0.401929
0.395184
0.388328
0.381411
0.3744
0.367222
0.35986
0.352352
0.344727
0.336459
0.328272
0.320081
0.311797
0.303373
0.294788
0.286034
0.277141
0.2683
0.260317
0.254573
0.246724
0.237791
0.228504
0.219139
0.209761
0.200197
0.190459
0.18061
0.171689
0.17019
0.160764
0.150639
0.140805
0.131255
0.121899
0.112616
0.103449
0.0943238
0.0852154
0.0762116
0.0678441
0.0589893
0.0500782
0.0412781
0.0328732
0.0228307
0.014793
0.00645148
-0.00181311
-0.0105149
-0.0105149
0
0
0.473195
0.458046
0.445371
0.435524
0.428504
0.423956
0.418526
0.41352
0.407688
0.401258
0.394415
0.38753
0.380665
0.373757
0.366609
0.359232
0.351682
0.343989
0.336028
0.32796
0.319813
0.31157
0.303214
0.294744
0.286183
0.27761
0.272591
0.260923
0.253635
0.245527
0.236802
0.227751
0.218533
0.209228
0.199525
0.189291
0.177304
0.158749
0.184255
0.164719
0.151974
0.14134
0.131496
0.122003
0.112752
0.10357
0.0944455
0.0852967
0.0760376
0.0680791
0.0590096
0.0500346
0.0412023
0.032404
0.0231249
0.0040783
0.00654139
-0.000851711
-0.00737848
0
0
0
0.473283
0.457711
0.445213
0.435507
0.428569
0.422998
0.418297
0.413205
0.407327
0.400931
0.393791
0.386832
0.380025
0.373261
0.366045
0.358585
0.35099
0.343367
0.33558
0.327642
0.31958
0.3114
0.303111
0.294725
0.286276
0.277828
0.269419
0.260792
0.25346
0.244983
0.236158
0.227175
0.217968
0.200899
0.199113
0.189495
0.179359
0.169773
0.170784
0.157023
0.151059
0.141083
0.131428
0.122007
0.112765
0.103638
0.0946288
0.0857926
0.0771787
0.0671429
0.0584445
0.0497906
0.0410936
0.0323808
0.0236625
0.0152697
0.00676413
-0.00158714
-0.0103704
-0.0103704
0
0
0.473313
0.457907
0.444989
0.435492
0.428757
0.422641
0.417971
0.412943
0.407053
0.400846
0.393134
0.386191
0.379422
0.372686
0.365189
0.35767
0.350096
0.342749
0.335143
0.327334
0.319366
0.311262
0.303033
0.294702
0.2863
0.277917
0.270104
0.262164
0.252647
0.244061
0.235495
0.226759
0.217909
0.209043
0.199822
0.190536
0.181403
0.17316
0.16714
0.159053
0.149897
0.140516
0.13115
0.121875
0.112695
0.103625
0.0946521
0.0857673
0.0768672
0.0674388
0.0584847
0.0497365
0.0410481
0.0323888
0.0237319
0.0151706
0.00650627
-0.00227801
-0.0115418
-0.0115418
0
0
0.473334
0.457987
0.445449
0.434933
0.427089
0.422752
0.418245
0.413
0.406747
0.399466
0.39331
0.386135
0.378649
0.339533
0.363297
0.356441
0.349148
0.342316
0.334811
0.327072
0.319189
0.311157
0.302981
0.294675
0.28622
0.277429
0.271011
0.262021
0.252871
0.244038
0.235314
0.226586
0.217869
0.209195
0.200297
0.191345
0.182535
0.174149
0.166219
0.157859
0.149041
0.139994
0.130814
0.121685
0.112583
0.103574
0.0946143
0.0856821
0.0767138
0.0675882
0.0585597
0.0497336
0.0409986
0.0323366
0.0235913
0.0149013
0.00616449
-0.00274378
-0.0120489
-0.0120489
0
0
0.473332
0.457958
0.445246
0.434995
0.427462
0.422498
0.418032
0.412887
0.406641
0.399544
0.392761
0.385436
0.352203
0.371177
0.364237
0.357078
0.350019
0.34207
0.334504
0.326876
0.319084
0.311125
0.302983
0.294719
0.286364
0.277963
0.270133
0.261628
0.25284
0.244034
0.235231
0.226442
0.217779
0.209446
0.200716
0.191929
0.18314
0.174502
0.165973
0.157347
0.148561
0.139696
0.130441
0.12151
0.112503
0.103552
0.0945888
0.0856414
0.0767022
0.0676825
0.0586081
0.0497164
0.0408547
0.0321329
0.0233077
0.0146187
0.0058796
-0.00308174
-0.0123601
-0.0123601
0
0
0.473328
0.457933
0.445171
0.435079
0.427735
0.422556
0.418034
0.412981
0.406826
0.399473
0.392728
0.386032
0.380013
0.372122
0.364791
0.357528
0.350165
0.342453
0.334757
0.327023
0.319199
0.311248
0.303059
0.294801
0.286512
0.278209
0.269955
0.261446
0.252784
0.243997
0.235106
0.226131
0.217296
0.210224
0.20125
0.192547
0.183577
0.174698
0.165906
0.157112
0.148263
0.139347
0.13033
0.121424
0.113598
0.103555
0.0945287
0.0855716
0.0767083
0.0677833
0.0617541
0.0496859
0.0405151
0.020456
0.0228581
0.0143999
0.00572075
-0.00337623
-0.0126229
-0.0126229
0
0
0.473327
0.457932
0.445179
0.435168
0.42792
0.422733
0.418181
0.413386
0.408393
0.399152
0.392805
0.386206
0.379693
0.372472
0.365206
0.357888
0.350349
0.342735
0.335034
0.327259
0.319418
0.311519
0.303149
0.294889
0.286648
0.278366
0.270032
0.263307
0.252856
0.244011
0.234972
0.225515
0.214483
0.213721
0.201785
0.1937
0.18397
0.174827
0.165876
0.156984
0.148076
0.139101
0.130107
0.121123
0.112103
0.103183
0.094242
0.0853069
0.0764889
0.0675069
0.0579936
0.0493646
0.0406731
0.0320637
0.0231897
0.0145102
0.00581507
-0.00370895
-0.0128724
-0.0128724
0
0
0.47333
0.457943
0.445213
0.435256
0.428094
0.423087
0.418308
0.413291
0.407272
0.399691
0.392917
0.386248
0.379577
0.372623
0.365508
0.358319
0.350368
0.342951
0.335285
0.32749
0.319639
0.311875
0.303198
0.295033
0.286871
0.278566
0.270154
0.261475
0.252832
0.244074
0.235076
0.226011
0.216966
0.210494
0.201507
0.192853
0.183788
0.174755
0.165802
0.156892
0.147967
0.138894
0.129876
0.120892
0.1119
0.102949
0.0939686
0.0848799
0.0671686
0.0672632
0.0575038
0.0492786
0.0406472
0.0319632
0.023159
0.014491
0.00602031
-0.00405973
-0.0129592
-0.0129592
0
0
0.473334
0.457955
0.445242
0.435313
0.428163
0.423047
0.418452
0.413241
0.407106
0.400212
0.393382
0.38664
0.379863
0.372931
0.365836
0.358585
0.350993
0.343358
0.335598
0.327717
0.319683
0.311314
0.30382
0.295653
0.287337
0.278853
0.270227
0.261679
0.253021
0.244382
0.23514
0.22647
0.21785
0.209716
0.201113
0.192396
0.183519
0.174597
0.165687
0.156815
0.147948
0.138665
0.129658
0.120722
0.111778
0.102835
0.0938845
0.0849269
0.0759788
0.0666398
0.0588927
0.0495015
0.0405979
0.0317752
0.0228802
0.0138568
0.00467493
-0.00280395
-0.0123247
-0.0123247
0
0
0.473334
0.457958
0.445259
0.435358
0.428243
0.423197
0.418889
0.413383
0.407259
0.400617
0.3939
0.387158
0.380341
0.373385
0.366283
0.359044
0.351525
0.343799
0.335958
0.328027
0.320032
0.311772
0.304145
0.295802
0.287595
0.279007
0.270329
0.261707
0.253068
0.244393
0.235545
0.226826
0.218175
0.209605
0.200932
0.192171
0.183327
0.174438
0.165542
0.156693
0.14797
0.138404
0.129518
0.120637
0.111708
0.102769
0.0938359
0.0849155
0.0759947
0.0670092
0.0585312
0.0495113
0.0405643
0.0316752
0.0227837
0.0138707
0.00499639
-0.00327583
-0.0124667
-0.0124667
0
0
0.473328
0.457942
0.445251
0.435388
0.428322
0.423371
0.419502
0.413483
0.407615
0.401241
0.394642
0.387898
0.381013
0.373991
0.366847
0.35971
0.352133
0.344258
0.336336
0.328355
0.320377
0.312247
0.304073
0.295774
0.287553
0.278757
0.270129
0.261591
0.253047
0.244442
0.235752
0.227049
0.218344
0.209631
0.200873
0.192061
0.183198
0.174294
0.165346
0.15631
0.147104
0.138843
0.12979
0.120702
0.11168
0.102711
0.0937791
0.0848715
0.0759762
0.0670921
0.0583129
0.0494116
0.0405022
0.0316214
0.0227786
0.0140294
0.00502669
-0.00356189
-0.0126778
-0.0126778
0
0
0.473308
0.457885
0.445208
0.435414
0.428365
0.423245
0.418285
0.41464
0.40903
0.407272
0.395888
0.388886
0.381828
0.374669
0.367323
0.360473
0.352653
0.344585
0.336659
0.328645
0.320805
0.312691
0.304339
0.295567
0.256011
0.277788
0.269769
0.261529
0.253114
0.24457
0.235928
0.227223
0.218474
0.209689
0.200866
0.192005
0.183111
0.174187
0.165233
0.15624
0.147241
0.138561
0.129614
0.120583
0.111575
0.102615
0.0936974
0.0848069
0.0759303
0.0670623
0.0582079
0.0493257
0.0404389
0.0315722
0.022739
0.013945
0.00511795
-0.00365993
-0.0127972
-0.0127972
0
0
0.473274
0.457711
0.448012
0.435508
0.428546
0.423572
0.419183
0.414871
0.40939
0.402982
0.396311
0.389457
0.382457
0.375397
0.367014
0.360499
0.352144
0.352526
0.336846
0.328843
0.321277
0.313182
0.30487
0.296523
0.288393
0.279548
0.270822
0.262176
0.253542
0.244879
0.236169
0.227412
0.218609
0.209762
0.20088
0.191972
0.183043
0.1741
0.165154
0.156218
0.1473
0.1384
0.129409
0.120388
0.111404
0.102475
0.0935899
0.0847308
0.0758788
0.0670216
0.0581526
0.0492688
0.0403862
0.0315264
0.0226935
0.0138822
0.0050921
-0.00372607
-0.0126778
-0.0128666
0
0
0.473286
0.457046
0.444709
0.435326
0.428677
0.423992
0.419932
0.415462
0.410014
0.403758
0.397127
0.390275
0.383181
0.375634
0.366619
0.229679
0.348466
0.342722
0.336344
0.329459
0.321352
0.313344
0.305258
0.297101
0.288708
0.280094
0.271402
0.262688
0.253958
0.245208
0.236429
0.227615
0.218757
0.209843
0.200899
0.19194
0.182972
0.174002
0.165055
0.156168
0.147314
0.138298
0.1292
0.120141
0.111173
0.102289
0.0934596
0.0846536
0.0758419
0.0670047
0.058134
0.0492378
0.0403437
0.0314874
0.0226489
0.0138144
0.00499416
-0.00609582
-0.0129874
-0.0129874
0
0
0.474426
0.455078
0.444163
0.435319
0.428995
0.42459
0.420745
0.416335
0.410971
0.404826
0.398251
0.391421
0.38436
0.377043
0.369557
0.363261
0.354578
0.346276
0.338338
0.330491
0.322298
0.314083
0.305854
0.297692
0.288934
0.280398
0.271784
0.263072
0.254307
0.245509
0.236685
0.227831
0.218927
0.209925
0.200907
0.191894
0.182877
0.173857
0.16487
0.156027
0.14731
0.138117
0.128858
0.119758
0.110842
0.102046
0.0933092
0.0845905
0.0758437
0.0670382
0.0581634
0.0492357
0.0403065
0.0314586
0.0210886
0.0137521
0.00497562
-0.00385577
-0.0139514
-0.0130443
0
0
0.473434
0.457277
0.445187
0.436089
0.42982
0.42554
0.421866
0.417513
0.412262
0.406199
0.399662
0.392848
0.38581
0.378609
0.371316
0.364282
0.356308
0.348055
0.339808
0.331572
0.323242
0.314848
0.30637
0.297709
0.289605
0.281001
0.272255
0.26346
0.254633
0.245793
0.236937
0.228067
0.219147
0.209994
0.200887
0.191827
0.182756
0.173643
0.164477
0.155569
0.147087
0.137454
0.128057
0.119057
0.110334
0.101731
0.0931479
0.0845684
0.075929
0.0671686
0.0582766
0.0492841
0.0402767
0.0315353
0.0226315
0.0137349
0.00492364
-0.00390967
-0.0130277
-0.0130277
0
0
0.473404
0.458126
0.446005
0.436926
0.428414
0.426727
0.423563
0.419164
0.413987
0.407942
0.401408
0.394558
0.387442
0.375187
0.372674
0.365189
0.357307
0.349158
0.340885
0.332542
0.324125
0.315614
0.307032
0.298402
0.289945
0.281325
0.272591
0.263798
0.254918
0.246049
0.237174
0.228319
0.219471
0.209994
0.20084
0.19177
0.18265
0.173444
0.163665
0.1542
0.145507
0.135259
0.126314
0.117838
0.109585
0.101392
0.0930126
0.0846242
0.0762077
0.067503
0.058553
0.0494497
0.0402709
0.0316013
0.0225615
0.0136304
0.00481225
-0.00401717
-0.0131172
-0.0131172
0
0
0.473493
0.458558
0.446653
0.437807
0.431934
0.428155
0.42501
0.420982
0.41599
0.410071
0.403554
0.396626
0.3894
0.38197
0.374293
0.366462
0.358425
0.350217
0.341889
0.333481
0.325006
0.31637
0.307687
0.29901
0.290369
0.281669
0.272902
0.264074
0.255188
0.246285
0.237366
0.228498
0.219831
0.209919
0.200883
0.191846
0.182628
0.173151
0.163011
0.151455
0.0268965
0.130631
0.124015
0.116326
0.108564
0.101353
0.0929936
0.0846602
0.07703
0.0683051
0.0591281
0.0499006
0.040778
0.0311913
0.0222544
0.0134164
0.00463614
-0.00416673
-0.0132338
-0.0132338
0
0
0.473589
0.458899
0.447283
0.438769
0.433244
0.429848
0.42705
0.423462
0.41864
0.412742
0.406157
0.399028
0.391564
0.383867
0.37596
0.367891
0.359676
0.35134
0.342914
0.334427
0.325913
0.317062
0.308267
0.299537
0.29082
0.282035
0.273231
0.26437
0.255457