# vtk DataFile Version 2.0
FlowField
ASCII
DATASET STRUCTURED_GRID
DIMENSIONS 102 11 11 
POINTS 12342 double
0 0 0
0 0 0.2
0 0 0.4
0 0 0.6
0 0 0.8
0 0 1
0 0 1.2
0 0 1.4
0 0 1.6
0 0 1.8
0 0 2
0 0.1 0
0 0.1 0.2
0 0.1 0.4
0 0.1 0.6
0 0.1 0.8
0 0.1 1
0 0.1 1.2
0 0.1 1.4
0 0.1 1.6
0 0.1 1.8
0 0.1 2
0 0.2 0
0 0.2 0.2
0 0.2 0.4
0 0.2 0.6
0 0.2 0.8
0 0.2 1
0 0.2 1.2
0 0.2 1.4
0 0.2 1.6
0 0.2 1.8
0 0.2 2
0 0.3 0
0 0.3 0.2
0 0.3 0.4
0 0.3 0.6
0 0.3 0.8
0 0.3 1
0 0.3 1.2
0 0.3 1.4
0 0.3 1.6
0 0.3 1.8
0 0.3 2
0 0.4 0
0 0.4 0.2
0 0.4 0.4
0 0.4 0.6
0 0.4 0.8
0 0.4 1
0 0.4 1.2
0 0.4 1.4
0 0.4 1.6
0 0.4 1.8
0 0.4 2
0 0.5 0
0 0.5 0.2
0 0.5 0.4
0 0.5 0.6
0 0.5 0.8
0 0.5 1
0 0.5 1.2
0 0.5 1.4
0 0.5 1.6
0 0.5 1.8
0 0.5 2
0 0.6 0
0 0.6 0.2
0 0.6 0.4
0 0.6 0.6
0 0.6 0.8
0 0.6 1
0 0.6 1.2
0 0.6 1.4
0 0.6 1.6
0 0.6 1.8
0 0.6 2
0 0.7 0
0 0.7 0.2
0 0.7 0.4
0 0.7 0.6
0 0.7 0.8
0 0.7 1
0 0.7 1.2
0 0.7 1.4
0 0.7 1.6
0 0.7 1.8
0 0.7 2
0 0.8 0
0 0.8 0.2
0 0.8 0.4
0 0.8 0.6
0 0.8 0.8
0 0.8 1
0 0.8 1.2
0 0.8 1.4
0 0.8 1.6
0 0.8 1.8
0 0.8 2
0 0.9 0
0 0.9 0.2
0 0.9 0.4
0 0.9 0.6
0 0.9 0.8
0 0.9 1
0 0.9 1.2
0 0.9 1.4
0 0.9 1.6
0 0.9 1.8
0 0.9 2
0 1 0
0 1 0.2
0 1 0.4
0 1 0.6
0 1 0.8
0 1 1
0 1 1.2
0 1 1.4
0 1 1.6
0 1 1.8
0 1 2
0.2 0 0
0.2 0 0.2
0.2 0 0.4
0.2 0 0.6
0.2 0 0.8
0.2 0 1
0.2 0 1.2
0.2 0 1.4
0.2 0 1.6
0.2 0 1.8
0.2 0 2
0.2 0.1 0
0.2 0.1 0.2
0.2 0.1 0.4
0.2 0.1 0.6
0.2 0.1 0.8
0.2 0.1 1
0.2 0.1 1.2
0.2 0.1 1.4
0.2 0.1 1.6
0.2 0.1 1.8
0.2 0.1 2
0.2 0.2 0
0.2 0.2 0.2
0.2 0.2 0.4
0.2 0.2 0.6
0.2 0.2 0.8
0.2 0.2 1
0.2 0.2 1.2
0.2 0.2 1.4
0.2 0.2 1.6
0.2 0.2 1.8
0.2 0.2 2
0.2 0.3 0
0.2 0.3 0.2
0.2 0.3 0.4
0.2 0.3 0.6
0.2 0.3 0.8
0.2 0.3 1
0.2 0.3 1.2
0.2 0.3 1.4
0.2 0.3 1.6
0.2 0.3 1.8
0.2 0.3 2
0.2 0.4 0
0.2 0.4 0.2
0.2 0.4 0.4
0.2 0.4 0.6
0.2 0.4 0.8
0.2 0.4 1
0.2 0.4 1.2
0.2 0.4 1.4
0.2 0.4 1.6
0.2 0.4 1.8
0.2 0.4 2
0.2 0.5 0
0.2 0.5 0.2
0.2 0.5 0.4
0.2 0.5 0.6
0.2 0.5 0.8
0.2 0.5 1
0.2 0.5 1.2
0.2 0.5 1.4
0.2 0.5 1.6
0.2 0.5 1.8
0.2 0.5 2
0.2 0.6 0
0.2 0.6 0.2
0.2 0.6 0.4
0.2 0.6 0.6
0.2 0.6 0.8
0.2 0.6 1
0.2 0.6 1.2
0.2 0.6 1.4
0.2 0.6 1.6
0.2 0.6 1.8
0.2 0.6 2
0.2 0.7 0
0.2 0.7 0.2
0.2 0.7 0.4
0.2 0.7 0.6
0.2 0.7 0.8
0.2 0.7 1
0.2 0.7 1.2
0.2 0.7 1.4
0.2 0.7 1.6
0.2 0.7 1.8
0.2 0.7 2
0.2 0.8 0
0.2 0.8 0.2
0.2 0.8 0.4
0.2 0.8 0.6
0.2 0.8 0.8
0.2 0.8 1
0.2 0.8 1.2
0.2 0.8 1.4
0.2 0.8 1.6
0.2 0.8 1.8
0.2 0.8 2
0.2 0.9 0
0.2 0.9 0.2
0.2 0.9 0.4
0.2 0.9 0.6
0.2 0.9 0.8
0.2 0.9 1
0.2 0.9 1.2
0.2 0.9 1.4
0.2 0.9 1.6
0.2 0.9 1.8
0.2 0.9 2
0.2 1 0
0.2 1 0.2
0.2 1 0.4
0.2 1 0.6
0.2 1 0.8
0.2 1 1
0.2 1 1.2
0.2 1 1.4
0.2 1 1.6
0.2 1 1.8
0.2 1 2
0.4 0 0
0.4 0 0.2
0.4 0 0.4
0.4 0 0.6
0.4 0 0.8
0.4 0 1
0.4 0 1.2
0.4 0 1.4
0.4 0 1.6
0.4 0 1.8
0.4 0 2
0.4 0.1 0
0.4 0.1 0.2
0.4 0.1 0.4
0.4 0.1 0.6
0.4 0.1 0.8
0.4 0.1 1
0.4 0.1 1.2
0.4 0.1 1.4
0.4 0.1 1.6
0.4 0.1 1.8
0.4 0.1 2
0.4 0.2 0
0.4 0.2 0.2
0.4 0.2 0.4
0.4 0.2 0.6
0.4 0.2 0.8
0.4 0.2 1
0.4 0.2 1.2
0.4 0.2 1.4
0.4 0.2 1.6
0.4 0.2 1.8
0.4 0.2 2
0.4 0.3 0
0.4 0.3 0.2
0.4 0.3 0.4
0.4 0.3 0.6
0.4 0.3 0.8
0.4 0.3 1
0.4 0.3 1.2
0.4 0.3 1.4
0.4 0.3 1.6
0.4 0.3 1.8
0.4 0.3 2
0.4 0.4 0
0.4 0.4 0.2
0.4 0.4 0.4
0.4 0.4 0.6
0.4 0.4 0.8
0.4 0.4 1
0.4 0.4 1.2
0.4 0.4 1.4
0.4 0.4 1.6
0.4 0.4 1.8
0.4 0.4 2
0.4 0.5 0
0.4 0.5 0.2
0.4 0.5 0.4
0.4 0.5 0.6
0.4 0.5 0.8
0.4 0.5 1
0.4 0.5 1.2
0.4 0.5 1.4
0.4 0.5 1.6
0.4 0.5 1.8
0.4 0.5 2
0.4 0.6 0
0.4 0.6 0.2
0.4 0.6 0.4
0.4 0.6 0.6
0.4 0.6 0.8
0.4 0.6 1
0.4 0.6 1.2
0.4 0.6 1.4
0.4 0.6 1.6
0.4 0.6 1.8
0.4 0.6 2
0.4 0.7 0
0.4 0.7 0.2
0.4 0.7 0.4
0.4 0.7 0.6
0.4 0.7 0.8
0.4 0.7 1
0.4 0.7 1.2
0.4 0.7 1.4
0.4 0.7 1.6
0.4 0.7 1.8
0.4 0.7 2
0.4 0.8 0
0.4 0.8 0.2
0.4 0.8 0.4
0.4 0.8 0.6
0.4 0.8 0.8
0.4 0.8 1
0.4 0.8 1.2
0.4 0.8 1.4
0.4 0.8 1.6
0.4 0.8 1.8
0.4 0.8 2
0.4 0.9 0
0.4 0.9 0.2
0.4 0.9 0.4
0.4 0.9 0.6
0.4 0.9 0.8
0.4 0.9 1
0.4 0.9 1.2
0.4 0.9 1.4
0.4 0.9 1.6
0.4 0.9 1.8
0.4 0.9 2
0.4 1 0
0.4 1 0.2
0.4 1 0.4
0.4 1 0.6
0.4 1 0.8
0.4 1 1
0.4 1 1.2
0.4 1 1.4
0.4 1 1.6
0.4 1 1.8
0.4 1 2
0.6 0 0
0.6 0 0.2
0.6 0 0.4
0.6 0 0.6
0.6 0 0.8
0.6 0 1
0.6 0 1.2
0.6 0 1.4
0.6 0 1.6
0.6 0 1.8
0.6 0 2
0.6 0.1 0
0.6 0.1 0.2
0.6 0.1 0.4
0.6 0.1 0.6
0.6 0.1 0.8
0.6 0.1 1
0.6 0.1 1.2
0.6 0.1 1.4
0.6 0.1 1.6
0.6 0.1 1.8
0.6 0.1 2
0.6 0.2 0
0.6 0.2 0.2
0.6 0.2 0.4
0.6 0.2 0.6
0.6 0.2 0.8
0.6 0.2 1
0.6 0.2 1.2
0.6 0.2 1.4
0.6 0.2 1.6
0.6 0.2 1.8
0.6 0.2 2
0.6 0.3 0
0.6 0.3 0.2
0.6 0.3 0.4
0.6 0.3 0.6
0.6 0.3 0.8
0.6 0.3 1
0.6 0.3 1.2
0.6 0.3 1.4
0.6 0.3 1.6
0.6 0.3 1.8
0.6 0.3 2
0.6 0.4 0
0.6 0.4 0.2
0.6 0.4 0.4
0.6 0.4 0.6
0.6 0.4 0.8
0.6 0.4 1
0.6 0.4 1.2
0.6 0.4 1.4
0.6 0.4 1.6
0.6 0.4 1.8
0.6 0.4 2
0.6 0.5 0
0.6 0.5 0.2
0.6 0.5 0.4
0.6 0.5 0.6
0.6 0.5 0.8
0.6 0.5 1
0.6 0.5 1.2
0.6 0.5 1.4
0.6 0.5 1.6
0.6 0.5 1.8
0.6 0.5 2
0.6 0.6 0
0.6 0.6 0.2
0.6 0.6 0.4
0.6 0.6 0.6
0.6 0.6 0.8
0.6 0.6 1
0.6 0.6 1.2
0.6 0.6 1.4
0.6 0.6 1.6
0.6 0.6 1.8
0.6 0.6 2
0.6 0.7 0
0.6 0.7 0.2
0.6 0.7 0.4
0.6 0.7 0.6
0.6 0.7 0.8
0.6 0.7 1
0.6 0.7 1.2
0.6 0.7 1.4
0.6 0.7 1.6
0.6 0.7 1.8
0.6 0.7 2
0.6 0.8 0
0.6 0.8 0.2
0.6 0.8 0.4
0.6 0.8 0.6
0.6 0.8 0.8
0.6 0.8 1
0.6 0.8 1.2
0.6 0.8 1.4
0.6 0.8 1.6
0.6 0.8 1.8
0.6 0.8 2
0.6 0.9 0
0.6 0.9 0.2
0.6 0.9 0.4
0.6 0.9 0.6
0.6 0.9 0.8
0.6 0.9 1
0.6 0.9 1.2
0.6 0.9 1.4
0.6 0.9 1.6
0.6 0.9 1.8
0.6 0.9 2
0.6 1 0
0.6 1 0.2
0.6 1 0.4
0.6 1 0.6
0.6 1 0.8
0.6 1 1
0.6 1 1.2
0.6 1 1.4
0.6 1 1.6
0.6 1 1.8
0.6 1 2
0.8 0 0
0.8 0 0.2
0.8 0 0.4
0.8 0 0.6
0.8 0 0.8
0.8 0 1
0.8 0 1.2
0.8 0 1.4
0.8 0 1.6
0.8 0 1.8
0.8 0 2
0.8 0.1 0
0.8 0.1 0.2
0.8 0.1 0.4
0.8 0.1 0.6
0.8 0.1 0.8
0.8 0.1 1
0.8 0.1 1.2
0.8 0.1 1.4
0.8 0.1 1.6
0.8 0.1 1.8
0.8 0.1 2
0.8 0.2 0
0.8 0.2 0.2
0.8 0.2 0.4
0.8 0.2 0.6
0.8 0.2 0.8
0.8 0.2 1
0.8 0.2 1.2
0.8 0.2 1.4
0.8 0.2 1.6
0.8 0.2 1.8
0.8 0.2 2
0.8 0.3 0
0.8 0.3 0.2
0.8 0.3 0.4
0.8 0.3 0.6
0.8 0.3 0.8
0.8 0.3 1
0.8 0.3 1.2
0.8 0.3 1.4
0.8 0.3 1.6
0.8 0.3 1.8
0.8 0.3 2
0.8 0.4 0
0.8 0.4 0.2
0.8 0.4 0.4
0.8 0.4 0.6
0.8 0.4 0.8
0.8 0.4 1
0.8 0.4 1.2
0.8 0.4 1.4
0.8 0.4 1.6
0.8 0.4 1.8
0.8 0.4 2
0.8 0.5 0
0.8 0.5 0.2
0.8 0.5 0.4
0.8 0.5 0.6
0.8 0.5 0.8
0.8 0.5 1
0.8 0.5 1.2
0.8 0.5 1.4
0.8 0.5 1.6
0.8 0.5 1.8
0.8 0.5 2
0.8 0.6 0
0.8 0.6 0.2
0.8 0.6 0.4
0.8 0.6 0.6
0.8 0.6 0.8
0.8 0.6 1
0.8 0.6 1.2
0.8 0.6 1.4
0.8 0.6 1.6
0.8 0.6 1.8
0.8 0.6 2
0.8 0.7 0
0.8 0.7 0.2
0.8 0.7 0.4
0.8 0.7 0.6
0.8 0.7 0.8
0.8 0.7 1
0.8 0.7 1.2
0.8 0.7 1.4
0.8 0.7 1.6
0.8 0.7 1.8
0.8 0.7 2
0.8 0.8 0
0.8 0.8 0.2
0.8 0.8 0.4
0.8 0.8 0.6
0.8 0.8 0.8
0.8 0.8 1
0.8 0.8 1.2
0.8 0.8 1.4
0.8 0.8 1.6
0.8 0.8 1.8
0.8 0.8 2
0.8 0.9 0
0.8 0.9 0.2
0.8 0.9 0.4
0.8 0.9 0.6
0.8 0.9 0.8
0.8 0.9 1
0.8 0.9 1.2
0.8 0.9 1.4
0.8 0.9 1.6
0.8 0.9 1.8
0.8 0.9 2
0.8 1 0
0.8 1 0.2
0.8 1 0.4
0.8 1 0.6
0.8 1 0.8
0.8 1 1
0.8 1 1.2
0.8 1 1.4
0.8 1 1.6
0.8 1 1.8
0.8 1 2
1 0 0
1 0 0.2
1 0 0.4
1 0 0.6
1 0 0.8
1 0 1
1 0 1.2
1 0 1.4
1 0 1.6
1 0 1.8
1 0 2
1 0.1 0
1 0.1 0.2
1 0.1 0.4
1 0.1 0.6
1 0.1 0.8
1 0.1 1
1 0.1 1.2
1 0.1 1.4
1 0.1 1.6
1 0.1 1.8
1 0.1 2
1 0.2 0
1 0.2 0.2
1 0.2 0.4
1 0.2 0.6
1 0.2 0.8
1 0.2 1
1 0.2 1.2
1 0.2 1.4
1 0.2 1.6
1 0.2 1.8
1 0.2 2
1 0.3 0
1 0.3 0.2
1 0.3 0.4
1 0.3 0.6
1 0.3 0.8
1 0.3 1
1 0.3 1.2
1 0.3 1.4
1 0.3 1.6
1 0.3 1.8
1 0.3 2
1 0.4 0
1 0.4 0.2
1 0.4 0.4
1 0.4 0.6
1 0.4 0.8
1 0.4 1
1 0.4 1.2
1 0.4 1.4
1 0.4 1.6
1 0.4 1.8
1 0.4 2
1 0.5 0
1 0.5 0.2
1 0.5 0.4
1 0.5 0.6
1 0.5 0.8
1 0.5 1
1 0.5 1.2
1 0.5 1.4
1 0.5 1.6
1 0.5 1.8
1 0.5 2
1 0.6 0
1 0.6 0.2
1 0.6 0.4
1 0.6 0.6
1 0.6 0.8
1 0.6 1
1 0.6 1.2
1 0.6 1.4
1 0.6 1.6
1 0.6 1.8
1 0.6 2
1 0.7 0
1 0.7 0.2
1 0.7 0.4
1 0.7 0.6
1 0.7 0.8
1 0.7 1
1 0.7 1.2
1 0.7 1.4
1 0.7 1.6
1 0.7 1.8
1 0.7 2
1 0.8 0
1 0.8 0.2
1 0.8 0.4
1 0.8 0.6
1 0.8 0.8
1 0.8 1
1 0.8 1.2
1 0.8 1.4
1 0.8 1.6
1 0.8 1.8
1 0.8 2
1 0.9 0
1 0.9 0.2
1 0.9 0.4
1 0.9 0.6
1 0.9 0.8
1 0.9 1
1 0.9 1.2
1 0.9 1.4
1 0.9 1.6
1 0.9 1.8
1 0.9 2
1 1 0
1 1 0.2
1 1 0.4
1 1 0.6
1 1 0.8
1 1 1
1 1 1.2
1 1 1.4
1 1 1.6
1 1 1.8
1 1 2
1.2 0 0
1.2 0 0.2
1.2 0 0.4
1.2 0 0.6
1.2 0 0.8
1.2 0 1
1.2 0 1.2
1.2 0 1.4
1.2 0 1.6
1.2 0 1.8
1.2 0 2
1.2 0.1 0
1.2 0.1 0.2
1.2 0.1 0.4
1.2 0.1 0.6
1.2 0.1 0.8
1.2 0.1 1
1.2 0.1 1.2
1.2 0.1 1.4
1.2 0.1 1.6
1.2 0.1 1.8
1.2 0.1 2
1.2 0.2 0
1.2 0.2 0.2
1.2 0.2 0.4
1.2 0.2 0.6
1.2 0.2 0.8
1.2 0.2 1
1.2 0.2 1.2
1.2 0.2 1.4
1.2 0.2 1.6
1.2 0.2 1.8
1.2 0.2 2
1.2 0.3 0
1.2 0.3 0.2
1.2 0.3 0.4
1.2 0.3 0.6
1.2 0.3 0.8
1.2 0.3 1
1.2 0.3 1.2
1.2 0.3 1.4
1.2 0.3 1.6
1.2 0.3 1.8
1.2 0.3 2
1.2 0.4 0
1.2 0.4 0.2
1.2 0.4 0.4
1.2 0.4 0.6
1.2 0.4 0.8
1.2 0.4 1
1.2 0.4 1.2
1.2 0.4 1.4
1.2 0.4 1.6
1.2 0.4 1.8
1.2 0.4 2
1.2 0.5 0
1.2 0.5 0.2
1.2 0.5 0.4
1.2 0.5 0.6
1.2 0.5 0.8
1.2 0.5 1
1.2 0.5 1.2
1.2 0.5 1.4
1.2 0.5 1.6
1.2 0.5 1.8
1.2 0.5 2
1.2 0.6 0
1.2 0.6 0.2
1.2 0.6 0.4
1.2 0.6 0.6
1.2 0.6 0.8
1.2 0.6 1
1.2 0.6 1.2
1.2 0.6 1.4
1.2 0.6 1.6
1.2 0.6 1.8
1.2 0.6 2
1.2 0.7 0
1.2 0.7 0.2
1.2 0.7 0.4
1.2 0.7 0.6
1.2 0.7 0.8
1.2 0.7 1
1.2 0.7 1.2
1.2 0.7 1.4
1.2 0.7 1.6
1.2 0.7 1.8
1.2 0.7 2
1.2 0.8 0
1.2 0.8 0.2
1.2 0.8 0.4
1.2 0.8 0.6
1.2 0.8 0.8
1.2 0.8 1
1.2 0.8 1.2
1.2 0.8 1.4
1.2 0.8 1.6
1.2 0.8 1.8
1.2 0.8 2
1.2 0.9 0
1.2 0.9 0.2
1.2 0.9 0.4
1.2 0.9 0.6
1.2 0.9 0.8
1.2 0.9 1
1.2 0.9 1.2
1.2 0.9 1.4
1.2 0.9 1.6
1.2 0.9 1.8
1.2 0.9 2
1.2 1 0
1.2 1 0.2
1.2 1 0.4
1.2 1 0.6
1.2 1 0.8
1.2 1 1
1.2 1 1.2
1.2 1 1.4
1.2 1 1.6
1.2 1 1.8
1.2 1 2
1.4 0 0
1.4 0 0.2
1.4 0 0.4
1.4 0 0.6
1.4 0 0.8
1.4 0 1
1.4 0 1.2
1.4 0 1.4
1.4 0 1.6
1.4 0 1.8
1.4 0 2
1.4 0.1 0
1.4 0.1 0.2
1.4 0.1 0.4
1.4 0.1 0.6
1.4 0.1 0.8
1.4 0.1 1
1.4 0.1 1.2
1.4 0.1 1.4
1.4 0.1 1.6
1.4 0.1 1.8
1.4 0.1 2
1.4 0.2 0
1.4 0.2 0.2
1.4 0.2 0.4
1.4 0.2 0.6
1.4 0.2 0.8
1.4 0.2 1
1.4 0.2 1.2
1.4 0.2 1.4
1.4 0.2 1.6
1.4 0.2 1.8
1.4 0.2 2
1.4 0.3 0
1.4 0.3 0.2
1.4 0.3 0.4
1.4 0.3 0.6
1.4 0.3 0.8
1.4 0.3 1
1.4 0.3 1.2
1.4 0.3 1.4
1.4 0.3 1.6
1.4 0.3 1.8
1.4 0.3 2
1.4 0.4 0
1.4 0.4 0.2
1.4 0.4 0.4
1.4 0.4 0.6
1.4 0.4 0.8
1.4 0.4 1
1.4 0.4 1.2
1.4 0.4 1.4
1.4 0.4 1.6
1.4 0.4 1.8
1.4 0.4 2
1.4 0.5 0
1.4 0.5 0.2
1.4 0.5 0.4
1.4 0.5 0.6
1.4 0.5 0.8
1.4 0.5 1
1.4 0.5 1.2
1.4 0.5 1.4
1.4 0.5 1.6
1.4 0.5 1.8
1.4 0.5 2
1.4 0.6 0
1.4 0.6 0.2
1.4 0.6 0.4
1.4 0.6 0.6
1.4 0.6 0.8
1.4 0.6 1
1.4 0.6 1.2
1.4 0.6 1.4
1.4 0.6 1.6
1.4 0.6 1.8
1.4 0.6 2
1.4 0.7 0
1.4 0.7 0.2
1.4 0.7 0.4
1.4 0.7 0.6
1.4 0.7 0.8
1.4 0.7 1
1.4 0.7 1.2
1.4 0.7 1.4
1.4 0.7 1.6
1.4 0.7 1.8
[...]
POINT_DATA 12342

SCALARS p double
LOOKUP_TABLE default
-2.25358e+34
-2.25358e+34
-2.70978e+34
-2.77991e+34
-4.07325e+34
3.38978e+34
-4.7477e+34
1.042e+34
-5.41042e+34
1.39364e+35
1.39364e+35
-2.25358e+34
-2.25358e+34
-2.70978e+34
-2.77991e+34
-4.07325e+34
3.38978e+34
-4.7477e+34
1.042e+34
-5.41042e+34
1.39364e+35
1.39364e+35
-2.24986e+34
-2.24986e+34
-2.71777e+34
-2.77841e+34
-4.1572e+34
3.59186e+34
-4.92069e+34
1.42163e+34
-5.45737e+34
1.44432e+35
1.39364e+35
-2.24341e+34
-2.24341e+34
-2.72624e+34
-2.77939e+34
-4.21976e+34
3.85938e+34
-5.0154e+34
1.66077e+34
-5.68372e+34
1.48624e+35
1.39364e+35
-2.23861e+34
-2.23861e+34
-2.73062e+34
-2.77887e+34
-4.25231e+34
4.01404e+34
-5.05564e+34
1.79304e+34
-5.82488e+34
1.50968e+35
1.39364e+35
-2.23557e+34
-2.23557e+34
-2.7287e+34
-2.77425e+34
-4.2506e+34
4.04561e+34
-5.04978e+34
1.8289e+34
-5.85858e+34
1.51055e+35
1.39364e+35
-2.23435e+34
-2.23435e+34
-2.72021e+34
-2.76506e+34
-4.21348e+34
3.95475e+34
-4.99985e+34
1.76856e+34
-5.78465e+34
1.48775e+35
1.39364e+35
-2.2353e+34
-2.2353e+34
-2.70643e+34
-2.75314e+34
-4.14274e+34
3.74721e+34
-4.90699e+34
1.59538e+34
-5.61628e+34
1.44274e+35
1.39364e+35
-2.23893e+34
-2.23893e+34
-2.68992e+34
-2.74309e+34
-4.04437e+34
3.43513e+34
-4.7682e+34
1.26624e+34
-5.38115e+34
1.38048e+35
1.39364e+35
-2.2453e+34
-2.2453e+34
-2.67398e+34
-2.74204e+34
-3.93266e+34
3.04824e+34
-4.55062e+34
7.47741e+33
-5.11021e+34
1.31315e+35
1.39364e+35
-2.2453e+34
-2.2453e+34
-2.67398e+34
-2.74204e+34
-3.93266e+34
3.04824e+34
-4.55062e+34
7.47741e+33
-5.11021e+34
1.31315e+35
1.39364e+35
-2.25358e+34
-2.25358e+34
-2.70978e+34
-2.77991e+34
-4.07325e+34
3.38978e+34
-4.7477e+34
1.042e+34
-5.41042e+34
1.39364e+35
1.39364e+35
-2.25358e+34
-2.25358e+34
-2.70978e+34
-2.77991e+34
-4.07325e+34
3.38978e+34
-4.7477e+34
1.042e+34
-5.41042e+34
1.39364e+35
1.39364e+35
-2.24986e+34
-2.24986e+34
-2.71777e+34
-2.77841e+34
-4.1572e+34
3.59186e+34
-4.92069e+34
1.42163e+34
-5.45737e+34
1.44432e+35
1.39364e+35
-2.24341e+34
-2.24341e+34
-2.72624e+34
-2.77939e+34
-4.21976e+34
3.85938e+34
-5.0154e+34
1.66077e+34
-5.68372e+34
1.48624e+35
1.39364e+35
-2.23861e+34
-2.23861e+34
-2.73062e+34
-2.77887e+34
-4.25231e+34
4.01404e+34
-5.05564e+34
1.79304e+34
-5.82488e+34
1.50968e+35
1.39364e+35
-2.23557e+34
-2.23557e+34
-2.7287e+34
-2.77425e+34
-4.2506e+34
4.04561e+34
-5.04978e+34
1.8289e+34
-5.85858e+34
1.51055e+35
1.39364e+35
-2.23435e+34
-2.23435e+34
-2.72021e+34
-2.76506e+34
-4.21348e+34
3.95475e+34
-4.99985e+34
1.76856e+34
-5.78465e+34
1.48775e+35
1.39364e+35
-2.2353e+34
-2.2353e+34
-2.70643e+34
-2.75314e+34
-4.14274e+34
3.74721e+34
-4.90699e+34
1.59538e+34
-5.61628e+34
1.44274e+35
1.39364e+35
-2.23893e+34
-2.23893e+34
-2.68992e+34
-2.74309e+34
-4.04437e+34
3.43513e+34
-4.7682e+34
1.26624e+34
-5.38115e+34
1.38048e+35
1.39364e+35
-2.2453e+34
-2.2453e+34
-2.67398e+34
-2.74204e+34
-3.93266e+34
3.04824e+34
-4.55062e+34
7.47741e+33
-5.11021e+34
1.31315e+35
1.39364e+35
-2.2453e+34
-2.2453e+34
-2.67398e+34
-2.74204e+34
-3.93266e+34
3.04824e+34
-4.55062e+34
7.47741e+33
-5.11021e+34
1.31315e+35
1.39364e+35
-2.10482e+34
-2.10482e+34
-2.43281e+34
-2.46307e+34
-3.1424e+34
8.37973e+33
-5.76928e+34
-2.81916e+34
-9.35808e+34
8.18171e+34
8.18171e+34
-2.10482e+34
-2.10482e+34
-2.43281e+34
-2.46307e+34
-3.1424e+34
8.37973e+33
-5.76928e+34
-2.81916e+34
-9.35808e+34
8.18171e+34
8.18171e+34
-2.10343e+34
-2.10343e+34
-2.44371e+34
-2.46715e+34
-3.19785e+34
9.47598e+33
-5.95245e+34
-2.9122e+34
-9.73987e+34
8.46811e+34
8.18171e+34
-2.10059e+34
-2.10059e+34
-2.45329e+34
-2.47121e+34
-3.23745e+34
1.0795e+34
-6.0609e+34
-2.9949e+34
-1.01601e+35
8.68729e+34
8.18171e+34
-2.09814e+34
-2.09814e+34
-2.45813e+34
-2.47257e+34
-3.25748e+34
1.15316e+34
-6.12662e+34
-3.03199e+34
-1.04046e+35
8.80456e+34
8.18171e+34
-2.09593e+34
-2.09593e+34
-2.45671e+34
-2.46935e+34
-3.25564e+34
1.16872e+34
-6.12469e+34
-3.03043e+34
-1.04452e+35
8.80405e+34
8.18171e+34
-2.09404e+34
-2.09404e+34
-2.44893e+34
-2.46115e+34
-3.23146e+34
1.1272e+34
-6.04736e+34
-2.99344e+34
-1.02771e+35
8.68157e+34
8.18171e+34
-2.09283e+34
-2.09283e+34
-2.43574e+34
-2.44934e+34
-3.18615e+34
1.02999e+34
-5.90074e+34
-2.92611e+34
-9.91153e+34
8.44414e+34
8.18171e+34
-2.09287e+34
-2.09287e+34
-2.41904e+34
-2.43706e+34
-3.12327e+34
8.81083e+33
-5.70878e+34
-2.83596e+34
-9.38324e+34
8.1132e+34
8.18171e+34
-2.09466e+34
-2.09466e+34
-2.40169e+34
-2.42928e+34
-3.05042e+34
6.96395e+33
-5.51805e+34
-2.69828e+34
-8.76565e+34
7.73935e+34
8.18171e+34
-2.09466e+34
-2.09466e+34
-2.40169e+34
-2.42928e+34
-3.05042e+34
6.96395e+33
-5.51805e+34
-2.69828e+34
-8.76565e+34
7.73935e+34
8.18171e+34
-1.79217e+34
-1.79217e+34
-1.87879e+34
-1.82228e+34
-1.8056e+34
-6.53319e+33
-3.53374e+34
1.13003e+34
-4.25442e+34
2.99294e+34
2.99294e+34
-1.79217e+34
-1.79217e+34
-1.87879e+34
-1.82228e+34
-1.8056e+34
-6.53319e+33
-3.53374e+34
1.13003e+34
-4.25442e+34
2.99294e+34
2.99294e+34
-1.79219e+34
-1.79219e+34
-1.88274e+34
-1.82385e+34
-1.81573e+34
-6.5031e+33
-3.70938e+34
1.10052e+34
-4.55508e+34
3.01694e+34
2.99294e+34
-1.79177e+34
-1.79177e+34
-1.8858e+34
-1.8251e+34
-1.8243e+34
-6.39218e+33
-3.83508e+34
1.12338e+34
-4.79111e+34
3.03783e+34
2.99294e+34
-1.79089e+34
-1.79089e+34
-1.88696e+34
-1.82493e+34
-1.82814e+34
-6.29605e+33
-3.90747e+34
1.15061e+34
-4.92414e+34
3.04647e+34
2.99294e+34
-1.78955e+34
-1.78955e+34
-1.88569e+34
-1.82285e+34
-1.82614e+34
-6.25927e+33
-3.91597e+34
1.15678e+34
-4.94637e+34
3.03791e+34
2.99294e+34
-1.78784e+34
-1.78784e+34
-1.88198e+34
-1.81883e+34
-1.81813e+34
-6.2931e+33
-3.85814e+34
1.13485e+34
-4.85582e+34
3.01138e+34
2.99294e+34
-1.78602e+34
-1.78602e+34
-1.8763e+34
-1.81354e+34
-1.80497e+34
-6.39091e+33
-3.73518e+34
1.09063e+34
-4.65231e+34
2.97072e+34
2.99294e+34
-1.78446e+34
-1.78446e+34
-1.86953e+34
-1.80823e+34
-1.78896e+34
-6.52292e+33
-3.55358e+34
1.04937e+34
-4.34009e+34
2.92468e+34
2.99294e+34
-1.78353e+34
-1.78353e+34
-1.86309e+34
-1.80436e+34
-1.77525e+34
-6.6086e+33
-3.33501e+34
1.07431e+34
-3.94568e+34
2.88705e+34
2.99294e+34
-1.78353e+34
-1.78353e+34
-1.86309e+34
-1.80436e+34
-1.77525e+34
-6.6086e+33
-3.33501e+34
1.07431e+34
-3.94568e+34
2.88705e+34
2.99294e+34
-1.41575e+34
-1.41575e+34
-1.38718e+34
-1.25445e+34
-1.00467e+34
-2.94345e+33
-1.21499e+33
1.73347e+34
1.00746e+34
1.90226e+34
1.90226e+34
-1.41575e+34
-1.41575e+34
-1.38718e+34
-1.25445e+34
-1.00467e+34
-2.94345e+33
-1.21499e+33
1.73347e+34
1.00746e+34
1.90226e+34
1.90226e+34
-1.41563e+34
-1.41563e+34
-1.38722e+34
-1.25414e+34
-1.00568e+34
-2.91096e+33
-1.3456e+33
1.77588e+34
1.00917e+34
1.9075e+34
1.90226e+34
-1.4153e+34
-1.4153e+34
-1.38709e+34
-1.25365e+34
-1.00626e+34
-2.85761e+33
-1.39917e+33
1.81876e+34
1.00876e+34
1.91258e+34
1.90226e+34
-1.41473e+34
-1.41473e+34
-1.38661e+34
-1.25289e+34
-1.00606e+34
-2.81473e+33
-1.41599e+33
1.84597e+34
1.007e+34
1.91362e+34
1.90226e+34
-1.41393e+34
-1.41393e+34
-1.3857e+34
-1.25181e+34
-1.00512e+34
-2.80498e+33
-1.41835e+33
1.84854e+34
1.00366e+34
1.90851e+34
1.90226e+34
-1.41297e+34
-1.41297e+34
-1.38441e+34
-1.25047e+34
-1.00355e+34
-2.83613e+33
-1.41291e+33
1.82376e+34
9.98834e+33
1.89707e+34
1.90226e+34
-1.412e+34
-1.412e+34
-1.38295e+34
-1.24912e+34
-1.00154e+34
-2.90186e+33
-1.39124e+33
1.77464e+34
9.93373e+33
1.88119e+34
1.90226e+34
-1.41119e+34
-1.41119e+34
-1.38163e+34
-1.2481e+34
-9.99417e+33
-2.98156e+33
-1.32831e+33
1.7108e+34
9.88403e+33
1.86476e+34
1.90226e+34
-1.41073e+34
-1.41073e+34
-1.38086e+34
-1.24774e+34
-9.97705e+33
-3.04282e+33
-1.18522e+33
1.65037e+34
9.8387e+33
1.85332e+34
1.90226e+34
-1.41073e+34
-1.41073e+34
-1.38086e+34
-1.24774e+34
-9.97705e+33
-3.04282e+33
-1.18522e+33
1.65037e+34
9.8387e+33
1.85332e+34
1.90226e+34
-1.07037e+34
-1.07037e+34
-1.01011e+34
-8.5725e+33
-5.86789e+33
-1.18123e+33
3.58726e+33
1.00204e+34
1.11918e+34
1.33667e+34
1.33667e+34
-1.07037e+34
-1.07037e+34
-1.01011e+34
-8.5725e+33
-5.86789e+33
-1.18123e+33
3.58726e+33
1.00204e+34
1.11918e+34
1.33667e+34
1.33667e+34
-1.07028e+34
-1.07028e+34
-1.01003e+34
-8.57098e+33
-5.86635e+33
-1.16606e+33
3.62261e+33
1.01031e+34
1.12284e+34
1.33795e+34
1.33667e+34
-1.07006e+34
-1.07006e+34
-1.00984e+34
-8.56818e+33
-5.86312e+33
-1.14584e+33
3.66434e+33
1.0199e+34
1.12629e+34
1.33905e+34
1.33667e+34
-1.06974e+34
-1.06974e+34
-1.00952e+34
-8.56449e+33
-5.85963e+33
-1.13219e+33
3.69045e+33
1.02573e+34
1.12746e+34
1.33852e+34
1.33667e+34
-1.06931e+34
-1.06931e+34
-1.00908e+34
-8.56033e+33
-5.85746e+33
-1.13364e+33
3.68559e+33
1.02477e+34
1.12524e+34
1.33551e+34
1.33667e+34
-1.06884e+34
-1.06884e+34
-1.00856e+34
-8.55624e+33
-5.85746e+33
-1.15297e+33
3.64533e+33
1.01621e+34
1.11948e+34
1.33002e+34
1.33667e+34
-1.06838e+34
-1.06838e+34
-1.00804e+34
-8.55281e+33
-5.85939e+33
-1.18642e+33
3.57714e+33
1.00146e+34
1.11109e+34
1.32299e+34
1.33667e+34
-1.06802e+34
-1.06802e+34
-1.00761e+34
-8.55059e+33
-5.86209e+33
-1.22411e+33
3.49982e+33
9.84327e+33
1.10196e+34
1.31617e+34
1.33667e+34
-1.06782e+34
-1.06782e+34
-1.00737e+34
-8.54978e+33
-5.86407e+33
-1.25217e+33
3.43947e+33
9.71136e+33
1.09496e+34
1.31177e+34
1.33667e+34
-1.06782e+34
-1.06782e+34
-1.00737e+34
-8.54978e+33
-5.86407e+33
-1.25217e+33
3.43947e+33
9.71136e+33
1.09496e+34
1.31177e+34
1.33667e+34
-7.86117e+33
-7.86117e+33
-7.22682e+33
-5.83749e+33
-3.59394e+33
-4.19877e+32
3.08496e+33
6.48573e+33
8.31967e+33
9.49329e+33
9.49329e+33
-7.86117e+33
-7.86117e+33
-7.22682e+33
-5.83749e+33
-3.59394e+33
-4.19877e+32
3.08496e+33
6.48573e+33
8.31967e+33
9.49329e+33
9.49329e+33
-7.86062e+33
-7.86062e+33
-7.22632e+33
-5.8369e+33
-3.59307e+33
-4.16177e+32
3.09478e+33
6.49935e+33
8.32608e+33
9.49452e+33
9.49329e+33
-7.8595e+33
-7.8595e+33
-7.22528e+33
-5.83583e+33
-3.59179e+33
-4.11513e+32
3.10608e+33
6.51546e+33
8.3316e+33
9.49335e+33
9.49329e+33
-7.85787e+33
-7.85787e+33
-7.22378e+33
-5.83457e+33
-3.59103e+33
-4.09619e+32
3.11094e+33
6.52191e+33
8.32906e+33
9.48544e+33
9.49329e+33
-7.85588e+33
-7.85588e+33
-7.22195e+33
-5.83343e+33
-3.59163e+33
-4.13258e+32
3.10388e+33
6.51064e+33
8.31416e+33
9.46822e+33
9.49329e+33
-7.85377e+33
-7.85377e+33
-7.22002e+33
-5.83261e+33
-3.59386e+33
-4.23087e+32
3.08374e+33
6.48007e+33
8.28683e+33
9.44239e+33
9.49329e+33
-7.85181e+33
-7.85181e+33
-7.21825e+33
-5.83221e+33
-3.59724e+33
-4.37237e+32
3.05423e+33
6.43581e+33
8.25171e+33
9.41221e+33
9.49329e+33
-7.85032e+33
-7.85032e+33
-7.2169e+33
-5.83216e+33
-3.60071e+33
-4.51654e+32
3.02343e+33
6.39014e+33
8.21753e+33
9.3848e+33
9.49329e+33
-7.84954e+33
-7.84954e+33
-7.21621e+33
-5.83228e+33
-3.603e+33
-4.61208e+32
3.00209e+33
6.35968e+33
8.19532e+33
9.36816e+33
9.49329e+33
-7.84954e+33
-7.84954e+33
-7.21621e+33
-5.83228e+33
-3.603e+33
-4.61208e+32
3.00209e+33
6.35968e+33
8.19532e+33
9.36816e+33
9.49329e+33
-5.65699e+33
-5.65699e+33
-5.106e+33
-3.97482e+33
-2.26443e+33
-5.95422e+31
2.32665e+33
4.50056e+33
5.96902e+33
6.76715e+33
6.76715e+33
-5.65699e+33
-5.65699e+33
-5.106e+33
-3.97482e+33
-2.26443e+33
-5.95422e+31
2.32665e+33
4.50056e+33
5.96902e+33
6.76715e+33
6.76715e+33
-5.65676e+33
-5.65676e+33
-5.10581e+33
-3.9747e+33
-2.26433e+33
-5.90687e+31
2.32802e+33
4.50208e+33
5.96907e+33
6.76606e+33
6.76715e+33
-5.65627e+33
-5.65627e+33
-5.10542e+33
-3.97447e+33
-2.26431e+33
-5.88007e+31
2.3291e+33
4.50307e+33
5.96774e+33
6.76307e+33
6.76715e+33
-5.65558e+33
-5.65558e+33
-5.10487e+33
-3.97427e+33
-2.26472e+33
-5.97616e+31
2.32781e+33
4.50085e+33
5.96328e+33
6.75712e+33
6.76715e+33
-5.65475e+33
-5.65475e+33
-5.10425e+33
-3.97422e+33
-2.26582e+33
-6.26757e+31
2.32276e+33
4.49366e+33
5.95467e+33
6.74774e+33
6.76715e+33
-5.65391e+33
-5.65391e+33
-5.10364e+33
-3.97436e+33
-2.26761e+33
-6.75531e+31
2.31391e+33
4.48153e+33
5.94233e+33
6.7356e+33
6.76715e+33
-5.65316e+33
-5.65316e+33
-5.10314e+33
-3.97467e+33
-2.2698e+33
-7.35495e+31
2.30281e+33
4.46656e+33
5.92826e+33
6.72257e+33
6.76715e+33
-5.65262e+33
-5.65262e+33
-5.10279e+33
-3.97503e+33
-2.27183e+33
-7.91434e+31
2.29229e+33
4.45256e+33
5.91567e+33
6.71138e+33
6.76715e+33
-5.65236e+33
-5.65236e+33
-5.10265e+33
-3.97531e+33
-2.2731e+33
-8.26124e+31
2.28567e+33
4.44391e+33
5.90807e+33
6.70483e+33
6.76715e+33
-5.65236e+33
-5.65236e+33
-5.10265e+33
-3.97531e+33
-2.2731e+33
-8.26124e+31
2.28567e+33
4.44391e+33
5.90807e+33
6.70483e+33
6.76715e+33
-4.00631e+33
-4.00631e+33
-3.56778e+33
-2.6981e+33
-1.43754e+33
1.10325e+32
1.74562e+33
3.21684e+33
4.28005e+33
4.84415e+33
4.84415e+33
-4.00631e+33
-4.00631e+33
-3.56778e+33
-2.6981e+33
-1.43754e+33
1.10325e+32
1.74562e+33
3.21684e+33
4.28005e+33
4.84415e+33
4.84415e+33
-4.00625e+33
-4.00625e+33
-3.56776e+33
-2.69816e+33
-1.4377e+33
1.10099e+32
1.74537e+33
3.21644e+33
4.27925e+33
4.84306e+33
4.84415e+33
-4.00609e+33
-4.00609e+33
-3.56767e+33
-2.69824e+33
-1.43802e+33
1.09528e+32
1.7446e+33
3.21527e+33
4.27743e+33
4.84079e+33
4.84415e+33
-4.00585e+33
-4.00585e+33
-3.56755e+33
-2.69838e+33
-1.43861e+33
1.08381e+32
1.74286e+33
3.21284e+33
4.27425e+33
4.83716e+33
4.84415e+33
-4.00558e+33
-4.00558e+33
-3.56743e+33
-2.69862e+33
-1.4395e+33
1.06534e+32
1.73991e+33
3.20889e+33
4.26965e+33
4.83225e+33
4.84415e+33
-4.00531e+33
-4.00531e+33
-3.56733e+33
-2.69895e+33
-1.44065e+33
1.04095e+32
1.73592e+33
3.20366e+33
4.26399e+33
4.82649e+33
4.84415e+33
-4.00508e+33
-4.00508e+33
-3.56726e+33
-2.69932e+33
-1.44188e+33
1.01439e+32
1.73153e+33
3.19796e+33
4.2581e+33
4.8207e+33
4.84415e+33
-4.00493e+33
-4.00493e+33
-3.56725e+33
-2.69966e+33
-1.44294e+33
9.91288e+31
1.72767e+33
3.19302e+33
4.25315e+33
4.81595e+33
4.84415e+33
-4.00489e+33
-4.00489e+33
-3.56728e+33
-2.6999e+33
-1.4436e+33
9.77427e+31
1.72537e+33
3.1901e+33
4.25026e+33
4.81323e+33
4.84415e+33
-4.00489e+33
-4.00489e+33
-3.56728e+33
-2.6999e+33
-1.4436e+33
9.77427e+31
1.72537e+33
3.1901e+33
4.25026e+33
4.81323e+33
4.84415e+33
-2.79566e+33
-2.79566e+33
-2.46245e+33
-1.81478e+33
-9.00479e+32
1.9131e+32
1.32508e+33
2.34082e+33
3.09181e+33
3.4905e+33
3.4905e+33
-2.79566e+33
-2.79566e+33
-2.46245e+33
-1.81478e+33
-9.00479e+32
1.9131e+32
1.32508e+33
2.34082e+33
3.09181e+33
3.4905e+33
3.4905e+33
-2.79568e+33
-2.79568e+33
-2.46249e+33
-1.81488e+33
-9.0066e+32
1.91034e+32
1.32471e+33
2.34033e+33
3.09118e+33
3.48978e+33
3.4905e+33
-2.79566e+33
-2.79566e+33
-2.46253e+33
-1.81503e+33
-9.00979e+32
1.90506e+32
1.32396e+33
2.33933e+33
3.08995e+33
3.4884e+33
3.4905e+33
-2.79563e+33
-2.79563e+33
-2.46258e+33
-1.81523e+33
-9.01446e+32
1.89698e+32
1.32278e+33
2.33778e+33
3.0881e+33
3.48639e+33
3.4905e+33
-2.79559e+33
-2.79559e+33
-2.46263e+33
-1.81549e+33
-9.02046e+32
1.88626e+32
1.32118e+33
2.33572e+33
3.08572e+33
3.48386e+33
3.4905e+33
-2.79555e+33
-2.79555e+33
-2.46269e+33
-1.81578e+33
-9.02731e+32
1.87381e+32
1.3193e+33
2.33332e+33
3.08305e+33
3.48109e+33
3.4905e+33
-2.79553e+33
-2.79553e+33
-2.46276e+33
-1.81608e+33
-9.03413e+32
1.86131e+32
1.3174e+33
2.33092e+33
3.08044e+33
3.47843e+33
3.4905e+33
-2.79554e+33
-2.79554e+33
-2.46285e+33
-1.81633e+33
-9.03982e+32
1.85094e+32
1.31583e+33
2.32894e+33
3.07834e+33
3.47631e+33
3.4905e+33
-2.79558e+33
-2.79558e+33
-2.46293e+33
-1.81651e+33
-9.04336e+32
1.84474e+32
1.3149e+33
2.32779e+33
3.07712e+33
3.47511e+33
3.4905e+33
-2.79558e+33
-2.79558e+33
-2.46293e+33
-1.81651e+33
-9.04336e+32
1.84474e+32
1.3149e+33
2.32779e+33
3.07712e+33
3.47511e+33
3.4905e+33
-1.91906e+33
-1.91906e+33
-1.67251e+33
-1.19905e+33
-5.41592e+32
2.30331e+32
1.02276e+33
1.73043e+33
2.25768e+33
2.53839e+33
2.53839e+33
-1.91906e+33
-1.91906e+33
-1.67251e+33
-1.19905e+33
-5.41592e+32
2.30331e+32
1.02276e+33
1.73043e+33
2.25768e+33
2.53839e+33
2.53839e+33
-1.91911e+33
-1.91911e+33
-1.67257e+33
-1.19914e+33
-5.41738e+32
2.30124e+32
1.02248e+33
1.73009e+33
2.25728e+33
2.53797e+33
2.53839e+33
-1.91915e+33
-1.91915e+33
-1.67265e+33
-1.19928e+33
-5.41975e+32
2.29766e+32
1.02199e+33
1.72947e+33
2.25656e+33
2.53719e+33
2.53839e+33
-1.9192e+33
-1.9192e+33
-1.67273e+33
-1.19946e+33
-5.42293e+32
2.29268e+32
1.0213e+33
1.7286e+33
2.25556e+33
2.53612e+33
2.53839e+33
-1.91924e+33
-1.91924e+33
-1.67283e+33
-1.19967e+33
-5.42673e+32
2.28663e+32
1.02045e+33
1.72753e+33
2.25434e+33
2.53483e+33
2.53839e+33
-1.91929e+33
-1.91929e+33
-1.67294e+33
-1.19989e+33
-5.43081e+32
2.28006e+32
1.01952e+33
1.72638e+33
2.25304e+33
2.53347e+33
2.53839e+33
-1.91935e+33
-1.91935e+33
-1.67304e+33
-1.2001e+33
-5.43471e+32
2.27378e+32
1.01864e+33
1.72528e+33
2.25182e+33
2.5322e+33
2.53839e+33
-1.91941e+33
-1.91941e+33
-1.67314e+33
-1.20029e+33
-5.43794e+32
2.26866e+32
1.01792e+33
1.72439e+33
2.25086e+33
2.5312e+33
2.53839e+33
-1.91948e+33
-1.91948e+33
-1.67323e+33
-1.20042e+33
-5.44006e+32
2.2655e+32
1.01749e+33
1.72387e+33
2.25029e+33
2.53062e+33
2.53839e+33
-1.91948e+33
-1.91948e+33
-1.67323e+33
-1.20042e+33
-5.44006e+32
2.2655e+32
1.01749e+33
1.72387e+33
2.25029e+33
2.53062e+33
2.53839e+33
-1.28949e+33
-1.28949e+33
-1.10994e+33
-7.67701e+32
-2.97366e+32
2.49033e+32
8.05605e+32
1.30115e+33
1.67111e+33
1.8684e+33
1.8684e+33
-1.28949e+33
-1.28949e+33
-1.10994e+33
-7.67701e+32
-2.97366e+32
2.49033e+32
8.05605e+32
1.30115e+33
1.67111e+33
1.8684e+33
1.8684e+33
-1.28955e+33
-1.28955e+33
-1.11e+33
-7.67785e+32
-2.97477e+32
2.4889e+32
8.05427e+32
1.30094e+33
1.67088e+33
1.86815e+33
1.8684e+33
-1.28962e+33
-1.28962e+33
-1.11008e+33
-7.67899e+32
-2.97641e+32
2.48662e+32
8.05132e+32
1.30059e+33
1.67047e+33
1.86772e+33
1.8684e+33
-1.28968e+33
-1.28968e+33
-1.11017e+33
-7.68038e+32
-2.97851e+32
2.48364e+32
8.04739e+32
1.30011e+33
1.66993e+33
1.86715e+33
1.8684e+33
-1.28976e+33
-1.28976e+33
-1.11027e+33
-7.68193e+32
-2.98091e+32
2.48017e+32
8.04278e+32
1.29955e+33
1.6693e+33
1.86648e+33
1.8684e+33
-1.28983e+33
-1.28983e+33
-1.11038e+33
-7.68355e+32
-2.98341e+32
2.47654e+32
8.03796e+32
1.29896e+33
1.66864e+33
1.86579e+33
1.8684e+33
-1.28991e+33
-1.28991e+33
-1.11048e+33
-7.6851e+32
-2.98578e+32
2.47314e+32
8.03345e+32
1.29842e+33
1.66804e+33
1.86516e+33
1.8684e+33
-1.28999e+33
-1.28999e+33
-1.11058e+33
-7.68647e+32
-2.98777e+32
2.47035e+32
8.0298e+32
1.29798e+33
1.66756e+33
1.86466e+33
1.8684e+33
-1.29006e+33
-1.29006e+33
-1.11066e+33
-7.68756e+32
-2.98919e+32
2.46849e+32
8.02748e+32
1.29771e+33
1.66726e+33
1.86435e+33
1.8684e+33
-1.29006e+33
-1.29006e+33
-1.11066e+33
-7.68756e+32
-2.98919e+32
2.46849e+32
8.02748e+32
1.29771e+33
1.66726e+33
1.86435e+33
1.8684e+33
-8.39787e+32
-8.39787e+32
-7.10301e+32
-4.64658e+32
-1.2929e+32
2.5766e+32
6.49715e+32
9.97839e+32
1.2577e+33
1.39634e+33
1.39634e+33
-8.39787e+32
-8.39787e+32
-7.10301e+32
-4.64658e+32
-1.2929e+32
2.5766e+32
6.49715e+32
9.97839e+32
1.2577e+33
1.39634e+33
1.39634e+33
-8.39846e+32
-8.39846e+32
-7.10364e+32
-4.6473e+32
-1.29375e+32
2.57558e+32
6.49596e+32
9.97704e+32
1.25756e+33
1.39619e+33
1.39634e+33
-8.39911e+32
-8.39911e+32
-7.10438e+32
-4.64822e+32
-1.29492e+32
2.5741e+32
6.49415e+32
9.97494e+32
1.25733e+33
1.39595e+33
1.39634e+33
-8.39983e+32
-8.39983e+32
-7.10522e+32
-4.64929e+32
-1.29634e+32
2.57226e+32
6.49186e+32
9.97225e+32
1.25703e+33
1.39563e+33
1.39634e+33
-8.40058e+32
-8.40058e+32
-7.10611e+32
-4.65046e+32
-1.29792e+32
2.57018e+32
6.48925e+32
9.96917e+32
1.25669e+33
1.39527e+33
1.39634e+33
-8.40137e+32
-8.40137e+32
-7.10704e+32
-4.65167e+32
-1.29955e+32
2.56803e+32
6.48657e+32
9.96602e+32
1.25634e+33
1.39491e+33
1.39634e+33
-8.40216e+32
-8.40216e+32
-7.10796e+32
-4.65285e+32
-1.3011e+32
2.56602e+32
6.48406e+32
9.96309e+32
1.25602e+33
1.39457e+33
1.39634e+33
-8.40295e+32
-8.40295e+32
-7.10883e+32
-4.65392e+32
-1.30246e+32
2.56431e+32
6.48198e+32
9.96069e+32
1.25575e+33
1.3943e+33
1.39634e+33
-8.40371e+32
-8.40371e+32
-7.10965e+32
-4.65483e+32
-1.30352e+32
2.56305e+32
6.48053e+32
9.95907e+32
1.25558e+33
1.39412e+33
1.39634e+33
-8.40371e+32
-8.40371e+32
-7.10965e+32
-4.65483e+32
-1.30352e+32
2.56305e+32
6.48053e+32
9.95907e+32
1.25558e+33
1.39412e+33
1.39634e+33
-5.19786e+32
-5.19786e+32
-4.26991e+32
-2.51477e+32
-1.28723e+31
2.61193e+32
5.37839e+32
7.82922e+32
9.65716e+32
1.06321e+33
1.06321e+33
-5.19786e+32
-5.19786e+32
-4.26991e+32
-2.51477e+32
-1.28723e+31
2.61193e+32
5.37839e+32
7.82922e+32
9.65716e+32
1.06321e+33
1.06321e+33
-5.19843e+32
-5.19843e+32
-4.27051e+32
-2.51541e+32
-1.29426e+31
2.61115e+32