# vtk DataFile Version 2.0
FlowField
ASCII
DATASET STRUCTURED_GRID
DIMENSIONS 62 47 32 
POINTS 93248 double
0 0 0
0.01 0 0
0.02 0 0
0.03 0 0
0.04 0 0
0.05 0 0
0.06 0 0
0.07 0 0
0.08 0 0
0.09 0 0
0.1 0 0
0.11 0 0
0.12 0 0
0.13 0 0
0.14 0 0
0.15 0 0
0.16 0 0
0.17 0 0
0.18 0 0
0.19 0 0
0.2 0 0
0.21 0 0
0.22 0 0
0.23 0 0
0.24 0 0
0.25 0 0
0.26 0 0
0.27 0 0
0.28 0 0
0.29 0 0
0.3 0 0
0.31 0 0
0.32 0 0
0.33 0 0
0.34 0 0
0.35 0 0
0.36 0 0
0.37 0 0
0.38 0 0
0.39 0 0
0.4 0 0
0.41 0 0
0.42 0 0
0.43 0 0
0.44 0 0
0.45 0 0
0.46 0 0
0.47 0 0
0.48 0 0
0.49 0 0
0.5 0 0
0.51 0 0
0.52 0 0
0.53 0 0
0.54 0 0
0.55 0 0
0.56 0 0
0.57 0 0
0.58 0 0
0.59 0 0
0.6 0 0
0.61 0 0
0 0.01 0
0.01 0.01 0
0.02 0.01 0
0.03 0.01 0
0.04 0.01 0
0.05 0.01 0
0.06 0.01 0
0.07 0.01 0
0.08 0.01 0
0.09 0.01 0
0.1 0.01 0
0.11 0.01 0
0.12 0.01 0
0.13 0.01 0
0.14 0.01 0
0.15 0.01 0
0.16 0.01 0
0.17 0.01 0
0.18 0.01 0
0.19 0.01 0
0.2 0.01 0
0.21 0.01 0
0.22 0.01 0
0.23 0.01 0
0.24 0.01 0
0.25 0.01 0
0.26 0.01 0
0.27 0.01 0
0.28 0.01 0
0.29 0.01 0
0.3 0.01 0
0.31 0.01 0
0.32 0.01 0
0.33 0.01 0
0.34 0.01 0
0.35 0.01 0
0.36 0.01 0
0.37 0.01 0
0.38 0.01 0
0.39 0.01 0
0.4 0.01 0
0.41 0.01 0
0.42 0.01 0
0.43 0.01 0
0.44 0.01 0
0.45 0.01 0
0.46 0.01 0
0.47 0.01 0
0.48 0.01 0
0.49 0.01 0
0.5 0.01 0
0.51 0.01 0
0.52 0.01 0
0.53 0.01 0
0.54 0.01 0
0.55 0.01 0
0.56 0.01 0
0.57 0.01 0
0.58 0.01 0
0.59 0.01 0
0.6 0.01 0
0.61 0.01 0
0 0.02 0
0.01 0.02 0
0.02 0.02 0
0.03 0.02 0
0.04 0.02 0
0.05 0.02 0
0.06 0.02 0
0.07 0.02 0
0.08 0.02 0
0.09 0.02 0
0.1 0.02 0
0.11 0.02 0
0.12 0.02 0
0.13 0.02 0
0.14 0.02 0
0.15 0.02 0
0.16 0.02 0
0.17 0.02 0
0.18 0.02 0
0.19 0.02 0
0.2 0.02 0
0.21 0.02 0
0.22 0.02 0
0.23 0.02 0
0.24 0.02 0
0.25 0.02 0
0.26 0.02 0
0.27 0.02 0
0.28 0.02 0
0.29 0.02 0
0.3 0.02 0
0.31 0.02 0
0.32 0.02 0
0.33 0.02 0
0.34 0.02 0
0.35 0.02 0
0.36 0.02 0
0.37 0.02 0
0.38 0.02 0
0.39 0.02 0
0.4 0.02 0
0.41 0.02 0
0.42 0.02 0
0.43 0.02 0
0.44 0.02 0
0.45 0.02 0
0.46 0.02 0
0.47 0.02 0
0.48 0.02 0
0.49 0.02 0
0.5 0.02 0
0.51 0.02 0
0.52 0.02 0
0.53 0.02 0
0.54 0.02 0
0.55 0.02 0
0.56 0.02 0
0.57 0.02 0
0.58 0.02 0
0.59 0.02 0
0.6 0.02 0
0.61 0.02 0
0 0.03 0
0.01 0.03 0
0.02 0.03 0
0.03 0.03 0
0.04 0.03 0
0.05 0.03 0
0.06 0.03 0
0.07 0.03 0
0.08 0.03 0
0.09 0.03 0
0.1 0.03 0
0.11 0.03 0
0.12 0.03 0
0.13 0.03 0
0.14 0.03 0
0.15 0.03 0
0.16 0.03 0
0.17 0.03 0
0.18 0.03 0
0.19 0.03 0
0.2 0.03 0
0.21 0.03 0
0.22 0.03 0
0.23 0.03 0
0.24 0.03 0
0.25 0.03 0
0.26 0.03 0
0.27 0.03 0
0.28 0.03 0
0.29 0.03 0
0.3 0.03 0
0.31 0.03 0
0.32 0.03 0
0.33 0.03 0
0.34 0.03 0
0.35 0.03 0
0.36 0.03 0
0.37 0.03 0
0.38 0.03 0
0.39 0.03 0
0.4 0.03 0
0.41 0.03 0
0.42 0.03 0
0.43 0.03 0
0.44 0.03 0
0.45 0.03 0
0.46 0.03 0
0.47 0.03 0
0.48 0.03 0
0.49 0.03 0
0.5 0.03 0
0.51 0.03 0
0.52 0.03 0
0.53 0.03 0
0.54 0.03 0
0.55 0.03 0
0.56 0.03 0
0.57 0.03 0
0.58 0.03 0
0.59 0.03 0
0.6 0.03 0
0.61 0.03 0
0 0.04 0
0.01 0.04 0
0.02 0.04 0
0.03 0.04 0
0.04 0.04 0
0.05 0.04 0
0.06 0.04 0
0.07 0.04 0
0.08 0.04 0
0.09 0.04 0
0.1 0.04 0
0.11 0.04 0
0.12 0.04 0
0.13 0.04 0
0.14 0.04 0
0.15 0.04 0
0.16 0.04 0
0.17 0.04 0
0.18 0.04 0
0.19 0.04 0
0.2 0.04 0
0.21 0.04 0
0.22 0.04 0
0.23 0.04 0
0.24 0.04 0
0.25 0.04 0
0.26 0.04 0
0.27 0.04 0
0.28 0.04 0
0.29 0.04 0
0.3 0.04 0
0.31 0.04 0
0.32 0.04 0
0.33 0.04 0
0.34 0.04 0
0.35 0.04 0
0.36 0.04 0
0.37 0.04 0
0.38 0.04 0
0.39 0.04 0
0.4 0.04 0
0.41 0.04 0
0.42 0.04 0
0.43 0.04 0
0.44 0.04 0
0.45 0.04 0
0.46 0.04 0
0.47 0.04 0
0.48 0.04 0
0.49 0.04 0
0.5 0.04 0
0.51 0.04 0
0.52 0.04 0
0.53 0.04 0
0.54 0.04 0
0.55 0.04 0
0.56 0.04 0
0.57 0.04 0
0.58 0.04 0
0.59 0.04 0
0.6 0.04 0
0.61 0.04 0
0 0.05 0
0.01 0.05 0
0.02 0.05 0
0.03 0.05 0
0.04 0.05 0
0.05 0.05 0
0.06 0.05 0
0.07 0.05 0
0.08 0.05 0
0.09 0.05 0
0.1 0.05 0
0.11 0.05 0
0.12 0.05 0
0.13 0.05 0
0.14 0.05 0
0.15 0.05 0
0.16 0.05 0
0.17 0.05 0
0.18 0.05 0
0.19 0.05 0
0.2 0.05 0
0.21 0.05 0
0.22 0.05 0
0.23 0.05 0
0.24 0.05 0
0.25 0.05 0
0.26 0.05 0
0.27 0.05 0
0.28 0.05 0
0.29 0.05 0
0.3 0.05 0
0.31 0.05 0
0.32 0.05 0
0.33 0.05 0
0.34 0.05 0
0.35 0.05 0
0.36 0.05 0
0.37 0.05 0
0.38 0.05 0
0.39 0.05 0
0.4 0.05 0
0.41 0.05 0
0.42 0.05 0
0.43 0.05 0
0.44 0.05 0
0.45 0.05 0
0.46 0.05 0
0.47 0.05 0
0.48 0.05 0
0.49 0.05 0
0.5 0.05 0
0.51 0.05 0
0.52 0.05 0
0.53 0.05 0
0.54 0.05 0
0.55 0.05 0
0.56 0.05 0
0.57 0.05 0
0.58 0.05 0
0.59 0.05 0
0.6 0.05 0
0.61 0.05 0
0 0.06 0
0.01 0.06 0
0.02 0.06 0
0.03 0.06 0
0.04 0.06 0
0.05 0.06 0
0.06 0.06 0
0.07 0.06 0
0.08 0.06 0
0.09 0.06 0
0.1 0.06 0
0.11 0.06 0
0.12 0.06 0
0.13 0.06 0
0.14 0.06 0
0.15 0.06 0
0.16 0.06 0
0.17 0.06 0
0.18 0.06 0
0.19 0.06 0
0.2 0.06 0
0.21 0.06 0
0.22 0.06 0
0.23 0.06 0
0.24 0.06 0
0.25 0.06 0
0.26 0.06 0
0.27 0.06 0
0.28 0.06 0
0.29 0.06 0
0.3 0.06 0
0.31 0.06 0
0.32 0.06 0
0.33 0.06 0
0.34 0.06 0
0.35 0.06 0
0.36 0.06 0
0.37 0.06 0
0.38 0.06 0
0.39 0.06 0
0.4 0.06 0
0.41 0.06 0
0.42 0.06 0
0.43 0.06 0
0.44 0.06 0
0.45 0.06 0
0.46 0.06 0
0.47 0.06 0
0.48 0.06 0
0.49 0.06 0
0.5 0.06 0
0.51 0.06 0
0.52 0.06 0
0.53 0.06 0
0.54 0.06 0
0.55 0.06 0
0.56 0.06 0
0.57 0.06 0
0.58 0.06 0
0.59 0.06 0
0.6 0.06 0
0.61 0.06 0
0 0.07 0
0.01 0.07 0
0.02 0.07 0
0.03 0.07 0
0.04 0.07 0
0.05 0.07 0
0.06 0.07 0
0.07 0.07 0
0.08 0.07 0
0.09 0.07 0
0.1 0.07 0
0.11 0.07 0
0.12 0.07 0
0.13 0.07 0
0.14 0.07 0
0.15 0.07 0
0.16 0.07 0
0.17 0.07 0
0.18 0.07 0
0.19 0.07 0
0.2 0.07 0
0.21 0.07 0
0.22 0.07 0
0.23 0.07 0
0.24 0.07 0
0.25 0.07 0
0.26 0.07 0
0.27 0.07 0
0.28 0.07 0
0.29 0.07 0
0.3 0.07 0
0.31 0.07 0
0.32 0.07 0
0.33 0.07 0
0.34 0.07 0
0.35 0.07 0
0.36 0.07 0
0.37 0.07 0
0.38 0.07 0
0.39 0.07 0
0.4 0.07 0
0.41 0.07 0
0.42 0.07 0
0.43 0.07 0
0.44 0.07 0
0.45 0.07 0
0.46 0.07 0
0.47 0.07 0
0.48 0.07 0
0.49 0.07 0
0.5 0.07 0
0.51 0.07 0
0.52 0.07 0
0.53 0.07 0
0.54 0.07 0
0.55 0.07 0
0.56 0.07 0
0.57 0.07 0
0.58 0.07 0
0.59 0.07 0
0.6 0.07 0
0.61 0.07 0
0 0.08 0
0.01 0.08 0
0.02 0.08 0
0.03 0.08 0
0.04 0.08 0
0.05 0.08 0
0.06 0.08 0
0.07 0.08 0
0.08 0.08 0
0.09 0.08 0
0.1 0.08 0
0.11 0.08 0
0.12 0.08 0
0.13 0.08 0
0.14 0.08 0
0.15 0.08 0
0.16 0.08 0
0.17 0.08 0
0.18 0.08 0
0.19 0.08 0
0.2 0.08 0
0.21 0.08 0
0.22 0.08 0
0.23 0.08 0
0.24 0.08 0
0.25 0.08 0
0.26 0.08 0
0.27 0.08 0
0.28 0.08 0
0.29 0.08 0
0.3 0.08 0
0.31 0.08 0
0.32 0.08 0
0.33 0.08 0
0.34 0.08 0
0.35 0.08 0
0.36 0.08 0
0.37 0.08 0
0.38 0.08 0
0.39 0.08 0
0.4 0.08 0
0.41 0.08 0
0.42 0.08 0
0.43 0.08 0
0.44 0.08 0
0.45 0.08 0
0.46 0.08 0
0.47 0.08 0
0.48 0.08 0
0.49 0.08 0
0.5 0.08 0
0.51 0.08 0
0.52 0.08 0
0.53 0.08 0
0.54 0.08 0
0.55 0.08 0
0.56 0.08 0
0.57 0.08 0
0.58 0.08 0
0.59 0.08 0
0.6 0.08 0
0.61 0.08 0
0 0.09 0
0.01 0.09 0
0.02 0.09 0
0.03 0.09 0
0.04 0.09 0
0.05 0.09 0
0.06 0.09 0
0.07 0.09 0
0.08 0.09 0
0.09 0.09 0
0.1 0.09 0
0.11 0.09 0
0.12 0.09 0
0.13 0.09 0
0.14 0.09 0
0.15 0.09 0
0.16 0.09 0
0.17 0.09 0
0.18 0.09 0
0.19 0.09 0
0.2 0.09 0
0.21 0.09 0
0.22 0.09 0
0.23 0.09 0
0.24 0.09 0
0.25 0.09 0
0.26 0.09 0
0.27 0.09 0
0.28 0.09 0
0.29 0.09 0
0.3 0.09 0
0.31 0.09 0
0.32 0.09 0
0.33 0.09 0
0.34 0.09 0
0.35 0.09 0
0.36 0.09 0
0.37 0.09 0
0.38 0.09 0
0.39 0.09 0
0.4 0.09 0
0.41 0.09 0
0.42 0.09 0
0.43 0.09 0
0.44 0.09 0
0.45 0.09 0
0.46 0.09 0
0.47 0.09 0
0.48 0.09 0
0.49 0.09 0
0.5 0.09 0
0.51 0.09 0
0.52 0.09 0
0.53 0.09 0
0.54 0.09 0
0.55 0.09 0
0.56 0.09 0
0.57 0.09 0
0.58 0.09 0
0.59 0.09 0
0.6 0.09 0
0.61 0.09 0
0 0.1 0
0.01 0.1 0
0.02 0.1 0
0.03 0.1 0
0.04 0.1 0
0.05 0.1 0
0.06 0.1 0
0.07 0.1 0
0.08 0.1 0
0.09 0.1 0
0.1 0.1 0
0.11 0.1 0
0.12 0.1 0
0.13 0.1 0
0.14 0.1 0
0.15 0.1 0
0.16 0.1 0
0.17 0.1 0
0.18 0.1 0
0.19 0.1 0
0.2 0.1 0
0.21 0.1 0
0.22 0.1 0
0.23 0.1 0
0.24 0.1 0
0.25 0.1 0
0.26 0.1 0
0.27 0.1 0
0.28 0.1 0
0.29 0.1 0
0.3 0.1 0
0.31 0.1 0
0.32 0.1 0
0.33 0.1 0
0.34 0.1 0
0.35 0.1 0
0.36 0.1 0
0.37 0.1 0
0.38 0.1 0
0.39 0.1 0
0.4 0.1 0
0.41 0.1 0
0.42 0.1 0
0.43 0.1 0
0.44 0.1 0
0.45 0.1 0
0.46 0.1 0
0.47 0.1 0
0.48 0.1 0
0.49 0.1 0
0.5 0.1 0
0.51 0.1 0
0.52 0.1 0
0.53 0.1 0
0.54 0.1 0
0.55 0.1 0
0.56 0.1 0
0.57 0.1 0
0.58 0.1 0
0.59 0.1 0
0.6 0.1 0
0.61 0.1 0
0 0.11 0
0.01 0.11 0
0.02 0.11 0
0.03 0.11 0
0.04 0.11 0
0.05 0.11 0
0.06 0.11 0
0.07 0.11 0
0.08 0.11 0
0.09 0.11 0
0.1 0.11 0
0.11 0.11 0
0.12 0.11 0
0.13 0.11 0
0.14 0.11 0
0.15 0.11 0
0.16 0.11 0
0.17 0.11 0
0.18 0.11 0
0.19 0.11 0
0.2 0.11 0
0.21 0.11 0
0.22 0.11 0
0.23 0.11 0
0.24 0.11 0
0.25 0.11 0
0.26 0.11 0
0.27 0.11 0
0.28 0.11 0
0.29 0.11 0
0.3 0.11 0
0.31 0.11 0
0.32 0.11 0
0.33 0.11 0
0.34 0.11 0
0.35 0.11 0
0.36 0.11 0
0.37 0.11 0
0.38 0.11 0
0.39 0.11 0
0.4 0.11 0
0.41 0.11 0
0.42 0.11 0
0.43 0.11 0
0.44 0.11 0
0.45 0.11 0
0.46 0.11 0
0.47 0.11 0
0.48 0.11 0
0.49 0.11 0
0.5 0.11 0
0.51 0.11 0
0.52 0.11 0
0.53 0.11 0
0.54 0.11 0
0.55 0.11 0
0.56 0.11 0
0.57 0.11 0
0.58 0.11 0
0.59 0.11 0
0.6 0.11 0
0.61 0.11 0
0 0.12 0
0.01 0.12 0
0.02 0.12 0
0.03 0.12 0
0.04 0.12 0
0.05 0.12 0
0.06 0.12 0
0.07 0.12 0
0.08 0.12 0
0.09 0.12 0
0.1 0.12 0
0.11 0.12 0
0.12 0.12 0
0.13 0.12 0
0.14 0.12 0
0.15 0.12 0
0.16 0.12 0
0.17 0.12 0
0.18 0.12 0
0.19 0.12 0
0.2 0.12 0
0.21 0.12 0
0.22 0.12 0
0.23 0.12 0
0.24 0.12 0
0.25 0.12 0
0.26 0.12 0
0.27 0.12 0
0.28 0.12 0
0.29 0.12 0
0.3 0.12 0
0.31 0.12 0
0.32 0.12 0
0.33 0.12 0
0.34 0.12 0
0.35 0.12 0
0.36 0.12 0
0.37 0.12 0
0.38 0.12 0
0.39 0.12 0
0.4 0.12 0
0.41 0.12 0
0.42 0.12 0
0.43 0.12 0
0.44 0.12 0
0.45 0.12 0
0.46 0.12 0
0.47 0.12 0
0.48 0.12 0
0.49 0.12 0
0.5 0.12 0
0.51 0.12 0
0.52 0.12 0
0.53 0.12 0
0.54 0.12 0
0.55 0.12 0
0.56 0.12 0
0.57 0.12 0
0.58 0.12 0
0.59 0.12 0
0.6 0.12 0
0.61 0.12 0
0 0.13 0
0.01 0.13 0
0.02 0.13 0
0.03 0.13 0
0.04 0.13 0
0.05 0.13 0
0.06 0.13 0
0.07 0.13 0
0.08 0.13 0
0.09 0.13 0
0.1 0.13 0
0.11 0.13 0
0.12 0.13 0
0.13 0.13 0
0.14 0.13 0
0.15 0.13 0
0.16 0.13 0
0.17 0.13 0
0.18 0.13 0
0.19 0.13 0
0.2 0.13 0
0.21 0.13 0
0.22 0.13 0
0.23 0.13 0
0.24 0.13 0
0.25 0.13 0
0.26 0.13 0
0.27 0.13 0
0.28 0.13 0
0.29 0.13 0
0.3 0.13 0
0.31 0.13 0
0.32 0.13 0
0.33 0.13 0
0.34 0.13 0
0.35 0.13 0
0.36 0.13 0
0.37 0.13 0
0.38 0.13 0
0.39 0.13 0
0.4 0.13 0
0.41 0.13 0
0.42 0.13 0
0.43 0.13 0
0.44 0.13 0
0.45 0.13 0
0.46 0.13 0
0.47 0.13 0
0.48 0.13 0
[...]
POINT_DATA 93248

SCALARS v double
LOOKUP_TABLE default
0
0
0
0
0
0
0
0
0
0
0
0
0
0
0
0
0
0
0
0
0
0
0
0
0
0
0
0
0
0
0
0
0
0
0
0
0
0
-0.0248759
0
0
0
0
0
-0.0260879
0
0
0
0
0
0
0
0
0
0
0
0
0
0
0
0
0
0
0.0466222
-0.0486316
0.0508467
0.0341524
0.0129504
0
-0.0112859
-0.0144804
-0.0157528
-0.0163997
-0.0166322
-0.0171692
-0.0171895
-0.0172574
-0.0172729
-0.0173854
-0.0173255
-0.0173004
-0.0168884
-0.0185498
-0.0180158
-0.0178212
-0.0176929
-0.0177131
-0.0177442
-0.0177663
-0.0177802
-0.0177872
-0.0177867
-0.0177779
-0.0177787
-0.0179254
-0.017738
-0.0175381
-0.0175777
-0.0220701
-0.0185038
-0.021266
-0.0128615
-0.0174258
-0.0212171
-0.018625
-0.0184401
-0.0184556
-0.0194558
-0.0381074
-0.0180995
-0.0203434
-0.0177308
-0.0176727
-0.017771
-0.0182507
-0.0184338
-0.0231094
-0.0179966
-0.028134
-0.0177817
-0.0169713
-0.0154844
-0.0125712
0
0
0.0277389
0.0539729
0.0610502
0.0487841
0.0260657
0.00729368
-0.00436397
-0.0102984
-0.0134327
-0.0153787
-0.0160827
-0.0349347
-0.0178463
-0.0182497
-0.0149332
-0.0187491
-0.0185642
-0.0190402
-0.0198262
-0.0397585
-0.0191838
-0.0192494
-0.01947
-0.0196064
-0.0196923
-0.0197516
-0.0197914
-0.0198155
-0.0198222
-0.0198013
-0.0197387
-0.0298605
-0.0197852
-0.0192823
-0.0192969
-0.0184257
-0.0161648
-0.0118637
-0.0236006
-0.0248193
-0.0234721
-0.0219959
-0.0212468
-0.0208021
-0.020567
-0.0212006
-0.0205347
-0.0203434
-0.0197882
-0.0197458
-0.0195776
-0.0201044
-0.0202837
-0.0204499
-0.0198735
-0.019579
-0.0316932
-0.0184351
-0.0169856
-0.0146412
0
0
0.0143962
0.0375146
0.0495535
0.0451417
0.0299898
0.0135667
0.00213668
-0.00480903
-0.00905333
-0.0116552
-0.013907
-0.0156003
-0.016417
-0.0170684
-0.0176204
-0.0182227
0
-0.0184143
-0.0190532
-0.0192262
-0.0191317
-0.0191884
-0.0193371
-0.0194713
-0.0195822
-0.0196687
-0.0197337
-0.0197791
-0.019806
-0.0198161
-0.0198295
-0.0199676
-0.0197004
-0.0197259
-0.018896
-0.0181834
-0.0169029
-0.0158223
-0.0214053
-0.0233428
-0.0229797
-0.0221378
-0.0214199
-0.0212126
-0.0212896
-0.020074
-0.0199981
-0.0198951
-0.0202301
-0.0200583
-0.0199579
-0.0200554
-0.0200738
-0.0199954
-0.019709
-0.0194541
-0.0192876
-0.0184403
-0.0173277
-0.0156999
0
0
0.00804861
0.024493
0.0360888
0.0366691
0.027228
0.0150668
0.00541884
-0.00123077
-0.0058188
-0.00905168
-0.0115873
-0.0134765
-0.0147768
-0.0158024
-0.0167715
-0.0171223
-0.0171516
-0.0177391
-0.0182438
-0.0185986
-0.0187683
-0.0189196
-0.0190793
-0.0192313
-0.0193648
-0.0194765
-0.0195654
-0.0196321
-0.0196782
-0.0197078
-0.0197333
-0.0197834
-0.0197978
-0.0196165
-0.0191239
-0.0186709
-0.0182477
-0.0184057
-0.0204497
-0.0216604
-0.021822
-0.0215527
-0.0212385
-0.021076
-0.0208689
-0.0197127
-0.0199672
-0.0200535
-0.0201511
-0.0200797
-0.0200052
-0.0199566
-0.0198582
-0.0197041
-0.0194824
-0.0192365
-0.0189468
-0.0184014
-0.0175898
-0.0166079
0
0
0.00485498
0.0161472
0.0261012
0.0284377
0.0226286
0.0138205
0.00603917
0.000279259
-0.00404069
-0.00738256
-0.0100127
-0.0120422
-0.0135519
-0.0146646
-0.0153549
-0.0163833
-0.0168126
-0.0173761
-0.0178313
-0.018233
-0.0185292
-0.0187667
-0.0189745
-0.0191592
-0.0193206
-0.0194593
-0.019572
-0.0196586
-0.0197198
-0.0197583
-0.0197809
-0.0198264
-0.0201999
-0.0198251
-0.0194931
-0.0192862
-0.0192246
-0.0195072
-0.0203327
-0.0209756
-0.0212208
-0.0212102
-0.0211187
-0.0210652
-0.0209638
0
-0.0202574
-0.0203696
-0.0203345
-0.0202666
-0.0201925
-0.0200761
-0.0198702
-0.0196647
-0.019464
-0.0192495
-0.0189933
-0.0186066
-0.0177942
-0.0175344
-0.0277723
0
0.00302162
0.0108763
0.0188516
0.0215175
0.0177
0.0112178
0.0049859
0
-0.00350953
-0.00661269
-0.00918504
-0.0112215
-0.0128385
-0.014107
-0.0151568
-0.0162187
-0.0165303
-0.0169835
-0.0175929
-0.0180836
-0.0184623
-0.0187619
-0.0190138
-0.0192328
-0.0194229
-0.0195922
-0.0197289
-0.019834
-0.0199069
-0.0199471
-0.0199493
-0.0198734
-0.0406064
-0.0200911
-0.0199053
-0.0198508
-0.0199179
-0.0201436
-0.0205356
-0.0208855
-0.0210821
-0.0211389
-0.0211177
-0.0210458
-0.0208461
-0.0201547
-0.0204682
-0.0205885
-0.0206009
-0.020592
-0.0205654
-0.0204218
-0.0200196
-0.0197527
-0.0195904
-0.0194402
-0.0193116
-0.0194029
-0.0194554
-0.0178013
0
0
0.00182508
0.0073262
0.0135396
0.0158426
0.0130056
0.00796853
0.0034146
-0.000513018
-0.00386616
-0.00667231
-0.00899297
-0.0109006
-0.0125271
-0.0138407
-0.0150351
-0.0166105
-0.0163494
-0.0168546
-0.0175696
-0.0181161
-0.0185541
-0.0188864
-0.0191691
-0.0194183
-0.0196348
-0.0198397
-0.02
-0.0201239
-0.0202074
-0.020257
-0.0203344
-0.0204385
-0.0208507
-0.0205864
-0.0204501
-0.0204373
-0.0205055
-0.0206594
-0.0208758
-0.0210798
-0.0212171
-0.0212776
-0.0212698
-0.0212105
-0.021076
-0.020846
-0.0208774
-0.0209238
-0.0209651
-0.0210433
-0.0211603
-0.0210849
-0.0201578
-0.0198262
-0.0197779
-0.0197049
-0.0195506
-0.0305472
-0.0178535
-0.0176969
0
0
0.000966998
0.0047552
0.00946839
0.0111584
0.008776
0.00481846
0.00117553
-0.00198089
-0.00476651
-0.0071797
-0.00923887
-0.0108822
-0.0135519
-0.013774
-0.0146605
-0.0148743
-0.0166566
-0.0174818
-0.0179106
-0.0183442
-0.0187993
-0.0191196
-0.0194164
-0.0196973
-0.0198397
-0.0201683
-0.0203583
-0.0205103
-0.0205999
-0.0206205
-0.0207621
-0.0208956
-0.0210469
-0.0210123
-0.0209808
-0.0209994
-0.0210522
-0.0211566
-0.0212922
-0.0214208
-0.0215132
-0.0215584
-0.0215569
-0.0215148
-0.0214352
-0.0213382
-0.02131
-0.0213168
-0.0213703
-0.0215469
-0.0219525
-0.0223343
-0.0200436
-0.0198105
-0.0200512
-0.0201606
-0.02014
-0.0201121
-0.0192668
-0.018191
0
0
0.000307004
0.0027745
0.00621988
0.00722859
0.00500565
0.00170915
-0.00120851
-0.00371477
-0.00598808
-0.00805782
-0.00992203
-0.0116668
-0.0129312
-0.0140459
-0.0149332
-0.0156457
-0.0167858
-0.0175767
-0.0181339
-0.0185969
-0.0224649
-0.0194123
-0.019735
-0.0200413
-0.0203434
-0.0205846
-0.0208146
-0.0210084
-0.0211203
-0.0210582
-0.0211967
-0.0213257
-0.0214425
-0.0214843
-0.0215071
-0.021558
-0.0215902
-0.0216658
-0.0217632
-0.0218516
-0.0219137
-0.0219428
-0.0219386
-0.0219059
-0.0218513
-0.0217888
-0.0217419
-0.0217115
-0.0217164
-0.0218412
-0.022291
-0.0229634
-0.0195837
-0.020168
-0.0206489
-0.0207861
-0.0207537
-0.0206114
-0.020037
-0.0187805
0
0
-0.000227898
0.00117576
0.00354577
0.00385053
0.00164465
-0.00121319
-0.00357819
-0.00557027
-0.00742532
-0.00917085
-0.0107827
-0.0122474
-0.0134861
-0.0145408
-0.0153463
-0.0161937
-0.0171045
-0.0178654
-0.0184782
-0.0190317
-0.0194287
-0.0197901
-0.0201313
-0.0204535
-0.0207429
-0.0210558
-0.0213521
-0.0216371
-0.0218996
-0.0220781
-0.0212269
-0.0215781
-0.0218538
-0.0219747
-0.022029
-0.0220701
-0.0221834
-0.0222142
-0.0222887
-0.0223508
-0.0223895
-0.0224026
-0.0223895
-0.0223562
-0.022308
-0.0222503
-0.0221857
-0.0221032
-0.0219674
-0.0216703
-0.0209311
-0.0196957
-0.0235138
-0.0227752
-0.0220359
-0.0216509
-0.0214374
-0.0212213
-0.0206798
-0.0193671
0
0
-0.000680094
-0.000162848
0.00130756
-0.00409676
-0.00134325
-0.0039167
-0.00587242
-0.00747153
-0.00898376
-0.0104483
-0.0118289
-0.0131043
-0.0142507
-0.0152526
-0.0157228
-0.016677
-0.0175763
-0.0183189
-0.0189147
-0.0193664
-0.0199137
-0.0202801
-0.0206093
-0.0209278
-0.0212469
-0.0215867
-0.0219529
-0.0223467
-0.0227444
-0.0229838
0
-0.022221
-0.0224765
-0.022556
-0.0225922
-0.0226366
-0.0227028
-0.0228187
-0.022876
-0.022912
-0.022927
-0.0229239
-0.0228932
-0.0228512
-0.0228008
-0.0227411
-0.0226671
-0.0225628
-0.0223947
-0.022107
-0.0216285
-0.0213398
-0.0231014
-0.0231094
-0.0226629
-0.0223099
-0.0220727
-0.0218347
-0.0212847
-0.019935
0
0
-0.00107902
-0.00133762
-0.000725037
-0.00160485
-0.00403581
-0.00642532
-0.00808372
-0.00937426
-0.0106053
-0.0118318
-0.0130052
-0.0141196
-0.01518
-0.0162559
0
-0.0173204
-0.0181999
-0.0189139
-0.0194924
-0.0199509
-0.0203905
-0.0207625
-0.0210989
-0.0214248
-0.0217606
-0.0221366
-0.0225899
-0.0231391
-0.023725
-0.0235552
-0.0227358
-0.0228688
-0.0229992
-0.0230735
-0.0231364
-0.0232131
-0.0233086
-0.0234223
-0.0234975
-0.0235247
-0.0235168
-0.0235083
-0.023437
-0.0233802
-0.0233247
-0.0232648
-0.0231927
-0.0230927
-0.0229415
-0.0227832
-0.0225953
-0.0225861
-0.0231468
-0.0232444
-0.02307
-0.022855
-0.0226563
-0.0224258
-0.0218645
-0.0204806
0
0
-0.00143599
-0.00237424
-0.00250265
-0.00385211
-0.00647353
-0.00875835
-0.0101951
-0.0112444
-0.0122417
-0.0138815
-0.0142579
-0.0152133
-0.0161121
-0.0169181
-0.0172712
-0.0181
-0.0188704
-0.0195356
-0.0201587
-0.0205787
-0.0209482
-0.0212921
-0.021619
-0.0219369
-0.0222682
-0.0226614
-0.0232164
-0.0240791
-0.025681
-0.0246146
-0.023815
-0.0235741
-0.0235467
-0.0235946
-0.0236805
-0.0237982
-0.0239366
-0.0240961
-0.0242034
-0.0242108
-0.0241493
-0.0240407
-0.0239914
-0.0239301
-0.0238721
-0.0238163
-0.0237564
-0.0236721
-0.0234994
-0.0234774
-0.0234177
-0.02342
-0.0235498
-0.0236062
-0.0235338
-0.0233973
-0.02321
-0.0230013
-0.0224233
-0.0210003
0
0
-0.00176108
-0.00329959
-0.00409676
-0.00596843
-0.00874729
-0.0109553
-0.0122149
-0.0130688
-0.0138815
-0.0147277
-0.0155645
-0.0163793
-0.017148
-0.0178389
-0.0183913
-0.0190236
-0.0196394
-0.0202155
-0.0210196
-0.021283
-0.021555
-0.021863
-0.0221669
-0.0224576
-0.0227456
-0.0230815
-0.0236414
-0.0197198
-0.0313412
-0.0255942
-0.024308
-0.0240203
-0.0240091
-0.024091
-0.0242178
-0.0243918
-0.0246251
-0.0248728
-0.0250617
-0.0250129
-0.0248594
-0.0246997
-0.0245835
-0.0244983
-0.0244343
-0.0243857
-0.0243471
-0.0243096
-0.0201511
-0.0241869
-0.0241492
-0.0241129
-0.024029
-0.0241256
-0.0240877
-0.0239962
-0.0238628
-0.0235884
-0.0229658
-0.0214879
0
0
-0.00206733
-0.00411721
-0.00553582
-0.00788036
-0.0108635
-0.0130381
-0.0141488
-0.0148378
-0.015494
-0.0161909
-0.0169015
-0.0176019
-0.0182683
-0.0188802
-0.0194271
-0.0199594
-0.0204501
-0.0208328
-0.0371916
-0.0219628
-0.0221884
-0.0224649
-0.0227491
-0.0229959
-0.0231964
-0.0233157
-0.0231964
-0.0220123
-0.0152332
-0.0218701
-0.0235066
-0.02405
-0.0243375
-0.0245481
-0.0247328
-0.0249682
-0.0253132
-0.0257881
-0.0262492
-0.0259894
-0.0256261
-0.0253484
-0.0251724
-0.0250658
-0.0249973
-0.0249555
-0.024922
-0.0248804
-0.0247825
-0.0248458
-0.024834
-0.0248349
-0.0249468
-0.0247981
-0.02471
-0.0246399
-0.0244406
-0.024165
-0.0234903
-0.0219296
0
0
-0.00239208
-0.0047878
-0.00683267
-0.00967672
-0.0128687
-0.0150371
-0.0159945
-0.0165443
-0.0170767
-0.0176554
-0.0182585
-0.0188649
-0.0194491
-0.0199875
-0.0204697
-0.0209262
-0.0213699
-0.0218173
-0.0225023
-0.022701
-0.0229153
-0.0231599
-0.0233934
-0.0235908
-0.0237264
-0.0237535
-0.0235577
-0.0228831
-0.0215243
-0.0229383
-0.0238732
-0.0244243
-0.0247877
-0.0250517
-0.0252249
-0.0254836
-0.0259631
-0.0268939
-0.0284146
-0.0271911
-0.0263663
-0.0259344
-0.0257204
-0.025614
-0.0255486
-0.025527
-0.0255069
-0.0254872
-0.0254857
-0.0255804
-0.0255108
-0.0254805
-0.0254886
-0.025438
-0.025298
-0.0253724
-0.0250581
-0.024785
-0.0240324
-0.022294
0
0
-0.0028216
0.0027745
-0.00809065
-0.0114019
-0.0147838
-0.0169257
-0.0177148
-0.0181898
-0.0186496
-0.019135
-0.0196307
-0.020159
-0.0206818
-0.0211556
-0.0215377
-0.0219033
-0.0222893
-0.0226969
-0.0231287
-0.0234168
-0.0236598
-0.0238838
-0.0240843
-0.0242472
-0.0243549
-0.0243799
-0.0242846
-0.0240449
-0.0238842
-0.0242314
-0.0246561
-0.0250341
-0.0253571
-0.0256283
-0.025661
-0.0258483
-0.0263253
-0.0278672
-0.0344483
-0.0282157
-0.0267404
-0.026317
-0.0261783
-0.0261314
-0.0255486
-0.0261034
-0.0260966
-0.0260858
-0.0261289
-0.0264684
-0.0261819
-0.0261098
-0.0261219
-0.0261603
-0.026342
-0.0262746
-0.0257548
-0.0256024
-0.0247859
-0.0224861
0
0
-0.00293457
-0.00630461
-0.00938706
-0.0130862
-0.0165538
-0.0184357
-0.0194246
-0.0198932
-0.0202783
-0.0206574
-0.0209995
-0.0214723
-0.0219753
-0.0224147
-0.0226261
-0.0228623
-0.0231911
-0.0235685
-0.0239211
-0.0242015
-0.0244356
-0.0246394
-0.0248146
-0.0249563
-0.0250559
-0.025102
-0.0250837
-0.0250483
-0.0253957
-0.0253394
-0.0254698
-0.0257024
-0.0259581
-0.0262554
-0.0260239
-0.0260476
-0.0258447
-0.0245279
-0.0170956
-0.0242466
-0.0258838
-0.0263612
-0.0265349
-0.0266113
-0.026644
-0.0266814
-0.0266907
-0.026663
-0.0266307
-0.0423658
-0.0267334
-0.0267149
-0.0267542
-0.026766
-0.0267276
-0.0265866
-0.0270451
-0.0269683
-0.0267607
-0.0260246
0
0
-0.00315524
-0.00713906
-0.0106539
-0.0148704
-0.0184312
-0.0199427
-0.0209158
-0.021423
-0.0217936
-0.0221271
-0.0222019
-0.0227481
-0.0233413
-0.0238391
-0.0236751
-0.0237732
-0.0240692
-0.0244827
-0.0247954
-0.0250435
-0.0252488
-0.0254266
-0.0255787
-0.0257045
-0.025803
-0.0258743
-0.0259114
-0.0257852
-0.0438105
-0.0261807
-0.0262158
-0.0263447
-0.0264506
-0.0264116
-0.0267966
-0.0266877
-0.0263009
-0.025425
-0.0238271
-0.0252646
-0.0262524
-0.0267436
-0.0269958
-0.0271315
-0.027214
-0.027288
-0.02733
-0.0273498
-0.0274101
-0.0277216
-0.027473
-0.0274359
-0.0274554
-0.0274567
-0.0274226
-0.0274346
-0.0277033
-0.0277701
-0.0274949
-0.0262244
0
0
-0.00340797
-0.0078676
-0.0117262
-0.0278535
-0.0204434
0
-0.0225009
-0.0229663
-0.0232932
-0.0236314
-0.00918504
-0.0240272
-0.0247532
-0.0253695
-0.0245489
-0.0246773
-0.0250469
-0.0255638
-0.0257693
-0.0259328
-0.0260952
-0.0262413
-0.0263688
-0.0264776
-0.0265732
-0.0266936
-0.0269612
-0.0268007
-0.0271654
-0.0270247
-0.027013
-0.0270863
-0.0271588
-0.0271962
-0.0273455
-0.0272855
-0.0270329
-0.0266214
-0.0262349
-0.0265774
-0.0270232
-0.027354
-0.0275655
-0.0276991
-0.0277943
-0.0279247
-0.0279946
-0.028025
-0.028058
-0.0281237
-0.0280802
-0.0281439
-0.0281877
-0.0281946
-0.028134
-0.0281798
-0.0283327
-0.0283943
-0.0280361
-0.0265993
0
0
-0.0036726
-0.0085989
-0.0130138
-0.0179044
-0.0217804
-0.0233774
-0.0241847
-0.0244853
-0.0246262
-0.0246881
-0.0246855
-0.0251484
-0.0257715
-0.0251661
-0.0261683
-0.0263842
-0.0264191
-0.0352911
-0.0268216
-0.026871
-0.026967
-0.0270793
-0.0271767
-0.0272615
-0.0273239
-0.0273268
-0.0271125
-0.0274711
-0.0276711
-0.0277179
-0.0277612
-0.0278334
-0.0279232
-0.0280154
-0.0280456
-0.027988
-0.0278339
-0.0276474
-0.0275373
-0.0276516
-0.0278619
-0.0280607
-0.0281963
-0.0283025
-0.0283694
-0.0286052
-0.0286862
-0.0287019
-0.0286982
-0.0286654
-0.0286407
-0.0288607
-0.0289419
-0.0289689
-0.0287773
-0.0288347
-0.0289559
-0.0289864
-0.0285711
-0.0270559
0
0
-0.00393232
-0.00929624
-0.0141568
-0.0191913
-0.0232832
-0.0252877
-0.0259233
-0.0260389
-0.0259559
-0.0255774
-0.0259102
-0.0260898
-0.0257684
-0.0436618
-0.0275718
-0.0276676
-0.0276974
-0.0278722
-0.0278226
-0.0278248
-0.0278783
-0.0279424
-0.0279969
-0.0280619
-0.0281144
-0.0281369
-0.028126
-0.0282299
-0.0283586
-0.0284279
-0.0284864
-0.0285674
-0.0287013
-0.028936
-0.0288417
-0.028778
-0.0286354
-0.0285326
-0.0284973
-0.0285555
-0.0286721
-0.0288036
-0.0289316
-0.0289753
-0.0289599
-0.0293317
-0.0293651
-0.0293764
-0.0293726
-0.0292655
-0.0291619
-0.0295712
-0.0296246
-0.0297339
-0.0293545
-0.0294879
-0.0295949
-0.0295774
-0.0291281
-0.0275638
0
0
-0.00418665
-0.00997467
-0.0152604
-0.0205881
-0.0248737
-0.0270167
-0.0275943
-0.0276456
-0.0273415
-0.025296
-0.0271987
-0.0275842
-0.0276482
-0.0284024
-0.0286063
-0.0286878
-0.0287109
-0.0287528
-0.0287495
-0.0287613
-0.0287896
-0.0288156
-0.0288003
-0.0288666
-0.0289243
-0.0289522
-0.0289636
-0.0289768
-0.0291001
-0.0291465
-0.02919
-0.0292613
-0.029447
-0.0303427
-0.029651
-0.029679
-0.0293838
-0.0293182
-0.0293147
-0.0293612
-0.0294407
-0.029539
-0.0296584
-0.029802
-0.0299951
-0.0297451
-0.0298576
-0.0300059
-0.0301215
-0.0300096
-0.0300792
-0.0298405
-0.0299042
-0.0298865
-0.030399
-0.0303574
-0.0302985
-0.0301455
-0.0297065
-0.0281119
0
0
-0.00443891
-0.0106479
-0.0163589
-0.0220196
-0.0264914
-0.0286966
-0.0291743
-0.0294464
-0.0297685
-0.0321231
-0.0300297
-0.029561
-0.0294566
-0.0295875
-0.0296642
-0.029694
-0.0296904
-0.0296928
-0.0296901
-0.0296937
-0.0297076
-0.0297115
-0.0295228
-0.0296667
-0.0297541
-0.0297712
-0.0297789
-0.0297932
-0.0297769
-0.0298239
-0.0298528
-0.0298605
-0.029748
-0.0288101
-0.0296266
-0.0295756
-0.0299186
-0.0300037
-0.0300561
-0.0301103
-0.0301727
-0.0302418
-0.0303494
-0.0304715
-0.0305749
-0.0304967
-0.0305515
-0.0306916
-0.0308922
-0.0305681
-0.0304431
-0.0306597
-0.0306502
-0.030692
-0.0309515
-0.0310041
-0.0309438
-0.0305472
-0.030309
-0.028698
0
0
-0.00469139
-0.0113223
-0.0174599
-0.0234642
-0.0281291
-0.030438
-0.0312265
-0.0311449
-0.0312628
-0.0316993
-0.0312954
-0.0310358
-0.0308769
-0.030818
-0.0307831
-0.0307469
-0.030711
-0.0306697
-0.0306396
-0.0306255
-0.0306354
-0.0306915
-0.0200413
-0.0305438
-0.0306164
-0.0305871
-0.0305545
-0.0289768
-0.030525
-0.0305479
-0.0305318
-0.0305427
-0.0304716
-0.0302801
-0.0304281
-0.0305006
-0.0306314
-0.0307166
-0.0307806
-0.0308378
-0.0308829
-0.0308944
-0.0310157
-0.0311249
-0.0311956
-0.0311998
-0.0312171
-0.0312192
-0.0311741
-0.0316442
-0.0182507
-0.035654
-0.0314525
-0.0314651
-0.0315785
-0.0316637
-0.0316932
-0.0154844
-0.0310378
-0.0293127
0
0
-0.00494512
-0.0120006
-0.0185645
-0.024912
-0.0297542
-0.0320879
-0.0326947
-0.0325934
-0.0325788
-0.0326115
-0.0324918
-0.0323296
-0.0321713
-0.0320404
-0.0319298
-0.0318287
-0.0317279
-0.0316413
-0.0315825
-0.0315414
-0.03151
-0.0314552
-0.0312466
-0.0314129
-0.0314857
-0.0313433
-0.0312453
-0.0312066
-0.0312448
-0.0312814
-0.0313273
-0.0312881
-0.0312486
-0.0312059
-0.0312449
-0.0313003
-0.0313726
-0.0314401
-0.0315039
-0.0315659
-0.031599
-0.0314412
-0.0316774
-0.0318075
-0.0318691
-0.031898
-0.0319182
-0.0319267
-0.0319439
-0.0321164
-0.0319391
-0.032194
-0.0321691
-0.0321775
-0.0322227
-0.0322551
-0.0322081
-0.0318454
-0.0315492
-0.0298681
0
0
-0.00520023
-0.0126845
-0.0196759
-0.0263699
-0.0313888
-0.0337526
-0.0343021
-0.0338854
-0.0338823
-0.03381
-0.0337695
-0.0336288
-0.0334399
-0.033254
-0.0330822
-0.0329248
-0.0327404
-0.0325905
-0.0325118
-0.0324522
-0.0324053
-0.0323551
-0.0322903
-0.0323085
-0.0324493
-0.0320369
-0.0318936
-0.0319007
-0.0319612
-0.0320047
-0.0320267
-0.0320179
-0.0320028
-0.0319948
-0.0320149
-0.0320531
-0.0321035
-0.0321599
-0.0322232
-0.0323032
-0.0323975
-0.0219428
-0.0324182
-0.032524
-0.0325721
-0.0326057
-0.0326366
-0.0326637
-0.0326979
-0.0327636
-0.0327565
-0.0328287
-0.0328455
-0.0328606
-0.032882
-0.032892
-0.0328469
-0.0327096
-0.03219
-0.0304503
0
0
-0.00545487
-0.0133744
-0.0207995
-0.0278535
-0.0330486
-0.0354585
-0.0361025
-0.0157528
-0.0353424
-0.0351047
-0.0351749
-0.0349347
-0.034674
-0.0344332
-0.0342229
-0.0340539
-0.0337185
-0.0334734
-0.0334198
-0.0333536
-0.0333157
-0.0332078
-0.0331233
-0.0331513
-0.0334881
-0.0326075
-0.032576
-0.0326642
-0.0327207
-0.0327494
-0.0327538
-0.0327457
-0.0327367
-0.032736
-0.0327508
-0.03278
-0.0328203
-0.0328685
-0.032922
-0.0329757
-0.0329995
-0.0328536
-0.0330665
-0.0331896
-0.0332618
-0.0333168
-0.0333625
-0.0334007
-0.0334354
-0.0334696
-0.0334865
-0.0335131
-0.0335286
-0.0335415
-0.0335555
-0.0335682
-0.0335784
-0.0334438
-0.0328516
-0.0310572
0
0
-0.00570128
-0.0140627
-0.0219545
-0.0293919
-0.0347371
-0.0371177
-0.0375559
-0.0370476
-0.0369342
-0.0368866
-0.036356
-0.0360424
-0.0357727
-0.0355373
-0.0353079
-0.0353182
-0.0345985
-0.0342354
-0.0343178
-0.034217
-0.0342849
-0.0340495
-0.0338356
-0.0335849
-0.0330673
-0.0339219
-0.0338958
-0.0337338
-0.0336134
-0.0335367
-0.0334943
-0.033469
-0.0334552
-0.0334528
-0.0334642
-0.033489
-0.0335251
-0.0335699
-0.0336197
-0.0336665
-0.0336949
-0.0336914
-0.033784
-0.0338818
-0.0339688
-0.034043
-0.034103
-0.034148
-0.0341795
-0.0341993
-0.0342084
-0.0342156
-0.034221
-0.0342271
-0.0342344
-0.034241
-0.0342371
-0.0341282
-0.0335112
-0.0316766
0
0
-0.00593171
-0.0147167
-0.0232261
-0.0310076
-0.0364697
-0.038829
-0.0391937
-0.0388493
-0.038518
-0.0382149
-0.0377544
-0.0373374
-0.036976
-0.0366844
-0.036611
-0.0369147
-0.0352911
-0.0352863
-0.0350417
-0.0348917
-0.0443289
-0.0348229
-0.0346074
-0.0343792
-0.0341272
-0.0344441
-0.0345214
-0.0344519
-0.0343474
-0.0342661
-0.0342123
-0.0341784
-0.0341581
-0.0341508
-0.0341597
-0.0341833
-0.0342197
-0.0342673
-0.0343228
-0.0343776
-0.0344138
-0.0344244
-0.0344864
-0.0345859
-0.0346953
-0.0347942
-0.0348706
-0.0349214
-0.0349474
-0.0349516
-0.0349422
-0.0349298
-0.0349214
-0.0349191
-0.0349184
-0.0349154
-0.0349092
-0.0348083
-0.0341708
-0.0323029
0
0
-0.00614653
-0.0153703
-0.0244335
-0.0326662
-0.0383726