# vtk DataFile Version 2.0
FlowField
ASCII
DATASET STRUCTURED_GRID
DIMENSIONS 62 47 32 
POINTS 93248 double
0 0 0
0.01 0 0
0.02 0 0
0.03 0 0
0.04 0 0
0.05 0 0
0.06 0 0
0.07 0 0
0.08 0 0
0.09 0 0
0.1 0 0
0.11 0 0
0.12 0 0
0.13 0 0
0.14 0 0
0.15 0 0
0.16 0 0
0.17 0 0
0.18 0 0
0.19 0 0
0.2 0 0
0.21 0 0
0.22 0 0
0.23 0 0
0.24 0 0
0.25 0 0
0.26 0 0
0.27 0 0
0.28 0 0
0.29 0 0
0.3 0 0
0.31 0 0
0.32 0 0
0.33 0 0
0.34 0 0
0.35 0 0
0.36 0 0
0.37 0 0
0.38 0 0
0.39 0 0
0.4 0 0
0.41 0 0
0.42 0 0
0.43 0 0
0.44 0 0
0.45 0 0
0.46 0 0
0.47 0 0
0.48 0 0
0.49 0 0
0.5 0 0
0.51 0 0
0.52 0 0
0.53 0 0
0.54 0 0
0.55 0 0
0.56 0 0
0.57 0 0
0.58 0 0
0.59 0 0
0.6 0 0
0.61 0 0
0 0.01 0
0.01 0.01 0
0.02 0.01 0
0.03 0.01 0
0.04 0.01 0
0.05 0.01 0
0.06 0.01 0
0.07 0.01 0
0.08 0.01 0
0.09 0.01 0
0.1 0.01 0
0.11 0.01 0
0.12 0.01 0
0.13 0.01 0
0.14 0.01 0
0.15 0.01 0
0.16 0.01 0
0.17 0.01 0
0.18 0.01 0
0.19 0.01 0
0.2 0.01 0
0.21 0.01 0
0.22 0.01 0
0.23 0.01 0
0.24 0.01 0
0.25 0.01 0
0.26 0.01 0
0.27 0.01 0
0.28 0.01 0
0.29 0.01 0
0.3 0.01 0
0.31 0.01 0
0.32 0.01 0
0.33 0.01 0
0.34 0.01 0
0.35 0.01 0
0.36 0.01 0
0.37 0.01 0
0.38 0.01 0
0.39 0.01 0
0.4 0.01 0
0.41 0.01 0
0.42 0.01 0
0.43 0.01 0
0.44 0.01 0
0.45 0.01 0
0.46 0.01 0
0.47 0.01 0
0.48 0.01 0
0.49 0.01 0
0.5 0.01 0
0.51 0.01 0
0.52 0.01 0
0.53 0.01 0
0.54 0.01 0
0.55 0.01 0
0.56 0.01 0
0.57 0.01 0
0.58 0.01 0
0.59 0.01 0
0.6 0.01 0
0.61 0.01 0
0 0.02 0
0.01 0.02 0
0.02 0.02 0
0.03 0.02 0
0.04 0.02 0
0.05 0.02 0
0.06 0.02 0
0.07 0.02 0
0.08 0.02 0
0.09 0.02 0
0.1 0.02 0
0.11 0.02 0
0.12 0.02 0
0.13 0.02 0
0.14 0.02 0
0.15 0.02 0
0.16 0.02 0
0.17 0.02 0
0.18 0.02 0
0.19 0.02 0
0.2 0.02 0
0.21 0.02 0
0.22 0.02 0
0.23 0.02 0
0.24 0.02 0
0.25 0.02 0
0.26 0.02 0
0.27 0.02 0
0.28 0.02 0
0.29 0.02 0
0.3 0.02 0
0.31 0.02 0
0.32 0.02 0
0.33 0.02 0
0.34 0.02 0
0.35 0.02 0
0.36 0.02 0
0.37 0.02 0
0.38 0.02 0
0.39 0.02 0
0.4 0.02 0
0.41 0.02 0
0.42 0.02 0
0.43 0.02 0
0.44 0.02 0
0.45 0.02 0
0.46 0.02 0
0.47 0.02 0
0.48 0.02 0
0.49 0.02 0
0.5 0.02 0
0.51 0.02 0
0.52 0.02 0
0.53 0.02 0
0.54 0.02 0
0.55 0.02 0
0.56 0.02 0
0.57 0.02 0
0.58 0.02 0
0.59 0.02 0
0.6 0.02 0
0.61 0.02 0
0 0.03 0
0.01 0.03 0
0.02 0.03 0
0.03 0.03 0
0.04 0.03 0
0.05 0.03 0
0.06 0.03 0
0.07 0.03 0
0.08 0.03 0
0.09 0.03 0
0.1 0.03 0
0.11 0.03 0
0.12 0.03 0
0.13 0.03 0
0.14 0.03 0
0.15 0.03 0
0.16 0.03 0
0.17 0.03 0
0.18 0.03 0
0.19 0.03 0
0.2 0.03 0
0.21 0.03 0
0.22 0.03 0
0.23 0.03 0
0.24 0.03 0
0.25 0.03 0
0.26 0.03 0
0.27 0.03 0
0.28 0.03 0
0.29 0.03 0
0.3 0.03 0
0.31 0.03 0
0.32 0.03 0
0.33 0.03 0
0.34 0.03 0
0.35 0.03 0
0.36 0.03 0
0.37 0.03 0
0.38 0.03 0
0.39 0.03 0
0.4 0.03 0
0.41 0.03 0
0.42 0.03 0
0.43 0.03 0
0.44 0.03 0
0.45 0.03 0
0.46 0.03 0
0.47 0.03 0
0.48 0.03 0
0.49 0.03 0
0.5 0.03 0
0.51 0.03 0
0.52 0.03 0
0.53 0.03 0
0.54 0.03 0
0.55 0.03 0
0.56 0.03 0
0.57 0.03 0
0.58 0.03 0
0.59 0.03 0
0.6 0.03 0
0.61 0.03 0
0 0.04 0
0.01 0.04 0
0.02 0.04 0
0.03 0.04 0
0.04 0.04 0
0.05 0.04 0
0.06 0.04 0
0.07 0.04 0
0.08 0.04 0
0.09 0.04 0
0.1 0.04 0
0.11 0.04 0
0.12 0.04 0
0.13 0.04 0
0.14 0.04 0
0.15 0.04 0
0.16 0.04 0
0.17 0.04 0
0.18 0.04 0
0.19 0.04 0
0.2 0.04 0
0.21 0.04 0
0.22 0.04 0
0.23 0.04 0
0.24 0.04 0
0.25 0.04 0
0.26 0.04 0
0.27 0.04 0
0.28 0.04 0
0.29 0.04 0
0.3 0.04 0
0.31 0.04 0
0.32 0.04 0
0.33 0.04 0
0.34 0.04 0
0.35 0.04 0
0.36 0.04 0
0.37 0.04 0
0.38 0.04 0
0.39 0.04 0
0.4 0.04 0
0.41 0.04 0
0.42 0.04 0
0.43 0.04 0
0.44 0.04 0
0.45 0.04 0
0.46 0.04 0
0.47 0.04 0
0.48 0.04 0
0.49 0.04 0
0.5 0.04 0
0.51 0.04 0
0.52 0.04 0
0.53 0.04 0
0.54 0.04 0
0.55 0.04 0
0.56 0.04 0
0.57 0.04 0
0.58 0.04 0
0.59 0.04 0
0.6 0.04 0
0.61 0.04 0
0 0.05 0
0.01 0.05 0
0.02 0.05 0
0.03 0.05 0
0.04 0.05 0
0.05 0.05 0
0.06 0.05 0
0.07 0.05 0
0.08 0.05 0
0.09 0.05 0
0.1 0.05 0
0.11 0.05 0
0.12 0.05 0
0.13 0.05 0
0.14 0.05 0
0.15 0.05 0
0.16 0.05 0
0.17 0.05 0
0.18 0.05 0
0.19 0.05 0
0.2 0.05 0
0.21 0.05 0
0.22 0.05 0
0.23 0.05 0
0.24 0.05 0
0.25 0.05 0
0.26 0.05 0
0.27 0.05 0
0.28 0.05 0
0.29 0.05 0
0.3 0.05 0
0.31 0.05 0
0.32 0.05 0
0.33 0.05 0
0.34 0.05 0
0.35 0.05 0
0.36 0.05 0
0.37 0.05 0
0.38 0.05 0
0.39 0.05 0
0.4 0.05 0
0.41 0.05 0
0.42 0.05 0
0.43 0.05 0
0.44 0.05 0
0.45 0.05 0
0.46 0.05 0
0.47 0.05 0
0.48 0.05 0
0.49 0.05 0
0.5 0.05 0
0.51 0.05 0
0.52 0.05 0
0.53 0.05 0
0.54 0.05 0
0.55 0.05 0
0.56 0.05 0
0.57 0.05 0
0.58 0.05 0
0.59 0.05 0
0.6 0.05 0
0.61 0.05 0
0 0.06 0
0.01 0.06 0
0.02 0.06 0
0.03 0.06 0
0.04 0.06 0
0.05 0.06 0
0.06 0.06 0
0.07 0.06 0
0.08 0.06 0
0.09 0.06 0
0.1 0.06 0
0.11 0.06 0
0.12 0.06 0
0.13 0.06 0
0.14 0.06 0
0.15 0.06 0
0.16 0.06 0
0.17 0.06 0
0.18 0.06 0
0.19 0.06 0
0.2 0.06 0
0.21 0.06 0
0.22 0.06 0
0.23 0.06 0
0.24 0.06 0
0.25 0.06 0
0.26 0.06 0
0.27 0.06 0
0.28 0.06 0
0.29 0.06 0
0.3 0.06 0
0.31 0.06 0
0.32 0.06 0
0.33 0.06 0
0.34 0.06 0
0.35 0.06 0
0.36 0.06 0
0.37 0.06 0
0.38 0.06 0
0.39 0.06 0
0.4 0.06 0
0.41 0.06 0
0.42 0.06 0
0.43 0.06 0
0.44 0.06 0
0.45 0.06 0
0.46 0.06 0
0.47 0.06 0
0.48 0.06 0
0.49 0.06 0
0.5 0.06 0
0.51 0.06 0
0.52 0.06 0
0.53 0.06 0
0.54 0.06 0
0.55 0.06 0
0.56 0.06 0
0.57 0.06 0
0.58 0.06 0
0.59 0.06 0
0.6 0.06 0
0.61 0.06 0
0 0.07 0
0.01 0.07 0
0.02 0.07 0
0.03 0.07 0
0.04 0.07 0
0.05 0.07 0
0.06 0.07 0
0.07 0.07 0
0.08 0.07 0
0.09 0.07 0
0.1 0.07 0
0.11 0.07 0
0.12 0.07 0
0.13 0.07 0
0.14 0.07 0
0.15 0.07 0
0.16 0.07 0
0.17 0.07 0
0.18 0.07 0
0.19 0.07 0
0.2 0.07 0
0.21 0.07 0
0.22 0.07 0
0.23 0.07 0
0.24 0.07 0
0.25 0.07 0
0.26 0.07 0
0.27 0.07 0
0.28 0.07 0
0.29 0.07 0
0.3 0.07 0
0.31 0.07 0
0.32 0.07 0
0.33 0.07 0
0.34 0.07 0
0.35 0.07 0
0.36 0.07 0
0.37 0.07 0
0.38 0.07 0
0.39 0.07 0
0.4 0.07 0
0.41 0.07 0
0.42 0.07 0
0.43 0.07 0
0.44 0.07 0
0.45 0.07 0
0.46 0.07 0
0.47 0.07 0
0.48 0.07 0
0.49 0.07 0
0.5 0.07 0
0.51 0.07 0
0.52 0.07 0
0.53 0.07 0
0.54 0.07 0
0.55 0.07 0
0.56 0.07 0
0.57 0.07 0
0.58 0.07 0
0.59 0.07 0
0.6 0.07 0
0.61 0.07 0
0 0.08 0
0.01 0.08 0
0.02 0.08 0
0.03 0.08 0
0.04 0.08 0
0.05 0.08 0
0.06 0.08 0
0.07 0.08 0
0.08 0.08 0
0.09 0.08 0
0.1 0.08 0
0.11 0.08 0
0.12 0.08 0
0.13 0.08 0
0.14 0.08 0
0.15 0.08 0
0.16 0.08 0
0.17 0.08 0
0.18 0.08 0
0.19 0.08 0
0.2 0.08 0
0.21 0.08 0
0.22 0.08 0
0.23 0.08 0
0.24 0.08 0
0.25 0.08 0
0.26 0.08 0
0.27 0.08 0
0.28 0.08 0
0.29 0.08 0
0.3 0.08 0
0.31 0.08 0
0.32 0.08 0
0.33 0.08 0
0.34 0.08 0
0.35 0.08 0
0.36 0.08 0
0.37 0.08 0
0.38 0.08 0
0.39 0.08 0
0.4 0.08 0
0.41 0.08 0
0.42 0.08 0
0.43 0.08 0
0.44 0.08 0
0.45 0.08 0
0.46 0.08 0
0.47 0.08 0
0.48 0.08 0
0.49 0.08 0
0.5 0.08 0
0.51 0.08 0
0.52 0.08 0
0.53 0.08 0
0.54 0.08 0
0.55 0.08 0
0.56 0.08 0
0.57 0.08 0
0.58 0.08 0
0.59 0.08 0
0.6 0.08 0
0.61 0.08 0
0 0.09 0
0.01 0.09 0
0.02 0.09 0
0.03 0.09 0
0.04 0.09 0
0.05 0.09 0
0.06 0.09 0
0.07 0.09 0
0.08 0.09 0
0.09 0.09 0
0.1 0.09 0
0.11 0.09 0
0.12 0.09 0
0.13 0.09 0
0.14 0.09 0
0.15 0.09 0
0.16 0.09 0
0.17 0.09 0
0.18 0.09 0
0.19 0.09 0
0.2 0.09 0
0.21 0.09 0
0.22 0.09 0
0.23 0.09 0
0.24 0.09 0
0.25 0.09 0
0.26 0.09 0
0.27 0.09 0
0.28 0.09 0
0.29 0.09 0
0.3 0.09 0
0.31 0.09 0
0.32 0.09 0
0.33 0.09 0
0.34 0.09 0
0.35 0.09 0
0.36 0.09 0
0.37 0.09 0
0.38 0.09 0
0.39 0.09 0
0.4 0.09 0
0.41 0.09 0
0.42 0.09 0
0.43 0.09 0
0.44 0.09 0
0.45 0.09 0
0.46 0.09 0
0.47 0.09 0
0.48 0.09 0
0.49 0.09 0
0.5 0.09 0
0.51 0.09 0
0.52 0.09 0
0.53 0.09 0
0.54 0.09 0
0.55 0.09 0
0.56 0.09 0
0.57 0.09 0
0.58 0.09 0
0.59 0.09 0
0.6 0.09 0
0.61 0.09 0
0 0.1 0
0.01 0.1 0
0.02 0.1 0
0.03 0.1 0
0.04 0.1 0
0.05 0.1 0
0.06 0.1 0
0.07 0.1 0
0.08 0.1 0
0.09 0.1 0
0.1 0.1 0
0.11 0.1 0
0.12 0.1 0
0.13 0.1 0
0.14 0.1 0
0.15 0.1 0
0.16 0.1 0
0.17 0.1 0
0.18 0.1 0
0.19 0.1 0
0.2 0.1 0
0.21 0.1 0
0.22 0.1 0
0.23 0.1 0
0.24 0.1 0
0.25 0.1 0
0.26 0.1 0
0.27 0.1 0
0.28 0.1 0
0.29 0.1 0
0.3 0.1 0
0.31 0.1 0
0.32 0.1 0
0.33 0.1 0
0.34 0.1 0
0.35 0.1 0
0.36 0.1 0
0.37 0.1 0
0.38 0.1 0
0.39 0.1 0
0.4 0.1 0
0.41 0.1 0
0.42 0.1 0
0.43 0.1 0
0.44 0.1 0
0.45 0.1 0
0.46 0.1 0
0.47 0.1 0
0.48 0.1 0
0.49 0.1 0
0.5 0.1 0
0.51 0.1 0
0.52 0.1 0
0.53 0.1 0
0.54 0.1 0
0.55 0.1 0
0.56 0.1 0
0.57 0.1 0
0.58 0.1 0
0.59 0.1 0
0.6 0.1 0
0.61 0.1 0
0 0.11 0
0.01 0.11 0
0.02 0.11 0
0.03 0.11 0
0.04 0.11 0
0.05 0.11 0
0.06 0.11 0
0.07 0.11 0
0.08 0.11 0
0.09 0.11 0
0.1 0.11 0
0.11 0.11 0
0.12 0.11 0
0.13 0.11 0
0.14 0.11 0
0.15 0.11 0
0.16 0.11 0
0.17 0.11 0
0.18 0.11 0
0.19 0.11 0
0.2 0.11 0
0.21 0.11 0
0.22 0.11 0
0.23 0.11 0
0.24 0.11 0
0.25 0.11 0
0.26 0.11 0
0.27 0.11 0
0.28 0.11 0
0.29 0.11 0
0.3 0.11 0
0.31 0.11 0
0.32 0.11 0
0.33 0.11 0
0.34 0.11 0
0.35 0.11 0
0.36 0.11 0
0.37 0.11 0
0.38 0.11 0
0.39 0.11 0
0.4 0.11 0
0.41 0.11 0
0.42 0.11 0
0.43 0.11 0
0.44 0.11 0
0.45 0.11 0
0.46 0.11 0
0.47 0.11 0
0.48 0.11 0
0.49 0.11 0
0.5 0.11 0
0.51 0.11 0
0.52 0.11 0
0.53 0.11 0
0.54 0.11 0
0.55 0.11 0
0.56 0.11 0
0.57 0.11 0
0.58 0.11 0
0.59 0.11 0
0.6 0.11 0
0.61 0.11 0
0 0.12 0
0.01 0.12 0
0.02 0.12 0
0.03 0.12 0
0.04 0.12 0
0.05 0.12 0
0.06 0.12 0
0.07 0.12 0
0.08 0.12 0
0.09 0.12 0
0.1 0.12 0
0.11 0.12 0
0.12 0.12 0
0.13 0.12 0
0.14 0.12 0
0.15 0.12 0
0.16 0.12 0
0.17 0.12 0
0.18 0.12 0
0.19 0.12 0
0.2 0.12 0
0.21 0.12 0
0.22 0.12 0
0.23 0.12 0
0.24 0.12 0
0.25 0.12 0
0.26 0.12 0
0.27 0.12 0
0.28 0.12 0
0.29 0.12 0
0.3 0.12 0
0.31 0.12 0
0.32 0.12 0
0.33 0.12 0
0.34 0.12 0
0.35 0.12 0
0.36 0.12 0
0.37 0.12 0
0.38 0.12 0
0.39 0.12 0
0.4 0.12 0
0.41 0.12 0
0.42 0.12 0
0.43 0.12 0
0.44 0.12 0
0.45 0.12 0
0.46 0.12 0
0.47 0.12 0
0.48 0.12 0
0.49 0.12 0
0.5 0.12 0
0.51 0.12 0
0.52 0.12 0
0.53 0.12 0
0.54 0.12 0
0.55 0.12 0
0.56 0.12 0
0.57 0.12 0
0.58 0.12 0
0.59 0.12 0
0.6 0.12 0
0.61 0.12 0
0 0.13 0
0.01 0.13 0
0.02 0.13 0
0.03 0.13 0
0.04 0.13 0
0.05 0.13 0
0.06 0.13 0
0.07 0.13 0
0.08 0.13 0
0.09 0.13 0
0.1 0.13 0
0.11 0.13 0
0.12 0.13 0
0.13 0.13 0
0.14 0.13 0
0.15 0.13 0
0.16 0.13 0
0.17 0.13 0
0.18 0.13 0
0.19 0.13 0
0.2 0.13 0
0.21 0.13 0
0.22 0.13 0
0.23 0.13 0
0.24 0.13 0
0.25 0.13 0
0.26 0.13 0
0.27 0.13 0
0.28 0.13 0
0.29 0.13 0
0.3 0.13 0
0.31 0.13 0
0.32 0.13 0
0.33 0.13 0
0.34 0.13 0
0.35 0.13 0
0.36 0.13 0
0.37 0.13 0
0.38 0.13 0
0.39 0.13 0
0.4 0.13 0
0.41 0.13 0
0.42 0.13 0
0.43 0.13 0
0.44 0.13 0
0.45 0.13 0
0.46 0.13 0
0.47 0.13 0
0.48 0.13 0
[...]
POINT_DATA 93248

SCALARS u double
LOOKUP_TABLE default
0
0
0
0
0
0
0
0
0
0
0
0
0
0
0
0
0
0
0
0
0
0
0
0
0.299375
0
0
0
0
0
0
0
0.0426397
0.225238
0
0
0
0
0
0
0
0
0
0
0
0
0
0.0833911
0
0
0.0731197
0
0
0
0
0
0
0
0
0
0
0
0
0.416836
0.336864
0.26122
0.199575
0.153927
0.121767
0.100605
0.0881265
0.0812523
0.0775265
0.0753988
0.0749242
0.073957
0.0727138
0.0712411
0.0698331
0.0681102
0.0660443
0.0626836
0.0641449
0.0632269
0.0605322
0.0584613
0.0565406
0.0547031
0.0529097
0.0511258
0.0493237
0.0474755
0.0455508
0.0436039
0.0422705
0.0403095
0.0378242
0.0355333
0.034085
0.0316919
0.0300843
0.16589
0.0221395
0.0232313
0.023415
0.0237571
0.0254225
0.00986324
0.0144806
0.0135659
0.0124297
0.0102802
0.00806321
0.0358004
0.00560385
0.00729661
-0.00771429
-0.00710051
0.0114035
-0.00869879
-0.012402
-0.0187116
-0.0187116
0
0
0.490987
0.474376
0.448148
0.414364
0.381151
0.346594
0.316017
0.29127
0.273032
0.259813
0.249812
0.243653
0.23722
0.231259
0.225431
0.220193
0.214719
0.210757
0.342936
0.203585
0.196551
0.187356
0.181975
0.176412
0.170899
0.165438
0.159999
0.154553
0.149066
0.143479
0.137695
0.133066
0.127548
0.121423
0.115748
0.108476
0.100167
-0.0301355
0.0887442
0.0852588
0.0810256
0.0772844
0.0738059
0.069374
0.0596453
0.0529185
0.0486642
0.0437576
0.0385415
0.0335436
0.028505
0.0233185
0.017515
0.00638864
0.000479056
-0.00637915
-0.011367
-0.0188915
-0.0271616
-0.0271616
0
0
0.485137
0.48475
0.483385
0.473338
0.469455
0.449909
0.43114
0.412743
0.395102
0.397171
0.365769
0.351836
0.341035
0.331536
0.323184
0.315407
0.306485
0.298721
0.290116
0.281805
0.274806
0.266853
0.259266
0.251648
0.243997
0.236341
0.228687
0.221033
0.21339
0.20582
0.198461
0.189887
0.183339
0.217545
0.168391
0.15962
0.152306
0.147825
0.139247
0.130267
0.121912
0.138102
0.107265
0.0998457
0.130476
0.0816815
0.0728387
0.0437576
0.0575894
0.0508107
0.0436413
0.0358004
0.0271516
0.0171793
0.00858115
0.000104656
-0.00977651
-0.0181756
-0.0265272
-0.0265272
0
0
0.478046
0.473264
0.47902
0.477962
0.477773
0.472788
0.46497
0.454659
0.441997
0.42784
0.413834
0.399907
0.387459
0.376223
0.366018
0.355929
0.347703
0.338498
0.3409
0.319393
0.310568
0.301908
0.293373
0.284836
0.276273
0.267689
0.259096
0.250499
0.241904
0.233321
0.224711
0.215703
0.207404
0.198584
0.190474
0.182361
0.174951
0.168762
0.159901
0.150037
0.140052
0.130314
0.121456
0.112502
0.10283
0.0931633
0.0844126
0.0761983
0.0675565
0.0590989
0.0505505
0.0416402
0.0322529
0.0224936
0.0129959
0.00352774
-0.00637161
-0.0155996
-0.0245755
-0.0245755
0
0
0.475237
0.467012
0.465301
0.465039
0.465752
0.465063
0.462335
0.457022
0.44862
0.437719
0.425603
0.413166
0.401239
0.390058
0.379728
0.369735
0.360455
0.351027
0.341203
0.331688
0.322507
0.313519
0.304631
0.295773
0.286915
0.278048
0.269173
0.260291
0.251391
0.242448
0.233388
0.224154
0.215848
0.207006
0.198423
0.190097
0.182135
0.174347
0.165511
0.155887
0.14593
0.135989
0.126436
0.117052
0.107886
0.100813
0.088632
0.0799882
0.071051
0.0620789
0.0530556
0.0438601
0.0343917
0.0247579
0.0151663
0.00565064
-0.00377654
-0.012832
-0.0222057
-0.0222057
0
0
0.473993
0.46269
0.456399
0.453206
0.452008
0.451239
0.449926
0.447259
0.441576
0.43339
0.423534
0.412916
0.402202
0.391712
0.381781
0.372631
0.362817
0.353748
0.343887
0.334457
0.325312
0.316313
0.307379
0.298469
0.289566
0.280656
0.271746
0.262831
0.253895
0.244899
0.235745
0.226192
0.218533
0.209545
0.200659
0.192064
0.183639
0.175151
0.166216
0.156835
0.14718
0.137426
0.127703
0.11786
0.107779
0.100045
0.0907201
0.0814332
0.0722151
0.0630691
0.0539673
0.0448026
0.0353926
0.025877
0.01642
0.0071294
-0.00171522
-0.00901088
-0.0136854
-0.0136854
0
0
0.473347
0.460183
0.451103
0.445249
0.441994
0.459973
0.439511
0.436671
0.4324
0.426039
0.417976
0.408946
0.39941
0.389646
0.379921
0.371345
0.361449
0.352065
0.342936
0.33405
0.325277
0.316492
0.307665
0.298812
0.289953
0.281076
0.272213
0.263355
0.25449
0.24562
0.236876
0.228551
0.218148
0.209324
0.200768
0.192215
0.183619
0.174879
0.16589
0.156651
0.14723
0.138589
0.128089
0.118417
0.108866
0.100234
0.0911285
0.0818603
0.0725982
0.0634216
0.0543761
0.0453828
0.0359957
0.0265669
0.0172669
0.00804085
-0.00141008
-0.011242
-0.00870401
-0.00870401
0
0
0.472965
0.458671
0.447892
0.440161
0.435077
0.431959
0.430259
0.428065
0.424545
0.419218
0.412301
0.404627
0.396002
0.386615
0.375846
0.220193
0.355777
0.348462
0.3409
0.332844
0.324595
0.316057
0.307352
0.29856
0.286915
0.280929
0.27217
0.263409
0.254642
0.245829
0.237035
0.228254
0.218721
0.209669
0.200885
0.192178
0.183426
0.174561
0.165546
0.15638
0.147085
0.13769
0.128256
0.118809
0.109467
0.100398
0.0912426
0.0819862
0.0726938
0.0634461
0.0543877
0.0456846
0.0361911
0.0269027
0.0179322
0.00924652
0.000773616
-0.00886142
-0.0143275
-0.0143275
0
0
0.472721
0.457712
0.44586
0.436917
0.430654
0.42666
0.424214
0.421888
0.418557
0.413677
0.407203
0.401589
0.393059
0.384488
0.375798
0.36848
0.359379
0.350214
0.341379
0.332682
0.324297
0.315648
0.306913
0.298154
0.289482
0.280724
0.272008
0.263354
0.25474
0.246019
0.237089
0.228087
0.218938
0.20991
0.201008
0.192162
0.183292
0.174352
0.165327
0.156208
0.147002
0.137724
0.128408
0.119085
0.109807
0.100599
0.0913687
0.0820666
0.0726683
0.0631561
0.0535978
0.0452741
0.0355856
0.0267421
0.0181986
0.00974694
0.00126684
-0.0076358
-0.0159376
-0.0159376
0
0
0.47256
0.457079
0.444511
0.4348
0.427762
0.423127
0.420127
0.417494
0.414107
0.409452
0.403607
0.397323
0.390029
0.382356
0.374444
0.366947
0.35859
0.349847
0.341119
0.332576
0.323652
0.314968
0.306297
0.297548
0.289132
0.280363
0.27172
0.263216
0.254917
0.255908
0.23728
0.228055
0.219006
0.210027
0.201072
0.191759
0.183185
0.174218
0.165204
0.156129
0.14699
0.137796
0.128559
0.119303
0.110053
0.100813
0.0915498
0.082217
0.0727345
0.0629322
0.0524132
-0.00522792
0.0340037
0.0264834
0.0184146
0.010091
0.00160882
-0.00711765
-0.0160872
-0.0160872
0
0
0.472454
0.456662
0.443584
0.433402
0.4258
0.420649
0.41721
0.414261
0.410724
0.406118
0.400512
0.394254
0.387458
0.380387
0.372559
0.364858
0.356868
0.348591
0.340144
0.327824
0.322924
0.31435
0.305732
0.297069
0.288471
0.279816
0.271251
0.262857
0.254669
0.246609
0.236583
0.227834
0.21905
0.210135
0.201159
0.192165
0.182643
0.174151
0.165162
0.156126
0.147038
0.137913
0.128725
0.119506
0.110277
0.101045
0.0918008
0.0825233
0.0731947
0.0638991
0.054888
0.0466958
0.0369554
0.0278843
0.0191849
0.0106027
0.00200278
-0.00675425
-0.0158863
-0.0158863
0
0
0.47239
0.456427
0.443203
0.432371
0.424321
0.418795
0.415017
0.411798
0.408088
0.403448
0.397912
0.391751
0.385203
0.378659
0.370516
0.363002
0.355313
0.347336
0.339214
0.330978
0.322486
0.313897
0.305244
0.296542
0.287827
0.279126
0.270568
0.262262
0.254136
0.245014
0.237784
0.228815
0.21961
0.210427
0.201294
0.192219
0.183197
0.174196
0.165211
0.156195
0.147131
0.138102
0.128928
0.119719
0.110503
0.101294
0.0920979
0.0829099
0.073716
0.064717
0.0560301
0.0475644
0.0382421
0.0289703
0.0199736
0.0111751
0.00243433
-0.00640211
-0.0156136
-0.0156136
0
0
0.472342
0.456233
0.442738
0.431672
0.423321
0.417483
0.413414
0.409942
0.40604
0.401321
0.395761
0.389597
0.382942
0.375582
0.369398
0.362049
0.354285
0.346314
0.338383
0.330272
0.321905
0.313364
0.304701
0.295937
0.28709
0.278216
0.269536
0.26141
0.254881
0.246424
0.238026
0.229033
0.219801
0.210533
0.201314
0.192179
0.183129
0.17419
0.165286
0.156311
0.14717
0.138479
0.129183
0.119948
0.110731
0.101541
0.0923955
0.083296
0.0740929
0.0651838
0.056452
0.0477201
0.0386549
0.029542
0.0205512
0.0116993
0.00284595
-0.00604836
-0.0153212
-0.0153212
0
0
0.472307
0.456092
0.442459
0.431059
0.422571
0.416517
0.412219
0.40854
0.404502
0.399606
0.393991
0.387846
0.381295
0.374391
0.367731
0.360593
0.35302
0.34508
0.337588
0.329609
0.321298
0.312781
0.304113
0.295283
0.28625
0.276966
0.267573
0.258605
0.258231
0.249019
0.239187
0.229515
0.219975
0.210541
0.201216
0.192041
0.182923
0.174143
0.165438
0.156589
0.147579
0.138589
0.129401
0.120173
0.110947
0.101753
0.092629
0.0836199
0.0743158
0.0654813
0.056699
0.0478638
0.0388194
0.0298562
0.0209653
0.0122273
0.00315804
-0.00568699
-0.0149997
-0.0149997
0
0
0.472284
0.455962
0.442145
0.430772
0.422058
0.415809
0.411316
0.407451
0.403243
0.398259
0.392588
0.386449
0.379992
0.373298
0.366493
0.359399
0.35192
0.34381
0.337004
0.328956
0.320604
0.312133
0.303508
0.294669
0.285468
0.2755
0.263422
0.244948
0.273939
0.25367
0.240791
0.230063
0.220085
0.210431
0.200955
0.191651
0.182598
0.17403
0.165787
0.157103
0.148081
0.138923
0.129679
0.120413
0.111146
0.101905
0.0926737
0.0834485
0.0747835
0.0658794
0.0570018
0.0482225
0.0388293
0.0300701
0.0212255
0.012503
0.00367156
-0.00522143
-0.0145775
-0.0145775
0
0
0.472299
0.455863
0.441946
0.43053
0.421704
0.415294
0.410634
0.406601
0.402247
0.397171
0.391443
0.385299
0.3789
0.372306
0.365526
0.358531
0.351389
0.344436
0.335568
0.3276
0.319604
0.311388
0.302948
0.29425
0.285217
0.2757
0.265604
0.256315
0.258741
0.249895
0.239653
0.229548
0.219706
0.210047
0.200454
0.190953
0.181764
0.173517
0.166736
0.158172
0.14889
0.139461
0.130048
0.120684
0.111344
0.102066
0.0928243
0.0836427
0.0747575
0.066059
0.0571925
0.0482647
0.0392207
0.030397
0.0213276
0.0127661
0.00413428
-0.00460006
-0.0138846
-0.0138846
0
0
0.472383
0.455782
0.441831
0.430415
0.421536
0.41495
0.410135
0.405946
0.401463
0.396302
0.390498
0.38433
0.37797
0.371454
0.364724
0.357768
0.350625
0.343325
0.335229
0.327201
0.31915
0.310977
0.302632
0.294088
0.285337
0.276414
0.267546
0.25971
0.254494
0.246853
0.237912
0.228519
0.219009
0.209466
0.199731
0.189806
0.179773
0.170832
0.170101
0.160569
0.150232
0.1402
0.130476
0.120964
0.11153
0.102227
0.092968
0.0837293
0.0746223
0.0662855
0.0573659
0.0483757
0.0395254
0.0311632
0.0207588
0.0128185
0.00453945
-0.00367234
-0.0123882
-0.0123882
0
0
0.472105
0.455914
0.44196
0.430508
0.421668
0.415017
0.409794
0.405463
0.400883
0.39568
0.389733
0.383505
0.377182
0.370763
0.364061
0.357085
0.349886
0.342496
0.334763
0.326876
0.318876
0.31075
0.302482
0.294073
0.285554
0.277023
0.273334
0.260504
0.25346
0.24547
0.236748
0.227629
0.218302
0.208847
0.198959
0.188445
0.17592
0.155978
0.185911
0.16509
0.151815
0.140871
0.130799
0.121119
0.111718
0.102394
0.0931373
0.0838564
0.0744523
0.0665658
0.0573881
0.0483299
0.0394488
0.0306195
0.0212004
0.00160882
0.00474114
-0.00247714
-0.0086199
0
0
0
0.472192
0.455476
0.441794
0.430488
0.421729
0.414627
0.409496
0.405111
0.400523
0.395398
0.389097
0.382782
0.376514
0.370242
0.363471
0.356402
0.349143
0.341824
0.334284
0.326543
0.31864
0.31059
0.302402
0.294094
0.285706
0.277319
0.268969
0.260378
0.253274
0.244828
0.23598
0.226946
0.217667
0.20078
0.198545
0.188674
0.178201
0.168394
0.170908
0.156208
0.150878
0.140643
0.130763
0.121156
0.111761
0.1025
0.0933786
0.0844672
0.0758175
0.0654748
0.0567245
0.0480362
0.0393052
0.0305586
0.0218009
0.0134247
0.00495277
-0.00336459
-0.0121873
-0.0121873
0
0
0.472222
0.455773
0.441573
0.430475
0.421932
0.414261
0.409164
0.404846
0.400256
0.395383
0.388402
0.382139
0.375915
0.36968
0.362638
0.355497
0.348231
0.341203
0.333842
0.32623
0.318428
0.310464
0.302349
0.294106
0.285775
0.277465
0.269814
0.26202
0.252354
0.243768
0.235199
0.226439
0.217545
0.208608
0.199282
0.189857
0.1806
0.172402
0.166785
0.158809
0.149549
0.139998
0.130452
0.121017
0.1117
0.102504
0.0934226
0.08445
0.0754554
0.0658354
0.0567785
0.047969
0.0392369
0.030544
0.0218624
0.0132899
0.004606
-0.00424562
-0.0136618
-0.0136618
0
0
0.472243
0.455853
0.442038
0.429898
0.420162
0.414422
0.409478
0.404912
0.399903
0.39375
0.388757
0.382256
0.375237
0.338651
0.360897
0.354366
0.347322
0.340833
0.333539
0.325978
0.318262
0.310379
0.302324
0.29411
0.285713
0.276909
0.270912
0.261879
0.252642
0.243756
0.234995
0.226238
0.2175
0.2088
0.199845
0.19082
0.181962
0.173603
0.165755
0.157418
0.148538
0.139378
0.130048
0.120792
0.111575
0.102445
0.0933753
0.0843424
0.0752665
0.0660106
0.0568752
0.0479635
0.0391684
0.0304643
0.021686
0.012965
0.00417533
-0.00484258
-0.014317
-0.014317
0
0
0.472241
0.455823
0.441831
0.42996
0.42057
0.414157
0.409264
0.404801
0.39982
0.394002
0.388254
0.381665
0.355518
0.368587
0.361949
0.355093
0.34837
0.340563
0.333212
0.325788
0.318182
0.310385
0.302368
0.294199
0.285915
0.277571
0.26992
0.261451
0.252629
0.243771
0.234913
0.226081
0.217419
0.209147
0.200387
0.191547
0.182707
0.174043
0.165492
0.156827
0.147976
0.139038
0.129577
0.120554
0.111452
0.102381
0.0933168
0.0842723
0.0752299
0.0660948
0.0569057
0.0479165
0.0389929
0.030226
0.0213653
0.012638
0.00382761
-0.00527273
-0.0147226
-0.0147226
0
0
0.472237
0.455798
0.441755
0.430051
0.420869
0.414233
0.409288
0.404899
0.4
0.394172
0.388395
0.382395
0.376987
0.369358
0.362431
0.355537
0.34849
0.34101
0.333533
0.326005
0.318369
0.310586
0.302507
0.29434
0.28613
0.277903
0.269734
0.261256
0.252576
0.243739
0.23477
0.225706
0.216841
0.210139
0.201086
0.192317
0.183254
0.174298
0.165434
0.156566
0.147633
0.138614
0.129445
0.120398
0.110906
0.102298
0.0932082
0.0841715
0.0752129
0.0661573
0.0588002
0.04781
0.0386136
0.01775
0.0208959
0.0124005
0.00363986
-0.0056478
-0.0150668
-0.0150668
0
0
0.472237
0.455798
0.441766
0.430148
0.42107
0.414434
0.409499
0.40531
0.401267
0.394431
0.38868
0.382683
0.376685
0.369839
0.362945
0.355978
0.348688
0.341346
0.33389
0.326329
0.318683
0.310965
0.302667
0.294492
0.286335
0.278127
0.269847
0.262831
0.252659
0.243759
0.234604
0.224914
0.213249
0.214474
0.201818
0.193701
0.183751
0.174476
0.165421
0.156434
0.147427
0.138332
0.12921
0.120112
0.111002
0.101963
0.0929213
0.0838983
0.0750001
0.065934
0.0561957
0.0475038
0.0387734
0.030134
0.021215
0.0125021
0.00374012
-0.00606595
-0.0153851
-0.0153851
0
0
0.47224
0.45581
0.441804
0.430244
0.421247
0.414708
0.409704
0.405373
0.400596
0.394566
0.388709
0.382683
0.376532
0.370025
0.363333
0.356588
0.348644
0.341614
0.334223
0.32665
0.318992
0.311429
0.30277
0.294714
0.286646
0.278408
0.27004
0.261355
0.252691
0.243879
0.234754
0.225546
0.216374
0.210553
0.201496
0.192777
0.183577
0.174418
0.165353
0.156344
0.147316
0.138101
0.128956
0.119864
0.110776
0.101717
0.0926344
0.0834565
0.065401
0.0657364
0.0556592
0.0474377
0.0387464
0.0300024
0.0211428
0.0124394
0.00395524
-0.00647396
-0.0154695
-0.0154695
0
0
0.472244
0.455823
0.441838
0.430318
0.421362
0.414828
0.409933
0.405404
0.400537
0.394964
0.389097
0.383047
0.376826
0.370384
0.363734
0.356885
0.349532
0.342176
0.334658
0.326974
0.319091
0.310792
0.303556
0.295488
0.287236
0.278787
0.270168
0.261638
0.252966
0.24432
0.234859
0.22617
0.217556
0.209575
0.200985
0.192222
0.183257
0.174234
0.165225
0.156262
0.147305
0.137841
0.128709
0.119671
0.110629
0.10158
0.0925203
0.0834489
0.0743663
0.064859
0.0573192
0.0477191
0.0386962
0.0297789
0.0207884
0.0116417
0.0023088
-0.00493076
-0.0146614
-0.0146614
0
0
0.472244
0.455825
0.441854
0.430371
0.42147
0.415035
0.410423
0.405563
0.400721
0.395376
0.389646
0.383626
0.377388
0.370935
0.364283
0.357445
0.350237
0.342773
0.335148
0.327397
0.319558
0.311389
0.303508
0.295697
0.287565
0.27901
0.27034
0.261719
0.253063
0.244357
0.235414
0.226659
0.218001
0.209445
0.200754
0.191943
0.183023
0.174045
0.165054
0.156116
0.147326
0.137541
0.128561
0.119583
0.110548
0.101498
0.0924522
0.0834148
0.0743721
0.0652894
0.0568408
0.047712
0.0386496
0.0296567
0.020667
0.0116552
0.00270046
-0.00551392
-0.0148358
-0.0148358
0
0
0.472235
0.455799
0.441834
0.430395
0.421553
0.415225
0.411103
0.40565
0.401128
0.396092
0.390495
0.384487
0.378188
0.371667
0.364966
0.358249
0.350991
0.343361
0.335636
0.327824
0.320009
0.312013
0.303973
0.295769
0.287601
0.278831
0.270213
0.261667
0.253098
0.244457
0.235717
0.226975
0.218241
0.209496
0.200691
0.191815
0.182871
0.173874
0.16482
0.155658
0.146293
0.13807
0.128896
0.119674
0.110524
0.101434
0.0923851
0.0833647
0.0743626
0.0653924
0.0565569
0.0475695
0.0385625
0.0295886
0.0206652
0.0118628
0.00272896
-0.00588023
-0.0151167
-0.0151167
0
0
0.472207
0.455715
0.441758
0.430397
0.421575
0.415032
0.409585
0.40696
0.402727
0.400596
0.391864
0.385621
0.379158
0.372493
0.365542
0.359132
0.351587
0.343735
0.336
0.328162
0.320525
0.312574
0.304351
0.295672
0.254703
0.277976
0.269964
0.261704
0.253252
0.244665
0.235976
0.227225
0.218429
0.209588
0.200698
0.191759
0.182775
0.173751
0.164689
0.155579
0.146467
0.137739
0.128695
0.119542
0.110407
0.101325
0.0922917
0.0832926
0.0743147
0.0653559
0.0564182
0.0474491
0.0384736
0.0295233
0.0206162
0.0117563
0.00283952
-0.00601254
-0.0152813
-0.0152813
0
0
0.472155
0.455476
0.444892
0.430454
0.421739
0.415374
0.410619
0.4072
0.403159
0.398133
0.392491
0.386389
0.379989
0.37348
0.365222
0.359151
0.350985
0.351027
0.336136
0.328368
0.321071
0.313157
0.304982
0.296737
0.288674
0.279848
0.271118
0.262449
0.253777
0.245066
0.236304
0.22749
0.218624
0.209702
0.200735
0.191734
0.182705
0.173657
0.164603
0.155561
0.146544
0.137555
0.128458
0.119317
0.11021
0.101162
0.0921666
0.0832032
0.0742516
0.0652996
0.056339
0.0473653
0.0383964
0.0294584
0.0205535
0.0116706
0.00280349
-0.00610323
-0.0151167
-0.0153775
0
0
0.472158
0.454679
0.441091
0.430205
0.421847
0.41582
0.41147
0.407877
0.403884
0.399033
0.393469
0.387391
0.380889
0.373805
0.364976
0.214719
0.347186
0.341828
0.335763
0.329206
0.321255
0.313421
0.30548
0.297436
0.289069
0.280475
0.271787
0.263057
0.254291
0.245491
0.236653
0.227772
0.218835
0.209828
0.20078
0.191714
0.182635
0.173552
0.164493
0.155501
0.146548
0.137425
0.128209
0.119028
0.109943
0.100947
0.092013
0.0831087
0.0741988
0.0652649
0.0562993
0.0473103
0.0383296
0.0293994
0.0204893
0.0115792
0.00267602
-0.00901088
-0.0155394
-0.0155394
0
0
0.473463
0.452494
0.440518
0.430211
0.422196
0.416469
0.412369
0.408889
0.405008
0.400288
0.394803
0.388763
0.382305
0.375478
0.3684
0.36268
0.354201
0.346052
0.338261
0.330576
0.322497
0.314387
0.306253
0.298184
0.289399
0.280886
0.272278
0.263546
0.254741
0.245887
0.236996
0.228067
0.219075
0.209956
0.200814
0.191678
0.18254
0.173396
0.164284
0.15532
0.146489
0.137167
0.127784
0.118575
0.10956
0.100664
0.091835
0.083029
0.0741847
0.065281
0.0563098
0.047286
0.0382675
0.0293519
0.0185478
0.0114976
0.00265153
-0.00627075
-0.0167712
-0.0156119
0
0
0.47233
0.454934
0.441612
0.431034
0.423089
0.417497
0.413588
0.410342
0.406579
0.401943
0.396504
0.390487
0.384061
0.377375
0.370526
0.363938
0.35626
0.348204
0.340099
0.331973
0.323725
0.315388
0.306942
0.298266
0.290258
0.281657
0.272887
0.264052
0.255172
0.246265
0.237334
0.228385
0.219374
0.210068
0.200815
0.191621
0.18242
0.17317
0.163845
0.15478
0.146138
0.136346
0.126832
0.117755
0.108977
0.100297
0.0916443
0.0830007
0.0742615
0.065401
0.0564127
0.0473207
0.0382175
0.0294303
0.02045
0.0114705
0.00258432
-0.00633879
-0.015588
-0.015588
0
0
0.472297
0.45593
0.442573
0.431999
0.421536
0.418752
0.415121
0.412621
0.4087
0.404048
0.398614
0.392566
0.386051
0.372306
0.372185
0.365093
0.357507
0.349571
0.341446
0.333206
0.324859
0.31638
0.307802
0.29916
0.290723
0.282097
0.273334
0.264493
0.255556
0.246608
0.23765
0.228715
0.219787
0.210097
0.200787
0.191583
0.182331
0.172994
0.162967
0.153322
0.1444
0.133981
0.124929
0.116403
0.108148
0.0998982
0.0914838
0.0830754
0.0745545
0.0657512
0.0567065
0.0474998
0.0382064
0.0294883
0.020349
0.0113342
0.00244235
-0.00647597
-0.0157041
-0.0157041
0
0
0.472404
0.456446
0.443337
0.433017
0.425481
0.420406
0.417029
0.414256
0.410854
0.406465
0.401138
0.395058
0.388461
0.381543
0.374252
0.366731
0.358936
0.350909
0.342712
0.334396
0.325985
0.317352
0.30865
0.299948
0.291287
0.282558
0.273751
0.264866
0.255908
0.246919
0.237906
0.228947
0.220218
0.210032
0.200875
0.19171
0.182343
0.172698
0.162348
0.150625
0.0232313
0.129448
0.122607
0.114788
0.107038
0.0998173
0.0914482
0.0831479
0.0754612
0.0666495
0.0573633
0.0480212
0.0387891
0.0290046
0.019979
0.0110699
0.00222264
-0.00666482
-0.0158558
-0.0158558
0
0
0.472514
0.456841
0.444064
0.434115
0.426966
0.422332
0.419391
0.416914
0.413795
0.409543
0.404231
0.397977
0.391134
0.383907
0.376352
0.368546
0.360527
0.352334
0.34401
0.335594
0.327133
0.318238
0.309398
0.300632
0.29188
0.283047
0.274188
0.26526