# vtk DataFile Version 2.0
FlowField
ASCII
DATASET STRUCTURED_GRID
DIMENSIONS 62 47 32 
POINTS 93248 double
0 0 0
0.01 0 0
0.02 0 0
0.03 0 0
0.04 0 0
0.05 0 0
0.06 0 0
0.07 0 0
0.08 0 0
0.09 0 0
0.1 0 0
0.11 0 0
0.12 0 0
0.13 0 0
0.14 0 0
0.15 0 0
0.16 0 0
0.17 0 0
0.18 0 0
0.19 0 0
0.2 0 0
0.21 0 0
0.22 0 0
0.23 0 0
0.24 0 0
0.25 0 0
0.26 0 0
0.27 0 0
0.28 0 0
0.29 0 0
0.3 0 0
0.31 0 0
0.32 0 0
0.33 0 0
0.34 0 0
0.35 0 0
0.36 0 0
0.37 0 0
0.38 0 0
0.39 0 0
0.4 0 0
0.41 0 0
0.42 0 0
0.43 0 0
0.44 0 0
0.45 0 0
0.46 0 0
0.47 0 0
0.48 0 0
0.49 0 0
0.5 0 0
0.51 0 0
0.52 0 0
0.53 0 0
0.54 0 0
0.55 0 0
0.56 0 0
0.57 0 0
0.58 0 0
0.59 0 0
0.6 0 0
0.61 0 0
0 0.01 0
0.01 0.01 0
0.02 0.01 0
0.03 0.01 0
0.04 0.01 0
0.05 0.01 0
0.06 0.01 0
0.07 0.01 0
0.08 0.01 0
0.09 0.01 0
0.1 0.01 0
0.11 0.01 0
0.12 0.01 0
0.13 0.01 0
0.14 0.01 0
0.15 0.01 0
0.16 0.01 0
0.17 0.01 0
0.18 0.01 0
0.19 0.01 0
0.2 0.01 0
0.21 0.01 0
0.22 0.01 0
0.23 0.01 0
0.24 0.01 0
0.25 0.01 0
0.26 0.01 0
0.27 0.01 0
0.28 0.01 0
0.29 0.01 0
0.3 0.01 0
0.31 0.01 0
0.32 0.01 0
0.33 0.01 0
0.34 0.01 0
0.35 0.01 0
0.36 0.01 0
0.37 0.01 0
0.38 0.01 0
0.39 0.01 0
0.4 0.01 0
0.41 0.01 0
0.42 0.01 0
0.43 0.01 0
0.44 0.01 0
0.45 0.01 0
0.46 0.01 0
0.47 0.01 0
0.48 0.01 0
0.49 0.01 0
0.5 0.01 0
0.51 0.01 0
0.52 0.01 0
0.53 0.01 0
0.54 0.01 0
0.55 0.01 0
0.56 0.01 0
0.57 0.01 0
0.58 0.01 0
0.59 0.01 0
0.6 0.01 0
0.61 0.01 0
0 0.02 0
0.01 0.02 0
0.02 0.02 0
0.03 0.02 0
0.04 0.02 0
0.05 0.02 0
0.06 0.02 0
0.07 0.02 0
0.08 0.02 0
0.09 0.02 0
0.1 0.02 0
0.11 0.02 0
0.12 0.02 0
0.13 0.02 0
0.14 0.02 0
0.15 0.02 0
0.16 0.02 0
0.17 0.02 0
0.18 0.02 0
0.19 0.02 0
0.2 0.02 0
0.21 0.02 0
0.22 0.02 0
0.23 0.02 0
0.24 0.02 0
0.25 0.02 0
0.26 0.02 0
0.27 0.02 0
0.28 0.02 0
0.29 0.02 0
0.3 0.02 0
0.31 0.02 0
0.32 0.02 0
0.33 0.02 0
0.34 0.02 0
0.35 0.02 0
0.36 0.02 0
0.37 0.02 0
0.38 0.02 0
0.39 0.02 0
0.4 0.02 0
0.41 0.02 0
0.42 0.02 0
0.43 0.02 0
0.44 0.02 0
0.45 0.02 0
0.46 0.02 0
0.47 0.02 0
0.48 0.02 0
0.49 0.02 0
0.5 0.02 0
0.51 0.02 0
0.52 0.02 0
0.53 0.02 0
0.54 0.02 0
0.55 0.02 0
0.56 0.02 0
0.57 0.02 0
0.58 0.02 0
0.59 0.02 0
0.6 0.02 0
0.61 0.02 0
0 0.03 0
0.01 0.03 0
0.02 0.03 0
0.03 0.03 0
0.04 0.03 0
0.05 0.03 0
0.06 0.03 0
0.07 0.03 0
0.08 0.03 0
0.09 0.03 0
0.1 0.03 0
0.11 0.03 0
0.12 0.03 0
0.13 0.03 0
0.14 0.03 0
0.15 0.03 0
0.16 0.03 0
0.17 0.03 0
0.18 0.03 0
0.19 0.03 0
0.2 0.03 0
0.21 0.03 0
0.22 0.03 0
0.23 0.03 0
0.24 0.03 0
0.25 0.03 0
0.26 0.03 0
0.27 0.03 0
0.28 0.03 0
0.29 0.03 0
0.3 0.03 0
0.31 0.03 0
0.32 0.03 0
0.33 0.03 0
0.34 0.03 0
0.35 0.03 0
0.36 0.03 0
0.37 0.03 0
0.38 0.03 0
0.39 0.03 0
0.4 0.03 0
0.41 0.03 0
0.42 0.03 0
0.43 0.03 0
0.44 0.03 0
0.45 0.03 0
0.46 0.03 0
0.47 0.03 0
0.48 0.03 0
0.49 0.03 0
0.5 0.03 0
0.51 0.03 0
0.52 0.03 0
0.53 0.03 0
0.54 0.03 0
0.55 0.03 0
0.56 0.03 0
0.57 0.03 0
0.58 0.03 0
0.59 0.03 0
0.6 0.03 0
0.61 0.03 0
0 0.04 0
0.01 0.04 0
0.02 0.04 0
0.03 0.04 0
0.04 0.04 0
0.05 0.04 0
0.06 0.04 0
0.07 0.04 0
0.08 0.04 0
0.09 0.04 0
0.1 0.04 0
0.11 0.04 0
0.12 0.04 0
0.13 0.04 0
0.14 0.04 0
0.15 0.04 0
0.16 0.04 0
0.17 0.04 0
0.18 0.04 0
0.19 0.04 0
0.2 0.04 0
0.21 0.04 0
0.22 0.04 0
0.23 0.04 0
0.24 0.04 0
0.25 0.04 0
0.26 0.04 0
0.27 0.04 0
0.28 0.04 0
0.29 0.04 0
0.3 0.04 0
0.31 0.04 0
0.32 0.04 0
0.33 0.04 0
0.34 0.04 0
0.35 0.04 0
0.36 0.04 0
0.37 0.04 0
0.38 0.04 0
0.39 0.04 0
0.4 0.04 0
0.41 0.04 0
0.42 0.04 0
0.43 0.04 0
0.44 0.04 0
0.45 0.04 0
0.46 0.04 0
0.47 0.04 0
0.48 0.04 0
0.49 0.04 0
0.5 0.04 0
0.51 0.04 0
0.52 0.04 0
0.53 0.04 0
0.54 0.04 0
0.55 0.04 0
0.56 0.04 0
0.57 0.04 0
0.58 0.04 0
0.59 0.04 0
0.6 0.04 0
0.61 0.04 0
0 0.05 0
0.01 0.05 0
0.02 0.05 0
0.03 0.05 0
0.04 0.05 0
0.05 0.05 0
0.06 0.05 0
0.07 0.05 0
0.08 0.05 0
0.09 0.05 0
0.1 0.05 0
0.11 0.05 0
0.12 0.05 0
0.13 0.05 0
0.14 0.05 0
0.15 0.05 0
0.16 0.05 0
0.17 0.05 0
0.18 0.05 0
0.19 0.05 0
0.2 0.05 0
0.21 0.05 0
0.22 0.05 0
0.23 0.05 0
0.24 0.05 0
0.25 0.05 0
0.26 0.05 0
0.27 0.05 0
0.28 0.05 0
0.29 0.05 0
0.3 0.05 0
0.31 0.05 0
0.32 0.05 0
0.33 0.05 0
0.34 0.05 0
0.35 0.05 0
0.36 0.05 0
0.37 0.05 0
0.38 0.05 0
0.39 0.05 0
0.4 0.05 0
0.41 0.05 0
0.42 0.05 0
0.43 0.05 0
0.44 0.05 0
0.45 0.05 0
0.46 0.05 0
0.47 0.05 0
0.48 0.05 0
0.49 0.05 0
0.5 0.05 0
0.51 0.05 0
0.52 0.05 0
0.53 0.05 0
0.54 0.05 0
0.55 0.05 0
0.56 0.05 0
0.57 0.05 0
0.58 0.05 0
0.59 0.05 0
0.6 0.05 0
0.61 0.05 0
0 0.06 0
0.01 0.06 0
0.02 0.06 0
0.03 0.06 0
0.04 0.06 0
0.05 0.06 0
0.06 0.06 0
0.07 0.06 0
0.08 0.06 0
0.09 0.06 0
0.1 0.06 0
0.11 0.06 0
0.12 0.06 0
0.13 0.06 0
0.14 0.06 0
0.15 0.06 0
0.16 0.06 0
0.17 0.06 0
0.18 0.06 0
0.19 0.06 0
0.2 0.06 0
0.21 0.06 0
0.22 0.06 0
0.23 0.06 0
0.24 0.06 0
0.25 0.06 0
0.26 0.06 0
0.27 0.06 0
0.28 0.06 0
0.29 0.06 0
0.3 0.06 0
0.31 0.06 0
0.32 0.06 0
0.33 0.06 0
0.34 0.06 0
0.35 0.06 0
0.36 0.06 0
0.37 0.06 0
0.38 0.06 0
0.39 0.06 0
0.4 0.06 0
0.41 0.06 0
0.42 0.06 0
0.43 0.06 0
0.44 0.06 0
0.45 0.06 0
0.46 0.06 0
0.47 0.06 0
0.48 0.06 0
0.49 0.06 0
0.5 0.06 0
0.51 0.06 0
0.52 0.06 0
0.53 0.06 0
0.54 0.06 0
0.55 0.06 0
0.56 0.06 0
0.57 0.06 0
0.58 0.06 0
0.59 0.06 0
0.6 0.06 0
0.61 0.06 0
0 0.07 0
0.01 0.07 0
0.02 0.07 0
0.03 0.07 0
0.04 0.07 0
0.05 0.07 0
0.06 0.07 0
0.07 0.07 0
0.08 0.07 0
0.09 0.07 0
0.1 0.07 0
0.11 0.07 0
0.12 0.07 0
0.13 0.07 0
0.14 0.07 0
0.15 0.07 0
0.16 0.07 0
0.17 0.07 0
0.18 0.07 0
0.19 0.07 0
0.2 0.07 0
0.21 0.07 0
0.22 0.07 0
0.23 0.07 0
0.24 0.07 0
0.25 0.07 0
0.26 0.07 0
0.27 0.07 0
0.28 0.07 0
0.29 0.07 0
0.3 0.07 0
0.31 0.07 0
0.32 0.07 0
0.33 0.07 0
0.34 0.07 0
0.35 0.07 0
0.36 0.07 0
0.37 0.07 0
0.38 0.07 0
0.39 0.07 0
0.4 0.07 0
0.41 0.07 0
0.42 0.07 0
0.43 0.07 0
0.44 0.07 0
0.45 0.07 0
0.46 0.07 0
0.47 0.07 0
0.48 0.07 0
0.49 0.07 0
0.5 0.07 0
0.51 0.07 0
0.52 0.07 0
0.53 0.07 0
0.54 0.07 0
0.55 0.07 0
0.56 0.07 0
0.57 0.07 0
0.58 0.07 0
0.59 0.07 0
0.6 0.07 0
0.61 0.07 0
0 0.08 0
0.01 0.08 0
0.02 0.08 0
0.03 0.08 0
0.04 0.08 0
0.05 0.08 0
0.06 0.08 0
0.07 0.08 0
0.08 0.08 0
0.09 0.08 0
0.1 0.08 0
0.11 0.08 0
0.12 0.08 0
0.13 0.08 0
0.14 0.08 0
0.15 0.08 0
0.16 0.08 0
0.17 0.08 0
0.18 0.08 0
0.19 0.08 0
0.2 0.08 0
0.21 0.08 0
0.22 0.08 0
0.23 0.08 0
0.24 0.08 0
0.25 0.08 0
0.26 0.08 0
0.27 0.08 0
0.28 0.08 0
0.29 0.08 0
0.3 0.08 0
0.31 0.08 0
0.32 0.08 0
0.33 0.08 0
0.34 0.08 0
0.35 0.08 0
0.36 0.08 0
0.37 0.08 0
0.38 0.08 0
0.39 0.08 0
0.4 0.08 0
0.41 0.08 0
0.42 0.08 0
0.43 0.08 0
0.44 0.08 0
0.45 0.08 0
0.46 0.08 0
0.47 0.08 0
0.48 0.08 0
0.49 0.08 0
0.5 0.08 0
0.51 0.08 0
0.52 0.08 0
0.53 0.08 0
0.54 0.08 0
0.55 0.08 0
0.56 0.08 0
0.57 0.08 0
0.58 0.08 0
0.59 0.08 0
0.6 0.08 0
0.61 0.08 0
0 0.09 0
0.01 0.09 0
0.02 0.09 0
0.03 0.09 0
0.04 0.09 0
0.05 0.09 0
0.06 0.09 0
0.07 0.09 0
0.08 0.09 0
0.09 0.09 0
0.1 0.09 0
0.11 0.09 0
0.12 0.09 0
0.13 0.09 0
0.14 0.09 0
0.15 0.09 0
0.16 0.09 0
0.17 0.09 0
0.18 0.09 0
0.19 0.09 0
0.2 0.09 0
0.21 0.09 0
0.22 0.09 0
0.23 0.09 0
0.24 0.09 0
0.25 0.09 0
0.26 0.09 0
0.27 0.09 0
0.28 0.09 0
0.29 0.09 0
0.3 0.09 0
0.31 0.09 0
0.32 0.09 0
0.33 0.09 0
0.34 0.09 0
0.35 0.09 0
0.36 0.09 0
0.37 0.09 0
0.38 0.09 0
0.39 0.09 0
0.4 0.09 0
0.41 0.09 0
0.42 0.09 0
0.43 0.09 0
0.44 0.09 0
0.45 0.09 0
0.46 0.09 0
0.47 0.09 0
0.48 0.09 0
0.49 0.09 0
0.5 0.09 0
0.51 0.09 0
0.52 0.09 0
0.53 0.09 0
0.54 0.09 0
0.55 0.09 0
0.56 0.09 0
0.57 0.09 0
0.58 0.09 0
0.59 0.09 0
0.6 0.09 0
0.61 0.09 0
0 0.1 0
0.01 0.1 0
0.02 0.1 0
0.03 0.1 0
0.04 0.1 0
0.05 0.1 0
0.06 0.1 0
0.07 0.1 0
0.08 0.1 0
0.09 0.1 0
0.1 0.1 0
0.11 0.1 0
0.12 0.1 0
0.13 0.1 0
0.14 0.1 0
0.15 0.1 0
0.16 0.1 0
0.17 0.1 0
0.18 0.1 0
0.19 0.1 0
0.2 0.1 0
0.21 0.1 0
0.22 0.1 0
0.23 0.1 0
0.24 0.1 0
0.25 0.1 0
0.26 0.1 0
0.27 0.1 0
0.28 0.1 0
0.29 0.1 0
0.3 0.1 0
0.31 0.1 0
0.32 0.1 0
0.33 0.1 0
0.34 0.1 0
0.35 0.1 0
0.36 0.1 0
0.37 0.1 0
0.38 0.1 0
0.39 0.1 0
0.4 0.1 0
0.41 0.1 0
0.42 0.1 0
0.43 0.1 0
0.44 0.1 0
0.45 0.1 0
0.46 0.1 0
0.47 0.1 0
0.48 0.1 0
0.49 0.1 0
0.5 0.1 0
0.51 0.1 0
0.52 0.1 0
0.53 0.1 0
0.54 0.1 0
0.55 0.1 0
0.56 0.1 0
0.57 0.1 0
0.58 0.1 0
0.59 0.1 0
0.6 0.1 0
0.61 0.1 0
0 0.11 0
0.01 0.11 0
0.02 0.11 0
0.03 0.11 0
0.04 0.11 0
0.05 0.11 0
0.06 0.11 0
0.07 0.11 0
0.08 0.11 0
0.09 0.11 0
0.1 0.11 0
0.11 0.11 0
0.12 0.11 0
0.13 0.11 0
0.14 0.11 0
0.15 0.11 0
0.16 0.11 0
0.17 0.11 0
0.18 0.11 0
0.19 0.11 0
0.2 0.11 0
0.21 0.11 0
0.22 0.11 0
0.23 0.11 0
0.24 0.11 0
0.25 0.11 0
0.26 0.11 0
0.27 0.11 0
0.28 0.11 0
0.29 0.11 0
0.3 0.11 0
0.31 0.11 0
0.32 0.11 0
0.33 0.11 0
0.34 0.11 0
0.35 0.11 0
0.36 0.11 0
0.37 0.11 0
0.38 0.11 0
0.39 0.11 0
0.4 0.11 0
0.41 0.11 0
0.42 0.11 0
0.43 0.11 0
0.44 0.11 0
0.45 0.11 0
0.46 0.11 0
0.47 0.11 0
0.48 0.11 0
0.49 0.11 0
0.5 0.11 0
0.51 0.11 0
0.52 0.11 0
0.53 0.11 0
0.54 0.11 0
0.55 0.11 0
0.56 0.11 0
0.57 0.11 0
0.58 0.11 0
0.59 0.11 0
0.6 0.11 0
0.61 0.11 0
0 0.12 0
0.01 0.12 0
0.02 0.12 0
0.03 0.12 0
0.04 0.12 0
0.05 0.12 0
0.06 0.12 0
0.07 0.12 0
0.08 0.12 0
0.09 0.12 0
0.1 0.12 0
0.11 0.12 0
0.12 0.12 0
0.13 0.12 0
0.14 0.12 0
0.15 0.12 0
0.16 0.12 0
0.17 0.12 0
0.18 0.12 0
0.19 0.12 0
0.2 0.12 0
0.21 0.12 0
0.22 0.12 0
0.23 0.12 0
0.24 0.12 0
0.25 0.12 0
0.26 0.12 0
0.27 0.12 0
0.28 0.12 0
0.29 0.12 0
0.3 0.12 0
0.31 0.12 0
0.32 0.12 0
0.33 0.12 0
0.34 0.12 0
0.35 0.12 0
0.36 0.12 0
0.37 0.12 0
0.38 0.12 0
0.39 0.12 0
0.4 0.12 0
0.41 0.12 0
0.42 0.12 0
0.43 0.12 0
0.44 0.12 0
0.45 0.12 0
0.46 0.12 0
0.47 0.12 0
0.48 0.12 0
0.49 0.12 0
0.5 0.12 0
0.51 0.12 0
0.52 0.12 0
0.53 0.12 0
0.54 0.12 0
0.55 0.12 0
0.56 0.12 0
0.57 0.12 0
0.58 0.12 0
0.59 0.12 0
0.6 0.12 0
0.61 0.12 0
0 0.13 0
0.01 0.13 0
0.02 0.13 0
0.03 0.13 0
0.04 0.13 0
0.05 0.13 0
0.06 0.13 0
0.07 0.13 0
0.08 0.13 0
0.09 0.13 0
0.1 0.13 0
0.11 0.13 0
0.12 0.13 0
0.13 0.13 0
0.14 0.13 0
0.15 0.13 0
0.16 0.13 0
0.17 0.13 0
0.18 0.13 0
0.19 0.13 0
0.2 0.13 0
0.21 0.13 0
0.22 0.13 0
0.23 0.13 0
0.24 0.13 0
0.25 0.13 0
0.26 0.13 0
0.27 0.13 0
0.28 0.13 0
0.29 0.13 0
0.3 0.13 0
0.31 0.13 0
0.32 0.13 0
0.33 0.13 0
0.34 0.13 0
0.35 0.13 0
0.36 0.13 0
0.37 0.13 0
0.38 0.13 0
0.39 0.13 0
0.4 0.13 0
0.41 0.13 0
0.42 0.13 0
0.43 0.13 0
0.44 0.13 0
0.45 0.13 0
0.46 0.13 0
0.47 0.13 0
0.48 0.13 0
[...]
POINT_DATA 93248

SCALARS w double
LOOKUP_TABLE default
0
0
0
0
0
0
0
0
0
0
0
0
0
-0.062907
0
0
0
0
0
0
0
0
0
0
0
0
-0.126978
0
0
0
0
0
-0.122415
0
0
0
0
0
0
0
0
0
0
0
0
0
-0.112346
0
0
0
0
0
0
0
0
0
0
0
0
0
0
0
0
-0.01789
-0.0353375
-0.0477365
-0.0547979
-0.0581719
-0.0600993
-0.0613454
-0.0618597
-0.0619607
-0.0616743
-0.0608963
-0.0596243
-0.0595612
-0.0599553
-0.060419
-0.060798
-0.0613001
-0.0617228
-0.0613899
-0.0565783
-0.0562004
-0.0577172
-0.0576107
-0.0574706
-0.0573508
-0.0572057
-0.0570302
-0.0568318
-0.0566074
-0.0563222
-0.0558817
-0.0552311
-0.0553381
-0.0553992
-0.054756
-0.0538236
-0.0545333
-0.0563377
-0.0611118
-0.0527264
-0.0547595
-0.0568787
-0.0581919
-0.0601627
-0.119929
-0.0564491
-0.05579
-0.0558645
-0.056737
-0.0575851
-0.0586242
-0.0576983
-0.059669
-0.119932
-0.0590897
-0.0559545
-0.0549525
-0.0554855
-0.0549806
-0.0518461
0
0
-0.0212943
-0.050882
-0.0685378
-0.0812095
-0.0900693
-0.0994124
-0.106175
-0.110682
-0.113311
-0.114524
-0.114283
-0.112626
-0.112918
-0.113378
-0.113908
-0.114354
-0.115274
-0.116351
-0.117996
-0.108401
-0.108924
-0.133913
-0.11062
-0.109696
-0.109312
-0.109019
-0.108719
-0.108397
-0.108053
-0.10767
-0.107137
-0.10608
-0.106413
-0.106589
-0.105543
-0.105409
-0.104482
-0.104385
-0.110693
-0.107879
-0.108588
-0.109513
-0.110316
-0.112366
-0.115098
-0.112755
-0.109453
-0.108523
-0.108782
-0.109524
-0.120542
-0.110265
-0.11165
-0.114147
-0.111926
-0.110482
-0.107181
-0.106275
-0.103729
-0.0969975
0
0
-0.0211281
-0.0508089
-0.0704956
-0.0853733
-0.0581719
-0.10653
-0.116881
-0.124136
-0.129138
-0.132533
-0.133466
-0.135231
-0.134115
-0.133201
-0.132643
-0.132782
-0.133836
-0.134239
-0.135171
-0.133758
-0.131277
-0.130759
-0.129388
-0.128504
-0.127936
-0.1275
-0.12711
-0.126736
-0.126383
-0.126099
-0.126064
-0.126705
-0.128929
-0.126036
-0.12325
-0.122995
-0.122674
-0.122912
-0.12575
-0.126141
-0.126841
-0.127871
-0.127417
-0.12891
-0.130612
-0.128401
-0.127066
-0.126194
-0.12701
-0.1272
-0.127716
-0.127675
-0.128325
-0.129133
-0.12901
-0.128888
-0.128408
-0.125414
-0.121289
-0.112879
0
0
-0.0206709
-0.0496303
-0.0499311
-0.0859495
-0.0985838
-0.110563
-0.120099
-0.12748
-0.132916
-0.136588
-0.138364
-0.139291
-0.138866
-0.13803
-0.13713
-0.136556
-0.135588
-0.136276
-0.137245
-0.136392
-0.135412
-0.134558
-0.133667
-0.132913
-0.132302
-0.131789
-0.131336
-0.130923
-0.130551
-0.130249
-0.130075
-0.130028
-0.129534
-0.129151
-0.12796
-0.127483
-0.127271
-0.126257
-0.12855
-0.12936
-0.130034
-0.130637
-0.130684
-0.131287
-0.131967
-0.131555
-0.130564
-0.129976
-0.13022
-0.130367
-0.130547
-0.130723
-0.131063
-0.131445
-0.131726
-0.131852
-0.131423
-0.129269
-0.125094
-0.116279
0
0
-0.0205222
-0.0496004
-0.0705669
-0.0876558
-0.101053
-0.112233
-0.121228
-0.128249
-0.133525
-0.137028
-0.138839
-0.139381
-0.138975
-0.138104
-0.130631
-0.136046
-0.135581
-0.13546
-0.135653
-0.135225
-0.134605
-0.133913
-0.133204
-0.132535
-0.13193
-0.131394
-0.13091
-0.13047
-0.130075
-0.129725
-0.129389
-0.128929
-0.128058
-0.127871
-0.127593
-0.127392
-0.127296
-0.127359
-0.127804
-0.128284
-0.128721
-0.129067
-0.129225
-0.129458
-0.129806
-0.130465
-0.129244
-0.12884
-0.128899
-0.129033
-0.129191
-0.129403
-0.12969
-0.129999
-0.130277
-0.130355
-0.129824
-0.127873
-0.123722
-0.115206
0
0
-0.0204491
-0.0495311
-0.0712127
-0.0881919
-0.10182
-0.112996
-0.121599
-0.128229
-0.133355
-0.13666
-0.138284
-0.138596
-0.138086
-0.137116
-0.135843
-0.134735
-0.134393
-0.130748
-0.134036
-0.133725
-0.13316
-0.132502
-0.131827
-0.13117
-0.130555
-0.130018
-0.129522
-0.129067
-0.128662
-0.128301
-0.127936
-0.127383
-0.126052
-0.12639
-0.126476
-0.126373
-0.12627
-0.126257
-0.126379
-0.126573
-0.126782
-0.12695
-0.126999
-0.126938
-0.126529
-0.125325
-0.125987
-0.126462
-0.126757
-0.126955
-0.127135
-0.127382
-0.127732
-0.128073
-0.128318
-0.128278
-0.127433
-0.124696
-0.119139
-0.112216
0
0
-0.0203844
-0.0493912
-0.0711682
-0.0881782
-0.101951
-0.113524
-0.121507
-0.128512
-0.133373
-0.136333
-0.137618
-0.137621
-0.137039
-0.135995
-0.134519
-0.132539
-0.133204
-0.133446
-0.133285
-0.132758
-0.132043
-0.131311
-0.130595
-0.129903
-0.129242
-0.128743
-0.128238
-0.127772
-0.127375
-0.127063
-0.126853
-0.126938
-0.127968
-0.126974
-0.126131
-0.125593
-0.125276
-0.125118
-0.125074
-0.125104
-0.12517
-0.125237
-0.125171
-0.125063
-0.124765
-0.124299
-0.124495
-0.124799
-0.12503
-0.125184
-0.12533
-0.125607
-0.126123
-0.126566
-0.126818
-0.126709
-0.125477
-0.120584
-0.0549806
-0.109325
0
0
-0.0203203
-0.0492228
-0.0709501
-0.0879248
-0.101655
-0.112908
-0.121509
-0.128265
-0.132991
-0.135743
-0.136732
-0.136101
-0.135836
-0.134917
-0.133127
-0.129159
-0.122845
-0.133187
-0.132872
-0.132077
-0.131158
-0.130362
-0.129616
-0.128879
-0.128114
-0.127754
-0.12721
-0.126726
-0.126352
-0.126107
-0.125946
-0.125933
-0.126137
-0.125694
-0.12512
-0.124643
-0.124308
-0.124101
-0.12399
-0.123943
-0.123931
-0.123926
-0.123875
-0.123798
-0.123668
-0.123537
-0.123577
-0.123689
-0.123778
-0.123811
-0.123844
-0.124093
-0.124983
-0.125588
-0.125902
-0.125981
-0.125587
-0.123734
-0.116787
-0.110071
0
0
-0.0202605
-0.0490574
-0.0707036
-0.0876124
-0.101278
-0.1124
-0.121204
-0.127918
-0.132544
-0.135132
-0.135714
-0.112626
-0.134293
-0.134161
-0.133045
-0.131232
-0.131861
-0.132232
-0.13191
-0.131212
-0.130239
-0.129555
-0.128839
-0.12808
-0.127282
-0.126774
-0.126265
-0.125816
-0.125503
-0.125386
-0.125232
-0.125037
-0.124809
-0.124441
-0.124033
-0.123675
-0.123391
-0.1232
-0.123081
-0.12301
-0.122969
-0.122942
-0.122913
-0.122879
-0.122842
-0.12282
-0.122834
-0.122859
-0.122844
-0.122742
-0.122568
-0.121511
-0.124307
-0.125041
-0.125334
-0.125452
-0.125227
-0.123817
-0.119393
-0.110415
0
0
-0.0202084
-0.048912
-0.0704792
-0.0873155
-0.100935
-0.112018
-0.120866
-0.127577
-0.132169
-0.134742
-0.13554
-0.134735
-0.134645
-0.134134
-0.133369
-0.132403
-0.131996
-0.131636
-0.131109
-0.130475
-0.130031
-0.129171
-0.128294
-0.127421
-0.12477
-0.125929
-0.12542
-0.124968
-0.124706
-0.12482
-0.124695
-0.12431
-0.123842
-0.12342
-0.123068
-0.122793
-0.122553
-0.122394
-0.122294
-0.122228
-0.122185
-0.122159
-0.122152
-0.122156
-0.122166
-0.122184
-0.122206
-0.122211
-0.122157
-0.121983
-0.121673
-0.121511
-0.124237
-0.12471
-0.124881
-0.124977
-0.124774
-0.123486
-0.119624
-0.110417
0
0
-0.0201662
-0.0487945
-0.0702991
-0.0870684
-0.100671
-0.111748
-0.120602
-0.127309
-0.131889
-0.134482
-0.135443
-0.135298
-0.134815
-0.134196
-0.133725
-0.13286
-0.132031
-0.131259
-0.130488
-0.129712
-0.129164
-0.128422
-0.127624
-0.126804
-0.125953
-0.125265
-0.124616
-0.124059
-0.123676
-0.123656
-0.124257
-0.123351
-0.122734
-0.122371
-0.122129
-0.121947
-0.121805
-0.121658
-0.121587
-0.121538
-0.121502
-0.121478
-0.121505
-0.121547
-0.121594
-0.121643
-0.121689
-0.121721
-0.121709
-0.121613
-0.121516
-0.121778
-0.12324
-0.123944
-0.124287
-0.124481
-0.124343
-0.12313
-0.119412
-0.110259
0
0
-0.0201342
-0.0487088
-0.0701865
-0.0870219
-0.10058
-0.111609
-0.120435
-0.12712
-0.131682
-0.134272
-0.135285
-0.13525
-0.134706
-0.134066
-0.133947
-0.132756
-0.131672
-0.130732
-0.129846
-0.129047
-0.128378
-0.127691
-0.126964
-0.126194
-0.125381
-0.12455
-0.12371
-0.122921
-0.122131
-0.121484
-0.120022
-0.120533
-0.120942
-0.121127
-0.12117
-0.121137
-0.121071
-0.120988
-0.120932
-0.120895
-0.120854
-0.120773
-0.120898
-0.121009
-0.1211
-0.121183
-0.121267
-0.121358
-0.121444
-0.121448
-0.121517
-0.121853
-0.12261
-0.123231
-0.123682
-0.123998
-0.123961
-0.122816
-0.119163
-0.11006
0
0
-0.0201096
-0.0486418
-0.0700893
-0.0869018
-0.100433
-0.111453
-0.120272
-0.126949
-0.1315
-0.134075
-0.135097
-0.135059
-0.134426
-0.133425
-0.131673
-0.131145
-0.130615
-0.12992
-0.129057
-0.128333
-0.127712
-0.127089
-0.12641
-0.125645
-0.12477
-0.123754
-0.122576
-0.121244
-0.119264
-0.119079
-0.119012
-0.119449
-0.119908
-0.120222
-0.120381
-0.120424
-0.120405
-0.120327
-0.120273
-0.120248
-0.120174
-0.117167
-0.120267
-0.120514
-0.120665
-0.120786
-0.120908
-0.121066
-0.12128
-0.121304
-0.121427
-0.121745
-0.122245
-0.122742
-0.123211
-0.123612
-0.12369
-0.122568
-0.118945
-0.109865
0
0
-0.0200912
-0.0485928
-0.0700241
-0.0879248
-0.100346
-0.111319
-0.120124
-0.126795
-0.131345
-0.133953
-0.134953
-0.134887
-0.134226
-0.133247
-0.132029
-0.131169
-0.130414
-0.129551
-0.128358
-0.127742
-0.127255
-0.126706
-0.126038
-0.125229
-0.124226
-0.122912
-0.121041
-0.117993
-0.109955
-0.113466
-0.116234
-0.117899
-0.118884
-0.119436
-0.119697
-0.119772
-0.120362
-0.119608
-0.119503
-0.119517
-0.119576
-0.119601
-0.119871
-0.120101
-0.120282
-0.120429
-0.120564
-0.120739
-0.121069
-0.121018
-0.121189
-0.121555
-0.122068
-0.122456
-0.122907
-0.123363
-0.124696
-0.122402
-0.118765
-0.109684
0
0
-0.0200783
-0.0485582
-0.0699456
-0.0866905
-0.100178
-0.111177
-0.119988
-0.126657
-0.131202
-0.133792
-0.134797
-0.134737
-0.134091
-0.133188
-0.13221
-0.131322
-0.130482
-0.129522
-0.127854
-0.127637
-0.127277
-0.126687
-0.125932
-0.125015
-0.123856
-0.122195
-0.119181
-0.110899
0.0603346
-0.101764
-0.112128
-0.11619
-0.117992
-0.118811
-0.119118
-0.119116
-0.118923
-0.118574
-0.118248
-0.118365
-0.118687
-0.119039
-0.119391
-0.119691
-0.119929
-0.120098
-0.120201
-0.120191
-0.119974
-0.120342
-0.12079
-0.121352
-0.124307
-0.122345
-0.122767
-0.123146
-0.123289
-0.122209
-0.118606
-0.10951
0
0
-0.020072
-0.0485589
-0.0699002
-0.086566
-0.10005
-0.111058
-0.119876
-0.126545
-0.131085
-0.13367
-0.134686
-0.134636
-0.134002
-0.133135
-0.132231
-0.131383
-0.130628
-0.130114
-0.130544
-0.129312
-0.128106
-0.127048
-0.126042
-0.12499
-0.123763
-0.122132
-0.119598
-0.114993
-0.106298
-0.110987
-0.114788
-0.116988
-0.118143
-0.118653
-0.118742
-0.118481
-0.117862
-0.11679
-0.115228
-0.115918
-0.117053
-0.118019
-0.118731
-0.119235
-0.119592
-0.119812
-0.119937
-0.11996
-0.119868
-0.119967
-0.120438
-0.121033
-0.121694
-0.122215
-0.122958
-0.123071
-0.123134
-0.122084
-0.118475
-0.109329
0
0
-0.0200564
-0.0485742
-0.069828
-0.0864226
-0.0999002
-0.110957
-0.1198
-0.126469
-0.131004
-0.133597
-0.134649
-0.134606
-0.133955
-0.133069
-0.132169
-0.131333
-0.130591
-0.130005
-0.129678
-0.128886
-0.127939
-0.126973
-0.126
-0.12498
-0.123845
-0.122491
-0.120778
-0.118454
-0.116177
-0.116541
-0.117485
-0.118236
-0.118638
-0.118707
-0.118493
-0.117842
-0.116411
-0.113118
-0.105196
-0.110158
-0.114161
-0.116555
-0.11794
-0.118761
-0.119283
-0.11957
-0.119748
-0.119818
-0.119731
-0.119536
-0.120159
-0.120815
-0.121446
-0.122304
-0.131726
-0.123163
-0.123136
-0.122023
-0.118366
-0.109064
0
0
-0.0199659
-0.0481238
-0.0694147
-0.0860868
-0.0996671
-0.112018
-0.11983
-0.126454
-0.130961
-0.133571
-0.134728
-0.134665
-0.133925
-0.132946
-0.132011
-0.131176
-0.130417
-0.129715
-0.129083
-0.128372
-0.12759
-0.126764
-0.125897
-0.124979
-0.12399
-0.122923
-0.121823
-0.120184
-0.118893
-0.118769
-0.118976
-0.119117
-0.119064
-0.118786
-0.118367
-0.117342
-0.114821
-0.106417
0.0650089
-0.0992204
-0.110763
-0.115293
-0.117356
-0.118403
-0.118963
-0.119363
-0.119633
-0.119805
-0.119795
-0.119329
-0.120237
-0.120828
-0.121308
-0.121893
-0.122668
-0.12257
-0.123126
-0.121944
-0.118201
-0.108894
0
0
-0.0199557
-0.0481563
-0.069372
-0.0859243
-0.0995327
-0.110968
-0.119832
-0.126412
-0.13088
-0.133529
-0.134967
-0.13475
-0.133786
-0.132614
-0.131672
-0.130892
-0.130159
-0.129388
-0.128706
-0.128047
-0.127359
-0.126626
-0.125845
-0.125013
-0.12413
-0.123203
-0.122242
-0.121209
-0.119835
-0.119955
-0.119982
-0.119794
-0.119432
-0.118881
-0.118478
-0.117436
-0.115415
-0.111168
-0.102573
-0.108329
-0.113298
-0.116013
-0.117529
-0.118399
-0.118927
-0.119306
-0.119624
-0.11999
-0.120628
-0.12187
-0.12132
-0.121131
-0.121261
-0.121595
-0.122043
-0.122405
-0.122723
-0.121692
-0.118037
-0.108751
0
0
-0.0199661
-0.048209
-0.0693862
-0.0857804
-0.0994594
-0.111214
-0.11978
-0.126187
-0.130593
-0.133243
-0.135116
-0.134402
-0.133168
-0.13178
-0.131052
-0.130501
-0.129882
-0.129025
-0.128448
-0.1279
-0.127291
-0.126614
-0.12588
-0.125094
-0.12425
-0.123325
-0.122225
-0.122138
-0.122878
-0.121995
-0.121141
-0.120437
-0.119795
-0.119163
-0.118611
-0.117825
-0.116671
-0.115084
-0.113486
-0.114401
-0.115944
-0.117167
-0.11803
-0.118598
-0.118995
-0.119312
-0.119606
-0.11996
-0.120467
-0.121084
-0.121084
-0.121037
-0.121133
-0.121411
-0.121859
-0.122316
-0.122507
-0.121526
-0.117951
-0.108848
0
0
-0.0199786
-0.0482565
-0.0695078
-0.0863231
-0.0995318
-0.109599
-0.118543
-0.125384
-0.129949
-0.132257
-0.131938
-0.132232
-0.131771
-0.130363
-0.130355
-0.130224
-0.129808
-0.128822
-0.128516
-0.128055
-0.127439
-0.126744
-0.12601
-0.125228
-0.124362
-0.123234
-0.109847
-0.121748
-0.122271
-0.1219
-0.121256
-0.120551
-0.11985
-0.119185
-0.118673
-0.118161
-0.117609
-0.117087
-0.116824
-0.117044
-0.117536
-0.118072
-0.118591
-0.118867
-0.119101
-0.11934
-0.119568
-0.119836
-0.120178
-0.120542
-0.120741
-0.120825
-0.120946
-0.121238
-0.121792
-0.122288
-0.122451
-0.121486
-0.117929
-0.108879
0
0
-0.019984
-0.0482688
-0.0695058
-0.0861511
-0.0994598
-0.110058
-0.11876
-0.125406
-0.129865
-0.132165
-0.132698
-0.132633
-0.132048
-0.130045
-0.130399
-0.130526
-0.130389
-0.13054
-0.129617
-0.128653
-0.12777
-0.126959
-0.126204
-0.125421
-0.124582
-0.123637
-0.122458
-0.122314
-0.122134
-0.121714
-0.121113
-0.120381
-0.11953
-0.118572
-0.118288
-0.118103
-0.118003
-0.117941
-0.117976
-0.118118
-0.118353
-0.118692
-0.121547
-0.119161
-0.119194
-0.119384
-0.11953
-0.119717
-0.119985
-0.120326
-0.120596
-0.120682
-0.120753
-0.121017
-0.121803
-0.122322
-0.122502
-0.121567
-0.117958
-0.108884
0
0
-0.0199857
-0.0482682
-0.0694877
-0.0860736
-0.0994566
-0.11032
-0.119065
-0.125634
-0.129992
-0.132071
-0.133172
-0.133305
-0.133168
-0.133995
-0.132852
-0.131808
-0.131031
-0.130411
-0.129564
-0.128667
-0.127812
-0.127045
-0.12639
-0.125631
-0.124814
-0.124002
-0.123255
-0.122747
-0.12226
-0.121693
-0.120997
-0.120062
-0.118606
-0.115823
-0.11678
-0.117223
-0.117839
-0.118191
-0.11841
-0.118583
-0.118763
-0.118974
-0.119218
-0.119211
-0.119178
-0.119445
-0.119492
-0.119606
-0.119851
-0.120297
-0.120662
-0.12066
-0.120596
-0.120718
-0.121908
-0.122365
-0.122607
-0.121785
-0.11803
-0.108861
0
0
-0.0199877
-0.0482694
-0.069484
-0.0860666
-0.0995008
-0.110494
-0.119449
-0.125923
-0.130108
-0.117684
-0.133023
-0.133641
-0.133474
-0.133337
-0.132635
-0.13184
-0.131215
-0.130288
-0.129382
-0.128519
-0.12772
-0.127047
-0.126623
-0.125809
-0.124943
-0.124163
-0.123505
-0.122968
-0.122394
-0.121753
-0.120978
-0.119727
-0.11677
-0.0553992
-0.113468
-0.107153
-0.117284
-0.118225
-0.118614
-0.118834
-0.119012
-0.119183
-0.119277
-0.119284
-0.119277
-0.119353
-0.119389
-0.119462
-0.11968
-0.120359
-0.120999
-0.120629
-0.120573
-0.12083
-0.121573
-0.122176
-0.122621
-0.122132
-0.118067
-0.108763
0
0
-0.0199916
-0.0482764
-0.0694933
-0.0860855
-0.0995623
-0.110702
-0.126949
-0.126454
-0.1306
-0.132588
-0.133829
-0.133987
-0.133579
-0.132989
-0.132299
-0.131714
-0.137171
-0.130387
-0.12928
-0.128386
-0.127587
-0.126934
-0.126757
-0.125688
-0.124776
-0.124073
-0.123505
-0.123054
-0.122472
-0.121885
-0.121273
-0.120115
-0.11826
-0.114944
-0.116369
-0.117141
-0.118059
-0.118583
-0.118861
-0.11904
-0.119221
-0.119426
-0.119431
-0.119361
-0.119305
-0.119291
-0.119286
-0.119286
-0.119347
-0.120243
-0.121162
-0.120332
-0.120437
-0.120771
-0.121284
-0.121809
-0.122238
-0.122173
-0.117757
-0.10852
0
0
-0.0199979
-0.04829
-0.0695107
-0.0861042
-0.0995784
-0.110668
-0.119812
-0.126531
-0.130974
-0.133347
-0.134258
-0.134175
-0.133585
-0.132821
-0.132046
-0.13136
-0.130894
-0.129962
-0.129077
-0.128241
-0.127402
-0.126447
-0.124876
-0.124513
-0.124159
-0.12379
-0.123371
-0.122833
-0.12244
-0.122093
-0.125946
-0.120866
-0.119738
-0.118745
-0.118634
-0.118714
-0.118889
-0.119026
-0.119117
-0.11921
-0.119391
-0.119725
-0.119562
-0.119374
-0.119268
-0.119223
-0.119205
-0.119184
-0.119138
-0.119045
-0.118216
-0.11971
-0.120226
-0.120616
-0.121003
-0.121236
-0.120767
-0.118542
-0.116429
-0.10817
0
0
-0.0200083
-0.0483145
-0.0695399
-0.0861248
-0.099577
-0.11062
-0.119636
-0.126838
-0.13127
-0.133563
-0.134331
-0.134144
-0.13348
-0.132653
-0.131813
-0.131023
-0.13036
-0.129672
-0.128948
-0.128181
-0.127363
-0.126964
-0.125403
-0.124737
-0.124153
-0.12384
-0.123492
-0.123058
-0.122633
-0.122229
-0.121893
-0.121187
-0.120524
-0.120009
-0.119703
-0.119527
-0.119424
-0.119353
-0.119299
-0.119277
-0.119375
-0.119846
-0.119414
-0.119201
-0.119136
-0.119126
-0.119131
-0.119133
-0.119113
-0.119046
-0.118928
-0.119555
-0.12005
-0.120467
-0.120855
-0.121135
-0.120964
-0.119551
-0.11656
-0.108083
0
0
-0.0200279
-0.0483641
-0.0695983
-0.086159
-0.0995688
-0.110546
-0.119506
-0.127124
-0.131083
-0.133204
-0.133987
-0.133859
-0.133245
-0.132436
-0.131573
-0.130683
-0.130121
-0.129622
-0.129001
-0.128256
-0.127402
-0.126581
-0.125723
-0.124932
-0.124131
-0.12409
-0.123796
-0.123351
-0.122871
-0.122396
-0.121925
-0.121412
-0.12093
-0.120525
-0.120201
-0.119943
-0.119734
-0.119556
-0.119391
-0.119198
-0.118846
-0.118037
-0.118475
-0.118785
-0.118938
-0.119012
-0.119056
-0.119091
-0.11913
-0.119186
-0.119306
-0.119619
-0.119986
-0.120379
-0.120807
-0.121248
-0.12313
-0.12023
-0.116842
-0.108122
0
0
-0.0200706
-0.0484786
-0.0697325
-0.0862297
-0.0995656
-0.11039
-0.118819
-0.124045
-0.128958
-0.13199
-0.133309
-0.133465
-0.132999
-0.132254
-0.131433
-0.130212
-0.130056
-0.12986
-0.129288
-0.128495
-0.127502
-0.12671
-0.125944
-0.125094
-0.123948
-0.124614
-0.124192
-0.123628
-0.123073
-0.122553
-0.122063
-0.121599
-0.121176
-0.120804
-0.120477
-0.120187
-0.119926
-0.119686
-0.119453
-0.119205
-0.118902
-0.118552
-0.118627
-0.118777
-0.118885
-0.118947
-0.118989
-0.119036
-0.119106
-0.119214
-0.119382
-0.119624
-0.119932
-0.120306
-0.120752
-0.121217
-0.121408
-0.120379
-0.116978
-0.108173
0
0
-0.0201733
-0.048778
-0.0700493
-0.0863788
-0.0996508
-0.110419
-0.118875
-0.124943
-0.129421
-0.132162
-0.133362
-0.13348
-0.132995
-0.13228
-0.136046
-0.129329
-0.13039
-0.130535
-0.129825
-0.128908
-0.127746
-0.127053
-0.126345
-0.125585
-0.124857
-0.124654
-0.124223
-0.123688
-0.123149
-0.122639
-0.122167
-0.121735
-0.121346
-0.120997
-0.120673
-0.120362
-0.120063
-0.119774
-0.119493
-0.119221
-0.118985
-0.118843
-0.118839
-0.118878
-0.118902
-0.11891
-0.118919
-0.118953
-0.119028
-0.119151
-0.119325
-0.119555
-0.119844
-0.120209
-0.120666
-0.121149
-0.121296
-0.120357
-0.117038
-0.108213
0
0
-0.0204205
-0.0497207
-0.0706051
-0.086799
-0.0999271
-0.110613
-0.11911
-0.125488
-0.129918
-0.13252
-0.133606
-0.133642
-0.133071
-0.132145
-0.130755
-0.127156
-0.131565
-0.131343
-0.130379
-0.129312
-0.128921
-0.127895
-0.126914
-0.126099
-0.125538
-0.124917
-0.12429
-0.123702
-0.123163
-0.122675
-0.122232
-0.121836
-0.121486
-0.121174
-0.120856
-0.120522
-0.120178
-0.119833
-0.119489
-0.119161
-0.118925
-0.118898
-0.118945
-0.118959
-0.118921
-0.118862
-0.118818
-0.118822
-0.118889
-0.119015
-0.119197
-0.119429
-0.119713
-0.120069
-0.12055
-0.121098
-0.121242
-0.120285
-0.117072
-0.10825
0
0
-0.0209161
-0.0685378
-0.0718906
-0.0873642
-0.100203
-0.110768
-0.119232
-0.125642
-0.130099
-0.132693
-0.133763
-0.133784
-0.133198
-0.132274
-0.131129
-0.129653
-0.130527
-0.130516
-0.129954
-0.129235
-0.128572
-0.127763
-0.126941
-0.126219
-0.125834
-0.124972
-0.124248
-0.123658
-0.123147
-0.122693
-0.122286
-0.12193
-0.121635
-0.121389
-0.121074
-0.120694
-0.120286
-0.119866
-0.119429
-0.11897
-0.118662
-0.118845
-0.119025
-0.119033
-0.118911
-0.118751
-0.118621
-0.118578
-0.118637
-0.118777
-0.118987
-0.119249
-0.119541
-0.119885
-0.120405
-0.121095
-0.121262
-0.120342
-0.116995
-0.108285
0
0
-0.0205069
-0.0499311
-0.0707561
-0.0869082
-0.0999545
-0.110608
-0.119076
-0.125347
-0.129961
-0.132663
-0.133803
-0.133878
-0.133338
-0.132479
-0.131739
-0.130961
-0.130623
-0.1302
-0.129623
-0.128964
-0.128281
-0.127569
-0.126824
-0.12599
-0.124809
-0.124385
-0.123991
-0.123566
-0.123131
-0.122725
-0.122352
-0.122035
-0.121814
-0.121697
-0.121347
-0.120873
-0.120377
-0.119876
-0.119348
-0.11861
-0.118087
-0.118832
-0.119201
-0.119111