# vtk DataFile Version 2.0
FlowField
ASCII
DATASET STRUCTURED_GRID
DIMENSIONS 62 47 32 
POINTS 93248 double
0 0 0
0.01 0 0
0.02 0 0
0.03 0 0
0.04 0 0
0.05 0 0
0.06 0 0
0.07 0 0
0.08 0 0
0.09 0 0
0.1 0 0
0.11 0 0
0.12 0 0
0.13 0 0
0.14 0 0
0.15 0 0
0.16 0 0
0.17 0 0
0.18 0 0
0.19 0 0
0.2 0 0
0.21 0 0
0.22 0 0
0.23 0 0
0.24 0 0
0.25 0 0
0.26 0 0
0.27 0 0
0.28 0 0
0.29 0 0
0.3 0 0
0.31 0 0
0.32 0 0
0.33 0 0
0.34 0 0
0.35 0 0
0.36 0 0
0.37 0 0
0.38 0 0
0.39 0 0
0.4 0 0
0.41 0 0
0.42 0 0
0.43 0 0
0.44 0 0
0.45 0 0
0.46 0 0
0.47 0 0
0.48 0 0
0.49 0 0
0.5 0 0
0.51 0 0
0.52 0 0
0.53 0 0
0.54 0 0
0.55 0 0
0.56 0 0
0.57 0 0
0.58 0 0
0.59 0 0
0.6 0 0
0.61 0 0
0 0.01 0
0.01 0.01 0
0.02 0.01 0
0.03 0.01 0
0.04 0.01 0
0.05 0.01 0
0.06 0.01 0
0.07 0.01 0
0.08 0.01 0
0.09 0.01 0
0.1 0.01 0
0.11 0.01 0
0.12 0.01 0
0.13 0.01 0
0.14 0.01 0
0.15 0.01 0
0.16 0.01 0
0.17 0.01 0
0.18 0.01 0
0.19 0.01 0
0.2 0.01 0
0.21 0.01 0
0.22 0.01 0
0.23 0.01 0
0.24 0.01 0
0.25 0.01 0
0.26 0.01 0
0.27 0.01 0
0.28 0.01 0
0.29 0.01 0
0.3 0.01 0
0.31 0.01 0
0.32 0.01 0
0.33 0.01 0
0.34 0.01 0
0.35 0.01 0
0.36 0.01 0
0.37 0.01 0
0.38 0.01 0
0.39 0.01 0
0.4 0.01 0
0.41 0.01 0
0.42 0.01 0
0.43 0.01 0
0.44 0.01 0
0.45 0.01 0
0.46 0.01 0
0.47 0.01 0
0.48 0.01 0
0.49 0.01 0
0.5 0.01 0
0.51 0.01 0
0.52 0.01 0
0.53 0.01 0
0.54 0.01 0
0.55 0.01 0
0.56 0.01 0
0.57 0.01 0
0.58 0.01 0
0.59 0.01 0
0.6 0.01 0
0.61 0.01 0
0 0.02 0
0.01 0.02 0
0.02 0.02 0
0.03 0.02 0
0.04 0.02 0
0.05 0.02 0
0.06 0.02 0
0.07 0.02 0
0.08 0.02 0
0.09 0.02 0
0.1 0.02 0
0.11 0.02 0
0.12 0.02 0
0.13 0.02 0
0.14 0.02 0
0.15 0.02 0
0.16 0.02 0
0.17 0.02 0
0.18 0.02 0
0.19 0.02 0
0.2 0.02 0
0.21 0.02 0
0.22 0.02 0
0.23 0.02 0
0.24 0.02 0
0.25 0.02 0
0.26 0.02 0
0.27 0.02 0
0.28 0.02 0
0.29 0.02 0
0.3 0.02 0
0.31 0.02 0
0.32 0.02 0
0.33 0.02 0
0.34 0.02 0
0.35 0.02 0
0.36 0.02 0
0.37 0.02 0
0.38 0.02 0
0.39 0.02 0
0.4 0.02 0
0.41 0.02 0
0.42 0.02 0
0.43 0.02 0
0.44 0.02 0
0.45 0.02 0
0.46 0.02 0
0.47 0.02 0
0.48 0.02 0
0.49 0.02 0
0.5 0.02 0
0.51 0.02 0
0.52 0.02 0
0.53 0.02 0
0.54 0.02 0
0.55 0.02 0
0.56 0.02 0
0.57 0.02 0
0.58 0.02 0
0.59 0.02 0
0.6 0.02 0
0.61 0.02 0
0 0.03 0
0.01 0.03 0
0.02 0.03 0
0.03 0.03 0
0.04 0.03 0
0.05 0.03 0
0.06 0.03 0
0.07 0.03 0
0.08 0.03 0
0.09 0.03 0
0.1 0.03 0
0.11 0.03 0
0.12 0.03 0
0.13 0.03 0
0.14 0.03 0
0.15 0.03 0
0.16 0.03 0
0.17 0.03 0
0.18 0.03 0
0.19 0.03 0
0.2 0.03 0
0.21 0.03 0
0.22 0.03 0
0.23 0.03 0
0.24 0.03 0
0.25 0.03 0
0.26 0.03 0
0.27 0.03 0
0.28 0.03 0
0.29 0.03 0
0.3 0.03 0
0.31 0.03 0
0.32 0.03 0
0.33 0.03 0
0.34 0.03 0
0.35 0.03 0
0.36 0.03 0
0.37 0.03 0
0.38 0.03 0
0.39 0.03 0
0.4 0.03 0
0.41 0.03 0
0.42 0.03 0
0.43 0.03 0
0.44 0.03 0
0.45 0.03 0
0.46 0.03 0
0.47 0.03 0
0.48 0.03 0
0.49 0.03 0
0.5 0.03 0
0.51 0.03 0
0.52 0.03 0
0.53 0.03 0
0.54 0.03 0
0.55 0.03 0
0.56 0.03 0
0.57 0.03 0
0.58 0.03 0
0.59 0.03 0
0.6 0.03 0
0.61 0.03 0
0 0.04 0
0.01 0.04 0
0.02 0.04 0
0.03 0.04 0
0.04 0.04 0
0.05 0.04 0
0.06 0.04 0
0.07 0.04 0
0.08 0.04 0
0.09 0.04 0
0.1 0.04 0
0.11 0.04 0
0.12 0.04 0
0.13 0.04 0
0.14 0.04 0
0.15 0.04 0
0.16 0.04 0
0.17 0.04 0
0.18 0.04 0
0.19 0.04 0
0.2 0.04 0
0.21 0.04 0
0.22 0.04 0
0.23 0.04 0
0.24 0.04 0
0.25 0.04 0
0.26 0.04 0
0.27 0.04 0
0.28 0.04 0
0.29 0.04 0
0.3 0.04 0
0.31 0.04 0
0.32 0.04 0
0.33 0.04 0
0.34 0.04 0
0.35 0.04 0
0.36 0.04 0
0.37 0.04 0
0.38 0.04 0
0.39 0.04 0
0.4 0.04 0
0.41 0.04 0
0.42 0.04 0
0.43 0.04 0
0.44 0.04 0
0.45 0.04 0
0.46 0.04 0
0.47 0.04 0
0.48 0.04 0
0.49 0.04 0
0.5 0.04 0
0.51 0.04 0
0.52 0.04 0
0.53 0.04 0
0.54 0.04 0
0.55 0.04 0
0.56 0.04 0
0.57 0.04 0
0.58 0.04 0
0.59 0.04 0
0.6 0.04 0
0.61 0.04 0
0 0.05 0
0.01 0.05 0
0.02 0.05 0
0.03 0.05 0
0.04 0.05 0
0.05 0.05 0
0.06 0.05 0
0.07 0.05 0
0.08 0.05 0
0.09 0.05 0
0.1 0.05 0
0.11 0.05 0
0.12 0.05 0
0.13 0.05 0
0.14 0.05 0
0.15 0.05 0
0.16 0.05 0
0.17 0.05 0
0.18 0.05 0
0.19 0.05 0
0.2 0.05 0
0.21 0.05 0
0.22 0.05 0
0.23 0.05 0
0.24 0.05 0
0.25 0.05 0
0.26 0.05 0
0.27 0.05 0
0.28 0.05 0
0.29 0.05 0
0.3 0.05 0
0.31 0.05 0
0.32 0.05 0
0.33 0.05 0
0.34 0.05 0
0.35 0.05 0
0.36 0.05 0
0.37 0.05 0
0.38 0.05 0
0.39 0.05 0
0.4 0.05 0
0.41 0.05 0
0.42 0.05 0
0.43 0.05 0
0.44 0.05 0
0.45 0.05 0
0.46 0.05 0
0.47 0.05 0
0.48 0.05 0
0.49 0.05 0
0.5 0.05 0
0.51 0.05 0
0.52 0.05 0
0.53 0.05 0
0.54 0.05 0
0.55 0.05 0
0.56 0.05 0
0.57 0.05 0
0.58 0.05 0
0.59 0.05 0
0.6 0.05 0
0.61 0.05 0
0 0.06 0
0.01 0.06 0
0.02 0.06 0
0.03 0.06 0
0.04 0.06 0
0.05 0.06 0
0.06 0.06 0
0.07 0.06 0
0.08 0.06 0
0.09 0.06 0
0.1 0.06 0
0.11 0.06 0
0.12 0.06 0
0.13 0.06 0
0.14 0.06 0
0.15 0.06 0
0.16 0.06 0
0.17 0.06 0
0.18 0.06 0
0.19 0.06 0
0.2 0.06 0
0.21 0.06 0
0.22 0.06 0
0.23 0.06 0
0.24 0.06 0
0.25 0.06 0
0.26 0.06 0
0.27 0.06 0
0.28 0.06 0
0.29 0.06 0
0.3 0.06 0
0.31 0.06 0
0.32 0.06 0
0.33 0.06 0
0.34 0.06 0
0.35 0.06 0
0.36 0.06 0
0.37 0.06 0
0.38 0.06 0
0.39 0.06 0
0.4 0.06 0
0.41 0.06 0
0.42 0.06 0
0.43 0.06 0
0.44 0.06 0
0.45 0.06 0
0.46 0.06 0
0.47 0.06 0
0.48 0.06 0
0.49 0.06 0
0.5 0.06 0
0.51 0.06 0
0.52 0.06 0
0.53 0.06 0
0.54 0.06 0
0.55 0.06 0
0.56 0.06 0
0.57 0.06 0
0.58 0.06 0
0.59 0.06 0
0.6 0.06 0
0.61 0.06 0
0 0.07 0
0.01 0.07 0
0.02 0.07 0
0.03 0.07 0
0.04 0.07 0
0.05 0.07 0
0.06 0.07 0
0.07 0.07 0
0.08 0.07 0
0.09 0.07 0
0.1 0.07 0
0.11 0.07 0
0.12 0.07 0
0.13 0.07 0
0.14 0.07 0
0.15 0.07 0
0.16 0.07 0
0.17 0.07 0
0.18 0.07 0
0.19 0.07 0
0.2 0.07 0
0.21 0.07 0
0.22 0.07 0
0.23 0.07 0
0.24 0.07 0
0.25 0.07 0
0.26 0.07 0
0.27 0.07 0
0.28 0.07 0
0.29 0.07 0
0.3 0.07 0
0.31 0.07 0
0.32 0.07 0
0.33 0.07 0
0.34 0.07 0
0.35 0.07 0
0.36 0.07 0
0.37 0.07 0
0.38 0.07 0
0.39 0.07 0
0.4 0.07 0
0.41 0.07 0
0.42 0.07 0
0.43 0.07 0
0.44 0.07 0
0.45 0.07 0
0.46 0.07 0
0.47 0.07 0
0.48 0.07 0
0.49 0.07 0
0.5 0.07 0
0.51 0.07 0
0.52 0.07 0
0.53 0.07 0
0.54 0.07 0
0.55 0.07 0
0.56 0.07 0
0.57 0.07 0
0.58 0.07 0
0.59 0.07 0
0.6 0.07 0
0.61 0.07 0
0 0.08 0
0.01 0.08 0
0.02 0.08 0
0.03 0.08 0
0.04 0.08 0
0.05 0.08 0
0.06 0.08 0
0.07 0.08 0
0.08 0.08 0
0.09 0.08 0
0.1 0.08 0
0.11 0.08 0
0.12 0.08 0
0.13 0.08 0
0.14 0.08 0
0.15 0.08 0
0.16 0.08 0
0.17 0.08 0
0.18 0.08 0
0.19 0.08 0
0.2 0.08 0
0.21 0.08 0
0.22 0.08 0
0.23 0.08 0
0.24 0.08 0
0.25 0.08 0
0.26 0.08 0
0.27 0.08 0
0.28 0.08 0
0.29 0.08 0
0.3 0.08 0
0.31 0.08 0
0.32 0.08 0
0.33 0.08 0
0.34 0.08 0
0.35 0.08 0
0.36 0.08 0
0.37 0.08 0
0.38 0.08 0
0.39 0.08 0
0.4 0.08 0
0.41 0.08 0
0.42 0.08 0
0.43 0.08 0
0.44 0.08 0
0.45 0.08 0
0.46 0.08 0
0.47 0.08 0
0.48 0.08 0
0.49 0.08 0
0.5 0.08 0
0.51 0.08 0
0.52 0.08 0
0.53 0.08 0
0.54 0.08 0
0.55 0.08 0
0.56 0.08 0
0.57 0.08 0
0.58 0.08 0
0.59 0.08 0
0.6 0.08 0
0.61 0.08 0
0 0.09 0
0.01 0.09 0
0.02 0.09 0
0.03 0.09 0
0.04 0.09 0
0.05 0.09 0
0.06 0.09 0
0.07 0.09 0
0.08 0.09 0
0.09 0.09 0
0.1 0.09 0
0.11 0.09 0
0.12 0.09 0
0.13 0.09 0
0.14 0.09 0
0.15 0.09 0
0.16 0.09 0
0.17 0.09 0
0.18 0.09 0
0.19 0.09 0
0.2 0.09 0
0.21 0.09 0
0.22 0.09 0
0.23 0.09 0
0.24 0.09 0
0.25 0.09 0
0.26 0.09 0
0.27 0.09 0
0.28 0.09 0
0.29 0.09 0
0.3 0.09 0
0.31 0.09 0
0.32 0.09 0
0.33 0.09 0
0.34 0.09 0
0.35 0.09 0
0.36 0.09 0
0.37 0.09 0
0.38 0.09 0
0.39 0.09 0
0.4 0.09 0
0.41 0.09 0
0.42 0.09 0
0.43 0.09 0
0.44 0.09 0
0.45 0.09 0
0.46 0.09 0
0.47 0.09 0
0.48 0.09 0
0.49 0.09 0
0.5 0.09 0
0.51 0.09 0
0.52 0.09 0
0.53 0.09 0
0.54 0.09 0
0.55 0.09 0
0.56 0.09 0
0.57 0.09 0
0.58 0.09 0
0.59 0.09 0
0.6 0.09 0
0.61 0.09 0
0 0.1 0
0.01 0.1 0
0.02 0.1 0
0.03 0.1 0
0.04 0.1 0
0.05 0.1 0
0.06 0.1 0
0.07 0.1 0
0.08 0.1 0
0.09 0.1 0
0.1 0.1 0
0.11 0.1 0
0.12 0.1 0
0.13 0.1 0
0.14 0.1 0
0.15 0.1 0
0.16 0.1 0
0.17 0.1 0
0.18 0.1 0
0.19 0.1 0
0.2 0.1 0
0.21 0.1 0
0.22 0.1 0
0.23 0.1 0
0.24 0.1 0
0.25 0.1 0
0.26 0.1 0
0.27 0.1 0
0.28 0.1 0
0.29 0.1 0
0.3 0.1 0
0.31 0.1 0
0.32 0.1 0
0.33 0.1 0
0.34 0.1 0
0.35 0.1 0
0.36 0.1 0
0.37 0.1 0
0.38 0.1 0
0.39 0.1 0
0.4 0.1 0
0.41 0.1 0
0.42 0.1 0
0.43 0.1 0
0.44 0.1 0
0.45 0.1 0
0.46 0.1 0
0.47 0.1 0
0.48 0.1 0
0.49 0.1 0
0.5 0.1 0
0.51 0.1 0
0.52 0.1 0
0.53 0.1 0
0.54 0.1 0
0.55 0.1 0
0.56 0.1 0
0.57 0.1 0
0.58 0.1 0
0.59 0.1 0
0.6 0.1 0
0.61 0.1 0
0 0.11 0
0.01 0.11 0
0.02 0.11 0
0.03 0.11 0
0.04 0.11 0
0.05 0.11 0
0.06 0.11 0
0.07 0.11 0
0.08 0.11 0
0.09 0.11 0
0.1 0.11 0
0.11 0.11 0
0.12 0.11 0
0.13 0.11 0
0.14 0.11 0
0.15 0.11 0
0.16 0.11 0
0.17 0.11 0
0.18 0.11 0
0.19 0.11 0
0.2 0.11 0
0.21 0.11 0
0.22 0.11 0
0.23 0.11 0
0.24 0.11 0
0.25 0.11 0
0.26 0.11 0
0.27 0.11 0
0.28 0.11 0
0.29 0.11 0
0.3 0.11 0
0.31 0.11 0
0.32 0.11 0
0.33 0.11 0
0.34 0.11 0
0.35 0.11 0
0.36 0.11 0
0.37 0.11 0
0.38 0.11 0
0.39 0.11 0
0.4 0.11 0
0.41 0.11 0
0.42 0.11 0
0.43 0.11 0
0.44 0.11 0
0.45 0.11 0
0.46 0.11 0
0.47 0.11 0
0.48 0.11 0
0.49 0.11 0
0.5 0.11 0
0.51 0.11 0
0.52 0.11 0
0.53 0.11 0
0.54 0.11 0
0.55 0.11 0
0.56 0.11 0
0.57 0.11 0
0.58 0.11 0
0.59 0.11 0
0.6 0.11 0
0.61 0.11 0
0 0.12 0
0.01 0.12 0
0.02 0.12 0
0.03 0.12 0
0.04 0.12 0
0.05 0.12 0
0.06 0.12 0
0.07 0.12 0
0.08 0.12 0
0.09 0.12 0
0.1 0.12 0
0.11 0.12 0
0.12 0.12 0
0.13 0.12 0
0.14 0.12 0
0.15 0.12 0
0.16 0.12 0
0.17 0.12 0
0.18 0.12 0
0.19 0.12 0
0.2 0.12 0
0.21 0.12 0
0.22 0.12 0
0.23 0.12 0
0.24 0.12 0
0.25 0.12 0
0.26 0.12 0
0.27 0.12 0
0.28 0.12 0
0.29 0.12 0
0.3 0.12 0
0.31 0.12 0
0.32 0.12 0
0.33 0.12 0
0.34 0.12 0
0.35 0.12 0
0.36 0.12 0
0.37 0.12 0
0.38 0.12 0
0.39 0.12 0
0.4 0.12 0
0.41 0.12 0
0.42 0.12 0
0.43 0.12 0
0.44 0.12 0
0.45 0.12 0
0.46 0.12 0
0.47 0.12 0
0.48 0.12 0
0.49 0.12 0
0.5 0.12 0
0.51 0.12 0
0.52 0.12 0
0.53 0.12 0
0.54 0.12 0
0.55 0.12 0
0.56 0.12 0
0.57 0.12 0
0.58 0.12 0
0.59 0.12 0
0.6 0.12 0
0.61 0.12 0
0 0.13 0
0.01 0.13 0
0.02 0.13 0
0.03 0.13 0
0.04 0.13 0
0.05 0.13 0
0.06 0.13 0
0.07 0.13 0
0.08 0.13 0
0.09 0.13 0
0.1 0.13 0
0.11 0.13 0
0.12 0.13 0
0.13 0.13 0
0.14 0.13 0
0.15 0.13 0
0.16 0.13 0
0.17 0.13 0
0.18 0.13 0
0.19 0.13 0
0.2 0.13 0
0.21 0.13 0
0.22 0.13 0
0.23 0.13 0
0.24 0.13 0
0.25 0.13 0
0.26 0.13 0
0.27 0.13 0
0.28 0.13 0
0.29 0.13 0
0.3 0.13 0
0.31 0.13 0
0.32 0.13 0
0.33 0.13 0
0.34 0.13 0
0.35 0.13 0
0.36 0.13 0
0.37 0.13 0
0.38 0.13 0
0.39 0.13 0
0.4 0.13 0
0.41 0.13 0
0.42 0.13 0
0.43 0.13 0
0.44 0.13 0
0.45 0.13 0
0.46 0.13 0
0.47 0.13 0
0.48 0.13 0
[...]
POINT_DATA 93248

SCALARS v double
LOOKUP_TABLE default
0
0
0
0
0
0
0
0
0
0
0
0
0
0
0
0
0
0
0
0
0
0
0
0
0
0
0
0
0
0
0
0
0
0
0
0
0
0
-0.0137158
0
0
0
0
0
-0.0142018
0
0
0
0
0
0
0
0
0
0
0
0
0
0
0
0
0
0
0.0540518
-0.0417662
0.0148821
0.000485226
-0.00503881
0
-0.00874268
-0.00963894
-0.0101133
-0.010452
-0.0106871
-0.0109014
-0.0110174
-0.0111191
-0.0112035
-0.0112636
-0.0112853
-0.011352
-0.0114026
-0.0114633
-0.0114661
-0.0115155
-0.0115102
-0.0115173
-0.01153
-0.0115419
-0.011552
-0.0115603
-0.0115668
-0.011571
-0.0115729
-0.0115857
-0.0115576
-0.0115198
-0.0116122
-0.0112735
-0.0126354
-0.0168487
-0.00663656
-0.0103353
-0.0111787
-0.0116645
-0.0116504
-0.0116064
-0.0115475
-0.0147369
-0.0116818
-0.0114862
-0.0116367
-0.0116462
-0.011693
-0.0115646
-0.0115618
-0.011714
-0.0115264
-0.0126316
-0.0115608
-0.011378
-0.0109311
-0.00944179
0
0
0.0368784
0.0368888
0.0179217
0.00629316
-4.04853e-05
-0.00358173
-0.00593265
-0.00740504
-0.00837842
-0.00907472
-0.00950755
-0.0141938
-0.0102239
-0.0104198
-0.00859559
-0.010748
-0.0106825
-0.0108976
-0.0110005
-0.0152703
-0.0111555
-0.0111239
-0.0111944
-0.011241
-0.0112732
-0.011299
-0.0113204
-0.011338
-0.0113517
-0.0113605
-0.0113658
-0.0128667
-0.0113524
-0.0111829
-0.0113521
-0.0110288
-0.0098968
-0.00557865
-0.0167153
-0.0134145
-0.0120225
-0.0116785
-0.0115507
-0.011437
-0.0111993
-0.0117493
-0.0115758
-0.0114862
-0.0114704
-0.0114597
-0.0114084
-0.0113892
-0.0113736
-0.0113538
-0.0113164
-0.0112894
-0.0133697
-0.0111202
-0.0107615
-0.00965175
0
0
0.0239298
0.0276068
0.0155692
0.0077045
0.00250241
-0.00118992
-0.00376175
-0.00554263
-0.00680531
-0.00770561
-0.00844136
-0.00897164
-0.009352
-0.00967297
-0.00997349
-0.0102114
0
-0.0103443
-0.0105697
-0.0106624
-0.0107107
-0.0107595
-0.0108216
-0.0108765
-0.0109223
-0.0109606
-0.0109929
-0.0110198
-0.0110418
-0.011059
-0.0110726
-0.0110977
-0.0110921
-0.0111687
-0.0108256
-0.0106799
-0.0102799
-0.00961911
-0.0125659
-0.0121194
-0.0116568
-0.011437
-0.0113486
-0.0113591
-0.0115312
-0.0109274
-0.0110953
-0.0111847
-0.0111992
-0.0111917
-0.0111661
-0.011138
-0.011111
-0.0110822
-0.0110474
-0.0110102
-0.010978
-0.0108563
-0.0106108
-0.00969147
0
0
0.0171558
0.0204782
0.0139106
0.00777357
0.00326836
-6.26757e-05
-0.00251633
-0.00433835
-0.00573717
-0.00679202
-0.00760697
-0.00823301
-0.00871934
-0.00911163
-0.00958785
-0.0097376
-0.00975
-0.0100376
-0.0102181
-0.0103514
-0.0104467
-0.0105293
-0.0106055
-0.0106729
-0.0107312
-0.0107811
-0.0108235
-0.0108594
-0.0108892
-0.0109138
-0.010934
-0.0109521
-0.0109633
-0.0109608
-0.0108268
-0.0107511
-0.0106518
-0.0106677
-0.0113881
-0.0114646
-0.0113644
-0.0112766
-0.0112293
-0.0112206
-0.0112258
-0.010871
-0.0110471
-0.0110923
-0.0110972
-0.0110881
-0.011068
-0.0110396
-0.0110065
-0.0109736
-0.0109398
-0.010903
-0.0108586
-0.0107807
-0.010597
-0.00975681
0
0
0.0132334
0.0154454
0.0100641
0.00604175
0.00282932
0.000122412
-0.00196212
-0.00360435
-0.00507724
-0.00619193
-0.00704689
-0.00772346
-0.00826526
-0.00870368
-0.00890627
-0.00930113
-0.00957802
-0.00982021
-0.0100055
-0.0101563
-0.0102803
-0.010386
-0.0104784
-0.0105592
-0.0106294
-0.01069
-0.010742
-0.010786
-0.0108229
-0.0108538
-0.0108796
-0.0109002
-0.0109408
-0.0109113
-0.0108689
-0.0108436
-0.0108389
-0.0109097
-0.0111306
-0.0112169
-0.0112164
-0.0111934
-0.0111765
-0.0111809
-0.0111918
0
-0.0110856
-0.0111106
-0.0110878
-0.0110754
-0.0110579
-0.0110274
-0.0109832
-0.010947
-0.0109169
-0.0108862
-0.0108495
-0.0107931
-0.010633
-0.00984922
-0.0155488
0
0.0106583
0.0116651
0.00706357
0.0041995
0.00185866
-0.00053902
-0.00159795
0
-0.00470265
-0.00589164
-0.00671073
-0.00739476
-0.00795994
-0.00842125
-0.00878026
-0.00913235
-0.00945332
-0.00967652
-0.00986836
-0.0100348
-0.0101777
-0.0103006
-0.0104074
-0.0105005
-0.0105816
-0.0106523
-0.0107128
-0.0107639
-0.0108066
-0.0108428
-0.0108748
-0.0108984
-0.0152029
-0.0109482
-0.0109167
-0.0109255
-0.0109468
-0.0110007
-0.0110906
-0.0111475
-0.0111677
-0.011169
-0.0111632
-0.0111554
-0.0111273
-0.01095
-0.0110909
-0.0111142
-0.011116
-0.0111156
-0.0111087
-0.0110762
-0.0109937
-0.0109546
-0.0109361
-0.0109186
-0.0108971
-0.0108781
-0.0107344
-0.00990047
0
0
0.00882945
0.00879028
0.00462947
0.0024895
0.000888649
-0.000465299
-0.00277273
-0.0034519
-0.00471669
-0.00572694
-0.00654035
-0.0072107
-0.0077825
-0.00826119
-0.00865988
-0.00900701
-0.00946271
-0.00961639
-0.00978819
-0.0099647
-0.0101228
-0.0102585
-0.0103769
-0.0104808
-0.0105708
-0.0106518
-0.0107198
-0.0107767
-0.0108223
-0.0108609
-0.0109137
-0.0109462
-0.0109949
-0.0109863
-0.0109914
-0.011007
-0.0110324
-0.0110713
-0.0111197
-0.0111575
-0.0111787
-0.0111872
-0.0111884
-0.0111821
-0.0111643
-0.0111262
-0.0111504
-0.011165
-0.0111772
-0.0111974
-0.0112257
-0.011214
-0.0109753
-0.010954
-0.0109721
-0.0109768
-0.0109722
-0.013211
-0.0108318
-0.00995134
0
0
0.00745577
0.00653289
0.00260555
0.000904612
-0.000295404
-0.00154461
-0.00284707
-0.00387895
-0.00488518
-0.00577041
-0.00652855
-0.00713281
-0.00826526
-0.00819006
-0.00859823
-0.00894718
-0.00909168
-0.0094538
-0.00972612
-0.00993147
-0.010109
-0.0102516
-0.0103786
-0.0104916
-0.0106518
-0.0106776
-0.0107555
-0.0108173
-0.0108588
-0.0108751
-0.0109938
-0.0110199
-0.0110407
-0.011054
-0.01107
-0.0110904
-0.011116
-0.0111469
-0.0111797
-0.0112073
-0.0112262
-0.0112367
-0.0112407
-0.011239
-0.0112318
-0.0112221
-0.0112267
-0.0112358
-0.0112556
-0.0113091
-0.0114442
-0.0116578
-0.0106967
-0.0108858
-0.0110163
-0.0110612
-0.0110702
-0.011072
-0.0109421
-0.0100436
0
0
0.00637903
0.00470447
0.000896145
-0.000520612
-0.00142352
-0.00240169
-0.00339759
-0.0043141
-0.00517183
-0.00594875
-0.00663701
-0.00728256
-0.0077777
-0.00821334
-0.00859559
-0.00893425
-0.00920548
-0.00948841
-0.00973437
-0.00994019
-0.0108785
-0.0102779
-0.0104065
-0.0105277
-0.0106357
-0.010732
-0.010818
-0.0108884
-0.0109215
-0.0108521
-0.0111113
-0.0111251
-0.0111169
-0.0111342
-0.0111555
-0.0111795
-0.0112039
-0.0112321
-0.0112583
-0.0112806
-0.0112971
-0.0113076
-0.0113129
-0.0113138
-0.0113115
-0.011308
-0.0113076
-0.0113105
-0.0113252
-0.0113947
-0.0117342
-0.013023
-0.00955199
-0.0107437
-0.0111109
-0.0111787
-0.0111861
-0.0111748
-0.0110573
-0.0101393
0
0
0.00550631
0.00318318
-0.000569849
-0.00180121
-0.00248135
-0.00324632
-0.00403958
-0.00481101
-0.00554352
-0.00622221
-0.0068398
-0.00739894
-0.00787896
-0.00829291
-0.00863435
-0.0089858
-0.009286
-0.0095522
-0.00978603
-0.00999094
-0.0101709
-0.0103246
-0.0104617
-0.0105863
-0.0106997
-0.0108064
-0.0109076
-0.0110056
-0.0111098
-0.0112543
-0.0108594
-0.011078
-0.0111851
-0.0112215
-0.0112479
-0.0112735
-0.0113017
-0.0113262
-0.011351
-0.0113703
-0.0113847
-0.0113941
-0.0113993
-0.0114011
-0.0114003
-0.0113976
-0.0113931
-0.011384
-0.0113599
-0.0112772
-0.0109197
-0.00960319
-0.013069
-0.0118442
-0.0114479
-0.0113518
-0.0113188
-0.0112946
-0.0111759
-0.0102375
0
0
0.0047795
0.00188781
-0.00184163
-0.00491668
-0.00346508
-0.0040686
-0.00470998
-0.00535186
-0.00597417
-0.0065627
-0.0071083
-0.00760736
-0.00805411
-0.00844293
-0.00863391
-0.00907599
-0.00939509
-0.00964821
-0.00987031
-0.010066
-0.0102451
-0.0103976
-0.0105365
-0.0106634
-0.0107822
-0.0108978
-0.0110154
-0.0111392
-0.0112681
-0.0113671
0
-0.0112135
-0.0113226
-0.0113261
-0.0113484
-0.011376
-0.0114045
-0.0114329
-0.0114558
-0.0114738
-0.0114858
-0.0114932
-0.0114969
-0.0114982
-0.0114975
-0.0114946
-0.0114885
-0.0114756
-0.0114471
-0.0113814
-0.0112318
-0.0110116
-0.0119165
-0.011714
-0.0115563
-0.0114812
-0.0114442
-0.011416
-0.0112955
-0.0103365
0
0
0.00415965
0.000759174
-0.00297896
-0.00398108
-0.00438585
-0.00486549
-0.00538457
-0.00591673
-0.00644314
-0.00695117
-0.00742903
-0.00787508
-0.00829313
-0.00870794
0
-0.00916983
-0.00956865
-0.00977815
-0.0099847
-0.010172
-0.0103409
-0.010492
-0.010629
-0.0107554
-0.0108763
-0.0109995
-0.0111371
-0.0113028
-0.0114883
-0.0114627
-0.0112374
-0.0113551
-0.0113976
-0.0114227
-0.0114513
-0.0114837
-0.0115179
-0.0115497
-0.0115756
-0.0115916
-0.0115995
-0.0116031
-0.0116036
-0.0116032
-0.0116019
-0.0115992
-0.0115937
-0.0115829
-0.0115624
-0.0115312
-0.0114876
-0.0114809
-0.0116857
-0.0116809
-0.011632
-0.0115912
-0.0115622
-0.0115353
-0.0114139
-0.0104343
0
0
0.00362135
-0.000238732
-0.00399444
-0.00491939
-0.00524323
-0.00562818
-0.00605012
-0.00649097
-0.00693483
-0.0074396
-0.00778714
-0.0081771
-0.00853962
-0.00886124
-0.00900733
-0.00940176
-0.00969101
-0.00991894
-0.0101236
-0.0103001
-0.0104598
-0.0106048
-0.0107368
-0.010859
-0.0109768
-0.0111015
-0.0112591
-0.0115048
-0.0120348
-0.0117635
-0.0115316
-0.0114862
-0.0114964
-0.0115231
-0.0115574
-0.0115971
-0.0116412
-0.0116831
-0.0117157
-0.0117276
-0.0117264
-0.0117209
-0.011717
-0.0117142
-0.0117123
-0.0117101
-0.0117066
-0.0116997
-0.0116816
-0.0116759
-0.0116665
-0.0116772
-0.0117308
-0.0117403
-0.0117243
-0.0117016
-0.0116769
-0.0116528
-0.0115299
-0.0105296
0
0
0.00314628
-0.00113421
-0.00491668
-0.00579398
-0.00604992
-0.0063591
-0.00670014
-0.00706492
-0.0074396
-0.00781236
-0.00817141
-0.0085124
-0.00882976
-0.00911568
-0.00935741
-0.0096294
-0.00987318
-0.0100867
-0.0102982
-0.0104498
-0.010597
-0.0107341
-0.0108584
-0.0109718
-0.011078
-0.0111862
-0.0113253
-0.0108229
-0.0138356
-0.012137
-0.0116795
-0.0115759
-0.0115873
-0.0116226
-0.0116648
-0.0117148
-0.0117731
-0.0118397
-0.0118944
-0.0118924
-0.0118694
-0.0118485
-0.0118358
-0.0118293
-0.0118266
-0.0118255
-0.0118249
-0.0118212
-0.0110972
-0.0118106
-0.0118142
-0.0118203
-0.0118357
-0.0118419
-0.0118354
-0.0118212
-0.0118011
-0.0117706
-0.0116429
-0.0106199
0
0
0.00272069
-0.00194597
-0.00576462
-0.00660517
-0.00681165
-0.007064
-0.0073287
-0.00763023
-0.00794847
-0.00826697
-0.008577
-0.00887352
-0.00915203
-0.00940888
-0.00964408
-0.0098727
-0.0100835
-0.0102705
-0.0145954
-0.0106235
-0.0107471
-0.0108785
-0.0109936
-0.011095
-0.011182
-0.0112482
-0.011266
-0.0110787
-0.00895624
-0.0108234
-0.0113687
-0.0115731
-0.0116616
-0.0117207
-0.011771
-0.011833
-0.0119179
-0.0120365
-0.0121686
-0.0121097
-0.0120301
-0.0119801
-0.0119556
-0.0119457
-0.0119427
-0.0119431
-0.0119442
-0.0119446
-0.0119377
-0.011946
-0.0119487
-0.0119535
-0.0119617
-0.0119639
-0.0119611
-0.011953
-0.0119164
-0.0118856
-0.0117506
-0.0107005
0
0
0.00233129
-0.00267676
-0.00655287
-0.00736878
-0.00753967
-0.00776697
-0.00791873
-0.008176
-0.00845664
-0.00873135
-0.00899796
-0.00925448
-0.00949701
-0.00972213
-0.0099303
-0.0101297
-0.0103179
-0.0104931
-0.010673
-0.0108
-0.0109241
-0.0110402
-0.0111438
-0.0112337
-0.0113068
-0.0113536
-0.0113488
-0.0112295
-0.0108274
-0.0112031
-0.0114981
-0.0116639
-0.0117628
-0.0118311
-0.0118705
-0.01194
-0.0120557
-0.0122784
-0.0127446
-0.0124215
-0.0121985
-0.0121037
-0.0120697
-0.0120599
-0.0120586
-0.0120624
-0.0120661
-0.0120691
-0.0120726
-0.0120817
-0.0120819
-0.0120854
-0.0120909
-0.0120961
-0.0120982
-0.0121221
-0.0120144
-0.0120002
-0.0118541
-0.0107597
0
0
0.0019513
0.00470447
-0.00730243
-0.00809256
-0.00823009
-0.00849354
-0.00846968
-0.00868153
-0.00896614
-0.00920388
-0.0094306
-0.00965166
-0.00986151
-0.010053
-0.0102233
-0.0103964
-0.0105646
-0.0107225
-0.0108696
-0.010996
-0.0111109
-0.0112154
-0.0113085
-0.0113892
-0.011455
-0.0115004
-0.0115138
-0.0114866
-0.01143
-0.0115462
-0.0116869
-0.0118005
-0.0118925
-0.0119771
-0.0119399
-0.0120108
-0.012126
-0.0124615
-0.0145724
-0.0127657
-0.0123069
-0.0121902
-0.0121688
-0.0121695
-0.0120586
-0.012183
-0.0121902
-0.0121957
-0.0122026
-0.0122318
-0.0122148
-0.0122174
-0.012224
-0.0122356
-0.0122794
-0.0123698
-0.0120673
-0.0121309
-0.0119806
-0.010754
0
0
0.00164504
-0.00403822
-0.00799321
-0.00876113
-0.00882162
-0.00880311
-0.00920068
-0.0093891
-0.00951262
-0.0096873
-0.00987068
-0.0100637
-0.0102493
-0.0104084
-0.0105102
-0.0106643
-0.0108201
-0.0109634
-0.011092
-0.0112063
-0.0113095
-0.0114026
-0.0114858
-0.0115588
-0.011621
-0.0116714
-0.0117083
-0.0117158
-0.0117509
-0.0117939
-0.0118688
-0.0119476
-0.0120367
-0.0121895
-0.0119631
-0.0120309
-0.0120406
-0.0117798
-0.00966128
-0.011565
-0.0120563
-0.0122025
-0.0122514
-0.0122756
-0.0122915
-0.0123061
-0.0123163
-0.0123218
-0.0123304
-0.0156741
-0.0123503
-0.0123476
-0.0123553
-0.0123533
-0.0123225
-0.0122215
-0.0125245
-0.012443
-0.0123702
-0.0114047
0
0
0.00133582
-0.0046921
-0.00866289
-0.0094389
-0.00947422
-0.00937304
-0.00970105
-0.00988502
-0.0100207
-0.0101664
-0.0103025
-0.0104905
-0.0106775
-0.0108355
-0.0107281
-0.0109189
-0.0110834
-0.0112184
-0.0113298
-0.0114289
-0.0115188
-0.0116002
-0.0116734
-0.0117388
-0.0117974
-0.011853
-0.0119174
-0.011925
-0.0160006
-0.0120053
-0.012031
-0.0120803
-0.0120971
-0.0120257
-0.0123103
-0.0122526
-0.0121499
-0.0119674
-0.0115439
-0.0119113
-0.0121677
-0.0122937
-0.0123546
-0.0123884
-0.0124119
-0.012434
-0.012448
-0.0124569
-0.0124658
-0.0124938
-0.0124812
-0.0124903
-0.012497
-0.0124963
-0.0124831
-0.0124699
-0.0125751
-0.012576
-0.0124996
-0.0114
0
0
0.00104067
-0.00529761
-0.00930111
-0.0148505
-0.0101804
0
-0.0101573
-0.0104445
-0.0105284
-0.0106513
-0.00671073
-0.0109241
-0.0111806
-0.0116042
-0.0105571
-0.0111627
-0.0113652
-0.0114967
-0.0115806
-0.0116614
-0.0117372
-0.0118063
-0.0118689
-0.0119253
-0.0119768
-0.0120282
-0.0122069
-0.0121402
-0.0121561
-0.0121691
-0.0122006
-0.0122345
-0.0122572
-0.0122638
-0.012366
-0.012355
-0.012309
-0.0122311
-0.0121406
-0.0122363
-0.0123488
-0.0124281
-0.0124773
-0.012508
-0.0125317
-0.0125715
-0.0125865
-0.0125937
-0.0125992
-0.0126054
-0.0126088
-0.0126384
-0.0126488
-0.0126509
-0.0126316
-0.0126414
-0.0126805
-0.0126963
-0.0126085
-0.0114644
0
0
0.000757475
-0.00588408
-0.00994013
-0.0106954
-0.0107011
-0.0105874
-0.0107819
-0.0109146
-0.0110095
-0.0111063
-0.0111807
-0.011333
-0.0117167
-0.0103306
-0.0120864
-0.0117186
-0.0117087
-0.0142159
-0.0118437
-0.0118993
-0.0119624
-0.0120191
-0.0120704
-0.0121164
-0.012156
-0.0121849
-0.0120779
-0.0122138
-0.012291
-0.01233
-0.0123627
-0.012393
-0.0124193
-0.0124447
-0.0124849
-0.0124984
-0.0124816
-0.0124537
-0.012437
-0.0124739
-0.0125289
-0.0125773
-0.0126102
-0.0126278
-0.0126283
-0.0127397
-0.012738
-0.0127349
-0.0127333
-0.012722
-0.0127068
-0.0128142
-0.0128178
-0.0128346
-0.0127426
-0.0127737
-0.0128064
-0.0128205
-0.0127249
-0.011553
0
0
0.000484846
-0.00645257
-0.0105512
-0.0112771
-0.0112791
-0.0112787
-0.0113466
-0.0114214
-0.0114941
-0.0115851
-0.0116032
-0.0115608
-0.01119
-0.0165203
-0.0120591
-0.0119998
-0.0120165
-0.0120675
-0.0121036
-0.0121481
-0.0121939
-0.0122371
-0.0122766
-0.0123132
-0.0123439
-0.0123647
-0.0123643
-0.0124134
-0.0124596
-0.0124943
-0.0125241
-0.0125513
-0.0125767
-0.0126026
-0.0126356
-0.0126761
-0.0126581
-0.0126432
-0.0126435
-0.0126654
-0.0126982
-0.0127311
-0.0127565
-0.01275
-0.0126689
-0.0129629
-0.0129068
-0.0128804
-0.0128768
-0.0128305
-0.0127387
-0.0130411
-0.0130022
-0.0130772
-0.0127868
-0.0128899
-0.0129399
-0.0129508
-0.0128497
-0.0116543
0
0
0.000220093
-0.0070098
-0.0111526
-0.0118687
-0.0118629
-0.0118682
-0.0118898
-0.0119275
-0.0119642
-0.0121607
-0.0120825
-0.0120345
-0.0120206
-0.0122529
-0.01228
-0.0122889
-0.0123084
-0.0123368
-0.0123654
-0.0123965
-0.0124284
-0.0124587
-0.0124847
-0.0125143
-0.012539
-0.0125581
-0.0125741
-0.0126006
-0.012635
-0.0126608
-0.0126859
-0.0127092
-0.0127312
-0.012752
-0.0127842
-0.0129345
-0.0128371
-0.0128105
-0.0128157
-0.012834
-0.012859
-0.0128871
-0.01292
-0.0129754
-0.0131011
-0.0128442
-0.0129416
-0.0130141
-0.013066
-0.0130179
-0.0131457
-0.0128827
-0.0129502
-0.0128963
-0.01321
-0.0131269
-0.013098
-0.013087
-0.0129812
-0.0117633
0
0
-3.92136e-05
-0.0075607
-0.0117498
-0.0124596
-0.0124422
-0.012436
-0.0124082
-0.0124293
-0.0124445
-0.0122872
-0.0123932
-0.0124512
-0.0124784
-0.0125461
-0.0125735
-0.0125858
-0.0126004
-0.0126124
-0.0126274
-0.0126453
-0.0126647
-0.0126838
-0.0126857
-0.012718
-0.0127377
-0.0127503
-0.0127648
-0.0127839
-0.0128036
-0.0128275
-0.0128475
-0.0128667
-0.012884
-0.0128993
-0.0128999
-0.0127767
-0.0128969
-0.0129463
-0.0129697
-0.0129904
-0.0130125
-0.0130364
-0.0130648
-0.0130998
-0.013141
-0.0130738
-0.0131126
-0.0131765
-0.0133047
-0.0130476
-0.0131443
-0.0131227
-0.0131407
-0.0131449
-0.0132502
-0.0132429
-0.013236
-0.013211
-0.0131169
-0.0118775
0
0
-0.000294928
-0.008109
-0.0123458
-0.0130502
-0.0130192
-0.0129953
-0.0130019
-0.0129601
-0.0129215
-0.012867
-0.0128738
-0.0128809
-0.0128829
-0.0128926
-0.0128945
-0.0128914
-0.0128844
-0.0128854
-0.0128882
-0.0128934
-0.012902
-0.0129144
-0.0105277
-0.0129187
-0.0129428
-0.0129381
-0.0129463
-0.0126006
-0.0129757
-0.0129945
-0.0130082
-0.0130247
-0.0130386
-0.0130489
-0.0130508
-0.0130351
-0.0130699
-0.0130996
-0.0131221
-0.0131423
-0.0131619
-0.0131801
-0.0132056
-0.0132298
-0.0132481
-0.0132433
-0.0132509
-0.0132368
-0.0131513
-0.0134466
-0.0115646
-0.0142226
-0.0133226
-0.0133288
-0.0133606
-0.0133722
-0.0133697
-0.0109311
-0.0132517
-0.0119966
0
0
-0.000548357
-0.00865775
-0.0129438
-0.0136432
-0.0135984
-0.013558
-0.0135184
-0.0134601
-0.0134076
-0.0133547
-0.0133367
-0.0133082
-0.0132766
-0.0132499
-0.0132249
-0.0132007
-0.0131776
-0.01316
-0.0131473
-0.0131388
-0.0131344
-0.0131316
-0.0131203
-0.0131428
-0.0131495
-0.0131096
-0.0131156
-0.0131294
-0.0131461
-0.0131604
-0.0131749
-0.013185
-0.0131951
-0.0132042
-0.0132108
-0.0132163
-0.0132342
-0.0132544
-0.0132738
-0.0132928
-0.0133106
-0.0133128
-0.0133478
-0.0133697
-0.0133852
-0.0133938
-0.0134017
-0.0134029
-0.0133961
-0.0134945
-0.013472
-0.0134795
-0.0134772
-0.0134845
-0.013498
-0.0135072
-0.0135113
-0.0134914
-0.0133944
-0.0121124
0
0
-0.000800248
-0.00920885
-0.013546
-0.0142419
-0.0141829
-0.0141235
-0.0140569
-0.0139474
-0.0138845
-0.0137925
-0.0138077
-0.0137399
-0.0136665
-0.013607
-0.0135563
-0.0135105
-0.0134656
-0.0134297
-0.0134024
-0.0133807
-0.0133645
-0.0133549
-0.013352
-0.0133748
-0.0134149
-0.0132229
-0.0132662
-0.0132977
-0.0133148
-0.0133259
-0.0133353
-0.0133435
-0.0133516
-0.0133597
-0.0133679
-0.0133773
-0.013391
-0.013407
-0.0134243
-0.0134433
-0.0134607
-0.0113076
-0.0134881
-0.0135172
-0.0135307
-0.0135434
-0.013555
-0.013565
-0.0135773
-0.0136074
-0.0136146
-0.0136211
-0.013626
-0.013633
-0.0136416
-0.013649
-0.0136537
-0.0136469
-0.0135369
-0.0122324
0
0
-0.00105113
-0.00976095
-0.0141516
-0.0148505
-0.0147774
-0.0146996
-0.0146195
-0.0101133
-0.0143488
-0.0141761
-0.0142924
-0.0141938
-0.0140479
-0.013958
-0.0138846
-0.0138211
-0.0137437
-0.0136898
-0.0136513
-0.0136172
-0.0135903
-0.0135677
-0.0135609
-0.0136171
-0.013977
-0.013034
-0.0134009
-0.0134705
-0.0134861
-0.0134918
-0.0134964
-0.0135014
-0.0135072
-0.0135139
-0.0135217
-0.0135312
-0.0135431
-0.013557
-0.0135723
-0.0135886
-0.0136044
-0.0136066
-0.0136389
-0.0136608
-0.0136786
-0.0136945
-0.0137088
-0.0137219
-0.0137351
-0.0137505
-0.01376
-0.0137673
-0.0137736
-0.0137804
-0.0137876
-0.0137943
-0.0138
-0.013795
-0.0136823
-0.0123556
0
0
-0.00130433
-0.0103012
-0.0147484
-0.0154793
-0.0153856
-0.0152826
-0.0151644
-0.0150098
-0.0149215
-0.0149078
-0.0145551
-0.0144379
-0.0143847
-0.0142957
-0.014206
-0.0141515
-0.0139933
-0.0139284
-0.0138949
-0.0138461
-0.0138141
-0.0137678
-0.0137183
-0.0136207
-0.0132289
-0.0141486
-0.0137652
-0.013685
-0.0136643
-0.013658
-0.0136567
-0.013658
-0.0136613
-0.0136663
-0.013673
-0.0136816
-0.0136922
-0.0137048
-0.0137191
-0.0137345
-0.0137503
-0.0137655
-0.0137875
-0.0138094
-0.0138299
-0.0138487
-0.0138652
-0.0138793
-0.0138916
-0.0139022
-0.0139101
-0.0139164
-0.0139223
-0.0139285
-0.013935
-0.0139413
-0.0139473
-0.0139431
-0.0138298
-0.0124811
0
0
-0.00158377
-0.0107733
-0.0153641
-0.0160891
-0.0160106
-0.0158836
-0.015731
-0.0155638
-0.0154094
-0.0152677
-0.0150276
-0.0148749
-0.0147471
-0.0146271
-0.0145418
-0.014533
-0.0142159
-0.0141461
-0.0141176
-0.0140691
-0.0160617
-0.0139817
-0.0139119
-0.0138518
-0.0137811
-0.0139518
-0.0138931
-0.0138516
-0.0138302
-0.0138194
-0.0138142
-0.0138125
-0.0138133
-0.0138165
-0.0138218
-0.0138294
-0.0138391
-0.0138509
-0.0138647
-0.0138802
-0.0138968
-0.0139146
-0.0139367
-0.013961
-0.0139855
-0.014008
-0.0140269
-0.0140418
-0.0140527