# vtk DataFile Version 2.0
FlowField
ASCII
DATASET STRUCTURED_GRID
DIMENSIONS 62 47 32 
POINTS 93248 double
0 0 0
0.01 0 0
0.02 0 0
0.03 0 0
0.04 0 0
0.05 0 0
0.06 0 0
0.07 0 0
0.08 0 0
0.09 0 0
0.1 0 0
0.11 0 0
0.12 0 0
0.13 0 0
0.14 0 0
0.15 0 0
0.16 0 0
0.17 0 0
0.18 0 0
0.19 0 0
0.2 0 0
0.21 0 0
0.22 0 0
0.23 0 0
0.24 0 0
0.25 0 0
0.26 0 0
0.27 0 0
0.28 0 0
0.29 0 0
0.3 0 0
0.31 0 0
0.32 0 0
0.33 0 0
0.34 0 0
0.35 0 0
0.36 0 0
0.37 0 0
0.38 0 0
0.39 0 0
0.4 0 0
0.41 0 0
0.42 0 0
0.43 0 0
0.44 0 0
0.45 0 0
0.46 0 0
0.47 0 0
0.48 0 0
0.49 0 0
0.5 0 0
0.51 0 0
0.52 0 0
0.53 0 0
0.54 0 0
0.55 0 0
0.56 0 0
0.57 0 0
0.58 0 0
0.59 0 0
0.6 0 0
0.61 0 0
0 0.01 0
0.01 0.01 0
0.02 0.01 0
0.03 0.01 0
0.04 0.01 0
0.05 0.01 0
0.06 0.01 0
0.07 0.01 0
0.08 0.01 0
0.09 0.01 0
0.1 0.01 0
0.11 0.01 0
0.12 0.01 0
0.13 0.01 0
0.14 0.01 0
0.15 0.01 0
0.16 0.01 0
0.17 0.01 0
0.18 0.01 0
0.19 0.01 0
0.2 0.01 0
0.21 0.01 0
0.22 0.01 0
0.23 0.01 0
0.24 0.01 0
0.25 0.01 0
0.26 0.01 0
0.27 0.01 0
0.28 0.01 0
0.29 0.01 0
0.3 0.01 0
0.31 0.01 0
0.32 0.01 0
0.33 0.01 0
0.34 0.01 0
0.35 0.01 0
0.36 0.01 0
0.37 0.01 0
0.38 0.01 0
0.39 0.01 0
0.4 0.01 0
0.41 0.01 0
0.42 0.01 0
0.43 0.01 0
0.44 0.01 0
0.45 0.01 0
0.46 0.01 0
0.47 0.01 0
0.48 0.01 0
0.49 0.01 0
0.5 0.01 0
0.51 0.01 0
0.52 0.01 0
0.53 0.01 0
0.54 0.01 0
0.55 0.01 0
0.56 0.01 0
0.57 0.01 0
0.58 0.01 0
0.59 0.01 0
0.6 0.01 0
0.61 0.01 0
0 0.02 0
0.01 0.02 0
0.02 0.02 0
0.03 0.02 0
0.04 0.02 0
0.05 0.02 0
0.06 0.02 0
0.07 0.02 0
0.08 0.02 0
0.09 0.02 0
0.1 0.02 0
0.11 0.02 0
0.12 0.02 0
0.13 0.02 0
0.14 0.02 0
0.15 0.02 0
0.16 0.02 0
0.17 0.02 0
0.18 0.02 0
0.19 0.02 0
0.2 0.02 0
0.21 0.02 0
0.22 0.02 0
0.23 0.02 0
0.24 0.02 0
0.25 0.02 0
0.26 0.02 0
0.27 0.02 0
0.28 0.02 0
0.29 0.02 0
0.3 0.02 0
0.31 0.02 0
0.32 0.02 0
0.33 0.02 0
0.34 0.02 0
0.35 0.02 0
0.36 0.02 0
0.37 0.02 0
0.38 0.02 0
0.39 0.02 0
0.4 0.02 0
0.41 0.02 0
0.42 0.02 0
0.43 0.02 0
0.44 0.02 0
0.45 0.02 0
0.46 0.02 0
0.47 0.02 0
0.48 0.02 0
0.49 0.02 0
0.5 0.02 0
0.51 0.02 0
0.52 0.02 0
0.53 0.02 0
0.54 0.02 0
0.55 0.02 0
0.56 0.02 0
0.57 0.02 0
0.58 0.02 0
0.59 0.02 0
0.6 0.02 0
0.61 0.02 0
0 0.03 0
0.01 0.03 0
0.02 0.03 0
0.03 0.03 0
0.04 0.03 0
0.05 0.03 0
0.06 0.03 0
0.07 0.03 0
0.08 0.03 0
0.09 0.03 0
0.1 0.03 0
0.11 0.03 0
0.12 0.03 0
0.13 0.03 0
0.14 0.03 0
0.15 0.03 0
0.16 0.03 0
0.17 0.03 0
0.18 0.03 0
0.19 0.03 0
0.2 0.03 0
0.21 0.03 0
0.22 0.03 0
0.23 0.03 0
0.24 0.03 0
0.25 0.03 0
0.26 0.03 0
0.27 0.03 0
0.28 0.03 0
0.29 0.03 0
0.3 0.03 0
0.31 0.03 0
0.32 0.03 0
0.33 0.03 0
0.34 0.03 0
0.35 0.03 0
0.36 0.03 0
0.37 0.03 0
0.38 0.03 0
0.39 0.03 0
0.4 0.03 0
0.41 0.03 0
0.42 0.03 0
0.43 0.03 0
0.44 0.03 0
0.45 0.03 0
0.46 0.03 0
0.47 0.03 0
0.48 0.03 0
0.49 0.03 0
0.5 0.03 0
0.51 0.03 0
0.52 0.03 0
0.53 0.03 0
0.54 0.03 0
0.55 0.03 0
0.56 0.03 0
0.57 0.03 0
0.58 0.03 0
0.59 0.03 0
0.6 0.03 0
0.61 0.03 0
0 0.04 0
0.01 0.04 0
0.02 0.04 0
0.03 0.04 0
0.04 0.04 0
0.05 0.04 0
0.06 0.04 0
0.07 0.04 0
0.08 0.04 0
0.09 0.04 0
0.1 0.04 0
0.11 0.04 0
0.12 0.04 0
0.13 0.04 0
0.14 0.04 0
0.15 0.04 0
0.16 0.04 0
0.17 0.04 0
0.18 0.04 0
0.19 0.04 0
0.2 0.04 0
0.21 0.04 0
0.22 0.04 0
0.23 0.04 0
0.24 0.04 0
0.25 0.04 0
0.26 0.04 0
0.27 0.04 0
0.28 0.04 0
0.29 0.04 0
0.3 0.04 0
0.31 0.04 0
0.32 0.04 0
0.33 0.04 0
0.34 0.04 0
0.35 0.04 0
0.36 0.04 0
0.37 0.04 0
0.38 0.04 0
0.39 0.04 0
0.4 0.04 0
0.41 0.04 0
0.42 0.04 0
0.43 0.04 0
0.44 0.04 0
0.45 0.04 0
0.46 0.04 0
0.47 0.04 0
0.48 0.04 0
0.49 0.04 0
0.5 0.04 0
0.51 0.04 0
0.52 0.04 0
0.53 0.04 0
0.54 0.04 0
0.55 0.04 0
0.56 0.04 0
0.57 0.04 0
0.58 0.04 0
0.59 0.04 0
0.6 0.04 0
0.61 0.04 0
0 0.05 0
0.01 0.05 0
0.02 0.05 0
0.03 0.05 0
0.04 0.05 0
0.05 0.05 0
0.06 0.05 0
0.07 0.05 0
0.08 0.05 0
0.09 0.05 0
0.1 0.05 0
0.11 0.05 0
0.12 0.05 0
0.13 0.05 0
0.14 0.05 0
0.15 0.05 0
0.16 0.05 0
0.17 0.05 0
0.18 0.05 0
0.19 0.05 0
0.2 0.05 0
0.21 0.05 0
0.22 0.05 0
0.23 0.05 0
0.24 0.05 0
0.25 0.05 0
0.26 0.05 0
0.27 0.05 0
0.28 0.05 0
0.29 0.05 0
0.3 0.05 0
0.31 0.05 0
0.32 0.05 0
0.33 0.05 0
0.34 0.05 0
0.35 0.05 0
0.36 0.05 0
0.37 0.05 0
0.38 0.05 0
0.39 0.05 0
0.4 0.05 0
0.41 0.05 0
0.42 0.05 0
0.43 0.05 0
0.44 0.05 0
0.45 0.05 0
0.46 0.05 0
0.47 0.05 0
0.48 0.05 0
0.49 0.05 0
0.5 0.05 0
0.51 0.05 0
0.52 0.05 0
0.53 0.05 0
0.54 0.05 0
0.55 0.05 0
0.56 0.05 0
0.57 0.05 0
0.58 0.05 0
0.59 0.05 0
0.6 0.05 0
0.61 0.05 0
0 0.06 0
0.01 0.06 0
0.02 0.06 0
0.03 0.06 0
0.04 0.06 0
0.05 0.06 0
0.06 0.06 0
0.07 0.06 0
0.08 0.06 0
0.09 0.06 0
0.1 0.06 0
0.11 0.06 0
0.12 0.06 0
0.13 0.06 0
0.14 0.06 0
0.15 0.06 0
0.16 0.06 0
0.17 0.06 0
0.18 0.06 0
0.19 0.06 0
0.2 0.06 0
0.21 0.06 0
0.22 0.06 0
0.23 0.06 0
0.24 0.06 0
0.25 0.06 0
0.26 0.06 0
0.27 0.06 0
0.28 0.06 0
0.29 0.06 0
0.3 0.06 0
0.31 0.06 0
0.32 0.06 0
0.33 0.06 0
0.34 0.06 0
0.35 0.06 0
0.36 0.06 0
0.37 0.06 0
0.38 0.06 0
0.39 0.06 0
0.4 0.06 0
0.41 0.06 0
0.42 0.06 0
0.43 0.06 0
0.44 0.06 0
0.45 0.06 0
0.46 0.06 0
0.47 0.06 0
0.48 0.06 0
0.49 0.06 0
0.5 0.06 0
0.51 0.06 0
0.52 0.06 0
0.53 0.06 0
0.54 0.06 0
0.55 0.06 0
0.56 0.06 0
0.57 0.06 0
0.58 0.06 0
0.59 0.06 0
0.6 0.06 0
0.61 0.06 0
0 0.07 0
0.01 0.07 0
0.02 0.07 0
0.03 0.07 0
0.04 0.07 0
0.05 0.07 0
0.06 0.07 0
0.07 0.07 0
0.08 0.07 0
0.09 0.07 0
0.1 0.07 0
0.11 0.07 0
0.12 0.07 0
0.13 0.07 0
0.14 0.07 0
0.15 0.07 0
0.16 0.07 0
0.17 0.07 0
0.18 0.07 0
0.19 0.07 0
0.2 0.07 0
0.21 0.07 0
0.22 0.07 0
0.23 0.07 0
0.24 0.07 0
0.25 0.07 0
0.26 0.07 0
0.27 0.07 0
0.28 0.07 0
0.29 0.07 0
0.3 0.07 0
0.31 0.07 0
0.32 0.07 0
0.33 0.07 0
0.34 0.07 0
0.35 0.07 0
0.36 0.07 0
0.37 0.07 0
0.38 0.07 0
0.39 0.07 0
0.4 0.07 0
0.41 0.07 0
0.42 0.07 0
0.43 0.07 0
0.44 0.07 0
0.45 0.07 0
0.46 0.07 0
0.47 0.07 0
0.48 0.07 0
0.49 0.07 0
0.5 0.07 0
0.51 0.07 0
0.52 0.07 0
0.53 0.07 0
0.54 0.07 0
0.55 0.07 0
0.56 0.07 0
0.57 0.07 0
0.58 0.07 0
0.59 0.07 0
0.6 0.07 0
0.61 0.07 0
0 0.08 0
0.01 0.08 0
0.02 0.08 0
0.03 0.08 0
0.04 0.08 0
0.05 0.08 0
0.06 0.08 0
0.07 0.08 0
0.08 0.08 0
0.09 0.08 0
0.1 0.08 0
0.11 0.08 0
0.12 0.08 0
0.13 0.08 0
0.14 0.08 0
0.15 0.08 0
0.16 0.08 0
0.17 0.08 0
0.18 0.08 0
0.19 0.08 0
0.2 0.08 0
0.21 0.08 0
0.22 0.08 0
0.23 0.08 0
0.24 0.08 0
0.25 0.08 0
0.26 0.08 0
0.27 0.08 0
0.28 0.08 0
0.29 0.08 0
0.3 0.08 0
0.31 0.08 0
0.32 0.08 0
0.33 0.08 0
0.34 0.08 0
0.35 0.08 0
0.36 0.08 0
0.37 0.08 0
0.38 0.08 0
0.39 0.08 0
0.4 0.08 0
0.41 0.08 0
0.42 0.08 0
0.43 0.08 0
0.44 0.08 0
0.45 0.08 0
0.46 0.08 0
0.47 0.08 0
0.48 0.08 0
0.49 0.08 0
0.5 0.08 0
0.51 0.08 0
0.52 0.08 0
0.53 0.08 0
0.54 0.08 0
0.55 0.08 0
0.56 0.08 0
0.57 0.08 0
0.58 0.08 0
0.59 0.08 0
0.6 0.08 0
0.61 0.08 0
0 0.09 0
0.01 0.09 0
0.02 0.09 0
0.03 0.09 0
0.04 0.09 0
0.05 0.09 0
0.06 0.09 0
0.07 0.09 0
0.08 0.09 0
0.09 0.09 0
0.1 0.09 0
0.11 0.09 0
0.12 0.09 0
0.13 0.09 0
0.14 0.09 0
0.15 0.09 0
0.16 0.09 0
0.17 0.09 0
0.18 0.09 0
0.19 0.09 0
0.2 0.09 0
0.21 0.09 0
0.22 0.09 0
0.23 0.09 0
0.24 0.09 0
0.25 0.09 0
0.26 0.09 0
0.27 0.09 0
0.28 0.09 0
0.29 0.09 0
0.3 0.09 0
0.31 0.09 0
0.32 0.09 0
0.33 0.09 0
0.34 0.09 0
0.35 0.09 0
0.36 0.09 0
0.37 0.09 0
0.38 0.09 0
0.39 0.09 0
0.4 0.09 0
0.41 0.09 0
0.42 0.09 0
0.43 0.09 0
0.44 0.09 0
0.45 0.09 0
0.46 0.09 0
0.47 0.09 0
0.48 0.09 0
0.49 0.09 0
0.5 0.09 0
0.51 0.09 0
0.52 0.09 0
0.53 0.09 0
0.54 0.09 0
0.55 0.09 0
0.56 0.09 0
0.57 0.09 0
0.58 0.09 0
0.59 0.09 0
0.6 0.09 0
0.61 0.09 0
0 0.1 0
0.01 0.1 0
0.02 0.1 0
0.03 0.1 0
0.04 0.1 0
0.05 0.1 0
0.06 0.1 0
0.07 0.1 0
0.08 0.1 0
0.09 0.1 0
0.1 0.1 0
0.11 0.1 0
0.12 0.1 0
0.13 0.1 0
0.14 0.1 0
0.15 0.1 0
0.16 0.1 0
0.17 0.1 0
0.18 0.1 0
0.19 0.1 0
0.2 0.1 0
0.21 0.1 0
0.22 0.1 0
0.23 0.1 0
0.24 0.1 0
0.25 0.1 0
0.26 0.1 0
0.27 0.1 0
0.28 0.1 0
0.29 0.1 0
0.3 0.1 0
0.31 0.1 0
0.32 0.1 0
0.33 0.1 0
0.34 0.1 0
0.35 0.1 0
0.36 0.1 0
0.37 0.1 0
0.38 0.1 0
0.39 0.1 0
0.4 0.1 0
0.41 0.1 0
0.42 0.1 0
0.43 0.1 0
0.44 0.1 0
0.45 0.1 0
0.46 0.1 0
0.47 0.1 0
0.48 0.1 0
0.49 0.1 0
0.5 0.1 0
0.51 0.1 0
0.52 0.1 0
0.53 0.1 0
0.54 0.1 0
0.55 0.1 0
0.56 0.1 0
0.57 0.1 0
0.58 0.1 0
0.59 0.1 0
0.6 0.1 0
0.61 0.1 0
0 0.11 0
0.01 0.11 0
0.02 0.11 0
0.03 0.11 0
0.04 0.11 0
0.05 0.11 0
0.06 0.11 0
0.07 0.11 0
0.08 0.11 0
0.09 0.11 0
0.1 0.11 0
0.11 0.11 0
0.12 0.11 0
0.13 0.11 0
0.14 0.11 0
0.15 0.11 0
0.16 0.11 0
0.17 0.11 0
0.18 0.11 0
0.19 0.11 0
0.2 0.11 0
0.21 0.11 0
0.22 0.11 0
0.23 0.11 0
0.24 0.11 0
0.25 0.11 0
0.26 0.11 0
0.27 0.11 0
0.28 0.11 0
0.29 0.11 0
0.3 0.11 0
0.31 0.11 0
0.32 0.11 0
0.33 0.11 0
0.34 0.11 0
0.35 0.11 0
0.36 0.11 0
0.37 0.11 0
0.38 0.11 0
0.39 0.11 0
0.4 0.11 0
0.41 0.11 0
0.42 0.11 0
0.43 0.11 0
0.44 0.11 0
0.45 0.11 0
0.46 0.11 0
0.47 0.11 0
0.48 0.11 0
0.49 0.11 0
0.5 0.11 0
0.51 0.11 0
0.52 0.11 0
0.53 0.11 0
0.54 0.11 0
0.55 0.11 0
0.56 0.11 0
0.57 0.11 0
0.58 0.11 0
0.59 0.11 0
0.6 0.11 0
0.61 0.11 0
0 0.12 0
0.01 0.12 0
0.02 0.12 0
0.03 0.12 0
0.04 0.12 0
0.05 0.12 0
0.06 0.12 0
0.07 0.12 0
0.08 0.12 0
0.09 0.12 0
0.1 0.12 0
0.11 0.12 0
0.12 0.12 0
0.13 0.12 0
0.14 0.12 0
0.15 0.12 0
0.16 0.12 0
0.17 0.12 0
0.18 0.12 0
0.19 0.12 0
0.2 0.12 0
0.21 0.12 0
0.22 0.12 0
0.23 0.12 0
0.24 0.12 0
0.25 0.12 0
0.26 0.12 0
0.27 0.12 0
0.28 0.12 0
0.29 0.12 0
0.3 0.12 0
0.31 0.12 0
0.32 0.12 0
0.33 0.12 0
0.34 0.12 0
0.35 0.12 0
0.36 0.12 0
0.37 0.12 0
0.38 0.12 0
0.39 0.12 0
0.4 0.12 0
0.41 0.12 0
0.42 0.12 0
0.43 0.12 0
0.44 0.12 0
0.45 0.12 0
0.46 0.12 0
0.47 0.12 0
0.48 0.12 0
0.49 0.12 0
0.5 0.12 0
0.51 0.12 0
0.52 0.12 0
0.53 0.12 0
0.54 0.12 0
0.55 0.12 0
0.56 0.12 0
0.57 0.12 0
0.58 0.12 0
0.59 0.12 0
0.6 0.12 0
0.61 0.12 0
0 0.13 0
0.01 0.13 0
0.02 0.13 0
0.03 0.13 0
0.04 0.13 0
0.05 0.13 0
0.06 0.13 0
0.07 0.13 0
0.08 0.13 0
0.09 0.13 0
0.1 0.13 0
0.11 0.13 0
0.12 0.13 0
0.13 0.13 0
0.14 0.13 0
0.15 0.13 0
0.16 0.13 0
0.17 0.13 0
0.18 0.13 0
0.19 0.13 0
0.2 0.13 0
0.21 0.13 0
0.22 0.13 0
0.23 0.13 0
0.24 0.13 0
0.25 0.13 0
0.26 0.13 0
0.27 0.13 0
0.28 0.13 0
0.29 0.13 0
0.3 0.13 0
0.31 0.13 0
0.32 0.13 0
0.33 0.13 0
0.34 0.13 0
0.35 0.13 0
0.36 0.13 0
0.37 0.13 0
0.38 0.13 0
0.39 0.13 0
0.4 0.13 0
0.41 0.13 0
0.42 0.13 0
0.43 0.13 0
0.44 0.13 0
0.45 0.13 0
0.46 0.13 0
0.47 0.13 0
0.48 0.13 0
[...]
POINT_DATA 93248

SCALARS u double
LOOKUP_TABLE default
0
0
0
0
0
0
0
0
0
0
0
0
0
0
0
0
0
0
0
0
0
0
0
0
0.267055
0
0
0
0
0
0
0
0.00908974
0.206163
0
0
0
0
0
0
0
0
0
0
0
0
0
0.0451319
0
0
0.053979
0
0
0
0
0
0
0
0
0
0
0
0
0.406176
0.320576
0.238021
0.169793
0.119318
0.0815106
0.0544337
0.0352048
0.0209311
0.00988907
0.00216146
0.00123168
-8.74546e-05
-0.000715675
-0.000361823
0.000723674
0.00105516
0.000852143
-0.000424864
0.0082291
0.0098083
0.00448646
0.00465841
0.00514364
0.00535987
0.00538537
0.00528306
0.00504134
0.00457544
0.00377505
0.00300452
0.00470033
0.00388707
0.0021394
0.000917711
0.00283106
0.000106972
-0.00382585
0.137135
-0.00778286
-0.00271864
-0.000729683
0.00314686
0.0137609
-0.0304979
-0.0116348
-0.0100822
-0.00929023
-0.0102374
-0.0111304
-0.00856325
-0.0102939
0.000849652
-0.0424542
-0.0336052
-0.0314768
-0.0278696
-0.0337357
-0.0433208
-0.0433208
0
0
0.48038
0.454827
0.420301
0.376939
0.335306
0.287351
0.241083
0.199957
0.166068
0.139117
0.118245
0.10892
0.0995502
0.0936133
0.0903989
0.0890715
0.0874193
0.0881254
0.293502
0.0942446
0.094738
0.0759094
0.0779067
0.0770153
0.0754016
0.0734769
0.0713312
0.0689778
0.0663818
0.0634199
0.0599096
0.0601713
0.0563663
0.0530851
0.0509147
0.045284
0.0413615
-0.000763119
0.0370101
0.0334725
0.0299023
0.0295948
0.0303757
0.0287578
0.00713347
-0.000252221
0.000482294
-0.00114006
-0.00269257
-0.00291199
-0.0130221
-0.0128305
-0.0168014
-0.0412251
-0.0459569
-0.0535897
-0.0557185
-0.0656414
-0.0768748
-0.0768748
0
0
0.474459
0.465031
0.455436
0.433515
0.427263
0.393046
0.36026
0.328537
0.298719
0.30391
0.251213
0.226509
0.211433
0.200343
0.192804
0.187358
0.180921
0.17776
0.17438
0.166902
0.166078
0.157912
0.154391
0.151149
0.147565
0.143639
0.139439
0.135043
0.130579
0.126375
0.122941
0.115797
0.109261
0.190134
0.10195
0.0948868
0.0899158
0.0867953
0.0822487
0.0762496
0.0699211
0.110977
0.0596316
0.0522502
0.106403
0.0274267
0.0205304
-0.00114006
0.0111768
0.00662944
-0.00190407
-0.00856325
-0.0182572
-0.0333746
-0.0438748
-0.0538054
-0.0676052
-0.0771941
-0.0874682
-0.0874682
0
0
0.46737
0.452872
0.453593
0.441912
0.434154
0.419261
0.401797
0.383164
0.364297
0.345564
0.327937
0.309013
0.292764
0.279095
0.269125
0.258272
0.252388
0.245414
0.291675
0.229849
0.223
0.21605
0.210228
0.204878
0.199545
0.194034
0.18832
0.182445
0.176487
0.170519
0.164288
0.156413
0.14892
0.141846
0.136122
0.129883
0.124045
0.11871
0.112104
0.10469
0.0964566
0.0875984
0.0793511
0.0697432
0.0581763
0.0465437
0.0380323
0.0308963
0.0235427
0.0157638
0.00671578
-0.00286226
-0.013884
-0.0261864
-0.0381229
-0.0500398
-0.0630165
-0.0744243
-0.0859206
-0.0859206
0
0
0.464944
0.44848
0.439156
0.429985
0.422283
0.413017
0.40285
0.391973
0.380445
0.368396
0.356022
0.343013
0.32995
0.316078
0.312455
0.300231
0.291263
0.282869
0.273504
0.264898
0.256988
0.249581
0.242674
0.236081
0.229599
0.223038
0.216364
0.209574
0.202645
0.195468
0.187713
0.179112
0.172379
0.164517
0.157058
0.149871
0.142857
0.135765
0.127978
0.119574
0.110505
0.100799
0.0909673
0.0807597
0.0708107
0.0710043
0.0493392
0.040508
0.0314414
0.0220521
0.0121861
0.00179925
-0.00914296
-0.0203927
-0.0317059
-0.0427762
-0.0533672
-0.063148
-0.0747846
-0.0747846
0
0
0.463867
0.444707
0.430225
0.418288
0.408299
0.398748
0.390206
0.381811
0.373126
0.364228
0.355286
0.346411
0.337192
0.328015
0.322115
0.314579
0.306046
0.299211
0.289773
0.281234
0.273258
0.265667
0.258342
0.2512
0.244168
0.237034
0.22986
0.222619
0.215233
0.207555
0.199292
0.189861
0.18449
0.17566
0.167226
0.15922
0.15134
0.143278
0.134813
0.125889
0.11648
0.106565
0.0962054
0.085196
0.073572
0.0666907
0.0563399
0.0460604
0.0359498
0.0258253
0.0155909
0.00519887
-0.00530462
-0.0157095
-0.0258185
-0.0352327
-0.0429998
-0.046324
-0.0416028
-0.0416028
0
0
0.463274
0.442333
0.424907
0.41022
0.397963
0.448103
0.378167
0.368125
0.359047
0.350718
0.34323
0.33719
0.330498
0.324037
0.318286
0.313161
0.307374
0.300733
0.293502
0.286153
0.278975
0.271753
0.264495
0.257241
0.250037
0.242677
0.235381
0.22806
0.220627
0.213041
0.205545
0.198932
0.186678
0.178489
0.170589
0.162579
0.154383
0.145921
0.137135
0.127999
0.118518
0.112384
0.0983725
0.0877528
0.0773526
0.0686299
0.0588683
0.0486566
0.0383566
0.0280703
0.0178485
0.00774246
-0.00228451
-0.011974
-0.021202
-0.0301468
-0.0399104
-0.052617
-0.0239492
-0.0239492
0
0
0.462905
0.440832
0.421605
0.4048
0.390006
0.376413
0.365057
0.354634
0.345079
0.336401
0.329039
0.326518
0.320483
0.31496
0.308571
0.0890715
0.301846
0.296817
0.291675
0.285776
0.279768
0.273119
0.266105
0.25887
0.229599
0.244242
0.237242
0.230104
0.222828
0.215325
0.207567
0.199541
0.189573
0.180588
0.172135
0.163772
0.155317
0.146653
0.137723
0.128508
0.119003
0.109194
0.0992164
0.0891235
0.0791958
0.0696457
0.0598861
0.0498574
0.0396869
0.0295069
0.0194563
0.00976787
9.70139e-05
-0.00910253
-0.0177988
-0.0261097
-0.0345074
-0.0459008
-0.0417396
-0.0417396
0
0
0.462661
0.439842
0.419443
0.40119
0.384769
0.36983
0.356704
0.344969
0.33437
0.324472
0.313265
0.321848
0.312665
0.307348
0.30333
0.301744
0.299964
0.295315
0.290141
0.284306
0.279062
0.272604
0.26581
0.258869
0.252337
0.245141
0.238
0.230947
0.223885
0.216501
0.208154
0.199503
0.190483
0.181636
0.172985
0.164372
0.155711
0.14691
0.137896
0.128653
0.119191
0.109531
0.0997513
0.0899195
0.0801265
0.0703729
0.0605587
0.050626
0.0405958
0.030543
0.020508
0.0114864
0.00196053
-0.0069584
-0.0155251
-0.0239659
-0.0327369
-0.0423807
-0.0500005
-0.0500005
0
0
0.462496
0.439171
0.417978
0.398758
0.381287
0.365422
0.351185
0.338472
0.327195
0.317304
0.309196
0.308674
0.304714
0.301263
0.298389
0.296852
0.294796
0.291506
0.287445
0.28304
0.276745
0.270801
0.26447
0.257635
0.252066
0.244876
0.237946
0.231199
0.224609
0.242091
0.208396
0.199397
0.190746
0.182145
0.173557
0.170676
0.156137
0.147215
0.138126
0.128861
0.11944
0.109888
0.100226
0.0905068
0.0807677
0.0710043
0.061205
0.0513477
0.0414316
0.0315396
0.0216606
-0.00524428
0.00335131
-0.0052775
-0.0138927
-0.0225453
-0.0315319
-0.0412185
-0.0517469
-0.0517469
0
0
0.462382
0.438712
0.416961
0.397095
0.378892
0.362338
0.347414
0.334129
0.32255
0.312872
0.30562
0.301568
0.298412
0.296242
0.293426
0.291671
0.289831
0.287279
0.284017
0.281005
0.274821
0.269181
0.263113
0.256708
0.250561
0.243913
0.237326
0.230912
0.224434
0.217829
0.207169
0.199247
0.1911
0.182643
0.174014
0.165289
0.164388
0.147653
0.138493
0.129199
0.119795
0.110341
0.100733
0.0910585
0.0813555
0.0716355
0.0619052
0.0521484
0.0423545
0.0327869
0.0235855
0.014842
0.00548087
-0.00360804
-0.0124818
-0.0213318
-0.0304699
-0.0403102
-0.0513064
-0.0513064
0
0
0.462307
0.438413
0.416346
0.395883
0.377185
0.360155
0.344803
0.331189
0.319448
0.309783
0.302449
0.29737
0.294043
0.292514
0.288821
0.287495
0.285921
0.283668
0.280905
0.277341
0.272805
0.267528
0.261685
0.255445
0.249011
0.242439
0.236099
0.230043
0.223451
0.214416
0.209759
0.201265
0.192363
0.183482
0.174618
0.165737
0.156817
0.147972
0.138911
0.1296
0.120151
0.110977
0.101339
0.0916528
0.0819678
0.0722993
0.0626659
0.0530369
0.0432795
0.0339379
0.0249369
0.0160682
0.00691574
-0.00219705
-0.0111745
-0.0201266
-0.0293485
-0.0392489
-0.0503106
-0.0503106
0
0
0.462256
0.438206
0.415873
0.395017
0.375987
0.358637
0.342996
0.329164
0.317294
0.307507
0.29994
0.294379
0.290299
0.286561
0.287102
0.285501
0.283417
0.280858
0.278507
0.275258
0.270988
0.265887
0.260134
0.253857
0.247173
0.240307
0.233871
0.228346
0.224581
0.2171
0.21001
0.201826
0.193104
0.184184
0.175207
0.166249
0.157312
0.148537
0.139489
0.13003
0.119995
0.112307
0.102124
0.0923232
0.0826197
0.0729781
0.0634344
0.0539659
0.0440631
0.0349162
0.0259924
0.0170383
0.00796851
-0.00104367
-0.00995868
-0.018879
-0.028131
-0.0380236
-0.0491229
-0.0491229
0
0
0.462225
0.438085
0.415714
0.394213
0.375126
0.357583
0.341744
0.327747
0.315733
0.305868
0.298099
0.292297
0.288106
0.285148
0.284148
0.28286
0.280921
0.278138
0.276806
0.273714
0.269404
0.26429
0.258503
0.252058
0.244904
0.237022
0.228882
0.221454
0.230831
0.222233
0.212637
0.203337
0.194133
0.184912
0.175728
0.166768
0.157583
0.149174
0.140272
0.130858
0.12123
0.112384
0.102748
0.0930149
0.0832882
0.0736138
0.0640671
0.0548083
0.0446917
0.0359121
0.0270709
0.0180983
0.00885867
-3.76125e-05
-0.00879578
-0.0174895
-0.0268752
-0.0365782
-0.0476767
-0.0476767
0
0
0.462199
0.437935
0.415293
0.394061
0.374633
0.356891
0.340893
0.326771
0.314666
0.304683
0.296795
0.290895
0.286737
0.284019
0.282413
0.281016
0.279146
0.275881
0.276033
0.272295
0.267761
0.262649
0.256875
0.250273
0.242505
0.232583
0.217177
0.186781
0.265623
0.233375
0.217359
0.205764
0.19545
0.185566
0.175921
0.166593
0.157691
0.149732
0.141307
0.132085
0.122559
0.113103
0.103488
0.0937713
0.0839786
0.0741719
0.0643032
0.0543844
0.0462721
0.0373111
0.0283579
0.0196651
0.00933618
0.000883803
-0.00773328
-0.016249
-0.0251725
-0.0346464
-0.0456474
-0.0456474
0
0
0.46221
0.437825
0.41507
0.39389
0.374356
0.356469
0.340331
0.326111
0.313946
0.30391
0.295932
0.289955
0.285792
0.283102
0.281382
0.280083
0.279005
0.278803
0.272721
0.269421
0.26566
0.261039
0.255517
0.249023
0.241307
0.231851
0.220239
0.210737
0.233748
0.227882
0.217222
0.206317
0.195761
0.185475
0.175356
0.165494
0.156398
0.149236
0.143053
0.134225
0.124479
0.114592
0.104693
0.0947881
0.0848106
0.0748936
0.064997
0.0553019
0.0464385
0.0381555
0.0293062
0.0202745
0.0108041
0.00216298
-0.00692427
-0.0149931
-0.0231696
-0.0318977
-0.0423819
-0.0423819
0
0
0.462295
0.437729
0.414981
0.393832
0.374283
0.356173
0.339906
0.325645
0.313496
0.303495
0.295395
0.289306
0.285098
0.28242
0.280728
0.279464
0.278264
0.276754
0.272941
0.269149
0.265058
0.260367
0.25494
0.248707
0.241635
0.23385
0.226114
0.221554
0.223939
0.220456
0.213145
0.204109
0.194366
0.184254
0.173774
0.162867
0.151771
0.14316
0.149286
0.13931
0.127949
0.116985
0.106403
0.0960838
0.0858071
0.0757845
0.0658566
0.0560348
0.0465767
0.0389875
0.0299708
0.0208653
0.0121847
0.00481839
-0.00759037
-0.0140046
-0.0209997
-0.0280853
-0.0365753
-0.0365753
0
0
0.46202
0.437912
0.41511
0.393993
0.374569
0.344803
0.339372
0.325276
0.313279
0.303452
0.295065
0.288808
0.284556
0.28196
0.280369
0.279083
0.277626
0.275735
0.272837
0.269273
0.265137
0.260412
0.255077
0.249156
0.242792
0.236399
0.257017
0.225236
0.222216
0.217015
0.2099
0.201571
0.192424
0.182555
0.171719
0.159099
0.141695
0.107948
0.183198
0.150398
0.132891
0.11979
0.108186
0.0972541
0.0869333
0.0767617
0.0668155
0.0569468
0.0468175
0.0398081
0.0301106
0.0210371
0.0125464
0.00429277
-0.00573476
-0.0315319
-0.0192177
-0.023932
-0.0249083
0
0
0
0.462104
0.437039
0.414953
0.39402
0.374764
0.356023
0.339503
0.325266
0.313354
0.303877
0.294747
0.288388
0.284174
0.281833
0.280466
0.279134
0.277431
0.275625
0.273017
0.269606
0.265519
0.260841
0.255618
0.249937
0.243978
0.238031
0.232046
0.225717
0.222311
0.215428
0.207819
0.199643
0.190869
0.181105
0.17071
0.158623
0.144738
0.132956
0.153862
0.128653
0.132989
0.120725
0.109093
0.0980809
0.087621
0.0775124
0.0678093
0.0586851
0.0501862
0.0374956
0.0289032
0.0205231
0.0122094
0.00394479
-0.00433705
-0.0117205
-0.0191086
-0.0265529
-0.0357554
-0.0357554
0
0
0.462138
0.437757
0.414752
0.394057
0.375063
0.355572
0.339338
0.325223
0.313402
0.304461
0.294196
0.288366
0.284224
0.282534
0.281406
0.279846
0.27769
0.276257
0.273651
0.270186
0.266101
0.261474
0.256331
0.250749
0.244886
0.239192
0.234946
0.230116
0.220426
0.213418
0.206154
0.198389
0.190134
0.181197
0.171414
0.161074
0.1512
0.144574
0.144436
0.13901
0.129832
0.119348
0.108584
0.0980305
0.087791
0.0778157
0.0681728
0.0588332
0.0493765
0.0385765
0.0290838
0.0202804
0.0118352
0.00361718
-0.00446871
-0.0124805
-0.0209753
-0.0304888
-0.0417976
-0.0417976
0
0
0.462158
0.437833
0.415213
0.39327
0.372633
0.356093
0.339854
0.325392
0.312823
0.301355
0.296253
0.290246
0.285357
0.325998
0.28357
0.281218
0.278358
0.277468
0.274392
0.270789
0.266749
0.262225
0.257124
0.251489
0.24521
0.23733
0.238631
0.230424
0.221739
0.213735
0.205903
0.198059
0.190215
0.181919
0.172996
0.163952
0.15557
0.148636
0.142521
0.135455
0.126985
0.117527
0.10732
0.0973265
0.0874589
0.0776316
0.0680026
0.0584927
0.0488705
0.038938
0.0292418
0.0200753
0.0114067
0.00307082
-0.00529137
-0.0138045
-0.0229871
-0.0333244
-0.0449209
-0.0449209
0
0
0.462156
0.437803
0.414993
0.393365
0.373252
0.355651
0.339519
0.325196
0.312978
0.30312
0.296433
0.291171
0.351585
0.287122
0.284429
0.282348
0.281222
0.276928
0.274191
0.271105
0.26743
0.263143
0.258069
0.252451
0.246379
0.240077
0.236776
0.230073
0.222243
0.214131
0.205952
0.197907
0.19048
0.183366
0.175021
0.166523
0.158231
0.150352
0.142446
0.134239
0.125608
0.11679
0.105569
0.096289
0.0867428
0.0770752
0.0675529
0.0580842
0.0485739
0.0388452
0.028908
0.0195851
0.0107566
0.00225479
-0.00630394
-0.0149992
-0.0244842
-0.0352776
-0.0468649
-0.0468649
0
0
0.462154
0.437791
0.414956
0.39357
0.373781
0.355786
0.339308
0.324951
0.313045
0.305122
0.297764
0.292859
0.290887
0.284265
0.282734
0.281799
0.280631
0.278066
0.275307
0.272187
0.268602
0.264485
0.25923
0.253641
0.247874
0.242073
0.236481
0.229805
0.222263
0.214154
0.205592
0.19676
0.188803
0.186619
0.177779
0.169383
0.160394
0.151625
0.14287
0.134014
0.124972
0.115592
0.105266
0.0954528
0.0655004
0.0762869
0.0670139
0.0576675
0.0483228
0.0385736
0.0144351
0.0187937
0.00988165
-0.023543
-0.0073574
-0.0158721
-0.0253966
-0.0368218
-0.0483306
-0.0483306
0
0
0.462159
0.437817
0.415045
0.393849
0.37432
0.356387
0.339017
0.324335
0.31
0.309377
0.299636
0.293938
0.290459
0.286546
0.284374
0.282923
0.281268
0.279258
0.27669
0.273615
0.270113
0.266256
0.260437
0.254922
0.249364
0.24353
0.237253
0.222619
0.22252
0.214253
0.204926
0.193558
0.175287
0.200778
0.180973
0.174009
0.162702
0.152857
0.143448
0.134143
0.124738
0.114941
0.105009
0.0953267
0.0859273
0.0762221
0.0666499
0.0572161
0.0480307
0.0387129
0.0273743
0.0185821
0.00988772
0.00137924
-0.00761036
-0.0163736
-0.0257009
-0.0381843
-0.0493446
-0.0493446
0
0
0.462168
0.437862
0.415175
0.394174
0.375091
0.358653
0.33775
0.324856
0.312918
0.307005
0.299996
0.294649
0.290895
0.288122
0.28636
0.28536
0.282555
0.280754
0.278249
0.275153
0.271626
0.268106
0.261487
0.25653
0.251125
0.245136
0.238641
0.231317
0.223638
0.215255
0.205541
0.195312
0.18522
0.189913
0.181473
0.173383
0.163393
0.153477
0.143803
0.1343
0.124748
0.114557
0.104656
0.0950243
0.0854967
0.0758494
0.0661736
0.0564873
0.0337156
0.038576
0.0263448
0.018608
0.00963596
0.000627097
-0.00847199
-0.017322
-0.0257858
-0.0390364
-0.0492741
-0.0492741
0
0
0.462174
0.437891
0.415258
0.394342
0.37527
0.358078
0.340817
0.326572
0.315064
0.306741
0.300126
0.295201
0.291778
0.289519
0.288075
0.286907
0.284709
0.28262
0.280014
0.276745
0.272651
0.267111
0.264749
0.259423
0.253447
0.246924
0.239875
0.232949
0.225395
0.217915
0.206448
0.198598
0.191311
0.186665
0.179707
0.171631
0.162587
0.153162
0.143666
0.134251
0.124841
0.114085
0.104285
0.0947487
0.0851707
0.0754894
0.0657213
0.0558536
0.0457739
0.0350385
0.0302869
0.0190714
0.00928839
-0.000200464
-0.0097782
-0.0197644
-0.0301354
-0.0349627
-0.047092
-0.047092
0
0
0.46217
0.437881
0.415261
0.394385
0.375329
0.358132
0.34275
0.328009
0.316444
0.307671
0.301073
0.296352
0.293183
0.291175
0.289899
0.2888
0.287131
0.284949
0.28217
0.278756
0.27477
0.269954
0.256875
0.260867
0.255139
0.24854
0.241509
0.234326
0.226809
0.218954
0.209602
0.201487
0.193993
0.186746
0.179017
0.170683
0.161822
0.152611
0.143219
0.133834
0.124772
0.113474
0.1042
0.0947261
0.0850512
0.0752642
0.0654063
0.0554884
0.045558
0.0359767
0.0282053
0.0185423
0.00880799
-0.000786875
-0.010331
-0.0198647
-0.0291144
-0.0369205
-0.0477766
-0.0477766
0
0
0.462145
0.4378
0.415152
0.394326
0.375354
0.358386
0.344124
0.328543
0.317752
0.309266
0.302817
0.298209
0.295179
0.293267
0.292075
0.291204
0.289597
0.287337
0.284466
0.281005
0.277242
0.272854
0.268177
0.262743
0.256754
0.24998
0.242998
0.235774
0.228215
0.220272
0.211914
0.203729
0.195692
0.187556
0.179174
0.170475
0.161468
0.15219
0.142649
0.132724
0.122231
0.114955
0.105054
0.0950274
0.0850713
0.0751438
0.0652236
0.0553295
0.0455433
0.0360583
0.0269595
0.0176038
0.00815076
-0.00122955
-0.0104643
-0.01943
-0.0292565
-0.0383129
-0.0490239
-0.0490239
0
0
0.462081
0.437576
0.414896
0.39418
0.375253
0.357912
0.341345
0.331218
0.320593
0.312918
0.305261
0.300664
0.297725
0.295907
0.29442
0.293826
0.291948
0.289631
0.286824
0.283407
0.280003
0.275666
0.270579
0.264675
0.218654
0.251242
0.244606
0.237446
0.229862
0.221928
0.213755
0.205471
0.197082
0.188501
0.179698
0.170676
0.16145
0.15203
0.142415
0.132613
0.122854
0.114089
0.104613
0.0948115
0.0849169
0.0749822
0.0650488
0.055155
0.0453417
0.0356887
0.0261899
0.0167944
0.00748656
-0.00169134
-0.0107567
-0.0198166
-0.0293798
-0.0390641
-0.0499025
-0.0499025
0
0
0.46196
0.437039
0.420705
0.39413
0.375421
0.358505
0.343466
0.331944
0.32203
0.313884
0.307689
0.303381
0.30074
0.299571
0.295885
0.295726
0.293679
0.282869
0.289527
0.286292
0.283344
0.27867
0.273406
0.267689
0.261577
0.254435
0.2471
0.239571
0.231786
0.223743
0.215485
0.207042
0.198398
0.189497
0.180372
0.171075
0.16164
0.152082
0.142429
0.132736
0.12312
0.113645
0.104059
0.0943777
0.0846096
0.0747235
0.0648019
0.0548894
0.0449741
0.0351654
0.0255332
0.0160939
0.00684102
-0.00222585
-0.0112411
-0.0203595
-0.0297388
-0.0395698
-0.0490239
-0.0504238
0
0
0.46199
0.435547
0.413466
0.393662
0.375679
0.359544
0.345481
0.333799
0.324107
0.316348
0.310519
0.306496
0.303965
0.302275
0.298999
0.0874193
0.294913
0.295206
0.293772
0.291382
0.286394
0.281664
0.276407
0.270739
0.263812
0.256698
0.249358
0.241727
0.233807
0.225626
0.217219
0.208605
0.199747
0.190537
0.181105
0.171558
0.16193
0.152228
0.14249
0.132762
0.123072
0.113279
0.103537
0.0939048
0.0842484
0.07438
0.0644757
0.0545658
0.0445205
0.0345838
0.0248963
0.0154428
0.00620998
-0.00277926
-0.01179
-0.0209215
-0.0302983
-0.046324
-0.0510772
-0.0510772
0
0
0.464083
0.431834
0.412733
0.3939
0.376585
0.361096
0.347697
0.336401
0.327043
0.319638
0.314142
0.310384
0.308036
0.306632
0.305691
0.307079
0.30497
0.302436
0.299478
0.295834
0.290983
0.28565
0.279894
0.273972
0.266178
0.259176
0.251792
0.24402
0.235928
0.227567
0.218988
0.210214
0.201178
0.191587
0.181829
0.172061
0.162262
0.152387
0.142465
0.132589
0.122794
0.112718
0.102866
0.0933409
0.0838407
0.0739222
0.0640738
0.0542704
0.0440676
0.0340318
0.0243462
0.0148939
0.00563662
-0.00328494
-0.0202937
-0.0214694
-0.030693
-0.0404973
-0.0574477
-0.0515808
0
0
0.462302
0.436056
0.414454
0.395309
0.378256
0.363222
0.350359
0.339767
0.330894
0.323932
0.318808
0.315318
0.313178
0.312105
0.311637
0.31162
0.310289
0.307901
0.304624
0.300481
0.295475
0.289702
0.28319
0.275727
0.269979
0.262513
0.254613
0.246469
0.238138
0.229536
0.220764
0.211857
0.202715
0.192545
0.182484
0.172576
0.16265
0.152579
0.142245
0.132075
0.122179
0.111684
0.101797
0.0924989
0.0832856
0.0732176
0.0635738
0.054148
0.0437594
0.0337156
0.0241126
0.0146469
0.00526574
-0.00343488
-0.0125834
-0.0218703
-0.0311694
-0.040905
-0.0516192
-0.0516192
0
0
0.462187
0.43786
0.416299
0.397209
0.374283
0.365817
0.353299
0.344297
0.335871
0.329456
0.324739
0.321459
0.31931
0.283102
0.317473
0.317045
0.31567
0.313216
0.309722
0.305289
0.300029
0.293837
0.286943
0.27963
0.272627
0.265054
0.257017
0.248573
0.240338
0.231436
0.222438
0.213409
0.204318
0.193225
0.18307
0.173188
0.163188
0.153081
0.141547
0.130942
0.1206
0.109726
0.100011
0.0909952
0.0822764
0.0720476
0.0629362
0.0543863
0.0439179
0.0341134
0.0246367
0.0150471
0.0052171
-0.00360784
-0.0132157
-0.0225414
-0.0318387
-0.0415534
-0.0522339
-0.0522339
0
0
0.462367
0.438829
0.417807
0.399304
0.38331
0.369594
0.358162
0.349445
0.34217
0.336436
0.332152
0.329025
0.326993
0.326052
0.325013
0.323755
0.321818
0.318922
0.315018
0.310211
0.304657
0.297891
0.290581
0.283064
0.27544
0.267532
0.259296
0.250746
0.242091
0.233044
0.22379
0.214487
0.205586
0.193483
0.183932
0.174067
0.163789
0.153096
0.141489
0.129307
-0.00271864
0.106585
0.0973822
0.0879656
0.0797638
0.0705634
0.0621882
0.0547448
0.0454996