# vtk DataFile Version 2.0
FlowField
ASCII
DATASET STRUCTURED_GRID
DIMENSIONS 102 11 11 
POINTS 12342 double
0 0 0
0 0 0.2
0 0 0.4
0 0 0.6
0 0 0.8
0 0 1
0 0 1.2
0 0 1.4
0 0 1.6
0 0 1.8
0 0 2
0 0.1 0
0 0.1 0.2
0 0.1 0.4
0 0.1 0.6
0 0.1 0.8
0 0.1 1
0 0.1 1.2
0 0.1 1.4
0 0.1 1.6
0 0.1 1.8
0 0.1 2
0 0.2 0
0 0.2 0.2
0 0.2 0.4
0 0.2 0.6
0 0.2 0.8
0 0.2 1
0 0.2 1.2
0 0.2 1.4
0 0.2 1.6
0 0.2 1.8
0 0.2 2
0 0.3 0
0 0.3 0.2
0 0.3 0.4
0 0.3 0.6
0 0.3 0.8
0 0.3 1
0 0.3 1.2
0 0.3 1.4
0 0.3 1.6
0 0.3 1.8
0 0.3 2
0 0.4 0
0 0.4 0.2
0 0.4 0.4
0 0.4 0.6
0 0.4 0.8
0 0.4 1
0 0.4 1.2
0 0.4 1.4
0 0.4 1.6
0 0.4 1.8
0 0.4 2
0 0.5 0
0 0.5 0.2
0 0.5 0.4
0 0.5 0.6
0 0.5 0.8
0 0.5 1
0 0.5 1.2
0 0.5 1.4
0 0.5 1.6
0 0.5 1.8
0 0.5 2
0 0.6 0
0 0.6 0.2
0 0.6 0.4
0 0.6 0.6
0 0.6 0.8
0 0.6 1
0 0.6 1.2
0 0.6 1.4
0 0.6 1.6
0 0.6 1.8
0 0.6 2
0 0.7 0
0 0.7 0.2
0 0.7 0.4
0 0.7 0.6
0 0.7 0.8
0 0.7 1
0 0.7 1.2
0 0.7 1.4
0 0.7 1.6
0 0.7 1.8
0 0.7 2
0 0.8 0
0 0.8 0.2
0 0.8 0.4
0 0.8 0.6
0 0.8 0.8
0 0.8 1
0 0.8 1.2
0 0.8 1.4
0 0.8 1.6
0 0.8 1.8
0 0.8 2
0 0.9 0
0 0.9 0.2
0 0.9 0.4
0 0.9 0.6
0 0.9 0.8
0 0.9 1
0 0.9 1.2
0 0.9 1.4
0 0.9 1.6
0 0.9 1.8
0 0.9 2
0 1 0
0 1 0.2
0 1 0.4
0 1 0.6
0 1 0.8
0 1 1
0 1 1.2
0 1 1.4
0 1 1.6
0 1 1.8
0 1 2
0.2 0 0
0.2 0 0.2
0.2 0 0.4
0.2 0 0.6
0.2 0 0.8
0.2 0 1
0.2 0 1.2
0.2 0 1.4
0.2 0 1.6
0.2 0 1.8
0.2 0 2
0.2 0.1 0
0.2 0.1 0.2
0.2 0.1 0.4
0.2 0.1 0.6
0.2 0.1 0.8
0.2 0.1 1
0.2 0.1 1.2
0.2 0.1 1.4
0.2 0.1 1.6
0.2 0.1 1.8
0.2 0.1 2
0.2 0.2 0
0.2 0.2 0.2
0.2 0.2 0.4
0.2 0.2 0.6
0.2 0.2 0.8
0.2 0.2 1
0.2 0.2 1.2
0.2 0.2 1.4
0.2 0.2 1.6
0.2 0.2 1.8
0.2 0.2 2
0.2 0.3 0
0.2 0.3 0.2
0.2 0.3 0.4
0.2 0.3 0.6
0.2 0.3 0.8
0.2 0.3 1
0.2 0.3 1.2
0.2 0.3 1.4
0.2 0.3 1.6
0.2 0.3 1.8
0.2 0.3 2
0.2 0.4 0
0.2 0.4 0.2
0.2 0.4 0.4
0.2 0.4 0.6
0.2 0.4 0.8
0.2 0.4 1
0.2 0.4 1.2
0.2 0.4 1.4
0.2 0.4 1.6
0.2 0.4 1.8
0.2 0.4 2
0.2 0.5 0
0.2 0.5 0.2
0.2 0.5 0.4
0.2 0.5 0.6
0.2 0.5 0.8
0.2 0.5 1
0.2 0.5 1.2
0.2 0.5 1.4
0.2 0.5 1.6
0.2 0.5 1.8
0.2 0.5 2
0.2 0.6 0
0.2 0.6 0.2
0.2 0.6 0.4
0.2 0.6 0.6
0.2 0.6 0.8
0.2 0.6 1
0.2 0.6 1.2
0.2 0.6 1.4
0.2 0.6 1.6
0.2 0.6 1.8
0.2 0.6 2
0.2 0.7 0
0.2 0.7 0.2
0.2 0.7 0.4
0.2 0.7 0.6
0.2 0.7 0.8
0.2 0.7 1
0.2 0.7 1.2
0.2 0.7 1.4
0.2 0.7 1.6
0.2 0.7 1.8
0.2 0.7 2
0.2 0.8 0
0.2 0.8 0.2
0.2 0.8 0.4
0.2 0.8 0.6
0.2 0.8 0.8
0.2 0.8 1
0.2 0.8 1.2
0.2 0.8 1.4
0.2 0.8 1.6
0.2 0.8 1.8
0.2 0.8 2
0.2 0.9 0
0.2 0.9 0.2
0.2 0.9 0.4
0.2 0.9 0.6
0.2 0.9 0.8
0.2 0.9 1
0.2 0.9 1.2
0.2 0.9 1.4
0.2 0.9 1.6
0.2 0.9 1.8
0.2 0.9 2
0.2 1 0
0.2 1 0.2
0.2 1 0.4
0.2 1 0.6
0.2 1 0.8
0.2 1 1
0.2 1 1.2
0.2 1 1.4
0.2 1 1.6
0.2 1 1.8
0.2 1 2
0.4 0 0
0.4 0 0.2
0.4 0 0.4
0.4 0 0.6
0.4 0 0.8
0.4 0 1
0.4 0 1.2
0.4 0 1.4
0.4 0 1.6
0.4 0 1.8
0.4 0 2
0.4 0.1 0
0.4 0.1 0.2
0.4 0.1 0.4
0.4 0.1 0.6
0.4 0.1 0.8
0.4 0.1 1
0.4 0.1 1.2
0.4 0.1 1.4
0.4 0.1 1.6
0.4 0.1 1.8
0.4 0.1 2
0.4 0.2 0
0.4 0.2 0.2
0.4 0.2 0.4
0.4 0.2 0.6
0.4 0.2 0.8
0.4 0.2 1
0.4 0.2 1.2
0.4 0.2 1.4
0.4 0.2 1.6
0.4 0.2 1.8
0.4 0.2 2
0.4 0.3 0
0.4 0.3 0.2
0.4 0.3 0.4
0.4 0.3 0.6
0.4 0.3 0.8
0.4 0.3 1
0.4 0.3 1.2
0.4 0.3 1.4
0.4 0.3 1.6
0.4 0.3 1.8
0.4 0.3 2
0.4 0.4 0
0.4 0.4 0.2
0.4 0.4 0.4
0.4 0.4 0.6
0.4 0.4 0.8
0.4 0.4 1
0.4 0.4 1.2
0.4 0.4 1.4
0.4 0.4 1.6
0.4 0.4 1.8
0.4 0.4 2
0.4 0.5 0
0.4 0.5 0.2
0.4 0.5 0.4
0.4 0.5 0.6
0.4 0.5 0.8
0.4 0.5 1
0.4 0.5 1.2
0.4 0.5 1.4
0.4 0.5 1.6
0.4 0.5 1.8
0.4 0.5 2
0.4 0.6 0
0.4 0.6 0.2
0.4 0.6 0.4
0.4 0.6 0.6
0.4 0.6 0.8
0.4 0.6 1
0.4 0.6 1.2
0.4 0.6 1.4
0.4 0.6 1.6
0.4 0.6 1.8
0.4 0.6 2
0.4 0.7 0
0.4 0.7 0.2
0.4 0.7 0.4
0.4 0.7 0.6
0.4 0.7 0.8
0.4 0.7 1
0.4 0.7 1.2
0.4 0.7 1.4
0.4 0.7 1.6
0.4 0.7 1.8
0.4 0.7 2
0.4 0.8 0
0.4 0.8 0.2
0.4 0.8 0.4
0.4 0.8 0.6
0.4 0.8 0.8
0.4 0.8 1
0.4 0.8 1.2
0.4 0.8 1.4
0.4 0.8 1.6
0.4 0.8 1.8
0.4 0.8 2
0.4 0.9 0
0.4 0.9 0.2
0.4 0.9 0.4
0.4 0.9 0.6
0.4 0.9 0.8
0.4 0.9 1
0.4 0.9 1.2
0.4 0.9 1.4
0.4 0.9 1.6
0.4 0.9 1.8
0.4 0.9 2
0.4 1 0
0.4 1 0.2
0.4 1 0.4
0.4 1 0.6
0.4 1 0.8
0.4 1 1
0.4 1 1.2
0.4 1 1.4
0.4 1 1.6
0.4 1 1.8
0.4 1 2
0.6 0 0
0.6 0 0.2
0.6 0 0.4
0.6 0 0.6
0.6 0 0.8
0.6 0 1
0.6 0 1.2
0.6 0 1.4
0.6 0 1.6
0.6 0 1.8
0.6 0 2
0.6 0.1 0
0.6 0.1 0.2
0.6 0.1 0.4
0.6 0.1 0.6
0.6 0.1 0.8
0.6 0.1 1
0.6 0.1 1.2
0.6 0.1 1.4
0.6 0.1 1.6
0.6 0.1 1.8
0.6 0.1 2
0.6 0.2 0
0.6 0.2 0.2
0.6 0.2 0.4
0.6 0.2 0.6
0.6 0.2 0.8
0.6 0.2 1
0.6 0.2 1.2
0.6 0.2 1.4
0.6 0.2 1.6
0.6 0.2 1.8
0.6 0.2 2
0.6 0.3 0
0.6 0.3 0.2
0.6 0.3 0.4
0.6 0.3 0.6
0.6 0.3 0.8
0.6 0.3 1
0.6 0.3 1.2
0.6 0.3 1.4
0.6 0.3 1.6
0.6 0.3 1.8
0.6 0.3 2
0.6 0.4 0
0.6 0.4 0.2
0.6 0.4 0.4
0.6 0.4 0.6
0.6 0.4 0.8
0.6 0.4 1
0.6 0.4 1.2
0.6 0.4 1.4
0.6 0.4 1.6
0.6 0.4 1.8
0.6 0.4 2
0.6 0.5 0
0.6 0.5 0.2
0.6 0.5 0.4
0.6 0.5 0.6
0.6 0.5 0.8
0.6 0.5 1
0.6 0.5 1.2
0.6 0.5 1.4
0.6 0.5 1.6
0.6 0.5 1.8
0.6 0.5 2
0.6 0.6 0
0.6 0.6 0.2
0.6 0.6 0.4
0.6 0.6 0.6
0.6 0.6 0.8
0.6 0.6 1
0.6 0.6 1.2
0.6 0.6 1.4
0.6 0.6 1.6
0.6 0.6 1.8
0.6 0.6 2
0.6 0.7 0
0.6 0.7 0.2
0.6 0.7 0.4
0.6 0.7 0.6
0.6 0.7 0.8
0.6 0.7 1
0.6 0.7 1.2
0.6 0.7 1.4
0.6 0.7 1.6
0.6 0.7 1.8
0.6 0.7 2
0.6 0.8 0
0.6 0.8 0.2
0.6 0.8 0.4
0.6 0.8 0.6
0.6 0.8 0.8
0.6 0.8 1
0.6 0.8 1.2
0.6 0.8 1.4
0.6 0.8 1.6
0.6 0.8 1.8
0.6 0.8 2
0.6 0.9 0
0.6 0.9 0.2
0.6 0.9 0.4
0.6 0.9 0.6
0.6 0.9 0.8
0.6 0.9 1
0.6 0.9 1.2
0.6 0.9 1.4
0.6 0.9 1.6
0.6 0.9 1.8
0.6 0.9 2
0.6 1 0
0.6 1 0.2
0.6 1 0.4
0.6 1 0.6
0.6 1 0.8
0.6 1 1
0.6 1 1.2
0.6 1 1.4
0.6 1 1.6
0.6 1 1.8
0.6 1 2
0.8 0 0
0.8 0 0.2
0.8 0 0.4
0.8 0 0.6
0.8 0 0.8
0.8 0 1
0.8 0 1.2
0.8 0 1.4
0.8 0 1.6
0.8 0 1.8
0.8 0 2
0.8 0.1 0
0.8 0.1 0.2
0.8 0.1 0.4
0.8 0.1 0.6
0.8 0.1 0.8
0.8 0.1 1
0.8 0.1 1.2
0.8 0.1 1.4
0.8 0.1 1.6
0.8 0.1 1.8
0.8 0.1 2
0.8 0.2 0
0.8 0.2 0.2
0.8 0.2 0.4
0.8 0.2 0.6
0.8 0.2 0.8
0.8 0.2 1
0.8 0.2 1.2
0.8 0.2 1.4
0.8 0.2 1.6
0.8 0.2 1.8
0.8 0.2 2
0.8 0.3 0
0.8 0.3 0.2
0.8 0.3 0.4
0.8 0.3 0.6
0.8 0.3 0.8
0.8 0.3 1
0.8 0.3 1.2
0.8 0.3 1.4
0.8 0.3 1.6
0.8 0.3 1.8
0.8 0.3 2
0.8 0.4 0
0.8 0.4 0.2
0.8 0.4 0.4
0.8 0.4 0.6
0.8 0.4 0.8
0.8 0.4 1
0.8 0.4 1.2
0.8 0.4 1.4
0.8 0.4 1.6
0.8 0.4 1.8
0.8 0.4 2
0.8 0.5 0
0.8 0.5 0.2
0.8 0.5 0.4
0.8 0.5 0.6
0.8 0.5 0.8
0.8 0.5 1
0.8 0.5 1.2
0.8 0.5 1.4
0.8 0.5 1.6
0.8 0.5 1.8
0.8 0.5 2
0.8 0.6 0
0.8 0.6 0.2
0.8 0.6 0.4
0.8 0.6 0.6
0.8 0.6 0.8
0.8 0.6 1
0.8 0.6 1.2
0.8 0.6 1.4
0.8 0.6 1.6
0.8 0.6 1.8
0.8 0.6 2
0.8 0.7 0
0.8 0.7 0.2
0.8 0.7 0.4
0.8 0.7 0.6
0.8 0.7 0.8
0.8 0.7 1
0.8 0.7 1.2
0.8 0.7 1.4
0.8 0.7 1.6
0.8 0.7 1.8
0.8 0.7 2
0.8 0.8 0
0.8 0.8 0.2
0.8 0.8 0.4
0.8 0.8 0.6
0.8 0.8 0.8
0.8 0.8 1
0.8 0.8 1.2
0.8 0.8 1.4
0.8 0.8 1.6
0.8 0.8 1.8
0.8 0.8 2
0.8 0.9 0
0.8 0.9 0.2
0.8 0.9 0.4
0.8 0.9 0.6
0.8 0.9 0.8
0.8 0.9 1
0.8 0.9 1.2
0.8 0.9 1.4
0.8 0.9 1.6
0.8 0.9 1.8
0.8 0.9 2
0.8 1 0
0.8 1 0.2
0.8 1 0.4
0.8 1 0.6
0.8 1 0.8
0.8 1 1
0.8 1 1.2
0.8 1 1.4
0.8 1 1.6
0.8 1 1.8
0.8 1 2
1 0 0
1 0 0.2
1 0 0.4
1 0 0.6
1 0 0.8
1 0 1
1 0 1.2
1 0 1.4
1 0 1.6
1 0 1.8
1 0 2
1 0.1 0
1 0.1 0.2
1 0.1 0.4
1 0.1 0.6
1 0.1 0.8
1 0.1 1
1 0.1 1.2
1 0.1 1.4
1 0.1 1.6
1 0.1 1.8
1 0.1 2
1 0.2 0
1 0.2 0.2
1 0.2 0.4
1 0.2 0.6
1 0.2 0.8
1 0.2 1
1 0.2 1.2
1 0.2 1.4
1 0.2 1.6
1 0.2 1.8
1 0.2 2
1 0.3 0
1 0.3 0.2
1 0.3 0.4
1 0.3 0.6
1 0.3 0.8
1 0.3 1
1 0.3 1.2
1 0.3 1.4
1 0.3 1.6
1 0.3 1.8
1 0.3 2
1 0.4 0
1 0.4 0.2
1 0.4 0.4
1 0.4 0.6
1 0.4 0.8
1 0.4 1
1 0.4 1.2
1 0.4 1.4
1 0.4 1.6
1 0.4 1.8
1 0.4 2
1 0.5 0
1 0.5 0.2
1 0.5 0.4
1 0.5 0.6
1 0.5 0.8
1 0.5 1
1 0.5 1.2
1 0.5 1.4
1 0.5 1.6
1 0.5 1.8
1 0.5 2
1 0.6 0
1 0.6 0.2
1 0.6 0.4
1 0.6 0.6
1 0.6 0.8
1 0.6 1
1 0.6 1.2
1 0.6 1.4
1 0.6 1.6
1 0.6 1.8
1 0.6 2
1 0.7 0
1 0.7 0.2
1 0.7 0.4
1 0.7 0.6
1 0.7 0.8
1 0.7 1
1 0.7 1.2
1 0.7 1.4
1 0.7 1.6
1 0.7 1.8
1 0.7 2
1 0.8 0
1 0.8 0.2
1 0.8 0.4
1 0.8 0.6
1 0.8 0.8
1 0.8 1
1 0.8 1.2
1 0.8 1.4
1 0.8 1.6
1 0.8 1.8
1 0.8 2
1 0.9 0
1 0.9 0.2
1 0.9 0.4
1 0.9 0.6
1 0.9 0.8
1 0.9 1
1 0.9 1.2
1 0.9 1.4
1 0.9 1.6
1 0.9 1.8
1 0.9 2
1 1 0
1 1 0.2
1 1 0.4
1 1 0.6
1 1 0.8
1 1 1
1 1 1.2
1 1 1.4
1 1 1.6
1 1 1.8
1 1 2
1.2 0 0
1.2 0 0.2
1.2 0 0.4
1.2 0 0.6
1.2 0 0.8
1.2 0 1
1.2 0 1.2
1.2 0 1.4
1.2 0 1.6
1.2 0 1.8
1.2 0 2
1.2 0.1 0
1.2 0.1 0.2
1.2 0.1 0.4
1.2 0.1 0.6
1.2 0.1 0.8
1.2 0.1 1
1.2 0.1 1.2
1.2 0.1 1.4
1.2 0.1 1.6
1.2 0.1 1.8
1.2 0.1 2
1.2 0.2 0
1.2 0.2 0.2
1.2 0.2 0.4
1.2 0.2 0.6
1.2 0.2 0.8
1.2 0.2 1
1.2 0.2 1.2
1.2 0.2 1.4
1.2 0.2 1.6
1.2 0.2 1.8
1.2 0.2 2
1.2 0.3 0
1.2 0.3 0.2
1.2 0.3 0.4
1.2 0.3 0.6
1.2 0.3 0.8
1.2 0.3 1
1.2 0.3 1.2
1.2 0.3 1.4
1.2 0.3 1.6
1.2 0.3 1.8
1.2 0.3 2
1.2 0.4 0
1.2 0.4 0.2
1.2 0.4 0.4
1.2 0.4 0.6
1.2 0.4 0.8
1.2 0.4 1
1.2 0.4 1.2
1.2 0.4 1.4
1.2 0.4 1.6
1.2 0.4 1.8
1.2 0.4 2
1.2 0.5 0
1.2 0.5 0.2
1.2 0.5 0.4
1.2 0.5 0.6
1.2 0.5 0.8
1.2 0.5 1
1.2 0.5 1.2
1.2 0.5 1.4
1.2 0.5 1.6
1.2 0.5 1.8
1.2 0.5 2
1.2 0.6 0
1.2 0.6 0.2
1.2 0.6 0.4
1.2 0.6 0.6
1.2 0.6 0.8
1.2 0.6 1
1.2 0.6 1.2
1.2 0.6 1.4
1.2 0.6 1.6
1.2 0.6 1.8
1.2 0.6 2
1.2 0.7 0
1.2 0.7 0.2
1.2 0.7 0.4
1.2 0.7 0.6
1.2 0.7 0.8
1.2 0.7 1
1.2 0.7 1.2
1.2 0.7 1.4
1.2 0.7 1.6
1.2 0.7 1.8
1.2 0.7 2
1.2 0.8 0
1.2 0.8 0.2
1.2 0.8 0.4
1.2 0.8 0.6
1.2 0.8 0.8
1.2 0.8 1
1.2 0.8 1.2
1.2 0.8 1.4
1.2 0.8 1.6
1.2 0.8 1.8
1.2 0.8 2
1.2 0.9 0
1.2 0.9 0.2
1.2 0.9 0.4
1.2 0.9 0.6
1.2 0.9 0.8
1.2 0.9 1
1.2 0.9 1.2
1.2 0.9 1.4
1.2 0.9 1.6
1.2 0.9 1.8
1.2 0.9 2
1.2 1 0
1.2 1 0.2
1.2 1 0.4
1.2 1 0.6
1.2 1 0.8
1.2 1 1
1.2 1 1.2
1.2 1 1.4
1.2 1 1.6
1.2 1 1.8
1.2 1 2
1.4 0 0
1.4 0 0.2
1.4 0 0.4
1.4 0 0.6
1.4 0 0.8
1.4 0 1
1.4 0 1.2
1.4 0 1.4
1.4 0 1.6
1.4 0 1.8
1.4 0 2
1.4 0.1 0
1.4 0.1 0.2
1.4 0.1 0.4
1.4 0.1 0.6
1.4 0.1 0.8
1.4 0.1 1
1.4 0.1 1.2
1.4 0.1 1.4
1.4 0.1 1.6
1.4 0.1 1.8
1.4 0.1 2
1.4 0.2 0
1.4 0.2 0.2
1.4 0.2 0.4
1.4 0.2 0.6
1.4 0.2 0.8
1.4 0.2 1
1.4 0.2 1.2
1.4 0.2 1.4
1.4 0.2 1.6
1.4 0.2 1.8
1.4 0.2 2
1.4 0.3 0
1.4 0.3 0.2
1.4 0.3 0.4
1.4 0.3 0.6
1.4 0.3 0.8
1.4 0.3 1
1.4 0.3 1.2
1.4 0.3 1.4
1.4 0.3 1.6
1.4 0.3 1.8
1.4 0.3 2
1.4 0.4 0
1.4 0.4 0.2
1.4 0.4 0.4
1.4 0.4 0.6
1.4 0.4 0.8
1.4 0.4 1
1.4 0.4 1.2
1.4 0.4 1.4
1.4 0.4 1.6
1.4 0.4 1.8
1.4 0.4 2
1.4 0.5 0
1.4 0.5 0.2
1.4 0.5 0.4
1.4 0.5 0.6
1.4 0.5 0.8
1.4 0.5 1
1.4 0.5 1.2
1.4 0.5 1.4
1.4 0.5 1.6
1.4 0.5 1.8
1.4 0.5 2
1.4 0.6 0
1.4 0.6 0.2
1.4 0.6 0.4
1.4 0.6 0.6
1.4 0.6 0.8
1.4 0.6 1
1.4 0.6 1.2
1.4 0.6 1.4
1.4 0.6 1.6
1.4 0.6 1.8
1.4 0.6 2
1.4 0.7 0
1.4 0.7 0.2
1.4 0.7 0.4
1.4 0.7 0.6
1.4 0.7 0.8
1.4 0.7 1
1.4 0.7 1.2
1.4 0.7 1.4
1.4 0.7 1.6
1.4 0.7 1.8
[...]
POINT_DATA 12342

SCALARS u double
LOOKUP_TABLE default
1
-1
-1
-1
-1
-1
-1
-1
-1
-1
1
-1
1
1
1
1
1
1
1
1
1
-1
-1
1
1
1
1
1
1
1
1
1
-1
-1
1
1
1
1
1
1
1
1
1
-1
-1
1
1
1
1
1
1
1
1
1
-1
-1
1
1
1
1
1
1
1
1
1
-1
-1
1
1
1
1
1
1
1
1
1
-1
-1
1
1
1
1
1
1
1
1
1
-1
-1
1
1
1
1
1
1
1
1
1
-1
-1
1
1
1
1
1
1
1
1
1
-1
1
-1
-1
-1
-1
-1
-1
-1
-1
-1
1
1.04997
-1.04997
-0.990569
-0.959828
-0.949754
-0.944329
-0.940709
-0.937066
-0.935672
-0.951982
0.951982
-1.04997
1.14197
1.06405
0.993445
0.969535
0.957288
0.949659
0.942905
0.940635
0.960469
-0.951982
-1.12811
1.21967
1.15676
1.08498
1.06039
1.04796
1.04043
1.03419
1.03331
1.04504
-1.03269
-1.12644
1.21863
1.15461
1.08272
1.05816
1.04572
1.03816
1.03184
1.03078
1.04315
-1.03062
-1.12473
1.21709
1.15235
1.08042
1.05587
1.04344
1.03586
1.0295
1.02836
1.04112
-1.02869
-1.12459
1.21701
1.15211
1.08016
1.05562
1.04318
1.0356
1.02924
1.02808
1.04092
-1.02849
-1.12596
1.21838
1.1538
1.08185
1.05729
1.04485
1.03727
1.03091
1.02978
1.04245
-1.02993
-1.12929
1.22168
1.15803
1.08606
1.06144
1.04898
1.0414
1.03507
1.03401
1.04619
-1.03345
-1.13343
1.22545
1.16319
1.09118
1.06645
1.05394
1.04635
1.04005
1.03908
1.05058
-1.03787
-1.05759
1.14931
1.07303
1.00233
0.978332
0.966062
0.958439
0.951745
0.949665
0.968572
-0.959913
1.05759
-1.05759
-0.998983
-0.968171
-0.958061
-0.952626
-0.949011
-0.945399
-0.944106
-0.959913
0.959913
1.15217
-1.15217
-1.0131
-0.957203
-0.940014
-0.930866
-0.923622
-0.915933
-0.917599
-0.967017
0.967017
-1.15217
1.37848
1.13714
1.01134
0.971795
0.951461
0.936378
0.92065
0.920178
1.00599
-0.967017
-1.25268
1.48228
1.25581
1.12898
1.08856
1.06788
1.0528
1.03748
1.03762
1.11545
-1.06925
-1.25389
1.48404
1.25711
1.13025
1.08988
1.06921
1.05413
1.03877
1.03883
1.11692
-1.07031
-1.25321
1.4835
1.256
1.12911
1.08877
1.0681
1.05301
1.03763
1.03762
1.11602
-1.06947
-1.25337
1.48373
1.25611
1.1292
1.08886
1.06818
1.05309
1.03769
1.03766
1.11613
-1.06958
-1.25447
1.48484
1.25755
1.13063
1.09026
1.06957
1.05447
1.03907
1.03905
1.11735
-1.07072
-1.25654
1.48687
1.26038
1.13345
1.093
1.07228
1.05717
1.0418
1.04183
1.11971
-1.07293
-1.25682
1.48665
1.26095
1.134
1.09345
1.07269
1.05757
1.04222
1.04232
1.1198
-1.07335
-1.15722
1.38324
1.14322
1.01738
0.977734
0.957357
0.942271
0.926596
0.92621
1.01127
-0.972256
1.15722
-1.15722
-1.01875
-0.962827
-0.945592
-0.936425
-0.929182
-0.92152
-0.923225
-0.972256
0.972256
1.20459
-1.20459
-1.05139
-0.973928
-0.946714
-0.933226
-0.923216
-0.915984
-0.928185
-0.97989
0.97989
-1.20459
1.51751
1.21965
1.05229
0.992514
0.963028
0.941489
0.924005
0.939334
1.0408
-0.97989
-1.31036
1.62984
1.34242
1.17443
1.11391
1.08403
1.06241
1.04506
1.06031
1.15596
-1.08621
-1.3129
1.63293
1.3454
1.17743
1.11695
1.08709
1.06547
1.04811
1.0633
1.159
-1.0887
-1.31287
1.63298
1.34516
1.17718
1.11673
1.08688
1.06526
1.04788
1.06303
1.15889
-1.08859
-1.31311
1.63326
1.34539
1.1774
1.11696
1.0871
1.06547
1.04809
1.06322
1.15911
-1.08881
-1.31369
1.63384
1.34619
1.1782
1.11773
1.08785
1.06622
1.04884
1.06397
1.15975
-1.08942
-1.31452
1.6346
1.34742
1.17945
1.11892
1.08902
1.06738
1.05001
1.06517
1.1607
-1.09032
-1.31267
1.63216
1.34529
1.1773
1.1167
1.08677
1.06512
1.04778
1.063
1.15837
-1.08854
-1.20712
1.51975
1.22265
1.05533
0.995471
0.96594
0.944396
0.926946
0.942273
1.04331
-0.982509
1.20712
-1.20712
-1.05427
-0.976815
-0.949567
-0.936059
-0.926048
-0.918834
-0.931029
-0.982509
0.982509
1.21557
-1.21557
-1.08315
-0.994834
-0.957395
-0.939075
-0.92768
-0.924191
-0.945319
-0.984316
0.984316
-1.21557
1.57016
1.28643
1.09794
1.01781
0.978239
0.952403
0.939552
0.970853
1.05842
-0.984316
-1.323
1.68627
1.40963
1.22064
1.13992
1.09999
1.074
1.06111
1.09214
1.17533
-1.09157
-1.32589
1.68978
1.4131
1.22414
1.14346
1.10354
1.07756
1.06465
1.09564
1.17882
-1.09443
-1.32604
1.68999
1.41314
1.22418
1.14352
1.10361
1.07763
1.0647
1.09567
1.17894
-1.09454
-1.32622
1.69019
1.41332
1.22436
1.14371
1.10379
1.07781
1.06488
1.09583
1.17911
-1.09471
-1.32649
1.69043
1.41369
1.22475
1.14408
1.10416
1.07817
1.06524
1.09619
1.1794
-1.09499
-1.32675
1.69061
1.41416
1.22524
1.14453
1.10459
1.07859
1.06568
1.09664
1.1797
-1.0953
-1.32416
1.68736
1.41106
1.22212
1.14136
1.10139
1.0754
1.06252
1.09351
1.17651
-1.09276
-1.21675
1.57105
1.28775
1.09932
1.01915
0.979547
0.953709
0.940878
0.97215
1.05948
-0.985547
1.21675
-1.21675
-1.08452
-0.996226
-0.958769
-0.940435
-0.92904
-0.925559
-0.946668
-0.985547
0.985547
1.20333
-1.20333
-1.10229
-1.01407
-0.969227
-0.946527
-0.934928
-0.935837
-0.960853
-0.983922
0.983922
-1.20333
1.56774
1.32948
1.13965
1.04409
0.995059
0.967272
0.961586
1.00185
1.06543
-0.983922
-1.31141
1.68585
1.45271
1.26238
1.16632
1.11695
1.08897
1.08318
1.12322
1.18312
-1.09148
-1.31438
1.68947
1.4563
1.26599
1.16996
1.1206
1.09263
1.08681
1.12683
1.18671
-1.09441
-1.31453
1.68967
1.45639
1.26607
1.17006
1.12071
1.09274
1.08691
1.12692
1.18685
-1.09453
-1.31464
1.68979
1.45649
1.26618
1.17017
1.12083
1.09285
1.08702
1.12702
1.18696
-1.09463
-1.31475
1.68988
1.45667
1.26637
1.17035
1.121
1.09302
1.08719
1.12719
1.18708
-1.09476
-1.3148
1.68985
1.45682
1.26655
1.17051
1.12114
1.09317
1.08735
1.12734
1.18713
-1.09485
-1.31198
1.68632
1.45339
1.26312
1.16704
1.11765
1.08967
1.08388
1.12389
1.18367
-1.09206
-1.20385
1.56799
1.32999
1.14022
1.04465
0.995596
0.967809
0.962133
1.00236
1.0658
-0.984474
1.20385
-1.20385
-1.10291
-1.01472
-0.969871
-0.947163
-0.935564
-0.936475
-0.96147
-0.984474
0.984474
1.18089
-1.18089
-1.10981
-1.02908
-0.981066
-0.955411
-0.944224
-0.948274
-0.97274
-0.98182
0.98182
-1.18089
1.53615
1.35003
1.17307
1.06968
1.01364
0.985575
0.986039
1.0277
1.06764
-0.98182
-1.28924
1.65533
1.47325
1.29578
1.19193
1.13556
1.1073
1.10765
1.14919
1.18573
-1.08949
-1.2922
1.65896
1.47688
1.2994
1.19558
1.13922
1.11096
1.11129
1.15282
1.18933
-1.09242
-1.29232
1.65914
1.47697
1.29948
1.19566
1.13932
1.11106
1.11138
1.15291
1.18945
-1.09252
-1.29238
1.65921
1.47703
1.29954
1.19573
1.13938
1.11112
1.11144
1.15297
1.18951
-1.09258
-1.29243
1.65923
1.47711
1.29963
1.19582
1.13947
1.11121
1.11153
1.15305
1.18956
-1.09264
-1.29241
1.65913
1.47714
1.29969
1.19587
1.13951
1.11124
1.11157
1.15308
1.18953
-1.09264
-1.28951
1.65552
1.47358
1.29615
1.1923
1.13592
1.10766
1.108
1.14951
1.18598
-1.08978
-1.18108
1.53611
1.35014
1.17325
1.06986
1.01381
0.985748
0.986212
1.02784
1.0677
-0.982043
1.18108
-1.18108
-1.11006
-1.02937
-0.981352
-0.955693
-0.944506
-0.948553
-0.973001
-0.982043
0.982043
1.15553
-1.15553
-1.10893
-1.03924
-0.992033
-0.965284
-0.954664
-0.959987
-0.981276
-0.979598
0.979598
-1.15553
1.49201
1.35311
1.19676
1.09319
1.03365
1.00618
1.01006
1.04786
1.06833
-0.979598
-1.26397
1.61172
1.47632
1.31946
1.21544
1.15559
1.12793
1.13172
1.16948
1.18664
-1.08732
-1.26691
1.61536
1.47996
1.32309
1.21909
1.15925
1.13158
1.13536
1.17312
1.19023
-1.09024
-1.26701
1.6155
1.48005
1.32316
1.21916
1.15933
1.13166
1.13544
1.17321
1.19034
-1.09032
-1.26704
1.61554
1.48008
1.32319
1.2192
1.15936
1.13169
1.13547
1.17324
1.19037
-1.09035
-1.26706
1.61554
1.48011
1.32324
1.21925
1.15941
1.13174
1.13552
1.17328
1.19039
-1.09038
-1.26701
1.61543
1.48009
1.32324
1.21925
1.1594
1.13174
1.13551
1.17325
1.19034
-1.09035
-1.26409
1.61179
1.47647
1.31965
1.21565
1.15579
1.12812
1.13191
1.16964
1.18676
-1.08746
-1.15557
1.49184
1.35305
1.19675
1.0932
1.03365
1.00618
1.01005
1.04783
1.06825
-0.979667
1.15557
-1.15557
-1.10901
-1.03934
-0.992143
-0.965394
-0.954773
-0.960092
-0.981365
-0.979667
0.979667
1.13081
-1.13081
-1.10293
-1.04505
-1.00152
-0.975398
-0.965301
-0.970324
-0.98739
-0.977888
0.977888
-1.13081
1.44464
1.34444
1.21136
1.1136
1.05411
1.02757
1.03208
1.06338
1.06901
-0.977888
-1.23925
1.56459
1.46759
1.33404
1.23586
1.17609
1.14937
1.15381
1.18511
1.18746
-1.08563
-1.24218
1.56821
1.47125
1.33768
1.2395
1.17973
1.15301
1.15746
1.18875
1.19104
-1.08855
-1.24226
1.56834
1.47133
1.33775
1.23957
1.1798
1.15308
1.15753
1.18883
1.19113
-1.08861
-1.24228
1.56836
1.47135
1.33776
1.23959
1.17982
1.1531
1.15755
1.18885
1.19116
-1.08863
-1.24229
1.56835
1.47136
1.33779
1.23962
1.17986
1.15314
1.15757
1.18887
1.19116
-1.08864
-1.24223
1.56824
1.47131
1.33777
1.2396
1.17983
1.15311
1.15755
1.18883
1.1911
-1.0886
-1.23931
1.56461
1.46767
1.33415
1.23598
1.17621
1.14949
1.15392
1.18519
1.18752
-1.0857
-1.13078
1.44443
1.3443
1.21126
1.11352
1.05404
1.02749
1.03199
1.06326
1.06887
-0.977885
1.13078
-1.13078
-1.10293
-1.04506
-1.00154
-0.975425
-0.965326
-0.970344
-0.987399
-0.977885
0.977885
1.10825
-1.10825
-1.0943
-1.04749
-1.00922
-0.984989
-0.975367
-0.979145
-0.991948
-0.976856
0.976856
-1.10825
1.39878
1.32887
1.21852
1.13036
1.07381
1.04835
1.05151
1.07555
1.07025
-0.976856
-1.21665
1.5188
1.45194
1.34119
1.25264
1.19582
1.17021
1.17332
1.19737
1.18878
-1.08461
-1.21958
1.52242
1.4556
1.34483
1.25628
1.19946
1.17385
1.17697
1.20103
1.19236
-1.08752
-1.21964
1.52253
1.45568
1.3449
1.25635
1.19953
1.17392
1.17703
1.2011
1.19245
-1.08758
-1.21966
1.52255
1.4557
1.34491
1.25636
1.19954
1.17393
1.17705
1.20112
1.19246
-1.08759
-1.21966
1.52254
1.45571
1.34493
1.25638
1.19957
1.17395
1.17707
1.20113
1.19247
-1.08759
-1.2196
1.52244
1.45565
1.34489
1.25635
1.19953
1.17392
1.17703
1.20108
1.1924
-1.08755
-1.21668
1.51881
1.45199
1.34125
1.25272
1.19591
1.17029
1.17339
1.19743
1.18882
-1.08465
-1.1082
1.39856
1.3287
1.21839
1.13024
1.0737
1.04824
1.05139
1.07541
1.07009
-0.976822
1.1082
-1.1082
-1.09427
-1.04746
-1.0092
-0.984975
-0.975352
-0.979125
-0.99192
-0.976822
0.976822
1.08837
-1.08837
-1.08474
-1.04757
-1.0151
-0.993491
-0.984362
-0.986542
-0.995557
-0.976477
0.976477
-1.08837
1.35662
1.30997
1.22018
1.1434
1.09168
1.06746
1.06829
1.08547
1.07218
-0.976477
-1.19673
1.47663
1.43295
1.34281
1.2657
1.21374
1.18938
1.19017
1.20736
1.19077
-1.08424
-1.19964
1.48024
1.43661
1.34646
1.26934
1.21738
1.19302
1.19381
1.21102
1.19435
-1.08714
-1.19971
1.48034
1.43669
1.34653
1.26941
1.21744
1.19309
1.19388
1.21109
1.19443
-1.0872
-1.19972
1.48036
1.43671
1.34654
1.26942
1.21745
1.1931
1.19389
1.2111
1.19444
-1.0872
-1.19972
1.48035
1.43671
1.34655
1.26943
1.21747
1.19312
1.19391
1.21111
1.19445
-1.08721
-1.19966
1.48026
1.43665
1.3465
1.2694
1.21743
1.19308
1.19386
1.21106
1.19438
-1.08716
-1.19675
1.47664
1.43299
1.34286
1.26576
1.2138
1.18944
1.19023
1.20741
1.19081
-1.08427
-1.08831
1.35641
1.30979
1.22002
1.14326
1.09155
1.06733
1.06815
1.08532
1.07203
-0.97643
1.08831
-1.08831
-1.08469
-1.04753
-1.01507
-0.993458
-0.984327
-0.986504
-0.995512
-0.97643
0.97643
1.07124
-1.07124
-1.07525
-1.04614
-1.01932
-1.0006
-0.992035
-0.992679
-0.998578
-0.976649
0.976649
-1.07124
1.319
1.29011
1.21806
1.15295
1.10705
1.08426
1.08257
1.09385
1.07475
-0.976649
-1.17953
1.43895
1.41299
1.34066
1.27527
1.22915
1.20624
1.20452
1.2158
1.19337
-1.08442
-1.18245
1.44256
1.41666
1.34431
1.27891
1.23279
1.20989
1.20817
1.21945
1.19695
-1.08732
-1.18251
1.44265
1.41674
1.34438
1.27898
1.23286
1.20995
1.20823
1.21953
1.19703
-1.08737
-1.18251
1.44267
1.41675
1.34439
1.27899
1.23287
1.20996
1.20824
1.21954
1.19704
-1.08737
-1.18251
1.44267
1.41676
1.3444
1.279
1.23288
1.20998
1.20826
1.21955
1.19704
-1.08738
-1.18246
1.44258
1.41669
1.34435
1.27896
1.23284
1.20994
1.20821
1.21949
1.19698
-1.08733
-1.17955
1.43897
1.41303
1.34071
1.27532
1.22921
1.2063
1.20457
1.21584
1.19341
-1.08444
-1.07117
1.31881
1.28994
1.2179
1.15281
1.10691
1.08413
1.08243
1.0937
1.07459
-0.976599
1.07117
-1.07117
-1.07519
-1.04609
-1.01927
-1.00056
-0.991993
-0.992634
-0.998528
-0.976599
0.976599
1.05667
-1.05667
-1.06637
-1.04382
-1.0221
-1.00624
-0.998333
-0.997719
-1.0012
-0.977244
0.977244
-1.05667
1.28608
1.27075
1.21355
1.15945
1.11963
1.09849
1.0946
1.10112
1.07779
-0.977244
-1.16491
1.40595
1.39353
1.33611
1.28177
1.24177
1.22053
1.2166
1.22312
1.19645
-1.08502
-1.16782
1.40955
1.39719
1.33976
1.28542
1.24542
1.22417
1.22025
1.22677
1.20003
-1.08791
-1.16787
1.40964
1.39727
1.33984
1.28549
1.24548
1.22424
1.22032
1.22685
1.2001
-1.08797
-1.16788
1.40965
1.39729
1.33985
1.2855
1.24549
1.22425
1.22033
1.22686
1.20011
-1.08797
-1.16788
1.40965
1.39729
1.33986
1.28551
1.24551
1.22426
1.22034
1.22687
1.20012
-1.08797
-1.16783
1.40958
1.39723
1.3398
1.28546
1.24546
1.22422
1.2203
1.22681
1.20006
-1.08793
-1.16493
1.40597
1.39357
1.33616
1.28183
1.24183
1.22058
1.21665
1.22316
1.19649
-1.08504
-1.05661
1.2859
1.27058
1.2134
1.15931
1.1195
1.09836
1.09446
1.10098
1.07765
-0.977194
1.05661
-1.05661
-1.06632
-1.04377
-1.02205
-1.0062
-0.998288
-0.997672
-1.00115
-0.977194
0.977194
1.04439
-1.04439
-1.05837
-1.04105
-1.02371
-1.01051
-1.00333
-1.00181
-1.00352
-0.978128
0.978128
-1.04439
1.25762
1.25267
1.20766
1.16339
1.12946
1.11014
1.10462
1.10752
1.08115
-0.978128
-1.15258
1.3774
1.37536
1.33018
1.28572
1.25163
1.23222
1.22666
1.22955
1.19984
-1.0859
-1.15549
1.381
1.37902
1.33383
1.28937
1.25528
1.23587
1.23031
1.2332
1.20341
-1.0888
-1.15554
1.38108
1.3791
1.33391
1.28944
1.25535
1.23594
1.23039
1.23328
1.20348
-1.08885
-1.15555
1.3811
1.37911
1.33392
1.28945
1.25536
1.23595
1.2304
1.23329
1.20349
-1.08886
-1.15555
1.3811
1.37912
1.33393
1.28946
1.25537
1.23596
1.23041
1.2333
1.2035
-1.08886
-1.1555
1.38103
1.37906
1.33387
1.28941
1.25533
1.23592
1.23036
1.23324
1.20345
-1.08882
-1.1526
1.37743
1.3754
1.33023
1.28577
1.25169
1.23228
1.22672
1.2296
1.19988
-1.08593
-1.04433
1.25746
1.25252
1.20751
1.16326
1.12933
1.11001
1.10449
1.10738
1.08101
-0.978081
1.04433
-1.04433
-1.05832
-1.041
-1.02366
-1.01046
-1.00328
-1.00176
-1.00347
-0.978081
0.978081
1.0341
-1.0341
-1.05131
-1.03811
-1.02441
-1.01356
-1.00716
-1.00509
-1.00555
-0.979178
0.979178
-1.0341
1.23323
1.23626
1.20109
1.1653
1.13677
1.11939
1.11285
1.11315
1.08464
-0.979178
-1.14224
1.35292
1.35886
1.32357
1.28762
1.25897
1.24151
1.23493
1.2352
1.20335
-1.08696
-1.14515
1.35651
1.36252
1.32722
1.29127
1.26262
1.24516
1.23858
1.23886
1.20692
-1.08985
-1.1452
1.3566
1.3626
1.3273
1.29134
1.26269
1.24523
1.23865
1.23893
1.20699
-1.0899
-1.14521
1.35661
1.36262
1.32731
1.29135
1.2627
1.24524
1.23867
1.23895
1.207
-1.08991
-1.14521
1.35662
1.36262
1.32732
1.29137
1.26271
1.24525
1.23868
1.23896
1.20701
-1.08991
-1.14516
1.35655
1.36257
1.32727
1.29132
1.26267
1.24521
1.23863
1.2389
1.20696
-1.08987
-1.14226
1.35296
1.35891
1.32362
1.28767
1.25903
1.24157
1.23499
1.23526
1.2034
-1.08698
-1.03405
1.23308
1.23611
1.20095
1.16517
1.13665
1.11927
1.11272
1.11302
1.08451
-0.979134
1.03405
-1.03405
-1.05126
-1.03806
-1.02437
-1.01351
-1.00712
-1.00504
-1.0055
-0.979134
0.979134
1.02551
-1.02551
-1.04515
-1.03516
-1.02444
-1.01561
-1.01001
-1.00766
-1.00731
-0.980284
0.980284
-1.02551
1.21243
1.22163
1.19432
1.16563
1.14192
1.12651
1.11951
1.11805
1.08809
-0.980284
-1.13361
1.33202
1.34416
1.31675
1.28794
1.26413
1.24866
1.24161
1.24013
1.20682
-1.08807
-1.13651
1.33561
1.34782
1.32041
1.2916
1.26778
1.25231
1.24527
1.24379
1.21039
-1.09096
-1.13657
1.33569
1.3479
1.32049
1.29167
1.26785
1.25238
1.24534
1.24386
1.21046
-1.09101
-1.13657
1.3357
1.34791
1.3205
1.29168
1.26786
1.25239
1.24535
1.24388
1.21047
-1.09102
-1.13658
1.33571
1.34792
1.32051
1.2917
1.26788
1.25241
1.24537
1.24389
1.21049
-1.09102
-1.13653
1.33565
1.34786
1.32046
1.29165
1.26783
1.25236
1.24532
1.24384
1.21043
-1.09098
-1.13363
1.33206
1.34421
1.31681
1.288
1.26419
1.24872
1.24167
1.24019
1.20687
-1.08809
-1.02547
1.21229
1.2215
1.19419
1.16551
1.1418
1.1264
1.11939
1.11793
1.08797
-0.980244
1.02547
-1.02547
-1.04511
-1.03512
-1.0244
-1.01557
-1.00996
-1.00762
-1.00727
-0.980244
0.980244
1.01836
-1.01836
-1.03983
-1.03232
-1.02399
-1.01686
-1.01203
-1.00963
-1.0088
-0.981359
0.981359
-1.01836
1.19475
1.20871
1.18763
1.16481
1.14526
1.13181
1.12479
1.12227
1.09136
-0.981359
-1.12642
1.31425
1.33118
1.31002
1.28711
1.26748
1.25397
1.24692
1.24436
1.2101
-1.08915
-1.12932
1.31784
1.33484
1.31368
1.29076
1.27113
1.25762
1.25057
1.24802
1.21367
-1.09204
-1.12938
1.31792
1.33492
1.31376
1.29084
1.27121
1.2577
1.25065
1.24809
1.21375
-1.09209
-1.12938
1.31793
1.33493
1.31377
1.29085
1.27122
1.25771
1.25066
1.24811
1.21376
-1.0921
-1.12939
1.31794
1.33494
1.31378
1.29086
1.27123
1.25772
1.25067
1.24812
1.21377
-1.0921
-1.12934
1.31788
1.33489
1.31373
1.29081
1.27119
1.25768
1.25062
1.24807
1.21372
-1.09206
-1.12644
1.3143
1.33124
1.31008
1.28717
1.26754
1.25403
1.24698
1.24442
1.21017
-1.08917
-1.01832
1.19462
1.20859
1.18751
1.16469
1.14515
1.1317
1.12468
1.12215
1.09125
-0.981323
1.01832
-1.01832
-1.03979
-1.03228
-1.02395
-1.01682
-1.01199
-1.00959
-1.00876
-0.981323
0.981323
1.01239
-1.01239
-1.03524
-1.02964
-1.0232
-1.01749
-1.01339
-1.0111
-1.01001
-0.98234
0.98234
-1.01239
1.17975
1.19738
1.1812
1.16315
1.14718
1.13559
1.12888
1.1258
1.09434
-0.98234
-1.12042
1.29917
1.31979
1.30356
1.28544
1.2694
1.25776
1.25102
1.24791
1.21309
-1.09013
-1.12332
1.30276
1.32345
1.30722
1.2891
1.27305
1.26141
1.25468
1.25157
1.21667
-1.09303
-1.12338
1.30284
1.32353
1.30729
1.28917
1.27313
1.26149
1.25476
1.25164
1.21674
-1.09308
-1.12338
1.30286
1.32354
1.30731
1.28919
1.27314
1.2615
1.25477
1.25166
1.21676
-1.09308
-1.12339
1.30287
1.32355
1.30732
1.2892
1.27315
1.26152
1.25478
1.25167
1.21677
-1.09309
-1.12334
1.30281
1.3235
1.30727
1.28915
1.27311
1.26147
1.25473
1.25162
1.21672
-1.09305
-1.12045
1.29924
1.31985
1.30362
1.28551
1.26946
1.25783
1.25109
1.24798
1.21316
-1.09016
-1.01235
1.17964
1.19727
1.18109
1.16305
1.14707
1.13548
1.12878
1.1257
1.09424
-0.982307
1.01235
-1.01235
-1.0352
-1.0296
-1.02316
-1.01746
-1.01336
-1.01106
-1.00998
-0.982307
0.982307
1.0074
-1.0074
-1.03127
-1.02714
-1.02219
-1.01766
-1.01424
-1.01214
-1.01097
-0.983183
0.983183
-1.0074
1.16702
1.18746
1.17513
1.16094
1.14798
1.13812
1.13196
1.12869
1.09694
-0.983183
-1.1154
1.28638
1.30982
1.29745
1.28321
1.27019
1.2603
1.25411
1.25081
1.21571
-1.09098
-1.1183
1.28997
1.31348
1.30111
1.28687
1.27385
1.26396
1.25776
1.25446
1.21928
-1.09387
-1.11835
1.29005
1.31356
1.30119
1.28695
1.27393
1.26403
1.25784
1.25454
1.21936
-1.09392
-1.11836
1.29007
1.31357
1.3012
1.28696
1.27394
1.26405
1.25786
1.25456
1.21937
-1.09393
-1.11837
1.29008
1.31358
1.30122
1.28698
1.27396
1.26406
1.25787
1.25457
1.21939
-1.09394
-1.11832
1.29002
1.31353
1.30117
1.28693
1.27391
1.26401
1.25782
1.25452
1.21934
-1.0939
-1.11543
1.28645
1.30989
1.29752
1.28328
1.27027
1.26037
1.25418
1.25088
1.21578
-1.09101
-1.00736
1.16692
1.18736
1.17503
1.16085
1.14788
1.13803
1.13186
1.12859
1.09685
-0.983154
1.00736
-1.00736
-1.03124
-1.02711
-1.02216
-1.01763
-1.01421
-1.01211
-1.01094
-0.983154
0.983154
1.00319
-1.00319
-1.02785
-1.02483
-1.02106
-1.01749
-1.01468
-1.01283
-1.01168
-0.983864
0.983864
-1.00319
1.1562
1.17879
1.16946
1.15838
1.14794
1.13967
1.13416
1.13096
1.09913
-0.983864
-1.11117
1.2755
1.3011
1.29175
1.28063
1.27015
1.26185
1.25632
1.25309
1.21791
-1.09166
-1.11408
1.27908
1.30476
1.29541
1.28429
1.27381
1.2655
1.25998
1.25675
1.22148
-1.09455
-1.11413
1.27916
1.30484
1.29549
1.28437
1.27388
1.26558
1.26006
1.25683
1.22156
-1.09461
-1.11413
1.27918
1.30485
1.29551
1.28438
1.2739
1.2656
1.26007
1.25684
1.22157
-1.09461
-1.11414
1.27919
1.30487
1.29552
1.2844
1.27391
1.26561
1.26009
1.25685
1.22159
-1.09462
-1.1141
1.27914
1.30481
1.29547
1.28435
1.27386
1.26556
1.26004
1.25681
1.22154
-1.09458
-1.11121
1.27557
1.30117
1.29183
1.28071
1.27022
1.26192
1.2564
1.25316
1.21799
-1.09169
-1.00316
1.15611
1.1787
1.16937
1.15829
1.14785
1.13958
1.13408
1.13088
1.09905
-0.983838
1.00316
-1.00316
-1.02782
-1.02481
-1.02104
-1.01747
-1.01465
-1.0128
-1.01166
-0.983838
0.983838
0.999631
-0.999631
-1.02488
-1.02272
-1.01987
-1.01709
-1.01481
-1.01323
-1.01217
-0.984374
0.984374
-0.999631
1.14694
1.17119
1.16421
1.15562
1.14728
1.14043
1.13565
1.13267
1.10088
-0.984374
-1.10759
1.26619
1.29346
1.28648
1.27785
1.26948
1.2626
1.25781
1.2548
1.21967
-1.09217
-1.11049
1.26978
1.29712
1.29014
1.28151
1.27314
1.26626
1.26146
1.25846
1.22324
-1.09507
-1.11055
1.26986
1.2972
1.29022
1.28159
1.27322
1.26634
1.26154
1.25854
1.22332
-1.09512
-1.11055
1.26987
1.29722
1.29024
1.28161
1.27323
1.26636
1.26156
1.25856