# vtk DataFile Version 2.0
FlowField
ASCII
DATASET STRUCTURED_GRID
DIMENSIONS 62 47 32 
POINTS 93248 double
0 0 0
0.01 0 0
0.02 0 0
0.03 0 0
0.04 0 0
0.05 0 0
0.06 0 0
0.07 0 0
0.08 0 0
0.09 0 0
0.1 0 0
0.11 0 0
0.12 0 0
0.13 0 0
0.14 0 0
0.15 0 0
0.16 0 0
0.17 0 0
0.18 0 0
0.19 0 0
0.2 0 0
0.21 0 0
0.22 0 0
0.23 0 0
0.24 0 0
0.25 0 0
0.26 0 0
0.27 0 0
0.28 0 0
0.29 0 0
0.3 0 0
0.31 0 0
0.32 0 0
0.33 0 0
0.34 0 0
0.35 0 0
0.36 0 0
0.37 0 0
0.38 0 0
0.39 0 0
0.4 0 0
0.41 0 0
0.42 0 0
0.43 0 0
0.44 0 0
0.45 0 0
0.46 0 0
0.47 0 0
0.48 0 0
0.49 0 0
0.5 0 0
0.51 0 0
0.52 0 0
0.53 0 0
0.54 0 0
0.55 0 0
0.56 0 0
0.57 0 0
0.58 0 0
0.59 0 0
0.6 0 0
0.61 0 0
0 0.01 0
0.01 0.01 0
0.02 0.01 0
0.03 0.01 0
0.04 0.01 0
0.05 0.01 0
0.06 0.01 0
0.07 0.01 0
0.08 0.01 0
0.09 0.01 0
0.1 0.01 0
0.11 0.01 0
0.12 0.01 0
0.13 0.01 0
0.14 0.01 0
0.15 0.01 0
0.16 0.01 0
0.17 0.01 0
0.18 0.01 0
0.19 0.01 0
0.2 0.01 0
0.21 0.01 0
0.22 0.01 0
0.23 0.01 0
0.24 0.01 0
0.25 0.01 0
0.26 0.01 0
0.27 0.01 0
0.28 0.01 0
0.29 0.01 0
0.3 0.01 0
0.31 0.01 0
0.32 0.01 0
0.33 0.01 0
0.34 0.01 0
0.35 0.01 0
0.36 0.01 0
0.37 0.01 0
0.38 0.01 0
0.39 0.01 0
0.4 0.01 0
0.41 0.01 0
0.42 0.01 0
0.43 0.01 0
0.44 0.01 0
0.45 0.01 0
0.46 0.01 0
0.47 0.01 0
0.48 0.01 0
0.49 0.01 0
0.5 0.01 0
0.51 0.01 0
0.52 0.01 0
0.53 0.01 0
0.54 0.01 0
0.55 0.01 0
0.56 0.01 0
0.57 0.01 0
0.58 0.01 0
0.59 0.01 0
0.6 0.01 0
0.61 0.01 0
0 0.02 0
0.01 0.02 0
0.02 0.02 0
0.03 0.02 0
0.04 0.02 0
0.05 0.02 0
0.06 0.02 0
0.07 0.02 0
0.08 0.02 0
0.09 0.02 0
0.1 0.02 0
0.11 0.02 0
0.12 0.02 0
0.13 0.02 0
0.14 0.02 0
0.15 0.02 0
0.16 0.02 0
0.17 0.02 0
0.18 0.02 0
0.19 0.02 0
0.2 0.02 0
0.21 0.02 0
0.22 0.02 0
0.23 0.02 0
0.24 0.02 0
0.25 0.02 0
0.26 0.02 0
0.27 0.02 0
0.28 0.02 0
0.29 0.02 0
0.3 0.02 0
0.31 0.02 0
0.32 0.02 0
0.33 0.02 0
0.34 0.02 0
0.35 0.02 0
0.36 0.02 0
0.37 0.02 0
0.38 0.02 0
0.39 0.02 0
0.4 0.02 0
0.41 0.02 0
0.42 0.02 0
0.43 0.02 0
0.44 0.02 0
0.45 0.02 0
0.46 0.02 0
0.47 0.02 0
0.48 0.02 0
0.49 0.02 0
0.5 0.02 0
0.51 0.02 0
0.52 0.02 0
0.53 0.02 0
0.54 0.02 0
0.55 0.02 0
0.56 0.02 0
0.57 0.02 0
0.58 0.02 0
0.59 0.02 0
0.6 0.02 0
0.61 0.02 0
0 0.03 0
0.01 0.03 0
0.02 0.03 0
0.03 0.03 0
0.04 0.03 0
0.05 0.03 0
0.06 0.03 0
0.07 0.03 0
0.08 0.03 0
0.09 0.03 0
0.1 0.03 0
0.11 0.03 0
0.12 0.03 0
0.13 0.03 0
0.14 0.03 0
0.15 0.03 0
0.16 0.03 0
0.17 0.03 0
0.18 0.03 0
0.19 0.03 0
0.2 0.03 0
0.21 0.03 0
0.22 0.03 0
0.23 0.03 0
0.24 0.03 0
0.25 0.03 0
0.26 0.03 0
0.27 0.03 0
0.28 0.03 0
0.29 0.03 0
0.3 0.03 0
0.31 0.03 0
0.32 0.03 0
0.33 0.03 0
0.34 0.03 0
0.35 0.03 0
0.36 0.03 0
0.37 0.03 0
0.38 0.03 0
0.39 0.03 0
0.4 0.03 0
0.41 0.03 0
0.42 0.03 0
0.43 0.03 0
0.44 0.03 0
0.45 0.03 0
0.46 0.03 0
0.47 0.03 0
0.48 0.03 0
0.49 0.03 0
0.5 0.03 0
0.51 0.03 0
0.52 0.03 0
0.53 0.03 0
0.54 0.03 0
0.55 0.03 0
0.56 0.03 0
0.57 0.03 0
0.58 0.03 0
0.59 0.03 0
0.6 0.03 0
0.61 0.03 0
0 0.04 0
0.01 0.04 0
0.02 0.04 0
0.03 0.04 0
0.04 0.04 0
0.05 0.04 0
0.06 0.04 0
0.07 0.04 0
0.08 0.04 0
0.09 0.04 0
0.1 0.04 0
0.11 0.04 0
0.12 0.04 0
0.13 0.04 0
0.14 0.04 0
0.15 0.04 0
0.16 0.04 0
0.17 0.04 0
0.18 0.04 0
0.19 0.04 0
0.2 0.04 0
0.21 0.04 0
0.22 0.04 0
0.23 0.04 0
0.24 0.04 0
0.25 0.04 0
0.26 0.04 0
0.27 0.04 0
0.28 0.04 0
0.29 0.04 0
0.3 0.04 0
0.31 0.04 0
0.32 0.04 0
0.33 0.04 0
0.34 0.04 0
0.35 0.04 0
0.36 0.04 0
0.37 0.04 0
0.38 0.04 0
0.39 0.04 0
0.4 0.04 0
0.41 0.04 0
0.42 0.04 0
0.43 0.04 0
0.44 0.04 0
0.45 0.04 0
0.46 0.04 0
0.47 0.04 0
0.48 0.04 0
0.49 0.04 0
0.5 0.04 0
0.51 0.04 0
0.52 0.04 0
0.53 0.04 0
0.54 0.04 0
0.55 0.04 0
0.56 0.04 0
0.57 0.04 0
0.58 0.04 0
0.59 0.04 0
0.6 0.04 0
0.61 0.04 0
0 0.05 0
0.01 0.05 0
0.02 0.05 0
0.03 0.05 0
0.04 0.05 0
0.05 0.05 0
0.06 0.05 0
0.07 0.05 0
0.08 0.05 0
0.09 0.05 0
0.1 0.05 0
0.11 0.05 0
0.12 0.05 0
0.13 0.05 0
0.14 0.05 0
0.15 0.05 0
0.16 0.05 0
0.17 0.05 0
0.18 0.05 0
0.19 0.05 0
0.2 0.05 0
0.21 0.05 0
0.22 0.05 0
0.23 0.05 0
0.24 0.05 0
0.25 0.05 0
0.26 0.05 0
0.27 0.05 0
0.28 0.05 0
0.29 0.05 0
0.3 0.05 0
0.31 0.05 0
0.32 0.05 0
0.33 0.05 0
0.34 0.05 0
0.35 0.05 0
0.36 0.05 0
0.37 0.05 0
0.38 0.05 0
0.39 0.05 0
0.4 0.05 0
0.41 0.05 0
0.42 0.05 0
0.43 0.05 0
0.44 0.05 0
0.45 0.05 0
0.46 0.05 0
0.47 0.05 0
0.48 0.05 0
0.49 0.05 0
0.5 0.05 0
0.51 0.05 0
0.52 0.05 0
0.53 0.05 0
0.54 0.05 0
0.55 0.05 0
0.56 0.05 0
0.57 0.05 0
0.58 0.05 0
0.59 0.05 0
0.6 0.05 0
0.61 0.05 0
0 0.06 0
0.01 0.06 0
0.02 0.06 0
0.03 0.06 0
0.04 0.06 0
0.05 0.06 0
0.06 0.06 0
0.07 0.06 0
0.08 0.06 0
0.09 0.06 0
0.1 0.06 0
0.11 0.06 0
0.12 0.06 0
0.13 0.06 0
0.14 0.06 0
0.15 0.06 0
0.16 0.06 0
0.17 0.06 0
0.18 0.06 0
0.19 0.06 0
0.2 0.06 0
0.21 0.06 0
0.22 0.06 0
0.23 0.06 0
0.24 0.06 0
0.25 0.06 0
0.26 0.06 0
0.27 0.06 0
0.28 0.06 0
0.29 0.06 0
0.3 0.06 0
0.31 0.06 0
0.32 0.06 0
0.33 0.06 0
0.34 0.06 0
0.35 0.06 0
0.36 0.06 0
0.37 0.06 0
0.38 0.06 0
0.39 0.06 0
0.4 0.06 0
0.41 0.06 0
0.42 0.06 0
0.43 0.06 0
0.44 0.06 0
0.45 0.06 0
0.46 0.06 0
0.47 0.06 0
0.48 0.06 0
0.49 0.06 0
0.5 0.06 0
0.51 0.06 0
0.52 0.06 0
0.53 0.06 0
0.54 0.06 0
0.55 0.06 0
0.56 0.06 0
0.57 0.06 0
0.58 0.06 0
0.59 0.06 0
0.6 0.06 0
0.61 0.06 0
0 0.07 0
0.01 0.07 0
0.02 0.07 0
0.03 0.07 0
0.04 0.07 0
0.05 0.07 0
0.06 0.07 0
0.07 0.07 0
0.08 0.07 0
0.09 0.07 0
0.1 0.07 0
0.11 0.07 0
0.12 0.07 0
0.13 0.07 0
0.14 0.07 0
0.15 0.07 0
0.16 0.07 0
0.17 0.07 0
0.18 0.07 0
0.19 0.07 0
0.2 0.07 0
0.21 0.07 0
0.22 0.07 0
0.23 0.07 0
0.24 0.07 0
0.25 0.07 0
0.26 0.07 0
0.27 0.07 0
0.28 0.07 0
0.29 0.07 0
0.3 0.07 0
0.31 0.07 0
0.32 0.07 0
0.33 0.07 0
0.34 0.07 0
0.35 0.07 0
0.36 0.07 0
0.37 0.07 0
0.38 0.07 0
0.39 0.07 0
0.4 0.07 0
0.41 0.07 0
0.42 0.07 0
0.43 0.07 0
0.44 0.07 0
0.45 0.07 0
0.46 0.07 0
0.47 0.07 0
0.48 0.07 0
0.49 0.07 0
0.5 0.07 0
0.51 0.07 0
0.52 0.07 0
0.53 0.07 0
0.54 0.07 0
0.55 0.07 0
0.56 0.07 0
0.57 0.07 0
0.58 0.07 0
0.59 0.07 0
0.6 0.07 0
0.61 0.07 0
0 0.08 0
0.01 0.08 0
0.02 0.08 0
0.03 0.08 0
0.04 0.08 0
0.05 0.08 0
0.06 0.08 0
0.07 0.08 0
0.08 0.08 0
0.09 0.08 0
0.1 0.08 0
0.11 0.08 0
0.12 0.08 0
0.13 0.08 0
0.14 0.08 0
0.15 0.08 0
0.16 0.08 0
0.17 0.08 0
0.18 0.08 0
0.19 0.08 0
0.2 0.08 0
0.21 0.08 0
0.22 0.08 0
0.23 0.08 0
0.24 0.08 0
0.25 0.08 0
0.26 0.08 0
0.27 0.08 0
0.28 0.08 0
0.29 0.08 0
0.3 0.08 0
0.31 0.08 0
0.32 0.08 0
0.33 0.08 0
0.34 0.08 0
0.35 0.08 0
0.36 0.08 0
0.37 0.08 0
0.38 0.08 0
0.39 0.08 0
0.4 0.08 0
0.41 0.08 0
0.42 0.08 0
0.43 0.08 0
0.44 0.08 0
0.45 0.08 0
0.46 0.08 0
0.47 0.08 0
0.48 0.08 0
0.49 0.08 0
0.5 0.08 0
0.51 0.08 0
0.52 0.08 0
0.53 0.08 0
0.54 0.08 0
0.55 0.08 0
0.56 0.08 0
0.57 0.08 0
0.58 0.08 0
0.59 0.08 0
0.6 0.08 0
0.61 0.08 0
0 0.09 0
0.01 0.09 0
0.02 0.09 0
0.03 0.09 0
0.04 0.09 0
0.05 0.09 0
0.06 0.09 0
0.07 0.09 0
0.08 0.09 0
0.09 0.09 0
0.1 0.09 0
0.11 0.09 0
0.12 0.09 0
0.13 0.09 0
0.14 0.09 0
0.15 0.09 0
0.16 0.09 0
0.17 0.09 0
0.18 0.09 0
0.19 0.09 0
0.2 0.09 0
0.21 0.09 0
0.22 0.09 0
0.23 0.09 0
0.24 0.09 0
0.25 0.09 0
0.26 0.09 0
0.27 0.09 0
0.28 0.09 0
0.29 0.09 0
0.3 0.09 0
0.31 0.09 0
0.32 0.09 0
0.33 0.09 0
0.34 0.09 0
0.35 0.09 0
0.36 0.09 0
0.37 0.09 0
0.38 0.09 0
0.39 0.09 0
0.4 0.09 0
0.41 0.09 0
0.42 0.09 0
0.43 0.09 0
0.44 0.09 0
0.45 0.09 0
0.46 0.09 0
0.47 0.09 0
0.48 0.09 0
0.49 0.09 0
0.5 0.09 0
0.51 0.09 0
0.52 0.09 0
0.53 0.09 0
0.54 0.09 0
0.55 0.09 0
0.56 0.09 0
0.57 0.09 0
0.58 0.09 0
0.59 0.09 0
0.6 0.09 0
0.61 0.09 0
0 0.1 0
0.01 0.1 0
0.02 0.1 0
0.03 0.1 0
0.04 0.1 0
0.05 0.1 0
0.06 0.1 0
0.07 0.1 0
0.08 0.1 0
0.09 0.1 0
0.1 0.1 0
0.11 0.1 0
0.12 0.1 0
0.13 0.1 0
0.14 0.1 0
0.15 0.1 0
0.16 0.1 0
0.17 0.1 0
0.18 0.1 0
0.19 0.1 0
0.2 0.1 0
0.21 0.1 0
0.22 0.1 0
0.23 0.1 0
0.24 0.1 0
0.25 0.1 0
0.26 0.1 0
0.27 0.1 0
0.28 0.1 0
0.29 0.1 0
0.3 0.1 0
0.31 0.1 0
0.32 0.1 0
0.33 0.1 0
0.34 0.1 0
0.35 0.1 0
0.36 0.1 0
0.37 0.1 0
0.38 0.1 0
0.39 0.1 0
0.4 0.1 0
0.41 0.1 0
0.42 0.1 0
0.43 0.1 0
0.44 0.1 0
0.45 0.1 0
0.46 0.1 0
0.47 0.1 0
0.48 0.1 0
0.49 0.1 0
0.5 0.1 0
0.51 0.1 0
0.52 0.1 0
0.53 0.1 0
0.54 0.1 0
0.55 0.1 0
0.56 0.1 0
0.57 0.1 0
0.58 0.1 0
0.59 0.1 0
0.6 0.1 0
0.61 0.1 0
0 0.11 0
0.01 0.11 0
0.02 0.11 0
0.03 0.11 0
0.04 0.11 0
0.05 0.11 0
0.06 0.11 0
0.07 0.11 0
0.08 0.11 0
0.09 0.11 0
0.1 0.11 0
0.11 0.11 0
0.12 0.11 0
0.13 0.11 0
0.14 0.11 0
0.15 0.11 0
0.16 0.11 0
0.17 0.11 0
0.18 0.11 0
0.19 0.11 0
0.2 0.11 0
0.21 0.11 0
0.22 0.11 0
0.23 0.11 0
0.24 0.11 0
0.25 0.11 0
0.26 0.11 0
0.27 0.11 0
0.28 0.11 0
0.29 0.11 0
0.3 0.11 0
0.31 0.11 0
0.32 0.11 0
0.33 0.11 0
0.34 0.11 0
0.35 0.11 0
0.36 0.11 0
0.37 0.11 0
0.38 0.11 0
0.39 0.11 0
0.4 0.11 0
0.41 0.11 0
0.42 0.11 0
0.43 0.11 0
0.44 0.11 0
0.45 0.11 0
0.46 0.11 0
0.47 0.11 0
0.48 0.11 0
0.49 0.11 0
0.5 0.11 0
0.51 0.11 0
0.52 0.11 0
0.53 0.11 0
0.54 0.11 0
0.55 0.11 0
0.56 0.11 0
0.57 0.11 0
0.58 0.11 0
0.59 0.11 0
0.6 0.11 0
0.61 0.11 0
0 0.12 0
0.01 0.12 0
0.02 0.12 0
0.03 0.12 0
0.04 0.12 0
0.05 0.12 0
0.06 0.12 0
0.07 0.12 0
0.08 0.12 0
0.09 0.12 0
0.1 0.12 0
0.11 0.12 0
0.12 0.12 0
0.13 0.12 0
0.14 0.12 0
0.15 0.12 0
0.16 0.12 0
0.17 0.12 0
0.18 0.12 0
0.19 0.12 0
0.2 0.12 0
0.21 0.12 0
0.22 0.12 0
0.23 0.12 0
0.24 0.12 0
0.25 0.12 0
0.26 0.12 0
0.27 0.12 0
0.28 0.12 0
0.29 0.12 0
0.3 0.12 0
0.31 0.12 0
0.32 0.12 0
0.33 0.12 0
0.34 0.12 0
0.35 0.12 0
0.36 0.12 0
0.37 0.12 0
0.38 0.12 0
0.39 0.12 0
0.4 0.12 0
0.41 0.12 0
0.42 0.12 0
0.43 0.12 0
0.44 0.12 0
0.45 0.12 0
0.46 0.12 0
0.47 0.12 0
0.48 0.12 0
0.49 0.12 0
0.5 0.12 0
0.51 0.12 0
0.52 0.12 0
0.53 0.12 0
0.54 0.12 0
0.55 0.12 0
0.56 0.12 0
0.57 0.12 0
0.58 0.12 0
0.59 0.12 0
0.6 0.12 0
0.61 0.12 0
0 0.13 0
0.01 0.13 0
0.02 0.13 0
0.03 0.13 0
0.04 0.13 0
0.05 0.13 0
0.06 0.13 0
0.07 0.13 0
0.08 0.13 0
0.09 0.13 0
0.1 0.13 0
0.11 0.13 0
0.12 0.13 0
0.13 0.13 0
0.14 0.13 0
0.15 0.13 0
0.16 0.13 0
0.17 0.13 0
0.18 0.13 0
0.19 0.13 0
0.2 0.13 0
0.21 0.13 0
0.22 0.13 0
0.23 0.13 0
0.24 0.13 0
0.25 0.13 0
0.26 0.13 0
0.27 0.13 0
0.28 0.13 0
0.29 0.13 0
0.3 0.13 0
0.31 0.13 0
0.32 0.13 0
0.33 0.13 0
0.34 0.13 0
0.35 0.13 0
0.36 0.13 0
0.37 0.13 0
0.38 0.13 0
0.39 0.13 0
0.4 0.13 0
0.41 0.13 0
0.42 0.13 0
0.43 0.13 0
0.44 0.13 0
0.45 0.13 0
0.46 0.13 0
0.47 0.13 0
0.48 0.13 0
[...]
POINT_DATA 93248

SCALARS w double
LOOKUP_TABLE default
0
0
0
0
0
0
0
0
0
0
0
0
0
-0.0505536
0
0
0
0
0
0
0
0
0
0
0
0
-0.103819
0
0
0
0
0
-0.0990014
0
0
0
0
0
0
0
0
0
0
0
0
0
-0.091324
0
0
0
0
0
0
0
0
0
0
0
0
0
0
0
0
-0.0192767
-0.0362536
-0.0479889
-0.054616
-0.0576623
-0.0591594
-0.0599707
-0.0601214
-0.0600111
-0.0597186
-0.0591433
-0.0582183
-0.0582483
-0.0586246
-0.0590571
-0.0594171
-0.0598946
-0.0603542
-0.0602555
-0.0560297
-0.0555762
-0.056777
-0.0568467
-0.0568462
-0.0568096
-0.0567242
-0.0566018
-0.0564551
-0.0562844
-0.056063
-0.0557149
-0.0551846
-0.0552504
-0.0552834
-0.0547007
-0.0538311
-0.054334
-0.0560501
-0.0613406
-0.0529797
-0.0548445
-0.0567113
-0.0577981
-0.0594298
-0.10811
-0.0561509
-0.055662
-0.0557231
-0.0565012
-0.0572456
-0.0581216
-0.0568447
-0.0586487
-0.107893
-0.0583585
-0.0558271
-0.0546284
-0.0551513
-0.0546632
-0.0528188
0
0
-0.0223726
-0.0508934
-0.0671344
-0.0786537
-0.0863356
-0.0940793
-0.099115
-0.10198
-0.103271
-0.103666
-0.103241
-0.101952
-0.102484
-0.103105
-0.103747
-0.104275
-0.105174
-0.106257
-0.108046
-0.0994909
-0.0997822
-0.118521
-0.10145
-0.100938
-0.100761
-0.100607
-0.10042
-0.100201
-0.0999542
-0.0996669
-0.0992437
-0.0983274
-0.098596
-0.0987671
-0.0977907
-0.0974834
-0.0963903
-0.0960125
-0.103447
-0.100708
-0.101051
-0.101702
-0.102201
-0.103746
-0.105867
-0.103975
-0.101213
-0.100442
-0.100748
-0.101286
-0.108554
-0.101483
-0.102655
-0.104751
-0.10308
-0.102021
-0.0991084
-0.0985259
-0.0964015
-0.091694
0
0
-0.0221759
-0.0506072
-0.0687555
-0.0822459
-0.0576623
-0.100253
-0.108388
-0.113415
-0.116259
-0.117874
-0.117795
-0.119046
-0.118371
-0.118031
-0.117949
-0.118312
-0.119411
-0.119857
-0.120761
-0.119492
-0.117397
-0.116938
-0.116034
-0.115507
-0.115186
-0.114934
-0.114692
-0.114446
-0.114202
-0.114
-0.113978
-0.114489
-0.115132
-0.113995
-0.111571
-0.111229
-0.110792
-0.110939
-0.114229
-0.114783
-0.115353
-0.116137
-0.115545
-0.116673
-0.11808
-0.115991
-0.114837
-0.114077
-0.114982
-0.115061
-0.115282
-0.115173
-0.115688
-0.116378
-0.116304
-0.116242
-0.115926
-0.113592
-0.110189
-0.104103
0
0
-0.0217233
-0.0494359
-0.0494276
-0.08248
-0.0935583
-0.103593
-0.111034
-0.116134
-0.11922
-0.120774
-0.121095
-0.121356
-0.12109
-0.120827
-0.120641
-0.120433
-0.119767
-0.120465
-0.121358
-0.120769
-0.120012
-0.119391
-0.118787
-0.118304
-0.117924
-0.117605
-0.117316
-0.117043
-0.116791
-0.116579
-0.116452
-0.116412
-0.115971
-0.115731
-0.114729
-0.114295
-0.114065
-0.113036
-0.115498
-0.116387
-0.117019
-0.117499
-0.117444
-0.117877
-0.118416
-0.117962
-0.117058
-0.116518
-0.116778
-0.116868
-0.116937
-0.117016
-0.117264
-0.117564
-0.11776
-0.117856
-0.11757
-0.115952
-0.112529
-0.106136
0
0
-0.0215548
-0.0492959
-0.0685028
-0.0838578
-0.0954826
-0.104769
-0.111714
-0.11649
-0.119439
-0.12083
-0.121126
-0.120967
-0.120618
-0.120266
-0.118752
-0.119658
-0.119293
-0.11934
-0.119622
-0.119401
-0.118991
-0.118521
-0.118043
-0.117602
-0.117209
-0.116861
-0.116544
-0.116253
-0.115986
-0.115742
-0.115496
-0.115132
-0.114414
-0.114295
-0.11409
-0.113937
-0.113875
-0.113982
-0.11449
-0.115005
-0.115427
-0.115719
-0.115818
-0.115982
-0.116261
-0.116817
-0.115704
-0.115296
-0.115323
-0.115401
-0.115487
-0.115619
-0.115825
-0.116046
-0.116223
-0.116262
-0.11587
-0.114402
-0.111003
-0.104903
0
0
-0.0214676
-0.0491766
-0.0689989
-0.0842072
-0.0959702
-0.10518
-0.11174
-0.11612
-0.11896
-0.120253
-0.120459
-0.120142
-0.119687
-0.119222
-0.118704
-0.118081
-0.118101
-0.114902
-0.118162
-0.118067
-0.11771
-0.117266
-0.116805
-0.11636
-0.11595
-0.115594
-0.115264
-0.114962
-0.114692
-0.114447
-0.114185
-0.113741
-0.112546
-0.112955
-0.113072
-0.113032
-0.11299
-0.113036
-0.11321
-0.113436
-0.113649
-0.113801
-0.113834
-0.113766
-0.113392
-0.112298
-0.112853
-0.113234
-0.113457
-0.113588
-0.113698
-0.113871
-0.114145
-0.114396
-0.114544
-0.114476
-0.113809
-0.111676
-0.107128
-0.102299
0
0
-0.0213981
-0.0490213
-0.0689148
-0.0841247
-0.0959761
-0.10547
-0.11148
-0.116235
-0.118824
-0.119827
-0.119821
-0.119316
-0.118788
-0.118201
-0.117352
-0.115961
-0.117078
-0.117575
-0.117625
-0.117304
-0.116809
-0.116288
-0.115783
-0.115304
-0.114857
-0.11452
-0.114182
-0.113873
-0.113615
-0.113416
-0.113292
-0.113412
-0.114388
-0.113508
-0.112831
-0.112416
-0.112196
-0.112114
-0.11213
-0.112198
-0.112283
-0.112353
-0.112303
-0.112206
-0.111934
-0.111495
-0.111643
-0.111876
-0.112036
-0.112116
-0.112188
-0.112391
-0.112846
-0.113205
-0.113361
-0.113225
-0.112236
-0.108307
-0.0546632
-0.099774
0
0
-0.0213356
-0.0488592
-0.0687046
-0.0838764
-0.0956773
-0.104875
-0.111346
-0.115821
-0.118301
-0.119206
-0.119067
-0.118198
-0.117872
-0.117329
-0.116116
-0.112773
-0.110615
-0.117614
-0.117351
-0.116789
-0.116099
-0.115518
-0.114986
-0.114474
-0.113956
-0.113705
-0.113341
-0.113021
-0.112785
-0.112646
-0.11256
-0.112595
-0.112825
-0.112477
-0.112026
-0.111665
-0.111433
-0.111309
-0.11126
-0.111255
-0.11127
-0.111282
-0.111247
-0.11118
-0.111056
-0.110917
-0.110927
-0.11099
-0.111017
-0.110973
-0.110916
-0.111089
-0.111968
-0.112506
-0.112704
-0.112705
-0.112407
-0.111091
-0.105406
-0.100641
0
0
-0.0212805
-0.0487102
-0.0684858
-0.0836002
-0.0953433
-0.104417
-0.111016
-0.115403
-0.117799
-0.11862
-0.11829
-0.101952
-0.116861
-0.116861
-0.116195
-0.11491
-0.11597
-0.116572
-0.116478
-0.116015
-0.115306
-0.114844
-0.114349
-0.113826
-0.113272
-0.11293
-0.112587
-0.112292
-0.112106
-0.112079
-0.111997
-0.11188
-0.11174
-0.111469
-0.111164
-0.110901
-0.110715
-0.110604
-0.110542
-0.110512
-0.110498
-0.11049
-0.110472
-0.110443
-0.110401
-0.110361
-0.110346
-0.110329
-0.110253
-0.110064
-0.10977
-0.108638
-0.111527
-0.112202
-0.112345
-0.112334
-0.112134
-0.111087
-0.107447
-0.100932
0
0
-0.0212343
-0.0485842
-0.0682938
-0.0833442
-0.095049
-0.104084
-0.110695
-0.11505
-0.117406
-0.118227
-0.11806
-0.117203
-0.117088
-0.116874
-0.11654
-0.116028
-0.116025
-0.115989
-0.11574
-0.115358
-0.115131
-0.114531
-0.113919
-0.113306
-0.111277
-0.112259
-0.111914
-0.111611
-0.111466
-0.111645
-0.111599
-0.111321
-0.110979
-0.110667
-0.110408
-0.110205
-0.110064
-0.109979
-0.109927
-0.109893
-0.109874
-0.109864
-0.109863
-0.109865
-0.109865
-0.109863
-0.109854
-0.109817
-0.1097
-0.10943
-0.108967
-0.108638
-0.111705
-0.112074
-0.112046
-0.111981
-0.111773
-0.11079
-0.107611
-0.100926
0
0
-0.0211981
-0.0484861
-0.0681455
-0.0831299
-0.0948341
-0.10386
-0.110461
-0.11479
-0.117121
-0.117951
-0.117891
-0.117464
-0.117134
-0.116904
-0.11686
-0.116458
-0.116052
-0.115648
-0.115198
-0.114697
-0.114425
-0.113939
-0.113394
-0.112825
-0.112223
-0.111734
-0.111267
-0.110867
-0.110611
-0.110682
-0.111326
-0.11059
-0.110113
-0.109848
-0.109681
-0.109557
-0.109466
-0.109408
-0.109371
-0.109345
-0.109328
-0.109319
-0.109346
-0.109381
-0.109413
-0.109438
-0.109452
-0.10944
-0.109368
-0.109192
-0.108988
-0.109155
-0.11071
-0.111336
-0.111517
-0.111563
-0.111419
-0.110496
-0.107442
-0.100799
0
0
-0.0211715
-0.0484185
-0.0680679
-0.0831602
-0.0948084
-0.103779
-0.110334
-0.114622
-0.116919
-0.117735
-0.117709
-0.11736
-0.117004
-0.116786
-0.117102
-0.116401
-0.115768
-0.115211
-0.11467
-0.114173
-0.113782
-0.113352
-0.112872
-0.112343
-0.111765
-0.111159
-0.110527
-0.10992
-0.109304
-0.108834
-0.107648
-0.108197
-0.108627
-0.108847
-0.10893
-0.108934
-0.108904
-0.108868
-0.108841
-0.108825
-0.108806
-0.108755
-0.108862
-0.108953
-0.109023
-0.10908
-0.109129
-0.109173
-0.109197
-0.109141
-0.109133
-0.109394
-0.110119
-0.110646
-0.110953
-0.111136
-0.111098
-0.110241
-0.107249
-0.100645
0
0
-0.0211509
-0.048365
-0.0679911
-0.0830516
-0.0946905
-0.103652
-0.110196
-0.114465
-0.116743
-0.117541
-0.117527
-0.117181
-0.11676
-0.116238
-0.115097
-0.115013
-0.114854
-0.11452
-0.114016
-0.113597
-0.113242
-0.112867
-0.112428
-0.111905
-0.111277
-0.110517
-0.109597
-0.108517
-0.106877
-0.106828
-0.10687
-0.107347
-0.107822
-0.108149
-0.108325
-0.108385
-0.108384
-0.108333
-0.108299
-0.108293
-0.108256
-0.105934
-0.10836
-0.108562
-0.108682
-0.108772
-0.108857
-0.108964
-0.10911
-0.109092
-0.109153
-0.109391
-0.109807
-0.110192
-0.110521
-0.110794
-0.110868
-0.110041
-0.107081
-0.100496
0
0
-0.0211355
-0.0483261
-0.0679394
-0.0838764
-0.0946132
-0.103538
-0.110065
-0.114323
-0.116598
-0.11743
-0.117399
-0.117039
-0.116602
-0.116105
-0.115436
-0.115048
-0.114698
-0.11422
-0.11344
-0.113104
-0.11286
-0.112547
-0.112124
-0.111569
-0.110842
-0.109838
-0.108343
-0.105821
-0.0989168
-0.102106
-0.104589
-0.106117
-0.107032
-0.107551
-0.107802
-0.107878
-0.108269
-0.10774
-0.107655
-0.107684
-0.107764
-0.107818
-0.108047
-0.108237
-0.108383
-0.108496
-0.108596
-0.108727
-0.108999
-0.10891
-0.109012
-0.109277
-0.109668
-0.109939
-0.110251
-0.110578
-0.111676
-0.109909
-0.106945
-0.100357
0
0
-0.0211252
-0.0483015
-0.0678785
-0.082875
-0.0944761
-0.103419
-0.109946
-0.114198
-0.116466
-0.117283
-0.117264
-0.116915
-0.116497
-0.116067
-0.115609
-0.115194
-0.114769
-0.114199
-0.112964
-0.112991
-0.112853
-0.112517
-0.112029
-0.111395
-0.110548
-0.109271
-0.106839
-0.0998885
0.0489778
-0.0920719
-0.101145
-0.104728
-0.106333
-0.107069
-0.107352
-0.107357
-0.107186
-0.10688
-0.106594
-0.106722
-0.107033
-0.107359
-0.107667
-0.107917
-0.10811
-0.108242
-0.108316
-0.108293
-0.108084
-0.108375
-0.108709
-0.10913
-0.111527
-0.109843
-0.110126
-0.110391
-0.110535
-0.109757
-0.106827
-0.100225
0
0
-0.0211213
-0.0483119
-0.0678504
-0.0827784
-0.094374
-0.103323
-0.10985
-0.114097
-0.11636
-0.117174
-0.117167
-0.116831
-0.116427
-0.116031
-0.115641
-0.11526
-0.114904
-0.114704
-0.115271
-0.114395
-0.113557
-0.112822
-0.112124
-0.111381
-0.110487
-0.109255
-0.107273
-0.103563
-0.0962812
-0.100352
-0.103616
-0.105513
-0.106515
-0.106965
-0.107058
-0.106846
-0.106316
-0.105381
-0.104013
-0.104663
-0.105692
-0.106544
-0.107152
-0.107569
-0.107856
-0.108025
-0.108113
-0.108116
-0.108015
-0.108069
-0.108421
-0.108865
-0.109354
-0.109723
-0.11028
-0.110323
-0.110414
-0.109664
-0.106734
-0.100078
0
0
-0.0211076
-0.0483482
-0.0677866
-0.0826541
-0.0942424
-0.10324
-0.10978
-0.114025
-0.116285
-0.117109
-0.117133
-0.116805
-0.116389
-0.115982
-0.115602
-0.115237
-0.114892
-0.114631
-0.114562
-0.114071
-0.113435
-0.112773
-0.112098
-0.11138
-0.110563
-0.109561
-0.108254
-0.106435
-0.104584
-0.104999
-0.105866
-0.106545
-0.106915
-0.106999
-0.106855
-0.106331
-0.105121
-0.102274
-0.0953219
-0.0997447
-0.10327
-0.105356
-0.106532
-0.107208
-0.107627
-0.107842
-0.107968
-0.107999
-0.107889
-0.107681
-0.108164
-0.108672
-0.109141
-0.109786
-0.11776
-0.110385
-0.110429
-0.109628
-0.106651
-0.0998964
0
0
-0.0210127
-0.0478686
-0.0673839
-0.0823238
-0.0940196
-0.104084
-0.109794
-0.114005
-0.116249
-0.11709
-0.117199
-0.116852
-0.116364
-0.115885
-0.115493
-0.115139
-0.114784
-0.11443
-0.114103
-0.113678
-0.113174
-0.11262
-0.112026
-0.111386
-0.110684
-0.109911
-0.109089
-0.107842
-0.106807
-0.106783
-0.107038
-0.10722
-0.107223
-0.107026
-0.106754
-0.105944
-0.103834
-0.0965922
0.054264
-0.0902313
-0.100372
-0.104314
-0.10607
-0.106932
-0.107373
-0.107681
-0.107878
-0.107985
-0.107919
-0.107391
-0.108194
-0.108665
-0.109014
-0.109422
-0.109975
-0.109841
-0.110447
-0.109574
-0.106554
-0.0993127
0
0
-0.0210032
-0.0479172
-0.0673449
-0.0821707
-0.0938913
-0.103248
-0.109823
-0.113997
-0.116204
-0.117074
-0.117414
-0.116937
-0.116249
-0.11561
-0.115252
-0.114965
-0.114633
-0.114215
-0.113834
-0.113441
-0.113006
-0.112521
-0.11199
-0.111416
-0.110798
-0.110142
-0.109448
-0.108658
-0.107465
-0.107715
-0.107819
-0.107739
-0.107488
-0.107054
-0.106867
-0.106066
-0.104427
-0.100889
-0.0935001
-0.098463
-0.102697
-0.10499
-0.106241
-0.106942
-0.107352
-0.107638
-0.107872
-0.108146
-0.108649
-0.109715
-0.10915
-0.108932
-0.10898
-0.109191
-0.109495
-0.109754
-0.11009
-0.109362
-0.106395
-0.0996393
0
0
-0.0210134
-0.0479732
-0.0673638
-0.0820247
-0.0938371
-0.103538
-0.109813
-0.113842
-0.115989
-0.116864
-0.117622
-0.116682
-0.11572
-0.114874
-0.114818
-0.114743
-0.114489
-0.113976
-0.113653
-0.113336
-0.112956
-0.112511
-0.112015
-0.111475
-0.110892
-0.110255
-0.109498
-0.109484
-0.110224
-0.109464
-0.108806
-0.108275
-0.107795
-0.10732
-0.106957
-0.106377
-0.105469
-0.104162
-0.102771
-0.103588
-0.104909
-0.105934
-0.106641
-0.107098
-0.107406
-0.107639
-0.107852
-0.108116
-0.108513
-0.109015
-0.108955
-0.108853
-0.108873
-0.109047
-0.109364
-0.109706
-0.109902
-0.10921
-0.106309
-0.0996877
0
0
-0.0210248
-0.048022
-0.0674931
-0.082605
-0.0939404
-0.102002
-0.108704
-0.113128
-0.115448
-0.116059
-0.114916
-0.114837
-0.114421
-0.11355
-0.114394
-0.114636
-0.114492
-0.113804
-0.113702
-0.113448
-0.113061
-0.112602
-0.112105
-0.11157
-0.110973
-0.110165
-0.100863
-0.109253
-0.109669
-0.109399
-0.108909
-0.108381
-0.107856
-0.107361
-0.107007
-0.106644
-0.106224
-0.105796
-0.105556
-0.105757
-0.106188
-0.106642
-0.107073
-0.107304
-0.10749
-0.107652
-0.107809
-0.108006
-0.10827
-0.108554
-0.108672
-0.108669
-0.108708
-0.108897
-0.109316
-0.109692
-0.109849
-0.109158
-0.106266
-0.0996955
0
0
-0.0210281
-0.048033
-0.0674912
-0.0824293
-0.0938805
-0.102462
-0.108916
-0.113188
-0.115441
-0.116082
-0.115629
-0.115164
-0.114499
-0.113532
-0.114362
-0.114787
-0.114903
-0.115206
-0.114577
-0.113917
-0.113311
-0.112757
-0.112243
-0.11171
-0.111138
-0.110498
-0.109699
-0.109641
-0.10954
-0.10924
-0.108799
-0.108257
-0.107618
-0.106887
-0.106716
-0.106617
-0.106555
-0.106501
-0.106519
-0.106638
-0.10684
-0.107123
-0.109381
-0.107534
-0.10757
-0.10767
-0.107759
-0.107895
-0.108105
-0.108377
-0.108564
-0.108533
-0.108525
-0.108694
-0.109334
-0.109728
-0.109886
-0.109209
-0.10627
-0.0996835
0
0
-0.021027
-0.0480291
-0.0674698
-0.0823466
-0.0938665
-0.102696
-0.10919
-0.113425
-0.115668
-0.116315
-0.116211
-0.115862
-0.115668
-0.116668
-0.116154
-0.115676
-0.115309
-0.115015
-0.114485
-0.11389
-0.113316
-0.112805
-0.112378
-0.111868
-0.111313
-0.110766
-0.110273
-0.109951
-0.10961
-0.109209
-0.108707
-0.108017
-0.106905
-0.104687
-0.105544
-0.10597
-0.106459
-0.10673
-0.106892
-0.107027
-0.107173
-0.107346
-0.107547
-0.107571
-0.107574
-0.107686
-0.107707
-0.10779
-0.107987
-0.108362
-0.108655
-0.108489
-0.108378
-0.108422
-0.109441
-0.109777
-0.109975
-0.109387
-0.106323
-0.0996577
0
0
-0.0210254
-0.0480252
-0.0674593
-0.0823283
-0.0938888
-0.102824
-0.109461
-0.113675
-0.115873
-0.109038
-0.116529
-0.116287
-0.116101
-0.116226
-0.115988
-0.115645
-0.115383
-0.114847
-0.114287
-0.113734
-0.113217
-0.112794
-0.112566
-0.112018
-0.111418
-0.110887
-0.110455
-0.110125
-0.109695
-0.109246
-0.108694
-0.10777
-0.105484
-0.0552834
-0.102881
-0.0989228
-0.106085
-0.106773
-0.107071
-0.107238
-0.107378
-0.107515
-0.107597
-0.107616
-0.107614
-0.107628
-0.107627
-0.107665
-0.107831
-0.108422
-0.108927
-0.108527
-0.108403
-0.108557
-0.109156
-0.10962
-0.110004
-0.109705
-0.106372
-0.0995836
0
0
-0.0210251
-0.0480256
-0.0674598
-0.0823332
-0.0939204
-0.102934
-0.114465
-0.114019
-0.116177
-0.116838
-0.116857
-0.11652
-0.116184
-0.115959
-0.115707
-0.115508
-0.120368
-0.114869
-0.114169
-0.1136
-0.113093
-0.1127
-0.112733
-0.111934
-0.111289
-0.11081
-0.110444
-0.110176
-0.109762
-0.109352
-0.108929
-0.108089
-0.106717
-0.104172
-0.105331
-0.105968
-0.106674
-0.107063
-0.107268
-0.107405
-0.107549
-0.107715
-0.10772
-0.107665
-0.107614
-0.107579
-0.107548
-0.107517
-0.107538
-0.108366
-0.109167
-0.108323
-0.108335
-0.108545
-0.108924
-0.109329
-0.109728
-0.109865
-0.10615
-0.0993923
0
0
-0.0210269
-0.0480318
-0.0674681
-0.0823419
-0.0939302
-0.102933
-0.109689
-0.114088
-0.11637
-0.117099
-0.11698
-0.116558
-0.116139
-0.115793
-0.115482
-0.115202
-0.115041
-0.114507
-0.113983
-0.113467
-0.112929
-0.112288
-0.111101
-0.110936
-0.110746
-0.110552
-0.110311
-0.10996
-0.109721
-0.109501
-0.11256
-0.108654
-0.107825
-0.107081
-0.107037
-0.107129
-0.107276
-0.107383
-0.107455
-0.107533
-0.107688
-0.107971
-0.107838
-0.107676
-0.107577
-0.107523
-0.107487
-0.107447
-0.107395
-0.107347
-0.106617
-0.107841
-0.108185
-0.108436
-0.108698
-0.108856
-0.1085
-0.106704
-0.105013
-0.0990788
0
0
-0.0210324
-0.0480481
-0.0674876
-0.082354
-0.0939278
-0.10291
-0.109623
-0.114381
-0.1166
-0.117192
-0.116966
-0.116485
-0.116026
-0.115639
-0.115283
-0.114931
-0.114639
-0.114294
-0.113886
-0.113416
-0.112888
-0.112872
-0.111539
-0.111066
-0.110686
-0.110555
-0.11039
-0.110133
-0.109868
-0.109602
-0.109375
-0.108871
-0.108393
-0.108018
-0.107813
-0.107705
-0.107646
-0.107605
-0.107574
-0.107571
-0.107675
-0.108138
-0.107733
-0.107537
-0.107465
-0.107438
-0.107424
-0.107409
-0.107381
-0.107321
-0.107192
-0.107683
-0.108035
-0.108313
-0.108572
-0.108761
-0.108639
-0.10754
-0.1051
-0.0989895
0
0
-0.0210466
-0.0480873
-0.0675332
-0.0823779
-0.093916
-0.102848
-0.10953
-0.114728
-0.11646
-0.1169
-0.116664
-0.11623
-0.115815
-0.115445
-0.115077
-0.114645
-0.11445
-0.114271
-0.113938
-0.113473
-0.112899
-0.112346
-0.111742
-0.111172
-0.110578
-0.110729
-0.110629
-0.110369
-0.110057
-0.109732
-0.109402
-0.109033
-0.108685
-0.108393
-0.108168
-0.107994
-0.107854
-0.107735
-0.107621
-0.10748
-0.107204
-0.10651
-0.106914
-0.107169
-0.107284
-0.10733
-0.107349
-0.107362
-0.107378
-0.107405
-0.107475
-0.107704
-0.107962
-0.108227
-0.108516
-0.108831
-0.110496
-0.108084
-0.10531
-0.0990014
0
0
-0.0210819
-0.0481847
-0.0676454
-0.0824318
-0.0939036
-0.1027
-0.108908
-0.111874
-0.114558
-0.115811
-0.116027
-0.115853
-0.115572
-0.115264
-0.114949
-0.114207
-0.114387
-0.114502
-0.114189
-0.113665
-0.112952
-0.112404
-0.111873
-0.111241
-0.110303
-0.111156
-0.110964
-0.110589
-0.110209
-0.109844
-0.109496
-0.109162
-0.108857
-0.10859
-0.108359
-0.108158
-0.107977
-0.107809
-0.107645
-0.107464
-0.107229
-0.10694
-0.107015
-0.107139
-0.107216
-0.107251
-0.107268
-0.10729
-0.107329
-0.107398
-0.107509
-0.10768
-0.107893
-0.108147
-0.108451
-0.10878
-0.108945
-0.108186
-0.1054
-0.0990217
0
0
-0.0211707
-0.0484499
-0.0679172
-0.0825543
-0.0939606
-0.102708
-0.108945
-0.112684
-0.114934
-0.115912
-0.11605
-0.115837
-0.115535
-0.115234
-0.119658
-0.113343
-0.114665
-0.115153
-0.11466
-0.114012
-0.113082
-0.112666
-0.11218
-0.111645
-0.111118
-0.111132
-0.11092
-0.110589
-0.110231
-0.109882
-0.109551
-0.109244
-0.108967
-0.108719
-0.108489
-0.108269
-0.108057
-0.107851
-0.107647
-0.107448
-0.107272
-0.107165
-0.107169
-0.107196
-0.107199
-0.107184
-0.107172
-0.107182
-0.107226
-0.107308
-0.107431
-0.107594
-0.107796
-0.108045
-0.108361
-0.108705
-0.108838
-0.108152
-0.105432
-0.0990323
0
0
-0.0213875
-0.0493086
-0.0684141
-0.0829065
-0.0941791
-0.102852
-0.109125
-0.113144
-0.115339
-0.116181
-0.116225
-0.115943
-0.115566
-0.115079
-0.114183
-0.111113
-0.115682
-0.115893
-0.115193
-0.114395
-0.114238
-0.113418
-0.112685
-0.112094
-0.111725
-0.11134
-0.110943
-0.110563
-0.110207
-0.109878
-0.109574
-0.109299
-0.109055
-0.108835
-0.108609
-0.108369
-0.108119
-0.107865
-0.107608
-0.10736
-0.107187
-0.10719
-0.107241
-0.10724
-0.107181
-0.107101
-0.107038
-0.107022
-0.107061
-0.107152
-0.107288
-0.107459
-0.10766
-0.107906
-0.108242
-0.108642
-0.108773
-0.108071
-0.105447
-0.0990422
0
0
-0.0217836
-0.0671344
-0.0696079
-0.0833854
-0.0943972
-0.102959
-0.109213
-0.113272
-0.115489
-0.116318
-0.116344
-0.116045
-0.115655
-0.115182
-0.114525
-0.113483
-0.114681
-0.114989
-0.114723
-0.114271
-0.113859
-0.113285
-0.112695
-0.112198
-0.112018
-0.111391
-0.110897
-0.110503
-0.110168
-0.109865
-0.109591
-0.109349
-0.10915
-0.108984
-0.108759
-0.10848
-0.108175
-0.107855
-0.107514
-0.107145
-0.106909
-0.107122
-0.107305
-0.107294
-0.107145
-0.106962
-0.106821
-0.106764
-0.106798
-0.106908
-0.107075
-0.107275
-0.107485
-0.107721
-0.108096
-0.108607
-0.108765
-0.1081
-0.105362
-0.0990413
0
0
-0.0214306
-0.0494276
-0.0684745
-0.0829195
-0.094125
-0.102788
-0.109073
-0.113029
-0.115396
-0.116315
-0.116391
-0.116126
-0.115769
-0.115356
-0.115049
-0.114671
-0.114704
-0.114616
-0.114345
-0.113967
-0.113547
-0.113077
-0.112568
-0.111981
-0.111091
-0.110869
-0.110648
-0.110397
-0.110136
-0.109867
-0.109618
-0.10941
-0.109274
-0.109218
-0.108964
-0.108606
-0.108223
-0.107826