# vtk DataFile Version 2.0
FlowField
ASCII
DATASET STRUCTURED_GRID
DIMENSIONS 62 47 32 
POINTS 93248 double
0 0 0
0.01 0 0
0.02 0 0
0.03 0 0
0.04 0 0
0.05 0 0
0.06 0 0
0.07 0 0
0.08 0 0
0.09 0 0
0.1 0 0
0.11 0 0
0.12 0 0
0.13 0 0
0.14 0 0
0.15 0 0
0.16 0 0
0.17 0 0
0.18 0 0
0.19 0 0
0.2 0 0
0.21 0 0
0.22 0 0
0.23 0 0
0.24 0 0
0.25 0 0
0.26 0 0
0.27 0 0
0.28 0 0
0.29 0 0
0.3 0 0
0.31 0 0
0.32 0 0
0.33 0 0
0.34 0 0
0.35 0 0
0.36 0 0
0.37 0 0
0.38 0 0
0.39 0 0
0.4 0 0
0.41 0 0
0.42 0 0
0.43 0 0
0.44 0 0
0.45 0 0
0.46 0 0
0.47 0 0
0.48 0 0
0.49 0 0
0.5 0 0
0.51 0 0
0.52 0 0
0.53 0 0
0.54 0 0
0.55 0 0
0.56 0 0
0.57 0 0
0.58 0 0
0.59 0 0
0.6 0 0
0.61 0 0
0 0.01 0
0.01 0.01 0
0.02 0.01 0
0.03 0.01 0
0.04 0.01 0
0.05 0.01 0
0.06 0.01 0
0.07 0.01 0
0.08 0.01 0
0.09 0.01 0
0.1 0.01 0
0.11 0.01 0
0.12 0.01 0
0.13 0.01 0
0.14 0.01 0
0.15 0.01 0
0.16 0.01 0
0.17 0.01 0
0.18 0.01 0
0.19 0.01 0
0.2 0.01 0
0.21 0.01 0
0.22 0.01 0
0.23 0.01 0
0.24 0.01 0
0.25 0.01 0
0.26 0.01 0
0.27 0.01 0
0.28 0.01 0
0.29 0.01 0
0.3 0.01 0
0.31 0.01 0
0.32 0.01 0
0.33 0.01 0
0.34 0.01 0
0.35 0.01 0
0.36 0.01 0
0.37 0.01 0
0.38 0.01 0
0.39 0.01 0
0.4 0.01 0
0.41 0.01 0
0.42 0.01 0
0.43 0.01 0
0.44 0.01 0
0.45 0.01 0
0.46 0.01 0
0.47 0.01 0
0.48 0.01 0
0.49 0.01 0
0.5 0.01 0
0.51 0.01 0
0.52 0.01 0
0.53 0.01 0
0.54 0.01 0
0.55 0.01 0
0.56 0.01 0
0.57 0.01 0
0.58 0.01 0
0.59 0.01 0
0.6 0.01 0
0.61 0.01 0
0 0.02 0
0.01 0.02 0
0.02 0.02 0
0.03 0.02 0
0.04 0.02 0
0.05 0.02 0
0.06 0.02 0
0.07 0.02 0
0.08 0.02 0
0.09 0.02 0
0.1 0.02 0
0.11 0.02 0
0.12 0.02 0
0.13 0.02 0
0.14 0.02 0
0.15 0.02 0
0.16 0.02 0
0.17 0.02 0
0.18 0.02 0
0.19 0.02 0
0.2 0.02 0
0.21 0.02 0
0.22 0.02 0
0.23 0.02 0
0.24 0.02 0
0.25 0.02 0
0.26 0.02 0
0.27 0.02 0
0.28 0.02 0
0.29 0.02 0
0.3 0.02 0
0.31 0.02 0
0.32 0.02 0
0.33 0.02 0
0.34 0.02 0
0.35 0.02 0
0.36 0.02 0
0.37 0.02 0
0.38 0.02 0
0.39 0.02 0
0.4 0.02 0
0.41 0.02 0
0.42 0.02 0
0.43 0.02 0
0.44 0.02 0
0.45 0.02 0
0.46 0.02 0
0.47 0.02 0
0.48 0.02 0
0.49 0.02 0
0.5 0.02 0
0.51 0.02 0
0.52 0.02 0
0.53 0.02 0
0.54 0.02 0
0.55 0.02 0
0.56 0.02 0
0.57 0.02 0
0.58 0.02 0
0.59 0.02 0
0.6 0.02 0
0.61 0.02 0
0 0.03 0
0.01 0.03 0
0.02 0.03 0
0.03 0.03 0
0.04 0.03 0
0.05 0.03 0
0.06 0.03 0
0.07 0.03 0
0.08 0.03 0
0.09 0.03 0
0.1 0.03 0
0.11 0.03 0
0.12 0.03 0
0.13 0.03 0
0.14 0.03 0
0.15 0.03 0
0.16 0.03 0
0.17 0.03 0
0.18 0.03 0
0.19 0.03 0
0.2 0.03 0
0.21 0.03 0
0.22 0.03 0
0.23 0.03 0
0.24 0.03 0
0.25 0.03 0
0.26 0.03 0
0.27 0.03 0
0.28 0.03 0
0.29 0.03 0
0.3 0.03 0
0.31 0.03 0
0.32 0.03 0
0.33 0.03 0
0.34 0.03 0
0.35 0.03 0
0.36 0.03 0
0.37 0.03 0
0.38 0.03 0
0.39 0.03 0
0.4 0.03 0
0.41 0.03 0
0.42 0.03 0
0.43 0.03 0
0.44 0.03 0
0.45 0.03 0
0.46 0.03 0
0.47 0.03 0
0.48 0.03 0
0.49 0.03 0
0.5 0.03 0
0.51 0.03 0
0.52 0.03 0
0.53 0.03 0
0.54 0.03 0
0.55 0.03 0
0.56 0.03 0
0.57 0.03 0
0.58 0.03 0
0.59 0.03 0
0.6 0.03 0
0.61 0.03 0
0 0.04 0
0.01 0.04 0
0.02 0.04 0
0.03 0.04 0
0.04 0.04 0
0.05 0.04 0
0.06 0.04 0
0.07 0.04 0
0.08 0.04 0
0.09 0.04 0
0.1 0.04 0
0.11 0.04 0
0.12 0.04 0
0.13 0.04 0
0.14 0.04 0
0.15 0.04 0
0.16 0.04 0
0.17 0.04 0
0.18 0.04 0
0.19 0.04 0
0.2 0.04 0
0.21 0.04 0
0.22 0.04 0
0.23 0.04 0
0.24 0.04 0
0.25 0.04 0
0.26 0.04 0
0.27 0.04 0
0.28 0.04 0
0.29 0.04 0
0.3 0.04 0
0.31 0.04 0
0.32 0.04 0
0.33 0.04 0
0.34 0.04 0
0.35 0.04 0
0.36 0.04 0
0.37 0.04 0
0.38 0.04 0
0.39 0.04 0
0.4 0.04 0
0.41 0.04 0
0.42 0.04 0
0.43 0.04 0
0.44 0.04 0
0.45 0.04 0
0.46 0.04 0
0.47 0.04 0
0.48 0.04 0
0.49 0.04 0
0.5 0.04 0
0.51 0.04 0
0.52 0.04 0
0.53 0.04 0
0.54 0.04 0
0.55 0.04 0
0.56 0.04 0
0.57 0.04 0
0.58 0.04 0
0.59 0.04 0
0.6 0.04 0
0.61 0.04 0
0 0.05 0
0.01 0.05 0
0.02 0.05 0
0.03 0.05 0
0.04 0.05 0
0.05 0.05 0
0.06 0.05 0
0.07 0.05 0
0.08 0.05 0
0.09 0.05 0
0.1 0.05 0
0.11 0.05 0
0.12 0.05 0
0.13 0.05 0
0.14 0.05 0
0.15 0.05 0
0.16 0.05 0
0.17 0.05 0
0.18 0.05 0
0.19 0.05 0
0.2 0.05 0
0.21 0.05 0
0.22 0.05 0
0.23 0.05 0
0.24 0.05 0
0.25 0.05 0
0.26 0.05 0
0.27 0.05 0
0.28 0.05 0
0.29 0.05 0
0.3 0.05 0
0.31 0.05 0
0.32 0.05 0
0.33 0.05 0
0.34 0.05 0
0.35 0.05 0
0.36 0.05 0
0.37 0.05 0
0.38 0.05 0
0.39 0.05 0
0.4 0.05 0
0.41 0.05 0
0.42 0.05 0
0.43 0.05 0
0.44 0.05 0
0.45 0.05 0
0.46 0.05 0
0.47 0.05 0
0.48 0.05 0
0.49 0.05 0
0.5 0.05 0
0.51 0.05 0
0.52 0.05 0
0.53 0.05 0
0.54 0.05 0
0.55 0.05 0
0.56 0.05 0
0.57 0.05 0
0.58 0.05 0
0.59 0.05 0
0.6 0.05 0
0.61 0.05 0
0 0.06 0
0.01 0.06 0
0.02 0.06 0
0.03 0.06 0
0.04 0.06 0
0.05 0.06 0
0.06 0.06 0
0.07 0.06 0
0.08 0.06 0
0.09 0.06 0
0.1 0.06 0
0.11 0.06 0
0.12 0.06 0
0.13 0.06 0
0.14 0.06 0
0.15 0.06 0
0.16 0.06 0
0.17 0.06 0
0.18 0.06 0
0.19 0.06 0
0.2 0.06 0
0.21 0.06 0
0.22 0.06 0
0.23 0.06 0
0.24 0.06 0
0.25 0.06 0
0.26 0.06 0
0.27 0.06 0
0.28 0.06 0
0.29 0.06 0
0.3 0.06 0
0.31 0.06 0
0.32 0.06 0
0.33 0.06 0
0.34 0.06 0
0.35 0.06 0
0.36 0.06 0
0.37 0.06 0
0.38 0.06 0
0.39 0.06 0
0.4 0.06 0
0.41 0.06 0
0.42 0.06 0
0.43 0.06 0
0.44 0.06 0
0.45 0.06 0
0.46 0.06 0
0.47 0.06 0
0.48 0.06 0
0.49 0.06 0
0.5 0.06 0
0.51 0.06 0
0.52 0.06 0
0.53 0.06 0
0.54 0.06 0
0.55 0.06 0
0.56 0.06 0
0.57 0.06 0
0.58 0.06 0
0.59 0.06 0
0.6 0.06 0
0.61 0.06 0
0 0.07 0
0.01 0.07 0
0.02 0.07 0
0.03 0.07 0
0.04 0.07 0
0.05 0.07 0
0.06 0.07 0
0.07 0.07 0
0.08 0.07 0
0.09 0.07 0
0.1 0.07 0
0.11 0.07 0
0.12 0.07 0
0.13 0.07 0
0.14 0.07 0
0.15 0.07 0
0.16 0.07 0
0.17 0.07 0
0.18 0.07 0
0.19 0.07 0
0.2 0.07 0
0.21 0.07 0
0.22 0.07 0
0.23 0.07 0
0.24 0.07 0
0.25 0.07 0
0.26 0.07 0
0.27 0.07 0
0.28 0.07 0
0.29 0.07 0
0.3 0.07 0
0.31 0.07 0
0.32 0.07 0
0.33 0.07 0
0.34 0.07 0
0.35 0.07 0
0.36 0.07 0
0.37 0.07 0
0.38 0.07 0
0.39 0.07 0
0.4 0.07 0
0.41 0.07 0
0.42 0.07 0
0.43 0.07 0
0.44 0.07 0
0.45 0.07 0
0.46 0.07 0
0.47 0.07 0
0.48 0.07 0
0.49 0.07 0
0.5 0.07 0
0.51 0.07 0
0.52 0.07 0
0.53 0.07 0
0.54 0.07 0
0.55 0.07 0
0.56 0.07 0
0.57 0.07 0
0.58 0.07 0
0.59 0.07 0
0.6 0.07 0
0.61 0.07 0
0 0.08 0
0.01 0.08 0
0.02 0.08 0
0.03 0.08 0
0.04 0.08 0
0.05 0.08 0
0.06 0.08 0
0.07 0.08 0
0.08 0.08 0
0.09 0.08 0
0.1 0.08 0
0.11 0.08 0
0.12 0.08 0
0.13 0.08 0
0.14 0.08 0
0.15 0.08 0
0.16 0.08 0
0.17 0.08 0
0.18 0.08 0
0.19 0.08 0
0.2 0.08 0
0.21 0.08 0
0.22 0.08 0
0.23 0.08 0
0.24 0.08 0
0.25 0.08 0
0.26 0.08 0
0.27 0.08 0
0.28 0.08 0
0.29 0.08 0
0.3 0.08 0
0.31 0.08 0
0.32 0.08 0
0.33 0.08 0
0.34 0.08 0
0.35 0.08 0
0.36 0.08 0
0.37 0.08 0
0.38 0.08 0
0.39 0.08 0
0.4 0.08 0
0.41 0.08 0
0.42 0.08 0
0.43 0.08 0
0.44 0.08 0
0.45 0.08 0
0.46 0.08 0
0.47 0.08 0
0.48 0.08 0
0.49 0.08 0
0.5 0.08 0
0.51 0.08 0
0.52 0.08 0
0.53 0.08 0
0.54 0.08 0
0.55 0.08 0
0.56 0.08 0
0.57 0.08 0
0.58 0.08 0
0.59 0.08 0
0.6 0.08 0
0.61 0.08 0
0 0.09 0
0.01 0.09 0
0.02 0.09 0
0.03 0.09 0
0.04 0.09 0
0.05 0.09 0
0.06 0.09 0
0.07 0.09 0
0.08 0.09 0
0.09 0.09 0
0.1 0.09 0
0.11 0.09 0
0.12 0.09 0
0.13 0.09 0
0.14 0.09 0
0.15 0.09 0
0.16 0.09 0
0.17 0.09 0
0.18 0.09 0
0.19 0.09 0
0.2 0.09 0
0.21 0.09 0
0.22 0.09 0
0.23 0.09 0
0.24 0.09 0
0.25 0.09 0
0.26 0.09 0
0.27 0.09 0
0.28 0.09 0
0.29 0.09 0
0.3 0.09 0
0.31 0.09 0
0.32 0.09 0
0.33 0.09 0
0.34 0.09 0
0.35 0.09 0
0.36 0.09 0
0.37 0.09 0
0.38 0.09 0
0.39 0.09 0
0.4 0.09 0
0.41 0.09 0
0.42 0.09 0
0.43 0.09 0
0.44 0.09 0
0.45 0.09 0
0.46 0.09 0
0.47 0.09 0
0.48 0.09 0
0.49 0.09 0
0.5 0.09 0
0.51 0.09 0
0.52 0.09 0
0.53 0.09 0
0.54 0.09 0
0.55 0.09 0
0.56 0.09 0
0.57 0.09 0
0.58 0.09 0
0.59 0.09 0
0.6 0.09 0
0.61 0.09 0
0 0.1 0
0.01 0.1 0
0.02 0.1 0
0.03 0.1 0
0.04 0.1 0
0.05 0.1 0
0.06 0.1 0
0.07 0.1 0
0.08 0.1 0
0.09 0.1 0
0.1 0.1 0
0.11 0.1 0
0.12 0.1 0
0.13 0.1 0
0.14 0.1 0
0.15 0.1 0
0.16 0.1 0
0.17 0.1 0
0.18 0.1 0
0.19 0.1 0
0.2 0.1 0
0.21 0.1 0
0.22 0.1 0
0.23 0.1 0
0.24 0.1 0
0.25 0.1 0
0.26 0.1 0
0.27 0.1 0
0.28 0.1 0
0.29 0.1 0
0.3 0.1 0
0.31 0.1 0
0.32 0.1 0
0.33 0.1 0
0.34 0.1 0
0.35 0.1 0
0.36 0.1 0
0.37 0.1 0
0.38 0.1 0
0.39 0.1 0
0.4 0.1 0
0.41 0.1 0
0.42 0.1 0
0.43 0.1 0
0.44 0.1 0
0.45 0.1 0
0.46 0.1 0
0.47 0.1 0
0.48 0.1 0
0.49 0.1 0
0.5 0.1 0
0.51 0.1 0
0.52 0.1 0
0.53 0.1 0
0.54 0.1 0
0.55 0.1 0
0.56 0.1 0
0.57 0.1 0
0.58 0.1 0
0.59 0.1 0
0.6 0.1 0
0.61 0.1 0
0 0.11 0
0.01 0.11 0
0.02 0.11 0
0.03 0.11 0
0.04 0.11 0
0.05 0.11 0
0.06 0.11 0
0.07 0.11 0
0.08 0.11 0
0.09 0.11 0
0.1 0.11 0
0.11 0.11 0
0.12 0.11 0
0.13 0.11 0
0.14 0.11 0
0.15 0.11 0
0.16 0.11 0
0.17 0.11 0
0.18 0.11 0
0.19 0.11 0
0.2 0.11 0
0.21 0.11 0
0.22 0.11 0
0.23 0.11 0
0.24 0.11 0
0.25 0.11 0
0.26 0.11 0
0.27 0.11 0
0.28 0.11 0
0.29 0.11 0
0.3 0.11 0
0.31 0.11 0
0.32 0.11 0
0.33 0.11 0
0.34 0.11 0
0.35 0.11 0
0.36 0.11 0
0.37 0.11 0
0.38 0.11 0
0.39 0.11 0
0.4 0.11 0
0.41 0.11 0
0.42 0.11 0
0.43 0.11 0
0.44 0.11 0
0.45 0.11 0
0.46 0.11 0
0.47 0.11 0
0.48 0.11 0
0.49 0.11 0
0.5 0.11 0
0.51 0.11 0
0.52 0.11 0
0.53 0.11 0
0.54 0.11 0
0.55 0.11 0
0.56 0.11 0
0.57 0.11 0
0.58 0.11 0
0.59 0.11 0
0.6 0.11 0
0.61 0.11 0
0 0.12 0
0.01 0.12 0
0.02 0.12 0
0.03 0.12 0
0.04 0.12 0
0.05 0.12 0
0.06 0.12 0
0.07 0.12 0
0.08 0.12 0
0.09 0.12 0
0.1 0.12 0
0.11 0.12 0
0.12 0.12 0
0.13 0.12 0
0.14 0.12 0
0.15 0.12 0
0.16 0.12 0
0.17 0.12 0
0.18 0.12 0
0.19 0.12 0
0.2 0.12 0
0.21 0.12 0
0.22 0.12 0
0.23 0.12 0
0.24 0.12 0
0.25 0.12 0
0.26 0.12 0
0.27 0.12 0
0.28 0.12 0
0.29 0.12 0
0.3 0.12 0
0.31 0.12 0
0.32 0.12 0
0.33 0.12 0
0.34 0.12 0
0.35 0.12 0
0.36 0.12 0
0.37 0.12 0
0.38 0.12 0
0.39 0.12 0
0.4 0.12 0
0.41 0.12 0
0.42 0.12 0
0.43 0.12 0
0.44 0.12 0
0.45 0.12 0
0.46 0.12 0
0.47 0.12 0
0.48 0.12 0
0.49 0.12 0
0.5 0.12 0
0.51 0.12 0
0.52 0.12 0
0.53 0.12 0
0.54 0.12 0
0.55 0.12 0
0.56 0.12 0
0.57 0.12 0
0.58 0.12 0
0.59 0.12 0
0.6 0.12 0
0.61 0.12 0
0 0.13 0
0.01 0.13 0
0.02 0.13 0
0.03 0.13 0
0.04 0.13 0
0.05 0.13 0
0.06 0.13 0
0.07 0.13 0
0.08 0.13 0
0.09 0.13 0
0.1 0.13 0
0.11 0.13 0
0.12 0.13 0
0.13 0.13 0
0.14 0.13 0
0.15 0.13 0
0.16 0.13 0
0.17 0.13 0
0.18 0.13 0
0.19 0.13 0
0.2 0.13 0
0.21 0.13 0
0.22 0.13 0
0.23 0.13 0
0.24 0.13 0
0.25 0.13 0
0.26 0.13 0
0.27 0.13 0
0.28 0.13 0
0.29 0.13 0
0.3 0.13 0
0.31 0.13 0
0.32 0.13 0
0.33 0.13 0
0.34 0.13 0
0.35 0.13 0
0.36 0.13 0
0.37 0.13 0
0.38 0.13 0
0.39 0.13 0
0.4 0.13 0
0.41 0.13 0
0.42 0.13 0
0.43 0.13 0
0.44 0.13 0
0.45 0.13 0
0.46 0.13 0
0.47 0.13 0
0.48 0.13 0
[...]
POINT_DATA 93248

SCALARS w double
LOOKUP_TABLE default
0
0
0
0
0
0
0
0
0
0
0
0
0
-0.0725713
0
0
0
0
0
0
0
0
0
0
0
0
-0.152669
0
0
0
0
0
-0.149106
0
0
0
0
0
0
0
0
0
0
0
0
0
-0.135213
0
0
0
0
0
0
0
0
0
0
0
0
0
0
0
0
-0.019362
-0.0387084
-0.0525273
-0.0606062
-0.0647423
-0.067485
-0.0694827
-0.0707178
-0.0713655
-0.0713668
-0.0705755
-0.0690407
-0.0690058
-0.0695265
-0.0700888
-0.0705236
-0.0710461
-0.071349
-0.0706169
-0.0651552
-0.065007
-0.0669941
-0.0665585
-0.0661524
-0.0658667
-0.0656048
-0.0653316
-0.0650418
-0.0647238
-0.0643265
-0.0637263
-0.0628807
-0.0630373
-0.0631127
-0.0623673
-0.0612945
-0.0622512
-0.0641042
-0.068166
-0.0601803
-0.062266
-0.0646744
-0.0662716
-0.0687025
-0.144718
-0.0643457
-0.063511
-0.0635753
-0.0645464
-0.0655283
-0.0667984
-0.066318
-0.0684924
-0.144933
-0.0674479
-0.0633261
-0.0625409
-0.0629757
-0.0621878
-0.0584625
0
0
-0.0229867
-0.0553275
-0.0751412
-0.0897615
-0.10041
-0.111952
-0.121032
-0.127792
-0.132515
-0.135424
-0.136258
-0.134855
-0.135433
-0.135949
-0.136402
-0.136755
-0.137619
-0.138523
-0.139691
-0.129037
-0.130044
-0.164782
-0.131617
-0.129991
-0.129223
-0.128661
-0.128144
-0.127631
-0.127111
-0.126556
-0.125829
-0.124502
-0.124966
-0.125072
-0.123933
-0.124014
-0.123173
-0.123323
-0.128189
-0.125559
-0.126774
-0.127978
-0.129194
-0.131956
-0.135625
-0.132653
-0.128468
-0.127272
-0.127424
-0.128478
-0.145525
-0.130006
-0.131681
-0.134815
-0.13164
-0.12954
-0.125427
-0.123902
-0.120398
-0.112289
0
0
-0.0228144
-0.0553293
-0.0773447
-0.0944038
-0.0647423
-0.120114
-0.133287
-0.14342
-0.1514
-0.157669
-0.161139
-0.16494
-0.164273
-0.163268
-0.162351
-0.162159
-0.163009
-0.16317
-0.163991
-0.162555
-0.159455
-0.15888
-0.156706
-0.155185
-0.154152
-0.153362
-0.152683
-0.152063
-0.1515
-0.151059
-0.150984
-0.151853
-0.156821
-0.150687
-0.147506
-0.147306
-0.147053
-0.147326
-0.149571
-0.149825
-0.150709
-0.151999
-0.151812
-0.153767
-0.155831
-0.153558
-0.151911
-0.150856
-0.151482
-0.151866
-0.152871
-0.152894
-0.15371
-0.154659
-0.15439
-0.154047
-0.153165
-0.148907
-0.143338
-0.133147
0
0
-0.0223347
-0.0541165
-0.0547731
-0.0952653
-0.110186
-0.124788
-0.137038
-0.147319
-0.155882
-0.162794
-0.167636
-0.171037
-0.171924
-0.171384
-0.169997
-0.169014
-0.167469
-0.167927
-0.168785
-0.167549
-0.166153
-0.164888
-0.163487
-0.162241
-0.161198
-0.160317
-0.159549
-0.158865
-0.158265
-0.157788
-0.157516
-0.157443
-0.156848
-0.156177
-0.154705
-0.154132
-0.153898
-0.153212
-0.154912
-0.155604
-0.15631
-0.157038
-0.157221
-0.15803
-0.158876
-0.158551
-0.157453
-0.156796
-0.156997
-0.157231
-0.157585
-0.157897
-0.158352
-0.15882
-0.159176
-0.159238
-0.158399
-0.155186
-0.14949
-0.138718
0
0
-0.022196
-0.0541733
-0.0776941
-0.0973501
-0.113232
-0.126979
-0.138635
-0.148528
-0.156892
-0.163626
-0.168546
-0.171648
-0.172844
-0.17243
-0.156781
-0.169433
-0.168589
-0.168014
-0.167845
-0.166966
-0.165909
-0.164782
-0.16364
-0.162553
-0.161557
-0.160671
-0.159871
-0.159151
-0.158513
-0.15796
-0.157456
-0.156821
-0.155698
-0.155371
-0.154961
-0.154649
-0.154463
-0.154437
-0.15476
-0.155165
-0.155591
-0.155975
-0.156188
-0.156487
-0.156904
-0.15771
-0.156362
-0.155975
-0.156078
-0.156289
-0.156549
-0.156872
-0.157264
-0.157681
-0.158063
-0.158113
-0.157199
-0.154285
-0.148605
-0.138078
0
0
-0.0221352
-0.0541642
-0.0785328
-0.0981189
-0.114334
-0.128154
-0.139415
-0.148965
-0.157151
-0.163627
-0.168253
-0.171025
-0.172129
-0.171754
-0.170101
-0.168625
-0.167681
-0.162947
-0.166212
-0.1654
-0.164361
-0.163259
-0.162169
-0.161118
-0.160131
-0.159263
-0.158457
-0.157718
-0.15706
-0.15648
-0.155922
-0.155165
-0.153518
-0.153823
-0.153809
-0.153576
-0.153343
-0.153212
-0.153227
-0.153349
-0.153521
-0.153681
-0.153724
-0.153651
-0.153178
-0.151811
-0.152647
-0.153257
-0.15365
-0.153939
-0.154215
-0.154562
-0.155011
-0.155465
-0.155808
-0.155732
-0.15447
-0.150628
-0.143213
-0.134562
0
0
-0.0220761
-0.0540489
-0.0785534
-0.0982088
-0.114636
-0.128976
-0.139521
-0.149395
-0.157404
-0.16354
-0.167729
-0.170021
-0.171017
-0.170606
-0.168988
-0.166489
-0.166345
-0.165961
-0.165239
-0.164185
-0.162973
-0.161796
-0.16067
-0.159586
-0.158547
-0.157746
-0.156934
-0.156178
-0.155525
-0.154995
-0.154613
-0.154605
-0.155746
-0.15444
-0.153327
-0.152579
-0.15209
-0.151791
-0.151634
-0.151581
-0.151593
-0.151627
-0.151515
-0.151374
-0.151026
-0.15052
-0.150786
-0.15119
-0.151522
-0.151778
-0.15203
-0.152404
-0.152994
-0.153535
-0.153884
-0.15373
-0.151995
-0.145452
-0.0621878
-0.130604
0
0
-0.0220114
-0.05388
-0.07834
-0.0979684
-0.114362
-0.128357
-0.139704
-0.149404
-0.15727
-0.163139
-0.166845
-0.168103
-0.169552
-0.169292
-0.167401
-0.162931
-0.150166
-0.165332
-0.164576
-0.163265
-0.161833
-0.160597
-0.159442
-0.158299
-0.157118
-0.156514
-0.15565
-0.154869
-0.154239
-0.153789
-0.153468
-0.15334
-0.153459
-0.152821
-0.152027
-0.15135
-0.150835
-0.150478
-0.150249
-0.150113
-0.150036
-0.149983
-0.149888
-0.149778
-0.149628
-0.149503
-0.149582
-0.149762
-0.149941
-0.150084
-0.150241
-0.150591
-0.151483
-0.152164
-0.152594
-0.152691
-0.151984
-0.149128
-0.139894
-0.131738
0
0
-0.0219471
-0.0537003
-0.0780696
-0.0976234
-0.113944
-0.127793
-0.139434
-0.14917
-0.156962
-0.162611
-0.165619
-0.134855
-0.167283
-0.168096
-0.166968
-0.164647
-0.164488
-0.164352
-0.163497
-0.162262
-0.160731
-0.159615
-0.158475
-0.157292
-0.156066
-0.155252
-0.154438
-0.153703
-0.153149
-0.152848
-0.152538
-0.152179
-0.151771
-0.151212
-0.150617
-0.150088
-0.149632
-0.149294
-0.149062
-0.148906
-0.148801
-0.148725
-0.148658
-0.148602
-0.14856
-0.148554
-0.148605
-0.148688
-0.14876
-0.148782
-0.14877
-0.147787
-0.150474
-0.151275
-0.151732
-0.151936
-0.15151
-0.149333
-0.143367
-0.132215
0
0
-0.0218888
-0.0535344
-0.0778102
-0.0972793
-0.113539
-0.127344
-0.139065
-0.14885
-0.156651
-0.162311
-0.165644
-0.166363
-0.16778
-0.167929
-0.167139
-0.165719
-0.164675
-0.163696
-0.162586
-0.161421
-0.160532
-0.159147
-0.15778
-0.156437
-0.152806
-0.154157
-0.153344
-0.152615
-0.152124
-0.152084
-0.151806
-0.151196
-0.150495
-0.149868
-0.149345
-0.148934
-0.148521
-0.148221
-0.148023
-0.147885
-0.147785
-0.147715
-0.14768
-0.147669
-0.147682
-0.14772
-0.147779
-0.147843
-0.147878
-0.147838
-0.14773
-0.147787
-0.150048
-0.150668
-0.151067
-0.151297
-0.150951
-0.148995
-0.143743
-0.132277
0
0
-0.0218399
-0.053395
-0.0775922
-0.0969841
-0.11321
-0.127004
-0.138749
-0.148565
-0.1564
-0.16214
-0.165769
-0.167529
-0.168227
-0.168053
-0.1675
-0.166132
-0.164645
-0.16321
-0.161819
-0.160497
-0.159415
-0.158177
-0.156904
-0.155629
-0.154331
-0.153283
-0.152305
-0.151463
-0.150843
-0.150637
-0.151137
-0.149899
-0.149035
-0.148488
-0.148099
-0.147799
-0.14755
-0.147242
-0.147094
-0.146987
-0.146901
-0.146835
-0.146844
-0.146882
-0.146937
-0.147008
-0.147093
-0.147186
-0.14726
-0.147274
-0.147323
-0.147704
-0.149045
-0.149845
-0.150379
-0.150699
-0.150429
-0.148577
-0.143501
-0.132104
0
0
-0.0218014
-0.0532877
-0.0774394
-0.0968614
-0.113036
-0.126787
-0.13852
-0.148345
-0.156202
-0.16199
-0.165733
-0.167666
-0.168226
-0.167937
-0.167707
-0.165904
-0.164131
-0.162513
-0.160983
-0.159609
-0.158411
-0.157237
-0.156049
-0.154836
-0.153595
-0.152365
-0.151155
-0.150046
-0.148953
-0.148002
-0.146073
-0.146501
-0.146823
-0.146903
-0.146842
-0.146715
-0.146563
-0.14638
-0.146256
-0.146166
-0.14607
-0.145924
-0.146058
-0.146181
-0.146289
-0.146399
-0.146524
-0.146679
-0.14685
-0.146937
-0.147109
-0.147547
-0.148352
-0.149095
-0.149719
-0.150146
-0.149974
-0.148196
-0.143194
-0.131859
0
0
-0.0217716
-0.053204
-0.0773158
-0.0967172
-0.112848
-0.126582
-0.138315
-0.14815
-0.156023
-0.161828
-0.165596
-0.167518
-0.16794
-0.167174
-0.164979
-0.163982
-0.162855
-0.161509
-0.15998
-0.158685
-0.15756
-0.156468
-0.155335
-0.154125
-0.152806
-0.151344
-0.14972
-0.147959
-0.145441
-0.145021
-0.14475
-0.145079
-0.145456
-0.145695
-0.145781
-0.145754
-0.145676
-0.145529
-0.145426
-0.145351
-0.145198
-0.141095
-0.145235
-0.145533
-0.145713
-0.145866
-0.146032
-0.146257
-0.146565
-0.146642
-0.146851
-0.147283
-0.147905
-0.148553
-0.149195
-0.149702
-0.149645
-0.14789
-0.142922
-0.13161
0
0
-0.0217491
-0.0531421
-0.0772341
-0.0979684
-0.11274
-0.126416
-0.138138
-0.147977
-0.155864
-0.1617
-0.165457
-0.167341
-0.167707
-0.166943
-0.16538
-0.163961
-0.16256
-0.161012
-0.159081
-0.157939
-0.156992
-0.155989
-0.154864
-0.153589
-0.1521
-0.150257
-0.147766
-0.143892
-0.134126
-0.138155
-0.141273
-0.143075
-0.144094
-0.144632
-0.144855
-0.144886
-0.145704
-0.144621
-0.14447
-0.144441
-0.144443
-0.144391
-0.144704
-0.144979
-0.145199
-0.145384
-0.145561
-0.145791
-0.146219
-0.146194
-0.146466
-0.146979
-0.147669
-0.148219
-0.148846
-0.14941
-0.150628
-0.147682
-0.142696
-0.131373
0
0
-0.0217323
-0.053094
-0.0771296
-0.0964552
-0.112532
-0.126242
-0.137974
-0.147822
-0.155713
-0.161543
-0.165303
-0.167181
-0.167549
-0.166861
-0.165569
-0.164105
-0.162599
-0.160945
-0.158478
-0.157847
-0.157038
-0.155968
-0.154722
-0.153302
-0.151602
-0.149303
-0.145359
-0.135004
0.0687969
-0.124061
-0.136232
-0.140894
-0.142907
-0.143785
-0.144078
-0.144024
-0.143767
-0.143332
-0.142939
-0.143022
-0.14333
-0.143687
-0.144077
-0.144427
-0.144718
-0.144934
-0.14507
-0.145067
-0.144811
-0.145314
-0.145933
-0.146701
-0.150474
-0.148089
-0.148685
-0.149162
-0.149169
-0.147455
-0.142502
-0.131145
0
0
-0.0217224
-0.053082
-0.0770611
-0.0962916
-0.112368
-0.12609
-0.137838
-0.147694
-0.155587
-0.16142
-0.165192
-0.167076
-0.167448
-0.16679
-0.165568
-0.164141
-0.162738
-0.161649
-0.161793
-0.159856
-0.158002
-0.156365
-0.15482
-0.153233
-0.151439
-0.149142
-0.145706
-0.139669
-0.128807
-0.134427
-0.139003
-0.141624
-0.142964
-0.143521
-0.143567
-0.143199
-0.14242
-0.14113
-0.139291
-0.140035
-0.141293
-0.14238
-0.143203
-0.143808
-0.144253
-0.144537
-0.144708
-0.144738
-0.144678
-0.144847
-0.145497
-0.146314
-0.147222
-0.147946
-0.148914
-0.149078
-0.148978
-0.147299
-0.142343
-0.130905
0
0
-0.021704
-0.0530856
-0.0769708
-0.0961238
-0.112192
-0.125967
-0.137753
-0.147611
-0.155502
-0.161346
-0.165165
-0.167055
-0.167396
-0.1667
-0.16546
-0.164034
-0.162642
-0.161458
-0.160626
-0.15926
-0.15774
-0.156229
-0.154731
-0.153189
-0.151511
-0.149562
-0.147169
-0.144015
-0.141049
-0.141316
-0.142344
-0.143167
-0.143582
-0.143595
-0.143244
-0.142374
-0.140591
-0.136628
-0.127315
-0.133119
-0.137761
-0.140536
-0.142169
-0.143165
-0.143821
-0.144199
-0.14445
-0.144577
-0.144531
-0.14437
-0.145195
-0.146066
-0.146923
-0.14806
-0.159176
-0.149203
-0.148961
-0.147213
-0.142213
-0.130557
0
0
-0.0216123
-0.052634
-0.07655
-0.095776
-0.111949
-0.127344
-0.137805
-0.147599
-0.15545
-0.161316
-0.165263
-0.167127
-0.167355
-0.166532
-0.165218
-0.163767
-0.162343
-0.161006
-0.159796
-0.158544
-0.157246
-0.155923
-0.15457
-0.153166
-0.151684
-0.150117
-0.148537
-0.146278
-0.144557
-0.144246
-0.144339
-0.144371
-0.144192
-0.143757
-0.143082
-0.141705
-0.13855
-0.128426
0.0725123
-0.120151
-0.133654
-0.138948
-0.141396
-0.142676
-0.143389
-0.143919
-0.144294
-0.144562
-0.14464
-0.144214
-0.145342
-0.146101
-0.146769
-0.147601
-0.148667
-0.148568
-0.14891
-0.147093
-0.142003
-0.130349
0
0
-0.0216005
-0.0526579
-0.0764968
-0.0956
-0.111801
-0.125975
-0.137766
-0.147512
-0.155322
-0.161238
-0.165513
-0.167192
-0.167168
-0.166116
-0.164725
-0.163307
-0.161906
-0.160487
-0.159241
-0.158075
-0.156912
-0.155719
-0.154485
-0.153202
-0.151863
-0.150485
-0.149093
-0.147642
-0.145871
-0.145844
-0.145687
-0.14529
-0.144715
-0.143953
-0.143185
-0.141746
-0.139111
-0.133768
-0.123386
-0.130338
-0.136355
-0.139664
-0.141537
-0.142636
-0.143323
-0.143834
-0.144273
-0.144774
-0.145609
-0.147159
-0.146575
-0.146437
-0.146693
-0.147206
-0.147843
-0.148292
-0.148445
-0.146777
-0.141754
-0.130109
0
0
-0.0216101
-0.0527067
-0.0765012
-0.0954423
-0.111708
-0.126199
-0.137646
-0.147201
-0.154942
-0.160857
-0.16558
-0.166708
-0.166448
-0.165176
-0.163866
-0.162683
-0.161439
-0.159944
-0.158868
-0.157867
-0.156815
-0.1557
-0.154532
-0.153311
-0.152025
-0.15064
-0.149052
-0.148781
-0.149504
-0.14827
-0.147078
-0.146071
-0.14515
-0.144253
-0.143383
-0.142248
-0.14068
-0.138632
-0.1367
-0.137755
-0.139603
-0.141095
-0.142168
-0.142887
-0.143406
-0.143842
-0.144254
-0.144738
-0.145404
-0.14619
-0.146276
-0.146318
-0.146529
-0.146958
-0.147575
-0.148136
-0.148184
-0.146582
-0.141651
-0.130264
0
0
-0.0216225
-0.052752
-0.0766156
-0.0959663
-0.111728
-0.12442
-0.136279
-0.14629
-0.154181
-0.159673
-0.161913
-0.16427
-0.165013
-0.163739
-0.162874
-0.16224
-0.1613
-0.159706
-0.158988
-0.158089
-0.157022
-0.155883
-0.154716
-0.153499
-0.152176
-0.150499
-0.132475
-0.14827
-0.148753
-0.148144
-0.147202
-0.146189
-0.145189
-0.144244
-0.143469
-0.1427
-0.14191
-0.141207
-0.140878
-0.141103
-0.14166
-0.142293
-0.142925
-0.143253
-0.143548
-0.143891
-0.144219
-0.14459
-0.145044
-0.145525
-0.145844
-0.14606
-0.146305
-0.146743
-0.147473
-0.148077
-0.148118
-0.146547
-0.141643
-0.130339
0
0
-0.0216284
-0.0527643
-0.0766116
-0.0957877
-0.111647
-0.124902
-0.136485
-0.146259
-0.153997
-0.159454
-0.162732
-0.164743
-0.165493
-0.163078
-0.163154
-0.162825
-0.162177
-0.161952
-0.160404
-0.158861
-0.157459
-0.156177
-0.154986
-0.153765
-0.152467
-0.15102
-0.149257
-0.148936
-0.148566
-0.147898
-0.147
-0.14594
-0.14474
-0.143431
-0.142961
-0.142629
-0.142425
-0.142304
-0.142325
-0.14247
-0.142728
-0.143129
-0.146882
-0.143651
-0.143666
-0.143971
-0.144193
-0.144451
-0.144804
-0.145249
-0.145642
-0.145895
-0.146083
-0.146487
-0.147462
-0.148095
-0.148175
-0.146653
-0.141687
-0.130363
0
0
-0.0216316
-0.0527664
-0.0765969
-0.0957162
-0.11166
-0.125204
-0.136833
-0.146471
-0.154004
-0.159041
-0.16311
-0.165405
-0.166605
-0.168055
-0.166379
-0.164605
-0.163118
-0.161872
-0.160404
-0.158931
-0.157553
-0.156317
-0.155247
-0.154047
-0.152774
-0.151514
-0.15035
-0.149511
-0.148746
-0.147875
-0.146835
-0.14549
-0.143483
-0.139866
-0.140987
-0.141477
-0.142201
-0.142605
-0.142854
-0.143048
-0.143252
-0.143503
-0.143796
-0.143728
-0.143636
-0.144084
-0.144166
-0.144324
-0.14464
-0.145188
-0.14567
-0.145875
-0.145892
-0.146139
-0.147537
-0.148109
-0.148276
-0.146898
-0.141754
-0.130324
0
0
-0.021636
-0.0527729
-0.0766017
-0.0957249
-0.111738
-0.125452
-0.13738
-0.146803
-0.153913
-0.138287
-0.162588
-0.165607
-0.166747
-0.167059
-0.166082
-0.164694
-0.163392
-0.161774
-0.160235
-0.158795
-0.157474
-0.156341
-0.155543
-0.154258
-0.152927
-0.15172
-0.150677
-0.149779
-0.148934
-0.147954
-0.146791
-0.145002
-0.140997
-0.0631127
-0.136697
-0.128406
-0.141463
-0.142624
-0.143093
-0.143351
-0.14356
-0.14376
-0.143853
-0.143829
-0.143801
-0.143949
-0.144028
-0.144147
-0.144434
-0.145233
-0.146058
-0.145733
-0.145781
-0.146192
-0.147123
-0.147852
-0.148237
-0.147243
-0.141738
-0.13017
0
0
-0.021643
-0.052787
-0.0766225
-0.0957636
-0.111843
-0.125799
-0.14815
-0.14759
-0.154678
-0.159399
-0.163653
-0.165998
-0.166792
-0.16655
-0.165628
-0.164541
-0.168897
-0.1619
-0.160143
-0.158666
-0.157334
-0.156203
-0.155667
-0.154066
-0.152701
-0.151609
-0.150688
-0.149911
-0.149017
-0.148112
-0.147161
-0.145466
-0.142819
-0.138294
-0.14014
-0.141153
-0.142366
-0.143045
-0.143392
-0.143605
-0.143815
-0.144054
-0.144035
-0.143928
-0.143855
-0.143859
-0.143885
-0.143925
-0.144037
-0.14501
-0.146142
-0.145275
-0.145537
-0.146052
-0.146737
-0.147358
-0.147678
-0.147145
-0.141285
-0.129844
0
0
-0.0216528
-0.0528086
-0.0766513
-0.0957953
-0.111867
-0.125725
-0.137947
-0.147688
-0.155287
-0.160746
-0.164411
-0.166327
-0.166823
-0.166346
-0.165322
-0.164128
-0.163086
-0.161472
-0.159944
-0.158516
-0.15712
-0.155601
-0.153336
-0.152661
-0.151998
-0.151307
-0.150559
-0.149678
-0.149002
-0.148409
-0.153468
-0.146494
-0.144866
-0.14347
-0.143246
-0.143307
-0.143502
-0.143652
-0.143741
-0.143828
-0.144019
-0.144396
-0.144169
-0.14393
-0.143805
-0.143769
-0.14377
-0.143771
-0.143727
-0.143561
-0.14254
-0.144479
-0.145234
-0.145819
-0.146366
-0.146633
-0.145867
-0.14277
-0.139702
-0.129433
0
0
-0.0216673
-0.0528428
-0.0766927
-0.0958253
-0.111861
-0.125624
-0.137584
-0.147966
-0.155644
-0.161086
-0.164566
-0.166323
-0.166709
-0.166148
-0.165044
-0.163717
-0.162433
-0.161111
-0.159783
-0.158445
-0.157079
-0.156049
-0.154044
-0.153024
-0.152086
-0.151432
-0.150747
-0.149984
-0.149263
-0.148599
-0.148052
-0.146987
-0.146004
-0.14525
-0.144772
-0.144472
-0.144278
-0.144132
-0.144013
-0.143935
-0.143994
-0.144491
-0.143951
-0.143703
-0.143643
-0.14365
-0.143677
-0.143698
-0.143686
-0.143605
-0.1435
-0.144319
-0.145017
-0.145626
-0.146179
-0.146517
-0.146143
-0.144068
-0.139889
-0.129343
0
0
-0.0216925
-0.0529063
-0.0767688
-0.095873
-0.111854
-0.125524
-0.137392
-0.14821
-0.155379
-0.160653
-0.164165
-0.165996
-0.166442
-0.165907
-0.164775
-0.163334
-0.162158
-0.161038
-0.159839
-0.158541
-0.157153
-0.15584
-0.154535
-0.153361
-0.152203
-0.151796
-0.151143
-0.15036
-0.149571
-0.148814
-0.148081
-0.147305
-0.146585
-0.145981
-0.145485
-0.145078
-0.144738
-0.144445
-0.144173
-0.143873
-0.143383
-0.142346
-0.142858
-0.14323
-0.143425
-0.143533
-0.143605
-0.143668
-0.143735
-0.143828
-0.14402
-0.144446
-0.144965
-0.145533
-0.146137
-0.146685
-0.148577
-0.144929
-0.140264
-0.129411
0
0
-0.0217444
-0.0530457
-0.0769352
-0.095969
-0.111865
-0.125358
-0.136623
-0.144806
-0.153062
-0.159344
-0.163444
-0.165588
-0.1662
-0.165743
-0.164652
-0.162879
-0.162125
-0.161294
-0.160172
-0.158834
-0.157312
-0.156063
-0.154881
-0.153655
-0.152185
-0.15242
-0.151623
-0.150714
-0.149843
-0.149034
-0.148279
-0.147576
-0.146941
-0.146382
-0.145885
-0.145438
-0.145031
-0.144654
-0.144293
-0.143919
-0.143487
-0.143026
-0.143083
-0.143255
-0.143395
-0.14349
-0.143565
-0.143645
-0.143756
-0.143917
-0.144158
-0.144496
-0.144933
-0.14547
-0.146098
-0.146687
-0.146779
-0.145142
-0.140454
-0.129495
0
0
-0.021865
-0.0533974
-0.0773144
-0.0961635
-0.111989
-0.125418
-0.136712
-0.145839
-0.153602
-0.15956
-0.163526
-0.165631
-0.166235
-0.165835
-0.169433
-0.162093
-0.162552
-0.161985
-0.160782
-0.159323
-0.157647
-0.156519
-0.155396
-0.154249
-0.153171
-0.152575
-0.151756
-0.150861
-0.149994
-0.14919
-0.148455
-0.147791
-0.147198
-0.146669
-0.146176
-0.145704
-0.145249
-0.144811
-0.144389
-0.143987
-0.143637
-0.143419
-0.143378
-0.143415
-0.14346
-0.143498
-0.14354
-0.143608
-0.143725
-0.143898
-0.144138
-0.144454
-0.144861
-0.145381
-0.146021
-0.14663
-0.146665
-0.145135
-0.140544
-0.129565
0
0
-0.0221502
-0.0544687
-0.0779653
-0.0966735
-0.112345
-0.125686
-0.137027
-0.146497
-0.154198
-0.159991
-0.163821
-0.165834
-0.166355
-0.165752
-0.164184
-0.160194
-0.163815
-0.162875
-0.161353
-0.159856
-0.158967
-0.157466
-0.156046
-0.154836
-0.153932
-0.152902
-0.151877
-0.150925
-0.150061
-0.149283
-0.148584
-0.147962
-0.147417
-0.146934
-0.146451
-0.145949
-0.14544
-0.144935
-0.144442
-0.143978
-0.143628
-0.143526
-0.143532
-0.143539
-0.143524
-0.1435
-0.143487
-0.143523
-0.143629
-0.143797
-0.144033
-0.144344
-0.144739
-0.145244
-0.145909
-0.146599
-0.146626
-0.145075
-0.140597
-0.129635
0
0
-0.0227156
-0.0751412
-0.0794182
-0.0973473
-0.11271
-0.12592
-0.137221
-0.146716
-0.154421
-0.160184
-0.163983
-0.165982
-0.166495
-0.165891
-0.164555
-0.162636
-0.162877
-0.162212
-0.161055
-0.159802
-0.158645
-0.157372
-0.156115
-0.154989
-0.154255
-0.152955
-0.151841
-0.150905
-0.150082
-0.14935
-0.148696
-0.148122
-0.147643
-0.147243
-0.14676
-0.146201
-0.145616
-0.145029
-0.14444
-0.143841
-0.143413
-0.143507
-0.14363
-0.143625
-0.143531
-0.143413
-0.143309
-0.143292
-0.143388
-0.143562
-0.143821
-0.144163
-0.14457
-0.145064
-0.145776
-0.146634
-0.146681
-0.145166
-0.140538
-0.129713
0
0
-0.02227
-0.0547731
-0.078237
-0.0969219
-0.112511
-0.125814
-0.137103
-0.146457
-0.154272
-0.160111
-0.163971
-0.166037
-0.166622
-0.1661
-0.165237
-0.164023
-0.163069
-0.162007
-0.160828
-0.159614
-0.158416
-0.157234
-0.156045
-0.154764
-0.15306
-0.152299
-0.151586
-0.150845
-0.150103
-0.149435
-0.148822
-0.148294
-0.1479
-0.147653
-0.147118
-0.146444
-0.14576
-0.145096
-0.144425
-0.143555
-0.142912
-0.143521
-0.143787
-0.143663
-0.143359
-0.143026
-0.142758
-0.142664
-0.142759