# vtk DataFile Version 2.0
FlowField
ASCII
DATASET STRUCTURED_GRID
DIMENSIONS 102 11 11 
POINTS 12342 double
0 0 0
0 0 0.2
0 0 0.4
0 0 0.6
0 0 0.8
0 0 1
0 0 1.2
0 0 1.4
0 0 1.6
0 0 1.8
0 0 2
0 0.1 0
0 0.1 0.2
0 0.1 0.4
0 0.1 0.6
0 0.1 0.8
0 0.1 1
0 0.1 1.2
0 0.1 1.4
0 0.1 1.6
0 0.1 1.8
0 0.1 2
0 0.2 0
0 0.2 0.2
0 0.2 0.4
0 0.2 0.6
0 0.2 0.8
0 0.2 1
0 0.2 1.2
0 0.2 1.4
0 0.2 1.6
0 0.2 1.8
0 0.2 2
0 0.3 0
0 0.3 0.2
0 0.3 0.4
0 0.3 0.6
0 0.3 0.8
0 0.3 1
0 0.3 1.2
0 0.3 1.4
0 0.3 1.6
0 0.3 1.8
0 0.3 2
0 0.4 0
0 0.4 0.2
0 0.4 0.4
0 0.4 0.6
0 0.4 0.8
0 0.4 1
0 0.4 1.2
0 0.4 1.4
0 0.4 1.6
0 0.4 1.8
0 0.4 2
0 0.5 0
0 0.5 0.2
0 0.5 0.4
0 0.5 0.6
0 0.5 0.8
0 0.5 1
0 0.5 1.2
0 0.5 1.4
0 0.5 1.6
0 0.5 1.8
0 0.5 2
0 0.6 0
0 0.6 0.2
0 0.6 0.4
0 0.6 0.6
0 0.6 0.8
0 0.6 1
0 0.6 1.2
0 0.6 1.4
0 0.6 1.6
0 0.6 1.8
0 0.6 2
0 0.7 0
0 0.7 0.2
0 0.7 0.4
0 0.7 0.6
0 0.7 0.8
0 0.7 1
0 0.7 1.2
0 0.7 1.4
0 0.7 1.6
0 0.7 1.8
0 0.7 2
0 0.8 0
0 0.8 0.2
0 0.8 0.4
0 0.8 0.6
0 0.8 0.8
0 0.8 1
0 0.8 1.2
0 0.8 1.4
0 0.8 1.6
0 0.8 1.8
0 0.8 2
0 0.9 0
0 0.9 0.2
0 0.9 0.4
0 0.9 0.6
0 0.9 0.8
0 0.9 1
0 0.9 1.2
0 0.9 1.4
0 0.9 1.6
0 0.9 1.8
0 0.9 2
0 1 0
0 1 0.2
0 1 0.4
0 1 0.6
0 1 0.8
0 1 1
0 1 1.2
0 1 1.4
0 1 1.6
0 1 1.8
0 1 2
0.2 0 0
0.2 0 0.2
0.2 0 0.4
0.2 0 0.6
0.2 0 0.8
0.2 0 1
0.2 0 1.2
0.2 0 1.4
0.2 0 1.6
0.2 0 1.8
0.2 0 2
0.2 0.1 0
0.2 0.1 0.2
0.2 0.1 0.4
0.2 0.1 0.6
0.2 0.1 0.8
0.2 0.1 1
0.2 0.1 1.2
0.2 0.1 1.4
0.2 0.1 1.6
0.2 0.1 1.8
0.2 0.1 2
0.2 0.2 0
0.2 0.2 0.2
0.2 0.2 0.4
0.2 0.2 0.6
0.2 0.2 0.8
0.2 0.2 1
0.2 0.2 1.2
0.2 0.2 1.4
0.2 0.2 1.6
0.2 0.2 1.8
0.2 0.2 2
0.2 0.3 0
0.2 0.3 0.2
0.2 0.3 0.4
0.2 0.3 0.6
0.2 0.3 0.8
0.2 0.3 1
0.2 0.3 1.2
0.2 0.3 1.4
0.2 0.3 1.6
0.2 0.3 1.8
0.2 0.3 2
0.2 0.4 0
0.2 0.4 0.2
0.2 0.4 0.4
0.2 0.4 0.6
0.2 0.4 0.8
0.2 0.4 1
0.2 0.4 1.2
0.2 0.4 1.4
0.2 0.4 1.6
0.2 0.4 1.8
0.2 0.4 2
0.2 0.5 0
0.2 0.5 0.2
0.2 0.5 0.4
0.2 0.5 0.6
0.2 0.5 0.8
0.2 0.5 1
0.2 0.5 1.2
0.2 0.5 1.4
0.2 0.5 1.6
0.2 0.5 1.8
0.2 0.5 2
0.2 0.6 0
0.2 0.6 0.2
0.2 0.6 0.4
0.2 0.6 0.6
0.2 0.6 0.8
0.2 0.6 1
0.2 0.6 1.2
0.2 0.6 1.4
0.2 0.6 1.6
0.2 0.6 1.8
0.2 0.6 2
0.2 0.7 0
0.2 0.7 0.2
0.2 0.7 0.4
0.2 0.7 0.6
0.2 0.7 0.8
0.2 0.7 1
0.2 0.7 1.2
0.2 0.7 1.4
0.2 0.7 1.6
0.2 0.7 1.8
0.2 0.7 2
0.2 0.8 0
0.2 0.8 0.2
0.2 0.8 0.4
0.2 0.8 0.6
0.2 0.8 0.8
0.2 0.8 1
0.2 0.8 1.2
0.2 0.8 1.4
0.2 0.8 1.6
0.2 0.8 1.8
0.2 0.8 2
0.2 0.9 0
0.2 0.9 0.2
0.2 0.9 0.4
0.2 0.9 0.6
0.2 0.9 0.8
0.2 0.9 1
0.2 0.9 1.2
0.2 0.9 1.4
0.2 0.9 1.6
0.2 0.9 1.8
0.2 0.9 2
0.2 1 0
0.2 1 0.2
0.2 1 0.4
0.2 1 0.6
0.2 1 0.8
0.2 1 1
0.2 1 1.2
0.2 1 1.4
0.2 1 1.6
0.2 1 1.8
0.2 1 2
0.4 0 0
0.4 0 0.2
0.4 0 0.4
0.4 0 0.6
0.4 0 0.8
0.4 0 1
0.4 0 1.2
0.4 0 1.4
0.4 0 1.6
0.4 0 1.8
0.4 0 2
0.4 0.1 0
0.4 0.1 0.2
0.4 0.1 0.4
0.4 0.1 0.6
0.4 0.1 0.8
0.4 0.1 1
0.4 0.1 1.2
0.4 0.1 1.4
0.4 0.1 1.6
0.4 0.1 1.8
0.4 0.1 2
0.4 0.2 0
0.4 0.2 0.2
0.4 0.2 0.4
0.4 0.2 0.6
0.4 0.2 0.8
0.4 0.2 1
0.4 0.2 1.2
0.4 0.2 1.4
0.4 0.2 1.6
0.4 0.2 1.8
0.4 0.2 2
0.4 0.3 0
0.4 0.3 0.2
0.4 0.3 0.4
0.4 0.3 0.6
0.4 0.3 0.8
0.4 0.3 1
0.4 0.3 1.2
0.4 0.3 1.4
0.4 0.3 1.6
0.4 0.3 1.8
0.4 0.3 2
0.4 0.4 0
0.4 0.4 0.2
0.4 0.4 0.4
0.4 0.4 0.6
0.4 0.4 0.8
0.4 0.4 1
0.4 0.4 1.2
0.4 0.4 1.4
0.4 0.4 1.6
0.4 0.4 1.8
0.4 0.4 2
0.4 0.5 0
0.4 0.5 0.2
0.4 0.5 0.4
0.4 0.5 0.6
0.4 0.5 0.8
0.4 0.5 1
0.4 0.5 1.2
0.4 0.5 1.4
0.4 0.5 1.6
0.4 0.5 1.8
0.4 0.5 2
0.4 0.6 0
0.4 0.6 0.2
0.4 0.6 0.4
0.4 0.6 0.6
0.4 0.6 0.8
0.4 0.6 1
0.4 0.6 1.2
0.4 0.6 1.4
0.4 0.6 1.6
0.4 0.6 1.8
0.4 0.6 2
0.4 0.7 0
0.4 0.7 0.2
0.4 0.7 0.4
0.4 0.7 0.6
0.4 0.7 0.8
0.4 0.7 1
0.4 0.7 1.2
0.4 0.7 1.4
0.4 0.7 1.6
0.4 0.7 1.8
0.4 0.7 2
0.4 0.8 0
0.4 0.8 0.2
0.4 0.8 0.4
0.4 0.8 0.6
0.4 0.8 0.8
0.4 0.8 1
0.4 0.8 1.2
0.4 0.8 1.4
0.4 0.8 1.6
0.4 0.8 1.8
0.4 0.8 2
0.4 0.9 0
0.4 0.9 0.2
0.4 0.9 0.4
0.4 0.9 0.6
0.4 0.9 0.8
0.4 0.9 1
0.4 0.9 1.2
0.4 0.9 1.4
0.4 0.9 1.6
0.4 0.9 1.8
0.4 0.9 2
0.4 1 0
0.4 1 0.2
0.4 1 0.4
0.4 1 0.6
0.4 1 0.8
0.4 1 1
0.4 1 1.2
0.4 1 1.4
0.4 1 1.6
0.4 1 1.8
0.4 1 2
0.6 0 0
0.6 0 0.2
0.6 0 0.4
0.6 0 0.6
0.6 0 0.8
0.6 0 1
0.6 0 1.2
0.6 0 1.4
0.6 0 1.6
0.6 0 1.8
0.6 0 2
0.6 0.1 0
0.6 0.1 0.2
0.6 0.1 0.4
0.6 0.1 0.6
0.6 0.1 0.8
0.6 0.1 1
0.6 0.1 1.2
0.6 0.1 1.4
0.6 0.1 1.6
0.6 0.1 1.8
0.6 0.1 2
0.6 0.2 0
0.6 0.2 0.2
0.6 0.2 0.4
0.6 0.2 0.6
0.6 0.2 0.8
0.6 0.2 1
0.6 0.2 1.2
0.6 0.2 1.4
0.6 0.2 1.6
0.6 0.2 1.8
0.6 0.2 2
0.6 0.3 0
0.6 0.3 0.2
0.6 0.3 0.4
0.6 0.3 0.6
0.6 0.3 0.8
0.6 0.3 1
0.6 0.3 1.2
0.6 0.3 1.4
0.6 0.3 1.6
0.6 0.3 1.8
0.6 0.3 2
0.6 0.4 0
0.6 0.4 0.2
0.6 0.4 0.4
0.6 0.4 0.6
0.6 0.4 0.8
0.6 0.4 1
0.6 0.4 1.2
0.6 0.4 1.4
0.6 0.4 1.6
0.6 0.4 1.8
0.6 0.4 2
0.6 0.5 0
0.6 0.5 0.2
0.6 0.5 0.4
0.6 0.5 0.6
0.6 0.5 0.8
0.6 0.5 1
0.6 0.5 1.2
0.6 0.5 1.4
0.6 0.5 1.6
0.6 0.5 1.8
0.6 0.5 2
0.6 0.6 0
0.6 0.6 0.2
0.6 0.6 0.4
0.6 0.6 0.6
0.6 0.6 0.8
0.6 0.6 1
0.6 0.6 1.2
0.6 0.6 1.4
0.6 0.6 1.6
0.6 0.6 1.8
0.6 0.6 2
0.6 0.7 0
0.6 0.7 0.2
0.6 0.7 0.4
0.6 0.7 0.6
0.6 0.7 0.8
0.6 0.7 1
0.6 0.7 1.2
0.6 0.7 1.4
0.6 0.7 1.6
0.6 0.7 1.8
0.6 0.7 2
0.6 0.8 0
0.6 0.8 0.2
0.6 0.8 0.4
0.6 0.8 0.6
0.6 0.8 0.8
0.6 0.8 1
0.6 0.8 1.2
0.6 0.8 1.4
0.6 0.8 1.6
0.6 0.8 1.8
0.6 0.8 2
0.6 0.9 0
0.6 0.9 0.2
0.6 0.9 0.4
0.6 0.9 0.6
0.6 0.9 0.8
0.6 0.9 1
0.6 0.9 1.2
0.6 0.9 1.4
0.6 0.9 1.6
0.6 0.9 1.8
0.6 0.9 2
0.6 1 0
0.6 1 0.2
0.6 1 0.4
0.6 1 0.6
0.6 1 0.8
0.6 1 1
0.6 1 1.2
0.6 1 1.4
0.6 1 1.6
0.6 1 1.8
0.6 1 2
0.8 0 0
0.8 0 0.2
0.8 0 0.4
0.8 0 0.6
0.8 0 0.8
0.8 0 1
0.8 0 1.2
0.8 0 1.4
0.8 0 1.6
0.8 0 1.8
0.8 0 2
0.8 0.1 0
0.8 0.1 0.2
0.8 0.1 0.4
0.8 0.1 0.6
0.8 0.1 0.8
0.8 0.1 1
0.8 0.1 1.2
0.8 0.1 1.4
0.8 0.1 1.6
0.8 0.1 1.8
0.8 0.1 2
0.8 0.2 0
0.8 0.2 0.2
0.8 0.2 0.4
0.8 0.2 0.6
0.8 0.2 0.8
0.8 0.2 1
0.8 0.2 1.2
0.8 0.2 1.4
0.8 0.2 1.6
0.8 0.2 1.8
0.8 0.2 2
0.8 0.3 0
0.8 0.3 0.2
0.8 0.3 0.4
0.8 0.3 0.6
0.8 0.3 0.8
0.8 0.3 1
0.8 0.3 1.2
0.8 0.3 1.4
0.8 0.3 1.6
0.8 0.3 1.8
0.8 0.3 2
0.8 0.4 0
0.8 0.4 0.2
0.8 0.4 0.4
0.8 0.4 0.6
0.8 0.4 0.8
0.8 0.4 1
0.8 0.4 1.2
0.8 0.4 1.4
0.8 0.4 1.6
0.8 0.4 1.8
0.8 0.4 2
0.8 0.5 0
0.8 0.5 0.2
0.8 0.5 0.4
0.8 0.5 0.6
0.8 0.5 0.8
0.8 0.5 1
0.8 0.5 1.2
0.8 0.5 1.4
0.8 0.5 1.6
0.8 0.5 1.8
0.8 0.5 2
0.8 0.6 0
0.8 0.6 0.2
0.8 0.6 0.4
0.8 0.6 0.6
0.8 0.6 0.8
0.8 0.6 1
0.8 0.6 1.2
0.8 0.6 1.4
0.8 0.6 1.6
0.8 0.6 1.8
0.8 0.6 2
0.8 0.7 0
0.8 0.7 0.2
0.8 0.7 0.4
0.8 0.7 0.6
0.8 0.7 0.8
0.8 0.7 1
0.8 0.7 1.2
0.8 0.7 1.4
0.8 0.7 1.6
0.8 0.7 1.8
0.8 0.7 2
0.8 0.8 0
0.8 0.8 0.2
0.8 0.8 0.4
0.8 0.8 0.6
0.8 0.8 0.8
0.8 0.8 1
0.8 0.8 1.2
0.8 0.8 1.4
0.8 0.8 1.6
0.8 0.8 1.8
0.8 0.8 2
0.8 0.9 0
0.8 0.9 0.2
0.8 0.9 0.4
0.8 0.9 0.6
0.8 0.9 0.8
0.8 0.9 1
0.8 0.9 1.2
0.8 0.9 1.4
0.8 0.9 1.6
0.8 0.9 1.8
0.8 0.9 2
0.8 1 0
0.8 1 0.2
0.8 1 0.4
0.8 1 0.6
0.8 1 0.8
0.8 1 1
0.8 1 1.2
0.8 1 1.4
0.8 1 1.6
0.8 1 1.8
0.8 1 2
1 0 0
1 0 0.2
1 0 0.4
1 0 0.6
1 0 0.8
1 0 1
1 0 1.2
1 0 1.4
1 0 1.6
1 0 1.8
1 0 2
1 0.1 0
1 0.1 0.2
1 0.1 0.4
1 0.1 0.6
1 0.1 0.8
1 0.1 1
1 0.1 1.2
1 0.1 1.4
1 0.1 1.6
1 0.1 1.8
1 0.1 2
1 0.2 0
1 0.2 0.2
1 0.2 0.4
1 0.2 0.6
1 0.2 0.8
1 0.2 1
1 0.2 1.2
1 0.2 1.4
1 0.2 1.6
1 0.2 1.8
1 0.2 2
1 0.3 0
1 0.3 0.2
1 0.3 0.4
1 0.3 0.6
1 0.3 0.8
1 0.3 1
1 0.3 1.2
1 0.3 1.4
1 0.3 1.6
1 0.3 1.8
1 0.3 2
1 0.4 0
1 0.4 0.2
1 0.4 0.4
1 0.4 0.6
1 0.4 0.8
1 0.4 1
1 0.4 1.2
1 0.4 1.4
1 0.4 1.6
1 0.4 1.8
1 0.4 2
1 0.5 0
1 0.5 0.2
1 0.5 0.4
1 0.5 0.6
1 0.5 0.8
1 0.5 1
1 0.5 1.2
1 0.5 1.4
1 0.5 1.6
1 0.5 1.8
1 0.5 2
1 0.6 0
1 0.6 0.2
1 0.6 0.4
1 0.6 0.6
1 0.6 0.8
1 0.6 1
1 0.6 1.2
1 0.6 1.4
1 0.6 1.6
1 0.6 1.8
1 0.6 2
1 0.7 0
1 0.7 0.2
1 0.7 0.4
1 0.7 0.6
1 0.7 0.8
1 0.7 1
1 0.7 1.2
1 0.7 1.4
1 0.7 1.6
1 0.7 1.8
1 0.7 2
1 0.8 0
1 0.8 0.2
1 0.8 0.4
1 0.8 0.6
1 0.8 0.8
1 0.8 1
1 0.8 1.2
1 0.8 1.4
1 0.8 1.6
1 0.8 1.8
1 0.8 2
1 0.9 0
1 0.9 0.2
1 0.9 0.4
1 0.9 0.6
1 0.9 0.8
1 0.9 1
1 0.9 1.2
1 0.9 1.4
1 0.9 1.6
1 0.9 1.8
1 0.9 2
1 1 0
1 1 0.2
1 1 0.4
1 1 0.6
1 1 0.8
1 1 1
1 1 1.2
1 1 1.4
1 1 1.6
1 1 1.8
1 1 2
1.2 0 0
1.2 0 0.2
1.2 0 0.4
1.2 0 0.6
1.2 0 0.8
1.2 0 1
1.2 0 1.2
1.2 0 1.4
1.2 0 1.6
1.2 0 1.8
1.2 0 2
1.2 0.1 0
1.2 0.1 0.2
1.2 0.1 0.4
1.2 0.1 0.6
1.2 0.1 0.8
1.2 0.1 1
1.2 0.1 1.2
1.2 0.1 1.4
1.2 0.1 1.6
1.2 0.1 1.8
1.2 0.1 2
1.2 0.2 0
1.2 0.2 0.2
1.2 0.2 0.4
1.2 0.2 0.6
1.2 0.2 0.8
1.2 0.2 1
1.2 0.2 1.2
1.2 0.2 1.4
1.2 0.2 1.6
1.2 0.2 1.8
1.2 0.2 2
1.2 0.3 0
1.2 0.3 0.2
1.2 0.3 0.4
1.2 0.3 0.6
1.2 0.3 0.8
1.2 0.3 1
1.2 0.3 1.2
1.2 0.3 1.4
1.2 0.3 1.6
1.2 0.3 1.8
1.2 0.3 2
1.2 0.4 0
1.2 0.4 0.2
1.2 0.4 0.4
1.2 0.4 0.6
1.2 0.4 0.8
1.2 0.4 1
1.2 0.4 1.2
1.2 0.4 1.4
1.2 0.4 1.6
1.2 0.4 1.8
1.2 0.4 2
1.2 0.5 0
1.2 0.5 0.2
1.2 0.5 0.4
1.2 0.5 0.6
1.2 0.5 0.8
1.2 0.5 1
1.2 0.5 1.2
1.2 0.5 1.4
1.2 0.5 1.6
1.2 0.5 1.8
1.2 0.5 2
1.2 0.6 0
1.2 0.6 0.2
1.2 0.6 0.4
1.2 0.6 0.6
1.2 0.6 0.8
1.2 0.6 1
1.2 0.6 1.2
1.2 0.6 1.4
1.2 0.6 1.6
1.2 0.6 1.8
1.2 0.6 2
1.2 0.7 0
1.2 0.7 0.2
1.2 0.7 0.4
1.2 0.7 0.6
1.2 0.7 0.8
1.2 0.7 1
1.2 0.7 1.2
1.2 0.7 1.4
1.2 0.7 1.6
1.2 0.7 1.8
1.2 0.7 2
1.2 0.8 0
1.2 0.8 0.2
1.2 0.8 0.4
1.2 0.8 0.6
1.2 0.8 0.8
1.2 0.8 1
1.2 0.8 1.2
1.2 0.8 1.4
1.2 0.8 1.6
1.2 0.8 1.8
1.2 0.8 2
1.2 0.9 0
1.2 0.9 0.2
1.2 0.9 0.4
1.2 0.9 0.6
1.2 0.9 0.8
1.2 0.9 1
1.2 0.9 1.2
1.2 0.9 1.4
1.2 0.9 1.6
1.2 0.9 1.8
1.2 0.9 2
1.2 1 0
1.2 1 0.2
1.2 1 0.4
1.2 1 0.6
1.2 1 0.8
1.2 1 1
1.2 1 1.2
1.2 1 1.4
1.2 1 1.6
1.2 1 1.8
1.2 1 2
1.4 0 0
1.4 0 0.2
1.4 0 0.4
1.4 0 0.6
1.4 0 0.8
1.4 0 1
1.4 0 1.2
1.4 0 1.4
1.4 0 1.6
1.4 0 1.8
1.4 0 2
1.4 0.1 0
1.4 0.1 0.2
1.4 0.1 0.4
1.4 0.1 0.6
1.4 0.1 0.8
1.4 0.1 1
1.4 0.1 1.2
1.4 0.1 1.4
1.4 0.1 1.6
1.4 0.1 1.8
1.4 0.1 2
1.4 0.2 0
1.4 0.2 0.2
1.4 0.2 0.4
1.4 0.2 0.6
1.4 0.2 0.8
1.4 0.2 1
1.4 0.2 1.2
1.4 0.2 1.4
1.4 0.2 1.6
1.4 0.2 1.8
1.4 0.2 2
1.4 0.3 0
1.4 0.3 0.2
1.4 0.3 0.4
1.4 0.3 0.6
1.4 0.3 0.8
1.4 0.3 1
1.4 0.3 1.2
1.4 0.3 1.4
1.4 0.3 1.6
1.4 0.3 1.8
1.4 0.3 2
1.4 0.4 0
1.4 0.4 0.2
1.4 0.4 0.4
1.4 0.4 0.6
1.4 0.4 0.8
1.4 0.4 1
1.4 0.4 1.2
1.4 0.4 1.4
1.4 0.4 1.6
1.4 0.4 1.8
1.4 0.4 2
1.4 0.5 0
1.4 0.5 0.2
1.4 0.5 0.4
1.4 0.5 0.6
1.4 0.5 0.8
1.4 0.5 1
1.4 0.5 1.2
1.4 0.5 1.4
1.4 0.5 1.6
1.4 0.5 1.8
1.4 0.5 2
1.4 0.6 0
1.4 0.6 0.2
1.4 0.6 0.4
1.4 0.6 0.6
1.4 0.6 0.8
1.4 0.6 1
1.4 0.6 1.2
1.4 0.6 1.4
1.4 0.6 1.6
1.4 0.6 1.8
1.4 0.6 2
1.4 0.7 0
1.4 0.7 0.2
1.4 0.7 0.4
1.4 0.7 0.6
1.4 0.7 0.8
1.4 0.7 1
1.4 0.7 1.2
1.4 0.7 1.4
1.4 0.7 1.6
1.4 0.7 1.8
[...]
POINT_DATA 12342

SCALARS v double
LOOKUP_TABLE default
-0
-0.00784494
-0.0722659
-0.0761123
0.0615777
0.0564288
0.0361199
0.0429419
0.0226099
-0.0186586
-0
0
0.00784494
0.0722659
0.0761123
-0.0615777
-0.0564288
-0.0361199
-0.0429419
-0.0226099
0.0186586
0
0
0.0191306
0.0501378
0.0471644
-0.0314021
-0.0295877
-0.0168493
-0.0186076
-0.0073075
0.0204257
0
0
0.0204483
0.0313695
0.0302683
-0.00527476
-0.00371734
0.00310341
0.00333918
0.0080352
0.0213261
0
0
0.0160203
0.0148516
0.0183932
0.0176508
0.0200525
0.0219253
0.0228081
0.0222518
0.0212544
0
0
0.00926138
-0.000938425
0.00871356
0.0406013
0.0437145
0.0408019
0.0420725
0.0367138
0.0208246
0
0
0.00316981
-0.0168563
-0.000191764
0.0667584
0.0694184
0.0610736
0.0631724
0.0527371
0.0206012
0
0
0.000934302
-0.0335699
-0.009232
0.100762
0.100058
0.0845317
0.0887569
0.0720124
0.0212387
0
0
0.00642858
-0.0508103
-0.0207487
0.145928
0.135929
0.110179
0.118901
0.0934668
0.0226627
0
0
0
0
0
0
0
0
0
0
0
0
-0
-0
-0
-0
-0
-0
-0
-0
-0
-0
-0
-0
0.00784494
0.0722659
0.0761123
-0.0615777
-0.0564288
-0.0361199
-0.0429419
-0.0226099
0.0186586
-0
0
0.0916047
0.240369
-0.217925
-0.502309
0.360446
0.233568
0.187984
0.0679946
0.023627
0
0
0.0972341
0.137165
-0.115049
-0.288435
0.226983
0.168461
0.129527
0.058401
0.0252985
0
0
0.0799534
0.0819122
-0.026297
-0.121299
0.124993
0.0981639
0.0734844
0.0423678
0.0276615
0
0
0.0554235
0.046429
0.0549716
0.0206827
0.0409161
0.0295359
0.0208897
0.0242485
0.0308069
0
0
0.0292011
0.0156796
0.137352
0.154403
-0.0412295
-0.0397151
-0.0318281
0.00496935
0.0349217
0
0
0.00378898
-0.0210527
0.227531
0.293989
-0.13676
-0.113278
-0.0878731
-0.0146716
0.0403707
0
0
-0.0167543
-0.077115
0.333623
0.454424
-0.267295
-0.195268
-0.151342
-0.0338007
0.0474505
0
0
-0.0210471
-0.173
0.457932
0.65104
-0.456759
-0.280805
-0.220367
-0.047136
0.056233
0
0
0
0
0
0
0
0
0
0
0
0
-0
-0
-0
-0
-0
-0
-0
-0
-0
-0
-0
-0
0.00829958
0.0588894
0.0816316
-0.0396724
-0.0403134
-0.0209739
-0.0242031
-0.00189393
0.0242038
-0
0
0.0851415
0.251418
-0.160578
-0.519977
0.320104
0.219886
0.164215
0.0467517
0.0211582
0
0
0.0928605
0.141759
-0.10192
-0.282712
0.198691
0.156198
0.118371
0.0483995
0.0229688
0
0
0.0772612
0.082042
-0.027295
-0.116279
0.108753
0.0897161
0.0676195
0.0375518
0.0257776
0
0
0.0544849
0.0456341
0.0500097
0.0165636
0.0324758
0.0239853
0.0166049
0.0214886
0.0292816
0
0
0.0302451
0.0157935
0.129467
0.138626
-0.043552
-0.0426786
-0.0348009
0.00419986
0.0339411
0
0
0.00682312
-0.0199264
0.213543
0.268114
-0.130469
-0.112418
-0.0871593
-0.0110853
0.0405415
0
0
-0.0121593
-0.0772549
0.305366
0.429171
-0.242532
-0.186068
-0.140198
-0.0201333
0.0498657
0
0
-0.0157193
-0.181994
0.401378
0.660524
-0.395318
-0.255373
-0.187602
-0.0150716
0.0619481
0
0
0
0
0
0
0
0
0
0
0
0
-0
-0
-0
-0
-0
-0
-0
-0
-0
-0
-0
-0
0.0111284
0.0531567
0.0704455
-0.0196023
-0.0248282
-0.0108227
-0.011399
0.00799107
0.0244786
-0
0
0.0821719
0.220561
-0.150979
-0.394002
0.236568
0.186683
0.138675
0.0390247
0.0222553
0
0
0.0879944
0.125379
-0.0927954
-0.210966
0.146479
0.131671
0.100823
0.0414528
0.0242323
0
0
0.0744962
0.0752403
-0.025966
-0.0833071
0.0811832
0.0761268
0.0599705
0.03495
0.027103
0
0
0.0550546
0.0464722
0.0426543
0.0172685
0.0260743
0.0217586
0.0182765
0.0238166
0.0307075
0
0
0.0343215
0.0241347
0.113253
0.109853
-0.0284802
-0.0328473
-0.0237702
0.0116007
0.0354366
0
0
0.0138959
-0.003119
0.188235
0.209985
-0.0897163
-0.0891051
-0.0658111
0.00154577
0.0418775
0
0
-0.00373713
-0.0499721
0.271847
0.337798
-0.167306
-0.147443
-0.107098
-0.00248144
0.0505136
0
0
-0.00995257
-0.139731
0.367029
0.520029
-0.275507
-0.203413
-0.144627
0.00467538
0.0610214
0
0
0
0
0
0
0
0
0
0
0
0
-0
-0
-0
-0
-0
-0
-0
-0
-0
-0
-0
-0
0.015178
0.0497762
0.0553854
-0.00737789
-0.0148704
-0.00658079
-0.00579968
0.010352
0.0229839
-0
0
0.077768
0.165686
-0.146673
-0.247158
0.163797
0.155063
0.121133
0.0397949
0.0240891
0
0
0.0800291
0.0963443
-0.0821186
-0.129014
0.10463
0.109341
0.0878123
0.0400693
0.0261878
0
0
0.0690533
0.0628434
-0.0207159
-0.0446259
0.0613495
0.0648775
0.0541998
0.0344886
0.0287171
0
0
0.0543097
0.0462885
0.0382983
0.0222941
0.0249398
0.0221307
0.0207374
0.0258
0.0317308
0
0
0.0386848
0.0348991
0.0980771
0.0843004
-0.0107366
-0.0203671
-0.0127649
0.0164192
0.0356355
0
0
0.0227864
0.0198652
0.162394
0.151713
-0.0504081
-0.0640837
-0.0464109
0.00865475
0.0409381
0
0
0.00777328
-0.010014
0.236969
0.236725
-0.100775
-0.110212
-0.0803151
0.00521879
0.0480782
0
0
-0.00065785
-0.0719785
0.327539
0.352232
-0.172039
-0.157442
-0.113668
0.00953196
0.056966
0
0
0
0
0
0
0
0
0
0
0
0
-0
-0
-0
-0
-0
-0
-0
-0
-0
-0
-0
-0
0.018931
0.0446214
0.0416952
0.000244045
-0.00810479
-0.00428193
-0.00248494
0.0107187
0.0210983
-0
0
0.0703519
0.110463
-0.119919
-0.135171
0.112661
0.129044
0.106663
0.0424604
0.0262504
0
0
0.0700547
0.0685389
-0.0614506
-0.0657794
0.0769064
0.0919024
0.0781198
0.0407653
0.0281765
0
0
0.0621962
0.0512248
-0.0102294
-0.0143324
0.0496569
0.0569494
0.0503982
0.0351423
0.0301451
0
0
0.0526177
0.0456968
0.0369408
0.0271492
0.0263289
0.0238533
0.0233967
0.0275316
0.0323455
0
0
0.0426297
0.0438799
0.0840839
0.0657807
0.00342563
-0.00890709
-0.00348136
0.0195377
0.035205
0
0
0.0320017
0.0397538
0.135095
0.107521
-0.0219392
-0.0428611
-0.0307546
0.0126804
0.0392127
0
0
0.0207915
0.0257885
0.195305
0.158882
-0.0538797
-0.0796013
-0.0590592
0.0087649
0.0448338
0
0
0.0121126
-0.0095136
0.27002
0.225398
-0.0980578
-0.119262
-0.0883658
0.01018
0.0522039
0
0
0
0
0
0
0
0
0
0
0
0
-0
-0
-0
-0
-0
-0
-0
-0
-0
-0
-0
-0
0.0216371
0.0385553
0.0317685
0.00509884
-0.00316676
-0.00230761
7.3652e-05
0.0107197
0.0192836
-0
0
0.0594484
0.0703254
-0.0819715
-0.0642915
0.0811077
0.10833
0.093917
0.0446754
0.0285904
0
0
0.0588828
0.0491505
-0.036714
-0.0247144
0.0603093
0.0788085
0.0702969
0.0416671
0.0301076
0
0
0.0548018
0.0433673
0.00201402
0.00566103
0.043338
0.051563
0.0476985
0.0360242
0.0314381
0
0
0.0504065
0.0450265
0.0370212
0.0305607
0.028229
0.0259635
0.0259147
0.0291214
0.0328364
0
0
0.0459613
0.0491286
0.0716742
0.053805
0.0131928
0.000613809
0.00426941
0.0220201
0.0347179
0
0
0.0407313
0.051972
0.109096
0.0786851
-0.00335315
-0.0258756
-0.0178696
0.0157069
0.0375389
0
0
0.034041
0.0490159
0.15333
0.108654
-0.0236212
-0.0550499
-0.0412426
0.01137
0.0417578
0
0
0.0269667
0.0334225
0.20818
0.146166
-0.0502289
-0.0875256
-0.0659863
0.0106902
0.0476304
0
0
0
0
0
0
0
0
0
0
0
0
-0
-0
-0
-0
-0
-0
-0
-0
-0
-0
-0
-0
0.0232608
0.0327827
0.0253423
0.00809169
0.000486838
-0.000318735
0.00220993
0.0106767
0.0176541
-0
0
0.0517288
0.0432902
-0.0464987
-0.0230119
0.0633883
0.0920968
0.0828316
0.0460847
0.0309894
0
0
0.0508703
0.0364959
-0.0146421
-0.00011936
0.051119
0.0690442
0.0638103
0.0423177
0.0319834
0
0
0.0493856
0.0381834
0.0127744
0.0178709
0.0402184
0.0479056
0.0456406
0.0368417
0.0326899
0
0
0.0485644
0.0440345
0.0374919
0.0327664
0.0300204
0.0280567
0.0281616
0.0305937
0.0333788
0
0
0.047966
0.051341
0.0618272
0.0466669
0.0196943
0.00834899
0.010782
0.024255
0.0344238
0
0
0.0465754
0.0581115
0.0879492
0.061442
0.0084553
-0.0123474
-0.00706745
0.0184535
0.0362239
0
0
0.0432996
0.0619723
0.118565
0.0790415
-0.00477277
-0.035319
-0.0260304
0.0139512
0.0391939
0
0
0.037945
0.059375
0.155948
0.100719
-0.021029
-0.0612266
-0.0462048
0.0118991
0.0436297
0
0
0
0
0
0
0
0
0
0
0
0
-0
-0
-0
-0
-0
-0
-0
-0
-0
-0
-0
-0
0.0239301
0.0279712
0.0213428
0.00984035
0.0031868
0.00163818
0.00398933
0.0106157
0.016231
-0
0
0.0452348
0.0291686
-0.0191347
0.000707633
0.0540663
0.0795104
0.0736391
0.0467452
0.0333089
0
0
0.0448937
0.0303013
0.00226712
0.0143932
0.0463552
0.0617675
0.0585595
0.0426929
0.0337701
0
0
0.0454015
0.0356648
0.0210259
0.0252661
0.0389252
0.0454303
0.0440957
0.0375612
0.0339299
0
0
0.0470198
0.0431351
0.0380423
0.0342889
0.0316485
0.030021
0.0301535
0.031977
0.0340384
0
0
0.0490036
0.0514147
0.0547627
0.0426881
0.0241747
0.0146703
0.01627
0.0263637
0.0344104
0
0
0.0503012
0.059565
0.0725773
0.0515918
0.0161476
-0.00147089
0.001994
0.0211099
0.0353762
0
0
0.049732
0.0665217
0.0931716
0.0621919
0.00708009
-0.0193802
-0.0131734
0.0166901
0.0372856
0
0
0.0465555
0.0706905
0.117742
0.075239
-0.00336342
-0.0395833
-0.0292639
0.0138787
0.0404228
0
0
0
0
0
0
0
0
0
0
0
0
-0
-0
-0
-0
-0
-0
-0
-0
-0
-0
-0
-0
0.0237812
0.0242646
0.0188217
0.0108021
0.00518529
0.00343645
0.00543153
0.0105313
0.0150142
-0
0
0.0400243
0.0238373
-6.28022e-05
0.0147606
0.0493038
0.0698728
0.0661721
0.0471282
0.0353917
0
0
0.0406111
0.0284764
0.0141711
0.023213
0.0440306
0.0563681
0.0543895
0.0430148
0.0354141
0
0
0.0425903
0.0350107
0.0269251
0.029942
0.0386342
0.0437985
0.0429918
0.0382744
0.0351512
0
0
0.0457599
0.0425126
0.03861
0.0355054
0.033173
0.0318519
0.0319569
0.0332989
0.0348271
0
0
0.0493356
0.0504484
0.0500939
0.0406642
0.0275167
0.0199119
0.0209505
0.02833
0.0346982
0
0
0.0523835
0.0584412
0.0622375
0.0461377
0.0215185
0.00737751
0.00964298
0.023592
0.0350276
0
0
0.0538389
0.0661089
0.076056
0.0526986
0.014972
-0.00644639
-0.0023229
0.0193568
0.0360995
0
0
0.0528416
0.072852
0.09212
0.0608401
0.00782297
-0.0219105
-0.014912
0.0161147
0.0381714
0
0
0
0
0
0
0
0
0
0
0
0
-0
-0
-0
-0
-0
-0
-0
-0
-0
-0
-0
-0
0.022979
0.0215137
0.0171519
0.0112903
0.00666269
0.00499268
0.0065764
0.0103924
0.0139932
-0
0
0.0361955
0.0234217
0.0126448
0.0235055
0.0468571
0.0626312
0.0604457
0.0470661
0.0373643
0
0
0.037778
0.0290374
0.0222579
0.0288644
0.0429852
0.052436
0.0512676
0.0432029
0.0369848
0
0
0.040755
0.0354123
0.0310561
0.0331214
0.0388779
0.0428065
0.0423228
0.0389605
0.0363818
0
0
0.0447907
0.0421962
0.0392059
0.036618
0.0346412
0.0335708
0.0336248
0.0346026
0.0357321
0
0
0.0492071
0.0492155
0.047227
0.0398459
0.0302389
0.0243138
0.0249383
0.0302659
0.0352293
0
0
0.0532612
0.0563496
0.0556491
0.0432802
0.0256205
0.0146302
0.0160302
0.0260763
0.0350709
0
0
0.0561015
0.0635149
0.0650817
0.0474374
0.0207079
0.0040514
0.00664998
0.0221873
0.0354716
0
0
0.0569737
0.0705369
0.0757729
0.0526508
0.0155481
-0.00761838
-0.00314325
0.0189274
0.0366362
0
0
0
0
0
0
0
0
0
0
0
0
-0
-0
-0
-0
-0
-0
-0
-0
-0
-0
-0
-0
0.0217154
0.0194726
0.0159636
0.0114989
0.0077439
0.00626059
0.00743001
0.0102536
0.0131184
-0
0
0.0337745
0.0252428
0.0210639
0.0292259
0.045556
0.057298
0.0561656
0.0468879
0.0391093
0
0
0.0361798
0.0306314
0.0277615
0.0327054
0.0426001
0.0496526
0.0490367
0.0433966
0.038438
0
0
0.0397303
0.0363047
0.0340061
0.0354641
0.0394058
0.042312
0.0420383
0.0396765
0.0376041
0
0
0.0441177
0.0421498
0.0398552
0.0377175
0.0360789
0.0352049
0.035205
0.0359073
0.0367429
0
0
0.0488266
0.0481336
0.0456248
0.0397905
0.0326212
0.0280647
0.0283744
0.032163
0.0359939
0
0
0.0533173
0.0542303
0.051644
0.042002
0.0290253
0.0206298
0.0213854
0.02851
0.0354989
0
0
0.0569711
0.0604545
0.0582837
0.0447014
0.025271
0.0125991
0.0140657
0.0250298
0.0354128
0
0
0.0592213
0.0667679
0.0656378
0.0481127
0.0214345
0.0038889
0.00648385
0.0219412
0.0358942
0
0
0
0
0
0
0
0
0
0
0
0
-0
-0
-0
-0
-0
-0
-0
-0
-0
-0
-0
-0
0.0201756
0.0179101
0.0150463
0.0115373
0.00851342
0.00723668
0.00804374
0.0100842
0.0123766
-0
0
0.0326831
0.0277846
0.0267663
0.0331393
0.0448507
0.0534807
0.0530568
0.0467536
0.0405951
0
0
0.0356149
0.0325162
0.031621
0.03547
0.0425771
0.0477773
0.0475375
0.0436726
0.0397599
0
0
0.0393748
0.0373773
0.0362207
0.0373239
0.0400957
0.0422129
0.0420806
0.0404559
0.0388094
0
0
0.0437394
0.0423285
0.0405778
0.0388399
0.0374991
0.036778
0.0367319
0.0372271
0.0378475
0
0
0.0483556
0.047375
0.0448888
0.0402345
0.0348034
0.0313079
0.0313817
0.0340218
0.0369718
0
0
0.0528635
0.0525133
0.0493604
0.0417233
0.0320197
0.0256405
0.0259211
0.0308704
0.0362817
0
0
0.0568508
0.0577707
0.0542219
0.0435426
0.0291534
0.01959
0.0202334
0.0278097
0.0358865
0
0
0.059937
0.0631225
0.0594967
0.0458406
0.026283
0.0131425
0.0143887
0.0249841
0.0359084
0
0
0
0
0
0
0
0
0
0
0
0
-0
-0
-0
-0
-0
-0
-0
-0
-0
-0
-0
-0
0.0185114
0.0166499
0.0142794
0.0114618
0.00903001
0.00794084
0.00844983
0.00988933
0.0117363
-0
0
0.0327382
0.0303404
0.030789
0.0359359
0.044503
0.0508464
0.0508927
0.0467146
0.0418519
0
0
0.0358814
0.034367
0.0344648
0.0375761
0.0427839
0.0466177
0.0466349
0.0440509
0.0409683
0
0
0.0395622
0.0384971
0.0379986
0.0388998
0.040894
0.0424311
0.0423974
0.0413078
0.0400025
0
0
0.0436459
0.0426988
0.0413854
0.0399977
0.0389106
0.0383106
0.0382299
0.038572
0.0390357
0
0
0.0479148
0.0469771
0.0447492
0.041015
0.0368544
0.0341582
0.0340593
0.0358562
0.0381356
0
0
0.0521496
0.0513271
0.0482205
0.042097
0.0347432
0.0298771
0.029813
0.0331695
0.0373708
0
0
0.056099
0.0557625
0.0519426
0.0434032
0.0325932
0.0253572
0.0254132
0.0305223
0.0368178
0
0
0.0595336
0.0602357
0.0559057
0.0450287
0.0304749
0.0206218
0.0209257
0.0280094
0.0365716
0
0
0
0
0
0
0
0
0
0
0
0
-0
-0
-0
-0
-0
-0
-0
-0
-0
-0
-0
-0
0.0168316
0.0155722
0.0135919
0.0112984
0.00933659
0.00840427
0.00868015
0.00966397
0.0111739
-0
0
0.0336939
0.0326628
0.0337789
0.0380353
0.0444139
0.0491238
0.049473
0.0467923
0.0429325
0
0
0.0367813
0.036089
0.0366909
0.0392782
0.0431648
0.0460186
0.046209
0.044537
0.0420925
0
0
0.0401775
0.0396288
0.0395295
0.0403118
0.0417794
0.0429044
0.0429405
0.0422348
0.0411935
0
0
0.0438201
0.0432394
0.0422829
0.0411959
0.0403213
0.0398199
0.0397167
0.0399485
0.0402997
0
0
0.0475915
0.046918
0.0450297
0.0420276
0.038811
0.0367091
0.0364898
0.0376783
0.0394576
0
0
0.0513727
0.0506557
0.047852
0.0429048
0.0372679
0.0335165
0.0332117
0.0354214
0.0387148
0
0
0.0550267
0.0544531
0.0508392
0.0439343
0.0357113
0.0301796
0.0298312
0.0331733
0.0381248
0
0
0.0584316
0.0582405
0.0539646
0.0451743
0.0342
0.0267372
0.0264072
0.0309966
0.0377613
0
0
0
0
0
0
0
0
0
0
0
0
-0
-0
-0
-0
-0
-0
-0
-0
-0
-0
-0
-0
0.0152058
0.0146012
0.0129406
0.011059
0.00946646
0.00866124
0.00876252
0.00940816
0.0106624
-0
0
0.0352937
0.0347233
0.0361341
0.0397064
0.0445396
0.0480984
0.0486344
0.0469926
0.043893
0
0
0.0381331
0.0376908
0.038548
0.0407404
0.0436955
0.0458573
0.0461608
0.0451287
0.0431656
0
0
0.0411193
0.040779
0.0409321
0.0416374
0.0427449
0.0435838
0.0436693
0.0432356
0.0423952
0
0
0.0442404
0.0439366
0.0432716
0.0424373
0.0417396
0.0413207
0.0412064
0.0413613
0.041633
0
0
0.0474461
0.0471568
0.0456164
0.0432049
0.040698
0.0390375
0.0387407
0.0394993
0.0409116
0
0
0.0506828
0.0504314
0.0480173
0.0440054
0.0396382
0.0367038
0.036241
0.0376408
0.0402637
0
0
0.0538876
0.0537562
0.050529
0.0449096
0.0385791
0.0342856
0.0336738
0.0357739
0.0397275
0
0
0.0570076
0.0570532
0.0531156
0.0459502
0.0375671
0.0318252
0.0310901
0.03394
0.0393597
0
0
0
0
0
0
0
0
0
0
0
0
-0
-0
-0
-0
-0
-0
-0
-0
-0
-0
-0
-0
0.013675
0.0136914
0.0122994
0.010749
0.00944652
0.00874417
0.00871992
0.00911892
0.010181
-0
0
0.0373071
0.0365762
0.0381027
0.0411266
0.0448561
0.0476055
0.0482487
0.0473163
0.0447829
0
0
0.0397821
0.0392144
0.0401922
0.0420716
0.044363
0.0460384
0.0464122
0.0458222
0.0442172
0
0
0.0423013
0.0419664
0.0422804
0.0429291
0.0437884
0.0444314
0.0445519
0.0443088
0.0436193
0
0
0.044883
0.0447806
0.0443511
0.0437253
0.043174
0.0428258
0.0427098
0.0428137
0.0430307
0
0
0.0475166
0.0476524
0.0464352
0.0445034
0.0425354
0.0412057
0.0408659
0.0413277
0.0424744
0
0
0.0501871
0.0505794
0.0485637
0.0453063
0.0418882
0.0395556
0.0389996
0.0398395
0.0419738
0
0
0.0528744
0.0535618
0.050769
0.0461806
0.0412489
0.0378583
0.0370897
0.0383341
0.0415565
0
0
0.0555643
0.0565262
0.053009
0.0471406
0.0406524
0.0361524
0.0351784
0.0368389
0.0412657
0
0
0
0
0
0
0
0
0
0
0
0
-0
-0
-0
-0
-0
-0
-0
-0
-0
-0
-0
-0
0.0122679
0.0128174
0.0116527
0.0103725
0.00929905
0.0086814
0.00857102
0.00879406
0.00971194
-0
0
0.0395434
0.0382914
0.0398414
0.0424135
0.0453454
0.0475213
0.0482175
0.0477607
0.0456441
0
0
0.0416
0.040702
0.0417228
0.0433448
0.0451579
0.0464898
0.0469032
0.0466137
0.0452725
0
0
0.0436502
0.043207
0.0436214
0.0442225
0.0449094
0.0454191
0.0455637
0.0454526
0.0448758
0
0
0.0457224
0.0457623
0.0455201
0.0450635
0.044633
0.0443462
0.0442361
0.0443082
0.0444884
0
0
0.0478246
0.0483701
0.0474378
0.0458964
0.0443415
0.0432638
0.0429075
0.0431703
0.044127
0
0
0.0499598
0.0510373
0.0493928
0.0467489
0.0440476
0.0421645
0.0415648
0.0420272
0.0438088
0
0
0.0521269
0.0537731
0.0514028
0.0476511
0.0437648
0.0410408
0.0401942
0.0408632
0.0435544
0
0
0.0543262
0.0565186
0.0534223
0.0486046
0.0435175
0.0399247
0.03883
0.0396959
0.0433964
0
0
0
0
0
0
0
0
0
0
0
0
-0
-0
-0
-0
-0
-0
-0
-0
-0
-0
-0
-0
0.0110367
0.0119693
0.0109925
0.00993368
0.00904274
0.00849667
0.00833083
0.00843179
0.00924077
-0
0
0.041803
0.039927
0.0414511
0.0436445
0.0459916
0.0477549
0.0484671
0.0483213
0.0465102
0
0
0.0434545
0.0421828
0.043203
0.0446085
0.0460718
0.0471577
0.047589
0.0474989
0.0463516
0
0
0.0450912
0.0445086
0.0449842
0.0455421
0.0461074
0.046526
0.0466867
0.0466656
0.046173
0
0
0.0467309
0.046872
0.0467769
0.0464558
0.0461246
0.0458914
0.0457926
0.0458468
0.046003
0
0
0.0483859
0.0492833
0.0485923
0.0473682
0.0461333
0.0452514
0.0448984
0.0450327
0.0458543
0
0
0.0500657
0.0517586
0.0504405
0.0482971
0.0461434
0.044603
0.0439957
0.0442118
0.04574
0
0
0.0517736
0.0543178
0.0523299
0.0492611
0.0461657
0.0439436
0.0430757
0.0433694
0.0456762
0
0
0.0535018
0.05692
0.0542122
0.0502529
0.0462151
0.0432978
0.042165
0.0425158
0.0456862
0
0
0
0
0
0
0
0
0
0
0
0
-0
-0
-0
-0
-0
-0
-0
-0
-0
-0
-0
-0
0.00990226
0.0111389
0.0103159
0.00943769
0.0086935
0.00820942
0.00801132
0.00802984
0.00875735
-0
0
0.0438575
0.0415165
0.0429943
0.0448692
0.04678
0.0482394
0.0489427
0.048994
0.047406
0
0
0.0452421
0.0436684
0.0446707
0.0458937
0.0470966
0.0480025
0.048436
0.048475
0.0474696
0
0
0.0465753
0.0458702
0.0463848
0.0469038
0.0473817
0.0477369
0.0479075
0.0479469
0.0475172
0
0
0.0478807
0.048098
0.0481186
0.0479055
0.0476556
0.0474694
0.0473852
0.0474313
0.0475723
0
0
0.0491853
0.0503692
0.0498776
0.0489106
0.0479258
0.0471994
0.0468637
0.0469191
0.047645
0
0
0.0505122
0.0527086
0.0516662
0.0499301
0.0481998
0.0469265
0.0463375
0.0463997
0.0477461
0
0
0.0518788
0.0551454
0.0534862
0.0509749
0.0484857
0.0466505
0.045801
0.0458596
0.0478883
0
0
0.0532809
0.0576512
0.0552872
0.0520311
0.0487907
0.0463886
0.0452738
0.0453036
0.0480873
0
0
0
0
0
0
0
0
0
0
0
0
-0
-0
-0
-0
-0
-0
-0
-0
-0
-0
-0
-0
0.00872335
0.0103013
0.00961893
0.0088895
0.00826464
0.00783537
0.00762217
0.00758751
0.0082532
-0
0
0.045952
0.0431114
0.044512
0.0461179
0.0476968
0.0489263
0.0496039
0.0497742
0.0483499
0
0
0.0471247
0.0451956
0.0461517
0.0472191
0.0482245
0.048995
0.0494196
0.0495386
0.048638
0
0
0.0481788
0.0473074
0.0478346
0.0483173
0.0487311
0.0490411
0.0492167
0.0492956
0.0489131
0
0
0.0491662
0.0494301
0.0495418
0.0494148
0.0492317
0.0490865
0.0490188
0.0490632
0.0491946
0
0
0.0501377
0.0515907
0.0512756
0.050519
0.0497322
0.0491319
0.0488225
0.0488333
0.049491
0
0
0.0511341
0.0538253
0.0530372
0.0516362
0.0502379
0.0491777
0.0486242
0.0485965
0.0498113
0
0
0.0521972
0.0561741
0.0548245
0.0527721
0.0507546
0.0492249
0.0484202
0.0483405
0.050166
0
0
0.0533552
0.0586206
0.0565858
0.053908
0.051283
0.049284
0.0482239
0.0480659
0.0505641
0
0
0
0
0
0
0
0
0
0
0
0
-0
-0
-0
-0
-0
-0
-0
-0
-0
-0
-0
-0
0.00761278
0.00945777
0.00890129
0.00829414
0.00776725
0.00738712
0.00717106
0.00710452
0.00772244
-0
0
0.0483013
0.0447461
0.0460303
0.0474083
0.0487298
0.0497799
0.0504212
0.0506567
0.0493548
0
0
0.0491509
0.0467909
0.0476646
0.0485966
0.0494486
0.0501138
0.0505219
0.050687
0.0498647
0
0
0.0499055
0.0488336
0.0493429
0.0497894
0.0501541
0.0504305
0.0506073
0.0507109
0.0503641
0
0
0.0506028
0.0508724
0.0510473
0.0509866
0.0508578
0.050748
0.0506973
0.0507438
0.0508691
0
0
0.051283
0.0529442
0.0527786
0.0521926
0.0515636
0.0510672
0.0507895
0.0507786
0.051387
0
0
0.0519792
0.0550943
0.0545368
0.0534106
0.0522755
0.051389
0.0508815
0.050807
0.0519252
0
0
0.052722
0.0573736
0.0563179
0.0546431
0.0529974
0.0517146
0.0509709
0.0508183
0.0524927
0
0
0.0535255
0.0597838
0.0580709
0.0558676
0.0537246
0.0520485
0.0510657
0.0508097
0.0530925
0
0
0
0
0
0
0
0
0
0
0
0
-0
-0
-0
-0
-0
-0
-0
-0
-0
-0
-0
-0
0.00657
0.00861248
0.00816187
0.00765619
0.00721053
0.00687476