# vtk DataFile Version 2.0
FlowField
ASCII
DATASET STRUCTURED_GRID
DIMENSIONS 62 47 32 
POINTS 93248 double
0 0 0
0.01 0 0
0.02 0 0
0.03 0 0
0.04 0 0
0.05 0 0
0.06 0 0
0.07 0 0
0.08 0 0
0.09 0 0
0.1 0 0
0.11 0 0
0.12 0 0
0.13 0 0
0.14 0 0
0.15 0 0
0.16 0 0
0.17 0 0
0.18 0 0
0.19 0 0
0.2 0 0
0.21 0 0
0.22 0 0
0.23 0 0
0.24 0 0
0.25 0 0
0.26 0 0
0.27 0 0
0.28 0 0
0.29 0 0
0.3 0 0
0.31 0 0
0.32 0 0
0.33 0 0
0.34 0 0
0.35 0 0
0.36 0 0
0.37 0 0
0.38 0 0
0.39 0 0
0.4 0 0
0.41 0 0
0.42 0 0
0.43 0 0
0.44 0 0
0.45 0 0
0.46 0 0
0.47 0 0
0.48 0 0
0.49 0 0
0.5 0 0
0.51 0 0
0.52 0 0
0.53 0 0
0.54 0 0
0.55 0 0
0.56 0 0
0.57 0 0
0.58 0 0
0.59 0 0
0.6 0 0
0.61 0 0
0 0.01 0
0.01 0.01 0
0.02 0.01 0
0.03 0.01 0
0.04 0.01 0
0.05 0.01 0
0.06 0.01 0
0.07 0.01 0
0.08 0.01 0
0.09 0.01 0
0.1 0.01 0
0.11 0.01 0
0.12 0.01 0
0.13 0.01 0
0.14 0.01 0
0.15 0.01 0
0.16 0.01 0
0.17 0.01 0
0.18 0.01 0
0.19 0.01 0
0.2 0.01 0
0.21 0.01 0
0.22 0.01 0
0.23 0.01 0
0.24 0.01 0
0.25 0.01 0
0.26 0.01 0
0.27 0.01 0
0.28 0.01 0
0.29 0.01 0
0.3 0.01 0
0.31 0.01 0
0.32 0.01 0
0.33 0.01 0
0.34 0.01 0
0.35 0.01 0
0.36 0.01 0
0.37 0.01 0
0.38 0.01 0
0.39 0.01 0
0.4 0.01 0
0.41 0.01 0
0.42 0.01 0
0.43 0.01 0
0.44 0.01 0
0.45 0.01 0
0.46 0.01 0
0.47 0.01 0
0.48 0.01 0
0.49 0.01 0
0.5 0.01 0
0.51 0.01 0
0.52 0.01 0
0.53 0.01 0
0.54 0.01 0
0.55 0.01 0
0.56 0.01 0
0.57 0.01 0
0.58 0.01 0
0.59 0.01 0
0.6 0.01 0
0.61 0.01 0
0 0.02 0
0.01 0.02 0
0.02 0.02 0
0.03 0.02 0
0.04 0.02 0
0.05 0.02 0
0.06 0.02 0
0.07 0.02 0
0.08 0.02 0
0.09 0.02 0
0.1 0.02 0
0.11 0.02 0
0.12 0.02 0
0.13 0.02 0
0.14 0.02 0
0.15 0.02 0
0.16 0.02 0
0.17 0.02 0
0.18 0.02 0
0.19 0.02 0
0.2 0.02 0
0.21 0.02 0
0.22 0.02 0
0.23 0.02 0
0.24 0.02 0
0.25 0.02 0
0.26 0.02 0
0.27 0.02 0
0.28 0.02 0
0.29 0.02 0
0.3 0.02 0
0.31 0.02 0
0.32 0.02 0
0.33 0.02 0
0.34 0.02 0
0.35 0.02 0
0.36 0.02 0
0.37 0.02 0
0.38 0.02 0
0.39 0.02 0
0.4 0.02 0
0.41 0.02 0
0.42 0.02 0
0.43 0.02 0
0.44 0.02 0
0.45 0.02 0
0.46 0.02 0
0.47 0.02 0
0.48 0.02 0
0.49 0.02 0
0.5 0.02 0
0.51 0.02 0
0.52 0.02 0
0.53 0.02 0
0.54 0.02 0
0.55 0.02 0
0.56 0.02 0
0.57 0.02 0
0.58 0.02 0
0.59 0.02 0
0.6 0.02 0
0.61 0.02 0
0 0.03 0
0.01 0.03 0
0.02 0.03 0
0.03 0.03 0
0.04 0.03 0
0.05 0.03 0
0.06 0.03 0
0.07 0.03 0
0.08 0.03 0
0.09 0.03 0
0.1 0.03 0
0.11 0.03 0
0.12 0.03 0
0.13 0.03 0
0.14 0.03 0
0.15 0.03 0
0.16 0.03 0
0.17 0.03 0
0.18 0.03 0
0.19 0.03 0
0.2 0.03 0
0.21 0.03 0
0.22 0.03 0
0.23 0.03 0
0.24 0.03 0
0.25 0.03 0
0.26 0.03 0
0.27 0.03 0
0.28 0.03 0
0.29 0.03 0
0.3 0.03 0
0.31 0.03 0
0.32 0.03 0
0.33 0.03 0
0.34 0.03 0
0.35 0.03 0
0.36 0.03 0
0.37 0.03 0
0.38 0.03 0
0.39 0.03 0
0.4 0.03 0
0.41 0.03 0
0.42 0.03 0
0.43 0.03 0
0.44 0.03 0
0.45 0.03 0
0.46 0.03 0
0.47 0.03 0
0.48 0.03 0
0.49 0.03 0
0.5 0.03 0
0.51 0.03 0
0.52 0.03 0
0.53 0.03 0
0.54 0.03 0
0.55 0.03 0
0.56 0.03 0
0.57 0.03 0
0.58 0.03 0
0.59 0.03 0
0.6 0.03 0
0.61 0.03 0
0 0.04 0
0.01 0.04 0
0.02 0.04 0
0.03 0.04 0
0.04 0.04 0
0.05 0.04 0
0.06 0.04 0
0.07 0.04 0
0.08 0.04 0
0.09 0.04 0
0.1 0.04 0
0.11 0.04 0
0.12 0.04 0
0.13 0.04 0
0.14 0.04 0
0.15 0.04 0
0.16 0.04 0
0.17 0.04 0
0.18 0.04 0
0.19 0.04 0
0.2 0.04 0
0.21 0.04 0
0.22 0.04 0
0.23 0.04 0
0.24 0.04 0
0.25 0.04 0
0.26 0.04 0
0.27 0.04 0
0.28 0.04 0
0.29 0.04 0
0.3 0.04 0
0.31 0.04 0
0.32 0.04 0
0.33 0.04 0
0.34 0.04 0
0.35 0.04 0
0.36 0.04 0
0.37 0.04 0
0.38 0.04 0
0.39 0.04 0
0.4 0.04 0
0.41 0.04 0
0.42 0.04 0
0.43 0.04 0
0.44 0.04 0
0.45 0.04 0
0.46 0.04 0
0.47 0.04 0
0.48 0.04 0
0.49 0.04 0
0.5 0.04 0
0.51 0.04 0
0.52 0.04 0
0.53 0.04 0
0.54 0.04 0
0.55 0.04 0
0.56 0.04 0
0.57 0.04 0
0.58 0.04 0
0.59 0.04 0
0.6 0.04 0
0.61 0.04 0
0 0.05 0
0.01 0.05 0
0.02 0.05 0
0.03 0.05 0
0.04 0.05 0
0.05 0.05 0
0.06 0.05 0
0.07 0.05 0
0.08 0.05 0
0.09 0.05 0
0.1 0.05 0
0.11 0.05 0
0.12 0.05 0
0.13 0.05 0
0.14 0.05 0
0.15 0.05 0
0.16 0.05 0
0.17 0.05 0
0.18 0.05 0
0.19 0.05 0
0.2 0.05 0
0.21 0.05 0
0.22 0.05 0
0.23 0.05 0
0.24 0.05 0
0.25 0.05 0
0.26 0.05 0
0.27 0.05 0
0.28 0.05 0
0.29 0.05 0
0.3 0.05 0
0.31 0.05 0
0.32 0.05 0
0.33 0.05 0
0.34 0.05 0
0.35 0.05 0
0.36 0.05 0
0.37 0.05 0
0.38 0.05 0
0.39 0.05 0
0.4 0.05 0
0.41 0.05 0
0.42 0.05 0
0.43 0.05 0
0.44 0.05 0
0.45 0.05 0
0.46 0.05 0
0.47 0.05 0
0.48 0.05 0
0.49 0.05 0
0.5 0.05 0
0.51 0.05 0
0.52 0.05 0
0.53 0.05 0
0.54 0.05 0
0.55 0.05 0
0.56 0.05 0
0.57 0.05 0
0.58 0.05 0
0.59 0.05 0
0.6 0.05 0
0.61 0.05 0
0 0.06 0
0.01 0.06 0
0.02 0.06 0
0.03 0.06 0
0.04 0.06 0
0.05 0.06 0
0.06 0.06 0
0.07 0.06 0
0.08 0.06 0
0.09 0.06 0
0.1 0.06 0
0.11 0.06 0
0.12 0.06 0
0.13 0.06 0
0.14 0.06 0
0.15 0.06 0
0.16 0.06 0
0.17 0.06 0
0.18 0.06 0
0.19 0.06 0
0.2 0.06 0
0.21 0.06 0
0.22 0.06 0
0.23 0.06 0
0.24 0.06 0
0.25 0.06 0
0.26 0.06 0
0.27 0.06 0
0.28 0.06 0
0.29 0.06 0
0.3 0.06 0
0.31 0.06 0
0.32 0.06 0
0.33 0.06 0
0.34 0.06 0
0.35 0.06 0
0.36 0.06 0
0.37 0.06 0
0.38 0.06 0
0.39 0.06 0
0.4 0.06 0
0.41 0.06 0
0.42 0.06 0
0.43 0.06 0
0.44 0.06 0
0.45 0.06 0
0.46 0.06 0
0.47 0.06 0
0.48 0.06 0
0.49 0.06 0
0.5 0.06 0
0.51 0.06 0
0.52 0.06 0
0.53 0.06 0
0.54 0.06 0
0.55 0.06 0
0.56 0.06 0
0.57 0.06 0
0.58 0.06 0
0.59 0.06 0
0.6 0.06 0
0.61 0.06 0
0 0.07 0
0.01 0.07 0
0.02 0.07 0
0.03 0.07 0
0.04 0.07 0
0.05 0.07 0
0.06 0.07 0
0.07 0.07 0
0.08 0.07 0
0.09 0.07 0
0.1 0.07 0
0.11 0.07 0
0.12 0.07 0
0.13 0.07 0
0.14 0.07 0
0.15 0.07 0
0.16 0.07 0
0.17 0.07 0
0.18 0.07 0
0.19 0.07 0
0.2 0.07 0
0.21 0.07 0
0.22 0.07 0
0.23 0.07 0
0.24 0.07 0
0.25 0.07 0
0.26 0.07 0
0.27 0.07 0
0.28 0.07 0
0.29 0.07 0
0.3 0.07 0
0.31 0.07 0
0.32 0.07 0
0.33 0.07 0
0.34 0.07 0
0.35 0.07 0
0.36 0.07 0
0.37 0.07 0
0.38 0.07 0
0.39 0.07 0
0.4 0.07 0
0.41 0.07 0
0.42 0.07 0
0.43 0.07 0
0.44 0.07 0
0.45 0.07 0
0.46 0.07 0
0.47 0.07 0
0.48 0.07 0
0.49 0.07 0
0.5 0.07 0
0.51 0.07 0
0.52 0.07 0
0.53 0.07 0
0.54 0.07 0
0.55 0.07 0
0.56 0.07 0
0.57 0.07 0
0.58 0.07 0
0.59 0.07 0
0.6 0.07 0
0.61 0.07 0
0 0.08 0
0.01 0.08 0
0.02 0.08 0
0.03 0.08 0
0.04 0.08 0
0.05 0.08 0
0.06 0.08 0
0.07 0.08 0
0.08 0.08 0
0.09 0.08 0
0.1 0.08 0
0.11 0.08 0
0.12 0.08 0
0.13 0.08 0
0.14 0.08 0
0.15 0.08 0
0.16 0.08 0
0.17 0.08 0
0.18 0.08 0
0.19 0.08 0
0.2 0.08 0
0.21 0.08 0
0.22 0.08 0
0.23 0.08 0
0.24 0.08 0
0.25 0.08 0
0.26 0.08 0
0.27 0.08 0
0.28 0.08 0
0.29 0.08 0
0.3 0.08 0
0.31 0.08 0
0.32 0.08 0
0.33 0.08 0
0.34 0.08 0
0.35 0.08 0
0.36 0.08 0
0.37 0.08 0
0.38 0.08 0
0.39 0.08 0
0.4 0.08 0
0.41 0.08 0
0.42 0.08 0
0.43 0.08 0
0.44 0.08 0
0.45 0.08 0
0.46 0.08 0
0.47 0.08 0
0.48 0.08 0
0.49 0.08 0
0.5 0.08 0
0.51 0.08 0
0.52 0.08 0
0.53 0.08 0
0.54 0.08 0
0.55 0.08 0
0.56 0.08 0
0.57 0.08 0
0.58 0.08 0
0.59 0.08 0
0.6 0.08 0
0.61 0.08 0
0 0.09 0
0.01 0.09 0
0.02 0.09 0
0.03 0.09 0
0.04 0.09 0
0.05 0.09 0
0.06 0.09 0
0.07 0.09 0
0.08 0.09 0
0.09 0.09 0
0.1 0.09 0
0.11 0.09 0
0.12 0.09 0
0.13 0.09 0
0.14 0.09 0
0.15 0.09 0
0.16 0.09 0
0.17 0.09 0
0.18 0.09 0
0.19 0.09 0
0.2 0.09 0
0.21 0.09 0
0.22 0.09 0
0.23 0.09 0
0.24 0.09 0
0.25 0.09 0
0.26 0.09 0
0.27 0.09 0
0.28 0.09 0
0.29 0.09 0
0.3 0.09 0
0.31 0.09 0
0.32 0.09 0
0.33 0.09 0
0.34 0.09 0
0.35 0.09 0
0.36 0.09 0
0.37 0.09 0
0.38 0.09 0
0.39 0.09 0
0.4 0.09 0
0.41 0.09 0
0.42 0.09 0
0.43 0.09 0
0.44 0.09 0
0.45 0.09 0
0.46 0.09 0
0.47 0.09 0
0.48 0.09 0
0.49 0.09 0
0.5 0.09 0
0.51 0.09 0
0.52 0.09 0
0.53 0.09 0
0.54 0.09 0
0.55 0.09 0
0.56 0.09 0
0.57 0.09 0
0.58 0.09 0
0.59 0.09 0
0.6 0.09 0
0.61 0.09 0
0 0.1 0
0.01 0.1 0
0.02 0.1 0
0.03 0.1 0
0.04 0.1 0
0.05 0.1 0
0.06 0.1 0
0.07 0.1 0
0.08 0.1 0
0.09 0.1 0
0.1 0.1 0
0.11 0.1 0
0.12 0.1 0
0.13 0.1 0
0.14 0.1 0
0.15 0.1 0
0.16 0.1 0
0.17 0.1 0
0.18 0.1 0
0.19 0.1 0
0.2 0.1 0
0.21 0.1 0
0.22 0.1 0
0.23 0.1 0
0.24 0.1 0
0.25 0.1 0
0.26 0.1 0
0.27 0.1 0
0.28 0.1 0
0.29 0.1 0
0.3 0.1 0
0.31 0.1 0
0.32 0.1 0
0.33 0.1 0
0.34 0.1 0
0.35 0.1 0
0.36 0.1 0
0.37 0.1 0
0.38 0.1 0
0.39 0.1 0
0.4 0.1 0
0.41 0.1 0
0.42 0.1 0
0.43 0.1 0
0.44 0.1 0
0.45 0.1 0
0.46 0.1 0
0.47 0.1 0
0.48 0.1 0
0.49 0.1 0
0.5 0.1 0
0.51 0.1 0
0.52 0.1 0
0.53 0.1 0
0.54 0.1 0
0.55 0.1 0
0.56 0.1 0
0.57 0.1 0
0.58 0.1 0
0.59 0.1 0
0.6 0.1 0
0.61 0.1 0
0 0.11 0
0.01 0.11 0
0.02 0.11 0
0.03 0.11 0
0.04 0.11 0
0.05 0.11 0
0.06 0.11 0
0.07 0.11 0
0.08 0.11 0
0.09 0.11 0
0.1 0.11 0
0.11 0.11 0
0.12 0.11 0
0.13 0.11 0
0.14 0.11 0
0.15 0.11 0
0.16 0.11 0
0.17 0.11 0
0.18 0.11 0
0.19 0.11 0
0.2 0.11 0
0.21 0.11 0
0.22 0.11 0
0.23 0.11 0
0.24 0.11 0
0.25 0.11 0
0.26 0.11 0
0.27 0.11 0
0.28 0.11 0
0.29 0.11 0
0.3 0.11 0
0.31 0.11 0
0.32 0.11 0
0.33 0.11 0
0.34 0.11 0
0.35 0.11 0
0.36 0.11 0
0.37 0.11 0
0.38 0.11 0
0.39 0.11 0
0.4 0.11 0
0.41 0.11 0
0.42 0.11 0
0.43 0.11 0
0.44 0.11 0
0.45 0.11 0
0.46 0.11 0
0.47 0.11 0
0.48 0.11 0
0.49 0.11 0
0.5 0.11 0
0.51 0.11 0
0.52 0.11 0
0.53 0.11 0
0.54 0.11 0
0.55 0.11 0
0.56 0.11 0
0.57 0.11 0
0.58 0.11 0
0.59 0.11 0
0.6 0.11 0
0.61 0.11 0
0 0.12 0
0.01 0.12 0
0.02 0.12 0
0.03 0.12 0
0.04 0.12 0
0.05 0.12 0
0.06 0.12 0
0.07 0.12 0
0.08 0.12 0
0.09 0.12 0
0.1 0.12 0
0.11 0.12 0
0.12 0.12 0
0.13 0.12 0
0.14 0.12 0
0.15 0.12 0
0.16 0.12 0
0.17 0.12 0
0.18 0.12 0
0.19 0.12 0
0.2 0.12 0
0.21 0.12 0
0.22 0.12 0
0.23 0.12 0
0.24 0.12 0
0.25 0.12 0
0.26 0.12 0
0.27 0.12 0
0.28 0.12 0
0.29 0.12 0
0.3 0.12 0
0.31 0.12 0
0.32 0.12 0
0.33 0.12 0
0.34 0.12 0
0.35 0.12 0
0.36 0.12 0
0.37 0.12 0
0.38 0.12 0
0.39 0.12 0
0.4 0.12 0
0.41 0.12 0
0.42 0.12 0
0.43 0.12 0
0.44 0.12 0
0.45 0.12 0
0.46 0.12 0
0.47 0.12 0
0.48 0.12 0
0.49 0.12 0
0.5 0.12 0
0.51 0.12 0
0.52 0.12 0
0.53 0.12 0
0.54 0.12 0
0.55 0.12 0
0.56 0.12 0
0.57 0.12 0
0.58 0.12 0
0.59 0.12 0
0.6 0.12 0
0.61 0.12 0
0 0.13 0
0.01 0.13 0
0.02 0.13 0
0.03 0.13 0
0.04 0.13 0
0.05 0.13 0
0.06 0.13 0
0.07 0.13 0
0.08 0.13 0
0.09 0.13 0
0.1 0.13 0
0.11 0.13 0
0.12 0.13 0
0.13 0.13 0
0.14 0.13 0
0.15 0.13 0
0.16 0.13 0
0.17 0.13 0
0.18 0.13 0
0.19 0.13 0
0.2 0.13 0
0.21 0.13 0
0.22 0.13 0
0.23 0.13 0
0.24 0.13 0
0.25 0.13 0
0.26 0.13 0
0.27 0.13 0
0.28 0.13 0
0.29 0.13 0
0.3 0.13 0
0.31 0.13 0
0.32 0.13 0
0.33 0.13 0
0.34 0.13 0
0.35 0.13 0
0.36 0.13 0
0.37 0.13 0
0.38 0.13 0
0.39 0.13 0
0.4 0.13 0
0.41 0.13 0
0.42 0.13 0
0.43 0.13 0
0.44 0.13 0
0.45 0.13 0
0.46 0.13 0
0.47 0.13 0
0.48 0.13 0
[...]
POINT_DATA 93248

SCALARS u double
LOOKUP_TABLE default
0
0
0
0
0
0
0
0
0
0
0
0
0
0
0
0
0
0
0
0
0
0
0
0
0.250142
0
0
0
0
0
0
0
0.000767941
0.193766
0
0
0
0
0
0
0
0
0
0
0
0
0
0.0318096
0
0
0.044158
0
0
0
0
0
0
0
0
0
0
0
0
0.404204
0.317055
0.233086
0.163435
0.111995
0.0732879
0.0454114
0.0254104
0.0103415
-0.00151213
-0.00996113
-0.0109385
-0.0125929
-0.0134086
-0.0128391
-0.011399
-0.0107527
-0.0105162
-0.0111103
-0.000682906
0.00144925
-0.00440923
-0.00346977
-0.00220566
-0.00133576
-0.000746368
-0.000345003
-0.000134747
-0.000212906
-0.000704474
-0.00115206
0.00129135
0.000743175
-0.000730312
-0.0016522
0.000963003
-0.00169942
-0.0057465
0.133634
-0.0087584
-0.00291439
-0.000529302
0.00410906
0.0168864
-0.033287
-0.011718
-0.00946424
-0.00813124
-0.00860779
-0.00895438
-0.0117996
-0.00702579
0.00659218
-0.0432269
-0.0321318
-0.0360148
-0.0249482
-0.0313564
-0.0415786
-0.0415786
0
0
0.478799
0.451964
0.41585
0.370756
0.327471
0.277197
0.228396
0.184868
0.148882
0.120027
0.0975268
0.087265
0.0769314
0.0704048
0.067193
0.066091
0.0647352
0.0660908
0.280348
0.0750418
0.0777122
0.0564941
0.0605369
0.060939
0.0604055
0.0594404
0.0581609
0.0565948
0.0547139
0.0523937
0.0494994
0.0506726
0.0472109
0.0445896
0.0431266
0.0378259
0.0347217
0.00716215
0.0319026
0.0286213
0.0254004
0.0259611
0.0277585
0.026822
0.00178557
-0.00523985
-0.00334442
-0.00408622
-0.00469518
-0.0036719
-0.0150127
-0.0133587
-0.0168749
-0.0447036
-0.0492214
-0.0568451
-0.058755
-0.0692244
-0.0809222
-0.0809222
0
0
0.47283
0.462107
0.451158
0.427436
0.420712
0.384072
0.349029
0.315014
0.282873
0.288509
0.231623
0.204857
0.188699
0.176957
0.169152
0.163528
0.15712
0.154604
0.152302
0.145088
0.145835
0.137205
0.134832
0.132874
0.130477
0.127629
0.124415
0.120932
0.117342
0.114037
0.11155
0.104988
0.0980785
0.186226
0.0925373
0.0860428
0.0817446
0.0791243
0.0754087
0.0701183
0.0643065
0.108397
0.0551724
0.0477511
0.104831
0.0213664
0.0151518
-0.00408622
0.00752255
0.00360716
-0.0054957
-0.0117996
-0.0217937
-0.0381766
-0.0492693
-0.0596569
-0.0741177
-0.083933
-0.0944368
-0.0944368
0
0
0.465759
0.449746
0.449351
0.436224
0.427357
0.410905
0.391751
0.371393
0.350851
0.330539
0.311487
0.291058
0.273622
0.259015
0.24938
0.238073
0.232233
0.225418
0.278378
0.210398
0.204139
0.197661
0.192622
0.188254
0.183948
0.179433
0.174663
0.169687
0.164601
0.159486
0.154023
0.146648
0.139231
0.132738
0.127713
0.122081
0.116851
0.111721
0.105728
0.0989651
0.0912863
0.0828353
0.0748282
0.0651156
0.0532647
0.0413278
0.0329852
0.0262284
0.0193145
0.0117789
0.00260395
-0.00716414
-0.0185308
-0.0313117
-0.0437838
-0.0561604
-0.0695808
-0.0812722
-0.0930923
-0.0930923
0
0
0.463398
0.445669
0.435052
0.424464
0.415461
0.40481
0.393276
0.381046
0.36824
0.35501
0.341526
0.327447
0.313255
0.29782
0.297621
0.283659
0.274621
0.266384
0.257223
0.248946
0.241391
0.234481
0.228193
0.222335
0.216659
0.21092
0.205062
0.19907
0.192909
0.186441
0.179269
0.171083
0.164828
0.15736
0.150363
0.143655
0.137068
0.130234
0.122827
0.114849
0.10617
0.0967366
0.0870065
0.076771
0.0668265
0.0684546
0.045202
0.0364219
0.0274312
0.018049
0.00808975
-0.00250401
-0.0136435
-0.0250223
-0.0364725
-0.047581
-0.0580626
-0.0677333
-0.0793669
-0.0793669
0
0
0.46234
0.44192
0.426112
0.412798
0.401435
0.390489
0.380694
0.371067
0.361182
0.351218
0.341261
0.331436
0.321173
0.311023
0.306279
0.29896
0.290936
0.284592
0.275784
0.267778
0.260315
0.253247
0.246475
0.239934
0.233549
0.227082
0.220592
0.214034
0.207305
0.200224
0.192461
0.183474
0.178466
0.170043
0.161931
0.154281
0.14671
0.138903
0.1307
0.122039
0.112861
0.103102
0.0927953
0.0817434
0.0700362
0.0635029
0.0530167
0.04261
0.0324023
0.0221801
0.0118422
0.00135329
-0.00916102
-0.0194347
-0.0292919
-0.0382834
-0.0453844
-0.0476315
-0.0410335
-0.0410335
0
0
0.461753
0.439564
0.420806
0.404738
0.391115
0.447383
0.368635
0.357223
0.346915
0.337388
0.328789
0.321791
0.314016
0.306853
0.301208
0.296374
0.292298
0.286781
0.280348
0.273815
0.267387
0.26083
0.254171
0.247498
0.240885
0.234107
0.227424
0.220715
0.213871
0.206828
0.199838
0.193724
0.18158
0.173655
0.166118
0.158403
0.150461
0.142219
0.133634
0.124672
0.115332
0.110014
0.0953098
0.0846926
0.0743381
0.0657489
0.0559672
0.0456542
0.035239
0.024854
0.0145688
0.00446829
-0.00540823
-0.0147968
-0.0236016
-0.0320655
-0.0414933
-0.0549666
-0.0204794
-0.0204794
0
0
0.461385
0.438067
0.417508
0.399307
0.383074
0.367965
0.355232
0.343439
0.332515
0.322441
0.313722
0.310382
0.303017
0.296638
0.29001
0.066091
0.288404
0.282754
0.278378
0.273408
0.26843
0.262632
0.256348
0.249761
0.216659
0.236371
0.229982
0.22344
0.216734
0.209755
0.202431
0.194749
0.184985
0.176239
0.168063
0.159958
0.151735
0.143275
0.134515
0.125434
0.116025
0.106273
0.0963426
0.0862949
0.0764318
0.0669249
0.0571728
0.0471067
0.0368828
0.0266714
0.0166361
0.00703514
-0.00239346
-0.0112702
-0.0196135
-0.0276453
-0.036047
-0.0475987
-0.0408959
-0.0408959
0
0
0.46114
0.437078
0.415347
0.395685
0.377796
0.361341
0.346721
0.333489
0.321331
0.309709
0.296258
0.305522
0.294347
0.287975
0.283501
0.282053
0.28272
0.279601
0.275718
0.271165
0.267248
0.26186
0.255968
0.249837
0.244097
0.237554
0.231048
0.224615
0.218134
0.211248
0.203228
0.194843
0.186107
0.17752
0.169125
0.160747
0.152307
0.143697
0.134835
0.125705
0.116322
0.106717
0.0969867
0.0872095
0.0774715
0.0677492
0.0579548
0.0480316
0.0380159
0.028018
0.018089
0.00925707
-2.14215e-05
-0.00869845
-0.0170351
-0.0253292
-0.0340944
-0.043725
-0.0510612
-0.0510612
0
0
0.460974
0.436406
0.41388
0.393238
0.374282
0.356884
0.341082
0.326755
0.313765
0.302002
0.291972
0.291011
0.285808
0.281381
0.278056
0.276862
0.27618
0.274452
0.271997
0.2692
0.264166
0.259468
0.254232
0.248307
0.243772
0.2373
0.231083
0.225016
0.219028
0.241975
0.203473
0.194763
0.186436
0.178139
0.169832
0.169335
0.152876
0.144133
0.135177
0.126007
0.116652
0.107151
0.0975348
0.0878671
0.0781779
0.0684546
0.0586931
0.0488768
0.0390188
0.0292518
0.0196196
-0.00124747
0.00176128
-0.00677426
-0.0152504
-0.0238083
-0.0327974
-0.0425946
-0.0533964
-0.0533964
0
0
0.46086
0.435945
0.412862
0.391548
0.371857
0.353743
0.33721
0.322248
0.308909
0.297407
0.288467
0.283148
0.278884
0.275955
0.272731
0.271373
0.270586
0.26947
0.267835
0.269589
0.261708
0.257357
0.25245
0.247078
0.241973
0.236196
0.230425
0.224761
0.218847
0.212647
0.202178
0.194638
0.18686
0.178722
0.170379
0.161904
0.163677
0.144705
0.135659
0.126436
0.117083
0.107674
0.0981075
0.0884806
0.0788286
0.06916
0.0594846
0.049787
0.0400562
0.0306026
0.0215378
0.0128903
0.00379171
-0.00508583
-0.0137934
-0.0225455
-0.0316923
-0.0416966
-0.0530218
-0.0530218
0
0
0.460784
0.435642
0.412223
0.39034
0.370121
0.351519
0.334529
0.319218
0.305727
0.294271
0.285257
0.278688
0.274183
0.271939
0.267882
0.266977
0.26637
0.265419
0.264221
0.262222
0.259183
0.255259
0.250636
0.245502
0.240092
0.234465
0.229038
0.223808
0.217685
0.208871
0.204945
0.196811
0.18823
0.179671
0.171103
0.162479
0.153767
0.145134
0.136188
0.126918
0.11749
0.108397
0.098792
0.0891496
0.0795179
0.069908
0.0603404
0.0507794
0.0410697
0.0318355
0.0229499
0.0141874
0.00523741
-0.00366905
-0.0124649
-0.0213049
-0.0305263
-0.040586
-0.051963
-0.051963
0
0
0.460734
0.435437
0.411756
0.38945
0.368904
0.349972
0.332687
0.317158
0.303562
0.291977
0.282717
0.275601
0.270233
0.265576
0.266223
0.264996
0.263719
0.262349
0.261558
0.259857
0.257039
0.253278
0.248747
0.243582
0.237904
0.231975
0.226475
0.221849
0.21871
0.211675
0.205151
0.197445
0.189126
0.180551
0.171877
0.163189
0.154451
0.145874
0.136891
0.127397
0.117239
0.10995
0.0996986
0.0899236
0.0802689
0.0706846
0.0612072
0.0518158
0.0419357
0.0329183
0.024118
0.0152809
0.00636635
-0.00246845
-0.0112043
-0.0200015
-0.0292419
-0.0392754
-0.0506838
-0.0506838
0
0
0.460703
0.435321
0.411621
0.388618
0.368034
0.34891
0.331425
0.315727
0.301953
0.290387
0.280898
0.27351
0.268022
0.264267
0.263179
0.262302
0.261176
0.259505
0.259823
0.258185
0.255249
0.251421
0.246822
0.241442
0.235217
0.228122
0.220658
0.21397
0.225268
0.217335
0.208123
0.199252
0.190424
0.181525
0.172628
0.163969
0.154836
0.146703
0.137796
0.128293
0.118616
0.110014
0.100436
0.0907445
0.0810606
0.0714313
0.0619354
0.0527368
0.0426958
0.0340608
0.0253474
0.0164874
0.00735354
-0.00138129
-0.00995803
-0.018517
-0.0278739
-0.0377003
-0.0491088
-0.0491088
0
0
0.460677
0.435172
0.411188
0.388497
0.36755
0.348224
0.330584
0.314771
0.300935
0.289224
0.279625
0.272149
0.26673
0.26326
0.261492
0.260495
0.259461
0.257318
0.259071
0.256684
0.253438
0.249583
0.244948
0.239331
0.232336
0.222829
0.20703
0.174196
0.264797
0.23009
0.213734
0.202246
0.192131
0.182451
0.173011
0.163905
0.155177
0.147457
0.138925
0.129628
0.120134
0.110803
0.101295
0.0916488
0.0818969
0.0721176
0.0622613
0.0523682
0.0444686
0.0356566
0.0268217
0.0182911
0.00787052
-0.000357195
-0.00877507
-0.0171448
-0.0259927
-0.0355621
-0.0468716
-0.0468716
0
0
0.460687
0.435064
0.410967
0.388344
0.367293
0.347822
0.330047
0.314147
0.30027
0.288509
0.278825
0.271289
0.265892
0.262468
0.260594
0.25972
0.25959
0.260811
0.255554
0.253611
0.251234
0.247858
0.243431
0.237845
0.23079
0.221623
0.209837
0.200468
0.229425
0.22464
0.214118
0.203226
0.192718
0.182511
0.172494
0.162753
0.153835
0.146982
0.140741
0.131958
0.122327
0.112553
0.102741
0.0928854
0.0829201
0.0730093
0.063119
0.0534732
0.0447397
0.0366619
0.0279345
0.0190167
0.00955474
0.00110748
-0.00780189
-0.015687
-0.0237432
-0.0325098
-0.043282
-0.043282
0
0
0.460762
0.434997
0.410877
0.388307
0.367242
0.347544
0.329644
0.313723
0.299886
0.28818
0.278378
0.270738
0.265312
0.261924
0.260115
0.259306
0.259033
0.258719
0.256044
0.253505
0.25069
0.247193
0.242826
0.237491
0.231142
0.223939
0.216825
0.213534
0.218068
0.216027
0.209429
0.200746
0.191187
0.181164
0.170716
0.159768
0.148589
0.140142
0.147385
0.13771
0.126374
0.115425
0.104831
0.094481
0.0841666
0.0741186
0.0641905
0.054407
0.0450017
0.0376352
0.0286914
0.0197073
0.0112076
0.00416123
-0.0084116
-0.0144742
-0.0212518
-0.0282944
-0.0369699
-0.0369699
0
0
0.460515
0.435125
0.411024
0.388476
0.367577
0.334529
0.329116
0.313402
0.29975
0.288248
0.278147
0.270344
0.264889
0.261617
0.259958
0.259134
0.258553
0.257814
0.25618
0.253884
0.250976
0.247401
0.243106
0.238114
0.232603
0.22709
0.255953
0.218058
0.216256
0.212
0.205597
0.197747
0.188905
0.179157
0.168269
0.155301
0.136915
0.100312
0.185763
0.150495
0.132273
0.118862
0.107057
0.0959746
0.0855622
0.075327
0.0653661
0.0555294
0.0454887
0.038455
0.0288748
0.0199756
0.0117497
0.00378523
-0.00624706
-0.0327974
-0.0191273
-0.0237143
-0.0247672
0
0
0
0.460591
0.434399
0.410871
0.388523
0.367782
0.347468
0.329344
0.313474
0.299926
0.288794
0.277918
0.270046
0.264637
0.261689
0.260304
0.259433
0.258566
0.257953
0.256638
0.254503
0.251637
0.248095
0.243912
0.239186
0.234148
0.229185
0.22424
0.218971
0.216369
0.210253
0.2032
0.19551
0.187088
0.180137
0.166959
0.154411
0.139746
0.127601
0.153584
0.125705
0.132857
0.120207
0.108275
0.0970484
0.0864492
0.0762573
0.0665339
0.0574593
0.0490008
0.0361636
0.0276699
0.0194894
0.0114221
0.00342185
-0.00460843
-0.0117112
-0.0188769
-0.0262469
-0.0355231
-0.0355231
0
0
0.460623
0.43501
0.410696
0.388545
0.368066
0.347121
0.329219
0.313511
0.300052
0.289448
0.277522
0.270188
0.264873
0.262671
0.261595
0.260434
0.259075
0.25891
0.257576
0.255383
0.252521
0.24904
0.244937
0.240303
0.235324
0.230485
0.227758
0.223922
0.214671
0.208157
0.201444
0.194133
0.186226
0.177401
0.167606
0.157165
0.147336
0.141399
0.142694
0.138158
0.129202
0.118656
0.107745
0.0970445
0.0866935
0.0766445
0.0669806
0.0576549
0.0481832
0.0373353
0.027874
0.0192124
0.0109904
0.00304167
-0.00477371
-0.0125954
-0.0210601
-0.0307872
-0.0424776
-0.0424776
0
0
0.460645
0.435089
0.41114
0.387829
0.365696
0.347537
0.329778
0.313695
0.299506
0.286368
0.279799
0.272322
0.266246
0.321581
0.264115
0.262092
0.260029
0.260394
0.258581
0.256255
0.253473
0.250117
0.24605
0.241321
0.235772
0.228187
0.23323
0.224684
0.216284
0.208648
0.201242
0.193823
0.186372
0.17824
0.169445
0.1606
0.152594
0.146249
0.140634
0.134036
0.125855
0.116501
0.106259
0.096216
0.0863018
0.0764287
0.066782
0.0572685
0.0476373
0.037718
0.0280209
0.01895
0.0104716
0.00237276
-0.00577432
-0.0141715
-0.0234272
-0.0340565
-0.0460229
-0.0460229
0
0
0.460645
0.435068
0.410941
0.387916
0.366319
0.347156
0.329438
0.313521
0.299739
0.288377
0.28018
0.273555
0.348257
0.267801
0.265019
0.2634
0.263342
0.259973
0.258555
0.256842
0.25447
0.251383
0.247327
0.242598
0.237282
0.231637
0.230272
0.224345
0.216938
0.209189
0.20137
0.193715
0.186753
0.179905
0.171833
0.163732
0.155841
0.148349
0.140706
0.132731
0.124301
0.115663
0.104182
0.0949723
0.0854493
0.0757593
0.0662432
0.0567819
0.0472867
0.0375689
0.0276007
0.0183567
0.00970127
0.00140564
-0.00698824
-0.0155937
-0.0251681
-0.0362698
-0.0481946
-0.0481946
0
0
0.460647
0.435066
0.410924
0.388147
0.366885
0.347329
0.329227
0.313263
0.299731
0.290662
0.281846
0.275597
0.272691
0.264924
0.263377
0.263084
0.26294
0.261511
0.260035
0.258261
0.255993
0.253107
0.248842
0.244175
0.239297
0.23441
0.229878
0.22397
0.216953
0.209235
0.200974
0.192392
0.184814
0.183539
0.174981
0.167275
0.158591
0.149988
0.141358
0.132607
0.123658
0.114321
0.103814
0.0939772
0.0580937
0.0748453
0.0656036
0.0562741
0.0469545
0.0371999
0.00775724
0.0174286
0.00868944
-0.029346
-0.00822695
-0.0166475
-0.0262355
-0.0379886
-0.0497973
-0.0497973
0
0
0.460656
0.435106
0.411042
0.388475
0.3675
0.348014
0.328928
0.312591
0.296335
0.296063
0.284123
0.277011
0.272422
0.267721
0.265414
0.264508
0.263984
0.263116
0.261834
0.260088
0.257905
0.255313
0.250404
0.24589
0.241279
0.236342
0.230862
0.214034
0.217271
0.209351
0.200165
0.188527
0.168788
0.200259
0.178716
0.173693
0.161632
0.151635
0.14218
0.13287
0.123457
0.113586
0.103573
0.0938713
0.0845262
0.0747658
0.0651663
0.0557246
0.0465688
0.0373182
0.0258339
0.0171704
0.00859555
0.000243635
-0.00866523
-0.0173239
-0.026632
-0.0394711
-0.0508569
-0.0508569
0
0
0.460671
0.435168
0.411208
0.38887
0.368421
0.350714
0.327609
0.313217
0.299592
0.293005
0.284703
0.277987
0.273125
0.269681
0.267736
0.266829
0.266135
0.265167
0.263851
0.26206
0.259829
0.257553
0.251922
0.247994
0.243553
0.238388
0.232613
0.225903
0.218674
0.210565
0.200864
0.190422
0.180121
0.18806
0.179889
0.172533
0.162532
0.152467
0.142691
0.133123
0.123512
0.113183
0.103216
0.0935653
0.0840263
0.0743361
0.0646073
0.0548738
0.0305703
0.0369899
0.0247584
0.0171139
0.00821074
-0.000720737
-0.00973151
-0.0184731
-0.0268842
-0.0402564
-0.0507034
-0.0507034
0
0
0.460684
0.435215
0.411326
0.389097
0.368675
0.350088
0.331027
0.315236
0.302282
0.292756
0.284874
0.278707
0.274266
0.271423
0.269902
0.269157
0.268335
0.267398
0.266068
0.264099
0.261224
0.256767
0.255881
0.251559
0.246415
0.240643
0.234249
0.227946
0.220888
0.213881
0.202084
0.194579
0.187849
0.184234
0.177963
0.170371
0.161508
0.152094
0.142552
0.133082
0.123622
0.112675
0.102844
0.0932826
0.0836613
0.0739129
0.0640566
0.0540813
0.0438712
0.0330355
0.0288371
0.0174971
0.00770604
-0.00173521
-0.0112469
-0.0211972
-0.0314827
-0.0358846
-0.0483629
-0.0483629
0
0
0.460686
0.435221
0.411358
0.389182
0.368776
0.350166
0.333283
0.317021
0.304069
0.293941
0.286035
0.280095
0.275977
0.27345
0.272201
0.271655
0.271042
0.270124
0.268707
0.266639
0.263919
0.260475
0.244948
0.253521
0.248631
0.242774
0.236395
0.229794
0.22278
0.215347
0.206007
0.198259
0.191275
0.184506
0.177217
0.169214
0.160546
0.151413
0.14202
0.132588
0.123449
0.112102
0.102782
0.0932717
0.0835238
0.0736392
0.0636595
0.0536045
0.0435533
0.0339719
0.026361
0.016748
0.00704751
-0.00248262
-0.011927
-0.0213419
-0.0304022
-0.0381133
-0.0491646
-0.0491646
0
0
0.460666
0.435153
0.411274
0.389165
0.368862
0.350517
0.334821
0.317951
0.30571
0.295904
0.288112
0.282313
0.278367
0.27599
0.274892
0.274594
0.274007
0.273077
0.271638
0.269589
0.26718
0.264088
0.260538
0.256047
0.250857
0.244796
0.238446
0.231754
0.22465
0.217074
0.209005
0.201151
0.193469
0.185633
0.17751
0.169011
0.160137
0.150922
0.141374
0.131371
0.120762
0.113637
0.1037
0.0935854
0.0835373
0.0734899
0.0634259
0.0533825
0.0434742
0.0339385
0.0248243
0.0155357
0.0061793
-0.00307311
-0.0121548
-0.0210002
-0.0305858
-0.0397324
-0.0506389
-0.0506389
0
0
0.460604
0.434937
0.411036
0.38907
0.368846
0.350171
0.332259
0.3208
0.308944
0.299592
0.290996
0.28524
0.281427
0.279127
0.277856
0.277833
0.277055
0.276142
0.274828
0.272855
0.27086
0.267715
0.263685
0.258705
0.213665
0.246771
0.240645
0.233953
0.226782
0.219209
0.211367
0.203388
0.195266
0.186893
0.178246
0.169335
0.160175
0.150775
0.141133
0.131267
0.121463
0.112712
0.10322
0.0933661
0.0833845
0.0733118
0.0632091
0.053138
0.0431558
0.0333802
0.0238237
0.0144788
0.00530114
-0.00369513
-0.0125582
-0.0214507
-0.0309113
-0.0406714
-0.0517113
-0.0517113
0
0
0.460476
0.434399
0.417674
0.38909
0.369129
0.350941
0.334649
0.3219
0.310783
0.301405
0.293992
0.288592
0.285139
0.283634
0.280338
0.280676
0.279767
0.266384
0.278531
0.27679
0.275052
0.271575
0.267264
0.262404
0.25695
0.250407
0.243621
0.236567
0.229194
0.221507
0.213562
0.205387
0.196956
0.188198
0.179159
0.169908
0.160485
0.15091
0.141214
0.131459
0.121788
0.112256
0.102643
0.0929329
0.0830856
0.073032
0.0629043
0.0527736
0.0426239
0.0326374
0.0229367
0.0135487
0.00444292
-0.00441566
-0.0132128
-0.0221561
-0.0314413
-0.0413356
-0.0506389
-0.0523748
0
0
0.460447
0.432872
0.409657
0.388689
0.369535
0.352225
0.337013
0.324189
0.313381
0.304492
0.297538
0.292491
0.289202
0.2872
0.28418
0.0647352
0.282585
0.284019
0.283867
0.282961
0.279075
0.275345
0.271042
0.26618
0.25982
0.253287
0.24646
0.239282
0.231748
0.223892
0.215759
0.207368
0.198676
0.189546
0.180137
0.170586
0.160932
0.151181
0.141379
0.131566
0.121783
0.111919
0.10215
0.0925007
0.0827522
0.0726506
0.0624916
0.0523277
0.0419762
0.0318211
0.02207
0.0126822
0.00360488
-0.00516763
-0.0139572
-0.0229128
-0.0321793
-0.0476315
-0.0531803
-0.0531803
0
0
0.462785
0.429274
0.408997
0.38907
0.370649
0.354089
0.339637
0.327299
0.316953
0.308556
0.302051
0.297338
0.294245
0.292483
0.291745
0.293805
0.292832
0.291756
0.290267
0.288054
0.284446
0.280154
0.275286
0.270099
0.262916
0.256445
0.249549
0.242182
0.234439
0.226356
0.218
0.2094
0.200482
0.190894
0.181104
0.171293
0.161435
0.151482
0.141474
0.131476
0.121551
0.111407
0.101541
0.0919999
0.0823717
0.0721031
0.0619598
0.0519025
0.0413177
0.0310463
0.0213253
0.0119591
0.0028523
-0.00587041
-0.0254284
-0.0236835
-0.0327949
-0.042643
-0.0620299
-0.0539368
0
0
0.460824
0.433444
0.410823
0.390621
0.372577
0.356584
0.342845
0.331228
0.321559
0.313815
0.307843
0.303488
0.300613
0.29916
0.298789
0.299373
0.29915
0.298165
0.296353
0.293595
0.289817
0.285049
0.279341
0.272497
0.267459
0.260517
0.25301
0.245192
0.237224
0.228851
0.220235
0.211446
0.202372
0.192116
0.181976
0.172004
0.161991
0.1518
0.141376
0.13105
0.120968
0.110427
0.100503
0.0911616
0.0817673
0.0711807
0.0612606
0.0516674
0.040818
0.0305703
0.0209908
0.0116262
0.00235819
-0.00616398
-0.0151479
-0.0242975
-0.0334937
-0.0432402
-0.0540732
-0.0540732
0
0
0.460764
0.435387
0.412802
0.392722
0.367242
0.359635
0.346581
0.336129
0.327451
0.32054
0.3152
0.311175
0.308288
0.262468
0.305975
0.306046
0.30568
0.304548
0.302465
0.299364
0.295274
0.290006
0.28385
0.277165
0.270733
0.263636
0.255953
0.24773
0.240121
0.231226
0.222299
0.213317
0.204254
0.192956
0.182749
0.172782
0.162667
0.152395
0.140813
0.129992
0.119461
0.108471
0.0985977
0.0894257
0.0804971
0.069557
0.0603333
0.0518423
0.0408367
0.0309576
0.0215738
0.0120606
0.00230182
-0.00655162
-0.0160293
-0.0252237
-0.0344235
-0.0441436
-0.0549439
-0.0549439
0
0
0.460976
0.436443
0.414458
0.395055
0.378277
0.363897
0.351989
0.342612
0.335028
0.329044
0.324374
0.320648
0.317907
0.316383
0.315029
0.314015
0.312881
0.311175
0.308602
0.305072
0.300629
0.294696
0.288059
0.28113
0.27401
0.266536
0.258625
0.250308
0.241975
0.233059
0.223838
0.214512
0.205513
0.19339
0.183702
0.173745
0.1633
0.152411
0.140598
0.128316
-0.00291439
0.105237
0.095378
0.0856442
0.0772674
0.0673888