# vtk DataFile Version 2.0
FlowField
ASCII
DATASET STRUCTURED_GRID
DIMENSIONS 102 11 11 
POINTS 12342 double
0 0 0
0 0 0.2
0 0 0.4
0 0 0.6
0 0 0.8
0 0 1
0 0 1.2
0 0 1.4
0 0 1.6
0 0 1.8
0 0 2
0 0.1 0
0 0.1 0.2
0 0.1 0.4
0 0.1 0.6
0 0.1 0.8
0 0.1 1
0 0.1 1.2
0 0.1 1.4
0 0.1 1.6
0 0.1 1.8
0 0.1 2
0 0.2 0
0 0.2 0.2
0 0.2 0.4
0 0.2 0.6
0 0.2 0.8
0 0.2 1
0 0.2 1.2
0 0.2 1.4
0 0.2 1.6
0 0.2 1.8
0 0.2 2
0 0.3 0
0 0.3 0.2
0 0.3 0.4
0 0.3 0.6
0 0.3 0.8
0 0.3 1
0 0.3 1.2
0 0.3 1.4
0 0.3 1.6
0 0.3 1.8
0 0.3 2
0 0.4 0
0 0.4 0.2
0 0.4 0.4
0 0.4 0.6
0 0.4 0.8
0 0.4 1
0 0.4 1.2
0 0.4 1.4
0 0.4 1.6
0 0.4 1.8
0 0.4 2
0 0.5 0
0 0.5 0.2
0 0.5 0.4
0 0.5 0.6
0 0.5 0.8
0 0.5 1
0 0.5 1.2
0 0.5 1.4
0 0.5 1.6
0 0.5 1.8
0 0.5 2
0 0.6 0
0 0.6 0.2
0 0.6 0.4
0 0.6 0.6
0 0.6 0.8
0 0.6 1
0 0.6 1.2
0 0.6 1.4
0 0.6 1.6
0 0.6 1.8
0 0.6 2
0 0.7 0
0 0.7 0.2
0 0.7 0.4
0 0.7 0.6
0 0.7 0.8
0 0.7 1
0 0.7 1.2
0 0.7 1.4
0 0.7 1.6
0 0.7 1.8
0 0.7 2
0 0.8 0
0 0.8 0.2
0 0.8 0.4
0 0.8 0.6
0 0.8 0.8
0 0.8 1
0 0.8 1.2
0 0.8 1.4
0 0.8 1.6
0 0.8 1.8
0 0.8 2
0 0.9 0
0 0.9 0.2
0 0.9 0.4
0 0.9 0.6
0 0.9 0.8
0 0.9 1
0 0.9 1.2
0 0.9 1.4
0 0.9 1.6
0 0.9 1.8
0 0.9 2
0 1 0
0 1 0.2
0 1 0.4
0 1 0.6
0 1 0.8
0 1 1
0 1 1.2
0 1 1.4
0 1 1.6
0 1 1.8
0 1 2
0.2 0 0
0.2 0 0.2
0.2 0 0.4
0.2 0 0.6
0.2 0 0.8
0.2 0 1
0.2 0 1.2
0.2 0 1.4
0.2 0 1.6
0.2 0 1.8
0.2 0 2
0.2 0.1 0
0.2 0.1 0.2
0.2 0.1 0.4
0.2 0.1 0.6
0.2 0.1 0.8
0.2 0.1 1
0.2 0.1 1.2
0.2 0.1 1.4
0.2 0.1 1.6
0.2 0.1 1.8
0.2 0.1 2
0.2 0.2 0
0.2 0.2 0.2
0.2 0.2 0.4
0.2 0.2 0.6
0.2 0.2 0.8
0.2 0.2 1
0.2 0.2 1.2
0.2 0.2 1.4
0.2 0.2 1.6
0.2 0.2 1.8
0.2 0.2 2
0.2 0.3 0
0.2 0.3 0.2
0.2 0.3 0.4
0.2 0.3 0.6
0.2 0.3 0.8
0.2 0.3 1
0.2 0.3 1.2
0.2 0.3 1.4
0.2 0.3 1.6
0.2 0.3 1.8
0.2 0.3 2
0.2 0.4 0
0.2 0.4 0.2
0.2 0.4 0.4
0.2 0.4 0.6
0.2 0.4 0.8
0.2 0.4 1
0.2 0.4 1.2
0.2 0.4 1.4
0.2 0.4 1.6
0.2 0.4 1.8
0.2 0.4 2
0.2 0.5 0
0.2 0.5 0.2
0.2 0.5 0.4
0.2 0.5 0.6
0.2 0.5 0.8
0.2 0.5 1
0.2 0.5 1.2
0.2 0.5 1.4
0.2 0.5 1.6
0.2 0.5 1.8
0.2 0.5 2
0.2 0.6 0
0.2 0.6 0.2
0.2 0.6 0.4
0.2 0.6 0.6
0.2 0.6 0.8
0.2 0.6 1
0.2 0.6 1.2
0.2 0.6 1.4
0.2 0.6 1.6
0.2 0.6 1.8
0.2 0.6 2
0.2 0.7 0
0.2 0.7 0.2
0.2 0.7 0.4
0.2 0.7 0.6
0.2 0.7 0.8
0.2 0.7 1
0.2 0.7 1.2
0.2 0.7 1.4
0.2 0.7 1.6
0.2 0.7 1.8
0.2 0.7 2
0.2 0.8 0
0.2 0.8 0.2
0.2 0.8 0.4
0.2 0.8 0.6
0.2 0.8 0.8
0.2 0.8 1
0.2 0.8 1.2
0.2 0.8 1.4
0.2 0.8 1.6
0.2 0.8 1.8
0.2 0.8 2
0.2 0.9 0
0.2 0.9 0.2
0.2 0.9 0.4
0.2 0.9 0.6
0.2 0.9 0.8
0.2 0.9 1
0.2 0.9 1.2
0.2 0.9 1.4
0.2 0.9 1.6
0.2 0.9 1.8
0.2 0.9 2
0.2 1 0
0.2 1 0.2
0.2 1 0.4
0.2 1 0.6
0.2 1 0.8
0.2 1 1
0.2 1 1.2
0.2 1 1.4
0.2 1 1.6
0.2 1 1.8
0.2 1 2
0.4 0 0
0.4 0 0.2
0.4 0 0.4
0.4 0 0.6
0.4 0 0.8
0.4 0 1
0.4 0 1.2
0.4 0 1.4
0.4 0 1.6
0.4 0 1.8
0.4 0 2
0.4 0.1 0
0.4 0.1 0.2
0.4 0.1 0.4
0.4 0.1 0.6
0.4 0.1 0.8
0.4 0.1 1
0.4 0.1 1.2
0.4 0.1 1.4
0.4 0.1 1.6
0.4 0.1 1.8
0.4 0.1 2
0.4 0.2 0
0.4 0.2 0.2
0.4 0.2 0.4
0.4 0.2 0.6
0.4 0.2 0.8
0.4 0.2 1
0.4 0.2 1.2
0.4 0.2 1.4
0.4 0.2 1.6
0.4 0.2 1.8
0.4 0.2 2
0.4 0.3 0
0.4 0.3 0.2
0.4 0.3 0.4
0.4 0.3 0.6
0.4 0.3 0.8
0.4 0.3 1
0.4 0.3 1.2
0.4 0.3 1.4
0.4 0.3 1.6
0.4 0.3 1.8
0.4 0.3 2
0.4 0.4 0
0.4 0.4 0.2
0.4 0.4 0.4
0.4 0.4 0.6
0.4 0.4 0.8
0.4 0.4 1
0.4 0.4 1.2
0.4 0.4 1.4
0.4 0.4 1.6
0.4 0.4 1.8
0.4 0.4 2
0.4 0.5 0
0.4 0.5 0.2
0.4 0.5 0.4
0.4 0.5 0.6
0.4 0.5 0.8
0.4 0.5 1
0.4 0.5 1.2
0.4 0.5 1.4
0.4 0.5 1.6
0.4 0.5 1.8
0.4 0.5 2
0.4 0.6 0
0.4 0.6 0.2
0.4 0.6 0.4
0.4 0.6 0.6
0.4 0.6 0.8
0.4 0.6 1
0.4 0.6 1.2
0.4 0.6 1.4
0.4 0.6 1.6
0.4 0.6 1.8
0.4 0.6 2
0.4 0.7 0
0.4 0.7 0.2
0.4 0.7 0.4
0.4 0.7 0.6
0.4 0.7 0.8
0.4 0.7 1
0.4 0.7 1.2
0.4 0.7 1.4
0.4 0.7 1.6
0.4 0.7 1.8
0.4 0.7 2
0.4 0.8 0
0.4 0.8 0.2
0.4 0.8 0.4
0.4 0.8 0.6
0.4 0.8 0.8
0.4 0.8 1
0.4 0.8 1.2
0.4 0.8 1.4
0.4 0.8 1.6
0.4 0.8 1.8
0.4 0.8 2
0.4 0.9 0
0.4 0.9 0.2
0.4 0.9 0.4
0.4 0.9 0.6
0.4 0.9 0.8
0.4 0.9 1
0.4 0.9 1.2
0.4 0.9 1.4
0.4 0.9 1.6
0.4 0.9 1.8
0.4 0.9 2
0.4 1 0
0.4 1 0.2
0.4 1 0.4
0.4 1 0.6
0.4 1 0.8
0.4 1 1
0.4 1 1.2
0.4 1 1.4
0.4 1 1.6
0.4 1 1.8
0.4 1 2
0.6 0 0
0.6 0 0.2
0.6 0 0.4
0.6 0 0.6
0.6 0 0.8
0.6 0 1
0.6 0 1.2
0.6 0 1.4
0.6 0 1.6
0.6 0 1.8
0.6 0 2
0.6 0.1 0
0.6 0.1 0.2
0.6 0.1 0.4
0.6 0.1 0.6
0.6 0.1 0.8
0.6 0.1 1
0.6 0.1 1.2
0.6 0.1 1.4
0.6 0.1 1.6
0.6 0.1 1.8
0.6 0.1 2
0.6 0.2 0
0.6 0.2 0.2
0.6 0.2 0.4
0.6 0.2 0.6
0.6 0.2 0.8
0.6 0.2 1
0.6 0.2 1.2
0.6 0.2 1.4
0.6 0.2 1.6
0.6 0.2 1.8
0.6 0.2 2
0.6 0.3 0
0.6 0.3 0.2
0.6 0.3 0.4
0.6 0.3 0.6
0.6 0.3 0.8
0.6 0.3 1
0.6 0.3 1.2
0.6 0.3 1.4
0.6 0.3 1.6
0.6 0.3 1.8
0.6 0.3 2
0.6 0.4 0
0.6 0.4 0.2
0.6 0.4 0.4
0.6 0.4 0.6
0.6 0.4 0.8
0.6 0.4 1
0.6 0.4 1.2
0.6 0.4 1.4
0.6 0.4 1.6
0.6 0.4 1.8
0.6 0.4 2
0.6 0.5 0
0.6 0.5 0.2
0.6 0.5 0.4
0.6 0.5 0.6
0.6 0.5 0.8
0.6 0.5 1
0.6 0.5 1.2
0.6 0.5 1.4
0.6 0.5 1.6
0.6 0.5 1.8
0.6 0.5 2
0.6 0.6 0
0.6 0.6 0.2
0.6 0.6 0.4
0.6 0.6 0.6
0.6 0.6 0.8
0.6 0.6 1
0.6 0.6 1.2
0.6 0.6 1.4
0.6 0.6 1.6
0.6 0.6 1.8
0.6 0.6 2
0.6 0.7 0
0.6 0.7 0.2
0.6 0.7 0.4
0.6 0.7 0.6
0.6 0.7 0.8
0.6 0.7 1
0.6 0.7 1.2
0.6 0.7 1.4
0.6 0.7 1.6
0.6 0.7 1.8
0.6 0.7 2
0.6 0.8 0
0.6 0.8 0.2
0.6 0.8 0.4
0.6 0.8 0.6
0.6 0.8 0.8
0.6 0.8 1
0.6 0.8 1.2
0.6 0.8 1.4
0.6 0.8 1.6
0.6 0.8 1.8
0.6 0.8 2
0.6 0.9 0
0.6 0.9 0.2
0.6 0.9 0.4
0.6 0.9 0.6
0.6 0.9 0.8
0.6 0.9 1
0.6 0.9 1.2
0.6 0.9 1.4
0.6 0.9 1.6
0.6 0.9 1.8
0.6 0.9 2
0.6 1 0
0.6 1 0.2
0.6 1 0.4
0.6 1 0.6
0.6 1 0.8
0.6 1 1
0.6 1 1.2
0.6 1 1.4
0.6 1 1.6
0.6 1 1.8
0.6 1 2
0.8 0 0
0.8 0 0.2
0.8 0 0.4
0.8 0 0.6
0.8 0 0.8
0.8 0 1
0.8 0 1.2
0.8 0 1.4
0.8 0 1.6
0.8 0 1.8
0.8 0 2
0.8 0.1 0
0.8 0.1 0.2
0.8 0.1 0.4
0.8 0.1 0.6
0.8 0.1 0.8
0.8 0.1 1
0.8 0.1 1.2
0.8 0.1 1.4
0.8 0.1 1.6
0.8 0.1 1.8
0.8 0.1 2
0.8 0.2 0
0.8 0.2 0.2
0.8 0.2 0.4
0.8 0.2 0.6
0.8 0.2 0.8
0.8 0.2 1
0.8 0.2 1.2
0.8 0.2 1.4
0.8 0.2 1.6
0.8 0.2 1.8
0.8 0.2 2
0.8 0.3 0
0.8 0.3 0.2
0.8 0.3 0.4
0.8 0.3 0.6
0.8 0.3 0.8
0.8 0.3 1
0.8 0.3 1.2
0.8 0.3 1.4
0.8 0.3 1.6
0.8 0.3 1.8
0.8 0.3 2
0.8 0.4 0
0.8 0.4 0.2
0.8 0.4 0.4
0.8 0.4 0.6
0.8 0.4 0.8
0.8 0.4 1
0.8 0.4 1.2
0.8 0.4 1.4
0.8 0.4 1.6
0.8 0.4 1.8
0.8 0.4 2
0.8 0.5 0
0.8 0.5 0.2
0.8 0.5 0.4
0.8 0.5 0.6
0.8 0.5 0.8
0.8 0.5 1
0.8 0.5 1.2
0.8 0.5 1.4
0.8 0.5 1.6
0.8 0.5 1.8
0.8 0.5 2
0.8 0.6 0
0.8 0.6 0.2
0.8 0.6 0.4
0.8 0.6 0.6
0.8 0.6 0.8
0.8 0.6 1
0.8 0.6 1.2
0.8 0.6 1.4
0.8 0.6 1.6
0.8 0.6 1.8
0.8 0.6 2
0.8 0.7 0
0.8 0.7 0.2
0.8 0.7 0.4
0.8 0.7 0.6
0.8 0.7 0.8
0.8 0.7 1
0.8 0.7 1.2
0.8 0.7 1.4
0.8 0.7 1.6
0.8 0.7 1.8
0.8 0.7 2
0.8 0.8 0
0.8 0.8 0.2
0.8 0.8 0.4
0.8 0.8 0.6
0.8 0.8 0.8
0.8 0.8 1
0.8 0.8 1.2
0.8 0.8 1.4
0.8 0.8 1.6
0.8 0.8 1.8
0.8 0.8 2
0.8 0.9 0
0.8 0.9 0.2
0.8 0.9 0.4
0.8 0.9 0.6
0.8 0.9 0.8
0.8 0.9 1
0.8 0.9 1.2
0.8 0.9 1.4
0.8 0.9 1.6
0.8 0.9 1.8
0.8 0.9 2
0.8 1 0
0.8 1 0.2
0.8 1 0.4
0.8 1 0.6
0.8 1 0.8
0.8 1 1
0.8 1 1.2
0.8 1 1.4
0.8 1 1.6
0.8 1 1.8
0.8 1 2
1 0 0
1 0 0.2
1 0 0.4
1 0 0.6
1 0 0.8
1 0 1
1 0 1.2
1 0 1.4
1 0 1.6
1 0 1.8
1 0 2
1 0.1 0
1 0.1 0.2
1 0.1 0.4
1 0.1 0.6
1 0.1 0.8
1 0.1 1
1 0.1 1.2
1 0.1 1.4
1 0.1 1.6
1 0.1 1.8
1 0.1 2
1 0.2 0
1 0.2 0.2
1 0.2 0.4
1 0.2 0.6
1 0.2 0.8
1 0.2 1
1 0.2 1.2
1 0.2 1.4
1 0.2 1.6
1 0.2 1.8
1 0.2 2
1 0.3 0
1 0.3 0.2
1 0.3 0.4
1 0.3 0.6
1 0.3 0.8
1 0.3 1
1 0.3 1.2
1 0.3 1.4
1 0.3 1.6
1 0.3 1.8
1 0.3 2
1 0.4 0
1 0.4 0.2
1 0.4 0.4
1 0.4 0.6
1 0.4 0.8
1 0.4 1
1 0.4 1.2
1 0.4 1.4
1 0.4 1.6
1 0.4 1.8
1 0.4 2
1 0.5 0
1 0.5 0.2
1 0.5 0.4
1 0.5 0.6
1 0.5 0.8
1 0.5 1
1 0.5 1.2
1 0.5 1.4
1 0.5 1.6
1 0.5 1.8
1 0.5 2
1 0.6 0
1 0.6 0.2
1 0.6 0.4
1 0.6 0.6
1 0.6 0.8
1 0.6 1
1 0.6 1.2
1 0.6 1.4
1 0.6 1.6
1 0.6 1.8
1 0.6 2
1 0.7 0
1 0.7 0.2
1 0.7 0.4
1 0.7 0.6
1 0.7 0.8
1 0.7 1
1 0.7 1.2
1 0.7 1.4
1 0.7 1.6
1 0.7 1.8
1 0.7 2
1 0.8 0
1 0.8 0.2
1 0.8 0.4
1 0.8 0.6
1 0.8 0.8
1 0.8 1
1 0.8 1.2
1 0.8 1.4
1 0.8 1.6
1 0.8 1.8
1 0.8 2
1 0.9 0
1 0.9 0.2
1 0.9 0.4
1 0.9 0.6
1 0.9 0.8
1 0.9 1
1 0.9 1.2
1 0.9 1.4
1 0.9 1.6
1 0.9 1.8
1 0.9 2
1 1 0
1 1 0.2
1 1 0.4
1 1 0.6
1 1 0.8
1 1 1
1 1 1.2
1 1 1.4
1 1 1.6
1 1 1.8
1 1 2
1.2 0 0
1.2 0 0.2
1.2 0 0.4
1.2 0 0.6
1.2 0 0.8
1.2 0 1
1.2 0 1.2
1.2 0 1.4
1.2 0 1.6
1.2 0 1.8
1.2 0 2
1.2 0.1 0
1.2 0.1 0.2
1.2 0.1 0.4
1.2 0.1 0.6
1.2 0.1 0.8
1.2 0.1 1
1.2 0.1 1.2
1.2 0.1 1.4
1.2 0.1 1.6
1.2 0.1 1.8
1.2 0.1 2
1.2 0.2 0
1.2 0.2 0.2
1.2 0.2 0.4
1.2 0.2 0.6
1.2 0.2 0.8
1.2 0.2 1
1.2 0.2 1.2
1.2 0.2 1.4
1.2 0.2 1.6
1.2 0.2 1.8
1.2 0.2 2
1.2 0.3 0
1.2 0.3 0.2
1.2 0.3 0.4
1.2 0.3 0.6
1.2 0.3 0.8
1.2 0.3 1
1.2 0.3 1.2
1.2 0.3 1.4
1.2 0.3 1.6
1.2 0.3 1.8
1.2 0.3 2
1.2 0.4 0
1.2 0.4 0.2
1.2 0.4 0.4
1.2 0.4 0.6
1.2 0.4 0.8
1.2 0.4 1
1.2 0.4 1.2
1.2 0.4 1.4
1.2 0.4 1.6
1.2 0.4 1.8
1.2 0.4 2
1.2 0.5 0
1.2 0.5 0.2
1.2 0.5 0.4
1.2 0.5 0.6
1.2 0.5 0.8
1.2 0.5 1
1.2 0.5 1.2
1.2 0.5 1.4
1.2 0.5 1.6
1.2 0.5 1.8
1.2 0.5 2
1.2 0.6 0
1.2 0.6 0.2
1.2 0.6 0.4
1.2 0.6 0.6
1.2 0.6 0.8
1.2 0.6 1
1.2 0.6 1.2
1.2 0.6 1.4
1.2 0.6 1.6
1.2 0.6 1.8
1.2 0.6 2
1.2 0.7 0
1.2 0.7 0.2
1.2 0.7 0.4
1.2 0.7 0.6
1.2 0.7 0.8
1.2 0.7 1
1.2 0.7 1.2
1.2 0.7 1.4
1.2 0.7 1.6
1.2 0.7 1.8
1.2 0.7 2
1.2 0.8 0
1.2 0.8 0.2
1.2 0.8 0.4
1.2 0.8 0.6
1.2 0.8 0.8
1.2 0.8 1
1.2 0.8 1.2
1.2 0.8 1.4
1.2 0.8 1.6
1.2 0.8 1.8
1.2 0.8 2
1.2 0.9 0
1.2 0.9 0.2
1.2 0.9 0.4
1.2 0.9 0.6
1.2 0.9 0.8
1.2 0.9 1
1.2 0.9 1.2
1.2 0.9 1.4
1.2 0.9 1.6
1.2 0.9 1.8
1.2 0.9 2
1.2 1 0
1.2 1 0.2
1.2 1 0.4
1.2 1 0.6
1.2 1 0.8
1.2 1 1
1.2 1 1.2
1.2 1 1.4
1.2 1 1.6
1.2 1 1.8
1.2 1 2
1.4 0 0
1.4 0 0.2
1.4 0 0.4
1.4 0 0.6
1.4 0 0.8
1.4 0 1
1.4 0 1.2
1.4 0 1.4
1.4 0 1.6
1.4 0 1.8
1.4 0 2
1.4 0.1 0
1.4 0.1 0.2
1.4 0.1 0.4
1.4 0.1 0.6
1.4 0.1 0.8
1.4 0.1 1
1.4 0.1 1.2
1.4 0.1 1.4
1.4 0.1 1.6
1.4 0.1 1.8
1.4 0.1 2
1.4 0.2 0
1.4 0.2 0.2
1.4 0.2 0.4
1.4 0.2 0.6
1.4 0.2 0.8
1.4 0.2 1
1.4 0.2 1.2
1.4 0.2 1.4
1.4 0.2 1.6
1.4 0.2 1.8
1.4 0.2 2
1.4 0.3 0
1.4 0.3 0.2
1.4 0.3 0.4
1.4 0.3 0.6
1.4 0.3 0.8
1.4 0.3 1
1.4 0.3 1.2
1.4 0.3 1.4
1.4 0.3 1.6
1.4 0.3 1.8
1.4 0.3 2
1.4 0.4 0
1.4 0.4 0.2
1.4 0.4 0.4
1.4 0.4 0.6
1.4 0.4 0.8
1.4 0.4 1
1.4 0.4 1.2
1.4 0.4 1.4
1.4 0.4 1.6
1.4 0.4 1.8
1.4 0.4 2
1.4 0.5 0
1.4 0.5 0.2
1.4 0.5 0.4
1.4 0.5 0.6
1.4 0.5 0.8
1.4 0.5 1
1.4 0.5 1.2
1.4 0.5 1.4
1.4 0.5 1.6
1.4 0.5 1.8
1.4 0.5 2
1.4 0.6 0
1.4 0.6 0.2
1.4 0.6 0.4
1.4 0.6 0.6
1.4 0.6 0.8
1.4 0.6 1
1.4 0.6 1.2
1.4 0.6 1.4
1.4 0.6 1.6
1.4 0.6 1.8
1.4 0.6 2
1.4 0.7 0
1.4 0.7 0.2
1.4 0.7 0.4
1.4 0.7 0.6
1.4 0.7 0.8
1.4 0.7 1
1.4 0.7 1.2
1.4 0.7 1.4
1.4 0.7 1.6
1.4 0.7 1.8
[...]
POINT_DATA 12342

SCALARS u double
LOOKUP_TABLE default
1
-1
-1
-1
-1
-1
-1
-1
-1
-1
1
-1
1
1
1
1
1
1
1
1
1
-1
-1
1
1
1
1
1
1
1
1
1
-1
-1
1
1
1
1
1
1
1
1
1
-1
-1
1
1
1
1
1
1
1
1
1
-1
-1
1
1
1
1
1
1
1
1
1
-1
-1
1
1
1
1
1
1
1
1
1
-1
-1
1
1
1
1
1
1
1
1
1
-1
-1
1
1
1
1
1
1
1
1
1
-1
-1
1
1
1
1
1
1
1
1
1
-1
1
-1
-1
-1
-1
-1
-1
-1
-1
-1
1
-6.87633e+15
6.87633e+15
-2.11571e+16
2.98214e+16
-1.56796e+16
3.56016e+16
-1.0251e+17
2.26507e+17
-2.05649e+17
3.19608e+16
-3.19608e+16
6.87633e+15
-2.63521e+31
-2.45697e+32
-1.58587e+32
-4.85685e+32
2.54869e+33
-2.35256e+33
3.02802e+33
-9.52841e+33
8.06062e+33
3.19608e+16
6.9684e+15
-2.11526e+31
-2.58675e+32
-1.66049e+32
-4.97213e+32
2.5292e+33
-2.1782e+33
2.41389e+33
-1.06068e+34
8.56044e+33
3.24351e+16
7.05578e+15
-1.57637e+31
-2.66794e+32
-1.65019e+32
-5.10024e+32
2.65247e+33
-2.30796e+33
2.54612e+33
-1.1092e+34
8.89753e+33
3.29325e+16
7.10783e+15
-1.24484e+31
-2.71586e+32
-1.64115e+32
-5.17163e+32
2.72855e+33
-2.38167e+33
2.63543e+33
-1.13623e+34
9.09025e+33
3.32481e+16
7.11343e+15
-1.15713e+31
-2.72381e+32
-1.63441e+32
-5.17446e+32
2.74303e+33
-2.39461e+33
2.65266e+33
-1.14029e+34
9.11224e+33
3.32919e+16
7.07002e+15
-1.31447e+31
-2.69104e+32
-1.62941e+32
-5.10496e+32
2.69365e+33
-2.34823e+33
2.5928e+33
-1.12117e+34
8.95689e+33
3.3037e+16
6.97995e+15
-1.70806e+31
-2.6205e+32
-1.62869e+32
-4.96607e+32
2.58348e+33
-2.24085e+33
2.45388e+33
-1.0794e+34
8.63169e+33
3.25005e+16
6.85288e+15
-2.31556e+31
-2.51763e+32
-1.63265e+32
-4.77043e+32
2.4247e+33
-2.08473e+33
2.27024e+33
-1.01574e+34
8.16287e+33
3.17573e+16
6.71604e+15
-3.18495e+31
-2.31619e+32
-1.54253e+32
-4.60334e+32
2.37881e+33
-2.21486e+33
2.94936e+33
-8.69032e+33
7.48751e+33
3.09995e+16
-6.71604e+15
6.71604e+15
-2.00774e+16
2.81108e+16
-1.50866e+16
3.45914e+16
-1.00444e+17
2.14191e+17
-1.97297e+17
3.09995e+16
-3.09995e+16
-1.14051e+16
1.14051e+16
-2.34515e+16
3.91733e+16
-1.75068e+16
9.13268e+16
-2.1654e+17
3.45038e+17
-2.9843e+17
6.09179e+16
-6.09179e+16
1.14051e+16
-1.31549e+32
-3.0089e+32
-2.65275e+32
-6.51376e+32
2.55066e+33
-4.27343e+33
5.21361e+33
-8.6266e+33
6.66945e+33
6.09179e+16
1.1601e+16
-1.28337e+32
-3.10532e+32
-2.6289e+32
-6.73518e+32
2.69958e+33
-4.6522e+33
5.516e+33
-9.4903e+33
7.13603e+33
6.22815e+16
1.17443e+16
-1.25005e+32
-3.16844e+32
-2.59588e+32
-6.8897e+32
2.86013e+33
-4.86466e+33
5.85364e+33
-9.90518e+33
7.42591e+33
6.33754e+16
1.18227e+16
-1.23033e+32
-3.20281e+32
-2.57852e+32
-6.96911e+32
2.94705e+33
-4.9772e+33
6.04142e+33
-1.01277e+34
7.5827e+33
6.40018e+16
1.18298e+16
-1.22351e+32
-3.20547e+32
-2.56798e+32
-6.9707e+32
2.96201e+33
-4.99184e+33
6.07613e+33
-1.01587e+34
7.59941e+33
6.4086e+16
1.17645e+16
-1.2293e+32
-3.17673e+32
-2.56117e+32
-6.89297e+32
2.90642e+33
-4.90999e+33
5.95976e+33
-9.99776e+33
7.47348e+33
6.36038e+16
1.16277e+16
-1.24806e+32
-3.11862e+32
-2.56206e+32
-6.7375e+32
2.77978e+33
-4.73135e+33
5.68606e+33
-9.64583e+33
7.20641e+33
6.25631e+16
1.14235e+16
-1.28054e+32
-3.03456e+32
-2.57848e+32
-6.5077e+32
2.58272e+33
-4.45907e+33
5.25763e+33
-9.1005e+33
6.80432e+33
6.10185e+16
1.11653e+16
-1.33102e+32
-2.89839e+32
-2.62085e+32
-6.21224e+32
2.35274e+33
-3.95215e+33
4.79261e+33
-7.96807e+33
6.20684e+33
5.91554e+16
-1.11653e+16
1.11653e+16
-2.21882e+16
3.73858e+16
-1.63176e+16
8.80625e+16
-2.07976e+17
3.28354e+17
-2.86652e+17
5.91554e+16
-5.91554e+16
-8.50273e+15
8.50273e+15
2.53636e+15
1.631e+16
-2.68123e+15
4.32623e+16
-9.28163e+16
8.13666e+16
-8.21921e+16
2.81638e+16
-2.81638e+16
8.50273e+15
-1.87381e+32
-2.34963e+32
-2.63199e+32
-3.86375e+32
2.40508e+32
-9.71199e+32
1.61948e+33
-8.79781e+32
8.90018e+32
2.81638e+16
8.54688e+15
-1.8743e+32
-2.35604e+32
-2.61581e+32
-3.90206e+32
2.68685e+32
-1.04419e+33
1.79174e+33
-8.74862e+32
9.18115e+32
2.85994e+16
8.58352e+15
-1.87335e+32
-2.36133e+32
-2.61039e+32
-3.93159e+32
2.90301e+32
-1.05752e+33
1.89026e+33
-8.99499e+32
9.38048e+32
2.89891e+16
8.60213e+15
-1.87151e+32
-2.36355e+32
-2.60567e+32
-3.9461e+32
3.03973e+32
-1.06743e+33
1.9492e+33
-9.15046e+32
9.48345e+32
2.9222e+16
8.59883e+15
-1.86873e+32
-2.36048e+32
-2.59921e+32
-3.93984e+32
3.07003e+32
-1.067e+33
1.96084e+33
-9.17464e+32
9.47114e+32
2.92496e+16
8.57315e+15
-1.86517e+32
-2.35177e+32
-2.59043e+32
-3.9114e+32
2.98881e+32
-1.05421e+33
1.92325e+33
-9.05986e+32
9.33911e+32
2.9057e+16
8.52718e+15
-1.86137e+32
-2.33857e+32
-2.58156e+32
-3.86434e+32
2.7978e+32
-1.03093e+33
1.83736e+33
-8.81387e+32
9.09888e+32
2.8656e+16
8.46689e+15
-1.85821e+32
-2.32358e+32
-2.57751e+32
-3.80848e+32
2.51359e+32
-1.0022e+33
1.70943e+33
-8.47674e+32
8.78062e+32
2.80957e+16
8.40459e+15
-1.85625e+32
-2.31426e+32
-2.59435e+32
-3.75842e+32
2.13206e+32
-9.23692e+32
1.47628e+33
-8.48627e+32
8.40967e+32
2.75024e+16
-8.40459e+15
8.40459e+15
2.64213e+15
1.59976e+16
-2.08352e+15
4.19423e+16
-8.88688e+16
7.81999e+16
-7.93895e+16
2.75024e+16
-2.75024e+16
-6.54779e+15
6.54779e+15
5.77546e+15
8.80773e+15
3.5209e+15
7.79525e+15
-2.77774e+16
4.93543e+15
-1.64797e+16
8.1824e+15
-8.1824e+15
6.54779e+15
-1.7214e+32
-1.88685e+32
-1.95916e+32
-2.09103e+32
-3.5907e+31
-7.68562e+31
4.41652e+32
8.35885e+31
3.05629e+32
8.1824e+15
6.5545e+15
-1.72124e+32
-1.88764e+32
-1.95719e+32
-2.0963e+32
-3.21657e+31
-6.94106e+31
4.64846e+32
9.2193e+31
3.08237e+32
8.26598e+15
6.55986e+15
-1.72061e+32
-1.88802e+32
-1.95536e+32
-2.10016e+32
-2.88864e+31
-6.47869e+31
4.85544e+32
9.59787e+31
3.10749e+32
8.35218e+15
6.56107e+15
-1.71938e+32
-1.88727e+32
-1.95298e+32
-2.10054e+32
-2.6451e+31
-6.15753e+31
4.98528e+32
9.75203e+31
3.1183e+32
8.40766e+15
6.55679e+15
-1.71749e+32
-1.88495e+32
-1.94957e+32
-2.09679e+32
-2.57876e+31
-6.04697e+31
5.00707e+32
9.7223e+31
3.10782e+32
8.4148e+15
6.54712e+15
-1.71511e+32
-1.88109e+32
-1.94528e+32
-2.08911e+32
-2.72034e+31
-6.16255e+31
4.91113e+32
9.51802e+31
3.075e+32
8.36797e+15
6.53337e+15
-1.71259e+32
-1.87632e+32
-1.94098e+32
-2.07861e+32
-3.05194e+31
-6.49607e+31
4.7052e+32
9.1389e+31
3.02492e+32
8.27262e+15
6.51829e+15
-1.71046e+32
-1.87176e+32
-1.93816e+32
-2.06738e+32
-3.50055e+31
-6.98755e+31
4.41899e+32
8.5526e+31
2.96908e+32
8.148e+15
6.50549e+15
-1.70924e+32
-1.86886e+32
-1.93822e+32
-2.05812e+32
-4.02664e+31
-8.11444e+31
4.10095e+32
7.46016e+31
2.92544e+32
8.03377e+15
-6.50549e+15
6.50549e+15
5.75385e+15
8.72155e+15
3.62228e+15
7.69281e+15
-2.67453e+16
4.81077e+15
-1.60238e+16
8.03377e+15
-8.03377e+15
-5.01702e+15
5.01702e+15
4.77924e+15
4.96263e+15
2.55273e+15
-3.01605e+13
-8.87218e+15
-3.98102e+15
-5.2034e+15
1.03737e+15
-1.03737e+15
5.01702e+15
-1.41784e+32
-1.4346e+32
-1.35708e+32
-1.12728e+32
-3.38626e+31
3.99551e+31
1.76579e+32
1.49037e+32
1.95315e+32
1.03737e+15
5.01748e+15
-1.41761e+32
-1.43448e+32
-1.35656e+32
-1.12699e+32
-3.32059e+31
4.23356e+31
1.8004e+32
1.50755e+32
1.95919e+32
1.05067e+15
5.0172e+15
-1.4171e+32
-1.43406e+32
-1.35563e+32
-1.12602e+32
-3.23632e+31
4.45601e+31
1.84053e+32
1.52343e+32
1.96553e+32
1.06644e+15
5.01576e+15
-1.41628e+32
-1.43323e+32
-1.35438e+32
-1.12465e+32
-3.17374e+31
4.60391e+31
1.8666e+32
1.53129e+32
1.967e+32
1.07811e+15
5.01297e+15
-1.41516e+32
-1.43194e+32
-1.35289e+32
-1.12328e+32
-3.16285e+31
4.62189e+31
1.86751e+32
1.52761e+32
1.96054e+32
1.08154e+15
5.00904e+15
-1.41387e+32
-1.43031e+32
-1.35131e+32
-1.1222e+32
-3.21464e+31
4.49217e+31
1.83991e+32
1.51169e+32
1.94583e+32
1.07514e+15
5.00455e+15
-1.41258e+32
-1.42857e+32
-1.3499e+32
-1.12152e+32
-3.31916e+31
4.23487e+31
1.78814e+32
1.48575e+32
1.92541e+32
1.06004e+15
5.0004e+15
-1.41153e+32
-1.42708e+32
-1.34895e+32
-1.12115e+32
-3.446e+31
3.90863e+31
1.72508e+32
1.45507e+32
1.90458e+32
1.04043e+15
4.99747e+15
-1.41094e+32
-1.42621e+32
-1.34857e+32
-1.12096e+32
-3.54951e+31
3.56577e+31
1.67423e+32
1.42844e+32
1.89055e+32
1.02387e+15
-4.99747e+15
4.99747e+15
4.76255e+15
4.93718e+15
2.57411e+15
2.18875e+13
-8.61219e+15
-3.88674e+15
-5.09165e+15
1.02387e+15
-1.02387e+15
-3.71068e+15
3.71068e+15
3.45542e+15
2.93033e+15
1.3903e+15
-7.71166e+14
-3.61011e+15
-3.25511e+15
-2.82207e+15
-1.02678e+15
1.02678e+15
3.71068e+15
-1.1e+32
-1.05809e+32
-9.2698e+31
-6.59551e+31
-1.73787e+31
3.94017e+31
9.93335e+31
1.1796e+32
1.36392e+32
-1.02678e+15
3.71039e+15
-1.09984e+32
-1.05794e+32
-9.26743e+31
-6.59157e+31
-1.72139e+31
3.98777e+31
9.9942e+31
1.18286e+32
1.36509e+32
-1.02464e+15
3.7097e+15
-1.09952e+32
-1.05762e+32
-9.26313e+31
-6.58513e+31
-1.69905e+31
4.04353e+31
1.00699e+32
1.18634e+32
1.36602e+32
-1.02155e+15
3.70861e+15
-1.09906e+32
-1.05714e+32
-9.25781e+31
-6.57929e+31
-1.68457e+31
4.07707e+31
1.01133e+32
1.18733e+32
1.36504e+32
-1.01837e+15
3.70717e+15
-1.09848e+32
-1.05654e+32
-9.25241e+31
-6.57689e+31
-1.68826e+31
4.06734e+31
1.00929e+32
1.18418e+32
1.36112e+32
-1.01579e+15
3.70553e+15
-1.09784e+32
-1.05588e+32
-9.24775e+31
-6.57921e+31
-1.71337e+31
4.00845e+31
1.00005e+32
1.17663e+32
1.35426e+32
-1.01428e+15
3.70394e+15
-1.09724e+32
-1.05525e+32
-9.24439e+31
-6.58545e+31
-1.75472e+31
3.91149e+31
9.8538e+31
1.16602e+32
1.34567e+32
-1.01398e+15
3.70264e+15
-1.09677e+32
-1.05475e+32
-9.24251e+31
-6.59292e+31
-1.79952e+31
3.80356e+31
9.69523e+31
1.15511e+32
1.33755e+32
-1.01463e+15
3.70185e+15
-1.09652e+32
-1.05448e+32
-9.24188e+31
-6.59819e+31
-1.83048e+31
3.72257e+31
9.58576e+31
1.1477e+32
1.33248e+32
-1.01558e+15
-3.70185e+15
3.70185e+15
3.44786e+15
2.92503e+15
1.40231e+15
-7.34615e+14
-3.53002e+15
-3.19873e+15
-2.7792e+15
-1.01558e+15
1.01558e+15
-2.66467e+15
2.66467e+15
2.4052e+15
1.83867e+15
8.05339e+14
-5.2874e+14
-1.80332e+15
-2.10044e+15
-1.92415e+15
-1.40224e+15
1.40224e+15
2.66467e+15
-8.24164e+31
-7.67746e+31
-6.36513e+31
-4.11393e+31
-8.29917e+30
2.93148e+31
6.43158e+31
8.45405e+31
9.61382e+31
-1.40224e+15
2.66446e+15
-8.2408e+31
-7.67665e+31
-6.36424e+31
-4.11266e+31
-8.26363e+30
2.93988e+31
6.44134e+31
8.45836e+31
9.6138e+31
-1.40168e+15
2.66406e+15
-8.23915e+31
-7.67509e+31
-6.3627e+31
-4.11092e+31
-8.22104e+30
2.94947e+31
6.45216e+31
8.46091e+31
9.61021e+31
-1.40063e+15
2.66351e+15
-8.23685e+31
-7.67295e+31
-6.36098e+31
-4.11002e+31
-8.21139e+30
2.95193e+31
6.45325e+31
8.45446e+31
9.59859e+31
-1.39914e+15
2.66287e+15
-8.23413e+31
-7.67048e+31
-6.35954e+31
-4.11106e+31
-8.26496e+30
2.94139e+31
6.43703e+31
8.43439e+31
9.57628e+31
-1.3973e+15
2.66222e+15
-8.23129e+31
-7.668e+31
-6.35866e+31
-4.11436e+31
-8.3877e+30
2.9168e+31
6.40242e+31
8.40092e+31
9.54438e+31
-1.39532e+15
2.66165e+15
-8.22869e+31
-7.6658e+31
-6.35839e+31
-4.11921e+31
-8.55598e+30
2.8828e+31
6.3559e+31
8.35988e+31
9.50813e+31
-1.39346e+15
2.66122e+15
-8.22672e+31
-7.66417e+31
-6.35853e+31
-4.12409e+31
-8.72152e+30
2.84888e+31
6.31037e+31
8.32156e+31
9.47595e+31
-1.39203e+15
2.66099e+15
-8.22566e+31
-7.66331e+31
-6.35876e+31
-4.12721e+31
-8.82666e+30
2.82684e+31
6.28156e+31
8.29792e+31
9.45683e+31
-1.39127e+15
-2.66099e+15
2.66099e+15
2.40253e+15
1.83874e+15
8.12923e+14
-5.10325e+14
-1.7734e+15
-2.07392e+15
-1.90421e+15
-1.39127e+15
1.39127e+15
-1.88018e+15
1.88018e+15
1.66103e+15
1.20992e+15
5.19278e+14
-2.97909e+14
-1.01619e+15
-1.35172e+15
-1.38595e+15
-1.26657e+15
1.26657e+15
1.88018e+15
-6.04707e+31
-5.51966e+31
-4.4085e+31
-2.67701e+31
-3.97487e+30
2.11047e+31
4.38616e+31
5.94504e+31
6.76923e+31
-1.26657e+15
1.88009e+15
-6.04669e+31
-5.51933e+31
-4.40828e+31
-2.6769e+31
-3.97228e+30
2.11117e+31
4.38662e+31
5.94421e+31
6.7674e+31
-1.26628e+15
1.87991e+15
-6.04595e+31
-5.51872e+31
-4.40794e+31
-2.67694e+31
-3.97437e+30
2.11107e+31
4.38579e+31
5.94128e+31
6.76293e+31
-1.26568e+15
1.87969e+15
-6.04495e+31
-5.51792e+31
-4.40765e+31
-2.67754e+31
-3.99133e+30
2.10829e+31
4.38139e+31
5.93466e+31
6.75487e+31
-1.26478e+15
1.87944e+15
-6.04379e+31
-5.51705e+31
-4.40756e+31
-2.67901e+31
-4.03017e+30
2.10153e+31
4.37193e+31
5.92352e+31
6.74291e+31
-1.26362e+15
1.87921e+15
-6.04261e+31
-5.51622e+31
-4.40774e+31
-2.68132e+31
-4.09002e+30
2.09096e+31
4.35774e+31
5.90854e+31
6.72797e+31
-1.2623e+15
1.87902e+15
-6.04157e+31
-5.51553e+31
-4.40813e+31
-2.68406e+31
-4.1606e+30
2.07839e+31
4.34122e+31
5.89211e+31
6.71233e+31
-1.26102e+15
1.87888e+15
-6.04079e+31
-5.51505e+31
-4.40856e+31
-2.68656e+31
-4.22452e+30
2.06691e+31
4.32635e+31
5.87784e+31
6.69916e+31
-1.25999e+15
1.87882e+15
-6.04039e+31
-5.51481e+31
-4.40886e+31
-2.68807e+31
-4.26296e+30
2.05998e+31
4.31746e+31
5.86948e+31
6.6916e+31
-1.25942e+15
-1.87882e+15
1.87882e+15
1.66036e+15
1.21095e+15
5.23663e+14
-2.89132e+14
-1.00371e+15
-1.33957e+15
-1.37613e+15
-1.25942e+15
1.25942e+15
-1.31537e+15
1.31537e+15
1.14875e+15
8.21419e+14
3.59414e+14
-1.60069e+14
-6.15922e+14
-8.95652e+14
-1.00506e+15
-1.01348e+15
1.01348e+15
1.31537e+15
-4.37989e+31
-3.94631e+31
-3.075e+31
-1.79086e+31
-1.91939e+30
1.51471e+31
3.05472e+31
4.17277e+31
4.76189e+31
-1.01348e+15
1.31534e+15
-4.37974e+31
-3.94621e+31
-3.07502e+31
-1.79103e+31
-1.92285e+30
1.5142e+31
3.05393e+31
4.17159e+31
4.76043e+31
-1.0133e+15
1.31528e+15
-4.37945e+31
-3.94603e+31
-3.07507e+31
-1.79145e+31
-1.93132e+30
1.51289e+31
3.05204e+31
4.169e+31
4.75739e+31
-1.01293e+15
1.31521e+15
-4.37907e+31
-3.94581e+31
-3.0752e+31
-1.79219e+31
-1.94684e+30
1.51044e+31
3.04866e+31
4.16479e+31
4.7527e+31
-1.01239e+15
1.31513e+15
-4.37863e+31
-3.94557e+31
-3.07545e+31
-1.7933e+31
-1.97019e+30
1.5067e+31
3.04366e+31
4.15899e+31
4.74653e+31
-1.01171e+15
1.31506e+15
-4.3782e+31
-3.94537e+31
-3.07581e+31
-1.79468e+31
-1.99967e+30
1.50194e+31
3.03743e+31
4.15212e+31
4.73947e+31
-1.01097e+15
1.31501e+15
-4.37782e+31
-3.94522e+31
-3.07621e+31
-1.79614e+31
-2.03078e+30
1.49689e+31
3.03092e+31
4.14518e+31
4.73252e+31
-1.01025e+15
1.31498e+15
-4.37755e+31
-3.94512e+31
-3.07657e+31
-1.79738e+31
-2.05711e+30
1.4926e+31
3.02544e+31
4.13947e+31
4.72691e+31
-1.00969e+15
1.31497e+15
-4.37741e+31
-3.94508e+31
-3.07679e+31
-1.79809e+31
-2.07233e+30
1.49012e+31
3.0223e+31
4.13623e+31
4.72376e+31
-1.00938e+15
-1.31497e+15
1.31497e+15
1.14874e+15
8.22318e+14
3.61801e+14
-1.55902e+14
-6.10391e+14
-8.90017e+14
-1.00015e+15
-1.00938e+15
1.00938e+15
-9.17313e+14
9.17313e+14
7.97237e+14
5.67915e+14
2.56715e+14
-8.54903e+13
-3.92297e+14
-6.09039e+14
-7.26636e+14
-7.69664e+14
7.69664e+14
9.17313e+14
-3.1463e+31
-2.81121e+31
-2.15502e+31
-1.2195e+31
-9.20622e+29
1.08714e+31
2.14769e+31
2.934e+31
3.35097e+31
-7.69664e+14
9.17308e+14
-3.14626e+31
-2.8112e+31
-2.15509e+31
-1.21968e+31
-9.23812e+29
1.08667e+31
2.14705e+31
2.93321e+31
3.35009e+31
-7.69551e+14
9.17297e+14
-3.14617e+31
-2.81118e+31
-2.15522e+31
-1.22004e+31
-9.30351e+29
1.08569e+31
2.14575e+31
2.93163e+31
3.34835e+31
-7.69334e+14
9.17283e+14
-3.14605e+31
-2.81116e+31
-2.15541e+31
-1.22058e+31
-9.40317e+29
1.0842e+31
2.14379e+31
2.9293e+31
3.34583e+31
-7.69026e+14
9.17272e+14
-3.14592e+31
-2.81115e+31
-2.15567e+31
-1.22128e+31
-9.53279e+29
1.08224e+31
2.14125e+31
2.92638e+31
3.34273e+31
-7.68652e+14
9.17264e+14
-3.1458e+31
-2.81116e+31
-2.15597e+31
-1.22207e+31
-9.67992e+29
1.08001e+31
2.13839e+31
2.92316e+31
3.33936e+31
-7.68254e+14
9.17261e+14
-3.14569e+31
-2.81117e+31
-2.15626e+31
-1.22284e+31
-9.82402e+29
1.07782e+31
2.13561e+31
2.92008e+31
3.33618e+31
-7.67883e+14
9.17262e+14
-3.14561e+31
-2.81119e+31
-2.1565e+31
-1.22346e+31
-9.94016e+29
1.07606e+31
2.13337e+31
2.91764e+31
3.33369e+31
-7.67594e+14
9.17265e+14
-3.14558e+31
-2.81121e+31
-2.15664e+31
-1.22381e+31
-1.00054e+30
1.07507e+31
2.13212e+31
2.91629e+31
3.33232e+31
-7.67434e+14
-9.17265e+14
9.17265e+14
7.974e+14
5.6852e+14
2.57978e+14
-8.34925e+13
-3.89753e+14
-6.06375e+14
-7.24168e+14
-7.67434e+14
7.67434e+14
-6.39359e+14
6.39359e+14
5.55012e+14
3.96337e+14
1.84802e+14
-4.6504e+13
-2.59009e+14
-4.21716e+14
-5.23384e+14
-5.69388e+14
5.69388e+14
6.39359e+14
-2.24779e+31
-1.99739e+31
-1.51441e+31
-8.39615e+30
-4.2448e+29
7.80107e+30
1.51723e+31
2.06766e+31
2.36089e+31
-5.69388e+14
6.39362e+14
-2.24779e+31
-1.9974e+31
-1.51447e+31
-8.3974e+30
-4.26535e+29
7.79814e+30
1.51685e+31
2.06722e+31
2.36041e+31
-5.69324e+14
6.39367e+14
-2.24778e+31
-1.99743e+31
-1.51458e+31
-8.39979e+30
-4.30526e+29
7.79242e+30
1.51612e+31
2.06636e+31
2.35948e+31
-5.69202e+14
6.39373e+14
-2.24776e+31
-1.99747e+31
-1.51474e+31
-8.40317e+30
-4.36218e+29
7.78423e+30
1.51508e+31
2.06515e+31
2.35818e+31
-5.69033e+14
6.39381e+14
-2.24775e+31
-1.99752e+31
-1.51493e+31
-8.40727e+30
-4.43146e+29
7.77425e+30
1.51381e+31
2.0637e+31
2.35664e+31
-5.68834e+14
6.39391e+14
-2.24773e+31
-1.99758e+31
-1.51513e+31
-8.41164e+30
-4.50569e+29
7.76353e+30
1.51245e+31
2.06216e+31
2.35502e+31
-5.68626e+14
6.39402e+14
-2.24772e+31
-1.99763e+31
-1.51532e+31
-8.41571e+30
-4.57515e+29
7.7535e+30
1.51119e+31
2.06074e+31
2.35353e+31
-5.68436e+14
6.39411e+14
-2.24772e+31
-1.99768e+31
-1.51547e+31
-8.4189e+30
-4.62938e+29
7.74566e+30
1.51021e+31
2.05965e+31
2.35239e+31
-5.6829e+14
6.39419e+14
-2.24772e+31
-1.99771e+31
-1.51556e+31
-8.42068e+30
-4.65941e+29
7.74134e+30
1.50967e+31
2.05905e+31
2.35177e+31
-5.68209e+14
-6.39419e+14
6.39419e+14
5.55177e+14
3.9671e+14
1.85466e+14
-4.55294e+13
-2.57802e+14
-4.2043e+14
-5.2214e+14
-5.68209e+14
5.68209e+14
-4.45751e+14
4.45751e+14
3.87123e+14
2.776e+14
1.32533e+14
-2.64795e+13
-1.75694e+14
-2.95618e+14
-3.7607e+14
-4.15399e+14
4.15399e+14
4.45751e+14
-1.59964e+31
-1.41616e+31
-1.06551e+31
-5.81716e+30
-1.73284e+29
5.59705e+30
1.07491e+31
1.46027e+31
1.66598e+31
-4.15399e+14
4.45757e+14
-1.59965e+31
-1.41618e+31
-1.06556e+31
-5.81793e+30
-1.74471e+29
5.59542e+30
1.07471e+31
1.46004e+31
1.66573e+31
-4.15362e+14
4.45765e+14
-1.59967e+31
-1.41622e+31
-1.06564e+31
-5.81937e+30
-1.7671e+29
5.59232e+30
1.07432e+31
1.45959e+31
1.66526e+31
-4.15296e+14
4.45776e+14
-1.59968e+31
-1.41627e+31
-1.06574e+31
-5.82133e+30
-1.79804e+29
5.58804e+30
1.07378e+31
1.45898e+31
1.6646e+31
-4.15205e+14
4.45788e+14
-1.5997e+31
-1.41632e+31
-1.06587e+31
-5.82364e+30
-1.83445e+29
5.58298e+30
1.07315e+31
1.45826e+31
1.66384e+31
-4.15101e+14
4.458e+14
-1.59972e+31
-1.41637e+31
-1.066e+31
-5.82604e+30
-1.87226e+29
5.57773e+30
1.0725e+31
1.45752e+31
1.66306e+31
-4.14993e+14
4.45812e+14
-1.59974e+31
-1.41643e+31
-1.06611e+31
-5.82822e+30
-1.90674e+29
5.57294e+30
1.07191e+31
1.45685e+31
1.66235e+31
-4.14895e+14
4.45823e+14
-1.59976e+31
-1.41647e+31
-1.0662e+31
-5.82989e+30
-1.93322e+29
5.56927e+30
1.07145e+31
1.45634e+31
1.66181e+31
-4.14821e+14
4.45831e+14
-1.59977e+31
-1.41649e+31
-1.06626e+31
-5.83084e+30
-1.94786e+29
5.56726e+30
1.07121e+31
1.45606e+31
1.66152e+31
-4.14779e+14
-4.45831e+14
4.45831e+14
3.87253e+14
2.77826e+14
1.32887e+14
-2.59912e+13
-1.75104e+14
-2.94982e+14
-3.75435e+14
-4.14779e+14
4.14779e+14
-3.1077e+14
3.1077e+14
2.70127e+14
1.94387e+14
9.41449e+13
-1.6343e+13
-1.21771e+14
-2.09103e+14
-2.70012e+14
-3.00879e+14
3.00879e+14
3.1077e+14
-1.13493e+31
-1.00209e+31
-7.49674e+30
-4.04163e+30
-4.36839e+28
4.01789e+30
7.63221e+30
1.03345e+31
1.17776e+31
-3.00879e+14
3.10776e+14
-1.13495e+31
-1.00211e+31
-7.49704e+30
-4.0421e+30
-4.43482e+28
4.01702e+30
7.63114e+30
1.03332e+31
1.17764e+31
-3.00859e+14
3.10784e+14
-1.13496e+31
-1.00214e+31
-7.49754e+30
-4.04292e+30
-4.55671e+28
4.01539e+30
7.62915e+30
1.0331e+31
1.17739e+31
-3.00822e+14
3.10793e+14
-1.13499e+31
-1.00218e+31
-7.49822e+30
-4.04404e+30
-4.72181e+28
4.01318e+30
7.62643e+30
1.03279e+31
1.17707e+31
-3.00774e+14
3.10804e+14
-1.13501e+31
-1.00222e+31
-7.49899e+30
-4.04532e+30
-4.91258e+28
4.01061e+30
7.62329e+30
1.03243e+31
1.17669e+31
-3.00719e+14
3.10815e+14
-1.13504e+31
-1.00226e+31
-7.49978e+30
-4.04663e+30
-5.10742e+28
4.008e+30
7.62009e+30
1.03207e+31
1.17631e+31
-3.00662e+14
3.10826e+14
-1.13506e+31
-1.0023e+31
-7.50049e+30
-4.04781e+30
-5.28293e+28
4.00564e+30
7.61721e+30
1.03175e+31
1.17596e+31
-3.00611e+14
3.10835e+14
-1.13508e+31
-1.00233e+31
-7.50105e+30
-4.04872e+30
-5.41706e+28
4.00385e+30
7.61503e+30
1.0315e+31
1.1757e+31
-3.00572e+14
3.10842e+14
-1.13509e+31
-1.00236e+31
-7.50139e+30
-4.04925e+30
-5.49244e+28
4.00286e+30
7.61383e+30
1.03137e+31
1.17556e+31
-3.00549e+14
-3.10842e+14
3.10842e+14
2.70222e+14
1.94526e+14
9.43416e+13
-1.60876e+13
-1.21469e+14
-2.08777e+14
-2.6968e+14
-3.00549e+14
3.00549e+14
-2.16433e+14
2.16433e+14
1.88225e+14
1.35663e+14
6.59736e+13
-1.13103e+13
-8.59931e+13
-1.49067e+14
-1.94059e+14