# vtk DataFile Version 2.0
FlowField
ASCII
DATASET STRUCTURED_GRID
DIMENSIONS 102 11 11 
POINTS 12342 double
0 0 0
0 0 0.2
0 0 0.4
0 0 0.6
0 0 0.8
0 0 1
0 0 1.2
0 0 1.4
0 0 1.6
0 0 1.8
0 0 2
0 0.1 0
0 0.1 0.2
0 0.1 0.4
0 0.1 0.6
0 0.1 0.8
0 0.1 1
0 0.1 1.2
0 0.1 1.4
0 0.1 1.6
0 0.1 1.8
0 0.1 2
0 0.2 0
0 0.2 0.2
0 0.2 0.4
0 0.2 0.6
0 0.2 0.8
0 0.2 1
0 0.2 1.2
0 0.2 1.4
0 0.2 1.6
0 0.2 1.8
0 0.2 2
0 0.3 0
0 0.3 0.2
0 0.3 0.4
0 0.3 0.6
0 0.3 0.8
0 0.3 1
0 0.3 1.2
0 0.3 1.4
0 0.3 1.6
0 0.3 1.8
0 0.3 2
0 0.4 0
0 0.4 0.2
0 0.4 0.4
0 0.4 0.6
0 0.4 0.8
0 0.4 1
0 0.4 1.2
0 0.4 1.4
0 0.4 1.6
0 0.4 1.8
0 0.4 2
0 0.5 0
0 0.5 0.2
0 0.5 0.4
0 0.5 0.6
0 0.5 0.8
0 0.5 1
0 0.5 1.2
0 0.5 1.4
0 0.5 1.6
0 0.5 1.8
0 0.5 2
0 0.6 0
0 0.6 0.2
0 0.6 0.4
0 0.6 0.6
0 0.6 0.8
0 0.6 1
0 0.6 1.2
0 0.6 1.4
0 0.6 1.6
0 0.6 1.8
0 0.6 2
0 0.7 0
0 0.7 0.2
0 0.7 0.4
0 0.7 0.6
0 0.7 0.8
0 0.7 1
0 0.7 1.2
0 0.7 1.4
0 0.7 1.6
0 0.7 1.8
0 0.7 2
0 0.8 0
0 0.8 0.2
0 0.8 0.4
0 0.8 0.6
0 0.8 0.8
0 0.8 1
0 0.8 1.2
0 0.8 1.4
0 0.8 1.6
0 0.8 1.8
0 0.8 2
0 0.9 0
0 0.9 0.2
0 0.9 0.4
0 0.9 0.6
0 0.9 0.8
0 0.9 1
0 0.9 1.2
0 0.9 1.4
0 0.9 1.6
0 0.9 1.8
0 0.9 2
0 1 0
0 1 0.2
0 1 0.4
0 1 0.6
0 1 0.8
0 1 1
0 1 1.2
0 1 1.4
0 1 1.6
0 1 1.8
0 1 2
0.2 0 0
0.2 0 0.2
0.2 0 0.4
0.2 0 0.6
0.2 0 0.8
0.2 0 1
0.2 0 1.2
0.2 0 1.4
0.2 0 1.6
0.2 0 1.8
0.2 0 2
0.2 0.1 0
0.2 0.1 0.2
0.2 0.1 0.4
0.2 0.1 0.6
0.2 0.1 0.8
0.2 0.1 1
0.2 0.1 1.2
0.2 0.1 1.4
0.2 0.1 1.6
0.2 0.1 1.8
0.2 0.1 2
0.2 0.2 0
0.2 0.2 0.2
0.2 0.2 0.4
0.2 0.2 0.6
0.2 0.2 0.8
0.2 0.2 1
0.2 0.2 1.2
0.2 0.2 1.4
0.2 0.2 1.6
0.2 0.2 1.8
0.2 0.2 2
0.2 0.3 0
0.2 0.3 0.2
0.2 0.3 0.4
0.2 0.3 0.6
0.2 0.3 0.8
0.2 0.3 1
0.2 0.3 1.2
0.2 0.3 1.4
0.2 0.3 1.6
0.2 0.3 1.8
0.2 0.3 2
0.2 0.4 0
0.2 0.4 0.2
0.2 0.4 0.4
0.2 0.4 0.6
0.2 0.4 0.8
0.2 0.4 1
0.2 0.4 1.2
0.2 0.4 1.4
0.2 0.4 1.6
0.2 0.4 1.8
0.2 0.4 2
0.2 0.5 0
0.2 0.5 0.2
0.2 0.5 0.4
0.2 0.5 0.6
0.2 0.5 0.8
0.2 0.5 1
0.2 0.5 1.2
0.2 0.5 1.4
0.2 0.5 1.6
0.2 0.5 1.8
0.2 0.5 2
0.2 0.6 0
0.2 0.6 0.2
0.2 0.6 0.4
0.2 0.6 0.6
0.2 0.6 0.8
0.2 0.6 1
0.2 0.6 1.2
0.2 0.6 1.4
0.2 0.6 1.6
0.2 0.6 1.8
0.2 0.6 2
0.2 0.7 0
0.2 0.7 0.2
0.2 0.7 0.4
0.2 0.7 0.6
0.2 0.7 0.8
0.2 0.7 1
0.2 0.7 1.2
0.2 0.7 1.4
0.2 0.7 1.6
0.2 0.7 1.8
0.2 0.7 2
0.2 0.8 0
0.2 0.8 0.2
0.2 0.8 0.4
0.2 0.8 0.6
0.2 0.8 0.8
0.2 0.8 1
0.2 0.8 1.2
0.2 0.8 1.4
0.2 0.8 1.6
0.2 0.8 1.8
0.2 0.8 2
0.2 0.9 0
0.2 0.9 0.2
0.2 0.9 0.4
0.2 0.9 0.6
0.2 0.9 0.8
0.2 0.9 1
0.2 0.9 1.2
0.2 0.9 1.4
0.2 0.9 1.6
0.2 0.9 1.8
0.2 0.9 2
0.2 1 0
0.2 1 0.2
0.2 1 0.4
0.2 1 0.6
0.2 1 0.8
0.2 1 1
0.2 1 1.2
0.2 1 1.4
0.2 1 1.6
0.2 1 1.8
0.2 1 2
0.4 0 0
0.4 0 0.2
0.4 0 0.4
0.4 0 0.6
0.4 0 0.8
0.4 0 1
0.4 0 1.2
0.4 0 1.4
0.4 0 1.6
0.4 0 1.8
0.4 0 2
0.4 0.1 0
0.4 0.1 0.2
0.4 0.1 0.4
0.4 0.1 0.6
0.4 0.1 0.8
0.4 0.1 1
0.4 0.1 1.2
0.4 0.1 1.4
0.4 0.1 1.6
0.4 0.1 1.8
0.4 0.1 2
0.4 0.2 0
0.4 0.2 0.2
0.4 0.2 0.4
0.4 0.2 0.6
0.4 0.2 0.8
0.4 0.2 1
0.4 0.2 1.2
0.4 0.2 1.4
0.4 0.2 1.6
0.4 0.2 1.8
0.4 0.2 2
0.4 0.3 0
0.4 0.3 0.2
0.4 0.3 0.4
0.4 0.3 0.6
0.4 0.3 0.8
0.4 0.3 1
0.4 0.3 1.2
0.4 0.3 1.4
0.4 0.3 1.6
0.4 0.3 1.8
0.4 0.3 2
0.4 0.4 0
0.4 0.4 0.2
0.4 0.4 0.4
0.4 0.4 0.6
0.4 0.4 0.8
0.4 0.4 1
0.4 0.4 1.2
0.4 0.4 1.4
0.4 0.4 1.6
0.4 0.4 1.8
0.4 0.4 2
0.4 0.5 0
0.4 0.5 0.2
0.4 0.5 0.4
0.4 0.5 0.6
0.4 0.5 0.8
0.4 0.5 1
0.4 0.5 1.2
0.4 0.5 1.4
0.4 0.5 1.6
0.4 0.5 1.8
0.4 0.5 2
0.4 0.6 0
0.4 0.6 0.2
0.4 0.6 0.4
0.4 0.6 0.6
0.4 0.6 0.8
0.4 0.6 1
0.4 0.6 1.2
0.4 0.6 1.4
0.4 0.6 1.6
0.4 0.6 1.8
0.4 0.6 2
0.4 0.7 0
0.4 0.7 0.2
0.4 0.7 0.4
0.4 0.7 0.6
0.4 0.7 0.8
0.4 0.7 1
0.4 0.7 1.2
0.4 0.7 1.4
0.4 0.7 1.6
0.4 0.7 1.8
0.4 0.7 2
0.4 0.8 0
0.4 0.8 0.2
0.4 0.8 0.4
0.4 0.8 0.6
0.4 0.8 0.8
0.4 0.8 1
0.4 0.8 1.2
0.4 0.8 1.4
0.4 0.8 1.6
0.4 0.8 1.8
0.4 0.8 2
0.4 0.9 0
0.4 0.9 0.2
0.4 0.9 0.4
0.4 0.9 0.6
0.4 0.9 0.8
0.4 0.9 1
0.4 0.9 1.2
0.4 0.9 1.4
0.4 0.9 1.6
0.4 0.9 1.8
0.4 0.9 2
0.4 1 0
0.4 1 0.2
0.4 1 0.4
0.4 1 0.6
0.4 1 0.8
0.4 1 1
0.4 1 1.2
0.4 1 1.4
0.4 1 1.6
0.4 1 1.8
0.4 1 2
0.6 0 0
0.6 0 0.2
0.6 0 0.4
0.6 0 0.6
0.6 0 0.8
0.6 0 1
0.6 0 1.2
0.6 0 1.4
0.6 0 1.6
0.6 0 1.8
0.6 0 2
0.6 0.1 0
0.6 0.1 0.2
0.6 0.1 0.4
0.6 0.1 0.6
0.6 0.1 0.8
0.6 0.1 1
0.6 0.1 1.2
0.6 0.1 1.4
0.6 0.1 1.6
0.6 0.1 1.8
0.6 0.1 2
0.6 0.2 0
0.6 0.2 0.2
0.6 0.2 0.4
0.6 0.2 0.6
0.6 0.2 0.8
0.6 0.2 1
0.6 0.2 1.2
0.6 0.2 1.4
0.6 0.2 1.6
0.6 0.2 1.8
0.6 0.2 2
0.6 0.3 0
0.6 0.3 0.2
0.6 0.3 0.4
0.6 0.3 0.6
0.6 0.3 0.8
0.6 0.3 1
0.6 0.3 1.2
0.6 0.3 1.4
0.6 0.3 1.6
0.6 0.3 1.8
0.6 0.3 2
0.6 0.4 0
0.6 0.4 0.2
0.6 0.4 0.4
0.6 0.4 0.6
0.6 0.4 0.8
0.6 0.4 1
0.6 0.4 1.2
0.6 0.4 1.4
0.6 0.4 1.6
0.6 0.4 1.8
0.6 0.4 2
0.6 0.5 0
0.6 0.5 0.2
0.6 0.5 0.4
0.6 0.5 0.6
0.6 0.5 0.8
0.6 0.5 1
0.6 0.5 1.2
0.6 0.5 1.4
0.6 0.5 1.6
0.6 0.5 1.8
0.6 0.5 2
0.6 0.6 0
0.6 0.6 0.2
0.6 0.6 0.4
0.6 0.6 0.6
0.6 0.6 0.8
0.6 0.6 1
0.6 0.6 1.2
0.6 0.6 1.4
0.6 0.6 1.6
0.6 0.6 1.8
0.6 0.6 2
0.6 0.7 0
0.6 0.7 0.2
0.6 0.7 0.4
0.6 0.7 0.6
0.6 0.7 0.8
0.6 0.7 1
0.6 0.7 1.2
0.6 0.7 1.4
0.6 0.7 1.6
0.6 0.7 1.8
0.6 0.7 2
0.6 0.8 0
0.6 0.8 0.2
0.6 0.8 0.4
0.6 0.8 0.6
0.6 0.8 0.8
0.6 0.8 1
0.6 0.8 1.2
0.6 0.8 1.4
0.6 0.8 1.6
0.6 0.8 1.8
0.6 0.8 2
0.6 0.9 0
0.6 0.9 0.2
0.6 0.9 0.4
0.6 0.9 0.6
0.6 0.9 0.8
0.6 0.9 1
0.6 0.9 1.2
0.6 0.9 1.4
0.6 0.9 1.6
0.6 0.9 1.8
0.6 0.9 2
0.6 1 0
0.6 1 0.2
0.6 1 0.4
0.6 1 0.6
0.6 1 0.8
0.6 1 1
0.6 1 1.2
0.6 1 1.4
0.6 1 1.6
0.6 1 1.8
0.6 1 2
0.8 0 0
0.8 0 0.2
0.8 0 0.4
0.8 0 0.6
0.8 0 0.8
0.8 0 1
0.8 0 1.2
0.8 0 1.4
0.8 0 1.6
0.8 0 1.8
0.8 0 2
0.8 0.1 0
0.8 0.1 0.2
0.8 0.1 0.4
0.8 0.1 0.6
0.8 0.1 0.8
0.8 0.1 1
0.8 0.1 1.2
0.8 0.1 1.4
0.8 0.1 1.6
0.8 0.1 1.8
0.8 0.1 2
0.8 0.2 0
0.8 0.2 0.2
0.8 0.2 0.4
0.8 0.2 0.6
0.8 0.2 0.8
0.8 0.2 1
0.8 0.2 1.2
0.8 0.2 1.4
0.8 0.2 1.6
0.8 0.2 1.8
0.8 0.2 2
0.8 0.3 0
0.8 0.3 0.2
0.8 0.3 0.4
0.8 0.3 0.6
0.8 0.3 0.8
0.8 0.3 1
0.8 0.3 1.2
0.8 0.3 1.4
0.8 0.3 1.6
0.8 0.3 1.8
0.8 0.3 2
0.8 0.4 0
0.8 0.4 0.2
0.8 0.4 0.4
0.8 0.4 0.6
0.8 0.4 0.8
0.8 0.4 1
0.8 0.4 1.2
0.8 0.4 1.4
0.8 0.4 1.6
0.8 0.4 1.8
0.8 0.4 2
0.8 0.5 0
0.8 0.5 0.2
0.8 0.5 0.4
0.8 0.5 0.6
0.8 0.5 0.8
0.8 0.5 1
0.8 0.5 1.2
0.8 0.5 1.4
0.8 0.5 1.6
0.8 0.5 1.8
0.8 0.5 2
0.8 0.6 0
0.8 0.6 0.2
0.8 0.6 0.4
0.8 0.6 0.6
0.8 0.6 0.8
0.8 0.6 1
0.8 0.6 1.2
0.8 0.6 1.4
0.8 0.6 1.6
0.8 0.6 1.8
0.8 0.6 2
0.8 0.7 0
0.8 0.7 0.2
0.8 0.7 0.4
0.8 0.7 0.6
0.8 0.7 0.8
0.8 0.7 1
0.8 0.7 1.2
0.8 0.7 1.4
0.8 0.7 1.6
0.8 0.7 1.8
0.8 0.7 2
0.8 0.8 0
0.8 0.8 0.2
0.8 0.8 0.4
0.8 0.8 0.6
0.8 0.8 0.8
0.8 0.8 1
0.8 0.8 1.2
0.8 0.8 1.4
0.8 0.8 1.6
0.8 0.8 1.8
0.8 0.8 2
0.8 0.9 0
0.8 0.9 0.2
0.8 0.9 0.4
0.8 0.9 0.6
0.8 0.9 0.8
0.8 0.9 1
0.8 0.9 1.2
0.8 0.9 1.4
0.8 0.9 1.6
0.8 0.9 1.8
0.8 0.9 2
0.8 1 0
0.8 1 0.2
0.8 1 0.4
0.8 1 0.6
0.8 1 0.8
0.8 1 1
0.8 1 1.2
0.8 1 1.4
0.8 1 1.6
0.8 1 1.8
0.8 1 2
1 0 0
1 0 0.2
1 0 0.4
1 0 0.6
1 0 0.8
1 0 1
1 0 1.2
1 0 1.4
1 0 1.6
1 0 1.8
1 0 2
1 0.1 0
1 0.1 0.2
1 0.1 0.4
1 0.1 0.6
1 0.1 0.8
1 0.1 1
1 0.1 1.2
1 0.1 1.4
1 0.1 1.6
1 0.1 1.8
1 0.1 2
1 0.2 0
1 0.2 0.2
1 0.2 0.4
1 0.2 0.6
1 0.2 0.8
1 0.2 1
1 0.2 1.2
1 0.2 1.4
1 0.2 1.6
1 0.2 1.8
1 0.2 2
1 0.3 0
1 0.3 0.2
1 0.3 0.4
1 0.3 0.6
1 0.3 0.8
1 0.3 1
1 0.3 1.2
1 0.3 1.4
1 0.3 1.6
1 0.3 1.8
1 0.3 2
1 0.4 0
1 0.4 0.2
1 0.4 0.4
1 0.4 0.6
1 0.4 0.8
1 0.4 1
1 0.4 1.2
1 0.4 1.4
1 0.4 1.6
1 0.4 1.8
1 0.4 2
1 0.5 0
1 0.5 0.2
1 0.5 0.4
1 0.5 0.6
1 0.5 0.8
1 0.5 1
1 0.5 1.2
1 0.5 1.4
1 0.5 1.6
1 0.5 1.8
1 0.5 2
1 0.6 0
1 0.6 0.2
1 0.6 0.4
1 0.6 0.6
1 0.6 0.8
1 0.6 1
1 0.6 1.2
1 0.6 1.4
1 0.6 1.6
1 0.6 1.8
1 0.6 2
1 0.7 0
1 0.7 0.2
1 0.7 0.4
1 0.7 0.6
1 0.7 0.8
1 0.7 1
1 0.7 1.2
1 0.7 1.4
1 0.7 1.6
1 0.7 1.8
1 0.7 2
1 0.8 0
1 0.8 0.2
1 0.8 0.4
1 0.8 0.6
1 0.8 0.8
1 0.8 1
1 0.8 1.2
1 0.8 1.4
1 0.8 1.6
1 0.8 1.8
1 0.8 2
1 0.9 0
1 0.9 0.2
1 0.9 0.4
1 0.9 0.6
1 0.9 0.8
1 0.9 1
1 0.9 1.2
1 0.9 1.4
1 0.9 1.6
1 0.9 1.8
1 0.9 2
1 1 0
1 1 0.2
1 1 0.4
1 1 0.6
1 1 0.8
1 1 1
1 1 1.2
1 1 1.4
1 1 1.6
1 1 1.8
1 1 2
1.2 0 0
1.2 0 0.2
1.2 0 0.4
1.2 0 0.6
1.2 0 0.8
1.2 0 1
1.2 0 1.2
1.2 0 1.4
1.2 0 1.6
1.2 0 1.8
1.2 0 2
1.2 0.1 0
1.2 0.1 0.2
1.2 0.1 0.4
1.2 0.1 0.6
1.2 0.1 0.8
1.2 0.1 1
1.2 0.1 1.2
1.2 0.1 1.4
1.2 0.1 1.6
1.2 0.1 1.8
1.2 0.1 2
1.2 0.2 0
1.2 0.2 0.2
1.2 0.2 0.4
1.2 0.2 0.6
1.2 0.2 0.8
1.2 0.2 1
1.2 0.2 1.2
1.2 0.2 1.4
1.2 0.2 1.6
1.2 0.2 1.8
1.2 0.2 2
1.2 0.3 0
1.2 0.3 0.2
1.2 0.3 0.4
1.2 0.3 0.6
1.2 0.3 0.8
1.2 0.3 1
1.2 0.3 1.2
1.2 0.3 1.4
1.2 0.3 1.6
1.2 0.3 1.8
1.2 0.3 2
1.2 0.4 0
1.2 0.4 0.2
1.2 0.4 0.4
1.2 0.4 0.6
1.2 0.4 0.8
1.2 0.4 1
1.2 0.4 1.2
1.2 0.4 1.4
1.2 0.4 1.6
1.2 0.4 1.8
1.2 0.4 2
1.2 0.5 0
1.2 0.5 0.2
1.2 0.5 0.4
1.2 0.5 0.6
1.2 0.5 0.8
1.2 0.5 1
1.2 0.5 1.2
1.2 0.5 1.4
1.2 0.5 1.6
1.2 0.5 1.8
1.2 0.5 2
1.2 0.6 0
1.2 0.6 0.2
1.2 0.6 0.4
1.2 0.6 0.6
1.2 0.6 0.8
1.2 0.6 1
1.2 0.6 1.2
1.2 0.6 1.4
1.2 0.6 1.6
1.2 0.6 1.8
1.2 0.6 2
1.2 0.7 0
1.2 0.7 0.2
1.2 0.7 0.4
1.2 0.7 0.6
1.2 0.7 0.8
1.2 0.7 1
1.2 0.7 1.2
1.2 0.7 1.4
1.2 0.7 1.6
1.2 0.7 1.8
1.2 0.7 2
1.2 0.8 0
1.2 0.8 0.2
1.2 0.8 0.4
1.2 0.8 0.6
1.2 0.8 0.8
1.2 0.8 1
1.2 0.8 1.2
1.2 0.8 1.4
1.2 0.8 1.6
1.2 0.8 1.8
1.2 0.8 2
1.2 0.9 0
1.2 0.9 0.2
1.2 0.9 0.4
1.2 0.9 0.6
1.2 0.9 0.8
1.2 0.9 1
1.2 0.9 1.2
1.2 0.9 1.4
1.2 0.9 1.6
1.2 0.9 1.8
1.2 0.9 2
1.2 1 0
1.2 1 0.2
1.2 1 0.4
1.2 1 0.6
1.2 1 0.8
1.2 1 1
1.2 1 1.2
1.2 1 1.4
1.2 1 1.6
1.2 1 1.8
1.2 1 2
1.4 0 0
1.4 0 0.2
1.4 0 0.4
1.4 0 0.6
1.4 0 0.8
1.4 0 1
1.4 0 1.2
1.4 0 1.4
1.4 0 1.6
1.4 0 1.8
1.4 0 2
1.4 0.1 0
1.4 0.1 0.2
1.4 0.1 0.4
1.4 0.1 0.6
1.4 0.1 0.8
1.4 0.1 1
1.4 0.1 1.2
1.4 0.1 1.4
1.4 0.1 1.6
1.4 0.1 1.8
1.4 0.1 2
1.4 0.2 0
1.4 0.2 0.2
1.4 0.2 0.4
1.4 0.2 0.6
1.4 0.2 0.8
1.4 0.2 1
1.4 0.2 1.2
1.4 0.2 1.4
1.4 0.2 1.6
1.4 0.2 1.8
1.4 0.2 2
1.4 0.3 0
1.4 0.3 0.2
1.4 0.3 0.4
1.4 0.3 0.6
1.4 0.3 0.8
1.4 0.3 1
1.4 0.3 1.2
1.4 0.3 1.4
1.4 0.3 1.6
1.4 0.3 1.8
1.4 0.3 2
1.4 0.4 0
1.4 0.4 0.2
1.4 0.4 0.4
1.4 0.4 0.6
1.4 0.4 0.8
1.4 0.4 1
1.4 0.4 1.2
1.4 0.4 1.4
1.4 0.4 1.6
1.4 0.4 1.8
1.4 0.4 2
1.4 0.5 0
1.4 0.5 0.2
1.4 0.5 0.4
1.4 0.5 0.6
1.4 0.5 0.8
1.4 0.5 1
1.4 0.5 1.2
1.4 0.5 1.4
1.4 0.5 1.6
1.4 0.5 1.8
1.4 0.5 2
1.4 0.6 0
1.4 0.6 0.2
1.4 0.6 0.4
1.4 0.6 0.6
1.4 0.6 0.8
1.4 0.6 1
1.4 0.6 1.2
1.4 0.6 1.4
1.4 0.6 1.6
1.4 0.6 1.8
1.4 0.6 2
1.4 0.7 0
1.4 0.7 0.2
1.4 0.7 0.4
1.4 0.7 0.6
1.4 0.7 0.8
1.4 0.7 1
1.4 0.7 1.2
1.4 0.7 1.4
1.4 0.7 1.6
1.4 0.7 1.8
[...]
POINT_DATA 12342

SCALARS F double
LOOKUP_TABLE default
0
0
0
0
0
0
0
0
0
0
0
0
1
1
1
1
1
1
1
1
1
0
0
1
1
1
1
1
1
1
1
1
0
0
1
1
1
1
1
1
1
1
1
0
0
1
1
1
1
1
1
1
1
1
0
0
1
1
1
1
1
1
1
1
1
0
0
1
1
1
1
1
1
1
1
1
0
0
1
1
1
1
1
1
1
1
1
0
0
1
1
1
1
1
1
1
1
1
0
0
1
1
1
1
1
1
1
1
1
0
0
0
0
0
0
0
0
0
0
0
0
0
0
0
0
0
0
0
0
0
0
0
0
0.949473
0.956186
0.954321
0.953887
0.953749
0.953729
0.953923
0.955271
0.947799
0
0
1.00351
1.01073
1.00883
1.00838
1.00824
1.00822
1.00843
1.00982
1.00185
0
0
1.00206
1.00925
1.00735
1.0069
1.00676
1.00675
1.00695
1.00833
1.0004
0
0
1.00108
1.00826
1.00636
1.00591
1.00577
1.00575
1.00596
1.00734
0.999419
0
0
1.00097
1.00814
1.00624
1.00579
1.00565
1.00563
1.00584
1.00722
0.999303
0
0
1.00164
1.00882
1.00691
1.00647
1.00633
1.00631
1.00651
1.0079
0.999974
0
0
1.00331
1.01052
1.00861
1.00816
1.00802
1.00801
1.00821
1.0096
1.00165
0
0
1.0058
1.01304
1.01113
1.01068
1.01054
1.01052
1.01073
1.01211
1.00414
0
0
0.953319
0.960058
0.958193
0.957758
0.957621
0.957601
0.957795
0.959144
0.951649
0
0
0
0
0
0
0
0
0
0
0
0
0
0
0
0
0
0
0
0
0
0
0
0
0.941036
0.95007
0.947447
0.946577
0.946296
0.946303
0.946793
0.948762
0.938799
0
0
1.00322
1.01286
1.01019
1.00931
1.00902
1.00903
1.00953
1.01154
1.00098
0
0
1.00331
1.01294
1.01028
1.00939
1.0091
1.00911
1.00962
1.01162
1.00107
0
0
1.00293
1.01255
1.00988
1.009
1.00871
1.00872
1.00922
1.01123
1.00069
0
0
1.00298
1.01259
1.00993
1.00905
1.00876
1.00877
1.00927
1.01128
1.00074
0
0
1.0035
1.01312
1.01045
1.00957
1.00928
1.00929
1.00979
1.0118
1.00126
0
0
1.0045
1.01413
1.01147
1.01058
1.01029
1.0103
1.01081
1.01281
1.00226
0
0
1.0051
1.01475
1.01208
1.0112
1.01091
1.01092
1.01142
1.01343
1.00286
0
0
0.943632
0.952679
0.950056
0.949186
0.948904
0.948911
0.949401
0.95137
0.941395
0
0
0
0
0
0
0
0
0
0
0
0
0
0
0
0
0
0
0
0
0
0
0
0
0.938295
0.949822
0.947229
0.946059
0.945646
0.945727
0.946483
0.948491
0.936262
0
0
1.00146
1.01362
1.01099
1.00981
1.00939
1.00947
1.01024
1.01228
0.999414
0
0
1.00218
1.01434
1.01172
1.01053
1.01011
1.01019
1.01096
1.013
1.00014
0
0
1.00215
1.0143
1.01167
1.01049
1.01007
1.01015
1.01092
1.01296
1.0001
0
0
1.00225
1.01441
1.01178
1.01059
1.01017
1.01026
1.01103
1.01307
1.00021
0
0
1.00253
1.01469
1.01206
1.01087
1.01046
1.01054
1.01131
1.01335
1.00048
0
0
1.00295
1.01512
1.01249
1.0113
1.01088
1.01096
1.01173
1.01377
1.00091
0
0
1.00259
1.01475
1.01212
1.01094
1.01052
1.0106
1.01137
1.01341
1.00054
0
0
0.939678
0.95121
0.948618
0.947448
0.947035
0.947116
0.947872
0.94988
0.937645
0
0
0
0
0
0
0
0
0
0
0
0
0
0
0
0
0
0
0
0
0
0
0
0
0.936706
0.949962
0.947842
0.946633
0.946164
0.946295
0.947122
0.948782
0.935043
0
0
0.999967
1.01388
1.01173
1.0105
1.01003
1.01016
1.011
1.01269
0.998289
0
0
1.00083
1.01474
1.0126
1.01137
1.0109
1.01103
1.01187
1.01355
0.999152
0
0
1.00087
1.01479
1.01264
1.01141
1.01094
1.01107
1.01191
1.01359
0.999195
0
0
1.00096
1.01487
1.01272
1.0115
1.01102
1.01116
1.012
1.01368
0.999282
0
0
1.0011
1.01501
1.01286
1.01164
1.01116
1.0113
1.01214
1.01382
0.99942
0
0
1.00126
1.01518
1.01303
1.01181
1.01133
1.01147
1.01231
1.01399
0.999587
0
0
1.00058
1.01449
1.01234
1.01112
1.01064
1.01078
1.01162
1.0133
0.998899
0
0
0.937415
0.950674
0.948554
0.947345
0.946877
0.947008
0.947834
0.949494
0.935752
0
0
0
0
0
0
0
0
0
0
0
0
0
0
0
0
0
0
0
0
0
0
0
0
0.935596
0.949892
0.948333
0.947273
0.946828
0.946965
0.947701
0.948917
0.934287
0
0
0.998851
1.01382
1.01224
1.01116
1.01071
1.01085
1.0116
1.01283
0.997529
0
0
0.999729
1.0147
1.01312
1.01205
1.01159
1.01173
1.01248
1.01371
0.998407
0
0
0.999772
1.01474
1.01316
1.01209
1.01164
1.01178
1.01252
1.01376
0.99845
0
0
0.999826
1.01479
1.01322
1.01214
1.01169
1.01183
1.01258
1.01381
0.998504
0
0
0.999894
1.01486
1.01328
1.01221
1.01176
1.0119
1.01265
1.01388
0.998571
0
0
0.999961
1.01493
1.01335
1.01228
1.01183
1.01197
1.01271
1.01395
0.998639
0
0
0.99917
1.01414
1.01256
1.01148
1.01103
1.01117
1.01192
1.01315
0.997848
0
0
0.935956
0.950255
0.948696
0.947636
0.94719
0.947328
0.948063
0.949279
0.934648
0
0
0
0
0
0
0
0
0
0
0
0
0
0
0
0
0
0
0
0
0
0
0
0
0.934802
0.949706
0.948629
0.947792
0.947417
0.94753
0.948105
0.948931
0.933789
0
0
0.998044
1.01362
1.01253
1.01169
1.01131
1.01142
1.012
1.01284
0.99702
0
0
0.998914
1.0145
1.01341
1.01256
1.01218
1.0123
1.01288
1.01372
0.99789
0
0
0.998944
1.01453
1.01344
1.01259
1.01221
1.01233
1.01291
1.01375
0.99792
0
0
0.998974
1.01456
1.01347
1.01262
1.01224
1.01236
1.01294
1.01378
0.99795
0
0
0.999007
1.01459
1.0135
1.01265
1.01227
1.01239
1.01297
1.01381
0.997983
0
0
0.999034
1.01462
1.01353
1.01268
1.0123
1.01242
1.013
1.01384
0.99801
0
0
0.998207
1.01379
1.0127
1.01185
1.01147
1.01159
1.01217
1.013
0.997183
0
0
0.934984
0.949889
0.948812
0.947976
0.9476
0.947714
0.948288
0.949114
0.933972
0
0
0
0
0
0
0
0
0
0
0
0
0
0
0
0
0
0
0
0
0
0
0
0
0.934239
0.949501
0.948789
0.948173
0.947881
0.947961
0.948371
0.948902
0.933462
0
0
0.99747
1.01341
1.01269
1.01207
1.01177
1.01185
1.01227
1.01281
0.996683
0
0
0.998333
1.01428
1.01356
1.01294
1.01264
1.01272
1.01314
1.01367
0.997547
0
0
0.998352
1.0143
1.01358
1.01296
1.01266
1.01274
1.01316
1.01369
0.997566
0
0
0.998368
1.01432
1.01359
1.01297
1.01268
1.01276
1.01317
1.01371
0.997582
0
0
0.998385
1.01433
1.01361
1.01299
1.01269
1.01277
1.01319
1.01373
0.997598
0
0
0.998395
1.01434
1.01362
1.013
1.0127
1.01278
1.0132
1.01374
0.997608
0
0
0.997553
1.01349
1.01277
1.01215
1.01185
1.01194
1.01235
1.01289
0.996766
0
0
0.934331
0.949594
0.948881
0.948265
0.947973
0.948053
0.948464
0.948994
0.933554
0
0
0
0
0
0
0
0
0
0
0
0
0
0
0
0
0
0
0
0
0
0
0
0
0.933846
0.949326
0.948871
0.948439
0.948223
0.948272
0.948548
0.94887
0.933253
0
0
0.997069
1.01323
1.01277
1.01233
1.01212
1.01217
1.01244
1.01277
0.996468
0
0
0.997928
1.01409
1.01364
1.0132
1.01298
1.01303
1.01331
1.01363
0.997327
0
0
0.997941
1.01411
1.01365
1.01321
1.01299
1.01304
1.01332
1.01365
0.99734
0
0
0.997949
1.01412
1.01366
1.01322
1.013
1.01305
1.01333
1.01366
0.997348
0
0
0.997957
1.01412
1.01366
1.01323
1.01301
1.01306
1.01334
1.01366
0.997356
0
0
0.997959
1.01413
1.01367
1.01323
1.01301
1.01306
1.01334
1.01367
0.997358
0
0
0.997111
1.01327
1.01281
1.01238
1.01216
1.01221
1.01249
1.01281
0.99651
0
0
0.933891
0.949371
0.948917
0.948485
0.948269
0.948318
0.948593
0.948916
0.933299
0
0
0
0
0
0
0
0
0
0
0
0
0
0
0
0
0
0
0
0
0
0
0
0
0.933575
0.949191
0.948913
0.948619
0.948465
0.948491
0.948668
0.94885
0.933126
0
0
0.996793
1.01309
1.01281
1.01251
1.01236
1.01238
1.01256
1.01275
0.996337
0
0
0.997649
1.01395
1.01367
1.01338
1.01322
1.01325
1.01343
1.01361
0.997193
0
0
0.997658
1.01396
1.01368
1.01338
1.01323
1.01326
1.01343
1.01362
0.997202
0
0
0.997662
1.01397
1.01369
1.01339
1.01323
1.01326
1.01344
1.01362
0.997206
0
0
0.997667
1.01397
1.01369
1.01339
1.01324
1.01326
1.01344
1.01363
0.99721
0
0
0.997664
1.01397
1.01369
1.01339
1.01324
1.01326
1.01344
1.01363
0.997208
0
0
0.996813
1.01311
1.01283
1.01253
1.01238
1.01241
1.01258
1.01277
0.996357
0
0
0.933597
0.949213
0.948935
0.948641
0.948487
0.948513
0.94869
0.948872
0.933148
0
0
0
0
0
0
0
0
0
0
0
0
0
0
0
0
0
0
0
0
0
0
0
0
0.933392
0.949094
0.948934
0.948739
0.948632
0.948643
0.948752
0.948844
0.933054
0
0
0.996606
1.01299
1.01283
1.01263
1.01253
1.01254
1.01265
1.01274
0.996261
0
0
0.99746
1.01385
1.01369
1.01349
1.01339
1.0134
1.01351
1.0136
0.997116
0
0
0.997468
1.01386
1.0137
1.0135
1.01339
1.0134
1.01351
1.01361
0.997124
0
0
0.99747
1.01386
1.0137
1.0135
1.0134
1.01341
1.01352
1.01361
0.997126
0
0
0.997472
1.01386
1.0137
1.01351
1.0134
1.01341
1.01352
1.01361
0.997128
0
0
0.997468
1.01386
1.0137
1.0135
1.01339
1.0134
1.01351
1.01361
0.997124
0
0
0.996615
1.013
1.01284
1.01264
1.01254
1.01255
1.01266
1.01275
0.996271
0
0
0.933402
0.949104
0.948944
0.948749
0.948642
0.948653
0.948762
0.948854
0.933063
0
0
0
0
0
0
0
0
0
0
0
0
0
0
0
0
0
0
0
0
0
0
0
0
0.933271
0.949028
0.948945
0.948818
0.948746
0.948748
0.948813
0.948847
0.933017
0
0
0.996482
1.01292
1.01284
1.01271
1.01264
1.01264
1.01271
1.01274
0.996223
0
0
0.997336
1.01378
1.0137
1.01357
1.0135
1.0135
1.01357
1.0136
0.997077
0
0
0.997343
1.01379
1.01371
1.01358
1.01351
1.01351
1.01357
1.01361
0.997083
0
0
0.997344
1.01379
1.01371
1.01358
1.01351
1.01351
1.01357
1.01361
0.997084
0
0
0.997344
1.01379
1.01371
1.01358
1.01351
1.01351
1.01358
1.01361
0.997085
0
0
0.997339
1.01379
1.0137
1.01358
1.0135
1.0135
1.01357
1.0136
0.99708
0
0
0.996486
1.01293
1.01285
1.01272
1.01264
1.01265
1.01271
1.01275
0.996227
0
0
0.933275
0.949031
0.948949
0.948822
0.948749
0.948752
0.948816
0.948851
0.933021
0
0
0
0
0
0
0
0
0
0
0
0
0
0
0
0
0
0
0
0
0
0
0
0
0.933194
0.948984
0.948953
0.948871
0.948823
0.948821
0.948858
0.948857
0.933003
0
0
0.996402
1.01288
1.01285
1.01276
1.01272
1.01271
1.01275
1.01275
0.996208
0
0
0.997256
1.01374
1.01371
1.01362
1.01357
1.01357
1.01361
1.01361
0.997061
0
0
0.997262
1.01374
1.01371
1.01363
1.01358
1.01358
1.01362
1.01362
0.997067
0
0
0.997262
1.01374
1.01371
1.01363
1.01358
1.01358
1.01362
1.01362
0.997068
0
0
0.997263
1.01374
1.01371
1.01363
1.01358
1.01358
1.01362
1.01362
0.997068
0
0
0.997257
1.01374
1.01371
1.01363
1.01358
1.01357
1.01361
1.01361
0.997063
0
0
0.996404
1.01288
1.01285
1.01277
1.01272
1.01272
1.01275
1.01275
0.996209
0
0
0.933194
0.948985
0.948953
0.948872
0.948823
0.948821
0.948859
0.948858
0.933004
0
0
0
0
0
0
0
0
0
0
0
0
0
0
0
0
0
0
0
0
0
0
0
0
0.933146
0.948958
0.948959
0.948907
0.948875
0.948872
0.948894
0.948871
0.933003
0
0
0.996352
1.01285
1.01285
1.0128
1.01277
1.01276
1.01279
1.01276
0.996206
0
0
0.997206
1.01371
1.01371
1.01366
1.01363
1.01362
1.01365
1.01362
0.99706
0
0
0.997211
1.01372
1.01372
1.01366
1.01363
1.01363
1.01365
1.01363
0.997066
0
0
0.997212
1.01372
1.01372
1.01366
1.01363
1.01363
1.01365
1.01363
0.997066
0
0
0.997212
1.01372
1.01372
1.01367
1.01363
1.01363
1.01365
1.01363
0.997066
0
0
0.997206
1.01371
1.01371
1.01366
1.01363
1.01362
1.01365
1.01362
0.99706
0
0
0.996352
1.01285
1.01285
1.0128
1.01277
1.01276
1.01279
1.01276
0.996207
0
0
0.933145
0.948957
0.948958
0.948906
0.948874
0.948871
0.948893
0.94887
0.933002
0
0
0
0
0
0
0
0
0
0
0
0
0
0
0
0
0
0
0
0
0
0
0
0
0.933117
0.948943
0.948965
0.948933
0.948913
0.94891
0.948922
0.948887
0.933011
0
0
0.996322
1.01283
1.01286
1.01282
1.0128
1.0128
1.01281
1.01278
0.996213
0
0
0.997175
1.01369
1.01372
1.01368
1.01366
1.01366
1.01367
1.01364
0.997067
0
0
0.997181
1.0137
1.01372
1.01369
1.01367
1.01367
1.01368
1.01364
0.997072
0
0
0.997181
1.0137
1.01372
1.01369
1.01367
1.01367
1.01368
1.01364
0.997072
0
0
0.997181
1.0137
1.01372
1.01369
1.01367
1.01367
1.01368
1.01364
0.997072
0
0
0.997175
1.01369
1.01372
1.01368
1.01366
1.01366
1.01367
1.01364
0.997066
0
0
0.996321
1.01283
1.01286
1.01282
1.0128
1.0128
1.01281
1.01278
0.996213
0
0
0.933115
0.948941
0.948963
0.948931
0.948911
0.948908
0.94892
0.948886
0.933009
0
0
0
0
0
0
0
0
0
0
0
0
0
0
0
0
0
0
0
0
0
0
0
0
0.933101
0.948936
0.948971
0.948952
0.94894
0.948938
0.948946
0.948904
0.933024
0
0
0.996305
1.01283
1.01286
1.01284
1.01283
1.01283
1.01284
1.01279
0.996225
0
0
0.997158
1.01368
1.01372
1.0137
1.01369
1.01369
1.0137
1.01365
0.997078
0
0
0.997164
1.01369
1.01373
1.01371
1.0137
1.01369
1.0137
1.01366
0.997083
0
0
0.997164
1.01369
1.01373
1.01371
1.0137
1.01369
1.0137
1.01366
0.997083
0
0
0.997163
1.01369
1.01373
1.01371
1.0137
1.01369
1.0137
1.01366
0.997083
0
0
0.997158
1.01368
1.01372
1.0137
1.01369
1.01369
1.0137
1.01365
0.997077
0
0
0.996304
1.01282
1.01286
1.01284
1.01283
1.01283
1.01284
1.01279
0.996224
0
0
0.933099
0.948934
0.948969
0.94895
0.948938
0.948936
0.948943
0.948902
0.933021
0
0
0
0
0
0
0
0
0
0
0
0
0
0
0
0
0
0
0
0
0
0
0
0
0.933094
0.948935
0.948978
0.948968
0.948961
0.948961
0.948966
0.94892
0.933038
0
0
0.996297
1.01282
1.01287
1.01286
1.01285
1.01285
1.01286
1.01281
0.996238
0
0
0.99715
1.01368
1.01373
1.01372
1.01371
1.01371
1.01371
1.01367
0.997091
0
0
0.997155
1.01369
1.01373
1.01372
1.01372
1.01372
1.01372
1.01367
0.997097
0
0
0.997155
1.01369
1.01373
1.01372
1.01372
1.01371
1.01372
1.01367
0.997096
0
0
0.997155
1.01369
1.01373
1.01372
1.01372
1.01371
1.01372
1.01367
0.997096
0
0
0.997149
1.01368
1.01373
1.01372
1.01371
1.01371
1.01371
1.01367
0.99709
0
0
0.996295
1.01282
1.01287
1.01286
1.01285
1.01285
1.01285
1.01281
0.996237
0
0
0.933091
0.948932
0.948976
0.948965
0.948959
0.948958
0.948963
0.948918
0.933035
0
0
0
0
0
0
0
0
0
0
0
0
0
0
0
0
0
0
0
0
0
0
0
0
0.933092
0.948937
0.948986
0.948981
0.948978
0.948979
0.948983
0.948936
0.933053
0
0
0.996294
1.01282
1.01287
1.01287
1.01287
1.01287
1.01287
1.01282
0.996252
0
0
0.997147
1.01368
1.01373
1.01373
1.01373
1.01373
1.01373
1.01368
0.997105
0
0
0.997152
1.01369
1.01374
1.01373
1.01373
1.01373
1.01374
1.01369
0.997111
0
0
0.997152
1.01369
1.01374
1.01373
1.01373
1.01373
1.01374
1.01369
0.997111
0
0
0.997152
1.01369
1.01374
1.01373
1.01373
1.01373
1.01374
1.01369
0.99711
0
0
0.997146
1.01368
1.01373
1.01373
1.01373
1.01373
1.01373
1.01368
0.997104
0
0
0.996292
1.01282
1.01287
1.01287
1.01287
1.01287
1.01287
1.01282
0.996251
0
0
0.933089
0.948934
0.948983
0.948978
0.948976
0.948976
0.948981
0.948933
0.93305
0
0
0
0
0
0
0
0
0
0
0
0
0
0
0
0
0
0
0
0
0
0
0
0
0.933094
0.948941
0.948994
0.948993
0.948993
0.948995
0.948999
0.948951
0.933068
0
0
0.996295
1.01283
1.01288
1.01288
1.01288
1.01288
1.01289
1.01284
0.996266
0
0
0.997148
1.01369
1.01374
1.01374
1.01374
1.01374
1.01375
1.0137
0.997119
0
0
0.997153
1.01369
1.01375
1.01375
1.01375
1.01375
1.01375
1.0137
0.997125
0
0
0.997153
1.01369
1.01375
1.01375
1.01375
1.01375
1.01375
1.0137
0.997125
0
0
0.997153
1.01369
1.01375
1.01374
1.01374
1.01375
1.01375
1.0137
0.997124
0
0
0.997147
1.01369
1.01374
1.01374
1.01374
1.01374
1.01375
1.0137
0.997118
0
0
0.996293
1.01283
1.01288
1.01288
1.01288
1.01288
1.01289
1.01284
0.996265
0
0
0.933091
0.948938
0.948991
0.94899
0.94899
0.948992
0.948996
0.948948
0.933065
0
0
0
0
0
0
0
0
0
0
0
0
0
0
0
0
0
0
0
0
0
0
0
0
0.933099
0.948947
0.949003
0.949004
0.949006
0.949009
0.949014
0.948965
0.933083
0
0
0.996298
1.01283
1.01289
1.01289
1.01289
1.0129
1.0129
1.01285
0.99628
0
0
0.997151
1.01369
1.01375
1.01375
1.01375
1.01376
1.01376
1.01371
0.997133
0
0
0.997157
1.0137
1.01375
1.01376
1.01376
1.01376
1.01377
1.01372
0.997139
0
0
0.997156
1.0137
1.01375
1.01376
1.01376
1.01376
1.01376
1.01372
0.997139
0
0
0.997156
1.0137
1.01375
1.01376
1.01376
1.01376
1.01376
1.01371
0.997138
0
0
0.99715
1.01369
1.01375
1.01375
1.01375
1.01375
1.01376
1.01371
0.997132
0
0
0.996296
1.01283
1.01289
1.01289
1.01289
1.01289
1.0129
1.01285
0.996279
0
0
0.933095
0.948944
0.949
0.949001
0.949003
0.949006
0.949011
0.948962
0.93308
0
0
0
0
0
0
0
0
0
0
0
0
0
0
0
0
0
0
0
0
0
0
0
0
0.933104
0.948954
0.949012
0.949015
0.949018
0.949022
0.949027
0.948979
0.933097
0
0
0.996303
1.01284
1.0129
1.0129
1.0129
1.01291
1.01291
1.01286
0.996294
0
0
0.997156
1.0137
1.01376
1.01376
1.01376
1.01377
1.01377
1.01372
0.997147
0
0
0.997161
1.0137
1.01376
1.01377
1.01377
1.01377
1.01378
1.01373
0.997152
0
0
0.997161
1.0137
1.01376
1.01376
1.01377
1.01377
1.01378
1.01373
0.997152
0
0
0.997161
1.0137
1.01376
1.01376
1.01377
1.01377
1.01378
1.01373
0.997152
0
0
0.997155
1.0137
1.01376
1.01376
1.01376
1.01377
1.01377
1.01372
0.997146
0
0
0.996301
1.01284
1.0129
1.0129
1.0129
1.01291
1.01291
1.01286
0.996292
0
0
0.933101
0.948951
0.949008
0.949012
0.949015
0.949019
0.949024
0.948975
0.933094
0
0
0
0
0
0
0
0
0
0
0
0
0
0
0
0
0
0
0
0
0
0
0
0
0.933111
0.948962
0.94902
0.949025
0.949029
0.949034
0.94904
0.948991
0.933111
0
0
0.996309
1.01285
1.01291
1.01291
1.01291
1.01292
1.01292
1.01288
0.996307
0
0
0.997162
1.0137
1.01376
1.01377
1.01377
1.01378
1.01378
1.01373
0.99716
0
0
0.997167
1.01371
1.01377
1.01377
1.01378
1.01378
1.01379
1.01374
0.997165
0
0
0.997167
1.01371
1.01377
1.01377
1.01378
1.01378
1.01379
1.01374
0.997165
0
0
0.997166
1.01371
1.01377
1.01377
1.01378
1.01378
1.01379
1.01374
0.997164
0
0
0.99716
1.0137
1.01376
1.01377
1.01377
1.01378
1.01378
1.01373
0.997158
0
0
0.996307
1.01284
1.0129
1.01291
1.01291
1.01292
1.01292
1.01287
0.996305
0
0
0.933108
0.948959
0.949017
0.949022
0.949026
0.949031
0.949036
0.948988
0.933108
0
0
0
0
0
0
0
0
0
0
0
0
0
0
0
0
0
0
0
0
0
0
0
0
0.933118
0.94897
0.949029
0.949035
0.94904
0.949046
0.949051
0.949004
0.933124
0
0
0.996315
1.01285
1.01291
1.01292
1.01292
1.01293
1.01294
1.01289
0.996319
0
0
0.997168
1.01371
1.01377
1.01378
1.01378
1.01379
1.01379
1.01375
0.997172
0
0
0.997173
1.01372
1.01378
1.01378
1.01379
1.01379
1.0138
1.01375
0.997177
0
0
0.997173
1.01372
1.01378
1.01378
1.01379
1.01379
1.0138
1.01375
0.997177
0
0
0.997173
1.01372
1.01378
1.01378
1.01379
1.01379
1.0138
1.01375
0.997177
0
0
0.997167
1.01371
1.01377
1.01378
1.01378
1.01379
1.01379
1.01374
0.997171
0
0
0.996313
1.01285
1.01291
1.01292
1.01292
1.01293
1.01293
1.01288
0.996317
0
0
0.933115
0.948967
0.949026
0.949031
0.949037
0.949042
0.949048
0.949
0.933121
0
0
0
0
0
0
0
0
0
0
0
0
0
0
0
0
0
0
0
0
0
0
0
0
0.933126
0.948978
0.949038
0.949044
0.94905
0.949056
0.949063
0.949015
0.933137
0
0
0.996321
1.01286
1.01292
1.01293
1.01293
1.01294
1.01295
1.0129
0.996331
0
0
0.997174
1.01372
1.01378
1.01379
1.01379
1.0138
1.01381
1.01376
0.997184
0
0
0.99718
1.01372
1.01379
1.01379
1.0138
1.0138
1.01381
1.01376
0.997189
0
0
0.997179
1.01372
1.01379
1.01379
1.0138
1.0138
1.01381
1.01376
0.997189
0
0
0.997179
1.01372
1.01378
1.01379
1.0138
1.0138
1.01381
1.01376
0.997189
0
0
0.997173
1.01372
1.01378
1.01379
1.01379
1.0138
1.0138
1.01375
0.997182
0
0
0.996319
1.01286
1.01292
1.01293
1.01293
1.01294
1.01294
1.0129
0.996329
0
0
0.933122
0.948975
0.949035
0.949041
0.949047
0.949053
0.949059
0.949012
0.933133
0
0
0
0
0
0
0
0
0
0
0
0
0
0
0
0
0
0
0
0
0
0
0
0
0.933133
0.948987
0.949047
0.949054
0.94906
0.949067
0.949073
0.949026
0.933149
0
0
0.996328
1.01287
1.01293
1.01294
1.01294
1.01295
1.01296
1.01291
0.996342
0
0
0.997181
1.01373
1.01379
1.01379
1.0138
1.01381
1.01381
1.01377
0.997195
0
0
0.997186
1.01373
1.01379
1.0138
1.01381
1.01381
1.01382
1.01377
0.9972
0
0
0.997186
1.01373
1.01379
1.0138
1.01381
1.01381
1.01382
1.01377
0.9972
0
0
0.997186
1.01373
1.01379
1.0138
1.01381
1.01381
1.01382
1.01377
0.9972
0
0
0.99718
1.01372
1.01379
1.01379
1.0138
1.01381
1.01381
1.01377
0.997194
0
0
0.996326
1.01287
1.01293
1.01293
1.01294
1.01295
1.01295
1.01291
0.99634
0
0
0.93313
0.948983
0.949043
0.94905
0.949057
0.949063
0.94907
0.949023
0.933145
0
0
0
0
0
0
0
0
0
0
0
0
0
0
0
0
0
0
0
0
0
0
0
0
0.933141
0.948995
0.949056
0.949063
0.94907
0.949077
0.949084
0.949037
0.933161
0
0
0.996335
1.01287
1.01294
1.01294
1.01295
1.01296
1.01297
1.01292
0.996353
0
0
0.997188
1.01373
1.0138
1.0138
1.01381
1.01382
1.01382
1.01378
0.997206
0
0
0.997193
1.01374
1.0138
1.01381
1.01382
1.01382
1.01383
1.01378
0.997211
0
0
0.997193
1.01374
1.0138
1.01381
1.01382
1.01382
1.01383
1.01378
0.997211
0
0
0.997192
1.01374
1.0138
1.01381
1.01381
1.01382
1.01383
1.01378
0.997211
0
0
0.997186
1.01373
1.01379
1.0138
1.01381
1.01382
1.01382
1.01377
0.997205
0
0
0.996333
1.01287
1.01293
1.01294
1.01295
1.01296
1.01296
1.01292
0.996351
0
0
0.933137
0.948991
0.949052
0.949059
0.949066
0.949073
0.94908
0.949033
0.933157
0
0
0
0
0
0
0
0
0
0
0
0
0
0
0
0
0
0
0
0
0
0
0
0
0.933148
0.949003
0.949064
0.949071
0.949079
0.949086
0.949093
0.949047
0.933172
0
0
0.996341
1.01288
1.01294
1.01295
1.01296
1.01297
1.01297
1.01293
0.996364
0
0
0.997194
1.01374
1.0138
1.01381
1.01382
1.01383
1.01383
1.01379
0.997216
0
0
0.997199
1.01375
1.01381
1.01382
1.01382
1.01383
1.01384
1.01379
0.997222
0
0
0.997199
1.01375
1.01381
1.01382
1.01382
1.01383
1.01384
1.01379
0.997221
0
0
0.997199
1.01375
1.01381
1.01382
1.01382
1.01383
1.01384
1.01379
0.997221
0
0
0.997193
1.01374
1.0138
1.01381
1.01382
1.01382
1.01383
1.01378
0.997215
0
0
0.996339
1.01288
1.01294
1.01295
1.01296
1.01296
1.01297
1.01292
0.996361
0
0
0.933144
0.948999
0.94906
0.949068
0.949075
0.949082
0.94909
0.949043
0.933168
0
0
0
0
0
0
0
0
0
0
0
0
0
0
0
0
0
0
0
0
0
0
0
0
0.933155
0.949011
0.949072
0.94908
0.949088
0.949095
0.949103
0.949057
0.933182
0
0
0.996348
1.01289
1.01295
1.01296
1.01297
1.01298
1.01298
1.01294
0.996374
0
0
0.9972
1.01375