# vtk DataFile Version 2.0
FlowField
ASCII
DATASET STRUCTURED_GRID
DIMENSIONS 62 47 32 
POINTS 93248 double
0 0 0
0.01 0 0
0.02 0 0
0.03 0 0
0.04 0 0
0.05 0 0
0.06 0 0
0.07 0 0
0.08 0 0
0.09 0 0
0.1 0 0
0.11 0 0
0.12 0 0
0.13 0 0
0.14 0 0
0.15 0 0
0.16 0 0
0.17 0 0
0.18 0 0
0.19 0 0
0.2 0 0
0.21 0 0
0.22 0 0
0.23 0 0
0.24 0 0
0.25 0 0
0.26 0 0
0.27 0 0
0.28 0 0
0.29 0 0
0.3 0 0
0.31 0 0
0.32 0 0
0.33 0 0
0.34 0 0
0.35 0 0
0.36 0 0
0.37 0 0
0.38 0 0
0.39 0 0
0.4 0 0
0.41 0 0
0.42 0 0
0.43 0 0
0.44 0 0
0.45 0 0
0.46 0 0
0.47 0 0
0.48 0 0
0.49 0 0
0.5 0 0
0.51 0 0
0.52 0 0
0.53 0 0
0.54 0 0
0.55 0 0
0.56 0 0
0.57 0 0
0.58 0 0
0.59 0 0
0.6 0 0
0.61 0 0
0 0.01 0
0.01 0.01 0
0.02 0.01 0
0.03 0.01 0
0.04 0.01 0
0.05 0.01 0
0.06 0.01 0
0.07 0.01 0
0.08 0.01 0
0.09 0.01 0
0.1 0.01 0
0.11 0.01 0
0.12 0.01 0
0.13 0.01 0
0.14 0.01 0
0.15 0.01 0
0.16 0.01 0
0.17 0.01 0
0.18 0.01 0
0.19 0.01 0
0.2 0.01 0
0.21 0.01 0
0.22 0.01 0
0.23 0.01 0
0.24 0.01 0
0.25 0.01 0
0.26 0.01 0
0.27 0.01 0
0.28 0.01 0
0.29 0.01 0
0.3 0.01 0
0.31 0.01 0
0.32 0.01 0
0.33 0.01 0
0.34 0.01 0
0.35 0.01 0
0.36 0.01 0
0.37 0.01 0
0.38 0.01 0
0.39 0.01 0
0.4 0.01 0
0.41 0.01 0
0.42 0.01 0
0.43 0.01 0
0.44 0.01 0
0.45 0.01 0
0.46 0.01 0
0.47 0.01 0
0.48 0.01 0
0.49 0.01 0
0.5 0.01 0
0.51 0.01 0
0.52 0.01 0
0.53 0.01 0
0.54 0.01 0
0.55 0.01 0
0.56 0.01 0
0.57 0.01 0
0.58 0.01 0
0.59 0.01 0
0.6 0.01 0
0.61 0.01 0
0 0.02 0
0.01 0.02 0
0.02 0.02 0
0.03 0.02 0
0.04 0.02 0
0.05 0.02 0
0.06 0.02 0
0.07 0.02 0
0.08 0.02 0
0.09 0.02 0
0.1 0.02 0
0.11 0.02 0
0.12 0.02 0
0.13 0.02 0
0.14 0.02 0
0.15 0.02 0
0.16 0.02 0
0.17 0.02 0
0.18 0.02 0
0.19 0.02 0
0.2 0.02 0
0.21 0.02 0
0.22 0.02 0
0.23 0.02 0
0.24 0.02 0
0.25 0.02 0
0.26 0.02 0
0.27 0.02 0
0.28 0.02 0
0.29 0.02 0
0.3 0.02 0
0.31 0.02 0
0.32 0.02 0
0.33 0.02 0
0.34 0.02 0
0.35 0.02 0
0.36 0.02 0
0.37 0.02 0
0.38 0.02 0
0.39 0.02 0
0.4 0.02 0
0.41 0.02 0
0.42 0.02 0
0.43 0.02 0
0.44 0.02 0
0.45 0.02 0
0.46 0.02 0
0.47 0.02 0
0.48 0.02 0
0.49 0.02 0
0.5 0.02 0
0.51 0.02 0
0.52 0.02 0
0.53 0.02 0
0.54 0.02 0
0.55 0.02 0
0.56 0.02 0
0.57 0.02 0
0.58 0.02 0
0.59 0.02 0
0.6 0.02 0
0.61 0.02 0
0 0.03 0
0.01 0.03 0
0.02 0.03 0
0.03 0.03 0
0.04 0.03 0
0.05 0.03 0
0.06 0.03 0
0.07 0.03 0
0.08 0.03 0
0.09 0.03 0
0.1 0.03 0
0.11 0.03 0
0.12 0.03 0
0.13 0.03 0
0.14 0.03 0
0.15 0.03 0
0.16 0.03 0
0.17 0.03 0
0.18 0.03 0
0.19 0.03 0
0.2 0.03 0
0.21 0.03 0
0.22 0.03 0
0.23 0.03 0
0.24 0.03 0
0.25 0.03 0
0.26 0.03 0
0.27 0.03 0
0.28 0.03 0
0.29 0.03 0
0.3 0.03 0
0.31 0.03 0
0.32 0.03 0
0.33 0.03 0
0.34 0.03 0
0.35 0.03 0
0.36 0.03 0
0.37 0.03 0
0.38 0.03 0
0.39 0.03 0
0.4 0.03 0
0.41 0.03 0
0.42 0.03 0
0.43 0.03 0
0.44 0.03 0
0.45 0.03 0
0.46 0.03 0
0.47 0.03 0
0.48 0.03 0
0.49 0.03 0
0.5 0.03 0
0.51 0.03 0
0.52 0.03 0
0.53 0.03 0
0.54 0.03 0
0.55 0.03 0
0.56 0.03 0
0.57 0.03 0
0.58 0.03 0
0.59 0.03 0
0.6 0.03 0
0.61 0.03 0
0 0.04 0
0.01 0.04 0
0.02 0.04 0
0.03 0.04 0
0.04 0.04 0
0.05 0.04 0
0.06 0.04 0
0.07 0.04 0
0.08 0.04 0
0.09 0.04 0
0.1 0.04 0
0.11 0.04 0
0.12 0.04 0
0.13 0.04 0
0.14 0.04 0
0.15 0.04 0
0.16 0.04 0
0.17 0.04 0
0.18 0.04 0
0.19 0.04 0
0.2 0.04 0
0.21 0.04 0
0.22 0.04 0
0.23 0.04 0
0.24 0.04 0
0.25 0.04 0
0.26 0.04 0
0.27 0.04 0
0.28 0.04 0
0.29 0.04 0
0.3 0.04 0
0.31 0.04 0
0.32 0.04 0
0.33 0.04 0
0.34 0.04 0
0.35 0.04 0
0.36 0.04 0
0.37 0.04 0
0.38 0.04 0
0.39 0.04 0
0.4 0.04 0
0.41 0.04 0
0.42 0.04 0
0.43 0.04 0
0.44 0.04 0
0.45 0.04 0
0.46 0.04 0
0.47 0.04 0
0.48 0.04 0
0.49 0.04 0
0.5 0.04 0
0.51 0.04 0
0.52 0.04 0
0.53 0.04 0
0.54 0.04 0
0.55 0.04 0
0.56 0.04 0
0.57 0.04 0
0.58 0.04 0
0.59 0.04 0
0.6 0.04 0
0.61 0.04 0
0 0.05 0
0.01 0.05 0
0.02 0.05 0
0.03 0.05 0
0.04 0.05 0
0.05 0.05 0
0.06 0.05 0
0.07 0.05 0
0.08 0.05 0
0.09 0.05 0
0.1 0.05 0
0.11 0.05 0
0.12 0.05 0
0.13 0.05 0
0.14 0.05 0
0.15 0.05 0
0.16 0.05 0
0.17 0.05 0
0.18 0.05 0
0.19 0.05 0
0.2 0.05 0
0.21 0.05 0
0.22 0.05 0
0.23 0.05 0
0.24 0.05 0
0.25 0.05 0
0.26 0.05 0
0.27 0.05 0
0.28 0.05 0
0.29 0.05 0
0.3 0.05 0
0.31 0.05 0
0.32 0.05 0
0.33 0.05 0
0.34 0.05 0
0.35 0.05 0
0.36 0.05 0
0.37 0.05 0
0.38 0.05 0
0.39 0.05 0
0.4 0.05 0
0.41 0.05 0
0.42 0.05 0
0.43 0.05 0
0.44 0.05 0
0.45 0.05 0
0.46 0.05 0
0.47 0.05 0
0.48 0.05 0
0.49 0.05 0
0.5 0.05 0
0.51 0.05 0
0.52 0.05 0
0.53 0.05 0
0.54 0.05 0
0.55 0.05 0
0.56 0.05 0
0.57 0.05 0
0.58 0.05 0
0.59 0.05 0
0.6 0.05 0
0.61 0.05 0
0 0.06 0
0.01 0.06 0
0.02 0.06 0
0.03 0.06 0
0.04 0.06 0
0.05 0.06 0
0.06 0.06 0
0.07 0.06 0
0.08 0.06 0
0.09 0.06 0
0.1 0.06 0
0.11 0.06 0
0.12 0.06 0
0.13 0.06 0
0.14 0.06 0
0.15 0.06 0
0.16 0.06 0
0.17 0.06 0
0.18 0.06 0
0.19 0.06 0
0.2 0.06 0
0.21 0.06 0
0.22 0.06 0
0.23 0.06 0
0.24 0.06 0
0.25 0.06 0
0.26 0.06 0
0.27 0.06 0
0.28 0.06 0
0.29 0.06 0
0.3 0.06 0
0.31 0.06 0
0.32 0.06 0
0.33 0.06 0
0.34 0.06 0
0.35 0.06 0
0.36 0.06 0
0.37 0.06 0
0.38 0.06 0
0.39 0.06 0
0.4 0.06 0
0.41 0.06 0
0.42 0.06 0
0.43 0.06 0
0.44 0.06 0
0.45 0.06 0
0.46 0.06 0
0.47 0.06 0
0.48 0.06 0
0.49 0.06 0
0.5 0.06 0
0.51 0.06 0
0.52 0.06 0
0.53 0.06 0
0.54 0.06 0
0.55 0.06 0
0.56 0.06 0
0.57 0.06 0
0.58 0.06 0
0.59 0.06 0
0.6 0.06 0
0.61 0.06 0
0 0.07 0
0.01 0.07 0
0.02 0.07 0
0.03 0.07 0
0.04 0.07 0
0.05 0.07 0
0.06 0.07 0
0.07 0.07 0
0.08 0.07 0
0.09 0.07 0
0.1 0.07 0
0.11 0.07 0
0.12 0.07 0
0.13 0.07 0
0.14 0.07 0
0.15 0.07 0
0.16 0.07 0
0.17 0.07 0
0.18 0.07 0
0.19 0.07 0
0.2 0.07 0
0.21 0.07 0
0.22 0.07 0
0.23 0.07 0
0.24 0.07 0
0.25 0.07 0
0.26 0.07 0
0.27 0.07 0
0.28 0.07 0
0.29 0.07 0
0.3 0.07 0
0.31 0.07 0
0.32 0.07 0
0.33 0.07 0
0.34 0.07 0
0.35 0.07 0
0.36 0.07 0
0.37 0.07 0
0.38 0.07 0
0.39 0.07 0
0.4 0.07 0
0.41 0.07 0
0.42 0.07 0
0.43 0.07 0
0.44 0.07 0
0.45 0.07 0
0.46 0.07 0
0.47 0.07 0
0.48 0.07 0
0.49 0.07 0
0.5 0.07 0
0.51 0.07 0
0.52 0.07 0
0.53 0.07 0
0.54 0.07 0
0.55 0.07 0
0.56 0.07 0
0.57 0.07 0
0.58 0.07 0
0.59 0.07 0
0.6 0.07 0
0.61 0.07 0
0 0.08 0
0.01 0.08 0
0.02 0.08 0
0.03 0.08 0
0.04 0.08 0
0.05 0.08 0
0.06 0.08 0
0.07 0.08 0
0.08 0.08 0
0.09 0.08 0
0.1 0.08 0
0.11 0.08 0
0.12 0.08 0
0.13 0.08 0
0.14 0.08 0
0.15 0.08 0
0.16 0.08 0
0.17 0.08 0
0.18 0.08 0
0.19 0.08 0
0.2 0.08 0
0.21 0.08 0
0.22 0.08 0
0.23 0.08 0
0.24 0.08 0
0.25 0.08 0
0.26 0.08 0
0.27 0.08 0
0.28 0.08 0
0.29 0.08 0
0.3 0.08 0
0.31 0.08 0
0.32 0.08 0
0.33 0.08 0
0.34 0.08 0
0.35 0.08 0
0.36 0.08 0
0.37 0.08 0
0.38 0.08 0
0.39 0.08 0
0.4 0.08 0
0.41 0.08 0
0.42 0.08 0
0.43 0.08 0
0.44 0.08 0
0.45 0.08 0
0.46 0.08 0
0.47 0.08 0
0.48 0.08 0
0.49 0.08 0
0.5 0.08 0
0.51 0.08 0
0.52 0.08 0
0.53 0.08 0
0.54 0.08 0
0.55 0.08 0
0.56 0.08 0
0.57 0.08 0
0.58 0.08 0
0.59 0.08 0
0.6 0.08 0
0.61 0.08 0
0 0.09 0
0.01 0.09 0
0.02 0.09 0
0.03 0.09 0
0.04 0.09 0
0.05 0.09 0
0.06 0.09 0
0.07 0.09 0
0.08 0.09 0
0.09 0.09 0
0.1 0.09 0
0.11 0.09 0
0.12 0.09 0
0.13 0.09 0
0.14 0.09 0
0.15 0.09 0
0.16 0.09 0
0.17 0.09 0
0.18 0.09 0
0.19 0.09 0
0.2 0.09 0
0.21 0.09 0
0.22 0.09 0
0.23 0.09 0
0.24 0.09 0
0.25 0.09 0
0.26 0.09 0
0.27 0.09 0
0.28 0.09 0
0.29 0.09 0
0.3 0.09 0
0.31 0.09 0
0.32 0.09 0
0.33 0.09 0
0.34 0.09 0
0.35 0.09 0
0.36 0.09 0
0.37 0.09 0
0.38 0.09 0
0.39 0.09 0
0.4 0.09 0
0.41 0.09 0
0.42 0.09 0
0.43 0.09 0
0.44 0.09 0
0.45 0.09 0
0.46 0.09 0
0.47 0.09 0
0.48 0.09 0
0.49 0.09 0
0.5 0.09 0
0.51 0.09 0
0.52 0.09 0
0.53 0.09 0
0.54 0.09 0
0.55 0.09 0
0.56 0.09 0
0.57 0.09 0
0.58 0.09 0
0.59 0.09 0
0.6 0.09 0
0.61 0.09 0
0 0.1 0
0.01 0.1 0
0.02 0.1 0
0.03 0.1 0
0.04 0.1 0
0.05 0.1 0
0.06 0.1 0
0.07 0.1 0
0.08 0.1 0
0.09 0.1 0
0.1 0.1 0
0.11 0.1 0
0.12 0.1 0
0.13 0.1 0
0.14 0.1 0
0.15 0.1 0
0.16 0.1 0
0.17 0.1 0
0.18 0.1 0
0.19 0.1 0
0.2 0.1 0
0.21 0.1 0
0.22 0.1 0
0.23 0.1 0
0.24 0.1 0
0.25 0.1 0
0.26 0.1 0
0.27 0.1 0
0.28 0.1 0
0.29 0.1 0
0.3 0.1 0
0.31 0.1 0
0.32 0.1 0
0.33 0.1 0
0.34 0.1 0
0.35 0.1 0
0.36 0.1 0
0.37 0.1 0
0.38 0.1 0
0.39 0.1 0
0.4 0.1 0
0.41 0.1 0
0.42 0.1 0
0.43 0.1 0
0.44 0.1 0
0.45 0.1 0
0.46 0.1 0
0.47 0.1 0
0.48 0.1 0
0.49 0.1 0
0.5 0.1 0
0.51 0.1 0
0.52 0.1 0
0.53 0.1 0
0.54 0.1 0
0.55 0.1 0
0.56 0.1 0
0.57 0.1 0
0.58 0.1 0
0.59 0.1 0
0.6 0.1 0
0.61 0.1 0
0 0.11 0
0.01 0.11 0
0.02 0.11 0
0.03 0.11 0
0.04 0.11 0
0.05 0.11 0
0.06 0.11 0
0.07 0.11 0
0.08 0.11 0
0.09 0.11 0
0.1 0.11 0
0.11 0.11 0
0.12 0.11 0
0.13 0.11 0
0.14 0.11 0
0.15 0.11 0
0.16 0.11 0
0.17 0.11 0
0.18 0.11 0
0.19 0.11 0
0.2 0.11 0
0.21 0.11 0
0.22 0.11 0
0.23 0.11 0
0.24 0.11 0
0.25 0.11 0
0.26 0.11 0
0.27 0.11 0
0.28 0.11 0
0.29 0.11 0
0.3 0.11 0
0.31 0.11 0
0.32 0.11 0
0.33 0.11 0
0.34 0.11 0
0.35 0.11 0
0.36 0.11 0
0.37 0.11 0
0.38 0.11 0
0.39 0.11 0
0.4 0.11 0
0.41 0.11 0
0.42 0.11 0
0.43 0.11 0
0.44 0.11 0
0.45 0.11 0
0.46 0.11 0
0.47 0.11 0
0.48 0.11 0
0.49 0.11 0
0.5 0.11 0
0.51 0.11 0
0.52 0.11 0
0.53 0.11 0
0.54 0.11 0
0.55 0.11 0
0.56 0.11 0
0.57 0.11 0
0.58 0.11 0
0.59 0.11 0
0.6 0.11 0
0.61 0.11 0
0 0.12 0
0.01 0.12 0
0.02 0.12 0
0.03 0.12 0
0.04 0.12 0
0.05 0.12 0
0.06 0.12 0
0.07 0.12 0
0.08 0.12 0
0.09 0.12 0
0.1 0.12 0
0.11 0.12 0
0.12 0.12 0
0.13 0.12 0
0.14 0.12 0
0.15 0.12 0
0.16 0.12 0
0.17 0.12 0
0.18 0.12 0
0.19 0.12 0
0.2 0.12 0
0.21 0.12 0
0.22 0.12 0
0.23 0.12 0
0.24 0.12 0
0.25 0.12 0
0.26 0.12 0
0.27 0.12 0
0.28 0.12 0
0.29 0.12 0
0.3 0.12 0
0.31 0.12 0
0.32 0.12 0
0.33 0.12 0
0.34 0.12 0
0.35 0.12 0
0.36 0.12 0
0.37 0.12 0
0.38 0.12 0
0.39 0.12 0
0.4 0.12 0
0.41 0.12 0
0.42 0.12 0
0.43 0.12 0
0.44 0.12 0
0.45 0.12 0
0.46 0.12 0
0.47 0.12 0
0.48 0.12 0
0.49 0.12 0
0.5 0.12 0
0.51 0.12 0
0.52 0.12 0
0.53 0.12 0
0.54 0.12 0
0.55 0.12 0
0.56 0.12 0
0.57 0.12 0
0.58 0.12 0
0.59 0.12 0
0.6 0.12 0
0.61 0.12 0
0 0.13 0
0.01 0.13 0
0.02 0.13 0
0.03 0.13 0
0.04 0.13 0
0.05 0.13 0
0.06 0.13 0
0.07 0.13 0
0.08 0.13 0
0.09 0.13 0
0.1 0.13 0
0.11 0.13 0
0.12 0.13 0
0.13 0.13 0
0.14 0.13 0
0.15 0.13 0
0.16 0.13 0
0.17 0.13 0
0.18 0.13 0
0.19 0.13 0
0.2 0.13 0
0.21 0.13 0
0.22 0.13 0
0.23 0.13 0
0.24 0.13 0
0.25 0.13 0
0.26 0.13 0
0.27 0.13 0
0.28 0.13 0
0.29 0.13 0
0.3 0.13 0
0.31 0.13 0
0.32 0.13 0
0.33 0.13 0
0.34 0.13 0
0.35 0.13 0
0.36 0.13 0
0.37 0.13 0
0.38 0.13 0
0.39 0.13 0
0.4 0.13 0
0.41 0.13 0
0.42 0.13 0
0.43 0.13 0
0.44 0.13 0
0.45 0.13 0
0.46 0.13 0
0.47 0.13 0
0.48 0.13 0
[...]
POINT_DATA 93248

SCALARS u double
LOOKUP_TABLE default
0
0
0
0
0
0
0
0
0
0
0
0
0
0
0
0
0
0
0
0
0
0
0
0
0.240087
0
0
0
0
0
0
0
-0.0031884
0.187419
0
0
0
0
0
0
0
0
0
0
0
0
0
0.0254575
0
0
0.0401224
0
0
0
0
0
0
0
0
0
0
0
0
0.40276
0.314768
0.229879
0.159366
0.107301
0.0679527
0.0394933
0.0188837
0.00317582
-0.00933662
-0.0183255
-0.0194023
-0.0213829
-0.0224285
-0.0218054
-0.020278
-0.0195909
-0.0191869
-0.0193172
-0.00781965
-0.00539326
-0.011716
-0.010277
-0.00850752
-0.00722083
-0.00627927
-0.00557092
-0.0050939
-0.00495504
-0.00528851
-0.00556194
-0.00264538
-0.00307208
-0.00440264
-0.00519133
-0.0021379
-0.00481008
-0.00895827
0.128099
-0.0114347
-0.00512025
-0.00253771
0.00255379
0.0168084
-0.0375743
-0.0141478
-0.0115219
-0.00988236
-0.0100893
-0.0101096
-0.0168396
-0.00760583
0.00765837
-0.0467803
-0.034295
-0.0420657
-0.0264264
-0.0333843
-0.0441714
-0.0441714
0
0
0.477398
0.449425
0.412186
0.36583
0.321355
0.269478
0.218942
0.173788
0.136359
0.106239
0.0826277
0.0718082
0.060767
0.0537868
0.0505182
0.0493705
0.0480067
0.0495902
0.26766
0.0603614
0.0644891
0.0414103
0.0468987
0.0481933
0.0483992
0.048086
0.0473888
0.0463453
0.0449322
0.0430246
0.0404982
0.0423328
0.039013
0.0368372
0.0357995
0.0306753
0.0281032
0.0104706
0.0262559
0.0231478
0.0201361
0.0212793
0.0237324
0.0232275
-0.00426468
-0.0111258
-0.00842855
-0.00859465
-0.00857742
-0.00670581
-0.0190558
-0.0164035
-0.0196575
-0.050073
-0.0545072
-0.0623712
-0.0641981
-0.075237
-0.0874378
-0.0874378
0
0
0.47144
0.459597
0.447561
0.42243
0.415075
0.376714
0.340029
0.304372
0.270625
0.276804
0.216799
0.188605
0.171806
0.159645
0.151499
0.145633
0.139097
0.136897
0.135327
0.127992
0.129834
0.120654
0.119065
0.118009
0.116443
0.114345
0.111815
0.108964
0.105977
0.103293
0.101477
0.0952644
0.0880088
0.180314
0.0836865
0.0775858
0.0737452
0.0714337
0.0682827
0.063467
0.0579945
0.103528
0.0496441
0.0421469
0.100721
0.0145739
0.00884955
-0.00859465
0.00238728
-0.00113259
-0.0107215
-0.0168396
-0.0271266
-0.0445381
-0.0561591
-0.0669467
-0.0820462
-0.092129
-0.102984
-0.102984
0
0
0.464382
0.447208
0.445958
0.431572
0.42168
0.403955
0.38348
0.361799
0.339988
0.318501
0.298378
0.276859
0.258608
0.24342
0.233716
0.22193
0.216058
0.209255
0.265408
0.19438
0.188456
0.182204
0.177658
0.173958
0.170368
0.166555
0.162456
0.158121
0.153658
0.149155
0.144243
0.13722
0.129811
0.123759
0.119197
0.11399
0.109191
0.104151
0.0985973
0.0922886
0.0850043
0.0768621
0.0689931
0.0591878
0.047152
0.0349689
0.0267267
0.0202164
0.013596
0.00619158
-0.00315264
-0.0131094
-0.0247926
-0.037983
-0.0509095
-0.0636832
-0.0775137
-0.0895306
-0.101777
-0.101777
0
0
0.462054
0.443284
0.431654
0.419944
0.409853
0.398062
0.385405
0.372073
0.358229
0.344042
0.329661
0.31473
0.299669
0.283026
0.284248
0.269379
0.260236
0.25211
0.243071
0.23492
0.227545
0.220925
0.215026
0.209658
0.204536
0.199378
0.194106
0.188692
0.183093
0.177146
0.170401
0.16252
0.1566
0.149423
0.142753
0.136391
0.130114
0.123445
0.11631
0.108637
0.100242
0.0910114
0.0813511
0.0710991
0.0611727
0.0636429
0.0394278
0.030666
0.0217053
0.0122955
0.00222661
-0.00855475
-0.0198653
-0.0313669
-0.0429497
-0.0541346
-0.0646259
-0.0743468
-0.0863163
-0.0863163
0
0
0.461012
0.439582
0.422728
0.408321
0.395858
0.383798
0.372964
0.36231
0.351464
0.340612
0.329825
0.319212
0.308077
0.297093
0.292766
0.285246
0.277326
0.271351
0.26281
0.255138
0.248024
0.241322
0.234932
0.228802
0.222864
0.21687
0.210872
0.204812
0.198565
0.191923
0.184528
0.175822
0.171216
0.163004
0.155143
0.147755
0.140415
0.132793
0.124785
0.116316
0.107307
0.0976686
0.0874083
0.0763464
0.0645998
0.0583161
0.0477217
0.037211
0.0269159
0.0166049
0.00617714
-0.00440163
-0.0149231
-0.0251122
-0.0348076
-0.0435462
-0.0502708
-0.0518956
-0.0439989
-0.0439989
0
0
0.460431
0.437245
0.417438
0.400284
0.385578
0.446023
0.360963
0.348487
0.337185
0.326728
0.31726
0.309471
0.300776
0.292886
0.286954
0.28195
0.278612
0.273586
0.26766
0.261685
0.255837
0.2498
0.243602
0.237361
0.23117
0.224821
0.218579
0.212312
0.205896
0.199251
0.192631
0.186913
0.174753
0.167115
0.159845
0.152355
0.144605
0.136533
0.128099
0.11927
0.110035
0.105302
0.0901181
0.0795213
0.0692146
0.0607271
0.0509277
0.0405352
0.0300285
0.0195662
0.00923581
-0.000855613
-0.0106205
-0.0198007
-0.0283268
-0.0365098
-0.0458516
-0.0599908
-0.0217431
-0.0217431
0
0
0.460066
0.435756
0.414152
0.394862
0.377513
0.361247
0.347431
0.334583
0.322622
0.311519
0.301803
0.297747
0.289278
0.282057
0.274902
0.0493705
0.2753
0.269338
0.265408
0.261114
0.256925
0.251807
0.246108
0.24004
0.204536
0.227587
0.221635
0.215522
0.209226
0.202627
0.195612
0.188182
0.178558
0.17001
0.162053
0.15415
0.146108
0.137806
0.129177
0.1202
0.110866
0.101163
0.0912741
0.0812705
0.0714641
0.0619953
0.0522513
0.0421584
0.0318953
0.0216633
0.0116462
0.0021196
-0.00713303
-0.0157972
-0.0239333
-0.0318549
-0.0403559
-0.0522019
-0.0438199
-0.0438199
0
0
0.459823
0.434772
0.411996
0.391241
0.372224
0.354611
0.338858
0.324506
0.311211
0.298368
0.283359
0.292792
0.280145
0.272758
0.267543
0.265661
0.267643
0.265186
0.262039
0.258315
0.25538
0.250794
0.245616
0.240119
0.234981
0.228941
0.222911
0.216935
0.210873
0.204352
0.196551
0.188366
0.179837
0.171456
0.163262
0.155071
0.146803
0.138344
0.129602
0.120561
0.11124
0.101682
0.0919946
0.0822654
0.0725752
0.0628831
0.0531093
0.043198
0.0331966
0.023242
0.0133924
0.00470288
-0.00440977
-0.0129359
-0.021159
-0.0294319
-0.0382945
-0.048034
-0.055289
-0.055289
0
0
0.459658
0.434103
0.410531
0.388793
0.3687
0.35014
0.333167
0.317652
0.303429
0.29034
0.278939
0.277526
0.271281
0.265869
0.261798
0.260372
0.260203
0.259223
0.257679
0.25592
0.251737
0.247968
0.243566
0.238342
0.2346
0.228675
0.222998
0.217436
0.211876
0.238484
0.196788
0.188299
0.18022
0.172155
0.164063
0.16535
0.147472
0.138872
0.130025
0.120931
0.111629
0.10217
0.0925953
0.0829728
0.073328
0.0636429
0.0539173
0.0441387
0.0343285
0.0246523
0.0151852
-0.00189047
-0.00237518
-0.0108512
-0.0192671
-0.0278224
-0.0368978
-0.0468796
-0.058004
-0.058004
0
0
0.459544
0.433642
0.409514
0.387098
0.366264
0.346975
0.329243
0.313054
0.298449
0.285648
0.275491
0.269191
0.263968
0.260206
0.256284
0.254759
0.254278
0.253815
0.25309
0.258467
0.248944
0.245512
0.241466
0.236876
0.232568
0.227454
0.2223
0.217195
0.211687
0.205792
0.195434
0.188199
0.180692
0.172797
0.164675
0.156395
0.159921
0.139538
0.130589
0.121425
0.112113
0.102744
0.0932148
0.0836317
0.0740268
0.064406
0.0547808
0.045136
0.0354595
0.0260941
0.0171278
0.00854675
-0.000377239
-0.00912691
-0.0177524
-0.0264869
-0.0357125
-0.0459314
-0.0576167
-0.0576167
0
0
0.459468
0.433338
0.408869
0.385883
0.364515
0.344728
0.326524
0.309972
0.295222
0.282491
0.272267
0.264565
0.259053
0.256023
0.25128
0.250281
0.249928
0.249548
0.249212
0.248169
0.246113
0.243131
0.23939
0.235078
0.23044
0.225526
0.220783
0.216163
0.210381
0.201728
0.198343
0.190464
0.182132
0.173822
0.165486
0.157066
0.148528
0.140059
0.131203
0.121964
0.112553
0.103528
0.093957
0.084358
0.0747765
0.0652207
0.0557119
0.0462113
0.0365469
0.0273998
0.0186015
0.00991686
0.00109974
-0.00767754
-0.0163737
-0.0251741
-0.0344518
-0.0447124
-0.0564361
-0.0564361
0
0
0.459418
0.433134
0.408405
0.384984
0.363287
0.343165
0.32466
0.307891
0.293052
0.28019
0.269708
0.261414
0.254957
0.249355
0.24975
0.24834
0.247233
0.246366
0.246442
0.245674
0.243794
0.240948
0.237287
0.232933
0.228003
0.222771
0.217957
0.213983
0.211297
0.204599
0.198497
0.191152
0.183141
0.174833
0.166393
0.157915
0.14935
0.14093
0.131992
0.12247
0.112224
0.105246
0.0949553
0.0852126
0.0756061
0.0660751
0.0566572
0.0473317
0.037484
0.0285688
0.019863
0.0111119
0.00230317
-0.0064135
-0.0150419
-0.0237823
-0.0330369
-0.0432492
-0.0549961
-0.0549961
0
0
0.459389
0.433022
0.408284
0.38414
0.362414
0.342098
0.323392
0.306449
0.291411
0.278631
0.267904
0.259313
0.252733
0.248135
0.246633
0.245638
0.2447
0.243501
0.244746
0.243974
0.241909
0.238951
0.235185
0.230572
0.225027
0.21851
0.211535
0.205322
0.218129
0.210595
0.201708
0.193168
0.184634
0.175985
0.16731
0.158882
0.149836
0.141893
0.132973
0.123405
0.113703
0.105302
0.0957825
0.0861354
0.0764952
0.0669109
0.0574641
0.0483345
0.0383336
0.0298262
0.0212104
0.0124367
0.0033813
-0.00523585
-0.013696
-0.0222093
-0.0314589
-0.0414664
-0.0532098
-0.0532098
0
0
0.459363
0.432873
0.407843
0.384034
0.361933
0.341415
0.322556
0.305505
0.290424
0.277482
0.266649
0.257977
0.251493
0.247216
0.244981
0.243873
0.24306
0.241395
0.244088
0.242448
0.240032
0.237017
0.233171
0.228251
0.22181
0.212605
0.196518
0.161895
0.260848
0.224492
0.207937
0.196567
0.186621
0.177108
0.167833
0.158899
0.150307
0.142764
0.134155
0.124812
0.115361
0.106145
0.0967335
0.0871542
0.077445
0.0676984
0.0578649
0.0479967
0.0402815
0.0315723
0.0228291
0.0144243
0.00395711
-0.00409993
-0.0123633
-0.0206243
-0.0293908
-0.0390628
-0.0506789
-0.0506789
0
0
0.459372
0.432766
0.407622
0.383892
0.361688
0.341026
0.322034
0.304905
0.289797
0.276804
0.265887
0.257165
0.250724
0.24651
0.244177
0.243218
0.243397
0.245327
0.240385
0.239296
0.237801
0.235253
0.23157
0.226612
0.220014
0.211037
0.199108
0.18988
0.223114
0.21917
0.208749
0.197876
0.187418
0.177284
0.167353
0.157706
0.148912
0.142274
0.136014
0.127286
0.117757
0.108087
0.0983572
0.0885535
0.0786118
0.0687193
0.0588469
0.0492604
0.040631
0.0327057
0.0240725
0.0152518
0.00581582
-0.00246967
-0.0112096
-0.018933
-0.0268738
-0.0356567
-0.0466665
-0.0466665
0
0
0.459444
0.432702
0.407536
0.383865
0.361652
0.340757
0.321646
0.30451
0.289457
0.276531
0.265495
0.256674
0.250217
0.24606
0.243821
0.242952
0.242976
0.243209
0.241109
0.239319
0.237319
0.234614
0.230965
0.226243
0.220388
0.213583
0.206915
0.20455
0.2107
0.209706
0.203636
0.195216
0.185803
0.175857
0.16544
0.154461
0.143206
0.134841
0.143031
0.133502
0.122218
0.111303
0.100721
0.0903674
0.0800392
0.069991
0.0600797
0.0503426
0.0409939
0.0337843
0.0249095
0.0160294
0.00767924
0.000875219
-0.0116961
-0.0174878
-0.0240664
-0.0310027
-0.039737
-0.039737
0
0
0.459205
0.432826
0.407685
0.384045
0.362014
0.326524
0.321125
0.304223
0.289375
0.276668
0.265322
0.256344
0.249868
0.245858
0.2438
0.242919
0.242596
0.242378
0.241425
0.239887
0.237766
0.234954
0.231367
0.227014
0.222095
0.217197
0.251888
0.209699
0.208796
0.205245
0.199364
0.191882
0.183278
0.17363
0.16271
0.149493
0.130406
0.0917312
0.184392
0.147468
0.128786
0.115187
0.103262
0.0920914
0.081634
0.0713697
0.0614153
0.0516161
0.041606
0.0346692
0.0251399
0.0163848
0.00837262
0.000645034
-0.0093241
-0.0368978
-0.0216699
-0.0260082
-0.0265716
0
0
0
0.459279
0.432135
0.407542
0.384103
0.362226
0.340731
0.321412
0.304349
0.289613
0.277285
0.265146
0.256114
0.249697
0.246059
0.244302
0.243361
0.242725
0.242672
0.242067
0.240706
0.238628
0.23585
0.232383
0.228327
0.223946
0.219684
0.215452
0.210886
0.208998
0.203357
0.196738
0.189416
0.181267
0.176407
0.161162
0.148284
0.133065
0.120724
0.150307
0.120561
0.129756
0.116842
0.104711
0.0933486
0.082668
0.0724341
0.0627128
0.0536885
0.0453083
0.0323097
0.0239444
0.0159278
0.00806125
0.000276741
-0.00754726
-0.0144305
-0.021416
-0.0287074
-0.0381072
-0.0381072
0
0
0.459312
0.43272
0.407375
0.384133
0.362512
0.340415
0.32133
0.304434
0.289792
0.277989
0.26482
0.256356
0.250035
0.247223
0.245776
0.244511
0.243369
0.243826
0.243199
0.241785
0.239727
0.237026
0.233649
0.22969
0.225361
0.221212
0.21941
0.216264
0.207264
0.201209
0.194912
0.187955
0.180314
0.17157
0.161761
0.151243
0.141458
0.136046
0.138425
0.134531
0.125755
0.115179
0.104176
0.093387
0.0829719
0.0728874
0.063224
0.0539224
0.0444588
0.033582
0.0241642
0.0156248
0.00758112
-0.00016279
-0.0077784
-0.0154702
-0.0239332
-0.0338481
-0.0459037
-0.0459037
0
0
0.459334
0.432802
0.407819
0.383431
0.360177
0.340843
0.321902
0.304639
0.289268
0.274916
0.267264
0.258622
0.251535
0.315434
0.248463
0.246313
0.244496
0.245509
0.244377
0.242849
0.240899
0.238345
0.235001
0.230917
0.225902
0.218521
0.225736
0.217272
0.209129
0.201817
0.194749
0.187661
0.180509
0.172495
0.163791
0.155085
0.147366
0.141474
0.136248
0.130001
0.122047
0.112789
0.102535
0.0924756
0.0825437
0.0726558
0.0630117
0.0535078
0.043884
0.033982
0.0242972
0.0153117
0.00698037
-0.000954317
-0.00895656
-0.0172975
-0.026649
-0.0375503
-0.0498934
-0.0498934
0
0
0.459335
0.432784
0.407629
0.383525
0.360805
0.340478
0.321578
0.304492
0.289565
0.27707
0.267744
0.260029
0.343417
0.252691
0.249429
0.2478
0.248164
0.245161
0.244508
0.243648
0.242135
0.239868
0.236516
0.232413
0.227638
0.222486
0.222469
0.217043
0.209954
0.202485
0.194947
0.18759
0.180976
0.174328
0.166461
0.15862
0.151032
0.143843
0.136419
0.128632
0.120367
0.111883
0.100225
0.0910909
0.0815951
0.0719167
0.0624151
0.0529675
0.0434923
0.0337911
0.023803
0.0146358
0.00610363
-0.00206994
-0.0103619
-0.0189441
-0.0286377
-0.040034
-0.0523208
-0.0523208
0
0
0.459338
0.432787
0.407623
0.383773
0.361395
0.340677
0.321374
0.304251
0.289602
0.279525
0.269583
0.262337
0.258659
0.249731
0.247878
0.247681
0.247936
0.247028
0.246267
0.245323
0.243919
0.241869
0.238281
0.234267
0.230024
0.225799
0.222001
0.216629
0.209996
0.202568
0.194538
0.186145
0.178845
0.178297
0.169977
0.162638
0.154166
0.145732
0.137228
0.128581
0.119724
0.110439
0.0998208
0.089997
0.0503983
0.0709259
0.0617073
0.052392
0.0430955
0.0333525
0.000812303
0.013604
0.00497499
-0.0361304
-0.011772
-0.0201769
-0.0298709
-0.0419372
-0.0540844
-0.0540844
0
0
0.459349
0.432833
0.407755
0.384129
0.362056
0.341425
0.321067
0.303547
0.28595
0.285265
0.272081
0.263952
0.258455
0.252909
0.250165
0.249269
0.249292
0.248963
0.248382
0.24745
0.246128
0.244388
0.240107
0.236294
0.232367
0.228069
0.223149
0.204812
0.210373
0.202708
0.19363
0.181808
0.161011
0.196779
0.174101
0.169993
0.157684
0.147663
0.138227
0.128946
0.119551
0.109646
0.0995942
0.0898981
0.0805961
0.0708201
0.0612094
0.0517645
0.0426256
0.0334219
0.0218459
0.0132697
0.00476744
-0.003513
-0.0123831
-0.0210158
-0.0303796
-0.0435439
-0.0552251
-0.0552251
0
0
0.459366
0.432902
0.407939
0.384564
0.363064
0.344373
0.31967
0.304226
0.289439
0.282183
0.272879
0.26514
0.259329
0.255126
0.25267
0.251341
0.252291
0.251457
0.250753
0.24975
0.248361
0.246936
0.241932
0.238775
0.235007
0.230427
0.225158
0.218873
0.211976
0.204072
0.194372
0.183782
0.173361
0.183675
0.175757
0.168869
0.158834
0.148692
0.138869
0.129278
0.119644
0.109236
0.0992436
0.0895959
0.0800595
0.07035
0.0605899
0.050825
0.0254709
0.0329834
0.0206719
0.0131315
0.00425684
-0.00464304
-0.0136168
-0.0223308
-0.0307288
-0.0443636
-0.0550609
-0.0550609
0
0
0.45938
0.432957
0.408075
0.384822
0.363362
0.343724
0.323351
0.306423
0.292431
0.281988
0.273151
0.266012
0.260672
0.25712
0.255154
0.254274
0.254317
0.253942
0.253301
0.252121
0.250042
0.246287
0.246471
0.242823
0.238263
0.233016
0.227082
0.221224
0.214518
0.207859
0.1958
0.188569
0.182273
0.179445
0.173688
0.16643
0.157695
0.148304
0.138747
0.129253
0.11977
0.108717
0.098879
0.0893173
0.0796758
0.0698872
0.0599706
0.0499159
0.0396034
0.0286679
0.0248921
0.0134208
0.00361842
-0.00580209
-0.0152925
-0.0252601
-0.0355992
-0.039764
-0.0526395
-0.0526395
0
0
0.459384
0.432969
0.40812
0.384928
0.363485
0.343807
0.325802
0.308443
0.294482
0.283378
0.274499
0.267608
0.262632
0.259447
0.257841
0.257308
0.257152
0.256888
0.256255
0.255029
0.253142
0.250604
0.233171
0.245175
0.240867
0.235526
0.229604
0.223413
0.216759
0.209634
0.2003
0.192834
0.186249
0.179849
0.172892
0.165128
0.156606
0.147542
0.138166
0.12872
0.119568
0.108142
0.0988445
0.0893212
0.0795336
0.0695854
0.0595186
0.04936
0.0392117
0.0296114
0.0221028
0.0125071
0.00281938
-0.00667484
-0.0160784
-0.0254604
-0.0344765
-0.0422215
-0.0535475
-0.0535475
0
0
0.459365
0.432904
0.408043
0.384929
0.363603
0.344217
0.327472
0.309583
0.296376
0.285605
0.276849
0.27012
0.265351
0.262352
0.260938
0.260656
0.260463
0.260219
0.259621
0.258467
0.256971
0.254768
0.251999
0.248168
0.243528
0.237977
0.232061
0.225744
0.218965
0.211656
0.203802
0.196206
0.188802
0.181201
0.173278
0.164933
0.156166
0.14701
0.137476
0.127436
0.116749
0.109792
0.0998151
0.0896555
0.0795531
0.0694239
0.0592537
0.0490942
0.0390829
0.0294904
0.0203507
0.0110949
0.00179551
-0.00738191
-0.0163928
-0.0252214
-0.0346824
-0.04401
-0.0551933
-0.0551933
0
0
0.459302
0.432685
0.407809
0.384856
0.363632
0.34395
0.325036
0.312652
0.299864
0.289439
0.280073
0.273434
0.268838
0.265947
0.264372
0.264348
0.264015
0.263836
0.263394
0.262335
0.261278
0.258964
0.255665
0.251343
0.207128
0.240449
0.234682
0.22832
0.221446
0.214138
0.206545
0.198802
0.190891
0.182687
0.174169
0.16535
0.156253
0.146883
0.137241
0.127351
0.117532
0.108818
0.0993289
0.0894535
0.0794181
0.0692447
0.0590129
0.048802
0.0386792
0.0287953
0.0191839
0.00986303
0.00076519
-0.00812339
-0.0168862
-0.025722
-0.0351684
-0.0450911
-0.0564097
-0.0564097
0
0
0.459172
0.432135
0.414845
0.38491
0.363978
0.344829
0.327605
0.313979
0.30201
0.291784
0.283521
0.277294
0.273109
0.271086
0.267433
0.267829
0.267468
0.25211
0.2678
0.266953
0.2661
0.263382
0.259757
0.255498
0.250495
0.244395
0.238001
0.231289
0.224213
0.216787
0.209077
0.201109
0.192849
0.184213
0.175253
0.166053
0.156659
0.14709
0.137382
0.127605
0.117915
0.10837
0.0987586
0.0890432
0.0791425
0.0689589
0.0586713
0.0483702
0.0380319
0.0279005
0.0181411
0.00878021
-0.000235719
-0.00897232
-0.0176592
-0.0265369
-0.0358347
-0.0458759
-0.0551933
-0.0571806
0
0
0.459142
0.430567
0.40642
0.384533
0.364467
0.34626
0.330189
0.316553
0.30498
0.29534
0.287627
0.281824
0.277849
0.275354
0.272099
0.0480067
0.271337
0.273273
0.273813
0.273869
0.270663
0.26768
0.264048
0.259762
0.253819
0.247704
0.241255
0.234403
0.227147
0.21953
0.211604
0.203388
0.194832
0.185777
0.176407
0.166876
0.157225
0.147461
0.137632
0.127781
0.117957
0.10807
0.0983044
0.0886543
0.0788364
0.0685502
0.0581966
0.0478413
0.0372534
0.0269319
0.0171315
0.00778199
-0.00120354
-0.00985449
-0.0185395
-0.0274284
-0.0367009
-0.0518956
-0.0580985
-0.0580985
0
0
0.461547
0.426887
0.405778
0.384982
0.365701
0.348311
0.333072
0.32
0.309
0.299975
0.292827
0.28744
0.283684
0.281368
0.28031
0.282264
0.281733
0.281354
0.280704
0.279405
0.276607
0.273042
0.268805
0.264154
0.257384
0.251332
0.244788
0.23772
0.230229
0.222352
0.214168
0.205709
0.196893
0.187328
0.17754
0.167726
0.157854
0.147869
0.137817
0.127756
0.117763
0.1076
0.0977395
0.0881912
0.0784611
0.0679222
0.0575649
0.0473287
0.0364628
0.0260252
0.0162812
0.00696567
-0.0020609
-0.0106793
-0.0318871
-0.0283512
-0.0374754
-0.0474615
-0.0685437
-0.0590188
0
0
0.459535
0.431175
0.40767
0.38662
0.367774
0.351033
0.336609
0.324306
0.314134
0.305928
0.299464
0.294547
0.291053
0.289019
0.28825
0.288693
0.288763
0.2884
0.287398
0.285505
0.282545
0.278479
0.273346
0.266947
0.262444
0.255866
0.248659
0.241102
0.233381
0.22518
0.216696
0.208011
0.199005
0.188712
0.17855
0.168564
0.158521
0.148278
0.137794
0.127379
0.117194
0.106638
0.0966953
0.0873146
0.0777792
0.0668119
0.0567116
0.0470178
0.0358465
0.0254709
0.0159124
0.00660104
-0.00262072
-0.0110685
-0.0199944
-0.0291152
-0.0383311
-0.0481948
-0.0592434
-0.0592434
0
0
0.459477
0.433192
0.40974
0.388839
0.361652
0.354371
0.340902
0.32952
0.320646
0.313486
0.307844
0.303403
0.29997
0.24651
0.296552
0.29635
0.296096
0.295444
0.294087
0.291804
0.288499
0.283889
0.278271
0.272052
0.266048
0.259301
0.251888
0.243836
0.236632
0.227812
0.218968
0.210046
0.201021
0.189628
0.179406
0.16942
0.159255
0.148902
0.13726
0.126335
0.115674
0.104635
0.0946336
0.0853435
0.0762566
0.0648338
0.0555649
0.0471437
0.0357893
0.0258829
0.0165636
0.00707442
-0.00270472
-0.0115657
-0.0210373
-0.0302143
-0.0394406
-0.0492761
-0.060291
-0.060291
0
0
0.459697
0.434293
0.411477
0.391305
0.37386
0.358933
0.346633
0.336788
0.329044
0.322988
0.318208
0.314225
0.311036
0.308909
0.306877
0.305351
0.30406
0.302609
0.300614
0.297822
0.294124
0.288798
0.282678
0.276202
0.269472
0.262325
0.254672
0.246553
0.238484
0.229687
0.220526
0.211222
0.202225
0.190016
0.180342
0.170349
0.159827
0.148833
0.136905
0.124572
-0.00512025
0.101199
0.0909373
0.0809446
0.0724512
0.0621629