# vtk DataFile Version 2.0
FlowField
ASCII
DATASET STRUCTURED_GRID
DIMENSIONS 62 47 32 
POINTS 93248 double
0 0 0
0.01 0 0
0.02 0 0
0.03 0 0
0.04 0 0
0.05 0 0
0.06 0 0
0.07 0 0
0.08 0 0
0.09 0 0
0.1 0 0
0.11 0 0
0.12 0 0
0.13 0 0
0.14 0 0
0.15 0 0
0.16 0 0
0.17 0 0
0.18 0 0
0.19 0 0
0.2 0 0
0.21 0 0
0.22 0 0
0.23 0 0
0.24 0 0
0.25 0 0
0.26 0 0
0.27 0 0
0.28 0 0
0.29 0 0
0.3 0 0
0.31 0 0
0.32 0 0
0.33 0 0
0.34 0 0
0.35 0 0
0.36 0 0
0.37 0 0
0.38 0 0
0.39 0 0
0.4 0 0
0.41 0 0
0.42 0 0
0.43 0 0
0.44 0 0
0.45 0 0
0.46 0 0
0.47 0 0
0.48 0 0
0.49 0 0
0.5 0 0
0.51 0 0
0.52 0 0
0.53 0 0
0.54 0 0
0.55 0 0
0.56 0 0
0.57 0 0
0.58 0 0
0.59 0 0
0.6 0 0
0.61 0 0
0 0.01 0
0.01 0.01 0
0.02 0.01 0
0.03 0.01 0
0.04 0.01 0
0.05 0.01 0
0.06 0.01 0
0.07 0.01 0
0.08 0.01 0
0.09 0.01 0
0.1 0.01 0
0.11 0.01 0
0.12 0.01 0
0.13 0.01 0
0.14 0.01 0
0.15 0.01 0
0.16 0.01 0
0.17 0.01 0
0.18 0.01 0
0.19 0.01 0
0.2 0.01 0
0.21 0.01 0
0.22 0.01 0
0.23 0.01 0
0.24 0.01 0
0.25 0.01 0
0.26 0.01 0
0.27 0.01 0
0.28 0.01 0
0.29 0.01 0
0.3 0.01 0
0.31 0.01 0
0.32 0.01 0
0.33 0.01 0
0.34 0.01 0
0.35 0.01 0
0.36 0.01 0
0.37 0.01 0
0.38 0.01 0
0.39 0.01 0
0.4 0.01 0
0.41 0.01 0
0.42 0.01 0
0.43 0.01 0
0.44 0.01 0
0.45 0.01 0
0.46 0.01 0
0.47 0.01 0
0.48 0.01 0
0.49 0.01 0
0.5 0.01 0
0.51 0.01 0
0.52 0.01 0
0.53 0.01 0
0.54 0.01 0
0.55 0.01 0
0.56 0.01 0
0.57 0.01 0
0.58 0.01 0
0.59 0.01 0
0.6 0.01 0
0.61 0.01 0
0 0.02 0
0.01 0.02 0
0.02 0.02 0
0.03 0.02 0
0.04 0.02 0
0.05 0.02 0
0.06 0.02 0
0.07 0.02 0
0.08 0.02 0
0.09 0.02 0
0.1 0.02 0
0.11 0.02 0
0.12 0.02 0
0.13 0.02 0
0.14 0.02 0
0.15 0.02 0
0.16 0.02 0
0.17 0.02 0
0.18 0.02 0
0.19 0.02 0
0.2 0.02 0
0.21 0.02 0
0.22 0.02 0
0.23 0.02 0
0.24 0.02 0
0.25 0.02 0
0.26 0.02 0
0.27 0.02 0
0.28 0.02 0
0.29 0.02 0
0.3 0.02 0
0.31 0.02 0
0.32 0.02 0
0.33 0.02 0
0.34 0.02 0
0.35 0.02 0
0.36 0.02 0
0.37 0.02 0
0.38 0.02 0
0.39 0.02 0
0.4 0.02 0
0.41 0.02 0
0.42 0.02 0
0.43 0.02 0
0.44 0.02 0
0.45 0.02 0
0.46 0.02 0
0.47 0.02 0
0.48 0.02 0
0.49 0.02 0
0.5 0.02 0
0.51 0.02 0
0.52 0.02 0
0.53 0.02 0
0.54 0.02 0
0.55 0.02 0
0.56 0.02 0
0.57 0.02 0
0.58 0.02 0
0.59 0.02 0
0.6 0.02 0
0.61 0.02 0
0 0.03 0
0.01 0.03 0
0.02 0.03 0
0.03 0.03 0
0.04 0.03 0
0.05 0.03 0
0.06 0.03 0
0.07 0.03 0
0.08 0.03 0
0.09 0.03 0
0.1 0.03 0
0.11 0.03 0
0.12 0.03 0
0.13 0.03 0
0.14 0.03 0
0.15 0.03 0
0.16 0.03 0
0.17 0.03 0
0.18 0.03 0
0.19 0.03 0
0.2 0.03 0
0.21 0.03 0
0.22 0.03 0
0.23 0.03 0
0.24 0.03 0
0.25 0.03 0
0.26 0.03 0
0.27 0.03 0
0.28 0.03 0
0.29 0.03 0
0.3 0.03 0
0.31 0.03 0
0.32 0.03 0
0.33 0.03 0
0.34 0.03 0
0.35 0.03 0
0.36 0.03 0
0.37 0.03 0
0.38 0.03 0
0.39 0.03 0
0.4 0.03 0
0.41 0.03 0
0.42 0.03 0
0.43 0.03 0
0.44 0.03 0
0.45 0.03 0
0.46 0.03 0
0.47 0.03 0
0.48 0.03 0
0.49 0.03 0
0.5 0.03 0
0.51 0.03 0
0.52 0.03 0
0.53 0.03 0
0.54 0.03 0
0.55 0.03 0
0.56 0.03 0
0.57 0.03 0
0.58 0.03 0
0.59 0.03 0
0.6 0.03 0
0.61 0.03 0
0 0.04 0
0.01 0.04 0
0.02 0.04 0
0.03 0.04 0
0.04 0.04 0
0.05 0.04 0
0.06 0.04 0
0.07 0.04 0
0.08 0.04 0
0.09 0.04 0
0.1 0.04 0
0.11 0.04 0
0.12 0.04 0
0.13 0.04 0
0.14 0.04 0
0.15 0.04 0
0.16 0.04 0
0.17 0.04 0
0.18 0.04 0
0.19 0.04 0
0.2 0.04 0
0.21 0.04 0
0.22 0.04 0
0.23 0.04 0
0.24 0.04 0
0.25 0.04 0
0.26 0.04 0
0.27 0.04 0
0.28 0.04 0
0.29 0.04 0
0.3 0.04 0
0.31 0.04 0
0.32 0.04 0
0.33 0.04 0
0.34 0.04 0
0.35 0.04 0
0.36 0.04 0
0.37 0.04 0
0.38 0.04 0
0.39 0.04 0
0.4 0.04 0
0.41 0.04 0
0.42 0.04 0
0.43 0.04 0
0.44 0.04 0
0.45 0.04 0
0.46 0.04 0
0.47 0.04 0
0.48 0.04 0
0.49 0.04 0
0.5 0.04 0
0.51 0.04 0
0.52 0.04 0
0.53 0.04 0
0.54 0.04 0
0.55 0.04 0
0.56 0.04 0
0.57 0.04 0
0.58 0.04 0
0.59 0.04 0
0.6 0.04 0
0.61 0.04 0
0 0.05 0
0.01 0.05 0
0.02 0.05 0
0.03 0.05 0
0.04 0.05 0
0.05 0.05 0
0.06 0.05 0
0.07 0.05 0
0.08 0.05 0
0.09 0.05 0
0.1 0.05 0
0.11 0.05 0
0.12 0.05 0
0.13 0.05 0
0.14 0.05 0
0.15 0.05 0
0.16 0.05 0
0.17 0.05 0
0.18 0.05 0
0.19 0.05 0
0.2 0.05 0
0.21 0.05 0
0.22 0.05 0
0.23 0.05 0
0.24 0.05 0
0.25 0.05 0
0.26 0.05 0
0.27 0.05 0
0.28 0.05 0
0.29 0.05 0
0.3 0.05 0
0.31 0.05 0
0.32 0.05 0
0.33 0.05 0
0.34 0.05 0
0.35 0.05 0
0.36 0.05 0
0.37 0.05 0
0.38 0.05 0
0.39 0.05 0
0.4 0.05 0
0.41 0.05 0
0.42 0.05 0
0.43 0.05 0
0.44 0.05 0
0.45 0.05 0
0.46 0.05 0
0.47 0.05 0
0.48 0.05 0
0.49 0.05 0
0.5 0.05 0
0.51 0.05 0
0.52 0.05 0
0.53 0.05 0
0.54 0.05 0
0.55 0.05 0
0.56 0.05 0
0.57 0.05 0
0.58 0.05 0
0.59 0.05 0
0.6 0.05 0
0.61 0.05 0
0 0.06 0
0.01 0.06 0
0.02 0.06 0
0.03 0.06 0
0.04 0.06 0
0.05 0.06 0
0.06 0.06 0
0.07 0.06 0
0.08 0.06 0
0.09 0.06 0
0.1 0.06 0
0.11 0.06 0
0.12 0.06 0
0.13 0.06 0
0.14 0.06 0
0.15 0.06 0
0.16 0.06 0
0.17 0.06 0
0.18 0.06 0
0.19 0.06 0
0.2 0.06 0
0.21 0.06 0
0.22 0.06 0
0.23 0.06 0
0.24 0.06 0
0.25 0.06 0
0.26 0.06 0
0.27 0.06 0
0.28 0.06 0
0.29 0.06 0
0.3 0.06 0
0.31 0.06 0
0.32 0.06 0
0.33 0.06 0
0.34 0.06 0
0.35 0.06 0
0.36 0.06 0
0.37 0.06 0
0.38 0.06 0
0.39 0.06 0
0.4 0.06 0
0.41 0.06 0
0.42 0.06 0
0.43 0.06 0
0.44 0.06 0
0.45 0.06 0
0.46 0.06 0
0.47 0.06 0
0.48 0.06 0
0.49 0.06 0
0.5 0.06 0
0.51 0.06 0
0.52 0.06 0
0.53 0.06 0
0.54 0.06 0
0.55 0.06 0
0.56 0.06 0
0.57 0.06 0
0.58 0.06 0
0.59 0.06 0
0.6 0.06 0
0.61 0.06 0
0 0.07 0
0.01 0.07 0
0.02 0.07 0
0.03 0.07 0
0.04 0.07 0
0.05 0.07 0
0.06 0.07 0
0.07 0.07 0
0.08 0.07 0
0.09 0.07 0
0.1 0.07 0
0.11 0.07 0
0.12 0.07 0
0.13 0.07 0
0.14 0.07 0
0.15 0.07 0
0.16 0.07 0
0.17 0.07 0
0.18 0.07 0
0.19 0.07 0
0.2 0.07 0
0.21 0.07 0
0.22 0.07 0
0.23 0.07 0
0.24 0.07 0
0.25 0.07 0
0.26 0.07 0
0.27 0.07 0
0.28 0.07 0
0.29 0.07 0
0.3 0.07 0
0.31 0.07 0
0.32 0.07 0
0.33 0.07 0
0.34 0.07 0
0.35 0.07 0
0.36 0.07 0
0.37 0.07 0
0.38 0.07 0
0.39 0.07 0
0.4 0.07 0
0.41 0.07 0
0.42 0.07 0
0.43 0.07 0
0.44 0.07 0
0.45 0.07 0
0.46 0.07 0
0.47 0.07 0
0.48 0.07 0
0.49 0.07 0
0.5 0.07 0
0.51 0.07 0
0.52 0.07 0
0.53 0.07 0
0.54 0.07 0
0.55 0.07 0
0.56 0.07 0
0.57 0.07 0
0.58 0.07 0
0.59 0.07 0
0.6 0.07 0
0.61 0.07 0
0 0.08 0
0.01 0.08 0
0.02 0.08 0
0.03 0.08 0
0.04 0.08 0
0.05 0.08 0
0.06 0.08 0
0.07 0.08 0
0.08 0.08 0
0.09 0.08 0
0.1 0.08 0
0.11 0.08 0
0.12 0.08 0
0.13 0.08 0
0.14 0.08 0
0.15 0.08 0
0.16 0.08 0
0.17 0.08 0
0.18 0.08 0
0.19 0.08 0
0.2 0.08 0
0.21 0.08 0
0.22 0.08 0
0.23 0.08 0
0.24 0.08 0
0.25 0.08 0
0.26 0.08 0
0.27 0.08 0
0.28 0.08 0
0.29 0.08 0
0.3 0.08 0
0.31 0.08 0
0.32 0.08 0
0.33 0.08 0
0.34 0.08 0
0.35 0.08 0
0.36 0.08 0
0.37 0.08 0
0.38 0.08 0
0.39 0.08 0
0.4 0.08 0
0.41 0.08 0
0.42 0.08 0
0.43 0.08 0
0.44 0.08 0
0.45 0.08 0
0.46 0.08 0
0.47 0.08 0
0.48 0.08 0
0.49 0.08 0
0.5 0.08 0
0.51 0.08 0
0.52 0.08 0
0.53 0.08 0
0.54 0.08 0
0.55 0.08 0
0.56 0.08 0
0.57 0.08 0
0.58 0.08 0
0.59 0.08 0
0.6 0.08 0
0.61 0.08 0
0 0.09 0
0.01 0.09 0
0.02 0.09 0
0.03 0.09 0
0.04 0.09 0
0.05 0.09 0
0.06 0.09 0
0.07 0.09 0
0.08 0.09 0
0.09 0.09 0
0.1 0.09 0
0.11 0.09 0
0.12 0.09 0
0.13 0.09 0
0.14 0.09 0
0.15 0.09 0
0.16 0.09 0
0.17 0.09 0
0.18 0.09 0
0.19 0.09 0
0.2 0.09 0
0.21 0.09 0
0.22 0.09 0
0.23 0.09 0
0.24 0.09 0
0.25 0.09 0
0.26 0.09 0
0.27 0.09 0
0.28 0.09 0
0.29 0.09 0
0.3 0.09 0
0.31 0.09 0
0.32 0.09 0
0.33 0.09 0
0.34 0.09 0
0.35 0.09 0
0.36 0.09 0
0.37 0.09 0
0.38 0.09 0
0.39 0.09 0
0.4 0.09 0
0.41 0.09 0
0.42 0.09 0
0.43 0.09 0
0.44 0.09 0
0.45 0.09 0
0.46 0.09 0
0.47 0.09 0
0.48 0.09 0
0.49 0.09 0
0.5 0.09 0
0.51 0.09 0
0.52 0.09 0
0.53 0.09 0
0.54 0.09 0
0.55 0.09 0
0.56 0.09 0
0.57 0.09 0
0.58 0.09 0
0.59 0.09 0
0.6 0.09 0
0.61 0.09 0
0 0.1 0
0.01 0.1 0
0.02 0.1 0
0.03 0.1 0
0.04 0.1 0
0.05 0.1 0
0.06 0.1 0
0.07 0.1 0
0.08 0.1 0
0.09 0.1 0
0.1 0.1 0
0.11 0.1 0
0.12 0.1 0
0.13 0.1 0
0.14 0.1 0
0.15 0.1 0
0.16 0.1 0
0.17 0.1 0
0.18 0.1 0
0.19 0.1 0
0.2 0.1 0
0.21 0.1 0
0.22 0.1 0
0.23 0.1 0
0.24 0.1 0
0.25 0.1 0
0.26 0.1 0
0.27 0.1 0
0.28 0.1 0
0.29 0.1 0
0.3 0.1 0
0.31 0.1 0
0.32 0.1 0
0.33 0.1 0
0.34 0.1 0
0.35 0.1 0
0.36 0.1 0
0.37 0.1 0
0.38 0.1 0
0.39 0.1 0
0.4 0.1 0
0.41 0.1 0
0.42 0.1 0
0.43 0.1 0
0.44 0.1 0
0.45 0.1 0
0.46 0.1 0
0.47 0.1 0
0.48 0.1 0
0.49 0.1 0
0.5 0.1 0
0.51 0.1 0
0.52 0.1 0
0.53 0.1 0
0.54 0.1 0
0.55 0.1 0
0.56 0.1 0
0.57 0.1 0
0.58 0.1 0
0.59 0.1 0
0.6 0.1 0
0.61 0.1 0
0 0.11 0
0.01 0.11 0
0.02 0.11 0
0.03 0.11 0
0.04 0.11 0
0.05 0.11 0
0.06 0.11 0
0.07 0.11 0
0.08 0.11 0
0.09 0.11 0
0.1 0.11 0
0.11 0.11 0
0.12 0.11 0
0.13 0.11 0
0.14 0.11 0
0.15 0.11 0
0.16 0.11 0
0.17 0.11 0
0.18 0.11 0
0.19 0.11 0
0.2 0.11 0
0.21 0.11 0
0.22 0.11 0
0.23 0.11 0
0.24 0.11 0
0.25 0.11 0
0.26 0.11 0
0.27 0.11 0
0.28 0.11 0
0.29 0.11 0
0.3 0.11 0
0.31 0.11 0
0.32 0.11 0
0.33 0.11 0
0.34 0.11 0
0.35 0.11 0
0.36 0.11 0
0.37 0.11 0
0.38 0.11 0
0.39 0.11 0
0.4 0.11 0
0.41 0.11 0
0.42 0.11 0
0.43 0.11 0
0.44 0.11 0
0.45 0.11 0
0.46 0.11 0
0.47 0.11 0
0.48 0.11 0
0.49 0.11 0
0.5 0.11 0
0.51 0.11 0
0.52 0.11 0
0.53 0.11 0
0.54 0.11 0
0.55 0.11 0
0.56 0.11 0
0.57 0.11 0
0.58 0.11 0
0.59 0.11 0
0.6 0.11 0
0.61 0.11 0
0 0.12 0
0.01 0.12 0
0.02 0.12 0
0.03 0.12 0
0.04 0.12 0
0.05 0.12 0
0.06 0.12 0
0.07 0.12 0
0.08 0.12 0
0.09 0.12 0
0.1 0.12 0
0.11 0.12 0
0.12 0.12 0
0.13 0.12 0
0.14 0.12 0
0.15 0.12 0
0.16 0.12 0
0.17 0.12 0
0.18 0.12 0
0.19 0.12 0
0.2 0.12 0
0.21 0.12 0
0.22 0.12 0
0.23 0.12 0
0.24 0.12 0
0.25 0.12 0
0.26 0.12 0
0.27 0.12 0
0.28 0.12 0
0.29 0.12 0
0.3 0.12 0
0.31 0.12 0
0.32 0.12 0
0.33 0.12 0
0.34 0.12 0
0.35 0.12 0
0.36 0.12 0
0.37 0.12 0
0.38 0.12 0
0.39 0.12 0
0.4 0.12 0
0.41 0.12 0
0.42 0.12 0
0.43 0.12 0
0.44 0.12 0
0.45 0.12 0
0.46 0.12 0
0.47 0.12 0
0.48 0.12 0
0.49 0.12 0
0.5 0.12 0
0.51 0.12 0
0.52 0.12 0
0.53 0.12 0
0.54 0.12 0
0.55 0.12 0
0.56 0.12 0
0.57 0.12 0
0.58 0.12 0
0.59 0.12 0
0.6 0.12 0
0.61 0.12 0
0 0.13 0
0.01 0.13 0
0.02 0.13 0
0.03 0.13 0
0.04 0.13 0
0.05 0.13 0
0.06 0.13 0
0.07 0.13 0
0.08 0.13 0
0.09 0.13 0
0.1 0.13 0
0.11 0.13 0
0.12 0.13 0
0.13 0.13 0
0.14 0.13 0
0.15 0.13 0
0.16 0.13 0
0.17 0.13 0
0.18 0.13 0
0.19 0.13 0
0.2 0.13 0
0.21 0.13 0
0.22 0.13 0
0.23 0.13 0
0.24 0.13 0
0.25 0.13 0
0.26 0.13 0
0.27 0.13 0
0.28 0.13 0
0.29 0.13 0
0.3 0.13 0
0.31 0.13 0
0.32 0.13 0
0.33 0.13 0
0.34 0.13 0
0.35 0.13 0
0.36 0.13 0
0.37 0.13 0
0.38 0.13 0
0.39 0.13 0
0.4 0.13 0
0.41 0.13 0
0.42 0.13 0
0.43 0.13 0
0.44 0.13 0
0.45 0.13 0
0.46 0.13 0
0.47 0.13 0
0.48 0.13 0
[...]
POINT_DATA 93248

SCALARS w double
LOOKUP_TABLE default
0
0
0
0
0
0
0
0
0
0
0
0
0
-0.0287714
0
0
0
0
0
0
0
0
0
0
0
0
-0.0412644
0
0
0
0
0
-0.0390323
0
0
0
0
0
0
0
0
0
0
0
0
0
-0.0374018
0
0
0
0
0
0
0
0
0
0
0
0
0
0
0
0
-0.00973249
-0.0155618
-0.0193611
-0.0202263
-0.020446
-0.0217343
-0.0232011
-0.0244228
-0.0252543
-0.025794
-0.0261942
-0.0263835
-0.0266251
-0.0268469
-0.0270475
-0.0271827
-0.0273306
-0.02747
-0.0276087
-0.0267203
-0.0266987
-0.026865
-0.0270226
-0.0270992
-0.0271274
-0.0271324
-0.0271256
-0.0271108
-0.0270872
-0.0270493
-0.0269818
-0.0268592
-0.0267938
-0.0266541
-0.0262365
-0.0254798
-0.0244515
-0.0245834
-0.0327951
-0.0272686
-0.0278344
-0.0279648
-0.0279027
-0.0280759
-0.0393633
-0.027282
-0.0271379
-0.0271553
-0.0273581
-0.0276746
-0.0281857
-0.0263509
-0.0272415
-0.0393306
-0.0279025
-0.027763
-0.0263567
-0.0267542
-0.0267518
-0.0252924
0
0
-0.011881
-0.0250401
-0.0290873
-0.028989
-0.0282106
-0.0293633
-0.0323166
-0.0351632
-0.0370994
-0.0382343
-0.0390872
-0.0394167
-0.0398625
-0.0402119
-0.0405248
-0.0407051
-0.0409918
-0.0412638
-0.042045
-0.0396932
-0.039939
-0.0408079
-0.0405285
-0.040658
-0.0407046
-0.0407154
-0.0407087
-0.0406915
-0.0406645
-0.0406225
-0.0405428
-0.040348
-0.040296
-0.0402274
-0.0396121
-0.0385692
-0.0360748
-0.0322615
-0.0468071
-0.0453506
-0.0436356
-0.0424509
-0.0418147
-0.0417449
-0.0419974
-0.0414234
-0.0408827
-0.0407513
-0.0409363
-0.0409958
-0.0394597
-0.040481
-0.0408738
-0.0414239
-0.0413433
-0.0413018
-0.0403988
-0.0404471
-0.0400244
-0.0373637
0
0
-0.0117649
-0.0244372
-0.0293568
-0.0295293
-0.020446
-0.0296732
-0.0328064
-0.0359182
-0.0380709
-0.0392271
-0.0404786
-0.0413466
-0.0415676
-0.0416533
-0.0416781
-0.0419145
-0.0424058
-0.0424605
-0.0426402
-0.0423317
-0.042074
-0.0419941
-0.0420263
-0.0420536
-0.0420653
-0.0420641
-0.0420538
-0.0420365
-0.0420134
-0.041987
-0.041974
-0.0420179
-0.0405832
-0.0418914
-0.0410125
-0.0404012
-0.0392381
-0.0382681
-0.0437364
-0.0448371
-0.0442521
-0.0435372
-0.0429247
-0.0429518
-0.0433079
-0.0421404
-0.0419322
-0.0417728
-0.0423609
-0.0422677
-0.0421481
-0.0420683
-0.0421867
-0.0423601
-0.0424026
-0.042446
-0.0423841
-0.0420887
-0.0414138
-0.0384311
0
0
-0.0115504
-0.0235971
-0.0224645
-0.0287153
-0.0283698
-0.029787
-0.0326867
-0.0355813
-0.0376251
-0.038852
-0.0397974
-0.04046
-0.0407742
-0.0409073
-0.0408793
-0.0409839
-0.0408162
-0.0411139
-0.0413632
-0.0414694
-0.0414442
-0.0414147
-0.0414036
-0.041399
-0.0413934
-0.0413841
-0.0413705
-0.0413529
-0.0413313
-0.0413066
-0.0412824
-0.0412598
-0.04113
-0.0410912
-0.040739
-0.0404208
-0.0400643
-0.0401479
-0.0417243
-0.0424784
-0.0424438
-0.0421861
-0.0419552
-0.0419422
-0.04204
-0.0417256
-0.0414488
-0.0413215
-0.0414626
-0.0414509
-0.0414198
-0.0414104
-0.0414571
-0.0415204
-0.0415561
-0.0415824
-0.0415798
-0.0414105
-0.0407452
-0.0377666
0
0
-0.011385
-0.0230452
-0.0277637
-0.0282622
-0.0282049
-0.0297297
-0.032553
-0.0353216
-0.0372695
-0.0384643
-0.0392524
-0.0397751
-0.0400806
-0.0402066
-0.0377037
-0.0401788
-0.0403453
-0.0405114
-0.0406713
-0.0407714
-0.0408049
-0.0408079
-0.0408025
-0.0407946
-0.0407846
-0.0407718
-0.0407566
-0.040739
-0.0407185
-0.040693
-0.0406554
-0.0405832
-0.0404217
-0.0404128
-0.0403301
-0.0402316
-0.0401658
-0.040283
-0.0407921
-0.0411287
-0.0412009
-0.0411484
-0.041079
-0.0410667
-0.0411395
-0.0413552
-0.0409418
-0.0407744
-0.0407617
-0.0407534
-0.0407498
-0.040766
-0.0408097
-0.0408513
-0.0408736
-0.0408794
-0.0408574
-0.0407095
-0.0400487
-0.0371652
0
0
-0.0112812
-0.0227889
-0.0274518
-0.0279454
-0.0279855
-0.0296224
-0.0323776
-0.0351034
-0.0370306
-0.0381961
-0.0389183
-0.0393846
-0.0396746
-0.0398291
-0.0398143
-0.0399159
-0.040112
-0.0395341
-0.0403169
-0.0403835
-0.0404094
-0.0404162
-0.0404138
-0.0404063
-0.0403953
-0.0403801
-0.0403641
-0.0403479
-0.0403307
-0.0403089
-0.0402705
-0.0401742
-0.0398757
-0.0399994
-0.0400595
-0.0400569
-0.0400673
-0.0401479
-0.0403243
-0.0404669
-0.0405278
-0.04053
-0.0405007
-0.0404455
-0.0402867
-0.0398321
-0.0400873
-0.0402275
-0.0402778
-0.0402843
-0.0402855
-0.0403187
-0.0404066
-0.0404632
-0.0404758
-0.0404559
-0.0403825
-0.040117
-0.0392565
-0.0365681
0
0
-0.0112165
-0.0226358
-0.0272445
-0.0277077
-0.0278078
-0.0296621
-0.0320836
-0.0348655
-0.0367772
-0.0379561
-0.0386713
-0.0391344
-0.0394213
-0.0395833
-0.0395963
-0.0394455
-0.0399375
-0.0401421
-0.0401787
-0.0401724
-0.0401655
-0.0401649
-0.0401625
-0.0401555
-0.040145
-0.0401251
-0.0401087
-0.0400958
-0.0400863
-0.0400784
-0.0400681
-0.0401108
-0.0403636
-0.040161
-0.0400089
-0.0399473
-0.0399412
-0.0399794
-0.0400488
-0.0401127
-0.0401505
-0.0401624
-0.0401433
-0.0401017
-0.04
-0.0398233
-0.039888
-0.0399529
-0.0399662
-0.039938
-0.0399005
-0.0399389
-0.0401866
-0.0402964
-0.0402874
-0.0402296
-0.0400822
-0.0394905
-0.0267518
-0.0360847
0
0
-0.0111732
-0.0225319
-0.0270961
-0.0275304
-0.0276312
-0.029375
-0.0321586
-0.0348254
-0.0366769
-0.0378114
-0.0385252
-0.0390232
-0.0392752
-0.0394226
-0.0393169
-0.0384159
-0.0360703
-0.0401452
-0.0401143
-0.0400365
-0.0399917
-0.0399884
-0.0399887
-0.0399831
-0.0399745
-0.039944
-0.0399281
-0.0399212
-0.0399258
-0.0399392
-0.039916
-0.0399194
-0.0399924
-0.0399242
-0.0398533
-0.0398157
-0.0398141
-0.039834
-0.0398651
-0.0398958
-0.0399173
-0.0399263
-0.0399197
-0.0398974
-0.0398522
-0.0397925
-0.0397868
-0.039779
-0.0397293
-0.0396121
-0.03943
-0.0393764
-0.040167
-0.0403826
-0.0402916
-0.0401843
-0.0401353
-0.040054
-0.0389726
-0.0362595
0
0
-0.0111423
-0.0224573
-0.0269882
-0.0273993
-0.0275073
-0.0292654
-0.0321458
-0.0347948
-0.0366045
-0.0377208
-0.0384542
-0.0394167
-0.0393151
-0.0394236
-0.0394389
-0.0392778
-0.0397307
-0.0399276
-0.0399329
-0.0398948
-0.039845
-0.0398615
-0.0398682
-0.0398565
-0.0398334
-0.0398096
-0.0397922
-0.0397891
-0.0398188
-0.03989
-0.0398139
-0.0397621
-0.0397498
-0.039727
-0.0397032
-0.0396874
-0.0397017
-0.0397176
-0.0397325
-0.0397472
-0.0397595
-0.0397666
-0.0397664
-0.0397574
-0.0397385
-0.0397125
-0.0396882
-0.0396412
-0.0395257
-0.0392538
-0.0387023
-0.0368687
-0.0405484
-0.040827
-0.0404704
-0.0401986
-0.0400815
-0.0399598
-0.0392201
-0.0362961
0
0
-0.0111197
-0.0224026
-0.0269068
-0.0272884
-0.027409
-0.0291971
-0.0321091
-0.0347522
-0.0365448
-0.0376506
-0.0383651
-0.0388785
-0.0391792
-0.0393796
-0.0395193
-0.0395756
-0.0397179
-0.0397951
-0.0398068
-0.0397971
-0.0398765
-0.0398533
-0.0398108
-0.0397688
-0.0394649
-0.0396881
-0.0396665
-0.0396611
-0.0397213
-0.0399344
-0.0397564
-0.0396661
-0.0396131
-0.0395923
-0.0395817
-0.0395642
-0.0396058
-0.0396262
-0.0396305
-0.0396351
-0.0396421
-0.0396489
-0.0396531
-0.0396525
-0.0396454
-0.0396307
-0.0396036
-0.039542
-0.0393873
-0.0389884
-0.0380625
-0.0368687
-0.0418451
-0.041462
-0.0406538
-0.0402032
-0.040023
-0.0398732
-0.0392101
-0.0362798
0
0
-0.0111037
-0.022364
-0.0268479
-0.0271752
-0.0273294
-0.0291492
-0.0320739
-0.0347133
-0.0364978
-0.0375959
-0.0383
-0.0387783
-0.0391059
-0.0393579
-0.0396158
-0.0396937
-0.0397286
-0.0397377
-0.0397231
-0.039667
-0.0398008
-0.0397892
-0.0397433
-0.0396926
-0.0396362
-0.0395856
-0.0395312
-0.0394871
-0.039491
-0.0396251
-0.0399049
-0.0396516
-0.039522
-0.0394906
-0.0394884
-0.0394847
-0.0394855
-0.0395394
-0.0395394
-0.0395386
-0.0395439
-0.0395518
-0.0395619
-0.0395687
-0.0395699
-0.0395632
-0.0395433
-0.0394953
-0.0393837
-0.0391349
-0.0386941
-0.0384903
-0.0404818
-0.0406661
-0.0403158
-0.040055
-0.0399365
-0.0398064
-0.0391691
-0.036249
0
0
-0.0110932
-0.0223422
-0.0268373
-0.027294
-0.0273844
-0.0291619
-0.0320673
-0.0346908
-0.0364636
-0.0375528
-0.0382513
-0.0387215
-0.0390516
-0.039326
-0.0397493
-0.0397318
-0.0396923
-0.0396769
-0.0396633
-0.0396506
-0.0396921
-0.0396919
-0.0396622
-0.0396149
-0.0395515
-0.0394694
-0.0393636
-0.0392398
-0.0391057
-0.0390288
-0.0386592
-0.0389569
-0.0391917
-0.0393203
-0.0393816
-0.0394046
-0.0394121
-0.0394296
-0.0394332
-0.0394385
-0.0394483
-0.0394556
-0.0394799
-0.0394976
-0.0395077
-0.03951
-0.0395024
-0.0394797
-0.039429
-0.0393245
-0.0391955
-0.0392394
-0.0398659
-0.0400428
-0.0399717
-0.0398891
-0.039849
-0.0397487
-0.0391277
-0.0362167
0
0
-0.0110855
-0.0223239
-0.0268067
-0.0272161
-0.027332
-0.029129
-0.0320408
-0.0346641
-0.0364341
-0.0375159
-0.0382127
-0.0386761
-0.0389812
-0.0391413
-0.0390029
-0.0392276
-0.0394148
-0.0395163
-0.0395534
-0.0395843
-0.0396154
-0.03962
-0.0395962
-0.039546
-0.0394649
-0.0393386
-0.0391455
-0.0388627
-0.0383883
-0.0385095
-0.0386158
-0.0388709
-0.0390905
-0.0392285
-0.0392982
-0.0393235
-0.0393267
-0.0393199
-0.0393159
-0.0393256
-0.0393416
-0.0389431
-0.0393946
-0.0394328
-0.0394542
-0.0394662
-0.0394718
-0.0394744
-0.0394769
-0.0394342
-0.0394099
-0.0394684
-0.0396674
-0.0397612
-0.0397743
-0.0397749
-0.0397892
-0.0397041
-0.0390924
-0.0361877
0
0
-0.0110813
-0.0223149
-0.0267873
-0.0275304
-0.0272995
-0.0290973
-0.0320148
-0.0346419
-0.0364151
-0.0375103
-0.0381975
-0.038651
-0.0389509
-0.0391262
-0.0391659
-0.0392865
-0.0394041
-0.0394688
-0.03944
-0.0394979
-0.0395505
-0.0395679
-0.0395474
-0.0394907
-0.0393864
-0.0391996
-0.0388493
-0.0381124
-0.0357545
-0.0371535
-0.0381441
-0.0386992
-0.0390005
-0.0391551
-0.0392228
-0.0392374
-0.0393278
-0.0391824
-0.0391554
-0.0391758
-0.0392231
-0.0392709
-0.0393304
-0.0393755
-0.0394069
-0.0394275
-0.0394421
-0.0394621
-0.0395102
-0.0394727
-0.0394723
-0.0395249
-0.039636
-0.0396586
-0.039678
-0.039711
-0.040117
-0.0396785
-0.0390659
-0.0361642
0
0
-0.0110826
-0.022326
-0.0267919
-0.0271582
-0.0272647
-0.0290685
-0.0319936
-0.0346263
-0.0364018
-0.0374918
-0.0381797
-0.0386333
-0.0389373
-0.0391363
-0.0392574
-0.039362
-0.0394444
-0.0394675
-0.0392936
-0.0394267
-0.0395206
-0.0395423
-0.0395192
-0.0394551
-0.0393333
-0.03909
-0.0385032
-0.0364155
0.0289119
-0.0336735
-0.0371683
-0.0384141
-0.0388963
-0.0390872
-0.0391505
-0.0391379
-0.0390699
-0.0389613
-0.0388648
-0.0389277
-0.0390468
-0.03916
-0.0392515
-0.0393179
-0.0393633
-0.0393911
-0.0394043
-0.039396
-0.0393494
-0.0394021
-0.0394581
-0.0395444
-0.0405484
-0.0396417
-0.0396304
-0.0396547
-0.0397129
-0.03965
-0.0390472
-0.0361473
0
0
-0.0110907
-0.0223788
-0.0268332
-0.0271654
-0.0272509
-0.0290433
-0.0319795
-0.0346224
-0.0364022
-0.0374899
-0.0381745
-0.0386242
-0.0389281
-0.039138
-0.0392865
-0.0393998
-0.0394914
-0.0395943
-0.0398565
-0.039751
-0.0396455
-0.0395789
-0.0395198
-0.0394458
-0.039329
-0.0391209
-0.0387112
-0.0378017
-0.0354417
-0.0370099
-0.0381111
-0.03868
-0.03895
-0.0390632
-0.0390921
-0.0390302
-0.0388601
-0.0385562
-0.0381113
-0.0384021
-0.038751
-0.0389996
-0.0391595
-0.0392609
-0.039326
-0.0393613
-0.0393786
-0.0393726
-0.0393571
-0.0393668
-0.0394213
-0.0394859
-0.0395659
-0.0395711
-0.0396175
-0.0396088
-0.0397029
-0.0396516
-0.0390431
-0.0361385
0
0
-0.0110904
-0.0224583
-0.0268573
-0.0271441
-0.0272158
-0.0289968
-0.0319813
-0.0346438
-0.0364255
-0.037508
-0.0381854
-0.0386236
-0.0389179
-0.0391272
-0.0392902
-0.0394151
-0.0395077
-0.0395875
-0.0396926
-0.0396727
-0.0396206
-0.0395681
-0.0395147
-0.0394484
-0.0393526
-0.0392032
-0.0389656
-0.0386049
-0.0381374
-0.0383732
-0.0386824
-0.0388956
-0.0390054
-0.0390371
-0.0390507
-0.0389295
-0.0385716
-0.0376686
-0.0351645
-0.0369941
-0.0381962
-0.0387802
-0.0390619
-0.0392095
-0.0392974
-0.039338
-0.0393594
-0.0393616
-0.0393322
-0.0392686
-0.0393615
-0.0394377
-0.0394896
-0.039545
-0.0415561
-0.0395464
-0.0397626
-0.0396933
-0.0390553
-0.036129
0
0
-0.0110074
-0.0220018
-0.0264751
-0.0268898
-0.0270677
-0.0291971
-0.0320482
-0.034708
-0.0364712
-0.0375379
-0.0382121
-0.0386296
-0.0388973
-0.0390923
-0.0392811
-0.039432
-0.0395273
-0.0395802
-0.0396146
-0.0396115
-0.0395871
-0.0395532
-0.0395112
-0.0394565
-0.0393815
-0.0392765
-0.0391342
-0.0389453
-0.0387363
-0.0388066
-0.0389308
-0.0390142
-0.0390247
-0.0389668
-0.0390575
-0.0388956
-0.0382786
-0.035833
0.0343163
-0.0335773
-0.0373599
-0.0385584
-0.0389892
-0.0391715
-0.0392561
-0.0393129
-0.0393449
-0.0393539
-0.0393083
-0.0391254
-0.0393173
-0.0394134
-0.0394484
-0.0394555
-0.0394363
-0.0393009
-0.039903
-0.0397496
-0.0390575
-0.0361342
0
0
-0.0110093
-0.0220889
-0.0265064
-0.026839
-0.0270536
-0.0290639
-0.0320878
-0.0347237
-0.0364716
-0.0375424
-0.03826
-0.0386359
-0.038839
-0.0389843
-0.0392648
-0.0394813
-0.0395865
-0.0396032
-0.0396005
-0.0395889
-0.0395711
-0.0395457
-0.0395114
-0.0394656
-0.0394044
-0.0393228
-0.039213
-0.0390937
-0.0388244
-0.0389551
-0.0390651
-0.0390915
-0.0390254
-0.0388225
-0.0391798
-0.0390252
-0.0385731
-0.0375442
-0.0349709
-0.0368624
-0.0381583
-0.0387509
-0.0390344
-0.0391811
-0.0392602
-0.0393079
-0.0393433
-0.0393855
-0.0394794
-0.0397177
-0.0395435
-0.0394608
-0.0394407
-0.0394377
-0.0394334
-0.0394492
-0.0397044
-0.0396493
-0.0390173
-0.0360963
0
0
-0.0110242
-0.022159
-0.0265592
-0.0267542
-0.0270388
-0.0292961
-0.0321734
-0.0347152
-0.036443
-0.0375225
-0.038352
-0.0386102
-0.0386594
-0.0386694
-0.039277
-0.0396256
-0.0397193
-0.0396531
-0.0396099
-0.0395852
-0.0395659
-0.039544
-0.0395144
-0.039474
-0.0394182
-0.039335
-0.0391826
-0.0392689
-0.0395362
-0.0393944
-0.0392728
-0.0392013
-0.0391246
-0.0390311
-0.0391179
-0.0390472
-0.0388267
-0.0384637
-0.0380081
-0.0383056
-0.0386826
-0.0389431
-0.0391107
-0.0392162
-0.0392789
-0.0393052
-0.0393315
-0.0393726
-0.0394416
-0.0395424
-0.0394936
-0.0394355
-0.0394142
-0.0394242
-0.0394646
-0.0395157
-0.0396178
-0.0395751
-0.0389733
-0.0360761
0
0
-0.0110365
-0.0222042
-0.0266649
-0.0272135
-0.0272115
-0.0286194
-0.0316611
-0.0344358
-0.0362905
-0.0373816
-0.0378077
-0.0381961
-0.0381784
-0.0379743
-0.0395206
-0.0398978
-0.0399051
-0.03968
-0.0396274
-0.0395964
-0.0395711
-0.0395481
-0.0395209
-0.0394834
-0.0394261
-0.0393058
-0.0357342
-0.0391292
-0.0393675
-0.0393607
-0.0393033
-0.0392436
-0.0391817
-0.0391211
-0.0391154
-0.0390723
-0.0389809
-0.0388597
-0.0387677
-0.0388332
-0.0389611
-0.0390858
-0.0391937
-0.0392701
-0.0393186
-0.0392947
-0.0393018
-0.0393409
-0.0393978
-0.0394597
-0.0394627
-0.0393827
-0.0393523
-0.0393764
-0.0394883
-0.03955
-0.039598
-0.0395444
-0.0389475
-0.0360563
0
0
-0.0110416
-0.0222165
-0.0266673
-0.027085
-0.0271677
-0.0288508
-0.0317998
-0.0345083
-0.03637
-0.0375399
-0.0380573
-0.0382773
-0.0379085
-0.0386421
-0.0394164
-0.0397898
-0.0398762
-0.0399386
-0.0397813
-0.0396613
-0.0395969
-0.0395612
-0.0395345
-0.0395003
-0.0394533
-0.0393818
-0.0392399
-0.039305
-0.0393509
-0.0393416
-0.0393046
-0.0392523
-0.0391819
-0.0390901
-0.0390831
-0.0390631
-0.0390521
-0.0390315
-0.0390226
-0.0390533
-0.0391126
-0.0391865
-0.0395687
-0.0393464
-0.0394031
-0.0392551
-0.0392416
-0.0392946
-0.0393703
-0.0394695
-0.0395144
-0.0392967
-0.0392338
-0.0392561
-0.0395472
-0.0396044
-0.0396135
-0.0395431
-0.0389373
-0.0360436
0
0
-0.0110431
-0.0222178
-0.0266583
-0.0270319
-0.0271554
-0.0289676
-0.0319417
-0.0346574
-0.0365967
-0.038237
-0.0385258
-0.0386722
-0.0387198
-0.0393693
-0.0396282
-0.0397218
-0.0397457
-0.0397452
-0.0396847
-0.0396262
-0.0395885
-0.0395676
-0.0395576
-0.0395262
-0.0394839
-0.03944
-0.0393984
-0.0394018
-0.039369
-0.0393416
-0.039305
-0.039241
-0.0391125
-0.0387715
-0.0389203
-0.0389159
-0.0390324
-0.039096
-0.0391283
-0.0391584
-0.0391965
-0.0392447
-0.0393118
-0.0394068
-0.0395415
-0.0391549
-0.0391623
-0.0392378
-0.0393354
-0.0395308
-0.0396814
-0.0391676
-0.0390965
-0.0390447
-0.0396986
-0.0396759
-0.0396427
-0.039568
-0.0389413
-0.0360363
0
0
-0.0110435
-0.0222176
-0.026655
-0.0270221
-0.0271642
-0.0290266
-0.0320816
-0.0348207
-0.0370357
-0.0509843
-0.0395408
-0.0391434
-0.0390974
-0.03932
-0.0394736
-0.0395629
-0.0396034
-0.0396167
-0.0396056
-0.0395884
-0.0395749
-0.039576
-0.0396122
-0.0395659
-0.0395119
-0.0394737
-0.0394578
-0.0394804
-0.0393777
-0.0393459
-0.039311
-0.0392262
-0.0389385
-0.0266541
-0.038463
-0.0355706
-0.0388969
-0.0391063
-0.0391778
-0.0392142
-0.0392454
-0.0392799
-0.039317
-0.0393649
-0.0394005
-0.0392456
-0.0392045
-0.0392052
-0.0392396
-0.0395427
-0.039646
-0.0393418
-0.0392456
-0.0392587
-0.0395267
-0.0395928
-0.0396374
-0.0396387
-0.0389599
-0.0360306
0
0
-0.0110441
-0.0222178
-0.0266557
-0.0270239
-0.0271749
-0.0290604
-0.0346641
-0.0349085
-0.0367662
-0.0384227
-0.0386851
-0.0388728
-0.0390431
-0.0392223
-0.0393632
-0.0394595
-0.0398222
-0.0395558
-0.0395642
-0.0395628
-0.0395593
-0.0395754
-0.0396917
-0.0395915
-0.0395104
-0.0394813
-0.0394741
-0.0394861
-0.039426
-0.0393843
-0.0393525
-0.0392779
-0.0391367
-0.038785
-0.038952
-0.0389605
-0.0390993
-0.0391821
-0.0392243
-0.0392522
-0.0392812
-0.0393153
-0.039326
-0.0393331
-0.0393303
-0.0392744
-0.0392283
-0.0391574
-0.0390543
-0.0396441
-0.039748
-0.0394202
-0.0393469
-0.0393607
-0.0394556
-0.0395226
-0.0396196
-0.0397565
-0.0389651
-0.0360131
0
0
-0.011045
-0.0222191
-0.0266584
-0.0270271
-0.0271758
-0.0290496
-0.0321012
-0.0347704
-0.0365853
-0.037746
-0.0383452
-0.0387131
-0.0389671
-0.0391586
-0.0393021
-0.039406
-0.0394802
-0.0395229
-0.039542
-0.0395438
-0.0395307
-0.0394894
-0.0393243
-0.0393571
-0.039397
-0.0394481
-0.0394738
-0.039448
-0.0394312
-0.0394125
-0.039916
-0.0393434
-0.0392622
-0.0391761
-0.039176
-0.0391796
-0.0392106
-0.0392377
-0.0392578
-0.0392786
-0.0393148
-0.0393815
-0.0393523
-0.0393251
-0.0393071
-0.0392824
-0.0392557
-0.0392178
-0.0391909
-0.0393476
-0.0392256
-0.0393963
-0.0393858
-0.0393888
-0.0394214
-0.0394443
-0.0394075
-0.0391383
-0.0387616
-0.0359612
0
0
-0.011047
-0.0222222
-0.0266644
-0.0270325
-0.0271754
-0.0290354
-0.0320348
-0.0347886
-0.0365625
-0.0376329
-0.0382429
-0.038633
-0.038905
-0.0391066
-0.0392581
-0.0393705
-0.0394583
-0.0395144
-0.0395345
-0.0395332
-0.0395177
-0.0396622
-0.0394278
-0.0393447
-0.0393156
-0.0394528
-0.0395315
-0.0395238
-0.0394843
-0.0394426
-0.039413
-0.0393658
-0.0393218
-0.0392846
-0.0392677
-0.0392613
-0.0392643
-0.0392701
-0.0392767
-0.0392889
-0.0393307
-0.0394661
-0.0393692
-0.0393136
-0.039293
-0.0392804
-0.0392695
-0.0392584
-0.0392582
-0.0392985
-0.0392795
-0.0393478
-0.0393673
-0.0393825
-0.0394054
-0.0394291
-0.0394337
-0.0393066
-0.0387847
-0.0359493
0
0
-0.011051
-0.0222301
-0.0266775
-0.0270419
-0.0271763
-0.0290237
-0.0320173
-0.0349141
-0.0366073
-0.0376505
-0.0381881
-0.0385594
-0.0388388
-0.0390511
-0.0392117
-0.0393294
-0.0394551
-0.0395373
-0.0395433
-0.0395258
-0.0394946
-0.0394687
-0.0394127
-0.039289
-0.0391081
-0.0395221
-0.0396759
-0.0396463
-0.0395601
-0.0394816
-0.0394273
-0.0393863
-0.0393538
-0.039328
-0.0393102
-0.0392986
-0.0392917
-0.0392869
-0.0392815
-0.0392696
-0.0392254
-0.0390796
-0.0391862
-0.0392472
-0.039265
-0.0392672
-0.0392656
-0.0392656
-0.0392719
-0.0392889
-0.0392997
-0.0393277
-0.0393491
-0.0393696
-0.0393952
-0.0394324
-0.0398064
-0.0393924
-0.0388121
-0.0359495
0
0
-0.0110601
-0.0222509
-0.02671
-0.0270563
-0.0271754
-0.0289958
-0.0318885
-0.0342672
-0.0362057
-0.0375883
-0.0380294
-0.0384515
-0.0387688
-0.0389976
-0.0391647
-0.0392399
-0.0394891
-0.0396405
-0.0395754
-0.0395185
-0.0394432
-0.0394291
-0.0393785
-0.0391849
-0.0386354
-0.0397997
-0.0398901
-0.0397692
-0.0396214
-0.0395116
-0.0394433
-0.0394014
-0.0393724
-0.03935
-0.0393322
-0.0393177
-0.0393055
-0.0392945
-0.0392828
-0.0392668
-0.0392368
-0.0391832
-0.0392127
-0.0392387
-0.0392479
-0.0392483
-0.0392474
-0.0392497
-0.0392575
-0.0392713
-0.0392876
-0.0393088
-0.0393306
-0.039354
-0.0393824
-0.0394203
-0.0394633
-0.0394037
-0.0388194
-0.035949
0
0
-0.0110799
-0.0223107
-0.0267949
-0.0270742
-0.0271866
-0.0290011
-0.0319046
-0.0344506
-0.0362654
-0.0374479
-0.0380761
-0.0384965
-0.0387917
-0.0389907
-0.0401788
-0.0389539
-0.0396494
-0.0399327
-0.0396347
-0.0395298
-0.0393873
-0.0394151
-0.0394184
-0.0393348
-0.0391887
-0.0395599
-0.0396876
-0.0396527
-0.039569
-0.0394939
-0.0394426
-0.0394083
-0.0393834
-0.0393632
-0.0393449
-0.0393278
-0.0393113
-0.0392948
-0.0392781
-0.0392611
-0.0392448
-0.0392324
-0.039235
-0.0392347
-0.0392277
-0.0392189
-0.0392135
-0.0392145
-0.0392231
-0.0392386
-0.0392591
-0.0392828
-0.0393076
-0.0393343
-0.0393662
-0.0394078
-0.0394489
-0.039398
-0.0388198
-0.0359471
0
0
-0.0111175
-0.0224703
-0.0268957
-0.0271712