# vtk DataFile Version 2.0
FlowField
ASCII
DATASET STRUCTURED_GRID
DIMENSIONS 62 47 32 
POINTS 93248 double
0 0 0
0.01 0 0
0.02 0 0
0.03 0 0
0.04 0 0
0.05 0 0
0.06 0 0
0.07 0 0
0.08 0 0
0.09 0 0
0.1 0 0
0.11 0 0
0.12 0 0
0.13 0 0
0.14 0 0
0.15 0 0
0.16 0 0
0.17 0 0
0.18 0 0
0.19 0 0
0.2 0 0
0.21 0 0
0.22 0 0
0.23 0 0
0.24 0 0
0.25 0 0
0.26 0 0
0.27 0 0
0.28 0 0
0.29 0 0
0.3 0 0
0.31 0 0
0.32 0 0
0.33 0 0
0.34 0 0
0.35 0 0
0.36 0 0
0.37 0 0
0.38 0 0
0.39 0 0
0.4 0 0
0.41 0 0
0.42 0 0
0.43 0 0
0.44 0 0
0.45 0 0
0.46 0 0
0.47 0 0
0.48 0 0
0.49 0 0
0.5 0 0
0.51 0 0
0.52 0 0
0.53 0 0
0.54 0 0
0.55 0 0
0.56 0 0
0.57 0 0
0.58 0 0
0.59 0 0
0.6 0 0
0.61 0 0
0 0.01 0
0.01 0.01 0
0.02 0.01 0
0.03 0.01 0
0.04 0.01 0
0.05 0.01 0
0.06 0.01 0
0.07 0.01 0
0.08 0.01 0
0.09 0.01 0
0.1 0.01 0
0.11 0.01 0
0.12 0.01 0
0.13 0.01 0
0.14 0.01 0
0.15 0.01 0
0.16 0.01 0
0.17 0.01 0
0.18 0.01 0
0.19 0.01 0
0.2 0.01 0
0.21 0.01 0
0.22 0.01 0
0.23 0.01 0
0.24 0.01 0
0.25 0.01 0
0.26 0.01 0
0.27 0.01 0
0.28 0.01 0
0.29 0.01 0
0.3 0.01 0
0.31 0.01 0
0.32 0.01 0
0.33 0.01 0
0.34 0.01 0
0.35 0.01 0
0.36 0.01 0
0.37 0.01 0
0.38 0.01 0
0.39 0.01 0
0.4 0.01 0
0.41 0.01 0
0.42 0.01 0
0.43 0.01 0
0.44 0.01 0
0.45 0.01 0
0.46 0.01 0
0.47 0.01 0
0.48 0.01 0
0.49 0.01 0
0.5 0.01 0
0.51 0.01 0
0.52 0.01 0
0.53 0.01 0
0.54 0.01 0
0.55 0.01 0
0.56 0.01 0
0.57 0.01 0
0.58 0.01 0
0.59 0.01 0
0.6 0.01 0
0.61 0.01 0
0 0.02 0
0.01 0.02 0
0.02 0.02 0
0.03 0.02 0
0.04 0.02 0
0.05 0.02 0
0.06 0.02 0
0.07 0.02 0
0.08 0.02 0
0.09 0.02 0
0.1 0.02 0
0.11 0.02 0
0.12 0.02 0
0.13 0.02 0
0.14 0.02 0
0.15 0.02 0
0.16 0.02 0
0.17 0.02 0
0.18 0.02 0
0.19 0.02 0
0.2 0.02 0
0.21 0.02 0
0.22 0.02 0
0.23 0.02 0
0.24 0.02 0
0.25 0.02 0
0.26 0.02 0
0.27 0.02 0
0.28 0.02 0
0.29 0.02 0
0.3 0.02 0
0.31 0.02 0
0.32 0.02 0
0.33 0.02 0
0.34 0.02 0
0.35 0.02 0
0.36 0.02 0
0.37 0.02 0
0.38 0.02 0
0.39 0.02 0
0.4 0.02 0
0.41 0.02 0
0.42 0.02 0
0.43 0.02 0
0.44 0.02 0
0.45 0.02 0
0.46 0.02 0
0.47 0.02 0
0.48 0.02 0
0.49 0.02 0
0.5 0.02 0
0.51 0.02 0
0.52 0.02 0
0.53 0.02 0
0.54 0.02 0
0.55 0.02 0
0.56 0.02 0
0.57 0.02 0
0.58 0.02 0
0.59 0.02 0
0.6 0.02 0
0.61 0.02 0
0 0.03 0
0.01 0.03 0
0.02 0.03 0
0.03 0.03 0
0.04 0.03 0
0.05 0.03 0
0.06 0.03 0
0.07 0.03 0
0.08 0.03 0
0.09 0.03 0
0.1 0.03 0
0.11 0.03 0
0.12 0.03 0
0.13 0.03 0
0.14 0.03 0
0.15 0.03 0
0.16 0.03 0
0.17 0.03 0
0.18 0.03 0
0.19 0.03 0
0.2 0.03 0
0.21 0.03 0
0.22 0.03 0
0.23 0.03 0
0.24 0.03 0
0.25 0.03 0
0.26 0.03 0
0.27 0.03 0
0.28 0.03 0
0.29 0.03 0
0.3 0.03 0
0.31 0.03 0
0.32 0.03 0
0.33 0.03 0
0.34 0.03 0
0.35 0.03 0
0.36 0.03 0
0.37 0.03 0
0.38 0.03 0
0.39 0.03 0
0.4 0.03 0
0.41 0.03 0
0.42 0.03 0
0.43 0.03 0
0.44 0.03 0
0.45 0.03 0
0.46 0.03 0
0.47 0.03 0
0.48 0.03 0
0.49 0.03 0
0.5 0.03 0
0.51 0.03 0
0.52 0.03 0
0.53 0.03 0
0.54 0.03 0
0.55 0.03 0
0.56 0.03 0
0.57 0.03 0
0.58 0.03 0
0.59 0.03 0
0.6 0.03 0
0.61 0.03 0
0 0.04 0
0.01 0.04 0
0.02 0.04 0
0.03 0.04 0
0.04 0.04 0
0.05 0.04 0
0.06 0.04 0
0.07 0.04 0
0.08 0.04 0
0.09 0.04 0
0.1 0.04 0
0.11 0.04 0
0.12 0.04 0
0.13 0.04 0
0.14 0.04 0
0.15 0.04 0
0.16 0.04 0
0.17 0.04 0
0.18 0.04 0
0.19 0.04 0
0.2 0.04 0
0.21 0.04 0
0.22 0.04 0
0.23 0.04 0
0.24 0.04 0
0.25 0.04 0
0.26 0.04 0
0.27 0.04 0
0.28 0.04 0
0.29 0.04 0
0.3 0.04 0
0.31 0.04 0
0.32 0.04 0
0.33 0.04 0
0.34 0.04 0
0.35 0.04 0
0.36 0.04 0
0.37 0.04 0
0.38 0.04 0
0.39 0.04 0
0.4 0.04 0
0.41 0.04 0
0.42 0.04 0
0.43 0.04 0
0.44 0.04 0
0.45 0.04 0
0.46 0.04 0
0.47 0.04 0
0.48 0.04 0
0.49 0.04 0
0.5 0.04 0
0.51 0.04 0
0.52 0.04 0
0.53 0.04 0
0.54 0.04 0
0.55 0.04 0
0.56 0.04 0
0.57 0.04 0
0.58 0.04 0
0.59 0.04 0
0.6 0.04 0
0.61 0.04 0
0 0.05 0
0.01 0.05 0
0.02 0.05 0
0.03 0.05 0
0.04 0.05 0
0.05 0.05 0
0.06 0.05 0
0.07 0.05 0
0.08 0.05 0
0.09 0.05 0
0.1 0.05 0
0.11 0.05 0
0.12 0.05 0
0.13 0.05 0
0.14 0.05 0
0.15 0.05 0
0.16 0.05 0
0.17 0.05 0
0.18 0.05 0
0.19 0.05 0
0.2 0.05 0
0.21 0.05 0
0.22 0.05 0
0.23 0.05 0
0.24 0.05 0
0.25 0.05 0
0.26 0.05 0
0.27 0.05 0
0.28 0.05 0
0.29 0.05 0
0.3 0.05 0
0.31 0.05 0
0.32 0.05 0
0.33 0.05 0
0.34 0.05 0
0.35 0.05 0
0.36 0.05 0
0.37 0.05 0
0.38 0.05 0
0.39 0.05 0
0.4 0.05 0
0.41 0.05 0
0.42 0.05 0
0.43 0.05 0
0.44 0.05 0
0.45 0.05 0
0.46 0.05 0
0.47 0.05 0
0.48 0.05 0
0.49 0.05 0
0.5 0.05 0
0.51 0.05 0
0.52 0.05 0
0.53 0.05 0
0.54 0.05 0
0.55 0.05 0
0.56 0.05 0
0.57 0.05 0
0.58 0.05 0
0.59 0.05 0
0.6 0.05 0
0.61 0.05 0
0 0.06 0
0.01 0.06 0
0.02 0.06 0
0.03 0.06 0
0.04 0.06 0
0.05 0.06 0
0.06 0.06 0
0.07 0.06 0
0.08 0.06 0
0.09 0.06 0
0.1 0.06 0
0.11 0.06 0
0.12 0.06 0
0.13 0.06 0
0.14 0.06 0
0.15 0.06 0
0.16 0.06 0
0.17 0.06 0
0.18 0.06 0
0.19 0.06 0
0.2 0.06 0
0.21 0.06 0
0.22 0.06 0
0.23 0.06 0
0.24 0.06 0
0.25 0.06 0
0.26 0.06 0
0.27 0.06 0
0.28 0.06 0
0.29 0.06 0
0.3 0.06 0
0.31 0.06 0
0.32 0.06 0
0.33 0.06 0
0.34 0.06 0
0.35 0.06 0
0.36 0.06 0
0.37 0.06 0
0.38 0.06 0
0.39 0.06 0
0.4 0.06 0
0.41 0.06 0
0.42 0.06 0
0.43 0.06 0
0.44 0.06 0
0.45 0.06 0
0.46 0.06 0
0.47 0.06 0
0.48 0.06 0
0.49 0.06 0
0.5 0.06 0
0.51 0.06 0
0.52 0.06 0
0.53 0.06 0
0.54 0.06 0
0.55 0.06 0
0.56 0.06 0
0.57 0.06 0
0.58 0.06 0
0.59 0.06 0
0.6 0.06 0
0.61 0.06 0
0 0.07 0
0.01 0.07 0
0.02 0.07 0
0.03 0.07 0
0.04 0.07 0
0.05 0.07 0
0.06 0.07 0
0.07 0.07 0
0.08 0.07 0
0.09 0.07 0
0.1 0.07 0
0.11 0.07 0
0.12 0.07 0
0.13 0.07 0
0.14 0.07 0
0.15 0.07 0
0.16 0.07 0
0.17 0.07 0
0.18 0.07 0
0.19 0.07 0
0.2 0.07 0
0.21 0.07 0
0.22 0.07 0
0.23 0.07 0
0.24 0.07 0
0.25 0.07 0
0.26 0.07 0
0.27 0.07 0
0.28 0.07 0
0.29 0.07 0
0.3 0.07 0
0.31 0.07 0
0.32 0.07 0
0.33 0.07 0
0.34 0.07 0
0.35 0.07 0
0.36 0.07 0
0.37 0.07 0
0.38 0.07 0
0.39 0.07 0
0.4 0.07 0
0.41 0.07 0
0.42 0.07 0
0.43 0.07 0
0.44 0.07 0
0.45 0.07 0
0.46 0.07 0
0.47 0.07 0
0.48 0.07 0
0.49 0.07 0
0.5 0.07 0
0.51 0.07 0
0.52 0.07 0
0.53 0.07 0
0.54 0.07 0
0.55 0.07 0
0.56 0.07 0
0.57 0.07 0
0.58 0.07 0
0.59 0.07 0
0.6 0.07 0
0.61 0.07 0
0 0.08 0
0.01 0.08 0
0.02 0.08 0
0.03 0.08 0
0.04 0.08 0
0.05 0.08 0
0.06 0.08 0
0.07 0.08 0
0.08 0.08 0
0.09 0.08 0
0.1 0.08 0
0.11 0.08 0
0.12 0.08 0
0.13 0.08 0
0.14 0.08 0
0.15 0.08 0
0.16 0.08 0
0.17 0.08 0
0.18 0.08 0
0.19 0.08 0
0.2 0.08 0
0.21 0.08 0
0.22 0.08 0
0.23 0.08 0
0.24 0.08 0
0.25 0.08 0
0.26 0.08 0
0.27 0.08 0
0.28 0.08 0
0.29 0.08 0
0.3 0.08 0
0.31 0.08 0
0.32 0.08 0
0.33 0.08 0
0.34 0.08 0
0.35 0.08 0
0.36 0.08 0
0.37 0.08 0
0.38 0.08 0
0.39 0.08 0
0.4 0.08 0
0.41 0.08 0
0.42 0.08 0
0.43 0.08 0
0.44 0.08 0
0.45 0.08 0
0.46 0.08 0
0.47 0.08 0
0.48 0.08 0
0.49 0.08 0
0.5 0.08 0
0.51 0.08 0
0.52 0.08 0
0.53 0.08 0
0.54 0.08 0
0.55 0.08 0
0.56 0.08 0
0.57 0.08 0
0.58 0.08 0
0.59 0.08 0
0.6 0.08 0
0.61 0.08 0
0 0.09 0
0.01 0.09 0
0.02 0.09 0
0.03 0.09 0
0.04 0.09 0
0.05 0.09 0
0.06 0.09 0
0.07 0.09 0
0.08 0.09 0
0.09 0.09 0
0.1 0.09 0
0.11 0.09 0
0.12 0.09 0
0.13 0.09 0
0.14 0.09 0
0.15 0.09 0
0.16 0.09 0
0.17 0.09 0
0.18 0.09 0
0.19 0.09 0
0.2 0.09 0
0.21 0.09 0
0.22 0.09 0
0.23 0.09 0
0.24 0.09 0
0.25 0.09 0
0.26 0.09 0
0.27 0.09 0
0.28 0.09 0
0.29 0.09 0
0.3 0.09 0
0.31 0.09 0
0.32 0.09 0
0.33 0.09 0
0.34 0.09 0
0.35 0.09 0
0.36 0.09 0
0.37 0.09 0
0.38 0.09 0
0.39 0.09 0
0.4 0.09 0
0.41 0.09 0
0.42 0.09 0
0.43 0.09 0
0.44 0.09 0
0.45 0.09 0
0.46 0.09 0
0.47 0.09 0
0.48 0.09 0
0.49 0.09 0
0.5 0.09 0
0.51 0.09 0
0.52 0.09 0
0.53 0.09 0
0.54 0.09 0
0.55 0.09 0
0.56 0.09 0
0.57 0.09 0
0.58 0.09 0
0.59 0.09 0
0.6 0.09 0
0.61 0.09 0
0 0.1 0
0.01 0.1 0
0.02 0.1 0
0.03 0.1 0
0.04 0.1 0
0.05 0.1 0
0.06 0.1 0
0.07 0.1 0
0.08 0.1 0
0.09 0.1 0
0.1 0.1 0
0.11 0.1 0
0.12 0.1 0
0.13 0.1 0
0.14 0.1 0
0.15 0.1 0
0.16 0.1 0
0.17 0.1 0
0.18 0.1 0
0.19 0.1 0
0.2 0.1 0
0.21 0.1 0
0.22 0.1 0
0.23 0.1 0
0.24 0.1 0
0.25 0.1 0
0.26 0.1 0
0.27 0.1 0
0.28 0.1 0
0.29 0.1 0
0.3 0.1 0
0.31 0.1 0
0.32 0.1 0
0.33 0.1 0
0.34 0.1 0
0.35 0.1 0
0.36 0.1 0
0.37 0.1 0
0.38 0.1 0
0.39 0.1 0
0.4 0.1 0
0.41 0.1 0
0.42 0.1 0
0.43 0.1 0
0.44 0.1 0
0.45 0.1 0
0.46 0.1 0
0.47 0.1 0
0.48 0.1 0
0.49 0.1 0
0.5 0.1 0
0.51 0.1 0
0.52 0.1 0
0.53 0.1 0
0.54 0.1 0
0.55 0.1 0
0.56 0.1 0
0.57 0.1 0
0.58 0.1 0
0.59 0.1 0
0.6 0.1 0
0.61 0.1 0
0 0.11 0
0.01 0.11 0
0.02 0.11 0
0.03 0.11 0
0.04 0.11 0
0.05 0.11 0
0.06 0.11 0
0.07 0.11 0
0.08 0.11 0
0.09 0.11 0
0.1 0.11 0
0.11 0.11 0
0.12 0.11 0
0.13 0.11 0
0.14 0.11 0
0.15 0.11 0
0.16 0.11 0
0.17 0.11 0
0.18 0.11 0
0.19 0.11 0
0.2 0.11 0
0.21 0.11 0
0.22 0.11 0
0.23 0.11 0
0.24 0.11 0
0.25 0.11 0
0.26 0.11 0
0.27 0.11 0
0.28 0.11 0
0.29 0.11 0
0.3 0.11 0
0.31 0.11 0
0.32 0.11 0
0.33 0.11 0
0.34 0.11 0
0.35 0.11 0
0.36 0.11 0
0.37 0.11 0
0.38 0.11 0
0.39 0.11 0
0.4 0.11 0
0.41 0.11 0
0.42 0.11 0
0.43 0.11 0
0.44 0.11 0
0.45 0.11 0
0.46 0.11 0
0.47 0.11 0
0.48 0.11 0
0.49 0.11 0
0.5 0.11 0
0.51 0.11 0
0.52 0.11 0
0.53 0.11 0
0.54 0.11 0
0.55 0.11 0
0.56 0.11 0
0.57 0.11 0
0.58 0.11 0
0.59 0.11 0
0.6 0.11 0
0.61 0.11 0
0 0.12 0
0.01 0.12 0
0.02 0.12 0
0.03 0.12 0
0.04 0.12 0
0.05 0.12 0
0.06 0.12 0
0.07 0.12 0
0.08 0.12 0
0.09 0.12 0
0.1 0.12 0
0.11 0.12 0
0.12 0.12 0
0.13 0.12 0
0.14 0.12 0
0.15 0.12 0
0.16 0.12 0
0.17 0.12 0
0.18 0.12 0
0.19 0.12 0
0.2 0.12 0
0.21 0.12 0
0.22 0.12 0
0.23 0.12 0
0.24 0.12 0
0.25 0.12 0
0.26 0.12 0
0.27 0.12 0
0.28 0.12 0
0.29 0.12 0
0.3 0.12 0
0.31 0.12 0
0.32 0.12 0
0.33 0.12 0
0.34 0.12 0
0.35 0.12 0
0.36 0.12 0
0.37 0.12 0
0.38 0.12 0
0.39 0.12 0
0.4 0.12 0
0.41 0.12 0
0.42 0.12 0
0.43 0.12 0
0.44 0.12 0
0.45 0.12 0
0.46 0.12 0
0.47 0.12 0
0.48 0.12 0
0.49 0.12 0
0.5 0.12 0
0.51 0.12 0
0.52 0.12 0
0.53 0.12 0
0.54 0.12 0
0.55 0.12 0
0.56 0.12 0
0.57 0.12 0
0.58 0.12 0
0.59 0.12 0
0.6 0.12 0
0.61 0.12 0
0 0.13 0
0.01 0.13 0
0.02 0.13 0
0.03 0.13 0
0.04 0.13 0
0.05 0.13 0
0.06 0.13 0
0.07 0.13 0
0.08 0.13 0
0.09 0.13 0
0.1 0.13 0
0.11 0.13 0
0.12 0.13 0
0.13 0.13 0
0.14 0.13 0
0.15 0.13 0
0.16 0.13 0
0.17 0.13 0
0.18 0.13 0
0.19 0.13 0
0.2 0.13 0
0.21 0.13 0
0.22 0.13 0
0.23 0.13 0
0.24 0.13 0
0.25 0.13 0
0.26 0.13 0
0.27 0.13 0
0.28 0.13 0
0.29 0.13 0
0.3 0.13 0
0.31 0.13 0
0.32 0.13 0
0.33 0.13 0
0.34 0.13 0
0.35 0.13 0
0.36 0.13 0
0.37 0.13 0
0.38 0.13 0
0.39 0.13 0
0.4 0.13 0
0.41 0.13 0
0.42 0.13 0
0.43 0.13 0
0.44 0.13 0
0.45 0.13 0
0.46 0.13 0
0.47 0.13 0
0.48 0.13 0
[...]
POINT_DATA 93248

SCALARS w double
LOOKUP_TABLE default
0
0
0
0
0
0
0
0
0
0
0
0
0
-0.0243319
0
0
0
0
0
0
0
0
0
0
0
0
-0.0319886
0
0
0
0
0
-0.0305386
0
0
0
0
0
0
0
0
0
0
0
0
0
-0.0294957
0
0
0
0
0
0
0
0
0
0
0
0
0
0
0
0
-0.00794529
-0.0111274
-0.0128337
-0.0133196
-0.0152038
-0.017881
-0.0196953
-0.0207704
-0.0214424
-0.021888
-0.0222274
-0.0224059
-0.0226009
-0.0227689
-0.0229128
-0.0230073
-0.0231053
-0.0231757
-0.0232384
-0.0228175
-0.0228522
-0.022923
-0.0230099
-0.0230528
-0.0230705
-0.0230758
-0.0230742
-0.0230675
-0.0230552
-0.0230339
-0.0229939
-0.0229176
-0.0228668
-0.0227476
-0.0224007
-0.0217434
-0.0205952
-0.0201237
-0.0282144
-0.0237848
-0.0239049
-0.0237676
-0.023618
-0.0236638
-0.0309865
-0.023172
-0.0230916
-0.0231174
-0.0232172
-0.023418
-0.0238493
-0.0224573
-0.0231083
-0.0309665
-0.0236039
-0.0236578
-0.0224683
-0.0228049
-0.0227923
-0.0214514
0
0
-0.0101327
-0.0187705
-0.0187497
-0.0173503
-0.019058
-0.0229211
-0.0265046
-0.0286761
-0.029911
-0.0306361
-0.0312424
-0.031472
-0.0317673
-0.0320112
-0.032231
-0.0323475
-0.0325386
-0.0326659
-0.0330634
-0.0318002
-0.0320291
-0.031816
-0.0323293
-0.0324149
-0.0324438
-0.0324521
-0.0324506
-0.0324431
-0.0324297
-0.032407
-0.0323611
-0.0322468
-0.0322094
-0.0321504
-0.0316504
-0.0307152
-0.0282278
-0.0235033
-0.0389715
-0.0372939
-0.0350552
-0.0337387
-0.0331763
-0.0330856
-0.0332294
-0.0327987
-0.0325085
-0.0324584
-0.0325619
-0.032585
-0.0310443
-0.0322901
-0.032545
-0.0328452
-0.0328263
-0.0328362
-0.0322319
-0.0322931
-0.0319946
-0.0297381
0
0
-0.0101058
-0.0174612
-0.0179303
-0.0169733
-0.0152038
-0.0229286
-0.0266701
-0.0289242
-0.0301943
-0.0308176
-0.0317625
-0.0322878
-0.0324042
-0.0324552
-0.0324798
-0.0326646
-0.0330346
-0.0330226
-0.0330776
-0.0329604
-0.0328543
-0.0327905
-0.0328135
-0.032832
-0.032842
-0.0328443
-0.0328412
-0.0328338
-0.0328227
-0.0328093
-0.0328035
-0.0328323
-0.0317218
-0.0327851
-0.0320974
-0.0315769
-0.030505
-0.0293346
-0.0347802
-0.0354548
-0.0345711
-0.033831
-0.0334228
-0.0334508
-0.0337553
-0.0327438
-0.0326841
-0.0326556
-0.0330101
-0.0329453
-0.0328804
-0.0328557
-0.0329282
-0.0330191
-0.0330452
-0.033077
-0.0330364
-0.0328755
-0.0324306
-0.0299995
0
0
-0.0098484
-0.0163631
-0.0156258
-0.0164759
-0.0188296
-0.0228665
-0.0263637
-0.0285008
-0.0297298
-0.030462
-0.0310961
-0.0315165
-0.0317126
-0.0318062
-0.0317874
-0.0318744
-0.0317339
-0.0319578
-0.0321306
-0.0322518
-0.0322544
-0.0322393
-0.0322366
-0.0322391
-0.0322407
-0.0322393
-0.0322348
-0.0322275
-0.0322175
-0.0322052
-0.0321927
-0.0321826
-0.0321087
-0.0320867
-0.0318121
-0.0315599
-0.0312585
-0.0314449
-0.0327133
-0.0332016
-0.0330322
-0.0327812
-0.032627
-0.0326253
-0.0327084
-0.0324378
-0.0322694
-0.0322153
-0.0322921
-0.0322838
-0.0322709
-0.0322732
-0.0323019
-0.0323359
-0.0323546
-0.0323684
-0.0323683
-0.0322773
-0.0318403
-0.0294293
0
0
-0.00968876
-0.0159444
-0.0165048
-0.0162827
-0.0188324
-0.0228201
-0.0261905
-0.0282567
-0.0294501
-0.0301749
-0.0306818
-0.0310266
-0.0312357
-0.0313337
-0.0286412
-0.0313087
-0.0314402
-0.0315698
-0.0316895
-0.0317751
-0.0318077
-0.031816
-0.0318189
-0.0318201
-0.0318195
-0.0318163
-0.0318112
-0.0318042
-0.031795
-0.0317824
-0.0317622
-0.0317218
-0.0316268
-0.0316235
-0.0315534
-0.0314733
-0.0314179
-0.0315031
-0.0319203
-0.0321407
-0.032151
-0.0320917
-0.0320403
-0.0320332
-0.0320932
-0.0322685
-0.0319641
-0.0318479
-0.0318327
-0.0318262
-0.0318256
-0.0318377
-0.0318652
-0.031889
-0.0319003
-0.031902
-0.0318909
-0.0318129
-0.0313789
-0.0290252
0
0
-0.00961219
-0.0157714
-0.0163013
-0.0161259
-0.0187493
-0.0227093
-0.0260431
-0.0281359
-0.0293063
-0.0299998
-0.0304469
-0.0307653
-0.030976
-0.031097
-0.0310954
-0.0311961
-0.0313134
-0.0309745
-0.0314589
-0.031518
-0.0315476
-0.0315614
-0.0315674
-0.0315692
-0.0315679
-0.0315635
-0.0315582
-0.0315523
-0.0315452
-0.0315346
-0.031513
-0.0314554
-0.0312696
-0.0313511
-0.0313885
-0.0313811
-0.0313859
-0.0314449
-0.0315787
-0.0316736
-0.0317039
-0.0316961
-0.031673
-0.031634
-0.0315198
-0.0311732
-0.0313893
-0.0314982
-0.0315311
-0.0315331
-0.0315324
-0.0315536
-0.0316122
-0.0316461
-0.0316514
-0.0316383
-0.0315994
-0.031459
-0.0309252
-0.0286553
0
0
-0.00956365
-0.0156571
-0.016156
-0.0159956
-0.0186663
-0.0226112
-0.0258445
-0.027941
-0.0291022
-0.0298011
-0.0302679
-0.0305981
-0.0308197
-0.0309545
-0.0309982
-0.0309657
-0.0312032
-0.031299
-0.0313401
-0.0313685
-0.0313879
-0.0314014
-0.0314089
-0.0314113
-0.0314106
-0.0314029
-0.0313979
-0.0313946
-0.0313926
-0.0313901
-0.0313824
-0.0314091
-0.0315687
-0.0314413
-0.0313467
-0.0313137
-0.0313143
-0.0313441
-0.0313952
-0.0314385
-0.0314604
-0.0314639
-0.0314519
-0.0314234
-0.0313543
-0.0312283
-0.0312851
-0.031332
-0.0313379
-0.0313145
-0.031284
-0.0313053
-0.0314873
-0.0315523
-0.0315391
-0.0315006
-0.0314183
-0.031101
-0.0227923
-0.0283069
0
0
-0.0095297
-0.0155809
-0.016055
-0.0159055
-0.0186104
-0.0225875
-0.0258703
-0.0278548
-0.0289872
-0.0296968
-0.0301732
-0.0305454
-0.0307355
-0.0308621
-0.030849
-0.0304106
-0.0280811
-0.0312401
-0.0312617
-0.0312668
-0.0312745
-0.0312911
-0.0313013
-0.0313049
-0.0313063
-0.0312898
-0.0312864
-0.0312883
-0.031297
-0.03131
-0.031284
-0.0312821
-0.0313307
-0.0312907
-0.0312531
-0.0312362
-0.0312399
-0.0312559
-0.0312789
-0.0313002
-0.0313139
-0.0313186
-0.0313145
-0.0313002
-0.0312709
-0.0312314
-0.0312306
-0.0312247
-0.0311866
-0.0310971
-0.0309495
-0.030873
-0.0315355
-0.0316508
-0.0315563
-0.0314732
-0.0314406
-0.0314098
-0.0307447
-0.0284628
0
0
-0.00950528
-0.0155279
-0.015984
-0.0158405
-0.0185752
-0.0225988
-0.0258605
-0.0277967
-0.0289233
-0.0296364
-0.030138
-0.031472
-0.0307828
-0.0308605
-0.0309052
-0.0308615
-0.0310771
-0.031166
-0.0311875
-0.0311959
-0.0311883
-0.0312123
-0.0312266
-0.0312269
-0.0312205
-0.0312097
-0.0312049
-0.0312106
-0.0312417
-0.0313055
-0.0312141
-0.0311719
-0.031175
-0.0311733
-0.0311668
-0.0311622
-0.0311752
-0.0311864
-0.0311973
-0.0312082
-0.0312169
-0.0312217
-0.0312218
-0.0312163
-0.0312044
-0.0311877
-0.0311718
-0.0311379
-0.031051
-0.0308351
-0.0303456
-0.0283175
-0.0320073
-0.0320871
-0.0317149
-0.0314909
-0.0314037
-0.0313336
-0.0308506
-0.0284779
0
0
-0.0094876
-0.0154897
-0.015931
-0.0157824
-0.0185376
-0.0225852
-0.025836
-0.0277578
-0.0288788
-0.0295954
-0.0300842
-0.0304568
-0.0306725
-0.0308244
-0.0309416
-0.0309996
-0.0310755
-0.0311178
-0.0311369
-0.0311488
-0.031217
-0.0312098
-0.0311892
-0.031172
-0.0309952
-0.0311372
-0.0311292
-0.0311352
-0.0311974
-0.0313965
-0.0311665
-0.0310988
-0.0310852
-0.031092
-0.0310962
-0.0310882
-0.0311221
-0.0311339
-0.0311359
-0.0311402
-0.0311461
-0.0311513
-0.0311543
-0.0311541
-0.0311497
-0.0311399
-0.0311211
-0.0310762
-0.0309567
-0.0306194
-0.0297208
-0.0283175
-0.033487
-0.032779
-0.031907
-0.0315086
-0.0313695
-0.0312772
-0.0308356
-0.0284636
0
0
-0.00947493
-0.0154626
-0.0158925
-0.0157246
-0.0185019
-0.0225641
-0.0258123
-0.0277289
-0.0288482
-0.0295616
-0.0300426
-0.0303823
-0.0306209
-0.0308108
-0.031012
-0.0310702
-0.0310886
-0.0310955
-0.0310959
-0.0310679
-0.0311813
-0.0311751
-0.0311492
-0.0311252
-0.0310989
-0.0310734
-0.0310442
-0.0310219
-0.0310365
-0.0311523
-0.031346
-0.0311437
-0.0310545
-0.0310413
-0.0310451
-0.0310455
-0.0310465
-0.0310849
-0.0310828
-0.031083
-0.031088
-0.0310942
-0.0311008
-0.031105
-0.0311055
-0.0311007
-0.0310865
-0.0310516
-0.0309677
-0.0307691
-0.0303706
-0.0300857
-0.0319829
-0.031989
-0.0316224
-0.0314038
-0.0313143
-0.0312353
-0.030808
-0.0284422
0
0
-0.00946641
-0.0154461
-0.015881
-0.0157892
-0.0185488
-0.0225817
-0.0258069
-0.0277106
-0.028825
-0.0295345
-0.0300117
-0.0303443
-0.030585
-0.0307931
-0.0311289
-0.0311115
-0.0310769
-0.0310692
-0.0310695
-0.0310725
-0.0311113
-0.0311159
-0.0311025
-0.03108
-0.0310474
-0.0310011
-0.0309365
-0.030856
-0.0307678
-0.0307178
-0.030432
-0.0306721
-0.0308538
-0.0309458
-0.0309864
-0.031001
-0.0310058
-0.0310174
-0.0310196
-0.0310241
-0.0310321
-0.0310391
-0.0310535
-0.0310638
-0.0310696
-0.0310703
-0.0310641
-0.0310467
-0.0310081
-0.0309282
-0.030819
-0.0308264
-0.0313567
-0.0314486
-0.031365
-0.0312926
-0.0312587
-0.031199
-0.0307814
-0.0284208
0
0
-0.00946037
-0.0154328
-0.0158602
-0.0157463
-0.0185198
-0.0225624
-0.0257895
-0.0276935
-0.0288067
-0.0295122
-0.0299874
-0.0303144
-0.0305357
-0.0306536
-0.0305411
-0.0307265
-0.0308841
-0.030972
-0.0310116
-0.0310417
-0.0310683
-0.0310756
-0.0310657
-0.0310404
-0.0309952
-0.0309192
-0.0307945
-0.0306012
-0.0302727
-0.0303731
-0.0304504
-0.0306434
-0.030802
-0.030895
-0.0309386
-0.0309536
-0.0309546
-0.0309506
-0.0309484
-0.0309562
-0.0309694
-0.030726
-0.031005
-0.0310266
-0.0310389
-0.0310455
-0.0310477
-0.0310472
-0.0310455
-0.0310135
-0.0309926
-0.0310293
-0.0311781
-0.0312329
-0.031229
-0.0312184
-0.0312205
-0.031171
-0.0307591
-0.0284022
0
0
-0.00945749
-0.0154266
-0.0158461
-0.0159055
-0.0184977
-0.0225439
-0.0257745
-0.0276807
-0.0287954
-0.0295068
-0.0299768
-0.0302978
-0.0305166
-0.0306485
-0.0306801
-0.0307837
-0.0308858
-0.0309475
-0.0309444
-0.0309937
-0.0310329
-0.0310473
-0.0310385
-0.0310082
-0.0309479
-0.0308323
-0.030603
-0.0300975
-0.0283938
-0.0294638
-0.0301726
-0.0305532
-0.0307533
-0.0308524
-0.0308942
-0.0309017
-0.0309539
-0.0308634
-0.0308462
-0.0308614
-0.0308949
-0.0309289
-0.0309657
-0.030993
-0.0310116
-0.0310237
-0.0310319
-0.0310436
-0.0310729
-0.0310469
-0.0310439
-0.0310768
-0.0311525
-0.0311602
-0.0311649
-0.0311769
-0.031459
-0.031155
-0.0307427
-0.0283877
0
0
-0.00945975
-0.0154371
-0.0158485
-0.0157088
-0.0184801
-0.0225274
-0.0257626
-0.0276733
-0.0287892
-0.0294966
-0.0299655
-0.0302865
-0.0305089
-0.0306594
-0.0307551
-0.0308423
-0.0309141
-0.0309436
-0.0308417
-0.0309407
-0.0310117
-0.0310306
-0.0310215
-0.0309872
-0.0309163
-0.0307656
-0.0303849
-0.0289513
0.0244635
-0.0269575
-0.0295329
-0.0303877
-0.0306971
-0.0308141
-0.0308517
-0.0308412
-0.0307937
-0.0307192
-0.0306532
-0.030698
-0.0307808
-0.0308578
-0.0309174
-0.0309589
-0.0309865
-0.031003
-0.0310108
-0.0310054
-0.0309759
-0.0310086
-0.0310418
-0.0310961
-0.0320073
-0.0311507
-0.0311321
-0.0311406
-0.0311739
-0.0311387
-0.030732
-0.0283782
0
0
-0.00946876
-0.0154907
-0.0158845
-0.0157153
-0.0184694
-0.0225065
-0.0257544
-0.0276764
-0.0287949
-0.0294977
-0.0299613
-0.0302794
-0.0305028
-0.0306623
-0.0307786
-0.0308693
-0.0309428
-0.03102
-0.031197
-0.0311331
-0.031073
-0.0310436
-0.0310177
-0.0309807
-0.0309149
-0.0307888
-0.0305285
-0.029928
-0.0282275
-0.0293979
-0.0301687
-0.0305488
-0.0307241
-0.0307966
-0.0308166
-0.0307745
-0.0306576
-0.0304487
-0.0301453
-0.0303526
-0.0305899
-0.0307561
-0.0308609
-0.0309251
-0.030965
-0.0309862
-0.0309967
-0.0309901
-0.0309852
-0.0309929
-0.0310235
-0.0310589
-0.0311067
-0.0310986
-0.0311136
-0.0311048
-0.0311732
-0.031144
-0.0307319
-0.0283755
0
0
-0.00947133
-0.0155961
-0.0159333
-0.0157162
-0.0184507
-0.0224642
-0.0257595
-0.0277022
-0.0288213
-0.0295138
-0.029967
-0.0302751
-0.0304936
-0.0306555
-0.030784
-0.0308816
-0.0309529
-0.031013
-0.0310871
-0.0310799
-0.0310574
-0.0310366
-0.0310145
-0.0309824
-0.0309301
-0.0308421
-0.0306943
-0.0304635
-0.0301448
-0.0303183
-0.0305329
-0.0306786
-0.0307526
-0.030774
-0.0307951
-0.0307151
-0.0304707
-0.0298595
-0.028095
-0.0294298
-0.0302437
-0.0306226
-0.0308022
-0.0308949
-0.030949
-0.0309731
-0.0309859
-0.030988
-0.0309724
-0.0309345
-0.0309897
-0.0310301
-0.0310546
-0.0310737
-0.0323546
-0.0310381
-0.0312319
-0.0311833
-0.0307459
-0.0283767
0
0
-0.00939398
-0.0151432
-0.0156082
-0.0155485
-0.0183725
-0.0225852
-0.025832
-0.0277647
-0.028863
-0.0295374
-0.0299814
-0.030273
-0.0304741
-0.0306305
-0.0307849
-0.0309003
-0.0309681
-0.031008
-0.0310384
-0.0310456
-0.0310405
-0.0310298
-0.0310132
-0.0309875
-0.0309479
-0.0308875
-0.030799
-0.0306911
-0.0305588
-0.0306127
-0.0306979
-0.0307534
-0.0307554
-0.0307064
-0.030815
-0.0307103
-0.0302895
-0.028609
0.0290636
-0.0270376
-0.0297071
-0.0304914
-0.0307611
-0.0308732
-0.0309243
-0.0309582
-0.0309771
-0.0309824
-0.0309535
-0.0308353
-0.0309565
-0.0310132
-0.031028
-0.0310181
-0.0309682
-0.0308299
-0.0313801
-0.0312429
-0.0307566
-0.0283953
0
0
-0.00939825
-0.0152531
-0.0156606
-0.0155292
-0.0183816
-0.0225509
-0.0258524
-0.02776
-0.0288466
-0.0295281
-0.0300043
-0.0302671
-0.0304234
-0.0305469
-0.0307937
-0.030956
-0.0310171
-0.0310216
-0.0310278
-0.0310329
-0.0310327
-0.0310264
-0.0310137
-0.0309929
-0.0309613
-0.0309153
-0.0308491
-0.0307809
-0.0306115
-0.0307046
-0.0307832
-0.0307985
-0.0307392
-0.0305535
-0.0309353
-0.0308232
-0.0304986
-0.0298029
-0.0279929
-0.0293638
-0.0302249
-0.0306068
-0.0307873
-0.0308792
-0.0309273
-0.0309549
-0.0309751
-0.030999
-0.0310541
-0.031201
-0.0310886
-0.0310363
-0.0310224
-0.0310141
-0.0309962
-0.0309884
-0.0311981
-0.0311577
-0.0307239
-0.0283576
0
0
-0.00941201
-0.0153179
-0.0157012
-0.0154559
-0.0183683
-0.0227424
-0.0259229
-0.0277505
-0.0288228
-0.0295143
-0.0300682
-0.0302467
-0.0302768
-0.030286
-0.0308523
-0.0311195
-0.0311315
-0.0310564
-0.0310274
-0.0310275
-0.0310294
-0.0310255
-0.0310152
-0.0309973
-0.0309686
-0.0309199
-0.0308171
-0.0308835
-0.0310615
-0.0309731
-0.0309006
-0.0308633
-0.030815
-0.0307475
-0.0308539
-0.0308113
-0.0306555
-0.0304075
-0.0300953
-0.0303051
-0.0305549
-0.030726
-0.0308347
-0.0309014
-0.0309394
-0.0309515
-0.0309663
-0.0309901
-0.0310292
-0.0310888
-0.0310564
-0.0310192
-0.0310056
-0.0310091
-0.0310297
-0.0310538
-0.0311242
-0.0310997
-0.0306912
-0.0283386
0
0
-0.00942204
-0.0153512
-0.0157719
-0.0157807
-0.0184629
-0.0221998
-0.0255183
-0.0275405
-0.0287191
-0.029433
-0.0297245
-0.0299756
-0.0298997
-0.0296625
-0.0311703
-0.0314079
-0.0313082
-0.0310735
-0.0310304
-0.0310278
-0.0310293
-0.0310268
-0.0310183
-0.0310021
-0.0309722
-0.0308987
-0.0280338
-0.0307745
-0.0309479
-0.0309493
-0.0309218
-0.0308935
-0.0308617
-0.0308289
-0.0308394
-0.0308135
-0.0307504
-0.0306668
-0.0306021
-0.0306477
-0.0307341
-0.0308169
-0.0308863
-0.0309373
-0.0309689
-0.0309391
-0.0309431
-0.0309701
-0.0310057
-0.0310443
-0.0310464
-0.0309822
-0.0309617
-0.0309753
-0.0310532
-0.0310837
-0.0311083
-0.0310771
-0.030673
-0.0283238
0
0
-0.00942604
-0.0153593
-0.0157702
-0.0156799
-0.0184313
-0.022377
-0.025622
-0.0275877
-0.0287703
-0.029545
-0.0298947
-0.0300137
-0.0296131
-0.0303586
-0.0310376
-0.0312805
-0.0312384
-0.0312296
-0.0311193
-0.0310618
-0.0310409
-0.0310319
-0.0310248
-0.031011
-0.0309881
-0.0309474
-0.0308521
-0.0309044
-0.0309417
-0.030943
-0.0309282
-0.0309047
-0.0308704
-0.0308248
-0.0308211
-0.0308041
-0.0307948
-0.0307793
-0.0307716
-0.0307921
-0.0308318
-0.0308801
-0.031105
-0.0309941
-0.0310458
-0.0308939
-0.0308899
-0.0309371
-0.0309923
-0.0310657
-0.031105
-0.0309055
-0.0308638
-0.0308744
-0.0311117
-0.0311308
-0.0311198
-0.0310746
-0.0306652
-0.0283148
0
0
-0.00942721
-0.0153605
-0.015764
-0.015644
-0.0184284
-0.0224679
-0.0257198
-0.0276776
-0.0288939
-0.0300468
-0.0302133
-0.0302872
-0.0302832
-0.0308152
-0.0310635
-0.0311127
-0.0311039
-0.0310919
-0.0310654
-0.0310463
-0.0310375
-0.0310359
-0.0310375
-0.0310249
-0.0310055
-0.0309842
-0.0309619
-0.0309701
-0.0309539
-0.030946
-0.0309326
-0.0309038
-0.0308422
-0.0306698
-0.0307388
-0.0307067
-0.0307809
-0.0308213
-0.0308407
-0.0308599
-0.0308848
-0.030917
-0.0309653
-0.0310518
-0.0311968
-0.0307787
-0.0308115
-0.0308912
-0.0309691
-0.0311298
-0.0312746
-0.0307652
-0.0307326
-0.0306743
-0.0312633
-0.0311985
-0.0311414
-0.0310867
-0.0306654
-0.0283096
0
0
-0.00942759
-0.0153612
-0.015763
-0.0156389
-0.0184366
-0.0225085
-0.0258021
-0.0277682
-0.029128
-0.0443586
-0.0309991
-0.0306076
-0.0305569
-0.0307551
-0.0308976
-0.0309714
-0.0309992
-0.0310191
-0.0310265
-0.0310291
-0.0310324
-0.0310423
-0.0310714
-0.0310475
-0.0310215
-0.0310054
-0.031002
-0.0310257
-0.0309552
-0.0309477
-0.0309377
-0.0309004
-0.0307651
-0.0227476
-0.0304984
-0.0279594
-0.0306822
-0.0308264
-0.0308721
-0.0308946
-0.0309142
-0.0309366
-0.0309636
-0.0310046
-0.0310414
-0.0308879
-0.0308634
-0.0308681
-0.0308834
-0.0311352
-0.0311986
-0.030939
-0.030874
-0.0308788
-0.0310989
-0.0311228
-0.0311292
-0.0311227
-0.0306737
-0.0283059
0
0
-0.00942792
-0.015363
-0.0157656
-0.0156418
-0.0184441
-0.0225258
-0.0276935
-0.0278164
-0.0289818
-0.0301371
-0.0302983
-0.0304273
-0.0305523
-0.0306998
-0.0308198
-0.0308998
-0.0310334
-0.0309843
-0.0310053
-0.0310169
-0.0310253
-0.0310444
-0.0311261
-0.0310688
-0.0310232
-0.0310135
-0.0310143
-0.0310263
-0.030991
-0.0309722
-0.0309596
-0.0309259
-0.0308599
-0.0306843
-0.03076
-0.0307343
-0.0308215
-0.030874
-0.0309
-0.0309171
-0.0309344
-0.0309549
-0.0309634
-0.0309719
-0.0309728
-0.0309243
-0.0308893
-0.0308237
-0.0307045
-0.0312432
-0.0312625
-0.0310199
-0.0309636
-0.0309697
-0.0310364
-0.0310694
-0.0311179
-0.0311954
-0.03068
-0.028297
0
0
-0.00942846
-0.0153665
-0.015771
-0.0156468
-0.0184479
-0.0225266
-0.0258169
-0.0277437
-0.028886
-0.0296542
-0.0300687
-0.0303291
-0.0305165
-0.0306673
-0.0307841
-0.0308693
-0.0309291
-0.03097
-0.0309946
-0.0310073
-0.0310095
-0.0309925
-0.0308978
-0.030925
-0.0309605
-0.0310033
-0.0310216
-0.031004
-0.0309954
-0.0309877
-0.031284
-0.0309573
-0.0309191
-0.0308768
-0.0308742
-0.0308712
-0.0308898
-0.0309068
-0.0309196
-0.0309324
-0.0309538
-0.030994
-0.0309759
-0.0309621
-0.0309528
-0.0309352
-0.0309157
-0.0308839
-0.0308562
-0.0310111
-0.0309375
-0.0310162
-0.0309975
-0.0309946
-0.0310133
-0.031024
-0.0310024
-0.0308507
-0.0305699
-0.0282686
0
0
-0.00942946
-0.0153728
-0.0157809
-0.0156547
-0.0184514
-0.022523
-0.0257871
-0.0277624
-0.0288763
-0.0295813
-0.0299957
-0.0302722
-0.0304779
-0.0306386
-0.0307613
-0.0308516
-0.0309201
-0.0309664
-0.0309904
-0.0310013
-0.0310023
-0.0311025
-0.0309661
-0.030909
-0.0308958
-0.0310196
-0.0310721
-0.0310557
-0.0310261
-0.0310036
-0.0309897
-0.0309684
-0.0309481
-0.0309302
-0.0309218
-0.0309183
-0.030921
-0.0309256
-0.0309306
-0.0309389
-0.0309657
-0.0310521
-0.0309906
-0.0309558
-0.0309443
-0.0309366
-0.0309293
-0.0309211
-0.030921
-0.0309605
-0.0309498
-0.0309834
-0.030988
-0.0309932
-0.0310039
-0.0310146
-0.0310166
-0.0309468
-0.0305839
-0.0282623
0
0
-0.00943148
-0.0153847
-0.0157993
-0.0156674
-0.0184564
-0.0225205
-0.0257834
-0.0278516
-0.0289236
-0.029619
-0.029959
-0.0302152
-0.0304289
-0.0306038
-0.0307368
-0.0308328
-0.0309208
-0.0309789
-0.0309923
-0.0309952
-0.0309886
-0.0309807
-0.0309476
-0.0308547
-0.0307065
-0.0310968
-0.0312053
-0.0311471
-0.0310722
-0.0310227
-0.0309966
-0.0309784
-0.0309638
-0.030952
-0.0309439
-0.0309388
-0.0309363
-0.0309351
-0.0309336
-0.0309281
-0.0309028
-0.0308136
-0.0308821
-0.0309201
-0.0309297
-0.0309304
-0.0309292
-0.0309293
-0.0309341
-0.0309479
-0.0309545
-0.0309682
-0.0309774
-0.0309863
-0.0309977
-0.0310145
-0.0312353
-0.0309913
-0.0305967
-0.0282619
0
0
-0.00943624
-0.015408
-0.0158354
-0.015686
-0.0184614
-0.022508
-0.025711
-0.0274668
-0.0287007
-0.0296601
-0.0298494
-0.0301334
-0.0303768
-0.0305679
-0.03071
-0.0307891
-0.0309441
-0.0310374
-0.0309999
-0.0309843
-0.0309542
-0.0309564
-0.0309197
-0.0307538
-0.030236
-0.0313761
-0.0314102
-0.0312554
-0.0311152
-0.0310398
-0.031004
-0.0309855
-0.0309728
-0.030963
-0.0309551
-0.0309488
-0.0309438
-0.0309393
-0.0309344
-0.030927
-0.0309113
-0.03088
-0.0308999
-0.0309148
-0.0309193
-0.0309192
-0.0309189
-0.0309207
-0.0309261
-0.0309351
-0.0309447
-0.0309558
-0.0309665
-0.0309775
-0.0309904
-0.0310075
-0.0310289
-0.0309963
-0.0305992
-0.0282608
0
0
-0.00945082
-0.0154651
-0.015913
-0.0157027
-0.0184754
-0.0225143
-0.0257226
-0.0275781
-0.0287291
-0.0295129
-0.0299054
-0.0301887
-0.0304087
-0.0305729
-0.0313087
-0.0306368
-0.0310474
-0.0312152
-0.0310065
-0.0309741
-0.0309077
-0.03094
-0.0309479
-0.0308811
-0.0307538
-0.0311105
-0.0312047
-0.0311484
-0.0310771
-0.0310296
-0.0310043
-0.0309891
-0.0309782
-0.0309693
-0.0309613
-0.0309539
-0.0309467
-0.0309395
-0.030932
-0.0309242
-0.0309162
-0.030909
-0.0309103
-0.0309096
-0.0309053
-0.0309005
-0.030898
-0.0308993
-0.030905
-0.0309148
-0.0309268
-0.0309399
-0.030953
-0.0309662
-0.0309812
-0.0310005
-0.0310214
-0.0309929
-0.0305981
-0.0282587
0
0
-0.00950344
-0.0156219