# vtk DataFile Version 2.0
FlowField
ASCII
DATASET STRUCTURED_GRID
DIMENSIONS 62 47 32 
POINTS 93248 double
0 0 0
0.01 0 0
0.02 0 0
0.03 0 0
0.04 0 0
0.05 0 0
0.06 0 0
0.07 0 0
0.08 0 0
0.09 0 0
0.1 0 0
0.11 0 0
0.12 0 0
0.13 0 0
0.14 0 0
0.15 0 0
0.16 0 0
0.17 0 0
0.18 0 0
0.19 0 0
0.2 0 0
0.21 0 0
0.22 0 0
0.23 0 0
0.24 0 0
0.25 0 0
0.26 0 0
0.27 0 0
0.28 0 0
0.29 0 0
0.3 0 0
0.31 0 0
0.32 0 0
0.33 0 0
0.34 0 0
0.35 0 0
0.36 0 0
0.37 0 0
0.38 0 0
0.39 0 0
0.4 0 0
0.41 0 0
0.42 0 0
0.43 0 0
0.44 0 0
0.45 0 0
0.46 0 0
0.47 0 0
0.48 0 0
0.49 0 0
0.5 0 0
0.51 0 0
0.52 0 0
0.53 0 0
0.54 0 0
0.55 0 0
0.56 0 0
0.57 0 0
0.58 0 0
0.59 0 0
0.6 0 0
0.61 0 0
0 0.01 0
0.01 0.01 0
0.02 0.01 0
0.03 0.01 0
0.04 0.01 0
0.05 0.01 0
0.06 0.01 0
0.07 0.01 0
0.08 0.01 0
0.09 0.01 0
0.1 0.01 0
0.11 0.01 0
0.12 0.01 0
0.13 0.01 0
0.14 0.01 0
0.15 0.01 0
0.16 0.01 0
0.17 0.01 0
0.18 0.01 0
0.19 0.01 0
0.2 0.01 0
0.21 0.01 0
0.22 0.01 0
0.23 0.01 0
0.24 0.01 0
0.25 0.01 0
0.26 0.01 0
0.27 0.01 0
0.28 0.01 0
0.29 0.01 0
0.3 0.01 0
0.31 0.01 0
0.32 0.01 0
0.33 0.01 0
0.34 0.01 0
0.35 0.01 0
0.36 0.01 0
0.37 0.01 0
0.38 0.01 0
0.39 0.01 0
0.4 0.01 0
0.41 0.01 0
0.42 0.01 0
0.43 0.01 0
0.44 0.01 0
0.45 0.01 0
0.46 0.01 0
0.47 0.01 0
0.48 0.01 0
0.49 0.01 0
0.5 0.01 0
0.51 0.01 0
0.52 0.01 0
0.53 0.01 0
0.54 0.01 0
0.55 0.01 0
0.56 0.01 0
0.57 0.01 0
0.58 0.01 0
0.59 0.01 0
0.6 0.01 0
0.61 0.01 0
0 0.02 0
0.01 0.02 0
0.02 0.02 0
0.03 0.02 0
0.04 0.02 0
0.05 0.02 0
0.06 0.02 0
0.07 0.02 0
0.08 0.02 0
0.09 0.02 0
0.1 0.02 0
0.11 0.02 0
0.12 0.02 0
0.13 0.02 0
0.14 0.02 0
0.15 0.02 0
0.16 0.02 0
0.17 0.02 0
0.18 0.02 0
0.19 0.02 0
0.2 0.02 0
0.21 0.02 0
0.22 0.02 0
0.23 0.02 0
0.24 0.02 0
0.25 0.02 0
0.26 0.02 0
0.27 0.02 0
0.28 0.02 0
0.29 0.02 0
0.3 0.02 0
0.31 0.02 0
0.32 0.02 0
0.33 0.02 0
0.34 0.02 0
0.35 0.02 0
0.36 0.02 0
0.37 0.02 0
0.38 0.02 0
0.39 0.02 0
0.4 0.02 0
0.41 0.02 0
0.42 0.02 0
0.43 0.02 0
0.44 0.02 0
0.45 0.02 0
0.46 0.02 0
0.47 0.02 0
0.48 0.02 0
0.49 0.02 0
0.5 0.02 0
0.51 0.02 0
0.52 0.02 0
0.53 0.02 0
0.54 0.02 0
0.55 0.02 0
0.56 0.02 0
0.57 0.02 0
0.58 0.02 0
0.59 0.02 0
0.6 0.02 0
0.61 0.02 0
0 0.03 0
0.01 0.03 0
0.02 0.03 0
0.03 0.03 0
0.04 0.03 0
0.05 0.03 0
0.06 0.03 0
0.07 0.03 0
0.08 0.03 0
0.09 0.03 0
0.1 0.03 0
0.11 0.03 0
0.12 0.03 0
0.13 0.03 0
0.14 0.03 0
0.15 0.03 0
0.16 0.03 0
0.17 0.03 0
0.18 0.03 0
0.19 0.03 0
0.2 0.03 0
0.21 0.03 0
0.22 0.03 0
0.23 0.03 0
0.24 0.03 0
0.25 0.03 0
0.26 0.03 0
0.27 0.03 0
0.28 0.03 0
0.29 0.03 0
0.3 0.03 0
0.31 0.03 0
0.32 0.03 0
0.33 0.03 0
0.34 0.03 0
0.35 0.03 0
0.36 0.03 0
0.37 0.03 0
0.38 0.03 0
0.39 0.03 0
0.4 0.03 0
0.41 0.03 0
0.42 0.03 0
0.43 0.03 0
0.44 0.03 0
0.45 0.03 0
0.46 0.03 0
0.47 0.03 0
0.48 0.03 0
0.49 0.03 0
0.5 0.03 0
0.51 0.03 0
0.52 0.03 0
0.53 0.03 0
0.54 0.03 0
0.55 0.03 0
0.56 0.03 0
0.57 0.03 0
0.58 0.03 0
0.59 0.03 0
0.6 0.03 0
0.61 0.03 0
0 0.04 0
0.01 0.04 0
0.02 0.04 0
0.03 0.04 0
0.04 0.04 0
0.05 0.04 0
0.06 0.04 0
0.07 0.04 0
0.08 0.04 0
0.09 0.04 0
0.1 0.04 0
0.11 0.04 0
0.12 0.04 0
0.13 0.04 0
0.14 0.04 0
0.15 0.04 0
0.16 0.04 0
0.17 0.04 0
0.18 0.04 0
0.19 0.04 0
0.2 0.04 0
0.21 0.04 0
0.22 0.04 0
0.23 0.04 0
0.24 0.04 0
0.25 0.04 0
0.26 0.04 0
0.27 0.04 0
0.28 0.04 0
0.29 0.04 0
0.3 0.04 0
0.31 0.04 0
0.32 0.04 0
0.33 0.04 0
0.34 0.04 0
0.35 0.04 0
0.36 0.04 0
0.37 0.04 0
0.38 0.04 0
0.39 0.04 0
0.4 0.04 0
0.41 0.04 0
0.42 0.04 0
0.43 0.04 0
0.44 0.04 0
0.45 0.04 0
0.46 0.04 0
0.47 0.04 0
0.48 0.04 0
0.49 0.04 0
0.5 0.04 0
0.51 0.04 0
0.52 0.04 0
0.53 0.04 0
0.54 0.04 0
0.55 0.04 0
0.56 0.04 0
0.57 0.04 0
0.58 0.04 0
0.59 0.04 0
0.6 0.04 0
0.61 0.04 0
0 0.05 0
0.01 0.05 0
0.02 0.05 0
0.03 0.05 0
0.04 0.05 0
0.05 0.05 0
0.06 0.05 0
0.07 0.05 0
0.08 0.05 0
0.09 0.05 0
0.1 0.05 0
0.11 0.05 0
0.12 0.05 0
0.13 0.05 0
0.14 0.05 0
0.15 0.05 0
0.16 0.05 0
0.17 0.05 0
0.18 0.05 0
0.19 0.05 0
0.2 0.05 0
0.21 0.05 0
0.22 0.05 0
0.23 0.05 0
0.24 0.05 0
0.25 0.05 0
0.26 0.05 0
0.27 0.05 0
0.28 0.05 0
0.29 0.05 0
0.3 0.05 0
0.31 0.05 0
0.32 0.05 0
0.33 0.05 0
0.34 0.05 0
0.35 0.05 0
0.36 0.05 0
0.37 0.05 0
0.38 0.05 0
0.39 0.05 0
0.4 0.05 0
0.41 0.05 0
0.42 0.05 0
0.43 0.05 0
0.44 0.05 0
0.45 0.05 0
0.46 0.05 0
0.47 0.05 0
0.48 0.05 0
0.49 0.05 0
0.5 0.05 0
0.51 0.05 0
0.52 0.05 0
0.53 0.05 0
0.54 0.05 0
0.55 0.05 0
0.56 0.05 0
0.57 0.05 0
0.58 0.05 0
0.59 0.05 0
0.6 0.05 0
0.61 0.05 0
0 0.06 0
0.01 0.06 0
0.02 0.06 0
0.03 0.06 0
0.04 0.06 0
0.05 0.06 0
0.06 0.06 0
0.07 0.06 0
0.08 0.06 0
0.09 0.06 0
0.1 0.06 0
0.11 0.06 0
0.12 0.06 0
0.13 0.06 0
0.14 0.06 0
0.15 0.06 0
0.16 0.06 0
0.17 0.06 0
0.18 0.06 0
0.19 0.06 0
0.2 0.06 0
0.21 0.06 0
0.22 0.06 0
0.23 0.06 0
0.24 0.06 0
0.25 0.06 0
0.26 0.06 0
0.27 0.06 0
0.28 0.06 0
0.29 0.06 0
0.3 0.06 0
0.31 0.06 0
0.32 0.06 0
0.33 0.06 0
0.34 0.06 0
0.35 0.06 0
0.36 0.06 0
0.37 0.06 0
0.38 0.06 0
0.39 0.06 0
0.4 0.06 0
0.41 0.06 0
0.42 0.06 0
0.43 0.06 0
0.44 0.06 0
0.45 0.06 0
0.46 0.06 0
0.47 0.06 0
0.48 0.06 0
0.49 0.06 0
0.5 0.06 0
0.51 0.06 0
0.52 0.06 0
0.53 0.06 0
0.54 0.06 0
0.55 0.06 0
0.56 0.06 0
0.57 0.06 0
0.58 0.06 0
0.59 0.06 0
0.6 0.06 0
0.61 0.06 0
0 0.07 0
0.01 0.07 0
0.02 0.07 0
0.03 0.07 0
0.04 0.07 0
0.05 0.07 0
0.06 0.07 0
0.07 0.07 0
0.08 0.07 0
0.09 0.07 0
0.1 0.07 0
0.11 0.07 0
0.12 0.07 0
0.13 0.07 0
0.14 0.07 0
0.15 0.07 0
0.16 0.07 0
0.17 0.07 0
0.18 0.07 0
0.19 0.07 0
0.2 0.07 0
0.21 0.07 0
0.22 0.07 0
0.23 0.07 0
0.24 0.07 0
0.25 0.07 0
0.26 0.07 0
0.27 0.07 0
0.28 0.07 0
0.29 0.07 0
0.3 0.07 0
0.31 0.07 0
0.32 0.07 0
0.33 0.07 0
0.34 0.07 0
0.35 0.07 0
0.36 0.07 0
0.37 0.07 0
0.38 0.07 0
0.39 0.07 0
0.4 0.07 0
0.41 0.07 0
0.42 0.07 0
0.43 0.07 0
0.44 0.07 0
0.45 0.07 0
0.46 0.07 0
0.47 0.07 0
0.48 0.07 0
0.49 0.07 0
0.5 0.07 0
0.51 0.07 0
0.52 0.07 0
0.53 0.07 0
0.54 0.07 0
0.55 0.07 0
0.56 0.07 0
0.57 0.07 0
0.58 0.07 0
0.59 0.07 0
0.6 0.07 0
0.61 0.07 0
0 0.08 0
0.01 0.08 0
0.02 0.08 0
0.03 0.08 0
0.04 0.08 0
0.05 0.08 0
0.06 0.08 0
0.07 0.08 0
0.08 0.08 0
0.09 0.08 0
0.1 0.08 0
0.11 0.08 0
0.12 0.08 0
0.13 0.08 0
0.14 0.08 0
0.15 0.08 0
0.16 0.08 0
0.17 0.08 0
0.18 0.08 0
0.19 0.08 0
0.2 0.08 0
0.21 0.08 0
0.22 0.08 0
0.23 0.08 0
0.24 0.08 0
0.25 0.08 0
0.26 0.08 0
0.27 0.08 0
0.28 0.08 0
0.29 0.08 0
0.3 0.08 0
0.31 0.08 0
0.32 0.08 0
0.33 0.08 0
0.34 0.08 0
0.35 0.08 0
0.36 0.08 0
0.37 0.08 0
0.38 0.08 0
0.39 0.08 0
0.4 0.08 0
0.41 0.08 0
0.42 0.08 0
0.43 0.08 0
0.44 0.08 0
0.45 0.08 0
0.46 0.08 0
0.47 0.08 0
0.48 0.08 0
0.49 0.08 0
0.5 0.08 0
0.51 0.08 0
0.52 0.08 0
0.53 0.08 0
0.54 0.08 0
0.55 0.08 0
0.56 0.08 0
0.57 0.08 0
0.58 0.08 0
0.59 0.08 0
0.6 0.08 0
0.61 0.08 0
0 0.09 0
0.01 0.09 0
0.02 0.09 0
0.03 0.09 0
0.04 0.09 0
0.05 0.09 0
0.06 0.09 0
0.07 0.09 0
0.08 0.09 0
0.09 0.09 0
0.1 0.09 0
0.11 0.09 0
0.12 0.09 0
0.13 0.09 0
0.14 0.09 0
0.15 0.09 0
0.16 0.09 0
0.17 0.09 0
0.18 0.09 0
0.19 0.09 0
0.2 0.09 0
0.21 0.09 0
0.22 0.09 0
0.23 0.09 0
0.24 0.09 0
0.25 0.09 0
0.26 0.09 0
0.27 0.09 0
0.28 0.09 0
0.29 0.09 0
0.3 0.09 0
0.31 0.09 0
0.32 0.09 0
0.33 0.09 0
0.34 0.09 0
0.35 0.09 0
0.36 0.09 0
0.37 0.09 0
0.38 0.09 0
0.39 0.09 0
0.4 0.09 0
0.41 0.09 0
0.42 0.09 0
0.43 0.09 0
0.44 0.09 0
0.45 0.09 0
0.46 0.09 0
0.47 0.09 0
0.48 0.09 0
0.49 0.09 0
0.5 0.09 0
0.51 0.09 0
0.52 0.09 0
0.53 0.09 0
0.54 0.09 0
0.55 0.09 0
0.56 0.09 0
0.57 0.09 0
0.58 0.09 0
0.59 0.09 0
0.6 0.09 0
0.61 0.09 0
0 0.1 0
0.01 0.1 0
0.02 0.1 0
0.03 0.1 0
0.04 0.1 0
0.05 0.1 0
0.06 0.1 0
0.07 0.1 0
0.08 0.1 0
0.09 0.1 0
0.1 0.1 0
0.11 0.1 0
0.12 0.1 0
0.13 0.1 0
0.14 0.1 0
0.15 0.1 0
0.16 0.1 0
0.17 0.1 0
0.18 0.1 0
0.19 0.1 0
0.2 0.1 0
0.21 0.1 0
0.22 0.1 0
0.23 0.1 0
0.24 0.1 0
0.25 0.1 0
0.26 0.1 0
0.27 0.1 0
0.28 0.1 0
0.29 0.1 0
0.3 0.1 0
0.31 0.1 0
0.32 0.1 0
0.33 0.1 0
0.34 0.1 0
0.35 0.1 0
0.36 0.1 0
0.37 0.1 0
0.38 0.1 0
0.39 0.1 0
0.4 0.1 0
0.41 0.1 0
0.42 0.1 0
0.43 0.1 0
0.44 0.1 0
0.45 0.1 0
0.46 0.1 0
0.47 0.1 0
0.48 0.1 0
0.49 0.1 0
0.5 0.1 0
0.51 0.1 0
0.52 0.1 0
0.53 0.1 0
0.54 0.1 0
0.55 0.1 0
0.56 0.1 0
0.57 0.1 0
0.58 0.1 0
0.59 0.1 0
0.6 0.1 0
0.61 0.1 0
0 0.11 0
0.01 0.11 0
0.02 0.11 0
0.03 0.11 0
0.04 0.11 0
0.05 0.11 0
0.06 0.11 0
0.07 0.11 0
0.08 0.11 0
0.09 0.11 0
0.1 0.11 0
0.11 0.11 0
0.12 0.11 0
0.13 0.11 0
0.14 0.11 0
0.15 0.11 0
0.16 0.11 0
0.17 0.11 0
0.18 0.11 0
0.19 0.11 0
0.2 0.11 0
0.21 0.11 0
0.22 0.11 0
0.23 0.11 0
0.24 0.11 0
0.25 0.11 0
0.26 0.11 0
0.27 0.11 0
0.28 0.11 0
0.29 0.11 0
0.3 0.11 0
0.31 0.11 0
0.32 0.11 0
0.33 0.11 0
0.34 0.11 0
0.35 0.11 0
0.36 0.11 0
0.37 0.11 0
0.38 0.11 0
0.39 0.11 0
0.4 0.11 0
0.41 0.11 0
0.42 0.11 0
0.43 0.11 0
0.44 0.11 0
0.45 0.11 0
0.46 0.11 0
0.47 0.11 0
0.48 0.11 0
0.49 0.11 0
0.5 0.11 0
0.51 0.11 0
0.52 0.11 0
0.53 0.11 0
0.54 0.11 0
0.55 0.11 0
0.56 0.11 0
0.57 0.11 0
0.58 0.11 0
0.59 0.11 0
0.6 0.11 0
0.61 0.11 0
0 0.12 0
0.01 0.12 0
0.02 0.12 0
0.03 0.12 0
0.04 0.12 0
0.05 0.12 0
0.06 0.12 0
0.07 0.12 0
0.08 0.12 0
0.09 0.12 0
0.1 0.12 0
0.11 0.12 0
0.12 0.12 0
0.13 0.12 0
0.14 0.12 0
0.15 0.12 0
0.16 0.12 0
0.17 0.12 0
0.18 0.12 0
0.19 0.12 0
0.2 0.12 0
0.21 0.12 0
0.22 0.12 0
0.23 0.12 0
0.24 0.12 0
0.25 0.12 0
0.26 0.12 0
0.27 0.12 0
0.28 0.12 0
0.29 0.12 0
0.3 0.12 0
0.31 0.12 0
0.32 0.12 0
0.33 0.12 0
0.34 0.12 0
0.35 0.12 0
0.36 0.12 0
0.37 0.12 0
0.38 0.12 0
0.39 0.12 0
0.4 0.12 0
0.41 0.12 0
0.42 0.12 0
0.43 0.12 0
0.44 0.12 0
0.45 0.12 0
0.46 0.12 0
0.47 0.12 0
0.48 0.12 0
0.49 0.12 0
0.5 0.12 0
0.51 0.12 0
0.52 0.12 0
0.53 0.12 0
0.54 0.12 0
0.55 0.12 0
0.56 0.12 0
0.57 0.12 0
0.58 0.12 0
0.59 0.12 0
0.6 0.12 0
0.61 0.12 0
0 0.13 0
0.01 0.13 0
0.02 0.13 0
0.03 0.13 0
0.04 0.13 0
0.05 0.13 0
0.06 0.13 0
0.07 0.13 0
0.08 0.13 0
0.09 0.13 0
0.1 0.13 0
0.11 0.13 0
0.12 0.13 0
0.13 0.13 0
0.14 0.13 0
0.15 0.13 0
0.16 0.13 0
0.17 0.13 0
0.18 0.13 0
0.19 0.13 0
0.2 0.13 0
0.21 0.13 0
0.22 0.13 0
0.23 0.13 0
0.24 0.13 0
0.25 0.13 0
0.26 0.13 0
0.27 0.13 0
0.28 0.13 0
0.29 0.13 0
0.3 0.13 0
0.31 0.13 0
0.32 0.13 0
0.33 0.13 0
0.34 0.13 0
0.35 0.13 0
0.36 0.13 0
0.37 0.13 0
0.38 0.13 0
0.39 0.13 0
0.4 0.13 0
0.41 0.13 0
0.42 0.13 0
0.43 0.13 0
0.44 0.13 0
0.45 0.13 0
0.46 0.13 0
0.47 0.13 0
0.48 0.13 0
[...]
POINT_DATA 93248

SCALARS u double
LOOKUP_TABLE default
0
0
0
0
0
0
0
0
0
0
0
0
0
0
0
0
0
0
0
0
0
0
0
0
0.302795
0
0
0
0
0
0
0
0.0534152
0.228117
0
0
0
0
0
0
0
0
0
0
0
0
0
0.090622
0
0
0.0776935
0
0
0
0
0
0
0
0
0
0
0
0
0.418399
0.339701
0.2654
0.20516
0.160776
0.130455
0.112211
0.102381
0.0971593
0.0939634
0.0914595
0.0899222
0.0880308
0.0860059
0.0838615
0.0818273
0.0796108
0.0771954
0.0737452
0.07394
0.0724211
0.0697969
0.0674236
0.0651724
0.0630044
0.0608785
0.0587635
0.0566372
0.0544787
0.0522647
0.0500277
0.0482012
0.0459228
0.0432287
0.0406266
0.0386224
0.0362549
0.0353059
0.163934
0.0265077
0.0267571
0.0263919
0.0260061
0.0264179
0.0145971
0.0172703
0.0157915
0.0142167
0.0118655
0.00946873
0.0392283
0.00620272
0.00652869
-0.00489803
-0.00546646
0.0142455
-0.00846447
-0.0121654
-0.0181768
-0.0181768
0
0
0.492125
0.476547
0.451682
0.419972
0.389155
0.358977
0.332635
0.311879
0.296411
0.284622
0.27481
0.267791
0.260449
0.253627
0.246955
0.240793
0.234528
0.22956
0.339848
0.220408
0.212618
0.204364
0.198198
0.192078
0.186048
0.180079
0.174136
0.168193
0.162224
0.15618
0.149953
0.144655
0.138603
0.132045
0.125711
0.117961
0.108702
-0.0403525
0.0958228
0.0926235
0.0883892
0.0842164
0.0800256
0.0750772
0.0665323
0.0597129
0.0547822
0.0493392
0.0435931
0.0379684
0.0329529
0.0270281
0.0208246
0.0110202
0.00484864
-0.00218864
-0.00775997
-0.0153009
-0.023369
-0.023369
0
0
0.486417
0.487172
0.486919
0.479306
0.475258
0.459095
0.442254
0.424354
0.407002
0.401386
0.378519
0.365515
0.354989
0.345339
0.336581
0.328296
0.318997
0.310738
0.30192
0.293269
0.28573
0.277608
0.269615
0.261599
0.253589
0.245595
0.237615
0.229645
0.221685
0.213776
0.206036
0.197289
0.190375
0.21478
0.17451
0.165638
0.158061
0.153442
0.144221
0.134867
0.126361
0.136615
0.111363
0.10392
0.128785
0.0864723
0.077576
0.0493392
0.0617435
0.054611
0.0472875
0.0392283
0.0306209
0.0211552
0.0126586
0.00426733
-0.0053177
-0.0136842
-0.0219808
-0.0219808
0
0
0.479365
0.47615
0.482252
0.482703
0.48334
0.479126
0.470547
0.4581
0.443421
0.428614
0.414889
0.40186
0.390158
0.379439
0.36939
0.359322
0.350827
0.341474
0.338208
0.322386
0.313516
0.304781
0.296087
0.287386
0.278674
0.269964
0.26126
0.252562
0.243871
0.23519
0.226497
0.217524
0.209132
0.200296
0.191987
0.183788
0.176377
0.170075
0.161009
0.150958
0.141013
0.131505
0.122746
0.113982
0.104682
0.0953431
0.0866662
0.0783875
0.0697298
0.0612537
0.0527478
0.0439256
0.0347624
0.0253531
0.016148
0.0069674
-0.00254242
-0.0115447
-0.020344
-0.020344
0
0
0.476437
0.469243
0.46849
0.469578
0.471327
0.470793
0.46643
0.458032
0.446689
0.434178
0.42174
0.409731
0.398374
0.387515
0.377539
0.367886
0.358631
0.349262
0.33963
0.33021
0.321073
0.312087
0.30317
0.294277
0.285393
0.276515
0.267643
0.258775
0.2499
0.240999
0.232022
0.222933
0.214578
0.205796
0.197221
0.188919
0.181009
0.173257
0.164416
0.154814
0.145014
0.135359
0.126076
0.116973
0.108068
0.100288
0.0893779
0.0808392
0.0720381
0.0632235
0.0543848
0.045406
0.0362094
0.0268888
0.0176099
0.00838866
-0.000779987
-0.00969383
-0.0189522
-0.0189522
0
0
0.475163
0.464859
0.459703
0.458002
0.458271
0.458038
0.455409
0.449636
0.44079
0.430385
0.419533
0.40874
0.398219
0.388046
0.378318
0.369143
0.359515
0.350425
0.340788
0.331481
0.322385
0.313399
0.304466
0.295559
0.286667
0.277786
0.268915
0.260048
0.251172
0.242257
0.233228
0.223856
0.216199
0.207235
0.19848
0.189965
0.181628
0.173234
0.164392
0.155133
0.145673
0.136191
0.12678
0.117296
0.107608
0.0998761
0.0907753
0.0817173
0.0727223
0.0638052
0.054943
0.0460289
0.0368748
0.0276205
0.0184156
0.00932895
0.000540126
-0.00714527
-0.0129293
-0.0129293
0
0
0.474519
0.462365
0.454539
0.450399
0.449007
0.461286
0.446591
0.441397
0.433956
0.425034
0.415464
0.405726
0.395983
0.386238
0.376592
0.367949
0.358197
0.348871
0.339848
0.33096
0.322137
0.313295
0.304434
0.295571
0.286718
0.277876
0.269051
0.260236
0.251422
0.242613
0.233919
0.225604
0.215514
0.206911
0.198412
0.189935
0.181424
0.172793
0.163934
0.154851
0.145626
0.136975
0.127017
0.117665
0.108407
0.0999065
0.0909939
0.0819531
0.0729319
0.0640061
0.0552241
0.0464965
0.037324
0.0280865
0.0189644
0.00990406
0.000640479
-0.00875085
-0.00970533
-0.00970533
0
0
0.474145
0.46089
0.451453
0.445618
0.442725
0.441028
0.438767
0.434357
0.427862
0.419994
0.411402
0.402559
0.393449
0.383918
0.373311
0.240793
0.353258
0.345965
0.338208
0.329996
0.321563
0.312897
0.304119
0.29531
0.285393
0.277716
0.268957
0.260215
0.251477
0.242706
0.233977
0.225277
0.215993
0.207126
0.198466
0.189858
0.18121
0.172468
0.163596
0.154597
0.145498
0.136333
0.127148
0.117965
0.108867
0.0999954
0.0910405
0.0820029
0.0729441
0.0639451
0.0551613
0.0467576
0.037417
0.0282507
0.0193823
0.010753
0.00232686
-0.0070891
-0.0135985
-0.0135985
0
0
0.47391
0.459968
0.449524
0.442596
0.438686
0.436266
0.433533
0.429159
0.423062
0.415783
0.407826
0.400084
0.391216
0.382322
0.373395
0.365595
0.356389
0.347217
0.33842
0.3297
0.321221
0.312484
0.303712
0.294931
0.28622
0.277476
0.268776
0.260133
0.251529
0.24284
0.234012
0.225149
0.216167
0.2073
0.198532
0.189811
0.181064
0.172261
0.163388
0.15444
0.145425
0.136358
0.127268
0.118178
0.109126
0.100133
0.0911131
0.0820244
0.0728401
0.0635347
0.0541865
0.0461689
0.0365768
0.0278697
0.0194441
0.0110576
0.00262818
-0.0061525
-0.0145563
-0.0145563
0
0
0.473756
0.459366
0.448249
0.440627
0.436014
0.433025
0.429854
0.425315
0.419313
0.412331
0.404799
0.397076
0.388983
0.380732
0.372364
0.364376
0.355728
0.346866
0.338085
0.329489
0.320562
0.311865
0.303164
0.294419
0.285892
0.27715
0.26851
0.259995
0.251669
0.251166
0.234215
0.225141
0.216226
0.207374
0.198544
0.188918
0.180926
0.17211
0.163258
0.154356
0.145402
0.136406
0.12738
0.118342
0.109311
0.100288
0.0912386
0.0821138
0.0728203
0.0631435
0.0526094
-0.00950604
0.0344428
0.0273074
0.0194724
0.0112707
0.00287031
-0.00574626
-0.0145928
-0.0145928
0
0
0.473655
0.458968
0.447354
0.439322
0.434163
0.43069
0.427133
0.422375
0.416342
0.409496
0.402222
0.394719
0.387021
0.379227
0.370894
0.362728
0.354383
0.345867
0.337266
0.324616
0.319894
0.311291
0.302655
0.293982
0.285345
0.27668
0.268096
0.259661
0.251421
0.243322
0.233543
0.224913
0.216219
0.207423
0.198579
0.189726
0.179811
0.17201
0.163191
0.15433
0.145423
0.136484
0.127499
0.118492
0.109479
0.100463
0.0914321
0.0823633
0.0732349
0.0641073
0.0552405
0.0472436
0.0376051
0.0287019
0.0201623
0.0116939
0.00318569
-0.00545454
-0.0144242
-0.0144242
0
0
0.473596
0.458752
0.447034
0.438278
0.432697
0.428866
0.42502
0.420067
0.413957
0.407166
0.400025
0.392687
0.385226
0.377891
0.369243
0.361273
0.353167
0.344897
0.336543
0.328142
0.319545
0.310901
0.302224
0.293517
0.2848
0.276095
0.267503
0.259126
0.250944
0.241953
0.23457
0.225686
0.216643
0.207619
0.198647
0.189735
0.180875
0.172028
0.163206
0.154364
0.145482
0.136615
0.127644
0.118649
0.109649
0.100653
0.0916659
0.0826826
0.0736986
0.0648813
0.0563669
0.0480975
0.0388785
0.0297301
0.0208634
0.0121769
0.00354061
-0.00516928
-0.0142091
-0.0142091
0
0
0.473549
0.458563
0.446566
0.437616
0.431721
0.427574
0.423447
0.418287
0.412057
0.405269
0.398167
0.390882
0.383363
0.375357
0.368433
0.360525
0.352381
0.344104
0.33589
0.327562
0.319059
0.310444
0.301755
0.293
0.284182
0.275339
0.266634
0.258385
0.25155
0.243112
0.234723
0.225832
0.216752
0.207658
0.198617
0.189657
0.180776
0.171985
0.163236
0.15444
0.14552
0.136879
0.127829
0.118818
0.109819
0.100841
0.0918985
0.0829918
0.0740162
0.0652778
0.0567053
0.0481379
0.0392014
0.0302143
0.0213478
0.0126082
0.00388236
-0.00487776
-0.0139727
-0.0139727
0
0
0.473514
0.45842
0.446279
0.43703
0.430973
0.426599
0.422246
0.41691
0.410601
0.403691
0.396601
0.389376
0.38198
0.374376
0.367039
0.35935
0.351355
0.343118
0.335239
0.327012
0.318547
0.309954
0.301262
0.292458
0.283499
0.274335
0.265065
0.25607
0.254404
0.245257
0.235645
0.226173
0.216837
0.207611
0.19849
0.189494
0.180564
0.171895
0.16332
0.154637
0.145815
0.136975
0.127994
0.118985
0.10998
0.101002
0.0920807
0.0832638
0.0741721
0.0654996
0.0568598
0.0481763
0.0392859
0.0304534
0.0216813
0.0130295
0.00415908
-0.00457153
-0.0137029
-0.0137029
0
0
0.473491
0.45829
0.445968
0.436719
0.430444
0.425868
0.421318
0.415815
0.409378
0.402435
0.395331
0.388146
0.380853
0.37344
0.365992
0.358347
0.350433
0.342045
0.334775
0.32645
0.317982
0.309425
0.300773
0.291965
0.282883
0.273199
0.261825
0.24523
0.267384
0.249059
0.236883
0.226541
0.216859
0.207471
0.198236
0.189138
0.180239
0.171735
0.163564
0.155028
0.146198
0.137238
0.128209
0.119163
0.110125
0.101112
0.0921113
0.0831051
0.0745625
0.065788
0.0570606
0.0484158
0.0392539
0.0306091
0.0218966
0.0132774
0.00457747
-0.00418093
-0.013345
-0.013345
0
0
0.473507
0.458189
0.445763
0.436453
0.430048
0.425309
0.420585
0.414929
0.408379
0.401386
0.394266
0.387106
0.379885
0.372572
0.365153
0.357592
0.349943
0.342467
0.333498
0.325362
0.317162
0.308825
0.30032
0.291629
0.28269
0.273391
0.263661
0.254557
0.254633
0.245723
0.235779
0.22601
0.216488
0.207127
0.197809
0.188546
0.179515
0.171243
0.164336
0.155893
0.146835
0.137651
0.128482
0.119359
0.110264
0.101224
0.0922175
0.083258
0.074521
0.06591
0.0571768
0.0484052
0.0395393
0.0308475
0.0219908
0.0135134
0.00495868
-0.00366871
-0.0127658
-0.0127658
0
0
0.473598
0.458084
0.445649
0.436309
0.42983
0.424901
0.419992
0.414184
0.407539
0.400502
0.393353
0.386205
0.379043
0.371814
0.364445
0.356919
0.34927
0.341527
0.333203
0.32498
0.316763
0.308462
0.300039
0.291472
0.282752
0.273908
0.265114
0.25709
0.251153
0.243244
0.234362
0.225171
0.215921
0.206665
0.197228
0.187621
0.177898
0.169012
0.167234
0.157873
0.147897
0.138204
0.128785
0.119551
0.110382
0.101327
0.0923089
0.0833053
0.0743997
0.0660728
0.0572977
0.0484692
0.0397418
0.0313668
0.0215757
0.0135561
0.00526602
-0.00292227
-0.0115344
-0.0115344
0
0
0.473301
0.45826
0.445764
0.436393
0.429881
0.42502
0.419463
0.413551
0.406856
0.39981
0.392582
0.385417
0.378312
0.371187
0.363848
0.35631
0.348624
0.340822
0.332786
0.324669
0.31649
0.308229
0.299869
0.291408
0.282864
0.274304
0.268456
0.2576
0.250251
0.242136
0.233448
0.224477
0.215358
0.206169
0.196601
0.186546
0.17486
0.157
0.180418
0.161549
0.149109
0.138674
0.128987
0.119629
0.1105
0.101429
0.0924118
0.0833678
0.0741759
0.0663501
0.0573192
0.0484318
0.0396734
0.0309462
0.0218012
0.00287031
0.00533828
-0.00196382
-0.00825283
0
0
0
0.473394
0.45787
0.445616
0.436371
0.429955
0.424521
0.419272
0.413253
0.406488
0.399459
0.391955
0.384719
0.377675
0.370692
0.36329
0.355674
0.347951
0.34022
0.332349
0.324353
0.316249
0.308046
0.299748
0.291366
0.28293
0.274488
0.266062
0.257402
0.250151
0.241608
0.232858
0.223941
0.21482
0.197685
0.196185
0.186731
0.176801
0.16737
0.167672
0.15444
0.14821
0.138407
0.128906
0.119621
0.110499
0.101483
0.0925741
0.0838243
0.0753196
0.0653648
0.0567943
0.0482073
0.0395795
0.0309378
0.0222979
0.0139638
0.00552153
-0.00275688
-0.0114787
-0.0114787
0
0
0.473425
0.458097
0.445378
0.436369
0.430141
0.424105
0.418962
0.412976
0.406211
0.399345
0.391267
0.384077
0.377049
0.370101
0.362425
0.354751
0.347063
0.3396
0.331913
0.324041
0.316028
0.307892
0.29965
0.291322
0.282938
0.274602
0.266658
0.258704
0.24919
0.240752
0.232228
0.223562
0.21478
0.205995
0.19687
0.187693
0.178659
0.170434
0.16428
0.156185
0.14713
0.137879
0.128645
0.119493
0.110426
0.101463
0.0925891
0.0837949
0.0749884
0.0656814
0.0568251
0.0481559
0.0395377
0.0309448
0.0223521
0.0138496
0.00524574
-0.00346687
-0.0126614
-0.0126614
0
0
0.473444
0.458171
0.445838
0.435768
0.428486
0.424297
0.419185
0.413041
0.405909
0.39804
0.391421
0.383915
0.376238
0.336514
0.360475
0.353475
0.346079
0.339158
0.331554
0.323769
0.315834
0.307768
0.299573
0.29127
0.282841
0.274097
0.267207
0.258474
0.249431
0.240697
0.232052
0.223394
0.21474
0.206127
0.1973
0.188419
0.179671
0.171319
0.163405
0.155084
0.146345
0.137401
0.128339
0.119319
0.110318
0.101414
0.0925545
0.0837172
0.0748458
0.0658209
0.0568879
0.048148
0.0394877
0.0308912
0.0222068
0.0135722
0.00489125
-0.00395175
-0.0132013
-0.0132013
0
0
0.47344
0.458138
0.445627
0.435837
0.428842
0.423995
0.418983
0.412917
0.405797
0.398026
0.390793
0.383164
0.34715
0.368487
0.361339
0.354065
0.346872
0.338853
0.331247
0.323548
0.315704
0.307703
0.299541
0.291277
0.28294
0.274586
0.266628
0.258123
0.249406
0.240683
0.231963
0.22325
0.214642
0.206336
0.197665
0.188924
0.180196
0.17162
0.163158
0.154603
0.1459
0.13712
0.128011
0.11917
0.110255
0.101409
0.0925422
0.0836875
0.0748422
0.065919
0.0569368
0.048138
0.0393496
0.030687
0.0219215
0.0132805
0.00459217
-0.00430403
-0.0135338
-0.0135338
0
0
0.473433
0.458109
0.445545
0.435912
0.429095
0.424028
0.418962
0.413011
0.406066
0.397786
0.390591
0.383642
0.377381
0.369307
0.361891
0.354467
0.346995
0.3392
0.331438
0.323643
0.315764
0.307772
0.299568
0.291311
0.283029
0.274733
0.266456
0.257963
0.249355
0.240643
0.231842
0.222964
0.214198
0.207028
0.198164
0.189445
0.18055
0.171775
0.163077
0.154375
0.14562
0.136804
0.127907
0.119118
0.112306
0.101456
0.0925052
0.0836318
0.074859
0.0660398
0.0609884
0.0481404
0.0390232
0.0196613
0.021464
0.013046
0.00441442
-0.0046029
-0.0138031
-0.0138031
0
0
0.47343
0.458102
0.445544
0.435987
0.429259
0.424167
0.419041
0.413367
0.407582
0.396769
0.390486
0.383685
0.376997
0.369619
0.362217
0.354767
0.347141
0.339432
0.331652
0.323812
0.315919
0.307974
0.299606
0.291345
0.283111
0.274835
0.26651
0.260048
0.249419
0.24065
0.231718
0.222424
0.211745
0.210132
0.198614
0.190267
0.180855
0.171865
0.163034
0.154246
0.145441
0.136574
0.12769
0.118811
0.109883
0.101068
0.0922202
0.0833734
0.0746387
0.0657405
0.056365
0.0478042
0.0391688
0.0306003
0.0217822
0.0131396
0.0044808
-0.00492489
-0.0140518
-0.0140518
0
0
0.47343
0.458106
0.445566
0.436058
0.429417
0.424566
0.419032
0.413151
0.406361
0.397907
0.390684
0.38378
0.376888
0.369746
0.362458
0.355097
0.34717
0.339597
0.331838
0.323978
0.316077
0.308279
0.299562
0.291443
0.283268
0.274979
0.266588
0.257945
0.249365
0.240681
0.231792
0.222847
0.213921
0.207207
0.198337
0.189678
0.180708
0.171801
0.162959
0.154155
0.145334
0.136377
0.127471
0.118588
0.10969
0.100839
0.091955
0.0829559
0.0655345
0.065518
0.0558351
0.047719
0.0391373
0.0305107
0.021757
0.0131243
0.00470869
-0.00531239
-0.0141569
-0.0141569
0
0
0.473429
0.458109
0.445582
0.436093
0.429443
0.424404
0.419194
0.413068
0.406063
0.398476
0.391216
0.384173
0.377152
0.370004
0.362722
0.355309
0.347635
0.339905
0.332068
0.324133
0.316067
0.307686
0.300177
0.291957
0.283662
0.275202
0.266616
0.258113
0.249505
0.240921
0.231828
0.22322
0.214653
0.206509
0.197952
0.189282
0.180486
0.171663
0.162856
0.154084
0.145313
0.136163
0.127264
0.11843
0.109583
0.100738
0.0918846
0.0830233
0.0741741
0.0649211
0.0572204
0.0478955
0.0390872
0.0303332
0.0215021
0.0125466
0.00339895
-0.00410869
-0.0135985
-0.0135985
0
0
0.473425
0.458105
0.445586
0.436116
0.42949
0.424505
0.419585
0.413166
0.406148
0.398855
0.391696
0.384642
0.377563
0.370385
0.36309
0.355689
0.348055
0.340244
0.33234
0.324365
0.316337
0.308073
0.300773
0.292065
0.283864
0.275308
0.266675
0.258102
0.24952
0.240909
0.232155
0.223505
0.214912
0.206391
0.197777
0.189083
0.18032
0.171524
0.162726
0.153976
0.145369
0.135875
0.127133
0.118348
0.109519
0.10068
0.0918465
0.0830238
0.0742002
0.0652993
0.0568612
0.0479224
0.0390574
0.0302407
0.0214128
0.0125557
0.00371919
-0.0045731
-0.013733
-0.013733
0
0
0.473416
0.458084
0.445568
0.436127
0.42954
0.424644
0.420152
0.413156
0.406466
0.399378
0.392361
0.38529
0.378147
0.370901
0.363565
0.356251
0.348558
0.340609
0.332634
0.324616
0.316608
0.308457
0.300267
0.29197
0.283754
0.275019
0.26643
0.257948
0.249464
0.240925
0.232309
0.223676
0.215038
0.206395
0.19771
0.188978
0.180202
0.171393
0.162546
0.15362
0.144515
0.136365
0.127379
0.118407
0.109494
0.10063
0.0917982
0.082987
0.0741833
0.0653799
0.0566702
0.0478421
0.0390074
0.0301937
0.0214061
0.0126918
0.00375249
-0.0048296
-0.0139187
-0.0139187
0
0
0.473397
0.458028
0.445524
0.436135
0.429563
0.424509
0.419
0.41434
0.407703
0.406361
0.393493
0.386176
0.378855
0.371487
0.363959
0.356912
0.349004
0.340876
0.332904
0.324848
0.316961
0.308823
0.300454
0.291699
0.253826
0.27397
0.266006
0.257824
0.249478
0.241005
0.232436
0.223804
0.215132
0.206427
0.197689
0.188918
0.180117
0.171292
0.162442
0.153556
0.144663
0.136069
0.12722
0.118297
0.109399
0.100545
0.0917277
0.0829321
0.0741451
0.06536
0.0565832
0.0477753
0.0389591
0.0301552
0.0213742
0.012621
0.00383662
-0.0049139
-0.0140195
-0.0140195
0
0
0.473371
0.45787
0.447925
0.436216
0.429714
0.424794
0.419809
0.414468
0.408009
0.400902
0.393788
0.386611
0.379352
0.37205
0.363601
0.356898
0.348547
0.349262
0.333094
0.324988
0.317429
0.309221
0.300913
0.29256
0.284429
0.275654
0.266981
0.258403
0.249841
0.241254
0.232623
0.223946
0.215228
0.206472
0.197685
0.188875
0.180047
0.171208
0.162367
0.153534
0.144716
0.135917
0.127031
0.118121
0.109247
0.100422
0.0916358
0.08287
0.0741068
0.0653338
0.056545
0.0477367
0.0389236
0.0301244
0.0213429
0.0125749
0.00382066
-0.0049648
-0.0139187
-0.0140744
0
0
0.473449
0.457248
0.44503
0.436037
0.429822
0.425162
0.420469
0.414964
0.408534
0.401571
0.394477
0.387297
0.379949
0.372224
0.36318
0.234528
0.344955
0.339061
0.332545
0.325537
0.317309
0.309328
0.30121
0.293057
0.284699
0.27613
0.267497
0.258847
0.250191
0.241521
0.232827
0.224102
0.215337
0.206524
0.197685
0.188834
0.179973
0.171112
0.162272
0.153488
0.144732
0.135825
0.126842
0.117898
0.10904
0.100259
0.0915255
0.0828103
0.0740866
0.0653342
0.0565447
0.0477254
0.0389015
0.0301045
0.0213147
0.0125279
0.00374588
-0.00714527
-0.0141714
-0.0141714
0
0
0.474334
0.455125
0.444453
0.435972
0.430097
0.425697
0.421196
0.415718
0.409356
0.402494
0.395445
0.38828
0.380959
0.373437
0.36578
0.359193
0.350524
0.342194
0.334238
0.326352
0.318134
0.309919
0.301701
0.293561
0.284824
0.276368
0.267804
0.259163
0.250472
0.24176
0.233027
0.224268
0.215465
0.206576
0.197675
0.188779
0.179877
0.170973
0.162101
0.153365
0.144752
0.135679
0.126542
0.117555
0.108743
0.100045
0.0913989
0.0827661
0.0741067
0.0653864
0.0565935
0.0477447
0.0388877
0.0300991
0.0201674
0.0124885
0.00374262
-0.00505695
-0.0148329
-0.0142019
0
0
0.473555
0.457444
0.445435
0.436702
0.430827
0.426554
0.422197
0.416708
0.410458
0.40367
0.396658
0.389504
0.382202
0.374772
0.367306
0.360085
0.352021
0.343732
0.335473
0.327236
0.318913
0.310543
0.302102
0.293491
0.28544
0.276864
0.268195
0.259483
0.250731
0.241981
0.233224
0.224455
0.21564
0.206614
0.197639
0.188704
0.179756
0.170769
0.161735
0.152954
0.144596
0.135106
0.12583
0.116925
0.108284
0.0997682
0.0912643
0.0827601
0.0742091
0.0655345
0.0567245
0.0478125
0.0388818
0.0301899
0.0213386
0.0124914
0.00371301
-0.00509098
-0.0141842
-0.0141842
0
0
0.473462
0.458199
0.446181
0.437442
0.42983
0.427643
0.423896
0.418006
0.411909
0.405166
0.398154
0.39097
0.383602
0.372572
0.36846
0.360832
0.352854
0.344659
0.336372
0.328035
0.319639
0.311169
0.302641
0.294073
0.285672
0.277115
0.268456
0.259749
0.250921
0.242176
0.233409
0.224659
0.215912
0.206594
0.197572
0.188635
0.179642
0.170565
0.160966
0.151658
0.143127
0.133049
0.124207
0.115801
0.107593
0.0994737
0.0911547
0.0828205
0.0744971
0.0658774
0.0570092
0.0479888
0.0388722
0.0303069
0.0213061
0.0124227
0.00363602
-0.0051663
-0.0142437
-0.0142437
0
0
0.473524
0.458567
0.446744
0.438218
0.432716
0.428908
0.42505
0.419809
0.413755
0.407061
0.400032
0.392753
0.385266
0.377622
0.369812
0.361877
0.353777
0.345537
0.337205
0.328812
0.320366
0.311786
0.303174
0.29457
0.286003
0.277378
0.268696
0.259963
0.251166
0.242365
0.233559
0.224805
0.216274
0.206427
0.1976
0.18868
0.179606
0.170279
0.160316
0.148935
0.0267571
0.128395
0.121977
0.114357
0.106627
0.0994707
0.0911561
0.0828497
0.0752991
0.0666551
0.0575684
0.0484342
0.039418
0.0299016
0.0210501
0.0122571
0.00350611
-0.00527422
-0.0143259
-0.0143259
0
0
0.473598
0.458855
0.447291
0.439068
0.433891
0.430422
0.426869
0.422088
0.416142
0.409423
0.402297
0.394816
0.387108
0.379231
0.371207
0.363065
0.354812
0.346466
0.338053
0.329595
0.321111
0.31235
0.303639
0.294992
0.286361
0.277662