# vtk DataFile Version 2.0
FlowField
ASCII
DATASET STRUCTURED_GRID
DIMENSIONS 62 47 32 
POINTS 93248 double
0 0 0
0.01 0 0
0.02 0 0
0.03 0 0
0.04 0 0
0.05 0 0
0.06 0 0
0.07 0 0
0.08 0 0
0.09 0 0
0.1 0 0
0.11 0 0
0.12 0 0
0.13 0 0
0.14 0 0
0.15 0 0
0.16 0 0
0.17 0 0
0.18 0 0
0.19 0 0
0.2 0 0
0.21 0 0
0.22 0 0
0.23 0 0
0.24 0 0
0.25 0 0
0.26 0 0
0.27 0 0
0.28 0 0
0.29 0 0
0.3 0 0
0.31 0 0
0.32 0 0
0.33 0 0
0.34 0 0
0.35 0 0
0.36 0 0
0.37 0 0
0.38 0 0
0.39 0 0
0.4 0 0
0.41 0 0
0.42 0 0
0.43 0 0
0.44 0 0
0.45 0 0
0.46 0 0
0.47 0 0
0.48 0 0
0.49 0 0
0.5 0 0
0.51 0 0
0.52 0 0
0.53 0 0
0.54 0 0
0.55 0 0
0.56 0 0
0.57 0 0
0.58 0 0
0.59 0 0
0.6 0 0
0.61 0 0
0 0.01 0
0.01 0.01 0
0.02 0.01 0
0.03 0.01 0
0.04 0.01 0
0.05 0.01 0
0.06 0.01 0
0.07 0.01 0
0.08 0.01 0
0.09 0.01 0
0.1 0.01 0
0.11 0.01 0
0.12 0.01 0
0.13 0.01 0
0.14 0.01 0
0.15 0.01 0
0.16 0.01 0
0.17 0.01 0
0.18 0.01 0
0.19 0.01 0
0.2 0.01 0
0.21 0.01 0
0.22 0.01 0
0.23 0.01 0
0.24 0.01 0
0.25 0.01 0
0.26 0.01 0
0.27 0.01 0
0.28 0.01 0
0.29 0.01 0
0.3 0.01 0
0.31 0.01 0
0.32 0.01 0
0.33 0.01 0
0.34 0.01 0
0.35 0.01 0
0.36 0.01 0
0.37 0.01 0
0.38 0.01 0
0.39 0.01 0
0.4 0.01 0
0.41 0.01 0
0.42 0.01 0
0.43 0.01 0
0.44 0.01 0
0.45 0.01 0
0.46 0.01 0
0.47 0.01 0
0.48 0.01 0
0.49 0.01 0
0.5 0.01 0
0.51 0.01 0
0.52 0.01 0
0.53 0.01 0
0.54 0.01 0
0.55 0.01 0
0.56 0.01 0
0.57 0.01 0
0.58 0.01 0
0.59 0.01 0
0.6 0.01 0
0.61 0.01 0
0 0.02 0
0.01 0.02 0
0.02 0.02 0
0.03 0.02 0
0.04 0.02 0
0.05 0.02 0
0.06 0.02 0
0.07 0.02 0
0.08 0.02 0
0.09 0.02 0
0.1 0.02 0
0.11 0.02 0
0.12 0.02 0
0.13 0.02 0
0.14 0.02 0
0.15 0.02 0
0.16 0.02 0
0.17 0.02 0
0.18 0.02 0
0.19 0.02 0
0.2 0.02 0
0.21 0.02 0
0.22 0.02 0
0.23 0.02 0
0.24 0.02 0
0.25 0.02 0
0.26 0.02 0
0.27 0.02 0
0.28 0.02 0
0.29 0.02 0
0.3 0.02 0
0.31 0.02 0
0.32 0.02 0
0.33 0.02 0
0.34 0.02 0
0.35 0.02 0
0.36 0.02 0
0.37 0.02 0
0.38 0.02 0
0.39 0.02 0
0.4 0.02 0
0.41 0.02 0
0.42 0.02 0
0.43 0.02 0
0.44 0.02 0
0.45 0.02 0
0.46 0.02 0
0.47 0.02 0
0.48 0.02 0
0.49 0.02 0
0.5 0.02 0
0.51 0.02 0
0.52 0.02 0
0.53 0.02 0
0.54 0.02 0
0.55 0.02 0
0.56 0.02 0
0.57 0.02 0
0.58 0.02 0
0.59 0.02 0
0.6 0.02 0
0.61 0.02 0
0 0.03 0
0.01 0.03 0
0.02 0.03 0
0.03 0.03 0
0.04 0.03 0
0.05 0.03 0
0.06 0.03 0
0.07 0.03 0
0.08 0.03 0
0.09 0.03 0
0.1 0.03 0
0.11 0.03 0
0.12 0.03 0
0.13 0.03 0
0.14 0.03 0
0.15 0.03 0
0.16 0.03 0
0.17 0.03 0
0.18 0.03 0
0.19 0.03 0
0.2 0.03 0
0.21 0.03 0
0.22 0.03 0
0.23 0.03 0
0.24 0.03 0
0.25 0.03 0
0.26 0.03 0
0.27 0.03 0
0.28 0.03 0
0.29 0.03 0
0.3 0.03 0
0.31 0.03 0
0.32 0.03 0
0.33 0.03 0
0.34 0.03 0
0.35 0.03 0
0.36 0.03 0
0.37 0.03 0
0.38 0.03 0
0.39 0.03 0
0.4 0.03 0
0.41 0.03 0
0.42 0.03 0
0.43 0.03 0
0.44 0.03 0
0.45 0.03 0
0.46 0.03 0
0.47 0.03 0
0.48 0.03 0
0.49 0.03 0
0.5 0.03 0
0.51 0.03 0
0.52 0.03 0
0.53 0.03 0
0.54 0.03 0
0.55 0.03 0
0.56 0.03 0
0.57 0.03 0
0.58 0.03 0
0.59 0.03 0
0.6 0.03 0
0.61 0.03 0
0 0.04 0
0.01 0.04 0
0.02 0.04 0
0.03 0.04 0
0.04 0.04 0
0.05 0.04 0
0.06 0.04 0
0.07 0.04 0
0.08 0.04 0
0.09 0.04 0
0.1 0.04 0
0.11 0.04 0
0.12 0.04 0
0.13 0.04 0
0.14 0.04 0
0.15 0.04 0
0.16 0.04 0
0.17 0.04 0
0.18 0.04 0
0.19 0.04 0
0.2 0.04 0
0.21 0.04 0
0.22 0.04 0
0.23 0.04 0
0.24 0.04 0
0.25 0.04 0
0.26 0.04 0
0.27 0.04 0
0.28 0.04 0
0.29 0.04 0
0.3 0.04 0
0.31 0.04 0
0.32 0.04 0
0.33 0.04 0
0.34 0.04 0
0.35 0.04 0
0.36 0.04 0
0.37 0.04 0
0.38 0.04 0
0.39 0.04 0
0.4 0.04 0
0.41 0.04 0
0.42 0.04 0
0.43 0.04 0
0.44 0.04 0
0.45 0.04 0
0.46 0.04 0
0.47 0.04 0
0.48 0.04 0
0.49 0.04 0
0.5 0.04 0
0.51 0.04 0
0.52 0.04 0
0.53 0.04 0
0.54 0.04 0
0.55 0.04 0
0.56 0.04 0
0.57 0.04 0
0.58 0.04 0
0.59 0.04 0
0.6 0.04 0
0.61 0.04 0
0 0.05 0
0.01 0.05 0
0.02 0.05 0
0.03 0.05 0
0.04 0.05 0
0.05 0.05 0
0.06 0.05 0
0.07 0.05 0
0.08 0.05 0
0.09 0.05 0
0.1 0.05 0
0.11 0.05 0
0.12 0.05 0
0.13 0.05 0
0.14 0.05 0
0.15 0.05 0
0.16 0.05 0
0.17 0.05 0
0.18 0.05 0
0.19 0.05 0
0.2 0.05 0
0.21 0.05 0
0.22 0.05 0
0.23 0.05 0
0.24 0.05 0
0.25 0.05 0
0.26 0.05 0
0.27 0.05 0
0.28 0.05 0
0.29 0.05 0
0.3 0.05 0
0.31 0.05 0
0.32 0.05 0
0.33 0.05 0
0.34 0.05 0
0.35 0.05 0
0.36 0.05 0
0.37 0.05 0
0.38 0.05 0
0.39 0.05 0
0.4 0.05 0
0.41 0.05 0
0.42 0.05 0
0.43 0.05 0
0.44 0.05 0
0.45 0.05 0
0.46 0.05 0
0.47 0.05 0
0.48 0.05 0
0.49 0.05 0
0.5 0.05 0
0.51 0.05 0
0.52 0.05 0
0.53 0.05 0
0.54 0.05 0
0.55 0.05 0
0.56 0.05 0
0.57 0.05 0
0.58 0.05 0
0.59 0.05 0
0.6 0.05 0
0.61 0.05 0
0 0.06 0
0.01 0.06 0
0.02 0.06 0
0.03 0.06 0
0.04 0.06 0
0.05 0.06 0
0.06 0.06 0
0.07 0.06 0
0.08 0.06 0
0.09 0.06 0
0.1 0.06 0
0.11 0.06 0
0.12 0.06 0
0.13 0.06 0
0.14 0.06 0
0.15 0.06 0
0.16 0.06 0
0.17 0.06 0
0.18 0.06 0
0.19 0.06 0
0.2 0.06 0
0.21 0.06 0
0.22 0.06 0
0.23 0.06 0
0.24 0.06 0
0.25 0.06 0
0.26 0.06 0
0.27 0.06 0
0.28 0.06 0
0.29 0.06 0
0.3 0.06 0
0.31 0.06 0
0.32 0.06 0
0.33 0.06 0
0.34 0.06 0
0.35 0.06 0
0.36 0.06 0
0.37 0.06 0
0.38 0.06 0
0.39 0.06 0
0.4 0.06 0
0.41 0.06 0
0.42 0.06 0
0.43 0.06 0
0.44 0.06 0
0.45 0.06 0
0.46 0.06 0
0.47 0.06 0
0.48 0.06 0
0.49 0.06 0
0.5 0.06 0
0.51 0.06 0
0.52 0.06 0
0.53 0.06 0
0.54 0.06 0
0.55 0.06 0
0.56 0.06 0
0.57 0.06 0
0.58 0.06 0
0.59 0.06 0
0.6 0.06 0
0.61 0.06 0
0 0.07 0
0.01 0.07 0
0.02 0.07 0
0.03 0.07 0
0.04 0.07 0
0.05 0.07 0
0.06 0.07 0
0.07 0.07 0
0.08 0.07 0
0.09 0.07 0
0.1 0.07 0
0.11 0.07 0
0.12 0.07 0
0.13 0.07 0
0.14 0.07 0
0.15 0.07 0
0.16 0.07 0
0.17 0.07 0
0.18 0.07 0
0.19 0.07 0
0.2 0.07 0
0.21 0.07 0
0.22 0.07 0
0.23 0.07 0
0.24 0.07 0
0.25 0.07 0
0.26 0.07 0
0.27 0.07 0
0.28 0.07 0
0.29 0.07 0
0.3 0.07 0
0.31 0.07 0
0.32 0.07 0
0.33 0.07 0
0.34 0.07 0
0.35 0.07 0
0.36 0.07 0
0.37 0.07 0
0.38 0.07 0
0.39 0.07 0
0.4 0.07 0
0.41 0.07 0
0.42 0.07 0
0.43 0.07 0
0.44 0.07 0
0.45 0.07 0
0.46 0.07 0
0.47 0.07 0
0.48 0.07 0
0.49 0.07 0
0.5 0.07 0
0.51 0.07 0
0.52 0.07 0
0.53 0.07 0
0.54 0.07 0
0.55 0.07 0
0.56 0.07 0
0.57 0.07 0
0.58 0.07 0
0.59 0.07 0
0.6 0.07 0
0.61 0.07 0
0 0.08 0
0.01 0.08 0
0.02 0.08 0
0.03 0.08 0
0.04 0.08 0
0.05 0.08 0
0.06 0.08 0
0.07 0.08 0
0.08 0.08 0
0.09 0.08 0
0.1 0.08 0
0.11 0.08 0
0.12 0.08 0
0.13 0.08 0
0.14 0.08 0
0.15 0.08 0
0.16 0.08 0
0.17 0.08 0
0.18 0.08 0
0.19 0.08 0
0.2 0.08 0
0.21 0.08 0
0.22 0.08 0
0.23 0.08 0
0.24 0.08 0
0.25 0.08 0
0.26 0.08 0
0.27 0.08 0
0.28 0.08 0
0.29 0.08 0
0.3 0.08 0
0.31 0.08 0
0.32 0.08 0
0.33 0.08 0
0.34 0.08 0
0.35 0.08 0
0.36 0.08 0
0.37 0.08 0
0.38 0.08 0
0.39 0.08 0
0.4 0.08 0
0.41 0.08 0
0.42 0.08 0
0.43 0.08 0
0.44 0.08 0
0.45 0.08 0
0.46 0.08 0
0.47 0.08 0
0.48 0.08 0
0.49 0.08 0
0.5 0.08 0
0.51 0.08 0
0.52 0.08 0
0.53 0.08 0
0.54 0.08 0
0.55 0.08 0
0.56 0.08 0
0.57 0.08 0
0.58 0.08 0
0.59 0.08 0
0.6 0.08 0
0.61 0.08 0
0 0.09 0
0.01 0.09 0
0.02 0.09 0
0.03 0.09 0
0.04 0.09 0
0.05 0.09 0
0.06 0.09 0
0.07 0.09 0
0.08 0.09 0
0.09 0.09 0
0.1 0.09 0
0.11 0.09 0
0.12 0.09 0
0.13 0.09 0
0.14 0.09 0
0.15 0.09 0
0.16 0.09 0
0.17 0.09 0
0.18 0.09 0
0.19 0.09 0
0.2 0.09 0
0.21 0.09 0
0.22 0.09 0
0.23 0.09 0
0.24 0.09 0
0.25 0.09 0
0.26 0.09 0
0.27 0.09 0
0.28 0.09 0
0.29 0.09 0
0.3 0.09 0
0.31 0.09 0
0.32 0.09 0
0.33 0.09 0
0.34 0.09 0
0.35 0.09 0
0.36 0.09 0
0.37 0.09 0
0.38 0.09 0
0.39 0.09 0
0.4 0.09 0
0.41 0.09 0
0.42 0.09 0
0.43 0.09 0
0.44 0.09 0
0.45 0.09 0
0.46 0.09 0
0.47 0.09 0
0.48 0.09 0
0.49 0.09 0
0.5 0.09 0
0.51 0.09 0
0.52 0.09 0
0.53 0.09 0
0.54 0.09 0
0.55 0.09 0
0.56 0.09 0
0.57 0.09 0
0.58 0.09 0
0.59 0.09 0
0.6 0.09 0
0.61 0.09 0
0 0.1 0
0.01 0.1 0
0.02 0.1 0
0.03 0.1 0
0.04 0.1 0
0.05 0.1 0
0.06 0.1 0
0.07 0.1 0
0.08 0.1 0
0.09 0.1 0
0.1 0.1 0
0.11 0.1 0
0.12 0.1 0
0.13 0.1 0
0.14 0.1 0
0.15 0.1 0
0.16 0.1 0
0.17 0.1 0
0.18 0.1 0
0.19 0.1 0
0.2 0.1 0
0.21 0.1 0
0.22 0.1 0
0.23 0.1 0
0.24 0.1 0
0.25 0.1 0
0.26 0.1 0
0.27 0.1 0
0.28 0.1 0
0.29 0.1 0
0.3 0.1 0
0.31 0.1 0
0.32 0.1 0
0.33 0.1 0
0.34 0.1 0
0.35 0.1 0
0.36 0.1 0
0.37 0.1 0
0.38 0.1 0
0.39 0.1 0
0.4 0.1 0
0.41 0.1 0
0.42 0.1 0
0.43 0.1 0
0.44 0.1 0
0.45 0.1 0
0.46 0.1 0
0.47 0.1 0
0.48 0.1 0
0.49 0.1 0
0.5 0.1 0
0.51 0.1 0
0.52 0.1 0
0.53 0.1 0
0.54 0.1 0
0.55 0.1 0
0.56 0.1 0
0.57 0.1 0
0.58 0.1 0
0.59 0.1 0
0.6 0.1 0
0.61 0.1 0
0 0.11 0
0.01 0.11 0
0.02 0.11 0
0.03 0.11 0
0.04 0.11 0
0.05 0.11 0
0.06 0.11 0
0.07 0.11 0
0.08 0.11 0
0.09 0.11 0
0.1 0.11 0
0.11 0.11 0
0.12 0.11 0
0.13 0.11 0
0.14 0.11 0
0.15 0.11 0
0.16 0.11 0
0.17 0.11 0
0.18 0.11 0
0.19 0.11 0
0.2 0.11 0
0.21 0.11 0
0.22 0.11 0
0.23 0.11 0
0.24 0.11 0
0.25 0.11 0
0.26 0.11 0
0.27 0.11 0
0.28 0.11 0
0.29 0.11 0
0.3 0.11 0
0.31 0.11 0
0.32 0.11 0
0.33 0.11 0
0.34 0.11 0
0.35 0.11 0
0.36 0.11 0
0.37 0.11 0
0.38 0.11 0
0.39 0.11 0
0.4 0.11 0
0.41 0.11 0
0.42 0.11 0
0.43 0.11 0
0.44 0.11 0
0.45 0.11 0
0.46 0.11 0
0.47 0.11 0
0.48 0.11 0
0.49 0.11 0
0.5 0.11 0
0.51 0.11 0
0.52 0.11 0
0.53 0.11 0
0.54 0.11 0
0.55 0.11 0
0.56 0.11 0
0.57 0.11 0
0.58 0.11 0
0.59 0.11 0
0.6 0.11 0
0.61 0.11 0
0 0.12 0
0.01 0.12 0
0.02 0.12 0
0.03 0.12 0
0.04 0.12 0
0.05 0.12 0
0.06 0.12 0
0.07 0.12 0
0.08 0.12 0
0.09 0.12 0
0.1 0.12 0
0.11 0.12 0
0.12 0.12 0
0.13 0.12 0
0.14 0.12 0
0.15 0.12 0
0.16 0.12 0
0.17 0.12 0
0.18 0.12 0
0.19 0.12 0
0.2 0.12 0
0.21 0.12 0
0.22 0.12 0
0.23 0.12 0
0.24 0.12 0
0.25 0.12 0
0.26 0.12 0
0.27 0.12 0
0.28 0.12 0
0.29 0.12 0
0.3 0.12 0
0.31 0.12 0
0.32 0.12 0
0.33 0.12 0
0.34 0.12 0
0.35 0.12 0
0.36 0.12 0
0.37 0.12 0
0.38 0.12 0
0.39 0.12 0
0.4 0.12 0
0.41 0.12 0
0.42 0.12 0
0.43 0.12 0
0.44 0.12 0
0.45 0.12 0
0.46 0.12 0
0.47 0.12 0
0.48 0.12 0
0.49 0.12 0
0.5 0.12 0
0.51 0.12 0
0.52 0.12 0
0.53 0.12 0
0.54 0.12 0
0.55 0.12 0
0.56 0.12 0
0.57 0.12 0
0.58 0.12 0
0.59 0.12 0
0.6 0.12 0
0.61 0.12 0
0 0.13 0
0.01 0.13 0
0.02 0.13 0
0.03 0.13 0
0.04 0.13 0
0.05 0.13 0
0.06 0.13 0
0.07 0.13 0
0.08 0.13 0
0.09 0.13 0
0.1 0.13 0
0.11 0.13 0
0.12 0.13 0
0.13 0.13 0
0.14 0.13 0
0.15 0.13 0
0.16 0.13 0
0.17 0.13 0
0.18 0.13 0
0.19 0.13 0
0.2 0.13 0
0.21 0.13 0
0.22 0.13 0
0.23 0.13 0
0.24 0.13 0
0.25 0.13 0
0.26 0.13 0
0.27 0.13 0
0.28 0.13 0
0.29 0.13 0
0.3 0.13 0
0.31 0.13 0
0.32 0.13 0
0.33 0.13 0
0.34 0.13 0
0.35 0.13 0
0.36 0.13 0
0.37 0.13 0
0.38 0.13 0
0.39 0.13 0
0.4 0.13 0
0.41 0.13 0
0.42 0.13 0
0.43 0.13 0
0.44 0.13 0
0.45 0.13 0
0.46 0.13 0
0.47 0.13 0
0.48 0.13 0
[...]
POINT_DATA 93248

SCALARS u double
LOOKUP_TABLE default
0
0
0
0
0
0
0
0
0
0
0
0
0
0
0
0
0
0
0
0
0
0
0
0
0.291962
0
0
0
0
0
0
0
0.0247806
0.22185
0
0
0
0
0
0
0
0
0
0
0
0
0
0.0670755
0
0
0.0663997
0
0
0
0
0
0
0
0
0
0
0
0
0.411362
0.328602
0.249259
0.184067
0.135759
0.100287
0.0752541
0.0581356
0.0462545
0.037943
0.0328951
0.032733
0.0325158
0.0324353
0.0324107
0.032561
0.032027
0.0308655
0.0282487
0.0332442
0.0337043
0.0299125
0.0287783
0.0278884
0.026971
0.026032
0.0250678
0.0240486
0.0229179
0.0216075
0.0202971
0.02046
0.0191653
0.0170448
0.0153419
0.0156326
0.013025
0.00991562
0.153266
0.00412264
0.00736825
0.0085967
0.0108252
0.0167354
-0.0127852
-0.000952648
-0.000603285
-0.00075332
-0.00238305
-0.00405851
0.012025
-0.0048485
0.00123751
-0.0270699
-0.02266
-0.00988326
-0.0202841
-0.0247821
-0.0326128
-0.0326128
0
0
0.485407
0.463922
0.433255
0.394226
0.356401
0.314026
0.274077
0.239216
0.211313
0.190101
0.174601
0.16792
0.161396
0.15685
0.153341
0.150803
0.147718
0.14641
0.324703
0.145771
0.141876
0.128446
0.1263
0.122835
0.119103
0.115294
0.111433
0.1075
0.103453
0.0991942
0.0945511
0.0924658
0.0879977
0.0832857
0.0795026
0.0732022
0.067318
-0.0143209
0.0596265
0.0558726
0.0518461
0.0497377
0.0484028
0.0454113
0.0306727
0.0234342
0.0215948
0.0182665
0.0148005
0.0120206
0.00507713
0.00237414
-0.00246079
-0.0194452
-0.0246439
-0.0317779
-0.0349249
-0.0433352
-0.0529419
-0.0529419
0
0
0.479506
0.474163
0.468312
0.451539
0.446593
0.418615
0.391759
0.366089
0.342313
0.349638
0.304846
0.286105
0.27407
0.264748
0.257651
0.251838
0.244583
0.239208
0.23283
0.224937
0.220692
0.212959
0.207171
0.201425
0.195513
0.189462
0.183312
0.177095
0.17087
0.16482
0.159283
0.151242
0.145263
0.206014
0.134006
0.125906
0.119619
0.115662
0.10918
0.101667
0.0942843
0.1256
0.0816235
0.074294
0.119171
0.0531738
0.0450438
0.0182665
0.0323734
0.0266661
0.0192413
0.012025
0.00303731
-0.00916941
-0.0184384
-0.0273816
-0.039064
-0.0478635
-0.0570301
-0.0570301
0
0
0.472395
0.462267
0.465516
0.458504
0.454188
0.443776
0.430952
0.416939
0.402422
0.387508
0.373223
0.357914
0.344346
0.332452
0.322181
0.312128
0.305396
0.297399
0.32256
0.27984
0.271715
0.26373
0.25629
0.249012
0.2417
0.23429
0.226786
0.219216
0.211618
0.204032
0.196335
0.187668
0.179855
0.171681
0.16461
0.157235
0.150324
0.144613
0.136739
0.127979
0.118669
0.109087
0.100403
0.0910873
0.0804065
0.069729
0.0610162
0.0532385
0.0450965
0.0369237
0.0282158
0.0190579
0.00896454
-0.00197778
-0.0125689
-0.0231615
-0.0345725
-0.044832
-0.0549534
-0.0549534
0
0
0.469814
0.457125
0.451315
0.446169
0.442314
0.437084
0.430776
0.423602
0.415359
0.406117
0.396106
0.385094
0.373734
0.362221
0.352817
0.342415
0.333262
0.324217
0.314392
0.305147
0.296419
0.288
0.279841
0.271805
0.263786
0.255702
0.247551
0.239339
0.231059
0.22265
0.213929
0.204738
0.197061
0.188506
0.180283
0.172308
0.164599
0.157049
0.148586
0.139404
0.129659
0.119563
0.109679
0.0997474
0.090061
0.0864868
0.0694785
0.0606837
0.0516013
0.0423597
0.0328873
0.0231013
0.0128787
0.00237116
-0.00815677
-0.0185808
-0.0287693
-0.0382907
-0.0488116
-0.0488116
0
0
0.468667
0.453135
0.442384
0.43438
0.428341
0.422784
0.417799
0.413018
0.407515
0.401395
0.394693
0.387261
0.378902
0.369832
0.360888
0.352111
0.34229
0.333925
0.32383
0.31455
0.305767
0.297265
0.288914
0.280634
0.272378
0.264037
0.255654
0.247229
0.238726
0.230064
0.221044
0.211206
0.204636
0.195468
0.1866
0.178091
0.169755
0.161325
0.152467
0.143147
0.133418
0.123365
0.113127
0.102516
0.0914723
0.0840432
0.0741563
0.0643255
0.0546025
0.0449041
0.035169
0.0253193
0.0152501
0.00511992
-0.00489301
-0.0145511
-0.0231863
-0.0287112
-0.0288089
-0.0288089
0
0
0.468051
0.450694
0.437043
0.426281
0.417946
0.452588
0.405918
0.399728
0.394417
0.389545
0.384788
0.380052
0.374042
0.366878
0.358922
0.351574
0.342298
0.333443
0.324703
0.316196
0.307948
0.299738
0.291508
0.283251
0.274991
0.266599
0.258223
0.249829
0.241379
0.232868
0.224494
0.216831
0.205164
0.196471
0.18804
0.179596
0.171048
0.162301
0.153266
0.143927
0.134316
0.126528
0.114334
0.104012
0.0938539
0.08506
0.0755503
0.0657519
0.0559099
0.0461003
0.0363618
0.0266766
0.0168022
0.00703047
-0.00250644
-0.0119035
-0.0217677
-0.0328235
-0.0176782
-0.0176782
0
0
0.467674
0.449174
0.433736
0.420899
0.410211
0.400971
0.393796
0.387547
0.382307
0.377866
0.373968
0.371951
0.367131
0.360922
0.352383
0.150803
0.335406
0.329315
0.32256
0.315189
0.307702
0.299848
0.291769
0.283538
0.263786
0.2669
0.258765
0.250546
0.242253
0.233836
0.225332
0.216734
0.206735
0.1975
0.188692
0.179993
0.171241
0.162332
0.153218
0.143889
0.134351
0.12461
0.114754
0.104825
0.0950328
0.08561
0.0760584
0.0663343
0.0565196
0.0466999
0.0369976
0.0276038
0.0178468
0.00841374
-0.00061296
-0.00924174
-0.0176483
-0.0282049
-0.0293635
-0.0293635
0
0
0.467427
0.448183
0.431588
0.41735
0.405141
0.39463
0.386023
0.378993
0.373359
0.368644
0.363393
0.367928
0.361642
0.356133
0.350241
0.345766
0.338725
0.330746
0.322893
0.314915
0.307507
0.299509
0.291399
0.283243
0.275356
0.267099
0.258893
0.250763
0.242663
0.234372
0.225531
0.216512
0.207201
0.198057
0.189094
0.180198
0.171278
0.16226
0.153101
0.14379
0.13433
0.124735
0.115054
0.105335
0.0956603
0.0860627
0.076435
0.0667189
0.0569059
0.0470102
0.0370707
0.0281349
0.0184023
0.00935045
0.000639827
-0.00788339
-0.0165048
-0.0258179
-0.0338122
-0.0338122
0
0
0.467261
0.447517
0.430142
0.414988
0.401801
0.390448
0.380967
0.373307
0.367357
0.362809
0.359293
0.358759
0.355658
0.351712
0.347005
0.342449
0.336426
0.32944
0.322097
0.314763
0.306477
0.298583
0.290597
0.282409
0.27504
0.26674
0.258642
0.250725
0.243032
0.250162
0.225724
0.216399
0.207332
0.198337
0.189377
0.18222
0.171385
0.162288
0.1531
0.143806
0.13441
0.124923
0.115351
0.105735
0.0961105
0.0864868
0.0768402
0.0671352
0.0573344
0.0473974
0.0371413
-0.00499297
0.0184873
0.0101496
0.00161471
-0.00696835
-0.01572
-0.0249015
-0.0345558
-0.0345558
0
0
0.467149
0.447067
0.429148
0.413405
0.399544
0.387582
0.377544
0.369465
0.363288
0.35879
0.35562
0.353532
0.351008
0.347969
0.343379
0.338631
0.333172
0.326963
0.320234
0.310157
0.305459
0.297728
0.289845
0.281843
0.274024
0.265989
0.258063
0.25035
0.242807
0.235352
0.224752
0.216205
0.207526
0.198638
0.189641
0.1806
0.174087
0.162429
0.153221
0.143941
0.13459
0.125195
0.115685
0.106115
0.0965226
0.0869203
0.0773087
0.0676702
0.0579943
0.0484443
0.0392206
0.0306093
0.0209204
0.0116637
0.00272539
-0.00607945
-0.0149704
-0.0242228
-0.0341931
-0.0341931
0
0
0.467077
0.446786
0.428605
0.412258
0.397939
0.385555
0.375149
0.366777
0.360401
0.355813
0.352538
0.349982
0.347474
0.345022
0.339797
0.335406
0.330351
0.324584
0.318364
0.311704
0.304469
0.296891
0.289066
0.281076
0.273028
0.264961
0.257116
0.249602
0.24208
0.232841
0.226714
0.217763
0.208483
0.199218
0.189999
0.180819
0.171672
0.162574
0.153418
0.144155
0.134808
0.1256
0.116087
0.106519
0.0969422
0.0873748
0.0778321
0.068298
0.0587037
0.0494032
0.0404284
0.0316214
0.0222595
0.0129269
0.00380924
-0.00515582
-0.0141726
-0.0235051
-0.0335635
-0.0335635
0
0
0.467026
0.446581
0.428131
0.411462
0.396824
0.384136
0.373455
0.364853
0.358285
0.353558
0.350083
0.347223
0.344247
0.340238
0.338099
0.333711
0.328473
0.322641
0.316781
0.31039
0.303398
0.295949
0.288158
0.2801
0.271842
0.263518
0.25554
0.248369
0.243148
0.234991
0.227016
0.218166
0.208927
0.19958
0.190247
0.180986
0.171807
0.162783
0.153706
0.144428
0.134797
0.126415
0.116593
0.106958
0.0973719
0.0878287
0.0783598
0.0689528
0.0592769
0.0501123
0.0411582
0.0321905
0.0230063
0.0138184
0.00474243
-0.00423555
-0.0133519
-0.0227243
-0.0328423
-0.0328423
0
0
0.466992
0.446446
0.427908
0.410743
0.396005
0.383123
0.372243
0.363468
0.356777
0.351822
0.348177
0.345154
0.342125
0.338685
0.33555
0.331443
0.326408
0.320541
0.315454
0.309287
0.302358
0.294944
0.287145
0.278976
0.270394
0.261369
0.252224
0.243671
0.248086
0.238892
0.228885
0.2191
0.209447
0.199858
0.19036
0.181058
0.171763
0.162998
0.154151
0.144997
0.135622
0.126528
0.116993
0.10739
0.0977886
0.0882312
0.0787795
0.069541
0.0596662
0.0507356
0.0418079
0.0327923
0.0235431
0.014493
0.00554732
-0.00323542
-0.0126119
-0.0218553
-0.0319974
-0.0319974
0
0
0.466967
0.446304
0.427538
0.41052
0.395504
0.382429
0.371382
0.362458
0.355618
0.350555
0.346769
0.343636
0.340607
0.337355
0.333846
0.329715
0.324775
0.318575
0.314699
0.308224
0.301203
0.293827
0.28608
0.277857
0.268927
0.258613
0.244636
0.220288
0.272854
0.246555
0.231851
0.220419
0.210015
0.200005
0.190215
0.180684
0.171542
0.163145
0.15486
0.145898
0.136528
0.127068
0.117486
0.107853
0.0981932
0.0885455
0.0788779
0.0691786
0.0606745
0.0516114
0.0425826
0.0337223
0.0238006
0.0150538
0.00617592
-0.00254164
-0.0115127
-0.0207062
-0.0308371
-0.0308371
0
0
0.466981
0.446198
0.427326
0.410311
0.395189
0.381972
0.370784
0.361738
0.35479
0.349638
0.345732
0.342499
0.339439
0.336216
0.332643
0.328608
0.324235
0.320182
0.312246
0.306046
0.299577
0.292614
0.285127
0.27708
0.26833
0.258578
0.247603
0.238059
0.249426
0.241602
0.230925
0.220231
0.209833
0.199655
0.189597
0.179727
0.170419
0.162606
0.156285
0.147541
0.137873
0.128037
0.118214
0.108434
0.0986473
0.0889306
0.0792452
0.0696701
0.0606828
0.0520815
0.0431226
0.0340311
0.0247011
0.0158324
0.00655772
-0.0018603
-0.0103424
-0.019093
-0.0289414
-0.0289414
0
0
0.46707
0.446097
0.427226
0.410219
0.395069
0.381671
0.370351
0.361224
0.354223
0.349029
0.344982
0.341623
0.338508
0.335291
0.331724
0.327707
0.323279
0.318458
0.312021
0.305583
0.298976
0.29203
0.284668
0.276857
0.26858
0.259911
0.251286
0.244626
0.242639
0.23658
0.228104
0.21862
0.208762
0.19873
0.188438
0.177863
0.167171
0.158306
0.161157
0.151227
0.140172
0.129483
0.119171
0.109126
0.0991515
0.0893795
0.0796684
0.0700024
0.0606033
0.052584
0.0435341
0.0343671
0.0254823
0.0175244
0.00580039
-0.00144176
-0.00913747
-0.0167826
-0.0253385
-0.0253385
0
0
0.466781
0.44628
0.427347
0.410345
0.395255
0.375149
0.369902
0.360813
0.353857
0.348731
0.344424
0.340899
0.337737
0.334573
0.331029
0.326968
0.322393
0.317342
0.311537
0.305309
0.298744
0.291842
0.284594
0.277016
0.269188
0.261337
0.266862
0.246622
0.241223
0.234275
0.226017
0.216993
0.207498
0.19763
0.187116
0.175455
0.160471
0.133754
0.18562
0.158753
0.143201
0.131033
0.120075
0.109668
0.0997173
0.0898757
0.0801654
0.0704567
0.0605242
0.0531676
0.0435892
0.034373
0.0255228
0.0168181
0.00695326
-0.01572
-0.0082169
-0.0141262
-0.0174645
0
0
0
0.466868
0.445465
0.427177
0.410342
0.395411
0.381407
0.369798
0.360603
0.353692
0.34883
0.343896
0.340231
0.337094
0.33409
0.330579
0.32643
0.321704
0.316718
0.311165
0.305108
0.298643
0.291829
0.284699
0.277302
0.269732
0.262145
0.25454
0.246602
0.241151
0.233146
0.224621
0.215724
0.206453
0.191858
0.186547
0.175562
0.163458
0.152636
0.163333
0.14379
0.142506
0.131201
0.12038
0.110003
0.100007
0.0902475
0.0807511
0.0716497
0.063032
0.0513042
0.0425495
0.0338984
0.0252354
0.0165758
0.00789458
-0.000104059
-0.00811339
-0.0159915
-0.0249468
-0.0249468
0
0
0.466902
0.446113
0.42696
0.410366
0.395693
0.380932
0.369535
0.360419
0.353562
0.34919
0.343149
0.339819
0.336713
0.333989
0.330451
0.32615
0.321182
0.316508
0.311061
0.305051
0.298647
0.291914
0.284877
0.277581
0.270113
0.262737
0.256265
0.249626
0.239574
0.231521
0.22332
0.214805
0.206014
0.196958
0.187323
0.177375
0.167693
0.160002
0.156787
0.149767
0.140342
0.130194
0.119943
0.109875
0.100031
0.0903743
0.0809322
0.0716977
0.0624001
0.0520429
0.0426661
0.0337464
0.0250184
0.0164065
0.00786804
-0.000516348
-0.00912786
-0.0182393
-0.0285018
-0.0285018
0
0
0.466922
0.446189
0.427429
0.409627
0.393448
0.381378
0.369989
0.360552
0.35301
0.346408
0.34452
0.34099
0.336996
0.337213
0.330828
0.326341
0.321005
0.316859
0.31117
0.305093
0.298733
0.292086
0.285112
0.277831
0.270184
0.261665
0.258145
0.249515
0.240302
0.231599
0.223046
0.214497
0.205987
0.197389
0.188352
0.179178
0.170348
0.162443
0.155286
0.147379
0.138504
0.129036
0.11915
0.109435
0.0998185
0.0902588
0.0808238
0.071469
0.0620329
0.0523215
0.0428193
0.0336669
0.0247959
0.0161281
0.00742703
-0.00125692
-0.0102325
-0.0198265
-0.0302803
-0.0302803
0
0
0.466919
0.446155
0.427204
0.409712
0.394003
0.380988
0.369723
0.360396
0.353045
0.347549
0.344316
0.341193
0.363812
0.336453
0.332118
0.327445
0.323018
0.31644
0.310834
0.305033
0.298898
0.292405
0.285476
0.278238
0.270758
0.263169
0.256959
0.249046
0.240472
0.231748
0.22299
0.214308
0.206027
0.198268
0.189574
0.180696
0.171899
0.163413
0.155029
0.146439
0.137537
0.128498
0.118104
0.108836
0.0994245
0.0899558
0.0805724
0.0712306
0.0618601
0.0523268
0.0426908
0.0334139
0.0244089
0.0156485
0.00683563
-0.00192863
-0.011067
-0.0209475
-0.0314029
-0.0314029
0
0
0.466914
0.446131
0.42714
0.409858
0.394431
0.381094
0.369636
0.360321
0.353211
0.348807
0.34508
0.342312
0.340711
0.334783
0.33112
0.327163
0.322649
0.317111
0.31145
0.305591
0.299478
0.293066
0.286017
0.278774
0.271431
0.264047
0.256743
0.248832
0.240446
0.23173
0.222736
0.213573
0.204938
0.200378
0.191243
0.182327
0.173081
0.164051
0.155105
0.146117
0.137001
0.127684
0.117888
0.108341
0.0898077
0.0894852
0.0802411
0.0709796
0.0617374
0.0522236
0.0376522
0.0329458
0.0238048
-0.00179439
0.00616157
-0.00238928
-0.0115429
-0.021878
-0.032302
-0.032302
0
0
0.466914
0.446139
0.42718
0.410033
0.394785
0.381475
0.369566
0.360148
0.351999
0.351286
0.346239
0.342919
0.340195
0.336035
0.332072
0.327875
0.322839
0.317699
0.312187
0.30636
0.300293
0.294043
0.2866
0.27935
0.272109
0.26472
0.257108
0.247229
0.240583
0.231777
0.222354
0.211733
0.196902
0.209222
0.193111
0.184809
0.174232
0.164596
0.155276
0.146038
0.136741
0.127221
0.11762
0.108138
0.0987816
0.0893287
0.0799529
0.0706593
0.0615439
0.0522531
0.0415751
0.0327258
0.0239413
0.0152927
0.00628833
-0.00248933
-0.0115707
-0.0227838
-0.0330062
-0.0330062
0
0
0.466918
0.446161
0.427251
0.41022
0.395207
0.382606
0.368854
0.360453
0.353523
0.349885
0.346145
0.343077
0.340148
0.336768
0.333169
0.329632
0.322806
0.318317
0.312983
0.307175
0.301105
0.295128
0.287022
0.280106
0.272981
0.265526
0.257783
0.24947
0.241057
0.232272
0.222736
0.212987
0.203337
0.201817
0.192849
0.184055
0.174352
0.164761
0.155335
0.146017
0.136661
0.126897
0.117291
0.107844
0.098461
0.0890368
0.0795985
0.07012
0.0501509
0.0522249
0.0407738
0.0327705
0.0238717
0.0149315
0.00589272
-0.00292374
-0.0114142
-0.0234904
-0.0330419
-0.0330419
0
0
0.46692
0.446174
0.427296
0.410321
0.395336
0.382417
0.37072
0.361453
0.354523
0.349839
0.34632
0.343423
0.340615
0.337513
0.334034
0.330097
0.324705
0.319551
0.314012
0.308035
0.301558
0.294168
0.288879
0.281765
0.274297
0.266469
0.258315
0.250294
0.241919
0.233611
0.223129
0.214671
0.206461
0.199774
0.191681
0.182992
0.173825
0.164501
0.15518
0.145938
0.136701
0.126513
0.116951
0.107585
0.0982122
0.0887911
0.07933
0.0698189
0.0601884
0.049971
0.043781
0.033246
0.0237583
0.0144688
0.00509692
-0.00457172
-0.0145743
-0.0205338
-0.0314378
-0.0314378
0
0
0.466914
0.44616
0.427289
0.410353
0.395419
0.382584
0.37193
0.362155
0.355161
0.350397
0.34699
0.344235
0.341541
0.338541
0.335096
0.331135
0.326307
0.320979
0.31523
0.309109
0.302696
0.295637
0.28608
0.282407
0.275123
0.267203
0.25903
0.250835
0.242481
0.23396
0.224723
0.216084
0.207756
0.199631
0.191193
0.182417
0.173366
0.164153
0.154878
0.145664
0.136719
0.126005
0.116813
0.107519
0.0981073
0.0886418
0.0791543
0.0696464
0.0601173
0.0507118
0.0425739
0.033075
0.0235744
0.0141758
0.00480045
-0.00459276
-0.0138255
-0.0217724
-0.0318264
-0.0318264
0
0
0.466892
0.44609
0.427197
0.410303
0.39544
0.382768
0.372939
0.362256
0.355891
0.351444
0.348219
0.345543
0.342898
0.339891
0.336423
0.332633
0.327817
0.322295
0.316381
0.310157
0.303833
0.297132
0.290346
0.283148
0.27572
0.267615
0.259505
0.251345
0.243028
0.234515
0.225778
0.217117
0.208532
0.199917
0.191158
0.182217
0.173108
0.163858
0.15447
0.144854
0.13484
0.127065
0.117438
0.107736
0.0981116
0.0885526
0.0790387
0.0695613
0.0601412
0.050876
0.0418874
0.032628
0.0232843
0.0139814
0.00478202
-0.0041791
-0.0138582
-0.0226118
-0.0325405
-0.0325405
0
0
0.466838
0.445906
0.426984
0.410168
0.395316
0.382278
0.370353
0.364281
0.358062
0.353523
0.349984
0.34725
0.344584
0.341542
0.337711
0.334221
0.32901
0.323241
0.317287
0.311047
0.305014
0.298444
0.291417
0.283775
0.238521
0.267558
0.259997
0.252039
0.24378
0.235292
0.226648
0.217935
0.209166
0.200303
0.191323
0.18222
0.173005
0.163687
0.154266
0.14474
0.135233
0.126448
0.117118
0.107554
0.0979621
0.0884075
0.0789061
0.0694576
0.0600669
0.0507575
0.0415154
0.0322538
0.0229906
0.0137818
0.00465641
-0.00441302
-0.0137433
-0.0229918
-0.0330096
-0.0330096
0
0
0.466739
0.445465
0.431424
0.41009
0.395385
0.382643
0.371916
0.364584
0.358891
0.354652
0.351526
0.348956
0.346447
0.343838
0.337921
0.334753
0.328958
0.324217
0.31806
0.311993
0.306498
0.299814
0.292794
0.285529
0.278219
0.26998
0.261681
0.253328
0.244857
0.236252
0.22753
0.218711
0.209788
0.200738
0.191574
0.18232
0.172994
0.163608
0.154181
0.144753
0.135385
0.126113
0.116698
0.107192
0.0976742
0.0881756
0.0787197
0.0693059
0.0599162
0.0505617
0.0412421
0.0319535
0.0227141
0.0135571
0.00445106
-0.00466875
-0.013872
-0.0232425
-0.0325405
-0.0332797
0
0
0.466771
0.444223
0.425756
0.409628
0.395459
0.383278
0.373273
0.365722
0.360139
0.356154
0.353267
0.350862
0.348332
0.345047
0.339062
0.147718
0.326795
0.323873
0.319631
0.314705
0.307768
0.301146
0.294234
0.287128
0.279264
0.271172
0.262924
0.254512
0.245948
0.237245
0.228426
0.219498
0.210442
0.201206
0.191858
0.182456
0.173017
0.163548
0.154082
0.14467
0.135309
0.125796
0.11623
0.106723
0.0972857
0.0878634
0.0784823
0.0691281
0.0597386
0.0503551
0.0410037
0.0316897
0.022447
0.013331
0.00422355
-0.004925
-0.0141645
-0.0287112
-0.0336624
-0.0336624
0
0
0.468514
0.441026
0.425035
0.409685
0.396008
0.384269
0.374723
0.367425
0.362021
0.358236
0.355551
0.35331
0.35091
0.347936
0.344255
0.342141
0.336224
0.330089
0.323972
0.317671
0.310647
0.303476
0.296179
0.288924
0.280338
0.272359
0.264143
0.255687
0.247036
0.238239
0.229327
0.220314
0.211153
0.201685
0.192133
0.182587
0.173035
0.163451
0.153862
0.144386
0.135022
0.12523
0.115507
0.106051
0.0967714
0.0874605
0.0782061
0.0689742
0.0595867
0.0501839
0.0408169
0.03147
0.0221929
0.0131307
3.99602e-05
-0.00515197
-0.0142733
-0.0236521
-0.0365425
-0.0338476
0
0
0.467012
0.444596
0.426467
0.410784
0.397212
0.385706
0.376456
0.369786
0.364582
0.360997
0.358506
0.356429
0.354175
0.351463
0.348169
0.344764
0.33971
0.333766
0.327347
0.320559
0.313358
0.305833
0.297975
0.289589
0.282459
0.274182
0.265645
0.256962
0.24815
0.239227
0.230226
0.221161
0.211961
0.20212
0.192359
0.182711
0.173067
0.163333
0.153409
0.14371
0.134351
0.124064
0.114265
0.105034
0.0960926
0.0869413
0.0779078
0.0689331
0.0595507
0.0501509
0.0407853
0.0313835
0.0220111
0.0131606
0.00397095
-0.00527713
-0.0144574
-0.0238179
-0.0338041
-0.0338041
0
0
0.46691
0.446063
0.427937
0.412243
0.395069
0.387414
0.377853
0.373352
0.367901
0.364469
0.362175
0.360232
0.357973
0.336216
0.351609
0.347662
0.342625
0.336734
0.330237
0.323283
0.315945
0.308171
0.300069
0.291767
0.283784
0.275454
0.266862
0.258076
0.249185
0.240163
0.231072
0.221991
0.212897
0.202393
0.192542
0.182909
0.173213
0.163445
0.1525
0.142287
0.132511
0.121742
0.112331
0.103581
0.0952057
0.0863064
0.077617
0.0691259
0.059842
0.050524
0.0411539
0.0316409
0.0219627
0.0131762
0.00368006
-0.0056012
-0.0147781
-0.0241263
-0.03408
-0.03408
0
0
0.467055
0.446841
0.429122
0.413845
0.400929
0.390166
0.38157
0.376038
0.371609
0.368607
0.3666
0.36482
0.362716
0.360072
0.356293
0.351629
0.346135
0.339941
0.333204
0.326052
0.318579
0.310483
0.302131
0.293709
0.285302
0.276753
0.268044
0.259172
0.250162
0.241017
0.231785
0.222586
0.213763
0.202384
0.192974
0.183384
0.173506
0.163279
0.152222
0.140191
0.00736825
0.11812
0.110185
0.10158
0.0936944
0.0858377
0.0773939
0.0693923
0.0611159
0.0519683
0.0423309
0.0325939
0.0229818
0.0123391
0.00303334
-0.00611347
-0.0152313
-0.0245344
-0.034442
-0.034442
0
0
0.467198
0.44741
0.430216
0.41556
0.403343
0.393412
0.385693
0.380148