# vtk DataFile Version 2.0
FlowField
ASCII
DATASET STRUCTURED_GRID
DIMENSIONS 62 47 32 
POINTS 93248 double
0 0 0
0.01 0 0
0.02 0 0
0.03 0 0
0.04 0 0
0.05 0 0
0.06 0 0
0.07 0 0
0.08 0 0
0.09 0 0
0.1 0 0
0.11 0 0
0.12 0 0
0.13 0 0
0.14 0 0
0.15 0 0
0.16 0 0
0.17 0 0
0.18 0 0
0.19 0 0
0.2 0 0
0.21 0 0
0.22 0 0
0.23 0 0
0.24 0 0
0.25 0 0
0.26 0 0
0.27 0 0
0.28 0 0
0.29 0 0
0.3 0 0
0.31 0 0
0.32 0 0
0.33 0 0
0.34 0 0
0.35 0 0
0.36 0 0
0.37 0 0
0.38 0 0
0.39 0 0
0.4 0 0
0.41 0 0
0.42 0 0
0.43 0 0
0.44 0 0
0.45 0 0
0.46 0 0
0.47 0 0
0.48 0 0
0.49 0 0
0.5 0 0
0.51 0 0
0.52 0 0
0.53 0 0
0.54 0 0
0.55 0 0
0.56 0 0
0.57 0 0
0.58 0 0
0.59 0 0
0.6 0 0
0.61 0 0
0 0.01 0
0.01 0.01 0
0.02 0.01 0
0.03 0.01 0
0.04 0.01 0
0.05 0.01 0
0.06 0.01 0
0.07 0.01 0
0.08 0.01 0
0.09 0.01 0
0.1 0.01 0
0.11 0.01 0
0.12 0.01 0
0.13 0.01 0
0.14 0.01 0
0.15 0.01 0
0.16 0.01 0
0.17 0.01 0
0.18 0.01 0
0.19 0.01 0
0.2 0.01 0
0.21 0.01 0
0.22 0.01 0
0.23 0.01 0
0.24 0.01 0
0.25 0.01 0
0.26 0.01 0
0.27 0.01 0
0.28 0.01 0
0.29 0.01 0
0.3 0.01 0
0.31 0.01 0
0.32 0.01 0
0.33 0.01 0
0.34 0.01 0
0.35 0.01 0
0.36 0.01 0
0.37 0.01 0
0.38 0.01 0
0.39 0.01 0
0.4 0.01 0
0.41 0.01 0
0.42 0.01 0
0.43 0.01 0
0.44 0.01 0
0.45 0.01 0
0.46 0.01 0
0.47 0.01 0
0.48 0.01 0
0.49 0.01 0
0.5 0.01 0
0.51 0.01 0
0.52 0.01 0
0.53 0.01 0
0.54 0.01 0
0.55 0.01 0
0.56 0.01 0
0.57 0.01 0
0.58 0.01 0
0.59 0.01 0
0.6 0.01 0
0.61 0.01 0
0 0.02 0
0.01 0.02 0
0.02 0.02 0
0.03 0.02 0
0.04 0.02 0
0.05 0.02 0
0.06 0.02 0
0.07 0.02 0
0.08 0.02 0
0.09 0.02 0
0.1 0.02 0
0.11 0.02 0
0.12 0.02 0
0.13 0.02 0
0.14 0.02 0
0.15 0.02 0
0.16 0.02 0
0.17 0.02 0
0.18 0.02 0
0.19 0.02 0
0.2 0.02 0
0.21 0.02 0
0.22 0.02 0
0.23 0.02 0
0.24 0.02 0
0.25 0.02 0
0.26 0.02 0
0.27 0.02 0
0.28 0.02 0
0.29 0.02 0
0.3 0.02 0
0.31 0.02 0
0.32 0.02 0
0.33 0.02 0
0.34 0.02 0
0.35 0.02 0
0.36 0.02 0
0.37 0.02 0
0.38 0.02 0
0.39 0.02 0
0.4 0.02 0
0.41 0.02 0
0.42 0.02 0
0.43 0.02 0
0.44 0.02 0
0.45 0.02 0
0.46 0.02 0
0.47 0.02 0
0.48 0.02 0
0.49 0.02 0
0.5 0.02 0
0.51 0.02 0
0.52 0.02 0
0.53 0.02 0
0.54 0.02 0
0.55 0.02 0
0.56 0.02 0
0.57 0.02 0
0.58 0.02 0
0.59 0.02 0
0.6 0.02 0
0.61 0.02 0
0 0.03 0
0.01 0.03 0
0.02 0.03 0
0.03 0.03 0
0.04 0.03 0
0.05 0.03 0
0.06 0.03 0
0.07 0.03 0
0.08 0.03 0
0.09 0.03 0
0.1 0.03 0
0.11 0.03 0
0.12 0.03 0
0.13 0.03 0
0.14 0.03 0
0.15 0.03 0
0.16 0.03 0
0.17 0.03 0
0.18 0.03 0
0.19 0.03 0
0.2 0.03 0
0.21 0.03 0
0.22 0.03 0
0.23 0.03 0
0.24 0.03 0
0.25 0.03 0
0.26 0.03 0
0.27 0.03 0
0.28 0.03 0
0.29 0.03 0
0.3 0.03 0
0.31 0.03 0
0.32 0.03 0
0.33 0.03 0
0.34 0.03 0
0.35 0.03 0
0.36 0.03 0
0.37 0.03 0
0.38 0.03 0
0.39 0.03 0
0.4 0.03 0
0.41 0.03 0
0.42 0.03 0
0.43 0.03 0
0.44 0.03 0
0.45 0.03 0
0.46 0.03 0
0.47 0.03 0
0.48 0.03 0
0.49 0.03 0
0.5 0.03 0
0.51 0.03 0
0.52 0.03 0
0.53 0.03 0
0.54 0.03 0
0.55 0.03 0
0.56 0.03 0
0.57 0.03 0
0.58 0.03 0
0.59 0.03 0
0.6 0.03 0
0.61 0.03 0
0 0.04 0
0.01 0.04 0
0.02 0.04 0
0.03 0.04 0
0.04 0.04 0
0.05 0.04 0
0.06 0.04 0
0.07 0.04 0
0.08 0.04 0
0.09 0.04 0
0.1 0.04 0
0.11 0.04 0
0.12 0.04 0
0.13 0.04 0
0.14 0.04 0
0.15 0.04 0
0.16 0.04 0
0.17 0.04 0
0.18 0.04 0
0.19 0.04 0
0.2 0.04 0
0.21 0.04 0
0.22 0.04 0
0.23 0.04 0
0.24 0.04 0
0.25 0.04 0
0.26 0.04 0
0.27 0.04 0
0.28 0.04 0
0.29 0.04 0
0.3 0.04 0
0.31 0.04 0
0.32 0.04 0
0.33 0.04 0
0.34 0.04 0
0.35 0.04 0
0.36 0.04 0
0.37 0.04 0
0.38 0.04 0
0.39 0.04 0
0.4 0.04 0
0.41 0.04 0
0.42 0.04 0
0.43 0.04 0
0.44 0.04 0
0.45 0.04 0
0.46 0.04 0
0.47 0.04 0
0.48 0.04 0
0.49 0.04 0
0.5 0.04 0
0.51 0.04 0
0.52 0.04 0
0.53 0.04 0
0.54 0.04 0
0.55 0.04 0
0.56 0.04 0
0.57 0.04 0
0.58 0.04 0
0.59 0.04 0
0.6 0.04 0
0.61 0.04 0
0 0.05 0
0.01 0.05 0
0.02 0.05 0
0.03 0.05 0
0.04 0.05 0
0.05 0.05 0
0.06 0.05 0
0.07 0.05 0
0.08 0.05 0
0.09 0.05 0
0.1 0.05 0
0.11 0.05 0
0.12 0.05 0
0.13 0.05 0
0.14 0.05 0
0.15 0.05 0
0.16 0.05 0
0.17 0.05 0
0.18 0.05 0
0.19 0.05 0
0.2 0.05 0
0.21 0.05 0
0.22 0.05 0
0.23 0.05 0
0.24 0.05 0
0.25 0.05 0
0.26 0.05 0
0.27 0.05 0
0.28 0.05 0
0.29 0.05 0
0.3 0.05 0
0.31 0.05 0
0.32 0.05 0
0.33 0.05 0
0.34 0.05 0
0.35 0.05 0
0.36 0.05 0
0.37 0.05 0
0.38 0.05 0
0.39 0.05 0
0.4 0.05 0
0.41 0.05 0
0.42 0.05 0
0.43 0.05 0
0.44 0.05 0
0.45 0.05 0
0.46 0.05 0
0.47 0.05 0
0.48 0.05 0
0.49 0.05 0
0.5 0.05 0
0.51 0.05 0
0.52 0.05 0
0.53 0.05 0
0.54 0.05 0
0.55 0.05 0
0.56 0.05 0
0.57 0.05 0
0.58 0.05 0
0.59 0.05 0
0.6 0.05 0
0.61 0.05 0
0 0.06 0
0.01 0.06 0
0.02 0.06 0
0.03 0.06 0
0.04 0.06 0
0.05 0.06 0
0.06 0.06 0
0.07 0.06 0
0.08 0.06 0
0.09 0.06 0
0.1 0.06 0
0.11 0.06 0
0.12 0.06 0
0.13 0.06 0
0.14 0.06 0
0.15 0.06 0
0.16 0.06 0
0.17 0.06 0
0.18 0.06 0
0.19 0.06 0
0.2 0.06 0
0.21 0.06 0
0.22 0.06 0
0.23 0.06 0
0.24 0.06 0
0.25 0.06 0
0.26 0.06 0
0.27 0.06 0
0.28 0.06 0
0.29 0.06 0
0.3 0.06 0
0.31 0.06 0
0.32 0.06 0
0.33 0.06 0
0.34 0.06 0
0.35 0.06 0
0.36 0.06 0
0.37 0.06 0
0.38 0.06 0
0.39 0.06 0
0.4 0.06 0
0.41 0.06 0
0.42 0.06 0
0.43 0.06 0
0.44 0.06 0
0.45 0.06 0
0.46 0.06 0
0.47 0.06 0
0.48 0.06 0
0.49 0.06 0
0.5 0.06 0
0.51 0.06 0
0.52 0.06 0
0.53 0.06 0
0.54 0.06 0
0.55 0.06 0
0.56 0.06 0
0.57 0.06 0
0.58 0.06 0
0.59 0.06 0
0.6 0.06 0
0.61 0.06 0
0 0.07 0
0.01 0.07 0
0.02 0.07 0
0.03 0.07 0
0.04 0.07 0
0.05 0.07 0
0.06 0.07 0
0.07 0.07 0
0.08 0.07 0
0.09 0.07 0
0.1 0.07 0
0.11 0.07 0
0.12 0.07 0
0.13 0.07 0
0.14 0.07 0
0.15 0.07 0
0.16 0.07 0
0.17 0.07 0
0.18 0.07 0
0.19 0.07 0
0.2 0.07 0
0.21 0.07 0
0.22 0.07 0
0.23 0.07 0
0.24 0.07 0
0.25 0.07 0
0.26 0.07 0
0.27 0.07 0
0.28 0.07 0
0.29 0.07 0
0.3 0.07 0
0.31 0.07 0
0.32 0.07 0
0.33 0.07 0
0.34 0.07 0
0.35 0.07 0
0.36 0.07 0
0.37 0.07 0
0.38 0.07 0
0.39 0.07 0
0.4 0.07 0
0.41 0.07 0
0.42 0.07 0
0.43 0.07 0
0.44 0.07 0
0.45 0.07 0
0.46 0.07 0
0.47 0.07 0
0.48 0.07 0
0.49 0.07 0
0.5 0.07 0
0.51 0.07 0
0.52 0.07 0
0.53 0.07 0
0.54 0.07 0
0.55 0.07 0
0.56 0.07 0
0.57 0.07 0
0.58 0.07 0
0.59 0.07 0
0.6 0.07 0
0.61 0.07 0
0 0.08 0
0.01 0.08 0
0.02 0.08 0
0.03 0.08 0
0.04 0.08 0
0.05 0.08 0
0.06 0.08 0
0.07 0.08 0
0.08 0.08 0
0.09 0.08 0
0.1 0.08 0
0.11 0.08 0
0.12 0.08 0
0.13 0.08 0
0.14 0.08 0
0.15 0.08 0
0.16 0.08 0
0.17 0.08 0
0.18 0.08 0
0.19 0.08 0
0.2 0.08 0
0.21 0.08 0
0.22 0.08 0
0.23 0.08 0
0.24 0.08 0
0.25 0.08 0
0.26 0.08 0
0.27 0.08 0
0.28 0.08 0
0.29 0.08 0
0.3 0.08 0
0.31 0.08 0
0.32 0.08 0
0.33 0.08 0
0.34 0.08 0
0.35 0.08 0
0.36 0.08 0
0.37 0.08 0
0.38 0.08 0
0.39 0.08 0
0.4 0.08 0
0.41 0.08 0
0.42 0.08 0
0.43 0.08 0
0.44 0.08 0
0.45 0.08 0
0.46 0.08 0
0.47 0.08 0
0.48 0.08 0
0.49 0.08 0
0.5 0.08 0
0.51 0.08 0
0.52 0.08 0
0.53 0.08 0
0.54 0.08 0
0.55 0.08 0
0.56 0.08 0
0.57 0.08 0
0.58 0.08 0
0.59 0.08 0
0.6 0.08 0
0.61 0.08 0
0 0.09 0
0.01 0.09 0
0.02 0.09 0
0.03 0.09 0
0.04 0.09 0
0.05 0.09 0
0.06 0.09 0
0.07 0.09 0
0.08 0.09 0
0.09 0.09 0
0.1 0.09 0
0.11 0.09 0
0.12 0.09 0
0.13 0.09 0
0.14 0.09 0
0.15 0.09 0
0.16 0.09 0
0.17 0.09 0
0.18 0.09 0
0.19 0.09 0
0.2 0.09 0
0.21 0.09 0
0.22 0.09 0
0.23 0.09 0
0.24 0.09 0
0.25 0.09 0
0.26 0.09 0
0.27 0.09 0
0.28 0.09 0
0.29 0.09 0
0.3 0.09 0
0.31 0.09 0
0.32 0.09 0
0.33 0.09 0
0.34 0.09 0
0.35 0.09 0
0.36 0.09 0
0.37 0.09 0
0.38 0.09 0
0.39 0.09 0
0.4 0.09 0
0.41 0.09 0
0.42 0.09 0
0.43 0.09 0
0.44 0.09 0
0.45 0.09 0
0.46 0.09 0
0.47 0.09 0
0.48 0.09 0
0.49 0.09 0
0.5 0.09 0
0.51 0.09 0
0.52 0.09 0
0.53 0.09 0
0.54 0.09 0
0.55 0.09 0
0.56 0.09 0
0.57 0.09 0
0.58 0.09 0
0.59 0.09 0
0.6 0.09 0
0.61 0.09 0
0 0.1 0
0.01 0.1 0
0.02 0.1 0
0.03 0.1 0
0.04 0.1 0
0.05 0.1 0
0.06 0.1 0
0.07 0.1 0
0.08 0.1 0
0.09 0.1 0
0.1 0.1 0
0.11 0.1 0
0.12 0.1 0
0.13 0.1 0
0.14 0.1 0
0.15 0.1 0
0.16 0.1 0
0.17 0.1 0
0.18 0.1 0
0.19 0.1 0
0.2 0.1 0
0.21 0.1 0
0.22 0.1 0
0.23 0.1 0
0.24 0.1 0
0.25 0.1 0
0.26 0.1 0
0.27 0.1 0
0.28 0.1 0
0.29 0.1 0
0.3 0.1 0
0.31 0.1 0
0.32 0.1 0
0.33 0.1 0
0.34 0.1 0
0.35 0.1 0
0.36 0.1 0
0.37 0.1 0
0.38 0.1 0
0.39 0.1 0
0.4 0.1 0
0.41 0.1 0
0.42 0.1 0
0.43 0.1 0
0.44 0.1 0
0.45 0.1 0
0.46 0.1 0
0.47 0.1 0
0.48 0.1 0
0.49 0.1 0
0.5 0.1 0
0.51 0.1 0
0.52 0.1 0
0.53 0.1 0
0.54 0.1 0
0.55 0.1 0
0.56 0.1 0
0.57 0.1 0
0.58 0.1 0
0.59 0.1 0
0.6 0.1 0
0.61 0.1 0
0 0.11 0
0.01 0.11 0
0.02 0.11 0
0.03 0.11 0
0.04 0.11 0
0.05 0.11 0
0.06 0.11 0
0.07 0.11 0
0.08 0.11 0
0.09 0.11 0
0.1 0.11 0
0.11 0.11 0
0.12 0.11 0
0.13 0.11 0
0.14 0.11 0
0.15 0.11 0
0.16 0.11 0
0.17 0.11 0
0.18 0.11 0
0.19 0.11 0
0.2 0.11 0
0.21 0.11 0
0.22 0.11 0
0.23 0.11 0
0.24 0.11 0
0.25 0.11 0
0.26 0.11 0
0.27 0.11 0
0.28 0.11 0
0.29 0.11 0
0.3 0.11 0
0.31 0.11 0
0.32 0.11 0
0.33 0.11 0
0.34 0.11 0
0.35 0.11 0
0.36 0.11 0
0.37 0.11 0
0.38 0.11 0
0.39 0.11 0
0.4 0.11 0
0.41 0.11 0
0.42 0.11 0
0.43 0.11 0
0.44 0.11 0
0.45 0.11 0
0.46 0.11 0
0.47 0.11 0
0.48 0.11 0
0.49 0.11 0
0.5 0.11 0
0.51 0.11 0
0.52 0.11 0
0.53 0.11 0
0.54 0.11 0
0.55 0.11 0
0.56 0.11 0
0.57 0.11 0
0.58 0.11 0
0.59 0.11 0
0.6 0.11 0
0.61 0.11 0
0 0.12 0
0.01 0.12 0
0.02 0.12 0
0.03 0.12 0
0.04 0.12 0
0.05 0.12 0
0.06 0.12 0
0.07 0.12 0
0.08 0.12 0
0.09 0.12 0
0.1 0.12 0
0.11 0.12 0
0.12 0.12 0
0.13 0.12 0
0.14 0.12 0
0.15 0.12 0
0.16 0.12 0
0.17 0.12 0
0.18 0.12 0
0.19 0.12 0
0.2 0.12 0
0.21 0.12 0
0.22 0.12 0
0.23 0.12 0
0.24 0.12 0
0.25 0.12 0
0.26 0.12 0
0.27 0.12 0
0.28 0.12 0
0.29 0.12 0
0.3 0.12 0
0.31 0.12 0
0.32 0.12 0
0.33 0.12 0
0.34 0.12 0
0.35 0.12 0
0.36 0.12 0
0.37 0.12 0
0.38 0.12 0
0.39 0.12 0
0.4 0.12 0
0.41 0.12 0
0.42 0.12 0
0.43 0.12 0
0.44 0.12 0
0.45 0.12 0
0.46 0.12 0
0.47 0.12 0
0.48 0.12 0
0.49 0.12 0
0.5 0.12 0
0.51 0.12 0
0.52 0.12 0
0.53 0.12 0
0.54 0.12 0
0.55 0.12 0
0.56 0.12 0
0.57 0.12 0
0.58 0.12 0
0.59 0.12 0
0.6 0.12 0
0.61 0.12 0
0 0.13 0
0.01 0.13 0
0.02 0.13 0
0.03 0.13 0
0.04 0.13 0
0.05 0.13 0
0.06 0.13 0
0.07 0.13 0
0.08 0.13 0
0.09 0.13 0
0.1 0.13 0
0.11 0.13 0
0.12 0.13 0
0.13 0.13 0
0.14 0.13 0
0.15 0.13 0
0.16 0.13 0
0.17 0.13 0
0.18 0.13 0
0.19 0.13 0
0.2 0.13 0
0.21 0.13 0
0.22 0.13 0
0.23 0.13 0
0.24 0.13 0
0.25 0.13 0
0.26 0.13 0
0.27 0.13 0
0.28 0.13 0
0.29 0.13 0
0.3 0.13 0
0.31 0.13 0
0.32 0.13 0
0.33 0.13 0
0.34 0.13 0
0.35 0.13 0
0.36 0.13 0
0.37 0.13 0
0.38 0.13 0
0.39 0.13 0
0.4 0.13 0
0.41 0.13 0
0.42 0.13 0
0.43 0.13 0
0.44 0.13 0
0.45 0.13 0
0.46 0.13 0
0.47 0.13 0
0.48 0.13 0
[...]
POINT_DATA 93248

SCALARS v double
LOOKUP_TABLE default
0
0
0
0
0
0
0
0
0
0
0
0
0
0
0
0
0
0
0
0
0
0
0
0
0
0
0
0
0
0
0
0
0
0
0
0
0
0
-0.0625571
0
0
0
0
0
-0.0661091
0
0
0
0
0
0
0
0
0
0
0
0
0
0
0
0
0
0
0.045494
-0.068921
0.048949
0.0355427
0.0198297
0
-0.00292237
-0.0111539
-0.0168827
-0.020748
-0.0235183
-0.0265529
-0.0262155
-0.0259142
-0.0256276
-0.0256297
-0.0251375
-0.0246632
-0.0233779
-0.0296269
-0.0266358
-0.0238927
-0.0251335
-0.0253656
-0.0254609
-0.0255211
-0.0255509
-0.0255503
-0.0255146
-0.0254434
-0.0254805
-0.0264271
-0.0255252
-0.0248492
-0.0251437
-0.0461929
-0.0245664
-0.0247109
-0.0205777
-0.0271896
-0.0427067
-0.0278038
-0.0280451
-0.0297902
-0.0385028
-0.0869987
-0.0267257
-0.0349137
-0.0251739
-0.0250408
-0.0248896
-0.0270684
-0.0297404
-0.0448916
-0.0286488
-0.0609717
-0.0260011
-0.0233371
-0.0205467
-0.0164295
0
0
0.0266552
0.0515865
0.0594064
0.055211
0.0399452
0.0315654
0.0193514
0.00653957
-0.0059574
-0.0159591
-0.0235965
-0.0883858
-0.0322527
-0.0327762
-0.0281307
-0.0332564
-0.032346
-0.0334017
-0.0357774
-0.100213
-0.0329538
-0.0344012
-0.0331584
-0.0330828
-0.0332213
-0.033356
-0.0334376
-0.0334586
-0.0334077
-0.0332491
-0.0330693
-0.0668937
-0.0334289
-0.0322093
-0.0331783
-0.032404
-0.0298755
-0.0271054
-0.0337815
-0.0370588
-0.038369
-0.0376145
-0.0381005
-0.0383702
-0.0396027
-0.0396249
-0.0360418
-0.0349137
-0.0333908
-0.0334983
-0.0344282
-0.0351746
-0.0366969
-0.0386432
-0.0355025
-0.0340296
-0.0703507
-0.0287012
-0.0253041
-0.0216807
0
0
0.0136508
0.0351825
0.0452912
0.052122
0.0531
0.0416783
0.0303306
0.0178691
0.00495534
-0.00773112
-0.0176449
-0.0265179
-0.0307055
-0.0330428
-0.0343783
-0.0357333
0
-0.0358276
-0.0371862
-0.0378659
-0.0366349
-0.0364432
-0.0362032
-0.0362435
-0.0364009
-0.0365594
-0.0366738
-0.0367315
-0.0367351
-0.0367179
-0.0368632
-0.03782
-0.0374996
-0.0376264
-0.03533
-0.0345422
-0.0334757
-0.033223
-0.036785
-0.0395367
-0.041193
-0.0419427
-0.0409985
-0.0413825
-0.0419026
-0.0388151
-0.0378139
-0.0371031
-0.0377657
-0.0375718
-0.037669
-0.0379095
-0.0382685
-0.038255
-0.0369948
-0.0357374
-0.0346041
-0.0309455
-0.0279112
-0.0256999
0
0
0.00773662
0.0232202
0.0363126
0.0399389
0.0408644
0.0364648
0.0293617
0.0201227
0.00958646
-0.00145488
-0.011635
-0.0203156
-0.0263162
-0.0302643
-0.0326727
-0.0344694
-0.03464
-0.0358505
-0.0369718
-0.0370443
-0.0370412
-0.0371554
-0.0372898
-0.0374811
-0.0376909
-0.0378772
-0.0380219
-0.0381166
-0.038165
-0.0381994
-0.0383166
-0.0386988
-0.0392476
-0.0388925
-0.0375387
-0.0366607
-0.0361732
-0.0363624
-0.0383219
-0.0401399
-0.0414459
-0.0421443
-0.0420593
-0.0421095
-0.0416231
-0.0385314
-0.0388578
-0.0388592
-0.0391084
-0.0390256
-0.0388845
-0.0386935
-0.0383882
-0.0378089
-0.0368303
-0.0355645
-0.0339156
-0.0313767
-0.0290566
-0.0289613
0
0
0.00455807
0.0144581
0.0225328
0.0267138
0.0282104
0.0268701
0.0229784
0.0167826
0.00932587
0.000708395
-0.00814729
-0.0162009
-0.0225859
-0.0272965
-0.0309184
-0.0333789
-0.0342632
-0.035429
-0.0359791
-0.0365049
-0.0369986
-0.0374424
-0.0378285
-0.0381694
-0.0384648
-0.0386984
-0.0388856
-0.0390182
-0.0390888
-0.0391007
-0.0390847
-0.0392575
-0.0410483
-0.0400578
-0.0390065
-0.0383956
-0.0382432
-0.038634
-0.0396148
-0.0406612
-0.0415025
-0.0420319
-0.0422627
-0.0423925
-0.0421028
0
-0.039837
-0.040051
-0.0399886
-0.0398138
-0.0395473
-0.0391138
-0.0384442
-0.0376164
-0.0366321
-0.0354311
-0.0339689
-0.032161
-0.0297481
-0.0314933
-0.0724331
0
0.00259224
0.00869624
0.013601
0.0165405
0.0177881
0.0177298
0.0154897
0
0.00629055
-0.000153278
-0.00747493
-0.0145975
-0.0206358
-0.0254771
-0.0294789
-0.0330421
-0.0333073
-0.033538
-0.0350151
-0.0361712
-0.0371035
-0.0378293
-0.0384002
-0.0388686
-0.0392595
-0.039536
-0.0397799
-0.0399595
-0.0400482
-0.0400197
-0.039825
-0.0394889
-0.0919562
-0.0409825
-0.0401826
-0.039888
-0.0399341
-0.0402741
-0.0408311
-0.0414239
-0.0419214
-0.0422512
-0.0424396
-0.0423738
-0.0418089
-0.0400369
-0.0404888
-0.0407073
-0.040689
-0.0405442
-0.0402716
-0.0397291
-0.0387815
-0.0378124
-0.036862
-0.0358741
-0.0351314
-0.0357404
-0.037562
-0.0321214
0
0
0.0012606
0.00479089
0.0075384
0.00913612
0.00966359
0.00910119
0.00860774
0.00600385
0.00227908
-0.00285295
-0.00892313
-0.015188
-0.0204076
-0.0247912
-0.0287446
-0.0337069
-0.0323632
-0.033274
-0.0351162
-0.0365855
-0.0377809
-0.0386031
-0.0392321
-0.0397624
-0.040236
-0.0405246
-0.0408515
-0.0410943
-0.0412196
-0.0412187
-0.0411907
-0.0414023
-0.0429119
-0.0422678
-0.0417563
-0.0415433
-0.0415695
-0.0417794
-0.0420941
-0.0424251
-0.0427067
-0.0428988
-0.0429051
-0.0427688
-0.0423608
-0.0417012
-0.0415872
-0.0415721
-0.0415122
-0.041406
-0.0412134
-0.0406883
-0.0393811
-0.0383667
-0.0375262
-0.0366237
-0.0357026
-0.0654946
-0.0265138
-0.0315616
0
0
0.000305575
0.00201703
0.00321335
0.0037041
0.0036058
0.00305616
0.00234251
0.000583616
-0.00236557
-0.00656448
-0.0116672
-0.0178192
-0.0225859
-0.0248297
-0.0272286
-0.0270905
-0.0327953
-0.035706
-0.0370347
-0.0380608
-0.0391718
-0.0397798
-0.040314
-0.0408342
-0.0405246
-0.041808
-0.0421834
-0.0424717
-0.0426281
-0.0426001
-0.042586
-0.0427879
-0.0432961
-0.0432995
-0.0431825
-0.0431214
-0.0431516
-0.0432685
-0.0434372
-0.0436085
-0.0437417
-0.0438031
-0.04375
-0.0435884
-0.0433061
-0.0429689
-0.0427487
-0.0425925
-0.0424546
-0.0423446
-0.0422732
-0.0420423
-0.0400972
-0.0392884
-0.0387324
-0.0381226
-0.0375078
-0.036936
-0.0336062
-0.0324312
0
0
-0.000409337
-3.85019e-05
-1.62664e-05
-0.000450513
-0.00114786
-0.00197023
-0.00294682
-0.00455234
-0.00711824
-0.0106415
-0.0146214
-0.0174746
-0.0224526
-0.0258408
-0.0281307
-0.0296672
-0.0331824
-0.0358968
-0.0376788
-0.0388716
-0.0498087
-0.040871
-0.0414372
-0.0420273
-0.0426927
-0.0431482
-0.043641
-0.0440604
-0.0443084
-0.0441837
-0.0438635
-0.043992
-0.0443221
-0.044519
-0.0446029
-0.0446563
-0.0447077
-0.0447798
-0.0448665
-0.04494
-0.0449745
-0.0449489
-0.0448448
-0.0446686
-0.0444334
-0.0441725
-0.0439216
-0.0436749
-0.0434185
-0.0431657
-0.042982
-0.0428401
-0.0408425
-0.0407793
-0.0404528
-0.0399096
-0.0392667
-0.0383486
-0.0363642
-0.0337988
0
0
-0.000965577
-0.00162137
-0.00251875
-0.00379266
-0.0050655
-0.00630129
-0.00760281
-0.00932685
-0.0117837
-0.0149572
-0.0184543
-0.0217544
-0.0251868
-0.0280046
-0.0299662
-0.0320041
-0.0345117
-0.036774
-0.0385778
-0.0400291
-0.0412333
-0.042015
-0.0426812
-0.0432883
-0.0437442
-0.044567
-0.0452787
-0.045918
-0.0464284
-0.0466006
-0.0444257
-0.0450327
-0.0456202
-0.0459417
-0.046103
-0.0461929
-0.0462909
-0.0463456
-0.0463919
-0.0464026
-0.0463681
-0.0462802
-0.04612
-0.0459147
-0.0456785
-0.0454208
-0.0451395
-0.0448136
-0.044404
-0.043851
-0.0430009
-0.0419615
-0.0441428
-0.0434987
-0.0426311
-0.0418316
-0.0410356
-0.0399748
-0.0381306
-0.0352652
0
0
-0.00141766
-0.00289343
-0.00451513
-0.00935936
-0.00839354
-0.0101098
-0.0118012
-0.0137745
-0.0162842
-0.0193097
-0.0225181
-0.0255847
-0.0284254
-0.0308817
-0.0318909
-0.0340996
-0.0363145
-0.0382726
-0.0399319
-0.0412277
-0.0424867
-0.0433557
-0.0440698
-0.0447293
-0.0453992
-0.0462149
-0.0471116
-0.0480142
-0.0487927
-0.0491358
0
-0.0467941
-0.0473593
-0.0475761
-0.0476952
-0.0477872
-0.0478769
-0.047981
-0.0480158
-0.0479811
-0.0478942
-0.0477708
-0.0475276
-0.0472752
-0.0470177
-0.046747
-0.046444
-0.046072
-0.045596
-0.0450732
-0.0444659
-0.0441152
-0.0450037
-0.0448916
-0.0442928
-0.0435538
-0.0427262
-0.041603
-0.0397067
-0.0367138
0
0
-0.00180663
-0.00399084
-0.00634215
-0.00889701
-0.0113288
-0.0135551
-0.0156733
-0.0179514
-0.0205988
-0.0235942
-0.0265894
-0.0293612
-0.031877
-0.0343622
0
-0.0365006
-0.0385055
-0.0402043
-0.0417569
-0.0429753
-0.0439965
-0.0448135
-0.0455217
-0.0462092
-0.0469645
-0.0478945
-0.0490663
-0.050348
-0.0513708
-0.0505572
-0.0483856
-0.0485136
-0.048815
-0.0490459
-0.0492239
-0.0493827
-0.0495371
-0.0496856
-0.0497306
-0.0496535
-0.049516
-0.0494704
-0.049018
-0.0487096
-0.0484319
-0.0481571
-0.0478573
-0.0474757
-0.0469549
-0.0466356
-0.046312
-0.0461297
-0.0462585
-0.0461385
-0.0457236
-0.0451138
-0.0443167
-0.0431843
-0.0412234
-0.0381173
0
0
-0.00214901
-0.00494635
-0.00790895
-0.0109022
-0.0139633
-0.0167073
-0.019271
-0.0218909
-0.0247188
-0.0287091
-0.0305805
-0.0330621
-0.0351498
-0.0368545
-0.0374632
-0.0391265
-0.0407265
-0.0422133
-0.0439298
-0.0449833
-0.0457568
-0.0464164
-0.0470403
-0.0476857
-0.0484394
-0.0494592
-0.0510105
-0.0530793
-0.056078
-0.0530321
-0.0509812
-0.0503981
-0.0503859
-0.0505432
-0.050753
-0.0509978
-0.0512483
-0.051534
-0.051604
-0.0514278
-0.0510842
-0.0504725
-0.0504092
-0.0501656
-0.0498968
-0.0496384
-0.0493774
-0.0490243
-0.0483175
-0.0483475
-0.0481924
-0.0479727
-0.047772
-0.0475639
-0.0472025
-0.0466659
-0.045827
-0.0447388
-0.0427003
-0.0394656
0
0
-0.00245877
-0.00580228
-0.00935936
-0.0130854
-0.0164693
-0.0196616
-0.0226617
-0.0256433
-0.0287091
-0.0317648
-0.0344909
-0.0367388
-0.0385087
-0.0398803
-0.0408801
-0.0420325
-0.0431737
-0.0442929
-0.0467306
-0.0472346
-0.0476292
-0.0480954
-0.0485953
-0.0491305
-0.0497471
-0.0506159
-0.0522691
-0.0390888
-0.0689706
-0.0551618
-0.0522454
-0.0517029
-0.0517448
-0.0519498
-0.0522431
-0.0526478
-0.0532064
-0.0536494
-0.0537794
-0.0534133
-0.0528839
-0.052358
-0.0520018
-0.0516846
-0.0513976
-0.0511589
-0.0509651
-0.0507492
-0.0391084
-0.0502516
-0.0500982
-0.0497741
-0.0493051
-0.0491609
-0.048818
-0.0483834
-0.0477771
-0.0463863
-0.0441617
-0.0407452
0
0
-0.00274699
-0.0065534
-0.0106242
-0.0147874
-0.0187571
-0.0224357
-0.0258819
-0.0292327
-0.0325421
-0.0356599
-0.0383188
-0.040397
-0.0419514
-0.043131
-0.0440823
-0.044967
-0.0457245
-0.0461448
-0.0929329
-0.0493115
-0.049452
-0.0498087
-0.0502094
-0.0505781
-0.0508788
-0.0509886
-0.0503719
-0.0463848
-0.027457
-0.0454105
-0.0503315
-0.0519584
-0.052679
-0.0531552
-0.0536111
-0.0542168
-0.0550948
-0.0561428
-0.0565996
-0.0556989
-0.054768
-0.0540789
-0.0535907
-0.0532123
-0.0528939
-0.0526592
-0.0524567
-0.0522268
-0.0518511
-0.0521277
-0.051964
-0.0516924
-0.0516402
-0.0510028
-0.0504984
-0.0501596
-0.0494026
-0.0480469
-0.0456199
-0.0419223
0
0
-0.00305195
-0.00719394
-0.0117985
-0.0164762
-0.0209507
-0.0250715
-0.0289587
-0.0326829
-0.036246
-0.0394608
-0.0420677
-0.0440248
-0.0454356
-0.0464754
-0.0472926
-0.0480102
-0.0486852
-0.0494409
-0.0512147
-0.0514253
-0.0515793
-0.0517949
-0.052019
-0.052188
-0.0522071
-0.0518845
-0.0507993
-0.0483233
-0.044612
-0.0485547
-0.0513091
-0.0528285
-0.0537099
-0.0543302
-0.0548627
-0.0556181
-0.0569483
-0.0592253
-0.0613746
-0.0583856
-0.0565499
-0.0556086
-0.0550634
-0.0546822
-0.0543427
-0.0541503
-0.0539701
-0.0538181
-0.053842
-0.0543556
-0.0539067
-0.0534785
-0.0532028
-0.052777
-0.0518678
-0.0521531
-0.0513488
-0.0499908
-0.0472508
-0.0429203
0
0
-0.00344835
-3.85019e-05
-0.0129788
-0.0181701
-0.0231189
-0.0275475
-0.0319042
-0.0360132
-0.0398467
-0.0431819
-0.0457067
-0.047589
-0.0489327
-0.0498875
-0.0505523
-0.0510991
-0.051643
-0.0522783
-0.0530664
-0.0534463
-0.0536637
-0.0538252
-0.0539435
-0.0539831
-0.0538717
-0.0534849
-0.0526565
-0.051753
-0.0515588
-0.0525315
-0.053582
-0.0544182
-0.055073
-0.0556184
-0.055972
-0.0565813
-0.0579393
-0.0618429
-0.0741422
-0.0605327
-0.0574633
-0.0566201
-0.0562675
-0.0560325
-0.0543427
-0.0556421
-0.0554881
-0.0553514
-0.0555637
-0.0570719
-0.0558193
-0.0552175
-0.0550505
-0.0551474
-0.0561035
-0.0549364
-0.0538089
-0.0526937
-0.0497455
-0.0435739
0
0
-0.00355456
-0.00857823
-0.0141004
-0.0198607
-0.0253307
-0.0301949
-0.0347925
-0.0392562
-0.043392
-0.0468813
-0.0491385
-0.0510397
-0.0524389
-0.0533972
-0.0538542
-0.0541821
-0.0545483
-0.0550275
-0.0554469
-0.0557006
-0.0558487
-0.0559375
-0.0559764
-0.0559477
-0.0558174
-0.0555489
-0.0551417
-0.0545295
-0.055924
-0.0557846
-0.0559048
-0.0562356
-0.0566155
-0.0569965
-0.0569301
-0.0568713
-0.0560552
-0.0519146
-0.0318784
-0.0505409
-0.0552626
-0.0566845
-0.0571082
-0.0572039
-0.0571552
-0.0571255
-0.0570239
-0.0568407
-0.0568548
-0.0953262
-0.0573178
-0.0568813
-0.0568895
-0.0569913
-0.0570844
-0.0567138
-0.0571029
-0.0567017
-0.0559227
-0.054575
0
0
-0.0037515
-0.00928537
-0.015199
-0.0217042
-0.0276623
-0.0321134
-0.0374385
-0.0424637
-0.0469746
-0.0507416
-0.0520894
-0.0543665
-0.0560074
-0.0570873
-0.0571486
-0.0572121
-0.0574122
-0.0579027
-0.0581034
-0.0581655
-0.0581752
-0.0581598
-0.0581168
-0.0580394
-0.057921
-0.0577586
-0.0574706
-0.0566849
-0.100307
-0.0581835
-0.0579596
-0.0580671
-0.0582176
-0.058192
-0.058359
-0.0578454
-0.0564921
-0.0536275
-0.0493788
-0.0531221
-0.056065
-0.0574635
-0.0581217
-0.0584466
-0.0586032
-0.0586923
-0.0587296
-0.0587729
-0.0590805
-0.0602333
-0.0593439
-0.0589558
-0.0589056
-0.058949
-0.0589664
-0.0590349
-0.0593717
-0.0592866
-0.0582301
-0.0552217
0
0
-0.00398135
-0.0099322
-0.0161079
-0.0357095
-0.0302323
0
-0.0402517
-0.0457517
-0.0506232
-0.0549923
-0.00747493
-0.0579048
-0.05966
-0.0609388
-0.0603079
-0.060225
-0.0602745
-0.0611513
-0.0609785
-0.0607683
-0.0606139
-0.0604788
-0.0603424
-0.0602066
-0.0600914
-0.0601117
-0.0605676
-0.0597735
-0.0608099
-0.0604037
-0.0601753
-0.0601565
-0.0602076
-0.0601592
-0.0599729
-0.059395
-0.0583635
-0.0569902
-0.0560707
-0.0568967
-0.0580753
-0.0589347
-0.0594811
-0.0598836
-0.0601474
-0.0603369
-0.0604817
-0.0606234
-0.0608395
-0.0611312
-0.060952
-0.0608728
-0.0609126
-0.0609788
-0.0609717
-0.0611187
-0.0613175
-0.0611108
-0.059707
-0.0562237
0
0
-0.00423224
-0.0106372
-0.0174176
-0.0247566
-0.0315364
-0.0370084
-0.0431628
-0.0488464
-0.053796
-0.0577124
-0.0593839
-0.0613891
-0.0625626
-0.0635817
-0.0640835
-0.0637473
-0.0632464
-0.0889408
-0.0638136
-0.0633843
-0.0631073
-0.0628694
-0.0626173
-0.062389
-0.062157
-0.0617766
-0.0605065
-0.0615856
-0.0621162
-0.0621735
-0.0621546
-0.0622275
-0.0623983
-0.062453
-0.0620225
-0.0614075
-0.0606545
-0.0599645
-0.059673
-0.0598927
-0.0603473
-0.060782
-0.0610351
-0.0615237
-0.0618248
-0.062052
-0.0622437
-0.0624038
-0.0625266
-0.0625575
-0.0625105
-0.062665
-0.062843
-0.0629952
-0.0628707
-0.0630135
-0.0630765
-0.0626588
-0.0610673
-0.0574092
0
0
-0.00447982
-0.0113133
-0.0185434
-0.0260227
-0.0332354
-0.0398492
-0.0461986
-0.0520462
-0.0570788
-0.061048
-0.0635538
-0.0649109
-0.0647509
-0.120421
-0.067383
-0.066902
-0.0666119
-0.0669837
-0.0665336
-0.06609
-0.0657066
-0.0653368
-0.0649095
-0.0645935
-0.0643278
-0.064016
-0.063644
-0.0637617
-0.0639202
-0.0639704
-0.0640227
-0.0642315
-0.0647576
-0.0654003
-0.0643599
-0.0636257
-0.0629188
-0.0624626
-0.0622892
-0.0623483
-0.0625516
-0.0628475
-0.0633756
-0.0634312
-0.0636439
-0.0638251
-0.0640204
-0.064188
-0.0642767
-0.0641606
-0.0640185
-0.0643713
-0.0646488
-0.0649465
-0.0646867
-0.0648789
-0.0647598
-0.0640403
-0.0624317
-0.0587155
0
0
-0.00472131
-0.0119681
-0.019621
-0.0274716
-0.0351674
-0.0424243
-0.0491487
-0.055316
-0.0605865
-0.0647486
-0.0675335
-0.0689646
-0.0694378
-0.0708166
-0.0704823
-0.0700156
-0.0695895
-0.0694504
-0.069103
-0.0686895
-0.0682744
-0.0678232
-0.0670966
-0.0667688
-0.0665543
-0.0663237
-0.066091
-0.0659039
-0.0658606
-0.0657839
-0.0657573
-0.0659722
-0.0669832
-0.0707791
-0.0665513
-0.0659074
-0.0649025
-0.0645834
-0.0644781
-0.0645016
-0.0645988
-0.0647524
-0.0650182
-0.0652396
-0.0654558
-0.0656568
-0.065824
-0.0660124
-0.0661374
-0.0658366
-0.0653959
-0.0659732
-0.0662348
-0.0662975
-0.0670435
-0.0669721
-0.0664562
-0.0651117
-0.0638135
-0.0601262
0
0
-0.00496124
-0.0126222
-0.0207128
-0.0290178
-0.0372176
-0.0450011
-0.0519905
-0.0586737
-0.0643477
-0.068782
-0.0715564
-0.072883
-0.0734337
-0.0737349
-0.0735014
-0.0730034
-0.0721595
-0.0721287
-0.0717329
-0.0712838
-0.070857
-0.070403
-0.0689852
-0.0689105
-0.0688358
-0.0686286
-0.068372
-0.0679959
-0.067747
-0.0675215
-0.0672403
-0.0668937
-0.0656345
-0.0590282
-0.0645068
-0.0649387
-0.0660779
-0.0663253
-0.066415
-0.0664788
-0.0665213
-0.0665282
-0.0667437
-0.067023
-0.0672718
-0.0674643
-0.0676395
-0.0678534
-0.0680927
-0.0675705
-0.0661489
-0.0680348
-0.0682845
-0.0684086
-0.0687991
-0.0688644
-0.0681691
-0.0654946
-0.0653216
-0.0616287
0
0
-0.00520231
-0.0132848
-0.021832
-0.0306294
-0.0393607
-0.0477106
-0.05567
-0.0621883
-0.067973
-0.0725051
-0.0753562
-0.0767586
-0.0771976
-0.0771415
-0.0767934
-0.0763702
-0.076407
-0.0752267
-0.0744808
-0.0738905
-0.0734471
-0.0732086
-0.0420273
-0.0712989
-0.0712313
-0.0709176
-0.070565
-0.0659039
-0.069689
-0.0693257
-0.0686897
-0.0683898
-0.0674381
-0.0659165
-0.0668096
-0.0673203
-0.0678273
-0.0681135
-0.0682864
-0.068399
-0.0683933
-0.068119
-0.0684325
-0.0688077
-0.0690881
-0.0692805
-0.0694283
-0.069556
-0.0696757
-0.0701099
-0.0270684
-0.0810419
-0.0703591
-0.0703928
-0.0706148
-0.0707984
-0.0703507
-0.0205467
-0.0673504
-0.0631563
0
0
-0.00544341
-0.0139534
-0.0229726
-0.0322846
-0.0415562
-0.0504343
-0.058612
-0.0652607
-0.0713335
-0.0760833
-0.0791183
-0.0805683
-0.0809203
-0.0806723
-0.080163
-0.0795645
-0.0788829
-0.0779344
-0.0770892
-0.0763767
-0.0757677
-0.0750836
-0.0738721
-0.0736787
-0.0734764
-0.0729735
-0.0724739
-0.0719519
-0.0716332
-0.0713619
-0.0713865
-0.0705238
-0.0698406
-0.069339
-0.0693915
-0.0695797
-0.0698088
-0.0700119
-0.070195
-0.0703579
-0.0703371
-0.0693738
-0.0701277
-0.0706563
-0.0709445
-0.0711196
-0.0712457
-0.0713457
-0.0714185
-0.0713872
-0.0704048
-0.0718081
-0.0720685
-0.072174
-0.072267
-0.0722145
-0.0715509
-0.0693992
-0.0685419
-0.0645491
0
0
-0.00567902
-0.0146152
-0.0241211
-0.033977
-0.0438148
-0.0532662
-0.0620002
-0.0678801
-0.0746317
-0.0797978
-0.0830006
-0.0844451
-0.084663
-0.0842342
-0.0835565
-0.0828065
-0.0817176
-0.0805528
-0.0795775
-0.0787778
-0.0781432
-0.0775441
-0.0766689
-0.0761685
-0.0758414
-0.0749207
-0.0743341
-0.0739116
-0.0735839
-0.0732838
-0.0729921
-0.0725162
-0.0720761
-0.0717789
-0.0716768
-0.0717013
-0.0717969
-0.071932
-0.0721057
-0.0723386
-0.0725225
-0.0449489
-0.0721063
-0.0725941
-0.0728155
-0.0729622
-0.0730821
-0.0731789
-0.0732406
-0.0732294
-0.0731147
-0.0735179
-0.07376
-0.0738882
-0.073935
-0.0738188
-0.0732592
-0.0722517
-0.0702929
-0.0659934
0
0
-0.00589656
-0.0152411
-0.0252568
-0.0357095
-0.046138
-0.0562272
-0.0660056
-0.0168827
-0.0784813
-0.0838863
-0.0871177
-0.0883858
-0.0884037
-0.0877546
-0.0869164
-0.086225
-0.0845559
-0.0830043
-0.0819399
-0.0810931
-0.0805523
-0.0798216
-0.0790236
-0.0783861
-0.0780966
-0.0766465
-0.0762213
-0.0759168
-0.0755908
-0.0752454
-0.0748799
-0.0744895
-0.0741379
-0.0738798
-0.0737343
-0.0736889
-0.0737194
-0.0738045
-0.0739252
-0.07404
-0.0739846
-0.073285
-0.0738552
-0.0742831
-0.0745609
-0.0747631
-0.0749221
-0.0750449
-0.0751299
-0.0751809
-0.0752375
-0.0753942
-0.075544
-0.0756522
-0.0757063
-0.0756917
-0.0756245
-0.0744931
-0.0721118
-0.0675179
0
0
-0.00607057
-0.0157643
-0.0263705
-0.0375074
-0.048478
-0.0589217
-0.0684075
-0.0754345
-0.0826818
-0.0880683
-0.0910776
-0.0922133
-0.0920438
-0.0911759
-0.0899443
-0.0900009
-0.0870731
-0.0852012
-0.0842525
-0.0833566
-0.0831649
-0.0821669
-0.0811413
-0.0801031
-0.078737
-0.0791541
-0.0786932
-0.0781624
-0.0776815
-0.0772354
-0.0768134
-0.076419
-0.0760754
-0.0758085
-0.0756372
-0.0755608
-0.0755637
-0.0756263
-0.0757236
-0.0758084
-0.0757942
-0.0756405
-0.0758002
-0.0760596
-0.0763309
-0.0765788
-0.0767866
-0.0769446
-0.0770527
-0.0771268
-0.0771959
-0.0772826
-0.0773793
-0.0774669
-0.0775145
-0.0774912
-0.0772938
-0.0763839
-0.0738635
-0.0690943
0
0
-0.00616337
-0.0159989
-0.0276661
-0.0393826
-0.0509282
-0.0618378
-0.0716967
-0.0800732
-0.0871955
-0.0923712
-0.0952551
-0.0961679
-0.0957694
-0.0948283
-0.0946276
-0.09418
-0.0889408
-0.0878612
-0.0867824
-0.0856722
-0.103739
-0.0844217
-0.0832783
-0.0821945
-0.0810282
-0.0807383
-0.080397
-0.0799795
-0.0795325
-0.0790862
-0.0786555
-0.0782542
-0.0778965
-0.0776018
-0.0774103
-0.0773261
-0.07733
-0.0774022
-0.0775244
-0.0776569
-0.0777138
-0.077632
-0.0776587
-0.0778474
-0.0781351
-0.0784362
-0.0786986
-0.078891
-0.079007
-0.0790733
-0.0791183
-0.0791662
-0.0792355
-0.079316
-0.0793401
-0.0792681
-0.0790499
-0.0782002
-0.0755969
-0.0707007
0
0
-0.0062771
-0.0151162
-0.0290662
-0.0416751
-0.053763
-0.0651484
-0.0754797
-0.0844535
-0.0917217