# vtk DataFile Version 2.0
FlowField
ASCII
DATASET STRUCTURED_GRID
DIMENSIONS 62 47 32 
POINTS 93248 double
0 0 0
0.01 0 0
0.02 0 0
0.03 0 0
0.04 0 0
0.05 0 0
0.06 0 0
0.07 0 0
0.08 0 0
0.09 0 0
0.1 0 0
0.11 0 0
0.12 0 0
0.13 0 0
0.14 0 0
0.15 0 0
0.16 0 0
0.17 0 0
0.18 0 0
0.19 0 0
0.2 0 0
0.21 0 0
0.22 0 0
0.23 0 0
0.24 0 0
0.25 0 0
0.26 0 0
0.27 0 0
0.28 0 0
0.29 0 0
0.3 0 0
0.31 0 0
0.32 0 0
0.33 0 0
0.34 0 0
0.35 0 0
0.36 0 0
0.37 0 0
0.38 0 0
0.39 0 0
0.4 0 0
0.41 0 0
0.42 0 0
0.43 0 0
0.44 0 0
0.45 0 0
0.46 0 0
0.47 0 0
0.48 0 0
0.49 0 0
0.5 0 0
0.51 0 0
0.52 0 0
0.53 0 0
0.54 0 0
0.55 0 0
0.56 0 0
0.57 0 0
0.58 0 0
0.59 0 0
0.6 0 0
0.61 0 0
0 0.01 0
0.01 0.01 0
0.02 0.01 0
0.03 0.01 0
0.04 0.01 0
0.05 0.01 0
0.06 0.01 0
0.07 0.01 0
0.08 0.01 0
0.09 0.01 0
0.1 0.01 0
0.11 0.01 0
0.12 0.01 0
0.13 0.01 0
0.14 0.01 0
0.15 0.01 0
0.16 0.01 0
0.17 0.01 0
0.18 0.01 0
0.19 0.01 0
0.2 0.01 0
0.21 0.01 0
0.22 0.01 0
0.23 0.01 0
0.24 0.01 0
0.25 0.01 0
0.26 0.01 0
0.27 0.01 0
0.28 0.01 0
0.29 0.01 0
0.3 0.01 0
0.31 0.01 0
0.32 0.01 0
0.33 0.01 0
0.34 0.01 0
0.35 0.01 0
0.36 0.01 0
0.37 0.01 0
0.38 0.01 0
0.39 0.01 0
0.4 0.01 0
0.41 0.01 0
0.42 0.01 0
0.43 0.01 0
0.44 0.01 0
0.45 0.01 0
0.46 0.01 0
0.47 0.01 0
0.48 0.01 0
0.49 0.01 0
0.5 0.01 0
0.51 0.01 0
0.52 0.01 0
0.53 0.01 0
0.54 0.01 0
0.55 0.01 0
0.56 0.01 0
0.57 0.01 0
0.58 0.01 0
0.59 0.01 0
0.6 0.01 0
0.61 0.01 0
0 0.02 0
0.01 0.02 0
0.02 0.02 0
0.03 0.02 0
0.04 0.02 0
0.05 0.02 0
0.06 0.02 0
0.07 0.02 0
0.08 0.02 0
0.09 0.02 0
0.1 0.02 0
0.11 0.02 0
0.12 0.02 0
0.13 0.02 0
0.14 0.02 0
0.15 0.02 0
0.16 0.02 0
0.17 0.02 0
0.18 0.02 0
0.19 0.02 0
0.2 0.02 0
0.21 0.02 0
0.22 0.02 0
0.23 0.02 0
0.24 0.02 0
0.25 0.02 0
0.26 0.02 0
0.27 0.02 0
0.28 0.02 0
0.29 0.02 0
0.3 0.02 0
0.31 0.02 0
0.32 0.02 0
0.33 0.02 0
0.34 0.02 0
0.35 0.02 0
0.36 0.02 0
0.37 0.02 0
0.38 0.02 0
0.39 0.02 0
0.4 0.02 0
0.41 0.02 0
0.42 0.02 0
0.43 0.02 0
0.44 0.02 0
0.45 0.02 0
0.46 0.02 0
0.47 0.02 0
0.48 0.02 0
0.49 0.02 0
0.5 0.02 0
0.51 0.02 0
0.52 0.02 0
0.53 0.02 0
0.54 0.02 0
0.55 0.02 0
0.56 0.02 0
0.57 0.02 0
0.58 0.02 0
0.59 0.02 0
0.6 0.02 0
0.61 0.02 0
0 0.03 0
0.01 0.03 0
0.02 0.03 0
0.03 0.03 0
0.04 0.03 0
0.05 0.03 0
0.06 0.03 0
0.07 0.03 0
0.08 0.03 0
0.09 0.03 0
0.1 0.03 0
0.11 0.03 0
0.12 0.03 0
0.13 0.03 0
0.14 0.03 0
0.15 0.03 0
0.16 0.03 0
0.17 0.03 0
0.18 0.03 0
0.19 0.03 0
0.2 0.03 0
0.21 0.03 0
0.22 0.03 0
0.23 0.03 0
0.24 0.03 0
0.25 0.03 0
0.26 0.03 0
0.27 0.03 0
0.28 0.03 0
0.29 0.03 0
0.3 0.03 0
0.31 0.03 0
0.32 0.03 0
0.33 0.03 0
0.34 0.03 0
0.35 0.03 0
0.36 0.03 0
0.37 0.03 0
0.38 0.03 0
0.39 0.03 0
0.4 0.03 0
0.41 0.03 0
0.42 0.03 0
0.43 0.03 0
0.44 0.03 0
0.45 0.03 0
0.46 0.03 0
0.47 0.03 0
0.48 0.03 0
0.49 0.03 0
0.5 0.03 0
0.51 0.03 0
0.52 0.03 0
0.53 0.03 0
0.54 0.03 0
0.55 0.03 0
0.56 0.03 0
0.57 0.03 0
0.58 0.03 0
0.59 0.03 0
0.6 0.03 0
0.61 0.03 0
0 0.04 0
0.01 0.04 0
0.02 0.04 0
0.03 0.04 0
0.04 0.04 0
0.05 0.04 0
0.06 0.04 0
0.07 0.04 0
0.08 0.04 0
0.09 0.04 0
0.1 0.04 0
0.11 0.04 0
0.12 0.04 0
0.13 0.04 0
0.14 0.04 0
0.15 0.04 0
0.16 0.04 0
0.17 0.04 0
0.18 0.04 0
0.19 0.04 0
0.2 0.04 0
0.21 0.04 0
0.22 0.04 0
0.23 0.04 0
0.24 0.04 0
0.25 0.04 0
0.26 0.04 0
0.27 0.04 0
0.28 0.04 0
0.29 0.04 0
0.3 0.04 0
0.31 0.04 0
0.32 0.04 0
0.33 0.04 0
0.34 0.04 0
0.35 0.04 0
0.36 0.04 0
0.37 0.04 0
0.38 0.04 0
0.39 0.04 0
0.4 0.04 0
0.41 0.04 0
0.42 0.04 0
0.43 0.04 0
0.44 0.04 0
0.45 0.04 0
0.46 0.04 0
0.47 0.04 0
0.48 0.04 0
0.49 0.04 0
0.5 0.04 0
0.51 0.04 0
0.52 0.04 0
0.53 0.04 0
0.54 0.04 0
0.55 0.04 0
0.56 0.04 0
0.57 0.04 0
0.58 0.04 0
0.59 0.04 0
0.6 0.04 0
0.61 0.04 0
0 0.05 0
0.01 0.05 0
0.02 0.05 0
0.03 0.05 0
0.04 0.05 0
0.05 0.05 0
0.06 0.05 0
0.07 0.05 0
0.08 0.05 0
0.09 0.05 0
0.1 0.05 0
0.11 0.05 0
0.12 0.05 0
0.13 0.05 0
0.14 0.05 0
0.15 0.05 0
0.16 0.05 0
0.17 0.05 0
0.18 0.05 0
0.19 0.05 0
0.2 0.05 0
0.21 0.05 0
0.22 0.05 0
0.23 0.05 0
0.24 0.05 0
0.25 0.05 0
0.26 0.05 0
0.27 0.05 0
0.28 0.05 0
0.29 0.05 0
0.3 0.05 0
0.31 0.05 0
0.32 0.05 0
0.33 0.05 0
0.34 0.05 0
0.35 0.05 0
0.36 0.05 0
0.37 0.05 0
0.38 0.05 0
0.39 0.05 0
0.4 0.05 0
0.41 0.05 0
0.42 0.05 0
0.43 0.05 0
0.44 0.05 0
0.45 0.05 0
0.46 0.05 0
0.47 0.05 0
0.48 0.05 0
0.49 0.05 0
0.5 0.05 0
0.51 0.05 0
0.52 0.05 0
0.53 0.05 0
0.54 0.05 0
0.55 0.05 0
0.56 0.05 0
0.57 0.05 0
0.58 0.05 0
0.59 0.05 0
0.6 0.05 0
0.61 0.05 0
0 0.06 0
0.01 0.06 0
0.02 0.06 0
0.03 0.06 0
0.04 0.06 0
0.05 0.06 0
0.06 0.06 0
0.07 0.06 0
0.08 0.06 0
0.09 0.06 0
0.1 0.06 0
0.11 0.06 0
0.12 0.06 0
0.13 0.06 0
0.14 0.06 0
0.15 0.06 0
0.16 0.06 0
0.17 0.06 0
0.18 0.06 0
0.19 0.06 0
0.2 0.06 0
0.21 0.06 0
0.22 0.06 0
0.23 0.06 0
0.24 0.06 0
0.25 0.06 0
0.26 0.06 0
0.27 0.06 0
0.28 0.06 0
0.29 0.06 0
0.3 0.06 0
0.31 0.06 0
0.32 0.06 0
0.33 0.06 0
0.34 0.06 0
0.35 0.06 0
0.36 0.06 0
0.37 0.06 0
0.38 0.06 0
0.39 0.06 0
0.4 0.06 0
0.41 0.06 0
0.42 0.06 0
0.43 0.06 0
0.44 0.06 0
0.45 0.06 0
0.46 0.06 0
0.47 0.06 0
0.48 0.06 0
0.49 0.06 0
0.5 0.06 0
0.51 0.06 0
0.52 0.06 0
0.53 0.06 0
0.54 0.06 0
0.55 0.06 0
0.56 0.06 0
0.57 0.06 0
0.58 0.06 0
0.59 0.06 0
0.6 0.06 0
0.61 0.06 0
0 0.07 0
0.01 0.07 0
0.02 0.07 0
0.03 0.07 0
0.04 0.07 0
0.05 0.07 0
0.06 0.07 0
0.07 0.07 0
0.08 0.07 0
0.09 0.07 0
0.1 0.07 0
0.11 0.07 0
0.12 0.07 0
0.13 0.07 0
0.14 0.07 0
0.15 0.07 0
0.16 0.07 0
0.17 0.07 0
0.18 0.07 0
0.19 0.07 0
0.2 0.07 0
0.21 0.07 0
0.22 0.07 0
0.23 0.07 0
0.24 0.07 0
0.25 0.07 0
0.26 0.07 0
0.27 0.07 0
0.28 0.07 0
0.29 0.07 0
0.3 0.07 0
0.31 0.07 0
0.32 0.07 0
0.33 0.07 0
0.34 0.07 0
0.35 0.07 0
0.36 0.07 0
0.37 0.07 0
0.38 0.07 0
0.39 0.07 0
0.4 0.07 0
0.41 0.07 0
0.42 0.07 0
0.43 0.07 0
0.44 0.07 0
0.45 0.07 0
0.46 0.07 0
0.47 0.07 0
0.48 0.07 0
0.49 0.07 0
0.5 0.07 0
0.51 0.07 0
0.52 0.07 0
0.53 0.07 0
0.54 0.07 0
0.55 0.07 0
0.56 0.07 0
0.57 0.07 0
0.58 0.07 0
0.59 0.07 0
0.6 0.07 0
0.61 0.07 0
0 0.08 0
0.01 0.08 0
0.02 0.08 0
0.03 0.08 0
0.04 0.08 0
0.05 0.08 0
0.06 0.08 0
0.07 0.08 0
0.08 0.08 0
0.09 0.08 0
0.1 0.08 0
0.11 0.08 0
0.12 0.08 0
0.13 0.08 0
0.14 0.08 0
0.15 0.08 0
0.16 0.08 0
0.17 0.08 0
0.18 0.08 0
0.19 0.08 0
0.2 0.08 0
0.21 0.08 0
0.22 0.08 0
0.23 0.08 0
0.24 0.08 0
0.25 0.08 0
0.26 0.08 0
0.27 0.08 0
0.28 0.08 0
0.29 0.08 0
0.3 0.08 0
0.31 0.08 0
0.32 0.08 0
0.33 0.08 0
0.34 0.08 0
0.35 0.08 0
0.36 0.08 0
0.37 0.08 0
0.38 0.08 0
0.39 0.08 0
0.4 0.08 0
0.41 0.08 0
0.42 0.08 0
0.43 0.08 0
0.44 0.08 0
0.45 0.08 0
0.46 0.08 0
0.47 0.08 0
0.48 0.08 0
0.49 0.08 0
0.5 0.08 0
0.51 0.08 0
0.52 0.08 0
0.53 0.08 0
0.54 0.08 0
0.55 0.08 0
0.56 0.08 0
0.57 0.08 0
0.58 0.08 0
0.59 0.08 0
0.6 0.08 0
0.61 0.08 0
0 0.09 0
0.01 0.09 0
0.02 0.09 0
0.03 0.09 0
0.04 0.09 0
0.05 0.09 0
0.06 0.09 0
0.07 0.09 0
0.08 0.09 0
0.09 0.09 0
0.1 0.09 0
0.11 0.09 0
0.12 0.09 0
0.13 0.09 0
0.14 0.09 0
0.15 0.09 0
0.16 0.09 0
0.17 0.09 0
0.18 0.09 0
0.19 0.09 0
0.2 0.09 0
0.21 0.09 0
0.22 0.09 0
0.23 0.09 0
0.24 0.09 0
0.25 0.09 0
0.26 0.09 0
0.27 0.09 0
0.28 0.09 0
0.29 0.09 0
0.3 0.09 0
0.31 0.09 0
0.32 0.09 0
0.33 0.09 0
0.34 0.09 0
0.35 0.09 0
0.36 0.09 0
0.37 0.09 0
0.38 0.09 0
0.39 0.09 0
0.4 0.09 0
0.41 0.09 0
0.42 0.09 0
0.43 0.09 0
0.44 0.09 0
0.45 0.09 0
0.46 0.09 0
0.47 0.09 0
0.48 0.09 0
0.49 0.09 0
0.5 0.09 0
0.51 0.09 0
0.52 0.09 0
0.53 0.09 0
0.54 0.09 0
0.55 0.09 0
0.56 0.09 0
0.57 0.09 0
0.58 0.09 0
0.59 0.09 0
0.6 0.09 0
0.61 0.09 0
0 0.1 0
0.01 0.1 0
0.02 0.1 0
0.03 0.1 0
0.04 0.1 0
0.05 0.1 0
0.06 0.1 0
0.07 0.1 0
0.08 0.1 0
0.09 0.1 0
0.1 0.1 0
0.11 0.1 0
0.12 0.1 0
0.13 0.1 0
0.14 0.1 0
0.15 0.1 0
0.16 0.1 0
0.17 0.1 0
0.18 0.1 0
0.19 0.1 0
0.2 0.1 0
0.21 0.1 0
0.22 0.1 0
0.23 0.1 0
0.24 0.1 0
0.25 0.1 0
0.26 0.1 0
0.27 0.1 0
0.28 0.1 0
0.29 0.1 0
0.3 0.1 0
0.31 0.1 0
0.32 0.1 0
0.33 0.1 0
0.34 0.1 0
0.35 0.1 0
0.36 0.1 0
0.37 0.1 0
0.38 0.1 0
0.39 0.1 0
0.4 0.1 0
0.41 0.1 0
0.42 0.1 0
0.43 0.1 0
0.44 0.1 0
0.45 0.1 0
0.46 0.1 0
0.47 0.1 0
0.48 0.1 0
0.49 0.1 0
0.5 0.1 0
0.51 0.1 0
0.52 0.1 0
0.53 0.1 0
0.54 0.1 0
0.55 0.1 0
0.56 0.1 0
0.57 0.1 0
0.58 0.1 0
0.59 0.1 0
0.6 0.1 0
0.61 0.1 0
0 0.11 0
0.01 0.11 0
0.02 0.11 0
0.03 0.11 0
0.04 0.11 0
0.05 0.11 0
0.06 0.11 0
0.07 0.11 0
0.08 0.11 0
0.09 0.11 0
0.1 0.11 0
0.11 0.11 0
0.12 0.11 0
0.13 0.11 0
0.14 0.11 0
0.15 0.11 0
0.16 0.11 0
0.17 0.11 0
0.18 0.11 0
0.19 0.11 0
0.2 0.11 0
0.21 0.11 0
0.22 0.11 0
0.23 0.11 0
0.24 0.11 0
0.25 0.11 0
0.26 0.11 0
0.27 0.11 0
0.28 0.11 0
0.29 0.11 0
0.3 0.11 0
0.31 0.11 0
0.32 0.11 0
0.33 0.11 0
0.34 0.11 0
0.35 0.11 0
0.36 0.11 0
0.37 0.11 0
0.38 0.11 0
0.39 0.11 0
0.4 0.11 0
0.41 0.11 0
0.42 0.11 0
0.43 0.11 0
0.44 0.11 0
0.45 0.11 0
0.46 0.11 0
0.47 0.11 0
0.48 0.11 0
0.49 0.11 0
0.5 0.11 0
0.51 0.11 0
0.52 0.11 0
0.53 0.11 0
0.54 0.11 0
0.55 0.11 0
0.56 0.11 0
0.57 0.11 0
0.58 0.11 0
0.59 0.11 0
0.6 0.11 0
0.61 0.11 0
0 0.12 0
0.01 0.12 0
0.02 0.12 0
0.03 0.12 0
0.04 0.12 0
0.05 0.12 0
0.06 0.12 0
0.07 0.12 0
0.08 0.12 0
0.09 0.12 0
0.1 0.12 0
0.11 0.12 0
0.12 0.12 0
0.13 0.12 0
0.14 0.12 0
0.15 0.12 0
0.16 0.12 0
0.17 0.12 0
0.18 0.12 0
0.19 0.12 0
0.2 0.12 0
0.21 0.12 0
0.22 0.12 0
0.23 0.12 0
0.24 0.12 0
0.25 0.12 0
0.26 0.12 0
0.27 0.12 0
0.28 0.12 0
0.29 0.12 0
0.3 0.12 0
0.31 0.12 0
0.32 0.12 0
0.33 0.12 0
0.34 0.12 0
0.35 0.12 0
0.36 0.12 0
0.37 0.12 0
0.38 0.12 0
0.39 0.12 0
0.4 0.12 0
0.41 0.12 0
0.42 0.12 0
0.43 0.12 0
0.44 0.12 0
0.45 0.12 0
0.46 0.12 0
0.47 0.12 0
0.48 0.12 0
0.49 0.12 0
0.5 0.12 0
0.51 0.12 0
0.52 0.12 0
0.53 0.12 0
0.54 0.12 0
0.55 0.12 0
0.56 0.12 0
0.57 0.12 0
0.58 0.12 0
0.59 0.12 0
0.6 0.12 0
0.61 0.12 0
0 0.13 0
0.01 0.13 0
0.02 0.13 0
0.03 0.13 0
0.04 0.13 0
0.05 0.13 0
0.06 0.13 0
0.07 0.13 0
0.08 0.13 0
0.09 0.13 0
0.1 0.13 0
0.11 0.13 0
0.12 0.13 0
0.13 0.13 0
0.14 0.13 0
0.15 0.13 0
0.16 0.13 0
0.17 0.13 0
0.18 0.13 0
0.19 0.13 0
0.2 0.13 0
0.21 0.13 0
0.22 0.13 0
0.23 0.13 0
0.24 0.13 0
0.25 0.13 0
0.26 0.13 0
0.27 0.13 0
0.28 0.13 0
0.29 0.13 0
0.3 0.13 0
0.31 0.13 0
0.32 0.13 0
0.33 0.13 0
0.34 0.13 0
0.35 0.13 0
0.36 0.13 0
0.37 0.13 0
0.38 0.13 0
0.39 0.13 0
0.4 0.13 0
0.41 0.13 0
0.42 0.13 0
0.43 0.13 0
0.44 0.13 0
0.45 0.13 0
0.46 0.13 0
0.47 0.13 0
0.48 0.13 0
[...]
POINT_DATA 93248

SCALARS u double
LOOKUP_TABLE default
0
0
0
0
0
0
0
0
0
0
0
0
0
0
0
0
0
0
0
0
0
0
0
0
0.293907
0
0
0
0
0
0
0
0.0286925
0.221815
0
0
0
0
0
0
0
0
0
0
0
0
0
0.0709916
0
0
0.0669367
0
0
0
0
0
0
0
0
0
0
0
0
0.413314
0.331271
0.253066
0.188901
0.141404
0.106942
0.0828462
0.0668373
0.0563171
0.0495436
0.045839
0.0460399
0.046049
0.0459338
0.0456371
0.0453936
0.0445551
0.0431412
0.040212
0.0441028
0.0441957
0.0409314
0.0394927
0.0382632
0.0370603
0.0358706
0.0346738
0.0334377
0.0321164
0.0306565
0.0291849
0.0288604
0.0274018
0.0252043
0.0233705
0.0230816
0.0205802
0.0179396
0.160936
0.0115187
0.0141024
0.0150748
0.0167356
0.0211646
-0.00327564
0.00596592
0.00598219
0.00556678
0.00379349
0.00195837
0.022666
0.000763687
0.00534214
-0.0181104
-0.0149655
6.60543e-08
-0.0137936
-0.0178591
-0.0250467
-0.0250467
0
0
0.487603
0.46797
0.43877
0.401461
0.365074
0.324886
0.287542
0.255463
0.230471
0.212005
0.198886
0.192963
0.18717
0.182625
0.178584
0.175295
0.171492
0.169396
0.335429
0.16649
0.161443
0.149682
0.14634
0.142126
0.137774
0.133404
0.129017
0.124588
0.120075
0.115394
0.110417
0.107413
0.102705
0.0975113
0.0931367
0.0865868
0.0799401
-0.0173122
0.071084
0.0673711
0.0632782
0.0605951
0.0585649
0.0551157
0.0422813
0.0353378
0.0326368
0.0287888
0.024725
0.0211638
0.0151602
0.0115966
0.00649345
-0.0082285
-0.0136265
-0.020477
-0.0242165
-0.0321332
-0.0411263
-0.0411263
0
0
0.481668
0.478166
0.473922
0.459407
0.455101
0.42968
0.405359
0.382247
0.360851
0.368941
0.327156
0.310595
0.299335
0.290262
0.282961
0.276578
0.268782
0.262527
0.255162
0.247289
0.24197
0.23425
0.227804
0.221354
0.214782
0.208123
0.201408
0.194655
0.187905
0.181291
0.175061
0.166865
0.160831
0.213463
0.148246
0.139875
0.133209
0.12907
0.121868
0.113848
0.106116
0.133004
0.092702
0.0853561
0.126081
0.0653784
0.0569354
0.0287888
0.0433103
0.037256
0.0300603
0.022666
0.0138589
0.00256203
-0.00639545
-0.0151072
-0.025985
-0.0345517
-0.0432852
-0.0432852
0
0
0.47456
0.466291
0.470493
0.465639
0.462928
0.45449
0.44361
0.431428
0.418482
0.404703
0.391195
0.37673
0.363666
0.351968
0.341747
0.331765
0.324494
0.316032
0.333182
0.297802
0.289369
0.28111
0.27323
0.265438
0.257603
0.249695
0.241725
0.233714
0.225689
0.217675
0.209585
0.200752
0.192771
0.184297
0.17684
0.169158
0.162003
0.156146
0.147884
0.138701
0.129084
0.119339
0.110547
0.101331
0.0909758
0.0806611
0.0719151
0.0639707
0.0556138
0.0473343
0.0387155
0.0296718
0.0198569
0.0093716
-0.000775266
-0.0109202
-0.0217264
-0.0315363
-0.0411156
-0.0411156
0
0
0.471921
0.460868
0.456526
0.453124
0.450982
0.447506
0.442806
0.437052
0.429888
0.421267
0.411413
0.400284
0.388726
0.37733
0.367274
0.356834
0.347616
0.338368
0.328473
0.319096
0.310153
0.301478
0.292996
0.284593
0.276191
0.267739
0.25924
0.250701
0.242112
0.233428
0.224509
0.215236
0.207284
0.198566
0.190174
0.182023
0.174169
0.166499
0.157861
0.148471
0.138573
0.128436
0.118598
0.108811
0.0992645
0.0943746
0.0790972
0.0703406
0.0612847
0.0521213
0.0428039
0.0332315
0.0232792
0.0130822
0.00289965
-0.00719255
-0.0170945
-0.0264112
-0.0363295
-0.0363295
0
0
0.470741
0.456745
0.447582
0.441282
0.436964
0.433145
0.429678
0.426414
0.421997
0.416522
0.409811
0.401794
0.392625
0.382774
0.373143
0.364138
0.354201
0.345483
0.335445
0.326064
0.31711
0.308385
0.299773
0.291205
0.282645
0.274021
0.265369
0.256686
0.247946
0.239086
0.229946
0.220172
0.213056
0.203978
0.195044
0.186459
0.178042
0.169544
0.160612
0.151217
0.141448
0.131425
0.121302
0.110904
0.100152
0.0925827
0.0828785
0.0732214
0.0636568
0.0541367
0.0446141
0.0349996
0.0251535
0.0152246
0.0053894
-0.00416172
-0.0128977
-0.0190614
-0.0208564
-0.0208564
0
0
0.470112
0.454273
0.442232
0.433167
0.426548
0.45525
0.417981
0.413458
0.409681
0.40575
0.40112
0.395572
0.388481
0.380183
0.371272
0.363271
0.353557
0.344424
0.335429
0.326748
0.318281
0.309845
0.301371
0.292857
0.284327
0.275693
0.26707
0.258435
0.249763
0.241053
0.232479
0.22449
0.213309
0.204442
0.195925
0.187396
0.178789
0.17
0.160936
0.151583
0.141984
0.133773
0.122184
0.112038
0.102046
0.0932765
0.0838871
0.0742556
0.0645988
0.0549939
0.0454819
0.0360232
0.0263025
0.016629
0.00714655
-0.00221956
-0.0119265
-0.0225341
-0.0118276
-0.0118276
0
0
0.46973
0.452746
0.438931
0.427819
0.418948
0.411681
0.406477
0.402178
0.398708
0.395489
0.391907
0.38863
0.382785
0.375299
0.365603
0.175295
0.347064
0.340266
0.333182
0.325523
0.317748
0.309636
0.301317
0.29285
0.276191
0.275749
0.267324
0.258843
0.250311
0.241687
0.233018
0.224298
0.214419
0.205188
0.196336
0.187589
0.178795
0.169858
0.160733
0.151415
0.141915
0.132247
0.12249
0.112682
0.103004
0.0936706
0.0842307
0.0746464
0.0649916
0.0553479
0.0458431
0.0366589
0.026973
0.0175719
0.00854689
-0.000102061
-0.00853154
-0.0186833
-0.0214174
-0.0214174
0
0
0.469481
0.451756
0.436799
0.424322
0.414002
0.40555
0.399109
0.394278
0.390648
0.387443
0.383288
0.384799
0.378121
0.371504
0.364404
0.358758
0.350681
0.342123
0.333742
0.325404
0.317546
0.309278
0.300899
0.292484
0.284255
0.27576
0.267308
0.258926
0.250578
0.242067
0.233144
0.224076
0.214773
0.205614
0.196622
0.187696
0.178749
0.169713
0.160556
0.151268
0.141854
0.132326
0.122728
0.113103
0.103525
0.0940276
0.0845072
0.074907
0.0652113
0.0554212
0.0455833
0.0368191
0.0270778
0.0180809
0.00941579
0.000925428
-0.00761864
-0.0167441
-0.0247992
-0.0247992
0
0
0.469315
0.451094
0.43537
0.422008
0.41076
0.401521
0.394315
0.388981
0.385125
0.382074
0.379131
0.377315
0.373101
0.367869
0.361895
0.356136
0.349093
0.341292
0.333281
0.325361
0.316756
0.308478
0.300177
0.291725
0.283911
0.275381
0.267023
0.258833
0.250865
0.255635
0.233328
0.223988
0.214872
0.205831
0.196821
0.188726
0.178766
0.169669
0.160497
0.151239
0.141891
0.132466
0.122969
0.113437
0.103902
0.0943746
0.0848269
0.0752193
0.0655004
0.0555856
0.0452213
-0.00239333
0.0266049
0.0185058
0.0101064
0.00161562
-0.00701414
-0.0159848
-0.0253167
-0.0253167
0
0
0.469204
0.450651
0.434394
0.420467
0.408586
0.398767
0.391052
0.385336
0.381258
0.3782
0.375495
0.372774
0.369124
0.364718
0.358883
0.352936
0.346408
0.339298
0.331795
0.320687
0.31588
0.307746
0.299511
0.291196
0.283019
0.274692
0.26647
0.258449
0.250623
0.2429
0.232478
0.223782
0.215017
0.206065
0.197024
0.187947
0.180104
0.169725
0.160551
0.151316
0.142018
0.132679
0.123242
0.113754
0.104247
0.0947347
0.0852135
0.0756653
0.0660785
0.0565875
0.0474134
0.03893
0.0291834
0.0199561
0.0110769
0.00234831
-0.00641606
-0.015443
-0.0250344
-0.0250344
0
0
0.469133
0.450381
0.433889
0.419372
0.407027
0.39681
0.388737
0.382728
0.378433
0.375258
0.372467
0.369491
0.365955
0.362135
0.355834
0.350165
0.344033
0.337329
0.330288
0.322931
0.315128
0.307078
0.29886
0.290526
0.282155
0.273784
0.26561
0.257747
0.249963
0.240733
0.23415
0.225158
0.215846
0.206552
0.197305
0.188106
0.178949
0.169831
0.160689
0.151474
0.14219
0.133004
0.123572
0.11409
0.104598
0.0951144
0.0856532
0.0762024
0.0667162
0.057488
0.0485832
0.0398632
0.0304859
0.0211427
0.0120419
0.00312655
-0.00577919
-0.0148929
-0.0245735
-0.0245735
0
0
0.469083
0.450179
0.433422
0.418602
0.405952
0.395432
0.387082
0.380832
0.376325
0.372997
0.370039
0.366852
0.362982
0.357894
0.354231
0.348707
0.342439
0.335718
0.328982
0.321853
0.314255
0.306308
0.298103
0.289697
0.281139
0.272536
0.264231
0.256651
0.250937
0.242636
0.234463
0.225505
0.216205
0.206822
0.197466
0.188191
0.178997
0.16995
0.160892
0.151689
0.142206
0.133655
0.123986
0.114452
0.104954
0.0954924
0.086096
0.0767586
0.0672153
0.0581041
0.0491925
0.0402733
0.0311002
0.0219065
0.0128318
0.00388275
-0.00514808
-0.0143167
-0.0240623
-0.0240623
0
0
0.469048
0.450041
0.433174
0.417915
0.405157
0.394439
0.385884
0.379447
0.374798
0.37124
0.368126
0.364822
0.360949
0.35639
0.351956
0.346679
0.340631
0.333909
0.327838
0.320907
0.313381
0.305466
0.297256
0.288754
0.27992
0.270718
0.261403
0.252672
0.255306
0.246111
0.236092
0.22628
0.216594
0.206991
0.197488
0.188169
0.178868
0.170053
0.161225
0.152154
0.142879
0.133773
0.124319
0.114807
0.105295
0.0958234
0.0864456
0.0772367
0.0675517
0.0585991
0.0496845
0.0406962
0.0314867
0.0224313
0.0134723
0.00469526
-0.00463505
-0.013702
-0.023483
-0.023483
0
0
0.469024
0.449905
0.43283
0.417675
0.404655
0.393746
0.385019
0.37842
0.373606
0.369925
0.366677
0.363286
0.359438
0.355078
0.350366
0.345098
0.339156
0.332177
0.327095
0.319999
0.312389
0.304522
0.29636
0.287825
0.278711
0.268443
0.255086
0.232796
0.27694
0.252691
0.238562
0.227301
0.216976
0.207022
0.197278
0.187768
0.178601
0.170095
0.161807
0.152924
0.143644
0.134245
0.124736
0.115186
0.105621
0.0960734
0.0865199
0.0769584
0.0683257
0.0592891
0.0502737
0.0414
0.0316366
0.0228402
0.0139246
0.00516545
-0.00379414
-0.0128858
-0.0226964
-0.0226964
0
0
0.469038
0.449803
0.432625
0.417455
0.404332
0.39328
0.384409
0.377675
0.372732
0.368941
0.365572
0.362097
0.358241
0.353935
0.349199
0.344036
0.338582
0.333381
0.325065
0.318093
0.31098
0.303466
0.295546
0.287182
0.278257
0.26853
0.25783
0.248328
0.256398
0.248096
0.237507
0.226957
0.216691
0.206633
0.19668
0.186885
0.177569
0.169561
0.16308
0.154378
0.144806
0.13506
0.125329
0.115647
0.105973
0.0963679
0.086798
0.0773163
0.0683189
0.0596394
0.0506741
0.0415991
0.0323348
0.0234321
0.0141575
0.00563168
-0.00295919
-0.0117479
-0.0213936
-0.0213936
0
0
0.469121
0.449725
0.432515
0.417361
0.404202
0.392981
0.383984
0.377148
0.37212
0.368252
0.36474
0.361156
0.357268
0.352993
0.348279
0.343142
0.337658
0.331861
0.32475
0.317644
0.310421
0.30294
0.295138
0.286986
0.27847
0.269652
0.260884
0.253741
0.250492
0.243791
0.235068
0.225544
0.215741
0.205819
0.195666
0.185269
0.174769
0.165855
0.167405
0.157626
0.146761
0.136242
0.126081
0.116175
0.106349
0.0966979
0.0871035
0.0775431
0.0681996
0.0600345
0.0509904
0.0418437
0.0329271
0.0247874
0.0133972
0.00585536
-0.00212449
-0.0100737
-0.018773
-0.018773
0
0
0.468846
0.449859
0.432649
0.417471
0.40437
0.388737
0.383604
0.376751
0.37171
0.367858
0.364108
0.360376
0.356464
0.352253
0.347558
0.342381
0.336784
0.330812
0.324234
0.317323
0.310155
0.302728
0.295032
0.287079
0.278932
0.270773
0.272732
0.255275
0.249214
0.241815
0.233322
0.224187
0.214681
0.204895
0.194547
0.183246
0.169093
0.144769
0.188892
0.164074
0.149253
0.137452
0.126753
0.116559
0.106758
0.0970601
0.0874679
0.0778653
0.0681081
0.0604595
0.0510247
0.0418146
0.0328985
0.0240894
0.0143073
-0.00701414
-0.00150434
-0.00805379
-0.0128365
0
0
0
0.46893
0.449215
0.432472
0.417463
0.404496
0.3927
0.38341
0.376465
0.371463
0.367822
0.363524
0.359667
0.355786
0.351729
0.34701
0.341735
0.33602
0.330116
0.323773
0.317034
0.309975
0.302641
0.295055
0.287255
0.279316
0.271372
0.263452
0.255242
0.249034
0.240876
0.232148
0.223133
0.213788
0.198165
0.194059
0.183439
0.171895
0.161392
0.169109
0.151268
0.148412
0.137439
0.126909
0.116765
0.106944
0.0973237
0.0879205
0.0788455
0.0701485
0.0589335
0.0501012
0.0413917
0.0326535
0.0239064
0.0151341
0.00693204
-0.00131404
-0.00942532
-0.0183332
-0.0183332
0
0
0.468962
0.449717
0.432263
0.417462
0.404748
0.392298
0.383104
0.37625
0.371274
0.368066
0.362795
0.359142
0.355302
0.351396
0.346536
0.341135
0.335278
0.329692
0.323492
0.316842
0.309866
0.302622
0.295129
0.28742
0.27956
0.271728
0.264862
0.257749
0.247823
0.239432
0.23103
0.222353
0.213463
0.204404
0.19484
0.185048
0.175482
0.167558
0.163403
0.155977
0.146543
0.136553
0.126508
0.116626
0.106932
0.0974003
0.0880472
0.0788664
0.0696367
0.0595045
0.0501977
0.0412742
0.0324976
0.0238051
0.0151606
0.00665978
-0.00200878
-0.0110379
-0.0209536
-0.0209536
0
0
0.468983
0.449796
0.432725
0.416812
0.402676
0.392591
0.383544
0.376354
0.370778
0.365622
0.363824
0.359995
0.355217
0.340118
0.346025
0.34077
0.33478
0.329717
0.323423
0.316746
0.309834
0.302677
0.295251
0.287568
0.279578
0.270907
0.266715
0.257678
0.248358
0.239486
0.230776
0.222079
0.213421
0.204743
0.1957
0.186548
0.177663
0.169534
0.162068
0.153946
0.145007
0.135592
0.125858
0.116265
0.106753
0.0973064
0.0879607
0.0786806
0.0693336
0.0597474
0.05034
0.0412338
0.0323453
0.0236182
0.0148463
0.00611949
-0.00279338
-0.0121564
-0.0221937
-0.0221937
0
0
0.468981
0.449766
0.432512
0.416881
0.403187
0.392281
0.383302
0.376228
0.370775
0.366493
0.363536
0.359936
0.366519
0.352624
0.347414
0.341827
0.336475
0.329407
0.323083
0.316632
0.309897
0.302871
0.295489
0.287853
0.280016
0.272068
0.265317
0.25717
0.248428
0.239578
0.230708
0.221898
0.213408
0.205423
0.196668
0.187782
0.178921
0.170308
0.161801
0.153125
0.144182
0.135121
0.125029
0.1158
0.106463
0.0970884
0.0877775
0.078502
0.0692094
0.0597819
0.0502811
0.0410635
0.0320475
0.0232509
0.0143849
0.00561941
-0.00338808
-0.012949
-0.0229709
-0.0229709
0
0
0.468978
0.449744
0.432446
0.417009
0.403573
0.392394
0.383286
0.376235
0.37088
0.367438
0.36417
0.36094
0.358303
0.351941
0.347021
0.341909
0.336353
0.330019
0.323614
0.317075
0.310341
0.303367
0.295887
0.288246
0.280524
0.272768
0.265105
0.256937
0.24838
0.239551
0.230496
0.221298
0.21251
0.207108
0.197934
0.189108
0.179886
0.170805
0.161821
0.152816
0.143709
0.134447
0.124837
0.115419
0.0999747
0.0967418
0.0875185
0.0783021
0.0691225
0.059731
0.0474892
0.0407192
0.0315309
0.00757651
0.0138195
0.00528515
-0.00370742
-0.0136248
-0.0236156
-0.0236156
0
0
0.46898
0.449751
0.432478
0.417156
0.403869
0.392703
0.383362
0.376337
0.370747
0.369667
0.365127
0.361501
0.357898
0.352887
0.347839
0.342566
0.336555
0.330516
0.324223
0.317694
0.310984
0.304136
0.29632
0.288671
0.281026
0.273277
0.26537
0.256686
0.248492
0.239588
0.230198
0.219855
0.206136
0.214333
0.199376
0.19139
0.180812
0.17121
0.161912
0.152706
0.143461
0.134048
0.124576
0.115187
0.105876
0.0965265
0.0872337
0.0780021
0.0689303
0.0596834
0.0493014
0.0404798
0.0316942
0.0230395
0.0140532
0.00530221
-0.00364022
-0.0143263
-0.0241522
-0.0241522
0
0
0.468985
0.449773
0.43254
0.417309
0.404185
0.393434
0.383005
0.376563
0.371443
0.368313
0.364975
0.361536
0.35779
0.353382
0.348652
0.343914
0.336368
0.330983
0.324852
0.31834
0.311623
0.304992
0.296663
0.289222
0.281695
0.273889
0.265859
0.257354
0.248787
0.239936
0.230503
0.220905
0.21138
0.208166
0.199061
0.190297
0.180749
0.171254
0.161905
0.152648
0.143362
0.133752
0.124266
0.114902
0.105584
0.0962509
0.0869042
0.0775013
0.0581944
0.0595836
0.0486381
0.0404876
0.0316561
0.0227779
0.0138013
0.00503637
-0.00346342
-0.0148788
-0.0241882
-0.0241882
0
0
0.46899
0.44979
0.432588
0.417412
0.404337
0.393453
0.384311
0.377282
0.372122
0.368417
0.365174
0.361869
0.358177
0.35397
0.349327
0.344284
0.338062
0.332032
0.325701
0.319026
0.311957
0.304179
0.298068
0.290567
0.282744
0.274626
0.266237
0.257961
0.249419
0.240923
0.230788
0.222183
0.213759
0.206509
0.198162
0.189405
0.180266
0.171003
0.161747
0.152559
0.143381
0.133404
0.123952
0.114657
0.105364
0.0960397
0.0866899
0.0773079
0.0678495
0.0578761
0.0511171
0.0409264
0.031582
0.0224167
0.0131791
0.00370089
-0.00602629
-0.0124484
-0.0228424
-0.0228424
0
0
0.468988
0.449786
0.432599
0.417469
0.404462
0.393694
0.385266
0.377764
0.372589
0.368904
0.3658
0.362606
0.358987
0.354836
0.350211
0.34515
0.339377
0.333189
0.326675
0.319876
0.312867
0.305329
0.29636
0.291042
0.283383
0.275162
0.266736
0.258316
0.249786
0.241136
0.231966
0.223229
0.214714
0.206365
0.197772
0.188933
0.179881
0.170704
0.161485
0.152327
0.143377
0.132996
0.123799
0.114577
0.105261
0.0959103
0.086551
0.0771854
0.0678051
0.0584891
0.0502117
0.0408243
0.0314622
0.0221981
0.0129569
0.00370331
-0.00541484
-0.013414
-0.0231351
-0.0231351
0
0
0.468973
0.449737
0.432539
0.417458
0.404526
0.393903
0.386157
0.377898
0.373187
0.369866
0.366913
0.363792
0.360177
0.35599
0.351321
0.346417
0.340629
0.334245
0.327578
0.320687
0.313735
0.306486
0.299168
0.291531
0.283772
0.275335
0.266972
0.258601
0.250127
0.241507
0.232716
0.22397
0.215272
0.206552
0.197722
0.188754
0.179655
0.170448
0.161135
0.151638
0.14183
0.133806
0.124324
0.114747
0.105251
0.0958247
0.0864484
0.0771099
0.0678164
0.0586347
0.0496807
0.0404989
0.0312572
0.022059
0.0129531
0.00405716
-0.00541853
-0.0140692
-0.0236782
-0.0236782
0
0
0.468928
0.449588
0.432375
0.417378
0.404461
0.393517
0.383906
0.379606
0.375217
0.371443
0.368555
0.36532
0.361639
0.357344
0.352349
0.347757
0.341582
0.334927
0.328222
0.321311
0.314629
0.307488
0.299968
0.29187
0.247365
0.274972
0.267182
0.25905
0.250654
0.242067
0.233346
0.224562
0.215727
0.206819
0.197819
0.188726
0.179545
0.170287
0.16095
0.151531
0.142124
0.133312
0.124042
0.114578
0.105105
0.0956832
0.0863215
0.0770119
0.0677505
0.05855
0.0494005
0.0402255
0.0310466
0.0219148
0.0128593
0.00387044
-0.00528796
-0.0143476
-0.0240269
-0.0240269
0
0
0.468841
0.449215
0.436533
0.417346
0.404566
0.393882
0.385308
0.379927
0.375918
0.372731
0.369841
0.366748
0.363178
0.359256
0.352371
0.348068
0.341169
0.338368
0.328613
0.321888
0.315637
0.308523
0.301029
0.293366
0.285745
0.277211
0.268686
0.260146
0.251532
0.242821
0.234021
0.225142
0.216183
0.207125
0.19798
0.188768
0.179501
0.170191
0.160855
0.151525
0.142246
0.133034
0.123685
0.114257
0.104838
0.0954632
0.0861458
0.0768752
0.0676306
0.0584096
0.0492046
0.0400111
0.0308491
0.0217534
0.01271
0.00367945
-0.00537952
-0.0145395
-0.0236782
-0.0242321
0
0
0.468829
0.44812
0.431344
0.416955
0.404651
0.394453
0.386503
0.38092
0.376998
0.374032
0.371343
0.368363
0.364726
0.360084
0.352871
0.171492
0.338182
0.334305
0.329367
0.323849
0.31654
0.3094
0.302091
0.294606
0.286515
0.278186
0.26971
0.261116
0.25241
0.243606
0.234714
0.22574
0.216667
0.207457
0.198165
0.188833
0.179475
0.170098
0.160736
0.151439
0.142191
0.132776
0.123283
0.113835
0.104472
0.0951677
0.0859246
0.0767183
0.0674975
0.0582709
0.0490455
0.0398288
0.0306586
0.0215905
0.0125466
0.00348249
-0.00561792
-0.0190614
-0.0245398
-0.0245398
0
0
0.470526
0.445375
0.430692
0.417014
0.405137
0.395331
0.387771
0.382417
0.37865
0.375861
0.373334
0.370475
0.366935
0.362602
0.357603
0.354179
0.347097
0.340073
0.333206
0.326315
0.318837
0.311256
0.303602
0.296
0.287318
0.279063
0.270649
0.262028
0.25326
0.244377
0.235408
0.22636
0.217198
0.207799
0.198339
0.188887
0.179433
0.169958
0.160496
0.151165
0.141958
0.132282
0.122622
0.113195
0.103965
0.0947819
0.0856669
0.0765797
0.0673945
0.0581724
0.0489347
0.0396812
0.0304728
0.0214426
0.00905229
0.00330593
-0.00569474
-0.0148674
-0.026911
-0.0246934
0
0
0.46907
0.448458
0.432015
0.418017
0.406244
0.396617
0.389319
0.384547
0.380947
0.378304
0.375916
0.373164
0.369721
0.365612
0.360925
0.356276
0.350129
0.343274
0.336109
0.328723
0.321046
0.313143
0.305002
0.296456
0.288927
0.280494
0.271809
0.263003
0.254117
0.245139
0.236095
0.227009
0.217814
0.20811
0.19847
0.188928
0.179386
0.169769
0.160012
0.150489
0.141336
0.131151
0.121389
0.112168
0.103261
0.0942876
0.0853907
0.0765296
0.067397
0.0581944
0.0489475
0.0396307
0.0303277
0.0214876
0.0123642
0.00321299
-0.00584114
-0.0150031
-0.0246551
-0.0246551
0
0
0.469023
0.449799
0.433328
0.419336
0.404202
0.398142
0.390533
0.387888
0.383927
0.381357
0.379097
0.37642
0.372925
0.353935
0.363729
0.358502
0.352406
0.345645
0.33844
0.330913
0.323114
0.314998
0.306647
0.298152
0.289937
0.281444
0.272732
0.263869
0.254936
0.245851
0.236741
0.22765
0.218562
0.208282
0.198569
0.189022
0.179427
0.169754
0.159085
0.148989
0.13945
0.128696
0.119372
0.110676
0.102347
0.093722
0.08514
0.0766682
0.0676821
0.0585458
0.0492686
0.0398383
0.0302935
0.021483
0.0121267
0.00294367
-0.00610963
-0.0152608
-0.0248835
-0.0248835
0
0
0.469168
0.450512
0.434404
0.420779
0.40956
0.400563
0.393804
0.389977
0.387005
0.38486
0.38287
0.380313
0.376895
0.372698
0.367487
0.361614
0.355129
0.348141
0.340764
0.333093
0.325191
0.316819
0.308262
0.299665
0.291097
0.282424
0.27362
0.264681
0.255635
0.246491
0.237277
0.228106
0.219237
0.208305
0.198859
0.189368
0.179609
0.169526
0.158652
0.14664
0.0141024
0.124768
0.117154
0.108833
0.100997
0.0934174
0.0849929
0.0768604
0.068811
0.0597579
0.0502179
0.0406002
0.0310959
0.0207801
0.0115548
0.00249993
-0.00649687
-0.0156046
-0.0251789
-0.0251789
0
0
0.469312
0.451047
0.43541
0.422328
0.411696
0.403387
0.39734
0.393439
0.390924
0.389164
0.387449
0.384895
0.381333