# vtk DataFile Version 2.0
FlowField
ASCII
DATASET STRUCTURED_GRID
DIMENSIONS 62 47 32 
POINTS 93248 double
0 0 0
0.01 0 0
0.02 0 0
0.03 0 0
0.04 0 0
0.05 0 0
0.06 0 0
0.07 0 0
0.08 0 0
0.09 0 0
0.1 0 0
0.11 0 0
0.12 0 0
0.13 0 0
0.14 0 0
0.15 0 0
0.16 0 0
0.17 0 0
0.18 0 0
0.19 0 0
0.2 0 0
0.21 0 0
0.22 0 0
0.23 0 0
0.24 0 0
0.25 0 0
0.26 0 0
0.27 0 0
0.28 0 0
0.29 0 0
0.3 0 0
0.31 0 0
0.32 0 0
0.33 0 0
0.34 0 0
0.35 0 0
0.36 0 0
0.37 0 0
0.38 0 0
0.39 0 0
0.4 0 0
0.41 0 0
0.42 0 0
0.43 0 0
0.44 0 0
0.45 0 0
0.46 0 0
0.47 0 0
0.48 0 0
0.49 0 0
0.5 0 0
0.51 0 0
0.52 0 0
0.53 0 0
0.54 0 0
0.55 0 0
0.56 0 0
0.57 0 0
0.58 0 0
0.59 0 0
0.6 0 0
0.61 0 0
0 0.01 0
0.01 0.01 0
0.02 0.01 0
0.03 0.01 0
0.04 0.01 0
0.05 0.01 0
0.06 0.01 0
0.07 0.01 0
0.08 0.01 0
0.09 0.01 0
0.1 0.01 0
0.11 0.01 0
0.12 0.01 0
0.13 0.01 0
0.14 0.01 0
0.15 0.01 0
0.16 0.01 0
0.17 0.01 0
0.18 0.01 0
0.19 0.01 0
0.2 0.01 0
0.21 0.01 0
0.22 0.01 0
0.23 0.01 0
0.24 0.01 0
0.25 0.01 0
0.26 0.01 0
0.27 0.01 0
0.28 0.01 0
0.29 0.01 0
0.3 0.01 0
0.31 0.01 0
0.32 0.01 0
0.33 0.01 0
0.34 0.01 0
0.35 0.01 0
0.36 0.01 0
0.37 0.01 0
0.38 0.01 0
0.39 0.01 0
0.4 0.01 0
0.41 0.01 0
0.42 0.01 0
0.43 0.01 0
0.44 0.01 0
0.45 0.01 0
0.46 0.01 0
0.47 0.01 0
0.48 0.01 0
0.49 0.01 0
0.5 0.01 0
0.51 0.01 0
0.52 0.01 0
0.53 0.01 0
0.54 0.01 0
0.55 0.01 0
0.56 0.01 0
0.57 0.01 0
0.58 0.01 0
0.59 0.01 0
0.6 0.01 0
0.61 0.01 0
0 0.02 0
0.01 0.02 0
0.02 0.02 0
0.03 0.02 0
0.04 0.02 0
0.05 0.02 0
0.06 0.02 0
0.07 0.02 0
0.08 0.02 0
0.09 0.02 0
0.1 0.02 0
0.11 0.02 0
0.12 0.02 0
0.13 0.02 0
0.14 0.02 0
0.15 0.02 0
0.16 0.02 0
0.17 0.02 0
0.18 0.02 0
0.19 0.02 0
0.2 0.02 0
0.21 0.02 0
0.22 0.02 0
0.23 0.02 0
0.24 0.02 0
0.25 0.02 0
0.26 0.02 0
0.27 0.02 0
0.28 0.02 0
0.29 0.02 0
0.3 0.02 0
0.31 0.02 0
0.32 0.02 0
0.33 0.02 0
0.34 0.02 0
0.35 0.02 0
0.36 0.02 0
0.37 0.02 0
0.38 0.02 0
0.39 0.02 0
0.4 0.02 0
0.41 0.02 0
0.42 0.02 0
0.43 0.02 0
0.44 0.02 0
0.45 0.02 0
0.46 0.02 0
0.47 0.02 0
0.48 0.02 0
0.49 0.02 0
0.5 0.02 0
0.51 0.02 0
0.52 0.02 0
0.53 0.02 0
0.54 0.02 0
0.55 0.02 0
0.56 0.02 0
0.57 0.02 0
0.58 0.02 0
0.59 0.02 0
0.6 0.02 0
0.61 0.02 0
0 0.03 0
0.01 0.03 0
0.02 0.03 0
0.03 0.03 0
0.04 0.03 0
0.05 0.03 0
0.06 0.03 0
0.07 0.03 0
0.08 0.03 0
0.09 0.03 0
0.1 0.03 0
0.11 0.03 0
0.12 0.03 0
0.13 0.03 0
0.14 0.03 0
0.15 0.03 0
0.16 0.03 0
0.17 0.03 0
0.18 0.03 0
0.19 0.03 0
0.2 0.03 0
0.21 0.03 0
0.22 0.03 0
0.23 0.03 0
0.24 0.03 0
0.25 0.03 0
0.26 0.03 0
0.27 0.03 0
0.28 0.03 0
0.29 0.03 0
0.3 0.03 0
0.31 0.03 0
0.32 0.03 0
0.33 0.03 0
0.34 0.03 0
0.35 0.03 0
0.36 0.03 0
0.37 0.03 0
0.38 0.03 0
0.39 0.03 0
0.4 0.03 0
0.41 0.03 0
0.42 0.03 0
0.43 0.03 0
0.44 0.03 0
0.45 0.03 0
0.46 0.03 0
0.47 0.03 0
0.48 0.03 0
0.49 0.03 0
0.5 0.03 0
0.51 0.03 0
0.52 0.03 0
0.53 0.03 0
0.54 0.03 0
0.55 0.03 0
0.56 0.03 0
0.57 0.03 0
0.58 0.03 0
0.59 0.03 0
0.6 0.03 0
0.61 0.03 0
0 0.04 0
0.01 0.04 0
0.02 0.04 0
0.03 0.04 0
0.04 0.04 0
0.05 0.04 0
0.06 0.04 0
0.07 0.04 0
0.08 0.04 0
0.09 0.04 0
0.1 0.04 0
0.11 0.04 0
0.12 0.04 0
0.13 0.04 0
0.14 0.04 0
0.15 0.04 0
0.16 0.04 0
0.17 0.04 0
0.18 0.04 0
0.19 0.04 0
0.2 0.04 0
0.21 0.04 0
0.22 0.04 0
0.23 0.04 0
0.24 0.04 0
0.25 0.04 0
0.26 0.04 0
0.27 0.04 0
0.28 0.04 0
0.29 0.04 0
0.3 0.04 0
0.31 0.04 0
0.32 0.04 0
0.33 0.04 0
0.34 0.04 0
0.35 0.04 0
0.36 0.04 0
0.37 0.04 0
0.38 0.04 0
0.39 0.04 0
0.4 0.04 0
0.41 0.04 0
0.42 0.04 0
0.43 0.04 0
0.44 0.04 0
0.45 0.04 0
0.46 0.04 0
0.47 0.04 0
0.48 0.04 0
0.49 0.04 0
0.5 0.04 0
0.51 0.04 0
0.52 0.04 0
0.53 0.04 0
0.54 0.04 0
0.55 0.04 0
0.56 0.04 0
0.57 0.04 0
0.58 0.04 0
0.59 0.04 0
0.6 0.04 0
0.61 0.04 0
0 0.05 0
0.01 0.05 0
0.02 0.05 0
0.03 0.05 0
0.04 0.05 0
0.05 0.05 0
0.06 0.05 0
0.07 0.05 0
0.08 0.05 0
0.09 0.05 0
0.1 0.05 0
0.11 0.05 0
0.12 0.05 0
0.13 0.05 0
0.14 0.05 0
0.15 0.05 0
0.16 0.05 0
0.17 0.05 0
0.18 0.05 0
0.19 0.05 0
0.2 0.05 0
0.21 0.05 0
0.22 0.05 0
0.23 0.05 0
0.24 0.05 0
0.25 0.05 0
0.26 0.05 0
0.27 0.05 0
0.28 0.05 0
0.29 0.05 0
0.3 0.05 0
0.31 0.05 0
0.32 0.05 0
0.33 0.05 0
0.34 0.05 0
0.35 0.05 0
0.36 0.05 0
0.37 0.05 0
0.38 0.05 0
0.39 0.05 0
0.4 0.05 0
0.41 0.05 0
0.42 0.05 0
0.43 0.05 0
0.44 0.05 0
0.45 0.05 0
0.46 0.05 0
0.47 0.05 0
0.48 0.05 0
0.49 0.05 0
0.5 0.05 0
0.51 0.05 0
0.52 0.05 0
0.53 0.05 0
0.54 0.05 0
0.55 0.05 0
0.56 0.05 0
0.57 0.05 0
0.58 0.05 0
0.59 0.05 0
0.6 0.05 0
0.61 0.05 0
0 0.06 0
0.01 0.06 0
0.02 0.06 0
0.03 0.06 0
0.04 0.06 0
0.05 0.06 0
0.06 0.06 0
0.07 0.06 0
0.08 0.06 0
0.09 0.06 0
0.1 0.06 0
0.11 0.06 0
0.12 0.06 0
0.13 0.06 0
0.14 0.06 0
0.15 0.06 0
0.16 0.06 0
0.17 0.06 0
0.18 0.06 0
0.19 0.06 0
0.2 0.06 0
0.21 0.06 0
0.22 0.06 0
0.23 0.06 0
0.24 0.06 0
0.25 0.06 0
0.26 0.06 0
0.27 0.06 0
0.28 0.06 0
0.29 0.06 0
0.3 0.06 0
0.31 0.06 0
0.32 0.06 0
0.33 0.06 0
0.34 0.06 0
0.35 0.06 0
0.36 0.06 0
0.37 0.06 0
0.38 0.06 0
0.39 0.06 0
0.4 0.06 0
0.41 0.06 0
0.42 0.06 0
0.43 0.06 0
0.44 0.06 0
0.45 0.06 0
0.46 0.06 0
0.47 0.06 0
0.48 0.06 0
0.49 0.06 0
0.5 0.06 0
0.51 0.06 0
0.52 0.06 0
0.53 0.06 0
0.54 0.06 0
0.55 0.06 0
0.56 0.06 0
0.57 0.06 0
0.58 0.06 0
0.59 0.06 0
0.6 0.06 0
0.61 0.06 0
0 0.07 0
0.01 0.07 0
0.02 0.07 0
0.03 0.07 0
0.04 0.07 0
0.05 0.07 0
0.06 0.07 0
0.07 0.07 0
0.08 0.07 0
0.09 0.07 0
0.1 0.07 0
0.11 0.07 0
0.12 0.07 0
0.13 0.07 0
0.14 0.07 0
0.15 0.07 0
0.16 0.07 0
0.17 0.07 0
0.18 0.07 0
0.19 0.07 0
0.2 0.07 0
0.21 0.07 0
0.22 0.07 0
0.23 0.07 0
0.24 0.07 0
0.25 0.07 0
0.26 0.07 0
0.27 0.07 0
0.28 0.07 0
0.29 0.07 0
0.3 0.07 0
0.31 0.07 0
0.32 0.07 0
0.33 0.07 0
0.34 0.07 0
0.35 0.07 0
0.36 0.07 0
0.37 0.07 0
0.38 0.07 0
0.39 0.07 0
0.4 0.07 0
0.41 0.07 0
0.42 0.07 0
0.43 0.07 0
0.44 0.07 0
0.45 0.07 0
0.46 0.07 0
0.47 0.07 0
0.48 0.07 0
0.49 0.07 0
0.5 0.07 0
0.51 0.07 0
0.52 0.07 0
0.53 0.07 0
0.54 0.07 0
0.55 0.07 0
0.56 0.07 0
0.57 0.07 0
0.58 0.07 0
0.59 0.07 0
0.6 0.07 0
0.61 0.07 0
0 0.08 0
0.01 0.08 0
0.02 0.08 0
0.03 0.08 0
0.04 0.08 0
0.05 0.08 0
0.06 0.08 0
0.07 0.08 0
0.08 0.08 0
0.09 0.08 0
0.1 0.08 0
0.11 0.08 0
0.12 0.08 0
0.13 0.08 0
0.14 0.08 0
0.15 0.08 0
0.16 0.08 0
0.17 0.08 0
0.18 0.08 0
0.19 0.08 0
0.2 0.08 0
0.21 0.08 0
0.22 0.08 0
0.23 0.08 0
0.24 0.08 0
0.25 0.08 0
0.26 0.08 0
0.27 0.08 0
0.28 0.08 0
0.29 0.08 0
0.3 0.08 0
0.31 0.08 0
0.32 0.08 0
0.33 0.08 0
0.34 0.08 0
0.35 0.08 0
0.36 0.08 0
0.37 0.08 0
0.38 0.08 0
0.39 0.08 0
0.4 0.08 0
0.41 0.08 0
0.42 0.08 0
0.43 0.08 0
0.44 0.08 0
0.45 0.08 0
0.46 0.08 0
0.47 0.08 0
0.48 0.08 0
0.49 0.08 0
0.5 0.08 0
0.51 0.08 0
0.52 0.08 0
0.53 0.08 0
0.54 0.08 0
0.55 0.08 0
0.56 0.08 0
0.57 0.08 0
0.58 0.08 0
0.59 0.08 0
0.6 0.08 0
0.61 0.08 0
0 0.09 0
0.01 0.09 0
0.02 0.09 0
0.03 0.09 0
0.04 0.09 0
0.05 0.09 0
0.06 0.09 0
0.07 0.09 0
0.08 0.09 0
0.09 0.09 0
0.1 0.09 0
0.11 0.09 0
0.12 0.09 0
0.13 0.09 0
0.14 0.09 0
0.15 0.09 0
0.16 0.09 0
0.17 0.09 0
0.18 0.09 0
0.19 0.09 0
0.2 0.09 0
0.21 0.09 0
0.22 0.09 0
0.23 0.09 0
0.24 0.09 0
0.25 0.09 0
0.26 0.09 0
0.27 0.09 0
0.28 0.09 0
0.29 0.09 0
0.3 0.09 0
0.31 0.09 0
0.32 0.09 0
0.33 0.09 0
0.34 0.09 0
0.35 0.09 0
0.36 0.09 0
0.37 0.09 0
0.38 0.09 0
0.39 0.09 0
0.4 0.09 0
0.41 0.09 0
0.42 0.09 0
0.43 0.09 0
0.44 0.09 0
0.45 0.09 0
0.46 0.09 0
0.47 0.09 0
0.48 0.09 0
0.49 0.09 0
0.5 0.09 0
0.51 0.09 0
0.52 0.09 0
0.53 0.09 0
0.54 0.09 0
0.55 0.09 0
0.56 0.09 0
0.57 0.09 0
0.58 0.09 0
0.59 0.09 0
0.6 0.09 0
0.61 0.09 0
0 0.1 0
0.01 0.1 0
0.02 0.1 0
0.03 0.1 0
0.04 0.1 0
0.05 0.1 0
0.06 0.1 0
0.07 0.1 0
0.08 0.1 0
0.09 0.1 0
0.1 0.1 0
0.11 0.1 0
0.12 0.1 0
0.13 0.1 0
0.14 0.1 0
0.15 0.1 0
0.16 0.1 0
0.17 0.1 0
0.18 0.1 0
0.19 0.1 0
0.2 0.1 0
0.21 0.1 0
0.22 0.1 0
0.23 0.1 0
0.24 0.1 0
0.25 0.1 0
0.26 0.1 0
0.27 0.1 0
0.28 0.1 0
0.29 0.1 0
0.3 0.1 0
0.31 0.1 0
0.32 0.1 0
0.33 0.1 0
0.34 0.1 0
0.35 0.1 0
0.36 0.1 0
0.37 0.1 0
0.38 0.1 0
0.39 0.1 0
0.4 0.1 0
0.41 0.1 0
0.42 0.1 0
0.43 0.1 0
0.44 0.1 0
0.45 0.1 0
0.46 0.1 0
0.47 0.1 0
0.48 0.1 0
0.49 0.1 0
0.5 0.1 0
0.51 0.1 0
0.52 0.1 0
0.53 0.1 0
0.54 0.1 0
0.55 0.1 0
0.56 0.1 0
0.57 0.1 0
0.58 0.1 0
0.59 0.1 0
0.6 0.1 0
0.61 0.1 0
0 0.11 0
0.01 0.11 0
0.02 0.11 0
0.03 0.11 0
0.04 0.11 0
0.05 0.11 0
0.06 0.11 0
0.07 0.11 0
0.08 0.11 0
0.09 0.11 0
0.1 0.11 0
0.11 0.11 0
0.12 0.11 0
0.13 0.11 0
0.14 0.11 0
0.15 0.11 0
0.16 0.11 0
0.17 0.11 0
0.18 0.11 0
0.19 0.11 0
0.2 0.11 0
0.21 0.11 0
0.22 0.11 0
0.23 0.11 0
0.24 0.11 0
0.25 0.11 0
0.26 0.11 0
0.27 0.11 0
0.28 0.11 0
0.29 0.11 0
0.3 0.11 0
0.31 0.11 0
0.32 0.11 0
0.33 0.11 0
0.34 0.11 0
0.35 0.11 0
0.36 0.11 0
0.37 0.11 0
0.38 0.11 0
0.39 0.11 0
0.4 0.11 0
0.41 0.11 0
0.42 0.11 0
0.43 0.11 0
0.44 0.11 0
0.45 0.11 0
0.46 0.11 0
0.47 0.11 0
0.48 0.11 0
0.49 0.11 0
0.5 0.11 0
0.51 0.11 0
0.52 0.11 0
0.53 0.11 0
0.54 0.11 0
0.55 0.11 0
0.56 0.11 0
0.57 0.11 0
0.58 0.11 0
0.59 0.11 0
0.6 0.11 0
0.61 0.11 0
0 0.12 0
0.01 0.12 0
0.02 0.12 0
0.03 0.12 0
0.04 0.12 0
0.05 0.12 0
0.06 0.12 0
0.07 0.12 0
0.08 0.12 0
0.09 0.12 0
0.1 0.12 0
0.11 0.12 0
0.12 0.12 0
0.13 0.12 0
0.14 0.12 0
0.15 0.12 0
0.16 0.12 0
0.17 0.12 0
0.18 0.12 0
0.19 0.12 0
0.2 0.12 0
0.21 0.12 0
0.22 0.12 0
0.23 0.12 0
0.24 0.12 0
0.25 0.12 0
0.26 0.12 0
0.27 0.12 0
0.28 0.12 0
0.29 0.12 0
0.3 0.12 0
0.31 0.12 0
0.32 0.12 0
0.33 0.12 0
0.34 0.12 0
0.35 0.12 0
0.36 0.12 0
0.37 0.12 0
0.38 0.12 0
0.39 0.12 0
0.4 0.12 0
0.41 0.12 0
0.42 0.12 0
0.43 0.12 0
0.44 0.12 0
0.45 0.12 0
0.46 0.12 0
0.47 0.12 0
0.48 0.12 0
0.49 0.12 0
0.5 0.12 0
0.51 0.12 0
0.52 0.12 0
0.53 0.12 0
0.54 0.12 0
0.55 0.12 0
0.56 0.12 0
0.57 0.12 0
0.58 0.12 0
0.59 0.12 0
0.6 0.12 0
0.61 0.12 0
0 0.13 0
0.01 0.13 0
0.02 0.13 0
0.03 0.13 0
0.04 0.13 0
0.05 0.13 0
0.06 0.13 0
0.07 0.13 0
0.08 0.13 0
0.09 0.13 0
0.1 0.13 0
0.11 0.13 0
0.12 0.13 0
0.13 0.13 0
0.14 0.13 0
0.15 0.13 0
0.16 0.13 0
0.17 0.13 0
0.18 0.13 0
0.19 0.13 0
0.2 0.13 0
0.21 0.13 0
0.22 0.13 0
0.23 0.13 0
0.24 0.13 0
0.25 0.13 0
0.26 0.13 0
0.27 0.13 0
0.28 0.13 0
0.29 0.13 0
0.3 0.13 0
0.31 0.13 0
0.32 0.13 0
0.33 0.13 0
0.34 0.13 0
0.35 0.13 0
0.36 0.13 0
0.37 0.13 0
0.38 0.13 0
0.39 0.13 0
0.4 0.13 0
0.41 0.13 0
0.42 0.13 0
0.43 0.13 0
0.44 0.13 0
0.45 0.13 0
0.46 0.13 0
0.47 0.13 0
0.48 0.13 0
[...]
POINT_DATA 93248

SCALARS v double
LOOKUP_TABLE default
0
0
0
0
0
0
0
0
0
0
0
0
0
0
0
0
0
0
0
0
0
0
0
0
0
0
0
0
0
0
0
0
0
0
0
0
0
0
-0.0431501
0
0
0
0
0
-0.0455606
0
0
0
0
0
0
0
0
0
0
0
0
0
0
0
0
0
0
0.0461166
-0.0594945
0.0501264
0.0370197
0.0217512
0
-0.00470129
-0.0135726
-0.0184831
-0.020623
-0.0213897
-0.0224503
-0.022089
-0.0219097
-0.0217368
-0.0217971
-0.0215463
-0.0212649
-0.0202157
-0.0244195
-0.0228138
-0.0215683
-0.0217908
-0.0218925
-0.0219678
-0.0220138
-0.0220357
-0.0220391
-0.0220244
-0.0219917
-0.0220047
-0.0224707
-0.022004
-0.0215614
-0.0216708
-0.0337386
-0.0216253
-0.0227345
-0.0170979
-0.0230764
-0.0318248
-0.0238626
-0.0236495
-0.0242235
-0.0282816
-0.0619534
-0.0227613
-0.0282505
-0.0217894
-0.0216802
-0.0217899
-0.0229896
-0.0241717
-0.0339622
-0.0233824
-0.0440849
-0.0222273
-0.0205507
-0.0182873
-0.0145709
0
0
0.0272079
0.0528358
0.0609406
0.0565955
0.0421275
0.0288217
0.0124415
-0.00294468
-0.0139145
-0.0199654
-0.0227257
-0.0601981
-0.0257666
-0.0259837
-0.0216627
-0.0263495
-0.0258731
-0.0267155
-0.0285277
-0.0677052
-0.0262924
-0.0267779
-0.0266732
-0.0268513
-0.0270142
-0.027124
-0.027186
-0.0272095
-0.0271926
-0.0271143
-0.02699
-0.047651
-0.0272376
-0.0262442
-0.0266395
-0.0257058
-0.0232914
-0.0199371
-0.028764
-0.0316406
-0.031966
-0.0307605
-0.0303509
-0.0299465
-0.030162
-0.0306523
-0.0287652
-0.0282505
-0.0270306
-0.0269889
-0.0270701
-0.0279819
-0.0287657
-0.0296625
-0.0279601
-0.0271819
-0.0505179
-0.024247
-0.0216604
-0.0184043
0
0
0.0139999
0.0361881
0.0473379
0.0525064
0.0502448
0.0371499
0.0218781
0.00656414
-0.00596437
-0.0143553
-0.0192585
-0.0229597
-0.0244687
-0.0254746
-0.0261812
-0.0270792
0
-0.027261
-0.0283716
-0.0285223
-0.0278752
-0.0278393
-0.0279462
-0.0281335
-0.0283139
-0.0284529
-0.0285477
-0.0286014
-0.0286183
-0.028611
-0.0286573
-0.0290968
-0.0286494
-0.0287924
-0.0272392
-0.0264223
-0.0251727
-0.0245595
-0.0291418
-0.0319743
-0.0329246
-0.0327993
-0.0317101
-0.0315726
-0.0317557
-0.029633
-0.0291131
-0.0286852
-0.0293483
-0.0290835
-0.0289709
-0.0291703
-0.0293527
-0.0293055
-0.0285754
-0.0279061
-0.0273819
-0.0252739
-0.0231008
-0.0209385
0
0
0.00784376
0.0234337
0.036179
0.0405501
0.0405412
0.0342078
0.0235246
0.0110287
-0.000347297
-0.00900752
-0.014934
-0.0190549
-0.021697
-0.023575
-0.0248742
-0.0257608
-0.0257683
-0.0266292
-0.027422
-0.0276957
-0.0278006
-0.0279682
-0.0281701
-0.0283846
-0.0285814
-0.0287454
-0.02887
-0.028954
-0.0290008
-0.0290251
-0.0290721
-0.0292363
-0.0294221
-0.0291323
-0.0282003
-0.0275071
-0.027021
-0.0272566
-0.0293546
-0.0311559
-0.0320711
-0.0322475
-0.031896
-0.0317071
-0.0312991
-0.0291768
-0.0294234
-0.0294642
-0.0297116
-0.0296157
-0.0294759
-0.0293608
-0.0291782
-0.0288491
-0.0283007
-0.0276421
-0.0268096
-0.0253801
-0.0237549
-0.0229697
0
0
0.00463571
0.0147192
0.0232221
0.02833
0.030157
0.0277182
0.0209176
0.0114117
0.00195819
-0.00594451
-0.0118835
-0.0162203
-0.0193485
-0.0216252
-0.0234064
-0.0249496
-0.0254122
-0.0261524
-0.0266426
-0.0271536
-0.0275866
-0.0279534
-0.0282683
-0.0285428
-0.0287801
-0.0289798
-0.0291384
-0.0292513
-0.0293165
-0.0293378
-0.0293339
-0.0294256
-0.0304243
-0.0297172
-0.0290047
-0.0285842
-0.0284818
-0.0288677
-0.0298662
-0.0308594
-0.0315025
-0.0317623
-0.0317652
-0.031737
-0.0315028
0
-0.0299717
-0.0301458
-0.0301246
-0.0300057
-0.0298367
-0.0295719
-0.0291513
-0.0286746
-0.0281498
-0.027544
-0.0267991
-0.0257789
-0.0241527
-0.0246928
-0.0498311
0
0.0027027
0.0091265
0.0148088
0.0190322
0.0213523
0.0208892
0.0164649
0
0.00171237
-0.00502336
-0.0104724
-0.0146931
-0.0179604
-0.0205273
-0.0227312
-0.0248987
-0.0248794
-0.0250644
-0.0260335
-0.026873
-0.0275566
-0.0280842
-0.0284981
-0.0288388
-0.0291263
-0.0293687
-0.0295671
-0.0297106
-0.0297904
-0.0297961
-0.0297026
-0.0294981
-0.0658423
-0.0302832
-0.0297596
-0.0295753
-0.0296472
-0.0299712
-0.0305108
-0.0310619
-0.0314696
-0.031681
-0.0317455
-0.0316494
-0.0312469
-0.0299782
-0.0303653
-0.0305504
-0.0305688
-0.0305137
-0.030389
-0.0300555
-0.029368
-0.0287636
-0.0282734
-0.0277945
-0.027417
-0.0277351
-0.0284973
-0.0251201
0
0
0.00141021
0.00537444
0.00908439
0.0122003
0.0142216
0.0140171
0.0114661
0.00617197
9.92023e-05
-0.00558751
-0.0103814
-0.0142993
-0.0174575
-0.0199953
-0.0223563
-0.0256913
-0.024375
-0.0248574
-0.0260747
-0.0270729
-0.0278852
-0.0284621
-0.028916
-0.0293016
-0.0296379
-0.0299222
-0.0301679
-0.0303492
-0.0304528
-0.0304798
-0.0305086
-0.0306642
-0.0316208
-0.0311411
-0.0307934
-0.0306752
-0.0307346
-0.0309462
-0.0312553
-0.0315727
-0.0318248
-0.0319743
-0.0319787
-0.031875
-0.0315938
-0.0311277
-0.0310938
-0.0311291
-0.0311497
-0.0311803
-0.0311901
-0.0308881
-0.0297206
-0.0290099
-0.0286138
-0.0282115
-0.0277382
-0.0477567
-0.0228699
-0.0247739
0
0
0.000486044
0.00271143
0.00496195
0.00705896
0.00857609
0.00854541
0.006463
0.00234883
-0.00255785
-0.00725605
-0.0113134
-0.0148955
-0.0193485
-0.0197816
-0.0211825
-0.0208451
-0.0248212
-0.0266633
-0.0273913
-0.0279894
-0.0286725
-0.0290988
-0.0295053
-0.0299126
-0.0299222
-0.0306404
-0.0309301
-0.0311582
-0.0312873
-0.031292
-0.0313606
-0.0315335
-0.0318742
-0.031847
-0.0317565
-0.0317301
-0.0317732
-0.0319005
-0.0320835
-0.0322708
-0.0324181
-0.0324965
-0.0324831
-0.0323863
-0.0322036
-0.0319797
-0.0318636
-0.0318101
-0.0318048
-0.0318943
-0.0321092
-0.0321516
-0.0300263
-0.0294295
-0.0292875
-0.0291137
-0.0288681
-0.0286529
-0.0266658
-0.0254661
0
0
-0.000208598
0.000722935
0.00183148
0.00299621
0.00391929
0.00373653
0.00182382
-0.0016326
-0.00569158
-0.00955473
-0.0129275
-0.0156012
-0.0182426
-0.0202478
-0.0216627
-0.0226003
-0.0249902
-0.0267256
-0.0277916
-0.0285058
-0.0354448
-0.0297466
-0.0301738
-0.0306229
-0.0311132
-0.0314713
-0.031837
-0.0321488
-0.0323365
-0.0322583
-0.0321764
-0.0323139
-0.0325474
-0.0326649
-0.0327092
-0.0327597
-0.0327941
-0.0328742
-0.03299
-0.033102
-0.0331802
-0.0332064
-0.0331696
-0.0330753
-0.0329345
-0.0327743
-0.0326335
-0.0325124
-0.0324144
-0.0323824
-0.0325225
-0.0327597
-0.0301996
-0.0304117
-0.0304707
-0.0303044
-0.0300233
-0.0295601
-0.0283257
-0.0264599
0
0
-0.000753804
-0.000827635
-0.000639455
-0.00038981
-6.44053e-05
-0.000559272
-0.00245942
-0.00553004
-0.00897367
-0.0121783
-0.0149727
-0.0173784
-0.0195389
-0.0213427
-0.0226452
-0.0240011
-0.0256922
-0.0271728
-0.0283168
-0.0292458
-0.0299522
-0.0304762
-0.0309597
-0.0314254
-0.031826
-0.0323778
-0.0328786
-0.0333444
-0.0337395
-0.0339183
-0.0324731
-0.0329426
-0.0333692
-0.0335863
-0.0336841
-0.0337386
-0.0338672
-0.033905
-0.0339854
-0.0340472
-0.0340738
-0.0340578
-0.0339892
-0.0338823
-0.0337476
-0.0335951
-0.0334291
-0.0332349
-0.032972
-0.0325487
-0.0317652
-0.0306948
-0.0336687
-0.0330797
-0.0323117
-0.0317278
-0.0312509
-0.0306668
-0.0295247
-0.0274932
0
0
-0.00120151
-0.00208873
-0.00262318
-0.00758361
-0.00351612
-0.00440492
-0.00640748
-0.00926075
-0.0122627
-0.0149629
-0.0172889
-0.0193487
-0.0212265
-0.0228902
-0.0236244
-0.0251615
-0.0266882
-0.0280108
-0.0290965
-0.0299111
-0.0307841
-0.0313683
-0.0318687
-0.0323503
-0.032846
-0.033418
-0.0340456
-0.0347013
-0.0353173
-0.0356333
0
-0.0341119
-0.0345169
-0.0346605
-0.0347285
-0.0347859
-0.0348645
-0.0350095
-0.0350757
-0.0350955
-0.0350765
-0.0350279
-0.0349093
-0.0347751
-0.0346298
-0.034471
-0.0342885
-0.0340569
-0.0337372
-0.0333143
-0.0327617
-0.0325
-0.0338972
-0.0339622
-0.0334739
-0.0329241
-0.0324102
-0.0317841
-0.0306197
-0.0285029
0
0
-0.00159282
-0.00319805
-0.00450769
-0.00563803
-0.00654286
-0.00789651
-0.0100856
-0.0128238
-0.0155023
-0.0178229
-0.0197553
-0.0214957
-0.0231653
-0.0249085
0
-0.0265235
-0.0279532
-0.0291496
-0.030191
-0.0309994
-0.0317095
-0.0322842
-0.0327931
-0.0332937
-0.0338354
-0.0344813
-0.0352854
-0.0362156
-0.0370876
-0.0366384
-0.0351542
-0.0352784
-0.0354827
-0.0356227
-0.0357315
-0.0358432
-0.0359742
-0.0361329
-0.0362229
-0.0362224
-0.0361634
-0.0361344
-0.0358994
-0.0357281
-0.0355693
-0.0354083
-0.035228
-0.0349953
-0.0346707
-0.0344147
-0.0341525
-0.0341019
-0.0345317
-0.0346078
-0.0343469
-0.0339456
-0.033478
-0.0328609
-0.0316662
-0.0294748
0
0
-0.0019395
-0.00416859
-0.00611645
-0.00770705
-0.00926104
-0.0110885
-0.0135083
-0.0162099
-0.0186454
-0.0217292
-0.0222774
-0.0237124
-0.0250694
-0.0263066
-0.0268169
-0.0280786
-0.0292742
-0.0303593
-0.0315049
-0.0322313
-0.0327928
-0.0332845
-0.0337556
-0.034238
-0.0347795
-0.0354767
-0.0365127
-0.0380061
-0.0404547
-0.0384127
-0.0369693
-0.0365409
-0.0365045
-0.036592
-0.0367306
-0.0369121
-0.0371187
-0.0373707
-0.0375037
-0.0374549
-0.0372754
-0.0369557
-0.0368678
-0.0367096
-0.0365495
-0.0363977
-0.0362425
-0.0360338
-0.0356239
-0.0356057
-0.0355009
-0.0354309
-0.0354601
-0.0354429
-0.0352615
-0.0349524
-0.0344823
-0.0339099
-0.0326762
-0.0304028
0
0
-0.00225306
-0.00503552
-0.00758361
-0.00986295
-0.0118261
-0.014071
-0.0167298
-0.0194453
-0.0217292
-0.0234785
-0.0248182
-0.0259997
-0.0271094
-0.0281193
-0.0289246
-0.0298528
-0.0307642
-0.0316436
-0.0332181
-0.033622
-0.0339606
-0.0343458
-0.0347513
-0.0351733
-0.0356308
-0.0362259
-0.0373095
-0.0293165
-0.0497756
-0.0399777
-0.0378257
-0.0373706
-0.0373617
-0.0374951
-0.0377043
-0.0379996
-0.0384087
-0.0387945
-0.0390284
-0.0388664
-0.0385388
-0.0381928
-0.037939
-0.0377295
-0.0375561
-0.0374182
-0.0373076
-0.0371885
-0.0297116
-0.0368841
-0.0368014
-0.0366614
-0.0364481
-0.0364569
-0.0362999
-0.0360715
-0.0357468
-0.0350031
-0.033665
-0.031279
0
0
-0.00254572
-0.00580075
-0.0088815
-0.0116497
-0.0141891
-0.0168673
-0.0197761
-0.0225348
-0.0247032
-0.0262322
-0.0273598
-0.0283377
-0.0292625
-0.0301272
-0.0309066
-0.0316583
-0.0323265
-0.0327781
-0.0631792
-0.034926
-0.0351247
-0.0354448
-0.035799
-0.0361248
-0.0363921
-0.036517
-0.0361644
-0.033664
-0.021312
-0.0333402
-0.0364853
-0.037489
-0.0379535
-0.0382893
-0.0386141
-0.0390407
-0.0396645
-0.0404735
-0.041069
-0.0405271
-0.03987
-0.0393581
-0.0390007
-0.0387483
-0.0385596
-0.038431
-0.0383246
-0.0382013
-0.0379726
-0.0381207
-0.0380501
-0.0379515
-0.0380004
-0.037672
-0.0374111
-0.0372444
-0.0368164
-0.0360869
-0.0346349
-0.032083
0
0
-0.00285616
-0.00645619
-0.0100874
-0.0133926
-0.0164372
-0.0195138
-0.0226659
-0.0254891
-0.0275797
-0.0289494
-0.0298952
-0.030709
-0.0314933
-0.0322381
-0.0329134
-0.0335409
-0.0341379
-0.0347671
-0.0360089
-0.0362544
-0.0364687
-0.0367231
-0.0369786
-0.0371926
-0.0373027
-0.0371947
-0.0366171
-0.0351238
-0.0326529
-0.0353229
-0.037106
-0.0380799
-0.0386745
-0.0391166
-0.0394713
-0.0399742
-0.0408805
-0.0425445
-0.0446459
-0.0425051
-0.0411199
-0.0403852
-0.0399759
-0.0397249
-0.0395334
-0.0394409
-0.0393574
-0.0392841
-0.0392878
-0.0395585
-0.0393281
-0.0391429
-0.0390479
-0.0388478
-0.038353
-0.0385628
-0.0380472
-0.0373144
-0.0356837
-0.0327641
0
0
-0.00326011
0.000722935
-0.0112962
-0.0151228
-0.0186281
-0.0219723
-0.0253926
-0.0283148
-0.0303765
-0.0316314
-0.0324048
-0.0330933
-0.0337846
-0.0344363
-0.0349738
-0.0354602
-0.0359509
-0.0364945
-0.0371431
-0.0375262
-0.0378043
-0.0380406
-0.0382412
-0.0383831
-0.0384238
-0.0382932
-0.0378995
-0.0373646
-0.0371659
-0.0378231
-0.0385388
-0.0391269
-0.0396181
-0.0400416
-0.0402342
-0.040622
-0.0415354
-0.0443301
-0.054224
-0.044103
-0.0417312
-0.0410397
-0.040769
-0.0406286
-0.0395334
-0.0404553
-0.0403948
-0.0403342
-0.0404516
-0.0413281
-0.0405971
-0.0403007
-0.0402533
-0.0403271
-0.0408379
-0.0403194
-0.0395482
-0.0389909
-0.037231
-0.0331917
0
0
-0.00336773
-0.0078646
-0.0124462
-0.0168315
-0.0207922
-0.0244128
-0.0279979
-0.0310649
-0.0331391
-0.0343088
-0.0348275
-0.035452
-0.036131
-0.0367443
-0.0370756
-0.0373792
-0.0377406
-0.0381823
-0.0386117
-0.038944
-0.0392043
-0.0394133
-0.0395745
-0.0396788
-0.0397073
-0.0396374
-0.0394616
-0.0392019
-0.0400429
-0.0399347
-0.0400442
-0.0403235
-0.040659
-0.0410262
-0.040883
-0.0408699
-0.0403678
-0.0377082
-0.0243738
-0.0371316
-0.0401968
-0.0410743
-0.041348
-0.0414383
-0.0414468
-0.041471
-0.0414426
-0.0413452
-0.0413247
-0.0685261
-0.0416061
-0.0414004
-0.0414424
-0.0414989
-0.0415173
-0.0412862
-0.0417523
-0.0415688
-0.041117
-0.0400883
0
0
-0.00357104
-0.00860268
-0.0135729
-0.0186837
-0.0230791
-0.0263844
-0.0304023
-0.0336977
-0.0358309
-0.0370021
-0.03695
-0.0377279
-0.0385448
-0.0392136
-0.0391375
-0.0392444
-0.0395157
-0.039967
-0.0402714
-0.0405032
-0.0406948
-0.0408529
-0.0409727
-0.041051
-0.0410853
-0.0410748
-0.040984
-0.0405719
-0.0713634
-0.0415185
-0.0414049
-0.0415205
-0.0416659
-0.0416593
-0.0419857
-0.0417159
-0.0408968
-0.0390967
-0.0362134
-0.0388374
-0.0407551
-0.0416531
-0.0420888
-0.0423182
-0.0424465
-0.0425451
-0.0425984
-0.0426303
-0.0427994
-0.0435354
-0.04296
-0.0427653
-0.0427646
-0.0427848
-0.0427675
-0.0428079
-0.0431408
-0.0431852
-0.0425821
-0.0405178
0
0
-0.00380568
-0.00926454
-0.0145146
-0.0325123
-0.0255576
0
-0.0329155
-0.0363766
-0.038545
-0.0398832
-0.0104724
-0.0400792
-0.0410298
-0.0417771
-0.0409703
-0.0410886
-0.0413568
-0.0420541
-0.0421353
-0.0421929
-0.042277
-0.0423586
-0.042424
-0.04247
-0.0425065
-0.0426051
-0.0429788
-0.0425565
-0.0432866
-0.0430071
-0.0428757
-0.0429041
-0.0429835
-0.0430178
-0.0430572
-0.0427961
-0.0422059
-0.0413448
-0.040671
-0.0412735
-0.0420867
-0.0426764
-0.0430526
-0.0433152
-0.0434955
-0.0436713
-0.0437907
-0.0438739
-0.0439858
-0.0441648
-0.0440484
-0.0440558
-0.0441078
-0.0441366
-0.0440849
-0.0441748
-0.0443816
-0.0443794
-0.0435814
-0.0412046
0
0
-0.00406011
-0.00997987
-0.0158362
-0.0217905
-0.0269835
-0.0310843
-0.0355526
-0.0389663
-0.0409533
-0.0418538
-0.0417614
-0.0423231
-0.0430115
-0.0425919
-0.0435703
-0.0436393
-0.0435063
-0.0599599
-0.044079
-0.0439559
-0.043924
-0.0439226
-0.0439124
-0.0439043
-0.043873
-0.0437346
-0.0431157
-0.0437794
-0.0441528
-0.0442055
-0.0442137
-0.0442851
-0.0444255
-0.0445535
-0.0444186
-0.0441377
-0.0437197
-0.043292
-0.0430772
-0.0432502
-0.0435978
-0.043932
-0.044145
-0.044425
-0.0446042
-0.0448529
-0.0449999
-0.0450863
-0.0451363
-0.0451313
-0.0450962
-0.0452947
-0.0454248
-0.0454998
-0.0453198
-0.0454149
-0.0455504
-0.0454484
-0.0445304
-0.0420197
0
0
-0.00431062
-0.0106655
-0.0169778
-0.0230855
-0.0286943
-0.0337222
-0.0382717
-0.0416287
-0.0433755
-0.0439338
-0.0443673
-0.0444214
-0.0436591
-0.0736441
-0.0459725
-0.0458766
-0.045798
-0.0461119
-0.0459207
-0.0457517
-0.0456335
-0.0455345
-0.0454195
-0.0453619
-0.0453139
-0.0452197
-0.0450714
-0.0451915
-0.0453599
-0.0454335
-0.0454914
-0.0456273
-0.0459431
-0.0464553
-0.0459693
-0.0456214
-0.0452175
-0.0449425
-0.0448354
-0.0449008
-0.0450767
-0.0453037
-0.0456081
-0.0456947
-0.0457996
-0.0460848
-0.0462003
-0.0462911
-0.0463331
-0.0462269
-0.0461176
-0.0464817
-0.0466233
-0.0468091
-0.046479
-0.0466503
-0.0467091
-0.0464583
-0.0454989
-0.0429192
0
0
-0.0045545
-0.0113292
-0.0180687
-0.0245405
-0.0305832
-0.0361217
-0.040915
-0.0443864
-0.0459585
-0.045561
-0.0469823
-0.0471385
-0.0469553
-0.0478938
-0.0479419
-0.0478553
-0.0477438
-0.0477382
-0.0476127
-0.0474596
-0.0473138
-0.0471548
-0.0468698
-0.046809
-0.0467891
-0.0467333
-0.0466514
-0.0465832
-0.0466675
-0.0466772
-0.0466988
-0.0468333
-0.0473861
-0.0497552
-0.0474662
-0.0471982
-0.0465593
-0.0463696
-0.0463191
-0.0463639
-0.0464696
-0.0466166
-0.0468206
-0.04702
-0.0472347
-0.0471805
-0.0473125
-0.047484
-0.0476143
-0.0474374
-0.0473093
-0.0473763
-0.0474916
-0.0475034
-0.0481333
-0.0481105
-0.0479147
-0.0473242
-0.0464885
-0.0438925
0
0
-0.00479567
-0.011989
-0.0191656
-0.0260732
-0.0325599
-0.0384844
-0.0435033
-0.0474124
-0.0497221
-0.052087
-0.0506133
-0.0499948
-0.0497812
-0.0499303
-0.0499248
-0.0497959
-0.0495159
-0.0494661
-0.0493136
-0.0491491
-0.0489989
-0.0488275
-0.0481371
-0.0482329
-0.0482983
-0.0482519
-0.0481626
-0.0480252
-0.0479062
-0.0478582
-0.0477762
-0.047651
-0.0470833
-0.0438517
-0.0466203
-0.0467399
-0.0474213
-0.0475768
-0.0476499
-0.0477177
-0.0477888
-0.0478587
-0.0480373
-0.0482429
-0.0484127
-0.0484482
-0.0485454
-0.0487159
-0.0489406
-0.0485585
-0.0478978
-0.0487998
-0.0488542
-0.0489201
-0.0492571
-0.0493525
-0.0490815
-0.0477567
-0.0475404
-0.0449376
0
0
-0.00503642
-0.0126527
-0.0202798
-0.0276545
-0.0346219
-0.0410825
-0.0466959
-0.0502435
-0.0524122
-0.0534661
-0.0531062
-0.052665
-0.0523735
-0.0522211
-0.052051
-0.0518448
-0.0517339
-0.0513328
-0.0510553
-0.0508399
-0.0506952
-0.0506601
-0.0306229
-0.0498086
-0.0498806
-0.0497669
-0.0496106
-0.0465832
-0.0492241
-0.0491115
-0.0488684
-0.048777
-0.048378
-0.0476475
-0.0481211
-0.0483673
-0.0486588
-0.0488329
-0.0489476
-0.0490353
-0.0490717
-0.0489863
-0.0492142
-0.04945
-0.0496111
-0.0496909
-0.0497553
-0.0498072
-0.0498425
-0.050325
-0.0229896
-0.0577542
-0.0502867
-0.0502886
-0.0504628
-0.0506299
-0.0505179
-0.0182873
-0.0488975
-0.0460156
0
0
-0.00527603
-0.0133186
-0.0214045
-0.0292539
-0.0366746
-0.0434882
-0.0491732
-0.0527563
-0.0548379
-0.0556
-0.0555183
-0.0551823
-0.0548384
-0.0545249
-0.0542114
-0.0538792
-0.0535067
-0.0530866
-0.0527435
-0.0524728
-0.0522456
-0.0519559
-0.0513269
-0.0513975
-0.0514091
-0.0511466
-0.0508838
-0.050627
-0.0505192
-0.0504482
-0.0504942
-0.0501751
-0.0499059
-0.0496806
-0.0497395
-0.0498583
-0.0500058
-0.0501384
-0.050259
-0.0503702
-0.0503882
-0.0498898
-0.0503815
-0.0507004
-0.0508608
-0.0509478
-0.0510073
-0.0510523
-0.0511024
-0.0512078
-0.0506664
-0.0514496
-0.0515131
-0.0515436
-0.0516145
-0.0516385
-0.0513689
-0.0502339
-0.0497482
-0.0469766
0
0
-0.00551107
-0.01398
-0.0225327
-0.0308707
-0.0387526
-0.0459522
-0.0519121
-0.0549224
-0.057213
-0.058004
-0.0580237
-0.0576889
-0.057251
-0.0568106
-0.0563811
-0.0559564
-0.0553611
-0.0547804
-0.054371
-0.0540686
-0.053839
-0.0536054
-0.0532208
-0.053046
-0.0530342
-0.0524363
-0.0521119
-0.0519293
-0.0518258
-0.0517453
-0.0516687
-0.0515075
-0.0513464
-0.0512331
-0.0512174
-0.0512642
-0.0513471
-0.0514479
-0.0515677
-0.0517241
-0.0518707
-0.0332064
-0.0517182
-0.0520147
-0.0521413
-0.052221
-0.0522878
-0.0523453
-0.052398
-0.0524397
-0.0523787
-0.0526031
-0.0527003
-0.05275
-0.052783
-0.0527563
-0.0525161
-0.0520394
-0.0509206
-0.04798
0
0
-0.0057346
-0.0146225
-0.0236549
-0.0325123
-0.0408718
-0.0485118
-0.0550855
-0.0184831
-0.0599278
-0.0606497
-0.060702
-0.0601981
-0.0596147
-0.0590458
-0.0585313
-0.0581577
-0.0571797
-0.0563337
-0.0559139
-0.0556097
-0.0554498
-0.0551304
-0.0547664
-0.0545301
-0.0546395
-0.0535382
-0.0533743
-0.0533096
-0.0532139
-0.0531
-0.0529754
-0.0528371
-0.0527106
-0.0526217
-0.0525873
-0.0526022
-0.052654
-0.0527311
-0.0528241
-0.0529138
-0.0529102
-0.0525013
-0.0529068
-0.053188
-0.0533603
-0.0534833
-0.0535804
-0.0536577
-0.053717
-0.0537586
-0.0537852
-0.053865
-0.0539273
-0.0539702
-0.0539988
-0.0540087
-0.0540028
-0.0534905
-0.0521391
-0.0490388
0
0
-0.00593448
-0.0152126
-0.0247726
-0.0341966
-0.0430064
-0.0509303
-0.0573163
-0.0606976
-0.0629481
-0.0636655
-0.0631499
-0.0625054
-0.0618266
-0.0611804
-0.0605073
-0.06069
-0.0587981
-0.0576774
-0.0574151
-0.0570771
-0.0571689
-0.0566624
-0.0561205
-0.0555412
-0.0546701
-0.0554024
-0.0552489
-0.0549785
-0.0547302
-0.0545101
-0.0543189
-0.054154
-0.0540207
-0.0539277
-0.053883
-0.0538846
-0.0539244
-0.0539923
-0.0540754
-0.054148
-0.0541608
-0.0540828
-0.0542232
-0.0544162
-0.0546033
-0.0547667
-0.0548988
-0.0549965
-0.0550608
-0.0550979
-0.0551214
-0.0551514
-0.0551824
-0.0552108
-0.0552299
-0.0552301
-0.055168
-0.0547619
-0.0533306
-0.0501291
0
0
-0.00609592
-0.0156303
-0.0260275
-0.0359355
-0.0452035
-0.0534803
-0.0600627
-0.0641469
-0.0660934
-0.0664263
-0.065818
-0.0649661
-0.0641135
-0.0633924
-0.0633051
-0.0636931
-0.0599599
-0.0595083
-0.0589183
-0.0584321
-0.0729052
-0.0580884
-0.0575003
-0.056922
-0.0563057
-0.0564216
-0.0563948
-0.0562389
-0.0560249
-0.0558027
-0.0555972
-0.0554193
-0.0552741
-0.0551685
-0.055117
-0.0551173
-0.05516
-0.0552369
-0.0553382
-0.0554393
-0.055484
-0.055435
-0.0554844
-0.0556506
-0.0558729
-0.056089
-0.0562625
-0.0563806
-0.0564435
-0.0564622
-0.0564567
-0.0564493
-0.0564536
-0.0564694
-0.0564721
-0.0564465
-0.0563769
-0.056003
-0.0545143
-0.0512375
0
0
-0.00629901
-0.0152143
-0.0273221
-0.0379611
-0.0476682
-0.0562762