# vtk DataFile Version 2.0
FlowField
ASCII
DATASET STRUCTURED_GRID
DIMENSIONS 62 47 32 
POINTS 93248 double
0 0 0
0.01 0 0
0.02 0 0
0.03 0 0
0.04 0 0
0.05 0 0
0.06 0 0
0.07 0 0
0.08 0 0
0.09 0 0
0.1 0 0
0.11 0 0
0.12 0 0
0.13 0 0
0.14 0 0
0.15 0 0
0.16 0 0
0.17 0 0
0.18 0 0
0.19 0 0
0.2 0 0
0.21 0 0
0.22 0 0
0.23 0 0
0.24 0 0
0.25 0 0
0.26 0 0
0.27 0 0
0.28 0 0
0.29 0 0
0.3 0 0
0.31 0 0
0.32 0 0
0.33 0 0
0.34 0 0
0.35 0 0
0.36 0 0
0.37 0 0
0.38 0 0
0.39 0 0
0.4 0 0
0.41 0 0
0.42 0 0
0.43 0 0
0.44 0 0
0.45 0 0
0.46 0 0
0.47 0 0
0.48 0 0
0.49 0 0
0.5 0 0
0.51 0 0
0.52 0 0
0.53 0 0
0.54 0 0
0.55 0 0
0.56 0 0
0.57 0 0
0.58 0 0
0.59 0 0
0.6 0 0
0.61 0 0
0 0.01 0
0.01 0.01 0
0.02 0.01 0
0.03 0.01 0
0.04 0.01 0
0.05 0.01 0
0.06 0.01 0
0.07 0.01 0
0.08 0.01 0
0.09 0.01 0
0.1 0.01 0
0.11 0.01 0
0.12 0.01 0
0.13 0.01 0
0.14 0.01 0
0.15 0.01 0
0.16 0.01 0
0.17 0.01 0
0.18 0.01 0
0.19 0.01 0
0.2 0.01 0
0.21 0.01 0
0.22 0.01 0
0.23 0.01 0
0.24 0.01 0
0.25 0.01 0
0.26 0.01 0
0.27 0.01 0
0.28 0.01 0
0.29 0.01 0
0.3 0.01 0
0.31 0.01 0
0.32 0.01 0
0.33 0.01 0
0.34 0.01 0
0.35 0.01 0
0.36 0.01 0
0.37 0.01 0
0.38 0.01 0
0.39 0.01 0
0.4 0.01 0
0.41 0.01 0
0.42 0.01 0
0.43 0.01 0
0.44 0.01 0
0.45 0.01 0
0.46 0.01 0
0.47 0.01 0
0.48 0.01 0
0.49 0.01 0
0.5 0.01 0
0.51 0.01 0
0.52 0.01 0
0.53 0.01 0
0.54 0.01 0
0.55 0.01 0
0.56 0.01 0
0.57 0.01 0
0.58 0.01 0
0.59 0.01 0
0.6 0.01 0
0.61 0.01 0
0 0.02 0
0.01 0.02 0
0.02 0.02 0
0.03 0.02 0
0.04 0.02 0
0.05 0.02 0
0.06 0.02 0
0.07 0.02 0
0.08 0.02 0
0.09 0.02 0
0.1 0.02 0
0.11 0.02 0
0.12 0.02 0
0.13 0.02 0
0.14 0.02 0
0.15 0.02 0
0.16 0.02 0
0.17 0.02 0
0.18 0.02 0
0.19 0.02 0
0.2 0.02 0
0.21 0.02 0
0.22 0.02 0
0.23 0.02 0
0.24 0.02 0
0.25 0.02 0
0.26 0.02 0
0.27 0.02 0
0.28 0.02 0
0.29 0.02 0
0.3 0.02 0
0.31 0.02 0
0.32 0.02 0
0.33 0.02 0
0.34 0.02 0
0.35 0.02 0
0.36 0.02 0
0.37 0.02 0
0.38 0.02 0
0.39 0.02 0
0.4 0.02 0
0.41 0.02 0
0.42 0.02 0
0.43 0.02 0
0.44 0.02 0
0.45 0.02 0
0.46 0.02 0
0.47 0.02 0
0.48 0.02 0
0.49 0.02 0
0.5 0.02 0
0.51 0.02 0
0.52 0.02 0
0.53 0.02 0
0.54 0.02 0
0.55 0.02 0
0.56 0.02 0
0.57 0.02 0
0.58 0.02 0
0.59 0.02 0
0.6 0.02 0
0.61 0.02 0
0 0.03 0
0.01 0.03 0
0.02 0.03 0
0.03 0.03 0
0.04 0.03 0
0.05 0.03 0
0.06 0.03 0
0.07 0.03 0
0.08 0.03 0
0.09 0.03 0
0.1 0.03 0
0.11 0.03 0
0.12 0.03 0
0.13 0.03 0
0.14 0.03 0
0.15 0.03 0
0.16 0.03 0
0.17 0.03 0
0.18 0.03 0
0.19 0.03 0
0.2 0.03 0
0.21 0.03 0
0.22 0.03 0
0.23 0.03 0
0.24 0.03 0
0.25 0.03 0
0.26 0.03 0
0.27 0.03 0
0.28 0.03 0
0.29 0.03 0
0.3 0.03 0
0.31 0.03 0
0.32 0.03 0
0.33 0.03 0
0.34 0.03 0
0.35 0.03 0
0.36 0.03 0
0.37 0.03 0
0.38 0.03 0
0.39 0.03 0
0.4 0.03 0
0.41 0.03 0
0.42 0.03 0
0.43 0.03 0
0.44 0.03 0
0.45 0.03 0
0.46 0.03 0
0.47 0.03 0
0.48 0.03 0
0.49 0.03 0
0.5 0.03 0
0.51 0.03 0
0.52 0.03 0
0.53 0.03 0
0.54 0.03 0
0.55 0.03 0
0.56 0.03 0
0.57 0.03 0
0.58 0.03 0
0.59 0.03 0
0.6 0.03 0
0.61 0.03 0
0 0.04 0
0.01 0.04 0
0.02 0.04 0
0.03 0.04 0
0.04 0.04 0
0.05 0.04 0
0.06 0.04 0
0.07 0.04 0
0.08 0.04 0
0.09 0.04 0
0.1 0.04 0
0.11 0.04 0
0.12 0.04 0
0.13 0.04 0
0.14 0.04 0
0.15 0.04 0
0.16 0.04 0
0.17 0.04 0
0.18 0.04 0
0.19 0.04 0
0.2 0.04 0
0.21 0.04 0
0.22 0.04 0
0.23 0.04 0
0.24 0.04 0
0.25 0.04 0
0.26 0.04 0
0.27 0.04 0
0.28 0.04 0
0.29 0.04 0
0.3 0.04 0
0.31 0.04 0
0.32 0.04 0
0.33 0.04 0
0.34 0.04 0
0.35 0.04 0
0.36 0.04 0
0.37 0.04 0
0.38 0.04 0
0.39 0.04 0
0.4 0.04 0
0.41 0.04 0
0.42 0.04 0
0.43 0.04 0
0.44 0.04 0
0.45 0.04 0
0.46 0.04 0
0.47 0.04 0
0.48 0.04 0
0.49 0.04 0
0.5 0.04 0
0.51 0.04 0
0.52 0.04 0
0.53 0.04 0
0.54 0.04 0
0.55 0.04 0
0.56 0.04 0
0.57 0.04 0
0.58 0.04 0
0.59 0.04 0
0.6 0.04 0
0.61 0.04 0
0 0.05 0
0.01 0.05 0
0.02 0.05 0
0.03 0.05 0
0.04 0.05 0
0.05 0.05 0
0.06 0.05 0
0.07 0.05 0
0.08 0.05 0
0.09 0.05 0
0.1 0.05 0
0.11 0.05 0
0.12 0.05 0
0.13 0.05 0
0.14 0.05 0
0.15 0.05 0
0.16 0.05 0
0.17 0.05 0
0.18 0.05 0
0.19 0.05 0
0.2 0.05 0
0.21 0.05 0
0.22 0.05 0
0.23 0.05 0
0.24 0.05 0
0.25 0.05 0
0.26 0.05 0
0.27 0.05 0
0.28 0.05 0
0.29 0.05 0
0.3 0.05 0
0.31 0.05 0
0.32 0.05 0
0.33 0.05 0
0.34 0.05 0
0.35 0.05 0
0.36 0.05 0
0.37 0.05 0
0.38 0.05 0
0.39 0.05 0
0.4 0.05 0
0.41 0.05 0
0.42 0.05 0
0.43 0.05 0
0.44 0.05 0
0.45 0.05 0
0.46 0.05 0
0.47 0.05 0
0.48 0.05 0
0.49 0.05 0
0.5 0.05 0
0.51 0.05 0
0.52 0.05 0
0.53 0.05 0
0.54 0.05 0
0.55 0.05 0
0.56 0.05 0
0.57 0.05 0
0.58 0.05 0
0.59 0.05 0
0.6 0.05 0
0.61 0.05 0
0 0.06 0
0.01 0.06 0
0.02 0.06 0
0.03 0.06 0
0.04 0.06 0
0.05 0.06 0
0.06 0.06 0
0.07 0.06 0
0.08 0.06 0
0.09 0.06 0
0.1 0.06 0
0.11 0.06 0
0.12 0.06 0
0.13 0.06 0
0.14 0.06 0
0.15 0.06 0
0.16 0.06 0
0.17 0.06 0
0.18 0.06 0
0.19 0.06 0
0.2 0.06 0
0.21 0.06 0
0.22 0.06 0
0.23 0.06 0
0.24 0.06 0
0.25 0.06 0
0.26 0.06 0
0.27 0.06 0
0.28 0.06 0
0.29 0.06 0
0.3 0.06 0
0.31 0.06 0
0.32 0.06 0
0.33 0.06 0
0.34 0.06 0
0.35 0.06 0
0.36 0.06 0
0.37 0.06 0
0.38 0.06 0
0.39 0.06 0
0.4 0.06 0
0.41 0.06 0
0.42 0.06 0
0.43 0.06 0
0.44 0.06 0
0.45 0.06 0
0.46 0.06 0
0.47 0.06 0
0.48 0.06 0
0.49 0.06 0
0.5 0.06 0
0.51 0.06 0
0.52 0.06 0
0.53 0.06 0
0.54 0.06 0
0.55 0.06 0
0.56 0.06 0
0.57 0.06 0
0.58 0.06 0
0.59 0.06 0
0.6 0.06 0
0.61 0.06 0
0 0.07 0
0.01 0.07 0
0.02 0.07 0
0.03 0.07 0
0.04 0.07 0
0.05 0.07 0
0.06 0.07 0
0.07 0.07 0
0.08 0.07 0
0.09 0.07 0
0.1 0.07 0
0.11 0.07 0
0.12 0.07 0
0.13 0.07 0
0.14 0.07 0
0.15 0.07 0
0.16 0.07 0
0.17 0.07 0
0.18 0.07 0
0.19 0.07 0
0.2 0.07 0
0.21 0.07 0
0.22 0.07 0
0.23 0.07 0
0.24 0.07 0
0.25 0.07 0
0.26 0.07 0
0.27 0.07 0
0.28 0.07 0
0.29 0.07 0
0.3 0.07 0
0.31 0.07 0
0.32 0.07 0
0.33 0.07 0
0.34 0.07 0
0.35 0.07 0
0.36 0.07 0
0.37 0.07 0
0.38 0.07 0
0.39 0.07 0
0.4 0.07 0
0.41 0.07 0
0.42 0.07 0
0.43 0.07 0
0.44 0.07 0
0.45 0.07 0
0.46 0.07 0
0.47 0.07 0
0.48 0.07 0
0.49 0.07 0
0.5 0.07 0
0.51 0.07 0
0.52 0.07 0
0.53 0.07 0
0.54 0.07 0
0.55 0.07 0
0.56 0.07 0
0.57 0.07 0
0.58 0.07 0
0.59 0.07 0
0.6 0.07 0
0.61 0.07 0
0 0.08 0
0.01 0.08 0
0.02 0.08 0
0.03 0.08 0
0.04 0.08 0
0.05 0.08 0
0.06 0.08 0
0.07 0.08 0
0.08 0.08 0
0.09 0.08 0
0.1 0.08 0
0.11 0.08 0
0.12 0.08 0
0.13 0.08 0
0.14 0.08 0
0.15 0.08 0
0.16 0.08 0
0.17 0.08 0
0.18 0.08 0
0.19 0.08 0
0.2 0.08 0
0.21 0.08 0
0.22 0.08 0
0.23 0.08 0
0.24 0.08 0
0.25 0.08 0
0.26 0.08 0
0.27 0.08 0
0.28 0.08 0
0.29 0.08 0
0.3 0.08 0
0.31 0.08 0
0.32 0.08 0
0.33 0.08 0
0.34 0.08 0
0.35 0.08 0
0.36 0.08 0
0.37 0.08 0
0.38 0.08 0
0.39 0.08 0
0.4 0.08 0
0.41 0.08 0
0.42 0.08 0
0.43 0.08 0
0.44 0.08 0
0.45 0.08 0
0.46 0.08 0
0.47 0.08 0
0.48 0.08 0
0.49 0.08 0
0.5 0.08 0
0.51 0.08 0
0.52 0.08 0
0.53 0.08 0
0.54 0.08 0
0.55 0.08 0
0.56 0.08 0
0.57 0.08 0
0.58 0.08 0
0.59 0.08 0
0.6 0.08 0
0.61 0.08 0
0 0.09 0
0.01 0.09 0
0.02 0.09 0
0.03 0.09 0
0.04 0.09 0
0.05 0.09 0
0.06 0.09 0
0.07 0.09 0
0.08 0.09 0
0.09 0.09 0
0.1 0.09 0
0.11 0.09 0
0.12 0.09 0
0.13 0.09 0
0.14 0.09 0
0.15 0.09 0
0.16 0.09 0
0.17 0.09 0
0.18 0.09 0
0.19 0.09 0
0.2 0.09 0
0.21 0.09 0
0.22 0.09 0
0.23 0.09 0
0.24 0.09 0
0.25 0.09 0
0.26 0.09 0
0.27 0.09 0
0.28 0.09 0
0.29 0.09 0
0.3 0.09 0
0.31 0.09 0
0.32 0.09 0
0.33 0.09 0
0.34 0.09 0
0.35 0.09 0
0.36 0.09 0
0.37 0.09 0
0.38 0.09 0
0.39 0.09 0
0.4 0.09 0
0.41 0.09 0
0.42 0.09 0
0.43 0.09 0
0.44 0.09 0
0.45 0.09 0
0.46 0.09 0
0.47 0.09 0
0.48 0.09 0
0.49 0.09 0
0.5 0.09 0
0.51 0.09 0
0.52 0.09 0
0.53 0.09 0
0.54 0.09 0
0.55 0.09 0
0.56 0.09 0
0.57 0.09 0
0.58 0.09 0
0.59 0.09 0
0.6 0.09 0
0.61 0.09 0
0 0.1 0
0.01 0.1 0
0.02 0.1 0
0.03 0.1 0
0.04 0.1 0
0.05 0.1 0
0.06 0.1 0
0.07 0.1 0
0.08 0.1 0
0.09 0.1 0
0.1 0.1 0
0.11 0.1 0
0.12 0.1 0
0.13 0.1 0
0.14 0.1 0
0.15 0.1 0
0.16 0.1 0
0.17 0.1 0
0.18 0.1 0
0.19 0.1 0
0.2 0.1 0
0.21 0.1 0
0.22 0.1 0
0.23 0.1 0
0.24 0.1 0
0.25 0.1 0
0.26 0.1 0
0.27 0.1 0
0.28 0.1 0
0.29 0.1 0
0.3 0.1 0
0.31 0.1 0
0.32 0.1 0
0.33 0.1 0
0.34 0.1 0
0.35 0.1 0
0.36 0.1 0
0.37 0.1 0
0.38 0.1 0
0.39 0.1 0
0.4 0.1 0
0.41 0.1 0
0.42 0.1 0
0.43 0.1 0
0.44 0.1 0
0.45 0.1 0
0.46 0.1 0
0.47 0.1 0
0.48 0.1 0
0.49 0.1 0
0.5 0.1 0
0.51 0.1 0
0.52 0.1 0
0.53 0.1 0
0.54 0.1 0
0.55 0.1 0
0.56 0.1 0
0.57 0.1 0
0.58 0.1 0
0.59 0.1 0
0.6 0.1 0
0.61 0.1 0
0 0.11 0
0.01 0.11 0
0.02 0.11 0
0.03 0.11 0
0.04 0.11 0
0.05 0.11 0
0.06 0.11 0
0.07 0.11 0
0.08 0.11 0
0.09 0.11 0
0.1 0.11 0
0.11 0.11 0
0.12 0.11 0
0.13 0.11 0
0.14 0.11 0
0.15 0.11 0
0.16 0.11 0
0.17 0.11 0
0.18 0.11 0
0.19 0.11 0
0.2 0.11 0
0.21 0.11 0
0.22 0.11 0
0.23 0.11 0
0.24 0.11 0
0.25 0.11 0
0.26 0.11 0
0.27 0.11 0
0.28 0.11 0
0.29 0.11 0
0.3 0.11 0
0.31 0.11 0
0.32 0.11 0
0.33 0.11 0
0.34 0.11 0
0.35 0.11 0
0.36 0.11 0
0.37 0.11 0
0.38 0.11 0
0.39 0.11 0
0.4 0.11 0
0.41 0.11 0
0.42 0.11 0
0.43 0.11 0
0.44 0.11 0
0.45 0.11 0
0.46 0.11 0
0.47 0.11 0
0.48 0.11 0
0.49 0.11 0
0.5 0.11 0
0.51 0.11 0
0.52 0.11 0
0.53 0.11 0
0.54 0.11 0
0.55 0.11 0
0.56 0.11 0
0.57 0.11 0
0.58 0.11 0
0.59 0.11 0
0.6 0.11 0
0.61 0.11 0
0 0.12 0
0.01 0.12 0
0.02 0.12 0
0.03 0.12 0
0.04 0.12 0
0.05 0.12 0
0.06 0.12 0
0.07 0.12 0
0.08 0.12 0
0.09 0.12 0
0.1 0.12 0
0.11 0.12 0
0.12 0.12 0
0.13 0.12 0
0.14 0.12 0
0.15 0.12 0
0.16 0.12 0
0.17 0.12 0
0.18 0.12 0
0.19 0.12 0
0.2 0.12 0
0.21 0.12 0
0.22 0.12 0
0.23 0.12 0
0.24 0.12 0
0.25 0.12 0
0.26 0.12 0
0.27 0.12 0
0.28 0.12 0
0.29 0.12 0
0.3 0.12 0
0.31 0.12 0
0.32 0.12 0
0.33 0.12 0
0.34 0.12 0
0.35 0.12 0
0.36 0.12 0
0.37 0.12 0
0.38 0.12 0
0.39 0.12 0
0.4 0.12 0
0.41 0.12 0
0.42 0.12 0
0.43 0.12 0
0.44 0.12 0
0.45 0.12 0
0.46 0.12 0
0.47 0.12 0
0.48 0.12 0
0.49 0.12 0
0.5 0.12 0
0.51 0.12 0
0.52 0.12 0
0.53 0.12 0
0.54 0.12 0
0.55 0.12 0
0.56 0.12 0
0.57 0.12 0
0.58 0.12 0
0.59 0.12 0
0.6 0.12 0
0.61 0.12 0
0 0.13 0
0.01 0.13 0
0.02 0.13 0
0.03 0.13 0
0.04 0.13 0
0.05 0.13 0
0.06 0.13 0
0.07 0.13 0
0.08 0.13 0
0.09 0.13 0
0.1 0.13 0
0.11 0.13 0
0.12 0.13 0
0.13 0.13 0
0.14 0.13 0
0.15 0.13 0
0.16 0.13 0
0.17 0.13 0
0.18 0.13 0
0.19 0.13 0
0.2 0.13 0
0.21 0.13 0
0.22 0.13 0
0.23 0.13 0
0.24 0.13 0
0.25 0.13 0
0.26 0.13 0
0.27 0.13 0
0.28 0.13 0
0.29 0.13 0
0.3 0.13 0
0.31 0.13 0
0.32 0.13 0
0.33 0.13 0
0.34 0.13 0
0.35 0.13 0
0.36 0.13 0
0.37 0.13 0
0.38 0.13 0
0.39 0.13 0
0.4 0.13 0
0.41 0.13 0
0.42 0.13 0
0.43 0.13 0
0.44 0.13 0
0.45 0.13 0
0.46 0.13 0
0.47 0.13 0
0.48 0.13 0
[...]
POINT_DATA 93248

SCALARS v double
LOOKUP_TABLE default
0
0
0
0
0
0
0
0
0
0
0
0
0
0
0
0
0
0
0
0
0
0
0
0
0
0
0
0
0
0
0
0
0
0
0
0
0
0
-0.0760727
0
0
0
0
0
-0.0803465
0
0
0
0
0
0
0
0
0
0
0
0
0
0
0
0
0
0
0.0450516
-0.0746105
0.0481167
0.034573
0.0183446
0
-0.00406608
-0.0117552
-0.0169636
-0.0206297
-0.0239217
-0.0284126
-0.0283284
-0.0282627
-0.0281236
-0.0281876
-0.0275438
-0.0269817
-0.0256761
-0.0330931
-0.0290475
-0.0251706
-0.0273923
-0.027708
-0.0277753
-0.0278191
-0.027843
-0.0278341
-0.0277769
-0.0276683
-0.0277262
-0.0290688
-0.0277941
-0.0269985
-0.0274101
-0.0549193
-0.0265587
-0.0262239
-0.0228651
-0.0297818
-0.0502085
-0.030217
-0.0308578
-0.0336832
-0.0463858
-0.104105
-0.0292974
-0.0391343
-0.0274088
-0.0272856
-0.0268417
-0.0297881
-0.0336869
-0.0523396
-0.032385
-0.0727609
-0.0284198
-0.0250318
-0.0219621
-0.0177006
0
0
0.0263
0.050787
0.0584924
0.0542809
0.0380192
0.0308761
0.0194848
0.00780778
-0.00350249
-0.0132437
-0.0219262
-0.105634
-0.0346808
-0.0362507
-0.0320304
-0.0377263
-0.036553
-0.0377103
-0.0402518
-0.124776
-0.0375352
-0.0400367
-0.0376405
-0.0372149
-0.0372367
-0.0373344
-0.0374034
-0.0374095
-0.0373227
-0.037093
-0.0368789
-0.0805392
-0.0372233
-0.0360591
-0.037357
-0.0367103
-0.034075
-0.0316106
-0.0371728
-0.0405791
-0.0423604
-0.0418421
-0.0429593
-0.0439659
-0.0461858
-0.0456411
-0.0407492
-0.0391343
-0.0375284
-0.0378343
-0.0396751
-0.0400157
-0.0420669
-0.0448315
-0.0405998
-0.0384724
-0.0840478
-0.0312417
-0.0274559
-0.0238185
0
0
0.0134303
0.0346099
0.0442168
0.0517569
0.0537529
0.0418406
0.0310016
0.0196881
0.00806422
-0.00400157
-0.0145595
-0.0258396
-0.0321749
-0.0364386
-0.0391807
-0.0412769
0
-0.0415403
-0.043034
-0.044323
-0.0427383
-0.0424784
-0.0418826
-0.0416949
-0.0417414
-0.0418531
-0.0419473
-0.0419893
-0.0419727
-0.0419459
-0.0421859
-0.0435767
-0.043532
-0.0434523
-0.040693
-0.0399137
-0.0389369
-0.038844
-0.0419012
-0.0445016
-0.0464336
-0.0476525
-0.046953
-0.0478276
-0.0486197
-0.0449354
-0.0436232
-0.0427221
-0.043276
-0.0431842
-0.0435168
-0.0437518
-0.0441987
-0.0441624
-0.0425205
-0.0407448
-0.0390052
-0.0342441
-0.0307841
-0.0287932
0
0
0.00766035
0.0231058
0.0365233
0.0397686
0.0407188
0.0361259
0.029241
0.0208172
0.0114753
0.00146489
-0.00859404
-0.0185356
-0.0265796
-0.0327375
-0.037188
-0.0398647
-0.0404555
-0.0420917
-0.0435528
-0.0435595
-0.0435256
-0.043587
-0.0436127
-0.0437135
-0.0438689
-0.0440228
-0.0441499
-0.0442333
-0.0442743
-0.0443177
-0.0445012
-0.0450658
-0.045937
-0.0454982
-0.0438797
-0.0428855
-0.0424001
-0.0425797
-0.0444247
-0.0461662
-0.0475964
-0.0485641
-0.0487201
-0.0490023
-0.0484892
-0.0447867
-0.0452543
-0.0452366
-0.0454208
-0.0453353
-0.0452002
-0.0449488
-0.0445187
-0.0437049
-0.0423782
-0.0405971
-0.0382413
-0.0349209
-0.0322644
-0.0328856
0
0
0.00452314
0.0143899
0.0224292
0.0263138
0.0274375
0.0256512
0.0214599
0.0156333
0.00918352
0.00184629
-0.00620895
-0.0145923
-0.0223355
-0.0288836
-0.033943
-0.0380539
-0.0398147
-0.0416018
-0.0424048
-0.0430535
-0.0436362
-0.0441216
-0.0445164
-0.044858
-0.0451556
-0.0453759
-0.0455567
-0.0456877
-0.0457552
-0.0457608
-0.0457403
-0.0459752
-0.0483513
-0.0471481
-0.0458875
-0.0451712
-0.0449944
-0.0453809
-0.0463208
-0.0473427
-0.0482359
-0.0488904
-0.0492804
-0.0495373
-0.0492266
0
-0.0465782
-0.0468167
-0.046692
-0.0464519
-0.0460972
-0.0455283
-0.0446546
-0.0435345
-0.0421667
-0.04047
-0.0384285
-0.0360747
-0.0332051
-0.0359597
-0.0875912
0
0.00255801
0.00859034
0.0133184
0.0158646
0.0164849
0.0157148
0.0126169
0
0.00430511
-0.000788766
-0.00699004
-0.0139242
-0.0206763
-0.0268786
-0.0323585
-0.0373323
-0.0384158
-0.0390688
-0.0411327
-0.04265
-0.0438233
-0.0446969
-0.0453574
-0.04589
-0.0463328
-0.0465984
-0.0468534
-0.0470475
-0.0471375
-0.0470833
-0.046818
-0.0463961
-0.109645
-0.0483539
-0.047397
-0.0470573
-0.0470966
-0.0474369
-0.0479781
-0.0485581
-0.0490665
-0.0494338
-0.0496868
-0.0496338
-0.0489627
-0.0469002
-0.0474184
-0.0476559
-0.0475878
-0.0473481
-0.0469409
-0.0462322
-0.0450894
-0.0438458
-0.0425334
-0.0411412
-0.0401333
-0.0409842
-0.0437036
-0.0367243
0
0
0.00121744
0.00463503
0.00712479
0.00821916
0.00790503
0.00615838
0.00499321
0.00218087
-0.000934062
-0.00484652
-0.00985311
-0.0159327
-0.0212973
-0.0265837
-0.0317118
-0.0378725
-0.0373286
-0.0387515
-0.0411822
-0.0431008
-0.0446581
-0.0456993
-0.0464676
-0.0471017
-0.04767
-0.0479284
-0.0483027
-0.0485829
-0.0487178
-0.048691
-0.0486182
-0.0488717
-0.0507284
-0.0499757
-0.0493718
-0.0491145
-0.049129
-0.0493325
-0.0496313
-0.049942
-0.0502085
-0.0503948
-0.0503721
-0.0501967
-0.0497026
-0.0489403
-0.0487782
-0.0487184
-0.048578
-0.0483426
-0.0479781
-0.0472823
-0.045872
-0.0446507
-0.0434949
-0.0422303
-0.0410034
-0.0776022
-0.0282434
-0.0359314
0
0
0.000253808
0.00182001
0.00270693
0.00262774
0.00161008
-0.000126066
-0.0017721
-0.00387243
-0.00635017
-0.00952929
-0.0138246
-0.0206533
-0.0223355
-0.0273122
-0.0305059
-0.0309167
-0.037453
-0.0413179
-0.0432498
-0.0447402
-0.0463182
-0.0471557
-0.0478466
-0.0484807
-0.0479284
-0.0496515
-0.0500842
-0.0504051
-0.05057
-0.0505061
-0.0504221
-0.0506381
-0.0512388
-0.051264
-0.0511396
-0.0510656
-0.0510988
-0.0512098
-0.0513554
-0.0514926
-0.0515866
-0.0516049
-0.0514964
-0.0512715
-0.0509168
-0.050512
-0.0502201
-0.0499803
-0.0497277
-0.0494539
-0.0491682
-0.0487447
-0.0468868
-0.0459311
-0.045102
-0.0441928
-0.0433032
-0.0423745
-0.038039
-0.0369229
0
0
-0.000466886
-0.000262668
-0.000579714
-0.00160777
-0.003237
-0.00522612
-0.00722041
-0.00927183
-0.0115165
-0.0141774
-0.0171583
-0.0183295
-0.0247336
-0.0290318
-0.0320304
-0.034177
-0.0383887
-0.041789
-0.0441319
-0.0457546
-0.0601273
-0.0485264
-0.0492683
-0.050011
-0.0508288
-0.0513626
-0.0519494
-0.052441
-0.0527208
-0.0525452
-0.0520347
-0.0521485
-0.0525372
-0.0527888
-0.0529048
-0.0529634
-0.0530382
-0.0531103
-0.0531662
-0.0531924
-0.0531708
-0.053082
-0.0529067
-0.0526565
-0.0523488
-0.0520181
-0.0516871
-0.0513421
-0.0509599
-0.0505441
-0.0501386
-0.0497265
-0.0480356
-0.0477673
-0.0471907
-0.0463976
-0.045483
-0.0441863
-0.0416428
-0.0385402
0
0
-0.00102597
-0.00186049
-0.00311455
-0.00497242
-0.00716909
-0.00954869
-0.0118804
-0.0141243
-0.0164288
-0.0189979
-0.0218465
-0.0247639
-0.028737
-0.0322388
-0.0347238
-0.0373207
-0.0403842
-0.0431764
-0.0454586
-0.0473239
-0.0489644
-0.0499947
-0.0508493
-0.0515987
-0.0520993
-0.05315
-0.0540246
-0.0547856
-0.0553639
-0.0555184
-0.0527664
-0.0534798
-0.0541854
-0.0545827
-0.0547944
-0.0549193
-0.0549816
-0.0550599
-0.0550694
-0.0550245
-0.0549256
-0.0547652
-0.0545212
-0.054233
-0.0539183
-0.0535836
-0.0532171
-0.0527901
-0.0522673
-0.0516194
-0.0507151
-0.0496709
-0.0512976
-0.0505721
-0.0496149
-0.0486595
-0.047617
-0.0461735
-0.0437891
-0.0402946
0
0
-0.00147795
-0.00313659
-0.00513059
-0.00991389
-0.0104762
-0.0133147
-0.0160343
-0.0185923
-0.0211219
-0.0238284
-0.0267681
-0.0299112
-0.0332332
-0.0362875
-0.0375368
-0.0402681
-0.0429533
-0.0453317
-0.0473921
-0.049051
-0.0505996
-0.051704
-0.0526074
-0.0534251
-0.054241
-0.0552501
-0.0563504
-0.0574218
-0.0582746
-0.0585975
0
-0.0556725
-0.056352
-0.0566246
-0.0567885
-0.0569163
-0.057021
-0.0570678
-0.0570634
-0.0569711
-0.0568193
-0.0566279
-0.0562819
-0.0559372
-0.0555954
-0.0552427
-0.0548512
-0.0543736
-0.0537794
-0.0531914
-0.0525415
-0.0521006
-0.052624
-0.0523396
-0.0516282
-0.0507396
-0.0496632
-0.0481396
-0.0456745
-0.0420335
0
0
-0.00186294
-0.00422225
-0.00692655
-0.0100486
-0.0133789
-0.0167078
-0.0198559
-0.022782
-0.0256115
-0.028552
-0.03159
-0.0347054
-0.0378075
-0.0409491
0
-0.0435991
-0.04598
-0.0479891
-0.0498876
-0.0513881
-0.0526223
-0.0536177
-0.0544851
-0.0553264
-0.0562525
-0.0574002
-0.0588449
-0.0603568
-0.0613884
-0.0602704
-0.0576317
-0.0577783
-0.0581628
-0.0584703
-0.058708
-0.0589078
-0.0590783
-0.0591985
-0.0591794
-0.059018
-0.0588081
-0.0587504
-0.0581263
-0.057719
-0.0573566
-0.0569998
-0.0566129
-0.0561195
-0.0554467
-0.0550967
-0.0547287
-0.0544281
-0.054321
-0.0540202
-0.0534621
-0.0526804
-0.0516146
-0.0500582
-0.0474986
-0.0437214
0
0
-0.00220042
-0.00516338
-0.00846687
-0.0120114
-0.0159839
-0.0198181
-0.0234162
-0.0267449
-0.0299016
-0.0340651
-0.0362396
-0.0392713
-0.0420313
-0.0443013
-0.0451356
-0.0471283
-0.0489823
-0.0507009
-0.0528109
-0.0540606
-0.0549535
-0.0557211
-0.0564587
-0.057232
-0.058149
-0.0594104
-0.0613405
-0.0637806
-0.0669575
-0.063197
-0.0607646
-0.0601104
-0.060142
-0.060366
-0.0606363
-0.0609285
-0.0612017
-0.0614875
-0.0614594
-0.0611473
-0.0606581
-0.0597922
-0.0597961
-0.059512
-0.0591726
-0.0588389
-0.0585009
-0.0580385
-0.0570981
-0.0571879
-0.0569939
-0.0566417
-0.0562491
-0.0558736
-0.0553561
-0.0546278
-0.0534882
-0.0519582
-0.0492858
-0.0453457
0
0
-0.00250597
-0.00600883
-0.00991389
-0.0142674
-0.0184853
-0.0227433
-0.0267842
-0.0305347
-0.0340651
-0.0374947
-0.0407466
-0.043727
-0.046267
-0.0482346
-0.0495858
-0.0509574
-0.05223
-0.0534598
-0.056522
-0.0570205
-0.0574041
-0.0579068
-0.0584712
-0.059091
-0.0598257
-0.0608962
-0.0629651
-0.0457552
-0.082295
-0.0657101
-0.0623212
-0.0617681
-0.0618808
-0.0621568
-0.062518
-0.0630005
-0.0636623
-0.0640997
-0.06406
-0.0634926
-0.0628032
-0.0621573
-0.0617588
-0.0613889
-0.0610309
-0.0607209
-0.0604636
-0.0601721
-0.0454208
-0.0595487
-0.0593328
-0.0588472
-0.0581605
-0.0578915
-0.0573966
-0.0567763
-0.0559101
-0.0539892
-0.0510657
-0.0468871
0
0
-0.00278939
-0.00674603
-0.0111575
-0.0159134
-0.0207426
-0.0254916
-0.0299936
-0.0341761
-0.0380769
-0.0417486
-0.0451303
-0.0481076
-0.0505418
-0.0523811
-0.0537213
-0.0547876
-0.0555879
-0.0559336
-0.115046
-0.0597229
-0.0597708
-0.0601273
-0.0605469
-0.0609371
-0.061253
-0.0613418
-0.060511
-0.055355
-0.0312161
-0.0536803
-0.0599956
-0.0621302
-0.0630723
-0.0636701
-0.0642273
-0.0649593
-0.0660064
-0.0671672
-0.067352
-0.0661573
-0.0650515
-0.0642759
-0.0637331
-0.0632902
-0.0628868
-0.062573
-0.0622912
-0.0619742
-0.0614954
-0.0618822
-0.0616371
-0.0612193
-0.0611012
-0.0601967
-0.0595069
-0.0589948
-0.0579416
-0.0560651
-0.052862
-0.0483004
0
0
-0.00308894
-0.00737108
-0.0123081
-0.01757
-0.0229108
-0.0281133
-0.0330709
-0.0376956
-0.041975
-0.0459093
-0.0494043
-0.0524105
-0.0548146
-0.0565877
-0.0578278
-0.0587288
-0.0594604
-0.0602786
-0.0623835
-0.0625
-0.0625523
-0.0626945
-0.0628604
-0.0629666
-0.0628887
-0.0623692
-0.0608474
-0.0575706
-0.0529324
-0.0577674
-0.0612458
-0.0631998
-0.0643251
-0.0650942
-0.0657621
-0.0666974
-0.0683176
-0.0709552
-0.0728211
-0.0692767
-0.0671956
-0.066172
-0.0655758
-0.0651255
-0.0646826
-0.0644102
-0.0641447
-0.0639224
-0.0639677
-0.0646729
-0.0640451
-0.0634209
-0.0630008
-0.0624041
-0.0612295
-0.0614864
-0.0604167
-0.0585385
-0.054911
-0.0494906
0
0
-0.00347949
-0.000262668
-0.0134679
-0.019242
-0.0250624
-0.0305742
-0.0360224
-0.0411235
-0.0458035
-0.0500108
-0.0535375
-0.0566008
-0.0590545
-0.0608295
-0.0619683
-0.0627134
-0.0633148
-0.063991
-0.064824
-0.0651445
-0.065259
-0.0653069
-0.0653095
-0.065223
-0.0649511
-0.0643233
-0.0631121
-0.0618962
-0.061728
-0.0628955
-0.0641774
-0.0652098
-0.0660034
-0.066644
-0.0671169
-0.067881
-0.0695431
-0.0741534
-0.0876756
-0.0717879
-0.0683305
-0.06745
-0.0670834
-0.0668001
-0.0646826
-0.0662415
-0.066004
-0.0658014
-0.066082
-0.0680376
-0.0663956
-0.0655674
-0.0653025
-0.0654099
-0.0666965
-0.0650144
-0.0635912
-0.0620075
-0.0581119
-0.0502738
0
0
-0.00358138
-0.00872838
-0.0145704
-0.0209203
-0.0272703
-0.0331997
-0.0390113
-0.0445485
-0.0496454
-0.0541489
-0.057414
-0.0606288
-0.063265
-0.0651502
-0.0661605
-0.0666969
-0.0670914
-0.0675705
-0.0679306
-0.0680712
-0.0680766
-0.0680105
-0.0678902
-0.067698
-0.0673928
-0.0669292
-0.0663106
-0.0653892
-0.0671806
-0.0669972
-0.0671225
-0.0675031
-0.0679245
-0.0683074
-0.0682877
-0.068177
-0.0671089
-0.0618011
-0.0365511
-0.0596485
-0.0656629
-0.0675337
-0.068102
-0.068218
-0.0681284
-0.0680489
-0.0678836
-0.0676377
-0.0676814
-0.113359
-0.0682326
-0.0676443
-0.0676243
-0.0677562
-0.0678972
-0.0674156
-0.0677022
-0.0670798
-0.0660105
-0.0644155
0
0
-0.0037727
-0.00941582
-0.0156546
-0.0227672
-0.0296317
-0.0350669
-0.0416736
-0.0479048
-0.0535476
-0.0585332
-0.0606923
-0.0645169
-0.0675235
-0.0696622
-0.0704137
-0.0706575
-0.0708111
-0.0712955
-0.0713561
-0.0712319
-0.0710465
-0.0708357
-0.0705996
-0.0703367
-0.0700461
-0.0697294
-0.0692594
-0.0681757
-0.120356
-0.0699909
-0.069698
-0.0698118
-0.0699668
-0.06991
-0.0699113
-0.0691747
-0.0673764
-0.0636709
-0.0584355
-0.0629405
-0.0666341
-0.0684279
-0.0692799
-0.0696921
-0.0698736
-0.0699491
-0.0699679
-0.0700197
-0.0704243
-0.0718181
-0.0707341
-0.0702222
-0.0701404
-0.0702035
-0.0702475
-0.070336
-0.070638
-0.0703886
-0.0689272
-0.0651847
0
0
-0.00399804
-0.0100504
-0.0165474
-0.0368466
-0.0322546
0
-0.0445566
-0.051371
-0.0575412
-0.0634212
-0.00699004
-0.0687434
-0.0718647
-0.0744425
-0.0746811
-0.0745987
-0.0744469
-0.0754207
-0.074975
-0.0744996
-0.0741107
-0.0737543
-0.0734006
-0.073063
-0.0727787
-0.0727075
-0.0732095
-0.0720779
-0.0732669
-0.0727589
-0.0724639
-0.0724158
-0.0724371
-0.0722818
-0.0718743
-0.0710119
-0.069614
-0.0678519
-0.0667972
-0.0677526
-0.06917
-0.0702231
-0.0709052
-0.0714188
-0.0717474
-0.0719438
-0.0721051
-0.0722887
-0.0725736
-0.0729175
-0.0727049
-0.0725784
-0.0726222
-0.072727
-0.0727609
-0.0729455
-0.0730897
-0.0726447
-0.0707121
-0.0663852
0
0
-0.00424443
-0.0107427
-0.0178402
-0.0257819
-0.033465
-0.0400181
-0.0475316
-0.0545958
-0.0609527
-0.0663555
-0.0692798
-0.0729537
-0.0753717
-0.0789278
-0.0792409
-0.0786856
-0.0779215
-0.110735
-0.078419
-0.0777134
-0.0772065
-0.0767401
-0.0762461
-0.0757916
-0.0753517
-0.0747288
-0.0728006
-0.0742738
-0.0749054
-0.0749554
-0.0749146
-0.0749887
-0.0751649
-0.0750793
-0.0743741
-0.0734762
-0.0724608
-0.0715871
-0.0712649
-0.0715088
-0.0720167
-0.0725034
-0.0727758
-0.0734178
-0.0738075
-0.0740213
-0.0742497
-0.0744626
-0.0746293
-0.0746669
-0.0746081
-0.0747544
-0.0749955
-0.0752224
-0.075145
-0.0753062
-0.075246
-0.0744914
-0.0723283
-0.0678111
0
0
-0.00448771
-0.0114057
-0.0189457
-0.0270148
-0.0351291
-0.0429221
-0.0506372
-0.0579465
-0.0645588
-0.0702855
-0.0743214
-0.0774169
-0.0788602
-0.156306
-0.0831028
-0.0824168
-0.0820188
-0.0824369
-0.0817664
-0.0810773
-0.0804497
-0.0798282
-0.0791043
-0.0785357
-0.0780494
-0.0775141
-0.0769194
-0.0770242
-0.0771493
-0.0771681
-0.0772121
-0.0774754
-0.0781397
-0.0787198
-0.0772354
-0.076206
-0.0752814
-0.0747069
-0.0744969
-0.074546
-0.0747502
-0.0750767
-0.0757834
-0.0757707
-0.0760459
-0.0761671
-0.07643
-0.0766528
-0.0767648
-0.0766164
-0.0764277
-0.0768248
-0.0772466
-0.0776477
-0.0774366
-0.0776114
-0.0772682
-0.076084
-0.0739394
-0.0693841
0
0
-0.00472569
-0.0120496
-0.020008
-0.0284483
-0.0370563
-0.0455109
-0.0535744
-0.0613346
-0.068442
-0.0751922
-0.0789913
-0.0822824
-0.0844998
-0.0872528
-0.0870552
-0.0864287
-0.0858149
-0.085556
-0.0850031
-0.0843461
-0.0836787
-0.082958
-0.0818261
-0.0812438
-0.0808305
-0.0804156
-0.0800298
-0.0797274
-0.0795502
-0.079394
-0.0793253
-0.0795983
-0.0809379
-0.0855484
-0.0798952
-0.079002
-0.0777287
-0.0773259
-0.0771842
-0.0771849
-0.0772581
-0.0773909
-0.0776837
-0.0779027
-0.078112
-0.0785089
-0.0787109
-0.0789171
-0.0790331
-0.0786131
-0.0778998
-0.07893
-0.0793463
-0.0794668
-0.0802988
-0.0801444
-0.0792828
-0.0772563
-0.0755745
-0.0710804
0
0
-0.0049635
-0.012697
-0.0210947
-0.03
-0.0391306
-0.0480924
-0.0561161
-0.0646688
-0.0717998
-0.0766512
-0.082911
-0.0867655
-0.0892155
-0.0906736
-0.0908161
-0.0902229
-0.0890722
-0.0889955
-0.0883548
-0.0876322
-0.0869407
-0.0862203
-0.0841684
-0.0839224
-0.0836895
-0.0833037
-0.0828697
-0.0822656
-0.0819136
-0.081532
-0.0810825
-0.0805392
-0.0786724
-0.0691255
-0.0768446
-0.077511
-0.0790836
-0.0794252
-0.0795311
-0.0795857
-0.0795898
-0.0795166
-0.0797375
-0.080062
-0.0803704
-0.0806798
-0.0809228
-0.0811789
-0.0814301
-0.080781
-0.0787612
-0.0814361
-0.0818698
-0.0820606
-0.0824847
-0.0824814
-0.081363
-0.0776022
-0.0773973
-0.072877
0
0
-0.00520395
-0.0133576
-0.0222202
-0.0316439
-0.0413732
-0.0511146
-0.0611756
-0.0686415
-0.0758334
-0.0820774
-0.0875064
-0.0913756
-0.0937307
-0.0948236
-0.094944
-0.0945995
-0.0948252
-0.0930215
-0.0918695
-0.0909397
-0.0902094
-0.0897499
-0.050011
-0.086925
-0.0866863
-0.0861557
-0.0855972
-0.0797274
-0.0842898
-0.083706
-0.0827379
-0.0822298
-0.0807634
-0.0785655
-0.0797552
-0.0804739
-0.0811673
-0.0815524
-0.0817735
-0.081903
-0.0818537
-0.0814031
-0.0817652
-0.0822371
-0.0826061
-0.0828832
-0.0831001
-0.0832906
-0.0834695
-0.0838555
-0.0297881
-0.0970815
-0.0843658
-0.0844489
-0.0847012
-0.0848496
-0.0840478
-0.0219621
-0.0798893
-0.0746941
0
0
-0.0054451
-0.0140262
-0.023372
-0.0333387
-0.0436565
-0.0539723
-0.0638525
-0.0718998
-0.0796806
-0.0865609
-0.0921156
-0.0960198
-0.0982937
-0.0992048
-0.0991879
-0.098662
-0.0978206
-0.096467
-0.0952026
-0.0940976
-0.0931278
-0.0920681
-0.0903451
-0.0898783
-0.0894446
-0.0886973
-0.0879615
-0.0871993
-0.0866906
-0.0862453
-0.0862719
-0.0848915
-0.0838172
-0.0830742
-0.0830843
-0.0833071
-0.0835906
-0.0838437
-0.0840711
-0.0842697
-0.0842123
-0.0828807
-0.0838209
-0.0844921
-0.0848679
-0.0851075
-0.0852871
-0.0854313
-0.0855174
-0.0853823
-0.0841257
-0.0859518
-0.0863807
-0.0865641
-0.0866721
-0.086528
-0.0855076
-0.0825906
-0.0812994
-0.0763776
0
0
-0.00567984
-0.014685
-0.0245299
-0.0350725
-0.0460046
-0.056951
-0.0674319
-0.0746704
-0.0834426
-0.0910064
-0.0968228
-0.100777
-0.102943
-0.103674
-0.103478
-0.102756
-0.101382
-0.0997982
-0.0983707
-0.0971374
-0.0961108
-0.095124
-0.0938025
-0.0929851
-0.0923408
-0.0911219
-0.0902797
-0.089626
-0.0890899
-0.0885957
-0.0881109
-0.0873425
-0.0866389
-0.0861674
-0.0859644
-0.0859435
-0.0860274
-0.086173
-0.0863756
-0.0866545
-0.0868534
-0.053082
-0.086242
-0.0868463
-0.0871241
-0.0873155
-0.0874748
-0.0876013
-0.0876695
-0.0876286
-0.0875089
-0.0880338
-0.0883967
-0.0886005
-0.0886599
-0.0884577
-0.0876279
-0.086153
-0.0834452
-0.0781199
0
0
-0.00589257
-0.0152967
-0.0256648
-0.0368466
-0.0484256
-0.0600932
-0.0717908
-0.0169636
-0.0878476
-0.0958335
-0.101765
-0.105634
-0.107642
-0.108135
-0.107752
-0.107047
-0.104973
-0.102954
-0.101386
-0.100075
-0.0991541
-0.0980006
-0.0967755
-0.0957471
-0.0950658
-0.0933144
-0.0926229
-0.0920705
-0.0915162
-0.0909548
-0.0903692
-0.0897494
-0.0891889
-0.0887666
-0.0885013
-0.0883778
-0.0883651
-0.0884346
-0.0885589
-0.0886779
-0.0885745
-0.0876871
-0.0883597
-0.0888723
-0.0892079
-0.0894543
-0.0896514
-0.0898055
-0.0899131
-0.0899866
-0.090092
-0.0903164
-0.0905471
-0.0907207
-0.0907993
-0.0907521
-0.090593
-0.0889195
-0.0856707
-0.0799567
0
0
-0.00605196
-0.0157795
-0.0267633
-0.0386885
-0.0508572
-0.0629055
-0.0742282
-0.0830185
-0.092556
-0.100574
-0.106564
-0.110436
-0.112302
-0.112537
-0.111656
-0.111667
-0.108182
-0.10585
-0.104342
-0.102969
-0.102448
-0.100971
-0.0994781
-0.0980073
-0.0962052
-0.0962775
-0.0955097
-0.094711
-0.0939908
-0.093323
-0.0926862
-0.0920839
-0.0915477
-0.0911129
-0.0908085
-0.090638
-0.0905827
-0.0906153
-0.0907014
-0.0907778
-0.0907382
-0.0905487
-0.0907216
-0.0910129
-0.0913181
-0.0915991
-0.0918433
-0.0920383
-0.0921828
-0.092304
-0.092437
-0.0925934
-0.0927654
-0.0929199
-0.092998
-0.0929436
-0.0925904
-0.0912196
-0.0877993
-0.0818579
0
0
-0.00611177
-0.015919
-0.0280755
-0.0406124
-0.0534131
-0.0659846
-0.0777644
-0.0882093
-0.0977024
-0.105651
-0.111606
-0.11537
-0.117078
-0.117291
-0.117598
-0.116616
-0.110735
-0.109142
-0.107649
-0.105978
-0.125774
-0.103813
-0.102167
-0.100621
-0.0989568
-0.0982744
-0.0976141
-0.0969186
-0.0962221
-0.0955469
-0.0949011
-0.0942952
-0.0937427
-0.0932651
-0.0929263
-0.0927399
-0.0926811
-0.0927198
-0.0928297
-0.0929604
-0.0930189
-0.09294
-0.0929768
-0.0931793
-0.093477
-0.0937862
-0.0940748
-0.0943047
-0.0944598
-0.0945872
-0.0947131
-0.0948477
-0.0950062
-0.095167
-0.0952179
-0.095096
-0.0947078
-0.0934124
-0.0899021
-0.083795
0
0
-0.00618692
-0.0147875
-0.0295237
-0.0430377
-0.0564321
-0.0695504
-0.0819315
-0.0931337
-0.102894
-0.110914
-0.116823
-0.120409
-0.121782
-0.121346
-0.119299