# vtk DataFile Version 2.0
FlowField
ASCII
DATASET STRUCTURED_GRID
DIMENSIONS 62 47 32 
POINTS 93248 double
0 0 0
0.01 0 0
0.02 0 0
0.03 0 0
0.04 0 0
0.05 0 0
0.06 0 0
0.07 0 0
0.08 0 0
0.09 0 0
0.1 0 0
0.11 0 0
0.12 0 0
0.13 0 0
0.14 0 0
0.15 0 0
0.16 0 0
0.17 0 0
0.18 0 0
0.19 0 0
0.2 0 0
0.21 0 0
0.22 0 0
0.23 0 0
0.24 0 0
0.25 0 0
0.26 0 0
0.27 0 0
0.28 0 0
0.29 0 0
0.3 0 0
0.31 0 0
0.32 0 0
0.33 0 0
0.34 0 0
0.35 0 0
0.36 0 0
0.37 0 0
0.38 0 0
0.39 0 0
0.4 0 0
0.41 0 0
0.42 0 0
0.43 0 0
0.44 0 0
0.45 0 0
0.46 0 0
0.47 0 0
0.48 0 0
0.49 0 0
0.5 0 0
0.51 0 0
0.52 0 0
0.53 0 0
0.54 0 0
0.55 0 0
0.56 0 0
0.57 0 0
0.58 0 0
0.59 0 0
0.6 0 0
0.61 0 0
0 0.01 0
0.01 0.01 0
0.02 0.01 0
0.03 0.01 0
0.04 0.01 0
0.05 0.01 0
0.06 0.01 0
0.07 0.01 0
0.08 0.01 0
0.09 0.01 0
0.1 0.01 0
0.11 0.01 0
0.12 0.01 0
0.13 0.01 0
0.14 0.01 0
0.15 0.01 0
0.16 0.01 0
0.17 0.01 0
0.18 0.01 0
0.19 0.01 0
0.2 0.01 0
0.21 0.01 0
0.22 0.01 0
0.23 0.01 0
0.24 0.01 0
0.25 0.01 0
0.26 0.01 0
0.27 0.01 0
0.28 0.01 0
0.29 0.01 0
0.3 0.01 0
0.31 0.01 0
0.32 0.01 0
0.33 0.01 0
0.34 0.01 0
0.35 0.01 0
0.36 0.01 0
0.37 0.01 0
0.38 0.01 0
0.39 0.01 0
0.4 0.01 0
0.41 0.01 0
0.42 0.01 0
0.43 0.01 0
0.44 0.01 0
0.45 0.01 0
0.46 0.01 0
0.47 0.01 0
0.48 0.01 0
0.49 0.01 0
0.5 0.01 0
0.51 0.01 0
0.52 0.01 0
0.53 0.01 0
0.54 0.01 0
0.55 0.01 0
0.56 0.01 0
0.57 0.01 0
0.58 0.01 0
0.59 0.01 0
0.6 0.01 0
0.61 0.01 0
0 0.02 0
0.01 0.02 0
0.02 0.02 0
0.03 0.02 0
0.04 0.02 0
0.05 0.02 0
0.06 0.02 0
0.07 0.02 0
0.08 0.02 0
0.09 0.02 0
0.1 0.02 0
0.11 0.02 0
0.12 0.02 0
0.13 0.02 0
0.14 0.02 0
0.15 0.02 0
0.16 0.02 0
0.17 0.02 0
0.18 0.02 0
0.19 0.02 0
0.2 0.02 0
0.21 0.02 0
0.22 0.02 0
0.23 0.02 0
0.24 0.02 0
0.25 0.02 0
0.26 0.02 0
0.27 0.02 0
0.28 0.02 0
0.29 0.02 0
0.3 0.02 0
0.31 0.02 0
0.32 0.02 0
0.33 0.02 0
0.34 0.02 0
0.35 0.02 0
0.36 0.02 0
0.37 0.02 0
0.38 0.02 0
0.39 0.02 0
0.4 0.02 0
0.41 0.02 0
0.42 0.02 0
0.43 0.02 0
0.44 0.02 0
0.45 0.02 0
0.46 0.02 0
0.47 0.02 0
0.48 0.02 0
0.49 0.02 0
0.5 0.02 0
0.51 0.02 0
0.52 0.02 0
0.53 0.02 0
0.54 0.02 0
0.55 0.02 0
0.56 0.02 0
0.57 0.02 0
0.58 0.02 0
0.59 0.02 0
0.6 0.02 0
0.61 0.02 0
0 0.03 0
0.01 0.03 0
0.02 0.03 0
0.03 0.03 0
0.04 0.03 0
0.05 0.03 0
0.06 0.03 0
0.07 0.03 0
0.08 0.03 0
0.09 0.03 0
0.1 0.03 0
0.11 0.03 0
0.12 0.03 0
0.13 0.03 0
0.14 0.03 0
0.15 0.03 0
0.16 0.03 0
0.17 0.03 0
0.18 0.03 0
0.19 0.03 0
0.2 0.03 0
0.21 0.03 0
0.22 0.03 0
0.23 0.03 0
0.24 0.03 0
0.25 0.03 0
0.26 0.03 0
0.27 0.03 0
0.28 0.03 0
0.29 0.03 0
0.3 0.03 0
0.31 0.03 0
0.32 0.03 0
0.33 0.03 0
0.34 0.03 0
0.35 0.03 0
0.36 0.03 0
0.37 0.03 0
0.38 0.03 0
0.39 0.03 0
0.4 0.03 0
0.41 0.03 0
0.42 0.03 0
0.43 0.03 0
0.44 0.03 0
0.45 0.03 0
0.46 0.03 0
0.47 0.03 0
0.48 0.03 0
0.49 0.03 0
0.5 0.03 0
0.51 0.03 0
0.52 0.03 0
0.53 0.03 0
0.54 0.03 0
0.55 0.03 0
0.56 0.03 0
0.57 0.03 0
0.58 0.03 0
0.59 0.03 0
0.6 0.03 0
0.61 0.03 0
0 0.04 0
0.01 0.04 0
0.02 0.04 0
0.03 0.04 0
0.04 0.04 0
0.05 0.04 0
0.06 0.04 0
0.07 0.04 0
0.08 0.04 0
0.09 0.04 0
0.1 0.04 0
0.11 0.04 0
0.12 0.04 0
0.13 0.04 0
0.14 0.04 0
0.15 0.04 0
0.16 0.04 0
0.17 0.04 0
0.18 0.04 0
0.19 0.04 0
0.2 0.04 0
0.21 0.04 0
0.22 0.04 0
0.23 0.04 0
0.24 0.04 0
0.25 0.04 0
0.26 0.04 0
0.27 0.04 0
0.28 0.04 0
0.29 0.04 0
0.3 0.04 0
0.31 0.04 0
0.32 0.04 0
0.33 0.04 0
0.34 0.04 0
0.35 0.04 0
0.36 0.04 0
0.37 0.04 0
0.38 0.04 0
0.39 0.04 0
0.4 0.04 0
0.41 0.04 0
0.42 0.04 0
0.43 0.04 0
0.44 0.04 0
0.45 0.04 0
0.46 0.04 0
0.47 0.04 0
0.48 0.04 0
0.49 0.04 0
0.5 0.04 0
0.51 0.04 0
0.52 0.04 0
0.53 0.04 0
0.54 0.04 0
0.55 0.04 0
0.56 0.04 0
0.57 0.04 0
0.58 0.04 0
0.59 0.04 0
0.6 0.04 0
0.61 0.04 0
0 0.05 0
0.01 0.05 0
0.02 0.05 0
0.03 0.05 0
0.04 0.05 0
0.05 0.05 0
0.06 0.05 0
0.07 0.05 0
0.08 0.05 0
0.09 0.05 0
0.1 0.05 0
0.11 0.05 0
0.12 0.05 0
0.13 0.05 0
0.14 0.05 0
0.15 0.05 0
0.16 0.05 0
0.17 0.05 0
0.18 0.05 0
0.19 0.05 0
0.2 0.05 0
0.21 0.05 0
0.22 0.05 0
0.23 0.05 0
0.24 0.05 0
0.25 0.05 0
0.26 0.05 0
0.27 0.05 0
0.28 0.05 0
0.29 0.05 0
0.3 0.05 0
0.31 0.05 0
0.32 0.05 0
0.33 0.05 0
0.34 0.05 0
0.35 0.05 0
0.36 0.05 0
0.37 0.05 0
0.38 0.05 0
0.39 0.05 0
0.4 0.05 0
0.41 0.05 0
0.42 0.05 0
0.43 0.05 0
0.44 0.05 0
0.45 0.05 0
0.46 0.05 0
0.47 0.05 0
0.48 0.05 0
0.49 0.05 0
0.5 0.05 0
0.51 0.05 0
0.52 0.05 0
0.53 0.05 0
0.54 0.05 0
0.55 0.05 0
0.56 0.05 0
0.57 0.05 0
0.58 0.05 0
0.59 0.05 0
0.6 0.05 0
0.61 0.05 0
0 0.06 0
0.01 0.06 0
0.02 0.06 0
0.03 0.06 0
0.04 0.06 0
0.05 0.06 0
0.06 0.06 0
0.07 0.06 0
0.08 0.06 0
0.09 0.06 0
0.1 0.06 0
0.11 0.06 0
0.12 0.06 0
0.13 0.06 0
0.14 0.06 0
0.15 0.06 0
0.16 0.06 0
0.17 0.06 0
0.18 0.06 0
0.19 0.06 0
0.2 0.06 0
0.21 0.06 0
0.22 0.06 0
0.23 0.06 0
0.24 0.06 0
0.25 0.06 0
0.26 0.06 0
0.27 0.06 0
0.28 0.06 0
0.29 0.06 0
0.3 0.06 0
0.31 0.06 0
0.32 0.06 0
0.33 0.06 0
0.34 0.06 0
0.35 0.06 0
0.36 0.06 0
0.37 0.06 0
0.38 0.06 0
0.39 0.06 0
0.4 0.06 0
0.41 0.06 0
0.42 0.06 0
0.43 0.06 0
0.44 0.06 0
0.45 0.06 0
0.46 0.06 0
0.47 0.06 0
0.48 0.06 0
0.49 0.06 0
0.5 0.06 0
0.51 0.06 0
0.52 0.06 0
0.53 0.06 0
0.54 0.06 0
0.55 0.06 0
0.56 0.06 0
0.57 0.06 0
0.58 0.06 0
0.59 0.06 0
0.6 0.06 0
0.61 0.06 0
0 0.07 0
0.01 0.07 0
0.02 0.07 0
0.03 0.07 0
0.04 0.07 0
0.05 0.07 0
0.06 0.07 0
0.07 0.07 0
0.08 0.07 0
0.09 0.07 0
0.1 0.07 0
0.11 0.07 0
0.12 0.07 0
0.13 0.07 0
0.14 0.07 0
0.15 0.07 0
0.16 0.07 0
0.17 0.07 0
0.18 0.07 0
0.19 0.07 0
0.2 0.07 0
0.21 0.07 0
0.22 0.07 0
0.23 0.07 0
0.24 0.07 0
0.25 0.07 0
0.26 0.07 0
0.27 0.07 0
0.28 0.07 0
0.29 0.07 0
0.3 0.07 0
0.31 0.07 0
0.32 0.07 0
0.33 0.07 0
0.34 0.07 0
0.35 0.07 0
0.36 0.07 0
0.37 0.07 0
0.38 0.07 0
0.39 0.07 0
0.4 0.07 0
0.41 0.07 0
0.42 0.07 0
0.43 0.07 0
0.44 0.07 0
0.45 0.07 0
0.46 0.07 0
0.47 0.07 0
0.48 0.07 0
0.49 0.07 0
0.5 0.07 0
0.51 0.07 0
0.52 0.07 0
0.53 0.07 0
0.54 0.07 0
0.55 0.07 0
0.56 0.07 0
0.57 0.07 0
0.58 0.07 0
0.59 0.07 0
0.6 0.07 0
0.61 0.07 0
0 0.08 0
0.01 0.08 0
0.02 0.08 0
0.03 0.08 0
0.04 0.08 0
0.05 0.08 0
0.06 0.08 0
0.07 0.08 0
0.08 0.08 0
0.09 0.08 0
0.1 0.08 0
0.11 0.08 0
0.12 0.08 0
0.13 0.08 0
0.14 0.08 0
0.15 0.08 0
0.16 0.08 0
0.17 0.08 0
0.18 0.08 0
0.19 0.08 0
0.2 0.08 0
0.21 0.08 0
0.22 0.08 0
0.23 0.08 0
0.24 0.08 0
0.25 0.08 0
0.26 0.08 0
0.27 0.08 0
0.28 0.08 0
0.29 0.08 0
0.3 0.08 0
0.31 0.08 0
0.32 0.08 0
0.33 0.08 0
0.34 0.08 0
0.35 0.08 0
0.36 0.08 0
0.37 0.08 0
0.38 0.08 0
0.39 0.08 0
0.4 0.08 0
0.41 0.08 0
0.42 0.08 0
0.43 0.08 0
0.44 0.08 0
0.45 0.08 0
0.46 0.08 0
0.47 0.08 0
0.48 0.08 0
0.49 0.08 0
0.5 0.08 0
0.51 0.08 0
0.52 0.08 0
0.53 0.08 0
0.54 0.08 0
0.55 0.08 0
0.56 0.08 0
0.57 0.08 0
0.58 0.08 0
0.59 0.08 0
0.6 0.08 0
0.61 0.08 0
0 0.09 0
0.01 0.09 0
0.02 0.09 0
0.03 0.09 0
0.04 0.09 0
0.05 0.09 0
0.06 0.09 0
0.07 0.09 0
0.08 0.09 0
0.09 0.09 0
0.1 0.09 0
0.11 0.09 0
0.12 0.09 0
0.13 0.09 0
0.14 0.09 0
0.15 0.09 0
0.16 0.09 0
0.17 0.09 0
0.18 0.09 0
0.19 0.09 0
0.2 0.09 0
0.21 0.09 0
0.22 0.09 0
0.23 0.09 0
0.24 0.09 0
0.25 0.09 0
0.26 0.09 0
0.27 0.09 0
0.28 0.09 0
0.29 0.09 0
0.3 0.09 0
0.31 0.09 0
0.32 0.09 0
0.33 0.09 0
0.34 0.09 0
0.35 0.09 0
0.36 0.09 0
0.37 0.09 0
0.38 0.09 0
0.39 0.09 0
0.4 0.09 0
0.41 0.09 0
0.42 0.09 0
0.43 0.09 0
0.44 0.09 0
0.45 0.09 0
0.46 0.09 0
0.47 0.09 0
0.48 0.09 0
0.49 0.09 0
0.5 0.09 0
0.51 0.09 0
0.52 0.09 0
0.53 0.09 0
0.54 0.09 0
0.55 0.09 0
0.56 0.09 0
0.57 0.09 0
0.58 0.09 0
0.59 0.09 0
0.6 0.09 0
0.61 0.09 0
0 0.1 0
0.01 0.1 0
0.02 0.1 0
0.03 0.1 0
0.04 0.1 0
0.05 0.1 0
0.06 0.1 0
0.07 0.1 0
0.08 0.1 0
0.09 0.1 0
0.1 0.1 0
0.11 0.1 0
0.12 0.1 0
0.13 0.1 0
0.14 0.1 0
0.15 0.1 0
0.16 0.1 0
0.17 0.1 0
0.18 0.1 0
0.19 0.1 0
0.2 0.1 0
0.21 0.1 0
0.22 0.1 0
0.23 0.1 0
0.24 0.1 0
0.25 0.1 0
0.26 0.1 0
0.27 0.1 0
0.28 0.1 0
0.29 0.1 0
0.3 0.1 0
0.31 0.1 0
0.32 0.1 0
0.33 0.1 0
0.34 0.1 0
0.35 0.1 0
0.36 0.1 0
0.37 0.1 0
0.38 0.1 0
0.39 0.1 0
0.4 0.1 0
0.41 0.1 0
0.42 0.1 0
0.43 0.1 0
0.44 0.1 0
0.45 0.1 0
0.46 0.1 0
0.47 0.1 0
0.48 0.1 0
0.49 0.1 0
0.5 0.1 0
0.51 0.1 0
0.52 0.1 0
0.53 0.1 0
0.54 0.1 0
0.55 0.1 0
0.56 0.1 0
0.57 0.1 0
0.58 0.1 0
0.59 0.1 0
0.6 0.1 0
0.61 0.1 0
0 0.11 0
0.01 0.11 0
0.02 0.11 0
0.03 0.11 0
0.04 0.11 0
0.05 0.11 0
0.06 0.11 0
0.07 0.11 0
0.08 0.11 0
0.09 0.11 0
0.1 0.11 0
0.11 0.11 0
0.12 0.11 0
0.13 0.11 0
0.14 0.11 0
0.15 0.11 0
0.16 0.11 0
0.17 0.11 0
0.18 0.11 0
0.19 0.11 0
0.2 0.11 0
0.21 0.11 0
0.22 0.11 0
0.23 0.11 0
0.24 0.11 0
0.25 0.11 0
0.26 0.11 0
0.27 0.11 0
0.28 0.11 0
0.29 0.11 0
0.3 0.11 0
0.31 0.11 0
0.32 0.11 0
0.33 0.11 0
0.34 0.11 0
0.35 0.11 0
0.36 0.11 0
0.37 0.11 0
0.38 0.11 0
0.39 0.11 0
0.4 0.11 0
0.41 0.11 0
0.42 0.11 0
0.43 0.11 0
0.44 0.11 0
0.45 0.11 0
0.46 0.11 0
0.47 0.11 0
0.48 0.11 0
0.49 0.11 0
0.5 0.11 0
0.51 0.11 0
0.52 0.11 0
0.53 0.11 0
0.54 0.11 0
0.55 0.11 0
0.56 0.11 0
0.57 0.11 0
0.58 0.11 0
0.59 0.11 0
0.6 0.11 0
0.61 0.11 0
0 0.12 0
0.01 0.12 0
0.02 0.12 0
0.03 0.12 0
0.04 0.12 0
0.05 0.12 0
0.06 0.12 0
0.07 0.12 0
0.08 0.12 0
0.09 0.12 0
0.1 0.12 0
0.11 0.12 0
0.12 0.12 0
0.13 0.12 0
0.14 0.12 0
0.15 0.12 0
0.16 0.12 0
0.17 0.12 0
0.18 0.12 0
0.19 0.12 0
0.2 0.12 0
0.21 0.12 0
0.22 0.12 0
0.23 0.12 0
0.24 0.12 0
0.25 0.12 0
0.26 0.12 0
0.27 0.12 0
0.28 0.12 0
0.29 0.12 0
0.3 0.12 0
0.31 0.12 0
0.32 0.12 0
0.33 0.12 0
0.34 0.12 0
0.35 0.12 0
0.36 0.12 0
0.37 0.12 0
0.38 0.12 0
0.39 0.12 0
0.4 0.12 0
0.41 0.12 0
0.42 0.12 0
0.43 0.12 0
0.44 0.12 0
0.45 0.12 0
0.46 0.12 0
0.47 0.12 0
0.48 0.12 0
0.49 0.12 0
0.5 0.12 0
0.51 0.12 0
0.52 0.12 0
0.53 0.12 0
0.54 0.12 0
0.55 0.12 0
0.56 0.12 0
0.57 0.12 0
0.58 0.12 0
0.59 0.12 0
0.6 0.12 0
0.61 0.12 0
0 0.13 0
0.01 0.13 0
0.02 0.13 0
0.03 0.13 0
0.04 0.13 0
0.05 0.13 0
0.06 0.13 0
0.07 0.13 0
0.08 0.13 0
0.09 0.13 0
0.1 0.13 0
0.11 0.13 0
0.12 0.13 0
0.13 0.13 0
0.14 0.13 0
0.15 0.13 0
0.16 0.13 0
0.17 0.13 0
0.18 0.13 0
0.19 0.13 0
0.2 0.13 0
0.21 0.13 0
0.22 0.13 0
0.23 0.13 0
0.24 0.13 0
0.25 0.13 0
0.26 0.13 0
0.27 0.13 0
0.28 0.13 0
0.29 0.13 0
0.3 0.13 0
0.31 0.13 0
0.32 0.13 0
0.33 0.13 0
0.34 0.13 0
0.35 0.13 0
0.36 0.13 0
0.37 0.13 0
0.38 0.13 0
0.39 0.13 0
0.4 0.13 0
0.41 0.13 0
0.42 0.13 0
0.43 0.13 0
0.44 0.13 0
0.45 0.13 0
0.46 0.13 0
0.47 0.13 0
0.48 0.13 0
[...]
POINT_DATA 93248

SCALARS u double
LOOKUP_TABLE default
0
0
0
0
0
0
0
0
0
0
0
0
0
0
0
0
0
0
0
0
0
0
0
0
0.299728
0
0
0
0
0
0
0
0.0695308
0.225612
0
0
0
0
0
0
0
0
0
0
0
0
0
0.094519
0
0
0.0791779
0
0
0
0
0
0
0
0
0
0
0
0
0.420722
0.343529
0.27179
0.215004
0.175485
0.151602
0.139106
0.132157
0.127414
0.123545
0.119948
0.116982
0.113963
0.110998
0.108042
0.105231
0.102358
0.0994474
0.0959326
0.0944538
0.09205
0.0892828
0.0864876
0.0837643
0.0810964
0.0784562
0.0758252
0.0731897
0.0705365
0.0678493
0.065135
0.0626041
0.059801
0.056713
0.0536092
0.0507463
0.0483186
0.048524
0.163686
0.0383651
0.0372408
0.0359285
0.0344747
0.033312
0.0257391
0.0258405
0.0236296
0.0213487
0.018674
0.0160234
0.0463225
0.0114739
0.0100526
0.00262036
0.000730015
0.0198098
-0.00410928
-0.00788854
-0.013474
-0.013474
0
0
0.494192
0.480823
0.459931
0.434829
0.409711
0.385402
0.364254
0.347561
0.33436
0.323389
0.313412
0.305245
0.297025
0.289285
0.281691
0.274524
0.267311
0.260976
0.336765
0.248913
0.240698
0.233263
0.226277
0.219465
0.212739
0.206061
0.199405
0.192756
0.186096
0.179392
0.172564
0.166254
0.159476
0.152298
0.145066
0.136547
0.125561
-0.0548949
0.110191
0.107816
0.10381
0.0990715
0.0938465
0.0880453
0.0804028
0.0734561
0.0674854
0.0612317
0.054738
0.0483067
0.0428097
0.0359361
0.0290997
0.0206136
0.0139637
0.00677848
0.000277042
-0.00733486
-0.0151676
-0.0151676
0
0
0.488567
0.491719
0.495045
0.493313
0.487075
0.471016
0.452363
0.43454
0.418956
0.403363
0.393535
0.382063
0.372024
0.362427
0.353436
0.344723
0.33522
0.326548
0.317664
0.308852
0.300681
0.292369
0.284017
0.275663
0.267335
0.25903
0.250744
0.242471
0.234208
0.225971
0.217828
0.209078
0.201535
0.21361
0.18476
0.175802
0.167835
0.1631
0.152864
0.143301
0.134908
0.137174
0.119587
0.112042
0.129135
0.0952645
0.0863841
0.0612317
0.0699575
0.0623109
0.0546315
0.0463225
0.0377723
0.0288739
0.0204748
0.0121407
0.0030328
-0.00530564
-0.0135197
-0.0135197
0
0
0.481579
0.481681
0.488958
0.492749
0.491201
0.481694
0.467542
0.45243
0.438224
0.425353
0.413387
0.401944
0.391299
0.381221
0.371658
0.361857
0.353196
0.34392
0.335875
0.325317
0.316485
0.30775
0.299015
0.290283
0.281562
0.272857
0.264167
0.255488
0.246818
0.238158
0.229495
0.220683
0.212217
0.203449
0.19502
0.186781
0.179372
0.172986
0.163635
0.153562
0.143958
0.134918
0.126358
0.117833
0.108962
0.100071
0.0915356
0.0832145
0.0746309
0.0661844
0.057744
0.0490834
0.0402516
0.0313188
0.0225053
0.0137146
0.00473801
-0.00391762
-0.0124438
-0.0124438
0
0
0.478414
0.473577
0.475912
0.479631
0.479499
0.473059
0.462316
0.450028
0.437816
0.426164
0.414974
0.404161
0.393743
0.383506
0.374581
0.364981
0.355818
0.346634
0.337381
0.328239
0.319275
0.310413
0.301598
0.292808
0.284036
0.275281
0.266542
0.257812
0.249085
0.240349
0.23158
0.222758
0.214375
0.20572
0.197231
0.188998
0.181151
0.173457
0.164632
0.1552
0.145793
0.136641
0.127767
0.119033
0.110448
0.102155
0.0925496
0.0841488
0.0755644
0.0669808
0.0583917
0.0497113
0.0408962
0.0320185
0.0231771
0.0143783
0.00560996
-0.00301425
-0.0118931
-0.0118931
0
0
0.477065
0.469067
0.467761
0.469264
0.468689
0.463405
0.454629
0.444304
0.433676
0.423186
0.412885
0.402755
0.392841
0.38317
0.373932
0.364851
0.355579
0.346587
0.337386
0.328349
0.31943
0.310583
0.30178
0.293004
0.284249
0.275516
0.266798
0.258089
0.249381
0.240657
0.231874
0.222878
0.215016
0.206261
0.197688
0.189307
0.181082
0.172815
0.164121
0.155103
0.146002
0.13696
0.127995
0.11899
0.109825
0.102073
0.0932736
0.0845142
0.0758186
0.0671961
0.0586295
0.0500332
0.041234
0.0323695
0.0235527
0.0148117
0.00622123
-0.00178895
-0.00884681
-0.00884681
0
0
0.476405
0.466611
0.462997
0.46265
0.461289
0.468209
0.448726
0.439093
0.429393
0.419822
0.410292
0.400759
0.39129
0.381873
0.372588
0.363934
0.35467
0.345639
0.336765
0.327932
0.319138
0.310357
0.301593
0.29285
0.284126
0.275429
0.266747
0.258076
0.249411
0.240751
0.232181
0.223866
0.214427
0.205997
0.197598
0.189218
0.180825
0.172349
0.163686
0.154856
0.145949
0.137376
0.128119
0.1192
0.110334
0.101997
0.0933369
0.0845957
0.0758874
0.0672727
0.0588053
0.0504089
0.041538
0.0326164
0.0238126
0.0150709
0.0062057
-0.00265094
-0.00740822
-0.00740822
0
0
0.476038
0.465205
0.460175
0.458466
0.4561
0.450732
0.443125
0.434532
0.425705
0.416823
0.407842
0.398695
0.389604
0.380326
0.370419
0.274524
0.351771
0.344047
0.335875
0.32737
0.318752
0.310047
0.301325
0.292623
0.284036
0.275286
0.266638
0.258014
0.249397
0.240753
0.232167
0.223618
0.214725
0.206109
0.197612
0.18914
0.18064
0.172077
0.163421
0.154676
0.145873
0.137042
0.128212
0.119391
0.110625
0.102012
0.0933252
0.0845822
0.0758337
0.0671565
0.0587238
0.0507265
0.0415999
0.0326464
0.0239808
0.0154993
0.00716575
-0.00179599
-0.00932247
-0.00932247
0
0
0.475814
0.464349
0.458416
0.455761
0.452622
0.446897
0.439283
0.430985
0.422593
0.41416
0.405693
0.39677
0.388005
0.379178
0.370329
0.362134
0.353183
0.344303
0.335618
0.326934
0.318389
0.309689
0.300998
0.292321
0.283687
0.275063
0.266474
0.257929
0.249414
0.240823
0.232196
0.22355
0.214834
0.206198
0.19762
0.189075
0.180508
0.171907
0.163258
0.15456
0.145821
0.137057
0.128285
0.119519
0.110778
0.102074
0.0933407
0.0845475
0.0756651
0.0666574
0.057603
0.0500912
0.0406096
0.0321145
0.0238678
0.0155992
0.00727943
-0.00126549
-0.00968576
-0.00968576
0
0
0.47567
0.463794
0.457245
0.453948
0.450208
0.444119
0.436354
0.428126
0.41994
0.41176
0.403488
0.395044
0.386587
0.378091
0.369531
0.361196
0.352524
0.343798
0.335145
0.326602
0.31782
0.309202
0.300584
0.291952
0.283418
0.274803
0.266259
0.257813
0.249531
0.248097
0.232428
0.223587
0.214877
0.206222
0.197586
0.187961
0.180372
0.171773
0.163148
0.154488
0.145794
0.137078
0.128347
0.119612
0.110883
0.102155
0.0933992
0.0845671
0.0755494
0.0660599
0.0554701
-0.0130886
0.0377046
0.0311905
0.0236932
0.0156611
0.00739333
-0.00103693
-0.00966631
-0.00966631
0
0
0.475575
0.463423
0.456403
0.452715
0.44847
0.44202
0.434067
0.425817
0.417723
0.409705
0.401636
0.393472
0.385266
0.377048
0.368481
0.36006
0.351585
0.343056
0.334488
0.322166
0.317252
0.308732
0.300182
0.2916
0.283027
0.274452
0.265936
0.257532
0.249284
0.241142
0.231814
0.223343
0.21481
0.206205
0.197571
0.188935
0.179066
0.171666
0.163075
0.154449
0.145791
0.137112
0.128409
0.119695
0.110977
0.102256
0.093517
0.0847394
0.0758957
0.0670137
0.0583527
0.0506642
0.0411668
0.0325426
0.0242409
0.0159399
0.00758025
-0.000871189
-0.0095732
-0.0095732
0
0
0.475518
0.46321
0.456056
0.451669
0.447072
0.440356
0.432248
0.423946
0.415885
0.407965
0.400029
0.39203
0.384003
0.376122
0.367311
0.359058
0.350752
0.342376
0.333963
0.325537
0.316978
0.30841
0.299829
0.29123
0.28262
0.274017
0.265484
0.257102
0.24889
0.240125
0.232545
0.223852
0.215057
0.206289
0.197571
0.188903
0.180276
0.171656
0.163058
0.154449
0.145812
0.137174
0.128484
0.11978
0.111073
0.102368
0.0936643
0.0849605
0.07626
0.0676851
0.0593946
0.0513919
0.0423335
0.0334034
0.0247574
0.0162574
0.00779548
-0.000709023
-0.00946136
-0.00946136
0
0
0.475472
0.463022
0.455593
0.451018
0.4461
0.439121
0.430839
0.422454
0.414373
0.406505
0.398635
0.390706
0.382654
0.374299
0.366778
0.358559
0.35022
0.341823
0.33348
0.325081
0.316584
0.308035
0.299453
0.290831
0.282165
0.27347
0.264845
0.256527
0.249282
0.240914
0.232594
0.223902
0.215081
0.206269
0.197508
0.188811
0.180171
0.171592
0.163049
0.15448
0.145838
0.13731
0.128582
0.119872
0.111169
0.102478
0.0938078
0.0851618
0.076484
0.067969
0.0595958
0.0512431
0.0424993
0.0337268
0.0250746
0.0165263
0.00799933
-0.000543921
-0.00933753
-0.00933753
0
0
0.475437
0.462876
0.455274
0.450436
0.445334
0.438163
0.429734
0.421262
0.413162
0.405259
0.397436
0.389578
0.381635
0.373581
0.36576
0.357713
0.349484
0.341125
0.33299
0.324649
0.316179
0.307652
0.299074
0.29043
0.28168
0.27278
0.263768
0.254907
0.251381
0.242433
0.233185
0.224069
0.21508
0.20619
0.197381
0.188657
0.179988
0.171486
0.16307
0.154586
0.146
0.137376
0.128678
0.119965
0.111258
0.10257
0.093919
0.0853376
0.0765759
0.0680943
0.0596416
0.0511593
0.0424819
0.0338534
0.0252758
0.01678
0.00816431
-0.000369283
-0.00919291
-0.00919291
0
0
0.475415
0.46275
0.454992
0.450081
0.444765
0.437422
0.428857
0.420292
0.412135
0.404237
0.396433
0.388628
0.380776
0.372869
0.36497
0.356959
0.348789
0.340339
0.332622
0.324224
0.315767
0.307267
0.298719
0.290076
0.281256
0.272038
0.261677
0.247567
0.260982
0.245197
0.234019
0.224262
0.21504
0.206054
0.197177
0.188383
0.179716
0.17131
0.163192
0.154824
0.146236
0.137543
0.128807
0.120066
0.111338
0.10263
0.0939342
0.0852325
0.0768199
0.0682498
0.0597278
0.0512784
0.0423856
0.0339216
0.0254036
0.0169372
0.00841482
-0.000144369
-0.00899696
-0.00899696
0
0
0.475432
0.46264
0.454759
0.449747
0.444298
0.436834
0.428144
0.419483
0.411272
0.403363
0.395574
0.387809
0.380025
0.372198
0.364319
0.356362
0.34836
0.340477
0.331686
0.32347
0.315204
0.306854
0.298399
0.289831
0.281111
0.272168
0.262949
0.254083
0.2514
0.242523
0.233066
0.223806
0.214747
0.205806
0.196874
0.187959
0.179171
0.170882
0.163698
0.155396
0.146646
0.1378
0.128968
0.120174
0.11141
0.102688
0.0939901
0.0853234
0.0767831
0.068302
0.0597588
0.0512008
0.042561
0.034048
0.0254662
0.0170972
0.00863935
0.000146564
-0.00867702
-0.00867702
0
0
0.475529
0.46253
0.454615
0.449528
0.443967
0.436356
0.427506
0.418749
0.410501
0.402594
0.394818
0.387089
0.379365
0.371608
0.363764
0.355827
0.347828
0.33979
0.331423
0.32315
0.314886
0.306567
0.298168
0.289682
0.281104
0.272452
0.263832
0.25567
0.248894
0.240789
0.232094
0.22324
0.214369
0.205509
0.196488
0.187332
0.178059
0.169287
0.165849
0.15679
0.147344
0.138135
0.129135
0.120273
0.111462
0.102733
0.09403
0.0853379
0.0766966
0.0683864
0.0598086
0.0512071
0.0426536
0.0342855
0.0252201
0.0171034
0.00878121
0.000563087
-0.00796562
-0.00796562
0
0
0.475217
0.462725
0.454768
0.449601
0.443867
0.432248
0.42678
0.418042
0.40982
0.401945
0.394154
0.386444
0.378783
0.371121
0.3633
0.355349
0.34733
0.339267
0.331086
0.322877
0.314636
0.306345
0.297993
0.289578
0.281112
0.272628
0.265076
0.255922
0.248242
0.240049
0.231498
0.222782
0.213979
0.205168
0.196044
0.186616
0.176059
0.160984
0.175723
0.159433
0.148141
0.138401
0.129227
0.120292
0.111511
0.102772
0.0940683
0.0853455
0.07651
0.0685728
0.0598235
0.0511793
0.0426041
0.0340262
0.0251911
0.00739333
0.00868035
0.00111821
-0.00584891
0
0
0
0.475318
0.462501
0.45461
0.449541
0.44391
0.435828
0.426695
0.417797
0.409484
0.401586
0.393612
0.385857
0.378256
0.370734
0.362856
0.354847
0.346816
0.338818
0.330748
0.32261
0.314412
0.306157
0.297846
0.289486
0.281092
0.272693
0.264312
0.25576
0.248178
0.239704
0.231121
0.222421
0.213549
0.196466
0.195613
0.186701
0.177437
0.168424
0.166015
0.15456
0.147399
0.138158
0.129135
0.120256
0.111482
0.102779
0.0941412
0.0855964
0.0772172
0.0679157
0.0595056
0.0510541
0.0425688
0.0340721
0.0255851
0.0173089
0.00889796
0.00063027
-0.0079527
-0.0079527
0
0
0.47535
0.462555
0.454368
0.449518
0.444044
0.435436
0.42642
0.417554
0.40923
0.4014
0.393024
0.385271
0.377673
0.370194
0.362065
0.354031
0.3461
0.338337
0.33042
0.322363
0.314215
0.305996
0.297719
0.289395
0.281037
0.272709
0.264637
0.256552
0.247467
0.239142
0.230728
0.222208
0.21361
0.205049
0.196209
0.187375
0.17864
0.170407
0.163571
0.155405
0.146653
0.137794
0.128951
0.120154
0.111408
0.102742
0.0941316
0.0855629
0.0769901
0.0681148
0.0595119
0.051022
0.0425578
0.0341067
0.0256458
0.0172503
0.00876272
0.000229224
-0.00863966
-0.00863966
0
0
0.475367
0.462609
0.454749
0.448944
0.442682
0.435574
0.426576
0.417597
0.40901
0.400522
0.392985
0.384932
0.376798
0.338356
0.36004
0.352728
0.345184
0.337915
0.330115
0.322141
0.314042
0.305861
0.297612
0.289304
0.280921
0.272332
0.264946
0.256363
0.247608
0.23908
0.230602
0.222098
0.213586
0.205111
0.196479
0.187823
0.179259
0.17095
0.162955
0.154685
0.146148
0.137484
0.128758
0.120039
0.111316
0.1027
0.0941078
0.0855198
0.0769092
0.0681954
0.0595234
0.0510074
0.0425333
0.0340972
0.0255618
0.0170676
0.00855193
-4.6456e-05
-0.00894139
-0.00894139
0
0
0.475363
0.462576
0.454553
0.449004
0.442945
0.435299
0.426393
0.417483
0.4089
0.400325
0.392395
0.384225
0.347141
0.368522
0.360889
0.353239
0.345708
0.337666
0.329858
0.321934
0.313897
0.305758
0.297533
0.289254
0.280935
0.272609
0.264515
0.256089
0.247557
0.239037
0.230518
0.221987
0.213492
0.205166
0.196644
0.188095
0.179556
0.171119
0.162772
0.154363
0.145853
0.137287
0.128583
0.119982
0.111306
0.102744
0.0941317
0.0855246
0.0769367
0.0682915
0.0595774
0.0510287
0.0424427
0.0339591
0.0253526
0.0168633
0.00836322
-0.000247403
-0.00912194
-0.00912194
0
0
0.475357
0.462549
0.45448
0.449054
0.443113
0.435286
0.426336
0.417547
0.40912
0.399635
0.391884
0.384434
0.377507
0.369249
0.36143
0.353619
0.34583
0.337853
0.329895
0.321904
0.313851
0.305726
0.297483
0.289218
0.280938
0.272646
0.264365
0.255954
0.247498
0.238985
0.230423
0.22181
0.213221
0.205478
0.196858
0.18837
0.179742
0.171191
0.162695
0.154197
0.145665
0.137101
0.128524
0.120054
0.115973
0.102945
0.0941744
0.0855188
0.0769949
0.0684825
0.0654845
0.0511612
0.0421822
0.0241335
0.0249342
0.0166678
0.00823819
-0.00041216
-0.00925964
-0.00925964
0
0
0.475355
0.462541
0.45447
0.449093
0.443206
0.435355
0.426316
0.417867
0.410992
0.397354
0.391117
0.384095
0.377055
0.369397
0.361628
0.353798
0.345903
0.33794
0.329947
0.321922
0.313865
0.305772
0.297437
0.289179
0.280937
0.272662
0.264366
0.258089
0.247531
0.23897
0.230341
0.221538
0.212028
0.207147
0.197
0.188864
0.179904
0.171221
0.162644
0.154093
0.145533
0.136941
0.128344
0.119737
0.111048
0.102511
0.0939089
0.0852946
0.0767862
0.0681198
0.0592071
0.0508208
0.04233
0.0339037
0.0252576
0.0167587
0.00828074
-0.000582922
-0.0093849
-0.0093849
0
0
0.475354
0.462543
0.454478
0.449127
0.443289
0.435602
0.425818
0.417354
0.409192
0.399597
0.391878
0.384481
0.37707
0.369452
0.361707
0.353888
0.345925
0.337993
0.329994
0.321953
0.313896
0.305908
0.297334
0.289177
0.280975
0.272695
0.264352
0.255852
0.247422
0.238933
0.230346
0.221721
0.213086
0.20549
0.196867
0.188427
0.179773
0.171156
0.162576
0.154015
0.145443
0.1368
0.128182
0.119559
0.110904
0.102316
0.0936828
0.0849112
0.06809
0.0678047
0.0587975
0.0507247
0.0423085
0.0338585
0.0252818
0.0167848
0.00844955
-0.000832515
-0.0094598
-0.0094598
0
0
0.475354
0.462546
0.454486
0.449139
0.443277
0.435416
0.42624
0.417306
0.408821
0.400375
0.392495
0.384844
0.377233
0.369556
0.361807
0.353986
0.346067
0.338089
0.33006
0.321982
0.31383
0.305493
0.29769
0.289438
0.281171
0.272782
0.264316
0.255911
0.247449
0.238999
0.230332
0.221864
0.213402
0.205137
0.196683
0.188195
0.179637
0.171064
0.162501
0.153956
0.145412
0.136651
0.12804
0.119453
0.110849
0.102259
0.0936637
0.0850659
0.0765169
0.0676398
0.0596739
0.0508001
0.0422635
0.0337395
0.0251484
0.016488
0.00770204
-0.000151668
-0.00919192
-0.00919192
0
0
0.475354
0.462547
0.454491
0.449153
0.443296
0.43544
0.426478
0.417329
0.408821
0.400663
0.392833
0.385142
0.377465
0.369751
0.361985
0.354166
0.346235
0.338215
0.330157
0.322063
0.313934
0.305686
0.298719
0.289474
0.281283
0.272812
0.264307
0.255862
0.247423
0.238969
0.230452
0.221967
0.213499
0.205067
0.196591
0.18808
0.179536
0.170975
0.162416
0.153887
0.145455
0.136444
0.127938
0.119388
0.11081
0.102228
0.093653
0.0850936
0.0765456
0.067896
0.0594938
0.0508377
0.0422465
0.0336791
0.025096
0.0164933
0.00789498
-0.000421452
-0.0092667
-0.0092667
0
0
0.475354
0.462545
0.454489
0.449174
0.443345
0.435538
0.426844
0.417315
0.409014
0.400977
0.393263
0.385556
0.377822
0.370049
0.362245
0.35446
0.346479
0.338372
0.330282
0.322166
0.314047
0.305833
0.297575
0.289272
0.28111
0.272483
0.264028
0.25569
0.247346
0.23895
0.230496
0.222021
0.213536
0.205049
0.196541
0.188011
0.179459
0.17089
0.162302
0.153667
0.144916
0.136763
0.128067
0.119403
0.110782
0.102191
0.0936211
0.0850648
0.0765109
0.0679334
0.0594006
0.0508091
0.0422238
0.0336494
0.0250835
0.0165496
0.00791873
-0.000550161
-0.00934995
-0.00934995
0
0
0.475356
0.462534
0.45448
0.449206
0.443409
0.435523
0.426251
0.418115
0.409807
0.409192
0.394113
0.386172
0.378277
0.370401
0.362494
0.354873
0.346763
0.338542
0.330457
0.322294
0.314233
0.305997
0.297589
0.288851
0.254053
0.271302
0.26348
0.255465
0.247278
0.238951
0.23053
0.222058
0.213559
0.205043
0.19651
0.187961
0.179397
0.17082
0.16223
0.153619
0.144999
0.136556
0.127955
0.119324
0.110714
0.102133
0.0935729
0.0850235
0.0764747
0.0679169
0.0593586
0.0507825
0.0422031
0.0336289
0.0250638
0.0165131
0.00795796
-0.000589728
-0.00939205
-0.00939205
0
0
0.475376
0.462501
0.456345
0.449314
0.443556
0.435767
0.426792
0.418218
0.409969
0.401875
0.394078
0.386302
0.378489
0.370644
0.362326
0.354985
0.346652
0.346634
0.330764
0.322435
0.314551
0.306231
0.297886
0.289537
0.281438
0.272781
0.264263
0.255861
0.247475
0.239057
0.230596
0.222102
0.213583
0.205043
0.196487
0.18792
0.179342
0.170758
0.162173
0.153591
0.145012
0.136443
0.127827
0.119208
0.110616
0.102054
0.0935138
0.0849829
0.0764496
0.0679043
0.0593448
0.0507707
0.0421912
0.0336163
0.0250497
0.0164927
0.00795046
-0.000610934
-0.00934995
-0.00941387
0
0
0.475452
0.462292
0.454362
0.449265
0.443668
0.436019
0.427231
0.418562
0.410315
0.402311
0.394479
0.386682
0.378819
0.370749
0.361914
0.267311
0.344278
0.337607
0.330408
0.322785
0.314394
0.30626
0.298058
0.289864
0.281597
0.273127
0.264621
0.25613
0.247653
0.239171
0.230673
0.222155
0.213613
0.205046
0.196466
0.187878
0.179283
0.170688
0.162105
0.153553
0.145014
0.136373
0.127699
0.119062
0.110483
0.101951
0.0934459
0.0849483
0.0764431
0.0679147
0.0593575
0.0507774
0.0421898
0.0336128
0.0250399
0.0164727
0.0079175
-0.00178895
-0.00945249
-0.00945249
0
0
0.475658
0.460909
0.454107
0.449441
0.443998
0.43646
0.427748
0.419056
0.410848
0.402914
0.395091
0.38728
0.379418
0.371467
0.363468
0.356096
0.347508
0.33922
0.331159
0.323099
0.314814
0.306556
0.298317
0.290143
0.28159
0.273219
0.26477
0.256286
0.247783
0.239273
0.230753
0.222216
0.213654
0.20505
0.196439
0.187828
0.179211
0.170591
0.161995
0.15349
0.145072
0.136306
0.127518
0.118847
0.110293
0.101818
0.0933702
0.0849266
0.0764692
0.0679658
0.0594071
0.0508072
0.0421963
0.0336196
0.0244131
0.0164533
0.00791299
-0.000655273
-0.00978051
-0.00946953
0
0
0.4755
0.462427
0.454669
0.44979
0.444471
0.437113
0.428523
0.419631
0.411496
0.40363
0.395836
0.388021
0.380153
0.372232
0.364328
0.356571
0.348324
0.340007
0.331745
0.323497
0.31519
0.306862
0.298499
0.290036
0.28193
0.273467
0.26496
0.256437
0.247898
0.239367
0.230835
0.222293
0.213723
0.205043
0.196398
0.187767
0.17912
0.170447
0.161764
0.153272
0.145145
0.136051
0.127126
0.118472
0.110004
0.101648
0.09329
0.0849271
0.0765567
0.06809
0.0595168
0.05087
0.0422058
0.0336846
0.0250652
0.0164576
0.00789741
-0.000673866
-0.00946477
-0.00946477
0
0
0.475434
0.462748
0.45506
0.450293
0.443967
0.437991
0.429945
0.419929
0.412213
0.404482
0.396722
0.388892
0.380983
0.372198
0.365015
0.356997
0.348798
0.340517
0.332215
0.3239
0.315554
0.307173
0.298766
0.290337
0.282008
0.273572
0.265076
0.256562
0.247971
0.239451
0.230915
0.222386
0.213857
0.205
0.196333
0.187704
0.179022
0.170269
0.161242
0.152366
0.144279
0.134698
0.126106
0.117773
0.109551
0.101471
0.0932226
0.084954
0.0767768
0.0683554
0.0597319
0.0509983
0.0421979
0.0337842
0.025063
0.0164268
0.00785899
-0.000711096
-0.00949236
-0.00949236
0
0
0.47545
0.462954
0.45545
0.45088
0.445915
0.438901
0.430593
0.421753
0.413656
0.405767
0.397887
0.38994
0.38192
0.373839
0.365721
0.357551
0.349306
0.341003
0.332667
0.32431
0.315927
0.307485
0.299033
0.290586
0.282158
0.273689
0.265186
0.256659
0.248097
0.239539
0.230981
0.222459
0.214088
0.204849
0.196313
0.187694
0.178967
0.170052
0.160647
0.149902
0.0372408
0.130522
0.124311
0.116729
0.108843
0.101508
0.0932262
0.0849216
0.0773661
0.0689191
0.0601243
0.0512973
0.0425693
0.0335209
0.0249164
0.0163381
0.00779059
-0.000766532
-0.00953067
-0.00953067
0
0
0.47549
0.463147
0.455859
0.451545
0.446843
0.440047
0.431872
0.423419
0.415268
0.407255
0.39924
0.391133
0.382963
0.374744
0.366492
0.358204
0.349875
0.341514
0.333129
0.324732
0.31632
0.307776
0.29927
0.290799