# vtk DataFile Version 2.0
FlowField
ASCII
DATASET STRUCTURED_GRID
DIMENSIONS 62 47 32 
POINTS 93248 double
0 0 0
0.01 0 0
0.02 0 0
0.03 0 0
0.04 0 0
0.05 0 0
0.06 0 0
0.07 0 0
0.08 0 0
0.09 0 0
0.1 0 0
0.11 0 0
0.12 0 0
0.13 0 0
0.14 0 0
0.15 0 0
0.16 0 0
0.17 0 0
0.18 0 0
0.19 0 0
0.2 0 0
0.21 0 0
0.22 0 0
0.23 0 0
0.24 0 0
0.25 0 0
0.26 0 0
0.27 0 0
0.28 0 0
0.29 0 0
0.3 0 0
0.31 0 0
0.32 0 0
0.33 0 0
0.34 0 0
0.35 0 0
0.36 0 0
0.37 0 0
0.38 0 0
0.39 0 0
0.4 0 0
0.41 0 0
0.42 0 0
0.43 0 0
0.44 0 0
0.45 0 0
0.46 0 0
0.47 0 0
0.48 0 0
0.49 0 0
0.5 0 0
0.51 0 0
0.52 0 0
0.53 0 0
0.54 0 0
0.55 0 0
0.56 0 0
0.57 0 0
0.58 0 0
0.59 0 0
0.6 0 0
0.61 0 0
0 0.01 0
0.01 0.01 0
0.02 0.01 0
0.03 0.01 0
0.04 0.01 0
0.05 0.01 0
0.06 0.01 0
0.07 0.01 0
0.08 0.01 0
0.09 0.01 0
0.1 0.01 0
0.11 0.01 0
0.12 0.01 0
0.13 0.01 0
0.14 0.01 0
0.15 0.01 0
0.16 0.01 0
0.17 0.01 0
0.18 0.01 0
0.19 0.01 0
0.2 0.01 0
0.21 0.01 0
0.22 0.01 0
0.23 0.01 0
0.24 0.01 0
0.25 0.01 0
0.26 0.01 0
0.27 0.01 0
0.28 0.01 0
0.29 0.01 0
0.3 0.01 0
0.31 0.01 0
0.32 0.01 0
0.33 0.01 0
0.34 0.01 0
0.35 0.01 0
0.36 0.01 0
0.37 0.01 0
0.38 0.01 0
0.39 0.01 0
0.4 0.01 0
0.41 0.01 0
0.42 0.01 0
0.43 0.01 0
0.44 0.01 0
0.45 0.01 0
0.46 0.01 0
0.47 0.01 0
0.48 0.01 0
0.49 0.01 0
0.5 0.01 0
0.51 0.01 0
0.52 0.01 0
0.53 0.01 0
0.54 0.01 0
0.55 0.01 0
0.56 0.01 0
0.57 0.01 0
0.58 0.01 0
0.59 0.01 0
0.6 0.01 0
0.61 0.01 0
0 0.02 0
0.01 0.02 0
0.02 0.02 0
0.03 0.02 0
0.04 0.02 0
0.05 0.02 0
0.06 0.02 0
0.07 0.02 0
0.08 0.02 0
0.09 0.02 0
0.1 0.02 0
0.11 0.02 0
0.12 0.02 0
0.13 0.02 0
0.14 0.02 0
0.15 0.02 0
0.16 0.02 0
0.17 0.02 0
0.18 0.02 0
0.19 0.02 0
0.2 0.02 0
0.21 0.02 0
0.22 0.02 0
0.23 0.02 0
0.24 0.02 0
0.25 0.02 0
0.26 0.02 0
0.27 0.02 0
0.28 0.02 0
0.29 0.02 0
0.3 0.02 0
0.31 0.02 0
0.32 0.02 0
0.33 0.02 0
0.34 0.02 0
0.35 0.02 0
0.36 0.02 0
0.37 0.02 0
0.38 0.02 0
0.39 0.02 0
0.4 0.02 0
0.41 0.02 0
0.42 0.02 0
0.43 0.02 0
0.44 0.02 0
0.45 0.02 0
0.46 0.02 0
0.47 0.02 0
0.48 0.02 0
0.49 0.02 0
0.5 0.02 0
0.51 0.02 0
0.52 0.02 0
0.53 0.02 0
0.54 0.02 0
0.55 0.02 0
0.56 0.02 0
0.57 0.02 0
0.58 0.02 0
0.59 0.02 0
0.6 0.02 0
0.61 0.02 0
0 0.03 0
0.01 0.03 0
0.02 0.03 0
0.03 0.03 0
0.04 0.03 0
0.05 0.03 0
0.06 0.03 0
0.07 0.03 0
0.08 0.03 0
0.09 0.03 0
0.1 0.03 0
0.11 0.03 0
0.12 0.03 0
0.13 0.03 0
0.14 0.03 0
0.15 0.03 0
0.16 0.03 0
0.17 0.03 0
0.18 0.03 0
0.19 0.03 0
0.2 0.03 0
0.21 0.03 0
0.22 0.03 0
0.23 0.03 0
0.24 0.03 0
0.25 0.03 0
0.26 0.03 0
0.27 0.03 0
0.28 0.03 0
0.29 0.03 0
0.3 0.03 0
0.31 0.03 0
0.32 0.03 0
0.33 0.03 0
0.34 0.03 0
0.35 0.03 0
0.36 0.03 0
0.37 0.03 0
0.38 0.03 0
0.39 0.03 0
0.4 0.03 0
0.41 0.03 0
0.42 0.03 0
0.43 0.03 0
0.44 0.03 0
0.45 0.03 0
0.46 0.03 0
0.47 0.03 0
0.48 0.03 0
0.49 0.03 0
0.5 0.03 0
0.51 0.03 0
0.52 0.03 0
0.53 0.03 0
0.54 0.03 0
0.55 0.03 0
0.56 0.03 0
0.57 0.03 0
0.58 0.03 0
0.59 0.03 0
0.6 0.03 0
0.61 0.03 0
0 0.04 0
0.01 0.04 0
0.02 0.04 0
0.03 0.04 0
0.04 0.04 0
0.05 0.04 0
0.06 0.04 0
0.07 0.04 0
0.08 0.04 0
0.09 0.04 0
0.1 0.04 0
0.11 0.04 0
0.12 0.04 0
0.13 0.04 0
0.14 0.04 0
0.15 0.04 0
0.16 0.04 0
0.17 0.04 0
0.18 0.04 0
0.19 0.04 0
0.2 0.04 0
0.21 0.04 0
0.22 0.04 0
0.23 0.04 0
0.24 0.04 0
0.25 0.04 0
0.26 0.04 0
0.27 0.04 0
0.28 0.04 0
0.29 0.04 0
0.3 0.04 0
0.31 0.04 0
0.32 0.04 0
0.33 0.04 0
0.34 0.04 0
0.35 0.04 0
0.36 0.04 0
0.37 0.04 0
0.38 0.04 0
0.39 0.04 0
0.4 0.04 0
0.41 0.04 0
0.42 0.04 0
0.43 0.04 0
0.44 0.04 0
0.45 0.04 0
0.46 0.04 0
0.47 0.04 0
0.48 0.04 0
0.49 0.04 0
0.5 0.04 0
0.51 0.04 0
0.52 0.04 0
0.53 0.04 0
0.54 0.04 0
0.55 0.04 0
0.56 0.04 0
0.57 0.04 0
0.58 0.04 0
0.59 0.04 0
0.6 0.04 0
0.61 0.04 0
0 0.05 0
0.01 0.05 0
0.02 0.05 0
0.03 0.05 0
0.04 0.05 0
0.05 0.05 0
0.06 0.05 0
0.07 0.05 0
0.08 0.05 0
0.09 0.05 0
0.1 0.05 0
0.11 0.05 0
0.12 0.05 0
0.13 0.05 0
0.14 0.05 0
0.15 0.05 0
0.16 0.05 0
0.17 0.05 0
0.18 0.05 0
0.19 0.05 0
0.2 0.05 0
0.21 0.05 0
0.22 0.05 0
0.23 0.05 0
0.24 0.05 0
0.25 0.05 0
0.26 0.05 0
0.27 0.05 0
0.28 0.05 0
0.29 0.05 0
0.3 0.05 0
0.31 0.05 0
0.32 0.05 0
0.33 0.05 0
0.34 0.05 0
0.35 0.05 0
0.36 0.05 0
0.37 0.05 0
0.38 0.05 0
0.39 0.05 0
0.4 0.05 0
0.41 0.05 0
0.42 0.05 0
0.43 0.05 0
0.44 0.05 0
0.45 0.05 0
0.46 0.05 0
0.47 0.05 0
0.48 0.05 0
0.49 0.05 0
0.5 0.05 0
0.51 0.05 0
0.52 0.05 0
0.53 0.05 0
0.54 0.05 0
0.55 0.05 0
0.56 0.05 0
0.57 0.05 0
0.58 0.05 0
0.59 0.05 0
0.6 0.05 0
0.61 0.05 0
0 0.06 0
0.01 0.06 0
0.02 0.06 0
0.03 0.06 0
0.04 0.06 0
0.05 0.06 0
0.06 0.06 0
0.07 0.06 0
0.08 0.06 0
0.09 0.06 0
0.1 0.06 0
0.11 0.06 0
0.12 0.06 0
0.13 0.06 0
0.14 0.06 0
0.15 0.06 0
0.16 0.06 0
0.17 0.06 0
0.18 0.06 0
0.19 0.06 0
0.2 0.06 0
0.21 0.06 0
0.22 0.06 0
0.23 0.06 0
0.24 0.06 0
0.25 0.06 0
0.26 0.06 0
0.27 0.06 0
0.28 0.06 0
0.29 0.06 0
0.3 0.06 0
0.31 0.06 0
0.32 0.06 0
0.33 0.06 0
0.34 0.06 0
0.35 0.06 0
0.36 0.06 0
0.37 0.06 0
0.38 0.06 0
0.39 0.06 0
0.4 0.06 0
0.41 0.06 0
0.42 0.06 0
0.43 0.06 0
0.44 0.06 0
0.45 0.06 0
0.46 0.06 0
0.47 0.06 0
0.48 0.06 0
0.49 0.06 0
0.5 0.06 0
0.51 0.06 0
0.52 0.06 0
0.53 0.06 0
0.54 0.06 0
0.55 0.06 0
0.56 0.06 0
0.57 0.06 0
0.58 0.06 0
0.59 0.06 0
0.6 0.06 0
0.61 0.06 0
0 0.07 0
0.01 0.07 0
0.02 0.07 0
0.03 0.07 0
0.04 0.07 0
0.05 0.07 0
0.06 0.07 0
0.07 0.07 0
0.08 0.07 0
0.09 0.07 0
0.1 0.07 0
0.11 0.07 0
0.12 0.07 0
0.13 0.07 0
0.14 0.07 0
0.15 0.07 0
0.16 0.07 0
0.17 0.07 0
0.18 0.07 0
0.19 0.07 0
0.2 0.07 0
0.21 0.07 0
0.22 0.07 0
0.23 0.07 0
0.24 0.07 0
0.25 0.07 0
0.26 0.07 0
0.27 0.07 0
0.28 0.07 0
0.29 0.07 0
0.3 0.07 0
0.31 0.07 0
0.32 0.07 0
0.33 0.07 0
0.34 0.07 0
0.35 0.07 0
0.36 0.07 0
0.37 0.07 0
0.38 0.07 0
0.39 0.07 0
0.4 0.07 0
0.41 0.07 0
0.42 0.07 0
0.43 0.07 0
0.44 0.07 0
0.45 0.07 0
0.46 0.07 0
0.47 0.07 0
0.48 0.07 0
0.49 0.07 0
0.5 0.07 0
0.51 0.07 0
0.52 0.07 0
0.53 0.07 0
0.54 0.07 0
0.55 0.07 0
0.56 0.07 0
0.57 0.07 0
0.58 0.07 0
0.59 0.07 0
0.6 0.07 0
0.61 0.07 0
0 0.08 0
0.01 0.08 0
0.02 0.08 0
0.03 0.08 0
0.04 0.08 0
0.05 0.08 0
0.06 0.08 0
0.07 0.08 0
0.08 0.08 0
0.09 0.08 0
0.1 0.08 0
0.11 0.08 0
0.12 0.08 0
0.13 0.08 0
0.14 0.08 0
0.15 0.08 0
0.16 0.08 0
0.17 0.08 0
0.18 0.08 0
0.19 0.08 0
0.2 0.08 0
0.21 0.08 0
0.22 0.08 0
0.23 0.08 0
0.24 0.08 0
0.25 0.08 0
0.26 0.08 0
0.27 0.08 0
0.28 0.08 0
0.29 0.08 0
0.3 0.08 0
0.31 0.08 0
0.32 0.08 0
0.33 0.08 0
0.34 0.08 0
0.35 0.08 0
0.36 0.08 0
0.37 0.08 0
0.38 0.08 0
0.39 0.08 0
0.4 0.08 0
0.41 0.08 0
0.42 0.08 0
0.43 0.08 0
0.44 0.08 0
0.45 0.08 0
0.46 0.08 0
0.47 0.08 0
0.48 0.08 0
0.49 0.08 0
0.5 0.08 0
0.51 0.08 0
0.52 0.08 0
0.53 0.08 0
0.54 0.08 0
0.55 0.08 0
0.56 0.08 0
0.57 0.08 0
0.58 0.08 0
0.59 0.08 0
0.6 0.08 0
0.61 0.08 0
0 0.09 0
0.01 0.09 0
0.02 0.09 0
0.03 0.09 0
0.04 0.09 0
0.05 0.09 0
0.06 0.09 0
0.07 0.09 0
0.08 0.09 0
0.09 0.09 0
0.1 0.09 0
0.11 0.09 0
0.12 0.09 0
0.13 0.09 0
0.14 0.09 0
0.15 0.09 0
0.16 0.09 0
0.17 0.09 0
0.18 0.09 0
0.19 0.09 0
0.2 0.09 0
0.21 0.09 0
0.22 0.09 0
0.23 0.09 0
0.24 0.09 0
0.25 0.09 0
0.26 0.09 0
0.27 0.09 0
0.28 0.09 0
0.29 0.09 0
0.3 0.09 0
0.31 0.09 0
0.32 0.09 0
0.33 0.09 0
0.34 0.09 0
0.35 0.09 0
0.36 0.09 0
0.37 0.09 0
0.38 0.09 0
0.39 0.09 0
0.4 0.09 0
0.41 0.09 0
0.42 0.09 0
0.43 0.09 0
0.44 0.09 0
0.45 0.09 0
0.46 0.09 0
0.47 0.09 0
0.48 0.09 0
0.49 0.09 0
0.5 0.09 0
0.51 0.09 0
0.52 0.09 0
0.53 0.09 0
0.54 0.09 0
0.55 0.09 0
0.56 0.09 0
0.57 0.09 0
0.58 0.09 0
0.59 0.09 0
0.6 0.09 0
0.61 0.09 0
0 0.1 0
0.01 0.1 0
0.02 0.1 0
0.03 0.1 0
0.04 0.1 0
0.05 0.1 0
0.06 0.1 0
0.07 0.1 0
0.08 0.1 0
0.09 0.1 0
0.1 0.1 0
0.11 0.1 0
0.12 0.1 0
0.13 0.1 0
0.14 0.1 0
0.15 0.1 0
0.16 0.1 0
0.17 0.1 0
0.18 0.1 0
0.19 0.1 0
0.2 0.1 0
0.21 0.1 0
0.22 0.1 0
0.23 0.1 0
0.24 0.1 0
0.25 0.1 0
0.26 0.1 0
0.27 0.1 0
0.28 0.1 0
0.29 0.1 0
0.3 0.1 0
0.31 0.1 0
0.32 0.1 0
0.33 0.1 0
0.34 0.1 0
0.35 0.1 0
0.36 0.1 0
0.37 0.1 0
0.38 0.1 0
0.39 0.1 0
0.4 0.1 0
0.41 0.1 0
0.42 0.1 0
0.43 0.1 0
0.44 0.1 0
0.45 0.1 0
0.46 0.1 0
0.47 0.1 0
0.48 0.1 0
0.49 0.1 0
0.5 0.1 0
0.51 0.1 0
0.52 0.1 0
0.53 0.1 0
0.54 0.1 0
0.55 0.1 0
0.56 0.1 0
0.57 0.1 0
0.58 0.1 0
0.59 0.1 0
0.6 0.1 0
0.61 0.1 0
0 0.11 0
0.01 0.11 0
0.02 0.11 0
0.03 0.11 0
0.04 0.11 0
0.05 0.11 0
0.06 0.11 0
0.07 0.11 0
0.08 0.11 0
0.09 0.11 0
0.1 0.11 0
0.11 0.11 0
0.12 0.11 0
0.13 0.11 0
0.14 0.11 0
0.15 0.11 0
0.16 0.11 0
0.17 0.11 0
0.18 0.11 0
0.19 0.11 0
0.2 0.11 0
0.21 0.11 0
0.22 0.11 0
0.23 0.11 0
0.24 0.11 0
0.25 0.11 0
0.26 0.11 0
0.27 0.11 0
0.28 0.11 0
0.29 0.11 0
0.3 0.11 0
0.31 0.11 0
0.32 0.11 0
0.33 0.11 0
0.34 0.11 0
0.35 0.11 0
0.36 0.11 0
0.37 0.11 0
0.38 0.11 0
0.39 0.11 0
0.4 0.11 0
0.41 0.11 0
0.42 0.11 0
0.43 0.11 0
0.44 0.11 0
0.45 0.11 0
0.46 0.11 0
0.47 0.11 0
0.48 0.11 0
0.49 0.11 0
0.5 0.11 0
0.51 0.11 0
0.52 0.11 0
0.53 0.11 0
0.54 0.11 0
0.55 0.11 0
0.56 0.11 0
0.57 0.11 0
0.58 0.11 0
0.59 0.11 0
0.6 0.11 0
0.61 0.11 0
0 0.12 0
0.01 0.12 0
0.02 0.12 0
0.03 0.12 0
0.04 0.12 0
0.05 0.12 0
0.06 0.12 0
0.07 0.12 0
0.08 0.12 0
0.09 0.12 0
0.1 0.12 0
0.11 0.12 0
0.12 0.12 0
0.13 0.12 0
0.14 0.12 0
0.15 0.12 0
0.16 0.12 0
0.17 0.12 0
0.18 0.12 0
0.19 0.12 0
0.2 0.12 0
0.21 0.12 0
0.22 0.12 0
0.23 0.12 0
0.24 0.12 0
0.25 0.12 0
0.26 0.12 0
0.27 0.12 0
0.28 0.12 0
0.29 0.12 0
0.3 0.12 0
0.31 0.12 0
0.32 0.12 0
0.33 0.12 0
0.34 0.12 0
0.35 0.12 0
0.36 0.12 0
0.37 0.12 0
0.38 0.12 0
0.39 0.12 0
0.4 0.12 0
0.41 0.12 0
0.42 0.12 0
0.43 0.12 0
0.44 0.12 0
0.45 0.12 0
0.46 0.12 0
0.47 0.12 0
0.48 0.12 0
0.49 0.12 0
0.5 0.12 0
0.51 0.12 0
0.52 0.12 0
0.53 0.12 0
0.54 0.12 0
0.55 0.12 0
0.56 0.12 0
0.57 0.12 0
0.58 0.12 0
0.59 0.12 0
0.6 0.12 0
0.61 0.12 0
0 0.13 0
0.01 0.13 0
0.02 0.13 0
0.03 0.13 0
0.04 0.13 0
0.05 0.13 0
0.06 0.13 0
0.07 0.13 0
0.08 0.13 0
0.09 0.13 0
0.1 0.13 0
0.11 0.13 0
0.12 0.13 0
0.13 0.13 0
0.14 0.13 0
0.15 0.13 0
0.16 0.13 0
0.17 0.13 0
0.18 0.13 0
0.19 0.13 0
0.2 0.13 0
0.21 0.13 0
0.22 0.13 0
0.23 0.13 0
0.24 0.13 0
0.25 0.13 0
0.26 0.13 0
0.27 0.13 0
0.28 0.13 0
0.29 0.13 0
0.3 0.13 0
0.31 0.13 0
0.32 0.13 0
0.33 0.13 0
0.34 0.13 0
0.35 0.13 0
0.36 0.13 0
0.37 0.13 0
0.38 0.13 0
0.39 0.13 0
0.4 0.13 0
0.41 0.13 0
0.42 0.13 0
0.43 0.13 0
0.44 0.13 0
0.45 0.13 0
0.46 0.13 0
0.47 0.13 0
0.48 0.13 0
[...]
POINT_DATA 93248

SCALARS v double
LOOKUP_TABLE default
0
0
0
0
0
0
0
0
0
0
0
0
0
0
0
0
0
0
0
0
0
0
0
0
0
0
0
0
0
0
0
0
0
0
0
0
0
0
-0.00741753
0
0
0
0
0
-0.00746242
0
0
0
0
0
0
0
0
0
0
0
0
0
0
0
0
0
0
0.0481527
-0.0342585
0.00312346
-0.0031779
-0.00599167
0
-0.00817572
-0.00861221
-0.00892023
-0.00913852
-0.00929917
-0.00943708
-0.00950794
-0.00957709
-0.00963726
-0.00967138
-0.00969155
-0.009737
-0.00976962
-0.00981696
-0.00980953
-0.00982213
-0.00983507
-0.00984621
-0.00985564
-0.00986363
-0.00987038
-0.00987598
-0.00988043
-0.00988368
-0.0098869
-0.00990184
-0.00987721
-0.00986102
-0.00991147
-0.0105886
-0.0103164
-0.0124255
-0.00738652
-0.00949138
-0.0101625
-0.00991171
-0.00991172
-0.00988982
-0.00984607
-0.0155799
-0.00991466
-0.00975015
-0.00991881
-0.00992692
-0.00993554
-0.00985789
-0.00985815
-0.0109234
-0.00982857
-0.0126285
-0.00986204
-0.00976589
-0.00949317
-0.00844298
0
0
0.0308208
0.0179326
0.00657912
0.000554631
-0.00294296
-0.00495576
-0.00634411
-0.00720738
-0.00779222
-0.00820505
-0.00849999
-0.0141676
-0.00890554
-0.00905279
-0.00874727
-0.00924634
-0.00923687
-0.00937928
-0.00942576
-0.0158847
-0.00950224
-0.00954562
-0.00957462
-0.00959773
-0.00961713
-0.00963367
-0.00964776
-0.00965961
-0.00966907
-0.00967493
-0.00967121
-0.0132191
-0.00964919
-0.00954643
-0.00977506
-0.00957916
-0.00913483
-0.0070434
-0.0124091
-0.010322
-0.00990672
-0.00979713
-0.00975553
-0.00970063
-0.00948993
-0.0100141
-0.0097882
-0.00975015
-0.00974404
-0.00974394
-0.00973632
-0.00969402
-0.00968001
-0.00967456
-0.00964688
-0.00962756
-0.0136857
-0.00952504
-0.00932264
-0.00858598
0
0
0.0204933
0.0131058
0.00609169
0.00165364
-0.00149231
-0.00364441
-0.00515759
-0.00620888
-0.00696478
-0.00751933
-0.00793634
-0.0082754
-0.00850425
-0.00870234
-0.00887651
-0.00904342
0
-0.00923654
-0.00926943
-0.00934733
-0.00937105
-0.00941207
-0.00945029
-0.00948357
-0.00951228
-0.00953702
-0.0095583
-0.00957651
-0.00959196
-0.00960517
-0.00961849
-0.00964709
-0.00965238
-0.00974257
-0.00945771
-0.0094904
-0.00934703
-0.00912257
-0.0102302
-0.0100017
-0.00983928
-0.00976718
-0.00974231
-0.00976549
-0.009955
-0.00942946
-0.00964131
-0.00968454
-0.00969303
-0.00969131
-0.00968013
-0.00965556
-0.00963711
-0.00962118
-0.00960047
-0.00958115
-0.00956869
-0.00949499
-0.00934168
-0.00873842
0
0
0.0148222
0.00901232
0.00439406
0.00136087
-0.00113406
-0.00305916
-0.00453327
-0.00560772
-0.00644313
-0.00707449
-0.00756081
-0.0079443
-0.00824201
-0.00848373
-0.00868179
-0.00883229
-0.00888106
-0.00907849
-0.00918465
-0.00926908
-0.00933146
-0.00938725
-0.0094366
-0.00947968
-0.0095171
-0.00954955
-0.00957762
-0.00960183
-0.00962273
-0.0096411
-0.00965844
-0.00967739
-0.00969237
-0.00969554
-0.00962825
-0.00961237
-0.0095829
-0.00959874
-0.00986944
-0.00988162
-0.00984311
-0.00981419
-0.00980236
-0.00980772
-0.0098156
-0.00962351
-0.00972894
-0.00975171
-0.009755
-0.00975076
-0.00973961
-0.00972117
-0.00970166
-0.00968299
-0.00966339
-0.0096425
-0.00961758
-0.0095746
-0.00945462
-0.00892056
0
0
0.0112817
0.00587109
0.00252788
0.000485036
-0.001387
-0.00296163
-0.00435611
-0.0052799
-0.00617037
-0.0068229
-0.00733775
-0.00775161
-0.0080855
-0.00835833
-0.00858142
-0.0087619
-0.00890196
-0.00905118
-0.00917003
-0.00926782
-0.00934846
-0.00941755
-0.00947752
-0.00952971
-0.00957515
-0.00961472
-0.00964903
-0.00967865
-0.00970423
-0.00972662
-0.0097468
-0.00976661
-0.00980439
-0.00978221
-0.00976661
-0.00976335
-0.00976753
-0.00979913
-0.00988388
-0.00991286
-0.00991233
-0.00990599
-0.00990404
-0.00991295
-0.0099529
0
-0.00992329
-0.00988168
-0.0098714
-0.00986473
-0.00985447
-0.00983745
-0.00981485
-0.00979519
-0.00977738
-0.00975861
-0.00973604
-0.00970478
-0.00957587
-0.00914221
-0.00678096
0
0.0088488
0.00345975
0.000810097
-0.00058182
-0.00194734
-0.00303177
-0.00470123
0
-0.00615607
-0.00673535
-0.007242
-0.00766528
-0.00801564
-0.00830729
-0.00854982
-0.00875195
-0.00892153
-0.00907175
-0.00920061
-0.0093099
-0.00940281
-0.00948239
-0.00955146
-0.00961169
-0.00966423
-0.00971029
-0.00975024
-0.00978455
-0.00981388
-0.00983942
-0.00986145
-0.00986726
-0.0166951
-0.00989064
-0.00990862
-0.00991871
-0.00993232
-0.00995697
-0.00999349
-0.0100156
-0.0100243
-0.0100264
-0.0100275
-0.0100262
-0.0100128
-0.00991918
-0.0100013
-0.0100108
-0.0100106
-0.0100086
-0.0100028
-0.00998584
-0.00994968
-0.00992965
-0.00991684
-0.0099038
-0.00988937
-0.00988424
-0.00978078
-0.00927572
0
0
0.00705471
0.00156216
-0.000698444
-0.00168461
-0.00276894
-0.00398435
-0.00437821
-0.00530683
-0.00613193
-0.0067436
-0.00724618
-0.00766696
-0.00801872
-0.00831952
-0.00857217
-0.00878683
-0.0089702
-0.00912848
-0.00926512
-0.0093831
-0.00948547
-0.00957256
-0.00964895
-0.00971602
-0.00977434
-0.00982658
-0.00987168
-0.00990976
-0.00994125
-0.00996924
-0.0100054
-0.0100301
-0.0100727
-0.0100592
-0.0100674
-0.0100795
-0.0100947
-0.010114
-0.0101357
-0.0101524
-0.0101625
-0.0101681
-0.0101696
-0.0101686
-0.0101608
-0.0101414
-0.0101566
-0.0101636
-0.0101679
-0.010174
-0.0101818
-0.0101727
-0.0100785
-0.0100665
-0.0100679
-0.0100634
-0.0100486
-0.0134565
-0.00995546
-0.00944464
0
0
0.00566071
2.65521e-05
-0.00200209
-0.00270732
-0.0035062
-0.00432197
-0.00496589
-0.00566448
-0.00631436
-0.00686833
-0.00734122
-0.00774656
-0.0080855
-0.00838831
-0.00864081
-0.0088602
-0.00904989
-0.00921451
-0.00935713
-0.00948131
-0.00959364
-0.00968303
-0.00976516
-0.00983844
-0.00982658
-0.00996027
-0.0100094
-0.0100502
-0.0100792
-0.0100966
-0.0101727
-0.0101892
-0.0102084
-0.0102179
-0.0102302
-0.0102443
-0.0102602
-0.010277
-0.0102934
-0.0103072
-0.0103171
-0.0103235
-0.0103267
-0.0103274
-0.0103249
-0.0103207
-0.010324
-0.0103281
-0.0103353
-0.0103545
-0.0104033
-0.0104759
-0.0101123
-0.0101824
-0.0102261
-0.0102381
-0.0102379
-0.0102455
-0.0101499
-0.0096272
0
0
0.00453302
-0.00125079
-0.00313629
-0.00365043
-0.00424883
-0.00487322
-0.00546321
-0.00604365
-0.00658836
-0.00707746
-0.0075092
-0.00788713
-0.00821368
-0.00850065
-0.00874727
-0.00896894
-0.00916167
-0.00932866
-0.00947346
-0.00959797
-0.0108612
-0.0098076
-0.00989672
-0.00997447
-0.0100431
-0.0101064
-0.0101619
-0.0102073
-0.0102282
-0.0101527
-0.010421
-0.0103595
-0.0103677
-0.0103823
-0.0103977
-0.0104128
-0.0104308
-0.0104465
-0.010461
-0.0104733
-0.0104827
-0.0104894
-0.0104935
-0.0104954
-0.0104955
-0.0104946
-0.0104952
-0.0104966
-0.0105019
-0.0105278
-0.010658
-0.0113442
-0.00959599
-0.0102799
-0.0104057
-0.0104259
-0.0104251
-0.010422
-0.0103361
-0.00981327
0
0
0.00359095
-0.00234009
-0.00413536
-0.00451992
-0.00497599
-0.00546962
-0.00596589
-0.00645367
-0.00691783
-0.00734649
-0.00773474
-0.00808191
-0.00838846
-0.00865493
-0.00887814
-0.00910836
-0.00930239
-0.00946878
-0.00961387
-0.00974137
-0.00986058
-0.00995529
-0.010044
-0.0101244
-0.0101976
-0.0102658
-0.0103301
-0.0103927
-0.0104616
-0.0105887
-0.010265
-0.0104793
-0.0105292
-0.0105519
-0.0105704
-0.0105886
-0.0106027
-0.0106223
-0.0106359
-0.0106476
-0.0106567
-0.0106631
-0.0106674
-0.0106699
-0.0106709
-0.0106707
-0.0106696
-0.0106662
-0.0106565
-0.0106234
-0.0104835
-0.0097848
-0.011518
-0.0108171
-0.010673
-0.0106344
-0.0106186
-0.0106093
-0.0105231
-0.0100004
0
0
0.00278309
-0.00328923
-0.00502538
-0.00725321
-0.00567201
-0.00606823
-0.00647835
-0.00688783
-0.00728423
-0.00765823
-0.00800405
-0.00831989
-0.00860451
-0.00884944
-0.00898574
-0.00928105
-0.00947245
-0.00963305
-0.00977498
-0.00990184
-0.0100131
-0.0101131
-0.0102032
-0.0102853
-0.0103616
-0.0104348
-0.0105079
-0.010584
-0.0106649
-0.0107533
0
-0.0107418
-0.0107196
-0.0107301
-0.0107475
-0.0107667
-0.010786
-0.010801
-0.0108171
-0.010829
-0.0108374
-0.0108432
-0.0108471
-0.0108495
-0.0108507
-0.0108507
-0.010849
-0.0108442
-0.0108328
-0.0108069
-0.0107483
-0.0106628
-0.0110111
-0.0109234
-0.0108603
-0.010828
-0.0108099
-0.0107982
-0.0107101
-0.0101871
0
0
0.00207499
-0.00413274
-0.00583356
-0.00605914
-0.00633813
-0.00665607
-0.0069935
-0.0073367
-0.00767483
-0.00800032
-0.00830567
-0.00859154
-0.00886192
-0.00914485
0
-0.00954999
-0.00967526
-0.00981878
-0.00995416
-0.010076
-0.0101853
-0.0102839
-0.0103733
-0.0104555
-0.0105332
-0.0106102
-0.0106929
-0.010789
-0.0108967
-0.0108912
-0.0107748
-0.0108643
-0.0108877
-0.0109065
-0.0109269
-0.0109485
-0.0109701
-0.0109899
-0.0110067
-0.011018
-0.0110248
-0.0110287
-0.0110314
-0.0110333
-0.0110344
-0.0110346
-0.0110333
-0.0110292
-0.0110204
-0.0110088
-0.0109912
-0.0109871
-0.0110651
-0.0110584
-0.0110354
-0.0110152
-0.0109991
-0.0109862
-0.0108959
-0.0103719
0
0
0.00144327
-0.00489357
-0.00657123
-0.00674568
-0.00696949
-0.00722716
-0.00750485
-0.00779226
-0.00807976
-0.00849431
-0.00862899
-0.00888206
-0.0091161
-0.00932078
-0.00942555
-0.00969648
-0.00986936
-0.0100166
-0.01015
-0.0102653
-0.0103705
-0.0104662
-0.0105532
-0.0106334
-0.0107095
-0.010787
-0.0108782
-0.0110114
-0.0113008
-0.0111736
-0.0110597
-0.0110512
-0.0110647
-0.0110852
-0.0111088
-0.0111342
-0.0111602
-0.0111864
-0.0112071
-0.0112167
-0.0112193
-0.0112196
-0.0112198
-0.0112204
-0.0112213
-0.0112219
-0.0112216
-0.0112191
-0.0112078
-0.0112102
-0.0112061
-0.0112089
-0.011228
-0.0112281
-0.0112176
-0.0112034
-0.0111882
-0.0111734
-0.0110793
-0.010553
0
0
0.000871117
-0.00558929
-0.00725321
-0.00739086
-0.00757106
-0.00778072
-0.00800805
-0.00824893
-0.00849431
-0.00873742
-0.00897082
-0.00919317
-0.00940053
-0.00958801
-0.00974975
-0.00993252
-0.0100903
-0.0102307
-0.0103685
-0.0104674
-0.0105672
-0.0106588
-0.010742
-0.0108178
-0.0108882
-0.0109575
-0.0110388
-0.00970423
-0.0123249
-0.011543
-0.0112572
-0.0112233
-0.011239
-0.0112643
-0.0112921
-0.011323
-0.0113586
-0.0113958
-0.0114274
-0.0114303
-0.0114221
-0.0114147
-0.0114108
-0.0114098
-0.0114104
-0.0114118
-0.0114135
-0.0114176
-0.009755
-0.0114156
-0.0114106
-0.0114114
-0.0114161
-0.0114152
-0.0114084
-0.0113963
-0.011378
-0.0113598
-0.0112593
-0.0107274
0
0
0.000346152
-0.00623253
-0.00789006
-0.00799982
-0.00814705
-0.00831928
-0.00849847
-0.00870161
-0.00891189
-0.00912118
-0.00932475
-0.00952006
-0.00970456
-0.00987614
-0.0100348
-0.0101887
-0.0103286
-0.0104499
-0.0151005
-0.0106712
-0.0107734
-0.0108612
-0.0109394
-0.0110092
-0.0110703
-0.0111205
-0.011149
-0.0111115
-0.0100451
-0.0108986
-0.01125
-0.0113553
-0.0114071
-0.0114439
-0.0114754
-0.0115125
-0.0115604
-0.0116246
-0.011696
-0.0116708
-0.0116342
-0.0116123
-0.0116028
-0.0116002
-0.0116007
-0.0116028
-0.0116048
-0.0116056
-0.0115995
-0.0116087
-0.0116096
-0.0116105
-0.0116119
-0.0116116
-0.0116081
-0.0115978
-0.01157
-0.011547
-0.0114353
-0.0108889
0
0
-0.000141515
-0.00683043
-0.00849014
-0.00857885
-0.00870339
-0.00885566
-0.00896274
-0.00914567
-0.00933026
-0.0095112
-0.00968761
-0.00985831
-0.0100215
-0.0101758
-0.0103207
-0.0104574
-0.0105844
-0.0107027
-0.0108228
-0.0109068
-0.0109938
-0.011074
-0.0111461
-0.0112097
-0.0112636
-0.0113034
-0.0113172
-0.0112721
-0.0110766
-0.0112745
-0.0114387
-0.0115313
-0.0115894
-0.0116306
-0.0116554
-0.0116967
-0.0117594
-0.0118756
-0.0121176
-0.0119598
-0.01185
-0.0118061
-0.0117922
-0.0117898
-0.011791
-0.0117951
-0.0117985
-0.0118012
-0.0118035
-0.0118108
-0.0118095
-0.0118102
-0.011812
-0.0118142
-0.0118184
-0.0118217
-0.0117551
-0.0117385
-0.0116104
-0.0110224
0
0
-0.000603983
-0.00125079
-0.00906381
-0.00913078
-0.00924186
-0.00945583
-0.00933331
-0.00958107
-0.0097505
-0.00990562
-0.0100564
-0.0102044
-0.0103476
-0.0104848
-0.0106142
-0.0107358
-0.0108496
-0.0109558
-0.0110553
-0.0111416
-0.0112218
-0.0112953
-0.0113616
-0.01142
-0.0114695
-0.0115073
-0.0115281
-0.0115293
-0.0115129
-0.0115814
-0.0116642
-0.0117318
-0.0117877
-0.0118371
-0.0118183
-0.0118641
-0.0119241
-0.0120627
-0.0131421
-0.0122966
-0.0120331
-0.0119816
-0.0119746
-0.0119781
-0.011791
-0.0119891
-0.0119935
-0.0119974
-0.0120028
-0.0120256
-0.0120094
-0.0120103
-0.0120133
-0.0120183
-0.0120367
-0.0121346
-0.0118731
-0.0119514
-0.011809
-0.0110855
0
0
-0.00102965
-0.00794045
-0.00960097
-0.00964852
-0.00969625
-0.00966878
-0.010054
-0.0100766
-0.0101821
-0.0103039
-0.0104278
-0.0105554
-0.01068
-0.0108022
-0.0109161
-0.0110227
-0.0111231
-0.0112173
-0.0113045
-0.011384
-0.0114573
-0.0115243
-0.011585
-0.0116389
-0.0116854
-0.0117236
-0.011753
-0.0117733
-0.0118132
-0.0118377
-0.0118878
-0.0119386
-0.0119971
-0.0121292
-0.0118996
-0.0120143
-0.0120236
-0.0119293
-0.0108846
-0.01176
-0.012048
-0.0121224
-0.0121495
-0.0121641
-0.0121739
-0.0121835
-0.0121899
-0.0121928
-0.012187
-0.0172964
-0.012195
-0.0122093
-0.0122143
-0.0122131
-0.0121956
-0.0120987
-0.012361
-0.0122837
-0.0122583
-0.0119397
0
0
-0.00144077
-0.00846559
-0.0101262
-0.0101694
-0.010205
-0.0101707
-0.0104102
-0.0105066
-0.0106008
-0.0107005
-0.0107934
-0.0109084
-0.0110146
-0.0111291
-0.0112265
-0.011317
-0.0114038
-0.0114871
-0.0115627
-0.0116336
-0.0116994
-0.01176
-0.0118152
-0.0118647
-0.0119084
-0.0119456
-0.0119755
-0.0119931
-0.0178082
-0.012056
-0.0121026
-0.0121363
-0.0121483
-0.0120728
-0.0123439
-0.0122482
-0.0122085
-0.0121254
-0.0119148
-0.0121006
-0.0122363
-0.0123019
-0.012335
-0.0123543
-0.0123682
-0.0123816
-0.0123901
-0.0123958
-0.0124023
-0.0124256
-0.0124114
-0.0124169
-0.0124214
-0.0124221
-0.0124166
-0.012413
-0.0124803
-0.0124976
-0.0124567
-0.0120067
0
0
-0.00183576
-0.00896882
-0.0106333
-0.0144167
-0.0107692
0
-0.010918
-0.0109466
-0.0110172
-0.0111037
-0.007242
-0.0112674
-0.0113383
-0.0114777
-0.0115474
-0.0116167
-0.0116895
-0.011767
-0.0118268
-0.0118888
-0.0119473
-0.0120013
-0.0120509
-0.0120961
-0.0121367
-0.0121729
-0.0122055
-0.0122374
-0.0122859
-0.0122963
-0.0123235
-0.0123493
-0.0123673
-0.0123769
-0.0124435
-0.0124375
-0.0124207
-0.0123882
-0.0123467
-0.0123991
-0.0124601
-0.0125032
-0.0125307
-0.0125481
-0.0125623
-0.0125855
-0.0125941
-0.0125989
-0.0126032
-0.0126088
-0.01261
-0.012627
-0.0126337
-0.0126364
-0.0126285
-0.0126385
-0.0126678
-0.0126919
-0.0126347
-0.012144
0
0
-0.00221715
-0.00945773
-0.0111304
-0.0111561
-0.0111743
-0.0111235
-0.0112813
-0.0113558
-0.0114219
-0.011488
-0.0115432
-0.0116059
-0.0115777
-0.0119241
-0.0118717
-0.0119164
-0.0119725
-0.0144868
-0.0120901
-0.012148
-0.0121997
-0.0122472
-0.012291
-0.0123316
-0.0123687
-0.0124027
-0.012434
-0.0124644
-0.0124957
-0.0125188
-0.0125429
-0.0125658
-0.0125859
-0.0126047
-0.012631
-0.0126393
-0.0126385
-0.0126323
-0.0126296
-0.0126531
-0.0126848
-0.0127124
-0.0127324
-0.0127416
-0.0127437
-0.0128072
-0.0128048
-0.0128041
-0.012804
-0.0127986
-0.0127916
-0.0128523
-0.0128547
-0.0128651
-0.0128181
-0.0128396
-0.0128635
-0.0128836
-0.0128154
-0.0123105
0
0
-0.00258731
-0.00993484
-0.0116135
-0.0116241
-0.0116409
-0.0116567
-0.0117188
-0.0117743
-0.0118276
-0.011882
-0.0119395
-0.0120165
-0.0121694
-0.0175822
-0.0121252
-0.0122076
-0.0122672
-0.0123264
-0.012368
-0.0124131
-0.0124563
-0.0124967
-0.0125342
-0.0125703
-0.0126036
-0.0126344
-0.0126632
-0.0126905
-0.0127163
-0.0127398
-0.0127621
-0.012783
-0.0128023
-0.0128203
-0.0128377
-0.012849
-0.0128559
-0.0128609
-0.0128685
-0.0128846
-0.0129049
-0.0129243
-0.0129377
-0.0129339
-0.0128457
-0.013113
-0.013022
-0.0130115
-0.0130101
-0.0129836
-0.0128884
-0.0131562
-0.0130826
-0.0131712
-0.012922
-0.0130312
-0.0130617
-0.0130771
-0.0130022
-0.0124913
0
0
-0.00294879
-0.0104041
-0.0120901
-0.0120927
-0.0121052
-0.0121244
-0.0121576
-0.0121942
-0.0122326
-0.0122735
-0.0123174
-0.012368
-0.0124246
-0.0124304
-0.0124689
-0.0125173
-0.0125624
-0.0126053
-0.0126433
-0.0126803
-0.0127157
-0.0127487
-0.0127784
-0.0128112
-0.0128407
-0.0128679
-0.0128933
-0.012918
-0.0129391
-0.0129614
-0.0129817
-0.0130007
-0.0130184
-0.0130349
-0.0130498
-0.0130614
-0.0130719
-0.0130813
-0.013092
-0.0131057
-0.0131217
-0.0131387
-0.0131583
-0.0131922
-0.0133067
-0.0130632
-0.0131779
-0.013215
-0.0132424
-0.0132169
-0.0133322
-0.013092
-0.0131838
-0.0131108
-0.0133759
-0.013284
-0.0132719
-0.0132726
-0.013194
-0.0126805
0
0
-0.0033038
-0.0108683
-0.0125623
-0.0125581
-0.0125633
-0.0125744
-0.0125915
-0.0126121
-0.0126355
-0.0126613
-0.0126905
-0.0127213
-0.0127512
-0.0127709
-0.0127974
-0.0128283
-0.0128595
-0.0128905
-0.0129202
-0.0129492
-0.0129774
-0.0130032
-0.0130169
-0.0130545
-0.0130799
-0.0131028
-0.0131242
-0.0131427
-0.0131662
-0.0131844
-0.0132022
-0.0132191
-0.0132351
-0.0132499
-0.0132638
-0.0132767
-0.0132874
-0.013298
-0.0133093
-0.0133218
-0.0133353
-0.0133496
-0.0133668
-0.0133876
-0.0134112
-0.0133706
-0.0133963
-0.0134335
-0.0135482
-0.0133084
-0.0134083
-0.0134022
-0.0134139
-0.013417
-0.0134786
-0.013475
-0.0134721
-0.0134565
-0.0133898
-0.0128754
0
0
-0.0036543
-0.01133
-0.0130322
-0.0130211
-0.0130179
-0.0130185
-0.0130217
-0.0130268
-0.0130358
-0.0130476
-0.0130637
-0.0130785
-0.0130925
-0.0131052
-0.0131204
-0.0131381
-0.0131573
-0.0131774
-0.013198
-0.0132192
-0.0132416
-0.0132687
-0.00997447
-0.0133086
-0.0133216
-0.0133391
-0.0133576
-0.012918
-0.0133924
-0.0134078
-0.0134233
-0.0134382
-0.0134524
-0.0134658
-0.0134786
-0.0134906
-0.0135017
-0.0135127
-0.0135239
-0.0135355
-0.0135469
-0.0135571
-0.0135732
-0.0135876
-0.0135981
-0.0135946
-0.0135995
-0.0135911
-0.0135024
-0.0137737
-0.00985789
-0.0148964
-0.0136379
-0.0136449
-0.0136643
-0.0136728
-0.0136857
-0.00949317
-0.0136022
-0.0130757
0
0
-0.00400212
-0.0117917
-0.0135019
-0.0134837
-0.0134714
-0.0134606
-0.0134496
-0.0134364
-0.0134322
-0.0134294
-0.0134394
-0.0134386
-0.0134371
-0.0134376
-0.0134409
-0.0134465
-0.0134539
-0.0134636
-0.0134753
-0.0134883
-0.0135021
-0.0135152
-0.0135173
-0.013543
-0.0135597
-0.0135746
-0.0135889
-0.0136016
-0.0136174
-0.0136313
-0.0136447
-0.0136576
-0.0136702
-0.0136822
-0.0136938
-0.013705
-0.0137158
-0.0137265
-0.0137375
-0.0137486
-0.0137584
-0.013756
-0.0137815
-0.0137939
-0.0138024
-0.0138068
-0.013811
-0.0138113
-0.0138073
-0.0138633
-0.0138379
-0.0138544
-0.0138522
-0.0138565
-0.0138647
-0.0138702
-0.0138721
-0.0138565
-0.013787
-0.0132711
0
0
-0.00434907
-0.012256
-0.013974
-0.0139482
-0.0139262
-0.0139041
-0.0138784
-0.013832
-0.013824
-0.013795
-0.0138297
-0.0138023
-0.0137815
-0.0137681
-0.0137595
-0.0137535
-0.0137481
-0.0137479
-0.0137512
-0.0137568
-0.0137638
-0.0137698
-0.0137756
-0.0137889
-0.0137994
-0.0138107
-0.0138215
-0.0138323
-0.0138439
-0.0138553
-0.0138665
-0.0138775
-0.0138883
-0.0138989
-0.0139093
-0.0139195
-0.0139296
-0.0139399
-0.0139506
-0.0139628
-0.0139806
-0.0104894
-0.014002
-0.0140048
-0.0140118
-0.0140182
-0.014024
-0.0140289
-0.014035
-0.0140512
-0.0140521
-0.0140576
-0.0140603
-0.014064
-0.0140687
-0.0140726
-0.0140749
-0.0140736
-0.0139879
-0.0134706
0
0
-0.00469707
-0.0127258
-0.0144509
-0.0144167
-0.0143845
-0.0143522
-0.0143258
-0.00892023
-0.0142275
-0.0140789
-0.0143006
-0.0141676
-0.0141213
-0.0140952
-0.0140768
-0.0140608
-0.0140364
-0.0140279
-0.0140243
-0.014024
-0.0140264
-0.0140257
-0.0140277
-0.0140328
-0.0140382
-0.0140472
-0.014054
-0.014062
-0.0140705
-0.0140793
-0.0140883
-0.0140974
-0.0141065
-0.0141156
-0.0141248
-0.014134
-0.0141433
-0.0141528
-0.0141625
-0.0141725
-0.0141811
-0.0141774
-0.0142018
-0.0142134
-0.0142225
-0.0142305
-0.0142374
-0.0142437
-0.01425
-0.0142575
-0.0142613
-0.0142649
-0.0142678
-0.0142709
-0.0142741
-0.0142769
-0.0142787
-0.0142806
-0.0141912
-0.0136726
0
0
-0.00504822
-0.0132042
-0.0149356
-0.0148916
-0.0148465
-0.0147978
-0.0147443
-0.0146736
-0.0146611
-0.0147138
-0.0144075
-0.0144648
-0.014445
-0.0144165
-0.0143943
-0.0143801
-0.0143056
-0.0143009
-0.014293
-0.0142885
-0.014294
-0.0142791
-0.0142759
-0.0142762
-0.0142786
-0.0142802
-0.0142855
-0.0142909
-0.0142968
-0.0143032
-0.0143101
-0.0143172
-0.0143246
-0.0143323
-0.0143402
-0.0143483
-0.0143567
-0.0143654
-0.0143744
-0.0143836
-0.0143925
-0.0144001
-0.0144135
-0.0144251
-0.0144354
-0.0144445
-0.0144523
-0.0144587
-0.0144641
-0.0144687
-0.0144716
-0.014474
-0.014476
-0.0144782
-0.0144805
-0.0144827
-0.0144847
-0.0144865
-0.0143955
-0.0138761
0
0
-0.00540495
-0.0136951
-0.0154316
-0.0153755
-0.0153157
-0.0152499
-0.0151791
-0.0151058
-0.0150455
-0.0149888
-0.0148705
-0.0148214
-0.014775
-0.0147333
-0.0147115
-0.014778
-0.0144868
-0.0145628
-0.0145628
-0.0145434
-0.0178638