# vtk DataFile Version 2.0
FlowField
ASCII
DATASET STRUCTURED_GRID
DIMENSIONS 62 47 32 
POINTS 93248 double
0 0 0
0.01 0 0
0.02 0 0
0.03 0 0
0.04 0 0
0.05 0 0
0.06 0 0
0.07 0 0
0.08 0 0
0.09 0 0
0.1 0 0
0.11 0 0
0.12 0 0
0.13 0 0
0.14 0 0
0.15 0 0
0.16 0 0
0.17 0 0
0.18 0 0
0.19 0 0
0.2 0 0
0.21 0 0
0.22 0 0
0.23 0 0
0.24 0 0
0.25 0 0
0.26 0 0
0.27 0 0
0.28 0 0
0.29 0 0
0.3 0 0
0.31 0 0
0.32 0 0
0.33 0 0
0.34 0 0
0.35 0 0
0.36 0 0
0.37 0 0
0.38 0 0
0.39 0 0
0.4 0 0
0.41 0 0
0.42 0 0
0.43 0 0
0.44 0 0
0.45 0 0
0.46 0 0
0.47 0 0
0.48 0 0
0.49 0 0
0.5 0 0
0.51 0 0
0.52 0 0
0.53 0 0
0.54 0 0
0.55 0 0
0.56 0 0
0.57 0 0
0.58 0 0
0.59 0 0
0.6 0 0
0.61 0 0
0 0.01 0
0.01 0.01 0
0.02 0.01 0
0.03 0.01 0
0.04 0.01 0
0.05 0.01 0
0.06 0.01 0
0.07 0.01 0
0.08 0.01 0
0.09 0.01 0
0.1 0.01 0
0.11 0.01 0
0.12 0.01 0
0.13 0.01 0
0.14 0.01 0
0.15 0.01 0
0.16 0.01 0
0.17 0.01 0
0.18 0.01 0
0.19 0.01 0
0.2 0.01 0
0.21 0.01 0
0.22 0.01 0
0.23 0.01 0
0.24 0.01 0
0.25 0.01 0
0.26 0.01 0
0.27 0.01 0
0.28 0.01 0
0.29 0.01 0
0.3 0.01 0
0.31 0.01 0
0.32 0.01 0
0.33 0.01 0
0.34 0.01 0
0.35 0.01 0
0.36 0.01 0
0.37 0.01 0
0.38 0.01 0
0.39 0.01 0
0.4 0.01 0
0.41 0.01 0
0.42 0.01 0
0.43 0.01 0
0.44 0.01 0
0.45 0.01 0
0.46 0.01 0
0.47 0.01 0
0.48 0.01 0
0.49 0.01 0
0.5 0.01 0
0.51 0.01 0
0.52 0.01 0
0.53 0.01 0
0.54 0.01 0
0.55 0.01 0
0.56 0.01 0
0.57 0.01 0
0.58 0.01 0
0.59 0.01 0
0.6 0.01 0
0.61 0.01 0
0 0.02 0
0.01 0.02 0
0.02 0.02 0
0.03 0.02 0
0.04 0.02 0
0.05 0.02 0
0.06 0.02 0
0.07 0.02 0
0.08 0.02 0
0.09 0.02 0
0.1 0.02 0
0.11 0.02 0
0.12 0.02 0
0.13 0.02 0
0.14 0.02 0
0.15 0.02 0
0.16 0.02 0
0.17 0.02 0
0.18 0.02 0
0.19 0.02 0
0.2 0.02 0
0.21 0.02 0
0.22 0.02 0
0.23 0.02 0
0.24 0.02 0
0.25 0.02 0
0.26 0.02 0
0.27 0.02 0
0.28 0.02 0
0.29 0.02 0
0.3 0.02 0
0.31 0.02 0
0.32 0.02 0
0.33 0.02 0
0.34 0.02 0
0.35 0.02 0
0.36 0.02 0
0.37 0.02 0
0.38 0.02 0
0.39 0.02 0
0.4 0.02 0
0.41 0.02 0
0.42 0.02 0
0.43 0.02 0
0.44 0.02 0
0.45 0.02 0
0.46 0.02 0
0.47 0.02 0
0.48 0.02 0
0.49 0.02 0
0.5 0.02 0
0.51 0.02 0
0.52 0.02 0
0.53 0.02 0
0.54 0.02 0
0.55 0.02 0
0.56 0.02 0
0.57 0.02 0
0.58 0.02 0
0.59 0.02 0
0.6 0.02 0
0.61 0.02 0
0 0.03 0
0.01 0.03 0
0.02 0.03 0
0.03 0.03 0
0.04 0.03 0
0.05 0.03 0
0.06 0.03 0
0.07 0.03 0
0.08 0.03 0
0.09 0.03 0
0.1 0.03 0
0.11 0.03 0
0.12 0.03 0
0.13 0.03 0
0.14 0.03 0
0.15 0.03 0
0.16 0.03 0
0.17 0.03 0
0.18 0.03 0
0.19 0.03 0
0.2 0.03 0
0.21 0.03 0
0.22 0.03 0
0.23 0.03 0
0.24 0.03 0
0.25 0.03 0
0.26 0.03 0
0.27 0.03 0
0.28 0.03 0
0.29 0.03 0
0.3 0.03 0
0.31 0.03 0
0.32 0.03 0
0.33 0.03 0
0.34 0.03 0
0.35 0.03 0
0.36 0.03 0
0.37 0.03 0
0.38 0.03 0
0.39 0.03 0
0.4 0.03 0
0.41 0.03 0
0.42 0.03 0
0.43 0.03 0
0.44 0.03 0
0.45 0.03 0
0.46 0.03 0
0.47 0.03 0
0.48 0.03 0
0.49 0.03 0
0.5 0.03 0
0.51 0.03 0
0.52 0.03 0
0.53 0.03 0
0.54 0.03 0
0.55 0.03 0
0.56 0.03 0
0.57 0.03 0
0.58 0.03 0
0.59 0.03 0
0.6 0.03 0
0.61 0.03 0
0 0.04 0
0.01 0.04 0
0.02 0.04 0
0.03 0.04 0
0.04 0.04 0
0.05 0.04 0
0.06 0.04 0
0.07 0.04 0
0.08 0.04 0
0.09 0.04 0
0.1 0.04 0
0.11 0.04 0
0.12 0.04 0
0.13 0.04 0
0.14 0.04 0
0.15 0.04 0
0.16 0.04 0
0.17 0.04 0
0.18 0.04 0
0.19 0.04 0
0.2 0.04 0
0.21 0.04 0
0.22 0.04 0
0.23 0.04 0
0.24 0.04 0
0.25 0.04 0
0.26 0.04 0
0.27 0.04 0
0.28 0.04 0
0.29 0.04 0
0.3 0.04 0
0.31 0.04 0
0.32 0.04 0
0.33 0.04 0
0.34 0.04 0
0.35 0.04 0
0.36 0.04 0
0.37 0.04 0
0.38 0.04 0
0.39 0.04 0
0.4 0.04 0
0.41 0.04 0
0.42 0.04 0
0.43 0.04 0
0.44 0.04 0
0.45 0.04 0
0.46 0.04 0
0.47 0.04 0
0.48 0.04 0
0.49 0.04 0
0.5 0.04 0
0.51 0.04 0
0.52 0.04 0
0.53 0.04 0
0.54 0.04 0
0.55 0.04 0
0.56 0.04 0
0.57 0.04 0
0.58 0.04 0
0.59 0.04 0
0.6 0.04 0
0.61 0.04 0
0 0.05 0
0.01 0.05 0
0.02 0.05 0
0.03 0.05 0
0.04 0.05 0
0.05 0.05 0
0.06 0.05 0
0.07 0.05 0
0.08 0.05 0
0.09 0.05 0
0.1 0.05 0
0.11 0.05 0
0.12 0.05 0
0.13 0.05 0
0.14 0.05 0
0.15 0.05 0
0.16 0.05 0
0.17 0.05 0
0.18 0.05 0
0.19 0.05 0
0.2 0.05 0
0.21 0.05 0
0.22 0.05 0
0.23 0.05 0
0.24 0.05 0
0.25 0.05 0
0.26 0.05 0
0.27 0.05 0
0.28 0.05 0
0.29 0.05 0
0.3 0.05 0
0.31 0.05 0
0.32 0.05 0
0.33 0.05 0
0.34 0.05 0
0.35 0.05 0
0.36 0.05 0
0.37 0.05 0
0.38 0.05 0
0.39 0.05 0
0.4 0.05 0
0.41 0.05 0
0.42 0.05 0
0.43 0.05 0
0.44 0.05 0
0.45 0.05 0
0.46 0.05 0
0.47 0.05 0
0.48 0.05 0
0.49 0.05 0
0.5 0.05 0
0.51 0.05 0
0.52 0.05 0
0.53 0.05 0
0.54 0.05 0
0.55 0.05 0
0.56 0.05 0
0.57 0.05 0
0.58 0.05 0
0.59 0.05 0
0.6 0.05 0
0.61 0.05 0
0 0.06 0
0.01 0.06 0
0.02 0.06 0
0.03 0.06 0
0.04 0.06 0
0.05 0.06 0
0.06 0.06 0
0.07 0.06 0
0.08 0.06 0
0.09 0.06 0
0.1 0.06 0
0.11 0.06 0
0.12 0.06 0
0.13 0.06 0
0.14 0.06 0
0.15 0.06 0
0.16 0.06 0
0.17 0.06 0
0.18 0.06 0
0.19 0.06 0
0.2 0.06 0
0.21 0.06 0
0.22 0.06 0
0.23 0.06 0
0.24 0.06 0
0.25 0.06 0
0.26 0.06 0
0.27 0.06 0
0.28 0.06 0
0.29 0.06 0
0.3 0.06 0
0.31 0.06 0
0.32 0.06 0
0.33 0.06 0
0.34 0.06 0
0.35 0.06 0
0.36 0.06 0
0.37 0.06 0
0.38 0.06 0
0.39 0.06 0
0.4 0.06 0
0.41 0.06 0
0.42 0.06 0
0.43 0.06 0
0.44 0.06 0
0.45 0.06 0
0.46 0.06 0
0.47 0.06 0
0.48 0.06 0
0.49 0.06 0
0.5 0.06 0
0.51 0.06 0
0.52 0.06 0
0.53 0.06 0
0.54 0.06 0
0.55 0.06 0
0.56 0.06 0
0.57 0.06 0
0.58 0.06 0
0.59 0.06 0
0.6 0.06 0
0.61 0.06 0
0 0.07 0
0.01 0.07 0
0.02 0.07 0
0.03 0.07 0
0.04 0.07 0
0.05 0.07 0
0.06 0.07 0
0.07 0.07 0
0.08 0.07 0
0.09 0.07 0
0.1 0.07 0
0.11 0.07 0
0.12 0.07 0
0.13 0.07 0
0.14 0.07 0
0.15 0.07 0
0.16 0.07 0
0.17 0.07 0
0.18 0.07 0
0.19 0.07 0
0.2 0.07 0
0.21 0.07 0
0.22 0.07 0
0.23 0.07 0
0.24 0.07 0
0.25 0.07 0
0.26 0.07 0
0.27 0.07 0
0.28 0.07 0
0.29 0.07 0
0.3 0.07 0
0.31 0.07 0
0.32 0.07 0
0.33 0.07 0
0.34 0.07 0
0.35 0.07 0
0.36 0.07 0
0.37 0.07 0
0.38 0.07 0
0.39 0.07 0
0.4 0.07 0
0.41 0.07 0
0.42 0.07 0
0.43 0.07 0
0.44 0.07 0
0.45 0.07 0
0.46 0.07 0
0.47 0.07 0
0.48 0.07 0
0.49 0.07 0
0.5 0.07 0
0.51 0.07 0
0.52 0.07 0
0.53 0.07 0
0.54 0.07 0
0.55 0.07 0
0.56 0.07 0
0.57 0.07 0
0.58 0.07 0
0.59 0.07 0
0.6 0.07 0
0.61 0.07 0
0 0.08 0
0.01 0.08 0
0.02 0.08 0
0.03 0.08 0
0.04 0.08 0
0.05 0.08 0
0.06 0.08 0
0.07 0.08 0
0.08 0.08 0
0.09 0.08 0
0.1 0.08 0
0.11 0.08 0
0.12 0.08 0
0.13 0.08 0
0.14 0.08 0
0.15 0.08 0
0.16 0.08 0
0.17 0.08 0
0.18 0.08 0
0.19 0.08 0
0.2 0.08 0
0.21 0.08 0
0.22 0.08 0
0.23 0.08 0
0.24 0.08 0
0.25 0.08 0
0.26 0.08 0
0.27 0.08 0
0.28 0.08 0
0.29 0.08 0
0.3 0.08 0
0.31 0.08 0
0.32 0.08 0
0.33 0.08 0
0.34 0.08 0
0.35 0.08 0
0.36 0.08 0
0.37 0.08 0
0.38 0.08 0
0.39 0.08 0
0.4 0.08 0
0.41 0.08 0
0.42 0.08 0
0.43 0.08 0
0.44 0.08 0
0.45 0.08 0
0.46 0.08 0
0.47 0.08 0
0.48 0.08 0
0.49 0.08 0
0.5 0.08 0
0.51 0.08 0
0.52 0.08 0
0.53 0.08 0
0.54 0.08 0
0.55 0.08 0
0.56 0.08 0
0.57 0.08 0
0.58 0.08 0
0.59 0.08 0
0.6 0.08 0
0.61 0.08 0
0 0.09 0
0.01 0.09 0
0.02 0.09 0
0.03 0.09 0
0.04 0.09 0
0.05 0.09 0
0.06 0.09 0
0.07 0.09 0
0.08 0.09 0
0.09 0.09 0
0.1 0.09 0
0.11 0.09 0
0.12 0.09 0
0.13 0.09 0
0.14 0.09 0
0.15 0.09 0
0.16 0.09 0
0.17 0.09 0
0.18 0.09 0
0.19 0.09 0
0.2 0.09 0
0.21 0.09 0
0.22 0.09 0
0.23 0.09 0
0.24 0.09 0
0.25 0.09 0
0.26 0.09 0
0.27 0.09 0
0.28 0.09 0
0.29 0.09 0
0.3 0.09 0
0.31 0.09 0
0.32 0.09 0
0.33 0.09 0
0.34 0.09 0
0.35 0.09 0
0.36 0.09 0
0.37 0.09 0
0.38 0.09 0
0.39 0.09 0
0.4 0.09 0
0.41 0.09 0
0.42 0.09 0
0.43 0.09 0
0.44 0.09 0
0.45 0.09 0
0.46 0.09 0
0.47 0.09 0
0.48 0.09 0
0.49 0.09 0
0.5 0.09 0
0.51 0.09 0
0.52 0.09 0
0.53 0.09 0
0.54 0.09 0
0.55 0.09 0
0.56 0.09 0
0.57 0.09 0
0.58 0.09 0
0.59 0.09 0
0.6 0.09 0
0.61 0.09 0
0 0.1 0
0.01 0.1 0
0.02 0.1 0
0.03 0.1 0
0.04 0.1 0
0.05 0.1 0
0.06 0.1 0
0.07 0.1 0
0.08 0.1 0
0.09 0.1 0
0.1 0.1 0
0.11 0.1 0
0.12 0.1 0
0.13 0.1 0
0.14 0.1 0
0.15 0.1 0
0.16 0.1 0
0.17 0.1 0
0.18 0.1 0
0.19 0.1 0
0.2 0.1 0
0.21 0.1 0
0.22 0.1 0
0.23 0.1 0
0.24 0.1 0
0.25 0.1 0
0.26 0.1 0
0.27 0.1 0
0.28 0.1 0
0.29 0.1 0
0.3 0.1 0
0.31 0.1 0
0.32 0.1 0
0.33 0.1 0
0.34 0.1 0
0.35 0.1 0
0.36 0.1 0
0.37 0.1 0
0.38 0.1 0
0.39 0.1 0
0.4 0.1 0
0.41 0.1 0
0.42 0.1 0
0.43 0.1 0
0.44 0.1 0
0.45 0.1 0
0.46 0.1 0
0.47 0.1 0
0.48 0.1 0
0.49 0.1 0
0.5 0.1 0
0.51 0.1 0
0.52 0.1 0
0.53 0.1 0
0.54 0.1 0
0.55 0.1 0
0.56 0.1 0
0.57 0.1 0
0.58 0.1 0
0.59 0.1 0
0.6 0.1 0
0.61 0.1 0
0 0.11 0
0.01 0.11 0
0.02 0.11 0
0.03 0.11 0
0.04 0.11 0
0.05 0.11 0
0.06 0.11 0
0.07 0.11 0
0.08 0.11 0
0.09 0.11 0
0.1 0.11 0
0.11 0.11 0
0.12 0.11 0
0.13 0.11 0
0.14 0.11 0
0.15 0.11 0
0.16 0.11 0
0.17 0.11 0
0.18 0.11 0
0.19 0.11 0
0.2 0.11 0
0.21 0.11 0
0.22 0.11 0
0.23 0.11 0
0.24 0.11 0
0.25 0.11 0
0.26 0.11 0
0.27 0.11 0
0.28 0.11 0
0.29 0.11 0
0.3 0.11 0
0.31 0.11 0
0.32 0.11 0
0.33 0.11 0
0.34 0.11 0
0.35 0.11 0
0.36 0.11 0
0.37 0.11 0
0.38 0.11 0
0.39 0.11 0
0.4 0.11 0
0.41 0.11 0
0.42 0.11 0
0.43 0.11 0
0.44 0.11 0
0.45 0.11 0
0.46 0.11 0
0.47 0.11 0
0.48 0.11 0
0.49 0.11 0
0.5 0.11 0
0.51 0.11 0
0.52 0.11 0
0.53 0.11 0
0.54 0.11 0
0.55 0.11 0
0.56 0.11 0
0.57 0.11 0
0.58 0.11 0
0.59 0.11 0
0.6 0.11 0
0.61 0.11 0
0 0.12 0
0.01 0.12 0
0.02 0.12 0
0.03 0.12 0
0.04 0.12 0
0.05 0.12 0
0.06 0.12 0
0.07 0.12 0
0.08 0.12 0
0.09 0.12 0
0.1 0.12 0
0.11 0.12 0
0.12 0.12 0
0.13 0.12 0
0.14 0.12 0
0.15 0.12 0
0.16 0.12 0
0.17 0.12 0
0.18 0.12 0
0.19 0.12 0
0.2 0.12 0
0.21 0.12 0
0.22 0.12 0
0.23 0.12 0
0.24 0.12 0
0.25 0.12 0
0.26 0.12 0
0.27 0.12 0
0.28 0.12 0
0.29 0.12 0
0.3 0.12 0
0.31 0.12 0
0.32 0.12 0
0.33 0.12 0
0.34 0.12 0
0.35 0.12 0
0.36 0.12 0
0.37 0.12 0
0.38 0.12 0
0.39 0.12 0
0.4 0.12 0
0.41 0.12 0
0.42 0.12 0
0.43 0.12 0
0.44 0.12 0
0.45 0.12 0
0.46 0.12 0
0.47 0.12 0
0.48 0.12 0
0.49 0.12 0
0.5 0.12 0
0.51 0.12 0
0.52 0.12 0
0.53 0.12 0
0.54 0.12 0
0.55 0.12 0
0.56 0.12 0
0.57 0.12 0
0.58 0.12 0
0.59 0.12 0
0.6 0.12 0
0.61 0.12 0
0 0.13 0
0.01 0.13 0
0.02 0.13 0
0.03 0.13 0
0.04 0.13 0
0.05 0.13 0
0.06 0.13 0
0.07 0.13 0
0.08 0.13 0
0.09 0.13 0
0.1 0.13 0
0.11 0.13 0
0.12 0.13 0
0.13 0.13 0
0.14 0.13 0
0.15 0.13 0
0.16 0.13 0
0.17 0.13 0
0.18 0.13 0
0.19 0.13 0
0.2 0.13 0
0.21 0.13 0
0.22 0.13 0
0.23 0.13 0
0.24 0.13 0
0.25 0.13 0
0.26 0.13 0
0.27 0.13 0
0.28 0.13 0
0.29 0.13 0
0.3 0.13 0
0.31 0.13 0
0.32 0.13 0
0.33 0.13 0
0.34 0.13 0
0.35 0.13 0
0.36 0.13 0
0.37 0.13 0
0.38 0.13 0
0.39 0.13 0
0.4 0.13 0
0.41 0.13 0
0.42 0.13 0
0.43 0.13 0
0.44 0.13 0
0.45 0.13 0
0.46 0.13 0
0.47 0.13 0
0.48 0.13 0
[...]
POINT_DATA 93248

SCALARS u double
LOOKUP_TABLE default
0
0
0
0
0
0
0
0
0
0
0
0
0
0
0
0
0
0
0
0
0
0
0
0
0.298947
0
0
0
0
0
0
0
0.0546615
0.224751
0
0
0
0
0
0
0
0
0
0
0
0
0
0.0894085
0
0
0.0758674
0
0
0
0
0
0
0
0
0
0
0
0
0.419159
0.340856
0.267279
0.207845
0.164436
0.135432
0.118762
0.110027
0.105309
0.102192
0.0995383
0.0976881
0.0955609
0.0933543
0.091051
0.0888722
0.0865429
0.0840475
0.0805784
0.0803913
0.0786747
0.0760804
0.0736284
0.0712826
0.069013
0.0667815
0.0645598
0.0623282
0.0600682
0.0577589
0.0554211
0.0534152
0.0510225
0.0482555
0.0455624
0.0433173
0.0409864
0.0403525
0.166858
0.0312034
0.0311156
0.0305611
0.0299306
0.0299496
0.0193906
0.021241
0.0196636
0.0179422
0.0155347
0.0130928
0.0435137
0.00958574
0.00950604
-0.000814835
-0.00165115
0.0174999
-0.00510613
-0.00876077
-0.0145993
-0.0145993
0
0
0.493248
0.478938
0.455197
0.425025
0.395766
0.367483
0.342652
0.323174
0.308442
0.296961
0.287158
0.279713
0.272206
0.265126
0.258188
0.251793
0.245286
0.240002
0.342952
0.230002
0.222137
0.21413
0.207719
0.201404
0.195187
0.189029
0.182896
0.176765
0.170612
0.164394
0.158037
0.152359
0.146172
0.139427
0.132838
0.124914
0.115211
-0.0412893
0.101752
0.0986715
0.094473
0.0901295
0.0856799
0.0805176
0.0721883
0.0654815
0.0602153
0.0545686
0.0486156
0.0427693
0.037717
0.031531
0.0251536
0.0157681
0.00944584
0.00250372
-0.00341879
-0.0109009
-0.0188482
-0.0188482
0
0
0.487489
0.489526
0.490468
0.484767
0.481319
0.466351
0.449674
0.431596
0.414359
0.406096
0.386375
0.373828
0.363301
0.353631
0.344829
0.336382
0.326997
0.318558
0.309597
0.301042
0.293187
0.285009
0.276867
0.268718
0.26058
0.252462
0.244361
0.236269
0.228187
0.220144
0.212219
0.20352
0.196374
0.217758
0.180154
0.171228
0.163535
0.15891
0.149345
0.139858
0.131306
0.139599
0.116146
0.108655
0.13167
0.0913604
0.0824202
0.0545686
0.0663561
0.059076
0.0516638
0.0435137
0.034897
0.0255777
0.017093
0.00868151
-0.000679141
-0.00906425
-0.017295
-0.017295
0
0
0.480433
0.478452
0.485302
0.487443
0.488932
0.4848
0.475322
0.461856
0.446795
0.432212
0.418849
0.406209
0.394732
0.384078
0.374251
0.364248
0.355622
0.346226
0.341513
0.327153
0.318248
0.309462
0.300707
0.291942
0.283174
0.274413
0.26566
0.256915
0.248177
0.239447
0.230708
0.221739
0.213276
0.204398
0.196016
0.187769
0.180335
0.173981
0.164794
0.154658
0.144721
0.135268
0.126516
0.117774
0.108545
0.0993019
0.090622
0.0822993
0.0736103
0.0651065
0.0565897
0.0477782
0.0386722
0.0293671
0.0202451
0.011158
0.00180392
-0.00709239
-0.0157731
-0.0157731
0
0
0.477463
0.471355
0.471694
0.474138
0.47677
0.476071
0.470628
0.461009
0.448992
0.436433
0.424218
0.412479
0.401327
0.390624
0.381247
0.371328
0.362025
0.352617
0.343025
0.333635
0.324492
0.315489
0.306547
0.297629
0.288723
0.279827
0.27094
0.262058
0.253172
0.244266
0.235298
0.226238
0.217816
0.209019
0.200431
0.192111
0.184186
0.176413
0.167533
0.157913
0.148147
0.138562
0.129337
0.120286
0.111419
0.103435
0.0928689
0.0843315
0.0755475
0.0667579
0.0579536
0.0490234
0.0398985
0.0306695
0.0214855
0.0123632
0.00330137
-0.00552546
-0.0145574
-0.0145574
0
0
0.47616
0.466868
0.462943
0.462676
0.46397
0.463732
0.460223
0.453177
0.443484
0.4328
0.421971
0.411295
0.400877
0.390745
0.381227
0.372092
0.362508
0.353373
0.343817
0.334533
0.325433
0.316433
0.307484
0.298561
0.289655
0.280765
0.271887
0.263015
0.254135
0.245225
0.236221
0.226959
0.219038
0.210198
0.201437
0.192925
0.184579
0.176179
0.167331
0.158082
0.148659
0.139238
0.129895
0.120492
0.110907
0.103118
0.0940681
0.0850509
0.0760979
0.067225
0.0584113
0.0495531
0.0404632
0.0312829
0.0221558
0.0131419
0.0043875
-0.00341856
-0.00965538
-0.00965538
0
0
0.475506
0.464364
0.457829
0.455216
0.455036
0.467108
0.452048
0.445704
0.437351
0.427983
0.41829
0.408533
0.398813
0.389104
0.379532
0.370849
0.361253
0.352
0.342952
0.334033
0.325161
0.31628
0.307391
0.29851
0.289642
0.280792
0.271958
0.263134
0.254311
0.245494
0.23678
0.22837
0.218568
0.209866
0.201364
0.192866
0.184345
0.175712
0.166858
0.157793
0.148601
0.139918
0.130098
0.120815
0.111618
0.10312
0.0942354
0.085235
0.0762593
0.0673827
0.0586555
0.049988
0.0408636
0.0316763
0.022609
0.0136102
0.00446289
-0.0048734
-0.00686583
-0.00686583
0
0
0.47513
0.462894
0.454784
0.450542
0.448944
0.44755
0.44466
0.439164
0.431819
0.423478
0.414682
0.405666
0.396515
0.386981
0.37648
0.251793
0.357053
0.349412
0.341513
0.333172
0.324637
0.315904
0.307088
0.298255
0.288723
0.280637
0.27186
0.263101
0.254347
0.245562
0.236823
0.228117
0.218914
0.210068
0.201404
0.192788
0.184135
0.175394
0.166533
0.157553
0.148484
0.139358
0.13022
0.121087
0.112033
0.103187
0.0942611
0.0852604
0.0762444
0.0672944
0.0585715
0.0502442
0.0409275
0.0317834
0.0229379
0.0143208
0.00587073
-0.00337199
-0.0101939
-0.0101939
0
0
0.474895
0.461982
0.45289
0.447586
0.445014
0.442987
0.439668
0.434319
0.427415
0.419672
0.411505
0.403304
0.394433
0.38552
0.376564
0.368621
0.359492
0.350402
0.341578
0.332833
0.324261
0.315503
0.306697
0.297898
0.289155
0.2804
0.271683
0.26302
0.254393
0.245679
0.236866
0.228014
0.219069
0.210218
0.201455
0.192735
0.18399
0.175194
0.166334
0.157405
0.148415
0.139381
0.130328
0.121278
0.112263
0.103302
0.0943139
0.0852597
0.0761114
0.066841
0.05753
0.0496176
0.0400096
0.0313294
0.0229274
0.014552
0.00613714
-0.00257671
-0.0109774
-0.0109774
0
0
0.474742
0.461388
0.451638
0.445656
0.442396
0.439829
0.436127
0.430673
0.423915
0.416476
0.408681
0.400686
0.392439
0.384079
0.375621
0.367509
0.358834
0.349973
0.341185
0.332551
0.323646
0.314904
0.306183
0.297422
0.288846
0.280092
0.271433
0.262891
0.254532
0.25403
0.23708
0.228028
0.219123
0.210279
0.201454
0.191844
0.183849
0.175045
0.166207
0.157322
0.14839
0.139421
0.130426
0.121423
0.112426
0.103435
0.0944178
0.0853246
0.076057
0.0663824
0.055793
-0.00809528
0.0376655
0.0306504
0.0228804
0.0147077
0.00633284
-0.00223159
-0.0110019
-0.0110019
0
0
0.474642
0.460996
0.450756
0.444369
0.440576
0.437532
0.433476
0.427849
0.421102
0.413818
0.40627
0.398541
0.390659
0.382708
0.374275
0.366003
0.357586
0.34903
0.340395
0.327994
0.322976
0.314354
0.305697
0.297005
0.28834
0.279655
0.271044
0.262573
0.254283
0.246108
0.236458
0.227793
0.219103
0.210311
0.201476
0.192633
0.182747
0.174941
0.166137
0.157292
0.148404
0.139487
0.13053
0.121554
0.112573
0.103588
0.0945885
0.0855509
0.0764522
0.0673454
0.0584956
0.0505581
0.0408983
0.0320285
0.0235229
0.0150789
0.00659858
-0.00199086
-0.010868
-0.010868
0
0
0.474584
0.460784
0.450441
0.443333
0.439106
0.435727
0.431403
0.425617
0.418828
0.411619
0.404212
0.396661
0.389007
0.381472
0.372791
0.364661
0.356475
0.348132
0.339723
0.331273
0.322648
0.31398
0.305287
0.296565
0.287833
0.279111
0.270491
0.262069
0.253833
0.244871
0.237352
0.228506
0.21948
0.210479
0.201528
0.192633
0.183787
0.174954
0.166144
0.157317
0.148453
0.139599
0.130656
0.121691
0.112721
0.103756
0.0947974
0.0858426
0.0768916
0.0680971
0.0596048
0.0513667
0.0421479
0.0330127
0.0241673
0.0155026
0.00689541
-0.00176201
-0.0107037
-0.0107037
0
0
0.474538
0.460597
0.449977
0.442674
0.438136
0.434438
0.429849
0.423883
0.417004
0.409816
0.402465
0.394976
0.387283
0.379156
0.371985
0.363996
0.35575
0.347408
0.339115
0.330729
0.322185
0.313546
0.304842
0.296079
0.287259
0.278412
0.269685
0.261378
0.25439
0.245927
0.237508
0.228626
0.219571
0.210504
0.20149
0.192552
0.183687
0.174905
0.166163
0.157381
0.148489
0.139828
0.130818
0.121838
0.112871
0.103922
0.0950039
0.0861205
0.0771836
0.0684622
0.0599004
0.0513474
0.0424177
0.033442
0.0245913
0.0158698
0.00717079
-0.00153714
-0.0105304
-0.0105304
0
0
0.474504
0.460455
0.449683
0.442082
0.437384
0.433459
0.428655
0.422533
0.415593
0.408314
0.400984
0.393566
0.385993
0.378234
0.370723
0.362901
0.35481
0.346501
0.338508
0.330207
0.321704
0.313085
0.304381
0.295577
0.28663
0.277492
0.268237
0.259289
0.25704
0.247929
0.238357
0.22893
0.219635
0.210449
0.201362
0.192391
0.183481
0.17481
0.16623
0.157554
0.148749
0.139918
0.130965
0.121986
0.113012
0.104063
0.095165
0.086347
0.0773399
0.0686502
0.0600142
0.0513376
0.042457
0.0336316
0.0248678
0.0162235
0.00737336
-0.00131167
-0.0103411
-0.0103411
0
0
0.474482
0.460328
0.449383
0.441776
0.43685
0.432722
0.427729
0.421456
0.414408
0.407107
0.399778
0.392405
0.384936
0.377357
0.36975
0.36197
0.353951
0.345527
0.338022
0.329698
0.321177
0.3126
0.303932
0.295126
0.28607
0.276466
0.265324
0.249297
0.269186
0.251466
0.239501
0.229257
0.219644
0.210312
0.201123
0.192057
0.183172
0.174646
0.166441
0.157905
0.149094
0.140158
0.131158
0.122145
0.11314
0.10416
0.0951951
0.0862391
0.0776414
0.0688919
0.0601709
0.05153
0.0423892
0.0337426
0.0250317
0.0164057
0.00770757
-0.0010242
-0.010095
-0.010095
0
0
0.474498
0.460229
0.449177
0.441499
0.43644
0.432153
0.426993
0.420579
0.413434
0.406096
0.398762
0.391422
0.384026
0.376545
0.368966
0.361261
0.353475
0.345831
0.336939
0.328684
0.320439
0.312052
0.303521
0.29482
0.285897
0.27665
0.267014
0.257923
0.257268
0.2483
0.238429
0.228742
0.219292
0.209994
0.20073
0.191512
0.182498
0.174176
0.167147
0.158696
0.149675
0.140532
0.131402
0.122317
0.113261
0.104257
0.0952852
0.0863582
0.0776175
0.0689863
0.0602542
0.0514893
0.0426311
0.0339329
0.0250901
0.0165817
0.00799142
-0.000653701
-0.00969411
-0.00969411
0
0
0.474585
0.460147
0.449054
0.441351
0.4362
0.431729
0.426378
0.419826
0.412602
0.405234
0.397886
0.390567
0.383234
0.375837
0.368306
0.360632
0.352848
0.344983
0.336615
0.328335
0.320062
0.311717
0.303259
0.294671
0.285947
0.277114
0.268327
0.260234
0.254016
0.246011
0.237126
0.227975
0.218777
0.209578
0.200202
0.190666
0.181017
0.172132
0.169845
0.160538
0.150648
0.14103
0.13167
0.122482
0.113362
0.104343
0.0953603
0.0863931
0.077505
0.0691225
0.0603466
0.0515291
0.0427946
0.0343662
0.0246906
0.0165769
0.00819503
-0.000103291
-0.00877627
-0.00877627
0
0
0.4743
0.460281
0.449188
0.441427
0.436223
0.431403
0.425782
0.419161
0.411913
0.40455
0.397143
0.389819
0.382548
0.375254
0.367754
0.360068
0.352251
0.344336
0.336223
0.32804
0.319803
0.311493
0.303093
0.294601
0.286036
0.277458
0.271347
0.260682
0.253188
0.244999
0.236304
0.227349
0.218264
0.209126
0.199623
0.189682
0.17824
0.161055
0.18222
0.163959
0.151757
0.141448
0.131843
0.122547
0.113455
0.104425
0.0954425
0.0864381
0.0773376
0.0693136
0.060365
0.0514898
0.0427253
0.0339774
0.0248452
0.00633284
0.00818719
0.000644935
-0.006224
0
0
0
0.474392
0.460064
0.449038
0.441412
0.436304
0.431337
0.42565
0.418886
0.411556
0.404196
0.396545
0.389161
0.381947
0.374795
0.367233
0.359473
0.351626
0.34378
0.335818
0.327745
0.319576
0.311316
0.302971
0.29455
0.286078
0.277608
0.269178
0.260558
0.253028
0.24455
0.235776
0.226871
0.217761
0.200611
0.199208
0.189847
0.180044
0.170671
0.170262
0.157405
0.150891
0.141182
0.131756
0.122527
0.113446
0.104463
0.0955743
0.0868244
0.0782577
0.0685362
0.059902
0.0512966
0.0426497
0.0339876
0.0253253
0.0169372
0.00842165
5.46699e-05
-0.00867756
-0.00867756
0
0
0.474422
0.460145
0.44881
0.441392
0.436474
0.430982
0.425333
0.418632
0.411285
0.404061
0.395932
0.388534
0.38135
0.374227
0.366385
0.358579
0.350781
0.343196
0.335412
0.32746
0.319371
0.311171
0.302874
0.294497
0.286065
0.277648
0.269715
0.261665
0.252329
0.243771
0.235232
0.226543
0.217758
0.208982
0.19988
0.190747
0.181747
0.173478
0.167087
0.158924
0.149894
0.140696
0.131515
0.122405
0.113372
0.104436
0.0955809
0.086794
0.0779973
0.0687704
0.059929
0.0512536
0.0426231
0.0340137
0.0253997
0.0168681
0.00823985
-0.00047018
-0.00958221
-0.00958221
0
0
0.474443
0.460222
0.449256
0.440846
0.434914
0.431053
0.425572
0.418681
0.411021
0.402909
0.395974
0.388353
0.380523
0.340813
0.364423
0.357299
0.349827
0.342733
0.335079
0.327206
0.319196
0.311056
0.3028
0.294445
0.285971
0.277221
0.270455
0.261531
0.252495
0.24374
0.235075
0.2264
0.217727
0.209096
0.200272
0.191408
0.182665
0.174275
0.166284
0.157924
0.149186
0.140264
0.131241
0.122248
0.113269
0.10439
0.0955505
0.0867287
0.0778772
0.0688919
0.0599793
0.0512493
0.0425886
0.0339853
0.0252909
0.0166478
0.00797443
-0.000823338
-0.00996257
-0.00996257
0
0
0.474441
0.460194
0.449057
0.440907
0.435252
0.430811
0.425362
0.418569
0.4109
0.402844
0.395401
0.38761
0.350451
0.372535
0.365309
0.357879
0.350547
0.342516
0.334795
0.327011
0.319075
0.310995
0.30277
0.294452
0.286064
0.27764
0.269683
0.261177
0.252449
0.243719
0.234993
0.22627
0.217632
0.209259
0.200579
0.191863
0.183143
0.174552
0.166062
0.15749
0.148784
0.140007
0.130955
0.122127
0.113225
0.104402
0.0955516
0.0867122
0.0778866
0.0689916
0.0600382
0.0512551
0.0424716
0.0338136
0.0250424
0.0164061
0.00774452
-0.00108108
-0.0101932
-0.0101932
0
0
0.474437
0.46017
0.448985
0.440986
0.435498
0.430854
0.425345
0.418655
0.411081
0.402525
0.395177
0.38804
0.381568
0.373495
0.365866
0.358315
0.350706
0.34283
0.334977
0.327091
0.319125
0.311053
0.302795
0.294487
0.286157
0.277815
0.269515
0.261008
0.252391
0.243678
0.234884
0.226019
0.217241
0.209836
0.20096
0.192342
0.183482
0.174698
0.165991
0.157284
0.148532
0.139729
0.130865
0.122108
0.115808
0.10449
0.0955372
0.0866712
0.0779153
0.06913
0.0642933
0.0512963
0.0421682
0.0228346
0.0246098
0.0162032
0.00760985
-0.00130435
-0.0103851
-0.0103851
0
0
0.474437
0.460169
0.448991
0.441064
0.435664
0.431008
0.425397
0.419035
0.412918
0.401635
0.395008
0.388054
0.381196
0.373725
0.366192
0.358605
0.35087
0.343052
0.335173
0.327241
0.319259
0.31123
0.30283
0.294525
0.286238
0.277918
0.269561
0.263015
0.25245
0.243683
0.234777
0.225558
0.215135
0.212552
0.201319
0.19329
0.183789
0.174788
0.165951
0.157164
0.148366
0.139519
0.130658
0.121797
0.11288
0.104087
0.0952541
0.086418
0.0776935
0.0688084
0.0595224
0.0509653
0.0423251
0.0337613
0.0249476
0.0163148
0.00769241
-0.0015576
-0.0105704
-0.0105704
0
0
0.47444
0.460179
0.449021
0.441141
0.435828
0.431427
0.425191
0.418699
0.411357
0.402609
0.395281
0.388202
0.381153
0.373858
0.366416
0.358889
0.350922
0.343213
0.335345
0.327392
0.319402
0.311488
0.302836
0.294605
0.286387
0.278049
0.269624
0.260981
0.252384
0.243701
0.234839
0.225924
0.217014
0.209991
0.201101
0.19253
0.183609
0.174711
0.165876
0.157075
0.148263
0.139337
0.130453
0.121586
0.112699
0.103865
0.0949962
0.0860057
0.0686119
0.0685165
0.059084
0.0508654
0.0423014
0.0336871
0.0249493
0.0163268
0.0078768
-0.00184659
-0.0106519
-0.0106519
0
0
0.474442
0.46019
0.449045
0.441183
0.435853
0.431241
0.425524
0.418687
0.411142
0.403262
0.395829
0.38862
0.381422
0.374106
0.366663
0.359104
0.351327
0.343487
0.335556
0.327538
0.319406
0.311011
0.303313
0.295085
0.286742
0.278257
0.269654
0.261118
0.252503
0.243899
0.23487
0.226242
0.217644
0.209401
0.200816
0.192165
0.183388
0.174577
0.165776
0.157004
0.148237
0.13914
0.130265
0.12144
0.112604
0.103775
0.0949403
0.0861028
0.0772944
0.0681308
0.0602079
0.0510317
0.0422527
0.0335309
0.0247388
0.0158459
0.0068244
-0.000869417
-0.010181
-0.010181
0
0
0.474443
0.460195
0.449062
0.441218
0.435906
0.431328
0.425926
0.41882
0.411264
0.403651
0.396303
0.389069
0.381814
0.374464
0.367011
0.359461
0.351706
0.343795
0.335805
0.327754
0.319654
0.311351
0.303932
0.295186
0.286942
0.278358
0.269705
0.261112
0.252515
0.243893
0.235149
0.226487
0.217868
0.209312
0.20068
0.191988
0.183234
0.174447
0.165656
0.156905
0.148257
0.138918
0.130136
0.121361
0.112545
0.103723
0.0949088
0.0861101
0.0773167
0.0684392
0.0599506
0.0510523
0.0422282
0.0334493
0.0246634
0.0158584
0.00707774
-0.00123697
-0.0102927
-0.0102927
0
0
0.47444
0.460191
0.449065
0.44125
0.435978
0.431481
0.426456
0.418929
0.411566
0.404175
0.396931
0.389688
0.382366
0.374954
0.367463
0.35999
0.352175
0.344136
0.336085
0.327994
0.319906
0.311691
0.30343
0.29508
0.286845
0.278059
0.269458
0.260958
0.252461
0.243909
0.235283
0.226635
0.217981
0.209321
0.200628
0.191897
0.183128
0.174328
0.165495
0.156593
0.147553
0.13927
0.130348
0.121402
0.112515
0.103673
0.0948615
0.0860712
0.0772888
0.0685009
0.0597898
0.0509869
0.042185
0.0334064
0.0246546
0.0159713
0.00710627
-0.00145105
-0.0104432
-0.0104432
0
0
0.474431
0.460163
0.44905
0.441291
0.436035
0.431419
0.425546
0.41991
0.41277
0.411357
0.398036
0.390533
0.38304
0.375503
0.367859
0.360635
0.352621
0.34442
0.336369
0.328238
0.320248
0.312025
0.303595
0.294779
0.256684
0.276999
0.269008
0.260818
0.252461
0.243977
0.235394
0.226749
0.218065
0.209352
0.200612
0.191844
0.183052
0.174237
0.1654
0.156532
0.147656
0.139034
0.130195
0.121297
0.112423
0.10359
0.0947915
0.0860139
0.0772443
0.068475
0.059713
0.0509283
0.0421413
0.0333695
0.0246225
0.0159066
0.00717526
-0.00152109
-0.0105254
-0.0105254
0
0
0.474418
0.460064
0.451551
0.441411
0.436221
0.431722
0.426305
0.420137
0.413062
0.405604
0.398276
0.390926
0.383495
0.376017
0.367609
0.360706
0.352264
0.352617
0.336633
0.328446
0.320654
0.31243
0.304037
0.295637
0.28748
0.278653
0.269965
0.261372
0.252801
0.244204
0.235562
0.226876
0.218151
0.209394
0.20061
0.191807
0.182988
0.17416
0.16533
0.156507
0.147695
0.138894
0.130021
0.121133
0.112279
0.103472
0.0947017
0.0859502
0.077202
0.0684453
0.0596756
0.0508914
0.0421064
0.0333376
0.0245898
0.0158616
0.00715652
-0.00156729
-0.0104432
-0.010573
0
0
0.474444
0.459555
0.44873
0.441305
0.436377
0.432113
0.426946
0.420643
0.41359
0.40626
0.398939
0.391576
0.384063
0.376199
0.367141
0.245286
0.348948
0.342834
0.336133
0.328912
0.320673
0.312527
0.30434
0.296114
0.287729
0.279128
0.270463
0.261795
0.253126
0.244446
0.235745
0.227014
0.218248
0.209441
0.200611
0.19177
0.182921
0.174072
0.165243
0.156464
0.147709
0.13881
0.129847
0.120925
0.112085
0.103318
0.0945945
0.0858887
0.0771768
0.0684399
0.0596708
0.0508769
0.0420814
0.0333127
0.0245595
0.0158127
0.00708464
-0.00341856
-0.0106578
-0.0106578
0
0
0.475367
0.457833
0.448215
0.441302
0.436695
0.43268
0.427685
0.421385
0.414387
0.40715
0.399868
0.392513
0.385021
0.377349
0.369569
0.362775
0.354014
0.34565
0.337618
0.329641
0.321366
0.313079
0.304792
0.296573
0.28787
0.279342
0.270751
0.262086
0.253385
0.244665
0.235926
0.227163
0.218362
0.209488
0.200603
0.191721
0.182834
0.173944
0.165087
0.156359
0.147747
0.138691
0.129577
0.120611
0.111808
0.103116
0.0944716
0.0858402
0.0771883
0.0684818
0.0597098
0.0508886
0.0420619
0.0332966
0.0233277
0.0157651
0.00706859
-0.00166524
-0.011395
-0.0107026
0
0
0.474565
0.459764
0.449167
0.441998
0.437418
0.43353
0.428701
0.422313
0.415415
0.408259
0.401012
0.39367
0.386192
0.378606
0.370974
0.363576
0.355402
0.347044
0.338727
0.330433
0.322063
0.313646
0.305168
0.296548
0.288379
0.2798
0.271103
0.262374
0.253624
0.24487
0.236105
0.227331
0.218516
0.209523
0.200572
0.191654
0.18272
0.173752
0.164752
0.155995
0.147657
0.138197
0.128941
0.120038
0.111384
0.102856
0.0943398
0.0858239
0.0772748
0.0686119
0.0598232
0.0509431
0.0420466
0.0333662
0.0245537
0.0157534
0.00702804
-0.00170779
-0.0106931
-0.0106931
0
0
0.474535
0.460438
0.449829
0.442705
0.4362
0.434631
0.430426
0.423316
0.416729
0.409645
0.402413
0.395042
0.387502
0.376545
0.372067
0.364281
0.35619
0.34791
0.339558
0.331167
0.322727
0.31422
0.305663
0.29707
0.288618
0.280029
0.271347
0.262623
0.253828
0.245055
0.236277
0.227515
0.218759
0.209504
0.200515
0.191588
0.18261
0.173547
0.164034
0.154766
0.146304
0.136262
0.127433
0.119
0.11074
0.102578
0.0942284
0.0858623
0.0775304
0.0689203
0.0600748
0.051091
0.0420441
0.0334334
0.024508
0.0156753
0.00694252
-0.00179001
-0.0107603
-0.0107603
0
0
0.474602
0.460778
0.450367
0.443471
0.439286
0.435869
0.43152
0.425327
0.418584
0.411483
0.404193
0.396711
0.389049
0.381251
0.373299
0.365251
0.357052
0.348733
0.340337
0.33189
0.323397
0.314791
0.306156
0.297528
0.288929
0.280278
0.271573
0.262823
0.25403
0.245227
0.236416
0.22765
0.219052
0.209426
0.200524
0.191624
0.182567
0.173274
0.163372
0.152041
0.0311156
0.131663
0.125234
0.117632
0.109825
0.102571
0.0942183
0.0858643
0.0782597
0.0696238
0.06057
0.0514722
0.0424721
0.0330962
0.0242612
0.015507
0.00680494
-0.00190563
-0.0108473
-0.0108473
0
0
0.474683
0.461064
0.450911
0.444322
0.440456
0.437368
0.433272
0.427579
0.420896
0.413726
0.406315
0.398632
0.390755
0.382738
0.374596
0.366355
0.358019
0.349603
0.34113
0.332621
0.324095
0.315318
0.306594
0.297924
0.289264
0.280548