# vtk DataFile Version 2.0
FlowField
ASCII
DATASET STRUCTURED_GRID
DIMENSIONS 62 47 32 
POINTS 93248 double
0 0 0
0.01 0 0
0.02 0 0
0.03 0 0
0.04 0 0
0.05 0 0
0.06 0 0
0.07 0 0
0.08 0 0
0.09 0 0
0.1 0 0
0.11 0 0
0.12 0 0
0.13 0 0
0.14 0 0
0.15 0 0
0.16 0 0
0.17 0 0
0.18 0 0
0.19 0 0
0.2 0 0
0.21 0 0
0.22 0 0
0.23 0 0
0.24 0 0
0.25 0 0
0.26 0 0
0.27 0 0
0.28 0 0
0.29 0 0
0.3 0 0
0.31 0 0
0.32 0 0
0.33 0 0
0.34 0 0
0.35 0 0
0.36 0 0
0.37 0 0
0.38 0 0
0.39 0 0
0.4 0 0
0.41 0 0
0.42 0 0
0.43 0 0
0.44 0 0
0.45 0 0
0.46 0 0
0.47 0 0
0.48 0 0
0.49 0 0
0.5 0 0
0.51 0 0
0.52 0 0
0.53 0 0
0.54 0 0
0.55 0 0
0.56 0 0
0.57 0 0
0.58 0 0
0.59 0 0
0.6 0 0
0.61 0 0
0 0.01 0
0.01 0.01 0
0.02 0.01 0
0.03 0.01 0
0.04 0.01 0
0.05 0.01 0
0.06 0.01 0
0.07 0.01 0
0.08 0.01 0
0.09 0.01 0
0.1 0.01 0
0.11 0.01 0
0.12 0.01 0
0.13 0.01 0
0.14 0.01 0
0.15 0.01 0
0.16 0.01 0
0.17 0.01 0
0.18 0.01 0
0.19 0.01 0
0.2 0.01 0
0.21 0.01 0
0.22 0.01 0
0.23 0.01 0
0.24 0.01 0
0.25 0.01 0
0.26 0.01 0
0.27 0.01 0
0.28 0.01 0
0.29 0.01 0
0.3 0.01 0
0.31 0.01 0
0.32 0.01 0
0.33 0.01 0
0.34 0.01 0
0.35 0.01 0
0.36 0.01 0
0.37 0.01 0
0.38 0.01 0
0.39 0.01 0
0.4 0.01 0
0.41 0.01 0
0.42 0.01 0
0.43 0.01 0
0.44 0.01 0
0.45 0.01 0
0.46 0.01 0
0.47 0.01 0
0.48 0.01 0
0.49 0.01 0
0.5 0.01 0
0.51 0.01 0
0.52 0.01 0
0.53 0.01 0
0.54 0.01 0
0.55 0.01 0
0.56 0.01 0
0.57 0.01 0
0.58 0.01 0
0.59 0.01 0
0.6 0.01 0
0.61 0.01 0
0 0.02 0
0.01 0.02 0
0.02 0.02 0
0.03 0.02 0
0.04 0.02 0
0.05 0.02 0
0.06 0.02 0
0.07 0.02 0
0.08 0.02 0
0.09 0.02 0
0.1 0.02 0
0.11 0.02 0
0.12 0.02 0
0.13 0.02 0
0.14 0.02 0
0.15 0.02 0
0.16 0.02 0
0.17 0.02 0
0.18 0.02 0
0.19 0.02 0
0.2 0.02 0
0.21 0.02 0
0.22 0.02 0
0.23 0.02 0
0.24 0.02 0
0.25 0.02 0
0.26 0.02 0
0.27 0.02 0
0.28 0.02 0
0.29 0.02 0
0.3 0.02 0
0.31 0.02 0
0.32 0.02 0
0.33 0.02 0
0.34 0.02 0
0.35 0.02 0
0.36 0.02 0
0.37 0.02 0
0.38 0.02 0
0.39 0.02 0
0.4 0.02 0
0.41 0.02 0
0.42 0.02 0
0.43 0.02 0
0.44 0.02 0
0.45 0.02 0
0.46 0.02 0
0.47 0.02 0
0.48 0.02 0
0.49 0.02 0
0.5 0.02 0
0.51 0.02 0
0.52 0.02 0
0.53 0.02 0
0.54 0.02 0
0.55 0.02 0
0.56 0.02 0
0.57 0.02 0
0.58 0.02 0
0.59 0.02 0
0.6 0.02 0
0.61 0.02 0
0 0.03 0
0.01 0.03 0
0.02 0.03 0
0.03 0.03 0
0.04 0.03 0
0.05 0.03 0
0.06 0.03 0
0.07 0.03 0
0.08 0.03 0
0.09 0.03 0
0.1 0.03 0
0.11 0.03 0
0.12 0.03 0
0.13 0.03 0
0.14 0.03 0
0.15 0.03 0
0.16 0.03 0
0.17 0.03 0
0.18 0.03 0
0.19 0.03 0
0.2 0.03 0
0.21 0.03 0
0.22 0.03 0
0.23 0.03 0
0.24 0.03 0
0.25 0.03 0
0.26 0.03 0
0.27 0.03 0
0.28 0.03 0
0.29 0.03 0
0.3 0.03 0
0.31 0.03 0
0.32 0.03 0
0.33 0.03 0
0.34 0.03 0
0.35 0.03 0
0.36 0.03 0
0.37 0.03 0
0.38 0.03 0
0.39 0.03 0
0.4 0.03 0
0.41 0.03 0
0.42 0.03 0
0.43 0.03 0
0.44 0.03 0
0.45 0.03 0
0.46 0.03 0
0.47 0.03 0
0.48 0.03 0
0.49 0.03 0
0.5 0.03 0
0.51 0.03 0
0.52 0.03 0
0.53 0.03 0
0.54 0.03 0
0.55 0.03 0
0.56 0.03 0
0.57 0.03 0
0.58 0.03 0
0.59 0.03 0
0.6 0.03 0
0.61 0.03 0
0 0.04 0
0.01 0.04 0
0.02 0.04 0
0.03 0.04 0
0.04 0.04 0
0.05 0.04 0
0.06 0.04 0
0.07 0.04 0
0.08 0.04 0
0.09 0.04 0
0.1 0.04 0
0.11 0.04 0
0.12 0.04 0
0.13 0.04 0
0.14 0.04 0
0.15 0.04 0
0.16 0.04 0
0.17 0.04 0
0.18 0.04 0
0.19 0.04 0
0.2 0.04 0
0.21 0.04 0
0.22 0.04 0
0.23 0.04 0
0.24 0.04 0
0.25 0.04 0
0.26 0.04 0
0.27 0.04 0
0.28 0.04 0
0.29 0.04 0
0.3 0.04 0
0.31 0.04 0
0.32 0.04 0
0.33 0.04 0
0.34 0.04 0
0.35 0.04 0
0.36 0.04 0
0.37 0.04 0
0.38 0.04 0
0.39 0.04 0
0.4 0.04 0
0.41 0.04 0
0.42 0.04 0
0.43 0.04 0
0.44 0.04 0
0.45 0.04 0
0.46 0.04 0
0.47 0.04 0
0.48 0.04 0
0.49 0.04 0
0.5 0.04 0
0.51 0.04 0
0.52 0.04 0
0.53 0.04 0
0.54 0.04 0
0.55 0.04 0
0.56 0.04 0
0.57 0.04 0
0.58 0.04 0
0.59 0.04 0
0.6 0.04 0
0.61 0.04 0
0 0.05 0
0.01 0.05 0
0.02 0.05 0
0.03 0.05 0
0.04 0.05 0
0.05 0.05 0
0.06 0.05 0
0.07 0.05 0
0.08 0.05 0
0.09 0.05 0
0.1 0.05 0
0.11 0.05 0
0.12 0.05 0
0.13 0.05 0
0.14 0.05 0
0.15 0.05 0
0.16 0.05 0
0.17 0.05 0
0.18 0.05 0
0.19 0.05 0
0.2 0.05 0
0.21 0.05 0
0.22 0.05 0
0.23 0.05 0
0.24 0.05 0
0.25 0.05 0
0.26 0.05 0
0.27 0.05 0
0.28 0.05 0
0.29 0.05 0
0.3 0.05 0
0.31 0.05 0
0.32 0.05 0
0.33 0.05 0
0.34 0.05 0
0.35 0.05 0
0.36 0.05 0
0.37 0.05 0
0.38 0.05 0
0.39 0.05 0
0.4 0.05 0
0.41 0.05 0
0.42 0.05 0
0.43 0.05 0
0.44 0.05 0
0.45 0.05 0
0.46 0.05 0
0.47 0.05 0
0.48 0.05 0
0.49 0.05 0
0.5 0.05 0
0.51 0.05 0
0.52 0.05 0
0.53 0.05 0
0.54 0.05 0
0.55 0.05 0
0.56 0.05 0
0.57 0.05 0
0.58 0.05 0
0.59 0.05 0
0.6 0.05 0
0.61 0.05 0
0 0.06 0
0.01 0.06 0
0.02 0.06 0
0.03 0.06 0
0.04 0.06 0
0.05 0.06 0
0.06 0.06 0
0.07 0.06 0
0.08 0.06 0
0.09 0.06 0
0.1 0.06 0
0.11 0.06 0
0.12 0.06 0
0.13 0.06 0
0.14 0.06 0
0.15 0.06 0
0.16 0.06 0
0.17 0.06 0
0.18 0.06 0
0.19 0.06 0
0.2 0.06 0
0.21 0.06 0
0.22 0.06 0
0.23 0.06 0
0.24 0.06 0
0.25 0.06 0
0.26 0.06 0
0.27 0.06 0
0.28 0.06 0
0.29 0.06 0
0.3 0.06 0
0.31 0.06 0
0.32 0.06 0
0.33 0.06 0
0.34 0.06 0
0.35 0.06 0
0.36 0.06 0
0.37 0.06 0
0.38 0.06 0
0.39 0.06 0
0.4 0.06 0
0.41 0.06 0
0.42 0.06 0
0.43 0.06 0
0.44 0.06 0
0.45 0.06 0
0.46 0.06 0
0.47 0.06 0
0.48 0.06 0
0.49 0.06 0
0.5 0.06 0
0.51 0.06 0
0.52 0.06 0
0.53 0.06 0
0.54 0.06 0
0.55 0.06 0
0.56 0.06 0
0.57 0.06 0
0.58 0.06 0
0.59 0.06 0
0.6 0.06 0
0.61 0.06 0
0 0.07 0
0.01 0.07 0
0.02 0.07 0
0.03 0.07 0
0.04 0.07 0
0.05 0.07 0
0.06 0.07 0
0.07 0.07 0
0.08 0.07 0
0.09 0.07 0
0.1 0.07 0
0.11 0.07 0
0.12 0.07 0
0.13 0.07 0
0.14 0.07 0
0.15 0.07 0
0.16 0.07 0
0.17 0.07 0
0.18 0.07 0
0.19 0.07 0
0.2 0.07 0
0.21 0.07 0
0.22 0.07 0
0.23 0.07 0
0.24 0.07 0
0.25 0.07 0
0.26 0.07 0
0.27 0.07 0
0.28 0.07 0
0.29 0.07 0
0.3 0.07 0
0.31 0.07 0
0.32 0.07 0
0.33 0.07 0
0.34 0.07 0
0.35 0.07 0
0.36 0.07 0
0.37 0.07 0
0.38 0.07 0
0.39 0.07 0
0.4 0.07 0
0.41 0.07 0
0.42 0.07 0
0.43 0.07 0
0.44 0.07 0
0.45 0.07 0
0.46 0.07 0
0.47 0.07 0
0.48 0.07 0
0.49 0.07 0
0.5 0.07 0
0.51 0.07 0
0.52 0.07 0
0.53 0.07 0
0.54 0.07 0
0.55 0.07 0
0.56 0.07 0
0.57 0.07 0
0.58 0.07 0
0.59 0.07 0
0.6 0.07 0
0.61 0.07 0
0 0.08 0
0.01 0.08 0
0.02 0.08 0
0.03 0.08 0
0.04 0.08 0
0.05 0.08 0
0.06 0.08 0
0.07 0.08 0
0.08 0.08 0
0.09 0.08 0
0.1 0.08 0
0.11 0.08 0
0.12 0.08 0
0.13 0.08 0
0.14 0.08 0
0.15 0.08 0
0.16 0.08 0
0.17 0.08 0
0.18 0.08 0
0.19 0.08 0
0.2 0.08 0
0.21 0.08 0
0.22 0.08 0
0.23 0.08 0
0.24 0.08 0
0.25 0.08 0
0.26 0.08 0
0.27 0.08 0
0.28 0.08 0
0.29 0.08 0
0.3 0.08 0
0.31 0.08 0
0.32 0.08 0
0.33 0.08 0
0.34 0.08 0
0.35 0.08 0
0.36 0.08 0
0.37 0.08 0
0.38 0.08 0
0.39 0.08 0
0.4 0.08 0
0.41 0.08 0
0.42 0.08 0
0.43 0.08 0
0.44 0.08 0
0.45 0.08 0
0.46 0.08 0
0.47 0.08 0
0.48 0.08 0
0.49 0.08 0
0.5 0.08 0
0.51 0.08 0
0.52 0.08 0
0.53 0.08 0
0.54 0.08 0
0.55 0.08 0
0.56 0.08 0
0.57 0.08 0
0.58 0.08 0
0.59 0.08 0
0.6 0.08 0
0.61 0.08 0
0 0.09 0
0.01 0.09 0
0.02 0.09 0
0.03 0.09 0
0.04 0.09 0
0.05 0.09 0
0.06 0.09 0
0.07 0.09 0
0.08 0.09 0
0.09 0.09 0
0.1 0.09 0
0.11 0.09 0
0.12 0.09 0
0.13 0.09 0
0.14 0.09 0
0.15 0.09 0
0.16 0.09 0
0.17 0.09 0
0.18 0.09 0
0.19 0.09 0
0.2 0.09 0
0.21 0.09 0
0.22 0.09 0
0.23 0.09 0
0.24 0.09 0
0.25 0.09 0
0.26 0.09 0
0.27 0.09 0
0.28 0.09 0
0.29 0.09 0
0.3 0.09 0
0.31 0.09 0
0.32 0.09 0
0.33 0.09 0
0.34 0.09 0
0.35 0.09 0
0.36 0.09 0
0.37 0.09 0
0.38 0.09 0
0.39 0.09 0
0.4 0.09 0
0.41 0.09 0
0.42 0.09 0
0.43 0.09 0
0.44 0.09 0
0.45 0.09 0
0.46 0.09 0
0.47 0.09 0
0.48 0.09 0
0.49 0.09 0
0.5 0.09 0
0.51 0.09 0
0.52 0.09 0
0.53 0.09 0
0.54 0.09 0
0.55 0.09 0
0.56 0.09 0
0.57 0.09 0
0.58 0.09 0
0.59 0.09 0
0.6 0.09 0
0.61 0.09 0
0 0.1 0
0.01 0.1 0
0.02 0.1 0
0.03 0.1 0
0.04 0.1 0
0.05 0.1 0
0.06 0.1 0
0.07 0.1 0
0.08 0.1 0
0.09 0.1 0
0.1 0.1 0
0.11 0.1 0
0.12 0.1 0
0.13 0.1 0
0.14 0.1 0
0.15 0.1 0
0.16 0.1 0
0.17 0.1 0
0.18 0.1 0
0.19 0.1 0
0.2 0.1 0
0.21 0.1 0
0.22 0.1 0
0.23 0.1 0
0.24 0.1 0
0.25 0.1 0
0.26 0.1 0
0.27 0.1 0
0.28 0.1 0
0.29 0.1 0
0.3 0.1 0
0.31 0.1 0
0.32 0.1 0
0.33 0.1 0
0.34 0.1 0
0.35 0.1 0
0.36 0.1 0
0.37 0.1 0
0.38 0.1 0
0.39 0.1 0
0.4 0.1 0
0.41 0.1 0
0.42 0.1 0
0.43 0.1 0
0.44 0.1 0
0.45 0.1 0
0.46 0.1 0
0.47 0.1 0
0.48 0.1 0
0.49 0.1 0
0.5 0.1 0
0.51 0.1 0
0.52 0.1 0
0.53 0.1 0
0.54 0.1 0
0.55 0.1 0
0.56 0.1 0
0.57 0.1 0
0.58 0.1 0
0.59 0.1 0
0.6 0.1 0
0.61 0.1 0
0 0.11 0
0.01 0.11 0
0.02 0.11 0
0.03 0.11 0
0.04 0.11 0
0.05 0.11 0
0.06 0.11 0
0.07 0.11 0
0.08 0.11 0
0.09 0.11 0
0.1 0.11 0
0.11 0.11 0
0.12 0.11 0
0.13 0.11 0
0.14 0.11 0
0.15 0.11 0
0.16 0.11 0
0.17 0.11 0
0.18 0.11 0
0.19 0.11 0
0.2 0.11 0
0.21 0.11 0
0.22 0.11 0
0.23 0.11 0
0.24 0.11 0
0.25 0.11 0
0.26 0.11 0
0.27 0.11 0
0.28 0.11 0
0.29 0.11 0
0.3 0.11 0
0.31 0.11 0
0.32 0.11 0
0.33 0.11 0
0.34 0.11 0
0.35 0.11 0
0.36 0.11 0
0.37 0.11 0
0.38 0.11 0
0.39 0.11 0
0.4 0.11 0
0.41 0.11 0
0.42 0.11 0
0.43 0.11 0
0.44 0.11 0
0.45 0.11 0
0.46 0.11 0
0.47 0.11 0
0.48 0.11 0
0.49 0.11 0
0.5 0.11 0
0.51 0.11 0
0.52 0.11 0
0.53 0.11 0
0.54 0.11 0
0.55 0.11 0
0.56 0.11 0
0.57 0.11 0
0.58 0.11 0
0.59 0.11 0
0.6 0.11 0
0.61 0.11 0
0 0.12 0
0.01 0.12 0
0.02 0.12 0
0.03 0.12 0
0.04 0.12 0
0.05 0.12 0
0.06 0.12 0
0.07 0.12 0
0.08 0.12 0
0.09 0.12 0
0.1 0.12 0
0.11 0.12 0
0.12 0.12 0
0.13 0.12 0
0.14 0.12 0
0.15 0.12 0
0.16 0.12 0
0.17 0.12 0
0.18 0.12 0
0.19 0.12 0
0.2 0.12 0
0.21 0.12 0
0.22 0.12 0
0.23 0.12 0
0.24 0.12 0
0.25 0.12 0
0.26 0.12 0
0.27 0.12 0
0.28 0.12 0
0.29 0.12 0
0.3 0.12 0
0.31 0.12 0
0.32 0.12 0
0.33 0.12 0
0.34 0.12 0
0.35 0.12 0
0.36 0.12 0
0.37 0.12 0
0.38 0.12 0
0.39 0.12 0
0.4 0.12 0
0.41 0.12 0
0.42 0.12 0
0.43 0.12 0
0.44 0.12 0
0.45 0.12 0
0.46 0.12 0
0.47 0.12 0
0.48 0.12 0
0.49 0.12 0
0.5 0.12 0
0.51 0.12 0
0.52 0.12 0
0.53 0.12 0
0.54 0.12 0
0.55 0.12 0
0.56 0.12 0
0.57 0.12 0
0.58 0.12 0
0.59 0.12 0
0.6 0.12 0
0.61 0.12 0
0 0.13 0
0.01 0.13 0
0.02 0.13 0
0.03 0.13 0
0.04 0.13 0
0.05 0.13 0
0.06 0.13 0
0.07 0.13 0
0.08 0.13 0
0.09 0.13 0
0.1 0.13 0
0.11 0.13 0
0.12 0.13 0
0.13 0.13 0
0.14 0.13 0
0.15 0.13 0
0.16 0.13 0
0.17 0.13 0
0.18 0.13 0
0.19 0.13 0
0.2 0.13 0
0.21 0.13 0
0.22 0.13 0
0.23 0.13 0
0.24 0.13 0
0.25 0.13 0
0.26 0.13 0
0.27 0.13 0
0.28 0.13 0
0.29 0.13 0
0.3 0.13 0
0.31 0.13 0
0.32 0.13 0
0.33 0.13 0
0.34 0.13 0
0.35 0.13 0
0.36 0.13 0
0.37 0.13 0
0.38 0.13 0
0.39 0.13 0
0.4 0.13 0
0.41 0.13 0
0.42 0.13 0
0.43 0.13 0
0.44 0.13 0
0.45 0.13 0
0.46 0.13 0
0.47 0.13 0
0.48 0.13 0
[...]
POINT_DATA 93248

SCALARS v double
LOOKUP_TABLE default
0
0
0
0
0
0
0
0
0
0
0
0
0
0
0
0
0
0
0
0
0
0
0
0
0
0
0
0
0
0
0
0
0
0
0
0
0
0
-0.0132342
0
0
0
0
0
-0.0136389
0
0
0
0
0
0
0
0
0
0
0
0
0
0
0
0
0
0
0.0493297
-0.0446357
0.0299756
0.0068727
-0.00366361
0
-0.00964228
-0.0108237
-0.011513
-0.0119516
-0.0122306
-0.0125513
-0.0126614
-0.012779
-0.0128762
-0.012955
-0.0129666
-0.0130494
-0.0130932
-0.0133106
-0.0132333
-0.0132857
-0.013264
-0.0132777
-0.0132938
-0.013309
-0.0133217
-0.0133316
-0.0133384
-0.0133418
-0.0133461
-0.0133898
-0.0133178
-0.0132505
-0.013343
-0.01455
-0.0146358
-0.0189367
-0.00824751
-0.01172
-0.0140369
-0.0135337
-0.0135114
-0.0134492
-0.0134582
-0.0229376
-0.0134588
-0.0137145
-0.0134061
-0.0133986
-0.013425
-0.0134412
-0.0134102
-0.0153138
-0.0132818
-0.0178613
-0.013298
-0.0130076
-0.012312
-0.0104445
0
0
0.0322049
0.0504765
0.0320794
0.0133466
0.00289331
-0.00256908
-0.00599794
-0.00814475
-0.00952535
-0.010516
-0.0109963
-0.0205488
-0.0119752
-0.0122844
-0.010666
-0.012691
-0.0126119
-0.0128703
-0.0130383
-0.0234066
-0.0131718
-0.0131991
-0.0132984
-0.0133622
-0.0134081
-0.0134431
-0.0134713
-0.0134936
-0.0135091
-0.0135139
-0.0134937
-0.0186958
-0.013461
-0.0132636
-0.0134169
-0.0129473
-0.0113771
-0.00668594
-0.0189099
-0.0168559
-0.0148662
-0.0141529
-0.0138956
-0.0137174
-0.0134396
-0.0141094
-0.0138401
-0.0137145
-0.0136445
-0.0136212
-0.0135469
-0.0136074
-0.0136003
-0.0135892
-0.0134742
-0.0133896
-0.0196662
-0.0130363
-0.0124769
-0.0111153
0
0
0.0188389
0.0369268
0.0263895
0.0145294
0.00633529
0.000789403
-0.00303617
-0.00563152
-0.00743094
-0.00866401
-0.00977371
-0.0105347
-0.0109988
-0.0114151
-0.0117896
-0.0121369
0
-0.012326
-0.0126052
-0.0128134
-0.0128228
-0.012878
-0.0129622
-0.0130379
-0.013101
-0.0131532
-0.0131966
-0.0132319
-0.0132597
-0.0132806
-0.0133006
-0.0133616
-0.013304
-0.0133728
-0.0129146
-0.012637
-0.0119678
-0.0109982
-0.0152255
-0.0151139
-0.0143868
-0.0139834
-0.0138026
-0.013783
-0.0139646
-0.0131947
-0.0133515
-0.0134366
-0.0134782
-0.0134517
-0.013419
-0.0134081
-0.0133778
-0.0133321
-0.0132551
-0.013183
-0.0131354
-0.0128787
-0.0124625
-0.0114429
0
0
0.0121031
0.0271746
0.0234545
0.0138387
0.00712957
0.00218519
-0.00142098
-0.00404731
-0.00603893
-0.00752989
-0.00870204
-0.0095823
-0.0102426
-0.0107909
-0.0113072
-0.011554
-0.0116187
-0.0119903
-0.0122686
-0.0124757
-0.0125921
-0.0126978
-0.0128001
-0.0128921
-0.012972
-0.0130403
-0.013098
-0.013146
-0.0131852
-0.0132172
-0.0132457
-0.0132782
-0.0132917
-0.0132549
-0.0130458
-0.0128892
-0.012716
-0.0127407
-0.0138887
-0.0141304
-0.0140024
-0.0138523
-0.0137602
-0.0137328
-0.0137089
-0.0131774
-0.013393
-0.0134673
-0.0134741
-0.0134561
-0.0134287
-0.0133951
-0.0133456
-0.0132876
-0.0132202
-0.0131476
-0.0130629
-0.0129051
-0.0125953
-0.0117909
0
0
0.00845082
0.0202954
0.0171926
0.0109109
0.00607989
0.00216306
-0.000830469
-0.00318593
-0.00521882
-0.00681632
-0.00803185
-0.00897813
-0.00972368
-0.0103096
-0.0107118
-0.011207
-0.0115014
-0.0118369
-0.0121014
-0.012319
-0.0124882
-0.0126313
-0.0127573
-0.012868
-0.0129646
-0.0130483
-0.0131195
-0.013179
-0.013228
-0.0132681
-0.0133017
-0.0133369
-0.013447
-0.0133363
-0.0132463
-0.0131924
-0.0131789
-0.0132968
-0.0136664
-0.0138475
-0.0138681
-0.0138336
-0.0138013
-0.0137999
-0.0138084
0
-0.0136053
-0.0136355
-0.0136062
-0.0135829
-0.0135566
-0.0135106
-0.0134347
-0.0133668
-0.0133063
-0.0132436
-0.0131692
-0.0130553
-0.0127226
-0.012223
-0.0136353
0
0.00618237
0.0153347
0.0125368
0.00789657
0.0044224
0.00130244
-0.00109631
0
-0.0049125
-0.00646707
-0.00769473
-0.00864127
-0.00942457
-0.010068
-0.0105894
-0.0110554
-0.0114364
-0.0117531
-0.0120374
-0.0122753
-0.0124751
-0.0126443
-0.0127913
-0.0129199
-0.0130319
-0.013131
-0.0132145
-0.0132842
-0.0133409
-0.0133863
-0.0134207
-0.0134089
-0.0244815
-0.0134501
-0.0134631
-0.0134673
-0.0135014
-0.0135926
-0.0137484
-0.0138582
-0.0139028
-0.0139081
-0.0138972
-0.0138798
-0.0138228
-0.01354
-0.0137345
-0.013781
-0.0137824
-0.0137823
-0.0137751
-0.013725
-0.0135763
-0.0134968
-0.013454
-0.0134137
-0.0133727
-0.0133704
-0.0132109
-0.0123812
0
0
0.00462015
0.0116269
0.0088624
0.00517122
0.00267887
0.000596229
-0.00172477
-0.00355503
-0.00499262
-0.00642637
-0.00757189
-0.00850547
-0.00930132
-0.00996692
-0.0105316
-0.0110539
-0.0114679
-0.0117585
-0.0120596
-0.0123094
-0.0125317
-0.0127179
-0.0128815
-0.0130257
-0.0131502
-0.0132666
-0.0133613
-0.0134396
-0.0135006
-0.0135497
-0.0136234
-0.0136788
-0.0138074
-0.0137301
-0.0137211
-0.0137398
-0.0137785
-0.0138434
-0.0139273
-0.0139965
-0.0140369
-0.0140526
-0.0140526
-0.0140379
-0.0140014
-0.0139279
-0.0139628
-0.0139856
-0.0140054
-0.0140418
-0.0140988
-0.0141006
-0.0136735
-0.0136088
-0.0136238
-0.0136176
-0.0135724
-0.0192216
-0.0132027
-0.0125219
0
0
0.00346392
0.0087498
0.00586733
0.00273656
0.000854279
-0.000799646
-0.00257849
-0.00403045
-0.00539853
-0.00662621
-0.00767677
-0.00851917
-0.00972368
-0.00999095
-0.01054
-0.0109776
-0.0113786
-0.0118025
-0.0121157
-0.0123975
-0.012651
-0.0128406
-0.013016
-0.0131756
-0.0132666
-0.0134392
-0.0135481
-0.0136361
-0.0136925
-0.0137142
-0.0138633
-0.0139266
-0.0139681
-0.0139684
-0.0139817
-0.0140083
-0.0140447
-0.0140946
-0.01415
-0.014198
-0.014231
-0.0142482
-0.0142525
-0.0142453
-0.0142274
-0.0142043
-0.014207
-0.014219
-0.0142498
-0.014339
-0.0145743
-0.0149726
-0.0134289
-0.0136017
-0.0138061
-0.0138739
-0.013882
-0.0138927
-0.0136262
-0.0128123
0
0
0.0025609
0.00643534
0.00336715
0.000577576
-0.000887521
-0.00218053
-0.00351166
-0.00476733
-0.00594129
-0.00701285
-0.00796949
-0.00886159
-0.00953611
-0.0101436
-0.010666
-0.011138
-0.0115573
-0.0119345
-0.0122588
-0.0125342
-0.0146086
-0.0129938
-0.013187
-0.0133574
-0.013513
-0.013651
-0.013776
-0.0138794
-0.0139329
-0.0138562
-0.0141368
-0.0141868
-0.0142071
-0.0142212
-0.0142467
-0.0142822
-0.0143115
-0.0143555
-0.0143994
-0.0144364
-0.0144632
-0.014479
-0.0144848
-0.014482
-0.0144728
-0.0144613
-0.0144554
-0.014455
-0.0144727
-0.0145722
-0.0150242
-0.0162375
-0.0124322
-0.0135446
-0.0140708
-0.0141837
-0.0141903
-0.0141644
-0.0139527
-0.0131154
0
0
0.00182578
0.0045157
0.00123819
-0.00135449
-0.00250575
-0.00350212
-0.00455592
-0.00559786
-0.0065949
-0.00752481
-0.00837454
-0.0091454
-0.0098072
-0.0103782
-0.010838
-0.0113299
-0.0117647
-0.0121363
-0.0124592
-0.0127538
-0.0129856
-0.0132006
-0.0133948
-0.0135724
-0.0137346
-0.0138919
-0.0140424
-0.0141889
-0.0143385
-0.0145123
-0.0139943
-0.0142673
-0.0144229
-0.0144814
-0.0145166
-0.01455
-0.0146018
-0.0146295
-0.0146695
-0.0147007
-0.0147226
-0.0147356
-0.0147405
-0.014739
-0.0147325
-0.0147224
-0.0147093
-0.0146881
-0.0146416
-0.0145007
-0.0139759
-0.0125676
-0.0164908
-0.0153449
-0.0147627
-0.0145895
-0.0145242
-0.0144725
-0.014264
-0.0134168
0
0
0.00120696
0.00288251
-0.000592044
-0.00505625
-0.00399481
-0.00477372
-0.00562084
-0.00648138
-0.00732338
-0.00812567
-0.00887313
-0.00955979
-0.0101771
-0.0107148
-0.0109711
-0.0115525
-0.0120316
-0.0123916
-0.0126976
-0.012958
-0.0132369
-0.0134391
-0.0136315
-0.0138125
-0.0139849
-0.0141567
-0.0143352
-0.0145262
-0.0147268
-0.01488
0
-0.0146266
-0.014746
-0.0147753
-0.0147997
-0.0148368
-0.0148778
-0.0149284
-0.0149611
-0.0149871
-0.0150039
-0.0150129
-0.0150145
-0.0150116
-0.0150051
-0.0149947
-0.0149785
-0.0149502
-0.0148948
-0.0147788
-0.0145287
-0.0142224
-0.0155376
-0.0153138
-0.0150515
-0.0149159
-0.0148428
-0.0147826
-0.0145693
-0.0137135
0
0
0.000669788
0.00145226
-0.00224917
-0.00460155
-0.00539053
-0.00600156
-0.0066814
-0.00738956
-0.00809806
-0.00878847
-0.00944087
-0.0100539
-0.0106331
-0.0112191
0
-0.0118732
-0.0123523
-0.0127063
-0.0129876
-0.0132442
-0.0134858
-0.0136963
-0.0138897
-0.0140714
-0.0142486
-0.0144338
-0.0146453
-0.0149019
-0.0151951
-0.0151518
-0.0147897
-0.014932
-0.0150074
-0.0150427
-0.0150822
-0.0151295
-0.0151811
-0.0152332
-0.015273
-0.0152962
-0.0153055
-0.0153093
-0.0153031
-0.0152968
-0.0152893
-0.0152793
-0.0152641
-0.0152385
-0.015194
-0.0151376
-0.0150595
-0.0150431
-0.0153668
-0.0153685
-0.0152842
-0.0152069
-0.0151465
-0.0150867
-0.0148682
-0.0140031
0
0
0.000195326
0.000185268
-0.00372008
-0.00598256
-0.00668167
-0.00717018
-0.00771921
-0.00830243
-0.00889673
-0.00970908
-0.0100542
-0.0105918
-0.0110923
-0.0115375
-0.0117316
-0.0122522
-0.0126844
-0.0130157
-0.0133125
-0.0135522
-0.0137748
-0.0139792
-0.0141674
-0.0143439
-0.0145176
-0.0147067
-0.0149507
-0.0153307
-0.0161365
-0.0157204
-0.0153603
-0.0152729
-0.0152804
-0.0153172
-0.0153679
-0.0154289
-0.0154961
-0.0155658
-0.0156186
-0.015635
-0.0156281
-0.0156112
-0.0156009
-0.0155913
-0.0155828
-0.0155741
-0.0155629
-0.0155435
-0.0154945
-0.0154909
-0.0154708
-0.0154808
-0.0155589
-0.0155763
-0.0155458
-0.0154986
-0.0154432
-0.0153861
-0.0151598
-0.0142827
0
0
-0.000230647
-0.000953167
-0.00505625
-0.00728509
-0.00789793
-0.00828727
-0.0087279
-0.00920792
-0.00970908
-0.0102144
-0.0107037
-0.0111718
-0.0116096
-0.0120041
-0.012329
-0.0127099
-0.0130584
-0.0133682
-0.0137088
-0.0138885
-0.0140892
-0.014284
-0.0144628
-0.0146271
-0.0147834
-0.0149483
-0.0151805
-0.013228
-0.0189486
-0.0163133
-0.0156781
-0.0155308
-0.0155364
-0.0155883
-0.0156538
-0.0157335
-0.0158314
-0.0159387
-0.0160266
-0.0160211
-0.0159778
-0.0159362
-0.0159088
-0.0158922
-0.0158823
-0.0158761
-0.0158721
-0.0158733
-0.0134741
-0.0158486
-0.0158323
-0.0158321
-0.0158291
-0.0158549
-0.0158413
-0.015808
-0.0157599
-0.0156865
-0.0154436
-0.014547
0
0
-0.000619556
-0.00198114
-0.00628507
-0.0084906
-0.00904488
-0.009362
-0.00970137
-0.0100943
-0.01052
-0.0109528
-0.0113771
-0.0117858
-0.0121715
-0.0125278
-0.0128531
-0.0131731
-0.0134677
-0.0137121
-0.0220371
-0.0142126
-0.0144229
-0.0146086
-0.0147766
-0.0149233
-0.0150485
-0.0151408
-0.0151489
-0.0147919
-0.0116366
-0.0145403
-0.0153115
-0.0156087
-0.0157576
-0.0158543
-0.0159354
-0.0160363
-0.0161764
-0.0163698
-0.0165808
-0.0164891
-0.0163554
-0.0162652
-0.0162172
-0.0161943
-0.0161837
-0.01618
-0.0161777
-0.0161721
-0.0161449
-0.01617
-0.016171
-0.0161766
-0.0162069
-0.0161835
-0.0161658
-0.0161406
-0.0160626
-0.0159847
-0.0157185
-0.0147859
0
0
-0.000989733
-0.00287769
-0.00742716
-0.0096309
-0.0101397
-0.0104186
-0.0106322
-0.0109446
-0.0113226
-0.0117006
-0.0120684
-0.012425
-0.0127644
-0.0130808
-0.0133734
-0.0136547
-0.0139227
-0.0141788
-0.014478
-0.0146251
-0.0147965
-0.0149633
-0.0151133
-0.0152427
-0.0153457
-0.0154066
-0.0153841
-0.0151746
-0.0145671
-0.0151468
-0.0155907
-0.0158613
-0.0160267
-0.016141
-0.0162059
-0.0163175
-0.0165072
-0.0168691
-0.0175768
-0.0170854
-0.0167405
-0.016578
-0.0165141
-0.0164916
-0.016483
-0.0164863
-0.0164885
-0.0164896
-0.0164921
-0.0165171
-0.0165062
-0.0165066
-0.0165154
-0.0165142
-0.0165056
-0.0165269
-0.0163563
-0.0162915
-0.0159941
-0.014978
0
0
-0.0014039
0.00643534
-0.00852855
-0.0107221
-0.0111803
-0.0114597
-0.011494
-0.0117827
-0.0121157
-0.0124568
-0.0127721
-0.0130839
-0.0133833
-0.0136589
-0.0139023
-0.0141468
-0.0143892
-0.0146217
-0.0148448
-0.0150212
-0.015185
-0.0153361
-0.0154714
-0.0155877
-0.0156802
-0.0157398
-0.015752
-0.0156911
-0.0156148
-0.015784
-0.0160044
-0.0161906
-0.0163429
-0.0164754
-0.0164422
-0.0165365
-0.0167287
-0.0172887
-0.0204045
-0.0176628
-0.0170037
-0.0168256
-0.0167838
-0.0167814
-0.016483
-0.0167963
-0.0168025
-0.0168074
-0.0168219
-0.0169093
-0.0168391
-0.016834
-0.0168435
-0.0168595
-0.0169201
-0.0170096
-0.0166247
-0.0166593
-0.0163383
-0.0150559
0
0
-0.00164956
-0.00463918
-0.00953134
-0.0117266
-0.0120972
-0.0120835
-0.0125324
-0.0127893
-0.0130128
-0.0132346
-0.0134792
-0.013759
-0.0140327
-0.0142755
-0.0144265
-0.0146357
-0.0148633
-0.015078
-0.0152701
-0.0154375
-0.0155888
-0.015726
-0.0158485
-0.0159549
-0.0160426
-0.0161079
-0.016146
-0.0161722
-0.016274
-0.0162949
-0.016408
-0.0165372
-0.0166753
-0.0168847
-0.01662
-0.016697
-0.016681
-0.0162485
-0.0130732
-0.0160102
-0.0167197
-0.0169414
-0.0170227
-0.0170611
-0.0170835
-0.0171064
-0.017119
-0.0171197
-0.0170978
-0.0254907
-0.0171221
-0.0171559
-0.0171713
-0.0171692
-0.0171297
-0.0170141
-0.0173941
-0.0173224
-0.0172426
-0.0167351
0
0
-0.00194588
-0.00552179
-0.0105248
-0.0127629
-0.0130859
-0.01291
-0.0132939
-0.0136037
-0.0138008
-0.0139937
-0.0141493
-0.0144461
-0.0147333
-0.0150098
-0.0148742
-0.0150858
-0.0153415
-0.0155565
-0.015724
-0.0158727
-0.0160082
-0.0161312
-0.0162417
-0.0163392
-0.0164235
-0.0164945
-0.0165549
-0.0165478
-0.0262917
-0.0166761
-0.0167827
-0.0168642
-0.0169054
-0.0168312
-0.0171868
-0.0171214
-0.0169761
-0.0166719
-0.0160211
-0.0165881
-0.0169893
-0.0171958
-0.0172986
-0.0173545
-0.017392
-0.0174275
-0.0174487
-0.017461
-0.0174797
-0.0175664
-0.0175022
-0.0175096
-0.0175209
-0.0175205
-0.0175012
-0.0174947
-0.0176571
-0.0176902
-0.017585
-0.0168195
0
0
-0.00224042
-0.00631673
-0.0114402
-0.0207355
-0.0141519
0
-0.0141254
-0.0144006
-0.0146047
-0.0147772
-0.00769473
-0.0151625
-0.0155126
-0.0158576
-0.0152901
-0.0154141
-0.0158371
-0.0160811
-0.0161998
-0.0163225
-0.0164409
-0.0165494
-0.0166475
-0.0167357
-0.0168156
-0.0169002
-0.0170411
-0.0170169
-0.0171488
-0.0171261
-0.0171717
-0.0172287
-0.0172689
-0.0172863
-0.0174235
-0.0174174
-0.0173377
-0.0172059
-0.01706
-0.0172089
-0.0173928
-0.0175261
-0.0176098
-0.017661
-0.0176994
-0.0177645
-0.0177898
-0.0178008
-0.0178114
-0.0178292
-0.0178233
-0.0178682
-0.017886
-0.0178907
-0.0178613
-0.0178837
-0.0179594
-0.0180036
-0.017866
-0.0170195
0
0
-0.00252736
-0.00708433
-0.0123947
-0.0146434
-0.014934
-0.0147426
-0.0149809
-0.0151933
-0.015329
-0.0154415
-0.0155276
-0.0157694
-0.0161147
-0.0154698
-0.0161945
-0.0165931
-0.0164747
-0.0211176
-0.016675
-0.0167824
-0.0168838
-0.016978
-0.0170627
-0.0171397
-0.0172064
-0.017251
-0.0172182
-0.0173728
-0.0174553
-0.0175021
-0.0175505
-0.0176003
-0.0176465
-0.0176904
-0.0177446
-0.0177543
-0.0177246
-0.0176784
-0.0176509
-0.0177104
-0.0178018
-0.0178838
-0.017941
-0.017971
-0.0179812
-0.0181374
-0.0181522
-0.018146
-0.0181421
-0.0181232
-0.0181043
-0.0182553
-0.0182768
-0.0182953
-0.0181699
-0.0182134
-0.0182769
-0.0183129
-0.018151
-0.0172689
0
0
-0.00280368
-0.00782192
-0.013288
-0.0154899
-0.015796
-0.0157751
-0.0158735
-0.0159854
-0.0160735
-0.0161043
-0.0162045
-0.0162715
-0.016051
-0.0261355
-0.0171052
-0.0170057
-0.0170282
-0.0171353
-0.0171843
-0.0172594
-0.0173396
-0.0174154
-0.0174846
-0.0175521
-0.0176117
-0.0176606
-0.0176948
-0.0177607
-0.0178283
-0.0178777
-0.0179241
-0.0179709
-0.018021
-0.0180853
-0.0181087
-0.0181313
-0.018114
-0.0180998
-0.0181036
-0.0181404
-0.0181952
-0.0182505
-0.0182933
-0.018295
-0.018209
-0.0185723
-0.0185235
-0.0184979
-0.0184894
-0.0184209
-0.0183129
-0.0186906
-0.0186642
-0.0187536
-0.0184038
-0.0185271
-0.0186023
-0.0186266
-0.0184487
-0.0175466
0
0
-0.00307098
-0.00854003
-0.0141619
-0.0163655
-0.0166716
-0.0166775
-0.0167224
-0.0167931
-0.0168842
-0.016651
-0.0168431
-0.0170057
-0.0170258
-0.0174028
-0.0174672
-0.0175024
-0.0175517
-0.017618
-0.0176754
-0.0177373
-0.0178002
-0.0178584
-0.0179054
-0.01797
-0.0180245
-0.0180693
-0.0181088
-0.0181477
-0.0182172
-0.0182553
-0.0182953
-0.0183367
-0.0183836
-0.0185399
-0.018495
-0.0185702
-0.0184908
-0.01849
-0.0185032
-0.0185338
-0.0185746
-0.0186205
-0.0186738
-0.0187544
-0.0189135
-0.0186109
-0.0187246
-0.0188232
-0.0188973
-0.0188277
-0.0189646
-0.0186628
-0.0187382
-0.0186876
-0.0190814
-0.019
-0.0189667
-0.0189437
-0.0187581
-0.017843
0
0
-0.00333097
-0.00924518
-0.0150257
-0.017242
-0.0175404
-0.0175355
-0.0175371
-0.0175843
-0.017603
-0.0179368
-0.0178504
-0.017768
-0.0178064
-0.0179216
-0.017987
-0.0180326
-0.0180767
-0.018122
-0.0181685
-0.0182166
-0.0182657
-0.018309
-0.0183025
-0.0183923
-0.0184445
-0.0184795
-0.0185151
-0.0185546
-0.0185806
-0.0186272
-0.018664
-0.0186958
-0.0187166
-0.0186226
-0.0187237
-0.0186857
-0.0188095
-0.0188453
-0.0188767
-0.0189079
-0.018942
-0.0189791
-0.0190265
-0.0190835
-0.019142
-0.0190551
-0.0191004
-0.0191923
-0.0193534
-0.0190441
-0.0191148
-0.0191252
-0.0191385
-0.0191538
-0.0193072
-0.0193111
-0.0192965
-0.0192216
-0.0190765
-0.0181537
0
0
-0.00358427
-0.00994097
-0.015883
-0.0181153
-0.0184051
-0.0183916
-0.018407
-0.0183907
-0.0184161
-0.0184913
-0.0184852
-0.0184724
-0.0184852
-0.0185215
-0.0185528
-0.0185786
-0.0186028
-0.0186321
-0.0186625
-0.0186969
-0.0187374
-0.0187951
-0.0133574
-0.0188522
-0.0188739
-0.0188873
-0.0189131
-0.0181477
-0.0189748
-0.0190071
-0.0190343
-0.0190625
-0.01908
-0.0190779
-0.019113
-0.0191321
-0.0191766
-0.0192126
-0.0192439
-0.0192738
-0.0193018
-0.0193238
-0.0193713
-0.0194129
-0.0194422
-0.0194333
-0.0194428
-0.0194291
-0.0193391
-0.0197304
-0.0134412
-0.021684
-0.0195387
-0.0195552
-0.0196086
-0.0196345
-0.0196662
-0.012312
-0.0194426
-0.0184768
0
0
-0.0038304
-0.0106291
-0.0167359
-0.0189863
-0.0192656
-0.0192321
-0.0192054
-0.019161
-0.0191569
-0.0191582
-0.0191705
-0.0191579
-0.0191414
-0.0191345
-0.0191328
-0.0191333
-0.0191349
-0.0191421
-0.0191556
-0.0191734
-0.0191941
-0.0192106
-0.0191821
-0.0192756
-0.0193104
-0.0192713
-0.0192863
-0.019315
-0.0193547
-0.0193867
-0.0194168
-0.0194368
-0.0194551
-0.0194705
-0.0194942
-0.0195185
-0.0195488
-0.0195791
-0.0196088
-0.0196384
-0.0196616
-0.0196365
-0.0197188
-0.0197588
-0.0197821
-0.0197932
-0.0198028
-0.0198027
-0.0197975
-0.0199272
-0.01987
-0.0199225
-0.0199103
-0.0199182
-0.0199393
-0.019954
-0.0199536
-0.0198818
-0.019727
-0.018785
0
0
-0.0040675
-0.0113092
-0.0175854
-0.0198584
-0.0201291
-0.020079
-0.0200244
-0.019881
-0.0198846
-0.0198263
-0.019882
-0.0198573
-0.0197941
-0.0197474
-0.0197151
-0.0196899
-0.0196627
-0.0196469
-0.0196453
-0.0196482
-0.019656
-0.0196648
-0.0196817
-0.0197274
-0.0198343
-0.0195868
-0.0196289
-0.0196947
-0.0197374
-0.0197667
-0.0197904
-0.0198101
-0.0198284
-0.0198465
-0.0198675
-0.0198904
-0.019916
-0.019943
-0.019972
-0.0200062
-0.0200558
-0.014479
-0.0201041
-0.0201182
-0.0201371
-0.0201533
-0.0201681
-0.0201804
-0.0201958
-0.0202376
-0.0202393
-0.0202563
-0.0202607
-0.0202684
-0.0202794
-0.020288
-0.0202879
-0.0202657
-0.0200584
-0.0191031
0
0
-0.00429233
-0.0119747
-0.0184272
-0.0207355
-0.0210015
-0.0209411
-0.0209073
-0.011513
-0.0206701
-0.0204494
-0.0206444
-0.0205488
-0.0204432
-0.0203521
-0.0202944
-0.0202514
-0.0201787
-0.0201356
-0.0201312
-0.0201197
-0.0201201
-0.0201078
-0.0201158
-0.0201914
-0.0204881
-0.0198606
-0.0198927
-0.0200776
-0.0201267
-0.0201497
-0.0201673
-0.0201834
-0.0201995
-0.0202166
-0.0202355
-0.0202564
-0.0202793
-0.0203039
-0.0203298
-0.0203563
-0.0203766
-0.0203497
-0.0204285
-0.020467
-0.0204937
-0.0205161
-0.0205354
-0.020552
-0.0205683
-0.0205871
-0.0205961
-0.0206049
-0.0206106
-0.0206168
-0.0206238
-0.0206305
-0.0206361
-0.0206189
-0.0203965
-0.0194286
0
0
-0.00450324
-0.0126016
-0.0192482
-0.0216181
-0.021886
-0.021794
-0.0216874
-0.021496
-0.0214757
-0.0215218
-0.0211387
-0.0210443
-0.0209829
-0.0209301
-0.0208629
-0.0208405
-0.02067
-0.0205779
-0.020622
-0.0205845
-0.0206029
-0.0205375
-0.0204945
-0.0204048
-0.0201051
-0.0207537
-0.0207318
-0.0205637
-0.0205355
-0.0205363
-0.0205447
-0.0205557
-0.0205686
-0.0205832
-0.0206
-0.020619
-0.0206401
-0.0206629
-0.0206872
-0.0207116
-0.0207334
-0.0207488
-0.0207891
-0.0208254
-0.0208573
-0.020885
-0.0209078
-0.0209258
-0.0209398
-0.0209503
-0.020956
-0.0209598
-0.0209628
-0.0209663
-0.0209705
-0.0209751
-0.0209788
-0.0209645
-0.0207365
-0.0197582
0
0
-0.00472329
-0.0130903
-0.0200596
-0.0224941
-0.0227743
-0.0226713
-0.0225318
-0.0223677
-0.0222424
-0.0221301
-0.0218868
-0.0217233
-0.0216128
-0.0215148
-0.0214582
-0.0214995
-0.0211176
-0.0211038
-0.0210159
-0.0209935
-0.0264484
-0.0209356
-0.0209128
-0.0208528
-0.0207613
-0.021005
-0.0209884
-0.0209411
-0.020921
-0.0209164
-0.0209192
-0.0209259
-0.0209352
-0.0209469
-0.0209617
-0.020979
-0.0209988
-0.0210209
-0.0210451
-0.0210702
-0.0210942
-0.0211172
-0.0211517
-0.0211908
-0.0212295
-0.0212637
-0.0212905
-0.0213092
-0.0213201
-0.0213238
-0.0213224
-0.0213196
-0.0213177
-0.0213178
-0.0213192
-0.0213213
-0.0213242
-0.0213104
-0.0210785
-0.0200907
0
0
-0.00502938