# vtk DataFile Version 2.0
FlowField
ASCII
DATASET STRUCTURED_GRID
DIMENSIONS 62 47 32 
POINTS 93248 double
0 0 0
0.01 0 0
0.02 0 0
0.03 0 0
0.04 0 0
0.05 0 0
0.06 0 0
0.07 0 0
0.08 0 0
0.09 0 0
0.1 0 0
0.11 0 0
0.12 0 0
0.13 0 0
0.14 0 0
0.15 0 0
0.16 0 0
0.17 0 0
0.18 0 0
0.19 0 0
0.2 0 0
0.21 0 0
0.22 0 0
0.23 0 0
0.24 0 0
0.25 0 0
0.26 0 0
0.27 0 0
0.28 0 0
0.29 0 0
0.3 0 0
0.31 0 0
0.32 0 0
0.33 0 0
0.34 0 0
0.35 0 0
0.36 0 0
0.37 0 0
0.38 0 0
0.39 0 0
0.4 0 0
0.41 0 0
0.42 0 0
0.43 0 0
0.44 0 0
0.45 0 0
0.46 0 0
0.47 0 0
0.48 0 0
0.49 0 0
0.5 0 0
0.51 0 0
0.52 0 0
0.53 0 0
0.54 0 0
0.55 0 0
0.56 0 0
0.57 0 0
0.58 0 0
0.59 0 0
0.6 0 0
0.61 0 0
0 0.01 0
0.01 0.01 0
0.02 0.01 0
0.03 0.01 0
0.04 0.01 0
0.05 0.01 0
0.06 0.01 0
0.07 0.01 0
0.08 0.01 0
0.09 0.01 0
0.1 0.01 0
0.11 0.01 0
0.12 0.01 0
0.13 0.01 0
0.14 0.01 0
0.15 0.01 0
0.16 0.01 0
0.17 0.01 0
0.18 0.01 0
0.19 0.01 0
0.2 0.01 0
0.21 0.01 0
0.22 0.01 0
0.23 0.01 0
0.24 0.01 0
0.25 0.01 0
0.26 0.01 0
0.27 0.01 0
0.28 0.01 0
0.29 0.01 0
0.3 0.01 0
0.31 0.01 0
0.32 0.01 0
0.33 0.01 0
0.34 0.01 0
0.35 0.01 0
0.36 0.01 0
0.37 0.01 0
0.38 0.01 0
0.39 0.01 0
0.4 0.01 0
0.41 0.01 0
0.42 0.01 0
0.43 0.01 0
0.44 0.01 0
0.45 0.01 0
0.46 0.01 0
0.47 0.01 0
0.48 0.01 0
0.49 0.01 0
0.5 0.01 0
0.51 0.01 0
0.52 0.01 0
0.53 0.01 0
0.54 0.01 0
0.55 0.01 0
0.56 0.01 0
0.57 0.01 0
0.58 0.01 0
0.59 0.01 0
0.6 0.01 0
0.61 0.01 0
0 0.02 0
0.01 0.02 0
0.02 0.02 0
0.03 0.02 0
0.04 0.02 0
0.05 0.02 0
0.06 0.02 0
0.07 0.02 0
0.08 0.02 0
0.09 0.02 0
0.1 0.02 0
0.11 0.02 0
0.12 0.02 0
0.13 0.02 0
0.14 0.02 0
0.15 0.02 0
0.16 0.02 0
0.17 0.02 0
0.18 0.02 0
0.19 0.02 0
0.2 0.02 0
0.21 0.02 0
0.22 0.02 0
0.23 0.02 0
0.24 0.02 0
0.25 0.02 0
0.26 0.02 0
0.27 0.02 0
0.28 0.02 0
0.29 0.02 0
0.3 0.02 0
0.31 0.02 0
0.32 0.02 0
0.33 0.02 0
0.34 0.02 0
0.35 0.02 0
0.36 0.02 0
0.37 0.02 0
0.38 0.02 0
0.39 0.02 0
0.4 0.02 0
0.41 0.02 0
0.42 0.02 0
0.43 0.02 0
0.44 0.02 0
0.45 0.02 0
0.46 0.02 0
0.47 0.02 0
0.48 0.02 0
0.49 0.02 0
0.5 0.02 0
0.51 0.02 0
0.52 0.02 0
0.53 0.02 0
0.54 0.02 0
0.55 0.02 0
0.56 0.02 0
0.57 0.02 0
0.58 0.02 0
0.59 0.02 0
0.6 0.02 0
0.61 0.02 0
0 0.03 0
0.01 0.03 0
0.02 0.03 0
0.03 0.03 0
0.04 0.03 0
0.05 0.03 0
0.06 0.03 0
0.07 0.03 0
0.08 0.03 0
0.09 0.03 0
0.1 0.03 0
0.11 0.03 0
0.12 0.03 0
0.13 0.03 0
0.14 0.03 0
0.15 0.03 0
0.16 0.03 0
0.17 0.03 0
0.18 0.03 0
0.19 0.03 0
0.2 0.03 0
0.21 0.03 0
0.22 0.03 0
0.23 0.03 0
0.24 0.03 0
0.25 0.03 0
0.26 0.03 0
0.27 0.03 0
0.28 0.03 0
0.29 0.03 0
0.3 0.03 0
0.31 0.03 0
0.32 0.03 0
0.33 0.03 0
0.34 0.03 0
0.35 0.03 0
0.36 0.03 0
0.37 0.03 0
0.38 0.03 0
0.39 0.03 0
0.4 0.03 0
0.41 0.03 0
0.42 0.03 0
0.43 0.03 0
0.44 0.03 0
0.45 0.03 0
0.46 0.03 0
0.47 0.03 0
0.48 0.03 0
0.49 0.03 0
0.5 0.03 0
0.51 0.03 0
0.52 0.03 0
0.53 0.03 0
0.54 0.03 0
0.55 0.03 0
0.56 0.03 0
0.57 0.03 0
0.58 0.03 0
0.59 0.03 0
0.6 0.03 0
0.61 0.03 0
0 0.04 0
0.01 0.04 0
0.02 0.04 0
0.03 0.04 0
0.04 0.04 0
0.05 0.04 0
0.06 0.04 0
0.07 0.04 0
0.08 0.04 0
0.09 0.04 0
0.1 0.04 0
0.11 0.04 0
0.12 0.04 0
0.13 0.04 0
0.14 0.04 0
0.15 0.04 0
0.16 0.04 0
0.17 0.04 0
0.18 0.04 0
0.19 0.04 0
0.2 0.04 0
0.21 0.04 0
0.22 0.04 0
0.23 0.04 0
0.24 0.04 0
0.25 0.04 0
0.26 0.04 0
0.27 0.04 0
0.28 0.04 0
0.29 0.04 0
0.3 0.04 0
0.31 0.04 0
0.32 0.04 0
0.33 0.04 0
0.34 0.04 0
0.35 0.04 0
0.36 0.04 0
0.37 0.04 0
0.38 0.04 0
0.39 0.04 0
0.4 0.04 0
0.41 0.04 0
0.42 0.04 0
0.43 0.04 0
0.44 0.04 0
0.45 0.04 0
0.46 0.04 0
0.47 0.04 0
0.48 0.04 0
0.49 0.04 0
0.5 0.04 0
0.51 0.04 0
0.52 0.04 0
0.53 0.04 0
0.54 0.04 0
0.55 0.04 0
0.56 0.04 0
0.57 0.04 0
0.58 0.04 0
0.59 0.04 0
0.6 0.04 0
0.61 0.04 0
0 0.05 0
0.01 0.05 0
0.02 0.05 0
0.03 0.05 0
0.04 0.05 0
0.05 0.05 0
0.06 0.05 0
0.07 0.05 0
0.08 0.05 0
0.09 0.05 0
0.1 0.05 0
0.11 0.05 0
0.12 0.05 0
0.13 0.05 0
0.14 0.05 0
0.15 0.05 0
0.16 0.05 0
0.17 0.05 0
0.18 0.05 0
0.19 0.05 0
0.2 0.05 0
0.21 0.05 0
0.22 0.05 0
0.23 0.05 0
0.24 0.05 0
0.25 0.05 0
0.26 0.05 0
0.27 0.05 0
0.28 0.05 0
0.29 0.05 0
0.3 0.05 0
0.31 0.05 0
0.32 0.05 0
0.33 0.05 0
0.34 0.05 0
0.35 0.05 0
0.36 0.05 0
0.37 0.05 0
0.38 0.05 0
0.39 0.05 0
0.4 0.05 0
0.41 0.05 0
0.42 0.05 0
0.43 0.05 0
0.44 0.05 0
0.45 0.05 0
0.46 0.05 0
0.47 0.05 0
0.48 0.05 0
0.49 0.05 0
0.5 0.05 0
0.51 0.05 0
0.52 0.05 0
0.53 0.05 0
0.54 0.05 0
0.55 0.05 0
0.56 0.05 0
0.57 0.05 0
0.58 0.05 0
0.59 0.05 0
0.6 0.05 0
0.61 0.05 0
0 0.06 0
0.01 0.06 0
0.02 0.06 0
0.03 0.06 0
0.04 0.06 0
0.05 0.06 0
0.06 0.06 0
0.07 0.06 0
0.08 0.06 0
0.09 0.06 0
0.1 0.06 0
0.11 0.06 0
0.12 0.06 0
0.13 0.06 0
0.14 0.06 0
0.15 0.06 0
0.16 0.06 0
0.17 0.06 0
0.18 0.06 0
0.19 0.06 0
0.2 0.06 0
0.21 0.06 0
0.22 0.06 0
0.23 0.06 0
0.24 0.06 0
0.25 0.06 0
0.26 0.06 0
0.27 0.06 0
0.28 0.06 0
0.29 0.06 0
0.3 0.06 0
0.31 0.06 0
0.32 0.06 0
0.33 0.06 0
0.34 0.06 0
0.35 0.06 0
0.36 0.06 0
0.37 0.06 0
0.38 0.06 0
0.39 0.06 0
0.4 0.06 0
0.41 0.06 0
0.42 0.06 0
0.43 0.06 0
0.44 0.06 0
0.45 0.06 0
0.46 0.06 0
0.47 0.06 0
0.48 0.06 0
0.49 0.06 0
0.5 0.06 0
0.51 0.06 0
0.52 0.06 0
0.53 0.06 0
0.54 0.06 0
0.55 0.06 0
0.56 0.06 0
0.57 0.06 0
0.58 0.06 0
0.59 0.06 0
0.6 0.06 0
0.61 0.06 0
0 0.07 0
0.01 0.07 0
0.02 0.07 0
0.03 0.07 0
0.04 0.07 0
0.05 0.07 0
0.06 0.07 0
0.07 0.07 0
0.08 0.07 0
0.09 0.07 0
0.1 0.07 0
0.11 0.07 0
0.12 0.07 0
0.13 0.07 0
0.14 0.07 0
0.15 0.07 0
0.16 0.07 0
0.17 0.07 0
0.18 0.07 0
0.19 0.07 0
0.2 0.07 0
0.21 0.07 0
0.22 0.07 0
0.23 0.07 0
0.24 0.07 0
0.25 0.07 0
0.26 0.07 0
0.27 0.07 0
0.28 0.07 0
0.29 0.07 0
0.3 0.07 0
0.31 0.07 0
0.32 0.07 0
0.33 0.07 0
0.34 0.07 0
0.35 0.07 0
0.36 0.07 0
0.37 0.07 0
0.38 0.07 0
0.39 0.07 0
0.4 0.07 0
0.41 0.07 0
0.42 0.07 0
0.43 0.07 0
0.44 0.07 0
0.45 0.07 0
0.46 0.07 0
0.47 0.07 0
0.48 0.07 0
0.49 0.07 0
0.5 0.07 0
0.51 0.07 0
0.52 0.07 0
0.53 0.07 0
0.54 0.07 0
0.55 0.07 0
0.56 0.07 0
0.57 0.07 0
0.58 0.07 0
0.59 0.07 0
0.6 0.07 0
0.61 0.07 0
0 0.08 0
0.01 0.08 0
0.02 0.08 0
0.03 0.08 0
0.04 0.08 0
0.05 0.08 0
0.06 0.08 0
0.07 0.08 0
0.08 0.08 0
0.09 0.08 0
0.1 0.08 0
0.11 0.08 0
0.12 0.08 0
0.13 0.08 0
0.14 0.08 0
0.15 0.08 0
0.16 0.08 0
0.17 0.08 0
0.18 0.08 0
0.19 0.08 0
0.2 0.08 0
0.21 0.08 0
0.22 0.08 0
0.23 0.08 0
0.24 0.08 0
0.25 0.08 0
0.26 0.08 0
0.27 0.08 0
0.28 0.08 0
0.29 0.08 0
0.3 0.08 0
0.31 0.08 0
0.32 0.08 0
0.33 0.08 0
0.34 0.08 0
0.35 0.08 0
0.36 0.08 0
0.37 0.08 0
0.38 0.08 0
0.39 0.08 0
0.4 0.08 0
0.41 0.08 0
0.42 0.08 0
0.43 0.08 0
0.44 0.08 0
0.45 0.08 0
0.46 0.08 0
0.47 0.08 0
0.48 0.08 0
0.49 0.08 0
0.5 0.08 0
0.51 0.08 0
0.52 0.08 0
0.53 0.08 0
0.54 0.08 0
0.55 0.08 0
0.56 0.08 0
0.57 0.08 0
0.58 0.08 0
0.59 0.08 0
0.6 0.08 0
0.61 0.08 0
0 0.09 0
0.01 0.09 0
0.02 0.09 0
0.03 0.09 0
0.04 0.09 0
0.05 0.09 0
0.06 0.09 0
0.07 0.09 0
0.08 0.09 0
0.09 0.09 0
0.1 0.09 0
0.11 0.09 0
0.12 0.09 0
0.13 0.09 0
0.14 0.09 0
0.15 0.09 0
0.16 0.09 0
0.17 0.09 0
0.18 0.09 0
0.19 0.09 0
0.2 0.09 0
0.21 0.09 0
0.22 0.09 0
0.23 0.09 0
0.24 0.09 0
0.25 0.09 0
0.26 0.09 0
0.27 0.09 0
0.28 0.09 0
0.29 0.09 0
0.3 0.09 0
0.31 0.09 0
0.32 0.09 0
0.33 0.09 0
0.34 0.09 0
0.35 0.09 0
0.36 0.09 0
0.37 0.09 0
0.38 0.09 0
0.39 0.09 0
0.4 0.09 0
0.41 0.09 0
0.42 0.09 0
0.43 0.09 0
0.44 0.09 0
0.45 0.09 0
0.46 0.09 0
0.47 0.09 0
0.48 0.09 0
0.49 0.09 0
0.5 0.09 0
0.51 0.09 0
0.52 0.09 0
0.53 0.09 0
0.54 0.09 0
0.55 0.09 0
0.56 0.09 0
0.57 0.09 0
0.58 0.09 0
0.59 0.09 0
0.6 0.09 0
0.61 0.09 0
0 0.1 0
0.01 0.1 0
0.02 0.1 0
0.03 0.1 0
0.04 0.1 0
0.05 0.1 0
0.06 0.1 0
0.07 0.1 0
0.08 0.1 0
0.09 0.1 0
0.1 0.1 0
0.11 0.1 0
0.12 0.1 0
0.13 0.1 0
0.14 0.1 0
0.15 0.1 0
0.16 0.1 0
0.17 0.1 0
0.18 0.1 0
0.19 0.1 0
0.2 0.1 0
0.21 0.1 0
0.22 0.1 0
0.23 0.1 0
0.24 0.1 0
0.25 0.1 0
0.26 0.1 0
0.27 0.1 0
0.28 0.1 0
0.29 0.1 0
0.3 0.1 0
0.31 0.1 0
0.32 0.1 0
0.33 0.1 0
0.34 0.1 0
0.35 0.1 0
0.36 0.1 0
0.37 0.1 0
0.38 0.1 0
0.39 0.1 0
0.4 0.1 0
0.41 0.1 0
0.42 0.1 0
0.43 0.1 0
0.44 0.1 0
0.45 0.1 0
0.46 0.1 0
0.47 0.1 0
0.48 0.1 0
0.49 0.1 0
0.5 0.1 0
0.51 0.1 0
0.52 0.1 0
0.53 0.1 0
0.54 0.1 0
0.55 0.1 0
0.56 0.1 0
0.57 0.1 0
0.58 0.1 0
0.59 0.1 0
0.6 0.1 0
0.61 0.1 0
0 0.11 0
0.01 0.11 0
0.02 0.11 0
0.03 0.11 0
0.04 0.11 0
0.05 0.11 0
0.06 0.11 0
0.07 0.11 0
0.08 0.11 0
0.09 0.11 0
0.1 0.11 0
0.11 0.11 0
0.12 0.11 0
0.13 0.11 0
0.14 0.11 0
0.15 0.11 0
0.16 0.11 0
0.17 0.11 0
0.18 0.11 0
0.19 0.11 0
0.2 0.11 0
0.21 0.11 0
0.22 0.11 0
0.23 0.11 0
0.24 0.11 0
0.25 0.11 0
0.26 0.11 0
0.27 0.11 0
0.28 0.11 0
0.29 0.11 0
0.3 0.11 0
0.31 0.11 0
0.32 0.11 0
0.33 0.11 0
0.34 0.11 0
0.35 0.11 0
0.36 0.11 0
0.37 0.11 0
0.38 0.11 0
0.39 0.11 0
0.4 0.11 0
0.41 0.11 0
0.42 0.11 0
0.43 0.11 0
0.44 0.11 0
0.45 0.11 0
0.46 0.11 0
0.47 0.11 0
0.48 0.11 0
0.49 0.11 0
0.5 0.11 0
0.51 0.11 0
0.52 0.11 0
0.53 0.11 0
0.54 0.11 0
0.55 0.11 0
0.56 0.11 0
0.57 0.11 0
0.58 0.11 0
0.59 0.11 0
0.6 0.11 0
0.61 0.11 0
0 0.12 0
0.01 0.12 0
0.02 0.12 0
0.03 0.12 0
0.04 0.12 0
0.05 0.12 0
0.06 0.12 0
0.07 0.12 0
0.08 0.12 0
0.09 0.12 0
0.1 0.12 0
0.11 0.12 0
0.12 0.12 0
0.13 0.12 0
0.14 0.12 0
0.15 0.12 0
0.16 0.12 0
0.17 0.12 0
0.18 0.12 0
0.19 0.12 0
0.2 0.12 0
0.21 0.12 0
0.22 0.12 0
0.23 0.12 0
0.24 0.12 0
0.25 0.12 0
0.26 0.12 0
0.27 0.12 0
0.28 0.12 0
0.29 0.12 0
0.3 0.12 0
0.31 0.12 0
0.32 0.12 0
0.33 0.12 0
0.34 0.12 0
0.35 0.12 0
0.36 0.12 0
0.37 0.12 0
0.38 0.12 0
0.39 0.12 0
0.4 0.12 0
0.41 0.12 0
0.42 0.12 0
0.43 0.12 0
0.44 0.12 0
0.45 0.12 0
0.46 0.12 0
0.47 0.12 0
0.48 0.12 0
0.49 0.12 0
0.5 0.12 0
0.51 0.12 0
0.52 0.12 0
0.53 0.12 0
0.54 0.12 0
0.55 0.12 0
0.56 0.12 0
0.57 0.12 0
0.58 0.12 0
0.59 0.12 0
0.6 0.12 0
0.61 0.12 0
0 0.13 0
0.01 0.13 0
0.02 0.13 0
0.03 0.13 0
0.04 0.13 0
0.05 0.13 0
0.06 0.13 0
0.07 0.13 0
0.08 0.13 0
0.09 0.13 0
0.1 0.13 0
0.11 0.13 0
0.12 0.13 0
0.13 0.13 0
0.14 0.13 0
0.15 0.13 0
0.16 0.13 0
0.17 0.13 0
0.18 0.13 0
0.19 0.13 0
0.2 0.13 0
0.21 0.13 0
0.22 0.13 0
0.23 0.13 0
0.24 0.13 0
0.25 0.13 0
0.26 0.13 0
0.27 0.13 0
0.28 0.13 0
0.29 0.13 0
0.3 0.13 0
0.31 0.13 0
0.32 0.13 0
0.33 0.13 0
0.34 0.13 0
0.35 0.13 0
0.36 0.13 0
0.37 0.13 0
0.38 0.13 0
0.39 0.13 0
0.4 0.13 0
0.41 0.13 0
0.42 0.13 0
0.43 0.13 0
0.44 0.13 0
0.45 0.13 0
0.46 0.13 0
0.47 0.13 0
0.48 0.13 0
[...]
POINT_DATA 93248

SCALARS v double
LOOKUP_TABLE default
0
0
0
0
0
0
0
0
0
0
0
0
0
0
0
0
0
0
0
0
0
0
0
0
0
0
0
0
0
0
0
0
0
0
0
0
0
0
-0.0692629
0
0
0
0
0
-0.0731799
0
0
0
0
0
0
0
0
0
0
0
0
0
0
0
0
0
0
0.0452757
-0.0718102
0.0485386
0.0350604
0.0190849
0
-0.00339887
-0.0113059
-0.0167744
-0.0206004
-0.0237308
-0.0275399
-0.0273418
-0.0271332
-0.0268906
-0.0269062
-0.0263339
-0.0258106
-0.0245034
-0.03135
-0.0278458
-0.024548
-0.0262503
-0.0265248
-0.0266106
-0.0266658
-0.0266944
-0.0266906
-0.0266451
-0.0265565
-0.0266036
-0.0277408
-0.0266609
-0.0259206
-0.0262759
-0.0505158
-0.0255583
-0.0254513
-0.0217191
-0.0284881
-0.0464307
-0.0290178
-0.0294539
-0.0317113
-0.0423281
-0.0955293
-0.0280123
-0.0370307
-0.0262864
-0.0261556
-0.0258687
-0.0284208
-0.0316818
-0.0485981
-0.0304882
-0.0668141
-0.0272162
-0.0241967
-0.0212601
-0.0170602
0
0
0.0264767
0.051184
0.0589439
0.0547385
0.038966
0.0312795
0.0195996
0.00750483
-0.00436848
-0.0143659
-0.0227558
-0.0972877
-0.0336621
-0.0346594
-0.0301221
-0.035513
-0.0344561
-0.0355593
-0.0380323
-0.11219
-0.0352199
-0.037148
-0.0353684
-0.0351351
-0.0352255
-0.0353481
-0.0354271
-0.0354429
-0.0353759
-0.0351838
-0.0349865
-0.0736371
-0.0353487
-0.0341355
-0.0352776
-0.0345665
-0.0319877
-0.0293755
-0.0354691
-0.0388156
-0.0403714
-0.0397408
-0.0405443
-0.041157
-0.0428543
-0.0426202
-0.0383973
-0.0370307
-0.0354581
-0.0356552
-0.0370053
-0.0375785
-0.0393613
-0.041705
-0.038036
-0.036257
-0.0771593
-0.0300071
-0.0264004
-0.0227489
0
0
0.0135393
0.0348904
0.0447364
0.0519354
0.0534485
0.0418267
0.0308628
0.0191336
0.00695835
-0.00552424
-0.0159763
-0.0262951
-0.031687
-0.0349665
-0.0369049
-0.0385615
0
-0.0386813
-0.0401006
-0.0410616
-0.0396502
-0.0394192
-0.0390119
-0.0389508
-0.0390629
-0.0392054
-0.0393145
-0.0393673
-0.0393627
-0.0393415
-0.0395317
-0.0406979
-0.0404951
-0.040542
-0.0380105
-0.0372289
-0.036211
-0.0360456
-0.039338
-0.0420167
-0.0438233
-0.0448187
-0.0439856
-0.0446053
-0.0452603
-0.041868
-0.0407085
-0.039903
-0.040519
-0.0403717
-0.0405787
-0.0408199
-0.0412273
-0.0412087
-0.0397581
-0.038265
-0.0368421
-0.0326376
-0.0293741
-0.0272489
0
0
0.00769903
0.0231614
0.0364144
0.0398355
0.040772
0.0363073
0.0294231
0.0207535
0.0109525
0.000437086
-0.00985858
-0.0194406
-0.0266608
-0.0317473
-0.0350635
-0.0372622
-0.0375867
-0.0389739
-0.0402448
-0.0402694
-0.040243
-0.0403308
-0.0404164
-0.0405704
-0.0407606
-0.0409371
-0.0410774
-0.0411693
-0.0412156
-0.0412548
-0.0414038
-0.0418743
-0.042577
-0.0421862
-0.040699
-0.0397621
-0.0392745
-0.0394533
-0.0413584
-0.0431428
-0.0445204
-0.0453612
-0.0453932
-0.0455559
-0.045056
-0.0416542
-0.0420409
-0.0420314
-0.0422532
-0.0421711
-0.0420341
-0.0418147
-0.0414527
-0.0407644
-0.0396184
-0.0381063
-0.03612
-0.0331908
-0.0306873
-0.0309259
0
0
0.00453982
0.0144171
0.0224624
0.0264731
0.0277587
0.026201
0.022247
0.016397
0.00963609
0.00174637
-0.00681582
-0.0152853
-0.0225863
-0.0283288
-0.032715
-0.0358758
-0.0371119
-0.0385381
-0.0391833
-0.0397513
-0.0402786
-0.0407403
-0.041133
-0.0414791
-0.0417808
-0.0420126
-0.0422003
-0.0423344
-0.0424047
-0.042414
-0.0423959
-0.0425994
-0.0446783
-0.0435857
-0.0424288
-0.0417627
-0.0415959
-0.0419835
-0.0429455
-0.0439832
-0.0448563
-0.0454536
-0.0457652
-0.0459589
-0.0456588
0
-0.0431886
-0.0434145
-0.0433241
-0.0431203
-0.0428135
-0.0423157
-0.0415492
-0.0405823
-0.0394146
-0.0379718
-0.0362308
-0.0341488
-0.0314987
-0.0337297
-0.0800128
0
0.00257236
0.00863088
0.0134293
0.0161418
0.0170363
0.016613
0.0140224
0
0.00564395
5.43342e-06
-0.00681482
-0.0140566
-0.0206907
-0.0263533
-0.031128
-0.0353501
-0.0359451
-0.0363376
-0.0380775
-0.0393929
-0.0404316
-0.0412246
-0.041839
-0.0423411
-0.0427605
-0.0430354
-0.0432875
-0.0434759
-0.0435663
-0.0435258
-0.0432965
-0.0429173
-0.100784
-0.0446467
-0.0437662
-0.0434459
-0.0434865
-0.0438263
-0.0443768
-0.0449657
-0.0454725
-0.045825
-0.0460485
-0.0459916
-0.0453745
-0.0434527
-0.0439345
-0.0441621
-0.0441212
-0.0439329
-0.0435974
-0.0429757
-0.041934
-0.0408319
-0.0397055
-0.0385194
-0.0376446
-0.0383684
-0.0406197
-0.034427
0
0
0.00123464
0.0046961
0.00729246
0.00860324
0.00866417
0.0074904
0.00673581
0.00419057
0.000987865
-0.00339935
-0.00897071
-0.0153107
-0.0208265
-0.0257956
-0.0303773
-0.0359335
-0.0348944
-0.0360462
-0.0381635
-0.0398399
-0.0412007
-0.0421223
-0.0428154
-0.0433951
-0.0439157
-0.0441912
-0.0445425
-0.0448048
-0.0449357
-0.0449231
-0.044874
-0.0451062
-0.0467924
-0.0460946
-0.0455357
-0.0452986
-0.0453173
-0.0455235
-0.0458311
-0.0461539
-0.0464307
-0.0466231
-0.0466186
-0.0464654
-0.0460153
-0.0453018
-0.0451628
-0.0451261
-0.0450282
-0.044861
-0.0445863
-0.0439791
-0.0426227
-0.0415066
-0.0405096
-0.0394259
-0.0383533
-0.0715229
-0.0274502
-0.0337643
0
0
0.00027409
0.0018984
0.00291542
0.00308467
0.00248138
0.00132096
0.000208545
-0.00156127
-0.00407756
-0.00764678
-0.012366
-0.0189562
-0.0225863
-0.0261251
-0.0289502
-0.0290621
-0.0352289
-0.0385732
-0.040178
-0.0414168
-0.0427411
-0.0434512
-0.0440542
-0.044625
-0.0441912
-0.0456912
-0.0460944
-0.0463993
-0.0465609
-0.0465166
-0.0464698
-0.0466796
-0.0472363
-0.0472506
-0.0471291
-0.0470605
-0.0470908
-0.047204
-0.0473618
-0.0475177
-0.0476337
-0.0476765
-0.0475989
-0.0474082
-0.0470908
-0.0467191
-0.0464632
-0.0462665
-0.0460734
-0.045884
-0.0457078
-0.0453824
-0.0434846
-0.0426044
-0.0419115
-0.0411508
-0.0404021
-0.0396629
-0.0358427
-0.0346945
0
0
-0.000444632
-0.000172938
-0.000345802
-0.00111257
-0.00231739
-0.0037386
-0.00516348
-0.00684447
-0.00908115
-0.012079
-0.0156009
-0.0178004
-0.0235608
-0.0274605
-0.0301221
-0.0319546
-0.0358264
-0.0388766
-0.0409293
-0.0423263
-0.0548931
-0.0446852
-0.0453298
-0.045988
-0.0467237
-0.0472154
-0.047753
-0.0482077
-0.0484722
-0.0483242
-0.0479132
-0.0480353
-0.0483952
-0.0486191
-0.0487184
-0.048774
-0.0488359
-0.0489073
-0.0489792
-0.0490308
-0.0490395
-0.048985
-0.048848
-0.0486371
-0.0483668
-0.0480715
-0.0477812
-0.0474868
-0.0471692
-0.0468361
-0.0465421
-0.0462669
-0.0444289
-0.0442658
-0.0438138
-0.0431448
-0.0423694
-0.0412694
-0.0390123
-0.0361864
0
0
-0.00100298
-0.00176473
-0.00286607
-0.0044647
-0.00623805
-0.0080593
-0.0098209
-0.0116764
-0.0139147
-0.0167133
-0.0199243
-0.0231418
-0.0269254
-0.0301246
-0.0323568
-0.034668
-0.037453
-0.0399798
-0.0420202
-0.0436731
-0.045086
-0.0459852
-0.0467387
-0.0474108
-0.0478864
-0.0488166
-0.0496061
-0.0503049
-0.0508502
-0.0510154
-0.0485616
-0.0492199
-0.0498652
-0.0502239
-0.0504095
-0.0505158
-0.0505971
-0.0506624
-0.0506915
-0.0506764
-0.0506119
-0.0504901
-0.0502902
-0.0500452
-0.0497709
-0.0494756
-0.0491526
-0.0487776
-0.048313
-0.0477133
-0.0468367
-0.0457967
-0.0477037
-0.0470221
-0.0461114
-0.0452353
-0.0443199
-0.0430748
-0.0409687
-0.0377964
0
0
-0.00145555
-0.00303996
-0.00487384
-0.00968889
-0.00955171
-0.0118414
-0.0139974
-0.0161508
-0.0185509
-0.0213612
-0.024469
-0.0276524
-0.0307949
-0.0335719
-0.0347027
-0.0371625
-0.0396102
-0.0417803
-0.0436406
-0.0451158
-0.0465178
-0.047501
-0.0483055
-0.0490395
-0.0497782
-0.050686
-0.0516808
-0.0526667
-0.0534864
-0.0538242
0
-0.0511937
-0.051815
-0.0520588
-0.0521992
-0.0523078
-0.0524041
-0.0524822
-0.0524992
-0.0524379
-0.0523206
-0.0521651
-0.0518723
-0.0515749
-0.0512761
-0.0509653
-0.0506189
-0.0501956
-0.0496621
-0.0491066
-0.0484785
-0.048085
-0.0487926
-0.0485981
-0.0479462
-0.0471353
-0.0461878
-0.0448725
-0.0427008
-0.0393903
0
0
-0.00184292
-0.00413227
-0.00668559
-0.00955478
-0.0124692
-0.0152577
-0.0178455
-0.0203483
-0.0229862
-0.0259131
-0.0289631
-0.0319699
-0.0348188
-0.0376358
0
-0.0400039
-0.0421942
-0.0440518
-0.045779
-0.0471399
-0.0482691
-0.0491751
-0.0499612
-0.0507226
-0.0515595
-0.0525944
-0.0538987
-0.0552955
-0.0563337
-0.0553751
-0.0529704
-0.0531053
-0.0534457
-0.0537129
-0.0539192
-0.0540975
-0.0542597
-0.054396
-0.0544125
-0.0542969
-0.0541255
-0.0540742
-0.0535383
-0.0531808
-0.0528611
-0.0525459
-0.0522033
-0.0517672
-0.0511728
-0.0508369
-0.0504914
-0.0502524
-0.0502654
-0.0500586
-0.0495757
-0.0488839
-0.0479573
-0.0466227
-0.0443722
-0.0409366
0
0
-0.00218318
-0.00508135
-0.00824003
-0.0115406
-0.0150884
-0.0183871
-0.0214259
-0.0243116
-0.0272199
-0.0313215
-0.0333279
-0.0361372
-0.0385833
-0.0405582
-0.0412545
-0.0430641
-0.0447869
-0.046393
-0.0483061
-0.0494627
-0.0503006
-0.0510166
-0.0516973
-0.0524049
-0.0532375
-0.0543744
-0.0561106
-0.0583659
-0.0614755
-0.0580777
-0.0558332
-0.0552106
-0.0552168
-0.0554049
-0.0556434
-0.0559111
-0.0561736
-0.0564612
-0.0564884
-0.05625
-0.0558375
-0.0551052
-0.0550696
-0.0548035
-0.0544989
-0.0542031
-0.0539044
-0.0534981
-0.0526779
-0.0527348
-0.0525608
-0.0522777
-0.0519838
-0.0516952
-0.051259
-0.050631
-0.0496466
-0.0483493
-0.0460046
-0.0424237
0
0
-0.00249111
-0.00593264
-0.00968889
-0.0137581
-0.017591
-0.0213254
-0.0248068
-0.0280934
-0.0313215
-0.0345502
-0.0375787
-0.0402369
-0.0423987
-0.0440398
-0.0451782
-0.0464171
-0.0476182
-0.0487961
-0.051541
-0.0520528
-0.0524494
-0.0529378
-0.0534712
-0.0540481
-0.0547221
-0.0556891
-0.0575461
-0.0424047
-0.0755819
-0.0603976
-0.057241
-0.056688
-0.0567614
-0.0569992
-0.0573248
-0.0577672
-0.0583762
-0.0588214
-0.0588783
-0.0584187
-0.0578119
-0.0572256
-0.0568451
-0.0564991
-0.0561757
-0.0559017
-0.055677
-0.0554246
-0.0422532
-0.0548631
-0.0546802
-0.0542789
-0.0537047
-0.0534999
-0.0530835
-0.0525614
-0.0518333
-0.0501874
-0.0476253
-0.0438355
0
0
-0.00277721
-0.00667757
-0.0109442
-0.0154338
-0.0198633
-0.0240856
-0.0280233
-0.0317188
-0.0352665
-0.0386593
-0.0417232
-0.0442882
-0.0462759
-0.0477426
-0.0488413
-0.0497881
-0.0505586
-0.0509439
-0.103751
-0.0544305
-0.0545322
-0.0548931
-0.0553059
-0.0556868
-0.0559958
-0.0560963
-0.0553774
-0.0508279
-0.0293893
-0.049531
-0.0551243
-0.0569952
-0.0578216
-0.0583555
-0.05886
-0.0595274
-0.0604895
-0.0615992
-0.0619409
-0.0608989
-0.0598791
-0.0591428
-0.0586233
-0.0582102
-0.0578487
-0.0575751
-0.0573346
-0.0570629
-0.0566357
-0.0569651
-0.0567629
-0.056421
-0.0563349
-0.0555692
-0.0549739
-0.0545548
-0.0536582
-0.0520525
-0.0492517
-0.0451326
0
0
-0.00307976
-0.00731116
-0.0121078
-0.0171077
-0.0220447
-0.0267147
-0.0311031
-0.0352132
-0.0390877
-0.0426704
-0.0457692
-0.048283
-0.0501725
-0.051524
-0.0524962
-0.0532708
-0.0539616
-0.0547468
-0.0566887
-0.0568612
-0.0569721
-0.0571572
-0.0573572
-0.0574992
-0.0574742
-0.0570595
-0.0557677
-0.0529088
-0.0487445
-0.0531277
-0.0562354
-0.0579648
-0.0589626
-0.0596536
-0.0602512
-0.0610947
-0.0625689
-0.0650318
-0.0670759
-0.0638068
-0.0618417
-0.0608528
-0.0602775
-0.0598594
-0.0594682
-0.0592369
-0.059016
-0.0588308
-0.0588645
-0.0594713
-0.0589366
-0.0584134
-0.058067
-0.0575567
-0.0565125
-0.0567926
-0.055864
-0.0542561
-0.0510889
-0.0462292
0
0
-0.00347355
-0.000172938
-0.013279
-0.0187918
-0.0242058
-0.0291876
-0.0340561
-0.0386021
-0.0428198
-0.0466072
-0.049685
-0.0521866
-0.0540583
-0.0553575
-0.0561933
-0.0567983
-0.0573553
-0.0580088
-0.0588246
-0.0591819
-0.059355
-0.0594668
-0.0595342
-0.0595178
-0.0593333
-0.0588344
-0.0578254
-0.0567737
-0.0565892
-0.0576615
-0.0588277
-0.0597593
-0.0604801
-0.0610707
-0.0614818
-0.0621674
-0.0636769
-0.0679384
-0.080892
-0.0661362
-0.0628635
-0.0619949
-0.061631
-0.0613697
-0.0594682
-0.0608964
-0.0607026
-0.0605344
-0.0607805
-0.0625108
-0.061068
-0.0603545
-0.0601394
-0.0602417
-0.0613606
-0.0599433
-0.0586743
-0.0573345
-0.0539297
-0.0469501
0
0
-0.00357784
-0.00868391
-0.0143922
-0.0204774
-0.0264162
-0.0318211
-0.0370001
-0.0419457
-0.0465292
-0.0505475
-0.0533638
-0.0559484
-0.0579324
-0.0592792
-0.0599359
-0.0603212
-0.060684
-0.061161
-0.0615568
-0.0617617
-0.0618459
-0.0618648
-0.0618321
-0.0617301
-0.0615206
-0.0611623
-0.0606565
-0.0598975
-0.0614872
-0.0613294
-0.0614536
-0.0618083
-0.0622074
-0.0625891
-0.0625461
-0.0624637
-0.0615271
-0.0568242
-0.0342599
-0.055084
-0.0604313
-0.062069
-0.0625606
-0.0626644
-0.0625948
-0.062541
-0.0624086
-0.0621944
-0.0622228
-0.104336
-0.0627347
-0.0622211
-0.062215
-0.0623314
-0.0624489
-0.0620243
-0.0623681
-0.0618647
-0.0609499
-0.0594831
0
0
-0.00377216
-0.00938177
-0.0154847
-0.0223238
-0.0287641
-0.0337161
-0.039658
-0.0452378
-0.0502893
-0.0546939
-0.0564985
-0.0595749
-0.0618611
-0.063386
-0.0637009
-0.0638041
-0.0639642
-0.0644491
-0.0645876
-0.0645658
-0.0644862
-0.064381
-0.0642497
-0.0640882
-0.0638917
-0.0636585
-0.0632859
-0.0623566
-0.110257
-0.0640203
-0.0637624
-0.0638725
-0.064025
-0.0639855
-0.0640757
-0.0634572
-0.0618918
-0.0586216
-0.0538854
-0.0580073
-0.0613183
-0.0629084
-0.0636588
-0.0640245
-0.0641922
-0.0642746
-0.0643027
-0.0643499
-0.064706
-0.0659842
-0.0649959
-0.0645444
-0.0644772
-0.0645296
-0.06456
-0.0646385
-0.0649628
-0.0648043
-0.0635578
-0.0601936
0
0
-0.00399999
-0.0100234
-0.0163866
-0.0363778
-0.0313629
0
-0.0425097
-0.0486251
-0.0541287
-0.0592941
-0.00681482
-0.0634744
-0.065872
-0.0676994
-0.0673986
-0.0672714
-0.0672079
-0.0681277
-0.0678287
-0.0674959
-0.0672324
-0.0669944
-0.0667575
-0.0665291
-0.0663367
-0.0663157
-0.0667958
-0.0658438
-0.0669624
-0.0665079
-0.0662473
-0.0662142
-0.0662518
-0.0661559
-0.0658665
-0.0651542
-0.0639473
-0.0623842
-0.0613927
-0.0622853
-0.0635842
-0.0645393
-0.065151
-0.065607
-0.0659019
-0.0660943
-0.0662467
-0.0664087
-0.0666597
-0.0669806
-0.0667839
-0.0666789
-0.0667182
-0.0668017
-0.0668141
-0.0669806
-0.067159
-0.0668443
-0.0651906
-0.0612963
0
0
-0.00424891
-0.010723
-0.0176892
-0.0253597
-0.0326206
-0.0386439
-0.0454581
-0.0517929
-0.0574352
-0.0621409
-0.0644906
-0.0673451
-0.0690777
-0.0712201
-0.0715694
-0.0710856
-0.0704376
-0.0995932
-0.0709685
-0.0704081
-0.0700228
-0.069678
-0.0693134
-0.0689804
-0.0686525
-0.0681604
-0.0665894
-0.0678504
-0.0684314
-0.0684864
-0.0684574
-0.0685313
-0.0687069
-0.0687027
-0.068143
-0.0673927
-0.0665121
-0.0657304
-0.0654207
-0.0656532
-0.0661366
-0.066599
-0.0668622
-0.0674262
-0.0677707
-0.0679904
-0.068199
-0.0683847
-0.0685302
-0.0685669
-0.0685146
-0.0686616
-0.0688665
-0.0690531
-0.0689513
-0.0691058
-0.0691174
-0.0685447
-0.0666811
-0.062603
0
0
-0.00449464
-0.0113936
-0.0188064
-0.0266111
-0.0343048
-0.0415228
-0.048536
-0.055076
-0.0608914
-0.0657946
-0.069128
-0.0713584
-0.0719224
-0.138686
-0.0751479
-0.074524
-0.0741623
-0.0745531
-0.0739973
-0.073437
-0.0729383
-0.0724503
-0.0718846
-0.071451
-0.0710832
-0.0706687
-0.0701942
-0.0703069
-0.0704515
-0.0704877
-0.0705362
-0.0707719
-0.0713681
-0.0719982
-0.0707429
-0.0698643
-0.0690496
-0.0685334
-0.0683405
-0.0683951
-0.0686007
-0.0689136
-0.0695278
-0.0695544
-0.0697994
-0.0699489
-0.070176
-0.0703704
-0.0704716
-0.0703423
-0.0701798
-0.0705481
-0.0708914
-0.0712373
-0.0710018
-0.0711897
-0.070972
-0.0700356
-0.0681707
-0.0640435
0
0
-0.00473466
-0.0120439
-0.0198777
-0.0280541
-0.0362377
-0.044113
-0.0514908
-0.0584138
-0.0645979
-0.0701205
-0.0734804
-0.0758367
-0.0770914
-0.0790291
-0.078669
-0.0780743
-0.0775332
-0.0773347
-0.0768906
-0.0763628
-0.0758292
-0.0752515
-0.0743351
-0.0738883
-0.0735816
-0.0732663
-0.0729632
-0.0727232
-0.0726182
-0.0725041
-0.0724571
-0.0727007
-0.0738746
-0.0780959
-0.0731673
-0.0723972
-0.0712612
-0.0708996
-0.0707759
-0.0707887
-0.0708757
-0.0710216
-0.0713024
-0.0715242
-0.0717375
-0.0720341
-0.0722174
-0.0724137
-0.0725345
-0.0721775
-0.0716067
-0.0723986
-0.0727318
-0.0728207
-0.0736087
-0.0735019
-0.0728289
-0.07116
-0.0696796
-0.0655978
0
0
-0.00497378
-0.0126954
-0.0209679
-0.0296041
-0.038302
-0.0466998
-0.0541965
-0.0617705
-0.0681839
-0.0729179
-0.0774777
-0.0800518
-0.0814574
-0.0822094
-0.0820602
-0.0814569
-0.0804237
-0.0803796
-0.0798706
-0.0792938
-0.0787431
-0.0781647
-0.0764469
-0.0762924
-0.0761453
-0.0758564
-0.0755186
-0.0750367
-0.0747389
-0.0744394
-0.074077
-0.0736371
-0.0720904
-0.0640899
-0.0706416
-0.0711908
-0.0725306
-0.0728207
-0.0729175
-0.0729772
-0.0730023
-0.0729731
-0.0731931
-0.0734953
-0.0737732
-0.0740233
-0.074231
-0.0744646
-0.0747093
-0.0741263
-0.0724133
-0.0746806
-0.0750178
-0.0751724
-0.0755798
-0.0756162
-0.0747262
-0.0715229
-0.0713435
-0.0672486
0
0
-0.00521474
-0.0133577
-0.0220908
-0.0312314
-0.0404908
-0.0495465
-0.058521
-0.0655184
-0.0720357
-0.0774936
-0.0816902
-0.0843099
-0.0856071
-0.0859924
-0.0857693
-0.0853246
-0.0854391
-0.0839383
-0.0829948
-0.0822427
-0.0816643
-0.0813245
-0.045988
-0.0789801
-0.0788353
-0.0784221
-0.077975
-0.0727232
-0.0768965
-0.0764291
-0.0756333
-0.0752368
-0.0740436
-0.0721993
-0.0732401
-0.0738525
-0.0744479
-0.0747806
-0.0749763
-0.075097
-0.075071
-0.0747136
-0.0750518
-0.0754748
-0.0757989
-0.0760332
-0.0762146
-0.0763726
-0.0765214
-0.0769323
-0.0284208
-0.0890192
-0.0773044
-0.0773602
-0.0775974
-0.0777682
-0.0771593
-0.0212601
-0.0736026
-0.0689221
0
0
-0.00545604
-0.0140269
-0.0232377
-0.0329069
-0.0427301
-0.0523398
-0.0613553
-0.0686944
-0.0756476
-0.0815308
-0.0858856
-0.0885467
-0.0897559
-0.0899487
-0.0895716
-0.088945
-0.0881611
-0.0870057
-0.0859558
-0.085055
-0.0842748
-0.0834142
-0.0819606
-0.0816414
-0.0813334
-0.0807173
-0.0801084
-0.079474
-0.079067
-0.0787138
-0.0787373
-0.0776318
-0.0767648
-0.076148
-0.0761842
-0.0763916
-0.0766482
-0.0768761
-0.077081
-0.0772616
-0.0772235
-0.0760814
-0.0769266
-0.0775264
-0.0778587
-0.078066
-0.0782184
-0.0783399
-0.0784193
-0.0783362
-0.0772124
-0.078827
-0.0791685
-0.0793105
-0.079411
-0.0793171
-0.0784844
-0.0759578
-0.0749051
-0.0704605
0
0
-0.00569138
-0.0146879
-0.0243921
-0.0346218
-0.0450368
-0.0552531
-0.0648554
-0.0713964
-0.0791854
-0.0856246
-0.0901945
-0.0928746
-0.0939566
-0.0939624
-0.0934072
-0.0926066
-0.0913508
-0.0899719
-0.0887748
-0.0877659
-0.0869451
-0.0861661
-0.0850799
-0.0844329
-0.08396
-0.0828993
-0.0821938
-0.0816642
-0.08124
-0.0808491
-0.0804663
-0.0798523
-0.0792879
-0.0789087
-0.0787611
-0.0787666
-0.0788589
-0.0790009
-0.0791899
-0.0794466
-0.0796391
-0.048985
-0.0791257
-0.079673
-0.0799238
-0.0800936
-0.0802333
-0.0803447
-0.0804093
-0.0803816
-0.0802599
-0.0807237
-0.0810239
-0.0811877
-0.0812404
-0.0810838
-0.0803945
-0.0791657
-0.0768535
-0.0720539
0
0
-0.00590659
-0.0153072
-0.0255287
-0.0363778
-0.0474136
-0.0583127
-0.0690525
-0.0167744
-0.0833257
-0.0901047
-0.0947431
-0.0972877
-0.0981817
-0.0979498
-0.0972146
-0.096455
-0.094558
-0.0927657
-0.0914542
-0.0903829
-0.0896616
-0.0887326
-0.0877349
-0.0869163
-0.0864462
-0.0848534
-0.0843053
-0.0838868
-0.0834556
-0.0830099
-0.0825413
-0.0820425
-0.0815921
-0.081257
-0.0810566
-0.0809765
-0.0809889
-0.0810687
-0.0811931
-0.0813117
-0.0812337
-0.0804388
-0.0810604
-0.0815318
-0.0818402
-0.0820662
-0.0822453
-0.0823839
-0.0824794
-0.0825392
-0.0826163
-0.0828046
-0.0829923
-0.0831308
-0.0831963
-0.0831674
-0.0830612
-0.0816714
-0.0788758
-0.0737347
0
0
-0.00607307
-0.0158101
-0.0266357
-0.0382005
-0.0498041
-0.0610719
-0.0714743
-0.0793682
-0.087796
-0.0945775
-0.0991484
-0.101622
-0.102338
-0.101856
-0.100663
-0.100649
-0.0974089
-0.0952977
-0.0940778
-0.0929527
-0.0926084
-0.0913841
-0.0901388
-0.0888981
-0.0873264
-0.0875872
-0.086984
-0.0863291
-0.0857379
-0.0851894
-0.0846672
-0.0841749
-0.0837404
-0.083395
-0.0831624
-0.0830436
-0.0830213
-0.083072
-0.0831663
-0.0832491
-0.0832233
-0.0830498
-0.0832152
-0.0834911
-0.0837817
-0.0840495
-0.0842781
-0.0844556
-0.0845811
-0.0846758
-0.0847724
-0.0848897
-0.08502
-0.0851378
-0.0851994
-0.0851624
-0.0848954
-0.083768
-0.0808162
-0.0754738
0
0
-0.00614857
-0.0159956
-0.0279404
-0.0401023
-0.0523117
-0.064076
-0.0748943
-0.084299
-0.0926456
-0.099293
-0.103779
-0.106079
-0.106592
-0.106055
-0.105987
-0.105211
-0.0995932
-0.0982601
-0.0969859
-0.0956109
-0.114586
-0.093933
-0.0925508
-0.0912489
-0.0898479
-0.0893751
-0.0888857
-0.0883397
-0.0877781
-0.0872264
-0.0866959
-0.0861987
-0.0857494
-0.0853693
-0.08511
-0.0849798
-0.0849565
-0.0850154
-0.0851346
-0.0852692
-0.0853282
-0.0852455
-0.0852739
-0.0854681
-0.0857637
-0.086075
-0.0863553
-0.0865688
-0.0867045
-0.0867978
-0.086877
-0.0869615
-0.0870695
-0.0871857
-0.0872218
-0.0871272
-0.0868328
-0.0857737
-0.0827345
-0.0772461
0
0
-0.00624179
-0.0149843
-0.0293656
-0.042464
-0.0552432
-0.0675209
-0.0788789
-0.0889664