# vtk DataFile Version 2.0
FlowField
ASCII
DATASET STRUCTURED_GRID
DIMENSIONS 62 47 32 
POINTS 93248 double
0 0 0
0.01 0 0
0.02 0 0
0.03 0 0
0.04 0 0
0.05 0 0
0.06 0 0
0.07 0 0
0.08 0 0
0.09 0 0
0.1 0 0
0.11 0 0
0.12 0 0
0.13 0 0
0.14 0 0
0.15 0 0
0.16 0 0
0.17 0 0
0.18 0 0
0.19 0 0
0.2 0 0
0.21 0 0
0.22 0 0
0.23 0 0
0.24 0 0
0.25 0 0
0.26 0 0
0.27 0 0
0.28 0 0
0.29 0 0
0.3 0 0
0.31 0 0
0.32 0 0
0.33 0 0
0.34 0 0
0.35 0 0
0.36 0 0
0.37 0 0
0.38 0 0
0.39 0 0
0.4 0 0
0.41 0 0
0.42 0 0
0.43 0 0
0.44 0 0
0.45 0 0
0.46 0 0
0.47 0 0
0.48 0 0
0.49 0 0
0.5 0 0
0.51 0 0
0.52 0 0
0.53 0 0
0.54 0 0
0.55 0 0
0.56 0 0
0.57 0 0
0.58 0 0
0.59 0 0
0.6 0 0
0.61 0 0
0 0.01 0
0.01 0.01 0
0.02 0.01 0
0.03 0.01 0
0.04 0.01 0
0.05 0.01 0
0.06 0.01 0
0.07 0.01 0
0.08 0.01 0
0.09 0.01 0
0.1 0.01 0
0.11 0.01 0
0.12 0.01 0
0.13 0.01 0
0.14 0.01 0
0.15 0.01 0
0.16 0.01 0
0.17 0.01 0
0.18 0.01 0
0.19 0.01 0
0.2 0.01 0
0.21 0.01 0
0.22 0.01 0
0.23 0.01 0
0.24 0.01 0
0.25 0.01 0
0.26 0.01 0
0.27 0.01 0
0.28 0.01 0
0.29 0.01 0
0.3 0.01 0
0.31 0.01 0
0.32 0.01 0
0.33 0.01 0
0.34 0.01 0
0.35 0.01 0
0.36 0.01 0
0.37 0.01 0
0.38 0.01 0
0.39 0.01 0
0.4 0.01 0
0.41 0.01 0
0.42 0.01 0
0.43 0.01 0
0.44 0.01 0
0.45 0.01 0
0.46 0.01 0
0.47 0.01 0
0.48 0.01 0
0.49 0.01 0
0.5 0.01 0
0.51 0.01 0
0.52 0.01 0
0.53 0.01 0
0.54 0.01 0
0.55 0.01 0
0.56 0.01 0
0.57 0.01 0
0.58 0.01 0
0.59 0.01 0
0.6 0.01 0
0.61 0.01 0
0 0.02 0
0.01 0.02 0
0.02 0.02 0
0.03 0.02 0
0.04 0.02 0
0.05 0.02 0
0.06 0.02 0
0.07 0.02 0
0.08 0.02 0
0.09 0.02 0
0.1 0.02 0
0.11 0.02 0
0.12 0.02 0
0.13 0.02 0
0.14 0.02 0
0.15 0.02 0
0.16 0.02 0
0.17 0.02 0
0.18 0.02 0
0.19 0.02 0
0.2 0.02 0
0.21 0.02 0
0.22 0.02 0
0.23 0.02 0
0.24 0.02 0
0.25 0.02 0
0.26 0.02 0
0.27 0.02 0
0.28 0.02 0
0.29 0.02 0
0.3 0.02 0
0.31 0.02 0
0.32 0.02 0
0.33 0.02 0
0.34 0.02 0
0.35 0.02 0
0.36 0.02 0
0.37 0.02 0
0.38 0.02 0
0.39 0.02 0
0.4 0.02 0
0.41 0.02 0
0.42 0.02 0
0.43 0.02 0
0.44 0.02 0
0.45 0.02 0
0.46 0.02 0
0.47 0.02 0
0.48 0.02 0
0.49 0.02 0
0.5 0.02 0
0.51 0.02 0
0.52 0.02 0
0.53 0.02 0
0.54 0.02 0
0.55 0.02 0
0.56 0.02 0
0.57 0.02 0
0.58 0.02 0
0.59 0.02 0
0.6 0.02 0
0.61 0.02 0
0 0.03 0
0.01 0.03 0
0.02 0.03 0
0.03 0.03 0
0.04 0.03 0
0.05 0.03 0
0.06 0.03 0
0.07 0.03 0
0.08 0.03 0
0.09 0.03 0
0.1 0.03 0
0.11 0.03 0
0.12 0.03 0
0.13 0.03 0
0.14 0.03 0
0.15 0.03 0
0.16 0.03 0
0.17 0.03 0
0.18 0.03 0
0.19 0.03 0
0.2 0.03 0
0.21 0.03 0
0.22 0.03 0
0.23 0.03 0
0.24 0.03 0
0.25 0.03 0
0.26 0.03 0
0.27 0.03 0
0.28 0.03 0
0.29 0.03 0
0.3 0.03 0
0.31 0.03 0
0.32 0.03 0
0.33 0.03 0
0.34 0.03 0
0.35 0.03 0
0.36 0.03 0
0.37 0.03 0
0.38 0.03 0
0.39 0.03 0
0.4 0.03 0
0.41 0.03 0
0.42 0.03 0
0.43 0.03 0
0.44 0.03 0
0.45 0.03 0
0.46 0.03 0
0.47 0.03 0
0.48 0.03 0
0.49 0.03 0
0.5 0.03 0
0.51 0.03 0
0.52 0.03 0
0.53 0.03 0
0.54 0.03 0
0.55 0.03 0
0.56 0.03 0
0.57 0.03 0
0.58 0.03 0
0.59 0.03 0
0.6 0.03 0
0.61 0.03 0
0 0.04 0
0.01 0.04 0
0.02 0.04 0
0.03 0.04 0
0.04 0.04 0
0.05 0.04 0
0.06 0.04 0
0.07 0.04 0
0.08 0.04 0
0.09 0.04 0
0.1 0.04 0
0.11 0.04 0
0.12 0.04 0
0.13 0.04 0
0.14 0.04 0
0.15 0.04 0
0.16 0.04 0
0.17 0.04 0
0.18 0.04 0
0.19 0.04 0
0.2 0.04 0
0.21 0.04 0
0.22 0.04 0
0.23 0.04 0
0.24 0.04 0
0.25 0.04 0
0.26 0.04 0
0.27 0.04 0
0.28 0.04 0
0.29 0.04 0
0.3 0.04 0
0.31 0.04 0
0.32 0.04 0
0.33 0.04 0
0.34 0.04 0
0.35 0.04 0
0.36 0.04 0
0.37 0.04 0
0.38 0.04 0
0.39 0.04 0
0.4 0.04 0
0.41 0.04 0
0.42 0.04 0
0.43 0.04 0
0.44 0.04 0
0.45 0.04 0
0.46 0.04 0
0.47 0.04 0
0.48 0.04 0
0.49 0.04 0
0.5 0.04 0
0.51 0.04 0
0.52 0.04 0
0.53 0.04 0
0.54 0.04 0
0.55 0.04 0
0.56 0.04 0
0.57 0.04 0
0.58 0.04 0
0.59 0.04 0
0.6 0.04 0
0.61 0.04 0
0 0.05 0
0.01 0.05 0
0.02 0.05 0
0.03 0.05 0
0.04 0.05 0
0.05 0.05 0
0.06 0.05 0
0.07 0.05 0
0.08 0.05 0
0.09 0.05 0
0.1 0.05 0
0.11 0.05 0
0.12 0.05 0
0.13 0.05 0
0.14 0.05 0
0.15 0.05 0
0.16 0.05 0
0.17 0.05 0
0.18 0.05 0
0.19 0.05 0
0.2 0.05 0
0.21 0.05 0
0.22 0.05 0
0.23 0.05 0
0.24 0.05 0
0.25 0.05 0
0.26 0.05 0
0.27 0.05 0
0.28 0.05 0
0.29 0.05 0
0.3 0.05 0
0.31 0.05 0
0.32 0.05 0
0.33 0.05 0
0.34 0.05 0
0.35 0.05 0
0.36 0.05 0
0.37 0.05 0
0.38 0.05 0
0.39 0.05 0
0.4 0.05 0
0.41 0.05 0
0.42 0.05 0
0.43 0.05 0
0.44 0.05 0
0.45 0.05 0
0.46 0.05 0
0.47 0.05 0
0.48 0.05 0
0.49 0.05 0
0.5 0.05 0
0.51 0.05 0
0.52 0.05 0
0.53 0.05 0
0.54 0.05 0
0.55 0.05 0
0.56 0.05 0
0.57 0.05 0
0.58 0.05 0
0.59 0.05 0
0.6 0.05 0
0.61 0.05 0
0 0.06 0
0.01 0.06 0
0.02 0.06 0
0.03 0.06 0
0.04 0.06 0
0.05 0.06 0
0.06 0.06 0
0.07 0.06 0
0.08 0.06 0
0.09 0.06 0
0.1 0.06 0
0.11 0.06 0
0.12 0.06 0
0.13 0.06 0
0.14 0.06 0
0.15 0.06 0
0.16 0.06 0
0.17 0.06 0
0.18 0.06 0
0.19 0.06 0
0.2 0.06 0
0.21 0.06 0
0.22 0.06 0
0.23 0.06 0
0.24 0.06 0
0.25 0.06 0
0.26 0.06 0
0.27 0.06 0
0.28 0.06 0
0.29 0.06 0
0.3 0.06 0
0.31 0.06 0
0.32 0.06 0
0.33 0.06 0
0.34 0.06 0
0.35 0.06 0
0.36 0.06 0
0.37 0.06 0
0.38 0.06 0
0.39 0.06 0
0.4 0.06 0
0.41 0.06 0
0.42 0.06 0
0.43 0.06 0
0.44 0.06 0
0.45 0.06 0
0.46 0.06 0
0.47 0.06 0
0.48 0.06 0
0.49 0.06 0
0.5 0.06 0
0.51 0.06 0
0.52 0.06 0
0.53 0.06 0
0.54 0.06 0
0.55 0.06 0
0.56 0.06 0
0.57 0.06 0
0.58 0.06 0
0.59 0.06 0
0.6 0.06 0
0.61 0.06 0
0 0.07 0
0.01 0.07 0
0.02 0.07 0
0.03 0.07 0
0.04 0.07 0
0.05 0.07 0
0.06 0.07 0
0.07 0.07 0
0.08 0.07 0
0.09 0.07 0
0.1 0.07 0
0.11 0.07 0
0.12 0.07 0
0.13 0.07 0
0.14 0.07 0
0.15 0.07 0
0.16 0.07 0
0.17 0.07 0
0.18 0.07 0
0.19 0.07 0
0.2 0.07 0
0.21 0.07 0
0.22 0.07 0
0.23 0.07 0
0.24 0.07 0
0.25 0.07 0
0.26 0.07 0
0.27 0.07 0
0.28 0.07 0
0.29 0.07 0
0.3 0.07 0
0.31 0.07 0
0.32 0.07 0
0.33 0.07 0
0.34 0.07 0
0.35 0.07 0
0.36 0.07 0
0.37 0.07 0
0.38 0.07 0
0.39 0.07 0
0.4 0.07 0
0.41 0.07 0
0.42 0.07 0
0.43 0.07 0
0.44 0.07 0
0.45 0.07 0
0.46 0.07 0
0.47 0.07 0
0.48 0.07 0
0.49 0.07 0
0.5 0.07 0
0.51 0.07 0
0.52 0.07 0
0.53 0.07 0
0.54 0.07 0
0.55 0.07 0
0.56 0.07 0
0.57 0.07 0
0.58 0.07 0
0.59 0.07 0
0.6 0.07 0
0.61 0.07 0
0 0.08 0
0.01 0.08 0
0.02 0.08 0
0.03 0.08 0
0.04 0.08 0
0.05 0.08 0
0.06 0.08 0
0.07 0.08 0
0.08 0.08 0
0.09 0.08 0
0.1 0.08 0
0.11 0.08 0
0.12 0.08 0
0.13 0.08 0
0.14 0.08 0
0.15 0.08 0
0.16 0.08 0
0.17 0.08 0
0.18 0.08 0
0.19 0.08 0
0.2 0.08 0
0.21 0.08 0
0.22 0.08 0
0.23 0.08 0
0.24 0.08 0
0.25 0.08 0
0.26 0.08 0
0.27 0.08 0
0.28 0.08 0
0.29 0.08 0
0.3 0.08 0
0.31 0.08 0
0.32 0.08 0
0.33 0.08 0
0.34 0.08 0
0.35 0.08 0
0.36 0.08 0
0.37 0.08 0
0.38 0.08 0
0.39 0.08 0
0.4 0.08 0
0.41 0.08 0
0.42 0.08 0
0.43 0.08 0
0.44 0.08 0
0.45 0.08 0
0.46 0.08 0
0.47 0.08 0
0.48 0.08 0
0.49 0.08 0
0.5 0.08 0
0.51 0.08 0
0.52 0.08 0
0.53 0.08 0
0.54 0.08 0
0.55 0.08 0
0.56 0.08 0
0.57 0.08 0
0.58 0.08 0
0.59 0.08 0
0.6 0.08 0
0.61 0.08 0
0 0.09 0
0.01 0.09 0
0.02 0.09 0
0.03 0.09 0
0.04 0.09 0
0.05 0.09 0
0.06 0.09 0
0.07 0.09 0
0.08 0.09 0
0.09 0.09 0
0.1 0.09 0
0.11 0.09 0
0.12 0.09 0
0.13 0.09 0
0.14 0.09 0
0.15 0.09 0
0.16 0.09 0
0.17 0.09 0
0.18 0.09 0
0.19 0.09 0
0.2 0.09 0
0.21 0.09 0
0.22 0.09 0
0.23 0.09 0
0.24 0.09 0
0.25 0.09 0
0.26 0.09 0
0.27 0.09 0
0.28 0.09 0
0.29 0.09 0
0.3 0.09 0
0.31 0.09 0
0.32 0.09 0
0.33 0.09 0
0.34 0.09 0
0.35 0.09 0
0.36 0.09 0
0.37 0.09 0
0.38 0.09 0
0.39 0.09 0
0.4 0.09 0
0.41 0.09 0
0.42 0.09 0
0.43 0.09 0
0.44 0.09 0
0.45 0.09 0
0.46 0.09 0
0.47 0.09 0
0.48 0.09 0
0.49 0.09 0
0.5 0.09 0
0.51 0.09 0
0.52 0.09 0
0.53 0.09 0
0.54 0.09 0
0.55 0.09 0
0.56 0.09 0
0.57 0.09 0
0.58 0.09 0
0.59 0.09 0
0.6 0.09 0
0.61 0.09 0
0 0.1 0
0.01 0.1 0
0.02 0.1 0
0.03 0.1 0
0.04 0.1 0
0.05 0.1 0
0.06 0.1 0
0.07 0.1 0
0.08 0.1 0
0.09 0.1 0
0.1 0.1 0
0.11 0.1 0
0.12 0.1 0
0.13 0.1 0
0.14 0.1 0
0.15 0.1 0
0.16 0.1 0
0.17 0.1 0
0.18 0.1 0
0.19 0.1 0
0.2 0.1 0
0.21 0.1 0
0.22 0.1 0
0.23 0.1 0
0.24 0.1 0
0.25 0.1 0
0.26 0.1 0
0.27 0.1 0
0.28 0.1 0
0.29 0.1 0
0.3 0.1 0
0.31 0.1 0
0.32 0.1 0
0.33 0.1 0
0.34 0.1 0
0.35 0.1 0
0.36 0.1 0
0.37 0.1 0
0.38 0.1 0
0.39 0.1 0
0.4 0.1 0
0.41 0.1 0
0.42 0.1 0
0.43 0.1 0
0.44 0.1 0
0.45 0.1 0
0.46 0.1 0
0.47 0.1 0
0.48 0.1 0
0.49 0.1 0
0.5 0.1 0
0.51 0.1 0
0.52 0.1 0
0.53 0.1 0
0.54 0.1 0
0.55 0.1 0
0.56 0.1 0
0.57 0.1 0
0.58 0.1 0
0.59 0.1 0
0.6 0.1 0
0.61 0.1 0
0 0.11 0
0.01 0.11 0
0.02 0.11 0
0.03 0.11 0
0.04 0.11 0
0.05 0.11 0
0.06 0.11 0
0.07 0.11 0
0.08 0.11 0
0.09 0.11 0
0.1 0.11 0
0.11 0.11 0
0.12 0.11 0
0.13 0.11 0
0.14 0.11 0
0.15 0.11 0
0.16 0.11 0
0.17 0.11 0
0.18 0.11 0
0.19 0.11 0
0.2 0.11 0
0.21 0.11 0
0.22 0.11 0
0.23 0.11 0
0.24 0.11 0
0.25 0.11 0
0.26 0.11 0
0.27 0.11 0
0.28 0.11 0
0.29 0.11 0
0.3 0.11 0
0.31 0.11 0
0.32 0.11 0
0.33 0.11 0
0.34 0.11 0
0.35 0.11 0
0.36 0.11 0
0.37 0.11 0
0.38 0.11 0
0.39 0.11 0
0.4 0.11 0
0.41 0.11 0
0.42 0.11 0
0.43 0.11 0
0.44 0.11 0
0.45 0.11 0
0.46 0.11 0
0.47 0.11 0
0.48 0.11 0
0.49 0.11 0
0.5 0.11 0
0.51 0.11 0
0.52 0.11 0
0.53 0.11 0
0.54 0.11 0
0.55 0.11 0
0.56 0.11 0
0.57 0.11 0
0.58 0.11 0
0.59 0.11 0
0.6 0.11 0
0.61 0.11 0
0 0.12 0
0.01 0.12 0
0.02 0.12 0
0.03 0.12 0
0.04 0.12 0
0.05 0.12 0
0.06 0.12 0
0.07 0.12 0
0.08 0.12 0
0.09 0.12 0
0.1 0.12 0
0.11 0.12 0
0.12 0.12 0
0.13 0.12 0
0.14 0.12 0
0.15 0.12 0
0.16 0.12 0
0.17 0.12 0
0.18 0.12 0
0.19 0.12 0
0.2 0.12 0
0.21 0.12 0
0.22 0.12 0
0.23 0.12 0
0.24 0.12 0
0.25 0.12 0
0.26 0.12 0
0.27 0.12 0
0.28 0.12 0
0.29 0.12 0
0.3 0.12 0
0.31 0.12 0
0.32 0.12 0
0.33 0.12 0
0.34 0.12 0
0.35 0.12 0
0.36 0.12 0
0.37 0.12 0
0.38 0.12 0
0.39 0.12 0
0.4 0.12 0
0.41 0.12 0
0.42 0.12 0
0.43 0.12 0
0.44 0.12 0
0.45 0.12 0
0.46 0.12 0
0.47 0.12 0
0.48 0.12 0
0.49 0.12 0
0.5 0.12 0
0.51 0.12 0
0.52 0.12 0
0.53 0.12 0
0.54 0.12 0
0.55 0.12 0
0.56 0.12 0
0.57 0.12 0
0.58 0.12 0
0.59 0.12 0
0.6 0.12 0
0.61 0.12 0
0 0.13 0
0.01 0.13 0
0.02 0.13 0
0.03 0.13 0
0.04 0.13 0
0.05 0.13 0
0.06 0.13 0
0.07 0.13 0
0.08 0.13 0
0.09 0.13 0
0.1 0.13 0
0.11 0.13 0
0.12 0.13 0
0.13 0.13 0
0.14 0.13 0
0.15 0.13 0
0.16 0.13 0
0.17 0.13 0
0.18 0.13 0
0.19 0.13 0
0.2 0.13 0
0.21 0.13 0
0.22 0.13 0
0.23 0.13 0
0.24 0.13 0
0.25 0.13 0
0.26 0.13 0
0.27 0.13 0
0.28 0.13 0
0.29 0.13 0
0.3 0.13 0
0.31 0.13 0
0.32 0.13 0
0.33 0.13 0
0.34 0.13 0
0.35 0.13 0
0.36 0.13 0
0.37 0.13 0
0.38 0.13 0
0.39 0.13 0
0.4 0.13 0
0.41 0.13 0
0.42 0.13 0
0.43 0.13 0
0.44 0.13 0
0.45 0.13 0
0.46 0.13 0
0.47 0.13 0
0.48 0.13 0
[...]
POINT_DATA 93248

SCALARS w double
LOOKUP_TABLE default
0
0
0
0
0
0
0
0
0
0
0
0
0
-0.053732
0
0
0
0
0
0
0
0
0
0
0
0
-0.103355
0
0
0
0
0
-0.0984363
0
0
0
0
0
0
0
0
0
0
0
0
0
-0.09136
0
0
0
0
0
0
0
0
0
0
0
0
0
0
0
0
-0.0162982
-0.031644
-0.0424414
-0.0483382
-0.0508395
-0.0518741
-0.0523564
-0.0522898
-0.052073
-0.0517791
-0.0512881
-0.0504931
-0.0505536
-0.0509219
-0.0513453
-0.0516996
-0.0521728
-0.0526513
-0.0526352
-0.0486208
-0.0481574
-0.049252
-0.0493833
-0.0494292
-0.0494218
-0.0493585
-0.0492559
-0.0491286
-0.0489778
-0.0487801
-0.0484671
-0.0479822
-0.0480296
-0.0480464
-0.0474818
-0.0466498
-0.0470498
-0.0487315
-0.054264
-0.0458697
-0.0477496
-0.0495158
-0.0505215
-0.0520262
-0.0972019
-0.0490382
-0.0485216
-0.0485743
-0.0493201
-0.0500379
-0.0508728
-0.0494904
-0.0512539
-0.0971234
-0.0511538
-0.0489085
-0.0476782
-0.0482391
-0.0479512
-0.0453445
0
0
-0.019464
-0.0460129
-0.0612451
-0.0717083
-0.078541
-0.0853737
-0.0895825
-0.0917715
-0.0926213
-0.0928311
-0.0924729
-0.0914504
-0.092027
-0.0927076
-0.0933835
-0.0939069
-0.0948011
-0.095892
-0.0977754
-0.0895349
-0.0897531
-0.106512
-0.0914095
-0.0910303
-0.0909168
-0.0908046
-0.0906519
-0.0904642
-0.0902484
-0.0899928
-0.0896112
-0.0887961
-0.0889833
-0.0891449
-0.0881836
-0.0877937
-0.0866395
-0.0861193
-0.0940813
-0.0913326
-0.0915608
-0.0921314
-0.0925323
-0.0939153
-0.0958342
-0.0940242
-0.0915158
-0.0908107
-0.0911422
-0.0916262
-0.0976524
-0.091678
-0.0928061
-0.0947777
-0.0933387
-0.0924014
-0.0897671
-0.089283
-0.0875047
-0.0820061
0
0
-0.0193034
-0.0458531
-0.0629314
-0.0753393
-0.0508395
-0.0913142
-0.0984275
-0.102507
-0.104572
-0.105675
-0.105445
-0.106661
-0.106275
-0.106123
-0.106131
-0.106564
-0.107668
-0.10814
-0.109034
-0.107748
-0.105862
-0.105437
-0.104684
-0.104265
-0.104018
-0.103819
-0.103621
-0.103412
-0.103201
-0.103023
-0.103
-0.103425
-0.103618
-0.103041
-0.100698
-0.100345
-0.0998622
-0.0999729
-0.103442
-0.104061
-0.104591
-0.105302
-0.104652
-0.105675
-0.106988
-0.104914
-0.10386
-0.103146
-0.104108
-0.104159
-0.104304
-0.104188
-0.104675
-0.105342
-0.105321
-0.105311
-0.105045
-0.103028
-0.100085
-0.0932776
0
0
-0.0188699
-0.0447099
-0.0446768
-0.075589
-0.0856055
-0.0945679
-0.100969
-0.10506
-0.107243
-0.108156
-0.108189
-0.108437
-0.108368
-0.108302
-0.108219
-0.108133
-0.107584
-0.108301
-0.109178
-0.108651
-0.107996
-0.107457
-0.106949
-0.106552
-0.106243
-0.10598
-0.105738
-0.105507
-0.105289
-0.105104
-0.104989
-0.104946
-0.104535
-0.104335
-0.103389
-0.102967
-0.102733
-0.101692
-0.104217
-0.105136
-0.105755
-0.106194
-0.106108
-0.106489
-0.106982
-0.106521
-0.105666
-0.105162
-0.105442
-0.105527
-0.105576
-0.105642
-0.105878
-0.106172
-0.106378
-0.106504
-0.106306
-0.104926
-0.101971
-0.0948956
0
0
-0.0187075
-0.0445758
-0.0626725
-0.076848
-0.0874173
-0.0956573
-0.10158
-0.105346
-0.107388
-0.108118
-0.10809
-0.107916
-0.10774
-0.107618
-0.10556
-0.107102
-0.106962
-0.107078
-0.107398
-0.10724
-0.106905
-0.106512
-0.106112
-0.105744
-0.105417
-0.105125
-0.104858
-0.10461
-0.104381
-0.104168
-0.103949
-0.103618
-0.102957
-0.102858
-0.102667
-0.102529
-0.102476
-0.102597
-0.103123
-0.103648
-0.104064
-0.104338
-0.10442
-0.104566
-0.104827
-0.105347
-0.104295
-0.103907
-0.103939
-0.104014
-0.104092
-0.104216
-0.104416
-0.104634
-0.104816
-0.104885
-0.104592
-0.103345
-0.100409
-0.0936286
0
0
-0.0186205
-0.0444388
-0.0631017
-0.0771313
-0.0878287
-0.0959901
-0.101538
-0.104904
-0.106882
-0.10754
-0.107447
-0.107119
-0.106815
-0.106527
-0.10613
-0.105637
-0.10576
-0.103045
-0.106005
-0.105957
-0.105673
-0.1053
-0.10491
-0.104535
-0.104189
-0.103888
-0.103609
-0.103352
-0.10312
-0.102908
-0.102677
-0.102276
-0.101227
-0.101549
-0.101678
-0.101652
-0.101629
-0.101692
-0.101881
-0.102116
-0.102329
-0.102477
-0.102507
-0.102441
-0.102086
-0.101051
-0.101576
-0.101939
-0.102153
-0.102276
-0.10238
-0.102548
-0.102818
-0.103067
-0.103222
-0.10319
-0.102643
-0.100779
-0.0967642
-0.0912291
0
0
-0.0185506
-0.0442752
-0.0629925
-0.0770187
-0.0877948
-0.0962156
-0.101248
-0.105031
-0.106735
-0.107145
-0.106871
-0.10638
-0.105986
-0.105568
-0.104861
-0.103598
-0.104752
-0.105356
-0.105488
-0.10525
-0.10483
-0.104382
-0.103947
-0.103538
-0.103159
-0.102872
-0.102584
-0.102322
-0.102103
-0.101936
-0.101833
-0.101951
-0.102816
-0.10207
-0.101446
-0.101075
-0.100887
-0.10083
-0.100863
-0.100942
-0.101033
-0.101106
-0.101064
-0.100976
-0.100721
-0.100306
-0.100448
-0.100669
-0.100818
-0.100891
-0.100954
-0.101152
-0.10161
-0.101969
-0.102131
-0.102032
-0.101181
-0.0976806
-0.0479512
-0.0891855
0
0
-0.0184883
-0.0441112
-0.062777
-0.0767639
-0.0874902
-0.0956265
-0.101079
-0.10457
-0.106215
-0.106564
-0.106208
-0.105424
-0.105177
-0.104783
-0.103707
-0.100492
-0.0975303
-0.105304
-0.105258
-0.104774
-0.104176
-0.103667
-0.103205
-0.102765
-0.102321
-0.102112
-0.101798
-0.101528
-0.101331
-0.101219
-0.101151
-0.10119
-0.101409
-0.101103
-0.100698
-0.100378
-0.10018
-0.100082
-0.100053
-0.100062
-0.100086
-0.100105
-0.100079
-0.100021
-0.099908
-0.0997784
-0.0997884
-0.0998465
-0.0998655
-0.0998117
-0.0997416
-0.0999072
-0.100808
-0.101351
-0.101546
-0.101562
-0.101343
-0.10021
-0.0951723
-0.0896797
0
0
-0.0184342
-0.0439641
-0.0625609
-0.0764918
-0.0871625
-0.0951803
-0.100741
-0.104144
-0.105724
-0.106027
-0.10554
-0.0914504
-0.104363
-0.104413
-0.103856
-0.102677
-0.103761
-0.10443
-0.104423
-0.104051
-0.103442
-0.103038
-0.102615
-0.102166
-0.101691
-0.101397
-0.101104
-0.100854
-0.100705
-0.1007
-0.100632
-0.10053
-0.100409
-0.100172
-0.0999018
-0.0996721
-0.099519
-0.0994329
-0.09939
-0.0993731
-0.0993701
-0.0993701
-0.0993604
-0.0993385
-0.0993023
-0.0992661
-0.0992525
-0.0992322
-0.0991487
-0.098944
-0.0986245
-0.0974598
-0.100437
-0.101121
-0.101246
-0.101232
-0.101086
-0.100204
-0.0970224
-0.089918
0
0
-0.0183894
-0.0438416
-0.0623745
-0.0762428
-0.0868769
-0.0948553
-0.100423
-0.103792
-0.105344
-0.105661
-0.105324
-0.104585
-0.104553
-0.104449
-0.104222
-0.103807
-0.103871
-0.103908
-0.103742
-0.103434
-0.103261
-0.102755
-0.102224
-0.101692
-0.0998622
-0.100781
-0.100484
-0.100227
-0.100117
-0.100316
-0.100264
-0.100022
-0.0997142
-0.0994371
-0.0992094
-0.0990332
-0.0989216
-0.0988622
-0.0988256
-0.0988039
-0.0987936
-0.0987917
-0.0987977
-0.0988044
-0.0988077
-0.0988074
-0.0987987
-0.0987579
-0.0986329
-0.0983434
-0.0978409
-0.0974598
-0.100713
-0.101056
-0.100992
-0.100911
-0.100746
-0.0999147
-0.0971507
-0.0898934
0
0
-0.0183545
-0.0437476
-0.0622331
-0.0760396
-0.0866696
-0.0946404
-0.100195
-0.103538
-0.105069
-0.1054
-0.105159
-0.104783
-0.104581
-0.104484
-0.104543
-0.104244
-0.103931
-0.103613
-0.103249
-0.102826
-0.102626
-0.10222
-0.10175
-0.101255
-0.100728
-0.1003
-0.0998888
-0.0995383
-0.0993211
-0.099411
-0.100024
-0.0993636
-0.0989257
-0.098691
-0.0985477
-0.0984436
-0.098372
-0.0983396
-0.0983168
-0.0983
-0.0982913
-0.0982899
-0.0983214
-0.0983586
-0.0983918
-0.0984176
-0.0984303
-0.0984144
-0.0983353
-0.0981472
-0.0979219
-0.0980769
-0.0996922
-0.100319
-0.100476
-0.100512
-0.100409
-0.0996325
-0.0969822
-0.0897646
0
0
-0.0183295
-0.0436843
-0.0621625
-0.0760786
-0.0866639
-0.0945737
-0.100078
-0.103377
-0.104876
-0.105196
-0.104987
-0.10468
-0.104461
-0.104383
-0.104772
-0.104222
-0.103688
-0.103227
-0.102776
-0.10236
-0.102044
-0.101686
-0.101276
-0.100817
-0.100309
-0.099771
-0.0992055
-0.0986577
-0.0980996
-0.097677
-0.0965902
-0.0971145
-0.0975426
-0.0977681
-0.0978618
-0.0978792
-0.0978625
-0.0978426
-0.0978268
-0.0978192
-0.0978101
-0.0977725
-0.0978761
-0.0979653
-0.0980347
-0.0980903
-0.0981366
-0.0981752
-0.0981919
-0.0981308
-0.0981149
-0.09837
-0.0991061
-0.0996278
-0.0999185
-0.100098
-0.100101
-0.0993887
-0.0967941
-0.0896156
0
0
-0.0183103
-0.0436342
-0.0620911
-0.0759769
-0.0865506
-0.0944535
-0.0999441
-0.103225
-0.104707
-0.105014
-0.104819
-0.104517
-0.10424
-0.103881
-0.102931
-0.102915
-0.102841
-0.102592
-0.102181
-0.10184
-0.101555
-0.101246
-0.100873
-0.100418
-0.0998622
-0.0991789
-0.0983442
-0.0973535
-0.0958298
-0.0958064
-0.095869
-0.096342
-0.0968104
-0.0971358
-0.0973141
-0.0973823
-0.0973911
-0.0973513
-0.0973261
-0.0973273
-0.0973029
-0.0952016
-0.097415
-0.0976063
-0.0977221
-0.0978098
-0.0978911
-0.0979915
-0.0981256
-0.0981094
-0.0981677
-0.0983982
-0.0988072
-0.0991818
-0.0994966
-0.0997685
-0.0998853
-0.0991978
-0.0966304
-0.0894734
0
0
-0.0182962
-0.0435981
-0.0620416
-0.0767639
-0.0864774
-0.0943424
-0.0998171
-0.103086
-0.104567
-0.104909
-0.104706
-0.104393
-0.104102
-0.103768
-0.10325
-0.102967
-0.102709
-0.102326
-0.101657
-0.101393
-0.101206
-0.100954
-0.100595
-0.100111
-0.0994623
-0.098553
-0.09718
-0.0948248
-0.0883567
-0.0913583
-0.0937431
-0.0952093
-0.0960922
-0.0965948
-0.0968409
-0.0969211
-0.097337
-0.0968069
-0.0967295
-0.0967629
-0.0968471
-0.09691
-0.0971275
-0.0973093
-0.09745
-0.09756
-0.0976569
-0.0977815
-0.0980222
-0.0979592
-0.098057
-0.0983082
-0.0986804
-0.0989389
-0.0992366
-0.0995632
-0.100779
-0.0990741
-0.0964968
-0.0893438
0
0
-0.0182874
-0.0435767
-0.0619875
-0.0758099
-0.086346
-0.094229
-0.0997026
-0.102966
-0.104442
-0.104773
-0.104583
-0.104283
-0.104012
-0.103742
-0.103422
-0.103116
-0.102788
-0.102317
-0.101246
-0.101281
-0.101201
-0.100926
-0.100508
-0.0999513
-0.0991933
-0.0980306
-0.0957865
-0.089309
0.0523309
-0.0818752
-0.0904963
-0.0939183
-0.095452
-0.096157
-0.0964309
-0.096443
-0.0962899
-0.0960077
-0.095742
-0.095869
-0.096171
-0.0964856
-0.096779
-0.0970178
-0.0972019
-0.09733
-0.0974043
-0.0973913
-0.0972195
-0.0974779
-0.0977881
-0.0981806
-0.100437
-0.0988485
-0.0991162
-0.0993821
-0.0995662
-0.0989248
-0.0963792
-0.0892223
0
0
-0.0182848
-0.0435899
-0.0619642
-0.0757218
-0.0862506
-0.0941391
-0.099611
-0.10287
-0.104342
-0.104672
-0.104496
-0.10421
-0.103954
-0.103716
-0.10346
-0.103188
-0.102924
-0.102792
-0.103344
-0.102604
-0.10186
-0.101216
-0.100601
-0.0999416
-0.0991417
-0.0980259
-0.0962122
-0.0927882
-0.0859652
-0.0898103
-0.092897
-0.094689
-0.0956374
-0.0960669
-0.0961622
-0.0959717
-0.0954826
-0.094612
-0.0933236
-0.0939467
-0.0949272
-0.0957363
-0.0963105
-0.0967025
-0.096973
-0.0971349
-0.097223
-0.0972385
-0.0971468
-0.0972004
-0.0975257
-0.0979366
-0.0983895
-0.0987321
-0.0992566
-0.0993144
-0.0994509
-0.0988378
-0.0962858
-0.0890981
0
0
-0.0182723
-0.0436168
-0.06191
-0.0756023
-0.0861259
-0.0940617
-0.0995422
-0.102798
-0.104271
-0.104613
-0.104466
-0.104189
-0.103922
-0.103676
-0.103432
-0.103177
-0.102923
-0.102736
-0.102718
-0.102309
-0.101758
-0.101177
-0.100582
-0.0999457
-0.0992165
-0.0983153
-0.0971312
-0.0954775
-0.0937807
-0.0941838
-0.0950096
-0.0956545
-0.0960087
-0.0960945
-0.0959729
-0.0954945
-0.0943717
-0.0917009
-0.0851189
-0.0893002
-0.0926597
-0.0946356
-0.0957442
-0.0963767
-0.096767
-0.0969717
-0.0970924
-0.0971262
-0.0970285
-0.096835
-0.0972854
-0.0977552
-0.0981898
-0.09879
-0.106378
-0.0993688
-0.0994724
-0.0988105
-0.0962105
-0.0889144
0
0
-0.0181839
-0.0431716
-0.0615067
-0.0752799
-0.0859057
-0.0948553
-0.0995463
-0.102777
-0.104237
-0.104597
-0.104527
-0.104234
-0.1039
-0.103589
-0.103339
-0.103098
-0.102838
-0.102566
-0.10231
-0.101959
-0.101528
-0.101045
-0.100523
-0.0999563
-0.0993315
-0.0986384
-0.0979003
-0.0967674
-0.0958345
-0.0958323
-0.096085
-0.0962699
-0.0962828
-0.0961068
-0.0958798
-0.0951407
-0.0931727
-0.0863437
0.0577067
-0.0802614
-0.0899158
-0.0936638
-0.095321
-0.0961281
-0.0965408
-0.0968277
-0.0970125
-0.0971141
-0.0970528
-0.0965987
-0.0973042
-0.0977453
-0.0980693
-0.0984448
-0.0989566
-0.0988451
-0.0995025
-0.098773
-0.0960919
-0.0887874
0
0
-0.018176
-0.0432137
-0.0614754
-0.075132
-0.0857815
-0.0940657
-0.0995844
-0.10278
-0.104202
-0.104586
-0.104729
-0.104311
-0.103792
-0.103332
-0.103129
-0.102959
-0.102722
-0.102391
-0.102082
-0.101757
-0.101385
-0.100963
-0.100496
-0.0999873
-0.0994363
-0.0988445
-0.0982102
-0.0975064
-0.0964716
-0.0966665
-0.0967962
-0.0967389
-0.0965181
-0.0961141
-0.0959957
-0.0952681
-0.0937538
-0.090452
-0.0834739
-0.0881664
-0.0921673
-0.0943197
-0.0954905
-0.0961432
-0.096526
-0.0967923
-0.0970102
-0.0972642
-0.09773
-0.0986852
-0.0981979
-0.0979952
-0.0980405
-0.0982363
-0.0985224
-0.0987832
-0.0991618
-0.0985711
-0.0959842
-0.0887056
0
0
-0.0181875
-0.0432703
-0.0615012
-0.0750048
-0.085729
-0.0943211
-0.0995977
-0.102643
-0.104009
-0.104393
-0.104909
-0.104083
-0.103289
-0.102633
-0.102753
-0.102791
-0.102622
-0.102195
-0.101934
-0.101672
-0.101348
-0.10096
-0.100522
-0.100044
-0.0995214
-0.0989342
-0.0982012
-0.0982322
-0.0989222
-0.0983047
-0.0977105
-0.0972384
-0.0968074
-0.0963795
-0.0960707
-0.0955541
-0.0947276
-0.093526
-0.0922324
-0.0930001
-0.0942421
-0.0952016
-0.0958629
-0.0962904
-0.09658
-0.0967959
-0.0969932
-0.0972385
-0.0976067
-0.0980708
-0.0980187
-0.0979231
-0.0979434
-0.0981087
-0.0984131
-0.0987519
-0.0989854
-0.0984278
-0.0959071
-0.0887545
0
0
-0.0182006
-0.0433211
-0.061632
-0.0755672
-0.0858638
-0.0929221
-0.0985267
-0.101966
-0.103496
-0.103644
-0.10243
-0.102348
-0.102034
-0.101347
-0.102429
-0.102742
-0.102658
-0.102067
-0.101984
-0.10178
-0.101447
-0.101045
-0.100606
-0.100132
-0.099597
-0.0988692
-0.0889815
-0.0979261
-0.0984366
-0.098231
-0.0978089
-0.0973414
-0.0968734
-0.0964295
-0.096117
-0.0957941
-0.0954203
-0.0950377
-0.0948238
-0.0950176
-0.0954257
-0.0958547
-0.0962593
-0.0964839
-0.0966632
-0.0968103
-0.0969535
-0.0971378
-0.097386
-0.0976524
-0.0977631
-0.0977542
-0.0977891
-0.0979709
-0.0983774
-0.098748
-0.0989392
-0.0983812
-0.0958735
-0.088755
0
0
-0.018206
-0.0433351
-0.061635
-0.0754072
-0.0858048
-0.0933467
-0.0987469
-0.102033
-0.103502
-0.103671
-0.103073
-0.102641
-0.102044
-0.101487
-0.102379
-0.102867
-0.103022
-0.103329
-0.102796
-0.102212
-0.101677
-0.101188
-0.100735
-0.100263
-0.0997526
-0.0991698
-0.0984115
-0.0983895
-0.0983371
-0.0980952
-0.0977144
-0.0972363
-0.0966657
-0.0960028
-0.0958486
-0.0957557
-0.0957139
-0.0956823
-0.0957124
-0.0958327
-0.0960287
-0.0962978
-0.0983586
-0.0967002
-0.0967465
-0.0968268
-0.0969064
-0.097036
-0.0972375
-0.097498
-0.0976748
-0.0976273
-0.0976156
-0.0977785
-0.0984054
-0.0987934
-0.0989805
-0.0984329
-0.0958859
-0.0887463
0
0
-0.0182072
-0.0433343
-0.0616175
-0.0753296
-0.0857915
-0.09357
-0.0990109
-0.102272
-0.103737
-0.103912
-0.103628
-0.103309
-0.103214
-0.104251
-0.103973
-0.103634
-0.103368
-0.103145
-0.102696
-0.10218
-0.101679
-0.101232
-0.100861
-0.100413
-0.0999217
-0.0994335
-0.0989878
-0.0987148
-0.0984232
-0.0980775
-0.0976391
-0.097027
-0.0960265
-0.0939932
-0.0947594
-0.0951097
-0.095601
-0.0958832
-0.0960559
-0.0961947
-0.0963394
-0.0965072
-0.0967019
-0.0967417
-0.096761
-0.0968419
-0.0968576
-0.0969404
-0.097132
-0.0974961
-0.0977732
-0.0975882
-0.0974768
-0.0975146
-0.0985303
-0.0988532
-0.0990733
-0.098606
-0.0959471
-0.0887305
0
0
-0.018208
-0.0433334
-0.0616105
-0.0753146
-0.0858133
-0.0936877
-0.0992469
-0.10252
-0.104049
-0.0970691
-0.103892
-0.103768
-0.103672
-0.103916
-0.103816
-0.103591
-0.103418
-0.102978
-0.102505
-0.102031
-0.101586
-0.101224
-0.101041
-0.100559
-0.100031
-0.0995607
-0.0991813
-0.0989023
-0.0985165
-0.098122
-0.0976365
-0.0968121
-0.0947387
-0.0480464
-0.0923089
-0.0873225
-0.0951847
-0.0959187
-0.0962221
-0.0963937
-0.0965335
-0.0966688
-0.0967542
-0.0967843
-0.0967929
-0.096797
-0.0967936
-0.0968293
-0.0969883
-0.097561
-0.0980355
-0.0976462
-0.0975277
-0.097675
-0.0982598
-0.0987138
-0.0991131
-0.0989197
-0.0960101
-0.0886749
0
0
-0.0182101
-0.0433368
-0.061614
-0.0753221
-0.0858445
-0.0937842
-0.103225
-0.102792
-0.104236
-0.104464
-0.104263
-0.103966
-0.103768
-0.103683
-0.103558
-0.103447
-0.10823
-0.103
-0.102391
-0.101906
-0.101473
-0.101141
-0.101181
-0.100502
-0.0999233
-0.0995036
-0.0991864
-0.0989591
-0.0985962
-0.0982334
-0.0978611
-0.0971152
-0.0958844
-0.093565
-0.0946121
-0.0951513
-0.0958203
-0.0962066
-0.0964155
-0.096555
-0.0966973
-0.0968582
-0.0968733
-0.0968323
-0.0967925
-0.0967603
-0.0967309
-0.0966994
-0.0967137
-0.0975357
-0.0982433
-0.0974944
-0.097491
-0.097688
-0.098055
-0.098456
-0.0988787
-0.0990608
-0.0958272
-0.0885111
0
0
-0.0182143
-0.0433457
-0.0616252
-0.0753341
-0.0858585
-0.0937937
-0.0994561
-0.102883
-0.104398
-0.104652
-0.104364
-0.103997
-0.103725
-0.103535
-0.103352
-0.103173
-0.103086
-0.102656
-0.102221
-0.101787
-0.101326
-0.100768
-0.0997247
-0.0995709
-0.0994235
-0.0992696
-0.0990734
-0.098774
-0.0985687
-0.0983801
-0.101151
-0.0976351
-0.0968969
-0.0962278
-0.0961849
-0.0962604
-0.096403
-0.0965163
-0.0965966
-0.0966805
-0.0968337
-0.0971069
-0.0969913
-0.09685
-0.0967638
-0.0967174
-0.0966863
-0.0966516
-0.0966101
-0.0965948
-0.0959636
-0.0970547
-0.0973731
-0.0976053
-0.0978587
-0.0980312
-0.0977557
-0.0962111
-0.0947863
-0.0882371
0
0
-0.0182219
-0.043364
-0.0616469
-0.0753498
-0.0858622
-0.0937836
-0.0994305
-0.103181
-0.104619
-0.10475
-0.104363
-0.103941
-0.103631
-0.103399
-0.103175
-0.102931
-0.102729
-0.102469
-0.10214
-0.101746
-0.101294
-0.101276
-0.100107
-0.099692
-0.0993584
-0.0992744
-0.099154
-0.098943
-0.0987171
-0.0984847
-0.0982843
-0.0978377
-0.0974131
-0.0970792
-0.0968964
-0.0968011
-0.0967561
-0.0967304
-0.0967145
-0.0967233
-0.0968314
-0.0972456
-0.09691
-0.096732
-0.0966697
-0.0966489
-0.0966399
-0.0966304
-0.0966131
-0.0965733
-0.0964665
-0.0969196
-0.097244
-0.0975038
-0.0977531
-0.0979526
-0.0978925
-0.0969657
-0.0948763
-0.0881653
0
0
-0.0182373
-0.0434032
-0.0616928
-0.0753761
-0.0858569
-0.0937341
-0.0993573
-0.103492
-0.104529
-0.104503
-0.104105
-0.10372
-0.103447
-0.103227
-0.102986
-0.102667
-0.102563
-0.102462
-0.1022
-0.101806
-0.101306
-0.100821
-0.100288
-0.0997754
-0.0992353
-0.0994383
-0.0993884
-0.099174
-0.098904
-0.0986167
-0.0983217
-0.0979932
-0.097683
-0.0974244
-0.0972249
-0.0970734
-0.0969553
-0.0968569
-0.0967639
-0.096647
-0.0964045
-0.0957972
-0.096154
-0.0963979
-0.0965094
-0.0965564
-0.0965787
-0.0965962
-0.0966185
-0.0966527
-0.0967247
-0.0969407
-0.0971819
-0.0974322
-0.0977096
-0.098024
-0.0996325
-0.097471
-0.0950775
-0.0881856
0
0
-0.0182721
-0.0434958
-0.0617999
-0.0754293
-0.0858495
-0.0936034
-0.09879
-0.100882
-0.102723
-0.103495
-0.103517
-0.103371
-0.103225
-0.103057
-0.102853
-0.102244
-0.10251
-0.102699
-0.102448
-0.101992
-0.101354
-0.100873
-0.1004
-0.0998233
-0.0989212
-0.0998709
-0.0997134
-0.0993907
-0.0990527
-0.0987275
-0.098415
-0.0981165
-0.0978446
-0.0976081
-0.0974052
-0.0972295
-0.0970741
-0.0969316
-0.0967923
-0.096638
-0.0964345
-0.0961804
-0.0962553
-0.096376
-0.0964521
-0.0964883
-0.0965089
-0.0965341
-0.096577
-0.0966471
-0.096757
-0.0969203
-0.0971234
-0.0973649
-0.0976562
-0.0979824
-0.0981848
-0.09757
-0.0951676
-0.0882136
0
0
-0.0183571
-0.0437424
-0.0620567
-0.0755406
-0.0859069
-0.0936169
-0.0988337
-0.101634
-0.103099
-0.103592
-0.103544
-0.103366
-0.103196
-0.103035
-0.107102
-0.101363
-0.102785
-0.103357
-0.102907
-0.102328
-0.101514
-0.101109
-0.100689
-0.10021
-0.0997362
-0.0998124
-0.0996583
-0.0993801
-0.0990693
-0.0987611
-0.0984676
-0.0981953
-0.0979498
-0.0977308
-0.0975288
-0.097337
-0.0971527
-0.096974
-0.0967988
-0.0966282
-0.096479
-0.096393
-0.0964048
-0.096434
-0.0964404
-0.0964294
-0.0964217
-0.0964359
-0.0964827
-0.0965658
-0.0966867
-0.0968444
-0.0970384
-0.0972775
-0.0975802
-0.0979215
-0.0980939
-0.0975464
-0.0952055
-0.0882333
0
0
-0.0185635
-0.0445429
-0.0625136
-0.0758749
-0.0861158
-0.0937586
-0.0990117
-0.102074
-0.103489
-0.103846
-0.103713
-0.10347
-0.103229
-0.102884
-0.102091
-0.0991191
-0.103851
-0.104072
-0.10345
-0.102604
-0.102548
-0.101842
-0.101173
-0.100647
-0.10033
-0.100009
-0.0996758
-0.0993504
-0.099043
-0.0987555
-0.0984893
-0.0982476
-0.0980334
-0.0978409
-0.0976427
-0.0974316
-0.0972128
-0.0969899
-0.0967642
-0.0965475
-0.096402
-0.0964218
-0.0964797
-0.0964831
-0.0964279
-0.0963532
-0.0962977
-0.0962869
-0.0963296
-0.0964215
-0.0965555
-0.0967225
-0.0969177
-0.0971547
-0.0974771
-0.0978697
-0.0980411
-0.0974783
-0.0952279
-0.0882517
0
0
-0.0189829
-0.0612451
-0.0636172
-0.0763392
-0.0863258
-0.0938712
-0.099109
-0.102211
-0.103644
-0.103985
-0.103832
-0.103574
-0.103322
-0.102998
-0.102462