# vtk DataFile Version 2.0
FlowField
ASCII
DATASET STRUCTURED_GRID
DIMENSIONS 62 47 32 
POINTS 93248 double
0 0 0
0.01 0 0
0.02 0 0
0.03 0 0
0.04 0 0
0.05 0 0
0.06 0 0
0.07 0 0
0.08 0 0
0.09 0 0
0.1 0 0
0.11 0 0
0.12 0 0
0.13 0 0
0.14 0 0
0.15 0 0
0.16 0 0
0.17 0 0
0.18 0 0
0.19 0 0
0.2 0 0
0.21 0 0
0.22 0 0
0.23 0 0
0.24 0 0
0.25 0 0
0.26 0 0
0.27 0 0
0.28 0 0
0.29 0 0
0.3 0 0
0.31 0 0
0.32 0 0
0.33 0 0
0.34 0 0
0.35 0 0
0.36 0 0
0.37 0 0
0.38 0 0
0.39 0 0
0.4 0 0
0.41 0 0
0.42 0 0
0.43 0 0
0.44 0 0
0.45 0 0
0.46 0 0
0.47 0 0
0.48 0 0
0.49 0 0
0.5 0 0
0.51 0 0
0.52 0 0
0.53 0 0
0.54 0 0
0.55 0 0
0.56 0 0
0.57 0 0
0.58 0 0
0.59 0 0
0.6 0 0
0.61 0 0
0 0.01 0
0.01 0.01 0
0.02 0.01 0
0.03 0.01 0
0.04 0.01 0
0.05 0.01 0
0.06 0.01 0
0.07 0.01 0
0.08 0.01 0
0.09 0.01 0
0.1 0.01 0
0.11 0.01 0
0.12 0.01 0
0.13 0.01 0
0.14 0.01 0
0.15 0.01 0
0.16 0.01 0
0.17 0.01 0
0.18 0.01 0
0.19 0.01 0
0.2 0.01 0
0.21 0.01 0
0.22 0.01 0
0.23 0.01 0
0.24 0.01 0
0.25 0.01 0
0.26 0.01 0
0.27 0.01 0
0.28 0.01 0
0.29 0.01 0
0.3 0.01 0
0.31 0.01 0
0.32 0.01 0
0.33 0.01 0
0.34 0.01 0
0.35 0.01 0
0.36 0.01 0
0.37 0.01 0
0.38 0.01 0
0.39 0.01 0
0.4 0.01 0
0.41 0.01 0
0.42 0.01 0
0.43 0.01 0
0.44 0.01 0
0.45 0.01 0
0.46 0.01 0
0.47 0.01 0
0.48 0.01 0
0.49 0.01 0
0.5 0.01 0
0.51 0.01 0
0.52 0.01 0
0.53 0.01 0
0.54 0.01 0
0.55 0.01 0
0.56 0.01 0
0.57 0.01 0
0.58 0.01 0
0.59 0.01 0
0.6 0.01 0
0.61 0.01 0
0 0.02 0
0.01 0.02 0
0.02 0.02 0
0.03 0.02 0
0.04 0.02 0
0.05 0.02 0
0.06 0.02 0
0.07 0.02 0
0.08 0.02 0
0.09 0.02 0
0.1 0.02 0
0.11 0.02 0
0.12 0.02 0
0.13 0.02 0
0.14 0.02 0
0.15 0.02 0
0.16 0.02 0
0.17 0.02 0
0.18 0.02 0
0.19 0.02 0
0.2 0.02 0
0.21 0.02 0
0.22 0.02 0
0.23 0.02 0
0.24 0.02 0
0.25 0.02 0
0.26 0.02 0
0.27 0.02 0
0.28 0.02 0
0.29 0.02 0
0.3 0.02 0
0.31 0.02 0
0.32 0.02 0
0.33 0.02 0
0.34 0.02 0
0.35 0.02 0
0.36 0.02 0
0.37 0.02 0
0.38 0.02 0
0.39 0.02 0
0.4 0.02 0
0.41 0.02 0
0.42 0.02 0
0.43 0.02 0
0.44 0.02 0
0.45 0.02 0
0.46 0.02 0
0.47 0.02 0
0.48 0.02 0
0.49 0.02 0
0.5 0.02 0
0.51 0.02 0
0.52 0.02 0
0.53 0.02 0
0.54 0.02 0
0.55 0.02 0
0.56 0.02 0
0.57 0.02 0
0.58 0.02 0
0.59 0.02 0
0.6 0.02 0
0.61 0.02 0
0 0.03 0
0.01 0.03 0
0.02 0.03 0
0.03 0.03 0
0.04 0.03 0
0.05 0.03 0
0.06 0.03 0
0.07 0.03 0
0.08 0.03 0
0.09 0.03 0
0.1 0.03 0
0.11 0.03 0
0.12 0.03 0
0.13 0.03 0
0.14 0.03 0
0.15 0.03 0
0.16 0.03 0
0.17 0.03 0
0.18 0.03 0
0.19 0.03 0
0.2 0.03 0
0.21 0.03 0
0.22 0.03 0
0.23 0.03 0
0.24 0.03 0
0.25 0.03 0
0.26 0.03 0
0.27 0.03 0
0.28 0.03 0
0.29 0.03 0
0.3 0.03 0
0.31 0.03 0
0.32 0.03 0
0.33 0.03 0
0.34 0.03 0
0.35 0.03 0
0.36 0.03 0
0.37 0.03 0
0.38 0.03 0
0.39 0.03 0
0.4 0.03 0
0.41 0.03 0
0.42 0.03 0
0.43 0.03 0
0.44 0.03 0
0.45 0.03 0
0.46 0.03 0
0.47 0.03 0
0.48 0.03 0
0.49 0.03 0
0.5 0.03 0
0.51 0.03 0
0.52 0.03 0
0.53 0.03 0
0.54 0.03 0
0.55 0.03 0
0.56 0.03 0
0.57 0.03 0
0.58 0.03 0
0.59 0.03 0
0.6 0.03 0
0.61 0.03 0
0 0.04 0
0.01 0.04 0
0.02 0.04 0
0.03 0.04 0
0.04 0.04 0
0.05 0.04 0
0.06 0.04 0
0.07 0.04 0
0.08 0.04 0
0.09 0.04 0
0.1 0.04 0
0.11 0.04 0
0.12 0.04 0
0.13 0.04 0
0.14 0.04 0
0.15 0.04 0
0.16 0.04 0
0.17 0.04 0
0.18 0.04 0
0.19 0.04 0
0.2 0.04 0
0.21 0.04 0
0.22 0.04 0
0.23 0.04 0
0.24 0.04 0
0.25 0.04 0
0.26 0.04 0
0.27 0.04 0
0.28 0.04 0
0.29 0.04 0
0.3 0.04 0
0.31 0.04 0
0.32 0.04 0
0.33 0.04 0
0.34 0.04 0
0.35 0.04 0
0.36 0.04 0
0.37 0.04 0
0.38 0.04 0
0.39 0.04 0
0.4 0.04 0
0.41 0.04 0
0.42 0.04 0
0.43 0.04 0
0.44 0.04 0
0.45 0.04 0
0.46 0.04 0
0.47 0.04 0
0.48 0.04 0
0.49 0.04 0
0.5 0.04 0
0.51 0.04 0
0.52 0.04 0
0.53 0.04 0
0.54 0.04 0
0.55 0.04 0
0.56 0.04 0
0.57 0.04 0
0.58 0.04 0
0.59 0.04 0
0.6 0.04 0
0.61 0.04 0
0 0.05 0
0.01 0.05 0
0.02 0.05 0
0.03 0.05 0
0.04 0.05 0
0.05 0.05 0
0.06 0.05 0
0.07 0.05 0
0.08 0.05 0
0.09 0.05 0
0.1 0.05 0
0.11 0.05 0
0.12 0.05 0
0.13 0.05 0
0.14 0.05 0
0.15 0.05 0
0.16 0.05 0
0.17 0.05 0
0.18 0.05 0
0.19 0.05 0
0.2 0.05 0
0.21 0.05 0
0.22 0.05 0
0.23 0.05 0
0.24 0.05 0
0.25 0.05 0
0.26 0.05 0
0.27 0.05 0
0.28 0.05 0
0.29 0.05 0
0.3 0.05 0
0.31 0.05 0
0.32 0.05 0
0.33 0.05 0
0.34 0.05 0
0.35 0.05 0
0.36 0.05 0
0.37 0.05 0
0.38 0.05 0
0.39 0.05 0
0.4 0.05 0
0.41 0.05 0
0.42 0.05 0
0.43 0.05 0
0.44 0.05 0
0.45 0.05 0
0.46 0.05 0
0.47 0.05 0
0.48 0.05 0
0.49 0.05 0
0.5 0.05 0
0.51 0.05 0
0.52 0.05 0
0.53 0.05 0
0.54 0.05 0
0.55 0.05 0
0.56 0.05 0
0.57 0.05 0
0.58 0.05 0
0.59 0.05 0
0.6 0.05 0
0.61 0.05 0
0 0.06 0
0.01 0.06 0
0.02 0.06 0
0.03 0.06 0
0.04 0.06 0
0.05 0.06 0
0.06 0.06 0
0.07 0.06 0
0.08 0.06 0
0.09 0.06 0
0.1 0.06 0
0.11 0.06 0
0.12 0.06 0
0.13 0.06 0
0.14 0.06 0
0.15 0.06 0
0.16 0.06 0
0.17 0.06 0
0.18 0.06 0
0.19 0.06 0
0.2 0.06 0
0.21 0.06 0
0.22 0.06 0
0.23 0.06 0
0.24 0.06 0
0.25 0.06 0
0.26 0.06 0
0.27 0.06 0
0.28 0.06 0
0.29 0.06 0
0.3 0.06 0
0.31 0.06 0
0.32 0.06 0
0.33 0.06 0
0.34 0.06 0
0.35 0.06 0
0.36 0.06 0
0.37 0.06 0
0.38 0.06 0
0.39 0.06 0
0.4 0.06 0
0.41 0.06 0
0.42 0.06 0
0.43 0.06 0
0.44 0.06 0
0.45 0.06 0
0.46 0.06 0
0.47 0.06 0
0.48 0.06 0
0.49 0.06 0
0.5 0.06 0
0.51 0.06 0
0.52 0.06 0
0.53 0.06 0
0.54 0.06 0
0.55 0.06 0
0.56 0.06 0
0.57 0.06 0
0.58 0.06 0
0.59 0.06 0
0.6 0.06 0
0.61 0.06 0
0 0.07 0
0.01 0.07 0
0.02 0.07 0
0.03 0.07 0
0.04 0.07 0
0.05 0.07 0
0.06 0.07 0
0.07 0.07 0
0.08 0.07 0
0.09 0.07 0
0.1 0.07 0
0.11 0.07 0
0.12 0.07 0
0.13 0.07 0
0.14 0.07 0
0.15 0.07 0
0.16 0.07 0
0.17 0.07 0
0.18 0.07 0
0.19 0.07 0
0.2 0.07 0
0.21 0.07 0
0.22 0.07 0
0.23 0.07 0
0.24 0.07 0
0.25 0.07 0
0.26 0.07 0
0.27 0.07 0
0.28 0.07 0
0.29 0.07 0
0.3 0.07 0
0.31 0.07 0
0.32 0.07 0
0.33 0.07 0
0.34 0.07 0
0.35 0.07 0
0.36 0.07 0
0.37 0.07 0
0.38 0.07 0
0.39 0.07 0
0.4 0.07 0
0.41 0.07 0
0.42 0.07 0
0.43 0.07 0
0.44 0.07 0
0.45 0.07 0
0.46 0.07 0
0.47 0.07 0
0.48 0.07 0
0.49 0.07 0
0.5 0.07 0
0.51 0.07 0
0.52 0.07 0
0.53 0.07 0
0.54 0.07 0
0.55 0.07 0
0.56 0.07 0
0.57 0.07 0
0.58 0.07 0
0.59 0.07 0
0.6 0.07 0
0.61 0.07 0
0 0.08 0
0.01 0.08 0
0.02 0.08 0
0.03 0.08 0
0.04 0.08 0
0.05 0.08 0
0.06 0.08 0
0.07 0.08 0
0.08 0.08 0
0.09 0.08 0
0.1 0.08 0
0.11 0.08 0
0.12 0.08 0
0.13 0.08 0
0.14 0.08 0
0.15 0.08 0
0.16 0.08 0
0.17 0.08 0
0.18 0.08 0
0.19 0.08 0
0.2 0.08 0
0.21 0.08 0
0.22 0.08 0
0.23 0.08 0
0.24 0.08 0
0.25 0.08 0
0.26 0.08 0
0.27 0.08 0
0.28 0.08 0
0.29 0.08 0
0.3 0.08 0
0.31 0.08 0
0.32 0.08 0
0.33 0.08 0
0.34 0.08 0
0.35 0.08 0
0.36 0.08 0
0.37 0.08 0
0.38 0.08 0
0.39 0.08 0
0.4 0.08 0
0.41 0.08 0
0.42 0.08 0
0.43 0.08 0
0.44 0.08 0
0.45 0.08 0
0.46 0.08 0
0.47 0.08 0
0.48 0.08 0
0.49 0.08 0
0.5 0.08 0
0.51 0.08 0
0.52 0.08 0
0.53 0.08 0
0.54 0.08 0
0.55 0.08 0
0.56 0.08 0
0.57 0.08 0
0.58 0.08 0
0.59 0.08 0
0.6 0.08 0
0.61 0.08 0
0 0.09 0
0.01 0.09 0
0.02 0.09 0
0.03 0.09 0
0.04 0.09 0
0.05 0.09 0
0.06 0.09 0
0.07 0.09 0
0.08 0.09 0
0.09 0.09 0
0.1 0.09 0
0.11 0.09 0
0.12 0.09 0
0.13 0.09 0
0.14 0.09 0
0.15 0.09 0
0.16 0.09 0
0.17 0.09 0
0.18 0.09 0
0.19 0.09 0
0.2 0.09 0
0.21 0.09 0
0.22 0.09 0
0.23 0.09 0
0.24 0.09 0
0.25 0.09 0
0.26 0.09 0
0.27 0.09 0
0.28 0.09 0
0.29 0.09 0
0.3 0.09 0
0.31 0.09 0
0.32 0.09 0
0.33 0.09 0
0.34 0.09 0
0.35 0.09 0
0.36 0.09 0
0.37 0.09 0
0.38 0.09 0
0.39 0.09 0
0.4 0.09 0
0.41 0.09 0
0.42 0.09 0
0.43 0.09 0
0.44 0.09 0
0.45 0.09 0
0.46 0.09 0
0.47 0.09 0
0.48 0.09 0
0.49 0.09 0
0.5 0.09 0
0.51 0.09 0
0.52 0.09 0
0.53 0.09 0
0.54 0.09 0
0.55 0.09 0
0.56 0.09 0
0.57 0.09 0
0.58 0.09 0
0.59 0.09 0
0.6 0.09 0
0.61 0.09 0
0 0.1 0
0.01 0.1 0
0.02 0.1 0
0.03 0.1 0
0.04 0.1 0
0.05 0.1 0
0.06 0.1 0
0.07 0.1 0
0.08 0.1 0
0.09 0.1 0
0.1 0.1 0
0.11 0.1 0
0.12 0.1 0
0.13 0.1 0
0.14 0.1 0
0.15 0.1 0
0.16 0.1 0
0.17 0.1 0
0.18 0.1 0
0.19 0.1 0
0.2 0.1 0
0.21 0.1 0
0.22 0.1 0
0.23 0.1 0
0.24 0.1 0
0.25 0.1 0
0.26 0.1 0
0.27 0.1 0
0.28 0.1 0
0.29 0.1 0
0.3 0.1 0
0.31 0.1 0
0.32 0.1 0
0.33 0.1 0
0.34 0.1 0
0.35 0.1 0
0.36 0.1 0
0.37 0.1 0
0.38 0.1 0
0.39 0.1 0
0.4 0.1 0
0.41 0.1 0
0.42 0.1 0
0.43 0.1 0
0.44 0.1 0
0.45 0.1 0
0.46 0.1 0
0.47 0.1 0
0.48 0.1 0
0.49 0.1 0
0.5 0.1 0
0.51 0.1 0
0.52 0.1 0
0.53 0.1 0
0.54 0.1 0
0.55 0.1 0
0.56 0.1 0
0.57 0.1 0
0.58 0.1 0
0.59 0.1 0
0.6 0.1 0
0.61 0.1 0
0 0.11 0
0.01 0.11 0
0.02 0.11 0
0.03 0.11 0
0.04 0.11 0
0.05 0.11 0
0.06 0.11 0
0.07 0.11 0
0.08 0.11 0
0.09 0.11 0
0.1 0.11 0
0.11 0.11 0
0.12 0.11 0
0.13 0.11 0
0.14 0.11 0
0.15 0.11 0
0.16 0.11 0
0.17 0.11 0
0.18 0.11 0
0.19 0.11 0
0.2 0.11 0
0.21 0.11 0
0.22 0.11 0
0.23 0.11 0
0.24 0.11 0
0.25 0.11 0
0.26 0.11 0
0.27 0.11 0
0.28 0.11 0
0.29 0.11 0
0.3 0.11 0
0.31 0.11 0
0.32 0.11 0
0.33 0.11 0
0.34 0.11 0
0.35 0.11 0
0.36 0.11 0
0.37 0.11 0
0.38 0.11 0
0.39 0.11 0
0.4 0.11 0
0.41 0.11 0
0.42 0.11 0
0.43 0.11 0
0.44 0.11 0
0.45 0.11 0
0.46 0.11 0
0.47 0.11 0
0.48 0.11 0
0.49 0.11 0
0.5 0.11 0
0.51 0.11 0
0.52 0.11 0
0.53 0.11 0
0.54 0.11 0
0.55 0.11 0
0.56 0.11 0
0.57 0.11 0
0.58 0.11 0
0.59 0.11 0
0.6 0.11 0
0.61 0.11 0
0 0.12 0
0.01 0.12 0
0.02 0.12 0
0.03 0.12 0
0.04 0.12 0
0.05 0.12 0
0.06 0.12 0
0.07 0.12 0
0.08 0.12 0
0.09 0.12 0
0.1 0.12 0
0.11 0.12 0
0.12 0.12 0
0.13 0.12 0
0.14 0.12 0
0.15 0.12 0
0.16 0.12 0
0.17 0.12 0
0.18 0.12 0
0.19 0.12 0
0.2 0.12 0
0.21 0.12 0
0.22 0.12 0
0.23 0.12 0
0.24 0.12 0
0.25 0.12 0
0.26 0.12 0
0.27 0.12 0
0.28 0.12 0
0.29 0.12 0
0.3 0.12 0
0.31 0.12 0
0.32 0.12 0
0.33 0.12 0
0.34 0.12 0
0.35 0.12 0
0.36 0.12 0
0.37 0.12 0
0.38 0.12 0
0.39 0.12 0
0.4 0.12 0
0.41 0.12 0
0.42 0.12 0
0.43 0.12 0
0.44 0.12 0
0.45 0.12 0
0.46 0.12 0
0.47 0.12 0
0.48 0.12 0
0.49 0.12 0
0.5 0.12 0
0.51 0.12 0
0.52 0.12 0
0.53 0.12 0
0.54 0.12 0
0.55 0.12 0
0.56 0.12 0
0.57 0.12 0
0.58 0.12 0
0.59 0.12 0
0.6 0.12 0
0.61 0.12 0
0 0.13 0
0.01 0.13 0
0.02 0.13 0
0.03 0.13 0
0.04 0.13 0
0.05 0.13 0
0.06 0.13 0
0.07 0.13 0
0.08 0.13 0
0.09 0.13 0
0.1 0.13 0
0.11 0.13 0
0.12 0.13 0
0.13 0.13 0
0.14 0.13 0
0.15 0.13 0
0.16 0.13 0
0.17 0.13 0
0.18 0.13 0
0.19 0.13 0
0.2 0.13 0
0.21 0.13 0
0.22 0.13 0
0.23 0.13 0
0.24 0.13 0
0.25 0.13 0
0.26 0.13 0
0.27 0.13 0
0.28 0.13 0
0.29 0.13 0
0.3 0.13 0
0.31 0.13 0
0.32 0.13 0
0.33 0.13 0
0.34 0.13 0
0.35 0.13 0
0.36 0.13 0
0.37 0.13 0
0.38 0.13 0
0.39 0.13 0
0.4 0.13 0
0.41 0.13 0
0.42 0.13 0
0.43 0.13 0
0.44 0.13 0
0.45 0.13 0
0.46 0.13 0
0.47 0.13 0
0.48 0.13 0
[...]
POINT_DATA 93248

SCALARS u double
LOOKUP_TABLE default
0
0
0
0
0
0
0
0
0
0
0
0
0
0
0
0
0
0
0
0
0
0
0
0
0.296772
0
0
0
0
0
0
0
0.0821246
0.223306
0
0
0
0
0
0
0
0
0
0
0
0
0
0.0953828
0
0
0.079393
0
0
0
0
0
0
0
0
0
0
0
0
0.421467
0.345788
0.276482
0.22339
0.189503
0.170648
0.16038
0.153622
0.148328
0.143786
0.13955
0.13587
0.132254
0.128755
0.125323
0.122035
0.118725
0.115443
0.111813
0.109443
0.106509
0.103458
0.10034
0.0972701
0.0942387
0.0912287
0.0882277
0.0852264
0.0822142
0.0791779
0.0761167
0.0731588
0.069994
0.0665977
0.0631502
0.0597839
0.0571081
0.0577964
0.16273
0.0468827
0.0449205
0.04296
0.0408556
0.0388649
0.0328712
0.0317385
0.0290543
0.0262949
0.0233313
0.0204404
0.0491341
0.0149894
0.0126565
0.00673715
0.00418782
0.0220722
-0.00165914
-0.00560105
-0.0110233
-0.0110233
0
0
0.494799
0.48435
0.468064
0.446409
0.422611
0.39998
0.381325
0.366498
0.354185
0.343512
0.33355
0.325003
0.316468
0.308358
0.300394
0.292794
0.28515
0.278122
0.333445
0.264568
0.256374
0.249081
0.241757
0.234592
0.227497
0.22044
0.213404
0.206377
0.199346
0.192285
0.18513
0.178336
0.171176
0.163692
0.156053
0.14713
0.135081
-0.0656428
0.118128
0.116602
0.112781
0.10764
0.101778
0.0954387
0.0879492
0.0808253
0.0743017
0.0675865
0.0606911
0.0538443
0.0478344
0.0405306
0.0333642
0.0252953
0.0183445
0.0110139
0.00404929
-0.00365062
-0.0114428
-0.0114428
0
0
0.489511
0.495951
0.502079
0.498943
0.486776
0.468235
0.450317
0.434673
0.420897
0.401449
0.397301
0.386576
0.376835
0.367351
0.35833
0.349537
0.340089
0.33136
0.322582
0.313749
0.305413
0.297051
0.288628
0.280208
0.271814
0.263444
0.255092
0.246754
0.238426
0.230116
0.221876
0.213204
0.205401
0.212114
0.18845
0.179486
0.171318
0.166502
0.155828
0.146468
0.138294
0.13676
0.122815
0.115198
0.128662
0.0986664
0.0898491
0.0675865
0.0732676
0.0653726
0.0574935
0.0491341
0.0406574
0.0320089
0.0236646
0.0153716
0.00649156
-0.00181201
-0.010003
-0.010003
0
0
0.482633
0.485767
0.4929
0.494292
0.486535
0.472983
0.458394
0.444663
0.431988
0.420329
0.409231
0.398538
0.388418
0.378693
0.369366
0.359807
0.351198
0.342095
0.332877
0.323928
0.315185
0.306523
0.297864
0.289216
0.280585
0.271972
0.263375
0.254791
0.246217
0.237651
0.229086
0.220422
0.211986
0.203324
0.194924
0.1867
0.179251
0.172848
0.163399
0.153525
0.144263
0.135519
0.127095
0.118702
0.110035
0.101384
0.0929575
0.0846548
0.0761738
0.0677868
0.0594094
0.0508763
0.0422427
0.0335584
0.0249519
0.0163637
0.00764844
-0.000834611
-0.0092379
-0.0092379
0
0
0.479424
0.477597
0.48157
0.482357
0.476267
0.465467
0.453556
0.441831
0.430514
0.419686
0.409185
0.398974
0.389049
0.379223
0.370566
0.361136
0.352135
0.343141
0.334131
0.325189
0.316377
0.307647
0.298958
0.290294
0.28165
0.273025
0.264415
0.255817
0.247224
0.238629
0.230016
0.221369
0.21302
0.204473
0.196071
0.18789
0.180055
0.172379
0.163603
0.154381
0.145288
0.136446
0.127804
0.119265
0.110843
0.102481
0.0933838
0.0850688
0.0766206
0.0681723
0.0597211
0.0512059
0.0425978
0.0339534
0.025338
0.0167554
0.00819487
-0.000269365
-0.00895381
-0.00895381
0
0
0.478024
0.473048
0.474091
0.473362
0.467476
0.458053
0.447755
0.437413
0.427239
0.417232
0.407379
0.397651
0.388101
0.378734
0.369712
0.360734
0.351705
0.342857
0.333909
0.32506
0.316293
0.307583
0.298911
0.290266
0.281642
0.273039
0.264452
0.255874
0.2473
0.238719
0.230102
0.221327
0.213399
0.204778
0.196325
0.188027
0.179862
0.171664
0.163081
0.154254
0.145404
0.136626
0.12791
0.119158
0.110262
0.102511
0.0938774
0.0852842
0.0767542
0.0682858
0.0598651
0.0514279
0.0428227
0.0341759
0.0255721
0.0170242
0.00857214
0.000488818
-0.00703317
-0.00703317
0
0
0.477366
0.47063
0.469644
0.467542
0.461346
0.46526
0.442818
0.433232
0.423925
0.414693
0.405412
0.396101
0.386861
0.377696
0.368652
0.360026
0.351055
0.342206
0.333445
0.324713
0.316025
0.307361
0.298721
0.290104
0.281506
0.272933
0.264374
0.255827
0.247284
0.238747
0.230282
0.222012
0.212916
0.204592
0.196265
0.187953
0.179638
0.171262
0.16273
0.154074
0.145373
0.136888
0.127995
0.119308
0.110654
0.102411
0.0938949
0.0853226
0.0767844
0.0683256
0.0600002
0.051757
0.0430606
0.0343402
0.025733
0.0171821
0.00854612
-3.31124e-05
-0.00625817
-0.00625817
0
0
0.477012
0.469267
0.466978
0.46379
0.457027
0.448072
0.438915
0.430046
0.42125
0.412421
0.403514
0.394459
0.385523
0.376497
0.367085
0.292794
0.349299
0.34127
0.332877
0.324301
0.315708
0.307093
0.298486
0.289904
0.28165
0.272802
0.264269
0.255758
0.24725
0.238716
0.230246
0.221809
0.213134
0.204662
0.196266
0.187884
0.179484
0.17104
0.162524
0.153942
0.145323
0.136692
0.128064
0.119445
0.110866
0.102399
0.0938684
0.0852951
0.0767196
0.0682092
0.0599411
0.0521379
0.0431422
0.0343426
0.0258194
0.0174464
0.0091888
0.00047396
-0.00738482
-0.00738482
0
0
0.476803
0.468444
0.465291
0.461285
0.453996
0.444916
0.43593
0.427331
0.418836
0.410329
0.401829
0.39282
0.384207
0.375524
0.366818
0.358512
0.349776
0.341078
0.33248
0.323874
0.315382
0.306784
0.298208
0.289647
0.281119
0.272607
0.264124
0.255677
0.247254
0.238757
0.230269
0.221762
0.213206
0.204709
0.196253
0.187822
0.179374
0.170902
0.162395
0.153853
0.145284
0.1367
0.128113
0.119532
0.110969
0.102431
0.0938659
0.0852484
0.0765493
0.0677285
0.0588489
0.0516223
0.0422131
0.0338405
0.0256833
0.0174839
0.00923551
0.000824485
-0.00756212
-0.00756212
0
0
0.47667
0.467912
0.464156
0.459551
0.451809
0.442511
0.433506
0.42502
0.416713
0.40841
0.400054
0.391552
0.383096
0.374623
0.36609
0.357695
0.349125
0.340547
0.332012
0.323549
0.314902
0.306387
0.297871
0.28935
0.280886
0.272386
0.26394
0.255578
0.247367
0.245732
0.230519
0.221818
0.213237
0.204711
0.196208
0.186731
0.179258
0.170793
0.162306
0.153793
0.145258
0.136709
0.128151
0.119593
0.111037
0.102481
0.0938982
0.0852447
0.0764087
0.0670675
0.0564586
-0.0159981
0.0389576
0.0328173
0.0254642
0.0174998
0.00930155
0.000973122
-0.00753837
-0.00753837
0
0
0.476581
0.467552
0.463339
0.458331
0.450189
0.440658
0.431568
0.423114
0.41491
0.406751
0.398558
0.3903
0.38203
0.373763
0.365216
0.356794
0.348374
0.339932
0.331455
0.31952
0.31442
0.305995
0.297538
0.289053
0.280572
0.272097
0.263669
0.255332
0.247122
0.238994
0.229925
0.221568
0.21315
0.204675
0.196179
0.187683
0.178021
0.170698
0.162241
0.153756
0.145248
0.136726
0.128188
0.119645
0.111098
0.102548
0.0939809
0.0853776
0.0767101
0.0679894
0.0594564
0.0519398
0.0425539
0.0341026
0.0259203
0.0177055
0.00943007
0.001083
-0.0074784
-0.0074784
0
0
0.476524
0.467325
0.462902
0.457337
0.448899
0.439177
0.430007
0.421549
0.413395
0.405327
0.397246
0.389127
0.381003
0.373014
0.364259
0.355994
0.347702
0.339373
0.331012
0.322643
0.314173
0.305705
0.297229
0.288738
0.280238
0.271742
0.263296
0.254964
0.246778
0.238158
0.230515
0.221949
0.213313
0.204711
0.196155
0.18764
0.179156
0.170676
0.162215
0.153745
0.145255
0.13676
0.128233
0.119698
0.111161
0.102624
0.0940862
0.0855461
0.0770083
0.0685706
0.0603943
0.0525287
0.0435889
0.0348201
0.0263198
0.0179369
0.00958041
0.00119193
-0.00740757
-0.00740757
0
0
0.476479
0.467137
0.46245
0.456669
0.447962
0.438057
0.428778
0.420277
0.412128
0.404113
0.396096
0.388041
0.379899
0.371524
0.363854
0.355606
0.347276
0.338913
0.330595
0.322242
0.313824
0.305376
0.296905
0.288405
0.279868
0.271303
0.262776
0.254477
0.247051
0.238757
0.230513
0.221957
0.213306
0.204673
0.196088
0.187552
0.179061
0.170612
0.162194
0.153757
0.145271
0.136842
0.128294
0.119756
0.111223
0.102698
0.0941869
0.0856934
0.0771804
0.0687911
0.0605239
0.0522881
0.0436765
0.0350586
0.0265526
0.0181288
0.00972262
0.00130367
-0.00732811
-0.00732811
0
0
0.476445
0.466991
0.462115
0.456111
0.44723
0.437178
0.427798
0.419243
0.411091
0.403069
0.3951
0.387108
0.37906
0.370934
0.363013
0.35491
0.346669
0.338344
0.330179
0.321868
0.313474
0.305046
0.296585
0.288074
0.27948
0.270764
0.261939
0.253195
0.248724
0.239926
0.230925
0.222046
0.213278
0.204595
0.195976
0.187419
0.178908
0.170516
0.162195
0.153824
0.145375
0.136888
0.128356
0.119815
0.11128
0.102759
0.094264
0.0858228
0.077242
0.0688771
0.0605351
0.0521727
0.0436332
0.0351426
0.0266955
0.0183074
0.00983922
0.0014236
-0.0072329
-0.0072329
0
0
0.476425
0.466868
0.461842
0.45571
0.446659
0.436484
0.427011
0.418393
0.410208
0.402197
0.394253
0.386312
0.378342
0.370337
0.362348
0.354276
0.346089
0.337704
0.329867
0.321511
0.313132
0.304727
0.29629
0.287783
0.279143
0.270203
0.26039
0.247578
0.256655
0.242181
0.231566
0.222164
0.213222
0.204475
0.195808
0.187199
0.17868
0.170353
0.162269
0.153991
0.14554
0.137006
0.128443
0.119881
0.11133
0.102796
0.0942716
0.0857396
0.077422
0.0689794
0.0605828
0.0522551
0.0435216
0.0351802
0.026787
0.018425
0.0100166
0.00158033
-0.00710042
-0.00710042
0
0
0.476443
0.466748
0.461596
0.455356
0.446194
0.435932
0.426364
0.417677
0.409458
0.401449
0.393525
0.385622
0.377709
0.369768
0.361793
0.353762
0.345702
0.33773
0.329103
0.320927
0.312696
0.304401
0.296028
0.287575
0.279013
0.270285
0.261344
0.252622
0.248664
0.239895
0.230749
0.221789
0.212991
0.204284
0.195573
0.186866
0.17824
0.169976
0.162632
0.154412
0.145838
0.137188
0.128552
0.11995
0.111374
0.102831
0.0943067
0.0858047
0.0773888
0.0690063
0.0605867
0.052161
0.0436617
0.0352653
0.0268388
0.0185542
0.0101786
0.00178444
-0.00688048
-0.00688048
0
0
0.476544
0.46661
0.46141
0.455089
0.445829
0.435457
0.42576
0.417006
0.408777
0.400787
0.392885
0.385015
0.377152
0.369267
0.361317
0.353301
0.345247
0.33717
0.328869
0.320644
0.312422
0.304152
0.295824
0.287433
0.278977
0.270465
0.261972
0.253796
0.246675
0.238554
0.230013
0.221363
0.212707
0.204067
0.195283
0.186389
0.177381
0.168699
0.164332
0.155478
0.14635
0.137422
0.128662
0.120011
0.111402
0.102855
0.0943282
0.0858101
0.0773238
0.0690583
0.0606096
0.0521498
0.0437158
0.0353971
0.0266723
0.0185564
0.0102635
0.00207283
-0.00637931
-0.00637931
0
0
0.476216
0.466852
0.46158
0.455108
0.445638
0.430007
0.425011
0.416317
0.408147
0.400209
0.392314
0.384471
0.376664
0.368859
0.360921
0.35289
0.344826
0.336739
0.328576
0.320396
0.31219
0.303945
0.295655
0.28732
0.278946
0.270555
0.262474
0.253963
0.246172
0.237995
0.229562
0.22101
0.212398
0.203803
0.194934
0.185852
0.1759
0.162326
0.172462
0.157588
0.146949
0.137602
0.128714
0.120012
0.111427
0.102872
0.094345
0.0858034
0.0771694
0.0692007
0.0606195
0.0521273
0.0436782
0.0352125
0.0265451
0.00930155
0.0101009
0.00245888
-0.0047744
0
0
0
0.476321
0.466531
0.461399
0.455005
0.445625
0.434866
0.424963
0.416121
0.407857
0.399877
0.391837
0.383964
0.376217
0.368547
0.360549
0.352474
0.344407
0.336375
0.328289
0.320156
0.311981
0.303765
0.295508
0.287216
0.278897
0.270574
0.262267
0.253825
0.246125
0.23773
0.229273
0.220724
0.212017
0.195096
0.1945
0.185878
0.176951
0.168143
0.164402
0.153853
0.14634
0.137401
0.128633
0.119975
0.111394
0.102866
0.0943846
0.0859656
0.0776737
0.0687088
0.0604016
0.0520461
0.0436636
0.0352723
0.0268922
0.0186828
0.0103304
0.00210798
-0.00637747
-0.00637747
0
0
0.476354
0.466651
0.461168
0.454971
0.445719
0.434518
0.424724
0.415899
0.407616
0.399667
0.391313
0.38344
0.3757
0.368075
0.359854
0.35178
0.343846
0.336007
0.328029
0.319942
0.311798
0.303608
0.295378
0.287114
0.278824
0.270554
0.262473
0.254378
0.245549
0.237317
0.228992
0.220582
0.212114
0.203698
0.195036
0.186401
0.177839
0.169629
0.162487
0.15434
0.14577
0.137124
0.128491
0.119892
0.111327
0.10283
0.0943698
0.0859351
0.0774992
0.0688548
0.0603981
0.0520215
0.043661
0.0353102
0.0269481
0.0186406
0.0102456
0.00182754
-0.00686383
-0.00686383
0
0
0.476369
0.466683
0.461455
0.454448
0.444602
0.434649
0.424848
0.415928
0.40743
0.398984
0.391218
0.383056
0.37482
0.337384
0.357842
0.350556
0.34306
0.335672
0.327787
0.319757
0.311639
0.303474
0.295265
0.287015
0.278708
0.270243
0.262688
0.25422
0.245648
0.237255
0.22889
0.220497
0.212097
0.203728
0.195229
0.186719
0.178279
0.170026
0.162021
0.153806
0.145396
0.136893
0.128349
0.119803
0.111243
0.10279
0.0943497
0.0859056
0.0774442
0.0689056
0.0603854
0.0520023
0.0436452
0.0353169
0.0268891
0.0184978
0.0100922
0.00163295
-0.00707333
-0.00707333
0
0
0.476365
0.46665
0.46128
0.454487
0.444791
0.434391
0.424676
0.415813
0.407342
0.398792
0.390718
0.38243
0.348585
0.366444
0.358703
0.351036
0.34346
0.335438
0.327556
0.319567
0.311501
0.303367
0.295175
0.286947
0.278691
0.270428
0.26233
0.253991
0.245591
0.237203
0.228812
0.220406
0.212014
0.203727
0.195314
0.186892
0.178479
0.170142
0.161876
0.153563
0.145174
0.136741
0.128235
0.119778
0.111244
0.102841
0.0943768
0.0859161
0.0774766
0.0689892
0.0604276
0.0520267
0.0435734
0.0352133
0.0267218
0.0183383
0.0099524
0.00149186
-0.00719602
-0.00719602
0
0
0.476359
0.466626
0.461212
0.45451
0.444891
0.434334
0.424593
0.415841
0.407528
0.398079
0.39025
0.382648
0.375437
0.367168
0.359259
0.35138
0.34352
0.335516
0.327518
0.319496
0.311427
0.303305
0.295105
0.286891
0.278664
0.270426
0.262195
0.253872
0.245528
0.237145
0.22873
0.220277
0.211821
0.203883
0.195418
0.187064
0.178595
0.170181
0.161808
0.153432
0.145031
0.13661
0.1282
0.119901
0.116999
0.103099
0.0944446
0.0859257
0.0775488
0.069206
0.067061
0.0522072
0.0433395
0.025888
0.0263292
0.0181678
0.00985332
0.00137972
-0.00728507
-0.00728507
0
0
0.476356
0.466616
0.461196
0.454522
0.444931
0.434341
0.424558
0.41607
0.40903
0.395099
0.389182
0.382251
0.375085
0.367299
0.359403
0.351476
0.343525
0.335524
0.327507
0.319465
0.311396
0.303299
0.295037
0.286834
0.278637
0.270413
0.262177
0.255874
0.245541
0.237117
0.228661
0.220104
0.211124
0.204929
0.195442
0.187415
0.1787
0.170191
0.161759
0.153346
0.144926
0.136486
0.128045
0.119591
0.111047
0.102664
0.0942045
0.0857326
0.0773644
0.0688403
0.0601576
0.0518774
0.0434894
0.0351685
0.0266448
0.0182504
0.00988116
0.00126987
-0.00736281
-0.00736281
0
0
0.476356
0.466614
0.461194
0.454533
0.444963
0.43445
0.424235
0.415662
0.407525
0.398012
0.39022
0.382655
0.375051
0.367276
0.359409
0.35149
0.343518
0.335529
0.327504
0.31945
0.311384
0.303369
0.294923
0.286802
0.278636
0.270408
0.262136
0.253753
0.245432
0.237067
0.228644
0.220191
0.21172
0.203848
0.195386
0.187071
0.178589
0.170133
0.1617
0.153279
0.14485
0.136375
0.127915
0.119442
0.110933
0.102497
0.0940091
0.0853755
0.0688366
0.0684965
0.0598222
0.05179
0.0434754
0.0351371
0.0266785
0.0182796
0.0100091
0.00108972
-0.00741603
-0.00741603
0
0
0.476356
0.466615
0.461196
0.454537
0.444952
0.434336
0.424441
0.415564
0.407163
0.398714
0.390709
0.382889
0.375119
0.367308
0.359445
0.351533
0.343568
0.335559
0.327517
0.31944
0.311309
0.303046
0.295169
0.286955
0.278749
0.270444
0.262082
0.253773
0.245424
0.23708
0.228617
0.220254
0.211889
0.203637
0.195278
0.186908
0.17849
0.170062
0.161639
0.153228
0.144817
0.13626
0.127808
0.119364
0.110903
0.102459
0.0940101
0.08556
0.0771724
0.0684976
0.0604699
0.0518291
0.043437
0.0350428
0.0265911
0.0180948
0.00950631
0.00154528
-0.00725892
-0.00725892
0
0
0.476356
0.466615
0.4612
0.454549
0.44497
0.43436
0.424577
0.415545
0.407116
0.398899
0.390934
0.383086
0.375263
0.36742
0.359543
0.351631
0.343651
0.335616
0.327557
0.319469
0.311353
0.303165
0.29629
0.286966
0.278831
0.270453
0.262061
0.253722
0.24539
0.237046
0.228666
0.220296
0.211932
0.203587
0.195216
0.186827
0.178416
0.169995
0.161574
0.153175
0.144851
0.136096
0.127726
0.119311
0.110875
0.102438
0.0940074
0.0855924
0.0771941
0.0686931
0.0603553
0.0518635
0.0434231
0.0349956
0.0265529
0.0180964
0.00964153
0.00135928
-0.0073075
-0.0073075
0
0
0.476354
0.46661
0.461202
0.454575
0.445017
0.43444
0.424839
0.41552
0.407247
0.399107
0.391249
0.383391
0.375512
0.367613
0.359704
0.351807
0.343791
0.335697
0.327621
0.31952
0.311409
0.303226
0.295003
0.286755
0.278667
0.270154
0.261819
0.253586
0.245329
0.237023
0.228676
0.220312
0.21194
0.203564
0.195175
0.186773
0.178357
0.16993
0.161489
0.153017
0.144457
0.136333
0.127802
0.11931
0.110848
0.102408
0.0939824
0.0855671
0.0771534
0.0687118
0.0602974
0.0518487
0.0434075
0.0349723
0.0265395
0.0181241
0.00965749
0.00127947
-0.00735547
-0.00735547
0
0
0.476345
0.466588
0.461204
0.454626
0.445092
0.434454
0.424456
0.416128
0.40783
0.407525
0.391964
0.383884
0.375854
0.367862
0.35988
0.352082
0.34398
0.335804
0.327732
0.319591
0.311519
0.303309
0.294957
0.286292
0.252959
0.268955
0.261266
0.253365
0.24526
0.237011
0.228684
0.22032
0.21194
0.203548
0.195145
0.186731
0.178307
0.169875
0.161433
0.152977
0.144513
0.13617
0.127716
0.119247
0.110796
0.102364
0.0939451
0.0855333
0.0771202
0.0686965
0.0602706
0.0518332
0.0433941
0.0349572
0.0265246
0.0181005
0.00967788
0.00125468
-0.0073793
-0.0073793
0
0
0.476332
0.466531
0.462886
0.454751
0.445256
0.434668
0.424858
0.416199
0.407918
0.399724
0.391807
0.383904
0.375971
0.368013
0.359811
0.352234
0.344005
0.343141
0.32801
0.319688
0.311747
0.303466
0.295182
0.286901
0.278863
0.27032
0.261935
0.253658
0.245377
0.23706
0.228709
0.220334
0.211942
0.203536
0.19512
0.186694
0.178262
0.169825
0.161386
0.152947
0.144508
0.136079
0.12762
0.119162
0.110723
0.102305
0.0939011
0.0855021
0.0770999
0.0686871
0.0602627
0.0518273
0.0433873
0.0349489
0.0265149
0.0180874
0.00967207
0.00124204
-0.00735547
-0.00739151
0
0
0.476303
0.466462
0.461121
0.454642
0.445321
0.434892
0.425212
0.416469
0.408176
0.400052
0.392084
0.384161
0.376201
0.368111
0.359531
0.28515
0.342503
0.335358
0.327802
0.319971
0.311604
0.303485
0.295312
0.287155
0.278974
0.270597
0.262202
0.253832
0.245476
0.237116
0.228743
0.220354
0.211949
0.203527
0.195096
0.186658
0.178214
0.16977
0.161332
0.152911
0.144496
0.136015
0.12752
0.119054
0.110627
0.102231
0.0938521
0.0854772
0.0770959
0.0686963
0.0602745
0.0518351
0.043389
0.0349479
0.0265092
0.0180755
0.00965347
0.000488818
-0.00741133
-0.00741133
0
0
0.476398
0.466458
0.46139
0.454928
0.445517
0.435188
0.425622
0.416867
0.408589
0.400513
0.392538
0.384592
0.376625
0.368605
0.360563
0.352923
0.344501
0.336289
0.328217
0.320133
0.311888
0.303678
0.295485
0.287342
0.278922
0.270638
0.262291
0.253926
0.24555
0.23717
0.228782
0.220382
0.211964
0.203518
0.195069
0.186617
0.178158
0.169698
0.161252
0.152865
0.144538
0.13596
0.127385
0.118898
0.11049
0.102136
0.0937987
0.0854627
0.0771179
0.0687375
0.0603148
0.051861
0.0433976
0.0349547
0.026081
0.0180623
0.0096477
0.00121417
-0.00762032
-0.00742358
0
0
0.476336
0.466571
0.461395
0.455123
0.446006
0.435775
0.426236
0.4173
0.409084
0.401057
0.393092
0.385129
0.377144
0.369128
0.361135
0.353228
0.345013
0.336772
0.328571
0.320373
0.312128
0.303873
0.295594
0.287244
0.279156
0.27079
0.262405
0.254015
0.245615
0.237221
0.228825
0.220421
0.211997
0.203503
0.195034
0.186569
0.17809
0.169593
0.161094
0.152731
0.144663
0.135816
0.127126
0.118638
0.110283
0.102016
0.0937428
0.0854639
0.0771882
0.0688366
0.0604019
0.0519122
0.0434082
0.0350018
0.0265271
0.0180644
0.00963648
0.00120127
-0.00742263
-0.00742263
0
0
0.476383
0.466753
0.461714
0.455612
0.445829
0.436469
0.427266
0.417328
0.40956
0.401685
0.393746
0.38576
0.377739
0.369768
0.361628
0.353538
0.345346
0.337116
0.328879
0.320632
0.312362
0.304072
0.295764
0.287441
0.279185
0.270849
0.262474
0.254089
0.245651
0.237267
0.228869
0.220474
0.212078
0.20346
0.194981
0.18652
0.178015
0.169453
0.16073
0.152097
0.144179
0.134928
0.126465
0.118166
0.109954
0.101893
0.0936943
0.0854771
0.077362
0.0690474
0.06057
0.05201
0.0433987
0.0350837
0.0265306
0.0180455
0.00961148
0.00117753
-0.00743939
-0.00743939
0
0
0.476429
0.46696
0.462071
0.456115
0.447239
0.43721
0.427836
0.418924
0.410707
0.402633
0.394579
0.3865
0.378391
0.370249
0.362103
0.353925
0.345704
0.337452
0.329185
0.320904
0.312606
0.304273
0.295937
0.287601
0.279276
0.27092
0.262541
0.254148
0.245732
0.237319
0.228906
0.220519
0.212247
0.203327
0.194953
0.1865
0.177967
0.169292
0.16024
0.150022
0.0449205
0.131471
0.125121
0.117406
0.109403
0.101935
0.0936926
0.0854223
0.0778261
0.0694906
0.0608726
0.0522322
0.0436775
0.0348882
0.0264322
0.0179875
0.00956645
0.00114131
-0.00746274
-0.00746274
0
0
0.476472
0.46714
0.462438
0.456706
0.448044
0.438162
0.42885
0.420191
0.411895
0.403708
0.395542
0.387342
0.379123
0.370886
0.362641
0.354381
0.346101
0.337806
0.3295
0.321188
0.312866
0.304465
0.296092
0.28774
0.279387
0.271006
0.262617
0.254212