# vtk DataFile Version 2.0
FlowField
ASCII
DATASET STRUCTURED_GRID
DIMENSIONS 62 47 32 
POINTS 93248 double
0 0 0
0.01 0 0
0.02 0 0
0.03 0 0
0.04 0 0
0.05 0 0
0.06 0 0
0.07 0 0
0.08 0 0
0.09 0 0
0.1 0 0
0.11 0 0
0.12 0 0
0.13 0 0
0.14 0 0
0.15 0 0
0.16 0 0
0.17 0 0
0.18 0 0
0.19 0 0
0.2 0 0
0.21 0 0
0.22 0 0
0.23 0 0
0.24 0 0
0.25 0 0
0.26 0 0
0.27 0 0
0.28 0 0
0.29 0 0
0.3 0 0
0.31 0 0
0.32 0 0
0.33 0 0
0.34 0 0
0.35 0 0
0.36 0 0
0.37 0 0
0.38 0 0
0.39 0 0
0.4 0 0
0.41 0 0
0.42 0 0
0.43 0 0
0.44 0 0
0.45 0 0
0.46 0 0
0.47 0 0
0.48 0 0
0.49 0 0
0.5 0 0
0.51 0 0
0.52 0 0
0.53 0 0
0.54 0 0
0.55 0 0
0.56 0 0
0.57 0 0
0.58 0 0
0.59 0 0
0.6 0 0
0.61 0 0
0 0.01 0
0.01 0.01 0
0.02 0.01 0
0.03 0.01 0
0.04 0.01 0
0.05 0.01 0
0.06 0.01 0
0.07 0.01 0
0.08 0.01 0
0.09 0.01 0
0.1 0.01 0
0.11 0.01 0
0.12 0.01 0
0.13 0.01 0
0.14 0.01 0
0.15 0.01 0
0.16 0.01 0
0.17 0.01 0
0.18 0.01 0
0.19 0.01 0
0.2 0.01 0
0.21 0.01 0
0.22 0.01 0
0.23 0.01 0
0.24 0.01 0
0.25 0.01 0
0.26 0.01 0
0.27 0.01 0
0.28 0.01 0
0.29 0.01 0
0.3 0.01 0
0.31 0.01 0
0.32 0.01 0
0.33 0.01 0
0.34 0.01 0
0.35 0.01 0
0.36 0.01 0
0.37 0.01 0
0.38 0.01 0
0.39 0.01 0
0.4 0.01 0
0.41 0.01 0
0.42 0.01 0
0.43 0.01 0
0.44 0.01 0
0.45 0.01 0
0.46 0.01 0
0.47 0.01 0
0.48 0.01 0
0.49 0.01 0
0.5 0.01 0
0.51 0.01 0
0.52 0.01 0
0.53 0.01 0
0.54 0.01 0
0.55 0.01 0
0.56 0.01 0
0.57 0.01 0
0.58 0.01 0
0.59 0.01 0
0.6 0.01 0
0.61 0.01 0
0 0.02 0
0.01 0.02 0
0.02 0.02 0
0.03 0.02 0
0.04 0.02 0
0.05 0.02 0
0.06 0.02 0
0.07 0.02 0
0.08 0.02 0
0.09 0.02 0
0.1 0.02 0
0.11 0.02 0
0.12 0.02 0
0.13 0.02 0
0.14 0.02 0
0.15 0.02 0
0.16 0.02 0
0.17 0.02 0
0.18 0.02 0
0.19 0.02 0
0.2 0.02 0
0.21 0.02 0
0.22 0.02 0
0.23 0.02 0
0.24 0.02 0
0.25 0.02 0
0.26 0.02 0
0.27 0.02 0
0.28 0.02 0
0.29 0.02 0
0.3 0.02 0
0.31 0.02 0
0.32 0.02 0
0.33 0.02 0
0.34 0.02 0
0.35 0.02 0
0.36 0.02 0
0.37 0.02 0
0.38 0.02 0
0.39 0.02 0
0.4 0.02 0
0.41 0.02 0
0.42 0.02 0
0.43 0.02 0
0.44 0.02 0
0.45 0.02 0
0.46 0.02 0
0.47 0.02 0
0.48 0.02 0
0.49 0.02 0
0.5 0.02 0
0.51 0.02 0
0.52 0.02 0
0.53 0.02 0
0.54 0.02 0
0.55 0.02 0
0.56 0.02 0
0.57 0.02 0
0.58 0.02 0
0.59 0.02 0
0.6 0.02 0
0.61 0.02 0
0 0.03 0
0.01 0.03 0
0.02 0.03 0
0.03 0.03 0
0.04 0.03 0
0.05 0.03 0
0.06 0.03 0
0.07 0.03 0
0.08 0.03 0
0.09 0.03 0
0.1 0.03 0
0.11 0.03 0
0.12 0.03 0
0.13 0.03 0
0.14 0.03 0
0.15 0.03 0
0.16 0.03 0
0.17 0.03 0
0.18 0.03 0
0.19 0.03 0
0.2 0.03 0
0.21 0.03 0
0.22 0.03 0
0.23 0.03 0
0.24 0.03 0
0.25 0.03 0
0.26 0.03 0
0.27 0.03 0
0.28 0.03 0
0.29 0.03 0
0.3 0.03 0
0.31 0.03 0
0.32 0.03 0
0.33 0.03 0
0.34 0.03 0
0.35 0.03 0
0.36 0.03 0
0.37 0.03 0
0.38 0.03 0
0.39 0.03 0
0.4 0.03 0
0.41 0.03 0
0.42 0.03 0
0.43 0.03 0
0.44 0.03 0
0.45 0.03 0
0.46 0.03 0
0.47 0.03 0
0.48 0.03 0
0.49 0.03 0
0.5 0.03 0
0.51 0.03 0
0.52 0.03 0
0.53 0.03 0
0.54 0.03 0
0.55 0.03 0
0.56 0.03 0
0.57 0.03 0
0.58 0.03 0
0.59 0.03 0
0.6 0.03 0
0.61 0.03 0
0 0.04 0
0.01 0.04 0
0.02 0.04 0
0.03 0.04 0
0.04 0.04 0
0.05 0.04 0
0.06 0.04 0
0.07 0.04 0
0.08 0.04 0
0.09 0.04 0
0.1 0.04 0
0.11 0.04 0
0.12 0.04 0
0.13 0.04 0
0.14 0.04 0
0.15 0.04 0
0.16 0.04 0
0.17 0.04 0
0.18 0.04 0
0.19 0.04 0
0.2 0.04 0
0.21 0.04 0
0.22 0.04 0
0.23 0.04 0
0.24 0.04 0
0.25 0.04 0
0.26 0.04 0
0.27 0.04 0
0.28 0.04 0
0.29 0.04 0
0.3 0.04 0
0.31 0.04 0
0.32 0.04 0
0.33 0.04 0
0.34 0.04 0
0.35 0.04 0
0.36 0.04 0
0.37 0.04 0
0.38 0.04 0
0.39 0.04 0
0.4 0.04 0
0.41 0.04 0
0.42 0.04 0
0.43 0.04 0
0.44 0.04 0
0.45 0.04 0
0.46 0.04 0
0.47 0.04 0
0.48 0.04 0
0.49 0.04 0
0.5 0.04 0
0.51 0.04 0
0.52 0.04 0
0.53 0.04 0
0.54 0.04 0
0.55 0.04 0
0.56 0.04 0
0.57 0.04 0
0.58 0.04 0
0.59 0.04 0
0.6 0.04 0
0.61 0.04 0
0 0.05 0
0.01 0.05 0
0.02 0.05 0
0.03 0.05 0
0.04 0.05 0
0.05 0.05 0
0.06 0.05 0
0.07 0.05 0
0.08 0.05 0
0.09 0.05 0
0.1 0.05 0
0.11 0.05 0
0.12 0.05 0
0.13 0.05 0
0.14 0.05 0
0.15 0.05 0
0.16 0.05 0
0.17 0.05 0
0.18 0.05 0
0.19 0.05 0
0.2 0.05 0
0.21 0.05 0
0.22 0.05 0
0.23 0.05 0
0.24 0.05 0
0.25 0.05 0
0.26 0.05 0
0.27 0.05 0
0.28 0.05 0
0.29 0.05 0
0.3 0.05 0
0.31 0.05 0
0.32 0.05 0
0.33 0.05 0
0.34 0.05 0
0.35 0.05 0
0.36 0.05 0
0.37 0.05 0
0.38 0.05 0
0.39 0.05 0
0.4 0.05 0
0.41 0.05 0
0.42 0.05 0
0.43 0.05 0
0.44 0.05 0
0.45 0.05 0
0.46 0.05 0
0.47 0.05 0
0.48 0.05 0
0.49 0.05 0
0.5 0.05 0
0.51 0.05 0
0.52 0.05 0
0.53 0.05 0
0.54 0.05 0
0.55 0.05 0
0.56 0.05 0
0.57 0.05 0
0.58 0.05 0
0.59 0.05 0
0.6 0.05 0
0.61 0.05 0
0 0.06 0
0.01 0.06 0
0.02 0.06 0
0.03 0.06 0
0.04 0.06 0
0.05 0.06 0
0.06 0.06 0
0.07 0.06 0
0.08 0.06 0
0.09 0.06 0
0.1 0.06 0
0.11 0.06 0
0.12 0.06 0
0.13 0.06 0
0.14 0.06 0
0.15 0.06 0
0.16 0.06 0
0.17 0.06 0
0.18 0.06 0
0.19 0.06 0
0.2 0.06 0
0.21 0.06 0
0.22 0.06 0
0.23 0.06 0
0.24 0.06 0
0.25 0.06 0
0.26 0.06 0
0.27 0.06 0
0.28 0.06 0
0.29 0.06 0
0.3 0.06 0
0.31 0.06 0
0.32 0.06 0
0.33 0.06 0
0.34 0.06 0
0.35 0.06 0
0.36 0.06 0
0.37 0.06 0
0.38 0.06 0
0.39 0.06 0
0.4 0.06 0
0.41 0.06 0
0.42 0.06 0
0.43 0.06 0
0.44 0.06 0
0.45 0.06 0
0.46 0.06 0
0.47 0.06 0
0.48 0.06 0
0.49 0.06 0
0.5 0.06 0
0.51 0.06 0
0.52 0.06 0
0.53 0.06 0
0.54 0.06 0
0.55 0.06 0
0.56 0.06 0
0.57 0.06 0
0.58 0.06 0
0.59 0.06 0
0.6 0.06 0
0.61 0.06 0
0 0.07 0
0.01 0.07 0
0.02 0.07 0
0.03 0.07 0
0.04 0.07 0
0.05 0.07 0
0.06 0.07 0
0.07 0.07 0
0.08 0.07 0
0.09 0.07 0
0.1 0.07 0
0.11 0.07 0
0.12 0.07 0
0.13 0.07 0
0.14 0.07 0
0.15 0.07 0
0.16 0.07 0
0.17 0.07 0
0.18 0.07 0
0.19 0.07 0
0.2 0.07 0
0.21 0.07 0
0.22 0.07 0
0.23 0.07 0
0.24 0.07 0
0.25 0.07 0
0.26 0.07 0
0.27 0.07 0
0.28 0.07 0
0.29 0.07 0
0.3 0.07 0
0.31 0.07 0
0.32 0.07 0
0.33 0.07 0
0.34 0.07 0
0.35 0.07 0
0.36 0.07 0
0.37 0.07 0
0.38 0.07 0
0.39 0.07 0
0.4 0.07 0
0.41 0.07 0
0.42 0.07 0
0.43 0.07 0
0.44 0.07 0
0.45 0.07 0
0.46 0.07 0
0.47 0.07 0
0.48 0.07 0
0.49 0.07 0
0.5 0.07 0
0.51 0.07 0
0.52 0.07 0
0.53 0.07 0
0.54 0.07 0
0.55 0.07 0
0.56 0.07 0
0.57 0.07 0
0.58 0.07 0
0.59 0.07 0
0.6 0.07 0
0.61 0.07 0
0 0.08 0
0.01 0.08 0
0.02 0.08 0
0.03 0.08 0
0.04 0.08 0
0.05 0.08 0
0.06 0.08 0
0.07 0.08 0
0.08 0.08 0
0.09 0.08 0
0.1 0.08 0
0.11 0.08 0
0.12 0.08 0
0.13 0.08 0
0.14 0.08 0
0.15 0.08 0
0.16 0.08 0
0.17 0.08 0
0.18 0.08 0
0.19 0.08 0
0.2 0.08 0
0.21 0.08 0
0.22 0.08 0
0.23 0.08 0
0.24 0.08 0
0.25 0.08 0
0.26 0.08 0
0.27 0.08 0
0.28 0.08 0
0.29 0.08 0
0.3 0.08 0
0.31 0.08 0
0.32 0.08 0
0.33 0.08 0
0.34 0.08 0
0.35 0.08 0
0.36 0.08 0
0.37 0.08 0
0.38 0.08 0
0.39 0.08 0
0.4 0.08 0
0.41 0.08 0
0.42 0.08 0
0.43 0.08 0
0.44 0.08 0
0.45 0.08 0
0.46 0.08 0
0.47 0.08 0
0.48 0.08 0
0.49 0.08 0
0.5 0.08 0
0.51 0.08 0
0.52 0.08 0
0.53 0.08 0
0.54 0.08 0
0.55 0.08 0
0.56 0.08 0
0.57 0.08 0
0.58 0.08 0
0.59 0.08 0
0.6 0.08 0
0.61 0.08 0
0 0.09 0
0.01 0.09 0
0.02 0.09 0
0.03 0.09 0
0.04 0.09 0
0.05 0.09 0
0.06 0.09 0
0.07 0.09 0
0.08 0.09 0
0.09 0.09 0
0.1 0.09 0
0.11 0.09 0
0.12 0.09 0
0.13 0.09 0
0.14 0.09 0
0.15 0.09 0
0.16 0.09 0
0.17 0.09 0
0.18 0.09 0
0.19 0.09 0
0.2 0.09 0
0.21 0.09 0
0.22 0.09 0
0.23 0.09 0
0.24 0.09 0
0.25 0.09 0
0.26 0.09 0
0.27 0.09 0
0.28 0.09 0
0.29 0.09 0
0.3 0.09 0
0.31 0.09 0
0.32 0.09 0
0.33 0.09 0
0.34 0.09 0
0.35 0.09 0
0.36 0.09 0
0.37 0.09 0
0.38 0.09 0
0.39 0.09 0
0.4 0.09 0
0.41 0.09 0
0.42 0.09 0
0.43 0.09 0
0.44 0.09 0
0.45 0.09 0
0.46 0.09 0
0.47 0.09 0
0.48 0.09 0
0.49 0.09 0
0.5 0.09 0
0.51 0.09 0
0.52 0.09 0
0.53 0.09 0
0.54 0.09 0
0.55 0.09 0
0.56 0.09 0
0.57 0.09 0
0.58 0.09 0
0.59 0.09 0
0.6 0.09 0
0.61 0.09 0
0 0.1 0
0.01 0.1 0
0.02 0.1 0
0.03 0.1 0
0.04 0.1 0
0.05 0.1 0
0.06 0.1 0
0.07 0.1 0
0.08 0.1 0
0.09 0.1 0
0.1 0.1 0
0.11 0.1 0
0.12 0.1 0
0.13 0.1 0
0.14 0.1 0
0.15 0.1 0
0.16 0.1 0
0.17 0.1 0
0.18 0.1 0
0.19 0.1 0
0.2 0.1 0
0.21 0.1 0
0.22 0.1 0
0.23 0.1 0
0.24 0.1 0
0.25 0.1 0
0.26 0.1 0
0.27 0.1 0
0.28 0.1 0
0.29 0.1 0
0.3 0.1 0
0.31 0.1 0
0.32 0.1 0
0.33 0.1 0
0.34 0.1 0
0.35 0.1 0
0.36 0.1 0
0.37 0.1 0
0.38 0.1 0
0.39 0.1 0
0.4 0.1 0
0.41 0.1 0
0.42 0.1 0
0.43 0.1 0
0.44 0.1 0
0.45 0.1 0
0.46 0.1 0
0.47 0.1 0
0.48 0.1 0
0.49 0.1 0
0.5 0.1 0
0.51 0.1 0
0.52 0.1 0
0.53 0.1 0
0.54 0.1 0
0.55 0.1 0
0.56 0.1 0
0.57 0.1 0
0.58 0.1 0
0.59 0.1 0
0.6 0.1 0
0.61 0.1 0
0 0.11 0
0.01 0.11 0
0.02 0.11 0
0.03 0.11 0
0.04 0.11 0
0.05 0.11 0
0.06 0.11 0
0.07 0.11 0
0.08 0.11 0
0.09 0.11 0
0.1 0.11 0
0.11 0.11 0
0.12 0.11 0
0.13 0.11 0
0.14 0.11 0
0.15 0.11 0
0.16 0.11 0
0.17 0.11 0
0.18 0.11 0
0.19 0.11 0
0.2 0.11 0
0.21 0.11 0
0.22 0.11 0
0.23 0.11 0
0.24 0.11 0
0.25 0.11 0
0.26 0.11 0
0.27 0.11 0
0.28 0.11 0
0.29 0.11 0
0.3 0.11 0
0.31 0.11 0
0.32 0.11 0
0.33 0.11 0
0.34 0.11 0
0.35 0.11 0
0.36 0.11 0
0.37 0.11 0
0.38 0.11 0
0.39 0.11 0
0.4 0.11 0
0.41 0.11 0
0.42 0.11 0
0.43 0.11 0
0.44 0.11 0
0.45 0.11 0
0.46 0.11 0
0.47 0.11 0
0.48 0.11 0
0.49 0.11 0
0.5 0.11 0
0.51 0.11 0
0.52 0.11 0
0.53 0.11 0
0.54 0.11 0
0.55 0.11 0
0.56 0.11 0
0.57 0.11 0
0.58 0.11 0
0.59 0.11 0
0.6 0.11 0
0.61 0.11 0
0 0.12 0
0.01 0.12 0
0.02 0.12 0
0.03 0.12 0
0.04 0.12 0
0.05 0.12 0
0.06 0.12 0
0.07 0.12 0
0.08 0.12 0
0.09 0.12 0
0.1 0.12 0
0.11 0.12 0
0.12 0.12 0
0.13 0.12 0
0.14 0.12 0
0.15 0.12 0
0.16 0.12 0
0.17 0.12 0
0.18 0.12 0
0.19 0.12 0
0.2 0.12 0
0.21 0.12 0
0.22 0.12 0
0.23 0.12 0
0.24 0.12 0
0.25 0.12 0
0.26 0.12 0
0.27 0.12 0
0.28 0.12 0
0.29 0.12 0
0.3 0.12 0
0.31 0.12 0
0.32 0.12 0
0.33 0.12 0
0.34 0.12 0
0.35 0.12 0
0.36 0.12 0
0.37 0.12 0
0.38 0.12 0
0.39 0.12 0
0.4 0.12 0
0.41 0.12 0
0.42 0.12 0
0.43 0.12 0
0.44 0.12 0
0.45 0.12 0
0.46 0.12 0
0.47 0.12 0
0.48 0.12 0
0.49 0.12 0
0.5 0.12 0
0.51 0.12 0
0.52 0.12 0
0.53 0.12 0
0.54 0.12 0
0.55 0.12 0
0.56 0.12 0
0.57 0.12 0
0.58 0.12 0
0.59 0.12 0
0.6 0.12 0
0.61 0.12 0
0 0.13 0
0.01 0.13 0
0.02 0.13 0
0.03 0.13 0
0.04 0.13 0
0.05 0.13 0
0.06 0.13 0
0.07 0.13 0
0.08 0.13 0
0.09 0.13 0
0.1 0.13 0
0.11 0.13 0
0.12 0.13 0
0.13 0.13 0
0.14 0.13 0
0.15 0.13 0
0.16 0.13 0
0.17 0.13 0
0.18 0.13 0
0.19 0.13 0
0.2 0.13 0
0.21 0.13 0
0.22 0.13 0
0.23 0.13 0
0.24 0.13 0
0.25 0.13 0
0.26 0.13 0
0.27 0.13 0
0.28 0.13 0
0.29 0.13 0
0.3 0.13 0
0.31 0.13 0
0.32 0.13 0
0.33 0.13 0
0.34 0.13 0
0.35 0.13 0
0.36 0.13 0
0.37 0.13 0
0.38 0.13 0
0.39 0.13 0
0.4 0.13 0
0.41 0.13 0
0.42 0.13 0
0.43 0.13 0
0.44 0.13 0
0.45 0.13 0
0.46 0.13 0
0.47 0.13 0
0.48 0.13 0
[...]
POINT_DATA 93248

SCALARS v double
LOOKUP_TABLE default
0
0
0
0
0
0
0
0
0
0
0
0
0
0
0
0
0
0
0
0
0
0
0
0
0
0
0
0
0
0
0
0
0
0
0
0
0
0
-0.12515
0
0
0
0
0
-0.131551
0
0
0
0
0
0
0
0
0
0
0
0
0
0
0
0
0
0
0.043344
-0.0922162
0.0449975
0.0309322
0.0129895
0
-0.00985464
-0.0173218
-0.021883
-0.0247807
-0.0280204
-0.0355464
-0.0344476
-0.0350384
-0.0363437
-0.0370383
-0.0361178
-0.0358326
-0.0354443
-0.0466431
-0.0377352
-0.0290505
-0.0366125
-0.0371567
-0.0368629
-0.0366519
-0.0365226
-0.0363845
-0.0361466
-0.0357956
-0.0359746
-0.0391478
-0.0359716
-0.0350837
-0.035682
-0.0874648
-0.0339242
-0.0325308
-0.0313915
-0.039144
-0.0779447
-0.0388447
-0.0410984
-0.0494812
-0.0826696
-0.161659
-0.0386455
-0.0545022
-0.0359897
-0.0360692
-0.0340364
-0.040227
-0.0501736
-0.0794427
-0.0476345
-0.11688
-0.0364394
-0.0302264
-0.0266889
-0.0225467
0
0
0.0251064
0.0482529
0.0557124
0.0515077
0.032361
0.0280785
0.0170536
0.00523475
-0.00593551
-0.0150523
-0.0236744
-0.155059
-0.0406795
-0.0444537
-0.0516818
-0.051006
-0.0496215
-0.0521501
-0.0555492
-0.226642
-0.0557904
-0.0663768
-0.0563939
-0.0535552
-0.0525787
-0.0521426
-0.051871
-0.0515973
-0.0511833
-0.0505247
-0.0502291
-0.132126
-0.0497073
-0.0500525
-0.0518061
-0.051647
-0.0485564
-0.0470641
-0.049924
-0.0536001
-0.0567783
-0.0569845
-0.0602071
-0.0652992
-0.072485
-0.067981
-0.0579188
-0.0545022
-0.0529173
-0.0545345
-0.062116
-0.0589265
-0.0631329
-0.0690793
-0.0598439
-0.0539146
-0.133516
-0.0381554
-0.0341338
-0.0316335
0
0
0.0127692
0.0330708
0.0415294
0.0511591
0.0562181
0.0424106
0.0309199
0.0192134
0.00741547
-0.00478527
-0.0163223
-0.0305229
-0.0380644
-0.0450848
-0.0521211
-0.055942
0
-0.05979
-0.0636523
-0.0689281
-0.0669734
-0.0672824
-0.0648991
-0.0631281
-0.062119
-0.0615394
-0.0611589
-0.0608403
-0.0605213
-0.0603304
-0.0610016
-0.0642807
-0.0667939
-0.0640231
-0.0598025
-0.0589098
-0.0581313
-0.0582866
-0.0604954
-0.0625034
-0.0649722
-0.0674125
-0.0682863
-0.071133
-0.0724624
-0.0672477
-0.065266
-0.0637201
-0.0636217
-0.0641557
-0.0657281
-0.0657174
-0.0659521
-0.0650574
-0.0616377
-0.056935
-0.0521088
-0.0435401
-0.0397662
-0.0398422
0
0
0.00748682
0.0230314
0.037708
0.0404216
0.0419203
0.0367648
0.0290161
0.0196551
0.00926686
-0.00183453
-0.0130905
-0.0242163
-0.0333042
-0.0418138
-0.0523034
-0.0531551
-0.0555976
-0.0606094
-0.0652158
-0.06729
-0.0685747
-0.0689521
-0.0686291
-0.0680891
-0.0675946
-0.067173
-0.0668474
-0.0665908
-0.0663947
-0.0663627
-0.0667888
-0.0680985
-0.0705354
-0.069225
-0.0666315
-0.0652743
-0.0649997
-0.0657567
-0.0668746
-0.0681707
-0.0696925
-0.0713027
-0.0724255
-0.0734152
-0.0725321
-0.0670802
-0.0688993
-0.0690195
-0.0687979
-0.0685326
-0.0681827
-0.0674992
-0.0660309
-0.0636344
-0.0605702
-0.0562626
-0.0509832
-0.0452396
-0.0424283
-0.0467442
0
0
0.00456417
0.0147363
0.0232063
0.0269965
0.0279281
0.0254468
0.019613
0.0120644
0.00343461
-0.0059399
-0.0154765
-0.0244102
-0.0317298
-0.0372513
-0.0367892
-0.0478354
-0.0538611
-0.0592269
-0.0626479
-0.0656255
-0.0680416
-0.0695391
-0.0703526
-0.0707318
-0.0708576
-0.0707551
-0.0706439
-0.0705442
-0.0704298
-0.0702888
-0.0701483
-0.0705552
-0.075156
-0.0727869
-0.0708092
-0.0699076
-0.0698668
-0.0704046
-0.0711435
-0.0719709
-0.0728309
-0.073674
-0.074442
-0.074897
-0.0743315
0
-0.0714378
-0.0718489
-0.0713668
-0.0706122
-0.0695653
-0.0681307
-0.0660462
-0.0633594
-0.0602137
-0.0564639
-0.0523746
-0.0484058
-0.0444654
-0.0515213
-0.139542
0
0.00268986
0.00908679
0.0140139
0.0163789
0.0163937
0.0145504
0.00860893
0
-0.00517711
-0.0131346
-0.0212643
-0.0287717
-0.033961
-0.0380566
-0.0418888
-0.0485575
-0.0529553
-0.0550789
-0.0600422
-0.0641328
-0.0674814
-0.0698511
-0.0714385
-0.0725054
-0.0732098
-0.0734032
-0.0736115
-0.073746
-0.0737199
-0.0734407
-0.0727869
-0.0720514
-0.170672
-0.0751235
-0.0737713
-0.0734873
-0.0736687
-0.074077
-0.0745434
-0.0750018
-0.0754037
-0.0756972
-0.0759233
-0.075651
-0.074461
-0.071686
-0.0727087
-0.0731017
-0.0727514
-0.0719074
-0.0706628
-0.0689932
-0.0668278
-0.0643349
-0.0616157
-0.0589257
-0.0572871
-0.0593221
-0.0662712
-0.0525895
0
0
0.00139691
0.00520427
0.00780439
0.00854955
0.00718723
0.0032396
-2.31416e-05
-0.0060815
-0.0131234
-0.0205589
-0.0281688
-0.0357353
-0.0383489
-0.041448
-0.0453701
-0.0515516
-0.0561446
-0.0562385
-0.060278
-0.0643359
-0.0681763
-0.0708244
-0.0727446
-0.0742242
-0.0753859
-0.0758007
-0.0764337
-0.0768502
-0.076954
-0.0767016
-0.0762972
-0.0766696
-0.0794444
-0.0782647
-0.0774145
-0.0771295
-0.0772222
-0.0774574
-0.0776873
-0.0778566
-0.0779447
-0.0779288
-0.0775712
-0.0770449
-0.0761647
-0.0752044
-0.07492
-0.0746837
-0.0741493
-0.0732593
-0.0720393
-0.0704894
-0.0685067
-0.0664688
-0.0643414
-0.0621519
-0.0599354
-0.120448
-0.0291571
-0.0494467
0
0
0.000467383
0.00244595
0.00340074
0.0028605
0.000608949
-0.00334476
-0.0078614
-0.0137102
-0.0203235
-0.0272267
-0.034739
-0.0462814
-0.0317298
-0.0452799
-0.0475471
-0.0473728
-0.0485024
-0.0580175
-0.0627793
-0.0664308
-0.0706153
-0.0728005
-0.074621
-0.0762088
-0.0758007
-0.0788257
-0.0796864
-0.0802508
-0.0804534
-0.0801455
-0.0795639
-0.0797384
-0.0805052
-0.0806424
-0.0805764
-0.0805396
-0.0806676
-0.0807952
-0.0808311
-0.0807638
-0.0805915
-0.0802894
-0.0798036
-0.0792034
-0.0785346
-0.0779236
-0.0773497
-0.0767358
-0.0759713
-0.0750185
-0.0738955
-0.0727131
-0.0708953
-0.0693568
-0.0677432
-0.0659812
-0.063867
-0.0605915
-0.0518028
-0.0509052
0
0
-0.000222333
0.000425292
0.000162206
-0.00137583
-0.00431934
-0.00858413
-0.0137912
-0.0198095
-0.0261733
-0.0321753
-0.0362701
-0.0311676
-0.043254
-0.0489049
-0.0516818
-0.0535484
-0.0570779
-0.0620092
-0.066041
-0.0691488
-0.101609
-0.0753766
-0.0770945
-0.0788335
-0.0806578
-0.0817646
-0.0829797
-0.0839128
-0.0843158
-0.0838147
-0.0822018
-0.0822397
-0.0828639
-0.0833864
-0.0837054
-0.0838542
-0.0840698
-0.0841602
-0.0840426
-0.0837873
-0.0834277
-0.0829621
-0.0823992
-0.081789
-0.0811753
-0.0805698
-0.0798972
-0.0791103
-0.0781931
-0.077188
-0.076048
-0.0746463
-0.0736455
-0.0726243
-0.0712963
-0.0696571
-0.0674524
-0.0641383
-0.0590611
-0.0534664
0
0
-0.000749731
-0.00109802
-0.00229342
-0.00465082
-0.00820095
-0.0129057
-0.0185394
-0.0247802
-0.0311281
-0.0368978
-0.0412576
-0.0441879
-0.0498661
-0.0544757
-0.0569122
-0.0600295
-0.0637197
-0.0674303
-0.070815
-0.0738273
-0.0770277
-0.0788265
-0.0804022
-0.0818413
-0.0826049
-0.084938
-0.0867374
-0.0881025
-0.0888033
-0.0886336
-0.0832493
-0.0845836
-0.085861
-0.0866263
-0.0871152
-0.0874648
-0.0873912
-0.0875514
-0.0873142
-0.0869138
-0.0864319
-0.0858753
-0.0852426
-0.0846132
-0.0839925
-0.0833484
-0.0826166
-0.0817368
-0.0807225
-0.0797467
-0.0786685
-0.0775294
-0.0772306
-0.0761481
-0.0748115
-0.0731461
-0.0708378
-0.0674375
-0.0624897
-0.0562761
0
0
-0.00116677
-0.00228312
-0.00420328
-0.00847202
-0.0113612
-0.0165438
-0.0225718
-0.0291174
-0.0357132
-0.0418387
-0.0472284
-0.0522232
-0.0571629
-0.0614399
-0.0621417
-0.0663136
-0.070155
-0.0734391
-0.0764749
-0.0790549
-0.0811326
-0.0827696
-0.0841989
-0.085576
-0.0870473
-0.0890106
-0.0911274
-0.0928689
-0.0935083
-0.0932683
0
-0.088387
-0.0896233
-0.090223
-0.0906701
-0.0910274
-0.0912476
-0.090961
-0.0906263
-0.0901076
-0.089555
-0.0890029
-0.0882504
-0.087591
-0.0869611
-0.0862992
-0.0855426
-0.0846024
-0.083496
-0.0827388
-0.0819577
-0.0811224
-0.0804211
-0.0794427
-0.0781849
-0.076509
-0.0741035
-0.0705244
-0.0653536
-0.0590291
0
0
-0.00151135
-0.00324958
-0.00579704
-0.00934703
-0.0140465
-0.0197182
-0.0261769
-0.0331212
-0.0401478
-0.0467863
-0.0530063
-0.0587293
-0.0640048
-0.0689866
0
-0.0731301
-0.0767808
-0.0796549
-0.0826557
-0.0847362
-0.0861444
-0.0872935
-0.0884226
-0.0896884
-0.0912757
-0.0933811
-0.0960433
-0.0982685
-0.0981939
-0.0954325
-0.0912785
-0.0918124
-0.0927889
-0.0935824
-0.0941749
-0.0946069
-0.0948559
-0.0947472
-0.0941504
-0.0933498
-0.0927047
-0.0925953
-0.0913287
-0.0906593
-0.0900543
-0.0894133
-0.0886814
-0.0877094
-0.0863862
-0.0860643
-0.0855495
-0.0847407
-0.0837972
-0.082762
-0.0815312
-0.079846
-0.0773548
-0.0735926
-0.0681852
-0.0616627
0
0
-0.00180803
-0.00406807
-0.00713776
-0.0110044
-0.0164162
-0.02259
-0.0295093
-0.036926
-0.0444852
-0.0486486
-0.0584654
-0.064578
-0.0698596
-0.073989
-0.07582
-0.079583
-0.0827606
-0.0854873
-0.0893673
-0.0908249
-0.0914741
-0.0920739
-0.0928422
-0.0938761
-0.0953469
-0.0975914
-0.101081
-0.104571
-0.106354
-0.0998294
-0.0964421
-0.0959477
-0.0964526
-0.0971261
-0.0977436
-0.0982717
-0.0985871
-0.0987093
-0.0977178
-0.0964406
-0.0951935
-0.0930251
-0.0938551
-0.0936975
-0.0932232
-0.0926477
-0.0920056
-0.091082
-0.0891938
-0.0897172
-0.0893394
-0.0883846
-0.0872572
-0.0861961
-0.084985
-0.0832797
-0.0806867
-0.0767269
-0.0710078
-0.0641554
0
0
-0.00207652
-0.00480796
-0.00847202
-0.0133937
-0.0187615
-0.0252881
-0.0326608
-0.0405761
-0.0486486
-0.0564293
-0.0636892
-0.0701163
-0.0755667
-0.0799237
-0.0833212
-0.0864308
-0.0889344
-0.0910822
-0.0973238
-0.0970399
-0.096714
-0.0968417
-0.0972617
-0.0979351
-0.0989733
-0.100767
-0.104372
-0.0704298
-0.130984
-0.10392
-0.0993279
-0.0991892
-0.0998307
-0.100524
-0.101242
-0.102107
-0.103308
-0.103209
-0.101441
-0.0996129
-0.0983021
-0.0974221
-0.0972171
-0.0969333
-0.0964584
-0.0959248
-0.0953978
-0.0947697
-0.0687979
-0.0938909
-0.0933051
-0.092073
-0.0905266
-0.0897712
-0.0886381
-0.0869556
-0.0844019
-0.08007
-0.0738473
-0.0664619
0
0
-0.00232084
-0.00542828
-0.00952884
-0.0146917
-0.0207572
-0.0277993
-0.035673
-0.0441261
-0.0527629
-0.0611209
-0.0687864
-0.0755547
-0.0813385
-0.0861382
-0.0900673
-0.0931511
-0.0952264
-0.0961936
-0.205347
-0.102364
-0.101653
-0.101609
-0.101701
-0.101826
-0.101913
-0.101626
-0.0993755
-0.0879159
-0.0378954
-0.0820299
-0.0954078
-0.100078
-0.102092
-0.103274
-0.104318
-0.105617
-0.107293
-0.108318
-0.105694
-0.103149
-0.101746
-0.101123
-0.100754
-0.100322
-0.0997173
-0.0991319
-0.0984993
-0.0978045
-0.0970446
-0.0979321
-0.0972035
-0.0961421
-0.0959896
-0.093898
-0.092513
-0.0909286
-0.0882428
-0.0837738
-0.0768331
-0.0684981
0
0
-0.00257688
-0.00593476
-0.0104813
-0.0160807
-0.0226629
-0.0301785
-0.0385615
-0.0476026
-0.056847
-0.0657579
-0.0737895
-0.0809271
-0.0871336
-0.0924005
-0.0967055
-0.100013
-0.102471
-0.104769
-0.108592
-0.108188
-0.107487
-0.106914
-0.1064
-0.105805
-0.104861
-0.102931
-0.0986803
-0.0909722
-0.0825539
-0.0909524
-0.0976832
-0.101707
-0.104047
-0.105571
-0.106898
-0.108601
-0.111266
-0.114586
-0.112672
-0.107554
-0.105292
-0.104535
-0.10411
-0.103602
-0.102846
-0.102281
-0.101632
-0.101077
-0.101303
-0.102789
-0.10124
-0.0998324
-0.0989392
-0.097819
-0.0959273
-0.0954421
-0.0929068
-0.0883759
-0.0804539
-0.0701316
0
0
-0.00291566
0.000425292
-0.0114522
-0.0175193
-0.0245723
-0.032326
-0.0413351
-0.0510687
-0.0609835
-0.0704564
-0.0786697
-0.0861959
-0.0929109
-0.0987231
-0.103444
-0.106981
-0.109594
-0.111771
-0.113283
-0.113442
-0.112924
-0.112132
-0.111198
-0.110076
-0.108566
-0.106275
-0.102735
-0.099704
-0.100073
-0.101651
-0.103631
-0.105463
-0.106936
-0.108063
-0.109093
-0.110455
-0.113129
-0.119699
-0.134983
-0.111585
-0.107495
-0.106968
-0.106813
-0.106482
-0.102846
-0.105358
-0.104779
-0.104322
-0.104873
-0.108364
-0.105061
-0.103476
-0.102946
-0.10318
-0.105705
-0.101819
-0.098933
-0.0948751
-0.0864236
-0.0711691
0
0
-0.0029906
-0.00704699
-0.0123703
-0.0190062
-0.0266413
-0.035014
-0.0444633
-0.054758
-0.065321
-0.0753702
-0.0832465
-0.0913161
-0.0986859
-0.105214
-0.110391
-0.113985
-0.116446
-0.118418
-0.119206
-0.119044
-0.118328
-0.117309
-0.116097
-0.114715
-0.113132
-0.111302
-0.109223
-0.106745
-0.110225
-0.109457
-0.109352
-0.109859
-0.110454
-0.110798
-0.110859
-0.110334
-0.107835
-0.0965515
-0.0469645
-0.0906554
-0.103055
-0.107095
-0.108397
-0.108691
-0.10852
-0.108285
-0.107922
-0.107517
-0.107692
-0.175245
-0.10813
-0.107225
-0.107273
-0.107634
-0.107916
-0.106949
-0.10627
-0.104076
-0.101107
-0.0982208
0
0
-0.00314735
-0.00760542
-0.0132864
-0.0206837
-0.0288763
-0.0365517
-0.0470246
-0.0583105
-0.0697768
-0.0806703
-0.0870546
-0.0963963
-0.104559
-0.112095
-0.117685
-0.120976
-0.123047
-0.125268
-0.125521
-0.124856
-0.123803
-0.122537
-0.121117
-0.119627
-0.11817
-0.116834
-0.115107
-0.112616
-0.195089
-0.11488
-0.114197
-0.11426
-0.114321
-0.113859
-0.112759
-0.110671
-0.106462
-0.0987326
-0.0900105
-0.0975319
-0.104445
-0.108056
-0.109889
-0.110787
-0.111175
-0.11128
-0.111323
-0.111495
-0.112229
-0.114058
-0.112439
-0.111729
-0.111788
-0.1121
-0.112273
-0.11232
-0.111922
-0.110232
-0.106311
-0.0992617
0
0
-0.00333798
-0.00812711
-0.0140213
-0.0339191
-0.0313677
0
-0.04992
-0.0620217
-0.0743573
-0.0865351
-0.0212643
-0.10212
-0.110543
-0.119831
-0.125276
-0.127683
-0.129141
-0.1326
-0.131809
-0.130583
-0.129269
-0.127815
-0.126203
-0.124613
-0.12326
-0.122602
-0.123118
-0.119885
-0.121134
-0.119994
-0.119288
-0.119008
-0.118679
-0.117452
-0.115606
-0.113144
-0.109951
-0.106696
-0.105798
-0.107122
-0.109281
-0.111053
-0.112377
-0.113402
-0.114077
-0.11442
-0.114785
-0.115218
-0.115698
-0.115979
-0.115725
-0.115749
-0.116162
-0.116647
-0.11688
-0.116949
-0.116172
-0.11385
-0.108983
-0.10107
0
0
-0.00354938
-0.00870599
-0.0151357
-0.0232846
-0.0322324
-0.0412096
-0.0528074
-0.0654012
-0.0782079
-0.0898621
-0.0981331
-0.107618
-0.115769
-0.129753
-0.131818
-0.133432
-0.134472
-0.195952
-0.137482
-0.13613
-0.134779
-0.13319
-0.131286
-0.129459
-0.127727
-0.125455
-0.118335
-0.122925
-0.124025
-0.123924
-0.123684
-0.123654
-0.123534
-0.121777
-0.119466
-0.117188
-0.11513
-0.1138
-0.113718
-0.114045
-0.114567
-0.115084
-0.115413
-0.116632
-0.1174
-0.117725
-0.118261
-0.118758
-0.119036
-0.118923
-0.118795
-0.119365
-0.120287
-0.121045
-0.12114
-0.120964
-0.11956
-0.11648
-0.11134
-0.103273
0
0
-0.00375928
-0.0092586
-0.0160628
-0.0242779
-0.0336195
-0.0439554
-0.0558046
-0.0689564
-0.0825137
-0.0950079
-0.104775
-0.113997
-0.122052
-0.261788
-0.13744
-0.139587
-0.141814
-0.144159
-0.143547
-0.142262
-0.140681
-0.138805
-0.136324
-0.134248
-0.132377
-0.1303
-0.128178
-0.128108
-0.127942
-0.12772
-0.127677
-0.128103
-0.128997
-0.12756
-0.124159
-0.121967
-0.120329
-0.11952
-0.119325
-0.11933
-0.119405
-0.119704
-0.121276
-0.120652
-0.121078
-0.121209
-0.12186
-0.122359
-0.122534
-0.122101
-0.121587
-0.122836
-0.124243
-0.125229
-0.12515
-0.124753
-0.122603
-0.118601
-0.113738
-0.105717
0
0
-0.00396747
-0.00980208
-0.0169675
-0.0255144
-0.0353313
-0.0462793
-0.0583922
-0.0724878
-0.087213
-0.102448
-0.110752
-0.120875
-0.130505
-0.14042
-0.144412
-0.147069
-0.149095
-0.14998
-0.149539
-0.148309
-0.14666
-0.144591
-0.141078
-0.139058
-0.137427
-0.135789
-0.134389
-0.133199
-0.132184
-0.131522
-0.131228
-0.131664
-0.134041
-0.139806
-0.128689
-0.127187
-0.124714
-0.124092
-0.123859
-0.123745
-0.123619
-0.1235
-0.123806
-0.123964
-0.124161
-0.125315
-0.125727
-0.126093
-0.126221
-0.125264
-0.123345
-0.126795
-0.128135
-0.128629
-0.129718
-0.128733
-0.125648
-0.120055
-0.116282
-0.108336
0
0
-0.00418148
-0.0103685
-0.0179391
-0.0269511
-0.0373152
-0.0486546
-0.0598521
-0.0756155
-0.0890598
-0.0963025
-0.114154
-0.126975
-0.137294
-0.14534
-0.150615
-0.153932
-0.156253
-0.156473
-0.155728
-0.154375
-0.152703
-0.150645
-0.145128
-0.143998
-0.142735
-0.14114
-0.139509
-0.137479
-0.136386
-0.135075
-0.13381
-0.132126
-0.126747
-0.101047
-0.120459
-0.121522
-0.12622
-0.127297
-0.127543
-0.12755
-0.127309
-0.126705
-0.126879
-0.127403
-0.127978
-0.128688
-0.129221
-0.129711
-0.130077
-0.128963
-0.124613
-0.130904
-0.132209
-0.132778
-0.133226
-0.132521
-0.129032
-0.120448
-0.119302
-0.111065
0
0
-0.00440526
-0.0109717
-0.0190027
-0.0286016
-0.0398078
-0.0527925
-0.0696515
-0.0807304
-0.0936304
-0.106575
-0.120873
-0.133494
-0.143837
-0.151699
-0.157243
-0.160756
-0.162128
-0.162646
-0.161855
-0.160368
-0.158681
-0.157047
-0.0788335
-0.149656
-0.148189
-0.146213
-0.144277
-0.133199
-0.140299
-0.138375
-0.135756
-0.133795
-0.129282
-0.123817
-0.126026
-0.127603
-0.129335
-0.130312
-0.130818
-0.131038
-0.130758
-0.129407
-0.130007
-0.130889
-0.131584
-0.132121
-0.132583
-0.133035
-0.133477
-0.133765
-0.040227
-0.154071
-0.135957
-0.136365
-0.136658
-0.136279
-0.133516
-0.0266889
-0.123408
-0.113805
0
0
-0.00463493
-0.0115978
-0.0201212
-0.0303407
-0.0423026
-0.0560021
-0.0710023
-0.0842342
-0.098749
-0.113662
-0.127944
-0.140509
-0.150823
-0.158713
-0.164346
-0.167839
-0.169226
-0.169142
-0.167987
-0.166173
-0.163997
-0.161161
-0.156916
-0.15485
-0.152885
-0.150595
-0.148352
-0.146114
-0.144325
-0.142747
-0.14285
-0.138362
-0.135117
-0.133309
-0.132812
-0.132995
-0.133414
-0.133845
-0.134244
-0.134568
-0.134322
-0.131465
-0.133269
-0.134469
-0.135094
-0.13548
-0.135798
-0.136091
-0.136256
-0.135899
-0.134257
-0.137571
-0.138829
-0.139458
-0.139604
-0.138852
-0.136061
-0.129824
-0.125402
-0.116453
0
0
-0.00485876
-0.0122132
-0.0212448
-0.0321098
-0.0447882
-0.0591677
-0.0746727
-0.0872994
-0.103804
-0.120081
-0.134919
-0.147722
-0.158132
-0.166063
-0.171732
-0.175115
-0.176082
-0.175548
-0.174011
-0.171859
-0.169446
-0.166449
-0.163043
-0.160385
-0.157736
-0.154809
-0.152377
-0.150236
-0.148323
-0.146582
-0.144875
-0.142454
-0.140349
-0.138982
-0.138101
-0.137646
-0.13748
-0.137521
-0.137729
-0.138081
-0.138237
-0.0829621
-0.137136
-0.138089
-0.138457
-0.138672
-0.138857
-0.139034
-0.139174
-0.139287
-0.139659
-0.140757
-0.14179
-0.142468
-0.142621
-0.14196
-0.139858
-0.135705
-0.128856
-0.119188
0
0
-0.00505384
-0.0127589
-0.0223256
-0.0339191
-0.0473527
-0.0625922
-0.0796069
-0.021883
-0.109698
-0.126764
-0.142013
-0.155059
-0.165624
-0.173559
-0.179242
-0.182571
-0.182841
-0.181872
-0.179977
-0.177523
-0.175184
-0.171902
-0.168435
-0.165179
-0.162131
-0.158745
-0.156339
-0.154181
-0.152149
-0.150206
-0.148254
-0.146346
-0.144668
-0.143332
-0.142315
-0.141612
-0.14119
-0.141001
-0.140971
-0.14095
-0.140561
-0.139197
-0.140269
-0.141065
-0.141477
-0.141657
-0.141781
-0.141937
-0.142174
-0.142626
-0.143374
-0.144216
-0.145078
-0.145745
-0.145982
-0.145596
-0.144304
-0.139977
-0.132402
-0.12206
0
0
-0.00517587
-0.0131183
-0.023352
-0.0358354
-0.049968
-0.0656546
-0.08225
-0.097671
-0.115754
-0.133209
-0.148963
-0.162453
-0.173269
-0.181208
-0.186441
-0.190213
-0.189371
-0.188208
-0.186024
-0.183206
-0.181246
-0.177205
-0.173197
-0.169378
-0.165284
-0.163022
-0.160437
-0.158038
-0.155836
-0.153774
-0.151822
-0.150026
-0.148419
-0.147009
-0.145871
-0.145045
-0.14451
-0.144204
-0.144044
-0.143902
-0.143677
-0.143503
-0.143825
-0.14426
-0.144518
-0.144558
-0.144602
-0.14474
-0.145016
-0.145634
-0.146562
-0.147564
-0.14851
-0.149252
-0.149529
-0.149134
-0.147571
-0.14357
-0.135774
-0.125036
0
0
-0.00516027
-0.0130064
-0.0247203
-0.0378921
-0.052806
-0.0691731
-0.0865084
-0.104279
-0.122597
-0.140302
-0.156411
-0.170219
-0.181308
-0.189648
-0.196579
-0.198323
-0.195952
-0.194864
-0.192652
-0.18896
-0.217162
-0.181918
-0.177588
-0.17357
-0.169192
-0.166289
-0.163808
-0.161478
-0.159256
-0.157164
-0.155215
-0.153423
-0.151763
-0.150198
-0.148933
-0.148047
-0.147483
-0.147155
-0.146993
-0.146899
-0.146852
-0.146902
-0.14719
-0.147548
-0.147641
-0.147408
-0.147324
-0.147409
-0.147607
-0.148358
-0.149555
-0.150829
-0.15198
-0.152864
-0.153104
-0.152578
-0.150951
-0.146996
-0.139116
-0.128074
0
0
-0.00516007
-0.011212
-0.0263316
-0.0407449
-0.0564093
-0.0735205
-0.0917948
-0.110734
-0.129714
-0.147871
-0.164328
-0.178373
-0.189559
-0.197652
-0.202149
-0.202082
-0.205465
-0.203433
-0.199678
-0.195315
-0.191347
-0.186434
-0.181869
-0.177689
-0.172141
-0.169472
-0.167085
-0.164726
-0.162447
-0.160309
-0.15834
-0.15652
-0.154756
-0.152915
-0.151535
-0.150669
-0.150154
-0.149863
-0.149765
-0.149764
-0.149837
-0.149897
-0.150351
-0.150856
-0.150809
-0.150134
-0.14995
-0.149989
-0.14993
-0.150865
-0.15247
-0.154071
-0.155449
-0.156529
-0.156639
-0.155973
-0.154311
-0.150227
-0.142515
-0.131172
0
0
-0.00736224
-0.0219778
-0.0310677
-0.0445928
-0.0606992
-0.0785444
-0.0977698
-0.117597
-0.137253
-0.155924
-0.172719
-0.186914
-0.198069
-0.205948
-0.210092
-0.211711
-0.21186
-0.209444
-0.205347
-0.20048
-0.195388
-0.190231
-0.185489