# vtk DataFile Version 2.0
FlowField
ASCII
DATASET STRUCTURED_GRID
DIMENSIONS 62 47 32 
POINTS 93248 double
0 0 0
0.01 0 0
0.02 0 0
0.03 0 0
0.04 0 0
0.05 0 0
0.06 0 0
0.07 0 0
0.08 0 0
0.09 0 0
0.1 0 0
0.11 0 0
0.12 0 0
0.13 0 0
0.14 0 0
0.15 0 0
0.16 0 0
0.17 0 0
0.18 0 0
0.19 0 0
0.2 0 0
0.21 0 0
0.22 0 0
0.23 0 0
0.24 0 0
0.25 0 0
0.26 0 0
0.27 0 0
0.28 0 0
0.29 0 0
0.3 0 0
0.31 0 0
0.32 0 0
0.33 0 0
0.34 0 0
0.35 0 0
0.36 0 0
0.37 0 0
0.38 0 0
0.39 0 0
0.4 0 0
0.41 0 0
0.42 0 0
0.43 0 0
0.44 0 0
0.45 0 0
0.46 0 0
0.47 0 0
0.48 0 0
0.49 0 0
0.5 0 0
0.51 0 0
0.52 0 0
0.53 0 0
0.54 0 0
0.55 0 0
0.56 0 0
0.57 0 0
0.58 0 0
0.59 0 0
0.6 0 0
0.61 0 0
0 0.01 0
0.01 0.01 0
0.02 0.01 0
0.03 0.01 0
0.04 0.01 0
0.05 0.01 0
0.06 0.01 0
0.07 0.01 0
0.08 0.01 0
0.09 0.01 0
0.1 0.01 0
0.11 0.01 0
0.12 0.01 0
0.13 0.01 0
0.14 0.01 0
0.15 0.01 0
0.16 0.01 0
0.17 0.01 0
0.18 0.01 0
0.19 0.01 0
0.2 0.01 0
0.21 0.01 0
0.22 0.01 0
0.23 0.01 0
0.24 0.01 0
0.25 0.01 0
0.26 0.01 0
0.27 0.01 0
0.28 0.01 0
0.29 0.01 0
0.3 0.01 0
0.31 0.01 0
0.32 0.01 0
0.33 0.01 0
0.34 0.01 0
0.35 0.01 0
0.36 0.01 0
0.37 0.01 0
0.38 0.01 0
0.39 0.01 0
0.4 0.01 0
0.41 0.01 0
0.42 0.01 0
0.43 0.01 0
0.44 0.01 0
0.45 0.01 0
0.46 0.01 0
0.47 0.01 0
0.48 0.01 0
0.49 0.01 0
0.5 0.01 0
0.51 0.01 0
0.52 0.01 0
0.53 0.01 0
0.54 0.01 0
0.55 0.01 0
0.56 0.01 0
0.57 0.01 0
0.58 0.01 0
0.59 0.01 0
0.6 0.01 0
0.61 0.01 0
0 0.02 0
0.01 0.02 0
0.02 0.02 0
0.03 0.02 0
0.04 0.02 0
0.05 0.02 0
0.06 0.02 0
0.07 0.02 0
0.08 0.02 0
0.09 0.02 0
0.1 0.02 0
0.11 0.02 0
0.12 0.02 0
0.13 0.02 0
0.14 0.02 0
0.15 0.02 0
0.16 0.02 0
0.17 0.02 0
0.18 0.02 0
0.19 0.02 0
0.2 0.02 0
0.21 0.02 0
0.22 0.02 0
0.23 0.02 0
0.24 0.02 0
0.25 0.02 0
0.26 0.02 0
0.27 0.02 0
0.28 0.02 0
0.29 0.02 0
0.3 0.02 0
0.31 0.02 0
0.32 0.02 0
0.33 0.02 0
0.34 0.02 0
0.35 0.02 0
0.36 0.02 0
0.37 0.02 0
0.38 0.02 0
0.39 0.02 0
0.4 0.02 0
0.41 0.02 0
0.42 0.02 0
0.43 0.02 0
0.44 0.02 0
0.45 0.02 0
0.46 0.02 0
0.47 0.02 0
0.48 0.02 0
0.49 0.02 0
0.5 0.02 0
0.51 0.02 0
0.52 0.02 0
0.53 0.02 0
0.54 0.02 0
0.55 0.02 0
0.56 0.02 0
0.57 0.02 0
0.58 0.02 0
0.59 0.02 0
0.6 0.02 0
0.61 0.02 0
0 0.03 0
0.01 0.03 0
0.02 0.03 0
0.03 0.03 0
0.04 0.03 0
0.05 0.03 0
0.06 0.03 0
0.07 0.03 0
0.08 0.03 0
0.09 0.03 0
0.1 0.03 0
0.11 0.03 0
0.12 0.03 0
0.13 0.03 0
0.14 0.03 0
0.15 0.03 0
0.16 0.03 0
0.17 0.03 0
0.18 0.03 0
0.19 0.03 0
0.2 0.03 0
0.21 0.03 0
0.22 0.03 0
0.23 0.03 0
0.24 0.03 0
0.25 0.03 0
0.26 0.03 0
0.27 0.03 0
0.28 0.03 0
0.29 0.03 0
0.3 0.03 0
0.31 0.03 0
0.32 0.03 0
0.33 0.03 0
0.34 0.03 0
0.35 0.03 0
0.36 0.03 0
0.37 0.03 0
0.38 0.03 0
0.39 0.03 0
0.4 0.03 0
0.41 0.03 0
0.42 0.03 0
0.43 0.03 0
0.44 0.03 0
0.45 0.03 0
0.46 0.03 0
0.47 0.03 0
0.48 0.03 0
0.49 0.03 0
0.5 0.03 0
0.51 0.03 0
0.52 0.03 0
0.53 0.03 0
0.54 0.03 0
0.55 0.03 0
0.56 0.03 0
0.57 0.03 0
0.58 0.03 0
0.59 0.03 0
0.6 0.03 0
0.61 0.03 0
0 0.04 0
0.01 0.04 0
0.02 0.04 0
0.03 0.04 0
0.04 0.04 0
0.05 0.04 0
0.06 0.04 0
0.07 0.04 0
0.08 0.04 0
0.09 0.04 0
0.1 0.04 0
0.11 0.04 0
0.12 0.04 0
0.13 0.04 0
0.14 0.04 0
0.15 0.04 0
0.16 0.04 0
0.17 0.04 0
0.18 0.04 0
0.19 0.04 0
0.2 0.04 0
0.21 0.04 0
0.22 0.04 0
0.23 0.04 0
0.24 0.04 0
0.25 0.04 0
0.26 0.04 0
0.27 0.04 0
0.28 0.04 0
0.29 0.04 0
0.3 0.04 0
0.31 0.04 0
0.32 0.04 0
0.33 0.04 0
0.34 0.04 0
0.35 0.04 0
0.36 0.04 0
0.37 0.04 0
0.38 0.04 0
0.39 0.04 0
0.4 0.04 0
0.41 0.04 0
0.42 0.04 0
0.43 0.04 0
0.44 0.04 0
0.45 0.04 0
0.46 0.04 0
0.47 0.04 0
0.48 0.04 0
0.49 0.04 0
0.5 0.04 0
0.51 0.04 0
0.52 0.04 0
0.53 0.04 0
0.54 0.04 0
0.55 0.04 0
0.56 0.04 0
0.57 0.04 0
0.58 0.04 0
0.59 0.04 0
0.6 0.04 0
0.61 0.04 0
0 0.05 0
0.01 0.05 0
0.02 0.05 0
0.03 0.05 0
0.04 0.05 0
0.05 0.05 0
0.06 0.05 0
0.07 0.05 0
0.08 0.05 0
0.09 0.05 0
0.1 0.05 0
0.11 0.05 0
0.12 0.05 0
0.13 0.05 0
0.14 0.05 0
0.15 0.05 0
0.16 0.05 0
0.17 0.05 0
0.18 0.05 0
0.19 0.05 0
0.2 0.05 0
0.21 0.05 0
0.22 0.05 0
0.23 0.05 0
0.24 0.05 0
0.25 0.05 0
0.26 0.05 0
0.27 0.05 0
0.28 0.05 0
0.29 0.05 0
0.3 0.05 0
0.31 0.05 0
0.32 0.05 0
0.33 0.05 0
0.34 0.05 0
0.35 0.05 0
0.36 0.05 0
0.37 0.05 0
0.38 0.05 0
0.39 0.05 0
0.4 0.05 0
0.41 0.05 0
0.42 0.05 0
0.43 0.05 0
0.44 0.05 0
0.45 0.05 0
0.46 0.05 0
0.47 0.05 0
0.48 0.05 0
0.49 0.05 0
0.5 0.05 0
0.51 0.05 0
0.52 0.05 0
0.53 0.05 0
0.54 0.05 0
0.55 0.05 0
0.56 0.05 0
0.57 0.05 0
0.58 0.05 0
0.59 0.05 0
0.6 0.05 0
0.61 0.05 0
0 0.06 0
0.01 0.06 0
0.02 0.06 0
0.03 0.06 0
0.04 0.06 0
0.05 0.06 0
0.06 0.06 0
0.07 0.06 0
0.08 0.06 0
0.09 0.06 0
0.1 0.06 0
0.11 0.06 0
0.12 0.06 0
0.13 0.06 0
0.14 0.06 0
0.15 0.06 0
0.16 0.06 0
0.17 0.06 0
0.18 0.06 0
0.19 0.06 0
0.2 0.06 0
0.21 0.06 0
0.22 0.06 0
0.23 0.06 0
0.24 0.06 0
0.25 0.06 0
0.26 0.06 0
0.27 0.06 0
0.28 0.06 0
0.29 0.06 0
0.3 0.06 0
0.31 0.06 0
0.32 0.06 0
0.33 0.06 0
0.34 0.06 0
0.35 0.06 0
0.36 0.06 0
0.37 0.06 0
0.38 0.06 0
0.39 0.06 0
0.4 0.06 0
0.41 0.06 0
0.42 0.06 0
0.43 0.06 0
0.44 0.06 0
0.45 0.06 0
0.46 0.06 0
0.47 0.06 0
0.48 0.06 0
0.49 0.06 0
0.5 0.06 0
0.51 0.06 0
0.52 0.06 0
0.53 0.06 0
0.54 0.06 0
0.55 0.06 0
0.56 0.06 0
0.57 0.06 0
0.58 0.06 0
0.59 0.06 0
0.6 0.06 0
0.61 0.06 0
0 0.07 0
0.01 0.07 0
0.02 0.07 0
0.03 0.07 0
0.04 0.07 0
0.05 0.07 0
0.06 0.07 0
0.07 0.07 0
0.08 0.07 0
0.09 0.07 0
0.1 0.07 0
0.11 0.07 0
0.12 0.07 0
0.13 0.07 0
0.14 0.07 0
0.15 0.07 0
0.16 0.07 0
0.17 0.07 0
0.18 0.07 0
0.19 0.07 0
0.2 0.07 0
0.21 0.07 0
0.22 0.07 0
0.23 0.07 0
0.24 0.07 0
0.25 0.07 0
0.26 0.07 0
0.27 0.07 0
0.28 0.07 0
0.29 0.07 0
0.3 0.07 0
0.31 0.07 0
0.32 0.07 0
0.33 0.07 0
0.34 0.07 0
0.35 0.07 0
0.36 0.07 0
0.37 0.07 0
0.38 0.07 0
0.39 0.07 0
0.4 0.07 0
0.41 0.07 0
0.42 0.07 0
0.43 0.07 0
0.44 0.07 0
0.45 0.07 0
0.46 0.07 0
0.47 0.07 0
0.48 0.07 0
0.49 0.07 0
0.5 0.07 0
0.51 0.07 0
0.52 0.07 0
0.53 0.07 0
0.54 0.07 0
0.55 0.07 0
0.56 0.07 0
0.57 0.07 0
0.58 0.07 0
0.59 0.07 0
0.6 0.07 0
0.61 0.07 0
0 0.08 0
0.01 0.08 0
0.02 0.08 0
0.03 0.08 0
0.04 0.08 0
0.05 0.08 0
0.06 0.08 0
0.07 0.08 0
0.08 0.08 0
0.09 0.08 0
0.1 0.08 0
0.11 0.08 0
0.12 0.08 0
0.13 0.08 0
0.14 0.08 0
0.15 0.08 0
0.16 0.08 0
0.17 0.08 0
0.18 0.08 0
0.19 0.08 0
0.2 0.08 0
0.21 0.08 0
0.22 0.08 0
0.23 0.08 0
0.24 0.08 0
0.25 0.08 0
0.26 0.08 0
0.27 0.08 0
0.28 0.08 0
0.29 0.08 0
0.3 0.08 0
0.31 0.08 0
0.32 0.08 0
0.33 0.08 0
0.34 0.08 0
0.35 0.08 0
0.36 0.08 0
0.37 0.08 0
0.38 0.08 0
0.39 0.08 0
0.4 0.08 0
0.41 0.08 0
0.42 0.08 0
0.43 0.08 0
0.44 0.08 0
0.45 0.08 0
0.46 0.08 0
0.47 0.08 0
0.48 0.08 0
0.49 0.08 0
0.5 0.08 0
0.51 0.08 0
0.52 0.08 0
0.53 0.08 0
0.54 0.08 0
0.55 0.08 0
0.56 0.08 0
0.57 0.08 0
0.58 0.08 0
0.59 0.08 0
0.6 0.08 0
0.61 0.08 0
0 0.09 0
0.01 0.09 0
0.02 0.09 0
0.03 0.09 0
0.04 0.09 0
0.05 0.09 0
0.06 0.09 0
0.07 0.09 0
0.08 0.09 0
0.09 0.09 0
0.1 0.09 0
0.11 0.09 0
0.12 0.09 0
0.13 0.09 0
0.14 0.09 0
0.15 0.09 0
0.16 0.09 0
0.17 0.09 0
0.18 0.09 0
0.19 0.09 0
0.2 0.09 0
0.21 0.09 0
0.22 0.09 0
0.23 0.09 0
0.24 0.09 0
0.25 0.09 0
0.26 0.09 0
0.27 0.09 0
0.28 0.09 0
0.29 0.09 0
0.3 0.09 0
0.31 0.09 0
0.32 0.09 0
0.33 0.09 0
0.34 0.09 0
0.35 0.09 0
0.36 0.09 0
0.37 0.09 0
0.38 0.09 0
0.39 0.09 0
0.4 0.09 0
0.41 0.09 0
0.42 0.09 0
0.43 0.09 0
0.44 0.09 0
0.45 0.09 0
0.46 0.09 0
0.47 0.09 0
0.48 0.09 0
0.49 0.09 0
0.5 0.09 0
0.51 0.09 0
0.52 0.09 0
0.53 0.09 0
0.54 0.09 0
0.55 0.09 0
0.56 0.09 0
0.57 0.09 0
0.58 0.09 0
0.59 0.09 0
0.6 0.09 0
0.61 0.09 0
0 0.1 0
0.01 0.1 0
0.02 0.1 0
0.03 0.1 0
0.04 0.1 0
0.05 0.1 0
0.06 0.1 0
0.07 0.1 0
0.08 0.1 0
0.09 0.1 0
0.1 0.1 0
0.11 0.1 0
0.12 0.1 0
0.13 0.1 0
0.14 0.1 0
0.15 0.1 0
0.16 0.1 0
0.17 0.1 0
0.18 0.1 0
0.19 0.1 0
0.2 0.1 0
0.21 0.1 0
0.22 0.1 0
0.23 0.1 0
0.24 0.1 0
0.25 0.1 0
0.26 0.1 0
0.27 0.1 0
0.28 0.1 0
0.29 0.1 0
0.3 0.1 0
0.31 0.1 0
0.32 0.1 0
0.33 0.1 0
0.34 0.1 0
0.35 0.1 0
0.36 0.1 0
0.37 0.1 0
0.38 0.1 0
0.39 0.1 0
0.4 0.1 0
0.41 0.1 0
0.42 0.1 0
0.43 0.1 0
0.44 0.1 0
0.45 0.1 0
0.46 0.1 0
0.47 0.1 0
0.48 0.1 0
0.49 0.1 0
0.5 0.1 0
0.51 0.1 0
0.52 0.1 0
0.53 0.1 0
0.54 0.1 0
0.55 0.1 0
0.56 0.1 0
0.57 0.1 0
0.58 0.1 0
0.59 0.1 0
0.6 0.1 0
0.61 0.1 0
0 0.11 0
0.01 0.11 0
0.02 0.11 0
0.03 0.11 0
0.04 0.11 0
0.05 0.11 0
0.06 0.11 0
0.07 0.11 0
0.08 0.11 0
0.09 0.11 0
0.1 0.11 0
0.11 0.11 0
0.12 0.11 0
0.13 0.11 0
0.14 0.11 0
0.15 0.11 0
0.16 0.11 0
0.17 0.11 0
0.18 0.11 0
0.19 0.11 0
0.2 0.11 0
0.21 0.11 0
0.22 0.11 0
0.23 0.11 0
0.24 0.11 0
0.25 0.11 0
0.26 0.11 0
0.27 0.11 0
0.28 0.11 0
0.29 0.11 0
0.3 0.11 0
0.31 0.11 0
0.32 0.11 0
0.33 0.11 0
0.34 0.11 0
0.35 0.11 0
0.36 0.11 0
0.37 0.11 0
0.38 0.11 0
0.39 0.11 0
0.4 0.11 0
0.41 0.11 0
0.42 0.11 0
0.43 0.11 0
0.44 0.11 0
0.45 0.11 0
0.46 0.11 0
0.47 0.11 0
0.48 0.11 0
0.49 0.11 0
0.5 0.11 0
0.51 0.11 0
0.52 0.11 0
0.53 0.11 0
0.54 0.11 0
0.55 0.11 0
0.56 0.11 0
0.57 0.11 0
0.58 0.11 0
0.59 0.11 0
0.6 0.11 0
0.61 0.11 0
0 0.12 0
0.01 0.12 0
0.02 0.12 0
0.03 0.12 0
0.04 0.12 0
0.05 0.12 0
0.06 0.12 0
0.07 0.12 0
0.08 0.12 0
0.09 0.12 0
0.1 0.12 0
0.11 0.12 0
0.12 0.12 0
0.13 0.12 0
0.14 0.12 0
0.15 0.12 0
0.16 0.12 0
0.17 0.12 0
0.18 0.12 0
0.19 0.12 0
0.2 0.12 0
0.21 0.12 0
0.22 0.12 0
0.23 0.12 0
0.24 0.12 0
0.25 0.12 0
0.26 0.12 0
0.27 0.12 0
0.28 0.12 0
0.29 0.12 0
0.3 0.12 0
0.31 0.12 0
0.32 0.12 0
0.33 0.12 0
0.34 0.12 0
0.35 0.12 0
0.36 0.12 0
0.37 0.12 0
0.38 0.12 0
0.39 0.12 0
0.4 0.12 0
0.41 0.12 0
0.42 0.12 0
0.43 0.12 0
0.44 0.12 0
0.45 0.12 0
0.46 0.12 0
0.47 0.12 0
0.48 0.12 0
0.49 0.12 0
0.5 0.12 0
0.51 0.12 0
0.52 0.12 0
0.53 0.12 0
0.54 0.12 0
0.55 0.12 0
0.56 0.12 0
0.57 0.12 0
0.58 0.12 0
0.59 0.12 0
0.6 0.12 0
0.61 0.12 0
0 0.13 0
0.01 0.13 0
0.02 0.13 0
0.03 0.13 0
0.04 0.13 0
0.05 0.13 0
0.06 0.13 0
0.07 0.13 0
0.08 0.13 0
0.09 0.13 0
0.1 0.13 0
0.11 0.13 0
0.12 0.13 0
0.13 0.13 0
0.14 0.13 0
0.15 0.13 0
0.16 0.13 0
0.17 0.13 0
0.18 0.13 0
0.19 0.13 0
0.2 0.13 0
0.21 0.13 0
0.22 0.13 0
0.23 0.13 0
0.24 0.13 0
0.25 0.13 0
0.26 0.13 0
0.27 0.13 0
0.28 0.13 0
0.29 0.13 0
0.3 0.13 0
0.31 0.13 0
0.32 0.13 0
0.33 0.13 0
0.34 0.13 0
0.35 0.13 0
0.36 0.13 0
0.37 0.13 0
0.38 0.13 0
0.39 0.13 0
0.4 0.13 0
0.41 0.13 0
0.42 0.13 0
0.43 0.13 0
0.44 0.13 0
0.45 0.13 0
0.46 0.13 0
0.47 0.13 0
0.48 0.13 0
[...]
POINT_DATA 93248

SCALARS u double
LOOKUP_TABLE default
0
0
0
0
0
0
0
0
0
0
0
0
0
0
0
0
0
0
0
0
0
0
0
0
0.287138
0
0
0
0
0
0
0
0.0207957
0.21882
0
0
0
0
0
0
0
0
0
0
0
0
0
0.0619513
0
0
0.063629
0
0
0
0
0
0
0
0
0
0
0
0
0.410113
0.326676
0.246553
0.180616
0.131771
0.0956926
0.0701686
0.0525107
0.0399705
0.030879
0.0250788
0.0247054
0.0242868
0.0241793
0.0243328
0.0247886
0.0245205
0.0236047
0.0212682
0.0271203
0.0278632
0.0237353
0.0228789
0.0222862
0.0216172
0.0208936
0.0201261
0.0192882
0.0183168
0.0171334
0.0159554
0.0164775
0.0153096
0.0132724
0.011691
0.0123768
0.00973864
0.00639383
0.149891
0.00104972
0.00474821
0.00617271
0.00881056
0.0158084
-0.0172052
-0.00366874
-0.00301725
-0.00294541
-0.00442861
-0.00593928
0.00699828
-0.0063519
0.000880813
-0.0308777
-0.0254495
-0.0149033
-0.0221985
-0.0269674
-0.0351916
-0.0351916
0
0
0.484201
0.461733
0.430138
0.390062
0.351342
0.307623
0.266059
0.22955
0.199997
0.177184
0.160216
0.152882
0.145754
0.141036
0.137764
0.135706
0.133109
0.132379
0.318604
0.133342
0.130408
0.115783
0.114547
0.111653
0.108393
0.105008
0.101537
0.0979685
0.0942615
0.0903087
0.0859327
0.0844146
0.0801336
0.0757555
0.0723756
0.0662513
0.0608558
-0.0108278
0.0539727
0.0502362
0.046297
0.0446015
0.0437673
0.0410994
0.0248695
0.0175608
0.0163096
0.0133703
0.0103428
0.00814288
0.000520143
-0.00153918
-0.006176
-0.0247896
-0.0298605
-0.0370806
-0.0399167
-0.0486306
-0.0585994
-0.0585994
0
0
0.478288
0.47195
0.4652
0.447154
0.441978
0.412441
0.384093
0.356881
0.331592
0.338201
0.291592
0.27137
0.258633
0.248992
0.241966
0.236448
0.229546
0.22479
0.219114
0.211364
0.207876
0.200117
0.194828
0.189624
0.184218
0.17863
0.172908
0.167093
0.16126
0.155624
0.150565
0.142715
0.136683
0.202808
0.126346
0.118462
0.112463
0.108684
0.102664
0.0955049
0.0883687
0.122479
0.0762467
0.0689197
0.116427
0.0469705
0.0390901
0.0133703
0.0271463
0.0217003
0.0140795
0.00699828
-0.00212779
-0.0149813
-0.024484
-0.0336158
-0.0457725
-0.0547315
-0.0641371
-0.0641371
0
0
0.47118
0.459972
0.462654
0.454492
0.449355
0.437846
0.423892
0.408766
0.393222
0.37745
0.362463
0.346398
0.332319
0.32013
0.309995
0.299899
0.293497
0.285828
0.316588
0.268806
0.260952
0.253195
0.246104
0.239235
0.232339
0.225325
0.218194
0.210975
0.203718
0.196469
0.189078
0.180562
0.172844
0.164894
0.158121
0.150985
0.144285
0.138675
0.131076
0.122617
0.113536
0.104088
0.0954953
0.0861083
0.0752008
0.064289
0.0556106
0.0479676
0.0399914
0.0319057
0.023134
0.0138959
0.00360912
-0.00765219
-0.0185341
-0.0294258
-0.0412071
-0.05173
-0.0621569
-0.0621569
0
0
0.468641
0.455036
0.448382
0.442253
0.437466
0.431259
0.424035
0.416004
0.407034
0.397224
0.386827
0.37559
0.364126
0.352396
0.344232
0.333556
0.32447
0.31557
0.305829
0.296727
0.288182
0.279981
0.272088
0.264353
0.25665
0.248873
0.241015
0.233082
0.225063
0.216891
0.208349
0.199252
0.191774
0.18335
0.175276
0.167451
0.15987
0.152414
0.144086
0.135062
0.125445
0.115404
0.105507
0.0954865
0.0857113
0.0830683
0.0648763
0.0560622
0.0469723
0.0376876
0.028118
0.0181924
0.00779824
-0.00289661
-0.0136362
-0.0242377
-0.0345516
-0.0441447
-0.054916
-0.054916
0
0
0.467512
0.451101
0.439446
0.430482
0.423481
0.416953
0.411123
0.40548
0.399251
0.392552
0.385513
0.378077
0.369947
0.36125
0.353108
0.344694
0.335115
0.327036
0.317016
0.307859
0.299232
0.290918
0.282781
0.274739
0.266736
0.258634
0.250486
0.242286
0.233993
0.22551
0.216618
0.206822
0.200513
0.191389
0.182584
0.174157
0.165896
0.157527
0.148735
0.139482
0.129799
0.119746
0.109447
0.098708
0.0874881
0.080163
0.0701568
0.0602103
0.0503854
0.0405743
0.0307066
0.0207122
0.0105163
0.000288857
-0.0097996
-0.0194532
-0.0279314
-0.0329497
-0.0318998
-0.0318998
0
0
0.466901
0.448677
0.434106
0.422385
0.41309
0.451549
0.399151
0.392001
0.385751
0.380093
0.374884
0.370236
0.364581
0.35805
0.350885
0.344169
0.335557
0.327102
0.318604
0.310281
0.30222
0.294199
0.286165
0.278114
0.270073
0.261885
0.253721
0.245534
0.237277
0.228939
0.220731
0.213282
0.201427
0.192809
0.184467
0.176093
0.167601
0.158894
0.149891
0.140575
0.130969
0.123518
0.110892
0.100465
0.0902142
0.0814128
0.0718273
0.0619187
0.0519557
0.0420165
0.03214
0.0223243
0.0123768
0.00258179
-0.00693404
-0.016276
-0.0261478
-0.0375494
-0.0191936
-0.0191936
0
0
0.466526
0.44716
0.430796
0.416984
0.405278
0.394941
0.386694
0.379353
0.373003
0.367566
0.363049
0.361388
0.356846
0.351317
0.34363
0.135706
0.32887
0.323056
0.316588
0.309458
0.302224
0.294585
0.286705
0.278666
0.25665
0.262419
0.254519
0.246518
0.238424
0.230182
0.221818
0.213324
0.203289
0.194074
0.185313
0.176661
0.16795
0.159072
0.149976
0.140649
0.131095
0.121314
0.111403
0.101406
0.0915516
0.0820755
0.072455
0.0626418
0.0527256
0.0427987
0.0329833
0.0234788
0.0137051
0.00428911
-0.00469288
-0.0132634
-0.021652
-0.0323973
-0.0323542
-0.0323542
0
0
0.46628
0.446167
0.42864
0.413409
0.400145
0.388505
0.378713
0.370432
0.36351
0.357572
0.351105
0.357218
0.350768
0.345829
0.340777
0.337228
0.331271
0.323959
0.316604
0.308997
0.301973
0.294244
0.286368
0.278438
0.270825
0.262772
0.254773
0.246855
0.23896
0.230846
0.222092
0.213127
0.203846
0.194734
0.185809
0.176947
0.168059
0.159064
0.149914
0.140596
0.131114
0.121481
0.111752
0.10198
0.0922518
0.082594
0.0729007
0.0631132
0.0532288
0.0432733
0.0332832
0.0242796
0.0145688
0.00551518
-0.0031864
-0.0117003
-0.0203474
-0.0297371
-0.0376371
-0.0376371
0
0
0.466113
0.445498
0.427186
0.411021
0.396754
0.38424
0.373505
0.364502
0.357184
0.351405
0.347054
0.346957
0.344205
0.340919
0.337062
0.333446
0.328362
0.322155
0.315451
0.308662
0.300723
0.293174
0.285483
0.277537
0.270529
0.262435
0.25456
0.246872
0.239402
0.248676
0.222295
0.213009
0.204001
0.195062
0.186155
0.179836
0.168236
0.159151
0.149961
0.140651
0.131228
0.121704
0.112089
0.102425
0.0927489
0.0830683
0.0733624
0.0635991
0.0537503
0.0438052
0.0336262
-0.0047957
0.014999
0.00654471
-0.00203966
-0.0106549
-0.0194593
-0.0287499
-0.0385886
-0.0385886
0
0
0.466
0.445044
0.426182
0.409411
0.394451
0.381305
0.36998
0.360523
0.352968
0.347285
0.343387
0.341263
0.339121
0.336808
0.333041
0.329222
0.324674
0.319276
0.313255
0.304368
0.299542
0.292191
0.284635
0.276923
0.269418
0.261642
0.25397
0.246512
0.239188
0.231914
0.22126
0.212823
0.204233
0.19541
0.186464
0.177465
0.172111
0.159358
0.150135
0.14083
0.131447
0.122019
0.112464
0.102847
0.0932039
0.083549
0.0738847
0.0641938
0.0544666
0.0448882
0.0356459
0.0269757
0.0173385
0.00809227
-0.000853001
-0.0096849
-0.0186331
-0.0280118
-0.0382037
-0.0382037
0
0
0.465927
0.444757
0.425616
0.408243
0.392816
0.379233
0.367527
0.357771
0.35003
0.344282
0.340281
0.337549
0.335366
0.333635
0.329154
0.325703
0.321546
0.316585
0.311094
0.305055
0.298342
0.291197
0.283737
0.276066
0.268314
0.260523
0.252964
0.245737
0.23841
0.229192
0.22338
0.214501
0.20527
0.196053
0.186878
0.177732
0.168604
0.159535
0.150378
0.141085
0.131698
0.122479
0.112915
0.103296
0.093669
0.0840525
0.074463
0.0648813
0.0552235
0.0458863
0.0368787
0.0280295
0.0186944
0.0093907
0.000286843
-0.00869027
-0.0177582
-0.0272145
-0.0374918
-0.0374918
0
0
0.465876
0.44455
0.425141
0.407426
0.391676
0.377786
0.365803
0.355823
0.347906
0.342028
0.337815
0.334729
0.331999
0.328538
0.327388
0.323881
0.319477
0.314407
0.309301
0.303557
0.297107
0.290109
0.282701
0.274969
0.266995
0.258934
0.251249
0.244409
0.239522
0.23149
0.223682
0.214942
0.205779
0.196488
0.187197
0.177969
0.168813
0.159818
0.15073
0.141398
0.131662
0.123411
0.113485
0.103787
0.0941487
0.0845573
0.0750462
0.0656001
0.0558437
0.0466554
0.0376831
0.028694
0.019515
0.0103473
0.00129022
-0.00768885
-0.0168472
-0.0263349
-0.036668
-0.036668
0
0
0.465843
0.444419
0.424934
0.406683
0.390845
0.376762
0.364582
0.354435
0.346399
0.340314
0.335924
0.332652
0.329845
0.326985
0.324705
0.321476
0.31726
0.312118
0.307852
0.302335
0.295936
0.288972
0.281554
0.273701
0.265372
0.256539
0.247567
0.239228
0.244799
0.235693
0.225727
0.216002
0.206405
0.196858
0.187391
0.178128
0.168833
0.160122
0.151255
0.142035
0.132587
0.123518
0.113933
0.104275
0.0946194
0.08501
0.0755126
0.0662468
0.0562838
0.047363
0.0384333
0.029406
0.0201374
0.011102
0.00218076
-0.00658832
-0.016001
-0.0253417
-0.0356932
-0.0356932
0
0
0.465818
0.444274
0.424551
0.406479
0.390345
0.376068
0.363724
0.353435
0.345263
0.339076
0.334548
0.331162
0.328351
0.325678
0.322961
0.319679
0.315548
0.310032
0.307063
0.301173
0.294658
0.287729
0.28036
0.272437
0.263706
0.25342
0.239062
0.21329
0.271876
0.244144
0.229077
0.217556
0.207129
0.197106
0.187309
0.177788
0.168675
0.160358
0.152049
0.14302
0.133592
0.124102
0.114481
0.1048
0.0950835
0.0853737
0.0756342
0.0658575
0.0574225
0.0483606
0.0393282
0.0304845
0.0204487
0.0117459
0.00290359
-0.00578251
-0.0147621
-0.0240211
-0.0343445
-0.0343445
0
0
0.465831
0.444167
0.424335
0.406279
0.390039
0.37562
0.363135
0.35273
0.344463
0.338201
0.333561
0.330075
0.327228
0.324572
0.321769
0.318577
0.31506
0.311915
0.30439
0.298804
0.292897
0.286408
0.279308
0.271557
0.26299
0.253264
0.242117
0.232551
0.246439
0.238994
0.228284
0.21751
0.20704
0.196801
0.186692
0.17679
0.167505
0.15983
0.153565
0.144786
0.135067
0.125184
0.115311
0.105473
0.0956161
0.0858282
0.076069
0.0664374
0.0574578
0.0489121
0.0399604
0.0308609
0.0214805
0.0126379
0.00337052
-0.00498413
-0.0134078
-0.022155
-0.0321441
-0.0321441
0
0
0.465919
0.444067
0.424237
0.406194
0.38993
0.375319
0.3627
0.352225
0.343925
0.337643
0.332867
0.329255
0.326347
0.323689
0.320886
0.317707
0.314117
0.310083
0.304231
0.298358
0.292276
0.285791
0.278816
0.271312
0.263263
0.254751
0.246278
0.240031
0.238977
0.233442
0.225182
0.215759
0.205889
0.195802
0.185433
0.174752
0.163945
0.155131
0.158769
0.148791
0.137623
0.126833
0.116427
0.106292
0.0962229
0.0863692
0.0765828
0.0668524
0.0574162
0.0494886
0.0404301
0.0312539
0.0223931
0.0145564
0.00260531
-0.00445256
-0.0119914
-0.0195018
-0.0280322
-0.0280322
0
0
0.465632
0.444251
0.42436
0.406328
0.390137
0.367527
0.362218
0.351815
0.343591
0.33741
0.332368
0.328584
0.325623
0.323014
0.320245
0.317023
0.31326
0.308958
0.303801
0.298146
0.292091
0.285637
0.278776
0.271526
0.263983
0.256413
0.265029
0.242387
0.237487
0.230892
0.222845
0.213934
0.204476
0.194571
0.183954
0.172051
0.156489
0.128119
0.185419
0.157119
0.141069
0.128652
0.117518
0.106965
0.0969073
0.0869677
0.0771791
0.0674065
0.0574005
0.0501289
0.0404994
0.0312878
0.0224913
0.0138616
0.00392524
-0.0194593
-0.0108791
-0.0164957
-0.0192524
0
0
0
0.465719
0.443406
0.424192
0.406332
0.390307
0.375078
0.362178
0.351658
0.343489
0.337601
0.331893
0.327972
0.325033
0.322598
0.319907
0.316607
0.312668
0.308429
0.30353
0.298041
0.292075
0.285702
0.278959
0.271905
0.264652
0.257382
0.250088
0.242455
0.237444
0.229655
0.221293
0.212516
0.203319
0.189652
0.183309
0.172061
0.159546
0.14848
0.161423
0.140596
0.140515
0.128972
0.117946
0.107402
0.0972802
0.0874206
0.077857
0.0687329
0.0601298
0.0481405
0.0394015
0.0307908
0.0221823
0.0135854
0.00496668
-0.0029041
-0.0107787
-0.0185497
-0.0275487
-0.0275487
0
0
0.465752
0.444085
0.423978
0.406359
0.390597
0.374603
0.361936
0.351508
0.343404
0.338028
0.331187
0.327656
0.324757
0.322693
0.320059
0.31659
0.312344
0.308414
0.303588
0.298115
0.292191
0.285889
0.279236
0.272284
0.265134
0.25809
0.252064
0.245801
0.235781
0.227923
0.219894
0.211511
0.202808
0.19376
0.184077
0.174024
0.164272
0.156778
0.154232
0.147534
0.138131
0.127879
0.117486
0.107287
0.0973336
0.0875847
0.0780776
0.0688016
0.0594503
0.0489595
0.0395333
0.030617
0.021928
0.0133793
0.00492016
-0.00338836
-0.0119707
-0.0211609
-0.0316497
-0.0316497
0
0
0.465773
0.44416
0.424445
0.405601
0.388281
0.375072
0.36241
0.35165
0.342833
0.33511
0.332742
0.329036
0.325286
0.336374
0.321011
0.317158
0.312412
0.308992
0.303851
0.298279
0.29239
0.286173
0.279578
0.272628
0.265255
0.256865
0.254303
0.245759
0.236629
0.228046
0.219617
0.211191
0.202799
0.194257
0.18523
0.17606
0.167296
0.159571
0.15263
0.144886
0.136071
0.126575
0.116587
0.106786
0.0970938
0.0874525
0.0779533
0.0685445
0.0590459
0.0492585
0.0396915
0.0305113
0.0216613
0.0130459
0.00440408
-0.00424627
-0.0132636
-0.0230164
-0.0337226
-0.0337226
0
0
0.465769
0.444127
0.42422
0.405689
0.388858
0.374663
0.362121
0.351476
0.342893
0.336428
0.332641
0.329436
0.362284
0.325842
0.322188
0.318257
0.314621
0.308537
0.30353
0.298287
0.292654
0.286611
0.280058
0.273148
0.265953
0.258625
0.252975
0.245298
0.236859
0.22824
0.219578
0.211004
0.202886
0.19527
0.186632
0.177805
0.169084
0.160702
0.152401
0.143875
0.135007
0.12599
0.115384
0.106088
0.0966258
0.0870882
0.0776538
0.0682651
0.0588426
0.0492418
0.0395175
0.0302037
0.0212173
0.0124987
0.00373133
-0.00502027
-0.0142351
-0.0243198
-0.0350286
-0.0350286
0
0
0.465765
0.444106
0.424162
0.40585
0.389313
0.374773
0.361993
0.351343
0.343017
0.337899
0.333553
0.330671
0.329444
0.323739
0.320875
0.317797
0.314119
0.309264
0.304232
0.298947
0.293355
0.287414
0.280728
0.273818
0.266789
0.259717
0.252747
0.245074
0.23684
0.228227
0.219296
0.210174
0.201664
0.197649
0.188543
0.179695
0.17047
0.16147
0.152543
0.143562
0.134438
0.125083
0.115148
0.105511
0.084412
0.0865352
0.0772725
0.0679774
0.0586936
0.0491005
0.0323846
0.0296565
0.0205552
-0.00664709
0.00298644
-0.00555772
-0.0147987
-0.0253896
-0.0360601
-0.0360601
0
0
0.465767
0.444118
0.424214
0.406051
0.389714
0.375208
0.361853
0.351033
0.341271
0.340888
0.334891
0.331371
0.328914
0.325208
0.321967
0.318585
0.314352
0.309947
0.305088
0.299848
0.294316
0.288562
0.281443
0.274537
0.267629
0.260548
0.253195
0.242286
0.236997
0.228282
0.218851
0.208036
0.192407
0.207693
0.190716
0.182613
0.171855
0.162151
0.152791
0.143518
0.134177
0.124576
0.114878
0.105329
0.095943
0.0864125
0.0769755
0.0676359
0.0584907
0.0491751
0.0383109
0.0294538
0.0206773
0.0120509
0.00304298
-0.00573433
-0.0148781
-0.0264053
-0.0368416
-0.0368416
0
0
0.465772
0.444145
0.424298
0.40627
0.390224
0.376637
0.36098
0.351401
0.343214
0.339152
0.334861
0.33163
0.328957
0.326131
0.323285
0.320599
0.314489
0.310718
0.306032
0.30081
0.295275
0.289814
0.281991
0.275467
0.268686
0.261522
0.254023
0.245894
0.237613
0.22889
0.219291
0.209424
0.199664
0.199451
0.190568
0.181872
0.172082
0.162402
0.152905
0.14353
0.134114
0.124234
0.11454
0.10503
0.0955976
0.0861055
0.0765983
0.0670605
0.0464954
0.0491432
0.0374614
0.0295111
0.0205824
0.0116134
0.00254974
-0.0062814
-0.0147687
-0.0271514
-0.0368501
-0.0368501
0
0
0.465775
0.444161
0.42435
0.406383
0.390355
0.376325
0.36317
0.352595
0.344504
0.339023
0.334997
0.332002
0.329501
0.327015
0.324327
0.321229
0.316544
0.312102
0.307216
0.30182
0.29584
0.28882
0.284142
0.277389
0.270217
0.262643
0.254698
0.246887
0.238664
0.230512
0.219787
0.211441
0.203402
0.197135
0.189254
0.180662
0.171494
0.162126
0.15275
0.143455
0.134166
0.123826
0.114187
0.104764
0.0953287
0.0858335
0.0762892
0.0666846
0.0569375
0.0465812
0.0407232
0.030008
0.0204317
0.0110771
0.00163939
-0.00812625
-0.0182333
-0.0239043
-0.0350843
-0.0350843
0
0
0.465769
0.444147
0.424343
0.406413
0.390425
0.376458
0.364565
0.353472
0.345311
0.339649
0.335712
0.332876
0.330523
0.328174
0.325544
0.322423
0.318367
0.31375
0.308642
0.303088
0.297178
0.290562
0.28036
0.278184
0.271215
0.263554
0.2556
0.247597
0.239397
0.230992
0.221711
0.213157
0.20498
0.197024
0.188713
0.180006
0.170971
0.161735
0.152414
0.143147
0.134166
0.123287
0.114058
0.104707
0.09522
0.0856672
0.0760833
0.0664711
0.0568383
0.0473787
0.0393253
0.0297696
0.0201932
0.0107263
0.00128982
-0.0081592
-0.0174124
-0.0253055
-0.0355351
-0.0355351
0
0
0.465746
0.444072
0.424243
0.406355
0.390439
0.376649
0.365656
0.353652
0.346156
0.340803
0.33704
0.334292
0.332012
0.329681
0.327053
0.324119
0.320094
0.315298
0.310025
0.304368
0.298567
0.292334
0.285984
0.279149
0.272011
0.264171
0.256282
0.248302
0.240123
0.231706
0.223023
0.214437
0.205944
0.19741
0.18871
0.179799
0.170688
0.161409
0.151966
0.14226
0.132116
0.124449
0.114743
0.104948
0.095229
0.085571
0.0759534
0.0663723
0.0568608
0.0475383
0.0385209
0.029223
0.019831
0.0104847
0.00125527
-0.00771605
-0.0174701
-0.0262709
-0.0363685
-0.0363685
0
0
0.465688
0.443876
0.424014
0.406208
0.390307
0.376138
0.36296
0.355822
0.348474
0.343214
0.338939
0.336151
0.333879
0.331545
0.328569
0.32593
0.32152
0.316507
0.311205
0.30554
0.300045
0.293935
0.287311
0.280029
0.234199
0.264383
0.257008
0.249202
0.241063
0.232668
0.224096
0.215446
0.206733
0.197907
0.188943
0.179836
0.170597
0.161235
0.15175
0.142142
0.132559
0.123769
0.11439
0.104753
0.0950739
0.0854195
0.0758111
0.0662561
0.0567669
0.047377
0.0380699
0.0287614
0.0194638
0.0102346
0.0010997
-0.00798519
-0.0173875
-0.0267289
-0.0369272
-0.0369272
0
0
0.465582
0.443406
0.428788
0.406128
0.390386
0.376541
0.36465
0.356195
0.349418
0.344299
0.340668
0.338072
0.335992
0.334144
0.329046
0.326728
0.321809
0.31557
0.312357
0.306878
0.301909
0.295638
0.288981
0.282038
0.274984
0.266966
0.258856
0.25066
0.242313
0.233804
0.225154
0.216388
0.207498
0.198456
0.189278
0.179993
0.170621
0.161175
0.151678
0.142171
0.13273
0.123398
0.113926
0.104362
0.0947708
0.0851759
0.0756105
0.0660828
0.0565775
0.0471208
0.037722
0.028381
0.0191132
0.00994879
0.00083966
-0.00830067
-0.0175563
-0.0270309
-0.0363685
-0.03725
0
0
0.465613
0.442094
0.42272
0.405654
0.390492
0.377258
0.366153
0.357481
0.350831
0.345988
0.342624
0.340223
0.338156
0.335667
0.330592
0.133109
0.320382
0.318211
0.314567
0.31014
0.303593
0.297344
0.290761
0.283948
0.276268
0.26837
0.2603
0.252038
0.243592
0.234979
0.226223
0.217337
0.208297
0.199042
0.189652
0.180195
0.170692
0.16115
0.151603
0.1421
0.132646
0.123049
0.113422
0.103869
0.0943715
0.08485
0.0753535
0.0658769
0.056348
0.0468417
0.0374037
0.0280373
0.0187711
0.0096572
0.000548958
-0.00861763
-0.0179023
-0.0329497
-0.0376921
-0.0376921
0
0
0.467454
0.438755
0.421989
0.405749
0.391118
0.378372
0.36777
0.359374
0.352922
0.348303
0.345168
0.342958
0.341044
0.338875
0.336147
0.335065
0.330063
0.324715
0.319248
0.313471
0.306869
0.300052
0.293053
0.286063
0.277612
0.269823
0.261769
0.253442
0.244891
0.236167
0.227304
0.218318
0.20916
0.19964
0.190017
0.180398
0.170769
0.161098
0.151413
0.141824
0.132339
0.122455
0.112681
0.103195
0.0938648
0.0844327
0.0750533
0.0656967
0.0561379
0.0465924
0.0371384
0.0277447
0.0184475
0.00939487
-0.00448324
-0.0089059
-0.0180601
-0.0275359
-0.0412376
-0.0379345
0
0
0.465873
0.4425
0.423496
0.406921
0.392428
0.379957
0.369696
0.361941
0.355732
0.351352
0.348449
0.346436
0.344698
0.342826
0.340517
0.338085
0.333938
0.328776
0.323006
0.316745
0.309973
0.302784
0.295178
0.286953
0.280102
0.271976
0.263553
0.254965
0.246233
0.237359
0.228385
0.219334
0.210125
0.200186
0.190331
0.1806
0.17087
0.16104
0.150998
0.141168
0.131659
0.121296
0.111461
0.102208
0.0932147
0.0838855
0.0747222
0.0656446
0.0560483
0.0464954
0.0370551
0.0276157
0.0182209
0.00939086
0.000194498
-0.0090814
-0.0182978
-0.0277455
-0.0378987
-0.0378987
0
0
0.465767
0.444056
0.425063
0.40849
0.38993
0.381857
0.371379
0.365713
0.359376
0.355214
0.352546
0.350695
0.348975
0.324572
0.344485
0.341541
0.337394
0.332255
0.326374
0.31992
0.31299
0.305519
0.297641
0.289516
0.281717
0.273524
0.265029
0.256298
0.24751
0.238498
0.229409
0.220322
0.211214
0.200546
0.190599
0.180887
0.171104
0.161246
0.15013
0.13981
0.129877
0.11907
0.109586
0.100776
0.092335
0.0831669
0.0743756
0.0658579
0.0563152
0.0468653
0.0374455
0.0278965
0.0181695
0.00936951
-0.00016565
-0.00947463
-0.0186858
-0.0281188
-0.0382381
-0.0382381
0
0
0.465921
0.444885
0.426331
0.410218
0.39647
0.384863
0.375397
0.368939
0.363637
0.359915
0.357535
0.355853
0.354325
0.352622
0.349866
0.346182
0.341542
0.336052
0.32988
0.323185
0.316086
0.308238
0.300073
0.29181
0.28354
0.2751
0.266467
0.257641
0.248676
0.23953
0.230274
0.221036
0.212186
0.200601
0.191138
0.181468
0.171481
0.161132
0.14993
0.137857
0.00474821
0.115639
0.10741
0.0986144
0.0906612
0.0825195
0.0740611
0.0661611
0.0576646
0.0484642
0.038778
0.0289663
0.0192699
0.00846319
-0.000886913
-0.0100685
-0.0192227
-0.0286081
-0.0386789
-0.0386789
0
0
0.466072
0.44549
0.427501
0.412065
0.399095