# vtk DataFile Version 2.0
FlowField
ASCII
DATASET STRUCTURED_GRID
DIMENSIONS 62 47 32 
POINTS 93248 double
0 0 0
0.01 0 0
0.02 0 0
0.03 0 0
0.04 0 0
0.05 0 0
0.06 0 0
0.07 0 0
0.08 0 0
0.09 0 0
0.1 0 0
0.11 0 0
0.12 0 0
0.13 0 0
0.14 0 0
0.15 0 0
0.16 0 0
0.17 0 0
0.18 0 0
0.19 0 0
0.2 0 0
0.21 0 0
0.22 0 0
0.23 0 0
0.24 0 0
0.25 0 0
0.26 0 0
0.27 0 0
0.28 0 0
0.29 0 0
0.3 0 0
0.31 0 0
0.32 0 0
0.33 0 0
0.34 0 0
0.35 0 0
0.36 0 0
0.37 0 0
0.38 0 0
0.39 0 0
0.4 0 0
0.41 0 0
0.42 0 0
0.43 0 0
0.44 0 0
0.45 0 0
0.46 0 0
0.47 0 0
0.48 0 0
0.49 0 0
0.5 0 0
0.51 0 0
0.52 0 0
0.53 0 0
0.54 0 0
0.55 0 0
0.56 0 0
0.57 0 0
0.58 0 0
0.59 0 0
0.6 0 0
0.61 0 0
0 0.01 0
0.01 0.01 0
0.02 0.01 0
0.03 0.01 0
0.04 0.01 0
0.05 0.01 0
0.06 0.01 0
0.07 0.01 0
0.08 0.01 0
0.09 0.01 0
0.1 0.01 0
0.11 0.01 0
0.12 0.01 0
0.13 0.01 0
0.14 0.01 0
0.15 0.01 0
0.16 0.01 0
0.17 0.01 0
0.18 0.01 0
0.19 0.01 0
0.2 0.01 0
0.21 0.01 0
0.22 0.01 0
0.23 0.01 0
0.24 0.01 0
0.25 0.01 0
0.26 0.01 0
0.27 0.01 0
0.28 0.01 0
0.29 0.01 0
0.3 0.01 0
0.31 0.01 0
0.32 0.01 0
0.33 0.01 0
0.34 0.01 0
0.35 0.01 0
0.36 0.01 0
0.37 0.01 0
0.38 0.01 0
0.39 0.01 0
0.4 0.01 0
0.41 0.01 0
0.42 0.01 0
0.43 0.01 0
0.44 0.01 0
0.45 0.01 0
0.46 0.01 0
0.47 0.01 0
0.48 0.01 0
0.49 0.01 0
0.5 0.01 0
0.51 0.01 0
0.52 0.01 0
0.53 0.01 0
0.54 0.01 0
0.55 0.01 0
0.56 0.01 0
0.57 0.01 0
0.58 0.01 0
0.59 0.01 0
0.6 0.01 0
0.61 0.01 0
0 0.02 0
0.01 0.02 0
0.02 0.02 0
0.03 0.02 0
0.04 0.02 0
0.05 0.02 0
0.06 0.02 0
0.07 0.02 0
0.08 0.02 0
0.09 0.02 0
0.1 0.02 0
0.11 0.02 0
0.12 0.02 0
0.13 0.02 0
0.14 0.02 0
0.15 0.02 0
0.16 0.02 0
0.17 0.02 0
0.18 0.02 0
0.19 0.02 0
0.2 0.02 0
0.21 0.02 0
0.22 0.02 0
0.23 0.02 0
0.24 0.02 0
0.25 0.02 0
0.26 0.02 0
0.27 0.02 0
0.28 0.02 0
0.29 0.02 0
0.3 0.02 0
0.31 0.02 0
0.32 0.02 0
0.33 0.02 0
0.34 0.02 0
0.35 0.02 0
0.36 0.02 0
0.37 0.02 0
0.38 0.02 0
0.39 0.02 0
0.4 0.02 0
0.41 0.02 0
0.42 0.02 0
0.43 0.02 0
0.44 0.02 0
0.45 0.02 0
0.46 0.02 0
0.47 0.02 0
0.48 0.02 0
0.49 0.02 0
0.5 0.02 0
0.51 0.02 0
0.52 0.02 0
0.53 0.02 0
0.54 0.02 0
0.55 0.02 0
0.56 0.02 0
0.57 0.02 0
0.58 0.02 0
0.59 0.02 0
0.6 0.02 0
0.61 0.02 0
0 0.03 0
0.01 0.03 0
0.02 0.03 0
0.03 0.03 0
0.04 0.03 0
0.05 0.03 0
0.06 0.03 0
0.07 0.03 0
0.08 0.03 0
0.09 0.03 0
0.1 0.03 0
0.11 0.03 0
0.12 0.03 0
0.13 0.03 0
0.14 0.03 0
0.15 0.03 0
0.16 0.03 0
0.17 0.03 0
0.18 0.03 0
0.19 0.03 0
0.2 0.03 0
0.21 0.03 0
0.22 0.03 0
0.23 0.03 0
0.24 0.03 0
0.25 0.03 0
0.26 0.03 0
0.27 0.03 0
0.28 0.03 0
0.29 0.03 0
0.3 0.03 0
0.31 0.03 0
0.32 0.03 0
0.33 0.03 0
0.34 0.03 0
0.35 0.03 0
0.36 0.03 0
0.37 0.03 0
0.38 0.03 0
0.39 0.03 0
0.4 0.03 0
0.41 0.03 0
0.42 0.03 0
0.43 0.03 0
0.44 0.03 0
0.45 0.03 0
0.46 0.03 0
0.47 0.03 0
0.48 0.03 0
0.49 0.03 0
0.5 0.03 0
0.51 0.03 0
0.52 0.03 0
0.53 0.03 0
0.54 0.03 0
0.55 0.03 0
0.56 0.03 0
0.57 0.03 0
0.58 0.03 0
0.59 0.03 0
0.6 0.03 0
0.61 0.03 0
0 0.04 0
0.01 0.04 0
0.02 0.04 0
0.03 0.04 0
0.04 0.04 0
0.05 0.04 0
0.06 0.04 0
0.07 0.04 0
0.08 0.04 0
0.09 0.04 0
0.1 0.04 0
0.11 0.04 0
0.12 0.04 0
0.13 0.04 0
0.14 0.04 0
0.15 0.04 0
0.16 0.04 0
0.17 0.04 0
0.18 0.04 0
0.19 0.04 0
0.2 0.04 0
0.21 0.04 0
0.22 0.04 0
0.23 0.04 0
0.24 0.04 0
0.25 0.04 0
0.26 0.04 0
0.27 0.04 0
0.28 0.04 0
0.29 0.04 0
0.3 0.04 0
0.31 0.04 0
0.32 0.04 0
0.33 0.04 0
0.34 0.04 0
0.35 0.04 0
0.36 0.04 0
0.37 0.04 0
0.38 0.04 0
0.39 0.04 0
0.4 0.04 0
0.41 0.04 0
0.42 0.04 0
0.43 0.04 0
0.44 0.04 0
0.45 0.04 0
0.46 0.04 0
0.47 0.04 0
0.48 0.04 0
0.49 0.04 0
0.5 0.04 0
0.51 0.04 0
0.52 0.04 0
0.53 0.04 0
0.54 0.04 0
0.55 0.04 0
0.56 0.04 0
0.57 0.04 0
0.58 0.04 0
0.59 0.04 0
0.6 0.04 0
0.61 0.04 0
0 0.05 0
0.01 0.05 0
0.02 0.05 0
0.03 0.05 0
0.04 0.05 0
0.05 0.05 0
0.06 0.05 0
0.07 0.05 0
0.08 0.05 0
0.09 0.05 0
0.1 0.05 0
0.11 0.05 0
0.12 0.05 0
0.13 0.05 0
0.14 0.05 0
0.15 0.05 0
0.16 0.05 0
0.17 0.05 0
0.18 0.05 0
0.19 0.05 0
0.2 0.05 0
0.21 0.05 0
0.22 0.05 0
0.23 0.05 0
0.24 0.05 0
0.25 0.05 0
0.26 0.05 0
0.27 0.05 0
0.28 0.05 0
0.29 0.05 0
0.3 0.05 0
0.31 0.05 0
0.32 0.05 0
0.33 0.05 0
0.34 0.05 0
0.35 0.05 0
0.36 0.05 0
0.37 0.05 0
0.38 0.05 0
0.39 0.05 0
0.4 0.05 0
0.41 0.05 0
0.42 0.05 0
0.43 0.05 0
0.44 0.05 0
0.45 0.05 0
0.46 0.05 0
0.47 0.05 0
0.48 0.05 0
0.49 0.05 0
0.5 0.05 0
0.51 0.05 0
0.52 0.05 0
0.53 0.05 0
0.54 0.05 0
0.55 0.05 0
0.56 0.05 0
0.57 0.05 0
0.58 0.05 0
0.59 0.05 0
0.6 0.05 0
0.61 0.05 0
0 0.06 0
0.01 0.06 0
0.02 0.06 0
0.03 0.06 0
0.04 0.06 0
0.05 0.06 0
0.06 0.06 0
0.07 0.06 0
0.08 0.06 0
0.09 0.06 0
0.1 0.06 0
0.11 0.06 0
0.12 0.06 0
0.13 0.06 0
0.14 0.06 0
0.15 0.06 0
0.16 0.06 0
0.17 0.06 0
0.18 0.06 0
0.19 0.06 0
0.2 0.06 0
0.21 0.06 0
0.22 0.06 0
0.23 0.06 0
0.24 0.06 0
0.25 0.06 0
0.26 0.06 0
0.27 0.06 0
0.28 0.06 0
0.29 0.06 0
0.3 0.06 0
0.31 0.06 0
0.32 0.06 0
0.33 0.06 0
0.34 0.06 0
0.35 0.06 0
0.36 0.06 0
0.37 0.06 0
0.38 0.06 0
0.39 0.06 0
0.4 0.06 0
0.41 0.06 0
0.42 0.06 0
0.43 0.06 0
0.44 0.06 0
0.45 0.06 0
0.46 0.06 0
0.47 0.06 0
0.48 0.06 0
0.49 0.06 0
0.5 0.06 0
0.51 0.06 0
0.52 0.06 0
0.53 0.06 0
0.54 0.06 0
0.55 0.06 0
0.56 0.06 0
0.57 0.06 0
0.58 0.06 0
0.59 0.06 0
0.6 0.06 0
0.61 0.06 0
0 0.07 0
0.01 0.07 0
0.02 0.07 0
0.03 0.07 0
0.04 0.07 0
0.05 0.07 0
0.06 0.07 0
0.07 0.07 0
0.08 0.07 0
0.09 0.07 0
0.1 0.07 0
0.11 0.07 0
0.12 0.07 0
0.13 0.07 0
0.14 0.07 0
0.15 0.07 0
0.16 0.07 0
0.17 0.07 0
0.18 0.07 0
0.19 0.07 0
0.2 0.07 0
0.21 0.07 0
0.22 0.07 0
0.23 0.07 0
0.24 0.07 0
0.25 0.07 0
0.26 0.07 0
0.27 0.07 0
0.28 0.07 0
0.29 0.07 0
0.3 0.07 0
0.31 0.07 0
0.32 0.07 0
0.33 0.07 0
0.34 0.07 0
0.35 0.07 0
0.36 0.07 0
0.37 0.07 0
0.38 0.07 0
0.39 0.07 0
0.4 0.07 0
0.41 0.07 0
0.42 0.07 0
0.43 0.07 0
0.44 0.07 0
0.45 0.07 0
0.46 0.07 0
0.47 0.07 0
0.48 0.07 0
0.49 0.07 0
0.5 0.07 0
0.51 0.07 0
0.52 0.07 0
0.53 0.07 0
0.54 0.07 0
0.55 0.07 0
0.56 0.07 0
0.57 0.07 0
0.58 0.07 0
0.59 0.07 0
0.6 0.07 0
0.61 0.07 0
0 0.08 0
0.01 0.08 0
0.02 0.08 0
0.03 0.08 0
0.04 0.08 0
0.05 0.08 0
0.06 0.08 0
0.07 0.08 0
0.08 0.08 0
0.09 0.08 0
0.1 0.08 0
0.11 0.08 0
0.12 0.08 0
0.13 0.08 0
0.14 0.08 0
0.15 0.08 0
0.16 0.08 0
0.17 0.08 0
0.18 0.08 0
0.19 0.08 0
0.2 0.08 0
0.21 0.08 0
0.22 0.08 0
0.23 0.08 0
0.24 0.08 0
0.25 0.08 0
0.26 0.08 0
0.27 0.08 0
0.28 0.08 0
0.29 0.08 0
0.3 0.08 0
0.31 0.08 0
0.32 0.08 0
0.33 0.08 0
0.34 0.08 0
0.35 0.08 0
0.36 0.08 0
0.37 0.08 0
0.38 0.08 0
0.39 0.08 0
0.4 0.08 0
0.41 0.08 0
0.42 0.08 0
0.43 0.08 0
0.44 0.08 0
0.45 0.08 0
0.46 0.08 0
0.47 0.08 0
0.48 0.08 0
0.49 0.08 0
0.5 0.08 0
0.51 0.08 0
0.52 0.08 0
0.53 0.08 0
0.54 0.08 0
0.55 0.08 0
0.56 0.08 0
0.57 0.08 0
0.58 0.08 0
0.59 0.08 0
0.6 0.08 0
0.61 0.08 0
0 0.09 0
0.01 0.09 0
0.02 0.09 0
0.03 0.09 0
0.04 0.09 0
0.05 0.09 0
0.06 0.09 0
0.07 0.09 0
0.08 0.09 0
0.09 0.09 0
0.1 0.09 0
0.11 0.09 0
0.12 0.09 0
0.13 0.09 0
0.14 0.09 0
0.15 0.09 0
0.16 0.09 0
0.17 0.09 0
0.18 0.09 0
0.19 0.09 0
0.2 0.09 0
0.21 0.09 0
0.22 0.09 0
0.23 0.09 0
0.24 0.09 0
0.25 0.09 0
0.26 0.09 0
0.27 0.09 0
0.28 0.09 0
0.29 0.09 0
0.3 0.09 0
0.31 0.09 0
0.32 0.09 0
0.33 0.09 0
0.34 0.09 0
0.35 0.09 0
0.36 0.09 0
0.37 0.09 0
0.38 0.09 0
0.39 0.09 0
0.4 0.09 0
0.41 0.09 0
0.42 0.09 0
0.43 0.09 0
0.44 0.09 0
0.45 0.09 0
0.46 0.09 0
0.47 0.09 0
0.48 0.09 0
0.49 0.09 0
0.5 0.09 0
0.51 0.09 0
0.52 0.09 0
0.53 0.09 0
0.54 0.09 0
0.55 0.09 0
0.56 0.09 0
0.57 0.09 0
0.58 0.09 0
0.59 0.09 0
0.6 0.09 0
0.61 0.09 0
0 0.1 0
0.01 0.1 0
0.02 0.1 0
0.03 0.1 0
0.04 0.1 0
0.05 0.1 0
0.06 0.1 0
0.07 0.1 0
0.08 0.1 0
0.09 0.1 0
0.1 0.1 0
0.11 0.1 0
0.12 0.1 0
0.13 0.1 0
0.14 0.1 0
0.15 0.1 0
0.16 0.1 0
0.17 0.1 0
0.18 0.1 0
0.19 0.1 0
0.2 0.1 0
0.21 0.1 0
0.22 0.1 0
0.23 0.1 0
0.24 0.1 0
0.25 0.1 0
0.26 0.1 0
0.27 0.1 0
0.28 0.1 0
0.29 0.1 0
0.3 0.1 0
0.31 0.1 0
0.32 0.1 0
0.33 0.1 0
0.34 0.1 0
0.35 0.1 0
0.36 0.1 0
0.37 0.1 0
0.38 0.1 0
0.39 0.1 0
0.4 0.1 0
0.41 0.1 0
0.42 0.1 0
0.43 0.1 0
0.44 0.1 0
0.45 0.1 0
0.46 0.1 0
0.47 0.1 0
0.48 0.1 0
0.49 0.1 0
0.5 0.1 0
0.51 0.1 0
0.52 0.1 0
0.53 0.1 0
0.54 0.1 0
0.55 0.1 0
0.56 0.1 0
0.57 0.1 0
0.58 0.1 0
0.59 0.1 0
0.6 0.1 0
0.61 0.1 0
0 0.11 0
0.01 0.11 0
0.02 0.11 0
0.03 0.11 0
0.04 0.11 0
0.05 0.11 0
0.06 0.11 0
0.07 0.11 0
0.08 0.11 0
0.09 0.11 0
0.1 0.11 0
0.11 0.11 0
0.12 0.11 0
0.13 0.11 0
0.14 0.11 0
0.15 0.11 0
0.16 0.11 0
0.17 0.11 0
0.18 0.11 0
0.19 0.11 0
0.2 0.11 0
0.21 0.11 0
0.22 0.11 0
0.23 0.11 0
0.24 0.11 0
0.25 0.11 0
0.26 0.11 0
0.27 0.11 0
0.28 0.11 0
0.29 0.11 0
0.3 0.11 0
0.31 0.11 0
0.32 0.11 0
0.33 0.11 0
0.34 0.11 0
0.35 0.11 0
0.36 0.11 0
0.37 0.11 0
0.38 0.11 0
0.39 0.11 0
0.4 0.11 0
0.41 0.11 0
0.42 0.11 0
0.43 0.11 0
0.44 0.11 0
0.45 0.11 0
0.46 0.11 0
0.47 0.11 0
0.48 0.11 0
0.49 0.11 0
0.5 0.11 0
0.51 0.11 0
0.52 0.11 0
0.53 0.11 0
0.54 0.11 0
0.55 0.11 0
0.56 0.11 0
0.57 0.11 0
0.58 0.11 0
0.59 0.11 0
0.6 0.11 0
0.61 0.11 0
0 0.12 0
0.01 0.12 0
0.02 0.12 0
0.03 0.12 0
0.04 0.12 0
0.05 0.12 0
0.06 0.12 0
0.07 0.12 0
0.08 0.12 0
0.09 0.12 0
0.1 0.12 0
0.11 0.12 0
0.12 0.12 0
0.13 0.12 0
0.14 0.12 0
0.15 0.12 0
0.16 0.12 0
0.17 0.12 0
0.18 0.12 0
0.19 0.12 0
0.2 0.12 0
0.21 0.12 0
0.22 0.12 0
0.23 0.12 0
0.24 0.12 0
0.25 0.12 0
0.26 0.12 0
0.27 0.12 0
0.28 0.12 0
0.29 0.12 0
0.3 0.12 0
0.31 0.12 0
0.32 0.12 0
0.33 0.12 0
0.34 0.12 0
0.35 0.12 0
0.36 0.12 0
0.37 0.12 0
0.38 0.12 0
0.39 0.12 0
0.4 0.12 0
0.41 0.12 0
0.42 0.12 0
0.43 0.12 0
0.44 0.12 0
0.45 0.12 0
0.46 0.12 0
0.47 0.12 0
0.48 0.12 0
0.49 0.12 0
0.5 0.12 0
0.51 0.12 0
0.52 0.12 0
0.53 0.12 0
0.54 0.12 0
0.55 0.12 0
0.56 0.12 0
0.57 0.12 0
0.58 0.12 0
0.59 0.12 0
0.6 0.12 0
0.61 0.12 0
0 0.13 0
0.01 0.13 0
0.02 0.13 0
0.03 0.13 0
0.04 0.13 0
0.05 0.13 0
0.06 0.13 0
0.07 0.13 0
0.08 0.13 0
0.09 0.13 0
0.1 0.13 0
0.11 0.13 0
0.12 0.13 0
0.13 0.13 0
0.14 0.13 0
0.15 0.13 0
0.16 0.13 0
0.17 0.13 0
0.18 0.13 0
0.19 0.13 0
0.2 0.13 0
0.21 0.13 0
0.22 0.13 0
0.23 0.13 0
0.24 0.13 0
0.25 0.13 0
0.26 0.13 0
0.27 0.13 0
0.28 0.13 0
0.29 0.13 0
0.3 0.13 0
0.31 0.13 0
0.32 0.13 0
0.33 0.13 0
0.34 0.13 0
0.35 0.13 0
0.36 0.13 0
0.37 0.13 0
0.38 0.13 0
0.39 0.13 0
0.4 0.13 0
0.41 0.13 0
0.42 0.13 0
0.43 0.13 0
0.44 0.13 0
0.45 0.13 0
0.46 0.13 0
0.47 0.13 0
0.48 0.13 0
[...]
POINT_DATA 93248

SCALARS u double
LOOKUP_TABLE default
0
0
0
0
0
0
0
0
0
0
0
0
0
0
0
0
0
0
0
0
0
0
0
0
0.299218
0
0
0
0
0
0
0
0.223693
0.223717
0
0
0
0
0
0
0
0
0
0
0
0
0
0.0986259
0
0
0.0820292
0
0
0
0
0
0
0
0
0
0
0
0
0.437563
0.413984
0.39938
0.388379
0.379048
0.370593
0.362644
0.355011
0.347586
0.340305
0.333125
0.326019
0.318967
0.311956
0.304976
0.298018
0.291078
0.284149
0.27723
0.270318
0.263409
0.256503
0.249598
0.242692
0.235786
0.228877
0.221967
0.215053
0.208137
0.201217
0.194293
0.187366
0.180434
0.173499
0.16656
0.159617
0.15267
0.145719
0.154175
0.131807
0.124845
0.11788
0.110912
0.103941
0.0969676
0.0899911
0.0830122
0.076031
0.0690477
0.0620624
0.0534149
0.0480862
0.0410954
0.0341026
0.0271073
0.0263334
0.0131033
0.0060848
-0.000966544
-0.000966544
0
0
0.469829
0.453935
0.441227
0.430403
0.42068
0.411619
0.402977
0.394609
0.386429
0.37838
0.370427
0.362543
0.354711
0.346919
0.339156
0.331415
0.323691
0.31598
0.308146
0.300581
0.292889
0.2852
0.277512
0.269824
0.262135
0.254445
0.246752
0.239057
0.23136
0.223659
0.215955
0.208247
0.200536
0.192821
0.185102
0.17738
0.169655
-0.173575
0.154193
0.146457
0.138717
0.130975
0.12323
0.115482
0.107731
0.0999777
0.0922222
0.0844646
0.076705
0.0689435
0.0611802
0.0534153
0.0456488
0.0378804
0.0301099
0.0223367
0.0145592
0.00677481
-0.0010211
-0.0010211
0
0
0.46534
0.450746
0.439338
0.429299
0.420011
0.411196
0.402696
0.394415
0.386289
0.376618
0.370348
0.362482
0.354663
0.34688
0.339124
0.331389
0.323669
0.315961
0.308261
0.300567
0.292877
0.285189
0.277502
0.269815
0.262127
0.254438
0.246746
0.239052
0.231354
0.223654
0.21595
0.208243
0.200532
0.200434
0.185099
0.177377
0.169651
0.161922
0.154189
0.146454
0.138715
0.130944
0.123227
0.115479
0.123187
0.0999758
0.0922205
0.0844646
0.0767036
0.0689424
0.0611795
0.0534149
0.0456488
0.0378812
0.0301118
0.0223403
0.0145659
0.00678643
-0.0010045
-0.0010045
0
0
0.463536
0.448858
0.437882
0.428275
0.419307
0.410708
0.402351
0.394166
0.386105
0.378138
0.370241
0.362398
0.354596
0.346826
0.33908
0.331352
0.323639
0.315935
0.308108
0.300548
0.292861
0.285175
0.27749
0.269804
0.262117
0.254429
0.246738
0.239044
0.231348
0.223648
0.215944
0.208237
0.200527
0.192812
0.185094
0.177373
0.169647
0.161918
0.154186
0.14645
0.138712
0.13097
0.123225
0.115477
0.107727
0.0999738
0.0922187
0.0844615
0.0767023
0.0689414
0.0611788
0.0534146
0.0456491
0.0378821
0.0301137
0.0223435
0.0145709
0.00679325
-0.000997817
-0.000997817
0
0
0.462699
0.447754
0.436859
0.427444
0.41867
0.410228
0.401991
0.393893
0.385897
0.377976
0.370114
0.362297
0.354515
0.34676
0.339026
0.331307
0.323601
0.315903
0.308212
0.300525
0.292841
0.285157
0.277474
0.269791
0.262105
0.254418
0.246728
0.239036
0.23134
0.223641
0.215938
0.208231
0.200521
0.192807
0.18509
0.177368
0.169643
0.161915
0.154183
0.146447
0.138708
0.130967
0.123222
0.115474
0.107724
0.0999609
0.0922169
0.0844599
0.076701
0.0689404
0.0611781
0.0534144
0.0456494
0.037883
0.0301153
0.0223461
0.0145743
0.00679717
-0.000994701
-0.000994701
0
0
0.462259
0.447086
0.436155
0.426807
0.418135
0.409796
0.401647
0.393621
0.385681
0.377804
0.369976
0.362185
0.354424
0.346685
0.338963
0.331255
0.323557
0.315866
0.30818
0.300498
0.292817
0.285137
0.277457
0.269775
0.262092
0.254406
0.246718
0.239026
0.231331
0.223633
0.215931
0.208225
0.200515
0.192802
0.185085
0.177364
0.169639
0.161911
0.154179
0.146444
0.138705
0.130964
0.123219
0.115472
0.107722
0.0999697
0.0922151
0.0844584
0.0766998
0.0689394
0.0611775
0.0534142
0.0456495
0.0378837
0.0301166
0.0223479
0.0145766
0.00679948
-0.000993051
-0.000993051
0
0
0.462003
0.446663
0.435667
0.426328
0.417703
0.383291
0.401336
0.393364
0.38547
0.377631
0.369834
0.362068
0.354327
0.346604
0.338896
0.331198
0.323509
0.315825
0.308146
0.300468
0.292791
0.285115
0.277437
0.269758
0.262077
0.254393
0.246706
0.239016
0.231322
0.223624
0.215923
0.208218
0.200509
0.192796
0.185079
0.177359
0.169634
0.161906
0.154175
0.14644
0.138702
0.130938
0.123216
0.115469
0.10772
0.0999675
0.0922132
0.0844568
0.0766984
0.0689384
0.0611768
0.0534138
0.0456496
0.0378842
0.0301175
0.0223491
0.014578
0.00680088
-0.000992082
-0.000992082
0
0
0.461842
0.446383
0.435324
0.425969
0.41736
0.409114
0.401064
0.393131
0.385273
0.377465
0.369694
0.361951
0.354228
0.346521
0.338826
0.331415
0.323458
0.315782
0.308108
0.300436
0.292764
0.285091
0.277416
0.26974
0.262105
0.254379
0.246693
0.239004
0.231312
0.223615
0.215915
0.208211
0.200502
0.19279
0.185074
0.177353
0.16963
0.161902
0.154171
0.146436
0.138698
0.130957
0.123213
0.115467
0.107717
0.0999654
0.0922113
0.0844551
0.0766971
0.0689373
0.061176
0.0534134
0.0456495
0.0378844
0.030118
0.0223499
0.014579
0.00680174
-0.000991466
-0.000991466
0
0
0.461735
0.44619
0.435076
0.425698
0.417088
0.408858
0.400832
0.392925
0.385093
0.37731
0.369561
0.361837
0.354131
0.346438
0.338755
0.331078
0.323406
0.315737
0.30807
0.300403
0.292735
0.285066
0.277395
0.269721
0.262044
0.254364
0.24668
0.238993
0.231301
0.223606
0.215907
0.208203
0.200495
0.192784
0.185068
0.177348
0.169625
0.161898
0.154167
0.146432
0.138695
0.130954
0.12321
0.115464
0.107715
0.0999632
0.0922093
0.0844534
0.0766956
0.0689362
0.0611752
0.0534128
0.0456492
0.0378844
0.0301182
0.0223504
0.0145795
0.00680228
-0.000991048
-0.000991048
0
0
0.46166
0.446052
0.434894
0.425491
0.416874
0.408648
0.400635
0.392746
0.384933
0.377169
0.369438
0.36173
0.354038
0.346358
0.338685
0.331018
0.323355
0.315693
0.308031
0.300369
0.292706
0.28504
0.277372
0.269701
0.262027
0.254349
0.246667
0.238981
0.231291
0.231298
0.215898
0.208195
0.200488
0.192777
0.185062
0.177295
0.16962
0.161893
0.154163
0.146429
0.138691
0.130951
0.123207
0.115461
0.107712
0.0999609
0.0922073
0.0844517
0.0766942
0.0689349
0.0611742
-0.0487473
0.0456488
0.0378842
0.0301183
0.0223506
0.0145798
0.00680262
-0.000990752
-0.000990752
0
0
0.461606
0.445951
0.434757
0.425332
0.416704
0.408478
0.400471
0.392592
0.384792
0.377042
0.369325
0.36163
0.353951
0.346281
0.338619
0.33096
0.323304
0.315649
0.307993
0.300218
0.292677
0.285015
0.27735
0.269682
0.26201
0.254334
0.246654
0.238969
0.23128
0.223587
0.21589
0.208188
0.200481
0.192771
0.185056
0.177338
0.169575
0.161889
0.154158
0.146425
0.138688
0.130948
0.123204
0.115458
0.10771
0.0999587
0.0922053
0.0844499
0.0766926
0.0689336
0.0611732
0.0534113
0.0456482
0.0378838
0.0301181
0.0223506
0.0145799
0.00680281
-0.000990534
-0.000990534
0
0
0.461566
0.445875
0.434653
0.425207
0.416569
0.408339
0.400334
0.392461
0.38467
0.37693
0.369224
0.36154
0.35387
0.34621
0.338556
0.330905
0.323256
0.315607
0.307956
0.300304
0.292649
0.28499
0.277328
0.269663
0.261993
0.254319
0.24664
0.238957
0.23127
0.223578
0.215881
0.20818
0.200474
0.192765
0.185051
0.177332
0.16961
0.161884
0.154154
0.146421
0.138684
0.130944
0.123201
0.115456
0.107707
0.0999564
0.0922033
0.0844481
0.076691
0.0689323
0.061172
0.0534104
0.0456475
0.0378834
0.0301178
0.0223504
0.0145799
0.00680291
-0.000990368
-0.000990368
0
0
0.461535
0.445817
0.434572
0.42511
0.41646
0.408225
0.40022
0.392351
0.384565
0.376833
0.369134
0.361458
0.353797
0.346145
0.338498
0.330854
0.323211
0.315567
0.307921
0.300273
0.292622
0.284967
0.277308
0.269644
0.261977
0.254305
0.246628
0.238946
0.23126
0.223569
0.215873
0.208173
0.200468
0.192759
0.185045
0.177327
0.169605
0.16188
0.15415
0.146417
0.138681
0.130941
0.123198
0.115453
0.107705
0.0999541
0.0922012
0.0844462
0.0766894
0.0689309
0.0611708
0.0534094
0.0456467
0.0378828
0.0301174
0.0223502
0.0145798
0.00680293
-0.00099024
-0.00099024
0
0
0.461512
0.445772
0.434509
0.425033
0.416374
0.408133
0.400126
0.392258
0.384476
0.376749
0.369056
0.361387
0.353732
0.346086
0.338446
0.330807
0.323169
0.31553
0.307889
0.300244
0.292596
0.284944
0.277288
0.269627
0.261962
0.254291
0.246616
0.238935
0.23125
0.22356
0.215865
0.208166
0.200461
0.192753
0.18504
0.177322
0.169601
0.161875
0.154146
0.146414
0.138677
0.130938
0.123195
0.11545
0.107702
0.0999518
0.0921991
0.0844443
0.0766877
0.0689294
0.0611696
0.0534084
0.0456459
0.0378821
0.0301169
0.0223499
0.0145797
0.0068029
-0.00099014
-0.00099014
0
0
0.461494
0.445737
0.434459
0.424971
0.416304
0.408059
0.400049
0.392182
0.384401
0.376677
0.368989
0.361325
0.353676
0.346035
0.338399
0.330766
0.323132
0.315497
0.30786
0.300219
0.292574
0.284924
0.27727
0.269611
0.261947
0.254279
0.246605
0.238925
0.231241
0.223552
0.215858
0.208159
0.200455
0.192747
0.185034
0.177318
0.169596
0.161871
0.154142
0.14641
0.138674
0.130935
0.123193
0.115447
0.1077
0.0999494
0.092197
0.0844424
0.076686
0.0689279
0.0611682
0.0534072
0.0456449
0.0378814
0.0301164
0.0223495
0.0145794
0.00680283
-0.000990061
-0.000990061
0
0
0.461479
0.44571
0.43442
0.424923
0.416249
0.407999
0.399987
0.392119
0.384339
0.376618
0.368933
0.361272
0.353627
0.345991
0.338359
0.330729
0.3231
0.315468
0.307834
0.300196
0.292553
0.284906
0.277254
0.269597
0.261935
0.254267
0.246595
0.238916
0.231233
0.223545
0.215851
0.208153
0.20045
0.192742
0.18503
0.177313
0.169592
0.161867
0.154139
0.146407
0.138671
0.130932
0.12319
0.115445
0.107697
0.0999471
0.0921948
0.0844405
0.0766842
0.0689263
0.0611668
0.053406
0.0456439
0.0378805
0.0301157
0.022349
0.0145792
0.00680273
-0.00099
-0.00099
0
0
0.461469
0.445688
0.43439
0.424885
0.416205
0.407951
0.399937
0.392068
0.384289
0.376569
0.368887
0.361229
0.353586
0.345953
0.338325
0.330699
0.323072
0.315443
0.307812
0.300176
0.292536
0.284891
0.27724
0.269585
0.261924
0.254258
0.246586
0.238909
0.231226
0.223538
0.215845
0.208147
0.200445
0.192737
0.185025
0.177309
0.169588
0.161864
0.154135
0.146403
0.138668
0.130929
0.123187
0.115442
0.107695
0.0999448
0.0921927
0.0844385
0.0766824
0.0689247
0.0611654
0.0534048
0.0456428
0.0378797
0.030115
0.0223485
0.0145788
0.00680259
-0.000989954
-0.000989954
0
0
0.46146
0.445672
0.434367
0.424856
0.416172
0.400334
0.399898
0.392028
0.384249
0.37653
0.368849
0.361194
0.353554
0.345923
0.338298
0.330674
0.323049
0.315423
0.307793
0.30016
0.292521
0.284878
0.277229
0.269575
0.261915
0.254249
0.246678
0.238902
0.23122
0.223533
0.21584
0.208143
0.20044
0.192733
0.185022
0.177305
0.169585
0.161861
0.154132
0.1464
0.138665
0.130926
0.123184
0.11544
0.107692
0.0999426
0.0921906
0.0844365
0.0766806
0.068923
0.0611639
0.0534034
0.0456417
0.0378787
0.0301143
0.0145798
0.0145785
0.00680243
-0.000989923
0
0
0
0.461454
0.445757
0.43435
0.424835
0.416147
0.407886
0.399869
0.391998
0.384219
0.376501
0.368821
0.361167
0.353529
0.3459
0.338276
0.330655
0.323032
0.315408
0.30778
0.300147
0.29251
0.284868
0.27722
0.269567
0.261908
0.254243
0.246573
0.238897
0.231215
0.223528
0.215836
0.208139
0.200437
0.185018
0.185018
0.177302
0.169582
0.161858
0.154129
0.146432
0.138662
0.130923
0.123182
0.115437
0.10769
0.0999403
0.0921884
0.0844345
0.0766787
0.0689213
0.0611623
0.0534021
0.0456405
0.0378777
0.0301135
0.0223474
0.0145781
0.00680223
-0.000989906
-0.000989906
0
0
0.46145
0.445652
0.434338
0.42482
0.416129
0.407867
0.399849
0.391977
0.384199
0.37648
0.368802
0.361148
0.353511
0.345884
0.338262
0.330641
0.32302
0.315397
0.30777
0.300139
0.292503
0.284861
0.277214
0.269561
0.261903
0.254239
0.246568
0.238893
0.231212
0.223525
0.215833
0.208136
0.200434
0.192727
0.185015
0.177299
0.169579
0.161855
0.154127
0.146395
0.138659
0.130921
0.123179
0.115435
0.107688
0.099938
0.0921862
0.0844324
0.0766768
0.0689195
0.0611607
0.0534006
0.0456392
0.0378766
0.0301126
0.0223467
0.0145776
0.00680201
-0.000989905
-0.000989905
0
0
0.461447
0.445647
0.434331
0.424811
0.416119
0.407856
0.399837
0.391965
0.384187
0.376469
0.36879
0.361138
0.353502
0.30632
0.338254
0.330634
0.323014
0.315391
0.307765
0.300134
0.292499
0.284858
0.277211
0.269558
0.2619
0.254236
0.246566
0.23889
0.231209
0.223523
0.215831
0.208134
0.200431
0.192725
0.185013
0.177297
0.169577
0.161852
0.154124
0.146392
0.138657
0.130918
0.123177
0.115432
0.107685
0.0999358
0.0921841
0.0844303
0.0766748
0.0689176
0.061159
0.053399
0.0456379
0.0378754
0.0301116
0.022346
0.0145771
0.00680174
-0.000989921
-0.000989921
0
0
0.461446
0.445645
0.434329
0.424808
0.416116
0.407852
0.399833
0.391961
0.384183
0.376465
0.368787
0.361135
0.320252
0.345873
0.338252
0.330633
0.323013
0.31539
0.307764
0.300134
0.292498
0.284857
0.27721
0.269558
0.2619
0.254235
0.246565
0.23889
0.231208
0.223522
0.215829
0.208132
0.20043
0.192723
0.185011
0.177295
0.169575
0.16185
0.154122
0.14639
0.138655
0.130916
0.123175
0.11543
0.107683
0.0999335
0.0921818
0.0844282
0.0766728
0.0689157
0.0611572
0.0533974
0.0456364
0.0378742
0.0301106
0.0223451
0.0145766
0.00680144
-0.000989957
-0.000989957
0
0
0.461447
0.445647
0.43433
0.424811
0.416118
0.407856
0.399837
0.391965
0.384188
0.37647
0.368792
0.36114
0.353505
0.345878
0.338257
0.330638
0.323017
0.315395
0.307768
0.300137
0.292501
0.28486
0.277213
0.26956
0.261901
0.254237
0.246567
0.23889
0.231209
0.223522
0.215829
0.208132
0.200429
0.192722
0.18501
0.177294
0.169573
0.161849
0.15412
0.146388
0.138653
0.130914
0.123172
0.115428
0.115363
0.0999312
0.0921796
0.084426
0.0766706
0.0689137
0.0687981
0.0533957
0.0456348
0.0299997
0.0301094
0.0223442
0.0145759
0.0068011
-0.000990016
-0.000990016
0
0
0.461449
0.445651
0.434337
0.424819
0.416128
0.407867
0.399849
0.391978
0.384201
0.376484
0.368806
0.361153
0.353517
0.345891
0.338269
0.330649
0.323028
0.315404
0.307777
0.300145
0.292509
0.284866
0.277219
0.269565
0.261906
0.25424
0.246569
0.239026
0.231211
0.223523
0.21583
0.208132
0.200429
0.192722
0.18501
0.177293
0.169572
0.161847
0.154119
0.146386
0.138651
0.130912
0.12317
0.115426
0.107678
0.0999289
0.0921773
0.0844237
0.0766684
0.0689115
0.0611533
0.0533938
0.0456331
0.0378713
0.0301082
0.0223432
0.0145752
0.00680069
-0.000990104
-0.000990104
0
0
0.461452
0.445658
0.434347
0.424832
0.416144
0.407885
0.399869
0.391999
0.384222
0.376506
0.368828
0.361175
0.353538
0.34591
0.338287
0.330666
0.323043
0.315419
0.30779
0.300157
0.292519
0.284876
0.277227
0.269572
0.261912
0.254246
0.246574
0.238897
0.231214
0.223526
0.215832
0.208134
0.20043
0.192722
0.185009
0.177292
0.169571
0.161846
0.154117
0.146385
0.138649
0.13091
0.123168
0.115423
0.107676
0.0999265
0.0921749
0.0844213
0.0688803
0.0689092
0.0611511
0.0533917
0.0456312
0.0378696
0.0301068
0.0223421
0.0145744
0.00680022
-0.000990227
-0.000990227
0
0
0.461458
0.445669
0.434363
0.424852
0.416168
0.407912
0.399898
0.39203
0.384253
0.376537
0.368858
0.361204
0.353566
0.345937
0.338312
0.330689
0.323065
0.315438
0.307808
0.300173
0.292534
0.284889
0.277239
0.269582
0.261921
0.254253
0.246581
0.238902
0.231218
0.223529
0.215835
0.208136
0.200432
0.192723
0.18501
0.177292
0.169571
0.161845
0.154116
0.146383
0.138647
0.130908
0.123166
0.115421
0.107674
0.0999241
0.0921723
0.0844187
0.0766635
0.0689067
0.0611487
0.0533894
0.0456291
0.0378678
0.0301052
0.0223408
0.0145735
0.00679966
-0.000990393
-0.000990393
0
0
0.461465
0.445683
0.434384
0.424879
0.4162
0.407947
0.399936
0.39207
0.384294
0.376577
0.368898
0.361243
0.353603
0.345971
0.338345
0.330719
0.323092
0.315463
0.307831
0.300194
0.292552
0.284905
0.27727
0.269595
0.261932
0.254263
0.246589
0.238909
0.231224
0.223534
0.215839
0.208139
0.200434
0.192725
0.185011
0.177293
0.169571
0.161845
0.154115
0.146382
0.138646
0.130906
0.123164
0.115419
0.107671
0.0999215
0.0921697
0.084416
0.0766607
0.068904
0.061146
0.0533869
0.0456268
0.0378657
0.0301034
0.0223394
0.0145724
0.00679899
-0.000990613
-0.000990613
0
0
0.461475
0.445702
0.434412
0.424914
0.416241
0.407993
0.399985
0.39212
0.384346
0.376628
0.368947
0.36129
0.353648
0.346014
0.338384
0.330755
0.323125
0.315493
0.307858
0.300218
0.292574
0.284924
0.27727
0.26961
0.261945
0.254274
0.246598
0.238917
0.231231
0.223539
0.215843
0.208142
0.200437
0.192727
0.185012
0.177294
0.169571
0.161845
0.154114
0.146381
0.138644
0.130904
0.123162
0.115416
0.107669
0.0999188
0.0921668
0.0844131
0.0766577
0.068901
0.0611431
0.0533841
0.0456242
0.0378633
0.0301013
0.0223377
0.0145711
0.0067982
-0.0009909
-0.0009909
0
0
0.461487
0.445727
0.434447
0.424959
0.416293
0.40805
0.400046
0.392183
0.384409
0.384222
0.369007
0.361348
0.353702
0.346064
0.33843
0.330798
0.323164
0.315528
0.307889
0.300246
0.292599
0.284946
0.277289
0.269627
0.231254
0.254287
0.246609
0.238926
0.231239
0.223546
0.215849
0.208147
0.20044
0.192729
0.185014
0.177295
0.169571
0.161844
0.154114
0.14638
0.138643
0.130903
0.12316
0.115414
0.107666
0.0999159
0.0921638
0.0844099
0.0766545
0.0688977
0.0611399
0.053381
0.0456212
0.0378606
0.0300989
0.0223357
0.0145696
0.00679724
-0.000991271
-0.000991271
0
0
0.461503
0.445757
0.435393
0.425014
0.416357
0.408121
0.40012
0.392259
0.384485
0.376764
0.369079
0.361415
0.353765
0.346123
0.338484
0.330847
0.323208
0.315903
0.307925
0.300278
0.292627
0.284971
0.277311
0.269646
0.261976
0.254301
0.246621
0.238937
0.231247
0.223553
0.215855
0.208151
0.200444
0.192732
0.185016
0.177296
0.169572
0.161844
0.154113
0.146379
0.138641
0.130901
0.123157
0.115411
0.107663
0.0999128
0.0921605
0.0844064
0.0766509
0.0688941
0.0611362
0.0533774
0.0456178
0.0378574
0.0300961
0.0223333
0.0145678
0.00679607
-0.0009909
-0.00099175
0
0
0.461523
0.445796
0.434546
0.425083
0.416436
0.408207
0.400211
0.392351
0.384575
0.376852
0.369162
0.361493
0.353838
0.346189
0.338545
0.323691
0.323258
0.315612
0.307964
0.300313
0.292657
0.284998
0.277334
0.269666
0.261994
0.254316
0.246634
0.238948
0.231257
0.223561
0.215861
0.208157
0.200448
0.192735
0.185018
0.177297
0.169573
0.161844
0.154113
0.146378
0.13864
0.130899
0.123155
0.115409
0.10766
0.0999095
0.0921569
0.0844026
0.0766469
0.06889
0.0611321
0.0533733
0.0456139
0.0378537
0.0300928
0.0223305
0.0145656
0.00679948
-0.000992369
-0.000992369
0
0
0.461548
0.445845
0.434615
0.425169
0.416534
0.408313
0.40032
0.39246
0.384682
0.376954
0.369259
0.361583
0.35392
0.346265
0.338613
0.330963
0.323313
0.315661
0.308007
0.300351
0.292691
0.285027
0.27736
0.269688
0.262013
0.254333
0.246648
0.23896
0.231267
0.223569
0.215868
0.208162
0.200452
0.192738
0.18502
0.177299
0.169573
0.161844
0.154112
0.146377
0.138638
0.130897
0.123152
0.115406
0.107657
0.0999059
0.092153
0.0843984
0.0766425
0.0688854
0.0611274
0.0533686
0.0456093
0.0378494
0.0300211
0.0223272
0.014563
0.00679285
-0.00101617
-0.000993172
0
0
0.46158
0.445907
0.434703
0.425276
0.416655
0.408441
0.400451
0.39259
0.384807
0.377073
0.369369
0.361685
0.354013
0.346348
0.338688
0.33103
0.323372
0.315713
0.308053
0.300391
0.292726
0.285058
0.277387
0.269712
0.262033
0.25435
0.246663
0.238972
0.231277
0.223578
0.215875
0.208168
0.200457
0.192741
0.185023
0.1773
0.169574
0.161844
0.154112
0.146375
0.138636
0.130894
0.12315
0.115403
0.107653
0.099902
0.0921487
0.0843939
0.0766376
0.0688803
0.0611221
0.0533633
0.0456039
0.0378443
0.0300841
0.022323
0.0145597
0.0067906
-0.000994218
-0.000994218
0
0
0.461621
0.445986
0.434814
0.425411
0.416205
0.408598
0.400608
0.392743
0.384953
0.377209
0.369494
0.361798
0.354115
0.345991
0.338769
0.331102
0.323435
0.315769
0.308102
0.300434
0.292763
0.28509
0.277414
0.269735
0.262053
0.254367
0.246678
0.238985
0.231287
0.223587
0.215882
0.208173
0.200461
0.192745
0.185025
0.177302
0.169575
0.161844
0.154111
0.146374
0.138635
0.130892
0.123147
0.115399
0.10765
0.0998978
0.0921441
0.0843888
0.0766322
0.0688745
0.0611161
0.053357
0.0455977
0.0378381
0.0300784
0.0223179
0.0145556
0.00678773
-0.000995596
-0.000995596
0
0
0.461676
0.44609
0.434957
0.425581
0.416991
0.408789
0.400797
0.392923
0.385121
0.377363
0.369634
0.361924
0.354226
0.346538
0.338856
0.331178
0.323502
0.315827
0.308152
0.300477
0.292801
0.285123
0.277442
0.269759
0.262074
0.254385
0.246693
0.238997
0.231298
0.223595
0.215889
0.208179
0.200465
0.192748
0.185027
0.177303
0.169575
0.161844
0.15411
0.146373
0.124845
0.13089
0.123144
0.115396
0.107646
0.0998933
0.0921391
0.0843833
0.0766262
0.0688681
0.0611092
0.0533498
0.0455903
0.0378308
0.0300713
0.0223116
0.0145503
0.006784
-0.000997439
-0.000997439
0
0
0.46175
0.446228
0.435144
0.425799
0.417223
0.409023
0.401022
0.393134
0.385314
0.377537
0.369789
0.36206
0.354346
0.346643
0.338947
0.331257
0.32357
0.315886
0.308204
0.300522
0.292839
0.285155
0.27747
0.269783