# vtk DataFile Version 2.0
FlowField
ASCII
DATASET STRUCTURED_GRID
DIMENSIONS 102 11 11 
POINTS 12342 double
0 0 0
0 0 0.2
0 0 0.4
0 0 0.6
0 0 0.8
0 0 1
0 0 1.2
0 0 1.4
0 0 1.6
0 0 1.8
0 0 2
0 0.1 0
0 0.1 0.2
0 0.1 0.4
0 0.1 0.6
0 0.1 0.8
0 0.1 1
0 0.1 1.2
0 0.1 1.4
0 0.1 1.6
0 0.1 1.8
0 0.1 2
0 0.2 0
0 0.2 0.2
0 0.2 0.4
0 0.2 0.6
0 0.2 0.8
0 0.2 1
0 0.2 1.2
0 0.2 1.4
0 0.2 1.6
0 0.2 1.8
0 0.2 2
0 0.3 0
0 0.3 0.2
0 0.3 0.4
0 0.3 0.6
0 0.3 0.8
0 0.3 1
0 0.3 1.2
0 0.3 1.4
0 0.3 1.6
0 0.3 1.8
0 0.3 2
0 0.4 0
0 0.4 0.2
0 0.4 0.4
0 0.4 0.6
0 0.4 0.8
0 0.4 1
0 0.4 1.2
0 0.4 1.4
0 0.4 1.6
0 0.4 1.8
0 0.4 2
0 0.5 0
0 0.5 0.2
0 0.5 0.4
0 0.5 0.6
0 0.5 0.8
0 0.5 1
0 0.5 1.2
0 0.5 1.4
0 0.5 1.6
0 0.5 1.8
0 0.5 2
0 0.6 0
0 0.6 0.2
0 0.6 0.4
0 0.6 0.6
0 0.6 0.8
0 0.6 1
0 0.6 1.2
0 0.6 1.4
0 0.6 1.6
0 0.6 1.8
0 0.6 2
0 0.7 0
0 0.7 0.2
0 0.7 0.4
0 0.7 0.6
0 0.7 0.8
0 0.7 1
0 0.7 1.2
0 0.7 1.4
0 0.7 1.6
0 0.7 1.8
0 0.7 2
0 0.8 0
0 0.8 0.2
0 0.8 0.4
0 0.8 0.6
0 0.8 0.8
0 0.8 1
0 0.8 1.2
0 0.8 1.4
0 0.8 1.6
0 0.8 1.8
0 0.8 2
0 0.9 0
0 0.9 0.2
0 0.9 0.4
0 0.9 0.6
0 0.9 0.8
0 0.9 1
0 0.9 1.2
0 0.9 1.4
0 0.9 1.6
0 0.9 1.8
0 0.9 2
0 1 0
0 1 0.2
0 1 0.4
0 1 0.6
0 1 0.8
0 1 1
0 1 1.2
0 1 1.4
0 1 1.6
0 1 1.8
0 1 2
0.2 0 0
0.2 0 0.2
0.2 0 0.4
0.2 0 0.6
0.2 0 0.8
0.2 0 1
0.2 0 1.2
0.2 0 1.4
0.2 0 1.6
0.2 0 1.8
0.2 0 2
0.2 0.1 0
0.2 0.1 0.2
0.2 0.1 0.4
0.2 0.1 0.6
0.2 0.1 0.8
0.2 0.1 1
0.2 0.1 1.2
0.2 0.1 1.4
0.2 0.1 1.6
0.2 0.1 1.8
0.2 0.1 2
0.2 0.2 0
0.2 0.2 0.2
0.2 0.2 0.4
0.2 0.2 0.6
0.2 0.2 0.8
0.2 0.2 1
0.2 0.2 1.2
0.2 0.2 1.4
0.2 0.2 1.6
0.2 0.2 1.8
0.2 0.2 2
0.2 0.3 0
0.2 0.3 0.2
0.2 0.3 0.4
0.2 0.3 0.6
0.2 0.3 0.8
0.2 0.3 1
0.2 0.3 1.2
0.2 0.3 1.4
0.2 0.3 1.6
0.2 0.3 1.8
0.2 0.3 2
0.2 0.4 0
0.2 0.4 0.2
0.2 0.4 0.4
0.2 0.4 0.6
0.2 0.4 0.8
0.2 0.4 1
0.2 0.4 1.2
0.2 0.4 1.4
0.2 0.4 1.6
0.2 0.4 1.8
0.2 0.4 2
0.2 0.5 0
0.2 0.5 0.2
0.2 0.5 0.4
0.2 0.5 0.6
0.2 0.5 0.8
0.2 0.5 1
0.2 0.5 1.2
0.2 0.5 1.4
0.2 0.5 1.6
0.2 0.5 1.8
0.2 0.5 2
0.2 0.6 0
0.2 0.6 0.2
0.2 0.6 0.4
0.2 0.6 0.6
0.2 0.6 0.8
0.2 0.6 1
0.2 0.6 1.2
0.2 0.6 1.4
0.2 0.6 1.6
0.2 0.6 1.8
0.2 0.6 2
0.2 0.7 0
0.2 0.7 0.2
0.2 0.7 0.4
0.2 0.7 0.6
0.2 0.7 0.8
0.2 0.7 1
0.2 0.7 1.2
0.2 0.7 1.4
0.2 0.7 1.6
0.2 0.7 1.8
0.2 0.7 2
0.2 0.8 0
0.2 0.8 0.2
0.2 0.8 0.4
0.2 0.8 0.6
0.2 0.8 0.8
0.2 0.8 1
0.2 0.8 1.2
0.2 0.8 1.4
0.2 0.8 1.6
0.2 0.8 1.8
0.2 0.8 2
0.2 0.9 0
0.2 0.9 0.2
0.2 0.9 0.4
0.2 0.9 0.6
0.2 0.9 0.8
0.2 0.9 1
0.2 0.9 1.2
0.2 0.9 1.4
0.2 0.9 1.6
0.2 0.9 1.8
0.2 0.9 2
0.2 1 0
0.2 1 0.2
0.2 1 0.4
0.2 1 0.6
0.2 1 0.8
0.2 1 1
0.2 1 1.2
0.2 1 1.4
0.2 1 1.6
0.2 1 1.8
0.2 1 2
0.4 0 0
0.4 0 0.2
0.4 0 0.4
0.4 0 0.6
0.4 0 0.8
0.4 0 1
0.4 0 1.2
0.4 0 1.4
0.4 0 1.6
0.4 0 1.8
0.4 0 2
0.4 0.1 0
0.4 0.1 0.2
0.4 0.1 0.4
0.4 0.1 0.6
0.4 0.1 0.8
0.4 0.1 1
0.4 0.1 1.2
0.4 0.1 1.4
0.4 0.1 1.6
0.4 0.1 1.8
0.4 0.1 2
0.4 0.2 0
0.4 0.2 0.2
0.4 0.2 0.4
0.4 0.2 0.6
0.4 0.2 0.8
0.4 0.2 1
0.4 0.2 1.2
0.4 0.2 1.4
0.4 0.2 1.6
0.4 0.2 1.8
0.4 0.2 2
0.4 0.3 0
0.4 0.3 0.2
0.4 0.3 0.4
0.4 0.3 0.6
0.4 0.3 0.8
0.4 0.3 1
0.4 0.3 1.2
0.4 0.3 1.4
0.4 0.3 1.6
0.4 0.3 1.8
0.4 0.3 2
0.4 0.4 0
0.4 0.4 0.2
0.4 0.4 0.4
0.4 0.4 0.6
0.4 0.4 0.8
0.4 0.4 1
0.4 0.4 1.2
0.4 0.4 1.4
0.4 0.4 1.6
0.4 0.4 1.8
0.4 0.4 2
0.4 0.5 0
0.4 0.5 0.2
0.4 0.5 0.4
0.4 0.5 0.6
0.4 0.5 0.8
0.4 0.5 1
0.4 0.5 1.2
0.4 0.5 1.4
0.4 0.5 1.6
0.4 0.5 1.8
0.4 0.5 2
0.4 0.6 0
0.4 0.6 0.2
0.4 0.6 0.4
0.4 0.6 0.6
0.4 0.6 0.8
0.4 0.6 1
0.4 0.6 1.2
0.4 0.6 1.4
0.4 0.6 1.6
0.4 0.6 1.8
0.4 0.6 2
0.4 0.7 0
0.4 0.7 0.2
0.4 0.7 0.4
0.4 0.7 0.6
0.4 0.7 0.8
0.4 0.7 1
0.4 0.7 1.2
0.4 0.7 1.4
0.4 0.7 1.6
0.4 0.7 1.8
0.4 0.7 2
0.4 0.8 0
0.4 0.8 0.2
0.4 0.8 0.4
0.4 0.8 0.6
0.4 0.8 0.8
0.4 0.8 1
0.4 0.8 1.2
0.4 0.8 1.4
0.4 0.8 1.6
0.4 0.8 1.8
0.4 0.8 2
0.4 0.9 0
0.4 0.9 0.2
0.4 0.9 0.4
0.4 0.9 0.6
0.4 0.9 0.8
0.4 0.9 1
0.4 0.9 1.2
0.4 0.9 1.4
0.4 0.9 1.6
0.4 0.9 1.8
0.4 0.9 2
0.4 1 0
0.4 1 0.2
0.4 1 0.4
0.4 1 0.6
0.4 1 0.8
0.4 1 1
0.4 1 1.2
0.4 1 1.4
0.4 1 1.6
0.4 1 1.8
0.4 1 2
0.6 0 0
0.6 0 0.2
0.6 0 0.4
0.6 0 0.6
0.6 0 0.8
0.6 0 1
0.6 0 1.2
0.6 0 1.4
0.6 0 1.6
0.6 0 1.8
0.6 0 2
0.6 0.1 0
0.6 0.1 0.2
0.6 0.1 0.4
0.6 0.1 0.6
0.6 0.1 0.8
0.6 0.1 1
0.6 0.1 1.2
0.6 0.1 1.4
0.6 0.1 1.6
0.6 0.1 1.8
0.6 0.1 2
0.6 0.2 0
0.6 0.2 0.2
0.6 0.2 0.4
0.6 0.2 0.6
0.6 0.2 0.8
0.6 0.2 1
0.6 0.2 1.2
0.6 0.2 1.4
0.6 0.2 1.6
0.6 0.2 1.8
0.6 0.2 2
0.6 0.3 0
0.6 0.3 0.2
0.6 0.3 0.4
0.6 0.3 0.6
0.6 0.3 0.8
0.6 0.3 1
0.6 0.3 1.2
0.6 0.3 1.4
0.6 0.3 1.6
0.6 0.3 1.8
0.6 0.3 2
0.6 0.4 0
0.6 0.4 0.2
0.6 0.4 0.4
0.6 0.4 0.6
0.6 0.4 0.8
0.6 0.4 1
0.6 0.4 1.2
0.6 0.4 1.4
0.6 0.4 1.6
0.6 0.4 1.8
0.6 0.4 2
0.6 0.5 0
0.6 0.5 0.2
0.6 0.5 0.4
0.6 0.5 0.6
0.6 0.5 0.8
0.6 0.5 1
0.6 0.5 1.2
0.6 0.5 1.4
0.6 0.5 1.6
0.6 0.5 1.8
0.6 0.5 2
0.6 0.6 0
0.6 0.6 0.2
0.6 0.6 0.4
0.6 0.6 0.6
0.6 0.6 0.8
0.6 0.6 1
0.6 0.6 1.2
0.6 0.6 1.4
0.6 0.6 1.6
0.6 0.6 1.8
0.6 0.6 2
0.6 0.7 0
0.6 0.7 0.2
0.6 0.7 0.4
0.6 0.7 0.6
0.6 0.7 0.8
0.6 0.7 1
0.6 0.7 1.2
0.6 0.7 1.4
0.6 0.7 1.6
0.6 0.7 1.8
0.6 0.7 2
0.6 0.8 0
0.6 0.8 0.2
0.6 0.8 0.4
0.6 0.8 0.6
0.6 0.8 0.8
0.6 0.8 1
0.6 0.8 1.2
0.6 0.8 1.4
0.6 0.8 1.6
0.6 0.8 1.8
0.6 0.8 2
0.6 0.9 0
0.6 0.9 0.2
0.6 0.9 0.4
0.6 0.9 0.6
0.6 0.9 0.8
0.6 0.9 1
0.6 0.9 1.2
0.6 0.9 1.4
0.6 0.9 1.6
0.6 0.9 1.8
0.6 0.9 2
0.6 1 0
0.6 1 0.2
0.6 1 0.4
0.6 1 0.6
0.6 1 0.8
0.6 1 1
0.6 1 1.2
0.6 1 1.4
0.6 1 1.6
0.6 1 1.8
0.6 1 2
0.8 0 0
0.8 0 0.2
0.8 0 0.4
0.8 0 0.6
0.8 0 0.8
0.8 0 1
0.8 0 1.2
0.8 0 1.4
0.8 0 1.6
0.8 0 1.8
0.8 0 2
0.8 0.1 0
0.8 0.1 0.2
0.8 0.1 0.4
0.8 0.1 0.6
0.8 0.1 0.8
0.8 0.1 1
0.8 0.1 1.2
0.8 0.1 1.4
0.8 0.1 1.6
0.8 0.1 1.8
0.8 0.1 2
0.8 0.2 0
0.8 0.2 0.2
0.8 0.2 0.4
0.8 0.2 0.6
0.8 0.2 0.8
0.8 0.2 1
0.8 0.2 1.2
0.8 0.2 1.4
0.8 0.2 1.6
0.8 0.2 1.8
0.8 0.2 2
0.8 0.3 0
0.8 0.3 0.2
0.8 0.3 0.4
0.8 0.3 0.6
0.8 0.3 0.8
0.8 0.3 1
0.8 0.3 1.2
0.8 0.3 1.4
0.8 0.3 1.6
0.8 0.3 1.8
0.8 0.3 2
0.8 0.4 0
0.8 0.4 0.2
0.8 0.4 0.4
0.8 0.4 0.6
0.8 0.4 0.8
0.8 0.4 1
0.8 0.4 1.2
0.8 0.4 1.4
0.8 0.4 1.6
0.8 0.4 1.8
0.8 0.4 2
0.8 0.5 0
0.8 0.5 0.2
0.8 0.5 0.4
0.8 0.5 0.6
0.8 0.5 0.8
0.8 0.5 1
0.8 0.5 1.2
0.8 0.5 1.4
0.8 0.5 1.6
0.8 0.5 1.8
0.8 0.5 2
0.8 0.6 0
0.8 0.6 0.2
0.8 0.6 0.4
0.8 0.6 0.6
0.8 0.6 0.8
0.8 0.6 1
0.8 0.6 1.2
0.8 0.6 1.4
0.8 0.6 1.6
0.8 0.6 1.8
0.8 0.6 2
0.8 0.7 0
0.8 0.7 0.2
0.8 0.7 0.4
0.8 0.7 0.6
0.8 0.7 0.8
0.8 0.7 1
0.8 0.7 1.2
0.8 0.7 1.4
0.8 0.7 1.6
0.8 0.7 1.8
0.8 0.7 2
0.8 0.8 0
0.8 0.8 0.2
0.8 0.8 0.4
0.8 0.8 0.6
0.8 0.8 0.8
0.8 0.8 1
0.8 0.8 1.2
0.8 0.8 1.4
0.8 0.8 1.6
0.8 0.8 1.8
0.8 0.8 2
0.8 0.9 0
0.8 0.9 0.2
0.8 0.9 0.4
0.8 0.9 0.6
0.8 0.9 0.8
0.8 0.9 1
0.8 0.9 1.2
0.8 0.9 1.4
0.8 0.9 1.6
0.8 0.9 1.8
0.8 0.9 2
0.8 1 0
0.8 1 0.2
0.8 1 0.4
0.8 1 0.6
0.8 1 0.8
0.8 1 1
0.8 1 1.2
0.8 1 1.4
0.8 1 1.6
0.8 1 1.8
0.8 1 2
1 0 0
1 0 0.2
1 0 0.4
1 0 0.6
1 0 0.8
1 0 1
1 0 1.2
1 0 1.4
1 0 1.6
1 0 1.8
1 0 2
1 0.1 0
1 0.1 0.2
1 0.1 0.4
1 0.1 0.6
1 0.1 0.8
1 0.1 1
1 0.1 1.2
1 0.1 1.4
1 0.1 1.6
1 0.1 1.8
1 0.1 2
1 0.2 0
1 0.2 0.2
1 0.2 0.4
1 0.2 0.6
1 0.2 0.8
1 0.2 1
1 0.2 1.2
1 0.2 1.4
1 0.2 1.6
1 0.2 1.8
1 0.2 2
1 0.3 0
1 0.3 0.2
1 0.3 0.4
1 0.3 0.6
1 0.3 0.8
1 0.3 1
1 0.3 1.2
1 0.3 1.4
1 0.3 1.6
1 0.3 1.8
1 0.3 2
1 0.4 0
1 0.4 0.2
1 0.4 0.4
1 0.4 0.6
1 0.4 0.8
1 0.4 1
1 0.4 1.2
1 0.4 1.4
1 0.4 1.6
1 0.4 1.8
1 0.4 2
1 0.5 0
1 0.5 0.2
1 0.5 0.4
1 0.5 0.6
1 0.5 0.8
1 0.5 1
1 0.5 1.2
1 0.5 1.4
1 0.5 1.6
1 0.5 1.8
1 0.5 2
1 0.6 0
1 0.6 0.2
1 0.6 0.4
1 0.6 0.6
1 0.6 0.8
1 0.6 1
1 0.6 1.2
1 0.6 1.4
1 0.6 1.6
1 0.6 1.8
1 0.6 2
1 0.7 0
1 0.7 0.2
1 0.7 0.4
1 0.7 0.6
1 0.7 0.8
1 0.7 1
1 0.7 1.2
1 0.7 1.4
1 0.7 1.6
1 0.7 1.8
1 0.7 2
1 0.8 0
1 0.8 0.2
1 0.8 0.4
1 0.8 0.6
1 0.8 0.8
1 0.8 1
1 0.8 1.2
1 0.8 1.4
1 0.8 1.6
1 0.8 1.8
1 0.8 2
1 0.9 0
1 0.9 0.2
1 0.9 0.4
1 0.9 0.6
1 0.9 0.8
1 0.9 1
1 0.9 1.2
1 0.9 1.4
1 0.9 1.6
1 0.9 1.8
1 0.9 2
1 1 0
1 1 0.2
1 1 0.4
1 1 0.6
1 1 0.8
1 1 1
1 1 1.2
1 1 1.4
1 1 1.6
1 1 1.8
1 1 2
1.2 0 0
1.2 0 0.2
1.2 0 0.4
1.2 0 0.6
1.2 0 0.8
1.2 0 1
1.2 0 1.2
1.2 0 1.4
1.2 0 1.6
1.2 0 1.8
1.2 0 2
1.2 0.1 0
1.2 0.1 0.2
1.2 0.1 0.4
1.2 0.1 0.6
1.2 0.1 0.8
1.2 0.1 1
1.2 0.1 1.2
1.2 0.1 1.4
1.2 0.1 1.6
1.2 0.1 1.8
1.2 0.1 2
1.2 0.2 0
1.2 0.2 0.2
1.2 0.2 0.4
1.2 0.2 0.6
1.2 0.2 0.8
1.2 0.2 1
1.2 0.2 1.2
1.2 0.2 1.4
1.2 0.2 1.6
1.2 0.2 1.8
1.2 0.2 2
1.2 0.3 0
1.2 0.3 0.2
1.2 0.3 0.4
1.2 0.3 0.6
1.2 0.3 0.8
1.2 0.3 1
1.2 0.3 1.2
1.2 0.3 1.4
1.2 0.3 1.6
1.2 0.3 1.8
1.2 0.3 2
1.2 0.4 0
1.2 0.4 0.2
1.2 0.4 0.4
1.2 0.4 0.6
1.2 0.4 0.8
1.2 0.4 1
1.2 0.4 1.2
1.2 0.4 1.4
1.2 0.4 1.6
1.2 0.4 1.8
1.2 0.4 2
1.2 0.5 0
1.2 0.5 0.2
1.2 0.5 0.4
1.2 0.5 0.6
1.2 0.5 0.8
1.2 0.5 1
1.2 0.5 1.2
1.2 0.5 1.4
1.2 0.5 1.6
1.2 0.5 1.8
1.2 0.5 2
1.2 0.6 0
1.2 0.6 0.2
1.2 0.6 0.4
1.2 0.6 0.6
1.2 0.6 0.8
1.2 0.6 1
1.2 0.6 1.2
1.2 0.6 1.4
1.2 0.6 1.6
1.2 0.6 1.8
1.2 0.6 2
1.2 0.7 0
1.2 0.7 0.2
1.2 0.7 0.4
1.2 0.7 0.6
1.2 0.7 0.8
1.2 0.7 1
1.2 0.7 1.2
1.2 0.7 1.4
1.2 0.7 1.6
1.2 0.7 1.8
1.2 0.7 2
1.2 0.8 0
1.2 0.8 0.2
1.2 0.8 0.4
1.2 0.8 0.6
1.2 0.8 0.8
1.2 0.8 1
1.2 0.8 1.2
1.2 0.8 1.4
1.2 0.8 1.6
1.2 0.8 1.8
1.2 0.8 2
1.2 0.9 0
1.2 0.9 0.2
1.2 0.9 0.4
1.2 0.9 0.6
1.2 0.9 0.8
1.2 0.9 1
1.2 0.9 1.2
1.2 0.9 1.4
1.2 0.9 1.6
1.2 0.9 1.8
1.2 0.9 2
1.2 1 0
1.2 1 0.2
1.2 1 0.4
1.2 1 0.6
1.2 1 0.8
1.2 1 1
1.2 1 1.2
1.2 1 1.4
1.2 1 1.6
1.2 1 1.8
1.2 1 2
1.4 0 0
1.4 0 0.2
1.4 0 0.4
1.4 0 0.6
1.4 0 0.8
1.4 0 1
1.4 0 1.2
1.4 0 1.4
1.4 0 1.6
1.4 0 1.8
1.4 0 2
1.4 0.1 0
1.4 0.1 0.2
1.4 0.1 0.4
1.4 0.1 0.6
1.4 0.1 0.8
1.4 0.1 1
1.4 0.1 1.2
1.4 0.1 1.4
1.4 0.1 1.6
1.4 0.1 1.8
1.4 0.1 2
1.4 0.2 0
1.4 0.2 0.2
1.4 0.2 0.4
1.4 0.2 0.6
1.4 0.2 0.8
1.4 0.2 1
1.4 0.2 1.2
1.4 0.2 1.4
1.4 0.2 1.6
1.4 0.2 1.8
1.4 0.2 2
1.4 0.3 0
1.4 0.3 0.2
1.4 0.3 0.4
1.4 0.3 0.6
1.4 0.3 0.8
1.4 0.3 1
1.4 0.3 1.2
1.4 0.3 1.4
1.4 0.3 1.6
1.4 0.3 1.8
1.4 0.3 2
1.4 0.4 0
1.4 0.4 0.2
1.4 0.4 0.4
1.4 0.4 0.6
1.4 0.4 0.8
1.4 0.4 1
1.4 0.4 1.2
1.4 0.4 1.4
1.4 0.4 1.6
1.4 0.4 1.8
1.4 0.4 2
1.4 0.5 0
1.4 0.5 0.2
1.4 0.5 0.4
1.4 0.5 0.6
1.4 0.5 0.8
1.4 0.5 1
1.4 0.5 1.2
1.4 0.5 1.4
1.4 0.5 1.6
1.4 0.5 1.8
1.4 0.5 2
1.4 0.6 0
1.4 0.6 0.2
1.4 0.6 0.4
1.4 0.6 0.6
1.4 0.6 0.8
1.4 0.6 1
1.4 0.6 1.2
1.4 0.6 1.4
1.4 0.6 1.6
1.4 0.6 1.8
1.4 0.6 2
1.4 0.7 0
1.4 0.7 0.2
1.4 0.7 0.4
1.4 0.7 0.6
1.4 0.7 0.8
1.4 0.7 1
1.4 0.7 1.2
1.4 0.7 1.4
1.4 0.7 1.6
1.4 0.7 1.8
[...]
POINT_DATA 12342

SCALARS F double
LOOKUP_TABLE default
0
0
0
0
0
0
0
0
0
0
0
0
1
1
1
1
1
1
1
1
1
0
0
1
1
1
1
1
1
1
1
1
0
0
1
1
1
1
1
1
1
1
1
0
0
1
1
1
1
1
1
1
1
1
0
0
1
1
1
1
1
1
1
1
1
0
0
1
1
1
1
1
1
1
1
1
0
0
1
1
1
1
1
1
1
1
1
0
0
1
1
1
1
1
1
1
1
1
0
0
1
1
1
1
1
1
1
1
1
0
0
0
0
0
0
0
0
0
0
0
0
0
0
0
0
0
0
0
0
0
0
0
0
0.730657
-1.85649
-4.10183
9.08343
4.39008
2.04967
2.00077
1.37777
0.529681
0
0
0.770068
-1.8834
-4.5126
9.38208
4.73967
2.26454
2.25005
1.52896
0.556965
0
0
0.772141
-1.88877
-4.53409
9.41915
4.74083
2.26304
2.24741
1.52746
0.557013
0
0
0.773315
-1.89039
-4.53999
9.43258
4.73478
2.25788
2.2415
1.52412
0.556437
0
0
0.773717
-1.89072
-4.54233
9.43666
4.73462
2.25759
2.24117
1.52422
0.556502
0
0
0.773424
-1.89035
-4.5423
9.43475
4.74147
2.26255
2.24616
1.52745
0.557356
0
0
0.772472
-1.8898
-4.5432
9.43002
4.75915
2.27461
2.25803
1.53448
0.559075
0
0
0.770631
-1.88769
-4.53724
9.41341
4.7781
2.28603
2.26706
1.53862
0.560443
0
0
0.733597
-1.83357
-4.11227
9.03017
4.39508
2.05523
2.00656
1.37974
0.530838
0
0
0
0
0
0
0
0
0
0
0
0
0
0
0
0
0
0
0
0
0
0
0
0
0.914947
-3.95817
-4.40431
16.4061
5.49443
1.99844
1.75517
1.5854
0.853484
0
0
0.980777
-4.03502
-4.97987
16.9255
5.9839
2.31005
2.09865
1.79187
0.899638
0
0
0.983557
-4.04375
-5.01544
16.9795
5.99254
2.31487
2.10534
1.79734
0.900756
0
0
0.985041
-4.0472
-5.02755
17.002
5.98834
2.31096
2.10126
1.79567
0.900507
0
0
0.985507
-4.04814
-5.03223
17.0098
5.99031
2.31173
2.10162
1.79602
0.900682
0
0
0.984957
-4.04661
-5.03056
17.0051
5.99963
2.31782
2.10688
1.79861
0.901391
0
0
0.983362
-4.04274
-5.02324
16.9886
6.01756
2.32956
2.11709
1.80329
0.902559
0
0
0.980313
-4.03268
-4.99262
16.9405
6.02242
2.33128
2.11466
1.79931
0.902112
0
0
0.919297
-3.91037
-4.41851
16.3071
5.49271
2.00002
1.75681
1.58042
0.851748
0
0
0
0
0
0
0
0
0
0
0
0
0
0
0
0
0
0
0
0
0
0
0
0
0.726222
-4.68743
0.273919
18.1702
6.386
2.24364
1.6723
1.78627
1.25133
0
0
0.806087
-4.83679
-0.123855
18.7383
6.87476
2.58371
2.02066
2.00479
1.32231
0
0
0.809012
-4.84928
-0.147405
18.7849
6.88844
2.5934
2.03282
2.01368
1.32446
0
0
0.810454
-4.85382
-0.154662
18.8028
6.88743
2.59175
2.03168
2.01369
1.32434
0
0
0.810879
-4.85466
-0.157109
18.8086
6.88992
2.59302
2.03254
2.0142
1.3245
0
0
0.810318
-4.85158
-0.155228
18.8032
6.89653
2.59767
2.03598
2.01554
1.325
0
0
0.808722
-4.84438
-0.148583
18.7856
6.90676
2.6051
2.04136
2.01733
1.32571
0
0
0.805601
-4.82747
-0.124869
18.7348
6.89878
2.59828
2.0309
2.00871
1.32372
0
0
0.733405
-4.63459
0.242574
18.0589
6.37064
2.23793
1.66644
1.77521
1.24622
0
0
0
0
0
0
0
0
0
0
0
0
0
0
0
0
0
0
0
0
0
0
0
0
0.299266
-3.39872
5.58648
16.9574
7.05977
2.74706
1.82534
2.00804
1.65224
0
0
0.374922
-3.57459
5.44543
17.4807
7.51184
3.09332
2.15793
2.22839
1.74951
0
0
0.377084
-3.58911
5.43676
17.5159
7.52673
3.10516
2.17117
2.23799
1.75272
0
0
0.37815
-3.5941
5.4346
17.5277
7.52714
3.10473
2.17127
2.23858
1.75269
0
0
0.378524
-3.59475
5.43392
17.5311
7.52904
3.1059
2.17213
2.23906
1.7528
0
0
0.378289
-3.591
5.43425
17.5266
7.53281
3.109
2.1742
2.23971
1.75314
0
0
0.377396
-3.58258
5.43568
17.5131
7.53777
3.11336
2.17684
2.24016
1.75355
0
0
0.375523
-3.56351
5.44256
17.4724
7.52508
3.10265
2.16393
2.23014
1.75017
0
0
0.310155
-3.35829
5.53073
16.8559
7.03248
2.7343
1.8141
1.99332
1.64354
0
0
0
0
0
0
0
0
0
0
0
0
0
0
0
0
0
0
0
0
0
0
0
0
0.0383833
-0.497295
9.19691
14.9217
7.45553
3.34862
2.15045
2.27103
2.04472
0
0
0.0972677
-0.630088
9.25571
15.3797
7.87056
3.6928
2.46594
2.49247
2.16731
0
0
0.0978101
-0.642778
9.25759
15.4051
7.88495
3.70523
2.47868
2.50195
2.17154
0
0
0.0981811
-0.647191
9.25832
15.4122
7.88573
3.70529
2.47907
2.50259
2.17158
0
0
0.0984449
-0.647765
9.25828
15.4141
7.88699
3.70621
2.47977
2.50298
2.17167
0
0
0.0987051
-0.644585
9.25724
15.411
7.88906
3.70828
2.48111
2.50337
2.17191
0
0
0.0989361
-0.637469
9.25498
15.4023
7.89141
3.71095
2.4826
2.5034
2.17213
0
0
0.0992138
-0.621638
9.25015
15.3728
7.87769
3.69886
2.46963
2.49327
2.16753
0
0
0.0511079
-0.480363
9.12748
14.8338
7.42029
3.33001
2.13536
2.254
2.03261
0
0
0
0
0
0
0
0
0
0
0
0
0
0
0
0
0
0
0
0
0
0
0
0
0.30491
2.87983
10.9056
13.0672
7.61968
3.93019
2.57675
2.58291
2.42731
0
0
0.348293
2.83506
11.0849
13.4709
8.00442
4.26759
2.87794
2.80665
2.57282
0
0
0.347108
2.82687
11.092
13.4896
8.01791
4.27993
2.88989
2.81587
2.57795
0
0
0.346698
2.82372
11.0937
13.4938
8.01873
4.28019
2.8903
2.81644
2.57806
0
0
0.346787
2.82321
11.0939
13.4948
8.01958
4.2809
2.89084
2.81677
2.57815
0
0
0.347463
2.82525
11.0924
13.493
8.02077
4.28236
2.89184
2.81707
2.57835
0
0
0.348735
2.82993
11.0891
13.4878
8.0219
4.28411
2.89285
2.81704
2.57846
0
0
0.351036
2.83966
11.0791
13.4663
8.00831
4.2717
2.88048
2.80712
2.57284
0
0
0.315365
2.87179
10.8331
12.9911
7.5799
3.90703
2.55857
2.56405
2.4122
0
0
0
0
0
0
0
0
0
0
0
0
0
0
0
0
0
0
0
0
0
0
0
0
1.18855
5.78094
11.3636
11.646
7.63075
4.43519
3.04978
2.93325
2.80114
0
0
1.22986
5.83222
11.6055
12.0119
7.99163
4.76308
3.3397
3.16093
2.96645
0
0
1.22763
5.82897
11.6144
12.0265
8.00425
4.77504
3.3509
3.16997
2.97234
0
0
1.22664
5.82716
11.6161
12.029
8.00503
4.7754
3.35128
3.17049
2.97251
0
0
1.22654
5.82679
11.6163
12.0296
8.00565
4.77597
3.35173
3.17077
2.97262
0
0
1.22741
5.8278
11.6151
12.0286
8.00642
4.77706
3.35255
3.17105
2.97281
0
0
1.22929
5.83022
11.6121
12.0257
8.00696
4.77828
3.35335
3.17103
2.97288
0
0
1.2326
5.83381
11.6008
12.009
7.99386
4.76604
3.34171
3.16128
2.96645
0
0
1.19229
5.75311
11.2936
11.5789
7.58885
4.40863
3.02902
2.91257
2.78348
0
0
0
0
0
0
0
0
0
0
0
0
0
0
0
0
0
0
0
0
0
0
0
0
2.5198
7.82495
11.2023
10.6127
7.55908
4.85258
3.52582
3.30964
3.16626
0
0
2.57631
7.95712
11.4738
10.9535
7.90098
5.16999
3.80755
3.54208
3.34821
0
0
2.57408
7.95794
11.4829
10.9658
7.91286
5.18146
3.81817
3.55101
3.35469
0
0
2.57283
7.95716
11.4843
10.9674
7.91359
5.18187
3.81855
3.55148
3.35493
0
0
2.57261
7.95694
11.4845
10.9678
7.91409
5.18237
3.81895
3.55175
3.35506
0
0
2.57345
7.9573
11.4837
10.9673
7.91464
5.18323
3.81964
3.55205
3.35527
0
0
2.57541
7.95817
11.4815
10.9656
7.91492
5.18412
3.8203
3.55209
3.35533
0
0
2.57844
7.95694
11.4704
10.9518
7.90241
5.17227
3.80921
3.54249
3.34829
0
0
2.51385
7.78433
11.1368
10.5521
7.51662
4.82356
3.50269
3.28734
3.14645
0
0
0
0
0
0
0
0
0
0
0
0
0
0
0
0
0
0
0
0
0
0
0
0
4.02673
9.04999
10.8035
9.86078
7.4555
5.19341
3.97755
3.69602
3.52076
0
0
4.11215
9.2411
11.0878
10.185
7.7821
5.50072
4.25355
3.93362
3.71646
0
0
4.11086
9.24476
11.0968
10.1959
7.79333
5.5117
4.26372
3.94252
3.7234
0
0
4.10965
9.24462
11.0978
10.197
7.79401
5.51214
4.26411
3.94298
3.72367
0
0
4.10937
9.24453
11.098
10.1973
7.79444
5.51258
4.26448
3.94325
3.72384
0
0
4.11006
9.24457
11.0975
10.1972
7.7949
5.5133
4.26509
3.94356
3.72408
0
0
4.11172
9.24461
11.096
10.1962
7.79506
5.51397
4.26564
3.94364
3.72416
0
0
4.11341
9.24017
11.0855
10.184
7.78317
5.50258
4.25502
3.93411
3.71667
0
0
4.01025
9.00249
10.7427
9.80522
7.41342
5.16271
3.95244
3.67215
3.49918
0
0
0
0
0
0
0
0
0
0
0
0
0
0
0
0
0
0
0
0
0
0
0
0
5.47222
9.65843
10.3501
9.30195
7.35161
5.47455
4.39245
4.07444
3.86137
0
0
5.59372
9.88868
10.6392
9.61455
7.66582
5.77298
4.66465
4.31706
4.06835
0
0
5.59392
9.89413
10.6479
9.62472
7.67649
5.78349
4.67448
4.32597
4.07564
0
0
5.59297
9.89434
10.6487
9.62556
7.67713
5.78395
4.67488
4.32642
4.07595
0
0
5.5927
9.89435
10.6489
9.62585
7.67752
5.78436
4.67523
4.3267
4.07615
0
0
5.59316
9.89429
10.6486
9.62585
7.67793
5.78499
4.67579
4.32703
4.07642
0
0
5.59433
9.89398
10.6477
9.62526
7.67805
5.78551
4.67626
4.32713
4.07652
0
0
5.5941
9.88763
10.6377
9.61407
7.66674
5.77457
4.66598
4.31765
4.06872
0
0
5.44607
9.60813
10.2936
9.25039
7.3104
5.44276
4.36572
4.04918
3.83833
0
0
0
0
0
0
0
0
0
0
0
0
0
0
0
0
0
0
0
0
0
0
0
0
6.70964
9.8613
9.91614
8.87677
7.26366
5.71047
4.76464
4.43315
4.1834
0
0
6.86839
10.1159
10.2062
9.18083
7.5679
6.00158
5.03445
4.68034
4.39965
0
0
6.87031
10.1224
10.2148
9.19052
7.57811
6.01169
5.04403
4.68925
4.4072
0
0
6.8697
10.1227
10.2155
9.19123
7.57871
6.01216
5.04445
4.68972
4.40754
0
0
6.86948
10.1228
10.2157
9.19151
7.57908
6.01255
5.04479
4.69002
4.40777
0
0
6.86973
10.1228
10.2156
9.19161
7.57947
6.01311
5.04531
4.69036
4.40807
0
0
6.87039
10.1224
10.215
9.19126
7.57959
6.01353
5.0457
4.69047
4.4082
0
0
6.86808
10.115
10.2054
9.18071
7.56879
6.00301
5.0357
4.68102
4.40019
0
0
6.67568
9.81073
9.86341
8.82852
7.22356
5.67807
4.73667
4.40672
4.1592
0
0
0
0
0
0
0
0
0
0
0
0
0
0
0
0
0
0
0
0
0
0
0
0
7.67866
9.82206
9.52625
8.54737
7.19718
5.91146
5.09293
4.76387
4.48378
0
0
7.87186
10.0908
9.81565
8.84488
7.49354
6.19682
5.36135
5.01511
4.70755
0
0
7.87545
10.098
9.82413
8.85426
7.50337
6.2066
5.37074
5.02405
4.71529
0
0
7.87518
10.0984
9.82471
8.85488
7.50395
6.20709
5.37118
5.02454
4.71566
0
0
7.87504
10.0985
9.82492
8.85517
7.5043
6.20746
5.37152
5.02484
4.71591
0
0
7.87512
10.0985
9.82496
8.85534
7.50468
6.20797
5.372
5.02519
4.71624
0
0
7.87532
10.0982
9.82459
8.85514
7.50481
6.20833
5.37234
5.0253
4.7164
0
0
7.87108
10.0903
9.81528
8.84504
7.49445
6.19815
5.36256
5.01587
4.70825
0
0
7.63905
9.77269
9.47685
8.50198
7.15832
5.87882
5.0641
4.73653
4.45873
0
0
0
0
0
0
0
0
0
0
0
0
0
0
0
0
0
0
0
0
0
0
0
0
8.37844
9.65108
9.1849
8.28893
7.15132
6.08416
5.37905
5.06241
4.76025
0
0
8.60122
9.92762
9.47289
8.58128
7.44154
6.36518
5.64677
5.31714
4.99008
0
0
8.60629
9.93509
9.48132
8.59044
7.45107
6.3747
5.65601
5.3261
4.99796
0
0
8.60633
9.93549
9.48185
8.59102
7.45163
6.37519
5.65647
5.32661
4.99835
0
0
8.60627
9.93565
9.48208
8.59131
7.45198
6.37556
5.65681
5.32693
4.99862
0
0
8.60624
9.93576
9.48221
8.59154
7.45236
6.37604
5.65727
5.32729
4.99898
0
0
8.60608
9.9356
9.48199
8.59144
7.45249
6.37634
5.65757
5.3274
4.99918
0
0
8.60018
9.92746
9.47286
8.58166
7.44249
6.36645
5.64796
5.31799
4.99094
0
0
8.33527
9.60369
9.13851
8.24608
7.11372
6.05159
5.3497
5.03447
4.73462
0
0
0
0
0
0
0
0
0
0
0
0
0
0
0
0
0
0
0
0
0
0
0
0
8.8406
9.4171
8.88903
8.08397
7.12207
6.23274
5.6261
5.32791
5.01152
0
0
9.08746
9.69743
9.17533
8.37222
7.4076
6.5106
5.89357
5.5856
5.24623
0
0
9.09378
9.70509
9.18376
8.38122
7.4169
6.51991
5.9027
5.59457
5.2542
0
0
9.09406
9.70547
9.18427
8.38178
7.41745
6.52042
5.90318
5.5951
5.25461
0
0
9.09408
9.70566
9.18451
8.38208
7.41779
6.52078
5.90353
5.59544
5.2549
0
0
9.09398
9.70586
9.1847
8.38234
7.41817
6.52123
5.90397
5.59579
5.25528
0
0
9.09358
9.70583
9.1846
8.38231
7.41832
6.52151
5.90424
5.59591
5.25551
0
0
9.08635
9.6976
9.17558
8.37279
7.4086
6.51185
5.89477
5.58653
5.24724
0
0
8.79563
9.37207
8.84539
8.04342
7.08578
6.2005
5.59656
5.29966
4.98558
0
0
0
0
0
0
0
0
0
0
0
0
0
0
0
0
0
0
0
0
0
0
0
0
9.10963
9.16045
8.63301
7.91939
7.10452
6.36
5.83779
5.56138
5.2375
0
0
9.37529
9.44222
8.91761
8.20438
7.38653
6.63562
6.10532
5.82152
5.47613
0
0
9.38261
9.45001
8.92604
8.21326
7.39566
6.64478
6.11436
5.8305
5.48416
0
0
9.38308
9.45037
8.92655
8.21381
7.3962
6.6453
6.11486
5.83105
5.48459
0
0
9.38317
9.45059
8.92682
8.21413
7.39655
6.64566
6.11521
5.8314
5.4849
0
0
9.38304
9.45085
8.92705
8.21442
7.39693
6.6461
6.11564
5.83176
5.4853
0
0
9.3825
9.45094
8.92702
8.21444
7.39708
6.64634
6.11589
5.83188
5.48555
0
0
9.37424
9.44271
8.91809
8.2051
7.38759
6.63688
6.10654
5.82255
5.47727
0
0
9.06428
9.11796
8.59194
7.88097
7.06957
6.32831
5.80836
5.53309
5.21151
0
0
0
0
0
0
0
0
0
0
0
0
0
0
0
0
0
0
0
0
0
0
0
0
9.23108
8.9036
8.41076
7.78503
7.09409
6.46804
6.018
5.76489
5.43897
0
0
9.51088
9.18548
8.69375
8.06744
7.37349
6.74213
6.28577
6.02706
5.68075
0
0
9.51897
9.19335
8.70221
8.07625
7.38249
6.75117
6.29475
6.03603
5.68882
0
0
9.51958
9.1937
8.70272
8.0768
7.38304
6.7517
6.29527
6.0366
5.68927
0
0
9.51974
9.19395
8.703
8.07712
7.38339
6.75207
6.29562
6.03697
5.6896
0
0
9.51961
9.19428
8.70328
8.07744
7.38377
6.75249
6.29605
6.03734
5.69002
0
0
9.51899
9.19446
8.70329
8.07749
7.38393
6.75273
6.29628
6.03746
5.69028
0
0
9.50998
9.18625
8.69443
8.06831
7.37462
6.74342
6.28704
6.02818
5.68202
0
0
9.1864
8.86369
8.37211
7.74864
7.06052
6.43711
5.98894
5.73683
5.41316
0
0
0
0
0
0
0
0
0
0
0
0
0
0
0
0
0
0
0
0
0
0
0
0
9.24556
8.6583
8.21663
7.67303
7.08708
6.55868
6.17047
5.94101
5.61727
0
0
9.5356
8.93957
8.49816
7.95342
7.36457
6.83175
6.43859
6.20485
5.8616
0
0
9.54426
8.94751
8.50664
7.96217
7.37348
6.84071
6.44752
6.21382
5.8697
0
0
9.54497
8.94786
8.50716
7.96273
7.37403
6.84125
6.44806
6.21441
5.87016
0
0
9.54518
8.94812
8.50747
7.96306
7.37439
6.84162
6.44842
6.21479
5.87051
0
0
9.54508
8.9485
8.50777
7.9634
7.37478
6.84205
6.44885
6.21517
5.87094
0
0
9.54444
8.94877
8.50783
7.96349
7.37495
6.84227
6.44907
6.21529
5.87122
0
0
9.53492
8.94058
8.49901
7.95442
7.36578
6.83309
6.43992
6.20607
5.86299
0
0
9.20228
8.62095
8.18031
7.63862
7.05495
6.52867
6.14202
5.91342
5.59186
0
0
0
0
0
0
0
0
0
0
0
0
0
0
0
0
0
0
0
0
0
0
0
0
9.18639
8.43006
8.04574
7.57742
7.08077
6.63361
6.29869
6.09248
5.77404
0
0
9.48342
8.71034
8.32597
7.85621
7.35688
6.90604
6.56721
6.35771
6.02046
0
0
9.49249
8.71834
8.33448
7.86494
7.36573
6.91494
6.57611
6.36667
6.02858
0
0
9.49327
8.71869
8.33501
7.8655
7.36629
6.91549
6.57666
6.36728
6.02906
0
0
9.49353
8.71897
8.33534
7.86585
7.36666
6.91587
6.57703
6.36767
6.02942
0
0
9.49347
8.7194
8.33567
7.8662
7.36705
6.91629
6.57746
6.36805
6.02987
0
0
9.49285
8.71973
8.33576
7.86631
7.36723
6.91651
6.57768
6.36819
6.03016
0
0
9.48299
8.71158
8.32699
7.85735
7.35818
6.90744
6.56862
6.35903
6.02197
0
0
9.14501
8.39522
8.01169
7.54494
7.05014
6.60469
6.27104
6.06558
5.74923
0
0
0
0
0
0
0
0
0
0
0
0
0
0
0
0
0
0
0
0
0
0
0
0
9.0663
8.22245
7.89437
7.49386
7.07342
6.69448
6.40579
6.22198
5.91108
0
0
9.367
8.50161
8.17344
7.7714
7.34853
6.96653
6.67474
6.48835
6.15923
0
0
9.37631
8.50966
8.18198
7.78011
7.35735
6.97539
6.68361
6.49731
6.16737
0
0
9.37711
8.51002
8.18253
7.78068
7.35791
6.97596
6.68417
6.49793
6.16786
0
0
9.37742
8.51033
8.18288
7.78104
7.35829
6.97634
6.68456
6.49833
6.16823
0
0
9.37745
8.51079
8.18323
7.78141
7.3587
6.97677
6.68499
6.49873
6.16869
0
0
9.37695
8.51117
8.18335
7.78154
7.35888
6.97699
6.68521
6.49887
6.169
0
0
9.36701
8.50304
8.17462
7.77266
7.34993
6.96801
6.67623
6.48978
6.16086
0
0
9.02743
8.19005
7.86253
7.4633
7.04436
6.66679
6.37914
6.19596
5.88706
0
0
0
0
0
0
0
0
0
0
0
0
0
0
0
0
0
0
0
0
0
0
0
0
8.88605
8.03648
7.75877
7.41908
7.06398
6.74288
6.49456
6.33201
6.03018
0
0
9.18771
8.31461
8.0368
7.69563
7.33838
7.01473
6.76394
6.59935
6.2798
0
0
9.19719
8.32272
8.04538
7.70434
7.34717
7.02357
6.77279
6.6083
6.28794
0
0
9.19803
8.3231
8.04594
7.70492
7.34775
7.02415
6.77337
6.60893
6.28845
0
0
9.19838
8.32343
8.04631
7.7053
7.34814
7.02454
6.77377
6.60935
6.28884
0
0
9.19846
8.32391
8.04668
7.70569
7.34855
7.02498
6.7742
6.60975
6.28931
0
0
9.19802
8.32432
8.04683
7.70584
7.34874
7.0252
6.77443
6.6099
6.28963
0
0
9.18801
8.31621
8.03814
7.69702
7.33988
7.0163
6.76552
6.60088
6.28154
0
0
8.84974
8.00645
7.72912
7.39046
7.03655
6.71655
6.46908
6.30704
6.00711
0
0
0
0
0
0
0
0
0
0
0
0
0
0
0
0
0
0
0
0
0
0
0
0
8.70086
7.87003
7.63626
7.35084
7.05197
6.78033
6.56749
6.42482
6.13314
0
0
9.00258
8.14721
7.91337
7.6266
7.32585
7.05211
6.83729
6.69298
6.38402
0
0
9.01217
8.15537
7.92198
7.63531
7.33463
7.06093
6.84613
6.70192
6.39217
0
0
9.01303
8.15577
7.92256
7.63591
7.33523
7.06152
6.84672
6.70257
6.39269
0
0
9.01342
8.15612
7.92294
7.6363
7.33563
7.06193
6.84713
6.703
6.39309
0
0
9.01354
8.15663
7.92334
7.6367
7.33605
7.06237
6.84758
6.70341
6.39358
0
0
9.01315
8.15707
7.92351
7.63687
7.33626
7.0626
6.84781
6.70357
6.39391
0
0
9.00314
8.14897
7.91486
7.62812
7.32746
7.05378
6.83897
6.69462
6.38586
0
0
8.66716
7.84232
7.60878
7.32416
7.02623
6.75548
6.54332
6.40106
6.11117
0
0
0
0
0
0
0
0
0
0
0
0
0
0
0
0
0
0
0
0
0
0
0
0
8.52054
7.71841
7.52556
7.28762
7.03731
6.80828
6.62674
6.50253
6.22158
0
0
8.82174
7.9947
7.80187
7.56275
7.31084
7.08007
6.89694
6.7714
6.47358
0
0
8.83141
8.00291
7.81051
7.57147
7.31961
7.08888
6.90577
6.78033
6.48174
0
0
8.83229
8.00333
7.8111
7.57208
7.32022
7.08949
6.90638
6.781
6.48228
0
0
8.8327
8.0037
7.8115
7.57248
7.32064
7.08991
6.9068
6.78143
6.48269
0
0
8.83287
8.00423
7.81192
7.5729
7.32107
7.09036
6.90726
6.78186
6.48319
0
0
8.83254
8.00469
7.81212
7.57309
7.32129
7.0906
6.90749
6.78203
6.48353
0
0
8.82255
7.99662
7.80351
7.5644
7.31256
7.08185
6.89872
6.77314
6.47553
0
0
8.48947
7.69299
7.50022
7.2629
7.01333
6.785
6.60399
6.48012
6.20086
0
0
0
0
0
0
0
0
0
0
0
0
0
0
0
0
0
0
0
0
0
0
0
0
8.34897
7.57997
7.42604
7.22842
7.02021
6.82809
6.67422
6.56685
6.29724
0
0
8.64929
7.85541
7.70169
7.50303
7.29349
7.09995
6.94481
6.83633
6.55026
0
0
8.659
7.86368
7.71035
7.51177
7.30227
7.10876
6.95365
6.84526
6.55843
0
0
8.65989
7.86411
7.71096
7.51239
7.30289
7.10938
6.95427
6.84594
6.55898
0
0
8.66033
7.8645
7.71138
7.51281
7.30332
7.10981
6.9547
6.84639
6.55941
0
0
8.66054
7.86505
7.71182
7.51325
7.30377
7.11027
6.95516
6.84683
6.55991
0
0
8.66027
7.86554
7.71203
7.51346
7.304
7.11052
6.95541
6.84701
6.56026
0
0
8.65034
7.85749
7.70347
7.50482
7.29533
7.10183
6.9467
6.83819
6.55231
0
0
8.32053
7.55682
7.40283
7.20569
6.99805
6.80647
6.65303
6.54592
6.27788
0
0
0
0
0
0
0
0
0
0
0
0
0
0
0
0
0
0
0
0
0
0
0
0
8.1879
7.4547
7.33565
7.17302
7.00105
6.841
6.71163
6.61969
6.36141
0
0
8.4871
7.72937
7.61072
7.44722
7.27417
7.11297
6.98259
6.88972
6.61536
0
0
8.49683
7.73768
7.61942
7.45597
7.28296
7.12179
6.99142
6.89865
6.62354
0
0
8.49773
7.73814
7.62004
7.45661
7.28359
7.12242
6.99206
6.89934
6.62411
0
0
8.49819
7.73855
7.62048
7.45705
7.28403
7.12287
6.99251
6.8998
6.62455
0
0
8.49844
7.73911
7.62093
7.4575
7.2845
7.12334
6.99298
6.90025
6.62506
0
0
8.49822
7.73962
7.62117
7.45772
7.28474
7.12359
6.99324
6.90045
6.62542
0
0
8.48837
7.73159
7.61265
7.44914
7.27613
7.11497
6.98459
6.89169
6.61752
0
0
8.16206
7.43378
7.31458
7.15229
6.98076
6.82113
6.69208
6.60034
6.34353
0
0
0
0
0
0
0
0
0
0
0
0
0
0
0
0
0
0
0
0
0
0
0
0
8.03801
7.34257
7.25232
7.12143
6.98038
6.84819
6.74042
6.66266
6.41541
0
0
8.33594
7.61658
7.52688
7.39532
7.2534
7.12029
7.01174
6.9332
6.67022
0
0
8.34569
7.62493
7.5356
7.40409
7.2622
7.12911
7.02058
6.94213
6.67842
0
0
8.3466
7.6254
7.53625
7.40474
7.26285
7.12976
7.02123
6.94283
6.67901
0
0
8.34708
7.62583
7.53669
7.40519
7.2633
7.13022
7.02169
6.94331
6.67946
0
0
8.34736
7.62642
7.53717
7.40566
7.26378
7.1307
7.02217
6.94377
6.67998
0
0
8.34719
7.62693
7.53742
7.4059
7.26404
7.13097
7.02244
6.94398
6.68035
0
0
8.33743
7.61894
7.52895
7.39737
7.25549
7.1224
7.01386
6.93529
6.67249
0
0
8.01475
7.32387
7.23337
7.10273
6.96201
6.83012
6.72261
6.645
6.3991
0
0
0
0
0
0
0
0
0
0
0
0
0
0
0
0
0
0
0
0
0
0
0
0
7.89932
7.24236
7.17604
7.07301
6.95879
6.8507
6.76197
6.69714
6.46054
0
0
8.19591
7.5158
7.45017
7.34665
7.23176
7.12297
7.03363
6.96815
6.71617
0
0
8.20565
7.52419
7.45892
7.35544
7.24057
7.1318
7.04248
6.97709
6.72439
0
0
8.20657
7.52469
7.45958
7.35611
7.24123
7.13246
7.04314
6.97781
6.72499
0
0
8.20707
7.52513
7.46004
7.35657
7.2417
7.13293
7.04361
6.97829
6.72545
0
0
8.20738
7.52573
7.46053
7.35705
7.24219
7.13343
7.04411
6.97877
6.72598
0
0
8.20727
7.52626
7.46081
7.35731
7.24246
7.13371
7.04439
6.97899
6.72636
0
0
8.1976
7.51829
7.45238
7.34884
7.23397
7.1252
7.03586
6.97036
6.71855
0
0
7.87861
7.22584
7.15923
7.05635
6.94237
6.83452
6.74596
6.68125
6.4459
0
0
0
0
0
0
0
0
0
0
0
0
0
0
0
0
0
0
0
0
0
0
0
0
7.77146
7.15294
7.10682
7.02715
6.93673
6.84955
6.77758
6.72433
6.49802
0
0
8.06666
7.4259
7.38061
7.30062
7.2097
7.122
7.04958
6.9958
6.75444
0
0
8.07639
7.43434
7.38938
7.30942
7.21853
7.13084
7.05844
7.00474
6.76267
0
0
8.07731
7.43485
7.39005
7.3101
7.21921
7.13152
7.05912
7.00547
6.76328
0
0
8.07783
7.43531
7.39053
7.31058
7.21969
7.132
7.05961
7.00597
6.76376
0
0
8.07818
7.43593
7.39104
7.31108
7.22019
7.13251
7.06011
7.00645
6.7643
0
0
8.07811
7.43647
7.39133
7.31136
7.22048
7.1328
7.06041
7.00669
6.76469
0
0
8.06855
7.42853
7.38295
7.30293
7.21204
7.12435
7.05194
6.99813
6.75692
0
0
7.75327
7.13859
7.09215
7.01257
6.92231
6.8353
6.76346
6.71029
6.48513
0
0
0
0
0
0
0
0
0
0
0
0
0
0
0
0
0
0
0
0
0
0
0
0
7.65381
7.07326
7.04415
6.98446
6.91431
6.84551
6.78832
6.7453
6.52897
0
0
7.94762