# vtk DataFile Version 2.0
FlowField
ASCII
DATASET STRUCTURED_GRID
DIMENSIONS 62 47 32 
POINTS 93248 double
0 0 0
0.01 0 0
0.02 0 0
0.03 0 0
0.04 0 0
0.05 0 0
0.06 0 0
0.07 0 0
0.08 0 0
0.09 0 0
0.1 0 0
0.11 0 0
0.12 0 0
0.13 0 0
0.14 0 0
0.15 0 0
0.16 0 0
0.17 0 0
0.18 0 0
0.19 0 0
0.2 0 0
0.21 0 0
0.22 0 0
0.23 0 0
0.24 0 0
0.25 0 0
0.26 0 0
0.27 0 0
0.28 0 0
0.29 0 0
0.3 0 0
0.31 0 0
0.32 0 0
0.33 0 0
0.34 0 0
0.35 0 0
0.36 0 0
0.37 0 0
0.38 0 0
0.39 0 0
0.4 0 0
0.41 0 0
0.42 0 0
0.43 0 0
0.44 0 0
0.45 0 0
0.46 0 0
0.47 0 0
0.48 0 0
0.49 0 0
0.5 0 0
0.51 0 0
0.52 0 0
0.53 0 0
0.54 0 0
0.55 0 0
0.56 0 0
0.57 0 0
0.58 0 0
0.59 0 0
0.6 0 0
0.61 0 0
0 0.01 0
0.01 0.01 0
0.02 0.01 0
0.03 0.01 0
0.04 0.01 0
0.05 0.01 0
0.06 0.01 0
0.07 0.01 0
0.08 0.01 0
0.09 0.01 0
0.1 0.01 0
0.11 0.01 0
0.12 0.01 0
0.13 0.01 0
0.14 0.01 0
0.15 0.01 0
0.16 0.01 0
0.17 0.01 0
0.18 0.01 0
0.19 0.01 0
0.2 0.01 0
0.21 0.01 0
0.22 0.01 0
0.23 0.01 0
0.24 0.01 0
0.25 0.01 0
0.26 0.01 0
0.27 0.01 0
0.28 0.01 0
0.29 0.01 0
0.3 0.01 0
0.31 0.01 0
0.32 0.01 0
0.33 0.01 0
0.34 0.01 0
0.35 0.01 0
0.36 0.01 0
0.37 0.01 0
0.38 0.01 0
0.39 0.01 0
0.4 0.01 0
0.41 0.01 0
0.42 0.01 0
0.43 0.01 0
0.44 0.01 0
0.45 0.01 0
0.46 0.01 0
0.47 0.01 0
0.48 0.01 0
0.49 0.01 0
0.5 0.01 0
0.51 0.01 0
0.52 0.01 0
0.53 0.01 0
0.54 0.01 0
0.55 0.01 0
0.56 0.01 0
0.57 0.01 0
0.58 0.01 0
0.59 0.01 0
0.6 0.01 0
0.61 0.01 0
0 0.02 0
0.01 0.02 0
0.02 0.02 0
0.03 0.02 0
0.04 0.02 0
0.05 0.02 0
0.06 0.02 0
0.07 0.02 0
0.08 0.02 0
0.09 0.02 0
0.1 0.02 0
0.11 0.02 0
0.12 0.02 0
0.13 0.02 0
0.14 0.02 0
0.15 0.02 0
0.16 0.02 0
0.17 0.02 0
0.18 0.02 0
0.19 0.02 0
0.2 0.02 0
0.21 0.02 0
0.22 0.02 0
0.23 0.02 0
0.24 0.02 0
0.25 0.02 0
0.26 0.02 0
0.27 0.02 0
0.28 0.02 0
0.29 0.02 0
0.3 0.02 0
0.31 0.02 0
0.32 0.02 0
0.33 0.02 0
0.34 0.02 0
0.35 0.02 0
0.36 0.02 0
0.37 0.02 0
0.38 0.02 0
0.39 0.02 0
0.4 0.02 0
0.41 0.02 0
0.42 0.02 0
0.43 0.02 0
0.44 0.02 0
0.45 0.02 0
0.46 0.02 0
0.47 0.02 0
0.48 0.02 0
0.49 0.02 0
0.5 0.02 0
0.51 0.02 0
0.52 0.02 0
0.53 0.02 0
0.54 0.02 0
0.55 0.02 0
0.56 0.02 0
0.57 0.02 0
0.58 0.02 0
0.59 0.02 0
0.6 0.02 0
0.61 0.02 0
0 0.03 0
0.01 0.03 0
0.02 0.03 0
0.03 0.03 0
0.04 0.03 0
0.05 0.03 0
0.06 0.03 0
0.07 0.03 0
0.08 0.03 0
0.09 0.03 0
0.1 0.03 0
0.11 0.03 0
0.12 0.03 0
0.13 0.03 0
0.14 0.03 0
0.15 0.03 0
0.16 0.03 0
0.17 0.03 0
0.18 0.03 0
0.19 0.03 0
0.2 0.03 0
0.21 0.03 0
0.22 0.03 0
0.23 0.03 0
0.24 0.03 0
0.25 0.03 0
0.26 0.03 0
0.27 0.03 0
0.28 0.03 0
0.29 0.03 0
0.3 0.03 0
0.31 0.03 0
0.32 0.03 0
0.33 0.03 0
0.34 0.03 0
0.35 0.03 0
0.36 0.03 0
0.37 0.03 0
0.38 0.03 0
0.39 0.03 0
0.4 0.03 0
0.41 0.03 0
0.42 0.03 0
0.43 0.03 0
0.44 0.03 0
0.45 0.03 0
0.46 0.03 0
0.47 0.03 0
0.48 0.03 0
0.49 0.03 0
0.5 0.03 0
0.51 0.03 0
0.52 0.03 0
0.53 0.03 0
0.54 0.03 0
0.55 0.03 0
0.56 0.03 0
0.57 0.03 0
0.58 0.03 0
0.59 0.03 0
0.6 0.03 0
0.61 0.03 0
0 0.04 0
0.01 0.04 0
0.02 0.04 0
0.03 0.04 0
0.04 0.04 0
0.05 0.04 0
0.06 0.04 0
0.07 0.04 0
0.08 0.04 0
0.09 0.04 0
0.1 0.04 0
0.11 0.04 0
0.12 0.04 0
0.13 0.04 0
0.14 0.04 0
0.15 0.04 0
0.16 0.04 0
0.17 0.04 0
0.18 0.04 0
0.19 0.04 0
0.2 0.04 0
0.21 0.04 0
0.22 0.04 0
0.23 0.04 0
0.24 0.04 0
0.25 0.04 0
0.26 0.04 0
0.27 0.04 0
0.28 0.04 0
0.29 0.04 0
0.3 0.04 0
0.31 0.04 0
0.32 0.04 0
0.33 0.04 0
0.34 0.04 0
0.35 0.04 0
0.36 0.04 0
0.37 0.04 0
0.38 0.04 0
0.39 0.04 0
0.4 0.04 0
0.41 0.04 0
0.42 0.04 0
0.43 0.04 0
0.44 0.04 0
0.45 0.04 0
0.46 0.04 0
0.47 0.04 0
0.48 0.04 0
0.49 0.04 0
0.5 0.04 0
0.51 0.04 0
0.52 0.04 0
0.53 0.04 0
0.54 0.04 0
0.55 0.04 0
0.56 0.04 0
0.57 0.04 0
0.58 0.04 0
0.59 0.04 0
0.6 0.04 0
0.61 0.04 0
0 0.05 0
0.01 0.05 0
0.02 0.05 0
0.03 0.05 0
0.04 0.05 0
0.05 0.05 0
0.06 0.05 0
0.07 0.05 0
0.08 0.05 0
0.09 0.05 0
0.1 0.05 0
0.11 0.05 0
0.12 0.05 0
0.13 0.05 0
0.14 0.05 0
0.15 0.05 0
0.16 0.05 0
0.17 0.05 0
0.18 0.05 0
0.19 0.05 0
0.2 0.05 0
0.21 0.05 0
0.22 0.05 0
0.23 0.05 0
0.24 0.05 0
0.25 0.05 0
0.26 0.05 0
0.27 0.05 0
0.28 0.05 0
0.29 0.05 0
0.3 0.05 0
0.31 0.05 0
0.32 0.05 0
0.33 0.05 0
0.34 0.05 0
0.35 0.05 0
0.36 0.05 0
0.37 0.05 0
0.38 0.05 0
0.39 0.05 0
0.4 0.05 0
0.41 0.05 0
0.42 0.05 0
0.43 0.05 0
0.44 0.05 0
0.45 0.05 0
0.46 0.05 0
0.47 0.05 0
0.48 0.05 0
0.49 0.05 0
0.5 0.05 0
0.51 0.05 0
0.52 0.05 0
0.53 0.05 0
0.54 0.05 0
0.55 0.05 0
0.56 0.05 0
0.57 0.05 0
0.58 0.05 0
0.59 0.05 0
0.6 0.05 0
0.61 0.05 0
0 0.06 0
0.01 0.06 0
0.02 0.06 0
0.03 0.06 0
0.04 0.06 0
0.05 0.06 0
0.06 0.06 0
0.07 0.06 0
0.08 0.06 0
0.09 0.06 0
0.1 0.06 0
0.11 0.06 0
0.12 0.06 0
0.13 0.06 0
0.14 0.06 0
0.15 0.06 0
0.16 0.06 0
0.17 0.06 0
0.18 0.06 0
0.19 0.06 0
0.2 0.06 0
0.21 0.06 0
0.22 0.06 0
0.23 0.06 0
0.24 0.06 0
0.25 0.06 0
0.26 0.06 0
0.27 0.06 0
0.28 0.06 0
0.29 0.06 0
0.3 0.06 0
0.31 0.06 0
0.32 0.06 0
0.33 0.06 0
0.34 0.06 0
0.35 0.06 0
0.36 0.06 0
0.37 0.06 0
0.38 0.06 0
0.39 0.06 0
0.4 0.06 0
0.41 0.06 0
0.42 0.06 0
0.43 0.06 0
0.44 0.06 0
0.45 0.06 0
0.46 0.06 0
0.47 0.06 0
0.48 0.06 0
0.49 0.06 0
0.5 0.06 0
0.51 0.06 0
0.52 0.06 0
0.53 0.06 0
0.54 0.06 0
0.55 0.06 0
0.56 0.06 0
0.57 0.06 0
0.58 0.06 0
0.59 0.06 0
0.6 0.06 0
0.61 0.06 0
0 0.07 0
0.01 0.07 0
0.02 0.07 0
0.03 0.07 0
0.04 0.07 0
0.05 0.07 0
0.06 0.07 0
0.07 0.07 0
0.08 0.07 0
0.09 0.07 0
0.1 0.07 0
0.11 0.07 0
0.12 0.07 0
0.13 0.07 0
0.14 0.07 0
0.15 0.07 0
0.16 0.07 0
0.17 0.07 0
0.18 0.07 0
0.19 0.07 0
0.2 0.07 0
0.21 0.07 0
0.22 0.07 0
0.23 0.07 0
0.24 0.07 0
0.25 0.07 0
0.26 0.07 0
0.27 0.07 0
0.28 0.07 0
0.29 0.07 0
0.3 0.07 0
0.31 0.07 0
0.32 0.07 0
0.33 0.07 0
0.34 0.07 0
0.35 0.07 0
0.36 0.07 0
0.37 0.07 0
0.38 0.07 0
0.39 0.07 0
0.4 0.07 0
0.41 0.07 0
0.42 0.07 0
0.43 0.07 0
0.44 0.07 0
0.45 0.07 0
0.46 0.07 0
0.47 0.07 0
0.48 0.07 0
0.49 0.07 0
0.5 0.07 0
0.51 0.07 0
0.52 0.07 0
0.53 0.07 0
0.54 0.07 0
0.55 0.07 0
0.56 0.07 0
0.57 0.07 0
0.58 0.07 0
0.59 0.07 0
0.6 0.07 0
0.61 0.07 0
0 0.08 0
0.01 0.08 0
0.02 0.08 0
0.03 0.08 0
0.04 0.08 0
0.05 0.08 0
0.06 0.08 0
0.07 0.08 0
0.08 0.08 0
0.09 0.08 0
0.1 0.08 0
0.11 0.08 0
0.12 0.08 0
0.13 0.08 0
0.14 0.08 0
0.15 0.08 0
0.16 0.08 0
0.17 0.08 0
0.18 0.08 0
0.19 0.08 0
0.2 0.08 0
0.21 0.08 0
0.22 0.08 0
0.23 0.08 0
0.24 0.08 0
0.25 0.08 0
0.26 0.08 0
0.27 0.08 0
0.28 0.08 0
0.29 0.08 0
0.3 0.08 0
0.31 0.08 0
0.32 0.08 0
0.33 0.08 0
0.34 0.08 0
0.35 0.08 0
0.36 0.08 0
0.37 0.08 0
0.38 0.08 0
0.39 0.08 0
0.4 0.08 0
0.41 0.08 0
0.42 0.08 0
0.43 0.08 0
0.44 0.08 0
0.45 0.08 0
0.46 0.08 0
0.47 0.08 0
0.48 0.08 0
0.49 0.08 0
0.5 0.08 0
0.51 0.08 0
0.52 0.08 0
0.53 0.08 0
0.54 0.08 0
0.55 0.08 0
0.56 0.08 0
0.57 0.08 0
0.58 0.08 0
0.59 0.08 0
0.6 0.08 0
0.61 0.08 0
0 0.09 0
0.01 0.09 0
0.02 0.09 0
0.03 0.09 0
0.04 0.09 0
0.05 0.09 0
0.06 0.09 0
0.07 0.09 0
0.08 0.09 0
0.09 0.09 0
0.1 0.09 0
0.11 0.09 0
0.12 0.09 0
0.13 0.09 0
0.14 0.09 0
0.15 0.09 0
0.16 0.09 0
0.17 0.09 0
0.18 0.09 0
0.19 0.09 0
0.2 0.09 0
0.21 0.09 0
0.22 0.09 0
0.23 0.09 0
0.24 0.09 0
0.25 0.09 0
0.26 0.09 0
0.27 0.09 0
0.28 0.09 0
0.29 0.09 0
0.3 0.09 0
0.31 0.09 0
0.32 0.09 0
0.33 0.09 0
0.34 0.09 0
0.35 0.09 0
0.36 0.09 0
0.37 0.09 0
0.38 0.09 0
0.39 0.09 0
0.4 0.09 0
0.41 0.09 0
0.42 0.09 0
0.43 0.09 0
0.44 0.09 0
0.45 0.09 0
0.46 0.09 0
0.47 0.09 0
0.48 0.09 0
0.49 0.09 0
0.5 0.09 0
0.51 0.09 0
0.52 0.09 0
0.53 0.09 0
0.54 0.09 0
0.55 0.09 0
0.56 0.09 0
0.57 0.09 0
0.58 0.09 0
0.59 0.09 0
0.6 0.09 0
0.61 0.09 0
0 0.1 0
0.01 0.1 0
0.02 0.1 0
0.03 0.1 0
0.04 0.1 0
0.05 0.1 0
0.06 0.1 0
0.07 0.1 0
0.08 0.1 0
0.09 0.1 0
0.1 0.1 0
0.11 0.1 0
0.12 0.1 0
0.13 0.1 0
0.14 0.1 0
0.15 0.1 0
0.16 0.1 0
0.17 0.1 0
0.18 0.1 0
0.19 0.1 0
0.2 0.1 0
0.21 0.1 0
0.22 0.1 0
0.23 0.1 0
0.24 0.1 0
0.25 0.1 0
0.26 0.1 0
0.27 0.1 0
0.28 0.1 0
0.29 0.1 0
0.3 0.1 0
0.31 0.1 0
0.32 0.1 0
0.33 0.1 0
0.34 0.1 0
0.35 0.1 0
0.36 0.1 0
0.37 0.1 0
0.38 0.1 0
0.39 0.1 0
0.4 0.1 0
0.41 0.1 0
0.42 0.1 0
0.43 0.1 0
0.44 0.1 0
0.45 0.1 0
0.46 0.1 0
0.47 0.1 0
0.48 0.1 0
0.49 0.1 0
0.5 0.1 0
0.51 0.1 0
0.52 0.1 0
0.53 0.1 0
0.54 0.1 0
0.55 0.1 0
0.56 0.1 0
0.57 0.1 0
0.58 0.1 0
0.59 0.1 0
0.6 0.1 0
0.61 0.1 0
0 0.11 0
0.01 0.11 0
0.02 0.11 0
0.03 0.11 0
0.04 0.11 0
0.05 0.11 0
0.06 0.11 0
0.07 0.11 0
0.08 0.11 0
0.09 0.11 0
0.1 0.11 0
0.11 0.11 0
0.12 0.11 0
0.13 0.11 0
0.14 0.11 0
0.15 0.11 0
0.16 0.11 0
0.17 0.11 0
0.18 0.11 0
0.19 0.11 0
0.2 0.11 0
0.21 0.11 0
0.22 0.11 0
0.23 0.11 0
0.24 0.11 0
0.25 0.11 0
0.26 0.11 0
0.27 0.11 0
0.28 0.11 0
0.29 0.11 0
0.3 0.11 0
0.31 0.11 0
0.32 0.11 0
0.33 0.11 0
0.34 0.11 0
0.35 0.11 0
0.36 0.11 0
0.37 0.11 0
0.38 0.11 0
0.39 0.11 0
0.4 0.11 0
0.41 0.11 0
0.42 0.11 0
0.43 0.11 0
0.44 0.11 0
0.45 0.11 0
0.46 0.11 0
0.47 0.11 0
0.48 0.11 0
0.49 0.11 0
0.5 0.11 0
0.51 0.11 0
0.52 0.11 0
0.53 0.11 0
0.54 0.11 0
0.55 0.11 0
0.56 0.11 0
0.57 0.11 0
0.58 0.11 0
0.59 0.11 0
0.6 0.11 0
0.61 0.11 0
0 0.12 0
0.01 0.12 0
0.02 0.12 0
0.03 0.12 0
0.04 0.12 0
0.05 0.12 0
0.06 0.12 0
0.07 0.12 0
0.08 0.12 0
0.09 0.12 0
0.1 0.12 0
0.11 0.12 0
0.12 0.12 0
0.13 0.12 0
0.14 0.12 0
0.15 0.12 0
0.16 0.12 0
0.17 0.12 0
0.18 0.12 0
0.19 0.12 0
0.2 0.12 0
0.21 0.12 0
0.22 0.12 0
0.23 0.12 0
0.24 0.12 0
0.25 0.12 0
0.26 0.12 0
0.27 0.12 0
0.28 0.12 0
0.29 0.12 0
0.3 0.12 0
0.31 0.12 0
0.32 0.12 0
0.33 0.12 0
0.34 0.12 0
0.35 0.12 0
0.36 0.12 0
0.37 0.12 0
0.38 0.12 0
0.39 0.12 0
0.4 0.12 0
0.41 0.12 0
0.42 0.12 0
0.43 0.12 0
0.44 0.12 0
0.45 0.12 0
0.46 0.12 0
0.47 0.12 0
0.48 0.12 0
0.49 0.12 0
0.5 0.12 0
0.51 0.12 0
0.52 0.12 0
0.53 0.12 0
0.54 0.12 0
0.55 0.12 0
0.56 0.12 0
0.57 0.12 0
0.58 0.12 0
0.59 0.12 0
0.6 0.12 0
0.61 0.12 0
0 0.13 0
0.01 0.13 0
0.02 0.13 0
0.03 0.13 0
0.04 0.13 0
0.05 0.13 0
0.06 0.13 0
0.07 0.13 0
0.08 0.13 0
0.09 0.13 0
0.1 0.13 0
0.11 0.13 0
0.12 0.13 0
0.13 0.13 0
0.14 0.13 0
0.15 0.13 0
0.16 0.13 0
0.17 0.13 0
0.18 0.13 0
0.19 0.13 0
0.2 0.13 0
0.21 0.13 0
0.22 0.13 0
0.23 0.13 0
0.24 0.13 0
0.25 0.13 0
0.26 0.13 0
0.27 0.13 0
0.28 0.13 0
0.29 0.13 0
0.3 0.13 0
0.31 0.13 0
0.32 0.13 0
0.33 0.13 0
0.34 0.13 0
0.35 0.13 0
0.36 0.13 0
0.37 0.13 0
0.38 0.13 0
0.39 0.13 0
0.4 0.13 0
0.41 0.13 0
0.42 0.13 0
0.43 0.13 0
0.44 0.13 0
0.45 0.13 0
0.46 0.13 0
0.47 0.13 0
0.48 0.13 0
[...]
POINT_DATA 93248

SCALARS u double
LOOKUP_TABLE default
0
0
0
0
0
0
0
0
0
0
0
0
0
0
0
0
0
0
0
0
0
0
0
0
0.295105
0
0
0
0
0
0
0
0.0731588
0.221809
0
0
0
0
0
0
0
0
0
0
0
0
0
0.0929575
0
0
0.0773644
0
0
0
0
0
0
0
0
0
0
0
0
0.421405
0.34554
0.275364
0.220496
0.183618
0.162344
0.151189
0.144474
0.139495
0.135295
0.131368
0.128014
0.124686
0.121457
0.118262
0.115222
0.112144
0.109059
0.105484
0.103548
0.100874
0.0979931
0.0950471
0.092157
0.0893122
0.0864914
0.0836793
0.0808648
0.0780363
0.0751794
0.0722926
0.0695308
0.0665447
0.063307
0.0600435
0.056883
0.0543776
0.0548949
0.1658
0.0442792
0.0427072
0.0410886
0.0393134
0.0377348
0.0310941
0.0304007
0.0280203
0.0255031
0.0226937
0.019931
0.0497906
0.0149567
0.0130886
0.00646569
0.00429646
0.0223122
-0.00108882
-0.00491552
-0.010377
-0.010377
0
0
0.495415
0.484573
0.46665
0.444074
0.420029
0.396533
0.376475
0.360633
0.347813
0.336915
0.326879
0.318331
0.309968
0.301972
0.294125
0.286725
0.279255
0.272551
0.338643
0.259548
0.251396
0.244025
0.236833
0.229809
0.222867
0.215967
0.20909
0.202221
0.195345
0.188434
0.181442
0.174751
0.167807
0.160429
0.152941
0.144205
0.132617
-0.0577964
0.116426
0.11439
0.110476
0.105515
0.0999539
0.0938566
0.0862344
0.0793135
0.0729658
0.0664541
0.0597213
0.0530486
0.0473149
0.0401813
0.0331343
0.0248998
0.0180412
0.0108844
0.00400553
-0.00361367
-0.0114015
-0.0114015
0
0
0.489702
0.495741
0.501651
0.500854
0.492164
0.474726
0.45595
0.438984
0.424217
0.406458
0.399495
0.388418
0.37837
0.368772
0.359745
0.350915
0.341396
0.332613
0.323677
0.314955
0.306537
0.298179
0.289732
0.281297
0.272886
0.264499
0.256132
0.247778
0.239432
0.231105
0.222831
0.214165
0.206392
0.215779
0.189406
0.180404
0.172303
0.167552
0.156966
0.147428
0.139096
0.139417
0.12362
0.116
0.131299
0.0992909
0.0903928
0.0664541
0.0737903
0.0659783
0.0581686
0.0497906
0.041238
0.0324432
0.024038
0.0156676
0.00674765
-0.00162723
-0.00982242
-0.00982242
0
0
0.482794
0.485797
0.494145
0.498206
0.494143
0.482325
0.467521
0.452868
0.439336
0.427001
0.415378
0.404245
0.393777
0.383754
0.374352
0.364643
0.355915
0.346669
0.337946
0.328186
0.319345
0.310591
0.301844
0.293103
0.284377
0.275669
0.266977
0.258298
0.249627
0.240963
0.2323
0.223525
0.215019
0.206249
0.19779
0.189518
0.182062
0.175636
0.166176
0.156128
0.146636
0.137695
0.129158
0.120654
0.111842
0.103044
0.094519
0.0861637
0.0775827
0.0691235
0.0606758
0.0520397
0.0432708
0.0344324
0.0256911
0.0169785
0.00812954
-0.000446575
-0.00889661
-0.00889661
0
0
0.479593
0.477376
0.481739
0.485405
0.482879
0.47411
0.462378
0.450161
0.438306
0.426981
0.416057
0.405466
0.39522
0.385154
0.376594
0.366811
0.357645
0.348477
0.339291
0.330203
0.321262
0.312416
0.303614
0.294838
0.286083
0.277346
0.268625
0.259915
0.251209
0.242498
0.233765
0.224991
0.216561
0.207912
0.199429
0.191183
0.183307
0.175584
0.166733
0.157347
0.148042
0.138997
0.130194
0.121513
0.11296
0.104584
0.09521
0.0868101
0.0782513
0.0696953
0.0611371
0.0525026
0.0437559
0.0349627
0.0262046
0.0174894
0.00881127
0.000258976
-0.0084301
-0.0084301
0
0
0.478212
0.472857
0.473819
0.475554
0.472954
0.465435
0.455621
0.445089
0.434572
0.424247
0.414081
0.404077
0.394256
0.384628
0.37553
0.366478
0.357269
0.348288
0.339168
0.330173
0.321278
0.31245
0.303663
0.294904
0.286168
0.277454
0.268755
0.260067
0.25138
0.242683
0.233946
0.225071
0.216966
0.208339
0.199771
0.191395
0.183159
0.174883
0.166197
0.157223
0.148198
0.139241
0.130355
0.121434
0.112369
0.104557
0.0958082
0.0870895
0.0784359
0.0698511
0.0613203
0.0527677
0.0440288
0.035238
0.0264955
0.0178226
0.00927093
0.00117318
-0.00624653
-0.00624653
0
0
0.477546
0.470403
0.469184
0.469266
0.466148
0.474587
0.450206
0.440371
0.430765
0.42128
0.411807
0.4023
0.392871
0.383506
0.374299
0.36559
0.356494
0.347533
0.338643
0.329801
0.321
0.312225
0.303474
0.294746
0.286039
0.277358
0.268691
0.260036
0.251386
0.24274
0.23417
0.225782
0.21663
0.208109
0.199711
0.191315
0.182916
0.174444
0.1658
0.157008
0.148156
0.139582
0.130461
0.121614
0.112811
0.104475
0.095844
0.0871449
0.0784802
0.0699044
0.0614722
0.0531183
0.0442948
0.0354342
0.0266931
0.0180162
0.00926572
0.000447557
-0.00511896
-0.00511896
0
0
0.477183
0.469017
0.466424
0.465249
0.461289
0.454018
0.445425
0.436494
0.427599
0.418668
0.409647
0.400449
0.391364
0.382136
0.372418
0.286725
0.354397
0.346304
0.337946
0.329326
0.320655
0.311938
0.303225
0.294534
0.286083
0.277224
0.268588
0.259974
0.251365
0.242727
0.234152
0.225612
0.216805
0.208215
0.199718
0.191244
0.182747
0.174196
0.165563
0.156853
0.148094
0.139317
0.130542
0.121778
0.113061
0.104475
0.0958221
0.0871199
0.0784151
0.069781
0.0613949
0.053463
0.0443587
0.0354385
0.0268041
0.0183386
0.00998058
0.00118274
-0.00657317
-0.00657317
0
0
0.476965
0.468177
0.464696
0.462618
0.457996
0.450531
0.44197
0.433368
0.424846
0.416294
0.40773
0.398628
0.389887
0.381082
0.372246
0.363923
0.355093
0.346293
0.337586
0.328892
0.320291
0.31161
0.302924
0.294262
0.285629
0.277019
0.268437
0.259895
0.251379
0.242783
0.234188
0.225566
0.216893
0.208279
0.199716
0.19118
0.182626
0.174042
0.165418
0.156751
0.14805
0.13933
0.130604
0.121885
0.113187
0.10452
0.0958253
0.0870743
0.0782375
0.0692764
0.0602642
0.0528739
0.0433711
0.0349
0.0266634
0.0183948
0.0100799
0.00158893
-0.00682609
-0.00682609
0
0
0.476824
0.467634
0.463542
0.460831
0.455668
0.447917
0.439274
0.430775
0.422452
0.414136
0.405747
0.397178
0.388644
0.380098
0.371496
0.363076
0.354425
0.345736
0.337096
0.328533
0.319799
0.311165
0.302555
0.293931
0.285385
0.276782
0.268242
0.259792
0.251501
0.250221
0.234434
0.225622
0.216929
0.208293
0.199677
0.190158
0.182499
0.173922
0.165319
0.156685
0.148024
0.139344
0.130653
0.12196
0.113272
0.104584
0.0958677
0.0870777
0.0781015
0.0686321
0.0579781
-0.0126565
0.040267
0.033902
0.0264495
0.0184224
0.0101627
0.00176714
-0.00680595
-0.00680595
0
0
0.476731
0.467269
0.462713
0.45959
0.453974
0.445919
0.437147
0.428656
0.420437
0.412274
0.404065
0.395775
0.387462
0.379155
0.370545
0.362071
0.353576
0.34505
0.336482
0.324545
0.319255
0.310738
0.302188
0.29361
0.285037
0.276467
0.26795
0.259533
0.251254
0.243051
0.233864
0.22537
0.216854
0.208267
0.199655
0.191041
0.181318
0.173822
0.165251
0.156648
0.148018
0.139369
0.130702
0.122026
0.113348
0.104665
0.0959656
0.0872282
0.0784255
0.0695767
0.0609373
0.0533133
0.0438036
0.035223
0.0269452
0.0186546
0.0103098
0.00189293
-0.00673842
-0.00673842
0
0
0.476673
0.467048
0.46232
0.45858
0.452616
0.444336
0.435443
0.426931
0.418757
0.41069
0.402606
0.394472
0.386325
0.378312
0.369525
0.361169
0.352833
0.344429
0.335998
0.327551
0.318997
0.310433
0.301861
0.293271
0.284671
0.276077
0.267542
0.259141
0.250893
0.242168
0.234464
0.225821
0.217057
0.208327
0.199644
0.191007
0.182404
0.173807
0.16523
0.156643
0.148032
0.139417
0.130761
0.122094
0.113425
0.104757
0.0960896
0.087421
0.0787576
0.0702068
0.0619327
0.0539573
0.0449092
0.0360109
0.0273949
0.0189165
0.0104774
0.00201248
-0.00666163
-0.00666163
0
0
0.476627
0.466862
0.461865
0.457912
0.451656
0.443146
0.434117
0.425544
0.417365
0.409351
0.401336
0.393272
0.385109
0.376694
0.36899
0.360745
0.352352
0.343931
0.335548
0.327128
0.318625
0.310084
0.301514
0.292909
0.284264
0.27559
0.26697
0.258619
0.25123
0.24285
0.234516
0.225848
0.217069
0.2083
0.199581
0.190918
0.182306
0.173745
0.165216
0.156665
0.148053
0.139525
0.13084
0.122168
0.113503
0.104847
0.0962089
0.087592
0.0789547
0.0704569
0.0620907
0.0537505
0.0450241
0.0362803
0.0276563
0.0191306
0.0106293
0.00212847
-0.00658121
-0.00658121
0
0
0.476592
0.466716
0.461537
0.457338
0.450901
0.442222
0.433069
0.424427
0.416237
0.408212
0.400241
0.392248
0.384186
0.376035
0.3681
0.359973
0.351692
0.343303
0.335099
0.326725
0.318253
0.309731
0.30117
0.292549
0.283834
0.274982
0.266011
0.257216
0.253107
0.244201
0.235024
0.22598
0.217056
0.208224
0.199464
0.190777
0.182142
0.173646
0.165228
0.156751
0.148186
0.139582
0.130918
0.122244
0.113576
0.104923
0.0963007
0.0877251
0.079049
0.0705561
0.0621103
0.0536386
0.0449798
0.0363709
0.0278117
0.019329
0.010739
0.00224429
-0.00649234
-0.00649234
0
0
0.476572
0.466594
0.461265
0.456963
0.450327
0.4415
0.432235
0.423517
0.415285
0.407265
0.399321
0.39138
0.383405
0.375387
0.367383
0.359289
0.351063
0.342618
0.334717
0.326354
0.317878
0.309388
0.30085
0.292233
0.283461
0.274342
0.264227
0.250692
0.261873
0.246709
0.235768
0.226141
0.217012
0.2081
0.199282
0.190534
0.181894
0.173478
0.165325
0.156953
0.148386
0.139724
0.131026
0.122327
0.11364
0.104972
0.0963161
0.0876679
0.0792122
0.0706756
0.0621671
0.0537305
0.0448611
0.0364083
0.0279013
0.019437
0.0109237
0.00239338
-0.00637487
-0.00637487
0
0
0.476589
0.466481
0.461028
0.456616
0.449859
0.440928
0.431554
0.422755
0.41448
0.406458
0.398533
0.390633
0.38272
0.374776
0.36679
0.358741
0.350655
0.342658
0.333976
0.325678
0.317398
0.309025
0.300569
0.292014
0.28333
0.274454
0.265332
0.256488
0.253122
0.244236
0.234886
0.225729
0.216756
0.207886
0.199019
0.190161
0.181407
0.17308
0.165759
0.157449
0.14874
0.139944
0.131161
0.122415
0.113698
0.105018
0.0963596
0.08773
0.0791954
0.0707079
0.0621766
0.0536343
0.0450107
0.0365016
0.0279392
0.0195533
0.0110765
0.00258116
-0.00618211
-0.00618211
0
0
0.476683
0.46638
0.460856
0.456378
0.449507
0.440456
0.430931
0.422054
0.413756
0.405746
0.397842
0.389979
0.382123
0.374242
0.366287
0.358254
0.350173
0.342063
0.333692
0.325397
0.317106
0.308767
0.300358
0.291875
0.283315
0.274691
0.266092
0.257882
0.250868
0.242706
0.234039
0.225242
0.216432
0.207636
0.198686
0.189615
0.18043
0.171668
0.167677
0.158681
0.149345
0.140228
0.131299
0.122493
0.113739
0.105051
0.096389
0.0877381
0.0791223
0.0707706
0.0622048
0.053625
0.0450776
0.0366775
0.0277139
0.0195305
0.0111454
0.00285211
-0.00570612
-0.00570612
0
0
0.476377
0.466557
0.461041
0.456427
0.449369
0.435443
0.430202
0.421359
0.413104
0.405138
0.397233
0.389395
0.381602
0.37381
0.36587
0.357823
0.349725
0.3416
0.333384
0.325143
0.316875
0.308561
0.300194
0.291773
0.283309
0.274831
0.267196
0.258103
0.250302
0.242063
0.233528
0.224844
0.216089
0.207338
0.198293
0.188992
0.178693
0.164325
0.176693
0.161064
0.150046
0.140453
0.131373
0.122506
0.11377
0.105077
0.0964143
0.0877375
0.0789981
0.070877
0.0622167
0.053597
0.0450307
0.0364492
0.0276309
0.0101627
0.0109859
0.00324012
-0.00417731
0
0
0
0.476476
0.466402
0.460866
0.456353
0.449384
0.439906
0.430139
0.421142
0.412799
0.404799
0.396737
0.388864
0.381129
0.373477
0.36548
0.357373
0.349274
0.341205
0.333083
0.3249
0.316668
0.308386
0.300055
0.291681
0.283276
0.274872
0.266506
0.258014
0.250184
0.241789
0.233203
0.224532
0.215689
0.198663
0.197863
0.18905
0.179908
0.170945
0.16783
0.156751
0.149372
0.140231
0.131287
0.122469
0.113741
0.105076
0.0964646
0.0879274
0.0794966
0.0704245
0.0619595
0.0535002
0.0450086
0.0365055
0.0280093
0.0196997
0.0112411
0.00291293
-0.00567006
-0.00567006
0
0
0.476509
0.466399
0.46064
0.456311
0.449495
0.439589
0.429873
0.420929
0.412555
0.404603
0.39623
0.388312
0.380597
0.372996
0.364734
0.356631
0.348638
0.340794
0.332799
0.324685
0.316489
0.308237
0.299936
0.29159
0.283211
0.274834
0.266779
0.25862
0.249729
0.241305
0.232891
0.224365
0.215779
0.20724
0.198437
0.189656
0.180961
0.172691
0.165638
0.157429
0.148717
0.139914
0.131125
0.122377
0.11367
0.105039
0.0964517
0.0878966
0.0793396
0.0705458
0.0619631
0.0534742
0.0450068
0.0365501
0.0280811
0.0196712
0.0111733
0.00265008
-0.00614325
-0.00614325
0
0
0.476527
0.466447
0.460974
0.455805
0.448287
0.439622
0.430046
0.420955
0.412375
0.403866
0.396108
0.387981
0.379734
0.341588
0.362731
0.35536
0.347809
0.340397
0.332549
0.324492
0.31634
0.308117
0.299838
0.291507
0.283104
0.274526
0.267249
0.258526
0.2498
0.241269
0.232784
0.224278
0.215765
0.207288
0.198672
0.190045
0.181496
0.173164
0.165106
0.156809
0.148283
0.139647
0.130961
0.122277
0.113584
0.104999
0.0964311
0.0878638
0.0792777
0.0706076
0.0619611
0.0534602
0.0449927
0.0365587
0.0280246
0.019532
0.0110286
0.00247067
-0.00632876
-0.00632876
0
0
0.476525
0.466418
0.460798
0.455849
0.448515
0.439411
0.429861
0.420856
0.412274
0.403677
0.39562
0.387338
0.351886
0.371324
0.363616
0.355877
0.348266
0.340233
0.332314
0.324318
0.316212
0.308028
0.299769
0.291464
0.283119
0.274749
0.266672
0.258261
0.249736
0.241223
0.232709
0.224183
0.215681
0.207312
0.198792
0.190276
0.181755
0.173315
0.164951
0.156533
0.14803
0.139477
0.13082
0.122239
0.113584
0.105049
0.0964594
0.0878744
0.0793113
0.070698
0.0620144
0.053488
0.0449172
0.0364489
0.0278487
0.01937
0.0108934
0.00233869
-0.00643733
-0.00643733
0
0
0.476521
0.466398
0.460735
0.455895
0.448659
0.439396
0.429806
0.420904
0.412411
0.402983
0.395169
0.387563
0.380434
0.372184
0.364179
0.356284
0.348401
0.340367
0.332341
0.324281
0.31617
0.307997
0.299728
0.291437
0.283132
0.274817
0.266531
0.258124
0.249673
0.241171
0.232626
0.224036
0.215457
0.207533
0.198915
0.190517
0.18193
0.173383
0.164887
0.156391
0.147868
0.139322
0.130776
0.122341
0.118711
0.105282
0.0965174
0.0878782
0.0793781
0.0709027
0.0680831
0.0536491
0.0446738
0.026631
0.0274527
0.0192016
0.0108015
0.00222885
-0.00652153
-0.00652153
0
0
0.476521
0.466395
0.460731
0.455931
0.44874
0.439473
0.429796
0.421216
0.414334
0.40065
0.394277
0.387224
0.38005
0.372295
0.364393
0.356449
0.34847
0.340438
0.332379
0.324295
0.31618
0.308034
0.299692
0.291413
0.283138
0.27484
0.26653
0.260067
0.2497
0.241154
0.232557
0.223823
0.214528
0.208863
0.198987
0.191111
0.182096
0.173417
0.164843
0.1563
0.147752
0.139183
0.130611
0.122026
0.113356
0.104846
0.0962627
0.0876673
0.0791779
0.0705326
0.0617007
0.0533194
0.0448309
0.0364173
0.0277849
0.0192999
0.0108499
0.00211052
-0.00660096
-0.00660096
0
0
0.476524
0.466402
0.460744
0.455964
0.448805
0.439616
0.429312
0.420746
0.412501
0.402957
0.395202
0.387643
0.380081
0.372324
0.364455
0.356525
0.348508
0.34049
0.332425
0.324325
0.316209
0.308135
0.299648
0.291405
0.28318
0.274871
0.266512
0.258031
0.249596
0.241117
0.232557
0.223962
0.215351
0.207537
0.198917
0.190556
0.181949
0.173347
0.164779
0.156228
0.14767
0.13906
0.130467
0.121864
0.113229
0.104663
0.0960506
0.0872942
0.070481
0.0701582
0.0613883
0.0532163
0.0448175
0.0363809
0.0278231
0.0193371
0.0109645
0.00195277
-0.00665324
-0.00665324
0
0
0.476528
0.466411
0.460759
0.455986
0.448816
0.439533
0.429738
0.42071
0.412223
0.403747
0.395762
0.387969
0.380215
0.372411
0.364546
0.356621
0.348625
0.340578
0.33249
0.32436
0.31617
0.307837
0.299878
0.291642
0.283348
0.274952
0.266488
0.258068
0.249616
0.241162
0.232545
0.224072
0.2156
0.207276
0.198814
0.190351
0.181816
0.17326
0.164709
0.156171
0.147637
0.13893
0.130345
0.121773
0.113187
0.104617
0.0960435
0.0874711
0.0789614
0.0701736
0.0620187
0.0532893
0.0447751
0.0362786
0.0277228
0.0191178
0.0104481
0.00242446
-0.00645541
-0.00645541
0
0
0.476532
0.46642
0.460775
0.456014
0.448851
0.439561
0.429951
0.420758
0.41225
0.404012
0.396067
0.388237
0.380428
0.37259
0.364711
0.356788
0.348778
0.340696
0.332585
0.324441
0.316265
0.307994
0.30085
0.291678
0.283468
0.27499
0.266483
0.258036
0.249596
0.241143
0.232638
0.224153
0.215679
0.207231
0.198753
0.190254
0.181726
0.173181
0.164633
0.156109
0.147644
0.138788
0.13025
0.121715
0.113152
0.10459
0.0960365
0.0875008
0.0789817
0.0703599
0.0619268
0.0533143
0.0447605
0.036226
0.0276798
0.0191231
0.0105746
0.00224216
-0.0065119
-0.0065119
0
0
0.476538
0.466426
0.460787
0.456054
0.448921
0.439672
0.430273
0.420849
0.412426
0.404322
0.396465
0.388629
0.380762
0.372867
0.364953
0.357055
0.348999
0.340844
0.332708
0.324545
0.316372
0.308119
0.299821
0.29149
0.283336
0.274679
0.266235
0.257892
0.249539
0.241133
0.232676
0.224198
0.215711
0.207222
0.198718
0.190198
0.18166
0.173107
0.164537
0.155931
0.147247
0.138974
0.130348
0.121715
0.113122
0.104555
0.0960057
0.0874703
0.0789383
0.0703808
0.0618554
0.0532931
0.0447401
0.0361983
0.0276656
0.0191617
0.0105907
0.00214509
-0.00657138
-0.00657138
0
0
0.476545
0.46642
0.460786
0.456118
0.449018
0.439715
0.429881
0.421443
0.413188
0.412501
0.397292
0.389217
0.381197
0.3732
0.365205
0.357439
0.349272
0.341023
0.332884
0.324678
0.316545
0.308261
0.299826
0.291058
0.255864
0.273512
0.265688
0.25768
0.249481
0.241139
0.232707
0.224231
0.215732
0.20722
0.198695
0.190158
0.181608
0.173047
0.164475
0.155886
0.147289
0.138827
0.130245
0.121642
0.113059
0.1045
0.0959592
0.0874282
0.078898
0.0703591
0.0618196
0.0532694
0.0447199
0.0361772
0.0276449
0.0191285
0.0106165
0.00211421
-0.00660256
-0.00660256
0
0
0.476559
0.466402
0.462889
0.456235
0.449204
0.439979
0.430371
0.421637
0.413332
0.405144
0.397229
0.389332
0.3814
0.373438
0.365144
0.357627
0.349266
0.348477
0.333224
0.324858
0.316794
0.308499
0.300111
0.291746
0.283647
0.274955
0.266446
0.258045
0.249655
0.241229
0.232764
0.22427
0.215755
0.207223
0.198678
0.190124
0.181561
0.172993
0.164424
0.155856
0.147289
0.138728
0.130134
0.12154
0.112971
0.104428
0.095903
0.0873868
0.0788692
0.0703419
0.0618037
0.0532554
0.0447052
0.0361613
0.0276276
0.0191066
0.0106053
0.00209453
-0.00657138
-0.00662096
0
0
0.476634
0.466279
0.460711
0.45621
0.449298
0.440248
0.430809
0.421999
0.413688
0.405575
0.397618
0.389698
0.381725
0.373579
0.364804
0.279255
0.347374
0.340413
0.332971
0.325153
0.316793
0.308538
0.300302
0.292061
0.283785
0.275299
0.266779
0.258287
0.249809
0.241327
0.232831
0.224316
0.215782
0.207228
0.198663
0.19009
0.181512
0.172933
0.164364
0.15582
0.147284
0.138662
0.130019
0.121411
0.112853
0.104335
0.095839
0.0873505
0.0788567
0.0703441
0.0618084
0.0532552
0.0446976
0.0361507
0.0276134
0.0190831
0.0105732
0.00117318
-0.00665265
-0.00665265
0
0
0.476643
0.465532
0.460756
0.456471
0.449653
0.440656
0.431319
0.422501
0.414218
0.406163
0.398206
0.390267
0.38229
0.374242
0.366162
0.35861
0.350017
0.341712
0.333581
0.325443
0.317125
0.308826
0.300541
0.292307
0.283803
0.275378
0.26692
0.258427
0.249927
0.241419
0.232902
0.224371
0.215819
0.207233
0.198643
0.190051
0.181452
0.172851
0.164271
0.155767
0.147337
0.138602
0.12986
0.121223
0.112686
0.104215
0.0957678
0.0873245
0.0788719
0.0703809
0.0618438
0.0532735
0.0446954
0.0361454
0.0269066
0.0190557
0.0105581
0.00204461
-0.00703615
-0.00667926
0
0
0.47669
0.466442
0.461065
0.456786
0.450153
0.441348
0.432102
0.423058
0.41484
0.406855
0.398918
0.390968
0.382977
0.374951
0.366926
0.359029
0.350728
0.342383
0.334086
0.325799
0.317462
0.309105
0.30072
0.29226
0.284054
0.275603
0.267084
0.25856
0.250033
0.241508
0.232976
0.224437
0.215877
0.207232
0.198612
0.190002
0.181375
0.172728
0.164077
0.155592
0.147446
0.138406
0.129534
0.120902
0.112433
0.104064
0.0956917
0.087316
0.0789399
0.070481
0.0619304
0.0533193
0.0446941
0.0361879
0.0276092
0.0190465
0.0105331
0.00201932
-0.00668041
-0.00668041
0
0
0.476654
0.466715
0.461472
0.45732
0.449507
0.442216
0.433382
0.423197
0.41549
0.407655
0.399758
0.391786
0.383751
0.374776
0.367578
0.359447
0.351182
0.342855
0.334517
0.326168
0.317794
0.30939
0.300966
0.292522
0.284155
0.2757
0.267196
0.258678
0.250125
0.241589
0.233051
0.224518
0.21599
0.207198
0.198564
0.189949
0.181291
0.172567
0.16363
0.154811
0.146761
0.137268
0.128686
0.120314
0.112037
0.103905
0.0956241
0.0873252
0.0791231
0.0707047
0.0621074
0.0534179
0.044692
0.0362385
0.0275923
0.0190059
0.0104867
0.00197606
-0.00671386
-0.00671386
0
0
0.476697
0.466947
0.461902
0.457944
0.451654
0.443121
0.434098
0.425092
0.416894
0.408868
0.400839
0.392756
0.384619
0.37644
0.368223
0.359977
0.351668
0.343316
0.334941
0.326549
0.318137
0.30968
0.301214
0.292752
0.284301
0.275817
0.267305
0.258772
0.250221
0.241669
0.233113
0.224584
0.216154
0.207135
0.198534
0.18994
0.181239
0.172377
0.163075
0.152497
0.0427072
0.133417
0.127072
0.119405
0.111403
0.103933
0.0956142
0.0872715
0.0796321
0.07119
0.0624356
0.0536543
0.0449503
0.0360419
0.0274556
0.0189151
0.0104115
0.00191388
-0.0067563
-0.0067563
0
0
0.476754
0.467173
0.462353
0.45865
0.452605
0.444269
0.435329
0.426673
0.418404
0.410247
0.402087
0.393858
0.385583
0.377277
0.368946
0.360592
0.352208
0.343799
0.335376
0.326943
0.318506
0.309954
0.301441
0.292955
0.28447
0.275951
0.267423
0.258877
0.250315