# vtk DataFile Version 2.0
FlowField
ASCII
DATASET STRUCTURED_GRID
DIMENSIONS 102 11 11 
POINTS 12342 double
0 0 0
0 0 0.2
0 0 0.4
0 0 0.6
0 0 0.8
0 0 1
0 0 1.2
0 0 1.4
0 0 1.6
0 0 1.8
0 0 2
0 0.1 0
0 0.1 0.2
0 0.1 0.4
0 0.1 0.6
0 0.1 0.8
0 0.1 1
0 0.1 1.2
0 0.1 1.4
0 0.1 1.6
0 0.1 1.8
0 0.1 2
0 0.2 0
0 0.2 0.2
0 0.2 0.4
0 0.2 0.6
0 0.2 0.8
0 0.2 1
0 0.2 1.2
0 0.2 1.4
0 0.2 1.6
0 0.2 1.8
0 0.2 2
0 0.3 0
0 0.3 0.2
0 0.3 0.4
0 0.3 0.6
0 0.3 0.8
0 0.3 1
0 0.3 1.2
0 0.3 1.4
0 0.3 1.6
0 0.3 1.8
0 0.3 2
0 0.4 0
0 0.4 0.2
0 0.4 0.4
0 0.4 0.6
0 0.4 0.8
0 0.4 1
0 0.4 1.2
0 0.4 1.4
0 0.4 1.6
0 0.4 1.8
0 0.4 2
0 0.5 0
0 0.5 0.2
0 0.5 0.4
0 0.5 0.6
0 0.5 0.8
0 0.5 1
0 0.5 1.2
0 0.5 1.4
0 0.5 1.6
0 0.5 1.8
0 0.5 2
0 0.6 0
0 0.6 0.2
0 0.6 0.4
0 0.6 0.6
0 0.6 0.8
0 0.6 1
0 0.6 1.2
0 0.6 1.4
0 0.6 1.6
0 0.6 1.8
0 0.6 2
0 0.7 0
0 0.7 0.2
0 0.7 0.4
0 0.7 0.6
0 0.7 0.8
0 0.7 1
0 0.7 1.2
0 0.7 1.4
0 0.7 1.6
0 0.7 1.8
0 0.7 2
0 0.8 0
0 0.8 0.2
0 0.8 0.4
0 0.8 0.6
0 0.8 0.8
0 0.8 1
0 0.8 1.2
0 0.8 1.4
0 0.8 1.6
0 0.8 1.8
0 0.8 2
0 0.9 0
0 0.9 0.2
0 0.9 0.4
0 0.9 0.6
0 0.9 0.8
0 0.9 1
0 0.9 1.2
0 0.9 1.4
0 0.9 1.6
0 0.9 1.8
0 0.9 2
0 1 0
0 1 0.2
0 1 0.4
0 1 0.6
0 1 0.8
0 1 1
0 1 1.2
0 1 1.4
0 1 1.6
0 1 1.8
0 1 2
0.2 0 0
0.2 0 0.2
0.2 0 0.4
0.2 0 0.6
0.2 0 0.8
0.2 0 1
0.2 0 1.2
0.2 0 1.4
0.2 0 1.6
0.2 0 1.8
0.2 0 2
0.2 0.1 0
0.2 0.1 0.2
0.2 0.1 0.4
0.2 0.1 0.6
0.2 0.1 0.8
0.2 0.1 1
0.2 0.1 1.2
0.2 0.1 1.4
0.2 0.1 1.6
0.2 0.1 1.8
0.2 0.1 2
0.2 0.2 0
0.2 0.2 0.2
0.2 0.2 0.4
0.2 0.2 0.6
0.2 0.2 0.8
0.2 0.2 1
0.2 0.2 1.2
0.2 0.2 1.4
0.2 0.2 1.6
0.2 0.2 1.8
0.2 0.2 2
0.2 0.3 0
0.2 0.3 0.2
0.2 0.3 0.4
0.2 0.3 0.6
0.2 0.3 0.8
0.2 0.3 1
0.2 0.3 1.2
0.2 0.3 1.4
0.2 0.3 1.6
0.2 0.3 1.8
0.2 0.3 2
0.2 0.4 0
0.2 0.4 0.2
0.2 0.4 0.4
0.2 0.4 0.6
0.2 0.4 0.8
0.2 0.4 1
0.2 0.4 1.2
0.2 0.4 1.4
0.2 0.4 1.6
0.2 0.4 1.8
0.2 0.4 2
0.2 0.5 0
0.2 0.5 0.2
0.2 0.5 0.4
0.2 0.5 0.6
0.2 0.5 0.8
0.2 0.5 1
0.2 0.5 1.2
0.2 0.5 1.4
0.2 0.5 1.6
0.2 0.5 1.8
0.2 0.5 2
0.2 0.6 0
0.2 0.6 0.2
0.2 0.6 0.4
0.2 0.6 0.6
0.2 0.6 0.8
0.2 0.6 1
0.2 0.6 1.2
0.2 0.6 1.4
0.2 0.6 1.6
0.2 0.6 1.8
0.2 0.6 2
0.2 0.7 0
0.2 0.7 0.2
0.2 0.7 0.4
0.2 0.7 0.6
0.2 0.7 0.8
0.2 0.7 1
0.2 0.7 1.2
0.2 0.7 1.4
0.2 0.7 1.6
0.2 0.7 1.8
0.2 0.7 2
0.2 0.8 0
0.2 0.8 0.2
0.2 0.8 0.4
0.2 0.8 0.6
0.2 0.8 0.8
0.2 0.8 1
0.2 0.8 1.2
0.2 0.8 1.4
0.2 0.8 1.6
0.2 0.8 1.8
0.2 0.8 2
0.2 0.9 0
0.2 0.9 0.2
0.2 0.9 0.4
0.2 0.9 0.6
0.2 0.9 0.8
0.2 0.9 1
0.2 0.9 1.2
0.2 0.9 1.4
0.2 0.9 1.6
0.2 0.9 1.8
0.2 0.9 2
0.2 1 0
0.2 1 0.2
0.2 1 0.4
0.2 1 0.6
0.2 1 0.8
0.2 1 1
0.2 1 1.2
0.2 1 1.4
0.2 1 1.6
0.2 1 1.8
0.2 1 2
0.4 0 0
0.4 0 0.2
0.4 0 0.4
0.4 0 0.6
0.4 0 0.8
0.4 0 1
0.4 0 1.2
0.4 0 1.4
0.4 0 1.6
0.4 0 1.8
0.4 0 2
0.4 0.1 0
0.4 0.1 0.2
0.4 0.1 0.4
0.4 0.1 0.6
0.4 0.1 0.8
0.4 0.1 1
0.4 0.1 1.2
0.4 0.1 1.4
0.4 0.1 1.6
0.4 0.1 1.8
0.4 0.1 2
0.4 0.2 0
0.4 0.2 0.2
0.4 0.2 0.4
0.4 0.2 0.6
0.4 0.2 0.8
0.4 0.2 1
0.4 0.2 1.2
0.4 0.2 1.4
0.4 0.2 1.6
0.4 0.2 1.8
0.4 0.2 2
0.4 0.3 0
0.4 0.3 0.2
0.4 0.3 0.4
0.4 0.3 0.6
0.4 0.3 0.8
0.4 0.3 1
0.4 0.3 1.2
0.4 0.3 1.4
0.4 0.3 1.6
0.4 0.3 1.8
0.4 0.3 2
0.4 0.4 0
0.4 0.4 0.2
0.4 0.4 0.4
0.4 0.4 0.6
0.4 0.4 0.8
0.4 0.4 1
0.4 0.4 1.2
0.4 0.4 1.4
0.4 0.4 1.6
0.4 0.4 1.8
0.4 0.4 2
0.4 0.5 0
0.4 0.5 0.2
0.4 0.5 0.4
0.4 0.5 0.6
0.4 0.5 0.8
0.4 0.5 1
0.4 0.5 1.2
0.4 0.5 1.4
0.4 0.5 1.6
0.4 0.5 1.8
0.4 0.5 2
0.4 0.6 0
0.4 0.6 0.2
0.4 0.6 0.4
0.4 0.6 0.6
0.4 0.6 0.8
0.4 0.6 1
0.4 0.6 1.2
0.4 0.6 1.4
0.4 0.6 1.6
0.4 0.6 1.8
0.4 0.6 2
0.4 0.7 0
0.4 0.7 0.2
0.4 0.7 0.4
0.4 0.7 0.6
0.4 0.7 0.8
0.4 0.7 1
0.4 0.7 1.2
0.4 0.7 1.4
0.4 0.7 1.6
0.4 0.7 1.8
0.4 0.7 2
0.4 0.8 0
0.4 0.8 0.2
0.4 0.8 0.4
0.4 0.8 0.6
0.4 0.8 0.8
0.4 0.8 1
0.4 0.8 1.2
0.4 0.8 1.4
0.4 0.8 1.6
0.4 0.8 1.8
0.4 0.8 2
0.4 0.9 0
0.4 0.9 0.2
0.4 0.9 0.4
0.4 0.9 0.6
0.4 0.9 0.8
0.4 0.9 1
0.4 0.9 1.2
0.4 0.9 1.4
0.4 0.9 1.6
0.4 0.9 1.8
0.4 0.9 2
0.4 1 0
0.4 1 0.2
0.4 1 0.4
0.4 1 0.6
0.4 1 0.8
0.4 1 1
0.4 1 1.2
0.4 1 1.4
0.4 1 1.6
0.4 1 1.8
0.4 1 2
0.6 0 0
0.6 0 0.2
0.6 0 0.4
0.6 0 0.6
0.6 0 0.8
0.6 0 1
0.6 0 1.2
0.6 0 1.4
0.6 0 1.6
0.6 0 1.8
0.6 0 2
0.6 0.1 0
0.6 0.1 0.2
0.6 0.1 0.4
0.6 0.1 0.6
0.6 0.1 0.8
0.6 0.1 1
0.6 0.1 1.2
0.6 0.1 1.4
0.6 0.1 1.6
0.6 0.1 1.8
0.6 0.1 2
0.6 0.2 0
0.6 0.2 0.2
0.6 0.2 0.4
0.6 0.2 0.6
0.6 0.2 0.8
0.6 0.2 1
0.6 0.2 1.2
0.6 0.2 1.4
0.6 0.2 1.6
0.6 0.2 1.8
0.6 0.2 2
0.6 0.3 0
0.6 0.3 0.2
0.6 0.3 0.4
0.6 0.3 0.6
0.6 0.3 0.8
0.6 0.3 1
0.6 0.3 1.2
0.6 0.3 1.4
0.6 0.3 1.6
0.6 0.3 1.8
0.6 0.3 2
0.6 0.4 0
0.6 0.4 0.2
0.6 0.4 0.4
0.6 0.4 0.6
0.6 0.4 0.8
0.6 0.4 1
0.6 0.4 1.2
0.6 0.4 1.4
0.6 0.4 1.6
0.6 0.4 1.8
0.6 0.4 2
0.6 0.5 0
0.6 0.5 0.2
0.6 0.5 0.4
0.6 0.5 0.6
0.6 0.5 0.8
0.6 0.5 1
0.6 0.5 1.2
0.6 0.5 1.4
0.6 0.5 1.6
0.6 0.5 1.8
0.6 0.5 2
0.6 0.6 0
0.6 0.6 0.2
0.6 0.6 0.4
0.6 0.6 0.6
0.6 0.6 0.8
0.6 0.6 1
0.6 0.6 1.2
0.6 0.6 1.4
0.6 0.6 1.6
0.6 0.6 1.8
0.6 0.6 2
0.6 0.7 0
0.6 0.7 0.2
0.6 0.7 0.4
0.6 0.7 0.6
0.6 0.7 0.8
0.6 0.7 1
0.6 0.7 1.2
0.6 0.7 1.4
0.6 0.7 1.6
0.6 0.7 1.8
0.6 0.7 2
0.6 0.8 0
0.6 0.8 0.2
0.6 0.8 0.4
0.6 0.8 0.6
0.6 0.8 0.8
0.6 0.8 1
0.6 0.8 1.2
0.6 0.8 1.4
0.6 0.8 1.6
0.6 0.8 1.8
0.6 0.8 2
0.6 0.9 0
0.6 0.9 0.2
0.6 0.9 0.4
0.6 0.9 0.6
0.6 0.9 0.8
0.6 0.9 1
0.6 0.9 1.2
0.6 0.9 1.4
0.6 0.9 1.6
0.6 0.9 1.8
0.6 0.9 2
0.6 1 0
0.6 1 0.2
0.6 1 0.4
0.6 1 0.6
0.6 1 0.8
0.6 1 1
0.6 1 1.2
0.6 1 1.4
0.6 1 1.6
0.6 1 1.8
0.6 1 2
0.8 0 0
0.8 0 0.2
0.8 0 0.4
0.8 0 0.6
0.8 0 0.8
0.8 0 1
0.8 0 1.2
0.8 0 1.4
0.8 0 1.6
0.8 0 1.8
0.8 0 2
0.8 0.1 0
0.8 0.1 0.2
0.8 0.1 0.4
0.8 0.1 0.6
0.8 0.1 0.8
0.8 0.1 1
0.8 0.1 1.2
0.8 0.1 1.4
0.8 0.1 1.6
0.8 0.1 1.8
0.8 0.1 2
0.8 0.2 0
0.8 0.2 0.2
0.8 0.2 0.4
0.8 0.2 0.6
0.8 0.2 0.8
0.8 0.2 1
0.8 0.2 1.2
0.8 0.2 1.4
0.8 0.2 1.6
0.8 0.2 1.8
0.8 0.2 2
0.8 0.3 0
0.8 0.3 0.2
0.8 0.3 0.4
0.8 0.3 0.6
0.8 0.3 0.8
0.8 0.3 1
0.8 0.3 1.2
0.8 0.3 1.4
0.8 0.3 1.6
0.8 0.3 1.8
0.8 0.3 2
0.8 0.4 0
0.8 0.4 0.2
0.8 0.4 0.4
0.8 0.4 0.6
0.8 0.4 0.8
0.8 0.4 1
0.8 0.4 1.2
0.8 0.4 1.4
0.8 0.4 1.6
0.8 0.4 1.8
0.8 0.4 2
0.8 0.5 0
0.8 0.5 0.2
0.8 0.5 0.4
0.8 0.5 0.6
0.8 0.5 0.8
0.8 0.5 1
0.8 0.5 1.2
0.8 0.5 1.4
0.8 0.5 1.6
0.8 0.5 1.8
0.8 0.5 2
0.8 0.6 0
0.8 0.6 0.2
0.8 0.6 0.4
0.8 0.6 0.6
0.8 0.6 0.8
0.8 0.6 1
0.8 0.6 1.2
0.8 0.6 1.4
0.8 0.6 1.6
0.8 0.6 1.8
0.8 0.6 2
0.8 0.7 0
0.8 0.7 0.2
0.8 0.7 0.4
0.8 0.7 0.6
0.8 0.7 0.8
0.8 0.7 1
0.8 0.7 1.2
0.8 0.7 1.4
0.8 0.7 1.6
0.8 0.7 1.8
0.8 0.7 2
0.8 0.8 0
0.8 0.8 0.2
0.8 0.8 0.4
0.8 0.8 0.6
0.8 0.8 0.8
0.8 0.8 1
0.8 0.8 1.2
0.8 0.8 1.4
0.8 0.8 1.6
0.8 0.8 1.8
0.8 0.8 2
0.8 0.9 0
0.8 0.9 0.2
0.8 0.9 0.4
0.8 0.9 0.6
0.8 0.9 0.8
0.8 0.9 1
0.8 0.9 1.2
0.8 0.9 1.4
0.8 0.9 1.6
0.8 0.9 1.8
0.8 0.9 2
0.8 1 0
0.8 1 0.2
0.8 1 0.4
0.8 1 0.6
0.8 1 0.8
0.8 1 1
0.8 1 1.2
0.8 1 1.4
0.8 1 1.6
0.8 1 1.8
0.8 1 2
1 0 0
1 0 0.2
1 0 0.4
1 0 0.6
1 0 0.8
1 0 1
1 0 1.2
1 0 1.4
1 0 1.6
1 0 1.8
1 0 2
1 0.1 0
1 0.1 0.2
1 0.1 0.4
1 0.1 0.6
1 0.1 0.8
1 0.1 1
1 0.1 1.2
1 0.1 1.4
1 0.1 1.6
1 0.1 1.8
1 0.1 2
1 0.2 0
1 0.2 0.2
1 0.2 0.4
1 0.2 0.6
1 0.2 0.8
1 0.2 1
1 0.2 1.2
1 0.2 1.4
1 0.2 1.6
1 0.2 1.8
1 0.2 2
1 0.3 0
1 0.3 0.2
1 0.3 0.4
1 0.3 0.6
1 0.3 0.8
1 0.3 1
1 0.3 1.2
1 0.3 1.4
1 0.3 1.6
1 0.3 1.8
1 0.3 2
1 0.4 0
1 0.4 0.2
1 0.4 0.4
1 0.4 0.6
1 0.4 0.8
1 0.4 1
1 0.4 1.2
1 0.4 1.4
1 0.4 1.6
1 0.4 1.8
1 0.4 2
1 0.5 0
1 0.5 0.2
1 0.5 0.4
1 0.5 0.6
1 0.5 0.8
1 0.5 1
1 0.5 1.2
1 0.5 1.4
1 0.5 1.6
1 0.5 1.8
1 0.5 2
1 0.6 0
1 0.6 0.2
1 0.6 0.4
1 0.6 0.6
1 0.6 0.8
1 0.6 1
1 0.6 1.2
1 0.6 1.4
1 0.6 1.6
1 0.6 1.8
1 0.6 2
1 0.7 0
1 0.7 0.2
1 0.7 0.4
1 0.7 0.6
1 0.7 0.8
1 0.7 1
1 0.7 1.2
1 0.7 1.4
1 0.7 1.6
1 0.7 1.8
1 0.7 2
1 0.8 0
1 0.8 0.2
1 0.8 0.4
1 0.8 0.6
1 0.8 0.8
1 0.8 1
1 0.8 1.2
1 0.8 1.4
1 0.8 1.6
1 0.8 1.8
1 0.8 2
1 0.9 0
1 0.9 0.2
1 0.9 0.4
1 0.9 0.6
1 0.9 0.8
1 0.9 1
1 0.9 1.2
1 0.9 1.4
1 0.9 1.6
1 0.9 1.8
1 0.9 2
1 1 0
1 1 0.2
1 1 0.4
1 1 0.6
1 1 0.8
1 1 1
1 1 1.2
1 1 1.4
1 1 1.6
1 1 1.8
1 1 2
1.2 0 0
1.2 0 0.2
1.2 0 0.4
1.2 0 0.6
1.2 0 0.8
1.2 0 1
1.2 0 1.2
1.2 0 1.4
1.2 0 1.6
1.2 0 1.8
1.2 0 2
1.2 0.1 0
1.2 0.1 0.2
1.2 0.1 0.4
1.2 0.1 0.6
1.2 0.1 0.8
1.2 0.1 1
1.2 0.1 1.2
1.2 0.1 1.4
1.2 0.1 1.6
1.2 0.1 1.8
1.2 0.1 2
1.2 0.2 0
1.2 0.2 0.2
1.2 0.2 0.4
1.2 0.2 0.6
1.2 0.2 0.8
1.2 0.2 1
1.2 0.2 1.2
1.2 0.2 1.4
1.2 0.2 1.6
1.2 0.2 1.8
1.2 0.2 2
1.2 0.3 0
1.2 0.3 0.2
1.2 0.3 0.4
1.2 0.3 0.6
1.2 0.3 0.8
1.2 0.3 1
1.2 0.3 1.2
1.2 0.3 1.4
1.2 0.3 1.6
1.2 0.3 1.8
1.2 0.3 2
1.2 0.4 0
1.2 0.4 0.2
1.2 0.4 0.4
1.2 0.4 0.6
1.2 0.4 0.8
1.2 0.4 1
1.2 0.4 1.2
1.2 0.4 1.4
1.2 0.4 1.6
1.2 0.4 1.8
1.2 0.4 2
1.2 0.5 0
1.2 0.5 0.2
1.2 0.5 0.4
1.2 0.5 0.6
1.2 0.5 0.8
1.2 0.5 1
1.2 0.5 1.2
1.2 0.5 1.4
1.2 0.5 1.6
1.2 0.5 1.8
1.2 0.5 2
1.2 0.6 0
1.2 0.6 0.2
1.2 0.6 0.4
1.2 0.6 0.6
1.2 0.6 0.8
1.2 0.6 1
1.2 0.6 1.2
1.2 0.6 1.4
1.2 0.6 1.6
1.2 0.6 1.8
1.2 0.6 2
1.2 0.7 0
1.2 0.7 0.2
1.2 0.7 0.4
1.2 0.7 0.6
1.2 0.7 0.8
1.2 0.7 1
1.2 0.7 1.2
1.2 0.7 1.4
1.2 0.7 1.6
1.2 0.7 1.8
1.2 0.7 2
1.2 0.8 0
1.2 0.8 0.2
1.2 0.8 0.4
1.2 0.8 0.6
1.2 0.8 0.8
1.2 0.8 1
1.2 0.8 1.2
1.2 0.8 1.4
1.2 0.8 1.6
1.2 0.8 1.8
1.2 0.8 2
1.2 0.9 0
1.2 0.9 0.2
1.2 0.9 0.4
1.2 0.9 0.6
1.2 0.9 0.8
1.2 0.9 1
1.2 0.9 1.2
1.2 0.9 1.4
1.2 0.9 1.6
1.2 0.9 1.8
1.2 0.9 2
1.2 1 0
1.2 1 0.2
1.2 1 0.4
1.2 1 0.6
1.2 1 0.8
1.2 1 1
1.2 1 1.2
1.2 1 1.4
1.2 1 1.6
1.2 1 1.8
1.2 1 2
1.4 0 0
1.4 0 0.2
1.4 0 0.4
1.4 0 0.6
1.4 0 0.8
1.4 0 1
1.4 0 1.2
1.4 0 1.4
1.4 0 1.6
1.4 0 1.8
1.4 0 2
1.4 0.1 0
1.4 0.1 0.2
1.4 0.1 0.4
1.4 0.1 0.6
1.4 0.1 0.8
1.4 0.1 1
1.4 0.1 1.2
1.4 0.1 1.4
1.4 0.1 1.6
1.4 0.1 1.8
1.4 0.1 2
1.4 0.2 0
1.4 0.2 0.2
1.4 0.2 0.4
1.4 0.2 0.6
1.4 0.2 0.8
1.4 0.2 1
1.4 0.2 1.2
1.4 0.2 1.4
1.4 0.2 1.6
1.4 0.2 1.8
1.4 0.2 2
1.4 0.3 0
1.4 0.3 0.2
1.4 0.3 0.4
1.4 0.3 0.6
1.4 0.3 0.8
1.4 0.3 1
1.4 0.3 1.2
1.4 0.3 1.4
1.4 0.3 1.6
1.4 0.3 1.8
1.4 0.3 2
1.4 0.4 0
1.4 0.4 0.2
1.4 0.4 0.4
1.4 0.4 0.6
1.4 0.4 0.8
1.4 0.4 1
1.4 0.4 1.2
1.4 0.4 1.4
1.4 0.4 1.6
1.4 0.4 1.8
1.4 0.4 2
1.4 0.5 0
1.4 0.5 0.2
1.4 0.5 0.4
1.4 0.5 0.6
1.4 0.5 0.8
1.4 0.5 1
1.4 0.5 1.2
1.4 0.5 1.4
1.4 0.5 1.6
1.4 0.5 1.8
1.4 0.5 2
1.4 0.6 0
1.4 0.6 0.2
1.4 0.6 0.4
1.4 0.6 0.6
1.4 0.6 0.8
1.4 0.6 1
1.4 0.6 1.2
1.4 0.6 1.4
1.4 0.6 1.6
1.4 0.6 1.8
1.4 0.6 2
1.4 0.7 0
1.4 0.7 0.2
1.4 0.7 0.4
1.4 0.7 0.6
1.4 0.7 0.8
1.4 0.7 1
1.4 0.7 1.2
1.4 0.7 1.4
1.4 0.7 1.6
1.4 0.7 1.8
[...]
POINT_DATA 12342

SCALARS v double
LOOKUP_TABLE default
-0
6.77425e+14
-2.11899e+15
1.38166e+15
-3.32823e+14
3.0681e+15
-1.23416e+16
1.18283e+16
-1.40419e+16
4.77095e+15
-0
0
-6.77425e+14
2.11899e+15
-1.38166e+15
3.32823e+14
-3.0681e+15
1.23416e+16
-1.18283e+16
1.40419e+16
-4.77095e+15
0
0
-5.56095e+14
1.5876e+15
-7.95233e+14
-2.61318e+14
-2.0105e+15
7.97004e+15
-7.45132e+15
1.08236e+16
-4.19974e+15
0
0
-3.01631e+14
8.38221e+14
-2.96383e+14
-2.07196e+14
-1.10201e+15
3.76178e+15
-3.24958e+15
5.95997e+15
-2.51178e+15
0
0
-4.66516e+12
4.79602e+13
1.51488e+14
1.40008e+14
-1.91359e+14
-1.30071e+14
5.21173e+14
5.62668e+14
-3.4841e+14
0
0
2.99318e+14
-7.47185e+14
5.82862e+14
5.4513e+14
7.21253e+14
-3.83962e+15
4.07777e+15
-5.00491e+15
1.96401e+15
0
0
5.89449e+14
-1.54112e+15
1.01074e+15
8.15764e+14
1.61401e+15
-7.57269e+15
7.7075e+15
-1.05494e+16
4.19014e+15
0
0
8.34694e+14
-2.29771e+15
1.45388e+15
6.87468e+14
2.59175e+15
-1.16548e+16
1.16567e+16
-1.56906e+16
6.00989e+15
0
0
9.5352e+14
-2.84658e+15
1.94128e+15
-2.86337e+14
4.08325e+15
-1.63761e+16
1.5807e+16
-1.9145e+16
6.71913e+15
0
0
0
0
0
0
0
0
0
0
0
0
-0
-0
-0
-0
-0
-0
-0
-0
-0
-0
-0
-0
-6.77425e+14
2.11899e+15
-1.38166e+15
3.32823e+14
-3.0681e+15
1.23416e+16
-1.18283e+16
1.40419e+16
-4.77095e+15
-0
0
-6.86332e+30
1.20268e+31
1.46765e+29
8.26269e+31
-3.18673e+32
2.29795e+32
-2.94836e+32
3.77994e+32
-5.02138e+32
0
0
-5.42503e+30
1.05191e+31
2.38915e+30
6.22866e+31
-2.22812e+32
1.34442e+32
-1.65815e+32
2.89562e+32
-4.12757e+32
0
0
-3.55698e+30
4.6752e+30
1.68938e+29
3.28156e+31
-1.08723e+32
5.86977e+31
-6.87316e+31
1.37836e+32
-2.30032e+32
0
0
-1.85675e+30
-2.86439e+30
-4.68753e+30
-9.07378e+29
9.3478e+30
-8.45188e+30
5.21214e+29
-3.23558e+31
-8.01193e+30
0
0
-1.34749e+29
-1.04401e+31
-1.00482e+31
-3.59414e+31
1.27285e+32
-7.13213e+31
5.64814e+31
-2.0221e+32
2.24338e+32
0
0
1.95136e+30
-1.66551e+31
-1.35398e+31
-6.94099e+31
2.41786e+32
-1.31855e+32
1.16122e+32
-3.57038e+32
4.42823e+32
0
0
4.51722e+30
-1.99632e+31
-1.23574e+31
-9.72968e+31
3.45972e+32
-1.98002e+32
2.01242e+32
-4.71162e+32
6.13474e+32
0
0
7.00222e+30
-1.84044e+31
-3.29327e+30
-1.11592e+32
4.18534e+32
-2.86185e+32
3.30425e+32
-4.88397e+32
6.68162e+32
0
0
0
0
0
0
0
0
0
0
0
0
-0
-0
-0
-0
-0
-0
-0
-0
-0
-0
-0
-0
-4.92373e+14
1.49579e+15
-1.17366e+15
-1.23001e+15
-2.13161e+15
5.91195e+15
-1.2514e+16
1.0867e+16
-3.81974e+15
-0
0
-2.95547e+30
1.07582e+31
3.4365e+30
5.22888e+31
-1.42629e+32
1.09129e+32
1.02943e+32
4.83458e+32
-2.88628e+32
0
0
-2.42522e+30
9.0487e+30
4.1468e+30
3.93853e+31
-1.03926e+32
1.3151e+32
6.29723e+31
3.7735e+32
-2.19413e+32
0
0
-2.02148e+30
4.36e+30
1.51807e+30
2.08004e+31
-5.77322e+31
9.15762e+31
3.27085e+31
2.04148e+32
-1.17111e+32
0
0
-1.76856e+30
-1.55163e+30
-3.01182e+30
-6.87785e+29
-7.68286e+30
2.29001e+31
2.42875e+30
5.46426e+30
5.65672e+29
0
0
-1.428e+30
-7.5727e+30
-7.91778e+30
-2.29375e+31
4.4529e+31
-5.41076e+31
-2.954e+31
-1.9892e+32
1.22241e+32
0
0
-6.97485e+29
-1.2804e+31
-1.14798e+31
-4.41067e+31
9.83372e+31
-1.24824e+32
-6.18985e+31
-3.94386e+32
2.37158e+32
0
0
6.2047e+29
-1.62098e+31
-1.19206e+31
-6.17283e+31
1.52172e+32
-1.72134e+32
-9.46736e+31
-5.58424e+32
3.31211e+32
0
0
2.39934e+30
-1.6524e+31
-7.07187e+30
-7.15003e+31
1.98226e+32
-1.73192e+32
-1.26515e+32
-6.36711e+32
3.77563e+32
0
0
0
0
0
0
0
0
0
0
0
0
-0
-0
-0
-0
-0
-0
-0
-0
-0
-0
-0
-0
-9.62822e+13
1.80267e+14
-6.35411e+14
-4.82859e+13
-1.55386e+15
1.37268e+15
-5.94087e+15
2.52319e+15
-1.06615e+15
-0
0
-9.45467e+28
2.39218e+30
5.41153e+29
9.81119e+30
-9.07343e+30
1.12416e+32
-8.91379e+31
1.80888e+32
-2.89133e+31
0
0
-5.09599e+29
2.04293e+30
4.72341e+28
9.22776e+30
-1.9281e+31
1.08324e+32
-1.1318e+32
1.4189e+32
-2.5114e+31
0
0
-9.11883e+29
6.14675e+29
-8.81391e+29
4.69424e+30
-1.4121e+31
6.64645e+31
-7.45538e+31
8.10891e+31
-1.11577e+31
0
0
-1.3314e+30
-1.30132e+30
-2.27336e+30
-1.45392e+30
-4.09865e+30
1.36479e+31
-1.19697e+31
1.57425e+31
8.21427e+30
0
0
-1.65297e+30
-3.21143e+30
-3.64518e+30
-7.89996e+30
6.80979e+30
-4.10123e+31
5.63427e+31
-5.07455e+31
2.85006e+31
0
0
-1.72248e+30
-4.67306e+30
-4.35413e+30
-1.35047e+31
1.64822e+31
-9.34138e+31
1.1905e+32
-1.182e+32
4.4818e+31
0
0
-1.42935e+30
-5.27954e+30
-3.85647e+30
-1.67632e+31
2.19173e+31
-1.3626e+32
1.57941e+32
-1.84533e+32
5.19341e+31
0
0
-7.84083e+29
-4.59924e+30
-1.9784e+30
-1.48877e+31
1.66158e+31
-1.5044e+32
1.36412e+32
-2.34437e+32
4.41881e+31
0
0
0
0
0
0
0
0
0
0
0
0
-0
-0
-0
-0
-0
-0
-0
-0
-0
-0
-0
-0
-1.09958e+13
1.99671e+13
-6.06993e+13
2.02208e+14
-3.64662e+14
1.20406e+15
-6.09095e+14
3.82481e+14
-1.96337e+14
-0
0
-1.33556e+29
5.06101e+28
-5.23326e+29
1.01071e+30
-5.68201e+30
8.59231e+30
-5.04095e+31
-9.60562e+30
-5.7937e+30
0
0
-3.40323e+29
-1.32909e+29
-6.11512e+29
5.29391e+29
-6.7831e+30
-1.3134e+30
-4.87529e+31
-5.82343e+30
-5.63321e+30
0
0
-5.73279e+29
-4.77512e+29
-8.11911e+29
-2.2657e+29
-4.67642e+30
-2.82037e+30
-3.04011e+31
-1.57559e+30
-1.39743e+30
0
0
-7.94853e+29
-9.09032e+29
-1.06973e+30
-9.65785e+29
-4.9552e+29
-5.62772e+29
-3.21677e+30
3.29118e+30
5.05327e+30
0
0
-9.43897e+29
-1.28955e+30
-1.25248e+30
-1.57993e+30
4.29347e+30
2.7188e+30
2.66015e+31
8.15565e+30
1.1705e+31
0
0
-9.54022e+29
-1.47017e+30
-1.20224e+30
-2.00109e+30
8.29643e+30
4.79857e+30
5.3584e+31
1.19872e+31
1.6433e+31
0
0
-7.82837e+29
-1.3247e+30
-8.07516e+29
-2.11384e+30
9.98042e+30
3.01041e+30
7.12295e+31
1.41577e+31
1.71846e+31
0
0
-4.39606e+29
-7.79316e+29
-1.08706e+29
-1.69632e+30
7.81275e+30
-6.2204e+30
7.05985e+31
1.49833e+31
1.21782e+31
0
0
0
0
0
0
0
0
0
0
0
0
-0
-0
-0
-0
-0
-0
-0
-0
-0
-0
-0
-0
5.16517e+11
5.79376e+12
3.58541e+12
5.20946e+13
5.70653e+13
3.18263e+14
5.1045e+13
6.213e+13
-3.28171e+13
-0
0
-1.00193e+29
-7.6515e+28
-1.67956e+29
-1.65123e+29
-1.68097e+30
-4.78205e+30
-8.28927e+30
-3.88894e+30
-1.30801e+30
0
0
-2.13929e+29
-1.87209e+29
-2.84686e+29
-3.18339e+29
-2.02758e+30
-5.41064e+30
-9.60851e+30
-3.65037e+30
-1.13417e+30
0
0
-3.26377e+29
-3.15605e+29
-3.65419e+29
-3.33051e+29
-1.29834e+30
-3.38755e+30
-5.84042e+30
-1.27989e+30
5.02287e+29
0
0
-4.19307e+29
-4.37666e+29
-4.05226e+29
-1.96269e+29
2.39113e+29
3.7127e+29
9.38498e+29
2.24383e+30
3.00158e+30
0
0
-4.68682e+29
-5.18461e+29
-3.93747e+29
1.87788e+28
2.02501e+30
4.6266e+30
8.5375e+30
5.91334e+30
5.49968e+30
0
0
-4.52123e+29
-5.234e+29
-3.245e+29
2.03459e+29
3.41423e+30
8.08089e+30
1.47214e+31
8.6689e+30
7.06022e+30
0
0
-3.58501e+29
-4.3034e+29
-2.05262e+29
2.65318e+29
3.80217e+30
9.46683e+30
1.71167e+31
9.48185e+30
6.86246e+30
0
0
-1.95689e+29
-2.41466e+29
-7.13989e+28
1.72718e+29
2.78799e+30
7.82713e+30
1.32026e+31
7.34286e+30
4.43123e+30
0
0
0
0
0
0
0
0
0
0
0
0
-0
-0
-0
-0
-0
-0
-0
-0
-0
-0
-0
-0
9.504e+11
1.95262e+12
2.6163e+12
1.16894e+13
2.67443e+13
5.62421e+13
2.25803e+13
9.52922e+12
-7.03629e+12
-0
0
-5.45491e+28
-4.95195e+28
-5.99053e+28
-8.98835e+28
-3.82562e+29
-1.08989e+30
-1.36752e+30
-6.52671e+29
-1.24168e+29
0
0
-1.12213e+29
-1.03106e+29
-1.06741e+29
-1.27275e+29
-4.67535e+29
-1.23678e+30
-1.61555e+30
-5.62717e+29
1.1523e+29
0
0
-1.62293e+29
-1.49371e+29
-1.24013e+29
-7.05457e+28
-1.82391e+29
-5.48685e+29
-6.46049e+29
2.48335e+29
7.8983e+29
0
0
-1.97537e+29
-1.8129e+29
-1.11888e+29
6.60559e+28
3.75566e+29
7.06647e+29
1.13012e+30
1.49476e+30
1.72011e+30
0
0
-2.10157e+29
-1.91923e+29
-7.88088e+28
2.26946e+29
9.95043e+29
2.0847e+30
3.06588e+30
2.74734e+30
2.5823e+30
0
0
-1.94245e+29
-1.76438e+29
-3.83479e+28
3.39737e+29
1.42379e+30
3.0818e+30
4.43861e+30
3.53423e+30
3.01673e+30
0
0
-1.48373e+29
-1.34061e+29
-4.96957e+27
3.44576e+29
1.44339e+30
3.24328e+30
4.57999e+30
3.44432e+30
2.74059e+30
0
0
-7.73203e+28
-6.9407e+28
1.05502e+28
2.21484e+29
9.46622e+29
2.28396e+30
3.05633e+30
2.2418e+30
1.66511e+30
0
0
0
0
0
0
0
0
0
0
0
0
-0
-0
-0
-0
-0
-0
-0
-0
-0
-0
-0
-0
3.13028e+11
4.41094e+11
6.2502e+11
2.22399e+12
5.3322e+12
8.46395e+12
3.60587e+12
7.51351e+10
-2.88286e+12
-0
0
-2.29245e+28
-1.85371e+28
-1.24972e+28
-9.78063e+27
-4.92789e+28
-1.45074e+29
-1.54803e+29
-6.20399e+27
1.09055e+29
0
0
-4.88207e+28
-3.95554e+28
-2.2399e+28
-1.51677e+27
-2.78047e+28
-1.15765e+29
-1.00786e+29
1.31457e+29
2.99417e+29
0
0
-6.93563e+28
-5.45486e+28
-1.94326e+28
4.16082e+28
9.66301e+28
1.24808e+29
2.21393e+29
4.46401e+29
5.952e+29
0
0
-8.17891e+28
-6.15746e+28
-4.87612e+27
1.10666e+29
2.93418e+29
5.07563e+29
7.21299e+29
8.62272e+29
9.37321e+29
0
0
-8.39071e+28
-5.99883e+28
1.48489e+28
1.80189e+29
4.90624e+29
8.94367e+29
1.21802e+30
1.23681e+30
1.21409e+30
0
0
-7.46098e+28
-5.04159e+28
3.09432e+28
2.18742e+29
6.02473e+29
1.12498e+30
1.50333e+30
1.41117e+30
1.30316e+30
0
0
-5.44037e+28
-3.44674e+28
3.59097e+28
2.02182e+29
5.61072e+29
1.0683e+30
1.40763e+30
1.26358e+30
1.11888e+30
0
0
-2.56044e+28
-1.43013e+28
2.69438e+28
1.25378e+29
3.4647e+29
6.73297e+29
8.70274e+29
7.62087e+29
6.54852e+29
0
0
0
0
0
0
0
0
0
0
0
0
-0
-0
-0
-0
-0
-0
-0
-0
-0
-0
-0
-0
-1.05111e+11
-1.48168e+11
-2.19422e+11
-1.08816e+11
2.24987e+11
3.79308e+11
-5.08374e+11
-1.26934e+12
-1.78247e+12
-0
0
-5.91877e+27
-2.12568e+27
5.47145e+27
1.58233e+28
2.24263e+28
2.3683e+28
4.03528e+28
7.9729e+28
1.08538e+29
0
0
-1.59663e+28
-8.25663e+27
8.13253e+27
3.28537e+28
5.70609e+28
7.69271e+28
1.16047e+29
1.82314e+29
2.27837e+29
0
0
-2.34161e+28
-1.17961e+28
1.46724e+28
5.88663e+28
1.14924e+29
1.74169e+29
2.43146e+29
3.17405e+29
3.6288e+29
0
0
-2.73125e+28
-1.23484e+28
2.39168e+28
8.94019e+28
1.85175e+29
2.95484e+29
3.96302e+29
4.60508e+29
4.91479e+29
0
0
-2.71206e+28
-1.02609e+28
3.26571e+28
1.14524e+29
2.44484e+29
4.0013e+29
5.24687e+29
5.67198e+29
5.76238e+29
0
0
-2.28109e+28
-6.38596e+27
3.69788e+28
1.22803e+29
2.66181e+29
4.41948e+29
5.71364e+29
5.89803e+29
5.78649e+29
0
0
-1.48723e+28
-1.69127e+27
3.40105e+28
1.06354e+29
2.31366e+29
3.8739e+29
4.95636e+29
4.96701e+29
4.75566e+29
0
0
-4.24848e+27
3.11462e+27
2.33869e+28
6.50061e+28
1.38485e+29
2.31654e+29
2.93266e+29
2.88885e+29
2.72466e+29
0
0
0
0
0
0
0
0
0
0
0
0
-0
-0
-0
-0
-0
-0
-0
-0
-0
-0
-0
-0
-2.90346e+11
-3.43886e+11
-4.43028e+11
-5.48956e+11
-6.34416e+11
-7.47088e+11
-9.60661e+11
-1.11792e+12
-1.19838e+12
-0
0
1.85009e+27
4.48228e+27
9.95206e+27
1.81295e+28
2.76513e+28
3.75167e+28
4.95309e+28
6.30557e+28
7.17656e+28
0
0
-1.19019e+27
3.99623e+27
1.49947e+28
3.19672e+28
5.28443e+28
7.51461e+28
9.95515e+28
1.23714e+29
1.38459e+29
0
0
-3.27044e+27
4.21315e+27
2.05143e+28
4.66842e+28
8.08601e+28
1.18341e+29
1.54961e+29
1.85003e+29
2.01674e+29
0
0
-4.11657e+27
5.09144e+27
2.57094e+28
6.00881e+28
1.07321e+29
1.60079e+29
2.06888e+29
2.376e+29
2.52227e+29
0
0
-3.64841e+27
6.31053e+27
2.91651e+28
6.8499e+28
1.24676e+29
1.88201e+29
2.40493e+29
2.67489e+29
2.77497e+29
0
0
-1.96684e+27
7.41951e+27
2.93922e+28
6.81352e+28
1.25056e+29
1.89997e+29
2.40535e+29
2.61067e+29
2.6592e+29
0
0
6.93111e+26
8.0454e+27
2.55092e+28
5.68275e+28
1.03758e+29
1.57673e+29
1.97953e+29
2.11112e+29
2.12176e+29
0
0
4.02139e+27
8.06732e+27
1.77675e+28
3.53386e+28
6.19893e+28
9.27671e+28
1.15146e+29
1.21363e+29
1.20978e+29
0
0
0
0
0
0
0
0
0
0
0
0
-0
-0
-0
-0
-0
-0
-0
-0
-0
-0
-0
-0
-3.52508e+11
-3.88031e+11
-4.55391e+11
-5.42354e+11
-6.31023e+11
-7.12535e+11
-7.81504e+11
-8.1733e+11
-8.27781e+11
-0
0
4.87907e+27
6.46467e+27
9.73036e+27
1.46359e+28
2.07148e+28
2.72601e+28
3.3755e+28
3.93239e+28
4.25328e+28
0
0
4.55341e+27
7.62083e+27
1.39912e+28
2.36796e+28
3.58695e+28
4.90396e+28
6.16919e+28
7.197e+28
7.76938e+28
0
0
4.45117e+27
8.76031e+27
1.78161e+28
3.18261e+28
4.98074e+28
6.93048e+28
8.72573e+28
1.00717e+29
1.07802e+29
0
0
4.60762e+27
9.75418e+27
2.07131e+28
3.79808e+28
6.05941e+28
8.51873e+28
1.06857e+29
1.21622e+29
1.28813e+29
0
0
4.99757e+27
1.04078e+28
2.20743e+28
4.07712e+28
6.56969e+28
9.28675e+28
1.15869e+29
1.30049e+29
1.36313e+29
0
0
5.55482e+27
1.05317e+28
2.13806e+28
3.90135e+28
6.28622e+28
8.89071e+28
1.10235e+29
1.22202e+29
1.26926e+29
0
0
6.20294e+27
1.00299e+28
1.84417e+28
3.2257e+28
5.11415e+28
7.17971e+28
8.82931e+28
9.68521e+28
9.98657e+28
0
0
6.88316e+27
8.96368e+27
1.35628e+28
2.11658e+28
3.16273e+28
4.30834e+28
5.20875e+28
5.65203e+28
5.79436e+28
0
0
0
0
0
0
0
0
0
0
0
0
-0
-0
-0
-0
-0
-0
-0
-0
-0
-0
-0
-0
-3.63222e+11
-3.82821e+11
-4.1998e+11
-4.68822e+11
-5.19436e+11
-5.62219e+11
-5.90263e+11
-6.01521e+11
-6.02889e+11
-0
0
5.79357e+27
6.66881e+27
8.44267e+27
1.1068e+28
1.43163e+28
1.77836e+28
2.10071e+28
2.35087e+28
2.48658e+28
0
0
6.32402e+27
7.99985e+27
1.14079e+28
1.64776e+28
2.27828e+28
2.9511e+28
3.56847e+28
4.03664e+28
4.28632e+28
0
0
6.81614e+27
9.13274e+27
1.38696e+28
2.09704e+28
2.98676e+28
3.93569e+28
4.79038e+28
5.41645e+28
5.74112e+28
0
0
7.23648e+27
9.95182e+27
1.55396e+28
2.399e+28
3.46661e+28
4.6045e+28
5.60807e+28
6.31325e+28
6.66597e+28
0
0
7.54664e+27
1.0348e+28
1.61502e+28
2.5001e+28
3.62721e+28
4.82764e+28
5.86475e+28
6.56247e+28
6.89747e+28
0
0
7.71577e+27
1.02501e+28
1.55299e+28
2.36451e+28
3.40504e+28
4.51254e+28
5.45217e+28
6.05923e+28
6.33887e+28
0
0
7.73492e+27
9.65809e+27
1.36837e+28
1.99076e+28
2.79301e+28
3.6465e+28
4.36048e+28
4.80677e+28
5.00495e+28
0
0
7.62662e+27
8.66233e+27
1.08387e+28
1.42171e+28
1.85868e+28
2.32347e+28
2.70878e+28
2.94442e+28
3.04631e+28
0
0
0
0
0
0
0
0
0
0
0
0
-0
-0
-0
-0
-0
-0
-0
-0
-0
-0
-0
-0
-3.56279e+11
-3.66137e+11
-3.84744e+11
-4.09036e+11
-4.34107e+11
-4.54816e+11
-4.67709e+11
-4.72814e+11
-4.73491e+11
-0
0
5.88255e+27
6.33923e+27
7.25126e+27
8.57731e+27
1.01959e+28
1.19012e+28
1.3447e+28
1.46064e+28
1.52203e+28
0
0
6.55931e+27
7.42926e+27
9.16806e+27
1.1701e+28
1.47981e+28
1.80584e+28
2.09966e+28
2.3179e+28
2.43266e+28
0
0
7.13776e+27
8.32897e+27
1.07155e+28
1.4204e+28
1.84816e+28
2.29801e+28
2.6999e+28
2.99392e+28
3.14659e+28
0
0
7.57563e+27
8.95574e+27
1.17293e+28
1.58001e+28
2.08088e+28
2.60697e+28
3.07221e+28
3.40635e+28
3.57706e+28
0
0
7.84209e+27
9.24886e+27
1.20852e+28
1.62662e+28
2.14278e+28
2.68426e+28
3.15815e+28
3.49198e+28
3.6595e+28
0
0
7.92471e+27
9.18331e+27
1.1729e+28
1.54961e+28
2.01611e+28
2.50495e+28
2.92874e+28
3.22193e+28
3.36651e+28
0
0
7.83519e+27
8.78142e+27
1.07009e+28
1.35505e+28
1.70881e+28
2.07918e+28
2.39786e+28
2.61509e+28
2.7206e+28
0
0
7.61138e+27
8.11694e+27
9.14617e+27
1.06781e+28
1.25834e+28
1.45773e+28
1.62844e+28
1.74362e+28
1.7989e+28
0
0
0
0
0
0
0
0
0
0
0
0
-0
-0
-0
-0
-0
-0
-0
-0
-0
-0
-0
-0
-3.44986e+11
-3.49656e+11
-3.58474e+11
-3.69901e+11
-3.81654e+11
-3.91373e+11
-3.97545e+11
-4.0024e+11
-4.00795e+11
-0
0
5.70448e+27
5.93368e+27
6.38658e+27
7.03491e+27
7.81525e+27
8.62824e+27
9.35727e+27
9.89844e+27
1.01823e+28
0
0
6.30516e+27
6.74138e+27
7.60219e+27
8.83464e+27
1.03185e+28
1.18634e+28
1.32452e+28
1.42672e+28
1.48031e+28
0
0
6.81692e+27
7.41115e+27
8.5845e+27
1.02667e+28
1.22942e+28
1.44033e+28
1.6282e+28
1.76623e+28
1.83825e+28
0
0
7.20593e+27
7.88959e+27
9.24134e+27
1.1183e+28
1.35262e+28
1.59613e+28
1.81197e+28
1.96925e+28
2.05073e+28
0
0
7.45111e+27
8.14266e+27
9.51234e+27
1.14838e+28
1.38663e+28
1.63398e+28
1.85207e+28
2.0096e+28
2.09056e+28
0
0
7.54781e+27
8.16193e+27
9.3806e+27
1.11382e+28
1.32651e+28
1.54712e+28
1.7407e+28
1.87936e+28
1.95005e+28
0
0
7.51004e+27
7.96855e+27
8.8806e+27
1.01984e+28
1.1795e+28
1.34499e+28
1.48963e+28
1.5925e+28
1.64455e+28
0
0
7.36996e+27
7.61292e+27
8.09853e+27
8.80181e+27
9.6549e+27
1.05388e+28
1.13092e+28
1.18539e+28
1.21271e+28
0
0
0
0
0
0
0
0
0
0
0
0
-0
-0
-0
-0
-0
-0
-0
-0
-0
-0
-0
-0
-3.3366e+11
-3.35758e+11
-3.39773e+11
-3.44966e+11
-3.5031e+11
-3.54774e+11
-3.57709e+11
-3.59106e+11
-3.5944e+11
-0
0
5.47237e+27
5.58396e+27
5.8034e+27
6.1139e+27
6.48332e+27
6.86488e+27
7.20518e+27
7.45692e+27
7.58799e+27
0
0
5.95808e+27
6.17127e+27
6.5887e+27
7.17858e+27
7.88007e+27
8.60428e+27
9.24966e+27
9.72701e+27
9.977e+27
0
0
6.37978e+27
6.66964e+27
7.23675e+27
8.03836e+27
8.99184e+27
9.97563e+27
1.08507e+28
1.14963e+28
1.18341e+28
0
0
6.71431e+27
7.04649e+27
7.69661e+27
8.61623e+27
9.71059e+27
1.0839e+28
1.18403e+28
1.25763e+28
1.29604e+28
0
0
6.94826e+27
7.28264e+27
7.93769e+27
8.86523e+27
9.96961e+27
1.11076e+28
1.21148e+28
1.2852e+28
1.32354e+28
0
0
7.07999e+27
7.37534e+27
7.95488e+27
8.77642e+27
9.75521e+27
1.07631e+28
1.1653e+28
1.23017e+28
1.26375e+28
0
0
7.12041e+27
7.33955e+27
7.77083e+27
8.3831e+27
9.11305e+27
9.86437e+27
1.05262e+28
1.10069e+28
1.12542e+28
0
0
7.0921e+27
7.20688e+27
7.4347e+27
7.75909e+27
8.14633e+27
8.54482e+27
8.8951e+27
9.14824e+27
9.27699e+27
0
0
0
0
0
0
0
0
0
0
0
0
-0
-0
-0
-0
-0
-0
-0
-0
-0
-0
-0
-0
-3.23232e+11
-3.24106e+11
-3.25853e+11
-3.28131e+11
-3.30486e+11
-3.32472e+11
-3.33808e+11
-3.34459e+11
-3.34579e+11
-0
0
5.25316e+27
5.30588e+27
5.40997e+27
5.55624e+27
5.72882e+27
5.90588e+27
6.06314e+27
6.17905e+27
6.23851e+27
0
0
5.6418e+27
5.74367e+27
5.9428e+27
6.22173e+27
6.5504e+27
6.88752e+27
7.18717e+27
7.4087e+27
7.52405e+27
0
0
5.9889e+27
6.1276e+27
6.398e+27
6.77652e+27
7.22245e+27
7.6797e+27
8.08586e+27
8.38605e+27
8.54283e+27
0
0
6.27982e+27
6.43849e+27
6.7477e+27
7.18061e+27
7.69063e+27
8.2134e+27
8.67724e+27
9.01958e+27
9.19832e+27
0
0
6.50639e+27
6.66559e+27
6.97606e+27
7.41097e+27
7.92347e+27
8.44855e+27
8.91384e+27
9.25656e+27
9.43511e+27
0
0
6.66805e+27
6.808e+27
7.08153e+27
7.46505e+27
7.91716e+27
8.38019e+27
8.78991e+27
9.09097e+27
9.24722e+27
0
0
6.77212e+27
6.87516e+27
7.07758e+27
7.36191e+27
7.69733e+27
8.04073e+27
8.34413e+27
8.56635e+27
8.68084e+27
0
0
6.83303e+27
6.88589e+27
6.99152e+27
7.14068e+27
7.31697e+27
7.49743e+27
7.65645e+27
7.77212e+27
7.83041e+27
0
0
0
0
0
0
0
0
0
0
0
0
-0
-0
-0
-0
-0
-0
-0
-0
-0
-0
-0
-0
-3.13575e+11
-3.13881e+11
-3.14582e+11
-3.15521e+11
-3.16499e+11
-3.17324e+11
-3.1787e+11
-3.18107e+11
-3.18078e+11
-0
0
5.05901e+27
5.08291e+27
5.13105e+27
5.19868e+27
5.27806e+27
5.35908e+27
5.43067e+27
5.48295e+27
5.50884e+27
0
0
5.37825e+27
5.42566e+27
5.51907e+27
5.64937e+27
5.80195e+27
5.95767e+27
6.09563e+27
6.19725e+27
6.24929e+27
0
0
5.67203e+27
5.73697e+27
5.86415e+27
6.04124e+27
6.24849e+27
6.45996e+27
6.64739e+27
6.78569e+27
6.85711e+27
0
0
5.93154e+27
6.00588e+27
6.15122e+27
6.35353e+27
6.59026e+27
6.83175e+27
7.04571e+27
7.20357e+27
7.28525e+27
0
0
6.15198e+27
6.22637e+27
6.37195e+27
6.57469e+27
6.81194e+27
7.05391e+27
7.26814e+27
7.42601e+27
7.50756e+27
0
0
6.33316e+27
6.39816e+27
6.52588e+27
6.70397e+27
6.91248e+27
7.12508e+27
7.3131e+27
7.45135e+27
7.52236e+27
0
0
6.47959e+27
6.52683e+27
6.62062e+27
6.75181e+27
6.90556e+27
7.06228e+27
7.20065e+27
7.30194e+27
7.35326e+27
0
0
6.60002e+27
6.62324e+27
6.67108e+27
6.73869e+27
6.81822e+27
6.89925e+27
6.97045e+27
7.02188e+27
7.0467e+27
0
0
0
0
0
0
0
0
0
0
0
0
-0
-0
-0
-0
-0
-0
-0
-0
-0
-0
-0
-0
-3.04355e+11
-3.04404e+11
-3.04629e+11
-3.0496e+11
-3.05309e+11
-3.05593e+11
-3.05754e+11
-3.05772e+11
-3.05657e+11
-0
0
4.88518e+27
4.89519e+27
4.91655e+27
4.94688e+27
4.98246e+27
5.01859e+27
5.05022e+27
5.07282e+27
5.08304e+27
0
0
5.15799e+27
5.17914e+27
5.22192e+27
5.28175e+27
5.35158e+27
5.42255e+27
5.48509e+27
5.53066e+27
5.55306e+27
0
0
5.41573e+27
5.44516e+27
5.50386e+27
5.58562e+27
5.68094e+27
5.77781e+27
5.86331e+27
5.92594e+27
5.95734e+27
0
0
5.65328e+27
5.68709e+27
5.75426e+27
5.84773e+27
5.95667e+27
6.06735e+27
6.16508e+27
6.23674e+27
6.27286e+27
0
0
5.86786e+27
5.90159e+27
5.96873e+27
6.06221e+27
6.17117e+27
6.28187e+27
6.37955e+27
6.45111e+27
6.48709e+27
0
0
6.0594e+27
6.08857e+27
6.14713e+27
6.22884e+27
6.32416e+27
6.42098e+27
6.5063e+27
6.56859e+27
6.59955e+27
0
0
6.23059e+27
6.25124e+27
6.29363e+27
6.35317e+27
6.42276e+27
6.49342e+27
6.5555e+27
6.60043e+27
6.62209e+27
0
0
6.38653e+27
6.39569e+27
6.41628e+27
6.44587e+27
6.48073e+27
6.51607e+27
6.5468e+27
6.56836e+27
6.57753e+27
0
0
0
0
0
0
0
0
0
0
0
0
-0
-0
-0
-0
-0
-0
-0
-0
-0
-0
-0
-0
-2.95286e+11
-2.95222e+11
-2.95234e+11
-2.95292e+11
-2.95357e+11
-2.95391e+11
-2.95369e+11
-2.95279e+11
-2.9512e+11
-0
0
4.72394e+27
4.72736e+27
4.73605e+27
4.74883e+27
4.76393e+27
4.77918e+27
4.79226e+27
4.80107e+27
4.80406e+27
0
0
4.96623e+27
4.97488e+27
4.99363e+27
5.02023e+27
5.05133e+27
5.08278e+27
5.11021e+27
5.12969e+27
5.1383e+27
0
0
5.19977e+27
5.21228e+27
5.23849e+27
5.27533e+27
5.31828e+27
5.36176e+27
5.39982e+27
5.42718e+27
5.43993e+27
0
0
5.42165e+27
5.43617e+27