# vtk DataFile Version 2.0
FlowField
ASCII
DATASET STRUCTURED_GRID
DIMENSIONS 62 47 32 
POINTS 93248 double
0 0 0
0.01 0 0
0.02 0 0
0.03 0 0
0.04 0 0
0.05 0 0
0.06 0 0
0.07 0 0
0.08 0 0
0.09 0 0
0.1 0 0
0.11 0 0
0.12 0 0
0.13 0 0
0.14 0 0
0.15 0 0
0.16 0 0
0.17 0 0
0.18 0 0
0.19 0 0
0.2 0 0
0.21 0 0
0.22 0 0
0.23 0 0
0.24 0 0
0.25 0 0
0.26 0 0
0.27 0 0
0.28 0 0
0.29 0 0
0.3 0 0
0.31 0 0
0.32 0 0
0.33 0 0
0.34 0 0
0.35 0 0
0.36 0 0
0.37 0 0
0.38 0 0
0.39 0 0
0.4 0 0
0.41 0 0
0.42 0 0
0.43 0 0
0.44 0 0
0.45 0 0
0.46 0 0
0.47 0 0
0.48 0 0
0.49 0 0
0.5 0 0
0.51 0 0
0.52 0 0
0.53 0 0
0.54 0 0
0.55 0 0
0.56 0 0
0.57 0 0
0.58 0 0
0.59 0 0
0.6 0 0
0.61 0 0
0 0.01 0
0.01 0.01 0
0.02 0.01 0
0.03 0.01 0
0.04 0.01 0
0.05 0.01 0
0.06 0.01 0
0.07 0.01 0
0.08 0.01 0
0.09 0.01 0
0.1 0.01 0
0.11 0.01 0
0.12 0.01 0
0.13 0.01 0
0.14 0.01 0
0.15 0.01 0
0.16 0.01 0
0.17 0.01 0
0.18 0.01 0
0.19 0.01 0
0.2 0.01 0
0.21 0.01 0
0.22 0.01 0
0.23 0.01 0
0.24 0.01 0
0.25 0.01 0
0.26 0.01 0
0.27 0.01 0
0.28 0.01 0
0.29 0.01 0
0.3 0.01 0
0.31 0.01 0
0.32 0.01 0
0.33 0.01 0
0.34 0.01 0
0.35 0.01 0
0.36 0.01 0
0.37 0.01 0
0.38 0.01 0
0.39 0.01 0
0.4 0.01 0
0.41 0.01 0
0.42 0.01 0
0.43 0.01 0
0.44 0.01 0
0.45 0.01 0
0.46 0.01 0
0.47 0.01 0
0.48 0.01 0
0.49 0.01 0
0.5 0.01 0
0.51 0.01 0
0.52 0.01 0
0.53 0.01 0
0.54 0.01 0
0.55 0.01 0
0.56 0.01 0
0.57 0.01 0
0.58 0.01 0
0.59 0.01 0
0.6 0.01 0
0.61 0.01 0
0 0.02 0
0.01 0.02 0
0.02 0.02 0
0.03 0.02 0
0.04 0.02 0
0.05 0.02 0
0.06 0.02 0
0.07 0.02 0
0.08 0.02 0
0.09 0.02 0
0.1 0.02 0
0.11 0.02 0
0.12 0.02 0
0.13 0.02 0
0.14 0.02 0
0.15 0.02 0
0.16 0.02 0
0.17 0.02 0
0.18 0.02 0
0.19 0.02 0
0.2 0.02 0
0.21 0.02 0
0.22 0.02 0
0.23 0.02 0
0.24 0.02 0
0.25 0.02 0
0.26 0.02 0
0.27 0.02 0
0.28 0.02 0
0.29 0.02 0
0.3 0.02 0
0.31 0.02 0
0.32 0.02 0
0.33 0.02 0
0.34 0.02 0
0.35 0.02 0
0.36 0.02 0
0.37 0.02 0
0.38 0.02 0
0.39 0.02 0
0.4 0.02 0
0.41 0.02 0
0.42 0.02 0
0.43 0.02 0
0.44 0.02 0
0.45 0.02 0
0.46 0.02 0
0.47 0.02 0
0.48 0.02 0
0.49 0.02 0
0.5 0.02 0
0.51 0.02 0
0.52 0.02 0
0.53 0.02 0
0.54 0.02 0
0.55 0.02 0
0.56 0.02 0
0.57 0.02 0
0.58 0.02 0
0.59 0.02 0
0.6 0.02 0
0.61 0.02 0
0 0.03 0
0.01 0.03 0
0.02 0.03 0
0.03 0.03 0
0.04 0.03 0
0.05 0.03 0
0.06 0.03 0
0.07 0.03 0
0.08 0.03 0
0.09 0.03 0
0.1 0.03 0
0.11 0.03 0
0.12 0.03 0
0.13 0.03 0
0.14 0.03 0
0.15 0.03 0
0.16 0.03 0
0.17 0.03 0
0.18 0.03 0
0.19 0.03 0
0.2 0.03 0
0.21 0.03 0
0.22 0.03 0
0.23 0.03 0
0.24 0.03 0
0.25 0.03 0
0.26 0.03 0
0.27 0.03 0
0.28 0.03 0
0.29 0.03 0
0.3 0.03 0
0.31 0.03 0
0.32 0.03 0
0.33 0.03 0
0.34 0.03 0
0.35 0.03 0
0.36 0.03 0
0.37 0.03 0
0.38 0.03 0
0.39 0.03 0
0.4 0.03 0
0.41 0.03 0
0.42 0.03 0
0.43 0.03 0
0.44 0.03 0
0.45 0.03 0
0.46 0.03 0
0.47 0.03 0
0.48 0.03 0
0.49 0.03 0
0.5 0.03 0
0.51 0.03 0
0.52 0.03 0
0.53 0.03 0
0.54 0.03 0
0.55 0.03 0
0.56 0.03 0
0.57 0.03 0
0.58 0.03 0
0.59 0.03 0
0.6 0.03 0
0.61 0.03 0
0 0.04 0
0.01 0.04 0
0.02 0.04 0
0.03 0.04 0
0.04 0.04 0
0.05 0.04 0
0.06 0.04 0
0.07 0.04 0
0.08 0.04 0
0.09 0.04 0
0.1 0.04 0
0.11 0.04 0
0.12 0.04 0
0.13 0.04 0
0.14 0.04 0
0.15 0.04 0
0.16 0.04 0
0.17 0.04 0
0.18 0.04 0
0.19 0.04 0
0.2 0.04 0
0.21 0.04 0
0.22 0.04 0
0.23 0.04 0
0.24 0.04 0
0.25 0.04 0
0.26 0.04 0
0.27 0.04 0
0.28 0.04 0
0.29 0.04 0
0.3 0.04 0
0.31 0.04 0
0.32 0.04 0
0.33 0.04 0
0.34 0.04 0
0.35 0.04 0
0.36 0.04 0
0.37 0.04 0
0.38 0.04 0
0.39 0.04 0
0.4 0.04 0
0.41 0.04 0
0.42 0.04 0
0.43 0.04 0
0.44 0.04 0
0.45 0.04 0
0.46 0.04 0
0.47 0.04 0
0.48 0.04 0
0.49 0.04 0
0.5 0.04 0
0.51 0.04 0
0.52 0.04 0
0.53 0.04 0
0.54 0.04 0
0.55 0.04 0
0.56 0.04 0
0.57 0.04 0
0.58 0.04 0
0.59 0.04 0
0.6 0.04 0
0.61 0.04 0
0 0.05 0
0.01 0.05 0
0.02 0.05 0
0.03 0.05 0
0.04 0.05 0
0.05 0.05 0
0.06 0.05 0
0.07 0.05 0
0.08 0.05 0
0.09 0.05 0
0.1 0.05 0
0.11 0.05 0
0.12 0.05 0
0.13 0.05 0
0.14 0.05 0
0.15 0.05 0
0.16 0.05 0
0.17 0.05 0
0.18 0.05 0
0.19 0.05 0
0.2 0.05 0
0.21 0.05 0
0.22 0.05 0
0.23 0.05 0
0.24 0.05 0
0.25 0.05 0
0.26 0.05 0
0.27 0.05 0
0.28 0.05 0
0.29 0.05 0
0.3 0.05 0
0.31 0.05 0
0.32 0.05 0
0.33 0.05 0
0.34 0.05 0
0.35 0.05 0
0.36 0.05 0
0.37 0.05 0
0.38 0.05 0
0.39 0.05 0
0.4 0.05 0
0.41 0.05 0
0.42 0.05 0
0.43 0.05 0
0.44 0.05 0
0.45 0.05 0
0.46 0.05 0
0.47 0.05 0
0.48 0.05 0
0.49 0.05 0
0.5 0.05 0
0.51 0.05 0
0.52 0.05 0
0.53 0.05 0
0.54 0.05 0
0.55 0.05 0
0.56 0.05 0
0.57 0.05 0
0.58 0.05 0
0.59 0.05 0
0.6 0.05 0
0.61 0.05 0
0 0.06 0
0.01 0.06 0
0.02 0.06 0
0.03 0.06 0
0.04 0.06 0
0.05 0.06 0
0.06 0.06 0
0.07 0.06 0
0.08 0.06 0
0.09 0.06 0
0.1 0.06 0
0.11 0.06 0
0.12 0.06 0
0.13 0.06 0
0.14 0.06 0
0.15 0.06 0
0.16 0.06 0
0.17 0.06 0
0.18 0.06 0
0.19 0.06 0
0.2 0.06 0
0.21 0.06 0
0.22 0.06 0
0.23 0.06 0
0.24 0.06 0
0.25 0.06 0
0.26 0.06 0
0.27 0.06 0
0.28 0.06 0
0.29 0.06 0
0.3 0.06 0
0.31 0.06 0
0.32 0.06 0
0.33 0.06 0
0.34 0.06 0
0.35 0.06 0
0.36 0.06 0
0.37 0.06 0
0.38 0.06 0
0.39 0.06 0
0.4 0.06 0
0.41 0.06 0
0.42 0.06 0
0.43 0.06 0
0.44 0.06 0
0.45 0.06 0
0.46 0.06 0
0.47 0.06 0
0.48 0.06 0
0.49 0.06 0
0.5 0.06 0
0.51 0.06 0
0.52 0.06 0
0.53 0.06 0
0.54 0.06 0
0.55 0.06 0
0.56 0.06 0
0.57 0.06 0
0.58 0.06 0
0.59 0.06 0
0.6 0.06 0
0.61 0.06 0
0 0.07 0
0.01 0.07 0
0.02 0.07 0
0.03 0.07 0
0.04 0.07 0
0.05 0.07 0
0.06 0.07 0
0.07 0.07 0
0.08 0.07 0
0.09 0.07 0
0.1 0.07 0
0.11 0.07 0
0.12 0.07 0
0.13 0.07 0
0.14 0.07 0
0.15 0.07 0
0.16 0.07 0
0.17 0.07 0
0.18 0.07 0
0.19 0.07 0
0.2 0.07 0
0.21 0.07 0
0.22 0.07 0
0.23 0.07 0
0.24 0.07 0
0.25 0.07 0
0.26 0.07 0
0.27 0.07 0
0.28 0.07 0
0.29 0.07 0
0.3 0.07 0
0.31 0.07 0
0.32 0.07 0
0.33 0.07 0
0.34 0.07 0
0.35 0.07 0
0.36 0.07 0
0.37 0.07 0
0.38 0.07 0
0.39 0.07 0
0.4 0.07 0
0.41 0.07 0
0.42 0.07 0
0.43 0.07 0
0.44 0.07 0
0.45 0.07 0
0.46 0.07 0
0.47 0.07 0
0.48 0.07 0
0.49 0.07 0
0.5 0.07 0
0.51 0.07 0
0.52 0.07 0
0.53 0.07 0
0.54 0.07 0
0.55 0.07 0
0.56 0.07 0
0.57 0.07 0
0.58 0.07 0
0.59 0.07 0
0.6 0.07 0
0.61 0.07 0
0 0.08 0
0.01 0.08 0
0.02 0.08 0
0.03 0.08 0
0.04 0.08 0
0.05 0.08 0
0.06 0.08 0
0.07 0.08 0
0.08 0.08 0
0.09 0.08 0
0.1 0.08 0
0.11 0.08 0
0.12 0.08 0
0.13 0.08 0
0.14 0.08 0
0.15 0.08 0
0.16 0.08 0
0.17 0.08 0
0.18 0.08 0
0.19 0.08 0
0.2 0.08 0
0.21 0.08 0
0.22 0.08 0
0.23 0.08 0
0.24 0.08 0
0.25 0.08 0
0.26 0.08 0
0.27 0.08 0
0.28 0.08 0
0.29 0.08 0
0.3 0.08 0
0.31 0.08 0
0.32 0.08 0
0.33 0.08 0
0.34 0.08 0
0.35 0.08 0
0.36 0.08 0
0.37 0.08 0
0.38 0.08 0
0.39 0.08 0
0.4 0.08 0
0.41 0.08 0
0.42 0.08 0
0.43 0.08 0
0.44 0.08 0
0.45 0.08 0
0.46 0.08 0
0.47 0.08 0
0.48 0.08 0
0.49 0.08 0
0.5 0.08 0
0.51 0.08 0
0.52 0.08 0
0.53 0.08 0
0.54 0.08 0
0.55 0.08 0
0.56 0.08 0
0.57 0.08 0
0.58 0.08 0
0.59 0.08 0
0.6 0.08 0
0.61 0.08 0
0 0.09 0
0.01 0.09 0
0.02 0.09 0
0.03 0.09 0
0.04 0.09 0
0.05 0.09 0
0.06 0.09 0
0.07 0.09 0
0.08 0.09 0
0.09 0.09 0
0.1 0.09 0
0.11 0.09 0
0.12 0.09 0
0.13 0.09 0
0.14 0.09 0
0.15 0.09 0
0.16 0.09 0
0.17 0.09 0
0.18 0.09 0
0.19 0.09 0
0.2 0.09 0
0.21 0.09 0
0.22 0.09 0
0.23 0.09 0
0.24 0.09 0
0.25 0.09 0
0.26 0.09 0
0.27 0.09 0
0.28 0.09 0
0.29 0.09 0
0.3 0.09 0
0.31 0.09 0
0.32 0.09 0
0.33 0.09 0
0.34 0.09 0
0.35 0.09 0
0.36 0.09 0
0.37 0.09 0
0.38 0.09 0
0.39 0.09 0
0.4 0.09 0
0.41 0.09 0
0.42 0.09 0
0.43 0.09 0
0.44 0.09 0
0.45 0.09 0
0.46 0.09 0
0.47 0.09 0
0.48 0.09 0
0.49 0.09 0
0.5 0.09 0
0.51 0.09 0
0.52 0.09 0
0.53 0.09 0
0.54 0.09 0
0.55 0.09 0
0.56 0.09 0
0.57 0.09 0
0.58 0.09 0
0.59 0.09 0
0.6 0.09 0
0.61 0.09 0
0 0.1 0
0.01 0.1 0
0.02 0.1 0
0.03 0.1 0
0.04 0.1 0
0.05 0.1 0
0.06 0.1 0
0.07 0.1 0
0.08 0.1 0
0.09 0.1 0
0.1 0.1 0
0.11 0.1 0
0.12 0.1 0
0.13 0.1 0
0.14 0.1 0
0.15 0.1 0
0.16 0.1 0
0.17 0.1 0
0.18 0.1 0
0.19 0.1 0
0.2 0.1 0
0.21 0.1 0
0.22 0.1 0
0.23 0.1 0
0.24 0.1 0
0.25 0.1 0
0.26 0.1 0
0.27 0.1 0
0.28 0.1 0
0.29 0.1 0
0.3 0.1 0
0.31 0.1 0
0.32 0.1 0
0.33 0.1 0
0.34 0.1 0
0.35 0.1 0
0.36 0.1 0
0.37 0.1 0
0.38 0.1 0
0.39 0.1 0
0.4 0.1 0
0.41 0.1 0
0.42 0.1 0
0.43 0.1 0
0.44 0.1 0
0.45 0.1 0
0.46 0.1 0
0.47 0.1 0
0.48 0.1 0
0.49 0.1 0
0.5 0.1 0
0.51 0.1 0
0.52 0.1 0
0.53 0.1 0
0.54 0.1 0
0.55 0.1 0
0.56 0.1 0
0.57 0.1 0
0.58 0.1 0
0.59 0.1 0
0.6 0.1 0
0.61 0.1 0
0 0.11 0
0.01 0.11 0
0.02 0.11 0
0.03 0.11 0
0.04 0.11 0
0.05 0.11 0
0.06 0.11 0
0.07 0.11 0
0.08 0.11 0
0.09 0.11 0
0.1 0.11 0
0.11 0.11 0
0.12 0.11 0
0.13 0.11 0
0.14 0.11 0
0.15 0.11 0
0.16 0.11 0
0.17 0.11 0
0.18 0.11 0
0.19 0.11 0
0.2 0.11 0
0.21 0.11 0
0.22 0.11 0
0.23 0.11 0
0.24 0.11 0
0.25 0.11 0
0.26 0.11 0
0.27 0.11 0
0.28 0.11 0
0.29 0.11 0
0.3 0.11 0
0.31 0.11 0
0.32 0.11 0
0.33 0.11 0
0.34 0.11 0
0.35 0.11 0
0.36 0.11 0
0.37 0.11 0
0.38 0.11 0
0.39 0.11 0
0.4 0.11 0
0.41 0.11 0
0.42 0.11 0
0.43 0.11 0
0.44 0.11 0
0.45 0.11 0
0.46 0.11 0
0.47 0.11 0
0.48 0.11 0
0.49 0.11 0
0.5 0.11 0
0.51 0.11 0
0.52 0.11 0
0.53 0.11 0
0.54 0.11 0
0.55 0.11 0
0.56 0.11 0
0.57 0.11 0
0.58 0.11 0
0.59 0.11 0
0.6 0.11 0
0.61 0.11 0
0 0.12 0
0.01 0.12 0
0.02 0.12 0
0.03 0.12 0
0.04 0.12 0
0.05 0.12 0
0.06 0.12 0
0.07 0.12 0
0.08 0.12 0
0.09 0.12 0
0.1 0.12 0
0.11 0.12 0
0.12 0.12 0
0.13 0.12 0
0.14 0.12 0
0.15 0.12 0
0.16 0.12 0
0.17 0.12 0
0.18 0.12 0
0.19 0.12 0
0.2 0.12 0
0.21 0.12 0
0.22 0.12 0
0.23 0.12 0
0.24 0.12 0
0.25 0.12 0
0.26 0.12 0
0.27 0.12 0
0.28 0.12 0
0.29 0.12 0
0.3 0.12 0
0.31 0.12 0
0.32 0.12 0
0.33 0.12 0
0.34 0.12 0
0.35 0.12 0
0.36 0.12 0
0.37 0.12 0
0.38 0.12 0
0.39 0.12 0
0.4 0.12 0
0.41 0.12 0
0.42 0.12 0
0.43 0.12 0
0.44 0.12 0
0.45 0.12 0
0.46 0.12 0
0.47 0.12 0
0.48 0.12 0
0.49 0.12 0
0.5 0.12 0
0.51 0.12 0
0.52 0.12 0
0.53 0.12 0
0.54 0.12 0
0.55 0.12 0
0.56 0.12 0
0.57 0.12 0
0.58 0.12 0
0.59 0.12 0
0.6 0.12 0
0.61 0.12 0
0 0.13 0
0.01 0.13 0
0.02 0.13 0
0.03 0.13 0
0.04 0.13 0
0.05 0.13 0
0.06 0.13 0
0.07 0.13 0
0.08 0.13 0
0.09 0.13 0
0.1 0.13 0
0.11 0.13 0
0.12 0.13 0
0.13 0.13 0
0.14 0.13 0
0.15 0.13 0
0.16 0.13 0
0.17 0.13 0
0.18 0.13 0
0.19 0.13 0
0.2 0.13 0
0.21 0.13 0
0.22 0.13 0
0.23 0.13 0
0.24 0.13 0
0.25 0.13 0
0.26 0.13 0
0.27 0.13 0
0.28 0.13 0
0.29 0.13 0
0.3 0.13 0
0.31 0.13 0
0.32 0.13 0
0.33 0.13 0
0.34 0.13 0
0.35 0.13 0
0.36 0.13 0
0.37 0.13 0
0.38 0.13 0
0.39 0.13 0
0.4 0.13 0
0.41 0.13 0
0.42 0.13 0
0.43 0.13 0
0.44 0.13 0
0.45 0.13 0
0.46 0.13 0
0.47 0.13 0
0.48 0.13 0
[...]
POINT_DATA 93248

SCALARS v double
LOOKUP_TABLE default
0
0
0
0
0
0
0
0
0
0
0
0
0
0
0
0
0
0
0
0
0
0
0
0
0
0
0
0
0
0
0
0
0
0
0
0
0
0
-0.104881
0
0
0
0
0
-0.110651
0
0
0
0
0
0
0
0
0
0
0
0
0
0
0
0
0
0
0.0447772
-0.0796973
0.0471387
0.0334362
0.0162552
0
-0.00648348
-0.0140108
-0.0187286
-0.0218432
-0.0250595
-0.0312352
-0.0310025
-0.0314236
-0.0319483
-0.0324196
-0.0316374
-0.0310609
-0.029898
-0.039348
-0.033055
-0.0269686
-0.0314384
-0.031885
-0.0318189
-0.0317714
-0.0317467
-0.031698
-0.0315774
-0.0313744
-0.031478
-0.0336442
-0.0315546
-0.0306466
-0.0312231
-0.0692666
-0.0299082
-0.0289331
-0.0267234
-0.0341227
-0.0626944
-0.0342068
-0.0356136
-0.0408647
-0.0625433
-0.127937
-0.0336819
-0.0462622
-0.031267
-0.0312134
-0.0301158
-0.0345587
-0.0411538
-0.064151
-0.0394294
-0.0910441
-0.032339
-0.0275366
-0.0240775
-0.0196188
0
0
0.0263042
0.0502261
0.057839
0.0536455
0.035782
0.0300751
0.0189574
0.00742087
-0.0033231
-0.0122989
-0.0208021
-0.127647
-0.0367657
-0.0398906
-0.0379552
-0.0444995
-0.0432405
-0.0448689
-0.0477398
-0.167845
-0.0458758
-0.0512152
-0.0459138
-0.0445329
-0.0441641
-0.0440714
-0.0440338
-0.0439552
-0.0437567
-0.0433581
-0.0431293
-0.101862
-0.043242
-0.0424988
-0.0442348
-0.0437692
-0.0409087
-0.0389087
-0.0430104
-0.0465435
-0.0490492
-0.0488819
-0.0510909
-0.0538312
-0.0582305
-0.0561506
-0.0487773
-0.0462622
-0.0446072
-0.0454451
-0.0495908
-0.0486476
-0.0517572
-0.0560605
-0.0496083
-0.0459569
-0.104383
-0.0347724
-0.0305782
-0.0270387
0
0
0.0138069
0.0344911
0.0435868
0.0521842
0.0557963
0.0427891
0.031629
0.0203776
0.00914988
-0.00231421
-0.0127565
-0.0254426
-0.0328908
-0.039302
-0.0449584
-0.0488081
0
-0.0507856
-0.0529743
-0.0558043
-0.0537631
-0.0535181
-0.0521227
-0.0512962
-0.0509462
-0.0508195
-0.0507652
-0.0507008
-0.0505934
-0.0505227
-0.050968
-0.0532056
-0.0541046
-0.0531696
-0.0495937
-0.0488138
-0.0479479
-0.0480425
-0.0505299
-0.0528311
-0.0550904
-0.0569905
-0.0568942
-0.0587607
-0.059961
-0.0553303
-0.053625
-0.0523933
-0.0526717
-0.0528319
-0.0537027
-0.0538731
-0.0543727
-0.0541309
-0.0517126
-0.0486785
-0.0455368
-0.0388543
-0.035024
-0.0334936
0
0
0.00839796
0.0238533
0.0377563
0.0406587
0.04187
0.0369
0.0295554
0.0208246
0.0113992
0.00158998
-0.00815024
-0.0180444
-0.026585
-0.0344315
-0.0431372
-0.0463615
-0.0482895
-0.0515968
-0.0543605
-0.0547725
-0.0550276
-0.0550517
-0.0548344
-0.0546416
-0.0545481
-0.0545038
-0.0544888
-0.0544741
-0.0544522
-0.0544917
-0.0548031
-0.0557108
-0.0572796
-0.0565591
-0.0544732
-0.0532922
-0.0528648
-0.0531859
-0.0547612
-0.056307
-0.0578279
-0.0591569
-0.0597791
-0.0604717
-0.0598518
-0.0551809
-0.0561623
-0.0561662
-0.0561759
-0.0560434
-0.0558705
-0.0554697
-0.0546799
-0.0532775
-0.0512126
-0.048268
-0.0444922
-0.0398993
-0.0370414
-0.0388745
0
0
0.00546062
0.015371
0.0234883
0.027196
0.0280827
0.0257906
0.0206332
0.0139843
0.00679521
-0.000760891
-0.0084038
-0.0159741
-0.0230393
-0.0296181
-0.0334868
-0.0417446
-0.0464461
-0.0502543
-0.0523935
-0.0538928
-0.05502
-0.0557485
-0.0561938
-0.0564887
-0.0567013
-0.0567946
-0.0568772
-0.0569418
-0.0569625
-0.0569324
-0.0568852
-0.0572105
-0.0606661
-0.0589927
-0.0573954
-0.0565422
-0.0563874
-0.0568126
-0.0576622
-0.0585979
-0.059501
-0.0602897
-0.060918
-0.0613471
-0.0609504
0
-0.0579602
-0.0582774
-0.058005
-0.0575792
-0.0569808
-0.0560904
-0.0547397
-0.0529713
-0.0508101
-0.04811
-0.0450196
-0.0418267
-0.0386231
-0.0426895
-0.121299
0
0.00363539
0.0097091
0.014369
0.016644
0.0167533
0.0152164
0.0104123
0
-0.00034471
-0.00606697
-0.0119175
-0.017823
-0.023067
-0.0284092
-0.0339625
-0.0409
-0.0443955
-0.0465689
-0.0502645
-0.0529065
-0.0549136
-0.0562874
-0.0572272
-0.0579072
-0.0584221
-0.0586145
-0.0588415
-0.059022
-0.0590821
-0.0589547
-0.0585429
-0.0580253
-0.133192
-0.060723
-0.0594198
-0.0590771
-0.0591503
-0.0595124
-0.0600146
-0.0605403
-0.0610148
-0.0613807
-0.0616821
-0.0615818
-0.060686
-0.0582277
-0.0589413
-0.0592464
-0.0590664
-0.0585924
-0.0578612
-0.0567769
-0.0552154
-0.0534153
-0.0514271
-0.0493473
-0.0479649
-0.0493896
-0.0541297
-0.0434669
0
0
0.00241892
0.00586275
0.00821234
0.00891083
0.00780658
0.00462678
0.00214842
-0.00239157
-0.00716196
-0.0119655
-0.016939
-0.0224416
-0.0256015
-0.0296855
-0.0347553
-0.0419472
-0.044374
-0.0463794
-0.049896
-0.0529969
-0.0555574
-0.0572603
-0.0584559
-0.0593871
-0.060172
-0.0603876
-0.0608548
-0.0611878
-0.061317
-0.0612111
-0.0610243
-0.0613516
-0.063674
-0.062781
-0.0620363
-0.0617386
-0.0617708
-0.0619806
-0.0622454
-0.0624955
-0.0626944
-0.0628161
-0.0626702
-0.0623671
-0.0617023
-0.0608258
-0.0606031
-0.0604701
-0.0601648
-0.0596526
-0.0589249
-0.0578732
-0.0562407
-0.0546386
-0.052975
-0.0511952
-0.0495492
-0.0949912
-0.0291071
-0.0420997
0
0
0.00157818
0.00315863
0.00385996
0.00330319
0.0013763
-0.00180642
-0.00519302
-0.00926774
-0.0134864
-0.0176531
-0.0222863
-0.030449
-0.0230393
-0.0319757
-0.034988
-0.0356745
-0.0415367
-0.0480553
-0.0517811
-0.0544729
-0.0573114
-0.0588092
-0.0599959
-0.0609958
-0.0603876
-0.0627142
-0.0632872
-0.0636811
-0.0638514
-0.0636905
-0.0634273
-0.0636421
-0.0643319
-0.0644218
-0.0643081
-0.064236
-0.064303
-0.0644189
-0.0645175
-0.0645703
-0.0645571
-0.0644489
-0.0641866
-0.0638047
-0.063309
-0.062808
-0.0623945
-0.0619974
-0.061522
-0.0609377
-0.0602592
-0.0594857
-0.0577226
-0.0565006
-0.0552644
-0.0539359
-0.0525641
-0.0507477
-0.0445353
-0.0431329
0
0
0.000983372
0.0011977
0.000668851
-0.000877472
-0.00346679
-0.00692825
-0.0108197
-0.0149313
-0.0188987
-0.0223973
-0.0247993
-0.0218567
-0.0302501
-0.034869
-0.0379552
-0.0404902
-0.045141
-0.0497684
-0.0532887
-0.0558771
-0.077357
-0.0605113
-0.0617237
-0.0629126
-0.0641412
-0.0649053
-0.0657296
-0.0663862
-0.0667177
-0.0664034
-0.0654755
-0.0655304
-0.0660144
-0.0663811
-0.0665766
-0.0666592
-0.0667994
-0.0668824
-0.0668705
-0.0667838
-0.0666248
-0.0663794
-0.0660359
-0.0656237
-0.0651754
-0.0647228
-0.0642459
-0.0637132
-0.0630946
-0.0623961
-0.0616234
-0.0607404
-0.0594801
-0.0588631
-0.0579202
-0.0567614
-0.0553522
-0.0532632
-0.0497027
-0.04505
0
0
0.000553398
-0.000266713
-0.00174643
-0.00412246
-0.00730459
-0.0111723
-0.0154227
-0.019726
-0.0237375
-0.0271803
-0.0298142
-0.0317567
-0.0358575
-0.0396034
-0.0422055
-0.0453497
-0.0490764
-0.0526786
-0.0558011
-0.0584502
-0.0609935
-0.0625569
-0.0638495
-0.0649637
-0.0656098
-0.0672081
-0.0684637
-0.0694826
-0.0701577
-0.0702365
-0.0662592
-0.0672317
-0.0681712
-0.068728
-0.0690525
-0.0692666
-0.0692461
-0.0693856
-0.0693009
-0.06912
-0.0688675
-0.0685398
-0.0681177
-0.067665
-0.0672033
-0.066728
-0.0662029
-0.0655825
-0.0648453
-0.0640412
-0.0630587
-0.0619972
-0.0626784
-0.0617996
-0.0607127
-0.0595039
-0.0579927
-0.0557819
-0.0523842
-0.0471796
0
0
0.000234677
-0.00139649
-0.00362719
-0.00785384
-0.0104691
-0.0147823
-0.0194141
-0.0240191
-0.0282952
-0.0320634
-0.0353314
-0.038481
-0.0419713
-0.0453802
-0.0465015
-0.0500199
-0.0534264
-0.0564555
-0.0591677
-0.0614504
-0.0634642
-0.0649996
-0.0662797
-0.0674422
-0.0685988
-0.0700449
-0.0715908
-0.0729817
-0.0738529
-0.0740063
0
-0.0700432
-0.070983
-0.0713783
-0.0716519
-0.0718686
-0.0720173
-0.0719117
-0.0717984
-0.0715548
-0.0712472
-0.070902
-0.0703578
-0.0698477
-0.069358
-0.0688587
-0.0683044
-0.0676261
-0.0668073
-0.0661319
-0.0654284
-0.0648262
-0.0647398
-0.064151
-0.0632425
-0.0620836
-0.0605175
-0.0581959
-0.0546662
-0.049296
0
0
-1.17123e-05
-0.00231519
-0.00521948
-0.00883781
-0.013167
-0.0179799
-0.0230301
-0.0280181
-0.032673
-0.036876
-0.0406559
-0.0442462
-0.0478622
-0.0516899
0
-0.055086
-0.0582039
-0.0607029
-0.0631831
-0.0650952
-0.0666007
-0.0678463
-0.0689792
-0.070118
-0.0714064
-0.0730165
-0.075023
-0.0769194
-0.077666
-0.0758729
-0.0724631
-0.0726984
-0.0733011
-0.0737953
-0.074172
-0.074462
-0.0746575
-0.0746917
-0.0744772
-0.0740862
-0.0737034
-0.0736144
-0.0726752
-0.0721103
-0.0716117
-0.0711143
-0.0705702
-0.0698649
-0.0689007
-0.0685455
-0.0681223
-0.0676076
-0.0671024
-0.0664827
-0.0656672
-0.0645624
-0.0629597
-0.0605615
-0.0568953
-0.0513498
0
0
-0.000209294
-0.00308633
-0.00656111
-0.0105581
-0.015569
-0.0208878
-0.02639
-0.0318115
-0.036896
-0.0409972
-0.0457132
-0.0495393
-0.0530737
-0.0560908
-0.0574178
-0.0602188
-0.0626906
-0.0648557
-0.067716
-0.0691769
-0.0701126
-0.070957
-0.0718388
-0.0728345
-0.0740758
-0.0758304
-0.078512
-0.0815398
-0.0844461
-0.0793967
-0.0764229
-0.0757309
-0.0759207
-0.0763154
-0.0767249
-0.0771128
-0.0773848
-0.0776402
-0.0772932
-0.0766188
-0.0758054
-0.0743748
-0.0746481
-0.0743605
-0.0739268
-0.0734691
-0.0729917
-0.0723237
-0.070938
-0.0712122
-0.0709569
-0.0703538
-0.0696259
-0.068957
-0.0681661
-0.0670741
-0.0653347
-0.0629315
-0.0590981
-0.0533241
0
0
-0.000376457
-0.0037704
-0.00785384
-0.0128085
-0.0179175
-0.0236228
-0.0295717
-0.0354531
-0.0409972
-0.0460505
-0.0505674
-0.0546067
-0.0581811
-0.0611671
-0.0634645
-0.0656189
-0.0673983
-0.0689294
-0.0732987
-0.073539
-0.0737101
-0.0741361
-0.0747404
-0.0754784
-0.0764297
-0.0778954
-0.0807477
-0.0569625
-0.1039
-0.0826074
-0.0783955
-0.0779535
-0.0782583
-0.0787068
-0.0792186
-0.0798622
-0.0807568
-0.0810359
-0.080396
-0.0793264
-0.0783322
-0.0775181
-0.0771321
-0.0767422
-0.0762953
-0.0758681
-0.0754884
-0.0750318
-0.0561759
-0.0742565
-0.0739287
-0.073126
-0.0720452
-0.0715715
-0.0708265
-0.0698423
-0.0684416
-0.0654996
-0.061305
-0.0551875
0
0
-0.000520093
-0.00434049
-0.0089053
-0.0141858
-0.0199627
-0.0261786
-0.0326071
-0.0389726
-0.0449876
-0.0504519
-0.0552855
-0.0595568
-0.0632935
-0.0664422
-0.0689772
-0.0709274
-0.0721927
-0.0726199
-0.153225
-0.0774669
-0.0771162
-0.077357
-0.0777059
-0.0780662
-0.0783624
-0.078368
-0.0770265
-0.0693244
-0.033847
-0.0658365
-0.0751431
-0.0783756
-0.0797929
-0.0806546
-0.0814283
-0.0824133
-0.0837631
-0.0849669
-0.0841522
-0.0823615
-0.0810284
-0.0802222
-0.0796841
-0.0791958
-0.0786706
-0.0782181
-0.0777754
-0.0772816
-0.0766629
-0.0772808
-0.0768581
-0.07616
-0.0759978
-0.0745698
-0.0735809
-0.0726936
-0.0710487
-0.0681626
-0.0635517
-0.0568732
0
0
-0.000677014
-0.00479834
-0.00985759
-0.0156161
-0.0219218
-0.0286072
-0.0355152
-0.0423938
-0.0489053
-0.0547899
-0.0598975
-0.0644105
-0.0683758
-0.071732
-0.0743908
-0.0763318
-0.0776819
-0.0789216
-0.0816501
-0.0814891
-0.0811851
-0.0810399
-0.0809662
-0.0808396
-0.0804679
-0.0794353
-0.0768564
-0.0717718
-0.0654084
-0.0718109
-0.0767527
-0.079611
-0.081268
-0.0823685
-0.0833307
-0.0846217
-0.0867582
-0.089849
-0.0903563
-0.0859867
-0.0836778
-0.0826615
-0.0820794
-0.0815648
-0.0809548
-0.0805357
-0.0800928
-0.0797239
-0.0798433
-0.0809233
-0.0799167
-0.0789239
-0.0782616
-0.0773958
-0.0758448
-0.0759044
-0.0742959
-0.0713974
-0.0661577
-0.058259
0
0
-0.00091511
0.0011977
-0.0107909
-0.0170941
-0.0238672
-0.0308419
-0.0382953
-0.0457642
-0.0528205
-0.0591392
-0.0643769
-0.0691361
-0.073399
-0.0770288
-0.0798328
-0.0817842
-0.0831053
-0.0841929
-0.0851374
-0.0852714
-0.0850536
-0.0847382
-0.0843727
-0.0838999
-0.0831724
-0.0819194
-0.0797843
-0.0778671
-0.0778473
-0.0792496
-0.0808893
-0.082294
-0.0833845
-0.0842403
-0.0849707
-0.0860327
-0.0882281
-0.093928
-0.108502
-0.089145
-0.0851119
-0.0843087
-0.0839959
-0.083668
-0.0809548
-0.0828172
-0.0824154
-0.0820882
-0.0824965
-0.0852422
-0.0828356
-0.0816256
-0.0812028
-0.0813564
-0.0832883
-0.0805713
-0.078548
-0.0759781
-0.0703385
-0.0591537
0
0
-0.000888425
-0.00581465
-0.0117343
-0.0185763
-0.0259273
-0.0333804
-0.0412721
-0.0492578
-0.0568581
-0.0636369
-0.0685758
-0.0736868
-0.0783791
-0.0824066
-0.0853832
-0.0872585
-0.0883827
-0.0892323
-0.0895435
-0.0893941
-0.0889984
-0.0884928
-0.0879174
-0.0872578
-0.086467
-0.0854972
-0.0843669
-0.0827207
-0.0852759
-0.0848726
-0.0849479
-0.0853873
-0.0858937
-0.0862748
-0.0863328
-0.08608
-0.0844361
-0.0766107
-0.0403971
-0.0726864
-0.0814155
-0.0842486
-0.0851444
-0.0853351
-0.0851947
-0.0850271
-0.0847513
-0.0844135
-0.0845778
-0.13673
-0.0851696
-0.084312
-0.0842717
-0.0844772
-0.0846849
-0.0839757
-0.0838924
-0.0825835
-0.0805181
-0.0768471
0
0
-0.000942313
-0.00632357
-0.0126331
-0.0202558
-0.0281571
-0.0349969
-0.043802
-0.0526357
-0.0609951
-0.0684808
-0.0720694
-0.0781431
-0.0834091
-0.0880383
-0.091158
-0.092762
-0.0935347
-0.0944348
-0.0943056
-0.0937467
-0.0930648
-0.092343
-0.091592
-0.0908254
-0.0900734
-0.0893878
-0.0885275
-0.0868104
-0.148413
-0.0889678
-0.0883824
-0.0884964
-0.0886278
-0.088457
-0.0880365
-0.086761
-0.0839482
-0.0784599
-0.0715273
-0.0773221
-0.0824932
-0.0850904
-0.0863731
-0.0869953
-0.0872561
-0.0873234
-0.0873279
-0.087419
-0.0879974
-0.0896461
-0.0883092
-0.087631
-0.0875395
-0.0876635
-0.0877435
-0.0878232
-0.0878567
-0.0869771
-0.0843676
-0.0776785
0
0
-0.00102955
-0.0067895
-0.013353
-0.0330398
-0.0306689
0
-0.0465464
-0.0561913
-0.0652411
-0.0738922
-0.0119175
-0.0830847
-0.0885511
-0.094199
-0.0972212
-0.0981484
-0.0983704
-0.100038
-0.0991306
-0.0980967
-0.097152
-0.0962497
-0.095337
-0.0944682
-0.0937358
-0.093399
-0.0943602
-0.0921647
-0.0932625
-0.0925413
-0.0920626
-0.0919246
-0.0918345
-0.0913298
-0.090371
-0.0888526
-0.0866594
-0.0841589
-0.0830396
-0.084136
-0.0859214
-0.0873175
-0.0882842
-0.0890291
-0.0895047
-0.0897392
-0.0899638
-0.0902474
-0.0906387
-0.0909834
-0.0907461
-0.0906049
-0.0907292
-0.0909445
-0.0910441
-0.0912078
-0.0910003
-0.0897443
-0.0864878
-0.0790906
0
0
-0.00113741
-0.00731208
-0.0144505
-0.0228709
-0.0315753
-0.0396776
-0.0494838
-0.0594108
-0.0688208
-0.0769573
-0.0819422
-0.0880134
-0.0928625
-0.101777
-0.102729
-0.102962
-0.102565
-0.147838
-0.103538
-0.102257
-0.101237
-0.100212
-0.0991002
-0.0980558
-0.0970639
-0.0957839
-0.0916496
-0.0943534
-0.0953101
-0.0953424
-0.095242
-0.0952937
-0.0954062
-0.0947848
-0.0934471
-0.0919656
-0.090431
-0.0892536
-0.0889562
-0.0892065
-0.0897371
-0.0902609
-0.0905668
-0.0914809
-0.0920445
-0.0922674
-0.092607
-0.0929393
-0.0931667
-0.0931562
-0.0930657
-0.0932966
-0.0937568
-0.0941712
-0.0941568
-0.0942171
-0.0936309
-0.0918678
-0.0883826
-0.0808049
0
0
-0.00124335
-0.00780698
-0.0153619
-0.0238876
-0.0330025
-0.0424272
-0.0524779
-0.0627964
-0.0727408
-0.0815622
-0.0878642
-0.0935408
-0.0980534
-0.202756
-0.107484
-0.107671
-0.108016
-0.108912
-0.107958
-0.106764
-0.105575
-0.104341
-0.102859
-0.101637
-0.100557
-0.099379
-0.0980884
-0.0981535
-0.0982006
-0.0981519
-0.0981775
-0.0985376
-0.0993889
-0.099384
-0.0970632
-0.0955539
-0.0941958
-0.0934128
-0.093148
-0.093153
-0.0933026
-0.0936322
-0.0947101
-0.0944696
-0.0948442
-0.0948923
-0.0953313
-0.095674
-0.0958156
-0.0955499
-0.0952308
-0.0958526
-0.0966656
-0.0973093
-0.0971328
-0.0971191
-0.0960357
-0.0936125
-0.0902885
-0.082709
0
0
-0.0013467
-0.00828825
-0.0162411
-0.0251267
-0.0347295
-0.0447929
-0.0551515
-0.0661491
-0.0768942
-0.0881291
-0.0932723
-0.0993137
-0.104955
-0.111081
-0.112746
-0.113236
-0.113314
-0.113208
-0.112374
-0.111211
-0.109955
-0.108576
-0.106427
-0.105193
-0.104248
-0.103309
-0.102474
-0.101838
-0.10132
-0.10098
-0.100826
-0.101203
-0.103107
-0.108584
-0.100416
-0.0994649
-0.0974188
-0.0967635
-0.0965481
-0.0964834
-0.0964701
-0.0965054
-0.0968095
-0.0969997
-0.0971846
-0.0979834
-0.0982651
-0.0985294
-0.0986342
-0.0979477
-0.0966487
-0.0987288
-0.0995092
-0.0997578
-0.100749
-0.100252
-0.0984273
-0.094796
-0.0922654
-0.0847613
0
0
-0.00145436
-0.00878401
-0.0171671
-0.0265258
-0.0366663
-0.047156
-0.0570335
-0.0692354
-0.0792955
-0.0843704
-0.0962655
-0.1044
-0.110552
-0.115171
-0.117604
-0.118391
-0.118014
-0.117999
-0.116999
-0.115706
-0.114403
-0.113025
-0.109458
-0.108779
-0.108081
-0.107192
-0.106251
-0.105051
-0.104432
-0.103673
-0.102871
-0.101862
-0.0985666
-0.0821362
-0.0948607
-0.0955648
-0.0984567
-0.0991968
-0.0993743
-0.0994163
-0.0993198
-0.0990274
-0.0992264
-0.099633
-0.100063
-0.100589
-0.100975
-0.101335
-0.101627
-0.100723
-0.0975443
-0.101869
-0.102677
-0.103023
-0.103476
-0.103186
-0.101012
-0.0949912
-0.0945747
-0.0869185
0
0
-0.00157017
-0.00930607
-0.0181596
-0.02808
-0.038954
-0.0506919
-0.0644163
-0.0736842
-0.0835174
-0.0925351
-0.101959
-0.109863
-0.116012
-0.120357
-0.122965
-0.124219
-0.125428
-0.123431
-0.121767
-0.120209
-0.118838
-0.117777
-0.0629126
-0.112797
-0.112097
-0.110952
-0.109822
-0.101838
-0.107409
-0.106286
-0.104616
-0.103529
-0.100804
-0.0971472
-0.0987717
-0.099811
-0.100971
-0.101643
-0.102006
-0.102186
-0.102041
-0.101194
-0.101645
-0.102304
-0.102837
-0.103265
-0.103617
-0.103936
-0.104227
-0.104502
-0.0345587
-0.120522
-0.105701
-0.105904
-0.106185
-0.106123
-0.104383
-0.0240775
-0.0977308
-0.0890844
0
0
-0.00169143
-0.00984447
-0.0191915
-0.0296989
-0.0412464
-0.0536213
-0.0663292
-0.0770108
-0.0879432
-0.0983678
-0.107778
-0.115642
-0.121732
-0.126001
-0.12859
-0.129732
-0.129588
-0.128141
-0.12634
-0.124518
-0.122771
-0.120863
-0.117972
-0.11673
-0.115651
-0.114242
-0.112875
-0.111498
-0.110469
-0.109567
-0.109608
-0.106956
-0.10496
-0.103704
-0.103492
-0.103689
-0.104056
-0.104416
-0.104742
-0.105014
-0.104885
-0.102822
-0.104149
-0.105069
-0.105591
-0.105935
-0.106211
-0.106444
-0.106563
-0.10627
-0.104723
-0.107232
-0.108026
-0.10839
-0.108513
-0.108101
-0.10628
-0.101877
-0.0993967
-0.0911263
0
0
-0.00180889
-0.0103735
-0.020228
-0.0313502
-0.0435679
-0.0566116
-0.0699124
-0.0798264
-0.0922959
-0.103764
-0.113599
-0.121583
-0.127665
-0.131846
-0.13434
-0.135252
-0.13444
-0.132711
-0.130684
-0.128655
-0.126786
-0.12482
-0.122507
-0.120883
-0.119374
-0.117402
-0.115883
-0.114613
-0.113509
-0.112502
-0.111514
-0.110048
-0.108729
-0.10785
-0.107346
-0.107142
-0.10714
-0.10727
-0.107503
-0.107844
-0.108017
-0.0663794
-0.107094
-0.107927
-0.108278
-0.108529
-0.108747
-0.108929
-0.109029
-0.109004
-0.109024
-0.109766
-0.110398
-0.110786
-0.110876
-0.110469
-0.109077
-0.106492
-0.102109
-0.0932361
0
0
-0.00190303
-0.0108451
-0.021231
-0.0330398
-0.0459645
-0.0598121
-0.0744961
-0.0187286
-0.0972776
-0.109512
-0.119558
-0.127647
-0.133705
-0.137757
-0.140144
-0.140986
-0.139341
-0.137139
-0.134866
-0.132685
-0.130921
-0.128764
-0.12652
-0.124515
-0.122815
-0.120299
-0.118906
-0.117672
-0.116498
-0.115358
-0.114201
-0.113026
-0.111972
-0.111148
-0.110556
-0.110189
-0.110017
-0.109999
-0.110085
-0.110171
-0.109951
-0.108818
-0.109647
-0.110303
-0.110711
-0.110993
-0.111225
-0.111427
-0.111603
-0.111801
-0.112117
-0.112538
-0.11299
-0.113346
-0.113491
-0.113334
-0.112832
-0.109959
-0.10491
-0.0954599
0
0
-0.00193367
-0.011162
-0.0221855
-0.0348163
-0.0483762
-0.0626347
-0.0768894
-0.0890599
-0.102651
-0.114973
-0.125379
-0.133676
-0.139783
-0.143648
-0.145687
-0.146979
-0.14386
-0.141381
-0.13903
-0.136694
-0.13536
-0.132715
-0.130132
-0.127605
-0.124763
-0.123896
-0.122309
-0.120813
-0.119452
-0.118189
-0.11699
-0.115871
-0.114865
-0.114009
-0.113348
-0.112903
-0.112655
-0.112563
-0.112569
-0.112578
-0.11247
-0.112273
-0.112488
-0.112844
-0.113173
-0.113436
-0.113679
-0.113913
-0.114144
-0.114443
-0.114832
-0.115252
-0.115683
-0.116052
-0.116223
-0.116065
-0.115272
-0.112805
-0.107564
-0.0977648
0
0
-0.00183996
-0.0110806
-0.0234338
-0.0366821
-0.0509516
-0.0658023
-0.0806503
-0.0948475
-0.10855
-0.120965
-0.131529
-0.139943
-0.146093
-0.150119
-0.15321
-0.153121
-0.147838
-0.145981
-0.143732
-0.140914
-0.1606
-0.136458
-0.133545
-0.130929
-0.12807
-0.126407
-0.124938
-0.123518
-0.122157
-0.120866
-0.119653
-0.118528
-0.11749
-0.116546
-0.115814
-0.115333
-0.115069
-0.11497
-0.114989
-0.115051
-0.115079
-0.115047
-0.11517
-0.115441
-0.11571
-0.115904
-0.116129
-0.116371
-0.116595
-0.116944
-0.117409
-0.117905
-0.1184
-0.118833
-0.118979
-0.118722
-0.117876
-0.115494
-0.110183
-0.100112
0
0
-0.00170328
-0.0095896
-0.0248708
-0.0391933
-0.0541313
-0.069617
-0.0852374
-0.100383
-0.114552
-0.127241
-0.13798
-0.146443
-0.152459
-0.15596
-0.156568
-0.153084
-0.155675
-0.152927
-0.149388
-0.145924
-0.14317
-0.139943
-0.13697
-0.134281
-0.130589
-0.12898
-0.127542
-0.12611
-0.124714
-0.123387
-0.122148
-0.120995
-0.119884
-0.118769
-0.117963
-0.117497
-0.117273
-0.117214
-0.117302
-0.117468
-0.117602
-0.117491
-0.117658
-0.118037
-0.118322
-0.118391
-0.118594
-0.118824