# vtk DataFile Version 2.0
FlowField
ASCII
DATASET STRUCTURED_GRID
DIMENSIONS 102 11 11 
POINTS 12342 double
0 0 0
0 0 0.2
0 0 0.4
0 0 0.6
0 0 0.8
0 0 1
0 0 1.2
0 0 1.4
0 0 1.6
0 0 1.8
0 0 2
0 0.1 0
0 0.1 0.2
0 0.1 0.4
0 0.1 0.6
0 0.1 0.8
0 0.1 1
0 0.1 1.2
0 0.1 1.4
0 0.1 1.6
0 0.1 1.8
0 0.1 2
0 0.2 0
0 0.2 0.2
0 0.2 0.4
0 0.2 0.6
0 0.2 0.8
0 0.2 1
0 0.2 1.2
0 0.2 1.4
0 0.2 1.6
0 0.2 1.8
0 0.2 2
0 0.3 0
0 0.3 0.2
0 0.3 0.4
0 0.3 0.6
0 0.3 0.8
0 0.3 1
0 0.3 1.2
0 0.3 1.4
0 0.3 1.6
0 0.3 1.8
0 0.3 2
0 0.4 0
0 0.4 0.2
0 0.4 0.4
0 0.4 0.6
0 0.4 0.8
0 0.4 1
0 0.4 1.2
0 0.4 1.4
0 0.4 1.6
0 0.4 1.8
0 0.4 2
0 0.5 0
0 0.5 0.2
0 0.5 0.4
0 0.5 0.6
0 0.5 0.8
0 0.5 1
0 0.5 1.2
0 0.5 1.4
0 0.5 1.6
0 0.5 1.8
0 0.5 2
0 0.6 0
0 0.6 0.2
0 0.6 0.4
0 0.6 0.6
0 0.6 0.8
0 0.6 1
0 0.6 1.2
0 0.6 1.4
0 0.6 1.6
0 0.6 1.8
0 0.6 2
0 0.7 0
0 0.7 0.2
0 0.7 0.4
0 0.7 0.6
0 0.7 0.8
0 0.7 1
0 0.7 1.2
0 0.7 1.4
0 0.7 1.6
0 0.7 1.8
0 0.7 2
0 0.8 0
0 0.8 0.2
0 0.8 0.4
0 0.8 0.6
0 0.8 0.8
0 0.8 1
0 0.8 1.2
0 0.8 1.4
0 0.8 1.6
0 0.8 1.8
0 0.8 2
0 0.9 0
0 0.9 0.2
0 0.9 0.4
0 0.9 0.6
0 0.9 0.8
0 0.9 1
0 0.9 1.2
0 0.9 1.4
0 0.9 1.6
0 0.9 1.8
0 0.9 2
0 1 0
0 1 0.2
0 1 0.4
0 1 0.6
0 1 0.8
0 1 1
0 1 1.2
0 1 1.4
0 1 1.6
0 1 1.8
0 1 2
0.2 0 0
0.2 0 0.2
0.2 0 0.4
0.2 0 0.6
0.2 0 0.8
0.2 0 1
0.2 0 1.2
0.2 0 1.4
0.2 0 1.6
0.2 0 1.8
0.2 0 2
0.2 0.1 0
0.2 0.1 0.2
0.2 0.1 0.4
0.2 0.1 0.6
0.2 0.1 0.8
0.2 0.1 1
0.2 0.1 1.2
0.2 0.1 1.4
0.2 0.1 1.6
0.2 0.1 1.8
0.2 0.1 2
0.2 0.2 0
0.2 0.2 0.2
0.2 0.2 0.4
0.2 0.2 0.6
0.2 0.2 0.8
0.2 0.2 1
0.2 0.2 1.2
0.2 0.2 1.4
0.2 0.2 1.6
0.2 0.2 1.8
0.2 0.2 2
0.2 0.3 0
0.2 0.3 0.2
0.2 0.3 0.4
0.2 0.3 0.6
0.2 0.3 0.8
0.2 0.3 1
0.2 0.3 1.2
0.2 0.3 1.4
0.2 0.3 1.6
0.2 0.3 1.8
0.2 0.3 2
0.2 0.4 0
0.2 0.4 0.2
0.2 0.4 0.4
0.2 0.4 0.6
0.2 0.4 0.8
0.2 0.4 1
0.2 0.4 1.2
0.2 0.4 1.4
0.2 0.4 1.6
0.2 0.4 1.8
0.2 0.4 2
0.2 0.5 0
0.2 0.5 0.2
0.2 0.5 0.4
0.2 0.5 0.6
0.2 0.5 0.8
0.2 0.5 1
0.2 0.5 1.2
0.2 0.5 1.4
0.2 0.5 1.6
0.2 0.5 1.8
0.2 0.5 2
0.2 0.6 0
0.2 0.6 0.2
0.2 0.6 0.4
0.2 0.6 0.6
0.2 0.6 0.8
0.2 0.6 1
0.2 0.6 1.2
0.2 0.6 1.4
0.2 0.6 1.6
0.2 0.6 1.8
0.2 0.6 2
0.2 0.7 0
0.2 0.7 0.2
0.2 0.7 0.4
0.2 0.7 0.6
0.2 0.7 0.8
0.2 0.7 1
0.2 0.7 1.2
0.2 0.7 1.4
0.2 0.7 1.6
0.2 0.7 1.8
0.2 0.7 2
0.2 0.8 0
0.2 0.8 0.2
0.2 0.8 0.4
0.2 0.8 0.6
0.2 0.8 0.8
0.2 0.8 1
0.2 0.8 1.2
0.2 0.8 1.4
0.2 0.8 1.6
0.2 0.8 1.8
0.2 0.8 2
0.2 0.9 0
0.2 0.9 0.2
0.2 0.9 0.4
0.2 0.9 0.6
0.2 0.9 0.8
0.2 0.9 1
0.2 0.9 1.2
0.2 0.9 1.4
0.2 0.9 1.6
0.2 0.9 1.8
0.2 0.9 2
0.2 1 0
0.2 1 0.2
0.2 1 0.4
0.2 1 0.6
0.2 1 0.8
0.2 1 1
0.2 1 1.2
0.2 1 1.4
0.2 1 1.6
0.2 1 1.8
0.2 1 2
0.4 0 0
0.4 0 0.2
0.4 0 0.4
0.4 0 0.6
0.4 0 0.8
0.4 0 1
0.4 0 1.2
0.4 0 1.4
0.4 0 1.6
0.4 0 1.8
0.4 0 2
0.4 0.1 0
0.4 0.1 0.2
0.4 0.1 0.4
0.4 0.1 0.6
0.4 0.1 0.8
0.4 0.1 1
0.4 0.1 1.2
0.4 0.1 1.4
0.4 0.1 1.6
0.4 0.1 1.8
0.4 0.1 2
0.4 0.2 0
0.4 0.2 0.2
0.4 0.2 0.4
0.4 0.2 0.6
0.4 0.2 0.8
0.4 0.2 1
0.4 0.2 1.2
0.4 0.2 1.4
0.4 0.2 1.6
0.4 0.2 1.8
0.4 0.2 2
0.4 0.3 0
0.4 0.3 0.2
0.4 0.3 0.4
0.4 0.3 0.6
0.4 0.3 0.8
0.4 0.3 1
0.4 0.3 1.2
0.4 0.3 1.4
0.4 0.3 1.6
0.4 0.3 1.8
0.4 0.3 2
0.4 0.4 0
0.4 0.4 0.2
0.4 0.4 0.4
0.4 0.4 0.6
0.4 0.4 0.8
0.4 0.4 1
0.4 0.4 1.2
0.4 0.4 1.4
0.4 0.4 1.6
0.4 0.4 1.8
0.4 0.4 2
0.4 0.5 0
0.4 0.5 0.2
0.4 0.5 0.4
0.4 0.5 0.6
0.4 0.5 0.8
0.4 0.5 1
0.4 0.5 1.2
0.4 0.5 1.4
0.4 0.5 1.6
0.4 0.5 1.8
0.4 0.5 2
0.4 0.6 0
0.4 0.6 0.2
0.4 0.6 0.4
0.4 0.6 0.6
0.4 0.6 0.8
0.4 0.6 1
0.4 0.6 1.2
0.4 0.6 1.4
0.4 0.6 1.6
0.4 0.6 1.8
0.4 0.6 2
0.4 0.7 0
0.4 0.7 0.2
0.4 0.7 0.4
0.4 0.7 0.6
0.4 0.7 0.8
0.4 0.7 1
0.4 0.7 1.2
0.4 0.7 1.4
0.4 0.7 1.6
0.4 0.7 1.8
0.4 0.7 2
0.4 0.8 0
0.4 0.8 0.2
0.4 0.8 0.4
0.4 0.8 0.6
0.4 0.8 0.8
0.4 0.8 1
0.4 0.8 1.2
0.4 0.8 1.4
0.4 0.8 1.6
0.4 0.8 1.8
0.4 0.8 2
0.4 0.9 0
0.4 0.9 0.2
0.4 0.9 0.4
0.4 0.9 0.6
0.4 0.9 0.8
0.4 0.9 1
0.4 0.9 1.2
0.4 0.9 1.4
0.4 0.9 1.6
0.4 0.9 1.8
0.4 0.9 2
0.4 1 0
0.4 1 0.2
0.4 1 0.4
0.4 1 0.6
0.4 1 0.8
0.4 1 1
0.4 1 1.2
0.4 1 1.4
0.4 1 1.6
0.4 1 1.8
0.4 1 2
0.6 0 0
0.6 0 0.2
0.6 0 0.4
0.6 0 0.6
0.6 0 0.8
0.6 0 1
0.6 0 1.2
0.6 0 1.4
0.6 0 1.6
0.6 0 1.8
0.6 0 2
0.6 0.1 0
0.6 0.1 0.2
0.6 0.1 0.4
0.6 0.1 0.6
0.6 0.1 0.8
0.6 0.1 1
0.6 0.1 1.2
0.6 0.1 1.4
0.6 0.1 1.6
0.6 0.1 1.8
0.6 0.1 2
0.6 0.2 0
0.6 0.2 0.2
0.6 0.2 0.4
0.6 0.2 0.6
0.6 0.2 0.8
0.6 0.2 1
0.6 0.2 1.2
0.6 0.2 1.4
0.6 0.2 1.6
0.6 0.2 1.8
0.6 0.2 2
0.6 0.3 0
0.6 0.3 0.2
0.6 0.3 0.4
0.6 0.3 0.6
0.6 0.3 0.8
0.6 0.3 1
0.6 0.3 1.2
0.6 0.3 1.4
0.6 0.3 1.6
0.6 0.3 1.8
0.6 0.3 2
0.6 0.4 0
0.6 0.4 0.2
0.6 0.4 0.4
0.6 0.4 0.6
0.6 0.4 0.8
0.6 0.4 1
0.6 0.4 1.2
0.6 0.4 1.4
0.6 0.4 1.6
0.6 0.4 1.8
0.6 0.4 2
0.6 0.5 0
0.6 0.5 0.2
0.6 0.5 0.4
0.6 0.5 0.6
0.6 0.5 0.8
0.6 0.5 1
0.6 0.5 1.2
0.6 0.5 1.4
0.6 0.5 1.6
0.6 0.5 1.8
0.6 0.5 2
0.6 0.6 0
0.6 0.6 0.2
0.6 0.6 0.4
0.6 0.6 0.6
0.6 0.6 0.8
0.6 0.6 1
0.6 0.6 1.2
0.6 0.6 1.4
0.6 0.6 1.6
0.6 0.6 1.8
0.6 0.6 2
0.6 0.7 0
0.6 0.7 0.2
0.6 0.7 0.4
0.6 0.7 0.6
0.6 0.7 0.8
0.6 0.7 1
0.6 0.7 1.2
0.6 0.7 1.4
0.6 0.7 1.6
0.6 0.7 1.8
0.6 0.7 2
0.6 0.8 0
0.6 0.8 0.2
0.6 0.8 0.4
0.6 0.8 0.6
0.6 0.8 0.8
0.6 0.8 1
0.6 0.8 1.2
0.6 0.8 1.4
0.6 0.8 1.6
0.6 0.8 1.8
0.6 0.8 2
0.6 0.9 0
0.6 0.9 0.2
0.6 0.9 0.4
0.6 0.9 0.6
0.6 0.9 0.8
0.6 0.9 1
0.6 0.9 1.2
0.6 0.9 1.4
0.6 0.9 1.6
0.6 0.9 1.8
0.6 0.9 2
0.6 1 0
0.6 1 0.2
0.6 1 0.4
0.6 1 0.6
0.6 1 0.8
0.6 1 1
0.6 1 1.2
0.6 1 1.4
0.6 1 1.6
0.6 1 1.8
0.6 1 2
0.8 0 0
0.8 0 0.2
0.8 0 0.4
0.8 0 0.6
0.8 0 0.8
0.8 0 1
0.8 0 1.2
0.8 0 1.4
0.8 0 1.6
0.8 0 1.8
0.8 0 2
0.8 0.1 0
0.8 0.1 0.2
0.8 0.1 0.4
0.8 0.1 0.6
0.8 0.1 0.8
0.8 0.1 1
0.8 0.1 1.2
0.8 0.1 1.4
0.8 0.1 1.6
0.8 0.1 1.8
0.8 0.1 2
0.8 0.2 0
0.8 0.2 0.2
0.8 0.2 0.4
0.8 0.2 0.6
0.8 0.2 0.8
0.8 0.2 1
0.8 0.2 1.2
0.8 0.2 1.4
0.8 0.2 1.6
0.8 0.2 1.8
0.8 0.2 2
0.8 0.3 0
0.8 0.3 0.2
0.8 0.3 0.4
0.8 0.3 0.6
0.8 0.3 0.8
0.8 0.3 1
0.8 0.3 1.2
0.8 0.3 1.4
0.8 0.3 1.6
0.8 0.3 1.8
0.8 0.3 2
0.8 0.4 0
0.8 0.4 0.2
0.8 0.4 0.4
0.8 0.4 0.6
0.8 0.4 0.8
0.8 0.4 1
0.8 0.4 1.2
0.8 0.4 1.4
0.8 0.4 1.6
0.8 0.4 1.8
0.8 0.4 2
0.8 0.5 0
0.8 0.5 0.2
0.8 0.5 0.4
0.8 0.5 0.6
0.8 0.5 0.8
0.8 0.5 1
0.8 0.5 1.2
0.8 0.5 1.4
0.8 0.5 1.6
0.8 0.5 1.8
0.8 0.5 2
0.8 0.6 0
0.8 0.6 0.2
0.8 0.6 0.4
0.8 0.6 0.6
0.8 0.6 0.8
0.8 0.6 1
0.8 0.6 1.2
0.8 0.6 1.4
0.8 0.6 1.6
0.8 0.6 1.8
0.8 0.6 2
0.8 0.7 0
0.8 0.7 0.2
0.8 0.7 0.4
0.8 0.7 0.6
0.8 0.7 0.8
0.8 0.7 1
0.8 0.7 1.2
0.8 0.7 1.4
0.8 0.7 1.6
0.8 0.7 1.8
0.8 0.7 2
0.8 0.8 0
0.8 0.8 0.2
0.8 0.8 0.4
0.8 0.8 0.6
0.8 0.8 0.8
0.8 0.8 1
0.8 0.8 1.2
0.8 0.8 1.4
0.8 0.8 1.6
0.8 0.8 1.8
0.8 0.8 2
0.8 0.9 0
0.8 0.9 0.2
0.8 0.9 0.4
0.8 0.9 0.6
0.8 0.9 0.8
0.8 0.9 1
0.8 0.9 1.2
0.8 0.9 1.4
0.8 0.9 1.6
0.8 0.9 1.8
0.8 0.9 2
0.8 1 0
0.8 1 0.2
0.8 1 0.4
0.8 1 0.6
0.8 1 0.8
0.8 1 1
0.8 1 1.2
0.8 1 1.4
0.8 1 1.6
0.8 1 1.8
0.8 1 2
1 0 0
1 0 0.2
1 0 0.4
1 0 0.6
1 0 0.8
1 0 1
1 0 1.2
1 0 1.4
1 0 1.6
1 0 1.8
1 0 2
1 0.1 0
1 0.1 0.2
1 0.1 0.4
1 0.1 0.6
1 0.1 0.8
1 0.1 1
1 0.1 1.2
1 0.1 1.4
1 0.1 1.6
1 0.1 1.8
1 0.1 2
1 0.2 0
1 0.2 0.2
1 0.2 0.4
1 0.2 0.6
1 0.2 0.8
1 0.2 1
1 0.2 1.2
1 0.2 1.4
1 0.2 1.6
1 0.2 1.8
1 0.2 2
1 0.3 0
1 0.3 0.2
1 0.3 0.4
1 0.3 0.6
1 0.3 0.8
1 0.3 1
1 0.3 1.2
1 0.3 1.4
1 0.3 1.6
1 0.3 1.8
1 0.3 2
1 0.4 0
1 0.4 0.2
1 0.4 0.4
1 0.4 0.6
1 0.4 0.8
1 0.4 1
1 0.4 1.2
1 0.4 1.4
1 0.4 1.6
1 0.4 1.8
1 0.4 2
1 0.5 0
1 0.5 0.2
1 0.5 0.4
1 0.5 0.6
1 0.5 0.8
1 0.5 1
1 0.5 1.2
1 0.5 1.4
1 0.5 1.6
1 0.5 1.8
1 0.5 2
1 0.6 0
1 0.6 0.2
1 0.6 0.4
1 0.6 0.6
1 0.6 0.8
1 0.6 1
1 0.6 1.2
1 0.6 1.4
1 0.6 1.6
1 0.6 1.8
1 0.6 2
1 0.7 0
1 0.7 0.2
1 0.7 0.4
1 0.7 0.6
1 0.7 0.8
1 0.7 1
1 0.7 1.2
1 0.7 1.4
1 0.7 1.6
1 0.7 1.8
1 0.7 2
1 0.8 0
1 0.8 0.2
1 0.8 0.4
1 0.8 0.6
1 0.8 0.8
1 0.8 1
1 0.8 1.2
1 0.8 1.4
1 0.8 1.6
1 0.8 1.8
1 0.8 2
1 0.9 0
1 0.9 0.2
1 0.9 0.4
1 0.9 0.6
1 0.9 0.8
1 0.9 1
1 0.9 1.2
1 0.9 1.4
1 0.9 1.6
1 0.9 1.8
1 0.9 2
1 1 0
1 1 0.2
1 1 0.4
1 1 0.6
1 1 0.8
1 1 1
1 1 1.2
1 1 1.4
1 1 1.6
1 1 1.8
1 1 2
1.2 0 0
1.2 0 0.2
1.2 0 0.4
1.2 0 0.6
1.2 0 0.8
1.2 0 1
1.2 0 1.2
1.2 0 1.4
1.2 0 1.6
1.2 0 1.8
1.2 0 2
1.2 0.1 0
1.2 0.1 0.2
1.2 0.1 0.4
1.2 0.1 0.6
1.2 0.1 0.8
1.2 0.1 1
1.2 0.1 1.2
1.2 0.1 1.4
1.2 0.1 1.6
1.2 0.1 1.8
1.2 0.1 2
1.2 0.2 0
1.2 0.2 0.2
1.2 0.2 0.4
1.2 0.2 0.6
1.2 0.2 0.8
1.2 0.2 1
1.2 0.2 1.2
1.2 0.2 1.4
1.2 0.2 1.6
1.2 0.2 1.8
1.2 0.2 2
1.2 0.3 0
1.2 0.3 0.2
1.2 0.3 0.4
1.2 0.3 0.6
1.2 0.3 0.8
1.2 0.3 1
1.2 0.3 1.2
1.2 0.3 1.4
1.2 0.3 1.6
1.2 0.3 1.8
1.2 0.3 2
1.2 0.4 0
1.2 0.4 0.2
1.2 0.4 0.4
1.2 0.4 0.6
1.2 0.4 0.8
1.2 0.4 1
1.2 0.4 1.2
1.2 0.4 1.4
1.2 0.4 1.6
1.2 0.4 1.8
1.2 0.4 2
1.2 0.5 0
1.2 0.5 0.2
1.2 0.5 0.4
1.2 0.5 0.6
1.2 0.5 0.8
1.2 0.5 1
1.2 0.5 1.2
1.2 0.5 1.4
1.2 0.5 1.6
1.2 0.5 1.8
1.2 0.5 2
1.2 0.6 0
1.2 0.6 0.2
1.2 0.6 0.4
1.2 0.6 0.6
1.2 0.6 0.8
1.2 0.6 1
1.2 0.6 1.2
1.2 0.6 1.4
1.2 0.6 1.6
1.2 0.6 1.8
1.2 0.6 2
1.2 0.7 0
1.2 0.7 0.2
1.2 0.7 0.4
1.2 0.7 0.6
1.2 0.7 0.8
1.2 0.7 1
1.2 0.7 1.2
1.2 0.7 1.4
1.2 0.7 1.6
1.2 0.7 1.8
1.2 0.7 2
1.2 0.8 0
1.2 0.8 0.2
1.2 0.8 0.4
1.2 0.8 0.6
1.2 0.8 0.8
1.2 0.8 1
1.2 0.8 1.2
1.2 0.8 1.4
1.2 0.8 1.6
1.2 0.8 1.8
1.2 0.8 2
1.2 0.9 0
1.2 0.9 0.2
1.2 0.9 0.4
1.2 0.9 0.6
1.2 0.9 0.8
1.2 0.9 1
1.2 0.9 1.2
1.2 0.9 1.4
1.2 0.9 1.6
1.2 0.9 1.8
1.2 0.9 2
1.2 1 0
1.2 1 0.2
1.2 1 0.4
1.2 1 0.6
1.2 1 0.8
1.2 1 1
1.2 1 1.2
1.2 1 1.4
1.2 1 1.6
1.2 1 1.8
1.2 1 2
1.4 0 0
1.4 0 0.2
1.4 0 0.4
1.4 0 0.6
1.4 0 0.8
1.4 0 1
1.4 0 1.2
1.4 0 1.4
1.4 0 1.6
1.4 0 1.8
1.4 0 2
1.4 0.1 0
1.4 0.1 0.2
1.4 0.1 0.4
1.4 0.1 0.6
1.4 0.1 0.8
1.4 0.1 1
1.4 0.1 1.2
1.4 0.1 1.4
1.4 0.1 1.6
1.4 0.1 1.8
1.4 0.1 2
1.4 0.2 0
1.4 0.2 0.2
1.4 0.2 0.4
1.4 0.2 0.6
1.4 0.2 0.8
1.4 0.2 1
1.4 0.2 1.2
1.4 0.2 1.4
1.4 0.2 1.6
1.4 0.2 1.8
1.4 0.2 2
1.4 0.3 0
1.4 0.3 0.2
1.4 0.3 0.4
1.4 0.3 0.6
1.4 0.3 0.8
1.4 0.3 1
1.4 0.3 1.2
1.4 0.3 1.4
1.4 0.3 1.6
1.4 0.3 1.8
1.4 0.3 2
1.4 0.4 0
1.4 0.4 0.2
1.4 0.4 0.4
1.4 0.4 0.6
1.4 0.4 0.8
1.4 0.4 1
1.4 0.4 1.2
1.4 0.4 1.4
1.4 0.4 1.6
1.4 0.4 1.8
1.4 0.4 2
1.4 0.5 0
1.4 0.5 0.2
1.4 0.5 0.4
1.4 0.5 0.6
1.4 0.5 0.8
1.4 0.5 1
1.4 0.5 1.2
1.4 0.5 1.4
1.4 0.5 1.6
1.4 0.5 1.8
1.4 0.5 2
1.4 0.6 0
1.4 0.6 0.2
1.4 0.6 0.4
1.4 0.6 0.6
1.4 0.6 0.8
1.4 0.6 1
1.4 0.6 1.2
1.4 0.6 1.4
1.4 0.6 1.6
1.4 0.6 1.8
1.4 0.6 2
1.4 0.7 0
1.4 0.7 0.2
1.4 0.7 0.4
1.4 0.7 0.6
1.4 0.7 0.8
1.4 0.7 1
1.4 0.7 1.2
1.4 0.7 1.4
1.4 0.7 1.6
1.4 0.7 1.8
[...]
POINT_DATA 12342

SCALARS F double
LOOKUP_TABLE default
0
0
0
0
0
0
0
0
0
0
0
0
1
1
1
1
1
1
1
1
1
0
0
1
1
1
1
1
1
1
1
1
0
0
1
1
1
1
1
1
1
1
1
0
0
1
1
1
1
1
1
1
1
1
0
0
1
1
1
1
1
1
1
1
1
0
0
1
1
1
1
1
1
1
1
1
0
0
1
1
1
1
1
1
1
1
1
0
0
1
1
1
1
1
1
1
1
1
0
0
1
1
1
1
1
1
1
1
1
0
0
0
0
0
0
0
0
0
0
0
0
0
0
0
0
0
0
0
0
0
0
0
0
4.80286e+31
-1.07214e+32
-1.6494e+29
-2.02609e+31
1.27278e+33
-2.86335e+33
1.09744e+33
-1.15022e+34
5.1833e+33
0
0
5.20655e+31
-1.21641e+32
-1.04203e+31
-1.75394e+31
1.20707e+33
-2.69408e+33
2.46976e+32
-1.2748e+34
5.57288e+33
0
0
5.56476e+31
-1.30317e+32
-1.09274e+31
-1.88714e+31
1.26253e+33
-2.83071e+33
2.18288e+32
-1.33302e+34
5.80995e+33
0
0
5.7788e+31
-1.35342e+32
-1.09696e+31
-1.97469e+31
1.29811e+33
-2.91716e+33
2.22921e+32
-1.36522e+34
5.94411e+33
0
0
5.82463e+31
-1.36387e+32
-1.09893e+31
-1.99636e+31
1.30459e+33
-2.93206e+33
2.2299e+32
-1.36963e+34
5.96152e+33
0
0
5.70069e+31
-1.33463e+32
-1.09855e+31
-1.94848e+31
1.27987e+33
-2.87198e+33
2.11795e+32
-1.34579e+34
5.85891e+33
0
0
5.4152e+31
-1.26702e+32
-1.09696e+31
-1.83088e+31
1.22487e+33
-2.73772e+33
1.93135e+32
-1.29416e+34
5.64004e+33
0
0
4.98717e+31
-1.16324e+32
-1.02492e+31
-1.64895e+31
1.14768e+33
-2.55502e+33
2.19134e+32
-1.21585e+34
5.31708e+33
0
0
4.34704e+31
-9.54778e+31
2.1253e+30
-1.92094e+31
1.20289e+33
-2.69858e+33
1.22635e+33
-1.0518e+34
4.79146e+33
0
0
0
0
0
0
0
0
0
0
0
0
0
0
0
0
0
0
0
0
0
0
0
0
2.47763e+31
-2.38806e+31
5.51184e+31
1.70234e+31
1.80501e+33
-3.15566e+33
7.18821e+33
-6.07477e+33
4.07506e+33
0
0
2.72824e+31
-3.00491e+31
5.87623e+31
1.75409e+31
1.90063e+33
-3.53067e+33
7.52235e+33
-6.8979e+33
4.41045e+33
0
0
2.94048e+31
-3.31015e+31
6.34652e+31
1.76056e+31
2.00077e+33
-3.75175e+33
7.91279e+33
-7.22066e+33
4.60118e+33
0
0
3.0589e+31
-3.46955e+31
6.5968e+31
1.77572e+31
2.05567e+33
-3.86763e+33
8.13272e+33
-7.38751e+33
4.70365e+33
0
0
3.08386e+31
-3.50351e+31
6.64511e+31
1.76801e+31
2.06468e+33
-3.88747e+33
8.16974e+33
-7.4093e+33
4.71634e+33
0
0
3.01694e+31
-3.41979e+31
6.50444e+31
1.737e+31
2.02816e+33
-3.81538e+33
8.02391e+33
-7.28714e+33
4.63839e+33
0
0
2.85989e+31
-3.21436e+31
6.16951e+31
1.68388e+31
1.94524e+33
-3.64857e+33
7.69443e+33
-7.01622e+33
4.4697e+33
0
0
2.61541e+31
-2.86984e+31
5.65647e+31
1.63862e+31
1.81604e+33
-3.38147e+33
7.20029e+33
-6.57893e+33
4.21006e+33
0
0
2.24634e+31
-2.0539e+31
5.03737e+31
1.63578e+31
1.67411e+33
-2.86063e+33
6.67891e+33
-5.55809e+33
3.78068e+33
0
0
0
0
0
0
0
0
0
0
0
0
0
0
0
0
0
0
0
0
0
0
0
0
8.28312e+29
1.08441e+31
2.07152e+31
1.40919e+31
4.19995e+32
7.34924e+32
1.9212e+33
1.75116e+33
3.4468e+32
0
0
8.51299e+29
1.21528e+31
2.32751e+31
1.48187e+31
4.48292e+32
7.43215e+32
2.12942e+33
1.90726e+33
3.63392e+32
0
0
8.99478e+29
1.32242e+31
2.46885e+31
1.58635e+31
4.67029e+32
7.90061e+32
2.23795e+33
2.00044e+33
3.75423e+32
0
0
9.31337e+29
1.38198e+31
2.54526e+31
1.64311e+31
4.78039e+32
8.15501e+32
2.29688e+33
2.05052e+33
3.81924e+32
0
0
9.38366e+29
1.39449e+31
2.55977e+31
1.65263e+31
4.79717e+32
8.20065e+32
2.30672e+33
2.05755e+33
3.82415e+32
0
0
9.18698e+29
1.36089e+31
2.51359e+31
1.61484e+31
4.71729e+32
8.04215e+32
2.26771e+33
2.02134e+33
3.76756e+32
0
0
8.74271e+29
1.28209e+31
2.40576e+31
1.52785e+31
4.54232e+32
7.67102e+32
2.17937e+33
1.94146e+33
3.65124e+32
0
0
8.12238e+29
1.15921e+31
2.23176e+31
1.39221e+31
4.28427e+32
7.08176e+32
2.04015e+33
1.81657e+33
3.48103e+32
0
0
7.72673e+29
9.69151e+30
1.88772e+31
1.29317e+31
3.91495e+32
6.84553e+32
1.76431e+33
1.61615e+33
3.24102e+32
0
0
0
0
0
0
0
0
0
0
0
0
0
0
0
0
0
0
0
0
0
0
0
0
5.45646e+29
-1.51739e+29
2.68507e+30
-1.6475e+29
5.2204e+31
1.63256e+32
7.59351e+31
1.3945e+32
2.28345e+31
0
0
5.51175e+29
-1.68687e+29
2.80065e+30
-1.07492e+29
5.50793e+31
1.79e+32
8.20616e+31
1.49029e+32
2.34652e+31
0
0
5.56465e+29
-1.79572e+29
2.87904e+30
-4.45209e+28
5.67021e+31
1.88388e+32
8.61149e+31
1.54742e+32
2.3985e+31
0
0
5.59449e+29
-1.85591e+29
2.92468e+30
-4.70903e+27
5.76757e+31
1.93747e+32
8.8408e+31
1.57751e+32
2.42803e+31
0
0
5.59076e+29
-1.87309e+29
2.93092e+30
7.07263e+27
5.77794e+31
1.94727e+32
8.88233e+31
1.58012e+32
2.42835e+31
0
0
5.5512e+29
-1.84965e+29
2.89563e+30
-1.03767e+28
5.69546e+31
1.91287e+32
8.73331e+31
1.55505e+32
2.39776e+31
0
0
5.48016e+29
-1.78276e+29
2.81865e+30
-5.79461e+28
5.52528e+31
1.83458e+32
8.39288e+31
1.50247e+32
2.33915e+31
0
0
5.39049e+29
-1.66373e+29
2.70202e+30
-1.338e+29
5.28672e+31
1.71531e+32
7.86624e+31
1.42304e+32
2.26114e+31
0
0
5.29975e+29
-1.41807e+29
2.55779e+30
-1.62672e+29
4.92662e+31
1.5009e+32
7.04789e+31
1.30145e+32
2.17703e+31
0
0
0
0
0
0
0
0
0
0
0
0
0
0
0
0
0
0
0
0
0
0
0
0
3.45108e+29
2.54541e+29
1.0421e+30
9.69677e+29
4.20489e+30
1.48402e+31
-1.53928e+29
5.429e+30
1.6421e+30
0
0
3.45932e+29
2.5308e+29
1.04742e+30
9.65079e+29
4.28827e+30
1.59441e+31
-1.46668e+29
5.63843e+30
1.66867e+30
0
0
3.46611e+29
2.5179e+29
1.05385e+30
9.64966e+29
4.35333e+30
1.66474e+31
-1.25332e+29
5.7796e+30
1.69452e+30
0
0
3.4681e+29
2.5066e+29
1.05737e+30
9.65057e+29
4.3913e+30
1.70633e+31
-1.0873e+29
5.85303e+30
1.70988e+30
0
0
3.46329e+29
2.49965e+29
1.05631e+30
9.63563e+29
4.39046e+30
1.71335e+31
-1.02311e+29
5.85007e+30
1.70895e+30
0
0
3.45162e+29
2.49822e+29
1.05023e+30
9.60146e+29
4.34767e+30
1.68422e+31
-1.07736e+29
5.76931e+30
1.69024e+30
0
0
3.43474e+29
2.50257e+29
1.03978e+30
9.56064e+29
4.26736e+30
1.62031e+31
-1.24497e+29
5.61588e+30
1.6565e+30
0
0
3.41612e+29
2.51183e+29
1.02706e+30
9.54073e+29
4.16289e+30
1.52672e+31
-1.48226e+29
5.40371e+30
1.61514e+30
0
0
3.39495e+29
2.52651e+29
1.01867e+30
9.5792e+29
4.05306e+30
1.37887e+31
-1.60378e+29
5.13159e+30
1.5778e+30
0
0
0
0
0
0
0
0
0
0
0
0
0
0
0
0
0
0
0
0
0
0
0
0
2.09291e+29
2.32013e+29
4.35513e+29
5.20548e+29
6.38058e+29
1.48637e+30
7.50111e+28
4.27481e+29
8.52682e+28
0
0
2.09243e+29
2.31679e+29
4.36004e+29
5.21352e+29
6.41467e+29
1.53998e+30
7.86958e+28
4.35062e+29
8.63346e+28
0
0
2.09238e+29
2.31448e+29
4.36667e+29
5.22294e+29
6.45101e+29
1.58592e+30
7.97351e+28
4.41194e+29
8.73877e+28
0
0
2.09123e+29
2.31161e+29
4.36865e+29
5.22673e+29
6.47133e+29
1.61416e+30
7.9868e+28
4.44243e+29
8.80054e+28
0
0
2.08876e+29
2.30841e+29
4.36314e+29
5.22e+29
6.46513e+29
1.61723e+30
7.92256e+28
4.43209e+29
8.78567e+28
0
0
2.08512e+29
2.30525e+29
4.34973e+29
5.20194e+29
6.43006e+29
1.59302e+30
7.78648e+28
4.37952e+29
8.68589e+28
0
0
2.08085e+29
2.30259e+29
4.33052e+29
5.17618e+29
6.37147e+29
1.54404e+30
7.59505e+28
4.29119e+29
8.51959e+28
0
0
2.07681e+29
2.30097e+29
4.31033e+29
5.15019e+29
6.30317e+29
1.47817e+30
7.35526e+28
4.18272e+29
8.33101e+28
0
0
2.07167e+29
2.30004e+29
4.29546e+29
5.13203e+29
6.25009e+29
1.40467e+30
6.90974e+28
4.07661e+29
8.18191e+28
0
0
0
0
0
0
0
0
0
0
0
0
0
0
0
0
0
0
0
0
0
0
0
0
1.17757e+29
1.36441e+29
1.84741e+29
2.05026e+29
1.94192e+29
2.6299e+29
1.29808e+29
9.19213e+28
-1.19324e+28
0
0
1.17651e+29
1.36314e+29
1.84721e+29
2.05127e+29
1.94768e+29
2.66246e+29
1.30964e+29
9.25556e+28
-1.19066e+28
0
0
1.17609e+29
1.36246e+29
1.84743e+29
2.05245e+29
1.954e+29
2.69676e+29
1.31922e+29
9.30915e+28
-1.19482e+28
0
0
1.17537e+29
1.36147e+29
1.84678e+29
2.0523e+29
1.95733e+29
2.71767e+29
1.32335e+29
9.3291e+28
-1.19906e+28
0
0
1.17439e+29
1.36022e+29
1.8449e+29
2.04998e+29
1.95522e+29
2.71566e+29
1.3195e+29
9.29804e+28
-1.20251e+28
0
0
1.17324e+29
1.35885e+29
1.84183e+29
2.04545e+29
1.94714e+29
2.68821e+29
1.30727e+29
9.21407e+28
-1.20457e+28
0
0
1.17207e+29
1.35754e+29
1.83808e+29
2.03954e+29
1.93456e+29
2.63969e+29
1.28858e+29
9.09066e+28
-1.20495e+28
0
0
1.17109e+29
1.35654e+29
1.83452e+29
2.03377e+29
1.92083e+29
2.58185e+29
1.26752e+29
8.95673e+28
-1.20386e+28
0
0
1.16915e+29
1.35497e+29
1.83136e+29
2.02962e+29
1.91097e+29
2.53423e+29
1.25069e+29
8.86189e+28
-1.19619e+28
0
0
0
0
0
0
0
0
0
0
0
0
0
0
0
0
0
0
0
0
0
0
0
0
6.17893e+28
6.98286e+28
8.10805e+28
8.29141e+28
7.4395e+28
7.816e+28
6.05049e+28
3.8656e+28
1.00991e+28
0
0
6.17156e+28
6.9759e+28
8.10343e+28
8.29017e+28
7.44681e+28
7.84427e+28
6.06932e+28
3.87589e+28
1.01251e+28
0
0
6.16963e+28
6.97352e+28
8.10169e+28
8.28966e+28
7.45365e+28
7.87312e+28
6.08353e+28
3.88034e+28
1.00934e+28
0
0
6.16689e+28
6.97014e+28
8.09811e+28
8.28639e+28
7.45483e+28
7.88683e+28
6.08612e+28
3.87813e+28
1.00504e+28
0
0
6.16359e+28
6.96604e+28
8.09246e+28
8.27937e+28
7.4462e+28
7.87288e+28
6.06999e+28
3.86591e+28
9.99979e+27
0
0
6.16012e+28
6.96165e+28
8.08514e+28
8.26889e+28
7.42721e+28
7.82865e+28
6.03445e+28
3.84377e+28
9.94738e+27
0
0
6.15692e+28
6.95757e+28
8.07727e+28
8.2567e+28
7.40135e+28
7.76227e+28
5.9857e+28
3.81545e+28
9.90023e+27
0
0
6.15444e+28
6.95444e+28
8.07046e+28
8.24567e+28
7.3756e+28
7.69201e+28
5.93613e+28
3.78791e+28
9.86544e+27
0
0
6.14394e+28
6.94485e+28
8.06049e+28
8.23647e+28
7.36017e+28
7.6479e+28
5.90858e+28
3.77626e+28
9.90818e+27
0
0
0
0
0
0
0
0
0
0
0
0
0
0
0
0
0
0
0
0
0
0
0
0
3.10297e+28
3.40872e+28
3.66862e+28
3.57775e+28
3.16565e+28
3.07311e+28
2.74915e+28
2.09372e+28
1.35297e+28
0
0
3.09821e+28
3.40446e+28
3.66549e+28
3.57625e+28
3.16649e+28
3.07701e+28
2.75329e+28
2.09715e+28
1.35555e+28
0
0
3.09758e+28
3.40371e+28
3.6647e+28
3.57551e+28
3.16644e+28
3.07869e+28
2.75381e+28
2.09633e+28
1.35386e+28
0
0
3.09673e+28
3.40268e+28
3.66349e+28
3.57416e+28
3.16523e+28
3.07785e+28
2.75173e+28
2.09369e+28
1.35126e+28
0
0
3.09577e+28
3.40149e+28
3.66191e+28
3.57216e+28
3.16233e+28
3.07289e+28
2.74584e+28
2.08869e+28
1.34785e+28
0
0
3.09482e+28
3.40027e+28
3.66014e+28
3.56967e+28
3.15784e+28
3.06373e+28
2.73627e+28
2.08162e+28
1.34395e+28
0
0
3.09398e+28
3.39919e+28
3.65841e+28
3.56706e+28
3.15252e+28
3.05203e+28
2.72465e+28
2.0736e+28
1.34011e+28
0
0
3.09337e+28
3.39838e+28
3.65702e+28
3.56487e+28
3.14766e+28
3.04082e+28
2.71382e+28
2.06645e+28
1.33702e+28
0
0
3.08676e+28
3.39247e+28
3.6523e+28
3.56189e+28
3.14546e+28
3.0367e+28
2.71134e+28
2.06686e+28
1.34008e+28
0
0
0
0
0
0
0
0
0
0
0
0
0
0
0
0
0
0
0
0
0
0
0
0
1.52433e+28
1.64205e+28
1.70299e+28
1.62754e+28
1.44528e+28
1.37886e+28
1.31835e+28
1.16305e+28
9.91835e+27
0
0
1.5212e+28
1.6393e+28
1.70099e+28
1.62655e+28
1.44544e+28
1.3801e+28
1.32018e+28
1.16511e+28
9.93933e+27
0
0
1.52103e+28
1.6391e+28
1.70074e+28
1.62626e+28
1.44512e+28
1.37977e+28
1.31961e+28
1.16432e+28
9.9304e+27
0
0
1.52081e+28
1.63882e+28
1.7004e+28
1.62583e+28
1.44454e+28
1.37888e+28
1.31835e+28
1.16293e+28
9.91705e+27
0
0
1.52057e+28
1.63852e+28
1.69999e+28
1.62528e+28
1.44365e+28
1.37727e+28
1.31629e+28
1.16094e+28
9.90003e+27
0
0
1.52035e+28
1.63822e+28
1.69957e+28
1.62466e+28
1.44252e+28
1.37502e+28
1.31355e+28
1.1585e+28
9.88106e+27
0
0
1.52015e+28
1.63796e+28
1.69918e+28
1.62407e+28
1.44133e+28
1.3725e+28
1.31057e+28
1.15597e+28
9.86275e+27
0
0
1.52002e+28
1.63778e+28
1.69889e+28
1.6236e+28
1.44032e+28
1.37027e+28
1.30798e+28
1.15385e+28
9.84815e+27
0
0
1.51563e+28
1.63393e+28
1.69605e+28
1.62213e+28
1.44013e+28
1.37079e+28
1.30931e+28
1.15602e+28
9.87593e+27
0
0
0
0
0
0
0
0
0
0
0
0
0
0
0
0
0
0
0
0
0
0
0
0
7.42648e+27
7.9094e+27
8.06834e+27
7.67579e+27
6.89163e+27
6.58422e+27
6.53981e+27
6.31751e+27
6.05536e+27
0
0
7.40543e+27
7.89105e+27
8.05509e+27
7.66932e+27
6.89249e+27
6.59164e+27
6.552e+27
6.33258e+27
6.07171e+27
0
0
7.4051e+27
7.89059e+27
8.05445e+27
7.66844e+27
6.89114e+27
6.58939e+27
6.54871e+27
6.32863e+27
6.06754e+27
0
0
7.40467e+27
7.88999e+27
8.0536e+27
7.6672e+27
6.88908e+27
6.58565e+27
6.54344e+27
6.32266e+27
6.06153e+27
0
0
7.40422e+27
7.88934e+27
8.05264e+27
7.66572e+27
6.88641e+27
6.58044e+27
6.53627e+27
6.31498e+27
6.05418e+27
0
0
7.40382e+27
7.88872e+27
8.05169e+27
7.66416e+27
6.88338e+27
6.57419e+27
6.52786e+27
6.30634e+27
6.04625e+27
0
0
7.4035e+27
7.88822e+27
8.05086e+27
7.66274e+27
6.88042e+27
6.56783e+27
6.51941e+27
6.29794e+27
6.03881e+27
0
0
7.40329e+27
7.88787e+27
8.05025e+27
7.66165e+27
6.87804e+27
6.56256e+27
6.51249e+27
6.29121e+27
6.03299e+27
0
0
7.37359e+27
7.86201e+27
8.03159e+27
7.6525e+27
6.87881e+27
6.57146e+27
6.52794e+27
6.31149e+27
6.05594e+27
0
0
0
0
0
0
0
0
0
0
0
0
0
0
0
0
0
0
0
0
0
0
0
0
3.61458e+27
3.82722e+27
3.88169e+27
3.704e+27
3.36795e+27
3.23676e+27
3.29187e+27
3.35365e+27
3.40541e+27
0
0
3.60028e+27
3.81478e+27
3.87273e+27
3.69964e+27
3.36856e+27
3.24191e+27
3.30062e+27
3.3648e+27
3.41773e+27
0
0
3.60026e+27
3.81472e+27
3.8726e+27
3.69939e+27
3.36809e+27
3.24099e+27
3.29925e+27
3.36314e+27
3.41596e+27
0
0
3.60024e+27
3.81464e+27
3.87243e+27
3.69905e+27
3.36742e+27
3.23963e+27
3.29725e+27
3.36077e+27
3.41349e+27
0
0
3.60022e+27
3.81456e+27
3.87223e+27
3.69866e+27
3.36661e+27
3.23792e+27
3.29476e+27
3.3579e+27
3.41054e+27
0
0
3.60022e+27
3.81449e+27
3.87205e+27
3.69827e+27
3.36575e+27
3.23604e+27
3.29203e+27
3.35482e+27
3.40745e+27
0
0
3.60024e+27
3.81444e+27
3.8719e+27
3.69792e+27
3.36494e+27
3.23423e+27
3.28944e+27
3.35194e+27
3.40461e+27
0
0
3.60026e+27
3.81442e+27
3.87179e+27
3.69765e+27
3.36432e+27
3.2328e+27
3.28739e+27
3.3497e+27
3.40243e+27
0
0
3.58e+27
3.79682e+27
3.85913e+27
3.69149e+27
3.36516e+27
3.23994e+27
3.29961e+27
3.36545e+27
3.41999e+27
0
0
0
0
0
0
0
0
0
0
0
0
0
0
0
0
0
0
0
0
0
0
0
0
1.76306e+27
1.86208e+27
1.888e+27
1.81244e+27
1.66751e+27
1.61245e+27
1.6653e+27
1.75097e+27
1.83503e+27
0
0
1.75331e+27
1.85361e+27
1.88189e+27
1.80946e+27
1.66794e+27
1.61609e+27
1.67158e+27
1.75908e+27
1.84406e+27
0
0
1.75334e+27
1.85362e+27
1.88188e+27
1.8094e+27
1.66779e+27
1.61575e+27
1.67105e+27
1.75843e+27
1.84335e+27
0
0
1.75338e+27
1.85364e+27
1.88186e+27
1.80931e+27
1.66758e+27
1.61528e+27
1.67032e+27
1.75753e+27
1.84238e+27
0
0
1.75343e+27
1.85366e+27
1.88183e+27
1.80921e+27
1.66733e+27
1.6147e+27
1.66945e+27
1.75647e+27
1.84125e+27
0
0
1.75348e+27
1.85369e+27
1.88182e+27
1.80911e+27
1.66707e+27
1.6141e+27
1.66853e+27
1.75537e+27
1.84009e+27
0
0
1.75353e+27
1.85372e+27
1.88181e+27
1.80903e+27
1.66683e+27
1.61354e+27
1.66769e+27
1.75437e+27
1.83903e+27
0
0
1.75357e+27
1.85374e+27
1.8818e+27
1.80896e+27
1.66665e+27
1.61311e+27
1.66703e+27
1.7536e+27
1.83823e+27
0
0
1.73974e+27
1.84172e+27
1.87314e+27
1.80474e+27
1.66727e+27
1.61827e+27
1.67594e+27
1.76514e+27
1.85111e+27
0
0
0
0
0
0
0
0
0
0
0
0
0
0
0
0
0
0
0
0
0
0
0
0
8.62365e+26
9.10186e+26
9.24993e+26
8.94049e+26
8.30985e+26
8.08089e+26
8.43471e+26
9.04341e+26
9.65639e+26
0
0
8.55724e+26
9.04413e+26
9.20832e+26
8.92018e+26
8.31306e+26
8.10661e+26
8.47935e+26
9.1015e+26
9.72139e+26
0
0
8.5575e+26
9.04432e+26
9.20838e+26
8.92004e+26
8.31256e+26
8.10539e+26
8.47741e+26
9.09904e+26
9.71866e+26
0
0
8.55782e+26
9.04456e+26
9.20846e+26
8.91984e+26
8.31188e+26
8.10371e+26
8.47476e+26
9.09569e+26
9.71497e+26
0
0
8.55818e+26
9.04484e+26
9.20855e+26
8.91962e+26
8.31109e+26
8.10176e+26
8.47167e+26
9.09182e+26
9.71071e+26
0
0
8.55856e+26
9.04512e+26
9.20865e+26
8.91939e+26
8.31028e+26
8.09975e+26
8.4685e+26
9.08785e+26
9.70637e+26
0
0
8.55892e+26
9.04539e+26
9.20876e+26
8.9192e+26
8.30956e+26
8.09793e+26
8.46562e+26
9.08427e+26
9.70248e+26
0
0
8.55921e+26
9.04562e+26
9.20886e+26
8.91907e+26
8.30902e+26
8.09653e+26
8.46342e+26
9.08155e+26
9.69951e+26
0
0
8.46494e+26
8.96368e+26
9.14978e+26
8.89024e+26
8.3136e+26
8.1331e+26
8.52692e+26
9.16424e+26
9.79208e+26
0
0
0
0
0
0
0
0
0
0
0
0
0
0
0
0
0
0
0
0
0
0
0
0
4.22622e+26
4.46213e+26
4.55105e+26
4.42892e+26
4.15316e+26
4.06083e+26
4.27311e+26
4.64056e+26
5.0149e+26
0
0
4.18116e+26
4.42299e+26
4.52288e+26
4.41532e+26
4.15575e+26
4.07912e+26
4.30478e+26
4.68189e+26
5.06123e+26
0
0
4.18132e+26
4.42312e+26
4.52295e+26
4.4153e+26
4.15558e+26
4.07868e+26
4.30406e+26
4.68096e+26
5.06018e+26
0
0
4.18151e+26
4.42328e+26
4.52304e+26
4.41527e+26
4.15536e+26
4.07808e+26
4.3031e+26
4.67971e+26
5.05877e+26
0
0
4.18173e+26
4.42346e+26
4.52314e+26
4.41523e+26
4.15511e+26
4.0774e+26
4.30198e+26
4.67828e+26
5.05717e+26
0
0
4.18195e+26
4.42364e+26
4.52324e+26
4.4152e+26
4.15485e+26
4.0767e+26
4.30085e+26
4.67683e+26
5.05555e+26
0
0
4.18216e+26
4.42382e+26
4.52334e+26
4.41517e+26
4.15462e+26
4.07608e+26
4.29984e+26
4.67553e+26
5.05409e+26
0
0
4.18233e+26
4.42397e+26
4.52343e+26
4.41516e+26
4.15445e+26
4.0756e+26
4.29906e+26
4.67454e+26
5.05298e+26
0
0
4.11836e+26
4.36838e+26
4.48342e+26
4.39583e+26
4.15811e+26
4.10157e+26
4.34407e+26
4.73329e+26
5.11886e+26
0
0
0
0
0
0
0
0
0
0
0
0
0
0
0
0
0
0
0
0
0
0
0
0
2.07105e+26
2.18892e+26
2.24246e+26
2.19728e+26
2.07744e+26
2.04355e+26
2.1659e+26
2.37391e+26
2.58729e+26
0
0
2.04069e+26
2.1626e+26
2.22362e+26
2.1884e+26
2.0797e+26
2.05671e+26
2.18844e+26
2.40327e+26
2.62021e+26
0
0
2.04079e+26
2.16268e+26
2.22367e+26
2.18842e+26
2.07965e+26
2.05654e+26
2.18816e+26
2.40291e+26
2.6198e+26
0
0
2.0409e+26
2.16278e+26
2.22374e+26
2.18842e+26
2.07958e+26
2.05632e+26
2.1878e+26
2.40243e+26
2.61925e+26
0
0
2.04102e+26
2.16288e+26
2.2238e+26
2.18843e+26
2.0795e+26
2.05608e+26
2.18738e+26
2.40189e+26
2.61864e+26
0
0
2.04115e+26
2.16299e+26
2.22387e+26
2.18844e+26
2.07941e+26
2.05582e+26
2.18697e+26
2.40134e+26
2.61802e+26
0
0
2.04127e+26
2.1631e+26
2.22394e+26
2.18845e+26
2.07934e+26
2.0556e+26
2.18659e+26
2.40085e+26
2.61745e+26
0
0
2.04137e+26
2.16319e+26
2.22401e+26
2.18847e+26
2.07929e+26
2.05542e+26
2.1863e+26
2.40047e+26
2.61701e+26
0
0
1.99827e+26
2.1258e+26
2.19724e+26
2.17584e+26
2.08248e+26
2.0741e+26
2.2183e+26
2.44217e+26
2.66378e+26
0
0
0
0
0
0
0
0
0
0
0
0
0
0
0
0
0
0
0
0
0
0
0
0
1.01166e+26
1.07114e+26
1.10333e+26
1.08914e+26
1.03852e+26
1.02937e+26
1.09934e+26
1.21405e+26
1.33232e+26
0
0
9.91444e+25
1.05367e+26
1.09097e+26
1.08359e+26
1.04063e+26
1.03901e+26
1.1155e+26
1.23499e+26
1.35576e+26
0
0
9.91502e+25
1.05372e+26
1.09101e+26
1.08361e+26
1.04061e+26
1.03895e+26
1.11539e+26
1.23484e+26
1.35558e+26
0
0
9.91569e+25
1.05378e+26
1.09105e+26
1.08362e+26
1.04059e+26
1.03886e+26
1.11525e+26
1.23465e+26
1.35536e+26
0
0
9.91641e+25
1.05384e+26
1.09109e+26
1.08364e+26
1.04056e+26
1.03877e+26
1.11508e+26
1.23444e+26
1.35511e+26
0
0
9.91715e+25
1.05391e+26
1.09114e+26
1.08365e+26
1.04053e+26
1.03867e+26
1.11492e+26
1.23422e+26
1.35486e+26
0
0
9.91787e+25
1.05398e+26
1.09118e+26
1.08367e+26
1.04051e+26
1.03859e+26
1.11477e+26
1.23402e+26
1.35463e+26
0
0
9.91854e+25
1.05404e+26
1.09123e+26
1.08369e+26
1.0405e+26
1.03852e+26
1.11465e+26
1.23386e+26
1.35444e+26
0
0
9.63133e+25
1.02921e+26
1.07366e+26
1.07579e+26
1.04347e+26
1.05219e+26
1.13759e+26
1.26358e+26
1.38771e+26
0
0
0
0
0
0
0
0
0
0
0
0
0
0
0
0
0
0
0
0
0
0
0
0
4.90151e+25
5.20519e+25
5.40033e+25
5.37877e+25
5.18043e+25
5.18905e+25
5.59385e+25
6.22298e+25
6.87415e+25
0
0
4.76917e+25
5.09155e+25
5.32157e+25
5.34664e+25
5.20082e+25
5.26136e+25
5.71129e+25
6.37357e+25
7.04215e+25
0
0
4.76956e+25
5.09191e+25
5.32183e+25
5.34678e+25
5.20078e+25
5.26108e+25
5.71079e+25
6.37289e+25
7.04133e+25
0
0
4.76999e+25
5.0923e+25
5.32212e+25
5.34691e+25
5.20073e+25
5.26073e+25
5.71017e+25
6.37206e+25
7.04034e+25
0
0
4.77045e+25
5.09271e+25
5.32242e+25
5.34705e+25
5.20065e+25
5.26035e+25
5.70948e+25
6.37113e+25
7.03924e+25
0
0
4.77092e+25
5.09314e+25
5.32273e+25
5.3472e+25
5.20058e+25
5.25996e+25
5.70878e+25
6.3702e+25
7.03813e+25
0
0
4.77139e+25
5.09357e+25
5.32305e+25
5.34735e+25
5.20053e+25
5.2596e+25
5.70813e+25
6.36932e+25
7.03708e+25
0
0
4.77185e+25
5.09399e+25
5.32336e+25
5.34752e+25
5.20049e+25
5.2593e+25
5.70758e+25
6.36858e+25
7.03618e+25
0
0
4.58376e+25
4.93245e+25
5.21134e+25
5.3017e+25
5.22925e+25
5.36176e+25
5.87415e+25
6.58223e+25
7.27456e+25
0
0
0
0
0
0
0
0
0
0
0
0
0
0
0
0
0
0
0
0
0
0
0
0
2.33582e+25
2.49374e+25
2.6143e+25
2.63565e+25
2.57241e+25
2.61643e+25
2.85653e+25
3.20449e+25
3.56591e+25
0
0
2.25155e+25
2.4222e+25
2.56656e+25
2.61978e+25
2.59252e+25
2.6722e+25
2.94339e+25
3.31424e+25
3.68771e+25
0
0
2.25183e+25
2.42246e+25
2.56675e+25
2.61989e+25
2.59253e+25
2.67207e+25
2.94314e+25
3.3139e+25
3.68728e+25
0
0
2.25212e+25
2.42273e+25
2.56696e+25
2.62e+25
2.59252e+25
2.67191e+25
2.94284e+25
3.31349e+25
3.68678e+25
0
0
2.25244e+25
2.42302e+25
2.56718e+25
2.62012e+25
2.59252e+25
2.67174e+25
2.94252e+25
3.31305e+25
3.68624e+25
0
0
2.25276e+25
2.42331e+25
2.5674e+25
2.62024e+25
2.59252e+25
2.67157e+25
2.94219e+25
3.31259e+25
3.68569e+25
0
0
2.25309e+25
2.42362e+25
2.56763e+25
2.62037e+25
2.59252e+25
2.67141e+25
2.94187e+25
3.31216e+25
3.68515e+25
0
0