# vtk DataFile Version 2.0
FlowField
ASCII
DATASET STRUCTURED_GRID
DIMENSIONS 62 47 32 
POINTS 93248 double
0 0 0
0.01 0 0
0.02 0 0
0.03 0 0
0.04 0 0
0.05 0 0
0.06 0 0
0.07 0 0
0.08 0 0
0.09 0 0
0.1 0 0
0.11 0 0
0.12 0 0
0.13 0 0
0.14 0 0
0.15 0 0
0.16 0 0
0.17 0 0
0.18 0 0
0.19 0 0
0.2 0 0
0.21 0 0
0.22 0 0
0.23 0 0
0.24 0 0
0.25 0 0
0.26 0 0
0.27 0 0
0.28 0 0
0.29 0 0
0.3 0 0
0.31 0 0
0.32 0 0
0.33 0 0
0.34 0 0
0.35 0 0
0.36 0 0
0.37 0 0
0.38 0 0
0.39 0 0
0.4 0 0
0.41 0 0
0.42 0 0
0.43 0 0
0.44 0 0
0.45 0 0
0.46 0 0
0.47 0 0
0.48 0 0
0.49 0 0
0.5 0 0
0.51 0 0
0.52 0 0
0.53 0 0
0.54 0 0
0.55 0 0
0.56 0 0
0.57 0 0
0.58 0 0
0.59 0 0
0.6 0 0
0.61 0 0
0 0.01 0
0.01 0.01 0
0.02 0.01 0
0.03 0.01 0
0.04 0.01 0
0.05 0.01 0
0.06 0.01 0
0.07 0.01 0
0.08 0.01 0
0.09 0.01 0
0.1 0.01 0
0.11 0.01 0
0.12 0.01 0
0.13 0.01 0
0.14 0.01 0
0.15 0.01 0
0.16 0.01 0
0.17 0.01 0
0.18 0.01 0
0.19 0.01 0
0.2 0.01 0
0.21 0.01 0
0.22 0.01 0
0.23 0.01 0
0.24 0.01 0
0.25 0.01 0
0.26 0.01 0
0.27 0.01 0
0.28 0.01 0
0.29 0.01 0
0.3 0.01 0
0.31 0.01 0
0.32 0.01 0
0.33 0.01 0
0.34 0.01 0
0.35 0.01 0
0.36 0.01 0
0.37 0.01 0
0.38 0.01 0
0.39 0.01 0
0.4 0.01 0
0.41 0.01 0
0.42 0.01 0
0.43 0.01 0
0.44 0.01 0
0.45 0.01 0
0.46 0.01 0
0.47 0.01 0
0.48 0.01 0
0.49 0.01 0
0.5 0.01 0
0.51 0.01 0
0.52 0.01 0
0.53 0.01 0
0.54 0.01 0
0.55 0.01 0
0.56 0.01 0
0.57 0.01 0
0.58 0.01 0
0.59 0.01 0
0.6 0.01 0
0.61 0.01 0
0 0.02 0
0.01 0.02 0
0.02 0.02 0
0.03 0.02 0
0.04 0.02 0
0.05 0.02 0
0.06 0.02 0
0.07 0.02 0
0.08 0.02 0
0.09 0.02 0
0.1 0.02 0
0.11 0.02 0
0.12 0.02 0
0.13 0.02 0
0.14 0.02 0
0.15 0.02 0
0.16 0.02 0
0.17 0.02 0
0.18 0.02 0
0.19 0.02 0
0.2 0.02 0
0.21 0.02 0
0.22 0.02 0
0.23 0.02 0
0.24 0.02 0
0.25 0.02 0
0.26 0.02 0
0.27 0.02 0
0.28 0.02 0
0.29 0.02 0
0.3 0.02 0
0.31 0.02 0
0.32 0.02 0
0.33 0.02 0
0.34 0.02 0
0.35 0.02 0
0.36 0.02 0
0.37 0.02 0
0.38 0.02 0
0.39 0.02 0
0.4 0.02 0
0.41 0.02 0
0.42 0.02 0
0.43 0.02 0
0.44 0.02 0
0.45 0.02 0
0.46 0.02 0
0.47 0.02 0
0.48 0.02 0
0.49 0.02 0
0.5 0.02 0
0.51 0.02 0
0.52 0.02 0
0.53 0.02 0
0.54 0.02 0
0.55 0.02 0
0.56 0.02 0
0.57 0.02 0
0.58 0.02 0
0.59 0.02 0
0.6 0.02 0
0.61 0.02 0
0 0.03 0
0.01 0.03 0
0.02 0.03 0
0.03 0.03 0
0.04 0.03 0
0.05 0.03 0
0.06 0.03 0
0.07 0.03 0
0.08 0.03 0
0.09 0.03 0
0.1 0.03 0
0.11 0.03 0
0.12 0.03 0
0.13 0.03 0
0.14 0.03 0
0.15 0.03 0
0.16 0.03 0
0.17 0.03 0
0.18 0.03 0
0.19 0.03 0
0.2 0.03 0
0.21 0.03 0
0.22 0.03 0
0.23 0.03 0
0.24 0.03 0
0.25 0.03 0
0.26 0.03 0
0.27 0.03 0
0.28 0.03 0
0.29 0.03 0
0.3 0.03 0
0.31 0.03 0
0.32 0.03 0
0.33 0.03 0
0.34 0.03 0
0.35 0.03 0
0.36 0.03 0
0.37 0.03 0
0.38 0.03 0
0.39 0.03 0
0.4 0.03 0
0.41 0.03 0
0.42 0.03 0
0.43 0.03 0
0.44 0.03 0
0.45 0.03 0
0.46 0.03 0
0.47 0.03 0
0.48 0.03 0
0.49 0.03 0
0.5 0.03 0
0.51 0.03 0
0.52 0.03 0
0.53 0.03 0
0.54 0.03 0
0.55 0.03 0
0.56 0.03 0
0.57 0.03 0
0.58 0.03 0
0.59 0.03 0
0.6 0.03 0
0.61 0.03 0
0 0.04 0
0.01 0.04 0
0.02 0.04 0
0.03 0.04 0
0.04 0.04 0
0.05 0.04 0
0.06 0.04 0
0.07 0.04 0
0.08 0.04 0
0.09 0.04 0
0.1 0.04 0
0.11 0.04 0
0.12 0.04 0
0.13 0.04 0
0.14 0.04 0
0.15 0.04 0
0.16 0.04 0
0.17 0.04 0
0.18 0.04 0
0.19 0.04 0
0.2 0.04 0
0.21 0.04 0
0.22 0.04 0
0.23 0.04 0
0.24 0.04 0
0.25 0.04 0
0.26 0.04 0
0.27 0.04 0
0.28 0.04 0
0.29 0.04 0
0.3 0.04 0
0.31 0.04 0
0.32 0.04 0
0.33 0.04 0
0.34 0.04 0
0.35 0.04 0
0.36 0.04 0
0.37 0.04 0
0.38 0.04 0
0.39 0.04 0
0.4 0.04 0
0.41 0.04 0
0.42 0.04 0
0.43 0.04 0
0.44 0.04 0
0.45 0.04 0
0.46 0.04 0
0.47 0.04 0
0.48 0.04 0
0.49 0.04 0
0.5 0.04 0
0.51 0.04 0
0.52 0.04 0
0.53 0.04 0
0.54 0.04 0
0.55 0.04 0
0.56 0.04 0
0.57 0.04 0
0.58 0.04 0
0.59 0.04 0
0.6 0.04 0
0.61 0.04 0
0 0.05 0
0.01 0.05 0
0.02 0.05 0
0.03 0.05 0
0.04 0.05 0
0.05 0.05 0
0.06 0.05 0
0.07 0.05 0
0.08 0.05 0
0.09 0.05 0
0.1 0.05 0
0.11 0.05 0
0.12 0.05 0
0.13 0.05 0
0.14 0.05 0
0.15 0.05 0
0.16 0.05 0
0.17 0.05 0
0.18 0.05 0
0.19 0.05 0
0.2 0.05 0
0.21 0.05 0
0.22 0.05 0
0.23 0.05 0
0.24 0.05 0
0.25 0.05 0
0.26 0.05 0
0.27 0.05 0
0.28 0.05 0
0.29 0.05 0
0.3 0.05 0
0.31 0.05 0
0.32 0.05 0
0.33 0.05 0
0.34 0.05 0
0.35 0.05 0
0.36 0.05 0
0.37 0.05 0
0.38 0.05 0
0.39 0.05 0
0.4 0.05 0
0.41 0.05 0
0.42 0.05 0
0.43 0.05 0
0.44 0.05 0
0.45 0.05 0
0.46 0.05 0
0.47 0.05 0
0.48 0.05 0
0.49 0.05 0
0.5 0.05 0
0.51 0.05 0
0.52 0.05 0
0.53 0.05 0
0.54 0.05 0
0.55 0.05 0
0.56 0.05 0
0.57 0.05 0
0.58 0.05 0
0.59 0.05 0
0.6 0.05 0
0.61 0.05 0
0 0.06 0
0.01 0.06 0
0.02 0.06 0
0.03 0.06 0
0.04 0.06 0
0.05 0.06 0
0.06 0.06 0
0.07 0.06 0
0.08 0.06 0
0.09 0.06 0
0.1 0.06 0
0.11 0.06 0
0.12 0.06 0
0.13 0.06 0
0.14 0.06 0
0.15 0.06 0
0.16 0.06 0
0.17 0.06 0
0.18 0.06 0
0.19 0.06 0
0.2 0.06 0
0.21 0.06 0
0.22 0.06 0
0.23 0.06 0
0.24 0.06 0
0.25 0.06 0
0.26 0.06 0
0.27 0.06 0
0.28 0.06 0
0.29 0.06 0
0.3 0.06 0
0.31 0.06 0
0.32 0.06 0
0.33 0.06 0
0.34 0.06 0
0.35 0.06 0
0.36 0.06 0
0.37 0.06 0
0.38 0.06 0
0.39 0.06 0
0.4 0.06 0
0.41 0.06 0
0.42 0.06 0
0.43 0.06 0
0.44 0.06 0
0.45 0.06 0
0.46 0.06 0
0.47 0.06 0
0.48 0.06 0
0.49 0.06 0
0.5 0.06 0
0.51 0.06 0
0.52 0.06 0
0.53 0.06 0
0.54 0.06 0
0.55 0.06 0
0.56 0.06 0
0.57 0.06 0
0.58 0.06 0
0.59 0.06 0
0.6 0.06 0
0.61 0.06 0
0 0.07 0
0.01 0.07 0
0.02 0.07 0
0.03 0.07 0
0.04 0.07 0
0.05 0.07 0
0.06 0.07 0
0.07 0.07 0
0.08 0.07 0
0.09 0.07 0
0.1 0.07 0
0.11 0.07 0
0.12 0.07 0
0.13 0.07 0
0.14 0.07 0
0.15 0.07 0
0.16 0.07 0
0.17 0.07 0
0.18 0.07 0
0.19 0.07 0
0.2 0.07 0
0.21 0.07 0
0.22 0.07 0
0.23 0.07 0
0.24 0.07 0
0.25 0.07 0
0.26 0.07 0
0.27 0.07 0
0.28 0.07 0
0.29 0.07 0
0.3 0.07 0
0.31 0.07 0
0.32 0.07 0
0.33 0.07 0
0.34 0.07 0
0.35 0.07 0
0.36 0.07 0
0.37 0.07 0
0.38 0.07 0
0.39 0.07 0
0.4 0.07 0
0.41 0.07 0
0.42 0.07 0
0.43 0.07 0
0.44 0.07 0
0.45 0.07 0
0.46 0.07 0
0.47 0.07 0
0.48 0.07 0
0.49 0.07 0
0.5 0.07 0
0.51 0.07 0
0.52 0.07 0
0.53 0.07 0
0.54 0.07 0
0.55 0.07 0
0.56 0.07 0
0.57 0.07 0
0.58 0.07 0
0.59 0.07 0
0.6 0.07 0
0.61 0.07 0
0 0.08 0
0.01 0.08 0
0.02 0.08 0
0.03 0.08 0
0.04 0.08 0
0.05 0.08 0
0.06 0.08 0
0.07 0.08 0
0.08 0.08 0
0.09 0.08 0
0.1 0.08 0
0.11 0.08 0
0.12 0.08 0
0.13 0.08 0
0.14 0.08 0
0.15 0.08 0
0.16 0.08 0
0.17 0.08 0
0.18 0.08 0
0.19 0.08 0
0.2 0.08 0
0.21 0.08 0
0.22 0.08 0
0.23 0.08 0
0.24 0.08 0
0.25 0.08 0
0.26 0.08 0
0.27 0.08 0
0.28 0.08 0
0.29 0.08 0
0.3 0.08 0
0.31 0.08 0
0.32 0.08 0
0.33 0.08 0
0.34 0.08 0
0.35 0.08 0
0.36 0.08 0
0.37 0.08 0
0.38 0.08 0
0.39 0.08 0
0.4 0.08 0
0.41 0.08 0
0.42 0.08 0
0.43 0.08 0
0.44 0.08 0
0.45 0.08 0
0.46 0.08 0
0.47 0.08 0
0.48 0.08 0
0.49 0.08 0
0.5 0.08 0
0.51 0.08 0
0.52 0.08 0
0.53 0.08 0
0.54 0.08 0
0.55 0.08 0
0.56 0.08 0
0.57 0.08 0
0.58 0.08 0
0.59 0.08 0
0.6 0.08 0
0.61 0.08 0
0 0.09 0
0.01 0.09 0
0.02 0.09 0
0.03 0.09 0
0.04 0.09 0
0.05 0.09 0
0.06 0.09 0
0.07 0.09 0
0.08 0.09 0
0.09 0.09 0
0.1 0.09 0
0.11 0.09 0
0.12 0.09 0
0.13 0.09 0
0.14 0.09 0
0.15 0.09 0
0.16 0.09 0
0.17 0.09 0
0.18 0.09 0
0.19 0.09 0
0.2 0.09 0
0.21 0.09 0
0.22 0.09 0
0.23 0.09 0
0.24 0.09 0
0.25 0.09 0
0.26 0.09 0
0.27 0.09 0
0.28 0.09 0
0.29 0.09 0
0.3 0.09 0
0.31 0.09 0
0.32 0.09 0
0.33 0.09 0
0.34 0.09 0
0.35 0.09 0
0.36 0.09 0
0.37 0.09 0
0.38 0.09 0
0.39 0.09 0
0.4 0.09 0
0.41 0.09 0
0.42 0.09 0
0.43 0.09 0
0.44 0.09 0
0.45 0.09 0
0.46 0.09 0
0.47 0.09 0
0.48 0.09 0
0.49 0.09 0
0.5 0.09 0
0.51 0.09 0
0.52 0.09 0
0.53 0.09 0
0.54 0.09 0
0.55 0.09 0
0.56 0.09 0
0.57 0.09 0
0.58 0.09 0
0.59 0.09 0
0.6 0.09 0
0.61 0.09 0
0 0.1 0
0.01 0.1 0
0.02 0.1 0
0.03 0.1 0
0.04 0.1 0
0.05 0.1 0
0.06 0.1 0
0.07 0.1 0
0.08 0.1 0
0.09 0.1 0
0.1 0.1 0
0.11 0.1 0
0.12 0.1 0
0.13 0.1 0
0.14 0.1 0
0.15 0.1 0
0.16 0.1 0
0.17 0.1 0
0.18 0.1 0
0.19 0.1 0
0.2 0.1 0
0.21 0.1 0
0.22 0.1 0
0.23 0.1 0
0.24 0.1 0
0.25 0.1 0
0.26 0.1 0
0.27 0.1 0
0.28 0.1 0
0.29 0.1 0
0.3 0.1 0
0.31 0.1 0
0.32 0.1 0
0.33 0.1 0
0.34 0.1 0
0.35 0.1 0
0.36 0.1 0
0.37 0.1 0
0.38 0.1 0
0.39 0.1 0
0.4 0.1 0
0.41 0.1 0
0.42 0.1 0
0.43 0.1 0
0.44 0.1 0
0.45 0.1 0
0.46 0.1 0
0.47 0.1 0
0.48 0.1 0
0.49 0.1 0
0.5 0.1 0
0.51 0.1 0
0.52 0.1 0
0.53 0.1 0
0.54 0.1 0
0.55 0.1 0
0.56 0.1 0
0.57 0.1 0
0.58 0.1 0
0.59 0.1 0
0.6 0.1 0
0.61 0.1 0
0 0.11 0
0.01 0.11 0
0.02 0.11 0
0.03 0.11 0
0.04 0.11 0
0.05 0.11 0
0.06 0.11 0
0.07 0.11 0
0.08 0.11 0
0.09 0.11 0
0.1 0.11 0
0.11 0.11 0
0.12 0.11 0
0.13 0.11 0
0.14 0.11 0
0.15 0.11 0
0.16 0.11 0
0.17 0.11 0
0.18 0.11 0
0.19 0.11 0
0.2 0.11 0
0.21 0.11 0
0.22 0.11 0
0.23 0.11 0
0.24 0.11 0
0.25 0.11 0
0.26 0.11 0
0.27 0.11 0
0.28 0.11 0
0.29 0.11 0
0.3 0.11 0
0.31 0.11 0
0.32 0.11 0
0.33 0.11 0
0.34 0.11 0
0.35 0.11 0
0.36 0.11 0
0.37 0.11 0
0.38 0.11 0
0.39 0.11 0
0.4 0.11 0
0.41 0.11 0
0.42 0.11 0
0.43 0.11 0
0.44 0.11 0
0.45 0.11 0
0.46 0.11 0
0.47 0.11 0
0.48 0.11 0
0.49 0.11 0
0.5 0.11 0
0.51 0.11 0
0.52 0.11 0
0.53 0.11 0
0.54 0.11 0
0.55 0.11 0
0.56 0.11 0
0.57 0.11 0
0.58 0.11 0
0.59 0.11 0
0.6 0.11 0
0.61 0.11 0
0 0.12 0
0.01 0.12 0
0.02 0.12 0
0.03 0.12 0
0.04 0.12 0
0.05 0.12 0
0.06 0.12 0
0.07 0.12 0
0.08 0.12 0
0.09 0.12 0
0.1 0.12 0
0.11 0.12 0
0.12 0.12 0
0.13 0.12 0
0.14 0.12 0
0.15 0.12 0
0.16 0.12 0
0.17 0.12 0
0.18 0.12 0
0.19 0.12 0
0.2 0.12 0
0.21 0.12 0
0.22 0.12 0
0.23 0.12 0
0.24 0.12 0
0.25 0.12 0
0.26 0.12 0
0.27 0.12 0
0.28 0.12 0
0.29 0.12 0
0.3 0.12 0
0.31 0.12 0
0.32 0.12 0
0.33 0.12 0
0.34 0.12 0
0.35 0.12 0
0.36 0.12 0
0.37 0.12 0
0.38 0.12 0
0.39 0.12 0
0.4 0.12 0
0.41 0.12 0
0.42 0.12 0
0.43 0.12 0
0.44 0.12 0
0.45 0.12 0
0.46 0.12 0
0.47 0.12 0
0.48 0.12 0
0.49 0.12 0
0.5 0.12 0
0.51 0.12 0
0.52 0.12 0
0.53 0.12 0
0.54 0.12 0
0.55 0.12 0
0.56 0.12 0
0.57 0.12 0
0.58 0.12 0
0.59 0.12 0
0.6 0.12 0
0.61 0.12 0
0 0.13 0
0.01 0.13 0
0.02 0.13 0
0.03 0.13 0
0.04 0.13 0
0.05 0.13 0
0.06 0.13 0
0.07 0.13 0
0.08 0.13 0
0.09 0.13 0
0.1 0.13 0
0.11 0.13 0
0.12 0.13 0
0.13 0.13 0
0.14 0.13 0
0.15 0.13 0
0.16 0.13 0
0.17 0.13 0
0.18 0.13 0
0.19 0.13 0
0.2 0.13 0
0.21 0.13 0
0.22 0.13 0
0.23 0.13 0
0.24 0.13 0
0.25 0.13 0
0.26 0.13 0
0.27 0.13 0
0.28 0.13 0
0.29 0.13 0
0.3 0.13 0
0.31 0.13 0
0.32 0.13 0
0.33 0.13 0
0.34 0.13 0
0.35 0.13 0
0.36 0.13 0
0.37 0.13 0
0.38 0.13 0
0.39 0.13 0
0.4 0.13 0
0.41 0.13 0
0.42 0.13 0
0.43 0.13 0
0.44 0.13 0
0.45 0.13 0
0.46 0.13 0
0.47 0.13 0
0.48 0.13 0
[...]
POINT_DATA 93248

SCALARS w double
LOOKUP_TABLE default
0
0
0
0
0
0
0
0
0
0
0
0
0
0
0
0
0
0
0
0
0
0
0
0
0
0
0
0
0
0
0
0
0
0
0
0
0
0
0
0
0
0
0
0
0
0
0
0
0
0
0
0
0
0
0
0
0
0
0
0
0
0
0
-0.00680571
-0.00680536
-0.00680483
-0.00680411
-0.0068032
-0.00680211
-0.00680084
-0.00679941
-0.0067978
-0.00679603
-0.00679411
-0.00679204
-0.00678982
-0.00678746
-0.00678498
-0.00678237
-0.00677965
-0.00677683
-0.00677391
-0.00677089
-0.0067678
-0.00676464
-0.00676141
-0.00675814
-0.00675482
-0.00675146
-0.00674808
-0.00674469
-0.00674129
-0.00673789
-0.00673451
-0.00673115
-0.00672783
-0.00672454
-0.00672131
-0.00671813
-0.00671502
-0.00671199
-0.00670903
-0.00670618
-0.00670341
-0.00670076
-0.00669822
-0.00669579
-0.00669491
-0.00669132
-0.00668929
-0.0066874
-0.00668565
-0.00668406
-0.00668261
-0.00668133
-0.0066802
-0.00668406
-0.00667843
-0.00667779
-0.00667731
-0.00667701
-0.00667686
-0.00667689
0
0
-0.00680556
-0.00680521
-0.00680468
-0.00680395
-0.00680305
-0.00680196
-0.0068007
-0.00679927
-0.00679766
-0.0067959
-0.00679398
-0.00679191
-0.0067897
-0.00678735
-0.00678487
-0.00678227
-0.00677956
-0.00677674
-0.00677382
-0.00677082
-0.00676773
-0.00676438
-0.00676136
-0.00675809
-0.00675477
-0.00675143
-0.00674806
-0.00674467
-0.00674128
-0.00673789
-0.00673452
-0.00673117
-0.00672785
-0.00672457
-0.00672134
-0.00671817
-0.00671507
-0.00671204
-0.0067091
-0.00670624
-0.00670349
-0.00670084
-0.0066983
-0.00669588
-0.00669359
-0.00669142
-0.0066894
-0.00668751
-0.00668577
-0.00668417
-0.00668657
-0.00668145
-0.00668032
-0.00667936
-0.00667856
-0.00667792
-0.00667745
-0.00667714
-0.006677
-0.00667702
0
0
-0.0068054
-0.00680505
-0.00680452
-0.0068038
-0.0068032
-0.00680181
-0.00680055
-0.00679912
-0.00679753
-0.00679577
-0.00679385
-0.00679179
-0.00678958
-0.00678723
-0.00678476
-0.00678217
-0.00677946
-0.00677665
-0.00677374
-0.00677074
-0.00676766
-0.00676451
-0.0067613
-0.00675804
-0.00675473
-0.00675139
-0.00674803
-0.00674465
-0.00674127
-0.00673789
-0.00673452
-0.00673118
-0.0067312
-0.0067246
-0.00672137
-0.00671821
-0.00671512
-0.0067121
-0.00670916
-0.00670631
-0.00670356
-0.00670092
-0.00669839
-0.00669597
-0.00669368
-0.00669153
-0.0066895
-0.00668762
-0.00668588
-0.00668429
-0.00668285
-0.00668157
-0.00668045
-0.00667949
-0.00667869
-0.00667805
-0.00667758
-0.00667727
-0.00667713
-0.00667715
0
0
-0.00680524
-0.0068049
-0.00679999
-0.00680365
-0.00680275
-0.00680167
-0.00680041
-0.00679898
-0.00679739
-0.00679563
-0.00679372
-0.00679166
-0.00678946
-0.00678712
-0.00678465
-0.00678206
-0.00677936
-0.00677656
-0.00677365
-0.00677066
-0.00676759
-0.00676445
-0.00676125
-0.00675799
-0.00675469
-0.00675136
-0.006748
-0.00674463
-0.00674126
-0.00673788
-0.00673453
-0.00673119
-0.00672789
-0.00672462
-0.00672141
-0.00671825
-0.00671517
-0.00671226
-0.00670922
-0.00670638
-0.00670364
-0.006701
-0.00669847
-0.00669607
-0.00669378
-0.00669163
-0.00668961
-0.00668773
-0.006686
-0.00668441
-0.00668298
-0.0066817
-0.00668058
-0.00667962
-0.00667882
-0.00667818
-0.00667771
-0.00667741
-0.00667727
-0.00667729
0
0
-0.00680509
-0.00680474
-0.00680421
-0.00680349
-0.0068026
-0.00680152
-0.00680026
-0.00679884
-0.00679725
-0.0067955
-0.00679359
-0.00679153
-0.00678934
-0.006787
-0.00678183
-0.00678196
-0.00677926
-0.00677646
-0.00677357
-0.00677058
-0.00676752
-0.00676438
-0.00676119
-0.00675794
-0.00675465
-0.00675133
-0.00674798
-0.00674461
-0.00674125
-0.00673788
-0.00673453
-0.0067312
-0.00672791
-0.00672465
-0.00672144
-0.0067183
-0.00671521
-0.00671221
-0.00670928
-0.00670645
-0.00670371
-0.00670108
-0.00669856
-0.00669616
-0.00669388
-0.00669173
-0.00668972
-0.00668784
-0.00668611
-0.00668453
-0.0066831
-0.00668182
-0.00668071
-0.00667975
-0.00667895
-0.00667832
-0.00667785
-0.00667754
-0.0066774
-0.00667743
0
0
-0.00680493
-0.00680458
-0.00680405
-0.00680334
-0.00680244
-0.00680137
-0.00680012
-0.00679869
-0.00679711
-0.00679536
-0.00679346
-0.00679141
-0.00678921
-0.00678689
-0.00678443
-0.00678185
-0.00677917
-0.00677338
-0.00677348
-0.0067705
-0.00676745
-0.00676432
-0.00676113
-0.00675789
-0.00675461
-0.00675129
-0.00674795
-0.0067446
-0.00674124
-0.00673788
-0.00673454
-0.00673122
-0.00672793
-0.00672468
-0.00672148
-0.00671834
-0.00671526
-0.00671226
-0.00670935
-0.00670652
-0.00670379
-0.00670116
-0.00669865
-0.00669625
-0.00669398
-0.00669184
-0.00668983
-0.00668796
-0.00668623
-0.00668465
-0.00668322
-0.00668195
-0.00668084
-0.00667988
-0.00667909
-0.00667845
-0.00667799
-0.00667768
-0.00667754
-0.00667756
0
0
-0.00680477
-0.00680443
-0.0068039
-0.00680318
-0.00680229
-0.00680122
-0.00679997
-0.00679855
-0.00679697
-0.00679522
-0.00679332
-0.00679128
-0.00678909
-0.00678677
-0.00678432
-0.00678175
-0.00677907
-0.00677628
-0.0067734
-0.00677043
-0.00676738
-0.00676426
-0.00676107
-0.00675784
-0.00675457
-0.00675126
-0.00674793
-0.00674458
-0.00674123
-0.00673788
-0.00673454
-0.00673123
-0.00672795
-0.00672471
-0.00672152
-0.00671838
-0.00671531
-0.00671232
-0.00670941
-0.00670659
-0.00670387
-0.00670125
-0.00669874
-0.00669635
-0.00669408
-0.00669194
-0.00668994
-0.00668807
-0.00668635
-0.00668477
-0.00668335
-0.00668208
-0.00668097
-0.00668001
-0.00667922
-0.00667859
-0.00667812
-0.00667782
-0.00667686
-0.00668307
0
0
-0.00680461
-0.00680427
-0.00680374
-0.00680303
-0.00680213
-0.00680106
-0.00679982
-0.0067984
-0.00679682
-0.00679508
-0.00679319
-0.00679115
-0.00678897
-0.00678665
-0.00678421
-0.00678164
-0.00677489
-0.00677619
-0.00677331
-0.00677035
-0.0067673
-0.00676419
-0.00676102
-0.00675779
-0.00675452
-0.00675122
-0.0067479
-0.00674456
-0.00674121
-0.00673787
-0.00673455
-0.00673124
-0.00672797
-0.00672474
-0.00672155
-0.00671843
-0.00671537
-0.00671238
-0.00670948
-0.00670666
-0.00670394
-0.00670133
-0.00669883
-0.00669644
-0.00669418
-0.00669205
-0.00669005
-0.00668819
-0.00668647
-0.0066849
-0.00668348
-0.00668221
-0.0066811
-0.00668015
-0.00667936
-0.00667873
-0.00667826
-0.00667796
-0.00667782
-0.00667784
0
0
-0.00680445
-0.00680411
-0.00680358
-0.00680287
-0.00680198
-0.00680091
-0.00679967
-0.00679826
-0.00679668
-0.00679495
-0.00679306
-0.00679191
-0.00678884
-0.00678653
-0.00678409
-0.00678154
-0.00677887
-0.00677609
-0.00677322
-0.00677027
-0.00676723
-0.00676413
-0.00676096
-0.00675774
-0.00675448
-0.00675119
-0.00674787
-0.00674454
-0.0067412
-0.00673787
-0.00673455
-0.00673126
-0.00672799
-0.00672476
-0.00672159
-0.00671847
-0.00671542
-0.00671244
-0.00670954
-0.00670673
-0.00670402
-0.00670142
-0.00669892
-0.00669654
-0.00669428
-0.00669215
-0.00669016
-0.0066883
-0.00668659
-0.00668502
-0.0066836
-0.00668247
-0.00668123
-0.00668028
-0.00667949
-0.00667887
-0.0066784
-0.0066781
-0.00667796
-0.00667798
0
0
-0.00680428
-0.00680395
-0.00680342
-0.00680271
-0.00680182
-0.00680076
-0.00679952
-0.00679811
-0.00679654
-0.00679481
-0.00679292
-0.00679089
-0.00678872
-0.00678641
-0.00678398
-0.00678143
-0.00677877
-0.006776
-0.00677314
-0.00677019
-0.00676716
-0.00676406
-0.0067609
-0.00675769
-0.00675431
-0.00675116
-0.00674785
-0.00674452
-0.00674119
-0.00673787
-0.00673456
-0.00673127
-0.00672801
-0.00672479
-0.00672162
-0.00671851
-0.00671547
-0.0067125
-0.00670961
-0.00670681
-0.0067041
-0.0067015
-0.00669901
-0.00669664
-0.00669438
-0.00669226
-0.00669027
-0.00668842
-0.00668671
-0.00668514
-0.00668373
-0.00668247
-0.00668137
-0.00668042
-0.00667963
-0.00667901
-0.00667854
-0.00667824
-0.0066781
-0.00667812
0
0
-0.00680412
-0.00680378
-0.00680326
-0.00680255
-0.00680167
-0.0068006
-0.00679937
-0.00679796
-0.00679639
-0.00679467
-0.00679279
-0.00679076
-0.00678859
-0.00678629
-0.00678387
-0.00678132
-0.00677867
-0.0067759
-0.00677305
-0.00677011
-0.00676709
-0.006764
-0.00676084
-0.00675764
-0.0067544
-0.00675112
-0.00674782
-0.0067445
-0.00674118
-0.00673787
-0.00673456
-0.00673128
-0.00672803
-0.00672482
-0.00672166
-0.00671856
-0.00671552
-0.00671256
-0.00670967
-0.00670688
-0.00670418
-0.00670159
-0.0066991
-0.00669673
-0.00669449
-0.00669237
-0.00669038
-0.00668854
-0.00668683
-0.00668527
-0.00668386
-0.0066826
-0.0066815
-0.00668056
-0.00667977
-0.00667915
-0.00667868
-0.00667838
-0.00667824
-0.00667827
0
0
-0.00680396
-0.00680362
-0.0068031
-0.00680239
-0.00680151
-0.00680045
-0.00679921
-0.00679781
-0.00679625
-0.00679453
-0.00679265
-0.00679063
-0.00678847
-0.00678617
-0.00678375
-0.00678121
-0.00677856
-0.00677581
-0.00677296
-0.00677003
-0.00676701
-0.00676393
-0.00676079
-0.00675759
-0.00675436
-0.00675109
-0.00674779
-0.00674449
-0.00674117
-0.00673787
-0.00673457
-0.0067313
-0.00672805
-0.00672485
-0.0067217
-0.0067186
-0.00671557
-0.00671262
-0.00670974
-0.00670695
-0.00670426
-0.00670167
-0.00669919
-0.00669683
-0.00669459
-0.00669248
-0.0066905
-0.00668865
-0.00668695
-0.0066854
-0.00668399
-0.00668274
-0.00668164
-0.00668069
-0.00667991
-0.00667929
-0.00667883
-0.00667853
-0.00667839
-0.00667841
0
0
-0.00680379
-0.00680346
-0.00680294
-0.00680223
-0.00680135
-0.00680029
-0.00679906
-0.00679766
-0.0067961
-0.00679439
-0.00679251
-0.0067905
-0.00678834
-0.00678605
-0.00678364
-0.00678111
-0.00677846
-0.00677571
-0.00677287
-0.00676994
-0.00676694
-0.00676386
-0.00676073
-0.00675754
-0.00675431
-0.00675105
-0.00674777
-0.00674447
-0.00674116
-0.00673786
-0.00673458
-0.00673131
-0.00672808
-0.00672488
-0.00672174
-0.00671865
-0.00671563
-0.00671268
-0.00670981
-0.00670703
-0.00670434
-0.00670239
-0.00669929
-0.00669693
-0.0066947
-0.00669259
-0.00669061
-0.00668877
-0.00668708
-0.00668552
-0.00668412
-0.00668287
-0.00668177
-0.00668083
-0.00668005
-0.00667943
-0.00667897
-0.00667867
-0.00667853
-0.00667855
0
0
-0.00680363
-0.00680329
-0.00680277
-0.00680303
-0.00680119
-0.00680014
-0.00679891
-0.00679751
-0.00679596
-0.00679424
-0.00679238
-0.00679037
-0.00678822
-0.00678593
-0.00678352
-0.006781
-0.00677836
-0.00677562
-0.00677278
-0.00676986
-0.00676686
-0.0067638
-0.00676067
-0.00675749
-0.00675427
-0.00675102
-0.00674774
-0.00674445
-0.00674115
-0.00673786
-0.00673458
-0.00673133
-0.0067281
-0.00672491
-0.00672178
-0.00671869
-0.00671947
-0.00671274
-0.00670987
-0.0067071
-0.00670442
-0.00670185
-0.00669938
-0.00669703
-0.0066948
-0.0066927
-0.00669073
-0.00668889
-0.0066872
-0.00668565
-0.00668425
-0.006683
-0.00668191
-0.00668097
-0.00668019
-0.00667957
-0.00667768
-0.00667881
-0.00667868
-0.0066787
0
0
-0.00680346
-0.00680313
-0.00680261
-0.00680191
-0.00680103
-0.00679998
-0.00679875
-0.00679736
-0.00679581
-0.0067941
-0.00679224
-0.00679023
-0.00678809
-0.00678581
-0.00678341
-0.00678089
-0.00677826
-0.00677552
-0.00677269
-0.00676978
-0.00676679
-0.00676373
-0.00676061
-0.00675744
-0.00675423
-0.00675098
-0.00674771
-0.00674443
-0
-0.00673786
-0.00673459
-0.00673134
-0.00672812
-0.00672494
-0.00672181
-0.00671874
-0.00671573
-0.0067128
-0.00670994
-0.00670718
-0.00670451
-0.00670194
-0.00669948
-0.00669713
-0.00669491
-0.00669281
-0.00669084
-0.00668901
-0.00668733
-0.00668578
-0.00668438
-0.00668314
-0.00668123
-0.00668111
-0.00668034
-0.00667972
-0.00667926
-0.00667896
-0.00667882
-0.00667884
0
0
-0.00680329
-0.00680296
-0.00680244
-0.00680175
-0.00680087
-0.00679982
-0.0067986
-0.00679721
-0.00679566
-0.00679396
-0.0067921
-0.0067901
-0.00678796
-0.00678569
-0.00678329
-0.00678078
-0.00677815
-0.00677543
-0.00677261
-0.0067697
-0.00676672
-0.00676366
-0.00676055
-0.00675739
-0.00675419
-0.00675095
-0.00674769
-0.00674441
-0.00674113
-0.00673786
-0.0067346
-0.00673135
-0.00672815
-0.00672498
-0.00672185
-0.00671879
-0.00671579
-0.00671286
-0.00671001
-0.00670725
-0.00670459
-0.00670203
-0.00669957
-0.00669723
-0.00669501
-0.00669292
-0.00669096
-0.00668963
-0.00668745
-0.00668591
-0.00668452
-0.00668328
-0.00668219
-0.00668125
-0.00668048
-0.00667986
-0.0066794
-0.00667911
-0.00667897
-0.00667899
0
0
-0.00680313
-0.00680279
-0.00680228
-0.00680158
-0.00680071
-0.00679966
-0.00679844
-0.00679706
-0.00679551
-0.00679381
-0.00679196
-0.00678996
-0.00678783
-0.00678556
-0.00678317
-0.00678067
-0.00677805
-0.00677533
-0.00677251
-0.00676962
-0.00676664
-0.0067636
-0.00676049
-0.00675734
-0.00675414
-0.00675091
-0.00674766
-0.0067444
-0.00674112
-0.00673786
-0.0067346
-0.00673137
-0.00672817
-0.00672501
-0.00672189
-0.00671883
-0.00671584
-0.00671292
-0.00671008
-0.00670733
-0.00670467
-0.00670212
-0.00669967
-0.00669733
-0.00669512
-0.00669303
-0.00669108
-0.00668926
-0.00668758
-0.00668604
-0.00668465
-0.00668341
-0.00668233
-0.0066814
-0.00667882
-0.00668001
-0.00667955
-0.00667925
-0.00667912
-0.00667914
0
0
-0.00680296
-0.00680262
-0.00680211
-0.00680142
-0.00680054
-0.00680076
-0.00679828
-0.0067969
-0.00679536
-0.00679367
-0.00679182
-0.00678983
-0.0067877
-0.00678544
-0.00678306
-0.00678055
-0.00677794
-0.00677523
-0.00677242
-0.00676953
-0.00676656
-0.00676353
-0.00676043
-0.00675729
-0.0067541
-0.00675088
-0.00674763
-0.00674438
-0.00674111
-0.00673785
-0.00673461
-0.00673138
-0.00672819
-0.00672504
-0.00672193
-0.00671888
-0.0067159
-0.00671298
-0
-0.00670741
-0.00670475
-0.00670221
-0.00669976
-0.00669744
-0.00669523
-0.00669315
-0.0066912
-0.00668938
-0.0066877
-0.00668617
-0.00668479
-0.00668355
-0.00668247
-0.00668154
-0.00668077
-0.00668015
-0.0066797
-0.0066794
-0.00667927
-0.00667929
0
0
-0.00680279
-0.00680246
-0.00680194
-0.00680125
-0.00680038
-0.00679934
-0.00679813
-0.00679675
-0.00679521
-0.00679352
-0.00679168
-0.00678969
-0.00678757
-0.00678532
-0.00678294
-0.00678044
-0.00677784
-0.00677513
-0.00677233
-0.00676945
-0.00676649
-0.00676346
-0.00676037
-0.00675723
-0.00675405
-0.00675084
-0.00674761
-0.00674436
-0.0067411
-0.00673785
-0.00673462
-0.0067314
-0.00672821
-0.00672507
-0.00672197
-0.00671893
-0.00671595
-0.00671305
-0.00671022
-0.00670748
-0.00670484
-0.0067023
-0.00669986
-0.00669754
-0.00669534
-0.00669326
-0.00669132
-0.0066895
-0.00668783
-0.0066863
-0.00668492
-0.00668369
-0.00668261
-0.00668168
-0.00668091
-0.0066803
-0.00667985
-0.00667955
-0.00667942
-0.00667944
0
0
-0.00680262
-0.00680229
-0.00680177
-0.00680108
-0.00680022
-0.00679918
-0.00679797
-0.0067966
-0.00679506
-0.00679337
-0.00679154
-0.00678956
-0.00678744
-0.00678519
-0.00678282
-0.00678033
-0.00677773
-0.00677503
-0.00677224
-0.00676937
-0.00676641
-0.00676339
-0.00676031
-0.00675718
-0.00675401
-0.00675081
-0.00674758
-0.00674434
-0.00674109
-0.00673785
-0.00673462
-0.00673142
-0.00672824
-0.0067251
-0.00672201
-0.00671898
-0.00671601
-0.00671311
-0.00671029
-0.00670756
-0.00670492
-0.00670239
-0.00669996
-0.00669764
-0.00669545
-0.00669338
-0.00669144
-0.00668963
-0.00668796
-0.00668644
-0.00668506
-0.00668383
-0.00668275
-0.00668183
-0.00668106
-0.00668045
-0.00668
-0.0066797
-0.00667957
-0.00667959
0
0
-0.00680244
-0.00680211
-0.0068016
-0.00680092
-0.00680005
-0.00679901
-0.00679781
-0.00679644
-0.00679491
-0.00679323
-0.00679139
-0.00678942
-0.00678731
-0.00678506
-0.0067827
-0.00678022
-0.00677763
-0.00677493
-0.00677215
-0.00676928
-0.00676634
-0.00676332
-0.00676025
-0.00675713
-0.00675397
-0.00675077
-0.00674683
-0.00674432
-0.00674108
-0.00673785
-0.00673463
-0.00673143
-0.00672826
-0.00672513
-0.00672205
-0.00671902
-0.00671606
-0.00671317
-0.00671036
-0.00670764
-0.00670501
-0.00670248
-0.00670006
-0.00669775
-0.00669556
-0.00669349
-0.00669156
-0.00668975
-0.00668809
-0.00668657
-0.0066852
-0.00668397
-0.00668289
-0.00668197
-0.00668121
-0.0066806
-0.00668015
-0.00667985
-0.00667972
-0.00667974
0
0
-0.00680227
-0.00680194
-0.00680143
-0.00680075
-0.00679988
-0.00679885
-0.00679765
-0.00679628
-0.00679476
-0.00679308
-0.00679125
-0.00678928
-0.00678717
-0.00678494
-0.00678258
-0.0067801
-0.00677752
-0.00677483
-0.00677206
-0.0067692
-0.00676626
-0.00676325
-0.00676019
-0.00675708
-0.00675392
-0.00675074
-0.00674753
-0.0067443
-0.00674107
-0.00673785
-0.00673464
-0.00673145
-0.00672829
-0.00672516
-0.00672209
-0.00671907
-0.00671612
-0.00671324
-0.00671043
-0.00670772
-0.00670509
-0.00670257
-0.00669673
-0.00669785
-0.00669567
-0.00669361
-0.00669168
-0.00668988
-0.00668822
-0.0066867
-0.00668533
-0.00668411
-0.00668304
-0.00668212
-0.00668136
-0.00668075
-0.0066803
-0.00668001
-0.00667987
-0.00667989
0
0
-0.0068021
-0.00680177
-0.00680126
-0.00680058
-0.00679972
-0.00679869
-0.00679749
-0.00679612
-0.0067946
-0.00679293
-0.00679111
-0.00678914
-0.00678704
-0.00678481
-0.00678246
-0.00677999
-0.00677741
-0.00677473
-0.00677196
-0.00676911
-0.00676618
-0.00676318
-0.00676013
-0.00675702
-0.00675388
-0.0067507
-0.0067475
-0.00674428
-0.00674106
-0.00673785
-0.00673464
-0.00673146
-0.00672831
-0.0067252
-0.00672213
-0.00671912
-0.00671618
-0.0067133
-0.0067105
-0.00670779
-0.00670518
-0.00670266
-0.00670025
-0.00669796
-0.00669578
-0.00669372
-0.0066918
-0.00669001
-0.00668835
-0.00668684
-0.00668547
-0.00668425
-0.00668318
-0.00668227
-0.00668151
-0.0066809
-0.00668045
-0.00668016
-0.00668002
-0.00668005
0
0
-0.00680192
-0.0068016
-0.00680109
-0.00680041
-0.00679955
-0.00679852
-0.00679732
-0.00679597
-0.00679445
-0.00679101
-0.00679096
-0.006789
-0.00678691
-0.00678468
-0.00678233
-0.00677987
-0.0067773
-0.00677463
-0.00677187
-0.00676902
-0.0067661
-0.00676311
-0.00676007
-0.00675697
-0.00675383
-0.00675066
-0.00674747
-0.00674426
-0.00674105
-0.00673785
-0.00673465
-0.00673148
-0.00672833
-0.00672454
-0.00672217
-0.00672304
-0.00671623
-0.00671336
-0.00671058
-0.00670787
-0.00670527
-0.00670276
-0.00670035
-0.00669806
-0.00669589
-0.00669384
-0.00669192
-0.00669013
-0.00668848
-0.00668697
-0.00668561
-0.00668439
-0.00668333
-0.00668241
-0.00668166
-0.00668105
-0.0066806
-0.00668031
-0.00668018
-0.0066802
0
0
-0.00680175
-0.00680142
-0.00680092
-0.00680024
-0.00679938
-0.00679835
-0.00679766
-0.00679581
-0.00679429
-0.00679263
-0.00679082
-0.00678886
-0.00678677
-0.00678455
-0.00678221
-0.00677976
-0.00677769
-0.00677453
-0.00677178
-0.00676894
-0.00676603
-0.00676304
-0.00676001
-0.00675692
-0.00675379
-0.00675063
-0.00674744
-0.00674425
-0.00674104
-0.00673784
-0.00673466
-0.00673149
-0.00672836
-0.00672526
-0.00672221
-0.00671922
-0.00671629
-0.00671343
-0.00671065
-0.00670795
-0.00670535
-0.00670285
-0.00670045
-0.00669817
-0.006696
-0.00669396
-0.00669204
-0.00669026
-0.00668862
-0.00668711
-0.00668575
-0.00668454
-0.00668347
-0.00668256
-0.00668181
-0.0066812
-0.00668076
-0.00668047
-0.00668033
-0.00668035
0
0
-0.00680157
-0.00680125
-0.00680074
-0.00680006
-0.00679921
-0.00679819
-0.006797
-0.00679565
-0.00679414
-0.00679248
-0.00679067
-0.00678872
-0.00678664
-0.00678442
-0.00678209
-0.00677964
-0.00677708
-0.00677443
-0.00677168
-0.00676885
-0.00676595
-0.00676297
-0.00675994
-0.00675686
-0.00675374
-0.00675059
-0.00674742
-0.00674423
-0.00674103
-0.00673784
-0.00673455
-0.00673151
-0.00672838
-0.00672529
-0.00672225
-0.00671927
-0.00671635
-0.00671349
-0.00671072
-0.00670803
-0.00670544
-0.00670294
-0.00670055
-0.00669827
-0.00669611
-0.00669408
-0.00669217
-0.00669039
-0.00668875
-0.00668725
-0.00668589
-0.00668468
-0.00668362
-0.00668271
-0.00668196
-0.00668136
-0.00668091
-0.00668062
-0.00668049
-0.00668051
0
0
-0.00680139
-0.00680107
-0.00680057
-0.00679989
-0.00679904
-0.00679802
-0.00679683
-0.00679549
-0.00679398
-0.00679233
-0.00679052
-0.00678858
-0.0067865
-0.00678429
-0.00678197
-0.00677952
-0.00677697
-0.00677433
-0.00677159
-0.00676876
-0.00676587
-0.00676079
-0.00675988
-0.00675681
-0.0067537
-0.00675055
-0.00674739
-0.00674421
-0.00674102
-0.00673784
-0.00673467
-0.00673152
-0.00672841
-0.00672533
-0.00672229
-0.00671932
-0.0067164
-0.00671356
-0.00671079
-0.00670811
-0.00670553
-0.00670304
-0.00670065
-0.00669838
-0.00669623
-0.00669419
-0.00669229
-0.00669052
-0.00668888
-0.00668738
-0.00668603
-0.00668483
-0.00668377
-0.00668286
-0.00668211
-0.00668151
-0.00668107
-0.00668078
-0.00668064
-0.00668066
0
0
-0.00680122
-0.00680089
-0.00680039
-0.00679972
-0.00679887
-0.00679785
-0.00679667
-0.00679532
-0.00679382
-0.00679217
-0.00679037
-0.00678844
-0.00678636
-0.00678416
-0.00678184
-0.00677941
-0.00677686
-0.00677422
-0.00677149
-0.00676868
-0.00676579
-0.00676283
-0.00675982
-0.00675675
-0.00675365
-0.00675052
-0.00674736
-0.00674419
-0.00674101
-0.00673784
-0.00673468
-0.00673154
-0.00672843
-0.00672536
-0.00672234
-0.00671937