# vtk DataFile Version 2.0
FlowField
ASCII
DATASET STRUCTURED_GRID
DIMENSIONS 102 11 11 
POINTS 12342 double
0 0 0
0 0 0.2
0 0 0.4
0 0 0.6
0 0 0.8
0 0 1
0 0 1.2
0 0 1.4
0 0 1.6
0 0 1.8
0 0 2
0 0.1 0
0 0.1 0.2
0 0.1 0.4
0 0.1 0.6
0 0.1 0.8
0 0.1 1
0 0.1 1.2
0 0.1 1.4
0 0.1 1.6
0 0.1 1.8
0 0.1 2
0 0.2 0
0 0.2 0.2
0 0.2 0.4
0 0.2 0.6
0 0.2 0.8
0 0.2 1
0 0.2 1.2
0 0.2 1.4
0 0.2 1.6
0 0.2 1.8
0 0.2 2
0 0.3 0
0 0.3 0.2
0 0.3 0.4
0 0.3 0.6
0 0.3 0.8
0 0.3 1
0 0.3 1.2
0 0.3 1.4
0 0.3 1.6
0 0.3 1.8
0 0.3 2
0 0.4 0
0 0.4 0.2
0 0.4 0.4
0 0.4 0.6
0 0.4 0.8
0 0.4 1
0 0.4 1.2
0 0.4 1.4
0 0.4 1.6
0 0.4 1.8
0 0.4 2
0 0.5 0
0 0.5 0.2
0 0.5 0.4
0 0.5 0.6
0 0.5 0.8
0 0.5 1
0 0.5 1.2
0 0.5 1.4
0 0.5 1.6
0 0.5 1.8
0 0.5 2
0 0.6 0
0 0.6 0.2
0 0.6 0.4
0 0.6 0.6
0 0.6 0.8
0 0.6 1
0 0.6 1.2
0 0.6 1.4
0 0.6 1.6
0 0.6 1.8
0 0.6 2
0 0.7 0
0 0.7 0.2
0 0.7 0.4
0 0.7 0.6
0 0.7 0.8
0 0.7 1
0 0.7 1.2
0 0.7 1.4
0 0.7 1.6
0 0.7 1.8
0 0.7 2
0 0.8 0
0 0.8 0.2
0 0.8 0.4
0 0.8 0.6
0 0.8 0.8
0 0.8 1
0 0.8 1.2
0 0.8 1.4
0 0.8 1.6
0 0.8 1.8
0 0.8 2
0 0.9 0
0 0.9 0.2
0 0.9 0.4
0 0.9 0.6
0 0.9 0.8
0 0.9 1
0 0.9 1.2
0 0.9 1.4
0 0.9 1.6
0 0.9 1.8
0 0.9 2
0 1 0
0 1 0.2
0 1 0.4
0 1 0.6
0 1 0.8
0 1 1
0 1 1.2
0 1 1.4
0 1 1.6
0 1 1.8
0 1 2
0.2 0 0
0.2 0 0.2
0.2 0 0.4
0.2 0 0.6
0.2 0 0.8
0.2 0 1
0.2 0 1.2
0.2 0 1.4
0.2 0 1.6
0.2 0 1.8
0.2 0 2
0.2 0.1 0
0.2 0.1 0.2
0.2 0.1 0.4
0.2 0.1 0.6
0.2 0.1 0.8
0.2 0.1 1
0.2 0.1 1.2
0.2 0.1 1.4
0.2 0.1 1.6
0.2 0.1 1.8
0.2 0.1 2
0.2 0.2 0
0.2 0.2 0.2
0.2 0.2 0.4
0.2 0.2 0.6
0.2 0.2 0.8
0.2 0.2 1
0.2 0.2 1.2
0.2 0.2 1.4
0.2 0.2 1.6
0.2 0.2 1.8
0.2 0.2 2
0.2 0.3 0
0.2 0.3 0.2
0.2 0.3 0.4
0.2 0.3 0.6
0.2 0.3 0.8
0.2 0.3 1
0.2 0.3 1.2
0.2 0.3 1.4
0.2 0.3 1.6
0.2 0.3 1.8
0.2 0.3 2
0.2 0.4 0
0.2 0.4 0.2
0.2 0.4 0.4
0.2 0.4 0.6
0.2 0.4 0.8
0.2 0.4 1
0.2 0.4 1.2
0.2 0.4 1.4
0.2 0.4 1.6
0.2 0.4 1.8
0.2 0.4 2
0.2 0.5 0
0.2 0.5 0.2
0.2 0.5 0.4
0.2 0.5 0.6
0.2 0.5 0.8
0.2 0.5 1
0.2 0.5 1.2
0.2 0.5 1.4
0.2 0.5 1.6
0.2 0.5 1.8
0.2 0.5 2
0.2 0.6 0
0.2 0.6 0.2
0.2 0.6 0.4
0.2 0.6 0.6
0.2 0.6 0.8
0.2 0.6 1
0.2 0.6 1.2
0.2 0.6 1.4
0.2 0.6 1.6
0.2 0.6 1.8
0.2 0.6 2
0.2 0.7 0
0.2 0.7 0.2
0.2 0.7 0.4
0.2 0.7 0.6
0.2 0.7 0.8
0.2 0.7 1
0.2 0.7 1.2
0.2 0.7 1.4
0.2 0.7 1.6
0.2 0.7 1.8
0.2 0.7 2
0.2 0.8 0
0.2 0.8 0.2
0.2 0.8 0.4
0.2 0.8 0.6
0.2 0.8 0.8
0.2 0.8 1
0.2 0.8 1.2
0.2 0.8 1.4
0.2 0.8 1.6
0.2 0.8 1.8
0.2 0.8 2
0.2 0.9 0
0.2 0.9 0.2
0.2 0.9 0.4
0.2 0.9 0.6
0.2 0.9 0.8
0.2 0.9 1
0.2 0.9 1.2
0.2 0.9 1.4
0.2 0.9 1.6
0.2 0.9 1.8
0.2 0.9 2
0.2 1 0
0.2 1 0.2
0.2 1 0.4
0.2 1 0.6
0.2 1 0.8
0.2 1 1
0.2 1 1.2
0.2 1 1.4
0.2 1 1.6
0.2 1 1.8
0.2 1 2
0.4 0 0
0.4 0 0.2
0.4 0 0.4
0.4 0 0.6
0.4 0 0.8
0.4 0 1
0.4 0 1.2
0.4 0 1.4
0.4 0 1.6
0.4 0 1.8
0.4 0 2
0.4 0.1 0
0.4 0.1 0.2
0.4 0.1 0.4
0.4 0.1 0.6
0.4 0.1 0.8
0.4 0.1 1
0.4 0.1 1.2
0.4 0.1 1.4
0.4 0.1 1.6
0.4 0.1 1.8
0.4 0.1 2
0.4 0.2 0
0.4 0.2 0.2
0.4 0.2 0.4
0.4 0.2 0.6
0.4 0.2 0.8
0.4 0.2 1
0.4 0.2 1.2
0.4 0.2 1.4
0.4 0.2 1.6
0.4 0.2 1.8
0.4 0.2 2
0.4 0.3 0
0.4 0.3 0.2
0.4 0.3 0.4
0.4 0.3 0.6
0.4 0.3 0.8
0.4 0.3 1
0.4 0.3 1.2
0.4 0.3 1.4
0.4 0.3 1.6
0.4 0.3 1.8
0.4 0.3 2
0.4 0.4 0
0.4 0.4 0.2
0.4 0.4 0.4
0.4 0.4 0.6
0.4 0.4 0.8
0.4 0.4 1
0.4 0.4 1.2
0.4 0.4 1.4
0.4 0.4 1.6
0.4 0.4 1.8
0.4 0.4 2
0.4 0.5 0
0.4 0.5 0.2
0.4 0.5 0.4
0.4 0.5 0.6
0.4 0.5 0.8
0.4 0.5 1
0.4 0.5 1.2
0.4 0.5 1.4
0.4 0.5 1.6
0.4 0.5 1.8
0.4 0.5 2
0.4 0.6 0
0.4 0.6 0.2
0.4 0.6 0.4
0.4 0.6 0.6
0.4 0.6 0.8
0.4 0.6 1
0.4 0.6 1.2
0.4 0.6 1.4
0.4 0.6 1.6
0.4 0.6 1.8
0.4 0.6 2
0.4 0.7 0
0.4 0.7 0.2
0.4 0.7 0.4
0.4 0.7 0.6
0.4 0.7 0.8
0.4 0.7 1
0.4 0.7 1.2
0.4 0.7 1.4
0.4 0.7 1.6
0.4 0.7 1.8
0.4 0.7 2
0.4 0.8 0
0.4 0.8 0.2
0.4 0.8 0.4
0.4 0.8 0.6
0.4 0.8 0.8
0.4 0.8 1
0.4 0.8 1.2
0.4 0.8 1.4
0.4 0.8 1.6
0.4 0.8 1.8
0.4 0.8 2
0.4 0.9 0
0.4 0.9 0.2
0.4 0.9 0.4
0.4 0.9 0.6
0.4 0.9 0.8
0.4 0.9 1
0.4 0.9 1.2
0.4 0.9 1.4
0.4 0.9 1.6
0.4 0.9 1.8
0.4 0.9 2
0.4 1 0
0.4 1 0.2
0.4 1 0.4
0.4 1 0.6
0.4 1 0.8
0.4 1 1
0.4 1 1.2
0.4 1 1.4
0.4 1 1.6
0.4 1 1.8
0.4 1 2
0.6 0 0
0.6 0 0.2
0.6 0 0.4
0.6 0 0.6
0.6 0 0.8
0.6 0 1
0.6 0 1.2
0.6 0 1.4
0.6 0 1.6
0.6 0 1.8
0.6 0 2
0.6 0.1 0
0.6 0.1 0.2
0.6 0.1 0.4
0.6 0.1 0.6
0.6 0.1 0.8
0.6 0.1 1
0.6 0.1 1.2
0.6 0.1 1.4
0.6 0.1 1.6
0.6 0.1 1.8
0.6 0.1 2
0.6 0.2 0
0.6 0.2 0.2
0.6 0.2 0.4
0.6 0.2 0.6
0.6 0.2 0.8
0.6 0.2 1
0.6 0.2 1.2
0.6 0.2 1.4
0.6 0.2 1.6
0.6 0.2 1.8
0.6 0.2 2
0.6 0.3 0
0.6 0.3 0.2
0.6 0.3 0.4
0.6 0.3 0.6
0.6 0.3 0.8
0.6 0.3 1
0.6 0.3 1.2
0.6 0.3 1.4
0.6 0.3 1.6
0.6 0.3 1.8
0.6 0.3 2
0.6 0.4 0
0.6 0.4 0.2
0.6 0.4 0.4
0.6 0.4 0.6
0.6 0.4 0.8
0.6 0.4 1
0.6 0.4 1.2
0.6 0.4 1.4
0.6 0.4 1.6
0.6 0.4 1.8
0.6 0.4 2
0.6 0.5 0
0.6 0.5 0.2
0.6 0.5 0.4
0.6 0.5 0.6
0.6 0.5 0.8
0.6 0.5 1
0.6 0.5 1.2
0.6 0.5 1.4
0.6 0.5 1.6
0.6 0.5 1.8
0.6 0.5 2
0.6 0.6 0
0.6 0.6 0.2
0.6 0.6 0.4
0.6 0.6 0.6
0.6 0.6 0.8
0.6 0.6 1
0.6 0.6 1.2
0.6 0.6 1.4
0.6 0.6 1.6
0.6 0.6 1.8
0.6 0.6 2
0.6 0.7 0
0.6 0.7 0.2
0.6 0.7 0.4
0.6 0.7 0.6
0.6 0.7 0.8
0.6 0.7 1
0.6 0.7 1.2
0.6 0.7 1.4
0.6 0.7 1.6
0.6 0.7 1.8
0.6 0.7 2
0.6 0.8 0
0.6 0.8 0.2
0.6 0.8 0.4
0.6 0.8 0.6
0.6 0.8 0.8
0.6 0.8 1
0.6 0.8 1.2
0.6 0.8 1.4
0.6 0.8 1.6
0.6 0.8 1.8
0.6 0.8 2
0.6 0.9 0
0.6 0.9 0.2
0.6 0.9 0.4
0.6 0.9 0.6
0.6 0.9 0.8
0.6 0.9 1
0.6 0.9 1.2
0.6 0.9 1.4
0.6 0.9 1.6
0.6 0.9 1.8
0.6 0.9 2
0.6 1 0
0.6 1 0.2
0.6 1 0.4
0.6 1 0.6
0.6 1 0.8
0.6 1 1
0.6 1 1.2
0.6 1 1.4
0.6 1 1.6
0.6 1 1.8
0.6 1 2
0.8 0 0
0.8 0 0.2
0.8 0 0.4
0.8 0 0.6
0.8 0 0.8
0.8 0 1
0.8 0 1.2
0.8 0 1.4
0.8 0 1.6
0.8 0 1.8
0.8 0 2
0.8 0.1 0
0.8 0.1 0.2
0.8 0.1 0.4
0.8 0.1 0.6
0.8 0.1 0.8
0.8 0.1 1
0.8 0.1 1.2
0.8 0.1 1.4
0.8 0.1 1.6
0.8 0.1 1.8
0.8 0.1 2
0.8 0.2 0
0.8 0.2 0.2
0.8 0.2 0.4
0.8 0.2 0.6
0.8 0.2 0.8
0.8 0.2 1
0.8 0.2 1.2
0.8 0.2 1.4
0.8 0.2 1.6
0.8 0.2 1.8
0.8 0.2 2
0.8 0.3 0
0.8 0.3 0.2
0.8 0.3 0.4
0.8 0.3 0.6
0.8 0.3 0.8
0.8 0.3 1
0.8 0.3 1.2
0.8 0.3 1.4
0.8 0.3 1.6
0.8 0.3 1.8
0.8 0.3 2
0.8 0.4 0
0.8 0.4 0.2
0.8 0.4 0.4
0.8 0.4 0.6
0.8 0.4 0.8
0.8 0.4 1
0.8 0.4 1.2
0.8 0.4 1.4
0.8 0.4 1.6
0.8 0.4 1.8
0.8 0.4 2
0.8 0.5 0
0.8 0.5 0.2
0.8 0.5 0.4
0.8 0.5 0.6
0.8 0.5 0.8
0.8 0.5 1
0.8 0.5 1.2
0.8 0.5 1.4
0.8 0.5 1.6
0.8 0.5 1.8
0.8 0.5 2
0.8 0.6 0
0.8 0.6 0.2
0.8 0.6 0.4
0.8 0.6 0.6
0.8 0.6 0.8
0.8 0.6 1
0.8 0.6 1.2
0.8 0.6 1.4
0.8 0.6 1.6
0.8 0.6 1.8
0.8 0.6 2
0.8 0.7 0
0.8 0.7 0.2
0.8 0.7 0.4
0.8 0.7 0.6
0.8 0.7 0.8
0.8 0.7 1
0.8 0.7 1.2
0.8 0.7 1.4
0.8 0.7 1.6
0.8 0.7 1.8
0.8 0.7 2
0.8 0.8 0
0.8 0.8 0.2
0.8 0.8 0.4
0.8 0.8 0.6
0.8 0.8 0.8
0.8 0.8 1
0.8 0.8 1.2
0.8 0.8 1.4
0.8 0.8 1.6
0.8 0.8 1.8
0.8 0.8 2
0.8 0.9 0
0.8 0.9 0.2
0.8 0.9 0.4
0.8 0.9 0.6
0.8 0.9 0.8
0.8 0.9 1
0.8 0.9 1.2
0.8 0.9 1.4
0.8 0.9 1.6
0.8 0.9 1.8
0.8 0.9 2
0.8 1 0
0.8 1 0.2
0.8 1 0.4
0.8 1 0.6
0.8 1 0.8
0.8 1 1
0.8 1 1.2
0.8 1 1.4
0.8 1 1.6
0.8 1 1.8
0.8 1 2
1 0 0
1 0 0.2
1 0 0.4
1 0 0.6
1 0 0.8
1 0 1
1 0 1.2
1 0 1.4
1 0 1.6
1 0 1.8
1 0 2
1 0.1 0
1 0.1 0.2
1 0.1 0.4
1 0.1 0.6
1 0.1 0.8
1 0.1 1
1 0.1 1.2
1 0.1 1.4
1 0.1 1.6
1 0.1 1.8
1 0.1 2
1 0.2 0
1 0.2 0.2
1 0.2 0.4
1 0.2 0.6
1 0.2 0.8
1 0.2 1
1 0.2 1.2
1 0.2 1.4
1 0.2 1.6
1 0.2 1.8
1 0.2 2
1 0.3 0
1 0.3 0.2
1 0.3 0.4
1 0.3 0.6
1 0.3 0.8
1 0.3 1
1 0.3 1.2
1 0.3 1.4
1 0.3 1.6
1 0.3 1.8
1 0.3 2
1 0.4 0
1 0.4 0.2
1 0.4 0.4
1 0.4 0.6
1 0.4 0.8
1 0.4 1
1 0.4 1.2
1 0.4 1.4
1 0.4 1.6
1 0.4 1.8
1 0.4 2
1 0.5 0
1 0.5 0.2
1 0.5 0.4
1 0.5 0.6
1 0.5 0.8
1 0.5 1
1 0.5 1.2
1 0.5 1.4
1 0.5 1.6
1 0.5 1.8
1 0.5 2
1 0.6 0
1 0.6 0.2
1 0.6 0.4
1 0.6 0.6
1 0.6 0.8
1 0.6 1
1 0.6 1.2
1 0.6 1.4
1 0.6 1.6
1 0.6 1.8
1 0.6 2
1 0.7 0
1 0.7 0.2
1 0.7 0.4
1 0.7 0.6
1 0.7 0.8
1 0.7 1
1 0.7 1.2
1 0.7 1.4
1 0.7 1.6
1 0.7 1.8
1 0.7 2
1 0.8 0
1 0.8 0.2
1 0.8 0.4
1 0.8 0.6
1 0.8 0.8
1 0.8 1
1 0.8 1.2
1 0.8 1.4
1 0.8 1.6
1 0.8 1.8
1 0.8 2
1 0.9 0
1 0.9 0.2
1 0.9 0.4
1 0.9 0.6
1 0.9 0.8
1 0.9 1
1 0.9 1.2
1 0.9 1.4
1 0.9 1.6
1 0.9 1.8
1 0.9 2
1 1 0
1 1 0.2
1 1 0.4
1 1 0.6
1 1 0.8
1 1 1
1 1 1.2
1 1 1.4
1 1 1.6
1 1 1.8
1 1 2
1.2 0 0
1.2 0 0.2
1.2 0 0.4
1.2 0 0.6
1.2 0 0.8
1.2 0 1
1.2 0 1.2
1.2 0 1.4
1.2 0 1.6
1.2 0 1.8
1.2 0 2
1.2 0.1 0
1.2 0.1 0.2
1.2 0.1 0.4
1.2 0.1 0.6
1.2 0.1 0.8
1.2 0.1 1
1.2 0.1 1.2
1.2 0.1 1.4
1.2 0.1 1.6
1.2 0.1 1.8
1.2 0.1 2
1.2 0.2 0
1.2 0.2 0.2
1.2 0.2 0.4
1.2 0.2 0.6
1.2 0.2 0.8
1.2 0.2 1
1.2 0.2 1.2
1.2 0.2 1.4
1.2 0.2 1.6
1.2 0.2 1.8
1.2 0.2 2
1.2 0.3 0
1.2 0.3 0.2
1.2 0.3 0.4
1.2 0.3 0.6
1.2 0.3 0.8
1.2 0.3 1
1.2 0.3 1.2
1.2 0.3 1.4
1.2 0.3 1.6
1.2 0.3 1.8
1.2 0.3 2
1.2 0.4 0
1.2 0.4 0.2
1.2 0.4 0.4
1.2 0.4 0.6
1.2 0.4 0.8
1.2 0.4 1
1.2 0.4 1.2
1.2 0.4 1.4
1.2 0.4 1.6
1.2 0.4 1.8
1.2 0.4 2
1.2 0.5 0
1.2 0.5 0.2
1.2 0.5 0.4
1.2 0.5 0.6
1.2 0.5 0.8
1.2 0.5 1
1.2 0.5 1.2
1.2 0.5 1.4
1.2 0.5 1.6
1.2 0.5 1.8
1.2 0.5 2
1.2 0.6 0
1.2 0.6 0.2
1.2 0.6 0.4
1.2 0.6 0.6
1.2 0.6 0.8
1.2 0.6 1
1.2 0.6 1.2
1.2 0.6 1.4
1.2 0.6 1.6
1.2 0.6 1.8
1.2 0.6 2
1.2 0.7 0
1.2 0.7 0.2
1.2 0.7 0.4
1.2 0.7 0.6
1.2 0.7 0.8
1.2 0.7 1
1.2 0.7 1.2
1.2 0.7 1.4
1.2 0.7 1.6
1.2 0.7 1.8
1.2 0.7 2
1.2 0.8 0
1.2 0.8 0.2
1.2 0.8 0.4
1.2 0.8 0.6
1.2 0.8 0.8
1.2 0.8 1
1.2 0.8 1.2
1.2 0.8 1.4
1.2 0.8 1.6
1.2 0.8 1.8
1.2 0.8 2
1.2 0.9 0
1.2 0.9 0.2
1.2 0.9 0.4
1.2 0.9 0.6
1.2 0.9 0.8
1.2 0.9 1
1.2 0.9 1.2
1.2 0.9 1.4
1.2 0.9 1.6
1.2 0.9 1.8
1.2 0.9 2
1.2 1 0
1.2 1 0.2
1.2 1 0.4
1.2 1 0.6
1.2 1 0.8
1.2 1 1
1.2 1 1.2
1.2 1 1.4
1.2 1 1.6
1.2 1 1.8
1.2 1 2
1.4 0 0
1.4 0 0.2
1.4 0 0.4
1.4 0 0.6
1.4 0 0.8
1.4 0 1
1.4 0 1.2
1.4 0 1.4
1.4 0 1.6
1.4 0 1.8
1.4 0 2
1.4 0.1 0
1.4 0.1 0.2
1.4 0.1 0.4
1.4 0.1 0.6
1.4 0.1 0.8
1.4 0.1 1
1.4 0.1 1.2
1.4 0.1 1.4
1.4 0.1 1.6
1.4 0.1 1.8
1.4 0.1 2
1.4 0.2 0
1.4 0.2 0.2
1.4 0.2 0.4
1.4 0.2 0.6
1.4 0.2 0.8
1.4 0.2 1
1.4 0.2 1.2
1.4 0.2 1.4
1.4 0.2 1.6
1.4 0.2 1.8
1.4 0.2 2
1.4 0.3 0
1.4 0.3 0.2
1.4 0.3 0.4
1.4 0.3 0.6
1.4 0.3 0.8
1.4 0.3 1
1.4 0.3 1.2
1.4 0.3 1.4
1.4 0.3 1.6
1.4 0.3 1.8
1.4 0.3 2
1.4 0.4 0
1.4 0.4 0.2
1.4 0.4 0.4
1.4 0.4 0.6
1.4 0.4 0.8
1.4 0.4 1
1.4 0.4 1.2
1.4 0.4 1.4
1.4 0.4 1.6
1.4 0.4 1.8
1.4 0.4 2
1.4 0.5 0
1.4 0.5 0.2
1.4 0.5 0.4
1.4 0.5 0.6
1.4 0.5 0.8
1.4 0.5 1
1.4 0.5 1.2
1.4 0.5 1.4
1.4 0.5 1.6
1.4 0.5 1.8
1.4 0.5 2
1.4 0.6 0
1.4 0.6 0.2
1.4 0.6 0.4
1.4 0.6 0.6
1.4 0.6 0.8
1.4 0.6 1
1.4 0.6 1.2
1.4 0.6 1.4
1.4 0.6 1.6
1.4 0.6 1.8
1.4 0.6 2
1.4 0.7 0
1.4 0.7 0.2
1.4 0.7 0.4
1.4 0.7 0.6
1.4 0.7 0.8
1.4 0.7 1
1.4 0.7 1.2
1.4 0.7 1.4
1.4 0.7 1.6
1.4 0.7 1.8
[...]
POINT_DATA 12342

SCALARS F double
LOOKUP_TABLE default
0
0
0
0
0
0
0
0
0
0
0
0
1
1
1
1
1
1
1
1
1
0
0
1
1
1
1
1
1
1
1
1
0
0
1
1
1
1
1
1
1
1
1
0
0
1
1
1
1
1
1
1
1
1
0
0
1
1
1
1
1
1
1
1
1
0
0
1
1
1
1
1
1
1
1
1
0
0
1
1
1
1
1
1
1
1
1
0
0
1
1
1
1
1
1
1
1
1
0
0
1
1
1
1
1
1
1
1
1
0
0
0
0
0
0
0
0
0
0
0
0
0
0
0
0
0
0
0
0
0
0
0
0
0.946901
1.00283
0.963186
0.947899
0.940969
0.937495
0.936334
0.942023
0.914511
0
0
1.0256
1.09739
1.05633
1.04021
1.03302
1.02958
1.02888
1.03592
1.00006
0
0
1.02457
1.09588
1.05472
1.03861
1.03142
1.02797
1.02723
1.03422
0.998661
0
0
1.02302
1.09389
1.05269
1.0366
1.02941
1.02595
1.02519
1.03215
0.996843
0
0
1.02288
1.09368
1.05247
1.03638
1.02919
1.02573
1.02496
1.03192
0.99665
0
0
1.0241
1.09517
1.05395
1.03785
1.03066
1.02719
1.02643
1.03341
0.997999
0
0
1.02707
1.09884
1.05763
1.04149
1.03428
1.03082
1.03008
1.03709
1.00131
0
0
1.03021
1.10282
1.06163
1.04543
1.0382
1.03473
1.03402
1.04106
1.00485
0
0
0.952856
1.01028
0.970588
0.955238
0.94829
0.944823
0.94371
0.949525
0.921237
0
0
0
0
0
0
0
0
0
0
0
0
0
0
0
0
0
0
0
0
0
0
0
0
1.05196
1.02049
0.958614
0.936669
0.926004
0.918979
0.913392
0.918063
0.930244
0
0
1.15565
1.13966
1.07666
1.05375
1.04269
1.03564
1.03045
1.03575
1.03973
0
0
1.15718
1.14122
1.07818
1.05528
1.04422
1.03717
1.03196
1.03726
1.04126
0
0
1.15647
1.14024
1.07717
1.05428
1.04323
1.03618
1.03095
1.03623
1.0404
0
0
1.15659
1.14033
1.07725
1.05436
1.04331
1.03625
1.03102
1.03629
1.04048
0
0
1.15765
1.14161
1.07853
1.05562
1.04456
1.0375
1.03228
1.03755
1.04162
0
0
1.15966
1.14411
1.08104
1.0581
1.04702
1.03996
1.03475
1.04003
1.04384
0
0
1.15952
1.14419
1.08115
1.05817
1.04707
1.04
1.0348
1.0401
1.04376
0
0
1.0564
1.02594
0.964071
0.94207
0.93138
0.924357
0.918807
0.923516
0.935145
0
0
0
0
0
0
0
0
0
0
0
0
0
0
0
0
0
0
0
0
0
0
0
0
1.1225
1.04989
0.972553
0.94234
0.927672
0.917828
0.911647
0.922655
0.948386
0
0
1.23467
1.17286
1.09486
1.06384
1.04876
1.03882
1.03279
1.04375
1.06352
0
0
1.23759
1.17597
1.09797
1.06697
1.05189
1.04196
1.03592
1.04686
1.06654
0
0
1.23751
1.17579
1.09778
1.06679
1.05172
1.04178
1.03573
1.04666
1.06642
0
0
1.23773
1.176
1.09799
1.067
1.05193
1.04198
1.03594
1.04686
1.06662
0
0
1.23832
1.17671
1.0987
1.0677
1.05262
1.04268
1.03663
1.04755
1.06724
0
0
1.23919
1.1778
1.09981
1.06878
1.05369
1.04374
1.0377
1.04862
1.06819
0
0
1.23695
1.17548
1.09748
1.06643
1.05133
1.04138
1.03535
1.04629
1.06588
0
0
1.12483
1.05265
0.97535
0.945106
0.930419
0.920575
0.914411
0.925403
0.950885
0
0
0
0
0
0
0
0
0
0
0
0
0
0
0
0
0
0
0
0
0
0
0
0
1.15192
1.07464
0.990562
0.952109
0.933114
0.921711
0.91817
0.935965
0.957659
0
0
1.26789
1.19795
1.11337
1.07428
1.05491
1.04335
1.03979
1.05734
1.07454
0
0
1.27128
1.2015
1.11694
1.07787
1.0585
1.04694
1.04337
1.06089
1.07801
0
0
1.27141
1.20158
1.11701
1.07795
1.05858
1.04702
1.04344
1.06096
1.07811
0
0
1.27159
1.20175
1.11718
1.07812
1.05876
1.0472
1.04361
1.06113
1.07828
0
0
1.27187
1.20209
1.11753
1.07847
1.05909
1.04754
1.04395
1.06146
1.07858
0
0
1.27216
1.20249
1.11795
1.07887
1.05949
1.04793
1.04435
1.06186
1.0789
0
0
1.26907
1.1993
1.11474
1.07565
1.05625
1.04469
1.04113
1.05866
1.07576
0
0
1.15298
1.07589
0.991847
0.953383
0.934377
0.922975
0.919439
0.937214
0.958802
0
0
0
0
0
0
0
0
0
0
0
0
0
0
0
0
0
0
0
0
0
0
0
0
1.15439
1.0896
1.00709
0.962839
0.93999
0.928198
0.928259
0.949469
0.960904
0
0
1.27237
1.21289
1.1299
1.08511
1.0619
1.04992
1.04989
1.07089
1.07855
0
0
1.2759
1.21653
1.13355
1.08878
1.06558
1.0536
1.05355
1.07453
1.08212
0
0
1.27605
1.21665
1.13366
1.08889
1.0657
1.05372
1.05367
1.07464
1.08225
0
0
1.27616
1.21675
1.13377
1.08901
1.06581
1.05383
1.05378
1.07475
1.08236
0
0
1.27628
1.21691
1.13394
1.08917
1.06598
1.05399
1.05394
1.07491
1.0825
0
0
1.27634
1.21704
1.13408
1.0893
1.0661
1.05412
1.05407
1.07503
1.08258
0
0
1.27295
1.21356
1.13059
1.0858
1.06259
1.0506
1.05057
1.07154
1.07916
0
0
1.15479
1.09009
1.00762
0.963361
0.940507
0.928716
0.928779
0.949971
0.961353
0
0
0
0
0
0
0
0
0
0
0
0
0
0
0
0
0
0
0
0
0
0
0
0
1.14259
1.09517
1.01995
0.973462
0.948076
0.936587
0.939413
0.960475
0.961327
0
0
1.26165
1.21844
1.14271
1.09574
1.07002
1.05833
1.06105
1.08199
1.07938
0
0
1.26522
1.22209
1.14637
1.09941
1.0737
1.06201
1.06472
1.08564
1.08296
0
0
1.26535
1.22219
1.14647
1.09951
1.0738
1.06211
1.06482
1.08575
1.08308
0
0
1.26541
1.22225
1.14653
1.09957
1.07386
1.06217
1.06488
1.0858
1.08314
0
0
1.26546
1.22233
1.14661
1.09965
1.07394
1.06225
1.06496
1.08588
1.0832
0
0
1.26543
1.22234
1.14664
1.09968
1.07396
1.06227
1.06498
1.0859
1.08319
0
0
1.26193
1.21876
1.14305
1.09608
1.07036
1.05867
1.06139
1.08231
1.07967
0
0
1.14265
1.09529
1.02009
0.973612
0.948226
0.936738
0.939562
0.960609
0.961434
0
0
0
0
0
0
0
0
0
0
0
0
0
0
0
0
0
0
0
0
0
0
0
0
1.12465
1.09371
1.02858
0.983254
0.957033
0.946097
0.950158
0.96874
0.960809
0
0
1.24427
1.21693
1.15131
1.10553
1.07899
1.06787
1.07184
1.09037
1.0791
0
0
1.24784
1.22058
1.15497
1.10919
1.08266
1.07153
1.0755
1.09402
1.08267
0
0
1.24795
1.22067
1.15505
1.10928
1.08275
1.07162
1.07558
1.09411
1.08277
0
0
1.24799
1.22071
1.15508
1.10931
1.08278
1.07165
1.07562
1.09414
1.0828
0
0
1.24801
1.22074
1.15512
1.10935
1.08282
1.07169
1.07566
1.09418
1.08283
0
0
1.24795
1.22071
1.15511
1.10933
1.0828
1.07167
1.07564
1.09415
1.08278
0
0
1.24439
1.21708
1.15148
1.1057
1.07917
1.06804
1.07201
1.09052
1.07923
0
0
1.12455
1.09364
1.02854
0.983222
0.957004
0.946069
0.950127
0.968696
0.960752
0
0
0
0
0
0
0
0
0
0
0
0
0
0
0
0
0
0
0
0
0
0
0
0
1.10505
1.08779
1.03342
0.991714
0.966233
0.955878
0.959799
0.974852
0.960238
0
0
1.22493
1.21094
1.15612
1.114
1.08822
1.07769
1.08155
1.09659
1.07866
0
0
1.2285
1.2146
1.15977
1.11766
1.09188
1.08135
1.0852
1.10024
1.08223
0
0
1.2286
1.21468
1.15985
1.11773
1.09195
1.08142
1.08528
1.10032
1.08232
0
0
1.22862
1.2147
1.15987
1.11775
1.09197
1.08144
1.08529
1.10033
1.08234
0
0
1.22863
1.21471
1.15989
1.11777
1.092
1.08147
1.08532
1.10035
1.08235
0
0
1.22856
1.21466
1.15985
1.11773
1.09196
1.08143
1.08527
1.1003
1.08229
0
0
1.22498
1.21102
1.15621
1.11409
1.08831
1.07778
1.08163
1.09666
1.07873
0
0
1.10488
1.08764
1.03329
0.991594
0.966117
0.955763
0.95968
0.974723
0.960104
0
0
0
0
0
0
0
0
0
0
0
0
0
0
0
0
0
0
0
0
0
0
0
0
1.08604
1.07952
1.03528
0.998594
0.975005
0.965213
0.968127
0.979494
0.959963
0
0
1.206
1.20259
1.15796
1.12089
1.09703
1.08708
1.08995
1.10131
1.07848
0
0
1.20958
1.20624
1.16161
1.12454
1.10068
1.09074
1.0936
1.10497
1.08205
0
0
1.20967
1.20632
1.16168
1.12461
1.10075
1.0908
1.09367
1.10504
1.08212
0
0
1.20968
1.20633
1.16169
1.12462
1.10076
1.09082
1.09368
1.10505
1.08213
0
0
1.20968
1.20634
1.1617
1.12464
1.10078
1.09083
1.09369
1.10506
1.08214
0
0
1.20961
1.20628
1.16165
1.12459
1.10073
1.09078
1.09364
1.105
1.08208
0
0
1.20603
1.20263
1.158
1.12094
1.09708
1.08713
1.08999
1.10135
1.07851
0
0
1.08583
1.07934
1.03511
0.998432
0.974848
0.965057
0.967966
0.979326
0.959796
0
0
0
0
0
0
0
0
0
0
0
0
0
0
0
0
0
0
0
0
0
0
0
0
1.06863
1.07038
1.03506
1.00386
0.982827
0.973614
0.975171
0.983189
0.960082
0
0
1.18859
1.19335
1.1577
1.12617
1.1049
1.09555
1.09706
1.10508
1.07866
0
0
1.19218
1.197
1.16135
1.12982
1.10855
1.09919
1.10071
1.10873
1.08222
0
0
1.19226
1.19707
1.16142
1.12989
1.10861
1.09926
1.10078
1.1088
1.0823
0
0
1.19226
1.19708
1.16143
1.1299
1.10862
1.09927
1.10079
1.10881
1.0823
0
0
1.19226
1.19709
1.16143
1.12991
1.10863
1.09928
1.10079
1.10882
1.08231
0
0
1.19219
1.19702
1.16138
1.12985
1.10858
1.09923
1.10074
1.10876
1.08225
0
0
1.1886
1.19337
1.15772
1.1262
1.10493
1.09557
1.09709
1.1051
1.07868
0
0
1.06842
1.07018
1.03487
1.00368
0.982651
0.973438
0.974993
0.983005
0.959902
0
0
0
0
0
0
0
0
0
0
0
0
0
0
0
0
0
0
0
0
0
0
0
0
1.05322
1.06128
1.03348
1.00763
0.989406
0.980825
0.98105
0.986273
0.960576
0
0
1.17314
1.18414
1.15608
1.12995
1.11152
1.10281
1.103
1.10822
1.07919
0
0
1.17672
1.1878
1.15973
1.1336
1.11517
1.10646
1.10665
1.11187
1.08276
0
0
1.17679
1.18787
1.1598
1.13367
1.11523
1.10653
1.10672
1.11194
1.08283
0
0
1.1768
1.18788
1.15981
1.13367
1.11524
1.10653
1.10672
1.11195
1.08284
0
0
1.1768
1.18788
1.15981
1.13368
1.11524
1.10654
1.10673
1.11195
1.08284
0
0
1.17673
1.18782
1.15975
1.13363
1.11519
1.10649
1.10667
1.11189
1.08278
0
0
1.17314
1.18416
1.1561
1.12997
1.11154
1.10284
1.10302
1.10823
1.07921
0
0
1.05301
1.06108
1.03328
1.00744
0.989222
0.980642
0.980865
0.986084
0.960392
0
0
0
0
0
0
0
0
0
0
0
0
0
0
0
0
0
0
0
0
0
0
0
0
1.03987
1.05274
1.03111
1.0101
0.994653
0.986775
0.9859
0.988931
0.961371
0
0
1.1597
1.17551
1.15366
1.13243
1.1168
1.10882
1.1079
1.11092
1.08002
0
0
1.16329
1.17916
1.15731
1.13608
1.12045
1.11246
1.11155
1.11457
1.08359
0
0
1.16336
1.17923
1.15738
1.13615
1.12052
1.11253
1.11162
1.11464
1.08366
0
0
1.16337
1.17924
1.15739
1.13615
1.12052
1.11254
1.11162
1.11465
1.08366
0
0
1.16337
1.17924
1.15739
1.13616
1.12053
1.11254
1.11163
1.11465
1.08367
0
0
1.1633
1.17918
1.15733
1.1361
1.12047
1.11248
1.11157
1.11459
1.08361
0
0
1.15971
1.17552
1.15368
1.13245
1.11682
1.10883
1.10792
1.11093
1.08004
0
0
1.03966
1.05254
1.03091
1.00991
0.994467
0.98659
0.985713
0.988742
0.961188
0
0
0
0
0
0
0
0
0
0
0
0
0
0
0
0
0
0
0
0
0
0
0
0
1.02845
1.045
1.02833
1.01152
0.998631
0.991514
0.989848
0.991254
0.962374
0
0
1.1482
1.16768
1.15084
1.13384
1.12081
1.1136
1.11189
1.11328
1.08105
0
0
1.15178
1.17133
1.15449
1.13749
1.12446
1.11724
1.11554
1.11693
1.08462
0
0
1.15185
1.1714
1.15456
1.13756
1.12452
1.11731
1.11561
1.117
1.08469
0
0
1.15186
1.17141
1.15457
1.13756
1.12453
1.11732
1.11562
1.117
1.08469
0
0
1.15186
1.17141
1.15457
1.13757
1.12453
1.11732
1.11562
1.11701
1.0847
0
0
1.15179
1.17135
1.15451
1.13751
1.12448
1.11727
1.11556
1.11695
1.08464
0
0
1.14821
1.16769
1.15086
1.13386
1.12082
1.11361
1.11191
1.11329
1.08107
0
0
1.02825
1.04481
1.02814
1.01133
0.998447
0.99133
0.989663
0.991068
0.962195
0
0
0
0
0
0
0
0
0
0
0
0
0
0
0
0
0
0
0
0
0
0
0
0
1.01876
1.03816
1.0254
1.0121
1.00149
0.995163
0.993013
0.993279
0.963488
0
0
1.13843
1.16075
1.14787
1.13442
1.12368
1.11728
1.11509
1.11533
1.08219
0
0
1.14201
1.1644
1.15153
1.13807
1.12733
1.12093
1.11874
1.11898
1.08576
0
0
1.14208
1.16447
1.1516
1.13813
1.1274
1.121
1.11881
1.11905
1.08582
0
0
1.14209
1.16448
1.1516
1.13814
1.12741
1.121
1.11882
1.11906
1.08583
0
0
1.14209
1.16448
1.15161
1.13814
1.12741
1.12101
1.11882
1.11906
1.08583
0
0
1.14202
1.16442
1.15155
1.13809
1.12735
1.12095
1.11876
1.119
1.08577
0
0
1.13844
1.16077
1.14789
1.13443
1.1237
1.1173
1.11511
1.11535
1.08221
0
0
1.01857
1.03797
1.02522
1.01191
1.00131
0.994983
0.992832
0.993098
0.963314
0
0
0
0
0
0
0
0
0
0
0
0
0
0
0
0
0
0
0
0
0
0
0
0
1.01051
1.03217
1.02249
1.01205
1.0034
0.997876
0.995502
0.995021
0.964625
0
0
1.13008
1.15469
1.14492
1.13436
1.12561
1.12002
1.11761
1.1171
1.08335
0
0
1.13366
1.15835
1.14857
1.13801
1.12926
1.12367
1.12126
1.12075
1.08691
0
0
1.13373
1.15842
1.14864
1.13808
1.12933
1.12373
1.12133
1.12082
1.08698
0
0
1.13374
1.15842
1.14865
1.13808
1.12934
1.12374
1.12133
1.12082
1.08699
0
0
1.13374
1.15843
1.14865
1.13809
1.12934
1.12375
1.12134
1.12083
1.08699
0
0
1.13368
1.15837
1.14859
1.13803
1.12928
1.12369
1.12128
1.12077
1.08693
0
0
1.13009
1.15471
1.14494
1.13438
1.12563
1.12003
1.11762
1.11711
1.08336
0
0
1.01033
1.03199
1.02231
1.01187
1.00323
0.9977
0.995325
0.994844
0.964456
0
0
0
0
0
0
0
0
0
0
0
0
0
0
0
0
0
0
0
0
0
0
0
0
1.00356
1.02698
1.01969
1.01155
1.00457
0.999811
0.997412
0.996486
0.965712
0
0
1.12304
1.14943
1.14208
1.13385
1.12678
1.12197
1.11954
1.11858
1.08445
0
0
1.12662
1.15308
1.14573
1.1375
1.13043
1.12562
1.12319
1.12223
1.08802
0
0
1.12669
1.15315
1.1458
1.13757
1.1305
1.12569
1.12326
1.1223
1.08808
0
0
1.1267
1.15316
1.14581
1.13757
1.13051
1.12569
1.12326
1.12231
1.08809
0
0
1.1267
1.15317
1.14581
1.13758
1.13051
1.1257
1.12327
1.12231
1.0881
0
0
1.12664
1.15311
1.14575
1.13752
1.13045
1.12564
1.12321
1.12225
1.08804
0
0
1.12306
1.14945
1.1421
1.13387
1.1268
1.12199
1.11956
1.1186
1.08447
0
0
1.00338
1.0268
1.01951
1.01138
1.0044
0.999639
0.997241
0.996314
0.965548
0
0
0
0
0
0
0
0
0
0
0
0
0
0
0
0
0
0
0
0
0
0
0
0
0.997733
1.02248
1.01704
1.01074
1.00515
1.00111
0.998832
0.99768
0.966694
0
0
1.11714
1.14488
1.13939
1.13302
1.12736
1.12328
1.12097
1.11978
1.08545
0
0
1.12072
1.14853
1.14305
1.13668
1.13101
1.12693
1.12462
1.12344
1.08901
0
0
1.12079
1.1486
1.14312
1.13675
1.13108
1.127
1.12469
1.12351
1.08908
0
0
1.1208
1.14861
1.14312
1.13675
1.13109
1.12701
1.1247
1.12351
1.08909
0
0
1.1208
1.14861
1.14313
1.13676
1.13109
1.12701
1.1247
1.12352
1.08909
0
0
1.12074
1.14855
1.14307
1.1367
1.13104
1.12695
1.12464
1.12346
1.08903
0
0
1.11716
1.1449
1.13941
1.13304
1.12738
1.1233
1.12099
1.1198
1.08547
0
0
0.997563
1.02231
1.01687
1.01058
1.00498
1.00095
0.998667
0.997514
0.966535
0
0
0
0
0
0
0
0
0
0
0
0
0
0
0
0
0
0
0
0
0
0
0
0
0.992838
1.0186
1.01458
1.00974
1.00529
1.00192
0.999841
0.998616
0.967532
0
0
1.11218
1.14094
1.1369
1.132
1.1275
1.12409
1.12199
1.12073
1.0863
0
0
1.11576
1.14459
1.14055
1.13565
1.13115
1.12774
1.12564
1.12438
1.08986
0
0
1.11583
1.14466
1.14062
1.13572
1.13122
1.12781
1.12571
1.12445
1.08993
0
0
1.11584
1.14467
1.14063
1.13573
1.13123
1.12782
1.12572
1.12446
1.08994
0
0
1.11584
1.14468
1.14063
1.13573
1.13123
1.12782
1.12572
1.12446
1.08994
0
0
1.11578
1.14462
1.14057
1.13567
1.13117
1.12776
1.12566
1.1244
1.08988
0
0
1.1122
1.14097
1.13692
1.13202
1.12752
1.12411
1.12201
1.12075
1.08632
0
0
0.992674
1.01844
1.01442
1.00957
1.00513
1.00176
0.999681
0.998456
0.96738
0
0
0
0
0
0
0
0
0
0
0
0
0
0
0
0
0
0
0
0
0
0
0
0
0.988702
1.01523
1.01231
1.00861
1.0051
1.00233
1.00051
0.999311
0.968208
0
0
1.10799
1.13753
1.13459
1.13085
1.12731
1.1245
1.12266
1.12143
1.08698
0
0
1.11157
1.14118
1.13824
1.13451
1.13096
1.12815
1.12631
1.12508
1.09055
0
0
1.11164
1.14125
1.13832
1.13458
1.13103
1.12823
1.12638
1.12515
1.09061
0
0
1.11165
1.14126
1.13832
1.13458
1.13104
1.12823
1.12639
1.12516
1.09062
0
0
1.11165
1.14127
1.13833
1.13459
1.13104
1.12824
1.12639
1.12517
1.09063
0
0
1.11159
1.14121
1.13827
1.13453
1.13098
1.12818
1.12634
1.12511
1.09057
0
0
1.10801
1.13756
1.13462
1.13088
1.12733
1.12453
1.12268
1.12145
1.087
0
0
0.988546
1.01508
1.01215
1.00845
1.00495
1.00218
1.00035
0.999156
0.968062
0
0
0
0
0
0
0
0
0
0
0
0
0
0
0
0
0
0
0
0
0
0
0
0
0.985186
1.01231
1.01022
1.00742
1.00469
1.00244
1.00089
0.999784
0.968715
0
0
1.10443
1.13457
1.13248
1.12965
1.12688
1.12461
1.12304
1.12191
1.08749
0
0
1.108
1.13822
1.13613
1.1333
1.13054
1.12827
1.1267
1.12556
1.09106
0
0
1.10807
1.13829
1.1362
1.13337
1.13061
1.12834
1.12677
1.12563
1.09113
0
0
1.10808
1.1383
1.13621
1.13338
1.13061
1.12834
1.12677
1.12564
1.09113
0
0
1.10809
1.1383
1.13621
1.13339
1.13062
1.12835
1.12678
1.12564
1.09114
0
0
1.10803
1.13824
1.13615
1.13333
1.13056
1.12829
1.12672
1.12559
1.09108
0
0
1.10445
1.13459
1.1325
1.12968
1.12691
1.12464
1.12307
1.12193
1.08752
0
0
0.985036
1.01216
1.01007
1.00727
1.00454
1.00229
1.00074
0.999637
0.968574
0
0
0
0
0
0
0
0
0
0
0
0
0
0
0
0
0
0
0
0
0
0
0
0
0.982171
1.00975
1.00831
1.00622
1.00411
1.00233
1.00104
1.00006
0.969055
0
0
1.10137
1.13198
1.13054
1.12843
1.1263
1.12449
1.1232
1.12219
1.08784
0
0
1.10494
1.13563
1.13419
1.13208
1.12995
1.12814
1.12685
1.12584
1.0914
0
0
1.10502
1.1357
1.13426
1.13215
1.13002
1.12822
1.12692
1.12591
1.09147
0
0
1.10502
1.13571
1.13427
1.13216
1.13003
1.12822
1.12693
1.12592
1.09148
0
0
1.10503
1.13571
1.13428
1.13217
1.13004
1.12823
1.12693
1.12592
1.09149
0
0
1.10497
1.13565
1.13422
1.13211
1.12998
1.12817
1.12688
1.12586
1.09143
0
0
1.10139
1.132
1.13057
1.12846
1.12633
1.12452
1.12323
1.12221
1.08787
0
0
0.982029
1.00961
1.00817
1.00608
1.00397
1.00218
1.0009
0.99992
0.968921
0
0
0
0
0
0
0
0
0
0
0
0
0
0
0
0
0
0
0
0
0
0
0
0
0.979565
1.0075
1.00656
1.00503
1.00343
1.00204
1.00101
1.00017
0.969241
0
0
1.09872
1.1297
1.12876
1.12722
1.12561
1.1242
1.12316
1.12229
1.08802
0
0
1.1023
1.13335
1.13242
1.13087
1.12926
1.12785
1.12681
1.12594
1.09159
0
0
1.10237
1.13342
1.13249
1.13094
1.12933
1.12792
1.12689
1.12601
1.09166
0
0
1.10238
1.13343
1.1325
1.13095
1.12934
1.12793
1.12689
1.12602
1.09167
0
0
1.10238
1.13344
1.1325
1.13096
1.12935
1.12794
1.1269
1.12603
1.09168
0
0
1.10233
1.13338
1.13244
1.1309
1.12929
1.12788
1.12684
1.12597
1.09162
0
0
1.09875
1.12973
1.12879
1.12725
1.12564
1.12423
1.12319
1.12232
1.08805
0
0
0.979429
1.00737
1.00642
1.00489
1.0033
1.0019
1.00088
1.00003
0.969112
0
0
0
0
0
0
0
0
0
0
0
0
0
0
0
0
0
0
0
0
0
0
0
0
0.97729
1.00551
1.00495
1.00387
1.00269
1.00163
1.00083
1.00012
0.969286
0
0
1.09641
1.12768
1.12714
1.12604
1.12485
1.12378
1.12298
1.12224
1.08807
0
0
1.09999
1.13133
1.13079
1.12969
1.1285
1.12743
1.12663
1.1259
1.09164
0
0
1.10006
1.1314
1.13086
1.12976
1.12857
1.1275
1.1267
1.12597
1.09171
0
0
1.10007
1.13141
1.13087
1.12977
1.12858
1.12751
1.12671
1.12598
1.09172
0
0
1.10007
1.13142
1.13088
1.12978
1.12859
1.12752
1.12672
1.12598
1.09172
0
0
1.10002
1.13136
1.13082
1.12972
1.12853
1.12746
1.12666
1.12592
1.09167
0
0
1.09644
1.12771
1.12717
1.12607
1.12488
1.12381
1.12301
1.12227
1.0881
0
0
0.977162
1.00538
1.00483
1.00374
1.00256
1.0015
1.0007
0.999995
0.969164
0
0
0
0
0
0
0
0
0
0
0
0
0
0
0
0
0
0
0
0
0
0
0
0
0.975286
1.00374
1.00348
1.00274
1.0019
1.00113
1.00054
0.999958
0.96921
0
0
1.09438
1.12588
1.12565
1.1249
1.12405
1.12327
1.12268
1.12207
1.08799
0
0
1.09795
1.12954
1.1293
1.12855
1.1277
1.12692
1.12633
1.12573
1.09156
0
0
1.09803
1.12961
1.12937
1.12862
1.12778
1.12699
1.1264
1.1258
1.09163
0
0
1.09803
1.12962
1.12938
1.12863
1.12778
1.127
1.12641
1.12581
1.09164
0
0
1.09804
1.12962
1.12939
1.12864
1.12779
1.12701
1.12642
1.12581
1.09165
0
0
1.09798
1.12957
1.12933
1.12858
1.12773
1.12695
1.12636
1.12575
1.09159
0
0
1.09441
1.12592
1.12568
1.12493
1.12408
1.1233
1.12271
1.12211
1.08803
0
0
0.975165
1.00362
1.00336
1.00262
1.00178
1.001
1.00041
0.999836
0.969094
0
0
0
0
0
0
0
0
0
0
0
0
0
0
0
0
0
0
0
0
0
0
0
0
0.973506
1.00215
1.00213
1.00166
1.0011
1.00056
1.00015
0.999691
0.96903
0
0
1.09257
1.12427
1.12427
1.12381
1.12323
1.12269
1.12228
1.1218
1.08781
0
0
1.09614
1.12792
1.12792
1.12746
1.12689
1.12634
1.12593
1.12545
1.09138
0
0
1.09622
1.128
1.128
1.12753
1.12696
1.12642
1.12601
1.12553
1.09145
0
0
1.09622
1.128
1.12801
1.12754
1.12697
1.12643
1.12602
1.12553
1.09146
0
0
1.09623
1.12801
1.12801
1.12755
1.12698
1.12643
1.12602
1.12554
1.09147
0
0
1.09617
1.12796
1.12796
1.12749
1.12692
1.12638
1.12597
1.12548
1.09141
0
0
1.0926
1.12431
1.12431
1.12384
1.12327
1.12273
1.12232
1.12183
1.08785
0
0
0.973391
1.00203
1.00201
1.00155
1.00098
1.00044
1.00004
0.999576
0.968921
0
0
0
0
0
0
0
0
0
0
0
0
0
0
0
0
0
0
0
0
0
0
0
0
0.971909
1.00071
1.00088
1.00063
1.00029
0.999949
0.999696
0.999342
0.968764
0
0
1.09094
1.12282
1.123
1.12276
1.12241
1.12207
1.12182
1.12144
1.08754
0
0
1.09452
1.12647
1.12666
1.12641
1.12607
1.12573
1.12547
1.1251
1.09111
0
0
1.09459
1.12654
1.12673
1.12649
1.12614
1.1258
1.12554
1.12517
1.09118
0
0
1.0946
1.12655
1.12674
1.1265
1.12615
1.12581
1.12555
1.12518
1.09119
0
0
1.09461
1.12656
1.12675
1.1265
1.12616
1.12581
1.12556
1.12519
1.0912
0
0
1.09455
1.1265
1.12669
1.12645
1.1261
1.12576
1.1255
1.12513
1.09114
0
0
1.09098
1.12285
1.12304
1.1228
1.12245
1.12211
1.12186
1.12148
1.08758
0
0
0.971802
1.0006
1.00077
1.00053
1.00018
0.999841
0.999587
0.999234
0.968662
0
0
0
0
0
0
0
0
0
0
0
0
0
0
0
0
0
0
0
0
0
0
0
0
0.970466
0.999406
0.99972
0.999654
0.99949
0.999313
0.999191
0.998931
0.96843
0
0
1.08948
1.12149
1.12183
1.12177
1.1216
1.12143
1.12131
1.12103
1.08721
0
0
1.09305
1.12514
1.12548
1.12542
1.12526
1.12508
1.12496
1.12468
1.09077
0
0
1.09312
1.12522
1.12556
1.12549
1.12533
1.12515
1.12503
1.12475
1.09085
0
0
1.09313
1.12523
1.12556
1.1255
1.12534
1.12516
1.12504
1.12476
1.09085
0
0
1.09314
1.12523
1.12557
1.12551
1.12535
1.12517
1.12505
1.12477
1.09086
0
0
1.09308
1.12518
1.12552
1.12545
1.12529
1.12511
1.12499
1.12471
1.09081
0
0
1.08951
1.12153
1.12187
1.1218
1.12164
1.12146
1.12134
1.12106
1.08725
0
0
0.970366
0.999306
0.999619
0.999553
0.999389
0.999211
0.99909
0.99883
0.968335
0
0
0
0
0
0
0
0
0
0
0
0
0
0
0
0
0
0
0
0
0
0
0
0