# vtk DataFile Version 2.0
FlowField
ASCII
DATASET STRUCTURED_GRID
DIMENSIONS 62 47 32 
POINTS 93248 double
0 0 0
0.01 0 0
0.02 0 0
0.03 0 0
0.04 0 0
0.05 0 0
0.06 0 0
0.07 0 0
0.08 0 0
0.09 0 0
0.1 0 0
0.11 0 0
0.12 0 0
0.13 0 0
0.14 0 0
0.15 0 0
0.16 0 0
0.17 0 0
0.18 0 0
0.19 0 0
0.2 0 0
0.21 0 0
0.22 0 0
0.23 0 0
0.24 0 0
0.25 0 0
0.26 0 0
0.27 0 0
0.28 0 0
0.29 0 0
0.3 0 0
0.31 0 0
0.32 0 0
0.33 0 0
0.34 0 0
0.35 0 0
0.36 0 0
0.37 0 0
0.38 0 0
0.39 0 0
0.4 0 0
0.41 0 0
0.42 0 0
0.43 0 0
0.44 0 0
0.45 0 0
0.46 0 0
0.47 0 0
0.48 0 0
0.49 0 0
0.5 0 0
0.51 0 0
0.52 0 0
0.53 0 0
0.54 0 0
0.55 0 0
0.56 0 0
0.57 0 0
0.58 0 0
0.59 0 0
0.6 0 0
0.61 0 0
0 0.01 0
0.01 0.01 0
0.02 0.01 0
0.03 0.01 0
0.04 0.01 0
0.05 0.01 0
0.06 0.01 0
0.07 0.01 0
0.08 0.01 0
0.09 0.01 0
0.1 0.01 0
0.11 0.01 0
0.12 0.01 0
0.13 0.01 0
0.14 0.01 0
0.15 0.01 0
0.16 0.01 0
0.17 0.01 0
0.18 0.01 0
0.19 0.01 0
0.2 0.01 0
0.21 0.01 0
0.22 0.01 0
0.23 0.01 0
0.24 0.01 0
0.25 0.01 0
0.26 0.01 0
0.27 0.01 0
0.28 0.01 0
0.29 0.01 0
0.3 0.01 0
0.31 0.01 0
0.32 0.01 0
0.33 0.01 0
0.34 0.01 0
0.35 0.01 0
0.36 0.01 0
0.37 0.01 0
0.38 0.01 0
0.39 0.01 0
0.4 0.01 0
0.41 0.01 0
0.42 0.01 0
0.43 0.01 0
0.44 0.01 0
0.45 0.01 0
0.46 0.01 0
0.47 0.01 0
0.48 0.01 0
0.49 0.01 0
0.5 0.01 0
0.51 0.01 0
0.52 0.01 0
0.53 0.01 0
0.54 0.01 0
0.55 0.01 0
0.56 0.01 0
0.57 0.01 0
0.58 0.01 0
0.59 0.01 0
0.6 0.01 0
0.61 0.01 0
0 0.02 0
0.01 0.02 0
0.02 0.02 0
0.03 0.02 0
0.04 0.02 0
0.05 0.02 0
0.06 0.02 0
0.07 0.02 0
0.08 0.02 0
0.09 0.02 0
0.1 0.02 0
0.11 0.02 0
0.12 0.02 0
0.13 0.02 0
0.14 0.02 0
0.15 0.02 0
0.16 0.02 0
0.17 0.02 0
0.18 0.02 0
0.19 0.02 0
0.2 0.02 0
0.21 0.02 0
0.22 0.02 0
0.23 0.02 0
0.24 0.02 0
0.25 0.02 0
0.26 0.02 0
0.27 0.02 0
0.28 0.02 0
0.29 0.02 0
0.3 0.02 0
0.31 0.02 0
0.32 0.02 0
0.33 0.02 0
0.34 0.02 0
0.35 0.02 0
0.36 0.02 0
0.37 0.02 0
0.38 0.02 0
0.39 0.02 0
0.4 0.02 0
0.41 0.02 0
0.42 0.02 0
0.43 0.02 0
0.44 0.02 0
0.45 0.02 0
0.46 0.02 0
0.47 0.02 0
0.48 0.02 0
0.49 0.02 0
0.5 0.02 0
0.51 0.02 0
0.52 0.02 0
0.53 0.02 0
0.54 0.02 0
0.55 0.02 0
0.56 0.02 0
0.57 0.02 0
0.58 0.02 0
0.59 0.02 0
0.6 0.02 0
0.61 0.02 0
0 0.03 0
0.01 0.03 0
0.02 0.03 0
0.03 0.03 0
0.04 0.03 0
0.05 0.03 0
0.06 0.03 0
0.07 0.03 0
0.08 0.03 0
0.09 0.03 0
0.1 0.03 0
0.11 0.03 0
0.12 0.03 0
0.13 0.03 0
0.14 0.03 0
0.15 0.03 0
0.16 0.03 0
0.17 0.03 0
0.18 0.03 0
0.19 0.03 0
0.2 0.03 0
0.21 0.03 0
0.22 0.03 0
0.23 0.03 0
0.24 0.03 0
0.25 0.03 0
0.26 0.03 0
0.27 0.03 0
0.28 0.03 0
0.29 0.03 0
0.3 0.03 0
0.31 0.03 0
0.32 0.03 0
0.33 0.03 0
0.34 0.03 0
0.35 0.03 0
0.36 0.03 0
0.37 0.03 0
0.38 0.03 0
0.39 0.03 0
0.4 0.03 0
0.41 0.03 0
0.42 0.03 0
0.43 0.03 0
0.44 0.03 0
0.45 0.03 0
0.46 0.03 0
0.47 0.03 0
0.48 0.03 0
0.49 0.03 0
0.5 0.03 0
0.51 0.03 0
0.52 0.03 0
0.53 0.03 0
0.54 0.03 0
0.55 0.03 0
0.56 0.03 0
0.57 0.03 0
0.58 0.03 0
0.59 0.03 0
0.6 0.03 0
0.61 0.03 0
0 0.04 0
0.01 0.04 0
0.02 0.04 0
0.03 0.04 0
0.04 0.04 0
0.05 0.04 0
0.06 0.04 0
0.07 0.04 0
0.08 0.04 0
0.09 0.04 0
0.1 0.04 0
0.11 0.04 0
0.12 0.04 0
0.13 0.04 0
0.14 0.04 0
0.15 0.04 0
0.16 0.04 0
0.17 0.04 0
0.18 0.04 0
0.19 0.04 0
0.2 0.04 0
0.21 0.04 0
0.22 0.04 0
0.23 0.04 0
0.24 0.04 0
0.25 0.04 0
0.26 0.04 0
0.27 0.04 0
0.28 0.04 0
0.29 0.04 0
0.3 0.04 0
0.31 0.04 0
0.32 0.04 0
0.33 0.04 0
0.34 0.04 0
0.35 0.04 0
0.36 0.04 0
0.37 0.04 0
0.38 0.04 0
0.39 0.04 0
0.4 0.04 0
0.41 0.04 0
0.42 0.04 0
0.43 0.04 0
0.44 0.04 0
0.45 0.04 0
0.46 0.04 0
0.47 0.04 0
0.48 0.04 0
0.49 0.04 0
0.5 0.04 0
0.51 0.04 0
0.52 0.04 0
0.53 0.04 0
0.54 0.04 0
0.55 0.04 0
0.56 0.04 0
0.57 0.04 0
0.58 0.04 0
0.59 0.04 0
0.6 0.04 0
0.61 0.04 0
0 0.05 0
0.01 0.05 0
0.02 0.05 0
0.03 0.05 0
0.04 0.05 0
0.05 0.05 0
0.06 0.05 0
0.07 0.05 0
0.08 0.05 0
0.09 0.05 0
0.1 0.05 0
0.11 0.05 0
0.12 0.05 0
0.13 0.05 0
0.14 0.05 0
0.15 0.05 0
0.16 0.05 0
0.17 0.05 0
0.18 0.05 0
0.19 0.05 0
0.2 0.05 0
0.21 0.05 0
0.22 0.05 0
0.23 0.05 0
0.24 0.05 0
0.25 0.05 0
0.26 0.05 0
0.27 0.05 0
0.28 0.05 0
0.29 0.05 0
0.3 0.05 0
0.31 0.05 0
0.32 0.05 0
0.33 0.05 0
0.34 0.05 0
0.35 0.05 0
0.36 0.05 0
0.37 0.05 0
0.38 0.05 0
0.39 0.05 0
0.4 0.05 0
0.41 0.05 0
0.42 0.05 0
0.43 0.05 0
0.44 0.05 0
0.45 0.05 0
0.46 0.05 0
0.47 0.05 0
0.48 0.05 0
0.49 0.05 0
0.5 0.05 0
0.51 0.05 0
0.52 0.05 0
0.53 0.05 0
0.54 0.05 0
0.55 0.05 0
0.56 0.05 0
0.57 0.05 0
0.58 0.05 0
0.59 0.05 0
0.6 0.05 0
0.61 0.05 0
0 0.06 0
0.01 0.06 0
0.02 0.06 0
0.03 0.06 0
0.04 0.06 0
0.05 0.06 0
0.06 0.06 0
0.07 0.06 0
0.08 0.06 0
0.09 0.06 0
0.1 0.06 0
0.11 0.06 0
0.12 0.06 0
0.13 0.06 0
0.14 0.06 0
0.15 0.06 0
0.16 0.06 0
0.17 0.06 0
0.18 0.06 0
0.19 0.06 0
0.2 0.06 0
0.21 0.06 0
0.22 0.06 0
0.23 0.06 0
0.24 0.06 0
0.25 0.06 0
0.26 0.06 0
0.27 0.06 0
0.28 0.06 0
0.29 0.06 0
0.3 0.06 0
0.31 0.06 0
0.32 0.06 0
0.33 0.06 0
0.34 0.06 0
0.35 0.06 0
0.36 0.06 0
0.37 0.06 0
0.38 0.06 0
0.39 0.06 0
0.4 0.06 0
0.41 0.06 0
0.42 0.06 0
0.43 0.06 0
0.44 0.06 0
0.45 0.06 0
0.46 0.06 0
0.47 0.06 0
0.48 0.06 0
0.49 0.06 0
0.5 0.06 0
0.51 0.06 0
0.52 0.06 0
0.53 0.06 0
0.54 0.06 0
0.55 0.06 0
0.56 0.06 0
0.57 0.06 0
0.58 0.06 0
0.59 0.06 0
0.6 0.06 0
0.61 0.06 0
0 0.07 0
0.01 0.07 0
0.02 0.07 0
0.03 0.07 0
0.04 0.07 0
0.05 0.07 0
0.06 0.07 0
0.07 0.07 0
0.08 0.07 0
0.09 0.07 0
0.1 0.07 0
0.11 0.07 0
0.12 0.07 0
0.13 0.07 0
0.14 0.07 0
0.15 0.07 0
0.16 0.07 0
0.17 0.07 0
0.18 0.07 0
0.19 0.07 0
0.2 0.07 0
0.21 0.07 0
0.22 0.07 0
0.23 0.07 0
0.24 0.07 0
0.25 0.07 0
0.26 0.07 0
0.27 0.07 0
0.28 0.07 0
0.29 0.07 0
0.3 0.07 0
0.31 0.07 0
0.32 0.07 0
0.33 0.07 0
0.34 0.07 0
0.35 0.07 0
0.36 0.07 0
0.37 0.07 0
0.38 0.07 0
0.39 0.07 0
0.4 0.07 0
0.41 0.07 0
0.42 0.07 0
0.43 0.07 0
0.44 0.07 0
0.45 0.07 0
0.46 0.07 0
0.47 0.07 0
0.48 0.07 0
0.49 0.07 0
0.5 0.07 0
0.51 0.07 0
0.52 0.07 0
0.53 0.07 0
0.54 0.07 0
0.55 0.07 0
0.56 0.07 0
0.57 0.07 0
0.58 0.07 0
0.59 0.07 0
0.6 0.07 0
0.61 0.07 0
0 0.08 0
0.01 0.08 0
0.02 0.08 0
0.03 0.08 0
0.04 0.08 0
0.05 0.08 0
0.06 0.08 0
0.07 0.08 0
0.08 0.08 0
0.09 0.08 0
0.1 0.08 0
0.11 0.08 0
0.12 0.08 0
0.13 0.08 0
0.14 0.08 0
0.15 0.08 0
0.16 0.08 0
0.17 0.08 0
0.18 0.08 0
0.19 0.08 0
0.2 0.08 0
0.21 0.08 0
0.22 0.08 0
0.23 0.08 0
0.24 0.08 0
0.25 0.08 0
0.26 0.08 0
0.27 0.08 0
0.28 0.08 0
0.29 0.08 0
0.3 0.08 0
0.31 0.08 0
0.32 0.08 0
0.33 0.08 0
0.34 0.08 0
0.35 0.08 0
0.36 0.08 0
0.37 0.08 0
0.38 0.08 0
0.39 0.08 0
0.4 0.08 0
0.41 0.08 0
0.42 0.08 0
0.43 0.08 0
0.44 0.08 0
0.45 0.08 0
0.46 0.08 0
0.47 0.08 0
0.48 0.08 0
0.49 0.08 0
0.5 0.08 0
0.51 0.08 0
0.52 0.08 0
0.53 0.08 0
0.54 0.08 0
0.55 0.08 0
0.56 0.08 0
0.57 0.08 0
0.58 0.08 0
0.59 0.08 0
0.6 0.08 0
0.61 0.08 0
0 0.09 0
0.01 0.09 0
0.02 0.09 0
0.03 0.09 0
0.04 0.09 0
0.05 0.09 0
0.06 0.09 0
0.07 0.09 0
0.08 0.09 0
0.09 0.09 0
0.1 0.09 0
0.11 0.09 0
0.12 0.09 0
0.13 0.09 0
0.14 0.09 0
0.15 0.09 0
0.16 0.09 0
0.17 0.09 0
0.18 0.09 0
0.19 0.09 0
0.2 0.09 0
0.21 0.09 0
0.22 0.09 0
0.23 0.09 0
0.24 0.09 0
0.25 0.09 0
0.26 0.09 0
0.27 0.09 0
0.28 0.09 0
0.29 0.09 0
0.3 0.09 0
0.31 0.09 0
0.32 0.09 0
0.33 0.09 0
0.34 0.09 0
0.35 0.09 0
0.36 0.09 0
0.37 0.09 0
0.38 0.09 0
0.39 0.09 0
0.4 0.09 0
0.41 0.09 0
0.42 0.09 0
0.43 0.09 0
0.44 0.09 0
0.45 0.09 0
0.46 0.09 0
0.47 0.09 0
0.48 0.09 0
0.49 0.09 0
0.5 0.09 0
0.51 0.09 0
0.52 0.09 0
0.53 0.09 0
0.54 0.09 0
0.55 0.09 0
0.56 0.09 0
0.57 0.09 0
0.58 0.09 0
0.59 0.09 0
0.6 0.09 0
0.61 0.09 0
0 0.1 0
0.01 0.1 0
0.02 0.1 0
0.03 0.1 0
0.04 0.1 0
0.05 0.1 0
0.06 0.1 0
0.07 0.1 0
0.08 0.1 0
0.09 0.1 0
0.1 0.1 0
0.11 0.1 0
0.12 0.1 0
0.13 0.1 0
0.14 0.1 0
0.15 0.1 0
0.16 0.1 0
0.17 0.1 0
0.18 0.1 0
0.19 0.1 0
0.2 0.1 0
0.21 0.1 0
0.22 0.1 0
0.23 0.1 0
0.24 0.1 0
0.25 0.1 0
0.26 0.1 0
0.27 0.1 0
0.28 0.1 0
0.29 0.1 0
0.3 0.1 0
0.31 0.1 0
0.32 0.1 0
0.33 0.1 0
0.34 0.1 0
0.35 0.1 0
0.36 0.1 0
0.37 0.1 0
0.38 0.1 0
0.39 0.1 0
0.4 0.1 0
0.41 0.1 0
0.42 0.1 0
0.43 0.1 0
0.44 0.1 0
0.45 0.1 0
0.46 0.1 0
0.47 0.1 0
0.48 0.1 0
0.49 0.1 0
0.5 0.1 0
0.51 0.1 0
0.52 0.1 0
0.53 0.1 0
0.54 0.1 0
0.55 0.1 0
0.56 0.1 0
0.57 0.1 0
0.58 0.1 0
0.59 0.1 0
0.6 0.1 0
0.61 0.1 0
0 0.11 0
0.01 0.11 0
0.02 0.11 0
0.03 0.11 0
0.04 0.11 0
0.05 0.11 0
0.06 0.11 0
0.07 0.11 0
0.08 0.11 0
0.09 0.11 0
0.1 0.11 0
0.11 0.11 0
0.12 0.11 0
0.13 0.11 0
0.14 0.11 0
0.15 0.11 0
0.16 0.11 0
0.17 0.11 0
0.18 0.11 0
0.19 0.11 0
0.2 0.11 0
0.21 0.11 0
0.22 0.11 0
0.23 0.11 0
0.24 0.11 0
0.25 0.11 0
0.26 0.11 0
0.27 0.11 0
0.28 0.11 0
0.29 0.11 0
0.3 0.11 0
0.31 0.11 0
0.32 0.11 0
0.33 0.11 0
0.34 0.11 0
0.35 0.11 0
0.36 0.11 0
0.37 0.11 0
0.38 0.11 0
0.39 0.11 0
0.4 0.11 0
0.41 0.11 0
0.42 0.11 0
0.43 0.11 0
0.44 0.11 0
0.45 0.11 0
0.46 0.11 0
0.47 0.11 0
0.48 0.11 0
0.49 0.11 0
0.5 0.11 0
0.51 0.11 0
0.52 0.11 0
0.53 0.11 0
0.54 0.11 0
0.55 0.11 0
0.56 0.11 0
0.57 0.11 0
0.58 0.11 0
0.59 0.11 0
0.6 0.11 0
0.61 0.11 0
0 0.12 0
0.01 0.12 0
0.02 0.12 0
0.03 0.12 0
0.04 0.12 0
0.05 0.12 0
0.06 0.12 0
0.07 0.12 0
0.08 0.12 0
0.09 0.12 0
0.1 0.12 0
0.11 0.12 0
0.12 0.12 0
0.13 0.12 0
0.14 0.12 0
0.15 0.12 0
0.16 0.12 0
0.17 0.12 0
0.18 0.12 0
0.19 0.12 0
0.2 0.12 0
0.21 0.12 0
0.22 0.12 0
0.23 0.12 0
0.24 0.12 0
0.25 0.12 0
0.26 0.12 0
0.27 0.12 0
0.28 0.12 0
0.29 0.12 0
0.3 0.12 0
0.31 0.12 0
0.32 0.12 0
0.33 0.12 0
0.34 0.12 0
0.35 0.12 0
0.36 0.12 0
0.37 0.12 0
0.38 0.12 0
0.39 0.12 0
0.4 0.12 0
0.41 0.12 0
0.42 0.12 0
0.43 0.12 0
0.44 0.12 0
0.45 0.12 0
0.46 0.12 0
0.47 0.12 0
0.48 0.12 0
0.49 0.12 0
0.5 0.12 0
0.51 0.12 0
0.52 0.12 0
0.53 0.12 0
0.54 0.12 0
0.55 0.12 0
0.56 0.12 0
0.57 0.12 0
0.58 0.12 0
0.59 0.12 0
0.6 0.12 0
0.61 0.12 0
0 0.13 0
0.01 0.13 0
0.02 0.13 0
0.03 0.13 0
0.04 0.13 0
0.05 0.13 0
0.06 0.13 0
0.07 0.13 0
0.08 0.13 0
0.09 0.13 0
0.1 0.13 0
0.11 0.13 0
0.12 0.13 0
0.13 0.13 0
0.14 0.13 0
0.15 0.13 0
0.16 0.13 0
0.17 0.13 0
0.18 0.13 0
0.19 0.13 0
0.2 0.13 0
0.21 0.13 0
0.22 0.13 0
0.23 0.13 0
0.24 0.13 0
0.25 0.13 0
0.26 0.13 0
0.27 0.13 0
0.28 0.13 0
0.29 0.13 0
0.3 0.13 0
0.31 0.13 0
0.32 0.13 0
0.33 0.13 0
0.34 0.13 0
0.35 0.13 0
0.36 0.13 0
0.37 0.13 0
0.38 0.13 0
0.39 0.13 0
0.4 0.13 0
0.41 0.13 0
0.42 0.13 0
0.43 0.13 0
0.44 0.13 0
0.45 0.13 0
0.46 0.13 0
0.47 0.13 0
0.48 0.13 0
[...]
POINT_DATA 93248

SCALARS v double
LOOKUP_TABLE default
0
0
0
0
0
0
0
0
0
0
0
0
0
0
0
0
0
0
0
0
0
0
0
0
0
0
0
0
0
0
0
0
0
0
0
0
0
0
-0.0698088
0
0
0
0
0
-0.0738552
0
0
0
0
0
0
0
0
0
0
0
0
0
0
0
0
0
0
0.0458975
-0.0666985
0.0492801
0.0359085
0.0199436
0
-0.00278984
-0.0108893
-0.0165288
-0.0204228
-0.0234134
-0.0268401
-0.0265872
-0.0263348
-0.0260611
-0.0260718
-0.0255348
-0.0250216
-0.0236671
-0.030308
-0.0270174
-0.0240211
-0.0254645
-0.0257138
-0.0258033
-0.0258607
-0.0258895
-0.0258871
-0.0258467
-0.0257675
-0.025805
-0.0268325
-0.0258544
-0.0251498
-0.0254898
-0.0468476
-0.0248405
-0.0248687
-0.0208825
-0.0276057
-0.043487
-0.0281902
-0.0285196
-0.0305132
-0.0402076
-0.0859323
-0.027199
-0.0356335
-0.0254974
-0.0253652
-0.0251703
-0.0275191
-0.0304954
-0.0452247
-0.0294016
-0.0608612
-0.0264079
-0.0235475
-0.0206698
-0.0164048
0
0
0.0271203
0.0520951
0.0599595
0.0557822
0.0401854
0.0320953
0.0201618
0.0076533
-0.00460662
-0.0147078
-0.0228675
-0.0893169
-0.0327615
-0.0334514
-0.0277771
-0.0341351
-0.0331129
-0.0341974
-0.0366937
-0.10126
-0.0338282
-0.0353932
-0.0339119
-0.0337572
-0.0338739
-0.0340027
-0.0340829
-0.0341012
-0.034043
-0.0338707
-0.0337107
-0.0667015
-0.034092
-0.0327994
-0.0338902
-0.03311
-0.0305565
-0.0278393
-0.0343255
-0.0375819
-0.0390186
-0.0383263
-0.0389883
-0.0394081
-0.0408345
-0.0407474
-0.0368733
-0.0356335
-0.0340664
-0.0342213
-0.0353446
-0.036028
-0.037689
-0.0398128
-0.0364528
-0.0348588
-0.0698808
-0.0290811
-0.0255405
-0.0217288
0
0
0.0142527
0.0357162
0.0458597
0.0528729
0.0541763
0.0426337
0.0314416
0.0193334
0.00673059
-0.00596277
-0.0162525
-0.025923
-0.0307923
-0.0336237
-0.0352959
-0.0367788
0
-0.0368168
-0.0381913
-0.0389554
-0.0376567
-0.0374391
-0.0371171
-0.0371091
-0.0372445
-0.0373954
-0.0375068
-0.0375617
-0.037561
-0.0375414
-0.0377058
-0.0387339
-0.0384846
-0.0385979
-0.0361431
-0.0353734
-0.0343337
-0.0341417
-0.0375761
-0.0402839
-0.0420201
-0.0429077
-0.041995
-0.0425024
-0.043089
-0.0398118
-0.0387644
-0.0380056
-0.0386682
-0.0384899
-0.0386397
-0.038888
-0.039277
-0.039261
-0.0379284
-0.0365636
-0.0352675
-0.031374
-0.0282418
-0.0258497
0
0
0.00847622
0.0239731
0.0370616
0.0406531
0.0416716
0.037271
0.0303032
0.0213623
0.0111905
0.000347771
-0.0099889
-0.0192178
-0.0259013
-0.0303972
-0.0335727
-0.0354374
-0.0355513
-0.0368272
-0.0380043
-0.0380133
-0.0380138
-0.0381085
-0.0382205
-0.038393
-0.0385933
-0.0387743
-0.0389163
-0.0390089
-0.0390554
-0.0390906
-0.0392188
-0.0396291
-0.0402493
-0.0398885
-0.0384653
-0.0375587
-0.0370748
-0.0372591
-0.0391962
-0.0409973
-0.0423428
-0.0431168
-0.0430888
-0.0431923
-0.0426935
-0.0394439
-0.0398112
-0.0398121
-0.0400563
-0.0399787
-0.0398435
-0.0396443
-0.0393178
-0.0386927
-0.0376473
-0.0362748
-0.0344656
-0.0317626
-0.0293875
-0.0291772
0
0
0.00539744
0.0152725
0.0233127
0.0274283
0.0288483
0.0274362
0.0235532
0.0175688
0.0105024
0.00223706
-0.00654805
-0.0149032
-0.0218268
-0.0271155
-0.0308422
-0.0337535
-0.0349658
-0.0362069
-0.0368173
-0.0373593
-0.0378646
-0.0383152
-0.0387037
-0.039047
-0.039345
-0.0395769
-0.0397634
-0.0398958
-0.0399652
-0.0399747
-0.0399554
-0.0401312
-0.0420418
-0.0410187
-0.0399309
-0.039286
-0.039129
-0.0395187
-0.040489
-0.0415298
-0.0423883
-0.0429541
-0.0432268
-0.0433879
-0.0430826
0
-0.0407247
-0.0409586
-0.0408896
-0.0407079
-0.0404286
-0.039971
-0.0392627
-0.0383782
-0.03732
-0.0360178
-0.0344396
-0.0325279
-0.0301698
-0.0316912
-0.0825816
0
0.00352593
0.00959353
0.0144292
0.0172553
0.0183359
0.0181237
0.0157529
0
0.00710883
0.00104355
-0.00606205
-0.0133262
-0.0197291
-0.0250025
-0.0293356
-0.0332731
-0.0337769
-0.0341166
-0.0356856
-0.0368779
-0.0378556
-0.0386085
-0.0392003
-0.0396847
-0.0400892
-0.0403633
-0.04061
-0.0407928
-0.0408814
-0.0408472
-0.0406395
-0.0403261
-0.0898549
-0.0419871
-0.0410336
-0.0407394
-0.0407761
-0.0411161
-0.0416677
-0.0422571
-0.0427592
-0.0431017
-0.0433101
-0.0432496
-0.0426588
-0.0408261
-0.0412906
-0.0415207
-0.0414992
-0.0413416
-0.0410472
-0.0404755
-0.0394926
-0.0384723
-0.0374539
-0.0363908
-0.0356054
-0.0362833
-0.0383623
-0.0321982
0
0
0.00229177
0.00577541
0.00843333
0.00987898
0.010171
0.00931363
0.00874468
0.00622104
0.00283281
-0.00190276
-0.00775164
-0.0141056
-0.019534
-0.0242309
-0.0284899
-0.0337763
-0.0327524
-0.0337699
-0.0355994
-0.037174
-0.0384327
-0.0393054
-0.0399636
-0.0405184
-0.0410154
-0.0412924
-0.0416312
-0.0418816
-0.0420081
-0.0420006
-0.0419627
-0.0421807
-0.0437282
-0.0431057
-0.0425733
-0.0423449
-0.0423665
-0.0425729
-0.0428823
-0.0432078
-0.043487
-0.0436805
-0.0436829
-0.043541
-0.0431158
-0.0424391
-0.0423151
-0.0422959
-0.0422257
-0.0420993
-0.0418773
-0.0413237
-0.0400041
-0.0389567
-0.0380606
-0.0370949
-0.0361639
-0.0648
-0.0261987
-0.0315734
0
0
0.0014386
0.00309631
0.00418954
0.00450869
0.00415181
0.00330825
0.00243374
0.000732982
-0.0019383
-0.00579569
-0.0107235
-0.0170992
-0.0218268
-0.0242586
-0.0268675
-0.0268119
-0.0326439
-0.03579
-0.0374074
-0.0385321
-0.0397578
-0.0404165
-0.0409878
-0.0415281
-0.0412924
-0.0425441
-0.0429322
-0.0432253
-0.0433819
-0.0433444
-0.0433142
-0.0435151
-0.0440284
-0.0440526
-0.0439351
-0.043871
-0.0439
-0.0440138
-0.0441753
-0.0443379
-0.0444625
-0.0445159
-0.0444529
-0.0442802
-0.0439853
-0.0436382
-0.0434056
-0.0432362
-0.04308
-0.0429416
-0.0428312
-0.0425686
-0.0406579
-0.0398339
-0.039234
-0.0385768
-0.0379259
-0.0372754
-0.0337863
-0.0323182
0
0
0.000829367
0.00114229
0.00105453
0.000443955
-0.000515107
-0.00162865
-0.00279485
-0.00438125
-0.0067287
-0.00996545
-0.0137302
-0.0163146
-0.0216896
-0.0253183
-0.0277771
-0.0294376
-0.0330765
-0.0359864
-0.0379396
-0.0392615
-0.0502197
-0.0414621
-0.0420451
-0.0426723
-0.0433679
-0.0438393
-0.0443498
-0.0447828
-0.0450349
-0.044891
-0.0445427
-0.044652
-0.0449916
-0.0452036
-0.0452967
-0.04535
-0.0454079
-0.0454768
-0.0455549
-0.0456167
-0.0456386
-0.0456
-0.0454821
-0.0452924
-0.0450447
-0.044773
-0.0445088
-0.0442459
-0.0439682
-0.0436864
-0.0434614
-0.0432755
-0.0413523
-0.0412779
-0.0409142
-0.0403371
-0.0396595
-0.0386754
-0.0366224
-0.0336089
0
0
0.000381345
-0.000334088
-0.00134478
-0.00278883
-0.00432123
-0.00584439
-0.00734444
-0.00908523
-0.0113863
-0.0143524
-0.0177171
-0.0210042
-0.0246147
-0.0276136
-0.0296964
-0.03185
-0.0344722
-0.0368679
-0.0388063
-0.0403673
-0.0416798
-0.0425278
-0.043239
-0.0438762
-0.0443403
-0.0452115
-0.0459564
-0.0466196
-0.0471436
-0.047318
-0.0449898
-0.0456287
-0.0462355
-0.0465776
-0.0467499
-0.0468476
-0.0469324
-0.0469944
-0.0470294
-0.0470269
-0.046978
-0.0468747
-0.0466977
-0.0464765
-0.0462261
-0.0459555
-0.0456599
-0.0453171
-0.044889
-0.0443219
-0.0434682
-0.0424338
-0.0445365
-0.043882
-0.0430196
-0.0422126
-0.0413925
-0.0402744
-0.0383682
-0.0350173
0
0
3.9484e-05
-0.00149608
-0.00323681
-0.00772415
-0.00753832
-0.00952333
-0.0114243
-0.0134426
-0.015859
-0.0187597
-0.0219248
-0.0250628
-0.0280526
-0.0306574
-0.0317175
-0.0340317
-0.0363409
-0.0384062
-0.0401674
-0.04156
-0.042888
-0.0438212
-0.04458
-0.0452755
-0.0459769
-0.0468328
-0.0477714
-0.0487069
-0.0494975
-0.0498232
0
-0.0473243
-0.0479461
-0.0481701
-0.0482996
-0.0483969
-0.0484873
-0.0485742
-0.0486005
-0.0485524
-0.0484513
-0.0483133
-0.0480489
-0.0477779
-0.0475043
-0.047219
-0.0469008
-0.0465109
-0.0460154
-0.045486
-0.0448811
-0.044529
-0.0453511
-0.0452247
-0.0446295
-0.0438893
-0.0430428
-0.0418675
-0.0399122
-0.0364166
0
0
-0.000237232
-0.00247806
-0.00494064
-0.00765691
-0.0103401
-0.0128436
-0.0151721
-0.0175249
-0.020134
-0.0230811
-0.0261082
-0.0290027
-0.0316756
-0.0342983
0
-0.0364888
-0.0386247
-0.040383
-0.0420263
-0.0433149
-0.0443909
-0.0452531
-0.0459998
-0.0467219
-0.0475145
-0.0484908
-0.04972
-0.0510469
-0.0520596
-0.0511821
-0.0489158
-0.0490305
-0.049348
-0.0495942
-0.0497822
-0.0499461
-0.0500986
-0.0502383
-0.0502684
-0.050173
-0.0500203
-0.0499714
-0.0494834
-0.0491537
-0.0488591
-0.0485689
-0.0482538
-0.047853
-0.0473068
-0.0469876
-0.0466669
-0.0464751
-0.0465672
-0.0464314
-0.0460155
-0.0454034
-0.0445862
-0.0434104
-0.0413984
-0.0377774
0
0
-0.000466812
-0.00331783
-0.00638959
-0.00953792
-0.0128509
-0.0158708
-0.0186497
-0.021369
-0.0242096
-0.0281506
-0.0301884
-0.0328302
-0.0350847
-0.036902
-0.0375518
-0.0392534
-0.0409025
-0.0424415
-0.0442464
-0.0453539
-0.0461565
-0.0468443
-0.0474934
-0.0481672
-0.0489561
-0.0500286
-0.0516636
-0.0538076
-0.0568222
-0.053632
-0.0515053
-0.0508909
-0.0508828
-0.051049
-0.0512675
-0.0515179
-0.0517611
-0.0520472
-0.0520959
-0.0518908
-0.0515166
-0.0508492
-0.0508011
-0.0505483
-0.0502648
-0.0499917
-0.0497168
-0.049346
-0.0485968
-0.0486458
-0.0484921
-0.0482591
-0.0480329
-0.0478118
-0.0474472
-0.046906
-0.0460337
-0.0449231
-0.0428455
-0.0390896
0
0
-0.00066383
-0.00405886
-0.00772415
-0.0116348
-0.0152476
-0.0187039
-0.0219241
-0.0250275
-0.0281506
-0.0312841
-0.0341645
-0.0366131
-0.0385606
-0.0400421
-0.041094
-0.0422657
-0.0434238
-0.0445595
-0.0471349
-0.0476412
-0.0480436
-0.0485108
-0.0490258
-0.0495766
-0.0502181
-0.0511306
-0.0528698
-0.0399652
-0.0700507
-0.0557837
-0.0526943
-0.0521488
-0.0521946
-0.0524091
-0.0527117
-0.0531287
-0.0537111
-0.0541428
-0.0542292
-0.0538207
-0.0532583
-0.0527068
-0.0523397
-0.05201
-0.0517071
-0.0514537
-0.0512474
-0.0510044
-0.0400563
-0.0504886
-0.0503513
-0.0500056
-0.0495051
-0.0493561
-0.0490122
-0.0485833
-0.0479914
-0.0465386
-0.0442767
-0.0403394
0
0
-0.00083926
-0.00469589
-0.00887268
-0.0132074
-0.0174122
-0.0213581
-0.0250303
-0.028526
-0.0319343
-0.0351844
-0.0380475
-0.0403611
-0.0421093
-0.0434032
-0.0444036
-0.0452983
-0.0460493
-0.0464575
-0.0938425
-0.0498013
-0.0498514
-0.0502197
-0.0506142
-0.0509859
-0.0512859
-0.051388
-0.05072
-0.0464808
-0.0262682
-0.0453204
-0.0505471
-0.0522859
-0.05305
-0.0535476
-0.0540211
-0.0546508
-0.0555624
-0.0566266
-0.0570124
-0.0560562
-0.0550893
-0.0543807
-0.0538778
-0.0534829
-0.0531448
-0.052893
-0.0526748
-0.052429
-0.0520455
-0.0523427
-0.0521706
-0.0518794
-0.0518293
-0.0511492
-0.0506292
-0.0502953
-0.049534
-0.0481405
-0.045692
-0.041492
0
0
-0.00103056
-0.00522424
-0.00992954
-0.0147721
-0.0194872
-0.0238763
-0.0279973
-0.0318893
-0.0355908
-0.038987
-0.0418411
-0.0440653
-0.045688
-0.0468497
-0.0477148
-0.0484378
-0.0491042
-0.0498612
-0.0516817
-0.051889
-0.0520137
-0.052205
-0.0524113
-0.052561
-0.0525542
-0.0521825
-0.0509932
-0.0483327
-0.0444355
-0.0485283
-0.0514509
-0.0530617
-0.0539929
-0.0546412
-0.0552001
-0.0559934
-0.0573859
-0.0597331
-0.0617918
-0.0587072
-0.0568216
-0.0558561
-0.0552949
-0.0548948
-0.0545307
-0.0543207
-0.0541232
-0.0539596
-0.0539952
-0.0545501
-0.0540724
-0.0536089
-0.053311
-0.0528583
-0.0519001
-0.0522176
-0.0514061
-0.0500118
-0.0472562
-0.042468
0
0
-0.00130709
0.00114229
-0.010963
-0.016359
-0.0215339
-0.0262386
-0.0308387
-0.0351387
-0.0391512
-0.0427113
-0.0455145
-0.0476919
-0.0492671
-0.0503556
-0.0510715
-0.0516215
-0.0521524
-0.0527794
-0.0535587
-0.0539243
-0.0541103
-0.0542394
-0.0543252
-0.0543318
-0.0541813
-0.0537388
-0.0528192
-0.0518559
-0.0516572
-0.0526545
-0.0537411
-0.0546126
-0.0552893
-0.0558504
-0.056227
-0.056871
-0.0583007
-0.0623683
-0.074819
-0.060859
-0.0576446
-0.0567888
-0.0564252
-0.0561737
-0.0545307
-0.0557433
-0.055575
-0.0554276
-0.0556549
-0.0572634
-0.0559315
-0.0552901
-0.0551049
-0.055213
-0.0562696
-0.054981
-0.0538074
-0.0526269
-0.0496495
-0.0431071
0
0
-0.00130886
-0.00638022
-0.0119993
-0.0179238
-0.0236401
-0.028779
-0.033638
-0.038325
-0.0426696
-0.0464274
-0.0489662
-0.0511897
-0.0528455
-0.0539532
-0.0544712
-0.054798
-0.0551405
-0.0555994
-0.055989
-0.0562074
-0.0563128
-0.0563574
-0.0563527
-0.0562824
-0.0561122
-0.0558065
-0.0553706
-0.054661
-0.0561294
-0.0559621
-0.0560807
-0.0563995
-0.0567796
-0.057153
-0.0570922
-0.0570214
-0.056146
-0.0517462
-0.0304245
-0.0501805
-0.0551805
-0.0567059
-0.0571589
-0.0572568
-0.0571989
-0.0571574
-0.0570442
-0.0568528
-0.0569219
-0.0927586
-0.0574193
-0.056894
-0.0568944
-0.057001
-0.0571011
-0.0566951
-0.0570374
-0.0565205
-0.0555119
-0.0529917
0
0
-0.00139623
-0.00697062
-0.0129811
-0.0196572
-0.0258666
-0.0305799
-0.0361861
-0.0414584
-0.0462399
-0.0503273
-0.0519078
-0.0545633
-0.0564771
-0.0577355
-0.0578737
-0.0579264
-0.0580823
-0.0585483
-0.0587029
-0.0587081
-0.058661
-0.0585885
-0.0584918
-0.0583656
-0.0582077
-0.0580291
-0.0577521
-0.0569004
-0.0978447
-0.0584661
-0.0580964
-0.0582056
-0.058338
-0.0582986
-0.0584282
-0.0578595
-0.0563988
-0.053335
-0.0488935
-0.0527558
-0.055878
-0.0573616
-0.0580623
-0.0584054
-0.0585674
-0.0586535
-0.058688
-0.0587361
-0.0590681
-0.060245
-0.059344
-0.0589255
-0.0588616
-0.0589008
-0.0589096
-0.058959
-0.0592436
-0.059034
-0.057778
-0.0535937
0
0
-0.00151605
-0.00750345
-0.0137843
-0.0327545
-0.0283461
0
-0.0388355
-0.044711
-0.0498688
-0.0546496
-0.00606205
-0.0581336
-0.0602083
-0.0616868
-0.0611735
-0.0610383
-0.0610063
-0.0618793
-0.0616256
-0.061344
-0.0611159
-0.0609163
-0.0607159
-0.0605228
-0.06036
-0.0603381
-0.0610602
-0.0600447
-0.0609689
-0.060563
-0.0603005
-0.0602597
-0.0602948
-0.0602185
-0.0599832
-0.0593423
-0.0582225
-0.0567565
-0.0558123
-0.0566405
-0.0578625
-0.0587609
-0.0593355
-0.0597616
-0.0600397
-0.0602301
-0.0603792
-0.0605311
-0.0607622
-0.0610551
-0.0608781
-0.0607847
-0.0608175
-0.0608796
-0.0608612
-0.0609869
-0.0611254
-0.0607822
-0.0591911
-0.0545576
0
0
-0.0016575
-0.00809581
-0.0149768
-0.0224768
-0.0295097
-0.0352783
-0.0417202
-0.0477154
-0.0530179
-0.057358
-0.0593791
-0.061744
-0.0631283
-0.0646286
-0.0650225
-0.0645903
-0.0639901
-0.0900726
-0.064514
-0.0639651
-0.0636242
-0.0633119
-0.0629882
-0.0626905
-0.0623931
-0.0619491
-0.0602928
-0.0615491
-0.0621815
-0.0622509
-0.062227
-0.0622938
-0.0624601
-0.0624838
-0.0620019
-0.0613359
-0.0605131
-0.059767
-0.059459
-0.0596658
-0.0601203
-0.0605599
-0.0608161
-0.0613359
-0.0616573
-0.0618792
-0.0620787
-0.0622511
-0.0623831
-0.0624125
-0.0623641
-0.0625104
-0.0626929
-0.0628479
-0.0627112
-0.0628287
-0.0628211
-0.0622575
-0.060502
-0.0557054
0
0
-0.00179713
-0.00866138
-0.0159901
-0.0236324
-0.0310921
-0.0380118
-0.04467
-0.050847
-0.0562886
-0.060804
-0.0637001
-0.0654146
-0.0655502
-0.123931
-0.0684039
-0.0677343
-0.0674008
-0.0677316
-0.0672243
-0.0667002
-0.0662389
-0.0657911
-0.0652754
-0.0648794
-0.0645372
-0.0641389
-0.0636428
-0.0637656
-0.0639334
-0.0639869
-0.064038
-0.0642557
-0.0648089
-0.0654392
-0.0643276
-0.0635732
-0.0627793
-0.0622635
-0.0620605
-0.0621023
-0.0622952
-0.0625916
-0.0631568
-0.0631965
-0.0634282
-0.0635833
-0.063798
-0.0639782
-0.0640722
-0.0639483
-0.0638005
-0.0641428
-0.0644481
-0.0647614
-0.0644795
-0.064649
-0.0644439
-0.063563
-0.0618236
-0.0569722
0
0
-0.00193265
-0.0092081
-0.0169582
-0.0249728
-0.0329148
-0.0404787
-0.0475138
-0.0540233
-0.0596839
-0.0649456
-0.0678358
-0.069524
-0.0703306
-0.0718738
-0.0715129
-0.0709428
-0.0704213
-0.0702244
-0.069812
-0.0693214
-0.0688263
-0.0682917
-0.0674523
-0.067037
-0.0667514
-0.066447
-0.0661436
-0.0659195
-0.0658406
-0.065747
-0.0657077
-0.0659321
-0.0670168
-0.070967
-0.0664651
-0.0659729
-0.0647547
-0.0643311
-0.0642007
-0.0642076
-0.0642931
-0.064438
-0.0647067
-0.0649264
-0.0651365
-0.0653921
-0.0655626
-0.0657544
-0.0658767
-0.0655466
-0.0650402
-0.065722
-0.0660038
-0.0660599
-0.0668258
-0.0667069
-0.0660836
-0.064542
-0.0631656
-0.0583414
0
0
-0.0020691
-0.00975733
-0.0179448
-0.0264151
-0.0348622
-0.0429423
-0.0501996
-0.057281
-0.0633335
-0.0675797
-0.0713293
-0.0734224
-0.0743357
-0.0748079
-0.0745764
-0.0739954
-0.0729897
-0.0729377
-0.0724787
-0.0719417
-0.0714308
-0.0708948
-0.0693093
-0.0691687
-0.069021
-0.0687519
-0.0684275
-0.0679825
-0.0677012
-0.0674292
-0.0671028
-0.0667015
-0.0652983
-0.0579755
-0.0639856
-0.0642592
-0.0656053
-0.0659518
-0.0660536
-0.0661184
-0.0661516
-0.0661394
-0.0663547
-0.0666433
-0.0669054
-0.0671273
-0.0673182
-0.0675414
-0.0677847
-0.0672314
-0.0656731
-0.0677396
-0.0680166
-0.0681485
-0.0685346
-0.0685672
-0.0677579
-0.0648
-0.0646509
-0.0597992
0
0
-0.00220967
-0.0103189
-0.018964
-0.0279307
-0.036921
-0.0456094
-0.0540142
-0.0607578
-0.0668893
-0.0717865
-0.0753189
-0.0773337
-0.0781651
-0.0782725
-0.0779434
-0.0774702
-0.0775509
-0.0761658
-0.0752784
-0.0745793
-0.0740396
-0.0737105
-0.0426723
-0.0715014
-0.0714268
-0.0710262
-0.0706061
-0.0659195
-0.0695927
-0.0691719
-0.068452
-0.0680859
-0.0670039
-0.0653228
-0.0662409
-0.0667423
-0.0673141
-0.0676493
-0.0678462
-0.0679682
-0.0679553
-0.0676443
-0.0679652
-0.0683634
-0.0686647
-0.068879
-0.0690437
-0.0691854
-0.0693143
-0.0697097
-0.0275191
-0.0803432
-0.0700574
-0.0700874
-0.0703071
-0.0704694
-0.0698808
-0.0206698
-0.0666407
-0.061276
0
0
-0.00235355
-0.0108904
-0.0200091
-0.0294952
-0.0390337
-0.0482571
-0.0568162
-0.0637843
-0.0702625
-0.0755426
-0.0792166
-0.0812492
-0.0819762
-0.081892
-0.0814002
-0.0807505
-0.0799904
-0.0789053
-0.0779224
-0.0770838
-0.0763586
-0.0755726
-0.0742331
-0.0739182
-0.0736412
-0.0730553
-0.0724789
-0.0718842
-0.0715017
-0.0711737
-0.0711808
-0.0701863
-0.0694034
-0.0688344
-0.0688511
-0.0690214
-0.0692629
-0.0694864
-0.0696864
-0.0698614
-0.0698383
-0.0687933
-0.0695899
-0.0701463
-0.0704597
-0.0706526
-0.0707939
-0.0709065
-0.0709847
-0.0709312
-0.0699153
-0.071383
-0.0716884
-0.0718099
-0.0719011
-0.0718203
-0.0710632
-0.0687496
-0.0678147
-0.0626131
0
0
-0.00249529
-0.0114585
-0.0210661
-0.0311023
-0.0412166
-0.0510278
-0.0601652
-0.0663455
-0.0735905
-0.0793495
-0.0832282
-0.0852393
-0.0858326
-0.0855551
-0.0848902
-0.0840707
-0.0828603
-0.0815518
-0.0804305
-0.0794924
-0.0787335
-0.0780087
-0.0770124
-0.0764159
-0.075987
-0.0749668
-0.0742961
-0.0738033
-0.0734073
-0.0730448
-0.0726899
-0.0721332
-0.0716189
-0.071268
-0.0711249
-0.0711236
-0.0712112
-0.0713494
-0.0715314
-0.0717747
-0.0719375
-0.0456
-0.0714622
-0.0720244
-0.0722612
-0.0724246
-0.0725584
-0.0726669
-0.0727354
-0.0727229
-0.0726204
-0.0730431
-0.0733162
-0.0734628
-0.0735119
-0.0733745
-0.0727527
-0.0716367
-0.0695542
-0.0639994
0
0
-0.00262172
-0.0119931
-0.0221131
-0.0327545
-0.0434712
-0.0539366
-0.0641422
-0.0165288
-0.0773869
-0.0835783
-0.0874371
-0.0893169
-0.0896925
-0.0891883
-0.0883536
-0.0875776
-0.08574
-0.0840282
-0.0828033
-0.0818091
-0.0811402
-0.080285
-0.0793614
-0.078611
-0.0782179
-0.0766273
-0.0761456
-0.075757
-0.0753607
-0.0749458
-0.0745114
-0.074052
-0.0736374
-0.0733273
-0.0731401
-0.0730649
-0.0730788
-0.0731578
-0.0732787
-0.0733944
-0.0733286
-0.0726088
-0.0731799
-0.0736303
-0.0739277
-0.0741468
-0.0743216
-0.0744589
-0.0745568
-0.0746209
-0.0746979
-0.0748725
-0.0750457
-0.0751735
-0.0752373
-0.0752193
-0.0751373
-0.0738787
-0.0713606
-0.0654666
0
0
-0.00270455
-0.0124269
-0.0231383
-0.0344819
-0.0457427
-0.0565712
-0.0664764
-0.0739338
-0.0817069
-0.0877707
-0.0915454
-0.0932793
-0.0934718
-0.0927076
-0.0915068
-0.0914408
-0.0882744
-0.0862396
-0.0851227
-0.0840752
-0.0837654
-0.0826215
-0.0814717
-0.0802914
-0.0787808
-0.0791389
-0.0785554
-0.077944
-0.0773846
-0.0768679
-0.0763772
-0.0759175
-0.0755136
-0.0751937
-0.074979
-0.0748705
-0.0748531
-0.074905
-0.0749982
-0.075081
-0.0750624
-0.0749081
-0.0750628
-0.075331
-0.0756156
-0.0758795
-0.0761052
-0.0762818
-0.0764084
-0.0765035
-0.0765971
-0.0767074
-0.0768294
-0.0769407
-0.0770042
-0.0769827
-0.0767594
-0.0757459
-0.0730903
-0.0669868
0
0
-0.00270096
-0.012574
-0.0243736
-0.0362753
-0.0481313
-0.0594374
-0.0697378
-0.0786025
-0.0862973
-0.0921889
-0.0958379
-0.0973744
-0.0973381
-0.0965134
-0.0962673
-0.0956541
-0.0900726
-0.0889219
-0.0876897
-0.0864523
-0.102076
-0.0849482
-0.0835694
-0.0823633
-0.0810448
-0.0806382
-0.0801972
-0.0796903
-0.0791649
-0.0786449
-0.0781449
-0.0776779
-0.0772588
-0.0769076
-0.07667
-0.0765524
-0.0765351
-0.0765956
-0.0767135
-0.0768458
-0.0769041
-0.0768235
-0.0768488
-0.077041
-0.0773372
-0.077651
-0.077932
-0.0781461
-0.0782844
-0.0783774
-0.0784528
-0.0785316
-0.0786328
-0.0787442
-0.0787878
-0.078718
-0.0784759
-0.0775297
-0.0748
-0.0685365
0
0
-0.00266688
-0.0116417
-0.025725
-0.0385046
-0.0509241
-0.0627189
-0.0735282
-0.0830209
-0.0909036
-0.096755