# vtk DataFile Version 2.0
FlowField
ASCII
DATASET STRUCTURED_GRID
DIMENSIONS 62 47 32 
POINTS 93248 double
0 0 0
0.01 0 0
0.02 0 0
0.03 0 0
0.04 0 0
0.05 0 0
0.06 0 0
0.07 0 0
0.08 0 0
0.09 0 0
0.1 0 0
0.11 0 0
0.12 0 0
0.13 0 0
0.14 0 0
0.15 0 0
0.16 0 0
0.17 0 0
0.18 0 0
0.19 0 0
0.2 0 0
0.21 0 0
0.22 0 0
0.23 0 0
0.24 0 0
0.25 0 0
0.26 0 0
0.27 0 0
0.28 0 0
0.29 0 0
0.3 0 0
0.31 0 0
0.32 0 0
0.33 0 0
0.34 0 0
0.35 0 0
0.36 0 0
0.37 0 0
0.38 0 0
0.39 0 0
0.4 0 0
0.41 0 0
0.42 0 0
0.43 0 0
0.44 0 0
0.45 0 0
0.46 0 0
0.47 0 0
0.48 0 0
0.49 0 0
0.5 0 0
0.51 0 0
0.52 0 0
0.53 0 0
0.54 0 0
0.55 0 0
0.56 0 0
0.57 0 0
0.58 0 0
0.59 0 0
0.6 0 0
0.61 0 0
0 0.01 0
0.01 0.01 0
0.02 0.01 0
0.03 0.01 0
0.04 0.01 0
0.05 0.01 0
0.06 0.01 0
0.07 0.01 0
0.08 0.01 0
0.09 0.01 0
0.1 0.01 0
0.11 0.01 0
0.12 0.01 0
0.13 0.01 0
0.14 0.01 0
0.15 0.01 0
0.16 0.01 0
0.17 0.01 0
0.18 0.01 0
0.19 0.01 0
0.2 0.01 0
0.21 0.01 0
0.22 0.01 0
0.23 0.01 0
0.24 0.01 0
0.25 0.01 0
0.26 0.01 0
0.27 0.01 0
0.28 0.01 0
0.29 0.01 0
0.3 0.01 0
0.31 0.01 0
0.32 0.01 0
0.33 0.01 0
0.34 0.01 0
0.35 0.01 0
0.36 0.01 0
0.37 0.01 0
0.38 0.01 0
0.39 0.01 0
0.4 0.01 0
0.41 0.01 0
0.42 0.01 0
0.43 0.01 0
0.44 0.01 0
0.45 0.01 0
0.46 0.01 0
0.47 0.01 0
0.48 0.01 0
0.49 0.01 0
0.5 0.01 0
0.51 0.01 0
0.52 0.01 0
0.53 0.01 0
0.54 0.01 0
0.55 0.01 0
0.56 0.01 0
0.57 0.01 0
0.58 0.01 0
0.59 0.01 0
0.6 0.01 0
0.61 0.01 0
0 0.02 0
0.01 0.02 0
0.02 0.02 0
0.03 0.02 0
0.04 0.02 0
0.05 0.02 0
0.06 0.02 0
0.07 0.02 0
0.08 0.02 0
0.09 0.02 0
0.1 0.02 0
0.11 0.02 0
0.12 0.02 0
0.13 0.02 0
0.14 0.02 0
0.15 0.02 0
0.16 0.02 0
0.17 0.02 0
0.18 0.02 0
0.19 0.02 0
0.2 0.02 0
0.21 0.02 0
0.22 0.02 0
0.23 0.02 0
0.24 0.02 0
0.25 0.02 0
0.26 0.02 0
0.27 0.02 0
0.28 0.02 0
0.29 0.02 0
0.3 0.02 0
0.31 0.02 0
0.32 0.02 0
0.33 0.02 0
0.34 0.02 0
0.35 0.02 0
0.36 0.02 0
0.37 0.02 0
0.38 0.02 0
0.39 0.02 0
0.4 0.02 0
0.41 0.02 0
0.42 0.02 0
0.43 0.02 0
0.44 0.02 0
0.45 0.02 0
0.46 0.02 0
0.47 0.02 0
0.48 0.02 0
0.49 0.02 0
0.5 0.02 0
0.51 0.02 0
0.52 0.02 0
0.53 0.02 0
0.54 0.02 0
0.55 0.02 0
0.56 0.02 0
0.57 0.02 0
0.58 0.02 0
0.59 0.02 0
0.6 0.02 0
0.61 0.02 0
0 0.03 0
0.01 0.03 0
0.02 0.03 0
0.03 0.03 0
0.04 0.03 0
0.05 0.03 0
0.06 0.03 0
0.07 0.03 0
0.08 0.03 0
0.09 0.03 0
0.1 0.03 0
0.11 0.03 0
0.12 0.03 0
0.13 0.03 0
0.14 0.03 0
0.15 0.03 0
0.16 0.03 0
0.17 0.03 0
0.18 0.03 0
0.19 0.03 0
0.2 0.03 0
0.21 0.03 0
0.22 0.03 0
0.23 0.03 0
0.24 0.03 0
0.25 0.03 0
0.26 0.03 0
0.27 0.03 0
0.28 0.03 0
0.29 0.03 0
0.3 0.03 0
0.31 0.03 0
0.32 0.03 0
0.33 0.03 0
0.34 0.03 0
0.35 0.03 0
0.36 0.03 0
0.37 0.03 0
0.38 0.03 0
0.39 0.03 0
0.4 0.03 0
0.41 0.03 0
0.42 0.03 0
0.43 0.03 0
0.44 0.03 0
0.45 0.03 0
0.46 0.03 0
0.47 0.03 0
0.48 0.03 0
0.49 0.03 0
0.5 0.03 0
0.51 0.03 0
0.52 0.03 0
0.53 0.03 0
0.54 0.03 0
0.55 0.03 0
0.56 0.03 0
0.57 0.03 0
0.58 0.03 0
0.59 0.03 0
0.6 0.03 0
0.61 0.03 0
0 0.04 0
0.01 0.04 0
0.02 0.04 0
0.03 0.04 0
0.04 0.04 0
0.05 0.04 0
0.06 0.04 0
0.07 0.04 0
0.08 0.04 0
0.09 0.04 0
0.1 0.04 0
0.11 0.04 0
0.12 0.04 0
0.13 0.04 0
0.14 0.04 0
0.15 0.04 0
0.16 0.04 0
0.17 0.04 0
0.18 0.04 0
0.19 0.04 0
0.2 0.04 0
0.21 0.04 0
0.22 0.04 0
0.23 0.04 0
0.24 0.04 0
0.25 0.04 0
0.26 0.04 0
0.27 0.04 0
0.28 0.04 0
0.29 0.04 0
0.3 0.04 0
0.31 0.04 0
0.32 0.04 0
0.33 0.04 0
0.34 0.04 0
0.35 0.04 0
0.36 0.04 0
0.37 0.04 0
0.38 0.04 0
0.39 0.04 0
0.4 0.04 0
0.41 0.04 0
0.42 0.04 0
0.43 0.04 0
0.44 0.04 0
0.45 0.04 0
0.46 0.04 0
0.47 0.04 0
0.48 0.04 0
0.49 0.04 0
0.5 0.04 0
0.51 0.04 0
0.52 0.04 0
0.53 0.04 0
0.54 0.04 0
0.55 0.04 0
0.56 0.04 0
0.57 0.04 0
0.58 0.04 0
0.59 0.04 0
0.6 0.04 0
0.61 0.04 0
0 0.05 0
0.01 0.05 0
0.02 0.05 0
0.03 0.05 0
0.04 0.05 0
0.05 0.05 0
0.06 0.05 0
0.07 0.05 0
0.08 0.05 0
0.09 0.05 0
0.1 0.05 0
0.11 0.05 0
0.12 0.05 0
0.13 0.05 0
0.14 0.05 0
0.15 0.05 0
0.16 0.05 0
0.17 0.05 0
0.18 0.05 0
0.19 0.05 0
0.2 0.05 0
0.21 0.05 0
0.22 0.05 0
0.23 0.05 0
0.24 0.05 0
0.25 0.05 0
0.26 0.05 0
0.27 0.05 0
0.28 0.05 0
0.29 0.05 0
0.3 0.05 0
0.31 0.05 0
0.32 0.05 0
0.33 0.05 0
0.34 0.05 0
0.35 0.05 0
0.36 0.05 0
0.37 0.05 0
0.38 0.05 0
0.39 0.05 0
0.4 0.05 0
0.41 0.05 0
0.42 0.05 0
0.43 0.05 0
0.44 0.05 0
0.45 0.05 0
0.46 0.05 0
0.47 0.05 0
0.48 0.05 0
0.49 0.05 0
0.5 0.05 0
0.51 0.05 0
0.52 0.05 0
0.53 0.05 0
0.54 0.05 0
0.55 0.05 0
0.56 0.05 0
0.57 0.05 0
0.58 0.05 0
0.59 0.05 0
0.6 0.05 0
0.61 0.05 0
0 0.06 0
0.01 0.06 0
0.02 0.06 0
0.03 0.06 0
0.04 0.06 0
0.05 0.06 0
0.06 0.06 0
0.07 0.06 0
0.08 0.06 0
0.09 0.06 0
0.1 0.06 0
0.11 0.06 0
0.12 0.06 0
0.13 0.06 0
0.14 0.06 0
0.15 0.06 0
0.16 0.06 0
0.17 0.06 0
0.18 0.06 0
0.19 0.06 0
0.2 0.06 0
0.21 0.06 0
0.22 0.06 0
0.23 0.06 0
0.24 0.06 0
0.25 0.06 0
0.26 0.06 0
0.27 0.06 0
0.28 0.06 0
0.29 0.06 0
0.3 0.06 0
0.31 0.06 0
0.32 0.06 0
0.33 0.06 0
0.34 0.06 0
0.35 0.06 0
0.36 0.06 0
0.37 0.06 0
0.38 0.06 0
0.39 0.06 0
0.4 0.06 0
0.41 0.06 0
0.42 0.06 0
0.43 0.06 0
0.44 0.06 0
0.45 0.06 0
0.46 0.06 0
0.47 0.06 0
0.48 0.06 0
0.49 0.06 0
0.5 0.06 0
0.51 0.06 0
0.52 0.06 0
0.53 0.06 0
0.54 0.06 0
0.55 0.06 0
0.56 0.06 0
0.57 0.06 0
0.58 0.06 0
0.59 0.06 0
0.6 0.06 0
0.61 0.06 0
0 0.07 0
0.01 0.07 0
0.02 0.07 0
0.03 0.07 0
0.04 0.07 0
0.05 0.07 0
0.06 0.07 0
0.07 0.07 0
0.08 0.07 0
0.09 0.07 0
0.1 0.07 0
0.11 0.07 0
0.12 0.07 0
0.13 0.07 0
0.14 0.07 0
0.15 0.07 0
0.16 0.07 0
0.17 0.07 0
0.18 0.07 0
0.19 0.07 0
0.2 0.07 0
0.21 0.07 0
0.22 0.07 0
0.23 0.07 0
0.24 0.07 0
0.25 0.07 0
0.26 0.07 0
0.27 0.07 0
0.28 0.07 0
0.29 0.07 0
0.3 0.07 0
0.31 0.07 0
0.32 0.07 0
0.33 0.07 0
0.34 0.07 0
0.35 0.07 0
0.36 0.07 0
0.37 0.07 0
0.38 0.07 0
0.39 0.07 0
0.4 0.07 0
0.41 0.07 0
0.42 0.07 0
0.43 0.07 0
0.44 0.07 0
0.45 0.07 0
0.46 0.07 0
0.47 0.07 0
0.48 0.07 0
0.49 0.07 0
0.5 0.07 0
0.51 0.07 0
0.52 0.07 0
0.53 0.07 0
0.54 0.07 0
0.55 0.07 0
0.56 0.07 0
0.57 0.07 0
0.58 0.07 0
0.59 0.07 0
0.6 0.07 0
0.61 0.07 0
0 0.08 0
0.01 0.08 0
0.02 0.08 0
0.03 0.08 0
0.04 0.08 0
0.05 0.08 0
0.06 0.08 0
0.07 0.08 0
0.08 0.08 0
0.09 0.08 0
0.1 0.08 0
0.11 0.08 0
0.12 0.08 0
0.13 0.08 0
0.14 0.08 0
0.15 0.08 0
0.16 0.08 0
0.17 0.08 0
0.18 0.08 0
0.19 0.08 0
0.2 0.08 0
0.21 0.08 0
0.22 0.08 0
0.23 0.08 0
0.24 0.08 0
0.25 0.08 0
0.26 0.08 0
0.27 0.08 0
0.28 0.08 0
0.29 0.08 0
0.3 0.08 0
0.31 0.08 0
0.32 0.08 0
0.33 0.08 0
0.34 0.08 0
0.35 0.08 0
0.36 0.08 0
0.37 0.08 0
0.38 0.08 0
0.39 0.08 0
0.4 0.08 0
0.41 0.08 0
0.42 0.08 0
0.43 0.08 0
0.44 0.08 0
0.45 0.08 0
0.46 0.08 0
0.47 0.08 0
0.48 0.08 0
0.49 0.08 0
0.5 0.08 0
0.51 0.08 0
0.52 0.08 0
0.53 0.08 0
0.54 0.08 0
0.55 0.08 0
0.56 0.08 0
0.57 0.08 0
0.58 0.08 0
0.59 0.08 0
0.6 0.08 0
0.61 0.08 0
0 0.09 0
0.01 0.09 0
0.02 0.09 0
0.03 0.09 0
0.04 0.09 0
0.05 0.09 0
0.06 0.09 0
0.07 0.09 0
0.08 0.09 0
0.09 0.09 0
0.1 0.09 0
0.11 0.09 0
0.12 0.09 0
0.13 0.09 0
0.14 0.09 0
0.15 0.09 0
0.16 0.09 0
0.17 0.09 0
0.18 0.09 0
0.19 0.09 0
0.2 0.09 0
0.21 0.09 0
0.22 0.09 0
0.23 0.09 0
0.24 0.09 0
0.25 0.09 0
0.26 0.09 0
0.27 0.09 0
0.28 0.09 0
0.29 0.09 0
0.3 0.09 0
0.31 0.09 0
0.32 0.09 0
0.33 0.09 0
0.34 0.09 0
0.35 0.09 0
0.36 0.09 0
0.37 0.09 0
0.38 0.09 0
0.39 0.09 0
0.4 0.09 0
0.41 0.09 0
0.42 0.09 0
0.43 0.09 0
0.44 0.09 0
0.45 0.09 0
0.46 0.09 0
0.47 0.09 0
0.48 0.09 0
0.49 0.09 0
0.5 0.09 0
0.51 0.09 0
0.52 0.09 0
0.53 0.09 0
0.54 0.09 0
0.55 0.09 0
0.56 0.09 0
0.57 0.09 0
0.58 0.09 0
0.59 0.09 0
0.6 0.09 0
0.61 0.09 0
0 0.1 0
0.01 0.1 0
0.02 0.1 0
0.03 0.1 0
0.04 0.1 0
0.05 0.1 0
0.06 0.1 0
0.07 0.1 0
0.08 0.1 0
0.09 0.1 0
0.1 0.1 0
0.11 0.1 0
0.12 0.1 0
0.13 0.1 0
0.14 0.1 0
0.15 0.1 0
0.16 0.1 0
0.17 0.1 0
0.18 0.1 0
0.19 0.1 0
0.2 0.1 0
0.21 0.1 0
0.22 0.1 0
0.23 0.1 0
0.24 0.1 0
0.25 0.1 0
0.26 0.1 0
0.27 0.1 0
0.28 0.1 0
0.29 0.1 0
0.3 0.1 0
0.31 0.1 0
0.32 0.1 0
0.33 0.1 0
0.34 0.1 0
0.35 0.1 0
0.36 0.1 0
0.37 0.1 0
0.38 0.1 0
0.39 0.1 0
0.4 0.1 0
0.41 0.1 0
0.42 0.1 0
0.43 0.1 0
0.44 0.1 0
0.45 0.1 0
0.46 0.1 0
0.47 0.1 0
0.48 0.1 0
0.49 0.1 0
0.5 0.1 0
0.51 0.1 0
0.52 0.1 0
0.53 0.1 0
0.54 0.1 0
0.55 0.1 0
0.56 0.1 0
0.57 0.1 0
0.58 0.1 0
0.59 0.1 0
0.6 0.1 0
0.61 0.1 0
0 0.11 0
0.01 0.11 0
0.02 0.11 0
0.03 0.11 0
0.04 0.11 0
0.05 0.11 0
0.06 0.11 0
0.07 0.11 0
0.08 0.11 0
0.09 0.11 0
0.1 0.11 0
0.11 0.11 0
0.12 0.11 0
0.13 0.11 0
0.14 0.11 0
0.15 0.11 0
0.16 0.11 0
0.17 0.11 0
0.18 0.11 0
0.19 0.11 0
0.2 0.11 0
0.21 0.11 0
0.22 0.11 0
0.23 0.11 0
0.24 0.11 0
0.25 0.11 0
0.26 0.11 0
0.27 0.11 0
0.28 0.11 0
0.29 0.11 0
0.3 0.11 0
0.31 0.11 0
0.32 0.11 0
0.33 0.11 0
0.34 0.11 0
0.35 0.11 0
0.36 0.11 0
0.37 0.11 0
0.38 0.11 0
0.39 0.11 0
0.4 0.11 0
0.41 0.11 0
0.42 0.11 0
0.43 0.11 0
0.44 0.11 0
0.45 0.11 0
0.46 0.11 0
0.47 0.11 0
0.48 0.11 0
0.49 0.11 0
0.5 0.11 0
0.51 0.11 0
0.52 0.11 0
0.53 0.11 0
0.54 0.11 0
0.55 0.11 0
0.56 0.11 0
0.57 0.11 0
0.58 0.11 0
0.59 0.11 0
0.6 0.11 0
0.61 0.11 0
0 0.12 0
0.01 0.12 0
0.02 0.12 0
0.03 0.12 0
0.04 0.12 0
0.05 0.12 0
0.06 0.12 0
0.07 0.12 0
0.08 0.12 0
0.09 0.12 0
0.1 0.12 0
0.11 0.12 0
0.12 0.12 0
0.13 0.12 0
0.14 0.12 0
0.15 0.12 0
0.16 0.12 0
0.17 0.12 0
0.18 0.12 0
0.19 0.12 0
0.2 0.12 0
0.21 0.12 0
0.22 0.12 0
0.23 0.12 0
0.24 0.12 0
0.25 0.12 0
0.26 0.12 0
0.27 0.12 0
0.28 0.12 0
0.29 0.12 0
0.3 0.12 0
0.31 0.12 0
0.32 0.12 0
0.33 0.12 0
0.34 0.12 0
0.35 0.12 0
0.36 0.12 0
0.37 0.12 0
0.38 0.12 0
0.39 0.12 0
0.4 0.12 0
0.41 0.12 0
0.42 0.12 0
0.43 0.12 0
0.44 0.12 0
0.45 0.12 0
0.46 0.12 0
0.47 0.12 0
0.48 0.12 0
0.49 0.12 0
0.5 0.12 0
0.51 0.12 0
0.52 0.12 0
0.53 0.12 0
0.54 0.12 0
0.55 0.12 0
0.56 0.12 0
0.57 0.12 0
0.58 0.12 0
0.59 0.12 0
0.6 0.12 0
0.61 0.12 0
0 0.13 0
0.01 0.13 0
0.02 0.13 0
0.03 0.13 0
0.04 0.13 0
0.05 0.13 0
0.06 0.13 0
0.07 0.13 0
0.08 0.13 0
0.09 0.13 0
0.1 0.13 0
0.11 0.13 0
0.12 0.13 0
0.13 0.13 0
0.14 0.13 0
0.15 0.13 0
0.16 0.13 0
0.17 0.13 0
0.18 0.13 0
0.19 0.13 0
0.2 0.13 0
0.21 0.13 0
0.22 0.13 0
0.23 0.13 0
0.24 0.13 0
0.25 0.13 0
0.26 0.13 0
0.27 0.13 0
0.28 0.13 0
0.29 0.13 0
0.3 0.13 0
0.31 0.13 0
0.32 0.13 0
0.33 0.13 0
0.34 0.13 0
0.35 0.13 0
0.36 0.13 0
0.37 0.13 0
0.38 0.13 0
0.39 0.13 0
0.4 0.13 0
0.41 0.13 0
0.42 0.13 0
0.43 0.13 0
0.44 0.13 0
0.45 0.13 0
0.46 0.13 0
0.47 0.13 0
0.48 0.13 0
[...]
POINT_DATA 93248

SCALARS v double
LOOKUP_TABLE default
0
0
0
0
0
0
0
0
0
0
0
0
0
0
0
0
0
0
0
0
0
0
0
0
0
0
0
0
0
0
0
0
0
0
0
0
0
0
-0.133414
0
0
0
0
0
-0.140269
0
0
0
0
0
0
0
0
0
0
0
0
0
0
0
0
0
0
0.0438173
-0.0886816
0.0453839
0.0313615
0.0131663
0
-0.00984545
-0.0173569
-0.0219357
-0.0248496
-0.0281604
-0.0359034
-0.0346901
-0.035329
-0.0367687
-0.0374574
-0.0364803
-0.0362309
-0.0358978
-0.0475321
-0.0381206
-0.0290906
-0.0371027
-0.037656
-0.0373237
-0.0370856
-0.0369381
-0.0367837
-0.036525
-0.0361502
-0.0363405
-0.039662
-0.0363156
-0.0354468
-0.0360622
-0.0880853
-0.0342229
-0.0327877
-0.0317839
-0.0396066
-0.078753
-0.0392502
-0.0416356
-0.0505439
-0.0858069
-0.158621
-0.0392012
-0.0553565
-0.0364346
-0.0365538
-0.0344096
-0.0408367
-0.0513926
-0.0798253
-0.0487897
-0.116582
-0.0367542
-0.0302817
-0.0266799
-0.0224141
0
0
0.025702
0.0489427
0.0564844
0.0523174
0.0329207
0.0287499
0.0177315
0.00578289
-0.00554593
-0.0147786
-0.0236483
-0.153592
-0.0409606
-0.0448408
-0.0520008
-0.0516343
-0.0501134
-0.052771
-0.0563983
-0.228211
-0.056893
-0.0684395
-0.0575708
-0.0544791
-0.0534024
-0.0529074
-0.0525931
-0.0522827
-0.0518303
-0.0511318
-0.050877
-0.131556
-0.0502465
-0.050685
-0.0524968
-0.0523163
-0.0492086
-0.0477889
-0.0505676
-0.0542123
-0.0574943
-0.0577643
-0.0611922
-0.0666479
-0.0741565
-0.0693356
-0.0589029
-0.0553565
-0.0537697
-0.0555312
-0.0636845
-0.0601396
-0.0645263
-0.0706263
-0.0610725
-0.054781
-0.132356
-0.0382337
-0.0342153
-0.0315004
0
0
0.01354
0.0338316
0.0424816
0.052237
0.0575888
0.0436549
0.03207
0.0202562
0.00828954
-0.0041783
-0.0160005
-0.0305418
-0.0383133
-0.0455641
-0.0529308
-0.0565814
0
-0.0604456
-0.0645425
-0.0701412
-0.0683149
-0.0687229
-0.0662286
-0.0642978
-0.0631753
-0.0625151
-0.0620746
-0.0617079
-0.0613493
-0.0611375
-0.0618474
-0.0652281
-0.068099
-0.0650028
-0.060603
-0.0597259
-0.0589814
-0.0591782
-0.0613738
-0.0633181
-0.0658221
-0.0683776
-0.0693747
-0.0723672
-0.0736528
-0.0683514
-0.0664424
-0.064858
-0.0647269
-0.065319
-0.0670039
-0.0669685
-0.0671223
-0.0660664
-0.0625641
-0.0576032
-0.052461
-0.0436893
-0.0400032
-0.0397671
0
0
0.00842538
0.0240339
0.0386904
0.0415225
0.0432279
0.0381299
0.0303528
0.0208942
0.0103287
-0.00104842
-0.0126621
-0.0241226
-0.0335171
-0.0422468
-0.0536992
-0.0538386
-0.0559749
-0.0610663
-0.0658765
-0.0681276
-0.0696759
-0.0701226
-0.0698373
-0.0692655
-0.0687138
-0.0682307
-0.0678511
-0.0675509
-0.0673232
-0.0672774
-0.0677155
-0.0690599
-0.0716342
-0.0702391
-0.0675582
-0.0661827
-0.0659518
-0.0667985
-0.0678476
-0.0691082
-0.070633
-0.072292
-0.0734838
-0.0744876
-0.0735266
-0.0679873
-0.0700299
-0.0701907
-0.0699482
-0.0696612
-0.0692709
-0.0685474
-0.0669383
-0.0643736
-0.061199
-0.0567237
-0.0512474
-0.0454205
-0.0427586
-0.0466992
0
0
0.00564002
0.0158567
0.0243686
0.0282523
0.0292797
0.0268641
0.0209871
0.0133274
0.00450707
-0.00516766
-0.0150862
-0.024381
-0.0319575
-0.0375152
-0.0358557
-0.0476449
-0.0541415
-0.0594377
-0.0629908
-0.0661576
-0.0687744
-0.0704175
-0.0713331
-0.0717627
-0.0718975
-0.0717762
-0.0716404
-0.0715164
-0.0713805
-0.0712201
-0.0710585
-0.0714546
-0.076206
-0.0737325
-0.0717341
-0.0708319
-0.0708234
-0.0713838
-0.0721107
-0.0729247
-0.0737795
-0.0746289
-0.0754063
-0.0758446
-0.0752289
0
-0.0724548
-0.0729047
-0.0724065
-0.0716034
-0.0704797
-0.0689658
-0.0667579
-0.0639468
-0.0607002
-0.0568609
-0.0526997
-0.0486949
-0.0451157
-0.0513905
-0.151572
0
0.00390036
0.0103583
0.0153378
0.0177688
0.0178428
0.0160474
0.0099819
0
-0.00411587
-0.0124462
-0.0209733
-0.0288654
-0.0342425
-0.0383092
-0.0418886
-0.0486814
-0.0534207
-0.0554562
-0.0603613
-0.064441
-0.0679365
-0.0704488
-0.0721645
-0.0733261
-0.0740893
-0.0743084
-0.0745298
-0.0746676
-0.0746323
-0.0743312
-0.0736433
-0.0729466
-0.166519
-0.0760986
-0.0746276
-0.0743758
-0.0745753
-0.0749928
-0.0754562
-0.075906
-0.0762968
-0.076575
-0.076783
-0.0764731
-0.0752361
-0.0724677
-0.0735482
-0.0739794
-0.0736204
-0.0727297
-0.0714128
-0.0696653
-0.0674268
-0.06487
-0.0621104
-0.0594233
-0.0578362
-0.0599835
-0.0674403
-0.0522443
0
0
0.00274367
0.0066262
0.0092866
0.0100814
0.00873558
0.0047285
0.00146742
-0.00479349
-0.0121001
-0.0199153
-0.0279688
-0.0359528
-0.0386842
-0.0418214
-0.0456967
-0.0518711
-0.0573326
-0.056836
-0.0604536
-0.064516
-0.0684549
-0.0712195
-0.0732531
-0.0748415
-0.076095
-0.0765512
-0.077245
-0.0776865
-0.0777948
-0.0775219
-0.0770841
-0.0774696
-0.0802065
-0.0790844
-0.0782255
-0.0779521
-0.0780596
-0.0783004
-0.078526
-0.0786828
-0.078753
-0.0787144
-0.0783196
-0.0777617
-0.0768608
-0.0759237
-0.0756385
-0.0754031
-0.0748526
-0.0739249
-0.0726523
-0.0710532
-0.0690595
-0.0670126
-0.0649038
-0.0627579
-0.0606138
-0.118926
-0.0282784
-0.049261
0
0
0.00195259
0.00401919
0.00504044
0.00454524
0.00229836
-0.00170472
-0.00631855
-0.0123645
-0.0192777
-0.0265763
-0.0345517
-0.0466342
-0.0319575
-0.0456611
-0.0479281
-0.0475809
-0.0473976
-0.0575809
-0.0627677
-0.0664898
-0.0708432
-0.073083
-0.0749899
-0.0766691
-0.0765512
-0.0794736
-0.08039
-0.0809981
-0.0812146
-0.0808887
-0.0802539
-0.080423
-0.0811659
-0.0813536
-0.0813104
-0.0812905
-0.0814328
-0.0815638
-0.081589
-0.0815018
-0.0813038
-0.0809719
-0.0804554
-0.079831
-0.079153
-0.0785487
-0.0779635
-0.0773317
-0.0765438
-0.0755635
-0.0744101
-0.0732101
-0.0714311
-0.0699087
-0.0683257
-0.0665886
-0.0644356
-0.0609238
-0.051956
-0.0505505
0
0
0.00140319
0.00215073
0.00196063
0.000468524
-0.00247464
-0.00679579
-0.0121313
-0.0183682
-0.0250409
-0.0314127
-0.0358233
-0.0304611
-0.0432652
-0.0492035
-0.0520008
-0.0537399
-0.0569225
-0.0619216
-0.0660765
-0.0692545
-0.102326
-0.0756565
-0.0774073
-0.0792256
-0.0811401
-0.0823158
-0.083603
-0.084589
-0.0850043
-0.0844636
-0.082767
-0.082791
-0.0834407
-0.0840067
-0.08436
-0.0845273
-0.0847659
-0.0848531
-0.0847175
-0.0844332
-0.0840418
-0.0835449
-0.0829572
-0.0823312
-0.0817107
-0.0811011
-0.0804149
-0.0796066
-0.0786672
-0.0776497
-0.0764989
-0.0750713
-0.0741517
-0.0731461
-0.0718424
-0.0702105
-0.0679564
-0.0645109
-0.0593754
-0.0530105
0
0
0.00101763
0.000780296
-0.000334546
-0.00264009
-0.00619268
-0.0109614
-0.016734
-0.0232014
-0.029852
-0.035961
-0.0406245
-0.0438302
-0.0498411
-0.0546968
-0.0571625
-0.0602834
-0.0639244
-0.0676247
-0.0710459
-0.0740939
-0.0773522
-0.0791586
-0.0807455
-0.0822149
-0.0829821
-0.0854356
-0.087321
-0.0887379
-0.0894293
-0.089222
-0.0835912
-0.0850326
-0.0863651
-0.0871795
-0.0877049
-0.0880853
-0.0879996
-0.0881712
-0.0879012
-0.0874635
-0.0869455
-0.0863584
-0.0857075
-0.0850695
-0.0844444
-0.0837935
-0.0830484
-0.0821487
-0.0811173
-0.0801506
-0.079098
-0.0779912
-0.0776383
-0.0765865
-0.0752859
-0.073627
-0.0712765
-0.0677744
-0.06276
-0.0557433
0
0
0.000743503
-0.000250704
-0.00208578
-0.00585766
-0.00919563
-0.0144293
-0.020605
-0.0273773
-0.0342766
-0.0407467
-0.0465058
-0.0518893
-0.0571525
-0.0616554
-0.062329
-0.0666366
-0.0705201
-0.0738255
-0.0768985
-0.0795068
-0.0815488
-0.0831761
-0.0845979
-0.0859845
-0.0874919
-0.0895225
-0.0917194
-0.0934926
-0.0940501
-0.093713
0
-0.0887525
-0.0900753
-0.0907175
-0.0912016
-0.0915838
-0.0918157
-0.0914937
-0.0911213
-0.0905531
-0.0899628
-0.0893847
-0.088622
-0.0879628
-0.0873327
-0.0866657
-0.0858975
-0.0849388
-0.0838157
-0.0830844
-0.0823332
-0.0815135
-0.0807905
-0.0798253
-0.0785879
-0.0769135
-0.0744678
-0.0707944
-0.0655628
-0.0584251
0
0
0.000543303
-0.00106055
-0.00351048
-0.00699407
-0.0116947
-0.0174321
-0.0240361
-0.0312132
-0.0385536
-0.0455507
-0.0521916
-0.0583361
-0.0639658
-0.0691837
0
-0.0734848
-0.0772504
-0.0801558
-0.0832383
-0.0853246
-0.0866884
-0.0877961
-0.0888998
-0.0901632
-0.0917808
-0.0939461
-0.096688
-0.0989117
-0.0986033
-0.0957163
-0.0915363
-0.0921207
-0.0931779
-0.0940287
-0.0946577
-0.0951072
-0.0953521
-0.0952185
-0.094549
-0.0936782
-0.0929976
-0.0928861
-0.0916106
-0.090949
-0.0903495
-0.089706
-0.0889648
-0.0879741
-0.0866272
-0.0863487
-0.0858593
-0.0850536
-0.0841065
-0.0830801
-0.0818619
-0.0801719
-0.0776365
-0.0737909
-0.0683381
-0.0609895
0
0
0.000391582
-0.00172253
-0.00468523
-0.00847594
-0.0138863
-0.0201261
-0.0271923
-0.0348495
-0.0427427
-0.046743
-0.0575524
-0.0640987
-0.0697431
-0.0741088
-0.0760938
-0.0799785
-0.0832549
-0.086055
-0.0900997
-0.0915388
-0.0921189
-0.0926651
-0.0933972
-0.09442
-0.0959105
-0.0982139
-0.101798
-0.105265
-0.106676
-0.100047
-0.096712
-0.0962543
-0.0968218
-0.0975391
-0.0981859
-0.098728
-0.0989958
-0.0991087
-0.0979972
-0.0966219
-0.0953247
-0.0930537
-0.0940151
-0.0939028
-0.0934428
-0.0928672
-0.0922171
-0.0912783
-0.0893468
-0.0899468
-0.0895783
-0.0886143
-0.0874862
-0.0864345
-0.0852385
-0.0835236
-0.0808617
-0.076854
-0.0711033
-0.0634138
0
0
0.00026813
-0.00230722
-0.00585766
-0.0107168
-0.0160619
-0.0226462
-0.0301667
-0.0383284
-0.046743
-0.0549342
-0.0626608
-0.0695367
-0.0753648
-0.0800014
-0.0836199
-0.0868621
-0.0894566
-0.0916864
-0.098236
-0.097826
-0.0974296
-0.0974984
-0.0978815
-0.098531
-0.0995698
-0.101399
-0.105074
-0.0713805
-0.131564
-0.104326
-0.0995457
-0.099492
-0.100174
-0.100899
-0.101643
-0.10254
-0.103816
-0.103589
-0.101569
-0.0996271
-0.0983031
-0.0974571
-0.0973062
-0.0970628
-0.096602
-0.0960675
-0.0955309
-0.0948731
-0.0699482
-0.094048
-0.0934655
-0.09221
-0.090654
-0.0899182
-0.088812
-0.0871328
-0.0845514
-0.0801334
-0.0738765
-0.0656496
0
0
0.000169299
-0.00277311
-0.00674925
-0.0118329
-0.0178788
-0.024979
-0.0330024
-0.0417103
-0.0507047
-0.059502
-0.0676457
-0.0748769
-0.0810624
-0.086183
-0.0903603
-0.0936071
-0.0957859
-0.096864
-0.206689
-0.103226
-0.102404
-0.102326
-0.102366
-0.102443
-0.102482
-0.10213
-0.0996988
-0.0876288
-0.0349641
-0.081298
-0.0953354
-0.100244
-0.102344
-0.10357
-0.10465
-0.105993
-0.107704
-0.108631
-0.10561
-0.103011
-0.10166
-0.101115
-0.100797
-0.100389
-0.099786
-0.099193
-0.0985439
-0.0978291
-0.0971044
-0.0980344
-0.0972777
-0.0961991
-0.0961115
-0.0939713
-0.0925964
-0.0909975
-0.0882835
-0.083728
-0.0767639
-0.0676102
0
0
6.05973e-05
-0.00312799
-0.00753577
-0.0130429
-0.0196069
-0.0271793
-0.0357162
-0.0450223
-0.0546425
-0.0640135
-0.0725364
-0.0801551
-0.0867915
-0.0924153
-0.0969961
-0.100498
-0.103101
-0.105562
-0.109477
-0.109086
-0.10832
-0.10768
-0.10709
-0.106409
-0.105355
-0.103251
-0.0986841
-0.0905334
-0.0819858
-0.090476
-0.0974976
-0.101701
-0.104152
-0.105741
-0.107124
-0.108885
-0.111605
-0.114861
-0.112374
-0.107322
-0.105171
-0.104484
-0.1041
-0.1036
-0.102829
-0.102253
-0.101587
-0.101024
-0.101294
-0.102838
-0.101224
-0.0997884
-0.0989023
-0.097799
-0.0959021
-0.0953925
-0.0928162
-0.0881825
-0.0802292
-0.0691614
0
0
-0.000121069
0.00215073
-0.00830501
-0.0143188
-0.0213326
-0.0291528
-0.0383147
-0.0483312
-0.0586397
-0.0685919
-0.0773035
-0.0853323
-0.0925077
-0.0987167
-0.103746
-0.1075
-0.110279
-0.112604
-0.114162
-0.114346
-0.113789
-0.112926
-0.111897
-0.110661
-0.109013
-0.106539
-0.102752
-0.099598
-0.100087
-0.101585
-0.103551
-0.105426
-0.106948
-0.108114
-0.109188
-0.110595
-0.113325
-0.119929
-0.134774
-0.111508
-0.107304
-0.106843
-0.106709
-0.106376
-0.102829
-0.105226
-0.104639
-0.104184
-0.104762
-0.108361
-0.104928
-0.103336
-0.102823
-0.103107
-0.105767
-0.101701
-0.098705
-0.0944666
-0.0859417
-0.0701274
0
0
-6.12183e-05
-0.00392709
-0.00909284
-0.0156228
-0.0232379
-0.0316803
-0.0412943
-0.0518757
-0.0628471
-0.0733936
-0.0817632
-0.0903616
-0.0982275
-0.105199
-0.110717
-0.114532
-0.117156
-0.119276
-0.120115
-0.11996
-0.119203
-0.11811
-0.116794
-0.115293
-0.113583
-0.111633
-0.109447
-0.106809
-0.110447
-0.109523
-0.10936
-0.109829
-0.110416
-0.110737
-0.110789
-0.110212
-0.107565
-0.0957392
-0.0438078
-0.0895524
-0.102514
-0.106763
-0.108127
-0.108438
-0.108272
-0.108037
-0.10768
-0.107291
-0.107553
-0.170479
-0.107958
-0.107016
-0.107097
-0.107494
-0.107778
-0.106749
-0.10589
-0.103371
-0.0998446
-0.0949136
0
0
-7.50376e-05
-0.00432643
-0.00984243
-0.0171284
-0.0252989
-0.0330555
-0.0436942
-0.0552716
-0.0671787
-0.0785855
-0.0854417
-0.0953669
-0.104043
-0.1121
-0.118037
-0.121537
-0.123754
-0.126162
-0.126459
-0.125781
-0.124683
-0.123338
-0.121809
-0.120202
-0.118645
-0.117272
-0.115527
-0.112911
-0.191152
-0.115078
-0.114199
-0.114231
-0.114242
-0.113703
-0.112473
-0.110241
-0.105787
-0.0977102
-0.0889389
-0.0965163
-0.103721
-0.107485
-0.109415
-0.110362
-0.11078
-0.110903
-0.110971
-0.111175
-0.111945
-0.113714
-0.112141
-0.11145
-0.111548
-0.111887
-0.112048
-0.11203
-0.111438
-0.109397
-0.105029
-0.0958382
0
0
-0.000120816
-0.00469121
-0.0104262
-0.0289705
-0.0276183
0
-0.0463454
-0.0588523
-0.0716234
-0.0843257
-0.0209733
-0.100983
-0.109981
-0.119859
-0.125687
-0.128212
-0.12983
-0.133553
-0.132752
-0.131516
-0.130152
-0.128617
-0.126886
-0.125172
-0.123721
-0.123005
-0.124078
-0.120328
-0.121241
-0.120075
-0.11928
-0.118949
-0.118549
-0.117163
-0.115167
-0.112559
-0.109216
-0.105892
-0.105134
-0.106394
-0.108562
-0.110376
-0.111761
-0.11283
-0.113543
-0.113917
-0.11432
-0.11479
-0.115286
-0.115526
-0.115308
-0.115383
-0.115854
-0.116369
-0.116582
-0.116554
-0.115549
-0.112845
-0.107597
-0.09756
0
0
-0.000186905
-0.00511343
-0.01137
-0.0193862
-0.0283066
-0.0373845
-0.0491324
-0.0620671
-0.075353
-0.0875527
-0.0964016
-0.106419
-0.115125
-0.130008
-0.132093
-0.133939
-0.135161
-0.197063
-0.138451
-0.137069
-0.135682
-0.134002
-0.131954
-0.129978
-0.128096
-0.125605
-0.117399
-0.122591
-0.123938
-0.123863
-0.123606
-0.123549
-0.123361
-0.121362
-0.118934
-0.116582
-0.114457
-0.113123
-0.113092
-0.113383
-0.113861
-0.114353
-0.114703
-0.115943
-0.116747
-0.117103
-0.117683
-0.118216
-0.118505
-0.118369
-0.118249
-0.1189
-0.1199
-0.12069
-0.120756
-0.120455
-0.118792
-0.115322
-0.109881
-0.0996873
0
0
-0.000252353
-0.00551172
-0.0121345
-0.0202185
-0.0295206
-0.0399301
-0.0519636
-0.0654726
-0.0795517
-0.0926639
-0.102982
-0.112773
-0.121455
-0.262298
-0.137778
-0.140101
-0.14258
-0.145067
-0.144538
-0.143245
-0.141615
-0.139634
-0.136965
-0.134722
-0.132675
-0.130367
-0.127955
-0.127889
-0.127759
-0.127549
-0.127511
-0.127941
-0.128802
-0.127039
-0.123602
-0.121458
-0.11972
-0.118869
-0.118653
-0.118625
-0.118657
-0.118928
-0.120574
-0.119882
-0.120337
-0.120463
-0.121176
-0.121706
-0.121892
-0.121436
-0.120912
-0.122259
-0.123774
-0.124797
-0.124661
-0.124136
-0.121709
-0.117313
-0.112228
-0.102057
0
0
-0.000317474
-0.00590311
-0.0128795
-0.0212904
-0.0310576
-0.0420646
-0.0543729
-0.0688406
-0.0840583
-0.10026
-0.108966
-0.119589
-0.129905
-0.140336
-0.144749
-0.147683
-0.14992
-0.150909
-0.150543
-0.149324
-0.147627
-0.145445
-0.141681
-0.139501
-0.13772
-0.135908
-0.13435
-0.133048
-0.131958
-0.131265
-0.130959
-0.131398
-0.133801
-0.139336
-0.128127
-0.127043
-0.124151
-0.123349
-0.123084
-0.122938
-0.122778
-0.122621
-0.122916
-0.123078
-0.123273
-0.124516
-0.124937
-0.125327
-0.125468
-0.124475
-0.122464
-0.126175
-0.127579
-0.128079
-0.129163
-0.128025
-0.124653
-0.118652
-0.114738
-0.104598
0
0
-0.000390417
-0.00632061
-0.0136954
-0.0225657
-0.0328715
-0.0442432
-0.055658
-0.0717901
-0.0856763
-0.0929224
-0.111805
-0.125579
-0.136612
-0.145198
-0.150938
-0.154642
-0.157168
-0.157417
-0.156762
-0.155415
-0.153702
-0.151535
-0.145657
-0.144453
-0.143038
-0.141286
-0.139492
-0.137294
-0.13612
-0.134709
-0.133376
-0.131556
-0.125809
-0.098349
-0.119008
-0.119644
-0.124938
-0.126286
-0.126578
-0.126592
-0.126329
-0.125672
-0.125845
-0.126396
-0.127001
-0.127744
-0.128303
-0.128819
-0.12921
-0.128073
-0.123563
-0.130199
-0.131548
-0.132137
-0.132553
-0.13173
-0.127978
-0.118926
-0.117753
-0.107244
0
0
-0.000475922
-0.00677911
-0.0146097
-0.0240655
-0.0352208
-0.048288
-0.0654529
-0.0767286
-0.0900467
-0.103491
-0.118569
-0.132028
-0.1431
-0.151537
-0.157535
-0.161333
-0.16255
-0.163577
-0.162892
-0.161429
-0.159698
-0.157939
-0.0792256
-0.150081
-0.148499
-0.146334
-0.144222
-0.133048
-0.139929
-0.137859
-0.135114
-0.132921
-0.128074
-0.122376
-0.124523
-0.126078
-0.12797
-0.129085
-0.129658
-0.129907
-0.129616
-0.128196
-0.128828
-0.129756
-0.13048
-0.131036
-0.131518
-0.131993
-0.132459
-0.132726
-0.0408367
-0.152365
-0.135178
-0.135606
-0.13588
-0.135413
-0.132356
-0.0266799
-0.121803
-0.109896
0
0
-0.000570732
-0.00726544
-0.0155852
-0.0256619
-0.0375786
-0.0513609
-0.0665685
-0.0801122
-0.0950851
-0.110635
-0.125671
-0.139036
-0.150072
-0.158559
-0.16465
-0.16844
-0.17001
-0.170115
-0.169048
-0.167239
-0.16499
-0.162056
-0.157585
-0.155265
-0.153129
-0.150649
-0.148225
-0.145818
-0.143865
-0.142144
-0.142234
-0.137398
-0.133952
-0.132075
-0.131452
-0.131574
-0.132006
-0.132481
-0.132917
-0.133267
-0.133021
-0.130052
-0.13196
-0.133196
-0.133843
-0.134238
-0.134566
-0.134873
-0.135057
-0.134711
-0.13318
-0.13654
-0.1379
-0.138574
-0.138718
-0.13789
-0.134911
-0.128422
-0.123732
-0.112455
0
0
-0.000663522
-0.00774591
-0.0165711
-0.0272931
-0.0399266
-0.054384
-0.0700984
-0.083054
-0.100097
-0.117027
-0.132654
-0.146247
-0.157393
-0.165939
-0.172101
-0.175799
-0.176989
-0.176598
-0.17512
-0.172939
-0.17043
-0.16719
-0.163622
-0.160783
-0.157899
-0.15478
-0.152158
-0.149846
-0.147765
-0.145872
-0.144003
-0.141416
-0.139177
-0.137722
-0.136739
-0.136208
-0.136004
-0.136038
-0.136251
-0.136609
-0.136729
-0.0835449
-0.135637
-0.136663
-0.137038
-0.137253
-0.137435
-0.13762
-0.137785
-0.137958
-0.138457
-0.139604
-0.140727
-0.141465
-0.141635
-0.140932
-0.138724
-0.134278
-0.127159
-0.115096
0
0
-0.000731298
-0.00816194
-0.0175197
-0.0289705
-0.0423595
-0.057674
-0.0748745
-0.0219357
-0.105833
-0.123709
-0.139719
-0.153592
-0.164903
-0.173492
-0.179715
-0.183341
-0.183827
-0.183009
-0.181147
-0.178639
-0.17618
-0.172685
-0.168988
-0.165499
-0.162199
-0.158601
-0.156014
-0.153668
-0.151465
-0.149358
-0.147243
-0.1452
-0.143408
-0.141971
-0.140857
-0.140076
-0.139601
-0.139381
-0.139334
-0.139297
-0.138885
-0.137562
-0.138632
-0.13946
-0.139877
-0.140041
-0.140152
-0.140311
-0.14058
-0.141117
-0.141992
-0.142937
-0.143901
-0.144641
-0.144908
-0.144479
-0.143018
-0.138462
-0.130669
-0.117873
0
0
-0.000727689
-0.00839989
-0.0184186
-0.0307697
-0.0448521
-0.060623
-0.0774409
-0.0933134
-0.111921
-0.13011
-0.146684
-0.160997
-0.172576
-0.181145
-0.187149
-0.191074
-0.190468
-0.189437
-0.187268
-0.184356
-0.182276
-0.17794
-0.173691
-0.169601
-0.165251
-0.162751
-0.159949
-0.157375
-0.155002
-0.152779
-0.150676
-0.148749
-0.147025
-0.145505
-0.144266
-0.143359
-0.142765
-0.142419
-0.142231
-0.142065
-0.141831
-0.141696
-0.142028
-0.142481
-0.142727
-0.142726
-0.142742
-0.14288
-0.143189
-0.143908
-0.144989
-0.146144
-0.147225
-0.148061
-0.148378
-0.147952
-0.146259
-0.141993
-0.133999
-0.120754
0
0
-0.000582589
-0.00818384
-0.0196942
-0.0326991
-0.0475804
-0.0640412
-0.0816269
-0.099849
-0.118759
-0.137214
-0.154156
-0.168804
-0.18067
-0.189673
-0.197055
-0.199129
-0.197063
-0.196208
-0.193946
-0.19021
-0.215345
-0.182664
-0.177954
-0.173675
-0.168995
-0.165848
-0.163168
-0.160655
-0.158264
-0.156009
-0.153912
-0.151988
-0.150204
-0.148515
-0.147143
-0.146175
-0.145552
-0.145182
-0.144988
-0.14487
-0.144818
-0.144898
-0.145218
-0.145592
-0.145647
-0.145332
-0.145206
-0.145288
-0.145511
-0.14639
-0.147788
-0.149265
-0.150586
-0.151587
-0.151873
-0.151327
-0.149584
-0.145358
-0.137305
-0.123697
0
0
-0.00038819
-0.00637027
-0.0212173
-0.0354465
-0.0510951
-0.068314
-0.0868657
-0.106269
-0.125894
-0.144832
-0.162139
-0.177033
-0.189004
-0.197773
-0.202768
-0.203154
-0.206826
-0.20476
-0.200966
-0.196363
-0.192136
-0.186996
-0.18211
-0.177636
-0.171731
-0.168862
-0.166265
-0.163728
-0.161274
-0.158971
-0.15685
-0.154895
-0.153001
-0.151018
-0.149525
-0.148581
-0.148011
-0.147679
-0.147553
-0.147523
-0.147589
-0.147686
-0.148191
-0.148713
-0.148593
-0.147775
-0.147548
-0.147589
-0.147534
-0.14864
-0.150512
-0.152365
-0.15394
-0.155157
-0.155324
-0.154638
-0.152885
-0.148545
-0.140655
-0.126702
0
0
-0.00256852
-0.0168004
-0.025696
-0.0392015
-0.0553036
-0.0732957
-0.0928149
-0.113125
-0.133492
-0.152985
-0.17065
-0.18569
-0.197619
-0.206165
-0.210857
-0.212924
-0.213297
-0.210904
-0.206689
-0.201567
-0.196142
-0.190652
-0.185558