# vtk DataFile Version 2.0
FlowField
ASCII
DATASET STRUCTURED_GRID
DIMENSIONS 102 11 11 
POINTS 12342 double
0 0 0
0 0 0.2
0 0 0.4
0 0 0.6
0 0 0.8
0 0 1
0 0 1.2
0 0 1.4
0 0 1.6
0 0 1.8
0 0 2
0 0.1 0
0 0.1 0.2
0 0.1 0.4
0 0.1 0.6
0 0.1 0.8
0 0.1 1
0 0.1 1.2
0 0.1 1.4
0 0.1 1.6
0 0.1 1.8
0 0.1 2
0 0.2 0
0 0.2 0.2
0 0.2 0.4
0 0.2 0.6
0 0.2 0.8
0 0.2 1
0 0.2 1.2
0 0.2 1.4
0 0.2 1.6
0 0.2 1.8
0 0.2 2
0 0.3 0
0 0.3 0.2
0 0.3 0.4
0 0.3 0.6
0 0.3 0.8
0 0.3 1
0 0.3 1.2
0 0.3 1.4
0 0.3 1.6
0 0.3 1.8
0 0.3 2
0 0.4 0
0 0.4 0.2
0 0.4 0.4
0 0.4 0.6
0 0.4 0.8
0 0.4 1
0 0.4 1.2
0 0.4 1.4
0 0.4 1.6
0 0.4 1.8
0 0.4 2
0 0.5 0
0 0.5 0.2
0 0.5 0.4
0 0.5 0.6
0 0.5 0.8
0 0.5 1
0 0.5 1.2
0 0.5 1.4
0 0.5 1.6
0 0.5 1.8
0 0.5 2
0 0.6 0
0 0.6 0.2
0 0.6 0.4
0 0.6 0.6
0 0.6 0.8
0 0.6 1
0 0.6 1.2
0 0.6 1.4
0 0.6 1.6
0 0.6 1.8
0 0.6 2
0 0.7 0
0 0.7 0.2
0 0.7 0.4
0 0.7 0.6
0 0.7 0.8
0 0.7 1
0 0.7 1.2
0 0.7 1.4
0 0.7 1.6
0 0.7 1.8
0 0.7 2
0 0.8 0
0 0.8 0.2
0 0.8 0.4
0 0.8 0.6
0 0.8 0.8
0 0.8 1
0 0.8 1.2
0 0.8 1.4
0 0.8 1.6
0 0.8 1.8
0 0.8 2
0 0.9 0
0 0.9 0.2
0 0.9 0.4
0 0.9 0.6
0 0.9 0.8
0 0.9 1
0 0.9 1.2
0 0.9 1.4
0 0.9 1.6
0 0.9 1.8
0 0.9 2
0 1 0
0 1 0.2
0 1 0.4
0 1 0.6
0 1 0.8
0 1 1
0 1 1.2
0 1 1.4
0 1 1.6
0 1 1.8
0 1 2
0.2 0 0
0.2 0 0.2
0.2 0 0.4
0.2 0 0.6
0.2 0 0.8
0.2 0 1
0.2 0 1.2
0.2 0 1.4
0.2 0 1.6
0.2 0 1.8
0.2 0 2
0.2 0.1 0
0.2 0.1 0.2
0.2 0.1 0.4
0.2 0.1 0.6
0.2 0.1 0.8
0.2 0.1 1
0.2 0.1 1.2
0.2 0.1 1.4
0.2 0.1 1.6
0.2 0.1 1.8
0.2 0.1 2
0.2 0.2 0
0.2 0.2 0.2
0.2 0.2 0.4
0.2 0.2 0.6
0.2 0.2 0.8
0.2 0.2 1
0.2 0.2 1.2
0.2 0.2 1.4
0.2 0.2 1.6
0.2 0.2 1.8
0.2 0.2 2
0.2 0.3 0
0.2 0.3 0.2
0.2 0.3 0.4
0.2 0.3 0.6
0.2 0.3 0.8
0.2 0.3 1
0.2 0.3 1.2
0.2 0.3 1.4
0.2 0.3 1.6
0.2 0.3 1.8
0.2 0.3 2
0.2 0.4 0
0.2 0.4 0.2
0.2 0.4 0.4
0.2 0.4 0.6
0.2 0.4 0.8
0.2 0.4 1
0.2 0.4 1.2
0.2 0.4 1.4
0.2 0.4 1.6
0.2 0.4 1.8
0.2 0.4 2
0.2 0.5 0
0.2 0.5 0.2
0.2 0.5 0.4
0.2 0.5 0.6
0.2 0.5 0.8
0.2 0.5 1
0.2 0.5 1.2
0.2 0.5 1.4
0.2 0.5 1.6
0.2 0.5 1.8
0.2 0.5 2
0.2 0.6 0
0.2 0.6 0.2
0.2 0.6 0.4
0.2 0.6 0.6
0.2 0.6 0.8
0.2 0.6 1
0.2 0.6 1.2
0.2 0.6 1.4
0.2 0.6 1.6
0.2 0.6 1.8
0.2 0.6 2
0.2 0.7 0
0.2 0.7 0.2
0.2 0.7 0.4
0.2 0.7 0.6
0.2 0.7 0.8
0.2 0.7 1
0.2 0.7 1.2
0.2 0.7 1.4
0.2 0.7 1.6
0.2 0.7 1.8
0.2 0.7 2
0.2 0.8 0
0.2 0.8 0.2
0.2 0.8 0.4
0.2 0.8 0.6
0.2 0.8 0.8
0.2 0.8 1
0.2 0.8 1.2
0.2 0.8 1.4
0.2 0.8 1.6
0.2 0.8 1.8
0.2 0.8 2
0.2 0.9 0
0.2 0.9 0.2
0.2 0.9 0.4
0.2 0.9 0.6
0.2 0.9 0.8
0.2 0.9 1
0.2 0.9 1.2
0.2 0.9 1.4
0.2 0.9 1.6
0.2 0.9 1.8
0.2 0.9 2
0.2 1 0
0.2 1 0.2
0.2 1 0.4
0.2 1 0.6
0.2 1 0.8
0.2 1 1
0.2 1 1.2
0.2 1 1.4
0.2 1 1.6
0.2 1 1.8
0.2 1 2
0.4 0 0
0.4 0 0.2
0.4 0 0.4
0.4 0 0.6
0.4 0 0.8
0.4 0 1
0.4 0 1.2
0.4 0 1.4
0.4 0 1.6
0.4 0 1.8
0.4 0 2
0.4 0.1 0
0.4 0.1 0.2
0.4 0.1 0.4
0.4 0.1 0.6
0.4 0.1 0.8
0.4 0.1 1
0.4 0.1 1.2
0.4 0.1 1.4
0.4 0.1 1.6
0.4 0.1 1.8
0.4 0.1 2
0.4 0.2 0
0.4 0.2 0.2
0.4 0.2 0.4
0.4 0.2 0.6
0.4 0.2 0.8
0.4 0.2 1
0.4 0.2 1.2
0.4 0.2 1.4
0.4 0.2 1.6
0.4 0.2 1.8
0.4 0.2 2
0.4 0.3 0
0.4 0.3 0.2
0.4 0.3 0.4
0.4 0.3 0.6
0.4 0.3 0.8
0.4 0.3 1
0.4 0.3 1.2
0.4 0.3 1.4
0.4 0.3 1.6
0.4 0.3 1.8
0.4 0.3 2
0.4 0.4 0
0.4 0.4 0.2
0.4 0.4 0.4
0.4 0.4 0.6
0.4 0.4 0.8
0.4 0.4 1
0.4 0.4 1.2
0.4 0.4 1.4
0.4 0.4 1.6
0.4 0.4 1.8
0.4 0.4 2
0.4 0.5 0
0.4 0.5 0.2
0.4 0.5 0.4
0.4 0.5 0.6
0.4 0.5 0.8
0.4 0.5 1
0.4 0.5 1.2
0.4 0.5 1.4
0.4 0.5 1.6
0.4 0.5 1.8
0.4 0.5 2
0.4 0.6 0
0.4 0.6 0.2
0.4 0.6 0.4
0.4 0.6 0.6
0.4 0.6 0.8
0.4 0.6 1
0.4 0.6 1.2
0.4 0.6 1.4
0.4 0.6 1.6
0.4 0.6 1.8
0.4 0.6 2
0.4 0.7 0
0.4 0.7 0.2
0.4 0.7 0.4
0.4 0.7 0.6
0.4 0.7 0.8
0.4 0.7 1
0.4 0.7 1.2
0.4 0.7 1.4
0.4 0.7 1.6
0.4 0.7 1.8
0.4 0.7 2
0.4 0.8 0
0.4 0.8 0.2
0.4 0.8 0.4
0.4 0.8 0.6
0.4 0.8 0.8
0.4 0.8 1
0.4 0.8 1.2
0.4 0.8 1.4
0.4 0.8 1.6
0.4 0.8 1.8
0.4 0.8 2
0.4 0.9 0
0.4 0.9 0.2
0.4 0.9 0.4
0.4 0.9 0.6
0.4 0.9 0.8
0.4 0.9 1
0.4 0.9 1.2
0.4 0.9 1.4
0.4 0.9 1.6
0.4 0.9 1.8
0.4 0.9 2
0.4 1 0
0.4 1 0.2
0.4 1 0.4
0.4 1 0.6
0.4 1 0.8
0.4 1 1
0.4 1 1.2
0.4 1 1.4
0.4 1 1.6
0.4 1 1.8
0.4 1 2
0.6 0 0
0.6 0 0.2
0.6 0 0.4
0.6 0 0.6
0.6 0 0.8
0.6 0 1
0.6 0 1.2
0.6 0 1.4
0.6 0 1.6
0.6 0 1.8
0.6 0 2
0.6 0.1 0
0.6 0.1 0.2
0.6 0.1 0.4
0.6 0.1 0.6
0.6 0.1 0.8
0.6 0.1 1
0.6 0.1 1.2
0.6 0.1 1.4
0.6 0.1 1.6
0.6 0.1 1.8
0.6 0.1 2
0.6 0.2 0
0.6 0.2 0.2
0.6 0.2 0.4
0.6 0.2 0.6
0.6 0.2 0.8
0.6 0.2 1
0.6 0.2 1.2
0.6 0.2 1.4
0.6 0.2 1.6
0.6 0.2 1.8
0.6 0.2 2
0.6 0.3 0
0.6 0.3 0.2
0.6 0.3 0.4
0.6 0.3 0.6
0.6 0.3 0.8
0.6 0.3 1
0.6 0.3 1.2
0.6 0.3 1.4
0.6 0.3 1.6
0.6 0.3 1.8
0.6 0.3 2
0.6 0.4 0
0.6 0.4 0.2
0.6 0.4 0.4
0.6 0.4 0.6
0.6 0.4 0.8
0.6 0.4 1
0.6 0.4 1.2
0.6 0.4 1.4
0.6 0.4 1.6
0.6 0.4 1.8
0.6 0.4 2
0.6 0.5 0
0.6 0.5 0.2
0.6 0.5 0.4
0.6 0.5 0.6
0.6 0.5 0.8
0.6 0.5 1
0.6 0.5 1.2
0.6 0.5 1.4
0.6 0.5 1.6
0.6 0.5 1.8
0.6 0.5 2
0.6 0.6 0
0.6 0.6 0.2
0.6 0.6 0.4
0.6 0.6 0.6
0.6 0.6 0.8
0.6 0.6 1
0.6 0.6 1.2
0.6 0.6 1.4
0.6 0.6 1.6
0.6 0.6 1.8
0.6 0.6 2
0.6 0.7 0
0.6 0.7 0.2
0.6 0.7 0.4
0.6 0.7 0.6
0.6 0.7 0.8
0.6 0.7 1
0.6 0.7 1.2
0.6 0.7 1.4
0.6 0.7 1.6
0.6 0.7 1.8
0.6 0.7 2
0.6 0.8 0
0.6 0.8 0.2
0.6 0.8 0.4
0.6 0.8 0.6
0.6 0.8 0.8
0.6 0.8 1
0.6 0.8 1.2
0.6 0.8 1.4
0.6 0.8 1.6
0.6 0.8 1.8
0.6 0.8 2
0.6 0.9 0
0.6 0.9 0.2
0.6 0.9 0.4
0.6 0.9 0.6
0.6 0.9 0.8
0.6 0.9 1
0.6 0.9 1.2
0.6 0.9 1.4
0.6 0.9 1.6
0.6 0.9 1.8
0.6 0.9 2
0.6 1 0
0.6 1 0.2
0.6 1 0.4
0.6 1 0.6
0.6 1 0.8
0.6 1 1
0.6 1 1.2
0.6 1 1.4
0.6 1 1.6
0.6 1 1.8
0.6 1 2
0.8 0 0
0.8 0 0.2
0.8 0 0.4
0.8 0 0.6
0.8 0 0.8
0.8 0 1
0.8 0 1.2
0.8 0 1.4
0.8 0 1.6
0.8 0 1.8
0.8 0 2
0.8 0.1 0
0.8 0.1 0.2
0.8 0.1 0.4
0.8 0.1 0.6
0.8 0.1 0.8
0.8 0.1 1
0.8 0.1 1.2
0.8 0.1 1.4
0.8 0.1 1.6
0.8 0.1 1.8
0.8 0.1 2
0.8 0.2 0
0.8 0.2 0.2
0.8 0.2 0.4
0.8 0.2 0.6
0.8 0.2 0.8
0.8 0.2 1
0.8 0.2 1.2
0.8 0.2 1.4
0.8 0.2 1.6
0.8 0.2 1.8
0.8 0.2 2
0.8 0.3 0
0.8 0.3 0.2
0.8 0.3 0.4
0.8 0.3 0.6
0.8 0.3 0.8
0.8 0.3 1
0.8 0.3 1.2
0.8 0.3 1.4
0.8 0.3 1.6
0.8 0.3 1.8
0.8 0.3 2
0.8 0.4 0
0.8 0.4 0.2
0.8 0.4 0.4
0.8 0.4 0.6
0.8 0.4 0.8
0.8 0.4 1
0.8 0.4 1.2
0.8 0.4 1.4
0.8 0.4 1.6
0.8 0.4 1.8
0.8 0.4 2
0.8 0.5 0
0.8 0.5 0.2
0.8 0.5 0.4
0.8 0.5 0.6
0.8 0.5 0.8
0.8 0.5 1
0.8 0.5 1.2
0.8 0.5 1.4
0.8 0.5 1.6
0.8 0.5 1.8
0.8 0.5 2
0.8 0.6 0
0.8 0.6 0.2
0.8 0.6 0.4
0.8 0.6 0.6
0.8 0.6 0.8
0.8 0.6 1
0.8 0.6 1.2
0.8 0.6 1.4
0.8 0.6 1.6
0.8 0.6 1.8
0.8 0.6 2
0.8 0.7 0
0.8 0.7 0.2
0.8 0.7 0.4
0.8 0.7 0.6
0.8 0.7 0.8
0.8 0.7 1
0.8 0.7 1.2
0.8 0.7 1.4
0.8 0.7 1.6
0.8 0.7 1.8
0.8 0.7 2
0.8 0.8 0
0.8 0.8 0.2
0.8 0.8 0.4
0.8 0.8 0.6
0.8 0.8 0.8
0.8 0.8 1
0.8 0.8 1.2
0.8 0.8 1.4
0.8 0.8 1.6
0.8 0.8 1.8
0.8 0.8 2
0.8 0.9 0
0.8 0.9 0.2
0.8 0.9 0.4
0.8 0.9 0.6
0.8 0.9 0.8
0.8 0.9 1
0.8 0.9 1.2
0.8 0.9 1.4
0.8 0.9 1.6
0.8 0.9 1.8
0.8 0.9 2
0.8 1 0
0.8 1 0.2
0.8 1 0.4
0.8 1 0.6
0.8 1 0.8
0.8 1 1
0.8 1 1.2
0.8 1 1.4
0.8 1 1.6
0.8 1 1.8
0.8 1 2
1 0 0
1 0 0.2
1 0 0.4
1 0 0.6
1 0 0.8
1 0 1
1 0 1.2
1 0 1.4
1 0 1.6
1 0 1.8
1 0 2
1 0.1 0
1 0.1 0.2
1 0.1 0.4
1 0.1 0.6
1 0.1 0.8
1 0.1 1
1 0.1 1.2
1 0.1 1.4
1 0.1 1.6
1 0.1 1.8
1 0.1 2
1 0.2 0
1 0.2 0.2
1 0.2 0.4
1 0.2 0.6
1 0.2 0.8
1 0.2 1
1 0.2 1.2
1 0.2 1.4
1 0.2 1.6
1 0.2 1.8
1 0.2 2
1 0.3 0
1 0.3 0.2
1 0.3 0.4
1 0.3 0.6
1 0.3 0.8
1 0.3 1
1 0.3 1.2
1 0.3 1.4
1 0.3 1.6
1 0.3 1.8
1 0.3 2
1 0.4 0
1 0.4 0.2
1 0.4 0.4
1 0.4 0.6
1 0.4 0.8
1 0.4 1
1 0.4 1.2
1 0.4 1.4
1 0.4 1.6
1 0.4 1.8
1 0.4 2
1 0.5 0
1 0.5 0.2
1 0.5 0.4
1 0.5 0.6
1 0.5 0.8
1 0.5 1
1 0.5 1.2
1 0.5 1.4
1 0.5 1.6
1 0.5 1.8
1 0.5 2
1 0.6 0
1 0.6 0.2
1 0.6 0.4
1 0.6 0.6
1 0.6 0.8
1 0.6 1
1 0.6 1.2
1 0.6 1.4
1 0.6 1.6
1 0.6 1.8
1 0.6 2
1 0.7 0
1 0.7 0.2
1 0.7 0.4
1 0.7 0.6
1 0.7 0.8
1 0.7 1
1 0.7 1.2
1 0.7 1.4
1 0.7 1.6
1 0.7 1.8
1 0.7 2
1 0.8 0
1 0.8 0.2
1 0.8 0.4
1 0.8 0.6
1 0.8 0.8
1 0.8 1
1 0.8 1.2
1 0.8 1.4
1 0.8 1.6
1 0.8 1.8
1 0.8 2
1 0.9 0
1 0.9 0.2
1 0.9 0.4
1 0.9 0.6
1 0.9 0.8
1 0.9 1
1 0.9 1.2
1 0.9 1.4
1 0.9 1.6
1 0.9 1.8
1 0.9 2
1 1 0
1 1 0.2
1 1 0.4
1 1 0.6
1 1 0.8
1 1 1
1 1 1.2
1 1 1.4
1 1 1.6
1 1 1.8
1 1 2
1.2 0 0
1.2 0 0.2
1.2 0 0.4
1.2 0 0.6
1.2 0 0.8
1.2 0 1
1.2 0 1.2
1.2 0 1.4
1.2 0 1.6
1.2 0 1.8
1.2 0 2
1.2 0.1 0
1.2 0.1 0.2
1.2 0.1 0.4
1.2 0.1 0.6
1.2 0.1 0.8
1.2 0.1 1
1.2 0.1 1.2
1.2 0.1 1.4
1.2 0.1 1.6
1.2 0.1 1.8
1.2 0.1 2
1.2 0.2 0
1.2 0.2 0.2
1.2 0.2 0.4
1.2 0.2 0.6
1.2 0.2 0.8
1.2 0.2 1
1.2 0.2 1.2
1.2 0.2 1.4
1.2 0.2 1.6
1.2 0.2 1.8
1.2 0.2 2
1.2 0.3 0
1.2 0.3 0.2
1.2 0.3 0.4
1.2 0.3 0.6
1.2 0.3 0.8
1.2 0.3 1
1.2 0.3 1.2
1.2 0.3 1.4
1.2 0.3 1.6
1.2 0.3 1.8
1.2 0.3 2
1.2 0.4 0
1.2 0.4 0.2
1.2 0.4 0.4
1.2 0.4 0.6
1.2 0.4 0.8
1.2 0.4 1
1.2 0.4 1.2
1.2 0.4 1.4
1.2 0.4 1.6
1.2 0.4 1.8
1.2 0.4 2
1.2 0.5 0
1.2 0.5 0.2
1.2 0.5 0.4
1.2 0.5 0.6
1.2 0.5 0.8
1.2 0.5 1
1.2 0.5 1.2
1.2 0.5 1.4
1.2 0.5 1.6
1.2 0.5 1.8
1.2 0.5 2
1.2 0.6 0
1.2 0.6 0.2
1.2 0.6 0.4
1.2 0.6 0.6
1.2 0.6 0.8
1.2 0.6 1
1.2 0.6 1.2
1.2 0.6 1.4
1.2 0.6 1.6
1.2 0.6 1.8
1.2 0.6 2
1.2 0.7 0
1.2 0.7 0.2
1.2 0.7 0.4
1.2 0.7 0.6
1.2 0.7 0.8
1.2 0.7 1
1.2 0.7 1.2
1.2 0.7 1.4
1.2 0.7 1.6
1.2 0.7 1.8
1.2 0.7 2
1.2 0.8 0
1.2 0.8 0.2
1.2 0.8 0.4
1.2 0.8 0.6
1.2 0.8 0.8
1.2 0.8 1
1.2 0.8 1.2
1.2 0.8 1.4
1.2 0.8 1.6
1.2 0.8 1.8
1.2 0.8 2
1.2 0.9 0
1.2 0.9 0.2
1.2 0.9 0.4
1.2 0.9 0.6
1.2 0.9 0.8
1.2 0.9 1
1.2 0.9 1.2
1.2 0.9 1.4
1.2 0.9 1.6
1.2 0.9 1.8
1.2 0.9 2
1.2 1 0
1.2 1 0.2
1.2 1 0.4
1.2 1 0.6
1.2 1 0.8
1.2 1 1
1.2 1 1.2
1.2 1 1.4
1.2 1 1.6
1.2 1 1.8
1.2 1 2
1.4 0 0
1.4 0 0.2
1.4 0 0.4
1.4 0 0.6
1.4 0 0.8
1.4 0 1
1.4 0 1.2
1.4 0 1.4
1.4 0 1.6
1.4 0 1.8
1.4 0 2
1.4 0.1 0
1.4 0.1 0.2
1.4 0.1 0.4
1.4 0.1 0.6
1.4 0.1 0.8
1.4 0.1 1
1.4 0.1 1.2
1.4 0.1 1.4
1.4 0.1 1.6
1.4 0.1 1.8
1.4 0.1 2
1.4 0.2 0
1.4 0.2 0.2
1.4 0.2 0.4
1.4 0.2 0.6
1.4 0.2 0.8
1.4 0.2 1
1.4 0.2 1.2
1.4 0.2 1.4
1.4 0.2 1.6
1.4 0.2 1.8
1.4 0.2 2
1.4 0.3 0
1.4 0.3 0.2
1.4 0.3 0.4
1.4 0.3 0.6
1.4 0.3 0.8
1.4 0.3 1
1.4 0.3 1.2
1.4 0.3 1.4
1.4 0.3 1.6
1.4 0.3 1.8
1.4 0.3 2
1.4 0.4 0
1.4 0.4 0.2
1.4 0.4 0.4
1.4 0.4 0.6
1.4 0.4 0.8
1.4 0.4 1
1.4 0.4 1.2
1.4 0.4 1.4
1.4 0.4 1.6
1.4 0.4 1.8
1.4 0.4 2
1.4 0.5 0
1.4 0.5 0.2
1.4 0.5 0.4
1.4 0.5 0.6
1.4 0.5 0.8
1.4 0.5 1
1.4 0.5 1.2
1.4 0.5 1.4
1.4 0.5 1.6
1.4 0.5 1.8
1.4 0.5 2
1.4 0.6 0
1.4 0.6 0.2
1.4 0.6 0.4
1.4 0.6 0.6
1.4 0.6 0.8
1.4 0.6 1
1.4 0.6 1.2
1.4 0.6 1.4
1.4 0.6 1.6
1.4 0.6 1.8
1.4 0.6 2
1.4 0.7 0
1.4 0.7 0.2
1.4 0.7 0.4
1.4 0.7 0.6
1.4 0.7 0.8
1.4 0.7 1
1.4 0.7 1.2
1.4 0.7 1.4
1.4 0.7 1.6
1.4 0.7 1.8
[...]
POINT_DATA 12342

SCALARS u double
LOOKUP_TABLE default
1
-1
-1
-1
-1
-1
-1
-1
-1
-1
1
-1
1
1
1
1
1
1
1
1
1
-1
-1
1
1
1
1
1
1
1
1
1
-1
-1
1
1
1
1
1
1
1
1
1
-1
-1
1
1
1
1
1
1
1
1
1
-1
-1
1
1
1
1
1
1
1
1
1
-1
-1
1
1
1
1
1
1
1
1
1
-1
-1
1
1
1
1
1
1
1
1
1
-1
-1
1
1
1
1
1
1
1
1
1
-1
-1
1
1
1
1
1
1
1
1
1
-1
1
-1
-1
-1
-1
-1
-1
-1
-1
-1
1
0.965101
-0.965101
-0.966878
-0.965083
-0.964704
-0.964581
-0.964542
-0.964672
-0.965932
-0.962828
0.962828
-0.965101
0.963134
0.960965
0.958337
0.957801
0.957572
0.957408
0.957334
0.958588
0.9573
-0.962828
-1.00902
1.01586
1.01417
1.01151
1.01096
1.01073
1.01057
1.01051
1.0118
1.01004
-1.00676
-1.00718
1.01375
1.01201
1.00935
1.00881
1.00858
1.00842
1.00835
1.00963
1.00792
-1.00491
-1.00617
1.01247
1.01071
1.00805
1.00751
1.00728
1.00712
1.00705
1.00833
1.00664
-1.0039
-1.00605
1.0123
1.01053
1.00788
1.00734
1.00711
1.00694
1.00688
1.00816
1.00647
-1.00378
-1.00675
1.01314
1.01138
1.00872
1.00818
1.00795
1.00779
1.00772
1.009
1.00731
-1.00447
-1.00849
1.01527
1.01353
1.01088
1.01033
1.0101
1.00994
1.00988
1.01116
1.00944
-1.00622
-1.01142
1.01867
1.01699
1.01433
1.01378
1.01355
1.01339
1.01332
1.01461
1.01285
-1.00915
-0.969382
0.967954
0.965815
0.963185
0.962649
0.96242
0.962257
0.962183
0.963439
0.962122
-0.967109
0.969382
-0.969382
-0.971165
-0.96937
-0.968991
-0.968868
-0.968829
-0.96896
-0.97022
-0.967109
0.967109
0.957126
-0.957126
-0.962283
-0.959533
-0.958653
-0.958372
-0.958373
-0.958865
-0.960952
-0.954615
0.954615
-0.957126
0.955181
0.955638
0.950908
0.949555
0.949055
0.948837
0.949154
0.951955
0.947805
-0.954615
-1.00767
1.01711
1.01815
1.01338
1.01202
1.01151
1.0113
1.01163
1.01446
1.00973
-1.00516
-1.0075
1.01698
1.01799
1.01323
1.01186
1.01136
1.01114
1.01147
1.0143
1.00959
-1.00498
-1.00714
1.01646
1.01746
1.01269
1.01133
1.01083
1.01061
1.01094
1.01377
1.00907
-1.00462
-1.00719
1.01649
1.01748
1.01272
1.01135
1.01085
1.01063
1.01096
1.01379
1.0091
-1.00468
-1.0077
1.0171
1.0181
1.01334
1.01197
1.01147
1.01125
1.01158
1.01441
1.00971
-1.00519
-1.00867
1.01831
1.01933
1.01457
1.0132
1.0127
1.01248
1.01281
1.01564
1.01092
-1.00616
-1.00954
1.01921
1.02026
1.01549
1.01412
1.01362
1.0134
1.01373
1.01656
1.01182
-1.00702
-0.959732
0.958026
0.9585
0.953771
0.952418
0.951917
0.951699
0.952016
0.954816
0.950649
-0.957221
0.959732
-0.959732
-0.964893
-0.962143
-0.961264
-0.960982
-0.960983
-0.961475
-0.963562
-0.957221
0.957221
0.954194
-0.954194
-0.962379
-0.959643
-0.95843
-0.958005
-0.958092
-0.958887
-0.961035
-0.952045
0.952045
-0.954194
0.951459
0.956632
0.951216
0.949053
0.948236
0.948114
0.949046
0.952564
0.944568
-0.952045
-1.00547
1.01455
1.02034
1.01489
1.01271
1.01189
1.01177
1.01271
1.01626
1.00764
-1.00332
-1.00588
1.01519
1.02098
1.01553
1.01335
1.01253
1.01241
1.01335
1.0169
1.00828
-1.00373
-1.00585
1.0151
1.02088
1.01543
1.01326
1.01243
1.01231
1.01326
1.0168
1.00819
-1.0037
-1.00596
1.0152
1.02098
1.01553
1.01335
1.01253
1.01241
1.01335
1.0169
1.00829
-1.00381
-1.00623
1.01552
1.0213
1.01585
1.01367
1.01285
1.01273
1.01367
1.01722
1.00861
-1.00408
-1.00663
1.01601
1.0218
1.01635
1.01417
1.01335
1.01323
1.01417
1.01772
1.0091
-1.00448
-1.00656
1.01572
1.02152
1.01607
1.01389
1.01307
1.01295
1.01389
1.01744
1.00881
-1.00441
-0.955552
0.952869
0.95805
0.952636
0.950473
0.949655
0.949534
0.950465
0.953982
0.945977
-0.953403
0.955552
-0.955552
-0.963739
-0.961003
-0.95979
-0.959365
-0.959452
-0.960247
-0.962394
-0.953403
0.953403
0.952443
-0.952443
-0.962567
-0.960345
-0.959091
-0.958608
-0.95875
-0.959618
-0.96138
-0.950738
0.950738
-0.952443
0.948391
0.957376
0.952455
0.949912
0.948874
0.94888
0.950189
0.953499
0.942557
-0.950738
-1.00378
1.01162
1.02126
1.01631
1.01375
1.0127
1.01271
1.01403
1.01737
1.00577
-1.00207
-1.00432
1.01246
1.02209
1.01714
1.01458
1.01354
1.01355
1.01487
1.0182
1.0066
-1.00261
-1.00436
1.01248
1.02211
1.01716
1.0146
1.01356
1.01357
1.01489
1.01822
1.00663
-1.00265
-1.00444
1.01256
1.02219
1.01724
1.01468
1.01364
1.01365
1.01497
1.0183
1.00671
-1.00274
-1.00458
1.01271
1.02234
1.01739
1.01483
1.01379
1.0138
1.01512
1.01845
1.00686
-1.00287
-1.00474
1.01289
1.02253
1.01758
1.01502
1.01398
1.01399
1.01531
1.01864
1.00704
-1.00303
-1.00437
1.01223
1.02186
1.01692
1.01436
1.01331
1.01332
1.01464
1.01798
1.00638
-1.00266
-0.953132
0.949076
0.958066
0.953145
0.950603
0.949565
0.949571
0.950879
0.954188
0.943241
-0.951427
0.953132
-0.953132
-0.963256
-0.961034
-0.959781
-0.959298
-0.95944
-0.960308
-0.962069
-0.951427
0.951427
0.951241
-0.951241
-0.96249
-0.960863
-0.959771
-0.959314
-0.959461
-0.960228
-0.961511
-0.949926
0.949926
-0.951241
0.945846
0.957362
0.95341
0.950936
0.94984
0.94992
0.951272
0.953945
0.941103
-0.949926
-1.00257
1.00909
1.02127
1.0173
1.01481
1.01371
1.01379
1.01515
1.01784
1.00433
-1.00126
-1.00312
1.00996
1.02214
1.01817
1.01568
1.01458
1.01466
1.01602
1.01871
1.0052
-1.0018
-1.00316
1.00999
1.02217
1.0182
1.01571
1.01461
1.01469
1.01605
1.01874
1.00523
-1.00184
-1.00321
1.01004
1.02222
1.01825
1.01576
1.01466
1.01474
1.0161
1.01879
1.00528
-1.00189
-1.00327
1.01011
1.02229
1.01832
1.01583
1.01473
1.01481
1.01617
1.01886
1.00535
-1.00196
-1.00334
1.01018
1.02236
1.01839
1.0159
1.0148
1.01488
1.01625
1.01894
1.00542
-1.00202
-1.00288
1.00939
1.02157
1.0176
1.01511
1.01401
1.0141
1.01546
1.01815
1.00463
-1.00156
-0.951586
0.946179
0.957697
0.953746
0.951272
0.950177
0.950256
0.951608
0.954279
0.941435
-0.950272
0.951586
-0.951586
-0.962836
-0.961209
-0.960117
-0.95966
-0.959807
-0.960574
-0.961857
-0.950272
0.950272
0.950397
-0.950397
-0.96229
-0.961168
-0.960312
-0.959928
-0.960049
-0.960643
-0.961515
-0.949397
0.949397
-0.950397
0.943835
0.95693
0.953972
0.951836
0.95082
0.950909
0.952081
0.954054
0.940052
-0.949397
-1.00172
1.00707
1.02084
1.01787
1.01572
1.0147
1.01479
1.01597
1.01796
1.00328
-1.00072
-1.00226
1.00794
1.02171
1.01874
1.01659
1.01557
1.01566
1.01684
1.01883
1.00414
-1.00125
-1.00228
1.00796
1.02173
1.01876
1.01661
1.01559
1.01568
1.01687
1.01885
1.00417
-1.00128
-1.00231
1.00799
1.02176
1.01879
1.01664
1.01562
1.01571
1.01689
1.01888
1.00419
-1.00131
-1.00234
1.00802
1.02179
1.01882
1.01667
1.01565
1.01574
1.01693
1.01891
1.00423
-1.00134
-1.00237
1.00805
1.02182
1.01885
1.0167
1.01568
1.01577
1.01695
1.01894
1.00425
-1.00137
-1.00188
1.00722
1.02099
1.01802
1.01587
1.01485
1.01494
1.01612
1.01811
1.00343
-1.00087
-0.950568
0.943997
0.957093
0.954136
0.952
0.950984
0.951073
0.952245
0.954217
0.940213
-0.949568
0.950568
-0.950568
-0.962461
-0.961339
-0.960483
-0.960099
-0.96022
-0.960813
-0.961686
-0.949568
0.949568
0.949807
-0.949807
-0.962077
-0.961331
-0.960705
-0.960408
-0.960492
-0.960913
-0.961478
-0.949053
0.949053
-0.949807
0.942291
0.956365
0.954245
0.952542
0.951679
0.951738
0.952644
0.954017
0.939307
-0.949053
-1.00112
1.00552
1.02027
1.01814
1.01643
1.01557
1.01563
1.01654
1.01792
1.00253
-1.00037
-1.00165
1.00638
1.02114
1.01901
1.0173
1.01643
1.01649
1.0174
1.01878
1.00339
-1.0009
-1.00167
1.0064
1.02115
1.01902
1.01731
1.01645
1.01651
1.01742
1.0188
1.0034
-1.00091
-1.00168
1.00641
1.02117
1.01904
1.01733
1.01646
1.01652
1.01743
1.01881
1.00342
-1.00093
-1.0017
1.00643
1.02118
1.01905
1.01734
1.01648
1.01654
1.01745
1.01883
1.00343
-1.00094
-1.00171
1.00644
1.02119
1.01906
1.01735
1.01649
1.01655
1.01746
1.01884
1.00344
-1.00095
-1.0012
1.00559
1.02035
1.01822
1.01651
1.01564
1.0157
1.01661
1.01799
1.0026
-1.00045
-0.949889
0.94237
0.956444
0.954324
0.952621
0.951758
0.951818
0.952724
0.954096
0.939386
-0.949135
0.949889
-0.949889
-0.962159
-0.961413
-0.960786
-0.960489
-0.960573
-0.960995
-0.96156
-0.949135
0.949135
0.9494
-0.9494
-0.961896
-0.961415
-0.960977
-0.960759
-0.96081
-0.961091
-0.961442
-0.948835
0.948835
-0.9494
0.941126
0.955817
0.954341
0.953054
0.952364
0.952383
0.953028
0.953939
0.938792
-0.948835
-1.00071
1.00435
1.01972
1.01824
1.01695
1.01625
1.01627
1.01692
1.01784
1.00201
-1.00014
-1.00123
1.00521
1.02058
1.0191
1.01781
1.01712
1.01714
1.01779
1.0187
1.00286
-1.00067
-1.00124
1.00522
1.0206
1.01911
1.01782
1.01713
1.01715
1.0178
1.01871
1.00288
-1.00068
-1.00125
1.00523
1.0206
1.01912
1.01783
1.01713
1.01716
1.0178
1.01872
1.00288
-1.00068
-1.00126
1.00523
1.02061
1.01913
1.01783
1.01714
1.01716
1.01781
1.01873
1.00289
-1.00069
-1.00126
1.00523
1.02061
1.01913
1.01784
1.01714
1.01716
1.01781
1.01873
1.00289
-1.0007
-1.00075
1.00438
1.01976
1.01828
1.01698
1.01629
1.01631
1.01696
1.01787
1.00204
-1.00018
-0.949436
0.941165
0.955856
0.954379
0.953092
0.952403
0.952422
0.953067
0.953978
0.938831
-0.948872
0.949436
-0.949436
-0.961932
-0.961451
-0.961013
-0.960795
-0.960846
-0.961128
-0.961478
-0.948872
0.948872
0.949122
-0.949122
-0.961758
-0.961457
-0.96116
-0.961005
-0.961032
-0.961212
-0.961419
-0.948703
0.948703
-0.949122
0.940257
0.955345
0.954341
0.953403
0.952874
0.952859
0.953289
0.953867
0.938445
-0.948703
-1.00043
1.00347
1.01925
1.01824
1.0173
1.01677
1.01675
1.01718
1.01776
1.00166
-1.00001
-1.00095
1.00433
1.02011
1.0191
1.01816
1.01763
1.01761
1.01805
1.01863
1.00251
-1.00053
-1.00096
1.00434
1.02012
1.01911
1.01817
1.01764
1.01762
1.01805
1.01863
1.00252
-1.00054
-1.00096
1.00434
1.02012
1.01911
1.01817
1.01764
1.01763
1.01806
1.01864
1.00252
-1.00054
-1.00096
1.00435
1.02012
1.01912
1.01817
1.01764
1.01763
1.01806
1.01864
1.00253
-1.00054
-1.00097
1.00434
1.02012
1.01911
1.01817
1.01764
1.01763
1.01806
1.01864
1.00252
-1.00054
-1.00045
1.00349
1.01926
1.01826
1.01732
1.01678
1.01677
1.0172
1.01778
1.00167
-1.00003
-0.949136
0.940275
0.955364
0.95436
0.953422
0.952893
0.952878
0.953308
0.953886
0.938464
-0.948716
0.949136
-0.949136
-0.961772
-0.96147
-0.961174
-0.961019
-0.961046
-0.961225
-0.961432
-0.948716
0.948716
0.948937
-0.948937
-0.96166
-0.961478
-0.961282
-0.961175
-0.961186
-0.961296
-0.961411
-0.948628
0.948628
-0.948937
0.939612
0.954961
0.954293
0.953627
0.953232
0.953196
0.953465
0.953814
0.938216
-0.948628
-1.00024
1.00283
1.01886
1.01819
1.01752
1.01713
1.01709
1.01736
1.01771
1.00142
-0.99993
-1.00076
1.00368
1.01972
1.01905
1.01838
1.01799
1.01795
1.01822
1.01857
1.00228
-1.00045
-1.00077
1.00369
1.01973
1.01906
1.01839
1.01799
1.01796
1.01823
1.01858
1.00229
-1.00045
-1.00077
1.00369
1.01973
1.01906
1.01839
1.01799
1.01796
1.01823
1.01858
1.00229
-1.00046
-1.00077
1.00369
1.01973
1.01906
1.01839
1.018
1.01796
1.01823
1.01858
1.00229
-1.00046
-1.00077
1.00369
1.01973
1.01906
1.01839
1.01799
1.01796
1.01823
1.01858
1.00229
-1.00046
-1.00025
1.00284
1.01887
1.0182
1.01753
1.01713
1.0171
1.01737
1.01772
1.00143
-0.99994
-0.948939
0.939622
0.954971
0.954302
0.953637
0.953242
0.953205
0.953475
0.953823
0.938225
-0.94863
0.948939
-0.948939
-0.961662
-0.96148
-0.961283
-0.961176
-0.961188
-0.961298
-0.961413
-0.94863
0.94863
0.948816
-0.948816
-0.961593
-0.96149
-0.961362
-0.961289
-0.961292
-0.961357
-0.961414
-0.94859
0.94859
-0.948816
0.939136
0.954657
0.954223
0.95376
0.953471
0.953423
0.953583
0.953778
0.938068
-0.94859
-1.00012
1.00235
1.01855
1.01812
1.01765
1.01736
1.01732
1.01748
1.01767
1.00127
-0.999891
-1.00064
1.0032
1.01941
1.01898
1.01851
1.01822
1.01818
1.01834
1.01853
1.00213
-1.00041
-1.00064
1.00321
1.01942
1.01899
1.01852
1.01823
1.01818
1.01834
1.01854
1.00214
-1.00041
-1.00064
1.00321
1.01942
1.01899
1.01852
1.01823
1.01818
1.01834
1.01854
1.00214
-1.00041
-1.00064
1.00321
1.01942
1.01899
1.01852
1.01823
1.01819
1.01835
1.01854
1.00214
-1.00042
-1.00064
1.00321
1.01942
1.01898
1.01852
1.01823
1.01818
1.01834
1.01854
1.00213
-1.00041
-1.00012
1.00235
1.01856
1.01812
1.01766
1.01737
1.01732
1.01748
1.01768
1.00128
-0.999895
-0.948812
0.939141
0.954662
0.954229
0.953765
0.953476
0.953428
0.953588
0.953783
0.938073
-0.948586
0.948812
-0.948812
-0.961589
-0.961485
-0.961358
-0.961285
-0.961288
-0.961353
-0.96141
-0.948586
0.948586
0.948738
-0.948738
-0.96155
-0.961497
-0.961415
-0.961367
-0.961365
-0.961403
-0.961424
-0.948576
0.948576
-0.948738
0.938785
0.954419
0.954147
0.953828
0.95362
0.95357
0.953658
0.953754
0.937974
-0.948576
-1.00004
1.00199
1.01831
1.01804
1.01772
1.01751
1.01746
1.01755
1.01765
1.00118
-0.999875
-1.00056
1.00285
1.01917
1.0189
1.01858
1.01837
1.01832
1.01841
1.01851
1.00203
-1.00039
-1.00056
1.00285
1.01918
1.01891
1.01859
1.01838
1.01833
1.01842
1.01851
1.00204
-1.0004
-1.00056
1.00285
1.01918
1.01891
1.01859
1.01838
1.01833
1.01842
1.01851
1.00204
-1.0004
-1.00056
1.00286
1.01918
1.01891
1.01859
1.01838
1.01833
1.01842
1.01851
1.00204
-1.0004
-1.00056
1.00285
1.01918
1.0189
1.01858
1.01838
1.01833
1.01841
1.01851
1.00204
-1.0004
-1.00004
1.002
1.01832
1.01804
1.01772
1.01752
1.01747
1.01756
1.01765
1.00118
-0.999876
-0.948731
0.938787
0.954422
0.95415
0.953831
0.953623
0.953573
0.953661
0.953757
0.937977
-0.948569
0.948731
-0.948731
-0.961542
-0.96149
-0.961408
-0.96136
-0.961358
-0.961396
-0.961417
-0.948569
0.948569
0.94869
-0.94869
-0.961523
-0.961503
-0.961452
-0.96142
-0.961417
-0.961439
-0.961438
-0.948575
0.948575
-0.94869
0.938522
0.954232
0.95407
0.953854
0.953705
0.953659
0.953704
0.953737
0.937914
-0.948575
-0.999989
1.00173
1.01812
1.01796
1.01775
1.0176
1.01755
1.0176
1.01763
1.00112
-0.999873
-1.00051
1.00258
1.01898
1.01882
1.01861
1.01846
1.01841
1.01846
1.01849
1.00197
-1.00039
-1.00051
1.00259
1.01899
1.01883
1.01861
1.01846
1.01842
1.01846
1.0185
1.00198
-1.0004
-1.00051
1.00259
1.01899
1.01883
1.01861
1.01846
1.01842
1.01846
1.0185
1.00198
-1.0004
-1.00051
1.00259
1.01899
1.01883
1.01861
1.01846
1.01842
1.01846
1.0185
1.00198
-1.0004
-1.00051
1.00259
1.01899
1.01883
1.01861
1.01846
1.01841
1.01846
1.01849
1.00197
-1.00039
-0.999989
1.00173
1.01813
1.01797
1.01775
1.0176
1.01755
1.0176
1.01763
1.00112
-0.999873
-0.948681
0.938524
0.954234
0.954072
0.953856
0.953707
0.953661
0.953706
0.953739
0.937916
-0.948567
0.948681
-0.948681
-0.961514
-0.961495
-0.961443
-0.961411
-0.961408
-0.96143
-0.961429
-0.948567
0.948567
0.948661
-0.948661
-0.961508
-0.961509
-0.961478
-0.961457
-0.961455
-0.961467
-0.961454
-0.948583
0.948583
-0.948661
0.938325
0.954084
0.953997
0.953852
0.953747
0.953708
0.953727
0.953723
0.937874
-0.948583
-0.999959
1.00153
1.01798
1.01789
1.01774
1.01764
1.0176
1.01762
1.01761
1.00108
-0.99988
-1.00048
1.00238
1.01884
1.01875
1.0186
1.0185
1.01846
1.01848
1.01847
1.00193
-1.0004
-1.00048
1.00239
1.01884
1.01876
1.01861
1.01851
1.01847
1.01849
1.01848
1.00194
-1.0004
-1.00048
1.00239
1.01884
1.01876
1.01861
1.01851
1.01847
1.01849
1.01848
1.00194
-1.0004
-1.00048
1.00239
1.01884
1.01876
1.01861
1.01851
1.01847
1.01849
1.01848
1.00194
-1.0004
-1.00048
1.00239
1.01884
1.01875
1.01861
1.0185
1.01846
1.01848
1.01848
1.00193
-1.0004
-0.999958
1.00153
1.01798
1.01789
1.01775
1.01764
1.0176
1.01762
1.01762
1.00108
-0.999879
-0.948652
0.938326
0.954086
0.953999
0.953853
0.953749
0.953709
0.953729
0.953725
0.937875
-0.948574
0.948652
-0.948652
-0.961499
-0.9615
-0.961468
-0.961448
-0.961445
-0.961458
-0.961444
-0.948574
0.948574
0.948646
-0.948646
-0.961501
-0.961516
-0.961497
-0.961485
-0.961483
-0.961491
-0.96147
-0.948595
0.948595
-0.948646
0.938173
0.953966
0.953929
0.953832
0.95376
0.953728
0.953735
0.953709
0.937844
-0.948595
-0.999942
1.00138
1.01786
1.01782
1.01772
1.01765
1.01762
1.01763
1.0176
1.00105
-0.999891
-1.00046
1.00223
1.01872
1.01868
1.01858
1.01851
1.01848
1.01849
1.01846
1.0019
-1.00041
-1.00046
1.00224
1.01872
1.01869
1.01859
1.01852
1.01849
1.01849
1.01846
1.00191
-1.00041
-1.00046
1.00224
1.01872
1.01869
1.01859
1.01852
1.01849
1.01849
1.01846
1.00191
-1.00041
-1.00046
1.00224
1.01872
1.01869
1.01859
1.01852
1.01849
1.01849
1.01847
1.00191
-1.00041
-1.00046
1.00223
1.01872
1.01868
1.01858
1.01851
1.01848
1.01849
1.01846
1.0019
-1.00041
-0.999941
1.00138
1.01786
1.01782
1.01773
1.01765
1.01762
1.01763
1.0176
1.00105
-0.99989
-0.948636
0.938175
0.953967
0.95393
0.953834
0.953762
0.95373
0.953736
0.95371
0.937846
-0.948585
0.948636
-0.948636
-0.961492
-0.961506
-0.961487
-0.961475
-0.961473
-0.961481
-0.96146
-0.948585
0.948585
0.948639
-0.948639
-0.9615
-0.961523
-0.961513
-0.961506
-0.961505
-0.961511
-0.961486
-0.948609
0.948609
-0.948639
0.938054
0.953868
0.953865
0.953803
0.953754
0.95373
0.953731
0.953693
0.93782
-0.948609
-0.999934
1.00126
1.01776
1.01776
1.01769
1.01764
1.01762
1.01762
1.01758
1.00102
-0.999904
-1.00045
1.00211
1.01862
1.01862
1.01855
1.0185
1.01848
1.01848
1.01844
1.00187
-1.00042
-1.00046
1.00212
1.01862
1.01862
1.01856
1.01851
1.01849
1.01849
1.01845
1.00188
-1.00043
-1.00046
1.00212
1.01862
1.01862
1.01856
1.01851
1.01849
1.01849
1.01845
1.00188
-1.00043
-1.00046
1.00212
1.01862
1.01862
1.01856
1.01851
1.01849
1.01849
1.01845
1.00188
-1.00042
-1.00045
1.00211
1.01862
1.01862
1.01855
1.01851
1.01848
1.01848
1.01844
1.00188
-1.00042
-0.999933
1.00126
1.01776
1.01776
1.0177
1.01765
1.01762
1.01762
1.01758
1.00102
-0.999903
-0.948629
0.938055
0.95387
0.953867
0.953804
0.953755
0.953732
0.953732
0.953694
0.937822
-0.948599
0.948629
-0.948629
-0.96149
-0.961513
-0.961503
-0.961496
-0.961496
-0.961501
-0.961476
-0.948599
0.948599
0.948638
-0.948638
-0.961502
-0.961531
-0.961526
-0.961523
-0.961524
-0.961528
-0.961502
-0.948624
0.948624
-0.948638
0.937957
0.953787
0.953807
0.953767
0.953736
0.953719
0.953718
0.953674
0.937798
-0.948624
-0.999932
1.00116
1.01767
1.0177
1.01766
1.01763
1.01761
1.01761
1.01756
1.001
-0.999918
-1.00045
1.00201
1.01853
1.01856
1.01852
1.01848
1.01847
1.01847
1.01842
1.00185
-1.00044
-1.00045
1.00202
1.01854
1.01856
1.01852
1.01849
1.01847
1.01847
1.01843
1.00186
-1.00044
-1.00045
1.00202
1.01854
1.01856
1.01852
1.01849
1.01847
1.01847
1.01843
1.00186
-1.00044
-1.00045
1.00202
1.01854
1.01856
1.01852
1.01849
1.01848
1.01847
1.01843
1.00186
-1.00044
-1.00045
1.00201
1.01854
1.01856
1.01852
1.01849
1.01847
1.01847
1.01842
1.00185
-1.00044
-0.99993
1.00116
1.01768
1.0177
1.01766
1.01763
1.01761
1.01761
1.01756
1.001
-0.999916
-0.948628
0.937959
0.953789
0.953808
0.953769
0.953737
0.953721
0.95372
0.953676
0.9378
-0.948614
0.948628
-0.948628
-0.961492
-0.961521
-0.961516
-0.961513
-0.961514
-0.961518
-0.961492
-0.948614
0.948614
0.94864
-0.94864
-0.961507
-0.961539
-0.961538
-0.961538
-0.96154
-0.961544
-0.961517
-0.948639
0.948639
-0.94864
0.937877
0.953717
0.953752
0.953729
0.95371
0.9537
0.9537
0.953654
0.937776
-0.948639
-0.999933
1.00108
1.0176
1.01764
1.01762
1.0176
1.01759
1.01759
1.01754
1.00098
-0.999932
-1.00045
1.00193
1.01846
1.0185
1.01848
1.01846
1.01845
1.01845
1.0184
1.00183
-1.00045
-1.00045
1.00194
1.01847
1.01851
1.01848
1.01846
1.01845
1.01845
1.01841
1.00184
-1.00045
-1.00045
1.00194
1.01847
1.01851
1.01848
1.01847
1.01846
1.01846
1.01841
1.00184
-1.00045
-1.00045
1.00194
1.01847
1.01851
1.01848
1.01847
1.01846
1.01846
1.01841
1.00184
-1.00045
-1.00045
1.00193
1.01847
1.0185
1.01848
1.01846
1.01845
1.01845
1.0184
1.00183
-1.00045
-0.999932
1.00108
1.01761
1.01764
1.01762
1.0176
1.01759
1.01759
1.01754
1.00098
-0.99993
-0.94863
0.937879
0.953719
0.953754
0.953731
0.953712
0.953702
0.953702
0.953656
0.937778
-0.948629
0.94863
-0.94863
-0.961497
-0.961529
-0.961528
-0.961528
-0.96153
-0.961534
-0.961507
-0.948629
0.948629
0.948645
-0.948645
-0.961513
-0.961547
-0.961549
-0.961551
-0.961554
-0.961559
-0.961531
-0.948654
0.948654
-0.948645
0.937809
0.953656
0.953702
0.95369
0.95368
0.953676
0.953677
0.953631
0.937753
-0.948654
-0.999937
1.00101
1.01754
1.01759
1.01758
1.01757
1.01756
1.01757
1.01752
1.00095
-0.999945
-1.00046
1.00186
1.0184
1.01845
1.01844
1.01843
1.01842
1.01843
1.01838
1.00181
-1.00046
-1.00046
1.00187
1.01841
1.01846
1.01844
1.01843
1.01843
1.01843
1.01838
1.00181
-1.00047
-1.00046
1.00187
1.01841
1.01846
1.01844
1.01843
1.01843
1.01843
1.01838
1.00181
-1.00047
-1.00046
1.00187
1.01841
1.01846
1.01844
1.01843
1.01843
1.01843
1.01838
1.00181
-1.00047
-1.00045
1.00186
1.0184
1.01845
1.01844
1.01843
1.01842
1.01843
1.01838
1.00181
-1.00046
-0.999935
1.00101
1.01754
1.01759
1.01758
1.01757
1.01757
1.01757
1.01752
1.00095
-0.999944
-0.948635
0.937811
0.953658
0.953704
0.953692
0.953682
0.953678
0.953679
0.953633
0.937755
-0.948644
0.948635
-0.948635
-0.961503
-0.961537