# vtk DataFile Version 2.0
FlowField
ASCII
DATASET STRUCTURED_GRID
DIMENSIONS 102 11 11 
POINTS 12342 double
0 0 0
0 0 0.2
0 0 0.4
0 0 0.6
0 0 0.8
0 0 1
0 0 1.2
0 0 1.4
0 0 1.6
0 0 1.8
0 0 2
0 0.1 0
0 0.1 0.2
0 0.1 0.4
0 0.1 0.6
0 0.1 0.8
0 0.1 1
0 0.1 1.2
0 0.1 1.4
0 0.1 1.6
0 0.1 1.8
0 0.1 2
0 0.2 0
0 0.2 0.2
0 0.2 0.4
0 0.2 0.6
0 0.2 0.8
0 0.2 1
0 0.2 1.2
0 0.2 1.4
0 0.2 1.6
0 0.2 1.8
0 0.2 2
0 0.3 0
0 0.3 0.2
0 0.3 0.4
0 0.3 0.6
0 0.3 0.8
0 0.3 1
0 0.3 1.2
0 0.3 1.4
0 0.3 1.6
0 0.3 1.8
0 0.3 2
0 0.4 0
0 0.4 0.2
0 0.4 0.4
0 0.4 0.6
0 0.4 0.8
0 0.4 1
0 0.4 1.2
0 0.4 1.4
0 0.4 1.6
0 0.4 1.8
0 0.4 2
0 0.5 0
0 0.5 0.2
0 0.5 0.4
0 0.5 0.6
0 0.5 0.8
0 0.5 1
0 0.5 1.2
0 0.5 1.4
0 0.5 1.6
0 0.5 1.8
0 0.5 2
0 0.6 0
0 0.6 0.2
0 0.6 0.4
0 0.6 0.6
0 0.6 0.8
0 0.6 1
0 0.6 1.2
0 0.6 1.4
0 0.6 1.6
0 0.6 1.8
0 0.6 2
0 0.7 0
0 0.7 0.2
0 0.7 0.4
0 0.7 0.6
0 0.7 0.8
0 0.7 1
0 0.7 1.2
0 0.7 1.4
0 0.7 1.6
0 0.7 1.8
0 0.7 2
0 0.8 0
0 0.8 0.2
0 0.8 0.4
0 0.8 0.6
0 0.8 0.8
0 0.8 1
0 0.8 1.2
0 0.8 1.4
0 0.8 1.6
0 0.8 1.8
0 0.8 2
0 0.9 0
0 0.9 0.2
0 0.9 0.4
0 0.9 0.6
0 0.9 0.8
0 0.9 1
0 0.9 1.2
0 0.9 1.4
0 0.9 1.6
0 0.9 1.8
0 0.9 2
0 1 0
0 1 0.2
0 1 0.4
0 1 0.6
0 1 0.8
0 1 1
0 1 1.2
0 1 1.4
0 1 1.6
0 1 1.8
0 1 2
0.2 0 0
0.2 0 0.2
0.2 0 0.4
0.2 0 0.6
0.2 0 0.8
0.2 0 1
0.2 0 1.2
0.2 0 1.4
0.2 0 1.6
0.2 0 1.8
0.2 0 2
0.2 0.1 0
0.2 0.1 0.2
0.2 0.1 0.4
0.2 0.1 0.6
0.2 0.1 0.8
0.2 0.1 1
0.2 0.1 1.2
0.2 0.1 1.4
0.2 0.1 1.6
0.2 0.1 1.8
0.2 0.1 2
0.2 0.2 0
0.2 0.2 0.2
0.2 0.2 0.4
0.2 0.2 0.6
0.2 0.2 0.8
0.2 0.2 1
0.2 0.2 1.2
0.2 0.2 1.4
0.2 0.2 1.6
0.2 0.2 1.8
0.2 0.2 2
0.2 0.3 0
0.2 0.3 0.2
0.2 0.3 0.4
0.2 0.3 0.6
0.2 0.3 0.8
0.2 0.3 1
0.2 0.3 1.2
0.2 0.3 1.4
0.2 0.3 1.6
0.2 0.3 1.8
0.2 0.3 2
0.2 0.4 0
0.2 0.4 0.2
0.2 0.4 0.4
0.2 0.4 0.6
0.2 0.4 0.8
0.2 0.4 1
0.2 0.4 1.2
0.2 0.4 1.4
0.2 0.4 1.6
0.2 0.4 1.8
0.2 0.4 2
0.2 0.5 0
0.2 0.5 0.2
0.2 0.5 0.4
0.2 0.5 0.6
0.2 0.5 0.8
0.2 0.5 1
0.2 0.5 1.2
0.2 0.5 1.4
0.2 0.5 1.6
0.2 0.5 1.8
0.2 0.5 2
0.2 0.6 0
0.2 0.6 0.2
0.2 0.6 0.4
0.2 0.6 0.6
0.2 0.6 0.8
0.2 0.6 1
0.2 0.6 1.2
0.2 0.6 1.4
0.2 0.6 1.6
0.2 0.6 1.8
0.2 0.6 2
0.2 0.7 0
0.2 0.7 0.2
0.2 0.7 0.4
0.2 0.7 0.6
0.2 0.7 0.8
0.2 0.7 1
0.2 0.7 1.2
0.2 0.7 1.4
0.2 0.7 1.6
0.2 0.7 1.8
0.2 0.7 2
0.2 0.8 0
0.2 0.8 0.2
0.2 0.8 0.4
0.2 0.8 0.6
0.2 0.8 0.8
0.2 0.8 1
0.2 0.8 1.2
0.2 0.8 1.4
0.2 0.8 1.6
0.2 0.8 1.8
0.2 0.8 2
0.2 0.9 0
0.2 0.9 0.2
0.2 0.9 0.4
0.2 0.9 0.6
0.2 0.9 0.8
0.2 0.9 1
0.2 0.9 1.2
0.2 0.9 1.4
0.2 0.9 1.6
0.2 0.9 1.8
0.2 0.9 2
0.2 1 0
0.2 1 0.2
0.2 1 0.4
0.2 1 0.6
0.2 1 0.8
0.2 1 1
0.2 1 1.2
0.2 1 1.4
0.2 1 1.6
0.2 1 1.8
0.2 1 2
0.4 0 0
0.4 0 0.2
0.4 0 0.4
0.4 0 0.6
0.4 0 0.8
0.4 0 1
0.4 0 1.2
0.4 0 1.4
0.4 0 1.6
0.4 0 1.8
0.4 0 2
0.4 0.1 0
0.4 0.1 0.2
0.4 0.1 0.4
0.4 0.1 0.6
0.4 0.1 0.8
0.4 0.1 1
0.4 0.1 1.2
0.4 0.1 1.4
0.4 0.1 1.6
0.4 0.1 1.8
0.4 0.1 2
0.4 0.2 0
0.4 0.2 0.2
0.4 0.2 0.4
0.4 0.2 0.6
0.4 0.2 0.8
0.4 0.2 1
0.4 0.2 1.2
0.4 0.2 1.4
0.4 0.2 1.6
0.4 0.2 1.8
0.4 0.2 2
0.4 0.3 0
0.4 0.3 0.2
0.4 0.3 0.4
0.4 0.3 0.6
0.4 0.3 0.8
0.4 0.3 1
0.4 0.3 1.2
0.4 0.3 1.4
0.4 0.3 1.6
0.4 0.3 1.8
0.4 0.3 2
0.4 0.4 0
0.4 0.4 0.2
0.4 0.4 0.4
0.4 0.4 0.6
0.4 0.4 0.8
0.4 0.4 1
0.4 0.4 1.2
0.4 0.4 1.4
0.4 0.4 1.6
0.4 0.4 1.8
0.4 0.4 2
0.4 0.5 0
0.4 0.5 0.2
0.4 0.5 0.4
0.4 0.5 0.6
0.4 0.5 0.8
0.4 0.5 1
0.4 0.5 1.2
0.4 0.5 1.4
0.4 0.5 1.6
0.4 0.5 1.8
0.4 0.5 2
0.4 0.6 0
0.4 0.6 0.2
0.4 0.6 0.4
0.4 0.6 0.6
0.4 0.6 0.8
0.4 0.6 1
0.4 0.6 1.2
0.4 0.6 1.4
0.4 0.6 1.6
0.4 0.6 1.8
0.4 0.6 2
0.4 0.7 0
0.4 0.7 0.2
0.4 0.7 0.4
0.4 0.7 0.6
0.4 0.7 0.8
0.4 0.7 1
0.4 0.7 1.2
0.4 0.7 1.4
0.4 0.7 1.6
0.4 0.7 1.8
0.4 0.7 2
0.4 0.8 0
0.4 0.8 0.2
0.4 0.8 0.4
0.4 0.8 0.6
0.4 0.8 0.8
0.4 0.8 1
0.4 0.8 1.2
0.4 0.8 1.4
0.4 0.8 1.6
0.4 0.8 1.8
0.4 0.8 2
0.4 0.9 0
0.4 0.9 0.2
0.4 0.9 0.4
0.4 0.9 0.6
0.4 0.9 0.8
0.4 0.9 1
0.4 0.9 1.2
0.4 0.9 1.4
0.4 0.9 1.6
0.4 0.9 1.8
0.4 0.9 2
0.4 1 0
0.4 1 0.2
0.4 1 0.4
0.4 1 0.6
0.4 1 0.8
0.4 1 1
0.4 1 1.2
0.4 1 1.4
0.4 1 1.6
0.4 1 1.8
0.4 1 2
0.6 0 0
0.6 0 0.2
0.6 0 0.4
0.6 0 0.6
0.6 0 0.8
0.6 0 1
0.6 0 1.2
0.6 0 1.4
0.6 0 1.6
0.6 0 1.8
0.6 0 2
0.6 0.1 0
0.6 0.1 0.2
0.6 0.1 0.4
0.6 0.1 0.6
0.6 0.1 0.8
0.6 0.1 1
0.6 0.1 1.2
0.6 0.1 1.4
0.6 0.1 1.6
0.6 0.1 1.8
0.6 0.1 2
0.6 0.2 0
0.6 0.2 0.2
0.6 0.2 0.4
0.6 0.2 0.6
0.6 0.2 0.8
0.6 0.2 1
0.6 0.2 1.2
0.6 0.2 1.4
0.6 0.2 1.6
0.6 0.2 1.8
0.6 0.2 2
0.6 0.3 0
0.6 0.3 0.2
0.6 0.3 0.4
0.6 0.3 0.6
0.6 0.3 0.8
0.6 0.3 1
0.6 0.3 1.2
0.6 0.3 1.4
0.6 0.3 1.6
0.6 0.3 1.8
0.6 0.3 2
0.6 0.4 0
0.6 0.4 0.2
0.6 0.4 0.4
0.6 0.4 0.6
0.6 0.4 0.8
0.6 0.4 1
0.6 0.4 1.2
0.6 0.4 1.4
0.6 0.4 1.6
0.6 0.4 1.8
0.6 0.4 2
0.6 0.5 0
0.6 0.5 0.2
0.6 0.5 0.4
0.6 0.5 0.6
0.6 0.5 0.8
0.6 0.5 1
0.6 0.5 1.2
0.6 0.5 1.4
0.6 0.5 1.6
0.6 0.5 1.8
0.6 0.5 2
0.6 0.6 0
0.6 0.6 0.2
0.6 0.6 0.4
0.6 0.6 0.6
0.6 0.6 0.8
0.6 0.6 1
0.6 0.6 1.2
0.6 0.6 1.4
0.6 0.6 1.6
0.6 0.6 1.8
0.6 0.6 2
0.6 0.7 0
0.6 0.7 0.2
0.6 0.7 0.4
0.6 0.7 0.6
0.6 0.7 0.8
0.6 0.7 1
0.6 0.7 1.2
0.6 0.7 1.4
0.6 0.7 1.6
0.6 0.7 1.8
0.6 0.7 2
0.6 0.8 0
0.6 0.8 0.2
0.6 0.8 0.4
0.6 0.8 0.6
0.6 0.8 0.8
0.6 0.8 1
0.6 0.8 1.2
0.6 0.8 1.4
0.6 0.8 1.6
0.6 0.8 1.8
0.6 0.8 2
0.6 0.9 0
0.6 0.9 0.2
0.6 0.9 0.4
0.6 0.9 0.6
0.6 0.9 0.8
0.6 0.9 1
0.6 0.9 1.2
0.6 0.9 1.4
0.6 0.9 1.6
0.6 0.9 1.8
0.6 0.9 2
0.6 1 0
0.6 1 0.2
0.6 1 0.4
0.6 1 0.6
0.6 1 0.8
0.6 1 1
0.6 1 1.2
0.6 1 1.4
0.6 1 1.6
0.6 1 1.8
0.6 1 2
0.8 0 0
0.8 0 0.2
0.8 0 0.4
0.8 0 0.6
0.8 0 0.8
0.8 0 1
0.8 0 1.2
0.8 0 1.4
0.8 0 1.6
0.8 0 1.8
0.8 0 2
0.8 0.1 0
0.8 0.1 0.2
0.8 0.1 0.4
0.8 0.1 0.6
0.8 0.1 0.8
0.8 0.1 1
0.8 0.1 1.2
0.8 0.1 1.4
0.8 0.1 1.6
0.8 0.1 1.8
0.8 0.1 2
0.8 0.2 0
0.8 0.2 0.2
0.8 0.2 0.4
0.8 0.2 0.6
0.8 0.2 0.8
0.8 0.2 1
0.8 0.2 1.2
0.8 0.2 1.4
0.8 0.2 1.6
0.8 0.2 1.8
0.8 0.2 2
0.8 0.3 0
0.8 0.3 0.2
0.8 0.3 0.4
0.8 0.3 0.6
0.8 0.3 0.8
0.8 0.3 1
0.8 0.3 1.2
0.8 0.3 1.4
0.8 0.3 1.6
0.8 0.3 1.8
0.8 0.3 2
0.8 0.4 0
0.8 0.4 0.2
0.8 0.4 0.4
0.8 0.4 0.6
0.8 0.4 0.8
0.8 0.4 1
0.8 0.4 1.2
0.8 0.4 1.4
0.8 0.4 1.6
0.8 0.4 1.8
0.8 0.4 2
0.8 0.5 0
0.8 0.5 0.2
0.8 0.5 0.4
0.8 0.5 0.6
0.8 0.5 0.8
0.8 0.5 1
0.8 0.5 1.2
0.8 0.5 1.4
0.8 0.5 1.6
0.8 0.5 1.8
0.8 0.5 2
0.8 0.6 0
0.8 0.6 0.2
0.8 0.6 0.4
0.8 0.6 0.6
0.8 0.6 0.8
0.8 0.6 1
0.8 0.6 1.2
0.8 0.6 1.4
0.8 0.6 1.6
0.8 0.6 1.8
0.8 0.6 2
0.8 0.7 0
0.8 0.7 0.2
0.8 0.7 0.4
0.8 0.7 0.6
0.8 0.7 0.8
0.8 0.7 1
0.8 0.7 1.2
0.8 0.7 1.4
0.8 0.7 1.6
0.8 0.7 1.8
0.8 0.7 2
0.8 0.8 0
0.8 0.8 0.2
0.8 0.8 0.4
0.8 0.8 0.6
0.8 0.8 0.8
0.8 0.8 1
0.8 0.8 1.2
0.8 0.8 1.4
0.8 0.8 1.6
0.8 0.8 1.8
0.8 0.8 2
0.8 0.9 0
0.8 0.9 0.2
0.8 0.9 0.4
0.8 0.9 0.6
0.8 0.9 0.8
0.8 0.9 1
0.8 0.9 1.2
0.8 0.9 1.4
0.8 0.9 1.6
0.8 0.9 1.8
0.8 0.9 2
0.8 1 0
0.8 1 0.2
0.8 1 0.4
0.8 1 0.6
0.8 1 0.8
0.8 1 1
0.8 1 1.2
0.8 1 1.4
0.8 1 1.6
0.8 1 1.8
0.8 1 2
1 0 0
1 0 0.2
1 0 0.4
1 0 0.6
1 0 0.8
1 0 1
1 0 1.2
1 0 1.4
1 0 1.6
1 0 1.8
1 0 2
1 0.1 0
1 0.1 0.2
1 0.1 0.4
1 0.1 0.6
1 0.1 0.8
1 0.1 1
1 0.1 1.2
1 0.1 1.4
1 0.1 1.6
1 0.1 1.8
1 0.1 2
1 0.2 0
1 0.2 0.2
1 0.2 0.4
1 0.2 0.6
1 0.2 0.8
1 0.2 1
1 0.2 1.2
1 0.2 1.4
1 0.2 1.6
1 0.2 1.8
1 0.2 2
1 0.3 0
1 0.3 0.2
1 0.3 0.4
1 0.3 0.6
1 0.3 0.8
1 0.3 1
1 0.3 1.2
1 0.3 1.4
1 0.3 1.6
1 0.3 1.8
1 0.3 2
1 0.4 0
1 0.4 0.2
1 0.4 0.4
1 0.4 0.6
1 0.4 0.8
1 0.4 1
1 0.4 1.2
1 0.4 1.4
1 0.4 1.6
1 0.4 1.8
1 0.4 2
1 0.5 0
1 0.5 0.2
1 0.5 0.4
1 0.5 0.6
1 0.5 0.8
1 0.5 1
1 0.5 1.2
1 0.5 1.4
1 0.5 1.6
1 0.5 1.8
1 0.5 2
1 0.6 0
1 0.6 0.2
1 0.6 0.4
1 0.6 0.6
1 0.6 0.8
1 0.6 1
1 0.6 1.2
1 0.6 1.4
1 0.6 1.6
1 0.6 1.8
1 0.6 2
1 0.7 0
1 0.7 0.2
1 0.7 0.4
1 0.7 0.6
1 0.7 0.8
1 0.7 1
1 0.7 1.2
1 0.7 1.4
1 0.7 1.6
1 0.7 1.8
1 0.7 2
1 0.8 0
1 0.8 0.2
1 0.8 0.4
1 0.8 0.6
1 0.8 0.8
1 0.8 1
1 0.8 1.2
1 0.8 1.4
1 0.8 1.6
1 0.8 1.8
1 0.8 2
1 0.9 0
1 0.9 0.2
1 0.9 0.4
1 0.9 0.6
1 0.9 0.8
1 0.9 1
1 0.9 1.2
1 0.9 1.4
1 0.9 1.6
1 0.9 1.8
1 0.9 2
1 1 0
1 1 0.2
1 1 0.4
1 1 0.6
1 1 0.8
1 1 1
1 1 1.2
1 1 1.4
1 1 1.6
1 1 1.8
1 1 2
1.2 0 0
1.2 0 0.2
1.2 0 0.4
1.2 0 0.6
1.2 0 0.8
1.2 0 1
1.2 0 1.2
1.2 0 1.4
1.2 0 1.6
1.2 0 1.8
1.2 0 2
1.2 0.1 0
1.2 0.1 0.2
1.2 0.1 0.4
1.2 0.1 0.6
1.2 0.1 0.8
1.2 0.1 1
1.2 0.1 1.2
1.2 0.1 1.4
1.2 0.1 1.6
1.2 0.1 1.8
1.2 0.1 2
1.2 0.2 0
1.2 0.2 0.2
1.2 0.2 0.4
1.2 0.2 0.6
1.2 0.2 0.8
1.2 0.2 1
1.2 0.2 1.2
1.2 0.2 1.4
1.2 0.2 1.6
1.2 0.2 1.8
1.2 0.2 2
1.2 0.3 0
1.2 0.3 0.2
1.2 0.3 0.4
1.2 0.3 0.6
1.2 0.3 0.8
1.2 0.3 1
1.2 0.3 1.2
1.2 0.3 1.4
1.2 0.3 1.6
1.2 0.3 1.8
1.2 0.3 2
1.2 0.4 0
1.2 0.4 0.2
1.2 0.4 0.4
1.2 0.4 0.6
1.2 0.4 0.8
1.2 0.4 1
1.2 0.4 1.2
1.2 0.4 1.4
1.2 0.4 1.6
1.2 0.4 1.8
1.2 0.4 2
1.2 0.5 0
1.2 0.5 0.2
1.2 0.5 0.4
1.2 0.5 0.6
1.2 0.5 0.8
1.2 0.5 1
1.2 0.5 1.2
1.2 0.5 1.4
1.2 0.5 1.6
1.2 0.5 1.8
1.2 0.5 2
1.2 0.6 0
1.2 0.6 0.2
1.2 0.6 0.4
1.2 0.6 0.6
1.2 0.6 0.8
1.2 0.6 1
1.2 0.6 1.2
1.2 0.6 1.4
1.2 0.6 1.6
1.2 0.6 1.8
1.2 0.6 2
1.2 0.7 0
1.2 0.7 0.2
1.2 0.7 0.4
1.2 0.7 0.6
1.2 0.7 0.8
1.2 0.7 1
1.2 0.7 1.2
1.2 0.7 1.4
1.2 0.7 1.6
1.2 0.7 1.8
1.2 0.7 2
1.2 0.8 0
1.2 0.8 0.2
1.2 0.8 0.4
1.2 0.8 0.6
1.2 0.8 0.8
1.2 0.8 1
1.2 0.8 1.2
1.2 0.8 1.4
1.2 0.8 1.6
1.2 0.8 1.8
1.2 0.8 2
1.2 0.9 0
1.2 0.9 0.2
1.2 0.9 0.4
1.2 0.9 0.6
1.2 0.9 0.8
1.2 0.9 1
1.2 0.9 1.2
1.2 0.9 1.4
1.2 0.9 1.6
1.2 0.9 1.8
1.2 0.9 2
1.2 1 0
1.2 1 0.2
1.2 1 0.4
1.2 1 0.6
1.2 1 0.8
1.2 1 1
1.2 1 1.2
1.2 1 1.4
1.2 1 1.6
1.2 1 1.8
1.2 1 2
1.4 0 0
1.4 0 0.2
1.4 0 0.4
1.4 0 0.6
1.4 0 0.8
1.4 0 1
1.4 0 1.2
1.4 0 1.4
1.4 0 1.6
1.4 0 1.8
1.4 0 2
1.4 0.1 0
1.4 0.1 0.2
1.4 0.1 0.4
1.4 0.1 0.6
1.4 0.1 0.8
1.4 0.1 1
1.4 0.1 1.2
1.4 0.1 1.4
1.4 0.1 1.6
1.4 0.1 1.8
1.4 0.1 2
1.4 0.2 0
1.4 0.2 0.2
1.4 0.2 0.4
1.4 0.2 0.6
1.4 0.2 0.8
1.4 0.2 1
1.4 0.2 1.2
1.4 0.2 1.4
1.4 0.2 1.6
1.4 0.2 1.8
1.4 0.2 2
1.4 0.3 0
1.4 0.3 0.2
1.4 0.3 0.4
1.4 0.3 0.6
1.4 0.3 0.8
1.4 0.3 1
1.4 0.3 1.2
1.4 0.3 1.4
1.4 0.3 1.6
1.4 0.3 1.8
1.4 0.3 2
1.4 0.4 0
1.4 0.4 0.2
1.4 0.4 0.4
1.4 0.4 0.6
1.4 0.4 0.8
1.4 0.4 1
1.4 0.4 1.2
1.4 0.4 1.4
1.4 0.4 1.6
1.4 0.4 1.8
1.4 0.4 2
1.4 0.5 0
1.4 0.5 0.2
1.4 0.5 0.4
1.4 0.5 0.6
1.4 0.5 0.8
1.4 0.5 1
1.4 0.5 1.2
1.4 0.5 1.4
1.4 0.5 1.6
1.4 0.5 1.8
1.4 0.5 2
1.4 0.6 0
1.4 0.6 0.2
1.4 0.6 0.4
1.4 0.6 0.6
1.4 0.6 0.8
1.4 0.6 1
1.4 0.6 1.2
1.4 0.6 1.4
1.4 0.6 1.6
1.4 0.6 1.8
1.4 0.6 2
1.4 0.7 0
1.4 0.7 0.2
1.4 0.7 0.4
1.4 0.7 0.6
1.4 0.7 0.8
1.4 0.7 1
1.4 0.7 1.2
1.4 0.7 1.4
1.4 0.7 1.6
1.4 0.7 1.8
[...]
POINT_DATA 12342

SCALARS v double
LOOKUP_TABLE default
-0
0.00961513
0.00975924
0.00975234
0.00974655
0.00974495
0.00974654
0.00975242
0.00976157
0.00962133
-0
0
-0.00961513
-0.00975924
-0.00975234
-0.00974655
-0.00974495
-0.00974654
-0.00975242
-0.00976157
-0.00962133
0
0
-0.00544423
-0.00552347
-0.00552514
-0.00552186
-0.00552064
-0.00552165
-0.00552482
-0.00552368
-0.00544737
0
0
-0.00218927
-0.0022279
-0.00223086
-0.00222926
-0.00222849
-0.002229
-0.00223035
-0.002227
-0.0021905
0
0
0.00056174
0.000551515
0.000550498
0.000551114
0.000551476
0.000551392
0.000551154
0.000553108
0.000561889
0
0
0.00325433
0.00326898
0.00327082
0.00327072
0.00327069
0.00327101
0.00327159
0.00327111
0.00325568
0
0
0.00629437
0.00633762
0.00634147
0.00634038
0.00633992
0.00634065
0.00634228
0.00634017
0.006297
0
0
0.0102026
0.0102868
0.0102895
0.0102866
0.0102857
0.0102868
0.0102902
0.0102895
0.0102068
0
0
0.0155712
0.0157208
0.0157148
0.0157092
0.0157076
0.0157092
0.015715
0.0157225
0.0155773
0
0
0
0
0
0
0
0
0
0
0
0
-0
-0
-0
-0
-0
-0
-0
-0
-0
-0
-0
-0
-0.00961513
-0.00975924
-0.00975234
-0.00974655
-0.00974495
-0.00974654
-0.00975242
-0.00976157
-0.00962133
-0
0
0.0120903
0.0124002
0.0123749
0.0123604
0.0123566
0.0123599
0.0123739
0.0124047
0.0121272
0
0
0.00701195
0.00719141
0.00718676
0.00717683
0.00717364
0.00717596
0.00718539
0.00719304
0.00703415
0
0
0.00298427
0.00307397
0.00307545
0.00306958
0.00306738
0.00306879
0.00307408
0.0030731
0.00299553
0
0
-0.000410213
-0.000387476
-0.00038758
-0.000390108
-0.00039115
-0.000390738
-0.000389015
-0.000390787
-0.000407887
0
0
-0.00372102
-0.0037588
-0.00376292
-0.00376238
-0.0037622
-0.00376285
-0.00376445
-0.00376446
-0.00372697
0
0
-0.00744924
-0.00755575
-0.00756162
-0.00755757
-0.00755614
-0.00755783
-0.00756305
-0.00756318
-0.00746377
0
0
-0.0122371
-0.0124376
-0.0124373
-0.0124286
-0.0124259
-0.0124286
-0.012438
-0.0124451
-0.0122613
0
0
-0.0187196
-0.0190587
-0.0190365
-0.0190219
-0.0190179
-0.0190212
-0.0190354
-0.0190621
-0.0187547
0
0
0
0
0
0
0
0
0
0
0
0
-0
-0
-0
-0
-0
-0
-0
-0
-0
-0
-0
-0
-0.00158303
-0.00164582
-0.00164837
-0.00164586
-0.00164472
-0.00164544
-0.00164748
-0.00164467
-0.00158328
-0
0
0.00256309
0.00271481
0.00271253
0.00270381
0.00270052
0.00270233
0.00270949
0.00271179
0.00257564
0
0
0.00227189
0.00237855
0.00238343
0.00237776
0.00237545
0.00237727
0.00238287
0.00238045
0.00228446
0
0
0.000989079
0.00104899
0.00105421
0.00105095
0.00104951
0.00105084
0.00105438
0.00105116
0.000997964
0
0
-0.000674664
-0.000658113
-0.000656681
-0.000658093
-0.000658652
-0.00065802
-0.000656415
-0.000657206
-0.000670603
0
0
-0.00243841
-0.00246383
-0.00246755
-0.0024673
-0.00246695
-0.00246705
-0.00246725
-0.00246427
-0.00243932
0
0
-0.00408787
-0.0041576
-0.00416524
-0.00416301
-0.00416169
-0.00416248
-0.0041646
-0.00415869
-0.00409352
0
0
-0.00527396
-0.00539286
-0.00540048
-0.00539558
-0.00539327
-0.00539465
-0.00539901
-0.00539326
-0.00528375
0
0
-0.00520367
-0.00537292
-0.00537395
-0.00536585
-0.00536263
-0.00536448
-0.00537132
-0.00537097
-0.00521632
0
0
0
0
0
0
0
0
0
0
0
0
-0
-0
-0
-0
-0
-0
-0
-0
-0
-0
-0
-0
-6.45813e-05
-9.14955e-05
-9.77512e-05
-9.82054e-05
-9.79545e-05
-9.80417e-05
-9.74734e-05
-9.1285e-05
-6.45095e-05
-0
0
0.000289456
0.000363177
0.000373883
0.00037195
0.000370451
0.000371361
0.000373007
0.000363561
0.00029708
0
0
0.000322869
0.000376075
0.000385983
0.000384909
0.000383853
0.000384709
0.000385967
0.000377733
0.000329653
0
0
-3.65593e-05
-5.5839e-06
1.16874e-06
5.96048e-07
-2.45583e-08
6.7886e-07
1.64539e-06
-3.69695e-06
-3.13732e-05
0
0
-0.000612111
-0.000603579
-0.000601577
-0.000601994
-0.000602214
-0.000601744
-0.000600948
-0.000602192
-0.000609152
0
0
-0.001223
-0.00123695
-0.00124032
-0.00124072
-0.00124056
-0.00124036
-0.00123969
-0.00123634
-0.00122259
0
0
-0.00168344
-0.00172021
-0.00172854
-0.0017288
-0.00172825
-0.00172834
-0.0017279
-0.00172029
-0.00168564
0
0
-0.00178176
-0.00184151
-0.00185341
-0.0018532
-0.00185225
-0.00185264
-0.00185266
-0.00184197
-0.0017864
0
0
-0.00128455
-0.00136592
-0.00137913
-0.00137808
-0.00137674
-0.00137743
-0.00137819
-0.00136624
-0.00129129
0
0
0
0
0
0
0
0
0
0
0
0
-0
-0
-0
-0
-0
-0
-0
-0
-0
-0
-0
-0
6.86829e-05
5.69167e-05
5.1193e-05
4.94093e-05
4.90883e-05
4.94387e-05
5.12014e-05
5.68248e-05
6.90673e-05
-0
0
-5.7413e-05
-2.10165e-05
-7.77667e-06
-5.29075e-06
-5.19289e-06
-5.24975e-06
-7.33158e-06
-1.91199e-05
-5.2695e-05
0
0
-9.38307e-05
-6.78812e-05
-5.7755e-05
-5.58384e-05
-5.57551e-05
-5.572e-05
-5.72022e-05
-6.6068e-05
-8.99053e-05
0
0
-0.0002257
-0.000210599
-0.000204344
-0.000203205
-0.000203153
-0.000203021
-0.000203761
-0.000209091
-0.000222696
0
0
-0.000414691
-0.000410638
-0.000408773
-0.000408588
-0.000408597
-0.000408381
-0.00040828
-0.000409651
-0.000412832
0
0
-0.00059497
-0.000602038
-0.000604799
-0.000605649
-0.000605739
-0.000605456
-0.000604482
-0.00060171
-0.000594432
0
0
-0.000691423
-0.00070957
-0.00071687
-0.000718712
-0.000718883
-0.000718554
-0.000716764
-0.000709944
-0.000692295
0
0
-0.00063457
-0.000663611
-0.000675051
-0.000677728
-0.000677967
-0.000677613
-0.000675136
-0.000664632
-0.000636846
0
0
-0.00038504
-0.000424554
-0.000439416
-0.000442702
-0.000442985
-0.000442627
-0.000439634
-0.000426043
-0.000388672
0
0
0
0
0
0
0
0
0
0
0
0
-0
-0
-0
-0
-0
-0
-0
-0
-0
-0
-0
-0
3.63999e-05
3.11608e-05
2.70815e-05
2.51504e-05
2.46265e-05
2.51351e-05
2.70224e-05
3.10599e-05
3.70736e-05
-0
0
-9.19682e-05
-7.39917e-05
-6.28966e-05
-5.86742e-05
-5.7638e-05
-5.83238e-05
-6.19305e-05
-7.18794e-05
-8.94573e-05
0
0
-0.000132531
-0.000119784
-0.000111689
-0.000108624
-0.000107873
-0.000108327
-0.000110887
-0.00011811
-0.000130376
0
0
-0.000189765
-0.000182348
-0.000177491
-0.000175697
-0.000175255
-0.000175463
-0.000176892
-0.000181157
-0.000188032
0
0
-0.000252766
-0.000250743
-0.000249274
-0.00024883
-0.000248718
-0.000248677
-0.000248923
-0.000250079
-0.000251566
0
0
-0.000300189
-0.000303574
-0.000305578
-0.000306523
-0.000306752
-0.000306467
-0.000305509
-0.000303481
-0.000299618
0
0
-0.000307891
-0.000316626
-0.000322107
-0.000324427
-0.000324996
-0.000324476
-0.000322334
-0.000317139
-0.000308002
0
0
-0.000257401
-0.000271388
-0.000280267
-0.000283896
-0.000284791
-0.000284049
-0.000280777
-0.000272519
-0.000258203
0
0
-0.000145625
-0.000164772
-0.000176841
-0.000181663
-0.000182857
-0.000181909
-0.000177594
-0.000166487
-0.000147114
0
0
0
0
0
0
0
0
0
0
0
0
-0
-0
-0
-0
-0
-0
-0
-0
-0
-0
-0
-0
3.15131e-06
8.03189e-07
-1.81992e-06
-3.39445e-06
-3.89475e-06
-3.41679e-06
-1.87557e-06
7.60924e-07
4.02735e-06
-0
0
-8.31445e-05
-7.42617e-05
-6.62392e-05
-6.20106e-05
-6.06616e-05
-6.15437e-05
-6.51531e-05
-7.23727e-05
-8.2161e-05
0
0
-0.000107824
-0.000101459
-9.57053e-05
-9.2679e-05
-9.17123e-05
-9.23211e-05
-9.48763e-05
-0.000100072
-0.000106824
0
0
-0.000132798
-0.000129027
-0.0001256
-0.000123832
-0.000123266
-0.000123592
-0.000125051
-0.000128112
-0.000131846
0
0
-0.000153578
-0.00015244
-0.000151373
-0.000150894
-0.000150738
-0.000150779
-0.000151118
-0.000151979
-0.000152756
0
0
-0.000163133
-0.000164633
-0.000165959
-0.000166783
-0.000167042
-0.000166798
-0.000166007
-0.000164629
-0.000162506
0
0
-0.00015434
-0.000158442
-0.000162186
-0.000164311
-0.000164983
-0.000164456
-0.000162537
-0.000158918
-0.000153939
0
0
-0.000122961
-0.000129617
-0.000135791
-0.000139193
-0.000140268
-0.000139461
-0.000136434
-0.000130609
-0.000122784
0
0
-7.0522e-05
-7.9701e-05
-8.82657e-05
-9.28895e-05
-9.43488e-05
-9.32717e-05
-8.91765e-05
-8.12454e-05
-7.05609e-05
0
0
0
0
0
0
0
0
0
0
0
0
-0
-0
-0
-0
-0
-0
-0
-0
-0
-0
-0
-0
-1.71923e-05
-1.81983e-05
-1.97964e-05
-2.0914e-05
-2.13006e-05
-2.0928e-05
-1.98253e-05
-1.81751e-05
-1.61838e-05
-0
0
-7.2442e-05
-6.81253e-05
-6.27259e-05
-5.92467e-05
-5.79747e-05
-5.87716e-05
-6.17056e-05
-6.65724e-05
-7.24892e-05
0
0
-8.40575e-05
-8.08532e-05
-7.70126e-05
-7.45387e-05
-7.36324e-05
-7.41877e-05
-7.62622e-05
-7.97679e-05
-8.38183e-05
0
0
-9.3798e-05
-9.18017e-05
-8.95104e-05
-8.80645e-05
-8.7534e-05
-8.7843e-05
-8.90395e-05
-9.11163e-05
-9.33415e-05
0
0
-9.95149e-05
-9.8779e-05
-9.80334e-05
-9.76233e-05
-9.74726e-05
-9.75346e-05
-9.78436e-05
-9.84476e-05
-9.89169e-05
0
0
-9.87327e-05
-9.92709e-05
-0.000100087
-0.000100717
-0.000100947
-0.000100761
-0.000100175
-9.92797e-05
-9.80446e-05
0
0
-8.93926e-05
-9.11851e-05
-9.3591e-05
-9.52633e-05
-9.58707e-05
-9.54353e-05
-9.39525e-05
-9.15521e-05
-8.86348e-05
0
0
-7.0748e-05
-7.37596e-05
-7.77932e-05
-8.05007e-05
-8.14794e-05
-8.07937e-05
-7.84181e-05
-7.45325e-05
-6.99096e-05
0
0
-4.41368e-05
-4.83389e-05
-5.40192e-05
-5.77365e-05
-5.90743e-05
-5.81416e-05
-5.48926e-05
-4.95873e-05
-4.31965e-05
0
0
0
0
0
0
0
0
0
0
0
0
-0
-0
-0
-0
-0
-0
-0
-0
-0
-0
-0
-0
-2.82836e-05
-2.86382e-05
-2.95803e-05
-3.03117e-05
-3.05765e-05
-3.03134e-05
-2.95799e-05
-2.85615e-05
-2.71975e-05
-0
0
-6.50494e-05
-6.30958e-05
-5.96036e-05
-5.70257e-05
-5.59928e-05
-5.65944e-05
-5.87196e-05
-6.18702e-05
-6.57817e-05
0
0
-6.90185e-05
-6.74399e-05
-6.49679e-05
-6.31412e-05
-6.24079e-05
-6.28284e-05
-6.43313e-05
-6.66187e-05
-6.92832e-05
0
0
-7.15244e-05
-7.04343e-05
-6.89481e-05
-6.78796e-05
-6.7451e-05
-6.76886e-05
-6.8561e-05
-6.99303e-05
-7.13912e-05
0
0
-7.15259e-05
-7.09893e-05
-7.04742e-05
-7.01627e-05
-7.00393e-05
-7.0094e-05
-7.03313e-05
-7.07444e-05
-7.10664e-05
0
0
-6.80807e-05
-6.81207e-05
-6.85866e-05
-6.90327e-05
-6.92132e-05
-6.90837e-05
-6.86802e-05
-6.81135e-05
-6.7341e-05
0
0
-6.05852e-05
-6.1191e-05
-6.26667e-05
-6.38717e-05
-6.4353e-05
-6.40368e-05
-6.29889e-05
-6.14375e-05
-5.95806e-05
0
0
-4.90286e-05
-5.01686e-05
-5.26978e-05
-5.46619e-05
-5.54393e-05
-5.49335e-05
-5.32408e-05
-5.07217e-05
-4.77433e-05
0
0
-3.41796e-05
-3.58192e-05
-3.9441e-05
-4.21533e-05
-4.32192e-05
-4.25235e-05
-4.01949e-05
-3.67639e-05
-3.25872e-05
0
0
0
0
0
0
0
0
0
0
0
0
-0
-0
-0
-0
-0
-0
-0
-0
-0
-0
-0
-0
-3.39986e-05
-3.4009e-05
-3.45468e-05
-3.49995e-05
-3.51661e-05
-3.49894e-05
-3.45209e-05
-3.38904e-05
-3.28541e-05
-0
0
-6.04483e-05
-5.97694e-05
-5.75659e-05
-5.57712e-05
-5.49994e-05
-5.54018e-05
-5.68307e-05
-5.88218e-05
-6.16428e-05
0
0
-6.04466e-05
-5.97458e-05
-5.81934e-05
-5.69253e-05
-5.63789e-05
-5.66604e-05
-5.76715e-05
-5.9138e-05
-6.10513e-05
0
0
-5.95682e-05
-5.89672e-05
-5.80211e-05
-5.7279e-05
-5.69605e-05
-5.71206e-05
-5.77103e-05
-5.86027e-05
-5.96506e-05
0
0
-5.73133e-05
-5.68855e-05
-5.65273e-05
-5.63067e-05
-5.62149e-05
-5.62537e-05
-5.6419e-05
-5.67001e-05
-5.69424e-05
0
0
-5.32997e-05
-5.30742e-05
-5.33117e-05
-5.36113e-05
-5.3744e-05
-5.366e-05
-5.33959e-05
-5.3043e-05
-5.25187e-05
0
0
-4.73455e-05
-4.73159e-05
-4.81775e-05
-4.89989e-05
-4.93528e-05
-4.91432e-05
-4.84456e-05
-4.74543e-05
-4.61674e-05
0
0
-3.95399e-05
-3.96759e-05
-4.12067e-05
-4.2552e-05
-4.31233e-05
-4.27844e-05
-4.16518e-05
-4.00393e-05
-3.79473e-05
0
0
-3.02873e-05
-3.05528e-05
-3.28005e-05
-3.46643e-05
-3.5447e-05
-3.49773e-05
-3.34149e-05
-3.12332e-05
-2.82529e-05
0
0
0
0
0
0
0
0
0
0
0
0
-0
-0
-0
-0
-0
-0
-0
-0
-0
-0
-0
-0
-3.6778e-05
-3.66025e-05
-3.68967e-05
-3.71643e-05
-3.7261e-05
-3.71443e-05
-3.68506e-05
-3.6453e-05
-3.5597e-05
-0
0
-5.75647e-05
-5.76073e-05
-5.62457e-05
-5.5044e-05
-5.44943e-05
-5.47375e-05
-5.56469e-05
-5.68851e-05
-5.90849e-05
0
0
-5.56379e-05
-5.54341e-05
-5.44812e-05
-5.3635e-05
-5.32472e-05
-5.3417e-05
-5.40609e-05
-5.49944e-05
-5.64795e-05
0
0
-5.32188e-05
-5.28956e-05
-5.23015e-05
-5.18067e-05
-5.15816e-05
-5.16781e-05
-5.20554e-05
-5.26373e-05
-5.34491e-05
0
0
-5.00737e-05
-4.97097e-05
-4.9455e-05
-4.93056e-05
-4.92415e-05
-4.92649e-05
-4.93727e-05
-4.95659e-05
-4.97606e-05
0
0
-4.60432e-05
-4.56713e-05
-4.57631e-05
-4.59572e-05
-4.60513e-05
-4.60001e-05
-4.58334e-05
-4.56155e-05
-4.52287e-05
0
0
-4.10736e-05
-4.06895e-05
-4.11556e-05
-4.16947e-05
-4.19438e-05
-4.18149e-05
-4.13699e-05
-4.07368e-05
-3.97693e-05
0
0
-3.52357e-05
-3.48088e-05
-3.56945e-05
-3.65814e-05
-3.69819e-05
-3.67715e-05
-3.60464e-05
-3.50159e-05
-3.34232e-05
0
0
-2.87343e-05
-2.82272e-05
-2.95852e-05
-3.08176e-05
-3.13647e-05
-3.10704e-05
-3.00682e-05
-2.86898e-05
-2.63857e-05
0
0
0
0
0
0
0
0
0
0
0
0
-0
-0
-0
-0
-0
-0
-0
-0
-0
-0
-0
-0
-3.79931e-05
-3.77161e-05
-3.78655e-05
-3.8016e-05
-3.80666e-05
-3.79884e-05
-3.78041e-05
-3.75447e-05
-3.67924e-05
-0
0
-5.564e-05
-5.6111e-05
-5.52896e-05
-5.45047e-05
-5.41232e-05
-5.42544e-05
-5.48066e-05
-5.55676e-05
-5.73996e-05
0
0
-5.2836e-05
-5.29262e-05
-5.23581e-05
-5.18083e-05
-5.15403e-05
-5.16312e-05
-5.20226e-05
-5.26179e-05
-5.3849e-05
0
0
-4.97488e-05
-4.95914e-05
-4.92237e-05
-4.8903e-05
-4.87486e-05
-4.87999e-05
-4.90302e-05
-4.94145e-05
-5.00853e-05
0
0
-4.62766e-05
-4.59544e-05
-4.57675e-05
-4.56694e-05
-4.56266e-05
-4.56383e-05
-4.57047e-05
-4.58409e-05
-4.60052e-05
0
0
-4.23564e-05
-4.19044e-05
-4.19051e-05
-4.20275e-05
-4.20935e-05
-4.20639e-05
-4.19616e-05
-4.18273e-05
-4.15187e-05
0
0
-3.7977e-05
-3.73916e-05
-3.76074e-05
-3.79518e-05
-3.81231e-05
-3.80493e-05
-3.77743e-05
-3.73658e-05
-3.65836e-05
0
0
-3.31839e-05
-3.24328e-05
-3.29088e-05
-3.3478e-05
-3.37512e-05
-3.36294e-05
-3.31801e-05
-3.25155e-05
-3.12143e-05
0
0
-2.80813e-05
-2.71224e-05
-2.79137e-05
-2.87075e-05
-2.90785e-05
-2.89058e-05
-2.82842e-05
-2.74112e-05
-2.55041e-05
0
0
0
0
0
0
0
0
0
0
0
0
-0
-0
-0
-0
-0
-0
-0
-0
-0
-0
-0
-0
-3.83762e-05
-3.80439e-05
-3.81081e-05
-3.81869e-05
-3.82084e-05
-3.81536e-05
-3.80358e-05
-3.78576e-05
-3.71673e-05
-0
0
-5.42461e-05
-5.49666e-05
-5.44869e-05
-5.39816e-05
-5.37194e-05
-5.37781e-05
-5.40975e-05
-5.45614e-05
-5.61689e-05
0
0
-5.10689e-05
-5.13329e-05
-5.1008e-05
-5.06571e-05
-5.04741e-05
-5.0514e-05
-5.07405e-05
-5.11248e-05
-5.22006e-05
0
0
-4.77169e-05
-4.76596e-05
-4.74355e-05
-4.72319e-05
-4.71277e-05
-4.71495e-05
-4.72836e-05
-4.75442e-05
-4.81281e-05
0
0
-4.41523e-05
-4.38581e-05
-4.37151e-05
-4.36522e-05
-4.36248e-05
-4.36285e-05
-4.36672e-05
-4.3767e-05
-4.39114e-05
0
0
-4.03552e-05
-3.98602e-05
-3.9805e-05
-3.98806e-05
-3.9927e-05
-3.99109e-05
-3.98494e-05
-3.97663e-05
-3.95034e-05
0
0
-3.63299e-05
-3.56307e-05
-3.56905e-05
-3.59059e-05
-3.60228e-05
-3.5984e-05
-3.58185e-05
-3.55488e-05
-3.4877e-05
0
0
-3.21049e-05
-3.11685e-05
-3.13879e-05
-3.17462e-05
-3.193e-05
-3.18648e-05
-3.15938e-05
-3.11557e-05
-3.00299e-05
0
0
-2.77337e-05
-2.65161e-05
-2.69517e-05
-2.74535e-05
-2.77008e-05
-2.76061e-05
-2.72308e-05
-2.66709e-05
-2.50039e-05
0
0
0
0
0
0
0
0
0
0
0
0
-0
-0
-0
-0
-0
-0
-0
-0
-0
-0
-0
-0
-3.83099e-05
-3.79484e-05
-3.79631e-05
-3.79989e-05
-3.80025e-05
-3.79616e-05
-3.78831e-05
-3.77525e-05
-3.71011e-05
-0
0
-5.3131e-05
-5.39949e-05
-5.37286e-05
-5.34055e-05
-5.32248e-05
-5.32396e-05
-5.34128e-05
-5.36945e-05
-5.51608e-05
0
0
-4.98185e-05
-5.01844e-05
-5.00115e-05
-4.97901e-05
-4.96652e-05
-4.96741e-05
-4.97971e-05
-5.00516e-05
-5.10296e-05
0
0
-4.63859e-05
-4.63889e-05
-4.62549e-05
-4.61276e-05
-4.60578e-05
-4.60617e-05
-4.61352e-05
-4.63193e-05
-4.68482e-05
0
0
-4.28258e-05
-4.25508e-05
-4.24361e-05
-4.23965e-05
-4.23796e-05
-4.23784e-05
-4.23994e-05
-4.24763e-05
-4.26073e-05
0
0
-3.91387e-05
-3.86219e-05
-3.85331e-05
-3.85788e-05
-3.86121e-05
-3.86041e-05
-3.85677e-05
-3.85154e-05
-3.82799e-05
0
0
-3.53346e-05
-3.45729e-05
-3.4537e-05
-3.46693e-05
-3.47493e-05
-3.47316e-05
-3.46341e-05
-3.44491e-05
-3.38452e-05
0
0
-3.14329e-05
-3.03931e-05
-3.0454e-05
-3.06759e-05
-3.07993e-05
-3.07683e-05
-3.06083e-05
-3.03088e-05
-2.92915e-05
0
0
-2.74618e-05
-2.60992e-05
-2.63139e-05
-2.66268e-05
-2.67903e-05
-2.67428e-05
-2.65213e-05
-2.61528e-05
-2.46356e-05
0
0
0
0
0
0
0
0
0
0
0
0
-0
-0
-0
-0
-0
-0
-0
-0
-0
-0
-0
-0
-3.79928e-05
-3.76172e-05
-3.76034e-05
-3.76139e-05
-3.76067e-05
-3.75739e-05
-3.75183e-05
-3.74154e-05
-3.67902e-05
-0
0
-5.21534e-05
-5.30971e-05
-5.29628e-05
-5.27562e-05
-5.26298e-05
-5.26196e-05
-5.27038e-05
-5.28754e-05
-5.42497e-05
0
0
-4.88156e-05
-4.92399e-05
-4.9161e-05
-4.90224e-05
-4.89363e-05
-4.89275e-05
-4.89874e-05
-4.91631e-05
-5.00775e-05
0
0
-4.53848e-05
-4.5424e-05
-4.53459e-05
-4.52675e-05
-4.52206e-05
-4.52143e-05
-4.52509e-05
-4.53881e-05
-4.58813e-05
0
0
-4.18683e-05
-4.16068e-05
-4.15103e-05
-4.14857e-05
-4.1476e-05
-4.1472e-05
-4.1482e-05
-4.15446e-05
-4.16666e-05
0
0
-3.82761e-05
-3.77499e-05
-3.76415e-05
-3.76685e-05
-3.76931e-05
-3.76897e-05
-3.76683e-05
-3.76345e-05
-3.74161e-05
0
0
-3.46206e-05
-3.38269e-05
-3.37331e-05
-3.38128e-05
-3.38685e-05
-3.38627e-05
-3.38064e-05
-3.36727e-05
-3.31119e-05
0
0
-3.09164e-05
-2.9822e-05
-2.97862e-05
-2.99216e-05
-3.0005e-05
-2.99935e-05
-2.9901e-05
-2.96853e-05
-2.87376e-05
0
0
-2.71794e-05
-2.57396e-05
-2.58188e-05
-2.60117e-05
-2.61196e-05
-2.60991e-05
-2.59711e-05
-2.57183e-05
-2.42979e-05
0
0
0
0
0
0
0
0
0
0
0
0
-0
-0
-0
-0
-0
-0
-0
-0
-0
-0
-0
-0
-3.75278e-05
-3.7147e-05
-3.7117e-05
-3.71128e-05
-3.70992e-05
-3.70711e-05
-3.70288e-05
-3.69421e-05
-3.63359e-05
-0
0
-5.12347e-05
-5.22194e-05
-5.21661e-05
-5.20329e-05
-5.19424e-05
-5.19189e-05
-5.19505e-05
-5.20564e-05
-5.33677e-05
0
0
-4.79213e-05
-4.83776e-05
-4.83562e-05
-4.82698e-05
-4.82092e-05
-4.81912e-05
-4.82137e-05
-4.83419e-05
-4.92129e-05
0
0
-4.45285e-05
-4.45891e-05
-4.45455e-05
-4.44981e-05
-4.44663e-05
-4.44546e-05
-4.44691e-05
-4.4578e-05
-4.50467e-05
0
0
-4.10707e-05
-4.08191e-05
-4.07343e-05
-4.07194e-05
-4.07144e-05
-4.07089e-05
-4.07123e-05
-4.0766e-05
-4.08817e-05
0
0
-3.75619e-05
-3.7034e-05
-3.69145e-05
-3.69298e-05
-3.69488e-05
-3.69479e-05
-3.69354e-05
-3.69125e-05
-3.67053e-05
0
0
-3.4016e-05
-3.32088e-05
-3.30807e-05
-3.31275e-05
-3.31672e-05
-3.31679e-05
-3.3136e-05
-3.30331e-05
-3.25008e-05
0
0
-3.04449e-05
-2.93256e-05
-2.92316e-05
-2.93129e-05
-2.93699e-05
-2.93689e-05
-2.93164e-05
-2.91512e-05
-2.82501e-05
0
0
-2.68584e-05
-2.53827e-05
-2.53794e-05
-2.5497e-05
-2.55685e-05
-2.55626e-05
-2.54899e-05
-2.53064e-05
-2.3952e-05
0
0
0
0
0
0
0
0
0
0
0
0
-0
-0
-0
-0
-0
-0
-0
-0
-0
-0
-0
-0
-3.69686e-05
-3.65878e-05
-3.65487e-05
-3.65361e-05
-3.65189e-05
-3.64934e-05
-3.64588e-05
-3.63819e-05
-3.57909e-05
-0
0
-5.03305e-05
-5.13326e-05
-5.13284e-05
-5.12412e-05
-5.11744e-05
-5.11445e-05
-5.11458e-05
-5.1213e-05
-5.24783e-05
0
0
-4.7064e-05
-4.75361e-05
-4.75494e-05
-4.74958e-05
-4.74519e-05
-4.74294e-05
-4.74305e-05
-4.75304e-05
-4.83699e-05
0
0
-4.3725e-05
-4.3798e-05
-4.37755e-05
-4.37474e-05
-4.37255e-05
-4.37113e-05
-4.37131e-05
-4.38048e-05
-4.42559e-05
0
0
-4.03313e-05
-4.00875e-05
-4.00105e-05
-4.00016e-05
-3.99997e-05
-3.99936e-05
-3.99932e-05
-4.00413e-05
-4.01524e-05
0
0
-3.68989e-05
-3.63738e-05
-3.62486e-05
-3.62567e-05
-3.6272e-05
-3.62723e-05
-3.62649e-05
-3.62484e-05
-3.60491e-05
0
0
-3.3442e-05
-3.26326e-05
-3.24848e-05
-3.25113e-05
-3.25405e-05
-3.25444e-05
-3.25265e-05
-3.24421e-05
-3.19302e-05
0
0
-2.99711e-05
-2.88451e-05
-2.87169e-05
-2.87645e-05
-2.88044e-05
-2.88086e-05
-2.87791e-05
-2.86442e-05
-2.77766e-05
0
0
-2.64933e-05
-2.5007e-05
-2.49541e-05
-2.50249e-05
-2.50727e-05
-2.5074e-05
-2.50334e-05
-2.48911e-05
-2.35846e-05
0
0
0
0
0
0
0
0
0
0
0
0
-0
-0
-0
-0
-0
-0
-0
-0
-0
-0
-0
-0
-3.63433e-05
-3.59655e-05
-3.59217e-05
-3.59044e-05
-3.58852e-05
-3.58613e-05
-3.58311e-05
-3.57601e-05
-3.51825e-05
-0
0
-4.94161e-05
-5.04206e-05
-5.0446e-05
-5.03875e-05
-5.03362e-05
-5.0304e-05
-5.02883e-05
-5.03331e-05
-5.1562e-05
0
0
-4.62066e-05
-4.66843e-05
-4.67185e-05
-4.66852e-05
-4.66524e-05
-4.66282e-05
-4.66173e-05
-4.67003e-05
-4.75151e-05
0
0
-4.29286e-05
-4.30083e-05
-4.29987e-05
-4.29826e-05
-4.29672e-05
-4.29521e-05
-4.29469e-05
-4.3028e-05
-4.34655e-05
0
0
-3.96012e-05
-3.93639e-05
-3.92922e-05
-3.92871e-05
-3.92872e-05
-3.92808e-05
-3.92783e-05
-3.93228e-05
-3.94305e-05
0
0
-3.62413e-05
-3.57218e-05
-3.55941e-05
-3.55979e-05
-3.56107e-05
-3.56116e-05
-3.56071e-05
-3.55943e-05
-3.5401e-05
0
0
-3.28629e-05
-3.20585e-05
-3.19001e-05
-3.1914e-05
-3.19363e-05
-3.19416e-05
-3.19317e-05
-3.18583e-05
-3.13621e-05
0
0
-2.94761e-05
-2.83548e-05
-2.82071e-05
-2.82339e-05
-2.82626e-05
-2.82689e-05
-2.82526e-05
-2.81358e-05
-2.72942e-05
0
0
-2.60865e-05
-2.46053e-05
-2.45232e-05
-2.4565e-05
-2.45973e-05
-2.46016e-05