# vtk DataFile Version 2.0
FlowField
ASCII
DATASET STRUCTURED_GRID
DIMENSIONS 62 47 32 
POINTS 93248 double
0 0 0
0.01 0 0
0.02 0 0
0.03 0 0
0.04 0 0
0.05 0 0
0.06 0 0
0.07 0 0
0.08 0 0
0.09 0 0
0.1 0 0
0.11 0 0
0.12 0 0
0.13 0 0
0.14 0 0
0.15 0 0
0.16 0 0
0.17 0 0
0.18 0 0
0.19 0 0
0.2 0 0
0.21 0 0
0.22 0 0
0.23 0 0
0.24 0 0
0.25 0 0
0.26 0 0
0.27 0 0
0.28 0 0
0.29 0 0
0.3 0 0
0.31 0 0
0.32 0 0
0.33 0 0
0.34 0 0
0.35 0 0
0.36 0 0
0.37 0 0
0.38 0 0
0.39 0 0
0.4 0 0
0.41 0 0
0.42 0 0
0.43 0 0
0.44 0 0
0.45 0 0
0.46 0 0
0.47 0 0
0.48 0 0
0.49 0 0
0.5 0 0
0.51 0 0
0.52 0 0
0.53 0 0
0.54 0 0
0.55 0 0
0.56 0 0
0.57 0 0
0.58 0 0
0.59 0 0
0.6 0 0
0.61 0 0
0 0.01 0
0.01 0.01 0
0.02 0.01 0
0.03 0.01 0
0.04 0.01 0
0.05 0.01 0
0.06 0.01 0
0.07 0.01 0
0.08 0.01 0
0.09 0.01 0
0.1 0.01 0
0.11 0.01 0
0.12 0.01 0
0.13 0.01 0
0.14 0.01 0
0.15 0.01 0
0.16 0.01 0
0.17 0.01 0
0.18 0.01 0
0.19 0.01 0
0.2 0.01 0
0.21 0.01 0
0.22 0.01 0
0.23 0.01 0
0.24 0.01 0
0.25 0.01 0
0.26 0.01 0
0.27 0.01 0
0.28 0.01 0
0.29 0.01 0
0.3 0.01 0
0.31 0.01 0
0.32 0.01 0
0.33 0.01 0
0.34 0.01 0
0.35 0.01 0
0.36 0.01 0
0.37 0.01 0
0.38 0.01 0
0.39 0.01 0
0.4 0.01 0
0.41 0.01 0
0.42 0.01 0
0.43 0.01 0
0.44 0.01 0
0.45 0.01 0
0.46 0.01 0
0.47 0.01 0
0.48 0.01 0
0.49 0.01 0
0.5 0.01 0
0.51 0.01 0
0.52 0.01 0
0.53 0.01 0
0.54 0.01 0
0.55 0.01 0
0.56 0.01 0
0.57 0.01 0
0.58 0.01 0
0.59 0.01 0
0.6 0.01 0
0.61 0.01 0
0 0.02 0
0.01 0.02 0
0.02 0.02 0
0.03 0.02 0
0.04 0.02 0
0.05 0.02 0
0.06 0.02 0
0.07 0.02 0
0.08 0.02 0
0.09 0.02 0
0.1 0.02 0
0.11 0.02 0
0.12 0.02 0
0.13 0.02 0
0.14 0.02 0
0.15 0.02 0
0.16 0.02 0
0.17 0.02 0
0.18 0.02 0
0.19 0.02 0
0.2 0.02 0
0.21 0.02 0
0.22 0.02 0
0.23 0.02 0
0.24 0.02 0
0.25 0.02 0
0.26 0.02 0
0.27 0.02 0
0.28 0.02 0
0.29 0.02 0
0.3 0.02 0
0.31 0.02 0
0.32 0.02 0
0.33 0.02 0
0.34 0.02 0
0.35 0.02 0
0.36 0.02 0
0.37 0.02 0
0.38 0.02 0
0.39 0.02 0
0.4 0.02 0
0.41 0.02 0
0.42 0.02 0
0.43 0.02 0
0.44 0.02 0
0.45 0.02 0
0.46 0.02 0
0.47 0.02 0
0.48 0.02 0
0.49 0.02 0
0.5 0.02 0
0.51 0.02 0
0.52 0.02 0
0.53 0.02 0
0.54 0.02 0
0.55 0.02 0
0.56 0.02 0
0.57 0.02 0
0.58 0.02 0
0.59 0.02 0
0.6 0.02 0
0.61 0.02 0
0 0.03 0
0.01 0.03 0
0.02 0.03 0
0.03 0.03 0
0.04 0.03 0
0.05 0.03 0
0.06 0.03 0
0.07 0.03 0
0.08 0.03 0
0.09 0.03 0
0.1 0.03 0
0.11 0.03 0
0.12 0.03 0
0.13 0.03 0
0.14 0.03 0
0.15 0.03 0
0.16 0.03 0
0.17 0.03 0
0.18 0.03 0
0.19 0.03 0
0.2 0.03 0
0.21 0.03 0
0.22 0.03 0
0.23 0.03 0
0.24 0.03 0
0.25 0.03 0
0.26 0.03 0
0.27 0.03 0
0.28 0.03 0
0.29 0.03 0
0.3 0.03 0
0.31 0.03 0
0.32 0.03 0
0.33 0.03 0
0.34 0.03 0
0.35 0.03 0
0.36 0.03 0
0.37 0.03 0
0.38 0.03 0
0.39 0.03 0
0.4 0.03 0
0.41 0.03 0
0.42 0.03 0
0.43 0.03 0
0.44 0.03 0
0.45 0.03 0
0.46 0.03 0
0.47 0.03 0
0.48 0.03 0
0.49 0.03 0
0.5 0.03 0
0.51 0.03 0
0.52 0.03 0
0.53 0.03 0
0.54 0.03 0
0.55 0.03 0
0.56 0.03 0
0.57 0.03 0
0.58 0.03 0
0.59 0.03 0
0.6 0.03 0
0.61 0.03 0
0 0.04 0
0.01 0.04 0
0.02 0.04 0
0.03 0.04 0
0.04 0.04 0
0.05 0.04 0
0.06 0.04 0
0.07 0.04 0
0.08 0.04 0
0.09 0.04 0
0.1 0.04 0
0.11 0.04 0
0.12 0.04 0
0.13 0.04 0
0.14 0.04 0
0.15 0.04 0
0.16 0.04 0
0.17 0.04 0
0.18 0.04 0
0.19 0.04 0
0.2 0.04 0
0.21 0.04 0
0.22 0.04 0
0.23 0.04 0
0.24 0.04 0
0.25 0.04 0
0.26 0.04 0
0.27 0.04 0
0.28 0.04 0
0.29 0.04 0
0.3 0.04 0
0.31 0.04 0
0.32 0.04 0
0.33 0.04 0
0.34 0.04 0
0.35 0.04 0
0.36 0.04 0
0.37 0.04 0
0.38 0.04 0
0.39 0.04 0
0.4 0.04 0
0.41 0.04 0
0.42 0.04 0
0.43 0.04 0
0.44 0.04 0
0.45 0.04 0
0.46 0.04 0
0.47 0.04 0
0.48 0.04 0
0.49 0.04 0
0.5 0.04 0
0.51 0.04 0
0.52 0.04 0
0.53 0.04 0
0.54 0.04 0
0.55 0.04 0
0.56 0.04 0
0.57 0.04 0
0.58 0.04 0
0.59 0.04 0
0.6 0.04 0
0.61 0.04 0
0 0.05 0
0.01 0.05 0
0.02 0.05 0
0.03 0.05 0
0.04 0.05 0
0.05 0.05 0
0.06 0.05 0
0.07 0.05 0
0.08 0.05 0
0.09 0.05 0
0.1 0.05 0
0.11 0.05 0
0.12 0.05 0
0.13 0.05 0
0.14 0.05 0
0.15 0.05 0
0.16 0.05 0
0.17 0.05 0
0.18 0.05 0
0.19 0.05 0
0.2 0.05 0
0.21 0.05 0
0.22 0.05 0
0.23 0.05 0
0.24 0.05 0
0.25 0.05 0
0.26 0.05 0
0.27 0.05 0
0.28 0.05 0
0.29 0.05 0
0.3 0.05 0
0.31 0.05 0
0.32 0.05 0
0.33 0.05 0
0.34 0.05 0
0.35 0.05 0
0.36 0.05 0
0.37 0.05 0
0.38 0.05 0
0.39 0.05 0
0.4 0.05 0
0.41 0.05 0
0.42 0.05 0
0.43 0.05 0
0.44 0.05 0
0.45 0.05 0
0.46 0.05 0
0.47 0.05 0
0.48 0.05 0
0.49 0.05 0
0.5 0.05 0
0.51 0.05 0
0.52 0.05 0
0.53 0.05 0
0.54 0.05 0
0.55 0.05 0
0.56 0.05 0
0.57 0.05 0
0.58 0.05 0
0.59 0.05 0
0.6 0.05 0
0.61 0.05 0
0 0.06 0
0.01 0.06 0
0.02 0.06 0
0.03 0.06 0
0.04 0.06 0
0.05 0.06 0
0.06 0.06 0
0.07 0.06 0
0.08 0.06 0
0.09 0.06 0
0.1 0.06 0
0.11 0.06 0
0.12 0.06 0
0.13 0.06 0
0.14 0.06 0
0.15 0.06 0
0.16 0.06 0
0.17 0.06 0
0.18 0.06 0
0.19 0.06 0
0.2 0.06 0
0.21 0.06 0
0.22 0.06 0
0.23 0.06 0
0.24 0.06 0
0.25 0.06 0
0.26 0.06 0
0.27 0.06 0
0.28 0.06 0
0.29 0.06 0
0.3 0.06 0
0.31 0.06 0
0.32 0.06 0
0.33 0.06 0
0.34 0.06 0
0.35 0.06 0
0.36 0.06 0
0.37 0.06 0
0.38 0.06 0
0.39 0.06 0
0.4 0.06 0
0.41 0.06 0
0.42 0.06 0
0.43 0.06 0
0.44 0.06 0
0.45 0.06 0
0.46 0.06 0
0.47 0.06 0
0.48 0.06 0
0.49 0.06 0
0.5 0.06 0
0.51 0.06 0
0.52 0.06 0
0.53 0.06 0
0.54 0.06 0
0.55 0.06 0
0.56 0.06 0
0.57 0.06 0
0.58 0.06 0
0.59 0.06 0
0.6 0.06 0
0.61 0.06 0
0 0.07 0
0.01 0.07 0
0.02 0.07 0
0.03 0.07 0
0.04 0.07 0
0.05 0.07 0
0.06 0.07 0
0.07 0.07 0
0.08 0.07 0
0.09 0.07 0
0.1 0.07 0
0.11 0.07 0
0.12 0.07 0
0.13 0.07 0
0.14 0.07 0
0.15 0.07 0
0.16 0.07 0
0.17 0.07 0
0.18 0.07 0
0.19 0.07 0
0.2 0.07 0
0.21 0.07 0
0.22 0.07 0
0.23 0.07 0
0.24 0.07 0
0.25 0.07 0
0.26 0.07 0
0.27 0.07 0
0.28 0.07 0
0.29 0.07 0
0.3 0.07 0
0.31 0.07 0
0.32 0.07 0
0.33 0.07 0
0.34 0.07 0
0.35 0.07 0
0.36 0.07 0
0.37 0.07 0
0.38 0.07 0
0.39 0.07 0
0.4 0.07 0
0.41 0.07 0
0.42 0.07 0
0.43 0.07 0
0.44 0.07 0
0.45 0.07 0
0.46 0.07 0
0.47 0.07 0
0.48 0.07 0
0.49 0.07 0
0.5 0.07 0
0.51 0.07 0
0.52 0.07 0
0.53 0.07 0
0.54 0.07 0
0.55 0.07 0
0.56 0.07 0
0.57 0.07 0
0.58 0.07 0
0.59 0.07 0
0.6 0.07 0
0.61 0.07 0
0 0.08 0
0.01 0.08 0
0.02 0.08 0
0.03 0.08 0
0.04 0.08 0
0.05 0.08 0
0.06 0.08 0
0.07 0.08 0
0.08 0.08 0
0.09 0.08 0
0.1 0.08 0
0.11 0.08 0
0.12 0.08 0
0.13 0.08 0
0.14 0.08 0
0.15 0.08 0
0.16 0.08 0
0.17 0.08 0
0.18 0.08 0
0.19 0.08 0
0.2 0.08 0
0.21 0.08 0
0.22 0.08 0
0.23 0.08 0
0.24 0.08 0
0.25 0.08 0
0.26 0.08 0
0.27 0.08 0
0.28 0.08 0
0.29 0.08 0
0.3 0.08 0
0.31 0.08 0
0.32 0.08 0
0.33 0.08 0
0.34 0.08 0
0.35 0.08 0
0.36 0.08 0
0.37 0.08 0
0.38 0.08 0
0.39 0.08 0
0.4 0.08 0
0.41 0.08 0
0.42 0.08 0
0.43 0.08 0
0.44 0.08 0
0.45 0.08 0
0.46 0.08 0
0.47 0.08 0
0.48 0.08 0
0.49 0.08 0
0.5 0.08 0
0.51 0.08 0
0.52 0.08 0
0.53 0.08 0
0.54 0.08 0
0.55 0.08 0
0.56 0.08 0
0.57 0.08 0
0.58 0.08 0
0.59 0.08 0
0.6 0.08 0
0.61 0.08 0
0 0.09 0
0.01 0.09 0
0.02 0.09 0
0.03 0.09 0
0.04 0.09 0
0.05 0.09 0
0.06 0.09 0
0.07 0.09 0
0.08 0.09 0
0.09 0.09 0
0.1 0.09 0
0.11 0.09 0
0.12 0.09 0
0.13 0.09 0
0.14 0.09 0
0.15 0.09 0
0.16 0.09 0
0.17 0.09 0
0.18 0.09 0
0.19 0.09 0
0.2 0.09 0
0.21 0.09 0
0.22 0.09 0
0.23 0.09 0
0.24 0.09 0
0.25 0.09 0
0.26 0.09 0
0.27 0.09 0
0.28 0.09 0
0.29 0.09 0
0.3 0.09 0
0.31 0.09 0
0.32 0.09 0
0.33 0.09 0
0.34 0.09 0
0.35 0.09 0
0.36 0.09 0
0.37 0.09 0
0.38 0.09 0
0.39 0.09 0
0.4 0.09 0
0.41 0.09 0
0.42 0.09 0
0.43 0.09 0
0.44 0.09 0
0.45 0.09 0
0.46 0.09 0
0.47 0.09 0
0.48 0.09 0
0.49 0.09 0
0.5 0.09 0
0.51 0.09 0
0.52 0.09 0
0.53 0.09 0
0.54 0.09 0
0.55 0.09 0
0.56 0.09 0
0.57 0.09 0
0.58 0.09 0
0.59 0.09 0
0.6 0.09 0
0.61 0.09 0
0 0.1 0
0.01 0.1 0
0.02 0.1 0
0.03 0.1 0
0.04 0.1 0
0.05 0.1 0
0.06 0.1 0
0.07 0.1 0
0.08 0.1 0
0.09 0.1 0
0.1 0.1 0
0.11 0.1 0
0.12 0.1 0
0.13 0.1 0
0.14 0.1 0
0.15 0.1 0
0.16 0.1 0
0.17 0.1 0
0.18 0.1 0
0.19 0.1 0
0.2 0.1 0
0.21 0.1 0
0.22 0.1 0
0.23 0.1 0
0.24 0.1 0
0.25 0.1 0
0.26 0.1 0
0.27 0.1 0
0.28 0.1 0
0.29 0.1 0
0.3 0.1 0
0.31 0.1 0
0.32 0.1 0
0.33 0.1 0
0.34 0.1 0
0.35 0.1 0
0.36 0.1 0
0.37 0.1 0
0.38 0.1 0
0.39 0.1 0
0.4 0.1 0
0.41 0.1 0
0.42 0.1 0
0.43 0.1 0
0.44 0.1 0
0.45 0.1 0
0.46 0.1 0
0.47 0.1 0
0.48 0.1 0
0.49 0.1 0
0.5 0.1 0
0.51 0.1 0
0.52 0.1 0
0.53 0.1 0
0.54 0.1 0
0.55 0.1 0
0.56 0.1 0
0.57 0.1 0
0.58 0.1 0
0.59 0.1 0
0.6 0.1 0
0.61 0.1 0
0 0.11 0
0.01 0.11 0
0.02 0.11 0
0.03 0.11 0
0.04 0.11 0
0.05 0.11 0
0.06 0.11 0
0.07 0.11 0
0.08 0.11 0
0.09 0.11 0
0.1 0.11 0
0.11 0.11 0
0.12 0.11 0
0.13 0.11 0
0.14 0.11 0
0.15 0.11 0
0.16 0.11 0
0.17 0.11 0
0.18 0.11 0
0.19 0.11 0
0.2 0.11 0
0.21 0.11 0
0.22 0.11 0
0.23 0.11 0
0.24 0.11 0
0.25 0.11 0
0.26 0.11 0
0.27 0.11 0
0.28 0.11 0
0.29 0.11 0
0.3 0.11 0
0.31 0.11 0
0.32 0.11 0
0.33 0.11 0
0.34 0.11 0
0.35 0.11 0
0.36 0.11 0
0.37 0.11 0
0.38 0.11 0
0.39 0.11 0
0.4 0.11 0
0.41 0.11 0
0.42 0.11 0
0.43 0.11 0
0.44 0.11 0
0.45 0.11 0
0.46 0.11 0
0.47 0.11 0
0.48 0.11 0
0.49 0.11 0
0.5 0.11 0
0.51 0.11 0
0.52 0.11 0
0.53 0.11 0
0.54 0.11 0
0.55 0.11 0
0.56 0.11 0
0.57 0.11 0
0.58 0.11 0
0.59 0.11 0
0.6 0.11 0
0.61 0.11 0
0 0.12 0
0.01 0.12 0
0.02 0.12 0
0.03 0.12 0
0.04 0.12 0
0.05 0.12 0
0.06 0.12 0
0.07 0.12 0
0.08 0.12 0
0.09 0.12 0
0.1 0.12 0
0.11 0.12 0
0.12 0.12 0
0.13 0.12 0
0.14 0.12 0
0.15 0.12 0
0.16 0.12 0
0.17 0.12 0
0.18 0.12 0
0.19 0.12 0
0.2 0.12 0
0.21 0.12 0
0.22 0.12 0
0.23 0.12 0
0.24 0.12 0
0.25 0.12 0
0.26 0.12 0
0.27 0.12 0
0.28 0.12 0
0.29 0.12 0
0.3 0.12 0
0.31 0.12 0
0.32 0.12 0
0.33 0.12 0
0.34 0.12 0
0.35 0.12 0
0.36 0.12 0
0.37 0.12 0
0.38 0.12 0
0.39 0.12 0
0.4 0.12 0
0.41 0.12 0
0.42 0.12 0
0.43 0.12 0
0.44 0.12 0
0.45 0.12 0
0.46 0.12 0
0.47 0.12 0
0.48 0.12 0
0.49 0.12 0
0.5 0.12 0
0.51 0.12 0
0.52 0.12 0
0.53 0.12 0
0.54 0.12 0
0.55 0.12 0
0.56 0.12 0
0.57 0.12 0
0.58 0.12 0
0.59 0.12 0
0.6 0.12 0
0.61 0.12 0
0 0.13 0
0.01 0.13 0
0.02 0.13 0
0.03 0.13 0
0.04 0.13 0
0.05 0.13 0
0.06 0.13 0
0.07 0.13 0
0.08 0.13 0
0.09 0.13 0
0.1 0.13 0
0.11 0.13 0
0.12 0.13 0
0.13 0.13 0
0.14 0.13 0
0.15 0.13 0
0.16 0.13 0
0.17 0.13 0
0.18 0.13 0
0.19 0.13 0
0.2 0.13 0
0.21 0.13 0
0.22 0.13 0
0.23 0.13 0
0.24 0.13 0
0.25 0.13 0
0.26 0.13 0
0.27 0.13 0
0.28 0.13 0
0.29 0.13 0
0.3 0.13 0
0.31 0.13 0
0.32 0.13 0
0.33 0.13 0
0.34 0.13 0
0.35 0.13 0
0.36 0.13 0
0.37 0.13 0
0.38 0.13 0
0.39 0.13 0
0.4 0.13 0
0.41 0.13 0
0.42 0.13 0
0.43 0.13 0
0.44 0.13 0
0.45 0.13 0
0.46 0.13 0
0.47 0.13 0
0.48 0.13 0
[...]
POINT_DATA 93248

SCALARS u double
LOOKUP_TABLE default
0
0
0
0
0
0
0
0
0
0
0
0
0
0
0
0
0
0
0
0
0
0
0
0
0.248842
0
0
0
0
0
0
0
0.00129135
0.194749
0
0
0
0
0
0
0
0
0
0
0
0
0
0.0329852
0
0
0.0465688
0
0
0
0
0
0
0
0
0
0
0
0
0.40337
0.316185
0.231877
0.162012
0.110362
0.0713327
0.0431494
0.0227827
0.00730996
-0.00497979
-0.0138223
-0.0149837
-0.0169546
-0.0180568
-0.0176425
-0.0163404
-0.0158396
-0.0156659
-0.0160902
-0.00535187
-0.00320509
-0.0094564
-0.0083895
-0.00699311
-0.00603234
-0.00538195
-0.00493986
-0.00470678
-0.00478491
-0.00530498
-0.00576979
-0.0031884
-0.00377634
-0.00528226
-0.00626089
-0.00349602
-0.00626864
-0.0104706
0.126594
-0.0134367
-0.00746087
-0.00509997
-0.000361329
0.013014
-0.0393965
-0.0168601
-0.0146364
-0.0133019
-0.0137907
-0.0141353
-0.0190889
-0.0123008
0.00189047
-0.0501719
-0.0387286
-0.0436587
-0.0315593
-0.0384287
-0.0490842
-0.0490842
0
0
0.477646
0.449888
0.413224
0.367468
0.323618
0.272614
0.223034
0.178764
0.142095
0.112634
0.0894999
0.0790149
0.0681727
0.0612757
0.057911
0.0565929
0.0550776
0.0563758
0.270667
0.0660784
0.069305
0.0470487
0.0516964
0.0524339
0.0521627
0.0514204
0.0503329
0.0489326
0.0471927
0.0449864
0.0421426
0.0436696
0.0401375
0.0376871
0.0363367
0.0310314
0.0281265
0.0057465
0.0256018
0.0223337
0.0191155
0.0198801
0.0218716
0.021046
-0.00504395
-0.0122798
-0.0100409
-0.0106167
-0.0110273
-0.00969235
-0.021739
-0.0197341
-0.0232282
-0.0524093
-0.0569674
-0.0650422
-0.0669285
-0.077918
-0.090146
-0.090146
0
0
0.471741
0.46013
0.448462
0.423818
0.416476
0.37896
0.343045
0.308199
0.27526
0.28086
0.222737
0.195163
0.178701
0.166679
0.158482
0.152613
0.146022
0.143586
0.141705
0.134124
0.135364
0.126418
0.124336
0.122732
0.120658
0.118098
0.115143
0.111897
0.108534
0.105468
0.103286
0.0967571
0.0896091
0.179165
0.0845792
0.0782183
0.0740799
0.0715114
0.0680319
0.0629114
0.057201
0.101621
0.0483433
0.0408444
0.0983784
0.013766
0.00773142
-0.0106167
0.000493056
-0.00333212
-0.0127821
-0.0190889
-0.0293044
-0.046324
-0.0577697
-0.06844
-0.0834998
-0.0936249
-0.104606
-0.104606
0
0
0.464675
0.447903
0.447064
0.432916
0.423212
0.405885
0.385898
0.364736
0.343449
0.32249
0.302837
0.281805
0.263952
0.249124
0.239056
0.227296
0.221397
0.214549
0.268513
0.199491
0.193344
0.186905
0.182048
0.177941
0.173919
0.169683
0.16518
0.160457
0.155618
0.150749
0.14551
0.138237
0.130804
0.12451
0.119628
0.114149
0.109081
0.103908
0.0981068
0.0915236
0.0839987
0.075684
0.0676965
0.0579109
0.0459361
0.0338065
0.0254575
0.0187548
0.011923
0.00437844
-0.00495889
-0.0149011
-0.0265081
-0.0396123
-0.0524144
-0.065119
-0.0789427
-0.0910149
-0.103362
-0.103362
0
0
0.462316
0.443824
0.432563
0.421232
0.411437
0.399979
0.387663
0.374681
0.361189
0.347348
0.333305
0.318702
0.304023
0.287926
0.287171
0.273328
0.264239
0.256127
0.247032
0.238716
0.231201
0.22437
0.218219
0.212546
0.207087
0.201578
0.195954
0.190193
0.184259
0.177999
0.170992
0.162908
0.156784
0.149438
0.142548
0.135962
0.129483
0.122689
0.115381
0.107519
0.0989496
0.089591
0.0798683
0.0695918
0.059618
0.0615727
0.0378308
0.0290156
0.0199893
0.0105344
0.00045113
-0.0103115
-0.0216294
-0.0331865
-0.0448292
-0.056128
-0.0668137
-0.0767215
-0.0890604
-0.0890604
0
0
0.461271
0.440154
0.423654
0.409606
0.397495
0.385794
0.375263
0.364886
0.35437
0.343792
0.333284
0.322944
0.312161
0.301578
0.29665
0.288999
0.280888
0.274937
0.266039
0.258112
0.25075
0.243802
0.237161
0.230769
0.224552
0.218267
0.211972
0.205611
0.199074
0.192165
0.184534
0.17556
0.170937
0.162452
0.154434
0.146869
0.139379
0.13163
0.123494
0.114899
0.105778
0.0960549
0.0857434
0.0746564
0.062884
0.0564257
0.0458493
0.0353507
0.0250542
0.0147334
0.00428339
-0.00632629
-0.0169446
-0.0272968
-0.0372154
-0.0462531
-0.0533675
-0.0554867
-0.0481955
-0.0481955
0
0
0.460691
0.437817
0.418363
0.401576
0.387222
0.445449
0.363296
0.351208
0.340201
0.33005
0.320862
0.313335
0.304977
0.297333
0.291366
0.286324
0.282268
0.276816
0.270667
0.264344
0.258147
0.251781
0.245288
0.238769
0.232302
0.225696
0.21918
0.212644
0.205968
0.199083
0.192242
0.186349
0.173981
0.166266
0.158823
0.151193
0.143317
0.135131
0.126594
0.117673
0.108359
0.103313
0.0883367
0.077697
0.0673223
0.0587473
0.0489156
0.0385231
0.0280176
0.0175403
0.00716628
-0.00300872
-0.0129338
-0.0223368
-0.031145
-0.0396346
-0.0492706
-0.0631766
-0.0271965
-0.0271965
0
0
0.460328
0.436332
0.415078
0.396166
0.379211
0.363372
0.349904
0.337426
0.325816
0.315067
0.3057
0.301874
0.293788
0.286891
0.279926
0.0565929
0.277742
0.272624
0.268513
0.263873
0.259221
0.253693
0.247628
0.241238
0.207087
0.228188
0.221964
0.215586
0.20904
0.202209
0.195003
0.187419
0.17765
0.168981
0.160887
0.152855
0.144695
0.136287
0.127567
0.118513
0.109117
0.0993651
0.0894249
0.0793656
0.0694926
0.0599717
0.0501842
0.0400628
0.0297729
0.0194967
0.00940431
-0.000241066
-0.0096763
-0.0185576
-0.0269214
-0.0350312
-0.0435661
-0.0555158
-0.0481962
-0.0481962
0
0
0.460087
0.435349
0.412925
0.392554
0.373942
0.356752
0.341408
0.327462
0.314581
0.302195
0.287801
0.296941
0.284949
0.277944
0.272995
0.271206
0.272199
0.269175
0.265621
0.261398
0.25792
0.25283
0.247213
0.241316
0.235807
0.229456
0.223129
0.216872
0.210555
0.203822
0.195859
0.187543
0.178856
0.17034
0.162016
0.153707
0.145323
0.136764
0.127938
0.118828
0.109452
0.0998449
0.0901071
0.0803217
0.0705735
0.0608332
0.0510116
0.0410527
0.0309975
0.0209674
0.0110149
0.0021698
-0.0071071
-0.0158072
-0.0241963
-0.0325972
-0.0415357
-0.0513992
-0.0588619
-0.0588619
0
0
0.459923
0.434681
0.411462
0.390113
0.370434
0.352302
0.335765
0.320697
0.306946
0.294378
0.28353
0.282141
0.276281
0.271231
0.267404
0.265951
0.26531
0.263791
0.261678
0.259306
0.254581
0.250265
0.245351
0.239688
0.235477
0.229204
0.223192
0.217321
0.211497
0.235841
0.196108
0.187462
0.179217
0.170998
0.162765
0.163059
0.145942
0.137243
0.128319
0.119164
0.109812
0.100307
0.0906844
0.0810089
0.0713099
0.0615727
0.051793
0.0419553
0.0320761
0.0223036
0.012697
-0.00659218
-0.00516236
-0.0137572
-0.0223006
-0.0309648
-0.0401188
-0.0501554
-0.0612873
-0.0612873
0
0
0.45981
0.434222
0.410443
0.388433
0.368005
0.349158
0.331877
0.316158
0.302043
0.289746
0.280047
0.274094
0.269198
0.265711
0.262004
0.260417
0.259627
0.258687
0.257379
0.260612
0.252015
0.248021
0.243446
0.238373
0.233577
0.228054
0.222522
0.217081
0.211331
0.205279
0.194759
0.187354
0.179664
0.171609
0.163342
0.154936
0.157524
0.13786
0.128841
0.119626
0.110271
0.10086
0.091285
0.0816505
0.0719913
0.0623142
0.052629
0.0429192
0.0331724
0.0237135
0.0146414
0.00596083
-0.00311149
-0.012003
-0.0207538
-0.0295932
-0.0388896
-0.0491335
-0.0608089
-0.0608089
0
0
0.459735
0.43392
0.40981
0.387203
0.366268
0.346922
0.329182
0.313107
0.298843
0.286604
0.276838
0.269561
0.264409
0.261654
0.257053
0.25601
0.255383
0.254585
0.253688
0.252048
0.24938
0.245818
0.241532
0.236711
0.231596
0.22624
0.221078
0.216096
0.210123
0.201334
0.197646
0.189571
0.181069
0.172591
0.164102
0.155551
0.146909
0.138333
0.129413
0.120138
0.110696
0.101621
0.0920028
0.0823529
0.0727162
0.0631022
0.0535307
0.0439642
0.0342357
0.025
0.0161085
0.00733174
-0.0016097
-0.0105175
-0.0193365
-0.028239
-0.0375792
-0.04786
-0.059577
-0.059577
0
0
0.459685
0.433715
0.409341
0.386316
0.365043
0.345368
0.327328
0.311035
0.296673
0.284309
0.27429
0.266443
0.26039
0.255112
0.25554
0.254059
0.252741
0.251491
0.251008
0.249649
0.247183
0.243766
0.239565
0.234705
0.229306
0.223634
0.218389
0.21403
0.211119
0.204198
0.197818
0.190229
0.18201
0.173525
0.164929
0.156309
0.147654
0.13914
0.130161
0.120635
0.110408
0.103258
0.0929574
0.0831698
0.0735103
0.0639231
0.0544454
0.0450529
0.0351525
0.0261438
0.0173502
0.00851183
-0.000400368
-0.00923053
-0.0179764
-0.026815
-0.0361096
-0.0463432
-0.0580813
-0.0580813
0
0
0.459655
0.433601
0.409212
0.385481
0.36417
0.344301
0.32606
0.309596
0.295048
0.282726
0.272477
0.264346
0.258174
0.253859
0.252446
0.251376
0.250216
0.248658
0.249307
0.247992
0.245369
0.241866
0.237578
0.232482
0.226503
0.219605
0.212303
0.205712
0.217974
0.209981
0.20089
0.192118
0.18339
0.174573
0.165746
0.157158
0.148131
0.140039
0.131111
0.121561
0.11185
0.103313
0.0937386
0.084042
0.0743526
0.0647183
0.0552202
0.0460497
0.0359443
0.027361
0.0186641
0.00981153
0.000674468
-0.00804379
-0.0166187
-0.0252466
-0.0344685
-0.0445067
-0.0562329
-0.0562329
0
0
0.459629
0.433449
0.408772
0.385362
0.363684
0.343612
0.325216
0.308639
0.294037
0.281565
0.271206
0.262991
0.256902
0.252894
0.250772
0.249594
0.248544
0.246484
0.248677
0.246487
0.243549
0.24
0.235658
0.230296
0.223492
0.214059
0.198033
0.164196
0.258687
0.223236
0.206737
0.19528
0.185215
0.175584
0.166191
0.157136
0.148469
0.14083
0.132276
0.122938
0.113436
0.104133
0.0946425
0.0850022
0.0752451
0.0654555
0.0555824
0.0456588
0.0378601
0.0290537
0.0202343
0.0117359
0.00126933
-0.00690603
-0.0152732
-0.0236068
-0.0324113
-0.0420716
-0.0536405
-0.0536405
0
0
0.459638
0.433339
0.408547
0.385212
0.363428
0.34321
0.324678
0.308019
0.293381
0.28086
0.270416
0.262145
0.256089
0.252138
0.249913
0.248875
0.248779
0.250251
0.244984
0.243392
0.241337
0.238272
0.234118
0.228759
0.221855
0.212722
0.200819
0.19151
0.222213
0.217826
0.207317
0.19641
0.1859
0.1757
0.165693
0.155966
0.147082
0.140326
0.134128
0.12535
0.115723
0.105968
0.0961689
0.0863143
0.0763373
0.0664109
0.0565012
0.0468672
0.038163
0.0301367
0.0214289
0.0125332
0.00306765
-0.00531717
-0.0141426
-0.0219311
-0.0298938
-0.0386334
-0.0495437
-0.0495437
0
0
0.45972
0.433247
0.408467
0.385173
0.363384
0.342928
0.324275
0.3076
0.293009
0.280547
0.269982
0.26161
0.255532
0.25163
0.249482
0.248524
0.248282
0.248134
0.245614
0.243345
0.24083
0.237627
0.233523
0.228407
0.222222
0.215133
0.208152
0.205184
0.210498
0.208858
0.202461
0.193861
0.184341
0.174326
0.163864
0.152865
0.141602
0.133144
0.141105
0.131289
0.119948
0.108986
0.0983784
0.0880109
0.0776653
0.0675996
0.0576571
0.0478713
0.0384799
0.0311674
0.0222445
0.0132847
0.00483532
-0.00210981
-0.0146162
-0.0205241
-0.0271221
-0.0339534
-0.0424941
-0.0424941
0
0
0.459457
0.433428
0.408599
0.385353
0.363725
0.329182
0.323741
0.307285
0.292888
0.280635
0.269764
0.261232
0.25513
0.251361
0.249377
0.248409
0.247844
0.247255
0.245839
0.243812
0.241192
0.237898
0.233864
0.229103
0.223798
0.218486
0.249639
0.209995
0.208597
0.204647
0.198434
0.190722
0.181961
0.172237
0.161309
0.148198
0.129442
0.0917038
0.180561
0.144558
0.126114
0.11261
0.100741
0.0896026
0.0791589
0.0688911
0.0589128
0.049068
0.0389438
0.0321187
0.0224636
0.0136043
0.00545971
-0.00239616
-0.0123645
-0.0401188
-0.0248211
-0.028975
-0.0288163
0
0
0
0.459539
0.432592
0.408457
0.3854
0.363933
0.342861
0.323984
0.307375
0.293081
0.281199
0.269546
0.260944
0.254901
0.251473
0.249785
0.24876
0.247901
0.247456
0.246379
0.244522
0.241944
0.238685
0.234769
0.230295
0.225504
0.220783
0.216029
0.210925
0.208843
0.202795
0.195932
0.188381
0.180066
0.173972
0.159911
0.147193
0.132259
0.120045
0.147494
0.118828
0.126875
0.114099
0.102064
0.0907633
0.0801147
0.0698888
0.0601518
0.0510893
0.0427138
0.0296422
0.0212455
0.0131276
0.00514055
-0.00276463
-0.0106997
-0.0176777
-0.0247129
-0.0319785
-0.0414139
-0.0414139
0
0
0.459572
0.433286
0.40827
0.38545
0.364235
0.342456
0.323891
0.307418
0.293225
0.28188
0.269119
0.261114
0.255153
0.252549
0.251128
0.249815
0.248454
0.248486
0.247402
0.245485
0.242921
0.239731
0.235905
0.231536
0.226833
0.222368
0.219721
0.216123
0.20685
0.200648
0.194115
0.186962
0.179165
0.170364
0.160537
0.150022
0.140165
0.134416
0.13627
0.131978
0.123089
0.112511
0.10154
0.0907846
0.0803911
0.0703125
0.0606347
0.0513077
0.0418329
0.030917
0.0214603
0.0128365
0.00467706
-0.00319427
-0.0109345
-0.0187046
-0.0271801
-0.0370243
-0.0490264
-0.0490264
0
0
0.459593
0.433365
0.408729
0.384673
0.361824
0.343006
0.324432
0.307619
0.292675
0.27875
0.271504
0.263265
0.256574
0.314562
0.253718
0.251503
0.249446
0.250082
0.248467
0.246437
0.243962
0.24091
0.23712
0.232648
0.227336
0.219873
0.224769
0.216819
0.208592
0.201162
0.19392
0.186652
0.179335
0.171253
0.162467
0.153624
0.145695
0.139535
0.134129
0.127682
0.11959
0.110265
0.099988
0.0899257
0.0799909
0.0700969
0.0604379
0.0509137
0.0412681
0.0313184
0.021602
0.0125438
0.00410515
-0.00394558
-0.0120602
-0.0204691
-0.0298249
-0.0406706
-0.0529921
-0.0529921
0
0
0.459593
0.433341
0.408522
0.384781
0.362459
0.342578
0.324107
0.307453
0.292934
0.280795
0.271868
0.264519
0.342229
0.257839
0.25459
0.252878
0.252932
0.249619
0.248498
0.2471
0.245054
0.242277
0.238488
0.234001
0.228907
0.223493
0.222477
0.216655
0.20939
0.201772
0.194081
0.186557
0.179757
0.173022
0.165005
0.156908
0.149105
0.141741
0.134219
0.126336
0.117979
0.10941
0.0978056
0.0886264
0.0790905
0.0694075
0.0598811
0.0504085
0.0408998
0.0311577
0.0211356
0.0119071
0.00327171
-0.00501992
-0.0134043
-0.0220619
-0.0317785
-0.0431412
-0.0554303
-0.0554303
0
0
0.459593
0.433337
0.408503
0.385017
0.363035
0.34275
0.323888
0.307207
0.293046
0.283127
0.27351
0.266659
0.263287
0.254733
0.252972
0.252612
0.252588
0.251306
0.250088
0.248619
0.246676
0.244107
0.240087
0.235669
0.231032
0.226394
0.222082
0.216335
0.20946
0.201855
0.193685
0.185175
0.177719
0.176932
0.168452
0.160612
0.151946
0.14346
0.134916
0.12623
0.117328
0.108011
0.0974453
0.0876049
0.0507776
0.0684697
0.0592208
0.0498769
0.0405447
0.0307704
0.000902452
0.0109307
0.00220136
-0.0367064
-0.014757
-0.0232551
-0.0329975
-0.0450447
-0.0572135
-0.0572135
0
0
0.459601
0.433374
0.408619
0.38535
0.363666
0.343472
0.323551
0.306486
0.289411
0.28808
0.27578
0.268092
0.262975
0.257709
0.255078
0.254035
0.253756
0.253069
0.252016
0.250564
0.248701
0.246426
0.241746
0.237482
0.233138
0.228437
0.223146
0.205611
0.209826
0.202
0.192843
0.181108
0.160826
0.194333
0.172413
0.166791
0.155085
0.145193
0.135805
0.126533
0.117139
0.107253
0.0972114
0.0875024
0.0781539
0.0683856
0.0587635
0.0492995
0.0401224
0.0308615
0.0192892
0.0106202
0.00203018
-0.00636115
-0.0153163
-0.0240531
-0.0335092
-0.0466526
-0.0583888
-0.0583888
0
0
0.459613
0.433432
0.408783
0.385749
0.364607
0.346247
0.322086
0.307095
0.292798
0.285553
0.276528
0.269189
0.263733
0.259778
0.257458
0.256229
0.256478
0.255325
0.254181
0.252661
0.250741
0.248812
0.243302
0.23973
0.235538
0.230596
0.225004
0.218428
0.21133
0.203297
0.193559
0.183055
0.172729
0.181664
0.173672
0.166316
0.156232
0.146166
0.136392
0.126831
0.117218
0.106849
0.0968648
0.0872064
0.0776578
0.0679466
0.0581871
0.0484208
0.023761
0.0305586
0.0180907
0.0105338
0.00157856
-0.00740867
-0.016486
-0.0253177
-0.0337661
-0.0475762
-0.0582862
-0.0582862
0
0
0.459622
0.433474
0.408896
0.385972
0.364858
0.345586
0.325697
0.309156
0.295529
0.285333
0.276788
0.269983
0.264957
0.261624
0.259755
0.258819
0.258339
0.257602
0.2565
0.254818
0.252246
0.247984
0.247576
0.243478
0.238553
0.232974
0.226743
0.220613
0.213684
0.206824
0.194833
0.187458
0.18091
0.177683
0.171611
0.164086
0.155237
0.145828
0.136286
0.126813
0.117343
0.106349
0.0965005
0.0869362
0.0772963
0.0675167
0.0576144
0.0475776
0.0372817
0.0263219
0.0223767
0.0108673
0.00101
-0.00849845
-0.0180935
-0.0281654
-0.038681
-0.0430141
-0.0559037
-0.0559037
0
0
0.45962
0.433473
0.408918
0.386045
0.364942
0.345628
0.328003
0.311024
0.297383
0.286601
0.278029
0.271461
0.266768
0.263775
0.262208
0.261543
0.261057
0.260368
0.259236
0.257486
0.255082
0.251872
0.235658
0.245584
0.240916
0.235249
0.229041
0.222594
0.215714
0.208395
0.199036
0.191388
0.184576
0.177982
0.170823
0.162888
0.154256
0.145141
0.135753
0.126319
0.117222
0.105718
0.0964628
0.0869423
0.0771699
0.0672433
0.0572053
0.0470771
0.0369461
0.0273061
0.019729
0.0100539
0.000288946
-0.00930602
-0.0188307
-0.0283522
-0.0375568
-0.0454029
-0.0567866
-0.0567866
0
0
0.459596
0.433393
0.408817
0.386011
0.365012
0.345973
0.329615
0.311916
0.299129
0.288641
0.280217
0.273793
0.269294
0.266459
0.265041
0.26462
0.26413
0.26344
0.26232
0.260612
0.258565
0.255789
0.252535
0.248298
0.243301
0.237449
0.231253
0.224702
0.217716
0.210238
0.202239
0.194485
0.186921
0.179189
0.171144
0.162694
0.153849
0.144649
0.1351
0.125075
0.114392
0.107425
0.0974259
0.0872843
0.0772015
0.0671042
0.0569733
0.0468512
0.0368617
0.0272584
0.0180988
0.00876164
-0.000642694
-0.00994674
-0.0190971
-0.0280478
-0.0377505
-0.0471188
-0.0583572
-0.0583572
0
0
0.459529
0.43316
0.408559
0.385893
0.36498
0.345614
0.326992
0.315002
0.302424
0.292798
0.283222
0.276873
0.272534
0.26986
0.268165
0.267998
0.267343
0.266713
0.265732
0.26411
0.26247
0.259657
0.255891
0.251172
0.206191
0.239619
0.233622
0.227046
0.219983
0.212507
0.204757
0.196871
0.188837
0.180536
0.17194
0.163059
0.153917
0.144522
0.134874
0.124992
0.11517
0.106457
0.0969576
0.0870878
0.077074
0.0669442
0.0567655
0.0466062
0.0365275
0.0266626
0.0170361
0.00764012
-0.00157675
-0.0106138
-0.0195362
-0.0285274
-0.0381292
-0.0481237
-0.0594981
-0.0594981
0
0
0.459402
0.432592
0.415109
0.385893
0.365252
0.346396
0.329449
0.316109
0.304378
0.294395
0.286389
0.280416
0.276459
0.274573
0.270549
0.270964
0.270389
0.256127
0.269739
0.268262
0.266999
0.263711
0.259676
0.25503
0.249723
0.24336
0.236717
0.229792
0.222528
0.214939
0.207085
0.198994
0.190635
0.181929
0.172921
0.163688
0.154274
0.144697
0.13499
0.125222
0.115539
0.10601
0.0963973
0.0866824
0.0768061
0.0666846
0.0564688
0.0462375
0.0359706
0.0258775
0.0161001
0.0066616
-0.00247903
-0.0113752
-0.0202272
-0.0292662
-0.038705
-0.0488294
-0.0583572
-0.0602024
0
0
0.459435
0.431002
0.407083
0.385459
0.365652
0.347703
0.331873
0.318476
0.307103
0.297656
0.290145
0.284552
0.280772
0.278406
0.275128
0.0550776
0.273642
0.275255
0.275342
0.274737
0.271053
0.267685
0.263632
0.258989
0.252782
0.246394
0.239715
0.232658
0.225226
0.21746
0.209409
0.201091
0.192459
0.183363
0.173972
0.16443
0.154778
0.14502
0.135201
0.125369
0.115568
0.1057
0.0959373
0.0862896
0.0765091
0.0663182
0.0560575
0.0457853
0.0352961
0.0250237
0.0151975
0.00576299
-0.00334886
-0.0121585
-0.0210139
-0.0300588
-0.0394763
-0.0554867
-0.0610464
-0.0610464
0
0
0.461664
0.427082
0.40637
0.385816
0.366779
0.349602
0.334568
0.321691
0.310834
0.301935
0.294919
0.28969
0.286102
0.283921
0.282854
0.284665
0.283894
0.283059
0.281903
0.280032
0.276697
0.272695
0.268071
0.263109
0.256008
0.24974
0.242972
0.23572
0.228061
0.220056
0.21177
0.203235
0.194365
0.184792
0.175006
0.165201
0.155343
0.145378
0.135343
0.125317
0.115363
0.105223
0.0953669
0.0858296
0.0761588
0.0657669
0.0555146
0.0453567
0.0346163
0.0242269
0.014441
0.0050326
-0.00411484
-0.0128762
-0.0327647
-0.0308622
-0.0401301
-0.0502088
-0.0701505
-0.0618204
0
0
0.459776
0.431584
0.408228
0.387395
0.368723
0.35215
0.337828
0.325744
0.315646
0.307458
0.301041
0.296212
0.292851
0.290932
0.290247
0.290628
0.290468
0.2897
0.288199
0.28577
0.282293
0.277794
0.272301
0.265603
0.260818
0.253985
0.246599
0.2389
0.230978
0.222661
0.214112
0.205377
0.196343
0.186072
0.175936
0.165969
0.155959
0.145766
0.13528
0.124918
0.114804
0.104268
0.0943541
0.0850005
0.0755509
0.0647969
0.0547842
0.0451272
0.0341093
0.023761
0.0141342
0.00472529
-0.00459451
-0.0131774
-0.0222431
-0.0315047
-0.040861
-0.0508341
-0.0619855
-0.0619855
0
0
0.459658
0.433538
0.410254
0.389521
0.363384
0.355282
0.341817
0.330899
0.321774
0.314512
0.308801
0.304366
0.301028
0.252138
0.297854
0.297692
0.297296
0.296324
0.294518
0.291731
0.287937
0.282919
0.27696
0.270444
0.264188
0.257216
0.249639
0.241488
0.233879
0.225111
0.216243
0.207308
0.198268
0.186952
0.176729
0.166783
0.15667
0.146404
0.134672
0.12388
0.113278
0.102338
0.0924038
0.0831892
0.0741942
0.0630656
0.0537965
0.0453162
0.0341542
0.0242116
0.0147975
0.00522412
-0.00466457
-0.0135141
-0.0231385
-0.0324569
-0.0418217
-0.051771
-0.0628889
-0.0628889
0
0
0.459854
0.434596
0.411919
0.391871
0.374506
0.35962
0.347271
0.337483
0.32963
0.323384
0.318444
0.314387
0.311223
0.309217
0.307406
0.306039
0.30476
0.303122
0.30077
0.29753
0.293377
0.287668
0.281225
0.274464
0.267493
0.260131
0.252321
0.244089
0.235841
0.226963
0.217784
0.208489
0.199576
0.187231
0.177681
0.167722
0.157274
0.146362
0.134506
0.122233
-0.00746087
0.0990095
0.0890524