# vtk DataFile Version 2.0
FlowField
ASCII
DATASET STRUCTURED_GRID
DIMENSIONS 62 47 32 
POINTS 93248 double
0 0 0
0.01 0 0
0.02 0 0
0.03 0 0
0.04 0 0
0.05 0 0
0.06 0 0
0.07 0 0
0.08 0 0
0.09 0 0
0.1 0 0
0.11 0 0
0.12 0 0
0.13 0 0
0.14 0 0
0.15 0 0
0.16 0 0
0.17 0 0
0.18 0 0
0.19 0 0
0.2 0 0
0.21 0 0
0.22 0 0
0.23 0 0
0.24 0 0
0.25 0 0
0.26 0 0
0.27 0 0
0.28 0 0
0.29 0 0
0.3 0 0
0.31 0 0
0.32 0 0
0.33 0 0
0.34 0 0
0.35 0 0
0.36 0 0
0.37 0 0
0.38 0 0
0.39 0 0
0.4 0 0
0.41 0 0
0.42 0 0
0.43 0 0
0.44 0 0
0.45 0 0
0.46 0 0
0.47 0 0
0.48 0 0
0.49 0 0
0.5 0 0
0.51 0 0
0.52 0 0
0.53 0 0
0.54 0 0
0.55 0 0
0.56 0 0
0.57 0 0
0.58 0 0
0.59 0 0
0.6 0 0
0.61 0 0
0 0.01 0
0.01 0.01 0
0.02 0.01 0
0.03 0.01 0
0.04 0.01 0
0.05 0.01 0
0.06 0.01 0
0.07 0.01 0
0.08 0.01 0
0.09 0.01 0
0.1 0.01 0
0.11 0.01 0
0.12 0.01 0
0.13 0.01 0
0.14 0.01 0
0.15 0.01 0
0.16 0.01 0
0.17 0.01 0
0.18 0.01 0
0.19 0.01 0
0.2 0.01 0
0.21 0.01 0
0.22 0.01 0
0.23 0.01 0
0.24 0.01 0
0.25 0.01 0
0.26 0.01 0
0.27 0.01 0
0.28 0.01 0
0.29 0.01 0
0.3 0.01 0
0.31 0.01 0
0.32 0.01 0
0.33 0.01 0
0.34 0.01 0
0.35 0.01 0
0.36 0.01 0
0.37 0.01 0
0.38 0.01 0
0.39 0.01 0
0.4 0.01 0
0.41 0.01 0
0.42 0.01 0
0.43 0.01 0
0.44 0.01 0
0.45 0.01 0
0.46 0.01 0
0.47 0.01 0
0.48 0.01 0
0.49 0.01 0
0.5 0.01 0
0.51 0.01 0
0.52 0.01 0
0.53 0.01 0
0.54 0.01 0
0.55 0.01 0
0.56 0.01 0
0.57 0.01 0
0.58 0.01 0
0.59 0.01 0
0.6 0.01 0
0.61 0.01 0
0 0.02 0
0.01 0.02 0
0.02 0.02 0
0.03 0.02 0
0.04 0.02 0
0.05 0.02 0
0.06 0.02 0
0.07 0.02 0
0.08 0.02 0
0.09 0.02 0
0.1 0.02 0
0.11 0.02 0
0.12 0.02 0
0.13 0.02 0
0.14 0.02 0
0.15 0.02 0
0.16 0.02 0
0.17 0.02 0
0.18 0.02 0
0.19 0.02 0
0.2 0.02 0
0.21 0.02 0
0.22 0.02 0
0.23 0.02 0
0.24 0.02 0
0.25 0.02 0
0.26 0.02 0
0.27 0.02 0
0.28 0.02 0
0.29 0.02 0
0.3 0.02 0
0.31 0.02 0
0.32 0.02 0
0.33 0.02 0
0.34 0.02 0
0.35 0.02 0
0.36 0.02 0
0.37 0.02 0
0.38 0.02 0
0.39 0.02 0
0.4 0.02 0
0.41 0.02 0
0.42 0.02 0
0.43 0.02 0
0.44 0.02 0
0.45 0.02 0
0.46 0.02 0
0.47 0.02 0
0.48 0.02 0
0.49 0.02 0
0.5 0.02 0
0.51 0.02 0
0.52 0.02 0
0.53 0.02 0
0.54 0.02 0
0.55 0.02 0
0.56 0.02 0
0.57 0.02 0
0.58 0.02 0
0.59 0.02 0
0.6 0.02 0
0.61 0.02 0
0 0.03 0
0.01 0.03 0
0.02 0.03 0
0.03 0.03 0
0.04 0.03 0
0.05 0.03 0
0.06 0.03 0
0.07 0.03 0
0.08 0.03 0
0.09 0.03 0
0.1 0.03 0
0.11 0.03 0
0.12 0.03 0
0.13 0.03 0
0.14 0.03 0
0.15 0.03 0
0.16 0.03 0
0.17 0.03 0
0.18 0.03 0
0.19 0.03 0
0.2 0.03 0
0.21 0.03 0
0.22 0.03 0
0.23 0.03 0
0.24 0.03 0
0.25 0.03 0
0.26 0.03 0
0.27 0.03 0
0.28 0.03 0
0.29 0.03 0
0.3 0.03 0
0.31 0.03 0
0.32 0.03 0
0.33 0.03 0
0.34 0.03 0
0.35 0.03 0
0.36 0.03 0
0.37 0.03 0
0.38 0.03 0
0.39 0.03 0
0.4 0.03 0
0.41 0.03 0
0.42 0.03 0
0.43 0.03 0
0.44 0.03 0
0.45 0.03 0
0.46 0.03 0
0.47 0.03 0
0.48 0.03 0
0.49 0.03 0
0.5 0.03 0
0.51 0.03 0
0.52 0.03 0
0.53 0.03 0
0.54 0.03 0
0.55 0.03 0
0.56 0.03 0
0.57 0.03 0
0.58 0.03 0
0.59 0.03 0
0.6 0.03 0
0.61 0.03 0
0 0.04 0
0.01 0.04 0
0.02 0.04 0
0.03 0.04 0
0.04 0.04 0
0.05 0.04 0
0.06 0.04 0
0.07 0.04 0
0.08 0.04 0
0.09 0.04 0
0.1 0.04 0
0.11 0.04 0
0.12 0.04 0
0.13 0.04 0
0.14 0.04 0
0.15 0.04 0
0.16 0.04 0
0.17 0.04 0
0.18 0.04 0
0.19 0.04 0
0.2 0.04 0
0.21 0.04 0
0.22 0.04 0
0.23 0.04 0
0.24 0.04 0
0.25 0.04 0
0.26 0.04 0
0.27 0.04 0
0.28 0.04 0
0.29 0.04 0
0.3 0.04 0
0.31 0.04 0
0.32 0.04 0
0.33 0.04 0
0.34 0.04 0
0.35 0.04 0
0.36 0.04 0
0.37 0.04 0
0.38 0.04 0
0.39 0.04 0
0.4 0.04 0
0.41 0.04 0
0.42 0.04 0
0.43 0.04 0
0.44 0.04 0
0.45 0.04 0
0.46 0.04 0
0.47 0.04 0
0.48 0.04 0
0.49 0.04 0
0.5 0.04 0
0.51 0.04 0
0.52 0.04 0
0.53 0.04 0
0.54 0.04 0
0.55 0.04 0
0.56 0.04 0
0.57 0.04 0
0.58 0.04 0
0.59 0.04 0
0.6 0.04 0
0.61 0.04 0
0 0.05 0
0.01 0.05 0
0.02 0.05 0
0.03 0.05 0
0.04 0.05 0
0.05 0.05 0
0.06 0.05 0
0.07 0.05 0
0.08 0.05 0
0.09 0.05 0
0.1 0.05 0
0.11 0.05 0
0.12 0.05 0
0.13 0.05 0
0.14 0.05 0
0.15 0.05 0
0.16 0.05 0
0.17 0.05 0
0.18 0.05 0
0.19 0.05 0
0.2 0.05 0
0.21 0.05 0
0.22 0.05 0
0.23 0.05 0
0.24 0.05 0
0.25 0.05 0
0.26 0.05 0
0.27 0.05 0
0.28 0.05 0
0.29 0.05 0
0.3 0.05 0
0.31 0.05 0
0.32 0.05 0
0.33 0.05 0
0.34 0.05 0
0.35 0.05 0
0.36 0.05 0
0.37 0.05 0
0.38 0.05 0
0.39 0.05 0
0.4 0.05 0
0.41 0.05 0
0.42 0.05 0
0.43 0.05 0
0.44 0.05 0
0.45 0.05 0
0.46 0.05 0
0.47 0.05 0
0.48 0.05 0
0.49 0.05 0
0.5 0.05 0
0.51 0.05 0
0.52 0.05 0
0.53 0.05 0
0.54 0.05 0
0.55 0.05 0
0.56 0.05 0
0.57 0.05 0
0.58 0.05 0
0.59 0.05 0
0.6 0.05 0
0.61 0.05 0
0 0.06 0
0.01 0.06 0
0.02 0.06 0
0.03 0.06 0
0.04 0.06 0
0.05 0.06 0
0.06 0.06 0
0.07 0.06 0
0.08 0.06 0
0.09 0.06 0
0.1 0.06 0
0.11 0.06 0
0.12 0.06 0
0.13 0.06 0
0.14 0.06 0
0.15 0.06 0
0.16 0.06 0
0.17 0.06 0
0.18 0.06 0
0.19 0.06 0
0.2 0.06 0
0.21 0.06 0
0.22 0.06 0
0.23 0.06 0
0.24 0.06 0
0.25 0.06 0
0.26 0.06 0
0.27 0.06 0
0.28 0.06 0
0.29 0.06 0
0.3 0.06 0
0.31 0.06 0
0.32 0.06 0
0.33 0.06 0
0.34 0.06 0
0.35 0.06 0
0.36 0.06 0
0.37 0.06 0
0.38 0.06 0
0.39 0.06 0
0.4 0.06 0
0.41 0.06 0
0.42 0.06 0
0.43 0.06 0
0.44 0.06 0
0.45 0.06 0
0.46 0.06 0
0.47 0.06 0
0.48 0.06 0
0.49 0.06 0
0.5 0.06 0
0.51 0.06 0
0.52 0.06 0
0.53 0.06 0
0.54 0.06 0
0.55 0.06 0
0.56 0.06 0
0.57 0.06 0
0.58 0.06 0
0.59 0.06 0
0.6 0.06 0
0.61 0.06 0
0 0.07 0
0.01 0.07 0
0.02 0.07 0
0.03 0.07 0
0.04 0.07 0
0.05 0.07 0
0.06 0.07 0
0.07 0.07 0
0.08 0.07 0
0.09 0.07 0
0.1 0.07 0
0.11 0.07 0
0.12 0.07 0
0.13 0.07 0
0.14 0.07 0
0.15 0.07 0
0.16 0.07 0
0.17 0.07 0
0.18 0.07 0
0.19 0.07 0
0.2 0.07 0
0.21 0.07 0
0.22 0.07 0
0.23 0.07 0
0.24 0.07 0
0.25 0.07 0
0.26 0.07 0
0.27 0.07 0
0.28 0.07 0
0.29 0.07 0
0.3 0.07 0
0.31 0.07 0
0.32 0.07 0
0.33 0.07 0
0.34 0.07 0
0.35 0.07 0
0.36 0.07 0
0.37 0.07 0
0.38 0.07 0
0.39 0.07 0
0.4 0.07 0
0.41 0.07 0
0.42 0.07 0
0.43 0.07 0
0.44 0.07 0
0.45 0.07 0
0.46 0.07 0
0.47 0.07 0
0.48 0.07 0
0.49 0.07 0
0.5 0.07 0
0.51 0.07 0
0.52 0.07 0
0.53 0.07 0
0.54 0.07 0
0.55 0.07 0
0.56 0.07 0
0.57 0.07 0
0.58 0.07 0
0.59 0.07 0
0.6 0.07 0
0.61 0.07 0
0 0.08 0
0.01 0.08 0
0.02 0.08 0
0.03 0.08 0
0.04 0.08 0
0.05 0.08 0
0.06 0.08 0
0.07 0.08 0
0.08 0.08 0
0.09 0.08 0
0.1 0.08 0
0.11 0.08 0
0.12 0.08 0
0.13 0.08 0
0.14 0.08 0
0.15 0.08 0
0.16 0.08 0
0.17 0.08 0
0.18 0.08 0
0.19 0.08 0
0.2 0.08 0
0.21 0.08 0
0.22 0.08 0
0.23 0.08 0
0.24 0.08 0
0.25 0.08 0
0.26 0.08 0
0.27 0.08 0
0.28 0.08 0
0.29 0.08 0
0.3 0.08 0
0.31 0.08 0
0.32 0.08 0
0.33 0.08 0
0.34 0.08 0
0.35 0.08 0
0.36 0.08 0
0.37 0.08 0
0.38 0.08 0
0.39 0.08 0
0.4 0.08 0
0.41 0.08 0
0.42 0.08 0
0.43 0.08 0
0.44 0.08 0
0.45 0.08 0
0.46 0.08 0
0.47 0.08 0
0.48 0.08 0
0.49 0.08 0
0.5 0.08 0
0.51 0.08 0
0.52 0.08 0
0.53 0.08 0
0.54 0.08 0
0.55 0.08 0
0.56 0.08 0
0.57 0.08 0
0.58 0.08 0
0.59 0.08 0
0.6 0.08 0
0.61 0.08 0
0 0.09 0
0.01 0.09 0
0.02 0.09 0
0.03 0.09 0
0.04 0.09 0
0.05 0.09 0
0.06 0.09 0
0.07 0.09 0
0.08 0.09 0
0.09 0.09 0
0.1 0.09 0
0.11 0.09 0
0.12 0.09 0
0.13 0.09 0
0.14 0.09 0
0.15 0.09 0
0.16 0.09 0
0.17 0.09 0
0.18 0.09 0
0.19 0.09 0
0.2 0.09 0
0.21 0.09 0
0.22 0.09 0
0.23 0.09 0
0.24 0.09 0
0.25 0.09 0
0.26 0.09 0
0.27 0.09 0
0.28 0.09 0
0.29 0.09 0
0.3 0.09 0
0.31 0.09 0
0.32 0.09 0
0.33 0.09 0
0.34 0.09 0
0.35 0.09 0
0.36 0.09 0
0.37 0.09 0
0.38 0.09 0
0.39 0.09 0
0.4 0.09 0
0.41 0.09 0
0.42 0.09 0
0.43 0.09 0
0.44 0.09 0
0.45 0.09 0
0.46 0.09 0
0.47 0.09 0
0.48 0.09 0
0.49 0.09 0
0.5 0.09 0
0.51 0.09 0
0.52 0.09 0
0.53 0.09 0
0.54 0.09 0
0.55 0.09 0
0.56 0.09 0
0.57 0.09 0
0.58 0.09 0
0.59 0.09 0
0.6 0.09 0
0.61 0.09 0
0 0.1 0
0.01 0.1 0
0.02 0.1 0
0.03 0.1 0
0.04 0.1 0
0.05 0.1 0
0.06 0.1 0
0.07 0.1 0
0.08 0.1 0
0.09 0.1 0
0.1 0.1 0
0.11 0.1 0
0.12 0.1 0
0.13 0.1 0
0.14 0.1 0
0.15 0.1 0
0.16 0.1 0
0.17 0.1 0
0.18 0.1 0
0.19 0.1 0
0.2 0.1 0
0.21 0.1 0
0.22 0.1 0
0.23 0.1 0
0.24 0.1 0
0.25 0.1 0
0.26 0.1 0
0.27 0.1 0
0.28 0.1 0
0.29 0.1 0
0.3 0.1 0
0.31 0.1 0
0.32 0.1 0
0.33 0.1 0
0.34 0.1 0
0.35 0.1 0
0.36 0.1 0
0.37 0.1 0
0.38 0.1 0
0.39 0.1 0
0.4 0.1 0
0.41 0.1 0
0.42 0.1 0
0.43 0.1 0
0.44 0.1 0
0.45 0.1 0
0.46 0.1 0
0.47 0.1 0
0.48 0.1 0
0.49 0.1 0
0.5 0.1 0
0.51 0.1 0
0.52 0.1 0
0.53 0.1 0
0.54 0.1 0
0.55 0.1 0
0.56 0.1 0
0.57 0.1 0
0.58 0.1 0
0.59 0.1 0
0.6 0.1 0
0.61 0.1 0
0 0.11 0
0.01 0.11 0
0.02 0.11 0
0.03 0.11 0
0.04 0.11 0
0.05 0.11 0
0.06 0.11 0
0.07 0.11 0
0.08 0.11 0
0.09 0.11 0
0.1 0.11 0
0.11 0.11 0
0.12 0.11 0
0.13 0.11 0
0.14 0.11 0
0.15 0.11 0
0.16 0.11 0
0.17 0.11 0
0.18 0.11 0
0.19 0.11 0
0.2 0.11 0
0.21 0.11 0
0.22 0.11 0
0.23 0.11 0
0.24 0.11 0
0.25 0.11 0
0.26 0.11 0
0.27 0.11 0
0.28 0.11 0
0.29 0.11 0
0.3 0.11 0
0.31 0.11 0
0.32 0.11 0
0.33 0.11 0
0.34 0.11 0
0.35 0.11 0
0.36 0.11 0
0.37 0.11 0
0.38 0.11 0
0.39 0.11 0
0.4 0.11 0
0.41 0.11 0
0.42 0.11 0
0.43 0.11 0
0.44 0.11 0
0.45 0.11 0
0.46 0.11 0
0.47 0.11 0
0.48 0.11 0
0.49 0.11 0
0.5 0.11 0
0.51 0.11 0
0.52 0.11 0
0.53 0.11 0
0.54 0.11 0
0.55 0.11 0
0.56 0.11 0
0.57 0.11 0
0.58 0.11 0
0.59 0.11 0
0.6 0.11 0
0.61 0.11 0
0 0.12 0
0.01 0.12 0
0.02 0.12 0
0.03 0.12 0
0.04 0.12 0
0.05 0.12 0
0.06 0.12 0
0.07 0.12 0
0.08 0.12 0
0.09 0.12 0
0.1 0.12 0
0.11 0.12 0
0.12 0.12 0
0.13 0.12 0
0.14 0.12 0
0.15 0.12 0
0.16 0.12 0
0.17 0.12 0
0.18 0.12 0
0.19 0.12 0
0.2 0.12 0
0.21 0.12 0
0.22 0.12 0
0.23 0.12 0
0.24 0.12 0
0.25 0.12 0
0.26 0.12 0
0.27 0.12 0
0.28 0.12 0
0.29 0.12 0
0.3 0.12 0
0.31 0.12 0
0.32 0.12 0
0.33 0.12 0
0.34 0.12 0
0.35 0.12 0
0.36 0.12 0
0.37 0.12 0
0.38 0.12 0
0.39 0.12 0
0.4 0.12 0
0.41 0.12 0
0.42 0.12 0
0.43 0.12 0
0.44 0.12 0
0.45 0.12 0
0.46 0.12 0
0.47 0.12 0
0.48 0.12 0
0.49 0.12 0
0.5 0.12 0
0.51 0.12 0
0.52 0.12 0
0.53 0.12 0
0.54 0.12 0
0.55 0.12 0
0.56 0.12 0
0.57 0.12 0
0.58 0.12 0
0.59 0.12 0
0.6 0.12 0
0.61 0.12 0
0 0.13 0
0.01 0.13 0
0.02 0.13 0
0.03 0.13 0
0.04 0.13 0
0.05 0.13 0
0.06 0.13 0
0.07 0.13 0
0.08 0.13 0
0.09 0.13 0
0.1 0.13 0
0.11 0.13 0
0.12 0.13 0
0.13 0.13 0
0.14 0.13 0
0.15 0.13 0
0.16 0.13 0
0.17 0.13 0
0.18 0.13 0
0.19 0.13 0
0.2 0.13 0
0.21 0.13 0
0.22 0.13 0
0.23 0.13 0
0.24 0.13 0
0.25 0.13 0
0.26 0.13 0
0.27 0.13 0
0.28 0.13 0
0.29 0.13 0
0.3 0.13 0
0.31 0.13 0
0.32 0.13 0
0.33 0.13 0
0.34 0.13 0
0.35 0.13 0
0.36 0.13 0
0.37 0.13 0
0.38 0.13 0
0.39 0.13 0
0.4 0.13 0
0.41 0.13 0
0.42 0.13 0
0.43 0.13 0
0.44 0.13 0
0.45 0.13 0
0.46 0.13 0
0.47 0.13 0
0.48 0.13 0
[...]
POINT_DATA 93248

SCALARS w double
LOOKUP_TABLE default
0
0
0
0
0
0
0
0
0
0
0
0
0
-0.0304852
0
0
0
0
0
0
0
0
0
0
0
0
-0.0515894
0
0
0
0
0
-0.0482514
0
0
0
0
0
0
0
0
0
0
0
0
0
-0.0457049
0
0
0
0
0
0
0
0
0
0
0
0
0
0
0
0
-0.0145716
-0.025112
-0.0317221
-0.0345594
-0.0349225
-0.0347071
-0.0348559
-0.0353659
-0.0359742
-0.0364373
-0.0367394
-0.0367827
-0.0370023
-0.0372473
-0.0374838
-0.0376516
-0.0378601
-0.0380953
-0.0382909
-0.036554
-0.0363651
-0.0367049
-0.0369413
-0.0370591
-0.0370954
-0.0370892
-0.0370623
-0.0370227
-0.0369699
-0.0368945
-0.0367697
-0.0365606
-0.0364956
-0.036366
-0.0358923
-0.0350856
-0.0344604
-0.035271
-0.0428814
-0.036142
-0.0372096
-0.0378375
-0.038022
-0.0384777
-0.0567865
-0.0370903
-0.0369068
-0.0369153
-0.0372783
-0.0377152
-0.0382678
-0.0362335
-0.0373966
-0.0566848
-0.0380561
-0.0374534
-0.0359374
-0.0363954
-0.0362986
-0.0352624
0
0
-0.0169162
-0.0360313
-0.044436
-0.048564
-0.0494543
-0.0495955
-0.0499859
-0.0513445
-0.0531139
-0.0546006
-0.0556731
-0.0559865
-0.0566573
-0.0571247
-0.0575342
-0.0578033
-0.0582224
-0.0587204
-0.0599865
-0.0559032
-0.0561037
-0.0596114
-0.0570798
-0.0572233
-0.0572848
-0.0572887
-0.0572609
-0.0572144
-0.0571519
-0.0570652
-0.0569141
-0.0565353
-0.0565301
-0.0564887
-0.0557496
-0.054769
-0.0525739
-0.0500121
-0.0626326
-0.0609692
-0.0599501
-0.0592406
-0.0587411
-0.0588679
-0.0593936
-0.0586118
-0.0575777
-0.0572995
-0.0575818
-0.0577039
-0.0569406
-0.0570205
-0.057599
-0.0585386
-0.0582513
-0.0580861
-0.0566597
-0.0566657
-0.0559311
-0.0533396
0
0
-0.0167304
-0.0354013
-0.045198
-0.0504665
-0.0349225
-0.0514681
-0.0520213
-0.0534073
-0.0554272
-0.0572561
-0.0588472
-0.0602724
-0.0605845
-0.0607344
-0.0607852
-0.06105
-0.0616902
-0.061828
-0.062206
-0.0616216
-0.060938
-0.0607867
-0.0607615
-0.0607754
-0.0607755
-0.060755
-0.0607186
-0.060671
-0.0606152
-0.0605585
-0.0605347
-0.0606564
-0.0589854
-0.0604089
-0.0591928
-0.058568
-0.0574935
-0.0568797
-0.0619114
-0.0631459
-0.0630208
-0.0626356
-0.061856
-0.0619826
-0.0624869
-0.0610723
-0.060624
-0.060279
-0.0611208
-0.0610224
-0.0608471
-0.0606972
-0.0608863
-0.061194
-0.0612458
-0.0612947
-0.061222
-0.0605804
-0.0593951
-0.0562324
0
0
-0.0163499
-0.0344197
-0.0335169
-0.0497294
-0.0516711
-0.0520072
-0.0522064
-0.0533737
-0.0552418
-0.057017
-0.0584368
-0.0594802
-0.0599692
-0.060168
-0.0601801
-0.0602407
-0.0599537
-0.0603327
-0.0606984
-0.0607017
-0.0605503
-0.0604417
-0.0603788
-0.0603373
-0.0602998
-0.060259
-0.0602136
-0.0601636
-0.0601098
-0.0600548
-0.0600071
-0.0599668
-0.0597418
-0.05968
-0.0591972
-0.0588271
-0.058459
-0.0582437
-0.0601922
-0.0611552
-0.0613707
-0.0612434
-0.0609557
-0.0609585
-0.0611034
-0.0607254
-0.0602784
-0.0600295
-0.0602498
-0.0602437
-0.0601882
-0.0601607
-0.0602358
-0.0603486
-0.0604111
-0.0604542
-0.0604281
-0.060056
-0.0588796
-0.0556692
0
0
-0.0161288
-0.0339503
-0.0440325
-0.0496483
-0.0515909
-0.0518149
-0.0520292
-0.0531518
-0.0549036
-0.0565581
-0.0577911
-0.0585998
-0.0590345
-0.0591743
-0.0587634
-0.0592344
-0.0592725
-0.0594328
-0.059622
-0.0596877
-0.0596627
-0.0596114
-0.0595581
-0.0595077
-0.0594587
-0.0594093
-0.0593591
-0.0593079
-0.0592549
-0.0591965
-0.0591207
-0.0589854
-0.0586998
-0.0586777
-0.05858
-0.0584683
-0.0584004
-0.058543
-0.0591125
-0.0595702
-0.0597574
-0.0597607
-0.059686
-0.0596769
-0.0597739
-0.0600577
-0.0594628
-0.0592146
-0.0592064
-0.0592003
-0.0591933
-0.0592152
-0.0592836
-0.0593542
-0.059394
-0.059401
-0.0593361
-0.0590068
-0.0578406
-0.0547849
0
0
-0.0160122
-0.033682
-0.0439155
-0.0493476
-0.0512617
-0.0515639
-0.0517598
-0.0528518
-0.0545751
-0.0561792
-0.05732
-0.0580279
-0.058415
-0.0585816
-0.0585564
-0.0585634
-0.0588082
-0.0576698
-0.0590506
-0.0590928
-0.0590579
-0.059005
-0.0589506
-0.0588975
-0.058845
-0.0587912
-0.0587385
-0.0586884
-0.0586398
-0.0585875
-0.0585113
-0.0583382
-0.0577857
-0.0580408
-0.0581258
-0.0581318
-0.0581458
-0.0582437
-0.0584555
-0.0586523
-0.0587627
-0.0587919
-0.0587601
-0.0586847
-0.0584608
-0.0578363
-0.0581509
-0.0583325
-0.0584104
-0.0584276
-0.0584344
-0.0584863
-0.058614
-0.0587062
-0.0587307
-0.0586921
-0.0585289
-0.0579763
-0.0564294
-0.0538039
0
0
-0.0159428
-0.033511
-0.0437152
-0.049081
-0.0509758
-0.0514665
-0.051456
-0.0526141
-0.0543225
-0.055875
-0.0569796
-0.0576468
-0.0579992
-0.0581393
-0.0580422
-0.0576295
-0.0584719
-0.0588609
-0.0589038
-0.0588071
-0.0586917
-0.0586056
-0.0585407
-0.0584842
-0.0584303
-0.0583714
-0.0583165
-0.0582698
-0.0582325
-0.058204
-0.0581844
-0.0582563
-0.0587195
-0.058319
-0.0580659
-0.0579408
-0.0579089
-0.0579446
-0.0580263
-0.0581111
-0.0581698
-0.0581958
-0.058165
-0.0581028
-0.0579507
-0.0576956
-0.0577679
-0.0578586
-0.0578875
-0.0578597
-0.0578209
-0.0578882
-0.0582054
-0.0583805
-0.0583878
-0.0582964
-0.0580053
-0.0568226
-0.0362986
-0.0530064
0
0
-0.0158966
-0.0333915
-0.0435477
-0.0488566
-0.0506847
-0.0510036
-0.0512914
-0.0525044
-0.0541903
-0.0557096
-0.0567714
-0.0574148
-0.0577295
-0.0578348
-0.05752
-0.0558787
-0.0545451
-0.0589873
-0.0588634
-0.0586309
-0.0584252
-0.0583177
-0.0582501
-0.058192
-0.0581373
-0.0580693
-0.0580122
-0.0579708
-0.0579514
-0.0579533
-0.0579326
-0.0579518
-0.0580703
-0.0579413
-0.0577958
-0.0577059
-0.0576778
-0.0576897
-0.0577223
-0.0577591
-0.0577875
-0.0578002
-0.0577866
-0.0577498
-0.0576776
-0.0575853
-0.0575704
-0.0575624
-0.0575043
-0.0573646
-0.0571669
-0.057164
-0.0580371
-0.0583745
-0.0583259
-0.0582051
-0.0581203
-0.0579149
-0.0559561
-0.0532773
0
0
-0.0158636
-0.0333032
-0.0434148
-0.0486727
-0.0504523
-0.0507069
-0.0511335
-0.0524098
-0.0541057
-0.0555979
-0.0566517
-0.0559865
-0.0576611
-0.0578043
-0.0577145
-0.0573091
-0.0580978
-0.0584934
-0.0584833
-0.0583349
-0.0581399
-0.0580942
-0.0580411
-0.0579755
-0.057892
-0.0578297
-0.057772
-0.0577354
-0.0577442
-0.0578142
-0.0577595
-0.0577026
-0.057669
-0.0575968
-0.0575236
-0.0574713
-0.0574687
-0.0574801
-0.0574936
-0.0575078
-0.0575201
-0.0575266
-0.0575222
-0.0575051
-0.057473
-0.0574317
-0.0573952
-0.0573342
-0.0571927
-0.0568825
-0.0563311
-0.0547602
-0.0582522
-0.0587226
-0.0584625
-0.0581851
-0.0580353
-0.0577915
-0.0565006
-0.0533535
0
0
-0.0158394
-0.0332371
-0.0433094
-0.0485075
-0.0502634
-0.050515
-0.0509982
-0.0523182
-0.0540213
-0.055498
-0.0565224
-0.0571643
-0.0575455
-0.0577627
-0.0578752
-0.0578667
-0.05808
-0.0582035
-0.0581888
-0.0581117
-0.0581617
-0.0580514
-0.0579383
-0.0578241
-0.0572552
-0.0576158
-0.0575524
-0.0575092
-0.0575471
-0.0577665
-0.0576668
-0.0575443
-0.057433
-0.0573548
-0.057301
-0.0572537
-0.0572866
-0.0573074
-0.0573108
-0.0573118
-0.0573157
-0.0573203
-0.0573227
-0.0573189
-0.0573061
-0.0572833
-0.0572453
-0.0571662
-0.0569816
-0.0565521
-0.0556858
-0.0547602
-0.0592689
-0.0592086
-0.0585776
-0.0581422
-0.0579259
-0.0576526
-0.0565096
-0.0533339
0
0
-0.0158226
-0.0331911
-0.0432347
-0.0483446
-0.0501205
-0.0503892
-0.0509011
-0.052241
-0.0539473
-0.0554136
-0.0564252
-0.0570598
-0.0574571
-0.0577373
-0.0580207
-0.0580694
-0.0580836
-0.058066
-0.0579997
-0.0578727
-0.057982
-0.0579147
-0.0578081
-0.057689
-0.0575566
-0.0574424
-0.0573261
-0.0572284
-0.0571973
-0.0573443
-0.0577624
-0.0574069
-0.0572125
-0.0571392
-0.0571128
-0.0570926
-0.0570838
-0.0571457
-0.0571441
-0.0571393
-0.0571408
-0.0571464
-0.0571589
-0.0571679
-0.057169
-0.0571594
-0.0571328
-0.0570714
-0.0569346
-0.0566513
-0.056217
-0.0561226
-0.0580745
-0.0584458
-0.0581941
-0.0579357
-0.0577872
-0.0575415
-0.0564455
-0.0532866
0
0
-0.0158124
-0.0331678
-0.0432313
-0.0485463
-0.0502223
-0.0504036
-0.0508717
-0.0521965
-0.0538922
-0.0553444
-0.0563481
-0.0569781
-0.0573766
-0.0576846
-0.058201
-0.0580948
-0.0579999
-0.057927
-0.0578539
-0.0577824
-0.057785
-0.0577419
-0.0576592
-0.0575474
-0.057409
-0.0572453
-0.0570524
-0.056843
-0.0566204
-0.0564847
-0.0559556
-0.0563519
-0.0566516
-0.0568218
-0.0569041
-0.0569336
-0.0569401
-0.0569583
-0.0569599
-0.0569621
-0.056969
-0.0569696
-0.0570085
-0.0570374
-0.0570541
-0.0570593
-0.0570517
-0.0570258
-0.0569664
-0.0568401
-0.0567067
-0.0568034
-0.0574953
-0.0577815
-0.0577662
-0.0576973
-0.0576485
-0.0574467
-0.0563789
-0.0532355
0
0
-0.0158045
-0.0331469
-0.0431953
-0.0484411
-0.0501362
-0.0503313
-0.0508117
-0.0521446
-0.0538412
-0.0552796
-0.0562846
-0.0569064
-0.0572706
-0.0574211
-0.0571501
-0.0574028
-0.0575799
-0.0576546
-0.0576384
-0.0576297
-0.0576317
-0.0576031
-0.0575328
-0.057419
-0.0572552
-0.0570242
-0.0567005
-0.0562592
-0.0555408
-0.0556662
-0.0557988
-0.0561401
-0.0564431
-0.056641
-0.056745
-0.0567832
-0.0567868
-0.0567713
-0.05676
-0.0567678
-0.0567802
-0.056082
-0.056851
-0.0569178
-0.0569545
-0.0569757
-0.0569883
-0.0570003
-0.057016
-0.0569606
-0.0569357
-0.0570265
-0.057282
-0.0574369
-0.0574922
-0.0575232
-0.0575524
-0.0573735
-0.0563219
-0.0531886
0
0
-0.0157998
-0.0331351
-0.0431733
-0.0488566
-0.0500847
-0.0502696
-0.0507565
-0.0520991
-0.053806
-0.0552774
-0.0562622
-0.0568677
-0.0572208
-0.0573882
-0.0573683
-0.0574566
-0.0575437
-0.0575577
-0.0574348
-0.0574645
-0.0575072
-0.0575014
-0.0574387
-0.0573158
-0.057116
-0.0567892
-0.0562217
-0.0551181
-0.0517351
-0.0535914
-0.0549736
-0.0557916
-0.0562532
-0.0564972
-0.0566061
-0.0566312
-0.056775
-0.0565464
-0.0565007
-0.0565248
-0.056587
-0.0566478
-0.0567419
-0.056815
-0.0568667
-0.0569013
-0.0569269
-0.0569626
-0.0570598
-0.056987
-0.0569925
-0.0570762
-0.0572355
-0.0572939
-0.0573489
-0.0574232
-0.0579763
-0.0573304
-0.0562786
-0.0531488
0
0
-0.0158001
-0.0331412
-0.0431658
-0.0483493
-0.0500204
-0.0502144
-0.050711
-0.0520635
-0.0537755
-0.0552374
-0.0562289
-0.0568365
-0.0571956
-0.0573946
-0.0574842
-0.0575539
-0.0575963
-0.0575546
-0.0571894
-0.0573775
-0.0574683
-0.0574664
-0.0573918
-0.0572528
-0.057021
-0.0565997
-0.0556539
-0.0525241
0.0308698
-0.0486437
-0.053467
-0.0552924
-0.0560505
-0.0563666
-0.0564744
-0.0564589
-0.0563588
-0.0561958
-0.0560486
-0.0561343
-0.0563058
-0.0564709
-0.0566093
-0.0567132
-0.0567865
-0.0568316
-0.056852
-0.0568355
-0.0567403
-0.0568427
-0.0569402
-0.0570775
-0.0582522
-0.0572581
-0.0572798
-0.0573367
-0.0574254
-0.0572807
-0.056246
-0.0531169
0
0
-0.0158069
-0.0331848
-0.0431928
-0.0483332
-0.049989
-0.0501741
-0.0506814
-0.0520457
-0.053763
-0.0552229
-0.0562149
-0.0568212
-0.0571812
-0.0573937
-0.05752
-0.0576043
-0.0576696
-0.0577706
-0.0581637
-0.0579219
-0.0577158
-0.0575539
-0.0574081
-0.0572414
-0.0570104
-0.0566371
-0.0559497
-0.0545068
-0.0511207
-0.053258
-0.0548535
-0.0557236
-0.0561529
-0.0563349
-0.0563747
-0.0562772
-0.0560212
-0.0555644
-0.0548956
-0.0552979
-0.0558206
-0.0562032
-0.0564519
-0.0566121
-0.0567173
-0.0567747
-0.056801
-0.0567965
-0.0567505
-0.0567607
-0.0568617
-0.0569834
-0.0571207
-0.0571709
-0.0572918
-0.0572815
-0.057397
-0.057271
-0.0562324
-0.0530907
0
0
-0.0158035
-0.0332553
-0.0431804
-0.0482727
-0.0499141
-0.0501079
-0.0506632
-0.0520543
-0.0537787
-0.0552366
-0.0562273
-0.0568239
-0.057171
-0.0573791
-0.0575192
-0.057618
-0.0576888
-0.0577593
-0.0578834
-0.0578091
-0.0576759
-0.0575387
-0.0574002
-0.0572453
-0.0570476
-0.0567689
-0.0563556
-0.055743
-0.0550106
-0.0553259
-0.055779
-0.0561013
-0.0562682
-0.056312
-0.0562994
-0.0560996
-0.0555552
-0.0541931
-0.0506024
-0.0531029
-0.0548888
-0.0558154
-0.0562753
-0.0565175
-0.0566635
-0.0567292
-0.0567633
-0.0567619
-0.0567019
-0.0565909
-0.0567528
-0.056902
-0.0570141
-0.0571555
-0.0604111
-0.05724
-0.0574523
-0.057306
-0.056234
-0.0530631
0
0
-0.0157145
-0.0327828
-0.0427944
-0.0479726
-0.0497112
-0.050515
-0.0506948
-0.0521061
-0.0538223
-0.0552731
-0.056272
-0.0568446
-0.0571537
-0.0573345
-0.0574943
-0.0576201
-0.0576983
-0.0577335
-0.0577473
-0.0576965
-0.0576085
-0.0575043
-0.057389
-0.057257
-0.0570971
-0.0568958
-0.0566446
-0.0562874
-0.0559219
-0.0560026
-0.0561829
-0.056305
-0.0563255
-0.0562479
-0.0562835
-0.0560058
-0.0550706
-0.0514977
0.0368144
-0.0482031
-0.0535758
-0.0554283
-0.0561379
-0.0564442
-0.0565856
-0.0566833
-0.0567375
-0.056752
-0.0566768
-0.0563478
-0.0567039
-0.0568713
-0.0569511
-0.0570059
-0.0570662
-0.0569289
-0.0575723
-0.0573457
-0.0562277
-0.0528971
0
0
-0.0157138
-0.032863
-0.0427924
-0.0478755
-0.0496508
-0.050132
-0.0507584
-0.0521362
-0.0538363
-0.0552926
-0.0563636
-0.0568761
-0.0570902
-0.0572
-0.0574414
-0.0576392
-0.0577387
-0.057742
-0.0577118
-0.057653
-0.057575
-0.0574857
-0.057386
-0.0572724
-0.0571393
-0.0569806
-0.0567876
-0.0565531
-0.056049
-0.0562813
-0.0564162
-0.0564489
-0.056364
-0.0561292
-0.0564067
-0.056152
-0.0554777
-0.0539173
-0.0502258
-0.052832
-0.0548004
-0.0557522
-0.0562175
-0.056459
-0.056591
-0.0566744
-0.0567376
-0.0568145
-0.0569819
-0.0574196
-0.0571035
-0.05697
-0.0569415
-0.0569563
-0.0569889
-0.0570454
-0.0573463
-0.0572255
-0.056163
-0.0529957
0
0
-0.0157285
-0.03293
-0.0428426
-0.0477715
-0.0496441
-0.0504407
-0.0508489
-0.0521235
-0.0537873
-0.055255
-0.0565116
-0.0568206
-0.0568535
-0.0568121
-0.0573881
-0.0577297
-0.0578454
-0.0577685
-0.0577147
-0.0576486
-0.057569
-0.0574833
-0.0573915
-0.0572887
-0.057168
-0.0570189
-0.0567981
-0.0568916
-0.0573186
-0.0570098
-0.0567943
-0.0566439
-0.0565045
-0.0563537
-0.056379
-0.056236
-0.0558976
-0.0553435
-0.0546624
-0.0550868
-0.0556707
-0.056082
-0.0563478
-0.0565154
-0.0566188
-0.0566733
-0.0567228
-0.0567965
-0.0569231
-0.0571024
-0.0570256
-0.0569328
-0.0568991
-0.0569232
-0.0570017
-0.0571014
-0.0572408
-0.0571309
-0.0561041
-0.0529752
0
0
-0.0157422
-0.032983
-0.0429783
-0.048352
-0.0498624
-0.0494992
-0.0501847
-0.0517267
-0.0535568
-0.0549976
-0.0555583
-0.0561476
-0.0561775
-0.0560081
-0.0575337
-0.0579562
-0.0580076
-0.0577563
-0.0577468
-0.0576802
-0.0575897
-0.0574973
-0.0574069
-0.0573081
-0.0571852
-0.056968
-0.0530738
-0.0567595
-0.0570302
-0.0569759
-0.0568413
-0.0567053
-0.0565715
-0.0564459
-0.0563955
-0.0563107
-0.0561653
-0.0559795
-0.0558423
-0.055936
-0.056128
-0.0563177
-0.0564862
-0.0565966
-0.0566702
-0.0566674
-0.0566865
-0.0567458
-0.0568385
-0.0569406
-0.0569472
-0.0568531
-0.0568119
-0.0568534
-0.057017
-0.0571334
-0.0572137
-0.0570893
-0.0560659
-0.0529513
0
0
-0.0157476
-0.0329983
-0.0429847
-0.0482023
-0.0498217
-0.0498321
-0.0503617
-0.0518324
-0.0536646
-0.055193
-0.0559309
-0.0562653
-0.0558829
-0.0566211
-0.0574933
-0.0578952
-0.0580623
-0.0582462
-0.0580227
-0.0578096
-0.0576462
-0.0575283
-0.0574365
-0.0573418
-0.0572336
-0.0570996
-0.0568897
-0.056952
-0.0569808
-0.0569258
-0.056826
-0.0566993
-0.0565424
-0.0563493
-0.0563323
-0.0563127
-0.0562932
-0.0562581
-0.0562428
-0.0562854
-0.0563712
-0.0564836
-0.0571679
-0.0567008
-0.056757
-0.056639
-0.0566236
-0.0566817
-0.0567824
-0.0569154
-0.0569724
-0.0567553
-0.056673
-0.0567109
-0.0570692
-0.0571892
-0.0572327
-0.0570918
-0.0560518
-0.0529323
0
0
-0.0157482
-0.0329987
-0.0429716
-0.0481331
-0.0498025
-0.0499886
-0.0505588
-0.052045
-0.0539952
-0.0559814
-0.056547
-0.056809
-0.056921
-0.0577801
-0.0579495
-0.0580055
-0.0580087
-0.0580103
-0.05789
-0.0577463
-0.0576243
-0.057536
-0.0574782
-0.0573899
-0.0572871
-0.0571866
-0.0571006
-0.0570736
-0.0569972
-0.0569146
-0.0568113
-0.0566571
-0.0563756
-0.0557002
-0.0560091
-0.0561019
-0.0562802
-0.0563664
-0.0564105
-0.0564524
-0.0565065
-0.0565756
-0.0566669
-0.0567579
-0.0568668
-0.0565634
-0.0565483
-0.0566119
-0.0567287
-0.0569628
-0.0571281
-0.0566452
-0.0565348
-0.0564917
-0.0572105
-0.0572595
-0.057274
-0.0571445
-0.0560635
-0.0529197
0
0
-0.0157477
-0.0329966
-0.0429641
-0.0481164
-0.0498137
-0.0500755
-0.0507616
-0.0522703
-0.0545032
-0.0658259
-0.0576279
-0.0573747
-0.0574135
-0.0576916
-0.0578175
-0.0578551
-0.0578645
-0.0578257
-0.0577508
-0.0576635
-0.0575861
-0.057542
-0.0575653
-0.0574584
-0.0573326
-0.0572356
-0.0571774
-0.0571729
-0.0570117
-0.056921
-0.0568148
-0.0566106
-0.0559988
-0.036366
-0.0551369
-0.0526526
-0.0561262
-0.0563925
-0.056492
-0.0565436
-0.0565892
-0.0566393
-0.056685
-0.0567316
-0.0567585
-0.0566213
-0.0565669
-0.0565617
-0.0566214
-0.0569888
-0.0571643
-0.0568096
-0.0566754
-0.0566998
-0.0570281
-0.0571677
-0.057286
-0.0572813
-0.0561
-0.0529062
0
0
-0.0157473
-0.0329952
-0.0429611
-0.0481147
-0.0498314
-0.0501648
-0.0521446
-0.0524073
-0.0542787
-0.056298
-0.0568486
-0.0571285
-0.0573365
-0.0575291
-0.0576473
-0.0577112
-0.0586596
-0.0577361
-0.0576711
-0.0576065
-0.0575474
-0.0575293
-0.0577023
-0.0574743
-0.0573172
-0.0572304
-0.057189
-0.0571848
-0.0570703
-0.0569752
-0.0568906
-0.0567128
-0.0563976
-0.0556895
-0.0560434
-0.0561661
-0.0563897
-0.0565083
-0.056568
-0.0566081
-0.0566531
-0.0567082
-0.0567157
-0.0567109
-0.0566959
-0.0566335
-0.0565757
-0.056502
-0.0564262
-0.0570732
-0.0573607
-0.0568517
-0.0567692
-0.0567987
-0.0569377
-0.0570665
-0.0572454
-0.0574914
-0.056088
-0.0528654
0
0
-0.0157479
-0.0329955
-0.0429595
-0.0481107
-0.0498204
-0.0501081
-0.0508075
-0.0522495
-0.0540426
-0.0555767
-0.0564381
-0.0569215
-0.0572168
-0.0574126
-0.0575354
-0.0576088
-0.0576608
-0.0576548
-0.0576206
-0.0575653
-0.0574905
-0.0573728
-0.0570296
-0.0570832
-0.057107
-0.057147
-0.0571587
-0.0571016
-0.057068
-0.0570229
-0.0579326
-0.0568515
-0.0566675
-0.0564839
-0.0564895
-0.0565146
-0.0565629
-0.0565988
-0.0566236
-0.0566522
-0.0567111
-0.0568214
-0.0567679
-0.0567086
-0.0566693
-0.0566309
-0.0565926
-0.0565462
-0.0565143
-0.0566409
-0.0563758
-0.0567745
-0.0567931
-0.056817
-0.0568756
-0.0569165
-0.0568314
-0.0562795
-0.0556908
-0.0527611
0
0
-0.0157505
-0.0329996
-0.0429615
-0.048107
-0.0498065
-0.0500721
-0.0507026
-0.0522966
-0.0540271
-0.055434
-0.0563076
-0.0568187
-0.0571298
-0.0573269
-0.0574523
-0.0575323
-0.0575988
-0.0576283
-0.0576052
-0.0575465
-0.0574665
-0.0576592
-0.0572128
-0.0570766
-0.057012
-0.0571334
-0.0572131
-0.0572007
-0.0571462
-0.0570727
-0.0570094
-0.0568972
-0.0567935
-0.0567092
-0.0566709
-0.0566552
-0.0566522
-0.0566518
-0.056653
-0.0566651
-0.0567277
-0.0569686
-0.0567747
-0.056681
-0.0566401
-0.0566164
-0.056597
-0.0565789
-0.0565718
-0.0565955
-0.056549
-0.0566927
-0.0567529
-0.056794
-0.0568422
-0.0568866
-0.0568767
-0.056604
-0.0557254
-0.0527335
0
0
-0.0157578
-0.0330135
-0.0429743
-0.0481084
-0.0497934
-0.0500394
-0.0506639
-0.052526
-0.0540413
-0.0554057
-0.0562089
-0.0567157
-0.0570363
-0.0572403
-0.0573686
-0.0574421
-0.0575742
-0.0576626
-0.0576312
-0.0575457
-0.057432
-0.0573393
-0.0572143
-0.0570344
-0.0567988
-0.0572007
-0.0573627
-0.0573471
-0.0572521
-0.057138
-0.057034
-0.0569392
-0.0568597
-0.0567969
-0.0567526
-0.0567215
-0.0566983
-0.0566784
-0.0566575
-0.0566249
-0.0565366
-0.0562572
-0.056453
-0.05655
-0.0565815
-0.0565847
-0.05658
-0.0565766
-0.0565808
-0.0565965
-0.0566105
-0.056669
-0.0567189
-0.056766
-0.0568215
-0.056897
-0.0575415
-0.0567752
-0.0557825
-0.0527322
0
0
-0.0157752
-0.0330518
-0.0430171
-0.048122
-0.0497813
-0.0499774
-0.0504162
-0.0512974
-0.0533114
-0.0551179
-0.0559452
-0.0565484
-0.0569287
-0.0571529
-0.0572905
-0.0572608
-0.0576014
-0.0578293
-0.0577233
-0.0575689
-0.0573719
-0.0572837
-0.0571828
-0.05694
-0.0563544
-0.0574715
-0.0575911
-0.0574813
-0.057329
-0.0571826
-0.0570627
-0.0569696
-0.0568977
-0.0568408
-0.0567947
-0.056756
-0.0567218
-0.0566896
-0.0566561
-0.0566148
-0.0565485
-0.0564454
-0.0564883
-0.0565326
-0.056549
-0.0565485
-0.0565441
-0.0565441
-0.0565527
-0.0565714
-0.0565985
-0.0566395
-0.0566848
-0.0567348
-0.0567956
-0.0568727
-0.0569442
-0.0568003
-0.0558004
-0.0527311
0
0
-0.015814
-0.0331564
-0.0431279
-0.0481614
-0.0497945
-0.0499797
-0.0504374
-0.0516484
-0.0534193
-0.055004
-0.0559732
-0.0565712
-0.0569279
-0.0571193
-0.0592344
-0.0567587
-0.0578059
-0.0582792
-0.0578969
-0.0576538
-0.0572997
-0.057304
-0.0572513
-0.0571249
-0.0569399
-0.0572863
-0.0574061
-0.0573719
-0.0572716
-0.0571594
-0.0570607
-0.0569818
-0.0569191
-0.0568669
-0.0568197
-0.056775
-0.0567316
-0.0566884
-0.0566447
-0.0566008
-0.0565599
-0.0565307
-0.0565333
-0.0565322
-0.0565185
-0.0564998
-0.0564858
-0.0564827
-0.056493
-0.0565165
-0.0565508
-0.0565938
-0.0566419
-0.056696
-0.056763
-0.0568468
-0.0569127
-0.056788
-0.0558038
-0.0527279
0
0
-0.0158945
-0.0335154
-0.0433083
-0.0482898
-0.049879
-0.0500395
-0.0505126