# vtk DataFile Version 2.0
FlowField
ASCII
DATASET STRUCTURED_GRID
DIMENSIONS 62 47 32 
POINTS 93248 double
0 0 0
0.01 0 0
0.02 0 0
0.03 0 0
0.04 0 0
0.05 0 0
0.06 0 0
0.07 0 0
0.08 0 0
0.09 0 0
0.1 0 0
0.11 0 0
0.12 0 0
0.13 0 0
0.14 0 0
0.15 0 0
0.16 0 0
0.17 0 0
0.18 0 0
0.19 0 0
0.2 0 0
0.21 0 0
0.22 0 0
0.23 0 0
0.24 0 0
0.25 0 0
0.26 0 0
0.27 0 0
0.28 0 0
0.29 0 0
0.3 0 0
0.31 0 0
0.32 0 0
0.33 0 0
0.34 0 0
0.35 0 0
0.36 0 0
0.37 0 0
0.38 0 0
0.39 0 0
0.4 0 0
0.41 0 0
0.42 0 0
0.43 0 0
0.44 0 0
0.45 0 0
0.46 0 0
0.47 0 0
0.48 0 0
0.49 0 0
0.5 0 0
0.51 0 0
0.52 0 0
0.53 0 0
0.54 0 0
0.55 0 0
0.56 0 0
0.57 0 0
0.58 0 0
0.59 0 0
0.6 0 0
0.61 0 0
0 0.01 0
0.01 0.01 0
0.02 0.01 0
0.03 0.01 0
0.04 0.01 0
0.05 0.01 0
0.06 0.01 0
0.07 0.01 0
0.08 0.01 0
0.09 0.01 0
0.1 0.01 0
0.11 0.01 0
0.12 0.01 0
0.13 0.01 0
0.14 0.01 0
0.15 0.01 0
0.16 0.01 0
0.17 0.01 0
0.18 0.01 0
0.19 0.01 0
0.2 0.01 0
0.21 0.01 0
0.22 0.01 0
0.23 0.01 0
0.24 0.01 0
0.25 0.01 0
0.26 0.01 0
0.27 0.01 0
0.28 0.01 0
0.29 0.01 0
0.3 0.01 0
0.31 0.01 0
0.32 0.01 0
0.33 0.01 0
0.34 0.01 0
0.35 0.01 0
0.36 0.01 0
0.37 0.01 0
0.38 0.01 0
0.39 0.01 0
0.4 0.01 0
0.41 0.01 0
0.42 0.01 0
0.43 0.01 0
0.44 0.01 0
0.45 0.01 0
0.46 0.01 0
0.47 0.01 0
0.48 0.01 0
0.49 0.01 0
0.5 0.01 0
0.51 0.01 0
0.52 0.01 0
0.53 0.01 0
0.54 0.01 0
0.55 0.01 0
0.56 0.01 0
0.57 0.01 0
0.58 0.01 0
0.59 0.01 0
0.6 0.01 0
0.61 0.01 0
0 0.02 0
0.01 0.02 0
0.02 0.02 0
0.03 0.02 0
0.04 0.02 0
0.05 0.02 0
0.06 0.02 0
0.07 0.02 0
0.08 0.02 0
0.09 0.02 0
0.1 0.02 0
0.11 0.02 0
0.12 0.02 0
0.13 0.02 0
0.14 0.02 0
0.15 0.02 0
0.16 0.02 0
0.17 0.02 0
0.18 0.02 0
0.19 0.02 0
0.2 0.02 0
0.21 0.02 0
0.22 0.02 0
0.23 0.02 0
0.24 0.02 0
0.25 0.02 0
0.26 0.02 0
0.27 0.02 0
0.28 0.02 0
0.29 0.02 0
0.3 0.02 0
0.31 0.02 0
0.32 0.02 0
0.33 0.02 0
0.34 0.02 0
0.35 0.02 0
0.36 0.02 0
0.37 0.02 0
0.38 0.02 0
0.39 0.02 0
0.4 0.02 0
0.41 0.02 0
0.42 0.02 0
0.43 0.02 0
0.44 0.02 0
0.45 0.02 0
0.46 0.02 0
0.47 0.02 0
0.48 0.02 0
0.49 0.02 0
0.5 0.02 0
0.51 0.02 0
0.52 0.02 0
0.53 0.02 0
0.54 0.02 0
0.55 0.02 0
0.56 0.02 0
0.57 0.02 0
0.58 0.02 0
0.59 0.02 0
0.6 0.02 0
0.61 0.02 0
0 0.03 0
0.01 0.03 0
0.02 0.03 0
0.03 0.03 0
0.04 0.03 0
0.05 0.03 0
0.06 0.03 0
0.07 0.03 0
0.08 0.03 0
0.09 0.03 0
0.1 0.03 0
0.11 0.03 0
0.12 0.03 0
0.13 0.03 0
0.14 0.03 0
0.15 0.03 0
0.16 0.03 0
0.17 0.03 0
0.18 0.03 0
0.19 0.03 0
0.2 0.03 0
0.21 0.03 0
0.22 0.03 0
0.23 0.03 0
0.24 0.03 0
0.25 0.03 0
0.26 0.03 0
0.27 0.03 0
0.28 0.03 0
0.29 0.03 0
0.3 0.03 0
0.31 0.03 0
0.32 0.03 0
0.33 0.03 0
0.34 0.03 0
0.35 0.03 0
0.36 0.03 0
0.37 0.03 0
0.38 0.03 0
0.39 0.03 0
0.4 0.03 0
0.41 0.03 0
0.42 0.03 0
0.43 0.03 0
0.44 0.03 0
0.45 0.03 0
0.46 0.03 0
0.47 0.03 0
0.48 0.03 0
0.49 0.03 0
0.5 0.03 0
0.51 0.03 0
0.52 0.03 0
0.53 0.03 0
0.54 0.03 0
0.55 0.03 0
0.56 0.03 0
0.57 0.03 0
0.58 0.03 0
0.59 0.03 0
0.6 0.03 0
0.61 0.03 0
0 0.04 0
0.01 0.04 0
0.02 0.04 0
0.03 0.04 0
0.04 0.04 0
0.05 0.04 0
0.06 0.04 0
0.07 0.04 0
0.08 0.04 0
0.09 0.04 0
0.1 0.04 0
0.11 0.04 0
0.12 0.04 0
0.13 0.04 0
0.14 0.04 0
0.15 0.04 0
0.16 0.04 0
0.17 0.04 0
0.18 0.04 0
0.19 0.04 0
0.2 0.04 0
0.21 0.04 0
0.22 0.04 0
0.23 0.04 0
0.24 0.04 0
0.25 0.04 0
0.26 0.04 0
0.27 0.04 0
0.28 0.04 0
0.29 0.04 0
0.3 0.04 0
0.31 0.04 0
0.32 0.04 0
0.33 0.04 0
0.34 0.04 0
0.35 0.04 0
0.36 0.04 0
0.37 0.04 0
0.38 0.04 0
0.39 0.04 0
0.4 0.04 0
0.41 0.04 0
0.42 0.04 0
0.43 0.04 0
0.44 0.04 0
0.45 0.04 0
0.46 0.04 0
0.47 0.04 0
0.48 0.04 0
0.49 0.04 0
0.5 0.04 0
0.51 0.04 0
0.52 0.04 0
0.53 0.04 0
0.54 0.04 0
0.55 0.04 0
0.56 0.04 0
0.57 0.04 0
0.58 0.04 0
0.59 0.04 0
0.6 0.04 0
0.61 0.04 0
0 0.05 0
0.01 0.05 0
0.02 0.05 0
0.03 0.05 0
0.04 0.05 0
0.05 0.05 0
0.06 0.05 0
0.07 0.05 0
0.08 0.05 0
0.09 0.05 0
0.1 0.05 0
0.11 0.05 0
0.12 0.05 0
0.13 0.05 0
0.14 0.05 0
0.15 0.05 0
0.16 0.05 0
0.17 0.05 0
0.18 0.05 0
0.19 0.05 0
0.2 0.05 0
0.21 0.05 0
0.22 0.05 0
0.23 0.05 0
0.24 0.05 0
0.25 0.05 0
0.26 0.05 0
0.27 0.05 0
0.28 0.05 0
0.29 0.05 0
0.3 0.05 0
0.31 0.05 0
0.32 0.05 0
0.33 0.05 0
0.34 0.05 0
0.35 0.05 0
0.36 0.05 0
0.37 0.05 0
0.38 0.05 0
0.39 0.05 0
0.4 0.05 0
0.41 0.05 0
0.42 0.05 0
0.43 0.05 0
0.44 0.05 0
0.45 0.05 0
0.46 0.05 0
0.47 0.05 0
0.48 0.05 0
0.49 0.05 0
0.5 0.05 0
0.51 0.05 0
0.52 0.05 0
0.53 0.05 0
0.54 0.05 0
0.55 0.05 0
0.56 0.05 0
0.57 0.05 0
0.58 0.05 0
0.59 0.05 0
0.6 0.05 0
0.61 0.05 0
0 0.06 0
0.01 0.06 0
0.02 0.06 0
0.03 0.06 0
0.04 0.06 0
0.05 0.06 0
0.06 0.06 0
0.07 0.06 0
0.08 0.06 0
0.09 0.06 0
0.1 0.06 0
0.11 0.06 0
0.12 0.06 0
0.13 0.06 0
0.14 0.06 0
0.15 0.06 0
0.16 0.06 0
0.17 0.06 0
0.18 0.06 0
0.19 0.06 0
0.2 0.06 0
0.21 0.06 0
0.22 0.06 0
0.23 0.06 0
0.24 0.06 0
0.25 0.06 0
0.26 0.06 0
0.27 0.06 0
0.28 0.06 0
0.29 0.06 0
0.3 0.06 0
0.31 0.06 0
0.32 0.06 0
0.33 0.06 0
0.34 0.06 0
0.35 0.06 0
0.36 0.06 0
0.37 0.06 0
0.38 0.06 0
0.39 0.06 0
0.4 0.06 0
0.41 0.06 0
0.42 0.06 0
0.43 0.06 0
0.44 0.06 0
0.45 0.06 0
0.46 0.06 0
0.47 0.06 0
0.48 0.06 0
0.49 0.06 0
0.5 0.06 0
0.51 0.06 0
0.52 0.06 0
0.53 0.06 0
0.54 0.06 0
0.55 0.06 0
0.56 0.06 0
0.57 0.06 0
0.58 0.06 0
0.59 0.06 0
0.6 0.06 0
0.61 0.06 0
0 0.07 0
0.01 0.07 0
0.02 0.07 0
0.03 0.07 0
0.04 0.07 0
0.05 0.07 0
0.06 0.07 0
0.07 0.07 0
0.08 0.07 0
0.09 0.07 0
0.1 0.07 0
0.11 0.07 0
0.12 0.07 0
0.13 0.07 0
0.14 0.07 0
0.15 0.07 0
0.16 0.07 0
0.17 0.07 0
0.18 0.07 0
0.19 0.07 0
0.2 0.07 0
0.21 0.07 0
0.22 0.07 0
0.23 0.07 0
0.24 0.07 0
0.25 0.07 0
0.26 0.07 0
0.27 0.07 0
0.28 0.07 0
0.29 0.07 0
0.3 0.07 0
0.31 0.07 0
0.32 0.07 0
0.33 0.07 0
0.34 0.07 0
0.35 0.07 0
0.36 0.07 0
0.37 0.07 0
0.38 0.07 0
0.39 0.07 0
0.4 0.07 0
0.41 0.07 0
0.42 0.07 0
0.43 0.07 0
0.44 0.07 0
0.45 0.07 0
0.46 0.07 0
0.47 0.07 0
0.48 0.07 0
0.49 0.07 0
0.5 0.07 0
0.51 0.07 0
0.52 0.07 0
0.53 0.07 0
0.54 0.07 0
0.55 0.07 0
0.56 0.07 0
0.57 0.07 0
0.58 0.07 0
0.59 0.07 0
0.6 0.07 0
0.61 0.07 0
0 0.08 0
0.01 0.08 0
0.02 0.08 0
0.03 0.08 0
0.04 0.08 0
0.05 0.08 0
0.06 0.08 0
0.07 0.08 0
0.08 0.08 0
0.09 0.08 0
0.1 0.08 0
0.11 0.08 0
0.12 0.08 0
0.13 0.08 0
0.14 0.08 0
0.15 0.08 0
0.16 0.08 0
0.17 0.08 0
0.18 0.08 0
0.19 0.08 0
0.2 0.08 0
0.21 0.08 0
0.22 0.08 0
0.23 0.08 0
0.24 0.08 0
0.25 0.08 0
0.26 0.08 0
0.27 0.08 0
0.28 0.08 0
0.29 0.08 0
0.3 0.08 0
0.31 0.08 0
0.32 0.08 0
0.33 0.08 0
0.34 0.08 0
0.35 0.08 0
0.36 0.08 0
0.37 0.08 0
0.38 0.08 0
0.39 0.08 0
0.4 0.08 0
0.41 0.08 0
0.42 0.08 0
0.43 0.08 0
0.44 0.08 0
0.45 0.08 0
0.46 0.08 0
0.47 0.08 0
0.48 0.08 0
0.49 0.08 0
0.5 0.08 0
0.51 0.08 0
0.52 0.08 0
0.53 0.08 0
0.54 0.08 0
0.55 0.08 0
0.56 0.08 0
0.57 0.08 0
0.58 0.08 0
0.59 0.08 0
0.6 0.08 0
0.61 0.08 0
0 0.09 0
0.01 0.09 0
0.02 0.09 0
0.03 0.09 0
0.04 0.09 0
0.05 0.09 0
0.06 0.09 0
0.07 0.09 0
0.08 0.09 0
0.09 0.09 0
0.1 0.09 0
0.11 0.09 0
0.12 0.09 0
0.13 0.09 0
0.14 0.09 0
0.15 0.09 0
0.16 0.09 0
0.17 0.09 0
0.18 0.09 0
0.19 0.09 0
0.2 0.09 0
0.21 0.09 0
0.22 0.09 0
0.23 0.09 0
0.24 0.09 0
0.25 0.09 0
0.26 0.09 0
0.27 0.09 0
0.28 0.09 0
0.29 0.09 0
0.3 0.09 0
0.31 0.09 0
0.32 0.09 0
0.33 0.09 0
0.34 0.09 0
0.35 0.09 0
0.36 0.09 0
0.37 0.09 0
0.38 0.09 0
0.39 0.09 0
0.4 0.09 0
0.41 0.09 0
0.42 0.09 0
0.43 0.09 0
0.44 0.09 0
0.45 0.09 0
0.46 0.09 0
0.47 0.09 0
0.48 0.09 0
0.49 0.09 0
0.5 0.09 0
0.51 0.09 0
0.52 0.09 0
0.53 0.09 0
0.54 0.09 0
0.55 0.09 0
0.56 0.09 0
0.57 0.09 0
0.58 0.09 0
0.59 0.09 0
0.6 0.09 0
0.61 0.09 0
0 0.1 0
0.01 0.1 0
0.02 0.1 0
0.03 0.1 0
0.04 0.1 0
0.05 0.1 0
0.06 0.1 0
0.07 0.1 0
0.08 0.1 0
0.09 0.1 0
0.1 0.1 0
0.11 0.1 0
0.12 0.1 0
0.13 0.1 0
0.14 0.1 0
0.15 0.1 0
0.16 0.1 0
0.17 0.1 0
0.18 0.1 0
0.19 0.1 0
0.2 0.1 0
0.21 0.1 0
0.22 0.1 0
0.23 0.1 0
0.24 0.1 0
0.25 0.1 0
0.26 0.1 0
0.27 0.1 0
0.28 0.1 0
0.29 0.1 0
0.3 0.1 0
0.31 0.1 0
0.32 0.1 0
0.33 0.1 0
0.34 0.1 0
0.35 0.1 0
0.36 0.1 0
0.37 0.1 0
0.38 0.1 0
0.39 0.1 0
0.4 0.1 0
0.41 0.1 0
0.42 0.1 0
0.43 0.1 0
0.44 0.1 0
0.45 0.1 0
0.46 0.1 0
0.47 0.1 0
0.48 0.1 0
0.49 0.1 0
0.5 0.1 0
0.51 0.1 0
0.52 0.1 0
0.53 0.1 0
0.54 0.1 0
0.55 0.1 0
0.56 0.1 0
0.57 0.1 0
0.58 0.1 0
0.59 0.1 0
0.6 0.1 0
0.61 0.1 0
0 0.11 0
0.01 0.11 0
0.02 0.11 0
0.03 0.11 0
0.04 0.11 0
0.05 0.11 0
0.06 0.11 0
0.07 0.11 0
0.08 0.11 0
0.09 0.11 0
0.1 0.11 0
0.11 0.11 0
0.12 0.11 0
0.13 0.11 0
0.14 0.11 0
0.15 0.11 0
0.16 0.11 0
0.17 0.11 0
0.18 0.11 0
0.19 0.11 0
0.2 0.11 0
0.21 0.11 0
0.22 0.11 0
0.23 0.11 0
0.24 0.11 0
0.25 0.11 0
0.26 0.11 0
0.27 0.11 0
0.28 0.11 0
0.29 0.11 0
0.3 0.11 0
0.31 0.11 0
0.32 0.11 0
0.33 0.11 0
0.34 0.11 0
0.35 0.11 0
0.36 0.11 0
0.37 0.11 0
0.38 0.11 0
0.39 0.11 0
0.4 0.11 0
0.41 0.11 0
0.42 0.11 0
0.43 0.11 0
0.44 0.11 0
0.45 0.11 0
0.46 0.11 0
0.47 0.11 0
0.48 0.11 0
0.49 0.11 0
0.5 0.11 0
0.51 0.11 0
0.52 0.11 0
0.53 0.11 0
0.54 0.11 0
0.55 0.11 0
0.56 0.11 0
0.57 0.11 0
0.58 0.11 0
0.59 0.11 0
0.6 0.11 0
0.61 0.11 0
0 0.12 0
0.01 0.12 0
0.02 0.12 0
0.03 0.12 0
0.04 0.12 0
0.05 0.12 0
0.06 0.12 0
0.07 0.12 0
0.08 0.12 0
0.09 0.12 0
0.1 0.12 0
0.11 0.12 0
0.12 0.12 0
0.13 0.12 0
0.14 0.12 0
0.15 0.12 0
0.16 0.12 0
0.17 0.12 0
0.18 0.12 0
0.19 0.12 0
0.2 0.12 0
0.21 0.12 0
0.22 0.12 0
0.23 0.12 0
0.24 0.12 0
0.25 0.12 0
0.26 0.12 0
0.27 0.12 0
0.28 0.12 0
0.29 0.12 0
0.3 0.12 0
0.31 0.12 0
0.32 0.12 0
0.33 0.12 0
0.34 0.12 0
0.35 0.12 0
0.36 0.12 0
0.37 0.12 0
0.38 0.12 0
0.39 0.12 0
0.4 0.12 0
0.41 0.12 0
0.42 0.12 0
0.43 0.12 0
0.44 0.12 0
0.45 0.12 0
0.46 0.12 0
0.47 0.12 0
0.48 0.12 0
0.49 0.12 0
0.5 0.12 0
0.51 0.12 0
0.52 0.12 0
0.53 0.12 0
0.54 0.12 0
0.55 0.12 0
0.56 0.12 0
0.57 0.12 0
0.58 0.12 0
0.59 0.12 0
0.6 0.12 0
0.61 0.12 0
0 0.13 0
0.01 0.13 0
0.02 0.13 0
0.03 0.13 0
0.04 0.13 0
0.05 0.13 0
0.06 0.13 0
0.07 0.13 0
0.08 0.13 0
0.09 0.13 0
0.1 0.13 0
0.11 0.13 0
0.12 0.13 0
0.13 0.13 0
0.14 0.13 0
0.15 0.13 0
0.16 0.13 0
0.17 0.13 0
0.18 0.13 0
0.19 0.13 0
0.2 0.13 0
0.21 0.13 0
0.22 0.13 0
0.23 0.13 0
0.24 0.13 0
0.25 0.13 0
0.26 0.13 0
0.27 0.13 0
0.28 0.13 0
0.29 0.13 0
0.3 0.13 0
0.31 0.13 0
0.32 0.13 0
0.33 0.13 0
0.34 0.13 0
0.35 0.13 0
0.36 0.13 0
0.37 0.13 0
0.38 0.13 0
0.39 0.13 0
0.4 0.13 0
0.41 0.13 0
0.42 0.13 0
0.43 0.13 0
0.44 0.13 0
0.45 0.13 0
0.46 0.13 0
0.47 0.13 0
0.48 0.13 0
[...]
POINT_DATA 93248

SCALARS v double
LOOKUP_TABLE default
0
0
0
0
0
0
0
0
0
0
0
0
0
0
0
0
0
0
0
0
0
0
0
0
0
0
0
0
0
0
0
0
0
0
0
0
0
0
-0.0500058
0
0
0
0
0
-0.0529068
0
0
0
0
0
0
0
0
0
0
0
0
0
0
0
0
0
0
0.0465488
-0.0577548
0.0504987
0.0373479
0.0219892
0
-0.0036176
-0.0126637
-0.0180847
-0.0207013
-0.0217784
-0.0230364
-0.0226329
-0.0224137
-0.0222034
-0.0222554
-0.021963
-0.0216336
-0.0204851
-0.0251111
-0.0232647
-0.0218099
-0.0221461
-0.0222642
-0.0223441
-0.0223931
-0.0224159
-0.0224183
-0.0224006
-0.022363
-0.0223751
-0.0228969
-0.0223804
-0.0219015
-0.0220511
-0.0343255
-0.0219025
-0.0228381
-0.017426
-0.0235768
-0.0325751
-0.0243526
-0.0241833
-0.0249104
-0.0296755
-0.0610579
-0.0232757
-0.0290694
-0.0221412
-0.0220235
-0.0221231
-0.023458
-0.0248723
-0.0342729
-0.0240704
-0.0439611
-0.0226741
-0.020827
-0.0184622
-0.014578
0
0
0.0276756
0.053345
0.0614385
0.0572076
0.042716
0.0306189
0.0150964
-0.000315903
-0.0122967
-0.0194961
-0.0231345
-0.0614369
-0.026773
-0.0268841
-0.0215186
-0.0272651
-0.0266905
-0.0275844
-0.0295728
-0.0681829
-0.0271652
-0.0276459
-0.0274266
-0.0275789
-0.0277485
-0.0278647
-0.0279301
-0.0279529
-0.0279315
-0.0278441
-0.0277359
-0.047395
-0.0280325
-0.0269107
-0.0274215
-0.0264795
-0.0240463
-0.0207732
-0.0293126
-0.0322302
-0.0327561
-0.0316301
-0.0313606
-0.0310179
-0.0313425
-0.0317806
-0.0296642
-0.0290694
-0.0277645
-0.0277396
-0.0279118
-0.0288444
-0.0297521
-0.030795
-0.0288992
-0.0280456
-0.0501094
-0.0247715
-0.0220014
-0.0185274
0
0
0.0145963
0.0366448
0.0477506
0.0533458
0.0519803
0.0395042
0.025052
0.00985886
-0.00356404
-0.0133184
-0.0191775
-0.0235178
-0.0252889
-0.0264066
-0.0271926
-0.0281444
0
-0.0282652
-0.0294238
-0.0295755
-0.0288517
-0.0287885
-0.0288505
-0.0290297
-0.0292135
-0.029359
-0.0294573
-0.0295112
-0.0295254
-0.0295151
-0.0295696
-0.0300542
-0.0296196
-0.0297926
-0.0280886
-0.0272822
-0.0260643
-0.0255341
-0.029937
-0.032779
-0.0338813
-0.0339181
-0.0328154
-0.0327432
-0.0329717
-0.0306585
-0.0300825
-0.0296059
-0.0303043
-0.0300369
-0.0299453
-0.0301587
-0.0303763
-0.0303381
-0.0295394
-0.0287878
-0.0281695
-0.0258513
-0.0235366
-0.0211761
0
0
0.00856792
0.0241252
0.0367777
0.0411388
0.0416194
0.0360101
0.0262494
0.0141306
0.00226958
-0.0074381
-0.0143315
-0.0191195
-0.0221425
-0.0241955
-0.025826
-0.0267599
-0.0266829
-0.027581
-0.0284037
-0.0286222
-0.0287168
-0.0288748
-0.0290723
-0.029288
-0.0294905
-0.0296595
-0.0297876
-0.0298725
-0.0299179
-0.0299407
-0.0299913
-0.0301719
-0.0304018
-0.030112
-0.0291066
-0.0283819
-0.0278982
-0.0281315
-0.0302106
-0.032033
-0.0330372
-0.0333092
-0.0329879
-0.0328227
-0.032392
-0.0301052
-0.0303618
-0.0303992
-0.0306625
-0.0305717
-0.0304313
-0.0303076
-0.0301132
-0.0297549
-0.029153
-0.0284168
-0.0274731
-0.0258963
-0.024173
-0.0232686
0
0
0.00543122
0.015423
0.0237589
0.028723
0.0306877
0.0288518
0.022972
0.0140306
0.00446743
-0.00415243
-0.0109128
-0.0158856
-0.0194418
-0.0220342
-0.0238516
-0.0255731
-0.0261919
-0.0269496
-0.0274423
-0.0279469
-0.0283888
-0.0287707
-0.0290993
-0.0293856
-0.0296323
-0.0298378
-0.0300007
-0.0301155
-0.0301798
-0.0301971
-0.0301874
-0.0302794
-0.0313748
-0.0306411
-0.0298827
-0.0294227
-0.0293148
-0.0297057
-0.0307049
-0.0317168
-0.0324056
-0.0327167
-0.0327537
-0.0327444
-0.0324873
0
-0.0308301
-0.0310246
-0.0310055
-0.0308843
-0.0307048
-0.0304188
-0.0299666
-0.0294459
-0.0288656
-0.0281879
-0.0273543
-0.0262383
-0.0246101
-0.0249785
-0.0594628
0
0.00357275
0.00988313
0.0153304
0.0193025
0.0215862
0.0215964
0.0179845
0
0.00396886
-0.00325937
-0.00934807
-0.0141257
-0.0177895
-0.0206417
-0.0230439
-0.025447
-0.0254859
-0.0256617
-0.0266665
-0.0275254
-0.0282453
-0.0288051
-0.029246
-0.0296066
-0.0299091
-0.0301573
-0.0303621
-0.0305096
-0.0305889
-0.0305881
-0.0304811
-0.0302943
-0.0640755
-0.0312412
-0.0305574
-0.0303651
-0.0304266
-0.0307564
-0.0313016
-0.0318648
-0.0322942
-0.0325303
-0.0326166
-0.032524
-0.0320926
-0.0307456
-0.0311392
-0.0313352
-0.0313559
-0.0312953
-0.0311556
-0.0307958
-0.0300735
-0.0294211
-0.0288751
-0.0283384
-0.0279212
-0.0282899
-0.0292386
-0.0252919
0
0
0.00236366
0.00620059
0.00964243
0.0124534
0.0143415
0.0144449
0.0127063
0.00792933
0.0020155
-0.00400236
-0.00928154
-0.0136552
-0.0171423
-0.0199329
-0.0225106
-0.0261277
-0.0248773
-0.0253726
-0.0265692
-0.0276375
-0.0284954
-0.029113
-0.0295937
-0.0300017
-0.0303578
-0.0306438
-0.0309005
-0.031089
-0.0311934
-0.0312142
-0.031233
-0.031391
-0.0323967
-0.0319281
-0.0315543
-0.0314141
-0.0314673
-0.031679
-0.0319908
-0.0323136
-0.0325751
-0.032736
-0.0327436
-0.0326363
-0.0323354
-0.0318405
-0.0317944
-0.0318274
-0.0318439
-0.0318635
-0.0318519
-0.0315218
-0.0303371
-0.0295854
-0.0291341
-0.028675
-0.0281794
-0.0471897
-0.0227169
-0.0248084
0
0
0.00153098
0.00362142
0.00559148
0.00736831
0.00872045
0.00893692
0.00745749
0.00385724
-0.000941853
-0.0058873
-0.0103339
-0.0143338
-0.0194418
-0.0195826
-0.0211099
-0.0207272
-0.0249134
-0.0269547
-0.027873
-0.0285176
-0.0292584
-0.0297064
-0.0301312
-0.0305509
-0.0306438
-0.0313115
-0.0316156
-0.0318504
-0.0319817
-0.0319794
-0.0320337
-0.0322053
-0.0325585
-0.0325475
-0.0324517
-0.0324185
-0.0324572
-0.0325823
-0.0327636
-0.0329506
-0.0330991
-0.0331787
-0.0331623
-0.0330579
-0.0328616
-0.0326223
-0.0324927
-0.0324289
-0.0324115
-0.0324803
-0.03266
-0.0326669
-0.0305786
-0.0299572
-0.0297622
-0.0295385
-0.029255
-0.0289894
-0.0268456
-0.0253857
0
0
0.000933773
0.00172812
0.00255651
0.0034061
0.00415231
0.00415028
0.00272041
-0.000330985
-0.00432637
-0.00840294
-0.0120468
-0.0148731
-0.0178282
-0.0200001
-0.0215186
-0.0225075
-0.0250464
-0.0269626
-0.0281632
-0.0289623
-0.0357439
-0.0303169
-0.0307371
-0.0312095
-0.0317235
-0.0320943
-0.0324763
-0.0328019
-0.0329955
-0.0329032
-0.0327977
-0.032918
-0.0331628
-0.0332934
-0.033344
-0.0333927
-0.0334295
-0.0335052
-0.0336167
-0.0337242
-0.0337983
-0.0338196
-0.0337754
-0.0336712
-0.0335183
-0.0333453
-0.0331909
-0.0330556
-0.0329402
-0.0328816
-0.032978
-0.0331706
-0.0306995
-0.0308982
-0.0309078
-0.0306984
-0.0303804
-0.0298621
-0.0285514
-0.0263092
0
0
0.000490333
0.000280745
0.000195888
0.00014757
0.00028879
-8.02226e-05
-0.00160457
-0.00438137
-0.00782575
-0.0112407
-0.0142697
-0.0168522
-0.0191858
-0.0211204
-0.0225079
-0.0239472
-0.0257517
-0.0273582
-0.0286148
-0.0296242
-0.0304033
-0.0309636
-0.0314717
-0.0319543
-0.0323629
-0.0329514
-0.0334809
-0.0339697
-0.03438
-0.034562
-0.0329915
-0.033484
-0.0339268
-0.0341616
-0.0342672
-0.0343255
-0.0344461
-0.0344872
-0.0345607
-0.0346159
-0.0346348
-0.03461
-0.03453
-0.0344105
-0.0342627
-0.0340968
-0.0339164
-0.0337065
-0.0334263
-0.0329879
-0.0321997
-0.0311369
-0.0340348
-0.0334423
-0.032678
-0.0320788
-0.0315737
-0.0309378
-0.0297298
-0.0272879
0
0
0.000146594
-0.000872866
-0.0016752
-0.0062806
-0.00303934
-0.00383681
-0.00556392
-0.00822648
-0.011298
-0.01422
-0.0167589
-0.0189703
-0.0209686
-0.0227362
-0.0235093
-0.0251353
-0.0267547
-0.0281791
-0.0293532
-0.0302447
-0.0311695
-0.0318
-0.032328
-0.0328335
-0.0333525
-0.0339576
-0.0346219
-0.0353109
-0.035948
-0.0362552
0
-0.0345822
-0.0350422
-0.03519
-0.035265
-0.0353237
-0.0354015
-0.035539
-0.0356016
-0.0356136
-0.0355851
-0.0355264
-0.0353908
-0.0352406
-0.0350802
-0.0349067
-0.0347089
-0.0344599
-0.034121
-0.0336867
-0.0331335
-0.0328763
-0.0342096
-0.0342729
-0.0337911
-0.0332339
-0.0326966
-0.0320226
-0.030796
-0.0282491
0
0
-0.000138867
-0.0018718
-0.00343675
-0.00483873
-0.0059304
-0.0072376
-0.0092279
-0.0118763
-0.0146898
-0.0172526
-0.019384
-0.02125
-0.0230094
-0.024838
0
-0.0264892
-0.0280544
-0.0293119
-0.0304362
-0.0313055
-0.0320624
-0.0326717
-0.0332076
-0.0337327
-0.0343034
-0.0349885
-0.0358438
-0.0368235
-0.0377128
-0.0372114
-0.035629
-0.035737
-0.0359512
-0.036102
-0.0362168
-0.0363315
-0.0364625
-0.0366189
-0.036703
-0.0366923
-0.0366222
-0.0365899
-0.0363246
-0.0361333
-0.0359578
-0.0357813
-0.0355856
-0.0353345
-0.0349872
-0.0347237
-0.0344607
-0.0344057
-0.0348054
-0.0348757
-0.0346166
-0.0342092
-0.033721
-0.0330634
-0.0318132
-0.029177
0
0
-0.000379136
-0.00273228
-0.00492824
-0.00678192
-0.00852033
-0.010332
-0.0126266
-0.0153273
-0.0179618
-0.0211568
-0.0220519
-0.0235861
-0.0250061
-0.026292
-0.0268231
-0.0281287
-0.0293824
-0.0305281
-0.0317535
-0.0325339
-0.0331248
-0.0336397
-0.0341287
-0.0346319
-0.0352018
-0.0359442
-0.0370551
-0.0386339
-0.0411587
-0.0389707
-0.0374361
-0.0369695
-0.0369297
-0.0370212
-0.0371654
-0.037352
-0.0375598
-0.0378168
-0.0379425
-0.0378771
-0.0376749
-0.0373142
-0.0372263
-0.0370539
-0.0368776
-0.0367108
-0.0365414
-0.0363161
-0.0358725
-0.0358603
-0.0357545
-0.0356766
-0.0356873
-0.035663
-0.0354798
-0.0351652
-0.0346684
-0.034073
-0.0327939
-0.0300662
0
0
-0.000586333
-0.00349015
-0.0062806
-0.00883526
-0.0109684
-0.0132168
-0.0158169
-0.0186132
-0.0211568
-0.0231918
-0.0247179
-0.0259856
-0.0271357
-0.0281738
-0.0290041
-0.0299584
-0.0309023
-0.0318128
-0.0335059
-0.0339303
-0.0342828
-0.034669
-0.035085
-0.035518
-0.0359959
-0.0366282
-0.037787
-0.0301798
-0.0508411
-0.0405363
-0.0382212
-0.0377458
-0.0377322
-0.0378691
-0.0380856
-0.0383932
-0.0388231
-0.0392144
-0.0394349
-0.0392466
-0.0388905
-0.0385167
-0.038244
-0.0380161
-0.0378249
-0.0376721
-0.0375495
-0.0374053
-0.0306625
-0.0370753
-0.0370095
-0.0368552
-0.0366202
-0.0366246
-0.036465
-0.0362408
-0.0359265
-0.0351331
-0.0337531
-0.0309097
0
0
-0.000772709
-0.00414766
-0.00746356
-0.0104932
-0.0132073
-0.0159161
-0.0188283
-0.0217441
-0.0242281
-0.0260651
-0.027376
-0.0284277
-0.0293784
-0.030258
-0.0310528
-0.031819
-0.0324982
-0.0329548
-0.0636685
-0.0352906
-0.0354089
-0.0357439
-0.0360913
-0.03642
-0.0366872
-0.0368056
-0.0364088
-0.0336918
-0.0203053
-0.0332674
-0.0366636
-0.0377515
-0.038244
-0.0385935
-0.0389331
-0.039383
-0.0400418
-0.0408843
-0.0414624
-0.0408743
-0.0401761
-0.0396338
-0.0392519
-0.0389774
-0.0387684
-0.0386243
-0.0385052
-0.0383699
-0.0381308
-0.0382902
-0.0382132
-0.0381009
-0.0381476
-0.03779
-0.0375126
-0.0373546
-0.0369257
-0.0361645
-0.034685
-0.0316877
0
0
-0.00097605
-0.00469832
-0.00855593
-0.0121134
-0.0153391
-0.0184616
-0.0216833
-0.0247336
-0.0271921
-0.0288907
-0.0300184
-0.0308967
-0.0316967
-0.0324469
-0.0331278
-0.0337608
-0.0343628
-0.0350022
-0.0363009
-0.0365564
-0.0367582
-0.0369979
-0.0372434
-0.0374449
-0.0375374
-0.0373936
-0.0367365
-0.0350931
-0.0324462
-0.0352791
-0.0372067
-0.0382513
-0.0388797
-0.0393421
-0.0397193
-0.0402572
-0.041225
-0.0429793
-0.0450899
-0.042835
-0.0413782
-0.0406035
-0.0401672
-0.0398929
-0.0396786
-0.0395718
-0.039476
-0.0393937
-0.0394044
-0.0397055
-0.0394534
-0.0392414
-0.0391296
-0.0389061
-0.0383556
-0.0386104
-0.0380935
-0.037331
-0.0356803
-0.0323489
0
0
-0.00126642
0.00172812
-0.00962294
-0.0137391
-0.0174145
-0.0208187
-0.0243813
-0.0275922
-0.0300666
-0.0316718
-0.0326232
-0.0333698
-0.0340712
-0.0347228
-0.0352579
-0.0357415
-0.0362299
-0.0367746
-0.0374295
-0.0378121
-0.0380763
-0.0382973
-0.0384805
-0.0386031
-0.0386182
-0.0384483
-0.0379861
-0.0374012
-0.0371869
-0.0378811
-0.0386332
-0.0392478
-0.0397539
-0.0401908
-0.0404034
-0.0408227
-0.0418042
-0.0447779
-0.0549851
-0.0444216
-0.0419013
-0.041177
-0.040885
-0.0407254
-0.0396786
-0.0405199
-0.0404505
-0.040382
-0.0405113
-0.0414738
-0.0406782
-0.0403471
-0.0402863
-0.0403705
-0.0409625
-0.0403503
-0.0395447
-0.0389401
-0.0371535
-0.032766
0
0
-0.00127723
-0.00589192
-0.0106892
-0.0153256
-0.0194975
-0.0232516
-0.0269417
-0.0303496
-0.0328902
-0.0344404
-0.0351252
-0.0358056
-0.0364969
-0.0371075
-0.0374287
-0.0377207
-0.03807
-0.0385024
-0.038916
-0.0392292
-0.0394673
-0.0396543
-0.0397934
-0.0398745
-0.0398784
-0.0397827
-0.0395848
-0.0392507
-0.0401525
-0.0400316
-0.0401381
-0.0404036
-0.0407378
-0.0411018
-0.0409651
-0.0409441
-0.0403908
-0.0375116
-0.0231257
-0.0368257
-0.0401223
-0.0410758
-0.0413655
-0.041454
-0.0414549
-0.0414719
-0.0414359
-0.0413306
-0.0413564
-0.0663956
-0.0416802
-0.0413877
-0.0414249
-0.0414866
-0.0415133
-0.0412543
-0.0416956
-0.0414363
-0.040822
-0.0388457
0
0
-0.00137817
-0.00651877
-0.0116998
-0.0170674
-0.0216854
-0.0251198
-0.0293252
-0.033014
-0.0356683
-0.0372443
-0.0373053
-0.0381569
-0.0389872
-0.0396583
-0.0395569
-0.0396417
-0.0398914
-0.0403312
-0.0406075
-0.0408016
-0.0409589
-0.0410848
-0.0411758
-0.0412269
-0.0412374
-0.0412161
-0.0411343
-0.040671
-0.0691869
-0.0417064
-0.0414531
-0.0415679
-0.0416972
-0.0416829
-0.041989
-0.0416797
-0.0407766
-0.0388112
-0.0357402
-0.0385054
-0.0405808
-0.0415463
-0.0420106
-0.0422521
-0.0423847
-0.042483
-0.042536
-0.0425713
-0.04276
-0.0435352
-0.0429375
-0.0427136
-0.0427015
-0.0427188
-0.0426954
-0.042722
-0.0430244
-0.0429899
-0.0422428
-0.0392434
0
0
-0.00150998
-0.00707261
-0.0125363
-0.0300731
-0.0240833
0
-0.0317481
-0.035759
-0.0384599
-0.0402656
-0.00934807
-0.0405573
-0.0415743
-0.0423007
-0.0414548
-0.0415422
-0.0417678
-0.042475
-0.0425052
-0.0425141
-0.0425475
-0.0425886
-0.042615
-0.0426264
-0.042633
-0.0427021
-0.043274
-0.0426863
-0.0433509
-0.04307
-0.0429085
-0.0429141
-0.0429817
-0.0430023
-0.0430109
-0.0427054
-0.042046
-0.0411032
-0.0403913
-0.0410122
-0.0418735
-0.0424988
-0.0428969
-0.0431785
-0.0433709
-0.0435493
-0.0436735
-0.0437655
-0.043891
-0.0440787
-0.0439595
-0.0439524
-0.0439979
-0.0440227
-0.0439611
-0.0440365
-0.0442086
-0.0441215
-0.0431883
-0.0398978
0
0
-0.00166302
-0.00768427
-0.013751
-0.0199533
-0.025383
-0.0296737
-0.0344223
-0.0383529
-0.0409497
-0.0423125
-0.0423546
-0.0429418
-0.0435894
-0.0432066
-0.0441447
-0.0441415
-0.0439423
-0.0606023
-0.044502
-0.0442813
-0.0442064
-0.0441519
-0.044094
-0.0440398
-0.043965
-0.0437847
-0.0428874
-0.0436775
-0.0441302
-0.0441922
-0.0441936
-0.0442581
-0.0443978
-0.0445185
-0.0443489
-0.044029
-0.0435528
-0.0430729
-0.0428361
-0.0430036
-0.0433597
-0.0437048
-0.0439217
-0.0442306
-0.0444278
-0.0446725
-0.0448262
-0.0449237
-0.0449833
-0.0449812
-0.0449447
-0.0451325
-0.0452628
-0.0453384
-0.0451482
-0.0452284
-0.0453248
-0.0451327
-0.0440947
-0.0406772
0
0
-0.0018141
-0.0082691
-0.0147903
-0.0211487
-0.026994
-0.0322398
-0.0371243
-0.0410477
-0.0434572
-0.0445642
-0.0451234
-0.0451518
-0.0443266
-0.074697
-0.046657
-0.0464003
-0.0462874
-0.0465658
-0.0463299
-0.0461013
-0.0459245
-0.0457684
-0.0455904
-0.0454771
-0.0453768
-0.045222
-0.0449836
-0.0451066
-0.0452843
-0.0453606
-0.045416
-0.0455576
-0.0459002
-0.0464402
-0.0458924
-0.0455222
-0.0450439
-0.0447148
-0.0445802
-0.0446336
-0.0448069
-0.0450407
-0.0453751
-0.0454587
-0.0455824
-0.0458444
-0.0459729
-0.0460756
-0.0461248
-0.0460177
-0.0459078
-0.0462536
-0.0464091
-0.0466054
-0.0462604
-0.0464229
-0.0464347
-0.0460832
-0.0450247
-0.0415374
0
0
-0.00196075
-0.00883421
-0.0157808
-0.0225061
-0.0287934
-0.0345746
-0.0397562
-0.0438232
-0.0460583
-0.0466405
-0.0479185
-0.0479397
-0.0477109
-0.0486034
-0.0486035
-0.0484435
-0.0482563
-0.0482047
-0.0480283
-0.0478175
-0.0476124
-0.0473908
-0.0470247
-0.0469005
-0.0468317
-0.0467251
-0.0465917
-0.0464951
-0.0465547
-0.0465514
-0.0465614
-0.0467026
-0.0473214
-0.0498972
-0.0473414
-0.0471783
-0.0463688
-0.0460937
-0.0460214
-0.0460547
-0.0461556
-0.0463023
-0.0465145
-0.0467171
-0.0469298
-0.046916
-0.0470502
-0.0472236
-0.0473536
-0.0471596
-0.046988
-0.0471215
-0.0472444
-0.0472478
-0.0478978
-0.0478494
-0.0475931
-0.0468727
-0.0459758
-0.0424696
0
0
-0.00210744
-0.00939849
-0.0167807
-0.0239451
-0.0306887
-0.0368948
-0.042377
-0.0468598
-0.0498567
-0.0522182
-0.0512452
-0.0508283
-0.0505709
-0.0506743
-0.0506137
-0.0504177
-0.0500221
-0.0499484
-0.0497426
-0.0495145
-0.0493023
-0.0490703
-0.0482579
-0.048303
-0.0483194
-0.0482336
-0.0480974
-0.0479102
-0.0477613
-0.047677
-0.0475599
-0.047395
-0.0467221
-0.0429901
-0.0461526
-0.0461457
-0.0469781
-0.0472032
-0.0472843
-0.0473538
-0.0474214
-0.0474838
-0.047668
-0.0478837
-0.0480639
-0.0481232
-0.0482304
-0.0484061
-0.0486342
-0.0482334
-0.047471
-0.0485049
-0.0485733
-0.0486415
-0.0489789
-0.0490611
-0.0487238
-0.0471897
-0.0469987
-0.0434723
0
0
-0.00225713
-0.00997052
-0.0178023
-0.0254374
-0.0326692
-0.0394021
-0.0454032
-0.0496988
-0.0525566
-0.0540027
-0.053921
-0.0535537
-0.0532347
-0.0530239
-0.0527981
-0.0525343
-0.0524182
-0.0518816
-0.051507
-0.0512129
-0.0509999
-0.0508991
-0.0312095
-0.0498123
-0.0499024
-0.0497281
-0.0495268
-0.0464951
-0.0490311
-0.0488771
-0.0485681
-0.0484367
-0.0479507
-0.0470995
-0.0476046
-0.0478414
-0.0481793
-0.0483877
-0.04852
-0.0486151
-0.0486482
-0.048541
-0.0487789
-0.0490355
-0.0492134
-0.0493103
-0.0493861
-0.0494475
-0.0494914
-0.0499434
-0.023458
-0.0571353
-0.0499823
-0.0499731
-0.0501489
-0.050312
-0.0501094
-0.0184622
-0.0483124
-0.0445024
0
0
-0.00240974
-0.0105493
-0.0188397
-0.0269554
-0.0346573
-0.0417836
-0.0479542
-0.0522449
-0.0550654
-0.0563257
-0.0564714
-0.0561765
-0.0557871
-0.0554091
-0.0550277
-0.054626
-0.0541766
-0.0536484
-0.0532026
-0.0528418
-0.0525354
-0.0521702
-0.0514495
-0.0514351
-0.0513977
-0.0510794
-0.050763
-0.0504504
-0.0502923
-0.0501769
-0.0502056
-0.0498016
-0.0494654
-0.0491889
-0.0492282
-0.0493365
-0.0494947
-0.0496431
-0.049777
-0.049898
-0.0499154
-0.0493563
-0.0498831
-0.0502293
-0.0504119
-0.0505129
-0.0505832
-0.0506375
-0.0506935
-0.0507835
-0.0502001
-0.0510494
-0.0511433
-0.0511822
-0.0512531
-0.0512637
-0.0509356
-0.0496642
-0.049147
-0.0454065
0
0
-0.00256218
-0.0111282
-0.019886
-0.0284979
-0.0366797
-0.0442298
-0.0507443
-0.0544286
-0.057534
-0.0588629
-0.0591192
-0.0587965
-0.0583025
-0.05778
-0.0572708
-0.0567625
-0.0560558
-0.0553504
-0.0548254
-0.0544237
-0.0541125
-0.0538044
-0.05333
-0.0530848
-0.0530022
-0.0523299
-0.0519465
-0.0517132
-0.0515574
-0.0514286
-0.0513066
-0.0510905
-0.0508796
-0.0507286
-0.0506871
-0.0507188
-0.0507991
-0.0509048
-0.0510329
-0.0511994
-0.051329
-0.0338196
-0.0511229
-0.0514951
-0.0516366
-0.0517306
-0.0518079
-0.0518748
-0.0519336
-0.051973
-0.0519138
-0.0521589
-0.0522787
-0.0523396
-0.0523749
-0.0523363
-0.0520523
-0.0515022
-0.0503018
-0.0463516
0
0
-0.00270685
-0.0116925
-0.0209325
-0.0300731
-0.0387508
-0.0467765
-0.0539745
-0.0180847
-0.0602722
-0.0617056
-0.0619178
-0.0614369
-0.0607661
-0.0601017
-0.0594936
-0.0590384
-0.0579035
-0.0569043
-0.0563541
-0.0559414
-0.055701
-0.0553067
-0.0548574
-0.0545408
-0.0545833
-0.0533589
-0.0531687
-0.0530457
-0.052901
-0.0527354
-0.0525609
-0.0523736
-0.0522034
-0.0520792
-0.0520181
-0.0520155
-0.0520591
-0.0521352
-0.0522315
-0.0523245
-0.0523147
-0.0518801
-0.0522932
-0.0525991
-0.0527927
-0.052932
-0.0530431
-0.0531325
-0.0532017
-0.0532509
-0.0532883
-0.0533818
-0.0534601
-0.0535155
-0.0535514
-0.0535623
-0.0535547
-0.0529551
-0.0515036
-0.0473546
0
0
-0.00282775
-0.0122063
-0.0219798
-0.0317096
-0.0408396
-0.0491704
-0.0561892
-0.0604083
-0.0635238
-0.0648132
-0.0645322
-0.0638649
-0.0630841
-0.0623068
-0.0615309
-0.0616635
-0.059526
-0.0582389
-0.0578367
-0.0573874
-0.057408
-0.0568131
-0.0561872
-0.0555033
-0.0545153
-0.0552311
-0.0549841
-0.0546633
-0.0543618
-0.0540921
-0.0538509
-0.0536383
-0.053462
-0.053333
-0.0532606
-0.0532434
-0.0532727
-0.0533371
-0.0534211
-0.0534955
-0.0535052
-0.0534205
-0.0535586
-0.0537647
-0.05397
-0.0541527
-0.054303
-0.0544168
-0.0544951
-0.0545449
-0.0545819
-0.0546258
-0.0546722
-0.0547152
-0.0547452
-0.05475
-0.0546785
-0.0542052
-0.0526711
-0.048391
0
0
-0.00290182
-0.0125444
-0.0231981
-0.0333982
-0.0430109
-0.0517095
-0.0589671
-0.063988
-0.0668461
-0.0677553
-0.0673436
-0.066451
-0.0654713
-0.0646183
-0.0644487
-0.0647403
-0.0606023
-0.0600789
-0.0593661
-0.0587812
-0.0712216
-0.0582942
-0.0575171
-0.0568537
-0.0561246
-0.0561614
-0.0560699
-0.0558578
-0.0555944
-0.0553225
-0.0550674
-0.0548416
-0.0546524
-0.0545088
-0.0544284
-0.0544097
-0.054442
-0.0545158
-0.0546195
-0.0547258
-0.0547722
-0.054716
-0.0547588
-0.0549316
-0.055172
-0.0554108
-0.0556075
-0.055746
-0.0558261
-0.0558604
-0.0558703
-0.0558785
-0.0559003
-0.0559342
-0.0559503
-0.0559292
-0.0558525
-0.0554186
-0.0538297
-0.0494464
0
0
-0.00295348
-0.0120808
-0.0244801
-0.035392
-0.0454745
-0.0545251
-0.0620517
-0.0673491