# vtk DataFile Version 2.0
FlowField
ASCII
DATASET STRUCTURED_GRID
DIMENSIONS 62 47 32 
POINTS 93248 double
0 0 0
0.01 0 0
0.02 0 0
0.03 0 0
0.04 0 0
0.05 0 0
0.06 0 0
0.07 0 0
0.08 0 0
0.09 0 0
0.1 0 0
0.11 0 0
0.12 0 0
0.13 0 0
0.14 0 0
0.15 0 0
0.16 0 0
0.17 0 0
0.18 0 0
0.19 0 0
0.2 0 0
0.21 0 0
0.22 0 0
0.23 0 0
0.24 0 0
0.25 0 0
0.26 0 0
0.27 0 0
0.28 0 0
0.29 0 0
0.3 0 0
0.31 0 0
0.32 0 0
0.33 0 0
0.34 0 0
0.35 0 0
0.36 0 0
0.37 0 0
0.38 0 0
0.39 0 0
0.4 0 0
0.41 0 0
0.42 0 0
0.43 0 0
0.44 0 0
0.45 0 0
0.46 0 0
0.47 0 0
0.48 0 0
0.49 0 0
0.5 0 0
0.51 0 0
0.52 0 0
0.53 0 0
0.54 0 0
0.55 0 0
0.56 0 0
0.57 0 0
0.58 0 0
0.59 0 0
0.6 0 0
0.61 0 0
0 0.01 0
0.01 0.01 0
0.02 0.01 0
0.03 0.01 0
0.04 0.01 0
0.05 0.01 0
0.06 0.01 0
0.07 0.01 0
0.08 0.01 0
0.09 0.01 0
0.1 0.01 0
0.11 0.01 0
0.12 0.01 0
0.13 0.01 0
0.14 0.01 0
0.15 0.01 0
0.16 0.01 0
0.17 0.01 0
0.18 0.01 0
0.19 0.01 0
0.2 0.01 0
0.21 0.01 0
0.22 0.01 0
0.23 0.01 0
0.24 0.01 0
0.25 0.01 0
0.26 0.01 0
0.27 0.01 0
0.28 0.01 0
0.29 0.01 0
0.3 0.01 0
0.31 0.01 0
0.32 0.01 0
0.33 0.01 0
0.34 0.01 0
0.35 0.01 0
0.36 0.01 0
0.37 0.01 0
0.38 0.01 0
0.39 0.01 0
0.4 0.01 0
0.41 0.01 0
0.42 0.01 0
0.43 0.01 0
0.44 0.01 0
0.45 0.01 0
0.46 0.01 0
0.47 0.01 0
0.48 0.01 0
0.49 0.01 0
0.5 0.01 0
0.51 0.01 0
0.52 0.01 0
0.53 0.01 0
0.54 0.01 0
0.55 0.01 0
0.56 0.01 0
0.57 0.01 0
0.58 0.01 0
0.59 0.01 0
0.6 0.01 0
0.61 0.01 0
0 0.02 0
0.01 0.02 0
0.02 0.02 0
0.03 0.02 0
0.04 0.02 0
0.05 0.02 0
0.06 0.02 0
0.07 0.02 0
0.08 0.02 0
0.09 0.02 0
0.1 0.02 0
0.11 0.02 0
0.12 0.02 0
0.13 0.02 0
0.14 0.02 0
0.15 0.02 0
0.16 0.02 0
0.17 0.02 0
0.18 0.02 0
0.19 0.02 0
0.2 0.02 0
0.21 0.02 0
0.22 0.02 0
0.23 0.02 0
0.24 0.02 0
0.25 0.02 0
0.26 0.02 0
0.27 0.02 0
0.28 0.02 0
0.29 0.02 0
0.3 0.02 0
0.31 0.02 0
0.32 0.02 0
0.33 0.02 0
0.34 0.02 0
0.35 0.02 0
0.36 0.02 0
0.37 0.02 0
0.38 0.02 0
0.39 0.02 0
0.4 0.02 0
0.41 0.02 0
0.42 0.02 0
0.43 0.02 0
0.44 0.02 0
0.45 0.02 0
0.46 0.02 0
0.47 0.02 0
0.48 0.02 0
0.49 0.02 0
0.5 0.02 0
0.51 0.02 0
0.52 0.02 0
0.53 0.02 0
0.54 0.02 0
0.55 0.02 0
0.56 0.02 0
0.57 0.02 0
0.58 0.02 0
0.59 0.02 0
0.6 0.02 0
0.61 0.02 0
0 0.03 0
0.01 0.03 0
0.02 0.03 0
0.03 0.03 0
0.04 0.03 0
0.05 0.03 0
0.06 0.03 0
0.07 0.03 0
0.08 0.03 0
0.09 0.03 0
0.1 0.03 0
0.11 0.03 0
0.12 0.03 0
0.13 0.03 0
0.14 0.03 0
0.15 0.03 0
0.16 0.03 0
0.17 0.03 0
0.18 0.03 0
0.19 0.03 0
0.2 0.03 0
0.21 0.03 0
0.22 0.03 0
0.23 0.03 0
0.24 0.03 0
0.25 0.03 0
0.26 0.03 0
0.27 0.03 0
0.28 0.03 0
0.29 0.03 0
0.3 0.03 0
0.31 0.03 0
0.32 0.03 0
0.33 0.03 0
0.34 0.03 0
0.35 0.03 0
0.36 0.03 0
0.37 0.03 0
0.38 0.03 0
0.39 0.03 0
0.4 0.03 0
0.41 0.03 0
0.42 0.03 0
0.43 0.03 0
0.44 0.03 0
0.45 0.03 0
0.46 0.03 0
0.47 0.03 0
0.48 0.03 0
0.49 0.03 0
0.5 0.03 0
0.51 0.03 0
0.52 0.03 0
0.53 0.03 0
0.54 0.03 0
0.55 0.03 0
0.56 0.03 0
0.57 0.03 0
0.58 0.03 0
0.59 0.03 0
0.6 0.03 0
0.61 0.03 0
0 0.04 0
0.01 0.04 0
0.02 0.04 0
0.03 0.04 0
0.04 0.04 0
0.05 0.04 0
0.06 0.04 0
0.07 0.04 0
0.08 0.04 0
0.09 0.04 0
0.1 0.04 0
0.11 0.04 0
0.12 0.04 0
0.13 0.04 0
0.14 0.04 0
0.15 0.04 0
0.16 0.04 0
0.17 0.04 0
0.18 0.04 0
0.19 0.04 0
0.2 0.04 0
0.21 0.04 0
0.22 0.04 0
0.23 0.04 0
0.24 0.04 0
0.25 0.04 0
0.26 0.04 0
0.27 0.04 0
0.28 0.04 0
0.29 0.04 0
0.3 0.04 0
0.31 0.04 0
0.32 0.04 0
0.33 0.04 0
0.34 0.04 0
0.35 0.04 0
0.36 0.04 0
0.37 0.04 0
0.38 0.04 0
0.39 0.04 0
0.4 0.04 0
0.41 0.04 0
0.42 0.04 0
0.43 0.04 0
0.44 0.04 0
0.45 0.04 0
0.46 0.04 0
0.47 0.04 0
0.48 0.04 0
0.49 0.04 0
0.5 0.04 0
0.51 0.04 0
0.52 0.04 0
0.53 0.04 0
0.54 0.04 0
0.55 0.04 0
0.56 0.04 0
0.57 0.04 0
0.58 0.04 0
0.59 0.04 0
0.6 0.04 0
0.61 0.04 0
0 0.05 0
0.01 0.05 0
0.02 0.05 0
0.03 0.05 0
0.04 0.05 0
0.05 0.05 0
0.06 0.05 0
0.07 0.05 0
0.08 0.05 0
0.09 0.05 0
0.1 0.05 0
0.11 0.05 0
0.12 0.05 0
0.13 0.05 0
0.14 0.05 0
0.15 0.05 0
0.16 0.05 0
0.17 0.05 0
0.18 0.05 0
0.19 0.05 0
0.2 0.05 0
0.21 0.05 0
0.22 0.05 0
0.23 0.05 0
0.24 0.05 0
0.25 0.05 0
0.26 0.05 0
0.27 0.05 0
0.28 0.05 0
0.29 0.05 0
0.3 0.05 0
0.31 0.05 0
0.32 0.05 0
0.33 0.05 0
0.34 0.05 0
0.35 0.05 0
0.36 0.05 0
0.37 0.05 0
0.38 0.05 0
0.39 0.05 0
0.4 0.05 0
0.41 0.05 0
0.42 0.05 0
0.43 0.05 0
0.44 0.05 0
0.45 0.05 0
0.46 0.05 0
0.47 0.05 0
0.48 0.05 0
0.49 0.05 0
0.5 0.05 0
0.51 0.05 0
0.52 0.05 0
0.53 0.05 0
0.54 0.05 0
0.55 0.05 0
0.56 0.05 0
0.57 0.05 0
0.58 0.05 0
0.59 0.05 0
0.6 0.05 0
0.61 0.05 0
0 0.06 0
0.01 0.06 0
0.02 0.06 0
0.03 0.06 0
0.04 0.06 0
0.05 0.06 0
0.06 0.06 0
0.07 0.06 0
0.08 0.06 0
0.09 0.06 0
0.1 0.06 0
0.11 0.06 0
0.12 0.06 0
0.13 0.06 0
0.14 0.06 0
0.15 0.06 0
0.16 0.06 0
0.17 0.06 0
0.18 0.06 0
0.19 0.06 0
0.2 0.06 0
0.21 0.06 0
0.22 0.06 0
0.23 0.06 0
0.24 0.06 0
0.25 0.06 0
0.26 0.06 0
0.27 0.06 0
0.28 0.06 0
0.29 0.06 0
0.3 0.06 0
0.31 0.06 0
0.32 0.06 0
0.33 0.06 0
0.34 0.06 0
0.35 0.06 0
0.36 0.06 0
0.37 0.06 0
0.38 0.06 0
0.39 0.06 0
0.4 0.06 0
0.41 0.06 0
0.42 0.06 0
0.43 0.06 0
0.44 0.06 0
0.45 0.06 0
0.46 0.06 0
0.47 0.06 0
0.48 0.06 0
0.49 0.06 0
0.5 0.06 0
0.51 0.06 0
0.52 0.06 0
0.53 0.06 0
0.54 0.06 0
0.55 0.06 0
0.56 0.06 0
0.57 0.06 0
0.58 0.06 0
0.59 0.06 0
0.6 0.06 0
0.61 0.06 0
0 0.07 0
0.01 0.07 0
0.02 0.07 0
0.03 0.07 0
0.04 0.07 0
0.05 0.07 0
0.06 0.07 0
0.07 0.07 0
0.08 0.07 0
0.09 0.07 0
0.1 0.07 0
0.11 0.07 0
0.12 0.07 0
0.13 0.07 0
0.14 0.07 0
0.15 0.07 0
0.16 0.07 0
0.17 0.07 0
0.18 0.07 0
0.19 0.07 0
0.2 0.07 0
0.21 0.07 0
0.22 0.07 0
0.23 0.07 0
0.24 0.07 0
0.25 0.07 0
0.26 0.07 0
0.27 0.07 0
0.28 0.07 0
0.29 0.07 0
0.3 0.07 0
0.31 0.07 0
0.32 0.07 0
0.33 0.07 0
0.34 0.07 0
0.35 0.07 0
0.36 0.07 0
0.37 0.07 0
0.38 0.07 0
0.39 0.07 0
0.4 0.07 0
0.41 0.07 0
0.42 0.07 0
0.43 0.07 0
0.44 0.07 0
0.45 0.07 0
0.46 0.07 0
0.47 0.07 0
0.48 0.07 0
0.49 0.07 0
0.5 0.07 0
0.51 0.07 0
0.52 0.07 0
0.53 0.07 0
0.54 0.07 0
0.55 0.07 0
0.56 0.07 0
0.57 0.07 0
0.58 0.07 0
0.59 0.07 0
0.6 0.07 0
0.61 0.07 0
0 0.08 0
0.01 0.08 0
0.02 0.08 0
0.03 0.08 0
0.04 0.08 0
0.05 0.08 0
0.06 0.08 0
0.07 0.08 0
0.08 0.08 0
0.09 0.08 0
0.1 0.08 0
0.11 0.08 0
0.12 0.08 0
0.13 0.08 0
0.14 0.08 0
0.15 0.08 0
0.16 0.08 0
0.17 0.08 0
0.18 0.08 0
0.19 0.08 0
0.2 0.08 0
0.21 0.08 0
0.22 0.08 0
0.23 0.08 0
0.24 0.08 0
0.25 0.08 0
0.26 0.08 0
0.27 0.08 0
0.28 0.08 0
0.29 0.08 0
0.3 0.08 0
0.31 0.08 0
0.32 0.08 0
0.33 0.08 0
0.34 0.08 0
0.35 0.08 0
0.36 0.08 0
0.37 0.08 0
0.38 0.08 0
0.39 0.08 0
0.4 0.08 0
0.41 0.08 0
0.42 0.08 0
0.43 0.08 0
0.44 0.08 0
0.45 0.08 0
0.46 0.08 0
0.47 0.08 0
0.48 0.08 0
0.49 0.08 0
0.5 0.08 0
0.51 0.08 0
0.52 0.08 0
0.53 0.08 0
0.54 0.08 0
0.55 0.08 0
0.56 0.08 0
0.57 0.08 0
0.58 0.08 0
0.59 0.08 0
0.6 0.08 0
0.61 0.08 0
0 0.09 0
0.01 0.09 0
0.02 0.09 0
0.03 0.09 0
0.04 0.09 0
0.05 0.09 0
0.06 0.09 0
0.07 0.09 0
0.08 0.09 0
0.09 0.09 0
0.1 0.09 0
0.11 0.09 0
0.12 0.09 0
0.13 0.09 0
0.14 0.09 0
0.15 0.09 0
0.16 0.09 0
0.17 0.09 0
0.18 0.09 0
0.19 0.09 0
0.2 0.09 0
0.21 0.09 0
0.22 0.09 0
0.23 0.09 0
0.24 0.09 0
0.25 0.09 0
0.26 0.09 0
0.27 0.09 0
0.28 0.09 0
0.29 0.09 0
0.3 0.09 0
0.31 0.09 0
0.32 0.09 0
0.33 0.09 0
0.34 0.09 0
0.35 0.09 0
0.36 0.09 0
0.37 0.09 0
0.38 0.09 0
0.39 0.09 0
0.4 0.09 0
0.41 0.09 0
0.42 0.09 0
0.43 0.09 0
0.44 0.09 0
0.45 0.09 0
0.46 0.09 0
0.47 0.09 0
0.48 0.09 0
0.49 0.09 0
0.5 0.09 0
0.51 0.09 0
0.52 0.09 0
0.53 0.09 0
0.54 0.09 0
0.55 0.09 0
0.56 0.09 0
0.57 0.09 0
0.58 0.09 0
0.59 0.09 0
0.6 0.09 0
0.61 0.09 0
0 0.1 0
0.01 0.1 0
0.02 0.1 0
0.03 0.1 0
0.04 0.1 0
0.05 0.1 0
0.06 0.1 0
0.07 0.1 0
0.08 0.1 0
0.09 0.1 0
0.1 0.1 0
0.11 0.1 0
0.12 0.1 0
0.13 0.1 0
0.14 0.1 0
0.15 0.1 0
0.16 0.1 0
0.17 0.1 0
0.18 0.1 0
0.19 0.1 0
0.2 0.1 0
0.21 0.1 0
0.22 0.1 0
0.23 0.1 0
0.24 0.1 0
0.25 0.1 0
0.26 0.1 0
0.27 0.1 0
0.28 0.1 0
0.29 0.1 0
0.3 0.1 0
0.31 0.1 0
0.32 0.1 0
0.33 0.1 0
0.34 0.1 0
0.35 0.1 0
0.36 0.1 0
0.37 0.1 0
0.38 0.1 0
0.39 0.1 0
0.4 0.1 0
0.41 0.1 0
0.42 0.1 0
0.43 0.1 0
0.44 0.1 0
0.45 0.1 0
0.46 0.1 0
0.47 0.1 0
0.48 0.1 0
0.49 0.1 0
0.5 0.1 0
0.51 0.1 0
0.52 0.1 0
0.53 0.1 0
0.54 0.1 0
0.55 0.1 0
0.56 0.1 0
0.57 0.1 0
0.58 0.1 0
0.59 0.1 0
0.6 0.1 0
0.61 0.1 0
0 0.11 0
0.01 0.11 0
0.02 0.11 0
0.03 0.11 0
0.04 0.11 0
0.05 0.11 0
0.06 0.11 0
0.07 0.11 0
0.08 0.11 0
0.09 0.11 0
0.1 0.11 0
0.11 0.11 0
0.12 0.11 0
0.13 0.11 0
0.14 0.11 0
0.15 0.11 0
0.16 0.11 0
0.17 0.11 0
0.18 0.11 0
0.19 0.11 0
0.2 0.11 0
0.21 0.11 0
0.22 0.11 0
0.23 0.11 0
0.24 0.11 0
0.25 0.11 0
0.26 0.11 0
0.27 0.11 0
0.28 0.11 0
0.29 0.11 0
0.3 0.11 0
0.31 0.11 0
0.32 0.11 0
0.33 0.11 0
0.34 0.11 0
0.35 0.11 0
0.36 0.11 0
0.37 0.11 0
0.38 0.11 0
0.39 0.11 0
0.4 0.11 0
0.41 0.11 0
0.42 0.11 0
0.43 0.11 0
0.44 0.11 0
0.45 0.11 0
0.46 0.11 0
0.47 0.11 0
0.48 0.11 0
0.49 0.11 0
0.5 0.11 0
0.51 0.11 0
0.52 0.11 0
0.53 0.11 0
0.54 0.11 0
0.55 0.11 0
0.56 0.11 0
0.57 0.11 0
0.58 0.11 0
0.59 0.11 0
0.6 0.11 0
0.61 0.11 0
0 0.12 0
0.01 0.12 0
0.02 0.12 0
0.03 0.12 0
0.04 0.12 0
0.05 0.12 0
0.06 0.12 0
0.07 0.12 0
0.08 0.12 0
0.09 0.12 0
0.1 0.12 0
0.11 0.12 0
0.12 0.12 0
0.13 0.12 0
0.14 0.12 0
0.15 0.12 0
0.16 0.12 0
0.17 0.12 0
0.18 0.12 0
0.19 0.12 0
0.2 0.12 0
0.21 0.12 0
0.22 0.12 0
0.23 0.12 0
0.24 0.12 0
0.25 0.12 0
0.26 0.12 0
0.27 0.12 0
0.28 0.12 0
0.29 0.12 0
0.3 0.12 0
0.31 0.12 0
0.32 0.12 0
0.33 0.12 0
0.34 0.12 0
0.35 0.12 0
0.36 0.12 0
0.37 0.12 0
0.38 0.12 0
0.39 0.12 0
0.4 0.12 0
0.41 0.12 0
0.42 0.12 0
0.43 0.12 0
0.44 0.12 0
0.45 0.12 0
0.46 0.12 0
0.47 0.12 0
0.48 0.12 0
0.49 0.12 0
0.5 0.12 0
0.51 0.12 0
0.52 0.12 0
0.53 0.12 0
0.54 0.12 0
0.55 0.12 0
0.56 0.12 0
0.57 0.12 0
0.58 0.12 0
0.59 0.12 0
0.6 0.12 0
0.61 0.12 0
0 0.13 0
0.01 0.13 0
0.02 0.13 0
0.03 0.13 0
0.04 0.13 0
0.05 0.13 0
0.06 0.13 0
0.07 0.13 0
0.08 0.13 0
0.09 0.13 0
0.1 0.13 0
0.11 0.13 0
0.12 0.13 0
0.13 0.13 0
0.14 0.13 0
0.15 0.13 0
0.16 0.13 0
0.17 0.13 0
0.18 0.13 0
0.19 0.13 0
0.2 0.13 0
0.21 0.13 0
0.22 0.13 0
0.23 0.13 0
0.24 0.13 0
0.25 0.13 0
0.26 0.13 0
0.27 0.13 0
0.28 0.13 0
0.29 0.13 0
0.3 0.13 0
0.31 0.13 0
0.32 0.13 0
0.33 0.13 0
0.34 0.13 0
0.35 0.13 0
0.36 0.13 0
0.37 0.13 0
0.38 0.13 0
0.39 0.13 0
0.4 0.13 0
0.41 0.13 0
0.42 0.13 0
0.43 0.13 0
0.44 0.13 0
0.45 0.13 0
0.46 0.13 0
0.47 0.13 0
0.48 0.13 0
[...]
POINT_DATA 93248

SCALARS u double
LOOKUP_TABLE default
0
0
0
0
0
0
0
0
0
0
0
0
0
0
0
0
0
0
0
0
0
0
0
0
0.301138
0
0
0
0
0
0
0
0.037521
0.227491
0
0
0
0
0
0
0
0
0
0
0
0
0
0.0806206
0
0
0.0732383
0
0
0
0
0
0
0
0
0
0
0
0
0.414951
0.334164
0.257182
0.194276
0.147588
0.114019
0.0908959
0.0761355
0.0670781
0.0617316
0.0589278
0.0589079
0.0584855
0.0577755
0.0568089
0.0558753
0.0544944
0.0526637
0.0494516
0.0520233
0.0515802
0.0485822
0.0467601
0.0451234
0.0435553
0.0420249
0.0405008
0.038951
0.0373385
0.0356222
0.0338937
0.0330429
0.0313214
0.0289583
0.0268643
0.0260056
0.0235091
0.0212771
0.160668
0.0140925
0.015946
0.0165128
0.0174934
0.0204582
0.000536106
0.00752221
0.00697708
0.00617036
0.00416384
0.00208539
0.0263936
0.000168745
0.00318658
-0.0158707
-0.0141754
0.00351179
-0.0144739
-0.0184031
-0.0252163
-0.0252163
0
0
0.488855
0.47026
0.442346
0.406502
0.371398
0.333526
0.29912
0.270226
0.24849
0.232757
0.221451
0.21578
0.209778
0.204575
0.19961
0.195224
0.190501
0.187395
0.33676
0.182361
0.176105
0.165702
0.161251
0.15631
0.151338
0.146395
0.141461
0.136507
0.131494
0.126349
0.120928
0.117201
0.112052
0.106401
0.101382
0.094474
0.0870655
-0.0257431
0.076939
0.0732998
0.0690915
0.0658643
0.0630879
0.0591483
0.0480824
0.04111
0.0376646
0.0332676
0.0286086
0.0242886
0.0188334
0.0144174
0.00896974
-0.00386062
-0.00950309
-0.0165064
-0.0207608
-0.0285377
-0.0372365
-0.0372365
0
0
0.483018
0.480629
0.477447
0.464663
0.460139
0.437231
0.415346
0.394677
0.375331
0.381908
0.344383
0.329224
0.318341
0.309048
0.301079
0.29392
0.285457
0.278374
0.27036
0.262048
0.255911
0.248073
0.241017
0.233928
0.226767
0.219566
0.212344
0.205111
0.197887
0.190771
0.183981
0.175488
0.169302
0.212626
0.155524
0.146932
0.139925
0.135555
0.12773
0.119226
0.111167
0.132779
0.0971062
0.0897358
0.125485
0.0707408
0.0620753
0.0332676
0.0475817
0.0411561
0.0340157
0.0263936
0.0176796
0.00707749
-0.0016798
-0.0102545
-0.0207352
-0.0292127
-0.0378207
-0.0378207
0
0
0.475913
0.469061
0.473825
0.470325
0.468421
0.461319
0.451833
0.440805
0.428516
0.414953
0.401354
0.387094
0.37422
0.36272
0.352188
0.342028
0.334247
0.325349
0.334484
0.306549
0.297873
0.289385
0.281135
0.27292
0.264668
0.256371
0.248042
0.239696
0.231347
0.223013
0.214633
0.205682
0.19756
0.188909
0.181092
0.173171
0.165857
0.159827
0.151274
0.141745
0.131919
0.122154
0.11331
0.104237
0.0942496
0.0842551
0.0755034
0.0674118
0.0589
0.0505213
0.0419431
0.032967
0.0233667
0.0132386
0.00342099
-0.00639499
-0.0167949
-0.0263622
-0.0357161
-0.0357161
0
0
0.473186
0.463198
0.459872
0.457676
0.456565
0.454159
0.45035
0.445127
0.437921
0.42864
0.417761
0.405759
0.393721
0.382203
0.37114
0.361266
0.352021
0.342698
0.332813
0.323308
0.314208
0.305337
0.296612
0.287936
0.279259
0.270553
0.261824
0.253073
0.244292
0.235445
0.226426
0.217149
0.209024
0.200239
0.191729
0.183475
0.175552
0.167816
0.159079
0.149565
0.139618
0.129556
0.119853
0.110273
0.100931
0.0948518
0.081214
0.0725187
0.0635191
0.0544481
0.0452772
0.035892
0.0261738
0.0162403
0.00633348
-0.00350031
-0.0132301
-0.0224906
-0.0323418
-0.0323418
0
0
0.471982
0.459027
0.450971
0.445854
0.442692
0.440039
0.437499
0.434826
0.430396
0.424084
0.415968
0.406439
0.396153
0.385736
0.375534
0.366289
0.356348
0.347466
0.33743
0.327982
0.318898
0.310004
0.301197
0.29242
0.283649
0.274844
0.266028
0.257196
0.248328
0.239373
0.230196
0.220452
0.213242
0.204087
0.195183
0.18658
0.178156
0.169663
0.160729
0.151338
0.141617
0.131718
0.121793
0.111676
0.101257
0.0936195
0.0841084
0.0746456
0.0652587
0.0559287
0.0466184
0.0372271
0.0275882
0.0178417
0.00815894
-0.00131462
-0.0101861
-0.0169948
-0.0202261
-0.0202261
0
0
0.471349
0.456546
0.445649
0.437804
0.432419
0.455701
0.426323
0.422889
0.419447
0.414921
0.408839
0.401403
0.392749
0.383366
0.373732
0.365293
0.355238
0.34583
0.33676
0.327945
0.319314
0.310684
0.302012
0.293298
0.284569
0.275782
0.267008
0.258233
0.249439
0.240629
0.231959
0.223841
0.212878
0.204132
0.195583
0.18705
0.178451
0.169691
0.160668
0.151373
0.141862
0.133403
0.122391
0.112486
0.102715
0.0940238
0.0847848
0.0753442
0.0658923
0.0565067
0.0472294
0.0379988
0.0284325
0.0188553
0.00942188
6.82576e-05
-0.00961949
-0.0197902
-0.01344
-0.01344
0
0
0.47097
0.45503
0.442388
0.432564
0.425113
0.419489
0.415857
0.412882
0.410017
0.406389
0.401452
0.395831
0.388289
0.379515
0.368969
0.195224
0.348549
0.341802
0.334484
0.326649
0.318632
0.310301
0.301771
0.293121
0.279259
0.275694
0.267068
0.258418
0.249745
0.241007
0.232263
0.223508
0.213768
0.204628
0.195816
0.187095
0.178328
0.169432
0.160367
0.151128
0.141734
0.132207
0.122614
0.11299
0.103483
0.0942916
0.0850023
0.0755899
0.0661227
0.0566798
0.0473948
0.0384387
0.0288368
0.0194706
0.0104406
0.00173429
-0.00671604
-0.0167273
-0.0209665
-0.0209665
0
0
0.470726
0.454056
0.4403
0.429177
0.420402
0.413735
0.409131
0.405849
0.403017
0.399632
0.394722
0.392355
0.384556
0.376645
0.368473
0.36179
0.352911
0.343825
0.335147
0.326559
0.318423
0.309913
0.301333
0.292711
0.284226
0.275567
0.266954
0.258409
0.249907
0.241279
0.232332
0.223293
0.214049
0.204954
0.196008
0.187128
0.178224
0.169242
0.160156
0.150958
0.141654
0.132257
0.122805
0.113336
0.103913
0.0945694
0.0852024
0.0757585
0.0662171
0.0565683
0.0468677
0.0382873
0.0285772
0.0196371
0.0110065
0.00250597
-0.00603287
-0.0151074
-0.0233533
-0.0233533
0
0
0.470563
0.453408
0.438905
0.42695
0.417318
0.409937
0.404688
0.401015
0.398036
0.394814
0.390747
0.386568
0.380571
0.373824
0.366612
0.359773
0.351844
0.343394
0.334893
0.326573
0.317716
0.3092
0.300665
0.292028
0.283866
0.275185
0.266654
0.25828
0.250123
0.252423
0.232514
0.22322
0.214132
0.205116
0.196133
0.187242
0.178169
0.169141
0.160055
0.150897
0.141662
0.13236
0.123001
0.113613
0.104228
0.0948518
0.0854547
0.0759919
0.0663981
0.0565472
0.0461173
-0.0064894
0.027577
0.0197385
0.0114755
0.00304107
-0.00554173
-0.0144323
-0.0236326
-0.0236326
0
0
0.470455
0.452977
0.437951
0.425484
0.415246
0.407328
0.401607
0.397584
0.394401
0.391168
0.387311
0.382774
0.377318
0.371298
0.364209
0.357166
0.349712
0.341845
0.333731
0.321604
0.316962
0.308541
0.300061
0.291524
0.28309
0.274561
0.266134
0.2579
0.24988
0.242005
0.231713
0.22301
0.214222
0.205286
0.196274
0.187239
0.178297
0.169125
0.160053
0.150929
0.141746
0.132524
0.12322
0.113875
0.104515
0.0951506
0.0857761
0.0763704
0.0669191
0.0575295
0.0484361
0.0400797
0.0303447
0.0211785
0.0123681
0.0036901
-0.00501601
-0.0139424
-0.0233546
-0.0233546
0
0
0.470388
0.452725
0.437509
0.424411
0.413741
0.405433
0.399367
0.395052
0.391654
0.388319
0.384443
0.379847
0.374596
0.369166
0.361648
0.354888
0.347778
0.340282
0.332559
0.324651
0.316404
0.308007
0.299506
0.290933
0.282341
0.273762
0.265357
0.257242
0.249283
0.24009
0.233204
0.224184
0.214919
0.205671
0.196476
0.187338
0.178254
0.169197
0.160142
0.151038
0.141876
0.132779
0.123486
0.11415
0.104805
0.0954675
0.0861474
0.076836
0.0675027
0.058394
0.0496
0.0410069
0.0316555
0.0223389
0.013275
0.00440006
-0.00444257
-0.0134495
-0.0229482
-0.0229482
0
0
0.470338
0.452525
0.437039
0.423683
0.412704
0.404093
0.397743
0.393176
0.38956
0.386091
0.382106
0.37741
0.371949
0.36547
0.360356
0.353678
0.346497
0.338992
0.331525
0.323786
0.315705
0.307378
0.298873
0.290228
0.281473
0.272687
0.264149
0.25626
0.250152
0.241764
0.233465
0.22447
0.215187
0.20585
0.196554
0.187346
0.178231
0.169243
0.160274
0.151201
0.141909
0.133286
0.123819
0.114446
0.105098
0.0957819
0.0865213
0.0773116
0.0679468
0.0589425
0.0501283
0.0413084
0.0321914
0.0230342
0.0139917
0.00507778
-0.00387192
-0.0129327
-0.0224951
-0.0224951
0
0
0.470303
0.452385
0.436775
0.423044
0.411933
0.403117
0.39655
0.391782
0.388014
0.384326
0.380229
0.375479
0.370077
0.364109
0.358348
0.351944
0.344963
0.337485
0.330567
0.323003
0.31498
0.306683
0.29817
0.289443
0.280456
0.271167
0.261778
0.252835
0.254059
0.244781
0.234847
0.225083
0.215454
0.205922
0.1965
0.187247
0.178056
0.169256
0.160509
0.15157
0.142446
0.133403
0.124093
0.114734
0.105376
0.0960543
0.086816
0.077736
0.0682085
0.0593445
0.050506
0.0416042
0.0324861
0.0234795
0.0145503
0.00577928
-0.0033916
-0.0123787
-0.0219768
-0.0219768
0
0
0.47028
0.45225
0.436444
0.422767
0.411423
0.402416
0.395667
0.390722
0.386776
0.382969
0.378764
0.373973
0.368635
0.36288
0.356914
0.350547
0.343671
0.335961
0.329958
0.322217
0.314154
0.305894
0.297432
0.288684
0.279479
0.269323
0.256579
0.236237
0.272542
0.250345
0.236835
0.225834
0.215672
0.205861
0.196246
0.186835
0.17773
0.169202
0.160972
0.152213
0.143076
0.133807
0.124439
0.115041
0.105635
0.096252
0.0868715
0.0774758
0.0688732
0.0598943
0.0509583
0.0421394
0.0325887
0.0238159
0.0149416
0.00621001
-0.00266674
-0.0116624
-0.0212824
-0.0212824
0
0
0.470294
0.452147
0.43624
0.422534
0.411082
0.401925
0.395024
0.389926
0.385832
0.381908
0.377604
0.372765
0.367454
0.361783
0.355822
0.349565
0.34311
0.336902
0.328135
0.320606
0.31294
0.304998
0.296747
0.288161
0.27914
0.269493
0.259092
0.249712
0.25473
0.246132
0.235704
0.225373
0.215316
0.205456
0.195682
0.186033
0.17678
0.16866
0.162093
0.153481
0.144059
0.134477
0.124912
0.115399
0.105904
0.0964753
0.0870823
0.0777623
0.0688383
0.0601629
0.0512586
0.0422703
0.0331392
0.0242922
0.0151367
0.00662036
-0.00195561
-0.0106865
-0.0201518
-0.0201518
0
0
0.470384
0.452045
0.436135
0.422423
0.410935
0.401612
0.394576
0.389348
0.385135
0.381112
0.376685
0.371772
0.366467
0.360854
0.354933
0.348712
0.342245
0.335563
0.327831
0.320161
0.312432
0.304524
0.296384
0.287982
0.279304
0.270397
0.261545
0.253997
0.249724
0.24249
0.233629
0.224152
0.214488
0.204755
0.194812
0.184653
0.174385
0.165444
0.165985
0.156286
0.145689
0.135417
0.125485
0.115791
0.106172
0.0967121
0.0872994
0.0779108
0.0687032
0.0604746
0.0515125
0.0424553
0.033587
0.0253532
0.0145003
0.0067947
-0.00127658
-0.0092651
-0.0178852
-0.0178852
0
0
0.470092
0.452225
0.436251
0.42253
0.411081
0.399367
0.394251
0.388933
0.38465
0.380592
0.37596
0.370937
0.365637
0.36011
0.35421
0.347959
0.341412
0.334599
0.327322
0.319821
0.312147
0.304294
0.296248
0.288013
0.279631
0.271235
0.269726
0.255113
0.24854
0.240822
0.232181
0.223038
0.213612
0.203992
0.193881
0.182986
0.169671
0.147571
0.184458
0.161704
0.147677
0.136323
0.125957
0.116039
0.106462
0.0969679
0.0875585
0.0781252
0.0685016
0.0608979
0.0515434
0.0424186
0.03353
0.0247278
0.0151731
-0.00554173
-0.000842726
-0.00754663
-0.0125032
0
0
0
0.470181
0.451557
0.436082
0.422506
0.411171
0.401294
0.393953
0.38858
0.384315
0.380406
0.375319
0.370183
0.364934
0.359554
0.353602
0.347251
0.340617
0.333877
0.326819
0.319481
0.311916
0.304152
0.296205
0.2881
0.279892
0.271672
0.263456
0.25494
0.248424
0.239999
0.231212
0.222169
0.212855
0.196412
0.193443
0.183223
0.172257
0.162152
0.167085
0.150958
0.146753
0.136175
0.125997
0.116147
0.106565
0.097146
0.0879047
0.0789338
0.0703289
0.0594492
0.0507311
0.0420499
0.0333322
0.0246037
0.0158621
0.00760343
-0.000708885
-0.00885622
-0.0177049
-0.0177049
0
0
0.470213
0.452055
0.435856
0.422517
0.411409
0.400844
0.393641
0.388311
0.384073
0.380516
0.374533
0.369565
0.364341
0.359049
0.352868
0.346424
0.339727
0.333299
0.326415
0.319188
0.311722
0.304052
0.296194
0.288174
0.280047
0.271988
0.264547
0.257065
0.247132
0.238734
0.230232
0.221518
0.212626
0.203637
0.194204
0.184606
0.175203
0.167129
0.16224
0.154512
0.145168
0.135412
0.125639
0.116006
0.106524
0.0971834
0.0879876
0.0789329
0.0698453
0.0599647
0.0508035
0.0419559
0.0332156
0.0245346
0.0158835
0.00736323
-0.00129019
-0.0102092
-0.0198932
-0.0198932
0
0
0.470233
0.452132
0.436328
0.421852
0.409444
0.401186
0.393992
0.388407
0.383631
0.378424
0.375259
0.369986
0.363898
0.335104
0.351582
0.34556
0.338932
0.333096
0.326177
0.318981
0.311588
0.304007
0.296216
0.288228
0.280011
0.271255
0.265619
0.25684
0.247574
0.238719
0.229992
0.221267
0.212573
0.203898
0.194907
0.185812
0.176933
0.168683
0.161041
0.152812
0.143908
0.134633
0.12512
0.115718
0.106376
0.09711
0.087923
0.0787863
0.0695937
0.0601796
0.0509256
0.0419316
0.0330991
0.0243881
0.0156162
0.00689568
-0.0019499
-0.0111453
-0.0209452
-0.0209452
0
0
0.47023
0.452098
0.436107
0.421928
0.409909
0.400851
0.393783
0.388288
0.38359
0.378954
0.374783
0.3696
0.358026
0.358991
0.352797
0.346449
0.34029
0.332728
0.325823
0.318792
0.311549
0.304074
0.296325
0.288384
0.280298
0.27216
0.26478
0.256404
0.247619
0.238768
0.229909
0.22109
0.212517
0.204411
0.195656
0.186759
0.177896
0.169261
0.160752
0.152097
0.143214
0.134227
0.124483
0.115375
0.106174
0.0969754
0.0878062
0.078664
0.0695119
0.0602426
0.0509097
0.0418221
0.0328566
0.0240682
0.0152058
0.00645102
-0.00246612
-0.0118163
-0.0216069
-0.0216069
0
0
0.470223
0.452069
0.436028
0.422029
0.410244
0.400935
0.393796
0.388371
0.383862
0.379453
0.375069
0.370434
0.366232
0.359015
0.352947
0.346742
0.340299
0.333261
0.32622
0.319097
0.311834
0.30439
0.296557
0.288611
0.280607
0.272576
0.264586
0.256216
0.24758
0.238742
0.229731
0.220604
0.211776
0.205768
0.196682
0.187754
0.178591
0.169603
0.160708
0.151797
0.142799
0.13368
0.124322
0.115112
0.103178
0.0967618
0.087624
0.0785147
0.0694598
0.0602506
0.0511272
0.0415933
0.0324044
0.0105069
0.0146738
0.00614134
-0.00275336
-0.0123875
-0.0221523
-0.0221523
0
0
0.470221
0.452066
0.436038
0.422137
0.410473
0.401174
0.393959
0.388629
0.384298
0.380124
0.375605
0.370789
0.365854
0.359724
0.353567
0.347267
0.340474
0.33366
0.326674
0.319538
0.312282
0.304929
0.296818
0.288853
0.280914
0.272895
0.26476
0.257196
0.247679
0.238771
0.229504
0.219511
0.206879
0.211454
0.197752
0.189237
0.179218
0.169854
0.160727
0.151664
0.142566
0.13334
0.12407
0.11485
0.105656
0.0964865
0.0873401
0.0782313
0.0692596
0.060113
0.0500566
0.0413052
0.0325517
0.0238921
0.0149366
0.00618667
-0.00269227
-0.0129831
-0.0226237
-0.0226237
0
0
0.470222
0.452076
0.436076
0.422242
0.410676
0.40152
0.393865
0.388774
0.384434
0.380077
0.37557
0.370812
0.365677
0.360012
0.354109
0.348202
0.340349
0.333991
0.327122
0.319986
0.312721
0.305576
0.296949
0.289206
0.281354
0.273301
0.265072
0.25644
0.24782
0.238988
0.229721
0.220347
0.21104
0.20641
0.197367
0.188514
0.179134
0.169851
0.160683
0.151584
0.142458
0.133073
0.123785
0.114581
0.105401
0.096228
0.0870354
0.0777674
0.0592559
0.0600239
0.0493864
0.0412824
0.0325133
0.0236982
0.014769
0.00601644
-0.00245189
-0.0135498
-0.0227214
-0.0227214
0
0
0.470223
0.452083
0.436106
0.422318
0.410809
0.401675
0.394603
0.389084
0.384575
0.380309
0.375902
0.371145
0.365993
0.360446
0.3546
0.348478
0.341575
0.334764
0.327727
0.32045
0.312894
0.304765
0.298084
0.290207
0.282137
0.273817
0.265284
0.256866
0.248239
0.239661
0.229889
0.221248
0.212727
0.205099
0.196615
0.18782
0.178768
0.169647
0.160545
0.151502
0.142463
0.13277
0.1235
0.114361
0.105218
0.0960559
0.0868738
0.0776667
0.0684078
0.0586446
0.0515877
0.0416307
0.0324544
0.0234051
0.0142748
0.00493464
-0.00468466
-0.0114799
-0.021641
-0.021641
0
0
0.470218
0.452073
0.436107
0.422359
0.410916
0.401894
0.395254
0.389324
0.384803
0.38073
0.376476
0.371795
0.366657
0.361126
0.35528
0.349162
0.342536
0.335589
0.32841
0.32104
0.313535
0.305589
0.297432
0.290512
0.282575
0.274154
0.265579
0.257039
0.248433
0.239749
0.23071
0.221967
0.213381
0.204931
0.196287
0.187455
0.178474
0.169414
0.160335
0.15132
0.142515
0.132366
0.123351
0.114276
0.105129
0.095954
0.0867756
0.0775953
0.0683994
0.0592054
0.050863
0.0415956
0.0323771
0.0232379
0.0141025
0.00493608
-0.00415478
-0.0122926
-0.0218826
-0.0218826
0
0
0.470201
0.452024
0.43605
0.422346
0.410969
0.40207
0.396032
0.389292
0.385281
0.381519
0.377453
0.372801
0.367632
0.362035
0.35613
0.350147
0.343487
0.336354
0.329049
0.321604
0.314145
0.306446
0.298711
0.290743
0.282726
0.274111
0.265586
0.257111
0.248578
0.239946
0.231187
0.222451
0.213743
0.20502
0.196211
0.187296
0.178288
0.169205
0.160045
0.150742
0.141157
0.133132
0.123787
0.114414
0.105117
0.0958842
0.086697
0.0775402
0.0684096
0.0593444
0.0504641
0.0413754
0.0322424
0.023141
0.0141017
0.00521777
-0.00413427
-0.0128038
-0.0222927
-0.0222927
0
0
0.47016
0.45189
0.435907
0.422276
0.410915
0.401733
0.394016
0.390922
0.387038
0.384434
0.378918
0.374113
0.368816
0.363102
0.356858
0.351188
0.344187
0.336804
0.329473
0.322008
0.314779
0.307179
0.299249
0.290823
0.248614
0.273438
0.265524
0.25731
0.248878
0.24029
0.231591
0.222834
0.214031
0.205172
0.196242
0.187242
0.178179
0.169061
0.159888
0.150651
0.141418
0.132689
0.123555
0.114269
0.10499
0.0957645
0.086594
0.0774643
0.068365
0.0593005
0.050268
0.041195
0.0321077
0.0230475
0.0140377
0.00507605
-0.00399952
-0.013002
-0.0225416
-0.0225416
0
0
0.470088
0.451557
0.439333
0.42225
0.41101
0.40205
0.395221
0.391095
0.387577
0.383922
0.379848
0.375164
0.369948
0.364472
0.356524
0.351213
0.343579
0.342698
0.329616
0.322248
0.315526
0.307888
0.300032
0.29203
0.284141
0.275459
0.266809
0.258193
0.249542
0.240831
0.232057
0.223223
0.214325
0.205354
0.19632
0.187236
0.178113
0.16896
0.159795
0.15064
0.141524
0.132461
0.123265
0.114003
0.104764
0.0955801
0.0864526
0.0773633
0.06829
0.0592222
0.0501502
0.0410662
0.03199
0.022952
0.013948
0.00495411
-0.00405049
-0.0131316
-0.0222927
-0.0226829
0
0
0.470131
0.450567
0.434956
0.421882
0.411057
0.402511
0.396195
0.391865
0.388418
0.384971
0.381033
0.376415
0.371106
0.364979
0.356684
0.190501
0.339917
0.335223
0.329638
0.323574
0.31582
0.308374
0.300712
0.292929
0.28468
0.276199
0.26761
0.258938
0.250199
0.241398
0.232543
0.223629
0.214642
0.205556
0.196412
0.187241
0.178051
0.168852
0.159674
0.150565
0.141505
0.132274
0.122947
0.113655
0.104453
0.0953326
0.0862764
0.0772528
0.068218
0.0591607
0.0500766
0.0409729
0.0318858
0.0228645
0.0138535
0.0048309
-0.00421628
-0.0169948
-0.0229072
-0.0229072
0
0
0.471524
0.447855
0.434292
0.42186
0.411434
0.403217
0.397222
0.393059
0.389749
0.386456
0.382637
0.378093
0.372845
0.366987
0.360686
0.35588
0.347985
0.34023
0.332797
0.325428
0.317574
0.309696
0.301782
0.293944
0.285148
0.276791
0.268267
0.259592
0.250802
0.24194
0.233023
0.224053
0.214997
0.205764
0.196492
0.187231
0.177968
0.168693
0.159439
0.150331
0.141356
0.131896
0.122402
0.113106
0.104008
0.0950062
0.0860719
0.0771611
0.0681853
0.0591503
0.0500572
0.0409159
0.0317892
0.0227967
0.011537
0.00472936
-0.00424113
-0.0133409
-0.0243805
-0.0229838
0
0
0.470309
0.450847
0.435497
0.42276
0.412379
0.404322
0.398535
0.394834
0.391651
0.388462
0.384723
0.38023
0.375034
0.369341
0.363336
0.357527
0.350455
0.342861
0.335112
0.327267
0.319232
0.311068
0.302747
0.294111
0.286371
0.277821
0.269103
0.260292
0.251395
0.242462
0.233496
0.224501
0.215425
0.205947
0.196535
0.187202
0.177869
0.168475
0.158959
0.149704
0.140847
0.130892
0.121283
0.112161
0.103354
0.0945844
0.0858548
0.0771403
0.0682556
0.0592559
0.0501475
0.0409361
0.0317194
0.0228868
0.0138027
0.00469876
-0.00431924
-0.0134185
-0.0229442
-0.0229442
0
0
0.470218
0.452013
0.43665
0.423881
0.410935
0.40563
0.399746
0.397716
0.394183
0.39099
0.387303
0.382819
0.377543
0.361783
0.36545
0.3591
0.3521
0.344624
0.336856
0.32889
0.320752
0.312412
0.303922
0.295339
0.287015
0.278456
0.269726
0.260889
0.251896
0.242937
0.233935
0.224956
0.215978
0.206027
0.196541
0.18721
0.177826
0.168366
0.158024
0.148199
0.138985
0.128444
0.119279
0.110709
0.102468
0.0941232
0.0856717
0.0772634
0.0685809
0.05964
0.0504825
0.0411537
0.0316919
0.0229806
0.0136736
0.00453198
-0.00448975
-0.0135836
-0.0230838
-0.0230838
0
0
0.470331
0.452619
0.437557
0.42508
0.415142
0.407612
0.402324
0.399315
0.396625
0.393815
0.390337
0.385903
0.380611
0.374732
0.36823
0.36133
0.354039
0.346413
0.338535
0.33047
0.322258
0.313722
0.305072
0.296413
0.287802
0.279105
0.270312
0.261422
0.252423
0.243376
0.234296
0.225273
0.216565
0.205893
0.196718
0.187421
0.177907
0.168086
0.157512
0.14568
0.015946
0.124157
0.11704
0.108986
0.101252
0.0939804
0.0856146
0.0774069
0.0696339
0.060717
0.0513013
0.0418221
0.0324753
0.0223558
0.0132322
0.00421653
-0.00475111
-0.0138097
-0.0232728
-0.0232728
0
0
0.470444
0.453065
0.438396
0.426359
0.416889
0.40989
0.405164
0.402202
0.399907
0.397389
0.394074
0.389544
0.384043
0.377822
0.371014
0.36377
0.356185
0.34833