# vtk DataFile Version 2.0
FlowField
ASCII
DATASET STRUCTURED_GRID
DIMENSIONS 102 11 11 
POINTS 12342 double
0 0 0
0 0 0.2
0 0 0.4
0 0 0.6
0 0 0.8
0 0 1
0 0 1.2
0 0 1.4
0 0 1.6
0 0 1.8
0 0 2
0 0.1 0
0 0.1 0.2
0 0.1 0.4
0 0.1 0.6
0 0.1 0.8
0 0.1 1
0 0.1 1.2
0 0.1 1.4
0 0.1 1.6
0 0.1 1.8
0 0.1 2
0 0.2 0
0 0.2 0.2
0 0.2 0.4
0 0.2 0.6
0 0.2 0.8
0 0.2 1
0 0.2 1.2
0 0.2 1.4
0 0.2 1.6
0 0.2 1.8
0 0.2 2
0 0.3 0
0 0.3 0.2
0 0.3 0.4
0 0.3 0.6
0 0.3 0.8
0 0.3 1
0 0.3 1.2
0 0.3 1.4
0 0.3 1.6
0 0.3 1.8
0 0.3 2
0 0.4 0
0 0.4 0.2
0 0.4 0.4
0 0.4 0.6
0 0.4 0.8
0 0.4 1
0 0.4 1.2
0 0.4 1.4
0 0.4 1.6
0 0.4 1.8
0 0.4 2
0 0.5 0
0 0.5 0.2
0 0.5 0.4
0 0.5 0.6
0 0.5 0.8
0 0.5 1
0 0.5 1.2
0 0.5 1.4
0 0.5 1.6
0 0.5 1.8
0 0.5 2
0 0.6 0
0 0.6 0.2
0 0.6 0.4
0 0.6 0.6
0 0.6 0.8
0 0.6 1
0 0.6 1.2
0 0.6 1.4
0 0.6 1.6
0 0.6 1.8
0 0.6 2
0 0.7 0
0 0.7 0.2
0 0.7 0.4
0 0.7 0.6
0 0.7 0.8
0 0.7 1
0 0.7 1.2
0 0.7 1.4
0 0.7 1.6
0 0.7 1.8
0 0.7 2
0 0.8 0
0 0.8 0.2
0 0.8 0.4
0 0.8 0.6
0 0.8 0.8
0 0.8 1
0 0.8 1.2
0 0.8 1.4
0 0.8 1.6
0 0.8 1.8
0 0.8 2
0 0.9 0
0 0.9 0.2
0 0.9 0.4
0 0.9 0.6
0 0.9 0.8
0 0.9 1
0 0.9 1.2
0 0.9 1.4
0 0.9 1.6
0 0.9 1.8
0 0.9 2
0 1 0
0 1 0.2
0 1 0.4
0 1 0.6
0 1 0.8
0 1 1
0 1 1.2
0 1 1.4
0 1 1.6
0 1 1.8
0 1 2
0.2 0 0
0.2 0 0.2
0.2 0 0.4
0.2 0 0.6
0.2 0 0.8
0.2 0 1
0.2 0 1.2
0.2 0 1.4
0.2 0 1.6
0.2 0 1.8
0.2 0 2
0.2 0.1 0
0.2 0.1 0.2
0.2 0.1 0.4
0.2 0.1 0.6
0.2 0.1 0.8
0.2 0.1 1
0.2 0.1 1.2
0.2 0.1 1.4
0.2 0.1 1.6
0.2 0.1 1.8
0.2 0.1 2
0.2 0.2 0
0.2 0.2 0.2
0.2 0.2 0.4
0.2 0.2 0.6
0.2 0.2 0.8
0.2 0.2 1
0.2 0.2 1.2
0.2 0.2 1.4
0.2 0.2 1.6
0.2 0.2 1.8
0.2 0.2 2
0.2 0.3 0
0.2 0.3 0.2
0.2 0.3 0.4
0.2 0.3 0.6
0.2 0.3 0.8
0.2 0.3 1
0.2 0.3 1.2
0.2 0.3 1.4
0.2 0.3 1.6
0.2 0.3 1.8
0.2 0.3 2
0.2 0.4 0
0.2 0.4 0.2
0.2 0.4 0.4
0.2 0.4 0.6
0.2 0.4 0.8
0.2 0.4 1
0.2 0.4 1.2
0.2 0.4 1.4
0.2 0.4 1.6
0.2 0.4 1.8
0.2 0.4 2
0.2 0.5 0
0.2 0.5 0.2
0.2 0.5 0.4
0.2 0.5 0.6
0.2 0.5 0.8
0.2 0.5 1
0.2 0.5 1.2
0.2 0.5 1.4
0.2 0.5 1.6
0.2 0.5 1.8
0.2 0.5 2
0.2 0.6 0
0.2 0.6 0.2
0.2 0.6 0.4
0.2 0.6 0.6
0.2 0.6 0.8
0.2 0.6 1
0.2 0.6 1.2
0.2 0.6 1.4
0.2 0.6 1.6
0.2 0.6 1.8
0.2 0.6 2
0.2 0.7 0
0.2 0.7 0.2
0.2 0.7 0.4
0.2 0.7 0.6
0.2 0.7 0.8
0.2 0.7 1
0.2 0.7 1.2
0.2 0.7 1.4
0.2 0.7 1.6
0.2 0.7 1.8
0.2 0.7 2
0.2 0.8 0
0.2 0.8 0.2
0.2 0.8 0.4
0.2 0.8 0.6
0.2 0.8 0.8
0.2 0.8 1
0.2 0.8 1.2
0.2 0.8 1.4
0.2 0.8 1.6
0.2 0.8 1.8
0.2 0.8 2
0.2 0.9 0
0.2 0.9 0.2
0.2 0.9 0.4
0.2 0.9 0.6
0.2 0.9 0.8
0.2 0.9 1
0.2 0.9 1.2
0.2 0.9 1.4
0.2 0.9 1.6
0.2 0.9 1.8
0.2 0.9 2
0.2 1 0
0.2 1 0.2
0.2 1 0.4
0.2 1 0.6
0.2 1 0.8
0.2 1 1
0.2 1 1.2
0.2 1 1.4
0.2 1 1.6
0.2 1 1.8
0.2 1 2
0.4 0 0
0.4 0 0.2
0.4 0 0.4
0.4 0 0.6
0.4 0 0.8
0.4 0 1
0.4 0 1.2
0.4 0 1.4
0.4 0 1.6
0.4 0 1.8
0.4 0 2
0.4 0.1 0
0.4 0.1 0.2
0.4 0.1 0.4
0.4 0.1 0.6
0.4 0.1 0.8
0.4 0.1 1
0.4 0.1 1.2
0.4 0.1 1.4
0.4 0.1 1.6
0.4 0.1 1.8
0.4 0.1 2
0.4 0.2 0
0.4 0.2 0.2
0.4 0.2 0.4
0.4 0.2 0.6
0.4 0.2 0.8
0.4 0.2 1
0.4 0.2 1.2
0.4 0.2 1.4
0.4 0.2 1.6
0.4 0.2 1.8
0.4 0.2 2
0.4 0.3 0
0.4 0.3 0.2
0.4 0.3 0.4
0.4 0.3 0.6
0.4 0.3 0.8
0.4 0.3 1
0.4 0.3 1.2
0.4 0.3 1.4
0.4 0.3 1.6
0.4 0.3 1.8
0.4 0.3 2
0.4 0.4 0
0.4 0.4 0.2
0.4 0.4 0.4
0.4 0.4 0.6
0.4 0.4 0.8
0.4 0.4 1
0.4 0.4 1.2
0.4 0.4 1.4
0.4 0.4 1.6
0.4 0.4 1.8
0.4 0.4 2
0.4 0.5 0
0.4 0.5 0.2
0.4 0.5 0.4
0.4 0.5 0.6
0.4 0.5 0.8
0.4 0.5 1
0.4 0.5 1.2
0.4 0.5 1.4
0.4 0.5 1.6
0.4 0.5 1.8
0.4 0.5 2
0.4 0.6 0
0.4 0.6 0.2
0.4 0.6 0.4
0.4 0.6 0.6
0.4 0.6 0.8
0.4 0.6 1
0.4 0.6 1.2
0.4 0.6 1.4
0.4 0.6 1.6
0.4 0.6 1.8
0.4 0.6 2
0.4 0.7 0
0.4 0.7 0.2
0.4 0.7 0.4
0.4 0.7 0.6
0.4 0.7 0.8
0.4 0.7 1
0.4 0.7 1.2
0.4 0.7 1.4
0.4 0.7 1.6
0.4 0.7 1.8
0.4 0.7 2
0.4 0.8 0
0.4 0.8 0.2
0.4 0.8 0.4
0.4 0.8 0.6
0.4 0.8 0.8
0.4 0.8 1
0.4 0.8 1.2
0.4 0.8 1.4
0.4 0.8 1.6
0.4 0.8 1.8
0.4 0.8 2
0.4 0.9 0
0.4 0.9 0.2
0.4 0.9 0.4
0.4 0.9 0.6
0.4 0.9 0.8
0.4 0.9 1
0.4 0.9 1.2
0.4 0.9 1.4
0.4 0.9 1.6
0.4 0.9 1.8
0.4 0.9 2
0.4 1 0
0.4 1 0.2
0.4 1 0.4
0.4 1 0.6
0.4 1 0.8
0.4 1 1
0.4 1 1.2
0.4 1 1.4
0.4 1 1.6
0.4 1 1.8
0.4 1 2
0.6 0 0
0.6 0 0.2
0.6 0 0.4
0.6 0 0.6
0.6 0 0.8
0.6 0 1
0.6 0 1.2
0.6 0 1.4
0.6 0 1.6
0.6 0 1.8
0.6 0 2
0.6 0.1 0
0.6 0.1 0.2
0.6 0.1 0.4
0.6 0.1 0.6
0.6 0.1 0.8
0.6 0.1 1
0.6 0.1 1.2
0.6 0.1 1.4
0.6 0.1 1.6
0.6 0.1 1.8
0.6 0.1 2
0.6 0.2 0
0.6 0.2 0.2
0.6 0.2 0.4
0.6 0.2 0.6
0.6 0.2 0.8
0.6 0.2 1
0.6 0.2 1.2
0.6 0.2 1.4
0.6 0.2 1.6
0.6 0.2 1.8
0.6 0.2 2
0.6 0.3 0
0.6 0.3 0.2
0.6 0.3 0.4
0.6 0.3 0.6
0.6 0.3 0.8
0.6 0.3 1
0.6 0.3 1.2
0.6 0.3 1.4
0.6 0.3 1.6
0.6 0.3 1.8
0.6 0.3 2
0.6 0.4 0
0.6 0.4 0.2
0.6 0.4 0.4
0.6 0.4 0.6
0.6 0.4 0.8
0.6 0.4 1
0.6 0.4 1.2
0.6 0.4 1.4
0.6 0.4 1.6
0.6 0.4 1.8
0.6 0.4 2
0.6 0.5 0
0.6 0.5 0.2
0.6 0.5 0.4
0.6 0.5 0.6
0.6 0.5 0.8
0.6 0.5 1
0.6 0.5 1.2
0.6 0.5 1.4
0.6 0.5 1.6
0.6 0.5 1.8
0.6 0.5 2
0.6 0.6 0
0.6 0.6 0.2
0.6 0.6 0.4
0.6 0.6 0.6
0.6 0.6 0.8
0.6 0.6 1
0.6 0.6 1.2
0.6 0.6 1.4
0.6 0.6 1.6
0.6 0.6 1.8
0.6 0.6 2
0.6 0.7 0
0.6 0.7 0.2
0.6 0.7 0.4
0.6 0.7 0.6
0.6 0.7 0.8
0.6 0.7 1
0.6 0.7 1.2
0.6 0.7 1.4
0.6 0.7 1.6
0.6 0.7 1.8
0.6 0.7 2
0.6 0.8 0
0.6 0.8 0.2
0.6 0.8 0.4
0.6 0.8 0.6
0.6 0.8 0.8
0.6 0.8 1
0.6 0.8 1.2
0.6 0.8 1.4
0.6 0.8 1.6
0.6 0.8 1.8
0.6 0.8 2
0.6 0.9 0
0.6 0.9 0.2
0.6 0.9 0.4
0.6 0.9 0.6
0.6 0.9 0.8
0.6 0.9 1
0.6 0.9 1.2
0.6 0.9 1.4
0.6 0.9 1.6
0.6 0.9 1.8
0.6 0.9 2
0.6 1 0
0.6 1 0.2
0.6 1 0.4
0.6 1 0.6
0.6 1 0.8
0.6 1 1
0.6 1 1.2
0.6 1 1.4
0.6 1 1.6
0.6 1 1.8
0.6 1 2
0.8 0 0
0.8 0 0.2
0.8 0 0.4
0.8 0 0.6
0.8 0 0.8
0.8 0 1
0.8 0 1.2
0.8 0 1.4
0.8 0 1.6
0.8 0 1.8
0.8 0 2
0.8 0.1 0
0.8 0.1 0.2
0.8 0.1 0.4
0.8 0.1 0.6
0.8 0.1 0.8
0.8 0.1 1
0.8 0.1 1.2
0.8 0.1 1.4
0.8 0.1 1.6
0.8 0.1 1.8
0.8 0.1 2
0.8 0.2 0
0.8 0.2 0.2
0.8 0.2 0.4
0.8 0.2 0.6
0.8 0.2 0.8
0.8 0.2 1
0.8 0.2 1.2
0.8 0.2 1.4
0.8 0.2 1.6
0.8 0.2 1.8
0.8 0.2 2
0.8 0.3 0
0.8 0.3 0.2
0.8 0.3 0.4
0.8 0.3 0.6
0.8 0.3 0.8
0.8 0.3 1
0.8 0.3 1.2
0.8 0.3 1.4
0.8 0.3 1.6
0.8 0.3 1.8
0.8 0.3 2
0.8 0.4 0
0.8 0.4 0.2
0.8 0.4 0.4
0.8 0.4 0.6
0.8 0.4 0.8
0.8 0.4 1
0.8 0.4 1.2
0.8 0.4 1.4
0.8 0.4 1.6
0.8 0.4 1.8
0.8 0.4 2
0.8 0.5 0
0.8 0.5 0.2
0.8 0.5 0.4
0.8 0.5 0.6
0.8 0.5 0.8
0.8 0.5 1
0.8 0.5 1.2
0.8 0.5 1.4
0.8 0.5 1.6
0.8 0.5 1.8
0.8 0.5 2
0.8 0.6 0
0.8 0.6 0.2
0.8 0.6 0.4
0.8 0.6 0.6
0.8 0.6 0.8
0.8 0.6 1
0.8 0.6 1.2
0.8 0.6 1.4
0.8 0.6 1.6
0.8 0.6 1.8
0.8 0.6 2
0.8 0.7 0
0.8 0.7 0.2
0.8 0.7 0.4
0.8 0.7 0.6
0.8 0.7 0.8
0.8 0.7 1
0.8 0.7 1.2
0.8 0.7 1.4
0.8 0.7 1.6
0.8 0.7 1.8
0.8 0.7 2
0.8 0.8 0
0.8 0.8 0.2
0.8 0.8 0.4
0.8 0.8 0.6
0.8 0.8 0.8
0.8 0.8 1
0.8 0.8 1.2
0.8 0.8 1.4
0.8 0.8 1.6
0.8 0.8 1.8
0.8 0.8 2
0.8 0.9 0
0.8 0.9 0.2
0.8 0.9 0.4
0.8 0.9 0.6
0.8 0.9 0.8
0.8 0.9 1
0.8 0.9 1.2
0.8 0.9 1.4
0.8 0.9 1.6
0.8 0.9 1.8
0.8 0.9 2
0.8 1 0
0.8 1 0.2
0.8 1 0.4
0.8 1 0.6
0.8 1 0.8
0.8 1 1
0.8 1 1.2
0.8 1 1.4
0.8 1 1.6
0.8 1 1.8
0.8 1 2
1 0 0
1 0 0.2
1 0 0.4
1 0 0.6
1 0 0.8
1 0 1
1 0 1.2
1 0 1.4
1 0 1.6
1 0 1.8
1 0 2
1 0.1 0
1 0.1 0.2
1 0.1 0.4
1 0.1 0.6
1 0.1 0.8
1 0.1 1
1 0.1 1.2
1 0.1 1.4
1 0.1 1.6
1 0.1 1.8
1 0.1 2
1 0.2 0
1 0.2 0.2
1 0.2 0.4
1 0.2 0.6
1 0.2 0.8
1 0.2 1
1 0.2 1.2
1 0.2 1.4
1 0.2 1.6
1 0.2 1.8
1 0.2 2
1 0.3 0
1 0.3 0.2
1 0.3 0.4
1 0.3 0.6
1 0.3 0.8
1 0.3 1
1 0.3 1.2
1 0.3 1.4
1 0.3 1.6
1 0.3 1.8
1 0.3 2
1 0.4 0
1 0.4 0.2
1 0.4 0.4
1 0.4 0.6
1 0.4 0.8
1 0.4 1
1 0.4 1.2
1 0.4 1.4
1 0.4 1.6
1 0.4 1.8
1 0.4 2
1 0.5 0
1 0.5 0.2
1 0.5 0.4
1 0.5 0.6
1 0.5 0.8
1 0.5 1
1 0.5 1.2
1 0.5 1.4
1 0.5 1.6
1 0.5 1.8
1 0.5 2
1 0.6 0
1 0.6 0.2
1 0.6 0.4
1 0.6 0.6
1 0.6 0.8
1 0.6 1
1 0.6 1.2
1 0.6 1.4
1 0.6 1.6
1 0.6 1.8
1 0.6 2
1 0.7 0
1 0.7 0.2
1 0.7 0.4
1 0.7 0.6
1 0.7 0.8
1 0.7 1
1 0.7 1.2
1 0.7 1.4
1 0.7 1.6
1 0.7 1.8
1 0.7 2
1 0.8 0
1 0.8 0.2
1 0.8 0.4
1 0.8 0.6
1 0.8 0.8
1 0.8 1
1 0.8 1.2
1 0.8 1.4
1 0.8 1.6
1 0.8 1.8
1 0.8 2
1 0.9 0
1 0.9 0.2
1 0.9 0.4
1 0.9 0.6
1 0.9 0.8
1 0.9 1
1 0.9 1.2
1 0.9 1.4
1 0.9 1.6
1 0.9 1.8
1 0.9 2
1 1 0
1 1 0.2
1 1 0.4
1 1 0.6
1 1 0.8
1 1 1
1 1 1.2
1 1 1.4
1 1 1.6
1 1 1.8
1 1 2
1.2 0 0
1.2 0 0.2
1.2 0 0.4
1.2 0 0.6
1.2 0 0.8
1.2 0 1
1.2 0 1.2
1.2 0 1.4
1.2 0 1.6
1.2 0 1.8
1.2 0 2
1.2 0.1 0
1.2 0.1 0.2
1.2 0.1 0.4
1.2 0.1 0.6
1.2 0.1 0.8
1.2 0.1 1
1.2 0.1 1.2
1.2 0.1 1.4
1.2 0.1 1.6
1.2 0.1 1.8
1.2 0.1 2
1.2 0.2 0
1.2 0.2 0.2
1.2 0.2 0.4
1.2 0.2 0.6
1.2 0.2 0.8
1.2 0.2 1
1.2 0.2 1.2
1.2 0.2 1.4
1.2 0.2 1.6
1.2 0.2 1.8
1.2 0.2 2
1.2 0.3 0
1.2 0.3 0.2
1.2 0.3 0.4
1.2 0.3 0.6
1.2 0.3 0.8
1.2 0.3 1
1.2 0.3 1.2
1.2 0.3 1.4
1.2 0.3 1.6
1.2 0.3 1.8
1.2 0.3 2
1.2 0.4 0
1.2 0.4 0.2
1.2 0.4 0.4
1.2 0.4 0.6
1.2 0.4 0.8
1.2 0.4 1
1.2 0.4 1.2
1.2 0.4 1.4
1.2 0.4 1.6
1.2 0.4 1.8
1.2 0.4 2
1.2 0.5 0
1.2 0.5 0.2
1.2 0.5 0.4
1.2 0.5 0.6
1.2 0.5 0.8
1.2 0.5 1
1.2 0.5 1.2
1.2 0.5 1.4
1.2 0.5 1.6
1.2 0.5 1.8
1.2 0.5 2
1.2 0.6 0
1.2 0.6 0.2
1.2 0.6 0.4
1.2 0.6 0.6
1.2 0.6 0.8
1.2 0.6 1
1.2 0.6 1.2
1.2 0.6 1.4
1.2 0.6 1.6
1.2 0.6 1.8
1.2 0.6 2
1.2 0.7 0
1.2 0.7 0.2
1.2 0.7 0.4
1.2 0.7 0.6
1.2 0.7 0.8
1.2 0.7 1
1.2 0.7 1.2
1.2 0.7 1.4
1.2 0.7 1.6
1.2 0.7 1.8
1.2 0.7 2
1.2 0.8 0
1.2 0.8 0.2
1.2 0.8 0.4
1.2 0.8 0.6
1.2 0.8 0.8
1.2 0.8 1
1.2 0.8 1.2
1.2 0.8 1.4
1.2 0.8 1.6
1.2 0.8 1.8
1.2 0.8 2
1.2 0.9 0
1.2 0.9 0.2
1.2 0.9 0.4
1.2 0.9 0.6
1.2 0.9 0.8
1.2 0.9 1
1.2 0.9 1.2
1.2 0.9 1.4
1.2 0.9 1.6
1.2 0.9 1.8
1.2 0.9 2
1.2 1 0
1.2 1 0.2
1.2 1 0.4
1.2 1 0.6
1.2 1 0.8
1.2 1 1
1.2 1 1.2
1.2 1 1.4
1.2 1 1.6
1.2 1 1.8
1.2 1 2
1.4 0 0
1.4 0 0.2
1.4 0 0.4
1.4 0 0.6
1.4 0 0.8
1.4 0 1
1.4 0 1.2
1.4 0 1.4
1.4 0 1.6
1.4 0 1.8
1.4 0 2
1.4 0.1 0
1.4 0.1 0.2
1.4 0.1 0.4
1.4 0.1 0.6
1.4 0.1 0.8
1.4 0.1 1
1.4 0.1 1.2
1.4 0.1 1.4
1.4 0.1 1.6
1.4 0.1 1.8
1.4 0.1 2
1.4 0.2 0
1.4 0.2 0.2
1.4 0.2 0.4
1.4 0.2 0.6
1.4 0.2 0.8
1.4 0.2 1
1.4 0.2 1.2
1.4 0.2 1.4
1.4 0.2 1.6
1.4 0.2 1.8
1.4 0.2 2
1.4 0.3 0
1.4 0.3 0.2
1.4 0.3 0.4
1.4 0.3 0.6
1.4 0.3 0.8
1.4 0.3 1
1.4 0.3 1.2
1.4 0.3 1.4
1.4 0.3 1.6
1.4 0.3 1.8
1.4 0.3 2
1.4 0.4 0
1.4 0.4 0.2
1.4 0.4 0.4
1.4 0.4 0.6
1.4 0.4 0.8
1.4 0.4 1
1.4 0.4 1.2
1.4 0.4 1.4
1.4 0.4 1.6
1.4 0.4 1.8
1.4 0.4 2
1.4 0.5 0
1.4 0.5 0.2
1.4 0.5 0.4
1.4 0.5 0.6
1.4 0.5 0.8
1.4 0.5 1
1.4 0.5 1.2
1.4 0.5 1.4
1.4 0.5 1.6
1.4 0.5 1.8
1.4 0.5 2
1.4 0.6 0
1.4 0.6 0.2
1.4 0.6 0.4
1.4 0.6 0.6
1.4 0.6 0.8
1.4 0.6 1
1.4 0.6 1.2
1.4 0.6 1.4
1.4 0.6 1.6
1.4 0.6 1.8
1.4 0.6 2
1.4 0.7 0
1.4 0.7 0.2
1.4 0.7 0.4
1.4 0.7 0.6
1.4 0.7 0.8
1.4 0.7 1
1.4 0.7 1.2
1.4 0.7 1.4
1.4 0.7 1.6
1.4 0.7 1.8
[...]
POINT_DATA 12342

SCALARS p double
LOOKUP_TABLE default
5.50729
5.50729
4.7911
4.4484
4.26001
4.16548
4.14751
4.21058
4.39544
4.88031
4.88031
5.50729
5.50729
4.7911
4.4484
4.26001
4.16548
4.14751
4.21058
4.39544
4.88031
4.88031
5.47418
5.47418
4.75652
4.41408
4.22582
4.13134
4.11338
4.17642
4.36117
4.84715
4.88031
5.45479
5.45479
4.73614
4.39374
4.20555
4.11108
4.0931
4.15607
4.3407
4.82751
4.88031
5.44523
5.44523
4.72607
4.38367
4.19551
4.10106
4.08306
4.14598
4.33056
4.81781
4.88031
5.44394
5.44394
4.72462
4.38222
4.19408
4.09962
4.08162
4.14451
4.32907
4.81645
4.88031
5.45063
5.45063
4.73147
4.38909
4.20093
4.10647
4.08847
4.15136
4.33591
4.82314
4.88031
5.46618
5.46618
4.74755
4.40518
4.21698
4.1225
4.1045
4.16742
4.35197
4.83876
4.88031
5.49296
5.49296
4.77534
4.43291
4.24465
4.15015
4.13215
4.19512
4.37972
4.86567
4.88031
5.53582
5.53582
4.81989
4.47727
4.2889
4.19436
4.17637
4.23941
4.42419
4.90872
4.88031
5.53582
5.53582
4.81989
4.47727
4.2889
4.19436
4.17637
4.23941
4.42419
4.90872
4.88031
5.50729
5.50729
4.7911
4.4484
4.26001
4.16548
4.14751
4.21058
4.39544
4.88031
4.88031
5.50729
5.50729
4.7911
4.4484
4.26001
4.16548
4.14751
4.21058
4.39544
4.88031
4.88031
5.47418
5.47418
4.75652
4.41408
4.22582
4.13134
4.11338
4.17642
4.36117
4.84715
4.88031
5.45479
5.45479
4.73614
4.39374
4.20555
4.11108
4.0931
4.15607
4.3407
4.82751
4.88031
5.44523
5.44523
4.72607
4.38367
4.19551
4.10106
4.08306
4.14598
4.33056
4.81781
4.88031
5.44394
5.44394
4.72462
4.38222
4.19408
4.09962
4.08162
4.14451
4.32907
4.81645
4.88031
5.45063
5.45063
4.73147
4.38909
4.20093
4.10647
4.08847
4.15136
4.33591
4.82314
4.88031
5.46618
5.46618
4.74755
4.40518
4.21698
4.1225
4.1045
4.16742
4.35197
4.83876
4.88031
5.49296
5.49296
4.77534
4.43291
4.24465
4.15015
4.13215
4.19512
4.37972
4.86567
4.88031
5.53582
5.53582
4.81989
4.47727
4.2889
4.19436
4.17637
4.23941
4.42419
4.90872
4.88031
5.53582
5.53582
4.81989
4.47727
4.2889
4.19436
4.17637
4.23941
4.42419
4.90872
4.88031
5.23406
5.23406
4.69553
4.36809
4.18173
4.08903
4.07393
4.14236
4.3291
4.69029
4.69029
5.23406
5.23406
4.69553
4.36809
4.18173
4.08903
4.07393
4.14236
4.3291
4.69029
4.69029
5.22725
5.22725
4.6879
4.36051
4.17422
4.08154
4.06644
4.13483
4.32153
4.68339
4.69029
5.22106
5.22106
4.68111
4.35372
4.16746
4.07481
4.05969
4.12803
4.31472
4.67708
4.69029
5.21745
5.21745
4.67715
4.34974
4.16352
4.07087
4.05574
4.12405
4.31073
4.67338
4.69029
5.21723
5.21723
4.67683
4.34941
4.1632
4.07055
4.05541
4.12371
4.31038
4.67312
4.69029
5.22057
5.22057
4.68029
4.35289
4.16667
4.07402
4.05888
4.12717
4.31382
4.67645
4.69029
5.22709
5.22709
4.68718
4.35982
4.17357
4.0809
4.06577
4.13407
4.3207
4.68302
4.69029
5.23556
5.23556
4.69629
4.36896
4.18267
4.08999
4.07486
4.1432
4.32981
4.69158
4.69029
5.24311
5.24311
4.70477
4.37742
4.19108
4.09838
4.08326
4.15164
4.33827
4.69925
4.69029
5.24311
5.24311
4.70477
4.37742
4.19108
4.09838
4.08326
4.15164
4.33827
4.69925
4.69029
4.95115
4.95115
4.58416
4.29888
4.12218
4.03384
4.02325
4.09514
4.26524
4.51018
4.51018
4.95115
4.95115
4.58416
4.29888
4.12218
4.03384
4.02325
4.09514
4.26524
4.51018
4.51018
4.94948
4.94948
4.58204
4.29671
4.12003
4.03171
4.02111
4.09298
4.26311
4.50843
4.51018
4.94781
4.94781
4.58006
4.29467
4.11801
4.0297
4.01909
4.09094
4.26111
4.5067
4.51018
4.94688
4.94688
4.57893
4.29351
4.11687
4.02856
4.01794
4.08978
4.25997
4.50572
4.51018
4.9471
4.9471
4.57909
4.29367
4.11702
4.02872
4.0181
4.08992
4.26011
4.50592
4.51018
4.94854
4.94854
4.58061
4.2952
4.11856
4.03025
4.01963
4.09145
4.26162
4.50736
4.51018
4.9509
4.9509
4.58317
4.29781
4.12117
4.03285
4.02223
4.09405
4.26418
4.50973
4.51018
4.95346
4.95346
4.58608
4.3008
4.12414
4.03582
4.0252
4.09703
4.2671
4.51235
4.51018
4.95522
4.95522
4.58834
4.30312
4.12646
4.03812
4.02751
4.09935
4.26936
4.51418
4.51018
4.95522
4.95522
4.58834
4.30312
4.12646
4.03812
4.02751
4.09935
4.26936
4.51418
4.51018
4.68787
4.68787
4.44796
4.21914
4.0623
3.98206
3.9755
4.04388
4.18378
4.34406
4.34406
4.68787
4.68787
4.44796
4.21914
4.0623
3.98206
3.9755
4.04388
4.18378
4.34406
4.34406
4.6878
4.6878
4.44765
4.21876
4.06191
3.98167
3.97511
4.0435
4.18346
4.34395
4.34406
4.68768
4.68768
4.44736
4.21841
4.06155
3.98131
3.97475
4.04314
4.18314
4.34378
4.34406
4.68773
4.68773
4.44731
4.21833
4.06147
3.98123
3.97466
4.04305
4.18309
4.34381
4.34406
4.68813
4.68813
4.44768
4.21869
4.06183
3.98159
3.97502
4.0434
4.18344
4.34419
4.34406
4.68888
4.68888
4.44847
4.21949
4.06264
3.9824
3.97583
4.04421
4.18422
4.34494
4.34406
4.68985
4.68985
4.44955
4.22062
4.06378
3.98354
3.97696
4.04533
4.18531
4.34592
4.34406
4.69079
4.69079
4.45067
4.22182
4.06498
3.98475
3.97817
4.04653
4.18644
4.34689
4.34406
4.6914
4.6914
4.45154
4.22277
4.06596
3.98572
3.97914
4.04749
4.18733
4.34754
4.34406
4.6914
4.6914
4.45154
4.22277
4.06596
3.98572
3.97914
4.04749
4.18733
4.34754
4.34406
4.45417
4.45417
4.29967
4.1269
3.99671
3.92786
3.9238
3.98254
4.08944
4.19379
4.19379
4.45417
4.45417
4.29967
4.1269
3.99671
3.92786
3.9238
3.98254
4.08944
4.19379
4.19379
4.45471
4.45471
4.30008
4.12724
3.99703
3.92818
3.92411
3.98287
4.08984
4.1943
4.19379
4.45516
4.45516
4.30044
4.12755
3.99732
3.92847
3.9244
3.98317
4.09018
4.19472
4.19379
4.45561
4.45561
4.30084
4.12792
3.99768
3.92882
3.92476
3.98354
4.09057
4.19515
4.19379
4.45612
4.45612
4.30133
4.1284
3.99816
3.9293
3.92524
3.98401
4.09105
4.19565
4.19379
4.45669
4.45669
4.30192
4.129
3.99877
3.92991
3.92585
3.98462
4.09164
4.19622
4.19379
4.45728
4.45728
4.30257
4.12969
3.99947
3.93062
3.92655
3.9853
4.09229
4.19682
4.19379
4.45781
4.45781
4.30319
4.13037
4.00017
3.93132
3.92725
3.98599
4.09293
4.19736
4.19379
4.4582
4.4582
4.30371
4.13096
4.00079
3.93195
3.92788
3.98659
4.09346
4.19777
4.19379
4.4582
4.4582
4.30371
4.13096
4.00079
3.93195
3.92788
3.98659
4.09346
4.19777
4.19379
4.24915
4.24915
4.15028
4.02535
3.92345
3.86761
3.8647
3.91111
3.98889
4.05748
4.05748
4.24915
4.24915
4.15028
4.02535
3.92345
3.86761
3.8647
3.91111
3.98889
4.05748
4.05748
4.24994
4.24994
4.151
4.02602
3.92409
3.86823
3.86533
3.91176
3.98959
4.05824
4.05748
4.25062
4.25062
4.15164
4.02662
3.92467
3.86881
3.86591
3.91235
3.99022
4.05892
4.05748
4.25125
4.25125
4.15224
4.0272
3.92524
3.86937
3.86648
3.91293
3.99081
4.05953
4.05748
4.25184
4.25184
4.15282
4.02777
3.92581
3.86995
3.86705
3.9135
3.99138
4.06011
4.05748
4.2524
4.2524
4.15339
4.02835
3.92639
3.87053
3.86763
3.91407
3.99195
4.06067
4.05748
4.25292
4.25292
4.15393
4.02892
3.92698
3.87112
3.86822
3.91465
3.9925
4.06119
4.05748
4.25337
4.25337
4.15443
4.02946
3.92754
3.87169
3.86878
3.9152
3.99301
4.06165
4.05748
4.25374
4.25374
4.15486
4.02995
3.92806
3.87222
3.86931
3.91569
3.99345
4.06202
4.05748
4.25374
4.25374
4.15486
4.02995
3.92806
3.87222
3.86931
3.91569
3.99345
4.06202
4.05748
4.06848
4.06848
4.0058
3.91848
3.84257
3.79953
3.79713
3.83158
3.88642
3.93223
3.93223
4.06848
4.06848
4.0058
3.91848
3.84257
3.79953
3.79713
3.83158
3.88642
3.93223
3.93223
4.06937
4.06937
4.00665
3.91929
3.84336
3.80031
3.79791
3.83238
3.88726
3.9331
3.93223
4.07016
4.07016
4.00742
3.92004
3.84408
3.80103
3.79864
3.83311
3.88802
3.93389
3.93223
4.07087
4.07087
4.00812
3.92072
3.84476
3.8017
3.79931
3.83379
3.88871
3.9346
3.93223
4.07152
4.07152
4.00877
3.92136
3.84539
3.80233
3.79994
3.83443
3.88935
3.93524
3.93223
4.07211
4.07211
4.00936
3.92196
3.846
3.80294
3.80054
3.83502
3.88994
3.93582
3.93223
4.07264
4.07264
4.0099
3.92251
3.84656
3.80351
3.80111
3.83558
3.89048
3.93635
3.93223
4.0731
4.0731
4.01038
3.92302
3.84709
3.80404
3.80165
3.8361
3.89097
3.93681
3.93223
4.07348
4.07348
4.0108
3.92348
3.84758
3.80454
3.80213
3.83657
3.8914
3.93719
3.93223
4.07348
4.07348
4.0108
3.92348
3.84758
3.80454
3.80213
3.83657
3.8914
3.93719
3.93223
3.90744
3.90744
3.86853
3.80937
3.7552
3.72356
3.72158
3.74612
3.78413
3.81533
3.81533
3.90744
3.90744
3.86853
3.80937
3.7552
3.72356
3.72158
3.74612
3.78413
3.81533
3.81533
3.90836
3.90836
3.86944
3.81025
3.75607
3.72442
3.72244
3.74699
3.78502
3.81625
3.81533
3.9092
3.9092
3.87027
3.81106
3.75687
3.72521
3.72324
3.7478
3.78584
3.81708
3.81533
3.90996
3.90996
3.87102
3.8118
3.7576
3.72594
3.72397
3.74853
3.78659
3.81784
3.81533
3.91065
3.91065
3.8717
3.81248
3.75828
3.72662
3.72464
3.74921
3.78727
3.81852
3.81533
3.91126
3.91126
3.87232
3.8131
3.7589
3.72724
3.72527
3.74983
3.78788
3.81913
3.81533
3.91181
3.91181
3.87287
3.81367
3.75947
3.72782
3.72584
3.7504
3.78844
3.81967
3.81533
3.91229
3.91229
3.87336
3.81417
3.75999
3.72835
3.72636
3.75091
3.78893
3.82015
3.81533
3.9127
3.9127
3.87378
3.81462
3.76046
3.72882
3.72684
3.75136
3.78936
3.82055
3.81533
3.9127
3.9127
3.87378
3.81462
3.76046
3.72882
3.72684
3.75136
3.78936
3.82055
3.81533
3.76183
3.76183
3.7387
3.69998
3.66291
3.64075
3.63936
3.65652
3.68275
3.70454
3.70454
3.76183
3.76183
3.7387
3.69998
3.66291
3.64075
3.63936
3.65652
3.68275
3.70454
3.70454
3.76277
3.76277
3.73963
3.7009
3.66381
3.64164
3.64025
3.65742
3.68367
3.70548
3.70454
3.76363
3.76363
3.74049
3.70174
3.66464
3.64247
3.64108
3.65826
3.68452
3.70634
3.70454
3.76441
3.76441
3.74126
3.70251
3.66541
3.64323
3.64184
3.65902
3.68529
3.70712
3.70454
3.76512
3.76512
3.74197
3.70321
3.66611
3.64393
3.64254
3.65972
3.68599
3.70782
3.70454
3.76575
3.76575
3.7426
3.70385
3.66675
3.64457
3.64318
3.66036
3.68662
3.70845
3.70454
3.76632
3.76632
3.74317
3.70442
3.66733
3.64515
3.64376
3.66093
3.68719
3.70901
3.70454
3.76681
3.76681
3.74367
3.70493
3.66785
3.64567
3.64428
3.66145
3.68769
3.7095
3.70454
3.76724
3.76724
3.7441
3.70538
3.66831
3.64614
3.64475
3.6619
3.68813
3.70991
3.70454
3.76724
3.76724
3.7441
3.70538
3.66831
3.64614
3.64475
3.6619
3.68813
3.70991
3.70454
3.62821
3.62821
3.61561
3.59143
3.56723
3.55257
3.55199
3.56409
3.58242
3.59816
3.59816
3.62821
3.62821
3.61561
3.59143
3.56723
3.55257
3.55199
3.56409
3.58242
3.59816
3.59816
3.62914
3.62914
3.61655
3.59235
3.56814
3.55348
3.5529
3.56501
3.58335
3.5991
3.59816
3.63001
3.63001
3.61741
3.59321
3.56899
3.55433
3.55375
3.56586
3.5842
3.59997
3.59816
3.6308
3.6308
3.6182
3.59399
3.56977
3.5551
3.55453
3.56664
3.58498
3.60076
3.59816
3.63151
3.63151
3.61891
3.5947
3.57048
3.55581
3.55524
3.56735
3.5857
3.60147
3.59816
3.63216
3.63216
3.61956
3.59535
3.57113
3.55646
3.55588
3.56799
3.58634
3.60211
3.59816
3.63273
3.63273
3.62013
3.59592
3.57171
3.55704
3.55646
3.56857
3.58691
3.60268
3.59816
3.63324
3.63324
3.62063
3.59643
3.57223
3.55756
3.55698
3.56909
3.58742
3.60317
3.59816
3.63367
3.63367
3.62107
3.59688
3.57268
3.55802
3.55744
3.56954
3.58786
3.6036
3.59816
3.63367
3.63367
3.62107
3.59688
3.57268
3.55802
3.55744
3.56954
3.58786
3.6036
3.59816
3.5038
3.5038
3.49826
3.48425
3.46946
3.46056
3.46094
3.46982
3.48302
3.49491
3.49491
3.5038
3.5038
3.49826
3.48425
3.46946
3.46056
3.46094
3.46982
3.48302
3.49491
3.49491
3.50473
3.50473
3.4992
3.48518
3.47038
3.46148
3.46185
3.47074
3.48394
3.49585
3.49491
3.50559
3.50559
3.50006
3.48603
3.47123
3.46233
3.46271
3.47159
3.4848
3.49671
3.49491
3.50638
3.50638
3.50085
3.48682
3.47201
3.46311
3.46349
3.47238
3.48559
3.4975
3.49491
3.5071
3.5071
3.50156
3.48754
3.47273
3.46383
3.4642
3.47309
3.4863
3.49822
3.49491
3.50775
3.50775
3.50221
3.48818
3.47337
3.46447
3.46485
3.47374
3.48694
3.49886
3.49491
3.50833
3.50833
3.50279
3.48876
3.47395
3.46506
3.46543
3.47431
3.48752
3.49943
3.49491
3.50884
3.50884
3.50329
3.48927
3.47447
3.46557
3.46594
3.47483
3.48803
3.49993
3.49491
3.50928
3.50928
3.50373
3.48971
3.47492
3.46602
3.46639
3.47527
3.48846
3.50036
3.49491
3.50928
3.50928
3.50373
3.48971
3.47492
3.46602
3.46639
3.47527
3.48846
3.50036
3.49491
3.3865
3.3865
3.38567
3.37869
3.37063
3.36606
3.36743
3.37442
3.38441
3.39389
3.39389
3.3865
3.3865
3.38567
3.37869
3.37063
3.36606
3.36743
3.37442
3.38441
3.39389
3.39389
3.38742
3.38742
3.3866
3.37961
3.37154
3.36698
3.36835
3.37533
3.38533
3.39482
3.39389
3.38828
3.38828
3.38745
3.38047
3.37239
3.36782
3.3692
3.37618
3.38618
3.39568
3.39389
3.38906
3.38906
3.38824
3.38125
3.37318
3.3686
3.36998
3.37696
3.38696
3.39646
3.39389
3.38978
3.38978
3.38895
3.38196
3.37389
3.36932
3.37069
3.37768
3.38767
3.39717
3.39389
3.39042
3.39042
3.3896
3.38261
3.37453
3.36996
3.37133
3.37832
3.38831
3.39781
3.39389
3.391
3.391
3.39017
3.38318
3.37511
3.37054
3.37191
3.37889
3.38889
3.39838
3.39389
3.39151
3.39151
3.39068
3.38369
3.37562
3.37105
3.37242
3.3794
3.38939
3.39888
3.39389
3.39195
3.39195
3.39111
3.38413
3.37606
3.37149
3.37286
3.37984
3.38983
3.39931
3.39389
3.39195
3.39195
3.39111
3.38413
3.37606
3.37149
3.37286
3.37984
3.38983
3.39931
3.39389
3.27469
3.27469
3.27698
3.27481
3.27149
3.27012
3.27245
3.27842
3.28648
3.29447
3.29447
3.27469
3.27469
3.27698
3.27481
3.27149
3.27012
3.27245
3.27842
3.28648
3.29447
3.29447
3.2756
3.2756
3.2779
3.27572
3.2724
3.27102
3.27335
3.27933
3.28738
3.29539
3.29447
3.27644
3.27644
3.27875
3.27657
3.27324
3.27187
3.2742
3.28017
3.28823
3.29624
3.29447
3.27722
3.27722
3.27952
3.27735
3.27402
3.27264
3.27497
3.28094
3.289
3.29702
3.29447
3.27793
3.27793
3.28023
3.27805
3.27472
3.27335
3.27568
3.28165
3.28971
3.29772
3.29447
3.27857
3.27857
3.28087
3.27869
3.27536
3.27399
3.27632
3.28229
3.29035
3.29836
3.29447
3.27915
3.27915
3.28144
3.27926
3.27593
3.27456
3.27689
3.28286
3.29092
3.29892
3.29447
3.27965
3.27965
3.28194
3.27977
3.27644
3.27506
3.27739
3.28336
3.29142
3.29942
3.29447
3.28009
3.28009
3.28237
3.2802
3.27687
3.2755
3.27783
3.2838
3.29185
3.29984
3.29447
3.28009
3.28009
3.28237
3.2802
3.27687
3.2755
3.27783
3.2838
3.29185
3.29984
3.29447
3.16715
3.16715
3.1715
3.17258
3.17256
3.17352
3.17671
3.18222
3.18916
3.19626
3.19626
3.16715
3.16715
3.1715
3.17258
3.17256
3.17352
3.17671
3.18222
3.18916
3.19626
3.19626
3.16805
3.16805
3.1724
3.17348
3.17346
3.17442
3.17761
3.18312
3.19006
3.19716
3.19626
3.16888
3.16888
3.17324
3.17432
3.17429
3.17525
3.17844
3.18395
3.1909
3.198
3.19626
3.16965
3.16965
3.17401
3.17509
3.17506
3.17602
3.17921
3.18472
3.19166
3.19877
3.19626
3.17035
3.17035
3.17471
3.17579
3.17576
3.17672
3.17991
3.18541
3.19236
3.19947
3.19626
3.17099
3.17099
3.17534
3.17642
3.17639
3.17735
3.18054
3.18604
3.19299
3.2001
3.19626
3.17155
3.17155
3.1759
3.17698
3.17696
3.17791
3.1811
3.18661
3.19355
3.20066
3.19626
3.17206
3.17206
3.1764
3.17748
3.17745
3.17841
3.1816
3.18711
3.19405
3.20115
3.19626
3.17249
3.17249
3.17683
3.17791
3.17788
3.17884
3.18203
3.18753
3.19448
3.20157
3.19626
3.17249
3.17249
3.17683
3.17791
3.17788
3.17884
3.18203
3.18753
3.19448
3.20157
3.19626
3.06299
3.06299
3.06867
3.07193
3.07419
3.07683
3.08076
3.08612
3.09246
3.09901
3.09901
3.06299
3.06299
3.06867
3.07193
3.07419
3.07683
3.08076
3.08612
3.09246
3.09901
3.09901
3.06387
3.06387
3.06956
3.07282
3.07507
3.07772
3.08164
3.087
3.09334
3.09991
3.09901
3.0647
3.0647
3.07039
3.07365
3.0759
3.07854
3.08247
3.08783
3.09416
3.10073
3.09901
3.06545
3.06545
3.07114
3.07441
3.07666
3.0793
3.08322
3.08858
3.09492
3.10149
3.09901
3.06615
3.06615
3.07183
3.0751
3.07735
3.07999
3.08391
3.08927
3.09561
3.10218
3.09901
3.06677
3.06677
3.07246
3.07572
3.07797
3.08061
3.08453
3.08989
3.09623
3.1028
3.09901
3.06733
3.06733
3.07301
3.07628
3.07853
3.08117
3.08509
3.09045
3.09679
3.10336
3.09901
3.06783
3.06783
3.0735
3.07677
3.07902
3.08166
3.08558
3.09094
3.09727
3.10384
3.09901
3.06826
3.06826
3.07393
3.07719
3.07944
3.08208
3.08601
3.09136
3.0977
3.10425
3.09901
3.06826
3.06826
3.07393
3.07719
3.07944
3.08208
3.08601
3.09136
3.0977
3.10425
3.09901
2.96156
2.96156
2.96808
2.97279
2.97659
2.98044
2.98496
2.99034
2.99636
3.0026
3.0026
2.96156
2.96156
2.96808
2.97279
2.97659
2.98044
2.98496
2.99034
2.99636
3.0026
3.0026
2.96242
2.96242
2.96895
2.97366
2.97746
2.98131
2.98583
2.99121
2.99723
3.00348
3.0026
2.96323
2.96323
2.96976
2.97447
2.97828
2.98212
2.98664
2.99202
2.99804
3.0043
3.0026
2.96398
2.96398
2.97051
2.97522
2.97902
2.98287
2.98739
2.99277
2.99879
3.00504
3.0026
2.96466
2.96466
2.97119
2.9759
2.9797
2.98355
2.98807
2.99345
2.99947
3.00572
3.0026
2.96528
2.96528
2.9718
2.97651
2.98031
2.98416
2.98868
2.99406
3.00008
3.00633
3.0026
2.96583
2.96583
2.97235
2.97706
2.98086
2.98471
2.98923
2.99461
3.00063
3.00688
3.0026
2.96632
2.96632
2.97284
2.97754
2.98135
2.98519
2.98971
2.99509
3.00111
3.00735
3.0026
2.96675
2.96675
2.97325
2.97796
2.98176
2.98561
2.99013
2.9955
3.00152
3.00776
3.0026
2.96675
2.96675
2.97325
2.97796
2.98176
2.98561
2.99013
2.9955
3.00152
3.00776
3.0026
2.86236
2.86236
2.8694
2.87505
2.8799
2.88459
2.88958
2.89505
2.90092
2.90696
2.90696
2.86236
2.86236
2.8694
2.87505
2.8799
2.88459
2.88958
2.89505
2.90092
2.90696
2.90696
2.86322
2.86322
2.87026
2.87591
2.88075
2.88545
2.89044
2.8959
2.90177
2.90782
2.90696
2.86401
2.86401
2.87106
2.87671
2.88155
2.88624
2.89123
2.8967
2.90257
2.90862
2.90696
2.86474
2.86474
2.87179
2.87744
2.88229
2.88698
2.89196
2.89743
2.9033
2.90936
2.90696
2.86541
2.86541
2.87246
2.87811
2.88295
2.88764
2.89263
2.8981
2.90397
2.91003
2.90696
2.86602
2.86602
2.87306
2.87871
2.88356
2.88825
2.89324
2.8987
2.90457
2.91063
2.90696
2.86656
2.86656
2.8736
2.87925
2.8841
2.88879
2.89377
2.89924
2.90511
2.91116
2.90696
2.86705
2.86705
2.87408
2.87972
2.88457
2.88926
2.89425
2.89971
2.90558
2.91163
2.90696
2.86747
2.86747
2.87449
2.88013
2.88498
2.88967
2.89466
2.90012
2.90599
2.91203
2.90696
2.86747
2.86747
2.87449
2.88013
2.88498
2.88967
2.89466
2.90012
2.90599
2.91203
2.90696
2.76507
2.76507
2.77239
2.77864
2.78417
2.78944
2.79478
2.80035
2.80615
2.81206
2.81206
2.76507
2.76507
2.77239
2.77864
2.78417
2.78944
2.79478
2.80035
2.80615
2.81206
2.81206
2.7659
2.7659
2.77324
2.77948
2.78502
2.79029
2.79562
2.80119
2.80699
2.81291
2.81206
2.76668
2.76668
2.77402
2.78026
2.7858
2.79107
2.79641
2.80197
2.80777
2.81369
2.81206
2.7674
2.7674
2.77474
2.78098
2.78652
2.79179
2.79713
2.80269
2.80849
2.81442
2.81206
2.76806
2.76806
2.7754
2.78164
2.78717
2.79244
2.79778
2.80335
2.80915
2.81507
2.81206
2.76865
2.76865
2.77599
2.78223
2.78777
2.79304
2.79837
2.80394
2.80974
2.81566
2.81206
2.76919
2.76919
2.77652
2.78276
2.7883
2.79357
2.7989
2.80447
2.81026
2.81619
2.81206
2.76966
2.76966
2.77699
2.78323
2.78876
2.79403
2.79937
2.80493
2.81073
2.81665
2.81206
2.77007
2.77007
2.77739
2.78363
2.78916
2.79443
2.79977
2.80533
2.81113
2.81704
2.81206
2.77007
2.77007
2.77739
2.78363
2.78916
2.79443
2.79977
2.80533
2.81113
2.81704
2.81206
2.66941
2.66941
2.67687
2.68347
2.68945
2.6951
2.70069
2.70634
2.7121
2.71791
2.71791
2.66941
2.66941
2.67687
2.68347
2.68945
2.6951
2.70069
2.70634
2.7121
2.71791
2.71791
2.67022
2.67022
2.6777
2.6843
2.69027
2.69593
2.70151
2.70716
2.71292
2.71874
2.71791
2.67099
2.67099
2.67847
2.68507
2.69104
2.6967
2.70228
2.70793
2.71369
2.71951
2.71791
2.67169
2.67169
2.67917
2.68577
2.69175
2.6974
2.70298
2.70863
2.71439
2.72021
2.71791
2.67234
2.67234
2.67982
2.68642
2.69239
2.69805
2.70363
2.70927
2.71503
2.72086
2.71791
2.67292
2.67292
2.6804
2.687
2.69297
2.69863
2.70421
2.70985
2.71561
2.72144
2.71791
2.67345
2.67345
2.68092
2.68752
2.69349
2.69914
2.70472
2.71037
2.71613
2.72195
2.71791
2.67391
2.67391
2.68138
2.68797
2.69395
2.6996
2.70518
2.71083
2.71659
2.7224
2.71791
2.67431
2.67431
2.68177
2.68837
2.69434
2.69999
2.70557
2.71122
2.71698
2.72279
2.71791
2.67431
2.67431
2.68177
2.68837
2.69434
2.69999
2.70557
2.71122
2.71698
2.72279
2.71791
2.5752
2.5752
2.5827
2.58949
2.59573
2.60162
2.60736
2.61306
2.61879
2.6245
2.6245
2.5752
2.5752
2.5827
2.58949
2.59573
2.60162
2.60736
2.61306
2.61879
2.6245
2.6245
2.576
2.576
2.58351
2.5903
2.59654
2.60243
2.60817
2.61387
2.61959
2.62532
2.6245
2.57675
2.57675
2.58426
2.59105
2.59729
2.60318
2.60892
2.61462
2.62034
2.62607
2.6245
2.57743
2.57743
2.58495
2.59174
2.59798
2.60387
2.60961
2.61531
2.62103
2.62676
2.6245
2.57807
2.57807
2.58558
2.59237
2.59861
2.6045
2.61024
2.61594
2.62166
2.62739
2.6245
2.57864
2.57864
2.58615
2.59294
2.59918
2.60507
2.61081
2.61651
2.62223
2.62796
2.6245
2.57915
2.57915
2.58666
2.59345
2.59968
2.60558
2.61131
2.61701
2.62273
2.62846
2.6245
2.57961
2.57961
2.58711
2.5939
2.60013
2.60602
2.61176
2.61746
2.62318
2.6289
2.6245
2.58
2.58
2.58749
2.59428
2.60052
2.60641
2.61215