# vtk DataFile Version 2.0
FlowField
ASCII
DATASET STRUCTURED_GRID
DIMENSIONS 62 47 32 
POINTS 93248 double
0 0 0
0.01 0 0
0.02 0 0
0.03 0 0
0.04 0 0
0.05 0 0
0.06 0 0
0.07 0 0
0.08 0 0
0.09 0 0
0.1 0 0
0.11 0 0
0.12 0 0
0.13 0 0
0.14 0 0
0.15 0 0
0.16 0 0
0.17 0 0
0.18 0 0
0.19 0 0
0.2 0 0
0.21 0 0
0.22 0 0
0.23 0 0
0.24 0 0
0.25 0 0
0.26 0 0
0.27 0 0
0.28 0 0
0.29 0 0
0.3 0 0
0.31 0 0
0.32 0 0
0.33 0 0
0.34 0 0
0.35 0 0
0.36 0 0
0.37 0 0
0.38 0 0
0.39 0 0
0.4 0 0
0.41 0 0
0.42 0 0
0.43 0 0
0.44 0 0
0.45 0 0
0.46 0 0
0.47 0 0
0.48 0 0
0.49 0 0
0.5 0 0
0.51 0 0
0.52 0 0
0.53 0 0
0.54 0 0
0.55 0 0
0.56 0 0
0.57 0 0
0.58 0 0
0.59 0 0
0.6 0 0
0.61 0 0
0 0.01 0
0.01 0.01 0
0.02 0.01 0
0.03 0.01 0
0.04 0.01 0
0.05 0.01 0
0.06 0.01 0
0.07 0.01 0
0.08 0.01 0
0.09 0.01 0
0.1 0.01 0
0.11 0.01 0
0.12 0.01 0
0.13 0.01 0
0.14 0.01 0
0.15 0.01 0
0.16 0.01 0
0.17 0.01 0
0.18 0.01 0
0.19 0.01 0
0.2 0.01 0
0.21 0.01 0
0.22 0.01 0
0.23 0.01 0
0.24 0.01 0
0.25 0.01 0
0.26 0.01 0
0.27 0.01 0
0.28 0.01 0
0.29 0.01 0
0.3 0.01 0
0.31 0.01 0
0.32 0.01 0
0.33 0.01 0
0.34 0.01 0
0.35 0.01 0
0.36 0.01 0
0.37 0.01 0
0.38 0.01 0
0.39 0.01 0
0.4 0.01 0
0.41 0.01 0
0.42 0.01 0
0.43 0.01 0
0.44 0.01 0
0.45 0.01 0
0.46 0.01 0
0.47 0.01 0
0.48 0.01 0
0.49 0.01 0
0.5 0.01 0
0.51 0.01 0
0.52 0.01 0
0.53 0.01 0
0.54 0.01 0
0.55 0.01 0
0.56 0.01 0
0.57 0.01 0
0.58 0.01 0
0.59 0.01 0
0.6 0.01 0
0.61 0.01 0
0 0.02 0
0.01 0.02 0
0.02 0.02 0
0.03 0.02 0
0.04 0.02 0
0.05 0.02 0
0.06 0.02 0
0.07 0.02 0
0.08 0.02 0
0.09 0.02 0
0.1 0.02 0
0.11 0.02 0
0.12 0.02 0
0.13 0.02 0
0.14 0.02 0
0.15 0.02 0
0.16 0.02 0
0.17 0.02 0
0.18 0.02 0
0.19 0.02 0
0.2 0.02 0
0.21 0.02 0
0.22 0.02 0
0.23 0.02 0
0.24 0.02 0
0.25 0.02 0
0.26 0.02 0
0.27 0.02 0
0.28 0.02 0
0.29 0.02 0
0.3 0.02 0
0.31 0.02 0
0.32 0.02 0
0.33 0.02 0
0.34 0.02 0
0.35 0.02 0
0.36 0.02 0
0.37 0.02 0
0.38 0.02 0
0.39 0.02 0
0.4 0.02 0
0.41 0.02 0
0.42 0.02 0
0.43 0.02 0
0.44 0.02 0
0.45 0.02 0
0.46 0.02 0
0.47 0.02 0
0.48 0.02 0
0.49 0.02 0
0.5 0.02 0
0.51 0.02 0
0.52 0.02 0
0.53 0.02 0
0.54 0.02 0
0.55 0.02 0
0.56 0.02 0
0.57 0.02 0
0.58 0.02 0
0.59 0.02 0
0.6 0.02 0
0.61 0.02 0
0 0.03 0
0.01 0.03 0
0.02 0.03 0
0.03 0.03 0
0.04 0.03 0
0.05 0.03 0
0.06 0.03 0
0.07 0.03 0
0.08 0.03 0
0.09 0.03 0
0.1 0.03 0
0.11 0.03 0
0.12 0.03 0
0.13 0.03 0
0.14 0.03 0
0.15 0.03 0
0.16 0.03 0
0.17 0.03 0
0.18 0.03 0
0.19 0.03 0
0.2 0.03 0
0.21 0.03 0
0.22 0.03 0
0.23 0.03 0
0.24 0.03 0
0.25 0.03 0
0.26 0.03 0
0.27 0.03 0
0.28 0.03 0
0.29 0.03 0
0.3 0.03 0
0.31 0.03 0
0.32 0.03 0
0.33 0.03 0
0.34 0.03 0
0.35 0.03 0
0.36 0.03 0
0.37 0.03 0
0.38 0.03 0
0.39 0.03 0
0.4 0.03 0
0.41 0.03 0
0.42 0.03 0
0.43 0.03 0
0.44 0.03 0
0.45 0.03 0
0.46 0.03 0
0.47 0.03 0
0.48 0.03 0
0.49 0.03 0
0.5 0.03 0
0.51 0.03 0
0.52 0.03 0
0.53 0.03 0
0.54 0.03 0
0.55 0.03 0
0.56 0.03 0
0.57 0.03 0
0.58 0.03 0
0.59 0.03 0
0.6 0.03 0
0.61 0.03 0
0 0.04 0
0.01 0.04 0
0.02 0.04 0
0.03 0.04 0
0.04 0.04 0
0.05 0.04 0
0.06 0.04 0
0.07 0.04 0
0.08 0.04 0
0.09 0.04 0
0.1 0.04 0
0.11 0.04 0
0.12 0.04 0
0.13 0.04 0
0.14 0.04 0
0.15 0.04 0
0.16 0.04 0
0.17 0.04 0
0.18 0.04 0
0.19 0.04 0
0.2 0.04 0
0.21 0.04 0
0.22 0.04 0
0.23 0.04 0
0.24 0.04 0
0.25 0.04 0
0.26 0.04 0
0.27 0.04 0
0.28 0.04 0
0.29 0.04 0
0.3 0.04 0
0.31 0.04 0
0.32 0.04 0
0.33 0.04 0
0.34 0.04 0
0.35 0.04 0
0.36 0.04 0
0.37 0.04 0
0.38 0.04 0
0.39 0.04 0
0.4 0.04 0
0.41 0.04 0
0.42 0.04 0
0.43 0.04 0
0.44 0.04 0
0.45 0.04 0
0.46 0.04 0
0.47 0.04 0
0.48 0.04 0
0.49 0.04 0
0.5 0.04 0
0.51 0.04 0
0.52 0.04 0
0.53 0.04 0
0.54 0.04 0
0.55 0.04 0
0.56 0.04 0
0.57 0.04 0
0.58 0.04 0
0.59 0.04 0
0.6 0.04 0
0.61 0.04 0
0 0.05 0
0.01 0.05 0
0.02 0.05 0
0.03 0.05 0
0.04 0.05 0
0.05 0.05 0
0.06 0.05 0
0.07 0.05 0
0.08 0.05 0
0.09 0.05 0
0.1 0.05 0
0.11 0.05 0
0.12 0.05 0
0.13 0.05 0
0.14 0.05 0
0.15 0.05 0
0.16 0.05 0
0.17 0.05 0
0.18 0.05 0
0.19 0.05 0
0.2 0.05 0
0.21 0.05 0
0.22 0.05 0
0.23 0.05 0
0.24 0.05 0
0.25 0.05 0
0.26 0.05 0
0.27 0.05 0
0.28 0.05 0
0.29 0.05 0
0.3 0.05 0
0.31 0.05 0
0.32 0.05 0
0.33 0.05 0
0.34 0.05 0
0.35 0.05 0
0.36 0.05 0
0.37 0.05 0
0.38 0.05 0
0.39 0.05 0
0.4 0.05 0
0.41 0.05 0
0.42 0.05 0
0.43 0.05 0
0.44 0.05 0
0.45 0.05 0
0.46 0.05 0
0.47 0.05 0
0.48 0.05 0
0.49 0.05 0
0.5 0.05 0
0.51 0.05 0
0.52 0.05 0
0.53 0.05 0
0.54 0.05 0
0.55 0.05 0
0.56 0.05 0
0.57 0.05 0
0.58 0.05 0
0.59 0.05 0
0.6 0.05 0
0.61 0.05 0
0 0.06 0
0.01 0.06 0
0.02 0.06 0
0.03 0.06 0
0.04 0.06 0
0.05 0.06 0
0.06 0.06 0
0.07 0.06 0
0.08 0.06 0
0.09 0.06 0
0.1 0.06 0
0.11 0.06 0
0.12 0.06 0
0.13 0.06 0
0.14 0.06 0
0.15 0.06 0
0.16 0.06 0
0.17 0.06 0
0.18 0.06 0
0.19 0.06 0
0.2 0.06 0
0.21 0.06 0
0.22 0.06 0
0.23 0.06 0
0.24 0.06 0
0.25 0.06 0
0.26 0.06 0
0.27 0.06 0
0.28 0.06 0
0.29 0.06 0
0.3 0.06 0
0.31 0.06 0
0.32 0.06 0
0.33 0.06 0
0.34 0.06 0
0.35 0.06 0
0.36 0.06 0
0.37 0.06 0
0.38 0.06 0
0.39 0.06 0
0.4 0.06 0
0.41 0.06 0
0.42 0.06 0
0.43 0.06 0
0.44 0.06 0
0.45 0.06 0
0.46 0.06 0
0.47 0.06 0
0.48 0.06 0
0.49 0.06 0
0.5 0.06 0
0.51 0.06 0
0.52 0.06 0
0.53 0.06 0
0.54 0.06 0
0.55 0.06 0
0.56 0.06 0
0.57 0.06 0
0.58 0.06 0
0.59 0.06 0
0.6 0.06 0
0.61 0.06 0
0 0.07 0
0.01 0.07 0
0.02 0.07 0
0.03 0.07 0
0.04 0.07 0
0.05 0.07 0
0.06 0.07 0
0.07 0.07 0
0.08 0.07 0
0.09 0.07 0
0.1 0.07 0
0.11 0.07 0
0.12 0.07 0
0.13 0.07 0
0.14 0.07 0
0.15 0.07 0
0.16 0.07 0
0.17 0.07 0
0.18 0.07 0
0.19 0.07 0
0.2 0.07 0
0.21 0.07 0
0.22 0.07 0
0.23 0.07 0
0.24 0.07 0
0.25 0.07 0
0.26 0.07 0
0.27 0.07 0
0.28 0.07 0
0.29 0.07 0
0.3 0.07 0
0.31 0.07 0
0.32 0.07 0
0.33 0.07 0
0.34 0.07 0
0.35 0.07 0
0.36 0.07 0
0.37 0.07 0
0.38 0.07 0
0.39 0.07 0
0.4 0.07 0
0.41 0.07 0
0.42 0.07 0
0.43 0.07 0
0.44 0.07 0
0.45 0.07 0
0.46 0.07 0
0.47 0.07 0
0.48 0.07 0
0.49 0.07 0
0.5 0.07 0
0.51 0.07 0
0.52 0.07 0
0.53 0.07 0
0.54 0.07 0
0.55 0.07 0
0.56 0.07 0
0.57 0.07 0
0.58 0.07 0
0.59 0.07 0
0.6 0.07 0
0.61 0.07 0
0 0.08 0
0.01 0.08 0
0.02 0.08 0
0.03 0.08 0
0.04 0.08 0
0.05 0.08 0
0.06 0.08 0
0.07 0.08 0
0.08 0.08 0
0.09 0.08 0
0.1 0.08 0
0.11 0.08 0
0.12 0.08 0
0.13 0.08 0
0.14 0.08 0
0.15 0.08 0
0.16 0.08 0
0.17 0.08 0
0.18 0.08 0
0.19 0.08 0
0.2 0.08 0
0.21 0.08 0
0.22 0.08 0
0.23 0.08 0
0.24 0.08 0
0.25 0.08 0
0.26 0.08 0
0.27 0.08 0
0.28 0.08 0
0.29 0.08 0
0.3 0.08 0
0.31 0.08 0
0.32 0.08 0
0.33 0.08 0
0.34 0.08 0
0.35 0.08 0
0.36 0.08 0
0.37 0.08 0
0.38 0.08 0
0.39 0.08 0
0.4 0.08 0
0.41 0.08 0
0.42 0.08 0
0.43 0.08 0
0.44 0.08 0
0.45 0.08 0
0.46 0.08 0
0.47 0.08 0
0.48 0.08 0
0.49 0.08 0
0.5 0.08 0
0.51 0.08 0
0.52 0.08 0
0.53 0.08 0
0.54 0.08 0
0.55 0.08 0
0.56 0.08 0
0.57 0.08 0
0.58 0.08 0
0.59 0.08 0
0.6 0.08 0
0.61 0.08 0
0 0.09 0
0.01 0.09 0
0.02 0.09 0
0.03 0.09 0
0.04 0.09 0
0.05 0.09 0
0.06 0.09 0
0.07 0.09 0
0.08 0.09 0
0.09 0.09 0
0.1 0.09 0
0.11 0.09 0
0.12 0.09 0
0.13 0.09 0
0.14 0.09 0
0.15 0.09 0
0.16 0.09 0
0.17 0.09 0
0.18 0.09 0
0.19 0.09 0
0.2 0.09 0
0.21 0.09 0
0.22 0.09 0
0.23 0.09 0
0.24 0.09 0
0.25 0.09 0
0.26 0.09 0
0.27 0.09 0
0.28 0.09 0
0.29 0.09 0
0.3 0.09 0
0.31 0.09 0
0.32 0.09 0
0.33 0.09 0
0.34 0.09 0
0.35 0.09 0
0.36 0.09 0
0.37 0.09 0
0.38 0.09 0
0.39 0.09 0
0.4 0.09 0
0.41 0.09 0
0.42 0.09 0
0.43 0.09 0
0.44 0.09 0
0.45 0.09 0
0.46 0.09 0
0.47 0.09 0
0.48 0.09 0
0.49 0.09 0
0.5 0.09 0
0.51 0.09 0
0.52 0.09 0
0.53 0.09 0
0.54 0.09 0
0.55 0.09 0
0.56 0.09 0
0.57 0.09 0
0.58 0.09 0
0.59 0.09 0
0.6 0.09 0
0.61 0.09 0
0 0.1 0
0.01 0.1 0
0.02 0.1 0
0.03 0.1 0
0.04 0.1 0
0.05 0.1 0
0.06 0.1 0
0.07 0.1 0
0.08 0.1 0
0.09 0.1 0
0.1 0.1 0
0.11 0.1 0
0.12 0.1 0
0.13 0.1 0
0.14 0.1 0
0.15 0.1 0
0.16 0.1 0
0.17 0.1 0
0.18 0.1 0
0.19 0.1 0
0.2 0.1 0
0.21 0.1 0
0.22 0.1 0
0.23 0.1 0
0.24 0.1 0
0.25 0.1 0
0.26 0.1 0
0.27 0.1 0
0.28 0.1 0
0.29 0.1 0
0.3 0.1 0
0.31 0.1 0
0.32 0.1 0
0.33 0.1 0
0.34 0.1 0
0.35 0.1 0
0.36 0.1 0
0.37 0.1 0
0.38 0.1 0
0.39 0.1 0
0.4 0.1 0
0.41 0.1 0
0.42 0.1 0
0.43 0.1 0
0.44 0.1 0
0.45 0.1 0
0.46 0.1 0
0.47 0.1 0
0.48 0.1 0
0.49 0.1 0
0.5 0.1 0
0.51 0.1 0
0.52 0.1 0
0.53 0.1 0
0.54 0.1 0
0.55 0.1 0
0.56 0.1 0
0.57 0.1 0
0.58 0.1 0
0.59 0.1 0
0.6 0.1 0
0.61 0.1 0
0 0.11 0
0.01 0.11 0
0.02 0.11 0
0.03 0.11 0
0.04 0.11 0
0.05 0.11 0
0.06 0.11 0
0.07 0.11 0
0.08 0.11 0
0.09 0.11 0
0.1 0.11 0
0.11 0.11 0
0.12 0.11 0
0.13 0.11 0
0.14 0.11 0
0.15 0.11 0
0.16 0.11 0
0.17 0.11 0
0.18 0.11 0
0.19 0.11 0
0.2 0.11 0
0.21 0.11 0
0.22 0.11 0
0.23 0.11 0
0.24 0.11 0
0.25 0.11 0
0.26 0.11 0
0.27 0.11 0
0.28 0.11 0
0.29 0.11 0
0.3 0.11 0
0.31 0.11 0
0.32 0.11 0
0.33 0.11 0
0.34 0.11 0
0.35 0.11 0
0.36 0.11 0
0.37 0.11 0
0.38 0.11 0
0.39 0.11 0
0.4 0.11 0
0.41 0.11 0
0.42 0.11 0
0.43 0.11 0
0.44 0.11 0
0.45 0.11 0
0.46 0.11 0
0.47 0.11 0
0.48 0.11 0
0.49 0.11 0
0.5 0.11 0
0.51 0.11 0
0.52 0.11 0
0.53 0.11 0
0.54 0.11 0
0.55 0.11 0
0.56 0.11 0
0.57 0.11 0
0.58 0.11 0
0.59 0.11 0
0.6 0.11 0
0.61 0.11 0
0 0.12 0
0.01 0.12 0
0.02 0.12 0
0.03 0.12 0
0.04 0.12 0
0.05 0.12 0
0.06 0.12 0
0.07 0.12 0
0.08 0.12 0
0.09 0.12 0
0.1 0.12 0
0.11 0.12 0
0.12 0.12 0
0.13 0.12 0
0.14 0.12 0
0.15 0.12 0
0.16 0.12 0
0.17 0.12 0
0.18 0.12 0
0.19 0.12 0
0.2 0.12 0
0.21 0.12 0
0.22 0.12 0
0.23 0.12 0
0.24 0.12 0
0.25 0.12 0
0.26 0.12 0
0.27 0.12 0
0.28 0.12 0
0.29 0.12 0
0.3 0.12 0
0.31 0.12 0
0.32 0.12 0
0.33 0.12 0
0.34 0.12 0
0.35 0.12 0
0.36 0.12 0
0.37 0.12 0
0.38 0.12 0
0.39 0.12 0
0.4 0.12 0
0.41 0.12 0
0.42 0.12 0
0.43 0.12 0
0.44 0.12 0
0.45 0.12 0
0.46 0.12 0
0.47 0.12 0
0.48 0.12 0
0.49 0.12 0
0.5 0.12 0
0.51 0.12 0
0.52 0.12 0
0.53 0.12 0
0.54 0.12 0
0.55 0.12 0
0.56 0.12 0
0.57 0.12 0
0.58 0.12 0
0.59 0.12 0
0.6 0.12 0
0.61 0.12 0
0 0.13 0
0.01 0.13 0
0.02 0.13 0
0.03 0.13 0
0.04 0.13 0
0.05 0.13 0
0.06 0.13 0
0.07 0.13 0
0.08 0.13 0
0.09 0.13 0
0.1 0.13 0
0.11 0.13 0
0.12 0.13 0
0.13 0.13 0
0.14 0.13 0
0.15 0.13 0
0.16 0.13 0
0.17 0.13 0
0.18 0.13 0
0.19 0.13 0
0.2 0.13 0
0.21 0.13 0
0.22 0.13 0
0.23 0.13 0
0.24 0.13 0
0.25 0.13 0
0.26 0.13 0
0.27 0.13 0
0.28 0.13 0
0.29 0.13 0
0.3 0.13 0
0.31 0.13 0
0.32 0.13 0
0.33 0.13 0
0.34 0.13 0
0.35 0.13 0
0.36 0.13 0
0.37 0.13 0
0.38 0.13 0
0.39 0.13 0
0.4 0.13 0
0.41 0.13 0
0.42 0.13 0
0.43 0.13 0
0.44 0.13 0
0.45 0.13 0
0.46 0.13 0
0.47 0.13 0
0.48 0.13 0
[...]
POINT_DATA 93248

SCALARS u double
LOOKUP_TABLE default
0
0
0
0
0
0
0
0
0
0
0
0
0
0
0
0
0
0
0
0
0
0
0
0
0.267352
0
0
0
0
0
0
0
0.00861912
0.204729
0
0
0
0
0
0
0
0
0
0
0
0
0
0.0440925
0
0
0.0517211
0
0
0
0
0
0
0
0
0
0
0
0
0.406975
0.321409
0.239181
0.171164
0.120898
0.0834095
0.0566336
0.0377541
0.0238666
0.0132517
0.00594726
0.00522667
0.00422277
0.00387322
0.00438223
0.00556377
0.00598259
0.00580776
0.00438657
0.0127442
0.0143016
0.00933509
0.00941486
0.00979758
0.00994477
0.00992511
0.00979246
0.0095328
0.00906556
0.00828648
0.0075273
0.00908974
0.0082985
0.00657846
0.00539691
0.00714798
0.00452431
0.000763119
0.143576
-0.00327053
0.00164015
0.0036356
0.0074006
0.0174676
-0.0246961
-0.00680509
-0.00523276
-0.00445029
-0.00538842
-0.00628163
-0.00167299
-0.0053759
0.00524428
-0.036016
-0.0275064
-0.0245245
-0.0218815
-0.0273685
-0.0365658
-0.0365658
0
0
0.481484
0.456822
0.422825
0.380098
0.338992
0.291738
0.246227
0.205837
0.172646
0.146346
0.12617
0.117123
0.108301
0.102744
0.0996798
0.0984897
0.0968946
0.0975685
0.30196
0.102918
0.102936
0.0849884
0.0864703
0.0852904
0.0834518
0.0813346
0.0790201
0.0765174
0.0737909
0.0707212
0.0671629
0.0670712
0.0633121
0.0598676
0.0575669
0.051927
0.0477909
0.000460034
0.0431371
0.0396
0.0360331
0.0355301
0.0361209
0.0343891
0.0136536
0.00649413
0.00689919
0.00512101
0.00337924
0.00287486
-0.00661602
-0.00673921
-0.0107478
-0.0340184
-0.0387448
-0.0460048
-0.0482338
-0.0577227
-0.0685031
-0.0685031
0
0
0.475504
0.466935
0.458036
0.437015
0.431309
0.397941
0.365999
0.335089
0.306062
0.311571
0.259849
0.236
0.221295
0.210534
0.203349
0.198084
0.191755
0.188443
0.184623
0.17743
0.176137
0.16815
0.164374
0.16083
0.156969
0.152792
0.148365
0.143759
0.139092
0.134672
0.130952
0.123797
0.11742
0.196566
0.109622
0.102442
0.0973248
0.0941613
0.0893706
0.0832062
0.0767766
0.117181
0.0662218
0.0588868
0.11234
0.0346592
0.0276055
0.00512101
0.0178948
0.0132607
0.00499037
-0.00167299
-0.011198
-0.0257911
-0.0360186
-0.0457304
-0.0589957
-0.0683371
-0.0782144
-0.0782144
0
0
0.468412
0.454662
0.455807
0.445109
0.438146
0.424095
0.407431
0.389573
0.371422
0.353305
0.336249
0.317916
0.302094
0.288655
0.279054
0.268589
0.262713
0.255714
0.300199
0.240065
0.233088
0.226059
0.220056
0.214472
0.208892
0.203141
0.1972
0.191108
0.184939
0.17876
0.172336
0.164379
0.15687
0.149626
0.14377
0.137396
0.131421
0.126103
0.11932
0.111738
0.103364
0.0943868
0.0861083
0.0765521
0.0651015
0.0536434
0.0451319
0.0379442
0.0305096
0.0227251
0.0137937
0.00434034
-0.00647947
-0.0185097
-0.0301719
-0.0418051
-0.0544205
-0.0655022
-0.0765566
-0.0765566
0
0
0.465981
0.450255
0.441554
0.433109
0.426173
0.41769
0.408273
0.398117
0.387237
0.375756
0.363897
0.351371
0.338751
0.325486
0.322145
0.309771
0.300819
0.292297
0.282867
0.274268
0.266292
0.258796
0.251751
0.244987
0.238313
0.231555
0.224685
0.217703
0.210588
0.203241
0.195354
0.186675
0.179815
0.171848
0.164302
0.157015
0.14991
0.142775
0.134898
0.12639
0.117224
0.107454
0.0976127
0.0874428
0.0775267
0.0773222
0.0562116
0.047406
0.0383626
0.0290276
0.0192602
0.00900869
-0.00177559
-0.0128579
-0.0239912
-0.0348828
-0.0452896
-0.0548752
-0.065922
-0.065922
0
0
0.464891
0.446407
0.432597
0.421374
0.412115
0.403304
0.395465
0.387802
0.379714
0.371403
0.36298
0.354573
0.345782
0.336882
0.331028
0.323644
0.315057
0.307869
0.298478
0.289873
0.281823
0.274137
0.266701
0.259429
0.25225
0.244962
0.237627
0.230224
0.222681
0.214866
0.2065
0.197081
0.191345
0.182593
0.174085
0.166014
0.158069
0.149957
0.141436
0.132455
0.122997
0.113053
0.102702
0.0917358
0.080189
0.0732403
0.0629689
0.0527671
0.0427304
0.0326901
0.022556
0.0122767
0.00187833
-0.00843489
-0.0184678
-0.0278278
-0.0355923
-0.0390775
-0.0350368
-0.0350368
0
0
0.464292
0.444014
0.427266
0.413278
0.401734
0.449864
0.383356
0.373969
0.365586
0.357882
0.350982
0.345428
0.339217
0.333066
0.327418
0.322262
0.316275
0.309473
0.30196
0.294453
0.28712
0.279777
0.272403
0.265034
0.257712
0.250215
0.242781
0.235316
0.227744
0.220027
0.212405
0.205593
0.193579
0.185206
0.177235
0.169156
0.160908
0.152402
0.143576
0.134408
0.124904
0.118521
0.104767
0.0941794
0.0838108
0.0750796
0.0653639
0.0552222
0.0450017
0.0348007
0.0246684
0.0146479
0.00467705
-0.00497085
-0.0141802
-0.023099
-0.0326971
-0.0450878
-0.017917
-0.017917
0
0
0.463918
0.442503
0.423952
0.407842
0.393757
0.38089
0.370257
0.360519
0.351666
0.343697
0.337007
0.33491
0.329489
0.324295
0.317987
0.0984897
0.311264
0.305609
0.300199
0.294033
0.287801
0.280979
0.273827
0.266462
0.238313
0.251587
0.244447
0.237171
0.22976
0.222132
0.214272
0.206163
0.196215
0.187177
0.178662
0.170245
0.161741
0.153037
0.144076
0.134839
0.125325
0.11552
0.105555
0.09548
0.0855696
0.0760364
0.066312
0.0563353
0.046227
0.0361121
0.026127
0.0164999
0.00685326
-0.00233235
-0.0110083
-0.0192709
-0.0275952
-0.0386584
-0.035075
-0.035075
0
0
0.463671
0.441508
0.421784
0.404226
0.388517
0.374307
0.361906
0.350901
0.341061
0.331979
0.321769
0.330334
0.321885
0.317001
0.313158
0.311566
0.309323
0.304434
0.298881
0.292754
0.287163
0.280506
0.273528
0.266431
0.259727
0.252392
0.245114
0.23792
0.23072
0.223206
0.214808
0.206101
0.197052
0.188154
0.179451
0.170787
0.162084
0.153245
0.144204
0.134946
0.125479
0.115824
0.106054
0.0962351
0.0864568
0.0767239
0.0669386
0.0570426
0.0470527
0.0370353
0.0270305
0.0180468
0.00852144
-0.00037042
-0.00889523
-0.0172622
-0.0259084
-0.0353642
-0.0428932
-0.0428932
0
0
0.463504
0.440835
0.420317
0.401791
0.385035
0.3699
0.356405
0.344455
0.333978
0.324933
0.31766
0.317523
0.314104
0.311058
0.308389
0.30681
0.3045
0.300861
0.296411
0.291609
0.285066
0.278832
0.272275
0.265259
0.259447
0.252114
0.24503
0.238128
0.231397
0.247705
0.21504
0.206
0.197289
0.18863
0.179985
0.176497
0.162465
0.153511
0.144399
0.135124
0.125701
0.116154
0.106501
0.0967935
0.0870679
0.0773222
0.0675447
0.0577122
0.0478202
0.0379358
0.0280279
-0.000669583
0.00973238
0.00117206
-0.0073822
-0.0159526
-0.0248112
-0.0343045
-0.0445615
-0.0445615
0
0
0.46339
0.440374
0.419302
0.400123
0.382648
0.366826
0.352659
0.340154
0.329387
0.320541
0.314065
0.310613
0.307971
0.306148
0.303534
0.301733
0.299667
0.29679
0.293142
0.289123
0.283242
0.277322
0.271008
0.264388
0.258016
0.251182
0.244415
0.237824
0.231204
0.224465
0.213872
0.205837
0.197623
0.189102
0.180417
0.17164
0.169986
0.153909
0.144731
0.135432
0.126031
0.11658
0.106982
0.0973184
0.0876272
0.0779204
0.0682051
0.0584658
0.0486931
0.0391374
0.0299494
0.0212496
0.0118607
0.00278022
-0.00605579
-0.0148376
-0.0238568
-0.033503
-0.0442067
-0.0442067
0
0
0.463314
0.440074
0.418684
0.398934
0.380946
0.364659
0.350067
0.337239
0.326307
0.317461
0.310896
0.306487
0.303687
0.302467
0.299052
0.297607
0.295831
0.293272
0.290142
0.286214
0.281346
0.275771
0.269667
0.263194
0.256543
0.249772
0.24323
0.236975
0.23025
0.221207
0.216335
0.207806
0.19885
0.189912
0.180991
0.172058
0.163088
0.154198
0.145115
0.135806
0.126368
0.117181
0.107557
0.0978828
0.0882081
0.0785491
0.0689251
0.0593079
0.0495759
0.0402443
0.0312562
0.0224077
0.0132463
0.00412947
-0.0048277
-0.013732
-0.0228586
-0.0325788
-0.0433548
-0.0433548
0
0
0.463263
0.439868
0.418215
0.398067
0.379758
0.36315
0.348273
0.335226
0.324158
0.315186
0.308394
0.303523
0.300004
0.296681
0.297215
0.295614
0.293351
0.290525
0.287801
0.284198
0.279602
0.274209
0.268195
0.261685
0.254793
0.247736
0.241101
0.235356
0.23138
0.223815
0.216616
0.208347
0.199554
0.19057
0.181538
0.172531
0.163533
0.154708
0.14565
0.136214
0.126237
0.118436
0.108301
0.0985172
0.0888239
0.0791903
0.0696519
0.0601899
0.0503162
0.041169
0.0322437
0.0232943
0.0142222
0.00520529
-0.00370257
-0.0125919
-0.0217969
-0.0315266
-0.0423484
-0.0423484
0
0
0.463231
0.439746
0.418049
0.397267
0.378901
0.362103
0.347029
0.333818
0.322611
0.313541
0.306546
0.301444
0.297813
0.295222
0.294315
0.292978
0.290868
0.287836
0.286109
0.282672
0.278066
0.272672
0.266633
0.259966
0.252628
0.244602
0.236338
0.228837
0.237358
0.228826
0.219152
0.20979
0.200517
0.191239
0.182005
0.172994
0.163728
0.155282
0.146386
0.137007
0.12741
0.118521
0.10889
0.0991679
0.0894516
0.0797865
0.0702459
0.0609646
0.0509217
0.0420969
0.0332428
0.0242653
0.0150301
0.0061218
-0.00264223
-0.0112913
-0.0207636
-0.0303013
-0.0411336
-0.0411336
0
0
0.463206
0.439598
0.417636
0.397113
0.378411
0.361414
0.346181
0.332843
0.321538
0.312353
0.305239
0.300033
0.296425
0.294055
0.292572
0.291123
0.289077
0.285604
0.285246
0.281284
0.276456
0.27108
0.265062
0.258257
0.250343
0.24038
0.225201
0.195698
0.27105
0.239521
0.223671
0.212074
0.201735
0.191823
0.182149
0.172785
0.163833
0.155798
0.147378
0.138191
0.128681
0.119214
0.109594
0.0998794
0.0900968
0.0803045
0.0704571
0.0605755
0.0523672
0.0434055
0.0344395
0.0257207
0.0154381
0.0069428
-0.00171797
-0.0102677
-0.0192224
-0.0286282
-0.0394121
-0.0394121
0
0
0.463217
0.439491
0.417417
0.39694
0.378133
0.360992
0.34562
0.332181
0.320811
0.311571
0.304365
0.299079
0.295457
0.293106
0.291511
0.29015
0.288854
0.288279
0.282124
0.278461
0.274397
0.269497
0.263741
0.257059
0.249222
0.239743
0.228237
0.218703
0.240245
0.234063
0.223399
0.212515
0.201971
0.19169
0.181571
0.171703
0.162576
0.155319
0.14908
0.140257
0.130523
0.120632
0.110732
0.100833
0.0908716
0.0809735
0.0710993
0.0614044
0.052514
0.0441816
0.0353144
0.0262671
0.0168031
0.00811192
-0.00103701
-0.00919343
-0.0174591
-0.0262255
-0.0365994
-0.0365994
0
0
0.463295
0.439419
0.417319
0.396884
0.378055
0.360702
0.345198
0.331714
0.320354
0.311142
0.303814
0.298413
0.29474
0.292394
0.290817
0.289483
0.28807
0.286269
0.282231
0.278152
0.273777
0.268824
0.263168
0.256749
0.249539
0.241663
0.23383
0.229019
0.230752
0.226944
0.219473
0.210374
0.200608
0.190498
0.180037
0.169176
0.158152
0.149539
0.155026
0.145177
0.133841
0.122901
0.11234
0.102042
0.0917993
0.081797
0.0718883
0.062077
0.0526103
0.0449615
0.0359266
0.0268051
0.0180848
0.0106276
-0.00180522
-0.00836942
-0.0155411
-0.0228399
-0.0314707
-0.0314707
0
0
0.463035
0.439551
0.417462
0.397034
0.378334
0.350067
0.344676
0.331344
0.320125
0.311081
0.303471
0.2979
0.29418
0.291904
0.290415
0.289051
0.287394
0.28523
0.282055
0.278208
0.273801
0.268825
0.263265
0.257148
0.250612
0.244056
0.262832
0.232467
0.229107
0.223653
0.216391
0.207956
0.198752
0.188872
0.178072
0.165579
0.148507
0.115784
0.187926
0.155832
0.13855
0.125545
0.114006
0.103129
0.0928401
0.0827025
0.0727775
0.0629228
0.0528773
0.0456593
0.0360403
0.0269384
0.018383
0.0100406
-3.38981e-05
-0.0248112
-0.0139244
-0.0190655
-0.0211738
0
0
0
0.463114
0.438793
0.417296
0.397063
0.378526
0.360548
0.344793
0.331316
0.320183
0.311485
0.303142
0.29747
0.293778
0.291743
0.290451
0.289039
0.287144
0.285056
0.282157
0.278462
0.27411
0.269184
0.263734
0.257843
0.251682
0.245542
0.23941
0.232962
0.229085
0.222164
0.214401
0.20612
0.197263
0.186839
0.177125
0.165183
0.151532
0.13983
0.159467
0.134946
0.138519
0.126365
0.114826
0.103883
0.0934703
0.0833955
0.0737072
0.0645721
0.0559922
0.0435401
0.0348577
0.0264255
0.0180458
0.00970243
0.00133464
-0.00617172
-0.0136982
-0.0212691
-0.0303707
-0.0303707
0
0
0.463147
0.439423
0.417107
0.397075
0.378809
0.360159
0.344601
0.331272
0.320215
0.312043
0.302624
0.297418
0.293806
0.29235
0.29131
0.289668
0.287339
0.285605
0.282703
0.278964
0.274612
0.269738
0.264365
0.258564
0.252476
0.246472
0.24217
0.237129
0.227492
0.220211
0.212803
0.20491
0.196566
0.187606
0.177845
0.167568
0.157728
0.150959
0.15034
0.144708
0.135478
0.125026
0.114317
0.103815
0.0936152
0.0836692
0.0740407
0.0647023
0.0552496
0.0445217
0.0350294
0.0261973
0.0177013
0.00941681
0.00125728
-0.00681466
-0.0153238
-0.0247616
-0.0358193
-0.0358193
0
0
0.463168
0.4395
0.417556
0.396351
0.376436
0.36055
0.345136
0.331426
0.319645
0.309
0.304573
0.299272
0.294874
0.332244
0.293343
0.290979
0.287963
0.286705
0.28339
0.2795
0.275191
0.27041
0.265081
0.259234
0.25276
0.244787
0.246236
0.237516
0.228692
0.220519
0.212553
0.204586
0.19663
0.188282
0.179351
0.170311
0.161877
0.154797
0.1485
0.141303
0.132762
0.123285
0.113113
0.103141
0.0932935
0.0834882
0.073872
0.0643719
0.0547647
0.0448652
0.0351898
0.026018
0.0173171
0.00893643
0.00053534
-0.00798332
-0.0170978
-0.027264
-0.0385629
-0.0385629
0
0
0.463167
0.439473
0.417346
0.396429
0.377042
0.360163
0.344795
0.331233
0.319783
0.310728
0.304773
0.300173
0.357307
0.296748
0.294288
0.292095
0.2907
0.286241
0.283168
0.279773
0.275806
0.271255
0.265957
0.260135
0.253876
0.247368
0.243831
0.237043
0.22909
0.220868
0.212585
0.20443
0.196862
0.189637
0.18125
0.17276
0.164406
0.156424
0.148416
0.140129
0.131438
0.122566
0.111456
0.102155
0.0926223
0.0829547
0.0734414
0.0639817
0.0544844
0.0447816
0.0348955
0.025566
0.0167193
0.0082064
-0.000371861
-0.00903601
-0.0184101
-0.0289853
-0.0402631
-0.0402631
0
0
0.463167
0.439464
0.417312
0.396631
0.377563
0.360305
0.344602
0.330992
0.319742
0.312688
0.306142
0.301801
0.30021
0.29415
0.292616
0.291554
0.290108
0.287283
0.284217
0.280791
0.276909
0.272518
0.267055
0.26126
0.255294
0.249292
0.243531
0.236726
0.22907
0.220868
0.212231
0.20334
0.195274
0.192656
0.183753
0.175493
0.166498
0.157635
0.148807
0.139896
0.130816
0.121422
0.11115
0.101349
0.0722944
0.0821951
0.0729221
0.0635841
0.0542496
0.0445245
0.0208246
0.0248187
0.0158921
-0.0168582
-0.00133063
-0.00979209
-0.0191901
-0.0303598
-0.0415609
-0.0415609
0
0
0.463174
0.439494
0.417402
0.396905
0.378086
0.360874
0.344358
0.33045
0.317024
0.317367
0.308026
0.302884
0.299822
0.296275
0.2942
0.292675
0.290673
0.288367
0.285512
0.282136
0.27834
0.274203
0.268193
0.262474
0.256697
0.250671
0.244242
0.230224
0.229292
0.220947
0.211598
0.200316
0.182522
0.206194
0.186751
0.180341
0.168732
0.1588
0.149334
0.139996
0.130576
0.120794
0.110889
0.101216
0.0918174
0.0821227
0.0725693
0.0631512
0.053979
0.0446684
0.033422
0.0246354
0.0159498
0.00746866
-0.00148671
-0.0101902
-0.0193958
-0.0316041
-0.0424667
-0.0424667
0
0
0.463185
0.439541
0.417534
0.397226
0.378835
0.363054
0.343241
0.330982
0.319754
0.314508
0.308247
0.303485
0.30021
0.297751
0.296108
0.295103
0.291568
0.289723
0.286968
0.28359
0.279773
0.275941
0.26924
0.263977
0.258366
0.252189
0.245541
0.238107
0.230319
0.221875
0.212191
0.202009
0.191938
0.195794
0.187201
0.179148
0.16923
0.15931
0.149631
0.14012
0.130568
0.120414
0.110532
0.100908
0.0913866
0.081757
0.0721057
0.0624432
0.0399506
0.0444927
0.032503
0.0246702
0.0157443
0.00678449
-0.00225821
-0.0110349
-0.0194805
-0.032328
-0.0423569
-0.0423569
0
0
0.463195
0.439576
0.417624
0.3974
0.379023
0.362527
0.346121
0.332658
0.321867
0.314251
0.308317
0.303991
0.301034
0.299069
0.297723
0.296495
0.293945
0.291561
0.288667
0.285102
0.280731
0.275023
0.27224
0.266732
0.260568
0.253884
0.246697
0.239622
0.231962
0.224357
0.213054
0.205095
0.197663
0.192692
0.185573
0.17745
0.168399
0.158968
0.149471
0.140053
0.130648
0.11994
0.110159
0.100625
0.0910609
0.0814045
0.0716729
0.0618547
0.0518474
0.0412264
0.0362119
0.0251629
0.0154418
0.0060194
-0.00347828
-0.0133529
-0.0235209
-0.0284624
-0.0402339
-0.0402339
0
0
0.463194
0.439575
0.417639
0.397458
0.379105
0.362625
0.348005
0.334025
0.323201
0.315129
0.309218
0.305088
0.302379
0.300643
0.299451
0.298255
0.29633
0.293837
0.290738
0.287015
0.282745
0.277729
0.265062
0.268077
0.262156
0.255393
0.248214
0.240898
0.233267
0.225317
0.215979
0.207785
0.200155
0.192761
0.184925
0.176538
0.167649
0.158424
0.149027
0.13964
0.130534
0.119393
0.110055
0.100589
0.0909336
0.0811801
0.0713683
0.0615085
0.0516421
0.0421057
0.0342868
0.0246805
0.0150088
0.00548118
-0.00398415
-0.0134226
-0.0225529
-0.0302709
-0.0408496
-0.0408496
0
0
0.463174
0.439505
0.417548
0.39742
0.379153
0.362894
0.349319
0.334619
0.324431
0.316684
0.310891
0.306879
0.304291
0.302647
0.301539
0.300573
0.298713
0.296125
0.29291
0.289123
0.285041
0.280387
0.275456
0.269806
0.263654
0.256695
0.249578
0.24223
0.234569
0.226543
0.218128
0.209864
0.201733
0.19351
0.185064
0.176325
0.167295
0.158006
0.148467
0.138564
0.128145
0.12071
0.110868
0.100866
0.0909404
0.0810523
0.0711836
0.0613498
0.0516247
0.0421885
0.033119
0.0238068
0.0144023
0.00507597
-0.00409336
-0.0129768
-0.0226827
-0.0315742
-0.0420106
-0.0420106
0
0
0.463114
0.439299
0.417314
0.397301
0.379075
0.362449
0.346635
0.337076
0.327237
0.319754
0.313265
0.30924
0.306724
0.305103
0.303782
0.303106
0.300948
0.298256
0.295089
0.291334
0.287615
0.282995
0.277686
0.271561
0.22541
0.257798
0.251046
0.243787
0.23611
0.228094
0.219846
0.211488
0.203027
0.194387
0.185544
0.176497
0.167257
0.157834
0.148225
0.138441
0.128701
0.119897
0.110426
0.100639
0.0907699
0.080877
0.0709997
0.0611714
0.0514291
0.0418423
0.032399
0.0230503
0.0137834
0.00464685
-0.00436173
-0.0133397
-0.0227735
-0.0322702
-0.0428299
-0.0428299
0
0
0.462994
0.438793
0.423202
0.397274
0.37926
0.36304
0.348699
0.337823
0.328598
0.321139
0.315589
0.311843
0.30961
0.308657
0.305348
0.304935
0.302408
0.292297
0.297531
0.294029
0.290651
0.285829
0.280334
0.274442
0.268208
0.260912
0.253456
0.245815
0.237935
0.229808
0.221474
0.212961
0.204258
0.195315
0.186164
0.176853
0.167413
0.157858
0.148215
0.138537
0.128933
0.119456
0.109871
0.100193
0.0904427
0.0806015
0.0707425
0.0609041
0.0510759
0.0413497
0.0317824
0.0223914
0.0131757
0.0041437
-0.00481842
-0.0138552
-0.0231053
-0.0327475
-0.0420106
-0.0433209
0
0
0.462968
0.437365
0.415982
0.39684
0.379528
0.36406
0.350663
0.339624
0.330591
0.32349
0.318291
0.314815
0.312678
0.311161
0.307891
0.0968946
0.30325
0.30322
0.301499
0.298833
0.293677
0.288635
0.283179
0.27733
0.270286
0.263055
0.25559
0.247855
0.239846
0.231586
0.223108
0.214431
0.205523
0.196286
0.186839
0.177287
0.167661
0.157966
0.148243
0.138535
0.128863
0.119077
0.10933
0.0996924
0.0900509
0.0802394
0.0704073
0.0605794
0.0506398
0.0407988
0.031179
0.0217716
0.0125733
0.00361589
-0.00533547
-0.0143923
-0.0236445
-0.0390775
-0.0439463
-0.0439463
0
0
0.465154
0.433959
0.415302
0.397104
0.380423
0.365583
0.352818
0.342146
0.333412
0.326636
0.321749
0.31853
0.316585
0.315396
0.314505
0.315835
0.313316
0.31042
0.307085
0.303124
0.298032
0.292456
0.286498
0.280388
0.272547
0.265374
0.257883
0.250014
0.241849
0.233419
0.224777
0.215947
0.206869
0.197267
0.187508
0.177739
0.167943
0.158079
0.148182
0.138333
0.128566
0.11849
0.108624
0.0990858
0.0896037
0.0797676
0.0700011
0.060279
0.0502014
0.0402691
0.0306467
0.0212359
0.0120143
0.00312091
-0.0136727
-0.0149206
-0.0240191
-0.033635
-0.0501766
-0.0444453
0
0
0.463311
0.437865
0.41699
0.398485
0.382079
0.36766
0.355428
0.345413
0.33711
0.330739
0.326196
0.323236
0.321507
0.320679
0.32022
0.32008
0.318441
0.315691
0.312051
0.30759
0.302319
0.296323
0.289639
0.282066
0.276095
0.268547
0.260547
0.252306
0.243938
0.235287
0.226456
0.217501
0.208321
0.19817
0.188109
0.178201
0.168274
0.158207
0.147925
0.137787
0.127924
0.117419
0.10751
0.0982054
0.0890185
0.0790735
0.0695088
0.0601416
0.0498966
0.0399506
0.0303982
0.020972
0.0116309
0.00296916
-0.00611194
-0.0153096
-0.024481
-0.0340315
-0.0444742
-0.0444742
0
0
0.46325
0.439652
0.418788
0.400359
0.378055
0.370183
0.358155
0.349767
0.341894
0.336003
0.331829
0.329066
0.327335
0.293106
0.325797
0.325216
0.323556
0.320754
0.316915
0.312175
0.306661
0.300269
0.29322
0.285777
0.27863
0.270955
0.262832
0.254328
0.246106
0.237096
0.228048
0.218976
0.209861
0.198797
0.188662
0.178763
0.168762
0.158649
0.147242
0.136611
0.12633
0.115393
0.105712
0.0967151
0.0880353
0.0779615
0.0689019
0.0603528
0.0500276
0.040296
0.0308533
0.021311
0.0115858
0.0027396
-0.0067437
-0.0159716
-0.0251382
-0.0346657
-0.0450751
-0.0450751
0
0
0.463443
0.440617
0.420284
0.402436
0.387055
0.373892
0.362973
0.354772
0.347924
0.342647
0.338849
0.336222
0.33464
0.333997
0.333042
0.331674
0.329469
0.326237
0.321999
0.3169
0.311103
0.304168
0.296719
0.289077
0.281339
0.273343
0.26503
0.256412
0.247705
0.238632
0.229345
0.220018
0.211034
0.199158
0.189479
0.179619
0.169345
0.15867
0.147101
0.134894
0.00164015
0.11226
0.103133
0.0938575
0.0856801
0.0765995
0.0682049
0.060693
0.0515266
0.0423194
0.0326174
0.022663
0.0127572
0.00166568
-0.00773429
-0.0168791
-0.0260096