# vtk DataFile Version 2.0
FlowField
ASCII
DATASET STRUCTURED_GRID
DIMENSIONS 62 47 32 
POINTS 93248 double
0 0 0
0.01 0 0
0.02 0 0
0.03 0 0
0.04 0 0
0.05 0 0
0.06 0 0
0.07 0 0
0.08 0 0
0.09 0 0
0.1 0 0
0.11 0 0
0.12 0 0
0.13 0 0
0.14 0 0
0.15 0 0
0.16 0 0
0.17 0 0
0.18 0 0
0.19 0 0
0.2 0 0
0.21 0 0
0.22 0 0
0.23 0 0
0.24 0 0
0.25 0 0
0.26 0 0
0.27 0 0
0.28 0 0
0.29 0 0
0.3 0 0
0.31 0 0
0.32 0 0
0.33 0 0
0.34 0 0
0.35 0 0
0.36 0 0
0.37 0 0
0.38 0 0
0.39 0 0
0.4 0 0
0.41 0 0
0.42 0 0
0.43 0 0
0.44 0 0
0.45 0 0
0.46 0 0
0.47 0 0
0.48 0 0
0.49 0 0
0.5 0 0
0.51 0 0
0.52 0 0
0.53 0 0
0.54 0 0
0.55 0 0
0.56 0 0
0.57 0 0
0.58 0 0
0.59 0 0
0.6 0 0
0.61 0 0
0 0.01 0
0.01 0.01 0
0.02 0.01 0
0.03 0.01 0
0.04 0.01 0
0.05 0.01 0
0.06 0.01 0
0.07 0.01 0
0.08 0.01 0
0.09 0.01 0
0.1 0.01 0
0.11 0.01 0
0.12 0.01 0
0.13 0.01 0
0.14 0.01 0
0.15 0.01 0
0.16 0.01 0
0.17 0.01 0
0.18 0.01 0
0.19 0.01 0
0.2 0.01 0
0.21 0.01 0
0.22 0.01 0
0.23 0.01 0
0.24 0.01 0
0.25 0.01 0
0.26 0.01 0
0.27 0.01 0
0.28 0.01 0
0.29 0.01 0
0.3 0.01 0
0.31 0.01 0
0.32 0.01 0
0.33 0.01 0
0.34 0.01 0
0.35 0.01 0
0.36 0.01 0
0.37 0.01 0
0.38 0.01 0
0.39 0.01 0
0.4 0.01 0
0.41 0.01 0
0.42 0.01 0
0.43 0.01 0
0.44 0.01 0
0.45 0.01 0
0.46 0.01 0
0.47 0.01 0
0.48 0.01 0
0.49 0.01 0
0.5 0.01 0
0.51 0.01 0
0.52 0.01 0
0.53 0.01 0
0.54 0.01 0
0.55 0.01 0
0.56 0.01 0
0.57 0.01 0
0.58 0.01 0
0.59 0.01 0
0.6 0.01 0
0.61 0.01 0
0 0.02 0
0.01 0.02 0
0.02 0.02 0
0.03 0.02 0
0.04 0.02 0
0.05 0.02 0
0.06 0.02 0
0.07 0.02 0
0.08 0.02 0
0.09 0.02 0
0.1 0.02 0
0.11 0.02 0
0.12 0.02 0
0.13 0.02 0
0.14 0.02 0
0.15 0.02 0
0.16 0.02 0
0.17 0.02 0
0.18 0.02 0
0.19 0.02 0
0.2 0.02 0
0.21 0.02 0
0.22 0.02 0
0.23 0.02 0
0.24 0.02 0
0.25 0.02 0
0.26 0.02 0
0.27 0.02 0
0.28 0.02 0
0.29 0.02 0
0.3 0.02 0
0.31 0.02 0
0.32 0.02 0
0.33 0.02 0
0.34 0.02 0
0.35 0.02 0
0.36 0.02 0
0.37 0.02 0
0.38 0.02 0
0.39 0.02 0
0.4 0.02 0
0.41 0.02 0
0.42 0.02 0
0.43 0.02 0
0.44 0.02 0
0.45 0.02 0
0.46 0.02 0
0.47 0.02 0
0.48 0.02 0
0.49 0.02 0
0.5 0.02 0
0.51 0.02 0
0.52 0.02 0
0.53 0.02 0
0.54 0.02 0
0.55 0.02 0
0.56 0.02 0
0.57 0.02 0
0.58 0.02 0
0.59 0.02 0
0.6 0.02 0
0.61 0.02 0
0 0.03 0
0.01 0.03 0
0.02 0.03 0
0.03 0.03 0
0.04 0.03 0
0.05 0.03 0
0.06 0.03 0
0.07 0.03 0
0.08 0.03 0
0.09 0.03 0
0.1 0.03 0
0.11 0.03 0
0.12 0.03 0
0.13 0.03 0
0.14 0.03 0
0.15 0.03 0
0.16 0.03 0
0.17 0.03 0
0.18 0.03 0
0.19 0.03 0
0.2 0.03 0
0.21 0.03 0
0.22 0.03 0
0.23 0.03 0
0.24 0.03 0
0.25 0.03 0
0.26 0.03 0
0.27 0.03 0
0.28 0.03 0
0.29 0.03 0
0.3 0.03 0
0.31 0.03 0
0.32 0.03 0
0.33 0.03 0
0.34 0.03 0
0.35 0.03 0
0.36 0.03 0
0.37 0.03 0
0.38 0.03 0
0.39 0.03 0
0.4 0.03 0
0.41 0.03 0
0.42 0.03 0
0.43 0.03 0
0.44 0.03 0
0.45 0.03 0
0.46 0.03 0
0.47 0.03 0
0.48 0.03 0
0.49 0.03 0
0.5 0.03 0
0.51 0.03 0
0.52 0.03 0
0.53 0.03 0
0.54 0.03 0
0.55 0.03 0
0.56 0.03 0
0.57 0.03 0
0.58 0.03 0
0.59 0.03 0
0.6 0.03 0
0.61 0.03 0
0 0.04 0
0.01 0.04 0
0.02 0.04 0
0.03 0.04 0
0.04 0.04 0
0.05 0.04 0
0.06 0.04 0
0.07 0.04 0
0.08 0.04 0
0.09 0.04 0
0.1 0.04 0
0.11 0.04 0
0.12 0.04 0
0.13 0.04 0
0.14 0.04 0
0.15 0.04 0
0.16 0.04 0
0.17 0.04 0
0.18 0.04 0
0.19 0.04 0
0.2 0.04 0
0.21 0.04 0
0.22 0.04 0
0.23 0.04 0
0.24 0.04 0
0.25 0.04 0
0.26 0.04 0
0.27 0.04 0
0.28 0.04 0
0.29 0.04 0
0.3 0.04 0
0.31 0.04 0
0.32 0.04 0
0.33 0.04 0
0.34 0.04 0
0.35 0.04 0
0.36 0.04 0
0.37 0.04 0
0.38 0.04 0
0.39 0.04 0
0.4 0.04 0
0.41 0.04 0
0.42 0.04 0
0.43 0.04 0
0.44 0.04 0
0.45 0.04 0
0.46 0.04 0
0.47 0.04 0
0.48 0.04 0
0.49 0.04 0
0.5 0.04 0
0.51 0.04 0
0.52 0.04 0
0.53 0.04 0
0.54 0.04 0
0.55 0.04 0
0.56 0.04 0
0.57 0.04 0
0.58 0.04 0
0.59 0.04 0
0.6 0.04 0
0.61 0.04 0
0 0.05 0
0.01 0.05 0
0.02 0.05 0
0.03 0.05 0
0.04 0.05 0
0.05 0.05 0
0.06 0.05 0
0.07 0.05 0
0.08 0.05 0
0.09 0.05 0
0.1 0.05 0
0.11 0.05 0
0.12 0.05 0
0.13 0.05 0
0.14 0.05 0
0.15 0.05 0
0.16 0.05 0
0.17 0.05 0
0.18 0.05 0
0.19 0.05 0
0.2 0.05 0
0.21 0.05 0
0.22 0.05 0
0.23 0.05 0
0.24 0.05 0
0.25 0.05 0
0.26 0.05 0
0.27 0.05 0
0.28 0.05 0
0.29 0.05 0
0.3 0.05 0
0.31 0.05 0
0.32 0.05 0
0.33 0.05 0
0.34 0.05 0
0.35 0.05 0
0.36 0.05 0
0.37 0.05 0
0.38 0.05 0
0.39 0.05 0
0.4 0.05 0
0.41 0.05 0
0.42 0.05 0
0.43 0.05 0
0.44 0.05 0
0.45 0.05 0
0.46 0.05 0
0.47 0.05 0
0.48 0.05 0
0.49 0.05 0
0.5 0.05 0
0.51 0.05 0
0.52 0.05 0
0.53 0.05 0
0.54 0.05 0
0.55 0.05 0
0.56 0.05 0
0.57 0.05 0
0.58 0.05 0
0.59 0.05 0
0.6 0.05 0
0.61 0.05 0
0 0.06 0
0.01 0.06 0
0.02 0.06 0
0.03 0.06 0
0.04 0.06 0
0.05 0.06 0
0.06 0.06 0
0.07 0.06 0
0.08 0.06 0
0.09 0.06 0
0.1 0.06 0
0.11 0.06 0
0.12 0.06 0
0.13 0.06 0
0.14 0.06 0
0.15 0.06 0
0.16 0.06 0
0.17 0.06 0
0.18 0.06 0
0.19 0.06 0
0.2 0.06 0
0.21 0.06 0
0.22 0.06 0
0.23 0.06 0
0.24 0.06 0
0.25 0.06 0
0.26 0.06 0
0.27 0.06 0
0.28 0.06 0
0.29 0.06 0
0.3 0.06 0
0.31 0.06 0
0.32 0.06 0
0.33 0.06 0
0.34 0.06 0
0.35 0.06 0
0.36 0.06 0
0.37 0.06 0
0.38 0.06 0
0.39 0.06 0
0.4 0.06 0
0.41 0.06 0
0.42 0.06 0
0.43 0.06 0
0.44 0.06 0
0.45 0.06 0
0.46 0.06 0
0.47 0.06 0
0.48 0.06 0
0.49 0.06 0
0.5 0.06 0
0.51 0.06 0
0.52 0.06 0
0.53 0.06 0
0.54 0.06 0
0.55 0.06 0
0.56 0.06 0
0.57 0.06 0
0.58 0.06 0
0.59 0.06 0
0.6 0.06 0
0.61 0.06 0
0 0.07 0
0.01 0.07 0
0.02 0.07 0
0.03 0.07 0
0.04 0.07 0
0.05 0.07 0
0.06 0.07 0
0.07 0.07 0
0.08 0.07 0
0.09 0.07 0
0.1 0.07 0
0.11 0.07 0
0.12 0.07 0
0.13 0.07 0
0.14 0.07 0
0.15 0.07 0
0.16 0.07 0
0.17 0.07 0
0.18 0.07 0
0.19 0.07 0
0.2 0.07 0
0.21 0.07 0
0.22 0.07 0
0.23 0.07 0
0.24 0.07 0
0.25 0.07 0
0.26 0.07 0
0.27 0.07 0
0.28 0.07 0
0.29 0.07 0
0.3 0.07 0
0.31 0.07 0
0.32 0.07 0
0.33 0.07 0
0.34 0.07 0
0.35 0.07 0
0.36 0.07 0
0.37 0.07 0
0.38 0.07 0
0.39 0.07 0
0.4 0.07 0
0.41 0.07 0
0.42 0.07 0
0.43 0.07 0
0.44 0.07 0
0.45 0.07 0
0.46 0.07 0
0.47 0.07 0
0.48 0.07 0
0.49 0.07 0
0.5 0.07 0
0.51 0.07 0
0.52 0.07 0
0.53 0.07 0
0.54 0.07 0
0.55 0.07 0
0.56 0.07 0
0.57 0.07 0
0.58 0.07 0
0.59 0.07 0
0.6 0.07 0
0.61 0.07 0
0 0.08 0
0.01 0.08 0
0.02 0.08 0
0.03 0.08 0
0.04 0.08 0
0.05 0.08 0
0.06 0.08 0
0.07 0.08 0
0.08 0.08 0
0.09 0.08 0
0.1 0.08 0
0.11 0.08 0
0.12 0.08 0
0.13 0.08 0
0.14 0.08 0
0.15 0.08 0
0.16 0.08 0
0.17 0.08 0
0.18 0.08 0
0.19 0.08 0
0.2 0.08 0
0.21 0.08 0
0.22 0.08 0
0.23 0.08 0
0.24 0.08 0
0.25 0.08 0
0.26 0.08 0
0.27 0.08 0
0.28 0.08 0
0.29 0.08 0
0.3 0.08 0
0.31 0.08 0
0.32 0.08 0
0.33 0.08 0
0.34 0.08 0
0.35 0.08 0
0.36 0.08 0
0.37 0.08 0
0.38 0.08 0
0.39 0.08 0
0.4 0.08 0
0.41 0.08 0
0.42 0.08 0
0.43 0.08 0
0.44 0.08 0
0.45 0.08 0
0.46 0.08 0
0.47 0.08 0
0.48 0.08 0
0.49 0.08 0
0.5 0.08 0
0.51 0.08 0
0.52 0.08 0
0.53 0.08 0
0.54 0.08 0
0.55 0.08 0
0.56 0.08 0
0.57 0.08 0
0.58 0.08 0
0.59 0.08 0
0.6 0.08 0
0.61 0.08 0
0 0.09 0
0.01 0.09 0
0.02 0.09 0
0.03 0.09 0
0.04 0.09 0
0.05 0.09 0
0.06 0.09 0
0.07 0.09 0
0.08 0.09 0
0.09 0.09 0
0.1 0.09 0
0.11 0.09 0
0.12 0.09 0
0.13 0.09 0
0.14 0.09 0
0.15 0.09 0
0.16 0.09 0
0.17 0.09 0
0.18 0.09 0
0.19 0.09 0
0.2 0.09 0
0.21 0.09 0
0.22 0.09 0
0.23 0.09 0
0.24 0.09 0
0.25 0.09 0
0.26 0.09 0
0.27 0.09 0
0.28 0.09 0
0.29 0.09 0
0.3 0.09 0
0.31 0.09 0
0.32 0.09 0
0.33 0.09 0
0.34 0.09 0
0.35 0.09 0
0.36 0.09 0
0.37 0.09 0
0.38 0.09 0
0.39 0.09 0
0.4 0.09 0
0.41 0.09 0
0.42 0.09 0
0.43 0.09 0
0.44 0.09 0
0.45 0.09 0
0.46 0.09 0
0.47 0.09 0
0.48 0.09 0
0.49 0.09 0
0.5 0.09 0
0.51 0.09 0
0.52 0.09 0
0.53 0.09 0
0.54 0.09 0
0.55 0.09 0
0.56 0.09 0
0.57 0.09 0
0.58 0.09 0
0.59 0.09 0
0.6 0.09 0
0.61 0.09 0
0 0.1 0
0.01 0.1 0
0.02 0.1 0
0.03 0.1 0
0.04 0.1 0
0.05 0.1 0
0.06 0.1 0
0.07 0.1 0
0.08 0.1 0
0.09 0.1 0
0.1 0.1 0
0.11 0.1 0
0.12 0.1 0
0.13 0.1 0
0.14 0.1 0
0.15 0.1 0
0.16 0.1 0
0.17 0.1 0
0.18 0.1 0
0.19 0.1 0
0.2 0.1 0
0.21 0.1 0
0.22 0.1 0
0.23 0.1 0
0.24 0.1 0
0.25 0.1 0
0.26 0.1 0
0.27 0.1 0
0.28 0.1 0
0.29 0.1 0
0.3 0.1 0
0.31 0.1 0
0.32 0.1 0
0.33 0.1 0
0.34 0.1 0
0.35 0.1 0
0.36 0.1 0
0.37 0.1 0
0.38 0.1 0
0.39 0.1 0
0.4 0.1 0
0.41 0.1 0
0.42 0.1 0
0.43 0.1 0
0.44 0.1 0
0.45 0.1 0
0.46 0.1 0
0.47 0.1 0
0.48 0.1 0
0.49 0.1 0
0.5 0.1 0
0.51 0.1 0
0.52 0.1 0
0.53 0.1 0
0.54 0.1 0
0.55 0.1 0
0.56 0.1 0
0.57 0.1 0
0.58 0.1 0
0.59 0.1 0
0.6 0.1 0
0.61 0.1 0
0 0.11 0
0.01 0.11 0
0.02 0.11 0
0.03 0.11 0
0.04 0.11 0
0.05 0.11 0
0.06 0.11 0
0.07 0.11 0
0.08 0.11 0
0.09 0.11 0
0.1 0.11 0
0.11 0.11 0
0.12 0.11 0
0.13 0.11 0
0.14 0.11 0
0.15 0.11 0
0.16 0.11 0
0.17 0.11 0
0.18 0.11 0
0.19 0.11 0
0.2 0.11 0
0.21 0.11 0
0.22 0.11 0
0.23 0.11 0
0.24 0.11 0
0.25 0.11 0
0.26 0.11 0
0.27 0.11 0
0.28 0.11 0
0.29 0.11 0
0.3 0.11 0
0.31 0.11 0
0.32 0.11 0
0.33 0.11 0
0.34 0.11 0
0.35 0.11 0
0.36 0.11 0
0.37 0.11 0
0.38 0.11 0
0.39 0.11 0
0.4 0.11 0
0.41 0.11 0
0.42 0.11 0
0.43 0.11 0
0.44 0.11 0
0.45 0.11 0
0.46 0.11 0
0.47 0.11 0
0.48 0.11 0
0.49 0.11 0
0.5 0.11 0
0.51 0.11 0
0.52 0.11 0
0.53 0.11 0
0.54 0.11 0
0.55 0.11 0
0.56 0.11 0
0.57 0.11 0
0.58 0.11 0
0.59 0.11 0
0.6 0.11 0
0.61 0.11 0
0 0.12 0
0.01 0.12 0
0.02 0.12 0
0.03 0.12 0
0.04 0.12 0
0.05 0.12 0
0.06 0.12 0
0.07 0.12 0
0.08 0.12 0
0.09 0.12 0
0.1 0.12 0
0.11 0.12 0
0.12 0.12 0
0.13 0.12 0
0.14 0.12 0
0.15 0.12 0
0.16 0.12 0
0.17 0.12 0
0.18 0.12 0
0.19 0.12 0
0.2 0.12 0
0.21 0.12 0
0.22 0.12 0
0.23 0.12 0
0.24 0.12 0
0.25 0.12 0
0.26 0.12 0
0.27 0.12 0
0.28 0.12 0
0.29 0.12 0
0.3 0.12 0
0.31 0.12 0
0.32 0.12 0
0.33 0.12 0
0.34 0.12 0
0.35 0.12 0
0.36 0.12 0
0.37 0.12 0
0.38 0.12 0
0.39 0.12 0
0.4 0.12 0
0.41 0.12 0
0.42 0.12 0
0.43 0.12 0
0.44 0.12 0
0.45 0.12 0
0.46 0.12 0
0.47 0.12 0
0.48 0.12 0
0.49 0.12 0
0.5 0.12 0
0.51 0.12 0
0.52 0.12 0
0.53 0.12 0
0.54 0.12 0
0.55 0.12 0
0.56 0.12 0
0.57 0.12 0
0.58 0.12 0
0.59 0.12 0
0.6 0.12 0
0.61 0.12 0
0 0.13 0
0.01 0.13 0
0.02 0.13 0
0.03 0.13 0
0.04 0.13 0
0.05 0.13 0
0.06 0.13 0
0.07 0.13 0
0.08 0.13 0
0.09 0.13 0
0.1 0.13 0
0.11 0.13 0
0.12 0.13 0
0.13 0.13 0
0.14 0.13 0
0.15 0.13 0
0.16 0.13 0
0.17 0.13 0
0.18 0.13 0
0.19 0.13 0
0.2 0.13 0
0.21 0.13 0
0.22 0.13 0
0.23 0.13 0
0.24 0.13 0
0.25 0.13 0
0.26 0.13 0
0.27 0.13 0
0.28 0.13 0
0.29 0.13 0
0.3 0.13 0
0.31 0.13 0
0.32 0.13 0
0.33 0.13 0
0.34 0.13 0
0.35 0.13 0
0.36 0.13 0
0.37 0.13 0
0.38 0.13 0
0.39 0.13 0
0.4 0.13 0
0.41 0.13 0
0.42 0.13 0
0.43 0.13 0
0.44 0.13 0
0.45 0.13 0
0.46 0.13 0
0.47 0.13 0
0.48 0.13 0
[...]
POINT_DATA 93248

SCALARS w double
LOOKUP_TABLE default
0
0
0
0
0
0
0
0
0
0
0
0
0
-0.0883206
0
0
0
0
0
0
0
0
0
0
0
0
-0.213413
0
0
0
0
0
-0.214723
0
0
0
0
0
0
0
0
0
0
0
0
0
-0.188395
0
0
0
0
0
0
0
0
0
0
0
0
0
0
0
0
-0.0254239
-0.0497111
-0.0668066
-0.0772105
-0.0830793
-0.0876662
-0.0913217
-0.0943461
-0.0966027
-0.0978669
-0.0978487
-0.0966673
-0.0975632
-0.0990345
-0.100301
-0.101321
-0.102175
-0.102233
-0.100542
-0.0944053
-0.0953916
-0.0986522
-0.0972175
-0.095975
-0.0951532
-0.0945205
-0.0939512
-0.0933935
-0.0927987
-0.0920584
-0.0909759
-0.0895985
-0.0898308
-0.0898393
-0.0888084
-0.0873106
-0.0886681
-0.0904286
-0.0931733
-0.0869688
-0.0889151
-0.0917766
-0.0939575
-0.0974942
-0.216704
-0.0920285
-0.0906361
-0.0905095
-0.0915835
-0.0928477
-0.0946315
-0.0949713
-0.097695
-0.217736
-0.0955149
-0.0885348
-0.0878366
-0.087588
-0.085593
-0.0817099
0
0
-0.029358
-0.0684633
-0.0928486
-0.111688
-0.126097
-0.142117
-0.15593
-0.167398
-0.176835
-0.184247
-0.189066
-0.190597
-0.194311
-0.197164
-0.199098
-0.200541
-0.201913
-0.202472
-0.202208
-0.190708
-0.193501
-0.257241
-0.194129
-0.190412
-0.188403
-0.186926
-0.185662
-0.184498
-0.18338
-0.182243
-0.180898
-0.178819
-0.179471
-0.179082
-0.177722
-0.178138
-0.177029
-0.177294
-0.179556
-0.178082
-0.180483
-0.182115
-0.184383
-0.189049
-0.195558
-0.190622
-0.183942
-0.181895
-0.181695
-0.183598
-0.217913
-0.186995
-0.189523
-0.194643
-0.188288
-0.18371
-0.176613
-0.172647
-0.165887
-0.156332
0
0
-0.029129
-0.0684371
-0.0953855
-0.117073
-0.0830793
-0.152259
-0.171083
-0.187019
-0.201162
-0.2139
-0.224287
-0.235093
-0.23891
-0.241668
-0.243551
-0.245081
-0.246824
-0.246988
-0.247683
-0.247043
-0.242538
-0.242127
-0.237246
-0.233552
-0.23091
-0.228863
-0.227146
-0.225638
-0.224314
-0.223277
-0.22295
-0.224332
-0.238232
-0.221081
-0.217265
-0.216936
-0.216479
-0.216542
-0.217545
-0.21779
-0.219169
-0.220921
-0.221678
-0.224635
-0.22742
-0.225239
-0.222617
-0.220974
-0.221099
-0.222151
-0.224646
-0.224603
-0.225723
-0.2269
-0.225816
-0.224046
-0.220962
-0.212299
-0.202049
-0.189596
0
0
-0.0285853
-0.067128
-0.0685636
-0.118351
-0.137999
-0.157899
-0.175599
-0.191661
-0.206494
-0.220264
-0.232558
-0.243583
-0.25114
-0.256031
-0.258342
-0.260462
-0.260161
-0.261245
-0.261966
-0.260258
-0.257592
-0.254945
-0.251775
-0.248787
-0.246199
-0.243985
-0.242062
-0.240376
-0.238927
-0.237786
-0.237097
-0.236842
-0.235919
-0.23411
-0.23182
-0.230811
-0.230307
-0.231475
-0.23042
-0.230812
-0.231558
-0.232491
-0.23301
-0.234161
-0.235213
-0.23519
-0.233918
-0.233123
-0.233238
-0.233766
-0.234623
-0.23523
-0.235866
-0.236415
-0.236679
-0.235868
-0.232813
-0.225609
-0.214805
-0.20121
0
0
-0.0284457
-0.0672842
-0.0961223
-0.121109
-0.142047
-0.16099
-0.177982
-0.193573
-0.208072
-0.221499
-0.233677
-0.244299
-0.25268
-0.258053
-0.226661
-0.263657
-0.265072
-0.265134
-0.264587
-0.262567
-0.260018
-0.257241
-0.254461
-0.251816
-0.249383
-0.247202
-0.245238
-0.24348
-0.241938
-0.240624
-0.239486
-0.238232
-0.236328
-0.235436
-0.234486
-0.233672
-0.233065
-0.232696
-0.232545
-0.23265
-0.232938
-0.233288
-0.233523
-0.233826
-0.234258
-0.235366
-0.233921
-0.233671
-0.233927
-0.234355
-0.234878
-0.235475
-0.236095
-0.236719
-0.237168
-0.236592
-0.233712
-0.227111
-0.216163
-0.20234
0
0
-0.0283999
-0.0673801
-0.0973302
-0.122325
-0.143805
-0.162971
-0.179577
-0.19492
-0.209197
-0.222282
-0.233987
-0.244115
-0.252448
-0.258266
-0.260844
-0.263802
-0.26513
-0.258933
-0.26372
-0.26164
-0.258909
-0.256063
-0.253316
-0.250737
-0.248349
-0.246229
-0.244271
-0.242482
-0.240888
-0.239489
-0.238201
-0.236719
-0.234089
-0.234135
-0.233607
-0.232815
-0.232063
-0.231475
-0.231085
-0.230896
-0.23085
-0.230856
-0.230765
-0.230546
-0.229845
-0.228088
-0.229447
-0.230426
-0.231081
-0.231612
-0.232138
-0.232749
-0.233452
-0.234158
-0.234585
-0.233958
-0.230817
-0.223115
-0.209688
-0.197559
0
0
-0.0283496
-0.0673157
-0.0974946
-0.122646
-0.144488
-0.164414
-0.180167
-0.19578
-0.210109
-0.222958
-0.234218
-0.24378
-0.252141
-0.258137
-0.261523
-0.262666
-0.263596
-0.263656
-0.262396
-0.259986
-0.257065
-0.254151
-0.251383
-0.248771
-0.246325
-0.244309
-0.242343
-0.240527
-0.238926
-0.237572
-0.236491
-0.235984
-0.237131
-0.234719
-0.232741
-0.231302
-0.23023
-0.229435
-0.228863
-0.228476
-0.228224
-0.22805
-0.227728
-0.22741
-0.226888
-0.226291
-0.22675
-0.22742
-0.22802
-0.228551
-0.229089
-0.229731
-0.230533
-0.231297
-0.231708
-0.230984
-0.227186
-0.215457
-0.085593
-0.189123
0
0
-0.0282842
-0.0671545
-0.0973116
-0.122469
-0.14432
-0.163898
-0.180786
-0.196369
-0.210574
-0.223186
-0.23385
-0.241954
-0.251276
-0.257466
-0.260504
-0.259438
-0.227227
-0.261995
-0.260828
-0.258315
-0.255183
-0.252307
-0.249559
-0.246888
-0.244264
-0.242491
-0.24046
-0.238608
-0.237041
-0.235795
-0.234807
-0.234105
-0.233693
-0.232284
-0.230726
-0.229368
-0.228249
-0.227376
-0.226721
-0.226238
-0.225879
-0.225594
-0.225291
-0.225023
-0.224778
-0.224657
-0.224825
-0.225174
-0.225588
-0.226021
-0.226502
-0.227123
-0.228096
-0.22895
-0.229459
-0.229069
-0.226598
-0.219868
-0.203372
-0.192989
0
0
-0.0282123
-0.066955
-0.0970113
-0.122087
-0.143855
-0.163273
-0.180632
-0.196392
-0.210605
-0.222996
-0.232533
-0.190597
-0.248394
-0.256103
-0.25974
-0.260131
-0.260019
-0.26042
-0.25911
-0.256644
-0.253396
-0.25077
-0.248057
-0.245315
-0.242595
-0.240578
-0.238614
-0.236831
-0.235367
-0.234312
-0.233338
-0.232256
-0.231082
-0.229774
-0.228492
-0.227349
-0.226301
-0.225454
-0.22481
-0.224318
-0.223937
-0.223633
-0.223384
-0.2232
-0.223097
-0.223105
-0.223226
-0.22345
-0.223741
-0.224069
-0.224436
-0.223457
-0.226236
-0.22722
-0.227857
-0.227745
-0.225879
-0.220525
-0.209303
-0.194052
0
0
-0.0281424
-0.0667545
-0.0966928
-0.12166
-0.143341
-0.162699
-0.180198
-0.196098
-0.21042
-0.222934
-0.233071
-0.239937
-0.249071
-0.25575
-0.259681
-0.260956
-0.260816
-0.259767
-0.257826
-0.255411
-0.253182
-0.249997
-0.246902
-0.24391
-0.237266
-0.238838
-0.236892
-0.235135
-0.233773
-0.233018
-0.232091
-0.230571
-0.228985
-0.227592
-0.226424
-0.225476
-0.224476
-0.223683
-0.223114
-0.222674
-0.22232
-0.222041
-0.221846
-0.221728
-0.221692
-0.221742
-0.221871
-0.222072
-0.222326
-0.2226
-0.222933
-0.223457
-0.224985
-0.225966
-0.22669
-0.226756
-0.225192
-0.220396
-0.21028
-0.194494
0
0
-0.0280801
-0.0665743
-0.0964039
-0.121263
-0.142881
-0.162207
-0.179749
-0.195742
-0.210213
-0.223019
-0.233924
-0.242903
-0.250592
-0.256384
-0.260296
-0.261355
-0.26072
-0.259013
-0.256627
-0.253981
-0.251271
-0.248375
-0.245455
-0.242571
-0.239709
-0.237374
-0.235224
-0.23336
-0.231869
-0.230885
-0.230766
-0.22837
-0.226632
-0.225385
-0.224408
-0.223611
-0.222907
-0.222075
-0.221607
-0.221241
-0.22092
-0.220651
-0.220524
-0.220473
-0.220487
-0.220571
-0.220728
-0.220961
-0.22125
-0.221535
-0.221932
-0.222624
-0.223845
-0.22491
-0.225742
-0.225937
-0.224537
-0.219951
-0.210093
-0.19443
0
0
-0.0280281
-0.0664258
-0.0961774
-0.12102
-0.142547
-0.161824
-0.179371
-0.195428
-0.210032
-0.223087
-0.234393
-0.243836
-0.251279
-0.256693
-0.260745
-0.260955
-0.259885
-0.257892
-0.255244
-0.252439
-0.249636
-0.246844
-0.244059
-0.241285
-0.238547
-0.23592
-0.233431
-0.231215
-0.229105
-0.227102
-0.223703
-0.223656
-0.223456
-0.222989
-0.222414
-0.221832
-0.221279
-0.220701
-0.220293
-0.219959
-0.219612
-0.219197
-0.219267
-0.219338
-0.219424
-0.219554
-0.219756
-0.220056
-0.22044
-0.220737
-0.221186
-0.221921
-0.222945
-0.224014
-0.224925
-0.225226
-0.223943
-0.219473
-0.20973
-0.194145
0
0
-0.0279861
-0.0663072
-0.0959977
-0.120811
-0.14226
-0.161497
-0.179049
-0.195153
-0.209853
-0.223068
-0.234512
-0.244005
-0.251248
-0.25588
-0.257035
-0.258503
-0.258227
-0.25647
-0.253681
-0.250942
-0.248284
-0.245617
-0.242903
-0.240126
-0.237266
-0.234282
-0.231171
-0.22799
-0.22388
-0.222606
-0.221563
-0.221328
-0.221212
-0.220985
-0.220637
-0.220221
-0.21981
-0.219357
-0.219025
-0.218715
-0.218226
-0.210772
-0.217911
-0.218257
-0.218452
-0.218644
-0.218892
-0.219263
-0.219795
-0.220022
-0.220494
-0.221273
-0.222273
-0.223323
-0.224265
-0.224643
-0.223464
-0.219072
-0.209393
-0.193796
0
0
-0.0279529
-0.0662164
-0.0958783
-0.122469
-0.142087
-0.161242
-0.178783
-0.194912
-0.209651
-0.222855
-0.234403
-0.243913
-0.251081
-0.255684
-0.257747
-0.258443
-0.257702
-0.255615
-0.252245
-0.249798
-0.247415
-0.244849
-0.242109
-0.239202
-0.236055
-0.232464
-0.228004
-0.221603
-0.207156
-0.21255
-0.216293
-0.218138
-0.218941
-0.21917
-0.219057
-0.218773
-0.220158
-0.217949
-0.217609
-0.217355
-0.217047
-0.21662
-0.216962
-0.217283
-0.217554
-0.2178
-0.218059
-0.218412
-0.219083
-0.219157
-0.219749
-0.2207
-0.221889
-0.222864
-0.223801
-0.224224
-0.223115
-0.218788
-0.209128
-0.193442
0
0
-0.0279253
-0.0661375
-0.0957156
-0.120427
-0.141794
-0.160989
-0.178548
-0.194701
-0.209478
-0.222752
-0.234307
-0.243807
-0.250964
-0.255659
-0.258058
-0.258603
-0.257654
-0.255422
-0.251405
-0.249741
-0.247439
-0.244695
-0.241734
-0.238583
-0.235077
-0.230722
-0.223933
-0.207595
0.0829131
-0.192283
-0.208802
-0.214638
-0.216893
-0.217668
-0.217706
-0.217338
-0.216776
-0.216003
-0.215392
-0.21528
-0.215389
-0.215594
-0.215948
-0.216337
-0.216704
-0.217003
-0.217216
-0.217242
-0.216922
-0.217831
-0.218937
-0.220278
-0.226236
-0.222692
-0.223584
-0.22395
-0.222883
-0.218589
-0.208946
-0.193093
0
0
-0.0279053
-0.0660955
-0.0955957
-0.120179
-0.141552
-0.160766
-0.178352
-0.194528
-0.209329
-0.222642
-0.23423
-0.243739
-0.25089
-0.2556
-0.258043
-0.258589
-0.257763
-0.25639
-0.256243
-0.252315
-0.248475
-0.244963
-0.241616
-0.238237
-0.234556
-0.230083
-0.223761
-0.213293
-0.196141
-0.20439
-0.211093
-0.214773
-0.216473
-0.21699
-0.216751
-0.215946
-0.214615
-0.212665
-0.210164
-0.210965
-0.212376
-0.213589
-0.214535
-0.215277
-0.215872
-0.216287
-0.216574
-0.216556
-0.216751
-0.21718
-0.218353
-0.219777
-0.221348
-0.222522
-0.223844
-0.223865
-0.222707
-0.218463
-0.208837
-0.1927
0
0
-0.0278788
-0.0660851
-0.0954623
-0.119963
-0.141326
-0.160605
-0.178238
-0.194417
-0.209218
-0.22256
-0.234221
-0.243734
-0.250827
-0.255455
-0.257823
-0.258336
-0.257512
-0.25596
-0.254188
-0.251237
-0.247924
-0.244604
-0.241329
-0.238015
-0.234504
-0.230571
-0.22594
-0.220216
-0.215217
-0.215074
-0.216184
-0.217059
-0.217349
-0.217051
-0.216173
-0.214572
-0.211717
-0.205918
-0.193182
-0.201221
-0.207269
-0.210791
-0.212863
-0.214173
-0.21509
-0.215673
-0.216121
-0.216442
-0.216602
-0.216652
-0.218031
-0.219457
-0.220888
-0.222651
-0.236679
-0.224053
-0.222669
-0.218375
-0.208736
-0.19221
0
0
-0.0277801
-0.0656128
-0.0950442
-0.119596
-0.14107
-0.162699
-0.178318
-0.19439
-0.209131
-0.222501
-0.234323
-0.243781
-0.250711
-0.255145
-0.257366
-0.257815
-0.256916
-0.255082
-0.252741
-0.250004
-0.247062
-0.244047
-0.241005
-0.237917
-0.234742
-0.231479
-0.228265
-0.224218
-0.221228
-0.220211
-0.219744
-0.219227
-0.218483
-0.217426
-0.215882
-0.213389
-0.208376
-0.193592
0.0836191
-0.183092
-0.201297
-0.208273
-0.211528
-0.213291
-0.214334
-0.215177
-0.215837
-0.216401
-0.216797
-0.216562
-0.218296
-0.2195
-0.22068
-0.222145
-0.223808
-0.223407
-0.222525
-0.218138
-0.20851
-0.190545
0
0
-0.0277625
-0.0656285
-0.094965
-0.119396
-0.14089
-0.160584
-0.178189
-0.194212
-0.208911
-0.222344
-0.234524
-0.243727
-0.250363
-0.254516
-0.256579
-0.257049
-0.256166
-0.254186
-0.251833
-0.249255
-0.246525
-0.243712
-0.240862
-0.237977
-0.235061
-0.232156
-0.229359
-0.226611
-0.223585
-0.222982
-0.222024
-0.22079
-0.219405
-0.217864
-0.215935
-0.213209
-0.208647
-0.200046
-0.184769
-0.195058
-0.203826
-0.208676
-0.211428
-0.213071
-0.214144
-0.21499
-0.215754
-0.216629
-0.217981
-0.22033
-0.219717
-0.219823
-0.22049
-0.221492
-0.222501
-0.222836
-0.22189
-0.217595
-0.207808
-0.191226
0
0
-0.0277673
-0.0656673
-0.0949495
-0.119203
-0.140764
-0.160762
-0.177929
-0.193757
-0.208381
-0.221801
-0.234419
-0.242995
-0.249484
-0.253419
-0.25544
-0.256213
-0.255537
-0.253452
-0.251386
-0.24904
-0.246444
-0.243726
-0.240971
-0.238186
-0.235349
-0.232419
-0.229348
-0.228297
-0.228714
-0.226191
-0.223863
-0.221831
-0.219978
-0.218199
-0.216289
-0.213996
-0.211074
-0.207589
-0.204715
-0.206063
-0.20863
-0.210772
-0.212349
-0.213434
-0.214254
-0.214996
-0.21572
-0.216556
-0.21764
-0.218863
-0.219247
-0.219612
-0.220201
-0.221051
-0.222
-0.222481
-0.221487
-0.217268
-0.20759
-0.191556
0
0
-0.027776
-0.0657074
-0.095055
-0.119715
-0.140696
-0.158757
-0.176449
-0.192721
-0.207463
-0.220345
-0.230148
-0.240396
-0.24815
-0.25205
-0.254344
-0.255843
-0.255573
-0.253387
-0.251811
-0.249509
-0.246829
-0.244054
-0.2413
-0.238512
-0.235572
-0.231992
-0.200188
-0.227526
-0.227456
-0.225938
-0.223959
-0.221916
-0.219944
-0.218122
-0.216472
-0.214826
-0.213211
-0.211891
-0.211314
-0.211431
-0.21203
-0.212819
-0.213667
-0.214088
-0.214522
-0.215112
-0.215691
-0.216335
-0.217098
-0.217913
-0.218608
-0.219222
-0.219852
-0.220704
-0.221782
-0.222318
-0.221359
-0.217199
-0.207563
-0.191791
0
0
-0.0277799
-0.0657211
-0.0950536
-0.119531
-0.140619
-0.159277
-0.176614
-0.192589
-0.207102
-0.219933
-0.231066
-0.240925
-0.248799
-0.251146
-0.255211
-0.257004
-0.257042
-0.256792
-0.253814
-0.250581
-0.247453
-0.244509
-0.241751
-0.23895
-0.236013
-0.232781
-0.228975
-0.228071
-0.227024
-0.225472
-0.223566
-0.221424
-0.219123
-0.21681
-0.215681
-0.214787
-0.214142
-0.213713
-0.213577
-0.213611
-0.213819
-0.214295
-0.220473
-0.214825
-0.214772
-0.2153
-0.21569
-0.216141
-0.216739
-0.217496
-0.218266
-0.218959
-0.219513
-0.220327
-0.221679
-0.22225
-0.221367
-0.217288
-0.20757
-0.191857
0
0
-0.0277831
-0.0657315
-0.0950556
-0.119486
-0.14068
-0.159663
-0.177042
-0.192771
-0.206912
-0.219128
-0.231306
-0.241591
-0.250123
-0.257904
-0.259356
-0.259235
-0.258173
-0.256478
-0.253792
-0.250729
-0.24766
-0.244789
-0.242215
-0.239411
-0.236521
-0.233699
-0.231125
-0.229149
-0.22738
-0.225444
-0.223244
-0.220571
-0.216904
-0.211072
-0.212502
-0.212992
-0.213768
-0.214157
-0.214343
-0.21448
-0.214657
-0.214948
-0.21533
-0.215043
-0.214795
-0.215521
-0.215686
-0.215972
-0.216494
-0.21734
-0.218193
-0.218852
-0.219187
-0.219841
-0.221623
-0.222129
-0.221365
-0.217483
-0.207527
-0.191744
0
0
-0.0277894
-0.0657531
-0.0950903
-0.119546
-0.140849
-0.160083
-0.177921
-0.19318
-0.206424
-0.189878
-0.230348
-0.241487
-0.249912
-0.25601
-0.258736
-0.259204
-0.25815
-0.256172
-0.253535
-0.250597
-0.247629
-0.244894
-0.242679
-0.239705
-0.23676
-0.234106
-0.231767
-0.229644
-0.227751
-0.225589
-0.223106
-0.219591
-0.212481
-0.0898393
-0.205483
-0.191563
-0.21256
-0.214065
-0.214636
-0.214894
-0.215095
-0.215299
-0.21532
-0.215165
-0.215058
-0.215324
-0.215494
-0.215731
-0.216198
-0.217284
-0.218577
-0.218433
-0.218853
-0.219713
-0.221008
-0.221657
-0.221101
-0.217693
-0.207305
-0.191432
0
0
-0.0277999
-0.0657879
-0.0951505
-0.119649
-0.141074
-0.160731
-0.195153
-0.194426
-0.207558
-0.218785
-0.231239
-0.241645
-0.249588
-0.254988
-0.257874
-0.258656
-0.251789
-0.255881
-0.25337
-0.250471
-0.247497
-0.244718
-0.242796
-0.239346
-0.236468
-0.234045
-0.231893
-0.22995
-0.227917
-0.225869
-0.223677
-0.220177
-0.214961
-0.206717
-0.20974
-0.211381
-0.213463
-0.214555
-0.215027
-0.215245
-0.21544
-0.215677
-0.215516
-0.215274
-0.215143
-0.215179
-0.21528
-0.215424
-0.21567
-0.21679
-0.218459
-0.21761
-0.218374
-0.219382
-0.220377
-0.22084
-0.220096
-0.217273
-0.20653
-0.190939
0
0
-0.0278146
-0.0658343
-0.0952224
-0.119739
-0.141161
-0.160653
-0.179026
-0.194681
-0.208679
-0.221204
-0.232566
-0.24215
-0.249568
-0.25464
-0.257444
-0.258285
-0.257568
-0.255799
-0.253292
-0.250388
-0.247273
-0.243869
-0.239325
-0.237539
-0.235727
-0.233848
-0.231892
-0.229782
-0.228045
-0.226497
-0.234807
-0.222058
-0.218781
-0.216106
-0.215436
-0.215357
-0.215541
-0.21565
-0.21565
-0.215625
-0.215731
-0.216092
-0.215632
-0.215241
-0.215073
-0.21506
-0.215122
-0.21519
-0.215172
-0.214864
-0.213413
-0.216516
-0.217895
-0.218983
-0.219808
-0.219801
-0.2176
-0.211309
-0.204498
-0.190432
0
0
-0.0278359
-0.0658985
-0.095312
-0.119823
-0.141187
-0.160486
-0.178306
-0.194895
-0.209185
-0.221831
-0.232933
-0.242236
-0.249451
-0.254416
-0.257174
-0.258002
-0.257394
-0.255709
-0.253291
-0.250422
-0.247297
-0.244059
-0.240691
-0.23836
-0.236162
-0.234245
-0.232321
-0.230368
-0.228555
-0.226922
-0.22557
-0.223222
-0.221123
-0.219554
-0.21845
-0.217681
-0.217109
-0.216641
-0.216236
-0.215897
-0.215734
-0.21618
-0.215291
-0.21495
-0.214896
-0.214952
-0.215044
-0.215132
-0.215165
-0.215101
-0.215105
-0.216406
-0.217625
-0.218714
-0.21956
-0.219688
-0.218088
-0.213363
-0.204837
-0.190357
0
0
-0.0278719
-0.0660039
-0.0954518
-0.119937
-0.141229
-0.160383
-0.178038
-0.195134
-0.208855
-0.221389
-0.232531
-0.241898
-0.24917
-0.254185
-0.256966
-0.25777
-0.257346
-0.255827
-0.253517
-0.250679
-0.247551
-0.244541
-0.24169
-0.239151
-0.236728
-0.23494
-0.232985
-0.230996
-0.229088
-0.227297
-0.225588
-0.223852
-0.222281
-0.220965
-0.219848
-0.218894
-0.218064
-0.217329
-0.216655
-0.215967
-0.215033
-0.213348
-0.214003
-0.214464
-0.214725
-0.214907
-0.215063
-0.215217
-0.215386
-0.215616
-0.216027
-0.216743
-0.217653
-0.218657
-0.21958
-0.220003
-0.219951
-0.214615
-0.205418
-0.190502
0
0
-0.0279433
-0.0662114
-0.0957166
-0.120132
-0.14133
-0.160278
-0.17724
-0.191376
-0.206495
-0.22013
-0.231848
-0.241507
-0.248937
-0.254076
-0.257018
-0.257569
-0.25756
-0.256246
-0.254038
-0.251179
-0.24795
-0.245106
-0.242435
-0.239839
-0.237206
-0.235793
-0.233688
-0.231568
-0.229571
-0.227712
-0.225981
-0.224397
-0.222984
-0.221741
-0.220629
-0.219614
-0.218678
-0.217811
-0.216994
-0.21619
-0.215348
-0.214542
-0.214483
-0.214639
-0.214822
-0.215001
-0.215177
-0.215371
-0.215612
-0.21593
-0.21637
-0.216958
-0.217736
-0.218682
-0.219648
-0.220171
-0.219225
-0.215009
-0.205735
-0.190676
0
0
-0.0281015
-0.0666914
-0.0962574
-0.120474
-0.141603
-0.16049
-0.177494
-0.192731
-0.207219
-0.220439
-0.231971
-0.241536
-0.248946
-0.254203
-0.263657
-0.257341
-0.258196
-0.256991
-0.254833
-0.251918
-0.248549
-0.245943
-0.243288
-0.240709
-0.238332
-0.236288
-0.234106
-0.231956
-0.22994
-0.228084
-0.226392
-0.224871
-0.223521
-0.222323
-0.221214
-0.220158
-0.219151
-0.218197
-0.217301
-0.216471
-0.215756
-0.215265
-0.21504
-0.214993
-0.215059
-0.215189
-0.215342
-0.215532
-0.215782
-0.21609
-0.21649
-0.217032
-0.217761
-0.218676
-0.219661
-0.220217
-0.219209
-0.215087
-0.205906
-0.190838
0
0
-0.0284619
-0.0680517
-0.097142
-0.121218
-0.142197
-0.16101
-0.178095
-0.19372
-0.208084
-0.221031
-0.232314
-0.241691
-0.248972
-0.254062
-0.25693
-0.256231
-0.259314
-0.257974
-0.255532
-0.252315
-0.25053
-0.247274
-0.244231
-0.24153
-0.239289
-0.236804
-0.234401
-0.232198
-0.230198
-0.228385
-0.226747
-0.225285
-0.223999
-0.222865
-0.221759
-0.22065
-0.219565
-0.218531
-0.217561
-0.21668
-0.215976
-0.215581
-0.215364
-0.215261
-0.215269
-0.215356
-0.215453
-0.215602
-0.215837
-0.21611
-0.216472
-0.216994
-0.217709
-0.21861
-0.219633
-0.220298
-0.219269
-0.215115
-0.206022
-0.191019
0
0
-0.0291081
-0.0928486
-0.0990014
-0.122167
-0.142849
-0.161553
-0.178625
-0.194278
-0.208561
-0.221352
-0.232463
-0.2417
-0.248884
-0.253901
-0.256859
-0.257771
-0.258773
-0.257832
-0.255719
-0.253093
-0.250375
-0.247442
-0.244566
-0.241904
-0.239787
-0.236941
-0.234484
-0.232336
-0.230405
-0.228662
-0.227084
-0.225683
-0.22448
-0.223453
-0.222326
-0.221121
-0.219936
-0.218819
-0.217767
-0.216775
-0.215994
-0.215724
-0.215548
-0.215392
-0.215321
-0.215331
-0.215303
-0.215374
-0.215608
-0.215867
-0.216241
-0.216814
-0.217578
-0.218494
-0.219596
-0.22047
-0.219447
-0.215307
-0.206074
-0.191241
0
0
-0.0286274
-0.0685636
-0.0977646
-0.121925
-0.142903
-0.161771
-0.178876
-0.194466
-0.208689
-0.221363
-0.232359
-0.241516
-0.248676
-0.253731
-0.257221
-0.258797
-0.258988
-0.257883
-0.255847
-0.25328
-0.250484
-0.247649
-0.244819
-0.241885
-0.238381
-0.236342
-0.234403
-0.232484
-0.230626
-0.228962
-0.227443
-0.226093
-0.224986
-0.224142
-0.2229
-0.221529
-0.220237
-0.219068
-0.217989
-0.216768
-0.215795
-0.215852
-0.215673
-0.215311
-0.214986
-0.214751
-0.214461
-0.214411
-0.214689
-0.215039
-0.2156
-0.216413