# vtk DataFile Version 2.0
FlowField
ASCII
DATASET STRUCTURED_GRID
DIMENSIONS 62 47 32 
POINTS 93248 double
0 0 0
0.01 0 0
0.02 0 0
0.03 0 0
0.04 0 0
0.05 0 0
0.06 0 0
0.07 0 0
0.08 0 0
0.09 0 0
0.1 0 0
0.11 0 0
0.12 0 0
0.13 0 0
0.14 0 0
0.15 0 0
0.16 0 0
0.17 0 0
0.18 0 0
0.19 0 0
0.2 0 0
0.21 0 0
0.22 0 0
0.23 0 0
0.24 0 0
0.25 0 0
0.26 0 0
0.27 0 0
0.28 0 0
0.29 0 0
0.3 0 0
0.31 0 0
0.32 0 0
0.33 0 0
0.34 0 0
0.35 0 0
0.36 0 0
0.37 0 0
0.38 0 0
0.39 0 0
0.4 0 0
0.41 0 0
0.42 0 0
0.43 0 0
0.44 0 0
0.45 0 0
0.46 0 0
0.47 0 0
0.48 0 0
0.49 0 0
0.5 0 0
0.51 0 0
0.52 0 0
0.53 0 0
0.54 0 0
0.55 0 0
0.56 0 0
0.57 0 0
0.58 0 0
0.59 0 0
0.6 0 0
0.61 0 0
0 0.01 0
0.01 0.01 0
0.02 0.01 0
0.03 0.01 0
0.04 0.01 0
0.05 0.01 0
0.06 0.01 0
0.07 0.01 0
0.08 0.01 0
0.09 0.01 0
0.1 0.01 0
0.11 0.01 0
0.12 0.01 0
0.13 0.01 0
0.14 0.01 0
0.15 0.01 0
0.16 0.01 0
0.17 0.01 0
0.18 0.01 0
0.19 0.01 0
0.2 0.01 0
0.21 0.01 0
0.22 0.01 0
0.23 0.01 0
0.24 0.01 0
0.25 0.01 0
0.26 0.01 0
0.27 0.01 0
0.28 0.01 0
0.29 0.01 0
0.3 0.01 0
0.31 0.01 0
0.32 0.01 0
0.33 0.01 0
0.34 0.01 0
0.35 0.01 0
0.36 0.01 0
0.37 0.01 0
0.38 0.01 0
0.39 0.01 0
0.4 0.01 0
0.41 0.01 0
0.42 0.01 0
0.43 0.01 0
0.44 0.01 0
0.45 0.01 0
0.46 0.01 0
0.47 0.01 0
0.48 0.01 0
0.49 0.01 0
0.5 0.01 0
0.51 0.01 0
0.52 0.01 0
0.53 0.01 0
0.54 0.01 0
0.55 0.01 0
0.56 0.01 0
0.57 0.01 0
0.58 0.01 0
0.59 0.01 0
0.6 0.01 0
0.61 0.01 0
0 0.02 0
0.01 0.02 0
0.02 0.02 0
0.03 0.02 0
0.04 0.02 0
0.05 0.02 0
0.06 0.02 0
0.07 0.02 0
0.08 0.02 0
0.09 0.02 0
0.1 0.02 0
0.11 0.02 0
0.12 0.02 0
0.13 0.02 0
0.14 0.02 0
0.15 0.02 0
0.16 0.02 0
0.17 0.02 0
0.18 0.02 0
0.19 0.02 0
0.2 0.02 0
0.21 0.02 0
0.22 0.02 0
0.23 0.02 0
0.24 0.02 0
0.25 0.02 0
0.26 0.02 0
0.27 0.02 0
0.28 0.02 0
0.29 0.02 0
0.3 0.02 0
0.31 0.02 0
0.32 0.02 0
0.33 0.02 0
0.34 0.02 0
0.35 0.02 0
0.36 0.02 0
0.37 0.02 0
0.38 0.02 0
0.39 0.02 0
0.4 0.02 0
0.41 0.02 0
0.42 0.02 0
0.43 0.02 0
0.44 0.02 0
0.45 0.02 0
0.46 0.02 0
0.47 0.02 0
0.48 0.02 0
0.49 0.02 0
0.5 0.02 0
0.51 0.02 0
0.52 0.02 0
0.53 0.02 0
0.54 0.02 0
0.55 0.02 0
0.56 0.02 0
0.57 0.02 0
0.58 0.02 0
0.59 0.02 0
0.6 0.02 0
0.61 0.02 0
0 0.03 0
0.01 0.03 0
0.02 0.03 0
0.03 0.03 0
0.04 0.03 0
0.05 0.03 0
0.06 0.03 0
0.07 0.03 0
0.08 0.03 0
0.09 0.03 0
0.1 0.03 0
0.11 0.03 0
0.12 0.03 0
0.13 0.03 0
0.14 0.03 0
0.15 0.03 0
0.16 0.03 0
0.17 0.03 0
0.18 0.03 0
0.19 0.03 0
0.2 0.03 0
0.21 0.03 0
0.22 0.03 0
0.23 0.03 0
0.24 0.03 0
0.25 0.03 0
0.26 0.03 0
0.27 0.03 0
0.28 0.03 0
0.29 0.03 0
0.3 0.03 0
0.31 0.03 0
0.32 0.03 0
0.33 0.03 0
0.34 0.03 0
0.35 0.03 0
0.36 0.03 0
0.37 0.03 0
0.38 0.03 0
0.39 0.03 0
0.4 0.03 0
0.41 0.03 0
0.42 0.03 0
0.43 0.03 0
0.44 0.03 0
0.45 0.03 0
0.46 0.03 0
0.47 0.03 0
0.48 0.03 0
0.49 0.03 0
0.5 0.03 0
0.51 0.03 0
0.52 0.03 0
0.53 0.03 0
0.54 0.03 0
0.55 0.03 0
0.56 0.03 0
0.57 0.03 0
0.58 0.03 0
0.59 0.03 0
0.6 0.03 0
0.61 0.03 0
0 0.04 0
0.01 0.04 0
0.02 0.04 0
0.03 0.04 0
0.04 0.04 0
0.05 0.04 0
0.06 0.04 0
0.07 0.04 0
0.08 0.04 0
0.09 0.04 0
0.1 0.04 0
0.11 0.04 0
0.12 0.04 0
0.13 0.04 0
0.14 0.04 0
0.15 0.04 0
0.16 0.04 0
0.17 0.04 0
0.18 0.04 0
0.19 0.04 0
0.2 0.04 0
0.21 0.04 0
0.22 0.04 0
0.23 0.04 0
0.24 0.04 0
0.25 0.04 0
0.26 0.04 0
0.27 0.04 0
0.28 0.04 0
0.29 0.04 0
0.3 0.04 0
0.31 0.04 0
0.32 0.04 0
0.33 0.04 0
0.34 0.04 0
0.35 0.04 0
0.36 0.04 0
0.37 0.04 0
0.38 0.04 0
0.39 0.04 0
0.4 0.04 0
0.41 0.04 0
0.42 0.04 0
0.43 0.04 0
0.44 0.04 0
0.45 0.04 0
0.46 0.04 0
0.47 0.04 0
0.48 0.04 0
0.49 0.04 0
0.5 0.04 0
0.51 0.04 0
0.52 0.04 0
0.53 0.04 0
0.54 0.04 0
0.55 0.04 0
0.56 0.04 0
0.57 0.04 0
0.58 0.04 0
0.59 0.04 0
0.6 0.04 0
0.61 0.04 0
0 0.05 0
0.01 0.05 0
0.02 0.05 0
0.03 0.05 0
0.04 0.05 0
0.05 0.05 0
0.06 0.05 0
0.07 0.05 0
0.08 0.05 0
0.09 0.05 0
0.1 0.05 0
0.11 0.05 0
0.12 0.05 0
0.13 0.05 0
0.14 0.05 0
0.15 0.05 0
0.16 0.05 0
0.17 0.05 0
0.18 0.05 0
0.19 0.05 0
0.2 0.05 0
0.21 0.05 0
0.22 0.05 0
0.23 0.05 0
0.24 0.05 0
0.25 0.05 0
0.26 0.05 0
0.27 0.05 0
0.28 0.05 0
0.29 0.05 0
0.3 0.05 0
0.31 0.05 0
0.32 0.05 0
0.33 0.05 0
0.34 0.05 0
0.35 0.05 0
0.36 0.05 0
0.37 0.05 0
0.38 0.05 0
0.39 0.05 0
0.4 0.05 0
0.41 0.05 0
0.42 0.05 0
0.43 0.05 0
0.44 0.05 0
0.45 0.05 0
0.46 0.05 0
0.47 0.05 0
0.48 0.05 0
0.49 0.05 0
0.5 0.05 0
0.51 0.05 0
0.52 0.05 0
0.53 0.05 0
0.54 0.05 0
0.55 0.05 0
0.56 0.05 0
0.57 0.05 0
0.58 0.05 0
0.59 0.05 0
0.6 0.05 0
0.61 0.05 0
0 0.06 0
0.01 0.06 0
0.02 0.06 0
0.03 0.06 0
0.04 0.06 0
0.05 0.06 0
0.06 0.06 0
0.07 0.06 0
0.08 0.06 0
0.09 0.06 0
0.1 0.06 0
0.11 0.06 0
0.12 0.06 0
0.13 0.06 0
0.14 0.06 0
0.15 0.06 0
0.16 0.06 0
0.17 0.06 0
0.18 0.06 0
0.19 0.06 0
0.2 0.06 0
0.21 0.06 0
0.22 0.06 0
0.23 0.06 0
0.24 0.06 0
0.25 0.06 0
0.26 0.06 0
0.27 0.06 0
0.28 0.06 0
0.29 0.06 0
0.3 0.06 0
0.31 0.06 0
0.32 0.06 0
0.33 0.06 0
0.34 0.06 0
0.35 0.06 0
0.36 0.06 0
0.37 0.06 0
0.38 0.06 0
0.39 0.06 0
0.4 0.06 0
0.41 0.06 0
0.42 0.06 0
0.43 0.06 0
0.44 0.06 0
0.45 0.06 0
0.46 0.06 0
0.47 0.06 0
0.48 0.06 0
0.49 0.06 0
0.5 0.06 0
0.51 0.06 0
0.52 0.06 0
0.53 0.06 0
0.54 0.06 0
0.55 0.06 0
0.56 0.06 0
0.57 0.06 0
0.58 0.06 0
0.59 0.06 0
0.6 0.06 0
0.61 0.06 0
0 0.07 0
0.01 0.07 0
0.02 0.07 0
0.03 0.07 0
0.04 0.07 0
0.05 0.07 0
0.06 0.07 0
0.07 0.07 0
0.08 0.07 0
0.09 0.07 0
0.1 0.07 0
0.11 0.07 0
0.12 0.07 0
0.13 0.07 0
0.14 0.07 0
0.15 0.07 0
0.16 0.07 0
0.17 0.07 0
0.18 0.07 0
0.19 0.07 0
0.2 0.07 0
0.21 0.07 0
0.22 0.07 0
0.23 0.07 0
0.24 0.07 0
0.25 0.07 0
0.26 0.07 0
0.27 0.07 0
0.28 0.07 0
0.29 0.07 0
0.3 0.07 0
0.31 0.07 0
0.32 0.07 0
0.33 0.07 0
0.34 0.07 0
0.35 0.07 0
0.36 0.07 0
0.37 0.07 0
0.38 0.07 0
0.39 0.07 0
0.4 0.07 0
0.41 0.07 0
0.42 0.07 0
0.43 0.07 0
0.44 0.07 0
0.45 0.07 0
0.46 0.07 0
0.47 0.07 0
0.48 0.07 0
0.49 0.07 0
0.5 0.07 0
0.51 0.07 0
0.52 0.07 0
0.53 0.07 0
0.54 0.07 0
0.55 0.07 0
0.56 0.07 0
0.57 0.07 0
0.58 0.07 0
0.59 0.07 0
0.6 0.07 0
0.61 0.07 0
0 0.08 0
0.01 0.08 0
0.02 0.08 0
0.03 0.08 0
0.04 0.08 0
0.05 0.08 0
0.06 0.08 0
0.07 0.08 0
0.08 0.08 0
0.09 0.08 0
0.1 0.08 0
0.11 0.08 0
0.12 0.08 0
0.13 0.08 0
0.14 0.08 0
0.15 0.08 0
0.16 0.08 0
0.17 0.08 0
0.18 0.08 0
0.19 0.08 0
0.2 0.08 0
0.21 0.08 0
0.22 0.08 0
0.23 0.08 0
0.24 0.08 0
0.25 0.08 0
0.26 0.08 0
0.27 0.08 0
0.28 0.08 0
0.29 0.08 0
0.3 0.08 0
0.31 0.08 0
0.32 0.08 0
0.33 0.08 0
0.34 0.08 0
0.35 0.08 0
0.36 0.08 0
0.37 0.08 0
0.38 0.08 0
0.39 0.08 0
0.4 0.08 0
0.41 0.08 0
0.42 0.08 0
0.43 0.08 0
0.44 0.08 0
0.45 0.08 0
0.46 0.08 0
0.47 0.08 0
0.48 0.08 0
0.49 0.08 0
0.5 0.08 0
0.51 0.08 0
0.52 0.08 0
0.53 0.08 0
0.54 0.08 0
0.55 0.08 0
0.56 0.08 0
0.57 0.08 0
0.58 0.08 0
0.59 0.08 0
0.6 0.08 0
0.61 0.08 0
0 0.09 0
0.01 0.09 0
0.02 0.09 0
0.03 0.09 0
0.04 0.09 0
0.05 0.09 0
0.06 0.09 0
0.07 0.09 0
0.08 0.09 0
0.09 0.09 0
0.1 0.09 0
0.11 0.09 0
0.12 0.09 0
0.13 0.09 0
0.14 0.09 0
0.15 0.09 0
0.16 0.09 0
0.17 0.09 0
0.18 0.09 0
0.19 0.09 0
0.2 0.09 0
0.21 0.09 0
0.22 0.09 0
0.23 0.09 0
0.24 0.09 0
0.25 0.09 0
0.26 0.09 0
0.27 0.09 0
0.28 0.09 0
0.29 0.09 0
0.3 0.09 0
0.31 0.09 0
0.32 0.09 0
0.33 0.09 0
0.34 0.09 0
0.35 0.09 0
0.36 0.09 0
0.37 0.09 0
0.38 0.09 0
0.39 0.09 0
0.4 0.09 0
0.41 0.09 0
0.42 0.09 0
0.43 0.09 0
0.44 0.09 0
0.45 0.09 0
0.46 0.09 0
0.47 0.09 0
0.48 0.09 0
0.49 0.09 0
0.5 0.09 0
0.51 0.09 0
0.52 0.09 0
0.53 0.09 0
0.54 0.09 0
0.55 0.09 0
0.56 0.09 0
0.57 0.09 0
0.58 0.09 0
0.59 0.09 0
0.6 0.09 0
0.61 0.09 0
0 0.1 0
0.01 0.1 0
0.02 0.1 0
0.03 0.1 0
0.04 0.1 0
0.05 0.1 0
0.06 0.1 0
0.07 0.1 0
0.08 0.1 0
0.09 0.1 0
0.1 0.1 0
0.11 0.1 0
0.12 0.1 0
0.13 0.1 0
0.14 0.1 0
0.15 0.1 0
0.16 0.1 0
0.17 0.1 0
0.18 0.1 0
0.19 0.1 0
0.2 0.1 0
0.21 0.1 0
0.22 0.1 0
0.23 0.1 0
0.24 0.1 0
0.25 0.1 0
0.26 0.1 0
0.27 0.1 0
0.28 0.1 0
0.29 0.1 0
0.3 0.1 0
0.31 0.1 0
0.32 0.1 0
0.33 0.1 0
0.34 0.1 0
0.35 0.1 0
0.36 0.1 0
0.37 0.1 0
0.38 0.1 0
0.39 0.1 0
0.4 0.1 0
0.41 0.1 0
0.42 0.1 0
0.43 0.1 0
0.44 0.1 0
0.45 0.1 0
0.46 0.1 0
0.47 0.1 0
0.48 0.1 0
0.49 0.1 0
0.5 0.1 0
0.51 0.1 0
0.52 0.1 0
0.53 0.1 0
0.54 0.1 0
0.55 0.1 0
0.56 0.1 0
0.57 0.1 0
0.58 0.1 0
0.59 0.1 0
0.6 0.1 0
0.61 0.1 0
0 0.11 0
0.01 0.11 0
0.02 0.11 0
0.03 0.11 0
0.04 0.11 0
0.05 0.11 0
0.06 0.11 0
0.07 0.11 0
0.08 0.11 0
0.09 0.11 0
0.1 0.11 0
0.11 0.11 0
0.12 0.11 0
0.13 0.11 0
0.14 0.11 0
0.15 0.11 0
0.16 0.11 0
0.17 0.11 0
0.18 0.11 0
0.19 0.11 0
0.2 0.11 0
0.21 0.11 0
0.22 0.11 0
0.23 0.11 0
0.24 0.11 0
0.25 0.11 0
0.26 0.11 0
0.27 0.11 0
0.28 0.11 0
0.29 0.11 0
0.3 0.11 0
0.31 0.11 0
0.32 0.11 0
0.33 0.11 0
0.34 0.11 0
0.35 0.11 0
0.36 0.11 0
0.37 0.11 0
0.38 0.11 0
0.39 0.11 0
0.4 0.11 0
0.41 0.11 0
0.42 0.11 0
0.43 0.11 0
0.44 0.11 0
0.45 0.11 0
0.46 0.11 0
0.47 0.11 0
0.48 0.11 0
0.49 0.11 0
0.5 0.11 0
0.51 0.11 0
0.52 0.11 0
0.53 0.11 0
0.54 0.11 0
0.55 0.11 0
0.56 0.11 0
0.57 0.11 0
0.58 0.11 0
0.59 0.11 0
0.6 0.11 0
0.61 0.11 0
0 0.12 0
0.01 0.12 0
0.02 0.12 0
0.03 0.12 0
0.04 0.12 0
0.05 0.12 0
0.06 0.12 0
0.07 0.12 0
0.08 0.12 0
0.09 0.12 0
0.1 0.12 0
0.11 0.12 0
0.12 0.12 0
0.13 0.12 0
0.14 0.12 0
0.15 0.12 0
0.16 0.12 0
0.17 0.12 0
0.18 0.12 0
0.19 0.12 0
0.2 0.12 0
0.21 0.12 0
0.22 0.12 0
0.23 0.12 0
0.24 0.12 0
0.25 0.12 0
0.26 0.12 0
0.27 0.12 0
0.28 0.12 0
0.29 0.12 0
0.3 0.12 0
0.31 0.12 0
0.32 0.12 0
0.33 0.12 0
0.34 0.12 0
0.35 0.12 0
0.36 0.12 0
0.37 0.12 0
0.38 0.12 0
0.39 0.12 0
0.4 0.12 0
0.41 0.12 0
0.42 0.12 0
0.43 0.12 0
0.44 0.12 0
0.45 0.12 0
0.46 0.12 0
0.47 0.12 0
0.48 0.12 0
0.49 0.12 0
0.5 0.12 0
0.51 0.12 0
0.52 0.12 0
0.53 0.12 0
0.54 0.12 0
0.55 0.12 0
0.56 0.12 0
0.57 0.12 0
0.58 0.12 0
0.59 0.12 0
0.6 0.12 0
0.61 0.12 0
0 0.13 0
0.01 0.13 0
0.02 0.13 0
0.03 0.13 0
0.04 0.13 0
0.05 0.13 0
0.06 0.13 0
0.07 0.13 0
0.08 0.13 0
0.09 0.13 0
0.1 0.13 0
0.11 0.13 0
0.12 0.13 0
0.13 0.13 0
0.14 0.13 0
0.15 0.13 0
0.16 0.13 0
0.17 0.13 0
0.18 0.13 0
0.19 0.13 0
0.2 0.13 0
0.21 0.13 0
0.22 0.13 0
0.23 0.13 0
0.24 0.13 0
0.25 0.13 0
0.26 0.13 0
0.27 0.13 0
0.28 0.13 0
0.29 0.13 0
0.3 0.13 0
0.31 0.13 0
0.32 0.13 0
0.33 0.13 0
0.34 0.13 0
0.35 0.13 0
0.36 0.13 0
0.37 0.13 0
0.38 0.13 0
0.39 0.13 0
0.4 0.13 0
0.41 0.13 0
0.42 0.13 0
0.43 0.13 0
0.44 0.13 0
0.45 0.13 0
0.46 0.13 0
0.47 0.13 0
0.48 0.13 0
[...]
POINT_DATA 93248

SCALARS v double
LOOKUP_TABLE default
0
0
0
0
0
0
0
0
0
0
0
0
0
0
0
0
0
0
0
0
0
0
0
0
0
0
0
0
0
0
0
0
0
0
0
0
0
0
-0.0829742
0
0
0
0
0
-0.0875956
0
0
0
0
0
0
0
0
0
0
0
0
0
0
0
0
0
0
0.0448226
-0.0773291
0.0476845
0.0340767
0.0176054
0
-0.00483362
-0.0123954
-0.017387
-0.0208586
-0.0241811
-0.0292459
-0.0292095
-0.0293027
-0.0293179
-0.0294684
-0.0287677
-0.0281806
-0.026901
-0.034869
-0.0302495
-0.0257684
-0.0285673
-0.0289229
-0.0289628
-0.0289885
-0.0290039
-0.0289875
-0.028916
-0.0287844
-0.0288546
-0.0304169
-0.0289304
-0.0280888
-0.028551
-0.0593993
-0.0275692
-0.0270272
-0.0240206
-0.0310782
-0.0540403
-0.0314136
-0.0322664
-0.0357152
-0.050695
-0.112691
-0.0305871
-0.0412405
-0.0285479
-0.0284373
-0.0278166
-0.0311772
-0.0357668
-0.0561167
-0.0343464
-0.0788097
-0.0296129
-0.0258441
-0.0226551
-0.0183521
0
0
0.0261251
0.050397
0.0580497
0.0538346
0.0371086
0.0304326
0.0191936
0.00771817
-0.003209
-0.0126358
-0.0213273
-0.113481
-0.0354363
-0.0375704
-0.0339298
-0.0398647
-0.0386239
-0.0398596
-0.0424548
-0.137973
-0.0399109
-0.0430893
-0.0399901
-0.0393375
-0.0392709
-0.0393305
-0.039381
-0.0393717
-0.0392605
-0.0389884
-0.0387585
-0.0875922
-0.0390632
-0.0379901
-0.0394243
-0.0388429
-0.036146
-0.0338223
-0.0388971
-0.0423579
-0.0443525
-0.0439385
-0.0453636
-0.0468124
-0.0496096
-0.0486942
-0.0431099
-0.0412405
-0.0396142
-0.0400477
-0.0424515
-0.0424979
-0.0448252
-0.0480431
-0.043196
-0.0406832
-0.0910101
-0.0324103
-0.0284773
-0.0248944
0
0
0.0133256
0.0343425
0.0437269
0.0515892
0.0540425
0.0418149
0.0309623
0.0198281
0.00853649
-0.00315124
-0.0136258
-0.0254893
-0.0324233
-0.0375389
-0.0411688
-0.0438083
0
-0.0443894
-0.0459948
-0.0476604
-0.0459117
-0.0456362
-0.0448315
-0.0444927
-0.0444526
-0.0445176
-0.0445857
-0.0446094
-0.0445757
-0.0445408
-0.0448348
-0.046464
-0.0466204
-0.0463625
-0.043382
-0.0426007
-0.0416585
-0.0416251
-0.0444798
-0.0469995
-0.0490388
-0.0504623
-0.0499175
-0.0510612
-0.0519868
-0.0480245
-0.0465681
-0.0455711
-0.0460506
-0.0460225
-0.0464949
-0.0467161
-0.0471922
-0.0471233
-0.0452833
-0.0431815
-0.0410933
-0.0357708
-0.0321494
-0.0303391
0
0
0.00762556
0.0230563
0.0366378
0.0397337
0.0407102
0.0359801
0.0289926
0.0206014
0.0114516
0.00176186
-0.0080117
-0.0179788
-0.0264212
-0.0333944
-0.0390448
-0.042188
-0.0431687
-0.0451606
-0.0468772
-0.0469137
-0.0468961
-0.0469345
-0.0468918
-0.0469242
-0.0470283
-0.0471454
-0.0472483
-0.0473159
-0.047347
-0.0473931
-0.047613
-0.0482765
-0.0493302
-0.0488286
-0.0470797
-0.0460297
-0.0455509
-0.0457462
-0.0475236
-0.0492153
-0.0506836
-0.051765
-0.0520498
-0.0524543
-0.0519244
-0.0479315
-0.048503
-0.0484812
-0.0486196
-0.048526
-0.0483885
-0.0481002
-0.0475882
-0.0466298
-0.0451119
-0.043026
-0.0402823
-0.0365732
-0.0337961
-0.0348456
0
0
0.00451235
0.0143777
0.0224265
0.0262189
0.027223
0.025236
0.0207511
0.0147638
0.00830898
0.00122461
-0.00640854
-0.0144636
-0.0222095
-0.0291711
-0.0345965
-0.0398333
-0.0422898
-0.0445646
-0.0456122
-0.0463967
-0.047067
-0.0475886
-0.0479854
-0.0483151
-0.0485981
-0.0487956
-0.0489607
-0.0490824
-0.0491433
-0.0491432
-0.049119
-0.0493851
-0.0520665
-0.050742
-0.0493787
-0.0486175
-0.0484364
-0.048826
-0.0497415
-0.0507427
-0.0516467
-0.0523488
-0.0528133
-0.0531294
-0.0528053
0
-0.0500081
-0.0502608
-0.0500963
-0.0498117
-0.0494
-0.0487511
-0.047758
-0.0464695
-0.0448862
-0.0429148
-0.040566
-0.0379455
-0.0348748
-0.038187
-0.0951541
0
0.00255228
0.0085749
0.013258
0.0156827
0.016093
0.0150284
0.0113929
0
0.00262989
-0.00227862
-0.00802137
-0.0144871
-0.0209504
-0.0272883
-0.0332336
-0.0389541
-0.0406638
-0.0416817
-0.0441445
-0.0459183
-0.0472637
-0.0482389
-0.0489544
-0.0495181
-0.0499802
-0.0502292
-0.0504817
-0.0506773
-0.0507638
-0.0506933
-0.0503896
-0.0499252
-0.118517
-0.0521002
-0.0510711
-0.0507183
-0.0507614
-0.0511041
-0.0516346
-0.0522018
-0.052706
-0.0530806
-0.0533564
-0.0533008
-0.0525721
-0.0503779
-0.0509402
-0.0511895
-0.05109
-0.0507907
-0.0503018
-0.0494967
-0.0482437
-0.0468486
-0.0453395
-0.0437427
-0.0426001
-0.0435923
-0.0468176
-0.0390149
0
0
0.00121139
0.00460769
0.00702335
0.00795491
0.00734264
0.00509583
0.003493
0.000236289
-0.0031379
-0.006945
-0.0115707
-0.0172892
-0.0221338
-0.0273808
-0.0328387
-0.03953
-0.0396527
-0.0413544
-0.0441397
-0.0463421
-0.0481335
-0.0493198
-0.0501798
-0.0508775
-0.0514962
-0.0517373
-0.0521337
-0.0524301
-0.0525665
-0.0525222
-0.0524223
-0.0526972
-0.0547171
-0.0539077
-0.0532607
-0.0529869
-0.0530012
-0.0532038
-0.0534929
-0.0537887
-0.0540403
-0.0542145
-0.0541661
-0.0539621
-0.0534214
-0.0526153
-0.0524319
-0.0523484
-0.0521614
-0.0518508
-0.0513883
-0.0505963
-0.0491258
-0.0477938
-0.0464774
-0.0450422
-0.0436577
-0.0837212
-0.0288877
-0.0380571
0
0
0.000246649
0.00178204
0.00257592
0.00230589
0.000952956
-0.00128871
-0.00348805
-0.00610326
-0.00886922
-0.0119901
-0.0160384
-0.0230737
-0.0222095
-0.028582
-0.0319816
-0.032662
-0.0394182
-0.0439098
-0.0462274
-0.0480117
-0.0498868
-0.0508779
-0.0516781
-0.0523918
-0.0517373
-0.0536843
-0.0541496
-0.0544873
-0.0546541
-0.0545669
-0.0544403
-0.0546601
-0.0552999
-0.0553361
-0.0552105
-0.0551332
-0.0551723
-0.0552825
-0.0554154
-0.0555312
-0.055599
-0.0555872
-0.0554414
-0.0551769
-0.0547825
-0.0543455
-0.0540171
-0.053732
-0.0534161
-0.0530533
-0.0526539
-0.0521282
-0.0503018
-0.0492655
-0.0483021
-0.0472501
-0.0462137
-0.0450679
-0.0401913
-0.0391106
0
0
-0.000474558
-0.000307103
-0.000728825
-0.00196091
-0.00393947
-0.00643288
-0.00902025
-0.0116088
-0.0141509
-0.016753
-0.0192983
-0.0192476
-0.0261841
-0.0307102
-0.0339298
-0.0363503
-0.0408582
-0.0446212
-0.0472746
-0.0491439
-0.065516
-0.0523806
-0.053239
-0.0540837
-0.054998
-0.0555824
-0.056225
-0.0567566
-0.0570511
-0.0568435
-0.0562233
-0.0563267
-0.0567435
-0.0570238
-0.0571581
-0.0572209
-0.0573107
-0.0573852
-0.0574236
-0.0574214
-0.0573653
-0.057237
-0.0570182
-0.0567246
-0.0563768
-0.0560096
-0.0556363
-0.0552379
-0.0547878
-0.0542874
-0.0537699
-0.0532173
-0.051661
-0.0512826
-0.0505835
-0.0496679
-0.0486076
-0.047097
-0.0442518
-0.040855
0
0
-0.00103328
-0.00190727
-0.00327314
-0.00533556
-0.0078853
-0.010767
-0.0136909
-0.0164737
-0.0190933
-0.0216606
-0.0242276
-0.0267577
-0.0307828
-0.0344596
-0.0371197
-0.0399792
-0.0433096
-0.0463643
-0.0488909
-0.050976
-0.0528603
-0.0540327
-0.0550006
-0.0558398
-0.0563722
-0.0575585
-0.0585276
-0.0593553
-0.0599647
-0.0601034
-0.0570332
-0.0578065
-0.0585755
-0.0590133
-0.0592532
-0.0593993
-0.0594406
-0.0595337
-0.0595211
-0.0594425
-0.0593049
-0.0591014
-0.0588091
-0.0584746
-0.0581172
-0.0577414
-0.0573292
-0.0568474
-0.0562631
-0.0555659
-0.0546333
-0.0535815
-0.054923
-0.0541487
-0.0531425
-0.0521042
-0.0509254
-0.0492688
-0.0465876
-0.0427549
0
0
-0.00148382
-0.00318133
-0.00529276
-0.0100384
-0.0111883
-0.0145243
-0.0178282
-0.0209255
-0.0237999
-0.0265921
-0.0294308
-0.0324735
-0.0358608
-0.0391021
-0.0404217
-0.0434272
-0.0463527
-0.0489349
-0.0511917
-0.0530343
-0.0547283
-0.0559575
-0.0569663
-0.0578756
-0.058778
-0.0598989
-0.0611139
-0.062274
-0.0631505
-0.0634471
0
-0.0602239
-0.0609643
-0.061268
-0.0614582
-0.061608
-0.0617231
-0.0617335
-0.0617035
-0.0615753
-0.0613847
-0.0611535
-0.0607512
-0.0603574
-0.0599713
-0.0595752
-0.0591365
-0.0586019
-0.0579434
-0.0573234
-0.0566512
-0.056159
-0.0564964
-0.0561167
-0.0553404
-0.0543672
-0.0531493
-0.0514021
-0.0486233
-0.0446388
0
0
-0.00186586
-0.0042584
-0.0070712
-0.0103933
-0.0140763
-0.017898
-0.0216258
-0.0250977
-0.0283075
-0.031419
-0.0344962
-0.0376652
-0.0409317
-0.0443419
0
-0.0472877
-0.0498701
-0.0520274
-0.054093
-0.0557254
-0.0570567
-0.0581375
-0.0590871
-0.0600127
-0.0610353
-0.0623049
-0.0638993
-0.0655265
-0.0665259
-0.0652326
-0.0623597
-0.0625246
-0.0629597
-0.0633124
-0.0635849
-0.0638086
-0.0639878
-0.0640883
-0.0640255
-0.0638102
-0.0635568
-0.0634918
-0.0627757
-0.0623189
-0.0619137
-0.0615145
-0.0610816
-0.0605277
-0.059772
-0.0594106
-0.0590199
-0.0586537
-0.0584236
-0.0580235
-0.0573839
-0.056504
-0.0552836
-0.0534885
-0.0505985
-0.0464674
0
0
-0.00220005
-0.00518978
-0.00859488
-0.0123289
-0.0166655
-0.0209903
-0.0251666
-0.0290509
-0.0326245
-0.0368221
-0.0393539
-0.0425523
-0.0455562
-0.0480952
-0.049091
-0.0513079
-0.0533156
-0.0551485
-0.0574579
-0.0587866
-0.0597196
-0.0605295
-0.0613206
-0.0621612
-0.0631678
-0.0645617
-0.066696
-0.0693185
-0.0725129
-0.0683792
-0.065766
-0.0650895
-0.0651545
-0.0654201
-0.065726
-0.0660446
-0.0663272
-0.0666073
-0.0665097
-0.0661112
-0.0655373
-0.0645246
-0.0645818
-0.0642852
-0.0639129
-0.063541
-0.0631623
-0.0626407
-0.061574
-0.0617029
-0.0614877
-0.0610613
-0.0605658
-0.0600986
-0.0594939
-0.0586564
-0.0573464
-0.0555628
-0.0525394
-0.0482268
0
0
-0.00250277
-0.00602781
-0.0100384
-0.0146233
-0.0191645
-0.0239024
-0.0285211
-0.03284
-0.0368221
-0.0405594
-0.0440471
-0.0472902
-0.0501545
-0.0524517
-0.0540688
-0.0556301
-0.0570057
-0.0582941
-0.0616894
-0.0621492
-0.0624996
-0.0630047
-0.0635944
-0.0642559
-0.0650536
-0.0662328
-0.0685219
-0.0491433
-0.0891014
-0.0710895
-0.0674777
-0.0669359
-0.0670962
-0.067416
-0.0678167
-0.0683421
-0.0690606
-0.0694784
-0.0693148
-0.0686239
-0.0678476
-0.0671442
-0.0667354
-0.0663478
-0.0659577
-0.0656117
-0.0653198
-0.0649864
-0.0486196
-0.0643042
-0.0640515
-0.0634751
-0.0626704
-0.0623341
-0.0617562
-0.0610261
-0.060003
-0.0577871
-0.0544776
-0.0498945
0
0
-0.00278303
-0.00675557
-0.0112676
-0.0162354
-0.0214043
-0.026638
-0.0317219
-0.0364888
-0.0408766
-0.044914
-0.0486069
-0.0519327
-0.0547731
-0.0570128
-0.0586711
-0.0599313
-0.0608032
-0.0611217
-0.126824
-0.0651997
-0.0651756
-0.065516
-0.0659341
-0.0663283
-0.0666477
-0.0667214
-0.0657666
-0.0599527
-0.0329055
-0.0578437
-0.0649373
-0.0673567
-0.0684244
-0.0690921
-0.0697066
-0.0705067
-0.0716402
-0.0728396
-0.0728191
-0.0714602
-0.0702738
-0.069469
-0.0689121
-0.0684457
-0.0680023
-0.0676474
-0.0673213
-0.0669558
-0.0664259
-0.0668744
-0.0665815
-0.0660826
-0.065936
-0.0648828
-0.0640961
-0.0634768
-0.0622501
-0.0600796
-0.0564451
-0.051419
0
0
-0.00307901
-0.00737039
-0.0124022
-0.0178711
-0.0235561
-0.0292487
-0.0347931
-0.0400236
-0.0448292
-0.0491845
-0.0530532
-0.0564835
-0.0593725
-0.0616157
-0.0632214
-0.06434
-0.0651666
-0.0660414
-0.0683107
-0.0683527
-0.0683283
-0.0684124
-0.0685316
-0.0685911
-0.0684491
-0.0678097
-0.0660306
-0.0622958
-0.0571631
-0.0624628
-0.0663313
-0.0685254
-0.0697893
-0.0706442
-0.0713886
-0.07242
-0.0741882
-0.0769866
-0.0785954
-0.0747807
-0.0726005
-0.071557
-0.0709502
-0.0704733
-0.0699797
-0.0696648
-0.0693507
-0.0690876
-0.0691466
-0.0699549
-0.0692257
-0.0684958
-0.0680001
-0.0673168
-0.0660174
-0.0662312
-0.0650053
-0.0628324
-0.0587108
-0.0526969
0
0
-0.00346557
-0.000307103
-0.0135474
-0.0195273
-0.025694
-0.0316896
-0.0377376
-0.0434796
-0.0487326
-0.0534161
-0.0573565
-0.060909
-0.0639229
-0.066239
-0.0677986
-0.0687909
-0.0695012
-0.0702263
-0.0710736
-0.0713435
-0.071383
-0.0713512
-0.0712732
-0.0711009
-0.0707248
-0.0699483
-0.0685105
-0.0671123
-0.0669687
-0.0682262
-0.0696228
-0.0707606
-0.0716339
-0.07233
-0.0728698
-0.0737151
-0.0755304
-0.0804789
-0.0944904
-0.0774784
-0.0738548
-0.0729767
-0.0726166
-0.0723158
-0.0699797
-0.071671
-0.0713867
-0.0711474
-0.0714631
-0.0736456
-0.0717949
-0.0708504
-0.0705349
-0.0706482
-0.0721059
-0.0701452
-0.0685568
-0.0667066
-0.0622842
-0.0535366
0
0
-0.00356472
-0.00870814
-0.014636
-0.021195
-0.0278984
-0.0343179
-0.0407652
-0.0469719
-0.0526844
-0.0577188
-0.061391
-0.0651605
-0.0684318
-0.0709351
-0.0724377
-0.0732466
-0.0737435
-0.0742535
-0.0745749
-0.0746367
-0.0745466
-0.074379
-0.074154
-0.073854
-0.0734347
-0.0728481
-0.0720995
-0.0709998
-0.0730003
-0.0727822
-0.072904
-0.0733113
-0.0737578
-0.0741425
-0.0741465
-0.0740024
-0.0727896
-0.066828
-0.038717
-0.0642211
-0.0709496
-0.0730705
-0.0737237
-0.0738562
-0.0737483
-0.0736423
-0.0734429
-0.0731655
-0.0732252
-0.122378
-0.073804
-0.0731448
-0.073113
-0.0732618
-0.0734252
-0.072884
-0.0731001
-0.0723393
-0.0710935
-0.0693593
0
0
-0.00375266
-0.00938366
-0.0157088
-0.023038
-0.0302683
-0.0361529
-0.0434286
-0.0503815
-0.0567058
-0.0623026
-0.0647858
-0.0692758
-0.0729857
-0.0758321
-0.0771837
-0.077698
-0.0779173
-0.078434
-0.0784124
-0.0781691
-0.0778601
-0.0775271
-0.0771692
-0.0767872
-0.0763855
-0.0759714
-0.0753888
-0.0741393
-0.130605
-0.0760898
-0.0757593
-0.0758769
-0.0760341
-0.0759558
-0.0758555
-0.0749863
-0.0729325
-0.0687602
-0.0630168
-0.067912
-0.0720031
-0.0740128
-0.0749757
-0.0754404
-0.0756389
-0.0757084
-0.0757185
-0.0757761
-0.0762292
-0.0777273
-0.0765509
-0.0759828
-0.0758905
-0.0759676
-0.0760259
-0.0761241
-0.0763903
-0.0760307
-0.0743262
-0.0701821
0
0
-0.00397495
-0.0100092
-0.0165898
-0.0371103
-0.0329073
0
-0.0463381
-0.0539147
-0.0608294
-0.0674253
-0.00802137
-0.0737928
-0.0776259
-0.0810726
-0.0820297
-0.0821185
-0.0819481
-0.0830174
-0.0824166
-0.0817824
-0.0812518
-0.0807611
-0.0802738
-0.0798099
-0.0794187
-0.0792883
-0.0798093
-0.0784732
-0.0797195
-0.0791515
-0.0788188
-0.0787539
-0.078755
-0.078526
-0.0779839
-0.0769549
-0.0753502
-0.0733809
-0.0722755
-0.0732902
-0.0748237
-0.0759763
-0.0767336
-0.077309
-0.0776746
-0.0778769
-0.0780496
-0.0782568
-0.0785742
-0.0789339
-0.0787068
-0.0785649
-0.0786204
-0.0787518
-0.0788097
-0.0790096
-0.0791006
-0.0785013
-0.0762585
-0.0714772
0
0
-0.00421823
-0.010692
-0.0178694
-0.0260241
-0.0340699
-0.0411153
-0.0493308
-0.0571876
-0.0643312
-0.0704291
-0.073877
-0.078289
-0.0814254
-0.0865401
-0.0869596
-0.0864633
-0.0856616
-0.122314
-0.0861643
-0.0853028
-0.0846613
-0.0840586
-0.0834173
-0.0828237
-0.0822549
-0.0814801
-0.0791277
-0.0808501
-0.0815331
-0.0815752
-0.0815202
-0.0815931
-0.081764
-0.0815704
-0.0807021
-0.0796446
-0.0784879
-0.0775237
-0.0771963
-0.0774508
-0.0779785
-0.0784854
-0.0787663
-0.0794881
-0.0799249
-0.0801355
-0.0803878
-0.0806301
-0.0808163
-0.0808492
-0.0807823
-0.0809372
-0.0812256
-0.0815003
-0.0814487
-0.0816099
-0.0814526
-0.0804869
-0.077995
-0.07302
0
0
-0.00445846
-0.0113455
-0.0189598
-0.0272346
-0.0357088
-0.0440317
-0.0524524
-0.0605957
-0.0680736
-0.0746033
-0.0792608
-0.0831477
-0.0855065
-0.17259
-0.0911046
-0.0905048
-0.0901553
-0.0906312
-0.0898443
-0.089015
-0.0882447
-0.0874738
-0.0865703
-0.0858479
-0.0852255
-0.0845496
-0.0838149
-0.0839082
-0.084008
-0.0840059
-0.0840442
-0.0843358
-0.0850645
-0.0855509
-0.0838237
-0.0826379
-0.0816023
-0.0809726
-0.0807487
-0.0807917
-0.0809905
-0.0813268
-0.0821325
-0.0820696
-0.082373
-0.0824705
-0.0827736
-0.0830269
-0.0831483
-0.0829743
-0.0827534
-0.0831954
-0.0837097
-0.0841732
-0.0839866
-0.0841377
-0.0836388
-0.0821736
-0.0797241
-0.0747236
0
0
-0.00469378
-0.0119809
-0.0200098
-0.0286541
-0.0376237
-0.0466069
-0.0553589
-0.0640233
-0.0721164
-0.0800352
-0.0841993
-0.0883618
-0.0915931
-0.095318
-0.0954915
-0.094994
-0.0944055
-0.0941097
-0.093444
-0.0926446
-0.0918278
-0.0909466
-0.0895711
-0.0888355
-0.0883001
-0.0877697
-0.0872879
-0.0869114
-0.086651
-0.0864474
-0.0863556
-0.0866587
-0.0881653
-0.0931222
-0.0867227
-0.0857115
-0.0842936
-0.0838512
-0.0836927
-0.0836803
-0.0837359
-0.0838501
-0.0841519
-0.0843653
-0.0845695
-0.0850711
-0.0852945
-0.085513
-0.0856243
-0.085135
-0.0842677
-0.0855607
-0.0860719
-0.0862295
-0.0871073
-0.0868919
-0.0858085
-0.0833892
-0.0814852
-0.0765596
0
0
-0.00492971
-0.0126223
-0.0210901
-0.0302039
-0.0397035
-0.049175
-0.0577326
-0.0673257
-0.075221
-0.0801433
-0.088013
-0.0930906
-0.0966384
-0.0989695
-0.0996172
-0.0992098
-0.0980763
-0.0979682
-0.0971871
-0.0963035
-0.0954547
-0.094574
-0.0921505
-0.0918009
-0.091468
-0.090969
-0.0904228
-0.0896788
-0.0892649
-0.0887919
-0.0882494
-0.0875922
-0.0853695
-0.0741123
-0.0831012
-0.0838802
-0.0857236
-0.0861268
-0.0862442
-0.0862933
-0.0862728
-0.0861477
-0.086366
-0.0867128
-0.0870532
-0.087423
-0.0877039
-0.0879853
-0.0882444
-0.0875254
-0.0851857
-0.0882944
-0.0888329
-0.0890652
-0.0895052
-0.0894503
-0.088072
-0.0837212
-0.0834702
-0.0784995
0
0
-0.00516913
-0.0132797
-0.022216
-0.0318626
-0.0420014
-0.052387
-0.0635488
-0.0715106
-0.0793996
-0.0863944
-0.0929629
-0.0980219
-0.101494
-0.103474
-0.104158
-0.104087
-0.104493
-0.102455
-0.101102
-0.0999843
-0.0990868
-0.0984888
-0.0540837
-0.0951351
-0.0947841
-0.094117
-0.0934289
-0.0869114
-0.0918621
-0.0911479
-0.0899946
-0.089358
-0.0875846
-0.0850024
-0.0863411
-0.0871699
-0.0879715
-0.0884155
-0.0886654
-0.0888044
-0.0887292
-0.0881758
-0.0885617
-0.0890836
-0.0894983
-0.0898184
-0.0900725
-0.0902974
-0.0905074
-0.0908681
-0.0311772
-0.105212
-0.091534
-0.0916495
-0.0919161
-0.0920312
-0.0910101
-0.0226551
-0.0861969
-0.0804578
0
0
-0.00540969
-0.0139463
-0.0233705
-0.0335746
-0.0443274
-0.0553071
-0.0660478
-0.0748355
-0.083468
-0.0913085
-0.0979665
-0.103051
-0.106453
-0.108272
-0.108846
-0.108602
-0.1078
-0.106294
-0.104823
-0.103504
-0.102329
-0.101049
-0.099029
-0.098392
-0.0978105
-0.096912
-0.0960305
-0.0951231
-0.0944969
-0.0939467
-0.0939803
-0.0922906
-0.0909854
-0.0901062
-0.0900799
-0.0903132
-0.0906222
-0.090901
-0.0911516
-0.0913685
-0.0912899
-0.0897589
-0.0907987
-0.0915417
-0.0919599
-0.0922308
-0.092438
-0.0926057
-0.092699
-0.0925129
-0.0911356
-0.0931729
-0.093695
-0.0939246
-0.0940398
-0.0938371
-0.0926105
-0.0892864
-0.0877103
-0.0822854
0
0
-0.00564348
-0.0146018
-0.0245293
-0.0353232
-0.0467101
-0.0583378
-0.0696825
-0.0776644
-0.0874428
-0.0960832
-0.103047
-0.108212
-0.111533
-0.113191
-0.113596
-0.11314
-0.111751
-0.110007
-0.108356
-0.106889
-0.10564
-0.10442
-0.102841
-0.101828
-0.100984
-0.099587
-0.0985885
-0.0977918
-0.0971263
-0.096514
-0.0959138
-0.0949737
-0.0941164
-0.093543
-0.0932744
-0.0932189
-0.0932885
-0.093434
-0.0936478
-0.093947
-0.0941498
-0.057237
-0.0934422
-0.0941011
-0.0944027
-0.0946135
-0.0947912
-0.0949326
-0.0950055
-0.0949562
-0.0948498
-0.095437
-0.0958674
-0.0961159
-0.0961829
-0.0959303
-0.0949486
-0.0932011
-0.0900526
-0.0841759
0
0
-0.00585358
-0.015205
-0.0256602
-0.0371103
-0.0491664
-0.0615475
-0.0741768
-0.017387
-0.0920945
-0.101225
-0.108348
-0.113481
-0.116686
-0.118122
-0.118347
-0.117882
-0.115744
-0.113546
-0.111727
-0.110165
-0.109027
-0.107626
-0.106148
-0.104881
-0.103956
-0.102028
-0.10117
-0.100462
-0.0997648
-0.0990702
-0.0983516
-0.0975972
-0.096915
-0.0963953
-0.096055
-0.095879
-0.0958335
-0.0958868
-0.0960066
-0.0961222
-0.09599
-0.0950139
-0.0957379
-0.0962904
-0.0966494
-0.0969116
-0.0971233
-0.0972916
-0.0974129
-0.0975065
-0.0976499
-0.0979168
-0.0981968
-0.098411
-0.0985044
-0.0984343
-0.0982058
-0.096222
-0.0924796
-0.0861676
0
0
-0.00600622
-0.015668
-0.0267487
-0.0389669
-0.0516317
-0.0644033
-0.0766279
-0.0863575
-0.0970213
-0.106221
-0.1135
-0.11871
-0.121823
-0.123018
-0.122729
-0.122934
-0.119339
-0.116836
-0.115039
-0.1134
-0.11268
-0.110923
-0.109157
-0.107429
-0.105372
-0.10522
-0.104264
-0.103301
-0.102432
-0.101626
-0.100859
-0.100133
-0.0994834
-0.0989481
-0.0985609
-0.0983289
-0.0982322
-0.0982399
-0.098312
-0.0983768
-0.0983207
-0.0981192
-0.0983021
-0.098609
-0.0989245
-0.0992104
-0.0994632
-0.0996725
-0.099837
-0.0999918
-0.100172
-0.100379
-0.100603
-0.100802
-0.100899
-0.100822
-0.100366
-0.0987221
-0.0947953
-0.0882297
0
0
-0.00605163
-0.0157642
-0.0280674
-0.0409098
-0.0542294
-0.0675475
-0.0802691
-0.0917834
-0.102437
-0.111622
-0.118923
-0.12409
-0.127102
-0.128319
-0.129261
-0.128278
-0.122314
-0.120494
-0.118769
-0.116772
-0.137365
-0.114054
-0.112119
-0.110305
-0.108348
-0.107428
-0.106574
-0.105707
-0.104855
-0.104037
-0.103259
-0.10253
-0.101862
-0.101274
-0.100843
-0.10059
-0.100487
-0.100498
-0.100592
-0.100712
-0.100767
-0.100695
-0.100748
-0.100963
-0.101257
-0.101551
-0.101836
-0.102076
-0.102249
-0.102419
-0.102607
-0.102809
-0.103032
-0.103248
-0.103317
-0.103162
-0.102662
-0.101099
-0.0970815
-0.0903303
0
0
-0.00611072
-0.0145196
-0.0295371
-0.0433952
-0.0573298
-0.071224
-0.084602
-0.0969406
-0.107916
-0.117236
-0.124555
-0.12961
-0.132338
-0.132928
-0.13142
-0.126649
-0.12883
-0.126585
-0.123755
-0.121216
-0.119469
-0.117198
-0.11515
-0.113305