# vtk DataFile Version 2.0
FlowField
ASCII
DATASET STRUCTURED_GRID
DIMENSIONS 62 47 32 
POINTS 93248 double
0 0 0
0.01 0 0
0.02 0 0
0.03 0 0
0.04 0 0
0.05 0 0
0.06 0 0
0.07 0 0
0.08 0 0
0.09 0 0
0.1 0 0
0.11 0 0
0.12 0 0
0.13 0 0
0.14 0 0
0.15 0 0
0.16 0 0
0.17 0 0
0.18 0 0
0.19 0 0
0.2 0 0
0.21 0 0
0.22 0 0
0.23 0 0
0.24 0 0
0.25 0 0
0.26 0 0
0.27 0 0
0.28 0 0
0.29 0 0
0.3 0 0
0.31 0 0
0.32 0 0
0.33 0 0
0.34 0 0
0.35 0 0
0.36 0 0
0.37 0 0
0.38 0 0
0.39 0 0
0.4 0 0
0.41 0 0
0.42 0 0
0.43 0 0
0.44 0 0
0.45 0 0
0.46 0 0
0.47 0 0
0.48 0 0
0.49 0 0
0.5 0 0
0.51 0 0
0.52 0 0
0.53 0 0
0.54 0 0
0.55 0 0
0.56 0 0
0.57 0 0
0.58 0 0
0.59 0 0
0.6 0 0
0.61 0 0
0 0.01 0
0.01 0.01 0
0.02 0.01 0
0.03 0.01 0
0.04 0.01 0
0.05 0.01 0
0.06 0.01 0
0.07 0.01 0
0.08 0.01 0
0.09 0.01 0
0.1 0.01 0
0.11 0.01 0
0.12 0.01 0
0.13 0.01 0
0.14 0.01 0
0.15 0.01 0
0.16 0.01 0
0.17 0.01 0
0.18 0.01 0
0.19 0.01 0
0.2 0.01 0
0.21 0.01 0
0.22 0.01 0
0.23 0.01 0
0.24 0.01 0
0.25 0.01 0
0.26 0.01 0
0.27 0.01 0
0.28 0.01 0
0.29 0.01 0
0.3 0.01 0
0.31 0.01 0
0.32 0.01 0
0.33 0.01 0
0.34 0.01 0
0.35 0.01 0
0.36 0.01 0
0.37 0.01 0
0.38 0.01 0
0.39 0.01 0
0.4 0.01 0
0.41 0.01 0
0.42 0.01 0
0.43 0.01 0
0.44 0.01 0
0.45 0.01 0
0.46 0.01 0
0.47 0.01 0
0.48 0.01 0
0.49 0.01 0
0.5 0.01 0
0.51 0.01 0
0.52 0.01 0
0.53 0.01 0
0.54 0.01 0
0.55 0.01 0
0.56 0.01 0
0.57 0.01 0
0.58 0.01 0
0.59 0.01 0
0.6 0.01 0
0.61 0.01 0
0 0.02 0
0.01 0.02 0
0.02 0.02 0
0.03 0.02 0
0.04 0.02 0
0.05 0.02 0
0.06 0.02 0
0.07 0.02 0
0.08 0.02 0
0.09 0.02 0
0.1 0.02 0
0.11 0.02 0
0.12 0.02 0
0.13 0.02 0
0.14 0.02 0
0.15 0.02 0
0.16 0.02 0
0.17 0.02 0
0.18 0.02 0
0.19 0.02 0
0.2 0.02 0
0.21 0.02 0
0.22 0.02 0
0.23 0.02 0
0.24 0.02 0
0.25 0.02 0
0.26 0.02 0
0.27 0.02 0
0.28 0.02 0
0.29 0.02 0
0.3 0.02 0
0.31 0.02 0
0.32 0.02 0
0.33 0.02 0
0.34 0.02 0
0.35 0.02 0
0.36 0.02 0
0.37 0.02 0
0.38 0.02 0
0.39 0.02 0
0.4 0.02 0
0.41 0.02 0
0.42 0.02 0
0.43 0.02 0
0.44 0.02 0
0.45 0.02 0
0.46 0.02 0
0.47 0.02 0
0.48 0.02 0
0.49 0.02 0
0.5 0.02 0
0.51 0.02 0
0.52 0.02 0
0.53 0.02 0
0.54 0.02 0
0.55 0.02 0
0.56 0.02 0
0.57 0.02 0
0.58 0.02 0
0.59 0.02 0
0.6 0.02 0
0.61 0.02 0
0 0.03 0
0.01 0.03 0
0.02 0.03 0
0.03 0.03 0
0.04 0.03 0
0.05 0.03 0
0.06 0.03 0
0.07 0.03 0
0.08 0.03 0
0.09 0.03 0
0.1 0.03 0
0.11 0.03 0
0.12 0.03 0
0.13 0.03 0
0.14 0.03 0
0.15 0.03 0
0.16 0.03 0
0.17 0.03 0
0.18 0.03 0
0.19 0.03 0
0.2 0.03 0
0.21 0.03 0
0.22 0.03 0
0.23 0.03 0
0.24 0.03 0
0.25 0.03 0
0.26 0.03 0
0.27 0.03 0
0.28 0.03 0
0.29 0.03 0
0.3 0.03 0
0.31 0.03 0
0.32 0.03 0
0.33 0.03 0
0.34 0.03 0
0.35 0.03 0
0.36 0.03 0
0.37 0.03 0
0.38 0.03 0
0.39 0.03 0
0.4 0.03 0
0.41 0.03 0
0.42 0.03 0
0.43 0.03 0
0.44 0.03 0
0.45 0.03 0
0.46 0.03 0
0.47 0.03 0
0.48 0.03 0
0.49 0.03 0
0.5 0.03 0
0.51 0.03 0
0.52 0.03 0
0.53 0.03 0
0.54 0.03 0
0.55 0.03 0
0.56 0.03 0
0.57 0.03 0
0.58 0.03 0
0.59 0.03 0
0.6 0.03 0
0.61 0.03 0
0 0.04 0
0.01 0.04 0
0.02 0.04 0
0.03 0.04 0
0.04 0.04 0
0.05 0.04 0
0.06 0.04 0
0.07 0.04 0
0.08 0.04 0
0.09 0.04 0
0.1 0.04 0
0.11 0.04 0
0.12 0.04 0
0.13 0.04 0
0.14 0.04 0
0.15 0.04 0
0.16 0.04 0
0.17 0.04 0
0.18 0.04 0
0.19 0.04 0
0.2 0.04 0
0.21 0.04 0
0.22 0.04 0
0.23 0.04 0
0.24 0.04 0
0.25 0.04 0
0.26 0.04 0
0.27 0.04 0
0.28 0.04 0
0.29 0.04 0
0.3 0.04 0
0.31 0.04 0
0.32 0.04 0
0.33 0.04 0
0.34 0.04 0
0.35 0.04 0
0.36 0.04 0
0.37 0.04 0
0.38 0.04 0
0.39 0.04 0
0.4 0.04 0
0.41 0.04 0
0.42 0.04 0
0.43 0.04 0
0.44 0.04 0
0.45 0.04 0
0.46 0.04 0
0.47 0.04 0
0.48 0.04 0
0.49 0.04 0
0.5 0.04 0
0.51 0.04 0
0.52 0.04 0
0.53 0.04 0
0.54 0.04 0
0.55 0.04 0
0.56 0.04 0
0.57 0.04 0
0.58 0.04 0
0.59 0.04 0
0.6 0.04 0
0.61 0.04 0
0 0.05 0
0.01 0.05 0
0.02 0.05 0
0.03 0.05 0
0.04 0.05 0
0.05 0.05 0
0.06 0.05 0
0.07 0.05 0
0.08 0.05 0
0.09 0.05 0
0.1 0.05 0
0.11 0.05 0
0.12 0.05 0
0.13 0.05 0
0.14 0.05 0
0.15 0.05 0
0.16 0.05 0
0.17 0.05 0
0.18 0.05 0
0.19 0.05 0
0.2 0.05 0
0.21 0.05 0
0.22 0.05 0
0.23 0.05 0
0.24 0.05 0
0.25 0.05 0
0.26 0.05 0
0.27 0.05 0
0.28 0.05 0
0.29 0.05 0
0.3 0.05 0
0.31 0.05 0
0.32 0.05 0
0.33 0.05 0
0.34 0.05 0
0.35 0.05 0
0.36 0.05 0
0.37 0.05 0
0.38 0.05 0
0.39 0.05 0
0.4 0.05 0
0.41 0.05 0
0.42 0.05 0
0.43 0.05 0
0.44 0.05 0
0.45 0.05 0
0.46 0.05 0
0.47 0.05 0
0.48 0.05 0
0.49 0.05 0
0.5 0.05 0
0.51 0.05 0
0.52 0.05 0
0.53 0.05 0
0.54 0.05 0
0.55 0.05 0
0.56 0.05 0
0.57 0.05 0
0.58 0.05 0
0.59 0.05 0
0.6 0.05 0
0.61 0.05 0
0 0.06 0
0.01 0.06 0
0.02 0.06 0
0.03 0.06 0
0.04 0.06 0
0.05 0.06 0
0.06 0.06 0
0.07 0.06 0
0.08 0.06 0
0.09 0.06 0
0.1 0.06 0
0.11 0.06 0
0.12 0.06 0
0.13 0.06 0
0.14 0.06 0
0.15 0.06 0
0.16 0.06 0
0.17 0.06 0
0.18 0.06 0
0.19 0.06 0
0.2 0.06 0
0.21 0.06 0
0.22 0.06 0
0.23 0.06 0
0.24 0.06 0
0.25 0.06 0
0.26 0.06 0
0.27 0.06 0
0.28 0.06 0
0.29 0.06 0
0.3 0.06 0
0.31 0.06 0
0.32 0.06 0
0.33 0.06 0
0.34 0.06 0
0.35 0.06 0
0.36 0.06 0
0.37 0.06 0
0.38 0.06 0
0.39 0.06 0
0.4 0.06 0
0.41 0.06 0
0.42 0.06 0
0.43 0.06 0
0.44 0.06 0
0.45 0.06 0
0.46 0.06 0
0.47 0.06 0
0.48 0.06 0
0.49 0.06 0
0.5 0.06 0
0.51 0.06 0
0.52 0.06 0
0.53 0.06 0
0.54 0.06 0
0.55 0.06 0
0.56 0.06 0
0.57 0.06 0
0.58 0.06 0
0.59 0.06 0
0.6 0.06 0
0.61 0.06 0
0 0.07 0
0.01 0.07 0
0.02 0.07 0
0.03 0.07 0
0.04 0.07 0
0.05 0.07 0
0.06 0.07 0
0.07 0.07 0
0.08 0.07 0
0.09 0.07 0
0.1 0.07 0
0.11 0.07 0
0.12 0.07 0
0.13 0.07 0
0.14 0.07 0
0.15 0.07 0
0.16 0.07 0
0.17 0.07 0
0.18 0.07 0
0.19 0.07 0
0.2 0.07 0
0.21 0.07 0
0.22 0.07 0
0.23 0.07 0
0.24 0.07 0
0.25 0.07 0
0.26 0.07 0
0.27 0.07 0
0.28 0.07 0
0.29 0.07 0
0.3 0.07 0
0.31 0.07 0
0.32 0.07 0
0.33 0.07 0
0.34 0.07 0
0.35 0.07 0
0.36 0.07 0
0.37 0.07 0
0.38 0.07 0
0.39 0.07 0
0.4 0.07 0
0.41 0.07 0
0.42 0.07 0
0.43 0.07 0
0.44 0.07 0
0.45 0.07 0
0.46 0.07 0
0.47 0.07 0
0.48 0.07 0
0.49 0.07 0
0.5 0.07 0
0.51 0.07 0
0.52 0.07 0
0.53 0.07 0
0.54 0.07 0
0.55 0.07 0
0.56 0.07 0
0.57 0.07 0
0.58 0.07 0
0.59 0.07 0
0.6 0.07 0
0.61 0.07 0
0 0.08 0
0.01 0.08 0
0.02 0.08 0
0.03 0.08 0
0.04 0.08 0
0.05 0.08 0
0.06 0.08 0
0.07 0.08 0
0.08 0.08 0
0.09 0.08 0
0.1 0.08 0
0.11 0.08 0
0.12 0.08 0
0.13 0.08 0
0.14 0.08 0
0.15 0.08 0
0.16 0.08 0
0.17 0.08 0
0.18 0.08 0
0.19 0.08 0
0.2 0.08 0
0.21 0.08 0
0.22 0.08 0
0.23 0.08 0
0.24 0.08 0
0.25 0.08 0
0.26 0.08 0
0.27 0.08 0
0.28 0.08 0
0.29 0.08 0
0.3 0.08 0
0.31 0.08 0
0.32 0.08 0
0.33 0.08 0
0.34 0.08 0
0.35 0.08 0
0.36 0.08 0
0.37 0.08 0
0.38 0.08 0
0.39 0.08 0
0.4 0.08 0
0.41 0.08 0
0.42 0.08 0
0.43 0.08 0
0.44 0.08 0
0.45 0.08 0
0.46 0.08 0
0.47 0.08 0
0.48 0.08 0
0.49 0.08 0
0.5 0.08 0
0.51 0.08 0
0.52 0.08 0
0.53 0.08 0
0.54 0.08 0
0.55 0.08 0
0.56 0.08 0
0.57 0.08 0
0.58 0.08 0
0.59 0.08 0
0.6 0.08 0
0.61 0.08 0
0 0.09 0
0.01 0.09 0
0.02 0.09 0
0.03 0.09 0
0.04 0.09 0
0.05 0.09 0
0.06 0.09 0
0.07 0.09 0
0.08 0.09 0
0.09 0.09 0
0.1 0.09 0
0.11 0.09 0
0.12 0.09 0
0.13 0.09 0
0.14 0.09 0
0.15 0.09 0
0.16 0.09 0
0.17 0.09 0
0.18 0.09 0
0.19 0.09 0
0.2 0.09 0
0.21 0.09 0
0.22 0.09 0
0.23 0.09 0
0.24 0.09 0
0.25 0.09 0
0.26 0.09 0
0.27 0.09 0
0.28 0.09 0
0.29 0.09 0
0.3 0.09 0
0.31 0.09 0
0.32 0.09 0
0.33 0.09 0
0.34 0.09 0
0.35 0.09 0
0.36 0.09 0
0.37 0.09 0
0.38 0.09 0
0.39 0.09 0
0.4 0.09 0
0.41 0.09 0
0.42 0.09 0
0.43 0.09 0
0.44 0.09 0
0.45 0.09 0
0.46 0.09 0
0.47 0.09 0
0.48 0.09 0
0.49 0.09 0
0.5 0.09 0
0.51 0.09 0
0.52 0.09 0
0.53 0.09 0
0.54 0.09 0
0.55 0.09 0
0.56 0.09 0
0.57 0.09 0
0.58 0.09 0
0.59 0.09 0
0.6 0.09 0
0.61 0.09 0
0 0.1 0
0.01 0.1 0
0.02 0.1 0
0.03 0.1 0
0.04 0.1 0
0.05 0.1 0
0.06 0.1 0
0.07 0.1 0
0.08 0.1 0
0.09 0.1 0
0.1 0.1 0
0.11 0.1 0
0.12 0.1 0
0.13 0.1 0
0.14 0.1 0
0.15 0.1 0
0.16 0.1 0
0.17 0.1 0
0.18 0.1 0
0.19 0.1 0
0.2 0.1 0
0.21 0.1 0
0.22 0.1 0
0.23 0.1 0
0.24 0.1 0
0.25 0.1 0
0.26 0.1 0
0.27 0.1 0
0.28 0.1 0
0.29 0.1 0
0.3 0.1 0
0.31 0.1 0
0.32 0.1 0
0.33 0.1 0
0.34 0.1 0
0.35 0.1 0
0.36 0.1 0
0.37 0.1 0
0.38 0.1 0
0.39 0.1 0
0.4 0.1 0
0.41 0.1 0
0.42 0.1 0
0.43 0.1 0
0.44 0.1 0
0.45 0.1 0
0.46 0.1 0
0.47 0.1 0
0.48 0.1 0
0.49 0.1 0
0.5 0.1 0
0.51 0.1 0
0.52 0.1 0
0.53 0.1 0
0.54 0.1 0
0.55 0.1 0
0.56 0.1 0
0.57 0.1 0
0.58 0.1 0
0.59 0.1 0
0.6 0.1 0
0.61 0.1 0
0 0.11 0
0.01 0.11 0
0.02 0.11 0
0.03 0.11 0
0.04 0.11 0
0.05 0.11 0
0.06 0.11 0
0.07 0.11 0
0.08 0.11 0
0.09 0.11 0
0.1 0.11 0
0.11 0.11 0
0.12 0.11 0
0.13 0.11 0
0.14 0.11 0
0.15 0.11 0
0.16 0.11 0
0.17 0.11 0
0.18 0.11 0
0.19 0.11 0
0.2 0.11 0
0.21 0.11 0
0.22 0.11 0
0.23 0.11 0
0.24 0.11 0
0.25 0.11 0
0.26 0.11 0
0.27 0.11 0
0.28 0.11 0
0.29 0.11 0
0.3 0.11 0
0.31 0.11 0
0.32 0.11 0
0.33 0.11 0
0.34 0.11 0
0.35 0.11 0
0.36 0.11 0
0.37 0.11 0
0.38 0.11 0
0.39 0.11 0
0.4 0.11 0
0.41 0.11 0
0.42 0.11 0
0.43 0.11 0
0.44 0.11 0
0.45 0.11 0
0.46 0.11 0
0.47 0.11 0
0.48 0.11 0
0.49 0.11 0
0.5 0.11 0
0.51 0.11 0
0.52 0.11 0
0.53 0.11 0
0.54 0.11 0
0.55 0.11 0
0.56 0.11 0
0.57 0.11 0
0.58 0.11 0
0.59 0.11 0
0.6 0.11 0
0.61 0.11 0
0 0.12 0
0.01 0.12 0
0.02 0.12 0
0.03 0.12 0
0.04 0.12 0
0.05 0.12 0
0.06 0.12 0
0.07 0.12 0
0.08 0.12 0
0.09 0.12 0
0.1 0.12 0
0.11 0.12 0
0.12 0.12 0
0.13 0.12 0
0.14 0.12 0
0.15 0.12 0
0.16 0.12 0
0.17 0.12 0
0.18 0.12 0
0.19 0.12 0
0.2 0.12 0
0.21 0.12 0
0.22 0.12 0
0.23 0.12 0
0.24 0.12 0
0.25 0.12 0
0.26 0.12 0
0.27 0.12 0
0.28 0.12 0
0.29 0.12 0
0.3 0.12 0
0.31 0.12 0
0.32 0.12 0
0.33 0.12 0
0.34 0.12 0
0.35 0.12 0
0.36 0.12 0
0.37 0.12 0
0.38 0.12 0
0.39 0.12 0
0.4 0.12 0
0.41 0.12 0
0.42 0.12 0
0.43 0.12 0
0.44 0.12 0
0.45 0.12 0
0.46 0.12 0
0.47 0.12 0
0.48 0.12 0
0.49 0.12 0
0.5 0.12 0
0.51 0.12 0
0.52 0.12 0
0.53 0.12 0
0.54 0.12 0
0.55 0.12 0
0.56 0.12 0
0.57 0.12 0
0.58 0.12 0
0.59 0.12 0
0.6 0.12 0
0.61 0.12 0
0 0.13 0
0.01 0.13 0
0.02 0.13 0
0.03 0.13 0
0.04 0.13 0
0.05 0.13 0
0.06 0.13 0
0.07 0.13 0
0.08 0.13 0
0.09 0.13 0
0.1 0.13 0
0.11 0.13 0
0.12 0.13 0
0.13 0.13 0
0.14 0.13 0
0.15 0.13 0
0.16 0.13 0
0.17 0.13 0
0.18 0.13 0
0.19 0.13 0
0.2 0.13 0
0.21 0.13 0
0.22 0.13 0
0.23 0.13 0
0.24 0.13 0
0.25 0.13 0
0.26 0.13 0
0.27 0.13 0
0.28 0.13 0
0.29 0.13 0
0.3 0.13 0
0.31 0.13 0
0.32 0.13 0
0.33 0.13 0
0.34 0.13 0
0.35 0.13 0
0.36 0.13 0
0.37 0.13 0
0.38 0.13 0
0.39 0.13 0
0.4 0.13 0
0.41 0.13 0
0.42 0.13 0
0.43 0.13 0
0.44 0.13 0
0.45 0.13 0
0.46 0.13 0
0.47 0.13 0
0.48 0.13 0
[...]
POINT_DATA 93248

SCALARS w double
LOOKUP_TABLE default
0
0
0
0
0
0
0
0
0
0
0
0
0
-0.0329465
0
0
0
0
0
0
0
0
0
0
0
0
-0.0508648
0
0
0
0
0
-0.0478668
0
0
0
0
0
0
0
0
0
0
0
0
0
-0.0455836
0
0
0
0
0
0
0
0
0
0
0
0
0
0
0
0
-0.0112016
-0.0192835
-0.0246121
-0.0265508
-0.0266069
-0.0267136
-0.0273054
-0.0282221
-0.0290513
-0.0296388
-0.0300525
-0.0302117
-0.0304852
-0.0307578
-0.0310133
-0.0311944
-0.0314036
-0.0316281
-0.0318325
-0.0303997
-0.0302795
-0.0305629
-0.0307872
-0.0309013
-0.0309425
-0.0309468
-0.0309329
-0.0309073
-0.0308698
-0.0308127
-0.030714
-0.0305408
-0.0304729
-0.0303356
-0.0298787
-0.0290919
-0.0283118
-0.0289346
-0.0368144
-0.0304008
-0.0313525
-0.031809
-0.0319021
-0.0322531
-0.0480616
-0.0311227
-0.0309137
-0.0309236
-0.0312333
-0.0316359
-0.0321799
-0.0301598
-0.0312461
-0.0480148
-0.0319485
-0.0315426
-0.0300392
-0.0304812
-0.0304708
-0.0288726
0
0
-0.0136546
-0.0298307
-0.0365725
-0.0391282
-0.0390621
-0.0389663
-0.0400965
-0.0421994
-0.0443242
-0.0458587
-0.0469504
-0.04736
-0.0479669
-0.0484369
-0.0488476
-0.0491014
-0.0494999
-0.0499447
-0.0510986
-0.0476042
-0.0478087
-0.0502955
-0.0486839
-0.0488419
-0.0489075
-0.0489207
-0.0489064
-0.0488758
-0.048831
-0.0487652
-0.0486462
-0.0483599
-0.0483075
-0.0482548
-0.0475507
-0.0465195
-0.0442089
-0.0412455
-0.0545984
-0.0530095
-0.0517806
-0.0509067
-0.050339
-0.0503793
-0.050796
-0.0500558
-0.049232
-0.0490083
-0.0492676
-0.0493682
-0.048204
-0.0487142
-0.0492357
-0.0500396
-0.0498511
-0.0497255
-0.0485279
-0.0485402
-0.0479716
-0.0449087
0
0
-0.0134757
-0.0293129
-0.0374043
-0.0408203
-0.0266069
-0.0402332
-0.0413913
-0.0436516
-0.0460947
-0.0478915
-0.0494575
-0.0507128
-0.0510685
-0.0512222
-0.0512754
-0.0515662
-0.0521792
-0.0523165
-0.0526435
-0.0521238
-0.0516487
-0.0515345
-0.0515514
-0.0515831
-0.0515961
-0.0515894
-0.0515684
-0.0515371
-0.0514978
-0.0514556
-0.0514365
-0.0515072
-0.0498834
-0.0513296
-0.0502258
-0.0495984
-0.0484764
-0.0477495
-0.0529695
-0.0542096
-0.053946
-0.0534338
-0.0526896
-0.0527705
-0.0532174
-0.0518754
-0.051518
-0.0512343
-0.0520163
-0.0519143
-0.0517513
-0.0516224
-0.0517888
-0.0520526
-0.0521082
-0.0521593
-0.0520764
-0.0516013
-0.0506583
-0.0471139
0
0
-0.0131136
-0.0284439
-0.027419
-0.0400668
-0.0405857
-0.0405595
-0.0414484
-0.0434947
-0.0457904
-0.0475744
-0.0489104
-0.0498646
-0.0503331
-0.0505352
-0.0505309
-0.05064
-0.0504368
-0.0508134
-0.0511576
-0.0512124
-0.0511285
-0.0510666
-0.0510367
-0.0510195
-0.0510019
-0.0509797
-0.0509521
-0.0509193
-0.0508819
-0.0508416
-0.0508045
-0.0507706
-0.0505837
-0.050533
-0.0500972
-0.0497422
-0.0493744
-0.0492641
-0.0511101
-0.0520293
-0.0521667
-0.0519854
-0.0517091
-0.0517022
-0.051828
-0.0514702
-0.051084
-0.0508793
-0.0510808
-0.0510732
-0.0510255
-0.0510045
-0.0510713
-0.051169
-0.0512258
-0.0512671
-0.0512577
-0.0509789
-0.0500446
-0.0464753
0
0
-0.0129148
-0.0279643
-0.0361884
-0.0397842
-0.0404119
-0.0404148
-0.041322
-0.043276
-0.0454337
-0.0471222
-0.0482786
-0.0490314
-0.0494606
-0.0496363
-0.0478314
-0.0496302
-0.0497996
-0.0499951
-0.0501982
-0.0502952
-0.0503109
-0.0502955
-0.0502727
-0.0502481
-0.050222
-0.0501932
-0.0501621
-0.0501287
-0.0500923
-0.05005
-0.0499916
-0.0498834
-0.049648
-0.0496323
-0.0495396
-0.0494337
-0.049368
-0.0495079
-0.0500666
-0.050494
-0.0506451
-0.0506274
-0.0505533
-0.0505431
-0.0506322
-0.0508884
-0.050364
-0.0501456
-0.0501387
-0.0501331
-0.0501284
-0.0501497
-0.0502115
-0.0502743
-0.0503113
-0.050323
-0.0502836
-0.0500374
-0.0491093
-0.0456763
0
0
-0.0128011
-0.0276828
-0.035971
-0.0394427
-0.0401006
-0.0402362
-0.0411088
-0.0430036
-0.0451351
-0.0467711
-0.0478488
-0.0485161
-0.0489061
-0.0490953
-0.0490757
-0.049147
-0.0494137
-0.0485538
-0.0496994
-0.0497668
-0.049772
-0.0497568
-0.0497345
-0.0497087
-0.0496801
-0.0496477
-0.0496148
-0.0495826
-0.0495504
-0.0495135
-0.0494552
-0.0493164
-0.0488986
-0.0490632
-0.0491462
-0.0491507
-0.0491675
-0.0492641
-0.0494694
-0.0496529
-0.0497493
-0.0497708
-0.0497413
-0.0496741
-0.0494738
-0.0489139
-0.0492057
-0.049376
-0.0494465
-0.0494615
-0.0494677
-0.049515
-0.0496319
-0.0497145
-0.049738
-0.0497115
-0.0495918
-0.04916
-0.0479103
-0.044816
0
0
-0.0127304
-0.0275073
-0.0357534
-0.0391704
-0.0398443
-0.0402414
-0.040787
-0.0427861
-0.0448655
-0.0464893
-0.0475376
-0.0481812
-0.0485466
-0.0487255
-0.0486877
-0.0483842
-0.0491287
-0.0494833
-0.0495482
-0.0495019
-0.0494432
-0.0494048
-0.0493767
-0.0493494
-0.0493204
-0.0492828
-0.0492484
-0.0492197
-0.0491976
-0.0491807
-0.0491672
-0.049228
-0.0495805
-0.0492987
-0.0490826
-0.0489861
-0.0489678
-0.049009
-0.0490909
-0.0491724
-0.0492271
-0.0492508
-0.0492263
-0.0491733
-0.0490406
-0.048815
-0.0488863
-0.0489702
-0.0489951
-0.048968
-0.0489302
-0.0489896
-0.0492891
-0.0494458
-0.0494497
-0.0493747
-0.0491461
-0.0482096
-0.0304708
-0.0441653
0
0
-0.0126832
-0.0273869
-0.0355836
-0.0389496
-0.0395728
-0.0397834
-0.0407583
-0.0427171
-0.0447722
-0.046333
-0.047353
-0.0479962
-0.0483217
-0.0484775
-0.0482564
-0.046874
-0.0446248
-0.049533
-0.0495002
-0.0493368
-0.0492075
-0.0491542
-0.0491255
-0.049098
-0.0490686
-0.0490218
-0.0489859
-0.0489631
-0.0489577
-0.0489681
-0.0489491
-0.0489631
-0.0490639
-0.048964
-0.048852
-0.0487859
-0.0487723
-0.0487914
-0.0488275
-0.0488657
-0.048895
-0.0489092
-0.0489007
-0.0488714
-0.0488109
-0.0487321
-0.0487221
-0.0487154
-0.0486606
-0.0485274
-0.0483326
-0.0483144
-0.049173
-0.0494774
-0.0494143
-0.0492986
-0.0492325
-0.0490687
-0.0474945
-0.0443635
0
0
-0.0126497
-0.0272988
-0.0354526
-0.0387738
-0.0393645
-0.0395367
-0.0406642
-0.0426714
-0.0447036
-0.0462325
-0.0472488
-0.04736
-0.0483149
-0.0484655
-0.0484388
-0.0481334
-0.0488234
-0.0491721
-0.0491902
-0.0490991
-0.0489794
-0.048965
-0.0489484
-0.0489129
-0.0488617
-0.048819
-0.0487824
-0.0487639
-0.0487858
-0.0488608
-0.048801
-0.0487474
-0.0487223
-0.0486726
-0.0486225
-0.0485884
-0.048597
-0.0486144
-0.048632
-0.0486497
-0.0486651
-0.0486747
-0.0486745
-0.0486627
-0.0486375
-0.0486036
-0.0485729
-0.0485174
-0.0483838
-0.0480822
-0.0475235
-0.0458644
-0.0494453
-0.049867
-0.0495721
-0.0492926
-0.0491572
-0.0489673
-0.0479282
-0.0444245
0
0
-0.0126253
-0.0272331
-0.0353502
-0.0386188
-0.0391984
-0.0393838
-0.0405738
-0.0426085
-0.0446347
-0.0461439
-0.0471337
-0.0477856
-0.0481791
-0.0484243
-0.0485753
-0.0486143
-0.0488223
-0.0489493
-0.0489618
-0.048924
-0.0489951
-0.0489385
-0.0488623
-0.0487845
-0.0483193
-0.0486378
-0.048596
-0.0485725
-0.0486243
-0.0488488
-0.0487177
-0.0486131
-0.0485244
-0.0484702
-0.0484365
-0.0484047
-0.0484449
-0.0484708
-0.0484778
-0.0484831
-0.048491
-0.0484992
-0.0485049
-0.0485047
-0.0484962
-0.0484782
-0.0484453
-0.0483726
-0.0481964
-0.0477714
-0.046877
-0.0458644
-0.0505632
-0.0504067
-0.0497144
-0.0492676
-0.0490657
-0.0488468
-0.047928
-0.0444049
0
0
-0.0126082
-0.0271872
-0.0352769
-0.038465
-0.0390678
-0.0392834
-0.0405031
-0.0425517
-0.0445737
-0.0460707
-0.0470468
-0.0476763
-0.0480923
-0.0483996
-0.0487054
-0.0487913
-0.0488364
-0.0488474
-0.0488167
-0.0487304
-0.0488607
-0.04883
-0.0487563
-0.048671
-0.0485738
-0.0484894
-0.0484017
-0.0483293
-0.0483163
-0.048463
-0.0488242
-0.0485218
-0.0483517
-0.0482974
-0.0482837
-0.0482734
-0.0482724
-0.0483352
-0.0483382
-0.0483375
-0.0483432
-0.0483525
-0.0483668
-0.0483774
-0.0483807
-0.048374
-0.0483511
-0.0482948
-0.0481656
-0.0478905
-0.047449
-0.0473237
-0.0493076
-0.0496293
-0.0493416
-0.0490785
-0.0489439
-0.0487505
-0.0478706
-0.0443623
0
0
-0.0125976
-0.0271628
-0.0352697
-0.0386437
-0.0391569
-0.0392942
-0.040483
-0.0425181
-0.0445284
-0.0460116
-0.0469798
-0.0476025
-0.0480208
-0.0483543
-0.0488575
-0.0488277
-0.0487726
-0.0487417
-0.0487068
-0.0486712
-0.0487014
-0.0486862
-0.0486329
-0.0485527
-0.0484487
-0.0483211
-0.0481656
-0.0479926
-0.0478072
-0.0476972
-0.0472383
-0.0475907
-0.0478733
-0.0480332
-0.0481128
-0.0481439
-0.0481542
-0.048176
-0.0481815
-0.0481878
-0.0481987
-0.0482047
-0.0482408
-0.0482681
-0.0482846
-0.0482906
-0.0482844
-0.0482605
-0.0482041
-0.048085
-0.0479525
-0.0480349
-0.0487142
-0.0489695
-0.0489349
-0.0488614
-0.0488214
-0.0486675
-0.0478113
-0.0443165
0
0
-0.0125895
-0.0271415
-0.0352334
-0.0385425
-0.039076
-0.0392342
-0.0404365
-0.0424778
-0.0444865
-0.0459583
-0.0469254
-0.0475406
-0.0479282
-0.0481225
-0.0479441
-0.0481993
-0.0484071
-0.0485112
-0.0485329
-0.0485532
-0.0485788
-0.0485734
-0.0485293
-0.0484463
-0.0483193
-0.0481322
-0.0478611
-0.047482
-0.0468551
-0.0469845
-0.0471135
-0.0474276
-0.0477049
-0.0478861
-0.0479819
-0.0480191
-0.0480258
-0.0480166
-0.048011
-0.0480224
-0.0480392
-0.047453
-0.0481093
-0.0481682
-0.0482015
-0.0482215
-0.0482331
-0.0482427
-0.0482542
-0.048205
-0.0481822
-0.0482644
-0.0485045
-0.0486411
-0.048683
-0.0487061
-0.0487375
-0.0486034
-0.0477603
-0.0442747
0
0
-0.0125847
-0.0271297
-0.0352103
-0.0389496
-0.0390302
-0.0391825
-0.0403927
-0.0424421
-0.0444579
-0.0459534
-0.0469063
-0.047507
-0.047886
-0.0480963
-0.0481328
-0.0482599
-0.0483814
-0.0484352
-0.0483647
-0.0484195
-0.048477
-0.0484908
-0.0484522
-0.0483609
-0.0482021
-0.0479314
-0.0474462
-0.0464681
-0.0434564
-0.0451533
-0.0464118
-0.0471438
-0.0475534
-0.0477691
-0.0478667
-0.0478911
-0.0480246
-0.047823
-0.0477869
-0.0478125
-0.0478723
-0.0479316
-0.048016
-0.0480817
-0.0481284
-0.0481602
-0.0481837
-0.0482148
-0.0482855
-0.0482384
-0.0482439
-0.0483188
-0.0484637
-0.0485106
-0.0485545
-0.048618
-0.04916
-0.048566
-0.0477212
-0.0442397
0
0
-0.0125852
-0.0271368
-0.0352075
-0.0384594
-0.0389739
-0.0391358
-0.0403564
-0.0424147
-0.0444343
-0.0459225
-0.046879
-0.0474814
-0.0478656
-0.0481045
-0.0482402
-0.0483508
-0.0484319
-0.0484357
-0.0481749
-0.0483344
-0.0484427
-0.0484584
-0.0484121
-0.0483077
-0.0481222
-0.0477705
-0.0469575
-0.0442011
0.0330347
-0.0407022
-0.0450827
-0.0467193
-0.0473863
-0.0476617
-0.0477566
-0.0477451
-0.0476593
-0.0475188
-0.0473927
-0.0474729
-0.0476284
-0.0477778
-0.0479024
-0.0479957
-0.0480616
-0.048103
-0.0481234
-0.0481131
-0.0480481
-0.0481242
-0.0482079
-0.0483286
-0.0494453
-0.0484817
-0.0484921
-0.0485407
-0.0486263
-0.0485221
-0.0476916
-0.0442126
0
0
-0.0125924
-0.0271825
-0.0352389
-0.0384519
-0.0389488
-0.0391011
-0.0403331
-0.0424026
-0.044427
-0.0459132
-0.0468691
-0.0474692
-0.0478536
-0.048105
-0.0482739
-0.0483978
-0.0484968
-0.0486172
-0.0489631
-0.0488061
-0.0486443
-0.0485282
-0.0484222
-0.0482969
-0.0481139
-0.047806
-0.0472238
-0.0459752
-0.0429452
-0.0448935
-0.0463256
-0.0470952
-0.0474718
-0.0476322
-0.0476713
-0.0475897
-0.0473674
-0.0469685
-0.0463808
-0.0467475
-0.0472117
-0.0475491
-0.0477686
-0.0479105
-0.048004
-0.0480562
-0.048082
-0.048078
-0.0480493
-0.0480613
-0.0481456
-0.0482473
-0.0483651
-0.0483989
-0.048494
-0.0484874
-0.0486035
-0.048516
-0.0476797
-0.0441935
0
0
-0.0125898
-0.0272455
-0.0352386
-0.0384008
-0.0388859
-0.0390396
-0.0403245
-0.042418
-0.0444461
-0.045929
-0.0468815
-0.0474713
-0.0478437
-0.0480917
-0.048275
-0.0484132
-0.0485168
-0.0486101
-0.048742
-0.0487025
-0.0486112
-0.0485144
-0.0484156
-0.0483003
-0.0481462
-0.0479201
-0.047576
-0.0470615
-0.0464318
-0.046722
-0.0471283
-0.0474149
-0.0475643
-0.0476067
-0.0476073
-0.0474392
-0.0469642
-0.0457655
-0.0425469
-0.0448201
-0.0464133
-0.0472226
-0.0476213
-0.0478319
-0.0479586
-0.048019
-0.0480513
-0.0480542
-0.0480094
-0.0479183
-0.0480555
-0.0481775
-0.048268
-0.0483787
-0.0512258
-0.0484377
-0.0486608
-0.0485539
-0.0476849
-0.0441666
0
0
-0.0125055
-0.0267998
-0.0348489
-0.0381118
-0.0386917
-0.0393838
-0.040372
-0.0424773
-0.0444926
-0.0459635
-0.0469196
-0.0474865
-0.0478247
-0.04805
-0.0482555
-0.048422
-0.0485328
-0.0485946
-0.0486307
-0.0486105
-0.0485568
-0.048488
-0.0484077
-0.048311
-0.0481878
-0.0480264
-0.0478209
-0.0475283
-0.0472306
-0.0473122
-0.0474745
-0.0475866
-0.0476063
-0.0475387
-0.0475989
-0.0473666
-0.046545
-0.0433543
0.0388074
-0.0404128
-0.0452592
-0.0468935
-0.0475077
-0.0477721
-0.0478967
-0.047981
-0.0480296
-0.0480449
-0.0479843
-0.0477384
-0.0480062
-0.0481482
-0.0482118
-0.0482496
-0.0482819
-0.0481491
-0.0487885
-0.0486009
-0.0476733
-0.0441535
0
0
-0.0125059
-0.0268741
-0.0348576
-0.0380274
-0.0386475
-0.0390739
-0.0404239
-0.0425036
-0.0445024
-0.0459784
-0.0469949
-0.0475077
-0.0477626
-0.0479233
-0.0482151
-0.0484533
-0.0485845
-0.048614
-0.0486078
-0.0485769
-0.0485309
-0.0484743
-0.0484065
-0.0483242
-0.0482219
-0.0480937
-0.0479308
-0.047748
-0.0473714
-0.0475343
-0.0476706
-0.0477042
-0.0476298
-0.0474089
-0.0477222
-0.0475073
-0.0469153
-0.0455413
-0.0422281
-0.0445997
-0.0463445
-0.0471726
-0.0475754
-0.0477854
-0.0479012
-0.0479738
-0.0480288
-0.0480943
-0.0482347
-0.0485747
-0.0483392
-0.0482259
-0.0482023
-0.0482117
-0.0482322
-0.048278
-0.0485718
-0.0484869
-0.0476266
-0.0441163
0
0
-0.0125209
-0.0269411
-0.0349114
-0.0379374
-0.038636
-0.0393411
-0.040521
-0.0424906
-0.0444624
-0.0459454
-0.0471081
-0.0474663
-0.0475444
-0.0475609
-0.0481836
-0.0485652
-0.0487057
-0.0486563
-0.0486189
-0.0485754
-0.0485262
-0.0484726
-0.0484114
-0.0483374
-0.0482438
-0.0481156
-0.0479046
-0.0480047
-0.0483599
-0.0481603
-0.0479825
-0.0478678
-0.0477552
-0.0476288
-0.0476809
-0.0475684
-0.0472763
-0.0467944
-0.046197
-0.0465789
-0.0470929
-0.047453
-0.0476865
-0.0478348
-0.0479262
-0.0479723
-0.0480149
-0.048078
-0.0481838
-0.0483332
-0.0482706
-0.0481928
-0.0481653
-0.0481861
-0.0482532
-0.0483392
-0.048473
-0.0483992
-0.0475736
-0.044099
0
0
-0.0125348
-0.0269924
-0.035039
-0.0384751
-0.0388575
-0.0385343
-0.0398991
-0.0421387
-0.0442571
-0.0457304
-0.0463279
-0.0468792
-0.046939
-0.0467913
-0.0483702
-0.0488056
-0.0488811
-0.0486725
-0.0486472
-0.048602
-0.0485416
-0.0484831
-0.0484236
-0.0483533
-0.0482577
-0.0480802
-0.0437392
-0.047838
-0.0481383
-0.0481188
-0.0480237
-0.047922
-0.0478194
-0.0477211
-0.0476897
-0.0476225
-0.0475006
-0.0473429
-0.0472267
-0.0473135
-0.0474858
-0.0476554
-0.0478054
-0.0479073
-0.0479746
-0.0479652
-0.0479809
-0.0480344
-0.0481155
-0.048204
-0.0482114
-0.0481231
-0.0480867
-0.0481241
-0.0482729
-0.0483735
-0.0484491
-0.0483617
-0.0475415
-0.0440761
0
0
-0.0125408
-0.0270076
-0.0350455
-0.0383368
-0.0388119
-0.0388184
-0.0400728
-0.0422343
-0.0443572
-0.0459073
-0.0466391
-0.0469841
-0.0466504
-0.0474599
-0.0482951
-0.0487311
-0.0489009
-0.0490572
-0.0488807
-0.0487066
-0.0485874
-0.0485079
-0.0484478
-0.0483814
-0.0482992
-0.0481858
-0.0479869
-0.0480595
-0.0481099
-0.048084
-0.0480157
-0.0479227
-0.0478024
-0.0476494
-0.0476357
-0.0476134
-0.0476022
-0.0475795
-0.0475728
-0.0476158
-0.0476961
-0.0477983
-0.0483774
-0.0480027
-0.0480622
-0.0479334
-0.0479188
-0.0479767
-0.0480709
-0.0481942
-0.0482483
-0.0480297
-0.047954
-0.0479887
-0.0483291
-0.0484308
-0.0484681
-0.0483636
-0.0475304
-0.0440603
0
0
-0.0125426
-0.0270093
-0.0350347
-0.0382734
-0.0387947
-0.0389614
-0.0402561
-0.0424329
-0.0446586
-0.0466613
-0.0471965
-0.0474741
-0.0476123
-0.0484157
-0.048679
-0.0487759
-0.0488183
-0.0488385
-0.0487544
-0.048652
-0.0485706
-0.0485159
-0.0484833
-0.0484227
-0.0483466
-0.0482693
-0.0481985
-0.0481888
-0.0481357
-0.0480809
-0.0480089
-0.0478939
-0.0476736
-0.0471219
-0.0473655
-0.0474065
-0.0475744
-0.0476668
-0.0477161
-0.0477601
-0.0478131
-0.0478788
-0.0479653
-0.048062
-0.0481825
-0.0478505
-0.0478425
-0.0479118
-0.0480245
-0.0482481
-0.0484076
-0.047915
-0.0478162
-0.0477699
-0.0484786
-0.0485032
-0.048506
-0.0484065
-0.0475408
-0.0440512
0
0
-0.0125434
-0.027009
-0.0350298
-0.0382602
-0.038806
-0.0390406
-0.0404518
-0.0426544
-0.0451975
-0.0567965
-0.0482294
-0.0480201
-0.048071
-0.0483669
-0.0485356
-0.0486232
-0.0486689
-0.04867
-0.0486341
-0.0485855
-0.0485425
-0.048524
-0.0485598
-0.0484817
-0.0483889
-0.0483174
-0.0482785
-0.0482887
-0.0481548
-0.04809
-0.0480158
-0.0478609
-0.0473715
-0.0303356
-0.0466457
-0.0434526
-0.0474003
-0.0476827
-0.047785
-0.0478386
-0.047884
-0.0479324
-0.047979
-0.0480302
-0.0480631
-0.0479204
-0.0478708
-0.0478688
-0.0479216
-0.0482695
-0.0484197
-0.0480835
-0.0479637
-0.0479862
-0.0482981
-0.0484152
-0.0485119
-0.0485197
-0.0475721
-0.0440427
0
0
-0.0125446
-0.0270094
-0.0350292
-0.0382612
-0.0388225
-0.0391069
-0.0424778
-0.0427938
-0.0449188
-0.046949
-0.0474507
-0.0477546
-0.0479994
-0.0482271
-0.0483883
-0.0484926
-0.0492504
-0.048589
-0.0485682
-0.048541
-0.0485139
-0.0485167
-0.0486604
-0.0485072
-0.0483804
-0.0483213
-0.048297
-0.0483018
-0.048214
-0.0481422
-0.0480815
-0.0479465
-0.0476996
-0.0471226
-0.0474035
-0.0474683
-0.0476706
-0.0477903
-0.0478529
-0.0478947
-0.0479383
-0.0479891
-0.0480019
-0.0480053
-0.0479978
-0.0479396
-0.047887
-0.0478152
-0.0477302
-0.0483628
-0.0485596
-0.048149
-0.0480647
-0.0480905
-0.0482167
-0.0483268
-0.0484818
-0.0486757
-0.0475692
-0.0440124
0
0
-0.0125466
-0.0270114
-0.0350302
-0.0382613
-0.0388177
-0.039072
-0.0404882
-0.0426134
-0.0446894
-0.0462353
-0.0470719
-0.0475665
-0.0478959
-0.0481313
-0.0482963
-0.0484102
-0.0484943
-0.0485273
-0.0485296
-0.0485095
-0.0484695
-0.0483912
-0.0481376
-0.0481707
-0.048209
-0.0482584
-0.0482823
-0.0482438
-0.0482179
-0.0481859
-0.0489491
-0.0480598
-0.0479174
-0.0477722
-0.0477746
-0.0477885
-0.047835
-0.0478744
-0.0479037
-0.0479343
-0.0479882
-0.0480857
-0.0480449
-0.0480017
-0.0479733
-0.0479424
-0.0479102
-0.0478688
-0.047842
-0.0479862
-0.0478001
-0.0480867
-0.0480989
-0.0481157
-0.0481674
-0.0482067
-0.0481492
-0.0477356
-0.0472502
-0.0439311
0
0
-0.0125503
-0.0270165
-0.0350343
-0.0382623
-0.0388105
-0.039044
-0.0403845
-0.0426409
-0.0446661
-0.046109
-0.0469583
-0.0474776
-0.0478204
-0.0480593
-0.0482286
-0.0483504
-0.0484499
-0.0485096
-0.0485188
-0.0484949
-0.0484506
-0.0486329
-0.0482772
-0.048167
-0.0481175
-0.0482532
-0.0483409
-0.0483373
-0.0482917
-0.0482318
-0.0481832
-0.0480984
-0.04802
-0.0479557
-0.0479267
-0.0479156
-0.0479181
-0.0479246
-0.0479323
-0.0479485
-0.0480061
-0.0481925
-0.048059
-0.0479817
-0.0479515
-0.0479345
-0.0479205
-0.0479075
-0.047906
-0.0479405
-0.0479093
-0.0480235
-0.0480686
-0.0481012
-0.0481426
-0.0481843
-0.0481895
-0.0479853
-0.0472827
-0.0439115
0
0
-0.0125578
-0.0270295
-0.0350479
-0.0382679
-0.0388046
-0.0390206
-0.0403508
-0.0428046
-0.0447028
-0.0461005
-0.046884
-0.0473898
-0.04774
-0.0479853
-0.0481589
-0.0482791
-0.0484359
-0.0485427
-0.0485399
-0.0484922
-0.048421
-0.0483628
-0.0482719
-0.0481166
-0.0479041
-0.0483217
-0.0484922
-0.0484793
-0.0483913
-0.0482911
-0.0482065
-0.0481341
-0.0480751
-0.0480289
-0.0479968
-0.0479754
-0.0479615
-0.047951
-0.0479399
-0.0479193
-0.0478525
-0.0476435
-0.0477903
-0.0478776
-0.0479062
-0.0479116
-0.0479104
-0.0479107
-0.0479186
-0.0479378
-0.0479536
-0.0480014
-0.0480418
-0.0480805
-0.0481276
-0.0481935
-0.0487505
-0.0481239
-0.0473297
-0.0439128
0
0
-0.0125731
-0.0270623
-0.0350879
-0.0382834
-0.0387983
-0.0389741
-0.0401548
-0.041848
-0.0440853
-0.0459049
-0.0466624
-0.0472489
-0.0476488
-0.0479116
-0.0480904
-0.0481298
-0.0484701
-0.048692
-0.0486121
-0.0485044
-0.0483631
-0.0483132
-0.0482373
-0.0480164
-0.0474367
-0.0486099
-0.0487149
-0.0486126
-0.0484651
-0.0483329
-0.0482326
-0.0481605
-0.0481074
-0.0480664
-0.0480337
-0.048007
-0.0479842
-0.0479634
-0.0479419
-0.047914
-0.0478659
-0.0477864
-0.0478258
-0.0478652
-0.0478813
-0.0478835
-0.0478828
-0.0478861
-0.0478969
-0.0479162
-0.0479415
-0.0479767
-0.0480148
-0.0480568
-0.0481081
-0.0481751
-0.0482445
-0.0481442
-0.0473447
-0.0439138
0
0
-0.012603
-0.0271471
-0.0351921
-0.0383148
-0.0388146
-0.038979
-0.0401759
-0.0421182
-0.0441855
-0.0457815
-0.0467006
-0.0472823
-0.0476593
-0.0478902
-0.0496302
-0.0476928
-0.0486682
-0.0490955
-0.04875
-0.0485632
-0.0483185
-0.0483149
-0.0482968
-0.0481907
-0.0480254
-0.0483919
-0.0485254
-0.0484987
-0.0484087
-0.0483116
-0.0482319
-0.048172
-0.0481264
-0.0480892
-0.0480559
-0.0480246
-0.0479945
-0.0479648
-0.0479347
-0.0479047
-0.0478772
-0.0478585
-0.0478635
-0.047865
-0.047856
-0.0478434
-0.047835
-0.0478358
-0.0478477
-0.0478705
-0.0479018
-0.0479394
-0.0479807
-0.0480266
-0.0480832
-0.0481557
-0.0482207
-0.0481354
-0.0473482
-0.0439129
0
0
-0.0126596
-0.0274155
-0.0353292
-0.0384382