# vtk DataFile Version 2.0
FlowField
ASCII
DATASET STRUCTURED_GRID
DIMENSIONS 62 47 32 
POINTS 93248 double
0 0 0
0.01 0 0
0.02 0 0
0.03 0 0
0.04 0 0
0.05 0 0
0.06 0 0
0.07 0 0
0.08 0 0
0.09 0 0
0.1 0 0
0.11 0 0
0.12 0 0
0.13 0 0
0.14 0 0
0.15 0 0
0.16 0 0
0.17 0 0
0.18 0 0
0.19 0 0
0.2 0 0
0.21 0 0
0.22 0 0
0.23 0 0
0.24 0 0
0.25 0 0
0.26 0 0
0.27 0 0
0.28 0 0
0.29 0 0
0.3 0 0
0.31 0 0
0.32 0 0
0.33 0 0
0.34 0 0
0.35 0 0
0.36 0 0
0.37 0 0
0.38 0 0
0.39 0 0
0.4 0 0
0.41 0 0
0.42 0 0
0.43 0 0
0.44 0 0
0.45 0 0
0.46 0 0
0.47 0 0
0.48 0 0
0.49 0 0
0.5 0 0
0.51 0 0
0.52 0 0
0.53 0 0
0.54 0 0
0.55 0 0
0.56 0 0
0.57 0 0
0.58 0 0
0.59 0 0
0.6 0 0
0.61 0 0
0 0.01 0
0.01 0.01 0
0.02 0.01 0
0.03 0.01 0
0.04 0.01 0
0.05 0.01 0
0.06 0.01 0
0.07 0.01 0
0.08 0.01 0
0.09 0.01 0
0.1 0.01 0
0.11 0.01 0
0.12 0.01 0
0.13 0.01 0
0.14 0.01 0
0.15 0.01 0
0.16 0.01 0
0.17 0.01 0
0.18 0.01 0
0.19 0.01 0
0.2 0.01 0
0.21 0.01 0
0.22 0.01 0
0.23 0.01 0
0.24 0.01 0
0.25 0.01 0
0.26 0.01 0
0.27 0.01 0
0.28 0.01 0
0.29 0.01 0
0.3 0.01 0
0.31 0.01 0
0.32 0.01 0
0.33 0.01 0
0.34 0.01 0
0.35 0.01 0
0.36 0.01 0
0.37 0.01 0
0.38 0.01 0
0.39 0.01 0
0.4 0.01 0
0.41 0.01 0
0.42 0.01 0
0.43 0.01 0
0.44 0.01 0
0.45 0.01 0
0.46 0.01 0
0.47 0.01 0
0.48 0.01 0
0.49 0.01 0
0.5 0.01 0
0.51 0.01 0
0.52 0.01 0
0.53 0.01 0
0.54 0.01 0
0.55 0.01 0
0.56 0.01 0
0.57 0.01 0
0.58 0.01 0
0.59 0.01 0
0.6 0.01 0
0.61 0.01 0
0 0.02 0
0.01 0.02 0
0.02 0.02 0
0.03 0.02 0
0.04 0.02 0
0.05 0.02 0
0.06 0.02 0
0.07 0.02 0
0.08 0.02 0
0.09 0.02 0
0.1 0.02 0
0.11 0.02 0
0.12 0.02 0
0.13 0.02 0
0.14 0.02 0
0.15 0.02 0
0.16 0.02 0
0.17 0.02 0
0.18 0.02 0
0.19 0.02 0
0.2 0.02 0
0.21 0.02 0
0.22 0.02 0
0.23 0.02 0
0.24 0.02 0
0.25 0.02 0
0.26 0.02 0
0.27 0.02 0
0.28 0.02 0
0.29 0.02 0
0.3 0.02 0
0.31 0.02 0
0.32 0.02 0
0.33 0.02 0
0.34 0.02 0
0.35 0.02 0
0.36 0.02 0
0.37 0.02 0
0.38 0.02 0
0.39 0.02 0
0.4 0.02 0
0.41 0.02 0
0.42 0.02 0
0.43 0.02 0
0.44 0.02 0
0.45 0.02 0
0.46 0.02 0
0.47 0.02 0
0.48 0.02 0
0.49 0.02 0
0.5 0.02 0
0.51 0.02 0
0.52 0.02 0
0.53 0.02 0
0.54 0.02 0
0.55 0.02 0
0.56 0.02 0
0.57 0.02 0
0.58 0.02 0
0.59 0.02 0
0.6 0.02 0
0.61 0.02 0
0 0.03 0
0.01 0.03 0
0.02 0.03 0
0.03 0.03 0
0.04 0.03 0
0.05 0.03 0
0.06 0.03 0
0.07 0.03 0
0.08 0.03 0
0.09 0.03 0
0.1 0.03 0
0.11 0.03 0
0.12 0.03 0
0.13 0.03 0
0.14 0.03 0
0.15 0.03 0
0.16 0.03 0
0.17 0.03 0
0.18 0.03 0
0.19 0.03 0
0.2 0.03 0
0.21 0.03 0
0.22 0.03 0
0.23 0.03 0
0.24 0.03 0
0.25 0.03 0
0.26 0.03 0
0.27 0.03 0
0.28 0.03 0
0.29 0.03 0
0.3 0.03 0
0.31 0.03 0
0.32 0.03 0
0.33 0.03 0
0.34 0.03 0
0.35 0.03 0
0.36 0.03 0
0.37 0.03 0
0.38 0.03 0
0.39 0.03 0
0.4 0.03 0
0.41 0.03 0
0.42 0.03 0
0.43 0.03 0
0.44 0.03 0
0.45 0.03 0
0.46 0.03 0
0.47 0.03 0
0.48 0.03 0
0.49 0.03 0
0.5 0.03 0
0.51 0.03 0
0.52 0.03 0
0.53 0.03 0
0.54 0.03 0
0.55 0.03 0
0.56 0.03 0
0.57 0.03 0
0.58 0.03 0
0.59 0.03 0
0.6 0.03 0
0.61 0.03 0
0 0.04 0
0.01 0.04 0
0.02 0.04 0
0.03 0.04 0
0.04 0.04 0
0.05 0.04 0
0.06 0.04 0
0.07 0.04 0
0.08 0.04 0
0.09 0.04 0
0.1 0.04 0
0.11 0.04 0
0.12 0.04 0
0.13 0.04 0
0.14 0.04 0
0.15 0.04 0
0.16 0.04 0
0.17 0.04 0
0.18 0.04 0
0.19 0.04 0
0.2 0.04 0
0.21 0.04 0
0.22 0.04 0
0.23 0.04 0
0.24 0.04 0
0.25 0.04 0
0.26 0.04 0
0.27 0.04 0
0.28 0.04 0
0.29 0.04 0
0.3 0.04 0
0.31 0.04 0
0.32 0.04 0
0.33 0.04 0
0.34 0.04 0
0.35 0.04 0
0.36 0.04 0
0.37 0.04 0
0.38 0.04 0
0.39 0.04 0
0.4 0.04 0
0.41 0.04 0
0.42 0.04 0
0.43 0.04 0
0.44 0.04 0
0.45 0.04 0
0.46 0.04 0
0.47 0.04 0
0.48 0.04 0
0.49 0.04 0
0.5 0.04 0
0.51 0.04 0
0.52 0.04 0
0.53 0.04 0
0.54 0.04 0
0.55 0.04 0
0.56 0.04 0
0.57 0.04 0
0.58 0.04 0
0.59 0.04 0
0.6 0.04 0
0.61 0.04 0
0 0.05 0
0.01 0.05 0
0.02 0.05 0
0.03 0.05 0
0.04 0.05 0
0.05 0.05 0
0.06 0.05 0
0.07 0.05 0
0.08 0.05 0
0.09 0.05 0
0.1 0.05 0
0.11 0.05 0
0.12 0.05 0
0.13 0.05 0
0.14 0.05 0
0.15 0.05 0
0.16 0.05 0
0.17 0.05 0
0.18 0.05 0
0.19 0.05 0
0.2 0.05 0
0.21 0.05 0
0.22 0.05 0
0.23 0.05 0
0.24 0.05 0
0.25 0.05 0
0.26 0.05 0
0.27 0.05 0
0.28 0.05 0
0.29 0.05 0
0.3 0.05 0
0.31 0.05 0
0.32 0.05 0
0.33 0.05 0
0.34 0.05 0
0.35 0.05 0
0.36 0.05 0
0.37 0.05 0
0.38 0.05 0
0.39 0.05 0
0.4 0.05 0
0.41 0.05 0
0.42 0.05 0
0.43 0.05 0
0.44 0.05 0
0.45 0.05 0
0.46 0.05 0
0.47 0.05 0
0.48 0.05 0
0.49 0.05 0
0.5 0.05 0
0.51 0.05 0
0.52 0.05 0
0.53 0.05 0
0.54 0.05 0
0.55 0.05 0
0.56 0.05 0
0.57 0.05 0
0.58 0.05 0
0.59 0.05 0
0.6 0.05 0
0.61 0.05 0
0 0.06 0
0.01 0.06 0
0.02 0.06 0
0.03 0.06 0
0.04 0.06 0
0.05 0.06 0
0.06 0.06 0
0.07 0.06 0
0.08 0.06 0
0.09 0.06 0
0.1 0.06 0
0.11 0.06 0
0.12 0.06 0
0.13 0.06 0
0.14 0.06 0
0.15 0.06 0
0.16 0.06 0
0.17 0.06 0
0.18 0.06 0
0.19 0.06 0
0.2 0.06 0
0.21 0.06 0
0.22 0.06 0
0.23 0.06 0
0.24 0.06 0
0.25 0.06 0
0.26 0.06 0
0.27 0.06 0
0.28 0.06 0
0.29 0.06 0
0.3 0.06 0
0.31 0.06 0
0.32 0.06 0
0.33 0.06 0
0.34 0.06 0
0.35 0.06 0
0.36 0.06 0
0.37 0.06 0
0.38 0.06 0
0.39 0.06 0
0.4 0.06 0
0.41 0.06 0
0.42 0.06 0
0.43 0.06 0
0.44 0.06 0
0.45 0.06 0
0.46 0.06 0
0.47 0.06 0
0.48 0.06 0
0.49 0.06 0
0.5 0.06 0
0.51 0.06 0
0.52 0.06 0
0.53 0.06 0
0.54 0.06 0
0.55 0.06 0
0.56 0.06 0
0.57 0.06 0
0.58 0.06 0
0.59 0.06 0
0.6 0.06 0
0.61 0.06 0
0 0.07 0
0.01 0.07 0
0.02 0.07 0
0.03 0.07 0
0.04 0.07 0
0.05 0.07 0
0.06 0.07 0
0.07 0.07 0
0.08 0.07 0
0.09 0.07 0
0.1 0.07 0
0.11 0.07 0
0.12 0.07 0
0.13 0.07 0
0.14 0.07 0
0.15 0.07 0
0.16 0.07 0
0.17 0.07 0
0.18 0.07 0
0.19 0.07 0
0.2 0.07 0
0.21 0.07 0
0.22 0.07 0
0.23 0.07 0
0.24 0.07 0
0.25 0.07 0
0.26 0.07 0
0.27 0.07 0
0.28 0.07 0
0.29 0.07 0
0.3 0.07 0
0.31 0.07 0
0.32 0.07 0
0.33 0.07 0
0.34 0.07 0
0.35 0.07 0
0.36 0.07 0
0.37 0.07 0
0.38 0.07 0
0.39 0.07 0
0.4 0.07 0
0.41 0.07 0
0.42 0.07 0
0.43 0.07 0
0.44 0.07 0
0.45 0.07 0
0.46 0.07 0
0.47 0.07 0
0.48 0.07 0
0.49 0.07 0
0.5 0.07 0
0.51 0.07 0
0.52 0.07 0
0.53 0.07 0
0.54 0.07 0
0.55 0.07 0
0.56 0.07 0
0.57 0.07 0
0.58 0.07 0
0.59 0.07 0
0.6 0.07 0
0.61 0.07 0
0 0.08 0
0.01 0.08 0
0.02 0.08 0
0.03 0.08 0
0.04 0.08 0
0.05 0.08 0
0.06 0.08 0
0.07 0.08 0
0.08 0.08 0
0.09 0.08 0
0.1 0.08 0
0.11 0.08 0
0.12 0.08 0
0.13 0.08 0
0.14 0.08 0
0.15 0.08 0
0.16 0.08 0
0.17 0.08 0
0.18 0.08 0
0.19 0.08 0
0.2 0.08 0
0.21 0.08 0
0.22 0.08 0
0.23 0.08 0
0.24 0.08 0
0.25 0.08 0
0.26 0.08 0
0.27 0.08 0
0.28 0.08 0
0.29 0.08 0
0.3 0.08 0
0.31 0.08 0
0.32 0.08 0
0.33 0.08 0
0.34 0.08 0
0.35 0.08 0
0.36 0.08 0
0.37 0.08 0
0.38 0.08 0
0.39 0.08 0
0.4 0.08 0
0.41 0.08 0
0.42 0.08 0
0.43 0.08 0
0.44 0.08 0
0.45 0.08 0
0.46 0.08 0
0.47 0.08 0
0.48 0.08 0
0.49 0.08 0
0.5 0.08 0
0.51 0.08 0
0.52 0.08 0
0.53 0.08 0
0.54 0.08 0
0.55 0.08 0
0.56 0.08 0
0.57 0.08 0
0.58 0.08 0
0.59 0.08 0
0.6 0.08 0
0.61 0.08 0
0 0.09 0
0.01 0.09 0
0.02 0.09 0
0.03 0.09 0
0.04 0.09 0
0.05 0.09 0
0.06 0.09 0
0.07 0.09 0
0.08 0.09 0
0.09 0.09 0
0.1 0.09 0
0.11 0.09 0
0.12 0.09 0
0.13 0.09 0
0.14 0.09 0
0.15 0.09 0
0.16 0.09 0
0.17 0.09 0
0.18 0.09 0
0.19 0.09 0
0.2 0.09 0
0.21 0.09 0
0.22 0.09 0
0.23 0.09 0
0.24 0.09 0
0.25 0.09 0
0.26 0.09 0
0.27 0.09 0
0.28 0.09 0
0.29 0.09 0
0.3 0.09 0
0.31 0.09 0
0.32 0.09 0
0.33 0.09 0
0.34 0.09 0
0.35 0.09 0
0.36 0.09 0
0.37 0.09 0
0.38 0.09 0
0.39 0.09 0
0.4 0.09 0
0.41 0.09 0
0.42 0.09 0
0.43 0.09 0
0.44 0.09 0
0.45 0.09 0
0.46 0.09 0
0.47 0.09 0
0.48 0.09 0
0.49 0.09 0
0.5 0.09 0
0.51 0.09 0
0.52 0.09 0
0.53 0.09 0
0.54 0.09 0
0.55 0.09 0
0.56 0.09 0
0.57 0.09 0
0.58 0.09 0
0.59 0.09 0
0.6 0.09 0
0.61 0.09 0
0 0.1 0
0.01 0.1 0
0.02 0.1 0
0.03 0.1 0
0.04 0.1 0
0.05 0.1 0
0.06 0.1 0
0.07 0.1 0
0.08 0.1 0
0.09 0.1 0
0.1 0.1 0
0.11 0.1 0
0.12 0.1 0
0.13 0.1 0
0.14 0.1 0
0.15 0.1 0
0.16 0.1 0
0.17 0.1 0
0.18 0.1 0
0.19 0.1 0
0.2 0.1 0
0.21 0.1 0
0.22 0.1 0
0.23 0.1 0
0.24 0.1 0
0.25 0.1 0
0.26 0.1 0
0.27 0.1 0
0.28 0.1 0
0.29 0.1 0
0.3 0.1 0
0.31 0.1 0
0.32 0.1 0
0.33 0.1 0
0.34 0.1 0
0.35 0.1 0
0.36 0.1 0
0.37 0.1 0
0.38 0.1 0
0.39 0.1 0
0.4 0.1 0
0.41 0.1 0
0.42 0.1 0
0.43 0.1 0
0.44 0.1 0
0.45 0.1 0
0.46 0.1 0
0.47 0.1 0
0.48 0.1 0
0.49 0.1 0
0.5 0.1 0
0.51 0.1 0
0.52 0.1 0
0.53 0.1 0
0.54 0.1 0
0.55 0.1 0
0.56 0.1 0
0.57 0.1 0
0.58 0.1 0
0.59 0.1 0
0.6 0.1 0
0.61 0.1 0
0 0.11 0
0.01 0.11 0
0.02 0.11 0
0.03 0.11 0
0.04 0.11 0
0.05 0.11 0
0.06 0.11 0
0.07 0.11 0
0.08 0.11 0
0.09 0.11 0
0.1 0.11 0
0.11 0.11 0
0.12 0.11 0
0.13 0.11 0
0.14 0.11 0
0.15 0.11 0
0.16 0.11 0
0.17 0.11 0
0.18 0.11 0
0.19 0.11 0
0.2 0.11 0
0.21 0.11 0
0.22 0.11 0
0.23 0.11 0
0.24 0.11 0
0.25 0.11 0
0.26 0.11 0
0.27 0.11 0
0.28 0.11 0
0.29 0.11 0
0.3 0.11 0
0.31 0.11 0
0.32 0.11 0
0.33 0.11 0
0.34 0.11 0
0.35 0.11 0
0.36 0.11 0
0.37 0.11 0
0.38 0.11 0
0.39 0.11 0
0.4 0.11 0
0.41 0.11 0
0.42 0.11 0
0.43 0.11 0
0.44 0.11 0
0.45 0.11 0
0.46 0.11 0
0.47 0.11 0
0.48 0.11 0
0.49 0.11 0
0.5 0.11 0
0.51 0.11 0
0.52 0.11 0
0.53 0.11 0
0.54 0.11 0
0.55 0.11 0
0.56 0.11 0
0.57 0.11 0
0.58 0.11 0
0.59 0.11 0
0.6 0.11 0
0.61 0.11 0
0 0.12 0
0.01 0.12 0
0.02 0.12 0
0.03 0.12 0
0.04 0.12 0
0.05 0.12 0
0.06 0.12 0
0.07 0.12 0
0.08 0.12 0
0.09 0.12 0
0.1 0.12 0
0.11 0.12 0
0.12 0.12 0
0.13 0.12 0
0.14 0.12 0
0.15 0.12 0
0.16 0.12 0
0.17 0.12 0
0.18 0.12 0
0.19 0.12 0
0.2 0.12 0
0.21 0.12 0
0.22 0.12 0
0.23 0.12 0
0.24 0.12 0
0.25 0.12 0
0.26 0.12 0
0.27 0.12 0
0.28 0.12 0
0.29 0.12 0
0.3 0.12 0
0.31 0.12 0
0.32 0.12 0
0.33 0.12 0
0.34 0.12 0
0.35 0.12 0
0.36 0.12 0
0.37 0.12 0
0.38 0.12 0
0.39 0.12 0
0.4 0.12 0
0.41 0.12 0
0.42 0.12 0
0.43 0.12 0
0.44 0.12 0
0.45 0.12 0
0.46 0.12 0
0.47 0.12 0
0.48 0.12 0
0.49 0.12 0
0.5 0.12 0
0.51 0.12 0
0.52 0.12 0
0.53 0.12 0
0.54 0.12 0
0.55 0.12 0
0.56 0.12 0
0.57 0.12 0
0.58 0.12 0
0.59 0.12 0
0.6 0.12 0
0.61 0.12 0
0 0.13 0
0.01 0.13 0
0.02 0.13 0
0.03 0.13 0
0.04 0.13 0
0.05 0.13 0
0.06 0.13 0
0.07 0.13 0
0.08 0.13 0
0.09 0.13 0
0.1 0.13 0
0.11 0.13 0
0.12 0.13 0
0.13 0.13 0
0.14 0.13 0
0.15 0.13 0
0.16 0.13 0
0.17 0.13 0
0.18 0.13 0
0.19 0.13 0
0.2 0.13 0
0.21 0.13 0
0.22 0.13 0
0.23 0.13 0
0.24 0.13 0
0.25 0.13 0
0.26 0.13 0
0.27 0.13 0
0.28 0.13 0
0.29 0.13 0
0.3 0.13 0
0.31 0.13 0
0.32 0.13 0
0.33 0.13 0
0.34 0.13 0
0.35 0.13 0
0.36 0.13 0
0.37 0.13 0
0.38 0.13 0
0.39 0.13 0
0.4 0.13 0
0.41 0.13 0
0.42 0.13 0
0.43 0.13 0
0.44 0.13 0
0.45 0.13 0
0.46 0.13 0
0.47 0.13 0
0.48 0.13 0
[...]
POINT_DATA 93248

SCALARS v double
LOOKUP_TABLE default
0
0
0
0
0
0
0
0
0
0
0
0
0
0
0
0
0
0
0
0
0
0
0
0
0
0
0
0
0
0
0
0
0
0
0
0
0
0
-0.0564802
0
0
0
0
0
-0.0597709
0
0
0
0
0
0
0
0
0
0
0
0
0
0
0
0
0
0
0.0463227
-0.0607985
0.0500942
0.0368655
0.0213928
0
-0.00266147
-0.0115274
-0.017426
-0.0208277
-0.0226478
-0.0245063
-0.0240616
-0.0237683
-0.0235052
-0.0235327
-0.0231606
-0.0227623
-0.0215142
-0.0268595
-0.0245563
-0.0226171
-0.0232602
-0.0234222
-0.0235127
-0.0235687
-0.0235949
-0.0235963
-0.0235722
-0.023523
-0.0235426
-0.0242173
-0.0235637
-0.0230035
-0.0232154
-0.0384138
-0.0228769
-0.023471
-0.0185925
-0.0249679
-0.0361665
-0.0256946
-0.0256651
-0.0267511
-0.0329835
-0.0692513
-0.0246067
-0.0313227
-0.0232741
-0.0231463
-0.0231732
-0.0248218
-0.0267101
-0.0378935
-0.0258088
-0.0494894
-0.0239447
-0.0217726
-0.0192219
-0.0151834
0
0
0.0274644
0.0529226
0.0609175
0.0567467
0.0420791
0.0319244
0.0180791
0.00355752
-0.00932485
-0.0183054
-0.0238115
-0.0708312
-0.0291064
-0.0292225
-0.0236793
-0.0295788
-0.0288632
-0.0298364
-0.0320439
-0.0786609
-0.029373
-0.0301383
-0.0295779
-0.0296652
-0.0298367
-0.0299662
-0.03004
-0.0300628
-0.0300311
-0.0299186
-0.0297926
-0.053669
-0.0301338
-0.028915
-0.0296249
-0.0287303
-0.0262628
-0.0231962
-0.0309787
-0.0340505
-0.0349289
-0.0339605
-0.0339864
-0.0338358
-0.0344639
-0.0347752
-0.0321127
-0.0313227
-0.0299013
-0.0299163
-0.0303371
-0.0312459
-0.0323973
-0.0337765
-0.0314164
-0.0303488
-0.0566003
-0.0263048
-0.0232471
-0.0196122
0
0
0.0144595
0.0363266
0.047043
0.0532258
0.0531394
0.0414686
0.0286229
0.0144508
0.000553591
-0.0112052
-0.0190669
-0.0251213
-0.0276241
-0.0290384
-0.0299545
-0.0310358
0
-0.0311223
-0.0323699
-0.0326702
-0.0317474
-0.031628
-0.0315893
-0.0317327
-0.0319184
-0.0320756
-0.032183
-0.0322395
-0.0322501
-0.0322367
-0.0323214
-0.0329678
-0.0325577
-0.032745
-0.0307851
-0.0299916
-0.0288385
-0.0284376
-0.0324828
-0.03531
-0.0366724
-0.037015
-0.0359409
-0.0360271
-0.0363612
-0.0337197
-0.0329865
-0.0324154
-0.0331282
-0.0328778
-0.0328456
-0.0330767
-0.0333557
-0.0333315
-0.0323614
-0.0314246
-0.0306222
-0.0277952
-0.0251808
-0.0227594
0
0
0.00852666
0.0240861
0.0368401
0.0409201
0.0418073
0.0370758
0.0288221
0.0179519
0.00617184
-0.00483345
-0.0135435
-0.0199425
-0.0239696
-0.0265608
-0.0284595
-0.029677
-0.0296311
-0.0306336
-0.0315581
-0.0317036
-0.0317625
-0.0319048
-0.0320872
-0.0323025
-0.032515
-0.0326954
-0.0328326
-0.0329224
-0.0329691
-0.0329948
-0.0330667
-0.0333153
-0.0336581
-0.0333497
-0.0322012
-0.0314145
-0.0309312
-0.0311485
-0.0331838
-0.0350226
-0.0361736
-0.0366283
-0.0363879
-0.0362929
-0.0358316
-0.0332183
-0.0334957
-0.0335202
-0.0337923
-0.033707
-0.0335647
-0.0334167
-0.0331853
-0.0327498
-0.0320116
-0.031085
-0.0298859
-0.027946
-0.0259831
-0.02526
0
0
0.00540621
0.015362
0.023515
0.0281115
0.0300019
0.0287149
0.0241407
0.0165496
0.0075856
-0.00166559
-0.00981023
-0.0161935
-0.0207949
-0.0240977
-0.0264652
-0.0284168
-0.0291477
-0.0300162
-0.0305155
-0.0310194
-0.0314805
-0.0318918
-0.0322492
-0.0325619
-0.0328309
-0.0330505
-0.033225
-0.0333477
-0.0334142
-0.0334283
-0.0334141
-0.0335317
-0.0348859
-0.0340579
-0.0331854
-0.03266
-0.0325356
-0.0329301
-0.0339272
-0.0349642
-0.0357284
-0.0361352
-0.0362467
-0.0362866
-0.036008
0
-0.0340988
-0.0343074
-0.0342789
-0.034142
-0.0339322
-0.0335921
-0.0330606
-0.032429
-0.0317044
-0.0308412
-0.0297781
-0.0284074
-0.0265224
-0.0272365
-0.0671255
0
0.00353658
0.00975459
0.0148942
0.0183633
0.0202886
0.0205849
0.0180752
0
0.00617307
-0.00127681
-0.00836506
-0.0143037
-0.0189032
-0.0224501
-0.0253931
-0.0282259
-0.0283162
-0.0284788
-0.029628
-0.0305765
-0.0313759
-0.0320035
-0.0325005
-0.0329063
-0.0332446
-0.0335072
-0.033729
-0.0338893
-0.0339719
-0.03396
-0.0338195
-0.0335901
-0.0726054
-0.0347729
-0.0339927
-0.0337613
-0.0338139
-0.0341511
-0.0347055
-0.0352875
-0.0357525
-0.0360324
-0.0361616
-0.036079
-0.0355926
-0.0340746
-0.0344885
-0.0346973
-0.0347092
-0.0346227
-0.0344376
-0.0340111
-0.0332045
-0.0324343
-0.0317423
-0.031046
-0.0305118
-0.0309767
-0.0322626
-0.0276125
0
0
0.00231384
0.00601319
0.00908467
0.0113099
0.0126956
0.0128502
0.0120806
0.00847665
0.00335933
-0.00273104
-0.00874594
-0.0140627
-0.018276
-0.021651
-0.0247244
-0.0288812
-0.0275598
-0.0281754
-0.0295508
-0.030766
-0.0317428
-0.0324402
-0.0329795
-0.0334365
-0.0338385
-0.0341297
-0.0344147
-0.0346241
-0.0347362
-0.0347484
-0.0347491
-0.0349259
-0.0361155
-0.0355942
-0.0351634
-0.0349901
-0.0350317
-0.035244
-0.0355604
-0.0358912
-0.0361665
-0.0363453
-0.0363563
-0.0362396
-0.0358967
-0.0353358
-0.0352631
-0.0352815
-0.0352748
-0.0352537
-0.0351791
-0.0347774
-0.0335478
-0.0326963
-0.0321009
-0.031482
-0.030845
-0.053003
-0.0240141
-0.0270909
0
0
0.00147081
0.00339258
0.00496351
0.00612788
0.00693622
0.00712665
0.0063774
0.00379922
-0.000336386
-0.00533306
-0.0103706
-0.0153181
-0.0207949
-0.0213332
-0.0231601
-0.0227907
-0.0275785
-0.0299621
-0.0310783
-0.0318485
-0.032717
-0.033216
-0.0336784
-0.0341338
-0.0341297
-0.0349758
-0.035309
-0.0355651
-0.0357067
-0.0356951
-0.0357233
-0.0359052
-0.0363153
-0.0363154
-0.03621
-0.0361643
-0.0361979
-0.0363198
-0.0364982
-0.0366827
-0.0368298
-0.0369072
-0.0368807
-0.0367567
-0.0365282
-0.0362511
-0.0360877
-0.035992
-0.0359342
-0.0359408
-0.0360285
-0.0359463
-0.0339231
-0.0332329
-0.0329019
-0.0325376
-0.0321392
-0.0317676
-0.0291952
-0.0277234
0
0
0.000867546
0.00147477
0.00189669
0.00214106
0.0023424
0.00225716
0.00138098
-0.000848357
-0.00434716
-0.00849821
-0.0125534
-0.0155938
-0.0192955
-0.0218957
-0.0236793
-0.0248421
-0.0277574
-0.0300031
-0.0314389
-0.0323894
-0.0404235
-0.0339725
-0.0344321
-0.0349475
-0.0355181
-0.0359216
-0.036346
-0.0367082
-0.0369231
-0.0368173
-0.0366357
-0.0367538
-0.0370314
-0.037189
-0.0372526
-0.0373022
-0.0373435
-0.0374163
-0.0375195
-0.0376167
-0.0376793
-0.0376865
-0.0376228
-0.0374936
-0.0373107
-0.037105
-0.0369152
-0.0367404
-0.0365752
-0.0364457
-0.0364362
-0.0365057
-0.0342315
-0.0343425
-0.0342257
-0.0338941
-0.0334629
-0.0328035
-0.0312553
-0.0287703
0
0
0.000421665
1.64653e-05
-0.000470538
-0.00109344
-0.00149072
-0.00199155
-0.00310387
-0.00526371
-0.00839274
-0.0119604
-0.0153849
-0.0183405
-0.0210857
-0.0233334
-0.0249258
-0.0265815
-0.028656
-0.0305231
-0.0319978
-0.0331764
-0.034111
-0.0347509
-0.035314
-0.0358405
-0.0362685
-0.0369441
-0.0375427
-0.0380893
-0.0385392
-0.0387206
-0.0369149
-0.0374536
-0.037949
-0.0382184
-0.0383446
-0.0384138
-0.0385259
-0.0385713
-0.0386352
-0.0386757
-0.038677
-0.038631
-0.0385231
-0.0383731
-0.038193
-0.0379934
-0.0377761
-0.0375243
-0.0371978
-0.0367182
-0.0359105
-0.034863
-0.0375004
-0.0368975
-0.0361058
-0.0354396
-0.0348355
-0.0340509
-0.0326226
-0.0298933
0
0
7.81346e-05
-0.00114054
-0.0023423
-0.00690184
-0.00476759
-0.00573764
-0.00717826
-0.00941321
-0.0123471
-0.0155199
-0.0184721
-0.0210512
-0.0233488
-0.0253574
-0.0262156
-0.0280615
-0.0299092
-0.0315454
-0.0329086
-0.0339565
-0.0350077
-0.0357288
-0.0363241
-0.036886
-0.0374616
-0.038146
-0.0388985
-0.0396696
-0.0403639
-0.0406838
0
-0.0387434
-0.0392562
-0.039428
-0.039519
-0.0395881
-0.0396687
-0.0397958
-0.03985
-0.0398461
-0.0397973
-0.0397156
-0.0395411
-0.0393534
-0.0391572
-0.0389478
-0.0387112
-0.0384174
-0.0380286
-0.037562
-0.036993
-0.0367112
-0.0378804
-0.0378935
-0.0373824
-0.0367681
-0.0361343
-0.0353057
-0.0338505
-0.0310017
0
0
-0.000204681
-0.00213503
-0.00408214
-0.00601745
-0.00762176
-0.0091248
-0.0109326
-0.0133234
-0.0161669
-0.0190811
-0.0216525
-0.0238633
-0.0258686
-0.0279183
0
-0.0297384
-0.0314976
-0.0329243
-0.0342178
-0.0352225
-0.0360826
-0.0367711
-0.0373711
-0.0379564
-0.0385967
-0.0393747
-0.0403505
-0.0414473
-0.0423942
-0.0417783
-0.0399699
-0.0400779
-0.0403236
-0.0405034
-0.04064
-0.0407692
-0.0409075
-0.0410631
-0.0411357
-0.041103
-0.041009
-0.0409711
-0.0406371
-0.0404016
-0.0401877
-0.0399745
-0.0397402
-0.0394414
-0.0390317
-0.0387473
-0.0384657
-0.038372
-0.0386779
-0.0386913
-0.0383885
-0.0379186
-0.0373295
-0.0365136
-0.0350254
-0.032075
0
0
-0.000441533
-0.00298988
-0.00555797
-0.00793629
-0.0101775
-0.0122063
-0.0144106
-0.0170077
-0.0198267
-0.0233801
-0.0248324
-0.0266914
-0.0283046
-0.0297162
-0.0302743
-0.0317147
-0.0331079
-0.0343905
-0.0358046
-0.0366954
-0.0373583
-0.0379293
-0.038468
-0.0390244
-0.039664
-0.0405124
-0.0417922
-0.0435624
-0.0462851
-0.0437707
-0.0420342
-0.0415128
-0.0414788
-0.0415918
-0.0417585
-0.0419655
-0.0421869
-0.0424583
-0.0425687
-0.0424662
-0.0422134
-0.0417615
-0.0416777
-0.0414759
-0.0412638
-0.0410624
-0.040859
-0.0405876
-0.0400494
-0.0400521
-0.0399314
-0.0398088
-0.0397496
-0.0396688
-0.0394327
-0.03905
-0.038439
-0.037689
-0.0361617
-0.0331062
0
0
-0.000645361
-0.0037431
-0.00690184
-0.00998967
-0.0125991
-0.0150808
-0.0176756
-0.020509
-0.0233801
-0.0259551
-0.0279776
-0.0295548
-0.0308624
-0.0319854
-0.0328717
-0.0339034
-0.0349298
-0.0359253
-0.0379023
-0.0383646
-0.0387401
-0.0391543
-0.0396014
-0.0400717
-0.0406025
-0.0413253
-0.0426711
-0.0334142
-0.0571412
-0.0455306
-0.0429507
-0.0424426
-0.0424416
-0.0426003
-0.0428438
-0.0431876
-0.0436686
-0.0440817
-0.0442758
-0.0440262
-0.0436062
-0.0431733
-0.0428645
-0.0425995
-0.0423706
-0.0421852
-0.0420361
-0.0418609
-0.0337923
-0.0414689
-0.0413822
-0.0411722
-0.0408595
-0.0408178
-0.0406027
-0.0403191
-0.0399247
-0.0389311
-0.0372775
-0.0340865
0
0
-0.000828097
-0.00439494
-0.00807192
-0.0116162
-0.0148073
-0.0177718
-0.0207618
-0.0238459
-0.026789
-0.0292521
-0.0310868
-0.0324405
-0.0335271
-0.0344702
-0.0353108
-0.0361238
-0.036839
-0.0372919
-0.073293
-0.039971
-0.0400746
-0.0404235
-0.0407872
-0.0411311
-0.0414109
-0.0415261
-0.0410452
-0.0378509
-0.0223404
-0.0372335
-0.0412024
-0.0424893
-0.0430621
-0.0434557
-0.043838
-0.0443474
-0.0450912
-0.0460166
-0.0465632
-0.0458627
-0.045074
-0.0444707
-0.0440426
-0.0437247
-0.0434728
-0.0432946
-0.0431453
-0.0429763
-0.0426904
-0.0428906
-0.0427855
-0.0426201
-0.0426351
-0.0421832
-0.0418304
-0.0416245
-0.0410988
-0.0401469
-0.038368
-0.0349916
0
0
-0.00102734
-0.00493963
-0.00915207
-0.0132148
-0.0169164
-0.0203111
-0.0236951
-0.0270372
-0.0300753
-0.0324784
-0.0341557
-0.0353339
-0.0362583
-0.0370596
-0.0377733
-0.0384375
-0.0390708
-0.0397563
-0.0412328
-0.0414841
-0.0416706
-0.0419019
-0.0421401
-0.0423297
-0.0423957
-0.0421857
-0.0413687
-0.0394116
-0.0363665
-0.039613
-0.0418581
-0.0430774
-0.0437965
-0.0443158
-0.0447514
-0.0453729
-0.0464812
-0.0484424
-0.0505943
-0.048061
-0.046451
-0.0456024
-0.0451172
-0.0447982
-0.0445355
-0.0443972
-0.0442716
-0.0441655
-0.0441829
-0.0445622
-0.0442412
-0.0439528
-0.0437848
-0.0434903
-0.0428035
-0.0430931
-0.0424913
-0.0415385
-0.039547
-0.0357614
0
0
-0.00131264
0.00147477
-0.0102073
-0.0148252
-0.0189812
-0.0226707
-0.0264848
-0.0300953
-0.0332584
-0.0356406
-0.0371587
-0.0382077
-0.0390325
-0.039732
-0.0402911
-0.0407943
-0.0413048
-0.0418835
-0.0425878
-0.0429746
-0.0432245
-0.0434268
-0.0435885
-0.0436825
-0.0436527
-0.0434044
-0.0428066
-0.042107
-0.0418939
-0.0426918
-0.0435528
-0.0442464
-0.0448042
-0.0452811
-0.0455472
-0.0460403
-0.0471694
-0.0505138
-0.0615436
-0.0498363
-0.0470704
-0.0462897
-0.0459661
-0.0457737
-0.0445355
-0.0454993
-0.0454013
-0.0453095
-0.0454702
-0.0466413
-0.045675
-0.045246
-0.0451484
-0.0452418
-0.0459804
-0.0451607
-0.044244
-0.0434664
-0.0413119
-0.0362568
0
0
-0.00132106
-0.00612242
-0.0112619
-0.0164032
-0.0210845
-0.0252043
-0.0291433
-0.0330322
-0.0363676
-0.0387757
-0.0400171
-0.041016
-0.0418448
-0.0425105
-0.0428492
-0.0431466
-0.0435026
-0.0439512
-0.044365
-0.0446567
-0.0448638
-0.0450186
-0.0451249
-0.0451691
-0.0451269
-0.0449718
-0.0447041
-0.0442594
-0.0453447
-0.0452115
-0.0453209
-0.0456005
-0.0459484
-0.0463182
-0.0462084
-0.0461746
-0.0455206
-0.0421657
-0.0256085
-0.0412376
-0.0450679
-0.0461947
-0.0465299
-0.0466188
-0.0466016
-0.0466026
-0.0465443
-0.0464116
-0.0464501
-0.075144
-0.0468365
-0.046467
-0.0464942
-0.0465711
-0.0466223
-0.0463183
-0.0467361
-0.0464051
-0.0456721
-0.0435225
0
0
-0.00141748
-0.00673621
-0.01226
-0.0181377
-0.0232837
-0.0270507
-0.0316287
-0.035919
-0.0394775
-0.0419946
-0.0424955
-0.0437269
-0.0447217
-0.0454624
-0.0453699
-0.0454373
-0.0456714
-0.0461299
-0.0463767
-0.0465196
-0.0466229
-0.0466994
-0.046745
-0.0467525
-0.0467194
-0.0466545
-0.0465159
-0.0459325
-0.0785959
-0.0471531
-0.0468586
-0.0469688
-0.0470992
-0.0470807
-0.0473398
-0.0469553
-0.0458821
-0.0435742
-0.0400619
-0.0431922
-0.045604
-0.0467298
-0.047264
-0.0475354
-0.0476775
-0.047774
-0.047823
-0.0478627
-0.0480975
-0.0490125
-0.0483107
-0.0480221
-0.0479937
-0.0480179
-0.0480044
-0.0480382
-0.0483412
-0.0482621
-0.0473636
-0.0439929
0
0
-0.00154516
-0.00728273
-0.0130823
-0.0311753
-0.025709
0
-0.0341682
-0.0388975
-0.0426152
-0.0454974
-0.00836506
-0.0465282
-0.0477028
-0.0485229
-0.0476842
-0.0477064
-0.0478746
-0.0486473
-0.0486018
-0.0485288
-0.0484894
-0.0484661
-0.0484336
-0.0483925
-0.0483553
-0.048401
-0.0490227
-0.048309
-0.0490702
-0.0487498
-0.048554
-0.048543
-0.0486019
-0.0485998
-0.0485406
-0.0481372
-0.047338
-0.04623
-0.0454362
-0.0461306
-0.0471127
-0.047826
-0.0482789
-0.0486055
-0.0488252
-0.0490089
-0.0491424
-0.0492541
-0.0494143
-0.0496405
-0.0495002
-0.0494635
-0.0495038
-0.0495391
-0.0494894
-0.0495809
-0.0497498
-0.0495958
-0.0484659
-0.044753
0
0
-0.00169441
-0.00788882
-0.0142912
-0.020999
-0.0269672
-0.0316731
-0.0369473
-0.0416887
-0.0453955
-0.0478294
-0.0483985
-0.0493246
-0.0500243
-0.0499693
-0.0507591
-0.0506361
-0.050323
-0.0699401
-0.0508908
-0.050575
-0.0504248
-0.0502984
-0.0501675
-0.0500474
-0.0499124
-0.0496588
-0.0485473
-0.0494729
-0.0499861
-0.0500521
-0.0500451
-0.0501098
-0.0502607
-0.0503651
-0.0501061
-0.0496826
-0.0490989
-0.0485326
-0.0482688
-0.0484509
-0.0488431
-0.0492225
-0.0494543
-0.0498306
-0.0500678
-0.0503057
-0.0504743
-0.0505964
-0.0506805
-0.0506914
-0.0506513
-0.0508226
-0.0509658
-0.051064
-0.0508893
-0.0509832
-0.0510573
-0.050765
-0.0495101
-0.0456567
0
0
-0.00184177
-0.00846829
-0.0153236
-0.0221835
-0.0285743
-0.0343108
-0.0397714
-0.0445913
-0.0482265
-0.05053
-0.0516954
-0.0519953
-0.0512257
-0.0892172
-0.0535783
-0.0532071
-0.0530253
-0.0533216
-0.0530052
-0.0526909
-0.0524328
-0.052193
-0.0519187
-0.0517264
-0.0515598
-0.0513382
-0.051027
-0.0511517
-0.051331
-0.0514027
-0.0514574
-0.0516229
-0.0520351
-0.0526308
-0.0519099
-0.0514195
-0.0508398
-0.0504486
-0.0502903
-0.0503411
-0.0505243
-0.0507819
-0.0511876
-0.0512657
-0.051427
-0.0516525
-0.0518075
-0.0519357
-0.0520012
-0.051893
-0.0517748
-0.0521108
-0.0523066
-0.0525369
-0.0522123
-0.0523819
-0.0523397
-0.0518412
-0.050574
-0.0466535
0
0
-0.00198468
-0.00902789
-0.0163073
-0.0235367
-0.0303882
-0.0367122
-0.042533
-0.0475667
-0.0511609
-0.0533317
-0.0549707
-0.0552223
-0.055062
-0.0560136
-0.0558866
-0.0556108
-0.055324
-0.0552303
-0.0549856
-0.0546952
-0.0544075
-0.0540953
-0.0535915
-0.053385
-0.0532574
-0.0530977
-0.052917
-0.0527836
-0.0528062
-0.052777
-0.0527727
-0.0529407
-0.0537091
-0.0567655
-0.0535879
-0.0533156
-0.0523748
-0.0520504
-0.0519592
-0.0519856
-0.052085
-0.052236
-0.0524698
-0.0526815
-0.0528952
-0.0529656
-0.0531098
-0.0532885
-0.0534173
-0.0531854
-0.0529153
-0.0532092
-0.0533738
-0.0533905
-0.0540775
-0.0540147
-0.0536601
-0.0527025
-0.0516577
-0.0477327
0
0
-0.00212774
-0.00958729
-0.0173025
-0.0249769
-0.0323069
-0.0391143
-0.0453193
-0.0507481
-0.055007
-0.0581364
-0.0584324
-0.0584748
-0.0583083
-0.0583817
-0.058229
-0.0579206
-0.0573394
-0.0572751
-0.0569982
-0.056683
-0.0563866
-0.0560675
-0.0550247
-0.0550192
-0.0549938
-0.0548607
-0.0546737
-0.0544126
-0.0542215
-0.054082
-0.0539029
-0.053669
-0.0527799
-0.0479816
-0.0520101
-0.0520887
-0.0530703
-0.0533301
-0.0534174
-0.0534869
-0.053547
-0.053592
-0.0537904
-0.0540313
-0.0542373
-0.0543479
-0.0544796
-0.0546686
-0.0549016
-0.0544575
-0.0534498
-0.0548005
-0.0549266
-0.0550104
-0.0553647
-0.0554394
-0.0549707
-0.053003
-0.0528335
-0.0488896
0
0
-0.00227407
-0.0101557
-0.0183223
-0.0264743
-0.0343063
-0.0416307
-0.0483102
-0.0537868
-0.0580285
-0.0606866
-0.0615513
-0.0615965
-0.0613576
-0.0610972
-0.0607902
-0.0604542
-0.0603867
-0.0596084
-0.0590856
-0.0586755
-0.0583717
-0.0582108
-0.0349475
-0.0567893
-0.0568398
-0.0566061
-0.0563456
-0.0527836
-0.0556947
-0.0554617
-0.0550305
-0.0548345
-0.0541774
-0.0530783
-0.0537166
-0.0540343
-0.054442
-0.0546883
-0.0548406
-0.0549448
-0.0549658
-0.0548008
-0.0550684
-0.0553714
-0.0555882
-0.0557216
-0.0558239
-0.0559094
-0.0559812
-0.0564185
-0.0248218
-0.0647622
-0.0565469
-0.0565448
-0.0567357
-0.0569072
-0.0566003
-0.0192219
-0.0543694
-0.0500711
0
0
-0.00242344
-0.0107322
-0.0193616
-0.0280069
-0.0363394
-0.0441226
-0.0511082
-0.0565435
-0.0608626
-0.0635007
-0.0645543
-0.0646457
-0.0643222
-0.0638841
-0.0634131
-0.0629216
-0.062374
-0.0616785
-0.0610739
-0.0605759
-0.060153
-0.0596691
-0.0587649
-0.0586687
-0.0585679
-0.0581767
-0.0577881
-0.0573921
-0.0571668
-0.0569874
-0.0570067
-0.0564365
-0.0559739
-0.0556112
-0.0556494
-0.0557796
-0.0559651
-0.0561379
-0.0562932
-0.0564319
-0.056438
-0.0557292
-0.0563442
-0.0567598
-0.0569847
-0.0571144
-0.057206
-0.057278
-0.057342
-0.0573881
-0.0566594
-0.0577119
-0.0578677
-0.0579282
-0.0580058
-0.0579938
-0.0575414
-0.0559421
-0.0553182
-0.0511187
0
0
-0.00257198
-0.0113078
-0.0204118
-0.0295717
-0.0384214
-0.0466991
-0.0541443
-0.0588973
-0.0636602
-0.0664895
-0.0676672
-0.0677181
-0.067273
-0.0666708
-0.066054
-0.0654364
-0.0645701
-0.0636753
-0.0629696
-0.0624131
-0.0619802
-0.0615625
-0.0609368
-0.0605914
-0.0604122
-0.0596399
-0.0591759
-0.0588685
-0.058642
-0.0584431
-0.0582529
-0.0579401
-0.0576439
-0.0574365
-0.0573689
-0.0573948
-0.0574809
-0.0575994
-0.0577465
-0.0579392
-0.0580817
-0.0376865
-0.0577914
-0.0582289
-0.0584027
-0.0585189
-0.0586137
-0.0586935
-0.0587558
-0.0587781
-0.0586999
-0.0590037
-0.0591693
-0.0592539
-0.0592932
-0.059227
-0.0588421
-0.0581255
-0.0566651
-0.0522099
0
0
-0.00271003
-0.0118624
-0.0214603
-0.0311753
-0.0405601
-0.049385
-0.0576721
-0.017426
-0.066801
-0.0698354
-0.0709518
-0.0708312
-0.0701836
-0.0694085
-0.0686685
-0.0681111
-0.0667478
-0.0655147
-0.064757
-0.0641748
-0.0638213
-0.0633052
-0.0627244
-0.0622844
-0.0622031
-0.0608694
-0.0605993
-0.0604039
-0.0601882
-0.0599499
-0.0596996
-0.0594338
-0.059194
-0.059018
-0.0589234
-0.0589034
-0.0589422
-0.0590228
-0.0591297
-0.0592322
-0.0592063
-0.0586763
-0.0591443
-0.059501
-0.0597311
-0.0598975
-0.0600297
-0.0601345
-0.0602124
-0.0602642
-0.0603102
-0.0604281
-0.0605338
-0.0606092
-0.060653
-0.0606571
-0.0606327
-0.0598397
-0.0580663
-0.0533673
0
0
-0.00281671
-0.012348
-0.0225036
-0.0328491
-0.0427186
-0.0518731
-0.0599516
-0.0655214
-0.070481
-0.0733601
-0.0740803
-0.0737557
-0.0729599
-0.0720223
-0.0710448
-0.0711501
-0.0686596
-0.067117
-0.0664984
-0.0658726
-0.0658147
-0.0650699
-0.0642984
-0.0634719
-0.0623283
-0.0629484
-0.0626087
-0.0622092
-0.0618373
-0.0614977
-0.0611841
-0.0608994
-0.0606574
-0.0604748
-0.0603642
-0.0603242
-0.060344
-0.0604089
-0.0604994
-0.0605792
-0.0605805
-0.0604702
-0.0606147
-0.0608448
-0.0610807
-0.0612937
-0.0614706
-0.0616052
-0.061698
-0.0617592
-0.0618097
-0.0618705
-0.0619367
-0.0619975
-0.0620365
-0.0620351
-0.0619242
-0.0612954
-0.05942
-0.0545647
0
0
-0.00286048
-0.012614
-0.0237301
-0.0345839
-0.0449769
-0.05454
-0.0629192
-0.0695245
-0.0742927
-0.0768409
-0.0774022
-0.0768311
-0.0758074
-0.0747931
-0.0745653
-0.0746161
-0.0699401
-0.0692303
-0.0683565
-0.0675817
-0.0812441
-0.0668209
-0.0658704
-0.0650501
-0.0641488
-0.0640606
-0.0638739
-0.0635839
-0.063251
-0.0629107
-0.0625853
-0.0622891
-0.0620333
-0.0618313
-0.0617087
-0.0616655
-0.061688
-0.0617627
-0.0618757
-0.0619942
-0.0620451
-0.0619756
-0.0620087
-0.0621901
-0.0624562
-0.0627282
-0.0629575
-0.0631222
-0.0632203
-0.0632691
-0.0632931
-0.0633167
-0.0633572
-0.0634103
-0.0634332
-0.0633992
-0.0632796
-0.0626999
-0.0607612
-0.055785
0
0
-0.00287807
-0.0119748
-0.0250394
-0.0366666
-0.0475638
-0.05753
-0.0662707