# vtk DataFile Version 2.0
FlowField
ASCII
DATASET STRUCTURED_GRID
DIMENSIONS 62 47 32 
POINTS 93248 double
0 0 0
0.01 0 0
0.02 0 0
0.03 0 0
0.04 0 0
0.05 0 0
0.06 0 0
0.07 0 0
0.08 0 0
0.09 0 0
0.1 0 0
0.11 0 0
0.12 0 0
0.13 0 0
0.14 0 0
0.15 0 0
0.16 0 0
0.17 0 0
0.18 0 0
0.19 0 0
0.2 0 0
0.21 0 0
0.22 0 0
0.23 0 0
0.24 0 0
0.25 0 0
0.26 0 0
0.27 0 0
0.28 0 0
0.29 0 0
0.3 0 0
0.31 0 0
0.32 0 0
0.33 0 0
0.34 0 0
0.35 0 0
0.36 0 0
0.37 0 0
0.38 0 0
0.39 0 0
0.4 0 0
0.41 0 0
0.42 0 0
0.43 0 0
0.44 0 0
0.45 0 0
0.46 0 0
0.47 0 0
0.48 0 0
0.49 0 0
0.5 0 0
0.51 0 0
0.52 0 0
0.53 0 0
0.54 0 0
0.55 0 0
0.56 0 0
0.57 0 0
0.58 0 0
0.59 0 0
0.6 0 0
0.61 0 0
0 0.01 0
0.01 0.01 0
0.02 0.01 0
0.03 0.01 0
0.04 0.01 0
0.05 0.01 0
0.06 0.01 0
0.07 0.01 0
0.08 0.01 0
0.09 0.01 0
0.1 0.01 0
0.11 0.01 0
0.12 0.01 0
0.13 0.01 0
0.14 0.01 0
0.15 0.01 0
0.16 0.01 0
0.17 0.01 0
0.18 0.01 0
0.19 0.01 0
0.2 0.01 0
0.21 0.01 0
0.22 0.01 0
0.23 0.01 0
0.24 0.01 0
0.25 0.01 0
0.26 0.01 0
0.27 0.01 0
0.28 0.01 0
0.29 0.01 0
0.3 0.01 0
0.31 0.01 0
0.32 0.01 0
0.33 0.01 0
0.34 0.01 0
0.35 0.01 0
0.36 0.01 0
0.37 0.01 0
0.38 0.01 0
0.39 0.01 0
0.4 0.01 0
0.41 0.01 0
0.42 0.01 0
0.43 0.01 0
0.44 0.01 0
0.45 0.01 0
0.46 0.01 0
0.47 0.01 0
0.48 0.01 0
0.49 0.01 0
0.5 0.01 0
0.51 0.01 0
0.52 0.01 0
0.53 0.01 0
0.54 0.01 0
0.55 0.01 0
0.56 0.01 0
0.57 0.01 0
0.58 0.01 0
0.59 0.01 0
0.6 0.01 0
0.61 0.01 0
0 0.02 0
0.01 0.02 0
0.02 0.02 0
0.03 0.02 0
0.04 0.02 0
0.05 0.02 0
0.06 0.02 0
0.07 0.02 0
0.08 0.02 0
0.09 0.02 0
0.1 0.02 0
0.11 0.02 0
0.12 0.02 0
0.13 0.02 0
0.14 0.02 0
0.15 0.02 0
0.16 0.02 0
0.17 0.02 0
0.18 0.02 0
0.19 0.02 0
0.2 0.02 0
0.21 0.02 0
0.22 0.02 0
0.23 0.02 0
0.24 0.02 0
0.25 0.02 0
0.26 0.02 0
0.27 0.02 0
0.28 0.02 0
0.29 0.02 0
0.3 0.02 0
0.31 0.02 0
0.32 0.02 0
0.33 0.02 0
0.34 0.02 0
0.35 0.02 0
0.36 0.02 0
0.37 0.02 0
0.38 0.02 0
0.39 0.02 0
0.4 0.02 0
0.41 0.02 0
0.42 0.02 0
0.43 0.02 0
0.44 0.02 0
0.45 0.02 0
0.46 0.02 0
0.47 0.02 0
0.48 0.02 0
0.49 0.02 0
0.5 0.02 0
0.51 0.02 0
0.52 0.02 0
0.53 0.02 0
0.54 0.02 0
0.55 0.02 0
0.56 0.02 0
0.57 0.02 0
0.58 0.02 0
0.59 0.02 0
0.6 0.02 0
0.61 0.02 0
0 0.03 0
0.01 0.03 0
0.02 0.03 0
0.03 0.03 0
0.04 0.03 0
0.05 0.03 0
0.06 0.03 0
0.07 0.03 0
0.08 0.03 0
0.09 0.03 0
0.1 0.03 0
0.11 0.03 0
0.12 0.03 0
0.13 0.03 0
0.14 0.03 0
0.15 0.03 0
0.16 0.03 0
0.17 0.03 0
0.18 0.03 0
0.19 0.03 0
0.2 0.03 0
0.21 0.03 0
0.22 0.03 0
0.23 0.03 0
0.24 0.03 0
0.25 0.03 0
0.26 0.03 0
0.27 0.03 0
0.28 0.03 0
0.29 0.03 0
0.3 0.03 0
0.31 0.03 0
0.32 0.03 0
0.33 0.03 0
0.34 0.03 0
0.35 0.03 0
0.36 0.03 0
0.37 0.03 0
0.38 0.03 0
0.39 0.03 0
0.4 0.03 0
0.41 0.03 0
0.42 0.03 0
0.43 0.03 0
0.44 0.03 0
0.45 0.03 0
0.46 0.03 0
0.47 0.03 0
0.48 0.03 0
0.49 0.03 0
0.5 0.03 0
0.51 0.03 0
0.52 0.03 0
0.53 0.03 0
0.54 0.03 0
0.55 0.03 0
0.56 0.03 0
0.57 0.03 0
0.58 0.03 0
0.59 0.03 0
0.6 0.03 0
0.61 0.03 0
0 0.04 0
0.01 0.04 0
0.02 0.04 0
0.03 0.04 0
0.04 0.04 0
0.05 0.04 0
0.06 0.04 0
0.07 0.04 0
0.08 0.04 0
0.09 0.04 0
0.1 0.04 0
0.11 0.04 0
0.12 0.04 0
0.13 0.04 0
0.14 0.04 0
0.15 0.04 0
0.16 0.04 0
0.17 0.04 0
0.18 0.04 0
0.19 0.04 0
0.2 0.04 0
0.21 0.04 0
0.22 0.04 0
0.23 0.04 0
0.24 0.04 0
0.25 0.04 0
0.26 0.04 0
0.27 0.04 0
0.28 0.04 0
0.29 0.04 0
0.3 0.04 0
0.31 0.04 0
0.32 0.04 0
0.33 0.04 0
0.34 0.04 0
0.35 0.04 0
0.36 0.04 0
0.37 0.04 0
0.38 0.04 0
0.39 0.04 0
0.4 0.04 0
0.41 0.04 0
0.42 0.04 0
0.43 0.04 0
0.44 0.04 0
0.45 0.04 0
0.46 0.04 0
0.47 0.04 0
0.48 0.04 0
0.49 0.04 0
0.5 0.04 0
0.51 0.04 0
0.52 0.04 0
0.53 0.04 0
0.54 0.04 0
0.55 0.04 0
0.56 0.04 0
0.57 0.04 0
0.58 0.04 0
0.59 0.04 0
0.6 0.04 0
0.61 0.04 0
0 0.05 0
0.01 0.05 0
0.02 0.05 0
0.03 0.05 0
0.04 0.05 0
0.05 0.05 0
0.06 0.05 0
0.07 0.05 0
0.08 0.05 0
0.09 0.05 0
0.1 0.05 0
0.11 0.05 0
0.12 0.05 0
0.13 0.05 0
0.14 0.05 0
0.15 0.05 0
0.16 0.05 0
0.17 0.05 0
0.18 0.05 0
0.19 0.05 0
0.2 0.05 0
0.21 0.05 0
0.22 0.05 0
0.23 0.05 0
0.24 0.05 0
0.25 0.05 0
0.26 0.05 0
0.27 0.05 0
0.28 0.05 0
0.29 0.05 0
0.3 0.05 0
0.31 0.05 0
0.32 0.05 0
0.33 0.05 0
0.34 0.05 0
0.35 0.05 0
0.36 0.05 0
0.37 0.05 0
0.38 0.05 0
0.39 0.05 0
0.4 0.05 0
0.41 0.05 0
0.42 0.05 0
0.43 0.05 0
0.44 0.05 0
0.45 0.05 0
0.46 0.05 0
0.47 0.05 0
0.48 0.05 0
0.49 0.05 0
0.5 0.05 0
0.51 0.05 0
0.52 0.05 0
0.53 0.05 0
0.54 0.05 0
0.55 0.05 0
0.56 0.05 0
0.57 0.05 0
0.58 0.05 0
0.59 0.05 0
0.6 0.05 0
0.61 0.05 0
0 0.06 0
0.01 0.06 0
0.02 0.06 0
0.03 0.06 0
0.04 0.06 0
0.05 0.06 0
0.06 0.06 0
0.07 0.06 0
0.08 0.06 0
0.09 0.06 0
0.1 0.06 0
0.11 0.06 0
0.12 0.06 0
0.13 0.06 0
0.14 0.06 0
0.15 0.06 0
0.16 0.06 0
0.17 0.06 0
0.18 0.06 0
0.19 0.06 0
0.2 0.06 0
0.21 0.06 0
0.22 0.06 0
0.23 0.06 0
0.24 0.06 0
0.25 0.06 0
0.26 0.06 0
0.27 0.06 0
0.28 0.06 0
0.29 0.06 0
0.3 0.06 0
0.31 0.06 0
0.32 0.06 0
0.33 0.06 0
0.34 0.06 0
0.35 0.06 0
0.36 0.06 0
0.37 0.06 0
0.38 0.06 0
0.39 0.06 0
0.4 0.06 0
0.41 0.06 0
0.42 0.06 0
0.43 0.06 0
0.44 0.06 0
0.45 0.06 0
0.46 0.06 0
0.47 0.06 0
0.48 0.06 0
0.49 0.06 0
0.5 0.06 0
0.51 0.06 0
0.52 0.06 0
0.53 0.06 0
0.54 0.06 0
0.55 0.06 0
0.56 0.06 0
0.57 0.06 0
0.58 0.06 0
0.59 0.06 0
0.6 0.06 0
0.61 0.06 0
0 0.07 0
0.01 0.07 0
0.02 0.07 0
0.03 0.07 0
0.04 0.07 0
0.05 0.07 0
0.06 0.07 0
0.07 0.07 0
0.08 0.07 0
0.09 0.07 0
0.1 0.07 0
0.11 0.07 0
0.12 0.07 0
0.13 0.07 0
0.14 0.07 0
0.15 0.07 0
0.16 0.07 0
0.17 0.07 0
0.18 0.07 0
0.19 0.07 0
0.2 0.07 0
0.21 0.07 0
0.22 0.07 0
0.23 0.07 0
0.24 0.07 0
0.25 0.07 0
0.26 0.07 0
0.27 0.07 0
0.28 0.07 0
0.29 0.07 0
0.3 0.07 0
0.31 0.07 0
0.32 0.07 0
0.33 0.07 0
0.34 0.07 0
0.35 0.07 0
0.36 0.07 0
0.37 0.07 0
0.38 0.07 0
0.39 0.07 0
0.4 0.07 0
0.41 0.07 0
0.42 0.07 0
0.43 0.07 0
0.44 0.07 0
0.45 0.07 0
0.46 0.07 0
0.47 0.07 0
0.48 0.07 0
0.49 0.07 0
0.5 0.07 0
0.51 0.07 0
0.52 0.07 0
0.53 0.07 0
0.54 0.07 0
0.55 0.07 0
0.56 0.07 0
0.57 0.07 0
0.58 0.07 0
0.59 0.07 0
0.6 0.07 0
0.61 0.07 0
0 0.08 0
0.01 0.08 0
0.02 0.08 0
0.03 0.08 0
0.04 0.08 0
0.05 0.08 0
0.06 0.08 0
0.07 0.08 0
0.08 0.08 0
0.09 0.08 0
0.1 0.08 0
0.11 0.08 0
0.12 0.08 0
0.13 0.08 0
0.14 0.08 0
0.15 0.08 0
0.16 0.08 0
0.17 0.08 0
0.18 0.08 0
0.19 0.08 0
0.2 0.08 0
0.21 0.08 0
0.22 0.08 0
0.23 0.08 0
0.24 0.08 0
0.25 0.08 0
0.26 0.08 0
0.27 0.08 0
0.28 0.08 0
0.29 0.08 0
0.3 0.08 0
0.31 0.08 0
0.32 0.08 0
0.33 0.08 0
0.34 0.08 0
0.35 0.08 0
0.36 0.08 0
0.37 0.08 0
0.38 0.08 0
0.39 0.08 0
0.4 0.08 0
0.41 0.08 0
0.42 0.08 0
0.43 0.08 0
0.44 0.08 0
0.45 0.08 0
0.46 0.08 0
0.47 0.08 0
0.48 0.08 0
0.49 0.08 0
0.5 0.08 0
0.51 0.08 0
0.52 0.08 0
0.53 0.08 0
0.54 0.08 0
0.55 0.08 0
0.56 0.08 0
0.57 0.08 0
0.58 0.08 0
0.59 0.08 0
0.6 0.08 0
0.61 0.08 0
0 0.09 0
0.01 0.09 0
0.02 0.09 0
0.03 0.09 0
0.04 0.09 0
0.05 0.09 0
0.06 0.09 0
0.07 0.09 0
0.08 0.09 0
0.09 0.09 0
0.1 0.09 0
0.11 0.09 0
0.12 0.09 0
0.13 0.09 0
0.14 0.09 0
0.15 0.09 0
0.16 0.09 0
0.17 0.09 0
0.18 0.09 0
0.19 0.09 0
0.2 0.09 0
0.21 0.09 0
0.22 0.09 0
0.23 0.09 0
0.24 0.09 0
0.25 0.09 0
0.26 0.09 0
0.27 0.09 0
0.28 0.09 0
0.29 0.09 0
0.3 0.09 0
0.31 0.09 0
0.32 0.09 0
0.33 0.09 0
0.34 0.09 0
0.35 0.09 0
0.36 0.09 0
0.37 0.09 0
0.38 0.09 0
0.39 0.09 0
0.4 0.09 0
0.41 0.09 0
0.42 0.09 0
0.43 0.09 0
0.44 0.09 0
0.45 0.09 0
0.46 0.09 0
0.47 0.09 0
0.48 0.09 0
0.49 0.09 0
0.5 0.09 0
0.51 0.09 0
0.52 0.09 0
0.53 0.09 0
0.54 0.09 0
0.55 0.09 0
0.56 0.09 0
0.57 0.09 0
0.58 0.09 0
0.59 0.09 0
0.6 0.09 0
0.61 0.09 0
0 0.1 0
0.01 0.1 0
0.02 0.1 0
0.03 0.1 0
0.04 0.1 0
0.05 0.1 0
0.06 0.1 0
0.07 0.1 0
0.08 0.1 0
0.09 0.1 0
0.1 0.1 0
0.11 0.1 0
0.12 0.1 0
0.13 0.1 0
0.14 0.1 0
0.15 0.1 0
0.16 0.1 0
0.17 0.1 0
0.18 0.1 0
0.19 0.1 0
0.2 0.1 0
0.21 0.1 0
0.22 0.1 0
0.23 0.1 0
0.24 0.1 0
0.25 0.1 0
0.26 0.1 0
0.27 0.1 0
0.28 0.1 0
0.29 0.1 0
0.3 0.1 0
0.31 0.1 0
0.32 0.1 0
0.33 0.1 0
0.34 0.1 0
0.35 0.1 0
0.36 0.1 0
0.37 0.1 0
0.38 0.1 0
0.39 0.1 0
0.4 0.1 0
0.41 0.1 0
0.42 0.1 0
0.43 0.1 0
0.44 0.1 0
0.45 0.1 0
0.46 0.1 0
0.47 0.1 0
0.48 0.1 0
0.49 0.1 0
0.5 0.1 0
0.51 0.1 0
0.52 0.1 0
0.53 0.1 0
0.54 0.1 0
0.55 0.1 0
0.56 0.1 0
0.57 0.1 0
0.58 0.1 0
0.59 0.1 0
0.6 0.1 0
0.61 0.1 0
0 0.11 0
0.01 0.11 0
0.02 0.11 0
0.03 0.11 0
0.04 0.11 0
0.05 0.11 0
0.06 0.11 0
0.07 0.11 0
0.08 0.11 0
0.09 0.11 0
0.1 0.11 0
0.11 0.11 0
0.12 0.11 0
0.13 0.11 0
0.14 0.11 0
0.15 0.11 0
0.16 0.11 0
0.17 0.11 0
0.18 0.11 0
0.19 0.11 0
0.2 0.11 0
0.21 0.11 0
0.22 0.11 0
0.23 0.11 0
0.24 0.11 0
0.25 0.11 0
0.26 0.11 0
0.27 0.11 0
0.28 0.11 0
0.29 0.11 0
0.3 0.11 0
0.31 0.11 0
0.32 0.11 0
0.33 0.11 0
0.34 0.11 0
0.35 0.11 0
0.36 0.11 0
0.37 0.11 0
0.38 0.11 0
0.39 0.11 0
0.4 0.11 0
0.41 0.11 0
0.42 0.11 0
0.43 0.11 0
0.44 0.11 0
0.45 0.11 0
0.46 0.11 0
0.47 0.11 0
0.48 0.11 0
0.49 0.11 0
0.5 0.11 0
0.51 0.11 0
0.52 0.11 0
0.53 0.11 0
0.54 0.11 0
0.55 0.11 0
0.56 0.11 0
0.57 0.11 0
0.58 0.11 0
0.59 0.11 0
0.6 0.11 0
0.61 0.11 0
0 0.12 0
0.01 0.12 0
0.02 0.12 0
0.03 0.12 0
0.04 0.12 0
0.05 0.12 0
0.06 0.12 0
0.07 0.12 0
0.08 0.12 0
0.09 0.12 0
0.1 0.12 0
0.11 0.12 0
0.12 0.12 0
0.13 0.12 0
0.14 0.12 0
0.15 0.12 0
0.16 0.12 0
0.17 0.12 0
0.18 0.12 0
0.19 0.12 0
0.2 0.12 0
0.21 0.12 0
0.22 0.12 0
0.23 0.12 0
0.24 0.12 0
0.25 0.12 0
0.26 0.12 0
0.27 0.12 0
0.28 0.12 0
0.29 0.12 0
0.3 0.12 0
0.31 0.12 0
0.32 0.12 0
0.33 0.12 0
0.34 0.12 0
0.35 0.12 0
0.36 0.12 0
0.37 0.12 0
0.38 0.12 0
0.39 0.12 0
0.4 0.12 0
0.41 0.12 0
0.42 0.12 0
0.43 0.12 0
0.44 0.12 0
0.45 0.12 0
0.46 0.12 0
0.47 0.12 0
0.48 0.12 0
0.49 0.12 0
0.5 0.12 0
0.51 0.12 0
0.52 0.12 0
0.53 0.12 0
0.54 0.12 0
0.55 0.12 0
0.56 0.12 0
0.57 0.12 0
0.58 0.12 0
0.59 0.12 0
0.6 0.12 0
0.61 0.12 0
0 0.13 0
0.01 0.13 0
0.02 0.13 0
0.03 0.13 0
0.04 0.13 0
0.05 0.13 0
0.06 0.13 0
0.07 0.13 0
0.08 0.13 0
0.09 0.13 0
0.1 0.13 0
0.11 0.13 0
0.12 0.13 0
0.13 0.13 0
0.14 0.13 0
0.15 0.13 0
0.16 0.13 0
0.17 0.13 0
0.18 0.13 0
0.19 0.13 0
0.2 0.13 0
0.21 0.13 0
0.22 0.13 0
0.23 0.13 0
0.24 0.13 0
0.25 0.13 0
0.26 0.13 0
0.27 0.13 0
0.28 0.13 0
0.29 0.13 0
0.3 0.13 0
0.31 0.13 0
0.32 0.13 0
0.33 0.13 0
0.34 0.13 0
0.35 0.13 0
0.36 0.13 0
0.37 0.13 0
0.38 0.13 0
0.39 0.13 0
0.4 0.13 0
0.41 0.13 0
0.42 0.13 0
0.43 0.13 0
0.44 0.13 0
0.45 0.13 0
0.46 0.13 0
0.47 0.13 0
0.48 0.13 0
[...]
POINT_DATA 93248

SCALARS u double
LOOKUP_TABLE default
0
0
0
0
0
0
0
0
0
0
0
0
0
0
0
0
0
0
0
0
0
0
0
0
0.297483
0
0
0
0
0
0
0
0.0626041
0.223618
0
0
0
0
0
0
0
0
0
0
0
0
0
0.0915356
0
0
0.0767862
0
0
0
0
0
0
0
0
0
0
0
0
0.420402
0.343094
0.270848
0.21317
0.172122
0.146325
0.132529
0.125247
0.120705
0.117176
0.113917
0.111311
0.108589
0.105888
0.103157
0.100571
0.0978981
0.0951437
0.0916403
0.0905953
0.0884254
0.0857524
0.0830839
0.0804967
0.0779718
0.0754779
0.0729929
0.0705017
0.0679895
0.0654388
0.0628577
0.0604942
0.0578339
0.0548652
0.0519154
0.0492358
0.0468788
0.0468275
0.166601
0.0369775
0.0361955
0.0351625
0.0339931
0.0332212
0.0247914
0.025349
0.0234006
0.0213193
0.0187463
0.0161733
0.0468848
0.0120099
0.0110474
0.00272699
0.00121877
0.0200725
-0.00317966
-0.00688377
-0.0125192
-0.0125192
0
0
0.494476
0.481452
0.459677
0.43288
0.406623
0.381313
0.359095
0.341509
0.327814
0.31667
0.306722
0.298661
0.290683
0.283116
0.275695
0.268774
0.261772
0.255786
0.341384
0.244302
0.236215
0.228608
0.221781
0.215112
0.208541
0.20202
0.195523
0.189032
0.182526
0.175971
0.169305
0.163114
0.156557
0.149495
0.142445
0.134129
0.123556
-0.048524
0.108847
0.106157
0.102065
0.0974387
0.0924683
0.0868752
0.0789979
0.0722214
0.0664264
0.0603669
0.0540333
0.0477768
0.0424739
0.035803
0.0290982
0.0203671
0.0137965
0.00676959
0.000368621
-0.0071611
-0.015005
-0.015005
0
0
0.488717
0.492115
0.494885
0.492483
0.48816
0.473312
0.455309
0.437014
0.420588
0.40725
0.394125
0.382317
0.372007
0.362343
0.353401
0.34472
0.335217
0.326557
0.317561
0.308905
0.300721
0.292437
0.284107
0.275781
0.267476
0.259195
0.250933
0.242683
0.234441
0.226227
0.218094
0.209386
0.201912
0.217065
0.185222
0.176247
0.168355
0.16367
0.153584
0.143977
0.135473
0.139735
0.120149
0.112601
0.131697
0.0956315
0.0866942
0.0603669
0.0703169
0.0627709
0.0551704
0.0468848
0.0382871
0.0292418
0.0207963
0.0124025
0.00326792
-0.00511821
-0.0133234
-0.0133234
0
0
0.481645
0.481547
0.489179
0.493328
0.493954
0.486978
0.474255
0.459148
0.444291
0.430725
0.418242
0.406373
0.3954
0.385052
0.37544
0.365549
0.356825
0.347458
0.340326
0.328612
0.319717
0.310922
0.302139
0.293353
0.284574
0.275809
0.267058
0.258318
0.249585
0.24086
0.232131
0.223237
0.214731
0.205883
0.197434
0.189163
0.181728
0.175327
0.165993
0.155835
0.146062
0.136843
0.128186
0.119559
0.110542
0.101516
0.0929018
0.0845506
0.0758938
0.067398
0.0589066
0.050168
0.04122
0.0321448
0.0232098
0.0143079
0.00520912
-0.00352756
-0.012087
-0.012087
0
0
0.47855
0.473787
0.475834
0.479927
0.481837
0.478038
0.46898
0.457132
0.444632
0.432531
0.420943
0.409779
0.399071
0.38865
0.379767
0.369873
0.360599
0.351277
0.341868
0.332608
0.323544
0.314596
0.305699
0.296827
0.287971
0.279132
0.270307
0.26149
0.252673
0.243845
0.234977
0.226046
0.217605
0.208868
0.200318
0.192028
0.184133
0.176386
0.167509
0.157967
0.148393
0.139057
0.130032
0.121163
0.112452
0.104208
0.0942881
0.0858143
0.0771335
0.0684541
0.0597686
0.0509812
0.04204
0.0330249
0.0240513
0.0151309
0.00625845
-0.00243629
-0.0112982
-0.0112982
0
0
0.477204
0.469248
0.467365
0.469022
0.470149
0.467258
0.460307
0.450681
0.44002
0.429309
0.418754
0.40839
0.398251
0.388352
0.379054
0.369943
0.360523
0.351433
0.342082
0.332925
0.323906
0.314968
0.306077
0.297214
0.288373
0.279551
0.270745
0.261947
0.253147
0.244328
0.235443
0.226363
0.218339
0.209596
0.200923
0.192473
0.18418
0.175839
0.167062
0.157928
0.14868
0.139475
0.130352
0.121186
0.111858
0.104054
0.0951498
0.0862769
0.0774685
0.0687376
0.0600662
0.0513608
0.0424412
0.0334481
0.0245068
0.0156563
0.00698953
-0.000990902
-0.0078748
-0.0078748
0
0
0.47654
0.466758
0.462449
0.462051
0.462158
0.472235
0.45366
0.444774
0.435177
0.425483
0.415812
0.40614
0.396534
0.386968
0.377556
0.368848
0.359483
0.350363
0.341384
0.332481
0.323614
0.314756
0.30591
0.297083
0.288275
0.279492
0.270724
0.261967
0.253215
0.244467
0.235811
0.227398
0.217915
0.209297
0.20084
0.192387
0.183921
0.175361
0.166601
0.157658
0.14862
0.139975
0.1305
0.121429
0.112425
0.104004
0.0952403
0.0863847
0.0775604
0.0688343
0.0602594
0.0517521
0.0427712
0.0337335
0.0248167
0.015968
0.00700907
-0.00207344
-0.00599166
-0.00599166
0
0
0.476166
0.465322
0.459536
0.45767
0.456588
0.453255
0.447354
0.439482
0.430874
0.422019
0.413019
0.403828
0.39466
0.385234
0.37507
0.268774
0.356279
0.348443
0.340326
0.331827
0.323187
0.314425
0.305631
0.296846
0.287971
0.279346
0.27062
0.261915
0.253217
0.244491
0.235819
0.227184
0.218171
0.209448
0.20086
0.192309
0.183725
0.17507
0.166313
0.157456
0.14853
0.139568
0.130603
0.121647
0.112755
0.104033
0.0952375
0.0863791
0.0775132
0.0687193
0.0601674
0.0520386
0.0428217
0.0337754
0.0250223
0.0164695
0.00805554
-0.000971001
-0.00831781
-0.00831781
0
0
0.475936
0.464442
0.457727
0.454869
0.452928
0.449153
0.443055
0.435479
0.427337
0.419001
0.41056
0.401738
0.392895
0.383994
0.375061
0.366899
0.357887
0.348928
0.340153
0.331416
0.322801
0.314053
0.305282
0.296529
0.287818
0.279118
0.270452
0.261833
0.253246
0.244576
0.235859
0.227112
0.218294
0.209554
0.200883
0.192246
0.183588
0.174888
0.166137
0.157329
0.148473
0.139586
0.130688
0.121796
0.112933
0.104111
0.0952621
0.0863507
0.0773482
0.068221
0.0590514
0.0513862
0.041827
0.0332457
0.0249256
0.0166002
0.00823019
-0.000377241
-0.00879818
-0.00879818
0
0
0.475787
0.463873
0.456528
0.453015
0.450429
0.446219
0.439887
0.432333
0.424393
0.416338
0.408151
0.399766
0.39131
0.382806
0.374232
0.365929
0.357226
0.348422
0.339688
0.331072
0.322232
0.313522
0.304837
0.296125
0.28754
0.278844
0.270227
0.261715
0.253374
0.252394
0.236088
0.227148
0.21834
0.209591
0.200859
0.191245
0.183447
0.174748
0.16602
0.157252
0.148446
0.139613
0.130761
0.121905
0.113055
0.104208
0.0953329
0.0863812
0.077246
0.0676587
0.0570363
-0.0100526
0.0390971
0.0323848
0.0247779
0.0166825
0.00836441
-0.000117796
-0.00879162
-0.00879162
0
0
0.475691
0.463494
0.455672
0.451764
0.448659
0.44403
0.437449
0.429828
0.421965
0.414076
0.406107
0.398016
0.389852
0.381666
0.373096
0.364681
0.356183
0.347608
0.338981
0.326738
0.321613
0.313025
0.304404
0.295752
0.287113
0.278467
0.269885
0.261424
0.253125
0.244925
0.235495
0.226904
0.218291
0.209589
0.200855
0.192116
0.182249
0.174641
0.165947
0.157216
0.148448
0.139657
0.130837
0.122003
0.113165
0.104324
0.0954663
0.0865696
0.0776084
0.0686189
0.0598667
0.0520788
0.0424825
0.0337456
0.0253527
0.0169846
0.00856925
6.3609e-05
-0.00869197
-0.00869197
0
0
0.475634
0.463283
0.455346
0.450722
0.447219
0.442303
0.435522
0.427817
0.419968
0.412176
0.404348
0.396433
0.388468
0.380637
0.371853
0.363567
0.355266
0.346858
0.338409
0.329937
0.321323
0.312686
0.304034
0.29536
0.286675
0.277998
0.269402
0.260972
0.252717
0.243863
0.23624
0.227485
0.218579
0.209701
0.200872
0.192096
0.183363
0.174639
0.165938
0.157224
0.148479
0.139735
0.130928
0.122104
0.113277
0.104453
0.0956324
0.0868129
0.0779992
0.0693214
0.0609368
0.0528275
0.0436828
0.0346499
0.025908
0.0173289
0.00880022
0.000235443
-0.00857456
-0.00857456
0
0
0.475589
0.463097
0.454883
0.450069
0.446249
0.441036
0.434047
0.426228
0.418342
0.410594
0.402835
0.394992
0.387002
0.378677
0.371188
0.363027
0.354669
0.346255
0.337887
0.329455
0.320906
0.312293
0.303636
0.294934
0.286183
0.277404
0.268711
0.260365
0.253169
0.244735
0.236344
0.227557
0.218626
0.209696
0.200817
0.192007
0.18326
0.17458
0.165938
0.157265
0.148509
0.1399
0.131046
0.122214
0.11339
0.10458
0.0957947
0.0870375
0.0782453
0.0696312
0.061165
0.0527149
0.0438759
0.0350012
0.0262512
0.0176184
0.00901171
0.000402924
-0.00845139
-0.00845139
0
0
0.475554
0.462953
0.454573
0.44948
0.445483
0.440061
0.432898
0.424971
0.417055
0.409262
0.40154
0.393772
0.385896
0.377888
0.370115
0.362098
0.353875
0.345493
0.337361
0.328994
0.32048
0.311886
0.303233
0.294502
0.285654
0.276642
0.26751
0.258622
0.255447
0.246422
0.237027
0.227773
0.218647
0.209625
0.20069
0.191851
0.183069
0.174477
0.165973
0.157393
0.148702
0.139975
0.131158
0.122324
0.113496
0.104688
0.0959207
0.0872168
0.07837
0.0697719
0.0612254
0.052645
0.0438657
0.035137
0.0264646
0.0178916
0.00916565
0.000570143
-0.00831651
-0.00831651
0
0
0.475533
0.462828
0.454286
0.44915
0.444927
0.439315
0.431996
0.423956
0.415969
0.408173
0.400468
0.392752
0.384974
0.377125
0.369271
0.361292
0.353131
0.344663
0.336925
0.328553
0.320031
0.311475
0.302851
0.294121
0.285191
0.275814
0.265172
0.250375
0.265892
0.249439
0.237967
0.228012
0.218624
0.20949
0.200476
0.191558
0.182785
0.174304
0.166124
0.157667
0.148974
0.140167
0.131309
0.122444
0.113591
0.10476
0.0959435
0.0871358
0.0785993
0.0699481
0.0613258
0.0527787
0.0437676
0.035207
0.026589
0.0180348
0.00942143
0.000783629
-0.00814051
-0.00814051
0
0
0.47555
0.462725
0.454066
0.448836
0.444477
0.438728
0.431267
0.423118
0.415064
0.40725
0.399556
0.391881
0.384174
0.376411
0.368582
0.360662
0.352686
0.344826
0.336012
0.327708
0.319422
0.311021
0.302508
0.293862
0.285042
0.275968
0.266582
0.257607
0.25556
0.246604
0.236971
0.227534
0.218312
0.20922
0.200145
0.191096
0.1822
0.173865
0.166697
0.158313
0.14944
0.140462
0.131497
0.122573
0.113679
0.10483
0.0960088
0.0872246
0.0785785
0.0700083
0.0613672
0.0527053
0.0439561
0.0353437
0.0266352
0.0181784
0.00963436
0.00105469
-0.00785361
-0.00785361
0
0
0.47564
0.46264
0.45393
0.448651
0.444178
0.438269
0.430629
0.422372
0.414267
0.406446
0.398759
0.391118
0.383474
0.375788
0.368
0.360103
0.352129
0.344104
0.335704
0.327391
0.319086
0.310724
0.302271
0.293718
0.285059
0.276315
0.267609
0.259439
0.252799
0.244688
0.235892
0.226905
0.217892
0.208888
0.199715
0.1904
0.180971
0.172138
0.169028
0.159861
0.150231
0.140851
0.131697
0.122691
0.113747
0.104887
0.0960585
0.0872436
0.0784842
0.0701055
0.0614247
0.052717
0.0440656
0.0356368
0.0263241
0.0181599
0.00976207
0.00145297
-0.00717352
-0.00717352
0
0
0.475348
0.462783
0.454082
0.448724
0.444123
0.435522
0.429933
0.421671
0.41358
0.405784
0.39807
0.390441
0.382863
0.375277
0.367514
0.359605
0.351606
0.343549
0.335352
0.327114
0.318839
0.310506
0.302103
0.293628
0.285095
0.276549
0.269568
0.259759
0.252093
0.243861
0.235229
0.226397
0.217467
0.208513
0.199229
0.189597
0.178714
0.162909
0.179741
0.162765
0.151132
0.141166
0.131815
0.122726
0.113805
0.104937
0.0961086
0.0872613
0.0783337
0.0702537
0.0614406
0.0526832
0.0440066
0.0353299
0.026351
0.00836441
0.00967043
0.00200981
-0.00515702
0
0
0
0.475444
0.46266
0.453928
0.44869
0.444192
0.4378
0.42985
0.421419
0.413239
0.405426
0.397515
0.389838
0.382317
0.374873
0.367053
0.359077
0.351062
0.343069
0.334999
0.326845
0.31862
0.310327
0.301969
0.293552
0.285095
0.27664
0.268224
0.259649
0.251954
0.243503
0.234809
0.226007
0.217017
0.199883
0.198805
0.189712
0.180239
0.171073
0.1693
0.157329
0.150344
0.140912
0.131722
0.122693
0.113783
0.104952
0.0961959
0.0875449
0.0790384
0.0696382
0.0610812
0.0525398
0.0439605
0.0353674
0.0267784
0.0184172
0.00991642
0.00155618
-0.00711077
-0.00711077
0
0
0.475475
0.462646
0.453699
0.448662
0.444338
0.437451
0.42955
0.421182
0.412979
0.405256
0.396951
0.389238
0.381739
0.374331
0.366239
0.358236
0.350299
0.342555
0.334647
0.326594
0.318428
0.310178
0.301857
0.293476
0.285052
0.276637
0.268624
0.260501
0.251374
0.24287
0.234382
0.225763
0.217065
0.208397
0.199433
0.190467
0.181612
0.173334
0.1666
0.158397
0.149515
0.140509
0.13152
0.122585
0.113708
0.104918
0.0961904
0.0875126
0.0788295
0.0698141
0.0610958
0.0525061
0.0439486
0.0354061
0.026854
0.0183721
0.00979816
0.0011738
-0.00778326
-0.00778326
0
0
0.475495
0.462713
0.454106
0.448125
0.442919
0.437496
0.429757
0.42122
0.412757
0.404318
0.396897
0.388968
0.380884
0.341789
0.364243
0.356936
0.349378
0.3421
0.334342
0.326366
0.318264
0.310058
0.301768
0.293405
0.284949
0.276269
0.269219
0.260383
0.251489
0.242836
0.234251
0.225649
0.217043
0.208477
0.199745
0.190989
0.182333
0.17396
0.165926
0.157587
0.148947
0.140162
0.131302
0.122457
0.113613
0.104875
0.0961655
0.0874648
0.0787401
0.069906
0.0611198
0.0524976
0.0439257
0.0353981
0.0267732
0.018195
0.0095981
0.000915558
-0.0080569
-0.0080569
0
0
0.475493
0.462684
0.453915
0.448183
0.443213
0.437269
0.429557
0.421115
0.412638
0.404157
0.39634
0.38825
0.350524
0.372624
0.365123
0.357481
0.349962
0.341912
0.334082
0.326177
0.318135
0.309979
0.301714
0.293383
0.284999
0.276585
0.268546
0.260071
0.251433
0.242801
0.234171
0.225535
0.21695
0.208564
0.199952
0.191326
0.182696
0.17417
0.165735
0.157233
0.14862
0.139947
0.131094
0.122382
0.113596
0.104912
0.0961852
0.0874657
0.078765
0.0700048
0.0611806
0.0525185
0.0438313
0.0352571
0.0265599
0.0179929
0.00941773
0.000726049
-0.00822026
-0.00822026
0
0
0.47549
0.462663
0.453848
0.44825
0.443418
0.437291
0.429523
0.421188
0.412804
0.403599
0.395944
0.388532
0.381708
0.373523
0.36567
0.357906
0.350125
0.342148
0.334188
0.326193
0.318131
0.309984
0.3017
0.293382
0.285047
0.276701
0.268391
0.259918
0.251371
0.242754
0.234075
0.225339
0.216646
0.208953
0.200195
0.191679
0.182948
0.174274
0.165665
0.157057
0.148413
0.139733
0.131027
0.122426
0.117523
0.105078
0.0962113
0.08745
0.0788147
0.0701789
0.0664089
0.0526249
0.04356
0.0248923
0.026144
0.0178057
0.00930474
0.000564294
-0.00835254
-0.00835254
0
0
0.47549
0.462661
0.453849
0.448312
0.443549
0.437416
0.429525
0.421551
0.414829
0.402035
0.395436
0.388342
0.38129
0.373666
0.365933
0.358137
0.350254
0.342297
0.334301
0.326267
0.318194
0.310083
0.301692
0.293382
0.285085
0.27676
0.268411
0.261947
0.251416
0.242749
0.23399
0.225013
0.215171
0.210945
0.200398
0.192443
0.183179
0.174333
0.165621
0.15695
0.148272
0.139559
0.130838
0.12211
0.113308
0.104652
0.0959377
0.0872137
0.0785979
0.0698242
0.0607657
0.0522906
0.0437166
0.0352169
0.0264822
0.017913
0.00937133
0.000383156
-0.00848034
-0.00848034
0
0
0.475492
0.46267
0.453872
0.448369
0.443673
0.437738
0.429004
0.421049
0.412967
0.403608
0.396002
0.38865
0.381319
0.373765
0.366075
0.358302
0.350309
0.342402
0.334403
0.32635
0.318273
0.310256
0.301667
0.293412
0.285174
0.276834
0.268427
0.25985
0.251322
0.242732
0.234017
0.225258
0.216491
0.209019
0.200252
0.19178
0.183012
0.174257
0.16555
0.156868
0.148177
0.139405
0.130663
0.121921
0.113152
0.104446
0.0956992
0.0868183
0.0697214
0.0694863
0.0603857
0.0521844
0.0436971
0.0351642
0.0265071
0.0179436
0.00952503
0.000159123
-0.0085498
-0.0085498
0
0
0.475496
0.46268
0.453892
0.448399
0.44368
0.437558
0.429535
0.421066
0.412708
0.404375
0.396607
0.389062
0.381539
0.373934
0.366238
0.358457
0.350544
0.342569
0.334531
0.326433
0.318249
0.309867
0.302014
0.293764
0.285429
0.276973
0.268425
0.259932
0.251384
0.242842
0.234022
0.22546
0.21691
0.208603
0.200065
0.191499
0.182836
0.174147
0.165464
0.156803
0.148146
0.139242
0.130507
0.121802
0.113084
0.104379
0.0956694
0.0869595
0.0782969
0.0693165
0.0612548
0.0522995
0.0436502
0.0350364
0.0263565
0.0176024
0.00875148
0.000872564
-0.00822655
-0.00822655
0
0
0.475499
0.462689
0.453909
0.448428
0.443717
0.4376
0.429859
0.421162
0.412785
0.404721
0.397012
0.389426
0.381842
0.374199
0.36649
0.358713
0.350797
0.342769
0.334692
0.326572
0.318413
0.310107
0.302851
0.293829
0.285584
0.277036
0.26844
0.259907
0.251376
0.242828
0.234198
0.225613
0.217053
0.208537
0.19997
0.191365
0.182717
0.174043
0.165368
0.156724
0.148161
0.139059
0.130393
0.121732
0.113037
0.10434
0.095652
0.0869808
0.0783209
0.0695638
0.0610881
0.0523252
0.0436318
0.0349703
0.0262988
0.017612
0.00893958
0.000601835
-0.00830962
-0.00830962
0
0
0.475501
0.462694
0.453918
0.448463
0.443787
0.43773
0.430287
0.421266
0.413026
0.40514
0.397524
0.389929
0.382282
0.374582
0.366835
0.359108
0.351134
0.343005
0.334886
0.326738
0.318586
0.31033
0.302027
0.293667
0.285455
0.276716
0.268175
0.259742
0.251311
0.242826
0.234276
0.225703
0.217121
0.208535
0.199927
0.191292
0.182631
0.173948
0.16524
0.156481
0.147615
0.139327
0.130546
0.121751
0.113007
0.104298
0.0956133
0.0869463
0.0782843
0.0696043
0.0609765
0.0522859
0.0436022
0.0349359
0.0262866
0.0176842
0.00896298
0.000451072
-0.00840936
-0.00840936
0
0
0.475504
0.462689
0.453915
0.448512
0.443863
0.437729
0.42966
0.422055
0.414005
0.412967
0.398488
0.390641
0.382832
0.375017
0.367158
0.359627
0.351499
0.343241
0.335122
0.326928
0.318841
0.310562
0.302104
0.29329
0.256663
0.275588
0.26766
0.25955
0.251269
0.242854
0.234341
0.22577
0.217169
0.208547
0.199905
0.191245
0.182566
0.173872
0.165162
0.156428
0.147685
0.139135
0.130418
0.121662
0.112929
0.104229
0.0955551
0.0868964
0.0782413
0.0695807
0.0609226
0.0522478
0.0435725
0.0349081
0.0262607
0.0176365
0.00900939
0.000403169
-0.00846229
-0.00846229
0
0
0.475516
0.46266
0.456178
0.448635
0.444045
0.438009
0.430285
0.422273
0.414225
0.406256
0.398563
0.390881
0.383144
0.375369
0.366999
0.359761
0.351325
0.351277
0.335451
0.327138
0.319174
0.310882
0.302464
0.29406
0.285914
0.277138
0.268522
0.260011
0.251524
0.243007
0.234446
0.225847
0.217218
0.208565
0.199894
0.191208
0.182511
0.173806
0.165101
0.1564
0.147704
0.139016
0.130275
0.121528
0.112813
0.104134
0.0954825
0.0868443
0.0782064
0.0695585
0.0608981
0.0522249
0.04355
0.0348858
0.0262371
0.0176049
0.00899534
0.000372361
-0.00840936
-0.00849292
0
0
0.475561
0.46234
0.453769
0.448607
0.444196
0.438341
0.430811
0.422703
0.414667
0.406798
0.399083
0.391378
0.38358
0.375521
0.36655
0.261772
0.348619
0.342111
0.335053
0.327505
0.319172
0.31094
0.302704
0.294451
0.286106
0.277548
0.26894
0.260346
0.251762
0.243172
0.234564
0.225933
0.217275
0.208587
0.199883
0.191171
0.182451
0.173731
0.165028
0.156361
0.147711
0.138942
0.130131
0.12136
0.112657
0.104011
0.0953977
0.0867964
0.0781891
0.0695591
0.0609006
0.0522203
0.0435363
0.0348701
0.0262166
0.0175706
0.00894549
-0.000990902
-0.00854774
-0.00854774
0
0
0.476125
0.460903
0.453366
0.4487
0.44457
0.438868
0.431448
0.423311
0.415318
0.407529
0.399834
0.392123
0.384332
0.37642
0.368445
0.361232
0.352508
0.344153
0.336059
0.327981
0.319661
0.311345
0.303039
0.294796
0.286179
0.277687
0.269148
0.260556
0.251944
0.24332
0.234684
0.226029
0.217345
0.208609
0.199867
0.191124
0.182376
0.173625
0.164903
0.156287
0.147769
0.138863
0.129921
0.12111
0.112435
0.103851
0.0953015
0.0867604
0.0782049
0.0696018
0.0609412
0.0522385
0.0435282
0.0348615
0.0252675
0.0175343
0.00893015
0.000300844
-0.00909283
-0.0085828
0
0
0.475651
0.462526
0.45416
0.449231
0.445143
0.439618
0.432359
0.424036
0.416118
0.408408
0.400746
0.393039
0.385248
0.37739
0.369516
0.36183
0.353549
0.345165
0.336837
0.328527
0.320155
0.311751
0.303304
0.294751
0.286549
0.278019
0.269398
0.260759
0.252109
0.243461
0.234805
0.22614
0.217445
0.208622
0.199832
0.191064
0.182278
0.173464
0.164636
0.156021
0.147797
0.138532
0.129449
0.120667
0.112097
0.103646
0.0951984
0.0867488
0.0782855
0.0697214
0.0610454
0.0522918
0.0435221
0.0349192
0.0262145
0.0175249
0.00889829
0.000267586
-0.00857951
-0.00857951
0
0
0.475618
0.462996
0.45466
0.449817
0.444178
0.440619
0.433941
0.424524
0.417065
0.40947
0.401841
0.394114
0.386272
0.376411
0.370375
0.362375
0.354158
0.345821
0.337451
0.329061
0.320635
0.312165
0.303661
0.295131
0.286708
0.278173
0.269568
0.260936
0.25225
0.243587
0.234922
0.226268
0.217618
0.208591
0.199776
0.191
0.182176
0.173273
0.164041
0.154988
0.146747
0.136953
0.128247
0.119846
0.111574
0.103429
0.0951097
0.0867717
0.0785091
0.0699929
0.0612639
0.0524173
0.0435206
0.0349811
0.0261862
0.0174679
0.0088343
0.000206679
-0.00862812
-0.00862812
0
0
0.475662
0.463252
0.455121
0.450503
0.446811
0.441691
0.434798
0.426566
0.41872
0.411005
0.403265
0.395415
0.387454
0.379411
0.371283
0.363099
0.354811
0.346447
0.338037
0.329597
0.321127
0.312581
0.304019
0.295463
0.286927
0.278348
0.269728
0.261075
0.252394
0.243709
0.235019
0.226365
0.217845
0.208517
0.19976
0.191008
0.182123
0.173034
0.163407
0.152388
0.0361955
0.132579
0.126262
0.118678
0.110789
0.103445
0.0951021
0.0867432
0.0791346
0.0705917
0.0616776
0.0527273
0.0438657
0.0347154
0.0259965
0.0173408
0.00873031
0.000120105
-0.00869049
-0.00869049
0
0
0.475725
0.463494
0.455604
0.451272
0.447869
0.443016
0.436284
0.428514
0.420647
0.412811
0.40493
0.396898
0.388759
0.380545
0.372266
0.363934
0.355544
0.347106
0.338635
0.330145
0.321646