# vtk DataFile Version 2.0
FlowField
ASCII
DATASET STRUCTURED_GRID
DIMENSIONS 62 47 32 
POINTS 93248 double
0 0 0
0.01 0 0
0.02 0 0
0.03 0 0
0.04 0 0
0.05 0 0
0.06 0 0
0.07 0 0
0.08 0 0
0.09 0 0
0.1 0 0
0.11 0 0
0.12 0 0
0.13 0 0
0.14 0 0
0.15 0 0
0.16 0 0
0.17 0 0
0.18 0 0
0.19 0 0
0.2 0 0
0.21 0 0
0.22 0 0
0.23 0 0
0.24 0 0
0.25 0 0
0.26 0 0
0.27 0 0
0.28 0 0
0.29 0 0
0.3 0 0
0.31 0 0
0.32 0 0
0.33 0 0
0.34 0 0
0.35 0 0
0.36 0 0
0.37 0 0
0.38 0 0
0.39 0 0
0.4 0 0
0.41 0 0
0.42 0 0
0.43 0 0
0.44 0 0
0.45 0 0
0.46 0 0
0.47 0 0
0.48 0 0
0.49 0 0
0.5 0 0
0.51 0 0
0.52 0 0
0.53 0 0
0.54 0 0
0.55 0 0
0.56 0 0
0.57 0 0
0.58 0 0
0.59 0 0
0.6 0 0
0.61 0 0
0 0.01 0
0.01 0.01 0
0.02 0.01 0
0.03 0.01 0
0.04 0.01 0
0.05 0.01 0
0.06 0.01 0
0.07 0.01 0
0.08 0.01 0
0.09 0.01 0
0.1 0.01 0
0.11 0.01 0
0.12 0.01 0
0.13 0.01 0
0.14 0.01 0
0.15 0.01 0
0.16 0.01 0
0.17 0.01 0
0.18 0.01 0
0.19 0.01 0
0.2 0.01 0
0.21 0.01 0
0.22 0.01 0
0.23 0.01 0
0.24 0.01 0
0.25 0.01 0
0.26 0.01 0
0.27 0.01 0
0.28 0.01 0
0.29 0.01 0
0.3 0.01 0
0.31 0.01 0
0.32 0.01 0
0.33 0.01 0
0.34 0.01 0
0.35 0.01 0
0.36 0.01 0
0.37 0.01 0
0.38 0.01 0
0.39 0.01 0
0.4 0.01 0
0.41 0.01 0
0.42 0.01 0
0.43 0.01 0
0.44 0.01 0
0.45 0.01 0
0.46 0.01 0
0.47 0.01 0
0.48 0.01 0
0.49 0.01 0
0.5 0.01 0
0.51 0.01 0
0.52 0.01 0
0.53 0.01 0
0.54 0.01 0
0.55 0.01 0
0.56 0.01 0
0.57 0.01 0
0.58 0.01 0
0.59 0.01 0
0.6 0.01 0
0.61 0.01 0
0 0.02 0
0.01 0.02 0
0.02 0.02 0
0.03 0.02 0
0.04 0.02 0
0.05 0.02 0
0.06 0.02 0
0.07 0.02 0
0.08 0.02 0
0.09 0.02 0
0.1 0.02 0
0.11 0.02 0
0.12 0.02 0
0.13 0.02 0
0.14 0.02 0
0.15 0.02 0
0.16 0.02 0
0.17 0.02 0
0.18 0.02 0
0.19 0.02 0
0.2 0.02 0
0.21 0.02 0
0.22 0.02 0
0.23 0.02 0
0.24 0.02 0
0.25 0.02 0
0.26 0.02 0
0.27 0.02 0
0.28 0.02 0
0.29 0.02 0
0.3 0.02 0
0.31 0.02 0
0.32 0.02 0
0.33 0.02 0
0.34 0.02 0
0.35 0.02 0
0.36 0.02 0
0.37 0.02 0
0.38 0.02 0
0.39 0.02 0
0.4 0.02 0
0.41 0.02 0
0.42 0.02 0
0.43 0.02 0
0.44 0.02 0
0.45 0.02 0
0.46 0.02 0
0.47 0.02 0
0.48 0.02 0
0.49 0.02 0
0.5 0.02 0
0.51 0.02 0
0.52 0.02 0
0.53 0.02 0
0.54 0.02 0
0.55 0.02 0
0.56 0.02 0
0.57 0.02 0
0.58 0.02 0
0.59 0.02 0
0.6 0.02 0
0.61 0.02 0
0 0.03 0
0.01 0.03 0
0.02 0.03 0
0.03 0.03 0
0.04 0.03 0
0.05 0.03 0
0.06 0.03 0
0.07 0.03 0
0.08 0.03 0
0.09 0.03 0
0.1 0.03 0
0.11 0.03 0
0.12 0.03 0
0.13 0.03 0
0.14 0.03 0
0.15 0.03 0
0.16 0.03 0
0.17 0.03 0
0.18 0.03 0
0.19 0.03 0
0.2 0.03 0
0.21 0.03 0
0.22 0.03 0
0.23 0.03 0
0.24 0.03 0
0.25 0.03 0
0.26 0.03 0
0.27 0.03 0
0.28 0.03 0
0.29 0.03 0
0.3 0.03 0
0.31 0.03 0
0.32 0.03 0
0.33 0.03 0
0.34 0.03 0
0.35 0.03 0
0.36 0.03 0
0.37 0.03 0
0.38 0.03 0
0.39 0.03 0
0.4 0.03 0
0.41 0.03 0
0.42 0.03 0
0.43 0.03 0
0.44 0.03 0
0.45 0.03 0
0.46 0.03 0
0.47 0.03 0
0.48 0.03 0
0.49 0.03 0
0.5 0.03 0
0.51 0.03 0
0.52 0.03 0
0.53 0.03 0
0.54 0.03 0
0.55 0.03 0
0.56 0.03 0
0.57 0.03 0
0.58 0.03 0
0.59 0.03 0
0.6 0.03 0
0.61 0.03 0
0 0.04 0
0.01 0.04 0
0.02 0.04 0
0.03 0.04 0
0.04 0.04 0
0.05 0.04 0
0.06 0.04 0
0.07 0.04 0
0.08 0.04 0
0.09 0.04 0
0.1 0.04 0
0.11 0.04 0
0.12 0.04 0
0.13 0.04 0
0.14 0.04 0
0.15 0.04 0
0.16 0.04 0
0.17 0.04 0
0.18 0.04 0
0.19 0.04 0
0.2 0.04 0
0.21 0.04 0
0.22 0.04 0
0.23 0.04 0
0.24 0.04 0
0.25 0.04 0
0.26 0.04 0
0.27 0.04 0
0.28 0.04 0
0.29 0.04 0
0.3 0.04 0
0.31 0.04 0
0.32 0.04 0
0.33 0.04 0
0.34 0.04 0
0.35 0.04 0
0.36 0.04 0
0.37 0.04 0
0.38 0.04 0
0.39 0.04 0
0.4 0.04 0
0.41 0.04 0
0.42 0.04 0
0.43 0.04 0
0.44 0.04 0
0.45 0.04 0
0.46 0.04 0
0.47 0.04 0
0.48 0.04 0
0.49 0.04 0
0.5 0.04 0
0.51 0.04 0
0.52 0.04 0
0.53 0.04 0
0.54 0.04 0
0.55 0.04 0
0.56 0.04 0
0.57 0.04 0
0.58 0.04 0
0.59 0.04 0
0.6 0.04 0
0.61 0.04 0
0 0.05 0
0.01 0.05 0
0.02 0.05 0
0.03 0.05 0
0.04 0.05 0
0.05 0.05 0
0.06 0.05 0
0.07 0.05 0
0.08 0.05 0
0.09 0.05 0
0.1 0.05 0
0.11 0.05 0
0.12 0.05 0
0.13 0.05 0
0.14 0.05 0
0.15 0.05 0
0.16 0.05 0
0.17 0.05 0
0.18 0.05 0
0.19 0.05 0
0.2 0.05 0
0.21 0.05 0
0.22 0.05 0
0.23 0.05 0
0.24 0.05 0
0.25 0.05 0
0.26 0.05 0
0.27 0.05 0
0.28 0.05 0
0.29 0.05 0
0.3 0.05 0
0.31 0.05 0
0.32 0.05 0
0.33 0.05 0
0.34 0.05 0
0.35 0.05 0
0.36 0.05 0
0.37 0.05 0
0.38 0.05 0
0.39 0.05 0
0.4 0.05 0
0.41 0.05 0
0.42 0.05 0
0.43 0.05 0
0.44 0.05 0
0.45 0.05 0
0.46 0.05 0
0.47 0.05 0
0.48 0.05 0
0.49 0.05 0
0.5 0.05 0
0.51 0.05 0
0.52 0.05 0
0.53 0.05 0
0.54 0.05 0
0.55 0.05 0
0.56 0.05 0
0.57 0.05 0
0.58 0.05 0
0.59 0.05 0
0.6 0.05 0
0.61 0.05 0
0 0.06 0
0.01 0.06 0
0.02 0.06 0
0.03 0.06 0
0.04 0.06 0
0.05 0.06 0
0.06 0.06 0
0.07 0.06 0
0.08 0.06 0
0.09 0.06 0
0.1 0.06 0
0.11 0.06 0
0.12 0.06 0
0.13 0.06 0
0.14 0.06 0
0.15 0.06 0
0.16 0.06 0
0.17 0.06 0
0.18 0.06 0
0.19 0.06 0
0.2 0.06 0
0.21 0.06 0
0.22 0.06 0
0.23 0.06 0
0.24 0.06 0
0.25 0.06 0
0.26 0.06 0
0.27 0.06 0
0.28 0.06 0
0.29 0.06 0
0.3 0.06 0
0.31 0.06 0
0.32 0.06 0
0.33 0.06 0
0.34 0.06 0
0.35 0.06 0
0.36 0.06 0
0.37 0.06 0
0.38 0.06 0
0.39 0.06 0
0.4 0.06 0
0.41 0.06 0
0.42 0.06 0
0.43 0.06 0
0.44 0.06 0
0.45 0.06 0
0.46 0.06 0
0.47 0.06 0
0.48 0.06 0
0.49 0.06 0
0.5 0.06 0
0.51 0.06 0
0.52 0.06 0
0.53 0.06 0
0.54 0.06 0
0.55 0.06 0
0.56 0.06 0
0.57 0.06 0
0.58 0.06 0
0.59 0.06 0
0.6 0.06 0
0.61 0.06 0
0 0.07 0
0.01 0.07 0
0.02 0.07 0
0.03 0.07 0
0.04 0.07 0
0.05 0.07 0
0.06 0.07 0
0.07 0.07 0
0.08 0.07 0
0.09 0.07 0
0.1 0.07 0
0.11 0.07 0
0.12 0.07 0
0.13 0.07 0
0.14 0.07 0
0.15 0.07 0
0.16 0.07 0
0.17 0.07 0
0.18 0.07 0
0.19 0.07 0
0.2 0.07 0
0.21 0.07 0
0.22 0.07 0
0.23 0.07 0
0.24 0.07 0
0.25 0.07 0
0.26 0.07 0
0.27 0.07 0
0.28 0.07 0
0.29 0.07 0
0.3 0.07 0
0.31 0.07 0
0.32 0.07 0
0.33 0.07 0
0.34 0.07 0
0.35 0.07 0
0.36 0.07 0
0.37 0.07 0
0.38 0.07 0
0.39 0.07 0
0.4 0.07 0
0.41 0.07 0
0.42 0.07 0
0.43 0.07 0
0.44 0.07 0
0.45 0.07 0
0.46 0.07 0
0.47 0.07 0
0.48 0.07 0
0.49 0.07 0
0.5 0.07 0
0.51 0.07 0
0.52 0.07 0
0.53 0.07 0
0.54 0.07 0
0.55 0.07 0
0.56 0.07 0
0.57 0.07 0
0.58 0.07 0
0.59 0.07 0
0.6 0.07 0
0.61 0.07 0
0 0.08 0
0.01 0.08 0
0.02 0.08 0
0.03 0.08 0
0.04 0.08 0
0.05 0.08 0
0.06 0.08 0
0.07 0.08 0
0.08 0.08 0
0.09 0.08 0
0.1 0.08 0
0.11 0.08 0
0.12 0.08 0
0.13 0.08 0
0.14 0.08 0
0.15 0.08 0
0.16 0.08 0
0.17 0.08 0
0.18 0.08 0
0.19 0.08 0
0.2 0.08 0
0.21 0.08 0
0.22 0.08 0
0.23 0.08 0
0.24 0.08 0
0.25 0.08 0
0.26 0.08 0
0.27 0.08 0
0.28 0.08 0
0.29 0.08 0
0.3 0.08 0
0.31 0.08 0
0.32 0.08 0
0.33 0.08 0
0.34 0.08 0
0.35 0.08 0
0.36 0.08 0
0.37 0.08 0
0.38 0.08 0
0.39 0.08 0
0.4 0.08 0
0.41 0.08 0
0.42 0.08 0
0.43 0.08 0
0.44 0.08 0
0.45 0.08 0
0.46 0.08 0
0.47 0.08 0
0.48 0.08 0
0.49 0.08 0
0.5 0.08 0
0.51 0.08 0
0.52 0.08 0
0.53 0.08 0
0.54 0.08 0
0.55 0.08 0
0.56 0.08 0
0.57 0.08 0
0.58 0.08 0
0.59 0.08 0
0.6 0.08 0
0.61 0.08 0
0 0.09 0
0.01 0.09 0
0.02 0.09 0
0.03 0.09 0
0.04 0.09 0
0.05 0.09 0
0.06 0.09 0
0.07 0.09 0
0.08 0.09 0
0.09 0.09 0
0.1 0.09 0
0.11 0.09 0
0.12 0.09 0
0.13 0.09 0
0.14 0.09 0
0.15 0.09 0
0.16 0.09 0
0.17 0.09 0
0.18 0.09 0
0.19 0.09 0
0.2 0.09 0
0.21 0.09 0
0.22 0.09 0
0.23 0.09 0
0.24 0.09 0
0.25 0.09 0
0.26 0.09 0
0.27 0.09 0
0.28 0.09 0
0.29 0.09 0
0.3 0.09 0
0.31 0.09 0
0.32 0.09 0
0.33 0.09 0
0.34 0.09 0
0.35 0.09 0
0.36 0.09 0
0.37 0.09 0
0.38 0.09 0
0.39 0.09 0
0.4 0.09 0
0.41 0.09 0
0.42 0.09 0
0.43 0.09 0
0.44 0.09 0
0.45 0.09 0
0.46 0.09 0
0.47 0.09 0
0.48 0.09 0
0.49 0.09 0
0.5 0.09 0
0.51 0.09 0
0.52 0.09 0
0.53 0.09 0
0.54 0.09 0
0.55 0.09 0
0.56 0.09 0
0.57 0.09 0
0.58 0.09 0
0.59 0.09 0
0.6 0.09 0
0.61 0.09 0
0 0.1 0
0.01 0.1 0
0.02 0.1 0
0.03 0.1 0
0.04 0.1 0
0.05 0.1 0
0.06 0.1 0
0.07 0.1 0
0.08 0.1 0
0.09 0.1 0
0.1 0.1 0
0.11 0.1 0
0.12 0.1 0
0.13 0.1 0
0.14 0.1 0
0.15 0.1 0
0.16 0.1 0
0.17 0.1 0
0.18 0.1 0
0.19 0.1 0
0.2 0.1 0
0.21 0.1 0
0.22 0.1 0
0.23 0.1 0
0.24 0.1 0
0.25 0.1 0
0.26 0.1 0
0.27 0.1 0
0.28 0.1 0
0.29 0.1 0
0.3 0.1 0
0.31 0.1 0
0.32 0.1 0
0.33 0.1 0
0.34 0.1 0
0.35 0.1 0
0.36 0.1 0
0.37 0.1 0
0.38 0.1 0
0.39 0.1 0
0.4 0.1 0
0.41 0.1 0
0.42 0.1 0
0.43 0.1 0
0.44 0.1 0
0.45 0.1 0
0.46 0.1 0
0.47 0.1 0
0.48 0.1 0
0.49 0.1 0
0.5 0.1 0
0.51 0.1 0
0.52 0.1 0
0.53 0.1 0
0.54 0.1 0
0.55 0.1 0
0.56 0.1 0
0.57 0.1 0
0.58 0.1 0
0.59 0.1 0
0.6 0.1 0
0.61 0.1 0
0 0.11 0
0.01 0.11 0
0.02 0.11 0
0.03 0.11 0
0.04 0.11 0
0.05 0.11 0
0.06 0.11 0
0.07 0.11 0
0.08 0.11 0
0.09 0.11 0
0.1 0.11 0
0.11 0.11 0
0.12 0.11 0
0.13 0.11 0
0.14 0.11 0
0.15 0.11 0
0.16 0.11 0
0.17 0.11 0
0.18 0.11 0
0.19 0.11 0
0.2 0.11 0
0.21 0.11 0
0.22 0.11 0
0.23 0.11 0
0.24 0.11 0
0.25 0.11 0
0.26 0.11 0
0.27 0.11 0
0.28 0.11 0
0.29 0.11 0
0.3 0.11 0
0.31 0.11 0
0.32 0.11 0
0.33 0.11 0
0.34 0.11 0
0.35 0.11 0
0.36 0.11 0
0.37 0.11 0
0.38 0.11 0
0.39 0.11 0
0.4 0.11 0
0.41 0.11 0
0.42 0.11 0
0.43 0.11 0
0.44 0.11 0
0.45 0.11 0
0.46 0.11 0
0.47 0.11 0
0.48 0.11 0
0.49 0.11 0
0.5 0.11 0
0.51 0.11 0
0.52 0.11 0
0.53 0.11 0
0.54 0.11 0
0.55 0.11 0
0.56 0.11 0
0.57 0.11 0
0.58 0.11 0
0.59 0.11 0
0.6 0.11 0
0.61 0.11 0
0 0.12 0
0.01 0.12 0
0.02 0.12 0
0.03 0.12 0
0.04 0.12 0
0.05 0.12 0
0.06 0.12 0
0.07 0.12 0
0.08 0.12 0
0.09 0.12 0
0.1 0.12 0
0.11 0.12 0
0.12 0.12 0
0.13 0.12 0
0.14 0.12 0
0.15 0.12 0
0.16 0.12 0
0.17 0.12 0
0.18 0.12 0
0.19 0.12 0
0.2 0.12 0
0.21 0.12 0
0.22 0.12 0
0.23 0.12 0
0.24 0.12 0
0.25 0.12 0
0.26 0.12 0
0.27 0.12 0
0.28 0.12 0
0.29 0.12 0
0.3 0.12 0
0.31 0.12 0
0.32 0.12 0
0.33 0.12 0
0.34 0.12 0
0.35 0.12 0
0.36 0.12 0
0.37 0.12 0
0.38 0.12 0
0.39 0.12 0
0.4 0.12 0
0.41 0.12 0
0.42 0.12 0
0.43 0.12 0
0.44 0.12 0
0.45 0.12 0
0.46 0.12 0
0.47 0.12 0
0.48 0.12 0
0.49 0.12 0
0.5 0.12 0
0.51 0.12 0
0.52 0.12 0
0.53 0.12 0
0.54 0.12 0
0.55 0.12 0
0.56 0.12 0
0.57 0.12 0
0.58 0.12 0
0.59 0.12 0
0.6 0.12 0
0.61 0.12 0
0 0.13 0
0.01 0.13 0
0.02 0.13 0
0.03 0.13 0
0.04 0.13 0
0.05 0.13 0
0.06 0.13 0
0.07 0.13 0
0.08 0.13 0
0.09 0.13 0
0.1 0.13 0
0.11 0.13 0
0.12 0.13 0
0.13 0.13 0
0.14 0.13 0
0.15 0.13 0
0.16 0.13 0
0.17 0.13 0
0.18 0.13 0
0.19 0.13 0
0.2 0.13 0
0.21 0.13 0
0.22 0.13 0
0.23 0.13 0
0.24 0.13 0
0.25 0.13 0
0.26 0.13 0
0.27 0.13 0
0.28 0.13 0
0.29 0.13 0
0.3 0.13 0
0.31 0.13 0
0.32 0.13 0
0.33 0.13 0
0.34 0.13 0
0.35 0.13 0
0.36 0.13 0
0.37 0.13 0
0.38 0.13 0
0.39 0.13 0
0.4 0.13 0
0.41 0.13 0
0.42 0.13 0
0.43 0.13 0
0.44 0.13 0
0.45 0.13 0
0.46 0.13 0
0.47 0.13 0
0.48 0.13 0
[...]
POINT_DATA 93248

SCALARS w double
LOOKUP_TABLE default
0
0
0
0
0
0
0
0
0
0
0
0
0
-0.0786666
0
0
0
0
0
0
0
0
0
0
0
0
-0.18184
0
0
0
0
0
-0.180624
0
0
0
0
0
0
0
0
0
0
0
0
0
-0.160577
0
0
0
0
0
0
0
0
0
0
0
0
0
0
0
0
-0.0239641
-0.0466064
-0.0625474
-0.0721719
-0.0774727
-0.0814037
-0.0844409
-0.0867561
-0.0883436
-0.0890442
-0.0886318
-0.0871853
-0.0875545
-0.088513
-0.0893957
-0.090074
-0.0907243
-0.0908783
-0.0896161
-0.0836265
-0.0840252
-0.0867098
-0.0857537
-0.0849244
-0.0843728
-0.0839288
-0.0835098
-0.0830872
-0.0826319
-0.0820644
-0.0812193
-0.0800917
-0.0803042
-0.0803642
-0.0794714
-0.0781689
-0.0793871
-0.0812119
-0.0844696
-0.0773902
-0.0794034
-0.0820952
-0.0840252
-0.0870634
-0.185822
-0.0819131
-0.0808614
-0.0808522
-0.0818964
-0.0830314
-0.0845833
-0.0845745
-0.0870176
-0.186202
-0.0852611
-0.079614
-0.0789329
-0.0790259
-0.0775124
-0.0742081
0
0
-0.0277103
-0.0644334
-0.0870469
-0.104316
-0.117285
-0.13154
-0.143436
-0.152961
-0.160396
-0.165827
-0.168783
-0.168746
-0.170777
-0.172239
-0.173184
-0.173848
-0.174797
-0.175422
-0.175756
-0.16439
-0.166289
-0.215806
-0.167473
-0.164774
-0.163388
-0.162377
-0.161497
-0.160669
-0.15986
-0.159022
-0.157988
-0.156244
-0.156874
-0.156763
-0.155512
-0.155818
-0.1549
-0.15518
-0.15845
-0.156386
-0.158252
-0.15971
-0.161478
-0.165229
-0.170331
-0.16641
-0.160883
-0.159254
-0.159216
-0.160712
-0.186795
-0.163244
-0.165318
-0.169441
-0.164662
-0.161382
-0.155749
-0.153043
-0.147744
-0.139531
0
0
-0.0274915
-0.0643594
-0.0893855
-0.109315
-0.0774727
-0.140808
-0.157324
-0.170863
-0.182419
-0.192381
-0.199725
-0.207302
-0.208766
-0.20931
-0.209316
-0.209511
-0.210437
-0.210336
-0.210955
-0.209796
-0.205871
-0.205321
-0.201826
-0.199247
-0.197431
-0.196033
-0.194855
-0.19381
-0.192885
-0.192165
-0.191989
-0.19318
-0.202635
-0.190995
-0.187456
-0.187222
-0.186918
-0.187118
-0.188649
-0.188855
-0.189999
-0.191548
-0.19184
-0.194343
-0.196816
-0.194578
-0.192411
-0.191053
-0.191382
-0.192087
-0.193841
-0.193855
-0.19484
-0.195928
-0.195276
-0.194311
-0.192455
-0.185961
-0.177848
-0.167146
0
0
-0.0269703
-0.0630854
-0.0640667
-0.110375
-0.128212
-0.146009
-0.161504
-0.175192
-0.187422
-0.198305
-0.207395
-0.215018
-0.219355
-0.221312
-0.221266
-0.221149
-0.21958
-0.21991
-0.220479
-0.218834
-0.21674
-0.214791
-0.212529
-0.210447
-0.208664
-0.207148
-0.20583
-0.204671
-0.203669
-0.202882
-0.202423
-0.202284
-0.201522
-0.200312
-0.198432
-0.197666
-0.197326
-0.197527
-0.1979
-0.19843
-0.199162
-0.200011
-0.200375
-0.201397
-0.202389
-0.20221
-0.200986
-0.200235
-0.200367
-0.200734
-0.201339
-0.201807
-0.202362
-0.202885
-0.203223
-0.202927
-0.201081
-0.195896
-0.187473
-0.175915
0
0
-0.0268283
-0.0631906
-0.0899372
-0.112865
-0.131818
-0.148696
-0.163533
-0.176796
-0.188761
-0.199398
-0.208501
-0.215827
-0.220841
-0.223176
-0.199149
-0.22334
-0.222786
-0.221939
-0.221225
-0.219589
-0.217735
-0.215806
-0.213887
-0.212066
-0.210394
-0.208898
-0.20755
-0.20634
-0.205276
-0.204365
-0.203564
-0.202635
-0.201119
-0.200531
-0.199877
-0.19934
-0.198965
-0.198778
-0.198877
-0.199141
-0.199511
-0.199896
-0.200139
-0.200468
-0.200917
-0.201895
-0.200443
-0.200099
-0.200264
-0.200575
-0.200964
-0.20142
-0.201923
-0.202437
-0.202872
-0.202662
-0.200834
-0.196102
-0.187644
-0.176133
0
0
-0.0267752
-0.0632442
-0.090999
-0.113894
-0.133289
-0.150315
-0.164757
-0.17774
-0.189491
-0.199826
-0.208539
-0.215446
-0.22041
-0.223056
-0.223104
-0.223098
-0.222492
-0.216221
-0.219908
-0.218263
-0.216314
-0.214364
-0.212496
-0.210736
-0.209098
-0.20765
-0.206306
-0.205074
-0.203975
-0.203011
-0.202111
-0.201006
-0.19882
-0.199078
-0.198839
-0.198351
-0.197874
-0.197527
-0.197351
-0.197329
-0.197406
-0.197506
-0.197497
-0.197364
-0.196777
-0.195186
-0.196281
-0.197074
-0.197594
-0.197998
-0.198393
-0.19886
-0.199423
-0.199989
-0.200383
-0.200065
-0.197895
-0.192101
-0.181511
-0.171807
0
0
-0.0267207
-0.0631592
-0.0911059
-0.114116
-0.133802
-0.151475
-0.165112
-0.178343
-0.190066
-0.20012
-0.208375
-0.214712
-0.219599
-0.222275
-0.222706
-0.221345
-0.221053
-0.220206
-0.218766
-0.216795
-0.214656
-0.212622
-0.210724
-0.208932
-0.207238
-0.205886
-0.204539
-0.203285
-0.202186
-0.201272
-0.200571
-0.200356
-0.2016
-0.199716
-0.198175
-0.197086
-0.196312
-0.195773
-0.195417
-0.195208
-0.1951
-0.195044
-0.194836
-0.194612
-0.194175
-0.193609
-0.19397
-0.194506
-0.194969
-0.195357
-0.195744
-0.196237
-0.196911
-0.197546
-0.197935
-0.197526
-0.194782
-0.185542
-0.0775124
-0.165386
0
0
-0.0266551
-0.0629948
-0.0909103
-0.11391
-0.133581
-0.1509
-0.165521
-0.178674
-0.19025
-0.20004
-0.207712
-0.212689
-0.218272
-0.221071
-0.221172
-0.217783
-0.195805
-0.219131
-0.217645
-0.215518
-0.213147
-0.211091
-0.209178
-0.207319
-0.205456
-0.204336
-0.202929
-0.201642
-0.200572
-0.199754
-0.199131
-0.198756
-0.198664
-0.197659
-0.196494
-0.195485
-0.194675
-0.194067
-0.193633
-0.193332
-0.193125
-0.192967
-0.192775
-0.19259
-0.192391
-0.192264
-0.192386
-0.192649
-0.192943
-0.193228
-0.193542
-0.194013
-0.194907
-0.195657
-0.196138
-0.196042
-0.194527
-0.189803
-0.176738
-0.168099
0
0
-0.026586
-0.0628033
-0.0906222
-0.113542
-0.133132
-0.150292
-0.165305
-0.178577
-0.190127
-0.199686
-0.206382
-0.168746
-0.215467
-0.219581
-0.220368
-0.218815
-0.218196
-0.217776
-0.216298
-0.214221
-0.21173
-0.20985
-0.207949
-0.206024
-0.204083
-0.20272
-0.20137
-0.200143
-0.199165
-0.198521
-0.197913
-0.197231
-0.196478
-0.195568
-0.194647
-0.193824
-0.19308
-0.192494
-0.192064
-0.191749
-0.191515
-0.191335
-0.191184
-0.191069
-0.190998
-0.190998
-0.191084
-0.191237
-0.191417
-0.191594
-0.191775
-0.190811
-0.193447
-0.194318
-0.194884
-0.194988
-0.193924
-0.190218
-0.181498
-0.168893
0
0
-0.0265205
-0.0626169
-0.0903282
-0.11315
-0.132663
-0.14977
-0.164896
-0.178271
-0.18989
-0.199528
-0.206722
-0.210744
-0.21608
-0.219236
-0.220306
-0.219637
-0.218493
-0.217019
-0.215167
-0.213191
-0.211555
-0.209251
-0.207036
-0.204895
-0.199765
-0.201283
-0.19994
-0.198727
-0.197831
-0.197473
-0.196913
-0.195881
-0.194766
-0.193778
-0.192951
-0.192289
-0.191592
-0.191051
-0.190676
-0.190397
-0.19018
-0.190015
-0.189907
-0.189849
-0.189841
-0.189887
-0.189982
-0.190114
-0.190258
-0.19038
-0.190506
-0.190811
-0.192563
-0.19336
-0.193949
-0.194156
-0.193279
-0.189959
-0.182174
-0.169141
0
0
-0.0264633
-0.0624533
-0.0900686
-0.112794
-0.13226
-0.149343
-0.164506
-0.17795
-0.189669
-0.199503
-0.20724
-0.212871
-0.217056
-0.219559
-0.220716
-0.219956
-0.21833
-0.216321
-0.214142
-0.211997
-0.210034
-0.207952
-0.205871
-0.203818
-0.201767
-0.200105
-0.198568
-0.197239
-0.196209
-0.195654
-0.195914
-0.194106
-0.192826
-0.19195
-0.19129
-0.190763
-0.190305
-0.189736
-0.189438
-0.189213
-0.18902
-0.188862
-0.188813
-0.188814
-0.188854
-0.188935
-0.189057
-0.189219
-0.1894
-0.189549
-0.189772
-0.190297
-0.191515
-0.19243
-0.19313
-0.193437
-0.192675
-0.189514
-0.181953
-0.169014
0
0
-0.0264165
-0.0623216
-0.0898731
-0.112604
-0.131992
-0.149031
-0.164194
-0.177679
-0.189482
-0.199468
-0.20746
-0.213402
-0.217366
-0.219596
-0.22099
-0.219563
-0.21758
-0.21535
-0.21299
-0.210755
-0.208698
-0.206706
-0.204736
-0.202769
-0.200807
-0.198904
-0.197077
-0.195432
-0.193845
-0.192397
-0.189733
-0.189976
-0.19008
-0.189922
-0.189634
-0.189304
-0.188971
-0.188601
-0.188345
-0.188144
-0.187934
-0.187661
-0.187777
-0.187885
-0.187989
-0.188112
-0.188277
-0.188505
-0.188781
-0.188968
-0.189269
-0.189838
-0.190721
-0.191612
-0.192391
-0.1928
-0.192142
-0.189076
-0.181614
-0.168743
0
0
-0.026379
-0.0622171
-0.0897167
-0.112422
-0.131748
-0.148758
-0.163925
-0.177443
-0.189304
-0.199379
-0.207451
-0.213401
-0.217176
-0.218754
-0.217659
-0.217286
-0.216037
-0.214082
-0.211666
-0.209515
-0.207574
-0.205695
-0.203794
-0.201828
-0.199765
-0.197564
-0.195211
-0.192748
-0.189422
-0.18861
-0.187988
-0.18808
-0.188252
-0.188293
-0.188192
-0.187994
-0.187768
-0.187483
-0.187277
-0.187097
-0.18679
-0.180982
-0.186676
-0.187012
-0.187208
-0.187383
-0.187591
-0.187889
-0.18831
-0.18845
-0.188775
-0.189363
-0.190156
-0.190994
-0.191799
-0.192282
-0.191733
-0.188716
-0.181305
-0.168438
0
0
-0.0263497
-0.062138
-0.0896134
-0.11391
-0.131605
-0.148543
-0.1637
-0.177234
-0.189125
-0.199216
-0.207328
-0.21326
-0.216957
-0.218508
-0.218185
-0.217207
-0.215594
-0.213375
-0.210462
-0.208539
-0.206839
-0.205066
-0.203163
-0.201102
-0.198811
-0.19611
-0.192638
-0.187492
-0.175226
-0.180053
-0.183562
-0.185454
-0.186415
-0.186837
-0.186923
-0.186818
-0.187849
-0.1863
-0.186068
-0.185943
-0.185812
-0.185593
-0.185935
-0.186243
-0.186495
-0.186713
-0.18693
-0.18722
-0.18778
-0.187775
-0.18819
-0.188909
-0.189839
-0.190593
-0.191391
-0.191923
-0.192101
-0.188461
-0.181055
-0.168136
0
0
-0.0263259
-0.0620714
-0.089474
-0.112089
-0.131347
-0.148323
-0.163496
-0.177048
-0.188962
-0.199084
-0.207201
-0.213121
-0.216807
-0.218435
-0.218415
-0.217337
-0.21557
-0.213225
-0.209688
-0.208457
-0.206882
-0.204994
-0.20292
-0.200664
-0.198087
-0.194775
-0.189398
-0.17594
0.0734517
-0.162677
-0.177242
-0.182594
-0.184789
-0.185656
-0.185851
-0.185658
-0.185256
-0.18466
-0.18416
-0.184167
-0.184402
-0.184707
-0.1851
-0.185484
-0.185822
-0.186082
-0.186252
-0.18625
-0.185929
-0.186635
-0.187491
-0.188543
-0.193447
-0.190439
-0.191201
-0.191657
-0.191193
-0.188238
-0.180859
-0.167836
0
0
-0.0263095
-0.0620416
-0.0893751
-0.111875
-0.131137
-0.14813
-0.163325
-0.176894
-0.188822
-0.198965
-0.207106
-0.213033
-0.216713
-0.218358
-0.218393
-0.217332
-0.215681
-0.214064
-0.213872
-0.210814
-0.207928
-0.205354
-0.202929
-0.200474
-0.197764
-0.194404
-0.189542
-0.181282
-0.167193
-0.174194
-0.179882
-0.183074
-0.184629
-0.185194
-0.185118
-0.184544
-0.18349
-0.181857
-0.179656
-0.180459
-0.181837
-0.183024
-0.183937
-0.184631
-0.185164
-0.185518
-0.185742
-0.185736
-0.185776
-0.186057
-0.186963
-0.188082
-0.189322
-0.190277
-0.191454
-0.191567
-0.190991
-0.188078
-0.180713
-0.167495
0
0
-0.0262854
-0.0620417
-0.0892558
-0.111678
-0.130929
-0.147982
-0.163222
-0.176795
-0.188723
-0.198887
-0.20709
-0.213023
-0.216656
-0.218236
-0.218219
-0.217136
-0.215486
-0.213732
-0.212219
-0.209953
-0.207504
-0.205097
-0.202738
-0.200344
-0.197783
-0.194874
-0.191385
-0.186932
-0.18291
-0.183013
-0.184123
-0.185008
-0.185391
-0.185272
-0.184672
-0.183442
-0.181109
-0.176173
-0.164976
-0.172023
-0.177459
-0.180673
-0.182566
-0.183746
-0.18455
-0.185035
-0.185381
-0.185592
-0.185623
-0.18554
-0.186643
-0.187795
-0.18894
-0.190404
-0.203223
-0.191723
-0.190954
-0.187975
-0.18058
-0.167076
0
0
-0.0261852
-0.0615574
-0.0888325
-0.111312
-0.130675
-0.14977
-0.163291
-0.176775
-0.188652
-0.198841
-0.207195
-0.213088
-0.216581
-0.217994
-0.217853
-0.216714
-0.215005
-0.213033
-0.211037
-0.20894
-0.206796
-0.204644
-0.202481
-0.200276
-0.197985
-0.195605
-0.193233
-0.190058
-0.187677
-0.187042
-0.1869
-0.186699
-0.18627
-0.185548
-0.18445
-0.182518
-0.178411
-0.165823
0.0756124
-0.156297
-0.172379
-0.178609
-0.181508
-0.183057
-0.183947
-0.184641
-0.185158
-0.185565
-0.185782
-0.18539
-0.186861
-0.187842
-0.188759
-0.189909
-0.191301
-0.191068
-0.19085
-0.187785
-0.180382
-0.165735
0
0
-0.0261686
-0.061579
-0.0887596
-0.111117
-0.130505
-0.147974
-0.163199
-0.176631
-0.188466
-0.198717
-0.207423
-0.213095
-0.216308
-0.21746
-0.217177
-0.216048
-0.214355
-0.21227
-0.210251
-0.208286
-0.206326
-0.20435
-0.20235
-0.200312
-0.198227
-0.196124
-0.194056
-0.191952
-0.189501
-0.189258
-0.188739
-0.187958
-0.187005
-0.185877
-0.184533
-0.18246
-0.178861
-0.171858
-0.158909
-0.16761
-0.175076
-0.179201
-0.181541
-0.18293
-0.183819
-0.184503
-0.185105
-0.185793
-0.186894
-0.188892
-0.188234
-0.188187
-0.188627
-0.189376
-0.190215
-0.190636
-0.190296
-0.187366
-0.179891
-0.166347
0
0
-0.026174
-0.0616208
-0.0887477
-0.110928
-0.13039
-0.148189
-0.162989
-0.176228
-0.187989
-0.198234
-0.2074
-0.212459
-0.215491
-0.216426
-0.216113
-0.215242
-0.213737
-0.211564
-0.209784
-0.208034
-0.20621
-0.20433
-0.202417
-0.200463
-0.19845
-0.196347
-0.194081
-0.193422
-0.194054
-0.19215
-0.190401
-0.188893
-0.187519
-0.186193
-0.184814
-0.183112
-0.180871
-0.178087
-0.175645
-0.176885
-0.179135
-0.180982
-0.182328
-0.18324
-0.183914
-0.184506
-0.185076
-0.185736
-0.186615
-0.187629
-0.187839
-0.188019
-0.188398
-0.189026
-0.189822
-0.190375
-0.189965
-0.187111
-0.179736
-0.166586
0
0
-0.0261824
-0.0616602
-0.0888541
-0.111453
-0.130342
-0.146201
-0.161526
-0.17522
-0.18712
-0.196874
-0.203321
-0.209887
-0.2141
-0.21503
-0.214992
-0.214775
-0.213648
-0.211367
-0.210042
-0.208374
-0.206504
-0.204583
-0.202671
-0.20072
-0.198642
-0.19607
-0.172411
-0.192875
-0.193036
-0.191974
-0.190518
-0.188999
-0.187519
-0.186141
-0.184944
-0.183752
-0.182554
-0.181535
-0.181074
-0.181266
-0.181872
-0.182607
-0.183368
-0.183745
-0.184111
-0.184583
-0.185039
-0.185545
-0.186152
-0.186795
-0.187287
-0.187688
-0.188107
-0.188739
-0.189656
-0.190261
-0.189868
-0.187062
-0.179714
-0.166744
0
0
-0.0261848
-0.0616691
-0.0888453
-0.111259
-0.130258
-0.146721
-0.161704
-0.175126
-0.186828
-0.196537
-0.204206
-0.2104
-0.2147
-0.214146
-0.21561
-0.215722
-0.214894
-0.214312
-0.211822
-0.209336
-0.207052
-0.204964
-0.203033
-0.201074
-0.199012
-0.196742
-0.194055
-0.193436
-0.192723
-0.191613
-0.190218
-0.188623
-0.186872
-0.185053
-0.184281
-0.183698
-0.183284
-0.183009
-0.182955
-0.183057
-0.183308
-0.183764
-0.188814
-0.184306
-0.184281
-0.184711
-0.18502
-0.18537
-0.18584
-0.186433
-0.187002
-0.187471
-0.187822
-0.188414
-0.189593
-0.190233
-0.189903
-0.187164
-0.179735
-0.166785
0
0
-0.0261853
-0.061671
-0.0888331
-0.111193
-0.13029
-0.14707
-0.162096
-0.175316
-0.186716
-0.195898
-0.204506
-0.211069
-0.215898
-0.22017
-0.219449
-0.21786
-0.216027
-0.214157
-0.211836
-0.209454
-0.207205
-0.205173
-0.203395
-0.201444
-0.199412
-0.197417
-0.19559
-0.194207
-0.192961
-0.191573
-0.189965
-0.187961
-0.185113
-0.180322
-0.181686
-0.182256
-0.183004
-0.1834
-0.18362
-0.183793
-0.183994
-0.184273
-0.184618
-0.184438
-0.184261
-0.184873
-0.184997
-0.185212
-0.185623
-0.186314
-0.186972
-0.187405
-0.187556
-0.187988
-0.189592
-0.190174
-0.189952
-0.18739
-0.179742
-0.166701
0
0
-0.0261877
-0.0616803
-0.088847
-0.111221
-0.130411
-0.147411
-0.162837
-0.175688
-0.18636
-0.170415
-0.20378
-0.211091
-0.215847
-0.218707
-0.219012
-0.217933
-0.216221
-0.213986
-0.211632
-0.20932
-0.207144
-0.20523
-0.203772
-0.201691
-0.19959
-0.197693
-0.196031
-0.194546
-0.193215
-0.191669
-0.189865
-0.187221
-0.181631
-0.0803642
-0.175984
-0.166056
-0.182099
-0.183379
-0.183896
-0.184157
-0.184369
-0.18458
-0.184643
-0.18455
-0.184477
-0.184691
-0.184813
-0.184986
-0.185358
-0.186301
-0.187363
-0.187104
-0.187311
-0.187932
-0.189062
-0.189795
-0.189792
-0.187666
-0.179608
-0.16645
0
0
-0.0261933
-0.0616996
-0.088881
-0.111285
-0.130571
-0.147918
-0.177443
-0.176754
-0.187376
-0.19587
-0.204735
-0.211382
-0.215702
-0.217931
-0.218357
-0.217638
-0.217045
-0.213945
-0.211515
-0.209187
-0.206997
-0.205062
-0.203904
-0.201391
-0.1993
-0.197572
-0.196068
-0.194744
-0.193312
-0.191867
-0.190333
-0.187755
-0.183844
-0.17746
-0.179943
-0.181336
-0.182967
-0.183836
-0.18424
-0.184458
-0.184669
-0.184919
-0.184832
-0.184651
-0.184542
-0.184557
-0.184615
-0.1847
-0.184873
-0.185916
-0.187355
-0.186419
-0.186918
-0.187673
-0.188529
-0.189111
-0.188975
-0.187407
-0.178957
-0.16601
0
0
-0.0262022
-0.061728
-0.0889237
-0.111336
-0.130613
-0.147816
-0.163668
-0.176898
-0.188255
-0.197808
-0.205801
-0.211804
-0.215707
-0.217645
-0.217976
-0.217207
-0.215858
-0.213682
-0.211365
-0.209056
-0.20676
-0.20431
-0.200904
-0.199725
-0.198528
-0.197286
-0.195973
-0.19451
-0.193341
-0.192308
-0.199131
-0.189199
-0.186757
-0.184723
-0.184312
-0.184333
-0.184534
-0.184665
-0.184712
-0.184749
-0.184909
-0.185295
-0.184948
-0.184622
-0.184466
-0.184433
-0.184456
-0.18448
-0.184433
-0.184166
-0.182862
-0.185432
-0.186496
-0.187331
-0.188031
-0.188189
-0.186748
-0.182041
-0.177076
-0.165511
0
0
-0.0262166
-0.0617714
-0.0889809
-0.111381
-0.130606
-0.147654
-0.163073
-0.177116
-0.188672
-0.198276
-0.206039
-0.211822
-0.21557
-0.217414
-0.217674
-0.216796
-0.215295
-0.213367
-0.211233
-0.209005
-0.206726
-0.204736
-0.201938
-0.200298
-0.198773
-0.197531
-0.196267
-0.194943
-0.193708
-0.19259
-0.191669
-0.189989
-0.188466
-0.187317
-0.18655
-0.186038
-0.185672
-0.185376
-0.185121
-0.184919
-0.184878
-0.185389
-0.184639
-0.184335
-0.18427
-0.184295
-0.184346
-0.184388
-0.184382
-0.184285
-0.184202
-0.185272
-0.186229
-0.187077
-0.187789
-0.188054
-0.187121
-0.183748
-0.177328
-0.165407
0
0
-0.0262439
-0.0618505
-0.0890809
-0.11145
-0.130605
-0.147527
-0.162809
-0.177354
-0.188323
-0.197793
-0.205593
-0.211455
-0.215273
-0.217163
-0.217418
-0.216453
-0.215082
-0.213344
-0.211338
-0.209152
-0.206862
-0.204718
-0.202664
-0.20085
-0.199101
-0.198053
-0.196787
-0.195434
-0.194116
-0.192871
-0.191678
-0.190445
-0.189319
-0.188377
-0.18759
-0.186928
-0.186358
-0.185854
-0.185388
-0.184896
-0.184178
-0.182778
-0.183389
-0.183816
-0.184047
-0.184188
-0.184294
-0.18439
-0.184494
-0.184637
-0.184922
-0.185488
-0.186196
-0.18698
-0.187756
-0.188286
-0.189514
-0.184823
-0.177802
-0.165498
0
0
-0.0263032
-0.0620208
-0.0892906
-0.111584
-0.130643
-0.147364
-0.161972
-0.173606
-0.185902
-0.196451
-0.204846
-0.211033
-0.215028
-0.217032
-0.217398
-0.216117
-0.215168
-0.213666
-0.21175
-0.209527
-0.207115
-0.205079
-0.203192
-0.201328
-0.199332
-0.198778
-0.197372
-0.195887
-0.194483
-0.193177
-0.191961
-0.19084
-0.189837
-0.188955
-0.188169
-0.187455
-0.186796
-0.186183
-0.185599
-0.18501
-0.184366
-0.183718
-0.183725
-0.183895
-0.184058
-0.18419
-0.184307
-0.184433
-0.184595
-0.184822
-0.185152
-0.185605
-0.186202
-0.186938
-0.187747
-0.188348
-0.187999
-0.185118
-0.178046
-0.165611
0
0
-0.0264418
-0.0624403
-0.0897491
-0.111846
-0.130827
-0.147478
-0.162119
-0.174813
-0.186513
-0.196685
-0.204932
-0.21106
-0.215058
-0.217153
-0.22334
-0.215648
-0.215725
-0.214379
-0.212449
-0.210127
-0.207534
-0.205705
-0.203857
-0.202047
-0.200374
-0.199102
-0.197639
-0.196147
-0.194732
-0.193428
-0.192239
-0.19117
-0.190222
-0.189379
-0.188597
-0.187849
-0.187129
-0.18644
-0.185783
-0.185164
-0.184626
-0.184267
-0.184137
-0.184135
-0.18419
-0.184268
-0.184357
-0.184475
-0.184647
-0.184877
-0.185188
-0.185605
-0.186158
-0.186868
-0.187689
-0.188316
-0.187899
-0.18513
-0.178161
-0.165708
0
0
-0.0267673
-0.063682
-0.0905278
-0.112469
-0.13129
-0.147853
-0.162556
-0.175623
-0.187223
-0.197172
-0.205231
-0.211234
-0.215145
-0.21708
-0.217182
-0.214206
-0.216927
-0.215345
-0.213063
-0.210814
-0.209212
-0.206819
-0.204633
-0.202733
-0.201221
-0.19951
-0.197831
-0.196282
-0.194877
-0.193607
-0.192464
-0.191446
-0.190556
-0.18977
-0.188996
-0.188207
-0.18742
-0.186656
-0.185923
-0.185245
-0.184711
-0.184461
-0.184358
-0.184314
-0.184309
-0.184335
-0.18437
-0.184454
-0.184614
-0.184825
-0.185114
-0.185516
-0.186051
-0.186744
-0.187594
-0.188318
-0.187886
-0.185091
-0.178228
-0.165813
0
0
-0.0273584
-0.0870469
-0.0922231
-0.113274
-0.131785
-0.148217
-0.162887
-0.175977
-0.187533
-0.197387
-0.205353
-0.211297
-0.215184
-0.217107
-0.217387
-0.216237
-0.216254
-0.214963
-0.213015
-0.210923
-0.20893
-0.20683
-0.204804
-0.202967
-0.20162
-0.199574
-0.197824
-0.196314
-0.194969
-0.193759
-0.192669
-0.191709
-0.190894
-0.190208
-0.189426
-0.188559
-0.187682
-0.186833
-0.18601
-0.185206
-0.184593
-0.184504
-0.18448
-0.184402
-0.18432
-0.184263
-0.184195
-0.184216
-0.184368
-0.184576
-0.184881
-0.185321
-0.185883
-0.186573
-0.187489
-0.188402
-0.187984
-0.185217
-0.178204
-0.16594
0
0
-0.0268942
-0.0640667
-0.090952
-0.112914
-0.131681
-0.148239
-0.162908
-0.175886
-0.187463
-0.197295
-0.205244
-0.211207
-0.215151
-0.21717
-0.21799
-0.217537
-0.216523
-0.214927
-0.212976
-0.210904
-0.20884
-0.206834
-0.204863
-0.202804
-0.200228
-0.198893
-0.197616
-0.196332
-0.195076
-0.193935
-0.192895
-0.191982
-0.191262
-0.19075
-0.189883
-0.188872
-0.187889
-0.186975
-0.186104
-0.185045
-0.184227
-0.184557
-0.184599
-0.184357
-0.184045
-0.183759
-0.183483
-0.183406
-0.183576
-0.183865
-0.184329
-0.184958