# vtk DataFile Version 2.0
FlowField
ASCII
DATASET STRUCTURED_GRID
DIMENSIONS 62 47 32 
POINTS 93248 double
0 0 0
0.01 0 0
0.02 0 0
0.03 0 0
0.04 0 0
0.05 0 0
0.06 0 0
0.07 0 0
0.08 0 0
0.09 0 0
0.1 0 0
0.11 0 0
0.12 0 0
0.13 0 0
0.14 0 0
0.15 0 0
0.16 0 0
0.17 0 0
0.18 0 0
0.19 0 0
0.2 0 0
0.21 0 0
0.22 0 0
0.23 0 0
0.24 0 0
0.25 0 0
0.26 0 0
0.27 0 0
0.28 0 0
0.29 0 0
0.3 0 0
0.31 0 0
0.32 0 0
0.33 0 0
0.34 0 0
0.35 0 0
0.36 0 0
0.37 0 0
0.38 0 0
0.39 0 0
0.4 0 0
0.41 0 0
0.42 0 0
0.43 0 0
0.44 0 0
0.45 0 0
0.46 0 0
0.47 0 0
0.48 0 0
0.49 0 0
0.5 0 0
0.51 0 0
0.52 0 0
0.53 0 0
0.54 0 0
0.55 0 0
0.56 0 0
0.57 0 0
0.58 0 0
0.59 0 0
0.6 0 0
0.61 0 0
0 0.01 0
0.01 0.01 0
0.02 0.01 0
0.03 0.01 0
0.04 0.01 0
0.05 0.01 0
0.06 0.01 0
0.07 0.01 0
0.08 0.01 0
0.09 0.01 0
0.1 0.01 0
0.11 0.01 0
0.12 0.01 0
0.13 0.01 0
0.14 0.01 0
0.15 0.01 0
0.16 0.01 0
0.17 0.01 0
0.18 0.01 0
0.19 0.01 0
0.2 0.01 0
0.21 0.01 0
0.22 0.01 0
0.23 0.01 0
0.24 0.01 0
0.25 0.01 0
0.26 0.01 0
0.27 0.01 0
0.28 0.01 0
0.29 0.01 0
0.3 0.01 0
0.31 0.01 0
0.32 0.01 0
0.33 0.01 0
0.34 0.01 0
0.35 0.01 0
0.36 0.01 0
0.37 0.01 0
0.38 0.01 0
0.39 0.01 0
0.4 0.01 0
0.41 0.01 0
0.42 0.01 0
0.43 0.01 0
0.44 0.01 0
0.45 0.01 0
0.46 0.01 0
0.47 0.01 0
0.48 0.01 0
0.49 0.01 0
0.5 0.01 0
0.51 0.01 0
0.52 0.01 0
0.53 0.01 0
0.54 0.01 0
0.55 0.01 0
0.56 0.01 0
0.57 0.01 0
0.58 0.01 0
0.59 0.01 0
0.6 0.01 0
0.61 0.01 0
0 0.02 0
0.01 0.02 0
0.02 0.02 0
0.03 0.02 0
0.04 0.02 0
0.05 0.02 0
0.06 0.02 0
0.07 0.02 0
0.08 0.02 0
0.09 0.02 0
0.1 0.02 0
0.11 0.02 0
0.12 0.02 0
0.13 0.02 0
0.14 0.02 0
0.15 0.02 0
0.16 0.02 0
0.17 0.02 0
0.18 0.02 0
0.19 0.02 0
0.2 0.02 0
0.21 0.02 0
0.22 0.02 0
0.23 0.02 0
0.24 0.02 0
0.25 0.02 0
0.26 0.02 0
0.27 0.02 0
0.28 0.02 0
0.29 0.02 0
0.3 0.02 0
0.31 0.02 0
0.32 0.02 0
0.33 0.02 0
0.34 0.02 0
0.35 0.02 0
0.36 0.02 0
0.37 0.02 0
0.38 0.02 0
0.39 0.02 0
0.4 0.02 0
0.41 0.02 0
0.42 0.02 0
0.43 0.02 0
0.44 0.02 0
0.45 0.02 0
0.46 0.02 0
0.47 0.02 0
0.48 0.02 0
0.49 0.02 0
0.5 0.02 0
0.51 0.02 0
0.52 0.02 0
0.53 0.02 0
0.54 0.02 0
0.55 0.02 0
0.56 0.02 0
0.57 0.02 0
0.58 0.02 0
0.59 0.02 0
0.6 0.02 0
0.61 0.02 0
0 0.03 0
0.01 0.03 0
0.02 0.03 0
0.03 0.03 0
0.04 0.03 0
0.05 0.03 0
0.06 0.03 0
0.07 0.03 0
0.08 0.03 0
0.09 0.03 0
0.1 0.03 0
0.11 0.03 0
0.12 0.03 0
0.13 0.03 0
0.14 0.03 0
0.15 0.03 0
0.16 0.03 0
0.17 0.03 0
0.18 0.03 0
0.19 0.03 0
0.2 0.03 0
0.21 0.03 0
0.22 0.03 0
0.23 0.03 0
0.24 0.03 0
0.25 0.03 0
0.26 0.03 0
0.27 0.03 0
0.28 0.03 0
0.29 0.03 0
0.3 0.03 0
0.31 0.03 0
0.32 0.03 0
0.33 0.03 0
0.34 0.03 0
0.35 0.03 0
0.36 0.03 0
0.37 0.03 0
0.38 0.03 0
0.39 0.03 0
0.4 0.03 0
0.41 0.03 0
0.42 0.03 0
0.43 0.03 0
0.44 0.03 0
0.45 0.03 0
0.46 0.03 0
0.47 0.03 0
0.48 0.03 0
0.49 0.03 0
0.5 0.03 0
0.51 0.03 0
0.52 0.03 0
0.53 0.03 0
0.54 0.03 0
0.55 0.03 0
0.56 0.03 0
0.57 0.03 0
0.58 0.03 0
0.59 0.03 0
0.6 0.03 0
0.61 0.03 0
0 0.04 0
0.01 0.04 0
0.02 0.04 0
0.03 0.04 0
0.04 0.04 0
0.05 0.04 0
0.06 0.04 0
0.07 0.04 0
0.08 0.04 0
0.09 0.04 0
0.1 0.04 0
0.11 0.04 0
0.12 0.04 0
0.13 0.04 0
0.14 0.04 0
0.15 0.04 0
0.16 0.04 0
0.17 0.04 0
0.18 0.04 0
0.19 0.04 0
0.2 0.04 0
0.21 0.04 0
0.22 0.04 0
0.23 0.04 0
0.24 0.04 0
0.25 0.04 0
0.26 0.04 0
0.27 0.04 0
0.28 0.04 0
0.29 0.04 0
0.3 0.04 0
0.31 0.04 0
0.32 0.04 0
0.33 0.04 0
0.34 0.04 0
0.35 0.04 0
0.36 0.04 0
0.37 0.04 0
0.38 0.04 0
0.39 0.04 0
0.4 0.04 0
0.41 0.04 0
0.42 0.04 0
0.43 0.04 0
0.44 0.04 0
0.45 0.04 0
0.46 0.04 0
0.47 0.04 0
0.48 0.04 0
0.49 0.04 0
0.5 0.04 0
0.51 0.04 0
0.52 0.04 0
0.53 0.04 0
0.54 0.04 0
0.55 0.04 0
0.56 0.04 0
0.57 0.04 0
0.58 0.04 0
0.59 0.04 0
0.6 0.04 0
0.61 0.04 0
0 0.05 0
0.01 0.05 0
0.02 0.05 0
0.03 0.05 0
0.04 0.05 0
0.05 0.05 0
0.06 0.05 0
0.07 0.05 0
0.08 0.05 0
0.09 0.05 0
0.1 0.05 0
0.11 0.05 0
0.12 0.05 0
0.13 0.05 0
0.14 0.05 0
0.15 0.05 0
0.16 0.05 0
0.17 0.05 0
0.18 0.05 0
0.19 0.05 0
0.2 0.05 0
0.21 0.05 0
0.22 0.05 0
0.23 0.05 0
0.24 0.05 0
0.25 0.05 0
0.26 0.05 0
0.27 0.05 0
0.28 0.05 0
0.29 0.05 0
0.3 0.05 0
0.31 0.05 0
0.32 0.05 0
0.33 0.05 0
0.34 0.05 0
0.35 0.05 0
0.36 0.05 0
0.37 0.05 0
0.38 0.05 0
0.39 0.05 0
0.4 0.05 0
0.41 0.05 0
0.42 0.05 0
0.43 0.05 0
0.44 0.05 0
0.45 0.05 0
0.46 0.05 0
0.47 0.05 0
0.48 0.05 0
0.49 0.05 0
0.5 0.05 0
0.51 0.05 0
0.52 0.05 0
0.53 0.05 0
0.54 0.05 0
0.55 0.05 0
0.56 0.05 0
0.57 0.05 0
0.58 0.05 0
0.59 0.05 0
0.6 0.05 0
0.61 0.05 0
0 0.06 0
0.01 0.06 0
0.02 0.06 0
0.03 0.06 0
0.04 0.06 0
0.05 0.06 0
0.06 0.06 0
0.07 0.06 0
0.08 0.06 0
0.09 0.06 0
0.1 0.06 0
0.11 0.06 0
0.12 0.06 0
0.13 0.06 0
0.14 0.06 0
0.15 0.06 0
0.16 0.06 0
0.17 0.06 0
0.18 0.06 0
0.19 0.06 0
0.2 0.06 0
0.21 0.06 0
0.22 0.06 0
0.23 0.06 0
0.24 0.06 0
0.25 0.06 0
0.26 0.06 0
0.27 0.06 0
0.28 0.06 0
0.29 0.06 0
0.3 0.06 0
0.31 0.06 0
0.32 0.06 0
0.33 0.06 0
0.34 0.06 0
0.35 0.06 0
0.36 0.06 0
0.37 0.06 0
0.38 0.06 0
0.39 0.06 0
0.4 0.06 0
0.41 0.06 0
0.42 0.06 0
0.43 0.06 0
0.44 0.06 0
0.45 0.06 0
0.46 0.06 0
0.47 0.06 0
0.48 0.06 0
0.49 0.06 0
0.5 0.06 0
0.51 0.06 0
0.52 0.06 0
0.53 0.06 0
0.54 0.06 0
0.55 0.06 0
0.56 0.06 0
0.57 0.06 0
0.58 0.06 0
0.59 0.06 0
0.6 0.06 0
0.61 0.06 0
0 0.07 0
0.01 0.07 0
0.02 0.07 0
0.03 0.07 0
0.04 0.07 0
0.05 0.07 0
0.06 0.07 0
0.07 0.07 0
0.08 0.07 0
0.09 0.07 0
0.1 0.07 0
0.11 0.07 0
0.12 0.07 0
0.13 0.07 0
0.14 0.07 0
0.15 0.07 0
0.16 0.07 0
0.17 0.07 0
0.18 0.07 0
0.19 0.07 0
0.2 0.07 0
0.21 0.07 0
0.22 0.07 0
0.23 0.07 0
0.24 0.07 0
0.25 0.07 0
0.26 0.07 0
0.27 0.07 0
0.28 0.07 0
0.29 0.07 0
0.3 0.07 0
0.31 0.07 0
0.32 0.07 0
0.33 0.07 0
0.34 0.07 0
0.35 0.07 0
0.36 0.07 0
0.37 0.07 0
0.38 0.07 0
0.39 0.07 0
0.4 0.07 0
0.41 0.07 0
0.42 0.07 0
0.43 0.07 0
0.44 0.07 0
0.45 0.07 0
0.46 0.07 0
0.47 0.07 0
0.48 0.07 0
0.49 0.07 0
0.5 0.07 0
0.51 0.07 0
0.52 0.07 0
0.53 0.07 0
0.54 0.07 0
0.55 0.07 0
0.56 0.07 0
0.57 0.07 0
0.58 0.07 0
0.59 0.07 0
0.6 0.07 0
0.61 0.07 0
0 0.08 0
0.01 0.08 0
0.02 0.08 0
0.03 0.08 0
0.04 0.08 0
0.05 0.08 0
0.06 0.08 0
0.07 0.08 0
0.08 0.08 0
0.09 0.08 0
0.1 0.08 0
0.11 0.08 0
0.12 0.08 0
0.13 0.08 0
0.14 0.08 0
0.15 0.08 0
0.16 0.08 0
0.17 0.08 0
0.18 0.08 0
0.19 0.08 0
0.2 0.08 0
0.21 0.08 0
0.22 0.08 0
0.23 0.08 0
0.24 0.08 0
0.25 0.08 0
0.26 0.08 0
0.27 0.08 0
0.28 0.08 0
0.29 0.08 0
0.3 0.08 0
0.31 0.08 0
0.32 0.08 0
0.33 0.08 0
0.34 0.08 0
0.35 0.08 0
0.36 0.08 0
0.37 0.08 0
0.38 0.08 0
0.39 0.08 0
0.4 0.08 0
0.41 0.08 0
0.42 0.08 0
0.43 0.08 0
0.44 0.08 0
0.45 0.08 0
0.46 0.08 0
0.47 0.08 0
0.48 0.08 0
0.49 0.08 0
0.5 0.08 0
0.51 0.08 0
0.52 0.08 0
0.53 0.08 0
0.54 0.08 0
0.55 0.08 0
0.56 0.08 0
0.57 0.08 0
0.58 0.08 0
0.59 0.08 0
0.6 0.08 0
0.61 0.08 0
0 0.09 0
0.01 0.09 0
0.02 0.09 0
0.03 0.09 0
0.04 0.09 0
0.05 0.09 0
0.06 0.09 0
0.07 0.09 0
0.08 0.09 0
0.09 0.09 0
0.1 0.09 0
0.11 0.09 0
0.12 0.09 0
0.13 0.09 0
0.14 0.09 0
0.15 0.09 0
0.16 0.09 0
0.17 0.09 0
0.18 0.09 0
0.19 0.09 0
0.2 0.09 0
0.21 0.09 0
0.22 0.09 0
0.23 0.09 0
0.24 0.09 0
0.25 0.09 0
0.26 0.09 0
0.27 0.09 0
0.28 0.09 0
0.29 0.09 0
0.3 0.09 0
0.31 0.09 0
0.32 0.09 0
0.33 0.09 0
0.34 0.09 0
0.35 0.09 0
0.36 0.09 0
0.37 0.09 0
0.38 0.09 0
0.39 0.09 0
0.4 0.09 0
0.41 0.09 0
0.42 0.09 0
0.43 0.09 0
0.44 0.09 0
0.45 0.09 0
0.46 0.09 0
0.47 0.09 0
0.48 0.09 0
0.49 0.09 0
0.5 0.09 0
0.51 0.09 0
0.52 0.09 0
0.53 0.09 0
0.54 0.09 0
0.55 0.09 0
0.56 0.09 0
0.57 0.09 0
0.58 0.09 0
0.59 0.09 0
0.6 0.09 0
0.61 0.09 0
0 0.1 0
0.01 0.1 0
0.02 0.1 0
0.03 0.1 0
0.04 0.1 0
0.05 0.1 0
0.06 0.1 0
0.07 0.1 0
0.08 0.1 0
0.09 0.1 0
0.1 0.1 0
0.11 0.1 0
0.12 0.1 0
0.13 0.1 0
0.14 0.1 0
0.15 0.1 0
0.16 0.1 0
0.17 0.1 0
0.18 0.1 0
0.19 0.1 0
0.2 0.1 0
0.21 0.1 0
0.22 0.1 0
0.23 0.1 0
0.24 0.1 0
0.25 0.1 0
0.26 0.1 0
0.27 0.1 0
0.28 0.1 0
0.29 0.1 0
0.3 0.1 0
0.31 0.1 0
0.32 0.1 0
0.33 0.1 0
0.34 0.1 0
0.35 0.1 0
0.36 0.1 0
0.37 0.1 0
0.38 0.1 0
0.39 0.1 0
0.4 0.1 0
0.41 0.1 0
0.42 0.1 0
0.43 0.1 0
0.44 0.1 0
0.45 0.1 0
0.46 0.1 0
0.47 0.1 0
0.48 0.1 0
0.49 0.1 0
0.5 0.1 0
0.51 0.1 0
0.52 0.1 0
0.53 0.1 0
0.54 0.1 0
0.55 0.1 0
0.56 0.1 0
0.57 0.1 0
0.58 0.1 0
0.59 0.1 0
0.6 0.1 0
0.61 0.1 0
0 0.11 0
0.01 0.11 0
0.02 0.11 0
0.03 0.11 0
0.04 0.11 0
0.05 0.11 0
0.06 0.11 0
0.07 0.11 0
0.08 0.11 0
0.09 0.11 0
0.1 0.11 0
0.11 0.11 0
0.12 0.11 0
0.13 0.11 0
0.14 0.11 0
0.15 0.11 0
0.16 0.11 0
0.17 0.11 0
0.18 0.11 0
0.19 0.11 0
0.2 0.11 0
0.21 0.11 0
0.22 0.11 0
0.23 0.11 0
0.24 0.11 0
0.25 0.11 0
0.26 0.11 0
0.27 0.11 0
0.28 0.11 0
0.29 0.11 0
0.3 0.11 0
0.31 0.11 0
0.32 0.11 0
0.33 0.11 0
0.34 0.11 0
0.35 0.11 0
0.36 0.11 0
0.37 0.11 0
0.38 0.11 0
0.39 0.11 0
0.4 0.11 0
0.41 0.11 0
0.42 0.11 0
0.43 0.11 0
0.44 0.11 0
0.45 0.11 0
0.46 0.11 0
0.47 0.11 0
0.48 0.11 0
0.49 0.11 0
0.5 0.11 0
0.51 0.11 0
0.52 0.11 0
0.53 0.11 0
0.54 0.11 0
0.55 0.11 0
0.56 0.11 0
0.57 0.11 0
0.58 0.11 0
0.59 0.11 0
0.6 0.11 0
0.61 0.11 0
0 0.12 0
0.01 0.12 0
0.02 0.12 0
0.03 0.12 0
0.04 0.12 0
0.05 0.12 0
0.06 0.12 0
0.07 0.12 0
0.08 0.12 0
0.09 0.12 0
0.1 0.12 0
0.11 0.12 0
0.12 0.12 0
0.13 0.12 0
0.14 0.12 0
0.15 0.12 0
0.16 0.12 0
0.17 0.12 0
0.18 0.12 0
0.19 0.12 0
0.2 0.12 0
0.21 0.12 0
0.22 0.12 0
0.23 0.12 0
0.24 0.12 0
0.25 0.12 0
0.26 0.12 0
0.27 0.12 0
0.28 0.12 0
0.29 0.12 0
0.3 0.12 0
0.31 0.12 0
0.32 0.12 0
0.33 0.12 0
0.34 0.12 0
0.35 0.12 0
0.36 0.12 0
0.37 0.12 0
0.38 0.12 0
0.39 0.12 0
0.4 0.12 0
0.41 0.12 0
0.42 0.12 0
0.43 0.12 0
0.44 0.12 0
0.45 0.12 0
0.46 0.12 0
0.47 0.12 0
0.48 0.12 0
0.49 0.12 0
0.5 0.12 0
0.51 0.12 0
0.52 0.12 0
0.53 0.12 0
0.54 0.12 0
0.55 0.12 0
0.56 0.12 0
0.57 0.12 0
0.58 0.12 0
0.59 0.12 0
0.6 0.12 0
0.61 0.12 0
0 0.13 0
0.01 0.13 0
0.02 0.13 0
0.03 0.13 0
0.04 0.13 0
0.05 0.13 0
0.06 0.13 0
0.07 0.13 0
0.08 0.13 0
0.09 0.13 0
0.1 0.13 0
0.11 0.13 0
0.12 0.13 0
0.13 0.13 0
0.14 0.13 0
0.15 0.13 0
0.16 0.13 0
0.17 0.13 0
0.18 0.13 0
0.19 0.13 0
0.2 0.13 0
0.21 0.13 0
0.22 0.13 0
0.23 0.13 0
0.24 0.13 0
0.25 0.13 0
0.26 0.13 0
0.27 0.13 0
0.28 0.13 0
0.29 0.13 0
0.3 0.13 0
0.31 0.13 0
0.32 0.13 0
0.33 0.13 0
0.34 0.13 0
0.35 0.13 0
0.36 0.13 0
0.37 0.13 0
0.38 0.13 0
0.39 0.13 0
0.4 0.13 0
0.41 0.13 0
0.42 0.13 0
0.43 0.13 0
0.44 0.13 0
0.45 0.13 0
0.46 0.13 0
0.47 0.13 0
0.48 0.13 0
[...]
POINT_DATA 93248

SCALARS v double
LOOKUP_TABLE default
0
0
0
0
0
0
0
0
0
0
0
0
0
0
0
0
0
0
0
0
0
0
0
0
0
0
0
0
0
0
0
0
0
0
0
0
0
0
-0.126369
0
0
0
0
0
-0.132987
0
0
0
0
0
0
0
0
0
0
0
0
0
0
0
0
0
0
0.0440621
-0.0865157
0.0458199
0.0318814
0.0139465
0
-0.00899495
-0.0165227
-0.0211264
-0.0240653
-0.0272795
-0.0346223
-0.0336868
-0.0342742
-0.0354716
-0.0361754
-0.0352834
-0.0349258
-0.0343161
-0.0454096
-0.036832
-0.0285583
-0.0355954
-0.0361292
-0.035873
-0.0356899
-0.0355799
-0.0354592
-0.0352432
-0.0349187
-0.0350836
-0.0381008
-0.0351016
-0.0342036
-0.0348255
-0.083357
-0.0331146
-0.0317631
-0.0304783
-0.0382038
-0.0747172
-0.0379599
-0.0400882
-0.0479829
-0.0794783
-0.151475
-0.037774
-0.0530055
-0.0350827
-0.0351455
-0.0332929
-0.0392006
-0.048669
-0.0758775
-0.0463286
-0.11013
-0.0356941
-0.0296372
-0.0260373
-0.0216962
0
0
0.0258473
0.0492414
0.0567832
0.0526005
0.0335684
0.0290202
0.0179707
0.00613713
-0.00501132
-0.0140928
-0.0227325
-0.14749
-0.039681
-0.0433811
-0.0478897
-0.0498289
-0.0484761
-0.0508681
-0.0542592
-0.212921
-0.0540275
-0.063615
-0.0544476
-0.0518526
-0.0509756
-0.050598
-0.050369
-0.0501323
-0.0497588
-0.0491475
-0.0488962
-0.124119
-0.0485075
-0.0485903
-0.0504257
-0.0501693
-0.0471156
-0.0455436
-0.0486122
-0.0522457
-0.0553367
-0.055487
-0.0586013
-0.0633049
-0.0699977
-0.0659542
-0.0563
-0.0530055
-0.0513916
-0.0528818
-0.0598964
-0.057123
-0.0611883
-0.0668351
-0.0581189
-0.0525894
-0.125421
-0.0374543
-0.0333268
-0.0303654
0
0
0.0135974
0.0339628
0.042684
0.0521431
0.0570504
0.0433105
0.0318125
0.0201442
0.0084111
-0.00370025
-0.0150247
-0.0289619
-0.0365426
-0.043549
-0.0505658
-0.0545088
0
-0.058125
-0.0616995
-0.0665523
-0.0645631
-0.0647114
-0.0624959
-0.0608765
-0.0599773
-0.0594754
-0.0591535
-0.0588827
-0.0586048
-0.0584403
-0.0590839
-0.0621693
-0.0644323
-0.0620236
-0.0578266
-0.0569813
-0.0562005
-0.0563763
-0.0586143
-0.0606532
-0.0631047
-0.0654976
-0.0661796
-0.0689029
-0.0702262
-0.065038
-0.063141
-0.0616412
-0.0616144
-0.0620829
-0.0635378
-0.0635846
-0.0638889
-0.063097
-0.059874
-0.0554391
-0.0508289
-0.0425536
-0.0387757
-0.0381845
0
0
0.00840823
0.0239556
0.0384055
0.0412047
0.0427452
0.0376353
0.0299348
0.0206517
0.0103989
-0.000502117
-0.0114891
-0.0223496
-0.0313088
-0.0396753
-0.0504908
-0.0516279
-0.0539185
-0.0587314
-0.0631297
-0.0648613
-0.0660011
-0.0662862
-0.0659679
-0.0654743
-0.0650428
-0.0646842
-0.0644132
-0.0642018
-0.0640409
-0.0640274
-0.0644396
-0.0656745
-0.0679775
-0.0667926
-0.0642708
-0.0629413
-0.0626445
-0.0633184
-0.0645279
-0.0658651
-0.067394
-0.0689729
-0.0700218
-0.0709756
-0.0701304
-0.0647757
-0.0664932
-0.0665971
-0.0664191
-0.0661819
-0.0658684
-0.065248
-0.0639072
-0.0616808
-0.0587919
-0.0546973
-0.0496352
-0.0440873
-0.0413406
-0.0447417
0
0
0.0055815
0.0156915
0.0240689
0.0278594
0.0287995
0.0263621
0.0206168
0.0131883
0.00477248
-0.00431405
-0.0135139
-0.0221343
-0.0292961
-0.0349033
-0.0346987
-0.0456069
-0.0518126
-0.0569729
-0.0603837
-0.0632058
-0.0654287
-0.0667908
-0.067529
-0.0678817
-0.0680144
-0.0679389
-0.0678595
-0.0677899
-0.0677029
-0.0675863
-0.067466
-0.0678519
-0.0722823
-0.0700366
-0.0681359
-0.0672337
-0.0671756
-0.0676949
-0.0684556
-0.0693012
-0.0701712
-0.071013
-0.0717701
-0.0722311
-0.071685
0
-0.0687824
-0.0691924
-0.0687544
-0.0680641
-0.0671028
-0.0657724
-0.0638204
-0.0612927
-0.0583135
-0.0547307
-0.0508068
-0.046992
-0.0434975
-0.0492345
-0.144092
0
0.00381642
0.0101402
0.0149949
0.0173334
0.0173575
0.0155666
0.00974685
0
-0.00357344
-0.0112133
-0.0189272
-0.0260722
-0.0311105
-0.0352397
-0.0391759
-0.0460119
-0.050541
-0.0529222
-0.0577536
-0.061621
-0.0647916
-0.0670064
-0.0684868
-0.0694831
-0.07015
-0.0703316
-0.0705384
-0.0706819
-0.0706734
-0.0704257
-0.0698209
-0.069172
-0.158406
-0.072252
-0.0708083
-0.070521
-0.070682
-0.0710851
-0.0715585
-0.0720285
-0.072444
-0.0727528
-0.0730018
-0.0727609
-0.071616
-0.0689053
-0.0698807
-0.0702742
-0.0699641
-0.0691927
-0.0680456
-0.0664875
-0.0644321
-0.0620676
-0.0594769
-0.0569006
-0.0553368
-0.0573142
-0.0640558
-0.0500836
0
0
0.00264093
0.00636838
0.00889907
0.00961095
0.0082611
0.00438999
0.00125813
-0.00462318
-0.0113295
-0.0183555
-0.0254997
-0.0326342
-0.0351563
-0.038231
-0.0421996
-0.048591
-0.053285
-0.0537596
-0.0576022
-0.0616008
-0.0652817
-0.0678186
-0.0696382
-0.0710356
-0.0721427
-0.0724927
-0.0731067
-0.0735079
-0.0736182
-0.0733944
-0.0730353
-0.0734104
-0.0760647
-0.074997
-0.0741584
-0.0738706
-0.0739545
-0.0741873
-0.0744244
-0.0746085
-0.0747172
-0.0747285
-0.0744053
-0.0739201
-0.0730788
-0.0721467
-0.0718785
-0.0716713
-0.0711869
-0.0703704
-0.069243
-0.0677894
-0.0658873
-0.063938
-0.0619081
-0.0598176
-0.0578022
-0.113045
-0.0287958
-0.0476261
0
0
0.00183397
0.00372707
0.0046103
0.00403603
0.00180046
-0.00207014
-0.00644915
-0.0120614
-0.0183277
-0.0247981
-0.031803
-0.0427511
-0.0292961
-0.0417342
-0.04398
-0.0438338
-0.0456082
-0.0547945
-0.0597313
-0.0633417
-0.0674075
-0.0695441
-0.0713032
-0.0728088
-0.0724927
-0.0753016
-0.0761068
-0.0766405
-0.0768373
-0.0765576
-0.0760382
-0.0762225
-0.0769567
-0.0771103
-0.0770396
-0.0769992
-0.0771197
-0.0772484
-0.0772967
-0.0772516
-0.0771081
-0.0768405
-0.0763932
-0.0758319
-0.0751973
-0.0746159
-0.0740777
-0.0735108
-0.0728054
-0.0719234
-0.0708836
-0.0697833
-0.0680091
-0.0665496
-0.0650296
-0.0633853
-0.0614642
-0.0584645
-0.0502423
-0.0488468
0
0
0.00127015
0.00182661
0.0014885
-8.54575e-05
-0.00301231
-0.00719293
-0.012239
-0.0180012
-0.0240144
-0.0296099
-0.0333678
-0.0283892
-0.0398245
-0.0451768
-0.0478897
-0.0497971
-0.0534467
-0.0584373
-0.0625379
-0.065683
-0.0957798
-0.071825
-0.073494
-0.0751748
-0.0769118
-0.0779801
-0.0791331
-0.0800209
-0.0804144
-0.0799398
-0.0784711
-0.078494
-0.0790902
-0.0795936
-0.0798961
-0.0800331
-0.0802449
-0.0803356
-0.0802391
-0.0800149
-0.0796915
-0.0792649
-0.0787403
-0.0781656
-0.0775847
-0.0770136
-0.0763832
-0.0756495
-0.0747931
-0.0738492
-0.0727806
-0.0714795
-0.0704804
-0.069558
-0.0683332
-0.0668284
-0.0648238
-0.0617705
-0.057067
-0.0511663
0
0
0.000870689
0.000424685
-0.00084973
-0.00324417
-0.00677945
-0.0113983
-0.0168605
-0.0228398
-0.0288438
-0.0342335
-0.0382545
-0.0409196
-0.0462092
-0.0505664
-0.0529433
-0.0560078
-0.0596734
-0.0634144
-0.0668442
-0.0698793
-0.0730449
-0.0748792
-0.0764591
-0.0778822
-0.0786535
-0.0808791
-0.082593
-0.0839058
-0.0846149
-0.0845106
-0.0793127
-0.0806087
-0.0818251
-0.0825624
-0.0830268
-0.083357
-0.0832806
-0.0834538
-0.0832427
-0.0828843
-0.0824445
-0.0819286
-0.081333
-0.0807352
-0.0801453
-0.0795366
-0.0788485
-0.0780228
-0.0770668
-0.0761334
-0.0750911
-0.0739937
-0.0738706
-0.0728568
-0.071615
-0.0700877
-0.0679829
-0.0648489
-0.0602816
-0.0537457
0
0
0.000582906
-0.000638251
-0.00264543
-0.00655938
-0.00983984
-0.0149198
-0.020779
-0.0270607
-0.0333166
-0.0390619
-0.0440617
-0.0486686
-0.0532562
-0.0572939
-0.057992
-0.062011
-0.0657578
-0.0690281
-0.0720556
-0.0746429
-0.0767605
-0.0784398
-0.0798912
-0.0812716
-0.0827211
-0.0846145
-0.0866458
-0.0883357
-0.0890292
-0.0888578
0
-0.0841061
-0.0853147
-0.0858799
-0.0862994
-0.0866329
-0.0868417
-0.0865763
-0.0862902
-0.085826
-0.0853196
-0.0848035
-0.0840883
-0.0834555
-0.0828522
-0.0822234
-0.0815089
-0.0806228
-0.0795764
-0.0788486
-0.0781031
-0.0773344
-0.0767534
-0.0758775
-0.0747305
-0.0732044
-0.0710127
-0.067723
-0.062961
-0.0562874
0
0
0.000368961
-0.00148146
-0.00412113
-0.00771628
-0.0124045
-0.0179885
-0.0242739
-0.0309543
-0.037634
-0.0438838
-0.0496684
-0.0549655
-0.05987
-0.0645674
0
-0.0684697
-0.0720626
-0.0748809
-0.0778181
-0.0799029
-0.0813644
-0.0825691
-0.083737
-0.0850158
-0.0865826
-0.0886256
-0.091191
-0.0933674
-0.0934322
-0.0908529
-0.0868376
-0.0873009
-0.0882165
-0.08896
-0.0895154
-0.0899194
-0.0901509
-0.0900697
-0.0895483
-0.0888268
-0.0882308
-0.0881187
-0.0869161
-0.086263
-0.0856781
-0.085066
-0.0843731
-0.0834547
-0.0822027
-0.0818912
-0.0814156
-0.0806822
-0.0798367
-0.0789095
-0.0777978
-0.0762711
-0.0739999
-0.0705642
-0.0656045
-0.0587295
0
0
0.000203716
-0.00217653
-0.00534666
-0.00926997
-0.0146644
-0.0207536
-0.0274997
-0.0346478
-0.0418461
-0.0458915
-0.0549634
-0.0606292
-0.0655395
-0.0694112
-0.0711336
-0.0746914
-0.0777533
-0.0803899
-0.0841059
-0.0855873
-0.0863026
-0.0869675
-0.08778
-0.0888356
-0.0902952
-0.0924821
-0.0958582
-0.0992712
-0.101218
-0.094979
-0.0916899
-0.0911379
-0.0915876
-0.0922115
-0.0927923
-0.0932928
-0.0935653
-0.0937313
-0.0928671
-0.0917016
-0.0905325
-0.088488
-0.0892234
-0.0890417
-0.0885759
-0.0880243
-0.0874162
-0.0865447
-0.084745
-0.0852491
-0.0849129
-0.0840423
-0.0830087
-0.0820504
-0.0809584
-0.0794132
-0.0770012
-0.0734534
-0.068234
-0.061051
0
0
6.72996e-05
-0.00279193
-0.00655938
-0.0115301
-0.0169
-0.0233459
-0.0305456
-0.0381874
-0.0458915
-0.0532391
-0.0600222
-0.0659942
-0.071061
-0.0751306
-0.0783196
-0.081251
-0.0836343
-0.0856717
-0.0916174
-0.0914184
-0.0911884
-0.0913677
-0.0918346
-0.092539
-0.0935872
-0.0953537
-0.0988584
-0.0677029
-0.124696
-0.0989575
-0.0942763
-0.0940928
-0.0946665
-0.0953182
-0.0960015
-0.0968298
-0.0979966
-0.0979467
-0.0963641
-0.0946701
-0.0934155
-0.0925485
-0.0923083
-0.0920062
-0.0915372
-0.0910243
-0.0905264
-0.0899181
-0.0664191
-0.0890842
-0.0885765
-0.0874385
-0.0859954
-0.0853198
-0.0843056
-0.0828221
-0.0805976
-0.0765649
-0.0708735
-0.0632076
0
0
-4.46875e-05
-0.00328921
-0.00749982
-0.0127225
-0.0187895
-0.0257528
-0.0334511
-0.0416235
-0.0498781
-0.0577779
-0.0649542
-0.071254
-0.0766329
-0.0811078
-0.0847838
-0.0876743
-0.0896178
-0.0905004
-0.193032
-0.0964857
-0.0957734
-0.0957798
-0.095918
-0.096096
-0.0962355
-0.0960178
-0.0939402
-0.0831599
-0.0353005
-0.0776105
-0.0903066
-0.0947508
-0.0966703
-0.0978042
-0.0988069
-0.100057
-0.101682
-0.102728
-0.10039
-0.0979925
-0.0966035
-0.0959511
-0.0955515
-0.0951093
-0.0945184
-0.0939566
-0.0933582
-0.092696
-0.0919851
-0.0928344
-0.0921751
-0.0911918
-0.0910628
-0.0891036
-0.0878262
-0.0864263
-0.0840148
-0.0799228
-0.0736073
-0.0651164
0
0
-0.000167507
-0.00367458
-0.00833631
-0.0139995
-0.0205907
-0.0280281
-0.0362323
-0.0449814
-0.0538279
-0.0622612
-0.0697905
-0.0764414
-0.0822156
-0.0871209
-0.0911377
-0.0942231
-0.0965044
-0.0986275
-0.102235
-0.101889
-0.101229
-0.100716
-0.100273
-0.099761
-0.0989229
-0.0971552
-0.0931935
-0.0859375
-0.0779344
-0.0858865
-0.0923425
-0.0961763
-0.0984109
-0.0998709
-0.101146
-0.102789
-0.105374
-0.108643
-0.107067
-0.102131
-0.0998787
-0.0990696
-0.0986167
-0.0981061
-0.0973731
-0.0968332
-0.0962212
-0.0957052
-0.0959266
-0.0973543
-0.0959082
-0.0945773
-0.0937326
-0.0926711
-0.0908509
-0.0905127
-0.0882118
-0.084067
-0.0768613
-0.0666429
0
0
-0.000365857
0.00182661
-0.00915523
-0.0153382
-0.0223866
-0.0300829
-0.0388931
-0.0483235
-0.0578222
-0.0668001
-0.0745033
-0.0815206
-0.0877706
-0.0931809
-0.0975766
-0.100864
-0.103275
-0.105268
-0.106658
-0.106803
-0.106311
-0.105582
-0.104734
-0.103722
-0.102351
-0.100247
-0.0969482
-0.0941526
-0.0944624
-0.09597
-0.0978747
-0.0996329
-0.101041
-0.102129
-0.10312
-0.104449
-0.107064
-0.113494
-0.12837
-0.106031
-0.101813
-0.101238
-0.10105
-0.100717
-0.0973731
-0.0996376
-0.0990919
-0.0986623
-0.0991944
-0.10259
-0.0994245
-0.0979118
-0.097403
-0.0976382
-0.100117
-0.0964047
-0.0936864
-0.0899264
-0.0821933
-0.0676032
0
0
-0.000315194
-0.00453843
-0.00999025
-0.0166991
-0.0243466
-0.0326272
-0.0418886
-0.0518745
-0.0620077
-0.0715482
-0.078918
-0.0864451
-0.093315
-0.099389
-0.104209
-0.107539
-0.109794
-0.111572
-0.112255
-0.112069
-0.111376
-0.11042
-0.109301
-0.108039
-0.106599
-0.10494
-0.103075
-0.100693
-0.104036
-0.103284
-0.103209
-0.103683
-0.10426
-0.104612
-0.104689
-0.104219
-0.101869
-0.0911754
-0.04353
-0.0855413
-0.0973098
-0.101171
-0.102411
-0.102692
-0.102529
-0.102305
-0.101959
-0.101572
-0.101808
-0.162262
-0.10228
-0.101332
-0.10136
-0.101692
-0.101957
-0.101022
-0.10041
-0.098262
-0.095167
-0.0905832
0
0
-0.00034026
-0.0049696
-0.0107854
-0.0182615
-0.0264679
-0.0340706
-0.0443361
-0.0552857
-0.0663132
-0.0766807
-0.08257
-0.0913285
-0.0989425
-0.105966
-0.111169
-0.114215
-0.116076
-0.118066
-0.118229
-0.117543
-0.116516
-0.115311
-0.113985
-0.11261
-0.11128
-0.110103
-0.108627
-0.106247
-0.180311
-0.108462
-0.107673
-0.10774
-0.107804
-0.107399
-0.106417
-0.10447
-0.100484
-0.0931101
-0.0847536
-0.0918594
-0.0985153
-0.101959
-0.103711
-0.104568
-0.104939
-0.105039
-0.105078
-0.105244
-0.105966
-0.107727
-0.106198
-0.105482
-0.105503
-0.105769
-0.10591
-0.105938
-0.105557
-0.103878
-0.100017
-0.0914892
0
0
-0.000397781
-0.00536406
-0.0114099
-0.0303909
-0.0288564
0
-0.0470298
-0.058883
-0.0707333
-0.0823697
-0.0189272
-0.0967969
-0.104691
-0.113319
-0.118474
-0.120613
-0.121868
-0.125021
-0.124171
-0.122939
-0.12164
-0.120245
-0.118727
-0.117243
-0.115989
-0.115374
-0.116434
-0.113129
-0.114119
-0.113085
-0.112388
-0.112123
-0.111832
-0.110739
-0.109056
-0.10676
-0.103726
-0.100591
-0.0996783
-0.100903
-0.102984
-0.104692
-0.105961
-0.106943
-0.107589
-0.107913
-0.108258
-0.108671
-0.109142
-0.109419
-0.109184
-0.10917
-0.109521
-0.109943
-0.11013
-0.110182
-0.109439
-0.107173
-0.102483
-0.0931351
0
0
-0.000475567
-0.00581516
-0.0123988
-0.0206267
-0.0295997
-0.0385207
-0.0498733
-0.0621177
-0.0744464
-0.085572
-0.0933025
-0.102133
-0.109649
-0.122908
-0.124658
-0.126098
-0.126892
-0.184579
-0.129549
-0.128135
-0.126796
-0.125264
-0.123465
-0.121745
-0.120111
-0.117979
-0.111041
-0.115437
-0.116666
-0.116626
-0.116421
-0.116407
-0.116332
-0.114783
-0.112666
-0.110548
-0.108563
-0.107238
-0.107111
-0.107391
-0.107894
-0.108404
-0.108741
-0.1099
-0.110638
-0.110942
-0.111449
-0.111924
-0.112197
-0.112096
-0.111977
-0.112477
-0.113309
-0.113994
-0.114045
-0.113873
-0.112546
-0.109575
-0.104673
-0.0951612
0
0
-0.000552181
-0.00624071
-0.0132051
-0.0215106
-0.0308739
-0.0411364
-0.0527635
-0.0655364
-0.0785987
-0.0905857
-0.0997465
-0.108311
-0.115765
-0.246766
-0.130115
-0.131877
-0.133805
-0.135884
-0.135207
-0.133886
-0.132323
-0.130514
-0.128168
-0.126203
-0.124429
-0.122456
-0.120371
-0.120347
-0.120264
-0.120103
-0.120087
-0.120511
-0.121406
-0.120222
-0.117064
-0.115075
-0.113416
-0.112564
-0.112326
-0.112308
-0.112377
-0.112671
-0.114158
-0.113599
-0.114036
-0.114123
-0.11476
-0.115238
-0.115409
-0.115001
-0.114527
-0.115634
-0.116947
-0.117874
-0.117732
-0.117375
-0.115345
-0.111509
-0.10691
-0.0974179
0
0
-0.000627752
-0.00665727
-0.0139883
-0.0226308
-0.0324671
-0.0433399
-0.0552502
-0.0689124
-0.0830384
-0.0979764
-0.105599
-0.114864
-0.123801
-0.133
-0.136652
-0.138934
-0.140631
-0.14135
-0.140823
-0.139559
-0.137924
-0.135927
-0.132608
-0.130676
-0.129126
-0.127565
-0.126215
-0.125117
-0.12419
-0.123603
-0.123345
-0.123783
-0.126094
-0.131733
-0.121271
-0.12019
-0.117525
-0.116756
-0.116503
-0.116382
-0.116265
-0.116165
-0.116463
-0.116627
-0.116813
-0.117952
-0.118334
-0.118686
-0.11881
-0.117885
-0.116044
-0.119302
-0.12053
-0.120959
-0.12204
-0.12109
-0.118155
-0.112805
-0.109283
-0.0998428
0
0
-0.000710183
-0.00709683
-0.0148363
-0.023944
-0.0343211
-0.0455726
-0.0566841
-0.071895
-0.0848242
-0.0914032
-0.108445
-0.120617
-0.130233
-0.13769
-0.142519
-0.145424
-0.147176
-0.147441
-0.146658
-0.145257
-0.143594
-0.141609
-0.13636
-0.135276
-0.13406
-0.132556
-0.131008
-0.129096
-0.128096
-0.126877
-0.125694
-0.124119
-0.11909
-0.0947575
-0.113158
-0.113873
-0.118426
-0.119589
-0.119849
-0.119872
-0.119657
-0.119102
-0.119278
-0.119784
-0.120341
-0.121036
-0.121554
-0.122028
-0.122387
-0.121293
-0.117099
-0.123115
-0.124319
-0.124844
-0.125279
-0.124611
-0.121294
-0.113045
-0.11212
-0.102374
0
0
-0.000803982
-0.00757346
-0.0157744
-0.0254646
-0.0366669
-0.0495115
-0.0659184
-0.0767312
-0.0891754
-0.101428
-0.114956
-0.12683
-0.136478
-0.143759
-0.148848
-0.152037
-0.153607
-0.153547
-0.152479
-0.150905
-0.149206
-0.14761
-0.0751748
-0.140492
-0.139161
-0.137287
-0.135459
-0.125117
-0.131711
-0.129919
-0.127477
-0.125624
-0.121391
-0.116232
-0.118256
-0.119671
-0.12135
-0.122335
-0.122848
-0.123078
-0.122827
-0.121559
-0.122133
-0.122985
-0.123663
-0.124194
-0.12465
-0.125088
-0.125504
-0.125758
-0.0392006
-0.144562
-0.127821
-0.128185
-0.128463
-0.128114
-0.125421
-0.0260373
-0.115956
-0.10491
0
0
-0.000905943
-0.00807445
-0.0167672
-0.0270716
-0.0390149
-0.052556
-0.0672338
-0.0801076
-0.0940729
-0.108269
-0.121755
-0.133548
-0.143156
-0.150457
-0.155624
-0.158781
-0.159962
-0.159598
-0.158248
-0.156349
-0.154167
-0.15148
-0.147414
-0.145382
-0.143542
-0.141364
-0.139241
-0.137128
-0.135446
-0.133966
-0.134043
-0.129845
-0.126806
-0.125081
-0.124584
-0.124732
-0.12515
-0.125596
-0.126003
-0.126334
-0.12612
-0.123376
-0.125123
-0.126276
-0.126898
-0.12729
-0.127616
-0.12791
-0.128074
-0.127719
-0.126128
-0.129269
-0.130462
-0.131044
-0.131178
-0.130465
-0.127807
-0.121881
-0.117832
-0.107344
0
0
-0.00100515
-0.0085678
-0.0177673
-0.0287103
-0.0413597
-0.0555764
-0.0707866
-0.0830122
-0.098924
-0.114426
-0.128463
-0.140457
-0.150145
-0.157465
-0.162654
-0.165659
-0.166332
-0.165554
-0.163863
-0.161649
-0.159253
-0.156342
-0.153085
-0.15058
-0.14808
-0.145279
-0.142968
-0.140952
-0.139152
-0.137514
-0.135903
-0.133633
-0.131647
-0.130348
-0.129502
-0.129068
-0.128926
-0.128992
-0.129216
-0.129576
-0.129714
-0.0792649
-0.128638
-0.129617
-0.129995
-0.130233
-0.130441
-0.130634
-0.130779
-0.130874
-0.131204
-0.132222
-0.133191
-0.133818
-0.13396
-0.133337
-0.131357
-0.127444
-0.121087
-0.109858
0
0
-0.00107933
-0.0089973
-0.0187293
-0.0303909
-0.0437842
-0.0588466
-0.0755248
-0.0211264
-0.104474
-0.120881
-0.13526
-0.14749
-0.157295
-0.164612
-0.169809
-0.172729
-0.172643
-0.171427
-0.169394
-0.166912
-0.164588
-0.161438
-0.158131
-0.155053
-0.152198
-0.148901
-0.14665
-0.144615
-0.142702
-0.140868
-0.139027
-0.137225
-0.135636
-0.134371
-0.133405
-0.132744
-0.132358
-0.132199
-0.132195
-0.132197
-0.131838
-0.130545
-0.131551
-0.132335
-0.132762
-0.132979
-0.133143
-0.133326
-0.133569
-0.13399
-0.134674
-0.135438
-0.136231
-0.136847
-0.137076
-0.136734
-0.135594
-0.131481
-0.12443
-0.112502
0
0
-0.00108343
-0.00925293
-0.0196402
-0.0321819
-0.0462525
-0.0617554
-0.0780229
-0.0930096
-0.110374
-0.127036
-0.141927
-0.154548
-0.164569
-0.171823
-0.176764
-0.180002
-0.178698
-0.177264
-0.174992
-0.172186
-0.170262
-0.166378
-0.162586
-0.158931
-0.155001
-0.152963
-0.150495
-0.148217
-0.146125
-0.144169
-0.142319
-0.140615
-0.13909
-0.137757
-0.136682
-0.135907
-0.135413
-0.135142
-0.135012
-0.1349
-0.134699
-0.134537
-0.134834
-0.135264
-0.13555
-0.135651
-0.135753
-0.135931
-0.13622
-0.136798
-0.137642
-0.138545
-0.139408
-0.140095
-0.140368
-0.140027
-0.138606
-0.13485
-0.127599
-0.115243
0
0
-0.000949251
-0.00906578
-0.0209052
-0.0340912
-0.0489356
-0.0650989
-0.0820838
-0.0993457
-0.116952
-0.133832
-0.149046
-0.161957
-0.172212
-0.179826
-0.18602
-0.187523
-0.184579
-0.183447
-0.181166
-0.177622
-0.201316
-0.170877
-0.166663
-0.162852
-0.158685
-0.15595
-0.153603
-0.151391
-0.149283
-0.147294
-0.14544
-0.143734
-0.142156
-0.140676
-0.139485
-0.138654
-0.138133
-0.137842
-0.137712
-0.137647
-0.137616
-0.137659
-0.137922
-0.138275
-0.138417
-0.138284
-0.138277
-0.138414
-0.138642
-0.13934
-0.14042
-0.141568
-0.142619
-0.143444
-0.143688
-0.143225
-0.141747
-0.138048
-0.130736
-0.11804
0
0
-0.000766905
-0.00732212
-0.0224031
-0.0367745
-0.0523574
-0.0692426
-0.087138
-0.105512
-0.123757
-0.14106
-0.156599
-0.169725
-0.180045
-0.187359
-0.191144
-0.190452
-0.193882
-0.191598
-0.187829
-0.183519
-0.179641
-0.175014
-0.170664
-0.166701
-0.161407
-0.158891
-0.156617
-0.154384
-0.152223
-0.150187
-0.148305
-0.146567
-0.144887
-0.143146
-0.141843
-0.141031
-0.140558
-0.140305
-0.140243
-0.140268
-0.140351
-0.140384
-0.140798
-0.141299
-0.141334
-0.140815
-0.140718
-0.140814
-0.140814
-0.141674
-0.143117
-0.144562
-0.145828
-0.146846
-0.146978
-0.146369
-0.144867
-0.141051
-0.133936
-0.120891
0
0
-0.00289164
-0.0174494
-0.0267588
-0.0404229
-0.0564295
-0.0740427
-0.0928477
-0.112057
-0.130934
-0.148722
-0.164582
-0.177851
-0.188133