# vtk DataFile Version 2.0
FlowField
ASCII
DATASET STRUCTURED_GRID
DIMENSIONS 62 47 32 
POINTS 93248 double
0 0 0
0.01 0 0
0.02 0 0
0.03 0 0
0.04 0 0
0.05 0 0
0.06 0 0
0.07 0 0
0.08 0 0
0.09 0 0
0.1 0 0
0.11 0 0
0.12 0 0
0.13 0 0
0.14 0 0
0.15 0 0
0.16 0 0
0.17 0 0
0.18 0 0
0.19 0 0
0.2 0 0
0.21 0 0
0.22 0 0
0.23 0 0
0.24 0 0
0.25 0 0
0.26 0 0
0.27 0 0
0.28 0 0
0.29 0 0
0.3 0 0
0.31 0 0
0.32 0 0
0.33 0 0
0.34 0 0
0.35 0 0
0.36 0 0
0.37 0 0
0.38 0 0
0.39 0 0
0.4 0 0
0.41 0 0
0.42 0 0
0.43 0 0
0.44 0 0
0.45 0 0
0.46 0 0
0.47 0 0
0.48 0 0
0.49 0 0
0.5 0 0
0.51 0 0
0.52 0 0
0.53 0 0
0.54 0 0
0.55 0 0
0.56 0 0
0.57 0 0
0.58 0 0
0.59 0 0
0.6 0 0
0.61 0 0
0 0.01 0
0.01 0.01 0
0.02 0.01 0
0.03 0.01 0
0.04 0.01 0
0.05 0.01 0
0.06 0.01 0
0.07 0.01 0
0.08 0.01 0
0.09 0.01 0
0.1 0.01 0
0.11 0.01 0
0.12 0.01 0
0.13 0.01 0
0.14 0.01 0
0.15 0.01 0
0.16 0.01 0
0.17 0.01 0
0.18 0.01 0
0.19 0.01 0
0.2 0.01 0
0.21 0.01 0
0.22 0.01 0
0.23 0.01 0
0.24 0.01 0
0.25 0.01 0
0.26 0.01 0
0.27 0.01 0
0.28 0.01 0
0.29 0.01 0
0.3 0.01 0
0.31 0.01 0
0.32 0.01 0
0.33 0.01 0
0.34 0.01 0
0.35 0.01 0
0.36 0.01 0
0.37 0.01 0
0.38 0.01 0
0.39 0.01 0
0.4 0.01 0
0.41 0.01 0
0.42 0.01 0
0.43 0.01 0
0.44 0.01 0
0.45 0.01 0
0.46 0.01 0
0.47 0.01 0
0.48 0.01 0
0.49 0.01 0
0.5 0.01 0
0.51 0.01 0
0.52 0.01 0
0.53 0.01 0
0.54 0.01 0
0.55 0.01 0
0.56 0.01 0
0.57 0.01 0
0.58 0.01 0
0.59 0.01 0
0.6 0.01 0
0.61 0.01 0
0 0.02 0
0.01 0.02 0
0.02 0.02 0
0.03 0.02 0
0.04 0.02 0
0.05 0.02 0
0.06 0.02 0
0.07 0.02 0
0.08 0.02 0
0.09 0.02 0
0.1 0.02 0
0.11 0.02 0
0.12 0.02 0
0.13 0.02 0
0.14 0.02 0
0.15 0.02 0
0.16 0.02 0
0.17 0.02 0
0.18 0.02 0
0.19 0.02 0
0.2 0.02 0
0.21 0.02 0
0.22 0.02 0
0.23 0.02 0
0.24 0.02 0
0.25 0.02 0
0.26 0.02 0
0.27 0.02 0
0.28 0.02 0
0.29 0.02 0
0.3 0.02 0
0.31 0.02 0
0.32 0.02 0
0.33 0.02 0
0.34 0.02 0
0.35 0.02 0
0.36 0.02 0
0.37 0.02 0
0.38 0.02 0
0.39 0.02 0
0.4 0.02 0
0.41 0.02 0
0.42 0.02 0
0.43 0.02 0
0.44 0.02 0
0.45 0.02 0
0.46 0.02 0
0.47 0.02 0
0.48 0.02 0
0.49 0.02 0
0.5 0.02 0
0.51 0.02 0
0.52 0.02 0
0.53 0.02 0
0.54 0.02 0
0.55 0.02 0
0.56 0.02 0
0.57 0.02 0
0.58 0.02 0
0.59 0.02 0
0.6 0.02 0
0.61 0.02 0
0 0.03 0
0.01 0.03 0
0.02 0.03 0
0.03 0.03 0
0.04 0.03 0
0.05 0.03 0
0.06 0.03 0
0.07 0.03 0
0.08 0.03 0
0.09 0.03 0
0.1 0.03 0
0.11 0.03 0
0.12 0.03 0
0.13 0.03 0
0.14 0.03 0
0.15 0.03 0
0.16 0.03 0
0.17 0.03 0
0.18 0.03 0
0.19 0.03 0
0.2 0.03 0
0.21 0.03 0
0.22 0.03 0
0.23 0.03 0
0.24 0.03 0
0.25 0.03 0
0.26 0.03 0
0.27 0.03 0
0.28 0.03 0
0.29 0.03 0
0.3 0.03 0
0.31 0.03 0
0.32 0.03 0
0.33 0.03 0
0.34 0.03 0
0.35 0.03 0
0.36 0.03 0
0.37 0.03 0
0.38 0.03 0
0.39 0.03 0
0.4 0.03 0
0.41 0.03 0
0.42 0.03 0
0.43 0.03 0
0.44 0.03 0
0.45 0.03 0
0.46 0.03 0
0.47 0.03 0
0.48 0.03 0
0.49 0.03 0
0.5 0.03 0
0.51 0.03 0
0.52 0.03 0
0.53 0.03 0
0.54 0.03 0
0.55 0.03 0
0.56 0.03 0
0.57 0.03 0
0.58 0.03 0
0.59 0.03 0
0.6 0.03 0
0.61 0.03 0
0 0.04 0
0.01 0.04 0
0.02 0.04 0
0.03 0.04 0
0.04 0.04 0
0.05 0.04 0
0.06 0.04 0
0.07 0.04 0
0.08 0.04 0
0.09 0.04 0
0.1 0.04 0
0.11 0.04 0
0.12 0.04 0
0.13 0.04 0
0.14 0.04 0
0.15 0.04 0
0.16 0.04 0
0.17 0.04 0
0.18 0.04 0
0.19 0.04 0
0.2 0.04 0
0.21 0.04 0
0.22 0.04 0
0.23 0.04 0
0.24 0.04 0
0.25 0.04 0
0.26 0.04 0
0.27 0.04 0
0.28 0.04 0
0.29 0.04 0
0.3 0.04 0
0.31 0.04 0
0.32 0.04 0
0.33 0.04 0
0.34 0.04 0
0.35 0.04 0
0.36 0.04 0
0.37 0.04 0
0.38 0.04 0
0.39 0.04 0
0.4 0.04 0
0.41 0.04 0
0.42 0.04 0
0.43 0.04 0
0.44 0.04 0
0.45 0.04 0
0.46 0.04 0
0.47 0.04 0
0.48 0.04 0
0.49 0.04 0
0.5 0.04 0
0.51 0.04 0
0.52 0.04 0
0.53 0.04 0
0.54 0.04 0
0.55 0.04 0
0.56 0.04 0
0.57 0.04 0
0.58 0.04 0
0.59 0.04 0
0.6 0.04 0
0.61 0.04 0
0 0.05 0
0.01 0.05 0
0.02 0.05 0
0.03 0.05 0
0.04 0.05 0
0.05 0.05 0
0.06 0.05 0
0.07 0.05 0
0.08 0.05 0
0.09 0.05 0
0.1 0.05 0
0.11 0.05 0
0.12 0.05 0
0.13 0.05 0
0.14 0.05 0
0.15 0.05 0
0.16 0.05 0
0.17 0.05 0
0.18 0.05 0
0.19 0.05 0
0.2 0.05 0
0.21 0.05 0
0.22 0.05 0
0.23 0.05 0
0.24 0.05 0
0.25 0.05 0
0.26 0.05 0
0.27 0.05 0
0.28 0.05 0
0.29 0.05 0
0.3 0.05 0
0.31 0.05 0
0.32 0.05 0
0.33 0.05 0
0.34 0.05 0
0.35 0.05 0
0.36 0.05 0
0.37 0.05 0
0.38 0.05 0
0.39 0.05 0
0.4 0.05 0
0.41 0.05 0
0.42 0.05 0
0.43 0.05 0
0.44 0.05 0
0.45 0.05 0
0.46 0.05 0
0.47 0.05 0
0.48 0.05 0
0.49 0.05 0
0.5 0.05 0
0.51 0.05 0
0.52 0.05 0
0.53 0.05 0
0.54 0.05 0
0.55 0.05 0
0.56 0.05 0
0.57 0.05 0
0.58 0.05 0
0.59 0.05 0
0.6 0.05 0
0.61 0.05 0
0 0.06 0
0.01 0.06 0
0.02 0.06 0
0.03 0.06 0
0.04 0.06 0
0.05 0.06 0
0.06 0.06 0
0.07 0.06 0
0.08 0.06 0
0.09 0.06 0
0.1 0.06 0
0.11 0.06 0
0.12 0.06 0
0.13 0.06 0
0.14 0.06 0
0.15 0.06 0
0.16 0.06 0
0.17 0.06 0
0.18 0.06 0
0.19 0.06 0
0.2 0.06 0
0.21 0.06 0
0.22 0.06 0
0.23 0.06 0
0.24 0.06 0
0.25 0.06 0
0.26 0.06 0
0.27 0.06 0
0.28 0.06 0
0.29 0.06 0
0.3 0.06 0
0.31 0.06 0
0.32 0.06 0
0.33 0.06 0
0.34 0.06 0
0.35 0.06 0
0.36 0.06 0
0.37 0.06 0
0.38 0.06 0
0.39 0.06 0
0.4 0.06 0
0.41 0.06 0
0.42 0.06 0
0.43 0.06 0
0.44 0.06 0
0.45 0.06 0
0.46 0.06 0
0.47 0.06 0
0.48 0.06 0
0.49 0.06 0
0.5 0.06 0
0.51 0.06 0
0.52 0.06 0
0.53 0.06 0
0.54 0.06 0
0.55 0.06 0
0.56 0.06 0
0.57 0.06 0
0.58 0.06 0
0.59 0.06 0
0.6 0.06 0
0.61 0.06 0
0 0.07 0
0.01 0.07 0
0.02 0.07 0
0.03 0.07 0
0.04 0.07 0
0.05 0.07 0
0.06 0.07 0
0.07 0.07 0
0.08 0.07 0
0.09 0.07 0
0.1 0.07 0
0.11 0.07 0
0.12 0.07 0
0.13 0.07 0
0.14 0.07 0
0.15 0.07 0
0.16 0.07 0
0.17 0.07 0
0.18 0.07 0
0.19 0.07 0
0.2 0.07 0
0.21 0.07 0
0.22 0.07 0
0.23 0.07 0
0.24 0.07 0
0.25 0.07 0
0.26 0.07 0
0.27 0.07 0
0.28 0.07 0
0.29 0.07 0
0.3 0.07 0
0.31 0.07 0
0.32 0.07 0
0.33 0.07 0
0.34 0.07 0
0.35 0.07 0
0.36 0.07 0
0.37 0.07 0
0.38 0.07 0
0.39 0.07 0
0.4 0.07 0
0.41 0.07 0
0.42 0.07 0
0.43 0.07 0
0.44 0.07 0
0.45 0.07 0
0.46 0.07 0
0.47 0.07 0
0.48 0.07 0
0.49 0.07 0
0.5 0.07 0
0.51 0.07 0
0.52 0.07 0
0.53 0.07 0
0.54 0.07 0
0.55 0.07 0
0.56 0.07 0
0.57 0.07 0
0.58 0.07 0
0.59 0.07 0
0.6 0.07 0
0.61 0.07 0
0 0.08 0
0.01 0.08 0
0.02 0.08 0
0.03 0.08 0
0.04 0.08 0
0.05 0.08 0
0.06 0.08 0
0.07 0.08 0
0.08 0.08 0
0.09 0.08 0
0.1 0.08 0
0.11 0.08 0
0.12 0.08 0
0.13 0.08 0
0.14 0.08 0
0.15 0.08 0
0.16 0.08 0
0.17 0.08 0
0.18 0.08 0
0.19 0.08 0
0.2 0.08 0
0.21 0.08 0
0.22 0.08 0
0.23 0.08 0
0.24 0.08 0
0.25 0.08 0
0.26 0.08 0
0.27 0.08 0
0.28 0.08 0
0.29 0.08 0
0.3 0.08 0
0.31 0.08 0
0.32 0.08 0
0.33 0.08 0
0.34 0.08 0
0.35 0.08 0
0.36 0.08 0
0.37 0.08 0
0.38 0.08 0
0.39 0.08 0
0.4 0.08 0
0.41 0.08 0
0.42 0.08 0
0.43 0.08 0
0.44 0.08 0
0.45 0.08 0
0.46 0.08 0
0.47 0.08 0
0.48 0.08 0
0.49 0.08 0
0.5 0.08 0
0.51 0.08 0
0.52 0.08 0
0.53 0.08 0
0.54 0.08 0
0.55 0.08 0
0.56 0.08 0
0.57 0.08 0
0.58 0.08 0
0.59 0.08 0
0.6 0.08 0
0.61 0.08 0
0 0.09 0
0.01 0.09 0
0.02 0.09 0
0.03 0.09 0
0.04 0.09 0
0.05 0.09 0
0.06 0.09 0
0.07 0.09 0
0.08 0.09 0
0.09 0.09 0
0.1 0.09 0
0.11 0.09 0
0.12 0.09 0
0.13 0.09 0
0.14 0.09 0
0.15 0.09 0
0.16 0.09 0
0.17 0.09 0
0.18 0.09 0
0.19 0.09 0
0.2 0.09 0
0.21 0.09 0
0.22 0.09 0
0.23 0.09 0
0.24 0.09 0
0.25 0.09 0
0.26 0.09 0
0.27 0.09 0
0.28 0.09 0
0.29 0.09 0
0.3 0.09 0
0.31 0.09 0
0.32 0.09 0
0.33 0.09 0
0.34 0.09 0
0.35 0.09 0
0.36 0.09 0
0.37 0.09 0
0.38 0.09 0
0.39 0.09 0
0.4 0.09 0
0.41 0.09 0
0.42 0.09 0
0.43 0.09 0
0.44 0.09 0
0.45 0.09 0
0.46 0.09 0
0.47 0.09 0
0.48 0.09 0
0.49 0.09 0
0.5 0.09 0
0.51 0.09 0
0.52 0.09 0
0.53 0.09 0
0.54 0.09 0
0.55 0.09 0
0.56 0.09 0
0.57 0.09 0
0.58 0.09 0
0.59 0.09 0
0.6 0.09 0
0.61 0.09 0
0 0.1 0
0.01 0.1 0
0.02 0.1 0
0.03 0.1 0
0.04 0.1 0
0.05 0.1 0
0.06 0.1 0
0.07 0.1 0
0.08 0.1 0
0.09 0.1 0
0.1 0.1 0
0.11 0.1 0
0.12 0.1 0
0.13 0.1 0
0.14 0.1 0
0.15 0.1 0
0.16 0.1 0
0.17 0.1 0
0.18 0.1 0
0.19 0.1 0
0.2 0.1 0
0.21 0.1 0
0.22 0.1 0
0.23 0.1 0
0.24 0.1 0
0.25 0.1 0
0.26 0.1 0
0.27 0.1 0
0.28 0.1 0
0.29 0.1 0
0.3 0.1 0
0.31 0.1 0
0.32 0.1 0
0.33 0.1 0
0.34 0.1 0
0.35 0.1 0
0.36 0.1 0
0.37 0.1 0
0.38 0.1 0
0.39 0.1 0
0.4 0.1 0
0.41 0.1 0
0.42 0.1 0
0.43 0.1 0
0.44 0.1 0
0.45 0.1 0
0.46 0.1 0
0.47 0.1 0
0.48 0.1 0
0.49 0.1 0
0.5 0.1 0
0.51 0.1 0
0.52 0.1 0
0.53 0.1 0
0.54 0.1 0
0.55 0.1 0
0.56 0.1 0
0.57 0.1 0
0.58 0.1 0
0.59 0.1 0
0.6 0.1 0
0.61 0.1 0
0 0.11 0
0.01 0.11 0
0.02 0.11 0
0.03 0.11 0
0.04 0.11 0
0.05 0.11 0
0.06 0.11 0
0.07 0.11 0
0.08 0.11 0
0.09 0.11 0
0.1 0.11 0
0.11 0.11 0
0.12 0.11 0
0.13 0.11 0
0.14 0.11 0
0.15 0.11 0
0.16 0.11 0
0.17 0.11 0
0.18 0.11 0
0.19 0.11 0
0.2 0.11 0
0.21 0.11 0
0.22 0.11 0
0.23 0.11 0
0.24 0.11 0
0.25 0.11 0
0.26 0.11 0
0.27 0.11 0
0.28 0.11 0
0.29 0.11 0
0.3 0.11 0
0.31 0.11 0
0.32 0.11 0
0.33 0.11 0
0.34 0.11 0
0.35 0.11 0
0.36 0.11 0
0.37 0.11 0
0.38 0.11 0
0.39 0.11 0
0.4 0.11 0
0.41 0.11 0
0.42 0.11 0
0.43 0.11 0
0.44 0.11 0
0.45 0.11 0
0.46 0.11 0
0.47 0.11 0
0.48 0.11 0
0.49 0.11 0
0.5 0.11 0
0.51 0.11 0
0.52 0.11 0
0.53 0.11 0
0.54 0.11 0
0.55 0.11 0
0.56 0.11 0
0.57 0.11 0
0.58 0.11 0
0.59 0.11 0
0.6 0.11 0
0.61 0.11 0
0 0.12 0
0.01 0.12 0
0.02 0.12 0
0.03 0.12 0
0.04 0.12 0
0.05 0.12 0
0.06 0.12 0
0.07 0.12 0
0.08 0.12 0
0.09 0.12 0
0.1 0.12 0
0.11 0.12 0
0.12 0.12 0
0.13 0.12 0
0.14 0.12 0
0.15 0.12 0
0.16 0.12 0
0.17 0.12 0
0.18 0.12 0
0.19 0.12 0
0.2 0.12 0
0.21 0.12 0
0.22 0.12 0
0.23 0.12 0
0.24 0.12 0
0.25 0.12 0
0.26 0.12 0
0.27 0.12 0
0.28 0.12 0
0.29 0.12 0
0.3 0.12 0
0.31 0.12 0
0.32 0.12 0
0.33 0.12 0
0.34 0.12 0
0.35 0.12 0
0.36 0.12 0
0.37 0.12 0
0.38 0.12 0
0.39 0.12 0
0.4 0.12 0
0.41 0.12 0
0.42 0.12 0
0.43 0.12 0
0.44 0.12 0
0.45 0.12 0
0.46 0.12 0
0.47 0.12 0
0.48 0.12 0
0.49 0.12 0
0.5 0.12 0
0.51 0.12 0
0.52 0.12 0
0.53 0.12 0
0.54 0.12 0
0.55 0.12 0
0.56 0.12 0
0.57 0.12 0
0.58 0.12 0
0.59 0.12 0
0.6 0.12 0
0.61 0.12 0
0 0.13 0
0.01 0.13 0
0.02 0.13 0
0.03 0.13 0
0.04 0.13 0
0.05 0.13 0
0.06 0.13 0
0.07 0.13 0
0.08 0.13 0
0.09 0.13 0
0.1 0.13 0
0.11 0.13 0
0.12 0.13 0
0.13 0.13 0
0.14 0.13 0
0.15 0.13 0
0.16 0.13 0
0.17 0.13 0
0.18 0.13 0
0.19 0.13 0
0.2 0.13 0
0.21 0.13 0
0.22 0.13 0
0.23 0.13 0
0.24 0.13 0
0.25 0.13 0
0.26 0.13 0
0.27 0.13 0
0.28 0.13 0
0.29 0.13 0
0.3 0.13 0
0.31 0.13 0
0.32 0.13 0
0.33 0.13 0
0.34 0.13 0
0.35 0.13 0
0.36 0.13 0
0.37 0.13 0
0.38 0.13 0
0.39 0.13 0
0.4 0.13 0
0.41 0.13 0
0.42 0.13 0
0.43 0.13 0
0.44 0.13 0
0.45 0.13 0
0.46 0.13 0
0.47 0.13 0
0.48 0.13 0
[...]
POINT_DATA 93248

SCALARS w double
LOOKUP_TABLE default
0
0
0
0
0
0
0
0
0
0
0
0
0
-0.0595612
0
0
0
0
0
0
0
0
0
0
0
0
-0.1275
0
0
0
0
0
-0.123227
0
0
0
0
0
0
0
0
0
0
0
0
0
-0.112352
0
0
0
0
0
0
0
0
0
0
0
0
0
0
0
0
-0.0209034
-0.0399173
-0.0532006
-0.0609509
-0.0648489
-0.0672395
-0.0688521
-0.06967
-0.0699883
-0.0698189
-0.0690583
-0.0677282
-0.0676891
-0.0681327
-0.0686362
-0.0690419
-0.0695579
-0.069956
-0.0695289
-0.064556
-0.0642352
-0.0658818
-0.065693
-0.0654906
-0.0653328
-0.0651616
-0.0649643
-0.0647455
-0.0644999
-0.0641884
-0.063708
-0.0630072
-0.0631333
-0.0632056
-0.0625403
-0.0615601
-0.0623563
-0.0641744
-0.0687316
-0.0604675
-0.0624642
-0.0646661
-0.0660541
-0.0681533
-0.131803
-0.0641498
-0.0635124
-0.0635896
-0.0644859
-0.0653596
-0.0664453
-0.0656177
-0.0676215
-0.131632
-0.0668224
-0.0633657
-0.0623817
-0.0628443
-0.0620861
-0.059808
0
0
-0.0242339
-0.0557062
-0.0742873
-0.087935
-0.0975799
-0.107761
-0.115311
-0.120534
-0.123767
-0.125429
-0.125427
-0.12374
-0.124118
-0.124571
-0.125075
-0.125523
-0.126435
-0.127473
-0.128962
-0.119156
-0.119804
-0.147142
-0.121486
-0.120393
-0.119923
-0.119571
-0.119224
-0.118861
-0.11848
-0.118058
-0.117477
-0.116313
-0.11673
-0.116898
-0.115837
-0.115777
-0.114875
-0.114867
-0.120717
-0.117975
-0.118802
-0.119784
-0.120685
-0.122906
-0.125871
-0.123421
-0.119842
-0.118834
-0.119056
-0.119865
-0.132397
-0.120768
-0.122196
-0.124833
-0.122328
-0.120718
-0.11709
-0.116028
-0.113047
-0.107278
0
0
-0.0240315
-0.0555049
-0.0761739
-0.0920474
-0.0648489
-0.115071
-0.126339
-0.134498
-0.140374
-0.144545
-0.146116
-0.148348
-0.147219
-0.146226
-0.145581
-0.145618
-0.146626
-0.146969
-0.147885
-0.146527
-0.143846
-0.14331
-0.141751
-0.140723
-0.140052
-0.139539
-0.139087
-0.138661
-0.138264
-0.137948
-0.13791
-0.138646
-0.141509
-0.137818
-0.134973
-0.134718
-0.13442
-0.13467
-0.137343
-0.137692
-0.138432
-0.139515
-0.13914
-0.140735
-0.142524
-0.140321
-0.138873
-0.137946
-0.138688
-0.138916
-0.139534
-0.139494
-0.140168
-0.140993
-0.140791
-0.140583
-0.14
-0.136605
-0.131911
-0.124415
0
0
-0.0235556
-0.0542994
-0.0545863
-0.0925956
-0.106202
-0.119145
-0.129611
-0.137922
-0.144304
-0.148889
-0.151451
-0.152944
-0.152733
-0.151894
-0.150908
-0.150168
-0.149029
-0.149651
-0.150601
-0.149694
-0.148598
-0.147651
-0.146641
-0.145775
-0.145068
-0.144476
-0.143955
-0.143485
-0.143066
-0.142728
-0.142535
-0.142492
-0.141967
-0.14152
-0.140268
-0.139772
-0.139556
-0.13864
-0.140772
-0.141549
-0.142229
-0.142862
-0.142941
-0.143595
-0.144318
-0.143921
-0.142884
-0.14226
-0.142477
-0.142631
-0.142839
-0.14303
-0.14338
-0.14376
-0.144018
-0.14409
-0.143518
-0.141043
-0.136283
-0.128338
0
0
-0.0233995
-0.0542589
-0.0762391
-0.0944043
-0.108758
-0.120881
-0.130791
-0.138746
-0.144968
-0.149399
-0.152028
-0.153164
-0.153049
-0.152173
-0.144729
-0.150056
-0.14929
-0.149052
-0.149167
-0.14865
-0.147932
-0.147142
-0.146335
-0.145573
-0.144881
-0.144269
-0.143717
-0.143218
-0.142772
-0.142379
-0.142008
-0.141509
-0.140573
-0.140357
-0.140056
-0.139832
-0.139717
-0.139761
-0.140179
-0.140642
-0.141077
-0.141432
-0.141603
-0.141851
-0.142214
-0.142909
-0.141635
-0.141214
-0.141269
-0.141407
-0.141575
-0.141794
-0.142085
-0.142392
-0.142658
-0.142682
-0.142005
-0.139754
-0.13502
-0.127358
0
0
-0.0233257
-0.0542046
-0.0769459
-0.0950004
-0.109595
-0.121717
-0.131228
-0.138814
-0.144862
-0.149082
-0.151495
-0.152381
-0.152179
-0.151279
-0.149933
-0.148689
-0.148188
-0.143937
-0.147525
-0.147135
-0.146465
-0.145711
-0.144943
-0.144199
-0.143502
-0.142893
-0.14233
-0.141814
-0.141356
-0.14095
-0.140544
-0.139939
-0.138456
-0.138874
-0.138939
-0.138811
-0.138678
-0.13864
-0.138738
-0.138917
-0.139119
-0.139285
-0.139331
-0.139265
-0.138835
-0.137573
-0.13827
-0.138765
-0.13907
-0.139275
-0.139462
-0.139714
-0.140064
-0.140402
-0.140632
-0.140534
-0.139526
-0.136443
-0.130234
-0.124124
0
0
-0.0232612
-0.0540728
-0.0769262
-0.0950176
-0.109767
-0.122305
-0.131166
-0.139078
-0.14491
-0.148773
-0.150816
-0.151345
-0.151068
-0.150102
-0.148566
-0.146464
-0.147011
-0.147065
-0.14677
-0.146112
-0.145289
-0.144458
-0.143653
-0.142874
-0.14213
-0.141566
-0.140994
-0.140466
-0.140016
-0.13966
-0.139418
-0.139495
-0.140628
-0.139488
-0.138581
-0.137991
-0.137633
-0.137443
-0.137374
-0.137385
-0.137439
-0.137498
-0.13742
-0.1373
-0.136983
-0.136494
-0.136697
-0.137015
-0.137257
-0.13742
-0.137576
-0.137856
-0.138364
-0.1388
-0.139038
-0.138869
-0.137455
-0.132047
-0.0620861
-0.120578
0
0
-0.0231967
-0.0539066
-0.0767149
-0.0947731
-0.109479
-0.121689
-0.131206
-0.138897
-0.144568
-0.148199
-0.149886
-0.149673
-0.14976
-0.148925
-0.147086
-0.143029
-0.13709
-0.146902
-0.146295
-0.145387
-0.14434
-0.14345
-0.142616
-0.14179
-0.140937
-0.140518
-0.139909
-0.139361
-0.138934
-0.138648
-0.138458
-0.13843
-0.138634
-0.138138
-0.137508
-0.136982
-0.136604
-0.136363
-0.136225
-0.136157
-0.13613
-0.136113
-0.136049
-0.135959
-0.135817
-0.135677
-0.135717
-0.135835
-0.135934
-0.135979
-0.136025
-0.136279
-0.137142
-0.137734
-0.138039
-0.138081
-0.13756
-0.135443
-0.127717
-0.121865
0
0
-0.0231357
-0.0537397
-0.0764666
-0.0944575
-0.109096
-0.121169
-0.130909
-0.138574
-0.144144
-0.147585
-0.148785
-0.12374
-0.147991
-0.148032
-0.146887
-0.144973
-0.145506
-0.145755
-0.145301
-0.144471
-0.143364
-0.142598
-0.14179
-0.14094
-0.140044
-0.139474
-0.138899
-0.138389
-0.138027
-0.137874
-0.137696
-0.137473
-0.137213
-0.136801
-0.136348
-0.135949
-0.135625
-0.135399
-0.135253
-0.135163
-0.135106
-0.135066
-0.135025
-0.134982
-0.134937
-0.134909
-0.134923
-0.134952
-0.134946
-0.134861
-0.134712
-0.133672
-0.13639
-0.137108
-0.137406
-0.137506
-0.137184
-0.135539
-0.130546
-0.122285
0
0
-0.023082
-0.0535905
-0.0762363
-0.0941526
-0.108742
-0.120774
-0.130566
-0.138238
-0.143778
-0.147203
-0.148642
-0.148166
-0.148368
-0.147953
-0.147153
-0.146086
-0.145569
-0.145092
-0.144441
-0.143696
-0.143169
-0.142187
-0.141206
-0.140231
-0.137346
-0.138567
-0.137994
-0.137482
-0.137171
-0.137254
-0.137122
-0.136686
-0.13617
-0.135702
-0.135311
-0.135003
-0.134725
-0.134532
-0.134409
-0.134325
-0.134268
-0.13423
-0.134213
-0.134209
-0.134214
-0.134229
-0.134251
-0.134261
-0.134216
-0.134063
-0.13379
-0.133672
-0.136222
-0.136712
-0.136906
-0.136999
-0.136714
-0.135213
-0.130829
-0.122323
0
0
-0.0230379
-0.0534684
-0.0760484
-0.0938918
-0.108467
-0.12049
-0.130292
-0.137966
-0.1435
-0.146952
-0.148577
-0.148846
-0.148578
-0.148007
-0.14749
-0.146512
-0.145553
-0.144655
-0.143762
-0.142877
-0.142225
-0.141379
-0.140481
-0.139565
-0.138617
-0.137852
-0.13713
-0.136511
-0.136077
-0.136025
-0.136643
-0.135645
-0.134977
-0.134574
-0.134299
-0.13409
-0.133922
-0.133739
-0.133649
-0.133586
-0.133536
-0.133501
-0.133521
-0.133558
-0.133602
-0.133648
-0.133695
-0.133732
-0.13373
-0.133647
-0.13357
-0.13384
-0.135242
-0.13594
-0.136297
-0.136485
-0.136268
-0.134851
-0.130625
-0.122174
0
0
-0.0230039
-0.0533778
-0.0759283
-0.0938385
-0.108355
-0.120334
-0.130111
-0.137769
-0.143292
-0.146747
-0.148434
-0.148825
-0.148474
-0.147862
-0.147717
-0.146357
-0.145138
-0.144066
-0.143056
-0.142145
-0.141373
-0.140589
-0.139769
-0.138907
-0.138002
-0.137085
-0.136162
-0.135299
-0.134438
-0.133733
-0.132156
-0.132679
-0.133078
-0.133245
-0.133268
-0.133214
-0.133127
-0.13302
-0.132948
-0.132898
-0.132843
-0.132744
-0.13287
-0.13298
-0.133071
-0.133154
-0.133239
-0.133336
-0.133431
-0.133441
-0.133517
-0.133858
-0.134602
-0.135225
-0.135685
-0.13599
-0.135874
-0.134529
-0.130377
-0.121973
0
0
-0.0229773
-0.0533065
-0.0758247
-0.0937089
-0.108201
-0.120167
-0.129939
-0.137592
-0.143108
-0.146551
-0.148249
-0.148631
-0.148178
-0.147172
-0.145267
-0.144657
-0.144007
-0.143191
-0.1422
-0.141369
-0.140652
-0.139939
-0.139169
-0.138314
-0.137346
-0.136232
-0.134951
-0.133511
-0.131401
-0.131181
-0.131081
-0.131511
-0.131963
-0.132267
-0.132413
-0.132439
-0.132403
-0.132309
-0.132244
-0.132207
-0.132114
-0.128836
-0.132192
-0.132449
-0.132602
-0.132724
-0.132848
-0.133013
-0.133239
-0.133261
-0.133387
-0.133712
-0.134219
-0.134726
-0.135203
-0.135592
-0.135589
-0.134274
-0.130158
-0.121772
0
0
-0.0229571
-0.0532539
-0.075756
-0.0947731
-0.108107
-0.120026
-0.129785
-0.137434
-0.142951
-0.146429
-0.1481
-0.14845
-0.14796
-0.146972
-0.14564
-0.144656
-0.143773
-0.142779
-0.141441
-0.140727
-0.14016
-0.139525
-0.138769
-0.137866
-0.136762
-0.135331
-0.133314
-0.13007
-0.121553
-0.125276
-0.128139
-0.129855
-0.130859
-0.131415
-0.131671
-0.131734
-0.132283
-0.131535
-0.131421
-0.131427
-0.131476
-0.131484
-0.131764
-0.132001
-0.132187
-0.132336
-0.132473
-0.132653
-0.133014
-0.132935
-0.133112
-0.133494
-0.134028
-0.134428
-0.134889
-0.135331
-0.136443
-0.1341
-0.129979
-0.121582
0
0
-0.0229422
-0.0532152
-0.0756693
-0.093484
-0.107931
-0.119876
-0.129642
-0.137291
-0.142805
-0.146264
-0.147939
-0.14829
-0.147812
-0.146899
-0.145818
-0.144799
-0.143826
-0.142731
-0.140867
-0.14062
-0.140178
-0.1395
-0.13865
-0.137633
-0.136361
-0.13456
-0.131326
-0.122506
0.0566074
-0.112985
-0.123822
-0.128036
-0.129899
-0.130738
-0.131045
-0.131028
-0.130811
-0.130434
-0.130088
-0.130203
-0.130528
-0.130885
-0.131248
-0.131557
-0.131803
-0.131976
-0.132077
-0.132055
-0.131799
-0.132201
-0.132676
-0.13327
-0.13639
-0.134312
-0.134745
-0.135111
-0.135178
-0.133908
-0.129824
-0.121394
0
0
-0.022934
-0.0532123
-0.0756178
-0.093349
-0.107794
-0.119749
-0.129523
-0.137174
-0.142685
-0.146139
-0.147825
-0.148184
-0.147714
-0.146836
-0.145829
-0.144848
-0.143965
-0.14335
-0.143772
-0.142372
-0.141041
-0.139868
-0.138755
-0.137596
-0.136252
-0.134478
-0.131739
-0.126794
-0.117574
-0.122519
-0.126514
-0.128826
-0.130031
-0.130557
-0.130637
-0.130347
-0.129679
-0.128538
-0.126898
-0.127614
-0.128793
-0.129795
-0.130535
-0.131061
-0.131435
-0.131662
-0.131787
-0.13179
-0.131696
-0.131797
-0.132299
-0.132931
-0.133631
-0.134177
-0.134946
-0.135035
-0.135019
-0.133778
-0.129697
-0.121183
0
0
-0.0229165
-0.0532364
-0.0755349
-0.0931994
-0.107636
-0.119641
-0.129445
-0.137097
-0.142601
-0.146065
-0.147788
-0.148153
-0.147662
-0.14676
-0.145751
-0.144781
-0.143909
-0.143215
-0.142809
-0.141905
-0.140847
-0.139774
-0.138698
-0.137575
-0.136329
-0.13485
-0.132985
-0.13046
-0.128003
-0.128374
-0.129358
-0.13014
-0.130554
-0.130615
-0.130371
-0.129664
-0.128136
-0.124654
-0.116343
-0.121579
-0.125745
-0.128239
-0.129685
-0.130546
-0.131097
-0.131395
-0.13158
-0.131649
-0.131552
-0.131348
-0.132006
-0.132702
-0.133368
-0.134269
-0.144018
-0.135131
-0.135014
-0.13371
-0.129581
-0.120922
0
0
-0.0228188
-0.0527504
-0.0751215
-0.0928546
-0.107399
-0.120774
-0.129482
-0.137082
-0.142556
-0.146038
-0.147872
-0.148214
-0.147628
-0.146623
-0.14557
-0.144594
-0.143701
-0.142882
-0.142148
-0.141337
-0.140459
-0.139538
-0.138578
-0.137566
-0.136479
-0.135311
-0.134105
-0.132329
-0.13092
-0.130765
-0.130965
-0.131093
-0.13102
-0.130712
-0.130236
-0.129127
-0.126446
-0.117591
0.0611118
-0.110136
-0.122185
-0.1269
-0.129056
-0.130155
-0.130743
-0.131168
-0.131453
-0.131633
-0.131623
-0.131088
-0.132097
-0.132717
-0.133223
-0.133842
-0.134657
-0.134524
-0.134992
-0.133611
-0.129447
-0.120118
0
0
-0.0228064
-0.0527891
-0.0750701
-0.0926859
-0.107259
-0.119652
-0.129474
-0.137028
-0.142463
-0.145988
-0.148118
-0.148299
-0.147476
-0.146269
-0.14519
-0.144263
-0.143395
-0.142502
-0.14172
-0.14097
-0.140196
-0.139378
-0.138513
-0.137596
-0.136628
-0.135619
-0.134582
-0.133447
-0.131899
-0.132064
-0.132052
-0.131828
-0.131422
-0.130829
-0.130344
-0.129211
-0.127042
-0.122525
-0.113478
-0.119542
-0.12476
-0.127623
-0.129221
-0.130141
-0.130699
-0.131101
-0.131438
-0.131826
-0.132503
-0.13386
-0.133233
-0.133031
-0.133168
-0.133519
-0.133983
-0.134331
-0.134572
-0.133347
-0.129215
-0.120545
0
0
-0.0228147
-0.0528402
-0.0750767
-0.0925219
-0.107183
-0.11993
-0.129396
-0.136784
-0.142153
-0.145683
-0.148279
-0.147917
-0.146834
-0.145403
-0.144505
-0.143807
-0.143063
-0.142086
-0.141422
-0.140799
-0.140112
-0.139357
-0.138544
-0.137679
-0.136758
-0.135768
-0.134637
-0.134483
-0.13526
-0.134214
-0.133281
-0.132505
-0.131801
-0.131112
-0.13049
-0.129626
-0.12837
-0.126658
-0.124952
-0.12592
-0.127546
-0.128836
-0.129749
-0.130347
-0.130765
-0.131102
-0.131415
-0.13179
-0.132328
-0.132983
-0.132978
-0.132928
-0.133027
-0.133316
-0.133774
-0.134222
-0.134341
-0.13317
-0.129116
-0.120644
0
0
-0.0228248
-0.0528848
-0.0751963
-0.0930831
-0.107225
-0.118187
-0.128128
-0.135946
-0.141483
-0.144648
-0.144922
-0.145673
-0.145416
-0.143968
-0.14372
-0.143474
-0.142958
-0.14184
-0.141494
-0.140959
-0.140266
-0.139492
-0.13868
-0.13782
-0.136875
-0.135644
-0.122853
-0.134186
-0.134579
-0.134126
-0.133398
-0.132619
-0.131848
-0.131122
-0.130557
-0.129992
-0.12938
-0.128802
-0.128507
-0.128731
-0.129243
-0.129805
-0.13035
-0.130632
-0.130873
-0.131128
-0.131371
-0.131654
-0.132014
-0.132397
-0.132605
-0.132699
-0.132826
-0.133126
-0.133692
-0.13418
-0.134276
-0.133123
-0.129081
-0.120688
0
0
-0.0228272
-0.0528932
-0.0751887
-0.0928946
-0.107151
-0.118677
-0.128334
-0.135957
-0.141381
-0.144547
-0.145736
-0.1461
-0.145745
-0.143515
-0.143808
-0.14383
-0.143605
-0.143717
-0.142662
-0.141594
-0.140616
-0.139719
-0.138885
-0.138023
-0.137103
-0.136081
-0.134841
-0.134649
-0.134407
-0.133913
-0.133236
-0.132425
-0.131492
-0.130456
-0.130147
-0.129949
-0.129819
-0.129725
-0.129743
-0.129879
-0.130118
-0.13047
-0.133558
-0.130944
-0.130964
-0.131173
-0.131329
-0.131523
-0.131801
-0.132156
-0.132438
-0.132544
-0.13262
-0.132891
-0.133689
-0.134202
-0.134319
-0.133199
-0.129098
-0.12069
0
0
-0.0228258
-0.0528888
-0.0751661
-0.0928118
-0.107147
-0.11895
-0.12865
-0.136182
-0.141495
-0.144449
-0.146228
-0.1468
-0.146877
-0.147821
-0.146466
-0.145245
-0.144316
-0.143582
-0.142618
-0.141614
-0.140663
-0.139811
-0.139082
-0.138241
-0.137341
-0.13645
-0.135639
-0.135066
-0.134514
-0.133876
-0.133099
-0.132069
-0.130481
-0.127492
-0.12855
-0.129074
-0.129673
-0.130006
-0.130208
-0.130374
-0.130552
-0.130768
-0.131018
-0.130991
-0.130941
-0.131232
-0.131285
-0.1314
-0.131652
-0.13211
-0.132494
-0.13251
-0.132448
-0.132579
-0.13377
-0.134229
-0.134413
-0.133415
-0.129153
-0.120652
0
0
-0.0228246
-0.0528862
-0.0751586
-0.0928018
-0.107194
-0.11914
-0.12908
-0.136475
-0.141503
-0.129848
-0.146153
-0.147095
-0.147151
-0.147044
-0.14623
-0.145285
-0.144511
-0.143452
-0.142429
-0.14146
-0.140565
-0.13981
-0.139322
-0.13842
-0.137463
-0.136603
-0.135876
-0.13527
-0.134638
-0.133926
-0.133066
-0.131693
-0.128485
-0.0632056
-0.125002
-0.119801
-0.12917
-0.130046
-0.130424
-0.130635
-0.130811
-0.130983
-0.131071
-0.131063
-0.131043
-0.131127
-0.131165
-0.131239
-0.131463
-0.13216
-0.132832
-0.132451
-0.132393
-0.132659
-0.133414
-0.134015
-0.134407
-0.133754
-0.129164
-0.120529
0
0
-0.0228251
-0.0528894
-0.0751643
-0.0928181
-0.107258
-0.11937
-0.137592
-0.137085
-0.142101
-0.144897
-0.14686
-0.147451
-0.147224
-0.146644
-0.145857
-0.145156
-0.150241
-0.143531
-0.142321
-0.141318
-0.140422
-0.139685
-0.139482
-0.138269
-0.137271
-0.136492
-0.135859
-0.13535
-0.134701
-0.13405
-0.133371
-0.132093
-0.130062
-0.126475
-0.128029
-0.128912
-0.129874
-0.130401
-0.130672
-0.130846
-0.131025
-0.131233
-0.131224
-0.131137
-0.131068
-0.131049
-0.131042
-0.131043
-0.131108
-0.132007
-0.133016
-0.132094
-0.132219
-0.132569
-0.133092
-0.133606
-0.13397
-0.133802
-0.128806
-0.120253
0
0
-0.022828
-0.0528992
-0.0751779
-0.0928323
-0.107267
-0.119319
-0.129468
-0.137136
-0.142507
-0.145733
-0.147314
-0.14764
-0.147218
-0.146451
-0.145579
-0.144769
-0.144181
-0.143113
-0.142109
-0.141163
-0.140221
-0.13916
-0.137416
-0.137027
-0.136615
-0.136189
-0.135707
-0.1351
-0.134657
-0.134264
-0.138458
-0.132897
-0.131653
-0.130568
-0.130452
-0.130549
-0.130727
-0.130854
-0.130934
-0.131017
-0.131195
-0.131535
-0.13135
-0.131139
-0.131018
-0.130965
-0.130941
-0.130915
-0.130856
-0.130728
-0.129796
-0.131427
-0.131973
-0.132382
-0.132776
-0.132981
-0.132392
-0.129859
-0.127384
-0.119859
0
0
-0.0228351
-0.0529205
-0.0752035
-0.0928474
-0.107256
-0.119248
-0.12923
-0.137419
-0.142801
-0.145942
-0.14737
-0.147588
-0.147091
-0.14626
-0.145324
-0.144404
-0.143612
-0.1428
-0.141964
-0.141091
-0.140171
-0.139769
-0.138006
-0.137266
-0.13662
-0.136241
-0.13583
-0.135331
-0.13485
-0.134397
-0.134022
-0.133239
-0.132506
-0.131939
-0.131604
-0.131408
-0.131286
-0.131194
-0.131119
-0.131079
-0.131166
-0.13168
-0.131173
-0.130941
-0.130866
-0.13085
-0.13085
-0.130844
-0.130813
-0.130725
-0.130583
-0.131249
-0.131773
-0.132209
-0.132604
-0.13286
-0.13259
-0.130951
-0.127509
-0.119751
0
0
-0.0228521
-0.0529685
-0.0752602
-0.0928773
-0.107238
-0.119155
-0.129072
-0.137732
-0.142565
-0.14554
-0.146982
-0.147268
-0.146829
-0.146023
-0.145068
-0.144046
-0.143354
-0.142736
-0.142008
-0.141162
-0.140207
-0.139297
-0.13835
-0.137488
-0.136619
-0.136506
-0.136141
-0.135631
-0.135091
-0.134561
-0.134039
-0.133472
-0.132939
-0.132493
-0.132134
-0.131847
-0.13161
-0.131404
-0.131209
-0.130986
-0.130593
-0.129691
-0.130173
-0.130492
-0.130648
-0.130721
-0.13076
-0.130791
-0.130822
-0.13087
-0.130988
-0.131313
-0.131696
-0.132105
-0.132541
-0.13297
-0.134851
-0.131667
-0.127798
-0.119779
0
0
-0.022894
-0.0530861
-0.0753976
-0.092947
-0.107228
-0.118981
-0.128335
-0.134439
-0.140369
-0.144271
-0.146263
-0.14685
-0.146566
-0.145836
-0.144944
-0.143573
-0.143287
-0.142968
-0.142296
-0.141402
-0.140311
-0.139431
-0.138592
-0.137672
-0.136479
-0.137025
-0.136547
-0.135913
-0.135297
-0.134721
-0.134178
-0.133665
-0.133199
-0.132787
-0.132425
-0.132101
-0.131808
-0.131535
-0.131269
-0.130987
-0.130645
-0.130255
-0.130325
-0.130476
-0.130584
-0.130644
-0.130683
-0.130726
-0.130793
-0.130898
-0.131066
-0.131314
-0.131632
-0.132018
-0.132474
-0.132929
-0.133048
-0.131818
-0.12793
-0.119819
0
0
-0.0229988
-0.0534011
-0.0757264
-0.0931049
-0.107311
-0.119003
-0.128383
-0.135385
-0.140823
-0.144432
-0.146309
-0.146854
-0.146555
-0.145852
-0.150056
-0.142743
-0.143631
-0.143631
-0.142839
-0.141824
-0.14052
-0.139797
-0.139006
-0.138177
-0.137382
-0.1371
-0.13659
-0.135984
-0.135379
-0.134811
-0.134286
-0.133807
-0.133376
-0.132989
-0.132629
-0.132283
-0.131948
-0.131623
-0.131306
-0.130999
-0.130729
-0.13056
-0.130543
-0.130575
-0.130596
-0.130601
-0.130606
-0.130636
-0.130708
-0.130829
-0.131003
-0.131235
-0.131531
-0.131905
-0.132373
-0.132847
-0.132919
-0.131784
-0.127981
-0.119846
0
0
-0.0232537
-0.0543963
-0.0763161
-0.0935388
-0.107594
-0.119199
-0.128619
-0.135945
-0.141328
-0.144792
-0.14655
-0.147011
-0.146627
-0.145722
-0.144284
-0.140629
-0.144739
-0.144456
-0.143378
-0.142372
-0.141817
-0.140652
-0.13959
-0.138698
-0.138072
-0.13737
-0.136661
-0.135999
-0.135396
-0.134849
-0.134354
-0.133911
-0.133521
-0.133173
-0.13282
-0.132448
-0.132066
-0.131682
-0.1313
-0.130935
-0.130665
-0.130613
-0.130644
-0.130649
-0.130607
-0.130546
-0.130497
-0.130496
-0.13056
-0.130683
-0.130863
-0.131097
-0.131385
-0.131749
-0.13224
-0.132784
-0.132851
-0.131697
-0.128005
-0.119872
0
0
-0.0237215
-0.0742873
-0.0776843
-0.0941145
-0.107878
-0.119351
-0.128737
-0.136094
-0.141498
-0.144952
-0.146694
-0.147142
-0.146745
-0.145836
-0.14462
-0.143036
-0.143775
-0.14364
-0.142977
-0.142168
-0.141423
-0.14052
-0.139612
-0.138815
-0.138387
-0.137411
-0.13661
-0.135949
-0.135378
-0.134867
-0.134409
-0.134007
-0.133674
-0.133396
-0.133045
-0.132624
-0.132175
-0.131715
-0.13124
-0.130741
-0.130397
-0.130551
-0.13071
-0.130706
-0.130581
-0.130419
-0.130284
-0.130235
-0.130291
-0.130427
-0.130635
-0.130898
-0.131196
-0.131547
-0.132083
-0.132767
-0.132861
-0.131746
-0.127918
-0.119894
0
0
-0.0233198
-0.0545863
-0.076463
-0.0936421
-0.107613
-0.119179
-0.128558
-0.135772
-0.141331
-0.14489
-0.146706
-0.147214
-0.14687
-0.146027
-0.145225
-0.144341
-0.14388
-0.14334
-0.142655
-0.141898
-0.141123
-0.140321
-0.13949
-0.138566
-0.13726
-0.13679
-0.136335
-0.135852
-0.135367
-0.134901
-0.134476
-0.134113
-0.133857
-0.133716
-0.133324
-0.132804
-0.132264
-0.131725
-0.131166
-0.130385
-0.129824
-0.130523
-0.130859
-0.130752
-0.130423
-0.130052
-0.129771
-0.129657