# vtk DataFile Version 2.0
FlowField
ASCII
DATASET STRUCTURED_GRID
DIMENSIONS 62 47 32 
POINTS 93248 double
0 0 0
0.01 0 0
0.02 0 0
0.03 0 0
0.04 0 0
0.05 0 0
0.06 0 0
0.07 0 0
0.08 0 0
0.09 0 0
0.1 0 0
0.11 0 0
0.12 0 0
0.13 0 0
0.14 0 0
0.15 0 0
0.16 0 0
0.17 0 0
0.18 0 0
0.19 0 0
0.2 0 0
0.21 0 0
0.22 0 0
0.23 0 0
0.24 0 0
0.25 0 0
0.26 0 0
0.27 0 0
0.28 0 0
0.29 0 0
0.3 0 0
0.31 0 0
0.32 0 0
0.33 0 0
0.34 0 0
0.35 0 0
0.36 0 0
0.37 0 0
0.38 0 0
0.39 0 0
0.4 0 0
0.41 0 0
0.42 0 0
0.43 0 0
0.44 0 0
0.45 0 0
0.46 0 0
0.47 0 0
0.48 0 0
0.49 0 0
0.5 0 0
0.51 0 0
0.52 0 0
0.53 0 0
0.54 0 0
0.55 0 0
0.56 0 0
0.57 0 0
0.58 0 0
0.59 0 0
0.6 0 0
0.61 0 0
0 0.01 0
0.01 0.01 0
0.02 0.01 0
0.03 0.01 0
0.04 0.01 0
0.05 0.01 0
0.06 0.01 0
0.07 0.01 0
0.08 0.01 0
0.09 0.01 0
0.1 0.01 0
0.11 0.01 0
0.12 0.01 0
0.13 0.01 0
0.14 0.01 0
0.15 0.01 0
0.16 0.01 0
0.17 0.01 0
0.18 0.01 0
0.19 0.01 0
0.2 0.01 0
0.21 0.01 0
0.22 0.01 0
0.23 0.01 0
0.24 0.01 0
0.25 0.01 0
0.26 0.01 0
0.27 0.01 0
0.28 0.01 0
0.29 0.01 0
0.3 0.01 0
0.31 0.01 0
0.32 0.01 0
0.33 0.01 0
0.34 0.01 0
0.35 0.01 0
0.36 0.01 0
0.37 0.01 0
0.38 0.01 0
0.39 0.01 0
0.4 0.01 0
0.41 0.01 0
0.42 0.01 0
0.43 0.01 0
0.44 0.01 0
0.45 0.01 0
0.46 0.01 0
0.47 0.01 0
0.48 0.01 0
0.49 0.01 0
0.5 0.01 0
0.51 0.01 0
0.52 0.01 0
0.53 0.01 0
0.54 0.01 0
0.55 0.01 0
0.56 0.01 0
0.57 0.01 0
0.58 0.01 0
0.59 0.01 0
0.6 0.01 0
0.61 0.01 0
0 0.02 0
0.01 0.02 0
0.02 0.02 0
0.03 0.02 0
0.04 0.02 0
0.05 0.02 0
0.06 0.02 0
0.07 0.02 0
0.08 0.02 0
0.09 0.02 0
0.1 0.02 0
0.11 0.02 0
0.12 0.02 0
0.13 0.02 0
0.14 0.02 0
0.15 0.02 0
0.16 0.02 0
0.17 0.02 0
0.18 0.02 0
0.19 0.02 0
0.2 0.02 0
0.21 0.02 0
0.22 0.02 0
0.23 0.02 0
0.24 0.02 0
0.25 0.02 0
0.26 0.02 0
0.27 0.02 0
0.28 0.02 0
0.29 0.02 0
0.3 0.02 0
0.31 0.02 0
0.32 0.02 0
0.33 0.02 0
0.34 0.02 0
0.35 0.02 0
0.36 0.02 0
0.37 0.02 0
0.38 0.02 0
0.39 0.02 0
0.4 0.02 0
0.41 0.02 0
0.42 0.02 0
0.43 0.02 0
0.44 0.02 0
0.45 0.02 0
0.46 0.02 0
0.47 0.02 0
0.48 0.02 0
0.49 0.02 0
0.5 0.02 0
0.51 0.02 0
0.52 0.02 0
0.53 0.02 0
0.54 0.02 0
0.55 0.02 0
0.56 0.02 0
0.57 0.02 0
0.58 0.02 0
0.59 0.02 0
0.6 0.02 0
0.61 0.02 0
0 0.03 0
0.01 0.03 0
0.02 0.03 0
0.03 0.03 0
0.04 0.03 0
0.05 0.03 0
0.06 0.03 0
0.07 0.03 0
0.08 0.03 0
0.09 0.03 0
0.1 0.03 0
0.11 0.03 0
0.12 0.03 0
0.13 0.03 0
0.14 0.03 0
0.15 0.03 0
0.16 0.03 0
0.17 0.03 0
0.18 0.03 0
0.19 0.03 0
0.2 0.03 0
0.21 0.03 0
0.22 0.03 0
0.23 0.03 0
0.24 0.03 0
0.25 0.03 0
0.26 0.03 0
0.27 0.03 0
0.28 0.03 0
0.29 0.03 0
0.3 0.03 0
0.31 0.03 0
0.32 0.03 0
0.33 0.03 0
0.34 0.03 0
0.35 0.03 0
0.36 0.03 0
0.37 0.03 0
0.38 0.03 0
0.39 0.03 0
0.4 0.03 0
0.41 0.03 0
0.42 0.03 0
0.43 0.03 0
0.44 0.03 0
0.45 0.03 0
0.46 0.03 0
0.47 0.03 0
0.48 0.03 0
0.49 0.03 0
0.5 0.03 0
0.51 0.03 0
0.52 0.03 0
0.53 0.03 0
0.54 0.03 0
0.55 0.03 0
0.56 0.03 0
0.57 0.03 0
0.58 0.03 0
0.59 0.03 0
0.6 0.03 0
0.61 0.03 0
0 0.04 0
0.01 0.04 0
0.02 0.04 0
0.03 0.04 0
0.04 0.04 0
0.05 0.04 0
0.06 0.04 0
0.07 0.04 0
0.08 0.04 0
0.09 0.04 0
0.1 0.04 0
0.11 0.04 0
0.12 0.04 0
0.13 0.04 0
0.14 0.04 0
0.15 0.04 0
0.16 0.04 0
0.17 0.04 0
0.18 0.04 0
0.19 0.04 0
0.2 0.04 0
0.21 0.04 0
0.22 0.04 0
0.23 0.04 0
0.24 0.04 0
0.25 0.04 0
0.26 0.04 0
0.27 0.04 0
0.28 0.04 0
0.29 0.04 0
0.3 0.04 0
0.31 0.04 0
0.32 0.04 0
0.33 0.04 0
0.34 0.04 0
0.35 0.04 0
0.36 0.04 0
0.37 0.04 0
0.38 0.04 0
0.39 0.04 0
0.4 0.04 0
0.41 0.04 0
0.42 0.04 0
0.43 0.04 0
0.44 0.04 0
0.45 0.04 0
0.46 0.04 0
0.47 0.04 0
0.48 0.04 0
0.49 0.04 0
0.5 0.04 0
0.51 0.04 0
0.52 0.04 0
0.53 0.04 0
0.54 0.04 0
0.55 0.04 0
0.56 0.04 0
0.57 0.04 0
0.58 0.04 0
0.59 0.04 0
0.6 0.04 0
0.61 0.04 0
0 0.05 0
0.01 0.05 0
0.02 0.05 0
0.03 0.05 0
0.04 0.05 0
0.05 0.05 0
0.06 0.05 0
0.07 0.05 0
0.08 0.05 0
0.09 0.05 0
0.1 0.05 0
0.11 0.05 0
0.12 0.05 0
0.13 0.05 0
0.14 0.05 0
0.15 0.05 0
0.16 0.05 0
0.17 0.05 0
0.18 0.05 0
0.19 0.05 0
0.2 0.05 0
0.21 0.05 0
0.22 0.05 0
0.23 0.05 0
0.24 0.05 0
0.25 0.05 0
0.26 0.05 0
0.27 0.05 0
0.28 0.05 0
0.29 0.05 0
0.3 0.05 0
0.31 0.05 0
0.32 0.05 0
0.33 0.05 0
0.34 0.05 0
0.35 0.05 0
0.36 0.05 0
0.37 0.05 0
0.38 0.05 0
0.39 0.05 0
0.4 0.05 0
0.41 0.05 0
0.42 0.05 0
0.43 0.05 0
0.44 0.05 0
0.45 0.05 0
0.46 0.05 0
0.47 0.05 0
0.48 0.05 0
0.49 0.05 0
0.5 0.05 0
0.51 0.05 0
0.52 0.05 0
0.53 0.05 0
0.54 0.05 0
0.55 0.05 0
0.56 0.05 0
0.57 0.05 0
0.58 0.05 0
0.59 0.05 0
0.6 0.05 0
0.61 0.05 0
0 0.06 0
0.01 0.06 0
0.02 0.06 0
0.03 0.06 0
0.04 0.06 0
0.05 0.06 0
0.06 0.06 0
0.07 0.06 0
0.08 0.06 0
0.09 0.06 0
0.1 0.06 0
0.11 0.06 0
0.12 0.06 0
0.13 0.06 0
0.14 0.06 0
0.15 0.06 0
0.16 0.06 0
0.17 0.06 0
0.18 0.06 0
0.19 0.06 0
0.2 0.06 0
0.21 0.06 0
0.22 0.06 0
0.23 0.06 0
0.24 0.06 0
0.25 0.06 0
0.26 0.06 0
0.27 0.06 0
0.28 0.06 0
0.29 0.06 0
0.3 0.06 0
0.31 0.06 0
0.32 0.06 0
0.33 0.06 0
0.34 0.06 0
0.35 0.06 0
0.36 0.06 0
0.37 0.06 0
0.38 0.06 0
0.39 0.06 0
0.4 0.06 0
0.41 0.06 0
0.42 0.06 0
0.43 0.06 0
0.44 0.06 0
0.45 0.06 0
0.46 0.06 0
0.47 0.06 0
0.48 0.06 0
0.49 0.06 0
0.5 0.06 0
0.51 0.06 0
0.52 0.06 0
0.53 0.06 0
0.54 0.06 0
0.55 0.06 0
0.56 0.06 0
0.57 0.06 0
0.58 0.06 0
0.59 0.06 0
0.6 0.06 0
0.61 0.06 0
0 0.07 0
0.01 0.07 0
0.02 0.07 0
0.03 0.07 0
0.04 0.07 0
0.05 0.07 0
0.06 0.07 0
0.07 0.07 0
0.08 0.07 0
0.09 0.07 0
0.1 0.07 0
0.11 0.07 0
0.12 0.07 0
0.13 0.07 0
0.14 0.07 0
0.15 0.07 0
0.16 0.07 0
0.17 0.07 0
0.18 0.07 0
0.19 0.07 0
0.2 0.07 0
0.21 0.07 0
0.22 0.07 0
0.23 0.07 0
0.24 0.07 0
0.25 0.07 0
0.26 0.07 0
0.27 0.07 0
0.28 0.07 0
0.29 0.07 0
0.3 0.07 0
0.31 0.07 0
0.32 0.07 0
0.33 0.07 0
0.34 0.07 0
0.35 0.07 0
0.36 0.07 0
0.37 0.07 0
0.38 0.07 0
0.39 0.07 0
0.4 0.07 0
0.41 0.07 0
0.42 0.07 0
0.43 0.07 0
0.44 0.07 0
0.45 0.07 0
0.46 0.07 0
0.47 0.07 0
0.48 0.07 0
0.49 0.07 0
0.5 0.07 0
0.51 0.07 0
0.52 0.07 0
0.53 0.07 0
0.54 0.07 0
0.55 0.07 0
0.56 0.07 0
0.57 0.07 0
0.58 0.07 0
0.59 0.07 0
0.6 0.07 0
0.61 0.07 0
0 0.08 0
0.01 0.08 0
0.02 0.08 0
0.03 0.08 0
0.04 0.08 0
0.05 0.08 0
0.06 0.08 0
0.07 0.08 0
0.08 0.08 0
0.09 0.08 0
0.1 0.08 0
0.11 0.08 0
0.12 0.08 0
0.13 0.08 0
0.14 0.08 0
0.15 0.08 0
0.16 0.08 0
0.17 0.08 0
0.18 0.08 0
0.19 0.08 0
0.2 0.08 0
0.21 0.08 0
0.22 0.08 0
0.23 0.08 0
0.24 0.08 0
0.25 0.08 0
0.26 0.08 0
0.27 0.08 0
0.28 0.08 0
0.29 0.08 0
0.3 0.08 0
0.31 0.08 0
0.32 0.08 0
0.33 0.08 0
0.34 0.08 0
0.35 0.08 0
0.36 0.08 0
0.37 0.08 0
0.38 0.08 0
0.39 0.08 0
0.4 0.08 0
0.41 0.08 0
0.42 0.08 0
0.43 0.08 0
0.44 0.08 0
0.45 0.08 0
0.46 0.08 0
0.47 0.08 0
0.48 0.08 0
0.49 0.08 0
0.5 0.08 0
0.51 0.08 0
0.52 0.08 0
0.53 0.08 0
0.54 0.08 0
0.55 0.08 0
0.56 0.08 0
0.57 0.08 0
0.58 0.08 0
0.59 0.08 0
0.6 0.08 0
0.61 0.08 0
0 0.09 0
0.01 0.09 0
0.02 0.09 0
0.03 0.09 0
0.04 0.09 0
0.05 0.09 0
0.06 0.09 0
0.07 0.09 0
0.08 0.09 0
0.09 0.09 0
0.1 0.09 0
0.11 0.09 0
0.12 0.09 0
0.13 0.09 0
0.14 0.09 0
0.15 0.09 0
0.16 0.09 0
0.17 0.09 0
0.18 0.09 0
0.19 0.09 0
0.2 0.09 0
0.21 0.09 0
0.22 0.09 0
0.23 0.09 0
0.24 0.09 0
0.25 0.09 0
0.26 0.09 0
0.27 0.09 0
0.28 0.09 0
0.29 0.09 0
0.3 0.09 0
0.31 0.09 0
0.32 0.09 0
0.33 0.09 0
0.34 0.09 0
0.35 0.09 0
0.36 0.09 0
0.37 0.09 0
0.38 0.09 0
0.39 0.09 0
0.4 0.09 0
0.41 0.09 0
0.42 0.09 0
0.43 0.09 0
0.44 0.09 0
0.45 0.09 0
0.46 0.09 0
0.47 0.09 0
0.48 0.09 0
0.49 0.09 0
0.5 0.09 0
0.51 0.09 0
0.52 0.09 0
0.53 0.09 0
0.54 0.09 0
0.55 0.09 0
0.56 0.09 0
0.57 0.09 0
0.58 0.09 0
0.59 0.09 0
0.6 0.09 0
0.61 0.09 0
0 0.1 0
0.01 0.1 0
0.02 0.1 0
0.03 0.1 0
0.04 0.1 0
0.05 0.1 0
0.06 0.1 0
0.07 0.1 0
0.08 0.1 0
0.09 0.1 0
0.1 0.1 0
0.11 0.1 0
0.12 0.1 0
0.13 0.1 0
0.14 0.1 0
0.15 0.1 0
0.16 0.1 0
0.17 0.1 0
0.18 0.1 0
0.19 0.1 0
0.2 0.1 0
0.21 0.1 0
0.22 0.1 0
0.23 0.1 0
0.24 0.1 0
0.25 0.1 0
0.26 0.1 0
0.27 0.1 0
0.28 0.1 0
0.29 0.1 0
0.3 0.1 0
0.31 0.1 0
0.32 0.1 0
0.33 0.1 0
0.34 0.1 0
0.35 0.1 0
0.36 0.1 0
0.37 0.1 0
0.38 0.1 0
0.39 0.1 0
0.4 0.1 0
0.41 0.1 0
0.42 0.1 0
0.43 0.1 0
0.44 0.1 0
0.45 0.1 0
0.46 0.1 0
0.47 0.1 0
0.48 0.1 0
0.49 0.1 0
0.5 0.1 0
0.51 0.1 0
0.52 0.1 0
0.53 0.1 0
0.54 0.1 0
0.55 0.1 0
0.56 0.1 0
0.57 0.1 0
0.58 0.1 0
0.59 0.1 0
0.6 0.1 0
0.61 0.1 0
0 0.11 0
0.01 0.11 0
0.02 0.11 0
0.03 0.11 0
0.04 0.11 0
0.05 0.11 0
0.06 0.11 0
0.07 0.11 0
0.08 0.11 0
0.09 0.11 0
0.1 0.11 0
0.11 0.11 0
0.12 0.11 0
0.13 0.11 0
0.14 0.11 0
0.15 0.11 0
0.16 0.11 0
0.17 0.11 0
0.18 0.11 0
0.19 0.11 0
0.2 0.11 0
0.21 0.11 0
0.22 0.11 0
0.23 0.11 0
0.24 0.11 0
0.25 0.11 0
0.26 0.11 0
0.27 0.11 0
0.28 0.11 0
0.29 0.11 0
0.3 0.11 0
0.31 0.11 0
0.32 0.11 0
0.33 0.11 0
0.34 0.11 0
0.35 0.11 0
0.36 0.11 0
0.37 0.11 0
0.38 0.11 0
0.39 0.11 0
0.4 0.11 0
0.41 0.11 0
0.42 0.11 0
0.43 0.11 0
0.44 0.11 0
0.45 0.11 0
0.46 0.11 0
0.47 0.11 0
0.48 0.11 0
0.49 0.11 0
0.5 0.11 0
0.51 0.11 0
0.52 0.11 0
0.53 0.11 0
0.54 0.11 0
0.55 0.11 0
0.56 0.11 0
0.57 0.11 0
0.58 0.11 0
0.59 0.11 0
0.6 0.11 0
0.61 0.11 0
0 0.12 0
0.01 0.12 0
0.02 0.12 0
0.03 0.12 0
0.04 0.12 0
0.05 0.12 0
0.06 0.12 0
0.07 0.12 0
0.08 0.12 0
0.09 0.12 0
0.1 0.12 0
0.11 0.12 0
0.12 0.12 0
0.13 0.12 0
0.14 0.12 0
0.15 0.12 0
0.16 0.12 0
0.17 0.12 0
0.18 0.12 0
0.19 0.12 0
0.2 0.12 0
0.21 0.12 0
0.22 0.12 0
0.23 0.12 0
0.24 0.12 0
0.25 0.12 0
0.26 0.12 0
0.27 0.12 0
0.28 0.12 0
0.29 0.12 0
0.3 0.12 0
0.31 0.12 0
0.32 0.12 0
0.33 0.12 0
0.34 0.12 0
0.35 0.12 0
0.36 0.12 0
0.37 0.12 0
0.38 0.12 0
0.39 0.12 0
0.4 0.12 0
0.41 0.12 0
0.42 0.12 0
0.43 0.12 0
0.44 0.12 0
0.45 0.12 0
0.46 0.12 0
0.47 0.12 0
0.48 0.12 0
0.49 0.12 0
0.5 0.12 0
0.51 0.12 0
0.52 0.12 0
0.53 0.12 0
0.54 0.12 0
0.55 0.12 0
0.56 0.12 0
0.57 0.12 0
0.58 0.12 0
0.59 0.12 0
0.6 0.12 0
0.61 0.12 0
0 0.13 0
0.01 0.13 0
0.02 0.13 0
0.03 0.13 0
0.04 0.13 0
0.05 0.13 0
0.06 0.13 0
0.07 0.13 0
0.08 0.13 0
0.09 0.13 0
0.1 0.13 0
0.11 0.13 0
0.12 0.13 0
0.13 0.13 0
0.14 0.13 0
0.15 0.13 0
0.16 0.13 0
0.17 0.13 0
0.18 0.13 0
0.19 0.13 0
0.2 0.13 0
0.21 0.13 0
0.22 0.13 0
0.23 0.13 0
0.24 0.13 0
0.25 0.13 0
0.26 0.13 0
0.27 0.13 0
0.28 0.13 0
0.29 0.13 0
0.3 0.13 0
0.31 0.13 0
0.32 0.13 0
0.33 0.13 0
0.34 0.13 0
0.35 0.13 0
0.36 0.13 0
0.37 0.13 0
0.38 0.13 0
0.39 0.13 0
0.4 0.13 0
0.41 0.13 0
0.42 0.13 0
0.43 0.13 0
0.44 0.13 0
0.45 0.13 0
0.46 0.13 0
0.47 0.13 0
0.48 0.13 0
[...]
POINT_DATA 93248

SCALARS w double
LOOKUP_TABLE default
0
0
0
0
0
0
0
0
0
0
0
0
0
-0.0370023
0
0
0
0
0
0
0
0
0
0
0
0
-0.060755
0
0
0
0
0
-0.0570775
0
0
0
0
0
0
0
0
0
0
0
0
0
-0.0540668
0
0
0
0
0
0
0
0
0
0
0
0
0
0
0
0
-0.0124309
-0.022374
-0.0290619
-0.0319761
-0.0324451
-0.0321183
-0.0321418
-0.0324942
-0.0330638
-0.0335808
-0.0339425
-0.0340214
-0.0343045
-0.0346207
-0.0349276
-0.035156
-0.0354318
-0.0357425
-0.0359803
-0.0339829
-0.0337511
-0.0341672
-0.0344355
-0.0345784
-0.0346307
-0.0346327
-0.0346091
-0.0345702
-0.0345164
-0.0344375
-0.0343045
-0.0340773
-0.0340189
-0.033902
-0.0334233
-0.0326372
-0.0321352
-0.0331207
-0.0405217
-0.0334123
-0.0346606
-0.0354383
-0.0357184
-0.0362812
-0.0571057
-0.0347948
-0.0345221
-0.0345298
-0.0349416
-0.0354128
-0.0359852
-0.0339501
-0.0352042
-0.057044
-0.0358474
-0.0351277
-0.0336067
-0.0340857
-0.0340499
-0.03229
0
0
-0.0150303
-0.0338779
-0.0427714
-0.0474116
-0.0489581
-0.0496577
-0.0498222
-0.0507394
-0.0522423
-0.0537705
-0.0549662
-0.0554047
-0.0561609
-0.056752
-0.0572616
-0.0575942
-0.0581125
-0.0587352
-0.0601991
-0.0555983
-0.0557456
-0.0603144
-0.056866
-0.0570165
-0.0570932
-0.0571061
-0.0570808
-0.0570325
-0.0569654
-0.0568718
-0.0567093
-0.0563248
-0.0562903
-0.0562741
-0.0555009
-0.0545561
-0.0525035
-0.050256
-0.0623902
-0.0605287
-0.0596911
-0.0591697
-0.0587562
-0.0589861
-0.059623
-0.0586966
-0.0575676
-0.0572494
-0.0575633
-0.0577129
-0.0573001
-0.0570244
-0.0576691
-0.0587165
-0.0583692
-0.0581314
-0.0566458
-0.0566039
-0.0558622
-0.0523792
0
0
-0.0148929
-0.0334734
-0.0437932
-0.0497156
-0.0324451
-0.0521844
-0.0527504
-0.0535541
-0.0551887
-0.0570612
-0.0587734
-0.0604318
-0.0609301
-0.0611664
-0.0612702
-0.0616211
-0.0623562
-0.0625818
-0.0630566
-0.0623345
-0.0616011
-0.0614335
-0.0613917
-0.0614078
-0.0614154
-0.0613992
-0.0613631
-0.0613129
-0.0612529
-0.0611921
-0.0611693
-0.0612814
-0.0596402
-0.0610744
-0.0597249
-0.0591272
-0.058117
-0.0576207
-0.0624986
-0.0637019
-0.0636986
-0.0634597
-0.0626565
-0.0628533
-0.06343
-0.0619081
-0.0614046
-0.0610136
-0.06193
-0.0618359
-0.0616582
-0.061497
-0.0617153
-0.0620685
-0.0621296
-0.0621837
-0.0620802
-0.0613816
-0.0601317
-0.0560053
0
0
-0.0145314
-0.0324586
-0.0316372
-0.0491937
-0.0520739
-0.0531052
-0.053158
-0.053703
-0.0551363
-0.0568939
-0.058491
-0.0597622
-0.0604148
-0.0607106
-0.0607641
-0.0608683
-0.0606205
-0.0610758
-0.0615264
-0.0615017
-0.0613336
-0.0612157
-0.0611457
-0.061103
-0.0610656
-0.0610239
-0.0609759
-0.0609222
-0.060864
-0.0608049
-0.0607547
-0.0607128
-0.0604725
-0.0604108
-0.0598843
-0.0595101
-0.0591587
-0.0588122
-0.0608969
-0.0618948
-0.0621894
-0.0621327
-0.0618498
-0.0618762
-0.0620471
-0.061648
-0.0611554
-0.0608778
-0.0611253
-0.0611288
-0.0610732
-0.0610468
-0.0611366
-0.0612713
-0.0613526
-0.0614109
-0.0613894
-0.0609658
-0.0597232
-0.0555335
0
0
-0.0143294
-0.0320449
-0.0427827
-0.0492961
-0.0522331
-0.0529824
-0.0529719
-0.053481
-0.0548156
-0.0564362
-0.0578382
-0.0588434
-0.0594265
-0.0596819
-0.0587201
-0.0597176
-0.0598538
-0.0600636
-0.0603097
-0.0603884
-0.0603672
-0.0603144
-0.0602585
-0.0602054
-0.0601535
-0.0601006
-0.0600461
-0.0599904
-0.0599325
-0.0598691
-0.0597871
-0.0596402
-0.0593268
-0.0593029
-0.0591992
-0.0590917
-0.0590328
-0.059185
-0.0597647
-0.0602523
-0.060482
-0.0605193
-0.0604566
-0.0604589
-0.0605704
-0.0608693
-0.0602337
-0.0599681
-0.0599682
-0.0599703
-0.0599688
-0.0599985
-0.0600806
-0.0601677
-0.0602234
-0.0602431
-0.0601788
-0.0598027
-0.0585678
-0.0545553
0
0
-0.0142108
-0.0317711
-0.0427192
-0.0490512
-0.0519509
-0.0527192
-0.052663
-0.0531262
-0.0544814
-0.0560401
-0.0573399
-0.0582224
-0.0587355
-0.0589697
-0.0589583
-0.0589685
-0.0592784
-0.0581008
-0.0596455
-0.0597132
-0.0596839
-0.0596279
-0.059569
-0.0595112
-0.0594541
-0.0593959
-0.0593382
-0.0592829
-0.0592297
-0.0591729
-0.0590913
-0.0589075
-0.0583674
-0.0585709
-0.0586747
-0.0586852
-0.0587064
-0.0588122
-0.0590337
-0.0592476
-0.0593793
-0.0594263
-0.0594025
-0.0593284
-0.0590907
-0.0584288
-0.0587583
-0.0589598
-0.059053
-0.0590809
-0.0590963
-0.0591602
-0.0593056
-0.0594167
-0.0594556
-0.0594238
-0.0592464
-0.0586075
-0.0569135
-0.0534057
0
0
-0.014136
-0.031586
-0.0425147
-0.0487894
-0.0516708
-0.0526185
-0.0522993
-0.0529807
-0.0542457
-0.0557466
-0.0569806
-0.0578061
-0.0582686
-0.0584645
-0.0583647
-0.0578934
-0.0588486
-0.05935
-0.0594671
-0.0593926
-0.059271
-0.0591725
-0.0590972
-0.059033
-0.0589725
-0.0589097
-0.0588492
-0.058797
-0.0587557
-0.0587251
-0.058706
-0.0587854
-0.0592416
-0.0588773
-0.0585916
-0.0584541
-0.0584172
-0.0584548
-0.0585421
-0.0586361
-0.0587062
-0.0587432
-0.0587151
-0.0586529
-0.0584917
-0.0582204
-0.0582996
-0.0584043
-0.0584452
-0.0584254
-0.0583944
-0.058477
-0.0588175
-0.0590192
-0.0590439
-0.0589558
-0.058632
-0.0572894
-0.0340499
-0.0525522
0
0
-0.0140839
-0.0314529
-0.0423335
-0.0485556
-0.0513628
-0.0521041
-0.0521217
-0.0527731
-0.0540926
-0.0555655
-0.0567613
-0.0575367
-0.0579553
-0.0581171
-0.0577724
-0.0559418
-0.0538411
-0.0594209
-0.0594206
-0.0591923
-0.05897
-0.0588426
-0.0587605
-0.0586922
-0.0586256
-0.0585597
-0.0584948
-0.0584474
-0.0584249
-0.0584274
-0.058411
-0.0584376
-0.0585684
-0.0584347
-0.0582752
-0.0581729
-0.0581395
-0.0581517
-0.058188
-0.0582304
-0.0582657
-0.0582851
-0.0582751
-0.0582397
-0.0581656
-0.0580702
-0.058058
-0.0580561
-0.058003
-0.057866
-0.0576754
-0.0576945
-0.0585869
-0.0589623
-0.0589416
-0.0588336
-0.0587495
-0.0584695
-0.0563346
-0.0527824
0
0
-0.0140456
-0.0313533
-0.042187
-0.0483573
-0.0511083
-0.0517696
-0.051908
-0.0526323
-0.053981
-0.0554464
-0.0566231
-0.0554047
-0.057868
-0.0580732
-0.0579955
-0.0575373
-0.0584279
-0.0589302
-0.0589826
-0.058848
-0.0586452
-0.0585772
-0.0585158
-0.0584394
-0.0583449
-0.0582759
-0.0582121
-0.0581701
-0.0581775
-0.0582517
-0.0582053
-0.0581522
-0.058116
-0.0580366
-0.0579533
-0.0578935
-0.057888
-0.0579011
-0.0579184
-0.057937
-0.0579544
-0.0579659
-0.0579658
-0.0579519
-0.057922
-0.0578824
-0.0578482
-0.0577894
-0.0576484
-0.057339
-0.0568035
-0.0552848
-0.0587426
-0.0592606
-0.0590457
-0.0587897
-0.0586477
-0.0583713
-0.056992
-0.0528709
0
0
-0.014017
-0.0312782
-0.0420699
-0.048178
-0.0508981
-0.051543
-0.0517334
-0.0525062
-0.05388
-0.0553403
-0.0564984
-0.0572659
-0.0577607
-0.058044
-0.0581921
-0.0581977
-0.0584535
-0.0586273
-0.0586453
-0.0585788
-0.0586272
-0.0585169
-0.0583894
-0.0582611
-0.0576
-0.0580253
-0.0579554
-0.0579063
-0.0579434
-0.0581759
-0.0580838
-0.0579657
-0.0578427
-0.0577523
-0.0576893
-0.0576382
-0.0576675
-0.057693
-0.0577009
-0.0577065
-0.0577146
-0.0577238
-0.0577312
-0.0577321
-0.0577236
-0.0577045
-0.0576694
-0.0575917
-0.0574066
-0.0569808
-0.0561455
-0.0552848
-0.0596897
-0.0596902
-0.0591274
-0.0587219
-0.0585156
-0.0582149
-0.0570063
-0.0528473
0
0
-0.0139968
-0.0312256
-0.041987
-0.0480125
-0.0507415
-0.0513968
-0.051609
-0.052407
-0.0537924
-0.0552486
-0.0563972
-0.0571716
-0.0576725
-0.0580225
-0.0583609
-0.0584383
-0.0584778
-0.058481
-0.0584286
-0.0583077
-0.0584151
-0.0583482
-0.0582329
-0.0581014
-0.0579518
-0.0578243
-0.0576948
-0.0575866
-0.0575503
-0.0577035
-0.0581384
-0.0577838
-0.0575717
-0.0574909
-0.057461
-0.0574406
-0.0574347
-0.0574985
-0.0575034
-0.0575032
-0.057509
-0.057519
-0.0575378
-0.0575532
-0.0575603
-0.0575559
-0.0575333
-0.0574744
-0.0573381
-0.057056
-0.0566377
-0.0565798
-0.0585122
-0.0589326
-0.0587273
-0.0584929
-0.0583551
-0.0580853
-0.0569296
-0.0527901
0
0
-0.0139842
-0.0311978
-0.041978
-0.0482001
-0.050847
-0.051408
-0.0515706
-0.0523501
-0.0537277
-0.0551718
-0.0563137
-0.0570851
-0.0575864
-0.0579652
-0.0585325
-0.0584723
-0.0583852
-0.0583247
-0.0582564
-0.0581871
-0.0581909
-0.0581467
-0.0580581
-0.0579349
-0.0577799
-0.0575966
-0.0573825
-0.0571534
-0.0569108
-0.0567599
-0.056203
-0.0566059
-0.0569315
-0.0571174
-0.0572109
-0.0572479
-0.0572599
-0.0572832
-0.0572899
-0.057297
-0.057308
-0.0573107
-0.05736
-0.0573984
-0.0574232
-0.0574354
-0.0574337
-0.0574131
-0.0573581
-0.0572347
-0.057111
-0.0572296
-0.0579364
-0.0582586
-0.0582758
-0.0582297
-0.0581962
-0.057974
-0.0568493
-0.0527282
0
0
-0.0139744
-0.0311734
-0.0419386
-0.048098
-0.0507542
-0.0513252
-0.0514958
-0.0522847
-0.0536667
-0.0550998
-0.0562429
-0.0570068
-0.0574714
-0.057685
-0.0574466
-0.0577154
-0.057928
-0.0580189
-0.0580091
-0.0580043
-0.0580106
-0.0579833
-0.0579086
-0.0577832
-0.0576
-0.0573413
-0.0569821
-0.0564998
-0.0557135
-0.0558383
-0.0559802
-0.0563477
-0.056679
-0.0569002
-0.0570205
-0.0570693
-0.0570799
-0.0570682
-0.0570612
-0.0570738
-0.0570889
-0.0562802
-0.0571744
-0.0572568
-0.0573044
-0.0573346
-0.0573552
-0.0573756
-0.0574014
-0.0573503
-0.0573343
-0.0574415
-0.0577165
-0.0578971
-0.0579782
-0.0580347
-0.0580865
-0.0578879
-0.05678
-0.052671
0
0
-0.0139681
-0.0311584
-0.0419131
-0.0485556
-0.0506977
-0.0512523
-0.0514274
-0.0522272
-0.053623
-0.0550938
-0.0562196
-0.0569646
-0.0574168
-0.0576468
-0.0576617
-0.0577773
-0.0578855
-0.0579109
-0.0577791
-0.0578161
-0.0578659
-0.0578648
-0.0577979
-0.0576617
-0.0574371
-0.0570701
-0.0564373
-0.0552094
-0.05154
-0.0535132
-0.0550231
-0.0559261
-0.0564453
-0.0567254
-0.0568553
-0.0568916
-0.0570716
-0.0568139
-0.0567697
-0.0568001
-0.0568707
-0.0569385
-0.0570487
-0.0571364
-0.0572003
-0.0572453
-0.0572799
-0.057325
-0.0574222
-0.0573676
-0.0573828
-0.0574833
-0.0576633
-0.0577414
-0.0578193
-0.0579221
-0.0586075
-0.0578366
-0.056726
-0.052622
0
0
-0.0139669
-0.0311606
-0.0418997
-0.0479945
-0.0506221
-0.0511872
-0.0513709
-0.0521814
-0.0535844
-0.0550471
-0.05618
-0.056929
-0.0573883
-0.0576524
-0.0577846
-0.0578827
-0.0579449
-0.0579121
-0.0575455
-0.05772
-0.0578312
-0.0578286
-0.0577466
-0.057589
-0.057326
-0.0568502
-0.0557934
-0.0523527
0.0369699
-0.048091
-0.0533301
-0.0553481
-0.0562028
-0.0565687
-0.0566998
-0.0566922
-0.0565915
-0.0564214
-0.0562668
-0.0563628
-0.0565539
-0.0567392
-0.0568969
-0.0570179
-0.0571057
-0.0571624
-0.0571915
-0.0571799
-0.0570956
-0.0571988
-0.0573156
-0.0574753
-0.0587426
-0.0576989
-0.057743
-0.0578232
-0.0579368
-0.0577746
-0.0566829
-0.0525815
0
0
-0.013972
-0.0311994
-0.041919
-0.0479684
-0.0505813
-0.0511394
-0.0513321
-0.0521551
-0.0535653
-0.0550269
-0.0561617
-0.0569108
-0.0573721
-0.0576513
-0.0578224
-0.0579379
-0.0580268
-0.0581506
-0.0585739
-0.0583508
-0.0581183
-0.0579383
-0.0577704
-0.0575781
-0.0573124
-0.0568866
-0.0561096
-0.0544939
-0.0507759
-0.0530949
-0.0548551
-0.0558302
-0.0563207
-0.0565337
-0.0565846
-0.0564835
-0.0562099
-0.0557169
-0.0549872
-0.0554202
-0.0559991
-0.0564305
-0.0567143
-0.0568995
-0.0570236
-0.0570944
-0.0571301
-0.0571294
-0.0570861
-0.0571013
-0.0572213
-0.0573681
-0.057532
-0.0576077
-0.0577671
-0.0577652
-0.0578986
-0.0577568
-0.0566596
-0.0525481
0
0
-0.0139668
-0.0312526
-0.0419035
-0.0478962
-0.0504969
-0.0510691
-0.0513017
-0.0521533
-0.0535744
-0.0550371
-0.0561728
-0.0569133
-0.0573618
-0.057636
-0.0578209
-0.0579517
-0.0580476
-0.0581406
-0.0582895
-0.0582198
-0.058077
-0.0579222
-0.0577627
-0.0575826
-0.0573538
-0.0570343
-0.0565659
-0.0558748
-0.0550679
-0.0554026
-0.0559042
-0.0562672
-0.0564594
-0.0565131
-0.0564968
-0.0562769
-0.0556815
-0.054189
-0.0502796
-0.0529575
-0.0549305
-0.0559765
-0.0565053
-0.056787
-0.0569568
-0.0570399
-0.057085
-0.0570898
-0.0570296
-0.0569113
-0.0570988
-0.0572754
-0.0574156
-0.0575989
-0.0613526
-0.0577335
-0.0579514
-0.0577865
-0.0566533
-0.0524981
0
0
-0.013882
-0.0308112
-0.0415117
-0.0475943
-0.0502865
-0.051543
-0.0513177
-0.0521909
-0.0536118
-0.0550714
-0.0562206
-0.0569375
-0.0573449
-0.0575889
-0.0577916
-0.0579495
-0.058053
-0.0581088
-0.0581375
-0.0580921
-0.0579985
-0.0578816
-0.0577487
-0.0575952
-0.0574092
-0.0571776
-0.0568976
-0.0564804
-0.0560819
-0.0561672
-0.056364
-0.0565032
-0.0565312
-0.0564515
-0.0564718
-0.0561583
-0.0551259
-0.0512107
0.0428814
-0.0475976
-0.0534555
-0.0555291
-0.0563422
-0.0566999
-0.0568704
-0.0569863
-0.0570548
-0.0570793
-0.0570072
-0.0567031
-0.057051
-0.0572441
-0.0573446
-0.0574264
-0.0575279
-0.0573974
-0.0580629
-0.0578207
-0.0566238
-0.0524638
0
0
-0.0138804
-0.0308785
-0.0415077
-0.0474873
-0.0502134
-0.0510787
-0.051384
-0.0522268
-0.0536246
-0.0550905
-0.0563215
-0.0569721
-0.057278
-0.0574441
-0.0577285
-0.0579584
-0.0580857
-0.0581095
-0.0580949
-0.0580422
-0.0579604
-0.0578602
-0.0577451
-0.0576122
-0.0574554
-0.0572682
-0.0570413
-0.0567828
-0.0562915
-0.0564799
-0.0566357
-0.0566703
-0.0565834
-0.0563404
-0.0565951
-0.0563052
-0.0555601
-0.0538323
-0.0497971
-0.0526237
-0.0548171
-0.0558972
-0.0564344
-0.0567165
-0.056874
-0.0569759
-0.0570547
-0.0571484
-0.0573419
-0.0577919
-0.0574974
-0.057356
-0.0573331
-0.0573627
-0.0574184
-0.0574994
-0.0578258
-0.0576922
-0.0565702
-0.0524258
0
0
-0.0138947
-0.0309424
-0.0415583
-0.0473929
-0.0502011
-0.0513567
-0.051484
-0.0522031
-0.0535654
-0.055036
-0.0564509
-0.0569046
-0.0570103
-0.0570282
-0.0576538
-0.0580347
-0.0581805
-0.0581248
-0.0580934
-0.0580377
-0.0579563
-0.0578598
-0.0577529
-0.0576314
-0.0574869
-0.0573014
-0.0570201
-0.0571267
-0.0575657
-0.0573022
-0.0570607
-0.0568944
-0.0567375
-0.0565702
-0.0565749
-0.0564081
-0.056035
-0.0554286
-0.0546927
-0.0551552
-0.0558113
-0.0562802
-0.0565865
-0.0567815
-0.056905
-0.0569758
-0.0570395
-0.0571294
-0.0572778
-0.0574816
-0.0574094
-0.0573155
-0.0572852
-0.0573218
-0.0574225
-0.0575498
-0.0577139
-0.0575926
-0.0565103
-0.0524152
0
0
-0.013909
-0.0309964
-0.0416965
-0.0479648
-0.0504358
-0.050433
-0.0507635
-0.0517789
-0.0533005
-0.0547335
-0.0554005
-0.0561196
-0.0562621
-0.0561673
-0.0577885
-0.0582442
-0.0583394
-0.0581184
-0.0581269
-0.0580795
-0.0579853
-0.0578806
-0.057774
-0.0576563
-0.057509
-0.0572608
-0.0520669
-0.0569348
-0.0572925
-0.0572543
-0.0571136
-0.0569599
-0.056806
-0.05666
-0.0565934
-0.0564946
-0.0563379
-0.0561434
-0.0560062
-0.0561154
-0.0563341
-0.0565515
-0.0567467
-0.0568732
-0.0569606
-0.0569726
-0.0570029
-0.057074
-0.0571821
-0.0573001
-0.0573166
-0.0572275
-0.0571909
-0.0572455
-0.057435
-0.0575808
-0.0576858
-0.0575502
-0.0564739
-0.0523914
0
0
-0.0139152
-0.0310132
-0.0417058
-0.0478242
-0.0503925
-0.0507581
-0.0509612
-0.0518864
-0.0534065
-0.0549069
-0.0557689
-0.0562429
-0.0559555
-0.0568256
-0.0577372
-0.0582097
-0.0584176
-0.0586496
-0.0584541
-0.0582335
-0.0580566
-0.0579209
-0.057812
-0.0576988
-0.0575676
-0.0573988
-0.0571292
-0.0572025
-0.0572513
-0.0572019
-0.0570929
-0.0569476
-0.0567638
-0.0565352
-0.0565097
-0.056484
-0.0564729
-0.0564501
-0.0564487
-0.0565061
-0.0566086
-0.0567412
-0.0575532
-0.0569882
-0.0570484
-0.0569496
-0.0569419
-0.0570065
-0.0571185
-0.0572655
-0.0573332
-0.0571275
-0.057048
-0.0570976
-0.057487
-0.0576381
-0.0577082
-0.0575576
-0.0564637
-0.0523738
0
0
-0.0139169
-0.0310151
-0.041694
-0.0477557
-0.0503746
-0.0509226
-0.051172
-0.0521143
-0.05374
-0.0556284
-0.0563689
-0.0568035
-0.0570437
-0.0580079
-0.0582821
-0.058364
-0.0583996
-0.0584251
-0.0583153
-0.0581669
-0.0580323
-0.0579302
-0.0578611
-0.057758
-0.0576351
-0.0575112
-0.0573992
-0.0573658
-0.0572861
-0.0571957
-0.0570765
-0.0568942
-0.0565591
-0.0557624
-0.0561088
-0.0562073
-0.0564339
-0.05656
-0.0566302
-0.0566906
-0.0567602
-0.0568444
-0.0569508
-0.057044
-0.0571479
-0.056885
-0.0568705
-0.0569351
-0.0570607
-0.0573097
-0.0574824
-0.0570287
-0.0569119
-0.0568723
-0.0576336
-0.0577101
-0.0577564
-0.0576229
-0.0564829
-0.0523633
0
0
-0.0139176
-0.0310149
-0.0416885
-0.047741
-0.0503885
-0.0510177
-0.0513824
-0.0523595
-0.0542915
-0.0629394
-0.0573123
-0.0573749
-0.0575579
-0.0579482
-0.0581428
-0.0582233
-0.0582639
-0.0582357
-0.0581632
-0.0580717
-0.0579861
-0.0579346
-0.057959
-0.0578367
-0.0576924
-0.0575749
-0.0575004
-0.0574857
-0.0573173
-0.0572109
-0.0570838
-0.056837
-0.0561028
-0.033902
-0.0550923
-0.051617
-0.0562189
-0.0565813
-0.0567186
-0.0567925
-0.0568542
-0.0569181
-0.0569737
-0.057025
-0.0570545
-0.0569328
-0.0568823
-0.0568807
-0.0569516
-0.057342
-0.0575457
-0.0571865
-0.0570509
-0.0570858
-0.0574423
-0.0576172
-0.0577749
-0.0577822
-0.0565273
-0.0523505
0
0
-0.0139188
-0.0310162
-0.0416883
-0.0477421
-0.0504095
-0.0511093
-0.0522847
-0.0525025
-0.0540652
-0.0560043
-0.0567217
-0.057176
-0.0575049
-0.0577822
-0.0579622
-0.0580697
-0.0594243
-0.0581475
-0.0580752
-0.058006
-0.0579406
-0.0579164
-0.0580761
-0.0578569
-0.0576728
-0.0575719
-0.057519
-0.0575066
-0.0573854
-0.0572766
-0.0571773
-0.056962
-0.0565789
-0.0557332
-0.0561446
-0.0562835
-0.0565603
-0.0567231
-0.0568098
-0.0568683
-0.0569289
-0.0569991
-0.0570138
-0.0570114
-0.0569984
-0.0569416
-0.0568871
-0.056818
-0.0567516
-0.0574238
-0.0577186
-0.0572286
-0.0571411
-0.0571847
-0.0573465
-0.0575067
-0.0577243
-0.0579644
-0.0565075
-0.0523028
0
0
-0.0139211
-0.03102
-0.0416905
-0.0477413
-0.0504015
-0.0510595
-0.0514456
-0.052366
-0.0538548
-0.0553664
-0.056366
-0.056991
-0.0573923
-0.0576632
-0.05784
-0.0579531
-0.0580404
-0.0580456
-0.0580158
-0.0579593
-0.0578779
-0.0577472
-0.057385
-0.0574099
-0.0574384
-0.0574755
-0.0574856
-0.0574249
-0.0573857
-0.0573379
-0.058411
-0.0571357
-0.0569132
-0.0566938
-0.0566967
-0.0567237
-0.0567879
-0.0568413
-0.0568809
-0.0569225
-0.0569962
-0.0571275
-0.0570744
-0.0570137
-0.0569738
-0.0569377
-0.056902
-0.0568589
-0.0568307
-0.0569526
-0.0566904
-0.0571114
-0.0571605
-0.0572003
-0.0572774
-0.0573369
-0.057253
-0.0566698
-0.0560568
-0.0521874
0
0
-0.0139254
-0.0310287
-0.0416976
-0.0477414
-0.0503896
-0.0510232
-0.0513482
-0.0524343
-0.053857
-0.0552544
-0.0562551
-0.0569015
-0.0573113
-0.057577
-0.0577499
-0.0578643
-0.057961
-0.058012
-0.0579998
-0.0579416
-0.0578545
-0.0580581
-0.0575631
-0.0574194
-0.0573418
-0.0574638
-0.0575437
-0.057532
-0.0574764
-0.0573984
-0.0573293
-0.0571958
-0.0570718
-0.056972
-0.056926
-0.0569076
-0.0569078
-0.0569136
-0.0569216
-0.056941
-0.0570137
-0.0572511
-0.0570802
-0.0569813
-0.0569421
-0.0569213
-0.0569055
-0.0568911
-0.0568872
-0.0569109
-0.0568646
-0.0570336
-0.0571152
-0.0571743
-0.0572412
-0.0573057
-0.0573088
-0.0570076
-0.0560987
-0.0521584
0
0
-0.0139344
-0.0310486
-0.0417179
-0.0477482
-0.050379
-0.0509902
-0.0513056
-0.052643
-0.053884
-0.0552138
-0.0561556
-0.0567975
-0.0572178
-0.0574869
-0.0576576
-0.0577582
-0.0579282
-0.0580508
-0.0580358
-0.0579499
-0.0578244
-0.0577167
-0.0575751
-0.0573803
-0.0571307
-0.0575384
-0.0577032
-0.0576888
-0.0575947
-0.0574753
-0.0573604
-0.0572505
-0.0571567
-0.057083
-0.0570312
-0.0569958
-0.0569715
-0.0569524
-0.0569331
-0.0569011
-0.056808
-0.0565304
-0.0567184
-0.0568343
-0.0568761
-0.0568863
-0.0568869
-0.0568883
-0.0568976
-0.0569184
-0.0569405
-0.0570132
-0.0570797
-0.0571444
-0.0572206
-0.0573231
-0.0580853
-0.0572082
-0.0561698
-0.0521615
0
0
-0.0139536
-0.0310951
-0.0417709
-0.0477696
-0.0503707
-0.0509261
-0.0510369
-0.0513432
-0.0530235
-0.0548625
-0.0558597
-0.0566171
-0.0571025
-0.0573921
-0.0575696
-0.0575438
-0.0579514
-0.0582382
-0.0581537
-0.0579949
-0.0577738
-0.0576677
-0.0575488
-0.0572915
-0.0566755
-0.0578444
-0.0579379
-0.0578328
-0.0576795
-0.0575282
-0.0573972
-0.0572909
-0.0572068
-0.0571405
-0.0570873
-0.0570435
-0.0570059
-0.0569715
-0.0569365
-0.056893
-0.0568229
-0.0567146
-0.0567634
-0.0568178
-0.0568429
-0.0568484
-0.056849
-0.056854
-0.0568686
-0.0568945
-0.0569311
-0.0569841
-0.057044
-0.0571113
-0.0571937
-0.057298
-0.0573968
-0.0572396
-0.0561952
-0.0521651
0
0
-0.0139964
-0.0312132
-0.0418989
-0.0478128
-0.050394
-0.0509345
-0.0510655
-0.0517131
-0.053174
-0.0547658
-0.0558913
-0.0566391
-0.0571003
-0.0573584
-0.0597176
-0.0569657
-0.05817
-0.0587333
-0.0583747
-0.0581152
-0.0577591
-0.0577001
-0.0576385
-0.0574956
-0.0573026
-0.0576492
-0.0577663
-0.0577294
-0.0576269
-0.0575081
-0.0573993
-0.0573091
-0.0572364
-0.057176
-0.0571222
-0.0570716
-0.0570231
-0.0569753
-0.0569275
-0.0568802
-0.0568377
-0.0568112
-0.0568192
-0.0568241
-0.0568145
-0.0567987
-0.0567877
-0.0567887
-0.0568049
-0.0568363
-0.0568807
-0.0569357
-0.056998
-0.0570694
-0.0571587
-0.0572705
-0.0573614
-0.0572275
-0.0562032
-0.052166
0
0
-0.0140911
-0.0316151
-0.0420962
-0.047965
-0.0504903
-0.0510074