# vtk DataFile Version 2.0
FlowField
ASCII
DATASET STRUCTURED_GRID
DIMENSIONS 62 47 32 
POINTS 93248 double
0 0 0
0.01 0 0
0.02 0 0
0.03 0 0
0.04 0 0
0.05 0 0
0.06 0 0
0.07 0 0
0.08 0 0
0.09 0 0
0.1 0 0
0.11 0 0
0.12 0 0
0.13 0 0
0.14 0 0
0.15 0 0
0.16 0 0
0.17 0 0
0.18 0 0
0.19 0 0
0.2 0 0
0.21 0 0
0.22 0 0
0.23 0 0
0.24 0 0
0.25 0 0
0.26 0 0
0.27 0 0
0.28 0 0
0.29 0 0
0.3 0 0
0.31 0 0
0.32 0 0
0.33 0 0
0.34 0 0
0.35 0 0
0.36 0 0
0.37 0 0
0.38 0 0
0.39 0 0
0.4 0 0
0.41 0 0
0.42 0 0
0.43 0 0
0.44 0 0
0.45 0 0
0.46 0 0
0.47 0 0
0.48 0 0
0.49 0 0
0.5 0 0
0.51 0 0
0.52 0 0
0.53 0 0
0.54 0 0
0.55 0 0
0.56 0 0
0.57 0 0
0.58 0 0
0.59 0 0
0.6 0 0
0.61 0 0
0 0.01 0
0.01 0.01 0
0.02 0.01 0
0.03 0.01 0
0.04 0.01 0
0.05 0.01 0
0.06 0.01 0
0.07 0.01 0
0.08 0.01 0
0.09 0.01 0
0.1 0.01 0
0.11 0.01 0
0.12 0.01 0
0.13 0.01 0
0.14 0.01 0
0.15 0.01 0
0.16 0.01 0
0.17 0.01 0
0.18 0.01 0
0.19 0.01 0
0.2 0.01 0
0.21 0.01 0
0.22 0.01 0
0.23 0.01 0
0.24 0.01 0
0.25 0.01 0
0.26 0.01 0
0.27 0.01 0
0.28 0.01 0
0.29 0.01 0
0.3 0.01 0
0.31 0.01 0
0.32 0.01 0
0.33 0.01 0
0.34 0.01 0
0.35 0.01 0
0.36 0.01 0
0.37 0.01 0
0.38 0.01 0
0.39 0.01 0
0.4 0.01 0
0.41 0.01 0
0.42 0.01 0
0.43 0.01 0
0.44 0.01 0
0.45 0.01 0
0.46 0.01 0
0.47 0.01 0
0.48 0.01 0
0.49 0.01 0
0.5 0.01 0
0.51 0.01 0
0.52 0.01 0
0.53 0.01 0
0.54 0.01 0
0.55 0.01 0
0.56 0.01 0
0.57 0.01 0
0.58 0.01 0
0.59 0.01 0
0.6 0.01 0
0.61 0.01 0
0 0.02 0
0.01 0.02 0
0.02 0.02 0
0.03 0.02 0
0.04 0.02 0
0.05 0.02 0
0.06 0.02 0
0.07 0.02 0
0.08 0.02 0
0.09 0.02 0
0.1 0.02 0
0.11 0.02 0
0.12 0.02 0
0.13 0.02 0
0.14 0.02 0
0.15 0.02 0
0.16 0.02 0
0.17 0.02 0
0.18 0.02 0
0.19 0.02 0
0.2 0.02 0
0.21 0.02 0
0.22 0.02 0
0.23 0.02 0
0.24 0.02 0
0.25 0.02 0
0.26 0.02 0
0.27 0.02 0
0.28 0.02 0
0.29 0.02 0
0.3 0.02 0
0.31 0.02 0
0.32 0.02 0
0.33 0.02 0
0.34 0.02 0
0.35 0.02 0
0.36 0.02 0
0.37 0.02 0
0.38 0.02 0
0.39 0.02 0
0.4 0.02 0
0.41 0.02 0
0.42 0.02 0
0.43 0.02 0
0.44 0.02 0
0.45 0.02 0
0.46 0.02 0
0.47 0.02 0
0.48 0.02 0
0.49 0.02 0
0.5 0.02 0
0.51 0.02 0
0.52 0.02 0
0.53 0.02 0
0.54 0.02 0
0.55 0.02 0
0.56 0.02 0
0.57 0.02 0
0.58 0.02 0
0.59 0.02 0
0.6 0.02 0
0.61 0.02 0
0 0.03 0
0.01 0.03 0
0.02 0.03 0
0.03 0.03 0
0.04 0.03 0
0.05 0.03 0
0.06 0.03 0
0.07 0.03 0
0.08 0.03 0
0.09 0.03 0
0.1 0.03 0
0.11 0.03 0
0.12 0.03 0
0.13 0.03 0
0.14 0.03 0
0.15 0.03 0
0.16 0.03 0
0.17 0.03 0
0.18 0.03 0
0.19 0.03 0
0.2 0.03 0
0.21 0.03 0
0.22 0.03 0
0.23 0.03 0
0.24 0.03 0
0.25 0.03 0
0.26 0.03 0
0.27 0.03 0
0.28 0.03 0
0.29 0.03 0
0.3 0.03 0
0.31 0.03 0
0.32 0.03 0
0.33 0.03 0
0.34 0.03 0
0.35 0.03 0
0.36 0.03 0
0.37 0.03 0
0.38 0.03 0
0.39 0.03 0
0.4 0.03 0
0.41 0.03 0
0.42 0.03 0
0.43 0.03 0
0.44 0.03 0
0.45 0.03 0
0.46 0.03 0
0.47 0.03 0
0.48 0.03 0
0.49 0.03 0
0.5 0.03 0
0.51 0.03 0
0.52 0.03 0
0.53 0.03 0
0.54 0.03 0
0.55 0.03 0
0.56 0.03 0
0.57 0.03 0
0.58 0.03 0
0.59 0.03 0
0.6 0.03 0
0.61 0.03 0
0 0.04 0
0.01 0.04 0
0.02 0.04 0
0.03 0.04 0
0.04 0.04 0
0.05 0.04 0
0.06 0.04 0
0.07 0.04 0
0.08 0.04 0
0.09 0.04 0
0.1 0.04 0
0.11 0.04 0
0.12 0.04 0
0.13 0.04 0
0.14 0.04 0
0.15 0.04 0
0.16 0.04 0
0.17 0.04 0
0.18 0.04 0
0.19 0.04 0
0.2 0.04 0
0.21 0.04 0
0.22 0.04 0
0.23 0.04 0
0.24 0.04 0
0.25 0.04 0
0.26 0.04 0
0.27 0.04 0
0.28 0.04 0
0.29 0.04 0
0.3 0.04 0
0.31 0.04 0
0.32 0.04 0
0.33 0.04 0
0.34 0.04 0
0.35 0.04 0
0.36 0.04 0
0.37 0.04 0
0.38 0.04 0
0.39 0.04 0
0.4 0.04 0
0.41 0.04 0
0.42 0.04 0
0.43 0.04 0
0.44 0.04 0
0.45 0.04 0
0.46 0.04 0
0.47 0.04 0
0.48 0.04 0
0.49 0.04 0
0.5 0.04 0
0.51 0.04 0
0.52 0.04 0
0.53 0.04 0
0.54 0.04 0
0.55 0.04 0
0.56 0.04 0
0.57 0.04 0
0.58 0.04 0
0.59 0.04 0
0.6 0.04 0
0.61 0.04 0
0 0.05 0
0.01 0.05 0
0.02 0.05 0
0.03 0.05 0
0.04 0.05 0
0.05 0.05 0
0.06 0.05 0
0.07 0.05 0
0.08 0.05 0
0.09 0.05 0
0.1 0.05 0
0.11 0.05 0
0.12 0.05 0
0.13 0.05 0
0.14 0.05 0
0.15 0.05 0
0.16 0.05 0
0.17 0.05 0
0.18 0.05 0
0.19 0.05 0
0.2 0.05 0
0.21 0.05 0
0.22 0.05 0
0.23 0.05 0
0.24 0.05 0
0.25 0.05 0
0.26 0.05 0
0.27 0.05 0
0.28 0.05 0
0.29 0.05 0
0.3 0.05 0
0.31 0.05 0
0.32 0.05 0
0.33 0.05 0
0.34 0.05 0
0.35 0.05 0
0.36 0.05 0
0.37 0.05 0
0.38 0.05 0
0.39 0.05 0
0.4 0.05 0
0.41 0.05 0
0.42 0.05 0
0.43 0.05 0
0.44 0.05 0
0.45 0.05 0
0.46 0.05 0
0.47 0.05 0
0.48 0.05 0
0.49 0.05 0
0.5 0.05 0
0.51 0.05 0
0.52 0.05 0
0.53 0.05 0
0.54 0.05 0
0.55 0.05 0
0.56 0.05 0
0.57 0.05 0
0.58 0.05 0
0.59 0.05 0
0.6 0.05 0
0.61 0.05 0
0 0.06 0
0.01 0.06 0
0.02 0.06 0
0.03 0.06 0
0.04 0.06 0
0.05 0.06 0
0.06 0.06 0
0.07 0.06 0
0.08 0.06 0
0.09 0.06 0
0.1 0.06 0
0.11 0.06 0
0.12 0.06 0
0.13 0.06 0
0.14 0.06 0
0.15 0.06 0
0.16 0.06 0
0.17 0.06 0
0.18 0.06 0
0.19 0.06 0
0.2 0.06 0
0.21 0.06 0
0.22 0.06 0
0.23 0.06 0
0.24 0.06 0
0.25 0.06 0
0.26 0.06 0
0.27 0.06 0
0.28 0.06 0
0.29 0.06 0
0.3 0.06 0
0.31 0.06 0
0.32 0.06 0
0.33 0.06 0
0.34 0.06 0
0.35 0.06 0
0.36 0.06 0
0.37 0.06 0
0.38 0.06 0
0.39 0.06 0
0.4 0.06 0
0.41 0.06 0
0.42 0.06 0
0.43 0.06 0
0.44 0.06 0
0.45 0.06 0
0.46 0.06 0
0.47 0.06 0
0.48 0.06 0
0.49 0.06 0
0.5 0.06 0
0.51 0.06 0
0.52 0.06 0
0.53 0.06 0
0.54 0.06 0
0.55 0.06 0
0.56 0.06 0
0.57 0.06 0
0.58 0.06 0
0.59 0.06 0
0.6 0.06 0
0.61 0.06 0
0 0.07 0
0.01 0.07 0
0.02 0.07 0
0.03 0.07 0
0.04 0.07 0
0.05 0.07 0
0.06 0.07 0
0.07 0.07 0
0.08 0.07 0
0.09 0.07 0
0.1 0.07 0
0.11 0.07 0
0.12 0.07 0
0.13 0.07 0
0.14 0.07 0
0.15 0.07 0
0.16 0.07 0
0.17 0.07 0
0.18 0.07 0
0.19 0.07 0
0.2 0.07 0
0.21 0.07 0
0.22 0.07 0
0.23 0.07 0
0.24 0.07 0
0.25 0.07 0
0.26 0.07 0
0.27 0.07 0
0.28 0.07 0
0.29 0.07 0
0.3 0.07 0
0.31 0.07 0
0.32 0.07 0
0.33 0.07 0
0.34 0.07 0
0.35 0.07 0
0.36 0.07 0
0.37 0.07 0
0.38 0.07 0
0.39 0.07 0
0.4 0.07 0
0.41 0.07 0
0.42 0.07 0
0.43 0.07 0
0.44 0.07 0
0.45 0.07 0
0.46 0.07 0
0.47 0.07 0
0.48 0.07 0
0.49 0.07 0
0.5 0.07 0
0.51 0.07 0
0.52 0.07 0
0.53 0.07 0
0.54 0.07 0
0.55 0.07 0
0.56 0.07 0
0.57 0.07 0
0.58 0.07 0
0.59 0.07 0
0.6 0.07 0
0.61 0.07 0
0 0.08 0
0.01 0.08 0
0.02 0.08 0
0.03 0.08 0
0.04 0.08 0
0.05 0.08 0
0.06 0.08 0
0.07 0.08 0
0.08 0.08 0
0.09 0.08 0
0.1 0.08 0
0.11 0.08 0
0.12 0.08 0
0.13 0.08 0
0.14 0.08 0
0.15 0.08 0
0.16 0.08 0
0.17 0.08 0
0.18 0.08 0
0.19 0.08 0
0.2 0.08 0
0.21 0.08 0
0.22 0.08 0
0.23 0.08 0
0.24 0.08 0
0.25 0.08 0
0.26 0.08 0
0.27 0.08 0
0.28 0.08 0
0.29 0.08 0
0.3 0.08 0
0.31 0.08 0
0.32 0.08 0
0.33 0.08 0
0.34 0.08 0
0.35 0.08 0
0.36 0.08 0
0.37 0.08 0
0.38 0.08 0
0.39 0.08 0
0.4 0.08 0
0.41 0.08 0
0.42 0.08 0
0.43 0.08 0
0.44 0.08 0
0.45 0.08 0
0.46 0.08 0
0.47 0.08 0
0.48 0.08 0
0.49 0.08 0
0.5 0.08 0
0.51 0.08 0
0.52 0.08 0
0.53 0.08 0
0.54 0.08 0
0.55 0.08 0
0.56 0.08 0
0.57 0.08 0
0.58 0.08 0
0.59 0.08 0
0.6 0.08 0
0.61 0.08 0
0 0.09 0
0.01 0.09 0
0.02 0.09 0
0.03 0.09 0
0.04 0.09 0
0.05 0.09 0
0.06 0.09 0
0.07 0.09 0
0.08 0.09 0
0.09 0.09 0
0.1 0.09 0
0.11 0.09 0
0.12 0.09 0
0.13 0.09 0
0.14 0.09 0
0.15 0.09 0
0.16 0.09 0
0.17 0.09 0
0.18 0.09 0
0.19 0.09 0
0.2 0.09 0
0.21 0.09 0
0.22 0.09 0
0.23 0.09 0
0.24 0.09 0
0.25 0.09 0
0.26 0.09 0
0.27 0.09 0
0.28 0.09 0
0.29 0.09 0
0.3 0.09 0
0.31 0.09 0
0.32 0.09 0
0.33 0.09 0
0.34 0.09 0
0.35 0.09 0
0.36 0.09 0
0.37 0.09 0
0.38 0.09 0
0.39 0.09 0
0.4 0.09 0
0.41 0.09 0
0.42 0.09 0
0.43 0.09 0
0.44 0.09 0
0.45 0.09 0
0.46 0.09 0
0.47 0.09 0
0.48 0.09 0
0.49 0.09 0
0.5 0.09 0
0.51 0.09 0
0.52 0.09 0
0.53 0.09 0
0.54 0.09 0
0.55 0.09 0
0.56 0.09 0
0.57 0.09 0
0.58 0.09 0
0.59 0.09 0
0.6 0.09 0
0.61 0.09 0
0 0.1 0
0.01 0.1 0
0.02 0.1 0
0.03 0.1 0
0.04 0.1 0
0.05 0.1 0
0.06 0.1 0
0.07 0.1 0
0.08 0.1 0
0.09 0.1 0
0.1 0.1 0
0.11 0.1 0
0.12 0.1 0
0.13 0.1 0
0.14 0.1 0
0.15 0.1 0
0.16 0.1 0
0.17 0.1 0
0.18 0.1 0
0.19 0.1 0
0.2 0.1 0
0.21 0.1 0
0.22 0.1 0
0.23 0.1 0
0.24 0.1 0
0.25 0.1 0
0.26 0.1 0
0.27 0.1 0
0.28 0.1 0
0.29 0.1 0
0.3 0.1 0
0.31 0.1 0
0.32 0.1 0
0.33 0.1 0
0.34 0.1 0
0.35 0.1 0
0.36 0.1 0
0.37 0.1 0
0.38 0.1 0
0.39 0.1 0
0.4 0.1 0
0.41 0.1 0
0.42 0.1 0
0.43 0.1 0
0.44 0.1 0
0.45 0.1 0
0.46 0.1 0
0.47 0.1 0
0.48 0.1 0
0.49 0.1 0
0.5 0.1 0
0.51 0.1 0
0.52 0.1 0
0.53 0.1 0
0.54 0.1 0
0.55 0.1 0
0.56 0.1 0
0.57 0.1 0
0.58 0.1 0
0.59 0.1 0
0.6 0.1 0
0.61 0.1 0
0 0.11 0
0.01 0.11 0
0.02 0.11 0
0.03 0.11 0
0.04 0.11 0
0.05 0.11 0
0.06 0.11 0
0.07 0.11 0
0.08 0.11 0
0.09 0.11 0
0.1 0.11 0
0.11 0.11 0
0.12 0.11 0
0.13 0.11 0
0.14 0.11 0
0.15 0.11 0
0.16 0.11 0
0.17 0.11 0
0.18 0.11 0
0.19 0.11 0
0.2 0.11 0
0.21 0.11 0
0.22 0.11 0
0.23 0.11 0
0.24 0.11 0
0.25 0.11 0
0.26 0.11 0
0.27 0.11 0
0.28 0.11 0
0.29 0.11 0
0.3 0.11 0
0.31 0.11 0
0.32 0.11 0
0.33 0.11 0
0.34 0.11 0
0.35 0.11 0
0.36 0.11 0
0.37 0.11 0
0.38 0.11 0
0.39 0.11 0
0.4 0.11 0
0.41 0.11 0
0.42 0.11 0
0.43 0.11 0
0.44 0.11 0
0.45 0.11 0
0.46 0.11 0
0.47 0.11 0
0.48 0.11 0
0.49 0.11 0
0.5 0.11 0
0.51 0.11 0
0.52 0.11 0
0.53 0.11 0
0.54 0.11 0
0.55 0.11 0
0.56 0.11 0
0.57 0.11 0
0.58 0.11 0
0.59 0.11 0
0.6 0.11 0
0.61 0.11 0
0 0.12 0
0.01 0.12 0
0.02 0.12 0
0.03 0.12 0
0.04 0.12 0
0.05 0.12 0
0.06 0.12 0
0.07 0.12 0
0.08 0.12 0
0.09 0.12 0
0.1 0.12 0
0.11 0.12 0
0.12 0.12 0
0.13 0.12 0
0.14 0.12 0
0.15 0.12 0
0.16 0.12 0
0.17 0.12 0
0.18 0.12 0
0.19 0.12 0
0.2 0.12 0
0.21 0.12 0
0.22 0.12 0
0.23 0.12 0
0.24 0.12 0
0.25 0.12 0
0.26 0.12 0
0.27 0.12 0
0.28 0.12 0
0.29 0.12 0
0.3 0.12 0
0.31 0.12 0
0.32 0.12 0
0.33 0.12 0
0.34 0.12 0
0.35 0.12 0
0.36 0.12 0
0.37 0.12 0
0.38 0.12 0
0.39 0.12 0
0.4 0.12 0
0.41 0.12 0
0.42 0.12 0
0.43 0.12 0
0.44 0.12 0
0.45 0.12 0
0.46 0.12 0
0.47 0.12 0
0.48 0.12 0
0.49 0.12 0
0.5 0.12 0
0.51 0.12 0
0.52 0.12 0
0.53 0.12 0
0.54 0.12 0
0.55 0.12 0
0.56 0.12 0
0.57 0.12 0
0.58 0.12 0
0.59 0.12 0
0.6 0.12 0
0.61 0.12 0
0 0.13 0
0.01 0.13 0
0.02 0.13 0
0.03 0.13 0
0.04 0.13 0
0.05 0.13 0
0.06 0.13 0
0.07 0.13 0
0.08 0.13 0
0.09 0.13 0
0.1 0.13 0
0.11 0.13 0
0.12 0.13 0
0.13 0.13 0
0.14 0.13 0
0.15 0.13 0
0.16 0.13 0
0.17 0.13 0
0.18 0.13 0
0.19 0.13 0
0.2 0.13 0
0.21 0.13 0
0.22 0.13 0
0.23 0.13 0
0.24 0.13 0
0.25 0.13 0
0.26 0.13 0
0.27 0.13 0
0.28 0.13 0
0.29 0.13 0
0.3 0.13 0
0.31 0.13 0
0.32 0.13 0
0.33 0.13 0
0.34 0.13 0
0.35 0.13 0
0.36 0.13 0
0.37 0.13 0
0.38 0.13 0
0.39 0.13 0
0.4 0.13 0
0.41 0.13 0
0.42 0.13 0
0.43 0.13 0
0.44 0.13 0
0.45 0.13 0
0.46 0.13 0
0.47 0.13 0
0.48 0.13 0
[...]
POINT_DATA 93248

SCALARS v double
LOOKUP_TABLE default
0
0
0
0
0
0
0
0
0
0
0
0
0
0
0
0
0
0
0
0
0
0
0
0
0
0
0
0
0
0
0
0
0
0
0
0
0
0
-0.119237
0
0
0
0
0
-0.125594
0
0
0
0
0
0
0
0
0
0
0
0
0
0
0
0
0
0
0.0443038
-0.0843019
0.0462586
0.0324017
0.0147225
0
-0.00814974
-0.0156819
-0.0203133
-0.0232856
-0.0264627
-0.0334076
-0.032737
-0.0332812
-0.0342484
-0.0349161
-0.0340784
-0.0336277
-0.0327864
-0.0433342
-0.0355556
-0.0280366
-0.0341504
-0.0346597
-0.0344743
-0.0343417
-0.0342648
-0.0341727
-0.0339937
-0.0337145
-0.0338567
-0.0365776
-0.0339045
-0.0329907
-0.0336072
-0.0786328
-0.0320279
-0.0307805
-0.0292003
-0.0368236
-0.0706863
-0.0366904
-0.0385701
-0.0455199
-0.0735038
-0.14392
-0.036377
-0.0507097
-0.0337733
-0.0337895
-0.0322067
-0.0376101
-0.0460588
-0.0719438
-0.0439493
-0.103711
-0.0346015
-0.028964
-0.0253896
-0.0209906
0
0
0.0259964
0.0495559
0.0571108
0.0529197
0.0342647
0.0293368
0.0182617
0.00653775
-0.00443482
-0.0134159
-0.0219192
-0.141097
-0.0385477
-0.042087
-0.0441404
-0.0480647
-0.0468007
-0.0489233
-0.0521035
-0.197647
-0.0512318
-0.059163
-0.0514673
-0.0493221
-0.0486311
-0.0483604
-0.0482059
-0.0480321
-0.0477268
-0.0471942
-0.0469484
-0.116664
-0.0467619
-0.0465288
-0.0483585
-0.0480295
-0.0450367
-0.043318
-0.0467032
-0.0503123
-0.0532104
-0.0532492
-0.0560578
-0.0600586
-0.0659577
-0.0626315
-0.0537462
-0.0507097
-0.0490777
-0.0503229
-0.0562878
-0.0542056
-0.0579508
-0.0631459
-0.0552241
-0.0503855
-0.118429
-0.0366186
-0.0324259
-0.0292425
0
0
0.0136615
0.0341179
0.0429388
0.0521086
0.0565803
0.0430615
0.0316665
0.0201473
0.00862159
-0.00318945
-0.0141085
-0.0275363
-0.0350189
-0.0418361
-0.0484776
-0.0525726
0
-0.055773
-0.058834
-0.0629584
-0.0608802
-0.0608377
-0.0589016
-0.0575711
-0.0568761
-0.0565168
-0.0562992
-0.0561106
-0.0559011
-0.0557754
-0.0563522
-0.0591477
-0.0608854
-0.0590581
-0.0550657
-0.0542474
-0.0534357
-0.0535883
-0.0558875
-0.0580167
-0.0604104
-0.0626418
-0.0630372
-0.0654802
-0.0667977
-0.061764
-0.0599065
-0.058494
-0.0585712
-0.0589273
-0.0601715
-0.0602697
-0.0606844
-0.0601138
-0.0571669
-0.0532307
-0.0491339
-0.0413736
-0.037539
-0.0366098
0
0
0.00839849
0.0239013
0.0381584
0.0409607
0.0423669
0.0372771
0.0296772
0.0205779
0.0106254
0.000156487
-0.0102927
-0.0206808
-0.0293598
-0.037486
-0.0476609
-0.0497061
-0.0520341
-0.0564434
-0.0603289
-0.0615513
-0.0623236
-0.062479
-0.0621658
-0.0617668
-0.0614555
-0.0612139
-0.0610414
-0.0609078
-0.0608036
-0.0608147
-0.0611965
-0.0623217
-0.0643666
-0.0633625
-0.0609922
-0.0597108
-0.0593599
-0.0598893
-0.061238
-0.0626485
-0.0641789
-0.065677
-0.0665824
-0.067465
-0.0667142
-0.0615683
-0.0630028
-0.0630622
-0.0629481
-0.0627531
-0.062501
-0.0619612
-0.060846
-0.0589287
-0.0563238
-0.0526168
-0.0479796
-0.0427294
-0.0399175
-0.0427824
0
0
0.0055327
0.0155575
0.0238259
0.0275583
0.0284486
0.0260268
0.0204468
0.0132649
0.00525949
-0.0032651
-0.0118244
-0.0199106
-0.0268446
-0.0326669
-0.0339373
-0.044009
-0.0498526
-0.0547212
-0.0578134
-0.0602023
-0.0620161
-0.0631179
-0.0637174
-0.0640264
-0.0641765
-0.0641564
-0.064135
-0.0641167
-0.064073
-0.0639925
-0.0639043
-0.0642745
-0.0683803
-0.0663435
-0.0645432
-0.0636497
-0.0635507
-0.0640328
-0.0648249
-0.0657015
-0.0665849
-0.0674141
-0.0681383
-0.0686043
-0.0681183
0
-0.0651393
-0.0655137
-0.0651336
-0.0645429
-0.063721
-0.0625573
-0.0608294
-0.0585741
-0.0558707
-0.0525692
-0.0489048
-0.0452854
-0.0418773
-0.047062
-0.136551
0
0.00374492
0.0099614
0.0147228
0.0170066
0.0170221
0.0152772
0.00974879
0
-0.00275235
-0.00971408
-0.0166853
-0.0232213
-0.0281119
-0.0324946
-0.0369333
-0.0438693
-0.0481631
-0.0506904
-0.0552834
-0.0588049
-0.0615844
-0.0634878
-0.0647513
-0.0656119
-0.0662086
-0.0663781
-0.0665846
-0.0667395
-0.0667572
-0.0665564
-0.0660247
-0.0654214
-0.150128
-0.0684005
-0.0669952
-0.0666815
-0.0668082
-0.0671965
-0.0676793
-0.0681686
-0.0686062
-0.0689394
-0.0692171
-0.0690343
-0.0679778
-0.065339
-0.0662176
-0.0665774
-0.0663131
-0.0656507
-0.0646571
-0.063274
-0.0613922
-0.0592235
-0.0568222
-0.0543881
-0.052865
-0.0546594
-0.0607071
-0.0478964
0
0
0.00255324
0.00615735
0.00859469
0.00926471
0.00795524
0.00426762
0.00130771
-0.00416166
-0.0102409
-0.0164866
-0.0227867
-0.0291951
-0.0317048
-0.0349313
-0.0391762
-0.0458704
-0.0498277
-0.0510797
-0.0549796
-0.0587712
-0.0621049
-0.0643625
-0.0659556
-0.0671737
-0.0681534
-0.068431
-0.068983
-0.0693549
-0.0694708
-0.0692916
-0.0689998
-0.0693617
-0.0719191
-0.070909
-0.0700973
-0.069801
-0.0698643
-0.0700887
-0.0703357
-0.0705439
-0.0706863
-0.0707405
-0.070483
-0.0700652
-0.0692842
-0.0683644
-0.0681115
-0.0679302
-0.0675085
-0.0667987
-0.0658117
-0.0645001
-0.0626889
-0.0608521
-0.0589267
-0.0569164
-0.0550228
-0.107078
-0.0290965
-0.045877
0
0
0.00173277
0.00348855
0.00427418
0.00366509
0.00148786
-0.00220211
-0.00629952
-0.0114397
-0.0170361
-0.0226922
-0.02879
-0.0386842
-0.0268446
-0.0380685
-0.0404683
-0.040608
-0.0440961
-0.0523639
-0.0569755
-0.0603591
-0.0640508
-0.0660038
-0.0675759
-0.0689003
-0.068431
-0.071102
-0.0718139
-0.0722887
-0.072472
-0.0722354
-0.0718151
-0.0720128
-0.0727363
-0.0728639
-0.0727732
-0.072718
-0.0728185
-0.0729433
-0.0730109
-0.0730022
-0.072907
-0.072698
-0.0723167
-0.0718178
-0.0712291
-0.070673
-0.0701786
-0.0696721
-0.0690463
-0.0682641
-0.067343
-0.066349
-0.0645842
-0.063195
-0.0617576
-0.0602104
-0.0584916
-0.0559404
-0.0484246
-0.0470326
0
0
0.00115662
0.00156219
0.00112006
-0.000488468
-0.00334947
-0.00733988
-0.0120497
-0.0172994
-0.0226358
-0.0274781
-0.0306605
-0.0261936
-0.0364313
-0.0413793
-0.0441404
-0.046274
-0.0503658
-0.0553143
-0.0592978
-0.0623266
-0.0894382
-0.0680498
-0.069586
-0.0711046
-0.0726616
-0.0736208
-0.0746505
-0.0754503
-0.0758216
-0.0754061
-0.0741396
-0.0741695
-0.0747222
-0.0751732
-0.0754337
-0.0755473
-0.0757337
-0.0758239
-0.0757602
-0.0755878
-0.0753252
-0.0749638
-0.0745018
-0.0739811
-0.0734431
-0.0729116
-0.0723347
-0.0716718
-0.0708969
-0.0700318
-0.0690552
-0.0678889
-0.0668111
-0.0659812
-0.0648431
-0.063457
-0.0616728
-0.058974
-0.0546758
-0.049215
0
0
0.000745182
0.000134267
-0.00125221
-0.00368602
-0.00715223
-0.0115704
-0.0166756
-0.0221306
-0.027473
-0.0321645
-0.0356142
-0.0378735
-0.0426008
-0.0466183
-0.0490115
-0.0520926
-0.0558118
-0.0595678
-0.0629572
-0.065919
-0.0689232
-0.0707138
-0.0722299
-0.0735675
-0.07431
-0.0763136
-0.0778628
-0.079072
-0.0797803
-0.0797546
-0.0749793
-0.0761512
-0.0772651
-0.0779351
-0.0783465
-0.0786328
-0.0785715
-0.0787383
-0.0785765
-0.078286
-0.0779158
-0.077467
-0.0769291
-0.076377
-0.0758273
-0.0752626
-0.0746305
-0.0738763
-0.0729951
-0.0721012
-0.0710751
-0.0699893
-0.0701198
-0.0691477
-0.0679597
-0.0665494
-0.0646643
-0.0618664
-0.0577163
-0.0516427
0
0
0.000445473
-0.000955574
-0.00308394
-0.00711986
-0.0102578
-0.0151321
-0.0206281
-0.0263835
-0.0319814
-0.0370219
-0.0413375
-0.0453015
-0.0493683
-0.053081
-0.0538831
-0.0577014
-0.0613445
-0.0645689
-0.0675262
-0.0700501
-0.0721832
-0.0738573
-0.0752865
-0.0766188
-0.077983
-0.0797276
-0.0815911
-0.0831849
-0.0839693
-0.0839319
0
-0.0794222
-0.0805306
-0.0810302
-0.0813939
-0.0816837
-0.0818707
-0.0816607
-0.0814443
-0.0810669
-0.080635
-0.0801792
-0.0795178
-0.0789203
-0.0783505
-0.0777632
-0.0771028
-0.0762882
-0.075319
-0.0746029
-0.073868
-0.0731537
-0.072728
-0.0719438
-0.0708832
-0.0694906
-0.0675289
-0.0645907
-0.0602676
-0.0540432
0
0
0.000219308
-0.00182783
-0.00460419
-0.00825657
-0.0128766
-0.0182539
-0.0241734
-0.0303213
-0.0363266
-0.0418501
-0.0468585
-0.0514387
-0.0557686
-0.0600751
0
-0.0637372
-0.067178
-0.0699062
-0.0726974
-0.0747504
-0.076265
-0.0775219
-0.0787117
-0.0799695
-0.0814586
-0.0833628
-0.0857415
-0.0878405
-0.0881967
-0.0859019
-0.0820735
-0.0824409
-0.0832352
-0.0838843
-0.0843733
-0.0847355
-0.0849541
-0.0849172
-0.0845182
-0.0839246
-0.0834067
-0.0832998
-0.0821797
-0.0815472
-0.080985
-0.0804084
-0.079765
-0.078919
-0.0777637
-0.0774295
-0.0769697
-0.0763096
-0.0755728
-0.0747452
-0.0737385
-0.072363
-0.0703345
-0.0672751
-0.062776
-0.0563592
0
0
4.19691e-05
-0.00255192
-0.00587407
-0.00987332
-0.0151934
-0.0210773
-0.0274548
-0.0340581
-0.0405498
-0.0446255
-0.0520812
-0.0569938
-0.0613133
-0.0648123
-0.0663594
-0.069645
-0.07251
-0.0749884
-0.078397
-0.0798916
-0.0807097
-0.0814639
-0.0823273
-0.0833866
-0.0847902
-0.0868418
-0.0899915
-0.0933043
-0.0956708
-0.0898278
-0.086618
-0.0859975
-0.0863457
-0.0868845
-0.0874034
-0.0878638
-0.088138
-0.0883434
-0.0876851
-0.0867053
-0.085661
-0.083833
-0.0843822
-0.0841498
-0.0836872
-0.0831638
-0.082599
-0.081796
-0.0801329
-0.0805511
-0.0802442
-0.0794654
-0.078531
-0.0776678
-0.0766792
-0.0752949
-0.07312
-0.0699909
-0.0652662
-0.0585707
0
0
-0.000105999
-0.00319391
-0.00711986
-0.0121407
-0.017477
-0.0237284
-0.0305578
-0.0376434
-0.0446255
-0.0511584
-0.0570808
-0.0622747
-0.0667205
-0.070345
-0.0731926
-0.075854
-0.0780357
-0.079891
-0.0852667
-0.0852395
-0.0851599
-0.0854379
-0.085971
-0.0867076
-0.0877416
-0.0894219
-0.0927255
-0.064073
-0.117776
-0.0935318
-0.0889813
-0.0886908
-0.089165
-0.089745
-0.0903684
-0.0911311
-0.0921983
-0.0922871
-0.0910757
-0.0896104
-0.0884369
-0.0875714
-0.0872642
-0.0869189
-0.0864499
-0.0859625
-0.0855042
-0.0849468
-0.0629481
-0.0841198
-0.0836791
-0.0826564
-0.0813313
-0.0807216
-0.0797971
-0.0784956
-0.0765833
-0.0729266
-0.067766
-0.0606381
0
0
-0.000229789
-0.00371884
-0.00810288
-0.0134017
-0.0194281
-0.0261963
-0.0335185
-0.041119
-0.0486238
-0.0556584
-0.0619502
-0.0674441
-0.0721569
-0.0761092
-0.0793664
-0.0819353
-0.0836498
-0.0843542
-0.17956
-0.0899433
-0.0893476
-0.0894382
-0.0896626
-0.089922
-0.0901358
-0.0900184
-0.0882327
-0.0785968
-0.0351869
-0.0737855
-0.0852526
-0.089263
-0.0910075
-0.0920486
-0.0929727
-0.094131
-0.0956657
-0.0967935
-0.0950463
-0.0928545
-0.0914604
-0.0907313
-0.0902689
-0.0898016
-0.0892278
-0.0887001
-0.0881537
-0.0875469
-0.0868594
-0.0876294
-0.087058
-0.086171
-0.0860175
-0.0842403
-0.0830575
-0.0818438
-0.0797102
-0.0760494
-0.0703407
-0.0624831
0
0
-0.000365302
-0.00413141
-0.00898338
-0.0147374
-0.0212916
-0.0285339
-0.0363535
-0.0445092
-0.0525729
-0.0601021
-0.0667214
-0.0725315
-0.0775863
-0.0818973
-0.0854282
-0.0881265
-0.0900904
-0.0918883
-0.0951823
-0.0948831
-0.0943361
-0.0939497
-0.0936442
-0.0932828
-0.0926291
-0.0911479
-0.0877122
-0.0812592
-0.0738069
-0.0812299
-0.0871515
-0.0906385
-0.0926685
-0.0940029
-0.0951699
-0.0966935
-0.099133
-0.102375
-0.101602
-0.096823
-0.0945153
-0.0936121
-0.0931035
-0.0925862
-0.0918922
-0.0913909
-0.0908349
-0.0903678
-0.0905487
-0.0918595
-0.0905711
-0.0893507
-0.088559
-0.0875538
-0.0858166
-0.0856294
-0.0835804
-0.0798855
-0.0733798
-0.0639734
0
0
-0.000578555
0.00156219
-0.00984594
-0.0161302
-0.023147
-0.0306587
-0.0390642
-0.0478713
-0.0565514
-0.0645886
-0.0713676
-0.0775035
-0.0829746
-0.0877139
-0.0915503
-0.0943911
-0.0964332
-0.0980974
-0.0993155
-0.0994309
-0.0990162
-0.0984257
-0.0977522
-0.0969424
-0.0958175
-0.0940374
-0.0911734
-0.0887023
-0.0888726
-0.090364
-0.0921914
-0.093831
-0.0951292
-0.0961375
-0.0970416
-0.0982837
-0.100768
-0.106986
-0.121834
-0.100459
-0.0962684
-0.0955981
-0.0953619
-0.0950293
-0.0918922
-0.0940229
-0.0935227
-0.0931238
-0.0936126
-0.0967981
-0.0938934
-0.092473
-0.0919828
-0.0921826
-0.0944779
-0.0911085
-0.0886421
-0.0853167
-0.0783274
-0.0649198
0
0
-0.000536482
-0.00505279
-0.0107224
-0.0175394
-0.0251502
-0.0332089
-0.0420638
-0.0514151
-0.0607003
-0.0692675
-0.0757233
-0.0823136
-0.0883393
-0.0936504
-0.0978357
-0.100689
-0.102566
-0.104004
-0.104532
-0.104329
-0.103716
-0.102907
-0.10198
-0.100939
-0.0997414
-0.098342
-0.0967577
-0.09463
-0.0976954
-0.0970854
-0.0970765
-0.0975463
-0.098104
-0.098474
-0.0985563
-0.0981733
-0.0960867
-0.0864331
-0.0428307
-0.0813702
-0.0920413
-0.0955373
-0.0966579
-0.0969077
-0.0967502
-0.0965417
-0.0962139
-0.0958372
-0.0960473
-0.153879
-0.096574
-0.0956418
-0.0956331
-0.0959134
-0.0961592
-0.0953072
-0.0949029
-0.0930764
-0.0903663
-0.0861082
0
0
-0.000571966
-0.00551274
-0.0115574
-0.0191494
-0.0273192
-0.0347153
-0.0445481
-0.0548273
-0.0649638
-0.0743219
-0.0793351
-0.0870652
-0.0937749
-0.0999115
-0.104423
-0.107008
-0.108503
-0.110088
-0.110117
-0.109441
-0.108505
-0.107453
-0.106327
-0.105171
-0.104053
-0.103057
-0.101815
-0.0996657
-0.169564
-0.101893
-0.101181
-0.101273
-0.101371
-0.101068
-0.1003
-0.0986051
-0.095047
-0.0883387
-0.0804339
-0.087086
-0.0932212
-0.0963648
-0.0979491
-0.098723
-0.0990526
-0.0991356
-0.0991557
-0.0992902
-0.0999648
-0.101704
-0.100229
-0.0995101
-0.0994766
-0.0996838
-0.0998027
-0.0998605
-0.0996499
-0.0982821
-0.0948814
-0.0869931
0
0
-0.000640304
-0.0059339
-0.012218
-0.0315336
-0.0297625
0
-0.0472709
-0.0584253
-0.069342
-0.0799394
-0.0166853
-0.0923733
-0.09933
-0.106866
-0.111352
-0.113106
-0.113998
-0.116601
-0.115697
-0.114491
-0.113281
-0.112041
-0.110733
-0.109469
-0.108403
-0.107886
-0.108921
-0.106023
-0.107069
-0.106153
-0.10554
-0.105327
-0.105121
-0.104267
-0.102858
-0.100846
-0.0981085
-0.0951781
-0.0941572
-0.095342
-0.0973292
-0.0989322
-0.100094
-0.100993
-0.101577
-0.101863
-0.102158
-0.102523
-0.102968
-0.103276
-0.103034
-0.102957
-0.103211
-0.103552
-0.103711
-0.103819
-0.103293
-0.101412
-0.0972394
-0.0885627
0
0
-0.00072896
-0.00641138
-0.0132477
-0.0216097
-0.0305606
-0.0392639
-0.0501579
-0.0616667
-0.0730236
-0.0831052
-0.0898108
-0.0975919
-0.104088
-0.115847
-0.11732
-0.118363
-0.118732
-0.172256
-0.120749
-0.119332
-0.118071
-0.116699
-0.115143
-0.113664
-0.112263
-0.110451
-0.1046
-0.10833
-0.109456
-0.109445
-0.109283
-0.109299
-0.109308
-0.108132
-0.106301
-0.104407
-0.102569
-0.101275
-0.101073
-0.101342
-0.101862
-0.102383
-0.102709
-0.103786
-0.104462
-0.104729
-0.105171
-0.105594
-0.105852
-0.105785
-0.105673
-0.106056
-0.106743
-0.107328
-0.10736
-0.10729
-0.106252
-0.103731
-0.0993344
-0.0904865
0
0
-0.000816068
-0.00686218
-0.0140925
-0.0225418
-0.0318907
-0.0419367
-0.0530945
-0.065086
-0.0771135
-0.0880027
-0.0961012
-0.103577
-0.109947
-0.231665
-0.122548
-0.123776
-0.125148
-0.1268
-0.125983
-0.124659
-0.123192
-0.121568
-0.11953
-0.117832
-0.11631
-0.114636
-0.112847
-0.112858
-0.112822
-0.112703
-0.112705
-0.113113
-0.114015
-0.11331
-0.110435
-0.108605
-0.107038
-0.106197
-0.105944
-0.105934
-0.106035
-0.106346
-0.107686
-0.107247
-0.107665
-0.107726
-0.108292
-0.108721
-0.108881
-0.108522
-0.108101
-0.10901
-0.110139
-0.110967
-0.110818
-0.110601
-0.108927
-0.105606
-0.101461
-0.0926282
0
0
-0.00090153
-0.00730221
-0.0149109
-0.0237061
-0.0335345
-0.0442018
-0.0556506
-0.0684617
-0.081472
-0.0951572
-0.101817
-0.109871
-0.117592
-0.125694
-0.128661
-0.130324
-0.131458
-0.131881
-0.131203
-0.129924
-0.128382
-0.126584
-0.123684
-0.121996
-0.120665
-0.119333
-0.118173
-0.117253
-0.116475
-0.115982
-0.115764
-0.116188
-0.118381
-0.124043
-0.114341
-0.113286
-0.110838
-0.110104
-0.109863
-0.109763
-0.109685
-0.109636
-0.109937
-0.110108
-0.110289
-0.111318
-0.111664
-0.111982
-0.112095
-0.111246
-0.109584
-0.112419
-0.113485
-0.113848
-0.114912
-0.11413
-0.111599
-0.106862
-0.1037
-0.0949325
0
0
-0.000992952
-0.0077623
-0.0157881
-0.0250529
-0.0354226
-0.0464837
-0.0572329
-0.071478
-0.0834429
-0.0894279
-0.104689
-0.115395
-0.123747
-0.130199
-0.134199
-0.13636
-0.13734
-0.137547
-0.136643
-0.135224
-0.133644
-0.131853
-0.127201
-0.126249
-0.12522
-0.123943
-0.12262
-0.12097
-0.120118
-0.119071
-0.118026
-0.116664
-0.112277
-0.0908156
-0.107152
-0.1079
-0.111814
-0.112816
-0.113046
-0.113077
-0.112905
-0.112445
-0.112627
-0.113095
-0.113607
-0.114249
-0.114723
-0.115157
-0.11549
-0.114451
-0.110588
-0.116012
-0.117079
-0.117541
-0.117991
-0.117462
-0.114553
-0.107078
-0.10636
-0.0973435
0
0
-0.00109461
-0.0082557
-0.0167475
-0.0265898
-0.0377574
-0.0503032
-0.0658808
-0.0762002
-0.0877654
-0.0988744
-0.110938
-0.121365
-0.129741
-0.135985
-0.140232
-0.142797
-0.144443
-0.143513
-0.142137
-0.140497
-0.138866
-0.13744
-0.0711046
-0.131055
-0.129956
-0.12835
-0.12678
-0.117253
-0.123527
-0.121984
-0.119821
-0.118261
-0.114585
-0.109948
-0.111842
-0.113125
-0.114613
-0.115483
-0.11594
-0.116153
-0.115939
-0.114818
-0.115344
-0.116127
-0.116757
-0.117258
-0.117682
-0.118081
-0.118451
-0.118704
-0.0376101
-0.136627
-0.120436
-0.12074
-0.121023
-0.120782
-0.118429
-0.0253896
-0.109973
-0.0997604
0
0
-0.0012034
-0.00877039
-0.0177556
-0.0282044
-0.0400916
-0.0533148
-0.0673967
-0.079567
-0.0925163
-0.105398
-0.117423
-0.127781
-0.136111
-0.142345
-0.146644
-0.149152
-0.149902
-0.1491
-0.147512
-0.145567
-0.143488
-0.141054
-0.137389
-0.135634
-0.13407
-0.132171
-0.130325
-0.128482
-0.127045
-0.125782
-0.125847
-0.122222
-0.119559
-0.117991
-0.117602
-0.117772
-0.118175
-0.118592
-0.118972
-0.119284
-0.1191
-0.116584
-0.11818
-0.119253
-0.119845
-0.120227
-0.120542
-0.120819
-0.120965
-0.120619
-0.119009
-0.121936
-0.122982
-0.123483
-0.123612
-0.123008
-0.120648
-0.115256
-0.111788
-0.102067
0
0
-0.0013089
-0.00927626
-0.0187692
-0.0298494
-0.0424317
-0.0563299
-0.0709678
-0.0824409
-0.0972071
-0.111313
-0.123848
-0.134379
-0.142758
-0.148975
-0.153254
-0.15557
-0.155723
-0.154567
-0.152688
-0.150473
-0.148215
-0.145625
-0.142684
-0.140494
-0.138351
-0.135847
-0.133824
-0.132081
-0.130538
-0.129133
-0.127755
-0.125778
-0.12403
-0.122879
-0.122159
-0.12181
-0.121723
-0.121816
-0.122047
-0.122405
-0.122558
-0.0749638
-0.121517
-0.122449
-0.122822
-0.123073
-0.123293
-0.123488
-0.123615
-0.123654
-0.123852
-0.124763
-0.125602
-0.126138
-0.126257
-0.12571
-0.12394
-0.120514
-0.114867
-0.104449
0
0
-0.00138966
-0.00971967
-0.0197451
-0.0315336
-0.0448481
-0.0595801
-0.0756636
-0.0203133
-0.102573
-0.11754
-0.130375
-0.141097
-0.149545
-0.155714
-0.159959
-0.162188
-0.161542
-0.159932
-0.157746
-0.15531
-0.15314
-0.150328
-0.147394
-0.144701
-0.14226
-0.139243
-0.137304
-0.135559
-0.133915
-0.132335
-0.130745
-0.129169
-0.127772
-0.126666
-0.125837
-0.125284
-0.124978
-0.124874
-0.124906
-0.124943
-0.124633
-0.123383
-0.124327
-0.125068
-0.125495
-0.125747
-0.125947
-0.126144
-0.126363
-0.126692
-0.127224
-0.127845
-0.1285
-0.129015
-0.12921
-0.128941
-0.128063
-0.12438
-0.118036
-0.106957
0
0
-0.0014021
-0.00999455
-0.0206695
-0.0333187
-0.0472959
-0.062456
-0.0781127
-0.0921864
-0.108296
-0.123464
-0.136759
-0.147814
-0.156424
-0.162487
-0.166443
-0.169023
-0.167052
-0.16521
-0.162843
-0.160149
-0.158395
-0.154942
-0.151582
-0.148332
-0.144792
-0.14318
-0.141027
-0.139028
-0.137199
-0.135494
-0.133879
-0.132386
-0.131048
-0.129888
-0.128964
-0.12831
-0.127907
-0.127703
-0.127627
-0.127561
-0.127393
-0.127214
-0.127479
-0.127883
-0.128194
-0.12837
-0.128536
-0.128743
-0.129014
-0.129479
-0.130134
-0.130836
-0.131523
-0.132085
-0.132319
-0.13205
-0.130869
-0.127581
-0.121038
-0.109556
0
0
-0.0012802
-0.00983972
-0.0219268
-0.0352113
-0.0499393
-0.0657343
-0.0820633
-0.0983353
-0.114638
-0.129981
-0.14355
-0.154843
-0.163624
-0.169973
-0.175085
-0.176051
-0.172256
-0.170835
-0.16852
-0.165175
-0.187415
-0.159202
-0.155453
-0.152075
-0.148381
-0.14603
-0.143996
-0.142066
-0.140226
-0.138488
-0.136863
-0.135365
-0.133981
-0.132696
-0.131671
-0.130967
-0.130541
-0.130322
-0.130249
-0.130232
-0.130223
-0.130236
-0.130446
-0.130773
-0.130975
-0.130983
-0.131074
-0.131256
-0.131487
-0.132042
-0.132868
-0.133748
-0.134576
-0.135249
-0.135455
-0.135069
-0.133829
-0.130612
-0.124005
-0.112205
0
0
-0.00111159
-0.00817344
-0.0234025
-0.0378345
-0.0532754
-0.0697601
-0.08695
-0.104275
-0.121152
-0.136868
-0.150719
-0.162184
-0.17097
-0.17694
-0.179613
-0.177922
-0.181084
-0.178588
-0.174842
-0.170795
-0.16727
-0.163131
-0.159278
-0.15578
-0.151059
-0.14887
-0.146896
-0.144949
-0.143062
-0.141279
-0.139626
-0.138095
-0.136618
-0.135103
-0.133979
-0.133292
-0.13291
-0.132729
-0.132724
-0.132802
-0.132903
-0.132881
-0.133207
-0.133674
-0.133822
-0.133545
-0.133565
-0.133714
-0.133762
-0.134427
-0.135521
-0.136627
-0.137628
-0.13847
-0.138573
-0.138039
-0.136766
-0.133433
-0.127051
-0.114903
0
0
-0.00317627
-0.0179771
-0.027632
-0.04138
-0.0572196
-0.0743925