# vtk DataFile Version 2.0
FlowField
ASCII
DATASET STRUCTURED_GRID
DIMENSIONS 62 47 32 
POINTS 93248 double
0 0 0
0.01 0 0
0.02 0 0
0.03 0 0
0.04 0 0
0.05 0 0
0.06 0 0
0.07 0 0
0.08 0 0
0.09 0 0
0.1 0 0
0.11 0 0
0.12 0 0
0.13 0 0
0.14 0 0
0.15 0 0
0.16 0 0
0.17 0 0
0.18 0 0
0.19 0 0
0.2 0 0
0.21 0 0
0.22 0 0
0.23 0 0
0.24 0 0
0.25 0 0
0.26 0 0
0.27 0 0
0.28 0 0
0.29 0 0
0.3 0 0
0.31 0 0
0.32 0 0
0.33 0 0
0.34 0 0
0.35 0 0
0.36 0 0
0.37 0 0
0.38 0 0
0.39 0 0
0.4 0 0
0.41 0 0
0.42 0 0
0.43 0 0
0.44 0 0
0.45 0 0
0.46 0 0
0.47 0 0
0.48 0 0
0.49 0 0
0.5 0 0
0.51 0 0
0.52 0 0
0.53 0 0
0.54 0 0
0.55 0 0
0.56 0 0
0.57 0 0
0.58 0 0
0.59 0 0
0.6 0 0
0.61 0 0
0 0.01 0
0.01 0.01 0
0.02 0.01 0
0.03 0.01 0
0.04 0.01 0
0.05 0.01 0
0.06 0.01 0
0.07 0.01 0
0.08 0.01 0
0.09 0.01 0
0.1 0.01 0
0.11 0.01 0
0.12 0.01 0
0.13 0.01 0
0.14 0.01 0
0.15 0.01 0
0.16 0.01 0
0.17 0.01 0
0.18 0.01 0
0.19 0.01 0
0.2 0.01 0
0.21 0.01 0
0.22 0.01 0
0.23 0.01 0
0.24 0.01 0
0.25 0.01 0
0.26 0.01 0
0.27 0.01 0
0.28 0.01 0
0.29 0.01 0
0.3 0.01 0
0.31 0.01 0
0.32 0.01 0
0.33 0.01 0
0.34 0.01 0
0.35 0.01 0
0.36 0.01 0
0.37 0.01 0
0.38 0.01 0
0.39 0.01 0
0.4 0.01 0
0.41 0.01 0
0.42 0.01 0
0.43 0.01 0
0.44 0.01 0
0.45 0.01 0
0.46 0.01 0
0.47 0.01 0
0.48 0.01 0
0.49 0.01 0
0.5 0.01 0
0.51 0.01 0
0.52 0.01 0
0.53 0.01 0
0.54 0.01 0
0.55 0.01 0
0.56 0.01 0
0.57 0.01 0
0.58 0.01 0
0.59 0.01 0
0.6 0.01 0
0.61 0.01 0
0 0.02 0
0.01 0.02 0
0.02 0.02 0
0.03 0.02 0
0.04 0.02 0
0.05 0.02 0
0.06 0.02 0
0.07 0.02 0
0.08 0.02 0
0.09 0.02 0
0.1 0.02 0
0.11 0.02 0
0.12 0.02 0
0.13 0.02 0
0.14 0.02 0
0.15 0.02 0
0.16 0.02 0
0.17 0.02 0
0.18 0.02 0
0.19 0.02 0
0.2 0.02 0
0.21 0.02 0
0.22 0.02 0
0.23 0.02 0
0.24 0.02 0
0.25 0.02 0
0.26 0.02 0
0.27 0.02 0
0.28 0.02 0
0.29 0.02 0
0.3 0.02 0
0.31 0.02 0
0.32 0.02 0
0.33 0.02 0
0.34 0.02 0
0.35 0.02 0
0.36 0.02 0
0.37 0.02 0
0.38 0.02 0
0.39 0.02 0
0.4 0.02 0
0.41 0.02 0
0.42 0.02 0
0.43 0.02 0
0.44 0.02 0
0.45 0.02 0
0.46 0.02 0
0.47 0.02 0
0.48 0.02 0
0.49 0.02 0
0.5 0.02 0
0.51 0.02 0
0.52 0.02 0
0.53 0.02 0
0.54 0.02 0
0.55 0.02 0
0.56 0.02 0
0.57 0.02 0
0.58 0.02 0
0.59 0.02 0
0.6 0.02 0
0.61 0.02 0
0 0.03 0
0.01 0.03 0
0.02 0.03 0
0.03 0.03 0
0.04 0.03 0
0.05 0.03 0
0.06 0.03 0
0.07 0.03 0
0.08 0.03 0
0.09 0.03 0
0.1 0.03 0
0.11 0.03 0
0.12 0.03 0
0.13 0.03 0
0.14 0.03 0
0.15 0.03 0
0.16 0.03 0
0.17 0.03 0
0.18 0.03 0
0.19 0.03 0
0.2 0.03 0
0.21 0.03 0
0.22 0.03 0
0.23 0.03 0
0.24 0.03 0
0.25 0.03 0
0.26 0.03 0
0.27 0.03 0
0.28 0.03 0
0.29 0.03 0
0.3 0.03 0
0.31 0.03 0
0.32 0.03 0
0.33 0.03 0
0.34 0.03 0
0.35 0.03 0
0.36 0.03 0
0.37 0.03 0
0.38 0.03 0
0.39 0.03 0
0.4 0.03 0
0.41 0.03 0
0.42 0.03 0
0.43 0.03 0
0.44 0.03 0
0.45 0.03 0
0.46 0.03 0
0.47 0.03 0
0.48 0.03 0
0.49 0.03 0
0.5 0.03 0
0.51 0.03 0
0.52 0.03 0
0.53 0.03 0
0.54 0.03 0
0.55 0.03 0
0.56 0.03 0
0.57 0.03 0
0.58 0.03 0
0.59 0.03 0
0.6 0.03 0
0.61 0.03 0
0 0.04 0
0.01 0.04 0
0.02 0.04 0
0.03 0.04 0
0.04 0.04 0
0.05 0.04 0
0.06 0.04 0
0.07 0.04 0
0.08 0.04 0
0.09 0.04 0
0.1 0.04 0
0.11 0.04 0
0.12 0.04 0
0.13 0.04 0
0.14 0.04 0
0.15 0.04 0
0.16 0.04 0
0.17 0.04 0
0.18 0.04 0
0.19 0.04 0
0.2 0.04 0
0.21 0.04 0
0.22 0.04 0
0.23 0.04 0
0.24 0.04 0
0.25 0.04 0
0.26 0.04 0
0.27 0.04 0
0.28 0.04 0
0.29 0.04 0
0.3 0.04 0
0.31 0.04 0
0.32 0.04 0
0.33 0.04 0
0.34 0.04 0
0.35 0.04 0
0.36 0.04 0
0.37 0.04 0
0.38 0.04 0
0.39 0.04 0
0.4 0.04 0
0.41 0.04 0
0.42 0.04 0
0.43 0.04 0
0.44 0.04 0
0.45 0.04 0
0.46 0.04 0
0.47 0.04 0
0.48 0.04 0
0.49 0.04 0
0.5 0.04 0
0.51 0.04 0
0.52 0.04 0
0.53 0.04 0
0.54 0.04 0
0.55 0.04 0
0.56 0.04 0
0.57 0.04 0
0.58 0.04 0
0.59 0.04 0
0.6 0.04 0
0.61 0.04 0
0 0.05 0
0.01 0.05 0
0.02 0.05 0
0.03 0.05 0
0.04 0.05 0
0.05 0.05 0
0.06 0.05 0
0.07 0.05 0
0.08 0.05 0
0.09 0.05 0
0.1 0.05 0
0.11 0.05 0
0.12 0.05 0
0.13 0.05 0
0.14 0.05 0
0.15 0.05 0
0.16 0.05 0
0.17 0.05 0
0.18 0.05 0
0.19 0.05 0
0.2 0.05 0
0.21 0.05 0
0.22 0.05 0
0.23 0.05 0
0.24 0.05 0
0.25 0.05 0
0.26 0.05 0
0.27 0.05 0
0.28 0.05 0
0.29 0.05 0
0.3 0.05 0
0.31 0.05 0
0.32 0.05 0
0.33 0.05 0
0.34 0.05 0
0.35 0.05 0
0.36 0.05 0
0.37 0.05 0
0.38 0.05 0
0.39 0.05 0
0.4 0.05 0
0.41 0.05 0
0.42 0.05 0
0.43 0.05 0
0.44 0.05 0
0.45 0.05 0
0.46 0.05 0
0.47 0.05 0
0.48 0.05 0
0.49 0.05 0
0.5 0.05 0
0.51 0.05 0
0.52 0.05 0
0.53 0.05 0
0.54 0.05 0
0.55 0.05 0
0.56 0.05 0
0.57 0.05 0
0.58 0.05 0
0.59 0.05 0
0.6 0.05 0
0.61 0.05 0
0 0.06 0
0.01 0.06 0
0.02 0.06 0
0.03 0.06 0
0.04 0.06 0
0.05 0.06 0
0.06 0.06 0
0.07 0.06 0
0.08 0.06 0
0.09 0.06 0
0.1 0.06 0
0.11 0.06 0
0.12 0.06 0
0.13 0.06 0
0.14 0.06 0
0.15 0.06 0
0.16 0.06 0
0.17 0.06 0
0.18 0.06 0
0.19 0.06 0
0.2 0.06 0
0.21 0.06 0
0.22 0.06 0
0.23 0.06 0
0.24 0.06 0
0.25 0.06 0
0.26 0.06 0
0.27 0.06 0
0.28 0.06 0
0.29 0.06 0
0.3 0.06 0
0.31 0.06 0
0.32 0.06 0
0.33 0.06 0
0.34 0.06 0
0.35 0.06 0
0.36 0.06 0
0.37 0.06 0
0.38 0.06 0
0.39 0.06 0
0.4 0.06 0
0.41 0.06 0
0.42 0.06 0
0.43 0.06 0
0.44 0.06 0
0.45 0.06 0
0.46 0.06 0
0.47 0.06 0
0.48 0.06 0
0.49 0.06 0
0.5 0.06 0
0.51 0.06 0
0.52 0.06 0
0.53 0.06 0
0.54 0.06 0
0.55 0.06 0
0.56 0.06 0
0.57 0.06 0
0.58 0.06 0
0.59 0.06 0
0.6 0.06 0
0.61 0.06 0
0 0.07 0
0.01 0.07 0
0.02 0.07 0
0.03 0.07 0
0.04 0.07 0
0.05 0.07 0
0.06 0.07 0
0.07 0.07 0
0.08 0.07 0
0.09 0.07 0
0.1 0.07 0
0.11 0.07 0
0.12 0.07 0
0.13 0.07 0
0.14 0.07 0
0.15 0.07 0
0.16 0.07 0
0.17 0.07 0
0.18 0.07 0
0.19 0.07 0
0.2 0.07 0
0.21 0.07 0
0.22 0.07 0
0.23 0.07 0
0.24 0.07 0
0.25 0.07 0
0.26 0.07 0
0.27 0.07 0
0.28 0.07 0
0.29 0.07 0
0.3 0.07 0
0.31 0.07 0
0.32 0.07 0
0.33 0.07 0
0.34 0.07 0
0.35 0.07 0
0.36 0.07 0
0.37 0.07 0
0.38 0.07 0
0.39 0.07 0
0.4 0.07 0
0.41 0.07 0
0.42 0.07 0
0.43 0.07 0
0.44 0.07 0
0.45 0.07 0
0.46 0.07 0
0.47 0.07 0
0.48 0.07 0
0.49 0.07 0
0.5 0.07 0
0.51 0.07 0
0.52 0.07 0
0.53 0.07 0
0.54 0.07 0
0.55 0.07 0
0.56 0.07 0
0.57 0.07 0
0.58 0.07 0
0.59 0.07 0
0.6 0.07 0
0.61 0.07 0
0 0.08 0
0.01 0.08 0
0.02 0.08 0
0.03 0.08 0
0.04 0.08 0
0.05 0.08 0
0.06 0.08 0
0.07 0.08 0
0.08 0.08 0
0.09 0.08 0
0.1 0.08 0
0.11 0.08 0
0.12 0.08 0
0.13 0.08 0
0.14 0.08 0
0.15 0.08 0
0.16 0.08 0
0.17 0.08 0
0.18 0.08 0
0.19 0.08 0
0.2 0.08 0
0.21 0.08 0
0.22 0.08 0
0.23 0.08 0
0.24 0.08 0
0.25 0.08 0
0.26 0.08 0
0.27 0.08 0
0.28 0.08 0
0.29 0.08 0
0.3 0.08 0
0.31 0.08 0
0.32 0.08 0
0.33 0.08 0
0.34 0.08 0
0.35 0.08 0
0.36 0.08 0
0.37 0.08 0
0.38 0.08 0
0.39 0.08 0
0.4 0.08 0
0.41 0.08 0
0.42 0.08 0
0.43 0.08 0
0.44 0.08 0
0.45 0.08 0
0.46 0.08 0
0.47 0.08 0
0.48 0.08 0
0.49 0.08 0
0.5 0.08 0
0.51 0.08 0
0.52 0.08 0
0.53 0.08 0
0.54 0.08 0
0.55 0.08 0
0.56 0.08 0
0.57 0.08 0
0.58 0.08 0
0.59 0.08 0
0.6 0.08 0
0.61 0.08 0
0 0.09 0
0.01 0.09 0
0.02 0.09 0
0.03 0.09 0
0.04 0.09 0
0.05 0.09 0
0.06 0.09 0
0.07 0.09 0
0.08 0.09 0
0.09 0.09 0
0.1 0.09 0
0.11 0.09 0
0.12 0.09 0
0.13 0.09 0
0.14 0.09 0
0.15 0.09 0
0.16 0.09 0
0.17 0.09 0
0.18 0.09 0
0.19 0.09 0
0.2 0.09 0
0.21 0.09 0
0.22 0.09 0
0.23 0.09 0
0.24 0.09 0
0.25 0.09 0
0.26 0.09 0
0.27 0.09 0
0.28 0.09 0
0.29 0.09 0
0.3 0.09 0
0.31 0.09 0
0.32 0.09 0
0.33 0.09 0
0.34 0.09 0
0.35 0.09 0
0.36 0.09 0
0.37 0.09 0
0.38 0.09 0
0.39 0.09 0
0.4 0.09 0
0.41 0.09 0
0.42 0.09 0
0.43 0.09 0
0.44 0.09 0
0.45 0.09 0
0.46 0.09 0
0.47 0.09 0
0.48 0.09 0
0.49 0.09 0
0.5 0.09 0
0.51 0.09 0
0.52 0.09 0
0.53 0.09 0
0.54 0.09 0
0.55 0.09 0
0.56 0.09 0
0.57 0.09 0
0.58 0.09 0
0.59 0.09 0
0.6 0.09 0
0.61 0.09 0
0 0.1 0
0.01 0.1 0
0.02 0.1 0
0.03 0.1 0
0.04 0.1 0
0.05 0.1 0
0.06 0.1 0
0.07 0.1 0
0.08 0.1 0
0.09 0.1 0
0.1 0.1 0
0.11 0.1 0
0.12 0.1 0
0.13 0.1 0
0.14 0.1 0
0.15 0.1 0
0.16 0.1 0
0.17 0.1 0
0.18 0.1 0
0.19 0.1 0
0.2 0.1 0
0.21 0.1 0
0.22 0.1 0
0.23 0.1 0
0.24 0.1 0
0.25 0.1 0
0.26 0.1 0
0.27 0.1 0
0.28 0.1 0
0.29 0.1 0
0.3 0.1 0
0.31 0.1 0
0.32 0.1 0
0.33 0.1 0
0.34 0.1 0
0.35 0.1 0
0.36 0.1 0
0.37 0.1 0
0.38 0.1 0
0.39 0.1 0
0.4 0.1 0
0.41 0.1 0
0.42 0.1 0
0.43 0.1 0
0.44 0.1 0
0.45 0.1 0
0.46 0.1 0
0.47 0.1 0
0.48 0.1 0
0.49 0.1 0
0.5 0.1 0
0.51 0.1 0
0.52 0.1 0
0.53 0.1 0
0.54 0.1 0
0.55 0.1 0
0.56 0.1 0
0.57 0.1 0
0.58 0.1 0
0.59 0.1 0
0.6 0.1 0
0.61 0.1 0
0 0.11 0
0.01 0.11 0
0.02 0.11 0
0.03 0.11 0
0.04 0.11 0
0.05 0.11 0
0.06 0.11 0
0.07 0.11 0
0.08 0.11 0
0.09 0.11 0
0.1 0.11 0
0.11 0.11 0
0.12 0.11 0
0.13 0.11 0
0.14 0.11 0
0.15 0.11 0
0.16 0.11 0
0.17 0.11 0
0.18 0.11 0
0.19 0.11 0
0.2 0.11 0
0.21 0.11 0
0.22 0.11 0
0.23 0.11 0
0.24 0.11 0
0.25 0.11 0
0.26 0.11 0
0.27 0.11 0
0.28 0.11 0
0.29 0.11 0
0.3 0.11 0
0.31 0.11 0
0.32 0.11 0
0.33 0.11 0
0.34 0.11 0
0.35 0.11 0
0.36 0.11 0
0.37 0.11 0
0.38 0.11 0
0.39 0.11 0
0.4 0.11 0
0.41 0.11 0
0.42 0.11 0
0.43 0.11 0
0.44 0.11 0
0.45 0.11 0
0.46 0.11 0
0.47 0.11 0
0.48 0.11 0
0.49 0.11 0
0.5 0.11 0
0.51 0.11 0
0.52 0.11 0
0.53 0.11 0
0.54 0.11 0
0.55 0.11 0
0.56 0.11 0
0.57 0.11 0
0.58 0.11 0
0.59 0.11 0
0.6 0.11 0
0.61 0.11 0
0 0.12 0
0.01 0.12 0
0.02 0.12 0
0.03 0.12 0
0.04 0.12 0
0.05 0.12 0
0.06 0.12 0
0.07 0.12 0
0.08 0.12 0
0.09 0.12 0
0.1 0.12 0
0.11 0.12 0
0.12 0.12 0
0.13 0.12 0
0.14 0.12 0
0.15 0.12 0
0.16 0.12 0
0.17 0.12 0
0.18 0.12 0
0.19 0.12 0
0.2 0.12 0
0.21 0.12 0
0.22 0.12 0
0.23 0.12 0
0.24 0.12 0
0.25 0.12 0
0.26 0.12 0
0.27 0.12 0
0.28 0.12 0
0.29 0.12 0
0.3 0.12 0
0.31 0.12 0
0.32 0.12 0
0.33 0.12 0
0.34 0.12 0
0.35 0.12 0
0.36 0.12 0
0.37 0.12 0
0.38 0.12 0
0.39 0.12 0
0.4 0.12 0
0.41 0.12 0
0.42 0.12 0
0.43 0.12 0
0.44 0.12 0
0.45 0.12 0
0.46 0.12 0
0.47 0.12 0
0.48 0.12 0
0.49 0.12 0
0.5 0.12 0
0.51 0.12 0
0.52 0.12 0
0.53 0.12 0
0.54 0.12 0
0.55 0.12 0
0.56 0.12 0
0.57 0.12 0
0.58 0.12 0
0.59 0.12 0
0.6 0.12 0
0.61 0.12 0
0 0.13 0
0.01 0.13 0
0.02 0.13 0
0.03 0.13 0
0.04 0.13 0
0.05 0.13 0
0.06 0.13 0
0.07 0.13 0
0.08 0.13 0
0.09 0.13 0
0.1 0.13 0
0.11 0.13 0
0.12 0.13 0
0.13 0.13 0
0.14 0.13 0
0.15 0.13 0
0.16 0.13 0
0.17 0.13 0
0.18 0.13 0
0.19 0.13 0
0.2 0.13 0
0.21 0.13 0
0.22 0.13 0
0.23 0.13 0
0.24 0.13 0
0.25 0.13 0
0.26 0.13 0
0.27 0.13 0
0.28 0.13 0
0.29 0.13 0
0.3 0.13 0
0.31 0.13 0
0.32 0.13 0
0.33 0.13 0
0.34 0.13 0
0.35 0.13 0
0.36 0.13 0
0.37 0.13 0
0.38 0.13 0
0.39 0.13 0
0.4 0.13 0
0.41 0.13 0
0.42 0.13 0
0.43 0.13 0
0.44 0.13 0
0.45 0.13 0
0.46 0.13 0
0.47 0.13 0
0.48 0.13 0
[...]
POINT_DATA 93248

SCALARS w double
LOOKUP_TABLE default
0
0
0
0
0
0
0
0
0
0
0
0
0
-0.0582483
0
0
0
0
0
0
0
0
0
0
0
0
-0.114934
0
0
0
0
0
-0.110112
0
0
0
0
0
0
0
0
0
0
0
0
0
-0.101635
0
0
0
0
0
0
0
0
0
0
0
0
0
0
0
0
-0.0171121
-0.0335392
-0.0451635
-0.0516632
-0.0546154
-0.0561054
-0.0569624
-0.0571563
-0.0570585
-0.0567273
-0.0560583
-0.0550045
-0.0549901
-0.055363
-0.0558025
-0.0561689
-0.0566605
-0.0571216
-0.0569597
-0.0525288
-0.0520905
-0.0533899
-0.0534146
-0.0533782
-0.0533216
-0.0532217
-0.0530857
-0.0529253
-0.0527401
-0.0525015
-0.0521286
-0.0515644
-0.0516424
-0.0516849
-0.0510843
-0.0502079
-0.050772
-0.0525267
-0.0576673
-0.0492323
-0.0511993
-0.0531504
-0.0543136
-0.0560519
-0.108321
-0.0526934
-0.0521101
-0.0521763
-0.0529888
-0.0537712
-0.0547037
-0.0535481
-0.0554165
-0.108271
-0.0550784
-0.0523991
-0.0512816
-0.0518362
-0.0514478
-0.0485853
0
0
-0.0203998
-0.0485103
-0.0649939
-0.0765998
-0.084481
-0.092614
-0.0981299
-0.101467
-0.103128
-0.103714
-0.103272
-0.101831
-0.102221
-0.102785
-0.103398
-0.103897
-0.104819
-0.105926
-0.107723
-0.0987693
-0.0991171
-0.119811
-0.100812
-0.100181
-0.099947
-0.0997555
-0.0995374
-0.0992893
-0.0990152
-0.0987008
-0.0982481
-0.0973147
-0.0975754
-0.0977542
-0.0967509
-0.0964938
-0.0954721
-0.0951892
-0.102294
-0.09948
-0.0999464
-0.100705
-0.101308
-0.103019
-0.105331
-0.103265
-0.10037
-0.0995564
-0.0998562
-0.100462
-0.10885
-0.100843
-0.102097
-0.104318
-0.10251
-0.101334
-0.0983801
-0.0977067
-0.0955675
-0.089471
0
0
-0.0202362
-0.0483958
-0.0668195
-0.0805049
-0.0546154
-0.099165
-0.107958
-0.113656
-0.117144
-0.119254
-0.119363
-0.120648
-0.119788
-0.119231
-0.11898
-0.119297
-0.120404
-0.120865
-0.121797
-0.120435
-0.118253
-0.117778
-0.116737
-0.116107
-0.115716
-0.115413
-0.11513
-0.114848
-0.114573
-0.114348
-0.114322
-0.114852
-0.115971
-0.114349
-0.111779
-0.111479
-0.111089
-0.111276
-0.114424
-0.114918
-0.115532
-0.116413
-0.115853
-0.11711
-0.118621
-0.116467
-0.115275
-0.114485
-0.115382
-0.115496
-0.115811
-0.115732
-0.116299
-0.117037
-0.11697
-0.116914
-0.116559
-0.114086
-0.110583
-0.102997
0
0
-0.0197909
-0.0472342
-0.0473678
-0.0809237
-0.0922978
-0.102828
-0.110861
-0.116644
-0.120433
-0.12258
-0.123223
-0.123546
-0.123123
-0.122615
-0.122157
-0.121864
-0.121142
-0.12187
-0.122814
-0.12213
-0.121321
-0.120635
-0.11995
-0.11939
-0.118945
-0.118571
-0.118235
-0.117923
-0.117637
-0.117399
-0.117258
-0.117215
-0.116764
-0.116485
-0.11542
-0.114974
-0.114756
-0.113692
-0.116145
-0.117011
-0.117661
-0.118189
-0.118169
-0.118662
-0.119249
-0.118807
-0.11788
-0.117332
-0.117596
-0.11771
-0.117818
-0.117935
-0.118221
-0.118559
-0.118803
-0.118933
-0.118637
-0.116901
-0.113371
-0.105453
0
0
-0.0196356
-0.0471544
-0.0667328
-0.0824158
-0.0944491
-0.104216
-0.111737
-0.117175
-0.120812
-0.122782
-0.123416
-0.12332
-0.122827
-0.122261
-0.117943
-0.121045
-0.120771
-0.120797
-0.121078
-0.120803
-0.12034
-0.119811
-0.11927
-0.118765
-0.118311
-0.11791
-0.117546
-0.117212
-0.116908
-0.116634
-0.116362
-0.115971
-0.115209
-0.115072
-0.114842
-0.114677
-0.114608
-0.114704
-0.115194
-0.115701
-0.116131
-0.116446
-0.116568
-0.116759
-0.117065
-0.117652
-0.116511
-0.116111
-0.116155
-0.116258
-0.116373
-0.116537
-0.116778
-0.11704
-0.117268
-0.117344
-0.116947
-0.115375
-0.111868
-0.104253
0
0
-0.0195555
-0.0470522
-0.0672733
-0.0828276
-0.0950405
-0.104765
-0.111899
-0.11693
-0.120449
-0.122278
-0.122788
-0.122509
-0.121904
-0.121196
-0.120381
-0.119609
-0.119541
-0.116383
-0.119551
-0.119397
-0.118992
-0.118492
-0.117972
-0.117468
-0.116999
-0.116591
-0.116213
-0.115867
-0.115558
-0.115279
-0.114988
-0.114515
-0.113329
-0.113664
-0.113778
-0.11372
-0.113662
-0.113692
-0.113852
-0.11407
-0.114285
-0.114447
-0.114489
-0.114426
-0.114045
-0.112924
-0.113514
-0.11393
-0.114182
-0.114341
-0.11448
-0.114685
-0.114993
-0.115286
-0.115483
-0.11545
-0.114766
-0.112491
-0.107742
-0.101551
0
0
-0.0194881
-0.0469003
-0.067196
-0.0827633
-0.0950882
-0.105143
-0.111707
-0.117138
-0.12037
-0.121889
-0.122141
-0.121639
-0.120963
-0.120151
-0.119058
-0.117463
-0.118435
-0.118899
-0.118917
-0.118561
-0.118014
-0.117439
-0.116876
-0.116336
-0.115827
-0.115444
-0.115057
-0.114703
-0.114404
-0.114172
-0.114023
-0.11413
-0.115084
-0.11422
-0.113492
-0.113043
-0.112795
-0.112692
-0.112691
-0.11275
-0.112831
-0.112904
-0.112852
-0.112756
-0.11248
-0.112038
-0.112205
-0.112466
-0.112653
-0.112763
-0.112865
-0.113101
-0.113586
-0.113986
-0.114191
-0.11409
-0.113061
-0.108893
-0.0514478
-0.0991076
0
0
-0.0194248
-0.0467334
-0.0669781
-0.0825076
-0.094786
-0.104538
-0.111622
-0.116772
-0.119896
-0.121273
-0.121343
-0.120399
-0.119959
-0.119226
-0.117785
-0.114204
-0.109929
-0.11876
-0.118602
-0.117986
-0.117247
-0.11661
-0.116018
-0.11544
-0.114846
-0.11457
-0.114152
-0.113785
-0.113508
-0.113338
-0.11323
-0.113251
-0.113469
-0.113101
-0.112616
-0.112223
-0.111961
-0.111814
-0.111748
-0.111732
-0.111742
-0.111751
-0.111715
-0.111648
-0.111527
-0.111396
-0.111419
-0.111503
-0.111554
-0.111541
-0.111519
-0.111725
-0.112619
-0.113193
-0.113447
-0.113499
-0.113205
-0.111742
-0.105793
-0.0997144
0
0
-0.0193677
-0.0465767
-0.066746
-0.0822146
-0.0944334
-0.104061
-0.111299
-0.116376
-0.119408
-0.120674
-0.120488
-0.101831
-0.118803
-0.118682
-0.117839
-0.116367
-0.11728
-0.117835
-0.1177
-0.11719
-0.11642
-0.115891
-0.115334
-0.114743
-0.114117
-0.113726
-0.113335
-0.112995
-0.112773
-0.11272
-0.112616
-0.112476
-0.112309
-0.112013
-0.111679
-0.111389
-0.111176
-0.111042
-0.110965
-0.110925
-0.110906
-0.110895
-0.110877
-0.110851
-0.110814
-0.110784
-0.110784
-0.110784
-0.110732
-0.110576
-0.110327
-0.10922
-0.1121
-0.112808
-0.113017
-0.113073
-0.112898
-0.111777
-0.108008
-0.100002
0
0
-0.0193191
-0.0464424
-0.0665405
-0.0819421
-0.0941206
-0.10371
-0.110973
-0.116026
-0.119018
-0.120278
-0.120271
-0.119293
-0.119074
-0.1187
-0.1182
-0.117535
-0.117401
-0.117274
-0.116956
-0.116509
-0.116219
-0.115555
-0.114866
-0.114177
-0.111956
-0.112998
-0.112606
-0.112261
-0.112083
-0.112247
-0.112168
-0.111863
-0.111483
-0.111139
-0.110854
-0.110633
-0.110462
-0.110358
-0.110294
-0.110253
-0.110229
-0.110217
-0.110218
-0.110224
-0.110232
-0.11024
-0.110246
-0.110226
-0.110134
-0.109899
-0.109492
-0.10922
-0.112204
-0.112611
-0.112665
-0.112676
-0.112502
-0.111464
-0.108183
-0.0999879
0
0
-0.0192805
-0.0463367
-0.0663799
-0.0817181
-0.0938868
-0.10347
-0.110729
-0.115764
-0.118733
-0.120004
-0.120121
-0.119644
-0.119161
-0.118748
-0.118544
-0.117991
-0.117454
-0.11694
-0.116399
-0.115822
-0.115469
-0.114913
-0.114295
-0.113653
-0.112977
-0.11243
-0.111909
-0.111465
-0.111172
-0.111215
-0.111833
-0.111059
-0.110539
-0.110246
-0.110058
-0.109919
-0.109816
-0.109732
-0.109689
-0.109659
-0.109639
-0.109628
-0.109659
-0.1097
-0.10974
-0.109777
-0.109805
-0.109812
-0.109764
-0.109619
-0.109456
-0.109663
-0.111199
-0.111863
-0.112112
-0.112228
-0.112117
-0.111144
-0.107992
-0.0998428
0
0
-0.019252
-0.0462621
-0.0662882
-0.0817133
-0.0938384
-0.103369
-0.110589
-0.115588
-0.118528
-0.119787
-0.119943
-0.119555
-0.119039
-0.118631
-0.118773
-0.117934
-0.117158
-0.116487
-0.115844
-0.115259
-0.114787
-0.114282
-0.11373
-0.11313
-0.112483
-0.11181
-0.111118
-0.110458
-0.109792
-0.109266
-0.108002
-0.108527
-0.108954
-0.109165
-0.10924
-0.109237
-0.109199
-0.109152
-0.109119
-0.109099
-0.109076
-0.109019
-0.109135
-0.109236
-0.109316
-0.109386
-0.10945
-0.109513
-0.109562
-0.109532
-0.109556
-0.109849
-0.110593
-0.111163
-0.111532
-0.11178
-0.111773
-0.110864
-0.107773
-0.0996689
0
0
-0.0192301
-0.0462037
-0.0662042
-0.0816034
-0.0937102
-0.103232
-0.110442
-0.115427
-0.11835
-0.119591
-0.119757
-0.119372
-0.118786
-0.118061
-0.116721
-0.116478
-0.116207
-0.115765
-0.115154
-0.114644
-0.11421
-0.113762
-0.113252
-0.112657
-0.111956
-0.111119
-0.110124
-0.108972
-0.107229
-0.107133
-0.107139
-0.107603
-0.108074
-0.108401
-0.108576
-0.108636
-0.108634
-0.108578
-0.108541
-0.108531
-0.108485
-0.105953
-0.108591
-0.108811
-0.108945
-0.109049
-0.10915
-0.109278
-0.10945
-0.109452
-0.109541
-0.109812
-0.110263
-0.110696
-0.111085
-0.111422
-0.11153
-0.110645
-0.107582
-0.0995009
0
0
-0.0192138
-0.0461612
-0.066147
-0.0825076
-0.093631
-0.103111
-0.110306
-0.11528
-0.1182
-0.119474
-0.119623
-0.11922
-0.118615
-0.117917
-0.117059
-0.116518
-0.116044
-0.11545
-0.114546
-0.114126
-0.113808
-0.113424
-0.112928
-0.112297
-0.111486
-0.110388
-0.10878
-0.106092
-0.0988571
-0.102113
-0.104693
-0.106266
-0.107208
-0.107742
-0.108001
-0.108083
-0.10858
-0.107949
-0.107859
-0.107885
-0.107961
-0.108008
-0.108252
-0.108459
-0.10862
-0.108748
-0.108863
-0.109013
-0.109297
-0.109238
-0.109369
-0.109674
-0.110112
-0.110432
-0.110803
-0.111195
-0.112491
-0.110501
-0.107426
-0.0993462
0
0
-0.019203
-0.0461332
-0.0660811
-0.0814155
-0.0934822
-0.102985
-0.110181
-0.115151
-0.118063
-0.119321
-0.11948
-0.119087
-0.118502
-0.117874
-0.117237
-0.116671
-0.11612
-0.115433
-0.114088
-0.114016
-0.113816
-0.113401
-0.112832
-0.112112
-0.111169
-0.109773
-0.107162
-0.099812
0.0562844
-0.0915397
-0.101025
-0.104772
-0.106446
-0.107215
-0.10751
-0.107519
-0.107348
-0.107034
-0.106739
-0.106864
-0.10718
-0.107517
-0.107841
-0.108111
-0.108321
-0.10847
-0.108558
-0.108546
-0.108351
-0.108661
-0.109037
-0.109509
-0.1121
-0.110331
-0.110673
-0.110995
-0.111168
-0.110329
-0.107287
-0.0991992
0
0
-0.0191985
-0.0461403
-0.066047
-0.0813097
-0.0933709
-0.102881
-0.110079
-0.115046
-0.117953
-0.119207
-0.119377
-0.118997
-0.118427
-0.117835
-0.117268
-0.11674
-0.116263
-0.115967
-0.116478
-0.115516
-0.114563
-0.11373
-0.112937
-0.112097
-0.1111
-0.109743
-0.10759
-0.103603
-0.0958767
-0.100135
-0.103572
-0.105568
-0.106621
-0.107095
-0.107191
-0.106969
-0.106418
-0.105448
-0.104022
-0.10468
-0.105743
-0.106634
-0.10728
-0.107728
-0.108042
-0.108232
-0.108337
-0.108357
-0.108261
-0.108335
-0.108729
-0.109228
-0.109779
-0.110208
-0.11084
-0.110924
-0.111033
-0.110222
-0.107174
-0.0990468
0
0
-0.0191845
-0.0461615
-0.0659838
-0.0811785
-0.093234
-0.102792
-0.110008
-0.114972
-0.117876
-0.119138
-0.119341
-0.118969
-0.118387
-0.117783
-0.117225
-0.116712
-0.116247
-0.115888
-0.115739
-0.11516
-0.114431
-0.113676
-0.112909
-0.112096
-0.111179
-0.110068
-0.108636
-0.106666
-0.104692
-0.105082
-0.105971
-0.106672
-0.107055
-0.107136
-0.106973
-0.106413
-0.105141
-0.102163
-0.0949168
-0.0994799
-0.103164
-0.105354
-0.106604
-0.107331
-0.107787
-0.108031
-0.108178
-0.108228
-0.108132
-0.107934
-0.108467
-0.109027
-0.109556
-0.110282
-0.118803
-0.110998
-0.111045
-0.110178
-0.107082
-0.0988232
0
0
-0.0190949
-0.0457133
-0.0655755
-0.0808494
-0.0930073
-0.10371
-0.110025
-0.114954
-0.117836
-0.119116
-0.11941
-0.119021
-0.118361
-0.117679
-0.117102
-0.116598
-0.116122
-0.115664
-0.115243
-0.114733
-0.114146
-0.113509
-0.11283
-0.112102
-0.11131
-0.110444
-0.109538
-0.108166
-0.107062
-0.107007
-0.107244
-0.107414
-0.107401
-0.10718
-0.106864
-0.105989
-0.103753
-0.0961517
0.0613406
-0.0895075
-0.100097
-0.10424
-0.106103
-0.10703
-0.107515
-0.107857
-0.108082
-0.108216
-0.108175
-0.10771
-0.108514
-0.109028
-0.109426
-0.109901
-0.110541
-0.110437
-0.111055
-0.110119
-0.106939
-0.098674
0
0
-0.0190858
-0.0457505
-0.0655384
-0.0806942
-0.0928784
-0.1028
-0.110046
-0.114934
-0.117778
-0.119089
-0.119633
-0.119104
-0.118239
-0.117386
-0.116832
-0.116393
-0.115941
-0.115418
-0.114946
-0.114473
-0.113961
-0.113401
-0.112792
-0.112135
-0.111431
-0.110685
-0.1099
-0.109041
-0.107844
-0.108009
-0.108097
-0.107983
-0.107699
-0.107228
-0.106977
-0.106102
-0.104346
-0.100588
-0.0928197
-0.0980282
-0.102505
-0.104937
-0.106278
-0.107038
-0.107491
-0.107812
-0.108077
-0.108384
-0.108933
-0.110029
-0.109507
-0.109306
-0.109389
-0.109649
-0.110013
-0.110324
-0.110684
-0.109894
-0.106807
-0.0985658
0
0
-0.0190968
-0.0458051
-0.0655582
-0.0805584
-0.0928154
-0.103053
-0.110027
-0.114754
-0.117539
-0.118851
-0.119806
-0.118821
-0.117678
-0.116616
-0.116339
-0.11612
-0.115758
-0.115144
-0.114745
-0.114358
-0.113909
-0.113393
-0.112822
-0.112203
-0.111534
-0.110791
-0.109889
-0.109868
-0.110591
-0.10985
-0.109134
-0.108554
-0.108025
-0.107503
-0.10708
-0.106438
-0.105458
-0.104072
-0.102629
-0.103472
-0.104864
-0.105953
-0.106714
-0.107211
-0.107552
-0.107816
-0.10806
-0.108357
-0.108792
-0.10933
-0.1093
-0.109224
-0.109277
-0.109495
-0.109868
-0.110266
-0.110488
-0.10974
-0.106725
-0.0986371
0
0
-0.0191095
-0.0458542
-0.0656843
-0.0811109
-0.092918
-0.10154
-0.10887
-0.114012
-0.11696
-0.117981
-0.116955
-0.116851
-0.116339
-0.115252
-0.115829
-0.115958
-0.11574
-0.114977
-0.114802
-0.114488
-0.114031
-0.1135
-0.112928
-0.112313
-0.111627
-0.110715
-0.0992002
-0.109523
-0.110047
-0.109767
-0.109242
-0.108664
-0.108086
-0.107539
-0.107134
-0.106724
-0.106268
-0.105821
-0.105583
-0.105793
-0.106244
-0.106728
-0.107189
-0.10744
-0.107646
-0.107837
-0.10802
-0.108244
-0.108537
-0.10885
-0.109001
-0.109034
-0.109107
-0.10934
-0.109817
-0.11025
-0.110436
-0.109696
-0.106697
-0.0986513
0
0
-0.0191148
-0.0458672
-0.0656845
-0.0809444
-0.0928522
-0.101983
-0.109089
-0.114059
-0.116924
-0.117951
-0.117663
-0.1172
-0.116486
-0.11516
-0.115808
-0.116156
-0.116202
-0.116458
-0.115754
-0.115002
-0.114311
-0.113678
-0.113087
-0.112474
-0.111813
-0.111065
-0.110115
-0.110038
-0.10993
-0.109607
-0.109124
-0.108527
-0.107825
-0.107021
-0.106808
-0.106676
-0.106609
-0.106566
-0.106601
-0.106733
-0.10695
-0.107255
-0.1097
-0.107692
-0.107732
-0.107866
-0.107978
-0.108134
-0.108366
-0.108665
-0.108884
-0.108899
-0.108925
-0.109134
-0.109837
-0.110291
-0.110483
-0.109762
-0.106718
-0.098649
0
0
-0.0191161
-0.0458663
-0.0656662
-0.0808662
-0.0928431
-0.102225
-0.109373
-0.114293
-0.117108
-0.118026
-0.118181
-0.117873
-0.117628
-0.118515
-0.117822
-0.11717
-0.116688
-0.116298
-0.115676
-0.114991
-0.114331
-0.113741
-0.113241
-0.112653
-0.112013
-0.111377
-0.110794
-0.110414
-0.110034
-0.109587
-0.109029
-0.108266
-0.107049
-0.104651
-0.105515
-0.105917
-0.106472
-0.106791
-0.106988
-0.107146
-0.107308
-0.107498
-0.107717
-0.107735
-0.107729
-0.107903
-0.107934
-0.108031
-0.108247
-0.108649
-0.108967
-0.108871
-0.108779
-0.108854
-0.109952
-0.110343
-0.110583
-0.10996
-0.106786
-0.0986301
0
0
-0.0191174
-0.0458661
-0.0656603
-0.0808542
-0.0928743
-0.102367
-0.109677
-0.11456
-0.117326
-0.107299
-0.118237
-0.118272
-0.118014
-0.118027
-0.117639
-0.117165
-0.116806
-0.116153
-0.115488
-0.11484
-0.114237
-0.113736
-0.113447
-0.112815
-0.112132
-0.11152
-0.111014
-0.110618
-0.110146
-0.109639
-0.10902
-0.107995
-0.105499
-0.0516849
-0.102647
-0.0970645
-0.105991
-0.106827
-0.107174
-0.10737
-0.10753
-0.107683
-0.107774
-0.107794
-0.107795
-0.107835
-0.10785
-0.107903
-0.10809
-0.108715
-0.10927
-0.108887
-0.108795
-0.108992
-0.109652
-0.110182
-0.110614
-0.110295
-0.106839
-0.0985552
0
0
-0.0191203
-0.0458709
-0.0656661
-0.0808664
-0.0929185
-0.102513
-0.115427
-0.114957
-0.117665
-0.118576
-0.118843
-0.118555
-0.118123
-0.117744
-0.117348
-0.117034
-0.122334
-0.116217
-0.115379
-0.11471
-0.114113
-0.113637
-0.113585
-0.112727
-0.111995
-0.111446
-0.111015
-0.110687
-0.110225
-0.10976
-0.109279
-0.108342
-0.106818
-0.104024
-0.105255
-0.105909
-0.106698
-0.107151
-0.107394
-0.107554
-0.107716
-0.1079
-0.107911
-0.107857
-0.107809
-0.107785
-0.107768
-0.107751
-0.107788
-0.108647
-0.10946
-0.108666
-0.108711
-0.108971
-0.109407
-0.109872
-0.110309
-0.110391
-0.106596
-0.0983528
0
0
-0.0191254
-0.0458818
-0.0656799
-0.0808813
-0.0929337
-0.102504
-0.109956
-0.11504
-0.117929
-0.119043
-0.119105
-0.118665
-0.118107
-0.117588
-0.11712
-0.116719
-0.116478
-0.115824
-0.115189
-0.114576
-0.113946
-0.113208
-0.111919
-0.111673
-0.111434
-0.111185
-0.110889
-0.110482
-0.110194
-0.109935
-0.11323
-0.108972
-0.108051
-0.107229
-0.107157
-0.107237
-0.107397
-0.107523
-0.10761
-0.1077
-0.107869
-0.108175
-0.108037
-0.107873
-0.107776
-0.10773
-0.107705
-0.107676
-0.107632
-0.107578
-0.106848
-0.108134
-0.108547
-0.108853
-0.10917
-0.109373
-0.109013
-0.107148
-0.105409
-0.0980395
0
0
-0.0191343
-0.0459029
-0.065705
-0.0808994
-0.0929359
-0.102479
-0.109865
-0.11535
-0.118191
-0.1192
-0.119141
-0.118622
-0.118008
-0.117436
-0.116916
-0.116429
-0.11603
-0.115585
-0.115084
-0.114525
-0.11391
-0.11373
-0.11237
-0.111841
-0.111394
-0.111208
-0.110986
-0.110676
-0.110362
-0.110054
-0.109793
-0.109228
-0.108694
-0.108275
-0.108037
-0.107905
-0.107835
-0.10779
-0.107758
-0.107754
-0.10786
-0.108306
-0.107924
-0.107728
-0.107664
-0.107647
-0.107644
-0.107639
-0.10762
-0.107566
-0.107451
-0.107988
-0.108394
-0.108728
-0.109043
-0.109283
-0.109177
-0.108025
-0.105517
-0.0979592
0
0
-0.0191516
-0.045947
-0.0657568
-0.0809294
-0.0929295
-0.102419
-0.109766
-0.115653
-0.118052
-0.118893
-0.118837
-0.118368
-0.117797
-0.117241
-0.1167
-0.116125
-0.115825
-0.115555
-0.11514
-0.114593
-0.113935
-0.113299
-0.112617
-0.111976
-0.111317
-0.111412
-0.111253
-0.110935
-0.110572
-0.110201
-0.109828
-0.109416
-0.109027
-0.108701
-0.108444
-0.108244
-0.108085
-0.107951
-0.107826
-0.107674
-0.10738
-0.106676
-0.107073
-0.107351
-0.107483
-0.107543
-0.107575
-0.1076
-0.107629
-0.107672
-0.107766
-0.108028
-0.10833
-0.108647
-0.108996
-0.109374
-0.111144
-0.108616
-0.105758
-0.0979877
0
0
-0.0191903
-0.0460503
-0.0658771
-0.0809908
-0.0929235
-0.102274
-0.109134
-0.11279
-0.11607
-0.117767
-0.118198
-0.117992
-0.117559
-0.117061
-0.116561
-0.115672
-0.115761
-0.115792
-0.115408
-0.114806
-0.11401
-0.113388
-0.112781
-0.112079
-0.111064
-0.111888
-0.111611
-0.11118
-0.110745
-0.110334
-0.109942
-0.109569
-0.109228
-0.108929
-0.108669
-0.108441
-0.108237
-0.10805
-0.107869
-0.107671
-0.107421
-0.107121
-0.107197
-0.107334
-0.107425
-0.107474
-0.107504
-0.107539
-0.107594
-0.107681
-0.107818
-0.108019
-0.108271
-0.108575
-0.10894
-0.109335
-0.109541
-0.108739
-0.105869
-0.0980261
0
0
-0.0192842
-0.0463237
-0.066164
-0.0811206
-0.0929939
-0.102293
-0.109183
-0.113617
-0.116492
-0.117907
-0.118237
-0.117994
-0.117539
-0.117059
-0.121045
-0.114778
-0.116063
-0.116461
-0.115907
-0.115182
-0.114212
-0.113678
-0.113127
-0.112518
-0.111927
-0.111877
-0.111597
-0.111203
-0.11079
-0.110392
-0.110018
-0.109674
-0.109363
-0.109085
-0.108826
-0.10858
-0.108342
-0.108113
-0.107889
-0.107671
-0.107482
-0.10737
-0.107376
-0.107411
-0.107426
-0.107423
-0.107422
-0.107445
-0.107504
-0.107606
-0.107752
-0.107944
-0.108183
-0.108481
-0.108858
-0.109269
-0.109438
-0.108715
-0.105918
-0.0980545
0
0
-0.0195115
-0.0471977
-0.0666715
-0.081498
-0.0932357
-0.10246
-0.109387
-0.114109
-0.116937
-0.118217
-0.118445
-0.118127
-0.117591
-0.11691
-0.115824
-0.11254
-0.117185
-0.117224
-0.116457
-0.115516
-0.115318
-0.114468
-0.113655
-0.112995
-0.112566
-0.112107
-0.111639
-0.111194
-0.110782
-0.110405
-0.110059
-0.109748
-0.109472
-0.109225
-0.108972
-0.108704
-0.108428
-0.108148
-0.107866
-0.107597
-0.107409
-0.107409
-0.107465
-0.107476
-0.107428
-0.107359
-0.107306
-0.107301
-0.107354
-0.107463
-0.107619
-0.107818
-0.108055
-0.108348
-0.108746
-0.109216
-0.109383
-0.108643
-0.105945
-0.0980814
0
0
-0.0199701
-0.0649939
-0.0678688
-0.0820125
-0.0934766
-0.10259
-0.109492
-0.114251
-0.117105
-0.118376
-0.118586
-0.118251
-0.117701
-0.11703
-0.116196
-0.115013
-0.11613
-0.11635
-0.115997
-0.115464
-0.114974
-0.114334
-0.113674
-0.113107
-0.11285
-0.112166
-0.111599
-0.111145
-0.110754
-0.110406
-0.110093
-0.109818
-0.109591
-0.109401
-0.10915
-0.108842
-0.108507
-0.108157
-0.107788
-0.107393
-0.10714
-0.107352
-0.107543
-0.107545
-0.107411
-0.107239
-0.107105
-0.107057
-0.107103
-0.107228
-0.107415
-0.107642
-0.107888
-0.108169
-0.108604
-0.109201
-0.109391
-0.108687
-0.105867
-0.098101
0
0
-0.0195833
-0.0473678
-0.066775
-0.0815574
-0.0932216
-0.102428
-0.109352
-0.113991
-0.117001
-0.118372
-0.118641
-0.118346
-0.117831
-0.117224
-0.116761
-0.116259
-0.116182
-0.115996
-0.115636
-0.115174
-0.114675
-0.114133
-0.113554
-0.112893
-0.111924
-0.111626
-0.111353
-0.111046
-0.110727
-0.110421
-0.110137
-0.109898
-0.109738
-0.109664
-0.109384
-0.108992
-0.108575
-0.108147
-0.107682