# vtk DataFile Version 2.0
FlowField
ASCII
DATASET STRUCTURED_GRID
DIMENSIONS 62 47 32 
POINTS 93248 double
0 0 0
0.01 0 0
0.02 0 0
0.03 0 0
0.04 0 0
0.05 0 0
0.06 0 0
0.07 0 0
0.08 0 0
0.09 0 0
0.1 0 0
0.11 0 0
0.12 0 0
0.13 0 0
0.14 0 0
0.15 0 0
0.16 0 0
0.17 0 0
0.18 0 0
0.19 0 0
0.2 0 0
0.21 0 0
0.22 0 0
0.23 0 0
0.24 0 0
0.25 0 0
0.26 0 0
0.27 0 0
0.28 0 0
0.29 0 0
0.3 0 0
0.31 0 0
0.32 0 0
0.33 0 0
0.34 0 0
0.35 0 0
0.36 0 0
0.37 0 0
0.38 0 0
0.39 0 0
0.4 0 0
0.41 0 0
0.42 0 0
0.43 0 0
0.44 0 0
0.45 0 0
0.46 0 0
0.47 0 0
0.48 0 0
0.49 0 0
0.5 0 0
0.51 0 0
0.52 0 0
0.53 0 0
0.54 0 0
0.55 0 0
0.56 0 0
0.57 0 0
0.58 0 0
0.59 0 0
0.6 0 0
0.61 0 0
0 0.01 0
0.01 0.01 0
0.02 0.01 0
0.03 0.01 0
0.04 0.01 0
0.05 0.01 0
0.06 0.01 0
0.07 0.01 0
0.08 0.01 0
0.09 0.01 0
0.1 0.01 0
0.11 0.01 0
0.12 0.01 0
0.13 0.01 0
0.14 0.01 0
0.15 0.01 0
0.16 0.01 0
0.17 0.01 0
0.18 0.01 0
0.19 0.01 0
0.2 0.01 0
0.21 0.01 0
0.22 0.01 0
0.23 0.01 0
0.24 0.01 0
0.25 0.01 0
0.26 0.01 0
0.27 0.01 0
0.28 0.01 0
0.29 0.01 0
0.3 0.01 0
0.31 0.01 0
0.32 0.01 0
0.33 0.01 0
0.34 0.01 0
0.35 0.01 0
0.36 0.01 0
0.37 0.01 0
0.38 0.01 0
0.39 0.01 0
0.4 0.01 0
0.41 0.01 0
0.42 0.01 0
0.43 0.01 0
0.44 0.01 0
0.45 0.01 0
0.46 0.01 0
0.47 0.01 0
0.48 0.01 0
0.49 0.01 0
0.5 0.01 0
0.51 0.01 0
0.52 0.01 0
0.53 0.01 0
0.54 0.01 0
0.55 0.01 0
0.56 0.01 0
0.57 0.01 0
0.58 0.01 0
0.59 0.01 0
0.6 0.01 0
0.61 0.01 0
0 0.02 0
0.01 0.02 0
0.02 0.02 0
0.03 0.02 0
0.04 0.02 0
0.05 0.02 0
0.06 0.02 0
0.07 0.02 0
0.08 0.02 0
0.09 0.02 0
0.1 0.02 0
0.11 0.02 0
0.12 0.02 0
0.13 0.02 0
0.14 0.02 0
0.15 0.02 0
0.16 0.02 0
0.17 0.02 0
0.18 0.02 0
0.19 0.02 0
0.2 0.02 0
0.21 0.02 0
0.22 0.02 0
0.23 0.02 0
0.24 0.02 0
0.25 0.02 0
0.26 0.02 0
0.27 0.02 0
0.28 0.02 0
0.29 0.02 0
0.3 0.02 0
0.31 0.02 0
0.32 0.02 0
0.33 0.02 0
0.34 0.02 0
0.35 0.02 0
0.36 0.02 0
0.37 0.02 0
0.38 0.02 0
0.39 0.02 0
0.4 0.02 0
0.41 0.02 0
0.42 0.02 0
0.43 0.02 0
0.44 0.02 0
0.45 0.02 0
0.46 0.02 0
0.47 0.02 0
0.48 0.02 0
0.49 0.02 0
0.5 0.02 0
0.51 0.02 0
0.52 0.02 0
0.53 0.02 0
0.54 0.02 0
0.55 0.02 0
0.56 0.02 0
0.57 0.02 0
0.58 0.02 0
0.59 0.02 0
0.6 0.02 0
0.61 0.02 0
0 0.03 0
0.01 0.03 0
0.02 0.03 0
0.03 0.03 0
0.04 0.03 0
0.05 0.03 0
0.06 0.03 0
0.07 0.03 0
0.08 0.03 0
0.09 0.03 0
0.1 0.03 0
0.11 0.03 0
0.12 0.03 0
0.13 0.03 0
0.14 0.03 0
0.15 0.03 0
0.16 0.03 0
0.17 0.03 0
0.18 0.03 0
0.19 0.03 0
0.2 0.03 0
0.21 0.03 0
0.22 0.03 0
0.23 0.03 0
0.24 0.03 0
0.25 0.03 0
0.26 0.03 0
0.27 0.03 0
0.28 0.03 0
0.29 0.03 0
0.3 0.03 0
0.31 0.03 0
0.32 0.03 0
0.33 0.03 0
0.34 0.03 0
0.35 0.03 0
0.36 0.03 0
0.37 0.03 0
0.38 0.03 0
0.39 0.03 0
0.4 0.03 0
0.41 0.03 0
0.42 0.03 0
0.43 0.03 0
0.44 0.03 0
0.45 0.03 0
0.46 0.03 0
0.47 0.03 0
0.48 0.03 0
0.49 0.03 0
0.5 0.03 0
0.51 0.03 0
0.52 0.03 0
0.53 0.03 0
0.54 0.03 0
0.55 0.03 0
0.56 0.03 0
0.57 0.03 0
0.58 0.03 0
0.59 0.03 0
0.6 0.03 0
0.61 0.03 0
0 0.04 0
0.01 0.04 0
0.02 0.04 0
0.03 0.04 0
0.04 0.04 0
0.05 0.04 0
0.06 0.04 0
0.07 0.04 0
0.08 0.04 0
0.09 0.04 0
0.1 0.04 0
0.11 0.04 0
0.12 0.04 0
0.13 0.04 0
0.14 0.04 0
0.15 0.04 0
0.16 0.04 0
0.17 0.04 0
0.18 0.04 0
0.19 0.04 0
0.2 0.04 0
0.21 0.04 0
0.22 0.04 0
0.23 0.04 0
0.24 0.04 0
0.25 0.04 0
0.26 0.04 0
0.27 0.04 0
0.28 0.04 0
0.29 0.04 0
0.3 0.04 0
0.31 0.04 0
0.32 0.04 0
0.33 0.04 0
0.34 0.04 0
0.35 0.04 0
0.36 0.04 0
0.37 0.04 0
0.38 0.04 0
0.39 0.04 0
0.4 0.04 0
0.41 0.04 0
0.42 0.04 0
0.43 0.04 0
0.44 0.04 0
0.45 0.04 0
0.46 0.04 0
0.47 0.04 0
0.48 0.04 0
0.49 0.04 0
0.5 0.04 0
0.51 0.04 0
0.52 0.04 0
0.53 0.04 0
0.54 0.04 0
0.55 0.04 0
0.56 0.04 0
0.57 0.04 0
0.58 0.04 0
0.59 0.04 0
0.6 0.04 0
0.61 0.04 0
0 0.05 0
0.01 0.05 0
0.02 0.05 0
0.03 0.05 0
0.04 0.05 0
0.05 0.05 0
0.06 0.05 0
0.07 0.05 0
0.08 0.05 0
0.09 0.05 0
0.1 0.05 0
0.11 0.05 0
0.12 0.05 0
0.13 0.05 0
0.14 0.05 0
0.15 0.05 0
0.16 0.05 0
0.17 0.05 0
0.18 0.05 0
0.19 0.05 0
0.2 0.05 0
0.21 0.05 0
0.22 0.05 0
0.23 0.05 0
0.24 0.05 0
0.25 0.05 0
0.26 0.05 0
0.27 0.05 0
0.28 0.05 0
0.29 0.05 0
0.3 0.05 0
0.31 0.05 0
0.32 0.05 0
0.33 0.05 0
0.34 0.05 0
0.35 0.05 0
0.36 0.05 0
0.37 0.05 0
0.38 0.05 0
0.39 0.05 0
0.4 0.05 0
0.41 0.05 0
0.42 0.05 0
0.43 0.05 0
0.44 0.05 0
0.45 0.05 0
0.46 0.05 0
0.47 0.05 0
0.48 0.05 0
0.49 0.05 0
0.5 0.05 0
0.51 0.05 0
0.52 0.05 0
0.53 0.05 0
0.54 0.05 0
0.55 0.05 0
0.56 0.05 0
0.57 0.05 0
0.58 0.05 0
0.59 0.05 0
0.6 0.05 0
0.61 0.05 0
0 0.06 0
0.01 0.06 0
0.02 0.06 0
0.03 0.06 0
0.04 0.06 0
0.05 0.06 0
0.06 0.06 0
0.07 0.06 0
0.08 0.06 0
0.09 0.06 0
0.1 0.06 0
0.11 0.06 0
0.12 0.06 0
0.13 0.06 0
0.14 0.06 0
0.15 0.06 0
0.16 0.06 0
0.17 0.06 0
0.18 0.06 0
0.19 0.06 0
0.2 0.06 0
0.21 0.06 0
0.22 0.06 0
0.23 0.06 0
0.24 0.06 0
0.25 0.06 0
0.26 0.06 0
0.27 0.06 0
0.28 0.06 0
0.29 0.06 0
0.3 0.06 0
0.31 0.06 0
0.32 0.06 0
0.33 0.06 0
0.34 0.06 0
0.35 0.06 0
0.36 0.06 0
0.37 0.06 0
0.38 0.06 0
0.39 0.06 0
0.4 0.06 0
0.41 0.06 0
0.42 0.06 0
0.43 0.06 0
0.44 0.06 0
0.45 0.06 0
0.46 0.06 0
0.47 0.06 0
0.48 0.06 0
0.49 0.06 0
0.5 0.06 0
0.51 0.06 0
0.52 0.06 0
0.53 0.06 0
0.54 0.06 0
0.55 0.06 0
0.56 0.06 0
0.57 0.06 0
0.58 0.06 0
0.59 0.06 0
0.6 0.06 0
0.61 0.06 0
0 0.07 0
0.01 0.07 0
0.02 0.07 0
0.03 0.07 0
0.04 0.07 0
0.05 0.07 0
0.06 0.07 0
0.07 0.07 0
0.08 0.07 0
0.09 0.07 0
0.1 0.07 0
0.11 0.07 0
0.12 0.07 0
0.13 0.07 0
0.14 0.07 0
0.15 0.07 0
0.16 0.07 0
0.17 0.07 0
0.18 0.07 0
0.19 0.07 0
0.2 0.07 0
0.21 0.07 0
0.22 0.07 0
0.23 0.07 0
0.24 0.07 0
0.25 0.07 0
0.26 0.07 0
0.27 0.07 0
0.28 0.07 0
0.29 0.07 0
0.3 0.07 0
0.31 0.07 0
0.32 0.07 0
0.33 0.07 0
0.34 0.07 0
0.35 0.07 0
0.36 0.07 0
0.37 0.07 0
0.38 0.07 0
0.39 0.07 0
0.4 0.07 0
0.41 0.07 0
0.42 0.07 0
0.43 0.07 0
0.44 0.07 0
0.45 0.07 0
0.46 0.07 0
0.47 0.07 0
0.48 0.07 0
0.49 0.07 0
0.5 0.07 0
0.51 0.07 0
0.52 0.07 0
0.53 0.07 0
0.54 0.07 0
0.55 0.07 0
0.56 0.07 0
0.57 0.07 0
0.58 0.07 0
0.59 0.07 0
0.6 0.07 0
0.61 0.07 0
0 0.08 0
0.01 0.08 0
0.02 0.08 0
0.03 0.08 0
0.04 0.08 0
0.05 0.08 0
0.06 0.08 0
0.07 0.08 0
0.08 0.08 0
0.09 0.08 0
0.1 0.08 0
0.11 0.08 0
0.12 0.08 0
0.13 0.08 0
0.14 0.08 0
0.15 0.08 0
0.16 0.08 0
0.17 0.08 0
0.18 0.08 0
0.19 0.08 0
0.2 0.08 0
0.21 0.08 0
0.22 0.08 0
0.23 0.08 0
0.24 0.08 0
0.25 0.08 0
0.26 0.08 0
0.27 0.08 0
0.28 0.08 0
0.29 0.08 0
0.3 0.08 0
0.31 0.08 0
0.32 0.08 0
0.33 0.08 0
0.34 0.08 0
0.35 0.08 0
0.36 0.08 0
0.37 0.08 0
0.38 0.08 0
0.39 0.08 0
0.4 0.08 0
0.41 0.08 0
0.42 0.08 0
0.43 0.08 0
0.44 0.08 0
0.45 0.08 0
0.46 0.08 0
0.47 0.08 0
0.48 0.08 0
0.49 0.08 0
0.5 0.08 0
0.51 0.08 0
0.52 0.08 0
0.53 0.08 0
0.54 0.08 0
0.55 0.08 0
0.56 0.08 0
0.57 0.08 0
0.58 0.08 0
0.59 0.08 0
0.6 0.08 0
0.61 0.08 0
0 0.09 0
0.01 0.09 0
0.02 0.09 0
0.03 0.09 0
0.04 0.09 0
0.05 0.09 0
0.06 0.09 0
0.07 0.09 0
0.08 0.09 0
0.09 0.09 0
0.1 0.09 0
0.11 0.09 0
0.12 0.09 0
0.13 0.09 0
0.14 0.09 0
0.15 0.09 0
0.16 0.09 0
0.17 0.09 0
0.18 0.09 0
0.19 0.09 0
0.2 0.09 0
0.21 0.09 0
0.22 0.09 0
0.23 0.09 0
0.24 0.09 0
0.25 0.09 0
0.26 0.09 0
0.27 0.09 0
0.28 0.09 0
0.29 0.09 0
0.3 0.09 0
0.31 0.09 0
0.32 0.09 0
0.33 0.09 0
0.34 0.09 0
0.35 0.09 0
0.36 0.09 0
0.37 0.09 0
0.38 0.09 0
0.39 0.09 0
0.4 0.09 0
0.41 0.09 0
0.42 0.09 0
0.43 0.09 0
0.44 0.09 0
0.45 0.09 0
0.46 0.09 0
0.47 0.09 0
0.48 0.09 0
0.49 0.09 0
0.5 0.09 0
0.51 0.09 0
0.52 0.09 0
0.53 0.09 0
0.54 0.09 0
0.55 0.09 0
0.56 0.09 0
0.57 0.09 0
0.58 0.09 0
0.59 0.09 0
0.6 0.09 0
0.61 0.09 0
0 0.1 0
0.01 0.1 0
0.02 0.1 0
0.03 0.1 0
0.04 0.1 0
0.05 0.1 0
0.06 0.1 0
0.07 0.1 0
0.08 0.1 0
0.09 0.1 0
0.1 0.1 0
0.11 0.1 0
0.12 0.1 0
0.13 0.1 0
0.14 0.1 0
0.15 0.1 0
0.16 0.1 0
0.17 0.1 0
0.18 0.1 0
0.19 0.1 0
0.2 0.1 0
0.21 0.1 0
0.22 0.1 0
0.23 0.1 0
0.24 0.1 0
0.25 0.1 0
0.26 0.1 0
0.27 0.1 0
0.28 0.1 0
0.29 0.1 0
0.3 0.1 0
0.31 0.1 0
0.32 0.1 0
0.33 0.1 0
0.34 0.1 0
0.35 0.1 0
0.36 0.1 0
0.37 0.1 0
0.38 0.1 0
0.39 0.1 0
0.4 0.1 0
0.41 0.1 0
0.42 0.1 0
0.43 0.1 0
0.44 0.1 0
0.45 0.1 0
0.46 0.1 0
0.47 0.1 0
0.48 0.1 0
0.49 0.1 0
0.5 0.1 0
0.51 0.1 0
0.52 0.1 0
0.53 0.1 0
0.54 0.1 0
0.55 0.1 0
0.56 0.1 0
0.57 0.1 0
0.58 0.1 0
0.59 0.1 0
0.6 0.1 0
0.61 0.1 0
0 0.11 0
0.01 0.11 0
0.02 0.11 0
0.03 0.11 0
0.04 0.11 0
0.05 0.11 0
0.06 0.11 0
0.07 0.11 0
0.08 0.11 0
0.09 0.11 0
0.1 0.11 0
0.11 0.11 0
0.12 0.11 0
0.13 0.11 0
0.14 0.11 0
0.15 0.11 0
0.16 0.11 0
0.17 0.11 0
0.18 0.11 0
0.19 0.11 0
0.2 0.11 0
0.21 0.11 0
0.22 0.11 0
0.23 0.11 0
0.24 0.11 0
0.25 0.11 0
0.26 0.11 0
0.27 0.11 0
0.28 0.11 0
0.29 0.11 0
0.3 0.11 0
0.31 0.11 0
0.32 0.11 0
0.33 0.11 0
0.34 0.11 0
0.35 0.11 0
0.36 0.11 0
0.37 0.11 0
0.38 0.11 0
0.39 0.11 0
0.4 0.11 0
0.41 0.11 0
0.42 0.11 0
0.43 0.11 0
0.44 0.11 0
0.45 0.11 0
0.46 0.11 0
0.47 0.11 0
0.48 0.11 0
0.49 0.11 0
0.5 0.11 0
0.51 0.11 0
0.52 0.11 0
0.53 0.11 0
0.54 0.11 0
0.55 0.11 0
0.56 0.11 0
0.57 0.11 0
0.58 0.11 0
0.59 0.11 0
0.6 0.11 0
0.61 0.11 0
0 0.12 0
0.01 0.12 0
0.02 0.12 0
0.03 0.12 0
0.04 0.12 0
0.05 0.12 0
0.06 0.12 0
0.07 0.12 0
0.08 0.12 0
0.09 0.12 0
0.1 0.12 0
0.11 0.12 0
0.12 0.12 0
0.13 0.12 0
0.14 0.12 0
0.15 0.12 0
0.16 0.12 0
0.17 0.12 0
0.18 0.12 0
0.19 0.12 0
0.2 0.12 0
0.21 0.12 0
0.22 0.12 0
0.23 0.12 0
0.24 0.12 0
0.25 0.12 0
0.26 0.12 0
0.27 0.12 0
0.28 0.12 0
0.29 0.12 0
0.3 0.12 0
0.31 0.12 0
0.32 0.12 0
0.33 0.12 0
0.34 0.12 0
0.35 0.12 0
0.36 0.12 0
0.37 0.12 0
0.38 0.12 0
0.39 0.12 0
0.4 0.12 0
0.41 0.12 0
0.42 0.12 0
0.43 0.12 0
0.44 0.12 0
0.45 0.12 0
0.46 0.12 0
0.47 0.12 0
0.48 0.12 0
0.49 0.12 0
0.5 0.12 0
0.51 0.12 0
0.52 0.12 0
0.53 0.12 0
0.54 0.12 0
0.55 0.12 0
0.56 0.12 0
0.57 0.12 0
0.58 0.12 0
0.59 0.12 0
0.6 0.12 0
0.61 0.12 0
0 0.13 0
0.01 0.13 0
0.02 0.13 0
0.03 0.13 0
0.04 0.13 0
0.05 0.13 0
0.06 0.13 0
0.07 0.13 0
0.08 0.13 0
0.09 0.13 0
0.1 0.13 0
0.11 0.13 0
0.12 0.13 0
0.13 0.13 0
0.14 0.13 0
0.15 0.13 0
0.16 0.13 0
0.17 0.13 0
0.18 0.13 0
0.19 0.13 0
0.2 0.13 0
0.21 0.13 0
0.22 0.13 0
0.23 0.13 0
0.24 0.13 0
0.25 0.13 0
0.26 0.13 0
0.27 0.13 0
0.28 0.13 0
0.29 0.13 0
0.3 0.13 0
0.31 0.13 0
0.32 0.13 0
0.33 0.13 0
0.34 0.13 0
0.35 0.13 0
0.36 0.13 0
0.37 0.13 0
0.38 0.13 0
0.39 0.13 0
0.4 0.13 0
0.41 0.13 0
0.42 0.13 0
0.43 0.13 0
0.44 0.13 0
0.45 0.13 0
0.46 0.13 0
0.47 0.13 0
0.48 0.13 0
[...]
POINT_DATA 93248

SCALARS w double
LOOKUP_TABLE default
0
0
0
0
0
0
0
0
0
0
0
0
0
-0.0226009
0
0
0
0
0
0
0
0
0
0
0
0
-0.0328443
0
0
0
0
0
-0.0310019
0
0
0
0
0
0
0
0
0
0
0
0
0
-0.0297654
0
0
0
0
0
0
0
0
0
0
0
0
0
0
0
0
-0.0120627
-0.0189644
-0.0220883
-0.0225648
-0.0231367
-0.024897
-0.0263639
-0.027338
-0.0279162
-0.0282674
-0.0285251
-0.0286193
-0.0287714
-0.0289141
-0.0290409
-0.0291193
-0.0292095
-0.0292819
-0.0293539
-0.0286907
-0.0286934
-0.0288023
-0.0289118
-0.028959
-0.0289712
-0.0289672
-0.028955
-0.0289369
-0.0289119
-0.0288749
-0.0288123
-0.0287042
-0.0286439
-0.0285103
-0.0281182
-0.0273821
-0.0262856
-0.0261152
-0.0343163
-0.0293406
-0.029654
-0.029648
-0.0295318
-0.0296353
-0.0389286
-0.0289214
-0.028865
-0.0288861
-0.0290378
-0.0293002
-0.0297793
-0.028136
-0.0289084
-0.0388747
-0.0294894
-0.0294154
-0.0281149
-0.0284896
-0.0284349
-0.0275876
0
0
-0.0138821
-0.0276547
-0.0300363
-0.0290027
-0.028668
-0.0309164
-0.0342333
-0.0366761
-0.0380874
-0.0388545
-0.0394639
-0.0396142
-0.0399649
-0.040193
-0.0404088
-0.0405335
-0.0407347
-0.0408989
-0.0414458
-0.0395966
-0.0398872
-0.040171
-0.0403041
-0.040397
-0.0404238
-0.040424
-0.040412
-0.0403925
-0.0403655
-0.0403262
-0.0402532
-0.0400564
-0.040051
-0.039978
-0.0394174
-0.0384252
-0.0358915
-0.0316518
-0.0465856
-0.0451345
-0.0431601
-0.0418659
-0.0412449
-0.0411548
-0.0413513
-0.040901
-0.0404289
-0.0403342
-0.0404722
-0.0405121
-0.0389953
-0.0401029
-0.0404264
-0.0408652
-0.0407997
-0.0408071
-0.0399762
-0.0400646
-0.0396516
-0.0377524
0
0
-0.0138314
-0.0266432
-0.0296926
-0.0289392
-0.0231367
-0.0310587
-0.0345645
-0.0372067
-0.0387238
-0.0394316
-0.0404192
-0.041064
-0.0411061
-0.0411262
-0.0411193
-0.0412772
-0.0416792
-0.041659
-0.0417532
-0.0415838
-0.0413276
-0.0412505
-0.0412621
-0.0412729
-0.0412727
-0.0412644
-0.0412498
-0.0412305
-0.0412071
-0.0411819
-0.0411701
-0.0412375
-0.0399292
-0.0410956
-0.0403194
-0.0397366
-0.0385964
-0.0375085
-0.0429912
-0.0439168
-0.043171
-0.0424104
-0.0418922
-0.0419118
-0.0422355
-0.0411613
-0.0410124
-0.0409125
-0.0413777
-0.0412965
-0.0412046
-0.0411512
-0.0412457
-0.0413772
-0.0414091
-0.0414486
-0.0414265
-0.0411557
-0.0405376
-0.0383857
0
0
-0.0136145
-0.0255702
-0.0245932
-0.0282899
-0.0285236
-0.0311149
-0.0343545
-0.0368183
-0.0382666
-0.0390718
-0.0397416
-0.0401927
-0.0403702
-0.0404298
-0.0403872
-0.0404423
-0.0402318
-0.0404621
-0.0406443
-0.0407498
-0.0407186
-0.0406784
-0.0406583
-0.0406453
-0.0406334
-0.0406195
-0.0406028
-0.0405835
-0.0405614
-0.0405375
-0.0405151
-0.0404962
-0.0403847
-0.0403474
-0.0400311
-0.0397374
-0.0393963
-0.0395528
-0.0409613
-0.0415891
-0.0414735
-0.0412037
-0.0410053
-0.0409941
-0.041082
-0.0407894
-0.0405604
-0.0404649
-0.0405689
-0.0405557
-0.0405326
-0.0405279
-0.0405644
-0.0406117
-0.0406367
-0.0406562
-0.0406527
-0.0405135
-0.0399057
-0.0377666
0
0
-0.0134687
-0.0251287
-0.028024
-0.0278377
-0.028425
-0.0310545
-0.0342
-0.03656
-0.0379448
-0.0387402
-0.039263
-0.0396044
-0.0397862
-0.0398269
-0.0379411
-0.0398166
-0.0398739
-0.0399833
-0.0400928
-0.0401671
-0.0401812
-0.040171
-0.0401564
-0.0401419
-0.040127
-0.0401106
-0.0400929
-0.0400739
-0.0400528
-0.0400278
-0.039993
-0.0399292
-0.0397905
-0.039782
-0.0397047
-0.0396089
-0.0395417
-0.0396385
-0.0401041
-0.0403801
-0.0404135
-0.0403495
-0.040284
-0.0402705
-0.0403343
-0.0405367
-0.0401633
-0.0400173
-0.039999
-0.0399884
-0.0399842
-0.0399966
-0.0400306
-0.0400615
-0.0400762
-0.0400776
-0.0400572
-0.0399379
-0.0393368
-0.0372701
0
0
-0.0133829
-0.0249129
-0.0277161
-0.0275357
-0.0282519
-0.0309401
-0.0340381
-0.0363907
-0.0377522
-0.0385188
-0.0389839
-0.0392788
-0.0394612
-0.0395522
-0.0395277
-0.0395967
-0.0397094
-0.0391811
-0.0398111
-0.0398515
-0.0398606
-0.0398555
-0.0398445
-0.0398308
-0.0398153
-0.0397971
-0.0397791
-0.0397613
-0.0397429
-0.0397207
-0.0396841
-0.0395952
-0.0392829
-0.0394538
-0.0394929
-0.0394855
-0.0394873
-0.0395528
-0.0397055
-0.0398204
-0.0398605
-0.0398521
-0.0398211
-0.0397694
-0.0396283
-0.0392143
-0.0394558
-0.0395774
-0.0396159
-0.039617
-0.0396148
-0.0396398
-0.0397114
-0.0397546
-0.0397612
-0.0397419
-0.0396808
-0.0394736
-0.0387326
-0.0368235
0
0
-0.0133295
-0.0247841
-0.027521
-0.0273263
-0.0281019
-0.0308791
-0.0338376
-0.0361257
-0.0375282
-0.0383011
-0.0387667
-0.039073
-0.0392572
-0.0393582
-0.0393567
-0.0392424
-0.0395896
-0.0396976
-0.0396916
-0.0396758
-0.0396636
-0.0396556
-0.0396458
-0.039633
-0.0396183
-0.039596
-0.0395779
-0.0395632
-0.0395514
-0.0395408
-0.0395275
-0.0395631
-0.0398258
-0.0395841
-0.0394591
-0.0394035
-0.039396
-0.0394255
-0.0394819
-0.0395313
-0.0395564
-0.0395591
-0.0395392
-0.0394997
-0.0394096
-0.0392527
-0.0393113
-0.0393646
-0.0393709
-0.0393419
-0.039305
-0.0393322
-0.0395468
-0.0396318
-0.0396178
-0.0395665
-0.0394467
-0.0389645
-0.0284349
-0.0364277
0
0
-0.0132925
-0.0246972
-0.0273922
-0.027186
-0.0279936
-0.0307573
-0.0338363
-0.0360883
-0.0374093
-0.0381689
-0.0386479
-0.0389875
-0.0391472
-0.0392293
-0.0391369
-0.0384367
-0.0367797
-0.0397157
-0.039625
-0.0395603
-0.039522
-0.0395156
-0.0395097
-0.0394984
-0.0394877
-0.0394532
-0.0394368
-0.0394276
-0.0394284
-0.0394364
-0.0394074
-0.0394055
-0.039467
-0.0394016
-0.0393379
-0.039305
-0.039301
-0.0393142
-0.0393368
-0.0393584
-0.0393714
-0.0393737
-0.039364
-0.0393413
-0.0392998
-0.0392457
-0.0392394
-0.0392295
-0.0391823
-0.0390754
-0.0389059
-0.0388364
-0.0395688
-0.0397329
-0.0396352
-0.0395371
-0.0394955
-0.0394662
-0.0385201
-0.0365802
0
0
-0.0132659
-0.0246365
-0.0273034
-0.0270869
-0.0279174
-0.0307153
-0.0338246
-0.0360449
-0.0373335
-0.0380943
-0.0385956
-0.0396142
-0.0391745
-0.0392287
-0.0392204
-0.0390971
-0.0394191
-0.0395256
-0.0394965
-0.0394549
-0.039399
-0.0394177
-0.0394144
-0.0393991
-0.0393739
-0.0393502
-0.0393315
-0.0393263
-0.0393507
-0.0394131
-0.0393258
-0.0392726
-0.0392639
-0.0392445
-0.0392236
-0.0392078
-0.0392167
-0.0392255
-0.0392336
-0.0392418
-0.0392479
-0.0392494
-0.039245
-0.0392335
-0.0392139
-0.0391887
-0.0391651
-0.0391214
-0.0390168
-0.0387679
-0.0382383
-0.0363234
-0.0399997
-0.0401842
-0.0398115
-0.0395577
-0.0394532
-0.0393572
-0.0386931
-0.0366042
0
0
-0.0132467
-0.0245928
-0.027238
-0.0270038
-0.0278526
-0.030678
-0.0337955
-0.0360021
-0.0372808
-0.0380355
-0.0385208
-0.0388725
-0.03906
-0.0391855
-0.0392752
-0.0393016
-0.0393873
-0.0394172
-0.0394052
-0.0393857
-0.0394538
-0.0394129
-0.0393706
-0.0393299
-0.0390853
-0.0392557
-0.0392334
-0.0392267
-0.0392813
-0.0394785
-0.0392837
-0.0391904
-0.0391504
-0.039138
-0.0391298
-0.0391109
-0.0391466
-0.0391569
-0.0391551
-0.0391547
-0.0391567
-0.0391583
-0.0391577
-0.0391531
-0.0391434
-0.0391274
-0.0391009
-0.0390444
-0.0389036
-0.0385298
-0.0376091
-0.0363234
-0.0413724
-0.040855
-0.0400056
-0.0395729
-0.0394089
-0.0392854
-0.0386812
-0.0365899
0
0
-0.0132331
-0.0245622
-0.0271909
-0.0269172
-0.0278005
-0.0306464
-0.0337667
-0.0359676
-0.037241
-0.0379916
-0.038468
-0.0387866
-0.039
-0.0391684
-0.0393572
-0.0393914
-0.039388
-0.0393704
-0.0393393
-0.0392753
-0.0393935
-0.0393664
-0.0393182
-0.0392703
-0.0392202
-0.0391742
-0.0391248
-0.0390843
-0.039087
-0.0392083
-0.0394627
-0.0392055
-0.0390921
-0.039064
-0.0390601
-0.0390532
-0.0390483
-0.0390927
-0.0390852
-0.0390801
-0.0390807
-0.0390836
-0.0390877
-0.0390892
-0.0390861
-0.0390767
-0.0390562
-0.0390116
-0.0389104
-0.0386818
-0.0382545
-0.0380064
-0.0399618
-0.0400603
-0.0396937
-0.039448
-0.0393402
-0.0392325
-0.0386488
-0.0365658
0
0
-0.0132242
-0.024545
-0.0271819
-0.0270121
-0.027846
-0.0306641
-0.033762
-0.0359472
-0.037212
-0.0379565
-0.0384285
-0.0387401
-0.0389556
-0.0391441
-0.0395021
-0.0394228
-0.0393616
-0.0393226
-0.0392951
-0.0392722
-0.0392993
-0.0392884
-0.039255
-0.0392101
-0.0391535
-0.0390813
-0.0389883
-0.038878
-0.0387579
-0.0386874
-0.0383355
-0.0386225
-0.0388258
-0.0389332
-0.0389794
-0.0389932
-0.0389943
-0.0390042
-0.039002
-0.039002
-0.0390067
-0.0390098
-0.0390249
-0.0390349
-0.039039
-0.0390369
-0.0390267
-0.0390037
-0.0389561
-0.0388597
-0.0387356
-0.0387577
-0.0393414
-0.0394746
-0.0393923
-0.0393112
-0.0392705
-0.0391874
-0.038617
-0.0365411
0
0
-0.0132179
-0.0245307
-0.0271572
-0.0269506
-0.02781
-0.0306397
-0.0337409
-0.0359252
-0.0371882
-0.0379259
-0.0383977
-0.0387025
-0.0388951
-0.0389761
-0.0387857
-0.0389806
-0.0391192
-0.0391917
-0.0392088
-0.0392237
-0.0392388
-0.0392324
-0.0392044
-0.039157
-0.0390853
-0.0389763
-0.0388095
-0.038562
-0.0381486
-0.0382547
-0.038341
-0.0385639
-0.0387513
-0.0388632
-0.0389152
-0.0389303
-0.0389273
-0.0389167
-0.0389083
-0.0389124
-0.038923
-0.038601
-0.0389595
-0.0389853
-0.0389984
-0.0390041
-0.0390048
-0.0390035
-0.0390018
-0.0389601
-0.0389332
-0.0389781
-0.0391523
-0.0392247
-0.0392265
-0.0392185
-0.0392226
-0.0391527
-0.0385902
-0.0365193
0
0
-0.0132148
-0.0245247
-0.0271417
-0.027186
-0.0277833
-0.0306157
-0.0337212
-0.0359083
-0.0371739
-0.0379236
-0.0383844
-0.038682
-0.0388701
-0.0389666
-0.0389547
-0.0390323
-0.0391146
-0.0391527
-0.0391158
-0.0391541
-0.0391888
-0.0391922
-0.039167
-0.0391141
-0.0390235
-0.0388646
-0.0385674
-0.0379481
-0.0358777
-0.0371242
-0.0379715
-0.0384373
-0.038684
-0.0388065
-0.0388563
-0.0388621
-0.0389309
-0.0388045
-0.0387764
-0.0387897
-0.0388265
-0.038864
-0.0389084
-0.0389408
-0.0389621
-0.0389749
-0.0389832
-0.0389973
-0.0390498
-0.038997
-0.0389919
-0.0390319
-0.0391244
-0.0391373
-0.0391471
-0.0391665
-0.0394736
-0.0391329
-0.0385706
-0.036502
0
0
-0.0132172
-0.0245378
-0.0271474
-0.0269052
-0.0277588
-0.0305943
-0.0337055
-0.0358973
-0.0371646
-0.0379086
-0.0383706
-0.0386676
-0.0388596
-0.0389776
-0.0390397
-0.0391001
-0.0391479
-0.0391474
-0.0389592
-0.0390966
-0.0391599
-0.0391713
-0.0391443
-0.0390863
-0.0389819
-0.0387772
-0.0382836
-0.0364957
0.0230552
-0.0341186
-0.0371674
-0.038215
-0.0386062
-0.0387548
-0.0387999
-0.0387828
-0.0387189
-0.0386203
-0.0385323
-0.0385824
-0.0386805
-0.0387727
-0.0388452
-0.0388957
-0.0389286
-0.038947
-0.0389535
-0.0389417
-0.0388837
-0.0389404
-0.0389833
-0.0390525
-0.0399997
-0.0391249
-0.0391073
-0.0391215
-0.0391639
-0.0391127
-0.038558
-0.0364902
0
0
-0.0132264
-0.0245946
-0.0271905
-0.0269144
-0.0277481
-0.0305721
-0.0336946
-0.0358972
-0.0371685
-0.0379091
-0.0383667
-0.0386597
-0.0388522
-0.0389801
-0.039067
-0.0391327
-0.0391864
-0.0392558
-0.0394845
-0.0393473
-0.0392558
-0.0391939
-0.0391424
-0.0390784
-0.0389797
-0.0388054
-0.0384626
-0.0376978
-0.0356536
-0.037024
-0.0379584
-0.0384287
-0.0386463
-0.0387343
-0.0387539
-0.0386962
-0.0385455
-0.0382802
-0.0378969
-0.0381455
-0.038437
-0.0386419
-0.0387713
-0.0388509
-0.0388999
-0.0389243
-0.0389342
-0.0389277
-0.0389074
-0.0389138
-0.038956
-0.0390045
-0.0390671
-0.0390627
-0.03909
-0.0390808
-0.0391603
-0.0391179
-0.0385581
-0.036485
0
0
-0.013228
-0.0246997
-0.0272255
-0.0269093
-0.0277233
-0.0305307
-0.0336983
-0.0359206
-0.037194
-0.0379277
-0.0383761
-0.0386582
-0.0388427
-0.0389716
-0.0390716
-0.0391462
-0.0391987
-0.039246
-0.039319
-0.0392863
-0.0392331
-0.0391853
-0.0391381
-0.0390809
-0.0389998
-0.0388742
-0.0386739
-0.0383693
-0.0379634
-0.0381667
-0.038425
-0.0386005
-0.0386881
-0.0387103
-0.0387233
-0.0386174
-0.0383085
-0.037539
-0.0353832
-0.0369817
-0.0379893
-0.0384673
-0.0386941
-0.0388108
-0.0388799
-0.0389066
-0.0389197
-0.0389174
-0.0388887
-0.038833
-0.0389075
-0.0389664
-0.0390027
-0.0390363
-0.0406367
-0.0390149
-0.0392202
-0.0391599
-0.0385727
-0.0364869
0
0
-0.0131431
-0.0242102
-0.0268654
-0.0266871
-0.027612
-0.030678
-0.0337637
-0.0359868
-0.0372376
-0.037956
-0.0383988
-0.0386612
-0.0388237
-0.0389417
-0.0390675
-0.0391632
-0.0392153
-0.0392371
-0.0392511
-0.0392362
-0.0392079
-0.0391744
-0.0391359
-0.0390881
-0.0390242
-0.0389355
-0.0388106
-0.0386596
-0.0384722
-0.0385303
-0.0386335
-0.0386982
-0.0387
-0.0386419
-0.0387376
-0.0386002
-0.0380742
-0.0359961
0.0282144
-0.0340645
-0.0373059
-0.038293
-0.0386383
-0.0387812
-0.0388435
-0.0388869
-0.0389086
-0.0389112
-0.0388665
-0.0386667
-0.0388693
-0.0389458
-0.0389698
-0.0389656
-0.0389272
-0.0387903
-0.0393651
-0.0392185
-0.0385877
-0.0364271
0
0
-0.013146
-0.0243181
-0.0269063
-0.0266539
-0.0276097
-0.0306145
-0.0338044
-0.0359916
-0.0372329
-0.0379554
-0.0384371
-0.0386648
-0.0387703
-0.0388477
-0.0390611
-0.0392164
-0.0392673
-0.0392542
-0.039235
-0.0392168
-0.0391952
-0.0391687
-0.0391364
-0.039096
-0.0390445
-0.0389777
-0.0388888
-0.0387812
-0.0384961
-0.0386608
-0.0387433
-0.0387616
-0.0386933
-0.0384944
-0.0388589
-0.0387239
-0.0383296
-0.0374591
-0.035251
-0.0368881
-0.0379634
-0.0384462
-0.0386738
-0.0387892
-0.0388489
-0.0388831
-0.0389077
-0.0389385
-0.0390137
-0.0392476
-0.0390559
-0.0389844
-0.0389643
-0.0389564
-0.0389429
-0.0389451
-0.0391764
-0.0391263
-0.0385436
-0.0364593
0
0
-0.0131605
-0.0243897
-0.0269531
-0.0265628
-0.0275984
-0.0308576
-0.0338734
-0.035988
-0.0372067
-0.0379438
-0.0385409
-0.0386408
-0.0386147
-0.0385578
-0.0390975
-0.0393628
-0.0393958
-0.0392922
-0.0392382
-0.0392097
-0.0391897
-0.0391669
-0.0391386
-0.039103
-0.0390572
-0.0389951
-0.0388848
-0.0389532
-0.0392051
-0.0390159
-0.0389136
-0.0388495
-0.0387819
-0.0386964
-0.0387902
-0.0387302
-0.0385359
-0.0382217
-0.0378261
-0.0380788
-0.0383888
-0.038601
-0.0387354
-0.038818
-0.0388646
-0.0388801
-0.0388975
-0.0389277
-0.0389814
-0.0390636
-0.0390158
-0.0389631
-0.0389431
-0.0389479
-0.0389766
-0.0390122
-0.0390963
-0.0390599
-0.0385045
-0.0364365
0
0
-0.0131715
-0.0244303
-0.0270451
-0.0269822
-0.0277208
-0.0301741
-0.033425
-0.0357347
-0.037082
-0.0378325
-0.0380578
-0.0383124
-0.0381854
-0.0379203
-0.0393447
-0.0396536
-0.0395688
-0.0393048
-0.0392471
-0.0392138
-0.039191
-0.0391688
-0.039143
-0.0391099
-0.0390629
-0.0389599
-0.0364529
-0.0388633
-0.0390228
-0.0389969
-0.0389393
-0.0388876
-0.0388351
-0.0387843
-0.0387845
-0.0387471
-0.0386635
-0.0385523
-0.0384649
-0.0385152
-0.0386182
-0.0387179
-0.0388025
-0.0388629
-0.0388995
-0.0388684
-0.0388706
-0.0389013
-0.038946
-0.0389953
-0.0389939
-0.038918
-0.03889
-0.0389071
-0.0390006
-0.0390449
-0.0390783
-0.0390327
-0.0384813
-0.0364195
0
0
-0.0131755
-0.0244403
-0.0270439
-0.0268551
-0.0276856
-0.0304054
-0.0335349
-0.0357973
-0.0371499
-0.037988
-0.0383017
-0.0383757
-0.0379311
-0.0385186
-0.0392631
-0.0395204
-0.0395337
-0.039538
-0.0393676
-0.0392629
-0.0392086
-0.0391773
-0.0391525
-0.0391222
-0.0390837
-0.0390311
-0.0389291
-0.0389772
-0.038999
-0.0389794
-0.0389431
-0.038898
-0.0388408
-0.0387693
-0.0387639
-0.0387472
-0.0387288
-0.0387
-0.0386817
-0.0387002
-0.0387442
-0.0388005
-0.0390892
-0.0389294
-0.0389806
-0.0388256
-0.0388127
-0.0388607
-0.0389246
-0.0390096
-0.0390491
-0.038836
-0.0387806
-0.038796
-0.0390588
-0.0390957
-0.0390916
-0.0390304
-0.0384713
-0.0364081
0
0
-0.0131758
-0.0244405
-0.0270349
-0.0268078
-0.0276767
-0.0305107
-0.0336525
-0.0359141
-0.0373346
-0.0386437
-0.038736
-0.0387273
-0.0386651
-0.0392252
-0.0393682
-0.0394202
-0.039387
-0.0393609
-0.0392919
-0.0392381
-0.0392032
-0.0391823
-0.0391706
-0.0391408
-0.0391049
-0.0390701
-0.0390399
-0.0390387
-0.0390036
-0.0389762
-0.0389438
-0.038892
-0.0387934
-0.0385372
-0.0386519
-0.0386492
-0.038729
-0.0387608
-0.0387733
-0.0387889
-0.0388139
-0.0388488
-0.0389017
-0.0389893
-0.0391259
-0.0387176
-0.0387325
-0.0388082
-0.0388948
-0.0390724
-0.0392198
-0.0386997
-0.0386452
-0.0385927
-0.039206
-0.0391652
-0.0391169
-0.039049
-0.0384725
-0.0364008
0
0
-0.0131748
-0.0244392
-0.0270312
-0.0267984
-0.027684
-0.0305587
-0.0337526
-0.0360276
-0.0376396
-0.0533096
-0.0397408
-0.0391368
-0.038992
-0.0391284
-0.0392229
-0.0392605
-0.0392658
-0.039256
-0.0392346
-0.0392116
-0.0391941
-0.0391905
-0.0392158
-0.0391723
-0.0391238
-0.0390923
-0.0390791
-0.0390988
-0.0389999
-0.0389752
-0.0389471
-0.0388825
-0.0386728
-0.0285103
-0.0383024
-0.0362806
-0.0386428
-0.0387752
-0.0388163
-0.0388353
-0.0388538
-0.0388767
-0.0389039
-0.0389444
-0.0389769
-0.0388168
-0.0387796
-0.0387798
-0.0388034
-0.0390813
-0.0391645
-0.0388753
-0.0387901
-0.0387979
-0.0390414
-0.0390852
-0.0391087
-0.0391039
-0.0384863
-0.0363949
0
0
-0.0131734
-0.0244382
-0.0270309
-0.026799
-0.0276929
-0.0305931
-0.0359252
-0.036076
-0.0374498
-0.0387673
-0.0388527
-0.0388888
-0.0389492
-0.039047
-0.0391251
-0.0391737
-0.0393694
-0.0392091
-0.0392035
-0.0391926
-0.0391824
-0.0391923
-0.0393106
-0.0391899
-0.0391239
-0.0390963
-0.0390885
-0.0390982
-0.0390393
-0.0390037
-0.0389761
-0.0389187
-0.0388138
-0.0385528
-0.0386771
-0.038683
-0.038782
-0.03883
-0.0388513
-0.038865
-0.0388819
-0.0389043
-0.0389081
-0.0389113
-0.0389061
-0.0388489
-0.0388044
-0.0387332
-0.038622
-0.0391838
-0.0392857
-0.0389449
-0.0388858
-0.0388936
-0.0389736
-0.0390224
-0.0390946
-0.0392382
-0.0384925
-0.0363811
0
0
-0.0131716
-0.0244376
-0.0270325
-0.0268008
-0.0276921
-0.030577
-0.0337679
-0.0359897
-0.0373037
-0.038136
-0.0385257
-0.0387425
-0.0388844
-0.0389938
-0.0390754
-0.0391313
-0.0391676
-0.039185
-0.0391866
-0.0391773
-0.0391581
-0.0391151
-0.03895
-0.0390041
-0.0390308
-0.0390732
-0.0390877
-0.0390564
-0.0390412
-0.0390223
-0.0394074
-0.0389637
-0.0389017
-0.0388356
-0.0388343
-0.0388366
-0.0388541
-0.0388666
-0.0388744
-0.0388845
-0.0389088
-0.0389586
-0.0389285
-0.0389015
-0.0388833
-0.0388577
-0.0388307
-0.0387921
-0.0387609
-0.0389126
-0.0387759
-0.038946
-0.0389207
-0.0389194
-0.0389433
-0.0389571
-0.0389218
-0.03867
-0.0383268
-0.0363378
0
0
-0.0131695
-0.0244379
-0.0270367
-0.0268045
-0.0276912
-0.0305679
-0.0337288
-0.036016
-0.0372867
-0.0380229
-0.0384221
-0.038662
-0.0388266
-0.0389493
-0.03904
-0.0391042
-0.0391517
-0.0391779
-0.0391795
-0.0391676
-0.0391467
-0.039255
-0.0390625
-0.0389818
-0.0389588
-0.0390798
-0.0391403
-0.0391205
-0.0390804
-0.0390428
-0.0390164
-0.0389787
-0.0389432
-0.0389125
-0.0388975
-0.03889
-0.0388879
-0.0388867
-0.0388861
-0.038891
-0.0389229
-0.0390613
-0.038942
-0.0388923
-0.0388708
-0.0388565
-0.0388435
-0.0388301
-0.0388263
-0.0388623
-0.0388419
-0.038895
-0.038906
-0.0389143
-0.0389292
-0.0389435
-0.0389411
-0.0388353
-0.0383447
-0.0363274
0
0
-0.0131674
-0.0244406
-0.0270463
-0.0268113
-0.0276907
-0.0305589
-0.0337222
-0.0361662
-0.0373181
-0.0380489
-0.0383669
-0.0385908
-0.0387641
-0.0389006
-0.0390033
-0.039074
-0.0391498
-0.039194
-0.0391825
-0.0391586
-0.0391257
-0.039099
-0.0390457
-0.0389318
-0.0387605
-0.0391506
-0.0392742
-0.0392279
-0.039139
-0.0390701
-0.0390252
-0.0389921
-0.0389649
-0.0389424
-0.038926
-0.0389139
-0.0389045
-0.0388961
-0.038887
-0.0388723
-0.0388295
-0.0386767
-0.0387929
-0.0388378
-0.0388482
-0.0388456
-0.0388405
-0.0388369
-0.0388391
-0.0388513
-0.0388565
-0.0388767
-0.0388904
-0.0389034
-0.0389199
-0.0389439
-0.0392325
-0.0389028
-0.0383648
-0.0363258
0
0
-0.0131672
-0.0244502
-0.0270686
-0.0268199
-0.0276881
-0.0305336
-0.0336086
-0.0355579
-0.0370195
-0.0380282
-0.0382322
-0.0384915
-0.0387006
-0.0388543
-0.0389664
-0.0390098
-0.0391778
-0.0392726
-0.0391986
-0.0391446
-0.0390785
-0.0390637
-0.0390155
-0.0388297
-0.0383129
-0.0393987
-0.0394861
-0.0393403
-0.0391918
-0.0390918
-0.0390358
-0.0390016
-0.038977
-0.0389569
-0.03894
-0.0389254
-0.0389122
-0.0388995
-0.038886
-0.0388687
-0.0388391
-0.0387886
-0.0388119
-0.0388298
-0.0388328
-0.0388291
-0.0388249
-0.0388235
-0.0388269
-0.0388354
-0.0388457
-0.0388601
-0.0388747
-0.0388902
-0.0389089
-0.0389337
-0.0389617
-0.0389116
-0.0383691
-0.0363237
0
0
-0.0131765
-0.0244837
-0.0271223
-0.0268307
-0.02769
-0.030536
-0.033621
-0.035739
-0.0370491
-0.0378836
-0.0382781
-0.0385395
-0.0387259
-0.0388513
-0.0398166
-0.0387981
-0.0393087
-0.0395084
-0.0392207
-0.0391392
-0.0389878
-0.0390531
-0.0390453
-0.0389671
-0.038822
-0.0391746
-0.0392775
-0.0392293
-0.0391437
-0.0390775
-0.0390344
-0.0390058
-0.0389839
-0.0389651
-0.0389477
-0.0389309
-0.0389145
-0.038898
-0.0388809
-0.0388633
-0.0388456
-0.0388298
-0.038828
-0.0388235
-0.038814
-0.0388034
-0.0387958
-0.0387937
-0.0387978
-0.0388078
-0.0388217
-0.0388382
-0.0388554
-0.0388737
-0.0388953
-0.0389232
-0.0389504
-0.0389068
-0.0383681
-0.0363207
0
0
-0.0132103
-0.0245968
-0.0271726
-0.0268929
-0.0277455