# vtk DataFile Version 2.0
FlowField
ASCII
DATASET STRUCTURED_GRID
DIMENSIONS 62 47 32 
POINTS 93248 double
0 0 0
0.01 0 0
0.02 0 0
0.03 0 0
0.04 0 0
0.05 0 0
0.06 0 0
0.07 0 0
0.08 0 0
0.09 0 0
0.1 0 0
0.11 0 0
0.12 0 0
0.13 0 0
0.14 0 0
0.15 0 0
0.16 0 0
0.17 0 0
0.18 0 0
0.19 0 0
0.2 0 0
0.21 0 0
0.22 0 0
0.23 0 0
0.24 0 0
0.25 0 0
0.26 0 0
0.27 0 0
0.28 0 0
0.29 0 0
0.3 0 0
0.31 0 0
0.32 0 0
0.33 0 0
0.34 0 0
0.35 0 0
0.36 0 0
0.37 0 0
0.38 0 0
0.39 0 0
0.4 0 0
0.41 0 0
0.42 0 0
0.43 0 0
0.44 0 0
0.45 0 0
0.46 0 0
0.47 0 0
0.48 0 0
0.49 0 0
0.5 0 0
0.51 0 0
0.52 0 0
0.53 0 0
0.54 0 0
0.55 0 0
0.56 0 0
0.57 0 0
0.58 0 0
0.59 0 0
0.6 0 0
0.61 0 0
0 0.01 0
0.01 0.01 0
0.02 0.01 0
0.03 0.01 0
0.04 0.01 0
0.05 0.01 0
0.06 0.01 0
0.07 0.01 0
0.08 0.01 0
0.09 0.01 0
0.1 0.01 0
0.11 0.01 0
0.12 0.01 0
0.13 0.01 0
0.14 0.01 0
0.15 0.01 0
0.16 0.01 0
0.17 0.01 0
0.18 0.01 0
0.19 0.01 0
0.2 0.01 0
0.21 0.01 0
0.22 0.01 0
0.23 0.01 0
0.24 0.01 0
0.25 0.01 0
0.26 0.01 0
0.27 0.01 0
0.28 0.01 0
0.29 0.01 0
0.3 0.01 0
0.31 0.01 0
0.32 0.01 0
0.33 0.01 0
0.34 0.01 0
0.35 0.01 0
0.36 0.01 0
0.37 0.01 0
0.38 0.01 0
0.39 0.01 0
0.4 0.01 0
0.41 0.01 0
0.42 0.01 0
0.43 0.01 0
0.44 0.01 0
0.45 0.01 0
0.46 0.01 0
0.47 0.01 0
0.48 0.01 0
0.49 0.01 0
0.5 0.01 0
0.51 0.01 0
0.52 0.01 0
0.53 0.01 0
0.54 0.01 0
0.55 0.01 0
0.56 0.01 0
0.57 0.01 0
0.58 0.01 0
0.59 0.01 0
0.6 0.01 0
0.61 0.01 0
0 0.02 0
0.01 0.02 0
0.02 0.02 0
0.03 0.02 0
0.04 0.02 0
0.05 0.02 0
0.06 0.02 0
0.07 0.02 0
0.08 0.02 0
0.09 0.02 0
0.1 0.02 0
0.11 0.02 0
0.12 0.02 0
0.13 0.02 0
0.14 0.02 0
0.15 0.02 0
0.16 0.02 0
0.17 0.02 0
0.18 0.02 0
0.19 0.02 0
0.2 0.02 0
0.21 0.02 0
0.22 0.02 0
0.23 0.02 0
0.24 0.02 0
0.25 0.02 0
0.26 0.02 0
0.27 0.02 0
0.28 0.02 0
0.29 0.02 0
0.3 0.02 0
0.31 0.02 0
0.32 0.02 0
0.33 0.02 0
0.34 0.02 0
0.35 0.02 0
0.36 0.02 0
0.37 0.02 0
0.38 0.02 0
0.39 0.02 0
0.4 0.02 0
0.41 0.02 0
0.42 0.02 0
0.43 0.02 0
0.44 0.02 0
0.45 0.02 0
0.46 0.02 0
0.47 0.02 0
0.48 0.02 0
0.49 0.02 0
0.5 0.02 0
0.51 0.02 0
0.52 0.02 0
0.53 0.02 0
0.54 0.02 0
0.55 0.02 0
0.56 0.02 0
0.57 0.02 0
0.58 0.02 0
0.59 0.02 0
0.6 0.02 0
0.61 0.02 0
0 0.03 0
0.01 0.03 0
0.02 0.03 0
0.03 0.03 0
0.04 0.03 0
0.05 0.03 0
0.06 0.03 0
0.07 0.03 0
0.08 0.03 0
0.09 0.03 0
0.1 0.03 0
0.11 0.03 0
0.12 0.03 0
0.13 0.03 0
0.14 0.03 0
0.15 0.03 0
0.16 0.03 0
0.17 0.03 0
0.18 0.03 0
0.19 0.03 0
0.2 0.03 0
0.21 0.03 0
0.22 0.03 0
0.23 0.03 0
0.24 0.03 0
0.25 0.03 0
0.26 0.03 0
0.27 0.03 0
0.28 0.03 0
0.29 0.03 0
0.3 0.03 0
0.31 0.03 0
0.32 0.03 0
0.33 0.03 0
0.34 0.03 0
0.35 0.03 0
0.36 0.03 0
0.37 0.03 0
0.38 0.03 0
0.39 0.03 0
0.4 0.03 0
0.41 0.03 0
0.42 0.03 0
0.43 0.03 0
0.44 0.03 0
0.45 0.03 0
0.46 0.03 0
0.47 0.03 0
0.48 0.03 0
0.49 0.03 0
0.5 0.03 0
0.51 0.03 0
0.52 0.03 0
0.53 0.03 0
0.54 0.03 0
0.55 0.03 0
0.56 0.03 0
0.57 0.03 0
0.58 0.03 0
0.59 0.03 0
0.6 0.03 0
0.61 0.03 0
0 0.04 0
0.01 0.04 0
0.02 0.04 0
0.03 0.04 0
0.04 0.04 0
0.05 0.04 0
0.06 0.04 0
0.07 0.04 0
0.08 0.04 0
0.09 0.04 0
0.1 0.04 0
0.11 0.04 0
0.12 0.04 0
0.13 0.04 0
0.14 0.04 0
0.15 0.04 0
0.16 0.04 0
0.17 0.04 0
0.18 0.04 0
0.19 0.04 0
0.2 0.04 0
0.21 0.04 0
0.22 0.04 0
0.23 0.04 0
0.24 0.04 0
0.25 0.04 0
0.26 0.04 0
0.27 0.04 0
0.28 0.04 0
0.29 0.04 0
0.3 0.04 0
0.31 0.04 0
0.32 0.04 0
0.33 0.04 0
0.34 0.04 0
0.35 0.04 0
0.36 0.04 0
0.37 0.04 0
0.38 0.04 0
0.39 0.04 0
0.4 0.04 0
0.41 0.04 0
0.42 0.04 0
0.43 0.04 0
0.44 0.04 0
0.45 0.04 0
0.46 0.04 0
0.47 0.04 0
0.48 0.04 0
0.49 0.04 0
0.5 0.04 0
0.51 0.04 0
0.52 0.04 0
0.53 0.04 0
0.54 0.04 0
0.55 0.04 0
0.56 0.04 0
0.57 0.04 0
0.58 0.04 0
0.59 0.04 0
0.6 0.04 0
0.61 0.04 0
0 0.05 0
0.01 0.05 0
0.02 0.05 0
0.03 0.05 0
0.04 0.05 0
0.05 0.05 0
0.06 0.05 0
0.07 0.05 0
0.08 0.05 0
0.09 0.05 0
0.1 0.05 0
0.11 0.05 0
0.12 0.05 0
0.13 0.05 0
0.14 0.05 0
0.15 0.05 0
0.16 0.05 0
0.17 0.05 0
0.18 0.05 0
0.19 0.05 0
0.2 0.05 0
0.21 0.05 0
0.22 0.05 0
0.23 0.05 0
0.24 0.05 0
0.25 0.05 0
0.26 0.05 0
0.27 0.05 0
0.28 0.05 0
0.29 0.05 0
0.3 0.05 0
0.31 0.05 0
0.32 0.05 0
0.33 0.05 0
0.34 0.05 0
0.35 0.05 0
0.36 0.05 0
0.37 0.05 0
0.38 0.05 0
0.39 0.05 0
0.4 0.05 0
0.41 0.05 0
0.42 0.05 0
0.43 0.05 0
0.44 0.05 0
0.45 0.05 0
0.46 0.05 0
0.47 0.05 0
0.48 0.05 0
0.49 0.05 0
0.5 0.05 0
0.51 0.05 0
0.52 0.05 0
0.53 0.05 0
0.54 0.05 0
0.55 0.05 0
0.56 0.05 0
0.57 0.05 0
0.58 0.05 0
0.59 0.05 0
0.6 0.05 0
0.61 0.05 0
0 0.06 0
0.01 0.06 0
0.02 0.06 0
0.03 0.06 0
0.04 0.06 0
0.05 0.06 0
0.06 0.06 0
0.07 0.06 0
0.08 0.06 0
0.09 0.06 0
0.1 0.06 0
0.11 0.06 0
0.12 0.06 0
0.13 0.06 0
0.14 0.06 0
0.15 0.06 0
0.16 0.06 0
0.17 0.06 0
0.18 0.06 0
0.19 0.06 0
0.2 0.06 0
0.21 0.06 0
0.22 0.06 0
0.23 0.06 0
0.24 0.06 0
0.25 0.06 0
0.26 0.06 0
0.27 0.06 0
0.28 0.06 0
0.29 0.06 0
0.3 0.06 0
0.31 0.06 0
0.32 0.06 0
0.33 0.06 0
0.34 0.06 0
0.35 0.06 0
0.36 0.06 0
0.37 0.06 0
0.38 0.06 0
0.39 0.06 0
0.4 0.06 0
0.41 0.06 0
0.42 0.06 0
0.43 0.06 0
0.44 0.06 0
0.45 0.06 0
0.46 0.06 0
0.47 0.06 0
0.48 0.06 0
0.49 0.06 0
0.5 0.06 0
0.51 0.06 0
0.52 0.06 0
0.53 0.06 0
0.54 0.06 0
0.55 0.06 0
0.56 0.06 0
0.57 0.06 0
0.58 0.06 0
0.59 0.06 0
0.6 0.06 0
0.61 0.06 0
0 0.07 0
0.01 0.07 0
0.02 0.07 0
0.03 0.07 0
0.04 0.07 0
0.05 0.07 0
0.06 0.07 0
0.07 0.07 0
0.08 0.07 0
0.09 0.07 0
0.1 0.07 0
0.11 0.07 0
0.12 0.07 0
0.13 0.07 0
0.14 0.07 0
0.15 0.07 0
0.16 0.07 0
0.17 0.07 0
0.18 0.07 0
0.19 0.07 0
0.2 0.07 0
0.21 0.07 0
0.22 0.07 0
0.23 0.07 0
0.24 0.07 0
0.25 0.07 0
0.26 0.07 0
0.27 0.07 0
0.28 0.07 0
0.29 0.07 0
0.3 0.07 0
0.31 0.07 0
0.32 0.07 0
0.33 0.07 0
0.34 0.07 0
0.35 0.07 0
0.36 0.07 0
0.37 0.07 0
0.38 0.07 0
0.39 0.07 0
0.4 0.07 0
0.41 0.07 0
0.42 0.07 0
0.43 0.07 0
0.44 0.07 0
0.45 0.07 0
0.46 0.07 0
0.47 0.07 0
0.48 0.07 0
0.49 0.07 0
0.5 0.07 0
0.51 0.07 0
0.52 0.07 0
0.53 0.07 0
0.54 0.07 0
0.55 0.07 0
0.56 0.07 0
0.57 0.07 0
0.58 0.07 0
0.59 0.07 0
0.6 0.07 0
0.61 0.07 0
0 0.08 0
0.01 0.08 0
0.02 0.08 0
0.03 0.08 0
0.04 0.08 0
0.05 0.08 0
0.06 0.08 0
0.07 0.08 0
0.08 0.08 0
0.09 0.08 0
0.1 0.08 0
0.11 0.08 0
0.12 0.08 0
0.13 0.08 0
0.14 0.08 0
0.15 0.08 0
0.16 0.08 0
0.17 0.08 0
0.18 0.08 0
0.19 0.08 0
0.2 0.08 0
0.21 0.08 0
0.22 0.08 0
0.23 0.08 0
0.24 0.08 0
0.25 0.08 0
0.26 0.08 0
0.27 0.08 0
0.28 0.08 0
0.29 0.08 0
0.3 0.08 0
0.31 0.08 0
0.32 0.08 0
0.33 0.08 0
0.34 0.08 0
0.35 0.08 0
0.36 0.08 0
0.37 0.08 0
0.38 0.08 0
0.39 0.08 0
0.4 0.08 0
0.41 0.08 0
0.42 0.08 0
0.43 0.08 0
0.44 0.08 0
0.45 0.08 0
0.46 0.08 0
0.47 0.08 0
0.48 0.08 0
0.49 0.08 0
0.5 0.08 0
0.51 0.08 0
0.52 0.08 0
0.53 0.08 0
0.54 0.08 0
0.55 0.08 0
0.56 0.08 0
0.57 0.08 0
0.58 0.08 0
0.59 0.08 0
0.6 0.08 0
0.61 0.08 0
0 0.09 0
0.01 0.09 0
0.02 0.09 0
0.03 0.09 0
0.04 0.09 0
0.05 0.09 0
0.06 0.09 0
0.07 0.09 0
0.08 0.09 0
0.09 0.09 0
0.1 0.09 0
0.11 0.09 0
0.12 0.09 0
0.13 0.09 0
0.14 0.09 0
0.15 0.09 0
0.16 0.09 0
0.17 0.09 0
0.18 0.09 0
0.19 0.09 0
0.2 0.09 0
0.21 0.09 0
0.22 0.09 0
0.23 0.09 0
0.24 0.09 0
0.25 0.09 0
0.26 0.09 0
0.27 0.09 0
0.28 0.09 0
0.29 0.09 0
0.3 0.09 0
0.31 0.09 0
0.32 0.09 0
0.33 0.09 0
0.34 0.09 0
0.35 0.09 0
0.36 0.09 0
0.37 0.09 0
0.38 0.09 0
0.39 0.09 0
0.4 0.09 0
0.41 0.09 0
0.42 0.09 0
0.43 0.09 0
0.44 0.09 0
0.45 0.09 0
0.46 0.09 0
0.47 0.09 0
0.48 0.09 0
0.49 0.09 0
0.5 0.09 0
0.51 0.09 0
0.52 0.09 0
0.53 0.09 0
0.54 0.09 0
0.55 0.09 0
0.56 0.09 0
0.57 0.09 0
0.58 0.09 0
0.59 0.09 0
0.6 0.09 0
0.61 0.09 0
0 0.1 0
0.01 0.1 0
0.02 0.1 0
0.03 0.1 0
0.04 0.1 0
0.05 0.1 0
0.06 0.1 0
0.07 0.1 0
0.08 0.1 0
0.09 0.1 0
0.1 0.1 0
0.11 0.1 0
0.12 0.1 0
0.13 0.1 0
0.14 0.1 0
0.15 0.1 0
0.16 0.1 0
0.17 0.1 0
0.18 0.1 0
0.19 0.1 0
0.2 0.1 0
0.21 0.1 0
0.22 0.1 0
0.23 0.1 0
0.24 0.1 0
0.25 0.1 0
0.26 0.1 0
0.27 0.1 0
0.28 0.1 0
0.29 0.1 0
0.3 0.1 0
0.31 0.1 0
0.32 0.1 0
0.33 0.1 0
0.34 0.1 0
0.35 0.1 0
0.36 0.1 0
0.37 0.1 0
0.38 0.1 0
0.39 0.1 0
0.4 0.1 0
0.41 0.1 0
0.42 0.1 0
0.43 0.1 0
0.44 0.1 0
0.45 0.1 0
0.46 0.1 0
0.47 0.1 0
0.48 0.1 0
0.49 0.1 0
0.5 0.1 0
0.51 0.1 0
0.52 0.1 0
0.53 0.1 0
0.54 0.1 0
0.55 0.1 0
0.56 0.1 0
0.57 0.1 0
0.58 0.1 0
0.59 0.1 0
0.6 0.1 0
0.61 0.1 0
0 0.11 0
0.01 0.11 0
0.02 0.11 0
0.03 0.11 0
0.04 0.11 0
0.05 0.11 0
0.06 0.11 0
0.07 0.11 0
0.08 0.11 0
0.09 0.11 0
0.1 0.11 0
0.11 0.11 0
0.12 0.11 0
0.13 0.11 0
0.14 0.11 0
0.15 0.11 0
0.16 0.11 0
0.17 0.11 0
0.18 0.11 0
0.19 0.11 0
0.2 0.11 0
0.21 0.11 0
0.22 0.11 0
0.23 0.11 0
0.24 0.11 0
0.25 0.11 0
0.26 0.11 0
0.27 0.11 0
0.28 0.11 0
0.29 0.11 0
0.3 0.11 0
0.31 0.11 0
0.32 0.11 0
0.33 0.11 0
0.34 0.11 0
0.35 0.11 0
0.36 0.11 0
0.37 0.11 0
0.38 0.11 0
0.39 0.11 0
0.4 0.11 0
0.41 0.11 0
0.42 0.11 0
0.43 0.11 0
0.44 0.11 0
0.45 0.11 0
0.46 0.11 0
0.47 0.11 0
0.48 0.11 0
0.49 0.11 0
0.5 0.11 0
0.51 0.11 0
0.52 0.11 0
0.53 0.11 0
0.54 0.11 0
0.55 0.11 0
0.56 0.11 0
0.57 0.11 0
0.58 0.11 0
0.59 0.11 0
0.6 0.11 0
0.61 0.11 0
0 0.12 0
0.01 0.12 0
0.02 0.12 0
0.03 0.12 0
0.04 0.12 0
0.05 0.12 0
0.06 0.12 0
0.07 0.12 0
0.08 0.12 0
0.09 0.12 0
0.1 0.12 0
0.11 0.12 0
0.12 0.12 0
0.13 0.12 0
0.14 0.12 0
0.15 0.12 0
0.16 0.12 0
0.17 0.12 0
0.18 0.12 0
0.19 0.12 0
0.2 0.12 0
0.21 0.12 0
0.22 0.12 0
0.23 0.12 0
0.24 0.12 0
0.25 0.12 0
0.26 0.12 0
0.27 0.12 0
0.28 0.12 0
0.29 0.12 0
0.3 0.12 0
0.31 0.12 0
0.32 0.12 0
0.33 0.12 0
0.34 0.12 0
0.35 0.12 0
0.36 0.12 0
0.37 0.12 0
0.38 0.12 0
0.39 0.12 0
0.4 0.12 0
0.41 0.12 0
0.42 0.12 0
0.43 0.12 0
0.44 0.12 0
0.45 0.12 0
0.46 0.12 0
0.47 0.12 0
0.48 0.12 0
0.49 0.12 0
0.5 0.12 0
0.51 0.12 0
0.52 0.12 0
0.53 0.12 0
0.54 0.12 0
0.55 0.12 0
0.56 0.12 0
0.57 0.12 0
0.58 0.12 0
0.59 0.12 0
0.6 0.12 0
0.61 0.12 0
0 0.13 0
0.01 0.13 0
0.02 0.13 0
0.03 0.13 0
0.04 0.13 0
0.05 0.13 0
0.06 0.13 0
0.07 0.13 0
0.08 0.13 0
0.09 0.13 0
0.1 0.13 0
0.11 0.13 0
0.12 0.13 0
0.13 0.13 0
0.14 0.13 0
0.15 0.13 0
0.16 0.13 0
0.17 0.13 0
0.18 0.13 0
0.19 0.13 0
0.2 0.13 0
0.21 0.13 0
0.22 0.13 0
0.23 0.13 0
0.24 0.13 0
0.25 0.13 0
0.26 0.13 0
0.27 0.13 0
0.28 0.13 0
0.29 0.13 0
0.3 0.13 0
0.31 0.13 0
0.32 0.13 0
0.33 0.13 0
0.34 0.13 0
0.35 0.13 0
0.36 0.13 0
0.37 0.13 0
0.38 0.13 0
0.39 0.13 0
0.4 0.13 0
0.41 0.13 0
0.42 0.13 0
0.43 0.13 0
0.44 0.13 0
0.45 0.13 0
0.46 0.13 0
0.47 0.13 0
0.48 0.13 0
[...]
POINT_DATA 93248

SCALARS v double
LOOKUP_TABLE default
0
0
0
0
0
0
0
0
0
0
0
0
0
0
0
0
0
0
0
0
0
0
0
0
0
0
0
0
0
0
0
0
0
0
0
0
0
0
-0.036934
0
0
0
0
0
-0.0389495
0
0
0
0
0
0
0
0
0
0
0
0
0
0
0
0
0
0
0.0462195
-0.0559085
0.050556
0.0373846
0.021504
0
-0.00706459
-0.0148631
-0.0183767
-0.0196462
-0.0200046
-0.0207913
-0.0205643
-0.0204815
-0.0203733
-0.0204574
-0.0202783
-0.0200772
-0.0191866
-0.0225946
-0.0213918
-0.0205659
-0.0205865
-0.0206503
-0.0207096
-0.0207467
-0.0207652
-0.0207695
-0.0207599
-0.0207363
-0.0207434
-0.0210827
-0.0207266
-0.0203683
-0.0204315
-0.0297641
-0.0206429
-0.0221862
-0.015856
-0.0214933
-0.028273
-0.0223318
-0.0220554
-0.0223755
-0.0252325
-0.0538568
-0.0213434
-0.0258146
-0.0205771
-0.0204845
-0.0206229
-0.0215518
-0.0223361
-0.0303625
-0.0216545
-0.0386687
-0.020874
-0.0195038
-0.0174567
-0.0139447
0
0
0.0273073
0.0534218
0.0615136
0.0564523
0.0410828
0.0243784
0.00657461
-0.00732203
-0.0153662
-0.0192723
-0.0208228
-0.0512939
-0.0232224
-0.0235243
-0.0194165
-0.0239476
-0.0235867
-0.0243198
-0.0258333
-0.057916
-0.0240368
-0.0243349
-0.0244357
-0.0246247
-0.0247649
-0.0248562
-0.0249092
-0.0249325
-0.0249243
-0.0248672
-0.0247625
-0.0415647
-0.0249462
-0.024099
-0.0243187
-0.0233623
-0.0209809
-0.0173678
-0.0270823
-0.0296527
-0.0295086
-0.0281499
-0.0275209
-0.0270293
-0.0270353
-0.0275958
-0.0261798
-0.0258146
-0.0247709
-0.0247181
-0.0246518
-0.0254967
-0.0260549
-0.0266627
-0.0253769
-0.0247833
-0.0441281
-0.0225146
-0.020265
-0.0172432
0
0
0.0140932
0.0368078
0.0482645
0.0519798
0.0469361
0.0318574
0.0152084
0.00102438
-0.00866433
-0.014346
-0.0178419
-0.0206336
-0.0218512
-0.0227275
-0.0233781
-0.0241657
0
-0.0243595
-0.0253363
-0.025435
-0.0249919
-0.0250052
-0.0251617
-0.0253463
-0.0255065
-0.0256273
-0.0257114
-0.0257621
-0.0257823
-0.0257796
-0.0258071
-0.0261191
-0.0257008
-0.0258013
-0.0245002
-0.0236846
-0.0223797
-0.0216144
-0.0265863
-0.0293146
-0.0298974
-0.0294641
-0.0284235
-0.0282022
-0.0283151
-0.0265138
-0.0261489
-0.0258211
-0.0264172
-0.0261608
-0.026027
-0.0262003
-0.0263218
-0.026259
-0.025689
-0.0251762
-0.0247951
-0.0231467
-0.0213114
-0.019273
0
0
0.00785665
0.0236981
0.0362016
0.0405921
0.0390689
0.030424
0.0179603
0.00579235
-0.00356131
-0.00991078
-0.0142457
-0.0173792
-0.0194734
-0.0210297
-0.0222334
-0.0228628
-0.0228592
-0.0236276
-0.0243264
-0.0246514
-0.0247897
-0.0249613
-0.0251592
-0.0253581
-0.0255356
-0.025683
-0.0257961
-0.0258743
-0.0259205
-0.0259448
-0.0259789
-0.0260916
-0.0261958
-0.0259292
-0.0251443
-0.0245182
-0.0240352
-0.0242694
-0.0263977
-0.0281066
-0.028808
-0.0287977
-0.0284116
-0.0281966
-0.0278386
-0.0260436
-0.0262884
-0.026344
-0.0265563
-0.02646
-0.0263341
-0.0262436
-0.0260918
-0.0258273
-0.0253995
-0.0248992
-0.0242792
-0.0231739
-0.0218174
-0.0209102
0
0
0.00463793
0.0150485
0.0238092
0.0291657
0.0301769
0.0256671
0.0168301
0.00704853
-0.00113408
-0.00723256
-0.0117039
-0.0150475
-0.0175217
-0.0193284
-0.0206343
-0.0220385
-0.0224743
-0.0231507
-0.0236528
-0.0241521
-0.02455
-0.0248755
-0.0251545
-0.0253992
-0.025612
-0.0257932
-0.0259375
-0.0260418
-0.0261055
-0.0261319
-0.0261354
-0.0262068
-0.0269734
-0.026366
-0.0257766
-0.0254251
-0.0253363
-0.0257041
-0.0266817
-0.0276072
-0.0281381
-0.028295
-0.0282428
-0.0281875
-0.0279877
0
-0.0267281
-0.0268855
-0.0268636
-0.0267594
-0.0266214
-0.0264089
-0.0260624
-0.0256844
-0.0252829
-0.0248302
-0.0242766
-0.0234892
-0.0221401
-0.022367
-0.0423944
0
0.00271362
0.00954115
0.0157037
0.0203973
0.0222987
0.0200978
0.0136434
0
-0.000842961
-0.00622632
-0.0104438
-0.0137527
-0.01637
-0.0184342
-0.0201944
-0.02198
-0.0220273
-0.0223045
-0.023165
-0.0239081
-0.0244971
-0.0249455
-0.0253004
-0.0255977
-0.025852
-0.0260736
-0.0262525
-0.0263833
-0.0264606
-0.0264783
-0.0264184
-0.0262581
-0.0573135
-0.0268266
-0.0264096
-0.0262695
-0.0263458
-0.0266499
-0.0271616
-0.0276697
-0.0280204
-0.028179
-0.028205
-0.0281074
-0.0277669
-0.0266833
-0.0270507
-0.0272193
-0.0272395
-0.0272035
-0.0271175
-0.0268491
-0.0262492
-0.0257599
-0.0253968
-0.0250499
-0.0247714
-0.0250064
-0.0254925
-0.0227355
0
0
0.00143355
0.00585083
0.0101369
0.0138216
0.0156396
0.0139772
0.00975174
0.00388655
-0.0017114
-0.00640339
-0.0102258
-0.0133423
-0.0159248
-0.0179998
-0.0199353
-0.0227102
-0.0216499
-0.022112
-0.02317
-0.0240305
-0.024722
-0.0252158
-0.0256099
-0.0259484
-0.0262433
-0.0265089
-0.0267263
-0.0268877
-0.0269845
-0.0270198
-0.0270666
-0.0272055
-0.0279756
-0.0275582
-0.0272757
-0.0271944
-0.0272625
-0.0274644
-0.0277558
-0.0280495
-0.028273
-0.0283953
-0.0283936
-0.028301
-0.0280658
-0.0276746
-0.0276663
-0.0277109
-0.0277454
-0.027804
-0.0278648
-0.0276363
-0.0265243
-0.0259262
-0.0256648
-0.0253993
-0.0250512
-0.0419656
-0.0213703
-0.0224547
0
0
0.000519777
0.003224
0.00608151
0.00876797
0.010199
0.00900652
0.00554356
0.000895609
-0.00362276
-0.00753796
-0.0108234
-0.0136193
-0.0175217
-0.0178181
-0.0190067
-0.0187906
-0.0220924
-0.0235851
-0.0241766
-0.0246966
-0.0252931
-0.0256856
-0.0260603
-0.0264307
-0.0265089
-0.0270767
-0.0273349
-0.027539
-0.0276559
-0.0276676
-0.0277615
-0.0279237
-0.0282029
-0.0281685
-0.0280932
-0.028082
-0.0281308
-0.0282566
-0.0284331
-0.0286109
-0.0287478
-0.0288192
-0.028811
-0.0287321
-0.028583
-0.0284006
-0.0283168
-0.0282892
-0.0283139
-0.0284511
-0.0287491
-0.0288899
-0.0266946
-0.0261853
-0.0261825
-0.026133
-0.0259843
-0.0258503
-0.0242674
-0.023087
0
0
-0.000167863
0.00124882
0.00296287
0.00470407
0.00561235
0.00450089
0.00148377
-0.00235118
-0.0060284
-0.00924985
-0.0120628
-0.0144596
-0.0165392
-0.0182045
-0.0194165
-0.0202518
-0.0222406
-0.023646
-0.0245091
-0.0251153
-0.0309587
-0.0261981
-0.0265958
-0.0270033
-0.0274348
-0.0277576
-0.0280794
-0.028353
-0.0285171
-0.0284477
-0.0284393
-0.0285772
-0.0287752
-0.0288666
-0.0289006
-0.0289513
-0.0289844
-0.0290662
-0.029183
-0.0292953
-0.029375
-0.0294068
-0.0293836
-0.0293113
-0.0292
-0.029073
-0.028966
-0.0288798
-0.0288242
-0.028856
-0.0291026
-0.029466
-0.0266767
-0.0269841
-0.0271791
-0.027131
-0.0269509
-0.0266116
-0.0256069
-0.0239514
0
0
-0.000709171
-0.000305057
0.000470464
0.00126826
0.00163672
0.000406235
-0.00233929
-0.00560428
-0.00863127
-0.0112724
-0.0136169
-0.0157016
-0.0175296
-0.019065
-0.0201894
-0.0213607
-0.0227868
-0.0240149
-0.0249623
-0.0257504
-0.026337
-0.0268034
-0.0272423
-0.0276659
-0.0280387
-0.028509
-0.0289419
-0.029349
-0.0297022
-0.029881
-0.0286471
-0.0290756
-0.0294518
-0.0296361
-0.0297164
-0.0297641
-0.0298945
-0.0299302
-0.0300139
-0.0300822
-0.0301184
-0.0301165
-0.0300699
-0.02999
-0.0298858
-0.0297662
-0.0296358
-0.029481
-0.0292616
-0.0288783
-0.0281106
-0.0270101
-0.0302501
-0.0296486
-0.0288991
-0.0283815
-0.0279985
-0.0275501
-0.0266183
-0.0248376
0
0
-0.00115507
-0.00157834
-0.0015478
-0.00659041
-0.00183995
-0.0032925
-0.00590236
-0.00877016
-0.0113009
-0.0134781
-0.0154281
-0.017218
-0.0188511
-0.0202907
-0.0209373
-0.0222693
-0.0235776
-0.024699
-0.0256109
-0.0262902
-0.0270509
-0.0275595
-0.028003
-0.0284325
-0.0288722
-0.0293672
-0.0299083
-0.0304799
-0.0310302
-0.031326
0
-0.0300619
-0.0304163
-0.0305381
-0.0305934
-0.0306443
-0.0307204
-0.0308645
-0.0309326
-0.0309621
-0.030958
-0.0309278
-0.0308425
-0.0307421
-0.0306306
-0.0305065
-0.0303616
-0.0301734
-0.0299029
-0.029517
-0.0289811
-0.0287287
-0.0302772
-0.0303625
-0.0298918
-0.0294007
-0.0289814
-0.0284973
-0.0275496
-0.0256996
0
0
-0.00154513
-0.00270084
-0.00346449
-0.00409763
-0.00488862
-0.00667028
-0.00925146
-0.0118311
-0.0139754
-0.0157889
-0.0174004
-0.0189263
-0.0204018
-0.0219274
0
-0.0233612
-0.0246012
-0.0256337
-0.0265163
-0.0272001
-0.0278157
-0.0283209
-0.0287731
-0.0292172
-0.0296916
-0.0302475
-0.0309343
-0.0317426
-0.0325347
-0.0321877
-0.0309275
-0.031053
-0.0312299
-0.0313452
-0.0314363
-0.0315356
-0.0316575
-0.0318082
-0.0318998
-0.0319134
-0.031874
-0.0318514
-0.0316772
-0.0315471
-0.0314249
-0.0312993
-0.0311565
-0.0309696
-0.0307042
-0.0304752
-0.0302333
-0.0302089
-0.0307126
-0.0308216
-0.0305942
-0.0302542
-0.0298821
-0.0294084
-0.0284387
-0.0265275
0
0
-0.00189086
-0.00368439
-0.00510465
-0.00621969
-0.00763485
-0.00976638
-0.0123834
-0.0147657
-0.0166021
-0.0191984
-0.0194489
-0.0207196
-0.021938
-0.0230442
-0.0235109
-0.0246288
-0.0256821
-0.0266292
-0.027596
-0.0282156
-0.0287091
-0.029151
-0.0295769
-0.0300078
-0.0304807
-0.0310754
-0.0319486
-0.0332411
-0.035442
-0.0337242
-0.032492
-0.0321237
-0.0320865
-0.0321569
-0.0322759
-0.0324373
-0.0326252
-0.0328539
-0.0329878
-0.0329642
-0.032828
-0.0325862
-0.0325057
-0.0323797
-0.032255
-0.0321368
-0.0320148
-0.0318497
-0.0315249
-0.0315008
-0.0314109
-0.0313745
-0.0314563
-0.0314798
-0.0313422
-0.0310956
-0.0307294
-0.0302947
-0.0292952
-0.0273165
0
0
-0.00220316
-0.0045618
-0.00659041
-0.00839031
-0.0102196
-0.0126617
-0.0153412
-0.0175858
-0.0191984
-0.0204486
-0.0215383
-0.0225931
-0.023606
-0.0245254
-0.0252565
-0.0260918
-0.0269101
-0.0276955
-0.0290033
-0.029361
-0.0296756
-0.030036
-0.0304126
-0.0307964
-0.0311999
-0.0317073
-0.0326124
-0.0261055
-0.0435732
-0.0350981
-0.0332193
-0.032812
-0.0327987
-0.032914
-0.0330964
-0.0333536
-0.0337087
-0.0340588
-0.0342937
-0.0341778
-0.0339093
-0.0336237
-0.0334124
-0.0332437
-0.0331081
-0.0330016
-0.0329164
-0.0328262
-0.0265563
-0.0325844
-0.0325194
-0.032423
-0.0322685
-0.0323163
-0.0322076
-0.0320316
-0.0317792
-0.0312121
-0.0301307
-0.0280595
0
0
-0.00249471
-0.00533788
-0.00791556
-0.0102263
-0.0126007
-0.0153762
-0.0181414
-0.0202885
-0.0217174
-0.0227459
-0.0236454
-0.0245256
-0.0253826
-0.0261806
-0.0268944
-0.0275811
-0.0281986
-0.0286394
-0.0541035
-0.0304434
-0.0306517
-0.0309587
-0.0312958
-0.0316026
-0.0318525
-0.0319776
-0.0317044
-0.0296537
-0.0192384
-0.0294435
-0.0320604
-0.0328918
-0.0332911
-0.0335871
-0.0338681
-0.0342333
-0.0347686
-0.0354789
-0.0360607
-0.0356195
-0.0350557
-0.0346137
-0.0343111
-0.034106
-0.0339593
-0.033862
-0.0337824
-0.033689
-0.0335059
-0.0336212
-0.0335745
-0.0335188
-0.0335966
-0.0333419
-0.0331481
-0.0330199
-0.032677
-0.0321176
-0.0309458
-0.028739
0
0
-0.00280439
-0.00600149
-0.00914108
-0.0119982
-0.0148571
-0.0179537
-0.0207966
-0.0228761
-0.0241639
-0.0250261
-0.0257619
-0.0264996
-0.0272357
-0.0279302
-0.0285536
-0.0291318
-0.0296849
-0.0302611
-0.0313206
-0.0315576
-0.0317759
-0.0320323
-0.0322885
-0.0325059
-0.0326324
-0.0325778
-0.0321399
-0.0309331
-0.0288422
-0.0310955
-0.0325812
-0.0334017
-0.0339179
-0.0343051
-0.0346009
-0.0350211
-0.0357866
-0.0372243
-0.0391981
-0.0373481
-0.0361342
-0.0354879
-0.0351368
-0.0349331
-0.0347867
-0.0347213
-0.0346624
-0.0346094
-0.0346095
-0.0348133
-0.0346436
-0.0345218
-0.0344719
-0.0343321
-0.0339685
-0.0341332
-0.033691
-0.0331286
-0.0318156
-0.0293118
0
0
-0.00321032
0.00124882
-0.0103688
-0.0137461
-0.0170411
-0.0203654
-0.0232842
-0.0253477
-0.0265524
-0.0272909
-0.027874
-0.0285003
-0.0291525
-0.0297629
-0.0302603
-0.0307111
-0.0311701
-0.0316756
-0.0322639
-0.0326271
-0.0329025
-0.033143
-0.0333527
-0.033511
-0.0335835
-0.0335157
-0.033236
-0.0328051
-0.0326123
-0.0331627
-0.0337757
-0.0342934
-0.0347349
-0.0351144
-0.0352529
-0.0355695
-0.0363373
-0.0387426
-0.047672
-0.0387582
-0.0366548
-0.0360395
-0.0358088
-0.0357013
-0.0347867
-0.0355855
-0.0355472
-0.0355061
-0.0355955
-0.0362789
-0.0357059
-0.0354964
-0.0354768
-0.0355397
-0.0359239
-0.035581
-0.0349052
-0.0344987
-0.0330798
-0.0296591
0
0
-0.00331459
-0.00743165
-0.011545
-0.0154698
-0.0191528
-0.0225577
-0.0256992
-0.0278022
-0.028939
-0.0295669
-0.0299312
-0.0304954
-0.031131
-0.031704
-0.0320066
-0.0322882
-0.0326351
-0.0330599
-0.0334805
-0.033815
-0.0340821
-0.0343007
-0.0344765
-0.0346026
-0.034664
-0.0346416
-0.0345259
-0.0343555
-0.0350229
-0.0349254
-0.035038
-0.0353059
-0.0356239
-0.035976
-0.0358034
-0.0358008
-0.0353963
-0.0331861
-0.0218541
-0.0327671
-0.0353374
-0.0360677
-0.0363067
-0.0363964
-0.0364181
-0.0364516
-0.03644
-0.036368
-0.0363403
-0.0597161
-0.036558
-0.0364232
-0.0364694
-0.0365101
-0.0365058
-0.0363113
-0.0367848
-0.0366484
-0.0362859
-0.0353552
0
0
-0.00351806
-0.0081874
-0.0127021
-0.0173377
-0.0214037
-0.0244993
-0.027868
-0.0300886
-0.0312288
-0.0318292
-0.031736
-0.0324188
-0.0331737
-0.0338042
-0.0337173
-0.0338183
-0.0340895
-0.0345258
-0.0348516
-0.0351141
-0.0353313
-0.0355113
-0.0356534
-0.0357574
-0.0358219
-0.0358464
-0.0358062
-0.0355
-0.0620202
-0.0362553
-0.0361866
-0.0363096
-0.0364491
-0.0364379
-0.0367943
-0.0365862
-0.0359196
-0.0344367
-0.0319811
-0.0342245
-0.0358228
-0.0365784
-0.0369537
-0.0371548
-0.0372712
-0.0373663
-0.0374192
-0.0374469
-0.0375749
-0.038166
-0.0376998
-0.0375651
-0.0375756
-0.0375884
-0.0375623
-0.0375938
-0.037913
-0.0379752
-0.0374934
-0.0357071
0
0
-0.00375301
-0.00886308
-0.0136732
-0.0310855
-0.0238261
0
-0.0301423
-0.0324166
-0.0335293
-0.0342218
-0.0104438
-0.0343818
-0.0352686
-0.035991
-0.0352048
-0.0353373
-0.0356303
-0.0362635
-0.0364052
-0.0365221
-0.0366526
-0.0367722
-0.0368724
-0.0369507
-0.0370159
-0.0371282
-0.0374711
-0.0371461
-0.0377583
-0.0375207
-0.0374263
-0.0374724
-0.0375552
-0.0375984
-0.0376869
-0.0375053
-0.0370378
-0.036331
-0.0357461
-0.0362656
-0.0369572
-0.0374624
-0.0377865
-0.0380062
-0.0381592
-0.0383251
-0.0384315
-0.0384957
-0.0385766
-0.0387151
-0.0386228
-0.0386558
-0.0387094
-0.0387289
-0.0386687
-0.0387421
-0.038938
-0.0389702
-0.0383353
-0.0362875
0
0
-0.00400633
-0.00958384
-0.0149954
-0.020466
-0.0252755
-0.0289959
-0.032554
-0.0346833
-0.0355699
-0.0358701
-0.035719
-0.036224
-0.0369134
-0.0364117
-0.0374443
-0.0375792
-0.0375202
-0.0512603
-0.0380584
-0.0380078
-0.0380303
-0.0380802
-0.0381209
-0.0381574
-0.0381679
-0.0380859
-0.0376229
-0.0381779
-0.0384954
-0.038545
-0.0385638
-0.0386362
-0.0387621
-0.0388874
-0.038822
-0.0386284
-0.0383062
-0.0379609
-0.0377773
-0.0379321
-0.0382381
-0.0385326
-0.0387258
-0.0389429
-0.0390837
-0.0393348
-0.0394642
-0.039526
-0.0395535
-0.0395355
-0.0395041
-0.0397169
-0.0398343
-0.0398898
-0.0396983
-0.0397782
-0.0399176
-0.0398773
-0.0391444
-0.03698
0
0
-0.00425542
-0.0102735
-0.0161413
-0.0217679
-0.0269734
-0.0314985
-0.0350292
-0.0370062
-0.0375975
-0.0374969
-0.0378418
-0.0379196
-0.037276
-0.0623966
-0.0394961
-0.0394868
-0.0394647
-0.0397501
-0.0396194
-0.0395144
-0.0394606
-0.0394283
-0.0393871
-0.0393859
-0.0393833
-0.0393372
-0.0392425
-0.03936
-0.0395211
-0.0395964
-0.0396549
-0.0397702
-0.0400202
-0.0404489
-0.0401147
-0.0398757
-0.0395645
-0.0393485
-0.039265
-0.0393299
-0.03949
-0.0396885
-0.0399289
-0.0400084
-0.0400741
-0.0403929
-0.0404833
-0.0405481
-0.0405729
-0.0404645
-0.0403592
-0.040739
-0.0408495
-0.0410062
-0.0406553
-0.0408136
-0.0409009
-0.0407513
-0.0399758
-0.0377454
0
0
-0.004498
-0.0109418
-0.0172387
-0.023222
-0.0288269
-0.0337735
-0.0374129
-0.039411
-0.0397369
-0.0383786
-0.0400011
-0.0402331
-0.0401208
-0.0410143
-0.0411379
-0.0411322
-0.0410946
-0.0411189
-0.0410429
-0.0409506
-0.040871
-0.0407865
-0.0406117
-0.04061
-0.0406281
-0.0406081
-0.0405619
-0.0405247
-0.0406331
-0.0406616
-0.0406936
-0.0408042
-0.0412204
-0.0430878
-0.0413804
-0.0412271
-0.0407044
-0.0405571
-0.0405235
-0.0405713
-0.0406724
-0.0408078
-0.040986
-0.0411709
-0.041381
-0.0412533
-0.0413772
-0.0415431
-0.0416715
-0.0415216
-0.0414717
-0.0414129
-0.0415014
-0.0415027
-0.0420952
-0.0420726
-0.0419406
-0.0415295
-0.0408299
-0.0385736
0
0
-0.00473766
-0.0116058
-0.01834
-0.0247448
-0.0307532
-0.0360012
-0.0396501
-0.0421132
-0.043267
-0.0454071
-0.0433859
-0.0427489
-0.0425973
-0.0427776
-0.0428175
-0.0427563
-0.0426029
-0.0425648
-0.042471
-0.0423726
-0.0422878
-0.0421866
-0.0416889
-0.0418166
-0.0419021
-0.0418846
-0.0418326
-0.0417551
-0.0416751
-0.0416693
-0.0416353
-0.0415647
-0.0411759
-0.0388268
-0.0408539
-0.0408957
-0.0414571
-0.0415888
-0.0416559
-0.0417213
-0.0417939
-0.0418704
-0.0420288
-0.0422078
-0.0423542
-0.042345
-0.0424236
-0.0425839
-0.0428026
-0.0424498
-0.0419969
-0.0426307
-0.0426474
-0.0427037
-0.0430197
-0.043108
-0.0429302
-0.0419656
-0.0417313
-0.039464
0
0
-0.00497633
-0.0122727
-0.0194555
-0.0263083
-0.0327543
-0.0384643
-0.0428906
-0.0446975
-0.045583
-0.0460555
-0.04546
-0.0450358
-0.044812
-0.0447115
-0.0445905
-0.0444402
-0.0443346
-0.0440976
-0.0439266
-0.043796
-0.0437165
-0.0437223
-0.0270033
-0.0431476
-0.0432353
-0.0431587
-0.0430468
-0.0405247
-0.0427959
-0.042744
-0.042597
-0.0425501
-0.0422844
-0.0417618
-0.0421115
-0.0422879
-0.0425213
-0.042664
-0.0427612
-0.0428396
-0.0428829
-0.0428403
-0.0430348
-0.0432263
-0.0433533
-0.0434025
-0.0434464
-0.0434787
-0.0434867
-0.0439739
-0.0215518
-0.0502428
-0.0438674
-0.0438697
-0.0440262
-0.0441715
-0.0441281
-0.0174567
-0.0428727
-0.0403882
0
0
-0.00521327
-0.0129416
-0.0205797
-0.0278833
-0.0347319
-0.0407054
-0.0449752
-0.0468774
-0.0476111
-0.0477126
-0.0474488
-0.0471417
-0.0468714
-0.0466295
-0.0463874
-0.0461342
-0.0458581
-0.0455738
-0.0453516
-0.0451796
-0.0450347
-0.0448381
-0.0443654
-0.0444891
-0.0445388
-0.0443258
-0.0441193
-0.0439375
-0.0438885
-0.0438682
-0.0439192
-0.0437209
-0.0435469
-0.0433924
-0.0434455
-0.0435414
-0.0436629
-0.0437729
-0.0438737
-0.0439683
-0.0439943
-0.0436248
-0.0440307
-0.0442826
-0.0444054
-0.0444687
-0.0445117
-0.0445422
-0.0445826
-0.0447215
-0.0443182
-0.0449078
-0.0449269
-0.0449447
-0.0450079
-0.0450416
-0.0448668
-0.0440218
-0.0436098
-0.04121
0
0
-0.00544577
-0.0136078
-0.0217081
-0.0294725
-0.0367259
-0.0429848
-0.0473708
-0.0487691
-0.0496046
-0.0496723
-0.0495163
-0.0492201
-0.0488727
-0.0485281
-0.048193
-0.0478623
-0.0474146
-0.0470015
-0.0467343
-0.0465406
-0.0463906
-0.0462308
-0.0459712
-0.0458762
-0.0459343
-0.0454118
-0.0451492
-0.0450301
-0.0449889
-0.0449656
-0.0449379
-0.0448452
-0.044746
-0.0446754
-0.044676
-0.0447223
-0.0447957
-0.0448821
-0.0449827
-0.0451131
-0.0452439
-0.0294068
-0.0451626
-0.0453932
-0.0454899
-0.0455512
-0.0456039
-0.0456502
-0.0456983
-0.0457535
-0.0457138
-0.045882
-0.0459438
-0.0459772
-0.0460065
-0.045998
-0.045839
-0.0454958
-0.0445981
-0.0420703
0
0
-0.00566922
-0.0142608
-0.0228321
-0.0310855
-0.0387585
-0.045346
-0.0501373
-0.0183767
-0.051873
-0.0518251
-0.0517338
-0.0512939
-0.0508268
-0.0503823
-0.0499833
-0.0496844
-0.0489278
-0.0483066
-0.0480521
-0.0478633
-0.0477651
-0.0475277
-0.0472683
-0.0471343
-0.0473396
-0.0463267
-0.0462177
-0.0462071
-0.0461692
-0.0461146
-0.0460478
-0.0459672
-0.0458911
-0.0458396
-0.0458273
-0.045851
-0.0459016
-0.0459704
-0.0460508
-0.0461291
-0.0461378
-0.0458224
-0.0461672
-0.0463952
-0.0465316
-0.0466295
-0.0467078
-0.0467712
-0.0468227
-0.0468629
-0.0468856
-0.0469447
-0.0469865
-0.0470158
-0.0470385
-0.0470515
-0.0470547
-0.0466948
-0.0456243
-0.0429765
0
0
-0.00587764
-0.0148776
-0.0239473
-0.0327309
-0.0408154
-0.047614
-0.0521923
-0.0536918
-0.054392
-0.0544009
-0.0537188
-0.0531619
-0.052632
-0.0521454
-0.0516519
-0.0517918
-0.0502753
-0.049423
-0.0493317
-0.0491145
-0.0492257
-0.0488213
-0.048396
-0.0479368
-0.047199
-0.0479945
-0.047904
-0.0476856
-0.0474883
-0.0473232
-0.0471898
-0.0470813
-0.0469978
-0.0469437
-0.0469245
-0.0469388
-0.0469806
-0.0470429
-0.047116
-0.0471809
-0.0472007
-0.04715
-0.0472789
-0.0474425
-0.047596
-0.0477283
-0.0478349
-0.0479137
-0.0479661
-0.0479961
-0.0480126
-0.0480319
-0.0480504
-0.0480679
-0.0480815
-0.0480854
-0.0480499
-0.0477642
-0.046634
-0.0439073
0
0
-0.00607104
-0.0153725
-0.0251761
-0.0344017
-0.042908
-0.0499933
-0.0546517
-0.0566022
-0.0569829
-0.0566325
-0.0559172
-0.0551931
-0.0545207
-0.0539632
-0.0538928
-0.054364
-0.0512603
-0.0509845
-0.0505368
-0.0501967
-0.0631411
-0.0500093
-0.049558
-0.049109
-0.0486336
-0.0488409
-0.048875
-0.0487661
-0.0485982
-0.0484279
-0.048279
-0.0481576
-0.0480639
-0.0480008
-0.0479772
-0.0479907
-0.0480349
-0.0481045
-0.048192
-0.0482779
-0.0483192
-0.0482898
-0.0483485
-0.0484983
-0.0486858
-0.048863
-0.0490028
-0.0490966
-0.0491452
-0.0491562
-0.0491457
-0.0491325
-0.0491281
-0.0491336
-0.0491335
-0.0491177
-0.0490772
-0.0488145
-0.0476389
-0.0448519
0
0
-0.00631857
-0.015194
-0.0264166
-0.0363014
-0.0452107
-0.0525481
-0.0573176
-0.0593269