# vtk DataFile Version 2.0
FlowField
ASCII
DATASET STRUCTURED_GRID
DIMENSIONS 102 11 11 
POINTS 12342 double
0 0 0
0 0 0.2
0 0 0.4
0 0 0.6
0 0 0.8
0 0 1
0 0 1.2
0 0 1.4
0 0 1.6
0 0 1.8
0 0 2
0 0.1 0
0 0.1 0.2
0 0.1 0.4
0 0.1 0.6
0 0.1 0.8
0 0.1 1
0 0.1 1.2
0 0.1 1.4
0 0.1 1.6
0 0.1 1.8
0 0.1 2
0 0.2 0
0 0.2 0.2
0 0.2 0.4
0 0.2 0.6
0 0.2 0.8
0 0.2 1
0 0.2 1.2
0 0.2 1.4
0 0.2 1.6
0 0.2 1.8
0 0.2 2
0 0.3 0
0 0.3 0.2
0 0.3 0.4
0 0.3 0.6
0 0.3 0.8
0 0.3 1
0 0.3 1.2
0 0.3 1.4
0 0.3 1.6
0 0.3 1.8
0 0.3 2
0 0.4 0
0 0.4 0.2
0 0.4 0.4
0 0.4 0.6
0 0.4 0.8
0 0.4 1
0 0.4 1.2
0 0.4 1.4
0 0.4 1.6
0 0.4 1.8
0 0.4 2
0 0.5 0
0 0.5 0.2
0 0.5 0.4
0 0.5 0.6
0 0.5 0.8
0 0.5 1
0 0.5 1.2
0 0.5 1.4
0 0.5 1.6
0 0.5 1.8
0 0.5 2
0 0.6 0
0 0.6 0.2
0 0.6 0.4
0 0.6 0.6
0 0.6 0.8
0 0.6 1
0 0.6 1.2
0 0.6 1.4
0 0.6 1.6
0 0.6 1.8
0 0.6 2
0 0.7 0
0 0.7 0.2
0 0.7 0.4
0 0.7 0.6
0 0.7 0.8
0 0.7 1
0 0.7 1.2
0 0.7 1.4
0 0.7 1.6
0 0.7 1.8
0 0.7 2
0 0.8 0
0 0.8 0.2
0 0.8 0.4
0 0.8 0.6
0 0.8 0.8
0 0.8 1
0 0.8 1.2
0 0.8 1.4
0 0.8 1.6
0 0.8 1.8
0 0.8 2
0 0.9 0
0 0.9 0.2
0 0.9 0.4
0 0.9 0.6
0 0.9 0.8
0 0.9 1
0 0.9 1.2
0 0.9 1.4
0 0.9 1.6
0 0.9 1.8
0 0.9 2
0 1 0
0 1 0.2
0 1 0.4
0 1 0.6
0 1 0.8
0 1 1
0 1 1.2
0 1 1.4
0 1 1.6
0 1 1.8
0 1 2
0.2 0 0
0.2 0 0.2
0.2 0 0.4
0.2 0 0.6
0.2 0 0.8
0.2 0 1
0.2 0 1.2
0.2 0 1.4
0.2 0 1.6
0.2 0 1.8
0.2 0 2
0.2 0.1 0
0.2 0.1 0.2
0.2 0.1 0.4
0.2 0.1 0.6
0.2 0.1 0.8
0.2 0.1 1
0.2 0.1 1.2
0.2 0.1 1.4
0.2 0.1 1.6
0.2 0.1 1.8
0.2 0.1 2
0.2 0.2 0
0.2 0.2 0.2
0.2 0.2 0.4
0.2 0.2 0.6
0.2 0.2 0.8
0.2 0.2 1
0.2 0.2 1.2
0.2 0.2 1.4
0.2 0.2 1.6
0.2 0.2 1.8
0.2 0.2 2
0.2 0.3 0
0.2 0.3 0.2
0.2 0.3 0.4
0.2 0.3 0.6
0.2 0.3 0.8
0.2 0.3 1
0.2 0.3 1.2
0.2 0.3 1.4
0.2 0.3 1.6
0.2 0.3 1.8
0.2 0.3 2
0.2 0.4 0
0.2 0.4 0.2
0.2 0.4 0.4
0.2 0.4 0.6
0.2 0.4 0.8
0.2 0.4 1
0.2 0.4 1.2
0.2 0.4 1.4
0.2 0.4 1.6
0.2 0.4 1.8
0.2 0.4 2
0.2 0.5 0
0.2 0.5 0.2
0.2 0.5 0.4
0.2 0.5 0.6
0.2 0.5 0.8
0.2 0.5 1
0.2 0.5 1.2
0.2 0.5 1.4
0.2 0.5 1.6
0.2 0.5 1.8
0.2 0.5 2
0.2 0.6 0
0.2 0.6 0.2
0.2 0.6 0.4
0.2 0.6 0.6
0.2 0.6 0.8
0.2 0.6 1
0.2 0.6 1.2
0.2 0.6 1.4
0.2 0.6 1.6
0.2 0.6 1.8
0.2 0.6 2
0.2 0.7 0
0.2 0.7 0.2
0.2 0.7 0.4
0.2 0.7 0.6
0.2 0.7 0.8
0.2 0.7 1
0.2 0.7 1.2
0.2 0.7 1.4
0.2 0.7 1.6
0.2 0.7 1.8
0.2 0.7 2
0.2 0.8 0
0.2 0.8 0.2
0.2 0.8 0.4
0.2 0.8 0.6
0.2 0.8 0.8
0.2 0.8 1
0.2 0.8 1.2
0.2 0.8 1.4
0.2 0.8 1.6
0.2 0.8 1.8
0.2 0.8 2
0.2 0.9 0
0.2 0.9 0.2
0.2 0.9 0.4
0.2 0.9 0.6
0.2 0.9 0.8
0.2 0.9 1
0.2 0.9 1.2
0.2 0.9 1.4
0.2 0.9 1.6
0.2 0.9 1.8
0.2 0.9 2
0.2 1 0
0.2 1 0.2
0.2 1 0.4
0.2 1 0.6
0.2 1 0.8
0.2 1 1
0.2 1 1.2
0.2 1 1.4
0.2 1 1.6
0.2 1 1.8
0.2 1 2
0.4 0 0
0.4 0 0.2
0.4 0 0.4
0.4 0 0.6
0.4 0 0.8
0.4 0 1
0.4 0 1.2
0.4 0 1.4
0.4 0 1.6
0.4 0 1.8
0.4 0 2
0.4 0.1 0
0.4 0.1 0.2
0.4 0.1 0.4
0.4 0.1 0.6
0.4 0.1 0.8
0.4 0.1 1
0.4 0.1 1.2
0.4 0.1 1.4
0.4 0.1 1.6
0.4 0.1 1.8
0.4 0.1 2
0.4 0.2 0
0.4 0.2 0.2
0.4 0.2 0.4
0.4 0.2 0.6
0.4 0.2 0.8
0.4 0.2 1
0.4 0.2 1.2
0.4 0.2 1.4
0.4 0.2 1.6
0.4 0.2 1.8
0.4 0.2 2
0.4 0.3 0
0.4 0.3 0.2
0.4 0.3 0.4
0.4 0.3 0.6
0.4 0.3 0.8
0.4 0.3 1
0.4 0.3 1.2
0.4 0.3 1.4
0.4 0.3 1.6
0.4 0.3 1.8
0.4 0.3 2
0.4 0.4 0
0.4 0.4 0.2
0.4 0.4 0.4
0.4 0.4 0.6
0.4 0.4 0.8
0.4 0.4 1
0.4 0.4 1.2
0.4 0.4 1.4
0.4 0.4 1.6
0.4 0.4 1.8
0.4 0.4 2
0.4 0.5 0
0.4 0.5 0.2
0.4 0.5 0.4
0.4 0.5 0.6
0.4 0.5 0.8
0.4 0.5 1
0.4 0.5 1.2
0.4 0.5 1.4
0.4 0.5 1.6
0.4 0.5 1.8
0.4 0.5 2
0.4 0.6 0
0.4 0.6 0.2
0.4 0.6 0.4
0.4 0.6 0.6
0.4 0.6 0.8
0.4 0.6 1
0.4 0.6 1.2
0.4 0.6 1.4
0.4 0.6 1.6
0.4 0.6 1.8
0.4 0.6 2
0.4 0.7 0
0.4 0.7 0.2
0.4 0.7 0.4
0.4 0.7 0.6
0.4 0.7 0.8
0.4 0.7 1
0.4 0.7 1.2
0.4 0.7 1.4
0.4 0.7 1.6
0.4 0.7 1.8
0.4 0.7 2
0.4 0.8 0
0.4 0.8 0.2
0.4 0.8 0.4
0.4 0.8 0.6
0.4 0.8 0.8
0.4 0.8 1
0.4 0.8 1.2
0.4 0.8 1.4
0.4 0.8 1.6
0.4 0.8 1.8
0.4 0.8 2
0.4 0.9 0
0.4 0.9 0.2
0.4 0.9 0.4
0.4 0.9 0.6
0.4 0.9 0.8
0.4 0.9 1
0.4 0.9 1.2
0.4 0.9 1.4
0.4 0.9 1.6
0.4 0.9 1.8
0.4 0.9 2
0.4 1 0
0.4 1 0.2
0.4 1 0.4
0.4 1 0.6
0.4 1 0.8
0.4 1 1
0.4 1 1.2
0.4 1 1.4
0.4 1 1.6
0.4 1 1.8
0.4 1 2
0.6 0 0
0.6 0 0.2
0.6 0 0.4
0.6 0 0.6
0.6 0 0.8
0.6 0 1
0.6 0 1.2
0.6 0 1.4
0.6 0 1.6
0.6 0 1.8
0.6 0 2
0.6 0.1 0
0.6 0.1 0.2
0.6 0.1 0.4
0.6 0.1 0.6
0.6 0.1 0.8
0.6 0.1 1
0.6 0.1 1.2
0.6 0.1 1.4
0.6 0.1 1.6
0.6 0.1 1.8
0.6 0.1 2
0.6 0.2 0
0.6 0.2 0.2
0.6 0.2 0.4
0.6 0.2 0.6
0.6 0.2 0.8
0.6 0.2 1
0.6 0.2 1.2
0.6 0.2 1.4
0.6 0.2 1.6
0.6 0.2 1.8
0.6 0.2 2
0.6 0.3 0
0.6 0.3 0.2
0.6 0.3 0.4
0.6 0.3 0.6
0.6 0.3 0.8
0.6 0.3 1
0.6 0.3 1.2
0.6 0.3 1.4
0.6 0.3 1.6
0.6 0.3 1.8
0.6 0.3 2
0.6 0.4 0
0.6 0.4 0.2
0.6 0.4 0.4
0.6 0.4 0.6
0.6 0.4 0.8
0.6 0.4 1
0.6 0.4 1.2
0.6 0.4 1.4
0.6 0.4 1.6
0.6 0.4 1.8
0.6 0.4 2
0.6 0.5 0
0.6 0.5 0.2
0.6 0.5 0.4
0.6 0.5 0.6
0.6 0.5 0.8
0.6 0.5 1
0.6 0.5 1.2
0.6 0.5 1.4
0.6 0.5 1.6
0.6 0.5 1.8
0.6 0.5 2
0.6 0.6 0
0.6 0.6 0.2
0.6 0.6 0.4
0.6 0.6 0.6
0.6 0.6 0.8
0.6 0.6 1
0.6 0.6 1.2
0.6 0.6 1.4
0.6 0.6 1.6
0.6 0.6 1.8
0.6 0.6 2
0.6 0.7 0
0.6 0.7 0.2
0.6 0.7 0.4
0.6 0.7 0.6
0.6 0.7 0.8
0.6 0.7 1
0.6 0.7 1.2
0.6 0.7 1.4
0.6 0.7 1.6
0.6 0.7 1.8
0.6 0.7 2
0.6 0.8 0
0.6 0.8 0.2
0.6 0.8 0.4
0.6 0.8 0.6
0.6 0.8 0.8
0.6 0.8 1
0.6 0.8 1.2
0.6 0.8 1.4
0.6 0.8 1.6
0.6 0.8 1.8
0.6 0.8 2
0.6 0.9 0
0.6 0.9 0.2
0.6 0.9 0.4
0.6 0.9 0.6
0.6 0.9 0.8
0.6 0.9 1
0.6 0.9 1.2
0.6 0.9 1.4
0.6 0.9 1.6
0.6 0.9 1.8
0.6 0.9 2
0.6 1 0
0.6 1 0.2
0.6 1 0.4
0.6 1 0.6
0.6 1 0.8
0.6 1 1
0.6 1 1.2
0.6 1 1.4
0.6 1 1.6
0.6 1 1.8
0.6 1 2
0.8 0 0
0.8 0 0.2
0.8 0 0.4
0.8 0 0.6
0.8 0 0.8
0.8 0 1
0.8 0 1.2
0.8 0 1.4
0.8 0 1.6
0.8 0 1.8
0.8 0 2
0.8 0.1 0
0.8 0.1 0.2
0.8 0.1 0.4
0.8 0.1 0.6
0.8 0.1 0.8
0.8 0.1 1
0.8 0.1 1.2
0.8 0.1 1.4
0.8 0.1 1.6
0.8 0.1 1.8
0.8 0.1 2
0.8 0.2 0
0.8 0.2 0.2
0.8 0.2 0.4
0.8 0.2 0.6
0.8 0.2 0.8
0.8 0.2 1
0.8 0.2 1.2
0.8 0.2 1.4
0.8 0.2 1.6
0.8 0.2 1.8
0.8 0.2 2
0.8 0.3 0
0.8 0.3 0.2
0.8 0.3 0.4
0.8 0.3 0.6
0.8 0.3 0.8
0.8 0.3 1
0.8 0.3 1.2
0.8 0.3 1.4
0.8 0.3 1.6
0.8 0.3 1.8
0.8 0.3 2
0.8 0.4 0
0.8 0.4 0.2
0.8 0.4 0.4
0.8 0.4 0.6
0.8 0.4 0.8
0.8 0.4 1
0.8 0.4 1.2
0.8 0.4 1.4
0.8 0.4 1.6
0.8 0.4 1.8
0.8 0.4 2
0.8 0.5 0
0.8 0.5 0.2
0.8 0.5 0.4
0.8 0.5 0.6
0.8 0.5 0.8
0.8 0.5 1
0.8 0.5 1.2
0.8 0.5 1.4
0.8 0.5 1.6
0.8 0.5 1.8
0.8 0.5 2
0.8 0.6 0
0.8 0.6 0.2
0.8 0.6 0.4
0.8 0.6 0.6
0.8 0.6 0.8
0.8 0.6 1
0.8 0.6 1.2
0.8 0.6 1.4
0.8 0.6 1.6
0.8 0.6 1.8
0.8 0.6 2
0.8 0.7 0
0.8 0.7 0.2
0.8 0.7 0.4
0.8 0.7 0.6
0.8 0.7 0.8
0.8 0.7 1
0.8 0.7 1.2
0.8 0.7 1.4
0.8 0.7 1.6
0.8 0.7 1.8
0.8 0.7 2
0.8 0.8 0
0.8 0.8 0.2
0.8 0.8 0.4
0.8 0.8 0.6
0.8 0.8 0.8
0.8 0.8 1
0.8 0.8 1.2
0.8 0.8 1.4
0.8 0.8 1.6
0.8 0.8 1.8
0.8 0.8 2
0.8 0.9 0
0.8 0.9 0.2
0.8 0.9 0.4
0.8 0.9 0.6
0.8 0.9 0.8
0.8 0.9 1
0.8 0.9 1.2
0.8 0.9 1.4
0.8 0.9 1.6
0.8 0.9 1.8
0.8 0.9 2
0.8 1 0
0.8 1 0.2
0.8 1 0.4
0.8 1 0.6
0.8 1 0.8
0.8 1 1
0.8 1 1.2
0.8 1 1.4
0.8 1 1.6
0.8 1 1.8
0.8 1 2
1 0 0
1 0 0.2
1 0 0.4
1 0 0.6
1 0 0.8
1 0 1
1 0 1.2
1 0 1.4
1 0 1.6
1 0 1.8
1 0 2
1 0.1 0
1 0.1 0.2
1 0.1 0.4
1 0.1 0.6
1 0.1 0.8
1 0.1 1
1 0.1 1.2
1 0.1 1.4
1 0.1 1.6
1 0.1 1.8
1 0.1 2
1 0.2 0
1 0.2 0.2
1 0.2 0.4
1 0.2 0.6
1 0.2 0.8
1 0.2 1
1 0.2 1.2
1 0.2 1.4
1 0.2 1.6
1 0.2 1.8
1 0.2 2
1 0.3 0
1 0.3 0.2
1 0.3 0.4
1 0.3 0.6
1 0.3 0.8
1 0.3 1
1 0.3 1.2
1 0.3 1.4
1 0.3 1.6
1 0.3 1.8
1 0.3 2
1 0.4 0
1 0.4 0.2
1 0.4 0.4
1 0.4 0.6
1 0.4 0.8
1 0.4 1
1 0.4 1.2
1 0.4 1.4
1 0.4 1.6
1 0.4 1.8
1 0.4 2
1 0.5 0
1 0.5 0.2
1 0.5 0.4
1 0.5 0.6
1 0.5 0.8
1 0.5 1
1 0.5 1.2
1 0.5 1.4
1 0.5 1.6
1 0.5 1.8
1 0.5 2
1 0.6 0
1 0.6 0.2
1 0.6 0.4
1 0.6 0.6
1 0.6 0.8
1 0.6 1
1 0.6 1.2
1 0.6 1.4
1 0.6 1.6
1 0.6 1.8
1 0.6 2
1 0.7 0
1 0.7 0.2
1 0.7 0.4
1 0.7 0.6
1 0.7 0.8
1 0.7 1
1 0.7 1.2
1 0.7 1.4
1 0.7 1.6
1 0.7 1.8
1 0.7 2
1 0.8 0
1 0.8 0.2
1 0.8 0.4
1 0.8 0.6
1 0.8 0.8
1 0.8 1
1 0.8 1.2
1 0.8 1.4
1 0.8 1.6
1 0.8 1.8
1 0.8 2
1 0.9 0
1 0.9 0.2
1 0.9 0.4
1 0.9 0.6
1 0.9 0.8
1 0.9 1
1 0.9 1.2
1 0.9 1.4
1 0.9 1.6
1 0.9 1.8
1 0.9 2
1 1 0
1 1 0.2
1 1 0.4
1 1 0.6
1 1 0.8
1 1 1
1 1 1.2
1 1 1.4
1 1 1.6
1 1 1.8
1 1 2
1.2 0 0
1.2 0 0.2
1.2 0 0.4
1.2 0 0.6
1.2 0 0.8
1.2 0 1
1.2 0 1.2
1.2 0 1.4
1.2 0 1.6
1.2 0 1.8
1.2 0 2
1.2 0.1 0
1.2 0.1 0.2
1.2 0.1 0.4
1.2 0.1 0.6
1.2 0.1 0.8
1.2 0.1 1
1.2 0.1 1.2
1.2 0.1 1.4
1.2 0.1 1.6
1.2 0.1 1.8
1.2 0.1 2
1.2 0.2 0
1.2 0.2 0.2
1.2 0.2 0.4
1.2 0.2 0.6
1.2 0.2 0.8
1.2 0.2 1
1.2 0.2 1.2
1.2 0.2 1.4
1.2 0.2 1.6
1.2 0.2 1.8
1.2 0.2 2
1.2 0.3 0
1.2 0.3 0.2
1.2 0.3 0.4
1.2 0.3 0.6
1.2 0.3 0.8
1.2 0.3 1
1.2 0.3 1.2
1.2 0.3 1.4
1.2 0.3 1.6
1.2 0.3 1.8
1.2 0.3 2
1.2 0.4 0
1.2 0.4 0.2
1.2 0.4 0.4
1.2 0.4 0.6
1.2 0.4 0.8
1.2 0.4 1
1.2 0.4 1.2
1.2 0.4 1.4
1.2 0.4 1.6
1.2 0.4 1.8
1.2 0.4 2
1.2 0.5 0
1.2 0.5 0.2
1.2 0.5 0.4
1.2 0.5 0.6
1.2 0.5 0.8
1.2 0.5 1
1.2 0.5 1.2
1.2 0.5 1.4
1.2 0.5 1.6
1.2 0.5 1.8
1.2 0.5 2
1.2 0.6 0
1.2 0.6 0.2
1.2 0.6 0.4
1.2 0.6 0.6
1.2 0.6 0.8
1.2 0.6 1
1.2 0.6 1.2
1.2 0.6 1.4
1.2 0.6 1.6
1.2 0.6 1.8
1.2 0.6 2
1.2 0.7 0
1.2 0.7 0.2
1.2 0.7 0.4
1.2 0.7 0.6
1.2 0.7 0.8
1.2 0.7 1
1.2 0.7 1.2
1.2 0.7 1.4
1.2 0.7 1.6
1.2 0.7 1.8
1.2 0.7 2
1.2 0.8 0
1.2 0.8 0.2
1.2 0.8 0.4
1.2 0.8 0.6
1.2 0.8 0.8
1.2 0.8 1
1.2 0.8 1.2
1.2 0.8 1.4
1.2 0.8 1.6
1.2 0.8 1.8
1.2 0.8 2
1.2 0.9 0
1.2 0.9 0.2
1.2 0.9 0.4
1.2 0.9 0.6
1.2 0.9 0.8
1.2 0.9 1
1.2 0.9 1.2
1.2 0.9 1.4
1.2 0.9 1.6
1.2 0.9 1.8
1.2 0.9 2
1.2 1 0
1.2 1 0.2
1.2 1 0.4
1.2 1 0.6
1.2 1 0.8
1.2 1 1
1.2 1 1.2
1.2 1 1.4
1.2 1 1.6
1.2 1 1.8
1.2 1 2
1.4 0 0
1.4 0 0.2
1.4 0 0.4
1.4 0 0.6
1.4 0 0.8
1.4 0 1
1.4 0 1.2
1.4 0 1.4
1.4 0 1.6
1.4 0 1.8
1.4 0 2
1.4 0.1 0
1.4 0.1 0.2
1.4 0.1 0.4
1.4 0.1 0.6
1.4 0.1 0.8
1.4 0.1 1
1.4 0.1 1.2
1.4 0.1 1.4
1.4 0.1 1.6
1.4 0.1 1.8
1.4 0.1 2
1.4 0.2 0
1.4 0.2 0.2
1.4 0.2 0.4
1.4 0.2 0.6
1.4 0.2 0.8
1.4 0.2 1
1.4 0.2 1.2
1.4 0.2 1.4
1.4 0.2 1.6
1.4 0.2 1.8
1.4 0.2 2
1.4 0.3 0
1.4 0.3 0.2
1.4 0.3 0.4
1.4 0.3 0.6
1.4 0.3 0.8
1.4 0.3 1
1.4 0.3 1.2
1.4 0.3 1.4
1.4 0.3 1.6
1.4 0.3 1.8
1.4 0.3 2
1.4 0.4 0
1.4 0.4 0.2
1.4 0.4 0.4
1.4 0.4 0.6
1.4 0.4 0.8
1.4 0.4 1
1.4 0.4 1.2
1.4 0.4 1.4
1.4 0.4 1.6
1.4 0.4 1.8
1.4 0.4 2
1.4 0.5 0
1.4 0.5 0.2
1.4 0.5 0.4
1.4 0.5 0.6
1.4 0.5 0.8
1.4 0.5 1
1.4 0.5 1.2
1.4 0.5 1.4
1.4 0.5 1.6
1.4 0.5 1.8
1.4 0.5 2
1.4 0.6 0
1.4 0.6 0.2
1.4 0.6 0.4
1.4 0.6 0.6
1.4 0.6 0.8
1.4 0.6 1
1.4 0.6 1.2
1.4 0.6 1.4
1.4 0.6 1.6
1.4 0.6 1.8
1.4 0.6 2
1.4 0.7 0
1.4 0.7 0.2
1.4 0.7 0.4
1.4 0.7 0.6
1.4 0.7 0.8
1.4 0.7 1
1.4 0.7 1.2
1.4 0.7 1.4
1.4 0.7 1.6
1.4 0.7 1.8
[...]
POINT_DATA 12342

SCALARS u double
LOOKUP_TABLE default
1
-1
-1
-1
-1
-1
-1
-1
-1
-1
1
-1
1
1
1
1
1
1
1
1
1
-1
-1
1
1
1
1
1
1
1
1
1
-1
-1
1
1
1
1
1
1
1
1
1
-1
-1
1
1
1
1
1
1
1
1
1
-1
-1
1
1
1
1
1
1
1
1
1
-1
-1
1
1
1
1
1
1
1
1
1
-1
-1
1
1
1
1
1
1
1
1
1
-1
-1
1
1
1
1
1
1
1
1
1
-1
-1
1
1
1
1
1
1
1
1
1
-1
1
-1
-1
-1
-1
-1
-1
-1
-1
-1
1
1.84478
-1.84478
-2.37203
-4.22132
-2.6019
-1.53256
-1.30912
-1.27241
-1.20691
-0.973213
0.973213
-1.84478
1.79486
-0.540669
-0.734972
13.5312
3.93237
1.05594
0.975908
0.454801
0.0230018
-0.973213
-1.84836
1.8318
-0.568437
-1.15174
13.8007
4.25564
1.26372
1.22283
0.608013
0.0519293
-1.02922
-1.84787
1.83188
-0.575576
-1.15717
13.851
4.24862
1.26112
1.21739
0.604424
0.0528027
-1.02956
-1.84813
1.83231
-0.577176
-1.15707
13.8738
4.23848
1.25494
1.21053
0.600301
0.0526821
-1.02871
-1.8485
1.83298
-0.576924
-1.15821
13.8804
4.23726
1.25455
1.21032
0.600525
0.0530849
-1.02894
-1.84903
1.83383
-0.575129
-1.15903
13.8751
4.2462
1.26081
1.21631
0.604527
0.0542248
-1.03037
-1.84984
1.83478
-0.571874
-1.16199
13.8629
4.27062
1.27596
1.23028
0.613002
0.056093
-1.03325
-1.8512
1.83535
-0.565701
-1.15947
13.8415
4.30532
1.29325
1.24345
0.619472
0.0571424
-1.03537
-1.84786
1.80094
-0.507916
-0.741917
13.4733
3.95452
1.07259
0.991238
0.464528
0.0261342
-0.977018
1.84786
-1.84786
-2.36799
-4.22042
-2.61414
-1.54417
-1.31971
-1.2841
-1.21774
-0.977018
0.977018
3.17302
-3.17302
-5.00999
-7.8628
-3.49033
-1.46605
-1.22225
-1.0524
-1.28511
-1.47006
1.47006
-3.17302
2.34962
-3.73635
3.37615
30.1379
3.35773
-1.47851
-1.22902
-0.186496
-0.181048
-1.47006
-3.17744
2.41331
-3.82701
2.79302
30.7052
3.80509
-1.18186
-0.890274
0.0220384
-0.134061
-1.55336
-3.1749
2.41352
-3.84828
2.76269
30.8072
3.79485
-1.18466
-0.888115
0.0277004
-0.132117
-1.55635
-3.17393
2.41319
-3.85753
2.75487
30.8557
3.78183
-1.1924
-0.894559
0.0258586
-0.131806
-1.5564
-3.17391
2.41366
-3.8589
2.75137
30.8707
3.78296
-1.19175
-0.894281
0.0262295
-0.131367
-1.55682
-3.1747
2.41514
-3.85289
2.7509
30.8561
3.79959
-1.18177
-0.88679
0.0291202
-0.130746
-1.55774
-3.17628
2.41726
-3.83936
2.75257
30.8128
3.83483
-1.16164
-0.871892
0.0342535
-0.130158
-1.55902
-3.1791
2.41857
-3.81371
2.77369
30.7181
3.87084
-1.14648
-0.866921
0.0305743
-0.131878
-1.55691
-3.17538
2.36011
-3.66859
3.33368
30.0085
3.39062
-1.46005
-1.21484
-0.188596
-0.184236
-1.46801
3.17538
-3.17538
-4.99688
-7.84999
-3.49874
-1.47393
-1.22819
-1.05961
-1.28937
-1.46801
1.46801
4.7154
-4.7154
-7.70606
-9.83199
-4.3804
-1.76036
-1.29257
-1.0125
-1.44284
-1.92094
1.92094
-4.7154
2.94373
-3.63674
11.4209
34.697
4.60254
-2.30119
-2.52194
-0.665602
-0.228255
-1.92094
-4.72262
3.02082
-3.8069
11.0265
35.333
5.05632
-1.97586
-2.1791
-0.445863
-0.15696
-2.02565
-4.71909
3.02049
-3.83741
11.0043
35.4287
5.05356
-1.97515
-2.17132
-0.436214
-0.154362
-2.02987
-4.71732
3.01932
-3.85071
10.9996
35.4723
5.04565
-1.98105
-2.17473
-0.435972
-0.154143
-2.0302
-4.71684
3.01934
-3.85321
10.9969
35.4851
5.04876
-1.97947
-2.17367
-0.4353
-0.153889
-2.03052
-4.71754
3.02103
-3.84547
10.9944
35.4693
5.06337
-1.96989
-2.16745
-0.4337
-0.153607
-2.03088
-4.71945
3.02405
-3.827
10.9918
35.4225
5.09021
-1.95268
-2.15665
-0.431685
-0.153503
-2.0311
-4.72306
3.02668
-3.79038
11.001
35.3184
5.11015
-1.94481
-2.15924
-0.440486
-0.156519
-2.02684
-4.7151
2.95839
-3.56495
11.3498
34.5527
4.62641
-2.28647
-2.51401
-0.675258
-0.23528
-1.91525
4.7151
-4.7151
-7.68749
-9.81155
-4.38221
-1.76318
-1.29346
-1.01406
-1.44094
-1.91525
1.91525
6.37041
-6.37041
-9.91362
-10.597
-5.198
-2.30882
-1.5243
-1.16195
-1.68254
-2.29998
2.29998
-6.37041
3.88275
-0.235808
18.719
32.427
6.47298
-1.75367
-2.82255
-0.832504
-0.0979898
-2.29998
-6.38791
3.95479
-0.430969
18.5919
33.0039
6.90057
-1.41987
-2.49552
-0.611338
-0.000494744
-2.42299
-6.38434
3.95288
-0.463293
18.5885
33.0762
6.90461
-1.41559
-2.48617
-0.601038
0.00299266
-2.42795
-6.38231
3.95082
-0.476909
18.5898
33.1071
6.90107
-1.41938
-2.48787
-0.600118
0.00316117
-2.42833
-6.38161
3.95046
-0.479665
18.5886
33.1154
6.90428
-1.41754
-2.48654
-0.599325
0.00331982
-2.42852
-6.38218
3.95234
-0.472429
18.5833
33.1026
6.91438
-1.40975
-2.48166
-0.598262
0.00348906
-2.42861
-6.38405
3.95623
-0.454562
18.5732
33.0665
6.93142
-1.39663
-2.47387
-0.597432
0.00345887
-2.4284
-6.3875
3.96083
-0.417975
18.5622
32.9848
6.93867
-1.39441
-2.47945
-0.60747
-0.000655522
-2.42304
-6.36621
3.9011
-0.182321
18.6259
32.3011
6.47843
-1.74607
-2.82012
-0.845425
-0.108264
-2.29207
6.36621
-6.36621
-9.89051
-10.5743
-5.19383
-2.30736
-1.52177
-1.15991
-1.67739
-2.29207
2.29207
7.98749
-7.98749
-11.3724
-10.7247
-5.88655
-2.96219
-1.88356
-1.46781
-1.99316
-2.62707
2.62707
-7.98749
5.40132
5.08451
22.8739
28.1369
8.11519
-0.491247
-2.3579
-0.639249
0.224146
-2.62707
-8.02476
5.45566
4.93826
22.9512
28.6294
8.51526
-0.15692
-2.04763
-0.417349
0.347053
-2.76545
-8.02202
5.45134
4.91202
22.9613
28.6789
8.52362
-0.150179
-2.03822
-0.407395
0.351549
-2.77098
-8.02013
5.44825
4.90101
22.9663
28.6985
8.5226
-0.152451
-2.03922
-0.406444
0.351778
-2.77136
-8.0194
5.44752
4.89852
22.966
28.7035
8.52525
-0.150705
-2.03794
-0.405661
0.351942
-2.77149
-8.01979
5.44962
4.90366
22.9595
28.695
8.53169
-0.144686
-2.034
-0.40473
0.352103
-2.77148
-8.02135
5.45442
4.91697
22.9459
28.6714
8.54191
-0.134872
-2.02793
-0.404104
0.352027
-2.77114
-8.02378
5.46138
4.94505
22.9229
28.6153
8.541
-0.136422
-2.03433
-0.41393
0.346852
-2.76511
-7.97863
5.42016
5.10874
22.7741
28.0344
8.10441
-0.491257
-2.36007
-0.653777
0.211025
-2.61784
7.97863
-7.97863
-11.3466
-10.7019
-5.8782
-2.95752
-1.8789
-1.46355
-1.98624
-2.61784
2.61784
9.40066
-9.40066
-12.1179
-10.5916
-6.43068
-3.61466
-2.33151
-1.8838
-2.35564
-2.92518
2.92518
-9.40066
7.38301
10.6203
24.1328
24.1696
9.27083
1.00818
-1.39373
-0.119701
0.722467
-2.92518
-9.46501
7.42403
10.5662
24.3294
24.5939
9.64739
1.33805
-1.09719
0.104207
0.868384
-3.07596
-9.46366
7.41927
10.5483
24.3448
24.6272
9.65806
1.34627
-1.08804
0.113701
0.873827
-3.08194
-9.46211
7.41626
10.5404
24.3506
24.639
9.65836
1.345
-1.08869
0.114527
0.874163
-3.08232
-9.46145
7.41552
10.5382
24.3507
24.642
9.66045
1.34656
-1.08753
0.115268
0.874384
-3.08244
-9.46166
7.41739
10.5412
24.3448
24.6369
9.66457
1.35122
-1.08426
0.116198
0.874584
-3.08243
-9.46277
7.42189
10.5496
24.3321
24.6228
9.67062
1.35863
-1.07927
0.116912
0.874514
-3.08208
-9.46364
7.42904
10.5672
24.3069
24.5855
9.66481
1.35459
-1.08587
0.107587
0.868431
-3.07561
-9.38713
7.39862
10.6145
24.0383
24.086
9.24874
1.00131
-1.40011
-0.135503
0.706956
-2.9152
9.38713
-9.38713
-12.0912
-10.5696
-6.41958
-3.60768
-2.32542
-1.87801
-2.34759
-2.9152
2.9152
10.493
-10.493
-12.3397
-10.3799
-6.83992
-4.21147
-2.83029
-2.36301
-2.74793
-3.21112
3.21112
-10.493
9.6749
15.0954
23.699
21.1585
9.99335
2.49039
-0.153672
0.64671
1.36417
-3.21112
-10.5873
9.71465
15.1419
23.9546
21.5366
10.3502
2.81264
0.132348
0.874309
1.52995
-3.37161
-10.5875
9.7096
15.1329
23.9703
21.5599
10.3618
2.82167
0.141312
0.883471
1.53618
-3.37792
-10.5864
9.7066
15.1281
23.9753
21.5671
10.3627
2.82106
0.140909
0.884188
1.53661
-3.37831
-10.5859
9.70579
15.1265
23.9756
21.569
10.3644
2.82245
0.141963
0.884891
1.53691
-3.37845
-10.5859
9.70742
15.1277
23.9711
21.5662
10.3672
2.82613
0.144745
0.885835
1.53718
-3.37847
-10.5865
9.71158
15.1317
23.9613
21.5581
10.3708
2.83179
0.148928
0.886653
1.53717
-3.37817
-10.5856
9.71854
15.1392
23.9387
21.5323
10.3624
2.82615
0.142179
0.877718
1.53041
-3.37143
-10.4755
9.68265
15.0667
23.6146
21.0883
9.96445
2.47785
-0.163909
0.629484
1.34673
-3.20073
10.4755
-10.4755
-12.3134
-10.3588
-6.82713
-4.20284
-2.82312
-2.35605
-2.73908
-3.20073
3.20073
11.2251
-11.2251
-12.2384
-10.1555
-7.13617
-4.73433
-3.34612
-2.86663
-3.14962
-3.49382
3.49382
-11.2251
12.0559
18.0529
22.576
19.0261
10.4281
3.85464
1.19717
1.57017
2.11009
-3.49382
-11.348
12.1114
18.1837
22.8573
19.3745
10.7683
4.16789
1.47573
1.80249
2.29248
-3.6618
-11.3499
12.1069
18.1816
22.8714
19.3921
10.78
4.1773
1.4846
1.8115
2.29931
-3.66836
-11.3492
12.1041
18.1793
22.8752
19.3966
10.7812
4.17713
1.48442
1.81216
2.29983
-3.66876
-11.3488
12.1033
18.1783
22.8756
19.3979
10.7827
4.17839
1.4854
1.81285
2.30019
-3.66892
-11.3487
12.1046
18.1783
22.8726
19.3965
10.7846
4.18136
1.48779
1.81379
2.30056
-3.66898
-11.3489
12.1081
18.1795
22.8657
19.3919
10.787
4.18576
1.4913
1.81465
2.30066
-3.66877
-11.3463
12.1138
18.1795
22.8469
19.3727
10.7774
4.1791
1.48435
1.80591
2.29345
-3.66187
-11.2048
12.0528
18.0102
22.5018
18.965
10.3957
3.83761
1.1834
1.55141
2.09113
-3.48322
11.2048
-11.2048
-12.2131
-10.1351
-7.12238
-4.72453
-3.33804
-2.85872
-3.14014
-3.48322
3.48322
11.622
-11.622
-11.962
-9.93483
-7.34429
-5.18379
-3.85179
-3.36598
-3.54483
-3.77582
3.77582
-11.622
14.2541
19.652
21.3176
17.5359
10.7079
5.07594
2.54746
2.57536
2.91863
-3.77582
-11.7697
14.3389
19.8437
21.6087
17.865
11.0339
5.38027
2.82106
2.81268
3.1148
-3.94958
-11.773
14.3358
19.8462
21.6211
17.8794
11.0454
5.38982
2.82994
2.82157
3.12212
-3.9563
-11.7727
14.3335
19.8455
21.6239
17.8824
11.0466
5.38996
2.82998
2.82219
3.1227
-3.9567
-11.7724
14.3327
19.8449
21.6243
17.8835
11.0479
5.39111
2.8309
2.82288
3.12314
-3.95689
-11.7723
14.3336
19.8445
21.6224
17.8828
11.0494
5.39355
2.83295
2.82384
3.12358
-3.95701
-11.7721
14.3363
19.8441
21.6179
17.8802
11.0511
5.39702
2.83586
2.82478
3.12377
-3.95688
-11.768
14.3399
19.8395
21.6024
17.8649
11.0411
5.3897
2.82861
2.81625
3.11622
-3.94991
-11.5999
14.2396
19.6024
21.2521
17.4813
10.6739
5.05545
2.53054
2.55527
2.89837
-3.76514
11.5999
-11.5999
-11.9379
-9.91519
-7.32997
-5.17315
-3.84294
-3.35729
-3.53488
-3.76514
3.76514
11.7435
-11.7435
-11.6011
-9.71965
-7.4867
-5.56697
-4.32801
-3.84103
-3.9235
-4.05552
4.05552
-11.7435
16.073
20.2662
20.1511
16.4837
10.9217
6.15809
3.82954
3.60513
3.75202
-4.05552
-11.9114
16.1941
20.4979
20.4449
16.7997
11.2359
6.45444
4.09996
3.84748
3.95945
-4.23375
-11.9159
16.193
20.5032
20.456
16.8121
11.2469
6.464
4.10888
3.85635
3.9671
-4.24059
-11.9158
16.1912
20.5032
20.458
16.8143
11.2481
6.46435
4.1091
3.85699
3.96773
-4.241
-11.9157
16.1905
20.503
20.4584
16.8152
11.2492
6.46541
4.10998
3.85768
3.96823
-4.24121
-11.9155
16.1911
20.5025
20.4574
16.8151
11.2505
6.46746
4.11177
3.85864
3.96876
-4.24139
-11.9151
16.1929
20.5016
20.4545
16.8136
11.2518
6.47022
4.11419
3.85959
3.96907
-4.24133
-11.9098
16.1939
20.4945
20.4414
16.8006
11.2419
6.46249
4.10666
3.85112
3.96133
-4.23433
-11.7207
16.048
20.2144
20.0926
16.4341
10.8874
6.13505
3.81003
3.58371
3.73078
-4.0448
11.7207
-11.7207
-11.5782
-9.70071
-7.47215
-5.55572
-4.31848
-3.83169
-3.91321
-4.0448
4.0448
11.6593
-11.6593
-11.2065
-9.50925
-7.58104
-5.89174
-4.76242
-4.27954
-4.28037
-4.32906
4.32906
-11.6593
17.4245
20.2555
19.1393
15.7287
11.1177
7.11341
5.00974
4.61087
4.58393
-4.32906
-11.8427
17.5832
20.5118
19.4327
16.0352
11.4222
7.40312
5.27828
4.85784
4.80055
-4.51078
-11.8481
17.5842
20.5185
19.4429
16.0465
11.4327
7.41263
5.28725
4.86677
4.80844
-4.5177
-11.8483
17.583
20.519
19.4445
16.0482
11.4339
7.41313
5.28763
4.86743
4.80911
-4.51811
-11.8483
17.5825
20.5189
19.4449
16.049
11.4349
7.41412
5.28848
4.86814
4.80966
-4.51836
-11.8481
17.5828
20.5186
19.4444
16.0492
11.4361
7.41587
5.29005
4.86909
4.81027
-4.51858
-11.8476
17.5838
20.5176
19.4426
16.0484
11.4371
7.4181
5.29207
4.87002
4.81069
-4.51859
-11.8414
17.5823
20.5095
19.4311
16.0369
11.4275
7.4101
5.2843
4.86153
4.80288
-4.51159
-11.6366
17.3913
20.2042
19.0862
15.683
11.0837
7.08856
4.98818
4.58831
4.56196
-4.31836
11.6366
-11.6366
-11.1849
-9.491
-7.56647
-5.88006
-4.75233
-4.26969
-4.26984
-4.31836
4.31836
11.4341
-11.4341
-10.8057
-9.30365
-7.64003
-6.16484
-5.14887
-4.67583
-4.61131
-4.59316
4.59316
-11.4341
18.3104
19.8892
18.2805
15.1795
11.315
7.95388
6.07367
5.56239
5.3941
-4.59316
-11.6289
18.5037
20.1596
18.5724
15.4789
11.6116
8.23835
6.34122
5.81349
5.61819
-4.77763
-11.6351
18.5068
20.167
18.582
15.4894
11.6218
8.24779
6.35023
5.82247
5.62623
-4.7846
-11.6354
18.5062
20.1676
18.5832
15.4908
11.6229
8.2484
6.35074
5.82318
5.62693
-4.78502
-11.6354
18.5059
20.1677
18.5837
15.4916
11.6238
8.24934
6.35157
5.8239
5.62752
-4.78529
-11.6353
18.5059
20.1676
18.5836
15.4919
11.6249
8.25085
6.35297
5.82484
5.62822
-4.78555
-11.6348
18.5062
20.1669
18.5825
15.4916
11.6259
8.25269
6.35467
5.82573
5.62875
-4.78563
-11.628
18.5024
20.1583
18.5721
15.481
11.6165
8.24452
6.34671
5.81722
5.62092
-4.77865
-11.4118
18.2712
19.8398
18.2319
15.137
11.2815
7.92784
6.0506
5.53894
5.37164
-4.58251
11.4118
-11.4118
-10.7852
-9.28609
-7.62556
-6.15288
-5.13835
-4.6656
-4.60063
-4.58251
4.58251
11.1209
-11.1209
-10.4137
-9.10361
-7.67233
-6.39186
-5.48568
-5.02816
-4.91442
-4.84484
4.84484
-11.1209
18.7869
19.3439
17.5544
14.7758
11.5159
8.69014
7.01913
6.44328
6.168
-4.84484
-11.324
19.01
19.6218
17.8443
15.0696
11.8065
8.97065
7.2863
6.69794
6.3981
-5.03149
-11.3307
19.0149
19.6297
17.8535
15.0796
11.8163
8.98001
7.29534
6.70698
6.40626
-5.03849
-11.3311
19.0148
19.6303
17.8546
15.0808
11.8173
8.9807
7.29595
6.70774
6.40697
-5.03892
-11.3312
19.0146
19.6305
17.8551
15.0815
11.8182
8.9816
7.29677
6.70847
6.40761
-5.03921
-11.3311
19.0145
19.6305
17.8552
15.082
11.8192
8.98295
7.29803
6.7094
6.40837
-5.03951
-11.3306
19.0144
19.6301
17.8547
15.082
11.8201
8.98448
7.29949
6.71026
6.409
-5.03964
-11.3234
19.0087
19.6215
17.8449
15.0721
11.811
8.97621
7.29139
6.70173
6.40119
-5.03269
-11.0995
18.7441
19.2971
17.5095
14.7361
11.4833
8.66343
6.99505
6.41922
6.14526
-4.83426
11.0995
-11.0995
-10.3944
-9.08676
-7.65807
-6.37976
-5.47485
-5.01767
-4.90366
-4.83426
4.83426
10.7607
-10.7607
-10.0392
-8.91018
-7.68377
-6.5777
-5.7742
-5.33737
-5.18926
-5.08173
5.08173
-10.7607
18.9345
18.7268
16.9385
14.476
11.7156
9.33192
7.85112
7.24683
6.89578
-5.08173
-10.9695
19.1819
19.0083
17.2263
14.7654
12.0015
9.60954
8.11827
7.5045
7.13073
-5.27012
-10.9766
19.1882
19.0163
17.2354
14.775
12.0111
9.61883
8.12734
7.51359
7.13897
-5.27715
-10.9771
19.1885
19.0169
17.2363
14.7761
12.0121
9.61958
8.12803
7.5144
7.1397
-5.27759
-10.9772
19.1886
19.0172
17.2369
14.7768
12.0129
9.62045
8.12884
7.51515
7.14038
-5.2779
-10.9772
19.1884
19.0174
17.2371
14.7774
12.0139
9.62167
8.13001
7.51607
7.14119
-5.27823
-10.9767
19.188
19.0173
17.2369
14.7776
12.0147
9.62297
8.13128
7.51689
7.14189
-5.27841
-10.9692
19.1807
19.0088
17.2276
14.7681
12.0058
9.61465
8.12308
7.50836
7.13413
-5.27149
-10.7404
18.8901
18.6829
16.8968
14.4387
11.6839
9.30497
7.82646
7.22245
6.87298
-5.07126
10.7404
-10.7404
-10.0211
-8.89404
-7.6698
-6.56556
-5.76319
-5.32673
-5.17849
-5.07126
5.07126
10.383
-10.383
-9.68725
-8.72439
-7.67843
-6.72688
-6.01769
-5.60585
-5.43632
-5.30217
5.30217
-10.383
18.8372
18.099
16.4129
14.2501
11.9073
9.88851
8.57841
7.97227
7.57179
-5.30217
-10.5955
19.1034
18.3818
16.6987
14.536
12.1897
10.1641
8.8458
8.23245
7.81063
-5.49195
-10.6028
19.1109
18.3899
16.7077
14.5454
12.1991
10.1733
8.85489
8.24159
7.81893
-5.499
-10.6034
19.1115
18.3905
16.7086
14.5465
12.2
10.1741
8.85564
8.24244
7.81969
-5.49945
-10.6036
19.1117
18.3909
16.7091
14.5472
12.2009
10.175
8.85645
8.24321
7.8204
-5.49977
-10.6036
19.1116
18.3913
16.7096
14.5478
12.2018
10.1761
8.85755
8.24413
7.82126
-5.50013
-10.6032
19.111
18.3914
16.7096
14.5481
12.2026
10.1772
8.85868
8.24493
7.82202
-5.50035
-10.5955
19.1026
18.383
16.7005
14.539
12.1939
10.1689
8.85042
8.2364
7.8143
-5.49346
-10.3637
18.7926
18.0581
16.3741
14.215
11.8767
9.86169
8.55358
7.94787
7.54913
-5.29183
10.3637
-10.3637
-9.67017
-8.70897
-7.66482
-6.71481
-6.00661
-5.59516
-5.4256
-5.29183
5.29183
10.0078
-10.0078
-9.36052
-8.5471
-7.65947
-6.8438
-6.22039
-5.83686
-5.65663
-5.5051
5.5051
-10.0078
18.5704
17.4938
15.9611
14.0764
12.0852
10.3689
9.21146
8.62239
8.19357
-5.5051
-10.2227
18.8509
17.7765
16.2451
14.3596
12.365
10.6431
9.47921
8.88465
8.43555
-5.69601
-10.2302
18.8593
17.7847
16.254
14.3689
12.3744
10.6523
9.48831
8.89382
8.44389
-5.70308
-10.2308
18.8601
17.7854
16.2549
14.3699
12.3753
10.6531
9.48912
8.8947
8.44468
-5.70354
-10.231
18.8604
17.7858
16.2555
14.3706
12.3761
10.654
9.48993
8.89549
8.44542
-5.70388
-10.2311
18.8603
17.7863
16.256
14.3713
12.377
10.655
9.49098
8.89641
8.44631
-5.70426
-10.2307
18.8597
17.7866
16.2562
14.3717
12.3778
10.656
9.49201
8.89719
8.44712
-5.7045
-10.223
18.8506
17.7784
16.2474
14.3628
12.3692
10.6477
9.48373
8.88869
8.43946
-5.69766
-9.98975
18.5268
17.4558
15.925
14.0434
12.0559
10.3425
9.18679
8.59823
8.17124
-5.49494
9.98975
-9.98975
-9.34449
-8.53241
-7.64627
-6.83189
-6.20935
-5.82621
-5.64603
-5.49494
5.49494
9.64799
-9.64799
-9.06036
-8.37906
-7.62952
-6.93274
-6.38696
-6.03399
-5.85159
-5.69005
5.69005
-9.64799
18.1964
16.9281
15.57
13.9392
12.2457
10.7819
9.76097
9.2019
8.76099
-5.69005
-9.86408
18.4872
17.21
15.8524
14.2202
12.5236
11.0551
10.0292
9.46588
9.00553
-5.88187
-9.87168
18.4962
17.2183
15.8613
14.2294
12.5328
11.0643
10.0383
9.47507
9.01391
-5.88895
-9.8723
18.4972
17.219
15.8622
14.2304
12.5338
11.0652
10.0391
9.47599
9.01472
-5.88943
-9.87258
18.4976
17.2195
15.8628
14.2311
12.5346
11.066
10.04
9.4768
9.01548
-5.88978
-9.87269
18.4976
17.2201
15.8634
14.2319
12.5355
11.067
10.041
9.47772
9.01641
-5.89019
-9.87245
18.497
17.2205
15.8637
14.2323
12.5362
11.068
10.0419
9.47849
9.01725
-5.89045
-9.86471
18.4874
17.2125
15.8551
14.2236
12.5277
11.0596
10.0337
9.47003
9.00964
-5.88364
-9.63111
18.1546
16.8929
15.5365
13.9082
12.2176
10.7562
9.73677
9.17823
8.73919
-5.68009
9.63111
-9.63111
-9.04533
-8.3651
-7.61678
-6.92108
-6.37605
-6.02345
-5.84116
-5.68009
5.68009
9.31027
-9.31027
-8.78739
-8.22088
-7.59098
-6.99782
-6.52207
-6.20088
-6.0228
-5.85696
5.85696
-9.31027
17.7627
16.4097
15.2295
13.8272
12.3869
11.1357
10.2373
9.71648
9.27554
-5.85696
-9.52661
18.0603
16.6906
15.5104
14.1066
12.6634
11.4084
10.5059
9.98188
9.52218
-6.04953
-9.53428
18.0698
16.699
15.5193
14.1157
12.6726
11.4175
10.5151
9.99109
9.53059
-6.05662
-9.5349
18.0709
16.6996
15.5202
14.1167
12.6736
11.4184
10.5159
9.99204
9.53142
-6.05711
-9.53522
18.0714
16.7002
15.5209
14.1175
12.6744
11.4193
10.5168
9.99287
9.53222
-6.05748
-9.53539
18.0715
16.7009
15.5216
14.1182
12.6753
11.4203
10.5178
9.9938
9.53317
-6.0579
-9.53522
18.071
16.7015
15.522
14.1188
12.676
11.4212
10.5187
9.99457
9.53404
-6.05819
-9.52752
18.0612
16.6935
15.5134
14.1102
12.6676
11.4129
10.5104
9.98614
9.52649
-6.05141
-9.29457
17.7232
16.3773
15.1984
13.7982
12.3603
11.111
10.2138
9.69353
9.25445
-5.84724
9.29457
-9.29457
-8.77332
-8.20765
-7.57875
-6.98649
-6.51138
-6.19054
-6.01259
-5.84724
5.84724
8.99662
-8.99662
-8.5423
-8.07317
-7.5461
-7.04292
-6.63016
-6.34107
-6.17199
-6.00615
6.00615
-8.99662
17.2997
15.9444
14.932
13.733
12.5088
11.4382
10.6498
10.1721
9.73976
-6.00615
-9.21239
17.6009
16.2241
15.2116
14.0111
12.7843
11.7105
10.9189
10.4387
9.98814
-6.19934
-9.22012
17.6107
16.2325
15.2206
14.0202
12.7934
11.7196
10.9281
10.4479
9.99657
-6.20645
-9.22076
17.6118
16.2332
15.2215
14.0212
12.7944
11.7206
10.929
10.4489
9.99744
-6.20695
-9.22111
17.6124
16.2339
15.2222
14.0219
12.7952
11.7214
10.9298
10.4497
9.99826
-6.20734
-9.22133
17.6127
16.2346
15.2229
14.0227
12.7961
11.7224
10.9308
10.4507
9.99923
-6.20777
-9.22122
17.6123
16.2353
15.2234
14.0233
12.7968
11.7232
10.9317
10.4514
10.0001
-6.20807
-9.21354
17.6024
16.2274
15.215
14.0149
12.7885
11.715
10.9235
10.4431
9.99262
-6.20132
-8.98203
17.2629
15.9147
14.9032
13.706
12.4836
11.4146
10.6273
10.1501
9.71954
-5.9967
8.98203
-8.98203
-8.52914
-8.06067
-7.5344
-7.03197
-6.61975
-6.33099
-6.16205
-5.9967
5.9967
8.71123
-8.71123
-8.32154
-7.93546
-7.49666
-7.07154
-6.71529
-6.45785
-6.30094
-6.13822
6.13822
-8.71123
16.8273
15.5355
14.6715
13.6516
12.6122
11.6963
11.007
10.5746
10.1568
-6.13822
-8.9262
17.1296
15.8142
14.9501
13.9287
12.887
11.9684
11.2767
10.8422
10.4067
-6.33193
-8.93396
17.1396
15.8227
14.9591
13.9378
12.8962
11.9776
11.2858
10.8515
10.4151
-6.33906
-8.93462
17.1409
15.8234
14.9601
13.9388
12.8972
11.9785
11.2868
10.8525
10.416
-6.33958