# vtk DataFile Version 2.0
FlowField
ASCII
DATASET STRUCTURED_GRID
DIMENSIONS 62 47 32 
POINTS 93248 double
0 0 0
0.01 0 0
0.02 0 0
0.03 0 0
0.04 0 0
0.05 0 0
0.06 0 0
0.07 0 0
0.08 0 0
0.09 0 0
0.1 0 0
0.11 0 0
0.12 0 0
0.13 0 0
0.14 0 0
0.15 0 0
0.16 0 0
0.17 0 0
0.18 0 0
0.19 0 0
0.2 0 0
0.21 0 0
0.22 0 0
0.23 0 0
0.24 0 0
0.25 0 0
0.26 0 0
0.27 0 0
0.28 0 0
0.29 0 0
0.3 0 0
0.31 0 0
0.32 0 0
0.33 0 0
0.34 0 0
0.35 0 0
0.36 0 0
0.37 0 0
0.38 0 0
0.39 0 0
0.4 0 0
0.41 0 0
0.42 0 0
0.43 0 0
0.44 0 0
0.45 0 0
0.46 0 0
0.47 0 0
0.48 0 0
0.49 0 0
0.5 0 0
0.51 0 0
0.52 0 0
0.53 0 0
0.54 0 0
0.55 0 0
0.56 0 0
0.57 0 0
0.58 0 0
0.59 0 0
0.6 0 0
0.61 0 0
0 0.01 0
0.01 0.01 0
0.02 0.01 0
0.03 0.01 0
0.04 0.01 0
0.05 0.01 0
0.06 0.01 0
0.07 0.01 0
0.08 0.01 0
0.09 0.01 0
0.1 0.01 0
0.11 0.01 0
0.12 0.01 0
0.13 0.01 0
0.14 0.01 0
0.15 0.01 0
0.16 0.01 0
0.17 0.01 0
0.18 0.01 0
0.19 0.01 0
0.2 0.01 0
0.21 0.01 0
0.22 0.01 0
0.23 0.01 0
0.24 0.01 0
0.25 0.01 0
0.26 0.01 0
0.27 0.01 0
0.28 0.01 0
0.29 0.01 0
0.3 0.01 0
0.31 0.01 0
0.32 0.01 0
0.33 0.01 0
0.34 0.01 0
0.35 0.01 0
0.36 0.01 0
0.37 0.01 0
0.38 0.01 0
0.39 0.01 0
0.4 0.01 0
0.41 0.01 0
0.42 0.01 0
0.43 0.01 0
0.44 0.01 0
0.45 0.01 0
0.46 0.01 0
0.47 0.01 0
0.48 0.01 0
0.49 0.01 0
0.5 0.01 0
0.51 0.01 0
0.52 0.01 0
0.53 0.01 0
0.54 0.01 0
0.55 0.01 0
0.56 0.01 0
0.57 0.01 0
0.58 0.01 0
0.59 0.01 0
0.6 0.01 0
0.61 0.01 0
0 0.02 0
0.01 0.02 0
0.02 0.02 0
0.03 0.02 0
0.04 0.02 0
0.05 0.02 0
0.06 0.02 0
0.07 0.02 0
0.08 0.02 0
0.09 0.02 0
0.1 0.02 0
0.11 0.02 0
0.12 0.02 0
0.13 0.02 0
0.14 0.02 0
0.15 0.02 0
0.16 0.02 0
0.17 0.02 0
0.18 0.02 0
0.19 0.02 0
0.2 0.02 0
0.21 0.02 0
0.22 0.02 0
0.23 0.02 0
0.24 0.02 0
0.25 0.02 0
0.26 0.02 0
0.27 0.02 0
0.28 0.02 0
0.29 0.02 0
0.3 0.02 0
0.31 0.02 0
0.32 0.02 0
0.33 0.02 0
0.34 0.02 0
0.35 0.02 0
0.36 0.02 0
0.37 0.02 0
0.38 0.02 0
0.39 0.02 0
0.4 0.02 0
0.41 0.02 0
0.42 0.02 0
0.43 0.02 0
0.44 0.02 0
0.45 0.02 0
0.46 0.02 0
0.47 0.02 0
0.48 0.02 0
0.49 0.02 0
0.5 0.02 0
0.51 0.02 0
0.52 0.02 0
0.53 0.02 0
0.54 0.02 0
0.55 0.02 0
0.56 0.02 0
0.57 0.02 0
0.58 0.02 0
0.59 0.02 0
0.6 0.02 0
0.61 0.02 0
0 0.03 0
0.01 0.03 0
0.02 0.03 0
0.03 0.03 0
0.04 0.03 0
0.05 0.03 0
0.06 0.03 0
0.07 0.03 0
0.08 0.03 0
0.09 0.03 0
0.1 0.03 0
0.11 0.03 0
0.12 0.03 0
0.13 0.03 0
0.14 0.03 0
0.15 0.03 0
0.16 0.03 0
0.17 0.03 0
0.18 0.03 0
0.19 0.03 0
0.2 0.03 0
0.21 0.03 0
0.22 0.03 0
0.23 0.03 0
0.24 0.03 0
0.25 0.03 0
0.26 0.03 0
0.27 0.03 0
0.28 0.03 0
0.29 0.03 0
0.3 0.03 0
0.31 0.03 0
0.32 0.03 0
0.33 0.03 0
0.34 0.03 0
0.35 0.03 0
0.36 0.03 0
0.37 0.03 0
0.38 0.03 0
0.39 0.03 0
0.4 0.03 0
0.41 0.03 0
0.42 0.03 0
0.43 0.03 0
0.44 0.03 0
0.45 0.03 0
0.46 0.03 0
0.47 0.03 0
0.48 0.03 0
0.49 0.03 0
0.5 0.03 0
0.51 0.03 0
0.52 0.03 0
0.53 0.03 0
0.54 0.03 0
0.55 0.03 0
0.56 0.03 0
0.57 0.03 0
0.58 0.03 0
0.59 0.03 0
0.6 0.03 0
0.61 0.03 0
0 0.04 0
0.01 0.04 0
0.02 0.04 0
0.03 0.04 0
0.04 0.04 0
0.05 0.04 0
0.06 0.04 0
0.07 0.04 0
0.08 0.04 0
0.09 0.04 0
0.1 0.04 0
0.11 0.04 0
0.12 0.04 0
0.13 0.04 0
0.14 0.04 0
0.15 0.04 0
0.16 0.04 0
0.17 0.04 0
0.18 0.04 0
0.19 0.04 0
0.2 0.04 0
0.21 0.04 0
0.22 0.04 0
0.23 0.04 0
0.24 0.04 0
0.25 0.04 0
0.26 0.04 0
0.27 0.04 0
0.28 0.04 0
0.29 0.04 0
0.3 0.04 0
0.31 0.04 0
0.32 0.04 0
0.33 0.04 0
0.34 0.04 0
0.35 0.04 0
0.36 0.04 0
0.37 0.04 0
0.38 0.04 0
0.39 0.04 0
0.4 0.04 0
0.41 0.04 0
0.42 0.04 0
0.43 0.04 0
0.44 0.04 0
0.45 0.04 0
0.46 0.04 0
0.47 0.04 0
0.48 0.04 0
0.49 0.04 0
0.5 0.04 0
0.51 0.04 0
0.52 0.04 0
0.53 0.04 0
0.54 0.04 0
0.55 0.04 0
0.56 0.04 0
0.57 0.04 0
0.58 0.04 0
0.59 0.04 0
0.6 0.04 0
0.61 0.04 0
0 0.05 0
0.01 0.05 0
0.02 0.05 0
0.03 0.05 0
0.04 0.05 0
0.05 0.05 0
0.06 0.05 0
0.07 0.05 0
0.08 0.05 0
0.09 0.05 0
0.1 0.05 0
0.11 0.05 0
0.12 0.05 0
0.13 0.05 0
0.14 0.05 0
0.15 0.05 0
0.16 0.05 0
0.17 0.05 0
0.18 0.05 0
0.19 0.05 0
0.2 0.05 0
0.21 0.05 0
0.22 0.05 0
0.23 0.05 0
0.24 0.05 0
0.25 0.05 0
0.26 0.05 0
0.27 0.05 0
0.28 0.05 0
0.29 0.05 0
0.3 0.05 0
0.31 0.05 0
0.32 0.05 0
0.33 0.05 0
0.34 0.05 0
0.35 0.05 0
0.36 0.05 0
0.37 0.05 0
0.38 0.05 0
0.39 0.05 0
0.4 0.05 0
0.41 0.05 0
0.42 0.05 0
0.43 0.05 0
0.44 0.05 0
0.45 0.05 0
0.46 0.05 0
0.47 0.05 0
0.48 0.05 0
0.49 0.05 0
0.5 0.05 0
0.51 0.05 0
0.52 0.05 0
0.53 0.05 0
0.54 0.05 0
0.55 0.05 0
0.56 0.05 0
0.57 0.05 0
0.58 0.05 0
0.59 0.05 0
0.6 0.05 0
0.61 0.05 0
0 0.06 0
0.01 0.06 0
0.02 0.06 0
0.03 0.06 0
0.04 0.06 0
0.05 0.06 0
0.06 0.06 0
0.07 0.06 0
0.08 0.06 0
0.09 0.06 0
0.1 0.06 0
0.11 0.06 0
0.12 0.06 0
0.13 0.06 0
0.14 0.06 0
0.15 0.06 0
0.16 0.06 0
0.17 0.06 0
0.18 0.06 0
0.19 0.06 0
0.2 0.06 0
0.21 0.06 0
0.22 0.06 0
0.23 0.06 0
0.24 0.06 0
0.25 0.06 0
0.26 0.06 0
0.27 0.06 0
0.28 0.06 0
0.29 0.06 0
0.3 0.06 0
0.31 0.06 0
0.32 0.06 0
0.33 0.06 0
0.34 0.06 0
0.35 0.06 0
0.36 0.06 0
0.37 0.06 0
0.38 0.06 0
0.39 0.06 0
0.4 0.06 0
0.41 0.06 0
0.42 0.06 0
0.43 0.06 0
0.44 0.06 0
0.45 0.06 0
0.46 0.06 0
0.47 0.06 0
0.48 0.06 0
0.49 0.06 0
0.5 0.06 0
0.51 0.06 0
0.52 0.06 0
0.53 0.06 0
0.54 0.06 0
0.55 0.06 0
0.56 0.06 0
0.57 0.06 0
0.58 0.06 0
0.59 0.06 0
0.6 0.06 0
0.61 0.06 0
0 0.07 0
0.01 0.07 0
0.02 0.07 0
0.03 0.07 0
0.04 0.07 0
0.05 0.07 0
0.06 0.07 0
0.07 0.07 0
0.08 0.07 0
0.09 0.07 0
0.1 0.07 0
0.11 0.07 0
0.12 0.07 0
0.13 0.07 0
0.14 0.07 0
0.15 0.07 0
0.16 0.07 0
0.17 0.07 0
0.18 0.07 0
0.19 0.07 0
0.2 0.07 0
0.21 0.07 0
0.22 0.07 0
0.23 0.07 0
0.24 0.07 0
0.25 0.07 0
0.26 0.07 0
0.27 0.07 0
0.28 0.07 0
0.29 0.07 0
0.3 0.07 0
0.31 0.07 0
0.32 0.07 0
0.33 0.07 0
0.34 0.07 0
0.35 0.07 0
0.36 0.07 0
0.37 0.07 0
0.38 0.07 0
0.39 0.07 0
0.4 0.07 0
0.41 0.07 0
0.42 0.07 0
0.43 0.07 0
0.44 0.07 0
0.45 0.07 0
0.46 0.07 0
0.47 0.07 0
0.48 0.07 0
0.49 0.07 0
0.5 0.07 0
0.51 0.07 0
0.52 0.07 0
0.53 0.07 0
0.54 0.07 0
0.55 0.07 0
0.56 0.07 0
0.57 0.07 0
0.58 0.07 0
0.59 0.07 0
0.6 0.07 0
0.61 0.07 0
0 0.08 0
0.01 0.08 0
0.02 0.08 0
0.03 0.08 0
0.04 0.08 0
0.05 0.08 0
0.06 0.08 0
0.07 0.08 0
0.08 0.08 0
0.09 0.08 0
0.1 0.08 0
0.11 0.08 0
0.12 0.08 0
0.13 0.08 0
0.14 0.08 0
0.15 0.08 0
0.16 0.08 0
0.17 0.08 0
0.18 0.08 0
0.19 0.08 0
0.2 0.08 0
0.21 0.08 0
0.22 0.08 0
0.23 0.08 0
0.24 0.08 0
0.25 0.08 0
0.26 0.08 0
0.27 0.08 0
0.28 0.08 0
0.29 0.08 0
0.3 0.08 0
0.31 0.08 0
0.32 0.08 0
0.33 0.08 0
0.34 0.08 0
0.35 0.08 0
0.36 0.08 0
0.37 0.08 0
0.38 0.08 0
0.39 0.08 0
0.4 0.08 0
0.41 0.08 0
0.42 0.08 0
0.43 0.08 0
0.44 0.08 0
0.45 0.08 0
0.46 0.08 0
0.47 0.08 0
0.48 0.08 0
0.49 0.08 0
0.5 0.08 0
0.51 0.08 0
0.52 0.08 0
0.53 0.08 0
0.54 0.08 0
0.55 0.08 0
0.56 0.08 0
0.57 0.08 0
0.58 0.08 0
0.59 0.08 0
0.6 0.08 0
0.61 0.08 0
0 0.09 0
0.01 0.09 0
0.02 0.09 0
0.03 0.09 0
0.04 0.09 0
0.05 0.09 0
0.06 0.09 0
0.07 0.09 0
0.08 0.09 0
0.09 0.09 0
0.1 0.09 0
0.11 0.09 0
0.12 0.09 0
0.13 0.09 0
0.14 0.09 0
0.15 0.09 0
0.16 0.09 0
0.17 0.09 0
0.18 0.09 0
0.19 0.09 0
0.2 0.09 0
0.21 0.09 0
0.22 0.09 0
0.23 0.09 0
0.24 0.09 0
0.25 0.09 0
0.26 0.09 0
0.27 0.09 0
0.28 0.09 0
0.29 0.09 0
0.3 0.09 0
0.31 0.09 0
0.32 0.09 0
0.33 0.09 0
0.34 0.09 0
0.35 0.09 0
0.36 0.09 0
0.37 0.09 0
0.38 0.09 0
0.39 0.09 0
0.4 0.09 0
0.41 0.09 0
0.42 0.09 0
0.43 0.09 0
0.44 0.09 0
0.45 0.09 0
0.46 0.09 0
0.47 0.09 0
0.48 0.09 0
0.49 0.09 0
0.5 0.09 0
0.51 0.09 0
0.52 0.09 0
0.53 0.09 0
0.54 0.09 0
0.55 0.09 0
0.56 0.09 0
0.57 0.09 0
0.58 0.09 0
0.59 0.09 0
0.6 0.09 0
0.61 0.09 0
0 0.1 0
0.01 0.1 0
0.02 0.1 0
0.03 0.1 0
0.04 0.1 0
0.05 0.1 0
0.06 0.1 0
0.07 0.1 0
0.08 0.1 0
0.09 0.1 0
0.1 0.1 0
0.11 0.1 0
0.12 0.1 0
0.13 0.1 0
0.14 0.1 0
0.15 0.1 0
0.16 0.1 0
0.17 0.1 0
0.18 0.1 0
0.19 0.1 0
0.2 0.1 0
0.21 0.1 0
0.22 0.1 0
0.23 0.1 0
0.24 0.1 0
0.25 0.1 0
0.26 0.1 0
0.27 0.1 0
0.28 0.1 0
0.29 0.1 0
0.3 0.1 0
0.31 0.1 0
0.32 0.1 0
0.33 0.1 0
0.34 0.1 0
0.35 0.1 0
0.36 0.1 0
0.37 0.1 0
0.38 0.1 0
0.39 0.1 0
0.4 0.1 0
0.41 0.1 0
0.42 0.1 0
0.43 0.1 0
0.44 0.1 0
0.45 0.1 0
0.46 0.1 0
0.47 0.1 0
0.48 0.1 0
0.49 0.1 0
0.5 0.1 0
0.51 0.1 0
0.52 0.1 0
0.53 0.1 0
0.54 0.1 0
0.55 0.1 0
0.56 0.1 0
0.57 0.1 0
0.58 0.1 0
0.59 0.1 0
0.6 0.1 0
0.61 0.1 0
0 0.11 0
0.01 0.11 0
0.02 0.11 0
0.03 0.11 0
0.04 0.11 0
0.05 0.11 0
0.06 0.11 0
0.07 0.11 0
0.08 0.11 0
0.09 0.11 0
0.1 0.11 0
0.11 0.11 0
0.12 0.11 0
0.13 0.11 0
0.14 0.11 0
0.15 0.11 0
0.16 0.11 0
0.17 0.11 0
0.18 0.11 0
0.19 0.11 0
0.2 0.11 0
0.21 0.11 0
0.22 0.11 0
0.23 0.11 0
0.24 0.11 0
0.25 0.11 0
0.26 0.11 0
0.27 0.11 0
0.28 0.11 0
0.29 0.11 0
0.3 0.11 0
0.31 0.11 0
0.32 0.11 0
0.33 0.11 0
0.34 0.11 0
0.35 0.11 0
0.36 0.11 0
0.37 0.11 0
0.38 0.11 0
0.39 0.11 0
0.4 0.11 0
0.41 0.11 0
0.42 0.11 0
0.43 0.11 0
0.44 0.11 0
0.45 0.11 0
0.46 0.11 0
0.47 0.11 0
0.48 0.11 0
0.49 0.11 0
0.5 0.11 0
0.51 0.11 0
0.52 0.11 0
0.53 0.11 0
0.54 0.11 0
0.55 0.11 0
0.56 0.11 0
0.57 0.11 0
0.58 0.11 0
0.59 0.11 0
0.6 0.11 0
0.61 0.11 0
0 0.12 0
0.01 0.12 0
0.02 0.12 0
0.03 0.12 0
0.04 0.12 0
0.05 0.12 0
0.06 0.12 0
0.07 0.12 0
0.08 0.12 0
0.09 0.12 0
0.1 0.12 0
0.11 0.12 0
0.12 0.12 0
0.13 0.12 0
0.14 0.12 0
0.15 0.12 0
0.16 0.12 0
0.17 0.12 0
0.18 0.12 0
0.19 0.12 0
0.2 0.12 0
0.21 0.12 0
0.22 0.12 0
0.23 0.12 0
0.24 0.12 0
0.25 0.12 0
0.26 0.12 0
0.27 0.12 0
0.28 0.12 0
0.29 0.12 0
0.3 0.12 0
0.31 0.12 0
0.32 0.12 0
0.33 0.12 0
0.34 0.12 0
0.35 0.12 0
0.36 0.12 0
0.37 0.12 0
0.38 0.12 0
0.39 0.12 0
0.4 0.12 0
0.41 0.12 0
0.42 0.12 0
0.43 0.12 0
0.44 0.12 0
0.45 0.12 0
0.46 0.12 0
0.47 0.12 0
0.48 0.12 0
0.49 0.12 0
0.5 0.12 0
0.51 0.12 0
0.52 0.12 0
0.53 0.12 0
0.54 0.12 0
0.55 0.12 0
0.56 0.12 0
0.57 0.12 0
0.58 0.12 0
0.59 0.12 0
0.6 0.12 0
0.61 0.12 0
0 0.13 0
0.01 0.13 0
0.02 0.13 0
0.03 0.13 0
0.04 0.13 0
0.05 0.13 0
0.06 0.13 0
0.07 0.13 0
0.08 0.13 0
0.09 0.13 0
0.1 0.13 0
0.11 0.13 0
0.12 0.13 0
0.13 0.13 0
0.14 0.13 0
0.15 0.13 0
0.16 0.13 0
0.17 0.13 0
0.18 0.13 0
0.19 0.13 0
0.2 0.13 0
0.21 0.13 0
0.22 0.13 0
0.23 0.13 0
0.24 0.13 0
0.25 0.13 0
0.26 0.13 0
0.27 0.13 0
0.28 0.13 0
0.29 0.13 0
0.3 0.13 0
0.31 0.13 0
0.32 0.13 0
0.33 0.13 0
0.34 0.13 0
0.35 0.13 0
0.36 0.13 0
0.37 0.13 0
0.38 0.13 0
0.39 0.13 0
0.4 0.13 0
0.41 0.13 0
0.42 0.13 0
0.43 0.13 0
0.44 0.13 0
0.45 0.13 0
0.46 0.13 0
0.47 0.13 0
0.48 0.13 0
[...]
POINT_DATA 93248

SCALARS u double
LOOKUP_TABLE default
0
0
0
0
0
0
0
0
0
0
0
0
0
0
0
0
0
0
0
0
0
0
0
0
0.280345
0
0
0
0
0
0
0
0.153276
0.210205
0
0
0
0
0
0
0
0
0
0
0
0
0
0.0920057
0
0
0.0763309
0
0
0
0
0
0
0
0
0
0
0
0
0.433327
0.363944
0.324021
0.303003
0.289237
0.278461
0.26978
0.262214
0.255291
0.248827
0.242683
0.236805
0.231093
0.225519
0.220057
0.214677
0.20934
0.204074
0.198857
0.193695
0.188542
0.183437
0.178333
0.173242
0.168167
0.163103
0.15805
0.153004
0.147963
0.142923
0.13788
0.132837
0.127756
0.122605
0.117446
0.112195
0.107403
0.1061
0.159055
0.0922425
0.0874532
0.0826683
0.0777947
0.0728467
0.0678251
0.0629486
0.0580031
0.0530127
0.0480262
0.0430174
0.0540346
0.0330373
0.0280421
0.0230137
0.0179963
0.0267069
0.00781289
0.0025115
-0.00326544
-0.00326544
0
0
0.509583
0.495609
0.474673
0.456444
0.441107
0.428252
0.416683
0.406078
0.396193
0.386809
0.377728
0.368976
0.36039
0.351948
0.343626
0.335429
0.327194
0.319096
0.321035
0.303067
0.295093
0.287213
0.279241
0.271321
0.263424
0.255542
0.247671
0.239809
0.231952
0.224096
0.216239
0.20839
0.200518
0.192508
0.184402
0.175574
0.16353
-0.120519
0.146559
0.144043
0.137485
0.130049
0.122402
0.11467
0.106792
0.0990904
0.0913113
0.0835122
0.0756897
0.067834
0.0600607
0.0522634
0.0444527
0.0366396
0.0288178
0.0210291
0.0130785
0.00514596
-0.00277629
-0.00277629
0
0
0.505224
0.494225
0.478504
0.464484
0.451525
0.439651
0.428598
0.418211
0.408329
0.391072
0.389684
0.380696
0.371903
0.363256
0.354762
0.346395
0.337784
0.329469
0.321238
0.312957
0.304722
0.296552
0.288377
0.280214
0.272067
0.263932
0.255809
0.247693
0.239585
0.231483
0.223389
0.215294
0.20732
0.206923
0.191036
0.182547
0.174461
0.169355
0.158645
0.150259
0.142393
0.134766
0.126573
0.118829
0.126736
0.102828
0.0944348
0.0835122
0.0782228
0.0701431
0.0620841
0.0540346
0.0459788
0.0379163
0.0298596
0.0217979
0.0136756
0.00560605
-0.0024445
-0.0024445
0
0
0.498971
0.485717
0.472724
0.459661
0.448217
0.437483
0.427218
0.417343
0.407817
0.398586
0.389542
0.380666
0.37194
0.36331
0.354852
0.34632
0.338155
0.329801
0.320859
0.313192
0.304968
0.296777
0.288602
0.28044
0.272293
0.264156
0.25603
0.247912
0.2398
0.231694
0.223594
0.215487
0.207394
0.199229
0.191167
0.183131
0.175319
0.16818
0.159267
0.150872
0.142753
0.134709
0.126685
0.118653
0.110502
0.102466
0.0944381
0.0863755
0.078307
0.0702375
0.0621739
0.054115
0.0460532
0.0379891
0.0299271
0.0218659
0.0137919
0.00575342
-0.00231664
-0.00231664
0
0
0.496054
0.480568
0.466195
0.45513
0.44487
0.435022
0.425393
0.415945
0.406765
0.397774
0.38892
0.380185
0.371553
0.362998
0.354863
0.346251
0.337939
0.329627
0.321348
0.313103
0.304892
0.296707
0.28854
0.280388
0.272248
0.264119
0.255999
0.247887
0.23978
0.231679
0.22358
0.21548
0.207399
0.199289
0.191247
0.183236
0.175306
0.167448
0.159196
0.150977
0.142844
0.134759
0.126696
0.118648
0.11063
0.102515
0.0943947
0.0863723
0.0783176
0.0702592
0.0622038
0.0541492
0.0460872
0.0380239
0.0299647
0.0219108
0.0138634
0.00583197
-0.00226802
-0.00226802
0
0
0.494679
0.477917
0.462804
0.451895
0.442145
0.433097
0.423669
0.414542
0.405648
0.396918
0.388244
0.379645
0.371116
0.362639
0.354316
0.345977
0.337702
0.329448
0.3212
0.312982
0.304789
0.296617
0.288462
0.28032
0.27219
0.26407
0.255958
0.247852
0.239752
0.231655
0.223562
0.215465
0.207408
0.199335
0.191274
0.183243
0.175237
0.167225
0.159111
0.15098
0.142869
0.134778
0.126693
0.118588
0.110413
0.10262
0.0944909
0.0863959
0.0783308
0.0702776
0.0622351
0.0541942
0.0461241
0.0380545
0.0299959
0.0219481
0.0139129
0.00590668
-0.00217421
-0.00217421
0
0
0.493919
0.476239
0.460576
0.449534
0.439724
0.421986
0.422082
0.413402
0.404738
0.396096
0.387558
0.379078
0.370655
0.36228
0.353964
0.345657
0.337476
0.329253
0.321035
0.31284
0.304667
0.296511
0.28837
0.28024
0.27212
0.264011
0.255908
0.247811
0.239717
0.231625
0.223549
0.215485
0.207385
0.199314
0.191267
0.183223
0.175184
0.167136
0.159055
0.15096
0.142869
0.13477
0.126702
0.118616
0.110527
0.102544
0.0944686
0.0863948
0.0783318
0.070285
0.0622682
0.0542771
0.0461637
0.0380734
0.0300139
0.02197
0.0139364
0.00593294
-0.00217574
-0.00217574
0
0
0.493455
0.475149
0.459077
0.447915
0.438362
0.429696
0.420643
0.412199
0.403723
0.395279
0.386884
0.378502
0.370176
0.36188
0.353616
0.335429
0.337462
0.329082
0.320859
0.312682
0.304532
0.296394
0.288267
0.28015
0.272248
0.263943
0.255852
0.247766
0.239679
0.231573
0.223518
0.215457
0.207374
0.199309
0.191252
0.183198
0.175146
0.167087
0.159017
0.150939
0.142861
0.134784
0.126708
0.118635
0.110567
0.102519
0.0944543
0.0863829
0.078312
0.0702571
0.0622802
0.0545158
0.0461853
0.0380558
0.0300094
0.0219852
0.0139686
0.00592802
-0.00217926
-0.00217926
0
0
0.493152
0.474409
0.458021
0.446698
0.437097
0.428222
0.419602
0.411185
0.402832
0.394516
0.386231
0.377878
0.369687
0.361478
0.353266
0.345056
0.336959
0.328809
0.320653
0.312509
0.304385
0.296267
0.288154
0.28005
0.271954
0.263868
0.25579
0.247725
0.239664
0.231544
0.223492
0.215436
0.207362
0.199294
0.191232
0.183174
0.175115
0.167055
0.15899
0.150921
0.14285
0.13478
0.12671
0.118642
0.110577
0.102515
0.0944454
0.0863634
0.0782587
0.0701224
0.0620673
0.0548703
0.0459973
0.0379259
0.0299648
0.0219765
0.0139693
0.00594075
-0.0021735
-0.0021735
0
0
0.492943
0.473887
0.457252
0.44578
0.436106
0.427217
0.418677
0.41032
0.402049
0.393823
0.385627
0.377422
0.369251
0.361094
0.352926
0.344784
0.336675
0.328562
0.320447
0.31234
0.304227
0.296126
0.288032
0.279942
0.271859
0.263782
0.25572
0.247692
0.239769
0.238925
0.223702
0.215444
0.207345
0.199273
0.191209
0.182713
0.17509
0.167029
0.158968
0.150905
0.14284
0.134775
0.12671
0.118645
0.110581
0.102515
0.0944426
0.0863489
0.0781894
0.0697835
0.0602919
-0.0322501
0.0440347
0.0375598
0.0298972
0.0219693
0.0139729
0.00595081
-0.00216844
-0.00216844
0
0
0.492794
0.473507
0.456673
0.445083
0.43533
0.426415
0.417899
0.409582
0.401365
0.393201
0.385064
0.376939
0.368834
0.36075
0.352573
0.344482
0.336408
0.328327
0.320242
0.31068
0.304071
0.295988
0.287907
0.279828
0.271751
0.26368
0.255622
0.247588
0.239589
0.231592
0.22334
0.215337
0.207308
0.199247
0.191183
0.183122
0.174611
0.167006
0.158948
0.15089
0.142831
0.13477
0.126708
0.118646
0.110584
0.10252
0.0944519
0.0863731
0.0782722
0.0701407
0.0620955
0.0549351
0.0460307
0.0379553
0.0299933
0.0220024
0.0139894
0.00596148
-0.00216323
-0.00216323
0
0
0.492684
0.473227
0.45626
0.444521
0.434709
0.425766
0.41725
0.408954
0.400772
0.392651
0.384561
0.376489
0.368443
0.360478
0.35221
0.344161
0.336154
0.328104
0.320045
0.311983
0.303916
0.295849
0.28778
0.279708
0.271635
0.263562
0.255498
0.247458
0.239456
0.231315
0.223527
0.215421
0.207305
0.199224
0.191155
0.183092
0.175035
0.166981
0.15893
0.150878
0.142823
0.134766
0.126707
0.118647
0.110587
0.102526
0.0944649
0.0864019
0.0783385
0.0702922
0.0623234
0.054557
0.0462408
0.0381147
0.0300689
0.0220396
0.0140098
0.00597356
-0.00215752
-0.00215752
0
0
0.4926
0.473009
0.455917
0.4441
0.43422
0.42524
0.416712
0.408422
0.40026
0.392169
0.384112
0.376068
0.368016
0.359888
0.35207
0.344027
0.335943
0.327896
0.319857
0.311813
0.303764
0.295711
0.287653
0.279587
0.271512
0.263424
0.255332
0.247272
0.23948
0.231472
0.223478
0.215379
0.20728
0.199196
0.191123
0.183058
0.175003
0.166955
0.158914
0.150871
0.14282
0.134766
0.126707
0.118648
0.11059
0.102532
0.0944758
0.0864226
0.0783701
0.0703365
0.0623312
0.0543482
0.0462465
0.0381644
0.0301102
0.0220687
0.0140289
0.00598609
-0.00215126
-0.00215126
0
0
0.492535
0.47284
0.455652
0.443759
0.433825
0.424811
0.416266
0.407973
0.399823
0.391748
0.383716
0.375703
0.367692
0.359672
0.351744
0.343737
0.335713
0.32769
0.319679
0.311652
0.303618
0.295578
0.28753
0.279469
0.271386
0.263266
0.255079
0.246837
0.239835
0.231704
0.223522
0.215368
0.207253
0.199161
0.191083
0.183015
0.174961
0.166923
0.158903
0.150872
0.142825
0.13477
0.12671
0.11865
0.110592
0.102535
0.0944828
0.0864341
0.0783829
0.0703462
0.0623206
0.0542937
0.0462371
0.0381806
0.0301331
0.0220934
0.0140451
0.00599957
-0.00214372
-0.00214372
0
0
0.492485
0.472705
0.455441
0.443489
0.433507
0.424464
0.415896
0.407594
0.399447
0.391385
0.383372
0.375383
0.367404
0.359429
0.35147
0.343491
0.335498
0.327489
0.319514
0.311504
0.30348
0.295453
0.287416
0.279362
0.271278
0.263124
0.254779
0.245666
0.242819
0.232377
0.223625
0.215356
0.207217
0.199119
0.191033
0.182955
0.174894
0.166868
0.158904
0.150895
0.142846
0.134783
0.126717
0.118653
0.110593
0.102536
0.0944816
0.0864305
0.0783923
0.0703525
0.0623146
0.0542779
0.0462307
0.0381872
0.0301475
0.0221139
0.0140677
0.00601753
-0.00213241
-0.00213241
0
0
0.492449
0.472592
0.455269
0.443267
0.433246
0.424193
0.41559
0.407272
0.399125
0.391072
0.383073
0.375102
0.367145
0.359192
0.351239
0.343279
0.335312
0.327348
0.319335
0.311343
0.303348
0.295338
0.287314
0.279274
0.271211
0.263106
0.254928
0.246691
0.239744
0.231617
0.223421
0.215268
0.207158
0.199068
0.190971
0.18287
0.174775
0.166736
0.158963
0.150974
0.142896
0.134807
0.126727
0.118656
0.110592
0.102535
0.0944814
0.0864317
0.0783899
0.07035
0.0623098
0.0542699
0.0462286
0.0381902
0.0301557
0.0221506
0.0140905
0.00604228
-0.00211125
-0.00211125
0
0
0.492441
0.472485
0.455126
0.44308
0.433009
0.423946
0.415328
0.406988
0.398847
0.390803
0.382814
0.374857
0.366918
0.358982
0.351038
0.343089
0.335136
0.327177
0.319197
0.311218
0.303231
0.295233
0.287223
0.279201
0.271164
0.263111
0.255049
0.247029
0.239282
0.231318
0.223254
0.215169
0.207089
0.199029
0.190901
0.182754
0.174552
0.16633
0.159341
0.151196
0.142991
0.134841
0.126736
0.118657
0.110589
0.102531
0.0944783
0.0864283
0.0783808
0.0703497
0.0623063
0.0542643
0.0462235
0.0381869
0.0301311
0.0221691
0.0140968
0.00607768
-0.00204867
-0.00204867
0
0
0.492353
0.472473
0.455035
0.442925
0.432738
0.41725
0.414773
0.406701
0.398607
0.390574
0.382591
0.374645
0.366724
0.35881
0.350864
0.34292
0.334977
0.327029
0.319069
0.311103
0.303126
0.295139
0.287142
0.279135
0.271118
0.263098
0.254959
0.24709
0.239164
0.231176
0.223139
0.215076
0.207004
0.198976
0.19083
0.182639
0.174249
0.164926
0.162
0.151766
0.143107
0.134862
0.126735
0.118649
0.110583
0.102525
0.0944729
0.0864214
0.0783688
0.0703494
0.0623038
0.0542578
0.0462119
0.0381444
0.0299649
0.0139729
0.0139312
0.00612768
-0.00172968
0
0
0
0.492358
0.472322
0.454948
0.442847
0.432747
0.42357
0.41492
0.406574
0.398429
0.390388
0.382396
0.374458
0.366564
0.358707
0.350708
0.342762
0.334832
0.326899
0.318954
0.310999
0.303032
0.295056
0.287069
0.279072
0.271068
0.263061
0.25507
0.247071
0.239103
0.231101
0.22306
0.214987
0.206809
0.190726
0.190563
0.182629
0.174477
0.166255
0.159313
0.150921
0.14296
0.134813
0.126711
0.118633
0.110569
0.102515
0.0944674
0.0864256
0.0783892
0.0703206
0.0622826
0.0542501
0.046214
0.0381751
0.0301431
0.0221785
0.014099
0.00607898
-0.00204727
-0.00204727
0
0
0.492346
0.472347
0.454862
0.442789
0.432755
0.423402
0.414733
0.406435
0.398281
0.39024
0.382216
0.374269
0.366404
0.358814
0.350516
0.342597
0.334696
0.326787
0.318854
0.310908
0.30295
0.294982
0.287003
0.279013
0.271012
0.262996
0.255068
0.247081
0.239051
0.231031
0.22301
0.21497
0.206923
0.198928
0.19082
0.182732
0.174661
0.16664
0.158884
0.150904
0.142834
0.134752
0.126677
0.118609
0.110546
0.102501
0.0944585
0.0864168
0.0783756
0.0703185
0.0622735
0.0542434
0.0462148
0.0381886
0.0301575
0.0221495
0.0140907
0.0060426
-0.00211107
-0.00211107
0
0
0.492334
0.472319
0.454841
0.442626
0.432379
0.423425
0.414768
0.406348
0.398155
0.390069
0.382076
0.374045
0.36607
0.32818
0.349912
0.342393
0.33457
0.326696
0.318773
0.310831
0.302881
0.294919
0.286946
0.278961
0.27096
0.262926
0.25524
0.247079
0.239023
0.230999
0.222976
0.214947
0.206917
0.198901
0.190832
0.182779
0.174741
0.166734
0.158786
0.15079
0.142754
0.134703
0.126646
0.118585
0.110506
0.102486
0.0944512
0.0864112
0.0783691
0.0703153
0.062244
0.054233
0.0462126
0.0382079
0.0301478
0.0221096
0.0140663
0.00601724
-0.00213242
-0.00213242
0
0
0.492324
0.472291
0.454784
0.442596
0.432411
0.4233
0.414632
0.40625
0.398056
0.389985
0.381931
0.37367
0.343411
0.358394
0.350276
0.342403
0.334534
0.326614
0.318697
0.310768
0.302823
0.294867
0.286899
0.278921
0.270931
0.262924
0.254999
0.247001
0.238984
0.230966
0.222946
0.21492
0.206892
0.198861
0.190819
0.182796
0.174769
0.166752
0.158749
0.150734
0.142705
0.134669
0.126628
0.118585
0.110486
0.102488
0.0944542
0.0864127
0.0783803
0.0703306
0.062227
0.0542293
0.0461957
0.0382101
0.0301167
0.0220767
0.0140434
0.0059994
-0.00214344
-0.00214344
0
0
0.492316
0.472272
0.454755
0.442575
0.432403
0.423226
0.414554
0.406175
0.397963
0.389965
0.381971
0.374031
0.366471
0.35825
0.350288
0.342386
0.334487
0.326572
0.318652
0.310721
0.30278
0.294827
0.286862
0.27889
0.27091
0.262924
0.254949
0.246954
0.238949
0.230936
0.222918
0.214895
0.206866
0.198827
0.190778
0.182814
0.174784
0.166751
0.158727
0.150701
0.142672
0.134644
0.126635
0.118726
0.118072
0.102692
0.0944805
0.0864161
0.0784264
0.0704916
0.0698764
0.054387
0.0460469
0.0298096
0.0299101
0.0220267
0.0140238
0.00598659
-0.0021502
-0.0021502
0
0
0.492312
0.472261
0.45474
0.442561
0.432388
0.423198
0.414513
0.406136
0.397944
0.390217
0.382018
0.374043
0.366171
0.358209
0.350278
0.342365
0.334458
0.326543
0.31862
0.310689
0.302749
0.294801
0.286833
0.278865
0.27089
0.262908
0.254922
0.247852
0.238921
0.230911
0.222895
0.214873
0.206843
0.198794
0.190707
0.182987
0.174811
0.166746
0.158708
0.150676
0.142644
0.134611
0.126579
0.11854
0.110438
0.102446
0.094408
0.0863643
0.0783844
0.0702943
0.0621775
0.0542005
0.0461748
0.0381967
0.0300968
0.0220554
0.014026
0.00597812
-0.00215473
-0.00215473
0
0
0.492309
0.472257
0.454736
0.442557
0.432384
0.423188
0.414455
0.406118
0.39792
0.389934
0.381958
0.374014
0.366103
0.358181
0.350265
0.342353
0.334448
0.326527
0.318602
0.310669
0.302729
0.294787
0.286811
0.278845
0.270878
0.262893
0.254902
0.246901
0.238899
0.230891
0.222875
0.214855
0.206829
0.198794
0.190751
0.182791
0.174761
0.166723
0.158687
0.150654
0.14262
0.134582
0.126544
0.118497
0.110429
0.102406
0.0943438
0.0861701
0.0702431
0.0700522
0.0621441
0.0541774
0.0461715
0.0381671
0.0301051
0.0220625
0.0140254
0.0059743
-0.00215877
-0.00215877
0
0
0.492309
0.472259
0.454742
0.442567
0.432397
0.423208
0.414526
0.406154
0.397973
0.389926
0.38195
0.374011
0.366093
0.358179
0.350268
0.342356
0.334444
0.326524
0.318596
0.31066
0.302714
0.294752
0.286812
0.278852
0.270882
0.262884
0.254884
0.246887
0.238884
0.230876
0.222857
0.214841
0.206819
0.198793
0.190767
0.182757
0.174732
0.1667
0.158667
0.150634
0.142601
0.134557
0.126519
0.118479
0.110434
0.102398
0.0943577
0.0863216
0.0783435
0.0702475
0.0622107
0.0541851
0.04616
0.0381345
0.0300937
0.0220505
0.014011
0.00598143
-0.00215297
-0.00215297
0
0
0.492311
0.472267
0.454756
0.442589
0.432427
0.423242
0.414581
0.406205
0.398024
0.389943
0.381978
0.374042
0.366119
0.358203
0.350291
0.342379
0.334461
0.326536
0.318604
0.310664
0.302715
0.294752
0.287416
0.278844
0.270922
0.262878
0.254869
0.246871
0.238869
0.230862
0.222849
0.214831
0.20681
0.198786
0.190761
0.182739
0.174711
0.166681
0.158648
0.150616
0.142587
0.134534
0.126497
0.118463
0.110425
0.10239
0.0943567
0.0863296
0.0783206
0.0702573
0.0622209
0.054184
0.0461527
0.0381207
0.0300844
0.0220463
0.0140082
0.00597661
-0.00215682
-0.00215682
0
0
0.492316
0.47228
0.454779
0.442626
0.432476
0.423303
0.414668
0.406285
0.398115
0.390019
0.382044
0.374115
0.366178
0.358254
0.350337
0.342424
0.334497
0.326563
0.318626
0.31068
0.302726
0.294757
0.286776
0.278805
0.271114
0.262834
0.254837
0.246854
0.238858
0.230853
0.22284
0.214823
0.206802
0.198777
0.190752
0.182725
0.174695
0.166663
0.158629
0.150591
0.142549
0.134529
0.126491
0.11845
0.110413
0.102379
0.0943467
0.0863174
0.0782897
0.0702505
0.0622143
0.0541792
0.0461456
0.038112
0.030077
0.0220415
0.0140063
0.0059702
-0.00215981
-0.00215981
0
0
0.49233
0.472298
0.454803
0.442676
0.432543
0.423377
0.414718
0.40643
0.398359
0.39792
0.382461
0.37426
0.366267
0.358327
0.3504
0.342501
0.33455
0.326601
0.31866
0.310707
0.302748
0.294763
0.28672
0.278445
0.246436
0.262469
0.254768
0.246838
0.238852
0.230848
0.222835
0.214817
0.206795
0.19877
0.190742
0.182713
0.174681
0.166648
0.158613
0.150575
0.142537
0.134507
0.126469
0.118432
0.110397
0.102364
0.0943336
0.0863041
0.0782742
0.0702409
0.062207
0.0541728
0.0461388
0.0381048
0.0300703
0.0220358
0.0140023
0.00596616
-0.00216215
-0.00216215
0
0
0.492378
0.472322
0.456429
0.442746
0.432634
0.423489
0.414854
0.406532
0.398367
0.390242
0.382258
0.374313
0.366356
0.358407
0.350446
0.342566
0.334615
0.329627
0.318706
0.310749
0.302784
0.294813
0.286817
0.278836
0.271137
0.262851
0.254848
0.246859
0.238859
0.230849
0.222834
0.214814
0.20679
0.198763
0.190734
0.182702
0.174669
0.166634
0.158597
0.15056
0.142521
0.134485
0.126447
0.118411
0.110378
0.102348
0.0943194
0.0862918
0.0782635
0.070233
0.0622006
0.0541669
0.0461326
0.0380982
0.030064
0.0220299
0.0139974
0.00596222
-0.00215981
-0.00216436
0
0
0.492568
0.472266
0.454805
0.442799
0.43275
0.423636
0.415018
0.406683
0.398506
0.390405
0.38241
0.37444
0.366476
0.358501
0.350448
0.327194
0.334393
0.326663
0.318759
0.310809
0.302838
0.294854
0.286877
0.278907
0.270966
0.262909
0.254889
0.24688
0.238869
0.230855
0.222835
0.214813
0.206787
0.198757
0.190726
0.182692
0.174657
0.16662
0.158582
0.150543
0.142504
0.134462
0.126423
0.118387
0.110355
0.102329
0.0943045
0.0862808
0.0782562
0.0702284
0.0621969
0.0541627
0.0461274
0.0380921
0.0300579
0.0220235
0.0139917
0.00590668
-0.00216685
-0.00216685
0
0
0.492371
0.470784
0.454623
0.442882
0.432911
0.423829
0.415226
0.406891
0.398712
0.390625
0.382603
0.374614
0.366638
0.358667
0.350697
0.342787
0.334799
0.32681
0.318847
0.310877
0.302895
0.29491
0.286925
0.278943
0.270946
0.262928
0.254914
0.246898
0.238882
0.230862
0.22284
0.214814
0.206785
0.198753
0.190719
0.182683
0.174645
0.166606
0.158565
0.150525
0.142487
0.134437
0.126392
0.118355
0.110326
0.102307
0.0942888
0.0862716
0.078254
0.0702298
0.0621982
0.0541616
0.0461233
0.038086
0.0298722
0.0220155
0.0139848
0.00595224
-0.00223447
-0.00217156
0
0
0.492619
0.472418
0.455067
0.443138
0.433159
0.424085
0.415492
0.407152
0.398968
0.390873
0.382833
0.374823
0.366829
0.35885
0.350871
0.342918
0.334919
0.326927
0.318941
0.310954
0.302962
0.294967
0.286969
0.278965
0.27097
0.262957
0.254937
0.246916
0.238895
0.230871
0.222846
0.214817
0.206786
0.19875
0.190713
0.182675
0.174634
0.166591
0.158545
0.150505
0.142481
0.134405
0.126349
0.118309
0.110285
0.102281
0.0942724
0.0862642
0.0782617
0.0702431
0.0622084
0.0541653
0.0461202
0.038083
0.0300438
0.0220074
0.0139764
0.00594577
-0.00217416
-0.00217416
0
0
0.492482
0.472626
0.45536
0.443427
0.433009
0.4244
0.415816
0.407447
0.399273
0.391164
0.383101
0.375065
0.367042
0.359192
0.351035
0.343046
0.335045
0.327042
0.31904
0.311038
0.303034
0.295028
0.287019
0.279008
0.270999
0.262981
0.254959
0.246935
0.238909
0.230882
0.222853
0.214823
0.206793
0.198745
0.190707
0.182667
0.174623
0.166573
0.158515
0.150464
0.142536
0.134343
0.126282
0.118234
0.110215
0.102255
0.0942557
0.0862529
0.0782934
0.0702819
0.0622349
0.0541764
0.0461184
0.038079
0.0300342
0.0219955
0.0139648
0.00593645
-0.00217977
-0.00217977
0
0
0.492499
0.472802
0.455646
0.443781
0.433852
0.424809
0.416223
0.407866
0.399647
0.391506
0.38341
0.375342
0.367292
0.359259
0.351227
0.343204
0.335183
0.327163
0.319144
0.311127
0.303111
0.295092
0.287073
0.279053
0.271033
0.263009
0.254982
0.246954
0.238925
0.230894
0.222862
0.21483
0.206802
0.198742
0.190699
0.182662
0.174614
0.166555
0.158468
0.150275
0.0874532
0.134124
0.12617
0.118104
0.110063
0.102265
0.0942424
0.0861978
0.0783975
0.0703792
0.0622897
0.0542018
0.0461306
0.0380605
0.0300146
0.0219776
0.0139479
0.00592275
-0.00218686
-0.00218686
0
0
0.492562
0.473012
0.455987
0.44421
0.434328
0.425308
0.416713
0.408337
0.400083
0.3919
0.383763
0.37565
0.367561
0.359489
0.351428
0.343376
0.33533
0.32729
0.319254
0.311221
0.303193
0.295157
0.287127
0.279099
0.27107
0.263039
0.255007
0.246975
0.238941
0.230906
0.222869
0.214827