# vtk DataFile Version 2.0
FlowField
ASCII
DATASET STRUCTURED_GRID
DIMENSIONS 62 47 32 
POINTS 93248 double
0 0 0
0.01 0 0
0.02 0 0
0.03 0 0
0.04 0 0
0.05 0 0
0.06 0 0
0.07 0 0
0.08 0 0
0.09 0 0
0.1 0 0
0.11 0 0
0.12 0 0
0.13 0 0
0.14 0 0
0.15 0 0
0.16 0 0
0.17 0 0
0.18 0 0
0.19 0 0
0.2 0 0
0.21 0 0
0.22 0 0
0.23 0 0
0.24 0 0
0.25 0 0
0.26 0 0
0.27 0 0
0.28 0 0
0.29 0 0
0.3 0 0
0.31 0 0
0.32 0 0
0.33 0 0
0.34 0 0
0.35 0 0
0.36 0 0
0.37 0 0
0.38 0 0
0.39 0 0
0.4 0 0
0.41 0 0
0.42 0 0
0.43 0 0
0.44 0 0
0.45 0 0
0.46 0 0
0.47 0 0
0.48 0 0
0.49 0 0
0.5 0 0
0.51 0 0
0.52 0 0
0.53 0 0
0.54 0 0
0.55 0 0
0.56 0 0
0.57 0 0
0.58 0 0
0.59 0 0
0.6 0 0
0.61 0 0
0 0.01 0
0.01 0.01 0
0.02 0.01 0
0.03 0.01 0
0.04 0.01 0
0.05 0.01 0
0.06 0.01 0
0.07 0.01 0
0.08 0.01 0
0.09 0.01 0
0.1 0.01 0
0.11 0.01 0
0.12 0.01 0
0.13 0.01 0
0.14 0.01 0
0.15 0.01 0
0.16 0.01 0
0.17 0.01 0
0.18 0.01 0
0.19 0.01 0
0.2 0.01 0
0.21 0.01 0
0.22 0.01 0
0.23 0.01 0
0.24 0.01 0
0.25 0.01 0
0.26 0.01 0
0.27 0.01 0
0.28 0.01 0
0.29 0.01 0
0.3 0.01 0
0.31 0.01 0
0.32 0.01 0
0.33 0.01 0
0.34 0.01 0
0.35 0.01 0
0.36 0.01 0
0.37 0.01 0
0.38 0.01 0
0.39 0.01 0
0.4 0.01 0
0.41 0.01 0
0.42 0.01 0
0.43 0.01 0
0.44 0.01 0
0.45 0.01 0
0.46 0.01 0
0.47 0.01 0
0.48 0.01 0
0.49 0.01 0
0.5 0.01 0
0.51 0.01 0
0.52 0.01 0
0.53 0.01 0
0.54 0.01 0
0.55 0.01 0
0.56 0.01 0
0.57 0.01 0
0.58 0.01 0
0.59 0.01 0
0.6 0.01 0
0.61 0.01 0
0 0.02 0
0.01 0.02 0
0.02 0.02 0
0.03 0.02 0
0.04 0.02 0
0.05 0.02 0
0.06 0.02 0
0.07 0.02 0
0.08 0.02 0
0.09 0.02 0
0.1 0.02 0
0.11 0.02 0
0.12 0.02 0
0.13 0.02 0
0.14 0.02 0
0.15 0.02 0
0.16 0.02 0
0.17 0.02 0
0.18 0.02 0
0.19 0.02 0
0.2 0.02 0
0.21 0.02 0
0.22 0.02 0
0.23 0.02 0
0.24 0.02 0
0.25 0.02 0
0.26 0.02 0
0.27 0.02 0
0.28 0.02 0
0.29 0.02 0
0.3 0.02 0
0.31 0.02 0
0.32 0.02 0
0.33 0.02 0
0.34 0.02 0
0.35 0.02 0
0.36 0.02 0
0.37 0.02 0
0.38 0.02 0
0.39 0.02 0
0.4 0.02 0
0.41 0.02 0
0.42 0.02 0
0.43 0.02 0
0.44 0.02 0
0.45 0.02 0
0.46 0.02 0
0.47 0.02 0
0.48 0.02 0
0.49 0.02 0
0.5 0.02 0
0.51 0.02 0
0.52 0.02 0
0.53 0.02 0
0.54 0.02 0
0.55 0.02 0
0.56 0.02 0
0.57 0.02 0
0.58 0.02 0
0.59 0.02 0
0.6 0.02 0
0.61 0.02 0
0 0.03 0
0.01 0.03 0
0.02 0.03 0
0.03 0.03 0
0.04 0.03 0
0.05 0.03 0
0.06 0.03 0
0.07 0.03 0
0.08 0.03 0
0.09 0.03 0
0.1 0.03 0
0.11 0.03 0
0.12 0.03 0
0.13 0.03 0
0.14 0.03 0
0.15 0.03 0
0.16 0.03 0
0.17 0.03 0
0.18 0.03 0
0.19 0.03 0
0.2 0.03 0
0.21 0.03 0
0.22 0.03 0
0.23 0.03 0
0.24 0.03 0
0.25 0.03 0
0.26 0.03 0
0.27 0.03 0
0.28 0.03 0
0.29 0.03 0
0.3 0.03 0
0.31 0.03 0
0.32 0.03 0
0.33 0.03 0
0.34 0.03 0
0.35 0.03 0
0.36 0.03 0
0.37 0.03 0
0.38 0.03 0
0.39 0.03 0
0.4 0.03 0
0.41 0.03 0
0.42 0.03 0
0.43 0.03 0
0.44 0.03 0
0.45 0.03 0
0.46 0.03 0
0.47 0.03 0
0.48 0.03 0
0.49 0.03 0
0.5 0.03 0
0.51 0.03 0
0.52 0.03 0
0.53 0.03 0
0.54 0.03 0
0.55 0.03 0
0.56 0.03 0
0.57 0.03 0
0.58 0.03 0
0.59 0.03 0
0.6 0.03 0
0.61 0.03 0
0 0.04 0
0.01 0.04 0
0.02 0.04 0
0.03 0.04 0
0.04 0.04 0
0.05 0.04 0
0.06 0.04 0
0.07 0.04 0
0.08 0.04 0
0.09 0.04 0
0.1 0.04 0
0.11 0.04 0
0.12 0.04 0
0.13 0.04 0
0.14 0.04 0
0.15 0.04 0
0.16 0.04 0
0.17 0.04 0
0.18 0.04 0
0.19 0.04 0
0.2 0.04 0
0.21 0.04 0
0.22 0.04 0
0.23 0.04 0
0.24 0.04 0
0.25 0.04 0
0.26 0.04 0
0.27 0.04 0
0.28 0.04 0
0.29 0.04 0
0.3 0.04 0
0.31 0.04 0
0.32 0.04 0
0.33 0.04 0
0.34 0.04 0
0.35 0.04 0
0.36 0.04 0
0.37 0.04 0
0.38 0.04 0
0.39 0.04 0
0.4 0.04 0
0.41 0.04 0
0.42 0.04 0
0.43 0.04 0
0.44 0.04 0
0.45 0.04 0
0.46 0.04 0
0.47 0.04 0
0.48 0.04 0
0.49 0.04 0
0.5 0.04 0
0.51 0.04 0
0.52 0.04 0
0.53 0.04 0
0.54 0.04 0
0.55 0.04 0
0.56 0.04 0
0.57 0.04 0
0.58 0.04 0
0.59 0.04 0
0.6 0.04 0
0.61 0.04 0
0 0.05 0
0.01 0.05 0
0.02 0.05 0
0.03 0.05 0
0.04 0.05 0
0.05 0.05 0
0.06 0.05 0
0.07 0.05 0
0.08 0.05 0
0.09 0.05 0
0.1 0.05 0
0.11 0.05 0
0.12 0.05 0
0.13 0.05 0
0.14 0.05 0
0.15 0.05 0
0.16 0.05 0
0.17 0.05 0
0.18 0.05 0
0.19 0.05 0
0.2 0.05 0
0.21 0.05 0
0.22 0.05 0
0.23 0.05 0
0.24 0.05 0
0.25 0.05 0
0.26 0.05 0
0.27 0.05 0
0.28 0.05 0
0.29 0.05 0
0.3 0.05 0
0.31 0.05 0
0.32 0.05 0
0.33 0.05 0
0.34 0.05 0
0.35 0.05 0
0.36 0.05 0
0.37 0.05 0
0.38 0.05 0
0.39 0.05 0
0.4 0.05 0
0.41 0.05 0
0.42 0.05 0
0.43 0.05 0
0.44 0.05 0
0.45 0.05 0
0.46 0.05 0
0.47 0.05 0
0.48 0.05 0
0.49 0.05 0
0.5 0.05 0
0.51 0.05 0
0.52 0.05 0
0.53 0.05 0
0.54 0.05 0
0.55 0.05 0
0.56 0.05 0
0.57 0.05 0
0.58 0.05 0
0.59 0.05 0
0.6 0.05 0
0.61 0.05 0
0 0.06 0
0.01 0.06 0
0.02 0.06 0
0.03 0.06 0
0.04 0.06 0
0.05 0.06 0
0.06 0.06 0
0.07 0.06 0
0.08 0.06 0
0.09 0.06 0
0.1 0.06 0
0.11 0.06 0
0.12 0.06 0
0.13 0.06 0
0.14 0.06 0
0.15 0.06 0
0.16 0.06 0
0.17 0.06 0
0.18 0.06 0
0.19 0.06 0
0.2 0.06 0
0.21 0.06 0
0.22 0.06 0
0.23 0.06 0
0.24 0.06 0
0.25 0.06 0
0.26 0.06 0
0.27 0.06 0
0.28 0.06 0
0.29 0.06 0
0.3 0.06 0
0.31 0.06 0
0.32 0.06 0
0.33 0.06 0
0.34 0.06 0
0.35 0.06 0
0.36 0.06 0
0.37 0.06 0
0.38 0.06 0
0.39 0.06 0
0.4 0.06 0
0.41 0.06 0
0.42 0.06 0
0.43 0.06 0
0.44 0.06 0
0.45 0.06 0
0.46 0.06 0
0.47 0.06 0
0.48 0.06 0
0.49 0.06 0
0.5 0.06 0
0.51 0.06 0
0.52 0.06 0
0.53 0.06 0
0.54 0.06 0
0.55 0.06 0
0.56 0.06 0
0.57 0.06 0
0.58 0.06 0
0.59 0.06 0
0.6 0.06 0
0.61 0.06 0
0 0.07 0
0.01 0.07 0
0.02 0.07 0
0.03 0.07 0
0.04 0.07 0
0.05 0.07 0
0.06 0.07 0
0.07 0.07 0
0.08 0.07 0
0.09 0.07 0
0.1 0.07 0
0.11 0.07 0
0.12 0.07 0
0.13 0.07 0
0.14 0.07 0
0.15 0.07 0
0.16 0.07 0
0.17 0.07 0
0.18 0.07 0
0.19 0.07 0
0.2 0.07 0
0.21 0.07 0
0.22 0.07 0
0.23 0.07 0
0.24 0.07 0
0.25 0.07 0
0.26 0.07 0
0.27 0.07 0
0.28 0.07 0
0.29 0.07 0
0.3 0.07 0
0.31 0.07 0
0.32 0.07 0
0.33 0.07 0
0.34 0.07 0
0.35 0.07 0
0.36 0.07 0
0.37 0.07 0
0.38 0.07 0
0.39 0.07 0
0.4 0.07 0
0.41 0.07 0
0.42 0.07 0
0.43 0.07 0
0.44 0.07 0
0.45 0.07 0
0.46 0.07 0
0.47 0.07 0
0.48 0.07 0
0.49 0.07 0
0.5 0.07 0
0.51 0.07 0
0.52 0.07 0
0.53 0.07 0
0.54 0.07 0
0.55 0.07 0
0.56 0.07 0
0.57 0.07 0
0.58 0.07 0
0.59 0.07 0
0.6 0.07 0
0.61 0.07 0
0 0.08 0
0.01 0.08 0
0.02 0.08 0
0.03 0.08 0
0.04 0.08 0
0.05 0.08 0
0.06 0.08 0
0.07 0.08 0
0.08 0.08 0
0.09 0.08 0
0.1 0.08 0
0.11 0.08 0
0.12 0.08 0
0.13 0.08 0
0.14 0.08 0
0.15 0.08 0
0.16 0.08 0
0.17 0.08 0
0.18 0.08 0
0.19 0.08 0
0.2 0.08 0
0.21 0.08 0
0.22 0.08 0
0.23 0.08 0
0.24 0.08 0
0.25 0.08 0
0.26 0.08 0
0.27 0.08 0
0.28 0.08 0
0.29 0.08 0
0.3 0.08 0
0.31 0.08 0
0.32 0.08 0
0.33 0.08 0
0.34 0.08 0
0.35 0.08 0
0.36 0.08 0
0.37 0.08 0
0.38 0.08 0
0.39 0.08 0
0.4 0.08 0
0.41 0.08 0
0.42 0.08 0
0.43 0.08 0
0.44 0.08 0
0.45 0.08 0
0.46 0.08 0
0.47 0.08 0
0.48 0.08 0
0.49 0.08 0
0.5 0.08 0
0.51 0.08 0
0.52 0.08 0
0.53 0.08 0
0.54 0.08 0
0.55 0.08 0
0.56 0.08 0
0.57 0.08 0
0.58 0.08 0
0.59 0.08 0
0.6 0.08 0
0.61 0.08 0
0 0.09 0
0.01 0.09 0
0.02 0.09 0
0.03 0.09 0
0.04 0.09 0
0.05 0.09 0
0.06 0.09 0
0.07 0.09 0
0.08 0.09 0
0.09 0.09 0
0.1 0.09 0
0.11 0.09 0
0.12 0.09 0
0.13 0.09 0
0.14 0.09 0
0.15 0.09 0
0.16 0.09 0
0.17 0.09 0
0.18 0.09 0
0.19 0.09 0
0.2 0.09 0
0.21 0.09 0
0.22 0.09 0
0.23 0.09 0
0.24 0.09 0
0.25 0.09 0
0.26 0.09 0
0.27 0.09 0
0.28 0.09 0
0.29 0.09 0
0.3 0.09 0
0.31 0.09 0
0.32 0.09 0
0.33 0.09 0
0.34 0.09 0
0.35 0.09 0
0.36 0.09 0
0.37 0.09 0
0.38 0.09 0
0.39 0.09 0
0.4 0.09 0
0.41 0.09 0
0.42 0.09 0
0.43 0.09 0
0.44 0.09 0
0.45 0.09 0
0.46 0.09 0
0.47 0.09 0
0.48 0.09 0
0.49 0.09 0
0.5 0.09 0
0.51 0.09 0
0.52 0.09 0
0.53 0.09 0
0.54 0.09 0
0.55 0.09 0
0.56 0.09 0
0.57 0.09 0
0.58 0.09 0
0.59 0.09 0
0.6 0.09 0
0.61 0.09 0
0 0.1 0
0.01 0.1 0
0.02 0.1 0
0.03 0.1 0
0.04 0.1 0
0.05 0.1 0
0.06 0.1 0
0.07 0.1 0
0.08 0.1 0
0.09 0.1 0
0.1 0.1 0
0.11 0.1 0
0.12 0.1 0
0.13 0.1 0
0.14 0.1 0
0.15 0.1 0
0.16 0.1 0
0.17 0.1 0
0.18 0.1 0
0.19 0.1 0
0.2 0.1 0
0.21 0.1 0
0.22 0.1 0
0.23 0.1 0
0.24 0.1 0
0.25 0.1 0
0.26 0.1 0
0.27 0.1 0
0.28 0.1 0
0.29 0.1 0
0.3 0.1 0
0.31 0.1 0
0.32 0.1 0
0.33 0.1 0
0.34 0.1 0
0.35 0.1 0
0.36 0.1 0
0.37 0.1 0
0.38 0.1 0
0.39 0.1 0
0.4 0.1 0
0.41 0.1 0
0.42 0.1 0
0.43 0.1 0
0.44 0.1 0
0.45 0.1 0
0.46 0.1 0
0.47 0.1 0
0.48 0.1 0
0.49 0.1 0
0.5 0.1 0
0.51 0.1 0
0.52 0.1 0
0.53 0.1 0
0.54 0.1 0
0.55 0.1 0
0.56 0.1 0
0.57 0.1 0
0.58 0.1 0
0.59 0.1 0
0.6 0.1 0
0.61 0.1 0
0 0.11 0
0.01 0.11 0
0.02 0.11 0
0.03 0.11 0
0.04 0.11 0
0.05 0.11 0
0.06 0.11 0
0.07 0.11 0
0.08 0.11 0
0.09 0.11 0
0.1 0.11 0
0.11 0.11 0
0.12 0.11 0
0.13 0.11 0
0.14 0.11 0
0.15 0.11 0
0.16 0.11 0
0.17 0.11 0
0.18 0.11 0
0.19 0.11 0
0.2 0.11 0
0.21 0.11 0
0.22 0.11 0
0.23 0.11 0
0.24 0.11 0
0.25 0.11 0
0.26 0.11 0
0.27 0.11 0
0.28 0.11 0
0.29 0.11 0
0.3 0.11 0
0.31 0.11 0
0.32 0.11 0
0.33 0.11 0
0.34 0.11 0
0.35 0.11 0
0.36 0.11 0
0.37 0.11 0
0.38 0.11 0
0.39 0.11 0
0.4 0.11 0
0.41 0.11 0
0.42 0.11 0
0.43 0.11 0
0.44 0.11 0
0.45 0.11 0
0.46 0.11 0
0.47 0.11 0
0.48 0.11 0
0.49 0.11 0
0.5 0.11 0
0.51 0.11 0
0.52 0.11 0
0.53 0.11 0
0.54 0.11 0
0.55 0.11 0
0.56 0.11 0
0.57 0.11 0
0.58 0.11 0
0.59 0.11 0
0.6 0.11 0
0.61 0.11 0
0 0.12 0
0.01 0.12 0
0.02 0.12 0
0.03 0.12 0
0.04 0.12 0
0.05 0.12 0
0.06 0.12 0
0.07 0.12 0
0.08 0.12 0
0.09 0.12 0
0.1 0.12 0
0.11 0.12 0
0.12 0.12 0
0.13 0.12 0
0.14 0.12 0
0.15 0.12 0
0.16 0.12 0
0.17 0.12 0
0.18 0.12 0
0.19 0.12 0
0.2 0.12 0
0.21 0.12 0
0.22 0.12 0
0.23 0.12 0
0.24 0.12 0
0.25 0.12 0
0.26 0.12 0
0.27 0.12 0
0.28 0.12 0
0.29 0.12 0
0.3 0.12 0
0.31 0.12 0
0.32 0.12 0
0.33 0.12 0
0.34 0.12 0
0.35 0.12 0
0.36 0.12 0
0.37 0.12 0
0.38 0.12 0
0.39 0.12 0
0.4 0.12 0
0.41 0.12 0
0.42 0.12 0
0.43 0.12 0
0.44 0.12 0
0.45 0.12 0
0.46 0.12 0
0.47 0.12 0
0.48 0.12 0
0.49 0.12 0
0.5 0.12 0
0.51 0.12 0
0.52 0.12 0
0.53 0.12 0
0.54 0.12 0
0.55 0.12 0
0.56 0.12 0
0.57 0.12 0
0.58 0.12 0
0.59 0.12 0
0.6 0.12 0
0.61 0.12 0
0 0.13 0
0.01 0.13 0
0.02 0.13 0
0.03 0.13 0
0.04 0.13 0
0.05 0.13 0
0.06 0.13 0
0.07 0.13 0
0.08 0.13 0
0.09 0.13 0
0.1 0.13 0
0.11 0.13 0
0.12 0.13 0
0.13 0.13 0
0.14 0.13 0
0.15 0.13 0
0.16 0.13 0
0.17 0.13 0
0.18 0.13 0
0.19 0.13 0
0.2 0.13 0
0.21 0.13 0
0.22 0.13 0
0.23 0.13 0
0.24 0.13 0
0.25 0.13 0
0.26 0.13 0
0.27 0.13 0
0.28 0.13 0
0.29 0.13 0
0.3 0.13 0
0.31 0.13 0
0.32 0.13 0
0.33 0.13 0
0.34 0.13 0
0.35 0.13 0
0.36 0.13 0
0.37 0.13 0
0.38 0.13 0
0.39 0.13 0
0.4 0.13 0
0.41 0.13 0
0.42 0.13 0
0.43 0.13 0
0.44 0.13 0
0.45 0.13 0
0.46 0.13 0
0.47 0.13 0
0.48 0.13 0
[...]
POINT_DATA 93248

SCALARS v double
LOOKUP_TABLE default
0
0
0
0
0
0
0
0
0
0
0
0
0
0
0
0
0
0
0
0
0
0
0
0
0
0
0
0
0
0
0
0
0
0
0
0
0
0
-0.019016
0
0
0
0
0
-0.0198238
0
0
0
0
0
0
0
0
0
0
0
0
0
0
0
0
0
0
0.046027
-0.0465497
0.0478775
0.0240296
0.00333219
0
-0.0109032
-0.0127759
-0.013735
-0.0143187
-0.0145935
-0.0150428
-0.0151384
-0.0152472
-0.0153174
-0.015426
-0.0154092
-0.0154589
-0.0153219
-0.0161478
-0.0158686
-0.0158521
-0.0157682
-0.0157837
-0.0158054
-0.0158235
-0.015837
-0.0158461
-0.01585
-0.015848
-0.0158496
-0.0159346
-0.015809
-0.0156781
-0.0157456
-0.0183118
-0.0170339
-0.0206681
-0.0107655
-0.0146882
-0.0176663
-0.0163171
-0.0162394
-0.0161855
-0.0165623
-0.0304495
-0.0160595
-0.0172016
-0.0158639
-0.0158251
-0.0158737
-0.0161459
-0.0161607
-0.0193346
-0.0158702
-0.0229838
-0.0158237
-0.0152746
-0.0141547
-0.0116894
0
0
0.0273844
0.0557582
0.0550203
0.0336113
0.0123075
0.000715153
-0.00564668
-0.00924311
-0.0114257
-0.012942
-0.0135128
-0.0274605
-0.0149548
-0.0153448
-0.0127093
-0.0158369
-0.015712
-0.0160696
-0.0164993
-0.0313514
-0.0163841
-0.0164003
-0.0165677
-0.016668
-0.0167339
-0.0167816
-0.0168168
-0.0168415
-0.0168545
-0.0168487
-0.0168083
-0.024213
-0.0168022
-0.0164651
-0.0165055
-0.0157892
-0.0137144
-0.00901853
-0.021645
-0.0214924
-0.0195597
-0.0182889
-0.0177167
-0.0173922
-0.0171134
-0.0177762
-0.0173624
-0.0172016
-0.0169202
-0.0168851
-0.0167483
-0.0170432
-0.0170983
-0.0171365
-0.0168297
-0.0166509
-0.0256371
-0.0159529
-0.0149506
-0.0130602
0
0
0.0138535
0.0395576
0.0450961
0.0326917
0.0171844
0.00600115
-0.000840324
-0.00522773
-0.00813807
-0.0100118
-0.0117678
-0.0129919
-0.0136354
-0.0141852
-0.0146764
-0.0151756
0
-0.0153662
-0.0158282
-0.0160613
-0.0160544
-0.0161063
-0.0162242
-0.0163313
-0.0164202
-0.0164915
-0.0165476
-0.0165903
-0.0166199
-0.0166373
-0.0166537
-0.0167453
-0.016585
-0.016614
-0.0159841
-0.0154341
-0.0143482
-0.0131871
-0.0186237
-0.0196544
-0.018888
-0.018129
-0.0176833
-0.0175649
-0.0176833
-0.0167077
-0.0167583
-0.01677
-0.0169384
-0.0168405
-0.0167782
-0.0168233
-0.0168081
-0.016738
-0.0165678
-0.0164146
-0.0163202
-0.0157998
-0.0150492
-0.0137031
0
0
0.00742302
0.0275622
0.034569
0.0273023
0.0165845
0.00790942
0.00173838
-0.00264419
-0.00583823
-0.00817364
-0.0100442
-0.011424
-0.0124029
-0.0132038
-0.0139797
-0.0142844
-0.014342
-0.0148349
-0.0152375
-0.0155479
-0.0157025
-0.0158342
-0.0159699
-0.0160963
-0.0162066
-0.0162996
-0.0163757
-0.0164359
-0.0164814
-0.0165147
-0.0165427
-0.0165812
-0.0165877
-0.016476
-0.0161253
-0.0158029
-0.0154764
-0.0155583
-0.0173317
-0.0180772
-0.0180104
-0.0177508
-0.0175426
-0.0174471
-0.0173359
-0.0164897
-0.0167393
-0.0168318
-0.0168716
-0.016827
-0.0167803
-0.0167428
-0.0166685
-0.0165636
-0.0164264
-0.0162775
-0.016106
-0.015779
-0.0152299
-0.0143008
0
0
0.00418027
0.0192157
0.0261338
0.0219842
0.0142262
0.00749024
0.00243694
-0.00139422
-0.00449227
-0.00698748
-0.00892178
-0.0104026
-0.0115262
-0.0123808
-0.0129234
-0.0137022
-0.0140967
-0.0145685
-0.014947
-0.0152686
-0.015507
-0.0157025
-0.015875
-0.0160279
-0.0161614
-0.0162764
-0.0163718
-0.0164483
-0.0165069
-0.0165499
-0.0165815
-0.0166218
-0.0168456
-0.0166047
-0.0163999
-0.0162706
-0.0162307
-0.0164395
-0.0170843
-0.0175018
-0.0176105
-0.0175675
-0.0174975
-0.0174688
-0.0174259
0
-0.0169857
-0.0170634
-0.0170258
-0.0169808
-0.0169346
-0.0168575
-0.0167186
-0.0165867
-0.0164637
-0.0163357
-0.0161845
-0.0159522
-0.0153888
-0.0149688
-0.0206308
0
0.00236661
0.0138079
0.0196411
0.0168525
0.0110808
0.00589824
0.00193871
0
-0.00401823
-0.00638407
-0.00833554
-0.00982364
-0.0110162
-0.0119727
-0.0127541
-0.0135
-0.0139171
-0.0143554
-0.0148035
-0.0151632
-0.0154525
-0.0156912
-0.0158964
-0.0160758
-0.0162319
-0.0163705
-0.0164844
-0.0165755
-0.0166443
-0.0166921
-0.0167175
-0.0166784
-0.0324584
-0.0167844
-0.0167108
-0.0166912
-0.0167445
-0.0169087
-0.0171962
-0.0174295
-0.0175427
-0.0175652
-0.017543
-0.0174977
-0.0173728
-0.0168861
-0.0171533
-0.0172395
-0.017246
-0.0172448
-0.0172341
-0.0171442
-0.0168621
-0.0166963
-0.0166034
-0.0165181
-0.0164403
-0.0164753
-0.0163841
-0.0151847
0
0
0.00121923
0.010027
0.0146072
0.012361
0.00795862
0.00428514
0.000867781
-0.00193308
-0.0043299
-0.00642399
-0.00814367
-0.00957385
-0.0107903
-0.0117831
-0.0126589
-0.013656
-0.0138323
-0.0142913
-0.0147981
-0.0151848
-0.0155124
-0.015776
-0.0160058
-0.0162087
-0.0163843
-0.0165503
-0.0166815
-0.0167862
-0.0168621
-0.0169157
-0.0170001
-0.0170828
-0.0173387
-0.0171679
-0.0171038
-0.0171142
-0.0171715
-0.0172852
-0.0174409
-0.0175797
-0.0176663
-0.0177006
-0.0176959
-0.0176592
-0.0175768
-0.0174286
-0.0174683
-0.0175059
-0.0175399
-0.0176055
-0.0177105
-0.0176987
-0.0169602
-0.0167744
-0.0167793
-0.0167536
-0.0166643
-0.0248873
-0.0157304
-0.0152015
0
0
0.000411521
0.00720462
0.010609
0.00849594
0.00491451
0.00204533
-0.00055793
-0.00286693
-0.00493877
-0.00673563
-0.00830444
-0.00954517
-0.0115262
-0.0117672
-0.0125163
-0.0129277
-0.0139399
-0.0145247
-0.0149168
-0.0153033
-0.0156733
-0.0159398
-0.0161844
-0.0164118
-0.0165503
-0.0167885
-0.0169424
-0.0170662
-0.0171413
-0.0171641
-0.0173225
-0.01743
-0.0175201
-0.0174988
-0.0174935
-0.0175212
-0.0175696
-0.0176512
-0.0177504
-0.0178406
-0.0179034
-0.0179341
-0.0179361
-0.017913
-0.0178671
-0.0178107
-0.0178023
-0.0178157
-0.0178646
-0.0180158
-0.0183933
-0.0188869
-0.0167224
-0.0167031
-0.0169872
-0.0171014
-0.017106
-0.0171056
-0.0165769
-0.0156041
0
0
-0.000204128
0.00499167
0.00734974
0.00516931
0.00210542
-0.000188305
-0.00216422
-0.00403304
-0.00576571
-0.00735034
-0.00877965
-0.0101321
-0.0111033
-0.0119791
-0.0127093
-0.0133434
-0.0140844
-0.0146461
-0.0150995
-0.0154899
-0.0184396
-0.0161505
-0.0164194
-0.0166644
-0.0168974
-0.0170925
-0.0172743
-0.0174262
-0.0175104
-0.0174448
-0.0176598
-0.0177679
-0.0178365
-0.0178598
-0.0178835
-0.0179307
-0.0179628
-0.0180274
-0.018102
-0.0181669
-0.0182126
-0.0182361
-0.0182387
-0.0182232
-0.0181943
-0.0181605
-0.0181377
-0.0181263
-0.0181446
-0.0182788
-0.0187896
-0.0197004
-0.0159718
-0.0168048
-0.017392
-0.0175574
-0.0175589
-0.0174864
-0.0171049
-0.0160483
0
0
-0.000701424
0.00318824
0.00462966
0.00226188
-0.000453756
-0.00229797
-0.00383208
-0.00533243
-0.00678292
-0.00814409
-0.00939572
-0.0105356
-0.0115018
-0.0123301
-0.0129793
-0.0136681
-0.0143395
-0.014903
-0.0153766
-0.0158143
-0.0161312
-0.0164321
-0.0167109
-0.0169691
-0.0172025
-0.0174398
-0.0176669
-0.017887
-0.0180988
-0.0182788
-0.0175998
-0.0179134
-0.0181352
-0.0182264
-0.0182725
-0.0183118
-0.0184004
-0.0184296
-0.0184907
-0.0185403
-0.0185729
-0.0185881
-0.0185867
-0.0185723
-0.0185481
-0.0185174
-0.0184816
-0.018432
-0.0183398
-0.0181048
-0.0174132
-0.016056
-0.0201336
-0.0192166
-0.0184968
-0.0181976
-0.0180618
-0.0179391
-0.0175732
-0.0164869
0
0
-0.00112154
0.00167096
0.00232406
-0.00321487
-0.00277395
-0.00428346
-0.00548755
-0.00670119
-0.00790669
-0.00906606
-0.0101529
-0.0111547
-0.0120541
-0.0128391
-0.0132139
-0.0139944
-0.0146986
-0.0152581
-0.0157117
-0.0160709
-0.0164995
-0.0167902
-0.0170577
-0.0173151
-0.0175677
-0.0178278
-0.018104
-0.0184016
-0.0187089
-0.0189115
0
-0.0184028
-0.0186027
-0.0186587
-0.0186889
-0.0187318
-0.0187882
-0.0188755
-0.018922
-0.0189557
-0.0189745
-0.0189802
-0.0189696
-0.018951
-0.0189261
-0.0188944
-0.0188522
-0.0187881
-0.018676
-0.0184634
-0.0180617
-0.0177344
-0.0194456
-0.0193346
-0.0189367
-0.0186818
-0.0185318
-0.0183941
-0.0180216
-0.0169135
0
0
-0.0014909
0.000347824
0.000251229
-0.00250442
-0.00486306
-0.00615222
-0.007116
-0.00809353
-0.0090904
-0.0100748
-0.0110117
-0.0118963
-0.0127342
-0.0135804
0
-0.014457
-0.0151606
-0.0157081
-0.0161394
-0.0165004
-0.0168513
-0.0171509
-0.0174237
-0.017685
-0.0179475
-0.018232
-0.0185675
-0.0189765
-0.0194305
-0.019333
-0.018737
-0.0188791
-0.0189877
-0.0190436
-0.0190954
-0.0191598
-0.0192363
-0.0193213
-0.0193809
-0.019409
-0.0194128
-0.0194117
-0.0193798
-0.0193528
-0.0193252
-0.0192937
-0.0192532
-0.0191933
-0.0190977
-0.0189873
-0.0188452
-0.018829
-0.0193263
-0.0193772
-0.0192385
-0.0190924
-0.018969
-0.0188352
-0.0184547
-0.0173254
0
0
-0.00182149
-0.000818692
-0.00157376
-0.00449326
-0.00678295
-0.00791235
-0.00868776
-0.0094771
-0.0102987
-0.0115174
-0.0119339
-0.0127015
-0.0134188
-0.01406
-0.0143436
-0.0150314
-0.0156531
-0.0161643
-0.0166241
-0.0169572
-0.0172646
-0.0175503
-0.0178168
-0.0180711
-0.0183287
-0.0186226
-0.0190224
-0.0196506
-0.0208873
-0.0201517
-0.0195715
-0.0194019
-0.0193901
-0.0194336
-0.019504
-0.0195958
-0.0197013
-0.0198171
-0.0198997
-0.019915
-0.0198853
-0.0198304
-0.0198019
-0.0197701
-0.0197407
-0.0197119
-0.0196794
-0.0196309
-0.0195249
-0.019511
-0.0194697
-0.0194783
-0.0195949
-0.0196399
-0.0195912
-0.0195027
-0.0193885
-0.0192664
-0.0188739
-0.0177194
0
0
-0.00212241
-0.00185947
-0.00321487
-0.00634381
-0.008578
-0.00957833
-0.0102015
-0.010837
-0.0115174
-0.0122183
-0.0129046
-0.013566
-0.0141865
-0.0147446
-0.0151958
-0.0157176
-0.0162173
-0.016673
-0.0172411
-0.0174658
-0.0177152
-0.0179821
-0.0182339
-0.0184683
-0.0186955
-0.0189483
-0.0193423
-0.0165069
-0.0252003
-0.0209323
-0.0199701
-0.0197502
-0.0197448
-0.0198123
-0.0199102
-0.0200385
-0.0202042
-0.0203846
-0.0205277
-0.0205042
-0.0204092
-0.0203135
-0.0202459
-0.0201995
-0.0201667
-0.0201426
-0.0201241
-0.0201089
-0.0168716
-0.0200401
-0.0200135
-0.019997
-0.0199399
-0.0200268
-0.0200084
-0.0199496
-0.0198633
-0.0197028
-0.0192809
-0.0180895
0
0
-0.00240436
-0.00278057
-0.00470433
-0.00805182
-0.0102652
-0.0111695
-0.0116574
-0.0121604
-0.0127224
-0.0133146
-0.013905
-0.0144781
-0.0150204
-0.015519
-0.0159688
-0.0164101
-0.0168192
-0.017149
-0.0293811
-0.01796
-0.0181929
-0.0184396
-0.0186777
-0.0188818
-0.019051
-0.0191635
-0.0191167
-0.0183571
-0.0133569
-0.0181753
-0.0193619
-0.0197855
-0.0200137
-0.0201719
-0.0203047
-0.0204726
-0.020715
-0.0210507
-0.0213982
-0.0212263
-0.0209784
-0.0207967
-0.0206891
-0.0206294
-0.0205944
-0.0205752
-0.0205601
-0.0205395
-0.02048
-0.020523
-0.0205209
-0.0205318
-0.0206279
-0.0205294
-0.0204794
-0.0204328
-0.0202962
-0.0201324
-0.0196738
-0.0184234
0
0
-0.00269934
-0.0035286
-0.00605552
-0.00965985
-0.0118691
-0.0127086
-0.0130519
-0.013438
-0.0139074
-0.0144142
-0.014926
-0.0154254
-0.0159014
-0.0163414
-0.016741
-0.0171245
-0.0174958
-0.0178604
-0.0183544
-0.018532
-0.0187375
-0.0189587
-0.0191619
-0.019334
-0.0194619
-0.0195158
-0.0194198
-0.0189923
-0.0180021
-0.0189943
-0.0196799
-0.0201018
-0.0203753
-0.0205669
-0.0206817
-0.0208647
-0.0211975
-0.0218423
-0.0229935
-0.0221306
-0.0215424
-0.0212437
-0.0211076
-0.021048
-0.0210159
-0.0210101
-0.0210039
-0.020997
-0.0209974
-0.0210519
-0.0210183
-0.0210118
-0.0210287
-0.0210066
-0.0209468
-0.0209885
-0.0207392
-0.0205836
-0.0200731
-0.0186947
0
0
-0.00309748
0.00499167
-0.00733698
-0.0111948
-0.0133967
-0.0141719
-0.0143515
-0.0146869
-0.0150944
-0.0155277
-0.0159589
-0.0163993
-0.0168234
-0.0172077
-0.017527
-0.0178465
-0.0181791
-0.0185126
-0.0188473
-0.019087
-0.0193018
-0.0195015
-0.01968
-0.0198293
-0.0199391
-0.0199922
-0.0199641
-0.0198171
-0.0196916
-0.0199481
-0.0202797
-0.0205732
-0.0208181
-0.0210242
-0.0210145
-0.0211502
-0.0214825
-0.0225309
-0.0275079
-0.0229425
-0.0218593
-0.021558
-0.0214698
-0.0214488
-0.0210159
-0.0214496
-0.0214521
-0.0214515
-0.0214782
-0.0216765
-0.0215109
-0.0214827
-0.0214977
-0.0215241
-0.0216357
-0.0216634
-0.0212085
-0.0211592
-0.020606
-0.01882
0
0
-0.00320348
-0.00517523
-0.00863302
-0.0126391
-0.0147696
-0.0152511
-0.0157015
-0.0160483
-0.016377
-0.0166917
-0.016999
-0.0173924
-0.0177952
-0.0181443
-0.018317
-0.0185475
-0.0188564
-0.0191726
-0.0194534
-0.0196854
-0.019888
-0.0200689
-0.0202279
-0.0203617
-0.0204651
-0.0205305
-0.0205489
-0.0205563
-0.0207676
-0.0207492
-0.0208835
-0.0210773
-0.021282
-0.0215405
-0.0212872
-0.0213329
-0.0212336
-0.0203778
-0.0150533
-0.0201124
-0.021284
-0.0216352
-0.0217671
-0.0218274
-0.0218576
-0.0218901
-0.0219036
-0.0218932
-0.0218643
-0.0338577
-0.0219222
-0.0219405
-0.0219692
-0.0219712
-0.0219263
-0.0218011
-0.0222328
-0.0221661
-0.0220251
-0.0213942
0
0
-0.00341534
-0.00607526
-0.00988853
-0.0141486
-0.0162312
-0.0164145
-0.0168337
-0.0172245
-0.0175325
-0.0178011
-0.017932
-0.0183779
-0.0188415
-0.0192375
-0.0190495
-0.0191949
-0.0195066
-0.0198641
-0.0201155
-0.0203196
-0.0204994
-0.0206598
-0.0208009
-0.0209221
-0.0210228
-0.0211032
-0.0211632
-0.0211073
-0.0349597
-0.0213541
-0.0214388
-0.0215542
-0.0216306
-0.0215736
-0.0219555
-0.0218813
-0.0216232
-0.021046
-0.0199182
-0.0209179
-0.0216043
-0.0219561
-0.0221359
-0.0222324
-0.0222932
-0.0223499
-0.0223825
-0.0223989
-0.022435
-0.0226232
-0.022475
-0.0224686
-0.0224857
-0.0224848
-0.0224548
-0.0224564
-0.0226824
-0.022736
-0.0225501
-0.0215273
0
0
-0.00365245
-0.00684913
-0.0109887
-0.0253946
-0.0178057
0
-0.0180425
-0.0183913
-0.0186762
-0.0189292
-0.00833554
-0.0193772
-0.0199582
-0.0204482
-0.0196569
-0.0198013
-0.0202291
-0.0206439
-0.0208294
-0.0209817
-0.0211327
-0.0212707
-0.0213933
-0.021501
-0.0215975
-0.0217089
-0.0219249
-0.021836
-0.0220796
-0.0219985
-0.0220251
-0.0220992
-0.0221581
-0.0221862
-0.022344
-0.0223227
-0.0221637
-0.0218984
-0.0216313
-0.021878
-0.0221933
-0.0224267
-0.0225745
-0.0226653
-0.0227312
-0.0228333
-0.0228806
-0.0228992
-0.0229183
-0.0229561
-0.0229341
-0.0229962
-0.0230281
-0.0230329
-0.0229838
-0.0230179
-0.0231367
-0.0231948
-0.0229539
-0.0218088
0
0
-0.00389534
-0.00760032
-0.0122062
-0.0167932
-0.0189031
-0.0190672
-0.0193208
-0.0195461
-0.0196931
-0.0197647
-0.0198301
-0.0202279
-0.020751
-0.0200343
-0.0209676
-0.021267
-0.0212863
-0.027995
-0.0215728
-0.0216651
-0.0217814
-0.0218979
-0.0219993
-0.0220895
-0.0221627
-0.0221946
-0.0220796
-0.0223418
-0.0224826
-0.0225319
-0.0225846
-0.0226508
-0.0227202
-0.0227892
-0.0228433
-0.0228308
-0.0227475
-0.0226371
-0.0225703
-0.02266
-0.0228131
-0.0229545
-0.023052
-0.0231143
-0.0231487
-0.0233578
-0.0234063
-0.0234058
-0.0233983
-0.0233685
-0.0233463
-0.0235467
-0.0236001
-0.0236207
-0.0234497
-0.0235008
-0.0235986
-0.0236395
-0.0233592
-0.0221565
0
0
-0.00413338
-0.00831691
-0.013316
-0.0179455
-0.0201229
-0.02055
-0.020645
-0.0207225
-0.0207328
-0.0204513
-0.0206982
-0.0208987
-0.0206428
-0.0348456
-0.0221256
-0.0221951
-0.0222056
-0.0223111
-0.0223168
-0.0223741
-0.0224577
-0.022541
-0.0226149
-0.0226909
-0.0227551
-0.022799
-0.022818
-0.0229086
-0.023011
-0.0230737
-0.0231305
-0.0231966
-0.0232847
-0.0234261
-0.0234105
-0.0234051
-0.0233344
-0.0232824
-0.0232701
-0.0233205
-0.0234082
-0.023502
-0.0235833
-0.0236037
-0.0235495
-0.0239312
-0.0239283
-0.0239158
-0.0239055
-0.0238103
-0.0237052
-0.0241141
-0.0241333
-0.0242274
-0.0238495
-0.0239753
-0.024074
-0.0240888
-0.0237828
-0.0225446
0
0
-0.00436722
-0.00901343
-0.0143936
-0.0191682
-0.021391
-0.0218754
-0.0219126
-0.0219371
-0.0218829
-0.020239
-0.0215386
-0.0219545
-0.0220739
-0.0226754
-0.0228485
-0.0229165
-0.0229329
-0.0229881
-0.0230272
-0.0230782
-0.0231374
-0.0231923
-0.0232228
-0.0232986
-0.0233612
-0.0234038
-0.0234361
-0.0234677
-0.0235753
-0.023621
-0.0236664
-0.0237235
-0.0238265
-0.0243022
-0.024001
-0.0240768
-0.0238927
-0.0238642
-0.0238724
-0.0239136
-0.023976
-0.0240496
-0.0241367
-0.0242527
-0.0244323
-0.0241419
-0.0242524
-0.0243834
-0.0244847
-0.02439
-0.0245017
-0.0242136
-0.0242781
-0.0242474
-0.0247106
-0.0246511
-0.0246074
-0.0245345
-0.0242239
-0.0229619
0
0
-0.00459952
-0.00970005
-0.0154607
-0.0204064
-0.0226651
-0.0231488
-0.0231216
-0.0232183
-0.0233606
-0.0251705
-0.0238726
-0.0234932
-0.0233834
-0.0235146
-0.0236092
-0.0236534
-0.023681
-0.023711
-0.0237432
-0.0237806
-0.0238235
-0.0238583
-0.0237806
-0.0239071
-0.0239814
-0.024011
-0.02404
-0.0240787
-0.0240874
-0.0241433
-0.0241847
-0.024213
-0.0241893
-0.0237588
-0.0241415
-0.0240833
-0.0243191
-0.0243804
-0.0244241
-0.024469
-0.0245198
-0.0245758
-0.0246541
-0.0247452
-0.024828
-0.0247335
-0.0247836
-0.0249071
-0.0250922
-0.0247719
-0.0247613
-0.0248459
-0.0248453
-0.0248764
-0.0250928
-0.0251203
-0.0250889
-0.0248873
-0.0246808
-0.0234047
0
0
-0.00483218
-0.0103817
-0.0165229
-0.021647
-0.0239431
-0.0244403
-0.0245278
-0.024457
-0.0245512
-0.0249189
-0.0247116
-0.0245227
-0.0244252
-0.0244236
-0.0244359
-0.0244413
-0.0244425
-0.0244502
-0.024462
-0.0244829
-0.0245178
-0.0245832
-0.0166644
-0.0245727
-0.024621
-0.024614
-0.0246185
-0.0234677
-0.0246573
-0.0246937
-0.0247114
-0.024737
-0.0247254
-0.0246509
-0.0247304
-0.0247705
-0.0248562
-0.0249161
-0.0249645
-0.0250096
-0.025049
-0.0250715
-0.0251553
-0.0252286
-0.0252774
-0.0252705
-0.0252823
-0.0252742
-0.0252046
-0.0256472
-0.0161459
-0.0285895
-0.0254439
-0.0254608
-0.0255466
-0.0255998
-0.0256371
-0.0141547
-0.0252194
-0.0238686
0
0
-0.00506633
-0.0110606
-0.0175826
-0.0228873
-0.025213
-0.0256848
-0.0256736
-0.025569
-0.0255812
-0.0256319
-0.0255834
-0.0254888
-0.025399
-0.0253353
-0.0252897
-0.0252516
-0.025215
-0.025189
-0.0251781
-0.0251764
-0.0251807
-0.0251733
-0.0250694
-0.025216
-0.0252757
-0.0251746
-0.0251395
-0.0251548
-0.0252054
-0.0252456
-0.0252852
-0.0252886
-0.025289
-0.0252845
-0.025317
-0.0253561
-0.0254066
-0.0254554
-0.0255025
-0.0255489
-0.0255799
-0.0255004
-0.0256561
-0.0257361
-0.0257761
-0.0257946
-0.0258086
-0.0258109
-0.0258156
-0.0259802
-0.0258768
-0.0260097
-0.025986
-0.0259945
-0.0260285
-0.026053
-0.0260385
-0.0258503
-0.0256172
-0.0242978
0
0
-0.00530249
-0.0117385
-0.018643
-0.0241332
-0.0264894
-0.0269395
-0.0268816
-0.0265783
-0.0265904
-0.0265363
-0.026549
-0.026476
-0.0263576
-0.0262439
-0.026148
-0.0260686
-0.0259816
-0.0259158
-0.0258878
-0.0258674
-0.0258552
-0.0258441
-0.0258384
-0.0258843
-0.0260309
-0.0256736
-0.0256148
-0.0256772
-0.0257524
-0.0257949
-0.0258214
-0.0258342
-0.0258433
-0.0258545
-0.0258784
-0.0259103
-0.025949
-0.0259911
-0.0260374
-0.0260942
-0.0261676
-0.0182361
-0.0262136
-0.0262672
-0.0262987
-0.0263231
-0.0263458
-0.0263652
-0.0263904
-0.0264494
-0.0264496
-0.0264882
-0.0264958
-0.0265067
-0.0265235
-0.0265347
-0.0265203
-0.026453
-0.0260973
-0.0247454
0
0
-0.00553964
-0.0124181
-0.0197075
-0.0253946
-0.0277824
-0.0282207
-0.0282081
-0.013735
-0.0277074
-0.0274798
-0.0276148
-0.0274605
-0.0272889
-0.0271306
-0.0270009
-0.0268994
-0.0267272
-0.0266047
-0.0265888
-0.0265545
-0.0265381
-0.0264861
-0.0264641
-0.0265392
-0.0268952
-0.0260878
-0.0260887
-0.026235
-0.026313
-0.0263531
-0.0263691
-0.0263789
-0.0263886
-0.026402
-0.0264225
-0.0264497
-0.0264827
-0.0265199
-0.0265601
-0.0266011
-0.0266264
-0.0265492
-0.0266938
-0.0267707
-0.0268177
-0.0268555
-0.0268875
-0.0269147
-0.0269405
-0.0269685
-0.026982
-0.0269979
-0.0270071
-0.0270161
-0.0270267
-0.0270369
-0.0270458
-0.0269838
-0.0265905
-0.025208
0
0
-0.00576925
-0.0131109
-0.0207967
-0.0266822
-0.0290921
-0.0294766
-0.0293287
-0.0289487
-0.0288932
-0.028904
-0.0284548
-0.0282478
-0.0280885
-0.0279547
-0.0278196
-0.0277943
-0.0274175
-0.0272155
-0.0272919
-0.0272222
-0.0272633
-0.0271148
-0.0269964
-0.0268313
-0.0264087
-0.0272312
-0.0272107
-0.0270502
-0.0269665
-0.026929
-0.0269205
-0.0269209
-0.0269266
-0.0269377
-0.0269555
-0.0269798
-0.0270098
-0.0270446
-0.0270822
-0.027119
-0.0271471
-0.0271582
-0.0272262
-0.0272918
-0.0273494
-0.0273988
-0.027439
-0.0274698
-0.0274923
-0.0275078
-0.0275152
-0.0275201
-0.0275236
-0.027528
-0.0275337
-0.0275397
-0.0275422
-0.0274911
-0.0270849
-0.0256783
0
0
-0.00594236
-0.013838
-0.0220729
-0.0280032
-0.0303942
-0.0307616
-0.0305644
-0.0302686
-0.030053
-0.0298596
-0.0295137
-0.0292252
-0.0289971
-0.0288152
-0.0287432
-0.0288784
-0.027995
-0.0280216
-0.0278399
-0.0277568
-0.0352716
-0.0276996
-0.0275899
-0.0274537
-0.0272858
-0.0276059
-0.0276542
-0.0275872
-0.0275166
-0.0274797
-0.0274628
-0.0274564
-0.027457
-0.0274643
-0.0274796
-0.0275024
-0.0275317
-0.027567
-0.0276068
-0.0276469
-0.0276793
-0.0277021
-0.0277543
-0.0278236
-0.0278956
-0.0279597
-0.0280092
-0.0280426
-0.0280604
-0.0280642
-0.0280587
-0.0280509
-0.0280453
-0.0280437
-0.0280441
-0.0280446
-0.0280455
-0.0279975
-0.027581
-0.0261533
0
0
-0.00591361
-0.0145285
-0.0235362