# vtk DataFile Version 2.0
FlowField
ASCII
DATASET STRUCTURED_GRID
DIMENSIONS 62 47 32 
POINTS 93248 double
0 0 0
0.01 0 0
0.02 0 0
0.03 0 0
0.04 0 0
0.05 0 0
0.06 0 0
0.07 0 0
0.08 0 0
0.09 0 0
0.1 0 0
0.11 0 0
0.12 0 0
0.13 0 0
0.14 0 0
0.15 0 0
0.16 0 0
0.17 0 0
0.18 0 0
0.19 0 0
0.2 0 0
0.21 0 0
0.22 0 0
0.23 0 0
0.24 0 0
0.25 0 0
0.26 0 0
0.27 0 0
0.28 0 0
0.29 0 0
0.3 0 0
0.31 0 0
0.32 0 0
0.33 0 0
0.34 0 0
0.35 0 0
0.36 0 0
0.37 0 0
0.38 0 0
0.39 0 0
0.4 0 0
0.41 0 0
0.42 0 0
0.43 0 0
0.44 0 0
0.45 0 0
0.46 0 0
0.47 0 0
0.48 0 0
0.49 0 0
0.5 0 0
0.51 0 0
0.52 0 0
0.53 0 0
0.54 0 0
0.55 0 0
0.56 0 0
0.57 0 0
0.58 0 0
0.59 0 0
0.6 0 0
0.61 0 0
0 0.01 0
0.01 0.01 0
0.02 0.01 0
0.03 0.01 0
0.04 0.01 0
0.05 0.01 0
0.06 0.01 0
0.07 0.01 0
0.08 0.01 0
0.09 0.01 0
0.1 0.01 0
0.11 0.01 0
0.12 0.01 0
0.13 0.01 0
0.14 0.01 0
0.15 0.01 0
0.16 0.01 0
0.17 0.01 0
0.18 0.01 0
0.19 0.01 0
0.2 0.01 0
0.21 0.01 0
0.22 0.01 0
0.23 0.01 0
0.24 0.01 0
0.25 0.01 0
0.26 0.01 0
0.27 0.01 0
0.28 0.01 0
0.29 0.01 0
0.3 0.01 0
0.31 0.01 0
0.32 0.01 0
0.33 0.01 0
0.34 0.01 0
0.35 0.01 0
0.36 0.01 0
0.37 0.01 0
0.38 0.01 0
0.39 0.01 0
0.4 0.01 0
0.41 0.01 0
0.42 0.01 0
0.43 0.01 0
0.44 0.01 0
0.45 0.01 0
0.46 0.01 0
0.47 0.01 0
0.48 0.01 0
0.49 0.01 0
0.5 0.01 0
0.51 0.01 0
0.52 0.01 0
0.53 0.01 0
0.54 0.01 0
0.55 0.01 0
0.56 0.01 0
0.57 0.01 0
0.58 0.01 0
0.59 0.01 0
0.6 0.01 0
0.61 0.01 0
0 0.02 0
0.01 0.02 0
0.02 0.02 0
0.03 0.02 0
0.04 0.02 0
0.05 0.02 0
0.06 0.02 0
0.07 0.02 0
0.08 0.02 0
0.09 0.02 0
0.1 0.02 0
0.11 0.02 0
0.12 0.02 0
0.13 0.02 0
0.14 0.02 0
0.15 0.02 0
0.16 0.02 0
0.17 0.02 0
0.18 0.02 0
0.19 0.02 0
0.2 0.02 0
0.21 0.02 0
0.22 0.02 0
0.23 0.02 0
0.24 0.02 0
0.25 0.02 0
0.26 0.02 0
0.27 0.02 0
0.28 0.02 0
0.29 0.02 0
0.3 0.02 0
0.31 0.02 0
0.32 0.02 0
0.33 0.02 0
0.34 0.02 0
0.35 0.02 0
0.36 0.02 0
0.37 0.02 0
0.38 0.02 0
0.39 0.02 0
0.4 0.02 0
0.41 0.02 0
0.42 0.02 0
0.43 0.02 0
0.44 0.02 0
0.45 0.02 0
0.46 0.02 0
0.47 0.02 0
0.48 0.02 0
0.49 0.02 0
0.5 0.02 0
0.51 0.02 0
0.52 0.02 0
0.53 0.02 0
0.54 0.02 0
0.55 0.02 0
0.56 0.02 0
0.57 0.02 0
0.58 0.02 0
0.59 0.02 0
0.6 0.02 0
0.61 0.02 0
0 0.03 0
0.01 0.03 0
0.02 0.03 0
0.03 0.03 0
0.04 0.03 0
0.05 0.03 0
0.06 0.03 0
0.07 0.03 0
0.08 0.03 0
0.09 0.03 0
0.1 0.03 0
0.11 0.03 0
0.12 0.03 0
0.13 0.03 0
0.14 0.03 0
0.15 0.03 0
0.16 0.03 0
0.17 0.03 0
0.18 0.03 0
0.19 0.03 0
0.2 0.03 0
0.21 0.03 0
0.22 0.03 0
0.23 0.03 0
0.24 0.03 0
0.25 0.03 0
0.26 0.03 0
0.27 0.03 0
0.28 0.03 0
0.29 0.03 0
0.3 0.03 0
0.31 0.03 0
0.32 0.03 0
0.33 0.03 0
0.34 0.03 0
0.35 0.03 0
0.36 0.03 0
0.37 0.03 0
0.38 0.03 0
0.39 0.03 0
0.4 0.03 0
0.41 0.03 0
0.42 0.03 0
0.43 0.03 0
0.44 0.03 0
0.45 0.03 0
0.46 0.03 0
0.47 0.03 0
0.48 0.03 0
0.49 0.03 0
0.5 0.03 0
0.51 0.03 0
0.52 0.03 0
0.53 0.03 0
0.54 0.03 0
0.55 0.03 0
0.56 0.03 0
0.57 0.03 0
0.58 0.03 0
0.59 0.03 0
0.6 0.03 0
0.61 0.03 0
0 0.04 0
0.01 0.04 0
0.02 0.04 0
0.03 0.04 0
0.04 0.04 0
0.05 0.04 0
0.06 0.04 0
0.07 0.04 0
0.08 0.04 0
0.09 0.04 0
0.1 0.04 0
0.11 0.04 0
0.12 0.04 0
0.13 0.04 0
0.14 0.04 0
0.15 0.04 0
0.16 0.04 0
0.17 0.04 0
0.18 0.04 0
0.19 0.04 0
0.2 0.04 0
0.21 0.04 0
0.22 0.04 0
0.23 0.04 0
0.24 0.04 0
0.25 0.04 0
0.26 0.04 0
0.27 0.04 0
0.28 0.04 0
0.29 0.04 0
0.3 0.04 0
0.31 0.04 0
0.32 0.04 0
0.33 0.04 0
0.34 0.04 0
0.35 0.04 0
0.36 0.04 0
0.37 0.04 0
0.38 0.04 0
0.39 0.04 0
0.4 0.04 0
0.41 0.04 0
0.42 0.04 0
0.43 0.04 0
0.44 0.04 0
0.45 0.04 0
0.46 0.04 0
0.47 0.04 0
0.48 0.04 0
0.49 0.04 0
0.5 0.04 0
0.51 0.04 0
0.52 0.04 0
0.53 0.04 0
0.54 0.04 0
0.55 0.04 0
0.56 0.04 0
0.57 0.04 0
0.58 0.04 0
0.59 0.04 0
0.6 0.04 0
0.61 0.04 0
0 0.05 0
0.01 0.05 0
0.02 0.05 0
0.03 0.05 0
0.04 0.05 0
0.05 0.05 0
0.06 0.05 0
0.07 0.05 0
0.08 0.05 0
0.09 0.05 0
0.1 0.05 0
0.11 0.05 0
0.12 0.05 0
0.13 0.05 0
0.14 0.05 0
0.15 0.05 0
0.16 0.05 0
0.17 0.05 0
0.18 0.05 0
0.19 0.05 0
0.2 0.05 0
0.21 0.05 0
0.22 0.05 0
0.23 0.05 0
0.24 0.05 0
0.25 0.05 0
0.26 0.05 0
0.27 0.05 0
0.28 0.05 0
0.29 0.05 0
0.3 0.05 0
0.31 0.05 0
0.32 0.05 0
0.33 0.05 0
0.34 0.05 0
0.35 0.05 0
0.36 0.05 0
0.37 0.05 0
0.38 0.05 0
0.39 0.05 0
0.4 0.05 0
0.41 0.05 0
0.42 0.05 0
0.43 0.05 0
0.44 0.05 0
0.45 0.05 0
0.46 0.05 0
0.47 0.05 0
0.48 0.05 0
0.49 0.05 0
0.5 0.05 0
0.51 0.05 0
0.52 0.05 0
0.53 0.05 0
0.54 0.05 0
0.55 0.05 0
0.56 0.05 0
0.57 0.05 0
0.58 0.05 0
0.59 0.05 0
0.6 0.05 0
0.61 0.05 0
0 0.06 0
0.01 0.06 0
0.02 0.06 0
0.03 0.06 0
0.04 0.06 0
0.05 0.06 0
0.06 0.06 0
0.07 0.06 0
0.08 0.06 0
0.09 0.06 0
0.1 0.06 0
0.11 0.06 0
0.12 0.06 0
0.13 0.06 0
0.14 0.06 0
0.15 0.06 0
0.16 0.06 0
0.17 0.06 0
0.18 0.06 0
0.19 0.06 0
0.2 0.06 0
0.21 0.06 0
0.22 0.06 0
0.23 0.06 0
0.24 0.06 0
0.25 0.06 0
0.26 0.06 0
0.27 0.06 0
0.28 0.06 0
0.29 0.06 0
0.3 0.06 0
0.31 0.06 0
0.32 0.06 0
0.33 0.06 0
0.34 0.06 0
0.35 0.06 0
0.36 0.06 0
0.37 0.06 0
0.38 0.06 0
0.39 0.06 0
0.4 0.06 0
0.41 0.06 0
0.42 0.06 0
0.43 0.06 0
0.44 0.06 0
0.45 0.06 0
0.46 0.06 0
0.47 0.06 0
0.48 0.06 0
0.49 0.06 0
0.5 0.06 0
0.51 0.06 0
0.52 0.06 0
0.53 0.06 0
0.54 0.06 0
0.55 0.06 0
0.56 0.06 0
0.57 0.06 0
0.58 0.06 0
0.59 0.06 0
0.6 0.06 0
0.61 0.06 0
0 0.07 0
0.01 0.07 0
0.02 0.07 0
0.03 0.07 0
0.04 0.07 0
0.05 0.07 0
0.06 0.07 0
0.07 0.07 0
0.08 0.07 0
0.09 0.07 0
0.1 0.07 0
0.11 0.07 0
0.12 0.07 0
0.13 0.07 0
0.14 0.07 0
0.15 0.07 0
0.16 0.07 0
0.17 0.07 0
0.18 0.07 0
0.19 0.07 0
0.2 0.07 0
0.21 0.07 0
0.22 0.07 0
0.23 0.07 0
0.24 0.07 0
0.25 0.07 0
0.26 0.07 0
0.27 0.07 0
0.28 0.07 0
0.29 0.07 0
0.3 0.07 0
0.31 0.07 0
0.32 0.07 0
0.33 0.07 0
0.34 0.07 0
0.35 0.07 0
0.36 0.07 0
0.37 0.07 0
0.38 0.07 0
0.39 0.07 0
0.4 0.07 0
0.41 0.07 0
0.42 0.07 0
0.43 0.07 0
0.44 0.07 0
0.45 0.07 0
0.46 0.07 0
0.47 0.07 0
0.48 0.07 0
0.49 0.07 0
0.5 0.07 0
0.51 0.07 0
0.52 0.07 0
0.53 0.07 0
0.54 0.07 0
0.55 0.07 0
0.56 0.07 0
0.57 0.07 0
0.58 0.07 0
0.59 0.07 0
0.6 0.07 0
0.61 0.07 0
0 0.08 0
0.01 0.08 0
0.02 0.08 0
0.03 0.08 0
0.04 0.08 0
0.05 0.08 0
0.06 0.08 0
0.07 0.08 0
0.08 0.08 0
0.09 0.08 0
0.1 0.08 0
0.11 0.08 0
0.12 0.08 0
0.13 0.08 0
0.14 0.08 0
0.15 0.08 0
0.16 0.08 0
0.17 0.08 0
0.18 0.08 0
0.19 0.08 0
0.2 0.08 0
0.21 0.08 0
0.22 0.08 0
0.23 0.08 0
0.24 0.08 0
0.25 0.08 0
0.26 0.08 0
0.27 0.08 0
0.28 0.08 0
0.29 0.08 0
0.3 0.08 0
0.31 0.08 0
0.32 0.08 0
0.33 0.08 0
0.34 0.08 0
0.35 0.08 0
0.36 0.08 0
0.37 0.08 0
0.38 0.08 0
0.39 0.08 0
0.4 0.08 0
0.41 0.08 0
0.42 0.08 0
0.43 0.08 0
0.44 0.08 0
0.45 0.08 0
0.46 0.08 0
0.47 0.08 0
0.48 0.08 0
0.49 0.08 0
0.5 0.08 0
0.51 0.08 0
0.52 0.08 0
0.53 0.08 0
0.54 0.08 0
0.55 0.08 0
0.56 0.08 0
0.57 0.08 0
0.58 0.08 0
0.59 0.08 0
0.6 0.08 0
0.61 0.08 0
0 0.09 0
0.01 0.09 0
0.02 0.09 0
0.03 0.09 0
0.04 0.09 0
0.05 0.09 0
0.06 0.09 0
0.07 0.09 0
0.08 0.09 0
0.09 0.09 0
0.1 0.09 0
0.11 0.09 0
0.12 0.09 0
0.13 0.09 0
0.14 0.09 0
0.15 0.09 0
0.16 0.09 0
0.17 0.09 0
0.18 0.09 0
0.19 0.09 0
0.2 0.09 0
0.21 0.09 0
0.22 0.09 0
0.23 0.09 0
0.24 0.09 0
0.25 0.09 0
0.26 0.09 0
0.27 0.09 0
0.28 0.09 0
0.29 0.09 0
0.3 0.09 0
0.31 0.09 0
0.32 0.09 0
0.33 0.09 0
0.34 0.09 0
0.35 0.09 0
0.36 0.09 0
0.37 0.09 0
0.38 0.09 0
0.39 0.09 0
0.4 0.09 0
0.41 0.09 0
0.42 0.09 0
0.43 0.09 0
0.44 0.09 0
0.45 0.09 0
0.46 0.09 0
0.47 0.09 0
0.48 0.09 0
0.49 0.09 0
0.5 0.09 0
0.51 0.09 0
0.52 0.09 0
0.53 0.09 0
0.54 0.09 0
0.55 0.09 0
0.56 0.09 0
0.57 0.09 0
0.58 0.09 0
0.59 0.09 0
0.6 0.09 0
0.61 0.09 0
0 0.1 0
0.01 0.1 0
0.02 0.1 0
0.03 0.1 0
0.04 0.1 0
0.05 0.1 0
0.06 0.1 0
0.07 0.1 0
0.08 0.1 0
0.09 0.1 0
0.1 0.1 0
0.11 0.1 0
0.12 0.1 0
0.13 0.1 0
0.14 0.1 0
0.15 0.1 0
0.16 0.1 0
0.17 0.1 0
0.18 0.1 0
0.19 0.1 0
0.2 0.1 0
0.21 0.1 0
0.22 0.1 0
0.23 0.1 0
0.24 0.1 0
0.25 0.1 0
0.26 0.1 0
0.27 0.1 0
0.28 0.1 0
0.29 0.1 0
0.3 0.1 0
0.31 0.1 0
0.32 0.1 0
0.33 0.1 0
0.34 0.1 0
0.35 0.1 0
0.36 0.1 0
0.37 0.1 0
0.38 0.1 0
0.39 0.1 0
0.4 0.1 0
0.41 0.1 0
0.42 0.1 0
0.43 0.1 0
0.44 0.1 0
0.45 0.1 0
0.46 0.1 0
0.47 0.1 0
0.48 0.1 0
0.49 0.1 0
0.5 0.1 0
0.51 0.1 0
0.52 0.1 0
0.53 0.1 0
0.54 0.1 0
0.55 0.1 0
0.56 0.1 0
0.57 0.1 0
0.58 0.1 0
0.59 0.1 0
0.6 0.1 0
0.61 0.1 0
0 0.11 0
0.01 0.11 0
0.02 0.11 0
0.03 0.11 0
0.04 0.11 0
0.05 0.11 0
0.06 0.11 0
0.07 0.11 0
0.08 0.11 0
0.09 0.11 0
0.1 0.11 0
0.11 0.11 0
0.12 0.11 0
0.13 0.11 0
0.14 0.11 0
0.15 0.11 0
0.16 0.11 0
0.17 0.11 0
0.18 0.11 0
0.19 0.11 0
0.2 0.11 0
0.21 0.11 0
0.22 0.11 0
0.23 0.11 0
0.24 0.11 0
0.25 0.11 0
0.26 0.11 0
0.27 0.11 0
0.28 0.11 0
0.29 0.11 0
0.3 0.11 0
0.31 0.11 0
0.32 0.11 0
0.33 0.11 0
0.34 0.11 0
0.35 0.11 0
0.36 0.11 0
0.37 0.11 0
0.38 0.11 0
0.39 0.11 0
0.4 0.11 0
0.41 0.11 0
0.42 0.11 0
0.43 0.11 0
0.44 0.11 0
0.45 0.11 0
0.46 0.11 0
0.47 0.11 0
0.48 0.11 0
0.49 0.11 0
0.5 0.11 0
0.51 0.11 0
0.52 0.11 0
0.53 0.11 0
0.54 0.11 0
0.55 0.11 0
0.56 0.11 0
0.57 0.11 0
0.58 0.11 0
0.59 0.11 0
0.6 0.11 0
0.61 0.11 0
0 0.12 0
0.01 0.12 0
0.02 0.12 0
0.03 0.12 0
0.04 0.12 0
0.05 0.12 0
0.06 0.12 0
0.07 0.12 0
0.08 0.12 0
0.09 0.12 0
0.1 0.12 0
0.11 0.12 0
0.12 0.12 0
0.13 0.12 0
0.14 0.12 0
0.15 0.12 0
0.16 0.12 0
0.17 0.12 0
0.18 0.12 0
0.19 0.12 0
0.2 0.12 0
0.21 0.12 0
0.22 0.12 0
0.23 0.12 0
0.24 0.12 0
0.25 0.12 0
0.26 0.12 0
0.27 0.12 0
0.28 0.12 0
0.29 0.12 0
0.3 0.12 0
0.31 0.12 0
0.32 0.12 0
0.33 0.12 0
0.34 0.12 0
0.35 0.12 0
0.36 0.12 0
0.37 0.12 0
0.38 0.12 0
0.39 0.12 0
0.4 0.12 0
0.41 0.12 0
0.42 0.12 0
0.43 0.12 0
0.44 0.12 0
0.45 0.12 0
0.46 0.12 0
0.47 0.12 0
0.48 0.12 0
0.49 0.12 0
0.5 0.12 0
0.51 0.12 0
0.52 0.12 0
0.53 0.12 0
0.54 0.12 0
0.55 0.12 0
0.56 0.12 0
0.57 0.12 0
0.58 0.12 0
0.59 0.12 0
0.6 0.12 0
0.61 0.12 0
0 0.13 0
0.01 0.13 0
0.02 0.13 0
0.03 0.13 0
0.04 0.13 0
0.05 0.13 0
0.06 0.13 0
0.07 0.13 0
0.08 0.13 0
0.09 0.13 0
0.1 0.13 0
0.11 0.13 0
0.12 0.13 0
0.13 0.13 0
0.14 0.13 0
0.15 0.13 0
0.16 0.13 0
0.17 0.13 0
0.18 0.13 0
0.19 0.13 0
0.2 0.13 0
0.21 0.13 0
0.22 0.13 0
0.23 0.13 0
0.24 0.13 0
0.25 0.13 0
0.26 0.13 0
0.27 0.13 0
0.28 0.13 0
0.29 0.13 0
0.3 0.13 0
0.31 0.13 0
0.32 0.13 0
0.33 0.13 0
0.34 0.13 0
0.35 0.13 0
0.36 0.13 0
0.37 0.13 0
0.38 0.13 0
0.39 0.13 0
0.4 0.13 0
0.41 0.13 0
0.42 0.13 0
0.43 0.13 0
0.44 0.13 0
0.45 0.13 0
0.46 0.13 0
0.47 0.13 0
0.48 0.13 0
[...]
POINT_DATA 93248

SCALARS u double
LOOKUP_TABLE default
0
0
0
0
0
0
0
0
0
0
0
0
0
0
0
0
0
0
0
0
0
0
0
0
0.295887
0
0
0
0
0
0
0
0.0288604
0.224298
0
0
0
0
0
0
0
0
0
0
0
0
0
0.0719151
0
0
0.0689303
0
0
0
0
0
0
0
0
0
0
0
0
0.412582
0.330485
0.251918
0.187475
0.1397
0.104839
0.0803326
0.0638295
0.0527172
0.0452961
0.0410403
0.0410489
0.0409228
0.0407544
0.0404768
0.0402842
0.0394697
0.0380714
0.0352146
0.0393829
0.0395537
0.036064
0.0346783
0.0335173
0.0323694
0.0312263
0.0300725
0.0288759
0.0275867
0.0261465
0.0247017
0.0245175
0.0230896
0.0208891
0.0190619
0.0189641
0.0163904
0.0135432
0.156189
0.00729572
0.0100863
0.0111099
0.012928
0.0178057
-0.0083628
0.00180242
0.00185323
0.00148619
-0.000277825
-0.00210083
0.0169443
-0.00326171
0.001743
-0.0232983
-0.0198489
-0.00513292
-0.0183594
-0.0226287
-0.030094
-0.030094
0
0
0.486583
0.466067
0.436315
0.398328
0.361388
0.320396
0.282131
0.249037
0.222965
0.203499
0.189503
0.183375
0.177279
0.172713
0.168827
0.165714
0.162093
0.16019
0.329743
0.158022
0.153253
0.140923
0.137941
0.133947
0.129775
0.125568
0.121335
0.117051
0.112676
0.108118
0.103213
0.100572
0.095898
0.0908642
0.0866751
0.0801881
0.0738103
-0.0179396
0.0653129
0.0615702
0.0574707
0.0549706
0.0531473
0.049838
0.036453
0.0292988
0.0269004
0.0232025
0.0193203
0.0159957
0.00964564
0.00634017
0.00131269
-0.0141794
-0.0195113
-0.0265804
-0.0300697
-0.0382235
-0.0474978
-0.0474978
0
0
0.480699
0.47634
0.471376
0.455889
0.451124
0.424741
0.399432
0.375363
0.353109
0.36094
0.31811
0.300756
0.289287
0.280126
0.272821
0.266601
0.25894
0.252953
0.245943
0.237905
0.232968
0.225227
0.21898
0.212741
0.206369
0.199895
0.193353
0.186766
0.18018
0.173745
0.16776
0.159549
0.153562
0.208716
0.141426
0.133136
0.126586
0.122471
0.115537
0.107683
0.100064
0.128359
0.0868983
0.0795593
0.121599
0.0592078
0.0508644
0.0232025
0.037529
0.0315737
0.0242944
0.0169443
0.00806881
-0.00354028
-0.012618
-0.021405
-0.0326502
-0.0413165
-0.0502702
-0.0502702
0
0
0.473587
0.464538
0.468319
0.46246
0.458953
0.449635
0.437934
0.425001
0.411444
0.39726
0.383489
0.368739
0.355518
0.343801
0.333389
0.32331
0.316215
0.307887
0.327495
0.289836
0.281484
0.2733
0.26555
0.257913
0.250236
0.242479
0.234651
0.226776
0.218884
0.211005
0.203041
0.194251
0.186337
0.177972
0.170628
0.163042
0.155959
0.150143
0.142019
0.132981
0.123469
0.113787
0.105027
0.0957867
0.0853352
0.0748888
0.0661523
0.0582553
0.0499683
0.0417171
0.0330619
0.0239729
0.0140562
0.00340172
-0.00690509
-0.0172247
-0.0282823
-0.0382948
-0.0481358
-0.0481358
0
0
0.470961
0.459176
0.454196
0.450027
0.447095
0.442824
0.437399
0.431018
0.423393
0.414527
0.40462
0.393537
0.382039
0.370548
0.360212
0.350014
0.340811
0.331647
0.321769
0.312406
0.303521
0.294916
0.286528
0.278234
0.269946
0.261605
0.253211
0.244772
0.236277
0.227678
0.218819
0.209567
0.201715
0.193057
0.184713
0.176617
0.168809
0.161179
0.152604
0.143287
0.133444
0.123324
0.113476
0.103646
0.0940622
0.0895929
0.0737506
0.0649822
0.0559167
0.0467243
0.0373502
0.0276998
0.0176461
0.00732735
-0.00298995
-0.0132269
-0.0232745
-0.0327172
-0.0430028
-0.0430028
0
0
0.469796
0.455128
0.445273
0.438224
0.433139
0.428544
0.424387
0.420431
0.415561
0.409815
0.403115
0.395308
0.386407
0.376814
0.367207
0.358157
0.348206
0.339623
0.329506
0.320138
0.311225
0.302562
0.294026
0.285544
0.277074
0.268535
0.259964
0.251359
0.242691
0.233892
0.224782
0.214941
0.208134
0.198947
0.190044
0.181479
0.173092
0.164621
0.155717
0.146353
0.136601
0.126573
0.116417
0.105953
0.0951024
0.0875882
0.0778232
0.0681114
0.058495
0.0489142
0.0393167
0.0296163
0.0196834
0.00966805
-0.000252731
-0.00988009
-0.0186313
-0.0246254
-0.0258227
-0.0258227
0
0
0.469174
0.452673
0.439933
0.430129
0.422753
0.453601
0.412651
0.407429
0.403001
0.398711
0.394042
0.388785
0.382048
0.374078
0.365372
0.357505
0.347782
0.338648
0.329743
0.321098
0.312696
0.304325
0.295924
0.287487
0.279037
0.270477
0.261929
0.253368
0.244765
0.236118
0.227613
0.219768
0.208313
0.199576
0.191083
0.182589
0.174007
0.165238
0.156189
0.146846
0.137249
0.12918
0.1174
0.1072
0.097154
0.0883819
0.0789557
0.069272
0.0595555
0.0498818
0.0402901
0.0307475
0.0209629
0.0112371
0.0017077
-0.00770537
-0.0175378
-0.0282781
-0.0162107
-0.0162107
0
0
0.468796
0.451152
0.436634
0.424777
0.41512
0.40701
0.40096
0.395846
0.391667
0.387996
0.38432
0.381485
0.37597
0.368871
0.359485
0.165714
0.340809
0.334475
0.327495
0.319937
0.312245
0.30421
0.29596
0.287565
0.269946
0.2706
0.262264
0.253864
0.245408
0.23685
0.228236
0.219561
0.209624
0.200397
0.191567
0.182841
0.174067
0.165146
0.156032
0.146716
0.13721
0.127524
0.11774
0.107897
0.098184
0.0888271
0.0793542
0.0697269
0.060021
0.0503182
0.0407431
0.0314793
0.0217583
0.0123294
0.00328026
-0.00538747
-0.0138149
-0.0241887
-0.0264621
-0.0264621
0
0
0.46855
0.450164
0.434499
0.421265
0.410136
0.40081
0.393459
0.387733
0.383328
0.379585
0.375092
0.377608
0.371067
0.364762
0.357986
0.352639
0.344758
0.336268
0.328039
0.319784
0.312071
0.303861
0.295559
0.287215
0.279092
0.270666
0.262289
0.253984
0.245715
0.23728
0.228378
0.219329
0.210016
0.200865
0.191887
0.182977
0.174045
0.165022
0.155871
0.146583
0.13716
0.127617
0.117998
0.108347
0.0987423
0.0892175
0.0796666
0.0700319
0.0603002
0.0504759
0.0406022
0.0317608
0.0220222
0.0129912
0.00429067
-0.0042335
-0.0128304
-0.0220667
-0.0301515
-0.0301515
0
0
0.468384
0.449501
0.433066
0.418936
0.406863
0.396731
0.388583
0.382316
0.377661
0.37408
0.370963
0.369571
0.365721
0.360869
0.355238
0.349791
0.342972
0.335357
0.327509
0.319748
0.3112
0.303036
0.294816
0.286437
0.278756
0.270291
0.262011
0.253905
0.246023
0.251288
0.228563
0.219225
0.210126
0.201101
0.192111
0.184253
0.17409
0.164999
0.155829
0.146567
0.137211
0.127773
0.118259
0.108704
0.0991463
0.0895929
0.080018
0.0703829
0.0606411
0.0507229
0.0403997
-0.00534214
0.0217527
0.013558
0.00509431
-0.00344893
-0.0121471
-0.0212264
-0.0307143
-0.0307143
0
0
0.468273
0.449057
0.432082
0.417387
0.404659
0.393943
0.385271
0.378613
0.373736
0.370165
0.367314
0.364815
0.361525
0.357524
0.352027
0.346391
0.340129
0.333238
0.32593
0.31495
0.310304
0.302274
0.294132
0.285901
0.277825
0.269581
0.261447
0.253521
0.24579
0.238173
0.227652
0.219025
0.210285
0.201357
0.192333
0.183273
0.175776
0.165081
0.155903
0.146663
0.137355
0.128006
0.118552
0.109045
0.0995162
0.0899803
0.0804352
0.0708622
0.06125
0.0517416
0.0425497
0.0340112
0.0242896
0.0150434
0.00613081
-0.00264132
-0.0114734
-0.0206089
-0.0303767
-0.0303767
0
0
0.468202
0.448784
0.431568
0.416264
0.403089
0.391963
0.382933
0.375983
0.370896
0.367215
0.364269
0.361443
0.358234
0.35483
0.348777
0.343481
0.337616
0.331155
0.324323
0.317148
0.309489
0.301563
0.293447
0.285204
0.276921
0.268634
0.260556
0.2528
0.245108
0.235867
0.229457
0.220458
0.211157
0.201872
0.192637
0.183449
0.174302
0.165198
0.15606
0.146838
0.137542
0.128359
0.118908
0.109405
0.0998916
0.0903876
0.0809059
0.0714334
0.0619152
0.0526659
0.0437386
0.0349893
0.0256163
0.0162724
0.00715706
-0.00178813
-0.0107515
-0.0199681
-0.0298251
-0.0298251
0
0
0.468152
0.44858
0.431095
0.415489
0.401999
0.390572
0.381266
0.374079
0.368786
0.364959
0.361831
0.35876
0.35517
0.350385
0.347188
0.341936
0.33594
0.329442
0.322939
0.316002
0.308563
0.300745
0.292648
0.284333
0.275853
0.267323
0.25911
0.251654
0.246119
0.237863
0.229752
0.220824
0.21154
0.202169
0.192821
0.183554
0.174375
0.165344
0.15629
0.147072
0.137551
0.129064
0.119353
0.109793
0.100274
0.090793
0.0813805
0.0720266
0.0624438
0.0533188
0.044398
0.0354663
0.0262913
0.0170988
0.00801898
-0.000948419
-0.0100171
-0.0192801
-0.0291994
-0.0291994
0
0
0.468117
0.448443
0.430857
0.414796
0.401195
0.389571
0.380062
0.372694
0.367268
0.363204
0.359918
0.356713
0.353102
0.348864
0.344798
0.339831
0.334045
0.327542
0.321738
0.315015
0.30764
0.299857
0.291752
0.283336
0.274564
0.265401
0.256131
0.247407
0.250716
0.241466
0.231453
0.221643
0.211966
0.202367
0.192867
0.183555
0.174277
0.16548
0.156659
0.147574
0.138276
0.12918
0.119708
0.110174
0.100641
0.0911493
0.0817565
0.0725585
0.062787
0.0538633
0.044952
0.0359618
0.0267448
0.0176949
0.00873968
-4.849e-05
-0.00937199
-0.0185248
-0.0284731
-0.0284731
0
0
0.468093
0.448303
0.430501
0.414555
0.400691
0.388876
0.379197
0.371672
0.366085
0.361905
0.358478
0.355176
0.351581
0.347539
0.343161
0.338196
0.332514
0.325714
0.321028
0.31405
0.306603
0.298859
0.290806
0.282349
0.273277
0.262977
0.249396
0.226423
0.273287
0.248386
0.234064
0.222749
0.212399
0.202429
0.192672
0.183158
0.174009
0.165549
0.157285
0.148389
0.139088
0.129676
0.12015
0.11058
0.100992
0.0914202
0.0818368
0.0722278
0.0636729
0.0546238
0.0456126
0.0367512
0.0269493
0.0181766
0.00928165
0.000545691
-0.00840392
-0.0175328
-0.0274839
-0.0274839
0
0
0.468107
0.448198
0.430292
0.414337
0.400368
0.388411
0.378588
0.370933
0.365224
0.36094
0.357391
0.353997
0.350384
0.346388
0.341972
0.337111
0.331947
0.327076
0.318792
0.312064
0.305116
0.297753
0.289947
0.281666
0.272781
0.263035
0.25224
0.242737
0.251799
0.243659
0.23304
0.222447
0.212141
0.202048
0.192063
0.182246
0.172937
0.165003
0.158614
0.149909
0.140309
0.130539
0.120785
0.111079
0.101377
0.0917441
0.0821449
0.0726414
0.0636612
0.05502
0.0460667
0.0369967
0.0277254
0.0188479
0.0095903
0.00112368
-0.0074011
-0.016152
-0.0258679
-0.0258679
0
0
0.468196
0.448097
0.43019
0.414239
0.400239
0.388109
0.378157
0.370408
0.364624
0.360274
0.35658
0.353069
0.349415
0.345441
0.341041
0.336204
0.331003
0.325472
0.318524
0.311597
0.304542
0.297205
0.289522
0.28146
0.273005
0.264219
0.255482
0.248472
0.245643
0.23913
0.230483
0.22097
0.211151
0.201196
0.191001
0.180549
0.169984
0.16108
0.163158
0.153292
0.14237
0.1318
0.121599
0.111658
0.101791
0.0921122
0.0824891
0.0729022
0.063554
0.0554537
0.0464229
0.0372791
0.0283856
0.0203213
0.00885852
0.0014462
-0.00638913
-0.0141613
-0.0227429
-0.0227429
0
0
0.467906
0.448279
0.430309
0.414357
0.400407
0.382933
0.377749
0.369999
0.364224
0.359906
0.355964
0.352298
0.34861
0.344696
0.340315
0.335437
0.330113
0.324388
0.318012
0.311284
0.30428
0.296996
0.289422
0.281572
0.27351
0.26543
0.268261
0.250142
0.244302
0.237052
0.228625
0.219527
0.210025
0.200217
0.189821
0.178409
0.16399
0.138863
0.185534
0.160068
0.145019
0.13311
0.122339
0.112086
0.102252
0.0925175
0.0828969
0.0732666
0.0634227
0.0559823
0.0464672
0.0372646
0.0283818
0.0196241
0.00984811
-0.0121471
-0.00564535
-0.0118367
-0.0157394
0
0
0
0.467994
0.447503
0.430139
0.414347
0.400545
0.387823
0.377576
0.369736
0.363997
0.359909
0.355388
0.351585
0.347929
0.344168
0.339783
0.334809
0.329357
0.323701
0.317569
0.311013
0.304116
0.296925
0.289466
0.28178
0.273948
0.266099
0.258239
0.250055
0.244208
0.236026
0.227377
0.218398
0.209083
0.193725
0.189312
0.178584
0.166874
0.156294
0.16492
0.146583
0.144215
0.133149
0.122539
0.112333
0.102469
0.0928167
0.0833967
0.0743287
0.0657058
0.0542509
0.0454951
0.0368193
0.0281208
0.0194192
0.0106975
0.00259089
-0.0055346
-0.0135141
-0.0224322
-0.0224322
0
0
0.468027
0.448111
0.429919
0.414367
0.400816
0.387353
0.377294
0.369519
0.363824
0.360193
0.354611
0.351087
0.347455
0.343895
0.3394
0.334294
0.328668
0.323328
0.317333
0.310852
0.304032
0.296928
0.289565
0.281978
0.274242
0.266588
0.259734
0.252769
0.242721
0.234515
0.226179
0.217567
0.208716
0.199667
0.190089
0.180252
0.170652
0.162801
0.158977
0.151679
0.142256
0.132226
0.122126
0.112197
0.102468
0.0929101
0.0835418
0.0743582
0.0651226
0.0549124
0.0455967
0.0366881
0.0279395
0.0192853
0.0106885
0.00224169
-0.00638865
-0.0154324
-0.025488
-0.025488
0
0
0.468047
0.448187
0.430389
0.41365
0.398654
0.387772
0.377721
0.369642
0.363299
0.357595
0.355782
0.352022
0.347483
0.336901
0.339171
0.334093
0.328249
0.323464
0.317302
0.310789
0.304024
0.297009
0.289712
0.282149
0.274271
0.265646
0.261305
0.252605
0.243343
0.234556
0.225912
0.217274
0.208675
0.200037
0.191003
0.18184
0.172971
0.16492
0.157575
0.149533
0.140625
0.131204
0.121431
0.111812
0.10228
0.0928102
0.083449
0.0741577
0.0647937
0.0551704
0.0457424
0.0366311
0.0277568
0.0190559
0.0103132
0.00160444
-0.00732711
-0.0167783
-0.0269987
-0.0269987
0
0
0.468043
0.448152
0.430165
0.413733
0.399184
0.387402
0.37748
0.369503
0.36331
0.358542
0.355476
0.352023
0.363643
0.345558
0.340513
0.335167
0.330053
0.323071
0.316955
0.310674
0.304106
0.297228
0.289976
0.282459
0.274736
0.266925
0.260247
0.252139
0.243463
0.234666
0.225844
0.217086
0.208677
0.200788
0.192057
0.183151
0.174307
0.165745
0.157298
0.148667
0.139751
0.130711
0.120533
0.111305
0.101955
0.0925663
0.0832443
0.0739594
0.0646516
0.0551964
0.0456557
0.0364296
0.0274223
0.0186361
0.00979139
0.00102056
-0.00804166
-0.0177336
-0.0279527
-0.0279527
0
0
0.468038
0.448127
0.430095
0.413864
0.399582
0.387504
0.377434
0.369489
0.363519
0.359563
0.356084
0.353036
0.350739
0.344425
0.339905
0.335099
0.329831
0.323699
0.317495
0.311141
0.304578
0.297762
0.290402
0.282878
0.275268
0.267622
0.260039
0.251935
0.243431
0.234644
0.225617
0.21644
0.207711
0.202637
0.193497
0.184548
0.175306
0.16627
0.157324
0.148345
0.139253
0.129989
0.120335
0.11089
0.0947357
0.09218
0.0829628
0.0737433
0.0645532
0.0551305
0.0425375
0.0360411
0.0268721
0.00267265
0.00917527
0.000622536
-0.00844354
-0.0185345
-0.0287264
-0.0287264
0
0
0.468038
0.448131
0.430124
0.414014
0.39989
0.387833
0.377443
0.369465
0.362873
0.361481
0.357052
0.353559
0.350262
0.345478
0.340735
0.335748
0.330006
0.324214
0.318129
0.311791
0.30526
0.298581
0.290866
0.283327
0.275804
0.268159
0.260331
0.251359
0.243553
0.234685
0.225293
0.214873
0.200805
0.210359
0.195079
0.18665
0.176256
0.166699
0.157431
0.14824
0.138998
0.129568
0.12007
0.110666
0.101352
0.0919857
0.0826788
0.0734389
0.0643622
0.0551079
0.0446277
0.0357993
0.027016
0.018354
0.00935864
0.000583989
-0.00843089
-0.0193335
-0.0293531
-0.0293531
0
0
0.468041
0.448148
0.430182
0.414169
0.400228
0.388666
0.376914
0.369706
0.36394
0.360482
0.356938
0.353646
0.350152
0.346038
0.341622
0.337226
0.329883
0.324712
0.318794
0.312473
0.305938
0.29951
0.291178
0.28393
0.276513
0.268815
0.26087
0.252413
0.243901
0.235077
0.225618
0.215989
0.206451
0.203766
0.194744
0.185894
0.176289
0.166793
0.157446
0.148193
0.138905
0.129262
0.119754
0.110379
0.101055
0.0917065
0.0823436
0.0729297
0.0534973
0.0550704
0.0438714
0.0358247
0.0269627
0.0180578
0.00904959
0.000249913
-0.00823683
-0.0199973
-0.0294136
-0.0294136
0
0
0.468042
0.448159
0.430221
0.414261
0.40036
0.388611
0.37843
0.370496
0.364647
0.360529
0.357162
0.35398
0.350556
0.346661
0.342336
0.337584
0.331585
0.325796
0.319679
0.313194
0.306289
0.298593
0.292769
0.285348
0.277634
0.269598
0.261278
0.253086
0.244595
0.236166
0.225923
0.217379
0.209034
0.201982
0.193719
0.184965
0.175818
0.166551
0.157294
0.148111
0.138933
0.128905
0.11943
0.110131
0.100827
0.091486
0.082113
0.0726991
0.0631887
0.0531165
0.0466152
0.0362668
0.0268757
0.0176596
0.00836167
-0.00120334
-0.0110911
-0.0173354
-0.0279793
-0.0279793
0
0
0.468036
0.448145
0.430217
0.414297
0.400456
0.388807
0.37945
0.371028
0.365129
0.36103
0.357795
0.354736
0.351391
0.347566
0.343258
0.33849
0.332968
0.327013
0.320706
0.314093
0.307247
0.299821
0.290806
0.285859
0.278311
0.270179
0.261831
0.253483
0.245011
0.236406
0.227224
0.218527
0.210082
0.201819
0.193284
0.184465
0.17542
0.166244
0.157024
0.14787
0.138966
0.128429
0.119285
0.110056
0.100726
0.091353
0.0819651
0.0725636
0.0631417
0.0537983
0.0455831
0.0361513
0.026736
0.0174157
0.00811183
-0.0012152
-0.010415
-0.0184222
-0.0283129
-0.0283129
0
0
0.468015
0.448082
0.430135
0.414258
0.400488
0.388988
0.380379
0.371066
0.365759
0.361982
0.358936
0.355944
0.352622
0.348766
0.344415
0.339804
0.334276
0.328123
0.321659
0.31495
0.308177
0.301076
0.293915
0.286407
0.278736
0.270415
0.262125
0.253824
0.245402
0.236822
0.228055
0.219347
0.210696
0.202024
0.193227
0.184277
0.175185
0.165978
0.156656
0.147137
0.137261
0.129389
0.119848
0.110248
0.100725
0.0912704
0.0818627
0.0724901
0.0631635
0.0539597
0.0450027
0.035791
0.0265071
0.0172605
0.00810349
-0.000840372
-0.0104258
-0.0191438
-0.0289166
-0.0289166
0
0
0.467965
0.447912
0.429942
0.41414
0.40038
0.388536
0.377943
0.372956
0.36779
0.36394
0.360586
0.357513
0.354137
0.350215
0.345493
0.341188
0.33527
0.328855
0.32235
0.315621
0.309124
0.302154
0.294775
0.286821
0.24238
0.270122
0.262409
0.254333
0.245985
0.237435
0.228748
0.219997
0.211196
0.202316
0.193336
0.184253
0.175076
0.165814
0.156466
0.14703
0.137607
0.128833
0.11956
0.110079
0.100583
0.0911328
0.0817397
0.0723971
0.0631032
0.0538739
0.0446985
0.0354919
0.026276
0.0171034
0.00800282
-0.00104122
-0.0102933
-0.019455
-0.0293044
-0.0293044
0
0
0.467874
0.447503
0.434047
0.414071
0.400448
0.388875
0.379386
0.373203
0.368516
0.36492
0.361939
0.359006
0.355756
0.352206
0.345472
0.341499
0.334954
0.331647
0.322826
0.316252
0.310295
0.303248
0.295909
0.28836
0.280825
0.2724
0.263947
0.255471
0.246908
0.238239
0.229474
0.220626
0.211693
0.202652
0.193518
0.184308
0.175039
0.165721
0.156374
0.147031
0.137742
0.128536
0.119185
0.109749
0.100313
0.0909149
0.0815678
0.0722642
0.0629836
0.0537268
0.0444876
0.0352595
0.0260624
0.0169303
0.00784368
-0.00124506
-0.0103899
-0.0196602
-0.0289166
-0.0295269
0
0
0.467908
0.446336
0.428791
0.41363
0.400501
0.389439
0.380607
0.374208
0.369617
0.366256
0.363484
0.360684
0.357382
0.35314
0.346252
0.162093
0.332158
0.328565
0.323805
0.31845
0.311187
0.304248
0.29705
0.289686
0.281667
0.273413
0.265018
0.256488
0.247835
0.239072
0.230216
0.221271
0.212219
0.203017
0.193725
0.184389
0.175024
0.165637
0.15626
0.146945
0.137682
0.128259
0.118763
0.109315
0.0999451
0.090621
0.0813502
0.0721112
0.0628487
0.0535799
0.0443161
0.0350638
0.0258598
0.0167596
0.0076694
-0.00144941
-0.0106353
-0.0246254
-0.0298538
-0.0298538
0
0
0.469545
0.443291
0.428084
0.413655
0.400984
0.390323
0.381905
0.375736
0.371308
0.368129
0.365533
0.362866
0.35967
0.355725
0.351068
0.347958
0.341243
0.334443
0.327784
0.321048
0.313679
0.306218
0.298674
0.291192
0.282506
0.274369
0.266021
0.257464
0.248739
0.239895
0.230959
0.221939
0.212795
0.203392
0.193922
0.184461
0.174997
0.165508
0.156024
0.146666
0.13743
0.127741
0.118081
0.108666
0.0994399
0.0902379
0.0810973
0.0719802
0.0627453
0.0534743
0.0441967
0.0349082
0.0256669
0.0166122
0.00420644
-0.00162573
-0.0107067
-0.0199907
-0.0321774
-0.0299933
0
0
0.468129
0.446678
0.429441
0.414683
0.402091
0.391629
0.383473
0.377908
0.373648
0.370633
0.368192
0.365651
0.362566
0.358848
0.354546
0.350223
0.344371
0.337761
0.330798
0.323573
0.316022
0.308226
0.300167
0.291662
0.284292
0.275896
0.267272
0.258521
0.249654
0.240706
0.231695
0.222636
0.213461
0.20373
0.194075
0.184522
0.174972
0.165343
0.155546
0.145988
0.136789
0.126596
0.116847
0.107643
0.0987483
0.0897465
0.0808273
0.0719472
0.0627536
0.0534973
0.0442128
0.0348619
0.0255268
0.0166692
0.00750076
-0.00171081
-0.0108475
-0.0201207
-0.0299475
-0.0299475
0
0
0.468031
0.448051
0.43081
0.416032
0.400239
0.393172
0.384683
0.381278
0.376689
0.373768
0.37148
0.369034
0.365916
0.346388
0.357501
0.352622
0.346804
0.340276
0.333262
0.325892
0.31822
0.310201
0.301924
0.293489
0.285359
0.276924
0.268261
0.259438
0.250481
0.241464
0.232386
0.223325
0.214257
0.203928
0.194186
0.184643
0.175042
0.16537
0.154611
0.144515
0.134911
0.124197
0.114861
0.10617
0.0978506
0.0891775
0.0805799
0.0721172
0.0630632
0.0538758
0.0445671
0.0351026
0.025484
0.0167164
0.00727142
-0.00197489
-0.0111105
-0.0203739
-0.03017
-0.03017
0
0
0.468166
0.448776
0.431909
0.417505
0.405486
0.39567
0.388073
0.383499
0.379911
0.377416
0.375403
0.373095
0.370077
0.366322
0.361511
0.355954
0.349729
0.342949
0.335744
0.328215
0.320435
0.312142
0.303648
0.295109
0.286601
0.277975
0.269214
0.260317
0.251288
0.242159
0.232965
0.223814
0.215023
0.203865
0.194521
0.18502
0.175256
0.165157
0.154252
0.142272
0.0100863
0.120358
0.112705
0.104288
0.0964619
0.0888479
0.0804281
0.0723435
0.0642633
0.0551835
0.0456079
0.0359502
0.0264231
0.0159487
0.00669578
-0.00241508
-0.0114911
-0.0207123
-0.030465
-0.030465
0
0
0.4683
0.449307
0.432923
0.419082
0.407682
0.398589
0.391748
0.3871
0.383972