# vtk DataFile Version 2.0
FlowField
ASCII
DATASET STRUCTURED_GRID
DIMENSIONS 62 47 32 
POINTS 93248 double
0 0 0
0.01 0 0
0.02 0 0
0.03 0 0
0.04 0 0
0.05 0 0
0.06 0 0
0.07 0 0
0.08 0 0
0.09 0 0
0.1 0 0
0.11 0 0
0.12 0 0
0.13 0 0
0.14 0 0
0.15 0 0
0.16 0 0
0.17 0 0
0.18 0 0
0.19 0 0
0.2 0 0
0.21 0 0
0.22 0 0
0.23 0 0
0.24 0 0
0.25 0 0
0.26 0 0
0.27 0 0
0.28 0 0
0.29 0 0
0.3 0 0
0.31 0 0
0.32 0 0
0.33 0 0
0.34 0 0
0.35 0 0
0.36 0 0
0.37 0 0
0.38 0 0
0.39 0 0
0.4 0 0
0.41 0 0
0.42 0 0
0.43 0 0
0.44 0 0
0.45 0 0
0.46 0 0
0.47 0 0
0.48 0 0
0.49 0 0
0.5 0 0
0.51 0 0
0.52 0 0
0.53 0 0
0.54 0 0
0.55 0 0
0.56 0 0
0.57 0 0
0.58 0 0
0.59 0 0
0.6 0 0
0.61 0 0
0 0.01 0
0.01 0.01 0
0.02 0.01 0
0.03 0.01 0
0.04 0.01 0
0.05 0.01 0
0.06 0.01 0
0.07 0.01 0
0.08 0.01 0
0.09 0.01 0
0.1 0.01 0
0.11 0.01 0
0.12 0.01 0
0.13 0.01 0
0.14 0.01 0
0.15 0.01 0
0.16 0.01 0
0.17 0.01 0
0.18 0.01 0
0.19 0.01 0
0.2 0.01 0
0.21 0.01 0
0.22 0.01 0
0.23 0.01 0
0.24 0.01 0
0.25 0.01 0
0.26 0.01 0
0.27 0.01 0
0.28 0.01 0
0.29 0.01 0
0.3 0.01 0
0.31 0.01 0
0.32 0.01 0
0.33 0.01 0
0.34 0.01 0
0.35 0.01 0
0.36 0.01 0
0.37 0.01 0
0.38 0.01 0
0.39 0.01 0
0.4 0.01 0
0.41 0.01 0
0.42 0.01 0
0.43 0.01 0
0.44 0.01 0
0.45 0.01 0
0.46 0.01 0
0.47 0.01 0
0.48 0.01 0
0.49 0.01 0
0.5 0.01 0
0.51 0.01 0
0.52 0.01 0
0.53 0.01 0
0.54 0.01 0
0.55 0.01 0
0.56 0.01 0
0.57 0.01 0
0.58 0.01 0
0.59 0.01 0
0.6 0.01 0
0.61 0.01 0
0 0.02 0
0.01 0.02 0
0.02 0.02 0
0.03 0.02 0
0.04 0.02 0
0.05 0.02 0
0.06 0.02 0
0.07 0.02 0
0.08 0.02 0
0.09 0.02 0
0.1 0.02 0
0.11 0.02 0
0.12 0.02 0
0.13 0.02 0
0.14 0.02 0
0.15 0.02 0
0.16 0.02 0
0.17 0.02 0
0.18 0.02 0
0.19 0.02 0
0.2 0.02 0
0.21 0.02 0
0.22 0.02 0
0.23 0.02 0
0.24 0.02 0
0.25 0.02 0
0.26 0.02 0
0.27 0.02 0
0.28 0.02 0
0.29 0.02 0
0.3 0.02 0
0.31 0.02 0
0.32 0.02 0
0.33 0.02 0
0.34 0.02 0
0.35 0.02 0
0.36 0.02 0
0.37 0.02 0
0.38 0.02 0
0.39 0.02 0
0.4 0.02 0
0.41 0.02 0
0.42 0.02 0
0.43 0.02 0
0.44 0.02 0
0.45 0.02 0
0.46 0.02 0
0.47 0.02 0
0.48 0.02 0
0.49 0.02 0
0.5 0.02 0
0.51 0.02 0
0.52 0.02 0
0.53 0.02 0
0.54 0.02 0
0.55 0.02 0
0.56 0.02 0
0.57 0.02 0
0.58 0.02 0
0.59 0.02 0
0.6 0.02 0
0.61 0.02 0
0 0.03 0
0.01 0.03 0
0.02 0.03 0
0.03 0.03 0
0.04 0.03 0
0.05 0.03 0
0.06 0.03 0
0.07 0.03 0
0.08 0.03 0
0.09 0.03 0
0.1 0.03 0
0.11 0.03 0
0.12 0.03 0
0.13 0.03 0
0.14 0.03 0
0.15 0.03 0
0.16 0.03 0
0.17 0.03 0
0.18 0.03 0
0.19 0.03 0
0.2 0.03 0
0.21 0.03 0
0.22 0.03 0
0.23 0.03 0
0.24 0.03 0
0.25 0.03 0
0.26 0.03 0
0.27 0.03 0
0.28 0.03 0
0.29 0.03 0
0.3 0.03 0
0.31 0.03 0
0.32 0.03 0
0.33 0.03 0
0.34 0.03 0
0.35 0.03 0
0.36 0.03 0
0.37 0.03 0
0.38 0.03 0
0.39 0.03 0
0.4 0.03 0
0.41 0.03 0
0.42 0.03 0
0.43 0.03 0
0.44 0.03 0
0.45 0.03 0
0.46 0.03 0
0.47 0.03 0
0.48 0.03 0
0.49 0.03 0
0.5 0.03 0
0.51 0.03 0
0.52 0.03 0
0.53 0.03 0
0.54 0.03 0
0.55 0.03 0
0.56 0.03 0
0.57 0.03 0
0.58 0.03 0
0.59 0.03 0
0.6 0.03 0
0.61 0.03 0
0 0.04 0
0.01 0.04 0
0.02 0.04 0
0.03 0.04 0
0.04 0.04 0
0.05 0.04 0
0.06 0.04 0
0.07 0.04 0
0.08 0.04 0
0.09 0.04 0
0.1 0.04 0
0.11 0.04 0
0.12 0.04 0
0.13 0.04 0
0.14 0.04 0
0.15 0.04 0
0.16 0.04 0
0.17 0.04 0
0.18 0.04 0
0.19 0.04 0
0.2 0.04 0
0.21 0.04 0
0.22 0.04 0
0.23 0.04 0
0.24 0.04 0
0.25 0.04 0
0.26 0.04 0
0.27 0.04 0
0.28 0.04 0
0.29 0.04 0
0.3 0.04 0
0.31 0.04 0
0.32 0.04 0
0.33 0.04 0
0.34 0.04 0
0.35 0.04 0
0.36 0.04 0
0.37 0.04 0
0.38 0.04 0
0.39 0.04 0
0.4 0.04 0
0.41 0.04 0
0.42 0.04 0
0.43 0.04 0
0.44 0.04 0
0.45 0.04 0
0.46 0.04 0
0.47 0.04 0
0.48 0.04 0
0.49 0.04 0
0.5 0.04 0
0.51 0.04 0
0.52 0.04 0
0.53 0.04 0
0.54 0.04 0
0.55 0.04 0
0.56 0.04 0
0.57 0.04 0
0.58 0.04 0
0.59 0.04 0
0.6 0.04 0
0.61 0.04 0
0 0.05 0
0.01 0.05 0
0.02 0.05 0
0.03 0.05 0
0.04 0.05 0
0.05 0.05 0
0.06 0.05 0
0.07 0.05 0
0.08 0.05 0
0.09 0.05 0
0.1 0.05 0
0.11 0.05 0
0.12 0.05 0
0.13 0.05 0
0.14 0.05 0
0.15 0.05 0
0.16 0.05 0
0.17 0.05 0
0.18 0.05 0
0.19 0.05 0
0.2 0.05 0
0.21 0.05 0
0.22 0.05 0
0.23 0.05 0
0.24 0.05 0
0.25 0.05 0
0.26 0.05 0
0.27 0.05 0
0.28 0.05 0
0.29 0.05 0
0.3 0.05 0
0.31 0.05 0
0.32 0.05 0
0.33 0.05 0
0.34 0.05 0
0.35 0.05 0
0.36 0.05 0
0.37 0.05 0
0.38 0.05 0
0.39 0.05 0
0.4 0.05 0
0.41 0.05 0
0.42 0.05 0
0.43 0.05 0
0.44 0.05 0
0.45 0.05 0
0.46 0.05 0
0.47 0.05 0
0.48 0.05 0
0.49 0.05 0
0.5 0.05 0
0.51 0.05 0
0.52 0.05 0
0.53 0.05 0
0.54 0.05 0
0.55 0.05 0
0.56 0.05 0
0.57 0.05 0
0.58 0.05 0
0.59 0.05 0
0.6 0.05 0
0.61 0.05 0
0 0.06 0
0.01 0.06 0
0.02 0.06 0
0.03 0.06 0
0.04 0.06 0
0.05 0.06 0
0.06 0.06 0
0.07 0.06 0
0.08 0.06 0
0.09 0.06 0
0.1 0.06 0
0.11 0.06 0
0.12 0.06 0
0.13 0.06 0
0.14 0.06 0
0.15 0.06 0
0.16 0.06 0
0.17 0.06 0
0.18 0.06 0
0.19 0.06 0
0.2 0.06 0
0.21 0.06 0
0.22 0.06 0
0.23 0.06 0
0.24 0.06 0
0.25 0.06 0
0.26 0.06 0
0.27 0.06 0
0.28 0.06 0
0.29 0.06 0
0.3 0.06 0
0.31 0.06 0
0.32 0.06 0
0.33 0.06 0
0.34 0.06 0
0.35 0.06 0
0.36 0.06 0
0.37 0.06 0
0.38 0.06 0
0.39 0.06 0
0.4 0.06 0
0.41 0.06 0
0.42 0.06 0
0.43 0.06 0
0.44 0.06 0
0.45 0.06 0
0.46 0.06 0
0.47 0.06 0
0.48 0.06 0
0.49 0.06 0
0.5 0.06 0
0.51 0.06 0
0.52 0.06 0
0.53 0.06 0
0.54 0.06 0
0.55 0.06 0
0.56 0.06 0
0.57 0.06 0
0.58 0.06 0
0.59 0.06 0
0.6 0.06 0
0.61 0.06 0
0 0.07 0
0.01 0.07 0
0.02 0.07 0
0.03 0.07 0
0.04 0.07 0
0.05 0.07 0
0.06 0.07 0
0.07 0.07 0
0.08 0.07 0
0.09 0.07 0
0.1 0.07 0
0.11 0.07 0
0.12 0.07 0
0.13 0.07 0
0.14 0.07 0
0.15 0.07 0
0.16 0.07 0
0.17 0.07 0
0.18 0.07 0
0.19 0.07 0
0.2 0.07 0
0.21 0.07 0
0.22 0.07 0
0.23 0.07 0
0.24 0.07 0
0.25 0.07 0
0.26 0.07 0
0.27 0.07 0
0.28 0.07 0
0.29 0.07 0
0.3 0.07 0
0.31 0.07 0
0.32 0.07 0
0.33 0.07 0
0.34 0.07 0
0.35 0.07 0
0.36 0.07 0
0.37 0.07 0
0.38 0.07 0
0.39 0.07 0
0.4 0.07 0
0.41 0.07 0
0.42 0.07 0
0.43 0.07 0
0.44 0.07 0
0.45 0.07 0
0.46 0.07 0
0.47 0.07 0
0.48 0.07 0
0.49 0.07 0
0.5 0.07 0
0.51 0.07 0
0.52 0.07 0
0.53 0.07 0
0.54 0.07 0
0.55 0.07 0
0.56 0.07 0
0.57 0.07 0
0.58 0.07 0
0.59 0.07 0
0.6 0.07 0
0.61 0.07 0
0 0.08 0
0.01 0.08 0
0.02 0.08 0
0.03 0.08 0
0.04 0.08 0
0.05 0.08 0
0.06 0.08 0
0.07 0.08 0
0.08 0.08 0
0.09 0.08 0
0.1 0.08 0
0.11 0.08 0
0.12 0.08 0
0.13 0.08 0
0.14 0.08 0
0.15 0.08 0
0.16 0.08 0
0.17 0.08 0
0.18 0.08 0
0.19 0.08 0
0.2 0.08 0
0.21 0.08 0
0.22 0.08 0
0.23 0.08 0
0.24 0.08 0
0.25 0.08 0
0.26 0.08 0
0.27 0.08 0
0.28 0.08 0
0.29 0.08 0
0.3 0.08 0
0.31 0.08 0
0.32 0.08 0
0.33 0.08 0
0.34 0.08 0
0.35 0.08 0
0.36 0.08 0
0.37 0.08 0
0.38 0.08 0
0.39 0.08 0
0.4 0.08 0
0.41 0.08 0
0.42 0.08 0
0.43 0.08 0
0.44 0.08 0
0.45 0.08 0
0.46 0.08 0
0.47 0.08 0
0.48 0.08 0
0.49 0.08 0
0.5 0.08 0
0.51 0.08 0
0.52 0.08 0
0.53 0.08 0
0.54 0.08 0
0.55 0.08 0
0.56 0.08 0
0.57 0.08 0
0.58 0.08 0
0.59 0.08 0
0.6 0.08 0
0.61 0.08 0
0 0.09 0
0.01 0.09 0
0.02 0.09 0
0.03 0.09 0
0.04 0.09 0
0.05 0.09 0
0.06 0.09 0
0.07 0.09 0
0.08 0.09 0
0.09 0.09 0
0.1 0.09 0
0.11 0.09 0
0.12 0.09 0
0.13 0.09 0
0.14 0.09 0
0.15 0.09 0
0.16 0.09 0
0.17 0.09 0
0.18 0.09 0
0.19 0.09 0
0.2 0.09 0
0.21 0.09 0
0.22 0.09 0
0.23 0.09 0
0.24 0.09 0
0.25 0.09 0
0.26 0.09 0
0.27 0.09 0
0.28 0.09 0
0.29 0.09 0
0.3 0.09 0
0.31 0.09 0
0.32 0.09 0
0.33 0.09 0
0.34 0.09 0
0.35 0.09 0
0.36 0.09 0
0.37 0.09 0
0.38 0.09 0
0.39 0.09 0
0.4 0.09 0
0.41 0.09 0
0.42 0.09 0
0.43 0.09 0
0.44 0.09 0
0.45 0.09 0
0.46 0.09 0
0.47 0.09 0
0.48 0.09 0
0.49 0.09 0
0.5 0.09 0
0.51 0.09 0
0.52 0.09 0
0.53 0.09 0
0.54 0.09 0
0.55 0.09 0
0.56 0.09 0
0.57 0.09 0
0.58 0.09 0
0.59 0.09 0
0.6 0.09 0
0.61 0.09 0
0 0.1 0
0.01 0.1 0
0.02 0.1 0
0.03 0.1 0
0.04 0.1 0
0.05 0.1 0
0.06 0.1 0
0.07 0.1 0
0.08 0.1 0
0.09 0.1 0
0.1 0.1 0
0.11 0.1 0
0.12 0.1 0
0.13 0.1 0
0.14 0.1 0
0.15 0.1 0
0.16 0.1 0
0.17 0.1 0
0.18 0.1 0
0.19 0.1 0
0.2 0.1 0
0.21 0.1 0
0.22 0.1 0
0.23 0.1 0
0.24 0.1 0
0.25 0.1 0
0.26 0.1 0
0.27 0.1 0
0.28 0.1 0
0.29 0.1 0
0.3 0.1 0
0.31 0.1 0
0.32 0.1 0
0.33 0.1 0
0.34 0.1 0
0.35 0.1 0
0.36 0.1 0
0.37 0.1 0
0.38 0.1 0
0.39 0.1 0
0.4 0.1 0
0.41 0.1 0
0.42 0.1 0
0.43 0.1 0
0.44 0.1 0
0.45 0.1 0
0.46 0.1 0
0.47 0.1 0
0.48 0.1 0
0.49 0.1 0
0.5 0.1 0
0.51 0.1 0
0.52 0.1 0
0.53 0.1 0
0.54 0.1 0
0.55 0.1 0
0.56 0.1 0
0.57 0.1 0
0.58 0.1 0
0.59 0.1 0
0.6 0.1 0
0.61 0.1 0
0 0.11 0
0.01 0.11 0
0.02 0.11 0
0.03 0.11 0
0.04 0.11 0
0.05 0.11 0
0.06 0.11 0
0.07 0.11 0
0.08 0.11 0
0.09 0.11 0
0.1 0.11 0
0.11 0.11 0
0.12 0.11 0
0.13 0.11 0
0.14 0.11 0
0.15 0.11 0
0.16 0.11 0
0.17 0.11 0
0.18 0.11 0
0.19 0.11 0
0.2 0.11 0
0.21 0.11 0
0.22 0.11 0
0.23 0.11 0
0.24 0.11 0
0.25 0.11 0
0.26 0.11 0
0.27 0.11 0
0.28 0.11 0
0.29 0.11 0
0.3 0.11 0
0.31 0.11 0
0.32 0.11 0
0.33 0.11 0
0.34 0.11 0
0.35 0.11 0
0.36 0.11 0
0.37 0.11 0
0.38 0.11 0
0.39 0.11 0
0.4 0.11 0
0.41 0.11 0
0.42 0.11 0
0.43 0.11 0
0.44 0.11 0
0.45 0.11 0
0.46 0.11 0
0.47 0.11 0
0.48 0.11 0
0.49 0.11 0
0.5 0.11 0
0.51 0.11 0
0.52 0.11 0
0.53 0.11 0
0.54 0.11 0
0.55 0.11 0
0.56 0.11 0
0.57 0.11 0
0.58 0.11 0
0.59 0.11 0
0.6 0.11 0
0.61 0.11 0
0 0.12 0
0.01 0.12 0
0.02 0.12 0
0.03 0.12 0
0.04 0.12 0
0.05 0.12 0
0.06 0.12 0
0.07 0.12 0
0.08 0.12 0
0.09 0.12 0
0.1 0.12 0
0.11 0.12 0
0.12 0.12 0
0.13 0.12 0
0.14 0.12 0
0.15 0.12 0
0.16 0.12 0
0.17 0.12 0
0.18 0.12 0
0.19 0.12 0
0.2 0.12 0
0.21 0.12 0
0.22 0.12 0
0.23 0.12 0
0.24 0.12 0
0.25 0.12 0
0.26 0.12 0
0.27 0.12 0
0.28 0.12 0
0.29 0.12 0
0.3 0.12 0
0.31 0.12 0
0.32 0.12 0
0.33 0.12 0
0.34 0.12 0
0.35 0.12 0
0.36 0.12 0
0.37 0.12 0
0.38 0.12 0
0.39 0.12 0
0.4 0.12 0
0.41 0.12 0
0.42 0.12 0
0.43 0.12 0
0.44 0.12 0
0.45 0.12 0
0.46 0.12 0
0.47 0.12 0
0.48 0.12 0
0.49 0.12 0
0.5 0.12 0
0.51 0.12 0
0.52 0.12 0
0.53 0.12 0
0.54 0.12 0
0.55 0.12 0
0.56 0.12 0
0.57 0.12 0
0.58 0.12 0
0.59 0.12 0
0.6 0.12 0
0.61 0.12 0
0 0.13 0
0.01 0.13 0
0.02 0.13 0
0.03 0.13 0
0.04 0.13 0
0.05 0.13 0
0.06 0.13 0
0.07 0.13 0
0.08 0.13 0
0.09 0.13 0
0.1 0.13 0
0.11 0.13 0
0.12 0.13 0
0.13 0.13 0
0.14 0.13 0
0.15 0.13 0
0.16 0.13 0
0.17 0.13 0
0.18 0.13 0
0.19 0.13 0
0.2 0.13 0
0.21 0.13 0
0.22 0.13 0
0.23 0.13 0
0.24 0.13 0
0.25 0.13 0
0.26 0.13 0
0.27 0.13 0
0.28 0.13 0
0.29 0.13 0
0.3 0.13 0
0.31 0.13 0
0.32 0.13 0
0.33 0.13 0
0.34 0.13 0
0.35 0.13 0
0.36 0.13 0
0.37 0.13 0
0.38 0.13 0
0.39 0.13 0
0.4 0.13 0
0.41 0.13 0
0.42 0.13 0
0.43 0.13 0
0.44 0.13 0
0.45 0.13 0
0.46 0.13 0
0.47 0.13 0
0.48 0.13 0
[...]
POINT_DATA 93248

SCALARS u double
LOOKUP_TABLE default
0
0
0
0
0
0
0
0
0
0
0
0
0
0
0
0
0
0
0
0
0
0
0
0
0.286862
0
0
0
0
0
0
0
0.132837
0.215457
0
0
0
0
0
0
0
0
0
0
0
0
0
0.0944381
0
0
0.0783844
0
0
0
0
0
0
0
0
0
0
0
0
0.42594
0.355054
0.300455
0.271364
0.255128
0.243531
0.234816
0.227496
0.220992
0.215021
0.209395
0.204119
0.198994
0.194021
0.189169
0.184412
0.179685
0.175041
0.17043
0.165996
0.161495
0.157046
0.152589
0.148152
0.143732
0.139328
0.134934
0.130548
0.126163
0.121776
0.117381
0.113007
0.108547
0.103978
0.0993738
0.0947058
0.0905715
0.0899664
0.158629
0.077423
0.0733548
0.0693866
0.0653104
0.0611532
0.0563757
0.0525368
0.0482541
0.0439434
0.0396285
0.0353342
0.0524345
0.0267349
0.0224341
0.0177364
0.0134066
0.0254155
0.00457768
-0.000235891
-0.00576813
-0.00576813
0
0
0.500717
0.495913
0.4759
0.454743
0.437005
0.422545
0.409866
0.398587
0.388249
0.378604
0.369281
0.360574
0.35189
0.343447
0.335155
0.327008
0.318815
0.310799
0.322099
0.295107
0.287131
0.27942
0.271553
0.263756
0.255994
0.248252
0.240524
0.232805
0.225092
0.217373
0.209616
0.202014
0.194221
0.186278
0.178213
0.16911
0.156083
-0.1061
0.137373
0.137369
0.131998
0.12506
0.117723
0.110245
0.10252
0.0948762
0.087348
0.0797426
0.0720905
0.0644182
0.0569668
0.0492161
0.0415449
0.0337505
0.0261259
0.0183518
0.0106595
0.00275103
-0.00512211
-0.00512211
0
0
0.496517
0.500245
0.487679
0.471787
0.457731
0.444542
0.432524
0.421381
0.410889
0.391258
0.39146
0.382102
0.373139
0.364292
0.355621
0.347134
0.338276
0.329886
0.321582
0.313054
0.304811
0.296568
0.288313
0.280072
0.271849
0.263643
0.25545
0.247268
0.239094
0.230934
0.222813
0.214536
0.206582
0.2066
0.190138
0.181462
0.173242
0.167953
0.157596
0.148997
0.141083
0.134067
0.125338
0.117638
0.126018
0.101592
0.0930745
0.0797426
0.0767308
0.0686302
0.060562
0.0524345
0.0442988
0.0361426
0.0280307
0.0199419
0.0116186
0.00353344
-0.00454181
-0.00454181
0
0
0.489761
0.489351
0.480567
0.465974
0.453708
0.442365
0.431548
0.421167
0.411208
0.401642
0.39227
0.383089
0.374132
0.365324
0.356647
0.34789
0.339684
0.33115
0.321851
0.31424
0.305909
0.297618
0.289343
0.281084
0.272841
0.264613
0.256397
0.248191
0.239994
0.231804
0.223621
0.215409
0.20725
0.198984
0.190868
0.182784
0.175089
0.168323
0.159123
0.15034
0.142045
0.133919
0.125842
0.117764
0.109517
0.1014
0.0933017
0.0851946
0.0770605
0.0689349
0.0608147
0.0526763
0.0445257
0.0363693
0.0282261
0.0200857
0.0119096
0.00381147
-0.00431096
-0.00431096
0
0
0.486631
0.483219
0.471039
0.459134
0.448783
0.438805
0.428948
0.419222
0.409761
0.400531
0.391437
0.382473
0.373631
0.364833
0.356484
0.347816
0.339389
0.330958
0.322546
0.314166
0.305841
0.297553
0.289287
0.281039
0.272807
0.264588
0.256381
0.248183
0.239992
0.231805
0.223619
0.215425
0.207303
0.199108
0.191006
0.182979
0.175091
0.167319
0.158915
0.150499
0.142219
0.134031
0.125887
0.117768
0.109704
0.101521
0.0932635
0.0851982
0.0770883
0.0689715
0.0608565
0.0527328
0.0445897
0.0364419
0.028303
0.0201741
0.0120538
0.00396103
-0.00428356
-0.00428356
0
0
0.485232
0.479865
0.466301
0.454583
0.444832
0.435582
0.42663
0.417196
0.408222
0.399316
0.390493
0.381731
0.373047
0.364444
0.355954
0.347462
0.339066
0.330703
0.322336
0.314003
0.305704
0.297432
0.289181
0.280947
0.272728
0.264522
0.256326
0.248138
0.239956
0.231776
0.22359
0.21534
0.207412
0.199184
0.191063
0.182995
0.174974
0.166942
0.158738
0.150485
0.142259
0.134067
0.125889
0.117683
0.109376
0.101657
0.0934259
0.0852496
0.0771131
0.0689993
0.0609039
0.0528098
0.0446586
0.0365034
0.0283665
0.0202487
0.0121565
0.00414859
-0.00382421
-0.00382421
0
0
0.484521
0.477885
0.463373
0.451382
0.441657
0.425094
0.42349
0.415647
0.406896
0.398201
0.389545
0.380947
0.372404
0.36391
0.355473
0.347101
0.338759
0.330414
0.322099
0.313805
0.305537
0.297288
0.289055
0.280838
0.272632
0.26444
0.256259
0.248084
0.239913
0.231744
0.223611
0.215554
0.207185
0.199138
0.191047
0.182962
0.174883
0.166785
0.158629
0.150443
0.142256
0.134083
0.125907
0.117731
0.109554
0.101548
0.0934034
0.0852496
0.0771144
0.0690077
0.060955
0.0529587
0.0447385
0.036547
0.0284075
0.020292
0.0121548
0.00413284
-0.0037916
-0.0037916
0
0
0.484113
0.476634
0.461448
0.449182
0.439593
0.430847
0.422431
0.413912
0.405507
0.39705
0.388603
0.380144
0.371735
0.363347
0.354953
0.327008
0.338519
0.330162
0.321851
0.313585
0.305352
0.297126
0.288913
0.280715
0.272807
0.264349
0.256181
0.248024
0.239864
0.231682
0.22356
0.215446
0.20726
0.199138
0.191029
0.182924
0.174818
0.166701
0.15856
0.150404
0.142242
0.134081
0.125923
0.117768
0.109623
0.101518
0.0933806
0.0852306
0.0770793
0.0689526
0.060955
0.0533181
0.0448032
0.0365327
0.0284153
0.0203473
0.0123249
0.00414181
-0.00393713
-0.00393713
0
0
0.483857
0.475806
0.460123
0.447586
0.437937
0.429254
0.420813
0.412531
0.404268
0.395992
0.387724
0.379279
0.371058
0.362793
0.354514
0.346275
0.33805
0.3298
0.321569
0.313336
0.305162
0.296948
0.288754
0.280569
0.2724
0.26424
0.256095
0.247967
0.239848
0.231657
0.223549
0.215408
0.207259
0.199126
0.191003
0.182888
0.174769
0.166646
0.158513
0.150371
0.142225
0.134078
0.125931
0.117787
0.109647
0.101515
0.093369
0.0852005
0.0769918
0.0687216
0.0604824
0.0533974
0.0444619
0.0363296
0.0283483
0.020341
0.0123077
0.00422321
-0.00394699
-0.00394699
0
0
0.483688
0.475233
0.459173
0.446404
0.436631
0.427892
0.419542
0.411343
0.403186
0.395028
0.38686
0.378647
0.370461
0.362268
0.354039
0.345839
0.337657
0.329474
0.321294
0.313136
0.304909
0.296747
0.28858
0.280415
0.272263
0.264116
0.255992
0.247913
0.239953
0.238594
0.223806
0.21545
0.207246
0.199101
0.190968
0.182161
0.174725
0.166603
0.158476
0.150345
0.14221
0.134072
0.125934
0.117796
0.109659
0.101521
0.0933695
0.0851835
0.0768942
0.0682372
0.0581541
-0.0280421
0.0415533
0.0357028
0.0282363
0.020334
0.0123186
0.00425528
-0.00393695
-0.00393695
0
0
0.48357
0.474822
0.458458
0.445529
0.435619
0.426825
0.418488
0.410336
0.402248
0.394171
0.386087
0.377985
0.369885
0.361792
0.35355
0.345402
0.337284
0.32915
0.320998
0.310581
0.30469
0.29655
0.288402
0.280252
0.272105
0.263966
0.255847
0.247767
0.239744
0.231743
0.2233
0.215275
0.207188
0.199066
0.190935
0.182808
0.173953
0.166563
0.158446
0.150323
0.142197
0.134068
0.125936
0.117803
0.10967
0.101534
0.0933909
0.0852298
0.0770335
0.0687949
0.0606674
0.0534183
0.0445127
0.0363856
0.0284089
0.0203985
0.0123542
0.0042825
-0.00392304
-0.00392304
0
0
0.483488
0.474533
0.458002
0.444787
0.434799
0.425962
0.417617
0.409485
0.401438
0.393417
0.385395
0.377363
0.36934
0.361408
0.353
0.344978
0.336922
0.328843
0.320737
0.312628
0.30449
0.296357
0.288221
0.280079
0.271934
0.263789
0.255659
0.24757
0.239547
0.231314
0.223633
0.215411
0.20721
0.199042
0.190899
0.182768
0.174647
0.16653
0.15842
0.150307
0.142189
0.134067
0.125939
0.11781
0.10968
0.101551
0.0934193
0.0852853
0.0771499
0.0690482
0.0610791
0.0533867
0.0449065
0.0366551
0.0285462
0.0204714
0.0123985
0.00431201
-0.00390655
-0.00390655
0
0
0.483424
0.474303
0.45758
0.444272
0.434172
0.425271
0.4169
0.408768
0.400741
0.392759
0.384777
0.376781
0.368749
0.360593
0.35289
0.344772
0.336663
0.32856
0.320479
0.312387
0.304278
0.296163
0.288039
0.279902
0.271749
0.26358
0.255407
0.247297
0.239601
0.231564
0.223551
0.215372
0.207175
0.199003
0.190852
0.182716
0.174596
0.166491
0.158397
0.150298
0.142186
0.134074
0.125946
0.117818
0.109691
0.101566
0.093445
0.0853293
0.0772077
0.069128
0.0610979
0.0531026
0.0449086
0.0367422
0.0286247
0.0205316
0.0124422
0.00434432
-0.00388674
-0.00388674
0
0
0.483375
0.474123
0.457262
0.443846
0.433667
0.424711
0.416308
0.408166
0.400151
0.392181
0.384233
0.376275
0.368296
0.360285
0.352394
0.344388
0.33633
0.328264
0.320238
0.312163
0.304073
0.295974
0.287862
0.279728
0.271561
0.263338
0.255038
0.246664
0.240238
0.231976
0.223644
0.215364
0.207139
0.198953
0.190791
0.182649
0.174526
0.166439
0.158381
0.150306
0.142202
0.134083
0.125955
0.117826
0.109699
0.101577
0.0934635
0.0853733
0.0772152
0.0691508
0.0610878
0.0530214
0.0448915
0.0367736
0.0286725
0.0205863
0.0124828
0.00438203
-0.00386047
-0.00386047
0
0
0.48334
0.473979
0.457011
0.443516
0.433262
0.424259
0.415819
0.407658
0.39964
0.391687
0.383759
0.375833
0.367897
0.359948
0.352013
0.344035
0.336019
0.327939
0.320051
0.311953
0.303877
0.295795
0.287697
0.279571
0.271396
0.263107
0.254486
0.244611
0.24447
0.233038
0.223854
0.215359
0.207087
0.198888
0.190712
0.182553
0.174421
0.166354
0.158389
0.15035
0.142245
0.134111
0.125972
0.117836
0.109706
0.101581
0.0934589
0.0853272
0.0772838
0.0691744
0.0610893
0.0530194
0.0448619
0.0367875
0.0287061
0.0206342
0.01254
0.00443394
-0.00381959
-0.00381959
0
0
0.483326
0.47385
0.456802
0.44324
0.432929
0.423899
0.415417
0.407225
0.399202
0.391258
0.383346
0.375444
0.367537
0.359619
0.351689
0.343738
0.335774
0.327839
0.319681
0.311706
0.303679
0.295626
0.287549
0.279445
0.271302
0.263094
0.254784
0.246455
0.240116
0.231859
0.223493
0.215209
0.20699
0.198807
0.190612
0.182414
0.174232
0.166157
0.158492
0.150486
0.142336
0.13416
0.125995
0.117847
0.10971
0.101583
0.0934636
0.0853501
0.0772617
0.0691754
0.0610837
0.0529933
0.0448889
0.0368054
0.0287315
0.0207016
0.0126014
0.00450695
-0.00374484
-0.00374484
0
0
0.483376
0.473696
0.456622
0.44301
0.432637
0.423569
0.415018
0.40684
0.398818
0.390885
0.382986
0.375101
0.367217
0.359324
0.351405
0.343468
0.335516
0.327553
0.319528
0.311526
0.303511
0.295475
0.287419
0.279341
0.27124
0.263115
0.254983
0.246934
0.239321
0.231348
0.223215
0.215042
0.206875
0.198732
0.1905
0.182227
0.173885
0.165573
0.159126
0.150861
0.1425
0.134224
0.126018
0.117855
0.109707
0.101582
0.0934626
0.0853472
0.0772394
0.0691844
0.0610832
0.0529846
0.0448902
0.0368131
0.0286925
0.0207276
0.0126292
0.00461166
-0.00356574
-0.00356574
0
0
0.48317
0.473801
0.456561
0.442843
0.432341
0.417617
0.414325
0.406358
0.398472
0.390565
0.38267
0.374798
0.366939
0.359078
0.351159
0.343223
0.335282
0.327329
0.31935
0.311362
0.303359
0.295339
0.287302
0.279248
0.27118
0.263101
0.254692
0.247007
0.239128
0.231118
0.223025
0.214889
0.206735
0.198637
0.19036
0.182038
0.173381
0.163228
0.16296
0.151746
0.142704
0.134266
0.12602
0.117842
0.109705
0.101576
0.0934579
0.0853356
0.077168
0.0692426
0.0610832
0.0529751
0.0448745
0.0367484
0.0284928
0.0123186
0.0124382
0.00474497
-0.00286256
0
0
0
0.483226
0.473439
0.456437
0.442742
0.432316
0.423076
0.414462
0.406271
0.398245
0.390315
0.382388
0.374521
0.366693
0.358924
0.350948
0.342994
0.335067
0.327136
0.319182
0.311209
0.30322
0.295215
0.287194
0.279159
0.271113
0.263062
0.255016
0.246917
0.239099
0.230991
0.222893
0.214749
0.206485
0.190197
0.190005
0.182
0.173751
0.165435
0.15909
0.150371
0.142457
0.134184
0.125982
0.117819
0.109682
0.101564
0.0934581
0.0853691
0.077334
0.06906
0.0610278
0.0529562
0.0448764
0.0367944
0.0287223
0.0207483
0.0126367
0.00461361
-0.00357028
-0.00357028
0
0
0.483231
0.473608
0.456298
0.442682
0.432327
0.422793
0.414286
0.406071
0.398048
0.390138
0.382093
0.374238
0.366424
0.358636
0.350738
0.342738
0.334851
0.326967
0.319032
0.311073
0.303096
0.295104
0.287096
0.279074
0.271042
0.263013
0.255036
0.247066
0.238837
0.230855
0.222798
0.214707
0.2066
0.198559
0.190352
0.182193
0.174047
0.166001
0.158372
0.150384
0.142245
0.13408
0.125925
0.117781
0.109647
0.101543
0.0934458
0.0853529
0.0772608
0.0691143
0.061016
0.052945
0.0448769
0.036814
0.0287449
0.0207083
0.0126064
0.00450929
-0.00374588
-0.00374588
0
0
0.483227
0.473585
0.456334
0.442403
0.431777
0.422958
0.414302
0.405998
0.397873
0.389818
0.381977
0.373924
0.365726
0.329543
0.349196
0.342317
0.334617
0.326843
0.318904
0.310954
0.302987
0.295005
0.287007
0.278994
0.27096
0.262863
0.255091
0.246977
0.238856
0.2308
0.222739
0.214665
0.206589
0.198531
0.190399
0.182274
0.174179
0.166144
0.158207
0.150192
0.142108
0.133995
0.125873
0.117742
0.109592
0.101518
0.0934348
0.0853423
0.0772441
0.0691189
0.0609815
0.0529274
0.0448724
0.0368335
0.0287227
0.0206377
0.0125453
0.00443735
-0.00381896
-0.00381896
0
0
0.483218
0.473547
0.456232
0.442378
0.431822
0.422719
0.414143
0.405858
0.397756
0.389713
0.381733
0.373533
0.344289
0.35747
0.35032
0.342433
0.33462
0.326659
0.318773
0.310845
0.302892
0.294919
0.286929
0.278927
0.270911
0.262892
0.254915
0.246866
0.238808
0.230751
0.222689
0.214618
0.206545
0.198483
0.190389
0.182304
0.174225
0.166171
0.158143
0.150097
0.142024
0.133936
0.125841
0.117743
0.109571
0.101536
0.093441
0.085346
0.0772623
0.069152
0.0609704
0.0529328
0.0448385
0.0368149
0.0286562
0.020573
0.0124919
0.00438756
-0.00385836
-0.00385836
0
0
0.483209
0.473519
0.456183
0.442348
0.431809
0.42261
0.414021
0.405764
0.397741
0.389628
0.381668
0.373802
0.366132
0.358253
0.350273
0.342393
0.33452
0.326606
0.318693
0.310764
0.302816
0.294849
0.286861
0.278866
0.270862
0.262849
0.254837
0.246799
0.238758
0.230705
0.222642
0.214568
0.20648
0.198459
0.190375
0.182329
0.174239
0.166166
0.158105
0.150041
0.141968
0.133893
0.125842
0.117902
0.116944
0.101799
0.0934932
0.0853545
0.0773251
0.0693528
0.0685906
0.0531279
0.0446605
0.0283664
0.0283768
0.0204843
0.0124502
0.00435154
-0.00388326
-0.00388326
0
0
0.483203
0.4735
0.456154
0.44232
0.431777
0.422546
0.413938
0.405667
0.397524
0.389075
0.381574
0.373789
0.366048
0.358125
0.350227
0.342342
0.334454
0.326548
0.318631
0.3107
0.302757
0.2948
0.286797
0.278811
0.270817
0.26281
0.254798
0.248138
0.238722
0.230664
0.2226
0.21452
0.2064
0.198581
0.190297
0.18243
0.174257
0.166153
0.158074
0.149999
0.141921
0.133839
0.125758
0.117668
0.109494
0.101468
0.0933685
0.0852673
0.0772502
0.0690899
0.0608798
0.0528801
0.0448017
0.036788
0.0286171
0.0205291
0.0124538
0.00432265
-0.00390181
-0.00390181
0
0
0.483197
0.473487
0.456136
0.442301
0.431757
0.422531
0.413867
0.40563
0.39762
0.389526
0.381587
0.37375
0.365924
0.358057
0.35018
0.342296
0.334408
0.326501
0.318582
0.310651
0.302712
0.294793
0.28671
0.278766
0.270782
0.262774
0.254756
0.246703
0.238673
0.230627
0.222568
0.214499
0.206417
0.198402
0.190327
0.182293
0.174203
0.166121
0.158043
0.149965
0.141884
0.133792
0.125701
0.117597
0.109465
0.101392
0.0932714
0.0850185
0.0690664
0.0688075
0.0607414
0.0528439
0.0447996
0.0367566
0.0286348
0.0205403
0.0125012
0.00425858
-0.00391663
-0.00391663
0
0
0.483193
0.473478
0.456125
0.44229
0.431744
0.422503
0.413888
0.405612
0.397526
0.389512
0.381598
0.373736
0.365886
0.358025
0.350153
0.342272
0.334378
0.326469
0.318547
0.31061
0.302652
0.294646
0.286779
0.278767
0.270778
0.262747
0.254707
0.246686
0.238644
0.230599
0.222538
0.214481
0.206419
0.198367
0.190302
0.18224
0.174167
0.16609
0.158012
0.149936
0.14186
0.133745
0.125659
0.117568
0.109468
0.101381
0.0932885
0.0851969
0.0771746
0.0689569
0.0610026
0.052844
0.044781
0.0367083
0.0286079
0.0204981
0.0123506
0.00439344
-0.0038878
-0.0038878
0
0
0.483188
0.473472
0.456121
0.44229
0.43175
0.422518
0.413923
0.405611
0.397521
0.389507
0.38161
0.373752
0.365892
0.358025
0.350152
0.342269
0.33437
0.326455
0.318529
0.310589
0.302634
0.294662
0.287697
0.278738
0.270816
0.262732
0.254677
0.246647
0.238612
0.23057
0.222519
0.214463
0.206404
0.198343
0.190278
0.182209
0.174136
0.16606
0.157983
0.149911
0.141873
0.133669
0.125624
0.117544
0.109457
0.101372
0.0932887
0.0852151
0.0771607
0.0690332
0.0609599
0.0528579
0.0447721
0.0366866
0.0285931
0.0204949
0.0123965
0.00433212
-0.00389949
-0.00389949
0
0
0.483185
0.473466
0.456119
0.4423
0.431772
0.422557
0.414031
0.405601
0.397586
0.38956
0.381708
0.373815
0.365938
0.358057
0.350177
0.342296
0.334385
0.326456
0.318526
0.310581
0.302625
0.294645
0.286641
0.278631
0.27073
0.262691
0.254611
0.246604
0.238583
0.230547
0.222499
0.214445
0.206385
0.198322
0.190255
0.182184
0.174109
0.166031
0.157948
0.149855
0.141725
0.133758
0.125628
0.11753
0.109441
0.101357
0.0932764
0.0851998
0.0771249
0.0690306
0.0609447
0.0528532
0.0447644
0.0366754
0.0285844
0.0204939
0.0123998
0.00431388
-0.00390876
-0.00390876
0
0
0.483189
0.47346
0.456117
0.442314
0.431803
0.422578
0.413928
0.405869
0.397831
0.39762
0.382177
0.374045
0.366029
0.358114
0.350219
0.342358
0.334427
0.326463
0.318536
0.310581
0.302637
0.294637
0.286566
0.278237
0.247604
0.261755
0.254428
0.246555
0.23856
0.230529
0.222483
0.214429
0.206368
0.198303
0.190234
0.182161
0.174084
0.166004
0.157921
0.149833
0.141742
0.133684
0.125593
0.117503
0.109418
0.101338
0.0932598
0.0851835
0.0771057
0.0690216
0.0609359
0.0528475
0.0447582
0.0366683
0.0285777
0.0204876
0.0123994
0.00430692
-0.00391365
-0.00391365
0
0
0.483232
0.473439
0.457464
0.442367
0.431865
0.422668
0.414089
0.405889
0.397816
0.389756
0.381886
0.37398
0.366081
0.358175
0.350232
0.342413
0.33445
0.330958
0.318584
0.310569
0.302705
0.294673
0.286655
0.278635
0.270748
0.262682
0.254595
0.246583
0.238559
0.230521
0.222472
0.214416
0.206353
0.198286
0.190215
0.18214
0.174061
0.16598
0.157897
0.149812
0.141726
0.133645
0.125557
0.117471
0.109391
0.101315
0.0932418
0.0851695
0.0770951
0.0690159
0.0609321
0.0528445
0.0447547
0.036664
0.0285731
0.020483
0.0123959
0.00430292
-0.00390876
-0.00391643
0
0
0.483369
0.473171
0.455988
0.442329
0.431937
0.422792
0.414243
0.40601
0.397927
0.389904
0.381982
0.374086
0.366178
0.358242
0.35021
0.318815
0.33412
0.3264
0.318596
0.310706
0.302631
0.29469
0.286707
0.27873
0.270784
0.262702
0.254642
0.246603
0.238564
0.230518
0.222465
0.214406
0.206342
0.198271
0.190197
0.18212
0.174039
0.165956
0.157872
0.149788
0.141703
0.13361
0.125518
0.117433
0.109357
0.101288
0.0932233
0.0851587
0.0770914
0.0690172
0.0609349
0.0528464
0.0447546
0.0366625
0.0285703
0.0204791
0.0123917
0.00414859
-0.00391918
-0.00391918
0
0
0.483694
0.470681
0.455292
0.442296
0.432058
0.422966
0.414439
0.406201
0.398118
0.390116
0.382173
0.374251
0.36633
0.358401
0.350467
0.342611
0.334593
0.326636
0.318684
0.310726
0.302723
0.294738
0.28675
0.278781
0.270712
0.262699
0.254659
0.246616
0.238569
0.230518
0.222462
0.214401
0.206333
0.198258
0.190181
0.182101
0.174017
0.16593
0.157843
0.149762
0.141687
0.133573
0.125468
0.117381
0.109311
0.101256
0.0932043
0.0851522
0.0770979
0.0690306
0.0609482
0.0528552
0.0447581
0.0366641
0.0284299
0.0204748
0.0123878
0.00429531
-0.00397503
-0.00392269
0
0
0.483401
0.473268
0.45619
0.442623
0.432303
0.423218
0.414705
0.40645
0.398366
0.390363
0.382402
0.374459
0.366519
0.358573
0.350644
0.342727
0.334745
0.326754
0.318774
0.310789
0.302789
0.294787
0.286775
0.278735
0.270787
0.262727
0.254678
0.246629
0.238576
0.230521
0.222462
0.2144
0.20633
0.198245
0.190164
0.182082
0.173993
0.165899
0.157804
0.149727
0.141716
0.133521
0.125394
0.117303
0.109245
0.101218
0.0931852
0.0851506
0.0771232
0.0690664
0.0609791
0.0528739
0.0447631
0.0366758
0.0285716
0.0204729
0.0123833
0.00429118
-0.0039238
-0.0039238
0
0
0.483259
0.473623
0.456507
0.442937
0.432637
0.423525
0.415036
0.406686
0.398659
0.390656
0.382674
0.374705
0.366743
0.359619
0.350805
0.342845
0.334859
0.326865
0.318867
0.310866
0.302857
0.294842
0.28682
0.278793
0.27078
0.26274
0.254692
0.246641
0.23858
0.230525
0.222465
0.214405
0.206342
0.198223
0.190145
0.182064
0.17397
0.165861
0.15773
0.149618
0.141818
0.133391
0.12526
0.117173
0.109131
0.10118
0.0931676
0.0851461
0.0771901
0.0691474
0.0610405
0.0529075
0.0447529
0.0367097
0.028573
0.020467
0.0123758
0.00428472
-0.0039276
-0.0039276
0
0
0.483234
0.473773
0.456777
0.443277
0.432999
0.423948
0.415447
0.40718
0.399063
0.391014
0.382994
0.374988
0.366988
0.358985
0.350996
0.342997
0.334992
0.326981
0.318968
0.310951
0.30293
0.294901
0.286869
0.278836
0.270802
0.262758
0.254708
0.246654
0.238594
0.230532
0.222469
0.214413
0.206405
0.198151
0.190129
0.182052
0.173952
0.16582
0.157601
0.149032
0.0733548
0.132613
0.125019
0.116949
0.108897
0.101204
0.0931592
0.0850841
0.0773765
0.0693258
0.061154
0.0529803
0.0448504
0.0366387
0.0285487
0.0204519
0.012363
0.00427452
-0.00393293
-0.00393293
0
0
0.483253
0.473929
0.457079
0.443688
0.433479
0.424454
0.415952
0.407682
0.399528
0.391431
0.383364
0.375309
0.367264
0.359228
0.351196
0.343166
0.335136
0.327106
0.319075
0.311043
0.303007
0.29496
0.286918
0.278877
0.270833
0.262782
0.254728
0.246669
0.238606
0.230539
0.222465
0.214377