# vtk DataFile Version 2.0
FlowField
ASCII
DATASET STRUCTURED_GRID
DIMENSIONS 62 47 32 
POINTS 93248 double
0 0 0
0.01 0 0
0.02 0 0
0.03 0 0
0.04 0 0
0.05 0 0
0.06 0 0
0.07 0 0
0.08 0 0
0.09 0 0
0.1 0 0
0.11 0 0
0.12 0 0
0.13 0 0
0.14 0 0
0.15 0 0
0.16 0 0
0.17 0 0
0.18 0 0
0.19 0 0
0.2 0 0
0.21 0 0
0.22 0 0
0.23 0 0
0.24 0 0
0.25 0 0
0.26 0 0
0.27 0 0
0.28 0 0
0.29 0 0
0.3 0 0
0.31 0 0
0.32 0 0
0.33 0 0
0.34 0 0
0.35 0 0
0.36 0 0
0.37 0 0
0.38 0 0
0.39 0 0
0.4 0 0
0.41 0 0
0.42 0 0
0.43 0 0
0.44 0 0
0.45 0 0
0.46 0 0
0.47 0 0
0.48 0 0
0.49 0 0
0.5 0 0
0.51 0 0
0.52 0 0
0.53 0 0
0.54 0 0
0.55 0 0
0.56 0 0
0.57 0 0
0.58 0 0
0.59 0 0
0.6 0 0
0.61 0 0
0 0.01 0
0.01 0.01 0
0.02 0.01 0
0.03 0.01 0
0.04 0.01 0
0.05 0.01 0
0.06 0.01 0
0.07 0.01 0
0.08 0.01 0
0.09 0.01 0
0.1 0.01 0
0.11 0.01 0
0.12 0.01 0
0.13 0.01 0
0.14 0.01 0
0.15 0.01 0
0.16 0.01 0
0.17 0.01 0
0.18 0.01 0
0.19 0.01 0
0.2 0.01 0
0.21 0.01 0
0.22 0.01 0
0.23 0.01 0
0.24 0.01 0
0.25 0.01 0
0.26 0.01 0
0.27 0.01 0
0.28 0.01 0
0.29 0.01 0
0.3 0.01 0
0.31 0.01 0
0.32 0.01 0
0.33 0.01 0
0.34 0.01 0
0.35 0.01 0
0.36 0.01 0
0.37 0.01 0
0.38 0.01 0
0.39 0.01 0
0.4 0.01 0
0.41 0.01 0
0.42 0.01 0
0.43 0.01 0
0.44 0.01 0
0.45 0.01 0
0.46 0.01 0
0.47 0.01 0
0.48 0.01 0
0.49 0.01 0
0.5 0.01 0
0.51 0.01 0
0.52 0.01 0
0.53 0.01 0
0.54 0.01 0
0.55 0.01 0
0.56 0.01 0
0.57 0.01 0
0.58 0.01 0
0.59 0.01 0
0.6 0.01 0
0.61 0.01 0
0 0.02 0
0.01 0.02 0
0.02 0.02 0
0.03 0.02 0
0.04 0.02 0
0.05 0.02 0
0.06 0.02 0
0.07 0.02 0
0.08 0.02 0
0.09 0.02 0
0.1 0.02 0
0.11 0.02 0
0.12 0.02 0
0.13 0.02 0
0.14 0.02 0
0.15 0.02 0
0.16 0.02 0
0.17 0.02 0
0.18 0.02 0
0.19 0.02 0
0.2 0.02 0
0.21 0.02 0
0.22 0.02 0
0.23 0.02 0
0.24 0.02 0
0.25 0.02 0
0.26 0.02 0
0.27 0.02 0
0.28 0.02 0
0.29 0.02 0
0.3 0.02 0
0.31 0.02 0
0.32 0.02 0
0.33 0.02 0
0.34 0.02 0
0.35 0.02 0
0.36 0.02 0
0.37 0.02 0
0.38 0.02 0
0.39 0.02 0
0.4 0.02 0
0.41 0.02 0
0.42 0.02 0
0.43 0.02 0
0.44 0.02 0
0.45 0.02 0
0.46 0.02 0
0.47 0.02 0
0.48 0.02 0
0.49 0.02 0
0.5 0.02 0
0.51 0.02 0
0.52 0.02 0
0.53 0.02 0
0.54 0.02 0
0.55 0.02 0
0.56 0.02 0
0.57 0.02 0
0.58 0.02 0
0.59 0.02 0
0.6 0.02 0
0.61 0.02 0
0 0.03 0
0.01 0.03 0
0.02 0.03 0
0.03 0.03 0
0.04 0.03 0
0.05 0.03 0
0.06 0.03 0
0.07 0.03 0
0.08 0.03 0
0.09 0.03 0
0.1 0.03 0
0.11 0.03 0
0.12 0.03 0
0.13 0.03 0
0.14 0.03 0
0.15 0.03 0
0.16 0.03 0
0.17 0.03 0
0.18 0.03 0
0.19 0.03 0
0.2 0.03 0
0.21 0.03 0
0.22 0.03 0
0.23 0.03 0
0.24 0.03 0
0.25 0.03 0
0.26 0.03 0
0.27 0.03 0
0.28 0.03 0
0.29 0.03 0
0.3 0.03 0
0.31 0.03 0
0.32 0.03 0
0.33 0.03 0
0.34 0.03 0
0.35 0.03 0
0.36 0.03 0
0.37 0.03 0
0.38 0.03 0
0.39 0.03 0
0.4 0.03 0
0.41 0.03 0
0.42 0.03 0
0.43 0.03 0
0.44 0.03 0
0.45 0.03 0
0.46 0.03 0
0.47 0.03 0
0.48 0.03 0
0.49 0.03 0
0.5 0.03 0
0.51 0.03 0
0.52 0.03 0
0.53 0.03 0
0.54 0.03 0
0.55 0.03 0
0.56 0.03 0
0.57 0.03 0
0.58 0.03 0
0.59 0.03 0
0.6 0.03 0
0.61 0.03 0
0 0.04 0
0.01 0.04 0
0.02 0.04 0
0.03 0.04 0
0.04 0.04 0
0.05 0.04 0
0.06 0.04 0
0.07 0.04 0
0.08 0.04 0
0.09 0.04 0
0.1 0.04 0
0.11 0.04 0
0.12 0.04 0
0.13 0.04 0
0.14 0.04 0
0.15 0.04 0
0.16 0.04 0
0.17 0.04 0
0.18 0.04 0
0.19 0.04 0
0.2 0.04 0
0.21 0.04 0
0.22 0.04 0
0.23 0.04 0
0.24 0.04 0
0.25 0.04 0
0.26 0.04 0
0.27 0.04 0
0.28 0.04 0
0.29 0.04 0
0.3 0.04 0
0.31 0.04 0
0.32 0.04 0
0.33 0.04 0
0.34 0.04 0
0.35 0.04 0
0.36 0.04 0
0.37 0.04 0
0.38 0.04 0
0.39 0.04 0
0.4 0.04 0
0.41 0.04 0
0.42 0.04 0
0.43 0.04 0
0.44 0.04 0
0.45 0.04 0
0.46 0.04 0
0.47 0.04 0
0.48 0.04 0
0.49 0.04 0
0.5 0.04 0
0.51 0.04 0
0.52 0.04 0
0.53 0.04 0
0.54 0.04 0
0.55 0.04 0
0.56 0.04 0
0.57 0.04 0
0.58 0.04 0
0.59 0.04 0
0.6 0.04 0
0.61 0.04 0
0 0.05 0
0.01 0.05 0
0.02 0.05 0
0.03 0.05 0
0.04 0.05 0
0.05 0.05 0
0.06 0.05 0
0.07 0.05 0
0.08 0.05 0
0.09 0.05 0
0.1 0.05 0
0.11 0.05 0
0.12 0.05 0
0.13 0.05 0
0.14 0.05 0
0.15 0.05 0
0.16 0.05 0
0.17 0.05 0
0.18 0.05 0
0.19 0.05 0
0.2 0.05 0
0.21 0.05 0
0.22 0.05 0
0.23 0.05 0
0.24 0.05 0
0.25 0.05 0
0.26 0.05 0
0.27 0.05 0
0.28 0.05 0
0.29 0.05 0
0.3 0.05 0
0.31 0.05 0
0.32 0.05 0
0.33 0.05 0
0.34 0.05 0
0.35 0.05 0
0.36 0.05 0
0.37 0.05 0
0.38 0.05 0
0.39 0.05 0
0.4 0.05 0
0.41 0.05 0
0.42 0.05 0
0.43 0.05 0
0.44 0.05 0
0.45 0.05 0
0.46 0.05 0
0.47 0.05 0
0.48 0.05 0
0.49 0.05 0
0.5 0.05 0
0.51 0.05 0
0.52 0.05 0
0.53 0.05 0
0.54 0.05 0
0.55 0.05 0
0.56 0.05 0
0.57 0.05 0
0.58 0.05 0
0.59 0.05 0
0.6 0.05 0
0.61 0.05 0
0 0.06 0
0.01 0.06 0
0.02 0.06 0
0.03 0.06 0
0.04 0.06 0
0.05 0.06 0
0.06 0.06 0
0.07 0.06 0
0.08 0.06 0
0.09 0.06 0
0.1 0.06 0
0.11 0.06 0
0.12 0.06 0
0.13 0.06 0
0.14 0.06 0
0.15 0.06 0
0.16 0.06 0
0.17 0.06 0
0.18 0.06 0
0.19 0.06 0
0.2 0.06 0
0.21 0.06 0
0.22 0.06 0
0.23 0.06 0
0.24 0.06 0
0.25 0.06 0
0.26 0.06 0
0.27 0.06 0
0.28 0.06 0
0.29 0.06 0
0.3 0.06 0
0.31 0.06 0
0.32 0.06 0
0.33 0.06 0
0.34 0.06 0
0.35 0.06 0
0.36 0.06 0
0.37 0.06 0
0.38 0.06 0
0.39 0.06 0
0.4 0.06 0
0.41 0.06 0
0.42 0.06 0
0.43 0.06 0
0.44 0.06 0
0.45 0.06 0
0.46 0.06 0
0.47 0.06 0
0.48 0.06 0
0.49 0.06 0
0.5 0.06 0
0.51 0.06 0
0.52 0.06 0
0.53 0.06 0
0.54 0.06 0
0.55 0.06 0
0.56 0.06 0
0.57 0.06 0
0.58 0.06 0
0.59 0.06 0
0.6 0.06 0
0.61 0.06 0
0 0.07 0
0.01 0.07 0
0.02 0.07 0
0.03 0.07 0
0.04 0.07 0
0.05 0.07 0
0.06 0.07 0
0.07 0.07 0
0.08 0.07 0
0.09 0.07 0
0.1 0.07 0
0.11 0.07 0
0.12 0.07 0
0.13 0.07 0
0.14 0.07 0
0.15 0.07 0
0.16 0.07 0
0.17 0.07 0
0.18 0.07 0
0.19 0.07 0
0.2 0.07 0
0.21 0.07 0
0.22 0.07 0
0.23 0.07 0
0.24 0.07 0
0.25 0.07 0
0.26 0.07 0
0.27 0.07 0
0.28 0.07 0
0.29 0.07 0
0.3 0.07 0
0.31 0.07 0
0.32 0.07 0
0.33 0.07 0
0.34 0.07 0
0.35 0.07 0
0.36 0.07 0
0.37 0.07 0
0.38 0.07 0
0.39 0.07 0
0.4 0.07 0
0.41 0.07 0
0.42 0.07 0
0.43 0.07 0
0.44 0.07 0
0.45 0.07 0
0.46 0.07 0
0.47 0.07 0
0.48 0.07 0
0.49 0.07 0
0.5 0.07 0
0.51 0.07 0
0.52 0.07 0
0.53 0.07 0
0.54 0.07 0
0.55 0.07 0
0.56 0.07 0
0.57 0.07 0
0.58 0.07 0
0.59 0.07 0
0.6 0.07 0
0.61 0.07 0
0 0.08 0
0.01 0.08 0
0.02 0.08 0
0.03 0.08 0
0.04 0.08 0
0.05 0.08 0
0.06 0.08 0
0.07 0.08 0
0.08 0.08 0
0.09 0.08 0
0.1 0.08 0
0.11 0.08 0
0.12 0.08 0
0.13 0.08 0
0.14 0.08 0
0.15 0.08 0
0.16 0.08 0
0.17 0.08 0
0.18 0.08 0
0.19 0.08 0
0.2 0.08 0
0.21 0.08 0
0.22 0.08 0
0.23 0.08 0
0.24 0.08 0
0.25 0.08 0
0.26 0.08 0
0.27 0.08 0
0.28 0.08 0
0.29 0.08 0
0.3 0.08 0
0.31 0.08 0
0.32 0.08 0
0.33 0.08 0
0.34 0.08 0
0.35 0.08 0
0.36 0.08 0
0.37 0.08 0
0.38 0.08 0
0.39 0.08 0
0.4 0.08 0
0.41 0.08 0
0.42 0.08 0
0.43 0.08 0
0.44 0.08 0
0.45 0.08 0
0.46 0.08 0
0.47 0.08 0
0.48 0.08 0
0.49 0.08 0
0.5 0.08 0
0.51 0.08 0
0.52 0.08 0
0.53 0.08 0
0.54 0.08 0
0.55 0.08 0
0.56 0.08 0
0.57 0.08 0
0.58 0.08 0
0.59 0.08 0
0.6 0.08 0
0.61 0.08 0
0 0.09 0
0.01 0.09 0
0.02 0.09 0
0.03 0.09 0
0.04 0.09 0
0.05 0.09 0
0.06 0.09 0
0.07 0.09 0
0.08 0.09 0
0.09 0.09 0
0.1 0.09 0
0.11 0.09 0
0.12 0.09 0
0.13 0.09 0
0.14 0.09 0
0.15 0.09 0
0.16 0.09 0
0.17 0.09 0
0.18 0.09 0
0.19 0.09 0
0.2 0.09 0
0.21 0.09 0
0.22 0.09 0
0.23 0.09 0
0.24 0.09 0
0.25 0.09 0
0.26 0.09 0
0.27 0.09 0
0.28 0.09 0
0.29 0.09 0
0.3 0.09 0
0.31 0.09 0
0.32 0.09 0
0.33 0.09 0
0.34 0.09 0
0.35 0.09 0
0.36 0.09 0
0.37 0.09 0
0.38 0.09 0
0.39 0.09 0
0.4 0.09 0
0.41 0.09 0
0.42 0.09 0
0.43 0.09 0
0.44 0.09 0
0.45 0.09 0
0.46 0.09 0
0.47 0.09 0
0.48 0.09 0
0.49 0.09 0
0.5 0.09 0
0.51 0.09 0
0.52 0.09 0
0.53 0.09 0
0.54 0.09 0
0.55 0.09 0
0.56 0.09 0
0.57 0.09 0
0.58 0.09 0
0.59 0.09 0
0.6 0.09 0
0.61 0.09 0
0 0.1 0
0.01 0.1 0
0.02 0.1 0
0.03 0.1 0
0.04 0.1 0
0.05 0.1 0
0.06 0.1 0
0.07 0.1 0
0.08 0.1 0
0.09 0.1 0
0.1 0.1 0
0.11 0.1 0
0.12 0.1 0
0.13 0.1 0
0.14 0.1 0
0.15 0.1 0
0.16 0.1 0
0.17 0.1 0
0.18 0.1 0
0.19 0.1 0
0.2 0.1 0
0.21 0.1 0
0.22 0.1 0
0.23 0.1 0
0.24 0.1 0
0.25 0.1 0
0.26 0.1 0
0.27 0.1 0
0.28 0.1 0
0.29 0.1 0
0.3 0.1 0
0.31 0.1 0
0.32 0.1 0
0.33 0.1 0
0.34 0.1 0
0.35 0.1 0
0.36 0.1 0
0.37 0.1 0
0.38 0.1 0
0.39 0.1 0
0.4 0.1 0
0.41 0.1 0
0.42 0.1 0
0.43 0.1 0
0.44 0.1 0
0.45 0.1 0
0.46 0.1 0
0.47 0.1 0
0.48 0.1 0
0.49 0.1 0
0.5 0.1 0
0.51 0.1 0
0.52 0.1 0
0.53 0.1 0
0.54 0.1 0
0.55 0.1 0
0.56 0.1 0
0.57 0.1 0
0.58 0.1 0
0.59 0.1 0
0.6 0.1 0
0.61 0.1 0
0 0.11 0
0.01 0.11 0
0.02 0.11 0
0.03 0.11 0
0.04 0.11 0
0.05 0.11 0
0.06 0.11 0
0.07 0.11 0
0.08 0.11 0
0.09 0.11 0
0.1 0.11 0
0.11 0.11 0
0.12 0.11 0
0.13 0.11 0
0.14 0.11 0
0.15 0.11 0
0.16 0.11 0
0.17 0.11 0
0.18 0.11 0
0.19 0.11 0
0.2 0.11 0
0.21 0.11 0
0.22 0.11 0
0.23 0.11 0
0.24 0.11 0
0.25 0.11 0
0.26 0.11 0
0.27 0.11 0
0.28 0.11 0
0.29 0.11 0
0.3 0.11 0
0.31 0.11 0
0.32 0.11 0
0.33 0.11 0
0.34 0.11 0
0.35 0.11 0
0.36 0.11 0
0.37 0.11 0
0.38 0.11 0
0.39 0.11 0
0.4 0.11 0
0.41 0.11 0
0.42 0.11 0
0.43 0.11 0
0.44 0.11 0
0.45 0.11 0
0.46 0.11 0
0.47 0.11 0
0.48 0.11 0
0.49 0.11 0
0.5 0.11 0
0.51 0.11 0
0.52 0.11 0
0.53 0.11 0
0.54 0.11 0
0.55 0.11 0
0.56 0.11 0
0.57 0.11 0
0.58 0.11 0
0.59 0.11 0
0.6 0.11 0
0.61 0.11 0
0 0.12 0
0.01 0.12 0
0.02 0.12 0
0.03 0.12 0
0.04 0.12 0
0.05 0.12 0
0.06 0.12 0
0.07 0.12 0
0.08 0.12 0
0.09 0.12 0
0.1 0.12 0
0.11 0.12 0
0.12 0.12 0
0.13 0.12 0
0.14 0.12 0
0.15 0.12 0
0.16 0.12 0
0.17 0.12 0
0.18 0.12 0
0.19 0.12 0
0.2 0.12 0
0.21 0.12 0
0.22 0.12 0
0.23 0.12 0
0.24 0.12 0
0.25 0.12 0
0.26 0.12 0
0.27 0.12 0
0.28 0.12 0
0.29 0.12 0
0.3 0.12 0
0.31 0.12 0
0.32 0.12 0
0.33 0.12 0
0.34 0.12 0
0.35 0.12 0
0.36 0.12 0
0.37 0.12 0
0.38 0.12 0
0.39 0.12 0
0.4 0.12 0
0.41 0.12 0
0.42 0.12 0
0.43 0.12 0
0.44 0.12 0
0.45 0.12 0
0.46 0.12 0
0.47 0.12 0
0.48 0.12 0
0.49 0.12 0
0.5 0.12 0
0.51 0.12 0
0.52 0.12 0
0.53 0.12 0
0.54 0.12 0
0.55 0.12 0
0.56 0.12 0
0.57 0.12 0
0.58 0.12 0
0.59 0.12 0
0.6 0.12 0
0.61 0.12 0
0 0.13 0
0.01 0.13 0
0.02 0.13 0
0.03 0.13 0
0.04 0.13 0
0.05 0.13 0
0.06 0.13 0
0.07 0.13 0
0.08 0.13 0
0.09 0.13 0
0.1 0.13 0
0.11 0.13 0
0.12 0.13 0
0.13 0.13 0
0.14 0.13 0
0.15 0.13 0
0.16 0.13 0
0.17 0.13 0
0.18 0.13 0
0.19 0.13 0
0.2 0.13 0
0.21 0.13 0
0.22 0.13 0
0.23 0.13 0
0.24 0.13 0
0.25 0.13 0
0.26 0.13 0
0.27 0.13 0
0.28 0.13 0
0.29 0.13 0
0.3 0.13 0
0.31 0.13 0
0.32 0.13 0
0.33 0.13 0
0.34 0.13 0
0.35 0.13 0
0.36 0.13 0
0.37 0.13 0
0.38 0.13 0
0.39 0.13 0
0.4 0.13 0
0.41 0.13 0
0.42 0.13 0
0.43 0.13 0
0.44 0.13 0
0.45 0.13 0
0.46 0.13 0
0.47 0.13 0
0.48 0.13 0
[...]
POINT_DATA 93248

SCALARS w double
LOOKUP_TABLE default
0
0
0
0
0
0
0
0
0
0
0
0
0
-0.092572
0
0
0
0
0
0
0
0
0
0
0
0
-0.212011
0
0
0
0
0
-0.212426
0
0
0
0
0
0
0
0
0
0
0
0
0
-0.187776
0
0
0
0
0
0
0
0
0
0
0
0
0
0
0
0
-0.0220516
-0.0447754
-0.0610295
-0.0707904
-0.0761676
-0.0803097
-0.0835911
-0.0862688
-0.0882143
-0.089216
-0.0889943
-0.087655
-0.0883206
-0.0895785
-0.0906776
-0.0915457
-0.0922963
-0.0923447
-0.0907281
-0.0845544
-0.0853265
-0.0883904
-0.08708
-0.0859336
-0.085168
-0.0845689
-0.0840229
-0.0834853
-0.0829131
-0.0822065
-0.0811784
-0.0798604
-0.0800731
-0.0800845
-0.0790801
-0.0776452
-0.0789465
-0.0807249
-0.0836191
-0.0771365
-0.0791657
-0.0819832
-0.084096
-0.0874684
-0.201524
-0.0822465
-0.0808838
-0.0808003
-0.0818818
-0.0831314
-0.0848777
-0.0851843
-0.0878514
-0.202818
-0.0860082
-0.0795096
-0.0789227
-0.0788811
-0.0773297
-0.0722552
0
0
-0.0260775
-0.0633301
-0.0869
-0.104862
-0.118578
-0.13387
-0.147007
-0.157826
-0.166648
-0.173465
-0.177731
-0.178821
-0.181957
-0.184353
-0.185944
-0.187076
-0.18827
-0.188806
-0.188717
-0.177064
-0.179564
-0.239463
-0.180309
-0.176849
-0.174987
-0.173616
-0.172437
-0.171346
-0.170296
-0.169226
-0.167955
-0.165997
-0.166586
-0.16627
-0.164921
-0.165295
-0.164251
-0.164522
-0.167064
-0.165394
-0.167675
-0.169289
-0.171432
-0.17586
-0.181976
-0.177286
-0.170993
-0.169083
-0.168948
-0.170761
-0.202818
-0.174018
-0.176476
-0.181352
-0.175547
-0.17139
-0.164897
-0.16134
-0.155325
-0.144084
0
0
-0.0258906
-0.0634541
-0.0895382
-0.11034
-0.0761676
-0.143884
-0.161943
-0.177108
-0.190472
-0.202421
-0.211932
-0.221819
-0.224981
-0.227046
-0.228276
-0.229353
-0.230793
-0.23082
-0.231431
-0.230515
-0.226158
-0.225669
-0.221152
-0.217741
-0.215304
-0.213413
-0.211823
-0.210423
-0.209192
-0.208226
-0.207927
-0.209212
-0.221884
-0.206302
-0.202479
-0.202202
-0.201795
-0.201898
-0.203039
-0.203265
-0.204589
-0.206316
-0.206917
-0.209777
-0.212489
-0.210264
-0.207827
-0.206289
-0.206504
-0.20748
-0.209804
-0.209823
-0.21095
-0.21215
-0.211294
-0.209857
-0.207199
-0.199286
-0.189986
-0.175761
0
0
-0.0253669
-0.0621714
-0.0637326
-0.111687
-0.130478
-0.149565
-0.166482
-0.181765
-0.195797
-0.208724
-0.220116
-0.230184
-0.23684
-0.240833
-0.242251
-0.243739
-0.243
-0.243808
-0.244421
-0.242584
-0.240056
-0.237562
-0.234623
-0.231865
-0.229478
-0.227436
-0.22566
-0.2241
-0.222757
-0.221697
-0.221056
-0.220814
-0.219933
-0.218285
-0.21609
-0.215141
-0.214684
-0.215505
-0.214916
-0.215348
-0.216093
-0.21701
-0.217487
-0.218611
-0.219654
-0.219601
-0.218373
-0.217622
-0.217769
-0.218279
-0.219096
-0.219707
-0.220368
-0.220972
-0.221356
-0.220804
-0.218212
-0.211702
-0.201919
-0.1866
0
0
-0.0252392
-0.0623566
-0.0903166
-0.114368
-0.134495
-0.152639
-0.168865
-0.183681
-0.197389
-0.209989
-0.221285
-0.230978
-0.23841
-0.242886
-0.210484
-0.246394
-0.247473
-0.247197
-0.246481
-0.244463
-0.242042
-0.239463
-0.236897
-0.234461
-0.23222
-0.230209
-0.228397
-0.226772
-0.225344
-0.224125
-0.223063
-0.221884
-0.220081
-0.219265
-0.218385
-0.217643
-0.217096
-0.216772
-0.216689
-0.216837
-0.217148
-0.217512
-0.217752
-0.21807
-0.218518
-0.219605
-0.218176
-0.217934
-0.218194
-0.218619
-0.219138
-0.219739
-0.220377
-0.221038
-0.221579
-0.221223
-0.218776
-0.212836
-0.202937
-0.187484
0
0
-0.025197
-0.0624438
-0.0914747
-0.115539
-0.136202
-0.154573
-0.170414
-0.184965
-0.198473
-0.210732
-0.221576
-0.23079
-0.238165
-0.24303
-0.2447
-0.246758
-0.247421
-0.241767
-0.245527
-0.243394
-0.240816
-0.238173
-0.235643
-0.23327
-0.231071
-0.22912
-0.227314
-0.225661
-0.224186
-0.222889
-0.221692
-0.220307
-0.217869
-0.217881
-0.217427
-0.216712
-0.216031
-0.215505
-0.215171
-0.215026
-0.215014
-0.215048
-0.214984
-0.214794
-0.214133
-0.212441
-0.213749
-0.214703
-0.21535
-0.215878
-0.216403
-0.217018
-0.217736
-0.218474
-0.218987
-0.218566
-0.215842
-0.208827
-0.196514
-0.183163
0
0
-0.025148
-0.0623734
-0.0916159
-0.115832
-0.136848
-0.155974
-0.170954
-0.185822
-0.199321
-0.211346
-0.221741
-0.230389
-0.23776
-0.242773
-0.245207
-0.24548
-0.245786
-0.245573
-0.244137
-0.241778
-0.239001
-0.236288
-0.233729
-0.231321
-0.229062
-0.227215
-0.225403
-0.223723
-0.222242
-0.220992
-0.219998
-0.219552
-0.22065
-0.218447
-0.216585
-0.215237
-0.214243
-0.213513
-0.212997
-0.212657
-0.212445
-0.212306
-0.212017
-0.211733
-0.211246
-0.210678
-0.211129
-0.211785
-0.212376
-0.2129
-0.213433
-0.214079
-0.214901
-0.2157
-0.216199
-0.21568
-0.212313
-0.201458
-0.0773297
-0.176126
0
0
-0.0250838
-0.0622097
-0.0914238
-0.11564
-0.13666
-0.155427
-0.171541
-0.186338
-0.199735
-0.211515
-0.221321
-0.228538
-0.236785
-0.24198
-0.244071
-0.242129
-0.209651
-0.243723
-0.242699
-0.240195
-0.237227
-0.234528
-0.231976
-0.2295
-0.227053
-0.225467
-0.223579
-0.221864
-0.220415
-0.219269
-0.218362
-0.217732
-0.217382
-0.216091
-0.214639
-0.213373
-0.212334
-0.211529
-0.210932
-0.210497
-0.21018
-0.209932
-0.209664
-0.209428
-0.209208
-0.209104
-0.209278
-0.209626
-0.210034
-0.210459
-0.210933
-0.211558
-0.212561
-0.213457
-0.21405
-0.213855
-0.211784
-0.205704
-0.1905
-0.178702
0
0
-0.0250136
-0.0620109
-0.0911224
-0.115256
-0.136192
-0.154799
-0.171368
-0.186334
-0.199735
-0.211296
-0.220021
-0.178821
-0.233923
-0.240595
-0.243324
-0.242998
-0.242481
-0.242561
-0.2411
-0.23867
-0.23557
-0.233086
-0.230557
-0.228009
-0.22548
-0.223619
-0.221805
-0.220155
-0.218807
-0.217847
-0.216951
-0.215961
-0.214885
-0.213681
-0.212495
-0.211437
-0.210467
-0.209687
-0.209099
-0.208655
-0.208315
-0.208049
-0.207832
-0.207676
-0.207595
-0.207618
-0.207749
-0.207975
-0.208262
-0.208581
-0.208937
-0.208
-0.210796
-0.211816
-0.212523
-0.212581
-0.211067
-0.206296
-0.196091
-0.179572
0
0
-0.024946
-0.0618135
-0.0908077
-0.114834
-0.135685
-0.154234
-0.170938
-0.186037
-0.199542
-0.21122
-0.220518
-0.226567
-0.234626
-0.240269
-0.243295
-0.243875
-0.24327
-0.241945
-0.239914
-0.237521
-0.235372
-0.23238
-0.229481
-0.226688
-0.220447
-0.221964
-0.220161
-0.218535
-0.217284
-0.216628
-0.215754
-0.214361
-0.212889
-0.211599
-0.210519
-0.209648
-0.208722
-0.207996
-0.207478
-0.207082
-0.206768
-0.206524
-0.206359
-0.206267
-0.206251
-0.206316
-0.206454
-0.206659
-0.20691
-0.207175
-0.207491
-0.208
-0.209635
-0.210629
-0.211402
-0.211613
-0.210364
-0.206101
-0.196938
-0.1799
0
0
-0.0248864
-0.0616379
-0.0905254
-0.114451
-0.135235
-0.153756
-0.170502
-0.185692
-0.199338
-0.21129
-0.221307
-0.229351
-0.236036
-0.240848
-0.243881
-0.244284
-0.243204
-0.241254
-0.238794
-0.236183
-0.233591
-0.23086
-0.228123
-0.225429
-0.222759
-0.220581
-0.218578
-0.216843
-0.215459
-0.21457
-0.214506
-0.212271
-0.210643
-0.209488
-0.208592
-0.207867
-0.207231
-0.206459
-0.20604
-0.205712
-0.20543
-0.205195
-0.205096
-0.205068
-0.205102
-0.2052
-0.205367
-0.205603
-0.205889
-0.206169
-0.206556
-0.207247
-0.208512
-0.2096
-0.210476
-0.210804
-0.209699
-0.205627
-0.1967
-0.179783
0
0
-0.0248377
-0.0614947
-0.090305
-0.114207
-0.134917
-0.15339
-0.170142
-0.185391
-0.199162
-0.211341
-0.221724
-0.230193
-0.236642
-0.241102
-0.244277
-0.243909
-0.242416
-0.2402
-0.237497
-0.234741
-0.232057
-0.229421
-0.226809
-0.224217
-0.221658
-0.219202
-0.216874
-0.214799
-0.212815
-0.21093
-0.207714
-0.207709
-0.207579
-0.207186
-0.206685
-0.206171
-0.205679
-0.205155
-0.204786
-0.204489
-0.204181
-0.203812
-0.203898
-0.203988
-0.20409
-0.204235
-0.204445
-0.204748
-0.205128
-0.205427
-0.205873
-0.206604
-0.207637
-0.208718
-0.209672
-0.210101
-0.209107
-0.205137
-0.196307
-0.179478
0
0
-0.0247993
-0.061382
-0.0901331
-0.114011
-0.134641
-0.153078
-0.169835
-0.18513
-0.198989
-0.211314
-0.221819
-0.230328
-0.236581
-0.240298
-0.24073
-0.241515
-0.240806
-0.238837
-0.236017
-0.23333
-0.230783
-0.228267
-0.225723
-0.223126
-0.220447
-0.21765
-0.214728
-0.21174
-0.207821
-0.206634
-0.205672
-0.205498
-0.205444
-0.205281
-0.204996
-0.204642
-0.204292
-0.203878
-0.203578
-0.203301
-0.202864
-0.195879
-0.202612
-0.202963
-0.203171
-0.203374
-0.20363
-0.204002
-0.20453
-0.204764
-0.205232
-0.205999
-0.206991
-0.208042
-0.209026
-0.209532
-0.208651
-0.204732
-0.195947
-0.179128
0
0
-0.02477
-0.0612972
-0.0900204
-0.11564
-0.13448
-0.152836
-0.169583
-0.184902
-0.198799
-0.211118
-0.221715
-0.230232
-0.236411
-0.240099
-0.241391
-0.241467
-0.240319
-0.238039
-0.234658
-0.232247
-0.229965
-0.22755
-0.224985
-0.222264
-0.219312
-0.215934
-0.211726
-0.205654
-0.191856
-0.196943
-0.200613
-0.202449
-0.203285
-0.20356
-0.203499
-0.20327
-0.204754
-0.202551
-0.202226
-0.202003
-0.201741
-0.201373
-0.20172
-0.202046
-0.202324
-0.202578
-0.202844
-0.203201
-0.203848
-0.203949
-0.204529
-0.205457
-0.206624
-0.207598
-0.208576
-0.209137
-0.208827
-0.20445
-0.195659
-0.178786
0
0
-0.0247466
-0.0612248
-0.0898679
-0.113648
-0.134198
-0.152594
-0.16936
-0.184702
-0.198634
-0.211015
-0.221618
-0.230126
-0.236295
-0.240072
-0.241688
-0.241632
-0.240292
-0.237874
-0.233888
-0.232197
-0.230012
-0.227435
-0.22466
-0.221704
-0.218408
-0.2143
-0.207872
-0.192347
0.08761
-0.177419
-0.193399
-0.199113
-0.201346
-0.202143
-0.202223
-0.201908
-0.201403
-0.200685
-0.200106
-0.200015
-0.200153
-0.200387
-0.200755
-0.201152
-0.201524
-0.201828
-0.202049
-0.202092
-0.201811
-0.20268
-0.20375
-0.205052
-0.210796
-0.207434
-0.208365
-0.208849
-0.208059
-0.204221
-0.195446
-0.178458
0
0
-0.0247309
-0.0611894
-0.0897568
-0.113413
-0.133967
-0.152383
-0.169175
-0.184538
-0.198493
-0.21091
-0.221545
-0.230061
-0.236226
-0.240019
-0.241681
-0.241632
-0.240414
-0.238818
-0.238505
-0.234737
-0.231069
-0.227743
-0.224589
-0.22141
-0.217947
-0.213737
-0.207781
-0.197893
-0.18156
-0.18941
-0.19582
-0.199351
-0.201002
-0.201525
-0.201329
-0.200591
-0.19935
-0.197507
-0.195086
-0.19587
-0.197258
-0.198465
-0.199408
-0.200148
-0.20074
-0.201156
-0.201447
-0.201485
-0.20164
-0.202055
-0.203186
-0.204566
-0.206095
-0.207271
-0.208629
-0.208761
-0.207862
-0.204077
-0.195304
-0.178127
0
0
-0.0247087
-0.0611716
-0.089637
-0.113205
-0.133751
-0.152227
-0.169068
-0.184437
-0.198392
-0.210835
-0.221541
-0.230064
-0.236175
-0.23989
-0.241483
-0.241403
-0.240187
-0.238423
-0.236581
-0.233719
-0.230559
-0.22742
-0.224337
-0.221222
-0.217924
-0.21423
-0.209884
-0.204497
-0.199775
-0.199641
-0.200711
-0.201562
-0.201859
-0.201598
-0.200789
-0.19929
-0.196592
-0.191055
-0.178789
-0.186446
-0.192335
-0.195779
-0.197814
-0.199103
-0.200003
-0.20058
-0.201023
-0.20134
-0.201494
-0.201538
-0.202875
-0.204263
-0.205663
-0.207409
-0.221356
-0.208951
-0.20783
-0.203989
-0.195202
-0.177625
0
0
-0.02462
-0.0607385
-0.089219
-0.112849
-0.133501
-0.154234
-0.169152
-0.184417
-0.198315
-0.210786
-0.22165
-0.230124
-0.236078
-0.239608
-0.241058
-0.240915
-0.239627
-0.237599
-0.235216
-0.23255
-0.229744
-0.226897
-0.224038
-0.22114
-0.218159
-0.215096
-0.21209
-0.208239
-0.205423
-0.204482
-0.204069
-0.203613
-0.202936
-0.201955
-0.200519
-0.198172
-0.193407
-0.179253
0.0887355
-0.168943
-0.186578
-0.193379
-0.196553
-0.198276
-0.199297
-0.200118
-0.200762
-0.201309
-0.201691
-0.201511
-0.203141
-0.204317
-0.20547
-0.20691
-0.208576
-0.208304
-0.207703
-0.203788
-0.194913
-0.177353
0
0
-0.0246075
-0.0607498
-0.089152
-0.112657
-0.133331
-0.152221
-0.169034
-0.184253
-0.198108
-0.210641
-0.221863
-0.23009
-0.235758
-0.239013
-0.240304
-0.240179
-0.238907
-0.236743
-0.234348
-0.231833
-0.229232
-0.226582
-0.223907
-0.221201
-0.218459
-0.215718
-0.213069
-0.210478
-0.20769
-0.20709
-0.206236
-0.205104
-0.203818
-0.202374
-0.200583
-0.198025
-0.193721
-0.185556
-0.170923
-0.180753
-0.189191
-0.193846
-0.196499
-0.198089
-0.19913
-0.199953
-0.200695
-0.201543
-0.202851
-0.205084
-0.204541
-0.204649
-0.205303
-0.206293
-0.207326
-0.207771
-0.207092
-0.20327
-0.194355
-0.176769
0
0
-0.0246177
-0.0607941
-0.0891469
-0.112488
-0.133209
-0.152375
-0.1688
-0.183812
-0.197593
-0.210112
-0.221752
-0.229387
-0.234901
-0.237942
-0.239189
-0.239351
-0.238286
-0.236023
-0.233907
-0.231619
-0.229153
-0.226598
-0.224016
-0.221402
-0.21873
-0.215941
-0.212915
-0.212044
-0.212472
-0.210202
-0.208023
-0.206123
-0.204385
-0.202711
-0.200927
-0.198784
-0.196051
-0.192781
-0.190065
-0.191353
-0.193819
-0.195879
-0.1974
-0.19845
-0.199248
-0.199969
-0.200674
-0.201485
-0.202536
-0.203719
-0.204101
-0.204459
-0.205039
-0.205885
-0.206863
-0.207448
-0.206714
-0.202968
-0.194167
-0.177076
0
0
-0.0246322
-0.0608408
-0.0892568
-0.11298
-0.133168
-0.150463
-0.167321
-0.182789
-0.196685
-0.208677
-0.21757
-0.226793
-0.233566
-0.236598
-0.238066
-0.238966
-0.238302
-0.235962
-0.234304
-0.232073
-0.229531
-0.226922
-0.224339
-0.221723
-0.218955
-0.21557
-0.183399
-0.211105
-0.21132
-0.209953
-0.208128
-0.20622
-0.20437
-0.20265
-0.2011
-0.199563
-0.198067
-0.196851
-0.196331
-0.196462
-0.197057
-0.197829
-0.198654
-0.199079
-0.19951
-0.200089
-0.200655
-0.201284
-0.202026
-0.202818
-0.203496
-0.204097
-0.204717
-0.205565
-0.206671
-0.207311
-0.206607
-0.202921
-0.194172
-0.177274
0
0
-0.0246426
-0.0608619
-0.0892636
-0.112815
-0.133093
-0.150963
-0.167502
-0.182669
-0.196338
-0.208268
-0.218453
-0.227325
-0.234237
-0.235705
-0.238912
-0.240097
-0.239741
-0.239237
-0.236276
-0.233138
-0.230155
-0.227374
-0.224782
-0.222155
-0.219398
-0.216353
-0.212727
-0.211901
-0.210956
-0.209538
-0.207769
-0.20577
-0.203608
-0.201405
-0.200337
-0.199496
-0.198919
-0.198564
-0.198473
-0.198536
-0.198759
-0.199232
-0.205068
-0.199781
-0.199752
-0.200276
-0.200665
-0.201108
-0.201694
-0.202432
-0.203183
-0.20386
-0.204406
-0.205215
-0.206594
-0.20727
-0.206642
-0.203036
-0.194216
-0.177341
0
0
-0.0246528
-0.06088
-0.0892727
-0.112778
-0.133157
-0.151342
-0.167925
-0.182855
-0.196153
-0.207413
-0.218679
-0.227966
-0.235495
-0.242221
-0.243005
-0.242339
-0.240909
-0.239007
-0.236284
-0.233298
-0.230365
-0.227652
-0.225235
-0.222611
-0.219903
-0.217249
-0.214816
-0.212966
-0.211328
-0.209531
-0.20748
-0.20498
-0.201524
-0.195967
-0.197273
-0.197657
-0.198529
-0.198964
-0.199202
-0.199368
-0.199564
-0.199859
-0.200239
-0.199992
-0.199766
-0.200512
-0.200672
-0.200958
-0.201472
-0.202302
-0.203124
-0.203792
-0.204111
-0.20475
-0.206582
-0.207186
-0.206676
-0.203264
-0.194221
-0.177253
0
0
-0.0246665
-0.0609093
-0.089314
-0.112842
-0.133326
-0.15175
-0.168763
-0.183265
-0.195729
-0.177545
-0.217601
-0.227906
-0.235323
-0.240479
-0.242451
-0.242368
-0.241013
-0.23877
-0.23607
-0.233183
-0.230341
-0.227757
-0.225692
-0.222908
-0.220146
-0.21765
-0.215447
-0.213459
-0.211704
-0.209684
-0.207367
-0.204071
-0.197365
-0.0800845
-0.190576
-0.175434
-0.197232
-0.198885
-0.199487
-0.199775
-0.199995
-0.200212
-0.200255
-0.20013
-0.200047
-0.200321
-0.200497
-0.200737
-0.201202
-0.202276
-0.203542
-0.203406
-0.203817
-0.204671
-0.205995
-0.206758
-0.206461
-0.203517
-0.194052
-0.176978
0
0
-0.0246848
-0.0609518
-0.0893804
-0.11295
-0.13355
-0.152385
-0.18513
-0.18446
-0.196843
-0.207215
-0.218713
-0.228124
-0.235077
-0.23955
-0.241665
-0.24191
-0.23735
-0.238639
-0.235937
-0.233075
-0.230219
-0.227594
-0.225784
-0.22258
-0.219869
-0.217594
-0.215578
-0.213764
-0.211872
-0.209962
-0.207919
-0.204658
-0.199773
-0.192
-0.19483
-0.196323
-0.198323
-0.199401
-0.199889
-0.200128
-0.200343
-0.200596
-0.200468
-0.200256
-0.200146
-0.200195
-0.200303
-0.200451
-0.200696
-0.201832
-0.203416
-0.202645
-0.20338
-0.204378
-0.205408
-0.205995
-0.205527
-0.203102
-0.193333
-0.176521
0
0
-0.0247075
-0.0610059
-0.0894583
-0.113045
-0.133642
-0.152316
-0.16985
-0.184737
-0.197945
-0.209611
-0.220044
-0.228658
-0.235096
-0.239247
-0.241269
-0.241537
-0.240523
-0.238467
-0.235856
-0.232991
-0.230003
-0.226772
-0.222515
-0.22082
-0.219137
-0.217392
-0.215575
-0.213612
-0.211998
-0.210562
-0.218362
-0.206443
-0.20339
-0.200883
-0.200242
-0.200153
-0.200339
-0.200471
-0.2005
-0.200506
-0.200638
-0.20102
-0.2006
-0.200243
-0.200094
-0.200092
-0.200162
-0.20024
-0.200238
-0.19997
-0.198626
-0.201587
-0.202935
-0.204013
-0.204879
-0.205008
-0.203123
-0.197429
-0.191378
-0.176068
0
0
-0.0247368
-0.0610773
-0.0895534
-0.113134
-0.133677
-0.15217
-0.169187
-0.184982
-0.198459
-0.210244
-0.220425
-0.228762
-0.235002
-0.239044
-0.241003
-0.241222
-0.240214
-0.238305
-0.235822
-0.233012
-0.230025
-0.226809
-0.223762
-0.221603
-0.219539
-0.217771
-0.215991
-0.214179
-0.212494
-0.210976
-0.209717
-0.207538
-0.205585
-0.204121
-0.203085
-0.202365
-0.201842
-0.201425
-0.201068
-0.200774
-0.20065
-0.201081
-0.200285
-0.19997
-0.199931
-0.199996
-0.200097
-0.200194
-0.200242
-0.2002
-0.200227
-0.201493
-0.20269
-0.203771
-0.204658
-0.204917
-0.203615
-0.1994
-0.191731
-0.176022
0
0
-0.02478
-0.0611881
-0.0896967
-0.113253
-0.133726
-0.152082
-0.168944
-0.18519
-0.198159
-0.209821
-0.220044
-0.228447
-0.234743
-0.238827
-0.240794
-0.240959
-0.240124
-0.23839
-0.236026
-0.233253
-0.230265
-0.227413
-0.224729
-0.222342
-0.220062
-0.21844
-0.216641
-0.214793
-0.213017
-0.211349
-0.209758
-0.208145
-0.206683
-0.205457
-0.204414
-0.203527
-0.20276
-0.202088
-0.201474
-0.200845
-0.199979
-0.19841
-0.199035
-0.1995
-0.199769
-0.199958
-0.20012
-0.200281
-0.200459
-0.200697
-0.201114
-0.201824
-0.202728
-0.203731
-0.204692
-0.20524
-0.205627
-0.200631
-0.19232
-0.176188
0
0
-0.0248572
-0.0613965
-0.0899603
-0.113448
-0.133831
-0.151988
-0.168174
-0.181567
-0.195806
-0.208572
-0.219379
-0.228078
-0.234535
-0.238727
-0.240777
-0.240734
-0.240314
-0.238799
-0.236536
-0.233738
-0.23064
-0.22795
-0.225434
-0.222991
-0.220483
-0.219294
-0.217332
-0.215356
-0.213491
-0.211758
-0.210146
-0.208673
-0.207358
-0.206202
-0.205167
-0.204224
-0.203358
-0.202558
-0.201806
-0.201065
-0.200286
-0.199542
-0.199505
-0.199677
-0.19987
-0.200054
-0.200234
-0.200432
-0.200678
-0.201003
-0.20145
-0.202041
-0.202818
-0.203768
-0.20477
-0.205414
-0.204753
-0.201029
-0.192653
-0.176382
0
0
-0.0250186
-0.0618656
-0.0904926
-0.113782
-0.134105
-0.152201
-0.168429
-0.182887
-0.196544
-0.2089
-0.219524
-0.228141
-0.234584
-0.238894
-0.246394
-0.240365
-0.24096
-0.239564
-0.237332
-0.234449
-0.231262
-0.228742
-0.226258
-0.223841
-0.221616
-0.21975
-0.217731
-0.215729
-0.213849
-0.212119
-0.210544
-0.20913
-0.207877
-0.206764
-0.205734
-0.204754
-0.20382
-0.202937
-0.202106
-0.201338
-0.200681
-0.20024
-0.200051
-0.20003
-0.200109
-0.200243
-0.200398
-0.200591
-0.200846
-0.201163
-0.201575
-0.202124
-0.202854
-0.203776
-0.204794
-0.20547
-0.204744
-0.201119
-0.192843
-0.176566
0
0
-0.0253784
-0.0631785
-0.0913495
-0.114516
-0.134691
-0.152714
-0.169022
-0.183861
-0.197407
-0.209502
-0.219891
-0.228336
-0.234664
-0.238811
-0.240765
-0.239241
-0.242234
-0.240575
-0.238039
-0.234737
-0.233059
-0.230033
-0.227169
-0.224643
-0.222565
-0.220253
-0.218015
-0.21596
-0.214094
-0.212407
-0.210886
-0.20953
-0.20834
-0.20729
-0.206266
-0.205238
-0.204229
-0.203265
-0.20236
-0.201539
-0.20089
-0.200548
-0.200377
-0.200306
-0.200328
-0.200417
-0.200518
-0.200671
-0.200911
-0.201197
-0.201573
-0.202103
-0.202818
-0.203725
-0.204779
-0.205561
-0.204817
-0.201164
-0.192978
-0.176765
0
0
-0.0260725
-0.0869
-0.0931282
-0.11546
-0.13533
-0.153248
-0.169538
-0.184404
-0.197881
-0.209831
-0.220067
-0.228393
-0.234648
-0.238748
-0.240854
-0.241051
-0.241631
-0.240421
-0.238189
-0.235572
-0.232943
-0.230175
-0.227479
-0.224996
-0.223026
-0.220388
-0.21809
-0.216086
-0.214287
-0.212667
-0.211209
-0.209915
-0.208807
-0.207864
-0.206823
-0.205705
-0.204598
-0.203549
-0.202559
-0.201623
-0.200898
-0.200694
-0.200578
-0.200461
-0.200407
-0.200418
-0.200401
-0.20048
-0.200715
-0.200987
-0.201376
-0.201953
-0.20271
-0.203627
-0.204751
-0.20575
-0.205009
-0.201371
-0.193039
-0.177007
0
0
-0.0255841
-0.0637326
-0.0919813
-0.115223
-0.135385
-0.153453
-0.169775
-0.184587
-0.198
-0.209857
-0.219996
-0.228269
-0.234523
-0.238689
-0.241344
-0.242224
-0.241912
-0.24049
-0.23831
-0.235739
-0.233035
-0.230353
-0.227702
-0.224962
-0.221685
-0.219785
-0.217995
-0.216216
-0.214474
-0.212954
-0.211553
-0.210314
-0.209303
-0.20854
-0.207396
-0.206117
-0.204903
-0.203796
-0.202755
-0.201599
-0.20068
-0.200838
-0.200739
-0.20043
-0.200131
-0.199902
-0.199637
-0.199601
-0.19987
-0.200228
-0.200794
-0.201596
-0.202546
-0.203553
-0.204936
-0.205862