# vtk DataFile Version 2.0
FlowField
ASCII
DATASET STRUCTURED_GRID
DIMENSIONS 62 47 32 
POINTS 93248 double
0 0 0
0.01 0 0
0.02 0 0
0.03 0 0
0.04 0 0
0.05 0 0
0.06 0 0
0.07 0 0
0.08 0 0
0.09 0 0
0.1 0 0
0.11 0 0
0.12 0 0
0.13 0 0
0.14 0 0
0.15 0 0
0.16 0 0
0.17 0 0
0.18 0 0
0.19 0 0
0.2 0 0
0.21 0 0
0.22 0 0
0.23 0 0
0.24 0 0
0.25 0 0
0.26 0 0
0.27 0 0
0.28 0 0
0.29 0 0
0.3 0 0
0.31 0 0
0.32 0 0
0.33 0 0
0.34 0 0
0.35 0 0
0.36 0 0
0.37 0 0
0.38 0 0
0.39 0 0
0.4 0 0
0.41 0 0
0.42 0 0
0.43 0 0
0.44 0 0
0.45 0 0
0.46 0 0
0.47 0 0
0.48 0 0
0.49 0 0
0.5 0 0
0.51 0 0
0.52 0 0
0.53 0 0
0.54 0 0
0.55 0 0
0.56 0 0
0.57 0 0
0.58 0 0
0.59 0 0
0.6 0 0
0.61 0 0
0 0.01 0
0.01 0.01 0
0.02 0.01 0
0.03 0.01 0
0.04 0.01 0
0.05 0.01 0
0.06 0.01 0
0.07 0.01 0
0.08 0.01 0
0.09 0.01 0
0.1 0.01 0
0.11 0.01 0
0.12 0.01 0
0.13 0.01 0
0.14 0.01 0
0.15 0.01 0
0.16 0.01 0
0.17 0.01 0
0.18 0.01 0
0.19 0.01 0
0.2 0.01 0
0.21 0.01 0
0.22 0.01 0
0.23 0.01 0
0.24 0.01 0
0.25 0.01 0
0.26 0.01 0
0.27 0.01 0
0.28 0.01 0
0.29 0.01 0
0.3 0.01 0
0.31 0.01 0
0.32 0.01 0
0.33 0.01 0
0.34 0.01 0
0.35 0.01 0
0.36 0.01 0
0.37 0.01 0
0.38 0.01 0
0.39 0.01 0
0.4 0.01 0
0.41 0.01 0
0.42 0.01 0
0.43 0.01 0
0.44 0.01 0
0.45 0.01 0
0.46 0.01 0
0.47 0.01 0
0.48 0.01 0
0.49 0.01 0
0.5 0.01 0
0.51 0.01 0
0.52 0.01 0
0.53 0.01 0
0.54 0.01 0
0.55 0.01 0
0.56 0.01 0
0.57 0.01 0
0.58 0.01 0
0.59 0.01 0
0.6 0.01 0
0.61 0.01 0
0 0.02 0
0.01 0.02 0
0.02 0.02 0
0.03 0.02 0
0.04 0.02 0
0.05 0.02 0
0.06 0.02 0
0.07 0.02 0
0.08 0.02 0
0.09 0.02 0
0.1 0.02 0
0.11 0.02 0
0.12 0.02 0
0.13 0.02 0
0.14 0.02 0
0.15 0.02 0
0.16 0.02 0
0.17 0.02 0
0.18 0.02 0
0.19 0.02 0
0.2 0.02 0
0.21 0.02 0
0.22 0.02 0
0.23 0.02 0
0.24 0.02 0
0.25 0.02 0
0.26 0.02 0
0.27 0.02 0
0.28 0.02 0
0.29 0.02 0
0.3 0.02 0
0.31 0.02 0
0.32 0.02 0
0.33 0.02 0
0.34 0.02 0
0.35 0.02 0
0.36 0.02 0
0.37 0.02 0
0.38 0.02 0
0.39 0.02 0
0.4 0.02 0
0.41 0.02 0
0.42 0.02 0
0.43 0.02 0
0.44 0.02 0
0.45 0.02 0
0.46 0.02 0
0.47 0.02 0
0.48 0.02 0
0.49 0.02 0
0.5 0.02 0
0.51 0.02 0
0.52 0.02 0
0.53 0.02 0
0.54 0.02 0
0.55 0.02 0
0.56 0.02 0
0.57 0.02 0
0.58 0.02 0
0.59 0.02 0
0.6 0.02 0
0.61 0.02 0
0 0.03 0
0.01 0.03 0
0.02 0.03 0
0.03 0.03 0
0.04 0.03 0
0.05 0.03 0
0.06 0.03 0
0.07 0.03 0
0.08 0.03 0
0.09 0.03 0
0.1 0.03 0
0.11 0.03 0
0.12 0.03 0
0.13 0.03 0
0.14 0.03 0
0.15 0.03 0
0.16 0.03 0
0.17 0.03 0
0.18 0.03 0
0.19 0.03 0
0.2 0.03 0
0.21 0.03 0
0.22 0.03 0
0.23 0.03 0
0.24 0.03 0
0.25 0.03 0
0.26 0.03 0
0.27 0.03 0
0.28 0.03 0
0.29 0.03 0
0.3 0.03 0
0.31 0.03 0
0.32 0.03 0
0.33 0.03 0
0.34 0.03 0
0.35 0.03 0
0.36 0.03 0
0.37 0.03 0
0.38 0.03 0
0.39 0.03 0
0.4 0.03 0
0.41 0.03 0
0.42 0.03 0
0.43 0.03 0
0.44 0.03 0
0.45 0.03 0
0.46 0.03 0
0.47 0.03 0
0.48 0.03 0
0.49 0.03 0
0.5 0.03 0
0.51 0.03 0
0.52 0.03 0
0.53 0.03 0
0.54 0.03 0
0.55 0.03 0
0.56 0.03 0
0.57 0.03 0
0.58 0.03 0
0.59 0.03 0
0.6 0.03 0
0.61 0.03 0
0 0.04 0
0.01 0.04 0
0.02 0.04 0
0.03 0.04 0
0.04 0.04 0
0.05 0.04 0
0.06 0.04 0
0.07 0.04 0
0.08 0.04 0
0.09 0.04 0
0.1 0.04 0
0.11 0.04 0
0.12 0.04 0
0.13 0.04 0
0.14 0.04 0
0.15 0.04 0
0.16 0.04 0
0.17 0.04 0
0.18 0.04 0
0.19 0.04 0
0.2 0.04 0
0.21 0.04 0
0.22 0.04 0
0.23 0.04 0
0.24 0.04 0
0.25 0.04 0
0.26 0.04 0
0.27 0.04 0
0.28 0.04 0
0.29 0.04 0
0.3 0.04 0
0.31 0.04 0
0.32 0.04 0
0.33 0.04 0
0.34 0.04 0
0.35 0.04 0
0.36 0.04 0
0.37 0.04 0
0.38 0.04 0
0.39 0.04 0
0.4 0.04 0
0.41 0.04 0
0.42 0.04 0
0.43 0.04 0
0.44 0.04 0
0.45 0.04 0
0.46 0.04 0
0.47 0.04 0
0.48 0.04 0
0.49 0.04 0
0.5 0.04 0
0.51 0.04 0
0.52 0.04 0
0.53 0.04 0
0.54 0.04 0
0.55 0.04 0
0.56 0.04 0
0.57 0.04 0
0.58 0.04 0
0.59 0.04 0
0.6 0.04 0
0.61 0.04 0
0 0.05 0
0.01 0.05 0
0.02 0.05 0
0.03 0.05 0
0.04 0.05 0
0.05 0.05 0
0.06 0.05 0
0.07 0.05 0
0.08 0.05 0
0.09 0.05 0
0.1 0.05 0
0.11 0.05 0
0.12 0.05 0
0.13 0.05 0
0.14 0.05 0
0.15 0.05 0
0.16 0.05 0
0.17 0.05 0
0.18 0.05 0
0.19 0.05 0
0.2 0.05 0
0.21 0.05 0
0.22 0.05 0
0.23 0.05 0
0.24 0.05 0
0.25 0.05 0
0.26 0.05 0
0.27 0.05 0
0.28 0.05 0
0.29 0.05 0
0.3 0.05 0
0.31 0.05 0
0.32 0.05 0
0.33 0.05 0
0.34 0.05 0
0.35 0.05 0
0.36 0.05 0
0.37 0.05 0
0.38 0.05 0
0.39 0.05 0
0.4 0.05 0
0.41 0.05 0
0.42 0.05 0
0.43 0.05 0
0.44 0.05 0
0.45 0.05 0
0.46 0.05 0
0.47 0.05 0
0.48 0.05 0
0.49 0.05 0
0.5 0.05 0
0.51 0.05 0
0.52 0.05 0
0.53 0.05 0
0.54 0.05 0
0.55 0.05 0
0.56 0.05 0
0.57 0.05 0
0.58 0.05 0
0.59 0.05 0
0.6 0.05 0
0.61 0.05 0
0 0.06 0
0.01 0.06 0
0.02 0.06 0
0.03 0.06 0
0.04 0.06 0
0.05 0.06 0
0.06 0.06 0
0.07 0.06 0
0.08 0.06 0
0.09 0.06 0
0.1 0.06 0
0.11 0.06 0
0.12 0.06 0
0.13 0.06 0
0.14 0.06 0
0.15 0.06 0
0.16 0.06 0
0.17 0.06 0
0.18 0.06 0
0.19 0.06 0
0.2 0.06 0
0.21 0.06 0
0.22 0.06 0
0.23 0.06 0
0.24 0.06 0
0.25 0.06 0
0.26 0.06 0
0.27 0.06 0
0.28 0.06 0
0.29 0.06 0
0.3 0.06 0
0.31 0.06 0
0.32 0.06 0
0.33 0.06 0
0.34 0.06 0
0.35 0.06 0
0.36 0.06 0
0.37 0.06 0
0.38 0.06 0
0.39 0.06 0
0.4 0.06 0
0.41 0.06 0
0.42 0.06 0
0.43 0.06 0
0.44 0.06 0
0.45 0.06 0
0.46 0.06 0
0.47 0.06 0
0.48 0.06 0
0.49 0.06 0
0.5 0.06 0
0.51 0.06 0
0.52 0.06 0
0.53 0.06 0
0.54 0.06 0
0.55 0.06 0
0.56 0.06 0
0.57 0.06 0
0.58 0.06 0
0.59 0.06 0
0.6 0.06 0
0.61 0.06 0
0 0.07 0
0.01 0.07 0
0.02 0.07 0
0.03 0.07 0
0.04 0.07 0
0.05 0.07 0
0.06 0.07 0
0.07 0.07 0
0.08 0.07 0
0.09 0.07 0
0.1 0.07 0
0.11 0.07 0
0.12 0.07 0
0.13 0.07 0
0.14 0.07 0
0.15 0.07 0
0.16 0.07 0
0.17 0.07 0
0.18 0.07 0
0.19 0.07 0
0.2 0.07 0
0.21 0.07 0
0.22 0.07 0
0.23 0.07 0
0.24 0.07 0
0.25 0.07 0
0.26 0.07 0
0.27 0.07 0
0.28 0.07 0
0.29 0.07 0
0.3 0.07 0
0.31 0.07 0
0.32 0.07 0
0.33 0.07 0
0.34 0.07 0
0.35 0.07 0
0.36 0.07 0
0.37 0.07 0
0.38 0.07 0
0.39 0.07 0
0.4 0.07 0
0.41 0.07 0
0.42 0.07 0
0.43 0.07 0
0.44 0.07 0
0.45 0.07 0
0.46 0.07 0
0.47 0.07 0
0.48 0.07 0
0.49 0.07 0
0.5 0.07 0
0.51 0.07 0
0.52 0.07 0
0.53 0.07 0
0.54 0.07 0
0.55 0.07 0
0.56 0.07 0
0.57 0.07 0
0.58 0.07 0
0.59 0.07 0
0.6 0.07 0
0.61 0.07 0
0 0.08 0
0.01 0.08 0
0.02 0.08 0
0.03 0.08 0
0.04 0.08 0
0.05 0.08 0
0.06 0.08 0
0.07 0.08 0
0.08 0.08 0
0.09 0.08 0
0.1 0.08 0
0.11 0.08 0
0.12 0.08 0
0.13 0.08 0
0.14 0.08 0
0.15 0.08 0
0.16 0.08 0
0.17 0.08 0
0.18 0.08 0
0.19 0.08 0
0.2 0.08 0
0.21 0.08 0
0.22 0.08 0
0.23 0.08 0
0.24 0.08 0
0.25 0.08 0
0.26 0.08 0
0.27 0.08 0
0.28 0.08 0
0.29 0.08 0
0.3 0.08 0
0.31 0.08 0
0.32 0.08 0
0.33 0.08 0
0.34 0.08 0
0.35 0.08 0
0.36 0.08 0
0.37 0.08 0
0.38 0.08 0
0.39 0.08 0
0.4 0.08 0
0.41 0.08 0
0.42 0.08 0
0.43 0.08 0
0.44 0.08 0
0.45 0.08 0
0.46 0.08 0
0.47 0.08 0
0.48 0.08 0
0.49 0.08 0
0.5 0.08 0
0.51 0.08 0
0.52 0.08 0
0.53 0.08 0
0.54 0.08 0
0.55 0.08 0
0.56 0.08 0
0.57 0.08 0
0.58 0.08 0
0.59 0.08 0
0.6 0.08 0
0.61 0.08 0
0 0.09 0
0.01 0.09 0
0.02 0.09 0
0.03 0.09 0
0.04 0.09 0
0.05 0.09 0
0.06 0.09 0
0.07 0.09 0
0.08 0.09 0
0.09 0.09 0
0.1 0.09 0
0.11 0.09 0
0.12 0.09 0
0.13 0.09 0
0.14 0.09 0
0.15 0.09 0
0.16 0.09 0
0.17 0.09 0
0.18 0.09 0
0.19 0.09 0
0.2 0.09 0
0.21 0.09 0
0.22 0.09 0
0.23 0.09 0
0.24 0.09 0
0.25 0.09 0
0.26 0.09 0
0.27 0.09 0
0.28 0.09 0
0.29 0.09 0
0.3 0.09 0
0.31 0.09 0
0.32 0.09 0
0.33 0.09 0
0.34 0.09 0
0.35 0.09 0
0.36 0.09 0
0.37 0.09 0
0.38 0.09 0
0.39 0.09 0
0.4 0.09 0
0.41 0.09 0
0.42 0.09 0
0.43 0.09 0
0.44 0.09 0
0.45 0.09 0
0.46 0.09 0
0.47 0.09 0
0.48 0.09 0
0.49 0.09 0
0.5 0.09 0
0.51 0.09 0
0.52 0.09 0
0.53 0.09 0
0.54 0.09 0
0.55 0.09 0
0.56 0.09 0
0.57 0.09 0
0.58 0.09 0
0.59 0.09 0
0.6 0.09 0
0.61 0.09 0
0 0.1 0
0.01 0.1 0
0.02 0.1 0
0.03 0.1 0
0.04 0.1 0
0.05 0.1 0
0.06 0.1 0
0.07 0.1 0
0.08 0.1 0
0.09 0.1 0
0.1 0.1 0
0.11 0.1 0
0.12 0.1 0
0.13 0.1 0
0.14 0.1 0
0.15 0.1 0
0.16 0.1 0
0.17 0.1 0
0.18 0.1 0
0.19 0.1 0
0.2 0.1 0
0.21 0.1 0
0.22 0.1 0
0.23 0.1 0
0.24 0.1 0
0.25 0.1 0
0.26 0.1 0
0.27 0.1 0
0.28 0.1 0
0.29 0.1 0
0.3 0.1 0
0.31 0.1 0
0.32 0.1 0
0.33 0.1 0
0.34 0.1 0
0.35 0.1 0
0.36 0.1 0
0.37 0.1 0
0.38 0.1 0
0.39 0.1 0
0.4 0.1 0
0.41 0.1 0
0.42 0.1 0
0.43 0.1 0
0.44 0.1 0
0.45 0.1 0
0.46 0.1 0
0.47 0.1 0
0.48 0.1 0
0.49 0.1 0
0.5 0.1 0
0.51 0.1 0
0.52 0.1 0
0.53 0.1 0
0.54 0.1 0
0.55 0.1 0
0.56 0.1 0
0.57 0.1 0
0.58 0.1 0
0.59 0.1 0
0.6 0.1 0
0.61 0.1 0
0 0.11 0
0.01 0.11 0
0.02 0.11 0
0.03 0.11 0
0.04 0.11 0
0.05 0.11 0
0.06 0.11 0
0.07 0.11 0
0.08 0.11 0
0.09 0.11 0
0.1 0.11 0
0.11 0.11 0
0.12 0.11 0
0.13 0.11 0
0.14 0.11 0
0.15 0.11 0
0.16 0.11 0
0.17 0.11 0
0.18 0.11 0
0.19 0.11 0
0.2 0.11 0
0.21 0.11 0
0.22 0.11 0
0.23 0.11 0
0.24 0.11 0
0.25 0.11 0
0.26 0.11 0
0.27 0.11 0
0.28 0.11 0
0.29 0.11 0
0.3 0.11 0
0.31 0.11 0
0.32 0.11 0
0.33 0.11 0
0.34 0.11 0
0.35 0.11 0
0.36 0.11 0
0.37 0.11 0
0.38 0.11 0
0.39 0.11 0
0.4 0.11 0
0.41 0.11 0
0.42 0.11 0
0.43 0.11 0
0.44 0.11 0
0.45 0.11 0
0.46 0.11 0
0.47 0.11 0
0.48 0.11 0
0.49 0.11 0
0.5 0.11 0
0.51 0.11 0
0.52 0.11 0
0.53 0.11 0
0.54 0.11 0
0.55 0.11 0
0.56 0.11 0
0.57 0.11 0
0.58 0.11 0
0.59 0.11 0
0.6 0.11 0
0.61 0.11 0
0 0.12 0
0.01 0.12 0
0.02 0.12 0
0.03 0.12 0
0.04 0.12 0
0.05 0.12 0
0.06 0.12 0
0.07 0.12 0
0.08 0.12 0
0.09 0.12 0
0.1 0.12 0
0.11 0.12 0
0.12 0.12 0
0.13 0.12 0
0.14 0.12 0
0.15 0.12 0
0.16 0.12 0
0.17 0.12 0
0.18 0.12 0
0.19 0.12 0
0.2 0.12 0
0.21 0.12 0
0.22 0.12 0
0.23 0.12 0
0.24 0.12 0
0.25 0.12 0
0.26 0.12 0
0.27 0.12 0
0.28 0.12 0
0.29 0.12 0
0.3 0.12 0
0.31 0.12 0
0.32 0.12 0
0.33 0.12 0
0.34 0.12 0
0.35 0.12 0
0.36 0.12 0
0.37 0.12 0
0.38 0.12 0
0.39 0.12 0
0.4 0.12 0
0.41 0.12 0
0.42 0.12 0
0.43 0.12 0
0.44 0.12 0
0.45 0.12 0
0.46 0.12 0
0.47 0.12 0
0.48 0.12 0
0.49 0.12 0
0.5 0.12 0
0.51 0.12 0
0.52 0.12 0
0.53 0.12 0
0.54 0.12 0
0.55 0.12 0
0.56 0.12 0
0.57 0.12 0
0.58 0.12 0
0.59 0.12 0
0.6 0.12 0
0.61 0.12 0
0 0.13 0
0.01 0.13 0
0.02 0.13 0
0.03 0.13 0
0.04 0.13 0
0.05 0.13 0
0.06 0.13 0
0.07 0.13 0
0.08 0.13 0
0.09 0.13 0
0.1 0.13 0
0.11 0.13 0
0.12 0.13 0
0.13 0.13 0
0.14 0.13 0
0.15 0.13 0
0.16 0.13 0
0.17 0.13 0
0.18 0.13 0
0.19 0.13 0
0.2 0.13 0
0.21 0.13 0
0.22 0.13 0
0.23 0.13 0
0.24 0.13 0
0.25 0.13 0
0.26 0.13 0
0.27 0.13 0
0.28 0.13 0
0.29 0.13 0
0.3 0.13 0
0.31 0.13 0
0.32 0.13 0
0.33 0.13 0
0.34 0.13 0
0.35 0.13 0
0.36 0.13 0
0.37 0.13 0
0.38 0.13 0
0.39 0.13 0
0.4 0.13 0
0.41 0.13 0
0.42 0.13 0
0.43 0.13 0
0.44 0.13 0
0.45 0.13 0
0.46 0.13 0
0.47 0.13 0
0.48 0.13 0
[...]
POINT_DATA 93248

SCALARS v double
LOOKUP_TABLE default
0
0
0
0
0
0
0
0
0
0
0
0
0
0
0
0
0
0
0
0
0
0
0
0
0
0
0
0
0
0
0
0
0
0
0
0
0
0
-0.0835906
0
0
0
0
0
-0.0883597
0
0
0
0
0
0
0
0
0
0
0
0
0
0
0
0
0
0
0.0454599
-0.0722008
0.0484416
0.034943
0.01848
0
-0.00407346
-0.0117281
-0.0168542
-0.0204535
-0.0237897
-0.0285847
-0.0285543
-0.028582
-0.0285167
-0.0286261
-0.0279473
-0.027356
-0.0259954
-0.0338028
-0.0294177
-0.0252648
-0.0277427
-0.0280751
-0.0281281
-0.028163
-0.0281828
-0.0281703
-0.0281064
-0.0279873
-0.028047
-0.0294864
-0.0281177
-0.0273019
-0.027756
-0.0556053
-0.0268346
-0.0264035
-0.0231764
-0.0301929
-0.0510151
-0.0305888
-0.0313292
-0.0344604
-0.0483431
-0.102828
-0.0297701
-0.0398478
-0.027742
-0.0276269
-0.0271232
-0.0302572
-0.0345156
-0.0526919
-0.0332107
-0.0726462
-0.0288155
-0.0252125
-0.0220597
-0.0176572
0
0
0.0267857
0.051318
0.0590704
0.0548844
0.0383192
0.0313425
0.0200314
0.00839193
-0.00277247
-0.0123988
-0.0212131
-0.105858
-0.0348025
-0.0366279
-0.0315293
-0.0385504
-0.037299
-0.0384955
-0.0411439
-0.126212
-0.0384466
-0.0411695
-0.0384507
-0.0379127
-0.0378928
-0.0379723
-0.0380327
-0.0380317
-0.037934
-0.0376866
-0.0374956
-0.0803599
-0.0378397
-0.0366411
-0.0380528
-0.0373953
-0.0347307
-0.0323139
-0.0377262
-0.0411077
-0.0429993
-0.0425326
-0.0438288
-0.045033
-0.0474941
-0.0467955
-0.041585
-0.0398478
-0.0382119
-0.0385839
-0.0406895
-0.0409109
-0.043109
-0.0460803
-0.0415869
-0.039305
-0.083496
-0.0315509
-0.0276478
-0.0238303
0
0
0.0140609
0.0351819
0.0448489
0.0525442
0.0548326
0.0427327
0.0318352
0.0205915
0.0091001
-0.00284111
-0.0133975
-0.0250351
-0.0317918
-0.0365637
-0.0398358
-0.0421895
0
-0.0425225
-0.0440473
-0.0454695
-0.0438247
-0.0435453
-0.0428511
-0.0425901
-0.0425947
-0.0426842
-0.042766
-0.0427995
-0.0427748
-0.0427445
-0.0430097
-0.0444837
-0.0445545
-0.0444177
-0.0414964
-0.0407363
-0.0397809
-0.0397371
-0.0427007
-0.0452506
-0.0472416
-0.0485819
-0.0479302
-0.0489489
-0.0498062
-0.0459411
-0.0445975
-0.0436483
-0.0441885
-0.044121
-0.0445203
-0.0447595
-0.0452272
-0.045173
-0.0434632
-0.0415318
-0.0395979
-0.0345937
-0.0310713
-0.0288974
0
0
0.00843356
0.023896
0.0373104
0.0405533
0.0416078
0.0369742
0.0300429
0.0216319
0.012388
0.00252472
-0.007421
-0.0174297
-0.0257686
-0.0323679
-0.0378455
-0.0406244
-0.0412525
-0.0430313
-0.0445994
-0.0445656
-0.0445614
-0.0446025
-0.0445979
-0.0446652
-0.0447961
-0.0449324
-0.0450478
-0.0451237
-0.0451599
-0.0452041
-0.0454017
-0.045999
-0.0469568
-0.0465009
-0.0448138
-0.043793
-0.0433151
-0.0435011
-0.0453198
-0.0470365
-0.0484892
-0.0495189
-0.0497379
-0.0500788
-0.0495505
-0.0456992
-0.0462363
-0.0462221
-0.0463928
-0.0463089
-0.0461769
-0.0459149
-0.0454519
-0.044575
-0.0431755
-0.0412564
-0.0387162
-0.0352351
-0.0325641
-0.0330536
0
0
0.00540503
0.0152593
0.0232842
0.0271492
0.0282456
0.0263901
0.022067
0.0161715
0.00975215
0.00256972
-0.00527585
-0.0135272
-0.0213523
-0.0282185
-0.0331925
-0.0380177
-0.0403175
-0.0422738
-0.043217
-0.0439298
-0.0445497
-0.0450504
-0.0454455
-0.0457818
-0.0460726
-0.0462817
-0.0464549
-0.0465813
-0.0466456
-0.0466482
-0.0466243
-0.0468622
-0.0493695
-0.0481227
-0.0468296
-0.0460845
-0.0459084
-0.0462968
-0.0472241
-0.0482348
-0.0491345
-0.0498154
-0.0502448
-0.0505314
-0.0502033
0
-0.0474957
-0.0477559
-0.0476203
-0.0473668
-0.0469923
-0.0463934
-0.0454715
-0.0442822
-0.0428274
-0.0410157
-0.0388462
-0.036396
-0.0336367
-0.0361025
-0.0981113
0
0.00354359
0.00955935
0.0142516
0.0167425
0.0172717
0.0163737
0.0130257
0
0.00458406
-0.000408607
-0.00634252
-0.0130591
-0.0197182
-0.0260407
-0.0317315
-0.0371655
-0.0386674
-0.0395454
-0.0417605
-0.0433489
-0.044599
-0.045515
-0.0462023
-0.04675
-0.0472028
-0.047459
-0.0477126
-0.0479073
-0.0479956
-0.0479347
-0.0476555
-0.0472601
-0.107238
-0.0493773
-0.0482705
-0.0479375
-0.0479726
-0.0483143
-0.0488482
-0.0494205
-0.0499269
-0.0502992
-0.0505667
-0.0505137
-0.0498142
-0.0477035
-0.0482422
-0.0484947
-0.0484207
-0.0481619
-0.0477254
-0.0469813
-0.0457979
-0.0444973
-0.0431101
-0.0416446
-0.0405981
-0.0415353
-0.0445649
-0.0367343
0
0
0.00230866
0.00570525
0.00814672
0.00915564
0.0086931
0.00669833
0.00533724
0.00232273
-0.000862889
-0.00466822
-0.00944532
-0.0153371
-0.0204836
-0.0257906
-0.0311057
-0.0375928
-0.0375988
-0.0391526
-0.0415818
-0.043644
-0.0452965
-0.0464115
-0.0472231
-0.0478896
-0.0484849
-0.0487268
-0.0491146
-0.0494016
-0.0495366
-0.0495014
-0.0494172
-0.0496798
-0.0515628
-0.050837
-0.0502136
-0.0499458
-0.0499598
-0.0501614
-0.0504538
-0.050756
-0.0510151
-0.051197
-0.0511631
-0.0509771
-0.0504647
-0.0496931
-0.0495241
-0.0494609
-0.0493077
-0.049047
-0.0486474
-0.047919
-0.0464948
-0.0452405
-0.0440319
-0.0427176
-0.0414886
-0.0767962
-0.0278216
-0.0359239
0
0
0.0014539
0.00299613
0.00382569
0.00364422
0.00245432
0.000467712
-0.00144539
-0.00377349
-0.00634432
-0.0094384
-0.0135673
-0.020468
-0.0213523
-0.0266049
-0.0299194
-0.030432
-0.03697
-0.0411733
-0.043481
-0.0451137
-0.0468532
-0.0477689
-0.0485191
-0.0491883
-0.0487268
-0.0504198
-0.0508664
-0.0511931
-0.0513572
-0.0512815
-0.0511779
-0.0513923
-0.0519917
-0.0520407
-0.0519184
-0.0518442
-0.0518798
-0.0519894
-0.0521273
-0.0522531
-0.0523343
-0.0523392
-0.052215
-0.0519746
-0.0516066
-0.0511952
-0.0508921
-0.0506385
-0.0503654
-0.0500605
-0.049734
-0.0492781
-0.0474523
-0.046482
-0.0456163
-0.0446731
-0.0437491
-0.0427234
-0.038226
-0.0367828
0
0
0.000845113
0.00102386
0.000644367
-0.000493185
-0.00230311
-0.00454545
-0.00682781
-0.00911958
-0.0114674
-0.0140492
-0.016779
-0.0173344
-0.0240091
-0.0284215
-0.0315293
-0.0337993
-0.0381016
-0.0417204
-0.0442661
-0.0460469
-0.0605996
-0.0490809
-0.0498618
-0.0506598
-0.0515213
-0.0520801
-0.0526906
-0.0531985
-0.053482
-0.0532835
-0.0527383
-0.0528311
-0.0532288
-0.0534977
-0.0536253
-0.0536854
-0.0537698
-0.0538407
-0.0538871
-0.0538987
-0.0538606
-0.0537541
-0.0535605
-0.0532936
-0.0529724
-0.0526318
-0.0522878
-0.0519257
-0.0515209
-0.0510764
-0.0506316
-0.0501749
-0.0485539
-0.0482734
-0.0476683
-0.0468513
-0.0459051
-0.0445362
-0.0419286
-0.0383194
0
0
0.000399815
-0.000460115
-0.00177954
-0.00374509
-0.00612647
-0.00876027
-0.011379
-0.0138679
-0.0162892
-0.0188138
-0.0214909
-0.0242097
-0.0282005
-0.0317909
-0.0343609
-0.0370742
-0.040247
-0.0431755
-0.0456033
-0.0475941
-0.0493636
-0.0504782
-0.0513936
-0.052188
-0.0527044
-0.0538184
-0.0547346
-0.0555234
-0.0561143
-0.0562687
-0.0533419
-0.0540955
-0.0548234
-0.0552441
-0.0554696
-0.0556053
-0.055652
-0.0557408
-0.0557369
-0.0556756
-0.0555586
-0.055379
-0.0551149
-0.0548087
-0.0544791
-0.0541314
-0.0537505
-0.0533059
-0.0527636
-0.0521033
-0.0511982
-0.0501613
-0.0517043
-0.0509707
-0.0500234
-0.049066
-0.0480011
-0.0464978
-0.0440524
-0.0400134
0
0
6.34576e-05
-0.00161941
-0.00368347
-0.00809247
-0.00932508
-0.0124017
-0.0154105
-0.0182141
-0.0208809
-0.0235915
-0.0264534
-0.029535
-0.0328829
-0.036028
-0.0373097
-0.0401615
-0.0429431
-0.0454261
-0.0475901
-0.0493523
-0.0509761
-0.0521537
-0.0531126
-0.0539775
-0.0548358
-0.0558955
-0.057046
-0.0581527
-0.0590096
-0.0593058
0
-0.0562243
-0.0569622
-0.0572451
-0.0574223
-0.0575582
-0.0576656
-0.0576899
-0.0576742
-0.0575648
-0.0573955
-0.0571865
-0.0568173
-0.0564533
-0.0560953
-0.055728
-0.0553211
-0.054825
-0.0542104
-0.0536192
-0.0529746
-0.052532
-0.0529911
-0.0526919
-0.0519859
-0.0510985
-0.0500028
-0.0484249
-0.0459014
-0.0417006
0
0
-0.000204094
-0.00258349
-0.00535071
-0.00857546
-0.0120917
-0.0156705
-0.0191019
-0.0222811
-0.0252683
-0.0282602
-0.0312928
-0.0344226
-0.0375979
-0.040854
0
-0.043595
-0.0461116
-0.0481753
-0.0501623
-0.0517312
-0.0530185
-0.0540608
-0.0549722
-0.055856
-0.0568288
-0.0580322
-0.0595426
-0.0610982
-0.0620943
-0.0609017
-0.0581731
-0.0583118
-0.0587195
-0.059047
-0.0592981
-0.0595047
-0.0596727
-0.0597811
-0.0597407
-0.0595548
-0.059326
-0.059264
-0.0586031
-0.0581754
-0.0577969
-0.0574252
-0.0570231
-0.0565094
-0.0558091
-0.0554648
-0.0551029
-0.0547924
-0.0546499
-0.0543329
-0.0537745
-0.0529908
-0.051903
-0.0503001
-0.0476915
-0.0433436
0
0
-0.000423554
-0.00340265
-0.00676632
-0.0104064
-0.0145689
-0.0186539
-0.0225354
-0.0261236
-0.0294598
-0.0335258
-0.0359428
-0.0390423
-0.0419166
-0.0443083
-0.0452273
-0.0472921
-0.0492074
-0.0509732
-0.0531738
-0.0544678
-0.0553806
-0.0561726
-0.0569366
-0.0577435
-0.0587033
-0.0600265
-0.0620499
-0.0645589
-0.067699
-0.0637943
-0.0613002
-0.060622
-0.0606657
-0.0609039
-0.0611863
-0.0614854
-0.0617443
-0.0620299
-0.0619695
-0.0616181
-0.0610924
-0.0601595
-0.0601924
-0.0599048
-0.0595533
-0.0592058
-0.0588539
-0.0583727
-0.0573849
-0.0575037
-0.0573129
-0.056946
-0.056528
-0.0561396
-0.0556201
-0.0548865
-0.0537066
-0.0521541
-0.0494458
-0.0449295
0
0
-0.000611169
-0.00412726
-0.00809247
-0.0125727
-0.0169568
-0.0214554
-0.02578
-0.0297969
-0.0335258
-0.0370807
-0.0404315
-0.0435321
-0.0462248
-0.0483436
-0.0498149
-0.0512523
-0.0525574
-0.0538
-0.0570143
-0.0574909
-0.0578683
-0.0583643
-0.0589424
-0.0595804
-0.0603453
-0.0614669
-0.0636309
-0.0466456
-0.0833587
-0.0663505
-0.0627797
-0.0622373
-0.0623607
-0.0626518
-0.0630259
-0.0635231
-0.0642152
-0.0646272
-0.0645169
-0.0638941
-0.0631692
-0.0625013
-0.0620994
-0.0617233
-0.0613525
-0.0610286
-0.0607582
-0.0604377
-0.0463928
-0.0598044
-0.0596036
-0.0590934
-0.0583736
-0.0581015
-0.0576085
-0.056994
-0.0561432
-0.0541508
-0.0511917
-0.0464383
0
0
-0.000776448
-0.004744
-0.00921244
-0.0140812
-0.0190862
-0.0240804
-0.0288679
-0.0333258
-0.0374443
-0.041273
-0.044793
-0.0479343
-0.0505612
-0.0525839
-0.0540615
-0.0551979
-0.0560138
-0.0563479
-0.116236
-0.0602969
-0.0602407
-0.0605996
-0.0610088
-0.0614001
-0.0617153
-0.0617958
-0.0609048
-0.0554578
-0.0298165
-0.0535365
-0.0602085
-0.0624762
-0.0634722
-0.064098
-0.0646775
-0.065437
-0.066519
-0.0676817
-0.0677477
-0.0664913
-0.0653565
-0.0645724
-0.0640239
-0.0635707
-0.0631498
-0.0628185
-0.062519
-0.062183
-0.0617005
-0.0621138
-0.0618582
-0.0614184
-0.0613091
-0.060356
-0.0596541
-0.0591425
-0.0580817
-0.0561608
-0.0529382
-0.0478223
0
0
-0.000956786
-0.00525039
-0.0102382
-0.0156063
-0.0211296
-0.0265786
-0.0318255
-0.0367368
-0.0412547
-0.0453759
-0.0490421
-0.0522505
-0.054885
-0.0568728
-0.0582684
-0.0592487
-0.0600034
-0.0608321
-0.0629762
-0.0630752
-0.0630811
-0.0631871
-0.0633253
-0.0634043
-0.0632925
-0.0627119
-0.0610625
-0.0575676
-0.0527392
-0.057717
-0.0613839
-0.0634442
-0.0646313
-0.0654368
-0.0661376
-0.0671154
-0.0687995
-0.0714906
-0.0731813
-0.0695587
-0.0674484
-0.0664145
-0.0658124
-0.0653485
-0.0648818
-0.0645906
-0.064305
-0.0640693
-0.0641301
-0.0648826
-0.0642199
-0.0635572
-0.0631148
-0.0624936
-0.0612788
-0.0615551
-0.0604725
-0.0585506
-0.0549077
-0.0489836
0
0
-0.00122136
0.00102386
-0.0112427
-0.0171635
-0.0231518
-0.0289141
-0.0346583
-0.0400623
-0.0450066
-0.0494296
-0.053149
-0.0564465
-0.059166
-0.0611878
-0.0625047
-0.0633404
-0.0639679
-0.0646454
-0.0654586
-0.0657519
-0.0658204
-0.065822
-0.0657785
-0.0656458
-0.0653214
-0.0646224
-0.0632997
-0.0620146
-0.061854
-0.063034
-0.0643483
-0.0654204
-0.0662428
-0.066905
-0.0674067
-0.0682094
-0.0699451
-0.074705
-0.0882544
-0.0720914
-0.0684917
-0.0676135
-0.0672442
-0.0669488
-0.0648818
-0.0663493
-0.0660949
-0.0658805
-0.0661778
-0.0682398
-0.0665073
-0.0656397
-0.0653569
-0.0654781
-0.0668752
-0.0650562
-0.0635778
-0.0619144
-0.0579839
-0.0497447
0
0
-0.00121342
-0.00636516
-0.0122525
-0.0187081
-0.0252473
-0.0314303
-0.0375471
-0.0434075
-0.0487884
-0.0535395
-0.0569939
-0.0604727
-0.063411
-0.0655761
-0.0667968
-0.0674317
-0.0678458
-0.0683141
-0.0686331
-0.0687234
-0.0686709
-0.0685455
-0.068366
-0.0681165
-0.0677569
-0.0672441
-0.0665886
-0.0655532
-0.0674303
-0.0672026
-0.0673224
-0.0676901
-0.0681145
-0.0684906
-0.0684783
-0.0683519
-0.067214
-0.0616074
-0.0348869
-0.059215
-0.0655476
-0.0675409
-0.0681475
-0.0682703
-0.0681734
-0.0680813
-0.0679036
-0.0676507
-0.067755
-0.110429
-0.0683293
-0.0676553
-0.0676289
-0.0677672
-0.0679134
-0.0673925
-0.0676148
-0.0668457
-0.0654913
-0.062557
0
0
-0.00128931
-0.00692879
-0.0132123
-0.0204363
-0.0274952
-0.0331719
-0.0400989
-0.0466671
-0.0526414
-0.0579139
-0.0602198
-0.0643664
-0.0676958
-0.0701618
-0.0711683
-0.0715085
-0.0716592
-0.0721305
-0.072131
-0.0719313
-0.0716722
-0.0713886
-0.0710828
-0.070755
-0.0704113
-0.0700727
-0.0696125
-0.068451
-0.117659
-0.0703103
-0.0698645
-0.069979
-0.0701156
-0.0700418
-0.0699938
-0.0691896
-0.0672627
-0.0633291
-0.0579065
-0.0625163
-0.0664064
-0.068297
-0.069202
-0.0696389
-0.0698293
-0.0699027
-0.0699198
-0.0699786
-0.0704097
-0.0718126
-0.0707255
-0.0701861
-0.0700934
-0.0701536
-0.0701873
-0.0702534
-0.0704829
-0.0700763
-0.0683703
-0.0632684
0
0
-0.00139843
-0.00744192
-0.0139919
-0.0335188
-0.0300165
0
-0.0428047
-0.0500739
-0.0565782
-0.0628084
-0.00634252
-0.068587
-0.0720795
-0.0750361
-0.0756043
-0.0755566
-0.0753601
-0.0763485
-0.0758017
-0.0752363
-0.0747569
-0.0743207
-0.0738869
-0.0734757
-0.0731303
-0.0730078
-0.0738296
-0.0724278
-0.0734668
-0.0729573
-0.0726218
-0.0725504
-0.0725519
-0.0723566
-0.0718866
-0.0709473
-0.0694467
-0.0675861
-0.0665231
-0.0674687
-0.0689245
-0.0700179
-0.0707339
-0.0712754
-0.0716218
-0.0718209
-0.0719892
-0.0721857
-0.072485
-0.0728219
-0.0726153
-0.0724795
-0.0725212
-0.0726245
-0.0726462
-0.0728027
-0.0728614
-0.0722426
-0.0700824
-0.0644225
0
0
-0.00152883
-0.00801338
-0.0151581
-0.0232007
-0.0310793
-0.0379071
-0.0457381
-0.0531903
-0.0599345
-0.0656929
-0.0688804
-0.0728668
-0.0755937
-0.0799059
-0.080202
-0.0796515
-0.0788278
-0.112145
-0.0792927
-0.0784544
-0.0778697
-0.0773145
-0.0767315
-0.0761903
-0.075668
-0.0749604
-0.0725488
-0.0742485
-0.0750022
-0.0750662
-0.0750204
-0.0750878
-0.0752546
-0.0751145
-0.0743464
-0.0733904
-0.0722989
-0.0713697
-0.0710379
-0.0712638
-0.0717643
-0.0722511
-0.0725282
-0.0732015
-0.0736137
-0.0738244
-0.0740649
-0.0742928
-0.0744674
-0.0744981
-0.0744372
-0.0745827
-0.0748371
-0.0750713
-0.0749796
-0.0751048
-0.0749425
-0.0740018
-0.0716425
-0.0658051
0
0
-0.00165731
-0.0085575
-0.0161415
-0.0243133
-0.0326152
-0.0406837
-0.0487393
-0.0564525
-0.0635039
-0.0696904
-0.0740053
-0.0774346
-0.079302
-0.158723
-0.0841512
-0.0833748
-0.0829788
-0.0833676
-0.0826353
-0.081853
-0.0811342
-0.080419
-0.079586
-0.0789188
-0.0783375
-0.0776935
-0.0769456
-0.0770564
-0.0771921
-0.0772155
-0.0772597
-0.0775338
-0.0782221
-0.0787487
-0.0771908
-0.0761475
-0.0751287
-0.0744931
-0.0742535
-0.0742818
-0.0744697
-0.0747917
-0.075541
-0.0755027
-0.0757976
-0.0758931
-0.0761825
-0.0764203
-0.0765363
-0.076374
-0.0761752
-0.0765728
-0.0770364
-0.0774587
-0.0772201
-0.0773589
-0.0768931
-0.0755055
-0.0732068
-0.0673342
0
0
-0.00178221
-0.00908467
-0.0170848
-0.0256276
-0.0344193
-0.0431418
-0.0515448
-0.0597252
-0.0672459
-0.0749853
-0.0787796
-0.0823077
-0.0850069
-0.088144
-0.0881176
-0.0874957
-0.0868407
-0.0865279
-0.085902
-0.0851547
-0.084392
-0.0835711
-0.0822992
-0.0816112
-0.0811108
-0.0806042
-0.0801314
-0.0797823
-0.0795615
-0.0793868
-0.0793064
-0.0795908
-0.0810054
-0.0857147
-0.0797965
-0.0790974
-0.077575
-0.0770542
-0.0768861
-0.0768673
-0.076924
-0.077042
-0.0773338
-0.0775488
-0.0777499
-0.0782114
-0.0784179
-0.0786301
-0.0787432
-0.0782865
-0.0774937
-0.0786569
-0.0791023
-0.0792186
-0.0800715
-0.0798515
-0.0788425
-0.0765766
-0.0748018
-0.0689848
0
0
-0.00190925
-0.00961864
-0.018057
-0.0270657
-0.0363788
-0.0455852
-0.0539087
-0.0629293
-0.0704277
-0.0749405
-0.0820923
-0.0867295
-0.0896987
-0.0915568
-0.0919121
-0.0913684
-0.0901244
-0.0900184
-0.0893071
-0.088479
-0.0876873
-0.0868675
-0.084609
-0.0842872
-0.0839646
-0.0835
-0.0829807
-0.0822903
-0.0819019
-0.0814667
-0.0809681
-0.0803599
-0.0783173
-0.0678789
-0.0762386
-0.0767122
-0.078544
-0.0790115
-0.0791347
-0.0791911
-0.0791825
-0.0790823
-0.0792996
-0.0796337
-0.0799576
-0.0802993
-0.0805614
-0.0808303
-0.0810874
-0.0804017
-0.0782273
-0.0811156
-0.0815822
-0.0817849
-0.0822018
-0.0821507
-0.080879
-0.0767962
-0.0766068
-0.0707321
0
0
-0.00204177
-0.0101697
-0.0190739
-0.0286063
-0.0385356
-0.0485911
-0.0591492
-0.0668369
-0.0743422
-0.0808382
-0.086841
-0.0913366
-0.0942486
-0.0957486
-0.0961081
-0.0958484
-0.0961772
-0.0941918
-0.0928837
-0.0918295
-0.0909857
-0.0904166
-0.0506598
-0.0872427
-0.0869775
-0.086341
-0.0856959
-0.0797823
-0.084223
-0.0835691
-0.0825098
-0.0819142
-0.0802841
-0.077901
-0.0791044
-0.0798102
-0.0805837
-0.0810311
-0.0812832
-0.0814247
-0.0813663
-0.0808696
-0.0812392
-0.0817362
-0.0821281
-0.0824287
-0.0826654
-0.0828727
-0.083062
-0.0834067
-0.0302572
-0.0962751
-0.0840335
-0.0841179
-0.0843656
-0.0844805
-0.083496
-0.0220597
-0.0790611
-0.0724937
0
0
-0.00217812
-0.0107325
-0.0201212
-0.0302016
-0.0407284
-0.0513597
-0.0616366
-0.0700255
-0.0781785
-0.08548
-0.0915608
-0.0960588
-0.0988797
-0.10021
-0.100441
-0.100008
-0.0991497
-0.0976766
-0.0962652
-0.0950179
-0.0939118
-0.0927345
-0.0908535
-0.0902352
-0.0897065
-0.0888555
-0.0880242
-0.0871727
-0.0865851
-0.0860713
-0.086083
-0.0845373
-0.0833417
-0.0825224
-0.0824812
-0.0826779
-0.0829742
-0.0832515
-0.0834993
-0.0837122
-0.0836521
-0.0822264
-0.0832175
-0.0839167
-0.0843181
-0.0845761
-0.0847728
-0.0849316
-0.0850238
-0.0848663
-0.0835923
-0.0854778
-0.0859594
-0.0861631
-0.0862681
-0.0860846
-0.0849484
-0.0818559
-0.080448
-0.0741181
0
0
-0.00231125
-0.0112887
-0.0211773
-0.0318385
-0.042986
-0.0542539
-0.0651414
-0.0727165
-0.0819506
-0.0899845
-0.0963639
-0.1009
-0.103625
-0.104776
-0.104835
-0.104188
-0.102754
-0.101044
-0.0994635
-0.0980762
-0.0969051
-0.0957573
-0.0942933
-0.0933569
-0.0925829
-0.0912456
-0.0902996
-0.0895574
-0.0889359
-0.0883652
-0.0878034
-0.0869384
-0.0861464
-0.0856112
-0.0853546
-0.0852981
-0.0853687
-0.0855155
-0.085726
-0.086015
-0.0861899
-0.0537541
-0.0855228
-0.0862
-0.0864918
-0.0866995
-0.0868733
-0.0870129
-0.0870898
-0.0870527
-0.0869585
-0.0875018
-0.0879009
-0.0881278
-0.0881901
-0.0879607
-0.0870583
-0.0854471
-0.0825823
-0.0757988
0
0
-0.00242514
-0.0118002
-0.0222129
-0.0335188
-0.0453208
-0.0573199
-0.0694336
-0.0168542
-0.0862706
-0.0949018
-0.101354
-0.105858
-0.108424
-0.10935
-0.109227
-0.108574
-0.106395
-0.104237
-0.1025
-0.101027
-0.0999565
-0.0986506
-0.0972717
-0.0961016
-0.0952828
-0.0933768
-0.0926049
-0.0919471
-0.0913028
-0.0906548
-0.0899845
-0.0892827
-0.0886476
-0.0881626
-0.0878441
-0.0876809
-0.0876442
-0.0877028
-0.0878243
-0.0879415
-0.0878246
-0.0869246
-0.0875956
-0.0881304
-0.088483
-0.0887439
-0.0889558
-0.0891254
-0.089249
-0.0893431
-0.0894795
-0.0897274
-0.0899877
-0.0901866
-0.0902769
-0.0902219
-0.0900333
-0.0882054
-0.0847942
-0.0775741
0
0
-0.00248602
-0.0121857
-0.0232127
-0.0352759
-0.0476665
-0.0600527
-0.0717924
-0.0810491
-0.0910602
-0.0996263
-0.106245
-0.110748
-0.113197
-0.113842
-0.113303
-0.113285
-0.109638
-0.107163
-0.105478
-0.103933
-0.103272
-0.101615
-0.0999726
-0.0983303
-0.0963592
-0.0963352
-0.0954229
-0.094522
-0.0937032
-0.0929463
-0.0922246
-0.0915438
-0.0909355
-0.090436
-0.0900765
-0.0898637
-0.0897798
-0.0897956
-0.0898727
-0.089943
-0.0898974
-0.0897134
-0.0898828
-0.0901828
-0.0904978
-0.0907891
-0.0910472
-0.0912604
-0.091427
-0.0915778
-0.0917472
-0.0919381
-0.0921456
-0.0923321
-0.0924298
-0.0923739
-0.0919789
-0.0904764
-0.0868995
-0.0794143
0
0
-0.00244276
-0.0122333
-0.0244541
-0.0371046
-0.0501432
-0.0630605
-0.075279
-0.0862299
-0.0962409
-0.104764
-0.111358
-0.115788
-0.118097
-0.118749
-0.119237
-0.118245
-0.112145
-0.110502
-0.108831
-0.107014
-0.124148
-0.104524
-0.102614
-0.10092
-0.0990731
-0.098245
-0.0974612
-0.0966538
-0.0958574
-0.0950885
-0.0943559
-0.0936701
-0.0930431
-0.0924956
-0.0920978
-0.0918672
-0.0917784
-0.0917985
-0.0918981
-0.0920229
-0.0920805
-0.0920082
-0.0920507
-0.0922605
-0.0925619
-0.0928727
-0.0931716
-0.0934202
-0.0935998
-0.0937644
-0.0939369
-0.0941192
-0.0943245
-0.0945278
-0.094603
-0.0944799
-0.0940523
-0.092631
-0.0889774
-0.0812891
0
0
-0.00236375
-0.0110547
-0.0258405
-0.0394536
-0.0531019
-0.066576
-0.0794255
-0.0911537
-0.101469
-0.110091
-0.116666