# vtk DataFile Version 2.0
FlowField
ASCII
DATASET STRUCTURED_GRID
DIMENSIONS 62 47 32 
POINTS 93248 double
0 0 0
0.01 0 0
0.02 0 0
0.03 0 0
0.04 0 0
0.05 0 0
0.06 0 0
0.07 0 0
0.08 0 0
0.09 0 0
0.1 0 0
0.11 0 0
0.12 0 0
0.13 0 0
0.14 0 0
0.15 0 0
0.16 0 0
0.17 0 0
0.18 0 0
0.19 0 0
0.2 0 0
0.21 0 0
0.22 0 0
0.23 0 0
0.24 0 0
0.25 0 0
0.26 0 0
0.27 0 0
0.28 0 0
0.29 0 0
0.3 0 0
0.31 0 0
0.32 0 0
0.33 0 0
0.34 0 0
0.35 0 0
0.36 0 0
0.37 0 0
0.38 0 0
0.39 0 0
0.4 0 0
0.41 0 0
0.42 0 0
0.43 0 0
0.44 0 0
0.45 0 0
0.46 0 0
0.47 0 0
0.48 0 0
0.49 0 0
0.5 0 0
0.51 0 0
0.52 0 0
0.53 0 0
0.54 0 0
0.55 0 0
0.56 0 0
0.57 0 0
0.58 0 0
0.59 0 0
0.6 0 0
0.61 0 0
0 0.01 0
0.01 0.01 0
0.02 0.01 0
0.03 0.01 0
0.04 0.01 0
0.05 0.01 0
0.06 0.01 0
0.07 0.01 0
0.08 0.01 0
0.09 0.01 0
0.1 0.01 0
0.11 0.01 0
0.12 0.01 0
0.13 0.01 0
0.14 0.01 0
0.15 0.01 0
0.16 0.01 0
0.17 0.01 0
0.18 0.01 0
0.19 0.01 0
0.2 0.01 0
0.21 0.01 0
0.22 0.01 0
0.23 0.01 0
0.24 0.01 0
0.25 0.01 0
0.26 0.01 0
0.27 0.01 0
0.28 0.01 0
0.29 0.01 0
0.3 0.01 0
0.31 0.01 0
0.32 0.01 0
0.33 0.01 0
0.34 0.01 0
0.35 0.01 0
0.36 0.01 0
0.37 0.01 0
0.38 0.01 0
0.39 0.01 0
0.4 0.01 0
0.41 0.01 0
0.42 0.01 0
0.43 0.01 0
0.44 0.01 0
0.45 0.01 0
0.46 0.01 0
0.47 0.01 0
0.48 0.01 0
0.49 0.01 0
0.5 0.01 0
0.51 0.01 0
0.52 0.01 0
0.53 0.01 0
0.54 0.01 0
0.55 0.01 0
0.56 0.01 0
0.57 0.01 0
0.58 0.01 0
0.59 0.01 0
0.6 0.01 0
0.61 0.01 0
0 0.02 0
0.01 0.02 0
0.02 0.02 0
0.03 0.02 0
0.04 0.02 0
0.05 0.02 0
0.06 0.02 0
0.07 0.02 0
0.08 0.02 0
0.09 0.02 0
0.1 0.02 0
0.11 0.02 0
0.12 0.02 0
0.13 0.02 0
0.14 0.02 0
0.15 0.02 0
0.16 0.02 0
0.17 0.02 0
0.18 0.02 0
0.19 0.02 0
0.2 0.02 0
0.21 0.02 0
0.22 0.02 0
0.23 0.02 0
0.24 0.02 0
0.25 0.02 0
0.26 0.02 0
0.27 0.02 0
0.28 0.02 0
0.29 0.02 0
0.3 0.02 0
0.31 0.02 0
0.32 0.02 0
0.33 0.02 0
0.34 0.02 0
0.35 0.02 0
0.36 0.02 0
0.37 0.02 0
0.38 0.02 0
0.39 0.02 0
0.4 0.02 0
0.41 0.02 0
0.42 0.02 0
0.43 0.02 0
0.44 0.02 0
0.45 0.02 0
0.46 0.02 0
0.47 0.02 0
0.48 0.02 0
0.49 0.02 0
0.5 0.02 0
0.51 0.02 0
0.52 0.02 0
0.53 0.02 0
0.54 0.02 0
0.55 0.02 0
0.56 0.02 0
0.57 0.02 0
0.58 0.02 0
0.59 0.02 0
0.6 0.02 0
0.61 0.02 0
0 0.03 0
0.01 0.03 0
0.02 0.03 0
0.03 0.03 0
0.04 0.03 0
0.05 0.03 0
0.06 0.03 0
0.07 0.03 0
0.08 0.03 0
0.09 0.03 0
0.1 0.03 0
0.11 0.03 0
0.12 0.03 0
0.13 0.03 0
0.14 0.03 0
0.15 0.03 0
0.16 0.03 0
0.17 0.03 0
0.18 0.03 0
0.19 0.03 0
0.2 0.03 0
0.21 0.03 0
0.22 0.03 0
0.23 0.03 0
0.24 0.03 0
0.25 0.03 0
0.26 0.03 0
0.27 0.03 0
0.28 0.03 0
0.29 0.03 0
0.3 0.03 0
0.31 0.03 0
0.32 0.03 0
0.33 0.03 0
0.34 0.03 0
0.35 0.03 0
0.36 0.03 0
0.37 0.03 0
0.38 0.03 0
0.39 0.03 0
0.4 0.03 0
0.41 0.03 0
0.42 0.03 0
0.43 0.03 0
0.44 0.03 0
0.45 0.03 0
0.46 0.03 0
0.47 0.03 0
0.48 0.03 0
0.49 0.03 0
0.5 0.03 0
0.51 0.03 0
0.52 0.03 0
0.53 0.03 0
0.54 0.03 0
0.55 0.03 0
0.56 0.03 0
0.57 0.03 0
0.58 0.03 0
0.59 0.03 0
0.6 0.03 0
0.61 0.03 0
0 0.04 0
0.01 0.04 0
0.02 0.04 0
0.03 0.04 0
0.04 0.04 0
0.05 0.04 0
0.06 0.04 0
0.07 0.04 0
0.08 0.04 0
0.09 0.04 0
0.1 0.04 0
0.11 0.04 0
0.12 0.04 0
0.13 0.04 0
0.14 0.04 0
0.15 0.04 0
0.16 0.04 0
0.17 0.04 0
0.18 0.04 0
0.19 0.04 0
0.2 0.04 0
0.21 0.04 0
0.22 0.04 0
0.23 0.04 0
0.24 0.04 0
0.25 0.04 0
0.26 0.04 0
0.27 0.04 0
0.28 0.04 0
0.29 0.04 0
0.3 0.04 0
0.31 0.04 0
0.32 0.04 0
0.33 0.04 0
0.34 0.04 0
0.35 0.04 0
0.36 0.04 0
0.37 0.04 0
0.38 0.04 0
0.39 0.04 0
0.4 0.04 0
0.41 0.04 0
0.42 0.04 0
0.43 0.04 0
0.44 0.04 0
0.45 0.04 0
0.46 0.04 0
0.47 0.04 0
0.48 0.04 0
0.49 0.04 0
0.5 0.04 0
0.51 0.04 0
0.52 0.04 0
0.53 0.04 0
0.54 0.04 0
0.55 0.04 0
0.56 0.04 0
0.57 0.04 0
0.58 0.04 0
0.59 0.04 0
0.6 0.04 0
0.61 0.04 0
0 0.05 0
0.01 0.05 0
0.02 0.05 0
0.03 0.05 0
0.04 0.05 0
0.05 0.05 0
0.06 0.05 0
0.07 0.05 0
0.08 0.05 0
0.09 0.05 0
0.1 0.05 0
0.11 0.05 0
0.12 0.05 0
0.13 0.05 0
0.14 0.05 0
0.15 0.05 0
0.16 0.05 0
0.17 0.05 0
0.18 0.05 0
0.19 0.05 0
0.2 0.05 0
0.21 0.05 0
0.22 0.05 0
0.23 0.05 0
0.24 0.05 0
0.25 0.05 0
0.26 0.05 0
0.27 0.05 0
0.28 0.05 0
0.29 0.05 0
0.3 0.05 0
0.31 0.05 0
0.32 0.05 0
0.33 0.05 0
0.34 0.05 0
0.35 0.05 0
0.36 0.05 0
0.37 0.05 0
0.38 0.05 0
0.39 0.05 0
0.4 0.05 0
0.41 0.05 0
0.42 0.05 0
0.43 0.05 0
0.44 0.05 0
0.45 0.05 0
0.46 0.05 0
0.47 0.05 0
0.48 0.05 0
0.49 0.05 0
0.5 0.05 0
0.51 0.05 0
0.52 0.05 0
0.53 0.05 0
0.54 0.05 0
0.55 0.05 0
0.56 0.05 0
0.57 0.05 0
0.58 0.05 0
0.59 0.05 0
0.6 0.05 0
0.61 0.05 0
0 0.06 0
0.01 0.06 0
0.02 0.06 0
0.03 0.06 0
0.04 0.06 0
0.05 0.06 0
0.06 0.06 0
0.07 0.06 0
0.08 0.06 0
0.09 0.06 0
0.1 0.06 0
0.11 0.06 0
0.12 0.06 0
0.13 0.06 0
0.14 0.06 0
0.15 0.06 0
0.16 0.06 0
0.17 0.06 0
0.18 0.06 0
0.19 0.06 0
0.2 0.06 0
0.21 0.06 0
0.22 0.06 0
0.23 0.06 0
0.24 0.06 0
0.25 0.06 0
0.26 0.06 0
0.27 0.06 0
0.28 0.06 0
0.29 0.06 0
0.3 0.06 0
0.31 0.06 0
0.32 0.06 0
0.33 0.06 0
0.34 0.06 0
0.35 0.06 0
0.36 0.06 0
0.37 0.06 0
0.38 0.06 0
0.39 0.06 0
0.4 0.06 0
0.41 0.06 0
0.42 0.06 0
0.43 0.06 0
0.44 0.06 0
0.45 0.06 0
0.46 0.06 0
0.47 0.06 0
0.48 0.06 0
0.49 0.06 0
0.5 0.06 0
0.51 0.06 0
0.52 0.06 0
0.53 0.06 0
0.54 0.06 0
0.55 0.06 0
0.56 0.06 0
0.57 0.06 0
0.58 0.06 0
0.59 0.06 0
0.6 0.06 0
0.61 0.06 0
0 0.07 0
0.01 0.07 0
0.02 0.07 0
0.03 0.07 0
0.04 0.07 0
0.05 0.07 0
0.06 0.07 0
0.07 0.07 0
0.08 0.07 0
0.09 0.07 0
0.1 0.07 0
0.11 0.07 0
0.12 0.07 0
0.13 0.07 0
0.14 0.07 0
0.15 0.07 0
0.16 0.07 0
0.17 0.07 0
0.18 0.07 0
0.19 0.07 0
0.2 0.07 0
0.21 0.07 0
0.22 0.07 0
0.23 0.07 0
0.24 0.07 0
0.25 0.07 0
0.26 0.07 0
0.27 0.07 0
0.28 0.07 0
0.29 0.07 0
0.3 0.07 0
0.31 0.07 0
0.32 0.07 0
0.33 0.07 0
0.34 0.07 0
0.35 0.07 0
0.36 0.07 0
0.37 0.07 0
0.38 0.07 0
0.39 0.07 0
0.4 0.07 0
0.41 0.07 0
0.42 0.07 0
0.43 0.07 0
0.44 0.07 0
0.45 0.07 0
0.46 0.07 0
0.47 0.07 0
0.48 0.07 0
0.49 0.07 0
0.5 0.07 0
0.51 0.07 0
0.52 0.07 0
0.53 0.07 0
0.54 0.07 0
0.55 0.07 0
0.56 0.07 0
0.57 0.07 0
0.58 0.07 0
0.59 0.07 0
0.6 0.07 0
0.61 0.07 0
0 0.08 0
0.01 0.08 0
0.02 0.08 0
0.03 0.08 0
0.04 0.08 0
0.05 0.08 0
0.06 0.08 0
0.07 0.08 0
0.08 0.08 0
0.09 0.08 0
0.1 0.08 0
0.11 0.08 0
0.12 0.08 0
0.13 0.08 0
0.14 0.08 0
0.15 0.08 0
0.16 0.08 0
0.17 0.08 0
0.18 0.08 0
0.19 0.08 0
0.2 0.08 0
0.21 0.08 0
0.22 0.08 0
0.23 0.08 0
0.24 0.08 0
0.25 0.08 0
0.26 0.08 0
0.27 0.08 0
0.28 0.08 0
0.29 0.08 0
0.3 0.08 0
0.31 0.08 0
0.32 0.08 0
0.33 0.08 0
0.34 0.08 0
0.35 0.08 0
0.36 0.08 0
0.37 0.08 0
0.38 0.08 0
0.39 0.08 0
0.4 0.08 0
0.41 0.08 0
0.42 0.08 0
0.43 0.08 0
0.44 0.08 0
0.45 0.08 0
0.46 0.08 0
0.47 0.08 0
0.48 0.08 0
0.49 0.08 0
0.5 0.08 0
0.51 0.08 0
0.52 0.08 0
0.53 0.08 0
0.54 0.08 0
0.55 0.08 0
0.56 0.08 0
0.57 0.08 0
0.58 0.08 0
0.59 0.08 0
0.6 0.08 0
0.61 0.08 0
0 0.09 0
0.01 0.09 0
0.02 0.09 0
0.03 0.09 0
0.04 0.09 0
0.05 0.09 0
0.06 0.09 0
0.07 0.09 0
0.08 0.09 0
0.09 0.09 0
0.1 0.09 0
0.11 0.09 0
0.12 0.09 0
0.13 0.09 0
0.14 0.09 0
0.15 0.09 0
0.16 0.09 0
0.17 0.09 0
0.18 0.09 0
0.19 0.09 0
0.2 0.09 0
0.21 0.09 0
0.22 0.09 0
0.23 0.09 0
0.24 0.09 0
0.25 0.09 0
0.26 0.09 0
0.27 0.09 0
0.28 0.09 0
0.29 0.09 0
0.3 0.09 0
0.31 0.09 0
0.32 0.09 0
0.33 0.09 0
0.34 0.09 0
0.35 0.09 0
0.36 0.09 0
0.37 0.09 0
0.38 0.09 0
0.39 0.09 0
0.4 0.09 0
0.41 0.09 0
0.42 0.09 0
0.43 0.09 0
0.44 0.09 0
0.45 0.09 0
0.46 0.09 0
0.47 0.09 0
0.48 0.09 0
0.49 0.09 0
0.5 0.09 0
0.51 0.09 0
0.52 0.09 0
0.53 0.09 0
0.54 0.09 0
0.55 0.09 0
0.56 0.09 0
0.57 0.09 0
0.58 0.09 0
0.59 0.09 0
0.6 0.09 0
0.61 0.09 0
0 0.1 0
0.01 0.1 0
0.02 0.1 0
0.03 0.1 0
0.04 0.1 0
0.05 0.1 0
0.06 0.1 0
0.07 0.1 0
0.08 0.1 0
0.09 0.1 0
0.1 0.1 0
0.11 0.1 0
0.12 0.1 0
0.13 0.1 0
0.14 0.1 0
0.15 0.1 0
0.16 0.1 0
0.17 0.1 0
0.18 0.1 0
0.19 0.1 0
0.2 0.1 0
0.21 0.1 0
0.22 0.1 0
0.23 0.1 0
0.24 0.1 0
0.25 0.1 0
0.26 0.1 0
0.27 0.1 0
0.28 0.1 0
0.29 0.1 0
0.3 0.1 0
0.31 0.1 0
0.32 0.1 0
0.33 0.1 0
0.34 0.1 0
0.35 0.1 0
0.36 0.1 0
0.37 0.1 0
0.38 0.1 0
0.39 0.1 0
0.4 0.1 0
0.41 0.1 0
0.42 0.1 0
0.43 0.1 0
0.44 0.1 0
0.45 0.1 0
0.46 0.1 0
0.47 0.1 0
0.48 0.1 0
0.49 0.1 0
0.5 0.1 0
0.51 0.1 0
0.52 0.1 0
0.53 0.1 0
0.54 0.1 0
0.55 0.1 0
0.56 0.1 0
0.57 0.1 0
0.58 0.1 0
0.59 0.1 0
0.6 0.1 0
0.61 0.1 0
0 0.11 0
0.01 0.11 0
0.02 0.11 0
0.03 0.11 0
0.04 0.11 0
0.05 0.11 0
0.06 0.11 0
0.07 0.11 0
0.08 0.11 0
0.09 0.11 0
0.1 0.11 0
0.11 0.11 0
0.12 0.11 0
0.13 0.11 0
0.14 0.11 0
0.15 0.11 0
0.16 0.11 0
0.17 0.11 0
0.18 0.11 0
0.19 0.11 0
0.2 0.11 0
0.21 0.11 0
0.22 0.11 0
0.23 0.11 0
0.24 0.11 0
0.25 0.11 0
0.26 0.11 0
0.27 0.11 0
0.28 0.11 0
0.29 0.11 0
0.3 0.11 0
0.31 0.11 0
0.32 0.11 0
0.33 0.11 0
0.34 0.11 0
0.35 0.11 0
0.36 0.11 0
0.37 0.11 0
0.38 0.11 0
0.39 0.11 0
0.4 0.11 0
0.41 0.11 0
0.42 0.11 0
0.43 0.11 0
0.44 0.11 0
0.45 0.11 0
0.46 0.11 0
0.47 0.11 0
0.48 0.11 0
0.49 0.11 0
0.5 0.11 0
0.51 0.11 0
0.52 0.11 0
0.53 0.11 0
0.54 0.11 0
0.55 0.11 0
0.56 0.11 0
0.57 0.11 0
0.58 0.11 0
0.59 0.11 0
0.6 0.11 0
0.61 0.11 0
0 0.12 0
0.01 0.12 0
0.02 0.12 0
0.03 0.12 0
0.04 0.12 0
0.05 0.12 0
0.06 0.12 0
0.07 0.12 0
0.08 0.12 0
0.09 0.12 0
0.1 0.12 0
0.11 0.12 0
0.12 0.12 0
0.13 0.12 0
0.14 0.12 0
0.15 0.12 0
0.16 0.12 0
0.17 0.12 0
0.18 0.12 0
0.19 0.12 0
0.2 0.12 0
0.21 0.12 0
0.22 0.12 0
0.23 0.12 0
0.24 0.12 0
0.25 0.12 0
0.26 0.12 0
0.27 0.12 0
0.28 0.12 0
0.29 0.12 0
0.3 0.12 0
0.31 0.12 0
0.32 0.12 0
0.33 0.12 0
0.34 0.12 0
0.35 0.12 0
0.36 0.12 0
0.37 0.12 0
0.38 0.12 0
0.39 0.12 0
0.4 0.12 0
0.41 0.12 0
0.42 0.12 0
0.43 0.12 0
0.44 0.12 0
0.45 0.12 0
0.46 0.12 0
0.47 0.12 0
0.48 0.12 0
0.49 0.12 0
0.5 0.12 0
0.51 0.12 0
0.52 0.12 0
0.53 0.12 0
0.54 0.12 0
0.55 0.12 0
0.56 0.12 0
0.57 0.12 0
0.58 0.12 0
0.59 0.12 0
0.6 0.12 0
0.61 0.12 0
0 0.13 0
0.01 0.13 0
0.02 0.13 0
0.03 0.13 0
0.04 0.13 0
0.05 0.13 0
0.06 0.13 0
0.07 0.13 0
0.08 0.13 0
0.09 0.13 0
0.1 0.13 0
0.11 0.13 0
0.12 0.13 0
0.13 0.13 0
0.14 0.13 0
0.15 0.13 0
0.16 0.13 0
0.17 0.13 0
0.18 0.13 0
0.19 0.13 0
0.2 0.13 0
0.21 0.13 0
0.22 0.13 0
0.23 0.13 0
0.24 0.13 0
0.25 0.13 0
0.26 0.13 0
0.27 0.13 0
0.28 0.13 0
0.29 0.13 0
0.3 0.13 0
0.31 0.13 0
0.32 0.13 0
0.33 0.13 0
0.34 0.13 0
0.35 0.13 0
0.36 0.13 0
0.37 0.13 0
0.38 0.13 0
0.39 0.13 0
0.4 0.13 0
0.41 0.13 0
0.42 0.13 0
0.43 0.13 0
0.44 0.13 0
0.45 0.13 0
0.46 0.13 0
0.47 0.13 0
0.48 0.13 0
[...]
POINT_DATA 93248

SCALARS v double
LOOKUP_TABLE default
0
0
0
0
0
0
0
0
0
0
0
0
0
0
0
0
0
0
0
0
0
0
0
0
0
0
0
0
0
0
0
0
0
0
0
0
0
0
-0.0494947
0
0
0
0
0
-0.0522932
0
0
0
0
0
0
0
0
0
0
0
0
0
0
0
0
0
0
0.0459103
-0.0628085
0.0497341
0.0365219
0.0212707
0
-0.00329145
-0.0122599
-0.0179725
-0.0210139
-0.0224564
-0.0240018
-0.0235543
-0.0232851
-0.0230521
-0.023087
-0.0227588
-0.0224056
-0.0212438
-0.0261811
-0.0241397
-0.0224278
-0.0229253
-0.0230698
-0.0231583
-0.0232124
-0.0232379
-0.0232404
-0.0232198
-0.0231763
-0.0231964
-0.0238067
-0.0232117
-0.0226863
-0.022854
-0.037802
-0.0226021
-0.0233448
-0.01828
-0.0245143
-0.035409
-0.0252558
-0.0251614
-0.0260603
-0.031495
-0.0701874
-0.0241144
-0.030553
-0.0229411
-0.0228189
-0.0228687
-0.0243689
-0.0260008
-0.0375775
-0.0251072
-0.0496066
-0.0235176
-0.0215243
-0.0190684
-0.0151886
0
0
0.0270257
0.0524273
0.0603818
0.0561974
0.0417778
0.0308711
0.0163074
0.00136539
-0.0111899
-0.0193471
-0.0238778
-0.0695209
-0.0281969
-0.0283623
-0.0238786
-0.0286818
-0.028073
-0.0290045
-0.0310577
-0.0779984
-0.02851
-0.0292435
-0.0288416
-0.0289728
-0.0291459
-0.0292716
-0.0293426
-0.0293663
-0.0293398
-0.0292378
-0.0290945
-0.0538996
-0.0293948
-0.0282872
-0.028875
-0.0279852
-0.0255377
-0.0224033
-0.030435
-0.0335009
-0.0342125
-0.0331677
-0.0330334
-0.0327886
-0.0332781
-0.0336593
-0.0312496
-0.030553
-0.0291996
-0.0291874
-0.0294835
-0.0304
-0.0314219
-0.0326416
-0.0304888
-0.0295003
-0.0570209
-0.0258365
-0.022949
-0.0195191
0
0
0.0139032
0.0358346
0.046541
0.0524795
0.0518495
0.0399209
0.0264314
0.011745
-0.00202188
-0.0128856
-0.0197452
-0.0248969
-0.0269441
-0.0281568
-0.0289517
-0.0299723
0
-0.0301288
-0.0313437
-0.0316126
-0.0307638
-0.0306731
-0.0306941
-0.0308592
-0.0310487
-0.0312026
-0.0313075
-0.0313641
-0.0313776
-0.0313667
-0.0314394
-0.0320306
-0.031589
-0.0317571
-0.0299514
-0.0291432
-0.0279579
-0.0274817
-0.031691
-0.0345379
-0.0357796
-0.0359649
-0.0348843
-0.0348814
-0.0351601
-0.0327114
-0.0320324
-0.0315091
-0.0322011
-0.031946
-0.0318807
-0.0321
-0.0323442
-0.0323129
-0.0314137
-0.0305685
-0.0298742
-0.0272741
-0.0247871
-0.0225554
0
0
0.00783401
0.0233622
0.0361521
0.0403111
0.0409698
0.0358976
0.026994
0.0155183
0.00359622
-0.00687212
-0.014699
-0.0202536
-0.0237138
-0.0260264
-0.0274961
-0.0286709
-0.0287081
-0.0296689
-0.030559
-0.0307671
-0.0308347
-0.0309906
-0.0311835
-0.0314035
-0.0316141
-0.0317918
-0.0319267
-0.032016
-0.0320638
-0.03209
-0.0321556
-0.0323831
-0.0326718
-0.0323632
-0.0312867
-0.0305303
-0.0300441
-0.0302677
-0.0323238
-0.0341608
-0.0352433
-0.0356069
-0.0353235
-0.0351917
-0.0347479
-0.0322982
-0.032557
-0.0325839
-0.0328483
-0.0327565
-0.0326113
-0.0324714
-0.032254
-0.0318521
-0.0311719
-0.0303337
-0.0292575
-0.0274773
-0.0256003
-0.0249915
0
0
0.00462281
0.014607
0.0228492
0.027602
0.0295324
0.0280311
0.022911
0.0146784
0.00531927
-0.00372997
-0.0112329
-0.0168919
-0.0209202
-0.0238051
-0.0261233
-0.0278428
-0.0283761
-0.0292128
-0.0296966
-0.0302062
-0.0306621
-0.0310628
-0.0314097
-0.0317122
-0.0319729
-0.0321884
-0.0323597
-0.0324807
-0.0325479
-0.0325652
-0.0325558
-0.0326718
-0.0339205
-0.0331192
-0.0322891
-0.0318018
-0.0316835
-0.0320768
-0.0330788
-0.0341086
-0.0348386
-0.035198
-0.0352704
-0.035285
-0.0350258
0
-0.0332334
-0.0334221
-0.0333946
-0.0332607
-0.033061
-0.0327425
-0.0322442
-0.0316602
-0.0309973
-0.0302156
-0.029253
-0.0279824
-0.0260842
-0.0269823
-0.0573272
0
0.00266783
0.00894018
0.0142203
0.01792
0.0200266
0.0202222
0.017303
0
0.0042503
-0.00317016
-0.00982826
-0.0151816
-0.0192873
-0.0224721
-0.0251803
-0.0277513
-0.0277359
-0.0278737
-0.0289724
-0.029902
-0.0306679
-0.0312678
-0.0317397
-0.0321257
-0.0324483
-0.0327074
-0.0329235
-0.0330799
-0.0331626
-0.0331567
-0.0330295
-0.0327809
-0.0744689
-0.033797
-0.0331746
-0.0329488
-0.0330126
-0.0333473
-0.0339013
-0.0344781
-0.034928
-0.0351869
-0.0352936
-0.0352054
-0.0347459
-0.0333005
-0.0337069
-0.0339051
-0.0339166
-0.0338377
-0.0336693
-0.0332692
-0.0324965
-0.0317747
-0.0311431
-0.0305119
-0.0300213
-0.0304293
-0.0315064
-0.0274733
0
0
0.00135446
0.00512756
0.00836587
0.0108672
0.0125181
0.0127316
0.0115074
0.00737695
0.0017735
-0.00437032
-0.0100761
-0.0149304
-0.0187665
-0.021842
-0.0246714
-0.0285444
-0.0270862
-0.0276515
-0.0290467
-0.0301843
-0.0311146
-0.0317714
-0.0322844
-0.0327185
-0.033099
-0.0333932
-0.033667
-0.0338687
-0.0339797
-0.033998
-0.0340085
-0.0341817
-0.035325
-0.0347884
-0.0343814
-0.0342282
-0.0342763
-0.034491
-0.0348083
-0.0351384
-0.035409
-0.0355797
-0.0355889
-0.0354756
-0.0351509
-0.0346149
-0.0345542
-0.0345759
-0.0345758
-0.034569
-0.0345187
-0.0341442
-0.0329289
-0.032114
-0.0315748
-0.0310169
-0.0304025
-0.0536091
-0.0242228
-0.0270641
0
0
0.000414458
0.00242273
0.0041739
0.00563013
0.00672571
0.00698914
0.00594284
0.00286513
-0.00166094
-0.00671712
-0.0115031
-0.0160073
-0.0209202
-0.0216347
-0.0233052
-0.0229383
-0.0275383
-0.029724
-0.0306199
-0.0313275
-0.0321215
-0.0325914
-0.0330317
-0.033474
-0.0333932
-0.034282
-0.0346016
-0.0348518
-0.0349919
-0.0349879
-0.0350306
-0.0352137
-0.0356134
-0.0355955
-0.0354935
-0.0354535
-0.0354909
-0.0356161
-0.0357988
-0.0359871
-0.0361368
-0.0362161
-0.0361944
-0.0360787
-0.035863
-0.0355995
-0.0354495
-0.0353654
-0.0353223
-0.035353
-0.0354774
-0.0354281
-0.0333687
-0.0326977
-0.0324167
-0.0321039
-0.0317453
-0.0314329
-0.0290179
-0.027815
0
0
-0.000290738
0.000410344
0.00101645
0.00154984
0.00203957
0.00204853
0.000954557
-0.00167571
-0.00548005
-0.00966638
-0.013562
-0.0164949
-0.0198192
-0.02222
-0.0238786
-0.0249656
-0.0277408
-0.0298036
-0.0310931
-0.0319431
-0.0400831
-0.033385
-0.033846
-0.034336
-0.0348828
-0.0352737
-0.035682
-0.0360307
-0.0362404
-0.0361502
-0.035993
-0.036129
-0.0363959
-0.0365399
-0.0365962
-0.036647
-0.0366848
-0.0367619
-0.0368715
-0.0369762
-0.037046
-0.0370609
-0.0370065
-0.0368881
-0.0367172
-0.0365237
-0.0363475
-0.0361877
-0.0360415
-0.03594
-0.0359731
-0.0360863
-0.03373
-0.0338524
-0.0337803
-0.0334901
-0.0330963
-0.0324963
-0.0310213
-0.0289346
0
0
-0.000842067
-0.00115023
-0.00145446
-0.00180422
-0.00191587
-0.00230296
-0.0035718
-0.00603586
-0.00937565
-0.0129284
-0.0161877
-0.0189607
-0.0215022
-0.0236009
-0.0250991
-0.026661
-0.0286212
-0.0303595
-0.0317137
-0.0328015
-0.0336512
-0.0342451
-0.0347783
-0.0352857
-0.0357074
-0.0363438
-0.036913
-0.0374367
-0.037872
-0.0380502
-0.0363785
-0.0368915
-0.0373698
-0.0376207
-0.037738
-0.037802
-0.0379241
-0.0379653
-0.0380378
-0.0380875
-0.038099
-0.038064
-0.0379693
-0.0378328
-0.0376662
-0.0374797
-0.0372767
-0.037041
-0.0367321
-0.0362674
-0.0354645
-0.0344116
-0.0371242
-0.0365289
-0.0357338
-0.0350807
-0.0345036
-0.0337733
-0.0324088
-0.0301134
0
0
-0.00129285
-0.00241345
-0.00343048
-0.00833931
-0.00531557
-0.00617085
-0.00770883
-0.0101618
-0.0132128
-0.0163126
-0.0190811
-0.0214791
-0.0236299
-0.0255252
-0.0263458
-0.0280985
-0.0298514
-0.0313824
-0.0326517
-0.0336153
-0.0346087
-0.0352776
-0.0358403
-0.0363756
-0.0369267
-0.0375767
-0.0382916
-0.03903
-0.039706
-0.0400372
0
-0.0382506
-0.0387077
-0.0388745
-0.0389575
-0.0390239
-0.0391052
-0.0392432
-0.039303
-0.0393088
-0.039271
-0.0392009
-0.0390449
-0.0388742
-0.0386934
-0.0384987
-0.0382774
-0.0380009
-0.0376311
-0.0371741
-0.0366046
-0.0363215
-0.0375563
-0.0375775
-0.0370616
-0.0364523
-0.0358399
-0.0350608
-0.0336664
-0.0312701
0
0
-0.00168479
-0.00351902
-0.00529138
-0.00697515
-0.00830677
-0.00967454
-0.0115405
-0.0140677
-0.0169433
-0.0197258
-0.0220924
-0.0241303
-0.0260171
-0.0279758
0
-0.0297651
-0.0313885
-0.0327526
-0.0339595
-0.0348994
-0.0357093
-0.0363593
-0.0369288
-0.0374872
-0.0380969
-0.0388343
-0.0397574
-0.0408066
-0.0417443
-0.041184
-0.0394731
-0.0395968
-0.039831
-0.0399986
-0.0401279
-0.0402534
-0.0403926
-0.040553
-0.0406346
-0.0406146
-0.040533
-0.0404981
-0.0401965
-0.0399816
-0.0397847
-0.0395869
-0.039368
-0.0390879
-0.0387014
-0.038422
-0.0381399
-0.038053
-0.0383928
-0.0384171
-0.0381138
-0.0376483
-0.0370787
-0.0363048
-0.0348703
-0.0323863
0
0
-0.00203109
-0.00448503
-0.00688167
-0.00901531
-0.0109897
-0.0128746
-0.0150984
-0.0177608
-0.0205318
-0.0240299
-0.0251232
-0.0268198
-0.0283375
-0.0296967
-0.0302388
-0.0316402
-0.032977
-0.0342
-0.0355306
-0.0363662
-0.0369987
-0.0375439
-0.0380623
-0.0385962
-0.0392062
-0.0400077
-0.0412103
-0.042899
-0.0455639
-0.0431944
-0.0415442
-0.0410593
-0.0410268
-0.0411344
-0.0412946
-0.0414966
-0.0417194
-0.0419881
-0.0421104
-0.0420282
-0.0418004
-0.041394
-0.0413057
-0.0411168
-0.0409206
-0.0407342
-0.0405449
-0.0402904
-0.0397887
-0.0397814
-0.0396609
-0.0395485
-0.0395113
-0.0394406
-0.0392071
-0.0388294
-0.0382461
-0.0375197
-0.0360355
-0.0334545
0
0
-0.00234416
-0.00534882
-0.00833931
-0.0111644
-0.0135259
-0.0158654
-0.0184442
-0.0212786
-0.0240299
-0.0263662
-0.0281421
-0.0295581
-0.0307884
-0.0318783
-0.0327449
-0.033757
-0.0347555
-0.0357234
-0.0375751
-0.0380211
-0.0383831
-0.0387952
-0.0392302
-0.0396887
-0.0401985
-0.0408828
-0.0421501
-0.0325479
-0.0560689
-0.0449478
-0.0425333
-0.0420398
-0.0420411
-0.0421947
-0.0424308
-0.0427628
-0.043223
-0.0436359
-0.0438525
-0.0436341
-0.043244
-0.0428383
-0.042546
-0.0422978
-0.0420863
-0.0419158
-0.0417788
-0.0416292
-0.0328483
-0.0412609
-0.0411576
-0.0409647
-0.0406781
-0.0406413
-0.0404288
-0.0401404
-0.0397336
-0.0387935
-0.0371804
-0.0344654
0
0
-0.0026359
-0.00611003
-0.00962205
-0.0129172
-0.0158591
-0.018671
-0.0216109
-0.024635
-0.0273921
-0.029567
-0.031137
-0.0323308
-0.0333503
-0.0342717
-0.0351024
-0.035908
-0.0366181
-0.0370708
-0.072665
-0.0395631
-0.0397492
-0.0400831
-0.0404532
-0.0407946
-0.0410753
-0.0411977
-0.0407625
-0.0377938
-0.023391
-0.037305
-0.0410071
-0.0422009
-0.0427405
-0.0431185
-0.0434859
-0.0439723
-0.0446821
-0.0455799
-0.0461601
-0.0455087
-0.0447596
-0.0441833
-0.0437768
-0.0434795
-0.0432479
-0.0430859
-0.0429502
-0.0427943
-0.0425183
-0.0427041
-0.042606
-0.0424567
-0.0424732
-0.0420558
-0.0417198
-0.0415062
-0.0409818
-0.0400625
-0.0383098
-0.0353949
0
0
-0.00294479
-0.00676197
-0.0108151
-0.0146374
-0.0180867
-0.0213246
-0.0246211
-0.0278471
-0.0306378
-0.0327086
-0.0341038
-0.0351214
-0.0359844
-0.0367714
-0.0374842
-0.0381496
-0.0387831
-0.0394607
-0.0408827
-0.0411277
-0.0413314
-0.0415796
-0.0418297
-0.0420341
-0.0421205
-0.0419505
-0.0412199
-0.0394224
-0.0365564
-0.039645
-0.0417384
-0.0428801
-0.0435605
-0.044058
-0.0444707
-0.0450568
-0.0461037
-0.0479817
-0.0501556
-0.0477299
-0.0461844
-0.045371
-0.0449096
-0.0446129
-0.0443739
-0.0442511
-0.0441394
-0.0440431
-0.044052
-0.0443971
-0.0440999
-0.0438417
-0.0436931
-0.0434241
-0.0427922
-0.0430398
-0.0424407
-0.0415179
-0.0395459
-0.0361841
0
0
-0.00334563
0.000410344
-0.0120121
-0.016352
-0.0202698
-0.0237909
-0.0274795
-0.0309257
-0.0337859
-0.0357947
-0.0370183
-0.0379042
-0.0386691
-0.0393572
-0.0399218
-0.0404336
-0.0409509
-0.0415304
-0.0422325
-0.0426243
-0.0428938
-0.0431167
-0.0433001
-0.0434173
-0.043417
-0.043213
-0.0426906
-0.0420436
-0.0418429
-0.0426071
-0.043431
-0.0440952
-0.0446366
-0.0451006
-0.0453465
-0.0458071
-0.0468672
-0.0500384
-0.0608095
-0.0495124
-0.0468925
-0.0461378
-0.0458325
-0.0456591
-0.0443739
-0.0454202
-0.0453331
-0.0452501
-0.0453976
-0.0464773
-0.0455803
-0.0451884
-0.0451064
-0.0451895
-0.0458396
-0.0451238
-0.0442454
-0.0435196
-0.0413929
-0.0366901
0
0
-0.00345386
-0.00816273
-0.0131483
-0.0180518
-0.022465
-0.0263826
-0.0302047
-0.0338858
-0.0368686
-0.0388582
-0.0398072
-0.0406364
-0.0413982
-0.0420514
-0.0424003
-0.0427155
-0.0430883
-0.0435478
-0.0439803
-0.0442965
-0.0445334
-0.0447179
-0.0448529
-0.0449255
-0.0449121
-0.044786
-0.0445422
-0.0441794
-0.0451997
-0.045083
-0.0451939
-0.0454868
-0.0458364
-0.046212
-0.0460963
-0.0460714
-0.0454701
-0.0423444
-0.026907
-0.0415543
-0.0451399
-0.0461817
-0.0464968
-0.0465871
-0.0465786
-0.0465888
-0.0465396
-0.0464151
-0.0464044
-0.0774068
-0.0467496
-0.0464686
-0.0465022
-0.0465742
-0.0466172
-0.0463439
-0.0467936
-0.0465512
-0.0460011
-0.0448711
0
0
-0.00365508
-0.00888886
-0.0142601
-0.0198948
-0.0247668
-0.0283406
-0.0327502
-0.036787
-0.0399246
-0.041981
-0.0422416
-0.0432731
-0.044197
-0.0449137
-0.0448405
-0.0449378
-0.0452021
-0.0456734
-0.0459515
-0.0461379
-0.046284
-0.0464017
-0.0464843
-0.0465254
-0.0465204
-0.0464678
-0.0463193
-0.0457919
-0.08086
-0.0469289
-0.0467755
-0.0468855
-0.0470334
-0.0470252
-0.0473102
-0.0469699
-0.0459872
-0.043854
-0.0405312
-0.043529
-0.0457767
-0.0468291
-0.0473307
-0.0475888
-0.0477269
-0.0478251
-0.0478757
-0.0479116
-0.0481249
-0.0490046
-0.0483218
-0.0480637
-0.0480482
-0.0480759
-0.0480692
-0.0481186
-0.0484589
-0.0484745
-0.0477359
-0.0453763
0
0
-0.0038878
-0.00954456
-0.0151854
-0.0337797
-0.0272781
0
-0.0354172
-0.0397421
-0.0430162
-0.0453541
-0.00982826
-0.0460244
-0.0470793
-0.0478857
-0.0470641
-0.0471355
-0.0473609
-0.0481264
-0.0481384
-0.0481208
-0.0481403
-0.0481661
-0.048181
-0.0481816
-0.0481794
-0.0482586
-0.0486612
-0.0481296
-0.0489707
-0.0486504
-0.0484852
-0.0484967
-0.048569
-0.0485851
-0.0485628
-0.0482096
-0.0474854
-0.0464626
-0.0457033
-0.0463845
-0.0473198
-0.0479964
-0.0484259
-0.0487324
-0.0489398
-0.049122
-0.0492514
-0.049354
-0.0494997
-0.0497189
-0.0495798
-0.0495585
-0.0496065
-0.0496461
-0.0496066
-0.0497145
-0.0499258
-0.0498744
-0.0488946
-0.0461695
0
0
-0.00414094
-0.0102571
-0.0165042
-0.0229796
-0.0286685
-0.0331385
-0.038192
-0.042572
-0.0457506
-0.047631
-0.0479046
-0.0486784
-0.049378
-0.049182
-0.0500496
-0.0500152
-0.049783
-0.0691334
-0.050374
-0.050163
-0.050063
-0.0499968
-0.0499213
-0.0498547
-0.0497699
-0.0495643
-0.0487628
-0.0495476
-0.049975
-0.0500305
-0.0500295
-0.0501007
-0.0502534
-0.0503719
-0.0501532
-0.0497729
-0.0492513
-0.0487388
-0.0484955
-0.0486855
-0.0490718
-0.0494424
-0.0496712
-0.0500175
-0.0502362
-0.0504791
-0.0506413
-0.0507522
-0.0508265
-0.0508352
-0.0507964
-0.0509787
-0.0511216
-0.0512188
-0.0510546
-0.0511662
-0.0512887
-0.051105
-0.0499831
-0.0471085
0
0
-0.00439034
-0.0109405
-0.0176416
-0.0242667
-0.0303812
-0.0358635
-0.0410676
-0.0454885
-0.048531
-0.0501697
-0.0510255
-0.0512151
-0.0504279
-0.0870447
-0.0527751
-0.0525764
-0.0524327
-0.0527673
-0.0525008
-0.0522537
-0.0520603
-0.051884
-0.0516805
-0.0515517
-0.0514452
-0.051292
-0.0510809
-0.051202
-0.0513722
-0.0514411
-0.051498
-0.0516566
-0.0520413
-0.0526201
-0.0519651
-0.0514973
-0.0509963
-0.0506614
-0.0505313
-0.050596
-0.0507842
-0.051037
-0.0514105
-0.0514957
-0.0516384
-0.0518885
-0.052029
-0.0521454
-0.0522042
-0.0520985
-0.0519823
-0.0523352
-0.0525135
-0.052732
-0.0524245
-0.0526068
-0.0526231
-0.0522453
-0.0510866
-0.0481436
0
0
-0.00463307
-0.0116017
-0.0187279
-0.0257205
-0.0322915
-0.0383451
-0.0438819
-0.0484994
-0.0515015
-0.0525216
-0.0541133
-0.0543645
-0.0541732
-0.0551552
-0.0550947
-0.0549077
-0.0547051
-0.0546605
-0.0544718
-0.0542457
-0.0540237
-0.05378
-0.0533669
-0.0532317
-0.0531604
-0.0530586
-0.052935
-0.0528321
-0.0528831
-0.0528686
-0.0528767
-0.0530369
-0.0537359
-0.056599
-0.0536933
-0.053303
-0.0525456
-0.0523129
-0.0522446
-0.0522843
-0.0523909
-0.0525449
-0.0527722
-0.0529825
-0.0531996
-0.0532249
-0.0533667
-0.0535433
-0.0536735
-0.0534628
-0.0532435
-0.0534586
-0.0536115
-0.0536364
-0.0543037
-0.0542733
-0.0539933
-0.0531885
-0.0522093
-0.049263
0
0
-0.00487327
-0.0122597
-0.0198221
-0.0272579
-0.0343003
-0.0408127
-0.0467122
-0.0517215
-0.0553663
-0.0584173
-0.0579531
-0.0575915
-0.0573838
-0.0574855
-0.0574002
-0.0571753
-0.0567335
-0.0566853
-0.0564638
-0.0562197
-0.0559921
-0.0557398
-0.0548328
-0.0548835
-0.0549153
-0.0548287
-0.0546946
-0.0544886
-0.0543282
-0.0542288
-0.0540889
-0.0538996
-0.0531278
-0.0488969
-0.0524876
-0.0527009
-0.0535155
-0.0536972
-0.0537757
-0.0538439
-0.0539095
-0.0539658
-0.0541606
-0.0543917
-0.0545865
-0.0546711
-0.0547908
-0.0549734
-0.0552031
-0.0547825
-0.0538892
-0.0550913
-0.0551981
-0.055278
-0.0556338
-0.0557279
-0.0553399
-0.0536091
-0.0534122
-0.0504623
0
0
-0.00511349
-0.0129229
-0.0209364
-0.0288481
-0.0363891
-0.0434313
-0.0497925
-0.0547698
-0.058399
-0.0605371
-0.0608779
-0.0606579
-0.0603595
-0.06014
-0.0598961
-0.0596254
-0.0595419
-0.0589273
-0.0585171
-0.0581965
-0.0579703
-0.0578826
-0.034336
-0.0567166
-0.0567573
-0.0565927
-0.0563835
-0.0528321
-0.0558494
-0.0556637
-0.0553056
-0.0551578
-0.0546013
-0.0536356
-0.0542429
-0.0545691
-0.0549249
-0.0551328
-0.0552658
-0.0553621
-0.0553879
-0.0552497
-0.0555084
-0.0557899
-0.0559883
-0.0561027
-0.0561916
-0.0562661
-0.0563291
-0.0568003
-0.0243689
-0.0653978
-0.0568446
-0.0568512
-0.057042
-0.0572231
-0.0570209
-0.0190684
-0.0549896
-0.0516922
0
0
-0.005353
-0.0135896
-0.0220647
-0.0304656
-0.0384959
-0.045968
-0.0525897
-0.0575301
-0.0611809
-0.0631627
-0.0637354
-0.0635961
-0.0632349
-0.0628424
-0.0624424
-0.0620247
-0.0615547
-0.060978
-0.0604889
-0.0600942
-0.0597631
-0.0593631
-0.0585609
-0.0585609
-0.0585176
-0.058191
-0.0578628
-0.0575268
-0.0573551
-0.0572243
-0.0572623
-0.0567924
-0.0564076
-0.0561014
-0.0561634
-0.0563061
-0.0564802
-0.0566358
-0.0567767
-0.0569051
-0.0569124
-0.0562717
-0.0568495
-0.0572374
-0.0574387
-0.0575527
-0.0576319
-0.0576935
-0.0577519
-0.0578165
-0.0571294
-0.058115
-0.0582348
-0.0582842
-0.0583625
-0.058369
-0.0579855
-0.0565347
-0.0559541
-0.0527955
0
0
-0.00558773
-0.014251
-0.0231983
-0.0321071
-0.0406409
-0.0485782
-0.0556086
-0.0599018
-0.0639098
-0.0660246
-0.0667005
-0.066549
-0.0660765
-0.065537
-0.0650007
-0.0644724
-0.0637222
-0.062959
-0.0623809
-0.061939
-0.0616028
-0.0612749
-0.0607481
-0.0604804
-0.0603815
-0.059692
-0.0592947
-0.0590431
-0.0588727
-0.0587266
-0.0585882
-0.0583396
-0.0581014
-0.0579369
-0.0578996
-0.0579435
-0.0580337
-0.0581478
-0.0582865
-0.0584689
-0.0586297
-0.0370609
-0.0583962
-0.0587581
-0.0589163
-0.0590171
-0.0590999
-0.0591696
-0.0592259
-0.0592509
-0.0591688
-0.0594519
-0.0595917
-0.0596626
-0.0596997
-0.0596486
-0.0593135
-0.0586826
-0.0573159
-0.0539441
0
0
-0.00580866
-0.0148882
-0.0243252
-0.0337797
-0.0428337
-0.0512924
-0.0591149
-0.0179725
-0.0670517
-0.0691792
-0.0698633
-0.0695209
-0.0688771
-0.0681783
-0.0675325
-0.0670674
-0.0658656
-0.064788
-0.0641729
-0.0637158
-0.0634609
-0.0630356
-0.0625513
-0.0621999
-0.0621961
-0.0609916
-0.0607574
-0.0606279
-0.060467
-0.0602854
-0.0600912
-0.0598815
-0.0596922
-0.0595569
-0.0594936
-0.0594947
-0.0595442
-0.0596272
-0.0597317
-0.0598314
-0.0598131
-0.0593079
-0.0597709
-0.0601035
-0.0603123
-0.0604618
-0.0605789
-0.0606708
-0.0607381
-0.0607812
-0.060814
-0.060917
-0.0610042
-0.0610647
-0.0611004
-0.0611049
-0.0610851
-0.0603936
-0.0587315
-0.0551572
0
0
-0.00599853
-0.0154546
-0.0254451
-0.0355075
-0.0450431
-0.0538193
-0.0614386
-0.0663959
-0.0705381
-0.0726329
-0.0728126
-0.072308
-0.0715313
-0.0707118
-0.0698314
-0.0700174
-0.0677698
-0.0663903
-0.0659224
-0.0654249
-0.0654571
-0.0648203
-0.0641443
-0.0634324
-0.0624134
-0.0630627
-0.0628262
-0.062487
-0.0621759
-0.0618919
-0.061634
-0.0614027
-0.0612096
-0.0610686
-0.0609905
-0.0609734
-0.0610066
-0.061077
-0.061168
-0.0612469
-0.0612518
-0.0611467
-0.0612951
-0.0615139
-0.0617327
-0.0619267
-0.0620849
-0.0622024
-0.0622799
-0.0623262
-0.0623601
-0.0624044
-0.0624522
-0.0624957
-0.0625222
-0.0625169
-0.0624196
-0.0618703
-0.060108
-0.0564086
0
0
-0.00613257
-0.0158035
-0.0267172
-0.0373049
-0.0473396
-0.0565102
-0.0644021
-0.0703086
-0.0742052
-0.0759412
-0.0759866
-0.0752418
-0.0742593
-0.0733618
-0.0732338
-0.0734253
-0.0691334
-0.0684922
-0.0677497
-0.067084
-0.0829185
-0.0665068
-0.0657605
-0.0650361
-0.0642594
-0.0642622
-0.0641521
-0.0639293
-0.0636548
-0.0633711
-0.063101
-0.0628582
-0.062652
-0.062494
-0.0624058
-0.0623861
-0.0624221
-0.0625025
-0.0626149
-0.0627296
-0.0627784
-0.0627136
-0.0627527
-0.0629297
-0.0631809
-0.0634323
-0.0636389
-0.0637822
-0.0638613
-0.0638912
-0.0638957
-0.0638995
-0.0639185
-0.0639497
-0.0639572
-0.0639192
-0.063811
-0.0633035
-0.0614732
-0.0576824
0
0
-0.00629805
-0.0152106
-0.0280547
-0.0394321
-0.0499435
-0.0595027
-0.0677118
-0.0739813
-0.0778571
-0.0793702