# vtk DataFile Version 2.0
FlowField
ASCII
DATASET STRUCTURED_GRID
DIMENSIONS 62 47 32 
POINTS 93248 double
0 0 0
0.01 0 0
0.02 0 0
0.03 0 0
0.04 0 0
0.05 0 0
0.06 0 0
0.07 0 0
0.08 0 0
0.09 0 0
0.1 0 0
0.11 0 0
0.12 0 0
0.13 0 0
0.14 0 0
0.15 0 0
0.16 0 0
0.17 0 0
0.18 0 0
0.19 0 0
0.2 0 0
0.21 0 0
0.22 0 0
0.23 0 0
0.24 0 0
0.25 0 0
0.26 0 0
0.27 0 0
0.28 0 0
0.29 0 0
0.3 0 0
0.31 0 0
0.32 0 0
0.33 0 0
0.34 0 0
0.35 0 0
0.36 0 0
0.37 0 0
0.38 0 0
0.39 0 0
0.4 0 0
0.41 0 0
0.42 0 0
0.43 0 0
0.44 0 0
0.45 0 0
0.46 0 0
0.47 0 0
0.48 0 0
0.49 0 0
0.5 0 0
0.51 0 0
0.52 0 0
0.53 0 0
0.54 0 0
0.55 0 0
0.56 0 0
0.57 0 0
0.58 0 0
0.59 0 0
0.6 0 0
0.61 0 0
0 0.01 0
0.01 0.01 0
0.02 0.01 0
0.03 0.01 0
0.04 0.01 0
0.05 0.01 0
0.06 0.01 0
0.07 0.01 0
0.08 0.01 0
0.09 0.01 0
0.1 0.01 0
0.11 0.01 0
0.12 0.01 0
0.13 0.01 0
0.14 0.01 0
0.15 0.01 0
0.16 0.01 0
0.17 0.01 0
0.18 0.01 0
0.19 0.01 0
0.2 0.01 0
0.21 0.01 0
0.22 0.01 0
0.23 0.01 0
0.24 0.01 0
0.25 0.01 0
0.26 0.01 0
0.27 0.01 0
0.28 0.01 0
0.29 0.01 0
0.3 0.01 0
0.31 0.01 0
0.32 0.01 0
0.33 0.01 0
0.34 0.01 0
0.35 0.01 0
0.36 0.01 0
0.37 0.01 0
0.38 0.01 0
0.39 0.01 0
0.4 0.01 0
0.41 0.01 0
0.42 0.01 0
0.43 0.01 0
0.44 0.01 0
0.45 0.01 0
0.46 0.01 0
0.47 0.01 0
0.48 0.01 0
0.49 0.01 0
0.5 0.01 0
0.51 0.01 0
0.52 0.01 0
0.53 0.01 0
0.54 0.01 0
0.55 0.01 0
0.56 0.01 0
0.57 0.01 0
0.58 0.01 0
0.59 0.01 0
0.6 0.01 0
0.61 0.01 0
0 0.02 0
0.01 0.02 0
0.02 0.02 0
0.03 0.02 0
0.04 0.02 0
0.05 0.02 0
0.06 0.02 0
0.07 0.02 0
0.08 0.02 0
0.09 0.02 0
0.1 0.02 0
0.11 0.02 0
0.12 0.02 0
0.13 0.02 0
0.14 0.02 0
0.15 0.02 0
0.16 0.02 0
0.17 0.02 0
0.18 0.02 0
0.19 0.02 0
0.2 0.02 0
0.21 0.02 0
0.22 0.02 0
0.23 0.02 0
0.24 0.02 0
0.25 0.02 0
0.26 0.02 0
0.27 0.02 0
0.28 0.02 0
0.29 0.02 0
0.3 0.02 0
0.31 0.02 0
0.32 0.02 0
0.33 0.02 0
0.34 0.02 0
0.35 0.02 0
0.36 0.02 0
0.37 0.02 0
0.38 0.02 0
0.39 0.02 0
0.4 0.02 0
0.41 0.02 0
0.42 0.02 0
0.43 0.02 0
0.44 0.02 0
0.45 0.02 0
0.46 0.02 0
0.47 0.02 0
0.48 0.02 0
0.49 0.02 0
0.5 0.02 0
0.51 0.02 0
0.52 0.02 0
0.53 0.02 0
0.54 0.02 0
0.55 0.02 0
0.56 0.02 0
0.57 0.02 0
0.58 0.02 0
0.59 0.02 0
0.6 0.02 0
0.61 0.02 0
0 0.03 0
0.01 0.03 0
0.02 0.03 0
0.03 0.03 0
0.04 0.03 0
0.05 0.03 0
0.06 0.03 0
0.07 0.03 0
0.08 0.03 0
0.09 0.03 0
0.1 0.03 0
0.11 0.03 0
0.12 0.03 0
0.13 0.03 0
0.14 0.03 0
0.15 0.03 0
0.16 0.03 0
0.17 0.03 0
0.18 0.03 0
0.19 0.03 0
0.2 0.03 0
0.21 0.03 0
0.22 0.03 0
0.23 0.03 0
0.24 0.03 0
0.25 0.03 0
0.26 0.03 0
0.27 0.03 0
0.28 0.03 0
0.29 0.03 0
0.3 0.03 0
0.31 0.03 0
0.32 0.03 0
0.33 0.03 0
0.34 0.03 0
0.35 0.03 0
0.36 0.03 0
0.37 0.03 0
0.38 0.03 0
0.39 0.03 0
0.4 0.03 0
0.41 0.03 0
0.42 0.03 0
0.43 0.03 0
0.44 0.03 0
0.45 0.03 0
0.46 0.03 0
0.47 0.03 0
0.48 0.03 0
0.49 0.03 0
0.5 0.03 0
0.51 0.03 0
0.52 0.03 0
0.53 0.03 0
0.54 0.03 0
0.55 0.03 0
0.56 0.03 0
0.57 0.03 0
0.58 0.03 0
0.59 0.03 0
0.6 0.03 0
0.61 0.03 0
0 0.04 0
0.01 0.04 0
0.02 0.04 0
0.03 0.04 0
0.04 0.04 0
0.05 0.04 0
0.06 0.04 0
0.07 0.04 0
0.08 0.04 0
0.09 0.04 0
0.1 0.04 0
0.11 0.04 0
0.12 0.04 0
0.13 0.04 0
0.14 0.04 0
0.15 0.04 0
0.16 0.04 0
0.17 0.04 0
0.18 0.04 0
0.19 0.04 0
0.2 0.04 0
0.21 0.04 0
0.22 0.04 0
0.23 0.04 0
0.24 0.04 0
0.25 0.04 0
0.26 0.04 0
0.27 0.04 0
0.28 0.04 0
0.29 0.04 0
0.3 0.04 0
0.31 0.04 0
0.32 0.04 0
0.33 0.04 0
0.34 0.04 0
0.35 0.04 0
0.36 0.04 0
0.37 0.04 0
0.38 0.04 0
0.39 0.04 0
0.4 0.04 0
0.41 0.04 0
0.42 0.04 0
0.43 0.04 0
0.44 0.04 0
0.45 0.04 0
0.46 0.04 0
0.47 0.04 0
0.48 0.04 0
0.49 0.04 0
0.5 0.04 0
0.51 0.04 0
0.52 0.04 0
0.53 0.04 0
0.54 0.04 0
0.55 0.04 0
0.56 0.04 0
0.57 0.04 0
0.58 0.04 0
0.59 0.04 0
0.6 0.04 0
0.61 0.04 0
0 0.05 0
0.01 0.05 0
0.02 0.05 0
0.03 0.05 0
0.04 0.05 0
0.05 0.05 0
0.06 0.05 0
0.07 0.05 0
0.08 0.05 0
0.09 0.05 0
0.1 0.05 0
0.11 0.05 0
0.12 0.05 0
0.13 0.05 0
0.14 0.05 0
0.15 0.05 0
0.16 0.05 0
0.17 0.05 0
0.18 0.05 0
0.19 0.05 0
0.2 0.05 0
0.21 0.05 0
0.22 0.05 0
0.23 0.05 0
0.24 0.05 0
0.25 0.05 0
0.26 0.05 0
0.27 0.05 0
0.28 0.05 0
0.29 0.05 0
0.3 0.05 0
0.31 0.05 0
0.32 0.05 0
0.33 0.05 0
0.34 0.05 0
0.35 0.05 0
0.36 0.05 0
0.37 0.05 0
0.38 0.05 0
0.39 0.05 0
0.4 0.05 0
0.41 0.05 0
0.42 0.05 0
0.43 0.05 0
0.44 0.05 0
0.45 0.05 0
0.46 0.05 0
0.47 0.05 0
0.48 0.05 0
0.49 0.05 0
0.5 0.05 0
0.51 0.05 0
0.52 0.05 0
0.53 0.05 0
0.54 0.05 0
0.55 0.05 0
0.56 0.05 0
0.57 0.05 0
0.58 0.05 0
0.59 0.05 0
0.6 0.05 0
0.61 0.05 0
0 0.06 0
0.01 0.06 0
0.02 0.06 0
0.03 0.06 0
0.04 0.06 0
0.05 0.06 0
0.06 0.06 0
0.07 0.06 0
0.08 0.06 0
0.09 0.06 0
0.1 0.06 0
0.11 0.06 0
0.12 0.06 0
0.13 0.06 0
0.14 0.06 0
0.15 0.06 0
0.16 0.06 0
0.17 0.06 0
0.18 0.06 0
0.19 0.06 0
0.2 0.06 0
0.21 0.06 0
0.22 0.06 0
0.23 0.06 0
0.24 0.06 0
0.25 0.06 0
0.26 0.06 0
0.27 0.06 0
0.28 0.06 0
0.29 0.06 0
0.3 0.06 0
0.31 0.06 0
0.32 0.06 0
0.33 0.06 0
0.34 0.06 0
0.35 0.06 0
0.36 0.06 0
0.37 0.06 0
0.38 0.06 0
0.39 0.06 0
0.4 0.06 0
0.41 0.06 0
0.42 0.06 0
0.43 0.06 0
0.44 0.06 0
0.45 0.06 0
0.46 0.06 0
0.47 0.06 0
0.48 0.06 0
0.49 0.06 0
0.5 0.06 0
0.51 0.06 0
0.52 0.06 0
0.53 0.06 0
0.54 0.06 0
0.55 0.06 0
0.56 0.06 0
0.57 0.06 0
0.58 0.06 0
0.59 0.06 0
0.6 0.06 0
0.61 0.06 0
0 0.07 0
0.01 0.07 0
0.02 0.07 0
0.03 0.07 0
0.04 0.07 0
0.05 0.07 0
0.06 0.07 0
0.07 0.07 0
0.08 0.07 0
0.09 0.07 0
0.1 0.07 0
0.11 0.07 0
0.12 0.07 0
0.13 0.07 0
0.14 0.07 0
0.15 0.07 0
0.16 0.07 0
0.17 0.07 0
0.18 0.07 0
0.19 0.07 0
0.2 0.07 0
0.21 0.07 0
0.22 0.07 0
0.23 0.07 0
0.24 0.07 0
0.25 0.07 0
0.26 0.07 0
0.27 0.07 0
0.28 0.07 0
0.29 0.07 0
0.3 0.07 0
0.31 0.07 0
0.32 0.07 0
0.33 0.07 0
0.34 0.07 0
0.35 0.07 0
0.36 0.07 0
0.37 0.07 0
0.38 0.07 0
0.39 0.07 0
0.4 0.07 0
0.41 0.07 0
0.42 0.07 0
0.43 0.07 0
0.44 0.07 0
0.45 0.07 0
0.46 0.07 0
0.47 0.07 0
0.48 0.07 0
0.49 0.07 0
0.5 0.07 0
0.51 0.07 0
0.52 0.07 0
0.53 0.07 0
0.54 0.07 0
0.55 0.07 0
0.56 0.07 0
0.57 0.07 0
0.58 0.07 0
0.59 0.07 0
0.6 0.07 0
0.61 0.07 0
0 0.08 0
0.01 0.08 0
0.02 0.08 0
0.03 0.08 0
0.04 0.08 0
0.05 0.08 0
0.06 0.08 0
0.07 0.08 0
0.08 0.08 0
0.09 0.08 0
0.1 0.08 0
0.11 0.08 0
0.12 0.08 0
0.13 0.08 0
0.14 0.08 0
0.15 0.08 0
0.16 0.08 0
0.17 0.08 0
0.18 0.08 0
0.19 0.08 0
0.2 0.08 0
0.21 0.08 0
0.22 0.08 0
0.23 0.08 0
0.24 0.08 0
0.25 0.08 0
0.26 0.08 0
0.27 0.08 0
0.28 0.08 0
0.29 0.08 0
0.3 0.08 0
0.31 0.08 0
0.32 0.08 0
0.33 0.08 0
0.34 0.08 0
0.35 0.08 0
0.36 0.08 0
0.37 0.08 0
0.38 0.08 0
0.39 0.08 0
0.4 0.08 0
0.41 0.08 0
0.42 0.08 0
0.43 0.08 0
0.44 0.08 0
0.45 0.08 0
0.46 0.08 0
0.47 0.08 0
0.48 0.08 0
0.49 0.08 0
0.5 0.08 0
0.51 0.08 0
0.52 0.08 0
0.53 0.08 0
0.54 0.08 0
0.55 0.08 0
0.56 0.08 0
0.57 0.08 0
0.58 0.08 0
0.59 0.08 0
0.6 0.08 0
0.61 0.08 0
0 0.09 0
0.01 0.09 0
0.02 0.09 0
0.03 0.09 0
0.04 0.09 0
0.05 0.09 0
0.06 0.09 0
0.07 0.09 0
0.08 0.09 0
0.09 0.09 0
0.1 0.09 0
0.11 0.09 0
0.12 0.09 0
0.13 0.09 0
0.14 0.09 0
0.15 0.09 0
0.16 0.09 0
0.17 0.09 0
0.18 0.09 0
0.19 0.09 0
0.2 0.09 0
0.21 0.09 0
0.22 0.09 0
0.23 0.09 0
0.24 0.09 0
0.25 0.09 0
0.26 0.09 0
0.27 0.09 0
0.28 0.09 0
0.29 0.09 0
0.3 0.09 0
0.31 0.09 0
0.32 0.09 0
0.33 0.09 0
0.34 0.09 0
0.35 0.09 0
0.36 0.09 0
0.37 0.09 0
0.38 0.09 0
0.39 0.09 0
0.4 0.09 0
0.41 0.09 0
0.42 0.09 0
0.43 0.09 0
0.44 0.09 0
0.45 0.09 0
0.46 0.09 0
0.47 0.09 0
0.48 0.09 0
0.49 0.09 0
0.5 0.09 0
0.51 0.09 0
0.52 0.09 0
0.53 0.09 0
0.54 0.09 0
0.55 0.09 0
0.56 0.09 0
0.57 0.09 0
0.58 0.09 0
0.59 0.09 0
0.6 0.09 0
0.61 0.09 0
0 0.1 0
0.01 0.1 0
0.02 0.1 0
0.03 0.1 0
0.04 0.1 0
0.05 0.1 0
0.06 0.1 0
0.07 0.1 0
0.08 0.1 0
0.09 0.1 0
0.1 0.1 0
0.11 0.1 0
0.12 0.1 0
0.13 0.1 0
0.14 0.1 0
0.15 0.1 0
0.16 0.1 0
0.17 0.1 0
0.18 0.1 0
0.19 0.1 0
0.2 0.1 0
0.21 0.1 0
0.22 0.1 0
0.23 0.1 0
0.24 0.1 0
0.25 0.1 0
0.26 0.1 0
0.27 0.1 0
0.28 0.1 0
0.29 0.1 0
0.3 0.1 0
0.31 0.1 0
0.32 0.1 0
0.33 0.1 0
0.34 0.1 0
0.35 0.1 0
0.36 0.1 0
0.37 0.1 0
0.38 0.1 0
0.39 0.1 0
0.4 0.1 0
0.41 0.1 0
0.42 0.1 0
0.43 0.1 0
0.44 0.1 0
0.45 0.1 0
0.46 0.1 0
0.47 0.1 0
0.48 0.1 0
0.49 0.1 0
0.5 0.1 0
0.51 0.1 0
0.52 0.1 0
0.53 0.1 0
0.54 0.1 0
0.55 0.1 0
0.56 0.1 0
0.57 0.1 0
0.58 0.1 0
0.59 0.1 0
0.6 0.1 0
0.61 0.1 0
0 0.11 0
0.01 0.11 0
0.02 0.11 0
0.03 0.11 0
0.04 0.11 0
0.05 0.11 0
0.06 0.11 0
0.07 0.11 0
0.08 0.11 0
0.09 0.11 0
0.1 0.11 0
0.11 0.11 0
0.12 0.11 0
0.13 0.11 0
0.14 0.11 0
0.15 0.11 0
0.16 0.11 0
0.17 0.11 0
0.18 0.11 0
0.19 0.11 0
0.2 0.11 0
0.21 0.11 0
0.22 0.11 0
0.23 0.11 0
0.24 0.11 0
0.25 0.11 0
0.26 0.11 0
0.27 0.11 0
0.28 0.11 0
0.29 0.11 0
0.3 0.11 0
0.31 0.11 0
0.32 0.11 0
0.33 0.11 0
0.34 0.11 0
0.35 0.11 0
0.36 0.11 0
0.37 0.11 0
0.38 0.11 0
0.39 0.11 0
0.4 0.11 0
0.41 0.11 0
0.42 0.11 0
0.43 0.11 0
0.44 0.11 0
0.45 0.11 0
0.46 0.11 0
0.47 0.11 0
0.48 0.11 0
0.49 0.11 0
0.5 0.11 0
0.51 0.11 0
0.52 0.11 0
0.53 0.11 0
0.54 0.11 0
0.55 0.11 0
0.56 0.11 0
0.57 0.11 0
0.58 0.11 0
0.59 0.11 0
0.6 0.11 0
0.61 0.11 0
0 0.12 0
0.01 0.12 0
0.02 0.12 0
0.03 0.12 0
0.04 0.12 0
0.05 0.12 0
0.06 0.12 0
0.07 0.12 0
0.08 0.12 0
0.09 0.12 0
0.1 0.12 0
0.11 0.12 0
0.12 0.12 0
0.13 0.12 0
0.14 0.12 0
0.15 0.12 0
0.16 0.12 0
0.17 0.12 0
0.18 0.12 0
0.19 0.12 0
0.2 0.12 0
0.21 0.12 0
0.22 0.12 0
0.23 0.12 0
0.24 0.12 0
0.25 0.12 0
0.26 0.12 0
0.27 0.12 0
0.28 0.12 0
0.29 0.12 0
0.3 0.12 0
0.31 0.12 0
0.32 0.12 0
0.33 0.12 0
0.34 0.12 0
0.35 0.12 0
0.36 0.12 0
0.37 0.12 0
0.38 0.12 0
0.39 0.12 0
0.4 0.12 0
0.41 0.12 0
0.42 0.12 0
0.43 0.12 0
0.44 0.12 0
0.45 0.12 0
0.46 0.12 0
0.47 0.12 0
0.48 0.12 0
0.49 0.12 0
0.5 0.12 0
0.51 0.12 0
0.52 0.12 0
0.53 0.12 0
0.54 0.12 0
0.55 0.12 0
0.56 0.12 0
0.57 0.12 0
0.58 0.12 0
0.59 0.12 0
0.6 0.12 0
0.61 0.12 0
0 0.13 0
0.01 0.13 0
0.02 0.13 0
0.03 0.13 0
0.04 0.13 0
0.05 0.13 0
0.06 0.13 0
0.07 0.13 0
0.08 0.13 0
0.09 0.13 0
0.1 0.13 0
0.11 0.13 0
0.12 0.13 0
0.13 0.13 0
0.14 0.13 0
0.15 0.13 0
0.16 0.13 0
0.17 0.13 0
0.18 0.13 0
0.19 0.13 0
0.2 0.13 0
0.21 0.13 0
0.22 0.13 0
0.23 0.13 0
0.24 0.13 0
0.25 0.13 0
0.26 0.13 0
0.27 0.13 0
0.28 0.13 0
0.29 0.13 0
0.3 0.13 0
0.31 0.13 0
0.32 0.13 0
0.33 0.13 0
0.34 0.13 0
0.35 0.13 0
0.36 0.13 0
0.37 0.13 0
0.38 0.13 0
0.39 0.13 0
0.4 0.13 0
0.41 0.13 0
0.42 0.13 0
0.43 0.13 0
0.44 0.13 0
0.45 0.13 0
0.46 0.13 0
0.47 0.13 0
0.48 0.13 0
[...]
POINT_DATA 93248

SCALARS w double
LOOKUP_TABLE default
0
0
0
0
0
0
0
0
0
0
0
0
0
-0.0676891
0
0
0
0
0
0
0
0
0
0
0
0
-0.139539
0
0
0
0
0
-0.135395
0
0
0
0
0
0
0
0
0
0
0
0
0
-0.123527
0
0
0
0
0
0
0
0
0
0
0
0
0
0
0
0
-0.0186387
-0.0370565
-0.0501852
-0.0577718
-0.0615395
-0.0638821
-0.0655166
-0.0663824
-0.0667382
-0.0665672
-0.0657497
-0.0643151
-0.0642421
-0.0646831
-0.0651859
-0.0655854
-0.0660956
-0.0664638
-0.0659391
-0.0607833
-0.0605017
-0.0622477
-0.0619872
-0.0617235
-0.0615272
-0.061328
-0.0611068
-0.0608652
-0.0605967
-0.0602587
-0.0597426
-0.0589982
-0.0591316
-0.0592037
-0.0585121
-0.0575137
-0.0583536
-0.0601912
-0.0646022
-0.0563747
-0.0584433
-0.0607156
-0.0621732
-0.0643746
-0.132051
-0.0603269
-0.059584
-0.0596582
-0.0605838
-0.0614984
-0.0626511
-0.0619513
-0.064023
-0.13214
-0.0632066
-0.0595916
-0.0587024
-0.0591963
-0.0585583
-0.055136
0
0
-0.0221551
-0.0531492
-0.0719119
-0.0855855
-0.0953652
-0.105843
-0.113788
-0.119443
-0.12311
-0.12512
-0.125323
-0.123682
-0.124027
-0.124455
-0.124917
-0.125305
-0.1262
-0.127206
-0.128638
-0.118476
-0.119219
-0.148879
-0.120875
-0.119618
-0.119056
-0.11864
-0.11824
-0.11783
-0.117405
-0.116942
-0.116318
-0.115129
-0.115532
-0.115684
-0.114592
-0.114571
-0.113704
-0.113749
-0.119313
-0.116561
-0.117519
-0.118592
-0.119599
-0.121998
-0.125181
-0.122537
-0.118806
-0.11775
-0.117958
-0.11885
-0.132757
-0.119976
-0.121499
-0.1243
-0.121625
-0.119875
-0.11619
-0.115003
-0.112003
-0.1046
0
0
-0.0219859
-0.0531148
-0.0739953
-0.0899944
-0.0615395
-0.113493
-0.125297
-0.134031
-0.140544
-0.145354
-0.147453
-0.150083
-0.149027
-0.147935
-0.147121
-0.147066
-0.148023
-0.148322
-0.149216
-0.147777
-0.144991
-0.144439
-0.142692
-0.141512
-0.14073
-0.140132
-0.13961
-0.139124
-0.138675
-0.13832
-0.13827
-0.139025
-0.142531
-0.138136
-0.135146
-0.134925
-0.13465
-0.134916
-0.137454
-0.137765
-0.138554
-0.13972
-0.139389
-0.141114
-0.143002
-0.140751
-0.139265
-0.138306
-0.13903
-0.13931
-0.140056
-0.140051
-0.140783
-0.141661
-0.141473
-0.141258
-0.140605
-0.13702
-0.132207
-0.122928
0
0
-0.0215174
-0.0519191
-0.0523929
-0.0907178
-0.10453
-0.117861
-0.128797
-0.137673
-0.14471
-0.150002
-0.153233
-0.155234
-0.155254
-0.154376
-0.153119
-0.152275
-0.151011
-0.151602
-0.152543
-0.151506
-0.150332
-0.149287
-0.148159
-0.147177
-0.146367
-0.145686
-0.145089
-0.144553
-0.144078
-0.143697
-0.143479
-0.143423
-0.142881
-0.142369
-0.141042
-0.140523
-0.140306
-0.139419
-0.141462
-0.142214
-0.142905
-0.143575
-0.143689
-0.144398
-0.145165
-0.144792
-0.143744
-0.14312
-0.143342
-0.143529
-0.143791
-0.144033
-0.14443
-0.144856
-0.145174
-0.14528
-0.144674
-0.14203
-0.137136
-0.127369
0
0
-0.0213741
-0.0519347
-0.0742119
-0.0926211
-0.107297
-0.119799
-0.130166
-0.138669
-0.145529
-0.150655
-0.153953
-0.155616
-0.155787
-0.154937
-0.143595
-0.152181
-0.151498
-0.151168
-0.151211
-0.150584
-0.149768
-0.148879
-0.147972
-0.147111
-0.146326
-0.145629
-0.145001
-0.144433
-0.143927
-0.143484
-0.143072
-0.142531
-0.14154
-0.141291
-0.140953
-0.140703
-0.140569
-0.140592
-0.140982
-0.141428
-0.141863
-0.142232
-0.142421
-0.14269
-0.143076
-0.143808
-0.142518
-0.142118
-0.142197
-0.142367
-0.142574
-0.142838
-0.143175
-0.143537
-0.143865
-0.143937
-0.143238
-0.140842
-0.135969
-0.126484
0
0
-0.0213074
-0.0518965
-0.074957
-0.0932763
-0.108234
-0.120771
-0.130744
-0.138879
-0.145573
-0.150464
-0.153517
-0.154896
-0.154969
-0.154081
-0.152476
-0.151084
-0.15042
-0.14624
-0.149556
-0.149028
-0.148255
-0.147399
-0.146536
-0.145699
-0.144912
-0.144223
-0.143585
-0.143
-0.142479
-0.142019
-0.141566
-0.140918
-0.139434
-0.139763
-0.139807
-0.139647
-0.139485
-0.139419
-0.139493
-0.139655
-0.13985
-0.140018
-0.140067
-0.140002
-0.139564
-0.138277
-0.139022
-0.139561
-0.139903
-0.140144
-0.14037
-0.140664
-0.141061
-0.141456
-0.141749
-0.141697
-0.140662
-0.137405
-0.130962
-0.123221
0
0
-0.0212455
-0.051769
-0.0749452
-0.0933142
-0.108451
-0.121447
-0.13075
-0.139234
-0.145702
-0.150243
-0.152894
-0.153872
-0.153856
-0.152916
-0.151216
-0.148891
-0.149157
-0.149102
-0.148692
-0.147933
-0.147
-0.14607
-0.145169
-0.144297
-0.143461
-0.142824
-0.142178
-0.141579
-0.141065
-0.140654
-0.140367
-0.140414
-0.141508
-0.140367
-0.139396
-0.13876
-0.138362
-0.138139
-0.138044
-0.138037
-0.138079
-0.138134
-0.138048
-0.137926
-0.137604
-0.137117
-0.137346
-0.137698
-0.137977
-0.138179
-0.138376
-0.138698
-0.139248
-0.139738
-0.14004
-0.139913
-0.138449
-0.132766
-0.0585583
-0.119827
0
0
-0.021181
-0.0516
-0.0747288
-0.0930661
-0.108164
-0.120826
-0.130842
-0.139115
-0.145439
-0.14973
-0.151981
-0.152117
-0.152487
-0.151697
-0.149713
-0.145411
-0.136263
-0.148683
-0.148164
-0.147138
-0.14599
-0.144997
-0.144066
-0.143142
-0.142183
-0.141715
-0.141024
-0.140403
-0.139912
-0.139574
-0.139342
-0.139281
-0.139453
-0.138921
-0.138244
-0.137673
-0.137254
-0.136978
-0.136813
-0.136725
-0.136685
-0.136659
-0.136589
-0.136497
-0.136358
-0.13623
-0.136288
-0.136432
-0.136564
-0.136649
-0.136741
-0.137039
-0.137927
-0.138568
-0.138941
-0.139037
-0.138507
-0.136194
-0.128154
-0.120747
0
0
-0.0211188
-0.051427
-0.0744695
-0.0927363
-0.107765
-0.120289
-0.130554
-0.138823
-0.145057
-0.149146
-0.150839
-0.123682
-0.150559
-0.150712
-0.149461
-0.147332
-0.147584
-0.147712
-0.147146
-0.146206
-0.144981
-0.144103
-0.143195
-0.142241
-0.141243
-0.140596
-0.139947
-0.139367
-0.138944
-0.138745
-0.138523
-0.138256
-0.137949
-0.137494
-0.137
-0.136562
-0.136198
-0.135939
-0.135768
-0.135659
-0.135589
-0.135541
-0.135496
-0.135453
-0.135414
-0.1354
-0.135431
-0.135484
-0.13551
-0.135468
-0.135373
-0.134358
-0.137088
-0.137853
-0.138228
-0.138398
-0.138092
-0.136333
-0.131179
-0.121154
0
0
-0.0210635
-0.0512709
-0.0742271
-0.0924153
-0.107391
-0.119874
-0.130201
-0.138493
-0.144711
-0.148793
-0.15075
-0.150534
-0.150986
-0.15062
-0.149719
-0.148468
-0.147738
-0.147085
-0.146291
-0.145417
-0.144774
-0.143676
-0.142575
-0.141485
-0.138365
-0.139628
-0.13898
-0.138401
-0.138035
-0.138083
-0.137892
-0.137406
-0.136832
-0.136315
-0.135885
-0.135548
-0.135227
-0.135003
-0.134859
-0.13476
-0.134692
-0.134648
-0.134629
-0.134627
-0.134639
-0.134668
-0.134708
-0.134741
-0.134729
-0.13462
-0.13441
-0.134358
-0.136841
-0.137385
-0.137671
-0.137842
-0.137584
-0.135994
-0.131476
-0.121181
0
0
-0.0210178
-0.0511422
-0.0740277
-0.0921442
-0.107095
-0.119569
-0.129913
-0.138218
-0.144444
-0.148569
-0.150746
-0.151371
-0.151274
-0.150704
-0.150078
-0.14891
-0.147745
-0.146657
-0.1456
-0.144576
-0.143785
-0.142818
-0.141803
-0.140774
-0.139716
-0.138863
-0.138061
-0.137373
-0.136882
-0.136779
-0.137342
-0.136283
-0.135552
-0.135105
-0.134796
-0.134561
-0.134371
-0.134149
-0.134044
-0.133969
-0.133911
-0.133869
-0.133889
-0.133931
-0.133983
-0.134043
-0.134108
-0.134169
-0.134199
-0.134155
-0.134129
-0.134449
-0.135845
-0.136594
-0.137033
-0.137295
-0.137107
-0.135604
-0.131247
-0.121013
0
0
-0.0209825
-0.0510455
-0.0738946
-0.0920583
-0.106961
-0.119391
-0.129717
-0.138015
-0.14424
-0.148382
-0.150635
-0.151397
-0.151204
-0.150571
-0.15029
-0.148747
-0.147313
-0.146049
-0.144865
-0.143803
-0.142893
-0.141984
-0.141047
-0.140073
-0.139063
-0.138048
-0.137036
-0.136099
-0.135167
-0.134379
-0.132696
-0.133175
-0.13355
-0.133691
-0.133691
-0.133617
-0.133514
-0.133385
-0.1333
-0.133239
-0.133174
-0.133063
-0.133195
-0.133313
-0.133414
-0.133511
-0.133615
-0.133737
-0.133864
-0.133908
-0.134025
-0.134409
-0.135186
-0.135865
-0.136401
-0.136777
-0.136688
-0.135256
-0.130969
-0.12079
0
0
-0.0209552
-0.05097
-0.0737841
-0.0919266
-0.106795
-0.119212
-0.129534
-0.137833
-0.144059
-0.148198
-0.150464
-0.151217
-0.150911
-0.149863
-0.147788
-0.14698
-0.146146
-0.145143
-0.143972
-0.142987
-0.142136
-0.1413
-0.140413
-0.139444
-0.138365
-0.137142
-0.135755
-0.134222
-0.131984
-0.131692
-0.131533
-0.131926
-0.132353
-0.132639
-0.132769
-0.132783
-0.13274
-0.132632
-0.132557
-0.13251
-0.1324
-0.12887
-0.132471
-0.132745
-0.132911
-0.133048
-0.133192
-0.133382
-0.133642
-0.133691
-0.133854
-0.134225
-0.134782
-0.135351
-0.135904
-0.136362
-0.136389
-0.134979
-0.130723
-0.120568
0
0
-0.0209347
-0.0509146
-0.0737107
-0.0930661
-0.106697
-0.119063
-0.129372
-0.13767
-0.143902
-0.148074
-0.15032
-0.151037
-0.150689
-0.149655
-0.148164
-0.146982
-0.145901
-0.144714
-0.143177
-0.14232
-0.141625
-0.140869
-0.139994
-0.13897
-0.137743
-0.136181
-0.134018
-0.130576
-0.121695
-0.125464
-0.128412
-0.130154
-0.131165
-0.131718
-0.131968
-0.132026
-0.132723
-0.13182
-0.131695
-0.13169
-0.131726
-0.131718
-0.132011
-0.132264
-0.132465
-0.132631
-0.132787
-0.132989
-0.133367
-0.133327
-0.133544
-0.133979
-0.134576
-0.135041
-0.135577
-0.136093
-0.137405
-0.134792
-0.13052
-0.12036
0
0
-0.0209198
-0.0508731
-0.0736193
-0.0916904
-0.10651
-0.118905
-0.129223
-0.137524
-0.143754
-0.147912
-0.150161
-0.150877
-0.150538
-0.149581
-0.148348
-0.147131
-0.145957
-0.144667
-0.142624
-0.142221
-0.14166
-0.140852
-0.139872
-0.138723
-0.137313
-0.135352
-0.131895
-0.122614
0.0644999
-0.112589
-0.123849
-0.128216
-0.13013
-0.130987
-0.131294
-0.131271
-0.131049
-0.130661
-0.130303
-0.130406
-0.130726
-0.131085
-0.131459
-0.131786
-0.132051
-0.132243
-0.132362
-0.132354
-0.132117
-0.132549
-0.133079
-0.133738
-0.137088
-0.134921
-0.135427
-0.13586
-0.135948
-0.13458
-0.130342
-0.120158
0
0
-0.0209117
-0.0508675
-0.0735623
-0.0915464
-0.106364
-0.11877
-0.129099
-0.137404
-0.143633
-0.147788
-0.150047
-0.150772
-0.15044
-0.149517
-0.148357
-0.14718
-0.146101
-0.145316
-0.145622
-0.144066
-0.142562
-0.141236
-0.139981
-0.138681
-0.13719
-0.135247
-0.132286
-0.127
-0.117262
-0.122405
-0.126584
-0.128993
-0.130243
-0.130781
-0.130854
-0.130545
-0.12985
-0.128672
-0.126973
-0.127692
-0.128892
-0.129923
-0.130694
-0.131251
-0.131653
-0.131904
-0.132051
-0.132078
-0.131997
-0.132127
-0.132683
-0.133384
-0.134164
-0.134784
-0.135639
-0.13578
-0.135774
-0.134438
-0.130195
-0.119948
0
0
-0.0208947
-0.0508769
-0.073481
-0.0913907
-0.106201
-0.118657
-0.129019
-0.137325
-0.143549
-0.147714
-0.150014
-0.150744
-0.150389
-0.149439
-0.148273
-0.147104
-0.146037
-0.14517
-0.144614
-0.14356
-0.142351
-0.141134
-0.139918
-0.138657
-0.137269
-0.135638
-0.133605
-0.130888
-0.12828
-0.128604
-0.129594
-0.130386
-0.1308
-0.130846
-0.13057
-0.129816
-0.128216
-0.124595
-0.115985
-0.121361
-0.125683
-0.128271
-0.129784
-0.130695
-0.131284
-0.131616
-0.131829
-0.131924
-0.131853
-0.131671
-0.132391
-0.133151
-0.133891
-0.134886
-0.145174
-0.135889
-0.135767
-0.134363
-0.130074
-0.119641
0
0
-0.0208034
-0.0504253
-0.0730634
-0.0910485
-0.105962
-0.119874
-0.129061
-0.137312
-0.143502
-0.147686
-0.150103
-0.150811
-0.150355
-0.149294
-0.148075
-0.146895
-0.145804
-0.144804
-0.143907
-0.142949
-0.141933
-0.140879
-0.139789
-0.138646
-0.137428
-0.136129
-0.134805
-0.132871
-0.131374
-0.131166
-0.131325
-0.131421
-0.131313
-0.130965
-0.130427
-0.129235
-0.126409
-0.117165
0.0687316
-0.109425
-0.121939
-0.126852
-0.129109
-0.130274
-0.13091
-0.131374
-0.131694
-0.131911
-0.131939
-0.131487
-0.132503
-0.133175
-0.133745
-0.134448
-0.135366
-0.135271
-0.135736
-0.134264
-0.129886
-0.119451
0
0
-0.0207923
-0.0504533
-0.0730154
-0.090879
-0.105821
-0.118668
-0.129043
-0.137248
-0.143398
-0.147626
-0.150351
-0.150889
-0.150193
-0.148921
-0.14766
-0.146525
-0.145459
-0.144384
-0.143444
-0.142555
-0.141651
-0.140709
-0.139721
-0.138681
-0.137587
-0.13645
-0.135288
-0.134058
-0.132494
-0.13255
-0.132497
-0.132215
-0.131756
-0.131108
-0.130535
-0.129305
-0.126992
-0.122219
-0.112754
-0.119091
-0.124572
-0.127579
-0.129272
-0.130255
-0.130861
-0.131304
-0.13168
-0.13211
-0.132843
-0.134237
-0.133666
-0.133497
-0.133685
-0.134103
-0.134643
-0.135052
-0.135303
-0.133982
-0.129684
-0.119265
0
0
-0.0208023
-0.050504
-0.0730243
-0.0907277
-0.105738
-0.118904
-0.128956
-0.136979
-0.143063
-0.147292
-0.150463
-0.150473
-0.149522
-0.148029
-0.146915
-0.146012
-0.145084
-0.143929
-0.143126
-0.142375
-0.141567
-0.140692
-0.139761
-0.138775
-0.137727
-0.136589
-0.135262
-0.135092
-0.135833
-0.134786
-0.133774
-0.132928
-0.132156
-0.1314
-0.130699
-0.129749
-0.1284
-0.126593
-0.124833
-0.125819
-0.127514
-0.12887
-0.129837
-0.13048
-0.130936
-0.13131
-0.131661
-0.132078
-0.132662
-0.133361
-0.133399
-0.133392
-0.133539
-0.133888
-0.134418
-0.134931
-0.135064
-0.133802
-0.129591
-0.11939
0
0
-0.0208146
-0.0505502
-0.073142
-0.091261
-0.105783
-0.1172
-0.127649
-0.136118
-0.142358
-0.146201
-0.147014
-0.148147
-0.148094
-0.146589
-0.146051
-0.145637
-0.144967
-0.143699
-0.143214
-0.14256
-0.141743
-0.140848
-0.139917
-0.138935
-0.137859
-0.136477
-0.120934
-0.134647
-0.135157
-0.134677
-0.133894
-0.133046
-0.132203
-0.131406
-0.130771
-0.13014
-0.129478
-0.128871
-0.128577
-0.128803
-0.12933
-0.129916
-0.130492
-0.130794
-0.131058
-0.131348
-0.131624
-0.131942
-0.132337
-0.132757
-0.133011
-0.133157
-0.133335
-0.133695
-0.134334
-0.134888
-0.135003
-0.133765
-0.129575
-0.119441
0
0
-0.0208201
-0.0505623
-0.0731386
-0.0910848
-0.105705
-0.117672
-0.127861
-0.136114
-0.142224
-0.146045
-0.147809
-0.148589
-0.148483
-0.146078
-0.146199
-0.14607
-0.145688
-0.145675
-0.14447
-0.143245
-0.142127
-0.141102
-0.140147
-0.139164
-0.138113
-0.136938
-0.13549
-0.135264
-0.134997
-0.134463
-0.133723
-0.132837
-0.131821
-0.130695
-0.130326
-0.130075
-0.129929
-0.129842
-0.129873
-0.130019
-0.130268
-0.130639
-0.133931
-0.131137
-0.131161
-0.131409
-0.131592
-0.131812
-0.13212
-0.132511
-0.132838
-0.133004
-0.133128
-0.133457
-0.134334
-0.134916
-0.135058
-0.13386
-0.129613
-0.119455
0
0
-0.0208225
-0.0505627
-0.0731216
-0.0910095
-0.10571
-0.117954
-0.128188
-0.136335
-0.142291
-0.145785
-0.148236
-0.149258
-0.149593
-0.150576
-0.149066
-0.147617
-0.146487
-0.145575
-0.144445
-0.143286
-0.142193
-0.141213
-0.140369
-0.139409
-0.138382
-0.137363
-0.136423
-0.135763
-0.135147
-0.13444
-0.133584
-0.132456
-0.130737
-0.127548
-0.128591
-0.129064
-0.129736
-0.130117
-0.130354
-0.130539
-0.130733
-0.130965
-0.131233
-0.131198
-0.131136
-0.131495
-0.131559
-0.131694
-0.131972
-0.132466
-0.132886
-0.132985
-0.132956
-0.133135
-0.134425
-0.134945
-0.135163
-0.134094
-0.129685
-0.119425
0
0
-0.0208255
-0.0505661
-0.0731214
-0.0910094
-0.10577
-0.118164
-0.128654
-0.136646
-0.142302
-0.128047
-0.147893
-0.149528
-0.149816
-0.149747
-0.14881
-0.147682
-0.146726
-0.145469
-0.144271
-0.143143
-0.142107
-0.141224
-0.140632
-0.139602
-0.138522
-0.137544
-0.136708
-0.136004
-0.135307
-0.134509
-0.133553
-0.132049
-0.12859
-0.0592037
-0.124806
-0.117597
-0.129096
-0.130145
-0.130576
-0.130816
-0.131011
-0.131198
-0.131293
-0.131286
-0.131269
-0.131381
-0.131438
-0.131533
-0.131784
-0.132521
-0.133252
-0.132901
-0.132891
-0.133219
-0.134053
-0.134725
-0.135154
-0.134444
-0.129698
-0.119301
0
0
-0.0208308
-0.0505762
-0.0731357
-0.0910371
-0.105852
-0.11844
-0.137833
-0.137309
-0.142939
-0.146237
-0.148853
-0.14991
-0.1499
-0.149322
-0.148418
-0.147549
-0.152714
-0.145591
-0.144174
-0.143011
-0.141968
-0.141098
-0.140762
-0.139446
-0.138324
-0.137441
-0.136711
-0.13611
-0.135385
-0.134652
-0.133885
-0.132476
-0.130248
-0.126357
-0.127987
-0.128878
-0.129938
-0.130537
-0.130849
-0.131046
-0.131243
-0.131467
-0.131462
-0.131374
-0.13131
-0.131305
-0.131315
-0.131334
-0.131419
-0.132354
-0.133378
-0.132524
-0.132702
-0.133121
-0.133716
-0.134296
-0.134686
-0.134419
-0.129318
-0.119016
0
0
-0.0208387
-0.0505933
-0.073158
-0.0910612
-0.10587
-0.118384
-0.129114
-0.13739
-0.143428
-0.147293
-0.149449
-0.150172
-0.149921
-0.149138
-0.148139
-0.147161
-0.146413
-0.145153
-0.143969
-0.142861
-0.141767
-0.140554
-0.138659
-0.138154
-0.13766
-0.137144
-0.136575
-0.13588
-0.135359
-0.134901
-0.139342
-0.133359
-0.131996
-0.130812
-0.130651
-0.130725
-0.130912
-0.131057
-0.131149
-0.131241
-0.13143
-0.131788
-0.131595
-0.131383
-0.131267
-0.131225
-0.131216
-0.131205
-0.131158
-0.131028
-0.130102
-0.131813
-0.132444
-0.132926
-0.133391
-0.133646
-0.133044
-0.13041
-0.127857
-0.118633
0
0
-0.0208509
-0.050622
-0.0731924
-0.0910854
-0.105865
-0.118309
-0.128844
-0.137684
-0.143754
-0.14757
-0.149561
-0.150153
-0.149811
-0.148953
-0.147881
-0.146781
-0.145808
-0.144821
-0.14382
-0.142793
-0.141727
-0.141047
-0.139271
-0.138443
-0.137696
-0.137228
-0.136726
-0.136142
-0.135582
-0.135061
-0.134629
-0.133758
-0.132947
-0.13232
-0.131935
-0.131703
-0.131559
-0.131455
-0.131372
-0.131326
-0.131408
-0.131897
-0.131412
-0.131181
-0.131118
-0.131116
-0.131131
-0.131141
-0.131124
-0.131048
-0.130933
-0.131653
-0.132246
-0.132754
-0.133223
-0.133536
-0.133278
-0.131559
-0.128014
-0.118543
0
0
-0.020873
-0.050678
-0.0732588
-0.0911252
-0.105856
-0.118221
-0.128683
-0.13795
-0.143525
-0.147168
-0.149184
-0.149844
-0.149557
-0.148721
-0.147622
-0.146413
-0.145543
-0.144754
-0.143871
-0.142877
-0.141781
-0.140736
-0.139673
-0.138705
-0.137739
-0.137532
-0.137073
-0.136473
-0.135853
-0.135249
-0.134659
-0.134026
-0.133434
-0.132937
-0.132534
-0.132208
-0.131939
-0.131708
-0.131494
-0.131252
-0.130835
-0.129916
-0.130392
-0.130733
-0.130907
-0.130998
-0.131054
-0.131102
-0.131154
-0.131225
-0.131379
-0.131745
-0.132186
-0.132662
-0.133175
-0.133674
-0.135604
-0.132329
-0.128342
-0.118595
0
0
-0.0209202
-0.0508044
-0.0734081
-0.0912071
-0.105858
-0.118057
-0.127949
-0.13469
-0.141289
-0.145895
-0.148478
-0.149439
-0.149311
-0.148545
-0.147486
-0.145941
-0.145487
-0.144997
-0.144179
-0.143141
-0.141909
-0.140909
-0.139954
-0.13893
-0.137635
-0.138105
-0.13751
-0.136787
-0.136088
-0.135436
-0.134825
-0.134252
-0.133732
-0.133273
-0.132868
-0.132505
-0.132177
-0.131874
-0.131582
-0.131276
-0.130911
-0.130508
-0.130576
-0.130739
-0.130863
-0.13094
-0.130997
-0.13106
-0.131148
-0.131281
-0.131483
-0.13177
-0.13214
-0.132592
-0.133126
-0.133656
-0.133813
-0.132508
-0.128503
-0.118661
0
0
-0.0210317
-0.0511298
-0.0737555
-0.0913776
-0.105961
-0.118099
-0.128019
-0.135656
-0.14179
-0.146091
-0.148546
-0.14947
-0.149326
-0.148603
-0.152181
-0.145093
-0.145864
-0.14568
-0.144752
-0.143591
-0.142197
-0.141307
-0.14041
-0.139473
-0.138584
-0.1382
-0.13759
-0.136889
-0.136199
-0.135554
-0.134962
-0.134424
-0.133942
-0.133511
-0.133109
-0.132723
-0.132352
-0.131994
-0.131647
-0.131314
-0.131024
-0.130847
-0.130827
-0.130867
-0.130901
-0.130923
-0.130946
-0.130996
-0.13109
-0.131236
-0.131441
-0.131712
-0.132057
-0.132496
-0.133042
-0.133591
-0.133697
-0.132491
-0.128577
-0.118714
0
0
-0.0212981
-0.0521379
-0.0743587
-0.0918415
-0.106275
-0.118327
-0.12829
-0.136256
-0.142337
-0.146488
-0.14882
-0.149656
-0.149427
-0.148492
-0.146901
-0.143036
-0.147085
-0.146529
-0.145312
-0.144066
-0.143441
-0.1422
-0.141019
-0.140023
-0.139306
-0.138495
-0.137684
-0.136926
-0.136238
-0.135616
-0.135057
-0.134557
-0.134119
-0.133728
-0.133335
-0.132923
-0.132502
-0.132082
-0.131667
-0.131275
-0.130985
-0.130924
-0.130954
-0.130967
-0.130941
-0.130898
-0.130866
-0.130883
-0.130968
-0.131114
-0.131322
-0.131592
-0.131928
-0.132355
-0.132925
-0.133547
-0.133648
-0.132423
-0.128619
-0.118766
0
0
-0.0218292
-0.0719119
-0.075729
-0.0924595
-0.106592
-0.118516
-0.128441
-0.136435
-0.142535
-0.146671
-0.148983
-0.149807
-0.149566
-0.148629
-0.147276
-0.145524
-0.146087
-0.145772
-0.144941
-0.143983
-0.143098
-0.142081
-0.141061
-0.140156
-0.139613
-0.138548
-0.137643
-0.136892
-0.136238
-0.135656
-0.135137
-0.134682
-0.134303
-0.133987
-0.133596
-0.133133
-0.132642
-0.132143
-0.131633
-0.131106
-0.130741
-0.130884
-0.131042
-0.131046
-0.130939
-0.130797
-0.130677
-0.130645
-0.13072
-0.130876
-0.13111
-0.13141
-0.131756
-0.132169
-0.132783
-0.133561
-0.133683
-0.132495
-0.128549
-0.11882
0
0
-0.0214005
-0.0523929
-0.0745656
-0.0920135
-0.106362
-0.118374
-0.128292
-0.136141
-0.142381
-0.146616
-0.149
-0.149888
-0.149707
-0.148842
-0.147927
-0.146879
-0.146229
-0.145505
-0.144655
-0.143745
-0.142831
-0.141907
-0.140961
-0.139923
-0.138498
-0.13792
-0.137381
-0.136812
-0.136237
-0.135712
-0.135229
-0.134817
-0.134519
-0.134345
-0.13391
-0.133343
-0.132758
-0.13218
-0.131583
-0.130778
-0.130196
-0.130881
-0.131207
-0.131105
-0.130792
-0.130439
-0.130169