# vtk DataFile Version 2.0
FlowField
ASCII
DATASET STRUCTURED_GRID
DIMENSIONS 62 47 32 
POINTS 93248 double
0 0 0
0.01 0 0
0.02 0 0
0.03 0 0
0.04 0 0
0.05 0 0
0.06 0 0
0.07 0 0
0.08 0 0
0.09 0 0
0.1 0 0
0.11 0 0
0.12 0 0
0.13 0 0
0.14 0 0
0.15 0 0
0.16 0 0
0.17 0 0
0.18 0 0
0.19 0 0
0.2 0 0
0.21 0 0
0.22 0 0
0.23 0 0
0.24 0 0
0.25 0 0
0.26 0 0
0.27 0 0
0.28 0 0
0.29 0 0
0.3 0 0
0.31 0 0
0.32 0 0
0.33 0 0
0.34 0 0
0.35 0 0
0.36 0 0
0.37 0 0
0.38 0 0
0.39 0 0
0.4 0 0
0.41 0 0
0.42 0 0
0.43 0 0
0.44 0 0
0.45 0 0
0.46 0 0
0.47 0 0
0.48 0 0
0.49 0 0
0.5 0 0
0.51 0 0
0.52 0 0
0.53 0 0
0.54 0 0
0.55 0 0
0.56 0 0
0.57 0 0
0.58 0 0
0.59 0 0
0.6 0 0
0.61 0 0
0 0.01 0
0.01 0.01 0
0.02 0.01 0
0.03 0.01 0
0.04 0.01 0
0.05 0.01 0
0.06 0.01 0
0.07 0.01 0
0.08 0.01 0
0.09 0.01 0
0.1 0.01 0
0.11 0.01 0
0.12 0.01 0
0.13 0.01 0
0.14 0.01 0
0.15 0.01 0
0.16 0.01 0
0.17 0.01 0
0.18 0.01 0
0.19 0.01 0
0.2 0.01 0
0.21 0.01 0
0.22 0.01 0
0.23 0.01 0
0.24 0.01 0
0.25 0.01 0
0.26 0.01 0
0.27 0.01 0
0.28 0.01 0
0.29 0.01 0
0.3 0.01 0
0.31 0.01 0
0.32 0.01 0
0.33 0.01 0
0.34 0.01 0
0.35 0.01 0
0.36 0.01 0
0.37 0.01 0
0.38 0.01 0
0.39 0.01 0
0.4 0.01 0
0.41 0.01 0
0.42 0.01 0
0.43 0.01 0
0.44 0.01 0
0.45 0.01 0
0.46 0.01 0
0.47 0.01 0
0.48 0.01 0
0.49 0.01 0
0.5 0.01 0
0.51 0.01 0
0.52 0.01 0
0.53 0.01 0
0.54 0.01 0
0.55 0.01 0
0.56 0.01 0
0.57 0.01 0
0.58 0.01 0
0.59 0.01 0
0.6 0.01 0
0.61 0.01 0
0 0.02 0
0.01 0.02 0
0.02 0.02 0
0.03 0.02 0
0.04 0.02 0
0.05 0.02 0
0.06 0.02 0
0.07 0.02 0
0.08 0.02 0
0.09 0.02 0
0.1 0.02 0
0.11 0.02 0
0.12 0.02 0
0.13 0.02 0
0.14 0.02 0
0.15 0.02 0
0.16 0.02 0
0.17 0.02 0
0.18 0.02 0
0.19 0.02 0
0.2 0.02 0
0.21 0.02 0
0.22 0.02 0
0.23 0.02 0
0.24 0.02 0
0.25 0.02 0
0.26 0.02 0
0.27 0.02 0
0.28 0.02 0
0.29 0.02 0
0.3 0.02 0
0.31 0.02 0
0.32 0.02 0
0.33 0.02 0
0.34 0.02 0
0.35 0.02 0
0.36 0.02 0
0.37 0.02 0
0.38 0.02 0
0.39 0.02 0
0.4 0.02 0
0.41 0.02 0
0.42 0.02 0
0.43 0.02 0
0.44 0.02 0
0.45 0.02 0
0.46 0.02 0
0.47 0.02 0
0.48 0.02 0
0.49 0.02 0
0.5 0.02 0
0.51 0.02 0
0.52 0.02 0
0.53 0.02 0
0.54 0.02 0
0.55 0.02 0
0.56 0.02 0
0.57 0.02 0
0.58 0.02 0
0.59 0.02 0
0.6 0.02 0
0.61 0.02 0
0 0.03 0
0.01 0.03 0
0.02 0.03 0
0.03 0.03 0
0.04 0.03 0
0.05 0.03 0
0.06 0.03 0
0.07 0.03 0
0.08 0.03 0
0.09 0.03 0
0.1 0.03 0
0.11 0.03 0
0.12 0.03 0
0.13 0.03 0
0.14 0.03 0
0.15 0.03 0
0.16 0.03 0
0.17 0.03 0
0.18 0.03 0
0.19 0.03 0
0.2 0.03 0
0.21 0.03 0
0.22 0.03 0
0.23 0.03 0
0.24 0.03 0
0.25 0.03 0
0.26 0.03 0
0.27 0.03 0
0.28 0.03 0
0.29 0.03 0
0.3 0.03 0
0.31 0.03 0
0.32 0.03 0
0.33 0.03 0
0.34 0.03 0
0.35 0.03 0
0.36 0.03 0
0.37 0.03 0
0.38 0.03 0
0.39 0.03 0
0.4 0.03 0
0.41 0.03 0
0.42 0.03 0
0.43 0.03 0
0.44 0.03 0
0.45 0.03 0
0.46 0.03 0
0.47 0.03 0
0.48 0.03 0
0.49 0.03 0
0.5 0.03 0
0.51 0.03 0
0.52 0.03 0
0.53 0.03 0
0.54 0.03 0
0.55 0.03 0
0.56 0.03 0
0.57 0.03 0
0.58 0.03 0
0.59 0.03 0
0.6 0.03 0
0.61 0.03 0
0 0.04 0
0.01 0.04 0
0.02 0.04 0
0.03 0.04 0
0.04 0.04 0
0.05 0.04 0
0.06 0.04 0
0.07 0.04 0
0.08 0.04 0
0.09 0.04 0
0.1 0.04 0
0.11 0.04 0
0.12 0.04 0
0.13 0.04 0
0.14 0.04 0
0.15 0.04 0
0.16 0.04 0
0.17 0.04 0
0.18 0.04 0
0.19 0.04 0
0.2 0.04 0
0.21 0.04 0
0.22 0.04 0
0.23 0.04 0
0.24 0.04 0
0.25 0.04 0
0.26 0.04 0
0.27 0.04 0
0.28 0.04 0
0.29 0.04 0
0.3 0.04 0
0.31 0.04 0
0.32 0.04 0
0.33 0.04 0
0.34 0.04 0
0.35 0.04 0
0.36 0.04 0
0.37 0.04 0
0.38 0.04 0
0.39 0.04 0
0.4 0.04 0
0.41 0.04 0
0.42 0.04 0
0.43 0.04 0
0.44 0.04 0
0.45 0.04 0
0.46 0.04 0
0.47 0.04 0
0.48 0.04 0
0.49 0.04 0
0.5 0.04 0
0.51 0.04 0
0.52 0.04 0
0.53 0.04 0
0.54 0.04 0
0.55 0.04 0
0.56 0.04 0
0.57 0.04 0
0.58 0.04 0
0.59 0.04 0
0.6 0.04 0
0.61 0.04 0
0 0.05 0
0.01 0.05 0
0.02 0.05 0
0.03 0.05 0
0.04 0.05 0
0.05 0.05 0
0.06 0.05 0
0.07 0.05 0
0.08 0.05 0
0.09 0.05 0
0.1 0.05 0
0.11 0.05 0
0.12 0.05 0
0.13 0.05 0
0.14 0.05 0
0.15 0.05 0
0.16 0.05 0
0.17 0.05 0
0.18 0.05 0
0.19 0.05 0
0.2 0.05 0
0.21 0.05 0
0.22 0.05 0
0.23 0.05 0
0.24 0.05 0
0.25 0.05 0
0.26 0.05 0
0.27 0.05 0
0.28 0.05 0
0.29 0.05 0
0.3 0.05 0
0.31 0.05 0
0.32 0.05 0
0.33 0.05 0
0.34 0.05 0
0.35 0.05 0
0.36 0.05 0
0.37 0.05 0
0.38 0.05 0
0.39 0.05 0
0.4 0.05 0
0.41 0.05 0
0.42 0.05 0
0.43 0.05 0
0.44 0.05 0
0.45 0.05 0
0.46 0.05 0
0.47 0.05 0
0.48 0.05 0
0.49 0.05 0
0.5 0.05 0
0.51 0.05 0
0.52 0.05 0
0.53 0.05 0
0.54 0.05 0
0.55 0.05 0
0.56 0.05 0
0.57 0.05 0
0.58 0.05 0
0.59 0.05 0
0.6 0.05 0
0.61 0.05 0
0 0.06 0
0.01 0.06 0
0.02 0.06 0
0.03 0.06 0
0.04 0.06 0
0.05 0.06 0
0.06 0.06 0
0.07 0.06 0
0.08 0.06 0
0.09 0.06 0
0.1 0.06 0
0.11 0.06 0
0.12 0.06 0
0.13 0.06 0
0.14 0.06 0
0.15 0.06 0
0.16 0.06 0
0.17 0.06 0
0.18 0.06 0
0.19 0.06 0
0.2 0.06 0
0.21 0.06 0
0.22 0.06 0
0.23 0.06 0
0.24 0.06 0
0.25 0.06 0
0.26 0.06 0
0.27 0.06 0
0.28 0.06 0
0.29 0.06 0
0.3 0.06 0
0.31 0.06 0
0.32 0.06 0
0.33 0.06 0
0.34 0.06 0
0.35 0.06 0
0.36 0.06 0
0.37 0.06 0
0.38 0.06 0
0.39 0.06 0
0.4 0.06 0
0.41 0.06 0
0.42 0.06 0
0.43 0.06 0
0.44 0.06 0
0.45 0.06 0
0.46 0.06 0
0.47 0.06 0
0.48 0.06 0
0.49 0.06 0
0.5 0.06 0
0.51 0.06 0
0.52 0.06 0
0.53 0.06 0
0.54 0.06 0
0.55 0.06 0
0.56 0.06 0
0.57 0.06 0
0.58 0.06 0
0.59 0.06 0
0.6 0.06 0
0.61 0.06 0
0 0.07 0
0.01 0.07 0
0.02 0.07 0
0.03 0.07 0
0.04 0.07 0
0.05 0.07 0
0.06 0.07 0
0.07 0.07 0
0.08 0.07 0
0.09 0.07 0
0.1 0.07 0
0.11 0.07 0
0.12 0.07 0
0.13 0.07 0
0.14 0.07 0
0.15 0.07 0
0.16 0.07 0
0.17 0.07 0
0.18 0.07 0
0.19 0.07 0
0.2 0.07 0
0.21 0.07 0
0.22 0.07 0
0.23 0.07 0
0.24 0.07 0
0.25 0.07 0
0.26 0.07 0
0.27 0.07 0
0.28 0.07 0
0.29 0.07 0
0.3 0.07 0
0.31 0.07 0
0.32 0.07 0
0.33 0.07 0
0.34 0.07 0
0.35 0.07 0
0.36 0.07 0
0.37 0.07 0
0.38 0.07 0
0.39 0.07 0
0.4 0.07 0
0.41 0.07 0
0.42 0.07 0
0.43 0.07 0
0.44 0.07 0
0.45 0.07 0
0.46 0.07 0
0.47 0.07 0
0.48 0.07 0
0.49 0.07 0
0.5 0.07 0
0.51 0.07 0
0.52 0.07 0
0.53 0.07 0
0.54 0.07 0
0.55 0.07 0
0.56 0.07 0
0.57 0.07 0
0.58 0.07 0
0.59 0.07 0
0.6 0.07 0
0.61 0.07 0
0 0.08 0
0.01 0.08 0
0.02 0.08 0
0.03 0.08 0
0.04 0.08 0
0.05 0.08 0
0.06 0.08 0
0.07 0.08 0
0.08 0.08 0
0.09 0.08 0
0.1 0.08 0
0.11 0.08 0
0.12 0.08 0
0.13 0.08 0
0.14 0.08 0
0.15 0.08 0
0.16 0.08 0
0.17 0.08 0
0.18 0.08 0
0.19 0.08 0
0.2 0.08 0
0.21 0.08 0
0.22 0.08 0
0.23 0.08 0
0.24 0.08 0
0.25 0.08 0
0.26 0.08 0
0.27 0.08 0
0.28 0.08 0
0.29 0.08 0
0.3 0.08 0
0.31 0.08 0
0.32 0.08 0
0.33 0.08 0
0.34 0.08 0
0.35 0.08 0
0.36 0.08 0
0.37 0.08 0
0.38 0.08 0
0.39 0.08 0
0.4 0.08 0
0.41 0.08 0
0.42 0.08 0
0.43 0.08 0
0.44 0.08 0
0.45 0.08 0
0.46 0.08 0
0.47 0.08 0
0.48 0.08 0
0.49 0.08 0
0.5 0.08 0
0.51 0.08 0
0.52 0.08 0
0.53 0.08 0
0.54 0.08 0
0.55 0.08 0
0.56 0.08 0
0.57 0.08 0
0.58 0.08 0
0.59 0.08 0
0.6 0.08 0
0.61 0.08 0
0 0.09 0
0.01 0.09 0
0.02 0.09 0
0.03 0.09 0
0.04 0.09 0
0.05 0.09 0
0.06 0.09 0
0.07 0.09 0
0.08 0.09 0
0.09 0.09 0
0.1 0.09 0
0.11 0.09 0
0.12 0.09 0
0.13 0.09 0
0.14 0.09 0
0.15 0.09 0
0.16 0.09 0
0.17 0.09 0
0.18 0.09 0
0.19 0.09 0
0.2 0.09 0
0.21 0.09 0
0.22 0.09 0
0.23 0.09 0
0.24 0.09 0
0.25 0.09 0
0.26 0.09 0
0.27 0.09 0
0.28 0.09 0
0.29 0.09 0
0.3 0.09 0
0.31 0.09 0
0.32 0.09 0
0.33 0.09 0
0.34 0.09 0
0.35 0.09 0
0.36 0.09 0
0.37 0.09 0
0.38 0.09 0
0.39 0.09 0
0.4 0.09 0
0.41 0.09 0
0.42 0.09 0
0.43 0.09 0
0.44 0.09 0
0.45 0.09 0
0.46 0.09 0
0.47 0.09 0
0.48 0.09 0
0.49 0.09 0
0.5 0.09 0
0.51 0.09 0
0.52 0.09 0
0.53 0.09 0
0.54 0.09 0
0.55 0.09 0
0.56 0.09 0
0.57 0.09 0
0.58 0.09 0
0.59 0.09 0
0.6 0.09 0
0.61 0.09 0
0 0.1 0
0.01 0.1 0
0.02 0.1 0
0.03 0.1 0
0.04 0.1 0
0.05 0.1 0
0.06 0.1 0
0.07 0.1 0
0.08 0.1 0
0.09 0.1 0
0.1 0.1 0
0.11 0.1 0
0.12 0.1 0
0.13 0.1 0
0.14 0.1 0
0.15 0.1 0
0.16 0.1 0
0.17 0.1 0
0.18 0.1 0
0.19 0.1 0
0.2 0.1 0
0.21 0.1 0
0.22 0.1 0
0.23 0.1 0
0.24 0.1 0
0.25 0.1 0
0.26 0.1 0
0.27 0.1 0
0.28 0.1 0
0.29 0.1 0
0.3 0.1 0
0.31 0.1 0
0.32 0.1 0
0.33 0.1 0
0.34 0.1 0
0.35 0.1 0
0.36 0.1 0
0.37 0.1 0
0.38 0.1 0
0.39 0.1 0
0.4 0.1 0
0.41 0.1 0
0.42 0.1 0
0.43 0.1 0
0.44 0.1 0
0.45 0.1 0
0.46 0.1 0
0.47 0.1 0
0.48 0.1 0
0.49 0.1 0
0.5 0.1 0
0.51 0.1 0
0.52 0.1 0
0.53 0.1 0
0.54 0.1 0
0.55 0.1 0
0.56 0.1 0
0.57 0.1 0
0.58 0.1 0
0.59 0.1 0
0.6 0.1 0
0.61 0.1 0
0 0.11 0
0.01 0.11 0
0.02 0.11 0
0.03 0.11 0
0.04 0.11 0
0.05 0.11 0
0.06 0.11 0
0.07 0.11 0
0.08 0.11 0
0.09 0.11 0
0.1 0.11 0
0.11 0.11 0
0.12 0.11 0
0.13 0.11 0
0.14 0.11 0
0.15 0.11 0
0.16 0.11 0
0.17 0.11 0
0.18 0.11 0
0.19 0.11 0
0.2 0.11 0
0.21 0.11 0
0.22 0.11 0
0.23 0.11 0
0.24 0.11 0
0.25 0.11 0
0.26 0.11 0
0.27 0.11 0
0.28 0.11 0
0.29 0.11 0
0.3 0.11 0
0.31 0.11 0
0.32 0.11 0
0.33 0.11 0
0.34 0.11 0
0.35 0.11 0
0.36 0.11 0
0.37 0.11 0
0.38 0.11 0
0.39 0.11 0
0.4 0.11 0
0.41 0.11 0
0.42 0.11 0
0.43 0.11 0
0.44 0.11 0
0.45 0.11 0
0.46 0.11 0
0.47 0.11 0
0.48 0.11 0
0.49 0.11 0
0.5 0.11 0
0.51 0.11 0
0.52 0.11 0
0.53 0.11 0
0.54 0.11 0
0.55 0.11 0
0.56 0.11 0
0.57 0.11 0
0.58 0.11 0
0.59 0.11 0
0.6 0.11 0
0.61 0.11 0
0 0.12 0
0.01 0.12 0
0.02 0.12 0
0.03 0.12 0
0.04 0.12 0
0.05 0.12 0
0.06 0.12 0
0.07 0.12 0
0.08 0.12 0
0.09 0.12 0
0.1 0.12 0
0.11 0.12 0
0.12 0.12 0
0.13 0.12 0
0.14 0.12 0
0.15 0.12 0
0.16 0.12 0
0.17 0.12 0
0.18 0.12 0
0.19 0.12 0
0.2 0.12 0
0.21 0.12 0
0.22 0.12 0
0.23 0.12 0
0.24 0.12 0
0.25 0.12 0
0.26 0.12 0
0.27 0.12 0
0.28 0.12 0
0.29 0.12 0
0.3 0.12 0
0.31 0.12 0
0.32 0.12 0
0.33 0.12 0
0.34 0.12 0
0.35 0.12 0
0.36 0.12 0
0.37 0.12 0
0.38 0.12 0
0.39 0.12 0
0.4 0.12 0
0.41 0.12 0
0.42 0.12 0
0.43 0.12 0
0.44 0.12 0
0.45 0.12 0
0.46 0.12 0
0.47 0.12 0
0.48 0.12 0
0.49 0.12 0
0.5 0.12 0
0.51 0.12 0
0.52 0.12 0
0.53 0.12 0
0.54 0.12 0
0.55 0.12 0
0.56 0.12 0
0.57 0.12 0
0.58 0.12 0
0.59 0.12 0
0.6 0.12 0
0.61 0.12 0
0 0.13 0
0.01 0.13 0
0.02 0.13 0
0.03 0.13 0
0.04 0.13 0
0.05 0.13 0
0.06 0.13 0
0.07 0.13 0
0.08 0.13 0
0.09 0.13 0
0.1 0.13 0
0.11 0.13 0
0.12 0.13 0
0.13 0.13 0
0.14 0.13 0
0.15 0.13 0
0.16 0.13 0
0.17 0.13 0
0.18 0.13 0
0.19 0.13 0
0.2 0.13 0
0.21 0.13 0
0.22 0.13 0
0.23 0.13 0
0.24 0.13 0
0.25 0.13 0
0.26 0.13 0
0.27 0.13 0
0.28 0.13 0
0.29 0.13 0
0.3 0.13 0
0.31 0.13 0
0.32 0.13 0
0.33 0.13 0
0.34 0.13 0
0.35 0.13 0
0.36 0.13 0
0.37 0.13 0
0.38 0.13 0
0.39 0.13 0
0.4 0.13 0
0.41 0.13 0
0.42 0.13 0
0.43 0.13 0
0.44 0.13 0
0.45 0.13 0
0.46 0.13 0
0.47 0.13 0
0.48 0.13 0
[...]
POINT_DATA 93248

SCALARS w double
LOOKUP_TABLE default
0
0
0
0
0
0
0
0
0
0
0
0
0
-0.0343045
0
0
0
0
0
0
0
0
0
0
0
0
-0.0613992
0
0
0
0
0
-0.0574534
0
0
0
0
0
0
0
0
0
0
0
0
0
-0.0541333
0
0
0
0
0
0
0
0
0
0
0
0
0
0
0
0
-0.0156362
-0.0276992
-0.0355682
-0.0393609
-0.0403101
-0.0400714
-0.0399328
-0.0399842
-0.0402913
-0.0406402
-0.0408675
-0.0408171
-0.041044
-0.0413348
-0.041625
-0.0418428
-0.0421199
-0.0424378
-0.042648
-0.0403524
-0.0400556
-0.040536
-0.0408008
-0.0409392
-0.0409836
-0.0409737
-0.0409359
-0.0408818
-0.0408117
-0.0407136
-0.0405531
-0.0402887
-0.0402387
-0.0401362
-0.0396451
-0.0388439
-0.0384938
-0.0396138
-0.0467227
-0.0393813
-0.0407013
-0.0416366
-0.0420137
-0.0426931
-0.0662419
-0.0409398
-0.0406942
-0.0407044
-0.0411654
-0.0416659
-0.042251
-0.0402605
-0.0415788
-0.0661112
-0.0421333
-0.041195
-0.0396851
-0.0401719
-0.0400278
-0.0388656
0
0
-0.0181541
-0.0395185
-0.0498783
-0.0559223
-0.0585071
-0.0600684
-0.0602803
-0.0607096
-0.0617073
-0.062963
-0.0640185
-0.0643177
-0.0651317
-0.0657221
-0.0662317
-0.0665833
-0.0671245
-0.0677955
-0.0693268
-0.0641871
-0.0643291
-0.0701348
-0.0655263
-0.0656389
-0.0657036
-0.0657042
-0.0656633
-0.065597
-0.0655102
-0.0653939
-0.0651976
-0.0647183
-0.0647407
-0.0647435
-0.0639433
-0.0630726
-0.061146
-0.0592297
-0.07066
-0.0687024
-0.0680312
-0.0676669
-0.0673458
-0.0676936
-0.0684654
-0.0674885
-0.0661404
-0.065767
-0.0660921
-0.066268
-0.0664467
-0.065601
-0.0662992
-0.0674744
-0.0669998
-0.0667062
-0.0649882
-0.0649262
-0.0639878
-0.0610312
0
0
-0.0179605
-0.0390013
-0.0508359
-0.0582572
-0.0403101
-0.0631269
-0.0641093
-0.0645097
-0.0655187
-0.067073
-0.0686119
-0.0703959
-0.0708494
-0.0710878
-0.0712008
-0.0715292
-0.0722914
-0.0725177
-0.0730382
-0.0722631
-0.071311
-0.0710983
-0.0709899
-0.0709726
-0.0709604
-0.070927
-0.0708729
-0.0708038
-0.0707252
-0.0706486
-0.0706227
-0.070794
-0.0692033
-0.070522
-0.0690587
-0.0684763
-0.0675318
-0.0671346
-0.071809
-0.0729548
-0.0730538
-0.0729482
-0.0721415
-0.0724101
-0.0730606
-0.0714714
-0.0708772
-0.0704334
-0.0713766
-0.071293
-0.0711205
-0.0709472
-0.0711897
-0.071583
-0.0716316
-0.071677
-0.071578
-0.0706847
-0.0691558
-0.0654672
0
0
-0.0175795
-0.0379438
-0.0372409
-0.0577165
-0.0620978
-0.0643449
-0.0647668
-0.064884
-0.0656735
-0.0670517
-0.0685294
-0.0698494
-0.0705328
-0.0708421
-0.0709323
-0.070985
-0.0706504
-0.0711062
-0.0715815
-0.0714956
-0.0712487
-0.0710728
-0.0709561
-0.0708795
-0.070816
-0.0707516
-0.0706824
-0.0706084
-0.0705313
-0.0704559
-0.0703953
-0.0703496
-0.0700737
-0.0699996
-0.0694235
-0.0690396
-0.0686962
-0.0682429
-0.0704101
-0.0714193
-0.0717763
-0.0717842
-0.0715076
-0.0715579
-0.0717566
-0.0713403
-0.0707886
-0.0704694
-0.0707262
-0.070733
-0.0706749
-0.0706457
-0.0707447
-0.0708934
-0.0709786
-0.0710353
-0.0709884
-0.0704453
-0.0689239
-0.0651443
0
0
-0.0173789
-0.0375346
-0.0498158
-0.0580094
-0.0624483
-0.0642846
-0.0645529
-0.0646301
-0.0653589
-0.066604
-0.0678968
-0.0689186
-0.0695201
-0.0697586
-0.0702093
-0.0698865
-0.0698675
-0.0700342
-0.0702638
-0.0703046
-0.0702337
-0.0701348
-0.0700383
-0.0699513
-0.0698705
-0.0697921
-0.0697145
-0.0696373
-0.0695599
-0.0694784
-0.0693778
-0.0692033
-0.0688382
-0.068807
-0.0686973
-0.0685852
-0.0685258
-0.0686764
-0.0692571
-0.0697615
-0.070023
-0.0700873
-0.0700315
-0.0700404
-0.070163
-0.070491
-0.0697853
-0.0694918
-0.0694899
-0.0694931
-0.0694914
-0.0695229
-0.0696115
-0.0697059
-0.0697637
-0.0697756
-0.0696757
-0.0691919
-0.0676821
-0.0640967
0
0
-0.0172638
-0.0372781
-0.0498395
-0.0578413
-0.0622197
-0.0639942
-0.0641714
-0.064205
-0.0649765
-0.0661881
-0.0673732
-0.068256
-0.068775
-0.0690006
-0.0689973
-0.0689338
-0.0692068
-0.0677089
-0.0695169
-0.0695606
-0.069486
-0.0693835
-0.0692826
-0.0691891
-0.0691013
-0.0690165
-0.0689347
-0.0688575
-0.0687847
-0.0687101
-0.068609
-0.06839
-0.0677133
-0.0680076
-0.0681118
-0.0681224
-0.0681392
-0.0682429
-0.0684656
-0.0686878
-0.0688319
-0.0688887
-0.0688654
-0.0687853
-0.0685259
-0.0678009
-0.0681538
-0.0683674
-0.0684687
-0.0685002
-0.0685175
-0.0685863
-0.0687409
-0.0688605
-0.0688999
-0.0688528
-0.06862
-0.0678324
-0.0657985
-0.0628073
0
0
-0.0171902
-0.0370987
-0.0496577
-0.0576023
-0.061946
-0.0638281
-0.0637941
-0.0640411
-0.0647621
-0.0658821
-0.0669935
-0.0677967
-0.0682533
-0.0684194
-0.0682656
-0.0676879
-0.068718
-0.0692362
-0.069334
-0.0692137
-0.0690344
-0.0688799
-0.0687569
-0.0686535
-0.0685601
-0.0684716
-0.0683862
-0.0683117
-0.0682517
-0.0682068
-0.0681802
-0.0682707
-0.0688397
-0.0683549
-0.0680294
-0.0678604
-0.0678067
-0.0678354
-0.0679192
-0.0680138
-0.0680869
-0.0681263
-0.0680927
-0.0680222
-0.0678426
-0.0675433
-0.0676241
-0.0677365
-0.0677829
-0.0677648
-0.0677354
-0.0678256
-0.068178
-0.0683945
-0.0684229
-0.0683167
-0.0679182
-0.0662917
-0.0400278
-0.0617493
0
0
-0.0171386
-0.0369667
-0.0494808
-0.0573737
-0.0616397
-0.0633275
-0.0635212
-0.0637641
-0.0645316
-0.0656669
-0.0667405
-0.0674701
-0.06789
-0.0680113
-0.0675805
-0.0655265
-0.0644282
-0.0693826
-0.0692836
-0.0689971
-0.0686989
-0.0685098
-0.0683774
-0.0682675
-0.0681657
-0.0680769
-0.0679857
-0.067915
-0.0678747
-0.0678661
-0.0678468
-0.067879
-0.0680286
-0.0678645
-0.0676692
-0.0675395
-0.0674877
-0.0674892
-0.0675195
-0.0675587
-0.0675922
-0.0676097
-0.0675947
-0.067552
-0.0674669
-0.0673591
-0.0673431
-0.0673413
-0.0672878
-0.0671492
-0.0669617
-0.0669944
-0.0678884
-0.0682863
-0.0682815
-0.0681713
-0.068062
-0.0677164
-0.0651486
-0.0621004
0
0
-0.0171002
-0.0368662
-0.0493334
-0.0571744
-0.0613789
-0.0629713
-0.0632551
-0.0635469
-0.0643686
-0.0655137
-0.0665745
-0.0643177
-0.0677245
-0.0679382
-0.067801
-0.0672473
-0.068217
-0.0687539
-0.0687803
-0.0685925
-0.0683121
-0.0682043
-0.0680954
-0.0679787
-0.0678431
-0.0677502
-0.0676608
-0.0675965
-0.0675873
-0.0676543
-0.0676111
-0.0675548
-0.0675106
-0.0674078
-0.0672988
-0.0672174
-0.0671965
-0.0672002
-0.0672114
-0.0672255
-0.0672391
-0.067247
-0.0672426
-0.0672236
-0.0671873
-0.0671412
-0.0671027
-0.0670407
-0.0668962
-0.0665865
-0.0660671
-0.0646204
-0.0679845
-0.068531
-0.0683515
-0.0681057
-0.0679483
-0.0676014
-0.0659346
-0.0622092
0
0
-0.0170714
-0.0367896
-0.0492143
-0.0569925
-0.0611603
-0.0627231
-0.063038
-0.0633752
-0.0642305
-0.0653859
-0.0664387
-0.0671574
-0.06765
-0.0679104
-0.0680185
-0.0679724
-0.068224
-0.068388
-0.0683771
-0.0682709
-0.0682927
-0.0681197
-0.0679455
-0.0677721
-0.0669888
-0.0674621
-0.0673665
-0.0672936
-0.0673136
-0.0675394
-0.0674747
-0.0673379
-0.0671925
-0.0670772
-0.066992
-0.0669231
-0.0669403
-0.0669573
-0.0669602
-0.066961
-0.0669648
-0.06697
-0.066974
-0.0669716
-0.0669594
-0.0669365
-0.0668977
-0.0668163
-0.066628
-0.0662067
-0.0654065
-0.0646204
-0.0688331
-0.0689029
-0.0683994
-0.0680149
-0.0677957
-0.0674271
-0.0659619
-0.0621871
0
0
-0.017051
-0.036736
-0.0491302
-0.0568247
-0.061003
-0.0625635
-0.0628893
-0.0632456
-0.0641181
-0.065277
-0.0663289
-0.0670797
-0.0675654
-0.0678896
-0.0682025
-0.0682363
-0.0682375
-0.0682056
-0.0681132
-0.0679488
-0.0680258
-0.0679142
-0.0677581
-0.0675859
-0.0673947
-0.0672326
-0.0670699
-0.0669326
-0.066875
-0.0670256
-0.0675139
-0.0671038
-0.0668665
-0.0667653
-0.0667206
-0.0666886
-0.0666732
-0.0667317
-0.0667312
-0.0667267
-0.0667281
-0.0667342
-0.0667513
-0.0667654
-0.0667709
-0.0667645
-0.0667397
-0.0666781
-0.0665385
-0.0662556
-0.0658513
-0.0658182
-0.0677051
-0.0681578
-0.06799
-0.0677687
-0.0676173
-0.0672817
-0.0658785
-0.0621249
0
0
-0.0170382
-0.0367078
-0.049122
-0.0570173
-0.0611073
-0.0625747
-0.0628409
-0.063173
-0.0640369
-0.0651861
-0.0662344
-0.066987
-0.0674709
-0.0678244
-0.0684011
-0.0682569
-0.0681225
-0.0680127
-0.0678995
-0.0677883
-0.0677568
-0.0676771
-0.0675526
-0.0673919
-0.067197
-0.0669725
-0.0667161
-0.0664469
-0.0661639
-0.0659841
-0.0653527
-0.0657972
-0.0661381
-0.0663319
-0.066426
-0.0664599
-0.0664671
-0.0664851
-0.0664872
-0.0664901
-0.0664966
-0.0664928
-0.0665454
-0.066586
-0.0666118
-0.066624
-0.0666221
-0.0666015
-0.0665464
-0.0664198
-0.0662991
-0.0664297
-0.0671395
-0.0674852
-0.0675242
-0.0674869
-0.0674422
-0.0671578
-0.0657903
-0.0620569
0
0
-0.0170282
-0.0366829
-0.0490826
-0.0569156
-0.0610162
-0.0624862
-0.0627545
-0.063092
-0.0639613
-0.0650999
-0.0661532
-0.0668983
-0.0673417
-0.067511
-0.0671737
-0.0674336
-0.0676083
-0.0676619
-0.0676056
-0.0675644
-0.0675397
-0.0674826
-0.0673758
-0.0672142
-0.0669888
-0.0666808
-0.0662639
-0.0657149
-0.0648337
-0.0649497
-0.0650907
-0.0654824
-0.0658374
-0.0660739
-0.0662013
-0.0662504
-0.0662576
-0.0662393
-0.0662267
-0.0662356
-0.0662451
-0.0653051
-0.0663303
-0.0664217
-0.0664733
-0.0665057
-0.0665282
-0.0665526
-0.0665846
-0.0665289
-0.0665123
-0.0666278
-0.0669148
-0.0671124
-0.0672088
-0.0672745
-0.06732
-0.0670621
-0.0657147
-0.0619938
0
0
-0.0170217
-0.0366674
-0.0490578
-0.0573737
-0.0609563
-0.0624066
-0.0626745
-0.0630213
-0.0639065
-0.0650916
-0.0661247
-0.0668498
-0.0672783
-0.0674648
-0.0674176
-0.0674875
-0.0675534
-0.0675304
-0.0673367
-0.0673408
-0.0673691
-0.0673422
-0.0672454
-0.067072
-0.0668006
-0.0663713
-0.0656496
-0.0642908
-0.0602429
-0.0623752
-0.0640008
-0.0649859
-0.065556
-0.0658649
-0.066007
-0.0660445
-0.0662289
-0.0659508
-0.0658978
-0.0659267
-0.065999
-0.066067
-0.0661872
-0.0662828
-0.0663521
-0.0664004
-0.0664379
-0.0664884
-0.0666138
-0.0665336
-0.0665499
-0.0666599
-0.0668547
-0.0669452
-0.0670361
-0.0671499
-0.0678324
-0.0670044
-0.0656562
-0.0619391
0
0
-0.01702
-0.0366679
-0.0490394
-0.0568065
-0.0608758
-0.0623347
-0.0626086
-0.0629646
-0.0638575
-0.0650338
-0.0660771
-0.0668069
-0.0672435
-0.0674672
-0.0675482
-0.0675982
-0.0676135
-0.0675269
-0.0670461
-0.0672435
-0.0673309
-0.0673042
-0.0671874
-0.0669885
-0.0666724
-0.0661195
-0.064921
-0.0610946
0.0345164
-0.0564522
-0.0621277
-0.0643279
-0.0652726
-0.0656806
-0.065826
-0.0658155
-0.065701
-0.0655089
-0.0653337
-0.0654347
-0.0656416
-0.0658428
-0.0660147
-0.0661465
-0.0662419
-0.0663027
-0.066332
-0.0663139
-0.0661983
-0.0663291
-0.0664616
-0.0666402
-0.0679845
-0.0668958
-0.0669539
-0.0670424
-0.0671536
-0.0669363
-0.0656098
-0.0618926
0
0
-0.0170245
-0.0367045
-0.0490546
-0.0567731
-0.0608294
-0.0622819
-0.0625615
-0.0629286
-0.0638298
-0.0650061
-0.0660528
-0.0667839
-0.0672233
-0.0674637
-0.0675873
-0.0676556
-0.0677027
-0.0677997
-0.0682662
-0.0679511
-0.0676666
-0.0674336
-0.0672186
-0.0669773
-0.0666557
-0.0661557
-0.0652627
-0.0634384
-0.0593515
-0.061861
-0.0637838
-0.0648604
-0.065406
-0.0656427
-0.065695
-0.0655779
-0.0652701
-0.0647186
-0.0639082
-0.0643733
-0.0650101
-0.0654889
-0.0658045
-0.0660094
-0.0661459
-0.0662224
-0.0662587
-0.0662562
-0.0661958
-0.0662094
-0.0663481
-0.066518
-0.066705
-0.066801
-0.0669908
-0.0669834
-0.0671092
-0.0669138
-0.0655841
-0.0618494
0
0
-0.0170185
-0.036766
-0.0490292
-0.0566955
-0.0607382
-0.0622133
-0.0625207
-0.0629144
-0.06383
-0.0650111
-0.0660622
-0.0667856
-0.0672116
-0.0674462
-0.0675833
-0.0676668
-0.067721
-0.0677835
-0.0679192
-0.0678085
-0.0676177
-0.0674157
-0.0672094
-0.066982
-0.0667018
-0.0663215
-0.0657749
-0.0649738
-0.0640555
-0.0644123
-0.06496
-0.0653598
-0.065571
-0.0656266
-0.0655956
-0.0653415
-0.0646742
-0.0630182
-0.0587427
-0.0616404
-0.0637987
-0.0649647
-0.06556
-0.065877
-0.0660682
-0.0661574
-0.0662051
-0.0662056
-0.0661299
-0.065992
-0.0662063
-0.0664133
-0.0665789
-0.066799
-0.0709786
-0.0669615
-0.067159
-0.0669389
-0.0655724
-0.0617986
0
0
-0.0169289
-0.0362962
-0.0486414
-0.0563866
-0.0605279
-0.0627231
-0.0625251
-0.0629378
-0.0638583
-0.0650432
-0.066115
-0.0668143
-0.0671956
-0.0673957
-0.0675482
-0.0676567
-0.0677172
-0.0677371
-0.0677373
-0.0676566
-0.0675237
-0.0673654
-0.0671907
-0.0669948
-0.066765
-0.066487
-0.0661554
-0.065664
-0.0651912
-0.065272
-0.0654851
-0.0656333
-0.0656616
-0.0655709
-0.0655628
-0.0651989
-0.0640491
-0.0597558
0.0405217
-0.0558021
-0.0621666
-0.0644556
-0.0653694
-0.0657735
-0.0659635
-0.0660944
-0.0661696
-0.0661945
-0.0661092
-0.0657231
-0.0661617
-0.0663818
-0.0665012
-0.0666046
-0.0667395
-0.0666012
-0.0672615
-0.0669635
-0.0655504
-0.061565
0
0
-0.0169261
-0.0363691
-0.0486294
-0.0562715
-0.0604415
-0.0622191
-0.0625983
-0.0629778
-0.063873
-0.0650642
-0.0662312
-0.066858
-0.0671256
-0.0672413
-0.0674718
-0.067652
-0.0677347
-0.0677202
-0.0676756
-0.0675922
-0.0674757
-0.0673379
-0.0671845
-0.0670137
-0.0668197
-0.0665964
-0.0663348
-0.0660186
-0.0653941
-0.06565
-0.0658009
-0.0658317
-0.0657316
-0.0654726
-0.0656851
-0.0653489
-0.0645145
-0.0625949
-0.0581847
-0.0612425
-0.0636576
-0.0648671
-0.0654731
-0.065791
-0.0659671
-0.0660815
-0.0661701
-0.0662769
-0.0665001
-0.0670515
-0.0666766
-0.0665155
-0.0664891
-0.0665264
-0.0665966
-0.0666873
-0.0670133
-0.0668284
-0.0654738
-0.0617041
0
0
-0.0169399
-0.0364336
-0.0486749
-0.056162
-0.0604305
-0.0625284
-0.0626863
-0.0629516
-0.0638018
-0.0650016
-0.0663944
-0.0667727
-0.0668344
-0.0667945
-0.0673725
-0.0677059
-0.0678107
-0.0677128
-0.0676584
-0.0675806
-0.0674685
-0.0673366
-0.0671931
-0.0670362
-0.0668585
-0.0666475
-0.0663544
-0.0664487
-0.0669565
-0.0665788
-0.0662955
-0.0660894
-0.0659018
-0.0657062
-0.0656787
-0.0654753
-0.0650502
-0.0643674
-0.0635474
-0.0640524
-0.0647808
-0.0653051
-0.0656473
-0.0658634
-0.0660002
-0.0660813
-0.0661538
-0.0662562
-0.0664276
-0.0666636
-0.0665785
-0.0664708
-0.0664352
-0.0664761
-0.0665892
-0.0667298
-0.0668939
-0.0667218
-0.065408
-0.0616905
0
0
-0.0169535
-0.0364879
-0.0488168
-0.0567628
-0.0606481
-0.0614728
-0.0619296
-0.0624861
-0.0635103
-0.0646515
-0.0651543
-0.065892
-0.0660127
-0.0658887
-0.0674625
-0.0679004
-0.067956
-0.0676741
-0.0676934
-0.067626
-0.0675032
-0.0673618
-0.0672183
-0.0670654
-0.0668845
-0.06659
-0.0618811
-0.0662988
-0.0666168
-0.0665392
-0.0663543
-0.0661616
-0.0659715
-0.0657934
-0.0657038
-0.0655839
-0.0654007
-0.0651765
-0.0650187
-0.0651355
-0.0653751
-0.0656143
-0.0658295
-0.065964
-0.0660578
-0.0660788
-0.0661151
-0.0661935
-0.0663141
-0.0664467
-0.066464
-0.0663719
-0.0663322
-0.0663914
-0.0665954
-0.0667564
-0.0668617
-0.0666751
-0.065365
-0.0616667
0
0
-0.0169588
-0.0365037
-0.0488247
-0.056611
-0.0606089
-0.0618406
-0.0621247
-0.0625969
-0.063616
-0.0648355
-0.0655856
-0.0660316
-0.0657144
-0.0664765
-0.0674369
-0.0678788
-0.0680716
-0.0683196
-0.0680693
-0.0678091
-0.0675876
-0.0674097
-0.0672629
-0.0671146
-0.0669509
-0.0667557
-0.0664713
-0.0665302
-0.0665531
-0.06647
-0.0663246
-0.0661396
-0.0659128
-0.0656378
-0.065607
-0.065584
-0.0655641
-0.0655286
-0.0655192
-0.0655767
-0.0656853
-0.0658291
-0.0667654
-0.0660877
-0.0661433
-0.0660588
-0.0660536
-0.0661196
-0.0662379
-0.0663941
-0.0664664
-0.0662669
-0.0661837
-0.0662367
-0.0666423
-0.0668105
-0.0668834
-0.0666833
-0.0653514
-0.0616457
0
0
-0.0169591
-0.0365038
-0.0488104
-0.0565379
-0.0605898
-0.062016
-0.0623424
-0.0628292
-0.0639611
-0.0655683
-0.0662303
-0.0666364
-0.0668577
-0.0678753
-0.0680578
-0.0680965
-0.0680856
-0.0680825
-0.0679307
-0.0677381
-0.0675598
-0.0674185
-0.0673182
-0.0671809
-0.0670249
-0.066872
-0.0667397
-0.0666841
-0.0665773
-0.0664547
-0.0662985
-0.0660692
-0.065662
-0.0647267
-0.0651446
-0.0653026
-0.0655401
-0.0656603
-0.0657256
-0.0657844
-0.0658555
-0.0659436
-0.066055
-0.0661399
-0.0662314
-0.0660006
-0.0659831
-0.0660431
-0.0661721
-0.0664306
-0.0666111
-0.0661718
-0.0660468
-0.0660106
-0.0667791
-0.0668791
-0.0669346
-0.0667591
-0.0653714
-0.0616308
0
0
-0.0169583
-0.0365016
-0.0488024
-0.0565199
-0.0606024
-0.0621142
-0.0625409
-0.0630637
-0.0644479
-0.072641
-0.0672074
-0.0672107
-0.0673936
-0.0677712
-0.0679267
-0.0679585
-0.0679604
-0.0678833
-0.0677644
-0.0676286
-0.0675026
-0.0674191
-0.0674253
-0.0672681
-0.0670846
-0.0669358
-0.0668363
-0.0668008
-0.0666034
-0.0664666
-0.0663014
-0.065995
-0.0651187
-0.0401362
-0.0639612
-0.0612734
-0.0653492
-0.0656918
-0.0658267
-0.0658989
-0.0659614
-0.0660273
-0.0660815
-0.0661267
-0.0661495
-0.0660361
-0.0659838
-0.0659804
-0.0660579
-0.066467
-0.0666979
-0.0663228
-0.0661752
-0.0662123
-0.0665839
-0.0667808
-0.0669581
-0.0669408
-0.0654189
-0.061611
0
0
-0.016958
-0.036501
-0.0488002
-0.0565185
-0.0606218
-0.0622096
-0.063092
-0.0631884
-0.0642922
-0.0659593
-0.0666262
-0.0670478
-0.0673462
-0.0675904
-0.0677274
-0.0677954
-0.0694211
-0.0677914
-0.0676647
-0.0675498
-0.0674452
-0.0673932
-0.0675765
-0.0672752
-0.067055
-0.0669212
-0.0668458
-0.0668194
-0.0666686
-0.0665332
-0.0664058
-0.0661379
-0.0656722
-0.0646761
-0.0651692
-0.0653763
-0.0656784
-0.0658415
-0.0659258
-0.0659829
-0.0660457
-0.0661209
-0.0661298
-0.0661181
-0.066097
-0.066037
-0.065979
-0.0659091
-0.0658517
-0.0665364
-0.0669236
-0.0663355
-0.0662525
-0.0663013
-0.0664759
-0.0666541
-0.0668911
-0.0671705
-0.0653841
-0.0615495
0
0
-0.0169588
-0.0365031
-0.0488009
-0.0565155
-0.0606112
-0.0621561
-0.0626136
-0.0631046
-0.0641053
-0.0653492
-0.0662601
-0.0668548
-0.0672244
-0.0674552
-0.0675869
-0.0676557
-0.0677083
-0.0676649
-0.0675907
-0.0674918
-0.0673685
-0.0671907
-0.0667292
-0.0667694
-0.0667793
-0.0668022
-0.0667947
-0.06671
-0.0666603
-0.0665982
-0.0678468
-0.066342
-0.0660686
-0.0658035
-0.0658097
-0.0658499
-0.065917
-0.0659669
-0.0660019
-0.0660415
-0.0661205
-0.066265
-0.0661989
-0.066121
-0.0660697
-0.0660262
-0.065985
-0.0659373
-0.0659028
-0.0660026
-0.0656557
-0.0661952
-0.066256
-0.0663057
-0.0663906
-0.0664501
-0.0663305
-0.06559
-0.0648481
-0.0614074
0
0
-0.0169623
-0.0365111
-0.0488075
-0.0565136
-0.0605957
-0.0621174
-0.0625366
-0.0632051
-0.0641276
-0.065231
-0.0661363
-0.0667521
-0.0671326
-0.0673566
-0.0674819
-0.067548
-0.0676045
-0.0676182
-0.0675681
-0.0674695
-0.0673399
-0.0675526
-0.0669517
-0.0667774
-0.0666805
-0.0667831
-0.066848
-0.0668209
-0.0667529
-0.0666604
-0.0665764
-0.0664107
-0.066256
-0.0661324
-0.066075
-0.0660511
-0.0660449
-0.0660429
-0.0660433
-0.0660577
-0.0661347
-0.0664265
-0.0661937
-0.0660784
-0.0660284
-0.0660013
-0.0659801
-0.0659607
-0.0659501
-0.0659602
-0.0658962
-0.066098
-0.0661984
-0.0662686
-0.0663434
-0.0664094
-0.0663907
-0.0660039
-0.0648908
-0.0613684
0
0
-0.0169714
-0.0365325
-0.0488293
-0.0565196
-0.0605805
-0.062077
-0.0624918
-0.0634809
-0.0641297
-0.0651662
-0.0660073
-0.0666285
-0.0670238
-0.0672534
-0.0673757
-0.0674214
-0.0675571
-0.0676544
-0.0676078
-0.0674813
-0.0673076
-0.0671579
-0.0669737
-0.0667489
-0.0664721
-0.0668589
-0.0670066
-0.0669808
-0.0668748
-0.0667409
-0.0666066
-0.0664721
-0.0663545
-0.0662611
-0.0661946
-0.0661475
-0.0661122
-0.0660822
-0.0660514
-0.0660057
-0.0658891
-0.0655381
-0.0657753
-0.0659017
-0.0659469
-0.0659555
-0.0659527
-0.0659504
-0.0659556
-0.0659718
-0.0659919
-0.0660766
-0.0661549
-0.0662298
-0.0663159
-0.0664279
-0.0672817
-0.0662397
-0.0649726
-0.0613678
0
0
-0.0169937
-0.0365864
-0.0488887
-0.0565422
-0.0605681
-0.0619982
-0.0621698
-0.0618987
-0.0631471
-0.0647143
-0.0656626
-0.0664178
-0.0668894
-0.0671446
-0.067281
-0.0671759
-0.0675685
-0.0678525
-0.0677442
-0.0675404
-0.0672605
-0.0671078
-0.0669551
-0.0666691
-0.0660422
-0.0671502
-0.0672481
-0.0671257
-0.0669621
-0.0667957
-0.0666454
-0.0665168
-0.0664113
-0.0663262
-0.066257
-0.0661989
-0.0661477
-0.0660998
-0.0660509
-0.0659918
-0.0659014
-0.0657675
-0.0658195
-0.0658792
-0.0659051
-0.0659085
-0.0659055
-0.0659071
-0.0659193
-0.0659444
-0.0659831
-0.0660428
-0.0661112
-0.066188
-0.0662812
-0.0663958
-0.0664923
-0.0662761
-0.0650009
-0.0613686
0
0
-0.0170454
-0.036731
-0.049032
-0.0565963
-0.0605885
-0.0620033
-0.0621989
-0.0623523
-0.0633083
-0.0646294
-0.0656848
-0.0664282
-0.0668755
-0.0670994
-0.0698865
-0.0665465
-0.0677873
-0.0683798
-0.0679975
-0.0676878
-0.0672232
-0.0671649
-0.0670581
-0.0668866
-0.0666679
-0.0669877
-0.0670823
-0.067029
-0.066911
-0.0667755
-0.066647
-0.066536
-0.0664437
-0.0663657
-0.0662953
-0.0662289
-0.0661646
-0.066101
-0.0660371
-0.0659734
-0.0659154
-0.0658772
-0.0658827
-0.0658855
-0.0658716
-0.06585
-0.0658333
-0.0658302
-0.0658446
-0.0658766
-0.0659244
-0.0659852
-0.0660552
-0.0661359
-0.0662369
-0.0663602
-0.0664473
-0.0662592
-0.0650082
-0.0613662
0
0
-0.0171623
-0.0372236
-0.0492892
-0.0567647