# vtk DataFile Version 2.0
FlowField
ASCII
DATASET STRUCTURED_GRID
DIMENSIONS 62 47 32 
POINTS 93248 double
0 0 0
0.01 0 0
0.02 0 0
0.03 0 0
0.04 0 0
0.05 0 0
0.06 0 0
0.07 0 0
0.08 0 0
0.09 0 0
0.1 0 0
0.11 0 0
0.12 0 0
0.13 0 0
0.14 0 0
0.15 0 0
0.16 0 0
0.17 0 0
0.18 0 0
0.19 0 0
0.2 0 0
0.21 0 0
0.22 0 0
0.23 0 0
0.24 0 0
0.25 0 0
0.26 0 0
0.27 0 0
0.28 0 0
0.29 0 0
0.3 0 0
0.31 0 0
0.32 0 0
0.33 0 0
0.34 0 0
0.35 0 0
0.36 0 0
0.37 0 0
0.38 0 0
0.39 0 0
0.4 0 0
0.41 0 0
0.42 0 0
0.43 0 0
0.44 0 0
0.45 0 0
0.46 0 0
0.47 0 0
0.48 0 0
0.49 0 0
0.5 0 0
0.51 0 0
0.52 0 0
0.53 0 0
0.54 0 0
0.55 0 0
0.56 0 0
0.57 0 0
0.58 0 0
0.59 0 0
0.6 0 0
0.61 0 0
0 0.01 0
0.01 0.01 0
0.02 0.01 0
0.03 0.01 0
0.04 0.01 0
0.05 0.01 0
0.06 0.01 0
0.07 0.01 0
0.08 0.01 0
0.09 0.01 0
0.1 0.01 0
0.11 0.01 0
0.12 0.01 0
0.13 0.01 0
0.14 0.01 0
0.15 0.01 0
0.16 0.01 0
0.17 0.01 0
0.18 0.01 0
0.19 0.01 0
0.2 0.01 0
0.21 0.01 0
0.22 0.01 0
0.23 0.01 0
0.24 0.01 0
0.25 0.01 0
0.26 0.01 0
0.27 0.01 0
0.28 0.01 0
0.29 0.01 0
0.3 0.01 0
0.31 0.01 0
0.32 0.01 0
0.33 0.01 0
0.34 0.01 0
0.35 0.01 0
0.36 0.01 0
0.37 0.01 0
0.38 0.01 0
0.39 0.01 0
0.4 0.01 0
0.41 0.01 0
0.42 0.01 0
0.43 0.01 0
0.44 0.01 0
0.45 0.01 0
0.46 0.01 0
0.47 0.01 0
0.48 0.01 0
0.49 0.01 0
0.5 0.01 0
0.51 0.01 0
0.52 0.01 0
0.53 0.01 0
0.54 0.01 0
0.55 0.01 0
0.56 0.01 0
0.57 0.01 0
0.58 0.01 0
0.59 0.01 0
0.6 0.01 0
0.61 0.01 0
0 0.02 0
0.01 0.02 0
0.02 0.02 0
0.03 0.02 0
0.04 0.02 0
0.05 0.02 0
0.06 0.02 0
0.07 0.02 0
0.08 0.02 0
0.09 0.02 0
0.1 0.02 0
0.11 0.02 0
0.12 0.02 0
0.13 0.02 0
0.14 0.02 0
0.15 0.02 0
0.16 0.02 0
0.17 0.02 0
0.18 0.02 0
0.19 0.02 0
0.2 0.02 0
0.21 0.02 0
0.22 0.02 0
0.23 0.02 0
0.24 0.02 0
0.25 0.02 0
0.26 0.02 0
0.27 0.02 0
0.28 0.02 0
0.29 0.02 0
0.3 0.02 0
0.31 0.02 0
0.32 0.02 0
0.33 0.02 0
0.34 0.02 0
0.35 0.02 0
0.36 0.02 0
0.37 0.02 0
0.38 0.02 0
0.39 0.02 0
0.4 0.02 0
0.41 0.02 0
0.42 0.02 0
0.43 0.02 0
0.44 0.02 0
0.45 0.02 0
0.46 0.02 0
0.47 0.02 0
0.48 0.02 0
0.49 0.02 0
0.5 0.02 0
0.51 0.02 0
0.52 0.02 0
0.53 0.02 0
0.54 0.02 0
0.55 0.02 0
0.56 0.02 0
0.57 0.02 0
0.58 0.02 0
0.59 0.02 0
0.6 0.02 0
0.61 0.02 0
0 0.03 0
0.01 0.03 0
0.02 0.03 0
0.03 0.03 0
0.04 0.03 0
0.05 0.03 0
0.06 0.03 0
0.07 0.03 0
0.08 0.03 0
0.09 0.03 0
0.1 0.03 0
0.11 0.03 0
0.12 0.03 0
0.13 0.03 0
0.14 0.03 0
0.15 0.03 0
0.16 0.03 0
0.17 0.03 0
0.18 0.03 0
0.19 0.03 0
0.2 0.03 0
0.21 0.03 0
0.22 0.03 0
0.23 0.03 0
0.24 0.03 0
0.25 0.03 0
0.26 0.03 0
0.27 0.03 0
0.28 0.03 0
0.29 0.03 0
0.3 0.03 0
0.31 0.03 0
0.32 0.03 0
0.33 0.03 0
0.34 0.03 0
0.35 0.03 0
0.36 0.03 0
0.37 0.03 0
0.38 0.03 0
0.39 0.03 0
0.4 0.03 0
0.41 0.03 0
0.42 0.03 0
0.43 0.03 0
0.44 0.03 0
0.45 0.03 0
0.46 0.03 0
0.47 0.03 0
0.48 0.03 0
0.49 0.03 0
0.5 0.03 0
0.51 0.03 0
0.52 0.03 0
0.53 0.03 0
0.54 0.03 0
0.55 0.03 0
0.56 0.03 0
0.57 0.03 0
0.58 0.03 0
0.59 0.03 0
0.6 0.03 0
0.61 0.03 0
0 0.04 0
0.01 0.04 0
0.02 0.04 0
0.03 0.04 0
0.04 0.04 0
0.05 0.04 0
0.06 0.04 0
0.07 0.04 0
0.08 0.04 0
0.09 0.04 0
0.1 0.04 0
0.11 0.04 0
0.12 0.04 0
0.13 0.04 0
0.14 0.04 0
0.15 0.04 0
0.16 0.04 0
0.17 0.04 0
0.18 0.04 0
0.19 0.04 0
0.2 0.04 0
0.21 0.04 0
0.22 0.04 0
0.23 0.04 0
0.24 0.04 0
0.25 0.04 0
0.26 0.04 0
0.27 0.04 0
0.28 0.04 0
0.29 0.04 0
0.3 0.04 0
0.31 0.04 0
0.32 0.04 0
0.33 0.04 0
0.34 0.04 0
0.35 0.04 0
0.36 0.04 0
0.37 0.04 0
0.38 0.04 0
0.39 0.04 0
0.4 0.04 0
0.41 0.04 0
0.42 0.04 0
0.43 0.04 0
0.44 0.04 0
0.45 0.04 0
0.46 0.04 0
0.47 0.04 0
0.48 0.04 0
0.49 0.04 0
0.5 0.04 0
0.51 0.04 0
0.52 0.04 0
0.53 0.04 0
0.54 0.04 0
0.55 0.04 0
0.56 0.04 0
0.57 0.04 0
0.58 0.04 0
0.59 0.04 0
0.6 0.04 0
0.61 0.04 0
0 0.05 0
0.01 0.05 0
0.02 0.05 0
0.03 0.05 0
0.04 0.05 0
0.05 0.05 0
0.06 0.05 0
0.07 0.05 0
0.08 0.05 0
0.09 0.05 0
0.1 0.05 0
0.11 0.05 0
0.12 0.05 0
0.13 0.05 0
0.14 0.05 0
0.15 0.05 0
0.16 0.05 0
0.17 0.05 0
0.18 0.05 0
0.19 0.05 0
0.2 0.05 0
0.21 0.05 0
0.22 0.05 0
0.23 0.05 0
0.24 0.05 0
0.25 0.05 0
0.26 0.05 0
0.27 0.05 0
0.28 0.05 0
0.29 0.05 0
0.3 0.05 0
0.31 0.05 0
0.32 0.05 0
0.33 0.05 0
0.34 0.05 0
0.35 0.05 0
0.36 0.05 0
0.37 0.05 0
0.38 0.05 0
0.39 0.05 0
0.4 0.05 0
0.41 0.05 0
0.42 0.05 0
0.43 0.05 0
0.44 0.05 0
0.45 0.05 0
0.46 0.05 0
0.47 0.05 0
0.48 0.05 0
0.49 0.05 0
0.5 0.05 0
0.51 0.05 0
0.52 0.05 0
0.53 0.05 0
0.54 0.05 0
0.55 0.05 0
0.56 0.05 0
0.57 0.05 0
0.58 0.05 0
0.59 0.05 0
0.6 0.05 0
0.61 0.05 0
0 0.06 0
0.01 0.06 0
0.02 0.06 0
0.03 0.06 0
0.04 0.06 0
0.05 0.06 0
0.06 0.06 0
0.07 0.06 0
0.08 0.06 0
0.09 0.06 0
0.1 0.06 0
0.11 0.06 0
0.12 0.06 0
0.13 0.06 0
0.14 0.06 0
0.15 0.06 0
0.16 0.06 0
0.17 0.06 0
0.18 0.06 0
0.19 0.06 0
0.2 0.06 0
0.21 0.06 0
0.22 0.06 0
0.23 0.06 0
0.24 0.06 0
0.25 0.06 0
0.26 0.06 0
0.27 0.06 0
0.28 0.06 0
0.29 0.06 0
0.3 0.06 0
0.31 0.06 0
0.32 0.06 0
0.33 0.06 0
0.34 0.06 0
0.35 0.06 0
0.36 0.06 0
0.37 0.06 0
0.38 0.06 0
0.39 0.06 0
0.4 0.06 0
0.41 0.06 0
0.42 0.06 0
0.43 0.06 0
0.44 0.06 0
0.45 0.06 0
0.46 0.06 0
0.47 0.06 0
0.48 0.06 0
0.49 0.06 0
0.5 0.06 0
0.51 0.06 0
0.52 0.06 0
0.53 0.06 0
0.54 0.06 0
0.55 0.06 0
0.56 0.06 0
0.57 0.06 0
0.58 0.06 0
0.59 0.06 0
0.6 0.06 0
0.61 0.06 0
0 0.07 0
0.01 0.07 0
0.02 0.07 0
0.03 0.07 0
0.04 0.07 0
0.05 0.07 0
0.06 0.07 0
0.07 0.07 0
0.08 0.07 0
0.09 0.07 0
0.1 0.07 0
0.11 0.07 0
0.12 0.07 0
0.13 0.07 0
0.14 0.07 0
0.15 0.07 0
0.16 0.07 0
0.17 0.07 0
0.18 0.07 0
0.19 0.07 0
0.2 0.07 0
0.21 0.07 0
0.22 0.07 0
0.23 0.07 0
0.24 0.07 0
0.25 0.07 0
0.26 0.07 0
0.27 0.07 0
0.28 0.07 0
0.29 0.07 0
0.3 0.07 0
0.31 0.07 0
0.32 0.07 0
0.33 0.07 0
0.34 0.07 0
0.35 0.07 0
0.36 0.07 0
0.37 0.07 0
0.38 0.07 0
0.39 0.07 0
0.4 0.07 0
0.41 0.07 0
0.42 0.07 0
0.43 0.07 0
0.44 0.07 0
0.45 0.07 0
0.46 0.07 0
0.47 0.07 0
0.48 0.07 0
0.49 0.07 0
0.5 0.07 0
0.51 0.07 0
0.52 0.07 0
0.53 0.07 0
0.54 0.07 0
0.55 0.07 0
0.56 0.07 0
0.57 0.07 0
0.58 0.07 0
0.59 0.07 0
0.6 0.07 0
0.61 0.07 0
0 0.08 0
0.01 0.08 0
0.02 0.08 0
0.03 0.08 0
0.04 0.08 0
0.05 0.08 0
0.06 0.08 0
0.07 0.08 0
0.08 0.08 0
0.09 0.08 0
0.1 0.08 0
0.11 0.08 0
0.12 0.08 0
0.13 0.08 0
0.14 0.08 0
0.15 0.08 0
0.16 0.08 0
0.17 0.08 0
0.18 0.08 0
0.19 0.08 0
0.2 0.08 0
0.21 0.08 0
0.22 0.08 0
0.23 0.08 0
0.24 0.08 0
0.25 0.08 0
0.26 0.08 0
0.27 0.08 0
0.28 0.08 0
0.29 0.08 0
0.3 0.08 0
0.31 0.08 0
0.32 0.08 0
0.33 0.08 0
0.34 0.08 0
0.35 0.08 0
0.36 0.08 0
0.37 0.08 0
0.38 0.08 0
0.39 0.08 0
0.4 0.08 0
0.41 0.08 0
0.42 0.08 0
0.43 0.08 0
0.44 0.08 0
0.45 0.08 0
0.46 0.08 0
0.47 0.08 0
0.48 0.08 0
0.49 0.08 0
0.5 0.08 0
0.51 0.08 0
0.52 0.08 0
0.53 0.08 0
0.54 0.08 0
0.55 0.08 0
0.56 0.08 0
0.57 0.08 0
0.58 0.08 0
0.59 0.08 0
0.6 0.08 0
0.61 0.08 0
0 0.09 0
0.01 0.09 0
0.02 0.09 0
0.03 0.09 0
0.04 0.09 0
0.05 0.09 0
0.06 0.09 0
0.07 0.09 0
0.08 0.09 0
0.09 0.09 0
0.1 0.09 0
0.11 0.09 0
0.12 0.09 0
0.13 0.09 0
0.14 0.09 0
0.15 0.09 0
0.16 0.09 0
0.17 0.09 0
0.18 0.09 0
0.19 0.09 0
0.2 0.09 0
0.21 0.09 0
0.22 0.09 0
0.23 0.09 0
0.24 0.09 0
0.25 0.09 0
0.26 0.09 0
0.27 0.09 0
0.28 0.09 0
0.29 0.09 0
0.3 0.09 0
0.31 0.09 0
0.32 0.09 0
0.33 0.09 0
0.34 0.09 0
0.35 0.09 0
0.36 0.09 0
0.37 0.09 0
0.38 0.09 0
0.39 0.09 0
0.4 0.09 0
0.41 0.09 0
0.42 0.09 0
0.43 0.09 0
0.44 0.09 0
0.45 0.09 0
0.46 0.09 0
0.47 0.09 0
0.48 0.09 0
0.49 0.09 0
0.5 0.09 0
0.51 0.09 0
0.52 0.09 0
0.53 0.09 0
0.54 0.09 0
0.55 0.09 0
0.56 0.09 0
0.57 0.09 0
0.58 0.09 0
0.59 0.09 0
0.6 0.09 0
0.61 0.09 0
0 0.1 0
0.01 0.1 0
0.02 0.1 0
0.03 0.1 0
0.04 0.1 0
0.05 0.1 0
0.06 0.1 0
0.07 0.1 0
0.08 0.1 0
0.09 0.1 0
0.1 0.1 0
0.11 0.1 0
0.12 0.1 0
0.13 0.1 0
0.14 0.1 0
0.15 0.1 0
0.16 0.1 0
0.17 0.1 0
0.18 0.1 0
0.19 0.1 0
0.2 0.1 0
0.21 0.1 0
0.22 0.1 0
0.23 0.1 0
0.24 0.1 0
0.25 0.1 0
0.26 0.1 0
0.27 0.1 0
0.28 0.1 0
0.29 0.1 0
0.3 0.1 0
0.31 0.1 0
0.32 0.1 0
0.33 0.1 0
0.34 0.1 0
0.35 0.1 0
0.36 0.1 0
0.37 0.1 0
0.38 0.1 0
0.39 0.1 0
0.4 0.1 0
0.41 0.1 0
0.42 0.1 0
0.43 0.1 0
0.44 0.1 0
0.45 0.1 0
0.46 0.1 0
0.47 0.1 0
0.48 0.1 0
0.49 0.1 0
0.5 0.1 0
0.51 0.1 0
0.52 0.1 0
0.53 0.1 0
0.54 0.1 0
0.55 0.1 0
0.56 0.1 0
0.57 0.1 0
0.58 0.1 0
0.59 0.1 0
0.6 0.1 0
0.61 0.1 0
0 0.11 0
0.01 0.11 0
0.02 0.11 0
0.03 0.11 0
0.04 0.11 0
0.05 0.11 0
0.06 0.11 0
0.07 0.11 0
0.08 0.11 0
0.09 0.11 0
0.1 0.11 0
0.11 0.11 0
0.12 0.11 0
0.13 0.11 0
0.14 0.11 0
0.15 0.11 0
0.16 0.11 0
0.17 0.11 0
0.18 0.11 0
0.19 0.11 0
0.2 0.11 0
0.21 0.11 0
0.22 0.11 0
0.23 0.11 0
0.24 0.11 0
0.25 0.11 0
0.26 0.11 0
0.27 0.11 0
0.28 0.11 0
0.29 0.11 0
0.3 0.11 0
0.31 0.11 0
0.32 0.11 0
0.33 0.11 0
0.34 0.11 0
0.35 0.11 0
0.36 0.11 0
0.37 0.11 0
0.38 0.11 0
0.39 0.11 0
0.4 0.11 0
0.41 0.11 0
0.42 0.11 0
0.43 0.11 0
0.44 0.11 0
0.45 0.11 0
0.46 0.11 0
0.47 0.11 0
0.48 0.11 0
0.49 0.11 0
0.5 0.11 0
0.51 0.11 0
0.52 0.11 0
0.53 0.11 0
0.54 0.11 0
0.55 0.11 0
0.56 0.11 0
0.57 0.11 0
0.58 0.11 0
0.59 0.11 0
0.6 0.11 0
0.61 0.11 0
0 0.12 0
0.01 0.12 0
0.02 0.12 0
0.03 0.12 0
0.04 0.12 0
0.05 0.12 0
0.06 0.12 0
0.07 0.12 0
0.08 0.12 0
0.09 0.12 0
0.1 0.12 0
0.11 0.12 0
0.12 0.12 0
0.13 0.12 0
0.14 0.12 0
0.15 0.12 0
0.16 0.12 0
0.17 0.12 0
0.18 0.12 0
0.19 0.12 0
0.2 0.12 0
0.21 0.12 0
0.22 0.12 0
0.23 0.12 0
0.24 0.12 0
0.25 0.12 0
0.26 0.12 0
0.27 0.12 0
0.28 0.12 0
0.29 0.12 0
0.3 0.12 0
0.31 0.12 0
0.32 0.12 0
0.33 0.12 0
0.34 0.12 0
0.35 0.12 0
0.36 0.12 0
0.37 0.12 0
0.38 0.12 0
0.39 0.12 0
0.4 0.12 0
0.41 0.12 0
0.42 0.12 0
0.43 0.12 0
0.44 0.12 0
0.45 0.12 0
0.46 0.12 0
0.47 0.12 0
0.48 0.12 0
0.49 0.12 0
0.5 0.12 0
0.51 0.12 0
0.52 0.12 0
0.53 0.12 0
0.54 0.12 0
0.55 0.12 0
0.56 0.12 0
0.57 0.12 0
0.58 0.12 0
0.59 0.12 0
0.6 0.12 0
0.61 0.12 0
0 0.13 0
0.01 0.13 0
0.02 0.13 0
0.03 0.13 0
0.04 0.13 0
0.05 0.13 0
0.06 0.13 0
0.07 0.13 0
0.08 0.13 0
0.09 0.13 0
0.1 0.13 0
0.11 0.13 0
0.12 0.13 0
0.13 0.13 0
0.14 0.13 0
0.15 0.13 0
0.16 0.13 0
0.17 0.13 0
0.18 0.13 0
0.19 0.13 0
0.2 0.13 0
0.21 0.13 0
0.22 0.13 0
0.23 0.13 0
0.24 0.13 0
0.25 0.13 0
0.26 0.13 0
0.27 0.13 0
0.28 0.13 0
0.29 0.13 0
0.3 0.13 0
0.31 0.13 0
0.32 0.13 0
0.33 0.13 0
0.34 0.13 0
0.35 0.13 0
0.36 0.13 0
0.37 0.13 0
0.38 0.13 0
0.39 0.13 0
0.4 0.13 0
0.41 0.13 0
0.42 0.13 0
0.43 0.13 0
0.44 0.13 0
0.45 0.13 0
0.46 0.13 0
0.47 0.13 0
0.48 0.13 0
[...]
POINT_DATA 93248

SCALARS u double
LOOKUP_TABLE default
0
0
0
0
0
0
0
0
0
0
0
0
0
0
0
0
0
0
0
0
0
0
0
0
0.277213
0
0
0
0
0
0
0
0.187366
0.208211
0
0
0
0
0
0
0
0
0
0
0
0
0
0.0922187
0
0
0.0766684
0
0
0
0
0
0
0
0
0
0
0
0
0.418971
0.370124
0.347133
0.332714
0.322034
0.312819
0.304959
0.29764
0.290704
0.284036
0.277563
0.271248
0.265026
0.258889
0.252824
0.246803
0.240812
0.234866
0.228951
0.223079
0.217206
0.211349
0.205506
0.199676
0.193856
0.188044
0.182239
0.176439
0.170644
0.164851
0.159059
0.153276
0.147468
0.141632
0.135804
0.129976
0.124312
0.120519
0.155048
0.106904
0.101245
0.0955484
0.0898243
0.0840678
0.0782547
0.0726199
0.0668512
0.0610943
0.0553323
0.0495526
0.0525927
0.0380159
0.0322501
0.0264883
0.0206882
0.0265786
0.00907008
0.00312673
-0.00313563
-0.00313563
0
0
0.490229
0.472469
0.456754
0.443231
0.431381
0.42098
0.411064
0.401731
0.392766
0.384055
0.375516
0.367188
0.358895
0.350698
0.342594
0.334526
0.32645
0.318461
0.313173
0.302604
0.294658
0.286749
0.278858
0.270979
0.26311
0.25525
0.247398
0.239552
0.23171
0.223869
0.216019
0.208229
0.200366
0.192417
0.184567
0.176342
0.166902
-0.145719
0.151284
0.145116
0.137698
0.130024
0.122278
0.1145
0.106574
0.0988762
0.0911083
0.0833035
0.0754944
0.0676708
0.0598176
0.0520563
0.044272
0.0364479
0.0286621
0.0208214
0.0129893
0.00510371
-0.0027783
-0.0027783
0
0
0.483095
0.46699
0.455037
0.44395
0.433502
0.423646
0.414176
0.405043
0.396172
0.382412
0.379001
0.370546
0.362256
0.35403
0.345854
0.337812
0.329507
0.321537
0.313545
0.305472
0.297506
0.289535
0.281572
0.27362
0.265678
0.257744
0.249817
0.241896
0.233981
0.226074
0.218187
0.210254
0.20244
0.201998
0.186582
0.178529
0.170659
0.164436
0.154884
0.146967
0.139168
0.131369
0.123541
0.115842
0.1235
0.100081
0.0920493
0.0833035
0.0762453
0.0683532
0.0604586
0.0525927
0.0447238
0.0368459
0.0289757
0.02111
0.0131635
0.00529837
-0.0025968
-0.0025968
0
0
0.47836
0.461428
0.450592
0.440798
0.431346
0.422129
0.413121
0.404284
0.395615
0.387082
0.37866
0.370315
0.362056
0.353854
0.345685
0.337492
0.329631
0.321502
0.313055
0.305447
0.297464
0.289495
0.281538
0.27359
0.265652
0.257721
0.249798
0.24188
0.233967
0.22606
0.218157
0.210248
0.202349
0.194367
0.186548
0.178671
0.170883
0.163327
0.155112
0.147129
0.139239
0.131374
0.123517
0.115652
0.107631
0.099869
0.0920057
0.0841276
0.0762467
0.0683641
0.0604829
0.052611
0.0447396
0.0368664
0.0289949
0.0211225
0.0132372
0.00537719
-0.00252799
-0.00252799
0
0
0.476193
0.458266
0.447551
0.438297
0.429416
0.420652
0.412045
0.403447
0.394983
0.386595
0.378276
0.370017
0.361814
0.353656
0.345534
0.337443
0.329433
0.321396
0.313381
0.305384
0.297408
0.289445
0.281494
0.273552
0.265619
0.257693
0.249773
0.241858
0.233948
0.226042
0.218138
0.210233
0.202345
0.194434
0.186564
0.1787
0.170867
0.163056
0.1551
0.147167
0.139268
0.131386
0.123511
0.115644
0.107823
0.0998789
0.0919828
0.0841242
0.0762508
0.0683751
0.0605012
0.0526304
0.0447582
0.0368859
0.0290157
0.0211474
0.0132802
0.00542198
-0.00252269
-0.00252269
0
0
0.475067
0.456387
0.445501
0.43642
0.427838
0.419255
0.411119
0.402555
0.394329
0.386079
0.377861
0.369682
0.36154
0.353432
0.345353
0.337302
0.329284
0.321277
0.313283
0.305303
0.297338
0.289385
0.281442
0.273507
0.265579
0.257658
0.249743
0.241833
0.233926
0.226022
0.218118
0.210195
0.202367
0.19445
0.186567
0.178696
0.170835
0.162971
0.155071
0.147168
0.139274
0.131388
0.123502
0.115604
0.107635
0.0999803
0.0920243
0.0841344
0.0762573
0.0683853
0.0605182
0.0526529
0.0447778
0.0369037
0.0290345
0.0211699
0.0133115
0.005475
-0.00241141
-0.00241141
0
0
0.474417
0.45521
0.444103
0.43505
0.42675
0.405726
0.410172
0.402044
0.393749
0.385572
0.377437
0.369331
0.361248
0.353189
0.345151
0.337132
0.329133
0.321147
0.313173
0.30521
0.297259
0.289316
0.281381
0.273454
0.265533
0.257618
0.249709
0.241803
0.2339
0.225999
0.218112
0.210247
0.202291
0.194432
0.186557
0.178682
0.17081
0.162935
0.155048
0.147159
0.139272
0.131366
0.123504
0.115617
0.107729
0.0998981
0.0920148
0.0841345
0.0762593
0.0683911
0.0605351
0.0526891
0.0447978
0.0369165
0.0290475
0.0211844
0.0133167
0.00550188
-0.00242949
-0.00242949
0
0
0.47401
0.454432
0.44311
0.433961
0.425532
0.417187
0.409242
0.401217
0.393136
0.385068
0.377016
0.368979
0.360947
0.352936
0.344936
0.334526
0.328975
0.32101
0.313055
0.305108
0.297171
0.289239
0.281314
0.273396
0.265619
0.257573
0.24967
0.241771
0.233872
0.225963
0.218087
0.210205
0.202305
0.194423
0.186544
0.178667
0.170791
0.162913
0.155032
0.147149
0.139266
0.131385
0.123504
0.115625
0.107748
0.0998829
0.0920078
0.0841301
0.0762532
0.0683833
0.0605441
0.0527832
0.0448099
0.0369151
0.029052
0.0211992
0.0133596
0.0054749
-0.0024403
-0.0024403
0
0
0.473738
0.453896
0.442397
0.433158
0.424713
0.416541
0.408542
0.400566
0.392581
0.384595
0.37661
0.368626
0.360657
0.352683
0.344716
0.336759
0.32881
0.320868
0.312931
0.304995
0.297082
0.289157
0.281241
0.273329
0.265425
0.257524
0.24963
0.241742
0.233854
0.225887
0.218071
0.210185
0.202295
0.194411
0.18653
0.178651
0.170774
0.162896
0.155018
0.147139
0.13926
0.131381
0.123504
0.115627
0.107752
0.0998795
0.0920036
0.0841229
0.076234
0.0683345
0.0604715
0.0531467
0.0447398
0.0368713
0.0290401
0.0211994
0.013352
0.00549245
-0.00243816
-0.00243816
0
0
0.473549
0.453514
0.441874
0.432555
0.424086
0.415949
0.40796
0.40002
0.392091
0.384162
0.376231
0.368299
0.360369
0.352436
0.344494
0.336566
0.328643
0.320723
0.312806
0.304895
0.296972
0.289068
0.281163
0.27326
0.265362
0.257468
0.249584
0.241722
0.23393
0.233246
0.218132
0.210177
0.20228
0.194396
0.186515
0.178324
0.170758
0.162882
0.155006
0.147129
0.139253
0.131377
0.123502
0.115627
0.107753
0.0998789
0.0920022
0.0841176
0.0762081
0.0682043
0.0597853
-0.0410954
0.0440559
0.0367455
0.02902
0.0212002
0.0133551
0.00549966
-0.00243513
-0.00243513
0
0
0.473412
0.453234
0.441481
0.432094
0.423589
0.415451
0.407471
0.399555
0.391662
0.383773
0.375884
0.367993
0.360102
0.352213
0.344264
0.336372
0.328476
0.320577
0.312678
0.303681
0.296877
0.288979
0.281082
0.273187
0.265294
0.257404
0.249521
0.241653
0.233803
0.225942
0.217918
0.210127
0.202258
0.194377
0.186497
0.178619
0.17043
0.162868
0.154994
0.14712
0.139247
0.131373
0.123499
0.115626
0.107753
0.09988
0.0920056
0.0841274
0.0762411
0.0683443
0.060484
0.0531617
0.0447567
0.0368896
0.0290586
0.0212161
0.0133644
0.00550651
-0.0024317
-0.0024317
0
0
0.47331
0.453024
0.441188
0.431727
0.423191
0.415039
0.40706
0.399158
0.391287
0.383427
0.375567
0.367707
0.359857
0.352076
0.343968
0.33618
0.328316
0.320435
0.312551
0.304665
0.296777
0.288889
0.281
0.273111
0.26522
0.257331
0.249445
0.241572
0.233714
0.225752
0.218119
0.210149
0.202247
0.19436
0.186478
0.178599
0.170724
0.162852
0.154982
0.147112
0.139241
0.131369
0.123497
0.115625
0.107753
0.0998817
0.0920104
0.0841388
0.0762669
0.0684029
0.0605693
0.0528135
0.0448444
0.0369527
0.0290908
0.0212343
0.0133762
0.0055145
-0.00242757
-0.00242757
0
0
0.473232
0.452862
0.440953
0.431443
0.42287
0.4147
0.406716
0.398819
0.390961
0.383121
0.375281
0.367437
0.359574
0.351632
0.344007
0.336055
0.328172
0.3203
0.312429
0.304555
0.296678
0.2888
0.280918
0.273033
0.265143
0.257248
0.249349
0.241464
0.23372
0.225868
0.21803
0.210126
0.202228
0.194339
0.186456
0.178578
0.170704
0.162835
0.154971
0.147105
0.139237
0.131366
0.123495
0.115624
0.107753
0.099883
0.0920144
0.0841476
0.0762785
0.0684204
0.0605735
0.0527354
0.0448511
0.0369757
0.029111
0.0212504
0.0133891
0.00552412
-0.00242221
-0.00242221
0
0
0.473172
0.452734
0.440768
0.431214
0.42261
0.414421
0.406427
0.39853
0.390681
0.38285
0.375028
0.367202
0.359369
0.351527
0.343736
0.335882
0.328025
0.320166
0.312314
0.30445
0.296583
0.288712
0.280838
0.272957
0.265066
0.257157
0.249216
0.241175
0.233847
0.225982
0.218038
0.210113
0.202208
0.194316
0.186431
0.178551
0.170677
0.162815
0.154961
0.147102
0.139237
0.131366
0.123494
0.115623
0.107752
0.0998833
0.092017
0.0841588
0.0762761
0.0684245
0.0605707
0.0527163
0.044851
0.0369862
0.0291251
0.0212657
0.013404
0.00553675
-0.00241435
-0.00241435
0
0
0.473124
0.452633
0.440621
0.43103
0.422397
0.414192
0.406185
0.398284
0.390437
0.382616
0.374805
0.366995
0.359181
0.351365
0.343553
0.335724
0.327884
0.320028
0.312215
0.30435
0.296491
0.288629
0.280762
0.272886
0.264997
0.257076
0.249071
0.240854
0.235423
0.226268
0.218072
0.210097
0.202182
0.194288
0.1864
0.178516
0.17064
0.162783
0.154958
0.147111
0.139244
0.13137
0.123495
0.115622
0.107751
0.0998815
0.0920129
0.08414
0.0762969
0.0684295
0.0605699
0.0527116
0.044852
0.036993
0.0291373
0.0212839
0.0134223
0.0055551
-0.00240075
-0.00240075
0
0
0.473086
0.45255
0.4405
0.430877
0.422222
0.414011
0.405981
0.398073
0.390228
0.382412
0.374609
0.36681
0.359009
0.351206
0.343399
0.335584
0.327763
0.319946
0.312076
0.304248
0.296403
0.288551
0.280692
0.272825
0.264946
0.257047
0.249109
0.2411
0.233775
0.225917
0.217967
0.210045
0.202146
0.194256
0.186363
0.178468
0.170576
0.162712
0.154983
0.147147
0.139266
0.13138
0.123498
0.115622
0.107749
0.0998795
0.0920121
0.0841461
0.0762877
0.0684286
0.0605689
0.0527102
0.0448522
0.0369966
0.0291475
0.0213118
0.0134454
0.00558391
-0.0023726
-0.0023726
0
0
0.473061
0.452478
0.4404
0.430747
0.422067
0.413902
0.405797
0.397888
0.390046
0.382235
0.374438
0.366646
0.358855
0.351061
0.343262
0.335456
0.327644
0.319826
0.311992
0.304161
0.296323
0.288479
0.280628
0.272771
0.264907
0.257033
0.249154
0.241295
0.233577
0.225753
0.217874
0.209987
0.202104
0.194232
0.186321
0.178405
0.17046
0.162469
0.155141
0.147257
0.13931
0.131393
0.1235
0.11562
0.107745
0.0998761
0.0920093
0.0841439
0.0762804
0.0684298
0.0605682
0.0527085
0.04485
0.0369924
0.0291442
0.0213785
0.0134619
0.00562848
-0.00230283
-0.00230283
0
0
0.47302
0.45244
0.440322
0.430631
0.42185
0.40706
0.405548
0.397717
0.38989
0.382084
0.37429
0.366503
0.358717
0.350931
0.34314
0.335343
0.327538
0.319726
0.311906
0.30408
0.296249
0.288413
0.28057
0.272722
0.264869
0.257012
0.24893
0.241311
0.233509
0.22567
0.217807
0.209931
0.202055
0.194251
0.186275
0.178345
0.170321
0.161943
0.156513
0.14752
0.139361
0.1314
0.123497
0.115613
0.107741
0.0998717
0.0920055
0.0841385
0.0762576
0.068446
0.0605674
0.0527055
0.044845
0.036974
0.0290463
0.0133551
0.0133837
0.00568674
-0.00199099
0
0
0
0.473006
0.452303
0.440262
0.430578
0.421875
0.413636
0.405524
0.397611
0.389768
0.381959
0.374162
0.366378
0.358595
0.350817
0.343033
0.335242
0.327444
0.319639
0.311826
0.304007
0.296182
0.288352
0.280516
0.272675
0.264831
0.256983
0.249132
0.241271
0.233484
0.22562
0.217756
0.209873
0.201923
0.18616
0.186161
0.178336
0.170416
0.162435
0.155111
0.147139
0.139287
0.131373
0.123482
0.115603
0.107731
0.0998653
0.0920026
0.0841442
0.0763025
0.068393
0.0605531
0.0527005
0.0448462
0.0369915
0.0291432
0.0213776
0.0134611
0.00562724
-0.00230553
-0.00230553
0
0
0.47299
0.452355
0.440207
0.430537
0.421906
0.413395
0.405427
0.397516
0.389668
0.381866
0.374046
0.366272
0.35848
0.35072
0.342943
0.335155
0.32736
0.319563
0.311755
0.303941
0.296122
0.288297
0.280466
0.272632
0.264793
0.256953
0.249115
0.241292
0.233401
0.225573
0.217722
0.20986
0.201998
0.194209
0.186256
0.178376
0.170499
0.162645
0.154926
0.147097
0.139221
0.13134
0.123463
0.115589
0.107718
0.0998568
0.0919969
0.0841377
0.0762791
0.0684072
0.0605475
0.052696
0.0448455
0.036997
0.0291468
0.0213103
0.0134438
0.0055825
-0.00237393
-0.00237393
0
0
0.472977
0.452327
0.440171
0.430419
0.421591
0.413556
0.405397
0.397445
0.389581
0.381755
0.373994
0.3662
0.358341
0.325002
0.342873
0.335082
0.327283
0.319503
0.311693
0.303883
0.296068
0.288247
0.280421
0.272591
0.264757
0.25692
0.249083
0.241244
0.23339
0.225546
0.217696
0.209842
0.201989
0.194142
0.186262
0.178393
0.170531
0.162687
0.154873
0.147036
0.139178
0.131313
0.123446
0.115575
0.107695
0.0998481
0.0919921
0.0841334
0.0762735
0.068406
0.0605305
0.0526894
0.0448428
0.0370048
0.0291369
0.021281
0.0134199
0.00555343
-0.00240181
-0.00240181
0
0
0.472965
0.452304
0.440133
0.430395
0.421639
0.413396
0.405321
0.397378
0.389514
0.381699
0.373931
0.366228
0.339753
0.350702
0.342829
0.335026
0.32724
0.319428
0.311635
0.303831
0.29602
0.288203
0.280381
0.272554
0.264723
0.256889
0.249052
0.241212
0.233367
0.225522
0.217673
0.209822
0.20197
0.194116
0.186254
0.178393
0.170538
0.162689
0.15485
0.147004
0.13915
0.131293
0.123437
0.115573
0.107631
0.0998505
0.0919929
0.0841335
0.0762789
0.068413
0.0604698
0.052687
0.0448324
0.0370517
0.0291154
0.0212571
0.0133998
0.00553464
-0.00241543
-0.00241543
0
0
0.472957
0.452287
0.440109
0.430372
0.42162
0.413332
0.405265
0.397324
0.389459
0.381641
0.373853
0.366075
0.358236
0.350504
0.342746
0.334967
0.327181
0.319386
0.31159
0.303788
0.29598
0.288166
0.280345
0.27252
0.264692
0.25686
0.249025
0.241187
0.233344
0.225499
0.217652
0.209803
0.201952
0.194099
0.186243
0.178387
0.170533
0.162682
0.154834
0.146984
0.139131
0.131279
0.12344
0.115661
0.115427
0.0999415
0.0920034
0.0841348
0.0763054
0.0685082
0.06829
0.0527606
0.0447438
0.0290071
0.0290062
0.0212267
0.0133843
0.00552193
-0.00242329
-0.00242329
0
0
0.47295
0.452275
0.440093
0.430353
0.421598
0.413297
0.405227
0.397285
0.389418
0.381598
0.373802
0.366018
0.35823
0.350466
0.342698
0.334921
0.327138
0.319348
0.311553
0.303753
0.295947
0.288136
0.280312
0.272491
0.264665
0.256835
0.249
0.241833
0.233322
0.225479
0.217633
0.209785
0.201935
0.194084
0.186231
0.178376
0.170523
0.162671
0.15482
0.146968
0.139114
0.13126
0.123406
0.115547
0.107608
0.0998267
0.0919663
0.0841075
0.0763309
0.0683929
0.0604422
0.0526688
0.0448168
0.0370359
0.029098
0.0212388
0.0133837
0.00551221
-0.00242866
-0.00242866
0
0
0.472946
0.452268
0.440084
0.430342
0.421583
0.413278
0.405205
0.397261
0.389392
0.381568
0.373771
0.365988
0.35821
0.350439
0.342667
0.33489
0.327107
0.319318
0.311524
0.303724
0.295921
0.288122
0.280274
0.272466
0.264642
0.256813
0.248982
0.241142
0.233303
0.225461
0.217617
0.20977
0.201921
0.19407
0.186218
0.178365
0.170513
0.16266
0.154807
0.146954
0.1391
0.131243
0.123385
0.115523
0.107648
0.099801
0.091929
0.0839927
0.0683721
0.068293
0.0604482
0.0526571
0.0448137
0.0369743
0.0291017
0.0212417
0.0133993
0.00548984
-0.00243333
-0.00243333
0
0
0.472943
0.452265
0.440081
0.430339
0.421579
0.413273
0.405199
0.397251
0.389379
0.381551
0.373756
0.365974
0.358198
0.350424
0.342649
0.334871
0.327087
0.319298
0.311503
0.303702
0.295894
0.28807
0.280286
0.272453
0.264625
0.256795
0.248961
0.241129
0.233288
0.225446
0.217602
0.209755
0.201907
0.194057
0.186206
0.178354
0.170502
0.162649
0.154796
0.146943
0.139089
0.131226
0.123371
0.115513
0.107652
0.0997961
0.0919374
0.0840814
0.0762995
0.0683438
0.0605344
0.0526558
0.0448068
0.0369548
0.0290933
0.0212287
0.0133492
0.00553369
-0.00242603
-0.00242603
0
0
0.472942
0.452267
0.440085
0.430344
0.421587
0.413282
0.405211
0.397254
0.389382
0.381541
0.373757
0.365976
0.358197
0.35042
0.342643
0.334864
0.327077
0.319286
0.31149
0.303688
0.295881
0.288069
0.280762
0.272436
0.26461
0.256781
0.248948
0.241113
0.233274
0.225432
0.217589
0.209743
0.201895
0.194046
0.186195
0.178343
0.170491
0.162638
0.154785
0.146933
0.139092
0.131201
0.123358
0.115504
0.107647
0.0997918
0.091937
0.0840855
0.0762435
0.0683692
0.0605179
0.0526579
0.0448025
0.0369466
0.0290877
0.0212269
0.0133649
0.00551275
-0.00242957
-0.00242957
0
0
0.472943
0.452274
0.440096
0.43036
0.421605
0.413306
0.405256
0.397262
0.38941
0.381506
0.373784
0.365996
0.35821
0.350429
0.34265
0.334869
0.327078
0.319283
0.311484
0.303681
0.295875
0.288063
0.280247
0.272425
0.264599
0.25677
0.248937
0.241101
0.233263
0.225421
0.217578
0.209732
0.201884
0.194035
0.186185
0.178333
0.170481
0.162627
0.154772
0.146915
0.139046
0.131226
0.123356
0.115497
0.107641
0.099786
0.0919321
0.0840794
0.0762273
0.0683683
0.0605124
0.0526553
0.0447988
0.0369419
0.0290838
0.0212246
0.0133662
0.0055073
-0.00243195
-0.00243195
0
0
0.472946
0.452285
0.440115
0.430385
0.421634
0.413331
0.405243
0.397371
0.389558
0.389392
0.373917
0.366043
0.358236
0.350447
0.342665
0.334894
0.327086
0.319287
0.311485
0.303679
0.295876
0.288061
0.280242
0.27242
0.244631
0.256763
0.248929
0.241093
0.233254
0.225412
0.217569
0.209723
0.201875
0.194026
0.186176
0.178324
0.170471
0.162617
0.154762
0.146906
0.13905
0.131201
0.123344
0.115488
0.107633
0.099779
0.0919259
0.0840731
0.0762198
0.0683644
0.0605088
0.0526524
0.0447958
0.0369387
0.029081
0.0212228
0.0133644
0.00550487
-0.00243332
-0.00243332
0
0
0.472952
0.452303
0.440926
0.430423
0.421679
0.413382
0.405313
0.397383
0.389505
0.38159
0.37386
0.366062
0.358265
0.350469
0.34268
0.334968
0.327091
0.321396
0.311489
0.303674
0.295891
0.288064
0.280242
0.272418
0.264588
0.256758
0.248924
0.241087
0.233247
0.225406
0.217562
0.209716
0.201868
0.194018
0.186168
0.178316
0.170462
0.162608
0.154753
0.146898
0.139042
0.131188
0.123332
0.115478
0.107624
0.0997713
0.0919194
0.0840676
0.0762153
0.0683615
0.0605064
0.0526504
0.0447936
0.0369364
0.0290788
0.0212209
0.0133626
0.00550332
-0.00243195
-0.00243422
0
0
0.472961
0.452329
0.440184
0.430476
0.421741
0.413451
0.405385
0.397442
0.389562
0.381708
0.373909
0.366109
0.358307
0.350491
0.342613
0.32645
0.327015
0.319295
0.311508
0.303713
0.295873
0.288065
0.280246
0.272421
0.264588
0.256756
0.248921
0.241084
0.233243
0.225401
0.217556
0.20971
0.201862
0.194012
0.18616
0.178308
0.170454
0.1626
0.154744
0.146888
0.139032
0.131176
0.12332
0.115466
0.107613
0.0997627
0.091913
0.0840633
0.0762129
0.0683605
0.060506
0.0526497
0.0447925
0.036935
0.029077
0.0212191
0.013361
0.005475
-0.00243497
-0.00243497
0
0
0.472973
0.452362
0.440238
0.430546
0.421824
0.413541
0.405477
0.397532
0.389651
0.381805
0.373987
0.366178
0.358372
0.350566
0.342764
0.335041
0.327153
0.319343
0.311535
0.303723
0.295899
0.288078
0.280255
0.272434
0.264584
0.256757
0.248922
0.241083
0.233241
0.225398
0.217553
0.209706
0.201857
0.194006
0.186154
0.178301
0.170447
0.162592
0.154736
0.146878
0.13902
0.131162
0.123306
0.115451
0.1076
0.0997531
0.0919067
0.0840603
0.0762135
0.0683631
0.0605085
0.0526511
0.0447925
0.0369347
0.0290285
0.0212177
0.0133595
0.00550079
-0.0024533
-0.00243561
0
0
0.472989
0.452409
0.440311
0.430639
0.421931
0.413656
0.405595
0.397648
0.389763
0.381913
0.374084
0.366265
0.358451
0.350641
0.342833
0.335037
0.327207
0.319386
0.311567
0.303746
0.295921
0.288094
0.280264
0.272425
0.264609
0.256765
0.248925
0.241084
0.233241
0.225397
0.217551
0.209704
0.201854
0.194001
0.186149
0.178296
0.170441
0.162585
0.154727
0.146868
0.139008
0.131147
0.123287
0.115431
0.107582
0.0997421
0.0919006
0.0840587
0.0762196
0.0683721
0.060516
0.0526553
0.0447931
0.0369362
0.0290753
0.021216
0.0133577
0.00549935
-0.00243634
-0.00243634
0
0
0.473012
0.452471
0.440406
0.430759
0.422067
0.413802
0.405743
0.397794
0.3899
0.38204
0.374199
0.366367
0.358542
0.351206
0.3429
0.335082
0.327255
0.319429
0.311603
0.303775
0.295945
0.288113
0.28028
0.272444
0.26461
0.256771
0.24893
0.241087
0.233243
0.225398
0.217551
0.209704
0.201856
0.193994
0.186144
0.178291
0.170436
0.162578
0.154719
0.146858
0.138994
0.131126
0.123262
0.115398
0.10755
0.0997318
0.0918948
0.0840556
0.0762382
0.0683944
0.0605324
0.0526637
0.0447892
0.0369445
0.0290749
0.0212137
0.0133553
0.00549748
-0.00243731
-0.00243731
0
0
0.473042
0.452553
0.440531
0.430916
0.422245
0.413987
0.405927
0.397969
0.390064
0.382189
0.374332
0.366485
0.358644
0.350809
0.342975
0.335142
0.327309
0.319475
0.311641
0.303807
0.295972
0.288135
0.280298
0.272459
0.26462
0.256779
0.248936
0.241092
0.233246
0.225399
0.217552
0.209706
0.201875
0.193972
0.186139
0.178288
0.170432
0.162573
0.154712
0.146847
0.101245
0.131097
0.123229
0.115339
0.107476
0.0997401
0.0918913
0.0840305
0.0762937
0.0684466
0.0605638
0.0526821
0.0448139
0.036925
0.0290685
0.0212095
0.0133518
0.00549486
-0.00243864
-0.00243864
0
0
0.473084
0.452665
0.440699
0.431122
0.422471
0.414219
0.406153
0.398181
0.390257
0.382362
0.374484
0.366617
0.358758
0.350905
0.343056
0.335211
0.327367
0.319525
0.311683
0.303843
0.296002
0.288158
0.280317
0.272475
0.264632
0.256789
0.248944
0.241097
0.23325
0.225402
0.217551
0.209697