# vtk DataFile Version 2.0
FlowField
ASCII
DATASET STRUCTURED_GRID
DIMENSIONS 62 47 32 
POINTS 93248 double
0 0 0
0.01 0 0
0.02 0 0
0.03 0 0
0.04 0 0
0.05 0 0
0.06 0 0
0.07 0 0
0.08 0 0
0.09 0 0
0.1 0 0
0.11 0 0
0.12 0 0
0.13 0 0
0.14 0 0
0.15 0 0
0.16 0 0
0.17 0 0
0.18 0 0
0.19 0 0
0.2 0 0
0.21 0 0
0.22 0 0
0.23 0 0
0.24 0 0
0.25 0 0
0.26 0 0
0.27 0 0
0.28 0 0
0.29 0 0
0.3 0 0
0.31 0 0
0.32 0 0
0.33 0 0
0.34 0 0
0.35 0 0
0.36 0 0
0.37 0 0
0.38 0 0
0.39 0 0
0.4 0 0
0.41 0 0
0.42 0 0
0.43 0 0
0.44 0 0
0.45 0 0
0.46 0 0
0.47 0 0
0.48 0 0
0.49 0 0
0.5 0 0
0.51 0 0
0.52 0 0
0.53 0 0
0.54 0 0
0.55 0 0
0.56 0 0
0.57 0 0
0.58 0 0
0.59 0 0
0.6 0 0
0.61 0 0
0 0.01 0
0.01 0.01 0
0.02 0.01 0
0.03 0.01 0
0.04 0.01 0
0.05 0.01 0
0.06 0.01 0
0.07 0.01 0
0.08 0.01 0
0.09 0.01 0
0.1 0.01 0
0.11 0.01 0
0.12 0.01 0
0.13 0.01 0
0.14 0.01 0
0.15 0.01 0
0.16 0.01 0
0.17 0.01 0
0.18 0.01 0
0.19 0.01 0
0.2 0.01 0
0.21 0.01 0
0.22 0.01 0
0.23 0.01 0
0.24 0.01 0
0.25 0.01 0
0.26 0.01 0
0.27 0.01 0
0.28 0.01 0
0.29 0.01 0
0.3 0.01 0
0.31 0.01 0
0.32 0.01 0
0.33 0.01 0
0.34 0.01 0
0.35 0.01 0
0.36 0.01 0
0.37 0.01 0
0.38 0.01 0
0.39 0.01 0
0.4 0.01 0
0.41 0.01 0
0.42 0.01 0
0.43 0.01 0
0.44 0.01 0
0.45 0.01 0
0.46 0.01 0
0.47 0.01 0
0.48 0.01 0
0.49 0.01 0
0.5 0.01 0
0.51 0.01 0
0.52 0.01 0
0.53 0.01 0
0.54 0.01 0
0.55 0.01 0
0.56 0.01 0
0.57 0.01 0
0.58 0.01 0
0.59 0.01 0
0.6 0.01 0
0.61 0.01 0
0 0.02 0
0.01 0.02 0
0.02 0.02 0
0.03 0.02 0
0.04 0.02 0
0.05 0.02 0
0.06 0.02 0
0.07 0.02 0
0.08 0.02 0
0.09 0.02 0
0.1 0.02 0
0.11 0.02 0
0.12 0.02 0
0.13 0.02 0
0.14 0.02 0
0.15 0.02 0
0.16 0.02 0
0.17 0.02 0
0.18 0.02 0
0.19 0.02 0
0.2 0.02 0
0.21 0.02 0
0.22 0.02 0
0.23 0.02 0
0.24 0.02 0
0.25 0.02 0
0.26 0.02 0
0.27 0.02 0
0.28 0.02 0
0.29 0.02 0
0.3 0.02 0
0.31 0.02 0
0.32 0.02 0
0.33 0.02 0
0.34 0.02 0
0.35 0.02 0
0.36 0.02 0
0.37 0.02 0
0.38 0.02 0
0.39 0.02 0
0.4 0.02 0
0.41 0.02 0
0.42 0.02 0
0.43 0.02 0
0.44 0.02 0
0.45 0.02 0
0.46 0.02 0
0.47 0.02 0
0.48 0.02 0
0.49 0.02 0
0.5 0.02 0
0.51 0.02 0
0.52 0.02 0
0.53 0.02 0
0.54 0.02 0
0.55 0.02 0
0.56 0.02 0
0.57 0.02 0
0.58 0.02 0
0.59 0.02 0
0.6 0.02 0
0.61 0.02 0
0 0.03 0
0.01 0.03 0
0.02 0.03 0
0.03 0.03 0
0.04 0.03 0
0.05 0.03 0
0.06 0.03 0
0.07 0.03 0
0.08 0.03 0
0.09 0.03 0
0.1 0.03 0
0.11 0.03 0
0.12 0.03 0
0.13 0.03 0
0.14 0.03 0
0.15 0.03 0
0.16 0.03 0
0.17 0.03 0
0.18 0.03 0
0.19 0.03 0
0.2 0.03 0
0.21 0.03 0
0.22 0.03 0
0.23 0.03 0
0.24 0.03 0
0.25 0.03 0
0.26 0.03 0
0.27 0.03 0
0.28 0.03 0
0.29 0.03 0
0.3 0.03 0
0.31 0.03 0
0.32 0.03 0
0.33 0.03 0
0.34 0.03 0
0.35 0.03 0
0.36 0.03 0
0.37 0.03 0
0.38 0.03 0
0.39 0.03 0
0.4 0.03 0
0.41 0.03 0
0.42 0.03 0
0.43 0.03 0
0.44 0.03 0
0.45 0.03 0
0.46 0.03 0
0.47 0.03 0
0.48 0.03 0
0.49 0.03 0
0.5 0.03 0
0.51 0.03 0
0.52 0.03 0
0.53 0.03 0
0.54 0.03 0
0.55 0.03 0
0.56 0.03 0
0.57 0.03 0
0.58 0.03 0
0.59 0.03 0
0.6 0.03 0
0.61 0.03 0
0 0.04 0
0.01 0.04 0
0.02 0.04 0
0.03 0.04 0
0.04 0.04 0
0.05 0.04 0
0.06 0.04 0
0.07 0.04 0
0.08 0.04 0
0.09 0.04 0
0.1 0.04 0
0.11 0.04 0
0.12 0.04 0
0.13 0.04 0
0.14 0.04 0
0.15 0.04 0
0.16 0.04 0
0.17 0.04 0
0.18 0.04 0
0.19 0.04 0
0.2 0.04 0
0.21 0.04 0
0.22 0.04 0
0.23 0.04 0
0.24 0.04 0
0.25 0.04 0
0.26 0.04 0
0.27 0.04 0
0.28 0.04 0
0.29 0.04 0
0.3 0.04 0
0.31 0.04 0
0.32 0.04 0
0.33 0.04 0
0.34 0.04 0
0.35 0.04 0
0.36 0.04 0
0.37 0.04 0
0.38 0.04 0
0.39 0.04 0
0.4 0.04 0
0.41 0.04 0
0.42 0.04 0
0.43 0.04 0
0.44 0.04 0
0.45 0.04 0
0.46 0.04 0
0.47 0.04 0
0.48 0.04 0
0.49 0.04 0
0.5 0.04 0
0.51 0.04 0
0.52 0.04 0
0.53 0.04 0
0.54 0.04 0
0.55 0.04 0
0.56 0.04 0
0.57 0.04 0
0.58 0.04 0
0.59 0.04 0
0.6 0.04 0
0.61 0.04 0
0 0.05 0
0.01 0.05 0
0.02 0.05 0
0.03 0.05 0
0.04 0.05 0
0.05 0.05 0
0.06 0.05 0
0.07 0.05 0
0.08 0.05 0
0.09 0.05 0
0.1 0.05 0
0.11 0.05 0
0.12 0.05 0
0.13 0.05 0
0.14 0.05 0
0.15 0.05 0
0.16 0.05 0
0.17 0.05 0
0.18 0.05 0
0.19 0.05 0
0.2 0.05 0
0.21 0.05 0
0.22 0.05 0
0.23 0.05 0
0.24 0.05 0
0.25 0.05 0
0.26 0.05 0
0.27 0.05 0
0.28 0.05 0
0.29 0.05 0
0.3 0.05 0
0.31 0.05 0
0.32 0.05 0
0.33 0.05 0
0.34 0.05 0
0.35 0.05 0
0.36 0.05 0
0.37 0.05 0
0.38 0.05 0
0.39 0.05 0
0.4 0.05 0
0.41 0.05 0
0.42 0.05 0
0.43 0.05 0
0.44 0.05 0
0.45 0.05 0
0.46 0.05 0
0.47 0.05 0
0.48 0.05 0
0.49 0.05 0
0.5 0.05 0
0.51 0.05 0
0.52 0.05 0
0.53 0.05 0
0.54 0.05 0
0.55 0.05 0
0.56 0.05 0
0.57 0.05 0
0.58 0.05 0
0.59 0.05 0
0.6 0.05 0
0.61 0.05 0
0 0.06 0
0.01 0.06 0
0.02 0.06 0
0.03 0.06 0
0.04 0.06 0
0.05 0.06 0
0.06 0.06 0
0.07 0.06 0
0.08 0.06 0
0.09 0.06 0
0.1 0.06 0
0.11 0.06 0
0.12 0.06 0
0.13 0.06 0
0.14 0.06 0
0.15 0.06 0
0.16 0.06 0
0.17 0.06 0
0.18 0.06 0
0.19 0.06 0
0.2 0.06 0
0.21 0.06 0
0.22 0.06 0
0.23 0.06 0
0.24 0.06 0
0.25 0.06 0
0.26 0.06 0
0.27 0.06 0
0.28 0.06 0
0.29 0.06 0
0.3 0.06 0
0.31 0.06 0
0.32 0.06 0
0.33 0.06 0
0.34 0.06 0
0.35 0.06 0
0.36 0.06 0
0.37 0.06 0
0.38 0.06 0
0.39 0.06 0
0.4 0.06 0
0.41 0.06 0
0.42 0.06 0
0.43 0.06 0
0.44 0.06 0
0.45 0.06 0
0.46 0.06 0
0.47 0.06 0
0.48 0.06 0
0.49 0.06 0
0.5 0.06 0
0.51 0.06 0
0.52 0.06 0
0.53 0.06 0
0.54 0.06 0
0.55 0.06 0
0.56 0.06 0
0.57 0.06 0
0.58 0.06 0
0.59 0.06 0
0.6 0.06 0
0.61 0.06 0
0 0.07 0
0.01 0.07 0
0.02 0.07 0
0.03 0.07 0
0.04 0.07 0
0.05 0.07 0
0.06 0.07 0
0.07 0.07 0
0.08 0.07 0
0.09 0.07 0
0.1 0.07 0
0.11 0.07 0
0.12 0.07 0
0.13 0.07 0
0.14 0.07 0
0.15 0.07 0
0.16 0.07 0
0.17 0.07 0
0.18 0.07 0
0.19 0.07 0
0.2 0.07 0
0.21 0.07 0
0.22 0.07 0
0.23 0.07 0
0.24 0.07 0
0.25 0.07 0
0.26 0.07 0
0.27 0.07 0
0.28 0.07 0
0.29 0.07 0
0.3 0.07 0
0.31 0.07 0
0.32 0.07 0
0.33 0.07 0
0.34 0.07 0
0.35 0.07 0
0.36 0.07 0
0.37 0.07 0
0.38 0.07 0
0.39 0.07 0
0.4 0.07 0
0.41 0.07 0
0.42 0.07 0
0.43 0.07 0
0.44 0.07 0
0.45 0.07 0
0.46 0.07 0
0.47 0.07 0
0.48 0.07 0
0.49 0.07 0
0.5 0.07 0
0.51 0.07 0
0.52 0.07 0
0.53 0.07 0
0.54 0.07 0
0.55 0.07 0
0.56 0.07 0
0.57 0.07 0
0.58 0.07 0
0.59 0.07 0
0.6 0.07 0
0.61 0.07 0
0 0.08 0
0.01 0.08 0
0.02 0.08 0
0.03 0.08 0
0.04 0.08 0
0.05 0.08 0
0.06 0.08 0
0.07 0.08 0
0.08 0.08 0
0.09 0.08 0
0.1 0.08 0
0.11 0.08 0
0.12 0.08 0
0.13 0.08 0
0.14 0.08 0
0.15 0.08 0
0.16 0.08 0
0.17 0.08 0
0.18 0.08 0
0.19 0.08 0
0.2 0.08 0
0.21 0.08 0
0.22 0.08 0
0.23 0.08 0
0.24 0.08 0
0.25 0.08 0
0.26 0.08 0
0.27 0.08 0
0.28 0.08 0
0.29 0.08 0
0.3 0.08 0
0.31 0.08 0
0.32 0.08 0
0.33 0.08 0
0.34 0.08 0
0.35 0.08 0
0.36 0.08 0
0.37 0.08 0
0.38 0.08 0
0.39 0.08 0
0.4 0.08 0
0.41 0.08 0
0.42 0.08 0
0.43 0.08 0
0.44 0.08 0
0.45 0.08 0
0.46 0.08 0
0.47 0.08 0
0.48 0.08 0
0.49 0.08 0
0.5 0.08 0
0.51 0.08 0
0.52 0.08 0
0.53 0.08 0
0.54 0.08 0
0.55 0.08 0
0.56 0.08 0
0.57 0.08 0
0.58 0.08 0
0.59 0.08 0
0.6 0.08 0
0.61 0.08 0
0 0.09 0
0.01 0.09 0
0.02 0.09 0
0.03 0.09 0
0.04 0.09 0
0.05 0.09 0
0.06 0.09 0
0.07 0.09 0
0.08 0.09 0
0.09 0.09 0
0.1 0.09 0
0.11 0.09 0
0.12 0.09 0
0.13 0.09 0
0.14 0.09 0
0.15 0.09 0
0.16 0.09 0
0.17 0.09 0
0.18 0.09 0
0.19 0.09 0
0.2 0.09 0
0.21 0.09 0
0.22 0.09 0
0.23 0.09 0
0.24 0.09 0
0.25 0.09 0
0.26 0.09 0
0.27 0.09 0
0.28 0.09 0
0.29 0.09 0
0.3 0.09 0
0.31 0.09 0
0.32 0.09 0
0.33 0.09 0
0.34 0.09 0
0.35 0.09 0
0.36 0.09 0
0.37 0.09 0
0.38 0.09 0
0.39 0.09 0
0.4 0.09 0
0.41 0.09 0
0.42 0.09 0
0.43 0.09 0
0.44 0.09 0
0.45 0.09 0
0.46 0.09 0
0.47 0.09 0
0.48 0.09 0
0.49 0.09 0
0.5 0.09 0
0.51 0.09 0
0.52 0.09 0
0.53 0.09 0
0.54 0.09 0
0.55 0.09 0
0.56 0.09 0
0.57 0.09 0
0.58 0.09 0
0.59 0.09 0
0.6 0.09 0
0.61 0.09 0
0 0.1 0
0.01 0.1 0
0.02 0.1 0
0.03 0.1 0
0.04 0.1 0
0.05 0.1 0
0.06 0.1 0
0.07 0.1 0
0.08 0.1 0
0.09 0.1 0
0.1 0.1 0
0.11 0.1 0
0.12 0.1 0
0.13 0.1 0
0.14 0.1 0
0.15 0.1 0
0.16 0.1 0
0.17 0.1 0
0.18 0.1 0
0.19 0.1 0
0.2 0.1 0
0.21 0.1 0
0.22 0.1 0
0.23 0.1 0
0.24 0.1 0
0.25 0.1 0
0.26 0.1 0
0.27 0.1 0
0.28 0.1 0
0.29 0.1 0
0.3 0.1 0
0.31 0.1 0
0.32 0.1 0
0.33 0.1 0
0.34 0.1 0
0.35 0.1 0
0.36 0.1 0
0.37 0.1 0
0.38 0.1 0
0.39 0.1 0
0.4 0.1 0
0.41 0.1 0
0.42 0.1 0
0.43 0.1 0
0.44 0.1 0
0.45 0.1 0
0.46 0.1 0
0.47 0.1 0
0.48 0.1 0
0.49 0.1 0
0.5 0.1 0
0.51 0.1 0
0.52 0.1 0
0.53 0.1 0
0.54 0.1 0
0.55 0.1 0
0.56 0.1 0
0.57 0.1 0
0.58 0.1 0
0.59 0.1 0
0.6 0.1 0
0.61 0.1 0
0 0.11 0
0.01 0.11 0
0.02 0.11 0
0.03 0.11 0
0.04 0.11 0
0.05 0.11 0
0.06 0.11 0
0.07 0.11 0
0.08 0.11 0
0.09 0.11 0
0.1 0.11 0
0.11 0.11 0
0.12 0.11 0
0.13 0.11 0
0.14 0.11 0
0.15 0.11 0
0.16 0.11 0
0.17 0.11 0
0.18 0.11 0
0.19 0.11 0
0.2 0.11 0
0.21 0.11 0
0.22 0.11 0
0.23 0.11 0
0.24 0.11 0
0.25 0.11 0
0.26 0.11 0
0.27 0.11 0
0.28 0.11 0
0.29 0.11 0
0.3 0.11 0
0.31 0.11 0
0.32 0.11 0
0.33 0.11 0
0.34 0.11 0
0.35 0.11 0
0.36 0.11 0
0.37 0.11 0
0.38 0.11 0
0.39 0.11 0
0.4 0.11 0
0.41 0.11 0
0.42 0.11 0
0.43 0.11 0
0.44 0.11 0
0.45 0.11 0
0.46 0.11 0
0.47 0.11 0
0.48 0.11 0
0.49 0.11 0
0.5 0.11 0
0.51 0.11 0
0.52 0.11 0
0.53 0.11 0
0.54 0.11 0
0.55 0.11 0
0.56 0.11 0
0.57 0.11 0
0.58 0.11 0
0.59 0.11 0
0.6 0.11 0
0.61 0.11 0
0 0.12 0
0.01 0.12 0
0.02 0.12 0
0.03 0.12 0
0.04 0.12 0
0.05 0.12 0
0.06 0.12 0
0.07 0.12 0
0.08 0.12 0
0.09 0.12 0
0.1 0.12 0
0.11 0.12 0
0.12 0.12 0
0.13 0.12 0
0.14 0.12 0
0.15 0.12 0
0.16 0.12 0
0.17 0.12 0
0.18 0.12 0
0.19 0.12 0
0.2 0.12 0
0.21 0.12 0
0.22 0.12 0
0.23 0.12 0
0.24 0.12 0
0.25 0.12 0
0.26 0.12 0
0.27 0.12 0
0.28 0.12 0
0.29 0.12 0
0.3 0.12 0
0.31 0.12 0
0.32 0.12 0
0.33 0.12 0
0.34 0.12 0
0.35 0.12 0
0.36 0.12 0
0.37 0.12 0
0.38 0.12 0
0.39 0.12 0
0.4 0.12 0
0.41 0.12 0
0.42 0.12 0
0.43 0.12 0
0.44 0.12 0
0.45 0.12 0
0.46 0.12 0
0.47 0.12 0
0.48 0.12 0
0.49 0.12 0
0.5 0.12 0
0.51 0.12 0
0.52 0.12 0
0.53 0.12 0
0.54 0.12 0
0.55 0.12 0
0.56 0.12 0
0.57 0.12 0
0.58 0.12 0
0.59 0.12 0
0.6 0.12 0
0.61 0.12 0
0 0.13 0
0.01 0.13 0
0.02 0.13 0
0.03 0.13 0
0.04 0.13 0
0.05 0.13 0
0.06 0.13 0
0.07 0.13 0
0.08 0.13 0
0.09 0.13 0
0.1 0.13 0
0.11 0.13 0
0.12 0.13 0
0.13 0.13 0
0.14 0.13 0
0.15 0.13 0
0.16 0.13 0
0.17 0.13 0
0.18 0.13 0
0.19 0.13 0
0.2 0.13 0
0.21 0.13 0
0.22 0.13 0
0.23 0.13 0
0.24 0.13 0
0.25 0.13 0
0.26 0.13 0
0.27 0.13 0
0.28 0.13 0
0.29 0.13 0
0.3 0.13 0
0.31 0.13 0
0.32 0.13 0
0.33 0.13 0
0.34 0.13 0
0.35 0.13 0
0.36 0.13 0
0.37 0.13 0
0.38 0.13 0
0.39 0.13 0
0.4 0.13 0
0.41 0.13 0
0.42 0.13 0
0.43 0.13 0
0.44 0.13 0
0.45 0.13 0
0.46 0.13 0
0.47 0.13 0
0.48 0.13 0
[...]
POINT_DATA 93248

SCALARS w double
LOOKUP_TABLE default
0
0
0
0
0
0
0
0
0
0
0
0
0
-0.041044
0
0
0
0
0
0
0
0
0
0
0
0
-0.070927
0
0
0
0
0
-0.0667007
0
0
0
0
0
0
0
0
0
0
0
0
0
-0.0628675
0
0
0
0
0
0
0
0
0
0
0
0
0
0
0
0
-0.0135329
-0.02506
-0.0329326
-0.036705
-0.037696
-0.0374768
-0.0372961
-0.0372327
-0.0374374
-0.03775
-0.0379682
-0.0379065
-0.0381715
-0.0385192
-0.0388702
-0.0391431
-0.0394838
-0.0398691
-0.0401001
-0.0375507
-0.037218
-0.0377814
-0.0380628
-0.0382164
-0.0382725
-0.0382683
-0.038232
-0.0381768
-0.0381039
-0.0380008
-0.0378299
-0.0375455
-0.0375062
-0.0374206
-0.0369257
-0.0361449
-0.0359085
-0.0371569
-0.0440532
-0.0364193
-0.0378901
-0.0389602
-0.0394338
-0.0402266
-0.066519
-0.0383721
-0.0380377
-0.0380502
-0.0385565
-0.0390893
-0.0397031
-0.0377586
-0.0391607
-0.0664434
-0.0396739
-0.0386066
-0.0371183
-0.0376297
-0.0375527
-0.0356095
0
0
-0.016295
-0.0373699
-0.0481289
-0.0545027
-0.057588
-0.0598451
-0.0603548
-0.0606185
-0.0612922
-0.0623677
-0.063361
-0.0636868
-0.0645487
-0.065244
-0.0658425
-0.0662518
-0.066889
-0.0676766
-0.0693686
-0.0637342
-0.0638402
-0.0709041
-0.0651575
-0.0652523
-0.0653221
-0.065327
-0.0652852
-0.065214
-0.0651198
-0.0649941
-0.0647842
-0.0642972
-0.0642989
-0.0643309
-0.063502
-0.0626834
-0.060899
-0.0592345
-0.0702059
-0.0680497
-0.0675272
-0.0673378
-0.0671186
-0.0675952
-0.0685007
-0.0673725
-0.0659214
-0.065509
-0.065855
-0.0660655
-0.0667703
-0.0654451
-0.0662106
-0.0674907
-0.0669348
-0.0665589
-0.0647907
-0.0646757
-0.0637301
-0.0597976
0
0
-0.0161388
-0.0370427
-0.0493435
-0.0571972
-0.037696
-0.0634724
-0.0650986
-0.0654678
-0.0661035
-0.0673795
-0.0687472
-0.0706341
-0.071221
-0.0715304
-0.0716897
-0.0720998
-0.0729541
-0.0732656
-0.0738766
-0.0729735
-0.0719609
-0.0717287
-0.0715786
-0.0715463
-0.0715319
-0.0714976
-0.0714399
-0.0713646
-0.0712787
-0.0711961
-0.0711721
-0.0713416
-0.0698713
-0.071113
-0.0695093
-0.0689655
-0.0680952
-0.0677999
-0.0723127
-0.073392
-0.0735808
-0.0736203
-0.0728121
-0.0731761
-0.0739141
-0.0722215
-0.0715764
-0.0710937
-0.0720858
-0.0720123
-0.0718574
-0.0716838
-0.0719599
-0.0723979
-0.072454
-0.0725059
-0.0723776
-0.0714159
-0.0698162
-0.0650784
0
0
-0.015752
-0.0359816
-0.0353858
-0.056869
-0.061939
-0.0651193
-0.0661009
-0.0661626
-0.0665097
-0.0675292
-0.0688697
-0.0702706
-0.0710756
-0.0714723
-0.0715981
-0.0716905
-0.0713909
-0.0719234
-0.0724863
-0.0723596
-0.0720887
-0.0718923
-0.0717547
-0.0716654
-0.0715943
-0.0715234
-0.071447
-0.0713651
-0.0712802
-0.0711984
-0.0711348
-0.0710889
-0.0708004
-0.0707234
-0.0700998
-0.0697147
-0.0693929
-0.0688097
-0.0710942
-0.0721119
-0.0725306
-0.0726134
-0.0723564
-0.0724442
-0.0726776
-0.0722442
-0.0716504
-0.0713067
-0.0715833
-0.0716027
-0.0715518
-0.0715303
-0.0716479
-0.0718209
-0.0719292
-0.0720061
-0.071964
-0.0713599
-0.0697662
-0.0649208
0
0
-0.0155681
-0.0356517
-0.0485004
-0.0573061
-0.0625665
-0.0652408
-0.0659679
-0.0659235
-0.0662157
-0.0670986
-0.0682629
-0.0693387
-0.0700472
-0.0703983
-0.0700488
-0.0704699
-0.0705504
-0.0707593
-0.0710433
-0.0710892
-0.0710142
-0.0709041
-0.0707947
-0.0706959
-0.0706047
-0.0705168
-0.0704298
-0.0703434
-0.0702573
-0.0701678
-0.070059
-0.0698713
-0.0694768
-0.0694422
-0.0693245
-0.0692162
-0.0691656
-0.069321
-0.0699034
-0.070425
-0.0707224
-0.0708239
-0.0707871
-0.0708131
-0.070954
-0.0712996
-0.0705543
-0.0702473
-0.0702546
-0.070269
-0.070277
-0.0703201
-0.0704254
-0.0705399
-0.070619
-0.070649
-0.0705503
-0.0700107
-0.0684268
-0.0637968
0
0
-0.0154596
-0.035404
-0.0485661
-0.0571961
-0.0624316
-0.0650076
-0.0655741
-0.0654251
-0.0658075
-0.0666684
-0.067731
-0.0686472
-0.0692469
-0.0695268
-0.0695267
-0.0694533
-0.0697731
-0.0682459
-0.0701957
-0.070261
-0.070188
-0.0700747
-0.0699597
-0.0698523
-0.069752
-0.0696567
-0.0695644
-0.0694772
-0.0693953
-0.0693128
-0.0692036
-0.0689722
-0.0683083
-0.0685482
-0.0686685
-0.0686809
-0.0687023
-0.0688097
-0.0690364
-0.0692698
-0.0694324
-0.0695077
-0.0694948
-0.0694185
-0.0691473
-0.0683869
-0.0687574
-0.068993
-0.0691117
-0.0691568
-0.0691863
-0.06927
-0.0694439
-0.0695856
-0.0696451
-0.0696102
-0.0693635
-0.0684768
-0.0662868
-0.0623408
0
0
-0.0153845
-0.0352161
-0.048379
-0.0569651
-0.0621838
-0.0648753
-0.0651546
-0.0653468
-0.0656114
-0.0663799
-0.0673442
-0.0681626
-0.0686807
-0.0688859
-0.0687175
-0.0680744
-0.0691836
-0.069796
-0.069965
-0.0698711
-0.069686
-0.0695136
-0.0693705
-0.0692488
-0.0691396
-0.0690417
-0.0689452
-0.0688599
-0.0687913
-0.0687405
-0.0687116
-0.0688082
-0.0693699
-0.0689195
-0.0685587
-0.0683737
-0.0683112
-0.0683376
-0.0684228
-0.0685232
-0.0686056
-0.0686555
-0.0686249
-0.0685555
-0.0683683
-0.0680553
-0.0681448
-0.0682732
-0.0683344
-0.0683283
-0.0683111
-0.0684188
-0.0687928
-0.0690366
-0.0690884
-0.0689923
-0.0685607
-0.0667544
-0.0375527
-0.0612474
0
0
-0.0153285
-0.0350715
-0.0481869
-0.0567266
-0.0618722
-0.064343
-0.0648885
-0.0649777
-0.065335
-0.0661266
-0.0670688
-0.0677897
-0.0682725
-0.0684351
-0.0679661
-0.0657396
-0.0637697
-0.0698651
-0.0698995
-0.069623
-0.0693122
-0.0690985
-0.0689417
-0.0688102
-0.068685
-0.0685961
-0.068491
-0.0684085
-0.0683601
-0.0683484
-0.0683305
-0.0683687
-0.068529
-0.0683593
-0.0681471
-0.0680012
-0.0679396
-0.0679373
-0.0679679
-0.0680101
-0.0680488
-0.0680721
-0.0680604
-0.0680197
-0.0679338
-0.0678251
-0.0678136
-0.0678204
-0.0677759
-0.0676461
-0.0674724
-0.0675279
-0.0684347
-0.0688654
-0.0688946
-0.0688073
-0.0687028
-0.0682707
-0.0655112
-0.0615213
0
0
-0.0152854
-0.0349592
-0.0480242
-0.0565133
-0.0615984
-0.0639686
-0.0645862
-0.0647052
-0.0651169
-0.0659415
-0.0668685
-0.0636868
-0.0680761
-0.0683431
-0.0682065
-0.0675933
-0.0686327
-0.0692581
-0.0693435
-0.0691728
-0.0688836
-0.068747
-0.0686195
-0.0684811
-0.0683245
-0.0682195
-0.0681186
-0.0680437
-0.0680284
-0.0680961
-0.0680577
-0.0680031
-0.0679548
-0.0678432
-0.0677213
-0.0676288
-0.0676002
-0.0676015
-0.0676137
-0.0676304
-0.0676476
-0.0676598
-0.0676594
-0.067644
-0.0676108
-0.0675682
-0.0675341
-0.0674774
-0.0673388
-0.0670384
-0.0665433
-0.0651378
-0.0684683
-0.0690504
-0.0689208
-0.06871
-0.0685694
-0.0681843
-0.0664248
-0.0616407
0
0
-0.0152525
-0.0348728
-0.0478923
-0.0563194
-0.061367
-0.0637009
-0.0643387
-0.0644913
-0.0649441
-0.0657939
-0.0667385
-0.0674558
-0.0680246
-0.0683331
-0.0684607
-0.0684137
-0.0686881
-0.0688881
-0.0689037
-0.0688054
-0.0688209
-0.068639
-0.0684402
-0.0682428
-0.0673491
-0.0678905
-0.0677831
-0.0676995
-0.0677146
-0.0679505
-0.0678874
-0.0677519
-0.0675929
-0.0674636
-0.0673668
-0.0672916
-0.0673002
-0.0673176
-0.067323
-0.067327
-0.0673343
-0.0673435
-0.0673522
-0.0673548
-0.0673478
-0.0673301
-0.0672964
-0.0672198
-0.0670369
-0.0666282
-0.0658661
-0.0651378
-0.0692483
-0.0693624
-0.0689294
-0.0685892
-0.0683907
-0.0679917
-0.0664585
-0.0616133
0
0
-0.0152287
-0.0348115
-0.0477989
-0.0561504
-0.0612011
-0.0635299
-0.0641687
-0.0643351
-0.0648076
-0.065671
-0.0666262
-0.0674025
-0.067949
-0.068321
-0.0686707
-0.068716
-0.0687258
-0.0687012
-0.0686136
-0.0684492
-0.0685149
-0.0683943
-0.0682205
-0.0680276
-0.0678115
-0.0676302
-0.0674491
-0.0672967
-0.0672298
-0.0673821
-0.0678811
-0.0674674
-0.0672098
-0.0670988
-0.0670482
-0.0670138
-0.066999
-0.0670545
-0.067059
-0.0670584
-0.0670635
-0.0670734
-0.0670966
-0.0671176
-0.0671298
-0.0671301
-0.0671114
-0.0670555
-0.0669216
-0.0666478
-0.0662665
-0.066267
-0.0681281
-0.0686196
-0.0685035
-0.0683198
-0.0681887
-0.0678259
-0.0663605
-0.0615394
0
0
-0.0152134
-0.0347775
-0.0477815
-0.0563163
-0.0612972
-0.0635329
-0.06411
-0.0642468
-0.0647109
-0.0655683
-0.0665253
-0.0673084
-0.0678519
-0.0682532
-0.0688612
-0.0687449
-0.0686022
-0.0684912
-0.0683715
-0.0682532
-0.0682131
-0.0681232
-0.0679845
-0.0678049
-0.0675867
-0.0673365
-0.0670536
-0.0667605
-0.0664536
-0.0662525
-0.065586
-0.0660333
-0.0663968
-0.0666031
-0.0667057
-0.0667451
-0.0667563
-0.0667772
-0.0667833
-0.0667902
-0.0667999
-0.066797
-0.0668601
-0.0669108
-0.0669455
-0.066966
-0.0669721
-0.0669596
-0.066913
-0.0667944
-0.0666884
-0.0668411
-0.0675615
-0.0679406
-0.0680188
-0.068015
-0.0679928
-0.0676836
-0.0662563
-0.0614587
0
0
-0.0152016
-0.0347484
-0.0477378
-0.0562187
-0.0612024
-0.0634386
-0.0640121
-0.064151
-0.0646208
-0.0654724
-0.0664362
-0.0672138
-0.0677144
-0.0679231
-0.0675972
-0.0678561
-0.0680507
-0.0681065
-0.0680436
-0.0679953
-0.0679651
-0.0679002
-0.0677811
-0.0676006
-0.0673491
-0.0670071
-0.0665492
-0.0659557
-0.0650019
-0.0651093
-0.065252
-0.0656642
-0.066044
-0.0663015
-0.0664435
-0.0665023
-0.0665162
-0.0665011
-0.0664922
-0.0665052
-0.0665159
-0.0654463
-0.0666139
-0.0667219
-0.0667853
-0.0668278
-0.0668602
-0.0668953
-0.0669407
-0.0668922
-0.0668878
-0.0670216
-0.0673285
-0.0675542
-0.0676833
-0.067783
-0.0678567
-0.0675736
-0.0661663
-0.0613836
0
0
-0.0151935
-0.0347291
-0.0477083
-0.0567266
-0.0611401
-0.0633511
-0.0639205
-0.0640662
-0.0645531
-0.0654535
-0.0664036
-0.067161
-0.0676461
-0.0678716
-0.0678393
-0.0679185
-0.0679896
-0.0679633
-0.0677465
-0.0677471
-0.0677727
-0.0677417
-0.0676325
-0.067438
-0.0671343
-0.0666575
-0.0658641
-0.0643768
-0.0600386
-0.0622758
-0.0640214
-0.0650848
-0.0657098
-0.0660541
-0.0662174
-0.0662667
-0.0664966
-0.0661816
-0.06613
-0.0661642
-0.0662434
-0.0663164
-0.066453
-0.0665634
-0.0666456
-0.0667053
-0.0667532
-0.0668148
-0.0669425
-0.0668825
-0.0669114
-0.0670415
-0.0672605
-0.0673752
-0.0674961
-0.0676461
-0.0684768
-0.0675066
-0.0660951
-0.061318
0
0
-0.0151904
-0.0347256
-0.0476847
-0.0560998
-0.0610498
-0.063271
-0.0638441
-0.0639974
-0.0644928
-0.0653874
-0.0663485
-0.0671128
-0.0676075
-0.0678733
-0.0679772
-0.0680377
-0.0680566
-0.0679643
-0.0674688
-0.0676429
-0.0677411
-0.0677045
-0.067571
-0.0673448
-0.0669884
-0.0663718
-0.0650527
-0.0609056
0.0408117
-0.0558719
-0.061956
-0.0643428
-0.0653813
-0.0658393
-0.066009
-0.0660074
-0.0658936
-0.0656954
-0.0655132
-0.0656223
-0.0658472
-0.0660679
-0.0662594
-0.0664085
-0.066519
-0.0665922
-0.0666313
-0.0666188
-0.066514
-0.0666487
-0.0668042
-0.0670098
-0.0684683
-0.0673194
-0.0674072
-0.0675258
-0.0676657
-0.0674248
-0.0660359
-0.0612612
0
0
-0.0151934
-0.0347574
-0.0476927
-0.0560576
-0.0609948
-0.063212
-0.0637873
-0.0639498
-0.0644544
-0.0653512
-0.0663183
-0.0670858
-0.0675849
-0.0678693
-0.0680184
-0.0681
-0.0681546
-0.068261
-0.0687494
-0.068441
-0.0681196
-0.0678583
-0.0676115
-0.0673348
-0.0669683
-0.066405
-0.0654101
-0.0633977
-0.0589646
-0.0616533
-0.0637399
-0.0649208
-0.0655283
-0.0657971
-0.065861
-0.0657403
-0.0654155
-0.0648289
-0.0639583
-0.0644485
-0.065138
-0.0656665
-0.0660194
-0.0662513
-0.066408
-0.0664989
-0.0665457
-0.0665488
-0.0664908
-0.066511
-0.0666726
-0.0668727
-0.0670928
-0.0672215
-0.0674584
-0.0674646
-0.06761
-0.0673928
-0.0659977
-0.0612095
0
0
-0.0151861
-0.0348024
-0.0476657
-0.0559713
-0.0608984
-0.063144
-0.0637364
-0.0639215
-0.0644427
-0.0653488
-0.0663245
-0.0670865
-0.0675726
-0.067851
-0.0680137
-0.0681111
-0.0681739
-0.0682448
-0.0683941
-0.0682785
-0.0680687
-0.0678398
-0.0676029
-0.0673405
-0.0670189
-0.0665875
-0.0659753
-0.065084
-0.0640836
-0.0644522
-0.0650445
-0.0654837
-0.0657201
-0.0657853
-0.0657488
-0.0654724
-0.064753
-0.0629689
-0.0583837
-0.061444
-0.0637817
-0.0650674
-0.0657364
-0.0660971
-0.0663148
-0.0664233
-0.0664834
-0.0664915
-0.0664172
-0.0662737
-0.0665176
-0.0667569
-0.0669569
-0.0672278
-0.0719292
-0.067454
-0.0676568
-0.067411
-0.0659764
-0.0611314
0
0
-0.0151009
-0.0343637
-0.0472728
-0.0556633
-0.060686
-0.0637009
-0.0637287
-0.0639299
-0.0644591
-0.0653742
-0.0663784
-0.067118
-0.0675569
-0.0677978
-0.067974
-0.0680959
-0.068164
-0.0681889
-0.0681921
-0.068108
-0.0679617
-0.0677823
-0.067581
-0.067354
-0.0670886
-0.0667711
-0.0664031
-0.0658406
-0.0653289
-0.0654087
-0.0656338
-0.065796
-0.0658297
-0.0657346
-0.0657067
-0.0653021
-0.0640517
-0.0594212
0.0467227
-0.0551568
-0.0619881
-0.0644951
-0.0655166
-0.0659773
-0.0661997
-0.0663513
-0.066443
-0.0664802
-0.0664014
-0.0660462
-0.0664778
-0.0667267
-0.0668719
-0.0670102
-0.0671962
-0.0670685
-0.0677497
-0.0674295
-0.0659266
-0.0610744
0
0
-0.0150974
-0.0344235
-0.0472604
-0.0555419
-0.06059
-0.0631415
-0.0638022
-0.0639723
-0.0644708
-0.0653924
-0.0665037
-0.067164
-0.0674821
-0.0676313
-0.0678859
-0.0680796
-0.0681706
-0.0681593
-0.0681177
-0.0680333
-0.0679071
-0.0677514
-0.0675741
-0.0673749
-0.067148
-0.0668872
-0.0665834
-0.0662363
-0.0656227
-0.0658285
-0.0659951
-0.0660231
-0.0659169
-0.0656462
-0.0658288
-0.0654505
-0.0645382
-0.0624454
-0.0576932
-0.0609681
-0.0636075
-0.0649488
-0.0656329
-0.0659963
-0.0662011
-0.0663367
-0.0664435
-0.0665699
-0.0668228
-0.0673898
-0.06704
-0.0668744
-0.0668579
-0.0669158
-0.0670162
-0.0671369
-0.0674896
-0.0672855
-0.0658644
-0.0610327
0
0
-0.0151109
-0.0344853
-0.0473056
-0.0554411
-0.0605705
-0.0634125
-0.0638933
-0.0639324
-0.0643865
-0.0653097
-0.0666473
-0.0670632
-0.0671568
-0.0671515
-0.0677606
-0.0681163
-0.0682318
-0.0681352
-0.068091
-0.0680179
-0.0679006
-0.0677526
-0.0675861
-0.0674014
-0.0671905
-0.066933
-0.0665673
-0.0666716
-0.0671878
-0.0668526
-0.0665391
-0.0663122
-0.0661022
-0.0658852
-0.0658306
-0.0655968
-0.0651314
-0.0643931
-0.0635202
-0.0640606
-0.0648613
-0.0654463
-0.0658327
-0.0660787
-0.0662378
-0.0663378
-0.0664275
-0.0665488
-0.066745
-0.0670081
-0.0669315
-0.0668267
-0.0667987
-0.0668568
-0.066998
-0.0671722
-0.0673635
-0.0671748
-0.0657992
-0.0610323
0
0
-0.0151251
-0.0345398
-0.0474466
-0.0560231
-0.0607941
-0.0623751
-0.0630851
-0.0634423
-0.0640597
-0.0649079
-0.0652902
-0.0660613
-0.0662632
-0.0661831
-0.0678282
-0.0682909
-0.0683729
-0.0681022
-0.068127
-0.068074
-0.0679448
-0.0677865
-0.0676191
-0.0674381
-0.0672228
-0.0668875
-0.0607364
-0.0664545
-0.0668632
-0.066799
-0.0666039
-0.0663885
-0.0661728
-0.0659687
-0.0658571
-0.0657183
-0.0655207
-0.065287
-0.0651309
-0.0652627
-0.0655292
-0.0657971
-0.0660405
-0.0661912
-0.0662997
-0.0663387
-0.0663893
-0.066482
-0.0666199
-0.0667703
-0.0668013
-0.0667195
-0.0666893
-0.0667659
-0.0670008
-0.067197
-0.067331
-0.0671289
-0.0657605
-0.0610102
0
0
-0.0151312
-0.0345567
-0.0474565
-0.0558802
-0.060751
-0.0627307
-0.0632951
-0.0635489
-0.0641549
-0.0650606
-0.0657188
-0.0662105
-0.0659745
-0.0667929
-0.0677859
-0.0682938
-0.0685155
-0.0687968
-0.0685613
-0.0682867
-0.0680477
-0.0678462
-0.0676744
-0.0674982
-0.0673017
-0.0670609
-0.0667037
-0.0667692
-0.0668087
-0.0667275
-0.066568
-0.0663584
-0.066098
-0.0657802
-0.065736
-0.0657036
-0.0656915
-0.0656692
-0.0656755
-0.0657485
-0.0658744
-0.0660391
-0.0671176
-0.066327
-0.066386
-0.0663247
-0.0663309
-0.0664057
-0.0665362
-0.0667076
-0.066794
-0.0666129
-0.0665382
-0.0666069
-0.0670478
-0.0672527
-0.0673574
-0.0671439
-0.0657535
-0.0609922
0
0
-0.0151327
-0.0345582
-0.0474437
-0.0558088
-0.0607334
-0.0629114
-0.0635204
-0.0637879
-0.0644863
-0.0657003
-0.0663315
-0.0668209
-0.067143
-0.0682422
-0.0685067
-0.0685596
-0.0685686
-0.0685757
-0.0684228
-0.068218
-0.0680208
-0.0678584
-0.0677386
-0.0675772
-0.0673916
-0.0672058
-0.067038
-0.0669686
-0.0668537
-0.0667182
-0.0665398
-0.0662743
-0.0658028
-0.0647327
-0.0651852
-0.0653476
-0.0656381
-0.0658016
-0.0658957
-0.0659745
-0.066062
-0.0661658
-0.0662929
-0.066378
-0.0664634
-0.066279
-0.0662653
-0.0663284
-0.066467
-0.0667411
-0.0669318
-0.0665304
-0.0664039
-0.0663748
-0.0671907
-0.0673235
-0.0674171
-0.0672345
-0.0657833
-0.0609807
0
0
-0.0151332
-0.0345578
-0.0474377
-0.0557932
-0.0607481
-0.0630124
-0.0637117
-0.0640307
-0.0650013
-0.0699861
-0.0671402
-0.0673897
-0.0676861
-0.0681584
-0.0683684
-0.0684331
-0.0684603
-0.0683789
-0.0682499
-0.0681
-0.0679569
-0.0678573
-0.0678567
-0.0676747
-0.0674638
-0.0672857
-0.0671613
-0.0671072
-0.0668985
-0.0667402
-0.0665466
-0.0661869
-0.06517
-0.0374206
-0.0638449
-0.0600752
-0.0653793
-0.0658277
-0.0660036
-0.0661002
-0.06618
-0.0662606
-0.0663246
-0.0663736
-0.066399
-0.0663042
-0.0662592
-0.0662615
-0.0663514
-0.0667845
-0.0670477
-0.0666723
-0.0665287
-0.0665809
-0.0669854
-0.067224
-0.0674473
-0.0674393
-0.065839
-0.0609616
0
0
-0.0151344
-0.0345595
-0.0474384
-0.0557952
-0.0607696
-0.0630979
-0.064151
-0.0641483
-0.0648482
-0.0661412
-0.0667736
-0.0672843
-0.0676718
-0.0679806
-0.0681639
-0.0682654
-0.0704209
-0.0682988
-0.0681459
-0.0680142
-0.0678927
-0.0678248
-0.0679853
-0.0676837
-0.0674285
-0.0672728
-0.067178
-0.0671359
-0.066973
-0.0668189
-0.0666708
-0.0663548
-0.0658055
-0.064651
-0.0652059
-0.0654323
-0.0657938
-0.0660053
-0.0661193
-0.0661964
-0.0662762
-0.0663676
-0.0663839
-0.066374
-0.066355
-0.0663022
-0.0662497
-0.0661862
-0.066139
-0.0668493
-0.0672452
-0.0666807
-0.0665989
-0.0666674
-0.0668704
-0.0670861
-0.0673661
-0.0676335
-0.0657925
-0.0608918
0
0
-0.0151368
-0.0345646
-0.0474431
-0.0557968
-0.0607654
-0.0630645
-0.063802
-0.0641103
-0.0647133
-0.0656514
-0.0664878
-0.0671276
-0.0675647
-0.0678483
-0.0680167
-0.0681118
-0.0681924
-0.0681446
-0.0680615
-0.0679503
-0.0678099
-0.0676082
-0.0671155
-0.0671201
-0.0671281
-0.0671409
-0.0671237
-0.0670279
-0.0669672
-0.066899
-0.0683305
-0.0666004
-0.0662786
-0.0659698
-0.0659699
-0.066011
-0.0660946
-0.066163
-0.0662135
-0.0662667
-0.0663611
-0.0665279
-0.0664618
-0.0663822
-0.0663306
-0.0662902
-0.066253
-0.0662097
-0.0661789
-0.0662718
-0.0659247
-0.066495
-0.0665941
-0.0666667
-0.0667764
-0.0668599
-0.0667431
-0.0659636
-0.0651995
-0.0607388
0
0
-0.0151417
-0.034576
-0.0474545
-0.0558003
-0.0607553
-0.0630331
-0.0637521
-0.0642468
-0.0647663
-0.0655778
-0.0663922
-0.0670414
-0.0674808
-0.0677514
-0.0679063
-0.0679907
-0.0680638
-0.0680862
-0.0680365
-0.0679296
-0.0677836
-0.0679845
-0.0673359
-0.0671477
-0.0670309
-0.0671263
-0.0671826
-0.0671475
-0.0670722
-0.0669718
-0.0668801
-0.0666874
-0.0665064
-0.0663622
-0.0662932
-0.0662638
-0.066259
-0.0662621
-0.0662687
-0.0662898
-0.0663761
-0.0666629
-0.0664534
-0.0663336
-0.0662863
-0.0662632
-0.0662466
-0.0662318
-0.0662247
-0.0662342
-0.0661712
-0.0664025
-0.066531
-0.0666259
-0.0667261
-0.0668182
-0.066816
-0.0663954
-0.0652512
-0.0606992
0
0
-0.0151522
-0.0346013
-0.0474823
-0.0558122
-0.0607446
-0.0629952
-0.0637078
-0.0645009
-0.06478
-0.0654986
-0.0662606
-0.0669149
-0.067371
-0.0676451
-0.0677919
-0.0678474
-0.0680049
-0.0681235
-0.0680856
-0.0679525
-0.0677594
-0.067585
-0.0673744
-0.0671267
-0.0668293
-0.0672134
-0.0673538
-0.0673188
-0.0672064
-0.0670636
-0.0669165
-0.0667638
-0.0666278
-0.0665192
-0.0664415
-0.0663869
-0.0663478
-0.0663166
-0.0662857
-0.066239
-0.0661157
-0.0657641
-0.0659942
-0.0661405
-0.0661974
-0.0662143
-0.066218
-0.0662215
-0.0662326
-0.0662549
-0.0662851
-0.0663873
-0.0664873
-0.0665858
-0.0666996
-0.0668461
-0.0678259
-0.0666649
-0.0653502
-0.0607048
0
0
-0.0151756
-0.0346605
-0.0475492
-0.0558411
-0.0607354
-0.0629143
-0.0633643
-0.0628465
-0.0636644
-0.0649776
-0.0658839
-0.0666894
-0.0672285
-0.0675293
-0.0676885
-0.0675702
-0.0680097
-0.0683372
-0.0682464
-0.0680361
-0.0677277
-0.0675487
-0.0673675
-0.0670579
-0.0663942
-0.067543
-0.0676045
-0.0674756
-0.0673031
-0.067128
-0.0669648
-0.0668206
-0.0666996
-0.0666012
-0.0665212
-0.0664546
-0.0663972
-0.0663446
-0.0662918
-0.0662285
-0.0661323
-0.0659923
-0.0660497
-0.0661203
-0.066156
-0.0661667
-0.0661698
-0.0661777
-0.066197
-0.0662309
-0.0662813
-0.0663561
-0.0664434
-0.0665431
-0.0666649
-0.0668145
-0.0669441
-0.0667098
-0.0653885
-0.0607123
0
0
-0.0152308
-0.0348149
-0.0477083
-0.0558977
-0.0607633
-0.0629235
-0.0634008
-0.063323
-0.063873
-0.0649178
-0.0659104
-0.0667012
-0.0672149
-0.0674888
-0.0704699
-0.0668751
-0.0682405
-0.0689
-0.0685426
-0.0682195
-0.0677543
-0.0676246
-0.0674978
-0.0672992
-0.0670638
-0.0673741
-0.0674551
-0.0673886
-0.0672607
-0.0671144
-0.0669732
-0.0668483
-0.0667425
-0.0666528
-0.0665722
-0.0664966
-0.066424
-0.0663531
-0.0662825
-0.0662129
-0.0661513
-0.0661149
-0.066126
-0.0661357
-0.0661271
-0.0661095
-0.0660968
-0.0660989
-0.0661204
-0.0661619
-0.0662217
-0.0662974
-0.0663855
-0.0664888
-0.066619
-0.0667781
-0.0668955
-0.066694
-0.0654023
-0.060716
0
0
-0.0153605
-0.0353405
-0.0479793
-0.0560912
-0.0608799
-0.0630091