# vtk DataFile Version 2.0
FlowField
ASCII
DATASET STRUCTURED_GRID
DIMENSIONS 62 47 32 
POINTS 93248 double
0 0 0
0.01 0 0
0.02 0 0
0.03 0 0
0.04 0 0
0.05 0 0
0.06 0 0
0.07 0 0
0.08 0 0
0.09 0 0
0.1 0 0
0.11 0 0
0.12 0 0
0.13 0 0
0.14 0 0
0.15 0 0
0.16 0 0
0.17 0 0
0.18 0 0
0.19 0 0
0.2 0 0
0.21 0 0
0.22 0 0
0.23 0 0
0.24 0 0
0.25 0 0
0.26 0 0
0.27 0 0
0.28 0 0
0.29 0 0
0.3 0 0
0.31 0 0
0.32 0 0
0.33 0 0
0.34 0 0
0.35 0 0
0.36 0 0
0.37 0 0
0.38 0 0
0.39 0 0
0.4 0 0
0.41 0 0
0.42 0 0
0.43 0 0
0.44 0 0
0.45 0 0
0.46 0 0
0.47 0 0
0.48 0 0
0.49 0 0
0.5 0 0
0.51 0 0
0.52 0 0
0.53 0 0
0.54 0 0
0.55 0 0
0.56 0 0
0.57 0 0
0.58 0 0
0.59 0 0
0.6 0 0
0.61 0 0
0 0.01 0
0.01 0.01 0
0.02 0.01 0
0.03 0.01 0
0.04 0.01 0
0.05 0.01 0
0.06 0.01 0
0.07 0.01 0
0.08 0.01 0
0.09 0.01 0
0.1 0.01 0
0.11 0.01 0
0.12 0.01 0
0.13 0.01 0
0.14 0.01 0
0.15 0.01 0
0.16 0.01 0
0.17 0.01 0
0.18 0.01 0
0.19 0.01 0
0.2 0.01 0
0.21 0.01 0
0.22 0.01 0
0.23 0.01 0
0.24 0.01 0
0.25 0.01 0
0.26 0.01 0
0.27 0.01 0
0.28 0.01 0
0.29 0.01 0
0.3 0.01 0
0.31 0.01 0
0.32 0.01 0
0.33 0.01 0
0.34 0.01 0
0.35 0.01 0
0.36 0.01 0
0.37 0.01 0
0.38 0.01 0
0.39 0.01 0
0.4 0.01 0
0.41 0.01 0
0.42 0.01 0
0.43 0.01 0
0.44 0.01 0
0.45 0.01 0
0.46 0.01 0
0.47 0.01 0
0.48 0.01 0
0.49 0.01 0
0.5 0.01 0
0.51 0.01 0
0.52 0.01 0
0.53 0.01 0
0.54 0.01 0
0.55 0.01 0
0.56 0.01 0
0.57 0.01 0
0.58 0.01 0
0.59 0.01 0
0.6 0.01 0
0.61 0.01 0
0 0.02 0
0.01 0.02 0
0.02 0.02 0
0.03 0.02 0
0.04 0.02 0
0.05 0.02 0
0.06 0.02 0
0.07 0.02 0
0.08 0.02 0
0.09 0.02 0
0.1 0.02 0
0.11 0.02 0
0.12 0.02 0
0.13 0.02 0
0.14 0.02 0
0.15 0.02 0
0.16 0.02 0
0.17 0.02 0
0.18 0.02 0
0.19 0.02 0
0.2 0.02 0
0.21 0.02 0
0.22 0.02 0
0.23 0.02 0
0.24 0.02 0
0.25 0.02 0
0.26 0.02 0
0.27 0.02 0
0.28 0.02 0
0.29 0.02 0
0.3 0.02 0
0.31 0.02 0
0.32 0.02 0
0.33 0.02 0
0.34 0.02 0
0.35 0.02 0
0.36 0.02 0
0.37 0.02 0
0.38 0.02 0
0.39 0.02 0
0.4 0.02 0
0.41 0.02 0
0.42 0.02 0
0.43 0.02 0
0.44 0.02 0
0.45 0.02 0
0.46 0.02 0
0.47 0.02 0
0.48 0.02 0
0.49 0.02 0
0.5 0.02 0
0.51 0.02 0
0.52 0.02 0
0.53 0.02 0
0.54 0.02 0
0.55 0.02 0
0.56 0.02 0
0.57 0.02 0
0.58 0.02 0
0.59 0.02 0
0.6 0.02 0
0.61 0.02 0
0 0.03 0
0.01 0.03 0
0.02 0.03 0
0.03 0.03 0
0.04 0.03 0
0.05 0.03 0
0.06 0.03 0
0.07 0.03 0
0.08 0.03 0
0.09 0.03 0
0.1 0.03 0
0.11 0.03 0
0.12 0.03 0
0.13 0.03 0
0.14 0.03 0
0.15 0.03 0
0.16 0.03 0
0.17 0.03 0
0.18 0.03 0
0.19 0.03 0
0.2 0.03 0
0.21 0.03 0
0.22 0.03 0
0.23 0.03 0
0.24 0.03 0
0.25 0.03 0
0.26 0.03 0
0.27 0.03 0
0.28 0.03 0
0.29 0.03 0
0.3 0.03 0
0.31 0.03 0
0.32 0.03 0
0.33 0.03 0
0.34 0.03 0
0.35 0.03 0
0.36 0.03 0
0.37 0.03 0
0.38 0.03 0
0.39 0.03 0
0.4 0.03 0
0.41 0.03 0
0.42 0.03 0
0.43 0.03 0
0.44 0.03 0
0.45 0.03 0
0.46 0.03 0
0.47 0.03 0
0.48 0.03 0
0.49 0.03 0
0.5 0.03 0
0.51 0.03 0
0.52 0.03 0
0.53 0.03 0
0.54 0.03 0
0.55 0.03 0
0.56 0.03 0
0.57 0.03 0
0.58 0.03 0
0.59 0.03 0
0.6 0.03 0
0.61 0.03 0
0 0.04 0
0.01 0.04 0
0.02 0.04 0
0.03 0.04 0
0.04 0.04 0
0.05 0.04 0
0.06 0.04 0
0.07 0.04 0
0.08 0.04 0
0.09 0.04 0
0.1 0.04 0
0.11 0.04 0
0.12 0.04 0
0.13 0.04 0
0.14 0.04 0
0.15 0.04 0
0.16 0.04 0
0.17 0.04 0
0.18 0.04 0
0.19 0.04 0
0.2 0.04 0
0.21 0.04 0
0.22 0.04 0
0.23 0.04 0
0.24 0.04 0
0.25 0.04 0
0.26 0.04 0
0.27 0.04 0
0.28 0.04 0
0.29 0.04 0
0.3 0.04 0
0.31 0.04 0
0.32 0.04 0
0.33 0.04 0
0.34 0.04 0
0.35 0.04 0
0.36 0.04 0
0.37 0.04 0
0.38 0.04 0
0.39 0.04 0
0.4 0.04 0
0.41 0.04 0
0.42 0.04 0
0.43 0.04 0
0.44 0.04 0
0.45 0.04 0
0.46 0.04 0
0.47 0.04 0
0.48 0.04 0
0.49 0.04 0
0.5 0.04 0
0.51 0.04 0
0.52 0.04 0
0.53 0.04 0
0.54 0.04 0
0.55 0.04 0
0.56 0.04 0
0.57 0.04 0
0.58 0.04 0
0.59 0.04 0
0.6 0.04 0
0.61 0.04 0
0 0.05 0
0.01 0.05 0
0.02 0.05 0
0.03 0.05 0
0.04 0.05 0
0.05 0.05 0
0.06 0.05 0
0.07 0.05 0
0.08 0.05 0
0.09 0.05 0
0.1 0.05 0
0.11 0.05 0
0.12 0.05 0
0.13 0.05 0
0.14 0.05 0
0.15 0.05 0
0.16 0.05 0
0.17 0.05 0
0.18 0.05 0
0.19 0.05 0
0.2 0.05 0
0.21 0.05 0
0.22 0.05 0
0.23 0.05 0
0.24 0.05 0
0.25 0.05 0
0.26 0.05 0
0.27 0.05 0
0.28 0.05 0
0.29 0.05 0
0.3 0.05 0
0.31 0.05 0
0.32 0.05 0
0.33 0.05 0
0.34 0.05 0
0.35 0.05 0
0.36 0.05 0
0.37 0.05 0
0.38 0.05 0
0.39 0.05 0
0.4 0.05 0
0.41 0.05 0
0.42 0.05 0
0.43 0.05 0
0.44 0.05 0
0.45 0.05 0
0.46 0.05 0
0.47 0.05 0
0.48 0.05 0
0.49 0.05 0
0.5 0.05 0
0.51 0.05 0
0.52 0.05 0
0.53 0.05 0
0.54 0.05 0
0.55 0.05 0
0.56 0.05 0
0.57 0.05 0
0.58 0.05 0
0.59 0.05 0
0.6 0.05 0
0.61 0.05 0
0 0.06 0
0.01 0.06 0
0.02 0.06 0
0.03 0.06 0
0.04 0.06 0
0.05 0.06 0
0.06 0.06 0
0.07 0.06 0
0.08 0.06 0
0.09 0.06 0
0.1 0.06 0
0.11 0.06 0
0.12 0.06 0
0.13 0.06 0
0.14 0.06 0
0.15 0.06 0
0.16 0.06 0
0.17 0.06 0
0.18 0.06 0
0.19 0.06 0
0.2 0.06 0
0.21 0.06 0
0.22 0.06 0
0.23 0.06 0
0.24 0.06 0
0.25 0.06 0
0.26 0.06 0
0.27 0.06 0
0.28 0.06 0
0.29 0.06 0
0.3 0.06 0
0.31 0.06 0
0.32 0.06 0
0.33 0.06 0
0.34 0.06 0
0.35 0.06 0
0.36 0.06 0
0.37 0.06 0
0.38 0.06 0
0.39 0.06 0
0.4 0.06 0
0.41 0.06 0
0.42 0.06 0
0.43 0.06 0
0.44 0.06 0
0.45 0.06 0
0.46 0.06 0
0.47 0.06 0
0.48 0.06 0
0.49 0.06 0
0.5 0.06 0
0.51 0.06 0
0.52 0.06 0
0.53 0.06 0
0.54 0.06 0
0.55 0.06 0
0.56 0.06 0
0.57 0.06 0
0.58 0.06 0
0.59 0.06 0
0.6 0.06 0
0.61 0.06 0
0 0.07 0
0.01 0.07 0
0.02 0.07 0
0.03 0.07 0
0.04 0.07 0
0.05 0.07 0
0.06 0.07 0
0.07 0.07 0
0.08 0.07 0
0.09 0.07 0
0.1 0.07 0
0.11 0.07 0
0.12 0.07 0
0.13 0.07 0
0.14 0.07 0
0.15 0.07 0
0.16 0.07 0
0.17 0.07 0
0.18 0.07 0
0.19 0.07 0
0.2 0.07 0
0.21 0.07 0
0.22 0.07 0
0.23 0.07 0
0.24 0.07 0
0.25 0.07 0
0.26 0.07 0
0.27 0.07 0
0.28 0.07 0
0.29 0.07 0
0.3 0.07 0
0.31 0.07 0
0.32 0.07 0
0.33 0.07 0
0.34 0.07 0
0.35 0.07 0
0.36 0.07 0
0.37 0.07 0
0.38 0.07 0
0.39 0.07 0
0.4 0.07 0
0.41 0.07 0
0.42 0.07 0
0.43 0.07 0
0.44 0.07 0
0.45 0.07 0
0.46 0.07 0
0.47 0.07 0
0.48 0.07 0
0.49 0.07 0
0.5 0.07 0
0.51 0.07 0
0.52 0.07 0
0.53 0.07 0
0.54 0.07 0
0.55 0.07 0
0.56 0.07 0
0.57 0.07 0
0.58 0.07 0
0.59 0.07 0
0.6 0.07 0
0.61 0.07 0
0 0.08 0
0.01 0.08 0
0.02 0.08 0
0.03 0.08 0
0.04 0.08 0
0.05 0.08 0
0.06 0.08 0
0.07 0.08 0
0.08 0.08 0
0.09 0.08 0
0.1 0.08 0
0.11 0.08 0
0.12 0.08 0
0.13 0.08 0
0.14 0.08 0
0.15 0.08 0
0.16 0.08 0
0.17 0.08 0
0.18 0.08 0
0.19 0.08 0
0.2 0.08 0
0.21 0.08 0
0.22 0.08 0
0.23 0.08 0
0.24 0.08 0
0.25 0.08 0
0.26 0.08 0
0.27 0.08 0
0.28 0.08 0
0.29 0.08 0
0.3 0.08 0
0.31 0.08 0
0.32 0.08 0
0.33 0.08 0
0.34 0.08 0
0.35 0.08 0
0.36 0.08 0
0.37 0.08 0
0.38 0.08 0
0.39 0.08 0
0.4 0.08 0
0.41 0.08 0
0.42 0.08 0
0.43 0.08 0
0.44 0.08 0
0.45 0.08 0
0.46 0.08 0
0.47 0.08 0
0.48 0.08 0
0.49 0.08 0
0.5 0.08 0
0.51 0.08 0
0.52 0.08 0
0.53 0.08 0
0.54 0.08 0
0.55 0.08 0
0.56 0.08 0
0.57 0.08 0
0.58 0.08 0
0.59 0.08 0
0.6 0.08 0
0.61 0.08 0
0 0.09 0
0.01 0.09 0
0.02 0.09 0
0.03 0.09 0
0.04 0.09 0
0.05 0.09 0
0.06 0.09 0
0.07 0.09 0
0.08 0.09 0
0.09 0.09 0
0.1 0.09 0
0.11 0.09 0
0.12 0.09 0
0.13 0.09 0
0.14 0.09 0
0.15 0.09 0
0.16 0.09 0
0.17 0.09 0
0.18 0.09 0
0.19 0.09 0
0.2 0.09 0
0.21 0.09 0
0.22 0.09 0
0.23 0.09 0
0.24 0.09 0
0.25 0.09 0
0.26 0.09 0
0.27 0.09 0
0.28 0.09 0
0.29 0.09 0
0.3 0.09 0
0.31 0.09 0
0.32 0.09 0
0.33 0.09 0
0.34 0.09 0
0.35 0.09 0
0.36 0.09 0
0.37 0.09 0
0.38 0.09 0
0.39 0.09 0
0.4 0.09 0
0.41 0.09 0
0.42 0.09 0
0.43 0.09 0
0.44 0.09 0
0.45 0.09 0
0.46 0.09 0
0.47 0.09 0
0.48 0.09 0
0.49 0.09 0
0.5 0.09 0
0.51 0.09 0
0.52 0.09 0
0.53 0.09 0
0.54 0.09 0
0.55 0.09 0
0.56 0.09 0
0.57 0.09 0
0.58 0.09 0
0.59 0.09 0
0.6 0.09 0
0.61 0.09 0
0 0.1 0
0.01 0.1 0
0.02 0.1 0
0.03 0.1 0
0.04 0.1 0
0.05 0.1 0
0.06 0.1 0
0.07 0.1 0
0.08 0.1 0
0.09 0.1 0
0.1 0.1 0
0.11 0.1 0
0.12 0.1 0
0.13 0.1 0
0.14 0.1 0
0.15 0.1 0
0.16 0.1 0
0.17 0.1 0
0.18 0.1 0
0.19 0.1 0
0.2 0.1 0
0.21 0.1 0
0.22 0.1 0
0.23 0.1 0
0.24 0.1 0
0.25 0.1 0
0.26 0.1 0
0.27 0.1 0
0.28 0.1 0
0.29 0.1 0
0.3 0.1 0
0.31 0.1 0
0.32 0.1 0
0.33 0.1 0
0.34 0.1 0
0.35 0.1 0
0.36 0.1 0
0.37 0.1 0
0.38 0.1 0
0.39 0.1 0
0.4 0.1 0
0.41 0.1 0
0.42 0.1 0
0.43 0.1 0
0.44 0.1 0
0.45 0.1 0
0.46 0.1 0
0.47 0.1 0
0.48 0.1 0
0.49 0.1 0
0.5 0.1 0
0.51 0.1 0
0.52 0.1 0
0.53 0.1 0
0.54 0.1 0
0.55 0.1 0
0.56 0.1 0
0.57 0.1 0
0.58 0.1 0
0.59 0.1 0
0.6 0.1 0
0.61 0.1 0
0 0.11 0
0.01 0.11 0
0.02 0.11 0
0.03 0.11 0
0.04 0.11 0
0.05 0.11 0
0.06 0.11 0
0.07 0.11 0
0.08 0.11 0
0.09 0.11 0
0.1 0.11 0
0.11 0.11 0
0.12 0.11 0
0.13 0.11 0
0.14 0.11 0
0.15 0.11 0
0.16 0.11 0
0.17 0.11 0
0.18 0.11 0
0.19 0.11 0
0.2 0.11 0
0.21 0.11 0
0.22 0.11 0
0.23 0.11 0
0.24 0.11 0
0.25 0.11 0
0.26 0.11 0
0.27 0.11 0
0.28 0.11 0
0.29 0.11 0
0.3 0.11 0
0.31 0.11 0
0.32 0.11 0
0.33 0.11 0
0.34 0.11 0
0.35 0.11 0
0.36 0.11 0
0.37 0.11 0
0.38 0.11 0
0.39 0.11 0
0.4 0.11 0
0.41 0.11 0
0.42 0.11 0
0.43 0.11 0
0.44 0.11 0
0.45 0.11 0
0.46 0.11 0
0.47 0.11 0
0.48 0.11 0
0.49 0.11 0
0.5 0.11 0
0.51 0.11 0
0.52 0.11 0
0.53 0.11 0
0.54 0.11 0
0.55 0.11 0
0.56 0.11 0
0.57 0.11 0
0.58 0.11 0
0.59 0.11 0
0.6 0.11 0
0.61 0.11 0
0 0.12 0
0.01 0.12 0
0.02 0.12 0
0.03 0.12 0
0.04 0.12 0
0.05 0.12 0
0.06 0.12 0
0.07 0.12 0
0.08 0.12 0
0.09 0.12 0
0.1 0.12 0
0.11 0.12 0
0.12 0.12 0
0.13 0.12 0
0.14 0.12 0
0.15 0.12 0
0.16 0.12 0
0.17 0.12 0
0.18 0.12 0
0.19 0.12 0
0.2 0.12 0
0.21 0.12 0
0.22 0.12 0
0.23 0.12 0
0.24 0.12 0
0.25 0.12 0
0.26 0.12 0
0.27 0.12 0
0.28 0.12 0
0.29 0.12 0
0.3 0.12 0
0.31 0.12 0
0.32 0.12 0
0.33 0.12 0
0.34 0.12 0
0.35 0.12 0
0.36 0.12 0
0.37 0.12 0
0.38 0.12 0
0.39 0.12 0
0.4 0.12 0
0.41 0.12 0
0.42 0.12 0
0.43 0.12 0
0.44 0.12 0
0.45 0.12 0
0.46 0.12 0
0.47 0.12 0
0.48 0.12 0
0.49 0.12 0
0.5 0.12 0
0.51 0.12 0
0.52 0.12 0
0.53 0.12 0
0.54 0.12 0
0.55 0.12 0
0.56 0.12 0
0.57 0.12 0
0.58 0.12 0
0.59 0.12 0
0.6 0.12 0
0.61 0.12 0
0 0.13 0
0.01 0.13 0
0.02 0.13 0
0.03 0.13 0
0.04 0.13 0
0.05 0.13 0
0.06 0.13 0
0.07 0.13 0
0.08 0.13 0
0.09 0.13 0
0.1 0.13 0
0.11 0.13 0
0.12 0.13 0
0.13 0.13 0
0.14 0.13 0
0.15 0.13 0
0.16 0.13 0
0.17 0.13 0
0.18 0.13 0
0.19 0.13 0
0.2 0.13 0
0.21 0.13 0
0.22 0.13 0
0.23 0.13 0
0.24 0.13 0
0.25 0.13 0
0.26 0.13 0
0.27 0.13 0
0.28 0.13 0
0.29 0.13 0
0.3 0.13 0
0.31 0.13 0
0.32 0.13 0
0.33 0.13 0
0.34 0.13 0
0.35 0.13 0
0.36 0.13 0
0.37 0.13 0
0.38 0.13 0
0.39 0.13 0
0.4 0.13 0
0.41 0.13 0
0.42 0.13 0
0.43 0.13 0
0.44 0.13 0
0.45 0.13 0
0.46 0.13 0
0.47 0.13 0
0.48 0.13 0
[...]
POINT_DATA 93248

SCALARS u double
LOOKUP_TABLE default
0
0
0
0
0
0
0
0
0
0
0
0
0
0
0
0
0
0
0
0
0
0
0
0
0.286017
0
0
0
0
0
0
0
0.02046
0.216734
0
0
0
0
0
0
0
0
0
0
0
0
0
0.0610162
0
0
0.0615439
0
0
0
0
0
0
0
0
0
0
0
0
0.410866
0.327469
0.247677
0.181974
0.133365
0.0976391
0.0724435
0.0551592
0.0430653
0.0344935
0.0292085
0.0290839
0.0289294
0.0290065
0.029233
0.0296934
0.0294346
0.0285132
0.0260743
0.0316535
0.0323476
0.028502
0.0275844
0.0269157
0.0261921
0.0254285
0.0246288
0.0237649
0.0227776
0.0215942
0.0204081
0.0207957
0.0196198
0.0175982
0.0160306
0.0165365
0.0139806
0.0108278
0.155338
0.00535367
0.00886784
0.0102681
0.0127698
0.0192859
-0.0118503
0.000739148
0.00137584
0.00141881
-6.45192e-05
-0.0015803
0.0132087
-0.00197646
0.0047957
-0.025197
-0.0200886
-0.00902926
-0.0170863
-0.021586
-0.0294891
-0.0294891
0
0
0.485245
0.463645
0.432575
0.393133
0.354926
0.311917
0.271145
0.235473
0.206777
0.184797
0.168682
0.161669
0.155041
0.150561
0.147292
0.145171
0.142459
0.141579
0.32534
0.141784
0.138497
0.124559
0.122911
0.119777
0.116325
0.112772
0.109147
0.105437
0.1016
0.0975341
0.0931001
0.0912248
0.086944
0.0824079
0.0788668
0.0727049
0.0670675
-0.00991562
0.0598572
0.0561369
0.052205
0.0503236
0.0492937
0.0464989
0.0309479
0.0238613
0.0223012
0.0192128
0.016003
0.0135505
0.00639176
0.00405971
-0.000629403
-0.0183411
-0.0234492
-0.0303939
-0.0334269
-0.0418283
-0.0514499
-0.0514499
0
0
0.47928
0.473782
0.467722
0.450587
0.445883
0.417216
0.389754
0.363403
0.338945
0.346131
0.30033
0.281008
0.268638
0.259255
0.252395
0.246839
0.239868
0.234852
0.228756
0.221204
0.217298
0.209608
0.204102
0.198658
0.193025
0.18723
0.181316
0.17532
0.169309
0.16348
0.158162
0.150318
0.144323
0.208239
0.133524
0.125546
0.11942
0.115609
0.109333
0.10201
0.0947663
0.12776
0.0823888
0.0750727
0.121512
0.0535818
0.0455798
0.0192128
0.033322
0.0277849
0.0203164
0.0132087
0.004191
-0.00826946
-0.0176024
-0.0266056
-0.0383287
-0.0471305
-0.0562483
-0.0562483
0
0
0.472172
0.461716
0.464807
0.457614
0.453247
0.442581
0.429423
0.41506
0.400201
0.384986
0.370482
0.354912
0.341156
0.329093
0.319199
0.309293
0.302757
0.294965
0.323302
0.277748
0.269786
0.261944
0.254701
0.247646
0.240557
0.233358
0.22605
0.218665
0.211244
0.20383
0.196286
0.187713
0.179944
0.171861
0.164968
0.157721
0.150922
0.145292
0.13754
0.128927
0.119726
0.110189
0.101559
0.0922034
0.0813994
0.0706362
0.0619513
0.0542597
0.0462076
0.0381006
0.0293936
0.0202275
0.0100758
-0.000974124
-0.011656
-0.0223315
-0.0338176
-0.0440905
-0.0541882
-0.0541882
0
0
0.469624
0.456739
0.4507
0.445301
0.441275
0.435844
0.42935
0.421999
0.413613
0.404278
0.39425
0.383286
0.371999
0.360544
0.3525
0.341583
0.332476
0.323466
0.313684
0.304568
0.295952
0.287667
0.279657
0.271786
0.263935
0.256013
0.248013
0.239944
0.231796
0.223506
0.214875
0.205735
0.198146
0.189644
0.181506
0.173609
0.165965
0.158464
0.150064
0.140953
0.131263
0.121181
0.111282
0.1013
0.0915614
0.0884783
0.0708755
0.0620778
0.0530005
0.0437521
0.0342531
0.0244246
0.0141513
0.00359577
-0.00698456
-0.0174292
-0.0275827
-0.0370266
-0.0473521
-0.0473521
0
0
0.468482
0.452732
0.441742
0.433493
0.427224
0.421441
0.416286
0.41136
0.405691
0.399507
0.392837
0.385595
0.3775
0.36867
0.360399
0.351971
0.342326
0.33403
0.324079
0.314895
0.306219
0.29783
0.289603
0.281456
0.273336
0.265121
0.25686
0.248549
0.240151
0.231579
0.222628
0.212878
0.206238
0.197212
0.188362
0.179898
0.171594
0.163189
0.154356
0.145062
0.135347
0.125283
0.115006
0.104323
0.0931945
0.0858115
0.0758723
0.0659883
0.0562221
0.0464795
0.0366962
0.0267986
0.0166984
0.00656282
-0.00343869
-0.0130237
-0.0214947
-0.0266886
-0.0262771
-0.0262771
0
0
0.467864
0.45029
0.436391
0.425372
0.416791
0.453107
0.404292
0.397809
0.392281
0.387229
0.38247
0.377988
0.372344
0.365645
0.358239
0.351296
0.342532
0.333993
0.32534
0.316954
0.308812
0.300716
0.292601
0.284462
0.276326
0.268039
0.259775
0.251486
0.243133
0.234704
0.226406
0.21879
0.207198
0.198431
0.190048
0.181627
0.173101
0.164365
0.155338
0.146001
0.136385
0.128742
0.116338
0.105957
0.0957523
0.0869505
0.0774055
0.0675554
0.0576591
0.0477951
0.0380034
0.0282755
0.0183936
0.00864901
-0.000827256
-0.0101296
-0.0198674
-0.0310787
-0.0141606
-0.0141606
0
0
0.467484
0.448764
0.433074
0.419963
0.408983
0.399407
0.39192
0.385332
0.37975
0.375033
0.371052
0.369429
0.364975
0.359251
0.351242
0.145171
0.336293
0.329922
0.323302
0.316032
0.308688
0.300956
0.292996
0.284872
0.263935
0.268455
0.260444
0.252338
0.244145
0.235813
0.227375
0.21882
0.20883
0.199592
0.190796
0.182112
0.173371
0.164469
0.155354
0.146017
0.136463
0.126693
0.116803
0.106835
0.0970082
0.0875537
0.0779675
0.0682009
0.0583402
0.0484753
0.0387301
0.0293015
0.0195618
0.010172
0.00121283
-0.00733056
-0.0157007
-0.0261897
-0.0266572
-0.0266572
0
0
0.467236
0.447768
0.430915
0.41639
0.403862
0.392996
0.384
0.376544
0.370471
0.365364
0.359746
0.365319
0.359132
0.354093
0.348756
0.344869
0.338525
0.331031
0.323424
0.315666
0.308438
0.300615
0.292637
0.284614
0.276875
0.26873
0.260635
0.252615
0.244618
0.236407
0.227617
0.21862
0.209333
0.200198
0.191246
0.182356
0.173444
0.164428
0.155264
0.14594
0.136459
0.126838
0.117125
0.107374
0.0976674
0.0880346
0.0783717
0.0686199
0.0587737
0.0488535
0.0388981
0.029959
0.0202483
0.0112277
0.00256276
-0.00590407
-0.0144767
-0.02373
-0.0315804
-0.0315804
0
0
0.467068
0.447098
0.429463
0.414008
0.400487
0.388756
0.378845
0.370709
0.364276
0.359329
0.355622
0.355548
0.35283
0.349399
0.345272
0.341312
0.335897
0.329389
0.322418
0.315381
0.307322
0.299605
0.291791
0.283742
0.276566
0.268381
0.260403
0.252605
0.245028
0.253546
0.227814
0.218512
0.209472
0.200502
0.191562
0.184874
0.173586
0.164486
0.155285
0.145974
0.136555
0.127041
0.11744
0.107792
0.0981361
0.0884783
0.078798
0.0690617
0.0592371
0.0492978
0.0390825
-0.00123751
0.0204817
0.0121134
0.00358988
-0.004962
-0.0136793
-0.022832
-0.0324734
-0.0324734
0
0
0.466955
0.446645
0.428464
0.4124
0.398204
0.385846
0.375361
0.366786
0.360121
0.355245
0.35194
0.350058
0.34794
0.34545
0.341429
0.337275
0.332381
0.326668
0.320354
0.311071
0.306193
0.29868
0.290983
0.283146
0.275501
0.267609
0.259819
0.252237
0.2448
0.237409
0.226841
0.218318
0.209688
0.200827
0.19185
0.182821
0.176945
0.164661
0.155433
0.14613
0.136753
0.127331
0.117791
0.10819
0.0985649
0.0889296
0.0792862
0.069618
0.0599155
0.0503537
0.041129
0.0325115
0.0228477
0.0136153
0.00470193
-0.00407611
-0.0129408
-0.0221807
-0.0321541
-0.0321541
0
0
0.466881
0.446359
0.427901
0.411259
0.396578
0.383796
0.372933
0.364062
0.357202
0.352248
0.348834
0.346415
0.344279
0.342356
0.337716
0.333873
0.329384
0.3241
0.318312
0.312013
0.305084
0.297754
0.290139
0.28233
0.274448
0.266535
0.258844
0.251478
0.244043
0.23483
0.22883
0.219943
0.210684
0.201443
0.192239
0.183068
0.173916
0.164822
0.155652
0.146363
0.136986
0.12776
0.118214
0.108613
0.0990027
0.089403
0.0798302
0.070267
0.06064
0.0513211
0.0423336
0.0335114
0.0241701
0.0148644
0.00577494
-0.00316647
-0.0121648
-0.0214905
-0.0315515
-0.0315515
0
0
0.46683
0.446153
0.427431
0.410444
0.395452
0.382362
0.371224
0.362126
0.355082
0.349988
0.34637
0.34362
0.340978
0.337437
0.335896
0.332112
0.327385
0.322022
0.316603
0.310592
0.303916
0.296729
0.289158
0.281288
0.273192
0.265018
0.257204
0.250206
0.245128
0.23704
0.229153
0.220366
0.211167
0.201846
0.192529
0.183278
0.174091
0.165066
0.155971
0.146654
0.136963
0.128631
0.11875
0.109075
0.0994534
0.0898772
0.0803783
0.0709455
0.0612263
0.0520476
0.0430811
0.034102
0.0249233
0.0157526
0.00670038
-0.00225771
-0.0113755
-0.0207445
-0.0308661
-0.0308661
0
0
0.466797
0.446021
0.427215
0.409706
0.394627
0.381344
0.370009
0.360741
0.353575
0.348269
0.344471
0.341546
0.338835
0.335868
0.333298
0.329756
0.325234
0.319812
0.315204
0.309412
0.302801
0.295648
0.288071
0.280085
0.271651
0.262743
0.253698
0.245326
0.250161
0.241117
0.231121
0.221374
0.211746
0.202175
0.192688
0.183401
0.174062
0.165324
0.156453
0.147255
0.137833
0.128742
0.119172
0.109532
0.0998937
0.0903002
0.0808147
0.0715338
0.0616542
0.0526985
0.0437619
0.034734
0.0254722
0.0164283
0.00750161
-0.00124681
-0.0106925
-0.0199204
-0.0300692
-0.0300692
0
0
0.466772
0.44588
0.426843
0.409502
0.39413
0.380654
0.369154
0.359741
0.352433
0.347019
0.343083
0.340044
0.337329
0.334545
0.331574
0.327989
0.323555
0.317804
0.314367
0.308304
0.30157
0.294462
0.286934
0.278887
0.270076
0.259796
0.245663
0.220647
0.276242
0.249189
0.234308
0.222822
0.2124
0.202377
0.192577
0.183045
0.173901
0.165526
0.157202
0.148195
0.138787
0.129303
0.119692
0.110024
0.100326
0.0906368
0.0809245
0.0711924
0.0626718
0.0536172
0.0445771
0.0357158
0.0257229
0.0169888
0.00811705
-0.000597764
-0.00959454
-0.0188069
-0.0289631
-0.0289631
0
0
0.466785
0.445775
0.426631
0.4093
0.393824
0.380207
0.368566
0.359035
0.351627
0.346131
0.342079
0.338939
0.336189
0.333425
0.330379
0.326883
0.323033
0.319497
0.311899
0.306012
0.299881
0.293188
0.285927
0.278052
0.269414
0.259691
0.248642
0.239069
0.251804
0.244143
0.233449
0.222708
0.212267
0.202051
0.191961
0.18207
0.172767
0.165007
0.158665
0.149893
0.140199
0.13033
0.120472
0.110651
0.100817
0.0910537
0.0813214
0.0717046
0.0627035
0.0541144
0.0451479
0.0360396
0.0266667
0.0177904
0.00848894
6.33534e-05
-0.00843622
-0.0172249
-0.0271316
-0.0271316
0
0
0.466867
0.445698
0.426525
0.409219
0.393712
0.37991
0.368138
0.358531
0.351082
0.345557
0.341367
0.338101
0.335291
0.332527
0.329484
0.326002
0.322087
0.317735
0.311672
0.305567
0.299266
0.292587
0.28545
0.277818
0.269677
0.261111
0.252585
0.246166
0.244613
0.238843
0.230477
0.221023
0.211153
0.201086
0.190749
0.180118
0.169374
0.160551
0.163627
0.153755
0.142634
0.131885
0.121512
0.111405
0.101374
0.0915455
0.0817845
0.0720753
0.0626386
0.0546469
0.0455731
0.0363896
0.0275001
0.0195824
0.00766907
0.000471854
-0.00722671
-0.014934
-0.0235965
-0.0235965
0
0
0.466595
0.445833
0.426662
0.409342
0.393914
0.372933
0.367677
0.358129
0.35074
0.345303
0.340852
0.337416
0.334556
0.331841
0.328825
0.325297
0.321221
0.316621
0.311212
0.305324
0.299059
0.292418
0.285393
0.278005
0.270343
0.262662
0.270063
0.248352
0.24319
0.236409
0.228268
0.219294
0.209812
0.199915
0.18934
0.177551
0.162277
0.13479
0.189344
0.161715
0.145895
0.13358
0.122514
0.112019
0.101993
0.0920898
0.0823271
0.0725772
0.0626565
0.0551762
0.0456271
0.0364006
0.0275594
0.018865
0.00890813
-0.0136793
-0.0062556
-0.0122652
-0.0160104
0
0
0
0.466677
0.445112
0.426487
0.409349
0.394077
0.379671
0.367619
0.357951
0.350619
0.345461
0.340363
0.336796
0.333954
0.331406
0.328443
0.324832
0.32059
0.316052
0.310894
0.305175
0.299005
0.292448
0.28554
0.278335
0.27094
0.26354
0.256155
0.248462
0.243049
0.235262
0.226794
0.217956
0.208709
0.194637
0.18873
0.177601
0.165275
0.154292
0.166201
0.14594
0.14527
0.133824
0.122881
0.112402
0.102325
0.0924986
0.0829513
0.0738185
0.0651383
0.0533898
0.0445694
0.0359186
0.0272613
0.0186069
0.00992388
0.00194346
-0.00606291
-0.013971
-0.0229328
-0.0229328
0
0
0.46671
0.445694
0.426285
0.409354
0.394351
0.379262
0.367353
0.3578
0.350515
0.345856
0.339694
0.336446
0.333653
0.331414
0.328478
0.324698
0.320182
0.315953
0.310877
0.305193
0.299072
0.29259
0.285771
0.278662
0.271351
0.264082
0.258029
0.251593
0.241669
0.233594
0.22547
0.216999
0.208239
0.199175
0.189506
0.179505
0.169788
0.162198
0.159269
0.152415
0.142984
0.132768
0.12243
0.112279
0.102362
0.0926415
0.0831494
0.0738755
0.0645294
0.054115
0.0446949
0.0357595
0.0270346
0.018437
0.00991878
0.0015499
-0.00706646
-0.0162242
-0.0265356
-0.0265356
0
0
0.466731
0.445772
0.426742
0.408662
0.392113
0.379605
0.367844
0.357927
0.349963
0.343043
0.341129
0.33777
0.334079
0.340638
0.329165
0.325112
0.320164
0.316405
0.311085
0.305305
0.299227
0.292828
0.286069
0.278967
0.271453
0.262999
0.260589
0.251641
0.242423
0.233723
0.225203
0.216693
0.208223
0.199635
0.190598
0.181438
0.172646
0.164821
0.157736
0.149892
0.141032
0.131532
0.121582
0.111805
0.102133
0.092515
0.0830304
0.073632
0.0641496
0.0543983
0.0448524
0.0356745
0.0268038
0.0181541
0.0094767
0.000808846
-0.00817459
-0.0178113
-0.0282935
-0.0282935
0
0
0.46673
0.445742
0.426527
0.408735
0.392674
0.379256
0.367556
0.357766
0.350012
0.344305
0.341041
0.338123
0.366836
0.334237
0.330457
0.326231
0.322277
0.316044
0.310768
0.305301
0.299457
0.293223
0.286507
0.279449
0.272112
0.264619
0.258847
0.251112
0.242586
0.233891
0.225158
0.21651
0.208288
0.200568
0.191901
0.183091
0.174338
0.165887
0.15751
0.148925
0.140017
0.130967
0.120457
0.111153
0.101705
0.0921766
0.082752
0.073372
0.0639636
0.0543902
0.0447109
0.0354013
0.0264019
0.0176705
0.00887956
0.00013931
-0.00900213
-0.018924
-0.0293946
-0.0293946
0
0
0.466727
0.445725
0.426473
0.408892
0.393119
0.379378
0.367458
0.357653
0.350034
0.345718
0.341991
0.339334
0.338078
0.332495
0.329299
0.325896
0.321866
0.316745
0.311451
0.305929
0.300118
0.293976
0.287138
0.280079
0.272907
0.265692
0.258613
0.250851
0.242543
0.233867
0.22489
0.215731
0.207142
0.20276
0.19361
0.184893
0.175678
0.166615
0.157637
0.148618
0.13947
0.130111
0.120223
0.11061
0.0903047
0.0916596
0.0823917
0.0731008
0.0638266
0.0542628
0.0379479
0.0348974
0.0257777
-0.00102887
0.00820118
-0.000314655
-0.00946398
-0.01985
-0.0302801
-0.0302801
0
0
0.466731
0.44574
0.426527
0.409089
0.393505
0.379786
0.367378
0.357454
0.34875
0.349081
0.343338
0.340067
0.337606
0.333845
0.330364
0.326692
0.322103
0.317388
0.312268
0.306786
0.301029
0.295064
0.28781
0.280761
0.273696
0.26648
0.259022
0.248549
0.242682
0.233914
0.224475
0.213738
0.198502
0.212261
0.195621
0.188007
0.177022
0.167257
0.157856
0.148561
0.139211
0.129625
0.119955
0.110418
0.101034
0.0915185
0.0820971
0.0727675
0.063629
0.0543201
0.043553
0.0347027
0.0259277
0.0173148
0.00832449
-0.000416916
-0.00947106
-0.0207593
-0.0309641
-0.0309641
0
0
0.466738
0.445771
0.426614
0.409305
0.39399
0.38111
0.366664
0.357813
0.350383
0.346921
0.343218
0.340242
0.337626
0.334685
0.331595
0.328586
0.322068
0.318094
0.313156
0.3077
0.301938
0.296232
0.28838
0.281621
0.274696
0.267394
0.259785
0.251584
0.243228
0.234466
0.224893
0.21506
0.205316
0.204464
0.19547
0.186846
0.177119
0.167436
0.157935
0.148554
0.139138
0.129293
0.119619
0.110119
0.100692
0.0912159
0.0817275
0.0722048
0.0518203
0.0542338
0.0428015
0.0347489
0.0258569
0.0169231
0.0079014
-0.000880271
-0.00937058
-0.0213882
-0.0309443
-0.0309443
0
0
0.466744
0.445793
0.426674
0.409427
0.394138
0.380869
0.368661
0.358955
0.351645
0.346839
0.343321
0.340599
0.338139
0.335516
0.332572
0.329177
0.324186
0.319449
0.314302
0.308666
0.302475
0.295338
0.290322
0.283451
0.27614
0.268452
0.260413
0.252493
0.244197
0.235956
0.22536
0.216935
0.208793
0.202282
0.194289
0.185679
0.176513
0.167146
0.157767
0.148468
0.13918
0.12889
0.119272
0.109852
0.100428
0.0909525
0.0814357
0.0718686
0.0621802
0.051928
0.0458066
0.0352526
0.0257297
0.0164332
0.00706506
-0.00260298
-0.0125365
-0.0183665
-0.0292578
-0.0292578
0
0
0.466743
0.445787
0.426681
0.409476
0.394239
0.381053
0.369998
0.359774
0.352424
0.347439
0.34402
0.341447
0.339129
0.336626
0.333736
0.330308
0.325944
0.321034
0.315663
0.309872
0.30375
0.296988
0.286934
0.284191
0.277079
0.269299
0.261239
0.25314
0.24486
0.23639
0.227121
0.218514
0.210244
0.202179
0.193793
0.185053
0.176003
0.166761
0.157438
0.148168
0.139141
0.128418
0.119131
0.109787
0.100315
0.0907886
0.0812391
0.0716699
0.0620859
0.0526586
0.0445459
0.035039
0.0255204
0.0161159
0.00675006
-0.00261699
-0.011777
-0.0196355
-0.0296571
-0.0296571
0
0
0.466724
0.445726
0.426602
0.409444
0.394283
0.381269
0.371045
0.360036
0.353222
0.348589
0.345308
0.342833
0.34057
0.33808
0.335189
0.331946
0.327604
0.322509
0.316966
0.311071
0.305039
0.298615
0.29207
0.28507
0.277814
0.269827
0.261839
0.253766
0.245515
0.237041
0.228322
0.219684
0.211127
0.202532
0.193787
0.18485
0.175725
0.166443
0.157006
0.147322
0.137249
0.129425
0.119777
0.110005
0.100314
0.090688
0.0811082
0.0715695
0.0620996
0.0528069
0.0438006
0.0345375
0.0251915
0.0158977
0.00672567
-0.00218683
-0.0118239
-0.0205249
-0.0304196
-0.0304196
0
0
0.466672
0.445549
0.426399
0.409331
0.394185
0.380809
0.368497
0.362014
0.35553
0.350383
0.34718
0.344639
0.342372
0.339826
0.336638
0.333698
0.32896
0.32362
0.318045
0.312135
0.30641
0.300091
0.293297
0.285841
0.239919
0.269939
0.262468
0.254588
0.246382
0.237931
0.229311
0.220613
0.211853
0.202988
0.193996
0.184874
0.175627
0.166266
0.156791
0.147201
0.137635
0.128806
0.119431
0.109809
0.100153
0.0905295
0.0809597
0.0714479
0.062003
0.0526535
0.0433822
0.0341112
0.0248537
0.0156674
0.00658225
-0.00243839
-0.0117323
-0.0209416
-0.0309312
-0.0309312
0
0
0.466569
0.445112
0.431237
0.409281
0.394292
0.381226
0.370142
0.362445
0.356439
0.351999
0.348849
0.346496
0.344404
0.34236
0.337171
0.334469
0.329076
0.323466
0.319029
0.313352
0.308044
0.301682
0.294846
0.28777
0.280616
0.272471
0.264269
0.255987
0.24757
0.239001
0.2303
0.221488
0.212562
0.203493
0.194299
0.185007
0.175635
0.166195
0.156709
0.147217
0.137787
0.128452
0.118983
0.109423
0.0998456
0.0902789
0.0807523
0.0712705
0.0618174
0.0524118
0.0430584
0.0337579
0.0245277
0.0154005
0.00633855
-0.00273518
-0.01189
-0.021226
-0.0304196
-0.0312327
0
0
0.46655
0.443867
0.425212
0.408848
0.394418
0.381939
0.371609
0.363707
0.357815
0.353633
0.350744
0.348569
0.346472
0.343737
0.33834
0.142459
0.327352
0.324842
0.320969
0.316348
0.30971
0.303227
0.29651
0.289559
0.281795
0.273806
0.265639
0.257296
0.248781
0.24011
0.231304
0.222375
0.213303
0.204032
0.194637
0.185181
0.175683
0.166151
0.156619
0.147136
0.1377
0.128113
0.118487
0.10893
0.0994377
0.0899442
0.0804881
0.0710604
0.0615946
0.0521496
0.0427616
0.0334361
0.024205
0.0151236
0.00606621
-0.00303874
-0.0122257
-0.0266886
-0.0316536
-0.0316536
0
0
0.468463
0.440824
0.424534
0.408971
0.395041
0.383035
0.373185
0.365556
0.359851
0.355883
0.353211
0.351218
0.349269
0.346872
0.343835
0.342429
0.336962
0.331295
0.325537
0.319545
0.312784
0.305804
0.298666
0.291535
0.283075
0.27515
0.267015
0.25861
0.250003
0.241227
0.232318
0.223293
0.214107
0.204584
0.194967
0.185354
0.175732
0.166074
0.156412
0.146851
0.137397
0.127523
0.117742
0.108242
0.0989105
0.0895153
0.0801798
0.0708716
0.06139
0.0519151
0.0425118
0.0331566
0.0238932
0.0148657
0.00106146
-0.00332027
-0.0123811
-0.0217185
-0.0351926
-0.0319048
0
0
0.466834
0.444267
0.426007
0.410117
0.396341
0.384584
0.375071
0.368068
0.362592
0.358845
0.356391
0.35458
0.352799
0.3507
0.348032
0.345239
0.340714
0.335221
0.329172
0.322686
0.315735
0.308396
0.300676
0.292387
0.285355
0.277178
0.268681
0.260022
0.251263
0.24235
0.233332
0.224244
0.215008
0.205091
0.195246
0.185523
0.175797
0.165975
0.155978
0.146181
0.136712
0.126348
0.116493
0.107223
0.0982277
0.0889602
0.079842
0.0708008
0.0612986
0.0518203
0.0424253
0.0330219
0.0236602
0.0148537
0.00570791
-0.00349795
-0.0126188
-0.0219296
-0.0318727
-0.0318727
0
0
0.466779
0.445798
0.427522
0.411658
0.393712
0.386436
0.376645
0.371776
0.366133
0.362577
0.360342
0.358683
0.356904
0.333425
0.351811
0.348468
0.343959
0.338503
0.33236
0.325692
0.318588
0.310982
0.303
0.294791
0.286886
0.27862
0.270063
0.261286
0.252518
0.243423
0.234293
0.22517
0.216038
0.205413
0.195491
0.18577
0.175989
0.166126
0.155112
0.144779
0.134906
0.124042
0.114573
0.105763
0.09733
0.0882543
0.0794991
0.0709812
0.0615408
0.0521567
0.0427715
0.0332598
0.0236146
0.0147776
0.00534107
-0.00389275
-0.0130082
-0.0223031
-0.0322135
-0.0322135
0
0
0.466945
0.446619
0.428775
0.413362
0.400305
0.389371
0.380586
0.374829
0.370191
0.367071
0.365128
0.363638
0.362045
0.360062
0.356921
0.352851
0.347857
0.342072
0.33566
0.328769
0.321507
0.31355
0.305295
0.296951
0.288602
0.280101
0.271414
0.262538
0.253546
0.244381
0.2351
0.225839
0.21691
0.205551
0.195976
0.186313
0.17633
0.165996
0.154826
0.142717
0.00886784
0.120543
0.112363
0.103677
0.0957275
0.0876625
0.0792031
0.0712519
0.0628132
0.0536387
0.043991
0.0342287
0.0245672
0.0139338
0.0046214
-0.00448714
-0.0135471
-0.0227926
-0.0326483
-0.0326483
0
0
0.467107
0.447231
0.429943
0.415191
0.40288
0.392849
0.385011
0.379308
0.375205