# vtk DataFile Version 2.0
FlowField
ASCII
DATASET STRUCTURED_GRID
DIMENSIONS 62 47 32 
POINTS 93248 double
0 0 0
0.01 0 0
0.02 0 0
0.03 0 0
0.04 0 0
0.05 0 0
0.06 0 0
0.07 0 0
0.08 0 0
0.09 0 0
0.1 0 0
0.11 0 0
0.12 0 0
0.13 0 0
0.14 0 0
0.15 0 0
0.16 0 0
0.17 0 0
0.18 0 0
0.19 0 0
0.2 0 0
0.21 0 0
0.22 0 0
0.23 0 0
0.24 0 0
0.25 0 0
0.26 0 0
0.27 0 0
0.28 0 0
0.29 0 0
0.3 0 0
0.31 0 0
0.32 0 0
0.33 0 0
0.34 0 0
0.35 0 0
0.36 0 0
0.37 0 0
0.38 0 0
0.39 0 0
0.4 0 0
0.41 0 0
0.42 0 0
0.43 0 0
0.44 0 0
0.45 0 0
0.46 0 0
0.47 0 0
0.48 0 0
0.49 0 0
0.5 0 0
0.51 0 0
0.52 0 0
0.53 0 0
0.54 0 0
0.55 0 0
0.56 0 0
0.57 0 0
0.58 0 0
0.59 0 0
0.6 0 0
0.61 0 0
0 0.01 0
0.01 0.01 0
0.02 0.01 0
0.03 0.01 0
0.04 0.01 0
0.05 0.01 0
0.06 0.01 0
0.07 0.01 0
0.08 0.01 0
0.09 0.01 0
0.1 0.01 0
0.11 0.01 0
0.12 0.01 0
0.13 0.01 0
0.14 0.01 0
0.15 0.01 0
0.16 0.01 0
0.17 0.01 0
0.18 0.01 0
0.19 0.01 0
0.2 0.01 0
0.21 0.01 0
0.22 0.01 0
0.23 0.01 0
0.24 0.01 0
0.25 0.01 0
0.26 0.01 0
0.27 0.01 0
0.28 0.01 0
0.29 0.01 0
0.3 0.01 0
0.31 0.01 0
0.32 0.01 0
0.33 0.01 0
0.34 0.01 0
0.35 0.01 0
0.36 0.01 0
0.37 0.01 0
0.38 0.01 0
0.39 0.01 0
0.4 0.01 0
0.41 0.01 0
0.42 0.01 0
0.43 0.01 0
0.44 0.01 0
0.45 0.01 0
0.46 0.01 0
0.47 0.01 0
0.48 0.01 0
0.49 0.01 0
0.5 0.01 0
0.51 0.01 0
0.52 0.01 0
0.53 0.01 0
0.54 0.01 0
0.55 0.01 0
0.56 0.01 0
0.57 0.01 0
0.58 0.01 0
0.59 0.01 0
0.6 0.01 0
0.61 0.01 0
0 0.02 0
0.01 0.02 0
0.02 0.02 0
0.03 0.02 0
0.04 0.02 0
0.05 0.02 0
0.06 0.02 0
0.07 0.02 0
0.08 0.02 0
0.09 0.02 0
0.1 0.02 0
0.11 0.02 0
0.12 0.02 0
0.13 0.02 0
0.14 0.02 0
0.15 0.02 0
0.16 0.02 0
0.17 0.02 0
0.18 0.02 0
0.19 0.02 0
0.2 0.02 0
0.21 0.02 0
0.22 0.02 0
0.23 0.02 0
0.24 0.02 0
0.25 0.02 0
0.26 0.02 0
0.27 0.02 0
0.28 0.02 0
0.29 0.02 0
0.3 0.02 0
0.31 0.02 0
0.32 0.02 0
0.33 0.02 0
0.34 0.02 0
0.35 0.02 0
0.36 0.02 0
0.37 0.02 0
0.38 0.02 0
0.39 0.02 0
0.4 0.02 0
0.41 0.02 0
0.42 0.02 0
0.43 0.02 0
0.44 0.02 0
0.45 0.02 0
0.46 0.02 0
0.47 0.02 0
0.48 0.02 0
0.49 0.02 0
0.5 0.02 0
0.51 0.02 0
0.52 0.02 0
0.53 0.02 0
0.54 0.02 0
0.55 0.02 0
0.56 0.02 0
0.57 0.02 0
0.58 0.02 0
0.59 0.02 0
0.6 0.02 0
0.61 0.02 0
0 0.03 0
0.01 0.03 0
0.02 0.03 0
0.03 0.03 0
0.04 0.03 0
0.05 0.03 0
0.06 0.03 0
0.07 0.03 0
0.08 0.03 0
0.09 0.03 0
0.1 0.03 0
0.11 0.03 0
0.12 0.03 0
0.13 0.03 0
0.14 0.03 0
0.15 0.03 0
0.16 0.03 0
0.17 0.03 0
0.18 0.03 0
0.19 0.03 0
0.2 0.03 0
0.21 0.03 0
0.22 0.03 0
0.23 0.03 0
0.24 0.03 0
0.25 0.03 0
0.26 0.03 0
0.27 0.03 0
0.28 0.03 0
0.29 0.03 0
0.3 0.03 0
0.31 0.03 0
0.32 0.03 0
0.33 0.03 0
0.34 0.03 0
0.35 0.03 0
0.36 0.03 0
0.37 0.03 0
0.38 0.03 0
0.39 0.03 0
0.4 0.03 0
0.41 0.03 0
0.42 0.03 0
0.43 0.03 0
0.44 0.03 0
0.45 0.03 0
0.46 0.03 0
0.47 0.03 0
0.48 0.03 0
0.49 0.03 0
0.5 0.03 0
0.51 0.03 0
0.52 0.03 0
0.53 0.03 0
0.54 0.03 0
0.55 0.03 0
0.56 0.03 0
0.57 0.03 0
0.58 0.03 0
0.59 0.03 0
0.6 0.03 0
0.61 0.03 0
0 0.04 0
0.01 0.04 0
0.02 0.04 0
0.03 0.04 0
0.04 0.04 0
0.05 0.04 0
0.06 0.04 0
0.07 0.04 0
0.08 0.04 0
0.09 0.04 0
0.1 0.04 0
0.11 0.04 0
0.12 0.04 0
0.13 0.04 0
0.14 0.04 0
0.15 0.04 0
0.16 0.04 0
0.17 0.04 0
0.18 0.04 0
0.19 0.04 0
0.2 0.04 0
0.21 0.04 0
0.22 0.04 0
0.23 0.04 0
0.24 0.04 0
0.25 0.04 0
0.26 0.04 0
0.27 0.04 0
0.28 0.04 0
0.29 0.04 0
0.3 0.04 0
0.31 0.04 0
0.32 0.04 0
0.33 0.04 0
0.34 0.04 0
0.35 0.04 0
0.36 0.04 0
0.37 0.04 0
0.38 0.04 0
0.39 0.04 0
0.4 0.04 0
0.41 0.04 0
0.42 0.04 0
0.43 0.04 0
0.44 0.04 0
0.45 0.04 0
0.46 0.04 0
0.47 0.04 0
0.48 0.04 0
0.49 0.04 0
0.5 0.04 0
0.51 0.04 0
0.52 0.04 0
0.53 0.04 0
0.54 0.04 0
0.55 0.04 0
0.56 0.04 0
0.57 0.04 0
0.58 0.04 0
0.59 0.04 0
0.6 0.04 0
0.61 0.04 0
0 0.05 0
0.01 0.05 0
0.02 0.05 0
0.03 0.05 0
0.04 0.05 0
0.05 0.05 0
0.06 0.05 0
0.07 0.05 0
0.08 0.05 0
0.09 0.05 0
0.1 0.05 0
0.11 0.05 0
0.12 0.05 0
0.13 0.05 0
0.14 0.05 0
0.15 0.05 0
0.16 0.05 0
0.17 0.05 0
0.18 0.05 0
0.19 0.05 0
0.2 0.05 0
0.21 0.05 0
0.22 0.05 0
0.23 0.05 0
0.24 0.05 0
0.25 0.05 0
0.26 0.05 0
0.27 0.05 0
0.28 0.05 0
0.29 0.05 0
0.3 0.05 0
0.31 0.05 0
0.32 0.05 0
0.33 0.05 0
0.34 0.05 0
0.35 0.05 0
0.36 0.05 0
0.37 0.05 0
0.38 0.05 0
0.39 0.05 0
0.4 0.05 0
0.41 0.05 0
0.42 0.05 0
0.43 0.05 0
0.44 0.05 0
0.45 0.05 0
0.46 0.05 0
0.47 0.05 0
0.48 0.05 0
0.49 0.05 0
0.5 0.05 0
0.51 0.05 0
0.52 0.05 0
0.53 0.05 0
0.54 0.05 0
0.55 0.05 0
0.56 0.05 0
0.57 0.05 0
0.58 0.05 0
0.59 0.05 0
0.6 0.05 0
0.61 0.05 0
0 0.06 0
0.01 0.06 0
0.02 0.06 0
0.03 0.06 0
0.04 0.06 0
0.05 0.06 0
0.06 0.06 0
0.07 0.06 0
0.08 0.06 0
0.09 0.06 0
0.1 0.06 0
0.11 0.06 0
0.12 0.06 0
0.13 0.06 0
0.14 0.06 0
0.15 0.06 0
0.16 0.06 0
0.17 0.06 0
0.18 0.06 0
0.19 0.06 0
0.2 0.06 0
0.21 0.06 0
0.22 0.06 0
0.23 0.06 0
0.24 0.06 0
0.25 0.06 0
0.26 0.06 0
0.27 0.06 0
0.28 0.06 0
0.29 0.06 0
0.3 0.06 0
0.31 0.06 0
0.32 0.06 0
0.33 0.06 0
0.34 0.06 0
0.35 0.06 0
0.36 0.06 0
0.37 0.06 0
0.38 0.06 0
0.39 0.06 0
0.4 0.06 0
0.41 0.06 0
0.42 0.06 0
0.43 0.06 0
0.44 0.06 0
0.45 0.06 0
0.46 0.06 0
0.47 0.06 0
0.48 0.06 0
0.49 0.06 0
0.5 0.06 0
0.51 0.06 0
0.52 0.06 0
0.53 0.06 0
0.54 0.06 0
0.55 0.06 0
0.56 0.06 0
0.57 0.06 0
0.58 0.06 0
0.59 0.06 0
0.6 0.06 0
0.61 0.06 0
0 0.07 0
0.01 0.07 0
0.02 0.07 0
0.03 0.07 0
0.04 0.07 0
0.05 0.07 0
0.06 0.07 0
0.07 0.07 0
0.08 0.07 0
0.09 0.07 0
0.1 0.07 0
0.11 0.07 0
0.12 0.07 0
0.13 0.07 0
0.14 0.07 0
0.15 0.07 0
0.16 0.07 0
0.17 0.07 0
0.18 0.07 0
0.19 0.07 0
0.2 0.07 0
0.21 0.07 0
0.22 0.07 0
0.23 0.07 0
0.24 0.07 0
0.25 0.07 0
0.26 0.07 0
0.27 0.07 0
0.28 0.07 0
0.29 0.07 0
0.3 0.07 0
0.31 0.07 0
0.32 0.07 0
0.33 0.07 0
0.34 0.07 0
0.35 0.07 0
0.36 0.07 0
0.37 0.07 0
0.38 0.07 0
0.39 0.07 0
0.4 0.07 0
0.41 0.07 0
0.42 0.07 0
0.43 0.07 0
0.44 0.07 0
0.45 0.07 0
0.46 0.07 0
0.47 0.07 0
0.48 0.07 0
0.49 0.07 0
0.5 0.07 0
0.51 0.07 0
0.52 0.07 0
0.53 0.07 0
0.54 0.07 0
0.55 0.07 0
0.56 0.07 0
0.57 0.07 0
0.58 0.07 0
0.59 0.07 0
0.6 0.07 0
0.61 0.07 0
0 0.08 0
0.01 0.08 0
0.02 0.08 0
0.03 0.08 0
0.04 0.08 0
0.05 0.08 0
0.06 0.08 0
0.07 0.08 0
0.08 0.08 0
0.09 0.08 0
0.1 0.08 0
0.11 0.08 0
0.12 0.08 0
0.13 0.08 0
0.14 0.08 0
0.15 0.08 0
0.16 0.08 0
0.17 0.08 0
0.18 0.08 0
0.19 0.08 0
0.2 0.08 0
0.21 0.08 0
0.22 0.08 0
0.23 0.08 0
0.24 0.08 0
0.25 0.08 0
0.26 0.08 0
0.27 0.08 0
0.28 0.08 0
0.29 0.08 0
0.3 0.08 0
0.31 0.08 0
0.32 0.08 0
0.33 0.08 0
0.34 0.08 0
0.35 0.08 0
0.36 0.08 0
0.37 0.08 0
0.38 0.08 0
0.39 0.08 0
0.4 0.08 0
0.41 0.08 0
0.42 0.08 0
0.43 0.08 0
0.44 0.08 0
0.45 0.08 0
0.46 0.08 0
0.47 0.08 0
0.48 0.08 0
0.49 0.08 0
0.5 0.08 0
0.51 0.08 0
0.52 0.08 0
0.53 0.08 0
0.54 0.08 0
0.55 0.08 0
0.56 0.08 0
0.57 0.08 0
0.58 0.08 0
0.59 0.08 0
0.6 0.08 0
0.61 0.08 0
0 0.09 0
0.01 0.09 0
0.02 0.09 0
0.03 0.09 0
0.04 0.09 0
0.05 0.09 0
0.06 0.09 0
0.07 0.09 0
0.08 0.09 0
0.09 0.09 0
0.1 0.09 0
0.11 0.09 0
0.12 0.09 0
0.13 0.09 0
0.14 0.09 0
0.15 0.09 0
0.16 0.09 0
0.17 0.09 0
0.18 0.09 0
0.19 0.09 0
0.2 0.09 0
0.21 0.09 0
0.22 0.09 0
0.23 0.09 0
0.24 0.09 0
0.25 0.09 0
0.26 0.09 0
0.27 0.09 0
0.28 0.09 0
0.29 0.09 0
0.3 0.09 0
0.31 0.09 0
0.32 0.09 0
0.33 0.09 0
0.34 0.09 0
0.35 0.09 0
0.36 0.09 0
0.37 0.09 0
0.38 0.09 0
0.39 0.09 0
0.4 0.09 0
0.41 0.09 0
0.42 0.09 0
0.43 0.09 0
0.44 0.09 0
0.45 0.09 0
0.46 0.09 0
0.47 0.09 0
0.48 0.09 0
0.49 0.09 0
0.5 0.09 0
0.51 0.09 0
0.52 0.09 0
0.53 0.09 0
0.54 0.09 0
0.55 0.09 0
0.56 0.09 0
0.57 0.09 0
0.58 0.09 0
0.59 0.09 0
0.6 0.09 0
0.61 0.09 0
0 0.1 0
0.01 0.1 0
0.02 0.1 0
0.03 0.1 0
0.04 0.1 0
0.05 0.1 0
0.06 0.1 0
0.07 0.1 0
0.08 0.1 0
0.09 0.1 0
0.1 0.1 0
0.11 0.1 0
0.12 0.1 0
0.13 0.1 0
0.14 0.1 0
0.15 0.1 0
0.16 0.1 0
0.17 0.1 0
0.18 0.1 0
0.19 0.1 0
0.2 0.1 0
0.21 0.1 0
0.22 0.1 0
0.23 0.1 0
0.24 0.1 0
0.25 0.1 0
0.26 0.1 0
0.27 0.1 0
0.28 0.1 0
0.29 0.1 0
0.3 0.1 0
0.31 0.1 0
0.32 0.1 0
0.33 0.1 0
0.34 0.1 0
0.35 0.1 0
0.36 0.1 0
0.37 0.1 0
0.38 0.1 0
0.39 0.1 0
0.4 0.1 0
0.41 0.1 0
0.42 0.1 0
0.43 0.1 0
0.44 0.1 0
0.45 0.1 0
0.46 0.1 0
0.47 0.1 0
0.48 0.1 0
0.49 0.1 0
0.5 0.1 0
0.51 0.1 0
0.52 0.1 0
0.53 0.1 0
0.54 0.1 0
0.55 0.1 0
0.56 0.1 0
0.57 0.1 0
0.58 0.1 0
0.59 0.1 0
0.6 0.1 0
0.61 0.1 0
0 0.11 0
0.01 0.11 0
0.02 0.11 0
0.03 0.11 0
0.04 0.11 0
0.05 0.11 0
0.06 0.11 0
0.07 0.11 0
0.08 0.11 0
0.09 0.11 0
0.1 0.11 0
0.11 0.11 0
0.12 0.11 0
0.13 0.11 0
0.14 0.11 0
0.15 0.11 0
0.16 0.11 0
0.17 0.11 0
0.18 0.11 0
0.19 0.11 0
0.2 0.11 0
0.21 0.11 0
0.22 0.11 0
0.23 0.11 0
0.24 0.11 0
0.25 0.11 0
0.26 0.11 0
0.27 0.11 0
0.28 0.11 0
0.29 0.11 0
0.3 0.11 0
0.31 0.11 0
0.32 0.11 0
0.33 0.11 0
0.34 0.11 0
0.35 0.11 0
0.36 0.11 0
0.37 0.11 0
0.38 0.11 0
0.39 0.11 0
0.4 0.11 0
0.41 0.11 0
0.42 0.11 0
0.43 0.11 0
0.44 0.11 0
0.45 0.11 0
0.46 0.11 0
0.47 0.11 0
0.48 0.11 0
0.49 0.11 0
0.5 0.11 0
0.51 0.11 0
0.52 0.11 0
0.53 0.11 0
0.54 0.11 0
0.55 0.11 0
0.56 0.11 0
0.57 0.11 0
0.58 0.11 0
0.59 0.11 0
0.6 0.11 0
0.61 0.11 0
0 0.12 0
0.01 0.12 0
0.02 0.12 0
0.03 0.12 0
0.04 0.12 0
0.05 0.12 0
0.06 0.12 0
0.07 0.12 0
0.08 0.12 0
0.09 0.12 0
0.1 0.12 0
0.11 0.12 0
0.12 0.12 0
0.13 0.12 0
0.14 0.12 0
0.15 0.12 0
0.16 0.12 0
0.17 0.12 0
0.18 0.12 0
0.19 0.12 0
0.2 0.12 0
0.21 0.12 0
0.22 0.12 0
0.23 0.12 0
0.24 0.12 0
0.25 0.12 0
0.26 0.12 0
0.27 0.12 0
0.28 0.12 0
0.29 0.12 0
0.3 0.12 0
0.31 0.12 0
0.32 0.12 0
0.33 0.12 0
0.34 0.12 0
0.35 0.12 0
0.36 0.12 0
0.37 0.12 0
0.38 0.12 0
0.39 0.12 0
0.4 0.12 0
0.41 0.12 0
0.42 0.12 0
0.43 0.12 0
0.44 0.12 0
0.45 0.12 0
0.46 0.12 0
0.47 0.12 0
0.48 0.12 0
0.49 0.12 0
0.5 0.12 0
0.51 0.12 0
0.52 0.12 0
0.53 0.12 0
0.54 0.12 0
0.55 0.12 0
0.56 0.12 0
0.57 0.12 0
0.58 0.12 0
0.59 0.12 0
0.6 0.12 0
0.61 0.12 0
0 0.13 0
0.01 0.13 0
0.02 0.13 0
0.03 0.13 0
0.04 0.13 0
0.05 0.13 0
0.06 0.13 0
0.07 0.13 0
0.08 0.13 0
0.09 0.13 0
0.1 0.13 0
0.11 0.13 0
0.12 0.13 0
0.13 0.13 0
0.14 0.13 0
0.15 0.13 0
0.16 0.13 0
0.17 0.13 0
0.18 0.13 0
0.19 0.13 0
0.2 0.13 0
0.21 0.13 0
0.22 0.13 0
0.23 0.13 0
0.24 0.13 0
0.25 0.13 0
0.26 0.13 0
0.27 0.13 0
0.28 0.13 0
0.29 0.13 0
0.3 0.13 0
0.31 0.13 0
0.32 0.13 0
0.33 0.13 0
0.34 0.13 0
0.35 0.13 0
0.36 0.13 0
0.37 0.13 0
0.38 0.13 0
0.39 0.13 0
0.4 0.13 0
0.41 0.13 0
0.42 0.13 0
0.43 0.13 0
0.44 0.13 0
0.45 0.13 0
0.46 0.13 0
0.47 0.13 0
0.48 0.13 0
[...]
POINT_DATA 93248

SCALARS w double
LOOKUP_TABLE default
0
0
0
0
0
0
0
0
0
0
0
0
0
-0.0738236
0
0
0
0
0
0
0
0
0
0
0
0
-0.167245
0
0
0
0
0
-0.165014
0
0
0
0
0
0
0
0
0
0
0
0
0
-0.147655
0
0
0
0
0
0
0
0
0
0
0
0
0
0
0
0
-0.0232179
-0.0449982
-0.0603207
-0.0695175
-0.0745012
-0.0780755
-0.0807867
-0.0827318
-0.0839836
-0.0844205
-0.0838511
-0.0823451
-0.0825313
-0.0833
-0.0840457
-0.0846153
-0.0852084
-0.0854246
-0.0843804
-0.0785764
-0.0787347
-0.081142
-0.0804053
-0.0797585
-0.0793235
-0.0789603
-0.0786061
-0.0782423
-0.0778476
-0.0773545
-0.076614
-0.0756033
-0.0757993
-0.0758738
-0.0750445
-0.0738325
-0.0749631
-0.0768073
-0.0803572
-0.0728973
-0.0749261
-0.0775157
-0.0793168
-0.0821166
-0.171406
-0.0772054
-0.0762749
-0.076304
-0.077322
-0.0783925
-0.0798279
-0.0796281
-0.08195
-0.171569
-0.080418
-0.0753704
-0.0746453
-0.0748674
-0.0735696
-0.0705399
0
0
-0.0268656
-0.0623415
-0.0840124
-0.100441
-0.112639
-0.125954
-0.136834
-0.145342
-0.151748
-0.156189
-0.158266
-0.157582
-0.158952
-0.159933
-0.160595
-0.161075
-0.161954
-0.162683
-0.163343
-0.152228
-0.153748
-0.197007
-0.155131
-0.152887
-0.15177
-0.150958
-0.150239
-0.149552
-0.148871
-0.148159
-0.147258
-0.14567
-0.146264
-0.146259
-0.145058
-0.145289
-0.144421
-0.144676
-0.148521
-0.146215
-0.147814
-0.149171
-0.150709
-0.154048
-0.158542
-0.155043
-0.150053
-0.148601
-0.148638
-0.149946
-0.172274
-0.152052
-0.153939
-0.157633
-0.153513
-0.150746
-0.145712
-0.143518
-0.138876
-0.131309
0
0
-0.0266515
-0.06224
-0.0862459
-0.105234
-0.0745012
-0.13476
-0.150055
-0.162337
-0.17255
-0.181089
-0.186904
-0.192926
-0.193393
-0.193137
-0.192597
-0.192486
-0.193292
-0.193253
-0.193946
-0.192668
-0.189059
-0.188488
-0.185571
-0.183457
-0.181987
-0.180858
-0.179903
-0.179049
-0.178288
-0.177695
-0.177571
-0.178653
-0.186184
-0.176902
-0.173518
-0.173302
-0.173036
-0.173278
-0.175084
-0.175296
-0.176329
-0.177771
-0.177865
-0.180143
-0.182455
-0.180205
-0.178239
-0.177004
-0.17744
-0.178
-0.179428
-0.179447
-0.180357
-0.181384
-0.180883
-0.18019
-0.178778
-0.173202
-0.166052
-0.156193
0
0
-0.0261416
-0.0609835
-0.0617692
-0.106178
-0.123039
-0.139713
-0.154042
-0.166481
-0.177347
-0.186728
-0.19417
-0.200093
-0.202936
-0.203705
-0.202919
-0.202194
-0.200456
-0.200746
-0.201414
-0.199937
-0.198135
-0.196491
-0.194609
-0.192897
-0.191444
-0.190212
-0.189141
-0.188195
-0.187376
-0.18673
-0.186359
-0.186259
-0.185567
-0.184598
-0.182895
-0.18222
-0.181933
-0.181748
-0.1827
-0.183294
-0.184017
-0.184818
-0.185108
-0.18605
-0.186992
-0.186747
-0.185561
-0.184836
-0.184985
-0.185286
-0.185778
-0.186174
-0.186683
-0.187173
-0.187509
-0.187368
-0.18596
-0.181603
-0.174229
-0.163636
0
0
-0.0259973
-0.0610581
-0.0866922
-0.108516
-0.126405
-0.142183
-0.155877
-0.167911
-0.178544
-0.187718
-0.195219
-0.200867
-0.204265
-0.205309
-0.185388
-0.203771
-0.202787
-0.201924
-0.201394
-0.200075
-0.198573
-0.197007
-0.195438
-0.193947
-0.192579
-0.191357
-0.190256
-0.189267
-0.188396
-0.187647
-0.186982
-0.186184
-0.184835
-0.184367
-0.183827
-0.183394
-0.183107
-0.182993
-0.183192
-0.183519
-0.183917
-0.184306
-0.184542
-0.184865
-0.185307
-0.186216
-0.184787
-0.18441
-0.184539
-0.1848
-0.185127
-0.185518
-0.185964
-0.186423
-0.186823
-0.186718
-0.185276
-0.181305
-0.173926
-0.163472
0
0
-0.0259398
-0.0610878
-0.0876733
-0.109445
-0.127726
-0.143614
-0.156911
-0.168645
-0.179071
-0.187962
-0.195111
-0.200376
-0.203713
-0.204977
-0.204136
-0.203236
-0.202259
-0.196315
-0.199904
-0.198619
-0.197072
-0.195508
-0.193995
-0.192558
-0.191214
-0.190029
-0.188929
-0.187919
-0.18702
-0.186229
-0.185485
-0.184532
-0.182542
-0.182868
-0.182736
-0.182365
-0.181999
-0.181748
-0.181658
-0.181702
-0.181824
-0.181954
-0.181971
-0.181866
-0.181327
-0.179818
-0.180798
-0.181508
-0.181967
-0.182315
-0.182651
-0.183057
-0.183558
-0.184062
-0.184418
-0.184191
-0.182392
-0.177399
-0.168055
-0.159396
0
0
-0.0258829
-0.0609916
-0.0877497
-0.109616
-0.128154
-0.144633
-0.157156
-0.169145
-0.179498
-0.188081
-0.194773
-0.199486
-0.202718
-0.20397
-0.203338
-0.201268
-0.200885
-0.200064
-0.198855
-0.197249
-0.195518
-0.193872
-0.192328
-0.190859
-0.189462
-0.188362
-0.187258
-0.186229
-0.185331
-0.184592
-0.184039
-0.183929
-0.185178
-0.183515
-0.182159
-0.181217
-0.180568
-0.180134
-0.179867
-0.179728
-0.179675
-0.179662
-0.179496
-0.179309
-0.178907
-0.178358
-0.178675
-0.17915
-0.179551
-0.179875
-0.180196
-0.180626
-0.181249
-0.181829
-0.182184
-0.181872
-0.179541
-0.171389
-0.0735696
-0.153822
0
0
-0.0258174
-0.060826
-0.0875487
-0.109398
-0.127911
-0.144036
-0.157467
-0.169349
-0.179547
-0.187858
-0.193989
-0.197439
-0.201262
-0.202635
-0.2017
-0.197662
-0.180512
-0.199277
-0.197932
-0.196135
-0.194165
-0.192479
-0.190911
-0.189378
-0.187823
-0.186942
-0.185783
-0.184722
-0.183852
-0.183202
-0.182721
-0.182467
-0.182487
-0.181641
-0.180639
-0.179774
-0.179093
-0.178595
-0.178251
-0.178024
-0.177876
-0.177765
-0.177616
-0.177463
-0.177282
-0.177151
-0.17725
-0.177474
-0.177713
-0.177931
-0.17817
-0.178578
-0.179452
-0.180154
-0.180601
-0.180582
-0.179411
-0.175494
-0.163942
-0.156083
0
0
-0.0257499
-0.0606394
-0.0872684
-0.10904
-0.127474
-0.143445
-0.157227
-0.169196
-0.179347
-0.187426
-0.192676
-0.157582
-0.198598
-0.201196
-0.200988
-0.198933
-0.198421
-0.197998
-0.196715
-0.194967
-0.192884
-0.19135
-0.189793
-0.188203
-0.186581
-0.185471
-0.184364
-0.183359
-0.182574
-0.182089
-0.181623
-0.181094
-0.180503
-0.17975
-0.178974
-0.17828
-0.177662
-0.177185
-0.176842
-0.176598
-0.176422
-0.176289
-0.176175
-0.176085
-0.176024
-0.176019
-0.176086
-0.176205
-0.176334
-0.17644
-0.176534
-0.175564
-0.178179
-0.179001
-0.179512
-0.179656
-0.178866
-0.17581
-0.16817
-0.156765
0
0
-0.025687
-0.0604611
-0.0869884
-0.108667
-0.127031
-0.142951
-0.156834
-0.168885
-0.179081
-0.18721
-0.192892
-0.19554
-0.199162
-0.200897
-0.200989
-0.199823
-0.198596
-0.197247
-0.195662
-0.194017
-0.192708
-0.190808
-0.188972
-0.187189
-0.182702
-0.184174
-0.183071
-0.182076
-0.181365
-0.181156
-0.180738
-0.179897
-0.178971
-0.178144
-0.177453
-0.176904
-0.176332
-0.175896
-0.1756
-0.175384
-0.17522
-0.175097
-0.175022
-0.174984
-0.174984
-0.175024
-0.1751
-0.175199
-0.175292
-0.175341
-0.175366
-0.175564
-0.177477
-0.178187
-0.17869
-0.178904
-0.178255
-0.175514
-0.168724
-0.156941
0
0
-0.0256327
-0.0603069
-0.0867453
-0.108334
-0.126658
-0.142559
-0.156474
-0.168579
-0.178849
-0.187124
-0.19324
-0.197258
-0.199894
-0.201108
-0.20135
-0.200156
-0.198458
-0.196613
-0.194733
-0.19293
-0.191354
-0.189646
-0.187927
-0.186223
-0.184509
-0.183122
-0.181835
-0.180724
-0.17988
-0.17949
-0.179884
-0.17832
-0.177227
-0.1765
-0.175963
-0.175539
-0.175176
-0.174721
-0.174489
-0.174318
-0.174174
-0.174057
-0.174034
-0.174052
-0.174098
-0.174172
-0.174276
-0.174404
-0.174535
-0.174621
-0.174764
-0.175217
-0.17646
-0.177308
-0.17793
-0.178237
-0.177686
-0.17508
-0.168499
-0.156798
0
0
-0.0255888
-0.0601846
-0.0865669
-0.108174
-0.126426
-0.142285
-0.156196
-0.16833
-0.178657
-0.187037
-0.193345
-0.19761
-0.200051
-0.201054
-0.201582
-0.199808
-0.197786
-0.19574
-0.193703
-0.191831
-0.190151
-0.188525
-0.186907
-0.185278
-0.183639
-0.182037
-0.180483
-0.179075
-0.177705
-0.176483
-0.174135
-0.174482
-0.174694
-0.17465
-0.174469
-0.174234
-0.173983
-0.173697
-0.173501
-0.173351
-0.173192
-0.172974
-0.173102
-0.173218
-0.173323
-0.173439
-0.173585
-0.173777
-0.174004
-0.174141
-0.174378
-0.174879
-0.175711
-0.176523
-0.177228
-0.177636
-0.177187
-0.174668
-0.168178
-0.15654
0
0
-0.0255539
-0.0600879
-0.0864231
-0.108005
-0.126206
-0.14204
-0.155953
-0.16811
-0.178478
-0.186914
-0.193277
-0.197537
-0.199804
-0.200223
-0.198458
-0.197655
-0.196333
-0.194568
-0.192502
-0.190716
-0.189136
-0.187611
-0.186057
-0.184432
-0.182702
-0.180828
-0.178794
-0.176634
-0.173653
-0.173026
-0.17257
-0.172781
-0.173057
-0.173196
-0.173184
-0.173067
-0.172908
-0.172686
-0.172528
-0.172397
-0.172159
-0.167071
-0.172115
-0.172439
-0.172628
-0.172792
-0.172979
-0.173243
-0.173611
-0.173716
-0.173981
-0.17449
-0.175196
-0.175938
-0.176665
-0.17715
-0.17681
-0.174332
-0.167889
-0.15626
0
0
-0.0255267
-0.060015
-0.0863283
-0.109398
-0.126076
-0.141845
-0.155748
-0.167916
-0.178308
-0.18677
-0.193146
-0.197376
-0.199569
-0.19997
-0.198922
-0.197586
-0.195942
-0.19394
-0.191417
-0.189827
-0.188466
-0.187042
-0.185493
-0.183786
-0.181854
-0.179531
-0.176482
-0.171881
-0.160626
-0.165172
-0.168538
-0.170416
-0.171418
-0.171904
-0.172058
-0.172017
-0.172903
-0.171611
-0.171419
-0.171341
-0.171273
-0.171131
-0.171465
-0.17176
-0.171999
-0.172201
-0.172397
-0.172658
-0.173165
-0.173133
-0.173476
-0.174096
-0.174912
-0.175565
-0.176281
-0.176818
-0.177399
-0.174097
-0.167652
-0.155985
0
0
-0.025505
-0.059955
-0.0862016
-0.1077
-0.125838
-0.141643
-0.15556
-0.167742
-0.178149
-0.186625
-0.193004
-0.197223
-0.199408
-0.199884
-0.199127
-0.197714
-0.195937
-0.193818
-0.19069
-0.189737
-0.188508
-0.186994
-0.185296
-0.183416
-0.18123
-0.178362
-0.1736
-0.161431
0.0690038
-0.149148
-0.162757
-0.167843
-0.16998
-0.170865
-0.17111
-0.170981
-0.170641
-0.170114
-0.169659
-0.169706
-0.169982
-0.170317
-0.170714
-0.171088
-0.171406
-0.171644
-0.171796
-0.171785
-0.171474
-0.172092
-0.17284
-0.173762
-0.178179
-0.175421
-0.176103
-0.176561
-0.176298
-0.173872
-0.167459
-0.155712
0
0
-0.0254905
-0.0599318
-0.0861141
-0.107505
-0.125645
-0.141465
-0.155402
-0.167598
-0.178014
-0.186502
-0.192901
-0.197125
-0.199307
-0.199803
-0.199108
-0.19772
-0.196055
-0.1946
-0.194548
-0.191961
-0.189531
-0.187376
-0.185347
-0.183282
-0.18098
-0.17809
-0.173849
-0.166542
-0.153814
-0.160254
-0.165482
-0.168445
-0.16992
-0.170491
-0.170474
-0.16999
-0.169051
-0.167555
-0.165499
-0.166288
-0.167631
-0.168787
-0.16967
-0.170331
-0.170828
-0.17115
-0.171346
-0.171344
-0.171331
-0.171554
-0.172344
-0.173327
-0.174417
-0.175265
-0.176348
-0.176473
-0.176099
-0.173711
-0.167309
-0.155402
0
0
-0.0254679
-0.0599377
-0.0860032
-0.107318
-0.125449
-0.141326
-0.155306
-0.167506
-0.17792
-0.186425
-0.19288
-0.197109
-0.199251
-0.199692
-0.198958
-0.197556
-0.195896
-0.194323
-0.193087
-0.191209
-0.189173
-0.187169
-0.185199
-0.183189
-0.181024
-0.178542
-0.175533
-0.171635
-0.168052
-0.168247
-0.169341
-0.170215
-0.170623
-0.170569
-0.170081
-0.169006
-0.166901
-0.162359
-0.151906
-0.158477
-0.1636
-0.166645
-0.168438
-0.169546
-0.17029
-0.170727
-0.171027
-0.171194
-0.171178
-0.171048
-0.172027
-0.173054
-0.174069
-0.175386
-0.187509
-0.176615
-0.176066
-0.17361
-0.167171
-0.155021
0
0
-0.0253678
-0.0594505
-0.0855801
-0.106956
-0.125197
-0.142951
-0.155368
-0.167489
-0.177856
-0.186386
-0.192984
-0.197179
-0.19919
-0.19948
-0.19864
-0.197193
-0.195484
-0.193721
-0.192043
-0.190313
-0.188548
-0.186772
-0.184978
-0.183137
-0.181212
-0.179197
-0.177175
-0.174394
-0.172286
-0.171802
-0.171781
-0.171695
-0.171386
-0.170797
-0.169885
-0.168192
-0.164485
-0.152906
0.0718285
-0.143882
-0.15893
-0.164783
-0.167502
-0.168941
-0.169756
-0.170379
-0.170831
-0.171171
-0.171316
-0.170867
-0.172215
-0.173097
-0.173898
-0.174901
-0.176147
-0.175963
-0.175982
-0.173443
-0.166989
-0.153827
0
0
-0.0253519
-0.0594759
-0.0855118
-0.106766
-0.125034
-0.141324
-0.155297
-0.167366
-0.177693
-0.18628
-0.193223
-0.197212
-0.198953
-0.198992
-0.19803
-0.196599
-0.194909
-0.193046
-0.191339
-0.189724
-0.188126
-0.186509
-0.184861
-0.183169
-0.181426
-0.179653
-0.177893
-0.176069
-0.173871
-0.173766
-0.173415
-0.172813
-0.172032
-0.17107
-0.169977
-0.16818
-0.164995
-0.158693
-0.146806
-0.154786
-0.161649
-0.165438
-0.167585
-0.168852
-0.169654
-0.170262
-0.17079
-0.171394
-0.172379
-0.174209
-0.173546
-0.173443
-0.17379
-0.174425
-0.175167
-0.175594
-0.175464
-0.173072
-0.16658
-0.154397
0
0
-0.0253579
-0.0595197
-0.0855033
-0.106581
-0.124927
-0.141557
-0.155117
-0.166997
-0.177251
-0.185836
-0.193247
-0.196633
-0.198171
-0.197991
-0.197031
-0.195844
-0.19433
-0.192386
-0.190893
-0.189477
-0.188007
-0.186482
-0.184914
-0.183299
-0.181622
-0.179858
-0.177931
-0.17743
-0.17813
-0.176483
-0.174977
-0.173688
-0.172514
-0.171378
-0.170223
-0.168769
-0.166818
-0.164339
-0.162096
-0.163274
-0.165367
-0.167071
-0.168305
-0.169135
-0.169741
-0.170264
-0.170763
-0.171344
-0.17213
-0.173047
-0.173188
-0.173293
-0.173586
-0.174115
-0.174824
-0.175376
-0.175161
-0.172842
-0.166445
-0.154596
0
0
-0.0253665
-0.0595598
-0.085612
-0.107115
-0.124897
-0.139607
-0.153685
-0.166019
-0.17642
-0.184539
-0.189294
-0.194098
-0.196754
-0.196572
-0.195936
-0.195359
-0.1942
-0.192143
-0.191081
-0.189759
-0.18826
-0.186702
-0.185135
-0.183524
-0.181795
-0.179635
-0.159292
-0.176966
-0.177211
-0.176337
-0.175099
-0.1738
-0.172529
-0.17134
-0.170332
-0.169329
-0.168307
-0.167417
-0.167006
-0.167219
-0.167813
-0.168512
-0.169222
-0.169577
-0.16991
-0.170325
-0.170723
-0.171167
-0.171705
-0.172274
-0.172681
-0.17299
-0.173321
-0.173856
-0.174681
-0.175282
-0.175075
-0.172798
-0.166422
-0.154721
0
0
-0.0253686
-0.0595676
-0.0856017
-0.106919
-0.124812
-0.140123
-0.15387
-0.165949
-0.17617
-0.184253
-0.190166
-0.194599
-0.197312
-0.195742
-0.196415
-0.196167
-0.195303
-0.194828
-0.192719
-0.190647
-0.188762
-0.187044
-0.185455
-0.183838
-0.18213
-0.180246
-0.178007
-0.177514
-0.176943
-0.176019
-0.174838
-0.173475
-0.171962
-0.170362
-0.169734
-0.169274
-0.168952
-0.168737
-0.168712
-0.168834
-0.169091
-0.169529
-0.174052
-0.170063
-0.170051
-0.170428
-0.170697
-0.171003
-0.171417
-0.17194
-0.172425
-0.172792
-0.173059
-0.173556
-0.174637
-0.17527
-0.175117
-0.172899
-0.166446
-0.154751
0
0
-0.0253682
-0.0595667
-0.085585
-0.106846
-0.124834
-0.140454
-0.154245
-0.166147
-0.176108
-0.183724
-0.190509
-0.195277
-0.198474
-0.201394
-0.200045
-0.198196
-0.196383
-0.194714
-0.192733
-0.190745
-0.188887
-0.18722
-0.185771
-0.184166
-0.182483
-0.180826
-0.179308
-0.178171
-0.177138
-0.175977
-0.174618
-0.172899
-0.17041
-0.166104
-0.167409
-0.16799
-0.168711
-0.169101
-0.169325
-0.169506
-0.169708
-0.169976
-0.170299
-0.170165
-0.170021
-0.170562
-0.170668
-0.170853
-0.171218
-0.171841
-0.172417
-0.172741
-0.172822
-0.173161
-0.17466
-0.175237
-0.175185
-0.173131
-0.166472
-0.154681
0
0
-0.0253693
-0.0595717
-0.0855913
-0.106862
-0.124933
-0.140756
-0.154913
-0.166501
-0.175833
-0.160499
-0.189922
-0.195367
-0.198504
-0.200114
-0.199672
-0.198284
-0.196625
-0.194578
-0.192543
-0.190607
-0.188814
-0.187259
-0.18611
-0.184395
-0.182642
-0.181059
-0.179679
-0.178459
-0.17735
-0.176058
-0.174537
-0.172265
-0.167347
-0.0758738
-0.1623
-0.153908
-0.16793
-0.169103
-0.169589
-0.169844
-0.170054
-0.17026
-0.170336
-0.170269
-0.170211
-0.170395
-0.170496
-0.17064
-0.170971
-0.171848
-0.172804
-0.172503
-0.172625
-0.173141
-0.174175
-0.174903
-0.175072
-0.173434
-0.16638
-0.154463
0
0
-0.0253731
-0.0595854
-0.0856156
-0.106911
-0.125066
-0.141193
-0.16811
-0.167466
-0.17677
-0.183844
-0.190873
-0.195707
-0.198433
-0.199444
-0.199099
-0.198063
-0.199751
-0.194608
-0.192436
-0.190469
-0.188664
-0.187099
-0.186251
-0.184131
-0.182369
-0.180928
-0.17969
-0.178618
-0.177429
-0.176229
-0.17496
-0.172769
-0.169411
-0.16383
-0.166062
-0.167327
-0.168767
-0.169539
-0.16991
-0.170122
-0.170332
-0.170579
-0.170519
-0.170366
-0.170267
-0.170274
-0.170313
-0.170373
-0.170516
-0.171522
-0.172851
-0.171897
-0.172284
-0.172923
-0.173696
-0.17429
-0.174353
-0.173256
-0.1658
-0.15406
0
0
-0.0253799
-0.0596072
-0.0856479
-0.106948
-0.125094
-0.141093
-0.15562
-0.16757
-0.177529
-0.185524
-0.191798
-0.19608
-0.198444
-0.199185
-0.198741
-0.19762
-0.196295
-0.194271
-0.192256
-0.190323
-0.18843
-0.186402
-0.18349
-0.182558
-0.181607
-0.180621
-0.179567
-0.178367
-0.177426
-0.176597
-0.182721
-0.174027
-0.171939
-0.170181
-0.169867
-0.169921
-0.170122
-0.170258
-0.17032
-0.170377
-0.170552
-0.170937
-0.170639
-0.170344
-0.170195
-0.170155
-0.170163
-0.17017
-0.170116
-0.169878
-0.16866
-0.170979
-0.1719
-0.172616
-0.173242
-0.173437
-0.172277
-0.168222
-0.164016
-0.153577
0
0
-0.0253918
-0.0596429
-0.0856936
-0.10698
-0.125078
-0.140946
-0.155105
-0.167801
-0.177911
-0.185923
-0.191983
-0.196074
-0.198304
-0.198957
-0.198436
-0.197189
-0.195654
-0.193912
-0.192096
-0.190252
-0.188382
-0.186907
-0.184389
-0.18303
-0.181777
-0.180805
-0.179806
-0.178737
-0.177737
-0.176828
-0.176079
-0.174673
-0.173389
-0.172415
-0.171782
-0.171372
-0.171084
-0.170855
-0.170658
-0.17051
-0.170515
-0.171041
-0.170357
-0.170071
-0.170003
-0.170015
-0.170049
-0.170075
-0.170057
-0.169954
-0.169844
-0.170805
-0.171643
-0.172377
-0.173012
-0.173298
-0.172599
-0.169763
-0.16423
-0.153466
0
0
-0.0254157
-0.059712
-0.0857789
-0.107034
-0.125066
-0.140819
-0.154857
-0.168051
-0.177575
-0.185441
-0.191535
-0.195707
-0.198008
-0.198699
-0.198166
-0.196814
-0.195395
-0.193851
-0.192168
-0.190367
-0.188481
-0.186719
-0.185004
-0.183484
-0.182007
-0.181253
-0.180266
-0.179172
-0.178094
-0.177071
-0.176088
-0.17506
-0.174116
-0.173326
-0.172672
-0.172126
-0.17166
-0.171249
-0.170868
-0.170457
-0.169833
-0.168567
-0.169151
-0.169555
-0.169769
-0.169891
-0.169976
-0.170051
-0.17013
-0.170241
-0.170475
-0.170973
-0.171591
-0.17227
-0.172965
-0.173494
-0.17508
-0.170749
-0.164655
-0.153537
0
0
-0.0254699
-0.0598668
-0.0859665
-0.107146
-0.125084
-0.140642
-0.154025
-0.164364
-0.175168
-0.184087
-0.190778
-0.195278
-0.197756
-0.198552
-0.198109
-0.196419
-0.195423
-0.194135
-0.192536
-0.190698
-0.188685
-0.187007
-0.185446
-0.183878
-0.182132
-0.181924
-0.180801
-0.179576
-0.178414
-0.177333
-0.176326
-0.175394
-0.174557
-0.173821
-0.173166
-0.172572
-0.172025
-0.171517
-0.171029
-0.170531
-0.169974
-0.169398
-0.169428
-0.1696
-0.16975
-0.169862
-0.169954
-0.170054
-0.170185
-0.170375
-0.170657
-0.171052
-0.171569
-0.172207
-0.172931
-0.173517
-0.173358
-0.171
-0.164867
-0.153626
0
0
-0.0255996
-0.0602586
-0.086389
-0.107376
-0.125234
-0.140722
-0.154135
-0.165503
-0.175733
-0.184298
-0.190854
-0.195305
-0.197785
-0.198655
-0.203771
-0.195831
-0.195921
-0.194828
-0.193191
-0.191243
-0.189038
-0.187554
-0.186038
-0.184537
-0.18314
-0.182176
-0.181005
-0.179782
-0.178614
-0.177536
-0.176552
-0.175666
-0.174879
-0.174178
-0.173527
-0.172903
-0.1723
-0.171721
-0.171165
-0.170637
-0.170176
-0.169873
-0.169781
-0.169795
-0.169842
-0.169898
-0.16996
-0.17005
-0.17019
-0.170388
-0.17066
-0.171023
-0.171502
-0.172116
-0.172852
-0.173461
-0.173236
-0.170993
-0.164961
-0.153699
0
0
-0.0259076
-0.0614403
-0.0871182
-0.107946
-0.125643
-0.14104
-0.154507
-0.16624
-0.176383
-0.18475
-0.191142
-0.195488
-0.197888
-0.198585
-0.197782
-0.194197
-0.19712
-0.195764
-0.193771
-0.191961
-0.190594
-0.188585
-0.186754
-0.185172
-0.183944
-0.182544
-0.181159
-0.179879
-0.178718
-0.177669
-0.176727
-0.175889
-0.175155
-0.174508
-0.173865
-0.173204
-0.17254
-0.171888
-0.171258
-0.170668
-0.17021
-0.17002
-0.169963
-0.169939
-0.169926
-0.169926
-0.169934
-0.16999
-0.170119
-0.170304
-0.170562
-0.170915
-0.171377
-0.171974
-0.172737
-0.173436
-0.1732
-0.170932
-0.165012
-0.153777
0
0
-0.0264697
-0.0840124
-0.0887323
-0.108687
-0.126074
-0.141334
-0.154763
-0.166518
-0.176638
-0.184939
-0.191269
-0.195582
-0.197972
-0.198664
-0.198059
-0.196387
-0.196358
-0.19525
-0.19361
-0.191881
-0.190265
-0.18854
-0.186867
-0.18536
-0.184311
-0.18259
-0.181128
-0.179878
-0.17877
-0.177776
-0.176883
-0.176098
-0.175437
-0.174882
-0.174236
-0.173506
-0.172757
-0.172022
-0.171298
-0.170577
-0.170038
-0.170025
-0.170063
-0.170014
-0.169923
-0.169835
-0.169746
-0.169744
-0.169865
-0.170051
-0.170329
-0.170716
-0.171198
-0.171787
-0.172608
-0.173486
-0.173268
-0.171033
-0.164961
-0.153868
0
0
-0.0260173
-0.0617692
-0.0874588
-0.108283
-0.125911
-0.141282
-0.1547
-0.166326
-0.176507
-0.18483
-0.191184
-0.195546
-0.19801
-0.198799
-0.198708
-0.197736
-0.196598
-0.195139
-0.193481
-0.191774
-0.190098
-0.188467
-0.186856
-0.185152
-0.182961
-0.1819
-0.180884
-0.179851
-0.178835
-0.177905
-0.177057
-0.176318
-0.175748
-0.17536
-0.174643
-0.17378
-0.172927
-0.172122
-0.17134
-0.170353
-0.169604
-0.170048
-0.170184
-0.16999
-0.169678
-0.169367
-0.169091
-0.169001
-0.169131
-0.169395
-0.169819
-0.170373