# vtk DataFile Version 2.0
FlowField
ASCII
DATASET STRUCTURED_GRID
DIMENSIONS 62 47 32 
POINTS 93248 double
0 0 0
0.01 0 0
0.02 0 0
0.03 0 0
0.04 0 0
0.05 0 0
0.06 0 0
0.07 0 0
0.08 0 0
0.09 0 0
0.1 0 0
0.11 0 0
0.12 0 0
0.13 0 0
0.14 0 0
0.15 0 0
0.16 0 0
0.17 0 0
0.18 0 0
0.19 0 0
0.2 0 0
0.21 0 0
0.22 0 0
0.23 0 0
0.24 0 0
0.25 0 0
0.26 0 0
0.27 0 0
0.28 0 0
0.29 0 0
0.3 0 0
0.31 0 0
0.32 0 0
0.33 0 0
0.34 0 0
0.35 0 0
0.36 0 0
0.37 0 0
0.38 0 0
0.39 0 0
0.4 0 0
0.41 0 0
0.42 0 0
0.43 0 0
0.44 0 0
0.45 0 0
0.46 0 0
0.47 0 0
0.48 0 0
0.49 0 0
0.5 0 0
0.51 0 0
0.52 0 0
0.53 0 0
0.54 0 0
0.55 0 0
0.56 0 0
0.57 0 0
0.58 0 0
0.59 0 0
0.6 0 0
0.61 0 0
0 0.01 0
0.01 0.01 0
0.02 0.01 0
0.03 0.01 0
0.04 0.01 0
0.05 0.01 0
0.06 0.01 0
0.07 0.01 0
0.08 0.01 0
0.09 0.01 0
0.1 0.01 0
0.11 0.01 0
0.12 0.01 0
0.13 0.01 0
0.14 0.01 0
0.15 0.01 0
0.16 0.01 0
0.17 0.01 0
0.18 0.01 0
0.19 0.01 0
0.2 0.01 0
0.21 0.01 0
0.22 0.01 0
0.23 0.01 0
0.24 0.01 0
0.25 0.01 0
0.26 0.01 0
0.27 0.01 0
0.28 0.01 0
0.29 0.01 0
0.3 0.01 0
0.31 0.01 0
0.32 0.01 0
0.33 0.01 0
0.34 0.01 0
0.35 0.01 0
0.36 0.01 0
0.37 0.01 0
0.38 0.01 0
0.39 0.01 0
0.4 0.01 0
0.41 0.01 0
0.42 0.01 0
0.43 0.01 0
0.44 0.01 0
0.45 0.01 0
0.46 0.01 0
0.47 0.01 0
0.48 0.01 0
0.49 0.01 0
0.5 0.01 0
0.51 0.01 0
0.52 0.01 0
0.53 0.01 0
0.54 0.01 0
0.55 0.01 0
0.56 0.01 0
0.57 0.01 0
0.58 0.01 0
0.59 0.01 0
0.6 0.01 0
0.61 0.01 0
0 0.02 0
0.01 0.02 0
0.02 0.02 0
0.03 0.02 0
0.04 0.02 0
0.05 0.02 0
0.06 0.02 0
0.07 0.02 0
0.08 0.02 0
0.09 0.02 0
0.1 0.02 0
0.11 0.02 0
0.12 0.02 0
0.13 0.02 0
0.14 0.02 0
0.15 0.02 0
0.16 0.02 0
0.17 0.02 0
0.18 0.02 0
0.19 0.02 0
0.2 0.02 0
0.21 0.02 0
0.22 0.02 0
0.23 0.02 0
0.24 0.02 0
0.25 0.02 0
0.26 0.02 0
0.27 0.02 0
0.28 0.02 0
0.29 0.02 0
0.3 0.02 0
0.31 0.02 0
0.32 0.02 0
0.33 0.02 0
0.34 0.02 0
0.35 0.02 0
0.36 0.02 0
0.37 0.02 0
0.38 0.02 0
0.39 0.02 0
0.4 0.02 0
0.41 0.02 0
0.42 0.02 0
0.43 0.02 0
0.44 0.02 0
0.45 0.02 0
0.46 0.02 0
0.47 0.02 0
0.48 0.02 0
0.49 0.02 0
0.5 0.02 0
0.51 0.02 0
0.52 0.02 0
0.53 0.02 0
0.54 0.02 0
0.55 0.02 0
0.56 0.02 0
0.57 0.02 0
0.58 0.02 0
0.59 0.02 0
0.6 0.02 0
0.61 0.02 0
0 0.03 0
0.01 0.03 0
0.02 0.03 0
0.03 0.03 0
0.04 0.03 0
0.05 0.03 0
0.06 0.03 0
0.07 0.03 0
0.08 0.03 0
0.09 0.03 0
0.1 0.03 0
0.11 0.03 0
0.12 0.03 0
0.13 0.03 0
0.14 0.03 0
0.15 0.03 0
0.16 0.03 0
0.17 0.03 0
0.18 0.03 0
0.19 0.03 0
0.2 0.03 0
0.21 0.03 0
0.22 0.03 0
0.23 0.03 0
0.24 0.03 0
0.25 0.03 0
0.26 0.03 0
0.27 0.03 0
0.28 0.03 0
0.29 0.03 0
0.3 0.03 0
0.31 0.03 0
0.32 0.03 0
0.33 0.03 0
0.34 0.03 0
0.35 0.03 0
0.36 0.03 0
0.37 0.03 0
0.38 0.03 0
0.39 0.03 0
0.4 0.03 0
0.41 0.03 0
0.42 0.03 0
0.43 0.03 0
0.44 0.03 0
0.45 0.03 0
0.46 0.03 0
0.47 0.03 0
0.48 0.03 0
0.49 0.03 0
0.5 0.03 0
0.51 0.03 0
0.52 0.03 0
0.53 0.03 0
0.54 0.03 0
0.55 0.03 0
0.56 0.03 0
0.57 0.03 0
0.58 0.03 0
0.59 0.03 0
0.6 0.03 0
0.61 0.03 0
0 0.04 0
0.01 0.04 0
0.02 0.04 0
0.03 0.04 0
0.04 0.04 0
0.05 0.04 0
0.06 0.04 0
0.07 0.04 0
0.08 0.04 0
0.09 0.04 0
0.1 0.04 0
0.11 0.04 0
0.12 0.04 0
0.13 0.04 0
0.14 0.04 0
0.15 0.04 0
0.16 0.04 0
0.17 0.04 0
0.18 0.04 0
0.19 0.04 0
0.2 0.04 0
0.21 0.04 0
0.22 0.04 0
0.23 0.04 0
0.24 0.04 0
0.25 0.04 0
0.26 0.04 0
0.27 0.04 0
0.28 0.04 0
0.29 0.04 0
0.3 0.04 0
0.31 0.04 0
0.32 0.04 0
0.33 0.04 0
0.34 0.04 0
0.35 0.04 0
0.36 0.04 0
0.37 0.04 0
0.38 0.04 0
0.39 0.04 0
0.4 0.04 0
0.41 0.04 0
0.42 0.04 0
0.43 0.04 0
0.44 0.04 0
0.45 0.04 0
0.46 0.04 0
0.47 0.04 0
0.48 0.04 0
0.49 0.04 0
0.5 0.04 0
0.51 0.04 0
0.52 0.04 0
0.53 0.04 0
0.54 0.04 0
0.55 0.04 0
0.56 0.04 0
0.57 0.04 0
0.58 0.04 0
0.59 0.04 0
0.6 0.04 0
0.61 0.04 0
0 0.05 0
0.01 0.05 0
0.02 0.05 0
0.03 0.05 0
0.04 0.05 0
0.05 0.05 0
0.06 0.05 0
0.07 0.05 0
0.08 0.05 0
0.09 0.05 0
0.1 0.05 0
0.11 0.05 0
0.12 0.05 0
0.13 0.05 0
0.14 0.05 0
0.15 0.05 0
0.16 0.05 0
0.17 0.05 0
0.18 0.05 0
0.19 0.05 0
0.2 0.05 0
0.21 0.05 0
0.22 0.05 0
0.23 0.05 0
0.24 0.05 0
0.25 0.05 0
0.26 0.05 0
0.27 0.05 0
0.28 0.05 0
0.29 0.05 0
0.3 0.05 0
0.31 0.05 0
0.32 0.05 0
0.33 0.05 0
0.34 0.05 0
0.35 0.05 0
0.36 0.05 0
0.37 0.05 0
0.38 0.05 0
0.39 0.05 0
0.4 0.05 0
0.41 0.05 0
0.42 0.05 0
0.43 0.05 0
0.44 0.05 0
0.45 0.05 0
0.46 0.05 0
0.47 0.05 0
0.48 0.05 0
0.49 0.05 0
0.5 0.05 0
0.51 0.05 0
0.52 0.05 0
0.53 0.05 0
0.54 0.05 0
0.55 0.05 0
0.56 0.05 0
0.57 0.05 0
0.58 0.05 0
0.59 0.05 0
0.6 0.05 0
0.61 0.05 0
0 0.06 0
0.01 0.06 0
0.02 0.06 0
0.03 0.06 0
0.04 0.06 0
0.05 0.06 0
0.06 0.06 0
0.07 0.06 0
0.08 0.06 0
0.09 0.06 0
0.1 0.06 0
0.11 0.06 0
0.12 0.06 0
0.13 0.06 0
0.14 0.06 0
0.15 0.06 0
0.16 0.06 0
0.17 0.06 0
0.18 0.06 0
0.19 0.06 0
0.2 0.06 0
0.21 0.06 0
0.22 0.06 0
0.23 0.06 0
0.24 0.06 0
0.25 0.06 0
0.26 0.06 0
0.27 0.06 0
0.28 0.06 0
0.29 0.06 0
0.3 0.06 0
0.31 0.06 0
0.32 0.06 0
0.33 0.06 0
0.34 0.06 0
0.35 0.06 0
0.36 0.06 0
0.37 0.06 0
0.38 0.06 0
0.39 0.06 0
0.4 0.06 0
0.41 0.06 0
0.42 0.06 0
0.43 0.06 0
0.44 0.06 0
0.45 0.06 0
0.46 0.06 0
0.47 0.06 0
0.48 0.06 0
0.49 0.06 0
0.5 0.06 0
0.51 0.06 0
0.52 0.06 0
0.53 0.06 0
0.54 0.06 0
0.55 0.06 0
0.56 0.06 0
0.57 0.06 0
0.58 0.06 0
0.59 0.06 0
0.6 0.06 0
0.61 0.06 0
0 0.07 0
0.01 0.07 0
0.02 0.07 0
0.03 0.07 0
0.04 0.07 0
0.05 0.07 0
0.06 0.07 0
0.07 0.07 0
0.08 0.07 0
0.09 0.07 0
0.1 0.07 0
0.11 0.07 0
0.12 0.07 0
0.13 0.07 0
0.14 0.07 0
0.15 0.07 0
0.16 0.07 0
0.17 0.07 0
0.18 0.07 0
0.19 0.07 0
0.2 0.07 0
0.21 0.07 0
0.22 0.07 0
0.23 0.07 0
0.24 0.07 0
0.25 0.07 0
0.26 0.07 0
0.27 0.07 0
0.28 0.07 0
0.29 0.07 0
0.3 0.07 0
0.31 0.07 0
0.32 0.07 0
0.33 0.07 0
0.34 0.07 0
0.35 0.07 0
0.36 0.07 0
0.37 0.07 0
0.38 0.07 0
0.39 0.07 0
0.4 0.07 0
0.41 0.07 0
0.42 0.07 0
0.43 0.07 0
0.44 0.07 0
0.45 0.07 0
0.46 0.07 0
0.47 0.07 0
0.48 0.07 0
0.49 0.07 0
0.5 0.07 0
0.51 0.07 0
0.52 0.07 0
0.53 0.07 0
0.54 0.07 0
0.55 0.07 0
0.56 0.07 0
0.57 0.07 0
0.58 0.07 0
0.59 0.07 0
0.6 0.07 0
0.61 0.07 0
0 0.08 0
0.01 0.08 0
0.02 0.08 0
0.03 0.08 0
0.04 0.08 0
0.05 0.08 0
0.06 0.08 0
0.07 0.08 0
0.08 0.08 0
0.09 0.08 0
0.1 0.08 0
0.11 0.08 0
0.12 0.08 0
0.13 0.08 0
0.14 0.08 0
0.15 0.08 0
0.16 0.08 0
0.17 0.08 0
0.18 0.08 0
0.19 0.08 0
0.2 0.08 0
0.21 0.08 0
0.22 0.08 0
0.23 0.08 0
0.24 0.08 0
0.25 0.08 0
0.26 0.08 0
0.27 0.08 0
0.28 0.08 0
0.29 0.08 0
0.3 0.08 0
0.31 0.08 0
0.32 0.08 0
0.33 0.08 0
0.34 0.08 0
0.35 0.08 0
0.36 0.08 0
0.37 0.08 0
0.38 0.08 0
0.39 0.08 0
0.4 0.08 0
0.41 0.08 0
0.42 0.08 0
0.43 0.08 0
0.44 0.08 0
0.45 0.08 0
0.46 0.08 0
0.47 0.08 0
0.48 0.08 0
0.49 0.08 0
0.5 0.08 0
0.51 0.08 0
0.52 0.08 0
0.53 0.08 0
0.54 0.08 0
0.55 0.08 0
0.56 0.08 0
0.57 0.08 0
0.58 0.08 0
0.59 0.08 0
0.6 0.08 0
0.61 0.08 0
0 0.09 0
0.01 0.09 0
0.02 0.09 0
0.03 0.09 0
0.04 0.09 0
0.05 0.09 0
0.06 0.09 0
0.07 0.09 0
0.08 0.09 0
0.09 0.09 0
0.1 0.09 0
0.11 0.09 0
0.12 0.09 0
0.13 0.09 0
0.14 0.09 0
0.15 0.09 0
0.16 0.09 0
0.17 0.09 0
0.18 0.09 0
0.19 0.09 0
0.2 0.09 0
0.21 0.09 0
0.22 0.09 0
0.23 0.09 0
0.24 0.09 0
0.25 0.09 0
0.26 0.09 0
0.27 0.09 0
0.28 0.09 0
0.29 0.09 0
0.3 0.09 0
0.31 0.09 0
0.32 0.09 0
0.33 0.09 0
0.34 0.09 0
0.35 0.09 0
0.36 0.09 0
0.37 0.09 0
0.38 0.09 0
0.39 0.09 0
0.4 0.09 0
0.41 0.09 0
0.42 0.09 0
0.43 0.09 0
0.44 0.09 0
0.45 0.09 0
0.46 0.09 0
0.47 0.09 0
0.48 0.09 0
0.49 0.09 0
0.5 0.09 0
0.51 0.09 0
0.52 0.09 0
0.53 0.09 0
0.54 0.09 0
0.55 0.09 0
0.56 0.09 0
0.57 0.09 0
0.58 0.09 0
0.59 0.09 0
0.6 0.09 0
0.61 0.09 0
0 0.1 0
0.01 0.1 0
0.02 0.1 0
0.03 0.1 0
0.04 0.1 0
0.05 0.1 0
0.06 0.1 0
0.07 0.1 0
0.08 0.1 0
0.09 0.1 0
0.1 0.1 0
0.11 0.1 0
0.12 0.1 0
0.13 0.1 0
0.14 0.1 0
0.15 0.1 0
0.16 0.1 0
0.17 0.1 0
0.18 0.1 0
0.19 0.1 0
0.2 0.1 0
0.21 0.1 0
0.22 0.1 0
0.23 0.1 0
0.24 0.1 0
0.25 0.1 0
0.26 0.1 0
0.27 0.1 0
0.28 0.1 0
0.29 0.1 0
0.3 0.1 0
0.31 0.1 0
0.32 0.1 0
0.33 0.1 0
0.34 0.1 0
0.35 0.1 0
0.36 0.1 0
0.37 0.1 0
0.38 0.1 0
0.39 0.1 0
0.4 0.1 0
0.41 0.1 0
0.42 0.1 0
0.43 0.1 0
0.44 0.1 0
0.45 0.1 0
0.46 0.1 0
0.47 0.1 0
0.48 0.1 0
0.49 0.1 0
0.5 0.1 0
0.51 0.1 0
0.52 0.1 0
0.53 0.1 0
0.54 0.1 0
0.55 0.1 0
0.56 0.1 0
0.57 0.1 0
0.58 0.1 0
0.59 0.1 0
0.6 0.1 0
0.61 0.1 0
0 0.11 0
0.01 0.11 0
0.02 0.11 0
0.03 0.11 0
0.04 0.11 0
0.05 0.11 0
0.06 0.11 0
0.07 0.11 0
0.08 0.11 0
0.09 0.11 0
0.1 0.11 0
0.11 0.11 0
0.12 0.11 0
0.13 0.11 0
0.14 0.11 0
0.15 0.11 0
0.16 0.11 0
0.17 0.11 0
0.18 0.11 0
0.19 0.11 0
0.2 0.11 0
0.21 0.11 0
0.22 0.11 0
0.23 0.11 0
0.24 0.11 0
0.25 0.11 0
0.26 0.11 0
0.27 0.11 0
0.28 0.11 0
0.29 0.11 0
0.3 0.11 0
0.31 0.11 0
0.32 0.11 0
0.33 0.11 0
0.34 0.11 0
0.35 0.11 0
0.36 0.11 0
0.37 0.11 0
0.38 0.11 0
0.39 0.11 0
0.4 0.11 0
0.41 0.11 0
0.42 0.11 0
0.43 0.11 0
0.44 0.11 0
0.45 0.11 0
0.46 0.11 0
0.47 0.11 0
0.48 0.11 0
0.49 0.11 0
0.5 0.11 0
0.51 0.11 0
0.52 0.11 0
0.53 0.11 0
0.54 0.11 0
0.55 0.11 0
0.56 0.11 0
0.57 0.11 0
0.58 0.11 0
0.59 0.11 0
0.6 0.11 0
0.61 0.11 0
0 0.12 0
0.01 0.12 0
0.02 0.12 0
0.03 0.12 0
0.04 0.12 0
0.05 0.12 0
0.06 0.12 0
0.07 0.12 0
0.08 0.12 0
0.09 0.12 0
0.1 0.12 0
0.11 0.12 0
0.12 0.12 0
0.13 0.12 0
0.14 0.12 0
0.15 0.12 0
0.16 0.12 0
0.17 0.12 0
0.18 0.12 0
0.19 0.12 0
0.2 0.12 0
0.21 0.12 0
0.22 0.12 0
0.23 0.12 0
0.24 0.12 0
0.25 0.12 0
0.26 0.12 0
0.27 0.12 0
0.28 0.12 0
0.29 0.12 0
0.3 0.12 0
0.31 0.12 0
0.32 0.12 0
0.33 0.12 0
0.34 0.12 0
0.35 0.12 0
0.36 0.12 0
0.37 0.12 0
0.38 0.12 0
0.39 0.12 0
0.4 0.12 0
0.41 0.12 0
0.42 0.12 0
0.43 0.12 0
0.44 0.12 0
0.45 0.12 0
0.46 0.12 0
0.47 0.12 0
0.48 0.12 0
0.49 0.12 0
0.5 0.12 0
0.51 0.12 0
0.52 0.12 0
0.53 0.12 0
0.54 0.12 0
0.55 0.12 0
0.56 0.12 0
0.57 0.12 0
0.58 0.12 0
0.59 0.12 0
0.6 0.12 0
0.61 0.12 0
0 0.13 0
0.01 0.13 0
0.02 0.13 0
0.03 0.13 0
0.04 0.13 0
0.05 0.13 0
0.06 0.13 0
0.07 0.13 0
0.08 0.13 0
0.09 0.13 0
0.1 0.13 0
0.11 0.13 0
0.12 0.13 0
0.13 0.13 0
0.14 0.13 0
0.15 0.13 0
0.16 0.13 0
0.17 0.13 0
0.18 0.13 0
0.19 0.13 0
0.2 0.13 0
0.21 0.13 0
0.22 0.13 0
0.23 0.13 0
0.24 0.13 0
0.25 0.13 0
0.26 0.13 0
0.27 0.13 0
0.28 0.13 0
0.29 0.13 0
0.3 0.13 0
0.31 0.13 0
0.32 0.13 0
0.33 0.13 0
0.34 0.13 0
0.35 0.13 0
0.36 0.13 0
0.37 0.13 0
0.38 0.13 0
0.39 0.13 0
0.4 0.13 0
0.41 0.13 0
0.42 0.13 0
0.43 0.13 0
0.44 0.13 0
0.45 0.13 0
0.46 0.13 0
0.47 0.13 0
0.48 0.13 0
[...]
POINT_DATA 93248

SCALARS v double
LOOKUP_TABLE default
0
0
0
0
0
0
0
0
0
0
0
0
0
0
0
0
0
0
0
0
0
0
0
0
0
0
0
0
0
0
0
0
0
0
0
0
0
0
-0.0899519
0
0
0
0
0
-0.0949102
0
0
0
0
0
0
0
0
0
0
0
0
0
0
0
0
0
0
0.0445881
-0.0799708
0.047245
0.0335708
0.0168629
0
-0.0056537
-0.0131492
-0.017979
-0.0212688
-0.0245532
-0.0301007
-0.0300318
-0.0302711
-0.0304749
-0.0307424
-0.0300019
-0.0294084
-0.0281819
-0.0366889
-0.0314587
-0.0263466
-0.0297812
-0.0301753
-0.0301794
-0.0301805
-0.0301831
-0.0301562
-0.0300675
-0.0299097
-0.0299934
-0.0317899
-0.0300735
-0.0291961
-0.029702
-0.0639503
-0.0285911
-0.0278606
-0.0251949
-0.0323806
-0.0579248
-0.0326153
-0.0336866
-0.0378143
-0.0552696
-0.121249
-0.0318866
-0.0433623
-0.0297092
-0.0296162
-0.0288002
-0.0325935
-0.0379274
-0.0599286
-0.0363746
-0.0849561
-0.0307949
-0.0266343
-0.0233407
-0.0190162
0
0
0.0259511
0.0500147
0.0576178
0.0533995
0.0362313
0.029982
0.0188258
0.00741154
-0.00331367
-0.0124767
-0.0210515
-0.120954
-0.0360783
-0.0386941
-0.0359531
-0.0419032
-0.0406472
-0.0420022
-0.0446533
-0.151747
-0.0423568
-0.0463295
-0.0424304
-0.0415151
-0.0413411
-0.0413494
-0.041372
-0.0413407
-0.0411992
-0.0408796
-0.0406349
-0.0947846
-0.0408762
-0.0399363
-0.0414853
-0.0409699
-0.0382076
-0.0360209
-0.0406478
-0.044158
-0.0463585
-0.0460443
-0.0477717
-0.0497101
-0.0531352
-0.0517865
-0.0454897
-0.0433623
-0.041726
-0.0423057
-0.0453476
-0.0450367
-0.0476536
-0.0513363
-0.045836
-0.0428931
-0.0980371
-0.0335162
-0.0294701
-0.0259805
0
0
0.0132233
0.0340892
0.0432678
0.051437
0.0543329
0.0417928
0.0308605
0.0197545
0.00860663
-0.00284326
-0.0132253
-0.0254529
-0.0326857
-0.038438
-0.0429177
-0.0461162
0
-0.0471977
-0.0489797
-0.0510781
-0.0491805
-0.0489064
-0.0478737
-0.0473591
-0.0472111
-0.0472126
-0.047242
-0.0472384
-0.0471809
-0.0471345
-0.0474863
-0.0493663
-0.04977
-0.0492771
-0.0460811
-0.0452933
-0.0443809
-0.0443961
-0.0470788
-0.0495167
-0.0516494
-0.0532623
-0.0528935
-0.0543164
-0.0553663
-0.051141
-0.0495518
-0.0484594
-0.0488549
-0.0488985
-0.0495232
-0.049723
-0.0502151
-0.0501044
-0.0480338
-0.0455798
-0.043108
-0.0372228
-0.0334774
-0.0318917
0
0
0.00759272
0.0230164
0.0367628
0.0397309
0.0407485
0.0358929
0.0287653
0.0202855
0.0111263
0.00153847
-0.00806974
-0.0179521
-0.0264932
-0.0339784
-0.0407486
-0.0442053
-0.0456543
-0.0481214
-0.0501841
-0.0503226
-0.0503568
-0.0503804
-0.0502643
-0.0502145
-0.050251
-0.0503156
-0.0503816
-0.0504242
-0.0504395
-0.0504856
-0.0507432
-0.0515093
-0.0527593
-0.0521781
-0.0502981
-0.0491938
-0.0487273
-0.0489569
-0.0506577
-0.0522942
-0.0537888
-0.0549731
-0.0553908
-0.0559161
-0.0553628
-0.0510904
-0.051791
-0.0517708
-0.0518571
-0.0517501
-0.0516036
-0.0512722
-0.0506618
-0.049537
-0.0478162
-0.0453913
-0.0422426
-0.0381534
-0.0352898
-0.0368099
0
0
0.004506
0.0143832
0.0224558
0.0261819
0.027101
0.0249495
0.0201714
0.0139373
0.00726836
0.000150666
-0.00729036
-0.015021
-0.0225087
-0.0294861
-0.0348118
-0.0412231
-0.0444811
-0.0473635
-0.0487597
-0.0497558
-0.0505596
-0.0511382
-0.0515426
-0.0518564
-0.0521155
-0.0522787
-0.0524181
-0.0525231
-0.0525723
-0.0525632
-0.052533
-0.0528296
-0.055823
-0.0543646
-0.0528988
-0.0520982
-0.0519198
-0.0523182
-0.0532077
-0.0541845
-0.0550919
-0.0558331
-0.056367
-0.0567359
-0.0563933
0
-0.0534797
-0.0537491
-0.05354
-0.0532023
-0.0527224
-0.0519826
-0.0508552
-0.0493804
-0.0475715
-0.0453044
-0.0426444
-0.0397669
-0.0365144
-0.0404137
-0.102688
0
0.00255374
0.00858592
0.0132468
0.0155841
0.0158346
0.0145312
0.010387
0
0.000883198
-0.00416615
-0.00973884
-0.0158123
-0.0217748
-0.0278743
-0.0339377
-0.0402723
-0.0426699
-0.0441276
-0.0470679
-0.0491656
-0.0507315
-0.0518376
-0.0526234
-0.0532236
-0.0537036
-0.0539309
-0.0541755
-0.0543679
-0.0544469
-0.0543564
-0.0540106
-0.0535036
-0.127379
-0.0558817
-0.0547843
-0.0544249
-0.0544774
-0.0548253
-0.0553445
-0.0558964
-0.0563915
-0.0567668
-0.0570578
-0.0569916
-0.0562005
-0.0538837
-0.0544989
-0.0547625
-0.0546281
-0.0542607
-0.0536791
-0.0527663
-0.0513926
-0.0498356
-0.0481224
-0.0463172
-0.0450514
-0.0461977
-0.0499655
-0.0412995
0
0
0.00121488
0.0046146
0.0069853
0.00779561
0.00694659
0.00427443
0.0022673
-0.00150274
-0.00536533
-0.00940161
-0.0139461
-0.01941
-0.0235537
-0.0284507
-0.0339478
-0.0409928
-0.0418911
-0.0438287
-0.0470015
-0.0495337
-0.0516036
-0.052966
-0.053939
-0.0547138
-0.0553887
-0.0556165
-0.0560355
-0.0563468
-0.0564818
-0.0564159
-0.0562843
-0.0565801
-0.0587547
-0.0578865
-0.0571983
-0.0569118
-0.0569299
-0.0571338
-0.0574132
-0.057692
-0.0579248
-0.0580813
-0.0579995
-0.0577598
-0.0571694
-0.0563243
-0.0561215
-0.0560138
-0.0557766
-0.0553843
-0.0548155
-0.0539188
-0.0523811
-0.0509332
-0.0494567
-0.0478574
-0.0463222
-0.0898683
-0.0293767
-0.0401347
0
0
0.000250949
0.00178462
0.00251928
0.00210443
0.0004806
-0.00219039
-0.00491202
-0.00811401
-0.0113878
-0.0147638
-0.0188444
-0.0261982
-0.0225087
-0.0301548
-0.0335417
-0.0343744
-0.041111
-0.0463317
-0.0490918
-0.0512125
-0.05343
-0.0546016
-0.055534
-0.056346
-0.0556165
-0.0577826
-0.058286
-0.0586427
-0.0588106
-0.0586963
-0.0585201
-0.0587411
-0.0594148
-0.0594621
-0.0593374
-0.059259
-0.0593067
-0.0594181
-0.0595378
-0.05963
-0.0596678
-0.0596205
-0.0594313
-0.0591216
-0.058685
-0.0582165
-0.0578511
-0.0575184
-0.0571356
-0.0566799
-0.0561631
-0.0555312
-0.0537273
-0.0526055
-0.0515105
-0.0503237
-0.0491339
-0.0477406
-0.0422949
-0.0412509
0
0
-0.000469246
-0.000306136
-0.000795685
-0.00218485
-0.00444841
-0.00737884
-0.0105298
-0.0137277
-0.0167674
-0.0195813
-0.0219002
-0.0206175
-0.028067
-0.0326742
-0.0359531
-0.0385409
-0.0432529
-0.0473738
-0.0503518
-0.0524855
-0.0710664
-0.056235
-0.0572278
-0.058193
-0.0592201
-0.0598651
-0.0605724
-0.0611492
-0.0614584
-0.0612142
-0.0604722
-0.0605634
-0.0610083
-0.0613188
-0.0614735
-0.0615421
-0.0616489
-0.061727
-0.0617466
-0.061713
-0.0616182
-0.0614456
-0.0611784
-0.0608373
-0.0604471
-0.0600422
-0.0596247
-0.05917
-0.0586489
-0.0580626
-0.0574332
-0.0567375
-0.0553026
-0.0548103
-0.0539912
-0.0529583
-0.0517419
-0.049998
-0.0468342
-0.0431244
0
0
-0.00102636
-0.00190475
-0.0033434
-0.00556396
-0.00840587
-0.0117276
-0.0152195
-0.0186087
-0.0217192
-0.0245118
-0.0269678
-0.0291575
-0.0331828
-0.0369217
-0.0396415
-0.0426959
-0.0462539
-0.0495559
-0.0523229
-0.05463
-0.0567701
-0.0580911
-0.059182
-0.0601223
-0.0606937
-0.0620319
-0.0631069
-0.0640071
-0.0646455
-0.0647621
-0.0613533
-0.0621926
-0.0630289
-0.0635096
-0.0637802
-0.0639503
-0.0639695
-0.0640785
-0.0640408
-0.0639244
-0.0637436
-0.0634925
-0.0631482
-0.0627647
-0.0623629
-0.0619443
-0.0614842
-0.0609443
-0.0602953
-0.0595483
-0.0585871
-0.0575247
-0.0585784
-0.0577514
-0.0566942
-0.0555718
-0.0542438
-0.0523561
-0.0493582
-0.0451712
0
0
-0.00147443
-0.00317363
-0.00536114
-0.0100607
-0.0117031
-0.0154789
-0.0193459
-0.0230446
-0.0264194
-0.0294924
-0.0323785
-0.0353696
-0.0387738
-0.042114
-0.0434212
-0.0466744
-0.0498287
-0.0526059
-0.055052
-0.0570733
-0.0589052
-0.0602578
-0.0613747
-0.0623816
-0.063379
-0.0646229
-0.0659634
-0.0672161
-0.0681049
-0.0683616
0
-0.0648391
-0.0656442
-0.0659821
-0.0662019
-0.0663766
-0.0665042
-0.0664735
-0.0664134
-0.0662436
-0.0660092
-0.0657342
-0.0652731
-0.0648293
-0.0643982
-0.0639575
-0.0634696
-0.0628747
-0.0621483
-0.0614974
-0.0608029
-0.0602563
-0.0604075
-0.0599286
-0.0590828
-0.0580186
-0.0566457
-0.054655
-0.0515414
-0.0472
0
0
-0.00185276
-0.00423988
-0.00711946
-0.0105949
-0.0145739
-0.0188337
-0.0231221
-0.0271972
-0.0309285
-0.0343793
-0.0376244
-0.0408829
-0.0442714
-0.0478837
0
-0.0510852
-0.053876
-0.0561808
-0.0584108
-0.0601639
-0.0615781
-0.0627349
-0.063763
-0.0647746
-0.0658999
-0.0673005
-0.069055
-0.0707975
-0.0717345
-0.0702483
-0.0671428
-0.067334
-0.0678277
-0.0682318
-0.0685433
-0.0687934
-0.068982
-0.069059
-0.0689434
-0.0686648
-0.0683624
-0.068289
-0.0674783
-0.0669733
-0.0665261
-0.0660839
-0.0656034
-0.0649861
-0.064143
-0.0637737
-0.0633604
-0.062925
-0.0625706
-0.0620671
-0.0613406
-0.0603534
-0.0589643
-0.0569084
-0.0536655
-0.0491681
0
0
-0.00218297
-0.00515949
-0.00862347
-0.0124988
-0.0171439
-0.0219064
-0.026643
-0.031138
-0.0352599
-0.0394762
-0.0426342
-0.0460207
-0.0492271
-0.0519865
-0.0531331
-0.0555994
-0.0577866
-0.0597453
-0.0622636
-0.0636551
-0.0646079
-0.0654454
-0.0662822
-0.0671883
-0.068288
-0.0698222
-0.0721711
-0.0749728
-0.0781281
-0.0736107
-0.0708258
-0.0701381
-0.0702456
-0.0705595
-0.0709053
-0.0712523
-0.0715433
-0.0718136
-0.0716297
-0.0711309
-0.070464
-0.0692911
-0.0694174
-0.0691155
-0.068713
-0.068303
-0.0678821
-0.0672985
-0.0661002
-0.0662748
-0.0660371
-0.0655318
-0.0649306
-0.0643678
-0.0636713
-0.0627141
-0.0612218
-0.059158
-0.0557587
-0.05106
0
0
-0.00248222
-0.00598819
-0.0100607
-0.0148284
-0.0196365
-0.0248025
-0.0299822
-0.0349217
-0.0394762
-0.0436544
-0.047464
-0.0509753
-0.0541224
-0.0567193
-0.0586189
-0.0604149
-0.0619342
-0.0633029
-0.0670588
-0.0674529
-0.0677461
-0.0682374
-0.0688427
-0.0695414
-0.0704023
-0.0716945
-0.0742108
-0.0525723
-0.095989
-0.0765236
-0.0727006
-0.0721829
-0.0723995
-0.0727688
-0.0732132
-0.0737849
-0.0745653
-0.0749496
-0.0746305
-0.0737991
-0.0729324
-0.0721752
-0.0717653
-0.0713676
-0.070949
-0.0705672
-0.0702389
-0.069861
-0.0518571
-0.0691244
-0.0688306
-0.0681573
-0.0672303
-0.0668247
-0.0661602
-0.065307
-0.0641045
-0.0615759
-0.0578542
-0.0528499
0
0
-0.00275864
-0.00670459
-0.0112721
-0.0164022
-0.0218544
-0.0275215
-0.0331715
-0.038573
-0.0435609
-0.0480856
-0.0521559
-0.0558216
-0.0590262
-0.0616513
-0.063665
-0.0651838
-0.0661829
-0.0665071
-0.139071
-0.0708728
-0.0707569
-0.0710664
-0.0714714
-0.0718611
-0.0721783
-0.0722312
-0.0711368
-0.064605
-0.0344225
-0.0620047
-0.0699396
-0.0726668
-0.0738698
-0.0746131
-0.0752896
-0.0761622
-0.0773837
-0.0786075
-0.0783278
-0.0767929
-0.0755329
-0.0747114
-0.074151
-0.0736681
-0.0731876
-0.0727913
-0.072418
-0.0720009
-0.0714215
-0.0719357
-0.0715892
-0.0710046
-0.0708342
-0.0696239
-0.0687387
-0.0679971
-0.0665774
-0.0640908
-0.0599937
-0.05448
0
0
-0.00305029
-0.00730733
-0.0123873
-0.0180121
-0.0239845
-0.0301157
-0.0362323
-0.0421172
-0.0475555
-0.0524426
-0.056736
-0.06057
-0.0639012
-0.0666108
-0.0686369
-0.0700562
-0.0710498
-0.0720281
-0.0744767
-0.0744299
-0.0743097
-0.0743185
-0.0743757
-0.0743747
-0.0741548
-0.0733765
-0.0713079
-0.0670693
-0.0614226
-0.0672013
-0.0714813
-0.0739319
-0.0753457
-0.0762944
-0.0771218
-0.0782543
-0.0801727
-0.083117
-0.0843846
-0.0803065
-0.0780448
-0.0769974
-0.076391
-0.0758938
-0.075351
-0.0749928
-0.0746267
-0.0743194
-0.0743949
-0.0753101
-0.0744706
-0.0736308
-0.0730594
-0.0722907
-0.0708736
-0.0710232
-0.0696234
-0.0671324
-0.0624803
-0.0558389
0
0
-0.0034319
-0.000306136
-0.0135147
-0.0196478
-0.0261034
-0.032529
-0.0391657
-0.045594
-0.0515206
-0.0567818
-0.0611756
-0.0651881
-0.0687184
-0.071581
-0.0736325
-0.0749714
-0.0758753
-0.0767012
-0.0775751
-0.0777864
-0.0777348
-0.0776056
-0.0774296
-0.0771537
-0.076654
-0.0757059
-0.0740133
-0.0724119
-0.0723039
-0.0736449
-0.0751541
-0.0764015
-0.077361
-0.0781183
-0.0787307
-0.0796601
-0.0816288
-0.086903
-0.101323
-0.0831981
-0.0794273
-0.0785658
-0.0782208
-0.077907
-0.075351
-0.0771766
-0.076843
-0.0765653
-0.0769168
-0.0793262
-0.0772571
-0.0761959
-0.0758309
-0.0759516
-0.0775828
-0.075331
-0.0735647
-0.0714247
-0.0664376
-0.056729
0
0
-0.00352793
-0.00862109
-0.0145858
-0.0213008
-0.0283019
-0.0351689
-0.0422273
-0.0491433
-0.055566
-0.0612247
-0.0653397
-0.0696285
-0.0734889
-0.0766232
-0.0787049
-0.0798989
-0.0805913
-0.081189
-0.0814869
-0.0814624
-0.0812611
-0.0809742
-0.0806265
-0.0801995
-0.0796463
-0.0789165
-0.0780177
-0.0767232
-0.0789414
-0.0786773
-0.0787893
-0.0792229
-0.0796966
-0.0800834
-0.0801107
-0.0799275
-0.0785547
-0.0718836
-0.0407234
-0.0687825
-0.07628
-0.0786695
-0.0794153
-0.0795684
-0.0794442
-0.079312
-0.0790783
-0.0787705
-0.0788469
-0.131374
-0.0794398
-0.0787149
-0.078675
-0.0788434
-0.0790282
-0.0784251
-0.0785539
-0.0776335
-0.0761856
-0.0742996
0
0
-0.003712
-0.00928286
-0.0156436
-0.0231343
-0.0306734
-0.0369671
-0.0448892
-0.0525989
-0.0596911
-0.0659785
-0.0688333
-0.0739434
-0.0783062
-0.0818818
-0.0839339
-0.0848394
-0.085222
-0.0858358
-0.0857479
-0.0853779
-0.0849298
-0.0844574
-0.0839596
-0.0834403
-0.0829101
-0.0823834
-0.0816708
-0.0802433
-0.141003
-0.0823101
-0.0819384
-0.0820587
-0.0822164
-0.0821104
-0.0818945
-0.0808769
-0.0785423
-0.0738691
-0.0676113
-0.072907
-0.0774132
-0.0796514
-0.0807346
-0.0812577
-0.0814769
-0.0815422
-0.0815455
-0.0816113
-0.0821124
-0.0837022
-0.082437
-0.0818185
-0.0817217
-0.081817
-0.0818911
-0.0819976
-0.0822121
-0.0817188
-0.0797401
-0.0751703
0
0
-0.00393063
-0.00989724
-0.0165096
-0.0371619
-0.0333184
0
-0.0478196
-0.0561902
-0.0639274
-0.0712929
-0.00973884
-0.078717
-0.0832151
-0.0875664
-0.0893417
-0.0897277
-0.0896425
-0.090884
-0.0901412
-0.0893419
-0.0886566
-0.0880162
-0.0873777
-0.08677
-0.0862565
-0.086058
-0.0865944
-0.0850258
-0.0863151
-0.0856793
-0.0853043
-0.0852198
-0.085195
-0.0848747
-0.0841796
-0.0829663
-0.0811383
-0.0789552
-0.0778152
-0.0788865
-0.0805332
-0.0817865
-0.0826241
-0.0832652
-0.0836715
-0.0838828
-0.0840706
-0.0843042
-0.0846525
-0.0850199
-0.08478
-0.0846304
-0.0847071
-0.0848719
-0.0849561
-0.0851663
-0.0851849
-0.0843997
-0.0818137
-0.0765568
0
0
-0.00417014
-0.0105684
-0.017772
-0.0260828
-0.0344327
-0.0419258
-0.0508213
-0.059504
-0.0675111
-0.0743609
-0.0783566
-0.0834507
-0.0872932
-0.0939708
-0.0946101
-0.0943189
-0.0935975
-0.134238
-0.0941946
-0.0931749
-0.0923889
-0.091635
-0.0908275
-0.0900762
-0.089361
-0.0884107
-0.0855549
-0.0875719
-0.0883083
-0.0883388
-0.0882666
-0.0883358
-0.0884942
-0.0881606
-0.08711
-0.0858805
-0.0845771
-0.0835259
-0.0832029
-0.0834676
-0.0840099
-0.0845324
-0.0848213
-0.0856245
-0.0861102
-0.0863215
-0.086603
-0.0868776
-0.0870817
-0.0871039
-0.0870271
-0.0872022
-0.0875511
-0.0878819
-0.0878573
-0.0880086
-0.0877286
-0.0865159
-0.0836651
-0.0782142
0
0
-0.00440668
-0.0112101
-0.0188439
-0.0272669
-0.0360414
-0.0448429
-0.0539483
-0.0629609
-0.0713791
-0.0787528
-0.0840298
-0.0886514
-0.0918982
-0.187647
-0.0990292
-0.0986884
-0.0985166
-0.0991136
-0.0982259
-0.0972515
-0.096326
-0.0953893
-0.0942828
-0.0933867
-0.0926094
-0.0917705
-0.0908736
-0.0909516
-0.0910201
-0.0909933
-0.0910246
-0.0913446
-0.0921324
-0.0924742
-0.0904911
-0.089144
-0.0879973
-0.0873168
-0.0870833
-0.0871199
-0.0873093
-0.0876512
-0.0885629
-0.0884384
-0.0887676
-0.0888473
-0.0891955
-0.0894818
-0.0896115
-0.0894057
-0.0891464
-0.0896524
-0.0902742
-0.0908078
-0.0906455
-0.090759
-0.0900731
-0.0882894
-0.0855093
-0.0800464
0
0
-0.00463872
-0.0118349
-0.0198781
-0.0286675
-0.0379377
-0.0473951
-0.0568163
-0.0664207
-0.0755659
-0.0846486
-0.0891963
-0.0941802
-0.0984027
-0.103145
-0.103851
-0.103662
-0.103243
-0.10297
-0.102207
-0.101259
-0.100279
-0.0992196
-0.0975695
-0.0966623
-0.0959882
-0.0953248
-0.0947326
-0.0942683
-0.093913
-0.0936559
-0.0935394
-0.0938728
-0.0955459
-0.100799
-0.0936351
-0.0925125
-0.0909419
-0.0904621
-0.0902883
-0.0902617
-0.0902962
-0.0903862
-0.090694
-0.0908992
-0.0910981
-0.0917077
-0.0919554
-0.0921891
-0.0922965
-0.0917324
-0.0907009
-0.0922825
-0.0929006
-0.093101
-0.0940253
-0.0937328
-0.0923948
-0.0895452
-0.087397
-0.0820199
0
0
-0.00487215
-0.0124684
-0.0209486
-0.0302109
-0.0400176
-0.0499442
-0.0590272
-0.0696896
-0.0784157
-0.0834606
-0.0928968
-0.0991394
-0.10376
-0.107026
-0.108337
-0.108305
-0.107374
-0.107265
-0.106357
-0.105307
-0.104287
-0.103228
-0.100392
-0.0999271
-0.0994789
-0.0988491
-0.0981732
-0.0972703
-0.0967845
-0.0962094
-0.0955677
-0.0947846
-0.0921666
-0.0790226
-0.0893934
-0.090276
-0.0924342
-0.0929107
-0.0930425
-0.0930859
-0.0930374
-0.0928523
-0.0930652
-0.0934347
-0.0938087
-0.0942393
-0.0945602
-0.0948699
-0.0951388
-0.0943474
-0.0916773
-0.0952468
-0.0958974
-0.0961759
-0.0966302
-0.0965093
-0.0948426
-0.0898683
-0.0895477
-0.0841002
0
0
-0.00511
-0.0131209
-0.022072
-0.0318808
-0.0423672
-0.0533442
-0.0655859
-0.0740711
-0.0827094
-0.0904968
-0.0981779
-0.104366
-0.108933
-0.11187
-0.113279
-0.113658
-0.11433
-0.112187
-0.110675
-0.109372
-0.108297
-0.107542
-0.058193
-0.103611
-0.103127
-0.102302
-0.101465
-0.0942683
-0.0996046
-0.0987438
-0.0973911
-0.0966068
-0.0944897
-0.0914932
-0.0929805
-0.0939229
-0.0948436
-0.0953538
-0.0956359
-0.0957856
-0.0956821
-0.0950162
-0.095427
-0.0960006
-0.0964617
-0.0968243
-0.0971162
-0.0973774
-0.0976199
-0.0979562
-0.0325935
-0.113391
-0.0987981
-0.0989505
-0.0992298
-0.0992977
-0.0980371
-0.0233407
-0.0925096
-0.0861972
0
0
-0.00534951
-0.013784
-0.0232267
-0.0336067
-0.0447328
-0.0563242
-0.0678994
-0.07745
-0.0869853
-0.0958234
-0.103559
-0.10976
-0.114268
-0.117074
-0.118407
-0.118631
-0.118001
-0.116436
-0.114794
-0.113266
-0.111876
-0.110355
-0.108012
-0.107182
-0.106429
-0.105358
-0.10431
-0.103238
-0.102476
-0.101806
-0.101849
-0.099813
-0.0982525
-0.0972288
-0.0971549
-0.0973932
-0.097726
-0.0980306
-0.098305
-0.0985404
-0.0984388
-0.0966996
-0.0978449
-0.0986604
-0.0991194
-0.0994196
-0.0996538
-0.0998456
-0.0999468
-0.0997128
-0.09823
-0.100478
-0.101099
-0.10138
-0.101502
-0.10123
-0.0997832
-0.096032
-0.0941212
-0.0881673
0
0
-0.005582
-0.0144349
-0.024384
-0.0353659
-0.0471439
-0.0593958
-0.0715707
-0.0803286
-0.0911624
-0.100909
-0.108991
-0.115301
-0.119757
-0.12243
-0.123617
-0.123619
-0.122361
-0.120546
-0.118706
-0.11701
-0.115528
-0.114049
-0.112194
-0.110962
-0.109888
-0.108291
-0.107114
-0.106154
-0.105339
-0.104591
-0.10386
-0.102729
-0.101704
-0.101019
-0.100675
-0.100576
-0.100625
-0.100766
-0.100988
-0.101305
-0.101509
-0.0614456
-0.100709
-0.101421
-0.101743
-0.10197
-0.102163
-0.102319
-0.102398
-0.102347
-0.102268
-0.102919
-0.103423
-0.103721
-0.103797
-0.103488
-0.102346
-0.100295
-0.0966581
-0.0902045
0
0
-0.00578935
-0.0150289
-0.0255088
-0.0371619
-0.0496278
-0.0626598
-0.0761771
-0.017979
-0.0960463
-0.106341
-0.114628
-0.120954
-0.125338
-0.127819
-0.128844
-0.128815
-0.126772
-0.12449
-0.122453
-0.120641
-0.119273
-0.1176
-0.115846
-0.114314
-0.113112
-0.110989
-0.109939
-0.109052
-0.10819
-0.107343
-0.106473
-0.105569
-0.104753
-0.104126
-0.1037
-0.103462
-0.103376
-0.103407
-0.103517
-0.103624
-0.103459
-0.1024
-0.103176
-0.103768
-0.104147
-0.104419
-0.10464
-0.10482
-0.104957
-0.105079
-0.105272
-0.10559
-0.105927
-0.106189
-0.106299
-0.106199
-0.10588
-0.103561
-0.0992839
-0.0923497
0
0
-0.00593558
-0.0154726
-0.0265865
-0.0390299
-0.0521211
-0.0655518
-0.0786419
-0.0893401
-0.101178
-0.111589
-0.120103
-0.126576
-0.130925
-0.133196
-0.13371
-0.134299
-0.130783
-0.128208
-0.12615
-0.124238
-0.123297
-0.12123
-0.119164
-0.117155
-0.114819
-0.114407
-0.113237
-0.112087
-0.111048
-0.110085
-0.109169
-0.108305
-0.10753
-0.106882
-0.106401
-0.106097
-0.10595
-0.105926
-0.105977
-0.106025
-0.105949
-0.105739
-0.105936
-0.106259
-0.106581
-0.106862
-0.107115
-0.107333
-0.107518
-0.107715
-0.107958
-0.10823
-0.108518
-0.10877
-0.10889
-0.108783
-0.108204
-0.106257
-0.101785
-0.0945709
0
0
-0.00596774
-0.0155278
-0.027911
-0.0409901
-0.0547567
-0.0687549
-0.0823801
-0.094981
-0.106844
-0.117288
-0.125883
-0.132378
-0.136687
-0.13903
-0.140809
-0.140049
-0.134238
-0.132272
-0.130325
-0.127984
-0.149434
-0.124645
-0.122392
-0.120286
-0.118007
-0.116823
-0.115752
-0.114692
-0.113663
-0.112682
-0.111753
-0.110887
-0.110089
-0.109377
-0.108842
-0.108511
-0.108354
-0.108329
-0.108399
-0.108502
-0.108549
-0.108488
-0.108564
-0.108796
-0.109082
-0.109346
-0.109613
-0.109854
-0.110042
-0.110265
-0.110536
-0.110826
-0.111132
-0.111416
-0.111505
-0.111309
-0.110679
-0.108816
-0.104253
-0.0968329
0
0
-0.00601251
-0.0141763
-0.029402
-0.0435338
-0.0579355
-0.0725359
-0.0868668
-0.100352
-0.112592
-0.123229
-0.131908
-0.138357
-0.142442
-0.144199
-0.143479
-0.139084
-0.141267
-0.138788
-0.13564
-0.132761
-0.13066
-0.12803
-0.125657
-0.123512
-0.120532
-0.119329
-0.118281
-0.117207
-0.116153
-0.115147
-0.114202
-0.113315
-0.112461
-0.111616
-0.111027
-0.110712
-0.110592
-0.110606