# vtk DataFile Version 2.0
FlowField
ASCII
DATASET STRUCTURED_GRID
DIMENSIONS 62 47 32 
POINTS 93248 double
0 0 0
0.01 0 0
0.02 0 0
0.03 0 0
0.04 0 0
0.05 0 0
0.06 0 0
0.07 0 0
0.08 0 0
0.09 0 0
0.1 0 0
0.11 0 0
0.12 0 0
0.13 0 0
0.14 0 0
0.15 0 0
0.16 0 0
0.17 0 0
0.18 0 0
0.19 0 0
0.2 0 0
0.21 0 0
0.22 0 0
0.23 0 0
0.24 0 0
0.25 0 0
0.26 0 0
0.27 0 0
0.28 0 0
0.29 0 0
0.3 0 0
0.31 0 0
0.32 0 0
0.33 0 0
0.34 0 0
0.35 0 0
0.36 0 0
0.37 0 0
0.38 0 0
0.39 0 0
0.4 0 0
0.41 0 0
0.42 0 0
0.43 0 0
0.44 0 0
0.45 0 0
0.46 0 0
0.47 0 0
0.48 0 0
0.49 0 0
0.5 0 0
0.51 0 0
0.52 0 0
0.53 0 0
0.54 0 0
0.55 0 0
0.56 0 0
0.57 0 0
0.58 0 0
0.59 0 0
0.6 0 0
0.61 0 0
0 0.01 0
0.01 0.01 0
0.02 0.01 0
0.03 0.01 0
0.04 0.01 0
0.05 0.01 0
0.06 0.01 0
0.07 0.01 0
0.08 0.01 0
0.09 0.01 0
0.1 0.01 0
0.11 0.01 0
0.12 0.01 0
0.13 0.01 0
0.14 0.01 0
0.15 0.01 0
0.16 0.01 0
0.17 0.01 0
0.18 0.01 0
0.19 0.01 0
0.2 0.01 0
0.21 0.01 0
0.22 0.01 0
0.23 0.01 0
0.24 0.01 0
0.25 0.01 0
0.26 0.01 0
0.27 0.01 0
0.28 0.01 0
0.29 0.01 0
0.3 0.01 0
0.31 0.01 0
0.32 0.01 0
0.33 0.01 0
0.34 0.01 0
0.35 0.01 0
0.36 0.01 0
0.37 0.01 0
0.38 0.01 0
0.39 0.01 0
0.4 0.01 0
0.41 0.01 0
0.42 0.01 0
0.43 0.01 0
0.44 0.01 0
0.45 0.01 0
0.46 0.01 0
0.47 0.01 0
0.48 0.01 0
0.49 0.01 0
0.5 0.01 0
0.51 0.01 0
0.52 0.01 0
0.53 0.01 0
0.54 0.01 0
0.55 0.01 0
0.56 0.01 0
0.57 0.01 0
0.58 0.01 0
0.59 0.01 0
0.6 0.01 0
0.61 0.01 0
0 0.02 0
0.01 0.02 0
0.02 0.02 0
0.03 0.02 0
0.04 0.02 0
0.05 0.02 0
0.06 0.02 0
0.07 0.02 0
0.08 0.02 0
0.09 0.02 0
0.1 0.02 0
0.11 0.02 0
0.12 0.02 0
0.13 0.02 0
0.14 0.02 0
0.15 0.02 0
0.16 0.02 0
0.17 0.02 0
0.18 0.02 0
0.19 0.02 0
0.2 0.02 0
0.21 0.02 0
0.22 0.02 0
0.23 0.02 0
0.24 0.02 0
0.25 0.02 0
0.26 0.02 0
0.27 0.02 0
0.28 0.02 0
0.29 0.02 0
0.3 0.02 0
0.31 0.02 0
0.32 0.02 0
0.33 0.02 0
0.34 0.02 0
0.35 0.02 0
0.36 0.02 0
0.37 0.02 0
0.38 0.02 0
0.39 0.02 0
0.4 0.02 0
0.41 0.02 0
0.42 0.02 0
0.43 0.02 0
0.44 0.02 0
0.45 0.02 0
0.46 0.02 0
0.47 0.02 0
0.48 0.02 0
0.49 0.02 0
0.5 0.02 0
0.51 0.02 0
0.52 0.02 0
0.53 0.02 0
0.54 0.02 0
0.55 0.02 0
0.56 0.02 0
0.57 0.02 0
0.58 0.02 0
0.59 0.02 0
0.6 0.02 0
0.61 0.02 0
0 0.03 0
0.01 0.03 0
0.02 0.03 0
0.03 0.03 0
0.04 0.03 0
0.05 0.03 0
0.06 0.03 0
0.07 0.03 0
0.08 0.03 0
0.09 0.03 0
0.1 0.03 0
0.11 0.03 0
0.12 0.03 0
0.13 0.03 0
0.14 0.03 0
0.15 0.03 0
0.16 0.03 0
0.17 0.03 0
0.18 0.03 0
0.19 0.03 0
0.2 0.03 0
0.21 0.03 0
0.22 0.03 0
0.23 0.03 0
0.24 0.03 0
0.25 0.03 0
0.26 0.03 0
0.27 0.03 0
0.28 0.03 0
0.29 0.03 0
0.3 0.03 0
0.31 0.03 0
0.32 0.03 0
0.33 0.03 0
0.34 0.03 0
0.35 0.03 0
0.36 0.03 0
0.37 0.03 0
0.38 0.03 0
0.39 0.03 0
0.4 0.03 0
0.41 0.03 0
0.42 0.03 0
0.43 0.03 0
0.44 0.03 0
0.45 0.03 0
0.46 0.03 0
0.47 0.03 0
0.48 0.03 0
0.49 0.03 0
0.5 0.03 0
0.51 0.03 0
0.52 0.03 0
0.53 0.03 0
0.54 0.03 0
0.55 0.03 0
0.56 0.03 0
0.57 0.03 0
0.58 0.03 0
0.59 0.03 0
0.6 0.03 0
0.61 0.03 0
0 0.04 0
0.01 0.04 0
0.02 0.04 0
0.03 0.04 0
0.04 0.04 0
0.05 0.04 0
0.06 0.04 0
0.07 0.04 0
0.08 0.04 0
0.09 0.04 0
0.1 0.04 0
0.11 0.04 0
0.12 0.04 0
0.13 0.04 0
0.14 0.04 0
0.15 0.04 0
0.16 0.04 0
0.17 0.04 0
0.18 0.04 0
0.19 0.04 0
0.2 0.04 0
0.21 0.04 0
0.22 0.04 0
0.23 0.04 0
0.24 0.04 0
0.25 0.04 0
0.26 0.04 0
0.27 0.04 0
0.28 0.04 0
0.29 0.04 0
0.3 0.04 0
0.31 0.04 0
0.32 0.04 0
0.33 0.04 0
0.34 0.04 0
0.35 0.04 0
0.36 0.04 0
0.37 0.04 0
0.38 0.04 0
0.39 0.04 0
0.4 0.04 0
0.41 0.04 0
0.42 0.04 0
0.43 0.04 0
0.44 0.04 0
0.45 0.04 0
0.46 0.04 0
0.47 0.04 0
0.48 0.04 0
0.49 0.04 0
0.5 0.04 0
0.51 0.04 0
0.52 0.04 0
0.53 0.04 0
0.54 0.04 0
0.55 0.04 0
0.56 0.04 0
0.57 0.04 0
0.58 0.04 0
0.59 0.04 0
0.6 0.04 0
0.61 0.04 0
0 0.05 0
0.01 0.05 0
0.02 0.05 0
0.03 0.05 0
0.04 0.05 0
0.05 0.05 0
0.06 0.05 0
0.07 0.05 0
0.08 0.05 0
0.09 0.05 0
0.1 0.05 0
0.11 0.05 0
0.12 0.05 0
0.13 0.05 0
0.14 0.05 0
0.15 0.05 0
0.16 0.05 0
0.17 0.05 0
0.18 0.05 0
0.19 0.05 0
0.2 0.05 0
0.21 0.05 0
0.22 0.05 0
0.23 0.05 0
0.24 0.05 0
0.25 0.05 0
0.26 0.05 0
0.27 0.05 0
0.28 0.05 0
0.29 0.05 0
0.3 0.05 0
0.31 0.05 0
0.32 0.05 0
0.33 0.05 0
0.34 0.05 0
0.35 0.05 0
0.36 0.05 0
0.37 0.05 0
0.38 0.05 0
0.39 0.05 0
0.4 0.05 0
0.41 0.05 0
0.42 0.05 0
0.43 0.05 0
0.44 0.05 0
0.45 0.05 0
0.46 0.05 0
0.47 0.05 0
0.48 0.05 0
0.49 0.05 0
0.5 0.05 0
0.51 0.05 0
0.52 0.05 0
0.53 0.05 0
0.54 0.05 0
0.55 0.05 0
0.56 0.05 0
0.57 0.05 0
0.58 0.05 0
0.59 0.05 0
0.6 0.05 0
0.61 0.05 0
0 0.06 0
0.01 0.06 0
0.02 0.06 0
0.03 0.06 0
0.04 0.06 0
0.05 0.06 0
0.06 0.06 0
0.07 0.06 0
0.08 0.06 0
0.09 0.06 0
0.1 0.06 0
0.11 0.06 0
0.12 0.06 0
0.13 0.06 0
0.14 0.06 0
0.15 0.06 0
0.16 0.06 0
0.17 0.06 0
0.18 0.06 0
0.19 0.06 0
0.2 0.06 0
0.21 0.06 0
0.22 0.06 0
0.23 0.06 0
0.24 0.06 0
0.25 0.06 0
0.26 0.06 0
0.27 0.06 0
0.28 0.06 0
0.29 0.06 0
0.3 0.06 0
0.31 0.06 0
0.32 0.06 0
0.33 0.06 0
0.34 0.06 0
0.35 0.06 0
0.36 0.06 0
0.37 0.06 0
0.38 0.06 0
0.39 0.06 0
0.4 0.06 0
0.41 0.06 0
0.42 0.06 0
0.43 0.06 0
0.44 0.06 0
0.45 0.06 0
0.46 0.06 0
0.47 0.06 0
0.48 0.06 0
0.49 0.06 0
0.5 0.06 0
0.51 0.06 0
0.52 0.06 0
0.53 0.06 0
0.54 0.06 0
0.55 0.06 0
0.56 0.06 0
0.57 0.06 0
0.58 0.06 0
0.59 0.06 0
0.6 0.06 0
0.61 0.06 0
0 0.07 0
0.01 0.07 0
0.02 0.07 0
0.03 0.07 0
0.04 0.07 0
0.05 0.07 0
0.06 0.07 0
0.07 0.07 0
0.08 0.07 0
0.09 0.07 0
0.1 0.07 0
0.11 0.07 0
0.12 0.07 0
0.13 0.07 0
0.14 0.07 0
0.15 0.07 0
0.16 0.07 0
0.17 0.07 0
0.18 0.07 0
0.19 0.07 0
0.2 0.07 0
0.21 0.07 0
0.22 0.07 0
0.23 0.07 0
0.24 0.07 0
0.25 0.07 0
0.26 0.07 0
0.27 0.07 0
0.28 0.07 0
0.29 0.07 0
0.3 0.07 0
0.31 0.07 0
0.32 0.07 0
0.33 0.07 0
0.34 0.07 0
0.35 0.07 0
0.36 0.07 0
0.37 0.07 0
0.38 0.07 0
0.39 0.07 0
0.4 0.07 0
0.41 0.07 0
0.42 0.07 0
0.43 0.07 0
0.44 0.07 0
0.45 0.07 0
0.46 0.07 0
0.47 0.07 0
0.48 0.07 0
0.49 0.07 0
0.5 0.07 0
0.51 0.07 0
0.52 0.07 0
0.53 0.07 0
0.54 0.07 0
0.55 0.07 0
0.56 0.07 0
0.57 0.07 0
0.58 0.07 0
0.59 0.07 0
0.6 0.07 0
0.61 0.07 0
0 0.08 0
0.01 0.08 0
0.02 0.08 0
0.03 0.08 0
0.04 0.08 0
0.05 0.08 0
0.06 0.08 0
0.07 0.08 0
0.08 0.08 0
0.09 0.08 0
0.1 0.08 0
0.11 0.08 0
0.12 0.08 0
0.13 0.08 0
0.14 0.08 0
0.15 0.08 0
0.16 0.08 0
0.17 0.08 0
0.18 0.08 0
0.19 0.08 0
0.2 0.08 0
0.21 0.08 0
0.22 0.08 0
0.23 0.08 0
0.24 0.08 0
0.25 0.08 0
0.26 0.08 0
0.27 0.08 0
0.28 0.08 0
0.29 0.08 0
0.3 0.08 0
0.31 0.08 0
0.32 0.08 0
0.33 0.08 0
0.34 0.08 0
0.35 0.08 0
0.36 0.08 0
0.37 0.08 0
0.38 0.08 0
0.39 0.08 0
0.4 0.08 0
0.41 0.08 0
0.42 0.08 0
0.43 0.08 0
0.44 0.08 0
0.45 0.08 0
0.46 0.08 0
0.47 0.08 0
0.48 0.08 0
0.49 0.08 0
0.5 0.08 0
0.51 0.08 0
0.52 0.08 0
0.53 0.08 0
0.54 0.08 0
0.55 0.08 0
0.56 0.08 0
0.57 0.08 0
0.58 0.08 0
0.59 0.08 0
0.6 0.08 0
0.61 0.08 0
0 0.09 0
0.01 0.09 0
0.02 0.09 0
0.03 0.09 0
0.04 0.09 0
0.05 0.09 0
0.06 0.09 0
0.07 0.09 0
0.08 0.09 0
0.09 0.09 0
0.1 0.09 0
0.11 0.09 0
0.12 0.09 0
0.13 0.09 0
0.14 0.09 0
0.15 0.09 0
0.16 0.09 0
0.17 0.09 0
0.18 0.09 0
0.19 0.09 0
0.2 0.09 0
0.21 0.09 0
0.22 0.09 0
0.23 0.09 0
0.24 0.09 0
0.25 0.09 0
0.26 0.09 0
0.27 0.09 0
0.28 0.09 0
0.29 0.09 0
0.3 0.09 0
0.31 0.09 0
0.32 0.09 0
0.33 0.09 0
0.34 0.09 0
0.35 0.09 0
0.36 0.09 0
0.37 0.09 0
0.38 0.09 0
0.39 0.09 0
0.4 0.09 0
0.41 0.09 0
0.42 0.09 0
0.43 0.09 0
0.44 0.09 0
0.45 0.09 0
0.46 0.09 0
0.47 0.09 0
0.48 0.09 0
0.49 0.09 0
0.5 0.09 0
0.51 0.09 0
0.52 0.09 0
0.53 0.09 0
0.54 0.09 0
0.55 0.09 0
0.56 0.09 0
0.57 0.09 0
0.58 0.09 0
0.59 0.09 0
0.6 0.09 0
0.61 0.09 0
0 0.1 0
0.01 0.1 0
0.02 0.1 0
0.03 0.1 0
0.04 0.1 0
0.05 0.1 0
0.06 0.1 0
0.07 0.1 0
0.08 0.1 0
0.09 0.1 0
0.1 0.1 0
0.11 0.1 0
0.12 0.1 0
0.13 0.1 0
0.14 0.1 0
0.15 0.1 0
0.16 0.1 0
0.17 0.1 0
0.18 0.1 0
0.19 0.1 0
0.2 0.1 0
0.21 0.1 0
0.22 0.1 0
0.23 0.1 0
0.24 0.1 0
0.25 0.1 0
0.26 0.1 0
0.27 0.1 0
0.28 0.1 0
0.29 0.1 0
0.3 0.1 0
0.31 0.1 0
0.32 0.1 0
0.33 0.1 0
0.34 0.1 0
0.35 0.1 0
0.36 0.1 0
0.37 0.1 0
0.38 0.1 0
0.39 0.1 0
0.4 0.1 0
0.41 0.1 0
0.42 0.1 0
0.43 0.1 0
0.44 0.1 0
0.45 0.1 0
0.46 0.1 0
0.47 0.1 0
0.48 0.1 0
0.49 0.1 0
0.5 0.1 0
0.51 0.1 0
0.52 0.1 0
0.53 0.1 0
0.54 0.1 0
0.55 0.1 0
0.56 0.1 0
0.57 0.1 0
0.58 0.1 0
0.59 0.1 0
0.6 0.1 0
0.61 0.1 0
0 0.11 0
0.01 0.11 0
0.02 0.11 0
0.03 0.11 0
0.04 0.11 0
0.05 0.11 0
0.06 0.11 0
0.07 0.11 0
0.08 0.11 0
0.09 0.11 0
0.1 0.11 0
0.11 0.11 0
0.12 0.11 0
0.13 0.11 0
0.14 0.11 0
0.15 0.11 0
0.16 0.11 0
0.17 0.11 0
0.18 0.11 0
0.19 0.11 0
0.2 0.11 0
0.21 0.11 0
0.22 0.11 0
0.23 0.11 0
0.24 0.11 0
0.25 0.11 0
0.26 0.11 0
0.27 0.11 0
0.28 0.11 0
0.29 0.11 0
0.3 0.11 0
0.31 0.11 0
0.32 0.11 0
0.33 0.11 0
0.34 0.11 0
0.35 0.11 0
0.36 0.11 0
0.37 0.11 0
0.38 0.11 0
0.39 0.11 0
0.4 0.11 0
0.41 0.11 0
0.42 0.11 0
0.43 0.11 0
0.44 0.11 0
0.45 0.11 0
0.46 0.11 0
0.47 0.11 0
0.48 0.11 0
0.49 0.11 0
0.5 0.11 0
0.51 0.11 0
0.52 0.11 0
0.53 0.11 0
0.54 0.11 0
0.55 0.11 0
0.56 0.11 0
0.57 0.11 0
0.58 0.11 0
0.59 0.11 0
0.6 0.11 0
0.61 0.11 0
0 0.12 0
0.01 0.12 0
0.02 0.12 0
0.03 0.12 0
0.04 0.12 0
0.05 0.12 0
0.06 0.12 0
0.07 0.12 0
0.08 0.12 0
0.09 0.12 0
0.1 0.12 0
0.11 0.12 0
0.12 0.12 0
0.13 0.12 0
0.14 0.12 0
0.15 0.12 0
0.16 0.12 0
0.17 0.12 0
0.18 0.12 0
0.19 0.12 0
0.2 0.12 0
0.21 0.12 0
0.22 0.12 0
0.23 0.12 0
0.24 0.12 0
0.25 0.12 0
0.26 0.12 0
0.27 0.12 0
0.28 0.12 0
0.29 0.12 0
0.3 0.12 0
0.31 0.12 0
0.32 0.12 0
0.33 0.12 0
0.34 0.12 0
0.35 0.12 0
0.36 0.12 0
0.37 0.12 0
0.38 0.12 0
0.39 0.12 0
0.4 0.12 0
0.41 0.12 0
0.42 0.12 0
0.43 0.12 0
0.44 0.12 0
0.45 0.12 0
0.46 0.12 0
0.47 0.12 0
0.48 0.12 0
0.49 0.12 0
0.5 0.12 0
0.51 0.12 0
0.52 0.12 0
0.53 0.12 0
0.54 0.12 0
0.55 0.12 0
0.56 0.12 0
0.57 0.12 0
0.58 0.12 0
0.59 0.12 0
0.6 0.12 0
0.61 0.12 0
0 0.13 0
0.01 0.13 0
0.02 0.13 0
0.03 0.13 0
0.04 0.13 0
0.05 0.13 0
0.06 0.13 0
0.07 0.13 0
0.08 0.13 0
0.09 0.13 0
0.1 0.13 0
0.11 0.13 0
0.12 0.13 0
0.13 0.13 0
0.14 0.13 0
0.15 0.13 0
0.16 0.13 0
0.17 0.13 0
0.18 0.13 0
0.19 0.13 0
0.2 0.13 0
0.21 0.13 0
0.22 0.13 0
0.23 0.13 0
0.24 0.13 0
0.25 0.13 0
0.26 0.13 0
0.27 0.13 0
0.28 0.13 0
0.29 0.13 0
0.3 0.13 0
0.31 0.13 0
0.32 0.13 0
0.33 0.13 0
0.34 0.13 0
0.35 0.13 0
0.36 0.13 0
0.37 0.13 0
0.38 0.13 0
0.39 0.13 0
0.4 0.13 0
0.41 0.13 0
0.42 0.13 0
0.43 0.13 0
0.44 0.13 0
0.45 0.13 0
0.46 0.13 0
0.47 0.13 0
0.48 0.13 0
[...]
POINT_DATA 93248

SCALARS w double
LOOKUP_TABLE default
0
0
0
0
0
0
0
0
0
0
0
0
0
-0.0690058
0
0
0
0
0
0
0
0
0
0
0
0
-0.153362
0
0
0
0
0
-0.150284
0
0
0
0
0
0
0
0
0
0
0
0
0
-0.135336
0
0
0
0
0
0
0
0
0
0
0
0
0
0
0
0
-0.02246
-0.0433501
-0.0580251
-0.0667678
-0.0714119
-0.074609
-0.0769791
-0.0785471
-0.0794688
-0.0796651
-0.0789784
-0.0774693
-0.0775278
-0.07815
-0.07879
-0.079283
-0.0798393
-0.0801208
-0.0792922
-0.0737228
-0.0736822
-0.075824
-0.0752892
-0.0748081
-0.0744777
-0.074187
-0.0738912
-0.0735808
-0.0732411
-0.0728152
-0.0721701
-0.0712697
-0.0714457
-0.0715271
-0.0707572
-0.0696297
-0.0706613
-0.0725119
-0.0763787
-0.0685848
-0.0706174
-0.0730929
-0.0747608
-0.0773258
-0.157621
-0.0726871
-0.0718653
-0.0719212
-0.0729062
-0.0739113
-0.0752293
-0.074829
-0.0770384
-0.157627
-0.0757419
-0.0712563
-0.0704618
-0.070787
-0.0696873
-0.0669207
0
0
-0.0260058
-0.0601937
-0.0808813
-0.0964285
-0.107819
-0.120148
-0.129967
-0.137421
-0.142778
-0.146244
-0.147508
-0.146308
-0.14717
-0.147827
-0.148338
-0.148741
-0.14961
-0.150457
-0.15143
-0.140666
-0.141852
-0.179357
-0.143382
-0.141558
-0.140683
-0.140046
-0.13947
-0.138906
-0.13834
-0.137738
-0.136955
-0.135517
-0.136062
-0.136137
-0.134985
-0.13513
-0.134282
-0.134482
-0.138949
-0.136446
-0.137781
-0.139027
-0.140345
-0.143294
-0.147233
-0.144121
-0.139629
-0.138339
-0.138444
-0.139574
-0.158391
-0.141265
-0.142986
-0.14629
-0.142763
-0.140438
-0.13593
-0.134178
-0.130141
-0.123197
0
0
-0.025796
-0.0600621
-0.0830048
-0.101006
-0.0714119
-0.128475
-0.142494
-0.153468
-0.162289
-0.169379
-0.173685
-0.17825
-0.17791
-0.17712
-0.17631
-0.176108
-0.176927
-0.177013
-0.177798
-0.176457
-0.173164
-0.172592
-0.170184
-0.168481
-0.167315
-0.166424
-0.165663
-0.164975
-0.164354
-0.16387
-0.163786
-0.164755
-0.170549
-0.163373
-0.160156
-0.159941
-0.159689
-0.159953
-0.162042
-0.162278
-0.163207
-0.164537
-0.164454
-0.166506
-0.16865
-0.166402
-0.164622
-0.1635
-0.16404
-0.164474
-0.165605
-0.165614
-0.166448
-0.167406
-0.167027
-0.166543
-0.165481
-0.160722
-0.154463
-0.145422
0
0
-0.0252974
-0.0588228
-0.0594298
-0.101826
-0.117662
-0.133158
-0.146266
-0.157403
-0.166848
-0.174674
-0.180447
-0.184723
-0.186242
-0.186108
-0.184931
-0.183944
-0.182281
-0.182656
-0.18345
-0.182168
-0.180633
-0.179255
-0.177705
-0.176317
-0.17515
-0.174165
-0.173307
-0.172546
-0.171883
-0.171358
-0.17106
-0.170987
-0.170358
-0.169595
-0.168055
-0.167453
-0.167204
-0.166702
-0.16814
-0.168797
-0.169508
-0.170259
-0.170476
-0.17133
-0.172209
-0.171906
-0.170763
-0.170069
-0.170238
-0.170482
-0.17087
-0.171195
-0.171653
-0.172108
-0.172425
-0.17239
-0.171331
-0.167694
-0.161278
-0.15161
0
0
-0.0251501
-0.0588632
-0.0833356
-0.104002
-0.120774
-0.135397
-0.147896
-0.158645
-0.167885
-0.175535
-0.181393
-0.185388
-0.187314
-0.187337
-0.171691
-0.184898
-0.183803
-0.1831
-0.182812
-0.181805
-0.180615
-0.179357
-0.178086
-0.176878
-0.175771
-0.174785
-0.173897
-0.173098
-0.172391
-0.171782
-0.171232
-0.170549
-0.169351
-0.168984
-0.168539
-0.168192
-0.167976
-0.167924
-0.168209
-0.16859
-0.169007
-0.169393
-0.169614
-0.16992
-0.170344
-0.171183
-0.169792
-0.169393
-0.169491
-0.169706
-0.169976
-0.170305
-0.170696
-0.171104
-0.171458
-0.171422
-0.170293
-0.166981
-0.160579
-0.151118
0
0
-0.0250877
-0.0588668
-0.0842307
-0.104825
-0.121939
-0.136635
-0.148736
-0.159163
-0.168204
-0.17559
-0.181137
-0.184786
-0.186639
-0.18679
-0.185414
-0.184052
-0.183045
-0.177604
-0.181209
-0.180276
-0.179083
-0.177846
-0.17663
-0.175465
-0.174372
-0.173411
-0.172518
-0.1717
-0.170971
-0.170331
-0.169719
-0.168899
-0.16709
-0.167464
-0.167416
-0.167143
-0.16687
-0.166702
-0.166686
-0.166784
-0.166942
-0.167092
-0.167127
-0.167042
-0.166545
-0.165118
-0.165993
-0.166625
-0.167028
-0.167325
-0.167607
-0.167956
-0.168401
-0.168846
-0.16916
-0.168996
-0.167508
-0.163228
-0.155024
-0.147308
0
0
-0.0250283
-0.0587591
-0.0842757
-0.104945
-0.122281
-0.137512
-0.148875
-0.159575
-0.168496
-0.175548
-0.180646
-0.183785
-0.185528
-0.185643
-0.184324
-0.181937
-0.181737
-0.181145
-0.180253
-0.179013
-0.177646
-0.176328
-0.17508
-0.173882
-0.172738
-0.17185
-0.170952
-0.170116
-0.169392
-0.168803
-0.168374
-0.168346
-0.169576
-0.168108
-0.166919
-0.166108
-0.165569
-0.165228
-0.165037
-0.164958
-0.164949
-0.164968
-0.164839
-0.16468
-0.16431
-0.163779
-0.164054
-0.164472
-0.164816
-0.165082
-0.165342
-0.165717
-0.166296
-0.166823
-0.167141
-0.166897
-0.164919
-0.157762
-0.0696873
-0.142488
0
0
-0.0249629
-0.0585927
-0.0840702
-0.104716
-0.12202
-0.136902
-0.149093
-0.159651
-0.168411
-0.17519
-0.179771
-0.181784
-0.18403
-0.184279
-0.182677
-0.17835
-0.165587
-0.180613
-0.179504
-0.178042
-0.176436
-0.175067
-0.173791
-0.172535
-0.171246
-0.170556
-0.169609
-0.168745
-0.168046
-0.16754
-0.167176
-0.167019
-0.167123
-0.166414
-0.165553
-0.164816
-0.164248
-0.163848
-0.163583
-0.163418
-0.163319
-0.163248
-0.163133
-0.163006
-0.162841
-0.162706
-0.162784
-0.16297
-0.163158
-0.163314
-0.163484
-0.163835
-0.164697
-0.165358
-0.165764
-0.165786
-0.164888
-0.161667
-0.151502
-0.144367
0
0
-0.0248973
-0.0584118
-0.083799
-0.10437
-0.121598
-0.136331
-0.148833
-0.159442
-0.168134
-0.174683
-0.178495
-0.146308
-0.18159
-0.182968
-0.182114
-0.179872
-0.179643
-0.179388
-0.178382
-0.176974
-0.175267
-0.174037
-0.172775
-0.171472
-0.170126
-0.169229
-0.168329
-0.167516
-0.166895
-0.166544
-0.166195
-0.165791
-0.165334
-0.164715
-0.164064
-0.163483
-0.162976
-0.162594
-0.162327
-0.162144
-0.162016
-0.161921
-0.161837
-0.161767
-0.161714
-0.161701
-0.16175
-0.161837
-0.161918
-0.161956
-0.161966
-0.160981
-0.163606
-0.164386
-0.164832
-0.164983
-0.164401
-0.161898
-0.155233
-0.144951
0
0
-0.0248372
-0.0582424
-0.0835343
-0.104018
-0.121183
-0.135869
-0.148457
-0.159125
-0.167834
-0.174406
-0.17858
-0.179962
-0.182098
-0.182737
-0.182204
-0.180849
-0.179753
-0.17866
-0.177398
-0.176089
-0.175084
-0.17354
-0.172036
-0.170564
-0.16666
-0.168067
-0.16717
-0.166362
-0.165808
-0.165719
-0.16542
-0.16474
-0.163974
-0.163287
-0.162712
-0.162258
-0.161797
-0.161453
-0.161224
-0.161061
-0.16094
-0.160853
-0.160803
-0.16078
-0.160784
-0.160818
-0.160875
-0.160942
-0.160986
-0.160965
-0.160889
-0.160981
-0.163084
-0.163714
-0.16412
-0.164313
-0.163832
-0.16158
-0.155682
-0.145068
0
0
-0.0247861
-0.0580982
-0.0833087
-0.103709
-0.120842
-0.135513
-0.148127
-0.158833
-0.167588
-0.174258
-0.178768
-0.181293
-0.182618
-0.182868
-0.182544
-0.181213
-0.179656
-0.178096
-0.176561
-0.1751
-0.173879
-0.172503
-0.171102
-0.169701
-0.168281
-0.167134
-0.166064
-0.165142
-0.164457
-0.164203
-0.1647
-0.163351
-0.16242
-0.16182
-0.161387
-0.161049
-0.160764
-0.160411
-0.160236
-0.160109
-0.160004
-0.159921
-0.159918
-0.159946
-0.159994
-0.160061
-0.160145
-0.160241
-0.160324
-0.160351
-0.160417
-0.160804
-0.162087
-0.162878
-0.163414
-0.163698
-0.163301
-0.161164
-0.155459
-0.144916
0
0
-0.0247453
-0.0579859
-0.0831487
-0.103582
-0.120649
-0.135278
-0.147883
-0.158603
-0.16739
-0.174124
-0.17877
-0.181489
-0.182653
-0.182756
-0.182759
-0.180926
-0.179071
-0.177324
-0.175647
-0.174133
-0.1728
-0.171499
-0.170189
-0.168856
-0.167499
-0.166158
-0.164845
-0.163643
-0.162466
-0.161441
-0.159377
-0.159804
-0.1601
-0.160147
-0.160052
-0.159892
-0.15971
-0.159494
-0.159348
-0.159239
-0.159122
-0.158951
-0.159084
-0.159202
-0.159305
-0.159412
-0.159537
-0.159696
-0.159876
-0.159967
-0.160146
-0.160587
-0.161379
-0.162121
-0.162744
-0.163134
-0.162837
-0.16078
-0.15516
-0.144675
0
0
-0.024713
-0.0578974
-0.083018
-0.103426
-0.120451
-0.135059
-0.147665
-0.1584
-0.16721
-0.17397
-0.17865
-0.181357
-0.182369
-0.181955
-0.179853
-0.178915
-0.17772
-0.176251
-0.174568
-0.173137
-0.171887
-0.170676
-0.169426
-0.168098
-0.16666
-0.165075
-0.163323
-0.161432
-0.158767
-0.158298
-0.157983
-0.158289
-0.158645
-0.158859
-0.158917
-0.158863
-0.158756
-0.158587
-0.158467
-0.158376
-0.158196
-0.153767
-0.158206
-0.158511
-0.15869
-0.158842
-0.159008
-0.159238
-0.159556
-0.159629
-0.159842
-0.160282
-0.160911
-0.161567
-0.16221
-0.162678
-0.162492
-0.16047
-0.154893
-0.144421
0
0
-0.0246881
-0.057831
-0.0829318
-0.104716
-0.120334
-0.134884
-0.147478
-0.158219
-0.167046
-0.173838
-0.178511
-0.181181
-0.182128
-0.181709
-0.180275
-0.178866
-0.177384
-0.175701
-0.173598
-0.172334
-0.171279
-0.170162
-0.168921
-0.167524
-0.165907
-0.163919
-0.161252
-0.157147
-0.146851
-0.15112
-0.154328
-0.156171
-0.157194
-0.157722
-0.157926
-0.157933
-0.158692
-0.157616
-0.157456
-0.157414
-0.157397
-0.157317
-0.157637
-0.157916
-0.158139
-0.158323
-0.158499
-0.158733
-0.15919
-0.159137
-0.159416
-0.159947
-0.16066
-0.161221
-0.16185
-0.162371
-0.163228
-0.160255
-0.154673
-0.144175
0
0
-0.0246686
-0.057778
-0.0828182
-0.103148
-0.120116
-0.134699
-0.147306
-0.158057
-0.166891
-0.173682
-0.178357
-0.181019
-0.181963
-0.181618
-0.180463
-0.178996
-0.177401
-0.175607
-0.172921
-0.172237
-0.171317
-0.170129
-0.168758
-0.167209
-0.165368
-0.162898
-0.158695
-0.147724
0.0647238
-0.136391
-0.149059
-0.153866
-0.155928
-0.156813
-0.157094
-0.157015
-0.156725
-0.156256
-0.155841
-0.155919
-0.156222
-0.156575
-0.156968
-0.157325
-0.157621
-0.157838
-0.157971
-0.157954
-0.157658
-0.158197
-0.158845
-0.159649
-0.163606
-0.161085
-0.161684
-0.162125
-0.16201
-0.160036
-0.154489
-0.14393
0
0
-0.0246561
-0.0577615
-0.0827426
-0.102973
-0.119942
-0.134538
-0.147162
-0.157922
-0.166761
-0.173557
-0.178247
-0.180913
-0.181857
-0.181538
-0.180452
-0.179017
-0.177528
-0.176334
-0.176456
-0.174314
-0.172301
-0.170519
-0.168839
-0.167118
-0.165178
-0.162705
-0.159021
-0.152579
-0.141111
-0.147023
-0.151819
-0.154559
-0.155949
-0.156515
-0.156543
-0.156136
-0.155298
-0.153929
-0.152013
-0.152784
-0.15408
-0.155194
-0.156038
-0.15666
-0.157118
-0.157408
-0.157579
-0.157579
-0.157527
-0.157702
-0.158386
-0.159243
-0.160193
-0.160936
-0.161917
-0.162042
-0.161819
-0.15988
-0.154341
-0.143652
0
0
-0.0246351
-0.0577734
-0.0826406
-0.102798
-0.119757
-0.134409
-0.147071
-0.157836
-0.166671
-0.173481
-0.17822
-0.180891
-0.181801
-0.181438
-0.180326
-0.178887
-0.177406
-0.17611
-0.175176
-0.173666
-0.172003
-0.170356
-0.168728
-0.167056
-0.165239
-0.163134
-0.160553
-0.157159
-0.153982
-0.154253
-0.155319
-0.156171
-0.156592
-0.15659
-0.156197
-0.15526
-0.153364
-0.149193
-0.139468
-0.14558
-0.150385
-0.153254
-0.15494
-0.15597
-0.156652
-0.157041
-0.157299
-0.157427
-0.157375
-0.15721
-0.158073
-0.158984
-0.159875
-0.16105
-0.172425
-0.162168
-0.161795
-0.159787
-0.154206
-0.143311
0
0
-0.0245355
-0.0572851
-0.0822195
-0.10244
-0.11951
-0.135869
-0.147127
-0.157821
-0.166615
-0.173447
-0.17832
-0.180962
-0.181752
-0.181253
-0.180056
-0.178584
-0.177065
-0.175604
-0.174268
-0.172885
-0.171462
-0.170016
-0.168543
-0.16702
-0.165414
-0.16372
-0.162007
-0.15959
-0.157735
-0.15738
-0.157454
-0.15746
-0.157249
-0.156771
-0.156024
-0.154547
-0.151209
-0.140584
0.068166
-0.132073
-0.146103
-0.151579
-0.154114
-0.155443
-0.156182
-0.156736
-0.157128
-0.157408
-0.157491
-0.157
-0.15823
-0.159019
-0.159713
-0.160579
-0.161678
-0.161524
-0.161731
-0.159643
-0.154039
-0.142255
0
0
-0.0245206
-0.0573146
-0.0821563
-0.102257
-0.119354
-0.134413
-0.147077
-0.157721
-0.166474
-0.17336
-0.178568
-0.181018
-0.181547
-0.180811
-0.17952
-0.178074
-0.176576
-0.175026
-0.173655
-0.17237
-0.171092
-0.169787
-0.168443
-0.16705
-0.165603
-0.164121
-0.162634
-0.161064
-0.1591
-0.159107
-0.158894
-0.158443
-0.157809
-0.15699
-0.156123
-0.154573
-0.151761
-0.146103
-0.135217
-0.142519
-0.148808
-0.152276
-0.154235
-0.155384
-0.156102
-0.156637
-0.157097
-0.157623
-0.158499
-0.160167
-0.159507
-0.15936
-0.159625
-0.160156
-0.160802
-0.161217
-0.161247
-0.159312
-0.153699
-0.142779
0
0
-0.0245273
-0.0573607
-0.0821523
-0.102078
-0.119257
-0.134663
-0.14693
-0.15739
-0.166073
-0.172959
-0.17864
-0.180501
-0.180806
-0.179846
-0.178607
-0.177397
-0.176062
-0.174434
-0.173246
-0.172139
-0.17098
-0.169758
-0.168486
-0.167162
-0.165775
-0.164307
-0.162681
-0.162315
-0.163061
-0.161641
-0.16035
-0.159254
-0.158258
-0.15729
-0.156334
-0.155101
-0.153408
-0.151209
-0.149155
-0.150266
-0.152202
-0.153767
-0.154891
-0.155642
-0.156182
-0.156639
-0.157072
-0.157579
-0.158277
-0.159102
-0.159185
-0.159228
-0.159445
-0.159884
-0.160506
-0.161038
-0.160969
-0.159103
-0.15358
-0.142942
0
0
-0.0245362
-0.057402
-0.0822639
-0.102621
-0.119248
-0.132766
-0.145541
-0.156451
-0.165289
-0.171738
-0.174842
-0.178027
-0.179371
-0.178408
-0.177573
-0.176927
-0.175913
-0.174168
-0.17338
-0.172372
-0.171195
-0.169947
-0.168676
-0.167356
-0.16593
-0.164126
-0.146668
-0.161919
-0.16223
-0.161519
-0.160474
-0.15937
-0.158285
-0.157267
-0.156426
-0.15559
-0.154723
-0.153949
-0.153581
-0.153806
-0.15438
-0.155037
-0.155695
-0.156026
-0.156327
-0.156686
-0.15703
-0.157416
-0.15789
-0.158391
-0.158722
-0.15895
-0.159203
-0.15965
-0.160385
-0.160964
-0.160892
-0.159059
-0.153554
-0.143036
0
0
-0.0245383
-0.0574095
-0.0822536
-0.102425
-0.119165
-0.133277
-0.145734
-0.156407
-0.165086
-0.171508
-0.175702
-0.178512
-0.179873
-0.177663
-0.17791
-0.177581
-0.176863
-0.176581
-0.174864
-0.173179
-0.171647
-0.170251
-0.168956
-0.167632
-0.166228
-0.164677
-0.162824
-0.162445
-0.162
-0.161239
-0.160249
-0.159092
-0.157793
-0.156396
-0.155892
-0.155536
-0.155291
-0.155126
-0.155122
-0.155255
-0.155513
-0.155926
-0.159946
-0.156446
-0.156445
-0.156767
-0.156997
-0.157263
-0.157627
-0.158087
-0.158496
-0.158769
-0.158963
-0.159374
-0.160356
-0.160965
-0.160936
-0.159155
-0.153578
-0.143057
0
0
-0.0245374
-0.0574067
-0.0822337
-0.102348
-0.119177
-0.133588
-0.14609
-0.156614
-0.165079
-0.171107
-0.176092
-0.1792
-0.181013
-0.182921
-0.181279
-0.179452
-0.17785
-0.17648
-0.174866
-0.173252
-0.171745
-0.170396
-0.169229
-0.167921
-0.16654
-0.165177
-0.163929
-0.163008
-0.16216
-0.161198
-0.160059
-0.158596
-0.156435
-0.152589
-0.153822
-0.154399
-0.155086
-0.155462
-0.155685
-0.155866
-0.156065
-0.156318
-0.156617
-0.156524
-0.156412
-0.156875
-0.156963
-0.157121
-0.157444
-0.158006
-0.158511
-0.158728
-0.158751
-0.159009
-0.160401
-0.160955
-0.161019
-0.159388
-0.153618
-0.142999
0
0
-0.0245374
-0.0574083
-0.082234
-0.102353
-0.119257
-0.133853
-0.146682
-0.156949
-0.164893
-0.150431
-0.175661
-0.179358
-0.181123
-0.18181
-0.180957
-0.179537
-0.178105
-0.176361
-0.174682
-0.173109
-0.171662
-0.170419
-0.169532
-0.168132
-0.166684
-0.165376
-0.164245
-0.163259
-0.162337
-0.161266
-0.159996
-0.158057
-0.153757
-0.0715271
-0.149268
-0.142156
-0.154411
-0.155482
-0.155935
-0.156179
-0.156381
-0.156579
-0.156662
-0.156619
-0.156575
-0.156727
-0.156806
-0.156925
-0.157218
-0.158032
-0.158888
-0.158553
-0.158603
-0.159024
-0.159962
-0.160664
-0.160948
-0.159711
-0.153566
-0.142814
0
0
-0.0245397
-0.0574174
-0.0822505
-0.102389
-0.119365
-0.13422
-0.1584
-0.157806
-0.165735
-0.17136
-0.176574
-0.179728
-0.181115
-0.181238
-0.180457
-0.179365
-0.182746
-0.176431
-0.174579
-0.172968
-0.171512
-0.170269
-0.169681
-0.167907
-0.166434
-0.165245
-0.164239
-0.163385
-0.162405
-0.161417
-0.160377
-0.158529
-0.155664
-0.150813
-0.152808
-0.153944
-0.15521
-0.155894
-0.156232
-0.156434
-0.156638
-0.156876
-0.156838
-0.15671
-0.156621
-0.156619
-0.156642
-0.15668
-0.156795
-0.157764
-0.158986
-0.15803
-0.158316
-0.158848
-0.159536
-0.16012
-0.160327
-0.159613
-0.153059
-0.142451
0
0
-0.0245448
-0.0574342
-0.0822746
-0.102415
-0.119382
-0.13413
-0.147275
-0.15788
-0.166374
-0.17277
-0.177349
-0.180047
-0.181127
-0.181003
-0.180124
-0.178926
-0.177784
-0.176043
-0.174378
-0.172813
-0.171284
-0.169629
-0.167156
-0.166436
-0.165696
-0.164929
-0.164098
-0.163127
-0.162381
-0.161724
-0.167176
-0.15962
-0.157847
-0.156337
-0.156104
-0.156181
-0.156378
-0.156514
-0.156586
-0.156657
-0.15684
-0.157216
-0.156961
-0.156696
-0.156556
-0.15651
-0.156505
-0.156499
-0.15644
-0.156236
-0.155109
-0.157189
-0.157975
-0.158581
-0.159127
-0.15934
-0.158411
-0.154928
-0.151385
-0.141992
0
0
-0.0245547
-0.0574638
-0.0823116
-0.102439
-0.119365
-0.134004
-0.146846
-0.158127
-0.166725
-0.173102
-0.177487
-0.180022
-0.180988
-0.180782
-0.179828
-0.178499
-0.177125
-0.175675
-0.17421
-0.172734
-0.171231
-0.170189
-0.167939
-0.16682
-0.165802
-0.165061
-0.164291
-0.163443
-0.162645
-0.161914
-0.161312
-0.160145
-0.159071
-0.158251
-0.157734
-0.157408
-0.157187
-0.157013
-0.156865
-0.156761
-0.156802
-0.157334
-0.156712
-0.156444
-0.156373
-0.156373
-0.156394
-0.156407
-0.156381
-0.156278
-0.15615
-0.157008
-0.157734
-0.158361
-0.158914
-0.159204
-0.158687
-0.156312
-0.151565
-0.141879
0
0
-0.0245759
-0.0575245
-0.082385
-0.102482
-0.119347
-0.133884
-0.146624
-0.158396
-0.166413
-0.172635
-0.177048
-0.179662
-0.180697
-0.180525
-0.179552
-0.178113
-0.176847
-0.175598
-0.174263
-0.172827
-0.171303
-0.169873
-0.168454
-0.167188
-0.165945
-0.165442
-0.164696
-0.163827
-0.162957
-0.162126
-0.161323
-0.160473
-0.159687
-0.159029
-0.158489
-0.158044
-0.157666
-0.157335
-0.157027
-0.156688
-0.156148
-0.15501
-0.155563
-0.155941
-0.156136
-0.156241
-0.156309
-0.156366
-0.156426
-0.15651
-0.156699
-0.157135
-0.157669
-0.15825
-0.158856
-0.159367
-0.161164
-0.157207
-0.151942
-0.141932
0
0
-0.0246256
-0.0576655
-0.0825535
-0.102576
-0.119351
-0.133701
-0.145811
-0.154806
-0.164048
-0.171289
-0.176293
-0.179232
-0.180438
-0.180361
-0.179463
-0.177673
-0.176827
-0.175854
-0.174597
-0.173122
-0.171468
-0.170102
-0.168822
-0.167506
-0.165974
-0.166061
-0.165185
-0.164186
-0.163235
-0.162349
-0.161523
-0.160754
-0.16006
-0.159449
-0.158907
-0.158417
-0.157968
-0.157549
-0.157146
-0.156729
-0.156252
-0.155743
-0.155791
-0.155959
-0.156096
-0.15619
-0.156261
-0.156338
-0.156443
-0.156601
-0.156841
-0.157182
-0.157627
-0.158174
-0.158805
-0.159361
-0.159335
-0.15742
-0.152125
-0.142002
0
0
-0.0247466
-0.0580308
-0.0829428
-0.102778
-0.119473
-0.133755
-0.145893
-0.15588
-0.164574
-0.171483
-0.17636
-0.179255
-0.180459
-0.180437
-0.184898
-0.17698
-0.177268
-0.176533
-0.175212
-0.173622
-0.171767
-0.170581
-0.16935
-0.168111
-0.166949
-0.166249
-0.165331
-0.164344
-0.163391
-0.162509
-0.161704
-0.160976
-0.160327
-0.159748
-0.159209
-0.158692
-0.158191
-0.157709
-0.157242
-0.156796
-0.156405
-0.156153
-0.156092
-0.156116
-0.156156
-0.156192
-0.156231
-0.156297
-0.15641
-0.156579
-0.156815
-0.157131
-0.157542
-0.158069
-0.158712
-0.15929
-0.159203
-0.157399
-0.152202
-0.142056
0
0
-0.0250372
-0.0591518
-0.0836244
-0.1033
-0.119835
-0.134025
-0.146211
-0.156551
-0.165171
-0.171905
-0.176638
-0.17944
-0.180563
-0.180355
-0.179016
-0.175161
-0.178446
-0.177434
-0.17577
-0.174314
-0.173222
-0.171545
-0.170015
-0.168704
-0.167714
-0.166582
-0.165454
-0.164409
-0.163461
-0.162605
-0.161836
-0.161152
-0.160553
-0.160022
-0.159492
-0.158942
-0.158385
-0.157834
-0.157295
-0.156787
-0.156397
-0.156261
-0.156241
-0.156232
-0.156211
-0.156186
-0.156171
-0.156203
-0.156307
-0.156469
-0.156699
-0.157008
-0.157405
-0.157917
-0.158585
-0.159246
-0.15915
-0.157324
-0.152241
-0.142112
0
0
-0.0255691
-0.0808813
-0.0851573
-0.103982
-0.120209
-0.134261
-0.146406
-0.156771
-0.165386
-0.172079
-0.176774
-0.179558
-0.180675
-0.180461
-0.17933
-0.177462
-0.1776
-0.176799
-0.17551
-0.174133
-0.172859
-0.171458
-0.170086
-0.168859
-0.168058
-0.166621
-0.16541
-0.164385
-0.163483
-0.162676
-0.161951
-0.161317
-0.160785
-0.16034
-0.15981
-0.159198
-0.158562
-0.157929
-0.157295
-0.156653
-0.156183
-0.156235
-0.156325
-0.156299
-0.156198
-0.156081
-0.155973
-0.155951
-0.156045
-0.156213
-0.156466
-0.156807
-0.157218
-0.157718
-0.158441
-0.159267
-0.159194
-0.157404
-0.152172
-0.142174
0
0
-0.025131
-0.0594298
-0.0838912
-0.103545
-0.12
-0.134151
-0.146282
-0.156504
-0.16522
-0.171973
-0.176721
-0.17957
-0.180762
-0.180636
-0.179987
-0.178821
-0.177797
-0.176616
-0.175302
-0.173955
-0.172631
-0.171326
-0.170022
-0.168623
-0.166767
-0.165939
-0.165143
-0.164325
-0.163516
-0.162766
-0.162082
-0.161491
-0.161047
-0.160761
-0.160171
-0.159438
-0.158702
-0.157994
-0.157292
-0.156376
-0.155692
-0.156235
-0.156452
-0.156297
-0.155982
-0.155648
-0.155369
-0.155268
-0.155365
-0.155607
-0.155995
-0.156484