# vtk DataFile Version 2.0
FlowField
ASCII
DATASET STRUCTURED_GRID
DIMENSIONS 62 47 32 
POINTS 93248 double
0 0 0
0.01 0 0
0.02 0 0
0.03 0 0
0.04 0 0
0.05 0 0
0.06 0 0
0.07 0 0
0.08 0 0
0.09 0 0
0.1 0 0
0.11 0 0
0.12 0 0
0.13 0 0
0.14 0 0
0.15 0 0
0.16 0 0
0.17 0 0
0.18 0 0
0.19 0 0
0.2 0 0
0.21 0 0
0.22 0 0
0.23 0 0
0.24 0 0
0.25 0 0
0.26 0 0
0.27 0 0
0.28 0 0
0.29 0 0
0.3 0 0
0.31 0 0
0.32 0 0
0.33 0 0
0.34 0 0
0.35 0 0
0.36 0 0
0.37 0 0
0.38 0 0
0.39 0 0
0.4 0 0
0.41 0 0
0.42 0 0
0.43 0 0
0.44 0 0
0.45 0 0
0.46 0 0
0.47 0 0
0.48 0 0
0.49 0 0
0.5 0 0
0.51 0 0
0.52 0 0
0.53 0 0
0.54 0 0
0.55 0 0
0.56 0 0
0.57 0 0
0.58 0 0
0.59 0 0
0.6 0 0
0.61 0 0
0 0.01 0
0.01 0.01 0
0.02 0.01 0
0.03 0.01 0
0.04 0.01 0
0.05 0.01 0
0.06 0.01 0
0.07 0.01 0
0.08 0.01 0
0.09 0.01 0
0.1 0.01 0
0.11 0.01 0
0.12 0.01 0
0.13 0.01 0
0.14 0.01 0
0.15 0.01 0
0.16 0.01 0
0.17 0.01 0
0.18 0.01 0
0.19 0.01 0
0.2 0.01 0
0.21 0.01 0
0.22 0.01 0
0.23 0.01 0
0.24 0.01 0
0.25 0.01 0
0.26 0.01 0
0.27 0.01 0
0.28 0.01 0
0.29 0.01 0
0.3 0.01 0
0.31 0.01 0
0.32 0.01 0
0.33 0.01 0
0.34 0.01 0
0.35 0.01 0
0.36 0.01 0
0.37 0.01 0
0.38 0.01 0
0.39 0.01 0
0.4 0.01 0
0.41 0.01 0
0.42 0.01 0
0.43 0.01 0
0.44 0.01 0
0.45 0.01 0
0.46 0.01 0
0.47 0.01 0
0.48 0.01 0
0.49 0.01 0
0.5 0.01 0
0.51 0.01 0
0.52 0.01 0
0.53 0.01 0
0.54 0.01 0
0.55 0.01 0
0.56 0.01 0
0.57 0.01 0
0.58 0.01 0
0.59 0.01 0
0.6 0.01 0
0.61 0.01 0
0 0.02 0
0.01 0.02 0
0.02 0.02 0
0.03 0.02 0
0.04 0.02 0
0.05 0.02 0
0.06 0.02 0
0.07 0.02 0
0.08 0.02 0
0.09 0.02 0
0.1 0.02 0
0.11 0.02 0
0.12 0.02 0
0.13 0.02 0
0.14 0.02 0
0.15 0.02 0
0.16 0.02 0
0.17 0.02 0
0.18 0.02 0
0.19 0.02 0
0.2 0.02 0
0.21 0.02 0
0.22 0.02 0
0.23 0.02 0
0.24 0.02 0
0.25 0.02 0
0.26 0.02 0
0.27 0.02 0
0.28 0.02 0
0.29 0.02 0
0.3 0.02 0
0.31 0.02 0
0.32 0.02 0
0.33 0.02 0
0.34 0.02 0
0.35 0.02 0
0.36 0.02 0
0.37 0.02 0
0.38 0.02 0
0.39 0.02 0
0.4 0.02 0
0.41 0.02 0
0.42 0.02 0
0.43 0.02 0
0.44 0.02 0
0.45 0.02 0
0.46 0.02 0
0.47 0.02 0
0.48 0.02 0
0.49 0.02 0
0.5 0.02 0
0.51 0.02 0
0.52 0.02 0
0.53 0.02 0
0.54 0.02 0
0.55 0.02 0
0.56 0.02 0
0.57 0.02 0
0.58 0.02 0
0.59 0.02 0
0.6 0.02 0
0.61 0.02 0
0 0.03 0
0.01 0.03 0
0.02 0.03 0
0.03 0.03 0
0.04 0.03 0
0.05 0.03 0
0.06 0.03 0
0.07 0.03 0
0.08 0.03 0
0.09 0.03 0
0.1 0.03 0
0.11 0.03 0
0.12 0.03 0
0.13 0.03 0
0.14 0.03 0
0.15 0.03 0
0.16 0.03 0
0.17 0.03 0
0.18 0.03 0
0.19 0.03 0
0.2 0.03 0
0.21 0.03 0
0.22 0.03 0
0.23 0.03 0
0.24 0.03 0
0.25 0.03 0
0.26 0.03 0
0.27 0.03 0
0.28 0.03 0
0.29 0.03 0
0.3 0.03 0
0.31 0.03 0
0.32 0.03 0
0.33 0.03 0
0.34 0.03 0
0.35 0.03 0
0.36 0.03 0
0.37 0.03 0
0.38 0.03 0
0.39 0.03 0
0.4 0.03 0
0.41 0.03 0
0.42 0.03 0
0.43 0.03 0
0.44 0.03 0
0.45 0.03 0
0.46 0.03 0
0.47 0.03 0
0.48 0.03 0
0.49 0.03 0
0.5 0.03 0
0.51 0.03 0
0.52 0.03 0
0.53 0.03 0
0.54 0.03 0
0.55 0.03 0
0.56 0.03 0
0.57 0.03 0
0.58 0.03 0
0.59 0.03 0
0.6 0.03 0
0.61 0.03 0
0 0.04 0
0.01 0.04 0
0.02 0.04 0
0.03 0.04 0
0.04 0.04 0
0.05 0.04 0
0.06 0.04 0
0.07 0.04 0
0.08 0.04 0
0.09 0.04 0
0.1 0.04 0
0.11 0.04 0
0.12 0.04 0
0.13 0.04 0
0.14 0.04 0
0.15 0.04 0
0.16 0.04 0
0.17 0.04 0
0.18 0.04 0
0.19 0.04 0
0.2 0.04 0
0.21 0.04 0
0.22 0.04 0
0.23 0.04 0
0.24 0.04 0
0.25 0.04 0
0.26 0.04 0
0.27 0.04 0
0.28 0.04 0
0.29 0.04 0
0.3 0.04 0
0.31 0.04 0
0.32 0.04 0
0.33 0.04 0
0.34 0.04 0
0.35 0.04 0
0.36 0.04 0
0.37 0.04 0
0.38 0.04 0
0.39 0.04 0
0.4 0.04 0
0.41 0.04 0
0.42 0.04 0
0.43 0.04 0
0.44 0.04 0
0.45 0.04 0
0.46 0.04 0
0.47 0.04 0
0.48 0.04 0
0.49 0.04 0
0.5 0.04 0
0.51 0.04 0
0.52 0.04 0
0.53 0.04 0
0.54 0.04 0
0.55 0.04 0
0.56 0.04 0
0.57 0.04 0
0.58 0.04 0
0.59 0.04 0
0.6 0.04 0
0.61 0.04 0
0 0.05 0
0.01 0.05 0
0.02 0.05 0
0.03 0.05 0
0.04 0.05 0
0.05 0.05 0
0.06 0.05 0
0.07 0.05 0
0.08 0.05 0
0.09 0.05 0
0.1 0.05 0
0.11 0.05 0
0.12 0.05 0
0.13 0.05 0
0.14 0.05 0
0.15 0.05 0
0.16 0.05 0
0.17 0.05 0
0.18 0.05 0
0.19 0.05 0
0.2 0.05 0
0.21 0.05 0
0.22 0.05 0
0.23 0.05 0
0.24 0.05 0
0.25 0.05 0
0.26 0.05 0
0.27 0.05 0
0.28 0.05 0
0.29 0.05 0
0.3 0.05 0
0.31 0.05 0
0.32 0.05 0
0.33 0.05 0
0.34 0.05 0
0.35 0.05 0
0.36 0.05 0
0.37 0.05 0
0.38 0.05 0
0.39 0.05 0
0.4 0.05 0
0.41 0.05 0
0.42 0.05 0
0.43 0.05 0
0.44 0.05 0
0.45 0.05 0
0.46 0.05 0
0.47 0.05 0
0.48 0.05 0
0.49 0.05 0
0.5 0.05 0
0.51 0.05 0
0.52 0.05 0
0.53 0.05 0
0.54 0.05 0
0.55 0.05 0
0.56 0.05 0
0.57 0.05 0
0.58 0.05 0
0.59 0.05 0
0.6 0.05 0
0.61 0.05 0
0 0.06 0
0.01 0.06 0
0.02 0.06 0
0.03 0.06 0
0.04 0.06 0
0.05 0.06 0
0.06 0.06 0
0.07 0.06 0
0.08 0.06 0
0.09 0.06 0
0.1 0.06 0
0.11 0.06 0
0.12 0.06 0
0.13 0.06 0
0.14 0.06 0
0.15 0.06 0
0.16 0.06 0
0.17 0.06 0
0.18 0.06 0
0.19 0.06 0
0.2 0.06 0
0.21 0.06 0
0.22 0.06 0
0.23 0.06 0
0.24 0.06 0
0.25 0.06 0
0.26 0.06 0
0.27 0.06 0
0.28 0.06 0
0.29 0.06 0
0.3 0.06 0
0.31 0.06 0
0.32 0.06 0
0.33 0.06 0
0.34 0.06 0
0.35 0.06 0
0.36 0.06 0
0.37 0.06 0
0.38 0.06 0
0.39 0.06 0
0.4 0.06 0
0.41 0.06 0
0.42 0.06 0
0.43 0.06 0
0.44 0.06 0
0.45 0.06 0
0.46 0.06 0
0.47 0.06 0
0.48 0.06 0
0.49 0.06 0
0.5 0.06 0
0.51 0.06 0
0.52 0.06 0
0.53 0.06 0
0.54 0.06 0
0.55 0.06 0
0.56 0.06 0
0.57 0.06 0
0.58 0.06 0
0.59 0.06 0
0.6 0.06 0
0.61 0.06 0
0 0.07 0
0.01 0.07 0
0.02 0.07 0
0.03 0.07 0
0.04 0.07 0
0.05 0.07 0
0.06 0.07 0
0.07 0.07 0
0.08 0.07 0
0.09 0.07 0
0.1 0.07 0
0.11 0.07 0
0.12 0.07 0
0.13 0.07 0
0.14 0.07 0
0.15 0.07 0
0.16 0.07 0
0.17 0.07 0
0.18 0.07 0
0.19 0.07 0
0.2 0.07 0
0.21 0.07 0
0.22 0.07 0
0.23 0.07 0
0.24 0.07 0
0.25 0.07 0
0.26 0.07 0
0.27 0.07 0
0.28 0.07 0
0.29 0.07 0
0.3 0.07 0
0.31 0.07 0
0.32 0.07 0
0.33 0.07 0
0.34 0.07 0
0.35 0.07 0
0.36 0.07 0
0.37 0.07 0
0.38 0.07 0
0.39 0.07 0
0.4 0.07 0
0.41 0.07 0
0.42 0.07 0
0.43 0.07 0
0.44 0.07 0
0.45 0.07 0
0.46 0.07 0
0.47 0.07 0
0.48 0.07 0
0.49 0.07 0
0.5 0.07 0
0.51 0.07 0
0.52 0.07 0
0.53 0.07 0
0.54 0.07 0
0.55 0.07 0
0.56 0.07 0
0.57 0.07 0
0.58 0.07 0
0.59 0.07 0
0.6 0.07 0
0.61 0.07 0
0 0.08 0
0.01 0.08 0
0.02 0.08 0
0.03 0.08 0
0.04 0.08 0
0.05 0.08 0
0.06 0.08 0
0.07 0.08 0
0.08 0.08 0
0.09 0.08 0
0.1 0.08 0
0.11 0.08 0
0.12 0.08 0
0.13 0.08 0
0.14 0.08 0
0.15 0.08 0
0.16 0.08 0
0.17 0.08 0
0.18 0.08 0
0.19 0.08 0
0.2 0.08 0
0.21 0.08 0
0.22 0.08 0
0.23 0.08 0
0.24 0.08 0
0.25 0.08 0
0.26 0.08 0
0.27 0.08 0
0.28 0.08 0
0.29 0.08 0
0.3 0.08 0
0.31 0.08 0
0.32 0.08 0
0.33 0.08 0
0.34 0.08 0
0.35 0.08 0
0.36 0.08 0
0.37 0.08 0
0.38 0.08 0
0.39 0.08 0
0.4 0.08 0
0.41 0.08 0
0.42 0.08 0
0.43 0.08 0
0.44 0.08 0
0.45 0.08 0
0.46 0.08 0
0.47 0.08 0
0.48 0.08 0
0.49 0.08 0
0.5 0.08 0
0.51 0.08 0
0.52 0.08 0
0.53 0.08 0
0.54 0.08 0
0.55 0.08 0
0.56 0.08 0
0.57 0.08 0
0.58 0.08 0
0.59 0.08 0
0.6 0.08 0
0.61 0.08 0
0 0.09 0
0.01 0.09 0
0.02 0.09 0
0.03 0.09 0
0.04 0.09 0
0.05 0.09 0
0.06 0.09 0
0.07 0.09 0
0.08 0.09 0
0.09 0.09 0
0.1 0.09 0
0.11 0.09 0
0.12 0.09 0
0.13 0.09 0
0.14 0.09 0
0.15 0.09 0
0.16 0.09 0
0.17 0.09 0
0.18 0.09 0
0.19 0.09 0
0.2 0.09 0
0.21 0.09 0
0.22 0.09 0
0.23 0.09 0
0.24 0.09 0
0.25 0.09 0
0.26 0.09 0
0.27 0.09 0
0.28 0.09 0
0.29 0.09 0
0.3 0.09 0
0.31 0.09 0
0.32 0.09 0
0.33 0.09 0
0.34 0.09 0
0.35 0.09 0
0.36 0.09 0
0.37 0.09 0
0.38 0.09 0
0.39 0.09 0
0.4 0.09 0
0.41 0.09 0
0.42 0.09 0
0.43 0.09 0
0.44 0.09 0
0.45 0.09 0
0.46 0.09 0
0.47 0.09 0
0.48 0.09 0
0.49 0.09 0
0.5 0.09 0
0.51 0.09 0
0.52 0.09 0
0.53 0.09 0
0.54 0.09 0
0.55 0.09 0
0.56 0.09 0
0.57 0.09 0
0.58 0.09 0
0.59 0.09 0
0.6 0.09 0
0.61 0.09 0
0 0.1 0
0.01 0.1 0
0.02 0.1 0
0.03 0.1 0
0.04 0.1 0
0.05 0.1 0
0.06 0.1 0
0.07 0.1 0
0.08 0.1 0
0.09 0.1 0
0.1 0.1 0
0.11 0.1 0
0.12 0.1 0
0.13 0.1 0
0.14 0.1 0
0.15 0.1 0
0.16 0.1 0
0.17 0.1 0
0.18 0.1 0
0.19 0.1 0
0.2 0.1 0
0.21 0.1 0
0.22 0.1 0
0.23 0.1 0
0.24 0.1 0
0.25 0.1 0
0.26 0.1 0
0.27 0.1 0
0.28 0.1 0
0.29 0.1 0
0.3 0.1 0
0.31 0.1 0
0.32 0.1 0
0.33 0.1 0
0.34 0.1 0
0.35 0.1 0
0.36 0.1 0
0.37 0.1 0
0.38 0.1 0
0.39 0.1 0
0.4 0.1 0
0.41 0.1 0
0.42 0.1 0
0.43 0.1 0
0.44 0.1 0
0.45 0.1 0
0.46 0.1 0
0.47 0.1 0
0.48 0.1 0
0.49 0.1 0
0.5 0.1 0
0.51 0.1 0
0.52 0.1 0
0.53 0.1 0
0.54 0.1 0
0.55 0.1 0
0.56 0.1 0
0.57 0.1 0
0.58 0.1 0
0.59 0.1 0
0.6 0.1 0
0.61 0.1 0
0 0.11 0
0.01 0.11 0
0.02 0.11 0
0.03 0.11 0
0.04 0.11 0
0.05 0.11 0
0.06 0.11 0
0.07 0.11 0
0.08 0.11 0
0.09 0.11 0
0.1 0.11 0
0.11 0.11 0
0.12 0.11 0
0.13 0.11 0
0.14 0.11 0
0.15 0.11 0
0.16 0.11 0
0.17 0.11 0
0.18 0.11 0
0.19 0.11 0
0.2 0.11 0
0.21 0.11 0
0.22 0.11 0
0.23 0.11 0
0.24 0.11 0
0.25 0.11 0
0.26 0.11 0
0.27 0.11 0
0.28 0.11 0
0.29 0.11 0
0.3 0.11 0
0.31 0.11 0
0.32 0.11 0
0.33 0.11 0
0.34 0.11 0
0.35 0.11 0
0.36 0.11 0
0.37 0.11 0
0.38 0.11 0
0.39 0.11 0
0.4 0.11 0
0.41 0.11 0
0.42 0.11 0
0.43 0.11 0
0.44 0.11 0
0.45 0.11 0
0.46 0.11 0
0.47 0.11 0
0.48 0.11 0
0.49 0.11 0
0.5 0.11 0
0.51 0.11 0
0.52 0.11 0
0.53 0.11 0
0.54 0.11 0
0.55 0.11 0
0.56 0.11 0
0.57 0.11 0
0.58 0.11 0
0.59 0.11 0
0.6 0.11 0
0.61 0.11 0
0 0.12 0
0.01 0.12 0
0.02 0.12 0
0.03 0.12 0
0.04 0.12 0
0.05 0.12 0
0.06 0.12 0
0.07 0.12 0
0.08 0.12 0
0.09 0.12 0
0.1 0.12 0
0.11 0.12 0
0.12 0.12 0
0.13 0.12 0
0.14 0.12 0
0.15 0.12 0
0.16 0.12 0
0.17 0.12 0
0.18 0.12 0
0.19 0.12 0
0.2 0.12 0
0.21 0.12 0
0.22 0.12 0
0.23 0.12 0
0.24 0.12 0
0.25 0.12 0
0.26 0.12 0
0.27 0.12 0
0.28 0.12 0
0.29 0.12 0
0.3 0.12 0
0.31 0.12 0
0.32 0.12 0
0.33 0.12 0
0.34 0.12 0
0.35 0.12 0
0.36 0.12 0
0.37 0.12 0
0.38 0.12 0
0.39 0.12 0
0.4 0.12 0
0.41 0.12 0
0.42 0.12 0
0.43 0.12 0
0.44 0.12 0
0.45 0.12 0
0.46 0.12 0
0.47 0.12 0
0.48 0.12 0
0.49 0.12 0
0.5 0.12 0
0.51 0.12 0
0.52 0.12 0
0.53 0.12 0
0.54 0.12 0
0.55 0.12 0
0.56 0.12 0
0.57 0.12 0
0.58 0.12 0
0.59 0.12 0
0.6 0.12 0
0.61 0.12 0
0 0.13 0
0.01 0.13 0
0.02 0.13 0
0.03 0.13 0
0.04 0.13 0
0.05 0.13 0
0.06 0.13 0
0.07 0.13 0
0.08 0.13 0
0.09 0.13 0
0.1 0.13 0
0.11 0.13 0
0.12 0.13 0
0.13 0.13 0
0.14 0.13 0
0.15 0.13 0
0.16 0.13 0
0.17 0.13 0
0.18 0.13 0
0.19 0.13 0
0.2 0.13 0
0.21 0.13 0
0.22 0.13 0
0.23 0.13 0
0.24 0.13 0
0.25 0.13 0
0.26 0.13 0
0.27 0.13 0
0.28 0.13 0
0.29 0.13 0
0.3 0.13 0
0.31 0.13 0
0.32 0.13 0
0.33 0.13 0
0.34 0.13 0
0.35 0.13 0
0.36 0.13 0
0.37 0.13 0
0.38 0.13 0
0.39 0.13 0
0.4 0.13 0
0.41 0.13 0
0.42 0.13 0
0.43 0.13 0
0.44 0.13 0
0.45 0.13 0
0.46 0.13 0
0.47 0.13 0
0.48 0.13 0
[...]
POINT_DATA 93248

SCALARS v double
LOOKUP_TABLE default
0
0
0
0
0
0
0
0
0
0
0
0
0
0
0
0
0
0
0
0
0
0
0
0
0
0
0
0
0
0
0
0
0
0
0
0
0
0
-0.0313726
0
0
0
0
0
-0.0330665
0
0
0
0
0
0
0
0
0
0
0
0
0
0
0
0
0
0
0.0474409
-0.0491589
0.0514492
0.03652
0.0168657
0
-0.0105935
-0.0148878
-0.0164633
-0.0171481
-0.0173596
-0.017923
-0.0179012
-0.0179471
-0.017924
-0.0180377
-0.0179501
-0.0178741
-0.0173071
-0.0194145
-0.0187324
-0.0184297
-0.0182938
-0.0183158
-0.0183506
-0.0183746
-0.0183884
-0.0183939
-0.0183911
-0.0183791
-0.0183767
-0.0185477
-0.0183378
-0.0181066
-0.0181513
-0.0225842
-0.0188886
-0.021308
-0.0134465
-0.0183732
-0.02198
-0.019434
-0.0191897
-0.0192588
-0.0206844
-0.0372698
-0.0188225
-0.0214541
-0.0182986
-0.0182297
-0.0183615
-0.018932
-0.0192475
-0.0234685
-0.018781
-0.027989
-0.0184249
-0.0174727
-0.0158277
-0.01268
0
0
0.0285192
0.0545886
0.0621408
0.0531665
0.0324955
0.0122425
-0.00229189
-0.0101271
-0.0140225
-0.0162197
-0.0170476
-0.035622
-0.019011
-0.0193183
-0.0148758
-0.0198472
-0.0195949
-0.0201397
-0.021145
-0.039703
-0.0202381
-0.0202191
-0.0204697
-0.0206159
-0.0207144
-0.0207784
-0.0208197
-0.0208427
-0.020846
-0.0208192
-0.020769
-0.0295205
-0.0208738
-0.0202169
-0.0202672
-0.0193295
-0.0170191
-0.012874
-0.0242266
-0.0258454
-0.0248187
-0.0233262
-0.0225551
-0.0220672
-0.0218589
-0.0224652
-0.0216653
-0.0214541
-0.0207559
-0.0207107
-0.0205368
-0.0211719
-0.0214361
-0.0216845
-0.0209698
-0.0206357
-0.0312931
-0.0192638
-0.0175745
-0.0149502
0
0
0.0152214
0.0379574
0.050089
0.0489513
0.0363411
0.018856
0.00505269
-0.00373541
-0.00894703
-0.012035
-0.0145204
-0.0164306
-0.0173672
-0.0180904
-0.0186934
-0.0193351
0
-0.0194869
-0.0202131
-0.0203076
-0.0201678
-0.0202241
-0.0203773
-0.0205262
-0.0206461
-0.0207389
-0.0208066
-0.0208519
-0.0208759
-0.020881
-0.0208898
-0.0210358
-0.0207331
-0.0207808
-0.0198276
-0.019069
-0.0177497
-0.0167548
-0.0222503
-0.0244902
-0.0243704
-0.0235804
-0.0227465
-0.0225119
-0.0225827
-0.0212122
-0.0210838
-0.020923
-0.0213457
-0.0211409
-0.0210238
-0.0211458
-0.0211894
-0.021113
-0.0207716
-0.0204605
-0.0202401
-0.01924
-0.0179604
-0.0161009
0
0
0.00887453
0.0246206
0.0366742
0.0395609
0.0323755
0.0200267
0.00861131
0.000430335
-0.00508836
-0.00887768
-0.0117645
-0.0139218
-0.0154058
-0.0165341
-0.0177668
-0.0180847
-0.018028
-0.0186523
-0.0191899
-0.0195317
-0.0197048
-0.0198612
-0.0200305
-0.020192
-0.0203344
-0.0204528
-0.0205456
-0.0206133
-0.0206573
-0.0206823
-0.0207025
-0.0207501
-0.0207715
-0.0205717
-0.0200072
-0.0195024
-0.0190532
-0.0192441
-0.0213448
-0.0227305
-0.0230314
-0.0227992
-0.0224465
-0.0222565
-0.0220031
-0.020691
-0.0209445
-0.0210262
-0.0211587
-0.0210791
-0.0209917
-0.020937
-0.0208298
-0.0206545
-0.0203932
-0.0200983
-0.0197439
-0.019095
-0.0181697
-0.0170363
0
0
0.00572277
0.0163703
0.0260022
0.0303054
0.0267063
0.0181366
0.00913766
0.0021442
-0.00298241
-0.00683132
-0.00983815
-0.0121498
-0.0138833
-0.0151624
-0.0157841
-0.0169995
-0.017524
-0.01811
-0.0185894
-0.0190146
-0.0193344
-0.0195898
-0.0198118
-0.0200087
-0.0201805
-0.0203276
-0.0204458
-0.0205345
-0.0205941
-0.0206272
-0.0206417
-0.0206806
-0.0211133
-0.0206991
-0.020313
-0.0200633
-0.0199948
-0.0203061
-0.0211877
-0.0219217
-0.0222414
-0.0222625
-0.0221695
-0.0221069
-0.0219688
0
-0.0211264
-0.0212643
-0.0212354
-0.0211604
-0.0210737
-0.0209386
-0.020703
-0.0204634
-0.0202262
-0.01997
-0.0196637
-0.0192105
-0.0183752
-0.0179486
-0.0369443
0
0.00392565
0.0111738
0.0186223
0.0228218
0.0209744
0.0150002
0.00771801
0
-0.00230848
-0.00587884
-0.00876809
-0.0110944
-0.0129322
-0.0143697
-0.0155355
-0.0167944
-0.0170841
-0.0175159
-0.0181786
-0.0187219
-0.0191447
-0.0194731
-0.0197453
-0.0199801
-0.0201835
-0.0203634
-0.0205079
-0.0206165
-0.0206883
-0.0207223
-0.0207128
-0.0206529
-0.0390489
-0.0209894
-0.0206398
-0.020577
-0.0206422
-0.0208923
-0.0213217
-0.0217195
-0.0219573
-0.0220364
-0.0220215
-0.0219387
-0.0217019
-0.0209181
-0.0212444
-0.021381
-0.0213996
-0.0213889
-0.0213543
-0.0211852
-0.020734
-0.0204199
-0.0202238
-0.0200438
-0.0198932
-0.020019
-0.0201884
-0.0181061
0
0
0.00277769
0.00772708
0.0133614
0.0168834
0.0156657
0.0108505
0.00596305
0.00126633
-0.00259537
-0.00580657
-0.00845994
-0.0106192
-0.0124687
-0.0139444
-0.0152978
-0.017173
-0.0168212
-0.017279
-0.0180175
-0.018644
-0.0191331
-0.0195017
-0.0198071
-0.0200754
-0.0203087
-0.0205263
-0.020697
-0.0208267
-0.0209103
-0.0209543
-0.0210234
-0.0211286
-0.0215877
-0.0213142
-0.0211455
-0.0211125
-0.0211824
-0.0213503
-0.021589
-0.0218193
-0.02198
-0.0220552
-0.0220471
-0.0219782
-0.0218187
-0.0215515
-0.0215752
-0.0216256
-0.0216712
-0.021754
-0.0218701
-0.0217621
-0.0207757
-0.0203796
-0.0202988
-0.0202022
-0.0200432
-0.0300876
-0.017933
-0.0177854
0
0
0.0019833
0.00527585
0.00942683
0.0121155
0.011078
0.00734152
0.00327536
-0.000400247
-0.00357867
-0.00632837
-0.00865545
-0.0105111
-0.0138833
-0.0137236
-0.0146787
-0.0147704
-0.0168312
-0.0178484
-0.0183735
-0.0188213
-0.0193123
-0.0196547
-0.0199735
-0.020273
-0.0205263
-0.0207795
-0.0209856
-0.0211459
-0.0212385
-0.0212539
-0.021382
-0.0215169
-0.0216851
-0.0216569
-0.0216131
-0.0216247
-0.0216764
-0.0217873
-0.0219352
-0.0220783
-0.0221833
-0.0222353
-0.0222321
-0.0221811
-0.0220853
-0.0219695
-0.0219306
-0.0219337
-0.0219882
-0.0221694
-0.0225681
-0.0228912
-0.0206042
-0.020292
-0.0204934
-0.0205899
-0.0205548
-0.020498
-0.0195136
-0.0181843
0
0
0.00140114
0.00342445
0.00634391
0.00818326
0.00706386
0.00390497
0.000553674
-0.00236826
-0.00494304
-0.00726002
-0.00934327
-0.011285
-0.0127064
-0.013924
-0.0148758
-0.0155993
-0.0169154
-0.0178538
-0.0184885
-0.0189955
-0.0226146
-0.0198921
-0.0202124
-0.0205477
-0.020878
-0.0211354
-0.0213829
-0.0215917
-0.0217114
-0.0216403
-0.021753
-0.0218701
-0.0220033
-0.0220556
-0.0220795
-0.0221284
-0.0221617
-0.0222375
-0.0223411
-0.022437
-0.0225047
-0.0225352
-0.0225271
-0.0224856
-0.0224185
-0.0223424
-0.0222837
-0.0222441
-0.0222412
-0.0223542
-0.0227637
-0.0233575
-0.0201247
-0.0206454
-0.0210656
-0.0211779
-0.0211265
-0.0209451
-0.0202934
-0.0187135
0
0
0.000954696
0.00195889
0.00384342
0.0048323
0.00352942
0.000700064
-0.00209817
-0.00444295
-0.00652279
-0.00845613
-0.0102414
-0.011863
-0.0132335
-0.0143907
-0.0152632
-0.0161712
-0.0171893
-0.0180544
-0.0187459
-0.019352
-0.0197946
-0.0201815
-0.0205484
-0.0208931
-0.0212021
-0.0215476
-0.0218721
-0.0221819
-0.0224625
-0.0226425
-0.0216887
-0.0220565
-0.0223488
-0.0224853
-0.0225428
-0.0225842
-0.0226996
-0.0227336
-0.0228089
-0.0228735
-0.0229125
-0.0229228
-0.0229025
-0.0228592
-0.0227989
-0.0227281
-0.0226501
-0.0225529
-0.022399
-0.0220802
-0.0213324
-0.0201358
-0.0238549
-0.0231618
-0.0224306
-0.0220205
-0.0217775
-0.021518
-0.0209101
-0.0192451
0
0
0.000598019
0.000754031
0.00178573
-0.00317109
0.000404906
-0.00222853
-0.00463217
-0.00653658
-0.00822229
-0.00982688
-0.0113426
-0.0127444
-0.014004
-0.0151044
-0.0156166
-0.0166416
-0.0176217
-0.018453
-0.0191186
-0.0196231
-0.020212
-0.0206177
-0.0209713
-0.0213143
-0.0216588
-0.0220313
-0.0224345
-0.0228661
-0.0232953
-0.0235327
0
-0.022621
-0.0229312
-0.0230139
-0.0230539
-0.0230967
-0.0231646
-0.0232859
-0.0233466
-0.0233806
-0.0233911
-0.0233819
-0.0233393
-0.0232846
-0.0232209
-0.0231475
-0.0230585
-0.0229364
-0.0227448
-0.0224301
-0.021934
-0.0216716
-0.0234107
-0.0234685
-0.0230237
-0.0226432
-0.0223748
-0.0220944
-0.021482
-0.0197582
0
0
0.000297537
-0.000293739
-9.80454e-05
-0.000485408
-0.0023638
-0.00493715
-0.00704637
-0.00861247
-0.00997766
-0.0113104
-0.0125863
-0.0138014
-0.0149578
-0.0161268
0
-0.0172331
-0.0182378
-0.0190085
-0.019661
-0.0201657
-0.0206436
-0.0210446
-0.0214063
-0.0217568
-0.0221214
-0.0225354
-0.0230393
-0.0236469
-0.0242756
-0.0240632
-0.0231439
-0.023259
-0.0233944
-0.0234759
-0.0235415
-0.0236208
-0.0237208
-0.0238425
-0.0239211
-0.0239446
-0.0239287
-0.0239158
-0.0238219
-0.0237487
-0.0236785
-0.0236044
-0.0235173
-0.0233993
-0.0232251
-0.0230476
-0.0228479
-0.0228476
-0.0234178
-0.0235403
-0.0233654
-0.0231326
-0.0229097
-0.0226441
-0.0220259
-0.0202493
0
0
4.10347e-05
-0.00120556
-0.00172288
-0.00263132
-0.00486316
-0.00742965
-0.00933373
-0.0106367
-0.0117397
-0.0134982
-0.0139145
-0.0149429
-0.0159179
-0.0167918
-0.017178
-0.0180543
-0.0188814
-0.0196105
-0.0203041
-0.0207696
-0.0211614
-0.0215257
-0.0218724
-0.0222135
-0.0225734
-0.0230086
-0.0236343
-0.0246004
-0.0263373
-0.0251128
-0.0242108
-0.0239293
-0.0238925
-0.0239393
-0.0240285
-0.0241534
-0.0243026
-0.0244768
-0.0245899
-0.0245897
-0.0245101
-0.0243711
-0.0243125
-0.0242357
-0.0241625
-0.0240929
-0.0240194
-0.0239198
-0.0237209
-0.0236936
-0.023629
-0.0236328
-0.0237665
-0.0238326
-0.0237604
-0.0236148
-0.0234041
-0.0231746
-0.0225473
-0.0207166
0
0
-0.00018218
-0.00200931
-0.00317109
-0.00469298
-0.00719251
-0.00976576
-0.011509
-0.0126015
-0.0134982
-0.014399
-0.0152911
-0.016164
-0.0169895
-0.0177317
-0.018324
-0.0189926
-0.0196496
-0.020267
-0.0211719
-0.0214585
-0.0217394
-0.0220498
-0.0223689
-0.0226768
-0.0229866
-0.0233558
-0.0239836
-0.0205941
-0.0324342
-0.0260826
-0.0246285
-0.024306
-0.0242865
-0.0243706
-0.0245059
-0.0246961
-0.0249548
-0.0252265
-0.025428
-0.0253638
-0.0251814
-0.0249901
-0.0248495
-0.024744
-0.0246634
-0.0246013
-0.0245515
-0.0244903
-0.0211587
-0.0243395
-0.0243192
-0.0242775
-0.0241887
-0.0242896
-0.0242524
-0.0241623
-0.0240323
-0.0237207
-0.0230518
-0.0211559
0
0
-0.00038561
-0.00271089
-0.00446691
-0.00650998
-0.00934059
-0.0119655
-0.013581
-0.0144984
-0.0152216
-0.0159524
-0.0167008
-0.0174438
-0.0181537
-0.0188053
-0.0193855
-0.0199457
-0.0204608
-0.0208659
-0.0372308
-0.0221763
-0.0223222
-0.0226146
-0.0229005
-0.0231585
-0.0233645
-0.0234786
-0.0233165
-0.0219247
-0.0142533
-0.0217687
-0.0236183
-0.024218
-0.0245243
-0.0247512
-0.0249547
-0.0252168
-0.0256038
-0.0261341
-0.0266285
-0.0263274
-0.0259128
-0.0255913
-0.0253821
-0.025251
-0.0251645
-0.02511
-0.0250664
-0.0250161
-0.0249073
-0.0249739
-0.024959
-0.024957
-0.0250744
-0.0249103
-0.0248115
-0.0247482
-0.0245444
-0.0242435
-0.0235327
-0.0215554
0
0
-0.000606668
-0.00328348
-0.00563325
-0.00821656
-0.0113705
-0.0140656
-0.0155502
-0.0163213
-0.0169075
-0.0175059
-0.0181303
-0.0187665
-0.0193838
-0.0199531
-0.0204592
-0.0209336
-0.0213937
-0.0218621
-0.022612
-0.0228274
-0.0230366
-0.0232739
-0.0235085
-0.0237052
-0.0238336
-0.0238363
-0.0235789
-0.0227731
-0.0212394
-0.0228364
-0.023892
-0.024496
-0.0248908
-0.0251806
-0.0253775
-0.0256689
-0.0262129
-0.0272652
-0.0289063
-0.0275327
-0.0266076
-0.0261168
-0.0258655
-0.0257346
-0.0256509
-0.0256193
-0.0255912
-0.0255647
-0.0255655
-0.025677
-0.0255943
-0.0255521
-0.025556
-0.0254931
-0.0253096
-0.0254226
-0.0251023
-0.0248049
-0.0240226
-0.0218859
0
0
-0.000924614
0.00342445
-0.0067538
-0.00987816
-0.0133031
-0.0160495
-0.0173721
-0.0180708
-0.0185729
-0.0190699
-0.0195758
-0.0201225
-0.0206712
-0.0211687
-0.021565
-0.0219346
-0.0223252
-0.0227455
-0.023203
-0.0235067
-0.0237492
-0.0239703
-0.0241664
-0.0243229
-0.0244178
-0.0244179
-0.0242746
-0.0239882
-0.0237988
-0.0241853
-0.0246421
-0.025047
-0.025394
-0.0256873
-0.0257376
-0.0259491
-0.026493
-0.0282589
-0.0354117
-0.0285375
-0.026884
-0.026407
-0.026242
-0.0261782
-0.0256509
-0.0261307
-0.0261206
-0.0261048
-0.0261545
-0.0265556
-0.0262213
-0.0261292
-0.026138
-0.0261861
-0.0264197
-0.0262953
-0.025751
-0.0255659
-0.0247193
-0.022056
0
0
-0.000943006
-0.00457636
-0.00793968
-0.0114908
-0.0151176
-0.0176489
-0.0191904
-0.0198519
-0.0202783
-0.0206706
-0.021009
-0.0214949
-0.0220226
-0.0224834
-0.022696
-0.0229234
-0.0232356
-0.0236157
-0.0239776
-0.024267
-0.0245012
-0.0247003
-0.0248681
-0.025
-0.0250869
-0.0251171
-0.0250824
-0.0249956
-0.0253874
-0.0253179
-0.0254401
-0.0256684
-0.0259358
-0.0262415
-0.0260158
-0.0260281
-0.0257706
-0.0242319
-0.0158196
-0.023934
-0.0257784
-0.0263111
-0.0264988
-0.0265787
-0.0266105
-0.0266477
-0.0266546
-0.0266211
-0.0266248
-0.0405554
-0.0267645
-0.0266737
-0.0267157
-0.0267316
-0.0266976
-0.0265397
-0.0269963
-0.0268778
-0.0265654
-0.025081
0
0
-0.00106259
-0.00528438
-0.00907684
-0.0132357
-0.017045
-0.0192263
-0.020756
-0.0214594
-0.0218781
-0.022224
-0.0222595
-0.0228203
-0.0234405
-0.023961
-0.0237963
-0.0238583
-0.0241343
-0.0245322
-0.0248502
-0.0250956
-0.0252973
-0.0254659
-0.0256066
-0.0257196
-0.0258058
-0.0258721
-0.0259184
-0.0257578
-0.0418533
-0.026238
-0.0261381
-0.0262709
-0.0263724
-0.0263346
-0.0267145
-0.0265779
-0.0261202
-0.0250927
-0.0232918
-0.0249111
-0.0260412
-0.0265913
-0.0268723
-0.0270234
-0.0271144
-0.0271943
-0.02724
-0.0272621
-0.0273334
-0.0276848
-0.027409
-0.0273544
-0.0273702
-0.0273694
-0.0273285
-0.0273336
-0.0275958
-0.0276223
-0.0272533
-0.0252463
0
0
-0.00121428
-0.00590105
-0.0100278
-0.0257945
-0.0191269
0
-0.0223575
-0.0231186
-0.0234522
-0.0238309
-0.00876809
-0.0241065
-0.0249109
-0.0255442
-0.0246769
-0.0248168
-0.0251212
-0.0256591
-0.0258392
-0.0259912
-0.0261321
-0.0262627
-0.0263728
-0.0264642
-0.0265435
-0.0266469
-0.0270644
-0.0267792
-0.0271113
-0.0269589
-0.0269175
-0.0269729
-0.0270426
-0.0270777
-0.0272135
-0.0271264
-0.0268194
-0.0263314
-0.025892
-0.0262671
-0.0267661
-0.0271359
-0.0273728
-0.0275251
-0.0276332
-0.0277734
-0.0278526
-0.0278891
-0.0279287
-0.0280018
-0.0279536
-0.0280136
-0.0280588
-0.0280619
-0.027989
-0.0280262
-0.0281686
-0.028188
-0.0277422
-0.0255807
0
0
-0.00138112
-0.00653652
-0.01123
-0.016143
-0.0204278
-0.022819
-0.0242073
-0.0246999
-0.0248684
-0.0249417
-0.0248975
-0.0253264
-0.0259533
-0.0253087
-0.0263821
-0.0265234
-0.0265415
-0.0354074
-0.0269618
-0.0269326
-0.0270049
-0.0270853
-0.0271581
-0.0272182
-0.0272541
-0.0272285
-0.0268128
-0.0272684
-0.0275316
-0.0275827
-0.0276164
-0.0276828
-0.0277757
-0.027874
-0.0278872
-0.0278059
-0.0276059
-0.0273711
-0.027234
-0.0273495
-0.0275778
-0.0277969
-0.0279439
-0.0280728
-0.0281555
-0.0283975
-0.028491
-0.0285156
-0.028515
-0.0284808
-0.0284553
-0.0286766
-0.028765
-0.0287912
-0.0285842
-0.0286317
-0.0287399
-0.0287271
-0.0282326
-0.025991
0
0
-0.00154487
-0.00714108
-0.0122807
-0.0173575
-0.0219252
-0.0248096
-0.0260468
-0.0263431
-0.026254
-0.0259183
-0.0262453
-0.0263485
-0.0259144
-0.0428669
-0.0278627
-0.027843
-0.0278596
-0.0280326
-0.0279481
-0.0279041
-0.0279107
-0.0279381
-0.0279567
-0.0279902
-0.0280107
-0.027991
-0.0279149
-0.0280223
-0.0281642
-0.028237
-0.0282919
-0.0283748
-0.028528
-0.0288055
-0.0286715
-0.0285959
-0.0283932
-0.0282437
-0.028184
-0.028236
-0.0283585
-0.028503
-0.0286541
-0.0287049
-0.0287076
-0.0290666
-0.0291141
-0.0291377
-0.0291385
-0.0290283
-0.0289267
-0.0293235
-0.0293886
-0.0295056
-0.0291129
-0.0292438
-0.029334
-0.0292683
-0.0287488
-0.0264482
0
0
-0.00170485
-0.00772875
-0.0132918
-0.0186969
-0.0235307
-0.0266156
-0.0278023
-0.0280296
-0.0276261
-0.0258678
-0.0276871
-0.0279249
-0.0279171
-0.028654
-0.0288599
-0.0289072
-0.0289017
-0.0289125
-0.0288697
-0.028832
-0.0288157
-0.0287995
-0.028735
-0.0287646
-0.0287937
-0.0287866
-0.0287588
-0.0287505
-0.0288638
-0.0289054
-0.0289408
-0.0290139
-0.0292445
-0.030345
-0.029438
-0.0295541
-0.02912
-0.0289868
-0.028966
-0.0290069
-0.0290888
-0.0291946
-0.0293263
-0.0294791
-0.0296753
-0.0294491
-0.0295631
-0.0297166
-0.0298367
-0.0297164
-0.0297638
-0.0295527
-0.0296139
-0.0295915
-0.0301289
-0.0300796
-0.029997
-0.0297786
-0.0292869
-0.026944
0
0
-0.00186471
-0.00831453
-0.0143033
-0.0200823
-0.0251803
-0.0283982
-0.0294145
-0.0299651
-0.0304036
-0.0325312
-0.03034
-0.0299035
-0.0297708
-0.0299012
-0.0299497
-0.029939
-0.029886
-0.0298497
-0.0297993
-0.0297557
-0.0297248
-0.0296867
-0.0294188
-0.0295339
-0.0295956
-0.0295867
-0.0295589
-0.0295393
-0.0295007
-0.0295266
-0.0295364
-0.0295205
-0.0293423
-0.0280977
-0.029163
-0.0289937
-0.0294558
-0.0295924
-0.0296517
-0.0297098
-0.029775
-0.0298471
-0.0299655
-0.0300994
-0.0302108
-0.0301457
-0.0302036
-0.0303487
-0.0305557
-0.0302281
-0.0300489
-0.030333
-0.0303181
-0.0303623
-0.0306332
-0.030689
-0.0306031
-0.0300876
-0.0298535
-0.0274789
0
0
-0.00202694
-0.00890541
-0.0153234
-0.0214888
-0.0268587
-0.0302428
-0.0318561
-0.0318749
-0.0319425
-0.0322697
-0.031766
-0.0314666
-0.0312859
-0.0311886
-0.0311055
-0.0310162
-0.0309316
-0.0308272
-0.0307425
-0.0306773
-0.0306413
-0.0306492
-0.0205477
-0.0303355
-0.0304501
-0.0303764
-0.0303062
-0.0287505
-0.0301968
-0.0302022
-0.0301492
-0.0301398
-0.0300198
-0.0297491
-0.0299162
-0.0299719
-0.0301368
-0.0302472
-0.0303244
-0.0303886
-0.0304358
-0.0304409
-0.0305748
-0.0307008
-0.0307823
-0.0307951
-0.0308165
-0.0308233
-0.0307861
-0.03124
-0.018932
-0.0350282
-0.0311005
-0.0310991
-0.0312206
-0.0313142
-0.0312931
-0.0158277
-0.0305268
-0.0280417
0
0
-0.00219254
-0.00950369
-0.0163525
-0.0229038
-0.0285289
-0.0320049
-0.0333447
-0.0333887
-0.0333241
-0.0332695
-0.0330721
-0.0328576
-0.0326483
-0.0324616
-0.0322891
-0.0321224
-0.0319515
-0.0317947
-0.0316744
-0.0315784
-0.0314962
-0.0313872
-0.0311134
-0.0312338
-0.0312856
-0.0311024
-0.030956
-0.0308676
-0.0308746
-0.0308899
-0.0309281
-0.030847
-0.0307697
-0.030692
-0.0307183
-0.0307655
-0.0308465
-0.0309261
-0.0309999
-0.0310697
-0.0311055
-0.0309121
-0.0311783
-0.0313303
-0.0314064
-0.0314426
-0.031468
-0.0314816
-0.0315063
-0.0316802
-0.0314794
-0.0317801
-0.0317625
-0.0317728
-0.0318212
-0.0318533
-0.0317828
-0.0313323
-0.0310196
-0.0285312
0
0
-0.00236175
-0.0101098
-0.0173919
-0.0243335
-0.0302101
-0.0337704
-0.0350556
-0.0347372
-0.0346975
-0.0345478
-0.0344485
-0.034234
-0.0339796
-0.0337232
-0.0334812
-0.0332481
-0.03297
-0.0327323
-0.0325859
-0.0324698
-0.0323719
-0.0322739
-0.032147
-0.0321211
-0.0322221
-0.0317571
-0.0315564
-0.0315191
-0.0315418
-0.0315639
-0.0315664
-0.0315307
-0.0314875
-0.0314554
-0.0314598
-0.0314895
-0.0315402
-0.0316015
-0.0316718
-0.0317603
-0.031841
-0.0225352
-0.031826
-0.0320025
-0.0320594
-0.0321018
-0.0321393
-0.0321731
-0.0322146
-0.0322849
-0.0322811
-0.0323676
-0.0323938
-0.0324134
-0.0324379
-0.0324463
-0.0323817
-0.0322044
-0.031629
-0.0290495
0
0
-0.00253413
-0.0107206
-0.0184432
-0.0257945
-0.0319254
-0.0355863
-0.0369901
-0.0164633
-0.0361582
-0.0359805
-0.0359298
-0.035622
-0.0352701
-0.0349489
-0.03466
-0.0344208
-0.0339468
-0.0335864
-0.0334656
-0.0333438
-0.0332599
-0.0330992
-0.0329508
-0.0329222
-0.033233
-0.0322413
-0.0322082
-0.0322433
-0.0322677
-0.0322647
-0.0322445
-0.0322106
-0.0321771
-0.0321555
-0.0321551
-0.0321751
-0.0322124
-0.0322619
-0.0323194
-0.0323774
-0.0324001
-0.0322329
-0.0324611
-0.0326067
-0.0326957
-0.0327625
-0.0328185
-0.0328662
-0.0329094
-0.0329509
-0.0329749
-0.0330102
-0.0330336
-0.0330528
-0.0330721
-0.0330888
-0.0331024
-0.0329221
-0.0322616
-0.0295965
0
0
-0.00270976
-0.0113208
-0.0195028
-0.0273242
-0.0336793
-0.0373631
-0.038547
-0.0381493
-0.0379652
-0.0378278
-0.0372141
-0.0367968
-0.0364256
-0.0360903
-0.0357773
-0.0357715
-0.0348024
-0.0343011
-0.034319
-0.03417
-0.0342056
-0.0339089
-0.0336236
-0.0332906
-0.0326757
-0.0335621
-0.0334709
-0.033288
-0.0331283
-0.0330168
-0.0329394
-0.0328842
-0.0328449
-0.0328221
-0.0328185
-0.032834
-0.0328662
-0.0329114
-0.0329642
-0.0330142
-0.033042
-0.0330336
-0.033131
-0.0332448
-0.0333487
-0.0334391
-0.0335135
-0.0335708
-0.0336124
-0.0336404
-0.033657
-0.0336715
-0.0336844
-0.033698
-0.0337121
-0.033724
-0.0337203
-0.0335768
-0.0328889
-0.0301577
0
0
-0.00289387
-0.0118869
-0.020676
-0.0288662
-0.0355058
-0.0392183
-0.0403255
-0.0401101
-0.0396919
-0.0392734
-0.0386961
-0.0381597
-0.0376774
-0.0372788
-0.0371531
-0.0375047
-0.0354074
-0.0353404
-0.035026
-0.0348153
-0.0426017
-0.0347065
-0.034331
-0.0340389
-0.0337082
-0.0339872
-0.0340454
-0.0339487
-0.0338131
-0.0336925
-0.0336022
-0.0335366
-0.0334902
-0.0334621
-0.0334562
-0.0334711
-0.0335042
-0.0335533
-0.0336139
-0.0336747
-0.0337119
-0.0337143
-0.0337769
-0.0338908
-0.0340216
-0.0341423
-0.0342379
-0.034304
-0.0343413
-0.0343538
-0.0343509
-0.0343449
-0.034344
-0.0343505
-0.0343578
-0.0343601
-0.0343559
-0.0342254
-0.0335161
-0.030727
0
0
-0.0031682
-0.0122518
-0.0217831
-0.0305549
-0.0374512
-0.0412377