# vtk DataFile Version 2.0
FlowField
ASCII
DATASET STRUCTURED_GRID
DIMENSIONS 62 47 32 
POINTS 93248 double
0 0 0
0.01 0 0
0.02 0 0
0.03 0 0
0.04 0 0
0.05 0 0
0.06 0 0
0.07 0 0
0.08 0 0
0.09 0 0
0.1 0 0
0.11 0 0
0.12 0 0
0.13 0 0
0.14 0 0
0.15 0 0
0.16 0 0
0.17 0 0
0.18 0 0
0.19 0 0
0.2 0 0
0.21 0 0
0.22 0 0
0.23 0 0
0.24 0 0
0.25 0 0
0.26 0 0
0.27 0 0
0.28 0 0
0.29 0 0
0.3 0 0
0.31 0 0
0.32 0 0
0.33 0 0
0.34 0 0
0.35 0 0
0.36 0 0
0.37 0 0
0.38 0 0
0.39 0 0
0.4 0 0
0.41 0 0
0.42 0 0
0.43 0 0
0.44 0 0
0.45 0 0
0.46 0 0
0.47 0 0
0.48 0 0
0.49 0 0
0.5 0 0
0.51 0 0
0.52 0 0
0.53 0 0
0.54 0 0
0.55 0 0
0.56 0 0
0.57 0 0
0.58 0 0
0.59 0 0
0.6 0 0
0.61 0 0
0 0.01 0
0.01 0.01 0
0.02 0.01 0
0.03 0.01 0
0.04 0.01 0
0.05 0.01 0
0.06 0.01 0
0.07 0.01 0
0.08 0.01 0
0.09 0.01 0
0.1 0.01 0
0.11 0.01 0
0.12 0.01 0
0.13 0.01 0
0.14 0.01 0
0.15 0.01 0
0.16 0.01 0
0.17 0.01 0
0.18 0.01 0
0.19 0.01 0
0.2 0.01 0
0.21 0.01 0
0.22 0.01 0
0.23 0.01 0
0.24 0.01 0
0.25 0.01 0
0.26 0.01 0
0.27 0.01 0
0.28 0.01 0
0.29 0.01 0
0.3 0.01 0
0.31 0.01 0
0.32 0.01 0
0.33 0.01 0
0.34 0.01 0
0.35 0.01 0
0.36 0.01 0
0.37 0.01 0
0.38 0.01 0
0.39 0.01 0
0.4 0.01 0
0.41 0.01 0
0.42 0.01 0
0.43 0.01 0
0.44 0.01 0
0.45 0.01 0
0.46 0.01 0
0.47 0.01 0
0.48 0.01 0
0.49 0.01 0
0.5 0.01 0
0.51 0.01 0
0.52 0.01 0
0.53 0.01 0
0.54 0.01 0
0.55 0.01 0
0.56 0.01 0
0.57 0.01 0
0.58 0.01 0
0.59 0.01 0
0.6 0.01 0
0.61 0.01 0
0 0.02 0
0.01 0.02 0
0.02 0.02 0
0.03 0.02 0
0.04 0.02 0
0.05 0.02 0
0.06 0.02 0
0.07 0.02 0
0.08 0.02 0
0.09 0.02 0
0.1 0.02 0
0.11 0.02 0
0.12 0.02 0
0.13 0.02 0
0.14 0.02 0
0.15 0.02 0
0.16 0.02 0
0.17 0.02 0
0.18 0.02 0
0.19 0.02 0
0.2 0.02 0
0.21 0.02 0
0.22 0.02 0
0.23 0.02 0
0.24 0.02 0
0.25 0.02 0
0.26 0.02 0
0.27 0.02 0
0.28 0.02 0
0.29 0.02 0
0.3 0.02 0
0.31 0.02 0
0.32 0.02 0
0.33 0.02 0
0.34 0.02 0
0.35 0.02 0
0.36 0.02 0
0.37 0.02 0
0.38 0.02 0
0.39 0.02 0
0.4 0.02 0
0.41 0.02 0
0.42 0.02 0
0.43 0.02 0
0.44 0.02 0
0.45 0.02 0
0.46 0.02 0
0.47 0.02 0
0.48 0.02 0
0.49 0.02 0
0.5 0.02 0
0.51 0.02 0
0.52 0.02 0
0.53 0.02 0
0.54 0.02 0
0.55 0.02 0
0.56 0.02 0
0.57 0.02 0
0.58 0.02 0
0.59 0.02 0
0.6 0.02 0
0.61 0.02 0
0 0.03 0
0.01 0.03 0
0.02 0.03 0
0.03 0.03 0
0.04 0.03 0
0.05 0.03 0
0.06 0.03 0
0.07 0.03 0
0.08 0.03 0
0.09 0.03 0
0.1 0.03 0
0.11 0.03 0
0.12 0.03 0
0.13 0.03 0
0.14 0.03 0
0.15 0.03 0
0.16 0.03 0
0.17 0.03 0
0.18 0.03 0
0.19 0.03 0
0.2 0.03 0
0.21 0.03 0
0.22 0.03 0
0.23 0.03 0
0.24 0.03 0
0.25 0.03 0
0.26 0.03 0
0.27 0.03 0
0.28 0.03 0
0.29 0.03 0
0.3 0.03 0
0.31 0.03 0
0.32 0.03 0
0.33 0.03 0
0.34 0.03 0
0.35 0.03 0
0.36 0.03 0
0.37 0.03 0
0.38 0.03 0
0.39 0.03 0
0.4 0.03 0
0.41 0.03 0
0.42 0.03 0
0.43 0.03 0
0.44 0.03 0
0.45 0.03 0
0.46 0.03 0
0.47 0.03 0
0.48 0.03 0
0.49 0.03 0
0.5 0.03 0
0.51 0.03 0
0.52 0.03 0
0.53 0.03 0
0.54 0.03 0
0.55 0.03 0
0.56 0.03 0
0.57 0.03 0
0.58 0.03 0
0.59 0.03 0
0.6 0.03 0
0.61 0.03 0
0 0.04 0
0.01 0.04 0
0.02 0.04 0
0.03 0.04 0
0.04 0.04 0
0.05 0.04 0
0.06 0.04 0
0.07 0.04 0
0.08 0.04 0
0.09 0.04 0
0.1 0.04 0
0.11 0.04 0
0.12 0.04 0
0.13 0.04 0
0.14 0.04 0
0.15 0.04 0
0.16 0.04 0
0.17 0.04 0
0.18 0.04 0
0.19 0.04 0
0.2 0.04 0
0.21 0.04 0
0.22 0.04 0
0.23 0.04 0
0.24 0.04 0
0.25 0.04 0
0.26 0.04 0
0.27 0.04 0
0.28 0.04 0
0.29 0.04 0
0.3 0.04 0
0.31 0.04 0
0.32 0.04 0
0.33 0.04 0
0.34 0.04 0
0.35 0.04 0
0.36 0.04 0
0.37 0.04 0
0.38 0.04 0
0.39 0.04 0
0.4 0.04 0
0.41 0.04 0
0.42 0.04 0
0.43 0.04 0
0.44 0.04 0
0.45 0.04 0
0.46 0.04 0
0.47 0.04 0
0.48 0.04 0
0.49 0.04 0
0.5 0.04 0
0.51 0.04 0
0.52 0.04 0
0.53 0.04 0
0.54 0.04 0
0.55 0.04 0
0.56 0.04 0
0.57 0.04 0
0.58 0.04 0
0.59 0.04 0
0.6 0.04 0
0.61 0.04 0
0 0.05 0
0.01 0.05 0
0.02 0.05 0
0.03 0.05 0
0.04 0.05 0
0.05 0.05 0
0.06 0.05 0
0.07 0.05 0
0.08 0.05 0
0.09 0.05 0
0.1 0.05 0
0.11 0.05 0
0.12 0.05 0
0.13 0.05 0
0.14 0.05 0
0.15 0.05 0
0.16 0.05 0
0.17 0.05 0
0.18 0.05 0
0.19 0.05 0
0.2 0.05 0
0.21 0.05 0
0.22 0.05 0
0.23 0.05 0
0.24 0.05 0
0.25 0.05 0
0.26 0.05 0
0.27 0.05 0
0.28 0.05 0
0.29 0.05 0
0.3 0.05 0
0.31 0.05 0
0.32 0.05 0
0.33 0.05 0
0.34 0.05 0
0.35 0.05 0
0.36 0.05 0
0.37 0.05 0
0.38 0.05 0
0.39 0.05 0
0.4 0.05 0
0.41 0.05 0
0.42 0.05 0
0.43 0.05 0
0.44 0.05 0
0.45 0.05 0
0.46 0.05 0
0.47 0.05 0
0.48 0.05 0
0.49 0.05 0
0.5 0.05 0
0.51 0.05 0
0.52 0.05 0
0.53 0.05 0
0.54 0.05 0
0.55 0.05 0
0.56 0.05 0
0.57 0.05 0
0.58 0.05 0
0.59 0.05 0
0.6 0.05 0
0.61 0.05 0
0 0.06 0
0.01 0.06 0
0.02 0.06 0
0.03 0.06 0
0.04 0.06 0
0.05 0.06 0
0.06 0.06 0
0.07 0.06 0
0.08 0.06 0
0.09 0.06 0
0.1 0.06 0
0.11 0.06 0
0.12 0.06 0
0.13 0.06 0
0.14 0.06 0
0.15 0.06 0
0.16 0.06 0
0.17 0.06 0
0.18 0.06 0
0.19 0.06 0
0.2 0.06 0
0.21 0.06 0
0.22 0.06 0
0.23 0.06 0
0.24 0.06 0
0.25 0.06 0
0.26 0.06 0
0.27 0.06 0
0.28 0.06 0
0.29 0.06 0
0.3 0.06 0
0.31 0.06 0
0.32 0.06 0
0.33 0.06 0
0.34 0.06 0
0.35 0.06 0
0.36 0.06 0
0.37 0.06 0
0.38 0.06 0
0.39 0.06 0
0.4 0.06 0
0.41 0.06 0
0.42 0.06 0
0.43 0.06 0
0.44 0.06 0
0.45 0.06 0
0.46 0.06 0
0.47 0.06 0
0.48 0.06 0
0.49 0.06 0
0.5 0.06 0
0.51 0.06 0
0.52 0.06 0
0.53 0.06 0
0.54 0.06 0
0.55 0.06 0
0.56 0.06 0
0.57 0.06 0
0.58 0.06 0
0.59 0.06 0
0.6 0.06 0
0.61 0.06 0
0 0.07 0
0.01 0.07 0
0.02 0.07 0
0.03 0.07 0
0.04 0.07 0
0.05 0.07 0
0.06 0.07 0
0.07 0.07 0
0.08 0.07 0
0.09 0.07 0
0.1 0.07 0
0.11 0.07 0
0.12 0.07 0
0.13 0.07 0
0.14 0.07 0
0.15 0.07 0
0.16 0.07 0
0.17 0.07 0
0.18 0.07 0
0.19 0.07 0
0.2 0.07 0
0.21 0.07 0
0.22 0.07 0
0.23 0.07 0
0.24 0.07 0
0.25 0.07 0
0.26 0.07 0
0.27 0.07 0
0.28 0.07 0
0.29 0.07 0
0.3 0.07 0
0.31 0.07 0
0.32 0.07 0
0.33 0.07 0
0.34 0.07 0
0.35 0.07 0
0.36 0.07 0
0.37 0.07 0
0.38 0.07 0
0.39 0.07 0
0.4 0.07 0
0.41 0.07 0
0.42 0.07 0
0.43 0.07 0
0.44 0.07 0
0.45 0.07 0
0.46 0.07 0
0.47 0.07 0
0.48 0.07 0
0.49 0.07 0
0.5 0.07 0
0.51 0.07 0
0.52 0.07 0
0.53 0.07 0
0.54 0.07 0
0.55 0.07 0
0.56 0.07 0
0.57 0.07 0
0.58 0.07 0
0.59 0.07 0
0.6 0.07 0
0.61 0.07 0
0 0.08 0
0.01 0.08 0
0.02 0.08 0
0.03 0.08 0
0.04 0.08 0
0.05 0.08 0
0.06 0.08 0
0.07 0.08 0
0.08 0.08 0
0.09 0.08 0
0.1 0.08 0
0.11 0.08 0
0.12 0.08 0
0.13 0.08 0
0.14 0.08 0
0.15 0.08 0
0.16 0.08 0
0.17 0.08 0
0.18 0.08 0
0.19 0.08 0
0.2 0.08 0
0.21 0.08 0
0.22 0.08 0
0.23 0.08 0
0.24 0.08 0
0.25 0.08 0
0.26 0.08 0
0.27 0.08 0
0.28 0.08 0
0.29 0.08 0
0.3 0.08 0
0.31 0.08 0
0.32 0.08 0
0.33 0.08 0
0.34 0.08 0
0.35 0.08 0
0.36 0.08 0
0.37 0.08 0
0.38 0.08 0
0.39 0.08 0
0.4 0.08 0
0.41 0.08 0
0.42 0.08 0
0.43 0.08 0
0.44 0.08 0
0.45 0.08 0
0.46 0.08 0
0.47 0.08 0
0.48 0.08 0
0.49 0.08 0
0.5 0.08 0
0.51 0.08 0
0.52 0.08 0
0.53 0.08 0
0.54 0.08 0
0.55 0.08 0
0.56 0.08 0
0.57 0.08 0
0.58 0.08 0
0.59 0.08 0
0.6 0.08 0
0.61 0.08 0
0 0.09 0
0.01 0.09 0
0.02 0.09 0
0.03 0.09 0
0.04 0.09 0
0.05 0.09 0
0.06 0.09 0
0.07 0.09 0
0.08 0.09 0
0.09 0.09 0
0.1 0.09 0
0.11 0.09 0
0.12 0.09 0
0.13 0.09 0
0.14 0.09 0
0.15 0.09 0
0.16 0.09 0
0.17 0.09 0
0.18 0.09 0
0.19 0.09 0
0.2 0.09 0
0.21 0.09 0
0.22 0.09 0
0.23 0.09 0
0.24 0.09 0
0.25 0.09 0
0.26 0.09 0
0.27 0.09 0
0.28 0.09 0
0.29 0.09 0
0.3 0.09 0
0.31 0.09 0
0.32 0.09 0
0.33 0.09 0
0.34 0.09 0
0.35 0.09 0
0.36 0.09 0
0.37 0.09 0
0.38 0.09 0
0.39 0.09 0
0.4 0.09 0
0.41 0.09 0
0.42 0.09 0
0.43 0.09 0
0.44 0.09 0
0.45 0.09 0
0.46 0.09 0
0.47 0.09 0
0.48 0.09 0
0.49 0.09 0
0.5 0.09 0
0.51 0.09 0
0.52 0.09 0
0.53 0.09 0
0.54 0.09 0
0.55 0.09 0
0.56 0.09 0
0.57 0.09 0
0.58 0.09 0
0.59 0.09 0
0.6 0.09 0
0.61 0.09 0
0 0.1 0
0.01 0.1 0
0.02 0.1 0
0.03 0.1 0
0.04 0.1 0
0.05 0.1 0
0.06 0.1 0
0.07 0.1 0
0.08 0.1 0
0.09 0.1 0
0.1 0.1 0
0.11 0.1 0
0.12 0.1 0
0.13 0.1 0
0.14 0.1 0
0.15 0.1 0
0.16 0.1 0
0.17 0.1 0
0.18 0.1 0
0.19 0.1 0
0.2 0.1 0
0.21 0.1 0
0.22 0.1 0
0.23 0.1 0
0.24 0.1 0
0.25 0.1 0
0.26 0.1 0
0.27 0.1 0
0.28 0.1 0
0.29 0.1 0
0.3 0.1 0
0.31 0.1 0
0.32 0.1 0
0.33 0.1 0
0.34 0.1 0
0.35 0.1 0
0.36 0.1 0
0.37 0.1 0
0.38 0.1 0
0.39 0.1 0
0.4 0.1 0
0.41 0.1 0
0.42 0.1 0
0.43 0.1 0
0.44 0.1 0
0.45 0.1 0
0.46 0.1 0
0.47 0.1 0
0.48 0.1 0
0.49 0.1 0
0.5 0.1 0
0.51 0.1 0
0.52 0.1 0
0.53 0.1 0
0.54 0.1 0
0.55 0.1 0
0.56 0.1 0
0.57 0.1 0
0.58 0.1 0
0.59 0.1 0
0.6 0.1 0
0.61 0.1 0
0 0.11 0
0.01 0.11 0
0.02 0.11 0
0.03 0.11 0
0.04 0.11 0
0.05 0.11 0
0.06 0.11 0
0.07 0.11 0
0.08 0.11 0
0.09 0.11 0
0.1 0.11 0
0.11 0.11 0
0.12 0.11 0
0.13 0.11 0
0.14 0.11 0
0.15 0.11 0
0.16 0.11 0
0.17 0.11 0
0.18 0.11 0
0.19 0.11 0
0.2 0.11 0
0.21 0.11 0
0.22 0.11 0
0.23 0.11 0
0.24 0.11 0
0.25 0.11 0
0.26 0.11 0
0.27 0.11 0
0.28 0.11 0
0.29 0.11 0
0.3 0.11 0
0.31 0.11 0
0.32 0.11 0
0.33 0.11 0
0.34 0.11 0
0.35 0.11 0
0.36 0.11 0
0.37 0.11 0
0.38 0.11 0
0.39 0.11 0
0.4 0.11 0
0.41 0.11 0
0.42 0.11 0
0.43 0.11 0
0.44 0.11 0
0.45 0.11 0
0.46 0.11 0
0.47 0.11 0
0.48 0.11 0
0.49 0.11 0
0.5 0.11 0
0.51 0.11 0
0.52 0.11 0
0.53 0.11 0
0.54 0.11 0
0.55 0.11 0
0.56 0.11 0
0.57 0.11 0
0.58 0.11 0
0.59 0.11 0
0.6 0.11 0
0.61 0.11 0
0 0.12 0
0.01 0.12 0
0.02 0.12 0
0.03 0.12 0
0.04 0.12 0
0.05 0.12 0
0.06 0.12 0
0.07 0.12 0
0.08 0.12 0
0.09 0.12 0
0.1 0.12 0
0.11 0.12 0
0.12 0.12 0
0.13 0.12 0
0.14 0.12 0
0.15 0.12 0
0.16 0.12 0
0.17 0.12 0
0.18 0.12 0
0.19 0.12 0
0.2 0.12 0
0.21 0.12 0
0.22 0.12 0
0.23 0.12 0
0.24 0.12 0
0.25 0.12 0
0.26 0.12 0
0.27 0.12 0
0.28 0.12 0
0.29 0.12 0
0.3 0.12 0
0.31 0.12 0
0.32 0.12 0
0.33 0.12 0
0.34 0.12 0
0.35 0.12 0
0.36 0.12 0
0.37 0.12 0
0.38 0.12 0
0.39 0.12 0
0.4 0.12 0
0.41 0.12 0
0.42 0.12 0
0.43 0.12 0
0.44 0.12 0
0.45 0.12 0
0.46 0.12 0
0.47 0.12 0
0.48 0.12 0
0.49 0.12 0
0.5 0.12 0
0.51 0.12 0
0.52 0.12 0
0.53 0.12 0
0.54 0.12 0
0.55 0.12 0
0.56 0.12 0
0.57 0.12 0
0.58 0.12 0
0.59 0.12 0
0.6 0.12 0
0.61 0.12 0
0 0.13 0
0.01 0.13 0
0.02 0.13 0
0.03 0.13 0
0.04 0.13 0
0.05 0.13 0
0.06 0.13 0
0.07 0.13 0
0.08 0.13 0
0.09 0.13 0
0.1 0.13 0
0.11 0.13 0
0.12 0.13 0
0.13 0.13 0
0.14 0.13 0
0.15 0.13 0
0.16 0.13 0
0.17 0.13 0
0.18 0.13 0
0.19 0.13 0
0.2 0.13 0
0.21 0.13 0
0.22 0.13 0
0.23 0.13 0
0.24 0.13 0
0.25 0.13 0
0.26 0.13 0
0.27 0.13 0
0.28 0.13 0
0.29 0.13 0
0.3 0.13 0
0.31 0.13 0
0.32 0.13 0
0.33 0.13 0
0.34 0.13 0
0.35 0.13 0
0.36 0.13 0
0.37 0.13 0
0.38 0.13 0
0.39 0.13 0
0.4 0.13 0
0.41 0.13 0
0.42 0.13 0
0.43 0.13 0
0.44 0.13 0
0.45 0.13 0
0.46 0.13 0
0.47 0.13 0
0.48 0.13 0
[...]
POINT_DATA 93248

SCALARS u double
LOOKUP_TABLE default
0
0
0
0
0
0
0
0
0
0
0
0
0
0
0
0
0
0
0
0
0
0
0
0
0.280728
0
0
0
0
0
0
0
0.0164775
0.213324
0
0
0
0
0
0
0
0
0
0
0
0
0
0.0556106
0
0
0.0584907
0
0
0
0
0
0
0
0
0
0
0
0
0.409601
0.325504
0.244916
0.17845
0.129292
0.092973
0.0672532
0.0494329
0.0367062
0.0273925
0.0213778
0.0210361
0.0206417
0.020646
0.0210214
0.0217726
0.0217761
0.0211102
0.0189753
0.0254421
0.0264264
0.0222384
0.0216209
0.0212716
0.0208149
0.0202819
0.0196918
0.0190204
0.0182016
0.0171524
0.0161066
0.0168694
0.0158257
0.0138976
0.0124592
0.0133729
0.0107934
0.00741825
0.151858
0.00241508
0.00639493
0.00799665
0.0109175
0.0185589
-0.0161307
-0.00180893
-0.000860281
-0.000579947
-0.00189845
-0.00322846
0.00832615
-0.00321174
0.00476258
-0.0287861
-0.0226062
-0.0139449
-0.0187057
-0.0234866
-0.0317903
-0.0317903
0
0
0.484024
0.461424
0.429403
0.388889
0.349753
0.305354
0.262998
0.225707
0.195417
0.171889
0.154333
0.146639
0.139341
0.134613
0.131519
0.129831
0.127586
0.127278
0.318691
0.129142
0.126867
0.111698
0.111008
0.108477
0.105524
0.102417
0.099203
0.0958745
0.0923915
0.0886455
0.0844921
0.0831979
0.0791047
0.0749161
0.0717881
0.0658053
0.0606663
-0.00639383
0.0542887
0.0506045
0.046776
0.0453283
0.0448186
0.042363
0.0252413
0.018106
0.0171632
0.0144849
0.0117372
0.00989376
0.00202948
0.000374723
-0.00409265
-0.0235056
-0.0284789
-0.0355031
-0.0382302
-0.0469446
-0.0569237
-0.0569237
0
0
0.47805
0.471544
0.464562
0.446141
0.441165
0.410936
0.381976
0.354089
0.328106
0.334577
0.286938
0.266106
0.252987
0.24322
0.236373
0.231055
0.224405
0.220008
0.214644
0.207242
0.204142
0.196411
0.191436
0.186568
0.181475
0.176173
0.170715
0.165147
0.159551
0.15416
0.149343
0.141706
0.135641
0.204863
0.125796
0.118055
0.112238
0.108621
0.102825
0.0958711
0.0888868
0.124592
0.0770798
0.069768
0.118754
0.0474295
0.0397036
0.0144849
0.0282245
0.0229678
0.015287
0.00832615
-0.000844319
-0.0139511
-0.0235358
-0.0327364
-0.0449375
-0.0538948
-0.0632418
-0.0632418
0
0
0.470945
0.459399
0.461884
0.453532
0.448324
0.436545
0.422237
0.406736
0.390818
0.374696
0.359422
0.34302
0.328676
0.316253
0.306503
0.296522
0.290293
0.282821
0.316784
0.266162
0.258498
0.250908
0.244042
0.237429
0.23079
0.224022
0.217119
0.210116
0.203066
0.196018
0.188807
0.180408
0.172736
0.164897
0.158324
0.151338
0.144775
0.139254
0.131796
0.123502
0.114549
0.105168
0.096644
0.0872225
0.0761989
0.065207
0.0565688
0.0490275
0.0411599
0.0331524
0.0243849
0.01514
0.00479359
-0.006573
-0.0175511
-0.0285237
-0.040373
-0.0509007
-0.0612931
-0.0612931
0
0
0.468438
0.454624
0.44772
0.441319
0.436341
0.429912
0.422474
0.414231
0.405073
0.395103
0.384588
0.373274
0.361756
0.349958
0.343364
0.332089
0.323053
0.314197
0.304514
0.295561
0.287147
0.279102
0.271384
0.263843
0.256339
0.248755
0.241082
0.233323
0.225469
0.217444
0.209019
0.199997
0.192626
0.184274
0.176305
0.168579
0.161084
0.153692
0.145442
0.136508
0.126965
0.116959
0.107061
0.0970038
0.0871899
0.0850612
0.0662733
0.0574659
0.0483921
0.0391107
0.0295228
0.0195602
0.0091234
-0.00161341
-0.0123858
-0.0229923
-0.0332479
-0.0427441
-0.0532929
-0.0532929
0
0
0.467314
0.450671
0.438759
0.429533
0.422282
0.415507
0.409485
0.403672
0.397237
0.390411
0.383287
0.375879
0.367849
0.359278
0.351863
0.343836
0.334495
0.326508
0.316682
0.307649
0.299152
0.290971
0.282981
0.275094
0.267253
0.259306
0.251309
0.243253
0.235093
0.226728
0.217931
0.208251
0.201887
0.192924
0.184157
0.175794
0.167584
0.159256
0.150505
0.141293
0.131641
0.121594
0.111272
0.100475
0.0891859
0.0819249
0.0718727
0.0618802
0.0520204
0.0421742
0.0322683
0.0222367
0.0120236
0.00180804
-0.00823698
-0.0177878
-0.0260646
-0.0307181
-0.0291335
-0.0291335
0
0
0.466702
0.448245
0.433412
0.421416
0.41186
0.452068
0.397423
0.389972
0.38349
0.37759
0.372249
0.36767
0.362187
0.355995
0.349362
0.343087
0.335117
0.327056
0.318691
0.310526
0.302598
0.294714
0.286814
0.278902
0.271008
0.262949
0.254923
0.246868
0.238734
0.230504
0.222394
0.215014
0.203253
0.194583
0.186307
0.177975
0.169518
0.160838
0.151858
0.142559
0.132961
0.125687
0.112848
0.102378
0.0920957
0.0833001
0.0736892
0.063737
0.0537281
0.0437444
0.0338271
0.0239839
0.014048
0.00430485
-0.0051221
-0.0143364
-0.02405
-0.0356093
-0.015387
-0.015387
0
0
0.466324
0.446723
0.430093
0.415992
0.403982
0.393304
0.384749
0.377083
0.370381
0.364604
0.359858
0.358386
0.353997
0.348808
0.341606
0.129831
0.329195
0.323078
0.316784
0.309794
0.30274
0.295251
0.287516
0.279605
0.256339
0.263628
0.255875
0.24801
0.240041
0.231908
0.223632
0.215199
0.205194
0.195993
0.187262
0.178642
0.169958
0.161101
0.152018
0.142697
0.13314
0.123343
0.113411
0.103388
0.0935146
0.0840191
0.0743751
0.0645294
0.0545774
0.0446173
0.0347739
0.0252534
0.015518
0.00616944
-0.00272523
-0.0111882
-0.0195318
-0.0301984
-0.0294014
-0.0294014
0
0
0.466076
0.445725
0.427928
0.412398
0.398809
0.386814
0.376649
0.367959
0.36059
0.354185
0.34719
0.354133
0.347562
0.34294
0.338378
0.335418
0.330294
0.323564
0.316526
0.309199
0.30241
0.294896
0.287187
0.27942
0.271982
0.264066
0.256203
0.24842
0.240652
0.23264
0.223957
0.215031
0.205794
0.196709
0.187813
0.178974
0.170109
0.161131
0.151989
0.142671
0.13318
0.123533
0.113786
0.103995
0.0942478
0.0845671
0.0748503
0.0650384
0.0551323
0.0451655
0.0351751
0.0261894
0.0165196
0.00751764
-0.00111972
-0.00956052
-0.0181499
-0.0274667
-0.0352093
-0.0352093
0
0
0.465908
0.445053
0.426468
0.409993
0.395388
0.382502
0.371355
0.361892
0.354077
0.347814
0.343102
0.343284
0.340709
0.337781
0.334427
0.331407
0.327005
0.321363
0.315111
0.308692
0.301036
0.293717
0.286241
0.27847
0.271689
0.26374
0.256013
0.248471
0.241141
0.251955
0.224164
0.214921
0.20596
0.197065
0.188196
0.182418
0.170324
0.161251
0.152062
0.142747
0.133313
0.123774
0.114141
0.104458
0.0947634
0.0850612
0.0753339
0.0655516
0.0556911
0.0457566
0.0356317
-0.000880813
0.0170915
0.00862891
7.528e-05
-0.00849246
-0.0172533
-0.026508
-0.0363317
-0.0363317
0
0
0.465794
0.444597
0.425462
0.40836
0.393063
0.379527
0.367773
0.357835
0.349774
0.343629
0.339439
0.337323
0.335391
0.333478
0.330203
0.326976
0.323043
0.318213
0.312683
0.304759
0.299719
0.29264
0.285318
0.277813
0.270521
0.262922
0.255419
0.24812
0.240924
0.233729
0.223127
0.214735
0.206213
0.197437
0.188529
0.179559
0.17493
0.161495
0.152266
0.142949
0.133551
0.124107
0.114534
0.104898
0.095235
0.08556
0.0758767
0.0661691
0.056428
0.0468516
0.0376223
0.0289594
0.0193663
0.0101629
0.00125931
-0.00752952
-0.0164435
-0.0258049
-0.0359985
-0.0359985
0
0
0.46572
0.444305
0.424877
0.4072
0.391408
0.377434
0.365287
0.355046
0.346803
0.340606
0.336312
0.333519
0.331516
0.330169
0.326199
0.323292
0.319741
0.315324
0.310334
0.304724
0.298379
0.291537
0.284338
0.276895
0.26935
0.261751
0.254382
0.247334
0.240111
0.230934
0.225274
0.216478
0.207289
0.198117
0.188977
0.179857
0.170741
0.161691
0.152533
0.143226
0.133818
0.124592
0.115007
0.105366
0.0957187
0.0860829
0.0764764
0.0668787
0.0572008
0.0478594
0.0388536
0.030004
0.0207051
0.0114444
0.00238424
-0.00655431
-0.0155957
-0.0250408
-0.0353188
-0.0353188
0
0
0.465669
0.444099
0.424407
0.406366
0.390259
0.375973
0.363549
0.353086
0.344674
0.338345
0.333838
0.330667
0.328082
0.324948
0.324331
0.321417
0.317555
0.313009
0.308409
0.303109
0.297033
0.290354
0.283216
0.275718
0.267949
0.26008
0.252595
0.245961
0.241231
0.233287
0.225592
0.216939
0.207839
0.198597
0.189342
0.180144
0.170994
0.162013
0.152918
0.143556
0.133767
0.125583
0.115608
0.105882
0.0962206
0.086609
0.0770808
0.0676219
0.0578347
0.048647
0.0396765
0.0306902
0.0215308
0.0123949
0.00337597
-0.00556887
-0.0147214
-0.0242009
-0.0345356
-0.0345356
0
0
0.465636
0.44397
0.424207
0.405605
0.389422
0.374945
0.362324
0.351696
0.343164
0.33665
0.331956
0.328589
0.325915
0.323393
0.321611
0.318938
0.315263
0.310614
0.306892
0.301807
0.295782
0.289131
0.281985
0.274361
0.266221
0.257544
0.248706
0.240579
0.246587
0.237671
0.22774
0.21808
0.208532
0.199025
0.18959
0.180362
0.17103
0.162366
0.153483
0.144223
0.134737
0.125687
0.11608
0.106397
0.0967172
0.0870842
0.0775652
0.0682689
0.0583156
0.0493843
0.0404589
0.0314323
0.0221642
0.013149
0.00426221
-0.00446067
-0.0139371
-0.0232564
-0.0336131
-0.0336131
0
0
0.465611
0.443826
0.423821
0.405418
0.388927
0.374255
0.361472
0.350705
0.342044
0.335426
0.3306
0.327119
0.32444
0.322105
0.31986
0.317115
0.313517
0.308499
0.306025
0.300598
0.294423
0.287813
0.280711
0.273007
0.264433
0.254212
0.239714
0.213262
0.275069
0.246561
0.231334
0.219778
0.209353
0.199337
0.189549
0.180046
0.170944
0.162664
0.154315
0.145247
0.135791
0.126292
0.116656
0.106955
0.097212
0.0874733
0.0777011
0.0679035
0.0594673
0.050427
0.0413961
0.032565
0.0224666
0.0137917
0.00497154
-0.00370325
-0.0126993
-0.0219728
-0.0323212
-0.0323212
0
0
0.465623
0.44372
0.423606
0.405225
0.38863
0.373816
0.360893
0.350013
0.341265
0.334577
0.329643
0.326064
0.323351
0.321028
0.318689
0.316027
0.313062
0.310483
0.303335
0.298116
0.292598
0.286429
0.279601
0.272061
0.263639
0.253966
0.242757
0.233174
0.248578
0.241335
0.230627
0.219819
0.209322
0.199062
0.188938
0.179032
0.169767
0.162159
0.155865
0.147066
0.137337
0.127438
0.117544
0.107679
0.0977871
0.0879641
0.0781701
0.0685091
0.0595288
0.0510089
0.0420616
0.0329577
0.0235438
0.0147083
0.00543151
-0.0029227
-0.0113557
-0.020138
-0.0301877
-0.0301877
0
0
0.465704
0.443645
0.423503
0.405152
0.388528
0.37352
0.360464
0.349519
0.340748
0.334053
0.328987
0.325284
0.322508
0.32018
0.317841
0.315191
0.312142
0.30862
0.303188
0.297696
0.291968
0.285797
0.279089
0.271803
0.263923
0.255544
0.247201
0.241241
0.240675
0.235477
0.227359
0.217989
0.208126
0.198022
0.187623
0.1769
0.166053
0.157291
0.161151
0.15126
0.140042
0.129208
0.118754
0.108569
0.0984539
0.0885541
0.0787293
0.0689686
0.0595065
0.0516182
0.0425456
0.0333659
0.0245141
0.0167312
0.00460717
-0.00239491
-0.00993001
-0.0175041
-0.0261492
-0.0261492
0
0
0.465436
0.443779
0.423642
0.405284
0.388754
0.365287
0.359975
0.349122
0.340441
0.333864
0.328531
0.324654
0.321826
0.319546
0.317248
0.314554
0.311317
0.307509
0.302795
0.297527
0.291817
0.285668
0.27907
0.272048
0.264707
0.257345
0.268073
0.243807
0.239181
0.232785
0.224886
0.216051
0.206627
0.196712
0.186047
0.174021
0.158166
0.129004
0.189141
0.160058
0.143744
0.131188
0.119955
0.109322
0.099199
0.0892066
0.0793765
0.0695753
0.0595963
0.052202
0.0426148
0.0334085
0.0246377
0.0160349
0.00601752
-0.0172533
-0.00876033
-0.0144834
-0.0176868
0
0
0
0.465517
0.443035
0.423468
0.405298
0.388929
0.373306
0.359978
0.348995
0.340381
0.334111
0.328096
0.324094
0.321282
0.319188
0.316989
0.314225
0.310798
0.30705
0.302592
0.297487
0.29186
0.285784
0.279303
0.272479
0.265437
0.258395
0.251364
0.244019
0.23907
0.231529
0.223251
0.214558
0.205407
0.192362
0.185347
0.173957
0.161212
0.149986
0.164261
0.142671
0.143278
0.131598
0.120454
0.109815
0.099619
0.089701
0.0800959
0.0709507
0.0622936
0.0502961
0.0415044
0.0329077
0.0243203
0.0157449
0.00714079
-0.000699192
-0.00855923
-0.0163561
-0.0253532
-0.0253532
0
0
0.46555
0.443643
0.42327
0.405305
0.389208
0.372899
0.359735
0.348879
0.340323
0.334567
0.327472
0.323844
0.321091
0.319395
0.317313
0.314361
0.310596
0.307159
0.302749
0.297648
0.292051
0.286041
0.279644
0.272914
0.265956
0.259049
0.253504
0.24748
0.237613
0.229758
0.221831
0.213515
0.204863
0.195819
0.186112
0.176014
0.166241
0.158877
0.156649
0.150151
0.14076
0.130452
0.119981
0.109705
0.0996871
0.0898829
0.0803351
0.0710292
0.0616379
0.0511031
0.0416449
0.0327262
0.0240557
0.0155384
0.00711648
-0.00116539
-0.00974618
-0.0189823
-0.0295193
-0.0295193
0
0
0.465571
0.44372
0.423725
0.404597
0.386908
0.373261
0.360243
0.349014
0.339757
0.331643
0.329087
0.325365
0.321755
0.339153
0.318539
0.315133
0.310818
0.307838
0.303116
0.29789
0.292328
0.286402
0.280059
0.273322
0.26611
0.257798
0.256498
0.247617
0.238498
0.229937
0.221564
0.213199
0.204868
0.196346
0.187332
0.178192
0.169488
0.161869
0.155016
0.147356
0.138574
0.129061
0.119022
0.109169
0.0994293
0.0897385
0.0801993
0.0707565
0.0612214
0.0514064
0.0418059
0.0326133
0.0237788
0.0151982
0.00659632
-0.00203026
-0.01105
-0.0208448
-0.0315772
-0.0315772
0
0
0.465569
0.443691
0.42351
0.404672
0.387488
0.372895
0.359932
0.348837
0.339831
0.333073
0.3291
0.325913
0.364589
0.322843
0.319706
0.316237
0.313125
0.307436
0.302817
0.297961
0.292667
0.286925
0.280623
0.273926
0.266904
0.259698
0.254556
0.247092
0.238724
0.230154
0.221538
0.21302
0.204982
0.197415
0.188819
0.180085
0.171431
0.163104
0.154826
0.146319
0.13746
0.128447
0.117732
0.108413
0.0989241
0.0893366
0.0798712
0.0704542
0.0610044
0.051375
0.0416174
0.0322837
0.0233177
0.0146436
0.00591217
-0.00280755
-0.0120194
-0.0221429
-0.032863
-0.032863
0
0
0.465567
0.443676
0.423462
0.404844
0.38796
0.373021
0.359796
0.348671
0.33982
0.334685
0.330194
0.327245
0.32619
0.320728
0.31828
0.315755
0.312597
0.308207
0.303594
0.298698
0.293456
0.287829
0.281393
0.2747
0.267876
0.26101
0.254306
0.246815
0.238685
0.230134
0.22124
0.212143
0.203698
0.199872
0.190774
0.182165
0.172993
0.163973
0.155026
0.146025
0.136883
0.127496
0.117476
0.107784
0.0847606
0.0887368
0.0794594
0.0701443
0.060839
0.0512073
0.0326003
0.0317
0.0226327
-0.00591353
0.00515671
-0.00334387
-0.0125725
-0.0232087
-0.0338796
-0.0338796
0
0
0.465572
0.443696
0.423527
0.405067
0.388392
0.373482
0.359651
0.348339
0.338005
0.33853
0.331719
0.328077
0.325723
0.322308
0.319495
0.316639
0.312895
0.308957
0.304541
0.299695
0.294521
0.289097
0.282203
0.275537
0.268843
0.261968
0.254803
0.243253
0.238845
0.230189
0.220758
0.209835
0.193788
0.21063
0.193097
0.185786
0.174596
0.164765
0.155331
0.14601
0.136625
0.126965
0.117208
0.107614
0.0982118
0.0886263
0.0791526
0.0697859
0.0606277
0.0513058
0.0403643
0.03152
0.0227648
0.0141869
0.00520459
-0.00352925
-0.012634
-0.0242267
-0.0346372
-0.0346372
0
0
0.465581
0.443732
0.423629
0.405317
0.388966
0.375102
0.358788
0.348762
0.340052
0.336076
0.33168
0.32837
0.325844
0.323347
0.320953
0.318773
0.313061
0.309835
0.305589
0.300765
0.295585
0.290438
0.28291
0.276585
0.27004
0.263062
0.255728
0.24774
0.239539
0.230857
0.221234
0.211287
0.201434
0.201984
0.193093
0.184604
0.174803
0.165037
0.15547
0.146038
0.136569
0.126616
0.116862
0.10731
0.0978422
0.0883063
0.078757
0.0691826
0.0481674
0.0512059
0.0395633
0.0315746
0.0226631
0.0137122
0.00467847
-0.00410903
-0.0125862
-0.0248891
-0.0345866
-0.0345866
0
0
0.465588
0.443757
0.423697
0.405453
0.38912
0.374747
0.361095
0.350091
0.341601
0.335916
0.331753
0.328758
0.326443
0.324323
0.322119
0.319561
0.315329
0.311345
0.306899
0.30189
0.29624
0.289518
0.285166
0.278692
0.271712
0.26431
0.25651
0.248829
0.240709
0.232645
0.221816
0.213519
0.205573
0.199514
0.191764
0.183278
0.174129
0.164728
0.155302
0.145957
0.136624
0.126188
0.116503
0.107035
0.0975572
0.0880149
0.078422
0.0687681
0.0589704
0.0485887
0.0428175
0.0320916
0.0224922
0.0131427
0.00372089
-0.00602707
-0.0160483
-0.0215782
-0.0327425
-0.0327425
0
0
0.465586
0.443752
0.423705
0.405501
0.389209
0.374898
0.362617
0.351086
0.342553
0.336591
0.332502
0.329673
0.327534
0.32557
0.323446
0.320861
0.317308
0.313158
0.308478
0.303304
0.297731
0.291471
0.280711
0.279601
0.272836
0.265348
0.257537
0.249658
0.241557
0.233227
0.223924
0.215424
0.207328
0.199452
0.191216
0.182565
0.173547
0.164295
0.154936
0.145621
0.136562
0.125687
0.116372
0.106979
0.0974396
0.0878324
0.0781927
0.0685254
0.0588448
0.049374
0.0413546
0.0318036
0.0222219
0.0127625
0.00334978
-0.00605421
-0.0152162
-0.0230153
-0.0332059
-0.0332059
0
0
0.465567
0.443687
0.423619
0.405463
0.389249
0.375124
0.363747
0.351439
0.343474
0.337855
0.333898
0.331174
0.329113
0.327188
0.32509
0.322706
0.319194
0.314879
0.310034
0.304759
0.299299
0.293391
0.287324
0.280722
0.273788
0.266098
0.25836
0.250492
0.242403
0.234048
0.225403
0.216859
0.208414
0.199917
0.191248
0.182355
0.173244
0.163944
0.154462
0.144697
0.134501
0.126795
0.117076
0.107219
0.0974417
0.0877234
0.0780457
0.0684089
0.058854
0.0495118
0.0404835
0.031194
0.0218139
0.0124923
0.0033065
-0.00560228
-0.0152893
-0.0240344
-0.0340918
-0.0340918
0
0
0.465511
0.443498
0.423402
0.405342
0.389148
0.374652
0.361112
0.353565
0.345935
0.340052
0.335913
0.33314
0.331101
0.329146
0.326779
0.324694
0.320805
0.31628
0.31142
0.306141
0.301004
0.295186
0.288832
0.28177
0.235508
0.2665
0.259238
0.251533
0.243471
0.235134
0.226607
0.217993
0.209306
0.200494
0.191532
0.182418
0.17316
0.163765
0.154235
0.144571
0.134938
0.126111
0.116696
0.10701
0.0972741
0.0875578
0.0778862
0.0682721
0.058733
0.049308
0.0399787
0.0306725
0.0213956
0.0122061
0.00312923
-0.00588866
-0.0152395
-0.024534
-0.0346973
-0.0346973
0
0
0.465402
0.443035
0.428583
0.405293
0.389271
0.375114
0.362887
0.354076
0.346968
0.341568
0.337774
0.335218
0.33339
0.331993
0.327624
0.325767
0.321298
0.314197
0.312821
0.30779
0.303051
0.297142
0.290701
0.283976
0.2771
0.269202
0.261215
0.253115
0.244845
0.236393
0.227785
0.219045
0.210168
0.201122
0.191926
0.182614
0.173206
0.163717
0.15417
0.144607
0.13511
0.125721
0.116204
0.106595
0.0969533
0.0872957
0.0776631
0.0680697
0.0585024
0.0489976
0.039572
0.030231
0.0209882
0.0118717
0.00282475
-0.00624996
-0.0154432
-0.0248742
-0.0340918
-0.0350551
0
0
0.46538
0.441724
0.422157
0.404852
0.389435
0.375917
0.364506
0.355496
0.34852
0.343404
0.339898
0.33755
0.335752
0.333703
0.329192
0.127586
0.320359
0.318644
0.315422
0.311359
0.305151
0.299081
0.292727
0.286098
0.27854
0.27077
0.262804
0.254633
0.246258
0.237697
0.228974
0.220104
0.211065
0.201788
0.192362
0.182861
0.173309
0.163712
0.154108
0.144541
0.135019
0.125356
0.115678
0.106084
0.0965387
0.086948
0.0773773
0.0678274
0.0582204
0.0486537
0.0391863
0.0298213
0.020583
0.0115224
0.00248276
-0.0066206
-0.0158374
-0.0307181
-0.0355383
-0.0355383
0
0
0.46739
0.43855
0.421473
0.405017
0.39014
0.377142
0.366259
0.357545
0.350779
0.345903
0.342642
0.340503
0.338873
0.337171
0.335049
0.334679
0.33018
0.325367
0.320325
0.314917
0.30863
0.302047
0.295245
0.288408
0.280111
0.2724
0.264449
0.256194
0.247709
0.239024
0.230181
0.2212
0.21203
0.202467
0.19279
0.183112
0.173421
0.163686
0.153936
0.14427
0.134703
0.124747
0.114925
0.105404
0.0960257
0.086505
0.0770419
0.067608
0.0579497
0.0483324
0.0388506
0.0294625
0.0201958
0.0111954
-0.00347363
-0.0069712
-0.0160503
-0.0254745
-0.0398313
-0.0358566
0
0
0.465684
0.442157
0.423019
0.406239
0.391551
0.378852
0.368359
0.360276
0.353788
0.349179
0.346172
0.344246
0.342812
0.34144
0.339716
0.33791
0.334342
0.329697
0.324361
0.318461
0.31199
0.305031
0.2976
0.289503
0.28278
0.274777
0.266416
0.257869
0.249213
0.240367
0.231392
0.222331
0.213099
0.203092
0.193163
0.183366
0.173563
0.163651
0.153548
0.143629
0.134017
0.12359
0.113708
0.104424
0.0953755
0.0859171
0.0766653
0.0675216
0.057797
0.0481674
0.0387089
0.0292829
0.0199142
0.0111441
0.00200787
-0.00720647
-0.0163493
-0.025736
-0.035836
-0.035836
0
0
0.465627
0.443777
0.42463
0.407891
0.388528
0.380909
0.370254
0.364177
0.357681
0.353335
0.350585
0.348833
0.347418
0.321028
0.344048
0.341726
0.33816
0.333521
0.328057
0.321946
0.315297
0.308034
0.300312
0.292311
0.284618
0.276514
0.268073
0.259368
0.250739
0.24166
0.232543
0.223425
0.214289
0.203506
0.1935
0.183709
0.173847
0.163898
0.152735
0.142297
0.132279
0.121383
0.111847
0.102979
0.0944771
0.0851114
0.0762561
0.067719
0.0580082
0.0485002
0.0390795
0.0295461
0.0198668
0.011024
0.00156382
-0.00767801
-0.0168143
-0.0261824
-0.0362488
-0.0362488
0
0
0.465802
0.444647
0.425966
0.40972
0.395846
0.384099
0.374496
0.36783
0.362331
0.358441
0.355984
0.354395
0.353189
0.352022
0.349863
0.346798
0.34272
0.337708
0.331925
0.325545
0.3187
0.311027
0.302993
0.294838
0.286654
0.278287
0.269695
0.260883
0.251955
0.242804
0.233509
0.224217
0.215266
0.203718
0.194096
0.18436
0.174274
0.163823
0.152515
0.140371
0.00639493
0.118056
0.109577
0.100703
0.0926848
0.0843144
0.0758539
0.0680227
0.0593551
0.0501443
0.0404633
0.0306354
0.0208957
0.0101092
0.00076367
-0.0083623
-0.017447
-0.0267633
-0.0367718
-0.0367718
0
0
0.465974
0.445295
0.427209
0.41168
0.398629