# vtk DataFile Version 2.0
FlowField
ASCII
DATASET STRUCTURED_GRID
DIMENSIONS 102 11 11 
POINTS 12342 double
0 0 0
0 0 0.2
0 0 0.4
0 0 0.6
0 0 0.8
0 0 1
0 0 1.2
0 0 1.4
0 0 1.6
0 0 1.8
0 0 2
0 0.1 0
0 0.1 0.2
0 0.1 0.4
0 0.1 0.6
0 0.1 0.8
0 0.1 1
0 0.1 1.2
0 0.1 1.4
0 0.1 1.6
0 0.1 1.8
0 0.1 2
0 0.2 0
0 0.2 0.2
0 0.2 0.4
0 0.2 0.6
0 0.2 0.8
0 0.2 1
0 0.2 1.2
0 0.2 1.4
0 0.2 1.6
0 0.2 1.8
0 0.2 2
0 0.3 0
0 0.3 0.2
0 0.3 0.4
0 0.3 0.6
0 0.3 0.8
0 0.3 1
0 0.3 1.2
0 0.3 1.4
0 0.3 1.6
0 0.3 1.8
0 0.3 2
0 0.4 0
0 0.4 0.2
0 0.4 0.4
0 0.4 0.6
0 0.4 0.8
0 0.4 1
0 0.4 1.2
0 0.4 1.4
0 0.4 1.6
0 0.4 1.8
0 0.4 2
0 0.5 0
0 0.5 0.2
0 0.5 0.4
0 0.5 0.6
0 0.5 0.8
0 0.5 1
0 0.5 1.2
0 0.5 1.4
0 0.5 1.6
0 0.5 1.8
0 0.5 2
0 0.6 0
0 0.6 0.2
0 0.6 0.4
0 0.6 0.6
0 0.6 0.8
0 0.6 1
0 0.6 1.2
0 0.6 1.4
0 0.6 1.6
0 0.6 1.8
0 0.6 2
0 0.7 0
0 0.7 0.2
0 0.7 0.4
0 0.7 0.6
0 0.7 0.8
0 0.7 1
0 0.7 1.2
0 0.7 1.4
0 0.7 1.6
0 0.7 1.8
0 0.7 2
0 0.8 0
0 0.8 0.2
0 0.8 0.4
0 0.8 0.6
0 0.8 0.8
0 0.8 1
0 0.8 1.2
0 0.8 1.4
0 0.8 1.6
0 0.8 1.8
0 0.8 2
0 0.9 0
0 0.9 0.2
0 0.9 0.4
0 0.9 0.6
0 0.9 0.8
0 0.9 1
0 0.9 1.2
0 0.9 1.4
0 0.9 1.6
0 0.9 1.8
0 0.9 2
0 1 0
0 1 0.2
0 1 0.4
0 1 0.6
0 1 0.8
0 1 1
0 1 1.2
0 1 1.4
0 1 1.6
0 1 1.8
0 1 2
0.2 0 0
0.2 0 0.2
0.2 0 0.4
0.2 0 0.6
0.2 0 0.8
0.2 0 1
0.2 0 1.2
0.2 0 1.4
0.2 0 1.6
0.2 0 1.8
0.2 0 2
0.2 0.1 0
0.2 0.1 0.2
0.2 0.1 0.4
0.2 0.1 0.6
0.2 0.1 0.8
0.2 0.1 1
0.2 0.1 1.2
0.2 0.1 1.4
0.2 0.1 1.6
0.2 0.1 1.8
0.2 0.1 2
0.2 0.2 0
0.2 0.2 0.2
0.2 0.2 0.4
0.2 0.2 0.6
0.2 0.2 0.8
0.2 0.2 1
0.2 0.2 1.2
0.2 0.2 1.4
0.2 0.2 1.6
0.2 0.2 1.8
0.2 0.2 2
0.2 0.3 0
0.2 0.3 0.2
0.2 0.3 0.4
0.2 0.3 0.6
0.2 0.3 0.8
0.2 0.3 1
0.2 0.3 1.2
0.2 0.3 1.4
0.2 0.3 1.6
0.2 0.3 1.8
0.2 0.3 2
0.2 0.4 0
0.2 0.4 0.2
0.2 0.4 0.4
0.2 0.4 0.6
0.2 0.4 0.8
0.2 0.4 1
0.2 0.4 1.2
0.2 0.4 1.4
0.2 0.4 1.6
0.2 0.4 1.8
0.2 0.4 2
0.2 0.5 0
0.2 0.5 0.2
0.2 0.5 0.4
0.2 0.5 0.6
0.2 0.5 0.8
0.2 0.5 1
0.2 0.5 1.2
0.2 0.5 1.4
0.2 0.5 1.6
0.2 0.5 1.8
0.2 0.5 2
0.2 0.6 0
0.2 0.6 0.2
0.2 0.6 0.4
0.2 0.6 0.6
0.2 0.6 0.8
0.2 0.6 1
0.2 0.6 1.2
0.2 0.6 1.4
0.2 0.6 1.6
0.2 0.6 1.8
0.2 0.6 2
0.2 0.7 0
0.2 0.7 0.2
0.2 0.7 0.4
0.2 0.7 0.6
0.2 0.7 0.8
0.2 0.7 1
0.2 0.7 1.2
0.2 0.7 1.4
0.2 0.7 1.6
0.2 0.7 1.8
0.2 0.7 2
0.2 0.8 0
0.2 0.8 0.2
0.2 0.8 0.4
0.2 0.8 0.6
0.2 0.8 0.8
0.2 0.8 1
0.2 0.8 1.2
0.2 0.8 1.4
0.2 0.8 1.6
0.2 0.8 1.8
0.2 0.8 2
0.2 0.9 0
0.2 0.9 0.2
0.2 0.9 0.4
0.2 0.9 0.6
0.2 0.9 0.8
0.2 0.9 1
0.2 0.9 1.2
0.2 0.9 1.4
0.2 0.9 1.6
0.2 0.9 1.8
0.2 0.9 2
0.2 1 0
0.2 1 0.2
0.2 1 0.4
0.2 1 0.6
0.2 1 0.8
0.2 1 1
0.2 1 1.2
0.2 1 1.4
0.2 1 1.6
0.2 1 1.8
0.2 1 2
0.4 0 0
0.4 0 0.2
0.4 0 0.4
0.4 0 0.6
0.4 0 0.8
0.4 0 1
0.4 0 1.2
0.4 0 1.4
0.4 0 1.6
0.4 0 1.8
0.4 0 2
0.4 0.1 0
0.4 0.1 0.2
0.4 0.1 0.4
0.4 0.1 0.6
0.4 0.1 0.8
0.4 0.1 1
0.4 0.1 1.2
0.4 0.1 1.4
0.4 0.1 1.6
0.4 0.1 1.8
0.4 0.1 2
0.4 0.2 0
0.4 0.2 0.2
0.4 0.2 0.4
0.4 0.2 0.6
0.4 0.2 0.8
0.4 0.2 1
0.4 0.2 1.2
0.4 0.2 1.4
0.4 0.2 1.6
0.4 0.2 1.8
0.4 0.2 2
0.4 0.3 0
0.4 0.3 0.2
0.4 0.3 0.4
0.4 0.3 0.6
0.4 0.3 0.8
0.4 0.3 1
0.4 0.3 1.2
0.4 0.3 1.4
0.4 0.3 1.6
0.4 0.3 1.8
0.4 0.3 2
0.4 0.4 0
0.4 0.4 0.2
0.4 0.4 0.4
0.4 0.4 0.6
0.4 0.4 0.8
0.4 0.4 1
0.4 0.4 1.2
0.4 0.4 1.4
0.4 0.4 1.6
0.4 0.4 1.8
0.4 0.4 2
0.4 0.5 0
0.4 0.5 0.2
0.4 0.5 0.4
0.4 0.5 0.6
0.4 0.5 0.8
0.4 0.5 1
0.4 0.5 1.2
0.4 0.5 1.4
0.4 0.5 1.6
0.4 0.5 1.8
0.4 0.5 2
0.4 0.6 0
0.4 0.6 0.2
0.4 0.6 0.4
0.4 0.6 0.6
0.4 0.6 0.8
0.4 0.6 1
0.4 0.6 1.2
0.4 0.6 1.4
0.4 0.6 1.6
0.4 0.6 1.8
0.4 0.6 2
0.4 0.7 0
0.4 0.7 0.2
0.4 0.7 0.4
0.4 0.7 0.6
0.4 0.7 0.8
0.4 0.7 1
0.4 0.7 1.2
0.4 0.7 1.4
0.4 0.7 1.6
0.4 0.7 1.8
0.4 0.7 2
0.4 0.8 0
0.4 0.8 0.2
0.4 0.8 0.4
0.4 0.8 0.6
0.4 0.8 0.8
0.4 0.8 1
0.4 0.8 1.2
0.4 0.8 1.4
0.4 0.8 1.6
0.4 0.8 1.8
0.4 0.8 2
0.4 0.9 0
0.4 0.9 0.2
0.4 0.9 0.4
0.4 0.9 0.6
0.4 0.9 0.8
0.4 0.9 1
0.4 0.9 1.2
0.4 0.9 1.4
0.4 0.9 1.6
0.4 0.9 1.8
0.4 0.9 2
0.4 1 0
0.4 1 0.2
0.4 1 0.4
0.4 1 0.6
0.4 1 0.8
0.4 1 1
0.4 1 1.2
0.4 1 1.4
0.4 1 1.6
0.4 1 1.8
0.4 1 2
0.6 0 0
0.6 0 0.2
0.6 0 0.4
0.6 0 0.6
0.6 0 0.8
0.6 0 1
0.6 0 1.2
0.6 0 1.4
0.6 0 1.6
0.6 0 1.8
0.6 0 2
0.6 0.1 0
0.6 0.1 0.2
0.6 0.1 0.4
0.6 0.1 0.6
0.6 0.1 0.8
0.6 0.1 1
0.6 0.1 1.2
0.6 0.1 1.4
0.6 0.1 1.6
0.6 0.1 1.8
0.6 0.1 2
0.6 0.2 0
0.6 0.2 0.2
0.6 0.2 0.4
0.6 0.2 0.6
0.6 0.2 0.8
0.6 0.2 1
0.6 0.2 1.2
0.6 0.2 1.4
0.6 0.2 1.6
0.6 0.2 1.8
0.6 0.2 2
0.6 0.3 0
0.6 0.3 0.2
0.6 0.3 0.4
0.6 0.3 0.6
0.6 0.3 0.8
0.6 0.3 1
0.6 0.3 1.2
0.6 0.3 1.4
0.6 0.3 1.6
0.6 0.3 1.8
0.6 0.3 2
0.6 0.4 0
0.6 0.4 0.2
0.6 0.4 0.4
0.6 0.4 0.6
0.6 0.4 0.8
0.6 0.4 1
0.6 0.4 1.2
0.6 0.4 1.4
0.6 0.4 1.6
0.6 0.4 1.8
0.6 0.4 2
0.6 0.5 0
0.6 0.5 0.2
0.6 0.5 0.4
0.6 0.5 0.6
0.6 0.5 0.8
0.6 0.5 1
0.6 0.5 1.2
0.6 0.5 1.4
0.6 0.5 1.6
0.6 0.5 1.8
0.6 0.5 2
0.6 0.6 0
0.6 0.6 0.2
0.6 0.6 0.4
0.6 0.6 0.6
0.6 0.6 0.8
0.6 0.6 1
0.6 0.6 1.2
0.6 0.6 1.4
0.6 0.6 1.6
0.6 0.6 1.8
0.6 0.6 2
0.6 0.7 0
0.6 0.7 0.2
0.6 0.7 0.4
0.6 0.7 0.6
0.6 0.7 0.8
0.6 0.7 1
0.6 0.7 1.2
0.6 0.7 1.4
0.6 0.7 1.6
0.6 0.7 1.8
0.6 0.7 2
0.6 0.8 0
0.6 0.8 0.2
0.6 0.8 0.4
0.6 0.8 0.6
0.6 0.8 0.8
0.6 0.8 1
0.6 0.8 1.2
0.6 0.8 1.4
0.6 0.8 1.6
0.6 0.8 1.8
0.6 0.8 2
0.6 0.9 0
0.6 0.9 0.2
0.6 0.9 0.4
0.6 0.9 0.6
0.6 0.9 0.8
0.6 0.9 1
0.6 0.9 1.2
0.6 0.9 1.4
0.6 0.9 1.6
0.6 0.9 1.8
0.6 0.9 2
0.6 1 0
0.6 1 0.2
0.6 1 0.4
0.6 1 0.6
0.6 1 0.8
0.6 1 1
0.6 1 1.2
0.6 1 1.4
0.6 1 1.6
0.6 1 1.8
0.6 1 2
0.8 0 0
0.8 0 0.2
0.8 0 0.4
0.8 0 0.6
0.8 0 0.8
0.8 0 1
0.8 0 1.2
0.8 0 1.4
0.8 0 1.6
0.8 0 1.8
0.8 0 2
0.8 0.1 0
0.8 0.1 0.2
0.8 0.1 0.4
0.8 0.1 0.6
0.8 0.1 0.8
0.8 0.1 1
0.8 0.1 1.2
0.8 0.1 1.4
0.8 0.1 1.6
0.8 0.1 1.8
0.8 0.1 2
0.8 0.2 0
0.8 0.2 0.2
0.8 0.2 0.4
0.8 0.2 0.6
0.8 0.2 0.8
0.8 0.2 1
0.8 0.2 1.2
0.8 0.2 1.4
0.8 0.2 1.6
0.8 0.2 1.8
0.8 0.2 2
0.8 0.3 0
0.8 0.3 0.2
0.8 0.3 0.4
0.8 0.3 0.6
0.8 0.3 0.8
0.8 0.3 1
0.8 0.3 1.2
0.8 0.3 1.4
0.8 0.3 1.6
0.8 0.3 1.8
0.8 0.3 2
0.8 0.4 0
0.8 0.4 0.2
0.8 0.4 0.4
0.8 0.4 0.6
0.8 0.4 0.8
0.8 0.4 1
0.8 0.4 1.2
0.8 0.4 1.4
0.8 0.4 1.6
0.8 0.4 1.8
0.8 0.4 2
0.8 0.5 0
0.8 0.5 0.2
0.8 0.5 0.4
0.8 0.5 0.6
0.8 0.5 0.8
0.8 0.5 1
0.8 0.5 1.2
0.8 0.5 1.4
0.8 0.5 1.6
0.8 0.5 1.8
0.8 0.5 2
0.8 0.6 0
0.8 0.6 0.2
0.8 0.6 0.4
0.8 0.6 0.6
0.8 0.6 0.8
0.8 0.6 1
0.8 0.6 1.2
0.8 0.6 1.4
0.8 0.6 1.6
0.8 0.6 1.8
0.8 0.6 2
0.8 0.7 0
0.8 0.7 0.2
0.8 0.7 0.4
0.8 0.7 0.6
0.8 0.7 0.8
0.8 0.7 1
0.8 0.7 1.2
0.8 0.7 1.4
0.8 0.7 1.6
0.8 0.7 1.8
0.8 0.7 2
0.8 0.8 0
0.8 0.8 0.2
0.8 0.8 0.4
0.8 0.8 0.6
0.8 0.8 0.8
0.8 0.8 1
0.8 0.8 1.2
0.8 0.8 1.4
0.8 0.8 1.6
0.8 0.8 1.8
0.8 0.8 2
0.8 0.9 0
0.8 0.9 0.2
0.8 0.9 0.4
0.8 0.9 0.6
0.8 0.9 0.8
0.8 0.9 1
0.8 0.9 1.2
0.8 0.9 1.4
0.8 0.9 1.6
0.8 0.9 1.8
0.8 0.9 2
0.8 1 0
0.8 1 0.2
0.8 1 0.4
0.8 1 0.6
0.8 1 0.8
0.8 1 1
0.8 1 1.2
0.8 1 1.4
0.8 1 1.6
0.8 1 1.8
0.8 1 2
1 0 0
1 0 0.2
1 0 0.4
1 0 0.6
1 0 0.8
1 0 1
1 0 1.2
1 0 1.4
1 0 1.6
1 0 1.8
1 0 2
1 0.1 0
1 0.1 0.2
1 0.1 0.4
1 0.1 0.6
1 0.1 0.8
1 0.1 1
1 0.1 1.2
1 0.1 1.4
1 0.1 1.6
1 0.1 1.8
1 0.1 2
1 0.2 0
1 0.2 0.2
1 0.2 0.4
1 0.2 0.6
1 0.2 0.8
1 0.2 1
1 0.2 1.2
1 0.2 1.4
1 0.2 1.6
1 0.2 1.8
1 0.2 2
1 0.3 0
1 0.3 0.2
1 0.3 0.4
1 0.3 0.6
1 0.3 0.8
1 0.3 1
1 0.3 1.2
1 0.3 1.4
1 0.3 1.6
1 0.3 1.8
1 0.3 2
1 0.4 0
1 0.4 0.2
1 0.4 0.4
1 0.4 0.6
1 0.4 0.8
1 0.4 1
1 0.4 1.2
1 0.4 1.4
1 0.4 1.6
1 0.4 1.8
1 0.4 2
1 0.5 0
1 0.5 0.2
1 0.5 0.4
1 0.5 0.6
1 0.5 0.8
1 0.5 1
1 0.5 1.2
1 0.5 1.4
1 0.5 1.6
1 0.5 1.8
1 0.5 2
1 0.6 0
1 0.6 0.2
1 0.6 0.4
1 0.6 0.6
1 0.6 0.8
1 0.6 1
1 0.6 1.2
1 0.6 1.4
1 0.6 1.6
1 0.6 1.8
1 0.6 2
1 0.7 0
1 0.7 0.2
1 0.7 0.4
1 0.7 0.6
1 0.7 0.8
1 0.7 1
1 0.7 1.2
1 0.7 1.4
1 0.7 1.6
1 0.7 1.8
1 0.7 2
1 0.8 0
1 0.8 0.2
1 0.8 0.4
1 0.8 0.6
1 0.8 0.8
1 0.8 1
1 0.8 1.2
1 0.8 1.4
1 0.8 1.6
1 0.8 1.8
1 0.8 2
1 0.9 0
1 0.9 0.2
1 0.9 0.4
1 0.9 0.6
1 0.9 0.8
1 0.9 1
1 0.9 1.2
1 0.9 1.4
1 0.9 1.6
1 0.9 1.8
1 0.9 2
1 1 0
1 1 0.2
1 1 0.4
1 1 0.6
1 1 0.8
1 1 1
1 1 1.2
1 1 1.4
1 1 1.6
1 1 1.8
1 1 2
1.2 0 0
1.2 0 0.2
1.2 0 0.4
1.2 0 0.6
1.2 0 0.8
1.2 0 1
1.2 0 1.2
1.2 0 1.4
1.2 0 1.6
1.2 0 1.8
1.2 0 2
1.2 0.1 0
1.2 0.1 0.2
1.2 0.1 0.4
1.2 0.1 0.6
1.2 0.1 0.8
1.2 0.1 1
1.2 0.1 1.2
1.2 0.1 1.4
1.2 0.1 1.6
1.2 0.1 1.8
1.2 0.1 2
1.2 0.2 0
1.2 0.2 0.2
1.2 0.2 0.4
1.2 0.2 0.6
1.2 0.2 0.8
1.2 0.2 1
1.2 0.2 1.2
1.2 0.2 1.4
1.2 0.2 1.6
1.2 0.2 1.8
1.2 0.2 2
1.2 0.3 0
1.2 0.3 0.2
1.2 0.3 0.4
1.2 0.3 0.6
1.2 0.3 0.8
1.2 0.3 1
1.2 0.3 1.2
1.2 0.3 1.4
1.2 0.3 1.6
1.2 0.3 1.8
1.2 0.3 2
1.2 0.4 0
1.2 0.4 0.2
1.2 0.4 0.4
1.2 0.4 0.6
1.2 0.4 0.8
1.2 0.4 1
1.2 0.4 1.2
1.2 0.4 1.4
1.2 0.4 1.6
1.2 0.4 1.8
1.2 0.4 2
1.2 0.5 0
1.2 0.5 0.2
1.2 0.5 0.4
1.2 0.5 0.6
1.2 0.5 0.8
1.2 0.5 1
1.2 0.5 1.2
1.2 0.5 1.4
1.2 0.5 1.6
1.2 0.5 1.8
1.2 0.5 2
1.2 0.6 0
1.2 0.6 0.2
1.2 0.6 0.4
1.2 0.6 0.6
1.2 0.6 0.8
1.2 0.6 1
1.2 0.6 1.2
1.2 0.6 1.4
1.2 0.6 1.6
1.2 0.6 1.8
1.2 0.6 2
1.2 0.7 0
1.2 0.7 0.2
1.2 0.7 0.4
1.2 0.7 0.6
1.2 0.7 0.8
1.2 0.7 1
1.2 0.7 1.2
1.2 0.7 1.4
1.2 0.7 1.6
1.2 0.7 1.8
1.2 0.7 2
1.2 0.8 0
1.2 0.8 0.2
1.2 0.8 0.4
1.2 0.8 0.6
1.2 0.8 0.8
1.2 0.8 1
1.2 0.8 1.2
1.2 0.8 1.4
1.2 0.8 1.6
1.2 0.8 1.8
1.2 0.8 2
1.2 0.9 0
1.2 0.9 0.2
1.2 0.9 0.4
1.2 0.9 0.6
1.2 0.9 0.8
1.2 0.9 1
1.2 0.9 1.2
1.2 0.9 1.4
1.2 0.9 1.6
1.2 0.9 1.8
1.2 0.9 2
1.2 1 0
1.2 1 0.2
1.2 1 0.4
1.2 1 0.6
1.2 1 0.8
1.2 1 1
1.2 1 1.2
1.2 1 1.4
1.2 1 1.6
1.2 1 1.8
1.2 1 2
1.4 0 0
1.4 0 0.2
1.4 0 0.4
1.4 0 0.6
1.4 0 0.8
1.4 0 1
1.4 0 1.2
1.4 0 1.4
1.4 0 1.6
1.4 0 1.8
1.4 0 2
1.4 0.1 0
1.4 0.1 0.2
1.4 0.1 0.4
1.4 0.1 0.6
1.4 0.1 0.8
1.4 0.1 1
1.4 0.1 1.2
1.4 0.1 1.4
1.4 0.1 1.6
1.4 0.1 1.8
1.4 0.1 2
1.4 0.2 0
1.4 0.2 0.2
1.4 0.2 0.4
1.4 0.2 0.6
1.4 0.2 0.8
1.4 0.2 1
1.4 0.2 1.2
1.4 0.2 1.4
1.4 0.2 1.6
1.4 0.2 1.8
1.4 0.2 2
1.4 0.3 0
1.4 0.3 0.2
1.4 0.3 0.4
1.4 0.3 0.6
1.4 0.3 0.8
1.4 0.3 1
1.4 0.3 1.2
1.4 0.3 1.4
1.4 0.3 1.6
1.4 0.3 1.8
1.4 0.3 2
1.4 0.4 0
1.4 0.4 0.2
1.4 0.4 0.4
1.4 0.4 0.6
1.4 0.4 0.8
1.4 0.4 1
1.4 0.4 1.2
1.4 0.4 1.4
1.4 0.4 1.6
1.4 0.4 1.8
1.4 0.4 2
1.4 0.5 0
1.4 0.5 0.2
1.4 0.5 0.4
1.4 0.5 0.6
1.4 0.5 0.8
1.4 0.5 1
1.4 0.5 1.2
1.4 0.5 1.4
1.4 0.5 1.6
1.4 0.5 1.8
1.4 0.5 2
1.4 0.6 0
1.4 0.6 0.2
1.4 0.6 0.4
1.4 0.6 0.6
1.4 0.6 0.8
1.4 0.6 1
1.4 0.6 1.2
1.4 0.6 1.4
1.4 0.6 1.6
1.4 0.6 1.8
1.4 0.6 2
1.4 0.7 0
1.4 0.7 0.2
1.4 0.7 0.4
1.4 0.7 0.6
1.4 0.7 0.8
1.4 0.7 1
1.4 0.7 1.2
1.4 0.7 1.4
1.4 0.7 1.6
1.4 0.7 1.8
[...]
POINT_DATA 12342

SCALARS v double
LOOKUP_TABLE default
-0
0.0133896
0.0190824
0.01861
0.0182928
0.0181946
0.0182045
0.0183875
0.0189853
0.01583
-0
0
-0.0133896
-0.0190824
-0.01861
-0.0182928
-0.0181946
-0.0182045
-0.0183875
-0.0189853
-0.01583
0
0
-0.00738307
-0.0110379
-0.0108062
-0.0105795
-0.0105028
-0.0104995
-0.0106205
-0.0109638
-0.00897057
0
0
-0.00231434
-0.0042637
-0.00414382
-0.00400341
-0.00395411
-0.00394547
-0.00401146
-0.00417668
-0.00315664
0
0
0.00186401
0.0013902
0.0014803
0.00153728
0.0015572
0.00156813
0.00155771
0.00152105
0.00169932
0
0
0.00595703
0.0069113
0.00699393
0.00696517
0.00695462
0.00696732
0.00701568
0.00709464
0.00645649
0
0
0.0107348
0.0132342
0.0132679
0.0131459
0.0131037
0.0131182
0.0132268
0.0134424
0.0119211
0
0
0.0172016
0.0215578
0.0214275
0.0211965
0.0211199
0.0211362
0.0213048
0.0217094
0.0191335
0
0
0.0258278
0.0324762
0.0319879
0.0316231
0.0315066
0.0315223
0.0317472
0.0324043
0.0285575
0
0
0
0
0
0
0
0
0
0
0
0
-0
-0
-0
-0
-0
-0
-0
-0
-0
-0
-0
-0
-0.0133896
-0.0190824
-0.01861
-0.0182928
-0.0181946
-0.0182045
-0.0183875
-0.0189853
-0.01583
-0
0
0.00949827
0.0209257
0.0205455
0.0198177
0.0195726
0.0195703
0.0199274
0.0209651
0.0152436
0
0
0.00455351
0.0119888
0.0118367
0.0113372
0.011152
0.0111266
0.0113465
0.0119624
0.00831771
0
0
0.000369831
0.00435778
0.00425935
0.0039584
0.00384332
0.00381283
0.00392179
0.0042267
0.00236271
0
0
-0.00294958
-0.00199859
-0.00216149
-0.00228136
-0.00232478
-0.0023524
-0.00234724
-0.00228255
-0.00258153
0
0
-0.00618782
-0.00820008
-0.00845667
-0.00839382
-0.00836437
-0.00838708
-0.00848876
-0.00864962
-0.00741947
0
0
-0.01012
-0.0153265
-0.0156033
-0.0153376
-0.0152319
-0.0152499
-0.0154622
-0.0158835
-0.0130075
0
0
-0.0157618
-0.024764
-0.0248664
-0.0243509
-0.0241599
-0.0241734
-0.0245008
-0.0252625
-0.0204473
0
0
-0.023494
-0.0370905
-0.0366911
-0.0358475
-0.0355558
-0.0355603
-0.036003
-0.0371911
-0.0300909
0
0
0
0
0
0
0
0
0
0
0
0
-0
-0
-0
-0
-0
-0
-0
-0
-0
-0
-0
-0
-0.00231698
-0.00589855
-0.00569343
-0.00544441
-0.00534749
-0.00534045
-0.00545308
-0.00567507
-0.00372652
-0
0
-0.000472618
0.00698143
0.00692029
0.00634966
0.00611128
0.00607678
0.0062955
0.00667492
0.00302226
0
0
-0.000596614
0.00496237
0.00500167
0.00460867
0.00444773
0.00443041
0.00461299
0.00495506
0.00220853
0
0
-0.00189933
0.00131613
0.00132371
0.00108666
0.000994431
0.00098142
0.00109223
0.0013202
-0.000223709
0
0
-0.00359846
-0.00282908
-0.00293572
-0.0030223
-0.00304697
-0.00305722
-0.00303284
-0.00293088
-0.00320269
0
0
-0.0054122
-0.00713776
-0.00737313
-0.00730132
-0.00725492
-0.00726002
-0.0073261
-0.00734939
-0.00632748
0
0
-0.00710333
-0.0113864
-0.0116905
-0.0114434
-0.0113208
-0.0113173
-0.0114697
-0.0116252
-0.00929354
0
0
-0.00821596
-0.0150775
-0.0153215
-0.0148773
-0.0146742
-0.0146591
-0.0148869
-0.0151861
-0.0115617
0
0
-0.00752172
-0.0166502
-0.0166686
-0.0160166
-0.0157389
-0.0157129
-0.0159999
-0.0164386
-0.0117227
0
0
0
0
0
0
0
0
0
0
0
0
-0
-0
-0
-0
-0
-0
-0
-0
-0
-0
-0
-0
0.00134901
-0.000879734
-0.000907761
-0.000757382
-0.000684812
-0.000680777
-0.000748717
-0.000768835
0.000413382
-0
0
-0.00378387
0.000966856
0.00120018
0.000855744
0.000676157
0.000650382
0.000779448
0.000804597
-0.00145114
0
0
-0.00319753
0.000370043
0.000583772
0.000339587
0.000215991
0.000202796
0.00031614
0.000384108
-0.00133164
0
0
-0.0031161
-0.00101343
-0.000902082
-0.00105044
-0.00111774
-0.00112162
-0.00104103
-0.000957134
-0.00195211
0
0
-0.00327651
-0.00278258
-0.00283119
-0.00288487
-0.00289608
-0.00289336
-0.00285939
-0.00277351
-0.0029558
0
0
-0.00342859
-0.00460763
-0.00483063
-0.00478558
-0.00473976
-0.00473134
-0.00475088
-0.00467053
-0.00400377
0
0
-0.00330182
-0.00615788
-0.00652126
-0.00637013
-0.00626664
-0.00625254
-0.0063256
-0.00625901
-0.00474964
0
0
-0.00256187
-0.00701468
-0.00744036
-0.00717554
-0.00701595
-0.00699669
-0.00711803
-0.00707416
-0.00478141
0
0
-0.000828993
-0.00663979
-0.00701867
-0.00663702
-0.00642808
-0.00640659
-0.00656869
-0.00655221
-0.00362877
0
0
0
0
0
0
0
0
0
0
0
0
-0
-0
-0
-0
-0
-0
-0
-0
-0
-0
-0
-0
0.00178876
0.000307561
0.00013686
0.000199794
0.000245569
0.000245718
0.00021492
0.000301522
0.00107273
-0
0
-0.0040265
-0.000714607
-0.000289427
-0.000443509
-0.000560469
-0.00057266
-0.000509406
-0.000668595
-0.00219931
0
0
-0.00349864
-0.00111644
-0.000785065
-0.000898578
-0.000981209
-0.000987689
-0.000930086
-0.00101793
-0.00213088
0
0
-0.00308622
-0.00171333
-0.00153526
-0.00161002
-0.00165638
-0.00165642
-0.00160962
-0.00162784
-0.00225869
0
0
-0.00272259
-0.0024111
-0.00242526
-0.0024622
-0.00247155
-0.00246628
-0.00243707
-0.00238861
-0.0024976
0
0
-0.00230032
-0.00307927
-0.00329706
-0.00329457
-0.00326662
-0.00325737
-0.00325074
-0.00313984
-0.00270781
0
0
-0.00169967
-0.00357301
-0.0039751
-0.00392892
-0.00386405
-0.00385205
-0.00387011
-0.00370352
-0.00273301
0
0
-0.000807415
-0.00375111
-0.00428806
-0.00419206
-0.00409149
-0.00407803
-0.0041202
-0.00390636
-0.0024231
0
0
0.000424103
-0.00352929
-0.0041234
-0.00397056
-0.00383634
-0.00382328
-0.00388753
-0.0036349
-0.00169697
0
0
0
0
0
0
0
0
0
0
0
0
-0
-0
-0
-0
-0
-0
-0
-0
-0
-0
-0
-0
0.00159196
0.000607108
0.000373468
0.000366017
0.000385441
0.000386495
0.00039222
0.000529674
0.00103883
-0
0
-0.0035897
-0.00127301
-0.000754674
-0.000759673
-0.000817898
-0.00082556
-0.000827779
-0.00108691
-0.0021376
0
0
-0.00315928
-0.00154078
-0.00115421
-0.0011632
-0.00120583
-0.00120963
-0.00120185
-0.00136967
-0.00211125
0
0
-0.00273574
-0.00182054
-0.00160963
-0.00162512
-0.00165108
-0.00165034
-0.00163463
-0.00170877
-0.00211938
0
0
-0.00230242
-0.00209451
-0.00208481
-0.00210844
-0.00211719
-0.00211238
-0.0020918
-0.00207215
-0.00214009
0
0
-0.00182034
-0.00232689
-0.00252602
-0.00255719
-0.00254844
-0.00254042
-0.00251769
-0.00240591
-0.00212452
0
0
-0.00124895
-0.00247746
-0.00287399
-0.00290939
-0.00288308
-0.00287279
-0.00284969
-0.0026495
-0.0020188
0
0
-0.00055946
-0.00251913
-0.00308196
-0.00311586
-0.00307203
-0.00306031
-0.00303743
-0.00275405
-0.00178082
0
0
0.000236679
-0.00246258
-0.00313818
-0.00316327
-0.00310191
-0.00308973
-0.00306693
-0.00270717
-0.00141059
0
0
0
0
0
0
0
0
0
0
0
0
-0
-0
-0
-0
-0
-0
-0
-0
-0
-0
-0
-0
0.00134091
0.000705111
0.000466846
0.000411075
0.000407064
0.000411178
0.000444528
0.000590778
0.000922477
-0
0
-0.00309599
-0.00151786
-0.000994089
-0.000893362
-0.000898734
-0.000907516
-0.000963217
-0.00124985
-0.00195918
0
0
-0.00275732
-0.00167025
-0.00128637
-0.0012203
-0.0012264
-0.00123119
-0.00126322
-0.00145545
-0.00195001
0
0
-0.00240845
-0.00179834
-0.00158627
-0.00155789
-0.00156425
-0.00156469
-0.00157399
-0.00166895
-0.00193965
0
0
-0.002045
-0.00190211
-0.00187847
-0.00188962
-0.00189592
-0.00189225
-0.00188026
-0.00187747
-0.00192166
0
0
-0.00165223
-0.00197625
-0.00214602
-0.00219655
-0.00220249
-0.00219516
-0.00216326
-0.0020633
-0.00187906
0
0
-0.00121692
-0.00201565
-0.00237218
-0.00245961
-0.00246485
-0.00245435
-0.00240362
-0.00220826
-0.00179499
0
0
-0.00073217
-0.00202302
-0.00254725
-0.00266699
-0.00267108
-0.00265786
-0.00258889
-0.00230085
-0.00165914
0
0
-0.000210142
-0.00201738
-0.00267339
-0.00281934
-0.00282174
-0.00280639
-0.00271964
-0.00234368
-0.0014803
0
0
0
0
0
0
0
0
0
0
0
0
-0
-0
-0
-0
-0
-0
-0
-0
-0
-0
-0
-0
0.00113505
0.000734176
0.000523357
0.000442606
0.000421518
0.000427923
0.000475428
0.000606205
0.000823652
-0
0
-0.00267523
-0.00162654
-0.00115286
-0.000990847
-0.000955225
-0.000965806
-0.00105318
-0.00132016
-0.00179841
0
0
-0.00242352
-0.00170613
-0.00136222
-0.00125188
-0.00122915
-0.00123551
-0.00129172
-0.00147333
-0.00180497
0
0
-0.00216413
-0.00176163
-0.00156992
-0.00151442
-0.0015045
-0.00150639
-0.00153158
-0.00162516
-0.00180576
0
0
-0.00189597
-0.00179736
-0.00176846
-0.0017695
-0.00177225
-0.00176975
-0.0017646
-0.00176975
-0.00179909
0
0
-0.00161225
-0.00181565
-0.00195278
-0.0020105
-0.00202568
-0.00201898
-0.00198415
-0.00190106
-0.00177869
0
0
-0.00130776
-0.00181964
-0.00211912
-0.00223181
-0.00225905
-0.00224838
-0.00218445
-0.00201392
-0.00173922
0
0
-0.000980036
-0.00181636
-0.00226681
-0.00243117
-0.00246999
-0.00245558
-0.00236293
-0.0021063
-0.00167841
0
0
-0.000636202
-0.00182027
-0.00239802
-0.0026092
-0.00265897
-0.00264124
-0.00252049
-0.00218111
-0.00160286
0
0
0
0
0
0
0
0
0
0
0
0
-0
-0
-0
-0
-0
-0
-0
-0
-0
-0
-0
-0
0.000980006
0.000732711
0.000560445
0.000473199
0.000442475
0.000449221
0.000499174
0.000605507
0.000751681
-0
0
-0.00234107
-0.00165962
-0.00126051
-0.00107463
-0.00101282
-0.00102311
-0.00112062
-0.00134604
-0.00167362
0
0
-0.00216717
-0.00170238
-0.00141446
-0.00128618
-0.00124464
-0.00125112
-0.001316
-0.00147045
-0.00169695
0
0
-0.00198942
-0.00172747
-0.00156596
-0.00149826
-0.00147719
-0.00147961
-0.00151156
-0.00159281
-0.0017158
0
0
-0.00180772
-0.00173982
-0.00171126
-0.00170555
-0.0017049
-0.00170327
-0.0017026
-0.00171037
-0.0017302
0
0
-0.00161816
-0.00174262
-0.00184907
-0.0019056
-0.00192524
-0.0019196
-0.00188663
-0.00182095
-0.00173757
0
0
-0.00141789
-0.00173959
-0.00197911
-0.00209678
-0.00213644
-0.0021269
-0.00206189
-0.00192316
-0.00173604
0
0
-0.00120518
-0.00173634
-0.00210238
-0.00227897
-0.00233825
-0.00232493
-0.00222806
-0.00201698
-0.00172513
0
0
-0.000983809
-0.00174278
-0.00222006
-0.00245179
-0.00253006
-0.00251324
-0.00238516
-0.00210416
-0.001709
0
0
0
0
0
0
0
0
0
0
0
0
-0
-0
-0
-0
-0
-0
-0
-0
-0
-0
-0
-0
0.000865091
0.000717069
0.000582913
0.000500908
0.000466909
0.000472273
0.000517165
0.000598648
0.000700614
-0
0
-0.00208121
-0.00164963
-0.00132857
-0.00114513
-0.00107091
-0.00107836
-0.0011703
-0.001349
-0.00157982
0
0
-0.00197275
-0.00167833
-0.00144791
-0.00132041
-0.00126962
-0.00127434
-0.00133646
-0.00145942
-0.00161869
0
0
-0.00186272
-0.0016952
-0.00156533
-0.00149639
-0.00146941
-0.00147119
-0.00150301
-0.00156843
-0.00165471
0
0
-0.0017513
-0.00170454
-0.00167908
-0.00166975
-0.0016666
-0.00166541
-0.00166709
-0.00167476
-0.00168849
0
0
-0.00163586
-0.00170882
-0.001789
-0.00183955
-0.00186017
-0.00185602
-0.0018277
-0.0017776
-0.00171882
0
0
-0.0015145
-0.00171066
-0.00189558
-0.00200536
-0.00204956
-0.00204247
-0.00198426
-0.00187665
-0.00174491
0
0
-0.00138569
-0.00171368
-0.00199981
-0.00216737
-0.00223488
-0.00222491
-0.00213688
-0.00197217
-0.0017666
0
0
-0.00125146
-0.00172456
-0.00210237
-0.0023248
-0.002415
-0.00240235
-0.00228506
-0.0020651
-0.00178648
0
0
0
0
0
0
0
0
0
0
0
0
-0
-0
-0
-0
-0
-0
-0
-0
-0
-0
-0
-0
0.000779499
0.000695705
0.000594368
0.000523417
0.000490477
0.000493567
0.000529934
0.000589866
0.000664046
-0
0
-0.00187978
-0.00161698
-0.00136657
-0.0012008
-0.00112463
-0.00112761
-0.00120521
-0.00134076
-0.00150919
0
0
-0.001824
-0.00164396
-0.0014651
-0.00134937
-0.00129673
-0.00129846
-0.00135132
-0.00144482
-0.00156082
0
0
-0.00176768
-0.00166342
-0.00156224
-0.0014987
-0.00147004
-0.00147038
-0.00149799
-0.00154804
-0.00161071
0
0
-0.00171101
-0.00167871
-0.00165725
-0.00164665
-0.00164204
-0.00164094
-0.00164341
-0.00164982
-0.0016596
0
0
-0.00165214
-0.00169135
-0.00175031
-0.00179288
-0.00181228
-0.00180974
-0.00178714
-0.0017499
-0.00170683
0
0
-0.00158968
-0.00170285
-0.00184193
-0.00193729
-0.0019806
-0.00197662
-0.00192899
-0.00184828
-0.00175198
0
0
-0.00152238
-0.00171526
-0.00193284
-0.00208008
-0.00214713
-0.00214173
-0.00206905
-0.00194521
-0.00179492
0
0
-0.00145135
-0.00173302
-0.00202352
-0.00222045
-0.00231065
-0.00230394
-0.00220669
-0.00204119
-0.00183732
0
0
0
0
0
0
0
0
0
0
0
0
-0
-0
-0
-0
-0
-0
-0
-0
-0
-0
-0
-0
0.000714986
0.00067302
0.000598043
0.000539874
0.000510372
0.000511071
0.000538299
0.000580987
0.000637277
-0
0
-0.00172292
-0.00157414
-0.00138298
-0.00124153
-0.00117002
-0.00116817
-0.00122838
-0.0013277
-0.00145521
0
0
-0.00170834
-0.00160522
-0.00146936
-0.00137031
-0.00132056
-0.00131898
-0.00136015
-0.00142878
-0.00151639
0
0
-0.00169358
-0.00163181
-0.00155471
-0.00149973
-0.00147221
-0.00147083
-0.00149253
-0.00152933
-0.00157653
0
0
-0.00167873
-0.00165631
-0.00163881
-0.00162841
-0.00162319
-0.00162197
-0.00162428
-0.00162911
-0.00163627
0
0
-0.0016625
-0.00167946
-0.00172189
-0.00175624
-0.00177331
-0.00177225
-0.00175522
-0.00172806
-0.00169523
0
0
-0.00164386
-0.00170189
-0.00180434
-0.00188322
-0.00192252
-0.00192161
-0.00188526
-0.00182628
-0.00175312
0
0
-0.00162187
-0.00172458
-0.00188663
-0.00200951
-0.00207093
-0.00207017
-0.00201445
-0.00192397
-0.00180979
0
0
-0.00159718
-0.0017504
-0.00196917
-0.00213443
-0.00221745
-0.0022169
-0.00214219
-0.0020214
-0.00186639
0
0
0
0
0
0
0
0
0
0
0
0
-0
-0
-0
-0
-0
-0
-0
-0
-0
-0
-0
-0
0.000665756
0.000651127
0.000596494
0.00055051
0.000525378
0.000524062
0.000543103
0.000572646
0.00061711
-0
0
-0.00159975
-0.00152822
-0.00138456
-0.00126852
-0.00120507
-0.00119898
-0.00124239
-0.00131299
-0.00141303
0
0
-0.00161678
-0.00156557
-0.00146405
-0.0013826
-0.00133824
-0.00133374
-0.00136344
-0.00141224
-0.0014808
0
0
-0.00163363
-0.00160053
-0.00154274
-0.00149715
-0.00147232
-0.00146936
-0.00148503
-0.00151115
-0.00154794
0
0
-0.00165033
-0.00163469
-0.00162068
-0.00161126
-0.00160602
-0.0016046
-0.0016063
-0.0016096
-0.00161497
0
0
-0.00166597
-0.00166818
-0.00169806
-0.00172492
-0.00173927
-0.00173938
-0.00172717
-0.00170764
-0.00168163
0
0
-0.00167984
-0.00170106
-0.00177513
-0.00183816
-0.00187208
-0.00187371
-0.00184759
-0.00180539
-0.0017477
0
0
-0.00169128
-0.00173357
-0.00185217
-0.00195108
-0.0020045
-0.00200765
-0.00196759
-0.00190305
-0.00181302
0
0
-0.0017007
-0.00176745
-0.00192959
-0.00206322
-0.00213569
-0.00214036
-0.00208662
-0.00200074
-0.00187841
0
0
0
0
0
0
0
0
0
0
0
0
-0
-0
-0
-0
-0
-0
-0
-0
-0
-0
-0
-0
0.000627797
0.00063093
0.00059156
0.00055609
0.000535367
0.00053261
0.000545042
0.000564902
0.000601369
-0
0
-0.00150216
-0.00148292
-0.00137628
-0.00128365
-0.0012294
-0.00122018
-0.00124926
-0.00129791
-0.00137911
0
0
-0.00154299
-0.00152683
-0.00145197
-0.00138684
-0.00134876
-0.00134207
-0.0013619
-0.0013955
-0.00145099
0
0
-0.0015835
-0.00156979
-0.00152702
-0.0014903
-0.00146879
-0.00146463
-0.001475
-0.00149285
-0.00152247
0
0
-0.00162371
-0.00161272
-0.00160162
-0.00159349
-0.00158857
-0.00158695
-0.00158792
-0.00158988
-0.00159399
0
0
-0.00166298
-0.00165536
-0.00167587
-0.00169639
-0.00170809
-0.001709
-0.00170062
-0.0016867
-0.00166533
0
0
-0.00170083
-0.00169738
-0.00174993
-0.00179906
-0.00182735
-0.0018308
-0.00181308
-0.00178344
-0.0017363
0
0
-0.00173682
-0.00173853
-0.00182395
-0.00190156
-0.00194642
-0.00195239
-0.0019253
-0.00188027
-0.00180676
0
0
-0.00177129
-0.00177978
-0.00189833
-0.0020036
-0.00206465
-0.00207313
-0.00203684
-0.00197729
-0.00187732
0
0
0
0
0
0
0
0
0
0
0
0
-0
-0
-0
-0
-0
-0
-0
-0
-0
-0
-0
-0
0.000598042
0.000612644
0.000584471
0.000557537
0.0005408
0.000537177
0.000544645
0.00055757
0.000588538
-0
0
-0.00142439
-0.00144001
-0.00136156
-0.00128898
-0.00124374
-0.00123258
-0.0012504
-0.00128279
-0.00135083
0
0
-0.00148249
-0.00148986
-0.00143521
-0.00138409
-0.00135223
-0.00134418
-0.00135621
-0.00137852
-0.00142487
0
0
-0.00154031
-0.0015397
-0.00150835
-0.00147933
-0.00146117
-0.00145627
-0.00146238
-0.00147405
-0.00149865
0
0
-0.00159776
-0.00158998
-0.00158119
-0.00157437
-0.00156994
-0.00156817
-0.00156844
-0.00156933
-0.00157253
0
0
-0.00165435
-0.00164017
-0.00165379
-0.00166919
-0.00167851
-0.00167989
-0.00167437
-0.00166448
-0.00164631
0
0
-0.00170971
-0.0016897
-0.00172623
-0.00176386
-0.00178691
-0.00179144
-0.00178015
-0.00175966
-0.00171984
0
0
-0.00176351
-0.00173804
-0.00179861
-0.0018584
-0.00189518
-0.00190286
-0.00188577
-0.00185502
-0.00179298
0
0
-0.001816
-0.00178561
-0.00187126
-0.00195268
-0.00200288
-0.00201368
-0.00199089
-0.00195063
-0.00186621
0
0
0
0
0
0
0
0
0
0
0
0
-0
-0
-0
-0
-0
-0
-0
-0
-0
-0
-0
-0
0.000572826
0.000595866
0.000575959
0.000555716
0.000542373
0.000538358
0.000542311
0.000550395
0.000577538
-0
0
-0.00136163
-0.00140012
-0.00134267
-0.00128647
-0.00124934
-0.00123731
-0.0012468
-0.00126748
-0.00132622
0
0
-0.00143162
-0.00145485
-0.00141525
-0.00137558
-0.00134934
-0.00134067
-0.00134692
-0.00136108
-0.00140095
0
0
-0.00150182
-0.00151019
-0.00148737
-0.0014647
-0.00144962
-0.00144437
-0.0014473
-0.00145448
-0.00147552
0
0
-0.0015718
-0.00156627
-0.00155928
-0.00155365
-0.00154975
-0.00154791
-0.0015476
-0.00154766
-0.00155019
0
0
-0.001641
-0.00162241
-0.00163101
-0.00164242
-0.00164971
-0.0016513
-0.00164781
-0.00164075
-0.00162482
0
0
-0.00170905
-0.00167783
-0.00170259
-0.00173105
-0.00174954
-0.00175456
-0.00174791
-0.00173392
-0.00169925
0
0
-0.00177553
-0.00173182
-0.00177405
-0.00181958
-0.00184926
-0.00185771
-0.00184788
-0.00182731
-0.00177334
0
0
-0.00184037
-0.00178445
-0.00184575
-0.00190797
-0.00194859
-0.00196043
-0.00194748
-0.001921
-0.00184751
0
0
0
0
0
0
0
0
0
0
0
0
-0
-0
-0
-0
-0
-0
-0
-0
-0
-0
-0
-0
0.000551429
0.000580325
0.000566486
0.000551365
0.000540807
0.000536749
0.00053834
0.000543133
0.00056759
-0
0
-0.00130654
-0.00136258
-0.00132097
-0.00127777
-0.00124761
-0.00123553
-0.00123922
-0.00125168
-0.0013038
0
0
-0.00138616
-0.00142115
-0.00139293
-0.00136238
-0.00134099
-0.00133228
-0.00133448
-0.00134291
-0.00137818
0
0
-0.00146591
-0.00148083
-0.00146449
-0.00144691
-0.00143452
-0.00142923
-0.00142992
-0.00143393
-0.00145242
0
0
-0.00154531
-0.00154147
-0.0015359
-0.00153128
-0.00152789
-0.00152604
-0.0015253
-0.00152474
-0.00152679
0
0
-0.00162393
-0.00160224
-0.00160715
-0.00161549
-0.00162112
-0.00162271
-0.0016206
-0.00161549
-0.00160113
0
0
-0.00170148
-0.00166226
-0.00167825
-0.00169957
-0.00171422
-0.00171927
-0.00171581
-0.00170633
-0.0016753
0
0
-0.00177767
-0.00172066
-0.0017492
-0.00178354
-0.00180722
-0.00181572
-0.0018109
-0.00179741
-0.00174917
0
0
-0.00185239
-0.00177723
-0.00182032
-0.00186746
-0.00189997
-0.00191188
-0.00190571
-0.00188882
-0.00182312
0
0
0
0
0
0
0
0
0
0
0
0
-0
-0
-0
-0
-0
-0
-0
-0
-0
-0
-0
-0
0.000533086
0.00056579
0.000556342
0.000545076
0.000536752
0.00053288
0.00053297
0.000535589
0.00055814
-0
0
-0.00125839
-0.00132698
-0.00129731
-0.00126425
-0.0012399
-0.00122834
-0.00122822
-0.00123508
-0.00128245
0
0
-0.00134513
-0.00138847
-0.00136882
-0.0013454
-0.00132807
-0.00131973
-0.00131926
-0.00132377
-0.00135574
0
0
-0.00143186
-0.00145145
-0.00144
-0.00142643
-0.0014163
-0.00141121
-0.00141042
-0.00141225
-0.00142892
0
0
-0.00151808
-0.00151553
-0.00151107
-0.0015073
-0.00150437
-0.00150256
-0.00150152
-0.00150053
-0.00150223
0
0
-0.00160348
-0.00157978
-0.00158201
-0.00158802
-0.00159231
-0.00159378
-0.00159256
-0.00158876
-0.00157551
0
0
-0.0016879
-0.00164326
-0.00165278
-0.0016686
-0.00168012
-0.00168489
-0.0016835
-0.00167708
-0.00164864
0
0
-0.00177119
-0.00170499
-0.00172336
-0.00174908
-0.00176782
-0.00177589
-0.00177433
-0.00176565
-0.00172149
0
0
-0.00185323
-0.00176454
-0.00179406
-0.00182956
-0.00185537
-0.0018667
-0.00186496
-0.00185457
-0.00179443
0
0
0
0
0
0
0
0
0
0
0
0
-0
-0
-0
-0
-0
-0
-0
-0
-0
-0
-0
-0
0.000516933
0.000552002
0.000545701
0.000537302
0.000530744
0.000527191
0.000526393
0.000527623
0.000548795
-0
0
-0.00121612
-0.00129306
-0.00127223
-0.00124697
-0.00122737
-0.0012167
-0.00121424
-0.00121741
-0.00126134
0
0
-0.00130768
-0.0013566
-0.00134331
-0.0013254
-0.0013114
-0.00130366
-0.00130156
-0.00130349
-0.00133307
0
0
-0.00139917
-0.00142192
-0.00141413
-0.00140366
-0.0013954
-0.00139066
-0.00138895
-0.00138935
-0.0014047
0
0
-0.00149005
-0.00148844
-0.00148486
-0.00148177
-0.00147925
-0.00147752
-0.00147629
-0.00147501
-0.00147645
0
0
-0.0015801
-0.00155517
-0.00155548
-0.00155974
-0.00156297
-0.00156425
-0.00156356
-0.00156062
-0.00154819
0
0
-0.00166923
-0.0016211
-0.00162592
-0.00163758
-0.00164656
-0.00165087
-0.00165074
-0.00164632
-0.00161978
0
0
-0.00175738
-0.0016852
-0.00169614
-0.00171529
-0.00173004
-0.00173739
-0.00173782
-0.00173228
-0.0016911
0
0
-0.00184439
-0.00174685
-0.00176642
-0.00179304
-0.00181344
-0.00182378
-0.00182475
-0.00181861
-0.00176253
0
0
0
0
0
0
0
0
0
0
0
0
-0
-0
-0
-0
-0
-0
-0
-0
-0
-0
-0
-0
0.000502297
0.000538721
0.000534661
0.00052838
0.000523206
0.000520034
0.000518763