# vtk DataFile Version 2.0
FlowField
ASCII
DATASET STRUCTURED_GRID
DIMENSIONS 102 11 11 
POINTS 12342 double
0 0 0
0 0 0.2
0 0 0.4
0 0 0.6
0 0 0.8
0 0 1
0 0 1.2
0 0 1.4
0 0 1.6
0 0 1.8
0 0 2
0 0.1 0
0 0.1 0.2
0 0.1 0.4
0 0.1 0.6
0 0.1 0.8
0 0.1 1
0 0.1 1.2
0 0.1 1.4
0 0.1 1.6
0 0.1 1.8
0 0.1 2
0 0.2 0
0 0.2 0.2
0 0.2 0.4
0 0.2 0.6
0 0.2 0.8
0 0.2 1
0 0.2 1.2
0 0.2 1.4
0 0.2 1.6
0 0.2 1.8
0 0.2 2
0 0.3 0
0 0.3 0.2
0 0.3 0.4
0 0.3 0.6
0 0.3 0.8
0 0.3 1
0 0.3 1.2
0 0.3 1.4
0 0.3 1.6
0 0.3 1.8
0 0.3 2
0 0.4 0
0 0.4 0.2
0 0.4 0.4
0 0.4 0.6
0 0.4 0.8
0 0.4 1
0 0.4 1.2
0 0.4 1.4
0 0.4 1.6
0 0.4 1.8
0 0.4 2
0 0.5 0
0 0.5 0.2
0 0.5 0.4
0 0.5 0.6
0 0.5 0.8
0 0.5 1
0 0.5 1.2
0 0.5 1.4
0 0.5 1.6
0 0.5 1.8
0 0.5 2
0 0.6 0
0 0.6 0.2
0 0.6 0.4
0 0.6 0.6
0 0.6 0.8
0 0.6 1
0 0.6 1.2
0 0.6 1.4
0 0.6 1.6
0 0.6 1.8
0 0.6 2
0 0.7 0
0 0.7 0.2
0 0.7 0.4
0 0.7 0.6
0 0.7 0.8
0 0.7 1
0 0.7 1.2
0 0.7 1.4
0 0.7 1.6
0 0.7 1.8
0 0.7 2
0 0.8 0
0 0.8 0.2
0 0.8 0.4
0 0.8 0.6
0 0.8 0.8
0 0.8 1
0 0.8 1.2
0 0.8 1.4
0 0.8 1.6
0 0.8 1.8
0 0.8 2
0 0.9 0
0 0.9 0.2
0 0.9 0.4
0 0.9 0.6
0 0.9 0.8
0 0.9 1
0 0.9 1.2
0 0.9 1.4
0 0.9 1.6
0 0.9 1.8
0 0.9 2
0 1 0
0 1 0.2
0 1 0.4
0 1 0.6
0 1 0.8
0 1 1
0 1 1.2
0 1 1.4
0 1 1.6
0 1 1.8
0 1 2
0.2 0 0
0.2 0 0.2
0.2 0 0.4
0.2 0 0.6
0.2 0 0.8
0.2 0 1
0.2 0 1.2
0.2 0 1.4
0.2 0 1.6
0.2 0 1.8
0.2 0 2
0.2 0.1 0
0.2 0.1 0.2
0.2 0.1 0.4
0.2 0.1 0.6
0.2 0.1 0.8
0.2 0.1 1
0.2 0.1 1.2
0.2 0.1 1.4
0.2 0.1 1.6
0.2 0.1 1.8
0.2 0.1 2
0.2 0.2 0
0.2 0.2 0.2
0.2 0.2 0.4
0.2 0.2 0.6
0.2 0.2 0.8
0.2 0.2 1
0.2 0.2 1.2
0.2 0.2 1.4
0.2 0.2 1.6
0.2 0.2 1.8
0.2 0.2 2
0.2 0.3 0
0.2 0.3 0.2
0.2 0.3 0.4
0.2 0.3 0.6
0.2 0.3 0.8
0.2 0.3 1
0.2 0.3 1.2
0.2 0.3 1.4
0.2 0.3 1.6
0.2 0.3 1.8
0.2 0.3 2
0.2 0.4 0
0.2 0.4 0.2
0.2 0.4 0.4
0.2 0.4 0.6
0.2 0.4 0.8
0.2 0.4 1
0.2 0.4 1.2
0.2 0.4 1.4
0.2 0.4 1.6
0.2 0.4 1.8
0.2 0.4 2
0.2 0.5 0
0.2 0.5 0.2
0.2 0.5 0.4
0.2 0.5 0.6
0.2 0.5 0.8
0.2 0.5 1
0.2 0.5 1.2
0.2 0.5 1.4
0.2 0.5 1.6
0.2 0.5 1.8
0.2 0.5 2
0.2 0.6 0
0.2 0.6 0.2
0.2 0.6 0.4
0.2 0.6 0.6
0.2 0.6 0.8
0.2 0.6 1
0.2 0.6 1.2
0.2 0.6 1.4
0.2 0.6 1.6
0.2 0.6 1.8
0.2 0.6 2
0.2 0.7 0
0.2 0.7 0.2
0.2 0.7 0.4
0.2 0.7 0.6
0.2 0.7 0.8
0.2 0.7 1
0.2 0.7 1.2
0.2 0.7 1.4
0.2 0.7 1.6
0.2 0.7 1.8
0.2 0.7 2
0.2 0.8 0
0.2 0.8 0.2
0.2 0.8 0.4
0.2 0.8 0.6
0.2 0.8 0.8
0.2 0.8 1
0.2 0.8 1.2
0.2 0.8 1.4
0.2 0.8 1.6
0.2 0.8 1.8
0.2 0.8 2
0.2 0.9 0
0.2 0.9 0.2
0.2 0.9 0.4
0.2 0.9 0.6
0.2 0.9 0.8
0.2 0.9 1
0.2 0.9 1.2
0.2 0.9 1.4
0.2 0.9 1.6
0.2 0.9 1.8
0.2 0.9 2
0.2 1 0
0.2 1 0.2
0.2 1 0.4
0.2 1 0.6
0.2 1 0.8
0.2 1 1
0.2 1 1.2
0.2 1 1.4
0.2 1 1.6
0.2 1 1.8
0.2 1 2
0.4 0 0
0.4 0 0.2
0.4 0 0.4
0.4 0 0.6
0.4 0 0.8
0.4 0 1
0.4 0 1.2
0.4 0 1.4
0.4 0 1.6
0.4 0 1.8
0.4 0 2
0.4 0.1 0
0.4 0.1 0.2
0.4 0.1 0.4
0.4 0.1 0.6
0.4 0.1 0.8
0.4 0.1 1
0.4 0.1 1.2
0.4 0.1 1.4
0.4 0.1 1.6
0.4 0.1 1.8
0.4 0.1 2
0.4 0.2 0
0.4 0.2 0.2
0.4 0.2 0.4
0.4 0.2 0.6
0.4 0.2 0.8
0.4 0.2 1
0.4 0.2 1.2
0.4 0.2 1.4
0.4 0.2 1.6
0.4 0.2 1.8
0.4 0.2 2
0.4 0.3 0
0.4 0.3 0.2
0.4 0.3 0.4
0.4 0.3 0.6
0.4 0.3 0.8
0.4 0.3 1
0.4 0.3 1.2
0.4 0.3 1.4
0.4 0.3 1.6
0.4 0.3 1.8
0.4 0.3 2
0.4 0.4 0
0.4 0.4 0.2
0.4 0.4 0.4
0.4 0.4 0.6
0.4 0.4 0.8
0.4 0.4 1
0.4 0.4 1.2
0.4 0.4 1.4
0.4 0.4 1.6
0.4 0.4 1.8
0.4 0.4 2
0.4 0.5 0
0.4 0.5 0.2
0.4 0.5 0.4
0.4 0.5 0.6
0.4 0.5 0.8
0.4 0.5 1
0.4 0.5 1.2
0.4 0.5 1.4
0.4 0.5 1.6
0.4 0.5 1.8
0.4 0.5 2
0.4 0.6 0
0.4 0.6 0.2
0.4 0.6 0.4
0.4 0.6 0.6
0.4 0.6 0.8
0.4 0.6 1
0.4 0.6 1.2
0.4 0.6 1.4
0.4 0.6 1.6
0.4 0.6 1.8
0.4 0.6 2
0.4 0.7 0
0.4 0.7 0.2
0.4 0.7 0.4
0.4 0.7 0.6
0.4 0.7 0.8
0.4 0.7 1
0.4 0.7 1.2
0.4 0.7 1.4
0.4 0.7 1.6
0.4 0.7 1.8
0.4 0.7 2
0.4 0.8 0
0.4 0.8 0.2
0.4 0.8 0.4
0.4 0.8 0.6
0.4 0.8 0.8
0.4 0.8 1
0.4 0.8 1.2
0.4 0.8 1.4
0.4 0.8 1.6
0.4 0.8 1.8
0.4 0.8 2
0.4 0.9 0
0.4 0.9 0.2
0.4 0.9 0.4
0.4 0.9 0.6
0.4 0.9 0.8
0.4 0.9 1
0.4 0.9 1.2
0.4 0.9 1.4
0.4 0.9 1.6
0.4 0.9 1.8
0.4 0.9 2
0.4 1 0
0.4 1 0.2
0.4 1 0.4
0.4 1 0.6
0.4 1 0.8
0.4 1 1
0.4 1 1.2
0.4 1 1.4
0.4 1 1.6
0.4 1 1.8
0.4 1 2
0.6 0 0
0.6 0 0.2
0.6 0 0.4
0.6 0 0.6
0.6 0 0.8
0.6 0 1
0.6 0 1.2
0.6 0 1.4
0.6 0 1.6
0.6 0 1.8
0.6 0 2
0.6 0.1 0
0.6 0.1 0.2
0.6 0.1 0.4
0.6 0.1 0.6
0.6 0.1 0.8
0.6 0.1 1
0.6 0.1 1.2
0.6 0.1 1.4
0.6 0.1 1.6
0.6 0.1 1.8
0.6 0.1 2
0.6 0.2 0
0.6 0.2 0.2
0.6 0.2 0.4
0.6 0.2 0.6
0.6 0.2 0.8
0.6 0.2 1
0.6 0.2 1.2
0.6 0.2 1.4
0.6 0.2 1.6
0.6 0.2 1.8
0.6 0.2 2
0.6 0.3 0
0.6 0.3 0.2
0.6 0.3 0.4
0.6 0.3 0.6
0.6 0.3 0.8
0.6 0.3 1
0.6 0.3 1.2
0.6 0.3 1.4
0.6 0.3 1.6
0.6 0.3 1.8
0.6 0.3 2
0.6 0.4 0
0.6 0.4 0.2
0.6 0.4 0.4
0.6 0.4 0.6
0.6 0.4 0.8
0.6 0.4 1
0.6 0.4 1.2
0.6 0.4 1.4
0.6 0.4 1.6
0.6 0.4 1.8
0.6 0.4 2
0.6 0.5 0
0.6 0.5 0.2
0.6 0.5 0.4
0.6 0.5 0.6
0.6 0.5 0.8
0.6 0.5 1
0.6 0.5 1.2
0.6 0.5 1.4
0.6 0.5 1.6
0.6 0.5 1.8
0.6 0.5 2
0.6 0.6 0
0.6 0.6 0.2
0.6 0.6 0.4
0.6 0.6 0.6
0.6 0.6 0.8
0.6 0.6 1
0.6 0.6 1.2
0.6 0.6 1.4
0.6 0.6 1.6
0.6 0.6 1.8
0.6 0.6 2
0.6 0.7 0
0.6 0.7 0.2
0.6 0.7 0.4
0.6 0.7 0.6
0.6 0.7 0.8
0.6 0.7 1
0.6 0.7 1.2
0.6 0.7 1.4
0.6 0.7 1.6
0.6 0.7 1.8
0.6 0.7 2
0.6 0.8 0
0.6 0.8 0.2
0.6 0.8 0.4
0.6 0.8 0.6
0.6 0.8 0.8
0.6 0.8 1
0.6 0.8 1.2
0.6 0.8 1.4
0.6 0.8 1.6
0.6 0.8 1.8
0.6 0.8 2
0.6 0.9 0
0.6 0.9 0.2
0.6 0.9 0.4
0.6 0.9 0.6
0.6 0.9 0.8
0.6 0.9 1
0.6 0.9 1.2
0.6 0.9 1.4
0.6 0.9 1.6
0.6 0.9 1.8
0.6 0.9 2
0.6 1 0
0.6 1 0.2
0.6 1 0.4
0.6 1 0.6
0.6 1 0.8
0.6 1 1
0.6 1 1.2
0.6 1 1.4
0.6 1 1.6
0.6 1 1.8
0.6 1 2
0.8 0 0
0.8 0 0.2
0.8 0 0.4
0.8 0 0.6
0.8 0 0.8
0.8 0 1
0.8 0 1.2
0.8 0 1.4
0.8 0 1.6
0.8 0 1.8
0.8 0 2
0.8 0.1 0
0.8 0.1 0.2
0.8 0.1 0.4
0.8 0.1 0.6
0.8 0.1 0.8
0.8 0.1 1
0.8 0.1 1.2
0.8 0.1 1.4
0.8 0.1 1.6
0.8 0.1 1.8
0.8 0.1 2
0.8 0.2 0
0.8 0.2 0.2
0.8 0.2 0.4
0.8 0.2 0.6
0.8 0.2 0.8
0.8 0.2 1
0.8 0.2 1.2
0.8 0.2 1.4
0.8 0.2 1.6
0.8 0.2 1.8
0.8 0.2 2
0.8 0.3 0
0.8 0.3 0.2
0.8 0.3 0.4
0.8 0.3 0.6
0.8 0.3 0.8
0.8 0.3 1
0.8 0.3 1.2
0.8 0.3 1.4
0.8 0.3 1.6
0.8 0.3 1.8
0.8 0.3 2
0.8 0.4 0
0.8 0.4 0.2
0.8 0.4 0.4
0.8 0.4 0.6
0.8 0.4 0.8
0.8 0.4 1
0.8 0.4 1.2
0.8 0.4 1.4
0.8 0.4 1.6
0.8 0.4 1.8
0.8 0.4 2
0.8 0.5 0
0.8 0.5 0.2
0.8 0.5 0.4
0.8 0.5 0.6
0.8 0.5 0.8
0.8 0.5 1
0.8 0.5 1.2
0.8 0.5 1.4
0.8 0.5 1.6
0.8 0.5 1.8
0.8 0.5 2
0.8 0.6 0
0.8 0.6 0.2
0.8 0.6 0.4
0.8 0.6 0.6
0.8 0.6 0.8
0.8 0.6 1
0.8 0.6 1.2
0.8 0.6 1.4
0.8 0.6 1.6
0.8 0.6 1.8
0.8 0.6 2
0.8 0.7 0
0.8 0.7 0.2
0.8 0.7 0.4
0.8 0.7 0.6
0.8 0.7 0.8
0.8 0.7 1
0.8 0.7 1.2
0.8 0.7 1.4
0.8 0.7 1.6
0.8 0.7 1.8
0.8 0.7 2
0.8 0.8 0
0.8 0.8 0.2
0.8 0.8 0.4
0.8 0.8 0.6
0.8 0.8 0.8
0.8 0.8 1
0.8 0.8 1.2
0.8 0.8 1.4
0.8 0.8 1.6
0.8 0.8 1.8
0.8 0.8 2
0.8 0.9 0
0.8 0.9 0.2
0.8 0.9 0.4
0.8 0.9 0.6
0.8 0.9 0.8
0.8 0.9 1
0.8 0.9 1.2
0.8 0.9 1.4
0.8 0.9 1.6
0.8 0.9 1.8
0.8 0.9 2
0.8 1 0
0.8 1 0.2
0.8 1 0.4
0.8 1 0.6
0.8 1 0.8
0.8 1 1
0.8 1 1.2
0.8 1 1.4
0.8 1 1.6
0.8 1 1.8
0.8 1 2
1 0 0
1 0 0.2
1 0 0.4
1 0 0.6
1 0 0.8
1 0 1
1 0 1.2
1 0 1.4
1 0 1.6
1 0 1.8
1 0 2
1 0.1 0
1 0.1 0.2
1 0.1 0.4
1 0.1 0.6
1 0.1 0.8
1 0.1 1
1 0.1 1.2
1 0.1 1.4
1 0.1 1.6
1 0.1 1.8
1 0.1 2
1 0.2 0
1 0.2 0.2
1 0.2 0.4
1 0.2 0.6
1 0.2 0.8
1 0.2 1
1 0.2 1.2
1 0.2 1.4
1 0.2 1.6
1 0.2 1.8
1 0.2 2
1 0.3 0
1 0.3 0.2
1 0.3 0.4
1 0.3 0.6
1 0.3 0.8
1 0.3 1
1 0.3 1.2
1 0.3 1.4
1 0.3 1.6
1 0.3 1.8
1 0.3 2
1 0.4 0
1 0.4 0.2
1 0.4 0.4
1 0.4 0.6
1 0.4 0.8
1 0.4 1
1 0.4 1.2
1 0.4 1.4
1 0.4 1.6
1 0.4 1.8
1 0.4 2
1 0.5 0
1 0.5 0.2
1 0.5 0.4
1 0.5 0.6
1 0.5 0.8
1 0.5 1
1 0.5 1.2
1 0.5 1.4
1 0.5 1.6
1 0.5 1.8
1 0.5 2
1 0.6 0
1 0.6 0.2
1 0.6 0.4
1 0.6 0.6
1 0.6 0.8
1 0.6 1
1 0.6 1.2
1 0.6 1.4
1 0.6 1.6
1 0.6 1.8
1 0.6 2
1 0.7 0
1 0.7 0.2
1 0.7 0.4
1 0.7 0.6
1 0.7 0.8
1 0.7 1
1 0.7 1.2
1 0.7 1.4
1 0.7 1.6
1 0.7 1.8
1 0.7 2
1 0.8 0
1 0.8 0.2
1 0.8 0.4
1 0.8 0.6
1 0.8 0.8
1 0.8 1
1 0.8 1.2
1 0.8 1.4
1 0.8 1.6
1 0.8 1.8
1 0.8 2
1 0.9 0
1 0.9 0.2
1 0.9 0.4
1 0.9 0.6
1 0.9 0.8
1 0.9 1
1 0.9 1.2
1 0.9 1.4
1 0.9 1.6
1 0.9 1.8
1 0.9 2
1 1 0
1 1 0.2
1 1 0.4
1 1 0.6
1 1 0.8
1 1 1
1 1 1.2
1 1 1.4
1 1 1.6
1 1 1.8
1 1 2
1.2 0 0
1.2 0 0.2
1.2 0 0.4
1.2 0 0.6
1.2 0 0.8
1.2 0 1
1.2 0 1.2
1.2 0 1.4
1.2 0 1.6
1.2 0 1.8
1.2 0 2
1.2 0.1 0
1.2 0.1 0.2
1.2 0.1 0.4
1.2 0.1 0.6
1.2 0.1 0.8
1.2 0.1 1
1.2 0.1 1.2
1.2 0.1 1.4
1.2 0.1 1.6
1.2 0.1 1.8
1.2 0.1 2
1.2 0.2 0
1.2 0.2 0.2
1.2 0.2 0.4
1.2 0.2 0.6
1.2 0.2 0.8
1.2 0.2 1
1.2 0.2 1.2
1.2 0.2 1.4
1.2 0.2 1.6
1.2 0.2 1.8
1.2 0.2 2
1.2 0.3 0
1.2 0.3 0.2
1.2 0.3 0.4
1.2 0.3 0.6
1.2 0.3 0.8
1.2 0.3 1
1.2 0.3 1.2
1.2 0.3 1.4
1.2 0.3 1.6
1.2 0.3 1.8
1.2 0.3 2
1.2 0.4 0
1.2 0.4 0.2
1.2 0.4 0.4
1.2 0.4 0.6
1.2 0.4 0.8
1.2 0.4 1
1.2 0.4 1.2
1.2 0.4 1.4
1.2 0.4 1.6
1.2 0.4 1.8
1.2 0.4 2
1.2 0.5 0
1.2 0.5 0.2
1.2 0.5 0.4
1.2 0.5 0.6
1.2 0.5 0.8
1.2 0.5 1
1.2 0.5 1.2
1.2 0.5 1.4
1.2 0.5 1.6
1.2 0.5 1.8
1.2 0.5 2
1.2 0.6 0
1.2 0.6 0.2
1.2 0.6 0.4
1.2 0.6 0.6
1.2 0.6 0.8
1.2 0.6 1
1.2 0.6 1.2
1.2 0.6 1.4
1.2 0.6 1.6
1.2 0.6 1.8
1.2 0.6 2
1.2 0.7 0
1.2 0.7 0.2
1.2 0.7 0.4
1.2 0.7 0.6
1.2 0.7 0.8
1.2 0.7 1
1.2 0.7 1.2
1.2 0.7 1.4
1.2 0.7 1.6
1.2 0.7 1.8
1.2 0.7 2
1.2 0.8 0
1.2 0.8 0.2
1.2 0.8 0.4
1.2 0.8 0.6
1.2 0.8 0.8
1.2 0.8 1
1.2 0.8 1.2
1.2 0.8 1.4
1.2 0.8 1.6
1.2 0.8 1.8
1.2 0.8 2
1.2 0.9 0
1.2 0.9 0.2
1.2 0.9 0.4
1.2 0.9 0.6
1.2 0.9 0.8
1.2 0.9 1
1.2 0.9 1.2
1.2 0.9 1.4
1.2 0.9 1.6
1.2 0.9 1.8
1.2 0.9 2
1.2 1 0
1.2 1 0.2
1.2 1 0.4
1.2 1 0.6
1.2 1 0.8
1.2 1 1
1.2 1 1.2
1.2 1 1.4
1.2 1 1.6
1.2 1 1.8
1.2 1 2
1.4 0 0
1.4 0 0.2
1.4 0 0.4
1.4 0 0.6
1.4 0 0.8
1.4 0 1
1.4 0 1.2
1.4 0 1.4
1.4 0 1.6
1.4 0 1.8
1.4 0 2
1.4 0.1 0
1.4 0.1 0.2
1.4 0.1 0.4
1.4 0.1 0.6
1.4 0.1 0.8
1.4 0.1 1
1.4 0.1 1.2
1.4 0.1 1.4
1.4 0.1 1.6
1.4 0.1 1.8
1.4 0.1 2
1.4 0.2 0
1.4 0.2 0.2
1.4 0.2 0.4
1.4 0.2 0.6
1.4 0.2 0.8
1.4 0.2 1
1.4 0.2 1.2
1.4 0.2 1.4
1.4 0.2 1.6
1.4 0.2 1.8
1.4 0.2 2
1.4 0.3 0
1.4 0.3 0.2
1.4 0.3 0.4
1.4 0.3 0.6
1.4 0.3 0.8
1.4 0.3 1
1.4 0.3 1.2
1.4 0.3 1.4
1.4 0.3 1.6
1.4 0.3 1.8
1.4 0.3 2
1.4 0.4 0
1.4 0.4 0.2
1.4 0.4 0.4
1.4 0.4 0.6
1.4 0.4 0.8
1.4 0.4 1
1.4 0.4 1.2
1.4 0.4 1.4
1.4 0.4 1.6
1.4 0.4 1.8
1.4 0.4 2
1.4 0.5 0
1.4 0.5 0.2
1.4 0.5 0.4
1.4 0.5 0.6
1.4 0.5 0.8
1.4 0.5 1
1.4 0.5 1.2
1.4 0.5 1.4
1.4 0.5 1.6
1.4 0.5 1.8
1.4 0.5 2
1.4 0.6 0
1.4 0.6 0.2
1.4 0.6 0.4
1.4 0.6 0.6
1.4 0.6 0.8
1.4 0.6 1
1.4 0.6 1.2
1.4 0.6 1.4
1.4 0.6 1.6
1.4 0.6 1.8
1.4 0.6 2
1.4 0.7 0
1.4 0.7 0.2
1.4 0.7 0.4
1.4 0.7 0.6
1.4 0.7 0.8
1.4 0.7 1
1.4 0.7 1.2
1.4 0.7 1.4
1.4 0.7 1.6
1.4 0.7 1.8
[...]
POINT_DATA 12342

SCALARS u double
LOOKUP_TABLE default
1
-1
-1
-1
-1
-1
-1
-1
-1
-1
1
-1
1
1
1
1
1
1
1
1
1
-1
-1
1
1
1
1
1
1
1
1
1
-1
-1
1
1
1
1
1
1
1
1
1
-1
-1
1
1
1
1
1
1
1
1
1
-1
-1
1
1
1
1
1
1
1
1
1
-1
-1
1
1
1
1
1
1
1
1
1
-1
-1
1
1
1
1
1
1
1
1
1
-1
-1
1
1
1
1
1
1
1
1
1
-1
-1
1
1
1
1
1
1
1
1
1
-1
1
-1
-1
-1
-1
-1
-1
-1
-1
-1
1
1
-1
-1
-1
-1
-1
-1
-1
-1
-1
1
-1
0.989955
0.992285
0.991946
0.991824
0.991793
0.991824
0.991946
0.992285
0.989955
-1
-1
1.00157
1.0039
1.00356
1.00344
1.00341
1.00344
1.00356
1.0039
1.00157
-1
-1
1.00069
1.00302
1.00268
1.00256
1.00252
1.00256
1.00268
1.00302
1.00069
-1
-1
1.00026
1.00259
1.00225
1.00213
1.0021
1.00213
1.00225
1.00259
1.00026
-1
-1
1.00014
1.00247
1.00213
1.00201
1.00197
1.00201
1.00213
1.00247
1.00014
-1
-1
1.00026
1.00259
1.00225
1.00213
1.0021
1.00213
1.00225
1.00259
1.00026
-1
-1
1.00069
1.00302
1.00268
1.00256
1.00252
1.00256
1.00268
1.00302
1.00069
-1
-1
1.00157
1.0039
1.00356
1.00344
1.00341
1.00344
1.00356
1.0039
1.00157
-1
-1
0.989955
0.992285
0.991946
0.991824
0.991793
0.991824
0.991946
0.992285
0.989955
-1
1
-1
-1
-1
-1
-1
-1
-1
-1
-1
1
1
-1
-1
-1
-1
-1
-1
-1
-1
-1
1
-1
0.987803
0.990796
0.990565
0.990448
0.990414
0.990448
0.990565
0.990796
0.987804
-1
-1
1.00084
1.00383
1.0036
1.00349
1.00345
1.00349
1.0036
1.00383
1.00084
-1
-1
1.00055
1.00354
1.00331
1.0032
1.00316
1.0032
1.00331
1.00354
1.00055
-1
-1
1.00036
1.00335
1.00312
1.00301
1.00297
1.00301
1.00312
1.00335
1.00036
-1
-1
1.0003
1.00329
1.00306
1.00294
1.00291
1.00294
1.00306
1.00329
1.0003
-1
-1
1.00036
1.00335
1.00312
1.00301
1.00297
1.00301
1.00312
1.00335
1.00036
-1
-1
1.00055
1.00354
1.00331
1.0032
1.00316
1.0032
1.00331
1.00354
1.00055
-1
-1
1.00084
1.00383
1.0036
1.00349
1.00345
1.00349
1.0036
1.00384
1.00084
-1
-1
0.987804
0.990796
0.990565
0.990449
0.990414
0.990449
0.990566
0.990797
0.987805
-1
1
-1
-1
-1
-1
-1
-1
-1
-1
-1
1
1
-1
-1
-1
-1
-1
-1
-1
-1
-1
1
-1
0.987172
0.990374
0.990248
0.990169
0.990143
0.990169
0.990248
0.990375
0.987172
-1
-1
1.00044
1.00364
1.00352
1.00344
1.00341
1.00344
1.00352
1.00364
1.00044
-1
-1
1.00036
1.00356
1.00344
1.00336
1.00333
1.00336
1.00344
1.00356
1.00036
-1
-1
1.0003
1.0035
1.00337
1.00329
1.00327
1.00329
1.00337
1.0035
1.0003
-1
-1
1.00027
1.00348
1.00335
1.00327
1.00324
1.00327
1.00335
1.00348
1.00027
-1
-1
1.0003
1.0035
1.00337
1.00329
1.00327
1.00329
1.00337
1.0035
1.0003
-1
-1
1.00036
1.00356
1.00344
1.00336
1.00333
1.00336
1.00344
1.00356
1.00036
-1
-1
1.00044
1.00364
1.00352
1.00344
1.00341
1.00344
1.00352
1.00364
1.00044
-1
-1
0.987172
0.990375
0.990249
0.99017
0.990144
0.99017
0.990249
0.990376
0.987173
-1
1
-1
-1
-1
-1
-1
-1
-1
-1
-1
1
1
-1
-1
-1
-1
-1
-1
-1
-1
-1
1
-1
0.986927
0.990205
0.990139
0.990093
0.990077
0.990093
0.99014
0.990206
0.986928
-1
-1
1.00024
1.00352
1.00346
1.00341
1.00339
1.00341
1.00346
1.00352
1.00025
-1
-1
1.00022
1.0035
1.00343
1.00339
1.00337
1.00339
1.00343
1.0035
1.00022
-1
-1
1.0002
1.00348
1.00342
1.00337
1.00335
1.00337
1.00342
1.00348
1.0002
-1
-1
1.0002
1.00347
1.00341
1.00336
1.00335
1.00336
1.00341
1.00347
1.0002
-1
-1
1.0002
1.00348
1.00342
1.00337
1.00335
1.00337
1.00342
1.00348
1.0002
-1
-1
1.00022
1.0035
1.00343
1.00339
1.00337
1.00339
1.00344
1.0035
1.00022
-1
-1
1.00024
1.00352
1.00346
1.00341
1.00339
1.00341
1.00346
1.00352
1.00025
-1
-1
0.986928
0.990206
0.99014
0.990094
0.990078
0.990094
0.990141
0.990207
0.986929
-1
1
-1
-1
-1
-1
-1
-1
-1
-1
-1
1
1
-1
-1
-1
-1
-1
-1
-1
-1
-1
1
-1
0.986801
0.990109
0.990076
0.99005
0.990041
0.990051
0.990077
0.99011
0.986802
-1
-1
1.00013
1.00344
1.00341
1.00338
1.00337
1.00338
1.00341
1.00344
1.00013
-1
-1
1.00012
1.00343
1.0034
1.00337
1.00336
1.00337
1.0034
1.00343
1.00013
-1
-1
1.00012
1.00343
1.00339
1.00337
1.00336
1.00337
1.00339
1.00343
1.00012
-1
-1
1.00012
1.00343
1.00339
1.00337
1.00336
1.00337
1.00339
1.00343
1.00012
-1
-1
1.00012
1.00343
1.00339
1.00337
1.00336
1.00337
1.00339
1.00343
1.00012
-1
-1
1.00012
1.00343
1.0034
1.00337
1.00336
1.00337
1.0034
1.00343
1.00013
-1
-1
1.00013
1.00344
1.00341
1.00338
1.00337
1.00338
1.00341
1.00344
1.00013
-1
-1
0.986802
0.99011
0.990077
0.990052
0.990042
0.990052
0.990078
0.990111
0.986803
-1
1
-1
-1
-1
-1
-1
-1
-1
-1
-1
1
1
-1
-1
-1
-1
-1
-1
-1
-1
-1
1
-1
0.986718
0.990039
0.990022
0.990009
0.990004
0.990009
0.990023
0.99004
0.986719
-1
-1
1.00005
1.00337
1.00335
1.00334
1.00334
1.00334
1.00336
1.00337
1.00005
-1
-1
1.00005
1.00337
1.00335
1.00334
1.00333
1.00334
1.00335
1.00337
1.00005
-1
-1
1.00005
1.00337
1.00335
1.00334
1.00333
1.00334
1.00335
1.00337
1.00005
-1
-1
1.00005
1.00337
1.00335
1.00334
1.00333
1.00334
1.00335
1.00337
1.00005
-1
-1
1.00005
1.00337
1.00335
1.00334
1.00333
1.00334
1.00335
1.00337
1.00005
-1
-1
1.00005
1.00337
1.00335
1.00334
1.00334
1.00334
1.00335
1.00337
1.00005
-1
-1
1.00005
1.00337
1.00336
1.00334
1.00334
1.00334
1.00336
1.00337
1.00005
-1
-1
0.986719
0.990041
0.990024
0.99001
0.990005
0.990011
0.990025
0.990042
0.986721
-1
1
-1
-1
-1
-1
-1
-1
-1
-1
-1
1
1
-1
-1
-1
-1
-1
-1
-1
-1
-1
1
-1
0.986651
0.989979
0.989971
0.989964
0.989961
0.989964
0.989971
0.98998
0.986653
-1
-1
0.999985
1.00331
1.0033
1.0033
1.00329
1.0033
1.0033
1.00331
0.999986
-1
-1
0.999984
1.00331
1.0033
1.0033
1.00329
1.0033
1.0033
1.00331
0.999986
-1
-1
0.999984
1.00331
1.0033
1.0033
1.00329
1.0033
1.0033
1.00331
0.999986
-1
-1
0.999984
1.00331
1.0033
1.0033
1.00329
1.0033
1.0033
1.00331
0.999986
-1
-1
0.999985
1.00331
1.0033
1.0033
1.00329
1.0033
1.0033
1.00331
0.999986
-1
-1
0.999985
1.00331
1.0033
1.0033
1.00329
1.0033
1.00331
1.00331
0.999987
-1
-1
0.999986
1.00331
1.00331
1.0033
1.0033
1.0033
1.00331
1.00331
0.999988
-1
-1
0.986653
0.989981
0.989972
0.989965
0.989963
0.989966
0.989973
0.989982
0.986655
-1
1
-1
-1
-1
-1
-1
-1
-1
-1
-1
1
1
-1
-1
-1
-1
-1
-1
-1
-1
-1
1
-1
0.986593
0.989923
0.989919
0.989916
0.989914
0.989916
0.98992
0.989925
0.986595
-1
-1
0.999926
1.00326
1.00325
1.00325
1.00325
1.00325
1.00325
1.00326
0.999928
-1
-1
0.999926
1.00326
1.00325
1.00325
1.00325
1.00325
1.00325
1.00326
0.999928
-1
-1
0.999926
1.00326
1.00325
1.00325
1.00325
1.00325
1.00325
1.00326
0.999928
-1
-1
0.999927
1.00326
1.00325
1.00325
1.00325
1.00325
1.00325
1.00326
0.999928
-1
-1
0.999927
1.00326
1.00325
1.00325
1.00325
1.00325
1.00325
1.00326
0.999929
-1
-1
0.999927
1.00326
1.00325
1.00325
1.00325
1.00325
1.00325
1.00326
0.999929
-1
-1
0.999928
1.00326
1.00325
1.00325
1.00325
1.00325
1.00325
1.00326
0.999929
-1
-1
0.986595
0.989925
0.989921
0.989918
0.989916
0.989918
0.989922
0.989927
0.986596
-1
1
-1
-1
-1
-1
-1
-1
-1
-1
-1
1
1
-1
-1
-1
-1
-1
-1
-1
-1
-1
1
-1
0.986538
0.98987
0.989868
0.989866
0.989866
0.989867
0.989869
0.989872
0.98654
-1
-1
0.999871
1.0032
1.0032
1.0032
1.0032
1.0032
1.0032
1.00321
0.999874
-1
-1
0.999872
1.0032
1.0032
1.0032
1.0032
1.0032
1.0032
1.00321
0.999874
-1
-1
0.999872
1.0032
1.0032
1.0032
1.0032
1.0032
1.0032
1.00321
0.999874
-1
-1
0.999872
1.0032
1.0032
1.0032
1.0032
1.0032
1.0032
1.00321
0.999874
-1
-1
0.999872
1.0032
1.0032
1.0032
1.0032
1.0032
1.0032
1.00321
0.999874
-1
-1
0.999873
1.0032
1.0032
1.0032
1.0032
1.0032
1.0032
1.00321
0.999875
-1
-1
0.999873
1.00321
1.0032
1.0032
1.0032
1.0032
1.0032
1.00321
0.999875
-1
-1
0.98654
0.989872
0.98987
0.989868
0.989868
0.989869
0.989871
0.989874
0.986542
-1
1
-1
-1
-1
-1
-1
-1
-1
-1
-1
1
1
-1
-1
-1
-1
-1
-1
-1
-1
-1
1
-1
0.986485
0.989818
0.989817
0.989816
0.989816
0.989817
0.989818
0.98982
0.986487
-1
-1
0.999819
1.00315
1.00315
1.00315
1.00315
1.00315
1.00315
1.00315
0.999821
-1
-1
0.999819
1.00315
1.00315
1.00315
1.00315
1.00315
1.00315
1.00315
0.999821
-1
-1
0.999819
1.00315
1.00315
1.00315
1.00315
1.00315
1.00315
1.00315
0.999822
-1
-1
0.99982
1.00315
1.00315
1.00315
1.00315
1.00315
1.00315
1.00315
0.999822
-1
-1
0.99982
1.00315
1.00315
1.00315
1.00315
1.00315
1.00315
1.00315
0.999822
-1
-1
0.99982
1.00315
1.00315
1.00315
1.00315
1.00315
1.00315
1.00315
0.999822
-1
-1
0.99982
1.00315
1.00315
1.00315
1.00315
1.00315
1.00315
1.00315
0.999823
-1
-1
0.986487
0.98982
0.989819
0.989819
0.989819
0.989819
0.989821
0.989822
0.98649
-1
1
-1
-1
-1
-1
-1
-1
-1
-1
-1
1
1
-1
-1
-1
-1
-1
-1
-1
-1
-1
1
-1
0.986434
0.989767
0.989767
0.989767
0.989767
0.989767
0.989768
0.989769
0.986436
-1
-1
0.999767
1.0031
1.0031
1.0031
1.0031
1.0031
1.0031
1.0031
0.99977
-1
-1
0.999768
1.0031
1.0031
1.0031
1.0031
1.0031
1.0031
1.0031
0.99977
-1
-1
0.999768
1.0031
1.0031
1.0031
1.0031
1.0031
1.0031
1.0031
0.99977
-1
-1
0.999768
1.0031
1.0031
1.0031
1.0031
1.0031
1.0031
1.0031
0.999771
-1
-1
0.999769
1.0031
1.0031
1.0031
1.0031
1.0031
1.0031
1.0031
0.999771
-1
-1
0.999769
1.0031
1.0031
1.0031
1.0031
1.0031
1.0031
1.0031
0.999771
-1
-1
0.999769
1.0031
1.0031
1.0031
1.0031
1.0031
1.0031
1.0031
0.999772
-1
-1
0.986436
0.98977
0.989769
0.989769
0.989769
0.98977
0.98977
0.989771
0.986439
-1
1
-1
-1
-1
-1
-1
-1
-1
-1
-1
1
1
-1
-1
-1
-1
-1
-1
-1
-1
-1
1
-1
0.986383
0.989717
0.989717
0.989717
0.989717
0.989718
0.989718
0.989719
0.986386
-1
-1
0.999717
1.00305
1.00305
1.00305
1.00305
1.00305
1.00305
1.00305
0.99972
-1
-1
0.999717
1.00305
1.00305
1.00305
1.00305
1.00305
1.00305
1.00305
0.99972
-1
-1
0.999718
1.00305
1.00305
1.00305
1.00305
1.00305
1.00305
1.00305
0.99972
-1
-1
0.999718
1.00305
1.00305
1.00305
1.00305
1.00305
1.00305
1.00305
0.999721
-1
-1
0.999718
1.00305
1.00305
1.00305
1.00305
1.00305
1.00305
1.00305
0.999721
-1
-1
0.999719
1.00305
1.00305
1.00305
1.00305
1.00305
1.00305
1.00305
0.999721
-1
-1
0.999719
1.00305
1.00305
1.00305
1.00305
1.00305
1.00305
1.00305
0.999722
-1
-1
0.986386
0.98972
0.98972
0.98972
0.98972
0.98972
0.989721
0.989722
0.986389
-1
1
-1
-1
-1
-1
-1
-1
-1
-1
-1
1
1
-1
-1
-1
-1
-1
-1
-1
-1
-1
1
-1
0.986334
0.989668
0.989668
0.989668
0.989668
0.989669
0.989669
0.98967
0.986337
-1
-1
0.999668
1.003
1.003
1.003
1.003
1.003
1.003
1.003
0.999671
-1
-1
0.999668
1.003
1.003
1.003
1.003
1.003
1.003
1.003
0.999671
-1
-1
0.999668
1.003
1.003
1.003
1.003
1.003
1.003
1.003
0.999671
-1
-1
0.999669
1.003
1.003
1.003
1.003
1.003
1.003
1.003
0.999672
-1
-1
0.999669
1.003
1.003
1.003
1.003
1.003
1.003
1.003
0.999672
-1
-1
0.999669
1.003
1.003
1.003
1.003
1.003
1.003
1.00301
0.999672
-1
-1
0.99967
1.003
1.003
1.003
1.003
1.003
1.003
1.00301
0.999673
-1
-1
0.986337
0.98967
0.989671
0.989671
0.989671
0.989672
0.989672
0.989673
0.98634
-1
1
-1
-1
-1
-1
-1
-1
-1
-1
-1
1
1
-1
-1
-1
-1
-1
-1
-1
-1
-1
1
-1
0.986285
0.989619
0.989619
0.98962
0.98962
0.98962
0.989621
0.989621
0.986288
-1
-1
0.999619
1.00295
1.00295
1.00295
1.00295
1.00295
1.00295
1.00296
0.999622
-1
-1
0.999619
1.00295
1.00295
1.00295
1.00295
1.00295
1.00295
1.00296
0.999623
-1
-1
0.99962
1.00295
1.00295
1.00295
1.00295
1.00295
1.00296
1.00296
0.999623
-1
-1
0.99962
1.00295
1.00295
1.00295
1.00295
1.00296
1.00296
1.00296
0.999623
-1
-1
0.999621
1.00295
1.00295
1.00295
1.00296
1.00296
1.00296
1.00296
0.999624
-1
-1
0.999621
1.00295
1.00295
1.00296
1.00296
1.00296
1.00296
1.00296
0.999624
-1
-1
0.999621
1.00296
1.00296
1.00296
1.00296
1.00296
1.00296
1.00296
0.999624
-1
-1
0.986288
0.989622
0.989622
0.989623
0.989623
0.989623
0.989624
0.989624
0.986292
-1
1
-1
-1
-1
-1
-1
-1
-1
-1
-1
1
1
-1
-1
-1
-1
-1
-1
-1
-1
-1
1
-1
0.986238
0.989571
0.989572
0.989572
0.989572
0.989573
0.989573
0.989574
0.986241
-1
-1
0.999571
1.0029
1.00291
1.00291
1.00291
1.00291
1.00291
1.00291
0.999575
-1
-1
0.999572
1.00291
1.00291
1.00291
1.00291
1.00291
1.00291
1.00291
0.999575
-1
-1
0.999572
1.00291
1.00291
1.00291
1.00291
1.00291
1.00291
1.00291
0.999575
-1
-1
0.999572
1.00291
1.00291
1.00291
1.00291
1.00291
1.00291
1.00291
0.999576
-1
-1
0.999573
1.00291
1.00291
1.00291
1.00291
1.00291
1.00291
1.00291
0.999576
-1
-1
0.999573
1.00291
1.00291
1.00291
1.00291
1.00291
1.00291
1.00291
0.999577
-1
-1
0.999574
1.00291
1.00291
1.00291
1.00291
1.00291
1.00291
1.00291
0.999577
-1
-1
0.986241
0.989575
0.989575
0.989575
0.989576
0.989576
0.989577
0.989577
0.986244
-1
1
-1
-1
-1
-1
-1
-1
-1
-1
-1
1
1
-1
-1
-1
-1
-1
-1
-1
-1
-1
1
-1
0.986191
0.989524
0.989525
0.989525
0.989526
0.989526
0.989527
0.989527
0.986194
-1
-1
0.999524
1.00286
1.00286
1.00286
1.00286
1.00286
1.00286
1.00286
0.999528
-1
-1
0.999525
1.00286
1.00286
1.00286
1.00286
1.00286
1.00286
1.00286
0.999528
-1
-1
0.999525
1.00286
1.00286
1.00286
1.00286
1.00286
1.00286
1.00286
0.999529
-1
-1
0.999526
1.00286
1.00286
1.00286
1.00286
1.00286
1.00286
1.00286
0.999529
-1
-1
0.999526
1.00286
1.00286
1.00286
1.00286
1.00286
1.00286
1.00286
0.99953
-1
-1
0.999527
1.00286
1.00286
1.00286
1.00286
1.00286
1.00286
1.00286
0.99953
-1
-1
0.999527
1.00286
1.00286
1.00286
1.00286
1.00286
1.00286
1.00286
0.99953
-1
-1
0.986194
0.989528
0.989528
0.989529
0.989529
0.989529
0.98953
0.98953
0.986198
-1
1
-1
-1
-1
-1
-1
-1
-1
-1
-1
1
1
-1
-1
-1
-1
-1
-1
-1
-1
-1
1
-1
0.986145
0.989478
0.989479
0.989479
0.98948
0.98948
0.989481
0.989481
0.986148
-1
-1
0.999478
1.00281
1.00281
1.00281
1.00281
1.00281
1.00281
1.00281
0.999482
-1
-1
0.999479
1.00281
1.00281
1.00281
1.00281
1.00281
1.00281
1.00282
0.999482
-1
-1
0.999479
1.00281
1.00281
1.00281
1.00281
1.00281
1.00282
1.00282
0.999483
-1
-1
0.99948
1.00281
1.00281
1.00281
1.00281
1.00282
1.00282
1.00282
0.999483
-1
-1
0.99948
1.00281
1.00281
1.00281
1.00282
1.00282
1.00282
1.00282
0.999484
-1
-1
0.999481
1.00281
1.00281
1.00282
1.00282
1.00282
1.00282
1.00282
0.999484
-1
-1
0.999481
1.00281
1.00282
1.00282
1.00282
1.00282
1.00282
1.00282
0.999485
-1
-1
0.986148
0.989482
0.989482
0.989483
0.989483
0.989484
0.989484
0.989485
0.986152
-1
1
-1
-1
-1
-1
-1
-1
-1
-1
-1
1
1
-1
-1
-1
-1
-1
-1
-1
-1
-1
1
-1
0.9861
0.989433
0.989434
0.989434
0.989435
0.989435
0.989436
0.989436
0.986103
-1
-1
0.999433
1.00277
1.00277
1.00277
1.00277
1.00277
1.00277
1.00277
0.999437
-1
-1
0.999434
1.00277
1.00277
1.00277
1.00277
1.00277
1.00277
1.00277
0.999438
-1
-1
0.999434
1.00277
1.00277
1.00277
1.00277
1.00277
1.00277
1.00277
0.999438
-1
-1
0.999435
1.00277
1.00277
1.00277
1.00277
1.00277
1.00277
1.00277
0.999439
-1
-1
0.999435
1.00277
1.00277
1.00277
1.00277
1.00277
1.00277
1.00277
0.999439
-1
-1
0.999436
1.00277
1.00277
1.00277
1.00277
1.00277
1.00277
1.00277
0.999439
-1
-1
0.999436
1.00277
1.00277
1.00277
1.00277
1.00277
1.00277
1.00277
0.99944
-1
-1
0.986103
0.989437
0.989438
0.989438
0.989438
0.989439
0.989439
0.98944
0.986107
-1
1
-1
-1
-1
-1
-1
-1
-1
-1
-1
1
1
-1
-1
-1
-1
-1
-1
-1
-1
-1
1
-1
0.986055
0.989389
0.98939
0.98939
0.989391
0.989391
0.989392
0.989392
0.986059
-1
-1
0.999389
1.00272
1.00272
1.00272
1.00272
1.00272
1.00273
1.00273
0.999393
-1
-1
0.99939
1.00272
1.00272
1.00272
1.00272
1.00273
1.00273
1.00273
0.999394
-1
-1
0.99939
1.00272
1.00272
1.00272
1.00273
1.00273
1.00273
1.00273
0.999394
-1
-1
0.999391
1.00272
1.00272
1.00273
1.00273
1.00273
1.00273
1.00273
0.999395
-1
-1
0.999391
1.00272
1.00273
1.00273
1.00273
1.00273
1.00273
1.00273
0.999395
-1
-1
0.999392
1.00273
1.00273
1.00273
1.00273
1.00273
1.00273
1.00273
0.999396
-1
-1
0.999392
1.00273
1.00273
1.00273
1.00273
1.00273
1.00273
1.00273
0.999396
-1
-1
0.986059
0.989393
0.989394
0.989394
0.989395
0.989395
0.989396
0.989396
0.986063
-1
1
-1
-1
-1
-1
-1
-1
-1
-1
-1
1
1
-1
-1
-1
-1
-1
-1
-1
-1
-1
1
-1
0.986012
0.989346
0.989347
0.989347
0.989348
0.989348
0.989349
0.989349
0.986017
-1
-1
0.999346
1.00268
1.00268
1.00268
1.00268
1.00268
1.00268
1.00268
0.99935
-1
-1
0.999347
1.00268
1.00268
1.00268
1.00268
1.00268
1.00268
1.00268
0.999351
-1
-1
0.999347
1.00268
1.00268
1.00268
1.00268
1.00268
1.00268
1.00268
0.999351
-1
-1
0.999348
1.00268
1.00268
1.00268
1.00268
1.00268
1.00268
1.00268
0.999352
-1
-1
0.999348
1.00268
1.00268
1.00268
1.00268
1.00268
1.00268
1.00269
0.999352
-1
-1
0.999349
1.00268
1.00268
1.00268
1.00268
1.00268
1.00269
1.00269
0.999353
-1
-1
0.999349
1.00268
1.00268
1.00268
1.00268
1.00269
1.00269
1.00269
0.999353
-1
-1
0.986017
0.98935
0.989351
0.989351
0.989352
0.989352
0.989353
0.989353
0.986021
-1
1
-1
-1
-1
-1
-1
-1
-1
-1
-1
1
1
-1
-1
-1
-1
-1
-1
-1
-1
-1
1
-1
0.98597
0.989304
0.989305
0.989305
0.989306
0.989306
0.989307
0.989307
0.985975
-1
-1
0.999304
1.00264
1.00264
1.00264
1.00264
1.00264
1.00264
1.00264
0.999308
-1
-1
0.999305
1.00264
1.00264
1.00264
1.00264
1.00264
1.00264
1.00264
0.999309
-1
-1
0.999305
1.00264
1.00264
1.00264
1.00264
1.00264
1.00264
1.00264
0.999309
-1
-1
0.999306
1.00264
1.00264
1.00264
1.00264
1.00264
1.00264
1.00264
0.99931
-1
-1
0.999306
1.00264
1.00264
1.00264
1.00264
1.00264
1.00264
1.00264
0.99931
-1
-1
0.999307
1.00264
1.00264
1.00264
1.00264
1.00264
1.00264
1.00264
0.999311
-1
-1
0.999307
1.00264
1.00264
1.00264
1.00264
1.00264
1.00264
1.00264
0.999312
-1
-1
0.985975
0.989308
0.989309
0.989309
0.98931
0.98931
0.989311
0.989312
0.985979
-1
1
-1
-1
-1
-1
-1
-1
-1
-1
-1
1
1
-1
-1
-1
-1
-1
-1
-1
-1
-1
1
-1
0.985929
0.989263
0.989264
0.989264
0.989265
0.989265
0.989266
0.989266
0.985934
-1
-1
0.999263
1.0026
1.0026
1.0026
1.0026
1.0026
1.0026
1.0026
0.999268
-1
-1
0.999264
1.0026
1.0026
1.0026
1.0026
1.0026
1.0026
1.0026
0.999268
-1
-1
0.999264
1.0026
1.0026
1.0026
1.0026
1.0026
1.0026
1.0026
0.999269
-1
-1
0.999265
1.0026
1.0026
1.0026
1.0026
1.0026
1.0026
1.0026
0.999269
-1
-1
0.999265
1.0026
1.0026
1.0026
1.0026
1.0026
1.0026
1.0026
0.99927
-1
-1
0.999266
1.0026
1.0026
1.0026
1.0026
1.0026
1.0026
1.0026
0.99927
-1
-1
0.999266
1.0026
1.0026
1.0026
1.0026
1.0026
1.0026
1.0026
0.999271
-1
-1
0.985934
0.989268
0.989268
0.989269
0.989269
0.98927
0.98927
0.989271
0.985938
-1
1
-1
-1
-1
-1
-1
-1
-1
-1
-1
1
1
-1
-1
-1
-1
-1
-1
-1
-1
-1
1
-1
0.985889
0.989223
0.989224
0.989224
0.989225
0.989226
0.989226
0.989227
0.985894
-1
-1
0.999223
1.00256
1.00256
1.00256
1.00256
1.00256
1.00256
1.00256
0.999228
-1
-1
0.999224
1.00256
1.00256
1.00256
1.00256
1.00256
1.00256
1.00256
0.999228
-1
-1
0.999224
1.00256
1.00256
1.00256
1.00256
1.00256
1.00256
1.00256
0.999229
-1
-1
0.999225
1.00256
1.00256
1.00256
1.00256
1.00256
1.00256
1.00256
0.99923
-1
-1
0.999226
1.00256
1.00256
1.00256
1.00256
1.00256
1.00256
1.00256
0.99923
-1
-1
0.999226
1.00256
1.00256
1.00256
1.00256
1.00256
1.00256
1.00256
0.999231
-1
-1
0.999227
1.00256
1.00256
1.00256
1.00256
1.00256
1.00256
1.00256
0.999231
-1
-1
0.985894
0.989228
0.989228
0.989229
0.98923
0.98923
0.989231
0.989231
0.985899
-1
1
-1
-1
-1
-1
-1
-1
-1
-1
-1
1
1
-1
-1
-1
-1
-1
-1
-1
-1
-1
1
-1
0.985851
0.989185
0.989185
0.989186
0.989186
0.989187
0.989188
0.989188
0.985856
-1
-1
0.999185
1.00252
1.00252
1.00252
1.00252
1.00252
1.00252
1.00252
0.999189
-1
-1
0.999185
1.00252
1.00252
1.00252
1.00252
1.00252
1.00252
1.00252
0.99919
-1
-1
0.999186
1.00252
1.00252
1.00252
1.00252
1.00252
1.00252
1.00252
0.999191
-1
-1
0.999186
1.00252
1.00252
1.00252
1.00252
1.00252
1.00252
1.00252
0.999191
-1
-1
0.999187
1.00252
1.00252
1.00252
1.00252
1.00252
1.00252
1.00252
0.999192
-1
-1
0.999188
1.00252
1.00252
1.00252
1.00252
1.00252
1.00252
1.00253
0.999192
-1
-1
0.999188
1.00252
1.00252
1.00252
1.00252
1.00252
1.00253
1.00253
0.999193
-1
-1
0.985856
0.989189
0.98919
0.989191
0.989191
0.989192
0.989192
0.989193
0.98586
-1
1
-1
-1
-1
-1
-1
-1
-1
-1
-1
1
1
-1
-1
-1
-1
-1
-1
-1
-1
-1
1
-1
0.985813
0.989147
0.989148
0.989148
0.989149
0.98915
0.98915
0.989151
0.985818
-1
-1
0.999147
1.00248
1.00248
1.00248
1.00248
1.00248
1.00248
1.00248
0.999152
-1
-1
0.999148
1.00248
1.00248
1.00248
1.00248
1.00248
1.00248
1.00249
0.999153
-1
-1
0.999148
1.00248
1.00248
1.00248
1.00248
1.00248
1.00249
1.00249
0.999153
-1
-1
0.999149
1.00248
1.00248
1.00248
1.00248
1.00249
1.00249
1.00249
0.999154
-1
-1
0.99915
1.00248
1.00248
1.00248
1.00249
1.00249
1.00249
1.00249
0.999154
-1
-1
0.99915
1.00248
1.00248
1.00249
1.00249
1.00249
1.00249
1.00249
0.999155
-1
-1
0.999151
1.00248
1.00249
1.00249
1.00249
1.00249
1.00249
1.00249
0.999156
-1
-1
0.985818
0.989152
0.989153
0.989153
0.989154
0.989154
0.989155
0.989156
0.985823
-1
1
-1
-1
-1
-1
-1
-1
-1
-1
-1
1
1
-1
-1
-1
-1
-1
-1
-1
-1
-1
1
-1
0.985777
0.989111
0.989111
0.989112
0.989113
0.989113
0.989114
0.989115
0.985782
-1
-1
0.999111
1.00244
1.00245
1.00245
1.00245
1.00245
1.00245
1.00245
0.999116
-1
-1
0.999111
1.00245
1.00245