# vtk DataFile Version 2.0
FlowField
ASCII
DATASET STRUCTURED_GRID
DIMENSIONS 62 47 32 
POINTS 93248 double
0 0 0
0.01 0 0
0.02 0 0
0.03 0 0
0.04 0 0
0.05 0 0
0.06 0 0
0.07 0 0
0.08 0 0
0.09 0 0
0.1 0 0
0.11 0 0
0.12 0 0
0.13 0 0
0.14 0 0
0.15 0 0
0.16 0 0
0.17 0 0
0.18 0 0
0.19 0 0
0.2 0 0
0.21 0 0
0.22 0 0
0.23 0 0
0.24 0 0
0.25 0 0
0.26 0 0
0.27 0 0
0.28 0 0
0.29 0 0
0.3 0 0
0.31 0 0
0.32 0 0
0.33 0 0
0.34 0 0
0.35 0 0
0.36 0 0
0.37 0 0
0.38 0 0
0.39 0 0
0.4 0 0
0.41 0 0
0.42 0 0
0.43 0 0
0.44 0 0
0.45 0 0
0.46 0 0
0.47 0 0
0.48 0 0
0.49 0 0
0.5 0 0
0.51 0 0
0.52 0 0
0.53 0 0
0.54 0 0
0.55 0 0
0.56 0 0
0.57 0 0
0.58 0 0
0.59 0 0
0.6 0 0
0.61 0 0
0 0.01 0
0.01 0.01 0
0.02 0.01 0
0.03 0.01 0
0.04 0.01 0
0.05 0.01 0
0.06 0.01 0
0.07 0.01 0
0.08 0.01 0
0.09 0.01 0
0.1 0.01 0
0.11 0.01 0
0.12 0.01 0
0.13 0.01 0
0.14 0.01 0
0.15 0.01 0
0.16 0.01 0
0.17 0.01 0
0.18 0.01 0
0.19 0.01 0
0.2 0.01 0
0.21 0.01 0
0.22 0.01 0
0.23 0.01 0
0.24 0.01 0
0.25 0.01 0
0.26 0.01 0
0.27 0.01 0
0.28 0.01 0
0.29 0.01 0
0.3 0.01 0
0.31 0.01 0
0.32 0.01 0
0.33 0.01 0
0.34 0.01 0
0.35 0.01 0
0.36 0.01 0
0.37 0.01 0
0.38 0.01 0
0.39 0.01 0
0.4 0.01 0
0.41 0.01 0
0.42 0.01 0
0.43 0.01 0
0.44 0.01 0
0.45 0.01 0
0.46 0.01 0
0.47 0.01 0
0.48 0.01 0
0.49 0.01 0
0.5 0.01 0
0.51 0.01 0
0.52 0.01 0
0.53 0.01 0
0.54 0.01 0
0.55 0.01 0
0.56 0.01 0
0.57 0.01 0
0.58 0.01 0
0.59 0.01 0
0.6 0.01 0
0.61 0.01 0
0 0.02 0
0.01 0.02 0
0.02 0.02 0
0.03 0.02 0
0.04 0.02 0
0.05 0.02 0
0.06 0.02 0
0.07 0.02 0
0.08 0.02 0
0.09 0.02 0
0.1 0.02 0
0.11 0.02 0
0.12 0.02 0
0.13 0.02 0
0.14 0.02 0
0.15 0.02 0
0.16 0.02 0
0.17 0.02 0
0.18 0.02 0
0.19 0.02 0
0.2 0.02 0
0.21 0.02 0
0.22 0.02 0
0.23 0.02 0
0.24 0.02 0
0.25 0.02 0
0.26 0.02 0
0.27 0.02 0
0.28 0.02 0
0.29 0.02 0
0.3 0.02 0
0.31 0.02 0
0.32 0.02 0
0.33 0.02 0
0.34 0.02 0
0.35 0.02 0
0.36 0.02 0
0.37 0.02 0
0.38 0.02 0
0.39 0.02 0
0.4 0.02 0
0.41 0.02 0
0.42 0.02 0
0.43 0.02 0
0.44 0.02 0
0.45 0.02 0
0.46 0.02 0
0.47 0.02 0
0.48 0.02 0
0.49 0.02 0
0.5 0.02 0
0.51 0.02 0
0.52 0.02 0
0.53 0.02 0
0.54 0.02 0
0.55 0.02 0
0.56 0.02 0
0.57 0.02 0
0.58 0.02 0
0.59 0.02 0
0.6 0.02 0
0.61 0.02 0
0 0.03 0
0.01 0.03 0
0.02 0.03 0
0.03 0.03 0
0.04 0.03 0
0.05 0.03 0
0.06 0.03 0
0.07 0.03 0
0.08 0.03 0
0.09 0.03 0
0.1 0.03 0
0.11 0.03 0
0.12 0.03 0
0.13 0.03 0
0.14 0.03 0
0.15 0.03 0
0.16 0.03 0
0.17 0.03 0
0.18 0.03 0
0.19 0.03 0
0.2 0.03 0
0.21 0.03 0
0.22 0.03 0
0.23 0.03 0
0.24 0.03 0
0.25 0.03 0
0.26 0.03 0
0.27 0.03 0
0.28 0.03 0
0.29 0.03 0
0.3 0.03 0
0.31 0.03 0
0.32 0.03 0
0.33 0.03 0
0.34 0.03 0
0.35 0.03 0
0.36 0.03 0
0.37 0.03 0
0.38 0.03 0
0.39 0.03 0
0.4 0.03 0
0.41 0.03 0
0.42 0.03 0
0.43 0.03 0
0.44 0.03 0
0.45 0.03 0
0.46 0.03 0
0.47 0.03 0
0.48 0.03 0
0.49 0.03 0
0.5 0.03 0
0.51 0.03 0
0.52 0.03 0
0.53 0.03 0
0.54 0.03 0
0.55 0.03 0
0.56 0.03 0
0.57 0.03 0
0.58 0.03 0
0.59 0.03 0
0.6 0.03 0
0.61 0.03 0
0 0.04 0
0.01 0.04 0
0.02 0.04 0
0.03 0.04 0
0.04 0.04 0
0.05 0.04 0
0.06 0.04 0
0.07 0.04 0
0.08 0.04 0
0.09 0.04 0
0.1 0.04 0
0.11 0.04 0
0.12 0.04 0
0.13 0.04 0
0.14 0.04 0
0.15 0.04 0
0.16 0.04 0
0.17 0.04 0
0.18 0.04 0
0.19 0.04 0
0.2 0.04 0
0.21 0.04 0
0.22 0.04 0
0.23 0.04 0
0.24 0.04 0
0.25 0.04 0
0.26 0.04 0
0.27 0.04 0
0.28 0.04 0
0.29 0.04 0
0.3 0.04 0
0.31 0.04 0
0.32 0.04 0
0.33 0.04 0
0.34 0.04 0
0.35 0.04 0
0.36 0.04 0
0.37 0.04 0
0.38 0.04 0
0.39 0.04 0
0.4 0.04 0
0.41 0.04 0
0.42 0.04 0
0.43 0.04 0
0.44 0.04 0
0.45 0.04 0
0.46 0.04 0
0.47 0.04 0
0.48 0.04 0
0.49 0.04 0
0.5 0.04 0
0.51 0.04 0
0.52 0.04 0
0.53 0.04 0
0.54 0.04 0
0.55 0.04 0
0.56 0.04 0
0.57 0.04 0
0.58 0.04 0
0.59 0.04 0
0.6 0.04 0
0.61 0.04 0
0 0.05 0
0.01 0.05 0
0.02 0.05 0
0.03 0.05 0
0.04 0.05 0
0.05 0.05 0
0.06 0.05 0
0.07 0.05 0
0.08 0.05 0
0.09 0.05 0
0.1 0.05 0
0.11 0.05 0
0.12 0.05 0
0.13 0.05 0
0.14 0.05 0
0.15 0.05 0
0.16 0.05 0
0.17 0.05 0
0.18 0.05 0
0.19 0.05 0
0.2 0.05 0
0.21 0.05 0
0.22 0.05 0
0.23 0.05 0
0.24 0.05 0
0.25 0.05 0
0.26 0.05 0
0.27 0.05 0
0.28 0.05 0
0.29 0.05 0
0.3 0.05 0
0.31 0.05 0
0.32 0.05 0
0.33 0.05 0
0.34 0.05 0
0.35 0.05 0
0.36 0.05 0
0.37 0.05 0
0.38 0.05 0
0.39 0.05 0
0.4 0.05 0
0.41 0.05 0
0.42 0.05 0
0.43 0.05 0
0.44 0.05 0
0.45 0.05 0
0.46 0.05 0
0.47 0.05 0
0.48 0.05 0
0.49 0.05 0
0.5 0.05 0
0.51 0.05 0
0.52 0.05 0
0.53 0.05 0
0.54 0.05 0
0.55 0.05 0
0.56 0.05 0
0.57 0.05 0
0.58 0.05 0
0.59 0.05 0
0.6 0.05 0
0.61 0.05 0
0 0.06 0
0.01 0.06 0
0.02 0.06 0
0.03 0.06 0
0.04 0.06 0
0.05 0.06 0
0.06 0.06 0
0.07 0.06 0
0.08 0.06 0
0.09 0.06 0
0.1 0.06 0
0.11 0.06 0
0.12 0.06 0
0.13 0.06 0
0.14 0.06 0
0.15 0.06 0
0.16 0.06 0
0.17 0.06 0
0.18 0.06 0
0.19 0.06 0
0.2 0.06 0
0.21 0.06 0
0.22 0.06 0
0.23 0.06 0
0.24 0.06 0
0.25 0.06 0
0.26 0.06 0
0.27 0.06 0
0.28 0.06 0
0.29 0.06 0
0.3 0.06 0
0.31 0.06 0
0.32 0.06 0
0.33 0.06 0
0.34 0.06 0
0.35 0.06 0
0.36 0.06 0
0.37 0.06 0
0.38 0.06 0
0.39 0.06 0
0.4 0.06 0
0.41 0.06 0
0.42 0.06 0
0.43 0.06 0
0.44 0.06 0
0.45 0.06 0
0.46 0.06 0
0.47 0.06 0
0.48 0.06 0
0.49 0.06 0
0.5 0.06 0
0.51 0.06 0
0.52 0.06 0
0.53 0.06 0
0.54 0.06 0
0.55 0.06 0
0.56 0.06 0
0.57 0.06 0
0.58 0.06 0
0.59 0.06 0
0.6 0.06 0
0.61 0.06 0
0 0.07 0
0.01 0.07 0
0.02 0.07 0
0.03 0.07 0
0.04 0.07 0
0.05 0.07 0
0.06 0.07 0
0.07 0.07 0
0.08 0.07 0
0.09 0.07 0
0.1 0.07 0
0.11 0.07 0
0.12 0.07 0
0.13 0.07 0
0.14 0.07 0
0.15 0.07 0
0.16 0.07 0
0.17 0.07 0
0.18 0.07 0
0.19 0.07 0
0.2 0.07 0
0.21 0.07 0
0.22 0.07 0
0.23 0.07 0
0.24 0.07 0
0.25 0.07 0
0.26 0.07 0
0.27 0.07 0
0.28 0.07 0
0.29 0.07 0
0.3 0.07 0
0.31 0.07 0
0.32 0.07 0
0.33 0.07 0
0.34 0.07 0
0.35 0.07 0
0.36 0.07 0
0.37 0.07 0
0.38 0.07 0
0.39 0.07 0
0.4 0.07 0
0.41 0.07 0
0.42 0.07 0
0.43 0.07 0
0.44 0.07 0
0.45 0.07 0
0.46 0.07 0
0.47 0.07 0
0.48 0.07 0
0.49 0.07 0
0.5 0.07 0
0.51 0.07 0
0.52 0.07 0
0.53 0.07 0
0.54 0.07 0
0.55 0.07 0
0.56 0.07 0
0.57 0.07 0
0.58 0.07 0
0.59 0.07 0
0.6 0.07 0
0.61 0.07 0
0 0.08 0
0.01 0.08 0
0.02 0.08 0
0.03 0.08 0
0.04 0.08 0
0.05 0.08 0
0.06 0.08 0
0.07 0.08 0
0.08 0.08 0
0.09 0.08 0
0.1 0.08 0
0.11 0.08 0
0.12 0.08 0
0.13 0.08 0
0.14 0.08 0
0.15 0.08 0
0.16 0.08 0
0.17 0.08 0
0.18 0.08 0
0.19 0.08 0
0.2 0.08 0
0.21 0.08 0
0.22 0.08 0
0.23 0.08 0
0.24 0.08 0
0.25 0.08 0
0.26 0.08 0
0.27 0.08 0
0.28 0.08 0
0.29 0.08 0
0.3 0.08 0
0.31 0.08 0
0.32 0.08 0
0.33 0.08 0
0.34 0.08 0
0.35 0.08 0
0.36 0.08 0
0.37 0.08 0
0.38 0.08 0
0.39 0.08 0
0.4 0.08 0
0.41 0.08 0
0.42 0.08 0
0.43 0.08 0
0.44 0.08 0
0.45 0.08 0
0.46 0.08 0
0.47 0.08 0
0.48 0.08 0
0.49 0.08 0
0.5 0.08 0
0.51 0.08 0
0.52 0.08 0
0.53 0.08 0
0.54 0.08 0
0.55 0.08 0
0.56 0.08 0
0.57 0.08 0
0.58 0.08 0
0.59 0.08 0
0.6 0.08 0
0.61 0.08 0
0 0.09 0
0.01 0.09 0
0.02 0.09 0
0.03 0.09 0
0.04 0.09 0
0.05 0.09 0
0.06 0.09 0
0.07 0.09 0
0.08 0.09 0
0.09 0.09 0
0.1 0.09 0
0.11 0.09 0
0.12 0.09 0
0.13 0.09 0
0.14 0.09 0
0.15 0.09 0
0.16 0.09 0
0.17 0.09 0
0.18 0.09 0
0.19 0.09 0
0.2 0.09 0
0.21 0.09 0
0.22 0.09 0
0.23 0.09 0
0.24 0.09 0
0.25 0.09 0
0.26 0.09 0
0.27 0.09 0
0.28 0.09 0
0.29 0.09 0
0.3 0.09 0
0.31 0.09 0
0.32 0.09 0
0.33 0.09 0
0.34 0.09 0
0.35 0.09 0
0.36 0.09 0
0.37 0.09 0
0.38 0.09 0
0.39 0.09 0
0.4 0.09 0
0.41 0.09 0
0.42 0.09 0
0.43 0.09 0
0.44 0.09 0
0.45 0.09 0
0.46 0.09 0
0.47 0.09 0
0.48 0.09 0
0.49 0.09 0
0.5 0.09 0
0.51 0.09 0
0.52 0.09 0
0.53 0.09 0
0.54 0.09 0
0.55 0.09 0
0.56 0.09 0
0.57 0.09 0
0.58 0.09 0
0.59 0.09 0
0.6 0.09 0
0.61 0.09 0
0 0.1 0
0.01 0.1 0
0.02 0.1 0
0.03 0.1 0
0.04 0.1 0
0.05 0.1 0
0.06 0.1 0
0.07 0.1 0
0.08 0.1 0
0.09 0.1 0
0.1 0.1 0
0.11 0.1 0
0.12 0.1 0
0.13 0.1 0
0.14 0.1 0
0.15 0.1 0
0.16 0.1 0
0.17 0.1 0
0.18 0.1 0
0.19 0.1 0
0.2 0.1 0
0.21 0.1 0
0.22 0.1 0
0.23 0.1 0
0.24 0.1 0
0.25 0.1 0
0.26 0.1 0
0.27 0.1 0
0.28 0.1 0
0.29 0.1 0
0.3 0.1 0
0.31 0.1 0
0.32 0.1 0
0.33 0.1 0
0.34 0.1 0
0.35 0.1 0
0.36 0.1 0
0.37 0.1 0
0.38 0.1 0
0.39 0.1 0
0.4 0.1 0
0.41 0.1 0
0.42 0.1 0
0.43 0.1 0
0.44 0.1 0
0.45 0.1 0
0.46 0.1 0
0.47 0.1 0
0.48 0.1 0
0.49 0.1 0
0.5 0.1 0
0.51 0.1 0
0.52 0.1 0
0.53 0.1 0
0.54 0.1 0
0.55 0.1 0
0.56 0.1 0
0.57 0.1 0
0.58 0.1 0
0.59 0.1 0
0.6 0.1 0
0.61 0.1 0
0 0.11 0
0.01 0.11 0
0.02 0.11 0
0.03 0.11 0
0.04 0.11 0
0.05 0.11 0
0.06 0.11 0
0.07 0.11 0
0.08 0.11 0
0.09 0.11 0
0.1 0.11 0
0.11 0.11 0
0.12 0.11 0
0.13 0.11 0
0.14 0.11 0
0.15 0.11 0
0.16 0.11 0
0.17 0.11 0
0.18 0.11 0
0.19 0.11 0
0.2 0.11 0
0.21 0.11 0
0.22 0.11 0
0.23 0.11 0
0.24 0.11 0
0.25 0.11 0
0.26 0.11 0
0.27 0.11 0
0.28 0.11 0
0.29 0.11 0
0.3 0.11 0
0.31 0.11 0
0.32 0.11 0
0.33 0.11 0
0.34 0.11 0
0.35 0.11 0
0.36 0.11 0
0.37 0.11 0
0.38 0.11 0
0.39 0.11 0
0.4 0.11 0
0.41 0.11 0
0.42 0.11 0
0.43 0.11 0
0.44 0.11 0
0.45 0.11 0
0.46 0.11 0
0.47 0.11 0
0.48 0.11 0
0.49 0.11 0
0.5 0.11 0
0.51 0.11 0
0.52 0.11 0
0.53 0.11 0
0.54 0.11 0
0.55 0.11 0
0.56 0.11 0
0.57 0.11 0
0.58 0.11 0
0.59 0.11 0
0.6 0.11 0
0.61 0.11 0
0 0.12 0
0.01 0.12 0
0.02 0.12 0
0.03 0.12 0
0.04 0.12 0
0.05 0.12 0
0.06 0.12 0
0.07 0.12 0
0.08 0.12 0
0.09 0.12 0
0.1 0.12 0
0.11 0.12 0
0.12 0.12 0
0.13 0.12 0
0.14 0.12 0
0.15 0.12 0
0.16 0.12 0
0.17 0.12 0
0.18 0.12 0
0.19 0.12 0
0.2 0.12 0
0.21 0.12 0
0.22 0.12 0
0.23 0.12 0
0.24 0.12 0
0.25 0.12 0
0.26 0.12 0
0.27 0.12 0
0.28 0.12 0
0.29 0.12 0
0.3 0.12 0
0.31 0.12 0
0.32 0.12 0
0.33 0.12 0
0.34 0.12 0
0.35 0.12 0
0.36 0.12 0
0.37 0.12 0
0.38 0.12 0
0.39 0.12 0
0.4 0.12 0
0.41 0.12 0
0.42 0.12 0
0.43 0.12 0
0.44 0.12 0
0.45 0.12 0
0.46 0.12 0
0.47 0.12 0
0.48 0.12 0
0.49 0.12 0
0.5 0.12 0
0.51 0.12 0
0.52 0.12 0
0.53 0.12 0
0.54 0.12 0
0.55 0.12 0
0.56 0.12 0
0.57 0.12 0
0.58 0.12 0
0.59 0.12 0
0.6 0.12 0
0.61 0.12 0
0 0.13 0
0.01 0.13 0
0.02 0.13 0
0.03 0.13 0
0.04 0.13 0
0.05 0.13 0
0.06 0.13 0
0.07 0.13 0
0.08 0.13 0
0.09 0.13 0
0.1 0.13 0
0.11 0.13 0
0.12 0.13 0
0.13 0.13 0
0.14 0.13 0
0.15 0.13 0
0.16 0.13 0
0.17 0.13 0
0.18 0.13 0
0.19 0.13 0
0.2 0.13 0
0.21 0.13 0
0.22 0.13 0
0.23 0.13 0
0.24 0.13 0
0.25 0.13 0
0.26 0.13 0
0.27 0.13 0
0.28 0.13 0
0.29 0.13 0
0.3 0.13 0
0.31 0.13 0
0.32 0.13 0
0.33 0.13 0
0.34 0.13 0
0.35 0.13 0
0.36 0.13 0
0.37 0.13 0
0.38 0.13 0
0.39 0.13 0
0.4 0.13 0
0.41 0.13 0
0.42 0.13 0
0.43 0.13 0
0.44 0.13 0
0.45 0.13 0
0.46 0.13 0
0.47 0.13 0
0.48 0.13 0
[...]
POINT_DATA 93248

SCALARS v double
LOOKUP_TABLE default
0
0
0
0
0
0
0
0
0
0
0
0
0
0
0
0
0
0
0
0
0
0
0
0
0
0
0
0
0
0
0
0
0
0
0
0
0
0
-0.0969868
0
0
0
0
0
-0.102269
0
0
0
0
0
0
0
0
0
0
0
0
0
0
0
0
0
0
0.0443487
-0.0825403
0.0467998
0.0330549
0.0161083
0
-0.00647974
-0.0139556
-0.0186806
-0.0218239
-0.0250497
-0.031018
-0.03084
-0.0311967
-0.0316073
-0.0320059
-0.0312398
-0.0306626
-0.029521
-0.0385617
-0.0326803
-0.0269088
-0.0310394
-0.0314702
-0.0314302
-0.0314004
-0.0313858
-0.031345
-0.0312356
-0.0310479
-0.0311467
-0.0331917
-0.0312263
-0.0303236
-0.0308659
-0.0685655
-0.0296261
-0.0287248
-0.026386
-0.033697
-0.0618586
-0.0338279
-0.0351232
-0.0399858
-0.0601255
-0.12973
-0.0331974
-0.0455099
-0.0308974
-0.0308267
-0.029801
-0.0340414
-0.0401743
-0.0637743
-0.0384733
-0.0911946
-0.031964
-0.0274021
-0.0240201
-0.0196936
0
0
0.0257785
0.0496408
0.0571991
0.0529778
0.0353859
0.0295469
0.0184294
0.00699216
-0.00367239
-0.012663
-0.0211057
-0.128167
-0.0367344
-0.0397216
-0.0382511
-0.0438354
-0.0426007
-0.0441248
-0.0468516
-0.166029
-0.0448806
-0.0497835
-0.0449736
-0.0437583
-0.0434585
-0.0434025
-0.0433872
-0.0433261
-0.0431476
-0.0427746
-0.0425164
-0.102101
-0.0426682
-0.0419032
-0.0435443
-0.0430961
-0.040266
-0.0382144
-0.042428
-0.0459842
-0.0483856
-0.0481696
-0.0501953
-0.0526698
-0.0567702
-0.0549231
-0.0478965
-0.0455099
-0.043872
-0.0446169
-0.0483762
-0.0476423
-0.0505718
-0.0547042
-0.0485265
-0.0451037
-0.105115
-0.0345612
-0.0304386
-0.0270797
0
0
0.0131243
0.0338501
0.0428415
0.0513072
0.0546371
0.0417998
0.0307557
0.0195904
0.00844738
-0.002924
-0.0132992
-0.0258114
-0.0331469
-0.0393255
-0.04454
-0.048213
0
-0.0499274
-0.0519728
-0.0545714
-0.0525509
-0.0523018
-0.0510229
-0.0503073
-0.05003
-0.0499506
-0.0499277
-0.0498862
-0.0497971
-0.0497347
-0.0501472
-0.0522894
-0.0529908
-0.0522001
-0.0487933
-0.0479944
-0.0471084
-0.0471631
-0.0497021
-0.0520577
-0.0542728
-0.0560632
-0.0558927
-0.0576012
-0.0587607
-0.0542894
-0.0525814
-0.0513948
-0.051699
-0.0518222
-0.0526112
-0.0527819
-0.0532751
-0.0531034
-0.0507739
-0.0479372
-0.0450497
-0.0386051
-0.0347747
-0.0334549
0
0
0.00756284
0.0229874
0.0369028
0.0397656
0.0408392
0.0358766
0.028601
0.0199716
0.0106704
0.000995102
-0.00863173
-0.0184764
-0.0269814
-0.0347401
-0.0424783
-0.0459741
-0.0478835
-0.0509183
-0.0534275
-0.0537646
-0.053903
-0.0539279
-0.0537378
-0.0535941
-0.0535472
-0.0535432
-0.0535587
-0.0535656
-0.0535577
-0.0536001
-0.0538953
-0.0547672
-0.0562273
-0.0555474
-0.0535343
-0.0523769
-0.05193
-0.052215
-0.0538284
-0.055405
-0.0569168
-0.0581954
-0.0587494
-0.0593908
-0.0588038
-0.054264
-0.0551214
-0.05511
-0.0551394
-0.0550134
-0.0548499
-0.0544676
-0.0537395
-0.0524296
-0.0504735
-0.0476943
-0.0441253
-0.0396685
-0.0367531
-0.0387813
0
0
0.00450465
0.0144074
0.0225199
0.0262039
0.027067
0.0247857
0.019737
0.0132267
0.00622366
-0.00114547
-0.00865092
-0.0162129
-0.0233801
-0.0300908
-0.0348192
-0.0423405
-0.0463993
-0.049955
-0.0517958
-0.0530945
-0.0540943
-0.0547613
-0.0551861
-0.0554841
-0.0557124
-0.055831
-0.0559345
-0.0560143
-0.0560455
-0.0560231
-0.0559833
-0.0563086
-0.0596196
-0.058013
-0.0564445
-0.0556103
-0.0554424
-0.055856
-0.0567183
-0.0576681
-0.058573
-0.059346
-0.0599434
-0.0603559
-0.0599877
0
-0.0569934
-0.0572828
-0.057025
-0.0566249
-0.056064
-0.0552206
-0.0539422
-0.0522624
-0.0502114
-0.0476386
-0.0446685
-0.0415462
-0.0381303
-0.0426405
-0.11018
0
0.00256293
0.00862397
0.013286
0.0155661
0.0156973
0.0142048
0.00960138
0
-0.000769589
-0.00620263
-0.0119053
-0.0177996
-0.0232508
-0.028875
-0.0347163
-0.0414423
-0.044487
-0.0463865
-0.0498607
-0.0523527
-0.0541987
-0.0554745
-0.0563529
-0.0570003
-0.0575003
-0.0577041
-0.057937
-0.0581215
-0.0581882
-0.0580727
-0.05768
-0.0571301
-0.136207
-0.0596937
-0.0585324
-0.0581732
-0.0582407
-0.0585967
-0.0591048
-0.0596398
-0.0601218
-0.0604917
-0.0607898
-0.0607036
-0.0598445
-0.0574144
-0.0580918
-0.0583731
-0.0582008
-0.0577566
-0.0570701
-0.0560368
-0.0545296
-0.0527983
-0.0508839
-0.0488664
-0.047491
-0.0488043
-0.0531499
-0.043578
0
0
0.00122855
0.00465598
0.00701073
0.00773626
0.00670028
0.00366924
0.00130871
-0.00297812
-0.00744942
-0.011965
-0.0167365
-0.0221699
-0.0256249
-0.0299978
-0.0352688
-0.0424288
-0.0441304
-0.0461817
-0.0497434
-0.0526456
-0.0550424
-0.0566167
-0.0577285
-0.0585981
-0.0593382
-0.0595622
-0.0600063
-0.0603319
-0.0604628
-0.0603704
-0.0602012
-0.0605168
-0.0628361
-0.0619073
-0.0611799
-0.0608847
-0.0609105
-0.0611179
-0.0613877
-0.061648
-0.0618586
-0.0619921
-0.0618691
-0.0615865
-0.060943
-0.0600637
-0.0598433
-0.0597112
-0.0594206
-0.0589402
-0.0582566
-0.0572461
-0.0556328
-0.0540642
-0.0524343
-0.05068
-0.0490002
-0.09603
-0.0297022
-0.0421558
0
0
0.000267456
0.00182785
0.00253662
0.00201767
0.000176805
-0.00285671
-0.00604493
-0.0098437
-0.013746
-0.0176179
-0.0220185
-0.0298769
-0.0233801
-0.0321977
-0.0353784
-0.0361945
-0.0425765
-0.0486001
-0.0518386
-0.0543289
-0.0569326
-0.0583101
-0.0593981
-0.0603293
-0.0595622
-0.0619372
-0.0624864
-0.0628663
-0.0630357
-0.0628901
-0.0626562
-0.0628749
-0.063577
-0.0636365
-0.0635151
-0.063438
-0.0634972
-0.063611
-0.0637171
-0.0637835
-0.0637877
-0.0636999
-0.0634613
-0.0631012
-0.06262
-0.0621208
-0.0617173
-0.0613347
-0.0608816
-0.0603298
-0.0596926
-0.0589511
-0.0571604
-0.0559497
-0.0547285
-0.0534129
-0.0520651
-0.0503885
-0.0443435
-0.0433359
0
0
-0.000450086
-0.000259531
-0.000780391
-0.00228382
-0.00477831
-0.0080822
-0.011747
-0.0155674
-0.0192213
-0.0224629
-0.0247914
-0.022393
-0.0304342
-0.0350585
-0.0382511
-0.0408615
-0.0456333
-0.0500746
-0.053373
-0.0557786
-0.0767887
-0.0600788
-0.0612217
-0.0623252
-0.0634825
-0.0641996
-0.0649823
-0.0656111
-0.065936
-0.0656506
-0.0647727
-0.0648504
-0.0653238
-0.065667
-0.0658449
-0.0659216
-0.0660472
-0.0661296
-0.0661285
-0.0660602
-0.0659227
-0.065701
-0.065381
-0.0649889
-0.0645544
-0.0641106
-0.0636467
-0.0631327
-0.0625375
-0.0618647
-0.0611248
-0.0602843
-0.058958
-0.0583502
-0.0574152
-0.0562649
-0.0548849
-0.0528848
-0.0493836
-0.0453408
0
0
-0.00100423
-0.00185241
-0.00332485
-0.00566023
-0.00874105
-0.0124435
-0.0164599
-0.0204697
-0.024177
-0.0273798
-0.0299206
-0.0319079
-0.0359778
-0.039729
-0.0424018
-0.0455566
-0.0492717
-0.0527833
-0.0557732
-0.0582956
-0.0606964
-0.0621658
-0.0633846
-0.064435
-0.0650518
-0.0665587
-0.0677526
-0.0687321
-0.0693968
-0.0694833
-0.0657154
-0.0666285
-0.0675372
-0.0680639
-0.0683684
-0.0685655
-0.0685622
-0.0686874
-0.0686209
-0.0684619
-0.0682333
-0.06793
-0.0675306
-0.0670964
-0.066649
-0.0661861
-0.0656757
-0.0650745
-0.0643575
-0.0635607
-0.0625716
-0.0614961
-0.0622622
-0.0613806
-0.0602707
-0.0590577
-0.05757
-0.0554307
-0.0520942
-0.0475361
0
0
-0.00144868
-0.00311263
-0.00533479
-0.00997767
-0.0120279
-0.0161873
-0.0205781
-0.0248923
-0.0288633
-0.0323793
-0.035488
-0.0385536
-0.0420083
-0.0454045
-0.046615
-0.0500695
-0.0534215
-0.0563729
-0.0589951
-0.0611842
-0.0631384
-0.0646059
-0.0658282
-0.0669349
-0.0680342
-0.0694118
-0.0708892
-0.0722388
-0.0731257
-0.0733267
0
-0.0695071
-0.0703818
-0.0707581
-0.0710116
-0.0712145
-0.0713567
-0.0712807
-0.0711846
-0.0709663
-0.0706826
-0.0703598
-0.0698383
-0.0693448
-0.0688687
-0.0683826
-0.0678435
-0.0671851
-0.0663875
-0.0657074
-0.0649913
-0.0643877
-0.0643549
-0.0637743
-0.0628544
-0.0616912
-0.0601485
-0.057893
-0.0544213
-0.0497101
0
0
-0.00182239
-0.00416545
-0.00706961
-0.0106537
-0.014877
-0.0195208
-0.0243327
-0.0290251
-0.0333674
-0.037301
-0.0408727
-0.0443273
-0.0478627
-0.0516399
0
-0.0550282
-0.0580204
-0.0604689
-0.0628621
-0.0647221
-0.0661988
-0.0674153
-0.0685124
-0.0696073
-0.0708391
-0.0723789
-0.0743039
-0.0761607
-0.0769996
-0.0753014
-0.0719665
-0.0721944
-0.0727566
-0.073219
-0.0735745
-0.0738539
-0.0740526
-0.0741025
-0.0739231
-0.0735702
-0.0732129
-0.0731303
-0.0722237
-0.0716732
-0.0711858
-0.0707007
-0.0701711
-0.0694873
-0.0685527
-0.0681799
-0.0677442
-0.0672368
-0.0667582
-0.0661487
-0.0653298
-0.064227
-0.0626523
-0.0603121
-0.0566922
-0.0518158
0
0
-0.00214784
-0.00507091
-0.0085504
-0.0125209
-0.0174226
-0.0225697
-0.0278313
-0.0329515
-0.0377086
-0.0419339
-0.045999
-0.0496606
-0.0530828
-0.0560291
-0.0572979
-0.0600173
-0.0624011
-0.0645009
-0.0672458
-0.0686841
-0.0696322
-0.0704768
-0.0713463
-0.0723121
-0.0735053
-0.0751858
-0.0777591
-0.0807341
-0.0837857
-0.0788753
-0.0759306
-0.0752448
-0.0754053
-0.0757747
-0.076165
-0.0765429
-0.0768413
-0.0770971
-0.0768074
-0.0761924
-0.0754242
-0.0740777
-0.0742918
-0.0739933
-0.0735642
-0.0731169
-0.0726526
-0.0720043
-0.07067
-0.0708975
-0.0706359
-0.0700473
-0.0693388
-0.0686775
-0.0678841
-0.0667997
-0.0651105
-0.0627374
-0.0589359
-0.0538371
0
0
-0.00244284
-0.00588796
-0.00997767
-0.01488
-0.019903
-0.0254444
-0.0311509
-0.0367255
-0.0419339
-0.046678
-0.0509342
-0.0547818
-0.0582144
-0.0610836
-0.063257
-0.0653083
-0.067006
-0.0684857
-0.0726428
-0.0729463
-0.0731569
-0.0736146
-0.0742214
-0.0749489
-0.0758698
-0.0772769
-0.0800251
-0.0560455
-0.102942
-0.0819981
-0.077978
-0.0774991
-0.0777812
-0.0782056
-0.0786978
-0.07932
-0.0801684
-0.0805031
-0.0799918
-0.0790015
-0.0780421
-0.0772369
-0.0768369
-0.0764381
-0.0759955
-0.0755789
-0.0752125
-0.0747874
-0.0551394
-0.0740025
-0.0736628
-0.0728867
-0.0718348
-0.0713583
-0.070604
-0.0696151
-0.0682074
-0.0653477
-0.0611867
-0.0557441
0
0
-0.00271467
-0.00659075
-0.0111676
-0.0164105
-0.0220929
-0.0281407
-0.0343236
-0.0403743
-0.0460409
-0.0511738
-0.0557312
-0.0597885
-0.063351
-0.0663386
-0.0687115
-0.0705271
-0.0717046
-0.0720808
-0.151746
-0.076752
-0.0765265
-0.0767887
-0.0771654
-0.0775387
-0.0778445
-0.0778676
-0.0766131
-0.0692932
-0.0357279
-0.0661444
-0.0749914
-0.078051
-0.0793989
-0.0802232
-0.0809664
-0.0819161
-0.0832275
-0.0844592
-0.0838598
-0.0821376
-0.0808136
-0.0799898
-0.079438
-0.0789468
-0.0784327
-0.0779954
-0.0775724
-0.0771012
-0.0764749
-0.0770584
-0.0766517
-0.075977
-0.0757894
-0.0744143
-0.0734293
-0.0725499
-0.0709191
-0.0680908
-0.0634986
-0.0574731
0
0
-0.00300117
-0.00717931
-0.0122595
-0.0179894
-0.0241949
-0.0307112
-0.0373683
-0.0439222
-0.0500696
-0.0556037
-0.0604202
-0.0646976
-0.0684574
-0.0716129
-0.0740737
-0.0758471
-0.0770763
-0.0782205
-0.0808789
-0.0807382
-0.0805061
-0.080421
-0.0803988
-0.0803206
-0.0800053
-0.0790653
-0.0766688
-0.0718739
-0.0656953
-0.0719681
-0.0766831
-0.079408
-0.0809833
-0.0820336
-0.0829507
-0.0841897
-0.0862601
-0.0893321
-0.0901672
-0.0858369
-0.083515
-0.0824814
-0.0818869
-0.0813757
-0.0807858
-0.0803841
-0.0799635
-0.079609
-0.0797042
-0.0807298
-0.0797701
-0.0788171
-0.0781712
-0.0773199
-0.0757923
-0.0758559
-0.0742671
-0.0714305
-0.0662097
-0.0589053
0
0
-0.00337676
-0.000259531
-0.0133651
-0.0195992
-0.0262884
-0.0330892
-0.0402856
-0.0474135
-0.0540869
-0.0600357
-0.0649737
-0.0694772
-0.0735046
-0.076895
-0.0794618
-0.0812138
-0.0823927
-0.0833879
-0.0843189
-0.0844753
-0.0843206
-0.0840761
-0.0837829
-0.0833834
-0.0827378
-0.0815914
-0.0796119
-0.0777836
-0.0777253
-0.0791416
-0.0807601
-0.0821206
-0.0831724
-0.0839965
-0.0846869
-0.0857032
-0.0878244
-0.093408
-0.108152
-0.0889305
-0.0850357
-0.084206
-0.0838842
-0.0835617
-0.0807858
-0.0827473
-0.082363
-0.082046
-0.0824342
-0.0850692
-0.0827717
-0.0815948
-0.0811829
-0.081314
-0.0831215
-0.0805651
-0.078609
-0.0761521
-0.0705602
-0.0598393
0
0
-0.00346931
-0.00846417
-0.0144149
-0.0212322
-0.0284766
-0.0357455
-0.0433764
-0.0510112
-0.0582137
-0.0646009
-0.0692475
-0.0740811
-0.0785065
-0.0822552
-0.0849469
-0.0866012
-0.0875785
-0.0883393
-0.0886495
-0.0885448
-0.0882222
-0.0877993
-0.0873096
-0.086735
-0.086026
-0.0851307
-0.0840582
-0.0825527
-0.0849981
-0.0846742
-0.0847683
-0.0852265
-0.0857285
-0.0861167
-0.0861656
-0.0859366
-0.0843862
-0.0769436
-0.042537
-0.0733147
-0.0816416
-0.084319
-0.0851646
-0.0853418
-0.0852037
-0.0850462
-0.0847793
-0.0844429
-0.0845369
-0.140327
-0.0851293
-0.0843455
-0.084303
-0.084495
-0.0847004
-0.084033
-0.0840545
-0.0829497
-0.0812707
-0.0792183
0
0
-0.00364901
-0.00911013
-0.0154536
-0.0230499
-0.0308414
-0.037502
-0.0460328
-0.0545058
-0.0624302
-0.0695013
-0.0728273
-0.078575
-0.0835612
-0.0878537
-0.0906378
-0.092014
-0.0926564
-0.0934539
-0.0933386
-0.0928494
-0.0922541
-0.091627
-0.0909711
-0.0902952
-0.089618
-0.0889633
-0.0881003
-0.0864821
-0.151547
-0.0886435
-0.0882256
-0.0883461
-0.0885011
-0.0883587
-0.0880111
-0.0868272
-0.0841843
-0.0789744
-0.0722005
-0.077909
-0.0828496
-0.0853299
-0.0865429
-0.0871301
-0.0873742
-0.0874381
-0.0874378
-0.0875147
-0.0880633
-0.089731
-0.0883814
-0.0877198
-0.087627
-0.0877465
-0.0878376
-0.0879493
-0.088094
-0.0874384
-0.0851512
-0.0801317
0
0
-0.00386335
-0.00971098
-0.0163011
-0.0369933
-0.0334811
0
-0.048977
-0.0581459
-0.0667648
-0.0749737
-0.0119053
-0.0835765
-0.0887133
-0.0939635
-0.0965702
-0.0973428
-0.0974532
-0.0989692
-0.0981215
-0.097167
-0.096322
-0.0955186
-0.0947113
-0.0939415
-0.0932902
-0.093015
-0.0935626
-0.0917305
-0.0930472
-0.0923343
-0.0919112
-0.0918029
-0.0917446
-0.091311
-0.0904419
-0.089025
-0.086957
-0.0845556
-0.0834015
-0.084527
-0.0862839
-0.0876389
-0.088562
-0.0892727
-0.0897235
-0.0899479
-0.090156
-0.0904193
-0.0907969
-0.0911636
-0.0909129
-0.0907657
-0.0908754
-0.091082
-0.0911946
-0.0914067
-0.0913301
-0.0903242
-0.0873594
-0.0816065
0
0
-0.00409847
-0.0103683
-0.0175425
-0.0259508
-0.0345466
-0.04244
-0.0519781
-0.0614931
-0.0704232
-0.0781046
-0.08273
-0.0885098
-0.0930534
-0.101224
-0.10214
-0.10217
-0.101659
-0.146388
-0.102487
-0.101321
-0.100387
-0.0994689
-0.0984755
-0.0975469
-0.0966666
-0.0955151
-0.0920628
-0.0944295
-0.0952228
-0.0952375
-0.0951442
-0.0952066
-0.0953425
-0.094831
-0.0935771
-0.0921631
-0.0907089
-0.0895768
-0.0892698
-0.0895451
-0.0900963
-0.0906294
-0.0909259
-0.0918115
-0.0923482
-0.0925655
-0.0928823
-0.0931925
-0.093413
-0.0934184
-0.0933303
-0.0935402
-0.0939652
-0.0943613
-0.0943644
-0.0944911
-0.09406
-0.0925621
-0.0893205
-0.0833765
0
0
-0.00433073
-0.0109962
-0.0185922
-0.0271043
-0.0361202
-0.0453463
-0.0551007
-0.0649902
-0.0744056
-0.0826902
-0.0886503
-0.0940065
-0.0981119
-0.202055
-0.106818
-0.106881
-0.10703
-0.107839
-0.106891
-0.10578
-0.104692
-0.103575
-0.10224
-0.101149
-0.100197
-0.0991701
-0.0980863
-0.0981449
-0.0981761
-0.0981204
-0.0981429
-0.0984909
-0.0993299
-0.0994684
-0.0972173
-0.0957047
-0.0944485
-0.0937234
-0.0934853
-0.0935155
-0.0936913
-0.0940343
-0.0950595
-0.0948614
-0.0952141
-0.0952832
-0.0956818
-0.0960039
-0.0961412
-0.0958977
-0.0955943
-0.096187
-0.0969321
-0.0975436
-0.0974046
-0.0974614
-0.0965574
-0.0944155
-0.0912775
-0.0853352
0
0
-0.00455893
-0.0116083
-0.019607
-0.0284813
-0.0379916
-0.0478676
-0.0579246
-0.0684766
-0.078722
-0.0889901
-0.0940134
-0.0998239
-0.105009
-0.110749
-0.112074
-0.112343
-0.11225
-0.112085
-0.111268
-0.110182
-0.109032
-0.107777
-0.105819
-0.104721
-0.10389
-0.103075
-0.102357
-0.101789
-0.101327
-0.101009
-0.100865
-0.101228
-0.103065
-0.108558
-0.100614
-0.0993889
-0.0976567
-0.0971421
-0.0969544
-0.096913
-0.0969229
-0.0969828
-0.0972938
-0.097489
-0.0976829
-0.098403
-0.0986779
-0.0989301
-0.0990351
-0.0983922
-0.097188
-0.0990853
-0.0998224
-0.100071
-0.101041
-0.100651
-0.0990289
-0.0957095
-0.0932928
-0.0874437
0
0
-0.00478932
-0.0122319
-0.0206642
-0.0300132
-0.0400652
-0.0503926
-0.0599791
-0.0717136
-0.0813303
-0.0865995
-0.0976096
-0.105006
-0.110664
-0.114859
-0.116917
-0.117416
-0.116888
-0.116826
-0.115833
-0.11463
-0.113434
-0.112179
-0.108889
-0.108298
-0.107718
-0.106938
-0.106114
-0.105032
-0.104461
-0.103772
-0.103024
-0.102101
-0.0990436
-0.0838236
-0.0956995
-0.0966714
-0.0991962
-0.0997592
-0.0999084
-0.0999458
-0.099866
-0.0996128
-0.0998181
-0.100212
-0.100621
-0.101112
-0.101475
-0.101816
-0.102097
-0.101232
-0.0982243
-0.102282
-0.103052
-0.103381
-0.103847
-0.10364
-0.101662
-0.09603
-0.0956126
-0.0896613
0
0
-0.0050251
-0.0128777
-0.0217819
-0.0316895
-0.0424598
-0.0539699
-0.0672507
-0.0762742
-0.0857143
-0.0943743
-0.103204
-0.11051
-0.116136
-0.120031
-0.122243
-0.123205
-0.124202
-0.122143
-0.120549
-0.119086
-0.117832
-0.116905
-0.0623252
-0.112348
-0.111711
-0.110706
-0.109698
-0.101789
-0.107506
-0.106479
-0.104912
-0.103957
-0.101456
-0.0980166
-0.0996517
-0.100711
-0.101763
-0.102347
-0.102665
-0.102827
-0.102693
-0.101905
-0.102344
-0.102971
-0.103479
-0.103883
-0.104213
-0.104511
-0.104788
-0.105103
-0.0340414
-0.121596
-0.106144
-0.106338
-0.106629
-0.10663
-0.105115
-0.0240201
-0.0988094
-0.0918939
0
0
-0.00526319
-0.0135358
-0.0229341
-0.0334254
-0.0448609
-0.057006
-0.0693755
-0.0796959
-0.0901837
-0.100093
-0.108948
-0.116252
-0.121827
-0.125624
-0.127801
-0.128631
-0.128309
-0.126813
-0.125073
-0.123362
-0.121757
-0.119978
-0.117288
-0.116244
-0.115295
-0.114028
-0.11279
-0.111533
-0.110615
-0.109808
-0.109862
-0.107438
-0.105597
-0.104422
-0.104289
-0.104527
-0.104881
-0.105211
-0.10551
-0.105764
-0.105638
-0.103683
-0.104941
-0.10583
-0.106327
-0.106654
-0.106914
-0.107129
-0.10724
-0.106962
-0.105393
-0.107852
-0.108579
-0.108916
-0.109044
-0.10869
-0.107011
-0.102811
-0.100513
-0.0940047
0
0
-0.00549414
-0.0141809
-0.0240878
-0.0351918
-0.0472945
-0.060109
-0.0730679
-0.0826169
-0.0945526
-0.105473
-0.114715
-0.122153
-0.127707
-0.131403
-0.133463
-0.134071
-0.133101
-0.131337
-0.129379
-0.127476
-0.125759
-0.124001
-0.121852
-0.120377
-0.119045
-0.117225
-0.115846
-0.114699
-0.113713
-0.112811
-0.11193
-0.110589
-0.109379
-0.108575
-0.108145
-0.107994
-0.108014
-0.108146
-0.108374
-0.108706
-0.108907
-0.065701
-0.108023
-0.108785
-0.109124
-0.109362
-0.109568
-0.109736
-0.109824
-0.109779
-0.109743
-0.110464
-0.111047
-0.111402
-0.111488
-0.111117
-0.109807
-0.107416
-0.103241
-0.0961867
0
0
-0.00569873
-0.0147653
-0.0252049
-0.0369933
-0.0498002
-0.0634166
-0.0777661
-0.0186806
-0.0996561
-0.111178
-0.120667
-0.128167
-0.133693
-0.137233
-0.139159
-0.139719
-0.137945
-0.135709
-0.133523
-0.13148
-0.129878
-0.127911
-0.125857
-0.124033
-0.122522
-0.120185
-0.118916
-0.117825
-0.116776
-0.115755
-0.114714
-0.113644
-0.112682
-0.111937
-0.111415
-0.111105
-0.110969
-0.11097
-0.111065
-0.111159
-0.110958
-0.10982
-0.110651
-0.111282
-0.111677
-0.111952
-0.112176
-0.112364
-0.112518
-0.112677
-0.112936
-0.113316
-0.113722
-0.114038
-0.114168
-0.11403
-0.113596
-0.110916
-0.106062
-0.0984831
0
0
-0.00583897
-0.0151901
-0.0262712
-0.0388708
-0.0523178
-0.0663403
-0.0802471
-0.0919233
-0.104982
-0.116672
-0.126449
-0.13416
-0.139709
-0.143078
-0.144503
-0.145631
-0.1424
-0.13989
-0.137635
-0.13546
-0.134285
-0.131876
-0.129482
-0.127167
-0.124528
-0.123818
-0.122411
-0.121052
-0.119822
-0.118681
-0.117596
-0.116579
-0.115665
-0.114893
-0.114305
-0.113919
-0.113713
-0.113648
-0.113672
-0.113695
-0.113596
-0.113383
-0.113597
-0.113939
-0.114263
-0.114529
-0.11477
-0.114991
-0.115196
-0.115446
-0.115768
-0.116123
-0.116492
-0.11681
-0.116954
-0.116808
-0.116088
-0.113803
-0.108745
-0.100861
0
0
-0.00585903
-0.0152067
-0.0276018
-0.0408475
-0.0549898
-0.0695994
-0.0840787
-0.0977638
-0.110884
-0.122652
-0.13257
-0.140367
-0.145937
-0.149431
-0.152163
-0.1518
-0.146388
-0.144401
-0.142277
-0.139592
-0.162044
-0.135568
-0.132968
-0.130543
-0.127912
-0.126437
-0.125126
-0.123851
-0.122624
-0.121459
-0.120362
-0.119341
-0.1184
-0.117549
-0.116896
-0.116476
-0.116256
-0.116187
-0.116226
-0.116304
-0.116338
-0.116292
-0.116398
-0.116652
-0.116924
-0.117139
-0.117374
-0.117606
-0.117806
-0.118094
-0.118472
-0.118876
-0.119288
-0.119653
-0.119767
-0.11952
-0.118741
-0.11654
-0.111393
-0.103282
0
0
-0.00589117
-0.0137543
-0.0291142
-0.0434493
-0.0582466
-0.0734833
-0.0887131
-0.103338
-0.116887
-0.128905
-0.138972
-0.14679
-0.1522
-0.155162
-0.155379
-0.151612
-0.153933
-0.151339
-0.147924
-0.144704
-0.142219
-0.139192
-0.136458
-0.133982
-0.130564
-0.129113
-0.127839
-0.126548
-0.125289
-0.124093
-0.122975
-0.121931
-0.120923
-0.119914
-0.119196
-0.118791
-0.118609
-0.118579
-0.118686
-0.118873
-0.119014
-0.118884
-0.119014
-0.119366
-0.119665
-0.119786
-0.120007
-0.120232
-0.120336