# vtk DataFile Version 2.0
FlowField
ASCII
DATASET STRUCTURED_GRID
DIMENSIONS 62 47 32 
POINTS 93248 double
0 0 0
0.01 0 0
0.02 0 0
0.03 0 0
0.04 0 0
0.05 0 0
0.06 0 0
0.07 0 0
0.08 0 0
0.09 0 0
0.1 0 0
0.11 0 0
0.12 0 0
0.13 0 0
0.14 0 0
0.15 0 0
0.16 0 0
0.17 0 0
0.18 0 0
0.19 0 0
0.2 0 0
0.21 0 0
0.22 0 0
0.23 0 0
0.24 0 0
0.25 0 0
0.26 0 0
0.27 0 0
0.28 0 0
0.29 0 0
0.3 0 0
0.31 0 0
0.32 0 0
0.33 0 0
0.34 0 0
0.35 0 0
0.36 0 0
0.37 0 0
0.38 0 0
0.39 0 0
0.4 0 0
0.41 0 0
0.42 0 0
0.43 0 0
0.44 0 0
0.45 0 0
0.46 0 0
0.47 0 0
0.48 0 0
0.49 0 0
0.5 0 0
0.51 0 0
0.52 0 0
0.53 0 0
0.54 0 0
0.55 0 0
0.56 0 0
0.57 0 0
0.58 0 0
0.59 0 0
0.6 0 0
0.61 0 0
0 0.01 0
0.01 0.01 0
0.02 0.01 0
0.03 0.01 0
0.04 0.01 0
0.05 0.01 0
0.06 0.01 0
0.07 0.01 0
0.08 0.01 0
0.09 0.01 0
0.1 0.01 0
0.11 0.01 0
0.12 0.01 0
0.13 0.01 0
0.14 0.01 0
0.15 0.01 0
0.16 0.01 0
0.17 0.01 0
0.18 0.01 0
0.19 0.01 0
0.2 0.01 0
0.21 0.01 0
0.22 0.01 0
0.23 0.01 0
0.24 0.01 0
0.25 0.01 0
0.26 0.01 0
0.27 0.01 0
0.28 0.01 0
0.29 0.01 0
0.3 0.01 0
0.31 0.01 0
0.32 0.01 0
0.33 0.01 0
0.34 0.01 0
0.35 0.01 0
0.36 0.01 0
0.37 0.01 0
0.38 0.01 0
0.39 0.01 0
0.4 0.01 0
0.41 0.01 0
0.42 0.01 0
0.43 0.01 0
0.44 0.01 0
0.45 0.01 0
0.46 0.01 0
0.47 0.01 0
0.48 0.01 0
0.49 0.01 0
0.5 0.01 0
0.51 0.01 0
0.52 0.01 0
0.53 0.01 0
0.54 0.01 0
0.55 0.01 0
0.56 0.01 0
0.57 0.01 0
0.58 0.01 0
0.59 0.01 0
0.6 0.01 0
0.61 0.01 0
0 0.02 0
0.01 0.02 0
0.02 0.02 0
0.03 0.02 0
0.04 0.02 0
0.05 0.02 0
0.06 0.02 0
0.07 0.02 0
0.08 0.02 0
0.09 0.02 0
0.1 0.02 0
0.11 0.02 0
0.12 0.02 0
0.13 0.02 0
0.14 0.02 0
0.15 0.02 0
0.16 0.02 0
0.17 0.02 0
0.18 0.02 0
0.19 0.02 0
0.2 0.02 0
0.21 0.02 0
0.22 0.02 0
0.23 0.02 0
0.24 0.02 0
0.25 0.02 0
0.26 0.02 0
0.27 0.02 0
0.28 0.02 0
0.29 0.02 0
0.3 0.02 0
0.31 0.02 0
0.32 0.02 0
0.33 0.02 0
0.34 0.02 0
0.35 0.02 0
0.36 0.02 0
0.37 0.02 0
0.38 0.02 0
0.39 0.02 0
0.4 0.02 0
0.41 0.02 0
0.42 0.02 0
0.43 0.02 0
0.44 0.02 0
0.45 0.02 0
0.46 0.02 0
0.47 0.02 0
0.48 0.02 0
0.49 0.02 0
0.5 0.02 0
0.51 0.02 0
0.52 0.02 0
0.53 0.02 0
0.54 0.02 0
0.55 0.02 0
0.56 0.02 0
0.57 0.02 0
0.58 0.02 0
0.59 0.02 0
0.6 0.02 0
0.61 0.02 0
0 0.03 0
0.01 0.03 0
0.02 0.03 0
0.03 0.03 0
0.04 0.03 0
0.05 0.03 0
0.06 0.03 0
0.07 0.03 0
0.08 0.03 0
0.09 0.03 0
0.1 0.03 0
0.11 0.03 0
0.12 0.03 0
0.13 0.03 0
0.14 0.03 0
0.15 0.03 0
0.16 0.03 0
0.17 0.03 0
0.18 0.03 0
0.19 0.03 0
0.2 0.03 0
0.21 0.03 0
0.22 0.03 0
0.23 0.03 0
0.24 0.03 0
0.25 0.03 0
0.26 0.03 0
0.27 0.03 0
0.28 0.03 0
0.29 0.03 0
0.3 0.03 0
0.31 0.03 0
0.32 0.03 0
0.33 0.03 0
0.34 0.03 0
0.35 0.03 0
0.36 0.03 0
0.37 0.03 0
0.38 0.03 0
0.39 0.03 0
0.4 0.03 0
0.41 0.03 0
0.42 0.03 0
0.43 0.03 0
0.44 0.03 0
0.45 0.03 0
0.46 0.03 0
0.47 0.03 0
0.48 0.03 0
0.49 0.03 0
0.5 0.03 0
0.51 0.03 0
0.52 0.03 0
0.53 0.03 0
0.54 0.03 0
0.55 0.03 0
0.56 0.03 0
0.57 0.03 0
0.58 0.03 0
0.59 0.03 0
0.6 0.03 0
0.61 0.03 0
0 0.04 0
0.01 0.04 0
0.02 0.04 0
0.03 0.04 0
0.04 0.04 0
0.05 0.04 0
0.06 0.04 0
0.07 0.04 0
0.08 0.04 0
0.09 0.04 0
0.1 0.04 0
0.11 0.04 0
0.12 0.04 0
0.13 0.04 0
0.14 0.04 0
0.15 0.04 0
0.16 0.04 0
0.17 0.04 0
0.18 0.04 0
0.19 0.04 0
0.2 0.04 0
0.21 0.04 0
0.22 0.04 0
0.23 0.04 0
0.24 0.04 0
0.25 0.04 0
0.26 0.04 0
0.27 0.04 0
0.28 0.04 0
0.29 0.04 0
0.3 0.04 0
0.31 0.04 0
0.32 0.04 0
0.33 0.04 0
0.34 0.04 0
0.35 0.04 0
0.36 0.04 0
0.37 0.04 0
0.38 0.04 0
0.39 0.04 0
0.4 0.04 0
0.41 0.04 0
0.42 0.04 0
0.43 0.04 0
0.44 0.04 0
0.45 0.04 0
0.46 0.04 0
0.47 0.04 0
0.48 0.04 0
0.49 0.04 0
0.5 0.04 0
0.51 0.04 0
0.52 0.04 0
0.53 0.04 0
0.54 0.04 0
0.55 0.04 0
0.56 0.04 0
0.57 0.04 0
0.58 0.04 0
0.59 0.04 0
0.6 0.04 0
0.61 0.04 0
0 0.05 0
0.01 0.05 0
0.02 0.05 0
0.03 0.05 0
0.04 0.05 0
0.05 0.05 0
0.06 0.05 0
0.07 0.05 0
0.08 0.05 0
0.09 0.05 0
0.1 0.05 0
0.11 0.05 0
0.12 0.05 0
0.13 0.05 0
0.14 0.05 0
0.15 0.05 0
0.16 0.05 0
0.17 0.05 0
0.18 0.05 0
0.19 0.05 0
0.2 0.05 0
0.21 0.05 0
0.22 0.05 0
0.23 0.05 0
0.24 0.05 0
0.25 0.05 0
0.26 0.05 0
0.27 0.05 0
0.28 0.05 0
0.29 0.05 0
0.3 0.05 0
0.31 0.05 0
0.32 0.05 0
0.33 0.05 0
0.34 0.05 0
0.35 0.05 0
0.36 0.05 0
0.37 0.05 0
0.38 0.05 0
0.39 0.05 0
0.4 0.05 0
0.41 0.05 0
0.42 0.05 0
0.43 0.05 0
0.44 0.05 0
0.45 0.05 0
0.46 0.05 0
0.47 0.05 0
0.48 0.05 0
0.49 0.05 0
0.5 0.05 0
0.51 0.05 0
0.52 0.05 0
0.53 0.05 0
0.54 0.05 0
0.55 0.05 0
0.56 0.05 0
0.57 0.05 0
0.58 0.05 0
0.59 0.05 0
0.6 0.05 0
0.61 0.05 0
0 0.06 0
0.01 0.06 0
0.02 0.06 0
0.03 0.06 0
0.04 0.06 0
0.05 0.06 0
0.06 0.06 0
0.07 0.06 0
0.08 0.06 0
0.09 0.06 0
0.1 0.06 0
0.11 0.06 0
0.12 0.06 0
0.13 0.06 0
0.14 0.06 0
0.15 0.06 0
0.16 0.06 0
0.17 0.06 0
0.18 0.06 0
0.19 0.06 0
0.2 0.06 0
0.21 0.06 0
0.22 0.06 0
0.23 0.06 0
0.24 0.06 0
0.25 0.06 0
0.26 0.06 0
0.27 0.06 0
0.28 0.06 0
0.29 0.06 0
0.3 0.06 0
0.31 0.06 0
0.32 0.06 0
0.33 0.06 0
0.34 0.06 0
0.35 0.06 0
0.36 0.06 0
0.37 0.06 0
0.38 0.06 0
0.39 0.06 0
0.4 0.06 0
0.41 0.06 0
0.42 0.06 0
0.43 0.06 0
0.44 0.06 0
0.45 0.06 0
0.46 0.06 0
0.47 0.06 0
0.48 0.06 0
0.49 0.06 0
0.5 0.06 0
0.51 0.06 0
0.52 0.06 0
0.53 0.06 0
0.54 0.06 0
0.55 0.06 0
0.56 0.06 0
0.57 0.06 0
0.58 0.06 0
0.59 0.06 0
0.6 0.06 0
0.61 0.06 0
0 0.07 0
0.01 0.07 0
0.02 0.07 0
0.03 0.07 0
0.04 0.07 0
0.05 0.07 0
0.06 0.07 0
0.07 0.07 0
0.08 0.07 0
0.09 0.07 0
0.1 0.07 0
0.11 0.07 0
0.12 0.07 0
0.13 0.07 0
0.14 0.07 0
0.15 0.07 0
0.16 0.07 0
0.17 0.07 0
0.18 0.07 0
0.19 0.07 0
0.2 0.07 0
0.21 0.07 0
0.22 0.07 0
0.23 0.07 0
0.24 0.07 0
0.25 0.07 0
0.26 0.07 0
0.27 0.07 0
0.28 0.07 0
0.29 0.07 0
0.3 0.07 0
0.31 0.07 0
0.32 0.07 0
0.33 0.07 0
0.34 0.07 0
0.35 0.07 0
0.36 0.07 0
0.37 0.07 0
0.38 0.07 0
0.39 0.07 0
0.4 0.07 0
0.41 0.07 0
0.42 0.07 0
0.43 0.07 0
0.44 0.07 0
0.45 0.07 0
0.46 0.07 0
0.47 0.07 0
0.48 0.07 0
0.49 0.07 0
0.5 0.07 0
0.51 0.07 0
0.52 0.07 0
0.53 0.07 0
0.54 0.07 0
0.55 0.07 0
0.56 0.07 0
0.57 0.07 0
0.58 0.07 0
0.59 0.07 0
0.6 0.07 0
0.61 0.07 0
0 0.08 0
0.01 0.08 0
0.02 0.08 0
0.03 0.08 0
0.04 0.08 0
0.05 0.08 0
0.06 0.08 0
0.07 0.08 0
0.08 0.08 0
0.09 0.08 0
0.1 0.08 0
0.11 0.08 0
0.12 0.08 0
0.13 0.08 0
0.14 0.08 0
0.15 0.08 0
0.16 0.08 0
0.17 0.08 0
0.18 0.08 0
0.19 0.08 0
0.2 0.08 0
0.21 0.08 0
0.22 0.08 0
0.23 0.08 0
0.24 0.08 0
0.25 0.08 0
0.26 0.08 0
0.27 0.08 0
0.28 0.08 0
0.29 0.08 0
0.3 0.08 0
0.31 0.08 0
0.32 0.08 0
0.33 0.08 0
0.34 0.08 0
0.35 0.08 0
0.36 0.08 0
0.37 0.08 0
0.38 0.08 0
0.39 0.08 0
0.4 0.08 0
0.41 0.08 0
0.42 0.08 0
0.43 0.08 0
0.44 0.08 0
0.45 0.08 0
0.46 0.08 0
0.47 0.08 0
0.48 0.08 0
0.49 0.08 0
0.5 0.08 0
0.51 0.08 0
0.52 0.08 0
0.53 0.08 0
0.54 0.08 0
0.55 0.08 0
0.56 0.08 0
0.57 0.08 0
0.58 0.08 0
0.59 0.08 0
0.6 0.08 0
0.61 0.08 0
0 0.09 0
0.01 0.09 0
0.02 0.09 0
0.03 0.09 0
0.04 0.09 0
0.05 0.09 0
0.06 0.09 0
0.07 0.09 0
0.08 0.09 0
0.09 0.09 0
0.1 0.09 0
0.11 0.09 0
0.12 0.09 0
0.13 0.09 0
0.14 0.09 0
0.15 0.09 0
0.16 0.09 0
0.17 0.09 0
0.18 0.09 0
0.19 0.09 0
0.2 0.09 0
0.21 0.09 0
0.22 0.09 0
0.23 0.09 0
0.24 0.09 0
0.25 0.09 0
0.26 0.09 0
0.27 0.09 0
0.28 0.09 0
0.29 0.09 0
0.3 0.09 0
0.31 0.09 0
0.32 0.09 0
0.33 0.09 0
0.34 0.09 0
0.35 0.09 0
0.36 0.09 0
0.37 0.09 0
0.38 0.09 0
0.39 0.09 0
0.4 0.09 0
0.41 0.09 0
0.42 0.09 0
0.43 0.09 0
0.44 0.09 0
0.45 0.09 0
0.46 0.09 0
0.47 0.09 0
0.48 0.09 0
0.49 0.09 0
0.5 0.09 0
0.51 0.09 0
0.52 0.09 0
0.53 0.09 0
0.54 0.09 0
0.55 0.09 0
0.56 0.09 0
0.57 0.09 0
0.58 0.09 0
0.59 0.09 0
0.6 0.09 0
0.61 0.09 0
0 0.1 0
0.01 0.1 0
0.02 0.1 0
0.03 0.1 0
0.04 0.1 0
0.05 0.1 0
0.06 0.1 0
0.07 0.1 0
0.08 0.1 0
0.09 0.1 0
0.1 0.1 0
0.11 0.1 0
0.12 0.1 0
0.13 0.1 0
0.14 0.1 0
0.15 0.1 0
0.16 0.1 0
0.17 0.1 0
0.18 0.1 0
0.19 0.1 0
0.2 0.1 0
0.21 0.1 0
0.22 0.1 0
0.23 0.1 0
0.24 0.1 0
0.25 0.1 0
0.26 0.1 0
0.27 0.1 0
0.28 0.1 0
0.29 0.1 0
0.3 0.1 0
0.31 0.1 0
0.32 0.1 0
0.33 0.1 0
0.34 0.1 0
0.35 0.1 0
0.36 0.1 0
0.37 0.1 0
0.38 0.1 0
0.39 0.1 0
0.4 0.1 0
0.41 0.1 0
0.42 0.1 0
0.43 0.1 0
0.44 0.1 0
0.45 0.1 0
0.46 0.1 0
0.47 0.1 0
0.48 0.1 0
0.49 0.1 0
0.5 0.1 0
0.51 0.1 0
0.52 0.1 0
0.53 0.1 0
0.54 0.1 0
0.55 0.1 0
0.56 0.1 0
0.57 0.1 0
0.58 0.1 0
0.59 0.1 0
0.6 0.1 0
0.61 0.1 0
0 0.11 0
0.01 0.11 0
0.02 0.11 0
0.03 0.11 0
0.04 0.11 0
0.05 0.11 0
0.06 0.11 0
0.07 0.11 0
0.08 0.11 0
0.09 0.11 0
0.1 0.11 0
0.11 0.11 0
0.12 0.11 0
0.13 0.11 0
0.14 0.11 0
0.15 0.11 0
0.16 0.11 0
0.17 0.11 0
0.18 0.11 0
0.19 0.11 0
0.2 0.11 0
0.21 0.11 0
0.22 0.11 0
0.23 0.11 0
0.24 0.11 0
0.25 0.11 0
0.26 0.11 0
0.27 0.11 0
0.28 0.11 0
0.29 0.11 0
0.3 0.11 0
0.31 0.11 0
0.32 0.11 0
0.33 0.11 0
0.34 0.11 0
0.35 0.11 0
0.36 0.11 0
0.37 0.11 0
0.38 0.11 0
0.39 0.11 0
0.4 0.11 0
0.41 0.11 0
0.42 0.11 0
0.43 0.11 0
0.44 0.11 0
0.45 0.11 0
0.46 0.11 0
0.47 0.11 0
0.48 0.11 0
0.49 0.11 0
0.5 0.11 0
0.51 0.11 0
0.52 0.11 0
0.53 0.11 0
0.54 0.11 0
0.55 0.11 0
0.56 0.11 0
0.57 0.11 0
0.58 0.11 0
0.59 0.11 0
0.6 0.11 0
0.61 0.11 0
0 0.12 0
0.01 0.12 0
0.02 0.12 0
0.03 0.12 0
0.04 0.12 0
0.05 0.12 0
0.06 0.12 0
0.07 0.12 0
0.08 0.12 0
0.09 0.12 0
0.1 0.12 0
0.11 0.12 0
0.12 0.12 0
0.13 0.12 0
0.14 0.12 0
0.15 0.12 0
0.16 0.12 0
0.17 0.12 0
0.18 0.12 0
0.19 0.12 0
0.2 0.12 0
0.21 0.12 0
0.22 0.12 0
0.23 0.12 0
0.24 0.12 0
0.25 0.12 0
0.26 0.12 0
0.27 0.12 0
0.28 0.12 0
0.29 0.12 0
0.3 0.12 0
0.31 0.12 0
0.32 0.12 0
0.33 0.12 0
0.34 0.12 0
0.35 0.12 0
0.36 0.12 0
0.37 0.12 0
0.38 0.12 0
0.39 0.12 0
0.4 0.12 0
0.41 0.12 0
0.42 0.12 0
0.43 0.12 0
0.44 0.12 0
0.45 0.12 0
0.46 0.12 0
0.47 0.12 0
0.48 0.12 0
0.49 0.12 0
0.5 0.12 0
0.51 0.12 0
0.52 0.12 0
0.53 0.12 0
0.54 0.12 0
0.55 0.12 0
0.56 0.12 0
0.57 0.12 0
0.58 0.12 0
0.59 0.12 0
0.6 0.12 0
0.61 0.12 0
0 0.13 0
0.01 0.13 0
0.02 0.13 0
0.03 0.13 0
0.04 0.13 0
0.05 0.13 0
0.06 0.13 0
0.07 0.13 0
0.08 0.13 0
0.09 0.13 0
0.1 0.13 0
0.11 0.13 0
0.12 0.13 0
0.13 0.13 0
0.14 0.13 0
0.15 0.13 0
0.16 0.13 0
0.17 0.13 0
0.18 0.13 0
0.19 0.13 0
0.2 0.13 0
0.21 0.13 0
0.22 0.13 0
0.23 0.13 0
0.24 0.13 0
0.25 0.13 0
0.26 0.13 0
0.27 0.13 0
0.28 0.13 0
0.29 0.13 0
0.3 0.13 0
0.31 0.13 0
0.32 0.13 0
0.33 0.13 0
0.34 0.13 0
0.35 0.13 0
0.36 0.13 0
0.37 0.13 0
0.38 0.13 0
0.39 0.13 0
0.4 0.13 0
0.41 0.13 0
0.42 0.13 0
0.43 0.13 0
0.44 0.13 0
0.45 0.13 0
0.46 0.13 0
0.47 0.13 0
0.48 0.13 0
[...]
POINT_DATA 93248

SCALARS u double
LOOKUP_TABLE default
0
0
0
0
0
0
0
0
0
0
0
0
0
0
0
0
0
0
0
0
0
0
0
0
0.274513
0
0
0
0
0
0
0
0.0125386
0.209324
0
0
0
0
0
0
0
0
0
0
0
0
0
0.0499609
0
0
0.0552124
0
0
0
0
0
0
0
0
0
0
0
0
0.408305
0.323486
0.242088
0.174854
0.125146
0.0882457
0.0619999
0.0436528
0.030338
0.0203529
0.0136677
0.0131221
0.0124355
0.0122884
0.012751
0.0137422
0.0139747
0.0135605
0.0117659
0.0191576
0.0204288
0.0158666
0.0155801
0.0155801
0.0154125
0.0151263
0.0147574
0.0142864
0.0136401
0.012725
0.0118207
0.0129744
0.0120585
0.0102304
0.00892043
0.0102493
0.00764703
0.00406931
0.147934
-0.000456369
0.00399027
0.00578956
0.00913029
0.0179508
-0.0204078
-0.00432192
-0.00306297
-0.0025363
-0.003674
-0.00479786
0.00335972
-0.00434921
0.0049061
-0.0323959
-0.0250828
-0.0191141
-0.020305
-0.0254139
-0.0341486
-0.0341486
0
0
0.482771
0.459152
0.426157
0.384552
0.344453
0.29864
0.254715
0.215866
0.184093
0.159136
0.140226
0.131843
0.123797
0.118693
0.115655
0.114277
0.112408
0.112624
0.310914
0.116208
0.115035
0.0985318
0.098883
0.0970014
0.0945846
0.0919549
0.0891762
0.086249
0.0831351
0.07972
0.0758575
0.0751574
0.0712372
0.0674117
0.0646967
0.0588871
0.0542473
-0.00294188
0.0487205
0.0450969
0.0413891
0.0404004
0.0404297
0.0383288
0.0194781
0.0123186
0.0120305
0.00978735
0.00752856
0.0063355
-0.00231454
-0.00323189
-0.00747217
-0.0287341
-0.0335801
-0.0407083
-0.0431661
-0.0522425
-0.0626078
-0.0626078
0
0
0.476792
0.469264
0.461337
0.441625
0.436317
0.404527
0.374082
0.344683
0.31718
0.323057
0.273479
0.251129
0.237215
0.22697
0.220006
0.214781
0.208348
0.204527
0.19993
0.192653
0.190425
0.182602
0.178201
0.173966
0.169461
0.164698
0.159735
0.154629
0.149481
0.144558
0.140274
0.132865
0.126673
0.200972
0.117827
0.110352
0.10487
0.10147
0.096168
0.0895994
0.0828857
0.121063
0.0716854
0.0643683
0.115693
0.0411182
0.033708
0.00978735
0.0230762
0.0181187
0.0101728
0.00335972
-0.00598154
-0.0197962
-0.0296769
-0.0391133
-0.0518289
-0.0609664
-0.0705666
-0.0705666
0
0
0.469692
0.45705
0.458888
0.44937
0.4433
0.430396
0.414921
0.398257
0.381241
0.364147
0.348014
0.330677
0.315627
0.302733
0.293082
0.282915
0.276909
0.269709
0.309111
0.253586
0.246255
0.238939
0.232488
0.226365
0.220229
0.213943
0.207495
0.200923
0.19429
0.187653
0.180815
0.172621
0.165037
0.157477
0.151249
0.144553
0.138265
0.132848
0.125713
0.117762
0.109085
0.0998902
0.0914843
0.0819969
0.0707573
0.0595339
0.0509536
0.0435799
0.0359179
0.0280182
0.019177
0.00983816
-0.000733006
-0.0124233
-0.0237288
-0.0350205
-0.0472468
-0.0580442
-0.0687553
-0.0687553
0
0
0.467225
0.452464
0.444675
0.437261
0.431315
0.42387
0.415459
0.406279
0.396287
0.385594
0.374452
0.362594
0.350612
0.338199
0.333209
0.321453
0.312475
0.303786
0.294222
0.285445
0.277248
0.269468
0.262073
0.254902
0.247791
0.240596
0.233299
0.225902
0.218391
0.210681
0.202503
0.193635
0.186507
0.178333
0.170561
0.163037
0.155722
0.148452
0.140377
0.131643
0.122275
0.112374
0.102496
0.0923763
0.0825029
0.0813395
0.0613763
0.0525664
0.0435042
0.0341944
0.0245174
0.0144142
0.00380854
-0.00710646
-0.0180632
-0.0288195
-0.03916
-0.0487029
-0.0594912
-0.0594912
0
0
0.466118
0.448564
0.435714
0.425498
0.417253
0.40947
0.402555
0.395831
0.388587
0.381042
0.373312
0.365484
0.357199
0.348604
0.342017
0.334364
0.325395
0.317785
0.308147
0.299305
0.291016
0.283069
0.275343
0.267749
0.260221
0.252584
0.244895
0.237142
0.229266
0.221153
0.212551
0.20298
0.196918
0.188046
0.179393
0.17116
0.16307
0.154839
0.146192
0.137084
0.127518
0.117512
0.107165
0.0962733
0.0848443
0.0777274
0.0675646
0.0574664
0.0475168
0.0375716
0.0275487
0.0173898
0.00707807
-0.00320224
-0.0132582
-0.0227346
-0.0307755
-0.0348574
-0.032061
-0.032061
0
0
0.465512
0.446155
0.430373
0.417391
0.406849
0.450995
0.390456
0.382043
0.374609
0.367813
0.361729
0.356757
0.351059
0.345048
0.339027
0.333382
0.326366
0.318898
0.310914
0.303038
0.295375
0.287738
0.280083
0.272427
0.264804
0.257008
0.249258
0.241478
0.233604
0.225611
0.217727
0.210614
0.198712
0.190173
0.182034
0.173815
0.165451
0.156847
0.147934
0.13869
0.129131
0.122277
0.108987
0.098448
0.0881109
0.0793383
0.0696704
0.059621
0.0495041
0.039408
0.0293765
0.0194347
0.00946761
-0.000244207
-0.00958513
-0.0186716
-0.0283372
-0.0402863
-0.0166424
-0.0166424
0
0
0.465136
0.444637
0.427056
0.411958
0.398916
0.387146
0.377548
0.368837
0.361043
0.354165
0.348482
0.346816
0.342075
0.337063
0.330455
0.114277
0.320862
0.314999
0.309111
0.302484
0.295794
0.288603
0.281133
0.273472
0.247791
0.258006
0.250543
0.242955
0.235246
0.227348
0.219265
0.210981
0.200989
0.191854
0.183217
0.174685
0.166079
0.157288
0.148256
0.138969
0.129425
0.119616
0.109659
0.0996006
0.0896985
0.0801765
0.0704861
0.0605701
0.0505354
0.0404914
0.0305673
0.0209793
0.0112728
0.00199185
-0.00680791
-0.0151772
-0.0235034
-0.0343597
-0.0322121
-0.0322121
0
0
0.464888
0.443641
0.424888
0.40835
0.393705
0.3806
0.369307
0.35944
0.350811
0.34306
0.334493
0.342404
0.33505
0.33048
0.326442
0.324286
0.320557
0.314715
0.30837
0.301586
0.295337
0.288207
0.280827
0.273365
0.26627
0.258622
0.251031
0.243523
0.23602
0.228241
0.219688
0.210859
0.201701
0.192695
0.183881
0.175117
0.166321
0.157401
0.1483
0.139004
0.129517
0.119859
0.110093
0.100279
0.0905081
0.0807938
0.0710358
0.0611754
0.0512211
0.0412213
0.0312138
0.0222121
0.0126031
0.0036433
-0.00494702
-0.0133533
-0.021966
-0.0313494
-0.0389841
-0.0389841
0
0
0.464721
0.442968
0.423424
0.405928
0.390248
0.376234
0.363899
0.35317
0.344002
0.336351
0.330414
0.330541
0.327708
0.324907
0.322061
0.319868
0.31653
0.311864
0.306462
0.300789
0.293637
0.286808
0.279747
0.272317
0.265988
0.258321
0.250891
0.243646
0.236598
0.250009
0.219908
0.210751
0.201899
0.193108
0.184337
0.179622
0.166616
0.157591
0.148431
0.139128
0.129692
0.120143
0.110493
0.10079
0.0910713
0.0813395
0.0715794
0.0617646
0.0518812
0.0419644
0.0319415
-0.000685631
0.0135018
0.00497454
-0.00358933
-0.0121619
-0.0209693
-0.0303366
-0.0403646
-0.0403646
0
0
0.464607
0.442509
0.422412
0.404275
0.38789
0.373205
0.360229
0.348986
0.339553
0.332063
0.326782
0.324107
0.321977
0.320286
0.317499
0.315086
0.312123
0.308259
0.303628
0.297441
0.292087
0.285537
0.278673
0.27157
0.264699
0.257451
0.250287
0.243318
0.236393
0.229416
0.218805
0.210575
0.202192
0.193529
0.184718
0.175831
0.172615
0.157909
0.148696
0.139381
0.129975
0.120521
0.110929
0.101271
0.0915864
0.0818872
0.0721795
0.0624477
0.0526827
0.0431077
0.03389
0.0251989
0.0156974
0.00654559
-0.00233465
-0.0111229
-0.0200877
-0.0295837
-0.0400198
-0.0400198
0
0
0.464531
0.442212
0.421809
0.403099
0.386209
0.371073
0.357689
0.346133
0.336527
0.329012
0.323635
0.320144
0.317897
0.316783
0.31324
0.311159
0.308538
0.305049
0.300956
0.296141
0.290483
0.284225
0.277528
0.270527
0.26339
0.256169
0.249181
0.242502
0.235516
0.226395
0.221111
0.212434
0.203345
0.194273
0.185227
0.176185
0.167129
0.158147
0.149018
0.139705
0.130277
0.121063
0.111452
0.101787
0.0921176
0.0824617
0.0728378
0.0632216
0.0535081
0.0441618
0.0351551
0.0262964
0.0170572
0.00785954
-0.00115639
-0.0100827
-0.0191663
-0.0287421
-0.0392575
-0.0392575
0
0
0.46448
0.442006
0.421339
0.402248
0.385039
0.369587
0.355922
0.344147
0.334388
0.326746
0.321149
0.317236
0.314338
0.311277
0.311367
0.309206
0.30619
0.302508
0.298816
0.294324
0.288943
0.282861
0.276241
0.269195
0.261825
0.254326
0.247233
0.241016
0.236652
0.228882
0.221415
0.212933
0.203968
0.194837
0.185677
0.17656
0.167472
0.158558
0.149476
0.140075
0.13019
0.122183
0.112122
0.10236
0.0926742
0.0830432
0.0735015
0.0640325
0.0541931
0.0450153
0.0360581
0.0270813
0.0179572
0.00887218
-9.71885e-05
-0.0090207
-0.0182017
-0.0278007
-0.0383679
-0.0383679
0
0
0.464448
0.44188
0.421156
0.401466
0.384191
0.368548
0.354688
0.342748
0.332864
0.325076
0.319284
0.315159
0.312157
0.30976
0.308549
0.306634
0.303786
0.299951
0.297198
0.292904
0.28755
0.281485
0.274851
0.267665
0.259889
0.251505
0.242927
0.23509
0.242324
0.233577
0.223752
0.214218
0.204788
0.195378
0.186027
0.176891
0.167583
0.159016
0.150125
0.140806
0.131261
0.122277
0.11265
0.102939
0.0932329
0.0835758
0.0740381
0.0647413
0.0547329
0.0458449
0.0369467
0.0279366
0.018677
0.00970645
0.000875084
-0.00781526
-0.0173017
-0.0267231
-0.0373066
-0.0373066
0
0
0.464423
0.441734
0.420756
0.401296
0.383698
0.367859
0.353838
0.341766
0.331767
0.323872
0.317954
0.313719
0.310724
0.308526
0.306793
0.304783
0.302002
0.297758
0.296321
0.2916
0.286062
0.28003
0.273432
0.266141
0.257865
0.247749
0.232902
0.204956
0.273339
0.24334
0.227789
0.216195
0.205797
0.195817
0.186072
0.176624
0.167586
0.15942
0.151039
0.141911
0.132421
0.122926
0.113287
0.10357
0.0937985
0.084025
0.0742074
0.0643595
0.0560272
0.0470176
0.0380112
0.0292273
0.0190317
0.0104358
0.00168658
-0.0069333
-0.0159163
-0.0252534
-0.03581
-0.03581
0
0
0.464434
0.441628
0.420539
0.401113
0.383411
0.367428
0.353267
0.341088
0.331013
0.323057
0.317041
0.312716
0.309693
0.307507
0.305667
0.30374
0.301647
0.30007
0.293412
0.288939
0.284112
0.278542
0.272216
0.265074
0.256919
0.247327
0.235966
0.226395
0.244725
0.237974
0.227275
0.21642
0.205889
0.195607
0.185473
0.175575
0.166369
0.158929
0.15267
0.143853
0.134109
0.124202
0.114294
0.104402
0.0944677
0.0845996
0.0747579
0.0650704
0.0561268
0.0476923
0.038778
0.029694
0.0202493
0.0114748
0.00224838
-0.00601573
-0.0143709
-0.023145
-0.0333494
-0.0333494
0
0
0.464514
0.441554
0.420438
0.401048
0.383321
0.367134
0.35284
0.340606
0.330525
0.322581
0.316439
0.311993
0.308912
0.306723
0.304888
0.302976
0.300781
0.298124
0.293375
0.288563
0.283479
0.277884
0.271671
0.26479
0.257221
0.249071
0.240958
0.235531
0.236058
0.231511
0.22369
0.214438
0.20461
0.194491
0.184051
0.173252
0.162312
0.153621
0.158283
0.148398
0.137107
0.126209
0.115693
0.105444
0.0952578
0.0853
0.0754256
0.0656304
0.0561581
0.0483841
0.0393243
0.0301647
0.0213685
0.0137384
0.00144141
-0.00535076
-0.0127092
-0.0201458
-0.0287789
-0.0287789
0
0
0.464249
0.441687
0.420579
0.401189
0.383573
0.357689
0.352331
0.340219
0.330255
0.322456
0.31604
0.311421
0.308288
0.306155
0.304382
0.302432
0.300021
0.297039
0.293077
0.288493
0.283405
0.277812
0.271703
0.265105
0.258139
0.251151
0.26566
0.238516
0.23449
0.228535
0.220928
0.212271
0.20294
0.19303
0.182291
0.170031
0.153578
0.122672
0.188663
0.158093
0.141291
0.128505
0.117114
0.106355
0.0961434
0.0860728
0.0761883
0.0663519
0.0563309
0.049024
0.0394131
0.0302477
0.0215715
0.0130854
0.00302696
-0.0209693
-0.011324
-0.016756
-0.0194112
0
0
0
0.464329
0.440931
0.420409
0.40121
0.383757
0.366949
0.352392
0.340143
0.330256
0.322784
0.315658
0.310926
0.307813
0.305889
0.304265
0.302258
0.299633
0.296714
0.293016
0.288589
0.283569
0.278038
0.272042
0.265656
0.259025
0.252401
0.245786
0.238856
0.234418
0.227165
0.219121
0.210613
0.201591
0.189758
0.18148
0.169819
0.156634
0.145167
0.162011
0.139004
0.141022
0.129107
0.117764
0.106971
0.0966628
0.0866618
0.0770095
0.0678632
0.0592395
0.0470069
0.0382608
0.0297363
0.0212408
0.0127684
0.00426942
-0.00341313
-0.0111114
-0.0187946
-0.0278372
-0.0278372
0
0
0.464363
0.441554
0.420215
0.401219
0.384039
0.366548
0.352173
0.340062
0.330242
0.323294
0.315086
0.310775
0.307732
0.306299
0.304868
0.302653
0.299637
0.297044
0.293365
0.288913
0.283906
0.278431
0.272515
0.266222
0.25967
0.253183
0.248221
0.242661
0.23289
0.225298
0.21761
0.209486
0.200972
0.191963
0.182226
0.172036
0.162221
0.155129
0.15367
0.147577
0.138253
0.127867
0.117272
0.106879
0.0967668
0.0868871
0.0772936
0.0679661
0.058539
0.0478993
0.0384167
0.0295317
0.0209369
0.0125235
0.00422131
-0.00396115
-0.0125047
-0.0218329
-0.0326177
-0.0326177
0
0
0.464383
0.441631
0.420667
0.400501
0.381694
0.366925
0.352696
0.340206
0.329671
0.320297
0.31687
0.312472
0.308611
0.336299
0.306544
0.303726
0.300074
0.297941
0.293893
0.289298
0.284325
0.278937
0.27307
0.266751
0.259885
0.251734
0.251714
0.242909
0.233922
0.225537
0.217348
0.209164
0.201004
0.192563
0.183583
0.174483
0.165897
0.158524
0.151934
0.14449
0.135813
0.126308
0.116195
0.106276
0.0964779
0.0867244
0.0771411
0.0676643
0.0580874
0.0482226
0.0385786
0.0293874
0.0206091
0.012118
0.0036078
-0.00496636
-0.0140295
-0.024
-0.0350041
-0.0350041
0
0
0.464382
0.441603
0.420453
0.400577
0.382288
0.366546
0.352366
0.340017
0.329774
0.321881
0.316979
0.313201
0.361286
0.310263
0.307585
0.304819
0.302584
0.2975
0.293622
0.289459
0.284791
0.279609
0.27378
0.267494
0.26083
0.253953
0.249551
0.242402
0.234225
0.225813
0.217347
0.208993
0.201173
0.193772
0.185269
0.17664
0.168118
0.159946
0.151791
0.143383
0.134597
0.125643
0.114728
0.105409
0.0958917
0.0862573
0.0767623
0.0673187
0.0578392
0.0481662
0.0383393
0.0289984
0.0200831
0.0114821
0.00282174
-0.00587098
-0.0151602
-0.025501
-0.0364897
-0.0364897
0
0
0.464381
0.441591
0.420412
0.400764
0.382785
0.366679
0.352198
0.339807
0.329741
0.323673
0.318211
0.31467
0.313483
0.307871
0.305992
0.304268
0.301991
0.29838
0.294518
0.290324
0.285726
0.280682
0.274704
0.268432
0.26201
0.255546
0.24928
0.242107
0.234194
0.225801
0.217021
0.208013
0.199743
0.196505
0.187487
0.17903
0.16993
0.160976
0.152079
0.143114
0.133994
0.124596
0.114447
0.104693
0.0787531
0.0855768
0.0762978
0.0669672
0.0576417
0.0479558
0.0268862
0.028334
0.0193311
-0.0111888
0.00197393
-0.00650787
-0.0158193
-0.0267165
-0.0376438
-0.0376438
0
0
0.464387
0.441615
0.42049
0.401012
0.383263
0.367193
0.351998
0.339361
0.327446
0.327953
0.319913
0.315618
0.313047
0.309708
0.307381
0.305261
0.302397
0.299275
0.295622
0.291481
0.286962
0.282148
0.275668
0.269445
0.263179
0.2567
0.249877
0.237142
0.234381
0.225866
0.216465
0.205361
0.188463
0.208606
0.190139
0.183225
0.171828
0.161942
0.152486
0.143151
0.133742
0.124017
0.114181
0.104542
0.0951351
0.0854899
0.0759721
0.066576
0.0574066
0.0480842
0.0369824
0.0281591
0.0194335
0.0108995
0.00192935
-0.00679156
-0.0159471
-0.0278462
-0.0384752
-0.0384752
0
0
0.464397
0.441657
0.420606
0.401297
0.383925
0.369099
0.351002
0.339842
0.329858
0.325269
0.31999
0.316055
0.313293
0.310959
0.309066
0.307581
0.302868
0.300368
0.296857
0.29273
0.288199
0.283678
0.276533
0.270705
0.264598
0.257995
0.25098
0.243248
0.235236
0.22666
0.217001
0.206938
0.196977
0.199091
0.190333
0.182032
0.172168
0.162323
0.152698
0.143223
0.133709
0.123652
0.113828
0.104235
0.0947359
0.085149
0.0755454
0.0659246
0.0442088
0.047955
0.0361262
0.0282109
0.0192879
0.0103277
0.00128765
-0.00749865
-0.0159612
-0.02854
-0.0383941
-0.0383941
0
0
0.464405
0.441687
0.420684
0.40145
0.384092
0.368649
0.353601
0.341347
0.33169
0.325049
0.320051
0.316492
0.313995
0.312097
0.310444
0.308633
0.305225
0.302037
0.298349
0.294035
0.288992
0.282747
0.279138
0.273119
0.266522
0.259454
0.251938
0.244539
0.23663
0.228779
0.217714
0.209572
0.201862
0.196315
0.188855
0.180531
0.171419
0.161997
0.152532
0.143147
0.133776
0.1232
0.113461
0.103955
0.0944304
0.0848281
0.0751637
0.0654263
0.0555224
0.0450178
0.0396162
0.0287252
0.0190592
0.00966705
0.000202417
-0.00961594
-0.0197149
-0.024947
-0.0364037
-0.0364037
0
0
0.464404
0.441684
0.420694
0.401501
0.384174
0.36877
0.355304
0.342524
0.332826
0.325815
0.320866
0.317488
0.315202
0.313497
0.311957
0.310138
0.307415
0.304082
0.300165
0.295683
0.290727
0.285049
0.273432
0.274227
0.26786
0.260711
0.253195
0.245577
0.237692
0.229535
0.220209
0.211846
0.203962
0.19631
0.188257
0.179723
0.170758
0.161511
0.152128
0.142774
0.133689
0.122674
0.113343
0.103909
0.0943081
0.0846255
0.0748985
0.0651346
0.0553603
0.0458534
0.0379324
0.0283481
0.0187148
0.00921365
-0.000231819
-0.00966137
-0.0188128
-0.0265638
-0.0369392
-0.0369392
0
0
0.464384
0.441615
0.420605
0.401461
0.384215
0.369013
0.356523
0.342987
0.333891
0.327213
0.322388
0.319121
0.316935
0.315294
0.313809
0.312207
0.309542
0.306075
0.30201
0.297441
0.29263
0.287311
0.281782
0.27563
0.269064
0.261718
0.254271
0.246645
0.238753
0.230547
0.222003
0.213583
0.205279
0.196906
0.188336
0.179509
0.170429
0.161128
0.151611
0.141773
0.131461
0.123885
0.114102
0.104168
0.0943127
0.0845073
0.0747338
0.064999
0.0553596
0.0459701
0.0369212
0.0276151
0.0182148
0.00888142
-0.000302551
-0.00920276
-0.018914
-0.027721
-0.037958
-0.037958
0
0
0.464326
0.441417
0.420377
0.401338
0.384121
0.368546
0.353842
0.345272
0.336515
0.329858
0.324568
0.32127
0.31913
0.317486
0.315761
0.314454
0.311445
0.307816
0.303765
0.299206
0.294737
0.289484
0.283625
0.277006
0.230666
0.262449
0.255428
0.24793
0.240045
0.231853
0.22345
0.214948
0.20636
0.197623
0.188711
0.179622
0.170365
0.16095
0.151375
0.141646
0.131955
0.123136
0.113689
0.103948
0.0941418
0.0843361
0.0745626
0.0648437
0.0552062
0.0457028
0.0363163
0.0269838
0.0177032
0.00852937
-0.00052085
-0.00952629
-0.0189242
-0.0283135
-0.0386658
-0.0386658
0
0
0.464211
0.440931
0.425908
0.401297
0.38427
0.369065
0.355757
0.345887
0.337697
0.331268
0.326643
0.323591
0.321699
0.320666
0.316949
0.315877
0.312386
0.303786
0.305655
0.301351
0.297253
0.291857
0.285861
0.27953
0.27296
0.265345
0.257606
0.24972
0.24163
0.233325
0.224839
0.216199
0.207396
0.198392
0.189209
0.179891
0.170461
0.160933
0.151333
0.141708
0.132154
0.122717
0.113161
0.103512
0.0938135
0.0840656
0.0743232
0.0646118
0.0549203
0.0453092
0.0358122
0.0264406
0.017202
0.00811646
-0.000896184
-0.00996044
-0.019185
-0.0287173
-0.037958
-0.0390863
0
0
0.464187
0.439559
0.419084
0.400857
0.384482
0.369971
0.357541
0.347485
0.339452
0.333339
0.32903
0.326218
0.324389
0.322749
0.31897
0.112408
0.312307
0.311435
0.308936
0.305522
0.299809
0.294217
0.288282
0.282019
0.274699
0.267181
0.259449
0.251481
0.243275
0.234851
0.226238
0.217452
0.208467
0.199201
0.189758
0.180225
0.17063
0.160979
0.15131
0.141669
0.132067
0.122337
0.112619
0.102998
0.0934044
0.0837092
0.0740144
0.0643319
0.0545677
0.0448693
0.0353242
0.0259313
0.0167035
0.00768367
-0.00131984
-0.0104083
-0.0196463
-0.0348574
-0.0396371
-0.0396371
0
0
0.466288
0.436264
0.4184
0.401068
0.385278
0.371339
0.359487
0.349757
0.34197
0.336133
0.332098
0.329518
0.327874
0.326579
0.325194
0.325765
0.322273
0.318399
0.314173
0.309442
0.303713
0.297597
0.291187
0.284689
0.276598
0.269136
0.261399
0.253323
0.244985
0.236415
0.227662
0.218746
0.209613
0.200023
0.190299
0.180569
0.17082
0.161015
0.151188
0.141426
0.131754
0.12173
0.11188
0.102347
0.0929198
0.0832537
0.0736477
0.064076
0.0542194
0.0444492
0.0348935
0.0254865
0.0162336
0.00727807
-0.00838147
-0.0108407
-0.0199315
-0.0294477
-0.0448213
-0.0400373
0
0
0.464511
0.440025
0.420017
0.402368
0.386808
0.373226
0.361829
0.352739
0.345295
0.339784
0.336042
0.3337
0.332267
0.331327
0.330363
0.329471
0.32689
0.323175
0.31865
0.313427
0.307516
0.301005
0.293918
0.286059
0.279689
0.271896
0.263699
0.255292
0.246766
0.238007
0.229095
0.220078
0.210865
0.200781
0.19078
0.180921
0.171051
0.161057
0.15086
0.140827
0.131084
0.120611
0.110712
0.101417
0.0923058
0.0826226
0.0732214
0.0639683
0.0539957
0.0442088
0.0346969
0.0252631
0.0159017
0.0071805
-0.001934
-0.0111456
-0.0203044
-0.0297701
-0.0400362
-0.0400362
0
0
0.464451
0.44173
0.421723
0.404131
0.383321
0.375507
0.364114
0.356855
0.349603
0.344447
0.341007
0.338849
0.337434
0.307507
0.335293
0.333925
0.331336
0.327597
0.322907
0.31744
0.31132
0.304462
0.29705
0.289305
0.281864
0.273956
0.26566
0.257045
0.248598
0.239547
0.230458
0.221357
0.212226
0.201298
0.19122
0.18137
0.171435
0.161403
0.150109
0.139573
0.129419
0.118501
0.108896
0.0999668
0.0913834
0.0816847
0.072726
0.0641769
0.0541699
0.0445441
0.0351034
0.0255602
0.0158551
0.00701023
-0.00246648
-0.011705
-0.0208575
-0.0303024
-0.0405347
-0.0405347
0
0
0.464635
0.442648
0.423139
0.406084
0.391439
0.378954
0.368646
0.361164
0.354915
0.35027
0.347142
0.345125
0.343904
0.343203
0.341815
0.339696
0.336579
0.332434
0.32738
0.321596
0.315238
0.307905
0.300138
0.292217
0.284236
0.276036
0.267569
0.258843
0.250009
0.240888
0.23159
0.222277
0.213307
0.201586
0.19193
0.182128
0.171946
0.161381
0.149941
0.137765
0.00399027
0.115301
0.106507
0.0974371
0.0893438
0.080633
0.0721914
0.0645053
0.0555929
0.0463694
0.03667
0.0267787
0.0169583
0.00602021
-0.00335586
-0.012492
-0.0215995
-0.030991
-0.0411619
-0.0411619
0
0