# vtk DataFile Version 2.0
FlowField
ASCII
DATASET STRUCTURED_GRID
DIMENSIONS 62 47 32 
POINTS 93248 double
0 0 0
0.01 0 0
0.02 0 0
0.03 0 0
0.04 0 0
0.05 0 0
0.06 0 0
0.07 0 0
0.08 0 0
0.09 0 0
0.1 0 0
0.11 0 0
0.12 0 0
0.13 0 0
0.14 0 0
0.15 0 0
0.16 0 0
0.17 0 0
0.18 0 0
0.19 0 0
0.2 0 0
0.21 0 0
0.22 0 0
0.23 0 0
0.24 0 0
0.25 0 0
0.26 0 0
0.27 0 0
0.28 0 0
0.29 0 0
0.3 0 0
0.31 0 0
0.32 0 0
0.33 0 0
0.34 0 0
0.35 0 0
0.36 0 0
0.37 0 0
0.38 0 0
0.39 0 0
0.4 0 0
0.41 0 0
0.42 0 0
0.43 0 0
0.44 0 0
0.45 0 0
0.46 0 0
0.47 0 0
0.48 0 0
0.49 0 0
0.5 0 0
0.51 0 0
0.52 0 0
0.53 0 0
0.54 0 0
0.55 0 0
0.56 0 0
0.57 0 0
0.58 0 0
0.59 0 0
0.6 0 0
0.61 0 0
0 0.01 0
0.01 0.01 0
0.02 0.01 0
0.03 0.01 0
0.04 0.01 0
0.05 0.01 0
0.06 0.01 0
0.07 0.01 0
0.08 0.01 0
0.09 0.01 0
0.1 0.01 0
0.11 0.01 0
0.12 0.01 0
0.13 0.01 0
0.14 0.01 0
0.15 0.01 0
0.16 0.01 0
0.17 0.01 0
0.18 0.01 0
0.19 0.01 0
0.2 0.01 0
0.21 0.01 0
0.22 0.01 0
0.23 0.01 0
0.24 0.01 0
0.25 0.01 0
0.26 0.01 0
0.27 0.01 0
0.28 0.01 0
0.29 0.01 0
0.3 0.01 0
0.31 0.01 0
0.32 0.01 0
0.33 0.01 0
0.34 0.01 0
0.35 0.01 0
0.36 0.01 0
0.37 0.01 0
0.38 0.01 0
0.39 0.01 0
0.4 0.01 0
0.41 0.01 0
0.42 0.01 0
0.43 0.01 0
0.44 0.01 0
0.45 0.01 0
0.46 0.01 0
0.47 0.01 0
0.48 0.01 0
0.49 0.01 0
0.5 0.01 0
0.51 0.01 0
0.52 0.01 0
0.53 0.01 0
0.54 0.01 0
0.55 0.01 0
0.56 0.01 0
0.57 0.01 0
0.58 0.01 0
0.59 0.01 0
0.6 0.01 0
0.61 0.01 0
0 0.02 0
0.01 0.02 0
0.02 0.02 0
0.03 0.02 0
0.04 0.02 0
0.05 0.02 0
0.06 0.02 0
0.07 0.02 0
0.08 0.02 0
0.09 0.02 0
0.1 0.02 0
0.11 0.02 0
0.12 0.02 0
0.13 0.02 0
0.14 0.02 0
0.15 0.02 0
0.16 0.02 0
0.17 0.02 0
0.18 0.02 0
0.19 0.02 0
0.2 0.02 0
0.21 0.02 0
0.22 0.02 0
0.23 0.02 0
0.24 0.02 0
0.25 0.02 0
0.26 0.02 0
0.27 0.02 0
0.28 0.02 0
0.29 0.02 0
0.3 0.02 0
0.31 0.02 0
0.32 0.02 0
0.33 0.02 0
0.34 0.02 0
0.35 0.02 0
0.36 0.02 0
0.37 0.02 0
0.38 0.02 0
0.39 0.02 0
0.4 0.02 0
0.41 0.02 0
0.42 0.02 0
0.43 0.02 0
0.44 0.02 0
0.45 0.02 0
0.46 0.02 0
0.47 0.02 0
0.48 0.02 0
0.49 0.02 0
0.5 0.02 0
0.51 0.02 0
0.52 0.02 0
0.53 0.02 0
0.54 0.02 0
0.55 0.02 0
0.56 0.02 0
0.57 0.02 0
0.58 0.02 0
0.59 0.02 0
0.6 0.02 0
0.61 0.02 0
0 0.03 0
0.01 0.03 0
0.02 0.03 0
0.03 0.03 0
0.04 0.03 0
0.05 0.03 0
0.06 0.03 0
0.07 0.03 0
0.08 0.03 0
0.09 0.03 0
0.1 0.03 0
0.11 0.03 0
0.12 0.03 0
0.13 0.03 0
0.14 0.03 0
0.15 0.03 0
0.16 0.03 0
0.17 0.03 0
0.18 0.03 0
0.19 0.03 0
0.2 0.03 0
0.21 0.03 0
0.22 0.03 0
0.23 0.03 0
0.24 0.03 0
0.25 0.03 0
0.26 0.03 0
0.27 0.03 0
0.28 0.03 0
0.29 0.03 0
0.3 0.03 0
0.31 0.03 0
0.32 0.03 0
0.33 0.03 0
0.34 0.03 0
0.35 0.03 0
0.36 0.03 0
0.37 0.03 0
0.38 0.03 0
0.39 0.03 0
0.4 0.03 0
0.41 0.03 0
0.42 0.03 0
0.43 0.03 0
0.44 0.03 0
0.45 0.03 0
0.46 0.03 0
0.47 0.03 0
0.48 0.03 0
0.49 0.03 0
0.5 0.03 0
0.51 0.03 0
0.52 0.03 0
0.53 0.03 0
0.54 0.03 0
0.55 0.03 0
0.56 0.03 0
0.57 0.03 0
0.58 0.03 0
0.59 0.03 0
0.6 0.03 0
0.61 0.03 0
0 0.04 0
0.01 0.04 0
0.02 0.04 0
0.03 0.04 0
0.04 0.04 0
0.05 0.04 0
0.06 0.04 0
0.07 0.04 0
0.08 0.04 0
0.09 0.04 0
0.1 0.04 0
0.11 0.04 0
0.12 0.04 0
0.13 0.04 0
0.14 0.04 0
0.15 0.04 0
0.16 0.04 0
0.17 0.04 0
0.18 0.04 0
0.19 0.04 0
0.2 0.04 0
0.21 0.04 0
0.22 0.04 0
0.23 0.04 0
0.24 0.04 0
0.25 0.04 0
0.26 0.04 0
0.27 0.04 0
0.28 0.04 0
0.29 0.04 0
0.3 0.04 0
0.31 0.04 0
0.32 0.04 0
0.33 0.04 0
0.34 0.04 0
0.35 0.04 0
0.36 0.04 0
0.37 0.04 0
0.38 0.04 0
0.39 0.04 0
0.4 0.04 0
0.41 0.04 0
0.42 0.04 0
0.43 0.04 0
0.44 0.04 0
0.45 0.04 0
0.46 0.04 0
0.47 0.04 0
0.48 0.04 0
0.49 0.04 0
0.5 0.04 0
0.51 0.04 0
0.52 0.04 0
0.53 0.04 0
0.54 0.04 0
0.55 0.04 0
0.56 0.04 0
0.57 0.04 0
0.58 0.04 0
0.59 0.04 0
0.6 0.04 0
0.61 0.04 0
0 0.05 0
0.01 0.05 0
0.02 0.05 0
0.03 0.05 0
0.04 0.05 0
0.05 0.05 0
0.06 0.05 0
0.07 0.05 0
0.08 0.05 0
0.09 0.05 0
0.1 0.05 0
0.11 0.05 0
0.12 0.05 0
0.13 0.05 0
0.14 0.05 0
0.15 0.05 0
0.16 0.05 0
0.17 0.05 0
0.18 0.05 0
0.19 0.05 0
0.2 0.05 0
0.21 0.05 0
0.22 0.05 0
0.23 0.05 0
0.24 0.05 0
0.25 0.05 0
0.26 0.05 0
0.27 0.05 0
0.28 0.05 0
0.29 0.05 0
0.3 0.05 0
0.31 0.05 0
0.32 0.05 0
0.33 0.05 0
0.34 0.05 0
0.35 0.05 0
0.36 0.05 0
0.37 0.05 0
0.38 0.05 0
0.39 0.05 0
0.4 0.05 0
0.41 0.05 0
0.42 0.05 0
0.43 0.05 0
0.44 0.05 0
0.45 0.05 0
0.46 0.05 0
0.47 0.05 0
0.48 0.05 0
0.49 0.05 0
0.5 0.05 0
0.51 0.05 0
0.52 0.05 0
0.53 0.05 0
0.54 0.05 0
0.55 0.05 0
0.56 0.05 0
0.57 0.05 0
0.58 0.05 0
0.59 0.05 0
0.6 0.05 0
0.61 0.05 0
0 0.06 0
0.01 0.06 0
0.02 0.06 0
0.03 0.06 0
0.04 0.06 0
0.05 0.06 0
0.06 0.06 0
0.07 0.06 0
0.08 0.06 0
0.09 0.06 0
0.1 0.06 0
0.11 0.06 0
0.12 0.06 0
0.13 0.06 0
0.14 0.06 0
0.15 0.06 0
0.16 0.06 0
0.17 0.06 0
0.18 0.06 0
0.19 0.06 0
0.2 0.06 0
0.21 0.06 0
0.22 0.06 0
0.23 0.06 0
0.24 0.06 0
0.25 0.06 0
0.26 0.06 0
0.27 0.06 0
0.28 0.06 0
0.29 0.06 0
0.3 0.06 0
0.31 0.06 0
0.32 0.06 0
0.33 0.06 0
0.34 0.06 0
0.35 0.06 0
0.36 0.06 0
0.37 0.06 0
0.38 0.06 0
0.39 0.06 0
0.4 0.06 0
0.41 0.06 0
0.42 0.06 0
0.43 0.06 0
0.44 0.06 0
0.45 0.06 0
0.46 0.06 0
0.47 0.06 0
0.48 0.06 0
0.49 0.06 0
0.5 0.06 0
0.51 0.06 0
0.52 0.06 0
0.53 0.06 0
0.54 0.06 0
0.55 0.06 0
0.56 0.06 0
0.57 0.06 0
0.58 0.06 0
0.59 0.06 0
0.6 0.06 0
0.61 0.06 0
0 0.07 0
0.01 0.07 0
0.02 0.07 0
0.03 0.07 0
0.04 0.07 0
0.05 0.07 0
0.06 0.07 0
0.07 0.07 0
0.08 0.07 0
0.09 0.07 0
0.1 0.07 0
0.11 0.07 0
0.12 0.07 0
0.13 0.07 0
0.14 0.07 0
0.15 0.07 0
0.16 0.07 0
0.17 0.07 0
0.18 0.07 0
0.19 0.07 0
0.2 0.07 0
0.21 0.07 0
0.22 0.07 0
0.23 0.07 0
0.24 0.07 0
0.25 0.07 0
0.26 0.07 0
0.27 0.07 0
0.28 0.07 0
0.29 0.07 0
0.3 0.07 0
0.31 0.07 0
0.32 0.07 0
0.33 0.07 0
0.34 0.07 0
0.35 0.07 0
0.36 0.07 0
0.37 0.07 0
0.38 0.07 0
0.39 0.07 0
0.4 0.07 0
0.41 0.07 0
0.42 0.07 0
0.43 0.07 0
0.44 0.07 0
0.45 0.07 0
0.46 0.07 0
0.47 0.07 0
0.48 0.07 0
0.49 0.07 0
0.5 0.07 0
0.51 0.07 0
0.52 0.07 0
0.53 0.07 0
0.54 0.07 0
0.55 0.07 0
0.56 0.07 0
0.57 0.07 0
0.58 0.07 0
0.59 0.07 0
0.6 0.07 0
0.61 0.07 0
0 0.08 0
0.01 0.08 0
0.02 0.08 0
0.03 0.08 0
0.04 0.08 0
0.05 0.08 0
0.06 0.08 0
0.07 0.08 0
0.08 0.08 0
0.09 0.08 0
0.1 0.08 0
0.11 0.08 0
0.12 0.08 0
0.13 0.08 0
0.14 0.08 0
0.15 0.08 0
0.16 0.08 0
0.17 0.08 0
0.18 0.08 0
0.19 0.08 0
0.2 0.08 0
0.21 0.08 0
0.22 0.08 0
0.23 0.08 0
0.24 0.08 0
0.25 0.08 0
0.26 0.08 0
0.27 0.08 0
0.28 0.08 0
0.29 0.08 0
0.3 0.08 0
0.31 0.08 0
0.32 0.08 0
0.33 0.08 0
0.34 0.08 0
0.35 0.08 0
0.36 0.08 0
0.37 0.08 0
0.38 0.08 0
0.39 0.08 0
0.4 0.08 0
0.41 0.08 0
0.42 0.08 0
0.43 0.08 0
0.44 0.08 0
0.45 0.08 0
0.46 0.08 0
0.47 0.08 0
0.48 0.08 0
0.49 0.08 0
0.5 0.08 0
0.51 0.08 0
0.52 0.08 0
0.53 0.08 0
0.54 0.08 0
0.55 0.08 0
0.56 0.08 0
0.57 0.08 0
0.58 0.08 0
0.59 0.08 0
0.6 0.08 0
0.61 0.08 0
0 0.09 0
0.01 0.09 0
0.02 0.09 0
0.03 0.09 0
0.04 0.09 0
0.05 0.09 0
0.06 0.09 0
0.07 0.09 0
0.08 0.09 0
0.09 0.09 0
0.1 0.09 0
0.11 0.09 0
0.12 0.09 0
0.13 0.09 0
0.14 0.09 0
0.15 0.09 0
0.16 0.09 0
0.17 0.09 0
0.18 0.09 0
0.19 0.09 0
0.2 0.09 0
0.21 0.09 0
0.22 0.09 0
0.23 0.09 0
0.24 0.09 0
0.25 0.09 0
0.26 0.09 0
0.27 0.09 0
0.28 0.09 0
0.29 0.09 0
0.3 0.09 0
0.31 0.09 0
0.32 0.09 0
0.33 0.09 0
0.34 0.09 0
0.35 0.09 0
0.36 0.09 0
0.37 0.09 0
0.38 0.09 0
0.39 0.09 0
0.4 0.09 0
0.41 0.09 0
0.42 0.09 0
0.43 0.09 0
0.44 0.09 0
0.45 0.09 0
0.46 0.09 0
0.47 0.09 0
0.48 0.09 0
0.49 0.09 0
0.5 0.09 0
0.51 0.09 0
0.52 0.09 0
0.53 0.09 0
0.54 0.09 0
0.55 0.09 0
0.56 0.09 0
0.57 0.09 0
0.58 0.09 0
0.59 0.09 0
0.6 0.09 0
0.61 0.09 0
0 0.1 0
0.01 0.1 0
0.02 0.1 0
0.03 0.1 0
0.04 0.1 0
0.05 0.1 0
0.06 0.1 0
0.07 0.1 0
0.08 0.1 0
0.09 0.1 0
0.1 0.1 0
0.11 0.1 0
0.12 0.1 0
0.13 0.1 0
0.14 0.1 0
0.15 0.1 0
0.16 0.1 0
0.17 0.1 0
0.18 0.1 0
0.19 0.1 0
0.2 0.1 0
0.21 0.1 0
0.22 0.1 0
0.23 0.1 0
0.24 0.1 0
0.25 0.1 0
0.26 0.1 0
0.27 0.1 0
0.28 0.1 0
0.29 0.1 0
0.3 0.1 0
0.31 0.1 0
0.32 0.1 0
0.33 0.1 0
0.34 0.1 0
0.35 0.1 0
0.36 0.1 0
0.37 0.1 0
0.38 0.1 0
0.39 0.1 0
0.4 0.1 0
0.41 0.1 0
0.42 0.1 0
0.43 0.1 0
0.44 0.1 0
0.45 0.1 0
0.46 0.1 0
0.47 0.1 0
0.48 0.1 0
0.49 0.1 0
0.5 0.1 0
0.51 0.1 0
0.52 0.1 0
0.53 0.1 0
0.54 0.1 0
0.55 0.1 0
0.56 0.1 0
0.57 0.1 0
0.58 0.1 0
0.59 0.1 0
0.6 0.1 0
0.61 0.1 0
0 0.11 0
0.01 0.11 0
0.02 0.11 0
0.03 0.11 0
0.04 0.11 0
0.05 0.11 0
0.06 0.11 0
0.07 0.11 0
0.08 0.11 0
0.09 0.11 0
0.1 0.11 0
0.11 0.11 0
0.12 0.11 0
0.13 0.11 0
0.14 0.11 0
0.15 0.11 0
0.16 0.11 0
0.17 0.11 0
0.18 0.11 0
0.19 0.11 0
0.2 0.11 0
0.21 0.11 0
0.22 0.11 0
0.23 0.11 0
0.24 0.11 0
0.25 0.11 0
0.26 0.11 0
0.27 0.11 0
0.28 0.11 0
0.29 0.11 0
0.3 0.11 0
0.31 0.11 0
0.32 0.11 0
0.33 0.11 0
0.34 0.11 0
0.35 0.11 0
0.36 0.11 0
0.37 0.11 0
0.38 0.11 0
0.39 0.11 0
0.4 0.11 0
0.41 0.11 0
0.42 0.11 0
0.43 0.11 0
0.44 0.11 0
0.45 0.11 0
0.46 0.11 0
0.47 0.11 0
0.48 0.11 0
0.49 0.11 0
0.5 0.11 0
0.51 0.11 0
0.52 0.11 0
0.53 0.11 0
0.54 0.11 0
0.55 0.11 0
0.56 0.11 0
0.57 0.11 0
0.58 0.11 0
0.59 0.11 0
0.6 0.11 0
0.61 0.11 0
0 0.12 0
0.01 0.12 0
0.02 0.12 0
0.03 0.12 0
0.04 0.12 0
0.05 0.12 0
0.06 0.12 0
0.07 0.12 0
0.08 0.12 0
0.09 0.12 0
0.1 0.12 0
0.11 0.12 0
0.12 0.12 0
0.13 0.12 0
0.14 0.12 0
0.15 0.12 0
0.16 0.12 0
0.17 0.12 0
0.18 0.12 0
0.19 0.12 0
0.2 0.12 0
0.21 0.12 0
0.22 0.12 0
0.23 0.12 0
0.24 0.12 0
0.25 0.12 0
0.26 0.12 0
0.27 0.12 0
0.28 0.12 0
0.29 0.12 0
0.3 0.12 0
0.31 0.12 0
0.32 0.12 0
0.33 0.12 0
0.34 0.12 0
0.35 0.12 0
0.36 0.12 0
0.37 0.12 0
0.38 0.12 0
0.39 0.12 0
0.4 0.12 0
0.41 0.12 0
0.42 0.12 0
0.43 0.12 0
0.44 0.12 0
0.45 0.12 0
0.46 0.12 0
0.47 0.12 0
0.48 0.12 0
0.49 0.12 0
0.5 0.12 0
0.51 0.12 0
0.52 0.12 0
0.53 0.12 0
0.54 0.12 0
0.55 0.12 0
0.56 0.12 0
0.57 0.12 0
0.58 0.12 0
0.59 0.12 0
0.6 0.12 0
0.61 0.12 0
0 0.13 0
0.01 0.13 0
0.02 0.13 0
0.03 0.13 0
0.04 0.13 0
0.05 0.13 0
0.06 0.13 0
0.07 0.13 0
0.08 0.13 0
0.09 0.13 0
0.1 0.13 0
0.11 0.13 0
0.12 0.13 0
0.13 0.13 0
0.14 0.13 0
0.15 0.13 0
0.16 0.13 0
0.17 0.13 0
0.18 0.13 0
0.19 0.13 0
0.2 0.13 0
0.21 0.13 0
0.22 0.13 0
0.23 0.13 0
0.24 0.13 0
0.25 0.13 0
0.26 0.13 0
0.27 0.13 0
0.28 0.13 0
0.29 0.13 0
0.3 0.13 0
0.31 0.13 0
0.32 0.13 0
0.33 0.13 0
0.34 0.13 0
0.35 0.13 0
0.36 0.13 0
0.37 0.13 0
0.38 0.13 0
0.39 0.13 0
0.4 0.13 0
0.41 0.13 0
0.42 0.13 0
0.43 0.13 0
0.44 0.13 0
0.45 0.13 0
0.46 0.13 0
0.47 0.13 0
0.48 0.13 0
[...]
POINT_DATA 93248

SCALARS v double
LOOKUP_TABLE default
0
0
0
0
0
0
0
0
0
0
0
0
0
0
0
0
0
0
0
0
0
0
0
0
0
0
0
0
0
0
0
0
0
0
0
0
0
0
-0.0195488
0
0
0
0
0
-0.0204285
0
0
0
0
0
0
0
0
0
0
0
0
0
0
0
0
0
0
0.0474906
-0.0475226
0.0418756
0.0157032
-0.000770326
0
-0.0101376
-0.0116427
-0.0124626
-0.0129895
-0.0132682
-0.0136455
-0.0137692
-0.0138935
-0.0139774
-0.0140783
-0.014078
-0.0141467
-0.0141116
-0.014572
-0.0144136
-0.0144648
-0.014405
-0.0144136
-0.0144309
-0.0144464
-0.0144591
-0.0144685
-0.0144739
-0.0144749
-0.014474
-0.0145209
-0.0144375
-0.0143436
-0.0144372
-0.0150858
-0.0158193
-0.019975
-0.00917159
-0.0129879
-0.0148901
-0.0147981
-0.0147426
-0.0146754
-0.0148557
-0.0221076
-0.0146914
-0.0151684
-0.0145156
-0.0144886
-0.0145318
-0.01467
-0.0146521
-0.0159021
-0.0144749
-0.0177505
-0.0144631
-0.0140355
-0.0131341
-0.0109318
0
0
0.0291436
0.0559855
0.0462642
0.0232293
0.00719209
-0.00083395
-0.0055429
-0.00836196
-0.0101514
-0.0114183
-0.0119641
-0.0207821
-0.0132536
-0.013529
-0.0105217
-0.0140265
-0.013899
-0.0142076
-0.0145097
-0.0229712
-0.0146198
-0.0145072
-0.0146632
-0.0147432
-0.0147984
-0.0148392
-0.0148704
-0.0148937
-0.0149086
-0.0149111
-0.0149032
-0.0183089
-0.0149072
-0.0145837
-0.0146719
-0.0140534
-0.0121624
-0.00725673
-0.0202814
-0.0190447
-0.0169818
-0.0159276
-0.0155044
-0.0152487
-0.0149583
-0.0156055
-0.0153104
-0.0151684
-0.0150053
-0.0149736
-0.0148538
-0.0150355
-0.015052
-0.0150474
-0.0148648
-0.014763
-0.0192763
-0.0142903
-0.0134938
-0.0118173
0
0
0.0155544
0.040519
0.0377831
0.023902
0.0116754
0.00365897
-0.0015104
-0.00497148
-0.00731649
-0.00887075
-0.0103198
-0.0112928
-0.0118715
-0.0123759
-0.0128406
-0.0132613
0
-0.0134137
-0.0137945
-0.0139873
-0.014024
-0.0140739
-0.0141727
-0.0142642
-0.0143397
-0.0144006
-0.0144496
-0.0144881
-0.0145163
-0.0145347
-0.0145473
-0.0146001
-0.0145045
-0.0145548
-0.0140123
-0.0135777
-0.0126654
-0.0115581
-0.0166031
-0.0170627
-0.0162135
-0.0156037
-0.015296
-0.0152267
-0.0153703
-0.0144967
-0.0146119
-0.0146732
-0.0147709
-0.0147099
-0.0146622
-0.0146805
-0.0146567
-0.0145974
-0.0144855
-0.0143773
-0.0143044
-0.0139563
-0.0133967
-0.0121308
0
0
0.00910022
0.029409
0.0316204
0.0212935
0.0122213
0.00553877
0.000717919
-0.00276213
-0.00534667
-0.00726683
-0.00879189
-0.00991599
-0.0107451
-0.0114148
-0.0122114
-0.0124331
-0.0124434
-0.0128734
-0.0132011
-0.0134553
-0.0135961
-0.0137142
-0.0138331
-0.013942
-0.0140363
-0.0141159
-0.0141818
-0.014235
-0.0142763
-0.0143071
-0.0143306
-0.0143541
-0.014357
-0.0142929
-0.0140134
-0.0137701
-0.0135125
-0.0135604
-0.0150849
-0.0155649
-0.0154381
-0.0152226
-0.0150707
-0.0150078
-0.0149424
-0.014257
-0.0144947
-0.0145824
-0.0146042
-0.0145745
-0.0145393
-0.014506
-0.0144463
-0.0143687
-0.0142744
-0.0141725
-0.0140544
-0.0138378
-0.0134311
-0.0124278
0
0
0.00582344
0.0215971
0.0239259
0.0173627
0.0107026
0.0054576
0.00149219
-0.00153663
-0.00414924
-0.00619008
-0.00777845
-0.00898729
-0.00992799
-0.0106664
-0.0110052
-0.0117081
-0.0121317
-0.012534
-0.0128554
-0.0131178
-0.01332
-0.0134883
-0.0136369
-0.0137679
-0.0138818
-0.0139798
-0.0140617
-0.0141285
-0.0141812
-0.0142215
-0.014252
-0.014279
-0.0144136
-0.0142645
-0.0141275
-0.0140332
-0.0140052
-0.0141701
-0.0146886
-0.0149838
-0.0150392
-0.0149941
-0.0149398
-0.0149229
-0.0148983
0
-0.0145831
-0.0146523
-0.0146186
-0.0145875
-0.0145543
-0.0144963
-0.0143927
-0.0142985
-0.014215
-0.0141299
-0.014031
-0.0138795
-0.0135228
-0.0127892
-0.022528
0
0.00398211
0.0163292
0.0181838
0.0133563
0.00845597
0.00431343
0.00135211
0
-0.00352689
-0.00563238
-0.0071863
-0.00841494
-0.00939771
-0.0101927
-0.0108167
-0.0114389
-0.0119024
-0.0122852
-0.0126341
-0.0129213
-0.0131611
-0.0133633
-0.0135383
-0.013691
-0.0138237
-0.0139405
-0.0140374
-0.0141163
-0.014178
-0.0142249
-0.014259
-0.0142689
-0.0229847
-0.0143759
-0.0142555
-0.0142577
-0.014297
-0.0144245
-0.0146473
-0.0148168
-0.0148915
-0.014902
-0.0148831
-0.0148512
-0.0147623
-0.014386
-0.0146168
-0.0146836
-0.01469
-0.0146927
-0.0146884
-0.0146238
-0.0144101
-0.0142943
-0.0142352
-0.0141829
-0.014131
-0.0141406
-0.0140209
-0.0128708
0
0
0.00282308
0.0125435
0.0137206
0.00980629
0.00617022
0.00347846
0.000431302
-0.00174469
-0.00378244
-0.00545595
-0.00692323
-0.00809633
-0.00910464
-0.00993012
-0.0106393
-0.0113729
-0.0118333
-0.0121717
-0.012514
-0.0128246
-0.0130921
-0.0133167
-0.0135123
-0.0136844
-0.0138331
-0.0139711
-0.0140815
-0.0141709
-0.0142376
-0.0142879
-0.0143666
-0.014427
-0.0145806
-0.0144879
-0.0144587
-0.0144721
-0.0145192
-0.0146075
-0.0147266
-0.0148289
-0.0148901
-0.0149131
-0.0149101
-0.0148847
-0.0148274
-0.0147215
-0.0147598
-0.0147918
-0.0148215
-0.0148775
-0.0149674
-0.0149784
-0.0143756
-0.0142609
-0.0142827
-0.0142791
-0.0142453
-0.0188647
-0.0136511
-0.0127861
0
0
0.00202679
0.00968794
0.0101614
0.00672091
0.00386004
0.00171217
-0.000487557
-0.00242817
-0.00410166
-0.0056259
-0.0069408
-0.00795489
-0.00992799
-0.00981454
-0.0104789
-0.0109344
-0.0114899
-0.0120338
-0.0124508
-0.0127903
-0.0131024
-0.0133342
-0.0135442
-0.0137343
-0.0139711
-0.0140471
-0.0141782
-0.0142807
-0.0143436
-0.0143623
-0.0145189
-0.0145968
-0.0146483
-0.0146443
-0.0146509
-0.0146785
-0.0147206
-0.0147856
-0.0148618
-0.0149294
-0.0149758
-0.0149988
-0.0150018
-0.0149874
-0.0149575
-0.0149206
-0.0149199
-0.0149349
-0.0149786
-0.0151069
-0.0154377
-0.015951
-0.0139832
-0.0140754
-0.014346
-0.0144494
-0.0144624
-0.0144601
-0.0141002
-0.0130059
0
0
0.00144275
0.00744348
0.00724825
0.00403884
0.00168779
4.53549e-06
-0.0016552
-0.00322555
-0.00468268
-0.00601282
-0.00720516
-0.00835402
-0.00916813
-0.00989589
-0.0105217
-0.0110721
-0.011607
-0.0120818
-0.0124888
-0.0128362
-0.014623
-0.0134103
-0.0136205
-0.0138289
-0.0140193
-0.0141814
-0.0143306
-0.0144538
-0.014517
-0.0144437
-0.0146958
-0.0147715
-0.0148074
-0.0148248
-0.0148486
-0.014889
-0.0149208
-0.0149737
-0.0150319
-0.0150815
-0.0151166
-0.0151358
-0.0151402
-0.0151321
-0.0151147
-0.0150943
-0.0150821
-0.0150788
-0.0151007
-0.015227
-0.0157344
-0.0168116
-0.0129163
-0.0139462
-0.0145429
-0.0147007
-0.0147131
-0.0146675
-0.0143953
-0.0132416
0
0
0.000992472
0.00561849
0.00481229
0.00167743
-0.000301808
-0.00161015
-0.00289334
-0.00417585
-0.00540508
-0.00655388
-0.00760748
-0.0085687
-0.0093807
-0.0100755
-0.0106278
-0.0112085
-0.0117478
-0.0122112
-0.0126128
-0.012978
-0.0132553
-0.0135133
-0.0137499
-0.0139639
-0.0141581
-0.0143499
-0.0145333
-0.0147112
-0.014888
-0.0150633
-0.0144664
-0.014751
-0.0149352
-0.0150103
-0.0150498
-0.0150858
-0.015152
-0.015182
-0.0152303
-0.0152698
-0.0152962
-0.0153102
-0.0153125
-0.0153057
-0.0152919
-0.0152735
-0.0152512
-0.0152181
-0.0151502
-0.0149578
-0.0143243
-0.0128861
-0.0170705
-0.0160044
-0.0153337
-0.0150965
-0.0150037
-0.0149245
-0.0146607
-0.0134721
0
0
0.000630874
0.00409208
0.00274922
-0.00217199
-0.00212259
-0.00313047
-0.00414597
-0.00519159
-0.00622041
-0.00720398
-0.00812305
-0.00896825
-0.00972416
-0.0103822
-0.0107011
-0.011369
-0.0119485
-0.0124105
-0.0127851
-0.0130968
-0.0134404
-0.0136905
-0.0139167
-0.0141328
-0.0143408
-0.014551
-0.0147718
-0.0150089
-0.0152543
-0.0154155
0
-0.0150126
-0.0152089
-0.0152434
-0.0152713
-0.0153095
-0.0153572
-0.0154218
-0.0154606
-0.0154894
-0.0155069
-0.0155143
-0.0155108
-0.0155014
-0.0154873
-0.0154682
-0.0154413
-0.0153976
-0.015316
-0.0151503
-0.0148138
-0.0144878
-0.0160717
-0.0159021
-0.0155626
-0.0153728
-0.015271
-0.0151826
-0.0149161
-0.0136959
0
0
0.000328546
0.00277273
0.000901719
-0.00219299
-0.00375479
-0.00458322
-0.00538538
-0.00623458
-0.00709102
-0.00792961
-0.00872533
-0.00947294
-0.0101769
-0.0108787
0
-0.0115989
-0.0122436
-0.0126709
-0.0130292
-0.0133326
-0.0136257
-0.0138777
-0.0141074
-0.0143245
-0.0145389
-0.0147672
-0.0150332
-0.0153588
-0.0157211
-0.0156492
-0.0151793
-0.0153113
-0.0153996
-0.0154447
-0.0154872
-0.0155409
-0.0156025
-0.0156675
-0.0157147
-0.0157392
-0.0157456
-0.0157465
-0.0157297
-0.0157147
-0.0156989
-0.0156799
-0.0156543
-0.0156147
-0.0155494
-0.0154652
-0.0153553
-0.0153414
-0.0157733
-0.0158037
-0.0156973
-0.0155946
-0.0155143
-0.0154313
-0.0151629
-0.0139123
0
0
7.11024e-05
0.00161956
-0.000717743
-0.00380309
-0.005265
-0.00594806
-0.00658747
-0.00727801
-0.00798899
-0.00889884
-0.00938667
-0.0100336
-0.0106388
-0.0111776
-0.0114215
-0.0120094
-0.0125271
-0.0129463
-0.0133101
-0.013596
-0.0138581
-0.0140994
-0.0143221
-0.0145321
-0.0147415
-0.0149755
-0.0152896
-0.015787
-0.0167903
-0.0162177
-0.0157528
-0.0156182
-0.0156126
-0.0156496
-0.0157068
-0.0157795
-0.0158637
-0.0159507
-0.0160146
-0.0160293
-0.0160116
-0.0159784
-0.0159596
-0.0159404
-0.015923
-0.0159058
-0.0158856
-0.0158556
-0.0157883
-0.0157743
-0.0157444
-0.0157587
-0.0158634
-0.0159032
-0.0158725
-0.0158156
-0.0157432
-0.015673
-0.0154013
-0.0141194
0
0
-0.000152208
0.000597799
-0.00217199
-0.00530317
-0.00667325
-0.00724096
-0.00774724
-0.00830721
-0.00889884
-0.00950044
-0.0100868
-0.0106478
-0.011172
-0.0116432
-0.0120281
-0.0124689
-0.0128877
-0.0132593
-0.0136907
-0.0138974
-0.0141233
-0.0143486
-0.0145583
-0.0147513
-0.0149362
-0.0151364
-0.0154314
-0.0141812
-0.0201946
-0.0167817
-0.0159875
-0.0157991
-0.0157938
-0.0158484
-0.0159255
-0.0160242
-0.0161481
-0.016287
-0.0163984
-0.0163834
-0.0163159
-0.0162499
-0.0162046
-0.0161751
-0.0161553
-0.0161411
-0.01613
-0.0161125
-0.0146042
-0.0160655
-0.0160647
-0.0160607
-0.0160296
-0.0161007
-0.0160956
-0.0160628
-0.0160151
-0.0159183
-0.0156318
-0.014314
0
0
-0.000351552
-0.000304996
-0.00349092
-0.00668597
-0.00799586
-0.00847603
-0.00886207
-0.00930883
-0.00980353
-0.0103141
-0.010818
-0.0113035
-0.011761
-0.0121812
-0.0125614
-0.0129342
-0.0132807
-0.0135756
-0.0216983
-0.0142424
-0.0144001
-0.014623
-0.0148167
-0.0149857
-0.0151266
-0.0152235
-0.0152023
-0.0146488
-0.0105736
-0.0144291
-0.0153782
-0.0157326
-0.0159152
-0.0160367
-0.0161369
-0.0162645
-0.0164473
-0.0167026
-0.0169739
-0.0168444
-0.016657
-0.0165246
-0.0164499
-0.0164108
-0.0163899
-0.0163794
-0.0163716
-0.0163617
-0.0163276
-0.0163528
-0.0163551
-0.0163698
-0.0164458
-0.0163851
-0.0163581
-0.0163348
-0.0162467
-0.016153
-0.0158501
-0.0144878
0
0
-0.000552231
-0.00104679
-0.00469541
-0.00798597
-0.0092505
-0.00967848
-0.00992496
-0.0102732
-0.0106911
-0.0111357
-0.0115703
-0.0119911
-0.0123899
-0.0127576
-0.0130926
-0.0134152
-0.0137261
-0.0140249
-0.0143951
-0.0145636
-0.014749
-0.0149361
-0.0151059
-0.0152502
-0.0153601
-0.0154133
-0.0153521
-0.0150367
-0.0142389
-0.0150056
-0.0155574
-0.0158955
-0.0161073
-0.0162519
-0.0163341
-0.0164738
-0.0167258
-0.017213
-0.0181244
-0.0174606
-0.0170023
-0.0167754
-0.016678
-0.0166391
-0.0166209
-0.0166198
-0.0166187
-0.0166166
-0.0166196
-0.0166506
-0.0166372
-0.0166404
-0.0166591
-0.016651
-0.0166222
-0.0166659
-0.0164699
-0.016391
-0.0160631
-0.0146221
0
0
-0.000828967
0.00744348
-0.00580929
-0.00923469
-0.0104379
-0.0108328
-0.0109122
-0.0112131
-0.0115849
-0.0119637
-0.0123374
-0.0127039
-0.0130543
-0.0133692
-0.0136333
-0.0139038
-0.014182
-0.0144539
-0.0147178
-0.0149215
-0.015104
-0.0152723
-0.0154219
-0.0155482
-0.0156444
-0.0156974
-0.0156855
-0.0155814
-0.0154635
-0.0156714
-0.0159392
-0.0161707
-0.0163603
-0.0165231
-0.0164908
-0.0166007
-0.016854
-0.0176466
-0.0216219
-0.0180252
-0.0171681
-0.016931
-0.0168664
-0.0168538
-0.0166209
-0.0168621
-0.0168695
-0.0168731
-0.0168891
-0.017009
-0.0169141
-0.0169067
-0.0169207
-0.0169437
-0.0170343
-0.0170961
-0.0166843
-0.0166952
-0.0163453
-0.0146497
0
0
-0.000881117
-0.0025981
-0.0069362
-0.0103638
-0.0114883
-0.011585
-0.012001
-0.0123104
-0.0125753
-0.0128418
-0.0131099
-0.0134369
-0.0137629
-0.01404
-0.0141647
-0.0143773
-0.0146396
-0.0148947
-0.0151197
-0.0153104
-0.0154786
-0.015629
-0.0157616
-0.0158748
-0.0159659
-0.0160307
-0.0160635
-0.0160616
-0.0161845
-0.0161932
-0.0163162
-0.0164675
-0.0166316
-0.0168554
-0.0165946
-0.0166465
-0.0165925
-0.0159575
-0.0117635
-0.0157148
-0.0166253
-0.0169047
-0.0170081
-0.0170558
-0.0170821
-0.0171087
-0.017123
-0.0171223
-0.0171287
-0.0238231
-0.0171777
-0.0171629
-0.0171844
-0.0171822
-0.0171372
-0.0170142
-0.0174152
-0.0173276
-0.0171799
-0.0160295
0
0
-0.00101505
-0.00342102
-0.00800126
-0.0115542
-0.0126154
-0.0124935
-0.0128553
-0.0131942
-0.0134558
-0.013671
-0.0138193
-0.0141782
-0.0145432
-0.0148452
-0.0146422
-0.0147754
-0.0150894
-0.0153629
-0.0155608
-0.0157261
-0.0158732
-0.0160045
-0.0161207
-0.016222
-0.0163096
-0.0163889
-0.0164718
-0.016449
-0.0244416
-0.0166339
-0.0166399
-0.0167411
-0.0167872
-0.0167172
-0.0170805
-0.0170137
-0.0168107
-0.0163778
-0.0155067
-0.0162671
-0.0167948
-0.0170661
-0.0172022
-0.017275
-0.0173223
-0.017367
-0.0173933
-0.0174077
-0.0174299
-0.0175406
-0.0174599
-0.0174657
-0.0174781
-0.0174748
-0.0174457
-0.0174347
-0.0176167
-0.0176317
-0.017465
-0.016058
0
0
-0.0011634
-0.00412791
-0.00896206
-0.0205352
-0.0138471
0
-0.0137034
-0.0141077
-0.0143097
-0.0145201
-0.0071863
-0.0148962
-0.0154088
-0.0158713
-0.0148561
-0.0152149
-0.0155381
-0.015901
-0.0160369
-0.016163
-0.0162846
-0.0163957
-0.0164945
-0.0165818
-0.0166609
-0.0167467
-0.0170308
-0.0168994
-0.0170068
-0.0169689
-0.0170011
-0.0170583
-0.0171007
-0.0171176
-0.0172657
-0.0172521
-0.0171329
-0.016935
-0.0167308
-0.0169195
-0.0171598
-0.0173357
-0.0174456
-0.0175128
-0.0175623
-0.0176443
-0.0176789
-0.0176917
-0.0177033
-0.017723
-0.017716
-0.0177713
-0.0177944
-0.0177958
-0.0177505
-0.0177696
-0.0178521
-0.0178788
-0.0176852
-0.016199
0
0
-0.00131325
-0.00480918
-0.00998764
-0.0136602
-0.0146934
-0.0145528
-0.0147474
-0.0149555
-0.0151008
-0.0151864
-0.0152616
-0.0155606
-0.0160684
-0.0149338
-0.016244
-0.0163017
-0.0163884
-0.0209009
-0.0165503
-0.0166081
-0.0167092
-0.0167992
-0.0168789
-0.0169489
-0.0170055
-0.0170349
-0.0168413
-0.0170935
-0.0172304
-0.0172821
-0.0173309
-0.0173834
-0.0174347
-0.0174862
-0.0175428
-0.0175482
-0.0174886
-0.0174057
-0.0173545
-0.017423
-0.0175386
-0.0176443
-0.0177158
-0.0177582
-0.0177762
-0.0179614
-0.0179895
-0.0179838
-0.0179759
-0.0179494
-0.0179286
-0.0181077
-0.0181414
-0.018158
-0.0179995
-0.0180398
-0.0181084
-0.0181287
-0.0179161
-0.0163842
0
0
-0.00145873
-0.00546028
-0.0109353
-0.0145885
-0.0156484
-0.0157068
-0.0157589
-0.0158491
-0.015896
-0.015776
-0.0159243
-0.0160179
-0.015645
-0.0251993
-0.0170244
-0.0170145
-0.0169374
-0.0170158
-0.0170326
-0.0170837
-0.0171496
-0.0172141
-0.0172712
-0.0173265
-0.0173708
-0.0173948
-0.0173842
-0.0174636
-0.01755
-0.0176063
-0.0176546
-0.0177052
-0.0177658
-0.0178581
-0.0178751
-0.0179089
-0.0178508
-0.0178045
-0.0177919
-0.0178295
-0.0178957
-0.0179656
-0.018024
-0.0180295
-0.0179582
-0.018328
-0.0183043
-0.0182813
-0.0182707
-0.0181869
-0.018084
-0.0184732
-0.0184713
-0.0185576
-0.0181826
-0.0183003
-0.0183805
-0.0183886
-0.0181633
-0.0165946
0
0
-0.00160111
-0.00609347
-0.0118587
-0.0155663
-0.0166329
-0.0167242
-0.0167167
-0.0167571
-0.0167796
-0.0159139
-0.0165409
-0.0167852
-0.0168216
-0.0172816
-0.0174501
-0.0174468
-0.0174514
-0.0174848
-0.0175134
-0.0175508
-0.0175942
-0.017635
-0.0176615
-0.0177107
-0.0177499
-0.0177737
-0.0177893
-0.0178175
-0.0178977
-0.0179366
-0.0179737
-0.0180165
-0.018082
-0.0183541
-0.0182119
-0.0183999
-0.0182003
-0.018149
-0.0181523
-0.0181832
-0.0182314
-0.0182881
-0.0183552
-0.0184519
-0.0186178
-0.0183182
-0.0184267
-0.0185434
-0.018633
-0.0185501
-0.0186804
-0.018376
-0.0184393
-0.0183955
-0.0188264
-0.0187489
-0.0187043
-0.0186546
-0.0184238
-0.0168221
0
0
-0.00174259
-0.00671711
-0.0127736
-0.016553
-0.0176196
-0.0177072
-0.0176075
-0.0176722
-0.0177333
-0.0186728
-0.0180606
-0.0178138
-0.0177426
-0.0178675
-0.0179359
-0.0179566
-0.0179709
-0.0179806
-0.0179953
-0.0180166
-0.0180424
-0.0180656
-0.0180189
-0.0180986
-0.0181382
-0.0181525
-0.0181686
-0.0181973
-0.0182086
-0.0182509
-0.0182842
-0.0183089
-0.0183053
-0.0180781
-0.0182777
-0.0181135
-0.0183497
-0.0184295
-0.0184692
-0.0185074
-0.0185488
-0.0185943
-0.0186538
-0.018725
-0.0187942
-0.0186996
-0.0187473
-0.0188564
-0.0190284
-0.0187171
-0.0187662
-0.0187868
-0.018791
-0.0188135
-0.0189972
-0.0190069
-0.0189849
-0.0188647
-0.0186951
-0.0170639
0
0
-0.00188448
-0.00733545
-0.0136844
-0.0175408
-0.0186049
-0.0186799
-0.0187231
-0.0186418
-0.0186437
-0.0188126
-0.0186876
-0.0185634
-0.018505
-0.0185062
-0.0185094
-0.0185014
-0.0184835
-0.0184785
-0.0184769
-0.0184809
-0.0184944
-0.018521
-0.0138289
-0.0184848
-0.0185489
-0.0185225
-0.0185225
-0.0178175
-0.0185508
-0.0185832
-0.0185975
-0.0186184
-0.0186182
-0.0185803
-0.0186148
-0.0186107
-0.0186831
-0.0187393
-0.0187826
-0.0188207
-0.0188553
-0.0188814
-0.0189403
-0.0189941
-0.0190312
-0.0190225
-0.0190324
-0.0190189
-0.0189358
-0.0193279
-0.01467
-0.0210123
-0.0191683
-0.0191756
-0.0192428
-0.0192759
-0.0192763
-0.0131341
-0.0189865
-0.01732
0
0
-0.00202717
-0.00795052
-0.0145942
-0.0185303
-0.0195901
-0.0196453
-0.0195854
-0.0194866
-0.019445
-0.0194264
-0.0193749
-0.0192955
-0.0192157
-0.019156
-0.0191074
-0.0190617
-0.0190162
-0.0189805
-0.0189559
-0.0189389
-0.0189284
-0.0189139
-0.0188475
-0.0189326
-0.0189617
-0.0188575
-0.0188368
-0.0188516
-0.0188856
-0.0189121
-0.0189387
-0.0189438
-0.0189469
-0.0189459
-0.0189615
-0.0189785
-0.019016
-0.0190563
-0.0190948
-0.019132
-0.0191622
-0.0191245
-0.0192283
-0.0192817
-0.0193131
-0.0193281
-0.0193404
-0.0193416
-0.0193411
-0.0194962
-0.0194394
-0.0195019
-0.0194853
-0.0194951
-0.0195219
-0.0195402
-0.0195374
-0.0194327
-0.0192489
-0.0175537
0
0
-0.00217007
-0.00856239
-0.0155045
-0.0195261
-0.0205816
-0.0206118
-0.020507
-0.0202726
-0.0202278
-0.0201216
-0.0201234
-0.0200388
-0.0199193
-0.0198037
-0.0197097
-0.0196273
-0.0195414
-0.0194727
-0.0194291
-0.0193926
-0.0193649
-0.0193458
-0.0193369
-0.0193706
-0.0194783
-0.0191315
-0.0190901
-0.0191668
-0.0192149
-0.0192402
-0.0192561
-0.0192642
-0.0192705
-0.0192777
-0.0192911
-0.0193099
-0.0193373
-0.0193695
-0.0194048
-0.0194462
-0.0194858
-0.0151358
-0.0195202
-0.0195899
-0.0196132
-0.0196355
-0.0196556
-0.019673
-0.0196956
-0.0197503
-0.0197594
-0.0197799
-0.0197867
-0.0197973
-0.0198124
-0.0198239
-0.0198216
-0.0197834
-0.019534
-0.0178006
0
0
-0.00231135
-0.00916781
-0.0164135
-0.0205352
-0.0215896
-0.0215991
-0.0215
-0.0124626
-0.0210059
-0.0208416
-0.0209237
-0.0207821
-0.0205979
-0.0204407
-0.0203075
-0.0202005
-0.0200498
-0.0199366
-0.0198953
-0.0198401
-0.0198005
-0.019751
-0.0197273
-0.0197936
-0.0201924
-0.0192285
-0.0193622
-0.0194779
-0.0195548
-0.0195727
-0.0195793
-0.0195835
-0.0195885
-0.0195962
-0.0196086
-0.019626
-0.0196491
-0.0196766
-0.0197072
-0.0197391
-0.0197642
-0.01973
-0.0198238
-0.0198773
-0.0199146
-0.0199459
-0.0199732
-0.0199974
-0.0200214
-0.0200486
-0.0200641
-0.0200773
-0.0200869
-0.020097
-0.0201085
-0.0201195
-0.0201297
-0.0200942
-0.0198276
-0.0180566
0
0
-0.00244801
-0.00975649
-0.0173127
-0.0215725
-0.0226147
-0.0225861
-0.0223984
-0.0220981
-0.0219953
-0.0219676
-0.0215182
-0.0213082
-0.0211607
-0.0210216
-0.0208861
-0.0208145
-0.0205178
-0.0203447
-0.020356
-0.020276
-0.020259
-0.0201381
-0.0200386
-0.0198791
-0.0194114
-0.0203451
-0.0201795
-0.0200343
-0.01994
-0.0199127
-0.019903
-0.0198999
-0.0199012
-0.0199069
-0.0199175
-0.0199332
-0.019954
-0.0199793
-0.0200078
-0.0200372
-0.0200632
-0.0200818
-0.0201308
-0.0201798
-0.0202244
-0.0202639
-0.0202973
-0.0203245
-0.0203463
-0.0203636
-0.0203746
-0.0203828
-0.02039
-0.0203981
-0.0204072
-0.0204166
-0.0204241
-0.0203948
-0.0201231
-0.0183178
0
0
-0.00256956
-0.010291
-0.0183165
-0.0225764
-0.0236532
-0.0235993
-0.0233659
-0.0230968
-0.0228689
-0.0226627
-0.022314
-0.0220369
-0.0218156
-0.0216315
-0.0215148
-0.0215448
-0.0209009
-0.0208749
-0.0207124
-0.0206323
-0.0246765
-0.0205496
-0.0203933
-0.0202791
-0.020125
-0.0204134
-0.020424
-0.0203312
-0.0202697
-0.020237
-0.0202196
-0.0202108
-0.020208
-0.0202107
-0.0202193
-0.0202338
-0.0202537
-0.0202787
-0.0203081
-0.0203393
-0.0203677
-0.0203927
-0.0204355
-0.020489
-0.0205443
-0.0205944
-0.0206347
-0.020664
-0.0206828
-0.0206918
-0.0206941
-0.0206946
-0.0206966
-0.0207016
-0.0207086
-0.0207155
-0.0207233