# vtk DataFile Version 2.0
FlowField
ASCII
DATASET STRUCTURED_GRID
DIMENSIONS 62 47 32 
POINTS 93248 double
0 0 0
0.01 0 0
0.02 0 0
0.03 0 0
0.04 0 0
0.05 0 0
0.06 0 0
0.07 0 0
0.08 0 0
0.09 0 0
0.1 0 0
0.11 0 0
0.12 0 0
0.13 0 0
0.14 0 0
0.15 0 0
0.16 0 0
0.17 0 0
0.18 0 0
0.19 0 0
0.2 0 0
0.21 0 0
0.22 0 0
0.23 0 0
0.24 0 0
0.25 0 0
0.26 0 0
0.27 0 0
0.28 0 0
0.29 0 0
0.3 0 0
0.31 0 0
0.32 0 0
0.33 0 0
0.34 0 0
0.35 0 0
0.36 0 0
0.37 0 0
0.38 0 0
0.39 0 0
0.4 0 0
0.41 0 0
0.42 0 0
0.43 0 0
0.44 0 0
0.45 0 0
0.46 0 0
0.47 0 0
0.48 0 0
0.49 0 0
0.5 0 0
0.51 0 0
0.52 0 0
0.53 0 0
0.54 0 0
0.55 0 0
0.56 0 0
0.57 0 0
0.58 0 0
0.59 0 0
0.6 0 0
0.61 0 0
0 0.01 0
0.01 0.01 0
0.02 0.01 0
0.03 0.01 0
0.04 0.01 0
0.05 0.01 0
0.06 0.01 0
0.07 0.01 0
0.08 0.01 0
0.09 0.01 0
0.1 0.01 0
0.11 0.01 0
0.12 0.01 0
0.13 0.01 0
0.14 0.01 0
0.15 0.01 0
0.16 0.01 0
0.17 0.01 0
0.18 0.01 0
0.19 0.01 0
0.2 0.01 0
0.21 0.01 0
0.22 0.01 0
0.23 0.01 0
0.24 0.01 0
0.25 0.01 0
0.26 0.01 0
0.27 0.01 0
0.28 0.01 0
0.29 0.01 0
0.3 0.01 0
0.31 0.01 0
0.32 0.01 0
0.33 0.01 0
0.34 0.01 0
0.35 0.01 0
0.36 0.01 0
0.37 0.01 0
0.38 0.01 0
0.39 0.01 0
0.4 0.01 0
0.41 0.01 0
0.42 0.01 0
0.43 0.01 0
0.44 0.01 0
0.45 0.01 0
0.46 0.01 0
0.47 0.01 0
0.48 0.01 0
0.49 0.01 0
0.5 0.01 0
0.51 0.01 0
0.52 0.01 0
0.53 0.01 0
0.54 0.01 0
0.55 0.01 0
0.56 0.01 0
0.57 0.01 0
0.58 0.01 0
0.59 0.01 0
0.6 0.01 0
0.61 0.01 0
0 0.02 0
0.01 0.02 0
0.02 0.02 0
0.03 0.02 0
0.04 0.02 0
0.05 0.02 0
0.06 0.02 0
0.07 0.02 0
0.08 0.02 0
0.09 0.02 0
0.1 0.02 0
0.11 0.02 0
0.12 0.02 0
0.13 0.02 0
0.14 0.02 0
0.15 0.02 0
0.16 0.02 0
0.17 0.02 0
0.18 0.02 0
0.19 0.02 0
0.2 0.02 0
0.21 0.02 0
0.22 0.02 0
0.23 0.02 0
0.24 0.02 0
0.25 0.02 0
0.26 0.02 0
0.27 0.02 0
0.28 0.02 0
0.29 0.02 0
0.3 0.02 0
0.31 0.02 0
0.32 0.02 0
0.33 0.02 0
0.34 0.02 0
0.35 0.02 0
0.36 0.02 0
0.37 0.02 0
0.38 0.02 0
0.39 0.02 0
0.4 0.02 0
0.41 0.02 0
0.42 0.02 0
0.43 0.02 0
0.44 0.02 0
0.45 0.02 0
0.46 0.02 0
0.47 0.02 0
0.48 0.02 0
0.49 0.02 0
0.5 0.02 0
0.51 0.02 0
0.52 0.02 0
0.53 0.02 0
0.54 0.02 0
0.55 0.02 0
0.56 0.02 0
0.57 0.02 0
0.58 0.02 0
0.59 0.02 0
0.6 0.02 0
0.61 0.02 0
0 0.03 0
0.01 0.03 0
0.02 0.03 0
0.03 0.03 0
0.04 0.03 0
0.05 0.03 0
0.06 0.03 0
0.07 0.03 0
0.08 0.03 0
0.09 0.03 0
0.1 0.03 0
0.11 0.03 0
0.12 0.03 0
0.13 0.03 0
0.14 0.03 0
0.15 0.03 0
0.16 0.03 0
0.17 0.03 0
0.18 0.03 0
0.19 0.03 0
0.2 0.03 0
0.21 0.03 0
0.22 0.03 0
0.23 0.03 0
0.24 0.03 0
0.25 0.03 0
0.26 0.03 0
0.27 0.03 0
0.28 0.03 0
0.29 0.03 0
0.3 0.03 0
0.31 0.03 0
0.32 0.03 0
0.33 0.03 0
0.34 0.03 0
0.35 0.03 0
0.36 0.03 0
0.37 0.03 0
0.38 0.03 0
0.39 0.03 0
0.4 0.03 0
0.41 0.03 0
0.42 0.03 0
0.43 0.03 0
0.44 0.03 0
0.45 0.03 0
0.46 0.03 0
0.47 0.03 0
0.48 0.03 0
0.49 0.03 0
0.5 0.03 0
0.51 0.03 0
0.52 0.03 0
0.53 0.03 0
0.54 0.03 0
0.55 0.03 0
0.56 0.03 0
0.57 0.03 0
0.58 0.03 0
0.59 0.03 0
0.6 0.03 0
0.61 0.03 0
0 0.04 0
0.01 0.04 0
0.02 0.04 0
0.03 0.04 0
0.04 0.04 0
0.05 0.04 0
0.06 0.04 0
0.07 0.04 0
0.08 0.04 0
0.09 0.04 0
0.1 0.04 0
0.11 0.04 0
0.12 0.04 0
0.13 0.04 0
0.14 0.04 0
0.15 0.04 0
0.16 0.04 0
0.17 0.04 0
0.18 0.04 0
0.19 0.04 0
0.2 0.04 0
0.21 0.04 0
0.22 0.04 0
0.23 0.04 0
0.24 0.04 0
0.25 0.04 0
0.26 0.04 0
0.27 0.04 0
0.28 0.04 0
0.29 0.04 0
0.3 0.04 0
0.31 0.04 0
0.32 0.04 0
0.33 0.04 0
0.34 0.04 0
0.35 0.04 0
0.36 0.04 0
0.37 0.04 0
0.38 0.04 0
0.39 0.04 0
0.4 0.04 0
0.41 0.04 0
0.42 0.04 0
0.43 0.04 0
0.44 0.04 0
0.45 0.04 0
0.46 0.04 0
0.47 0.04 0
0.48 0.04 0
0.49 0.04 0
0.5 0.04 0
0.51 0.04 0
0.52 0.04 0
0.53 0.04 0
0.54 0.04 0
0.55 0.04 0
0.56 0.04 0
0.57 0.04 0
0.58 0.04 0
0.59 0.04 0
0.6 0.04 0
0.61 0.04 0
0 0.05 0
0.01 0.05 0
0.02 0.05 0
0.03 0.05 0
0.04 0.05 0
0.05 0.05 0
0.06 0.05 0
0.07 0.05 0
0.08 0.05 0
0.09 0.05 0
0.1 0.05 0
0.11 0.05 0
0.12 0.05 0
0.13 0.05 0
0.14 0.05 0
0.15 0.05 0
0.16 0.05 0
0.17 0.05 0
0.18 0.05 0
0.19 0.05 0
0.2 0.05 0
0.21 0.05 0
0.22 0.05 0
0.23 0.05 0
0.24 0.05 0
0.25 0.05 0
0.26 0.05 0
0.27 0.05 0
0.28 0.05 0
0.29 0.05 0
0.3 0.05 0
0.31 0.05 0
0.32 0.05 0
0.33 0.05 0
0.34 0.05 0
0.35 0.05 0
0.36 0.05 0
0.37 0.05 0
0.38 0.05 0
0.39 0.05 0
0.4 0.05 0
0.41 0.05 0
0.42 0.05 0
0.43 0.05 0
0.44 0.05 0
0.45 0.05 0
0.46 0.05 0
0.47 0.05 0
0.48 0.05 0
0.49 0.05 0
0.5 0.05 0
0.51 0.05 0
0.52 0.05 0
0.53 0.05 0
0.54 0.05 0
0.55 0.05 0
0.56 0.05 0
0.57 0.05 0
0.58 0.05 0
0.59 0.05 0
0.6 0.05 0
0.61 0.05 0
0 0.06 0
0.01 0.06 0
0.02 0.06 0
0.03 0.06 0
0.04 0.06 0
0.05 0.06 0
0.06 0.06 0
0.07 0.06 0
0.08 0.06 0
0.09 0.06 0
0.1 0.06 0
0.11 0.06 0
0.12 0.06 0
0.13 0.06 0
0.14 0.06 0
0.15 0.06 0
0.16 0.06 0
0.17 0.06 0
0.18 0.06 0
0.19 0.06 0
0.2 0.06 0
0.21 0.06 0
0.22 0.06 0
0.23 0.06 0
0.24 0.06 0
0.25 0.06 0
0.26 0.06 0
0.27 0.06 0
0.28 0.06 0
0.29 0.06 0
0.3 0.06 0
0.31 0.06 0
0.32 0.06 0
0.33 0.06 0
0.34 0.06 0
0.35 0.06 0
0.36 0.06 0
0.37 0.06 0
0.38 0.06 0
0.39 0.06 0
0.4 0.06 0
0.41 0.06 0
0.42 0.06 0
0.43 0.06 0
0.44 0.06 0
0.45 0.06 0
0.46 0.06 0
0.47 0.06 0
0.48 0.06 0
0.49 0.06 0
0.5 0.06 0
0.51 0.06 0
0.52 0.06 0
0.53 0.06 0
0.54 0.06 0
0.55 0.06 0
0.56 0.06 0
0.57 0.06 0
0.58 0.06 0
0.59 0.06 0
0.6 0.06 0
0.61 0.06 0
0 0.07 0
0.01 0.07 0
0.02 0.07 0
0.03 0.07 0
0.04 0.07 0
0.05 0.07 0
0.06 0.07 0
0.07 0.07 0
0.08 0.07 0
0.09 0.07 0
0.1 0.07 0
0.11 0.07 0
0.12 0.07 0
0.13 0.07 0
0.14 0.07 0
0.15 0.07 0
0.16 0.07 0
0.17 0.07 0
0.18 0.07 0
0.19 0.07 0
0.2 0.07 0
0.21 0.07 0
0.22 0.07 0
0.23 0.07 0
0.24 0.07 0
0.25 0.07 0
0.26 0.07 0
0.27 0.07 0
0.28 0.07 0
0.29 0.07 0
0.3 0.07 0
0.31 0.07 0
0.32 0.07 0
0.33 0.07 0
0.34 0.07 0
0.35 0.07 0
0.36 0.07 0
0.37 0.07 0
0.38 0.07 0
0.39 0.07 0
0.4 0.07 0
0.41 0.07 0
0.42 0.07 0
0.43 0.07 0
0.44 0.07 0
0.45 0.07 0
0.46 0.07 0
0.47 0.07 0
0.48 0.07 0
0.49 0.07 0
0.5 0.07 0
0.51 0.07 0
0.52 0.07 0
0.53 0.07 0
0.54 0.07 0
0.55 0.07 0
0.56 0.07 0
0.57 0.07 0
0.58 0.07 0
0.59 0.07 0
0.6 0.07 0
0.61 0.07 0
0 0.08 0
0.01 0.08 0
0.02 0.08 0
0.03 0.08 0
0.04 0.08 0
0.05 0.08 0
0.06 0.08 0
0.07 0.08 0
0.08 0.08 0
0.09 0.08 0
0.1 0.08 0
0.11 0.08 0
0.12 0.08 0
0.13 0.08 0
0.14 0.08 0
0.15 0.08 0
0.16 0.08 0
0.17 0.08 0
0.18 0.08 0
0.19 0.08 0
0.2 0.08 0
0.21 0.08 0
0.22 0.08 0
0.23 0.08 0
0.24 0.08 0
0.25 0.08 0
0.26 0.08 0
0.27 0.08 0
0.28 0.08 0
0.29 0.08 0
0.3 0.08 0
0.31 0.08 0
0.32 0.08 0
0.33 0.08 0
0.34 0.08 0
0.35 0.08 0
0.36 0.08 0
0.37 0.08 0
0.38 0.08 0
0.39 0.08 0
0.4 0.08 0
0.41 0.08 0
0.42 0.08 0
0.43 0.08 0
0.44 0.08 0
0.45 0.08 0
0.46 0.08 0
0.47 0.08 0
0.48 0.08 0
0.49 0.08 0
0.5 0.08 0
0.51 0.08 0
0.52 0.08 0
0.53 0.08 0
0.54 0.08 0
0.55 0.08 0
0.56 0.08 0
0.57 0.08 0
0.58 0.08 0
0.59 0.08 0
0.6 0.08 0
0.61 0.08 0
0 0.09 0
0.01 0.09 0
0.02 0.09 0
0.03 0.09 0
0.04 0.09 0
0.05 0.09 0
0.06 0.09 0
0.07 0.09 0
0.08 0.09 0
0.09 0.09 0
0.1 0.09 0
0.11 0.09 0
0.12 0.09 0
0.13 0.09 0
0.14 0.09 0
0.15 0.09 0
0.16 0.09 0
0.17 0.09 0
0.18 0.09 0
0.19 0.09 0
0.2 0.09 0
0.21 0.09 0
0.22 0.09 0
0.23 0.09 0
0.24 0.09 0
0.25 0.09 0
0.26 0.09 0
0.27 0.09 0
0.28 0.09 0
0.29 0.09 0
0.3 0.09 0
0.31 0.09 0
0.32 0.09 0
0.33 0.09 0
0.34 0.09 0
0.35 0.09 0
0.36 0.09 0
0.37 0.09 0
0.38 0.09 0
0.39 0.09 0
0.4 0.09 0
0.41 0.09 0
0.42 0.09 0
0.43 0.09 0
0.44 0.09 0
0.45 0.09 0
0.46 0.09 0
0.47 0.09 0
0.48 0.09 0
0.49 0.09 0
0.5 0.09 0
0.51 0.09 0
0.52 0.09 0
0.53 0.09 0
0.54 0.09 0
0.55 0.09 0
0.56 0.09 0
0.57 0.09 0
0.58 0.09 0
0.59 0.09 0
0.6 0.09 0
0.61 0.09 0
0 0.1 0
0.01 0.1 0
0.02 0.1 0
0.03 0.1 0
0.04 0.1 0
0.05 0.1 0
0.06 0.1 0
0.07 0.1 0
0.08 0.1 0
0.09 0.1 0
0.1 0.1 0
0.11 0.1 0
0.12 0.1 0
0.13 0.1 0
0.14 0.1 0
0.15 0.1 0
0.16 0.1 0
0.17 0.1 0
0.18 0.1 0
0.19 0.1 0
0.2 0.1 0
0.21 0.1 0
0.22 0.1 0
0.23 0.1 0
0.24 0.1 0
0.25 0.1 0
0.26 0.1 0
0.27 0.1 0
0.28 0.1 0
0.29 0.1 0
0.3 0.1 0
0.31 0.1 0
0.32 0.1 0
0.33 0.1 0
0.34 0.1 0
0.35 0.1 0
0.36 0.1 0
0.37 0.1 0
0.38 0.1 0
0.39 0.1 0
0.4 0.1 0
0.41 0.1 0
0.42 0.1 0
0.43 0.1 0
0.44 0.1 0
0.45 0.1 0
0.46 0.1 0
0.47 0.1 0
0.48 0.1 0
0.49 0.1 0
0.5 0.1 0
0.51 0.1 0
0.52 0.1 0
0.53 0.1 0
0.54 0.1 0
0.55 0.1 0
0.56 0.1 0
0.57 0.1 0
0.58 0.1 0
0.59 0.1 0
0.6 0.1 0
0.61 0.1 0
0 0.11 0
0.01 0.11 0
0.02 0.11 0
0.03 0.11 0
0.04 0.11 0
0.05 0.11 0
0.06 0.11 0
0.07 0.11 0
0.08 0.11 0
0.09 0.11 0
0.1 0.11 0
0.11 0.11 0
0.12 0.11 0
0.13 0.11 0
0.14 0.11 0
0.15 0.11 0
0.16 0.11 0
0.17 0.11 0
0.18 0.11 0
0.19 0.11 0
0.2 0.11 0
0.21 0.11 0
0.22 0.11 0
0.23 0.11 0
0.24 0.11 0
0.25 0.11 0
0.26 0.11 0
0.27 0.11 0
0.28 0.11 0
0.29 0.11 0
0.3 0.11 0
0.31 0.11 0
0.32 0.11 0
0.33 0.11 0
0.34 0.11 0
0.35 0.11 0
0.36 0.11 0
0.37 0.11 0
0.38 0.11 0
0.39 0.11 0
0.4 0.11 0
0.41 0.11 0
0.42 0.11 0
0.43 0.11 0
0.44 0.11 0
0.45 0.11 0
0.46 0.11 0
0.47 0.11 0
0.48 0.11 0
0.49 0.11 0
0.5 0.11 0
0.51 0.11 0
0.52 0.11 0
0.53 0.11 0
0.54 0.11 0
0.55 0.11 0
0.56 0.11 0
0.57 0.11 0
0.58 0.11 0
0.59 0.11 0
0.6 0.11 0
0.61 0.11 0
0 0.12 0
0.01 0.12 0
0.02 0.12 0
0.03 0.12 0
0.04 0.12 0
0.05 0.12 0
0.06 0.12 0
0.07 0.12 0
0.08 0.12 0
0.09 0.12 0
0.1 0.12 0
0.11 0.12 0
0.12 0.12 0
0.13 0.12 0
0.14 0.12 0
0.15 0.12 0
0.16 0.12 0
0.17 0.12 0
0.18 0.12 0
0.19 0.12 0
0.2 0.12 0
0.21 0.12 0
0.22 0.12 0
0.23 0.12 0
0.24 0.12 0
0.25 0.12 0
0.26 0.12 0
0.27 0.12 0
0.28 0.12 0
0.29 0.12 0
0.3 0.12 0
0.31 0.12 0
0.32 0.12 0
0.33 0.12 0
0.34 0.12 0
0.35 0.12 0
0.36 0.12 0
0.37 0.12 0
0.38 0.12 0
0.39 0.12 0
0.4 0.12 0
0.41 0.12 0
0.42 0.12 0
0.43 0.12 0
0.44 0.12 0
0.45 0.12 0
0.46 0.12 0
0.47 0.12 0
0.48 0.12 0
0.49 0.12 0
0.5 0.12 0
0.51 0.12 0
0.52 0.12 0
0.53 0.12 0
0.54 0.12 0
0.55 0.12 0
0.56 0.12 0
0.57 0.12 0
0.58 0.12 0
0.59 0.12 0
0.6 0.12 0
0.61 0.12 0
0 0.13 0
0.01 0.13 0
0.02 0.13 0
0.03 0.13 0
0.04 0.13 0
0.05 0.13 0
0.06 0.13 0
0.07 0.13 0
0.08 0.13 0
0.09 0.13 0
0.1 0.13 0
0.11 0.13 0
0.12 0.13 0
0.13 0.13 0
0.14 0.13 0
0.15 0.13 0
0.16 0.13 0
0.17 0.13 0
0.18 0.13 0
0.19 0.13 0
0.2 0.13 0
0.21 0.13 0
0.22 0.13 0
0.23 0.13 0
0.24 0.13 0
0.25 0.13 0
0.26 0.13 0
0.27 0.13 0
0.28 0.13 0
0.29 0.13 0
0.3 0.13 0
0.31 0.13 0
0.32 0.13 0
0.33 0.13 0
0.34 0.13 0
0.35 0.13 0
0.36 0.13 0
0.37 0.13 0
0.38 0.13 0
0.39 0.13 0
0.4 0.13 0
0.41 0.13 0
0.42 0.13 0
0.43 0.13 0
0.44 0.13 0
0.45 0.13 0
0.46 0.13 0
0.47 0.13 0
0.48 0.13 0
[...]
POINT_DATA 93248

SCALARS w double
LOOKUP_TABLE default
0
0
0
0
0
0
0
0
0
0
0
0
0
-0.0875545
0
0
0
0
0
0
0
0
0
0
0
0
-0.196033
0
0
0
0
0
-0.195206
0
0
0
0
0
0
0
0
0
0
0
0
0
-0.173682
0
0
0
0
0
0
0
0
0
0
0
0
0
0
0
0
-0.0214069
-0.0433319
-0.0590219
-0.0684031
-0.0735048
-0.0773273
-0.0803063
-0.0826364
-0.0842537
-0.0849791
-0.0845671
-0.0830992
-0.0835064
-0.0845131
-0.0854248
-0.0861263
-0.0867788
-0.0868796
-0.085484
-0.0793828
-0.0798727
-0.0826537
-0.0815827
-0.0806457
-0.0800184
-0.0795169
-0.0790492
-0.0785823
-0.0780828
-0.0774652
-0.0765583
-0.0753668
-0.0755722
-0.0756111
-0.0746772
-0.0733402
-0.0745737
-0.0763855
-0.0795362
-0.0726148
-0.0746763
-0.0774092
-0.0793973
-0.0825255
-0.186328
-0.0774454
-0.0762559
-0.0762289
-0.0772933
-0.0784758
-0.0801035
-0.0802284
-0.0827551
-0.187244
-0.0810943
-0.0752524
-0.0746623
-0.0747793
-0.073442
-0.0687235
0
0
-0.0253368
-0.0614248
-0.084116
-0.101303
-0.114306
-0.128722
-0.140908
-0.150759
-0.158584
-0.164413
-0.167749
-0.168055
-0.170351
-0.172053
-0.173151
-0.173898
-0.174885
-0.175459
-0.175674
-0.164097
-0.166156
-0.218945
-0.167186
-0.164238
-0.16269
-0.161557
-0.160573
-0.159654
-0.158761
-0.157843
-0.15673
-0.154941
-0.155523
-0.155347
-0.154054
-0.154374
-0.153426
-0.153703
-0.156756
-0.154787
-0.1568
-0.158326
-0.160218
-0.164189
-0.169603
-0.165421
-0.159695
-0.157992
-0.157937
-0.159546
-0.187486
-0.162358
-0.164583
-0.168957
-0.163927
-0.160408
-0.154633
-0.151698
-0.146383
-0.135967
0
0
-0.0251538
-0.0615212
-0.0866512
-0.106584
-0.0735048
-0.138299
-0.155209
-0.169181
-0.181256
-0.191821
-0.199813
-0.208083
-0.210067
-0.211022
-0.211312
-0.211723
-0.212757
-0.212659
-0.21324
-0.212074
-0.208014
-0.207462
-0.203641
-0.200791
-0.19877
-0.197207
-0.19589
-0.194725
-0.193696
-0.192892
-0.19267
-0.193862
-0.204317
-0.191488
-0.187808
-0.187578
-0.187248
-0.187421
-0.188827
-0.189033
-0.190239
-0.191863
-0.192233
-0.194867
-0.197424
-0.195167
-0.192954
-0.191554
-0.191869
-0.192668
-0.194619
-0.19466
-0.195716
-0.196866
-0.196213
-0.195166
-0.193111
-0.186272
-0.17801
-0.164846
0
0
-0.024641
-0.0602561
-0.0615584
-0.107818
-0.125716
-0.143758
-0.159579
-0.173681
-0.186416
-0.197904
-0.207698
-0.216066
-0.221109
-0.223633
-0.223877
-0.224231
-0.22286
-0.223296
-0.223843
-0.222054
-0.21982
-0.217682
-0.215201
-0.212898
-0.210918
-0.209227
-0.207757
-0.206464
-0.205347
-0.204467
-0.203944
-0.203763
-0.202965
-0.201617
-0.199628
-0.198803
-0.198428
-0.198773
-0.198892
-0.199393
-0.200131
-0.201006
-0.201407
-0.202467
-0.203479
-0.203346
-0.202139
-0.201405
-0.201559
-0.201985
-0.202673
-0.20321
-0.203825
-0.204408
-0.204817
-0.204511
-0.20251
-0.196998
-0.188375
-0.174268
0
0
-0.0245116
-0.0604142
-0.0873356
-0.110367
-0.129509
-0.146628
-0.161782
-0.17544
-0.187886
-0.199096
-0.208859
-0.216908
-0.222655
-0.225615
-0.197033
-0.226401
-0.226472
-0.225742
-0.224962
-0.223152
-0.221091
-0.218945
-0.216815
-0.214794
-0.212936
-0.211271
-0.209769
-0.208421
-0.207235
-0.20622
-0.20533
-0.204317
-0.202709
-0.202047
-0.201316
-0.200714
-0.200284
-0.200052
-0.200094
-0.200322
-0.200675
-0.201055
-0.201301
-0.201631
-0.202088
-0.203107
-0.201673
-0.20138
-0.201591
-0.201955
-0.202403
-0.202928
-0.203501
-0.2041
-0.204622
-0.204437
-0.2025
-0.197483
-0.188799
-0.174695
0
0
-0.0244655
-0.0604803
-0.0884217
-0.111445
-0.131072
-0.148379
-0.163144
-0.176521
-0.18877
-0.199661
-0.209012
-0.216619
-0.222308
-0.225583
-0.225987
-0.226548
-0.22624
-0.220482
-0.223771
-0.221883
-0.21971
-0.217524
-0.21544
-0.213481
-0.211659
-0.210047
-0.208551
-0.207179
-0.205954
-0.204878
-0.203878
-0.202683
-0.200469
-0.200588
-0.200281
-0.199719
-0.199177
-0.198773
-0.198546
-0.198485
-0.198535
-0.198616
-0.198593
-0.198446
-0.197842
-0.196231
-0.197404
-0.198263
-0.198839
-0.1993
-0.199755
-0.200294
-0.200934
-0.201594
-0.202079
-0.201799
-0.199544
-0.193468
-0.182546
-0.170542
0
0
-0.0244141
-0.0603994
-0.0885344
-0.111688
-0.131632
-0.149636
-0.163568
-0.177246
-0.189451
-0.200081
-0.208978
-0.216015
-0.221647
-0.224993
-0.225942
-0.22496
-0.224672
-0.223994
-0.222485
-0.220358
-0.217987
-0.215724
-0.213608
-0.211614
-0.209735
-0.208222
-0.206722
-0.205326
-0.2041
-0.203072
-0.202271
-0.201973
-0.203123
-0.201186
-0.199542
-0.198371
-0.197527
-0.196926
-0.196519
-0.196268
-0.196128
-0.196049
-0.195816
-0.19558
-0.195134
-0.19458
-0.194979
-0.195566
-0.196085
-0.196534
-0.196987
-0.197553
-0.198304
-0.19903
-0.199506
-0.199133
-0.196277
-0.18665
-0.073442
-0.164419
0
0
-0.0243496
-0.0602339
-0.0883361
-0.111482
-0.131418
-0.149061
-0.164048
-0.177635
-0.189723
-0.200096
-0.208409
-0.214061
-0.220436
-0.223929
-0.224545
-0.221448
-0.194327
-0.222474
-0.221271
-0.218973
-0.216398
-0.214119
-0.211992
-0.209928
-0.207866
-0.206607
-0.205036
-0.203607
-0.202409
-0.201479
-0.200758
-0.200295
-0.200108
-0.199019
-0.197765
-0.196675
-0.195792
-0.19512
-0.194634
-0.194291
-0.19405
-0.193866
-0.193653
-0.193458
-0.193261
-0.193151
-0.1933
-0.193603
-0.193947
-0.194294
-0.19468
-0.195224
-0.196183
-0.197017
-0.197586
-0.197526
-0.195919
-0.190831
-0.177315
-0.166529
0
0
-0.0242806
-0.0600389
-0.0880405
-0.111105
-0.130958
-0.148443
-0.163844
-0.177571
-0.189645
-0.199795
-0.207102
-0.168055
-0.217612
-0.222475
-0.223774
-0.222475
-0.221719
-0.221389
-0.219856
-0.217632
-0.214923
-0.212822
-0.210708
-0.208573
-0.206438
-0.204909
-0.203405
-0.202037
-0.200934
-0.200183
-0.199473
-0.198686
-0.197823
-0.19682
-0.195816
-0.194919
-0.194102
-0.193454
-0.192974
-0.192619
-0.192353
-0.192148
-0.19198
-0.191858
-0.191791
-0.191809
-0.191919
-0.192108
-0.192337
-0.192576
-0.192834
-0.191898
-0.194617
-0.195573
-0.196234
-0.196389
-0.195263
-0.191304
-0.182324
-0.167281
0
0
-0.0242149
-0.0598483
-0.0877378
-0.1107
-0.130473
-0.147903
-0.163426
-0.177268
-0.189427
-0.199672
-0.2075
-0.212125
-0.218279
-0.222151
-0.22374
-0.223346
-0.222245
-0.220717
-0.218741
-0.216581
-0.214741
-0.2122
-0.209749
-0.207388
-0.201905
-0.203404
-0.201906
-0.200555
-0.199541
-0.199086
-0.198401
-0.197254
-0.19602
-0.194934
-0.194026
-0.1933
-0.192526
-0.191927
-0.191507
-0.191192
-0.190946
-0.190759
-0.190638
-0.190575
-0.190572
-0.190633
-0.190752
-0.19092
-0.191112
-0.191297
-0.191505
-0.191898
-0.193643
-0.194535
-0.195231
-0.195502
-0.194583
-0.191048
-0.183026
-0.16752
0
0
-0.0241576
-0.0596806
-0.0874699
-0.110337
-0.130052
-0.147457
-0.16302
-0.17694
-0.189216
-0.199685
-0.208119
-0.214486
-0.219413
-0.22257
-0.22422
-0.223712
-0.222142
-0.220051
-0.217707
-0.215359
-0.213154
-0.21084
-0.20853
-0.206258
-0.203999
-0.202162
-0.200469
-0.199006
-0.197856
-0.197185
-0.197314
-0.195377
-0.19398
-0.193013
-0.192277
-0.191688
-0.191176
-0.190537
-0.190203
-0.189947
-0.189728
-0.189549
-0.189488
-0.189486
-0.189532
-0.189627
-0.189773
-0.189972
-0.1902
-0.190408
-0.190705
-0.191306
-0.192565
-0.193569
-0.194371
-0.194744
-0.193947
-0.190577
-0.182776
-0.167376
0
0
-0.0241111
-0.0595454
-0.0872646
-0.110119
-0.129766
-0.147126
-0.162692
-0.176661
-0.189036
-0.199684
-0.208411
-0.215125
-0.219827
-0.222686
-0.224526
-0.223338
-0.221395
-0.21907
-0.216524
-0.214067
-0.211768
-0.209542
-0.207345
-0.205162
-0.202997
-0.200908
-0.198915
-0.197129
-0.19541
-0.193807
-0.190964
-0.191107
-0.19113
-0.190895
-0.190538
-0.190151
-0.18977
-0.189351
-0.18906
-0.18883
-0.188591
-0.188291
-0.188401
-0.188509
-0.188619
-0.188758
-0.188948
-0.189211
-0.189535
-0.189775
-0.190142
-0.190785
-0.191741
-0.192728
-0.193606
-0.194079
-0.193387
-0.190109
-0.182399
-0.16708
0
0
-0.0240746
-0.0594392
-0.0871039
-0.109936
-0.129512
-0.14684
-0.162411
-0.176418
-0.188863
-0.199621
-0.20844
-0.215173
-0.219685
-0.221865
-0.221166
-0.221029
-0.21984
-0.217783
-0.215163
-0.212783
-0.210606
-0.208493
-0.206364
-0.204179
-0.201905
-0.199503
-0.196964
-0.194337
-0.190815
-0.189864
-0.189117
-0.189111
-0.189203
-0.189177
-0.189017
-0.188772
-0.188514
-0.188186
-0.187951
-0.18774
-0.187393
-0.181228
-0.187241
-0.187588
-0.187794
-0.187987
-0.188221
-0.188555
-0.189024
-0.18921
-0.189601
-0.190268
-0.191149
-0.192089
-0.192994
-0.193543
-0.192964
-0.189726
-0.182057
-0.166753
0
0
-0.0240468
-0.0593596
-0.0869986
-0.111482
-0.129365
-0.146618
-0.162179
-0.176205
-0.188683
-0.199449
-0.208328
-0.215051
-0.219486
-0.221639
-0.221732
-0.220971
-0.219393
-0.217058
-0.213919
-0.211783
-0.209854
-0.207845
-0.205706
-0.203415
-0.200897
-0.197968
-0.194258
-0.188815
-0.176103
-0.180923
-0.18448
-0.186344
-0.187261
-0.187635
-0.187675
-0.187535
-0.188822
-0.186969
-0.186701
-0.186544
-0.186371
-0.186107
-0.186453
-0.186773
-0.18704
-0.187278
-0.187521
-0.187844
-0.188433
-0.18849
-0.188977
-0.189785
-0.190816
-0.191674
-0.192572
-0.193176
-0.193468
-0.18946
-0.181779
-0.166435
0
0
-0.0240248
-0.0592928
-0.0868571
-0.109597
-0.1291
-0.146393
-0.16197
-0.176017
-0.188522
-0.199331
-0.208214
-0.214927
-0.219353
-0.221586
-0.221986
-0.221119
-0.219376
-0.216913
-0.21318
-0.211718
-0.209909
-0.207769
-0.205446
-0.202945
-0.200119
-0.196539
-0.19082
-0.176733
0.0826319
-0.162848
-0.177854
-0.183328
-0.185534
-0.186378
-0.186538
-0.186311
-0.185886
-0.185257
-0.184733
-0.184704
-0.184906
-0.18519
-0.185578
-0.185971
-0.186328
-0.186611
-0.186808
-0.186834
-0.186549
-0.187313
-0.188255
-0.189407
-0.194617
-0.191517
-0.192374
-0.192894
-0.192395
-0.18922
-0.181561
-0.166129
0
0
-0.0240103
-0.0592628
-0.0867557
-0.109378
-0.128884
-0.146195
-0.161796
-0.175862
-0.188385
-0.199219
-0.20813
-0.214851
-0.219271
-0.221523
-0.221974
-0.221121
-0.219497
-0.21779
-0.217469
-0.214149
-0.210969
-0.208122
-0.205437
-0.202728
-0.199758
-0.19611
-0.190888
-0.182108
-0.167305
-0.17454
-0.180447
-0.183738
-0.185319
-0.185868
-0.185755
-0.185133
-0.18403
-0.182344
-0.180074
-0.180861
-0.182234
-0.183428
-0.184355
-0.18507
-0.185631
-0.186014
-0.186271
-0.186309
-0.186386
-0.186724
-0.187718
-0.188941
-0.190299
-0.191357
-0.192634
-0.192804
-0.192187
-0.189059
-0.181401
-0.165816
0
0
-0.0239887
-0.0592499
-0.086642
-0.109179
-0.128676
-0.146046
-0.161695
-0.175765
-0.188288
-0.199146
-0.208122
-0.21485
-0.219222
-0.221404
-0.221797
-0.22092
-0.219297
-0.217444
-0.215746
-0.213239
-0.210523
-0.20785
-0.205233
-0.202586
-0.199769
-0.196593
-0.192821
-0.188072
-0.183838
-0.183833
-0.18491
-0.185771
-0.186118
-0.185949
-0.185281
-0.183967
-0.18153
-0.176422
-0.164919
-0.172092
-0.177676
-0.180966
-0.182912
-0.184135
-0.184977
-0.185504
-0.185893
-0.186152
-0.186239
-0.186211
-0.187407
-0.188653
-0.189905
-0.191494
-0.204817
-0.192977
-0.192153
-0.188962
-0.181281
-0.16535
0
0
-0.0238985
-0.0588089
-0.0862204
-0.108822
-0.128425
-0.147903
-0.161771
-0.175748
-0.188218
-0.199102
-0.208231
-0.214917
-0.219144
-0.221154
-0.221416
-0.220479
-0.218794
-0.216709
-0.214512
-0.212179
-0.209784
-0.207379
-0.204967
-0.202517
-0.199985
-0.197369
-0.194787
-0.191377
-0.188866
-0.18812
-0.187876
-0.187582
-0.187065
-0.186255
-0.185045
-0.182979
-0.178668
-0.165607
0.0844696
-0.155791
-0.172367
-0.178793
-0.18179
-0.183403
-0.184347
-0.185091
-0.185661
-0.186127
-0.186415
-0.186152
-0.187648
-0.188708
-0.189724
-0.190999
-0.19252
-0.192326
-0.192045
-0.188783
-0.181011
-0.165093
0
0
-0.0238858
-0.0588225
-0.0861555
-0.108632
-0.128259
-0.146043
-0.161672
-0.1756
-0.188027
-0.198971
-0.208456
-0.214912
-0.21886
-0.220604
-0.220717
-0.219792
-0.218122
-0.215918
-0.213704
-0.211509
-0.209304
-0.207083
-0.204841
-0.202565
-0.200247
-0.197913
-0.195634
-0.193369
-0.190868
-0.190452
-0.189821
-0.188919
-0.187853
-0.186617
-0.185124
-0.182893
-0.179072
-0.171706
-0.158234
-0.167274
-0.17506
-0.179354
-0.181801
-0.183263
-0.184211
-0.184949
-0.185608
-0.18636
-0.18754
-0.189593
-0.189024
-0.189051
-0.189585
-0.190442
-0.19138
-0.191861
-0.191475
-0.188328
-0.180553
-0.164617
0
0
-0.0238954
-0.0588674
-0.0861511
-0.108464
-0.128142
-0.146215
-0.161461
-0.175183
-0.187537
-0.198471
-0.208385
-0.214255
-0.218032
-0.219563
-0.219636
-0.218977
-0.217504
-0.215209
-0.213251
-0.211274
-0.209207
-0.207081
-0.204927
-0.202737
-0.200485
-0.198119
-0.195517
-0.194829
-0.195369
-0.193407
-0.191521
-0.189885
-0.188389
-0.186945
-0.18543
-0.183584
-0.181192
-0.178269
-0.175765
-0.177003
-0.179314
-0.181228
-0.182633
-0.183596
-0.184319
-0.184964
-0.185588
-0.186309
-0.187255
-0.18833
-0.18862
-0.18888
-0.189349
-0.190078
-0.19097
-0.191585
-0.191133
-0.188062
-0.180395
-0.164882
0
0
-0.023909
-0.0589126
-0.0862603
-0.108962
-0.12811
-0.144308
-0.159989
-0.174173
-0.186653
-0.197083
-0.204296
-0.211672
-0.216665
-0.2182
-0.218501
-0.218541
-0.217455
-0.215079
-0.213561
-0.211661
-0.209537
-0.207365
-0.205211
-0.203022
-0.200694
-0.197827
-0.16993
-0.194028
-0.194337
-0.193199
-0.191636
-0.189992
-0.18839
-0.186896
-0.185575
-0.184267
-0.18298
-0.181912
-0.181448
-0.181619
-0.182218
-0.182965
-0.183747
-0.184149
-0.184544
-0.185062
-0.185564
-0.186121
-0.186783
-0.187486
-0.188058
-0.188546
-0.189055
-0.189787
-0.190803
-0.191471
-0.191041
-0.188023
-0.1804
-0.165044
0
0
-0.0239178
-0.0589302
-0.086262
-0.108789
-0.128029
-0.144807
-0.160175
-0.174071
-0.186338
-0.196709
-0.205161
-0.212194
-0.217307
-0.217318
-0.219217
-0.219562
-0.218779
-0.218121
-0.21542
-0.212669
-0.210121
-0.207779
-0.205609
-0.20341
-0.201099
-0.198544
-0.195489
-0.194806
-0.19403
-0.192834
-0.191322
-0.189598
-0.187714
-0.185761
-0.184877
-0.184194
-0.183734
-0.183452
-0.183402
-0.183498
-0.183743
-0.184207
-0.189486
-0.184761
-0.184744
-0.185218
-0.185563
-0.185954
-0.186473
-0.187126
-0.187771
-0.188331
-0.18877
-0.189461
-0.190746
-0.191448
-0.191087
-0.188143
-0.180449
-0.165099
0
0
-0.0239256
-0.0589426
-0.0862626
-0.10874
-0.128077
-0.145167
-0.16058
-0.17426
-0.186192
-0.195938
-0.205414
-0.212835
-0.218504
-0.223466
-0.223157
-0.221755
-0.219946
-0.217968
-0.215444
-0.212812
-0.210301
-0.208018
-0.206008
-0.203819
-0.201546
-0.199314
-0.19726
-0.195712
-0.194339
-0.192819
-0.191067
-0.188903
-0.185859
-0.180822
-0.182107
-0.182547
-0.183391
-0.183829
-0.18408
-0.184264
-0.184471
-0.184761
-0.185122
-0.184927
-0.184736
-0.18542
-0.185559
-0.185807
-0.186264
-0.187012
-0.187733
-0.188282
-0.188504
-0.189025
-0.19076
-0.191393
-0.191145
-0.188384
-0.180474
-0.165024
0
0
-0.0239363
-0.0589644
-0.0862919
-0.108787
-0.12822
-0.145534
-0.161348
-0.17465
-0.185836
-0.167964
-0.204451
-0.212837
-0.218409
-0.221938
-0.22269
-0.221831
-0.220148
-0.217797
-0.215253
-0.212694
-0.210261
-0.208099
-0.20642
-0.20409
-0.201758
-0.199646
-0.197788
-0.196124
-0.194653
-0.192946
-0.190972
-0.188114
-0.182169
-0.0756111
-0.176076
-0.163094
-0.182264
-0.183785
-0.184357
-0.184645
-0.18487
-0.18509
-0.185153
-0.185058
-0.184991
-0.185236
-0.185387
-0.185591
-0.186006
-0.187006
-0.188152
-0.187954
-0.188253
-0.188979
-0.190214
-0.19101
-0.190979
-0.188668
-0.180346
-0.164777
0
0
-0.023951
-0.0589976
-0.0863436
-0.108874
-0.128411
-0.146096
-0.176418
-0.175754
-0.186884
-0.195892
-0.205593
-0.213119
-0.218252
-0.221129
-0.222006
-0.221495
-0.220024
-0.21778
-0.215142
-0.212581
-0.21013
-0.207938
-0.20652
-0.203791
-0.201479
-0.199558
-0.197871
-0.196372
-0.194785
-0.193181
-0.191472
-0.188674
-0.184445
-0.177605
-0.18017
-0.181546
-0.183318
-0.184282
-0.184734
-0.184972
-0.185194
-0.185452
-0.185361
-0.185179
-0.185078
-0.185114
-0.185199
-0.185315
-0.185521
-0.186614
-0.18808
-0.18726
-0.187857
-0.188721
-0.189674
-0.190311
-0.190137
-0.188331
-0.179687
-0.164345
0
0
-0.0239696
-0.0590411
-0.0864051
-0.108947
-0.128478
-0.146013
-0.162292
-0.17597
-0.187862
-0.198044
-0.206791
-0.213609
-0.21828
-0.220855
-0.221632
-0.221093
-0.219766
-0.217521
-0.215022
-0.212471
-0.209906
-0.207166
-0.203484
-0.2021
-0.20073
-0.199309
-0.19782
-0.196184
-0.194859
-0.193686
-0.200758
-0.190238
-0.187603
-0.185417
-0.18491
-0.184876
-0.185072
-0.185215
-0.185267
-0.185303
-0.185462
-0.185855
-0.185491
-0.185165
-0.185021
-0.185007
-0.185056
-0.185109
-0.185089
-0.184838
-0.183564
-0.186253
-0.187438
-0.188384
-0.189177
-0.189381
-0.187866
-0.182952
-0.177804
-0.16389
0
0
-0.0239942
-0.0591004
-0.0864821
-0.109014
-0.128493
-0.145866
-0.161688
-0.176214
-0.188328
-0.198595
-0.207105
-0.213677
-0.218175
-0.220646
-0.221349
-0.220712
-0.219263
-0.217246
-0.214921
-0.212448
-0.209899
-0.207345
-0.204567
-0.202756
-0.201035
-0.19961
-0.198166
-0.196673
-0.195281
-0.194025
-0.192986
-0.191142
-0.189479
-0.188226
-0.187362
-0.186774
-0.186355
-0.186024
-0.185743
-0.185518
-0.185455
-0.185918
-0.18519
-0.184892
-0.184847
-0.184894
-0.184972
-0.185044
-0.185069
-0.185007
-0.184985
-0.186131
-0.187191
-0.188147
-0.188956
-0.189276
-0.188297
-0.184745
-0.178109
-0.163826
0
0
-0.0240318
-0.0591963
-0.0866034
-0.109108
-0.128519
-0.145764
-0.161443
-0.176419
-0.188016
-0.198147
-0.206699
-0.213345
-0.217906
-0.220417
-0.221113
-0.220394
-0.21909
-0.217259
-0.215063
-0.212631
-0.210077
-0.20767
-0.205392
-0.203374
-0.201437
-0.200191
-0.198741
-0.197216
-0.19574
-0.194348
-0.193019
-0.19166
-0.190422
-0.189385
-0.18851
-0.187771
-0.187136
-0.18658
-0.186071
-0.18554
-0.184781
-0.183354
-0.183956
-0.184403
-0.184656
-0.184822
-0.184957
-0.185086
-0.185228
-0.18542
-0.185769
-0.1864
-0.187196
-0.188084
-0.188961
-0.189554
-0.190577
-0.185885
-0.178641
-0.163961
0
0
-0.0241016
-0.0593843
-0.0868373
-0.109271
-0.128589
-0.145637
-0.16065
-0.172796
-0.185627
-0.196853
-0.206
-0.212957
-0.217689
-0.220304
-0.221069
-0.220097
-0.219214
-0.217617
-0.215516
-0.213052
-0.210377
-0.208102
-0.205986
-0.203917
-0.201732
-0.20098
-0.199371
-0.197718
-0.196153
-0.1947
-0.19335
-0.192111
-0.191003
-0.190029
-0.189159
-0.188369
-0.187642
-0.186971
-0.186335
-0.185702
-0.185022
-0.184356
-0.184351
-0.184529
-0.18471
-0.184869
-0.185017
-0.185179
-0.185383
-0.185658
-0.186045
-0.186564
-0.187244
-0.188083
-0.188997
-0.18967
-0.189297
-0.18623
-0.178933
-0.164121
0
0
-0.0242519
-0.0598216
-0.0873264
-0.109562
-0.128815
-0.145797
-0.160848
-0.174038
-0.186305
-0.19714
-0.206122
-0.213016
-0.217746
-0.220468
-0.226401
-0.219615
-0.219816
-0.218362
-0.216259
-0.213694
-0.210905
-0.208787
-0.206715
-0.204689
-0.202823
-0.201348
-0.199693
-0.198025
-0.196449
-0.194999
-0.193679
-0.192494
-0.191443
-0.19051
-0.189646
-0.188822
-0.188033
-0.187282
-0.186572
-0.18591
-0.185339
-0.184963
-0.184822
-0.184822
-0.184894
-0.185
-0.185121
-0.185275
-0.185488
-0.185763
-0.186125
-0.186606
-0.187242
-0.188054
-0.188982
-0.189683
-0.189242
-0.186284
-0.179091
-0.164268
0
0
-0.0245929
-0.061075
-0.0881285
-0.110232
-0.129332
-0.146234
-0.161354
-0.174918
-0.187086
-0.197685
-0.206463
-0.213217
-0.217853
-0.220412
-0.220975
-0.218309
-0.221126
-0.219359
-0.216922
-0.214149
-0.212552
-0.209967
-0.20754
-0.205422
-0.203715
-0.201795
-0.199924
-0.1982
-0.196637
-0.195224
-0.193953
-0.192822
-0.191832
-0.190959
-0.190103
-0.189235
-0.188377
-0.187549
-0.186763
-0.186044
-0.185479
-0.185208
-0.185093
-0.18505
-0.185063
-0.185121
-0.185188
-0.185307
-0.185505
-0.185757
-0.186092
-0.186557
-0.187176
-0.187971
-0.18893
-0.189731
-0.189275
-0.18629
-0.179198
-0.164424
0
0
-0.0252559
-0.084116
-0.0898255
-0.111101
-0.129889
-0.146674
-0.161766
-0.175353
-0.18747
-0.197956
-0.206621
-0.213298
-0.217896
-0.220439
-0.221196
-0.220359
-0.22045
-0.219079
-0.216948
-0.214616
-0.212366
-0.210027
-0.207765
-0.205702
-0.204125
-0.201892
-0.199952
-0.198272
-0.196769
-0.195421
-0.194209
-0.193137
-0.192226
-0.191455
-0.190588
-0.18964
-0.188689
-0.187776
-0.1869
-0.186057
-0.185416
-0.185301
-0.185259
-0.185181
-0.185119
-0.185094
-0.185055
-0.185106
-0.185297
-0.185541
-0.185891
-0.186395
-0.187046
-0.187842
-0.188865
-0.189872
-0.189422
-0.18646
-0.179216
-0.164613
0
0
-0.0247746
-0.0615584
-0.0886543
-0.1108
-0.129861
-0.146775
-0.161881
-0.175384
-0.187483
-0.197924
-0.206543
-0.213216
-0.217856
-0.220492
-0.221803
-0.221663
-0.220752
-0.219097
-0.216979
-0.214674
-0.212354
-0.2101
-0.207888
-0.205594
-0.202788
-0.201246
-0.199792
-0.198335
-0.196901
-0.195643
-0.194484
-0.193466
-0.19265
-0.192055
-0.1911
-0.190002
-0.188944
-0.187965
-0.187032
-0.185954
-0.185111
-0.185404
-0.185413
-0.185163
-0.184868
-0.184612
-0.184352
-0.1843
-0.184512
-0.184836
-0.185349