# vtk DataFile Version 2.0
FlowField
ASCII
DATASET STRUCTURED_GRID
DIMENSIONS 62 47 32 
POINTS 93248 double
0 0 0
0.01 0 0
0.02 0 0
0.03 0 0
0.04 0 0
0.05 0 0
0.06 0 0
0.07 0 0
0.08 0 0
0.09 0 0
0.1 0 0
0.11 0 0
0.12 0 0
0.13 0 0
0.14 0 0
0.15 0 0
0.16 0 0
0.17 0 0
0.18 0 0
0.19 0 0
0.2 0 0
0.21 0 0
0.22 0 0
0.23 0 0
0.24 0 0
0.25 0 0
0.26 0 0
0.27 0 0
0.28 0 0
0.29 0 0
0.3 0 0
0.31 0 0
0.32 0 0
0.33 0 0
0.34 0 0
0.35 0 0
0.36 0 0
0.37 0 0
0.38 0 0
0.39 0 0
0.4 0 0
0.41 0 0
0.42 0 0
0.43 0 0
0.44 0 0
0.45 0 0
0.46 0 0
0.47 0 0
0.48 0 0
0.49 0 0
0.5 0 0
0.51 0 0
0.52 0 0
0.53 0 0
0.54 0 0
0.55 0 0
0.56 0 0
0.57 0 0
0.58 0 0
0.59 0 0
0.6 0 0
0.61 0 0
0 0.01 0
0.01 0.01 0
0.02 0.01 0
0.03 0.01 0
0.04 0.01 0
0.05 0.01 0
0.06 0.01 0
0.07 0.01 0
0.08 0.01 0
0.09 0.01 0
0.1 0.01 0
0.11 0.01 0
0.12 0.01 0
0.13 0.01 0
0.14 0.01 0
0.15 0.01 0
0.16 0.01 0
0.17 0.01 0
0.18 0.01 0
0.19 0.01 0
0.2 0.01 0
0.21 0.01 0
0.22 0.01 0
0.23 0.01 0
0.24 0.01 0
0.25 0.01 0
0.26 0.01 0
0.27 0.01 0
0.28 0.01 0
0.29 0.01 0
0.3 0.01 0
0.31 0.01 0
0.32 0.01 0
0.33 0.01 0
0.34 0.01 0
0.35 0.01 0
0.36 0.01 0
0.37 0.01 0
0.38 0.01 0
0.39 0.01 0
0.4 0.01 0
0.41 0.01 0
0.42 0.01 0
0.43 0.01 0
0.44 0.01 0
0.45 0.01 0
0.46 0.01 0
0.47 0.01 0
0.48 0.01 0
0.49 0.01 0
0.5 0.01 0
0.51 0.01 0
0.52 0.01 0
0.53 0.01 0
0.54 0.01 0
0.55 0.01 0
0.56 0.01 0
0.57 0.01 0
0.58 0.01 0
0.59 0.01 0
0.6 0.01 0
0.61 0.01 0
0 0.02 0
0.01 0.02 0
0.02 0.02 0
0.03 0.02 0
0.04 0.02 0
0.05 0.02 0
0.06 0.02 0
0.07 0.02 0
0.08 0.02 0
0.09 0.02 0
0.1 0.02 0
0.11 0.02 0
0.12 0.02 0
0.13 0.02 0
0.14 0.02 0
0.15 0.02 0
0.16 0.02 0
0.17 0.02 0
0.18 0.02 0
0.19 0.02 0
0.2 0.02 0
0.21 0.02 0
0.22 0.02 0
0.23 0.02 0
0.24 0.02 0
0.25 0.02 0
0.26 0.02 0
0.27 0.02 0
0.28 0.02 0
0.29 0.02 0
0.3 0.02 0
0.31 0.02 0
0.32 0.02 0
0.33 0.02 0
0.34 0.02 0
0.35 0.02 0
0.36 0.02 0
0.37 0.02 0
0.38 0.02 0
0.39 0.02 0
0.4 0.02 0
0.41 0.02 0
0.42 0.02 0
0.43 0.02 0
0.44 0.02 0
0.45 0.02 0
0.46 0.02 0
0.47 0.02 0
0.48 0.02 0
0.49 0.02 0
0.5 0.02 0
0.51 0.02 0
0.52 0.02 0
0.53 0.02 0
0.54 0.02 0
0.55 0.02 0
0.56 0.02 0
0.57 0.02 0
0.58 0.02 0
0.59 0.02 0
0.6 0.02 0
0.61 0.02 0
0 0.03 0
0.01 0.03 0
0.02 0.03 0
0.03 0.03 0
0.04 0.03 0
0.05 0.03 0
0.06 0.03 0
0.07 0.03 0
0.08 0.03 0
0.09 0.03 0
0.1 0.03 0
0.11 0.03 0
0.12 0.03 0
0.13 0.03 0
0.14 0.03 0
0.15 0.03 0
0.16 0.03 0
0.17 0.03 0
0.18 0.03 0
0.19 0.03 0
0.2 0.03 0
0.21 0.03 0
0.22 0.03 0
0.23 0.03 0
0.24 0.03 0
0.25 0.03 0
0.26 0.03 0
0.27 0.03 0
0.28 0.03 0
0.29 0.03 0
0.3 0.03 0
0.31 0.03 0
0.32 0.03 0
0.33 0.03 0
0.34 0.03 0
0.35 0.03 0
0.36 0.03 0
0.37 0.03 0
0.38 0.03 0
0.39 0.03 0
0.4 0.03 0
0.41 0.03 0
0.42 0.03 0
0.43 0.03 0
0.44 0.03 0
0.45 0.03 0
0.46 0.03 0
0.47 0.03 0
0.48 0.03 0
0.49 0.03 0
0.5 0.03 0
0.51 0.03 0
0.52 0.03 0
0.53 0.03 0
0.54 0.03 0
0.55 0.03 0
0.56 0.03 0
0.57 0.03 0
0.58 0.03 0
0.59 0.03 0
0.6 0.03 0
0.61 0.03 0
0 0.04 0
0.01 0.04 0
0.02 0.04 0
0.03 0.04 0
0.04 0.04 0
0.05 0.04 0
0.06 0.04 0
0.07 0.04 0
0.08 0.04 0
0.09 0.04 0
0.1 0.04 0
0.11 0.04 0
0.12 0.04 0
0.13 0.04 0
0.14 0.04 0
0.15 0.04 0
0.16 0.04 0
0.17 0.04 0
0.18 0.04 0
0.19 0.04 0
0.2 0.04 0
0.21 0.04 0
0.22 0.04 0
0.23 0.04 0
0.24 0.04 0
0.25 0.04 0
0.26 0.04 0
0.27 0.04 0
0.28 0.04 0
0.29 0.04 0
0.3 0.04 0
0.31 0.04 0
0.32 0.04 0
0.33 0.04 0
0.34 0.04 0
0.35 0.04 0
0.36 0.04 0
0.37 0.04 0
0.38 0.04 0
0.39 0.04 0
0.4 0.04 0
0.41 0.04 0
0.42 0.04 0
0.43 0.04 0
0.44 0.04 0
0.45 0.04 0
0.46 0.04 0
0.47 0.04 0
0.48 0.04 0
0.49 0.04 0
0.5 0.04 0
0.51 0.04 0
0.52 0.04 0
0.53 0.04 0
0.54 0.04 0
0.55 0.04 0
0.56 0.04 0
0.57 0.04 0
0.58 0.04 0
0.59 0.04 0
0.6 0.04 0
0.61 0.04 0
0 0.05 0
0.01 0.05 0
0.02 0.05 0
0.03 0.05 0
0.04 0.05 0
0.05 0.05 0
0.06 0.05 0
0.07 0.05 0
0.08 0.05 0
0.09 0.05 0
0.1 0.05 0
0.11 0.05 0
0.12 0.05 0
0.13 0.05 0
0.14 0.05 0
0.15 0.05 0
0.16 0.05 0
0.17 0.05 0
0.18 0.05 0
0.19 0.05 0
0.2 0.05 0
0.21 0.05 0
0.22 0.05 0
0.23 0.05 0
0.24 0.05 0
0.25 0.05 0
0.26 0.05 0
0.27 0.05 0
0.28 0.05 0
0.29 0.05 0
0.3 0.05 0
0.31 0.05 0
0.32 0.05 0
0.33 0.05 0
0.34 0.05 0
0.35 0.05 0
0.36 0.05 0
0.37 0.05 0
0.38 0.05 0
0.39 0.05 0
0.4 0.05 0
0.41 0.05 0
0.42 0.05 0
0.43 0.05 0
0.44 0.05 0
0.45 0.05 0
0.46 0.05 0
0.47 0.05 0
0.48 0.05 0
0.49 0.05 0
0.5 0.05 0
0.51 0.05 0
0.52 0.05 0
0.53 0.05 0
0.54 0.05 0
0.55 0.05 0
0.56 0.05 0
0.57 0.05 0
0.58 0.05 0
0.59 0.05 0
0.6 0.05 0
0.61 0.05 0
0 0.06 0
0.01 0.06 0
0.02 0.06 0
0.03 0.06 0
0.04 0.06 0
0.05 0.06 0
0.06 0.06 0
0.07 0.06 0
0.08 0.06 0
0.09 0.06 0
0.1 0.06 0
0.11 0.06 0
0.12 0.06 0
0.13 0.06 0
0.14 0.06 0
0.15 0.06 0
0.16 0.06 0
0.17 0.06 0
0.18 0.06 0
0.19 0.06 0
0.2 0.06 0
0.21 0.06 0
0.22 0.06 0
0.23 0.06 0
0.24 0.06 0
0.25 0.06 0
0.26 0.06 0
0.27 0.06 0
0.28 0.06 0
0.29 0.06 0
0.3 0.06 0
0.31 0.06 0
0.32 0.06 0
0.33 0.06 0
0.34 0.06 0
0.35 0.06 0
0.36 0.06 0
0.37 0.06 0
0.38 0.06 0
0.39 0.06 0
0.4 0.06 0
0.41 0.06 0
0.42 0.06 0
0.43 0.06 0
0.44 0.06 0
0.45 0.06 0
0.46 0.06 0
0.47 0.06 0
0.48 0.06 0
0.49 0.06 0
0.5 0.06 0
0.51 0.06 0
0.52 0.06 0
0.53 0.06 0
0.54 0.06 0
0.55 0.06 0
0.56 0.06 0
0.57 0.06 0
0.58 0.06 0
0.59 0.06 0
0.6 0.06 0
0.61 0.06 0
0 0.07 0
0.01 0.07 0
0.02 0.07 0
0.03 0.07 0
0.04 0.07 0
0.05 0.07 0
0.06 0.07 0
0.07 0.07 0
0.08 0.07 0
0.09 0.07 0
0.1 0.07 0
0.11 0.07 0
0.12 0.07 0
0.13 0.07 0
0.14 0.07 0
0.15 0.07 0
0.16 0.07 0
0.17 0.07 0
0.18 0.07 0
0.19 0.07 0
0.2 0.07 0
0.21 0.07 0
0.22 0.07 0
0.23 0.07 0
0.24 0.07 0
0.25 0.07 0
0.26 0.07 0
0.27 0.07 0
0.28 0.07 0
0.29 0.07 0
0.3 0.07 0
0.31 0.07 0
0.32 0.07 0
0.33 0.07 0
0.34 0.07 0
0.35 0.07 0
0.36 0.07 0
0.37 0.07 0
0.38 0.07 0
0.39 0.07 0
0.4 0.07 0
0.41 0.07 0
0.42 0.07 0
0.43 0.07 0
0.44 0.07 0
0.45 0.07 0
0.46 0.07 0
0.47 0.07 0
0.48 0.07 0
0.49 0.07 0
0.5 0.07 0
0.51 0.07 0
0.52 0.07 0
0.53 0.07 0
0.54 0.07 0
0.55 0.07 0
0.56 0.07 0
0.57 0.07 0
0.58 0.07 0
0.59 0.07 0
0.6 0.07 0
0.61 0.07 0
0 0.08 0
0.01 0.08 0
0.02 0.08 0
0.03 0.08 0
0.04 0.08 0
0.05 0.08 0
0.06 0.08 0
0.07 0.08 0
0.08 0.08 0
0.09 0.08 0
0.1 0.08 0
0.11 0.08 0
0.12 0.08 0
0.13 0.08 0
0.14 0.08 0
0.15 0.08 0
0.16 0.08 0
0.17 0.08 0
0.18 0.08 0
0.19 0.08 0
0.2 0.08 0
0.21 0.08 0
0.22 0.08 0
0.23 0.08 0
0.24 0.08 0
0.25 0.08 0
0.26 0.08 0
0.27 0.08 0
0.28 0.08 0
0.29 0.08 0
0.3 0.08 0
0.31 0.08 0
0.32 0.08 0
0.33 0.08 0
0.34 0.08 0
0.35 0.08 0
0.36 0.08 0
0.37 0.08 0
0.38 0.08 0
0.39 0.08 0
0.4 0.08 0
0.41 0.08 0
0.42 0.08 0
0.43 0.08 0
0.44 0.08 0
0.45 0.08 0
0.46 0.08 0
0.47 0.08 0
0.48 0.08 0
0.49 0.08 0
0.5 0.08 0
0.51 0.08 0
0.52 0.08 0
0.53 0.08 0
0.54 0.08 0
0.55 0.08 0
0.56 0.08 0
0.57 0.08 0
0.58 0.08 0
0.59 0.08 0
0.6 0.08 0
0.61 0.08 0
0 0.09 0
0.01 0.09 0
0.02 0.09 0
0.03 0.09 0
0.04 0.09 0
0.05 0.09 0
0.06 0.09 0
0.07 0.09 0
0.08 0.09 0
0.09 0.09 0
0.1 0.09 0
0.11 0.09 0
0.12 0.09 0
0.13 0.09 0
0.14 0.09 0
0.15 0.09 0
0.16 0.09 0
0.17 0.09 0
0.18 0.09 0
0.19 0.09 0
0.2 0.09 0
0.21 0.09 0
0.22 0.09 0
0.23 0.09 0
0.24 0.09 0
0.25 0.09 0
0.26 0.09 0
0.27 0.09 0
0.28 0.09 0
0.29 0.09 0
0.3 0.09 0
0.31 0.09 0
0.32 0.09 0
0.33 0.09 0
0.34 0.09 0
0.35 0.09 0
0.36 0.09 0
0.37 0.09 0
0.38 0.09 0
0.39 0.09 0
0.4 0.09 0
0.41 0.09 0
0.42 0.09 0
0.43 0.09 0
0.44 0.09 0
0.45 0.09 0
0.46 0.09 0
0.47 0.09 0
0.48 0.09 0
0.49 0.09 0
0.5 0.09 0
0.51 0.09 0
0.52 0.09 0
0.53 0.09 0
0.54 0.09 0
0.55 0.09 0
0.56 0.09 0
0.57 0.09 0
0.58 0.09 0
0.59 0.09 0
0.6 0.09 0
0.61 0.09 0
0 0.1 0
0.01 0.1 0
0.02 0.1 0
0.03 0.1 0
0.04 0.1 0
0.05 0.1 0
0.06 0.1 0
0.07 0.1 0
0.08 0.1 0
0.09 0.1 0
0.1 0.1 0
0.11 0.1 0
0.12 0.1 0
0.13 0.1 0
0.14 0.1 0
0.15 0.1 0
0.16 0.1 0
0.17 0.1 0
0.18 0.1 0
0.19 0.1 0
0.2 0.1 0
0.21 0.1 0
0.22 0.1 0
0.23 0.1 0
0.24 0.1 0
0.25 0.1 0
0.26 0.1 0
0.27 0.1 0
0.28 0.1 0
0.29 0.1 0
0.3 0.1 0
0.31 0.1 0
0.32 0.1 0
0.33 0.1 0
0.34 0.1 0
0.35 0.1 0
0.36 0.1 0
0.37 0.1 0
0.38 0.1 0
0.39 0.1 0
0.4 0.1 0
0.41 0.1 0
0.42 0.1 0
0.43 0.1 0
0.44 0.1 0
0.45 0.1 0
0.46 0.1 0
0.47 0.1 0
0.48 0.1 0
0.49 0.1 0
0.5 0.1 0
0.51 0.1 0
0.52 0.1 0
0.53 0.1 0
0.54 0.1 0
0.55 0.1 0
0.56 0.1 0
0.57 0.1 0
0.58 0.1 0
0.59 0.1 0
0.6 0.1 0
0.61 0.1 0
0 0.11 0
0.01 0.11 0
0.02 0.11 0
0.03 0.11 0
0.04 0.11 0
0.05 0.11 0
0.06 0.11 0
0.07 0.11 0
0.08 0.11 0
0.09 0.11 0
0.1 0.11 0
0.11 0.11 0
0.12 0.11 0
0.13 0.11 0
0.14 0.11 0
0.15 0.11 0
0.16 0.11 0
0.17 0.11 0
0.18 0.11 0
0.19 0.11 0
0.2 0.11 0
0.21 0.11 0
0.22 0.11 0
0.23 0.11 0
0.24 0.11 0
0.25 0.11 0
0.26 0.11 0
0.27 0.11 0
0.28 0.11 0
0.29 0.11 0
0.3 0.11 0
0.31 0.11 0
0.32 0.11 0
0.33 0.11 0
0.34 0.11 0
0.35 0.11 0
0.36 0.11 0
0.37 0.11 0
0.38 0.11 0
0.39 0.11 0
0.4 0.11 0
0.41 0.11 0
0.42 0.11 0
0.43 0.11 0
0.44 0.11 0
0.45 0.11 0
0.46 0.11 0
0.47 0.11 0
0.48 0.11 0
0.49 0.11 0
0.5 0.11 0
0.51 0.11 0
0.52 0.11 0
0.53 0.11 0
0.54 0.11 0
0.55 0.11 0
0.56 0.11 0
0.57 0.11 0
0.58 0.11 0
0.59 0.11 0
0.6 0.11 0
0.61 0.11 0
0 0.12 0
0.01 0.12 0
0.02 0.12 0
0.03 0.12 0
0.04 0.12 0
0.05 0.12 0
0.06 0.12 0
0.07 0.12 0
0.08 0.12 0
0.09 0.12 0
0.1 0.12 0
0.11 0.12 0
0.12 0.12 0
0.13 0.12 0
0.14 0.12 0
0.15 0.12 0
0.16 0.12 0
0.17 0.12 0
0.18 0.12 0
0.19 0.12 0
0.2 0.12 0
0.21 0.12 0
0.22 0.12 0
0.23 0.12 0
0.24 0.12 0
0.25 0.12 0
0.26 0.12 0
0.27 0.12 0
0.28 0.12 0
0.29 0.12 0
0.3 0.12 0
0.31 0.12 0
0.32 0.12 0
0.33 0.12 0
0.34 0.12 0
0.35 0.12 0
0.36 0.12 0
0.37 0.12 0
0.38 0.12 0
0.39 0.12 0
0.4 0.12 0
0.41 0.12 0
0.42 0.12 0
0.43 0.12 0
0.44 0.12 0
0.45 0.12 0
0.46 0.12 0
0.47 0.12 0
0.48 0.12 0
0.49 0.12 0
0.5 0.12 0
0.51 0.12 0
0.52 0.12 0
0.53 0.12 0
0.54 0.12 0
0.55 0.12 0
0.56 0.12 0
0.57 0.12 0
0.58 0.12 0
0.59 0.12 0
0.6 0.12 0
0.61 0.12 0
0 0.13 0
0.01 0.13 0
0.02 0.13 0
0.03 0.13 0
0.04 0.13 0
0.05 0.13 0
0.06 0.13 0
0.07 0.13 0
0.08 0.13 0
0.09 0.13 0
0.1 0.13 0
0.11 0.13 0
0.12 0.13 0
0.13 0.13 0
0.14 0.13 0
0.15 0.13 0
0.16 0.13 0
0.17 0.13 0
0.18 0.13 0
0.19 0.13 0
0.2 0.13 0
0.21 0.13 0
0.22 0.13 0
0.23 0.13 0
0.24 0.13 0
0.25 0.13 0
0.26 0.13 0
0.27 0.13 0
0.28 0.13 0
0.29 0.13 0
0.3 0.13 0
0.31 0.13 0
0.32 0.13 0
0.33 0.13 0
0.34 0.13 0
0.35 0.13 0
0.36 0.13 0
0.37 0.13 0
0.38 0.13 0
0.39 0.13 0
0.4 0.13 0
0.41 0.13 0
0.42 0.13 0
0.43 0.13 0
0.44 0.13 0
0.45 0.13 0
0.46 0.13 0
0.47 0.13 0
0.48 0.13 0
[...]
POINT_DATA 93248

SCALARS u double
LOOKUP_TABLE default
0
0
0
0
0
0
0
0
0
0
0
0
0
0
0
0
0
0
0
0
0
0
0
0
0.286861
0
0
0
0
0
0
0
0.113007
0.215446
0
0
0
0
0
0
0
0
0
0
0
0
0
0.0933017
0
0
0.0772502
0
0
0
0
0
0
0
0
0
0
0
0
0.428053
0.356768
0.295413
0.256783
0.236238
0.223129
0.213837
0.206398
0.199972
0.194205
0.188823
0.183868
0.179099
0.174506
0.170041
0.165703
0.161393
0.157167
0.152911
0.149007
0.144966
0.140987
0.136972
0.132977
0.129005
0.125048
0.121104
0.117165
0.113226
0.109281
0.105319
0.101377
0.0973304
0.0931419
0.0889085
0.084553
0.0809137
0.0811772
0.162221
0.0690166
0.0654486
0.0621021
0.0586259
0.0550885
0.0504178
0.0471338
0.0434102
0.0395705
0.0357119
0.0319181
0.053554
0.0243199
0.0205291
0.0158452
0.0120917
0.0256982
0.00412156
-0.000361994
-0.00573851
-0.00573851
0
0
0.503991
0.501375
0.485358
0.461939
0.440739
0.423706
0.409312
0.396849
0.385726
0.375559
0.365862
0.356862
0.348092
0.339556
0.331173
0.323053
0.314862
0.306948
0.328931
0.291351
0.283405
0.27582
0.267995
0.26027
0.252593
0.244942
0.237309
0.229686
0.222068
0.214442
0.206793
0.199209
0.191544
0.183622
0.175515
0.166263
0.15294
-0.0899664
0.13381
0.133972
0.129584
0.123141
0.116094
0.108821
0.101121
0.0936847
0.086247
0.078786
0.0712397
0.0636954
0.0566
0.0488216
0.0411881
0.0334012
0.025851
0.0182677
0.0105403
0.00267915
-0.00517274
-0.00517274
0
0
0.499037
0.50954
0.505821
0.489314
0.472942
0.457589
0.44386
0.431415
0.419889
0.398711
0.398975
0.38925
0.379844
0.370671
0.3618
0.353078
0.343953
0.335313
0.326764
0.318181
0.309703
0.301351
0.292948
0.284561
0.276197
0.267853
0.259525
0.251209
0.242902
0.234605
0.226326
0.217956
0.209885
0.210967
0.19308
0.184213
0.175865
0.170818
0.159932
0.15123
0.143224
0.13711
0.127396
0.119657
0.128963
0.103393
0.0947118
0.078786
0.07811
0.0699445
0.0618327
0.053554
0.0452604
0.03694
0.0286991
0.0204651
0.0120292
0.00378594
-0.0043656
-0.0043656
0
0
0.491713
0.497164
0.496122
0.48272
0.468949
0.456151
0.444104
0.432684
0.421861
0.411611
0.401645
0.39195
0.382555
0.373349
0.364462
0.355406
0.346961
0.338211
0.32864
0.320817
0.312285
0.303811
0.295355
0.286917
0.278497
0.270095
0.261707
0.253331
0.244964
0.236605
0.228251
0.219865
0.21155
0.203108
0.194837
0.186646
0.178987
0.172374
0.162948
0.153718
0.145107
0.136785
0.128564
0.120347
0.111945
0.103644
0.0953948
0.0871596
0.0788696
0.0706079
0.062356
0.0540546
0.0457272
0.0373922
0.0290809
0.0207809
0.0124381
0.00420031
-0.00402593
-0.00402593
0
0
0.488541
0.490716
0.485819
0.473896
0.462323
0.451465
0.440801
0.430278
0.420138
0.410328
0.400728
0.391313
0.38207
0.372919
0.364612
0.355468
0.346778
0.338098
0.329455
0.320854
0.312323
0.303844
0.295394
0.286966
0.278557
0.270165
0.261786
0.253417
0.245057
0.236701
0.228344
0.219976
0.211706
0.20335
0.195109
0.186982
0.179062
0.171289
0.162676
0.153956
0.145414
0.137014
0.128692
0.120411
0.112192
0.103884
0.095387
0.0871956
0.07894
0.0706798
0.0624215
0.0541426
0.0458294
0.0375075
0.0292001
0.0209104
0.012638
0.00440908
-0.00391081
-0.00391081
0
0
0.4871
0.486657
0.479832
0.467997
0.457164
0.447294
0.437478
0.427753
0.418127
0.408779
0.399527
0.390383
0.381345
0.372399
0.363733
0.355021
0.346376
0.337805
0.329214
0.320669
0.312171
0.30371
0.295278
0.286867
0.278473
0.270097
0.261733
0.253378
0.245029
0.236683
0.228332
0.219941
0.211786
0.203479
0.195203
0.187018
0.178901
0.170767
0.162389
0.153918
0.145474
0.13708
0.128711
0.120313
0.11181
0.104002
0.0956205
0.0872739
0.078979
0.0707175
0.0624833
0.0542492
0.0459264
0.0375941
0.029288
0.0210106
0.0127691
0.00464589
-0.00341241
-0.00341241
0
0
0.486411
0.484441
0.476303
0.46401
0.453236
0.447041
0.433737
0.425153
0.416414
0.407336
0.398338
0.389397
0.380549
0.371772
0.363095
0.354529
0.346009
0.337464
0.328931
0.320435
0.311975
0.303542
0.295132
0.286741
0.278365
0.270007
0.26166
0.253322
0.244988
0.236656
0.228365
0.220133
0.211675
0.203406
0.195193
0.18698
0.178774
0.17054
0.162221
0.153849
0.14547
0.137147
0.128746
0.120385
0.11203
0.103901
0.0955977
0.0872767
0.0789797
0.0707252
0.0625507
0.0544562
0.0460435
0.037655
0.0293427
0.0210659
0.0127806
0.0045106
-0.00324616
-0.00324616
0
0
0.486043
0.483115
0.474044
0.461273
0.450492
0.44121
0.432118
0.423428
0.414629
0.405886
0.397149
0.388372
0.379714
0.371056
0.362353
0.323053
0.345763
0.337154
0.32864
0.320171
0.311754
0.30335
0.294963
0.286595
0.278557
0.269904
0.261575
0.253259
0.244942
0.236598
0.228319
0.220055
0.211707
0.203431
0.195179
0.186935
0.178687
0.170421
0.16212
0.15379
0.14545
0.137111
0.128775
0.120444
0.11213
0.103869
0.0955694
0.0872492
0.078927
0.0706402
0.0625303
0.0548694
0.0461302
0.037635
0.0293494
0.0211406
0.0129684
0.0046646
-0.00349759
-0.00349759
0
0
0.485827
0.482269
0.472529
0.459346
0.448428
0.439132
0.430294
0.421636
0.413084
0.404552
0.396053
0.387257
0.37884
0.37038
0.361896
0.353501
0.34513
0.336705
0.328282
0.319874
0.311511
0.303139
0.294773
0.286425
0.278089
0.269774
0.261474
0.253197
0.244932
0.236595
0.228328
0.220028
0.211715
0.203426
0.195153
0.186891
0.178623
0.170345
0.162053
0.153745
0.145429
0.13711
0.128791
0.120476
0.112169
0.103871
0.0955552
0.0872074
0.078803
0.0703084
0.0617712
0.0548094
0.0455714
0.037333
0.0292483
0.02113
0.01298
0.00476674
-0.00351736
-0.00351736
0
0
0.485691
0.481699
0.471465
0.457947
0.446841
0.437457
0.428676
0.420153
0.411731
0.403342
0.394962
0.386514
0.378126
0.369751
0.361339
0.352975
0.344631
0.336283
0.327935
0.31961
0.31123
0.302887
0.294561
0.286236
0.277931
0.269626
0.261353
0.253136
0.245051
0.243747
0.228601
0.220094
0.211716
0.203405
0.195113
0.186106
0.17856
0.170288
0.162004
0.153711
0.145411
0.137107
0.128801
0.120495
0.112191
0.103884
0.0955592
0.0871869
0.0786775
0.0697109
0.0592425
-0.0224341
0.0422327
0.0364742
0.029079
0.0211166
0.0129966
0.00481437
-0.00350391
-0.00350391
0
0
0.4856
0.4813
0.47068
0.456916
0.445627
0.436143
0.427368
0.4189
0.410562
0.402271
0.393992
0.3857
0.377425
0.369171
0.360748
0.352435
0.344159
0.335877
0.327565
0.31682
0.310925
0.302647
0.294346
0.286039
0.277737
0.269444
0.261178
0.252963
0.244821
0.236703
0.228089
0.219873
0.211642
0.203366
0.195079
0.186794
0.177714
0.170233
0.161965
0.153686
0.145398
0.137106
0.128809
0.12051
0.11221
0.103907
0.0955928
0.0872543
0.0788691
0.0704316
0.0621208
0.0548074
0.0456485
0.0374076
0.0293274
0.0212072
0.0130458
0.00485126
-0.00348556
-0.00348556
0
0
0.48554
0.481027
0.470192
0.456078
0.444635
0.435089
0.426298
0.417851
0.40956
0.401337
0.393134
0.384934
0.376756
0.368684
0.360137
0.3519
0.343723
0.335498
0.327252
0.318998
0.310709
0.30242
0.294129
0.285831
0.277527
0.269226
0.260946
0.252725
0.244589
0.236203
0.228414
0.220075
0.211691
0.203352
0.195042
0.186751
0.178474
0.170202
0.161937
0.153669
0.145392
0.13711
0.128819
0.120525
0.11223
0.103934
0.095637
0.0873364
0.0790365
0.0707866
0.0627186
0.0549575
0.0462626
0.0377944
0.029522
0.0213083
0.0131042
0.00488844
-0.00346557
-0.00346557
0
0
0.485495
0.480811
0.46974
0.455482
0.443902
0.434261
0.425428
0.416976
0.408707
0.400526
0.392374
0.38422
0.376035
0.367721
0.359874
0.351686
0.343414
0.33517
0.326946
0.318712
0.310456
0.302189
0.293911
0.285616
0.2773
0.268963
0.260629
0.252399
0.244691
0.236519
0.228377
0.220036
0.211661
0.203311
0.194989
0.18669
0.178413
0.170156
0.161913
0.153663
0.145393
0.13713
0.128834
0.120541
0.112249
0.103961
0.095677
0.0874019
0.0791232
0.0709014
0.0627508
0.0546411
0.0462611
0.0379085
0.0296281
0.0213881
0.0131569
0.00492516
-0.0034443
-0.0034443
0
0
0.485461
0.480643
0.469402
0.455006
0.443316
0.433598
0.424718
0.416248
0.407988
0.399826
0.391709
0.383604
0.375483
0.367333
0.35933
0.351205
0.343017
0.334805
0.326656
0.318446
0.310212
0.301964
0.293699
0.285406
0.277066
0.268652
0.260139
0.25165
0.245601
0.23711
0.228539
0.220046
0.211624
0.203254
0.194917
0.186607
0.178327
0.170094
0.1619
0.153682
0.145425
0.137147
0.128854
0.120559
0.112267
0.103981
0.0957063
0.0874476
0.0791601
0.070935
0.062737
0.0545327
0.0462214
0.0379416
0.0296868
0.021459
0.0131958
0.00496279
-0.00341969
-0.00341969
0
0
0.48544
0.480508
0.46913
0.454631
0.44285
0.433068
0.424139
0.415641
0.407374
0.399226
0.391137
0.38307
0.375002
0.366928
0.358877
0.350783
0.34264
0.334428
0.326399
0.31821
0.30998
0.301752
0.293504
0.285219
0.276865
0.268355
0.259394
0.248642
0.250823
0.238503
0.228862
0.220069
0.21157
0.203177
0.194819
0.186485
0.178192
0.169988
0.16192
0.153752
0.145492
0.137193
0.128884
0.120579
0.112281
0.103992
0.0957082
0.0874288
0.0792098
0.0709684
0.0627418
0.054554
0.046141
0.0379471
0.0297206
0.0215051
0.0132617
0.00501298
-0.00338484
-0.00338484
0
0
0.485449
0.480382
0.468904
0.454323
0.44247
0.432647
0.423662
0.41513
0.40685
0.398711
0.390642
0.382604
0.374574
0.36654
0.358496
0.350429
0.342349
0.334298
0.326024
0.31788
0.309739
0.301552
0.293333
0.285076
0.276765
0.268367
0.259838
0.25134
0.245499
0.237003
0.228379
0.219868
0.211448
0.203076
0.194692
0.186305
0.177945
0.169744
0.162078
0.153948
0.145627
0.137268
0.128924
0.1206
0.112292
0.104
0.0957174
0.0874456
0.0792025
0.0709681
0.0627278
0.054488
0.0462083
0.0379749
0.0297414
0.0215713
0.0133206
0.00507806
-0.00332437
-0.00332437
0
0
0.485529
0.480236
0.4687
0.45407
0.442145
0.432264
0.423191
0.414649
0.406393
0.398267
0.390213
0.382197
0.374199
0.366198
0.358166
0.350112
0.342046
0.333971
0.325814
0.317685
0.309545
0.30138
0.293186
0.284964
0.276709
0.268424
0.260136
0.25198
0.244391
0.236303
0.228004
0.219651
0.211301
0.202976
0.194545
0.186057
0.177485
0.169008
0.162969
0.154479
0.145865
0.137367
0.128963
0.120616
0.112296
0.104002
0.0957195
0.0874431
0.0791742
0.0709799
0.0627236
0.0544692
0.0462173
0.0379997
0.0296624
0.0215685
0.013328
0.00516863
-0.00315782
-0.00315782
0
0
0.485263
0.480385
0.468719
0.453924
0.44185
0.426298
0.422467
0.414079
0.405945
0.397884
0.389839
0.381841
0.373879
0.365927
0.357889
0.349828
0.341769
0.333704
0.325608
0.3175
0.309375
0.301228
0.293058
0.284866
0.276655
0.268434
0.260158
0.252084
0.244134
0.236006
0.227762
0.219457
0.211125
0.202838
0.194357
0.185792
0.17677
0.165712
0.167878
0.155664
0.14616
0.137438
0.128974
0.120608
0.112294
0.103999
0.0957166
0.087431
0.079124
0.0710081
0.0627248
0.0544541
0.0461944
0.0379034
0.0294576
0.0129966
0.0131081
0.00529697
-0.00247056
0
0
0
0.485349
0.480108
0.468565
0.453822
0.441821
0.431728
0.422565
0.41399
0.405727
0.397606
0.389506
0.381513
0.373601
0.365748
0.357666
0.349558
0.341509
0.333474
0.325414
0.317329
0.309222
0.301093
0.292943
0.284773
0.276589
0.268403
0.260243
0.252038
0.244048
0.235867
0.2276
0.219288
0.210838
0.194305
0.193967
0.185757
0.177294
0.168789
0.162964
0.153745
0.145827
0.137329
0.128926
0.12058
0.112269
0.103985
0.0957187
0.0874749
0.0792656
0.070864
0.0626456
0.0544282
0.0461965
0.0379596
0.0297297
0.0216114
0.0133472
0.00517931
-0.00315116
-0.00315116
0
0
0.485371
0.480197
0.468413
0.453758
0.441848
0.431492
0.422352
0.413807
0.405507
0.397401
0.389184
0.381162
0.373276
0.365534
0.357194
0.349235
0.341231
0.333273
0.325245
0.317179
0.309088
0.300975
0.29284
0.284684
0.27651
0.268326
0.260306
0.252202
0.243867
0.235676
0.227484
0.219236
0.210967
0.202763
0.194376
0.186039
0.177727
0.169562
0.161956
0.153849
0.145537
0.137189
0.128852
0.120532
0.112225
0.103959
0.0957047
0.0874563
0.0792096
0.0708922
0.0626355
0.0544148
0.0462
0.0379905
0.0297714
0.0215898
0.0133357
0.00508847
-0.00331942
-0.00331942
0
0
0.485378
0.480191
0.468498
0.45345
0.441199
0.431543
0.422459
0.41375
0.405345
0.397033
0.389005
0.380835
0.372613
0.335335
0.355543
0.348382
0.340897
0.333108
0.325111
0.317053
0.308975
0.300874
0.292751
0.284604
0.276424
0.268159
0.260571
0.25217
0.243859
0.235636
0.227421
0.219192
0.210961
0.202753
0.194459
0.186175
0.177927
0.169763
0.161729
0.153588
0.145353
0.137075
0.128783
0.120483
0.112162
0.10393
0.0956918
0.0874447
0.0791898
0.0709015
0.0625999
0.0543966
0.0461963
0.0380157
0.0297507
0.0215164
0.0132772
0.00502436
-0.00337938
-0.00337938
0
0
0.485376
0.480162
0.468388
0.453436
0.441276
0.431361
0.422272
0.413632
0.405257
0.396917
0.388746
0.380404
0.350299
0.364037
0.356431
0.348856
0.340982
0.33295
0.324958
0.31694
0.30888
0.300792
0.292679
0.284545
0.276392
0.268219
0.260194
0.252015
0.243798
0.235585
0.227367
0.219139
0.21091
0.202706
0.194461
0.186238
0.178012
0.169815
0.161652
0.153465
0.145242
0.136999
0.128738
0.120484
0.112158
0.103963
0.0957065
0.0874522
0.0792157
0.0709488
0.0626104
0.0544118
0.0461553
0.0379773
0.029665
0.0214407
0.0132218
0.004978
-0.00341228
-0.00341228
0
0
0.485373
0.480142
0.468342
0.453424
0.441292
0.431271
0.422167
0.413573
0.405327
0.396737
0.388645
0.380683
0.373087
0.364902
0.356909
0.348887
0.340924
0.332912
0.324901
0.31687
0.308814
0.300733
0.292622
0.2845
0.276365
0.268223
0.260099
0.251927
0.24374
0.235535
0.227315
0.219078
0.210826
0.202698
0.194433
0.186306
0.178063
0.169827
0.161612
0.153396
0.14517
0.136941
0.128737
0.120653
0.11917
0.104248
0.0957741
0.0874653
0.0792873
0.0711679
0.0699222
0.0546212
0.0459607
0.0291183
0.0293496
0.0213353
0.0131768
0.00494272
-0.00343447
-0.00343447
0
0
0.485373
0.480132
0.468324
0.453413
0.441287
0.431246
0.422102
0.413533
0.405354
0.395112
0.388268
0.380665
0.372922
0.364929
0.356885
0.348881
0.340892
0.332883
0.324862
0.316825
0.308772
0.300703
0.292571
0.28446
0.27634
0.268205
0.260069
0.253378
0.243719
0.235498
0.227271
0.219015
0.210651
0.202963
0.194347
0.186605
0.178126
0.169828
0.16158
0.153346
0.145111
0.136872
0.128635
0.120387
0.112053
0.103871
0.095611
0.0873463
0.0791725
0.0708573
0.0624855
0.0543447
0.0461148
0.0379573
0.0296286
0.0213987
0.0131907
0.0049121
-0.00345207
-0.00345207
0
0
0.485374
0.480129
0.468318
0.45341
0.441286
0.43124
0.42194
0.413453
0.405256
0.396688
0.388631
0.380702
0.372815
0.364853
0.356864
0.348871
0.340885
0.332868
0.32484
0.316798
0.308746
0.300704
0.292528
0.284424
0.276327
0.268187
0.26003
0.251836
0.243657
0.235463
0.227246
0.219014
0.210765
0.20265
0.194393
0.186282
0.178036
0.169783
0.161541
0.153304
0.145065
0.136812
0.128562
0.120296
0.111999
0.103768
0.0954851
0.0870578
0.0708139
0.0704972
0.0623447
0.054282
0.0461139
0.0379326
0.0296593
0.0214198
0.0132191
0.00487285
-0.00346787
-0.00346787
0
0
0.485375
0.48013
0.468321
0.453418
0.441295
0.431244
0.42208
0.413446
0.40511
0.396827
0.388734
0.380755
0.372808
0.364847
0.356871
0.348883
0.340885
0.332868
0.324835
0.316784
0.308708
0.300585
0.292571
0.284477
0.276363
0.268186
0.259994
0.251821
0.243638
0.235445
0.22722
0.219013
0.210798
0.202605
0.194392
0.186198
0.177974
0.169739
0.161502
0.153268
0.145036
0.136753
0.128508
0.120257
0.111997
0.103753
0.0955039
0.0872565
0.0790839
0.0707263
0.0625709
0.054304
0.0460897
0.0378756
0.0296275
0.0213683
0.0130999
0.00497477
-0.00343056
-0.00343056
0
0
0.485376
0.480133
0.46833
0.453437
0.441323
0.431273
0.42216
0.413476
0.405117
0.396883
0.388822
0.380831
0.372865
0.364894
0.356915
0.348927
0.340919
0.332891
0.32485
0.316793
0.308719
0.300615
0.293504
0.284469
0.27643
0.268204
0.259972
0.25179
0.243611
0.235423
0.227218
0.21901
0.210799
0.202589
0.194373
0.186158
0.177932
0.169699
0.161464
0.153235
0.145025
0.136694
0.128459
0.120226
0.111982
0.103741
0.0955042
0.0872804
0.079079
0.0707929
0.0625684
0.0543122
0.0460792
0.037848
0.0296083
0.0213654
0.013125
0.00493163
-0.00344571
-0.00344571
0
0
0.485375
0.480136
0.468343
0.453469
0.441375
0.431347
0.422305
0.413559
0.405214
0.397017
0.389007
0.380994
0.372979
0.364986
0.356997
0.349011
0.340986
0.332934
0.324886
0.31682
0.30874
0.300626
0.292485
0.284337
0.276412
0.268029
0.259892
0.251741
0.243585
0.235406
0.22721
0.219004
0.210791
0.202575
0.194354
0.18613
0.177899
0.169663
0.161422
0.153168
0.144889
0.136734
0.128472
0.120208
0.11196
0.10372
0.0954869
0.0872597
0.079035
0.0707877
0.0625486
0.054306
0.0460683
0.0378325
0.0295963
0.0213649
0.0131267
0.00490759
-0.00345766
-0.00345766
0
0
0.485372
0.480136
0.468354
0.45352
0.441446
0.431414
0.422254
0.413817
0.405602
0.405256
0.389577
0.38134
0.373184
0.365118
0.357102
0.349145
0.341086
0.332998
0.324943
0.31686
0.30879
0.300651
0.292423
0.283914
0.251264
0.266985
0.259501
0.251663
0.243566
0.235399
0.227205
0.218998
0.210783
0.202562
0.194336
0.186106
0.177871
0.169632
0.161389
0.15314
0.144886
0.136673
0.128423
0.120172
0.111929
0.103693
0.0954628
0.0872355
0.0790075
0.0707722
0.0625353
0.0542964
0.0460581
0.0378208
0.029585
0.0213528
0.0131259
0.00489795
-0.00346479
-0.00346479
0
0
0.485363
0.480108
0.470248
0.453623
0.44157
0.431567
0.422481
0.413948
0.405633
0.397378
0.389348
0.381315
0.373272
0.365244
0.357162
0.349287
0.341162
0.338098
0.325094
0.316921
0.308871
0.300747
0.29257
0.28441
0.276504
0.268091
0.259922
0.251757
0.243594
0.235409
0.227208
0.218997
0.210777
0.202551
0.19432
0.186085
0.177846
0.169603
0.161359
0.153114
0.144867
0.136624
0.128374
0.120127
0.111889
0.10366
0.0954356
0.0872136
0.07899
0.0707611
0.062527
0.0542891
0.0460499
0.0378115
0.0295753
0.0213428
0.0131184
0.00489047
-0.00345766
-0.00347
0
0
0.485302
0.479669
0.468227
0.453614
0.441683
0.431765
0.422729
0.414163
0.405836
0.397616
0.389533
0.381493
0.373453
0.365372
0.357131
0.314862
0.340761
0.332967
0.325071
0.317075
0.308911
0.300785
0.292677
0.284573
0.276505
0.268264
0.260023
0.251821
0.243627
0.235426
0.227217
0.218999
0.210774
0.202542
0.194305
0.186065
0.17782
0.169574
0.161328
0.153085
0.144842
0.136581
0.12832
0.120072
0.11184
0.10362
0.0954065
0.087195
0.078981
0.0707586
0.0625265
0.054287
0.0460448
0.0378042
0.0295672
0.0213323
0.0131079
0.00464589
-0.0034767
-0.0034767
0
0
0.486381
0.478368
0.467538
0.453487
0.441858
0.432035
0.423042
0.41447
0.406143
0.397948
0.389842
0.381777
0.373719
0.365652
0.357586
0.34966
0.341446
0.333335
0.325265
0.317176
0.30903
0.300899
0.29277
0.28466
0.276468
0.268271
0.26007
0.251864
0.243658
0.235446
0.22723
0.219006
0.210775
0.202535
0.194291
0.186044
0.177793
0.16954
0.161289
0.153055
0.144836
0.136535
0.12825
0.119996
0.111772
0.103571
0.0953755
0.0871812
0.0789847
0.0707716
0.062539
0.0542931
0.0460428
0.0377983
0.0292384
0.0213186
0.0130965
0.00487081
-0.00362116
-0.00348773
0
0
0.485387
0.479827
0.468537
0.454049
0.442247
0.432421
0.423466
0.414846
0.406526
0.398337
0.390214
0.382121
0.374039
0.365959
0.357883
0.349847
0.341708
0.333568
0.325438
0.317306
0.309158
0.301003
0.29284
0.284651
0.276539
0.26834
0.260119
0.251903
0.243688
0.235469
0.227246
0.219018
0.210783
0.202527
0.194276
0.186023
0.177763
0.169495
0.161227
0.153004
0.14491
0.13647
0.128135
0.119878
0.111672
0.103511
0.095343
0.0871734
0.0790129
0.0708139
0.0625743
0.0543114
0.0460416
0.0378072
0.0295534
0.0213088
0.0130829
0.00485898
-0.00349158
-0.00349158
0
0
0.485445
0.480387
0.468971
0.454467
0.442145
0.4329
0.42398
0.415084
0.406952
0.398793
0.390651
0.382523
0.374406
0.36654
0.358181
0.35006
0.34192
0.333767
0.325612
0.317454
0.309288
0.301114
0.292933
0.284745
0.276576
0.268374
0.260158
0.251939
0.243721
0.235492
0.227264
0.219036
0.21081
0.202507
0.194256
0.186002
0.17773
0.169434
0.161094
0.152789
0.144924
0.136221
0.12791
0.119678
0.111508
0.10345
0.0953118
0.0871632
0.0790958
0.0709157
0.06265
0.054349
0.0460379
0.0378216
0.0295436
0.0212895
0.0130621
0.00484112
-0.00350378
-0.00350378
0
0
0.485498
0.480611
0.469326
0.454944
0.443257
0.433507
0.424593
0.415969
0.407614
0.399367
0.391166
0.382985
0.374814
0.366649
0.358484
0.350324
0.342152
0.333975
0.325795
0.317613
0.309426
0.301229
0.293031
0.284831
0.276632
0.26842
0.2602
0.251975
0.243747
0.235515
0.227281
0.219055
0.21086
0.202483
0.194232
0.185989
0.177705
0.169366
0.160868
0.151757
0.0654486
0.134696
0.127426
0.119347
0.111195
0.103471
0.0952953
0.0870878
0.0793369
0.0711459
0.0627937
0.0544364
0.0461213
0.037753
0.0294951
0.0212539
0.0130301
0.00481486
-0.00351903
-0.00351903
0
0
0.485556
0.480827
0.469733
0.455517
0.443938
0.434253
0.425336
0.416752
0.408346
0.400029
0.391759
0.383505
0.375267
0.367042
0.358826
0.350614
0.342404
0.334194
0.325986
0.31778
0.309575
0.301342
0.293126
0.284913
0.276698
0.268473
0.260246
0.252014
0.243778
0.235538
0.22729
0.219025
0.210718
0.202591
0.194315
0.186011
0.177714