# vtk DataFile Version 2.0
FlowField
ASCII
DATASET STRUCTURED_GRID
DIMENSIONS 62 47 32 
POINTS 93248 double
0 0 0
0.01 0 0
0.02 0 0
0.03 0 0
0.04 0 0
0.05 0 0
0.06 0 0
0.07 0 0
0.08 0 0
0.09 0 0
0.1 0 0
0.11 0 0
0.12 0 0
0.13 0 0
0.14 0 0
0.15 0 0
0.16 0 0
0.17 0 0
0.18 0 0
0.19 0 0
0.2 0 0
0.21 0 0
0.22 0 0
0.23 0 0
0.24 0 0
0.25 0 0
0.26 0 0
0.27 0 0
0.28 0 0
0.29 0 0
0.3 0 0
0.31 0 0
0.32 0 0
0.33 0 0
0.34 0 0
0.35 0 0
0.36 0 0
0.37 0 0
0.38 0 0
0.39 0 0
0.4 0 0
0.41 0 0
0.42 0 0
0.43 0 0
0.44 0 0
0.45 0 0
0.46 0 0
0.47 0 0
0.48 0 0
0.49 0 0
0.5 0 0
0.51 0 0
0.52 0 0
0.53 0 0
0.54 0 0
0.55 0 0
0.56 0 0
0.57 0 0
0.58 0 0
0.59 0 0
0.6 0 0
0.61 0 0
0 0.01 0
0.01 0.01 0
0.02 0.01 0
0.03 0.01 0
0.04 0.01 0
0.05 0.01 0
0.06 0.01 0
0.07 0.01 0
0.08 0.01 0
0.09 0.01 0
0.1 0.01 0
0.11 0.01 0
0.12 0.01 0
0.13 0.01 0
0.14 0.01 0
0.15 0.01 0
0.16 0.01 0
0.17 0.01 0
0.18 0.01 0
0.19 0.01 0
0.2 0.01 0
0.21 0.01 0
0.22 0.01 0
0.23 0.01 0
0.24 0.01 0
0.25 0.01 0
0.26 0.01 0
0.27 0.01 0
0.28 0.01 0
0.29 0.01 0
0.3 0.01 0
0.31 0.01 0
0.32 0.01 0
0.33 0.01 0
0.34 0.01 0
0.35 0.01 0
0.36 0.01 0
0.37 0.01 0
0.38 0.01 0
0.39 0.01 0
0.4 0.01 0
0.41 0.01 0
0.42 0.01 0
0.43 0.01 0
0.44 0.01 0
0.45 0.01 0
0.46 0.01 0
0.47 0.01 0
0.48 0.01 0
0.49 0.01 0
0.5 0.01 0
0.51 0.01 0
0.52 0.01 0
0.53 0.01 0
0.54 0.01 0
0.55 0.01 0
0.56 0.01 0
0.57 0.01 0
0.58 0.01 0
0.59 0.01 0
0.6 0.01 0
0.61 0.01 0
0 0.02 0
0.01 0.02 0
0.02 0.02 0
0.03 0.02 0
0.04 0.02 0
0.05 0.02 0
0.06 0.02 0
0.07 0.02 0
0.08 0.02 0
0.09 0.02 0
0.1 0.02 0
0.11 0.02 0
0.12 0.02 0
0.13 0.02 0
0.14 0.02 0
0.15 0.02 0
0.16 0.02 0
0.17 0.02 0
0.18 0.02 0
0.19 0.02 0
0.2 0.02 0
0.21 0.02 0
0.22 0.02 0
0.23 0.02 0
0.24 0.02 0
0.25 0.02 0
0.26 0.02 0
0.27 0.02 0
0.28 0.02 0
0.29 0.02 0
0.3 0.02 0
0.31 0.02 0
0.32 0.02 0
0.33 0.02 0
0.34 0.02 0
0.35 0.02 0
0.36 0.02 0
0.37 0.02 0
0.38 0.02 0
0.39 0.02 0
0.4 0.02 0
0.41 0.02 0
0.42 0.02 0
0.43 0.02 0
0.44 0.02 0
0.45 0.02 0
0.46 0.02 0
0.47 0.02 0
0.48 0.02 0
0.49 0.02 0
0.5 0.02 0
0.51 0.02 0
0.52 0.02 0
0.53 0.02 0
0.54 0.02 0
0.55 0.02 0
0.56 0.02 0
0.57 0.02 0
0.58 0.02 0
0.59 0.02 0
0.6 0.02 0
0.61 0.02 0
0 0.03 0
0.01 0.03 0
0.02 0.03 0
0.03 0.03 0
0.04 0.03 0
0.05 0.03 0
0.06 0.03 0
0.07 0.03 0
0.08 0.03 0
0.09 0.03 0
0.1 0.03 0
0.11 0.03 0
0.12 0.03 0
0.13 0.03 0
0.14 0.03 0
0.15 0.03 0
0.16 0.03 0
0.17 0.03 0
0.18 0.03 0
0.19 0.03 0
0.2 0.03 0
0.21 0.03 0
0.22 0.03 0
0.23 0.03 0
0.24 0.03 0
0.25 0.03 0
0.26 0.03 0
0.27 0.03 0
0.28 0.03 0
0.29 0.03 0
0.3 0.03 0
0.31 0.03 0
0.32 0.03 0
0.33 0.03 0
0.34 0.03 0
0.35 0.03 0
0.36 0.03 0
0.37 0.03 0
0.38 0.03 0
0.39 0.03 0
0.4 0.03 0
0.41 0.03 0
0.42 0.03 0
0.43 0.03 0
0.44 0.03 0
0.45 0.03 0
0.46 0.03 0
0.47 0.03 0
0.48 0.03 0
0.49 0.03 0
0.5 0.03 0
0.51 0.03 0
0.52 0.03 0
0.53 0.03 0
0.54 0.03 0
0.55 0.03 0
0.56 0.03 0
0.57 0.03 0
0.58 0.03 0
0.59 0.03 0
0.6 0.03 0
0.61 0.03 0
0 0.04 0
0.01 0.04 0
0.02 0.04 0
0.03 0.04 0
0.04 0.04 0
0.05 0.04 0
0.06 0.04 0
0.07 0.04 0
0.08 0.04 0
0.09 0.04 0
0.1 0.04 0
0.11 0.04 0
0.12 0.04 0
0.13 0.04 0
0.14 0.04 0
0.15 0.04 0
0.16 0.04 0
0.17 0.04 0
0.18 0.04 0
0.19 0.04 0
0.2 0.04 0
0.21 0.04 0
0.22 0.04 0
0.23 0.04 0
0.24 0.04 0
0.25 0.04 0
0.26 0.04 0
0.27 0.04 0
0.28 0.04 0
0.29 0.04 0
0.3 0.04 0
0.31 0.04 0
0.32 0.04 0
0.33 0.04 0
0.34 0.04 0
0.35 0.04 0
0.36 0.04 0
0.37 0.04 0
0.38 0.04 0
0.39 0.04 0
0.4 0.04 0
0.41 0.04 0
0.42 0.04 0
0.43 0.04 0
0.44 0.04 0
0.45 0.04 0
0.46 0.04 0
0.47 0.04 0
0.48 0.04 0
0.49 0.04 0
0.5 0.04 0
0.51 0.04 0
0.52 0.04 0
0.53 0.04 0
0.54 0.04 0
0.55 0.04 0
0.56 0.04 0
0.57 0.04 0
0.58 0.04 0
0.59 0.04 0
0.6 0.04 0
0.61 0.04 0
0 0.05 0
0.01 0.05 0
0.02 0.05 0
0.03 0.05 0
0.04 0.05 0
0.05 0.05 0
0.06 0.05 0
0.07 0.05 0
0.08 0.05 0
0.09 0.05 0
0.1 0.05 0
0.11 0.05 0
0.12 0.05 0
0.13 0.05 0
0.14 0.05 0
0.15 0.05 0
0.16 0.05 0
0.17 0.05 0
0.18 0.05 0
0.19 0.05 0
0.2 0.05 0
0.21 0.05 0
0.22 0.05 0
0.23 0.05 0
0.24 0.05 0
0.25 0.05 0
0.26 0.05 0
0.27 0.05 0
0.28 0.05 0
0.29 0.05 0
0.3 0.05 0
0.31 0.05 0
0.32 0.05 0
0.33 0.05 0
0.34 0.05 0
0.35 0.05 0
0.36 0.05 0
0.37 0.05 0
0.38 0.05 0
0.39 0.05 0
0.4 0.05 0
0.41 0.05 0
0.42 0.05 0
0.43 0.05 0
0.44 0.05 0
0.45 0.05 0
0.46 0.05 0
0.47 0.05 0
0.48 0.05 0
0.49 0.05 0
0.5 0.05 0
0.51 0.05 0
0.52 0.05 0
0.53 0.05 0
0.54 0.05 0
0.55 0.05 0
0.56 0.05 0
0.57 0.05 0
0.58 0.05 0
0.59 0.05 0
0.6 0.05 0
0.61 0.05 0
0 0.06 0
0.01 0.06 0
0.02 0.06 0
0.03 0.06 0
0.04 0.06 0
0.05 0.06 0
0.06 0.06 0
0.07 0.06 0
0.08 0.06 0
0.09 0.06 0
0.1 0.06 0
0.11 0.06 0
0.12 0.06 0
0.13 0.06 0
0.14 0.06 0
0.15 0.06 0
0.16 0.06 0
0.17 0.06 0
0.18 0.06 0
0.19 0.06 0
0.2 0.06 0
0.21 0.06 0
0.22 0.06 0
0.23 0.06 0
0.24 0.06 0
0.25 0.06 0
0.26 0.06 0
0.27 0.06 0
0.28 0.06 0
0.29 0.06 0
0.3 0.06 0
0.31 0.06 0
0.32 0.06 0
0.33 0.06 0
0.34 0.06 0
0.35 0.06 0
0.36 0.06 0
0.37 0.06 0
0.38 0.06 0
0.39 0.06 0
0.4 0.06 0
0.41 0.06 0
0.42 0.06 0
0.43 0.06 0
0.44 0.06 0
0.45 0.06 0
0.46 0.06 0
0.47 0.06 0
0.48 0.06 0
0.49 0.06 0
0.5 0.06 0
0.51 0.06 0
0.52 0.06 0
0.53 0.06 0
0.54 0.06 0
0.55 0.06 0
0.56 0.06 0
0.57 0.06 0
0.58 0.06 0
0.59 0.06 0
0.6 0.06 0
0.61 0.06 0
0 0.07 0
0.01 0.07 0
0.02 0.07 0
0.03 0.07 0
0.04 0.07 0
0.05 0.07 0
0.06 0.07 0
0.07 0.07 0
0.08 0.07 0
0.09 0.07 0
0.1 0.07 0
0.11 0.07 0
0.12 0.07 0
0.13 0.07 0
0.14 0.07 0
0.15 0.07 0
0.16 0.07 0
0.17 0.07 0
0.18 0.07 0
0.19 0.07 0
0.2 0.07 0
0.21 0.07 0
0.22 0.07 0
0.23 0.07 0
0.24 0.07 0
0.25 0.07 0
0.26 0.07 0
0.27 0.07 0
0.28 0.07 0
0.29 0.07 0
0.3 0.07 0
0.31 0.07 0
0.32 0.07 0
0.33 0.07 0
0.34 0.07 0
0.35 0.07 0
0.36 0.07 0
0.37 0.07 0
0.38 0.07 0
0.39 0.07 0
0.4 0.07 0
0.41 0.07 0
0.42 0.07 0
0.43 0.07 0
0.44 0.07 0
0.45 0.07 0
0.46 0.07 0
0.47 0.07 0
0.48 0.07 0
0.49 0.07 0
0.5 0.07 0
0.51 0.07 0
0.52 0.07 0
0.53 0.07 0
0.54 0.07 0
0.55 0.07 0
0.56 0.07 0
0.57 0.07 0
0.58 0.07 0
0.59 0.07 0
0.6 0.07 0
0.61 0.07 0
0 0.08 0
0.01 0.08 0
0.02 0.08 0
0.03 0.08 0
0.04 0.08 0
0.05 0.08 0
0.06 0.08 0
0.07 0.08 0
0.08 0.08 0
0.09 0.08 0
0.1 0.08 0
0.11 0.08 0
0.12 0.08 0
0.13 0.08 0
0.14 0.08 0
0.15 0.08 0
0.16 0.08 0
0.17 0.08 0
0.18 0.08 0
0.19 0.08 0
0.2 0.08 0
0.21 0.08 0
0.22 0.08 0
0.23 0.08 0
0.24 0.08 0
0.25 0.08 0
0.26 0.08 0
0.27 0.08 0
0.28 0.08 0
0.29 0.08 0
0.3 0.08 0
0.31 0.08 0
0.32 0.08 0
0.33 0.08 0
0.34 0.08 0
0.35 0.08 0
0.36 0.08 0
0.37 0.08 0
0.38 0.08 0
0.39 0.08 0
0.4 0.08 0
0.41 0.08 0
0.42 0.08 0
0.43 0.08 0
0.44 0.08 0
0.45 0.08 0
0.46 0.08 0
0.47 0.08 0
0.48 0.08 0
0.49 0.08 0
0.5 0.08 0
0.51 0.08 0
0.52 0.08 0
0.53 0.08 0
0.54 0.08 0
0.55 0.08 0
0.56 0.08 0
0.57 0.08 0
0.58 0.08 0
0.59 0.08 0
0.6 0.08 0
0.61 0.08 0
0 0.09 0
0.01 0.09 0
0.02 0.09 0
0.03 0.09 0
0.04 0.09 0
0.05 0.09 0
0.06 0.09 0
0.07 0.09 0
0.08 0.09 0
0.09 0.09 0
0.1 0.09 0
0.11 0.09 0
0.12 0.09 0
0.13 0.09 0
0.14 0.09 0
0.15 0.09 0
0.16 0.09 0
0.17 0.09 0
0.18 0.09 0
0.19 0.09 0
0.2 0.09 0
0.21 0.09 0
0.22 0.09 0
0.23 0.09 0
0.24 0.09 0
0.25 0.09 0
0.26 0.09 0
0.27 0.09 0
0.28 0.09 0
0.29 0.09 0
0.3 0.09 0
0.31 0.09 0
0.32 0.09 0
0.33 0.09 0
0.34 0.09 0
0.35 0.09 0
0.36 0.09 0
0.37 0.09 0
0.38 0.09 0
0.39 0.09 0
0.4 0.09 0
0.41 0.09 0
0.42 0.09 0
0.43 0.09 0
0.44 0.09 0
0.45 0.09 0
0.46 0.09 0
0.47 0.09 0
0.48 0.09 0
0.49 0.09 0
0.5 0.09 0
0.51 0.09 0
0.52 0.09 0
0.53 0.09 0
0.54 0.09 0
0.55 0.09 0
0.56 0.09 0
0.57 0.09 0
0.58 0.09 0
0.59 0.09 0
0.6 0.09 0
0.61 0.09 0
0 0.1 0
0.01 0.1 0
0.02 0.1 0
0.03 0.1 0
0.04 0.1 0
0.05 0.1 0
0.06 0.1 0
0.07 0.1 0
0.08 0.1 0
0.09 0.1 0
0.1 0.1 0
0.11 0.1 0
0.12 0.1 0
0.13 0.1 0
0.14 0.1 0
0.15 0.1 0
0.16 0.1 0
0.17 0.1 0
0.18 0.1 0
0.19 0.1 0
0.2 0.1 0
0.21 0.1 0
0.22 0.1 0
0.23 0.1 0
0.24 0.1 0
0.25 0.1 0
0.26 0.1 0
0.27 0.1 0
0.28 0.1 0
0.29 0.1 0
0.3 0.1 0
0.31 0.1 0
0.32 0.1 0
0.33 0.1 0
0.34 0.1 0
0.35 0.1 0
0.36 0.1 0
0.37 0.1 0
0.38 0.1 0
0.39 0.1 0
0.4 0.1 0
0.41 0.1 0
0.42 0.1 0
0.43 0.1 0
0.44 0.1 0
0.45 0.1 0
0.46 0.1 0
0.47 0.1 0
0.48 0.1 0
0.49 0.1 0
0.5 0.1 0
0.51 0.1 0
0.52 0.1 0
0.53 0.1 0
0.54 0.1 0
0.55 0.1 0
0.56 0.1 0
0.57 0.1 0
0.58 0.1 0
0.59 0.1 0
0.6 0.1 0
0.61 0.1 0
0 0.11 0
0.01 0.11 0
0.02 0.11 0
0.03 0.11 0
0.04 0.11 0
0.05 0.11 0
0.06 0.11 0
0.07 0.11 0
0.08 0.11 0
0.09 0.11 0
0.1 0.11 0
0.11 0.11 0
0.12 0.11 0
0.13 0.11 0
0.14 0.11 0
0.15 0.11 0
0.16 0.11 0
0.17 0.11 0
0.18 0.11 0
0.19 0.11 0
0.2 0.11 0
0.21 0.11 0
0.22 0.11 0
0.23 0.11 0
0.24 0.11 0
0.25 0.11 0
0.26 0.11 0
0.27 0.11 0
0.28 0.11 0
0.29 0.11 0
0.3 0.11 0
0.31 0.11 0
0.32 0.11 0
0.33 0.11 0
0.34 0.11 0
0.35 0.11 0
0.36 0.11 0
0.37 0.11 0
0.38 0.11 0
0.39 0.11 0
0.4 0.11 0
0.41 0.11 0
0.42 0.11 0
0.43 0.11 0
0.44 0.11 0
0.45 0.11 0
0.46 0.11 0
0.47 0.11 0
0.48 0.11 0
0.49 0.11 0
0.5 0.11 0
0.51 0.11 0
0.52 0.11 0
0.53 0.11 0
0.54 0.11 0
0.55 0.11 0
0.56 0.11 0
0.57 0.11 0
0.58 0.11 0
0.59 0.11 0
0.6 0.11 0
0.61 0.11 0
0 0.12 0
0.01 0.12 0
0.02 0.12 0
0.03 0.12 0
0.04 0.12 0
0.05 0.12 0
0.06 0.12 0
0.07 0.12 0
0.08 0.12 0
0.09 0.12 0
0.1 0.12 0
0.11 0.12 0
0.12 0.12 0
0.13 0.12 0
0.14 0.12 0
0.15 0.12 0
0.16 0.12 0
0.17 0.12 0
0.18 0.12 0
0.19 0.12 0
0.2 0.12 0
0.21 0.12 0
0.22 0.12 0
0.23 0.12 0
0.24 0.12 0
0.25 0.12 0
0.26 0.12 0
0.27 0.12 0
0.28 0.12 0
0.29 0.12 0
0.3 0.12 0
0.31 0.12 0
0.32 0.12 0
0.33 0.12 0
0.34 0.12 0
0.35 0.12 0
0.36 0.12 0
0.37 0.12 0
0.38 0.12 0
0.39 0.12 0
0.4 0.12 0
0.41 0.12 0
0.42 0.12 0
0.43 0.12 0
0.44 0.12 0
0.45 0.12 0
0.46 0.12 0
0.47 0.12 0
0.48 0.12 0
0.49 0.12 0
0.5 0.12 0
0.51 0.12 0
0.52 0.12 0
0.53 0.12 0
0.54 0.12 0
0.55 0.12 0
0.56 0.12 0
0.57 0.12 0
0.58 0.12 0
0.59 0.12 0
0.6 0.12 0
0.61 0.12 0
0 0.13 0
0.01 0.13 0
0.02 0.13 0
0.03 0.13 0
0.04 0.13 0
0.05 0.13 0
0.06 0.13 0
0.07 0.13 0
0.08 0.13 0
0.09 0.13 0
0.1 0.13 0
0.11 0.13 0
0.12 0.13 0
0.13 0.13 0
0.14 0.13 0
0.15 0.13 0
0.16 0.13 0
0.17 0.13 0
0.18 0.13 0
0.19 0.13 0
0.2 0.13 0
0.21 0.13 0
0.22 0.13 0
0.23 0.13 0
0.24 0.13 0
0.25 0.13 0
0.26 0.13 0
0.27 0.13 0
0.28 0.13 0
0.29 0.13 0
0.3 0.13 0
0.31 0.13 0
0.32 0.13 0
0.33 0.13 0
0.34 0.13 0
0.35 0.13 0
0.36 0.13 0
0.37 0.13 0
0.38 0.13 0
0.39 0.13 0
0.4 0.13 0
0.41 0.13 0
0.42 0.13 0
0.43 0.13 0
0.44 0.13 0
0.45 0.13 0
0.46 0.13 0
0.47 0.13 0
0.48 0.13 0
[...]
POINT_DATA 93248

SCALARS w double
LOOKUP_TABLE default
0
0
0
0
0
0
0
0
0
0
0
0
0
-0.0451481
0
0
0
0
0
0
0
0
0
0
0
0
-0.0813955
0
0
0
0
0
-0.0767744
0
0
0
0
0
0
0
0
0
0
0
0
0
-0.0720021
0
0
0
0
0
0
0
0
0
0
0
0
0
0
0
0
-0.0145251
-0.0274512
-0.036389
-0.0409313
-0.042447
-0.0425805
-0.042479
-0.0422319
-0.0421428
-0.0422018
-0.0421979
-0.0419308
-0.0421477
-0.0425126
-0.0428971
-0.043207
-0.0436047
-0.0440452
-0.0442293
-0.0411563
-0.0407475
-0.0414733
-0.0417351
-0.0418768
-0.0419253
-0.0419092
-0.041856
-0.0417809
-0.0416859
-0.0415553
-0.0413424
-0.0409966
-0.0409832
-0.0409333
-0.0404208
-0.0396367
-0.0396395
-0.0410793
-0.0474891
-0.0394794
-0.0411197
-0.0424497
-0.0431109
-0.044141
-0.0763243
-0.0419106
-0.041516
-0.0415392
-0.0421323
-0.0427254
-0.0433982
-0.0416078
-0.0431425
-0.0762384
-0.043478
-0.0420386
-0.0406157
-0.041153
-0.0410203
-0.038874
0
0
-0.0174292
-0.0405026
-0.0529017
-0.0607779
-0.0652394
-0.0691316
-0.0706963
-0.0711339
-0.0713332
-0.0718483
-0.0723743
-0.0723748
-0.0732477
-0.0740065
-0.0746714
-0.0751446
-0.0758902
-0.0768165
-0.078652
-0.0720672
-0.0721663
-0.0821054
-0.0736356
-0.0736225
-0.0736605
-0.0736444
-0.0735777
-0.0734768
-0.0733496
-0.073187
-0.0729254
-0.0723327
-0.0723861
-0.072469
-0.0715926
-0.0709165
-0.0693788
-0.0681834
-0.0780718
-0.075656
-0.0754019
-0.0755046
-0.0754928
-0.0762525
-0.0774655
-0.0761228
-0.0743347
-0.0738278
-0.0741852
-0.0744712
-0.076637
-0.0740079
-0.0748933
-0.0764005
-0.0755909
-0.0750511
-0.0730026
-0.0727923
-0.0716079
-0.0671911
0
0
-0.0172767
-0.040238
-0.0542816
-0.0638073
-0.042447
-0.0736489
-0.0770517
-0.0781417
-0.0785179
-0.0791797
-0.079814
-0.0815941
-0.0820802
-0.0823929
-0.0825853
-0.0830424
-0.0840056
-0.0843928
-0.0851221
-0.0840642
-0.0827633
-0.082463
-0.0821563
-0.0820364
-0.0819754
-0.081908
-0.0818186
-0.0817103
-0.0815918
-0.0814835
-0.0814601
-0.0817021
-0.0805959
-0.0814452
-0.079588
-0.0791079
-0.0783804
-0.0782525
-0.0824041
-0.0833271
-0.0836565
-0.0839506
-0.0831734
-0.0837398
-0.0846606
-0.0828164
-0.0820335
-0.0814697
-0.0824879
-0.0824455
-0.082353
-0.0821855
-0.0825261
-0.0830438
-0.0830842
-0.0831269
-0.0829658
-0.0816998
-0.0797042
-0.0743184
0
0
-0.016871
-0.0391376
-0.0387497
-0.0636828
-0.0705962
-0.0759188
-0.0786605
-0.0795306
-0.079643
-0.079922
-0.0805639
-0.0817006
-0.0824588
-0.0828912
-0.0830653
-0.0831376
-0.0827776
-0.0833837
-0.08406
-0.083813
-0.0834255
-0.0831313
-0.0828978
-0.0827353
-0.0826103
-0.0824958
-0.0823801
-0.0822609
-0.0821418
-0.0820325
-0.0819547
-0.081908
-0.0815762
-0.081474
-0.0807481
-0.0803537
-0.080065
-0.0792749
-0.0817074
-0.0827093
-0.0832188
-0.0834357
-0.0832259
-0.0833982
-0.0837088
-0.0832526
-0.0825642
-0.0821612
-0.082451
-0.0824894
-0.0824577
-0.0824534
-0.0826043
-0.0828167
-0.0829547
-0.0830508
-0.0829743
-0.0821543
-0.0801613
-0.0746194
0
0
-0.0166906
-0.0388806
-0.0536427
-0.0644134
-0.0716517
-0.0763689
-0.078736
-0.0793862
-0.0794046
-0.0795436
-0.0800575
-0.0808277
-0.0814722
-0.0818578
-0.0816451
-0.0819141
-0.0819307
-0.0821255
-0.0824382
-0.0824356
-0.0822914
-0.0821054
-0.0819207
-0.0817551
-0.081607
-0.0814699
-0.0813385
-0.0812114
-0.0810886
-0.0809667
-0.0808269
-0.0805959
-0.0801173
-0.0800676
-0.0799316
-0.0798194
-0.0797745
-0.0799254
-0.080498
-0.0810339
-0.0813844
-0.0815501
-0.0815494
-0.0816092
-0.0817858
-0.0821836
-0.0813314
-0.0809899
-0.0810044
-0.0810353
-0.0810597
-0.0811226
-0.081255
-0.0814002
-0.0815079
-0.0815504
-0.0814041
-0.0806672
-0.0786871
-0.0733941
0
0
-0.0165884
-0.0386715
-0.053833
-0.0644326
-0.0716981
-0.0762869
-0.0783731
-0.0787845
-0.0788896
-0.0790491
-0.0794973
-0.0800969
-0.0806013
-0.0808622
-0.0808446
-0.0806713
-0.0809674
-0.0790642
-0.0813988
-0.0814507
-0.0813245
-0.08114
-0.0809506
-0.0807737
-0.080612
-0.0804656
-0.0803264
-0.0801964
-0.0800767
-0.0799609
-0.0798188
-0.0795363
-0.0787468
-0.0790196
-0.0791505
-0.0791587
-0.0791737
-0.0792749
-0.0794974
-0.0797401
-0.0799272
-0.0800303
-0.0800315
-0.0799567
-0.0796553
-0.0788001
-0.0792162
-0.0794898
-0.0796367
-0.0797037
-0.0797525
-0.0798597
-0.0800634
-0.0802381
-0.0803236
-0.0802881
-0.0799585
-0.0787851
-0.0760454
-0.0716231
0
0
-0.0165146
-0.0384889
-0.0536666
-0.0642361
-0.0715138
-0.0762294
-0.0779431
-0.0787626
-0.0787044
-0.0787426
-0.0790779
-0.0795508
-0.0799493
-0.0800981
-0.079838
-0.0790202
-0.0802211
-0.0808923
-0.0810901
-0.0809723
-0.0807223
-0.0804681
-0.080241
-0.0800415
-0.079863
-0.0797176
-0.0795727
-0.0794429
-0.0793368
-0.0792579
-0.0792131
-0.0793233
-0.0799899
-0.0794484
-0.0790068
-0.0787675
-0.0786715
-0.0786786
-0.0787542
-0.0788545
-0.078945
-0.079006
-0.078973
-0.0788974
-0.0786864
-0.0783357
-0.0784388
-0.0785944
-0.0786803
-0.0786942
-0.0786976
-0.0788325
-0.0792358
-0.0795192
-0.0796032
-0.0795035
-0.0789499
-0.0766281
-0.0410203
-0.070252
0
0
-0.016456
-0.0383355
-0.0534639
-0.0639918
-0.0712066
-0.0756796
-0.0776629
-0.0782845
-0.0782966
-0.078375
-0.0787045
-0.0790378
-0.0794346
-0.0795431
-0.0789387
-0.076367
-0.0743978
-0.0809402
-0.0809862
-0.0806615
-0.0802655
-0.0799608
-0.0797141
-0.0794978
-0.0792899
-0.0791712
-0.0790127
-0.0788826
-0.0787978
-0.0787637
-0.078738
-0.0787839
-0.0789707
-0.0787614
-0.0784913
-0.0782947
-0.0781963
-0.0781712
-0.0781892
-0.0782263
-0.0782648
-0.0782898
-0.0782755
-0.0782296
-0.0781337
-0.0780149
-0.0780073
-0.0780271
-0.0779977
-0.0778849
-0.077738
-0.0778293
-0.0787393
-0.0792137
-0.0792965
-0.0792392
-0.079109
-0.0784857
-0.0750373
-0.070583
0
0
-0.0164089
-0.0382105
-0.0532831
-0.0637613
-0.0709192
-0.0752832
-0.0773212
-0.0779096
-0.0779523
-0.0780741
-0.0783896
-0.0723748
-0.079094
-0.0793873
-0.0791741
-0.0784012
-0.0795296
-0.080229
-0.0803246
-0.0801118
-0.079732
-0.0795177
-0.0793067
-0.0790847
-0.0788442
-0.0786911
-0.0785411
-0.0784221
-0.0783744
-0.0784281
-0.0783899
-0.0783286
-0.0782641
-0.0781168
-0.0779514
-0.0778197
-0.0777588
-0.07774
-0.077741
-0.0777517
-0.0777661
-0.077777
-0.0777753
-0.0777584
-0.0777234
-0.0776805
-0.0776499
-0.0776006
-0.077473
-0.0771947
-0.0767509
-0.075439
-0.0786447
-0.0792706
-0.0792268
-0.0790752
-0.0789389
-0.078419
-0.0762362
-0.0707375
0
0
-0.0163719
-0.0381121
-0.0531343
-0.0635523
-0.0706737
-0.074995
-0.0770321
-0.0776196
-0.0776893
-0.0778541
-0.0782395
-0.078603
-0.079117
-0.0794002
-0.0794788
-0.0793546
-0.0796097
-0.0798019
-0.0797935
-0.0796515
-0.079623
-0.079353
-0.0790633
-0.0787762
-0.0776107
-0.0782749
-0.0781188
-0.0779903
-0.0779748
-0.0782076
-0.0781618
-0.0780018
-0.0778019
-0.0776297
-0.0774947
-0.0773908
-0.0773689
-0.0773699
-0.0773676
-0.0773673
-0.0773717
-0.0773796
-0.0773888
-0.0773933
-0.077389
-0.0773751
-0.0773465
-0.0772767
-0.0771054
-0.076727
-0.0760462
-0.075439
-0.0792584
-0.0794605
-0.0791538
-0.0788935
-0.0787092
-0.0781912
-0.0762949
-0.0707077
0
0
-0.0163446
-0.0380407
-0.0530273
-0.0633774
-0.0704999
-0.0748108
-0.0768335
-0.0774142
-0.077494
-0.077683
-0.07811
-0.0786116
-0.0790669
-0.0794027
-0.07973
-0.0797122
-0.0796598
-0.0795781
-0.0794324
-0.0792086
-0.0792121
-0.079019
-0.0787682
-0.0784958
-0.0781963
-0.0779486
-0.0777045
-0.0774982
-0.0773919
-0.0775346
-0.0780859
-0.0776033
-0.0772944
-0.0771487
-0.0770728
-0.0770202
-0.0769919
-0.077029
-0.0770293
-0.0770265
-0.0770295
-0.0770378
-0.077065
-0.0770917
-0.0771103
-0.0771173
-0.0771061
-0.0770586
-0.0769358
-0.0766818
-0.0763463
-0.0764
-0.0781811
-0.0787259
-0.0787007
-0.0785824
-0.0784634
-0.0779873
-0.0761738
-0.0706156
0
0
-0.0163263
-0.0379982
-0.0529954
-0.0635062
-0.0705708
-0.0747976
-0.0767554
-0.0772949
-0.0773586
-0.0775451
-0.0779866
-0.0785124
-0.0789615
-0.0793251
-0.0799376
-0.0797314
-0.0795018
-0.0793121
-0.0791161
-0.0789279
-0.0788229
-0.0786679
-0.078461
-0.0782087
-0.0779125
-0.0775824
-0.0772194
-0.0768529
-0.0764729
-0.0762109
-0.0754209
-0.0759045
-0.0762991
-0.0765198
-0.0766261
-0.0766637
-0.0766704
-0.0766838
-0.0766867
-0.0766917
-0.0766979
-0.0766868
-0.0767638
-0.0768275
-0.0768732
-0.076904
-0.0769208
-0.0769212
-0.0768895
-0.0767836
-0.0767022
-0.0768881
-0.0776152
-0.0780443
-0.0781893
-0.0782394
-0.0782302
-0.0778126
-0.0760432
-0.0705138
0
0
-0.0163123
-0.0379631
-0.0529447
-0.0634109
-0.0704739
-0.0746967
-0.0766425
-0.0771732
-0.0772359
-0.0774196
-0.0778738
-0.078399
-0.0788002
-0.0789427
-0.0784894
-0.0787072
-0.0788538
-0.0788459
-0.0787027
-0.0785873
-0.0784994
-0.0783777
-0.0781966
-0.0779451
-0.0776107
-0.0771718
-0.0766032
-0.0758893
-0.0747579
-0.0748352
-0.0749654
-0.0754113
-0.0758317
-0.0761201
-0.0762801
-0.0763462
-0.0763617
-0.0763414
-0.0763294
-0.0763411
-0.0763442
-0.0749731
-0.0764513
-0.0765862
-0.0766666
-0.0767231
-0.0767697
-0.0768232
-0.0768934
-0.0768517
-0.0768638
-0.0770264
-0.0773648
-0.0776372
-0.0778216
-0.0779729
-0.0780671
-0.0776772
-0.0759304
-0.0704183
0
0
-0.0163024
-0.0379387
-0.0529094
-0.0639918
-0.0704081
-0.0746003
-0.0765348
-0.077064
-0.0771394
-0.0773725
-0.0778207
-0.0783297
-0.078715
-0.0788756
-0.0787585
-0.0787688
-0.0787721
-0.0786649
-0.078334
-0.0782753
-0.0782563
-0.0781762
-0.0780067
-0.0777373
-0.0773387
-0.0767367
-0.0757681
-0.0740088
-0.0689847
-0.0714791
-0.0734477
-0.0746589
-0.0753815
-0.0757865
-0.075982
-0.0760441
-0.0763285
-0.0759519
-0.0758928
-0.0759294
-0.0760144
-0.0760888
-0.076252
-0.0763857
-0.076487
-0.0765626
-0.0766254
-0.076706
-0.0768681
-0.0768047
-0.0768518
-0.0770164
-0.0772796
-0.0774364
-0.0776085
-0.0778124
-0.0787851
-0.0775928
-0.07584
-0.0703336
0
0
-0.0162974
-0.0379294
-0.0528761
-0.0632778
-0.0703054
-0.0745088
-0.0764425
-0.0769731
-0.0770539
-0.0772834
-0.0777458
-0.0782652
-0.0786633
-0.0788713
-0.0789102
-0.0789005
-0.0788452
-0.0786644
-0.078012
-0.0781658
-0.0782309
-0.0781404
-0.0779363
-0.0776228
-0.0771549
-0.0763787
-0.0747766
-0.069893
0.0446243
-0.0640753
-0.0710003
-0.0737433
-0.0749578
-0.0755052
-0.0757134
-0.0757183
-0.0755924
-0.0753668
-0.0751571
-0.075276
-0.0755315
-0.0757865
-0.0760122
-0.0761903
-0.0763243
-0.0764149
-0.0764648
-0.0764518
-0.0763255
-0.0764964
-0.0766968
-0.0769561
-0.0786447
-0.0773682
-0.0775082
-0.0776712
-0.0778336
-0.0774892
-0.0757627
-0.0702576
0
0
-0.0162985
-0.0379547
-0.0528734
-0.0632209
-0.0702376
-0.0744407
-0.076371
-0.076904
-0.0769915
-0.0772258
-0.0776991
-0.078226
-0.0786318
-0.0788624
-0.078953
-0.0789684
-0.0789581
-0.0790202
-0.0795553
-0.0791364
-0.0787035
-0.0783404
-0.0779949
-0.0776141
-0.0771267
-0.0764044
-0.0751662
-0.0727236
-0.0675397
-0.0706032
-0.0730175
-0.0744031
-0.0751272
-0.0754524
-0.0755294
-0.0753881
-0.075011
-0.0743309
-0.0733204
-0.0738603
-0.0746541
-0.0752796
-0.0757053
-0.0759876
-0.0761795
-0.0762921
-0.0763512
-0.0763585
-0.0762866
-0.0763144
-0.0765238
-0.0767856
-0.0770725
-0.0772641
-0.0775892
-0.0776079
-0.077759
-0.0774402
-0.0757075
-0.0701844
0
0
-0.0162894
-0.0379932
-0.0528368
-0.0631232
-0.0701327
-0.0743757
-0.0763091
-0.0768524
-0.076954
-0.0772032
-0.077695
-0.0782218
-0.0786155
-0.0788393
-0.0789435
-0.0789751
-0.0789737
-0.0789944
-0.0791201
-0.0789367
-0.0786401
-0.0783183
-0.0779849
-0.0776205
-0.0771863
-0.0766223
-0.0758448
-0.0747279
-0.0735159
-0.0739075
-0.0745845
-0.0750972
-0.0753767
-0.0754523
-0.0753924
-0.0750546
-0.0742067
-0.0721308
-0.0668779
-0.0703112
-0.0729995
-0.0745221
-0.0753371
-0.0757838
-0.0760544
-0.0761914
-0.0762688
-0.0762825
-0.0761965
-0.0760313
-0.0763377
-0.0766469
-0.0769164
-0.0772875
-0.0829547
-0.0776194
-0.0777984
-0.0774446
-0.0756689
-0.0700742
0
0
-0.0162033
-0.0375539
-0.052442
-0.0628114
-0.0699205
-0.074995
-0.0762951
-0.07684
-0.0769472
-0.0772133
-0.077751
-0.0782586
-0.0785992
-0.0787778
-0.0788908
-0.0789443
-0.0789444
-0.0789077
-0.0788588
-0.0787152
-0.078499
-0.0782406
-0.0779532
-0.0776343
-0.0772708
-0.0768493
-0.0763774
-0.075648
-0.07501
-0.0750742
-0.0753192
-0.0754982
-0.0755326
-0.0754175
-0.075333
-0.0748277
-0.0733502
-0.0680015
0.0504351
-0.0631084
-0.0708896
-0.0738204
-0.0750546
-0.075626
-0.0759064
-0.0760983
-0.0762168
-0.0762708
-0.0761909
-0.075793
-0.076312
-0.0766209
-0.0768184
-0.077025
-0.0773086
-0.0771849
-0.077871
-0.0774458
-0.0755969
-0.0699936
0
0
-0.0161983
-0.037607
-0.0524227
-0.0626794
-0.0698097
-0.0743708
-0.0763631
-0.0768781
-0.0769509
-0.077226
-0.0779013
-0.0783152
-0.0785143
-0.0785849
-0.0787713
-0.0788972
-0.0789191
-0.0788386
-0.0787421
-0.0786063
-0.0784216
-0.0781969
-0.0779419
-0.077659
-0.0773442
-0.076993
-0.0765973
-0.0761474
-0.0754032
-0.0756169
-0.0757841
-0.0757957
-0.075662
-0.0753562
-0.0754532
-0.074973
-0.0738782
-0.0714046
-0.0659287
-0.0696585
-0.0727446
-0.0743525
-0.0751929
-0.075646
-0.0759042
-0.0760782
-0.0762172
-0.0763812
-0.0766992
-0.0773897
-0.0769889
-0.0768045
-0.0768008
-0.0768958
-0.0770497
-0.0772141
-0.0775859
-0.0772844
-0.0755235
-0.0699442
0
0
-0.0162111
-0.0376671
-0.0524614
-0.0625704
-0.0697794
-0.0746325
-0.0764339
-0.0768138
-0.0768364
-0.0771108
-0.0780601
-0.0781767
-0.0781286
-0.0780334
-0.0785807
-0.0788839
-0.0789393
-0.0787666
-0.0786813
-0.0785727
-0.0784085
-0.0781984
-0.0779587
-0.0776943
-0.0773994
-0.0770525
-0.0765852
-0.0766772
-0.0772622
-0.0768454
-0.0764503
-0.0761531
-0.0758805
-0.075604
-0.075478
-0.0751643
-0.0745936
-0.0737135
-0.0727035
-0.0733202
-0.0742667
-0.0749731
-0.0754461
-0.075748
-0.0759464
-0.0760803
-0.0762008
-0.0763585
-0.0766073
-0.0769336
-0.0768587
-0.0767493
-0.0767298
-0.0768161
-0.0770047
-0.0772304
-0.0774443
-0.0771627
-0.0754541
-0.0699572
0
0
-0.016225
-0.0377208
-0.0526007
-0.0631501
-0.0699783
-0.0734767
-0.0755399
-0.0762622
-0.0764485
-0.0766002
-0.0763557
-0.076941
-0.0770996
-0.0769525
-0.0785515
-0.0790072
-0.0790571
-0.0787055
-0.0787203
-0.0786438
-0.0784692
-0.0782476
-0.0780064
-0.0777456
-0.0774442
-0.0770018
-0.0697665
-0.0764335
-0.0768857
-0.076786
-0.076527
-0.0762393
-0.0759512
-0.0756784
-0.0755115
-0.0753227
-0.0750764
-0.0747994
-0.0746249
-0.0747791
-0.0750936
-0.0754142
-0.0757089
-0.0758838
-0.0760144
-0.0760852
-0.0761617
-0.0762803
-0.0764513
-0.076637
-0.0766882
-0.0766221
-0.0766055
-0.0767102
-0.076996
-0.077247
-0.0774072
-0.0771151
-0.0754152
-0.0699395
0
0
-0.0162309
-0.0377371
-0.0526092
-0.0630029
-0.0699318
-0.0738575
-0.0757559
-0.07636
-0.0765209
-0.0767192
-0.0768512
-0.0771282
-0.0768758
-0.0774604
-0.0785052
-0.0790441
-0.079267
-0.079577
-0.0792727
-0.0789237
-0.0786095
-0.078331
-0.0780824
-0.0778262
-0.077546
-0.0772141
-0.0767486
-0.0767966
-0.076817
-0.0766942
-0.0764735
-0.0761876
-0.0758374
-0.0754173
-0.0753463
-0.0753018
-0.0752854
-0.0752629
-0.0752777
-0.0753671
-0.0755168
-0.0757153
-0.0770917
-0.0760427
-0.0760988
-0.0760806
-0.0761067
-0.0761956
-0.0763466
-0.0765444
-0.076655
-0.076509
-0.0764472
-0.0765406
-0.0770373
-0.0773001
-0.0774379
-0.0771407
-0.0754131
-0.0699229
0
0
-0.0162321
-0.0377378
-0.0525948
-0.0629291
-0.0699149
-0.0740515
-0.0759915
-0.0766016
-0.0768304
-0.0772477
-0.077457
-0.0777704
-0.0780762
-0.0792527
-0.0794477
-0.0794395
-0.0793996
-0.0793632
-0.0791425
-0.0788615
-0.0785864
-0.0783494
-0.0781638
-0.0779269
-0.0776605
-0.0773949
-0.0771545
-0.0770345
-0.0768738
-0.0766819
-0.0764315
-0.076067
-0.075439
-0.0740703
-0.0746294
-0.0748574
-0.0752147
-0.0754177
-0.0755376
-0.0756362
-0.0757425
-0.075867
-0.0760156
-0.076089
-0.0761541
-0.0760544
-0.0760468
-0.0761126
-0.0762658
-0.0765666
-0.0767806
-0.0764423
-0.0763137
-0.0763002
-0.0771755
-0.0773686
-0.0775094
-0.0772588
-0.075454
-0.0699104
0
0
-0.0162326
-0.037737
-0.0525882
-0.0629128
-0.0699294
-0.0741522
-0.0761675
-0.0768378
-0.0772898
-0.0781243
-0.078105
-0.0783172
-0.0786191
-0.0791212
-0.0793091
-0.079333
-0.0793318
-0.0791688
-0.0789573
-0.0787275
-0.0785084
-0.0783432
-0.0783017
-0.0780418
-0.0777463
-0.0774909
-0.0773003
-0.0771903
-0.0769334
-0.0767112
-0.0764368
-0.0759435
-0.0746087
-0.0409333
-0.0729416
-0.0688383
-0.0749083
-0.075448
-0.075665
-0.0757859
-0.0758851
-0.0759834
-0.0760553
-0.0760999
-0.0761206
-0.0760565
-0.0760219
-0.076032
-0.0761426
-0.0766198
-0.0769483
-0.0765626
-0.076419
-0.0764948
-0.0769526
-0.0772598
-0.077548
-0.0775061
-0.0755174
-0.0698824
0
0
-0.0162339
-0.037739
-0.0525896
-0.0629159
-0.0699504
-0.0742202
-0.0771732
-0.0769566
-0.0772269
-0.077738
-0.0779756
-0.0783136
-0.078648
-0.0789352
-0.0790884
-0.0791638
-0.0822491
-0.0791122
-0.0788443
-0.078625
-0.0784259
-0.0782944
-0.0784373
-0.0780337
-0.0776908
-0.0774652
-0.0773138
-0.0772273
-0.0770118
-0.0768019
-0.0765934
-0.0761563
-0.0754109
-0.0739085
-0.0746176
-0.0749415
-0.0753969
-0.0756622
-0.0758061
-0.0759034
-0.0760036
-0.0761177
-0.0761348
-0.076116
-0.0760905
-0.0760434
-0.0759961
-0.075941
-0.0759135
-0.0766612
-0.0771601
-0.0765269
-0.0764607
-0.0765625
-0.076813
-0.0770882
-0.0774257
-0.0776974
-0.0754344
-0.0697856
0
0
-0.0162368
-0.0377452
-0.0525965
-0.0629213
-0.0699541
-0.0742167
-0.0762861
-0.077002
-0.0771899
-0.0774418
-0.0777952
-0.0782054
-0.0785567
-0.0787964
-0.0789208
-0.0789716
-0.0790291
-0.0788956
-0.0787313
-0.0785425
-0.0783219
-0.0780277
-0.0773797
-0.0773495
-0.077323
-0.0772977
-0.0772384
-0.0770923
-0.0769985
-0.0769021
-0.078738
-0.0764839
-0.0760436
-0.0756303
-0.0756226
-0.0756773
-0.075781
-0.0758648
-0.0759262
-0.0759909
-0.076106
-0.076309
-0.0762285
-0.0761292
-0.0760657
-0.0760222
-0.0759852
-0.0759434
-0.0759091
-0.0759684
-0.0755302
-0.0762626
-0.0764238
-0.0765394
-0.0766892
-0.0768
-0.0766424
-0.0756385
-0.0746934
-0.0695929
0
0
-0.0162425
-0.0377588
-0.0526118
-0.0629297
-0.0699501
-0.0741989
-0.076282
-0.0772108
-0.077304
-0.0774217
-0.0777258
-0.0781263
-0.0784696
-0.0786886
-0.0787904
-0.0788148
-0.0788362
-0.0788025
-0.0786924
-0.0785173
-0.0782939
-0.078461
-0.0776477
-0.0774009
-0.0772302
-0.0772844
-0.0773005
-0.0772253
-0.0771167
-0.0769855
-0.0768664
-0.0766032
-0.0763537
-0.076156
-0.0760571
-0.0760119
-0.0759986
-0.0759961
-0.0759988
-0.0760192
-0.0761165
-0.07645
-0.0762005
-0.0760605
-0.0760066
-0.0759825
-0.0759668
-0.0759526
-0.0759417
-0.0759351
-0.0758555
-0.0761553
-0.0763404
-0.0764807
-0.0766223
-0.0767466
-0.0767339
-0.0761709
-0.0747558
-0.0695421
0
0
-0.0162544
-0.0377889
-0.0526462
-0.0629471
-0.069942
-0.074159
-0.0762356
-0.0774996
-0.0772943
-0.0772948
-0.0775561
-0.0779712
-0.0783383
-0.0785633
-0.0786533
-0.0786328
-0.0787454
-0.0788307
-0.07875
-0.078555
-0.0782802
-0.0780219
-0.0777232
-0.0774059
-0.0770457
-0.0773903
-0.0774877
-0.0774131
-0.0772667
-0.0770906
-0.0769053
-0.0767035
-0.0765181
-0.0763673
-0.0762566
-0.0761768
-0.0761179
-0.0760699
-0.0760235
-0.0759582
-0.0758003
-0.0753693
-0.0756417
-0.0758198
-0.0758936
-0.0759189
-0.0759271
-0.0759339
-0.0759474
-0.075972
-0.0760128
-0.0761488
-0.0762892
-0.07643
-0.0765897
-0.0767869
-0.0779873
-0.0765148
-0.0748859
-0.0695513
0
0
-0.0162817
-0.0378598
-0.0527269
-0.0629842
-0.0699327
-0.0740607
-0.0758155
-0.0755001
-0.0759282
-0.0765996
-0.0771004
-0.0776995
-0.0781667
-0.078427
-0.0785381
-0.0782989
-0.0787292
-0.0790596
-0.0789466
-0.0786768
-0.0782738
-0.0780088
-0.077747
-0.0773669
-0.0766403
-0.0777488
-0.0777587
-0.077586
-0.0773775
-0.077168
-0.0769665
-0.0767794
-0.0766155
-0.0764783
-0.0763647
-0.0762691
-0.0761858
-0.0761098
-0.0760342
-0.0759462
-0.0758194
-0.0756447
-0.0757097
-0.0757969
-0.0758449
-0.0758624
-0.0758696
-0.0758816
-0.075907
-0.0759506
-0.0760177
-0.0761181
-0.0762384
-0.0763779
-0.0765476
-0.0767498
-0.0769091
-0.0765753
-0.0749394
-0.069564
0
0
-0.0163477
-0.0380479
-0.0529198
-0.0630583
-0.0699678
-0.0740691
-0.0758555
-0.0760786
-0.0761976
-0.0765882
-0.0771229
-0.0777018
-0.078144
-0.0783862
-0.0819141
-0.0775151
-0.0789711
-0.0796689
-0.0793065
-0.0789179
-0.0783458
-0.0781359
-0.0779265
-0.0776522
-0.0773564
-0.0776112
-0.077636
-0.0775201
-0.0773504
-0.0771656
-0.0769852
-0.07682
-0.0766752
-0.0765495
-0.0764357
-0.0763285
-0.0762258
-0.0761258
-0.0760267
-0.0759295
-0.0758441
-0.0757949
-0.0758082
-0.0758241
-0.0758185
-0.0758007
-0.0757877
-0.075792
-0.0758201
-0.0758735
-0.0759512
-0.0760509
-0.0761695
-0.0763113
-0.0764907
-0.0767045
-0.0768464
-0.0765562
-0.0749601
-0.0695717
0
0
-0.0165064
-0.038678
-0.0532603
-0.0633001
-0.0701124
-0.0741697