# vtk DataFile Version 2.0
FlowField
ASCII
DATASET STRUCTURED_GRID
DIMENSIONS 102 11 11 
POINTS 12342 double
0 0 0
0 0 0.2
0 0 0.4
0 0 0.6
0 0 0.8
0 0 1
0 0 1.2
0 0 1.4
0 0 1.6
0 0 1.8
0 0 2
0 0.1 0
0 0.1 0.2
0 0.1 0.4
0 0.1 0.6
0 0.1 0.8
0 0.1 1
0 0.1 1.2
0 0.1 1.4
0 0.1 1.6
0 0.1 1.8
0 0.1 2
0 0.2 0
0 0.2 0.2
0 0.2 0.4
0 0.2 0.6
0 0.2 0.8
0 0.2 1
0 0.2 1.2
0 0.2 1.4
0 0.2 1.6
0 0.2 1.8
0 0.2 2
0 0.3 0
0 0.3 0.2
0 0.3 0.4
0 0.3 0.6
0 0.3 0.8
0 0.3 1
0 0.3 1.2
0 0.3 1.4
0 0.3 1.6
0 0.3 1.8
0 0.3 2
0 0.4 0
0 0.4 0.2
0 0.4 0.4
0 0.4 0.6
0 0.4 0.8
0 0.4 1
0 0.4 1.2
0 0.4 1.4
0 0.4 1.6
0 0.4 1.8
0 0.4 2
0 0.5 0
0 0.5 0.2
0 0.5 0.4
0 0.5 0.6
0 0.5 0.8
0 0.5 1
0 0.5 1.2
0 0.5 1.4
0 0.5 1.6
0 0.5 1.8
0 0.5 2
0 0.6 0
0 0.6 0.2
0 0.6 0.4
0 0.6 0.6
0 0.6 0.8
0 0.6 1
0 0.6 1.2
0 0.6 1.4
0 0.6 1.6
0 0.6 1.8
0 0.6 2
0 0.7 0
0 0.7 0.2
0 0.7 0.4
0 0.7 0.6
0 0.7 0.8
0 0.7 1
0 0.7 1.2
0 0.7 1.4
0 0.7 1.6
0 0.7 1.8
0 0.7 2
0 0.8 0
0 0.8 0.2
0 0.8 0.4
0 0.8 0.6
0 0.8 0.8
0 0.8 1
0 0.8 1.2
0 0.8 1.4
0 0.8 1.6
0 0.8 1.8
0 0.8 2
0 0.9 0
0 0.9 0.2
0 0.9 0.4
0 0.9 0.6
0 0.9 0.8
0 0.9 1
0 0.9 1.2
0 0.9 1.4
0 0.9 1.6
0 0.9 1.8
0 0.9 2
0 1 0
0 1 0.2
0 1 0.4
0 1 0.6
0 1 0.8
0 1 1
0 1 1.2
0 1 1.4
0 1 1.6
0 1 1.8
0 1 2
0.2 0 0
0.2 0 0.2
0.2 0 0.4
0.2 0 0.6
0.2 0 0.8
0.2 0 1
0.2 0 1.2
0.2 0 1.4
0.2 0 1.6
0.2 0 1.8
0.2 0 2
0.2 0.1 0
0.2 0.1 0.2
0.2 0.1 0.4
0.2 0.1 0.6
0.2 0.1 0.8
0.2 0.1 1
0.2 0.1 1.2
0.2 0.1 1.4
0.2 0.1 1.6
0.2 0.1 1.8
0.2 0.1 2
0.2 0.2 0
0.2 0.2 0.2
0.2 0.2 0.4
0.2 0.2 0.6
0.2 0.2 0.8
0.2 0.2 1
0.2 0.2 1.2
0.2 0.2 1.4
0.2 0.2 1.6
0.2 0.2 1.8
0.2 0.2 2
0.2 0.3 0
0.2 0.3 0.2
0.2 0.3 0.4
0.2 0.3 0.6
0.2 0.3 0.8
0.2 0.3 1
0.2 0.3 1.2
0.2 0.3 1.4
0.2 0.3 1.6
0.2 0.3 1.8
0.2 0.3 2
0.2 0.4 0
0.2 0.4 0.2
0.2 0.4 0.4
0.2 0.4 0.6
0.2 0.4 0.8
0.2 0.4 1
0.2 0.4 1.2
0.2 0.4 1.4
0.2 0.4 1.6
0.2 0.4 1.8
0.2 0.4 2
0.2 0.5 0
0.2 0.5 0.2
0.2 0.5 0.4
0.2 0.5 0.6
0.2 0.5 0.8
0.2 0.5 1
0.2 0.5 1.2
0.2 0.5 1.4
0.2 0.5 1.6
0.2 0.5 1.8
0.2 0.5 2
0.2 0.6 0
0.2 0.6 0.2
0.2 0.6 0.4
0.2 0.6 0.6
0.2 0.6 0.8
0.2 0.6 1
0.2 0.6 1.2
0.2 0.6 1.4
0.2 0.6 1.6
0.2 0.6 1.8
0.2 0.6 2
0.2 0.7 0
0.2 0.7 0.2
0.2 0.7 0.4
0.2 0.7 0.6
0.2 0.7 0.8
0.2 0.7 1
0.2 0.7 1.2
0.2 0.7 1.4
0.2 0.7 1.6
0.2 0.7 1.8
0.2 0.7 2
0.2 0.8 0
0.2 0.8 0.2
0.2 0.8 0.4
0.2 0.8 0.6
0.2 0.8 0.8
0.2 0.8 1
0.2 0.8 1.2
0.2 0.8 1.4
0.2 0.8 1.6
0.2 0.8 1.8
0.2 0.8 2
0.2 0.9 0
0.2 0.9 0.2
0.2 0.9 0.4
0.2 0.9 0.6
0.2 0.9 0.8
0.2 0.9 1
0.2 0.9 1.2
0.2 0.9 1.4
0.2 0.9 1.6
0.2 0.9 1.8
0.2 0.9 2
0.2 1 0
0.2 1 0.2
0.2 1 0.4
0.2 1 0.6
0.2 1 0.8
0.2 1 1
0.2 1 1.2
0.2 1 1.4
0.2 1 1.6
0.2 1 1.8
0.2 1 2
0.4 0 0
0.4 0 0.2
0.4 0 0.4
0.4 0 0.6
0.4 0 0.8
0.4 0 1
0.4 0 1.2
0.4 0 1.4
0.4 0 1.6
0.4 0 1.8
0.4 0 2
0.4 0.1 0
0.4 0.1 0.2
0.4 0.1 0.4
0.4 0.1 0.6
0.4 0.1 0.8
0.4 0.1 1
0.4 0.1 1.2
0.4 0.1 1.4
0.4 0.1 1.6
0.4 0.1 1.8
0.4 0.1 2
0.4 0.2 0
0.4 0.2 0.2
0.4 0.2 0.4
0.4 0.2 0.6
0.4 0.2 0.8
0.4 0.2 1
0.4 0.2 1.2
0.4 0.2 1.4
0.4 0.2 1.6
0.4 0.2 1.8
0.4 0.2 2
0.4 0.3 0
0.4 0.3 0.2
0.4 0.3 0.4
0.4 0.3 0.6
0.4 0.3 0.8
0.4 0.3 1
0.4 0.3 1.2
0.4 0.3 1.4
0.4 0.3 1.6
0.4 0.3 1.8
0.4 0.3 2
0.4 0.4 0
0.4 0.4 0.2
0.4 0.4 0.4
0.4 0.4 0.6
0.4 0.4 0.8
0.4 0.4 1
0.4 0.4 1.2
0.4 0.4 1.4
0.4 0.4 1.6
0.4 0.4 1.8
0.4 0.4 2
0.4 0.5 0
0.4 0.5 0.2
0.4 0.5 0.4
0.4 0.5 0.6
0.4 0.5 0.8
0.4 0.5 1
0.4 0.5 1.2
0.4 0.5 1.4
0.4 0.5 1.6
0.4 0.5 1.8
0.4 0.5 2
0.4 0.6 0
0.4 0.6 0.2
0.4 0.6 0.4
0.4 0.6 0.6
0.4 0.6 0.8
0.4 0.6 1
0.4 0.6 1.2
0.4 0.6 1.4
0.4 0.6 1.6
0.4 0.6 1.8
0.4 0.6 2
0.4 0.7 0
0.4 0.7 0.2
0.4 0.7 0.4
0.4 0.7 0.6
0.4 0.7 0.8
0.4 0.7 1
0.4 0.7 1.2
0.4 0.7 1.4
0.4 0.7 1.6
0.4 0.7 1.8
0.4 0.7 2
0.4 0.8 0
0.4 0.8 0.2
0.4 0.8 0.4
0.4 0.8 0.6
0.4 0.8 0.8
0.4 0.8 1
0.4 0.8 1.2
0.4 0.8 1.4
0.4 0.8 1.6
0.4 0.8 1.8
0.4 0.8 2
0.4 0.9 0
0.4 0.9 0.2
0.4 0.9 0.4
0.4 0.9 0.6
0.4 0.9 0.8
0.4 0.9 1
0.4 0.9 1.2
0.4 0.9 1.4
0.4 0.9 1.6
0.4 0.9 1.8
0.4 0.9 2
0.4 1 0
0.4 1 0.2
0.4 1 0.4
0.4 1 0.6
0.4 1 0.8
0.4 1 1
0.4 1 1.2
0.4 1 1.4
0.4 1 1.6
0.4 1 1.8
0.4 1 2
0.6 0 0
0.6 0 0.2
0.6 0 0.4
0.6 0 0.6
0.6 0 0.8
0.6 0 1
0.6 0 1.2
0.6 0 1.4
0.6 0 1.6
0.6 0 1.8
0.6 0 2
0.6 0.1 0
0.6 0.1 0.2
0.6 0.1 0.4
0.6 0.1 0.6
0.6 0.1 0.8
0.6 0.1 1
0.6 0.1 1.2
0.6 0.1 1.4
0.6 0.1 1.6
0.6 0.1 1.8
0.6 0.1 2
0.6 0.2 0
0.6 0.2 0.2
0.6 0.2 0.4
0.6 0.2 0.6
0.6 0.2 0.8
0.6 0.2 1
0.6 0.2 1.2
0.6 0.2 1.4
0.6 0.2 1.6
0.6 0.2 1.8
0.6 0.2 2
0.6 0.3 0
0.6 0.3 0.2
0.6 0.3 0.4
0.6 0.3 0.6
0.6 0.3 0.8
0.6 0.3 1
0.6 0.3 1.2
0.6 0.3 1.4
0.6 0.3 1.6
0.6 0.3 1.8
0.6 0.3 2
0.6 0.4 0
0.6 0.4 0.2
0.6 0.4 0.4
0.6 0.4 0.6
0.6 0.4 0.8
0.6 0.4 1
0.6 0.4 1.2
0.6 0.4 1.4
0.6 0.4 1.6
0.6 0.4 1.8
0.6 0.4 2
0.6 0.5 0
0.6 0.5 0.2
0.6 0.5 0.4
0.6 0.5 0.6
0.6 0.5 0.8
0.6 0.5 1
0.6 0.5 1.2
0.6 0.5 1.4
0.6 0.5 1.6
0.6 0.5 1.8
0.6 0.5 2
0.6 0.6 0
0.6 0.6 0.2
0.6 0.6 0.4
0.6 0.6 0.6
0.6 0.6 0.8
0.6 0.6 1
0.6 0.6 1.2
0.6 0.6 1.4
0.6 0.6 1.6
0.6 0.6 1.8
0.6 0.6 2
0.6 0.7 0
0.6 0.7 0.2
0.6 0.7 0.4
0.6 0.7 0.6
0.6 0.7 0.8
0.6 0.7 1
0.6 0.7 1.2
0.6 0.7 1.4
0.6 0.7 1.6
0.6 0.7 1.8
0.6 0.7 2
0.6 0.8 0
0.6 0.8 0.2
0.6 0.8 0.4
0.6 0.8 0.6
0.6 0.8 0.8
0.6 0.8 1
0.6 0.8 1.2
0.6 0.8 1.4
0.6 0.8 1.6
0.6 0.8 1.8
0.6 0.8 2
0.6 0.9 0
0.6 0.9 0.2
0.6 0.9 0.4
0.6 0.9 0.6
0.6 0.9 0.8
0.6 0.9 1
0.6 0.9 1.2
0.6 0.9 1.4
0.6 0.9 1.6
0.6 0.9 1.8
0.6 0.9 2
0.6 1 0
0.6 1 0.2
0.6 1 0.4
0.6 1 0.6
0.6 1 0.8
0.6 1 1
0.6 1 1.2
0.6 1 1.4
0.6 1 1.6
0.6 1 1.8
0.6 1 2
0.8 0 0
0.8 0 0.2
0.8 0 0.4
0.8 0 0.6
0.8 0 0.8
0.8 0 1
0.8 0 1.2
0.8 0 1.4
0.8 0 1.6
0.8 0 1.8
0.8 0 2
0.8 0.1 0
0.8 0.1 0.2
0.8 0.1 0.4
0.8 0.1 0.6
0.8 0.1 0.8
0.8 0.1 1
0.8 0.1 1.2
0.8 0.1 1.4
0.8 0.1 1.6
0.8 0.1 1.8
0.8 0.1 2
0.8 0.2 0
0.8 0.2 0.2
0.8 0.2 0.4
0.8 0.2 0.6
0.8 0.2 0.8
0.8 0.2 1
0.8 0.2 1.2
0.8 0.2 1.4
0.8 0.2 1.6
0.8 0.2 1.8
0.8 0.2 2
0.8 0.3 0
0.8 0.3 0.2
0.8 0.3 0.4
0.8 0.3 0.6
0.8 0.3 0.8
0.8 0.3 1
0.8 0.3 1.2
0.8 0.3 1.4
0.8 0.3 1.6
0.8 0.3 1.8
0.8 0.3 2
0.8 0.4 0
0.8 0.4 0.2
0.8 0.4 0.4
0.8 0.4 0.6
0.8 0.4 0.8
0.8 0.4 1
0.8 0.4 1.2
0.8 0.4 1.4
0.8 0.4 1.6
0.8 0.4 1.8
0.8 0.4 2
0.8 0.5 0
0.8 0.5 0.2
0.8 0.5 0.4
0.8 0.5 0.6
0.8 0.5 0.8
0.8 0.5 1
0.8 0.5 1.2
0.8 0.5 1.4
0.8 0.5 1.6
0.8 0.5 1.8
0.8 0.5 2
0.8 0.6 0
0.8 0.6 0.2
0.8 0.6 0.4
0.8 0.6 0.6
0.8 0.6 0.8
0.8 0.6 1
0.8 0.6 1.2
0.8 0.6 1.4
0.8 0.6 1.6
0.8 0.6 1.8
0.8 0.6 2
0.8 0.7 0
0.8 0.7 0.2
0.8 0.7 0.4
0.8 0.7 0.6
0.8 0.7 0.8
0.8 0.7 1
0.8 0.7 1.2
0.8 0.7 1.4
0.8 0.7 1.6
0.8 0.7 1.8
0.8 0.7 2
0.8 0.8 0
0.8 0.8 0.2
0.8 0.8 0.4
0.8 0.8 0.6
0.8 0.8 0.8
0.8 0.8 1
0.8 0.8 1.2
0.8 0.8 1.4
0.8 0.8 1.6
0.8 0.8 1.8
0.8 0.8 2
0.8 0.9 0
0.8 0.9 0.2
0.8 0.9 0.4
0.8 0.9 0.6
0.8 0.9 0.8
0.8 0.9 1
0.8 0.9 1.2
0.8 0.9 1.4
0.8 0.9 1.6
0.8 0.9 1.8
0.8 0.9 2
0.8 1 0
0.8 1 0.2
0.8 1 0.4
0.8 1 0.6
0.8 1 0.8
0.8 1 1
0.8 1 1.2
0.8 1 1.4
0.8 1 1.6
0.8 1 1.8
0.8 1 2
1 0 0
1 0 0.2
1 0 0.4
1 0 0.6
1 0 0.8
1 0 1
1 0 1.2
1 0 1.4
1 0 1.6
1 0 1.8
1 0 2
1 0.1 0
1 0.1 0.2
1 0.1 0.4
1 0.1 0.6
1 0.1 0.8
1 0.1 1
1 0.1 1.2
1 0.1 1.4
1 0.1 1.6
1 0.1 1.8
1 0.1 2
1 0.2 0
1 0.2 0.2
1 0.2 0.4
1 0.2 0.6
1 0.2 0.8
1 0.2 1
1 0.2 1.2
1 0.2 1.4
1 0.2 1.6
1 0.2 1.8
1 0.2 2
1 0.3 0
1 0.3 0.2
1 0.3 0.4
1 0.3 0.6
1 0.3 0.8
1 0.3 1
1 0.3 1.2
1 0.3 1.4
1 0.3 1.6
1 0.3 1.8
1 0.3 2
1 0.4 0
1 0.4 0.2
1 0.4 0.4
1 0.4 0.6
1 0.4 0.8
1 0.4 1
1 0.4 1.2
1 0.4 1.4
1 0.4 1.6
1 0.4 1.8
1 0.4 2
1 0.5 0
1 0.5 0.2
1 0.5 0.4
1 0.5 0.6
1 0.5 0.8
1 0.5 1
1 0.5 1.2
1 0.5 1.4
1 0.5 1.6
1 0.5 1.8
1 0.5 2
1 0.6 0
1 0.6 0.2
1 0.6 0.4
1 0.6 0.6
1 0.6 0.8
1 0.6 1
1 0.6 1.2
1 0.6 1.4
1 0.6 1.6
1 0.6 1.8
1 0.6 2
1 0.7 0
1 0.7 0.2
1 0.7 0.4
1 0.7 0.6
1 0.7 0.8
1 0.7 1
1 0.7 1.2
1 0.7 1.4
1 0.7 1.6
1 0.7 1.8
1 0.7 2
1 0.8 0
1 0.8 0.2
1 0.8 0.4
1 0.8 0.6
1 0.8 0.8
1 0.8 1
1 0.8 1.2
1 0.8 1.4
1 0.8 1.6
1 0.8 1.8
1 0.8 2
1 0.9 0
1 0.9 0.2
1 0.9 0.4
1 0.9 0.6
1 0.9 0.8
1 0.9 1
1 0.9 1.2
1 0.9 1.4
1 0.9 1.6
1 0.9 1.8
1 0.9 2
1 1 0
1 1 0.2
1 1 0.4
1 1 0.6
1 1 0.8
1 1 1
1 1 1.2
1 1 1.4
1 1 1.6
1 1 1.8
1 1 2
1.2 0 0
1.2 0 0.2
1.2 0 0.4
1.2 0 0.6
1.2 0 0.8
1.2 0 1
1.2 0 1.2
1.2 0 1.4
1.2 0 1.6
1.2 0 1.8
1.2 0 2
1.2 0.1 0
1.2 0.1 0.2
1.2 0.1 0.4
1.2 0.1 0.6
1.2 0.1 0.8
1.2 0.1 1
1.2 0.1 1.2
1.2 0.1 1.4
1.2 0.1 1.6
1.2 0.1 1.8
1.2 0.1 2
1.2 0.2 0
1.2 0.2 0.2
1.2 0.2 0.4
1.2 0.2 0.6
1.2 0.2 0.8
1.2 0.2 1
1.2 0.2 1.2
1.2 0.2 1.4
1.2 0.2 1.6
1.2 0.2 1.8
1.2 0.2 2
1.2 0.3 0
1.2 0.3 0.2
1.2 0.3 0.4
1.2 0.3 0.6
1.2 0.3 0.8
1.2 0.3 1
1.2 0.3 1.2
1.2 0.3 1.4
1.2 0.3 1.6
1.2 0.3 1.8
1.2 0.3 2
1.2 0.4 0
1.2 0.4 0.2
1.2 0.4 0.4
1.2 0.4 0.6
1.2 0.4 0.8
1.2 0.4 1
1.2 0.4 1.2
1.2 0.4 1.4
1.2 0.4 1.6
1.2 0.4 1.8
1.2 0.4 2
1.2 0.5 0
1.2 0.5 0.2
1.2 0.5 0.4
1.2 0.5 0.6
1.2 0.5 0.8
1.2 0.5 1
1.2 0.5 1.2
1.2 0.5 1.4
1.2 0.5 1.6
1.2 0.5 1.8
1.2 0.5 2
1.2 0.6 0
1.2 0.6 0.2
1.2 0.6 0.4
1.2 0.6 0.6
1.2 0.6 0.8
1.2 0.6 1
1.2 0.6 1.2
1.2 0.6 1.4
1.2 0.6 1.6
1.2 0.6 1.8
1.2 0.6 2
1.2 0.7 0
1.2 0.7 0.2
1.2 0.7 0.4
1.2 0.7 0.6
1.2 0.7 0.8
1.2 0.7 1
1.2 0.7 1.2
1.2 0.7 1.4
1.2 0.7 1.6
1.2 0.7 1.8
1.2 0.7 2
1.2 0.8 0
1.2 0.8 0.2
1.2 0.8 0.4
1.2 0.8 0.6
1.2 0.8 0.8
1.2 0.8 1
1.2 0.8 1.2
1.2 0.8 1.4
1.2 0.8 1.6
1.2 0.8 1.8
1.2 0.8 2
1.2 0.9 0
1.2 0.9 0.2
1.2 0.9 0.4
1.2 0.9 0.6
1.2 0.9 0.8
1.2 0.9 1
1.2 0.9 1.2
1.2 0.9 1.4
1.2 0.9 1.6
1.2 0.9 1.8
1.2 0.9 2
1.2 1 0
1.2 1 0.2
1.2 1 0.4
1.2 1 0.6
1.2 1 0.8
1.2 1 1
1.2 1 1.2
1.2 1 1.4
1.2 1 1.6
1.2 1 1.8
1.2 1 2
1.4 0 0
1.4 0 0.2
1.4 0 0.4
1.4 0 0.6
1.4 0 0.8
1.4 0 1
1.4 0 1.2
1.4 0 1.4
1.4 0 1.6
1.4 0 1.8
1.4 0 2
1.4 0.1 0
1.4 0.1 0.2
1.4 0.1 0.4
1.4 0.1 0.6
1.4 0.1 0.8
1.4 0.1 1
1.4 0.1 1.2
1.4 0.1 1.4
1.4 0.1 1.6
1.4 0.1 1.8
1.4 0.1 2
1.4 0.2 0
1.4 0.2 0.2
1.4 0.2 0.4
1.4 0.2 0.6
1.4 0.2 0.8
1.4 0.2 1
1.4 0.2 1.2
1.4 0.2 1.4
1.4 0.2 1.6
1.4 0.2 1.8
1.4 0.2 2
1.4 0.3 0
1.4 0.3 0.2
1.4 0.3 0.4
1.4 0.3 0.6
1.4 0.3 0.8
1.4 0.3 1
1.4 0.3 1.2
1.4 0.3 1.4
1.4 0.3 1.6
1.4 0.3 1.8
1.4 0.3 2
1.4 0.4 0
1.4 0.4 0.2
1.4 0.4 0.4
1.4 0.4 0.6
1.4 0.4 0.8
1.4 0.4 1
1.4 0.4 1.2
1.4 0.4 1.4
1.4 0.4 1.6
1.4 0.4 1.8
1.4 0.4 2
1.4 0.5 0
1.4 0.5 0.2
1.4 0.5 0.4
1.4 0.5 0.6
1.4 0.5 0.8
1.4 0.5 1
1.4 0.5 1.2
1.4 0.5 1.4
1.4 0.5 1.6
1.4 0.5 1.8
1.4 0.5 2
1.4 0.6 0
1.4 0.6 0.2
1.4 0.6 0.4
1.4 0.6 0.6
1.4 0.6 0.8
1.4 0.6 1
1.4 0.6 1.2
1.4 0.6 1.4
1.4 0.6 1.6
1.4 0.6 1.8
1.4 0.6 2
1.4 0.7 0
1.4 0.7 0.2
1.4 0.7 0.4
1.4 0.7 0.6
1.4 0.7 0.8
1.4 0.7 1
1.4 0.7 1.2
1.4 0.7 1.4
1.4 0.7 1.6
1.4 0.7 1.8
[...]
POINT_DATA 12342

SCALARS p double
LOOKUP_TABLE default
4903.69
4903.69
4781.68
5477.58
5164.72
2837.73
1882.23
1563.41
1676.14
1814.13
1814.13
4903.69
4903.69
4781.68
5477.58
5164.72
2837.73
1882.23
1563.41
1676.14
1814.13
1814.13
4902.79
4902.79
4779.71
5478.81
5168.86
2834.09
1879.99
1562
1675.69
1813.72
1814.13
4901.65
4901.65
4777.53
5479.61
5172.53
2832.3
1878.56
1560.85
1675.14
1813.28
1814.13
4900.66
4900.66
4776.19
5479.77
5174.26
2831.29
1877.64
1560.06
1674.61
1812.81
1814.13
4899.95
4899.95
4775.4
5479.24
5174.33
2830.89
1877.23
1559.61
1674.13
1812.3
1814.13
4899.56
4899.56
4775.08
5478.01
5172.87
2831.1
1877.33
1559.52
1673.72
1811.76
1814.13
4899.48
4899.48
4775.27
5476
5169.83
2832.04
1877.99
1559.78
1673.35
1811.17
1814.13
4899.62
4899.62
4776.16
5473.12
5165
2834.04
1879.27
1560.44
1672.98
1810.5
1814.13
4899.76
4899.76
4778.14
5469.21
5157.99
2837.66
1881.2
1561.53
1672.57
1809.73
1814.13
4899.76
4899.76
4778.14
5469.21
5157.99
2837.66
1881.2
1561.53
1672.57
1809.73
1814.13
4903.69
4903.69
4781.68
5477.58
5164.72
2837.73
1882.23
1563.41
1676.14
1814.13
1814.13
4903.69
4903.69
4781.68
5477.58
5164.72
2837.73
1882.23
1563.41
1676.14
1814.13
1814.13
4902.79
4902.79
4779.71
5478.81
5168.86
2834.09
1879.99
1562
1675.69
1813.72
1814.13
4901.65
4901.65
4777.53
5479.61
5172.53
2832.3
1878.56
1560.85
1675.14
1813.28
1814.13
4900.66
4900.66
4776.19
5479.77
5174.26
2831.29
1877.64
1560.06
1674.61
1812.81
1814.13
4899.95
4899.95
4775.4
5479.24
5174.33
2830.89
1877.23
1559.61
1674.13
1812.3
1814.13
4899.56
4899.56
4775.08
5478.01
5172.87
2831.1
1877.33
1559.52
1673.72
1811.76
1814.13
4899.48
4899.48
4775.27
5476
5169.83
2832.04
1877.99
1559.78
1673.35
1811.17
1814.13
4899.62
4899.62
4776.16
5473.12
5165
2834.04
1879.27
1560.44
1672.98
1810.5
1814.13
4899.76
4899.76
4778.14
5469.21
5157.99
2837.66
1881.2
1561.53
1672.57
1809.73
1814.13
4899.76
4899.76
4778.14
5469.21
5157.99
2837.66
1881.2
1561.53
1672.57
1809.73
1814.13
4882.41
4882.41
4755.36
5410.25
5075.77
2846.89
1902.11
1583.91
1694.59
1824.27
1824.27
4882.41
4882.41
4755.36
5410.25
5075.77
2846.89
1902.11
1583.91
1694.59
1824.27
1824.27
4881.55
4881.55
4753.41
5411.59
5080.49
2843.78
1900.01
1582.55
1694.11
1823.82
1824.27
4880.45
4880.45
4751.27
5412.07
5083.89
2842.15
1898.6
1581.45
1693.6
1823.37
1824.27
4879.48
4879.48
4749.93
5412.11
5085.44
2841.22
1897.7
1580.68
1693.08
1822.88
1824.27
4878.76
4878.76
4749.12
5411.56
5085.46
2840.84
1897.29
1580.23
1692.61
1822.37
1824.27
4878.35
4878.35
4748.77
5410.34
5084.06
2841.01
1897.37
1580.11
1692.18
1821.82
1824.27
4878.23
4878.23
4748.91
5408.38
5081.17
2841.81
1897.96
1580.34
1691.78
1821.23
1824.27
4878.32
4878.32
4749.72
5405.57
5076.44
2843.5
1899.13
1580.92
1691.37
1820.57
1824.27
4878.41
4878.41
4751.63
5401.8
5069.13
2846.47
1900.85
1581.84
1690.87
1819.83
1824.27
4878.41
4878.41
4751.63
5401.8
5069.13
2846.47
1900.85
1581.84
1690.87
1819.83
1824.27
4853.71
4853.71
4750.93
5254.64
4801.13
2889.62
1971.65
1643.59
1730.03
1844.96
1844.96
4853.71
4853.71
4750.93
5254.64
4801.13
2889.62
1971.65
1643.59
1730.03
1844.96
1844.96
4852.9
4852.9
4749.25
5256.14
4804.89
2887.35
1969.85
1642.33
1729.5
1844.5
1844.96
4851.85
4851.85
4747.36
5256.51
4807.34
2886.1
1968.59
1641.32
1728.99
1844.02
1844.96
4850.91
4850.91
4746.13
5256.46
4808.37
2885.35
1967.77
1640.59
1728.48
1843.53
1844.96
4850.2
4850.2
4745.34
5255.89
4808.24
2884.99
1967.36
1640.15
1728
1843.01
1844.96
4849.75
4849.75
4744.9
5254.71
4807.04
2885.01
1967.36
1639.99
1727.57
1842.47
1844.96
4849.55
4849.55
4744.84
5252.86
4804.69
2885.46
1967.79
1640.12
1727.16
1841.88
1844.96
4849.56
4849.56
4745.34
5250.24
4800.89
2886.53
1968.68
1640.55
1726.74
1841.25
1844.96
4849.6
4849.6
4746.8
5246.76
4795.1
2888.52
1970.05
1641.27
1726.25
1840.55
1844.96
4849.6
4849.6
4746.8
5246.76
4795.1
2888.52
1970.05
1641.27
1726.25
1840.55
1844.96
4809.36
4809.36
4729.91
5031.7
4470.6
2925.29
2062.54
1727.48
1779.07
1874.55
1874.55
4809.36
4809.36
4729.91
5031.7
4470.6
2925.29
2062.54
1727.48
1779.07
1874.55
1874.55
4808.61
4808.61
4728.65
5033.13
4473
2923.72
2061.04
1726.32
1778.52
1874.08
1874.55
4807.62
4807.62
4727.12
5033.47
4474.46
2922.8
2059.96
1725.4
1777.99
1873.6
1874.55
4806.74
4806.74
4726.07
5033.38
4474.97
2922.19
2059.22
1724.72
1777.47
1873.1
1874.55
4806.03
4806.03
4725.31
5032.81
4474.71
2921.81
2058.81
1724.27
1776.99
1872.58
1874.55
4805.53
4805.53
4724.77
5031.72
4473.72
2921.67
2058.71
1724.05
1776.55
1872.04
1874.55
4805.25
4805.25
4724.49
5030.05
4471.95
2921.8
2058.94
1724.08
1776.14
1871.47
1874.55
4805.14
4805.14
4724.6
5027.72
4469.22
2922.3
2059.54
1724.35
1775.73
1870.85
1874.55
4805.1
4805.1
4725.4
5024.61
4465.22
2923.4
2060.54
1724.88
1775.26
1870.18
1874.55
4805.1
4805.1
4725.4
5024.61
4465.22
2923.4
2060.54
1724.88
1775.26
1870.18
1874.55
4737.69
4737.69
4666.65
4769.05
4161.21
2937.03
2152.56
1820.44
1835.88
1909.55
1909.55
4737.69
4737.69
4666.65
4769.05
4161.21
2937.03
2152.56
1820.44
1835.88
1909.55
1909.55
4737.01
4737.01
4665.78
4770.2
4162.54
2935.95
2151.3
1819.39
1835.31
1909.08
1909.55
4736.11
4736.11
4664.61
4770.44
4163.26
2935.24
2150.37
1818.55
1834.77
1908.59
1909.55
4735.28
4735.28
4663.73
4770.27
4163.39
2934.71
2149.71
1817.9
1834.25
1908.09
1909.55
4734.59
4734.59
4663.01
4769.72
4163.02
2934.31
2149.28
1817.44
1833.76
1907.57
1909.55
4734.05
4734.05
4662.4
4768.74
4162.2
2934.04
2149.08
1817.17
1833.31
1907.03
1909.55
4733.67
4733.67
4661.93
4767.3
4160.88
2933.92
2149.14
1817.09
1832.89
1906.47
1909.55
4733.43
4733.43
4661.69
4765.33
4158.97
2934.03
2149.48
1817.22
1832.48
1905.87
1909.55
4733.28
4733.28
4661.88
4762.71
4156.32
2934.48
2150.15
1817.57
1832.04
1905.21
1909.55
4733.28
4733.28
4661.88
4762.71
4156.32
2934.48
2150.15
1817.57
1832.04
1905.21
1909.55
4630.43
4630.43
4555.02
4495.51
3896.9
2923.83
2229.36
1910.6
1894.09
1945.97
1945.97
4630.43
4630.43
4555.02
4495.51
3896.9
2923.83
2229.36
1910.6
1894.09
1945.97
1945.97
4629.84
4629.84
4554.41
4496.29
3897.54
2923.05
2228.3
1909.66
1893.51
1945.49
1945.97
4629.04
4629.04
4553.51
4496.36
3897.78
2922.47
2227.48
1908.89
1892.95
1944.99
1945.97
4628.28
4628.28
4552.76
4496.11
3897.66
2921.97
2226.86
1908.27
1892.43
1944.48
1945.97
4627.61
4627.61
4552.08
4495.56
3897.24
2921.54
2226.41
1907.8
1891.93
1943.96
1945.97
4627.03
4627.03
4551.44
4494.69
3896.52
2921.18
2226.14
1907.47
1891.47
1943.43
1945.97
4626.56
4626.56
4550.84
4493.49
3895.5
2920.91
2226.06
1907.3
1891.04
1942.87
1945.97
4626.19
4626.19
4550.36
4491.88
3894.12
2920.76
2226.19
1907.3
1890.62
1942.28
1945.97
4625.9
4625.9
4550.1
4489.78
3892.31
2920.8
2226.57
1907.47
1890.19
1941.64
1945.97
4625.9
4625.9
4550.1
4489.78
3892.31
2920.8
2226.57
1907.47
1890.19
1941.64
1945.97
4488.87
4488.87
4400.21
4230.97
3674.85
2890.81
2287.8
1990.01
1948.14
1980.06
1980.06
4488.87
4488.87
4400.21
4230.97
3674.85
2890.81
2287.8
1990.01
1948.14
1980.06
1980.06
4488.33
4488.33
4399.79
4231.4
3675.08
2890.19
2286.89
1989.16
1947.56
1979.58
1980.06
4487.59
4487.59
4399.08
4231.31
3675.03
2889.66
2286.16
1988.45
1947
1979.08
1980.06
4486.89
4486.89
4398.43
4230.98
3674.76
2889.18
2285.56
1987.85
1946.46
1978.56
1980.06
4486.24
4486.24
4397.78
4230.43
3674.29
2888.72
2285.1
1987.37
1945.96
1978.04
1980.06
4485.63
4485.63
4397.12
4229.65
3673.64
2888.31
2284.77
1987
1945.49
1977.5
1980.06
4485.1
4485.1
4396.45
4228.63
3672.8
2887.94
2284.57
1986.75
1945.04
1976.95
1980.06
4484.63
4484.63
4395.8
4227.32
3671.73
2887.63
2284.53
1986.62
1944.61
1976.37
1980.06
4484.23
4484.23
4395.25
4225.67
3670.41
2887.42
2284.69
1986.65
1944.18
1975.75
1980.06
4484.23
4484.23
4395.25
4225.67
3670.41
2887.42
2284.69
1986.65
1944.18
1975.75
1980.06
4319.15
4319.15
4213.92
3984.26
3484.6
2843.56
2326.69
2054.08
1993.87
2008.8
2008.8
4319.15
4319.15
4213.92
3984.26
3484.6
2843.56
2326.69
2054.08
1993.87
2008.8
2008.8
4318.63
4318.63
4213.59
3984.42
3484.59
2843.02
2325.9
2053.31
1993.29
2008.31
2008.8
4317.95
4317.95
4213
3984.19
3484.36
2842.51
2325.22
2052.64
1992.73
2007.8
2008.8
4317.29
4317.29
4212.41
3983.79
3484
2842.02
2324.65
2052.06
1992.19
2007.28
2008.8
4316.65
4316.65
4211.79
3983.24
3483.5
2841.55
2324.17
2051.56
1991.68
2006.75
2008.8
4316.03
4316.03
4211.12
3982.53
3482.89
2841.09
2323.78
2051.15
1991.19
2006.22
2008.8
4315.45
4315.45
4210.42
3981.64
3482.15
2840.66
2323.5
2050.83
1990.73
2005.66
2008.8
4314.91
4314.91
4209.7
3980.56
3481.27
2840.26
2323.33
2050.61
1990.28
2005.09
2008.8
4314.42
4314.42
4208.98
3979.25
3480.22
2839.91
2323.3
2050.51
1989.84
2004.48
2008.8
4314.42
4314.42
4208.98
3979.25
3480.22
2839.91
2323.3
2050.51
1989.84
2004.48
2008.8
4128.42
4128.42
4009.36
3756.78
3316.34
2786.18
2346.65
2100.65
2028.66
2029.92
2029.92
4128.42
4128.42
4009.36
3756.78
3316.34
2786.18
2346.65
2100.65
2028.66
2029.92
2029.92
4127.93
4127.93
4009.06
3756.74
3316.17
2785.68
2345.94
2099.95
2028.08
2029.42
2029.92
4127.3
4127.3
4008.53
3756.42
3315.84
2785.17
2345.31
2099.31
2027.52
2028.91
2029.92
4126.67
4126.67
4007.97
3755.98
3315.41
2784.67
2344.75
2098.74
2026.98
2028.38
2029.92
4126.04
4126.04
4007.36
3755.42
3314.9
2784.18
2344.25
2098.23
2026.46
2027.85
2029.92
4125.41
4125.41
4006.7
3754.75
3314.3
2783.69
2343.82
2097.79
2025.96
2027.31
2029.92
4124.8
4124.8
4006
3753.96
3313.63
2783.22
2343.47
2097.41
2025.48
2026.76
2029.92
4124.2
4124.2
4005.24
3753.03
3312.85
2782.76
2343.19
2097.11
2025.02
2026.19
2029.92
4123.64
4123.64
4004.46
3751.95
3311.96
2782.33
2343.02
2096.89
2024.56
2025.59
2029.92
4123.64
4123.64
4004.46
3751.95
3311.96
2782.33
2343.02
2096.89
2024.56
2025.59
2029.92
3923.88
3923.88
3797.32
3546.5
3162.83
2721.13
2349
2129.26
2051.07
2041.97
2041.97
3923.88
3923.88
3797.32
3546.5
3162.83
2721.13
2349
2129.26
2051.07
2041.97
2041.97
3923.4
3923.4
3797.01
3546.33
3162.57
2720.64
2348.35
2128.6
2050.5
2041.46
2041.97
3922.8
3922.8
3796.5
3545.93
3162.17
2720.13
2347.74
2127.98
2049.94
2040.93
2041.97
3922.19
3922.19
3795.95
3545.46
3161.7
2719.62
2347.19
2127.42
2049.39
2040.4
2041.97
3921.57
3921.57
3795.35
3544.89
3161.18
2719.11
2346.68
2126.9
2048.86
2039.86
2041.97
3920.94
3920.94
3794.7
3544.25
3160.59
2718.6
2346.22
2126.43
2048.35
2039.32
2041.97
3920.3
3920.3
3794.01
3543.52
3159.95
2718.1
2345.8
2126.01
2047.86
2038.76
2041.97
3919.67
3919.67
3793.26
3542.69
3159.23
2717.6
2345.45
2125.64
2047.37
2038.2
2041.97
3919.06
3919.06
3792.46
3541.76
3158.44
2717.12
2345.17
2125.33
2046.9
2037.61
2041.97
3919.06
3919.06
3792.46
3541.76
3158.44
2717.12
2345.17
2125.33
2046.9
2037.61
2041.97
3711.86
3711.86
3585.17
3350.48
3019.2
2649.73
2335.33
2140.51
2060.46
2044.15
2044.15
3711.86
3711.86
3585.17
3350.48
3019.2
2649.73
2335.33
2140.51
2060.46
2044.15
2044.15
3711.39
3711.39
3584.83
3350.21
3018.87
2649.24
2334.72
2139.89
2059.89
2043.63
2044.15
3710.82
3710.82
3584.32
3349.77
3018.42
2648.72
2334.13
2139.3
2059.33
2043.1
2044.15
3710.22
3710.22
3583.77
3349.27
3017.93
2648.2
2333.58
2138.74
2058.78
2042.57
2044.15
3709.61
3709.61
3583.18
3348.7
3017.39
2647.68
2333.06
2138.21
2058.24
2042.02
2044.15
3708.98
3708.98
3582.54
3348.08
3016.81
2647.15
2332.57
2137.71
2057.72
2041.47
2044.15
3708.33
3708.33
3581.85
3347.38
3016.18
2646.62
2332.11
2137.25
2057.21
2040.91
2044.15
3707.68
3707.68
3581.12
3346.62
3015.5
2646.1
2331.69
2136.83
2056.7
2040.34
2044.15
3707.02
3707.02
3580.34
3345.78
3014.77
2645.58
2331.32
2136.44
2056.21
2039.76
2044.15
3707.02
3707.02
3580.34
3345.78
3014.77
2645.58
2331.32
2136.44
2056.21
2039.76
2044.15
3497.56
3497.56
3377.28
3166.02
2882.16
2572.64
2307.27
2135.61
2056.9
2036.14
2036.14
3497.56
3497.56
3377.28
3166.02
2882.16
2572.64
2307.27
2135.61
2056.9
2036.14
2036.14
3497.1
3497.1
3376.91
3165.68
2881.78
2572.15
2306.69
2135.01
2056.34
2035.62
2036.14
3496.54
3496.54
3376.4
3165.21
2881.3
2571.63
2306.12
2134.43
2055.78
2035.08
2036.14
3495.96
3495.96
3375.85
3164.69
2880.79
2571.1
2305.56
2133.87
2055.23
2034.53
2036.14
3495.35
3495.35
3375.26
3164.12
2880.24
2570.56
2305.03
2133.33
2054.68
2033.99
2036.14
3494.72
3494.72
3374.62
3163.5
2879.66
2570.02
2304.51
2132.82
2054.15
2033.43
2036.14
3494.07
3494.07
3373.95
3162.83
2879.04
2569.47
2304.02
2132.32
2053.62
2032.86
2036.14
3493.39
3493.39
3373.23
3162.11
2878.38
2568.93
2303.55
2131.85
2053.09
2032.29
2036.14
3492.71
3492.71
3372.47
3161.33
2877.68
2568.38
2303.11
2131.41
2052.58
2031.7
2036.14
3492.71
3492.71
3372.47
3161.33
2877.68
2568.38
2303.11
2131.41
2052.58
2031.7
2036.14
3284.93
3284.93
3175.94
2990.93
2749.52
2490.29
2266.42
2116
2040.93
2017.94
2017.94
3284.93
3284.93
3175.94
2990.93
2749.52
2490.29
2266.42
2116
2040.93
2017.94
2017.94
3284.46
3284.46
3175.53
2990.55
2749.1
2489.79
2265.86
2115.42
2040.37
2017.4
2017.94
3283.91
3283.91
3175.02
2990.05
2748.6
2489.26
2265.29
2114.84
2039.81
2016.86
2017.94
3283.34
3283.34
3174.46
2989.52
2748.07
2488.72
2264.74
2114.28
2039.25
2016.31
2017.94
3282.74
3282.74
3173.87
2988.94
2747.51
2488.17
2264.19
2113.73
2038.7
2015.75
2017.94
3282.11
3282.11
3173.24
2988.33
2746.92
2487.61
2263.66
2113.2
2038.15
2015.19
2017.94
3281.45
3281.45
3172.58
2987.67
2746.31
2487.05
2263.13
2112.68
2037.61
2014.62
2017.94
3280.77
3280.77
3171.87
2986.97
2745.66
2486.48
2262.62
2112.17
2037.07
2014.04
2017.94
3280.06
3280.06
3171.12
2986.23
2744.98
2485.91
2262.13
2111.68
2036.53
2013.44
2017.94
3280.06
3280.06
3171.12
2986.23
2744.98
2485.91
2262.13
2111.68
2036.53
2013.44
2017.94
3076.76
3076.76
2982.08
2823.54
2619.78
2403
2214.3
2083.2
2013.32
1989.78
1989.78
3076.76
3076.76
2982.08
2823.54
2619.78
2403
2214.3
2083.2
2013.32
1989.78
1989.78
3076.28
3076.28
2981.65
2823.12
2619.33
2402.49
2213.75
2082.63
2012.76
1989.24
1989.78
3075.74
3075.74
2981.13
2822.61
2618.82
2401.95
2213.19
2082.06
2012.19
1988.69
1989.78
3075.17
3075.17
2980.57
2822.06
2618.27
2401.4
2212.63
2081.49
2011.63
1988.14
1989.78
3074.57
3074.57
2979.98
2821.48
2617.71
2400.85
2212.07
2080.93
2011.07
1987.57
1989.78
3073.94
3073.94
2979.35
2820.87
2617.11
2400.28
2211.52
2080.38
2010.51
1987
1989.78
3073.28
3073.28
2978.69
2820.22
2616.5
2399.7
2210.97
2079.84
2009.95
1986.42
1989.78
3072.6
3072.6
2977.99
2819.53
2615.85
2399.11
2210.43
2079.3
2009.39
1985.83
1989.78
3071.89
3071.89
2977.26
2818.81
2615.18
2398.52
2209.89
2078.78
2008.83
1985.23
1989.78
3071.89
3071.89
2977.26
2818.81
2615.18
2398.52
2209.89
2078.78
2008.83
1985.23
1989.78
2874.88
2874.88
2795.89
2662.55
2491.94
2311.13
2152.32
2038.69
1974.94
1952.1
1952.1
2874.88
2874.88
2795.89
2662.55
2491.94
2311.13
2152.32
2038.69
1974.94
1952.1
1952.1
2874.39
2874.39
2795.43
2662.1
2491.47
2310.62
2151.77
2038.13
1974.38
1951.55
1952.1
2873.85
2873.85
2794.9
2661.58
2490.94
2310.07
2151.21
2037.56
1973.81
1951
1952.1
2873.28
2873.28
2794.34
2661.02
2490.39
2309.51
2150.64
2037
1973.25
1950.43
1952.1
2872.68
2872.68
2793.74
2660.44
2489.81
2308.94
2150.08
2036.43
1972.68
1949.86
1952.1
2872.05
2872.05
2793.12
2659.82
2489.21
2308.36
2149.51
2035.86
1972.1
1949.28
1952.1
2871.39
2871.39
2792.46
2659.17
2488.59
2307.77
2148.94
2035.3
1971.53
1948.69
1952.1
2870.71
2870.71
2791.76
2658.49
2487.94
2307.17
2148.37
2034.74
1970.96
1948.09
1952.1
2870
2870
2791.04
2657.78
2487.27
2306.56
2147.8
2034.18
1970.38
1947.48
1952.1
2870
2870
2791.04
2657.78
2487.27
2306.56
2147.8
2034.18
1970.38
1947.48
1952.1
2680.33
2680.33
2617.12
2506.95
2365.33
2215.07
2081.75
1983.88
1926.72
1905.41
1905.41
2680.33
2680.33
2617.12
2506.95
2365.33
2215.07
2081.75
1983.88
1926.72
1905.41
1905.41
2679.83
2679.83
2616.64
2506.48
2364.84
2214.55
2081.2
1983.32
1926.16
1904.86
1905.41
2679.28
2679.28
2616.1
2505.94
2364.3
2214
2080.64
1982.75
1925.59
1904.3
1905.41
2678.71
2678.71
2615.54
2505.38
2363.73
2213.44
2080.07
1982.18
1925.02
1903.73
1905.41
2678.11
2678.11
2614.94
2504.79
2363.15
2212.86
2079.49
1981.6
1924.44
1903.15
1905.41
2677.48
2677.48
2614.31
2504.17
2362.54
2212.27
2078.91
1981.02
1923.86
1902.56
1905.41
2676.82
2676.82
2613.65
2503.52
2361.92
2211.66
2078.32
1980.44
1923.27
1901.96
1905.41
2676.14
2676.14
2612.96
2502.84
2361.26
2211.04
2077.73
1979.86
1922.68
1901.35
1905.41
2675.43
2675.43
2612.24
2502.13
2360.59
2210.42
2077.14
1979.27
1922.08
1900.73
1905.41
2675.43
2675.43
2612.24
2502.13
2360.59
2210.42
2077.14
1979.27
1922.08
1900.73
1905.41
2493.54
2493.54
2445.31
2355.94
2239.5
2115.25
2003.73
1920.01
1869.57
1850.32
1850.32
2493.54
2493.54
2445.31
2355.94
2239.5
2115.25
2003.73
1920.01
1869.57
1850.32
1850.32
2493.03
2493.03
2444.82
2355.45
2238.99
2114.72
2003.18
1919.45
1869.01
1849.77
1850.32
2492.48
2492.48
2444.28
2354.91
2238.44
2114.16
2002.61
1918.88
1868.44
1849.2
1850.32
2491.9
2491.9
2443.7
2354.34
2237.87
2113.59
2002.04
1918.3
1867.86
1848.62
1850.32
2491.3
2491.3
2443.1
2353.74
2237.28
2113
2001.45
1917.72
1867.27
1848.04
1850.32
2490.67
2490.67
2442.47
2353.11
2236.67
2112.4
2000.86
1917.13
1866.68
1847.44
1850.32
2490.01
2490.01
2441.81
2352.46
2236.03
2111.78
2000.26
1916.53
1866.08
1846.83
1850.32
2489.33
2489.33
2441.11
2351.78
2235.37
2111.15
1999.65
1915.92
1865.47
1846.2
1850.32
2488.62
2488.62
2440.39
2351.08
2234.7
2110.51
1999.03
1915.32
1864.86
1845.57
1850.32
2488.62
2488.62
2440.39
2351.08
2234.7
2110.51
1999.03
1915.32
1864.86
1845.57
1850.32
2314.53
2314.53
2279.92
2208.88
2114.17
2012.08
1919.27
1848.2
1804.35
1787.44
1787.44
2314.53
2314.53
2279.92
2208.88
2114.17
2012.08
1919.27
1848.2
1804.35
1787.44
1787.44
2314
2314
2279.41
2208.37
2113.66
2011.54
1918.72
1847.64
1803.79
1786.89
1787.44
2313.44
2313.44
2278.86
2207.82
2113.1
2010.98
1918.14
1847.07
1803.21
1786.32
1787.44
2312.85
2312.85
2278.28
2207.24
2112.52
2010.4
1917.56
1846.48
1802.62
1785.73
1787.44
2312.25
2312.25
2277.67
2206.63
2111.92
2009.8
1916.96
1845.89
1802.03
1785.14
1787.44
2311.61
2311.61
2277.04
2206
2111.3
2009.19
1916.36
1845.28
1801.42
1784.53
1787.44
2310.96
2310.96
2276.37
2205.34
2110.65
2008.56
1915.74
1844.67
1800.81
1783.91
1787.44
2310.28
2310.28
2275.68
2204.66
2109.99
2007.91
1915.11
1844.05
1800.19
1783.27
1787.44
2309.58
2309.58
2274.96
2203.95
2109.3
2007.26
1914.48
1843.42
1799.56
1782.62
1787.44
2309.58
2309.58
2274.96
2203.95
2109.3
2007.26
1914.48
1843.42
1799.56
1782.62
1787.44
2143
2143
2120.33
2065.2
1989.18
1905.95
1829.22
1769.43
1731.87
1717.41
1717.41
2143
2143
2120.33
2065.2
1989.18
1905.95
1829.22
1769.43
1731.87
1717.41
1717.41
2142.46
2142.46
2119.81
2064.68
1988.65
1905.41
1828.67
1768.87
1731.3
1716.85
1717.41
2141.89
2141.89
2119.25
2064.12
1988.08
1904.84
1828.09
1768.29
1730.72
1716.28
1717.41
2141.3
2141.3
2118.66
2063.53
1987.5
1904.25
1827.5
1767.7
1730.13
1715.69
1717.41
2140.69
2140.69
2118.05
2062.92
1986.89
1903.64
1826.9
1767.09
1729.53
1715.08
1717.41
2140.05
2140.05
2117.41
2062.28
1986.26
1903.02
1826.28
1766.48
1728.91
1714.46
1717.41
2139.4
2139.4
2116.74
2061.62
1985.61
1902.38
1825.65
1765.85
1728.28
1713.83
1717.41
2138.72
2138.72
2116.04
2060.93
1984.93
1901.73
1825.01
1765.21
1727.65
1713.18
1717.41
2138.01
2138.01
2115.31
2060.22
1984.24
1901.05
1824.35
1764.57
1727
1712.52
1717.41
2138.01
2138.01
2115.31
2060.22
1984.24
1901.05
1824.35
1764.57
1727
1712.52
1717.41
1978.33
1978.33
1965.89
1924.45
1864.39
1797.25
1734.35
1684.55
1652.87
1640.84
1640.84
1978.33
1978.33
1965.89
1924.45
1864.39
1797.25
1734.35
1684.55
1652.87
1640.84
1640.84
1977.78
1977.78
1965.36
1923.92
1863.85
1796.7
1733.79
1683.98
1652.3
1640.28
1640.84
1977.21
1977.21
1964.79
1923.35
1863.28
1796.12
1733.21
1683.4
1651.71
1639.69
1640.84
1976.61
1976.61
1964.2
1922.75
1862.69
1795.52
1732.61
1682.8
1651.11
1639.09
1640.84
1975.99
1975.99
1963.58
1922.13
1862.07
1794.91
1732
1682.19
1650.5
1638.48
1640.84
1975.35
1975.35
1962.93
1921.49
1861.43
1794.27
1731.37
1681.56
1649.87
1637.85
1640.84
1974.69
1974.69
1962.26
1920.82
1860.77
1793.62
1730.72
1680.92
1649.23
1637.21
1640.84
1974.01
1974.01
1961.55
1920.12
1860.09
1792.95
1730.07
1680.27
1648.58
1636.55
1640.84
1973.3
1973.3
1960.82
1919.41
1859.39
1792.27
1729.39
1679.6
1647.92
1635.87
1640.84
1973.3
1973.3
1960.82
1919.41
1859.39
1792.27
1729.39