# vtk DataFile Version 2.0
FlowField
ASCII
DATASET STRUCTURED_GRID
DIMENSIONS 62 47 32 
POINTS 93248 double
0 0 0
0.01 0 0
0.02 0 0
0.03 0 0
0.04 0 0
0.05 0 0
0.06 0 0
0.07 0 0
0.08 0 0
0.09 0 0
0.1 0 0
0.11 0 0
0.12 0 0
0.13 0 0
0.14 0 0
0.15 0 0
0.16 0 0
0.17 0 0
0.18 0 0
0.19 0 0
0.2 0 0
0.21 0 0
0.22 0 0
0.23 0 0
0.24 0 0
0.25 0 0
0.26 0 0
0.27 0 0
0.28 0 0
0.29 0 0
0.3 0 0
0.31 0 0
0.32 0 0
0.33 0 0
0.34 0 0
0.35 0 0
0.36 0 0
0.37 0 0
0.38 0 0
0.39 0 0
0.4 0 0
0.41 0 0
0.42 0 0
0.43 0 0
0.44 0 0
0.45 0 0
0.46 0 0
0.47 0 0
0.48 0 0
0.49 0 0
0.5 0 0
0.51 0 0
0.52 0 0
0.53 0 0
0.54 0 0
0.55 0 0
0.56 0 0
0.57 0 0
0.58 0 0
0.59 0 0
0.6 0 0
0.61 0 0
0 0.01 0
0.01 0.01 0
0.02 0.01 0
0.03 0.01 0
0.04 0.01 0
0.05 0.01 0
0.06 0.01 0
0.07 0.01 0
0.08 0.01 0
0.09 0.01 0
0.1 0.01 0
0.11 0.01 0
0.12 0.01 0
0.13 0.01 0
0.14 0.01 0
0.15 0.01 0
0.16 0.01 0
0.17 0.01 0
0.18 0.01 0
0.19 0.01 0
0.2 0.01 0
0.21 0.01 0
0.22 0.01 0
0.23 0.01 0
0.24 0.01 0
0.25 0.01 0
0.26 0.01 0
0.27 0.01 0
0.28 0.01 0
0.29 0.01 0
0.3 0.01 0
0.31 0.01 0
0.32 0.01 0
0.33 0.01 0
0.34 0.01 0
0.35 0.01 0
0.36 0.01 0
0.37 0.01 0
0.38 0.01 0
0.39 0.01 0
0.4 0.01 0
0.41 0.01 0
0.42 0.01 0
0.43 0.01 0
0.44 0.01 0
0.45 0.01 0
0.46 0.01 0
0.47 0.01 0
0.48 0.01 0
0.49 0.01 0
0.5 0.01 0
0.51 0.01 0
0.52 0.01 0
0.53 0.01 0
0.54 0.01 0
0.55 0.01 0
0.56 0.01 0
0.57 0.01 0
0.58 0.01 0
0.59 0.01 0
0.6 0.01 0
0.61 0.01 0
0 0.02 0
0.01 0.02 0
0.02 0.02 0
0.03 0.02 0
0.04 0.02 0
0.05 0.02 0
0.06 0.02 0
0.07 0.02 0
0.08 0.02 0
0.09 0.02 0
0.1 0.02 0
0.11 0.02 0
0.12 0.02 0
0.13 0.02 0
0.14 0.02 0
0.15 0.02 0
0.16 0.02 0
0.17 0.02 0
0.18 0.02 0
0.19 0.02 0
0.2 0.02 0
0.21 0.02 0
0.22 0.02 0
0.23 0.02 0
0.24 0.02 0
0.25 0.02 0
0.26 0.02 0
0.27 0.02 0
0.28 0.02 0
0.29 0.02 0
0.3 0.02 0
0.31 0.02 0
0.32 0.02 0
0.33 0.02 0
0.34 0.02 0
0.35 0.02 0
0.36 0.02 0
0.37 0.02 0
0.38 0.02 0
0.39 0.02 0
0.4 0.02 0
0.41 0.02 0
0.42 0.02 0
0.43 0.02 0
0.44 0.02 0
0.45 0.02 0
0.46 0.02 0
0.47 0.02 0
0.48 0.02 0
0.49 0.02 0
0.5 0.02 0
0.51 0.02 0
0.52 0.02 0
0.53 0.02 0
0.54 0.02 0
0.55 0.02 0
0.56 0.02 0
0.57 0.02 0
0.58 0.02 0
0.59 0.02 0
0.6 0.02 0
0.61 0.02 0
0 0.03 0
0.01 0.03 0
0.02 0.03 0
0.03 0.03 0
0.04 0.03 0
0.05 0.03 0
0.06 0.03 0
0.07 0.03 0
0.08 0.03 0
0.09 0.03 0
0.1 0.03 0
0.11 0.03 0
0.12 0.03 0
0.13 0.03 0
0.14 0.03 0
0.15 0.03 0
0.16 0.03 0
0.17 0.03 0
0.18 0.03 0
0.19 0.03 0
0.2 0.03 0
0.21 0.03 0
0.22 0.03 0
0.23 0.03 0
0.24 0.03 0
0.25 0.03 0
0.26 0.03 0
0.27 0.03 0
0.28 0.03 0
0.29 0.03 0
0.3 0.03 0
0.31 0.03 0
0.32 0.03 0
0.33 0.03 0
0.34 0.03 0
0.35 0.03 0
0.36 0.03 0
0.37 0.03 0
0.38 0.03 0
0.39 0.03 0
0.4 0.03 0
0.41 0.03 0
0.42 0.03 0
0.43 0.03 0
0.44 0.03 0
0.45 0.03 0
0.46 0.03 0
0.47 0.03 0
0.48 0.03 0
0.49 0.03 0
0.5 0.03 0
0.51 0.03 0
0.52 0.03 0
0.53 0.03 0
0.54 0.03 0
0.55 0.03 0
0.56 0.03 0
0.57 0.03 0
0.58 0.03 0
0.59 0.03 0
0.6 0.03 0
0.61 0.03 0
0 0.04 0
0.01 0.04 0
0.02 0.04 0
0.03 0.04 0
0.04 0.04 0
0.05 0.04 0
0.06 0.04 0
0.07 0.04 0
0.08 0.04 0
0.09 0.04 0
0.1 0.04 0
0.11 0.04 0
0.12 0.04 0
0.13 0.04 0
0.14 0.04 0
0.15 0.04 0
0.16 0.04 0
0.17 0.04 0
0.18 0.04 0
0.19 0.04 0
0.2 0.04 0
0.21 0.04 0
0.22 0.04 0
0.23 0.04 0
0.24 0.04 0
0.25 0.04 0
0.26 0.04 0
0.27 0.04 0
0.28 0.04 0
0.29 0.04 0
0.3 0.04 0
0.31 0.04 0
0.32 0.04 0
0.33 0.04 0
0.34 0.04 0
0.35 0.04 0
0.36 0.04 0
0.37 0.04 0
0.38 0.04 0
0.39 0.04 0
0.4 0.04 0
0.41 0.04 0
0.42 0.04 0
0.43 0.04 0
0.44 0.04 0
0.45 0.04 0
0.46 0.04 0
0.47 0.04 0
0.48 0.04 0
0.49 0.04 0
0.5 0.04 0
0.51 0.04 0
0.52 0.04 0
0.53 0.04 0
0.54 0.04 0
0.55 0.04 0
0.56 0.04 0
0.57 0.04 0
0.58 0.04 0
0.59 0.04 0
0.6 0.04 0
0.61 0.04 0
0 0.05 0
0.01 0.05 0
0.02 0.05 0
0.03 0.05 0
0.04 0.05 0
0.05 0.05 0
0.06 0.05 0
0.07 0.05 0
0.08 0.05 0
0.09 0.05 0
0.1 0.05 0
0.11 0.05 0
0.12 0.05 0
0.13 0.05 0
0.14 0.05 0
0.15 0.05 0
0.16 0.05 0
0.17 0.05 0
0.18 0.05 0
0.19 0.05 0
0.2 0.05 0
0.21 0.05 0
0.22 0.05 0
0.23 0.05 0
0.24 0.05 0
0.25 0.05 0
0.26 0.05 0
0.27 0.05 0
0.28 0.05 0
0.29 0.05 0
0.3 0.05 0
0.31 0.05 0
0.32 0.05 0
0.33 0.05 0
0.34 0.05 0
0.35 0.05 0
0.36 0.05 0
0.37 0.05 0
0.38 0.05 0
0.39 0.05 0
0.4 0.05 0
0.41 0.05 0
0.42 0.05 0
0.43 0.05 0
0.44 0.05 0
0.45 0.05 0
0.46 0.05 0
0.47 0.05 0
0.48 0.05 0
0.49 0.05 0
0.5 0.05 0
0.51 0.05 0
0.52 0.05 0
0.53 0.05 0
0.54 0.05 0
0.55 0.05 0
0.56 0.05 0
0.57 0.05 0
0.58 0.05 0
0.59 0.05 0
0.6 0.05 0
0.61 0.05 0
0 0.06 0
0.01 0.06 0
0.02 0.06 0
0.03 0.06 0
0.04 0.06 0
0.05 0.06 0
0.06 0.06 0
0.07 0.06 0
0.08 0.06 0
0.09 0.06 0
0.1 0.06 0
0.11 0.06 0
0.12 0.06 0
0.13 0.06 0
0.14 0.06 0
0.15 0.06 0
0.16 0.06 0
0.17 0.06 0
0.18 0.06 0
0.19 0.06 0
0.2 0.06 0
0.21 0.06 0
0.22 0.06 0
0.23 0.06 0
0.24 0.06 0
0.25 0.06 0
0.26 0.06 0
0.27 0.06 0
0.28 0.06 0
0.29 0.06 0
0.3 0.06 0
0.31 0.06 0
0.32 0.06 0
0.33 0.06 0
0.34 0.06 0
0.35 0.06 0
0.36 0.06 0
0.37 0.06 0
0.38 0.06 0
0.39 0.06 0
0.4 0.06 0
0.41 0.06 0
0.42 0.06 0
0.43 0.06 0
0.44 0.06 0
0.45 0.06 0
0.46 0.06 0
0.47 0.06 0
0.48 0.06 0
0.49 0.06 0
0.5 0.06 0
0.51 0.06 0
0.52 0.06 0
0.53 0.06 0
0.54 0.06 0
0.55 0.06 0
0.56 0.06 0
0.57 0.06 0
0.58 0.06 0
0.59 0.06 0
0.6 0.06 0
0.61 0.06 0
0 0.07 0
0.01 0.07 0
0.02 0.07 0
0.03 0.07 0
0.04 0.07 0
0.05 0.07 0
0.06 0.07 0
0.07 0.07 0
0.08 0.07 0
0.09 0.07 0
0.1 0.07 0
0.11 0.07 0
0.12 0.07 0
0.13 0.07 0
0.14 0.07 0
0.15 0.07 0
0.16 0.07 0
0.17 0.07 0
0.18 0.07 0
0.19 0.07 0
0.2 0.07 0
0.21 0.07 0
0.22 0.07 0
0.23 0.07 0
0.24 0.07 0
0.25 0.07 0
0.26 0.07 0
0.27 0.07 0
0.28 0.07 0
0.29 0.07 0
0.3 0.07 0
0.31 0.07 0
0.32 0.07 0
0.33 0.07 0
0.34 0.07 0
0.35 0.07 0
0.36 0.07 0
0.37 0.07 0
0.38 0.07 0
0.39 0.07 0
0.4 0.07 0
0.41 0.07 0
0.42 0.07 0
0.43 0.07 0
0.44 0.07 0
0.45 0.07 0
0.46 0.07 0
0.47 0.07 0
0.48 0.07 0
0.49 0.07 0
0.5 0.07 0
0.51 0.07 0
0.52 0.07 0
0.53 0.07 0
0.54 0.07 0
0.55 0.07 0
0.56 0.07 0
0.57 0.07 0
0.58 0.07 0
0.59 0.07 0
0.6 0.07 0
0.61 0.07 0
0 0.08 0
0.01 0.08 0
0.02 0.08 0
0.03 0.08 0
0.04 0.08 0
0.05 0.08 0
0.06 0.08 0
0.07 0.08 0
0.08 0.08 0
0.09 0.08 0
0.1 0.08 0
0.11 0.08 0
0.12 0.08 0
0.13 0.08 0
0.14 0.08 0
0.15 0.08 0
0.16 0.08 0
0.17 0.08 0
0.18 0.08 0
0.19 0.08 0
0.2 0.08 0
0.21 0.08 0
0.22 0.08 0
0.23 0.08 0
0.24 0.08 0
0.25 0.08 0
0.26 0.08 0
0.27 0.08 0
0.28 0.08 0
0.29 0.08 0
0.3 0.08 0
0.31 0.08 0
0.32 0.08 0
0.33 0.08 0
0.34 0.08 0
0.35 0.08 0
0.36 0.08 0
0.37 0.08 0
0.38 0.08 0
0.39 0.08 0
0.4 0.08 0
0.41 0.08 0
0.42 0.08 0
0.43 0.08 0
0.44 0.08 0
0.45 0.08 0
0.46 0.08 0
0.47 0.08 0
0.48 0.08 0
0.49 0.08 0
0.5 0.08 0
0.51 0.08 0
0.52 0.08 0
0.53 0.08 0
0.54 0.08 0
0.55 0.08 0
0.56 0.08 0
0.57 0.08 0
0.58 0.08 0
0.59 0.08 0
0.6 0.08 0
0.61 0.08 0
0 0.09 0
0.01 0.09 0
0.02 0.09 0
0.03 0.09 0
0.04 0.09 0
0.05 0.09 0
0.06 0.09 0
0.07 0.09 0
0.08 0.09 0
0.09 0.09 0
0.1 0.09 0
0.11 0.09 0
0.12 0.09 0
0.13 0.09 0
0.14 0.09 0
0.15 0.09 0
0.16 0.09 0
0.17 0.09 0
0.18 0.09 0
0.19 0.09 0
0.2 0.09 0
0.21 0.09 0
0.22 0.09 0
0.23 0.09 0
0.24 0.09 0
0.25 0.09 0
0.26 0.09 0
0.27 0.09 0
0.28 0.09 0
0.29 0.09 0
0.3 0.09 0
0.31 0.09 0
0.32 0.09 0
0.33 0.09 0
0.34 0.09 0
0.35 0.09 0
0.36 0.09 0
0.37 0.09 0
0.38 0.09 0
0.39 0.09 0
0.4 0.09 0
0.41 0.09 0
0.42 0.09 0
0.43 0.09 0
0.44 0.09 0
0.45 0.09 0
0.46 0.09 0
0.47 0.09 0
0.48 0.09 0
0.49 0.09 0
0.5 0.09 0
0.51 0.09 0
0.52 0.09 0
0.53 0.09 0
0.54 0.09 0
0.55 0.09 0
0.56 0.09 0
0.57 0.09 0
0.58 0.09 0
0.59 0.09 0
0.6 0.09 0
0.61 0.09 0
0 0.1 0
0.01 0.1 0
0.02 0.1 0
0.03 0.1 0
0.04 0.1 0
0.05 0.1 0
0.06 0.1 0
0.07 0.1 0
0.08 0.1 0
0.09 0.1 0
0.1 0.1 0
0.11 0.1 0
0.12 0.1 0
0.13 0.1 0
0.14 0.1 0
0.15 0.1 0
0.16 0.1 0
0.17 0.1 0
0.18 0.1 0
0.19 0.1 0
0.2 0.1 0
0.21 0.1 0
0.22 0.1 0
0.23 0.1 0
0.24 0.1 0
0.25 0.1 0
0.26 0.1 0
0.27 0.1 0
0.28 0.1 0
0.29 0.1 0
0.3 0.1 0
0.31 0.1 0
0.32 0.1 0
0.33 0.1 0
0.34 0.1 0
0.35 0.1 0
0.36 0.1 0
0.37 0.1 0
0.38 0.1 0
0.39 0.1 0
0.4 0.1 0
0.41 0.1 0
0.42 0.1 0
0.43 0.1 0
0.44 0.1 0
0.45 0.1 0
0.46 0.1 0
0.47 0.1 0
0.48 0.1 0
0.49 0.1 0
0.5 0.1 0
0.51 0.1 0
0.52 0.1 0
0.53 0.1 0
0.54 0.1 0
0.55 0.1 0
0.56 0.1 0
0.57 0.1 0
0.58 0.1 0
0.59 0.1 0
0.6 0.1 0
0.61 0.1 0
0 0.11 0
0.01 0.11 0
0.02 0.11 0
0.03 0.11 0
0.04 0.11 0
0.05 0.11 0
0.06 0.11 0
0.07 0.11 0
0.08 0.11 0
0.09 0.11 0
0.1 0.11 0
0.11 0.11 0
0.12 0.11 0
0.13 0.11 0
0.14 0.11 0
0.15 0.11 0
0.16 0.11 0
0.17 0.11 0
0.18 0.11 0
0.19 0.11 0
0.2 0.11 0
0.21 0.11 0
0.22 0.11 0
0.23 0.11 0
0.24 0.11 0
0.25 0.11 0
0.26 0.11 0
0.27 0.11 0
0.28 0.11 0
0.29 0.11 0
0.3 0.11 0
0.31 0.11 0
0.32 0.11 0
0.33 0.11 0
0.34 0.11 0
0.35 0.11 0
0.36 0.11 0
0.37 0.11 0
0.38 0.11 0
0.39 0.11 0
0.4 0.11 0
0.41 0.11 0
0.42 0.11 0
0.43 0.11 0
0.44 0.11 0
0.45 0.11 0
0.46 0.11 0
0.47 0.11 0
0.48 0.11 0
0.49 0.11 0
0.5 0.11 0
0.51 0.11 0
0.52 0.11 0
0.53 0.11 0
0.54 0.11 0
0.55 0.11 0
0.56 0.11 0
0.57 0.11 0
0.58 0.11 0
0.59 0.11 0
0.6 0.11 0
0.61 0.11 0
0 0.12 0
0.01 0.12 0
0.02 0.12 0
0.03 0.12 0
0.04 0.12 0
0.05 0.12 0
0.06 0.12 0
0.07 0.12 0
0.08 0.12 0
0.09 0.12 0
0.1 0.12 0
0.11 0.12 0
0.12 0.12 0
0.13 0.12 0
0.14 0.12 0
0.15 0.12 0
0.16 0.12 0
0.17 0.12 0
0.18 0.12 0
0.19 0.12 0
0.2 0.12 0
0.21 0.12 0
0.22 0.12 0
0.23 0.12 0
0.24 0.12 0
0.25 0.12 0
0.26 0.12 0
0.27 0.12 0
0.28 0.12 0
0.29 0.12 0
0.3 0.12 0
0.31 0.12 0
0.32 0.12 0
0.33 0.12 0
0.34 0.12 0
0.35 0.12 0
0.36 0.12 0
0.37 0.12 0
0.38 0.12 0
0.39 0.12 0
0.4 0.12 0
0.41 0.12 0
0.42 0.12 0
0.43 0.12 0
0.44 0.12 0
0.45 0.12 0
0.46 0.12 0
0.47 0.12 0
0.48 0.12 0
0.49 0.12 0
0.5 0.12 0
0.51 0.12 0
0.52 0.12 0
0.53 0.12 0
0.54 0.12 0
0.55 0.12 0
0.56 0.12 0
0.57 0.12 0
0.58 0.12 0
0.59 0.12 0
0.6 0.12 0
0.61 0.12 0
0 0.13 0
0.01 0.13 0
0.02 0.13 0
0.03 0.13 0
0.04 0.13 0
0.05 0.13 0
0.06 0.13 0
0.07 0.13 0
0.08 0.13 0
0.09 0.13 0
0.1 0.13 0
0.11 0.13 0
0.12 0.13 0
0.13 0.13 0
0.14 0.13 0
0.15 0.13 0
0.16 0.13 0
0.17 0.13 0
0.18 0.13 0
0.19 0.13 0
0.2 0.13 0
0.21 0.13 0
0.22 0.13 0
0.23 0.13 0
0.24 0.13 0
0.25 0.13 0
0.26 0.13 0
0.27 0.13 0
0.28 0.13 0
0.29 0.13 0
0.3 0.13 0
0.31 0.13 0
0.32 0.13 0
0.33 0.13 0
0.34 0.13 0
0.35 0.13 0
0.36 0.13 0
0.37 0.13 0
0.38 0.13 0
0.39 0.13 0
0.4 0.13 0
0.41 0.13 0
0.42 0.13 0
0.43 0.13 0
0.44 0.13 0
0.45 0.13 0
0.46 0.13 0
0.47 0.13 0
0.48 0.13 0
[...]
POINT_DATA 93248

SCALARS v double
LOOKUP_TABLE default
0
0
0
0
0
0
0
0
0
0
0
0
0
0
0
0
0
0
0
0
0
0
0
0
0
0
0
0
0
0
0
0
0
0
0
0
0
0
-0.132006
0
0
0
0
0
-0.138632
0
0
0
0
0
0
0
0
0
0
0
0
0
0
0
0
0
0
0.0430823
-0.094521
0.0445489
0.0303972
0.0121951
0
-0.0107138
-0.0181603
-0.022685
-0.0255751
-0.0289256
-0.0368585
-0.0354775
-0.0361298
-0.0376846
-0.0383382
-0.0373163
-0.0371458
-0.0370575
-0.0487922
-0.0390341
-0.0295937
-0.0381595
-0.0387195
-0.0383473
-0.0380793
-0.03791
-0.0377354
-0.0374516
-0.0370475
-0.0372524
-0.0407321
-0.0371983
-0.0363471
-0.0369315
-0.0922231
-0.0350499
-0.0335854
-0.032714
-0.0405568
-0.0819956
-0.0401484
-0.0426645
-0.0520896
-0.0891631
-0.168742
-0.0400873
-0.0568803
-0.037365
-0.0375049
-0.0351644
-0.0418855
-0.0529467
-0.0834047
-0.0501251
-0.123409
-0.0374847
-0.0308644
-0.0273461
-0.0232948
0
0
0.0249447
0.0479396
0.0554042
0.0512194
0.0317165
0.027815
0.0168259
0.00490034
-0.00646532
-0.0157456
-0.0246348
-0.161133
-0.0420317
-0.0460033
-0.0560013
-0.052849
-0.051256
-0.0540468
-0.0576873
-0.242019
-0.0587001
-0.0714055
-0.0595975
-0.0562387
-0.0550569
-0.0544985
-0.0541363
-0.0537833
-0.0532844
-0.052534
-0.0522339
-0.139647
-0.0514484
-0.0521711
-0.0538819
-0.0538026
-0.0506608
-0.04932
-0.0519103
-0.0555869
-0.0589534
-0.0592829
-0.0628214
-0.0686885
-0.0767094
-0.0713876
-0.0605447
-0.0568803
-0.0553257
-0.0572304
-0.0659954
-0.0619855
-0.0665155
-0.0729246
-0.0628183
-0.0560919
-0.140511
-0.0389137
-0.035025
-0.0328089
0
0
0.0126934
0.0329302
0.0413213
0.0512553
0.0567643
0.0427793
0.0312114
0.0193615
0.00732904
-0.0052541
-0.017328
-0.0321773
-0.039953
-0.0472522
-0.054632
-0.0581106
0
-0.0621318
-0.0665094
-0.0725299
-0.0707668
-0.0713765
-0.0687101
-0.0666173
-0.0653766
-0.0646319
-0.0641261
-0.0637049
-0.0632985
-0.0630554
-0.0637907
-0.0673697
-0.0705306
-0.0670147
-0.0625949
-0.061667
-0.0609256
-0.0610983
-0.0632749
-0.0651866
-0.0677045
-0.0703062
-0.0715099
-0.0746194
-0.0758921
-0.0705831
-0.0685993
-0.0669688
-0.0667676
-0.0674321
-0.0692432
-0.0691313
-0.069196
-0.0680199
-0.0643157
-0.0590751
-0.053713
-0.0446559
-0.0409853
-0.0414672
0
0
0.00748218
0.0230954
0.0379956
0.0407566
0.0424317
0.0373032
0.0294911
0.0199598
0.00925624
-0.00234002
-0.0142589
-0.0260411
-0.0356343
-0.0445669
-0.0556798
-0.0555363
-0.0577964
-0.063036
-0.0679879
-0.070572
-0.0722674
-0.072815
-0.0725409
-0.0719318
-0.0713189
-0.0707709
-0.0703326
-0.0699821
-0.0697138
-0.0696449
-0.0700936
-0.0715134
-0.0742277
-0.0726887
-0.0699326
-0.0685299
-0.0683265
-0.0692704
-0.0702149
-0.0714322
-0.0729483
-0.0746377
-0.0759027
-0.076932
-0.0759242
-0.0702993
-0.072459
-0.0726415
-0.0723551
-0.072036
-0.0716011
-0.0708042
-0.0690439
-0.0662974
-0.0629476
-0.0582649
-0.0525771
-0.0465576
-0.0438258
-0.0487413
0
0
0.00459888
0.0148896
0.0235106
0.0274105
0.0284479
0.0260066
0.0200584
0.0122862
0.00325595
-0.0067172
-0.0170047
-0.0266721
-0.0344925
-0.0400578
-0.0381926
-0.0501456
-0.0564436
-0.0618964
-0.0653549
-0.0686108
-0.0713904
-0.0731638
-0.0741658
-0.0746368
-0.0747754
-0.0746341
-0.0744689
-0.074314
-0.0741477
-0.0739586
-0.0737715
-0.074186
-0.0791032
-0.0764971
-0.074422
-0.073524
-0.0735363
-0.0741169
-0.0748191
-0.0756136
-0.0764572
-0.0773049
-0.0780867
-0.0785103
-0.0778714
0
-0.0751272
-0.07558
-0.0750354
-0.0741609
-0.07294
-0.071312
-0.068957
-0.065983
-0.0625755
-0.0585818
-0.0542624
-0.0500992
-0.0460327
-0.0537138
-0.146705
0
0.00274787
0.00929327
0.0143632
0.0168402
0.0169255
0.0150966
0.00893722
0
-0.00560957
-0.0142613
-0.0232307
-0.0315431
-0.0371567
-0.0412871
-0.0448533
-0.0515255
-0.0561274
-0.0578201
-0.0627946
-0.0670293
-0.0706512
-0.0732925
-0.0751113
-0.0763519
-0.0771642
-0.0774088
-0.0776399
-0.0777722
-0.077719
-0.0773827
-0.0766399
-0.0758526
-0.17894
-0.0789829
-0.0776076
-0.0773641
-0.077585
-0.0780067
-0.0784618
-0.0788984
-0.0792736
-0.0795334
-0.0797115
-0.0793655
-0.0780824
-0.0752545
-0.0763853
-0.076816
-0.076414
-0.0754446
-0.0740226
-0.0721547
-0.0698013
-0.0671201
-0.0642414
-0.0614522
-0.0597909
-0.0619844
-0.0696381
-0.0547935
0
0
0.00147132
0.00545047
0.00820005
0.00904984
0.007715
0.00365735
0.000281164
-0.00613828
-0.0137688
-0.0219933
-0.0305372
-0.0390039
-0.0419147
-0.0451821
-0.0491138
-0.0551353
-0.060482
-0.0595642
-0.0633285
-0.0673819
-0.0714207
-0.0742522
-0.0763644
-0.0780307
-0.0793422
-0.0798818
-0.0806014
-0.0810638
-0.081167
-0.0808625
-0.0803723
-0.080752
-0.0836065
-0.0823693
-0.0815026
-0.0812345
-0.0813515
-0.0815936
-0.08181
-0.0819494
-0.0819956
-0.0819256
-0.0814942
-0.0808925
-0.0799528
-0.0789895
-0.0786863
-0.0784191
-0.0778157
-0.0768113
-0.0754428
-0.0737442
-0.0716742
-0.0695395
-0.0673438
-0.0651047
-0.062742
-0.126375
-0.0284905
-0.0509973
0
0
0.000555029
0.00272589
0.00384033
0.00340274
0.00116463
-0.00289692
-0.00762604
-0.0138896
-0.021138
-0.0288722
-0.0373782
-0.050092
-0.0344925
-0.0493431
-0.0517329
-0.0514286
-0.0505452
-0.0610877
-0.0660591
-0.0697588
-0.0741748
-0.0764067
-0.0783403
-0.0800868
-0.0798818
-0.0830121
-0.083992
-0.0846375
-0.084862
-0.0845049
-0.0837979
-0.0839557
-0.0847325
-0.084906
-0.0848712
-0.0848573
-0.0850071
-0.0851351
-0.0851449
-0.0850315
-0.0848006
-0.0844306
-0.083874
-0.0832105
-0.0824993
-0.0818652
-0.0812419
-0.0805595
-0.0797098
-0.0786584
-0.0774236
-0.0761444
-0.0743224
-0.0727213
-0.0710492
-0.0691885
-0.0668172
-0.0629914
-0.0534196
-0.0525353
0
0
-0.000123064
0.000736311
0.000644634
-0.000786593
-0.00372057
-0.0081
-0.0135733
-0.0200474
-0.0270611
-0.0338468
-0.0386247
-0.0331988
-0.0467318
-0.0530624
-0.0560013
-0.0577503
-0.0608308
-0.0657674
-0.069825
-0.0729236
-0.108326
-0.0793115
-0.0810727
-0.0829268
-0.0849206
-0.0861262
-0.0874774
-0.0885113
-0.0889335
-0.0883617
-0.0865036
-0.0865484
-0.0872322
-0.0878217
-0.0881955
-0.0883784
-0.0886194
-0.0887037
-0.0885423
-0.0882217
-0.0877891
-0.0872503
-0.0866238
-0.0859636
-0.0853116
-0.0846672
-0.0839366
-0.083072
-0.0820699
-0.0809928
-0.0797745
-0.0782509
-0.0773204
-0.076222
-0.0748131
-0.0730344
-0.0705564
-0.066823
-0.0612859
-0.0552446
0
0
-0.000639661
-0.000756782
-0.00176726
-0.00400993
-0.00754997
-0.0123782
-0.0182988
-0.0250095
-0.0319953
-0.0384913
-0.0435231
-0.0470522
-0.0535314
-0.0587221
-0.06131
-0.0645372
-0.0682364
-0.0719053
-0.0752622
-0.0782584
-0.0815105
-0.0832387
-0.0847847
-0.0862414
-0.0869753
-0.0895344
-0.091505
-0.0929708
-0.0936403
-0.0933506
-0.0875327
-0.0890207
-0.0904209
-0.0912677
-0.0918211
-0.0922231
-0.092145
-0.0922961
-0.0919941
-0.0915069
-0.0909414
-0.0903112
-0.0896241
-0.0889572
-0.0883032
-0.0876171
-0.0868269
-0.0858708
-0.0847796
-0.083772
-0.0826841
-0.0815332
-0.0810168
-0.0798921
-0.0784898
-0.0766775
-0.0741021
-0.0703093
-0.0648845
-0.0582134
0
0
-0.00104622
-0.00191143
-0.00363239
-0.00776158
-0.0106502
-0.0159597
-0.0222805
-0.0292985
-0.0365289
-0.0433859
-0.0495663
-0.055398
-0.0610903
-0.0659074
-0.0666356
-0.0711537
-0.0751612
-0.0784838
-0.0815562
-0.084135
-0.0861067
-0.0876576
-0.089026
-0.090382
-0.0918906
-0.0939805
-0.0962575
-0.0980715
-0.0985472
-0.0981229
0
-0.0930477
-0.0944062
-0.0950879
-0.0956035
-0.0960115
-0.0962545
-0.0959114
-0.095479
-0.0948456
-0.0942034
-0.0935882
-0.0927911
-0.0921094
-0.0914555
-0.0907563
-0.0899453
-0.0889309
-0.087747
-0.0869886
-0.0862018
-0.0853145
-0.0844748
-0.0834047
-0.0820486
-0.0802109
-0.0775317
-0.0735437
-0.0678716
-0.0611099
0
0
-0.0013804
-0.00284656
-0.00517612
-0.00858588
-0.0132683
-0.0190656
-0.0258185
-0.033241
-0.0409199
-0.0483127
-0.0554234
-0.062054
-0.0681303
-0.073704
0
-0.0783475
-0.0821923
-0.0851563
-0.0883042
-0.090369
-0.0916554
-0.0926825
-0.0937236
-0.0949516
-0.0965717
-0.0987865
-0.101616
-0.103869
-0.103378
-0.100293
-0.0959825
-0.0966508
-0.0977784
-0.0986847
-0.0993538
-0.0998331
-0.100096
-0.0999292
-0.0991684
-0.0982056
-0.0974721
-0.0973682
-0.0960309
-0.0953589
-0.0947429
-0.0940716
-0.0932911
-0.092246
-0.0908278
-0.0905419
-0.0900118
-0.0891283
-0.088083
-0.0869477
-0.0856024
-0.0837429
-0.0809706
-0.0767708
-0.0708359
-0.0638669
0
0
-0.00166702
-0.00363416
-0.00646713
-0.0101706
-0.0155679
-0.0218637
-0.0290779
-0.036985
-0.0452313
-0.0493461
-0.0609485
-0.0680013
-0.07409
-0.0787815
-0.0809282
-0.0850586
-0.0884665
-0.0913625
-0.095581
-0.0969775
-0.0974731
-0.0979385
-0.0986103
-0.0995947
-0.10108
-0.103428
-0.107112
-0.110631
-0.111821
-0.104904
-0.101481
-0.101095
-0.101724
-0.102495
-0.103179
-0.10375
-0.104063
-0.104121
-0.102857
-0.101356
-0.0999783
-0.0975782
-0.0986543
-0.0985756
-0.0981108
-0.0975124
-0.0968281
-0.0958369
-0.0938191
-0.0944402
-0.0940264
-0.0929746
-0.0917516
-0.0905972
-0.0892754
-0.0873918
-0.0845414
-0.0800837
-0.0737954
-0.0664619
0
0
-0.00192609
-0.00434553
-0.00776158
-0.0125398
-0.0178518
-0.0244869
-0.0321545
-0.0405706
-0.0493461
-0.0579808
-0.0662207
-0.0736115
-0.0798954
-0.0848888
-0.0887708
-0.0922229
-0.0949486
-0.0972958
-0.104153
-0.103634
-0.103131
-0.103142
-0.103469
-0.104074
-0.105089
-0.10693
-0.110683
-0.0741477
-0.137916
-0.109291
-0.104631
-0.104633
-0.105386
-0.106153
-0.106931
-0.107865
-0.109176
-0.108882
-0.106643
-0.104556
-0.103182
-0.102333
-0.102229
-0.102011
-0.101547
-0.100993
-0.100427
-0.0997497
-0.0723551
-0.0988833
-0.0982172
-0.0968641
-0.0952048
-0.0943898
-0.0931588
-0.091265
-0.088319
-0.0835929
-0.0767692
-0.0688455
0
0
-0.00216087
-0.00493689
-0.00877077
-0.0137617
-0.0197733
-0.0269213
-0.0350937
-0.0440628
-0.0534323
-0.0626999
-0.0713696
-0.0791294
-0.0857931
-0.0913094
-0.0957931
-0.099261
-0.10158
-0.10275
-0.219274
-0.109277
-0.108453
-0.108326
-0.108314
-0.108327
-0.108299
-0.107856
-0.105217
-0.0923838
-0.0373968
-0.0856989
-0.100478
-0.105625
-0.10782
-0.109092
-0.110213
-0.111603
-0.11336
-0.114249
-0.110899
-0.108152
-0.106801
-0.1063
-0.106021
-0.105628
-0.105012
-0.104396
-0.103713
-0.102967
-0.102196
-0.103163
-0.102331
-0.101173
-0.101069
-0.0987922
-0.0973074
-0.0955103
-0.0925006
-0.0875433
-0.0799127
-0.070931
0
0
-0.00240647
-0.0054155
-0.00967463
-0.0150836
-0.0216045
-0.0292229
-0.0379117
-0.0474903
-0.0575018
-0.067363
-0.0764254
-0.0845921
-0.0917359
-0.0977939
-0.102715
-0.106463
-0.109249
-0.111889
-0.116012
-0.115554
-0.114746
-0.114046
-0.113381
-0.112606
-0.111428
-0.109136
-0.104237
-0.0955834
-0.0866081
-0.0955666
-0.102878
-0.107282
-0.109842
-0.111494
-0.112927
-0.114744
-0.117539
-0.120828
-0.117958
-0.112737
-0.110595
-0.109974
-0.109622
-0.109126
-0.108332
-0.107731
-0.107029
-0.106426
-0.106703
-0.108304
-0.106582
-0.105072
-0.104143
-0.102984
-0.101019
-0.100348
-0.0975181
-0.0924699
-0.0837552
-0.0725879
0
0
-0.00273242
0.000736311
-0.0105982
-0.0164595
-0.0234428
-0.0312866
-0.0406212
-0.0509206
-0.0616385
-0.0720983
-0.0813576
-0.0899584
-0.0976766
-0.104363
-0.109767
-0.113791
-0.116775
-0.119282
-0.120952
-0.121148
-0.120565
-0.11964
-0.118521
-0.117165
-0.11536
-0.112673
-0.108617
-0.105201
-0.105767
-0.107329
-0.109363
-0.111313
-0.112898
-0.114101
-0.115207
-0.116641
-0.11942
-0.126148
-0.141417
-0.117047
-0.113007
-0.112605
-0.112505
-0.112174
-0.108332
-0.110979
-0.110361
-0.109881
-0.110477
-0.114164
-0.110594
-0.108936
-0.108409
-0.108694
-0.111398
-0.107151
-0.103973
-0.0994112
-0.0901262
-0.0736325
0
0
-0.00280206
-0.0064684
-0.0114699
-0.0178897
-0.0254557
-0.0339596
-0.0437316
-0.0546007
-0.0659945
-0.0770619
-0.0859764
-0.0951831
-0.10363
-0.111135
-0.117055
-0.121149
-0.123978
-0.126289
-0.127225
-0.127091
-0.126314
-0.12516
-0.123748
-0.122118
-0.12025
-0.118108
-0.115679
-0.112949
-0.11673
-0.115778
-0.115575
-0.116073
-0.116673
-0.116976
-0.116998
-0.116354
-0.113539
-0.101073
-0.0470984
-0.0946371
-0.108284
-0.112722
-0.114148
-0.114471
-0.114296
-0.114052
-0.113681
-0.113276
-0.113476
-0.183614
-0.113842
-0.112952
-0.113064
-0.113495
-0.113796
-0.112729
-0.111783
-0.109202
-0.105802
-0.102662
0
0
-0.00295167
-0.00699817
-0.0123422
-0.0195106
-0.0276286
-0.03543
-0.0462445
-0.0581351
-0.0704727
-0.0824162
-0.0898092
-0.100385
-0.109694
-0.118348
-0.124708
-0.128461
-0.130887
-0.133527
-0.133905
-0.133246
-0.132127
-0.130725
-0.129101
-0.12737
-0.125675
-0.124128
-0.122101
-0.119377
-0.206259
-0.121584
-0.120807
-0.120831
-0.120829
-0.120211
-0.118846
-0.116454
-0.111756
-0.103304
-0.094171
-0.102192
-0.109666
-0.113607
-0.115624
-0.116613
-0.117049
-0.117181
-0.117256
-0.117469
-0.118249
-0.120082
-0.118422
-0.117748
-0.117896
-0.118288
-0.118481
-0.118473
-0.117846
-0.115777
-0.111336
-0.103728
0
0
-0.00313473
-0.00749342
-0.0130383
-0.0324904
-0.0300483
0
-0.0490962
-0.0618263
-0.0750731
-0.0883278
-0.0232307
-0.106255
-0.115871
-0.126504
-0.132633
-0.135441
-0.137265
-0.141297
-0.140543
-0.139313
-0.137942
-0.136353
-0.134526
-0.1327
-0.131143
-0.130377
-0.130853
-0.127182
-0.128367
-0.127084
-0.126276
-0.125923
-0.125471
-0.12392
-0.12174
-0.118949
-0.115438
-0.111998
-0.111274
-0.112639
-0.114884
-0.116763
-0.118205
-0.11932
-0.120065
-0.120462
-0.120889
-0.121381
-0.121885
-0.122127
-0.121893
-0.12202
-0.122566
-0.12315
-0.123409
-0.123385
-0.122328
-0.11955
-0.114106
-0.105619
0
0
-0.00333879
-0.00804708
-0.0141107
-0.0220077
-0.0308631
-0.0399639
-0.0519239
-0.0651833
-0.0789373
-0.0916776
-0.101108
-0.111849
-0.121284
-0.136957
-0.139414
-0.141448
-0.142917
-0.208702
-0.146538
-0.145222
-0.143831
-0.1421
-0.139942
-0.137856
-0.135871
-0.133225
-0.124763
-0.130206
-0.131417
-0.131271
-0.130972
-0.130891
-0.130643
-0.128394
-0.125752
-0.12323
-0.121037
-0.119709
-0.119733
-0.120074
-0.120569
-0.121065
-0.121404
-0.122709
-0.123543
-0.123925
-0.124539
-0.125095
-0.125389
-0.12524
-0.125113
-0.125852
-0.126953
-0.127821
-0.127929
-0.127611
-0.125852
-0.122256
-0.116555
-0.107928
0
0
-0.00354204
-0.00857645
-0.0149993
-0.0229525
-0.0321928
-0.0426384
-0.0548601
-0.0687233
-0.0832855
-0.0969154
-0.107884
-0.118399
-0.127757
-0.277805
-0.145268
-0.148
-0.150775
-0.153513
-0.153037
-0.151784
-0.150144
-0.148102
-0.145289
-0.142931
-0.140781
-0.138354
-0.135895
-0.135779
-0.135555
-0.135279
-0.135207
-0.135632
-0.136475
-0.134411
-0.130722
-0.128364
-0.126659
-0.125862
-0.125693
-0.12569
-0.125725
-0.126
-0.127738
-0.126974
-0.127414
-0.127594
-0.128319
-0.128871
-0.129062
-0.128582
-0.128019
-0.129532
-0.131145
-0.132231
-0.132156
-0.131579
-0.129014
-0.124437
-0.119064
-0.110487
0
0
-0.00374442
-0.00909901
-0.0158697
-0.024144
-0.0338511
-0.0448952
-0.0573703
-0.0722472
-0.0880465
-0.104553
-0.113993
-0.125547
-0.136645
-0.14788
-0.152683
-0.156024
-0.158579
-0.159708
-0.159419
-0.158239
-0.156537
-0.154286
-0.150318
-0.148051
-0.146184
-0.144285
-0.142673
-0.141264
-0.140077
-0.139296
-0.138947
-0.139376
-0.141831
-0.14747
-0.135576
-0.134053
-0.131371
-0.130731
-0.130487
-0.130348
-0.130176
-0.129997
-0.130302
-0.130459
-0.130668
-0.131918
-0.132369
-0.132774
-0.132923
-0.131903
-0.129821
-0.133735
-0.135258
-0.135826
-0.13691
-0.135732
-0.132198
-0.12594
-0.121746
-0.113225
0
0
-0.00395366
-0.0096478
-0.0168132
-0.0255463
-0.0357984
-0.047221
-0.0586826
-0.0753502
-0.0897499
-0.0976927
-0.117406
-0.131896
-0.143715
-0.152968
-0.159212
-0.163366
-0.166477
-0.166619
-0.165994
-0.164699
-0.162988
-0.160748
-0.15459
-0.153347
-0.151882
-0.15003
-0.148143
-0.145815
-0.144531
-0.143016
-0.141591
-0.139647
-0.133509
-0.104569
-0.126328
-0.127309
-0.132789
-0.134047
-0.134323
-0.134317
-0.134025
-0.133316
-0.133489
-0.13406
-0.134683
-0.135435
-0.136007
-0.136538
-0.136938
-0.135789
-0.131134
-0.138053
-0.139507
-0.140143
-0.140569
-0.139705
-0.135772
-0.126375
-0.124943
-0.116072
0
0
-0.0041739
-0.0102373
-0.017857
-0.0271794
-0.0382968
-0.0514653
-0.0690474
-0.0805735
-0.094341
-0.108494
-0.124381
-0.138653
-0.150501
-0.159595
-0.166096
-0.170217
-0.171089
-0.172798
-0.172424
-0.171061
-0.16935
-0.167552
-0.0829268
-0.159422
-0.157696
-0.155417
-0.153187
-0.141264
-0.148637
-0.146419
-0.143478
-0.14116
-0.136003
-0.129983
-0.132325
-0.134051
-0.136003
-0.13711
-0.137675
-0.137912
-0.137589
-0.136084
-0.136745
-0.137704
-0.138444
-0.139
-0.139484
-0.13997
-0.140463
-0.140772
-0.0418855
-0.161916
-0.143381
-0.143856
-0.144147
-0.143644
-0.140511
-0.0273461
-0.129261
-0.118929
0
0
-0.0044012
-0.0108534
-0.0189625
-0.028912
-0.0408052
-0.054707
-0.0702055
-0.0840885
-0.0996043
-0.115884
-0.131756
-0.145958
-0.157781
-0.16693
-0.173531
-0.177657
-0.179413
-0.179806
-0.178947
-0.177233
-0.174999
-0.171909
-0.167257
-0.164907
-0.162633
-0.160032
-0.157476
-0.154931
-0.152858
-0.151028
-0.151145
-0.145987
-0.142317
-0.140355
-0.13973
-0.139886
-0.140317
-0.140775
-0.141199
-0.14154
-0.14126
-0.13818
-0.140149
-0.14143
-0.142077
-0.142458
-0.142773
-0.143074
-0.14326
-0.142921
-0.141355
-0.144898
-0.146332
-0.147059
-0.147219
-0.146347
-0.143226
-0.136409
-0.131307
-0.121705
0
0
-0.00462343
-0.0114608
-0.0200768
-0.0306785
-0.0432992
-0.0578805
-0.0738562
-0.087202
-0.104828
-0.122544
-0.13901
-0.153476
-0.165424
-0.174652
-0.181342
-0.185433
-0.186921
-0.186769
-0.185444
-0.183328
-0.180806
-0.177475
-0.17376
-0.170753
-0.167707
-0.164451
-0.161697
-0.15925
-0.157046
-0.155039
-0.153063
-0.150311
-0.147944
-0.146416
-0.145394
-0.144838
-0.144605
-0.144611
-0.144802
-0.145149
-0.145285
-0.0872503
-0.144175
-0.145172
-0.145533
-0.145715
-0.145866
-0.146028
-0.146189
-0.14639
-0.146948
-0.14819
-0.149392
-0.150187
-0.150375
-0.149629
-0.147289
-0.142581
-0.134931
-0.124571
0
0
-0.00481698
-0.0119981
-0.0211495
-0.0324904
-0.0458785
-0.0613314
-0.0788347
-0.022685
-0.110919
-0.129466
-0.14638
-0.161133
-0.173281
-0.18256
-0.189318
-0.19338
-0.194233
-0.193657
-0.191926
-0.189439
-0.186966
-0.183332
-0.179466
-0.175783
-0.172276
-0.168575
-0.165822
-0.163343
-0.161013
-0.158787
-0.156552
-0.154394
-0.152507
-0.150993
-0.149822
-0.148994
-0.148479
-0.148223
-0.148146
-0.148082
-0.147639
-0.146247
-0.147386
-0.148223
-0.148618
-0.148732
-0.148792
-0.148916
-0.149179
-0.149758
-0.150718
-0.151763
-0.152813
-0.153614
-0.153894
-0.153412
-0.151766
-0.146994
-0.138641
-0.127579
0
0
-0.00493642
-0.0123451
-0.0221698
-0.0344214
-0.0485261
-0.0644443
-0.0815619
-0.0978547
-0.117179
-0.136173
-0.153649
-0.168891
-0.181337
-0.190662
-0.196994
-0.2015
-0.201375
-0.200606
-0.198515
-0.195575
-0.193452
-0.188951
-0.18447
-0.180199
-0.175668
-0.172928
-0.169997
-0.167295
-0.164804
-0.162466
-0.160256
-0.158231
-0.156419
-0.154815
-0.153506
-0.152544
-0.151904
-0.151519
-0.151295
-0.151097
-0.150838
-0.150692
-0.151052
-0.151506
-0.151713
-0.151632
-0.151577
-0.151668
-0.151961
-0.152735
-0.153927
-0.155209
-0.156393
-0.157294
-0.157616
-0.15713
-0.155277
-0.150747
-0.142172
-0.130698
0
0
-0.00491569
-0.0122093
-0.0235544
-0.036506
-0.0514184
-0.0680493
-0.0859604
-0.104678
-0.124302
-0.143602
-0.161479
-0.177079
-0.189847
-0.19965
-0.20784
-0.210184
-0.208702
-0.207877
-0.205659
-0.201751
-0.2315
-0.193883
-0.18904
-0.184535
-0.179624
-0.176296
-0.17347
-0.170831
-0.168317
-0.165952
-0.163755
-0.161741
-0.15987
-0.158088
-0.156637
-0.15561
-0.15494
-0.154528
-0.154298
-0.154149
-0.154081
-0.15417
-0.154517
-0.15489
-0.154876
-0.154438
-0.154222
-0.154246
-0.154437
-0.155387
-0.156935
-0.15857
-0.160012
-0.161083
-0.161367
-0.160753
-0.158846
-0.154343
-0.145683
-0.133888
0
0
-0.00491263
-0.0103467
-0.0251968
-0.0394312
-0.0551246
-0.0725384
-0.0914475
-0.111409
-0.13178
-0.151599
-0.169867
-0.185731
-0.198624
-0.20823
-0.213993
-0.215051
-0.21867
-0.216853
-0.213063
-0.208377
-0.204053
-0.198599
-0.193473
-0.188756
-0.182579
-0.17954
-0.17682
-0.174146
-0.171565
-0.169156
-0.166943
-0.164903
-0.162922
-0.160832
-0.159257
-0.158255
-0.15764
-0.157265
-0.157099
-0.15704
-0.157098
-0.157225
-0.157769
-0.158285
-0.158059
-0.157054
-0.156731
-0.156714
-0.156595
-0.157802
-0.159876
-0.161916
-0.163623
-0.164912
-0.165059
-0.164316
-0.162389
-0.157762
-0.149232
-0.137147
0
0
-0.00717064
-0.0214301
-0.0300697
-0.0433949
-0.0595623
-0.0777577
-0.0976812
-0.118614
-0.13978
-0.160195
-0.178841
-0.194859
-0.207699
-0.217067
-0.222474
-0.225118
-0.225752
-0.22351
-0.219274
-0.214015
-0.208364
-0.202564
-0.197183
-0.192523
-0.146184
-0.182843
-0.179983
-0.17716
-0.17448
-0.172006
-0.169776