# vtk DataFile Version 2.0
FlowField
ASCII
DATASET STRUCTURED_GRID
DIMENSIONS 62 47 32 
POINTS 93248 double
0 0 0
0.01 0 0
0.02 0 0
0.03 0 0
0.04 0 0
0.05 0 0
0.06 0 0
0.07 0 0
0.08 0 0
0.09 0 0
0.1 0 0
0.11 0 0
0.12 0 0
0.13 0 0
0.14 0 0
0.15 0 0
0.16 0 0
0.17 0 0
0.18 0 0
0.19 0 0
0.2 0 0
0.21 0 0
0.22 0 0
0.23 0 0
0.24 0 0
0.25 0 0
0.26 0 0
0.27 0 0
0.28 0 0
0.29 0 0
0.3 0 0
0.31 0 0
0.32 0 0
0.33 0 0
0.34 0 0
0.35 0 0
0.36 0 0
0.37 0 0
0.38 0 0
0.39 0 0
0.4 0 0
0.41 0 0
0.42 0 0
0.43 0 0
0.44 0 0
0.45 0 0
0.46 0 0
0.47 0 0
0.48 0 0
0.49 0 0
0.5 0 0
0.51 0 0
0.52 0 0
0.53 0 0
0.54 0 0
0.55 0 0
0.56 0 0
0.57 0 0
0.58 0 0
0.59 0 0
0.6 0 0
0.61 0 0
0 0.01 0
0.01 0.01 0
0.02 0.01 0
0.03 0.01 0
0.04 0.01 0
0.05 0.01 0
0.06 0.01 0
0.07 0.01 0
0.08 0.01 0
0.09 0.01 0
0.1 0.01 0
0.11 0.01 0
0.12 0.01 0
0.13 0.01 0
0.14 0.01 0
0.15 0.01 0
0.16 0.01 0
0.17 0.01 0
0.18 0.01 0
0.19 0.01 0
0.2 0.01 0
0.21 0.01 0
0.22 0.01 0
0.23 0.01 0
0.24 0.01 0
0.25 0.01 0
0.26 0.01 0
0.27 0.01 0
0.28 0.01 0
0.29 0.01 0
0.3 0.01 0
0.31 0.01 0
0.32 0.01 0
0.33 0.01 0
0.34 0.01 0
0.35 0.01 0
0.36 0.01 0
0.37 0.01 0
0.38 0.01 0
0.39 0.01 0
0.4 0.01 0
0.41 0.01 0
0.42 0.01 0
0.43 0.01 0
0.44 0.01 0
0.45 0.01 0
0.46 0.01 0
0.47 0.01 0
0.48 0.01 0
0.49 0.01 0
0.5 0.01 0
0.51 0.01 0
0.52 0.01 0
0.53 0.01 0
0.54 0.01 0
0.55 0.01 0
0.56 0.01 0
0.57 0.01 0
0.58 0.01 0
0.59 0.01 0
0.6 0.01 0
0.61 0.01 0
0 0.02 0
0.01 0.02 0
0.02 0.02 0
0.03 0.02 0
0.04 0.02 0
0.05 0.02 0
0.06 0.02 0
0.07 0.02 0
0.08 0.02 0
0.09 0.02 0
0.1 0.02 0
0.11 0.02 0
0.12 0.02 0
0.13 0.02 0
0.14 0.02 0
0.15 0.02 0
0.16 0.02 0
0.17 0.02 0
0.18 0.02 0
0.19 0.02 0
0.2 0.02 0
0.21 0.02 0
0.22 0.02 0
0.23 0.02 0
0.24 0.02 0
0.25 0.02 0
0.26 0.02 0
0.27 0.02 0
0.28 0.02 0
0.29 0.02 0
0.3 0.02 0
0.31 0.02 0
0.32 0.02 0
0.33 0.02 0
0.34 0.02 0
0.35 0.02 0
0.36 0.02 0
0.37 0.02 0
0.38 0.02 0
0.39 0.02 0
0.4 0.02 0
0.41 0.02 0
0.42 0.02 0
0.43 0.02 0
0.44 0.02 0
0.45 0.02 0
0.46 0.02 0
0.47 0.02 0
0.48 0.02 0
0.49 0.02 0
0.5 0.02 0
0.51 0.02 0
0.52 0.02 0
0.53 0.02 0
0.54 0.02 0
0.55 0.02 0
0.56 0.02 0
0.57 0.02 0
0.58 0.02 0
0.59 0.02 0
0.6 0.02 0
0.61 0.02 0
0 0.03 0
0.01 0.03 0
0.02 0.03 0
0.03 0.03 0
0.04 0.03 0
0.05 0.03 0
0.06 0.03 0
0.07 0.03 0
0.08 0.03 0
0.09 0.03 0
0.1 0.03 0
0.11 0.03 0
0.12 0.03 0
0.13 0.03 0
0.14 0.03 0
0.15 0.03 0
0.16 0.03 0
0.17 0.03 0
0.18 0.03 0
0.19 0.03 0
0.2 0.03 0
0.21 0.03 0
0.22 0.03 0
0.23 0.03 0
0.24 0.03 0
0.25 0.03 0
0.26 0.03 0
0.27 0.03 0
0.28 0.03 0
0.29 0.03 0
0.3 0.03 0
0.31 0.03 0
0.32 0.03 0
0.33 0.03 0
0.34 0.03 0
0.35 0.03 0
0.36 0.03 0
0.37 0.03 0
0.38 0.03 0
0.39 0.03 0
0.4 0.03 0
0.41 0.03 0
0.42 0.03 0
0.43 0.03 0
0.44 0.03 0
0.45 0.03 0
0.46 0.03 0
0.47 0.03 0
0.48 0.03 0
0.49 0.03 0
0.5 0.03 0
0.51 0.03 0
0.52 0.03 0
0.53 0.03 0
0.54 0.03 0
0.55 0.03 0
0.56 0.03 0
0.57 0.03 0
0.58 0.03 0
0.59 0.03 0
0.6 0.03 0
0.61 0.03 0
0 0.04 0
0.01 0.04 0
0.02 0.04 0
0.03 0.04 0
0.04 0.04 0
0.05 0.04 0
0.06 0.04 0
0.07 0.04 0
0.08 0.04 0
0.09 0.04 0
0.1 0.04 0
0.11 0.04 0
0.12 0.04 0
0.13 0.04 0
0.14 0.04 0
0.15 0.04 0
0.16 0.04 0
0.17 0.04 0
0.18 0.04 0
0.19 0.04 0
0.2 0.04 0
0.21 0.04 0
0.22 0.04 0
0.23 0.04 0
0.24 0.04 0
0.25 0.04 0
0.26 0.04 0
0.27 0.04 0
0.28 0.04 0
0.29 0.04 0
0.3 0.04 0
0.31 0.04 0
0.32 0.04 0
0.33 0.04 0
0.34 0.04 0
0.35 0.04 0
0.36 0.04 0
0.37 0.04 0
0.38 0.04 0
0.39 0.04 0
0.4 0.04 0
0.41 0.04 0
0.42 0.04 0
0.43 0.04 0
0.44 0.04 0
0.45 0.04 0
0.46 0.04 0
0.47 0.04 0
0.48 0.04 0
0.49 0.04 0
0.5 0.04 0
0.51 0.04 0
0.52 0.04 0
0.53 0.04 0
0.54 0.04 0
0.55 0.04 0
0.56 0.04 0
0.57 0.04 0
0.58 0.04 0
0.59 0.04 0
0.6 0.04 0
0.61 0.04 0
0 0.05 0
0.01 0.05 0
0.02 0.05 0
0.03 0.05 0
0.04 0.05 0
0.05 0.05 0
0.06 0.05 0
0.07 0.05 0
0.08 0.05 0
0.09 0.05 0
0.1 0.05 0
0.11 0.05 0
0.12 0.05 0
0.13 0.05 0
0.14 0.05 0
0.15 0.05 0
0.16 0.05 0
0.17 0.05 0
0.18 0.05 0
0.19 0.05 0
0.2 0.05 0
0.21 0.05 0
0.22 0.05 0
0.23 0.05 0
0.24 0.05 0
0.25 0.05 0
0.26 0.05 0
0.27 0.05 0
0.28 0.05 0
0.29 0.05 0
0.3 0.05 0
0.31 0.05 0
0.32 0.05 0
0.33 0.05 0
0.34 0.05 0
0.35 0.05 0
0.36 0.05 0
0.37 0.05 0
0.38 0.05 0
0.39 0.05 0
0.4 0.05 0
0.41 0.05 0
0.42 0.05 0
0.43 0.05 0
0.44 0.05 0
0.45 0.05 0
0.46 0.05 0
0.47 0.05 0
0.48 0.05 0
0.49 0.05 0
0.5 0.05 0
0.51 0.05 0
0.52 0.05 0
0.53 0.05 0
0.54 0.05 0
0.55 0.05 0
0.56 0.05 0
0.57 0.05 0
0.58 0.05 0
0.59 0.05 0
0.6 0.05 0
0.61 0.05 0
0 0.06 0
0.01 0.06 0
0.02 0.06 0
0.03 0.06 0
0.04 0.06 0
0.05 0.06 0
0.06 0.06 0
0.07 0.06 0
0.08 0.06 0
0.09 0.06 0
0.1 0.06 0
0.11 0.06 0
0.12 0.06 0
0.13 0.06 0
0.14 0.06 0
0.15 0.06 0
0.16 0.06 0
0.17 0.06 0
0.18 0.06 0
0.19 0.06 0
0.2 0.06 0
0.21 0.06 0
0.22 0.06 0
0.23 0.06 0
0.24 0.06 0
0.25 0.06 0
0.26 0.06 0
0.27 0.06 0
0.28 0.06 0
0.29 0.06 0
0.3 0.06 0
0.31 0.06 0
0.32 0.06 0
0.33 0.06 0
0.34 0.06 0
0.35 0.06 0
0.36 0.06 0
0.37 0.06 0
0.38 0.06 0
0.39 0.06 0
0.4 0.06 0
0.41 0.06 0
0.42 0.06 0
0.43 0.06 0
0.44 0.06 0
0.45 0.06 0
0.46 0.06 0
0.47 0.06 0
0.48 0.06 0
0.49 0.06 0
0.5 0.06 0
0.51 0.06 0
0.52 0.06 0
0.53 0.06 0
0.54 0.06 0
0.55 0.06 0
0.56 0.06 0
0.57 0.06 0
0.58 0.06 0
0.59 0.06 0
0.6 0.06 0
0.61 0.06 0
0 0.07 0
0.01 0.07 0
0.02 0.07 0
0.03 0.07 0
0.04 0.07 0
0.05 0.07 0
0.06 0.07 0
0.07 0.07 0
0.08 0.07 0
0.09 0.07 0
0.1 0.07 0
0.11 0.07 0
0.12 0.07 0
0.13 0.07 0
0.14 0.07 0
0.15 0.07 0
0.16 0.07 0
0.17 0.07 0
0.18 0.07 0
0.19 0.07 0
0.2 0.07 0
0.21 0.07 0
0.22 0.07 0
0.23 0.07 0
0.24 0.07 0
0.25 0.07 0
0.26 0.07 0
0.27 0.07 0
0.28 0.07 0
0.29 0.07 0
0.3 0.07 0
0.31 0.07 0
0.32 0.07 0
0.33 0.07 0
0.34 0.07 0
0.35 0.07 0
0.36 0.07 0
0.37 0.07 0
0.38 0.07 0
0.39 0.07 0
0.4 0.07 0
0.41 0.07 0
0.42 0.07 0
0.43 0.07 0
0.44 0.07 0
0.45 0.07 0
0.46 0.07 0
0.47 0.07 0
0.48 0.07 0
0.49 0.07 0
0.5 0.07 0
0.51 0.07 0
0.52 0.07 0
0.53 0.07 0
0.54 0.07 0
0.55 0.07 0
0.56 0.07 0
0.57 0.07 0
0.58 0.07 0
0.59 0.07 0
0.6 0.07 0
0.61 0.07 0
0 0.08 0
0.01 0.08 0
0.02 0.08 0
0.03 0.08 0
0.04 0.08 0
0.05 0.08 0
0.06 0.08 0
0.07 0.08 0
0.08 0.08 0
0.09 0.08 0
0.1 0.08 0
0.11 0.08 0
0.12 0.08 0
0.13 0.08 0
0.14 0.08 0
0.15 0.08 0
0.16 0.08 0
0.17 0.08 0
0.18 0.08 0
0.19 0.08 0
0.2 0.08 0
0.21 0.08 0
0.22 0.08 0
0.23 0.08 0
0.24 0.08 0
0.25 0.08 0
0.26 0.08 0
0.27 0.08 0
0.28 0.08 0
0.29 0.08 0
0.3 0.08 0
0.31 0.08 0
0.32 0.08 0
0.33 0.08 0
0.34 0.08 0
0.35 0.08 0
0.36 0.08 0
0.37 0.08 0
0.38 0.08 0
0.39 0.08 0
0.4 0.08 0
0.41 0.08 0
0.42 0.08 0
0.43 0.08 0
0.44 0.08 0
0.45 0.08 0
0.46 0.08 0
0.47 0.08 0
0.48 0.08 0
0.49 0.08 0
0.5 0.08 0
0.51 0.08 0
0.52 0.08 0
0.53 0.08 0
0.54 0.08 0
0.55 0.08 0
0.56 0.08 0
0.57 0.08 0
0.58 0.08 0
0.59 0.08 0
0.6 0.08 0
0.61 0.08 0
0 0.09 0
0.01 0.09 0
0.02 0.09 0
0.03 0.09 0
0.04 0.09 0
0.05 0.09 0
0.06 0.09 0
0.07 0.09 0
0.08 0.09 0
0.09 0.09 0
0.1 0.09 0
0.11 0.09 0
0.12 0.09 0
0.13 0.09 0
0.14 0.09 0
0.15 0.09 0
0.16 0.09 0
0.17 0.09 0
0.18 0.09 0
0.19 0.09 0
0.2 0.09 0
0.21 0.09 0
0.22 0.09 0
0.23 0.09 0
0.24 0.09 0
0.25 0.09 0
0.26 0.09 0
0.27 0.09 0
0.28 0.09 0
0.29 0.09 0
0.3 0.09 0
0.31 0.09 0
0.32 0.09 0
0.33 0.09 0
0.34 0.09 0
0.35 0.09 0
0.36 0.09 0
0.37 0.09 0
0.38 0.09 0
0.39 0.09 0
0.4 0.09 0
0.41 0.09 0
0.42 0.09 0
0.43 0.09 0
0.44 0.09 0
0.45 0.09 0
0.46 0.09 0
0.47 0.09 0
0.48 0.09 0
0.49 0.09 0
0.5 0.09 0
0.51 0.09 0
0.52 0.09 0
0.53 0.09 0
0.54 0.09 0
0.55 0.09 0
0.56 0.09 0
0.57 0.09 0
0.58 0.09 0
0.59 0.09 0
0.6 0.09 0
0.61 0.09 0
0 0.1 0
0.01 0.1 0
0.02 0.1 0
0.03 0.1 0
0.04 0.1 0
0.05 0.1 0
0.06 0.1 0
0.07 0.1 0
0.08 0.1 0
0.09 0.1 0
0.1 0.1 0
0.11 0.1 0
0.12 0.1 0
0.13 0.1 0
0.14 0.1 0
0.15 0.1 0
0.16 0.1 0
0.17 0.1 0
0.18 0.1 0
0.19 0.1 0
0.2 0.1 0
0.21 0.1 0
0.22 0.1 0
0.23 0.1 0
0.24 0.1 0
0.25 0.1 0
0.26 0.1 0
0.27 0.1 0
0.28 0.1 0
0.29 0.1 0
0.3 0.1 0
0.31 0.1 0
0.32 0.1 0
0.33 0.1 0
0.34 0.1 0
0.35 0.1 0
0.36 0.1 0
0.37 0.1 0
0.38 0.1 0
0.39 0.1 0
0.4 0.1 0
0.41 0.1 0
0.42 0.1 0
0.43 0.1 0
0.44 0.1 0
0.45 0.1 0
0.46 0.1 0
0.47 0.1 0
0.48 0.1 0
0.49 0.1 0
0.5 0.1 0
0.51 0.1 0
0.52 0.1 0
0.53 0.1 0
0.54 0.1 0
0.55 0.1 0
0.56 0.1 0
0.57 0.1 0
0.58 0.1 0
0.59 0.1 0
0.6 0.1 0
0.61 0.1 0
0 0.11 0
0.01 0.11 0
0.02 0.11 0
0.03 0.11 0
0.04 0.11 0
0.05 0.11 0
0.06 0.11 0
0.07 0.11 0
0.08 0.11 0
0.09 0.11 0
0.1 0.11 0
0.11 0.11 0
0.12 0.11 0
0.13 0.11 0
0.14 0.11 0
0.15 0.11 0
0.16 0.11 0
0.17 0.11 0
0.18 0.11 0
0.19 0.11 0
0.2 0.11 0
0.21 0.11 0
0.22 0.11 0
0.23 0.11 0
0.24 0.11 0
0.25 0.11 0
0.26 0.11 0
0.27 0.11 0
0.28 0.11 0
0.29 0.11 0
0.3 0.11 0
0.31 0.11 0
0.32 0.11 0
0.33 0.11 0
0.34 0.11 0
0.35 0.11 0
0.36 0.11 0
0.37 0.11 0
0.38 0.11 0
0.39 0.11 0
0.4 0.11 0
0.41 0.11 0
0.42 0.11 0
0.43 0.11 0
0.44 0.11 0
0.45 0.11 0
0.46 0.11 0
0.47 0.11 0
0.48 0.11 0
0.49 0.11 0
0.5 0.11 0
0.51 0.11 0
0.52 0.11 0
0.53 0.11 0
0.54 0.11 0
0.55 0.11 0
0.56 0.11 0
0.57 0.11 0
0.58 0.11 0
0.59 0.11 0
0.6 0.11 0
0.61 0.11 0
0 0.12 0
0.01 0.12 0
0.02 0.12 0
0.03 0.12 0
0.04 0.12 0
0.05 0.12 0
0.06 0.12 0
0.07 0.12 0
0.08 0.12 0
0.09 0.12 0
0.1 0.12 0
0.11 0.12 0
0.12 0.12 0
0.13 0.12 0
0.14 0.12 0
0.15 0.12 0
0.16 0.12 0
0.17 0.12 0
0.18 0.12 0
0.19 0.12 0
0.2 0.12 0
0.21 0.12 0
0.22 0.12 0
0.23 0.12 0
0.24 0.12 0
0.25 0.12 0
0.26 0.12 0
0.27 0.12 0
0.28 0.12 0
0.29 0.12 0
0.3 0.12 0
0.31 0.12 0
0.32 0.12 0
0.33 0.12 0
0.34 0.12 0
0.35 0.12 0
0.36 0.12 0
0.37 0.12 0
0.38 0.12 0
0.39 0.12 0
0.4 0.12 0
0.41 0.12 0
0.42 0.12 0
0.43 0.12 0
0.44 0.12 0
0.45 0.12 0
0.46 0.12 0
0.47 0.12 0
0.48 0.12 0
0.49 0.12 0
0.5 0.12 0
0.51 0.12 0
0.52 0.12 0
0.53 0.12 0
0.54 0.12 0
0.55 0.12 0
0.56 0.12 0
0.57 0.12 0
0.58 0.12 0
0.59 0.12 0
0.6 0.12 0
0.61 0.12 0
0 0.13 0
0.01 0.13 0
0.02 0.13 0
0.03 0.13 0
0.04 0.13 0
0.05 0.13 0
0.06 0.13 0
0.07 0.13 0
0.08 0.13 0
0.09 0.13 0
0.1 0.13 0
0.11 0.13 0
0.12 0.13 0
0.13 0.13 0
0.14 0.13 0
0.15 0.13 0
0.16 0.13 0
0.17 0.13 0
0.18 0.13 0
0.19 0.13 0
0.2 0.13 0
0.21 0.13 0
0.22 0.13 0
0.23 0.13 0
0.24 0.13 0
0.25 0.13 0
0.26 0.13 0
0.27 0.13 0
0.28 0.13 0
0.29 0.13 0
0.3 0.13 0
0.31 0.13 0
0.32 0.13 0
0.33 0.13 0
0.34 0.13 0
0.35 0.13 0
0.36 0.13 0
0.37 0.13 0
0.38 0.13 0
0.39 0.13 0
0.4 0.13 0
0.41 0.13 0
0.42 0.13 0
0.43 0.13 0
0.44 0.13 0
0.45 0.13 0
0.46 0.13 0
0.47 0.13 0
0.48 0.13 0
[...]
POINT_DATA 93248

SCALARS v double
LOOKUP_TABLE default
0
0
0
0
0
0
0
0
0
0
0
0
0
0
0
0
0
0
0
0
0
0
0
0
0
0
0
0
0
0
0
0
0
0
0
0
0
0
-0.0436629
0
0
0
0
0
-0.0461672
0
0
0
0
0
0
0
0
0
0
0
0
0
0
0
0
0
0
0.0467395
-0.0546954
0.0509398
0.0377728
0.0221601
0
-0.00558028
-0.0140794
-0.0183555
-0.0200274
-0.0205425
-0.0214261
-0.0211395
-0.0210163
-0.0208681
-0.0209452
-0.0207279
-0.0204757
-0.0194682
-0.0233147
-0.0218967
-0.0208861
-0.0209842
-0.0210615
-0.0211264
-0.0211667
-0.0211859
-0.0211892
-0.021177
-0.0211493
-0.0211549
-0.0215406
-0.021144
-0.0207492
-0.0208449
-0.0303251
-0.0209279
-0.0222621
-0.0162184
-0.0220775
-0.0290205
-0.0228977
-0.0226346
-0.0230723
-0.0265455
-0.052989
-0.0218953
-0.0267043
-0.0209651
-0.0208619
-0.0210047
-0.0220538
-0.0230428
-0.0306737
-0.0223453
-0.038537
-0.0213568
-0.0198212
-0.0176629
-0.013969
0
0
0.0277807
0.053821
0.0620364
0.0573856
0.0424723
0.0274531
0.0101344
-0.00490476
-0.014548
-0.0194767
-0.0215666
-0.0523633
-0.0242802
-0.024464
-0.019314
-0.0248992
-0.0244498
-0.025244
-0.0269558
-0.0582139
-0.024937
-0.0251989
-0.0252328
-0.0254128
-0.0255653
-0.0256638
-0.02572
-0.0257425
-0.0257301
-0.0256652
-0.0255754
-0.0412812
-0.0258146
-0.0248246
-0.0251456
-0.0241714
-0.02177
-0.0182575
-0.0276416
-0.0303168
-0.0304161
-0.0291305
-0.028607
-0.0281422
-0.0282281
-0.0287508
-0.0271324
-0.0267043
-0.0255553
-0.0255097
-0.0255009
-0.0263964
-0.0270706
-0.0278084
-0.0263435
-0.0256873
-0.0437264
-0.023114
-0.0206634
-0.0174062
0
0
0.0146222
0.0371015
0.0486403
0.0531388
0.0495831
0.0355296
0.0193274
0.00423322
-0.00705955
-0.0140722
-0.0181875
-0.0213558
-0.0227332
-0.0236919
-0.0244042
-0.0252396
0
-0.0253819
-0.0264236
-0.0264911
-0.0259717
-0.0259626
-0.026092
-0.0262806
-0.0264489
-0.0265773
-0.026665
-0.0267158
-0.0267332
-0.0267269
-0.0267583
-0.027104
-0.0266805
-0.0268164
-0.02537
-0.0245562
-0.0232763
-0.0226008
-0.0273872
-0.0301773
-0.0309505
-0.0306726
-0.0295911
-0.0294069
-0.0295517
-0.0275659
-0.0271445
-0.0267656
-0.0274146
-0.0271467
-0.0270205
-0.0272104
-0.0273659
-0.0273118
-0.0266762
-0.02609
-0.0256292
-0.0237872
-0.0217979
-0.0195508
0
0
0.00851987
0.0242542
0.0368136
0.0412817
0.04074
0.0333639
0.0216725
0.00906503
-0.00149544
-0.00901304
-0.0140859
-0.017661
-0.0200166
-0.021705
-0.0231861
-0.0238508
-0.0237615
-0.0245654
-0.0252933
-0.0255741
-0.0257028
-0.0258692
-0.0260688
-0.0262735
-0.026459
-0.0266125
-0.0267294
-0.0268086
-0.0268532
-0.0268748
-0.0269094
-0.0270328
-0.0271698
-0.0269002
-0.0260411
-0.025381
-0.0248978
-0.0251377
-0.0272536
-0.0290153
-0.0298294
-0.0299119
-0.0295377
-0.0293302
-0.0289425
-0.0269839
-0.0272321
-0.0272833
-0.0275199
-0.027426
-0.0272947
-0.0271953
-0.0270332
-0.026743
-0.026266
-0.0256977
-0.024982
-0.0237426
-0.0222771
-0.0212433
0
0
0.0053847
0.0156002
0.024226
0.0295067
0.0310862
0.027788
0.019922
0.0100466
0.00106021
-0.00598271
-0.0111529
-0.014953
-0.0177412
-0.0197982
-0.0211238
-0.0226867
-0.023246
-0.0239306
-0.024432
-0.024932
-0.0253451
-0.0256887
-0.0259827
-0.0262397
-0.0264622
-0.0266502
-0.0267994
-0.0269057
-0.026968
-0.0269897
-0.0269864
-0.0270561
-0.0279092
-0.0272728
-0.026634
-0.0262421
-0.0261486
-0.0265271
-0.027515
-0.0284764
-0.0290659
-0.0292746
-0.029248
-0.029203
-0.0289757
0
-0.0275836
-0.0277623
-0.0277452
-0.027638
-0.0274887
-0.027255
-0.0268778
-0.0264592
-0.0260084
-0.0254939
-0.0248636
-0.023989
-0.0226253
-0.022688
-0.0518661
0
0.00354778
0.0101371
0.0160565
0.0205398
0.0227988
0.0216663
0.0161428
0
0.00125684
-0.00487222
-0.00967551
-0.0134137
-0.0163362
-0.0186332
-0.0205659
-0.0225729
-0.0226383
-0.0228814
-0.0237718
-0.0245433
-0.0251751
-0.0256587
-0.02604
-0.0263556
-0.0266238
-0.026853
-0.027039
-0.0271734
-0.0272498
-0.0272606
-0.0271871
-0.0270433
-0.0556297
-0.0277646
-0.0271849
-0.0270354
-0.0271034
-0.0274181
-0.0279426
-0.0284722
-0.0288522
-0.0290376
-0.0290827
-0.0289848
-0.0286127
-0.0274456
-0.0278196
-0.0280002
-0.0280245
-0.0279844
-0.0278851
-0.0275903
-0.0269529
-0.0264155
-0.0260024
-0.0256063
-0.0252932
-0.025574
-0.0262239
-0.0229434
0
0
0.00236041
0.00651482
0.0105103
0.0139286
0.0159624
0.0151505
0.0118501
0.00606911
0.000146759
-0.00508967
-0.00938195
-0.0128741
-0.0157359
-0.0180275
-0.0201591
-0.0232226
-0.022165
-0.0226036
-0.023646
-0.0245759
-0.0253163
-0.0258518
-0.0262724
-0.026632
-0.0269449
-0.0272166
-0.0274447
-0.0276128
-0.0277099
-0.027739
-0.0277757
-0.0279159
-0.0287366
-0.0283249
-0.0280137
-0.0279093
-0.0279728
-0.0281783
-0.0284775
-0.0287825
-0.0290205
-0.0291569
-0.0291584
-0.029061
-0.0288042
-0.0283808
-0.0283606
-0.0284045
-0.0284375
-0.0284892
-0.0285325
-0.028274
-0.0271388
-0.0264934
-0.0261795
-0.025865
-0.0254987
-0.0414346
-0.0212798
-0.0224994
0
0
0.00154476
0.0039738
0.00652683
0.0089342
0.0105074
0.0100224
0.00726065
0.002778
-0.00202989
-0.00635856
-0.0100208
-0.01316
-0.0177412
-0.0176961
-0.018984
-0.018683
-0.0222188
-0.0239172
-0.0246687
-0.0252202
-0.0258611
-0.0262711
-0.026663
-0.0270469
-0.0272166
-0.0277257
-0.027999
-0.0282105
-0.02833
-0.0283351
-0.0284148
-0.0285755
-0.0288691
-0.0288487
-0.0287659
-0.028747
-0.0287916
-0.0289171
-0.0290956
-0.0292775
-0.0294196
-0.029495
-0.029485
-0.0293984
-0.0292347
-0.0290352
-0.0289382
-0.028902
-0.0289179
-0.0290395
-0.0293054
-0.0294053
-0.0272469
-0.0267031
-0.0266453
-0.0265515
-0.0263702
-0.0261915
-0.0244564
-0.0230211
0
0
0.00095907
0.00209856
0.00351036
0.00497874
0.00597956
0.00543967
0.00298053
-0.000754689
-0.00469123
-0.00824418
-0.0113215
-0.0138768
-0.0162118
-0.0180175
-0.019314
-0.0201783
-0.0223274
-0.0239109
-0.0248939
-0.0255682
-0.0312124
-0.0267426
-0.0271314
-0.0275626
-0.028019
-0.0283553
-0.0286937
-0.0289816
-0.0291523
-0.0290701
-0.0290381
-0.0291594
-0.0293698
-0.0294737
-0.0295129
-0.0295612
-0.0295957
-0.029674
-0.0297892
-0.0299006
-0.0299795
-0.030009
-0.02998
-0.0298983
-0.0297746
-0.0296342
-0.0295138
-0.0294146
-0.0293438
-0.0293511
-0.0295531
-0.0298685
-0.0271802
-0.027468
-0.0276083
-0.0275175
-0.0273035
-0.0269123
-0.0258304
-0.0238184
0
0
0.00052232
0.000654037
0.00113803
0.00167667
0.00209651
0.00132297
-0.00100085
-0.00424548
-0.00753025
-0.0104519
-0.0130047
-0.0152439
-0.0172254
-0.0188799
-0.020081
-0.0213251
-0.0228633
-0.0242134
-0.025264
-0.0261213
-0.0267684
-0.0272639
-0.027725
-0.0281656
-0.0285494
-0.0290547
-0.029516
-0.0299465
-0.0303155
-0.0304972
-0.0291462
-0.029595
-0.0299869
-0.0301881
-0.030275
-0.0303251
-0.0304499
-0.0304883
-0.0305675
-0.0306319
-0.0306631
-0.0306546
-0.0305981
-0.0305065
-0.0303893
-0.0302562
-0.0301115
-0.0299412
-0.0297048
-0.0293059
-0.028534
-0.0274461
-0.0306055
-0.0300081
-0.0292639
-0.0287292
-0.0283173
-0.0278183
-0.0268205
-0.0246508
0
0
0.000182125
-0.000504732
-0.000754622
-0.0054316
-0.00127973
-0.00236229
-0.00468168
-0.00760574
-0.0104072
-0.0128327
-0.0149491
-0.0168611
-0.0186063
-0.0201479
-0.0208343
-0.0222491
-0.0236466
-0.0248653
-0.0258595
-0.0266076
-0.0274146
-0.0279645
-0.0284325
-0.0288849
-0.0293479
-0.0298754
-0.0304528
-0.0310586
-0.0316329
-0.031922
0
-0.0305085
-0.0309172
-0.0310424
-0.0311034
-0.0311546
-0.0312299
-0.0313705
-0.0314373
-0.0314609
-0.0314491
-0.03141
-0.0313094
-0.0311938
-0.0310675
-0.0309288
-0.0307685
-0.0305628
-0.0302726
-0.0298723
-0.0293342
-0.0290913
-0.0305798
-0.0306737
-0.0302114
-0.0297094
-0.0292644
-0.0287326
-0.0277228
-0.0254636
0
0
-0.00010218
-0.00151257
-0.00254599
-0.00341045
-0.0042048
-0.00571286
-0.00811281
-0.01083
-0.0132612
-0.0153061
-0.0170513
-0.0186691
-0.0202296
-0.0218438
0
-0.023317
-0.0246899
-0.0257812
-0.0267426
-0.027483
-0.0281418
-0.028678
-0.0291548
-0.0296224
-0.0301251
-0.0307193
-0.0314566
-0.0323166
-0.033134
-0.0327378
-0.0313788
-0.031488
-0.0316731
-0.0317977
-0.0318936
-0.0319955
-0.0321182
-0.0322698
-0.0323588
-0.0323645
-0.0323152
-0.0322889
-0.0320865
-0.0319373
-0.0317987
-0.0316578
-0.0314994
-0.0312942
-0.0310064
-0.0307669
-0.0305223
-0.0304972
-0.0309773
-0.031088
-0.0308637
-0.030515
-0.0301211
-0.0296073
-0.0285817
-0.0262455
0
0
-0.000342394
-0.00238221
-0.00406331
-0.00539479
-0.00683191
-0.00876665
-0.0113067
-0.0138996
-0.0160444
-0.0187816
-0.0192251
-0.0205567
-0.0218348
-0.0229968
-0.0234895
-0.0246538
-0.025765
-0.0267726
-0.0278155
-0.0284872
-0.0290079
-0.0294703
-0.0299128
-0.0303642
-0.0308651
-0.0315038
-0.0324501
-0.0338326
-0.0361281
-0.0342616
-0.0329336
-0.032526
-0.0324838
-0.0325568
-0.0326806
-0.0328472
-0.0330392
-0.0332757
-0.0334068
-0.0333702
-0.0332131
-0.0329341
-0.0328498
-0.0327086
-0.0325677
-0.0324345
-0.0322982
-0.0321168
-0.0317611
-0.031739
-0.0316472
-0.0316058
-0.0316744
-0.0316949
-0.0315564
-0.0313035
-0.0309116
-0.0304535
-0.0294074
-0.0269926
0
0
-0.000549814
-0.00314741
-0.0054316
-0.00745985
-0.00930874
-0.0116144
-0.0143107
-0.0168355
-0.0187816
-0.020243
-0.0214242
-0.0225235
-0.0235734
-0.0245291
-0.0252915
-0.0261573
-0.027011
-0.02783
-0.0292501
-0.0296308
-0.0299583
-0.0303184
-0.0307048
-0.0311003
-0.0315245
-0.0320678
-0.0330452
-0.026968
-0.0446357
-0.035632
-0.0335904
-0.0331571
-0.0331371
-0.0332551
-0.033445
-0.0337155
-0.0340921
-0.0344534
-0.0346838
-0.034546
-0.0342497
-0.0339352
-0.0337028
-0.0335144
-0.0333609
-0.0332397
-0.0331426
-0.0330276
-0.0275199
-0.0327589
-0.0327111
-0.0326035
-0.0324328
-0.0324774
-0.0323665
-0.0321939
-0.0319496
-0.0313365
-0.0302117
-0.0276994
0
0
-0.00073698
-0.00381285
-0.00663685
-0.009161
-0.011577
-0.0142778
-0.0171458
-0.0196385
-0.0214257
-0.02266
-0.0236367
-0.0245452
-0.0254239
-0.0262448
-0.0269815
-0.0276882
-0.0283209
-0.0287713
-0.0544532
-0.0307625
-0.0308913
-0.0312124
-0.0315431
-0.0318543
-0.0321057
-0.0322248
-0.0319082
-0.0296465
-0.0182587
-0.0293639
-0.0322185
-0.033125
-0.0335475
-0.0338563
-0.0341529
-0.0345423
-0.0351142
-0.0358644
-0.0364445
-0.0359598
-0.0353529
-0.0348771
-0.0345469
-0.0343183
-0.0341515
-0.0340395
-0.033948
-0.0338436
-0.0336497
-0.0337735
-0.0337212
-0.0336545
-0.0337305
-0.0334523
-0.0332433
-0.0331239
-0.0327796
-0.0321908
-0.0309881
-0.0283494
0
0
-0.000941946
-0.00437002
-0.00774737
-0.0108093
-0.0137282
-0.0167952
-0.0198296
-0.0223146
-0.0239852
-0.0250509
-0.0258523
-0.0266059
-0.0273521
-0.0280594
-0.0286962
-0.0292855
-0.029847
-0.0304355
-0.0315542
-0.0318044
-0.0320136
-0.0322568
-0.0325053
-0.032713
-0.0328253
-0.0327386
-0.0322273
-0.0308779
-0.0286132
-0.0310353
-0.0326584
-0.0335426
-0.0340892
-0.0344967
-0.0348154
-0.0352703
-0.0360977
-0.0376339
-0.0396485
-0.0376762
-0.0363832
-0.0356921
-0.0353108
-0.035083
-0.034915
-0.0348365
-0.0347668
-0.0347055
-0.0347111
-0.0349411
-0.0347521
-0.0346076
-0.0345441
-0.034384
-0.033966
-0.0341764
-0.0337328
-0.0331434
-0.0318063
-0.0288998
0
0
-0.00123654
0.00209856
-0.00883244
-0.0124541
-0.0158089
-0.019137
-0.0223446
-0.0248699
-0.0264748
-0.0274178
-0.0280547
-0.0286879
-0.0293433
-0.0299597
-0.0304621
-0.0309148
-0.0313738
-0.0318816
-0.0324807
-0.0328489
-0.0331159
-0.0333453
-0.0335413
-0.0336841
-0.0337351
-0.0336325
-0.033291
-0.0328119
-0.0326002
-0.0331898
-0.0338377
-0.0343796
-0.0348364
-0.0352312
-0.0353898
-0.0357366
-0.0365717
-0.0391649
-0.048468
-0.039072
-0.0368147
-0.0361598
-0.0359057
-0.0357792
-0.034915
-0.0356351
-0.0355898
-0.0355416
-0.0356416
-0.0364044
-0.0357716
-0.0355308
-0.0355007
-0.0355741
-0.0360311
-0.0356056
-0.0348989
-0.0344511
-0.0330036
-0.0292355
0
0
-0.00124658
-0.00557958
-0.00991932
-0.0140543
-0.0178521
-0.0213636
-0.0247649
-0.0273777
-0.0289495
-0.0297895
-0.0301895
-0.0307552
-0.0313941
-0.031969
-0.0322682
-0.0325434
-0.0328786
-0.0332941
-0.0337026
-0.0340258
-0.0342791
-0.0344829
-0.0346419
-0.0347492
-0.0347897
-0.0347445
-0.0346084
-0.034371
-0.0350949
-0.0349865
-0.0350938
-0.0353483
-0.0356672
-0.0360197
-0.0358542
-0.0358438
-0.0353881
-0.0329634
-0.0206342
-0.0324655
-0.0352564
-0.0360538
-0.0363058
-0.0363942
-0.0364101
-0.0364387
-0.0364212
-0.0363418
-0.0363571
-0.0577053
-0.0366171
-0.0363985
-0.0364421
-0.0364881
-0.0364916
-0.0362724
-0.0367284
-0.0365277
-0.0360227
-0.0342137
0
0
-0.00135039
-0.00622246
-0.0109536
-0.0158114
-0.0200206
-0.0232353
-0.0269597
-0.0297338
-0.0313398
-0.0321601
-0.0320538
-0.032749
-0.0335067
-0.0341391
-0.0340344
-0.0341201
-0.0343729
-0.0347939
-0.0350956
-0.0353285
-0.0355221
-0.035679
-0.0357993
-0.0358813
-0.0359257
-0.0359407
-0.0359087
-0.0355564
-0.0599241
-0.0364031
-0.0361955
-0.0363174
-0.0364433
-0.0364276
-0.036769
-0.0365255
-0.0357801
-0.034139
-0.031496
-0.0338914
-0.0356414
-0.0364591
-0.0368604
-0.0370736
-0.0371953
-0.0372919
-0.0373458
-0.0373767
-0.037522
-0.0381545
-0.0376633
-0.0375017
-0.0375031
-0.0375136
-0.0374818
-0.0375015
-0.0377975
-0.0377939
-0.0371854
-0.0345354
0
0
-0.0014853
-0.00678722
-0.0118144
-0.0287758
-0.0223799
0
-0.02919
-0.0321637
-0.0337317
-0.0346884
-0.00967551
-0.0347545
-0.0356989
-0.0363908
-0.035565
-0.035686
-0.035942
-0.0365829
-0.0366782
-0.0367556
-0.0368449
-0.0369331
-0.0370019
-0.0370519
-0.0370919
-0.0371784
-0.0377007
-0.0372254
-0.0377849
-0.0375436
-0.037419
-0.0374423
-0.0375157
-0.0375497
-0.0376131
-0.0373926
-0.0368612
-0.0360755
-0.035449
-0.0359919
-0.0367326
-0.0372728
-0.0376184
-0.0378567
-0.0380218
-0.0381921
-0.0383047
-0.0383773
-0.0384701
-0.0386181
-0.0385218
-0.0385423
-0.0385914
-0.0386072
-0.038537
-0.038598
-0.0387668
-0.0387291
-0.0379752
-0.0350826
0
0
-0.00164066
-0.0074045
-0.0130337
-0.0187244
-0.0237123
-0.0276524
-0.0316881
-0.0344747
-0.0358705
-0.0364163
-0.0362595
-0.0367346
-0.0373887
-0.0368598
-0.0378861
-0.0379646
-0.0378537
-0.0517351
-0.0383868
-0.0382464
-0.0382333
-0.0382367
-0.0382372
-0.0382347
-0.0382078
-0.0380888
-0.0373759
-0.0380451
-0.0384359
-0.0384936
-0.0385043
-0.0385695
-0.0386959
-0.0388198
-0.0387252
-0.0384971
-0.0381207
-0.0377246
-0.0375177
-0.0376691
-0.0379862
-0.038294
-0.0384927
-0.0387376
-0.0388957
-0.0391448
-0.0392821
-0.0393548
-0.0393909
-0.0393755
-0.0393427
-0.0395466
-0.0396652
-0.0397212
-0.0395192
-0.0395863
-0.0396953
-0.0395815
-0.0387422
-0.0357374
0
0
-0.00179399
-0.00799403
-0.0140798
-0.0199296
-0.0253195
-0.0301145
-0.0341935
-0.0368714
-0.0379948
-0.0382038
-0.0385283
-0.038527
-0.0377851
-0.062487
-0.0400599
-0.0398978
-0.0398468
-0.040103
-0.0399341
-0.0397771
-0.0396696
-0.0395857
-0.0394892
-0.0394403
-0.0393927
-0.0392927
-0.0391168
-0.0392367
-0.0394079
-0.039486
-0.0395416
-0.0396613
-0.0399366
-0.0404015
-0.0400107
-0.0397511
-0.0393698
-0.0391019
-0.0389918
-0.0390464
-0.0392065
-0.0394137
-0.039682
-0.0397624
-0.0398469
-0.0401447
-0.0402475
-0.0403245
-0.0403565
-0.040248
-0.0401432
-0.0405044
-0.0406264
-0.0407929
-0.0404287
-0.0405813
-0.0406322
-0.0404005
-0.0395353
-0.0364612
0
0
-0.00194313
-0.00856433
-0.0150784
-0.0212901
-0.0270947
-0.0323525
-0.0366103
-0.0393427
-0.0401826
-0.0395227
-0.0408499
-0.0409029
-0.0407245
-0.0415794
-0.0416698
-0.0416008
-0.0414983
-0.0414822
-0.0413618
-0.0412171
-0.0410831
-0.0409411
-0.0406949
-0.0406382
-0.0406148
-0.0405502
-0.040457
-0.0403935
-0.040481
-0.0404987
-0.0405202
-0.0406363
-0.0411135
-0.0431958
-0.041231
-0.0411724
-0.0404906
-0.040264
-0.04021
-0.0402481
-0.0403467
-0.0404845
-0.0406724
-0.0408622
-0.0410719
-0.0409799
-0.0411058
-0.041274
-0.0414033
-0.0412399
-0.0411539
-0.0411491
-0.0412414
-0.0412348
-0.0418483
-0.0418064
-0.0416271
-0.0411085
-0.0403511
-0.0372462
0
0
-0.00209226
-0.00913333
-0.0160847
-0.0227253
-0.0289542
-0.0345619
-0.0389122
-0.0421174
-0.0438143
-0.0457238
-0.0439825
-0.0434362
-0.0432216
-0.0433695
-0.0433714
-0.0432556
-0.0430102
-0.0429402
-0.0427956
-0.0426403
-0.0424992
-0.0423428
-0.0417367
-0.0418199
-0.0418647
-0.0418138
-0.0417194
-0.0415968
-0.0414884
-0.0414509
-0.0413865
-0.0412812
-0.0407992
-0.0380133
-0.0403905
-0.0403111
-0.0410103
-0.0412044
-0.0412789
-0.0413467
-0.0414178
-0.0414904
-0.0416564
-0.041846
-0.0420018
-0.0420139
-0.0421003
-0.0422649
-0.0424875
-0.042121
-0.0415806
-0.0423279
-0.0423526
-0.0424101
-0.0427291
-0.0428103
-0.0425802
-0.0414346
-0.0412217
-0.0380929
0
0
-0.00224406
-0.00970887
-0.0171097
-0.0242079
-0.0308964
-0.0370013
-0.0421121
-0.0447584
-0.0461686
-0.0467629
-0.0462263
-0.0457777
-0.045509
-0.0453622
-0.0451973
-0.0449928
-0.04486
-0.0445146
-0.0442626
-0.0440636
-0.0439242
-0.0438703
-0.0275626
-0.0430811
-0.0431954
-0.0430657
-0.0429134
-0.0403935
-0.0425603
-0.0424738
-0.0422698
-0.0421903
-0.0418501
-0.0412197
-0.0415994
-0.0417647
-0.0420397
-0.0422133
-0.0423266
-0.042412
-0.0424538
-0.0423943
-0.0426
-0.0428112
-0.0429532
-0.0430172
-0.0430704
-0.0431106
-0.0431269
-0.0435877
-0.0220538
-0.0496311
-0.0435509
-0.0435403
-0.0437001
-0.0438465
-0.0437264
-0.0176629
-0.0423167
-0.0389691
0
0
-0.00239845
-0.0102902
-0.0181478
-0.0257083
-0.0328252
-0.0392444
-0.0442804
-0.0470116
-0.0483004
-0.0485942
-0.0483412
-0.0479871
-0.0476563
-0.0473564
-0.0470531
-0.0467324
-0.0463788
-0.0459977
-0.0456868
-0.0454381
-0.0452253
-0.0449604
-0.0444049
-0.0444551
-0.0444647
-0.0442039
-0.0439485
-0.0437131
-0.0436173
-0.0435581
-0.0435947
-0.0433268
-0.0430959
-0.0428954
-0.0429319
-0.0430185
-0.0431501
-0.0432748
-0.0433879
-0.0434915
-0.0435178
-0.0430952
-0.0435347
-0.043813
-0.0439559
-0.0440314
-0.0440833
-0.0441219
-0.0441687
-0.0442963
-0.0438534
-0.0445062
-0.044549
-0.0445726
-0.0446367
-0.0446619
-0.0444398
-0.0434717
-0.0430372
-0.0397317
0
0
-0.00255327
-0.0108727
-0.0191938
-0.027228
-0.0347765
-0.0415304
-0.0467569
-0.0489549
-0.0503963
-0.0506773
-0.0505388
-0.0501717
-0.0497527
-0.0493304
-0.0489206
-0.0485105
-0.0479551
-0.047426
-0.0470578
-0.0467811
-0.046563
-0.0463405
-0.045999
-0.0458407
-0.0458376
-0.0452495
-0.0449336
-0.0447667
-0.0446762
-0.0446101
-0.0445448
-0.0444071
-0.044266
-0.0441624
-0.0441409
-0.0441746
-0.0442467
-0.0443382
-0.0444469
-0.0445871
-0.044702
-0.030009
-0.0445715
-0.0448774
-0.0449878
-0.0450616
-0.0451235
-0.0451784
-0.0452329
-0.0452872
-0.0452484
-0.0454365
-0.045517
-0.0455592
-0.0455909
-0.0455741
-0.0453784
-0.0449733
-0.0440041
-0.0405324
0
0
-0.0027036
-0.0114466
-0.0202404
-0.0287758
-0.0367723
-0.0439064
-0.0496198
-0.0183555
-0.0526951
-0.0530149
-0.0528657
-0.0523633
-0.0517948
-0.0512594
-0.0507731
-0.0504004
-0.0494896
-0.0487202
-0.0483523
-0.0480748
-0.0479131
-0.0476126
-0.0472757
-0.0470682
-0.0472171
-0.046088
-0.0459617
-0.0458985
-0.0458159
-0.0457147
-0.0456052
-0.0454832
-0.0453702
-0.0452884
-0.0452536
-0.0452629
-0.0453074
-0.0453763
-0.0454605
-0.0455426
-0.0455465
-0.0452055
-0.0455606
-0.0458135
-0.0459704
-0.0460835
-0.0461748
-0.0462495
-0.0463102
-0.0463575
-0.0463891
-0.0464606
-0.0465158
-0.0465554
-0.0465847
-0.0465999
-0.0466035
-0.0461704
-0.0450104
-0.041382
0
0
-0.0028402
-0.0119887
-0.0212872
-0.0303729
-0.0387875
-0.0461803
-0.0517071
-0.0541435
-0.0554591
-0.0556808
-0.054996
-0.0543343
-0.0536904
-0.0530834
-0.0524919
-0.0526046
-0.0508361
-0.0498149
-0.049601
-0.0492945
-0.049354
-0.0488769
-0.0483749
-0.0478183
-0.046971
-0.0477626
-0.0475887
-0.0473294
-0.0470853
-0.0468759
-0.0466979
-0.0465475
-0.0464268
-0.0463419
-0.0462996
-0.0462986
-0.0463326
-0.0463931
-0.0464682
-0.0465355
-0.0465526
-0.0464947
-0.0466234
-0.0468017
-0.0469739
-0.0471251
-0.0472489
-0.0473428
-0.0474077
-0.0474487
-0.0474762
-0.0475071
-0.0475382
-0.0475677
-0.0475908
-0.0475997
-0.0475585
-0.0472172
-0.0459943
-0.0422583
0
0
-0.00295124
-0.0124108
-0.0224891
-0.0319987
-0.0408616
-0.0485682
-0.0542426
-0.0572232
-0.0582378
-0.0580809
-0.0573195
-0.0564702
-0.0556603
-0.0549797
-0.0548427
-0.0552698
-0.0517351
-0.0513825
-0.0508228
-0.0503973
-0.0614452
-0.0501086
-0.0494809
-0.0489552
-0.048378
-0.0485185
-0.0485005
-0.0483462
-0.048137
-0.0479225
-0.0477288
-0.0475647
-0.0474327
-0.0473374
-0.0472899
-0.0472883
-0.0473251
-0.0473936
-0.0474849
-0.0475767
-0.0476193
-0.0475809
-0.0476339
-0.0477931
-0.0480011
-0.048202
-0.0483643
-0.0484772
-0.0485411
-0.048565
-0.0485664
-0.0485654
-0.0485746
-0.0485947
-0.0486062
-0.0485953
-0.0485513
-0.0482399
-0.0469723
-0.0431497
0
0
-0.00305001
-0.0121651
-0.0237397
-0.0338898
-0.0431797
-0.0511771
-0.0570073
-0.0601127