# vtk DataFile Version 2.0
FlowField
ASCII
DATASET STRUCTURED_GRID
DIMENSIONS 62 47 32 
POINTS 93248 double
0 0 0
0.01 0 0
0.02 0 0
0.03 0 0
0.04 0 0
0.05 0 0
0.06 0 0
0.07 0 0
0.08 0 0
0.09 0 0
0.1 0 0
0.11 0 0
0.12 0 0
0.13 0 0
0.14 0 0
0.15 0 0
0.16 0 0
0.17 0 0
0.18 0 0
0.19 0 0
0.2 0 0
0.21 0 0
0.22 0 0
0.23 0 0
0.24 0 0
0.25 0 0
0.26 0 0
0.27 0 0
0.28 0 0
0.29 0 0
0.3 0 0
0.31 0 0
0.32 0 0
0.33 0 0
0.34 0 0
0.35 0 0
0.36 0 0
0.37 0 0
0.38 0 0
0.39 0 0
0.4 0 0
0.41 0 0
0.42 0 0
0.43 0 0
0.44 0 0
0.45 0 0
0.46 0 0
0.47 0 0
0.48 0 0
0.49 0 0
0.5 0 0
0.51 0 0
0.52 0 0
0.53 0 0
0.54 0 0
0.55 0 0
0.56 0 0
0.57 0 0
0.58 0 0
0.59 0 0
0.6 0 0
0.61 0 0
0 0.01 0
0.01 0.01 0
0.02 0.01 0
0.03 0.01 0
0.04 0.01 0
0.05 0.01 0
0.06 0.01 0
0.07 0.01 0
0.08 0.01 0
0.09 0.01 0
0.1 0.01 0
0.11 0.01 0
0.12 0.01 0
0.13 0.01 0
0.14 0.01 0
0.15 0.01 0
0.16 0.01 0
0.17 0.01 0
0.18 0.01 0
0.19 0.01 0
0.2 0.01 0
0.21 0.01 0
0.22 0.01 0
0.23 0.01 0
0.24 0.01 0
0.25 0.01 0
0.26 0.01 0
0.27 0.01 0
0.28 0.01 0
0.29 0.01 0
0.3 0.01 0
0.31 0.01 0
0.32 0.01 0
0.33 0.01 0
0.34 0.01 0
0.35 0.01 0
0.36 0.01 0
0.37 0.01 0
0.38 0.01 0
0.39 0.01 0
0.4 0.01 0
0.41 0.01 0
0.42 0.01 0
0.43 0.01 0
0.44 0.01 0
0.45 0.01 0
0.46 0.01 0
0.47 0.01 0
0.48 0.01 0
0.49 0.01 0
0.5 0.01 0
0.51 0.01 0
0.52 0.01 0
0.53 0.01 0
0.54 0.01 0
0.55 0.01 0
0.56 0.01 0
0.57 0.01 0
0.58 0.01 0
0.59 0.01 0
0.6 0.01 0
0.61 0.01 0
0 0.02 0
0.01 0.02 0
0.02 0.02 0
0.03 0.02 0
0.04 0.02 0
0.05 0.02 0
0.06 0.02 0
0.07 0.02 0
0.08 0.02 0
0.09 0.02 0
0.1 0.02 0
0.11 0.02 0
0.12 0.02 0
0.13 0.02 0
0.14 0.02 0
0.15 0.02 0
0.16 0.02 0
0.17 0.02 0
0.18 0.02 0
0.19 0.02 0
0.2 0.02 0
0.21 0.02 0
0.22 0.02 0
0.23 0.02 0
0.24 0.02 0
0.25 0.02 0
0.26 0.02 0
0.27 0.02 0
0.28 0.02 0
0.29 0.02 0
0.3 0.02 0
0.31 0.02 0
0.32 0.02 0
0.33 0.02 0
0.34 0.02 0
0.35 0.02 0
0.36 0.02 0
0.37 0.02 0
0.38 0.02 0
0.39 0.02 0
0.4 0.02 0
0.41 0.02 0
0.42 0.02 0
0.43 0.02 0
0.44 0.02 0
0.45 0.02 0
0.46 0.02 0
0.47 0.02 0
0.48 0.02 0
0.49 0.02 0
0.5 0.02 0
0.51 0.02 0
0.52 0.02 0
0.53 0.02 0
0.54 0.02 0
0.55 0.02 0
0.56 0.02 0
0.57 0.02 0
0.58 0.02 0
0.59 0.02 0
0.6 0.02 0
0.61 0.02 0
0 0.03 0
0.01 0.03 0
0.02 0.03 0
0.03 0.03 0
0.04 0.03 0
0.05 0.03 0
0.06 0.03 0
0.07 0.03 0
0.08 0.03 0
0.09 0.03 0
0.1 0.03 0
0.11 0.03 0
0.12 0.03 0
0.13 0.03 0
0.14 0.03 0
0.15 0.03 0
0.16 0.03 0
0.17 0.03 0
0.18 0.03 0
0.19 0.03 0
0.2 0.03 0
0.21 0.03 0
0.22 0.03 0
0.23 0.03 0
0.24 0.03 0
0.25 0.03 0
0.26 0.03 0
0.27 0.03 0
0.28 0.03 0
0.29 0.03 0
0.3 0.03 0
0.31 0.03 0
0.32 0.03 0
0.33 0.03 0
0.34 0.03 0
0.35 0.03 0
0.36 0.03 0
0.37 0.03 0
0.38 0.03 0
0.39 0.03 0
0.4 0.03 0
0.41 0.03 0
0.42 0.03 0
0.43 0.03 0
0.44 0.03 0
0.45 0.03 0
0.46 0.03 0
0.47 0.03 0
0.48 0.03 0
0.49 0.03 0
0.5 0.03 0
0.51 0.03 0
0.52 0.03 0
0.53 0.03 0
0.54 0.03 0
0.55 0.03 0
0.56 0.03 0
0.57 0.03 0
0.58 0.03 0
0.59 0.03 0
0.6 0.03 0
0.61 0.03 0
0 0.04 0
0.01 0.04 0
0.02 0.04 0
0.03 0.04 0
0.04 0.04 0
0.05 0.04 0
0.06 0.04 0
0.07 0.04 0
0.08 0.04 0
0.09 0.04 0
0.1 0.04 0
0.11 0.04 0
0.12 0.04 0
0.13 0.04 0
0.14 0.04 0
0.15 0.04 0
0.16 0.04 0
0.17 0.04 0
0.18 0.04 0
0.19 0.04 0
0.2 0.04 0
0.21 0.04 0
0.22 0.04 0
0.23 0.04 0
0.24 0.04 0
0.25 0.04 0
0.26 0.04 0
0.27 0.04 0
0.28 0.04 0
0.29 0.04 0
0.3 0.04 0
0.31 0.04 0
0.32 0.04 0
0.33 0.04 0
0.34 0.04 0
0.35 0.04 0
0.36 0.04 0
0.37 0.04 0
0.38 0.04 0
0.39 0.04 0
0.4 0.04 0
0.41 0.04 0
0.42 0.04 0
0.43 0.04 0
0.44 0.04 0
0.45 0.04 0
0.46 0.04 0
0.47 0.04 0
0.48 0.04 0
0.49 0.04 0
0.5 0.04 0
0.51 0.04 0
0.52 0.04 0
0.53 0.04 0
0.54 0.04 0
0.55 0.04 0
0.56 0.04 0
0.57 0.04 0
0.58 0.04 0
0.59 0.04 0
0.6 0.04 0
0.61 0.04 0
0 0.05 0
0.01 0.05 0
0.02 0.05 0
0.03 0.05 0
0.04 0.05 0
0.05 0.05 0
0.06 0.05 0
0.07 0.05 0
0.08 0.05 0
0.09 0.05 0
0.1 0.05 0
0.11 0.05 0
0.12 0.05 0
0.13 0.05 0
0.14 0.05 0
0.15 0.05 0
0.16 0.05 0
0.17 0.05 0
0.18 0.05 0
0.19 0.05 0
0.2 0.05 0
0.21 0.05 0
0.22 0.05 0
0.23 0.05 0
0.24 0.05 0
0.25 0.05 0
0.26 0.05 0
0.27 0.05 0
0.28 0.05 0
0.29 0.05 0
0.3 0.05 0
0.31 0.05 0
0.32 0.05 0
0.33 0.05 0
0.34 0.05 0
0.35 0.05 0
0.36 0.05 0
0.37 0.05 0
0.38 0.05 0
0.39 0.05 0
0.4 0.05 0
0.41 0.05 0
0.42 0.05 0
0.43 0.05 0
0.44 0.05 0
0.45 0.05 0
0.46 0.05 0
0.47 0.05 0
0.48 0.05 0
0.49 0.05 0
0.5 0.05 0
0.51 0.05 0
0.52 0.05 0
0.53 0.05 0
0.54 0.05 0
0.55 0.05 0
0.56 0.05 0
0.57 0.05 0
0.58 0.05 0
0.59 0.05 0
0.6 0.05 0
0.61 0.05 0
0 0.06 0
0.01 0.06 0
0.02 0.06 0
0.03 0.06 0
0.04 0.06 0
0.05 0.06 0
0.06 0.06 0
0.07 0.06 0
0.08 0.06 0
0.09 0.06 0
0.1 0.06 0
0.11 0.06 0
0.12 0.06 0
0.13 0.06 0
0.14 0.06 0
0.15 0.06 0
0.16 0.06 0
0.17 0.06 0
0.18 0.06 0
0.19 0.06 0
0.2 0.06 0
0.21 0.06 0
0.22 0.06 0
0.23 0.06 0
0.24 0.06 0
0.25 0.06 0
0.26 0.06 0
0.27 0.06 0
0.28 0.06 0
0.29 0.06 0
0.3 0.06 0
0.31 0.06 0
0.32 0.06 0
0.33 0.06 0
0.34 0.06 0
0.35 0.06 0
0.36 0.06 0
0.37 0.06 0
0.38 0.06 0
0.39 0.06 0
0.4 0.06 0
0.41 0.06 0
0.42 0.06 0
0.43 0.06 0
0.44 0.06 0
0.45 0.06 0
0.46 0.06 0
0.47 0.06 0
0.48 0.06 0
0.49 0.06 0
0.5 0.06 0
0.51 0.06 0
0.52 0.06 0
0.53 0.06 0
0.54 0.06 0
0.55 0.06 0
0.56 0.06 0
0.57 0.06 0
0.58 0.06 0
0.59 0.06 0
0.6 0.06 0
0.61 0.06 0
0 0.07 0
0.01 0.07 0
0.02 0.07 0
0.03 0.07 0
0.04 0.07 0
0.05 0.07 0
0.06 0.07 0
0.07 0.07 0
0.08 0.07 0
0.09 0.07 0
0.1 0.07 0
0.11 0.07 0
0.12 0.07 0
0.13 0.07 0
0.14 0.07 0
0.15 0.07 0
0.16 0.07 0
0.17 0.07 0
0.18 0.07 0
0.19 0.07 0
0.2 0.07 0
0.21 0.07 0
0.22 0.07 0
0.23 0.07 0
0.24 0.07 0
0.25 0.07 0
0.26 0.07 0
0.27 0.07 0
0.28 0.07 0
0.29 0.07 0
0.3 0.07 0
0.31 0.07 0
0.32 0.07 0
0.33 0.07 0
0.34 0.07 0
0.35 0.07 0
0.36 0.07 0
0.37 0.07 0
0.38 0.07 0
0.39 0.07 0
0.4 0.07 0
0.41 0.07 0
0.42 0.07 0
0.43 0.07 0
0.44 0.07 0
0.45 0.07 0
0.46 0.07 0
0.47 0.07 0
0.48 0.07 0
0.49 0.07 0
0.5 0.07 0
0.51 0.07 0
0.52 0.07 0
0.53 0.07 0
0.54 0.07 0
0.55 0.07 0
0.56 0.07 0
0.57 0.07 0
0.58 0.07 0
0.59 0.07 0
0.6 0.07 0
0.61 0.07 0
0 0.08 0
0.01 0.08 0
0.02 0.08 0
0.03 0.08 0
0.04 0.08 0
0.05 0.08 0
0.06 0.08 0
0.07 0.08 0
0.08 0.08 0
0.09 0.08 0
0.1 0.08 0
0.11 0.08 0
0.12 0.08 0
0.13 0.08 0
0.14 0.08 0
0.15 0.08 0
0.16 0.08 0
0.17 0.08 0
0.18 0.08 0
0.19 0.08 0
0.2 0.08 0
0.21 0.08 0
0.22 0.08 0
0.23 0.08 0
0.24 0.08 0
0.25 0.08 0
0.26 0.08 0
0.27 0.08 0
0.28 0.08 0
0.29 0.08 0
0.3 0.08 0
0.31 0.08 0
0.32 0.08 0
0.33 0.08 0
0.34 0.08 0
0.35 0.08 0
0.36 0.08 0
0.37 0.08 0
0.38 0.08 0
0.39 0.08 0
0.4 0.08 0
0.41 0.08 0
0.42 0.08 0
0.43 0.08 0
0.44 0.08 0
0.45 0.08 0
0.46 0.08 0
0.47 0.08 0
0.48 0.08 0
0.49 0.08 0
0.5 0.08 0
0.51 0.08 0
0.52 0.08 0
0.53 0.08 0
0.54 0.08 0
0.55 0.08 0
0.56 0.08 0
0.57 0.08 0
0.58 0.08 0
0.59 0.08 0
0.6 0.08 0
0.61 0.08 0
0 0.09 0
0.01 0.09 0
0.02 0.09 0
0.03 0.09 0
0.04 0.09 0
0.05 0.09 0
0.06 0.09 0
0.07 0.09 0
0.08 0.09 0
0.09 0.09 0
0.1 0.09 0
0.11 0.09 0
0.12 0.09 0
0.13 0.09 0
0.14 0.09 0
0.15 0.09 0
0.16 0.09 0
0.17 0.09 0
0.18 0.09 0
0.19 0.09 0
0.2 0.09 0
0.21 0.09 0
0.22 0.09 0
0.23 0.09 0
0.24 0.09 0
0.25 0.09 0
0.26 0.09 0
0.27 0.09 0
0.28 0.09 0
0.29 0.09 0
0.3 0.09 0
0.31 0.09 0
0.32 0.09 0
0.33 0.09 0
0.34 0.09 0
0.35 0.09 0
0.36 0.09 0
0.37 0.09 0
0.38 0.09 0
0.39 0.09 0
0.4 0.09 0
0.41 0.09 0
0.42 0.09 0
0.43 0.09 0
0.44 0.09 0
0.45 0.09 0
0.46 0.09 0
0.47 0.09 0
0.48 0.09 0
0.49 0.09 0
0.5 0.09 0
0.51 0.09 0
0.52 0.09 0
0.53 0.09 0
0.54 0.09 0
0.55 0.09 0
0.56 0.09 0
0.57 0.09 0
0.58 0.09 0
0.59 0.09 0
0.6 0.09 0
0.61 0.09 0
0 0.1 0
0.01 0.1 0
0.02 0.1 0
0.03 0.1 0
0.04 0.1 0
0.05 0.1 0
0.06 0.1 0
0.07 0.1 0
0.08 0.1 0
0.09 0.1 0
0.1 0.1 0
0.11 0.1 0
0.12 0.1 0
0.13 0.1 0
0.14 0.1 0
0.15 0.1 0
0.16 0.1 0
0.17 0.1 0
0.18 0.1 0
0.19 0.1 0
0.2 0.1 0
0.21 0.1 0
0.22 0.1 0
0.23 0.1 0
0.24 0.1 0
0.25 0.1 0
0.26 0.1 0
0.27 0.1 0
0.28 0.1 0
0.29 0.1 0
0.3 0.1 0
0.31 0.1 0
0.32 0.1 0
0.33 0.1 0
0.34 0.1 0
0.35 0.1 0
0.36 0.1 0
0.37 0.1 0
0.38 0.1 0
0.39 0.1 0
0.4 0.1 0
0.41 0.1 0
0.42 0.1 0
0.43 0.1 0
0.44 0.1 0
0.45 0.1 0
0.46 0.1 0
0.47 0.1 0
0.48 0.1 0
0.49 0.1 0
0.5 0.1 0
0.51 0.1 0
0.52 0.1 0
0.53 0.1 0
0.54 0.1 0
0.55 0.1 0
0.56 0.1 0
0.57 0.1 0
0.58 0.1 0
0.59 0.1 0
0.6 0.1 0
0.61 0.1 0
0 0.11 0
0.01 0.11 0
0.02 0.11 0
0.03 0.11 0
0.04 0.11 0
0.05 0.11 0
0.06 0.11 0
0.07 0.11 0
0.08 0.11 0
0.09 0.11 0
0.1 0.11 0
0.11 0.11 0
0.12 0.11 0
0.13 0.11 0
0.14 0.11 0
0.15 0.11 0
0.16 0.11 0
0.17 0.11 0
0.18 0.11 0
0.19 0.11 0
0.2 0.11 0
0.21 0.11 0
0.22 0.11 0
0.23 0.11 0
0.24 0.11 0
0.25 0.11 0
0.26 0.11 0
0.27 0.11 0
0.28 0.11 0
0.29 0.11 0
0.3 0.11 0
0.31 0.11 0
0.32 0.11 0
0.33 0.11 0
0.34 0.11 0
0.35 0.11 0
0.36 0.11 0
0.37 0.11 0
0.38 0.11 0
0.39 0.11 0
0.4 0.11 0
0.41 0.11 0
0.42 0.11 0
0.43 0.11 0
0.44 0.11 0
0.45 0.11 0
0.46 0.11 0
0.47 0.11 0
0.48 0.11 0
0.49 0.11 0
0.5 0.11 0
0.51 0.11 0
0.52 0.11 0
0.53 0.11 0
0.54 0.11 0
0.55 0.11 0
0.56 0.11 0
0.57 0.11 0
0.58 0.11 0
0.59 0.11 0
0.6 0.11 0
0.61 0.11 0
0 0.12 0
0.01 0.12 0
0.02 0.12 0
0.03 0.12 0
0.04 0.12 0
0.05 0.12 0
0.06 0.12 0
0.07 0.12 0
0.08 0.12 0
0.09 0.12 0
0.1 0.12 0
0.11 0.12 0
0.12 0.12 0
0.13 0.12 0
0.14 0.12 0
0.15 0.12 0
0.16 0.12 0
0.17 0.12 0
0.18 0.12 0
0.19 0.12 0
0.2 0.12 0
0.21 0.12 0
0.22 0.12 0
0.23 0.12 0
0.24 0.12 0
0.25 0.12 0
0.26 0.12 0
0.27 0.12 0
0.28 0.12 0
0.29 0.12 0
0.3 0.12 0
0.31 0.12 0
0.32 0.12 0
0.33 0.12 0
0.34 0.12 0
0.35 0.12 0
0.36 0.12 0
0.37 0.12 0
0.38 0.12 0
0.39 0.12 0
0.4 0.12 0
0.41 0.12 0
0.42 0.12 0
0.43 0.12 0
0.44 0.12 0
0.45 0.12 0
0.46 0.12 0
0.47 0.12 0
0.48 0.12 0
0.49 0.12 0
0.5 0.12 0
0.51 0.12 0
0.52 0.12 0
0.53 0.12 0
0.54 0.12 0
0.55 0.12 0
0.56 0.12 0
0.57 0.12 0
0.58 0.12 0
0.59 0.12 0
0.6 0.12 0
0.61 0.12 0
0 0.13 0
0.01 0.13 0
0.02 0.13 0
0.03 0.13 0
0.04 0.13 0
0.05 0.13 0
0.06 0.13 0
0.07 0.13 0
0.08 0.13 0
0.09 0.13 0
0.1 0.13 0
0.11 0.13 0
0.12 0.13 0
0.13 0.13 0
0.14 0.13 0
0.15 0.13 0
0.16 0.13 0
0.17 0.13 0
0.18 0.13 0
0.19 0.13 0
0.2 0.13 0
0.21 0.13 0
0.22 0.13 0
0.23 0.13 0
0.24 0.13 0
0.25 0.13 0
0.26 0.13 0
0.27 0.13 0
0.28 0.13 0
0.29 0.13 0
0.3 0.13 0
0.31 0.13 0
0.32 0.13 0
0.33 0.13 0
0.34 0.13 0
0.35 0.13 0
0.36 0.13 0
0.37 0.13 0
0.38 0.13 0
0.39 0.13 0
0.4 0.13 0
0.41 0.13 0
0.42 0.13 0
0.43 0.13 0
0.44 0.13 0
0.45 0.13 0
0.46 0.13 0
0.47 0.13 0
0.48 0.13 0
[...]
POINT_DATA 93248

SCALARS v double
LOOKUP_TABLE default
0
0
0
0
0
0
0
0
0
0
0
0
0
0
0
0
0
0
0
0
0
0
0
0
0
0
0
0
0
0
0
0
0
0
0
0
0
0
-0.0559651
0
0
0
0
0
-0.0591443
0
0
0
0
0
0
0
0
0
0
0
0
0
0
0
0
0
0
0.0457045
-0.0659302
0.049348
0.0360269
0.0205735
0
-0.00279921
-0.0114282
-0.0173223
-0.0209625
-0.0231434
-0.0253821
-0.0249435
-0.0246236
-0.0243463
-0.0243589
-0.0239495
-0.0235321
-0.0222939
-0.0279096
-0.0254057
-0.0231924
-0.0240308
-0.0242194
-0.0243152
-0.0243746
-0.0244031
-0.0244044
-0.0243769
-0.0243207
-0.0243488
-0.0251196
-0.0243794
-0.0237755
-0.0240064
-0.0419541
-0.0235815
-0.0240067
-0.0194344
-0.0258725
-0.0390342
-0.026558
-0.0266196
-0.0279104
-0.0348965
-0.0785429
-0.0254301
-0.0327631
-0.024063
-0.0239326
-0.0238946
-0.0257219
-0.0278511
-0.0412189
-0.0268554
-0.0552356
-0.024771
-0.0224488
-0.0198181
-0.0158066
0
0
0.0268301
0.0520005
0.0598851
0.0557007
0.0409252
0.0315553
0.0184165
0.00457155
-0.00829759
-0.0177886
-0.0241014
-0.0790338
-0.0304067
-0.0306485
-0.0260429
-0.0309784
-0.0302226
-0.0312238
-0.0334625
-0.0888248
-0.0307228
-0.0317745
-0.0309913
-0.0310377
-0.0312035
-0.0313386
-0.0314168
-0.0314402
-0.0314024
-0.0312738
-0.031112
-0.0603138
-0.0314504
-0.0302664
-0.0310486
-0.0302138
-0.0277289
-0.0247866
-0.0321052
-0.0352947
-0.0363284
-0.0354359
-0.0356058
-0.0355879
-0.0364168
-0.0366432
-0.0336662
-0.0327631
-0.0313112
-0.0313487
-0.0319275
-0.0327885
-0.0340571
-0.0356283
-0.0329934
-0.0317784
-0.0636337
-0.0273154
-0.0241577
-0.020607
0
0
0.0137587
0.0354992
0.0458894
0.0523098
0.0526351
0.0411858
0.029038
0.0155266
0.00189345
-0.0103908
-0.0190972
-0.0261241
-0.0290974
-0.0307233
-0.031697
-0.0328585
0
-0.0329797
-0.0342742
-0.0347216
-0.033678
-0.033534
-0.0334378
-0.0335538
-0.0337365
-0.033898
-0.0340102
-0.0340687
-0.034078
-0.0340639
-0.0341699
-0.0349343
-0.0345347
-0.0347
-0.0326458
-0.0318485
-0.0307258
-0.0303698
-0.0342375
-0.0370496
-0.0385217
-0.0390011
-0.0379721
-0.0381461
-0.0385389
-0.0357671
-0.0349268
-0.0343099
-0.0349995
-0.034769
-0.0347746
-0.0350076
-0.0353115
-0.0352925
-0.0342157
-0.0331745
-0.0322836
-0.0291598
-0.0263857
-0.0241385
0
0
0.00777142
0.0232932
0.0362224
0.0400909
0.0409698
0.0364436
0.0287266
0.0185174
0.00712025
-0.00407455
-0.0134589
-0.0206895
-0.025324
-0.028307
-0.0301133
-0.0315838
-0.0316706
-0.0327449
-0.0337421
-0.0338796
-0.0339096
-0.0340472
-0.0342177
-0.0344305
-0.0346464
-0.0348324
-0.0349746
-0.0350678
-0.0351164
-0.0351462
-0.0352355
-0.0355361
-0.0359465
-0.0356176
-0.0344005
-0.0335826
-0.0330961
-0.033302
-0.0353115
-0.0371497
-0.0383597
-0.0388988
-0.0387069
-0.0386569
-0.0381881
-0.0354144
-0.0356989
-0.0357127
-0.0359769
-0.0358903
-0.0357456
-0.0355807
-0.0353229
-0.0348383
-0.0340146
-0.032974
-0.0316277
-0.0294738
-0.0273639
-0.0269856
0
0
0.00457722
0.0145247
0.0226531
0.0270707
0.0288151
0.0275678
0.0233667
0.016373
0.00792121
-0.00125479
-0.0098203
-0.0168627
-0.0220489
-0.0257495
-0.0286709
-0.0306719
-0.0313367
-0.0323122
-0.0328122
-0.0333222
-0.0337952
-0.0342206
-0.0345918
-0.0349176
-0.0351985
-0.0354258
-0.0356071
-0.035735
-0.0358042
-0.0358186
-0.0358053
-0.0359486
-0.0374621
-0.0365677
-0.0356248
-0.0350738
-0.0349383
-0.035332
-0.0363269
-0.0373721
-0.0381669
-0.0386169
-0.0387669
-0.0388356
-0.0385586
0
-0.0365201
-0.0367219
-0.0366806
-0.0365286
-0.0362972
-0.0359228
-0.0353421
-0.0346415
-0.0338255
-0.0328459
-0.0316405
-0.0301082
-0.0279463
-0.0292464
-0.0648663
0
0.00261546
0.00879979
0.0138535
0.0171084
0.0187864
0.0190058
0.0167463
0
0.00588306
-0.0013186
-0.00866137
-0.0151038
-0.0202057
-0.024163
-0.0274621
-0.0304849
-0.030557
-0.0307071
-0.0319725
-0.0330032
-0.033848
-0.0345122
-0.0350367
-0.0354662
-0.0358241
-0.0360949
-0.0363265
-0.0364951
-0.0365811
-0.0365639
-0.036403
-0.0361104
-0.0831787
-0.0373647
-0.0366506
-0.0363876
-0.036442
-0.0367812
-0.0373401
-0.0379296
-0.0384088
-0.0387074
-0.0388563
-0.0387792
-0.0382662
-0.0366529
-0.0370803
-0.0372893
-0.0372886
-0.0371801
-0.0369627
-0.0364935
-0.0356349
-0.0347921
-0.0340069
-0.0332052
-0.0325898
-0.0330962
-0.0345261
-0.029805
0
0
0.00129177
0.00493383
0.00788536
0.00986622
0.0109492
0.0109265
0.0103507
0.00722173
0.00259291
-0.00326726
-0.00944808
-0.0151792
-0.0197615
-0.0234663
-0.0268225
-0.0312293
-0.029755
-0.0304664
-0.0320686
-0.0333602
-0.0344149
-0.0351512
-0.0357219
-0.0362042
-0.0366309
-0.0369263
-0.0372272
-0.0374497
-0.037568
-0.0375773
-0.037569
-0.0377608
-0.039089
-0.0384981
-0.0380369
-0.0378519
-0.0378884
-0.0381017
-0.0384203
-0.0387542
-0.0390342
-0.0392191
-0.0392296
-0.039106
-0.0387395
-0.038139
-0.0380513
-0.038056
-0.0380288
-0.0379762
-0.0378583
-0.0374103
-0.0361493
-0.0352344
-0.0345466
-0.0338204
-0.0330547
-0.0595224
-0.0254373
-0.0293273
0
0
0.000343714
0.0021903
0.00362321
0.00453031
0.00502237
0.00501606
0.00439138
0.00219558
-0.00151708
-0.00633198
-0.0115078
-0.0169356
-0.0220489
-0.023332
-0.0253349
-0.0250344
-0.0302125
-0.0327468
-0.0338415
-0.0346912
-0.0356265
-0.0361555
-0.0366369
-0.0371155
-0.0369263
-0.0380045
-0.0383524
-0.0386226
-0.0387719
-0.0387571
-0.0387725
-0.0389653
-0.0394211
-0.0394136
-0.039303
-0.0392514
-0.0392841
-0.0394055
-0.0395828
-0.0397654
-0.0399101
-0.0399837
-0.0399491
-0.0398122
-0.0395636
-0.0392623
-0.0390775
-0.038959
-0.0388713
-0.038835
-0.0388638
-0.0387244
-0.0367252
-0.0359852
-0.0355662
-0.0351066
-0.0346239
-0.0341929
-0.0313309
-0.030137
0
0
-0.000366371
0.000154153
0.000429594
0.000417185
0.000307212
2.16062e-05
-0.000788595
-0.00271315
-0.00588486
-0.00990257
-0.0140415
-0.0171025
-0.0212292
-0.0240942
-0.0260429
-0.0273293
-0.0304789
-0.0328664
-0.0343946
-0.0354049
-0.0448719
-0.0370988
-0.0376046
-0.0381399
-0.0387437
-0.0391664
-0.0396167
-0.0400012
-0.0402309
-0.0401254
-0.0398893
-0.0400223
-0.0403214
-0.0404917
-0.0405613
-0.0406131
-0.0406565
-0.0407307
-0.0408302
-0.0409217
-0.0409768
-0.0409744
-0.0408977
-0.0407523
-0.04055
-0.040323
-0.0401101
-0.0399083
-0.0397091
-0.0395337
-0.039459
-0.0394464
-0.0372765
-0.037308
-0.0371079
-0.0366913
-0.0361766
-0.0354246
-0.0337002
-0.0313808
0
0
-0.00091985
-0.00141831
-0.00205472
-0.00292347
-0.00362269
-0.00432742
-0.00541518
-0.0073493
-0.0102473
-0.0137523
-0.0172877
-0.0204091
-0.0233927
-0.0258282
-0.0275432
-0.029332
-0.0315648
-0.0335639
-0.0351385
-0.036401
-0.037417
-0.0380967
-0.0386898
-0.0392429
-0.0396819
-0.0404077
-0.0410467
-0.041628
-0.0421018
-0.0422779
-0.0403634
-0.0409221
-0.0414541
-0.0417398
-0.0418782
-0.0419541
-0.0420658
-0.0421125
-0.0421734
-0.0422059
-0.0421968
-0.0421378
-0.0420127
-0.0418436
-0.0416431
-0.0414217
-0.0411804
-0.0409008
-0.0405431
-0.0400351
-0.0392098
-0.0381664
-0.0406159
-0.0400011
-0.0391724
-0.0384473
-0.0377642
-0.0368748
-0.0352769
-0.0327036
0
0
-0.00137089
-0.00268627
-0.00403888
-0.0089132
-0.00697875
-0.00816945
-0.00961423
-0.0116986
-0.0144916
-0.0176786
-0.0207847
-0.023559
-0.0260405
-0.0281943
-0.0291023
-0.0310782
-0.0330616
-0.0348055
-0.0362667
-0.0373913
-0.0385136
-0.0392775
-0.039911
-0.0405046
-0.0411129
-0.0418434
-0.0426474
-0.0434679
-0.0441982
-0.0445387
0
-0.0424786
-0.0429891
-0.0431803
-0.0432803
-0.0433583
-0.0434431
-0.0435673
-0.0436165
-0.0436041
-0.0435437
-0.0434487
-0.0432511
-0.043041
-0.0428228
-0.0425909
-0.0423295
-0.0420063
-0.0415847
-0.0410946
-0.040507
-0.0401935
-0.0412582
-0.0412189
-0.0406658
-0.0399938
-0.0392773
-0.038333
-0.0366948
-0.0340066
0
0
-0.00176098
-0.00378824
-0.00588192
-0.0080508
-0.00993785
-0.0116477
-0.0134921
-0.0157938
-0.0185814
-0.0215813
-0.024349
-0.0267652
-0.0289365
-0.0311327
0
-0.0330891
-0.0349055
-0.0364386
-0.0378165
-0.0388936
-0.0398077
-0.0405388
-0.0411745
-0.0417946
-0.0424748
-0.0433063
-0.0443515
-0.0455176
-0.0465061
-0.0458248
-0.0438846
-0.0440093
-0.0442756
-0.0444735
-0.0446259
-0.0447671
-0.0449139
-0.0450707
-0.0451373
-0.0450919
-0.0449842
-0.0449439
-0.0445698
-0.0443091
-0.0440724
-0.0438368
-0.0435781
-0.0432484
-0.0427968
-0.0424963
-0.0421938
-0.0420626
-0.0423011
-0.0422589
-0.0419041
-0.0413695
-0.0406905
-0.0397455
-0.0380557
-0.0352667
0
0
-0.002105
-0.00474949
-0.00746016
-0.0100726
-0.0125925
-0.0148261
-0.0170918
-0.0196572
-0.022496
-0.0262947
-0.0278849
-0.0299605
-0.0317183
-0.0332197
-0.0337865
-0.0353201
-0.0367928
-0.0381509
-0.0396724
-0.0406178
-0.0413217
-0.0419236
-0.0424929
-0.0430805
-0.0437606
-0.0446691
-0.0460431
-0.0479232
-0.0507723
-0.0480688
-0.0462161
-0.0456793
-0.0456546
-0.0457853
-0.0459692
-0.0461921
-0.0464295
-0.0467091
-0.0468105
-0.0466861
-0.0464038
-0.0459005
-0.0458201
-0.0456025
-0.04537
-0.045148
-0.0449234
-0.0446209
-0.0440203
-0.044029
-0.0438917
-0.0437291
-0.0436145
-0.0434797
-0.043186
-0.0427326
-0.0420266
-0.0411293
-0.0393766
-0.0364752
0
0
-0.00241612
-0.00560964
-0.0089132
-0.0122311
-0.0151084
-0.0178
-0.020479
-0.0233341
-0.0262947
-0.0290843
-0.0313749
-0.0331718
-0.0346138
-0.0358075
-0.0367292
-0.0378137
-0.0388895
-0.0399382
-0.042078
-0.0425585
-0.0429402
-0.0433801
-0.0438467
-0.0443424
-0.0449046
-0.0456797
-0.0471366
-0.0358042
-0.0624659
-0.0500101
-0.0473411
-0.0468185
-0.0468365
-0.0470137
-0.0472775
-0.0476456
-0.0481552
-0.0485872
-0.0487697
-0.0484836
-0.0480264
-0.0475608
-0.0472342
-0.0469499
-0.0467003
-0.0464962
-0.0463315
-0.0461498
-0.0359769
-0.0457169
-0.04559
-0.0453356
-0.0449631
-0.044875
-0.0446004
-0.0442434
-0.0437431
-0.0425884
-0.0406791
-0.0376209
0
0
-0.00270586
-0.00636618
-0.0101867
-0.0139577
-0.0174156
-0.0205912
-0.0236901
-0.0268453
-0.0299423
-0.0326763
-0.0348113
-0.0363936
-0.0376104
-0.0386173
-0.0394942
-0.0403409
-0.041081
-0.0415239
-0.0825768
-0.0443574
-0.044525
-0.0448719
-0.0452577
-0.0456131
-0.0459044
-0.0460217
-0.0454991
-0.0420368
-0.0254483
-0.0413315
-0.0456239
-0.0470254
-0.0476504
-0.0480747
-0.0484853
-0.0490311
-0.0498253
-0.0508026
-0.0513375
-0.0505668
-0.0497264
-0.0490909
-0.0486406
-0.0483011
-0.0480262
-0.0478287
-0.0476611
-0.0474698
-0.0471447
-0.0473733
-0.0472442
-0.047037
-0.0470194
-0.0464985
-0.046081
-0.0458103
-0.0451766
-0.0440501
-0.0419716
-0.0386751
0
0
-0.00301258
-0.00701285
-0.0113704
-0.0156609
-0.0196241
-0.0232357
-0.0267505
-0.0302119
-0.0334626
-0.0361878
-0.0381937
-0.0396112
-0.0406668
-0.0415304
-0.042278
-0.0429695
-0.0436289
-0.0443492
-0.0459491
-0.046183
-0.0463672
-0.0466031
-0.0468433
-0.0470327
-0.0470887
-0.0468473
-0.0459484
-0.0438247
-0.0405459
-0.0440578
-0.0464746
-0.0477982
-0.0485739
-0.0491301
-0.0496015
-0.0502714
-0.0514595
-0.0535414
-0.0557324
-0.0530244
-0.0513289
-0.0504463
-0.0499394
-0.049599
-0.0493105
-0.0491544
-0.0490104
-0.048888
-0.0489037
-0.0493299
-0.0489599
-0.0486204
-0.0484111
-0.0480663
-0.0472953
-0.047569
-0.0468741
-0.045744
-0.0434021
-0.0395703
0
0
-0.00341093
0.000154153
-0.012559
-0.0173641
-0.0217989
-0.0257078
-0.0296706
-0.033448
-0.0368763
-0.0396268
-0.0414942
-0.0427946
-0.0437576
-0.0445228
-0.045116
-0.0456433
-0.0461782
-0.0467891
-0.0475383
-0.0479291
-0.0481785
-0.0483767
-0.0485332
-0.0486168
-0.0485662
-0.0482771
-0.0476103
-0.0468411
-0.0466418
-0.0475115
-0.0484475
-0.0491944
-0.0497897
-0.0502935
-0.0505926
-0.051127
-0.0523353
-0.0558753
-0.0674471
-0.0549896
-0.0521378
-0.0513326
-0.0509997
-0.0507943
-0.0493105
-0.0504826
-0.0503642
-0.0502559
-0.0504353
-0.0517261
-0.0506552
-0.0501611
-0.0500388
-0.0501295
-0.0509288
-0.0499961
-0.048999
-0.0480872
-0.0455654
-0.0401521
0
0
-0.00351827
-0.00840602
-0.0136874
-0.0190588
-0.0240078
-0.0283546
-0.0324871
-0.0365656
-0.0402163
-0.0430344
-0.0446263
-0.0458969
-0.0468772
-0.0476199
-0.0479949
-0.0483124
-0.0486866
-0.0491603
-0.0495907
-0.0498806
-0.0500794
-0.0502237
-0.0503184
-0.0503473
-0.0502816
-0.0500898
-0.0497694
-0.0492891
-0.050494
-0.0503676
-0.0504827
-0.0507927
-0.0511565
-0.051536
-0.0514457
-0.0514058
-0.0507007
-0.0470837
-0.0294184
-0.0460272
-0.0501634
-0.0513867
-0.0517516
-0.0518431
-0.0518152
-0.0518072
-0.0517335
-0.0515803
-0.0515813
-0.0863449
-0.0519879
-0.0516294
-0.0516513
-0.0517384
-0.0518064
-0.0514865
-0.0519105
-0.0515962
-0.0509375
-0.0497017
0
0
-0.00371729
-0.00912213
-0.0147915
-0.0209
-0.0263233
-0.0302932
-0.0351028
-0.039651
-0.0435694
-0.0465528
-0.0473431
-0.0488895
-0.0500648
-0.050892
-0.050846
-0.0509216
-0.0511619
-0.0516485
-0.0518942
-0.0520243
-0.0521091
-0.0521684
-0.0521968
-0.0521866
-0.0521314
-0.0520286
-0.0518147
-0.0511629
-0.0905083
-0.052485
-0.0522954
-0.0524027
-0.0525518
-0.0525368
-0.0527688
-0.0523476
-0.0511877
-0.0487009
-0.0449234
-0.048293
-0.0508821
-0.0521014
-0.0526768
-0.0529662
-0.0531132
-0.053208
-0.053253
-0.0532926
-0.0535524
-0.0545718
-0.0537842
-0.053461
-0.0534286
-0.053464
-0.053469
-0.0535277
-0.0538693
-0.0538424
-0.0529534
-0.0502797
0
0
-0.00394849
-0.00977318
-0.0157074
-0.034845
-0.0288635
0
-0.0378607
-0.0428028
-0.0469734
-0.0503908
-0.00866137
-0.0520407
-0.0533388
-0.054295
-0.053512
-0.0535092
-0.0536609
-0.054488
-0.0544176
-0.0543114
-0.054251
-0.0542041
-0.0541517
-0.0540921
-0.0540399
-0.0540933
-0.0545233
-0.0538684
-0.054812
-0.0544501
-0.054253
-0.0542488
-0.0543115
-0.0543002
-0.0542027
-0.0537442
-0.0528733
-0.05168
-0.0508385
-0.0515942
-0.0526515
-0.0534179
-0.0539037
-0.0542566
-0.0544916
-0.054678
-0.0548155
-0.0549375
-0.0551183
-0.0553756
-0.0552155
-0.0551648
-0.0552081
-0.0552601
-0.0552356
-0.0553627
-0.0555718
-0.0554522
-0.054272
-0.0511783
0
0
-0.00420054
-0.0104822
-0.0170223
-0.0239674
-0.0302124
-0.0351472
-0.0407186
-0.045793
-0.0499622
-0.0529235
-0.0538491
-0.055112
-0.0559404
-0.0561934
-0.0568918
-0.0567181
-0.0563612
-0.0787899
-0.0569504
-0.0566374
-0.0564555
-0.0563105
-0.0561546
-0.0560149
-0.0558635
-0.055578
-0.0545617
-0.0554836
-0.0559632
-0.0560205
-0.0560107
-0.0560825
-0.0562454
-0.0563402
-0.0560231
-0.0555315
-0.0548982
-0.0542981
-0.0540291
-0.0542347
-0.0546568
-0.0550608
-0.0553027
-0.0557186
-0.0559778
-0.0562132
-0.0563899
-0.0565252
-0.056624
-0.0566452
-0.0566026
-0.0567695
-0.0569275
-0.0570503
-0.0569048
-0.0570328
-0.0571318
-0.056843
-0.0554981
-0.0522411
0
0
-0.00444909
-0.0111623
-0.0181548
-0.0252452
-0.0319208
-0.0379371
-0.0436914
-0.0488793
-0.0530279
-0.0558877
-0.0575027
-0.0581298
-0.0575135
-0.102807
-0.0599117
-0.0595844
-0.0593701
-0.0597233
-0.0593698
-0.0590308
-0.0587491
-0.058483
-0.0581759
-0.0579611
-0.0577822
-0.057557
-0.0572721
-0.0573925
-0.0575594
-0.0576206
-0.0576756
-0.0578586
-0.0583138
-0.0589377
-0.0580976
-0.0575007
-0.0568985
-0.056503
-0.0563507
-0.0564133
-0.0566107
-0.0568865
-0.0573344
-0.0574094
-0.057588
-0.0578031
-0.0579699
-0.0581116
-0.0581862
-0.0580776
-0.0579507
-0.0582992
-0.0585221
-0.0587777
-0.0584937
-0.0586836
-0.0586413
-0.0581076
-0.0567337
-0.053412
0
0
-0.00469121
-0.0118203
-0.0192371
-0.0266972
-0.0338451
-0.0404765
-0.0466008
-0.0520491
-0.0562997
-0.0589296
-0.0610555
-0.0617328
-0.0617221
-0.0628117
-0.0626081
-0.0622921
-0.0619839
-0.0618953
-0.0616325
-0.0613195
-0.0610081
-0.0606677
-0.0601081
-0.0598839
-0.0597477
-0.0595881
-0.0594147
-0.0592727
-0.0592812
-0.0592378
-0.0592297
-0.0594168
-0.0602691
-0.06361
-0.0600572
-0.0595406
-0.0586616
-0.0583856
-0.058299
-0.0583315
-0.0584353
-0.0585915
-0.0588394
-0.059057
-0.0592745
-0.059385
-0.0595385
-0.0597205
-0.0598488
-0.0595968
-0.0592734
-0.0596585
-0.0598601
-0.0599017
-0.0606076
-0.0605613
-0.0601751
-0.0591192
-0.057987
-0.0546775
0
0
-0.00493121
-0.0124762
-0.0203298
-0.0282389
-0.0358773
-0.0430166
-0.0495048
-0.0553698
-0.0601589
-0.0640087
-0.06503
-0.0653211
-0.0653295
-0.0654429
-0.0652614
-0.0649075
-0.064272
-0.064235
-0.0639336
-0.063595
-0.0632757
-0.0629299
-0.0617812
-0.0617749
-0.0617599
-0.0616199
-0.0614307
-0.0611458
-0.0609423
-0.0607835
-0.0605768
-0.0603138
-0.0593121
-0.053959
-0.0584522
-0.0587708
-0.0597366
-0.0599484
-0.0600321
-0.0600989
-0.060155
-0.0601903
-0.0603974
-0.0606531
-0.0608742
-0.0610113
-0.0611572
-0.0613542
-0.0615886
-0.0611209
-0.0599732
-0.0615038
-0.0616763
-0.0617754
-0.0621488
-0.0622331
-0.0617039
-0.0595224
-0.0593416
-0.0560294
0
0
-0.00517175
-0.0131388
-0.0214459
-0.0298379
-0.0379877
-0.0456511
-0.0527352
-0.058648
-0.0635086
-0.0669063
-0.0683951
-0.0687938
-0.0686981
-0.0684709
-0.0681467
-0.0677979
-0.067768
-0.0668904
-0.0663234
-0.0658773
-0.0655515
-0.0653966
-0.0381399
-0.0638787
-0.0638727
-0.0636417
-0.0633679
-0.0592727
-0.0626719
-0.0624024
-0.0619127
-0.0616956
-0.0609554
-0.0597264
-0.0604744
-0.0608892
-0.0613166
-0.0615615
-0.0617137
-0.0618183
-0.06183
-0.0616288
-0.0619159
-0.0622439
-0.0624822
-0.0626345
-0.0627513
-0.0628511
-0.0629423
-0.0633969
-0.0257219
-0.0731639
-0.0635371
-0.0635543
-0.0637609
-0.0639478
-0.0636337
-0.0198181
-0.0611431
-0.0574092
0
0
-0.00541197
-0.0138062
-0.02258
-0.0314736
-0.0401399
-0.0482924
-0.055684
-0.0615867
-0.0665967
-0.0700144
-0.0717078
-0.0721661
-0.0719934
-0.0715824
-0.0710968
-0.0705846
-0.0700121
-0.0692589
-0.0686015
-0.0680587
-0.0676001
-0.0670693
-0.0660741
-0.0659864
-0.0658719
-0.0654654
-0.0650589
-0.0646355
-0.0643943
-0.0641967
-0.0642267
-0.0635757
-0.0630532
-0.0626551
-0.0627157
-0.0628818
-0.0630832
-0.0632623
-0.0634241
-0.0635696
-0.063564
-0.062768
-0.063433
-0.063891
-0.0641353
-0.0642789
-0.0643804
-0.0644604
-0.0645264
-0.0645448
-0.0637092
-0.0649024
-0.0650884
-0.0651629
-0.0652485
-0.0652295
-0.0647145
-0.0629239
-0.0622215
-0.0586567
0
0
-0.00564714
-0.0144677
-0.0237212
-0.0331409
-0.0423444
-0.051024
-0.0589161
-0.0641016
-0.0696303
-0.073318
-0.0751383
-0.0755796
-0.0752797
-0.0747031
-0.0740639
-0.0734214
-0.0725064
-0.0715483
-0.0707804
-0.070171
-0.0696992
-0.0692505
-0.0685613
-0.0681861
-0.0679827
-0.0671855
-0.0667013
-0.0663708
-0.0661267
-0.0659076
-0.0656971
-0.0653433
-0.0650121
-0.0647864
-0.0647208
-0.0647577
-0.0648523
-0.064978
-0.0651348
-0.0653428
-0.0655161
-0.0409744
-0.0651939
-0.0656198
-0.0658101
-0.0659334
-0.0660342
-0.066117
-0.0661761
-0.066183
-0.0660821
-0.0664251
-0.0666135
-0.0667107
-0.0667523
-0.0666713
-0.0662294
-0.0654218
-0.0637766
-0.0599525
0
0
-0.00586641
-0.0150992
-0.0248534
-0.034845
-0.0446055
-0.05387
-0.0626946
-0.0173223
-0.0731511
-0.0769624
-0.0787884
-0.0790338
-0.0785414
-0.0777733
-0.0769986
-0.0764224
-0.0749903
-0.0736777
-0.0728462
-0.0722057
-0.0718223
-0.0712603
-0.070633
-0.0701497
-0.0700141
-0.0686932
-0.0683722
-0.0681634
-0.0679268
-0.0676686
-0.0673942
-0.0671002
-0.0668358
-0.0666442
-0.0665442
-0.0665256
-0.0665682
-0.0666541
-0.066768
-0.0668763
-0.0668407
-0.0662381
-0.0667558
-0.0671374
-0.0673818
-0.067558
-0.067696
-0.0678031
-0.0678789
-0.0679247
-0.0679671
-0.0680955
-0.068212
-0.0682942
-0.0683384
-0.0683348
-0.0682952
-0.0673973
-0.0653928
-0.0613209
0
0
-0.00604805
-0.0156434
-0.0259718
-0.0366114
-0.0468847
-0.0564874
-0.0650674
-0.0711757
-0.0770304
-0.0808096
-0.0822545
-0.0823354
-0.0816743
-0.0807352
-0.079645
-0.0797852
-0.0771934
-0.075565
-0.0748672
-0.0741813
-0.0741169
-0.0733159
-0.0724801
-0.0716171
-0.0704341
-0.0709793
-0.0706404
-0.0702146
-0.0698266
-0.069468
-0.0691335
-0.0688259
-0.0685627
-0.0683638
-0.0682438
-0.068201
-0.0682222
-0.0682911
-0.068387
-0.0684703
-0.0684663
-0.0683356
-0.0684899
-0.0687307
-0.0689779
-0.0692006
-0.0693845
-0.0695222
-0.0696143
-0.0696726
-0.0697214
-0.0697842
-0.0698537
-0.0699168
-0.0699528
-0.0699397
-0.0697979
-0.069081
-0.0669562
-0.0627346
0
0
-0.00615987
-0.0159319
-0.027257
-0.038453
-0.0492655
-0.0592999
-0.0682069
-0.0754797
-0.0811543
-0.0846412
-0.0859413
-0.0857746
-0.0848851
-0.0838671
-0.0836819
-0.0835821
-0.0787899
-0.0779412
-0.0770373
-0.0761631
-0.0931916
-0.075281
-0.07435
-0.0734582
-0.0724992
-0.0723672
-0.0721522
-0.0718423
-0.0714906
-0.071133
-0.0707885
-0.0704715
-0.0701947
-0.0699738
-0.0698391
-0.0697915
-0.069815
-0.0698941
-0.0700137
-0.0701393
-0.0701924
-0.0701166
-0.0701474
-0.070331
-0.0706042
-0.0708847
-0.0711216
-0.0712901
-0.071387
-0.0714326
-0.0714534
-0.0714751
-0.0715152
-0.0715678
-0.0715824
-0.071529
-0.0713719
-0.0707061
-0.068505
-0.0641746
0
0
-0.00629691
-0.0151876
-0.0286286
-0.0406683
-0.0519918
-0.0624606
-0.0717671