# vtk DataFile Version 2.0
FlowField
ASCII
DATASET STRUCTURED_GRID
DIMENSIONS 62 47 32 
POINTS 93248 double
0 0 0
0.01 0 0
0.02 0 0
0.03 0 0
0.04 0 0
0.05 0 0
0.06 0 0
0.07 0 0
0.08 0 0
0.09 0 0
0.1 0 0
0.11 0 0
0.12 0 0
0.13 0 0
0.14 0 0
0.15 0 0
0.16 0 0
0.17 0 0
0.18 0 0
0.19 0 0
0.2 0 0
0.21 0 0
0.22 0 0
0.23 0 0
0.24 0 0
0.25 0 0
0.26 0 0
0.27 0 0
0.28 0 0
0.29 0 0
0.3 0 0
0.31 0 0
0.32 0 0
0.33 0 0
0.34 0 0
0.35 0 0
0.36 0 0
0.37 0 0
0.38 0 0
0.39 0 0
0.4 0 0
0.41 0 0
0.42 0 0
0.43 0 0
0.44 0 0
0.45 0 0
0.46 0 0
0.47 0 0
0.48 0 0
0.49 0 0
0.5 0 0
0.51 0 0
0.52 0 0
0.53 0 0
0.54 0 0
0.55 0 0
0.56 0 0
0.57 0 0
0.58 0 0
0.59 0 0
0.6 0 0
0.61 0 0
0 0.01 0
0.01 0.01 0
0.02 0.01 0
0.03 0.01 0
0.04 0.01 0
0.05 0.01 0
0.06 0.01 0
0.07 0.01 0
0.08 0.01 0
0.09 0.01 0
0.1 0.01 0
0.11 0.01 0
0.12 0.01 0
0.13 0.01 0
0.14 0.01 0
0.15 0.01 0
0.16 0.01 0
0.17 0.01 0
0.18 0.01 0
0.19 0.01 0
0.2 0.01 0
0.21 0.01 0
0.22 0.01 0
0.23 0.01 0
0.24 0.01 0
0.25 0.01 0
0.26 0.01 0
0.27 0.01 0
0.28 0.01 0
0.29 0.01 0
0.3 0.01 0
0.31 0.01 0
0.32 0.01 0
0.33 0.01 0
0.34 0.01 0
0.35 0.01 0
0.36 0.01 0
0.37 0.01 0
0.38 0.01 0
0.39 0.01 0
0.4 0.01 0
0.41 0.01 0
0.42 0.01 0
0.43 0.01 0
0.44 0.01 0
0.45 0.01 0
0.46 0.01 0
0.47 0.01 0
0.48 0.01 0
0.49 0.01 0
0.5 0.01 0
0.51 0.01 0
0.52 0.01 0
0.53 0.01 0
0.54 0.01 0
0.55 0.01 0
0.56 0.01 0
0.57 0.01 0
0.58 0.01 0
0.59 0.01 0
0.6 0.01 0
0.61 0.01 0
0 0.02 0
0.01 0.02 0
0.02 0.02 0
0.03 0.02 0
0.04 0.02 0
0.05 0.02 0
0.06 0.02 0
0.07 0.02 0
0.08 0.02 0
0.09 0.02 0
0.1 0.02 0
0.11 0.02 0
0.12 0.02 0
0.13 0.02 0
0.14 0.02 0
0.15 0.02 0
0.16 0.02 0
0.17 0.02 0
0.18 0.02 0
0.19 0.02 0
0.2 0.02 0
0.21 0.02 0
0.22 0.02 0
0.23 0.02 0
0.24 0.02 0
0.25 0.02 0
0.26 0.02 0
0.27 0.02 0
0.28 0.02 0
0.29 0.02 0
0.3 0.02 0
0.31 0.02 0
0.32 0.02 0
0.33 0.02 0
0.34 0.02 0
0.35 0.02 0
0.36 0.02 0
0.37 0.02 0
0.38 0.02 0
0.39 0.02 0
0.4 0.02 0
0.41 0.02 0
0.42 0.02 0
0.43 0.02 0
0.44 0.02 0
0.45 0.02 0
0.46 0.02 0
0.47 0.02 0
0.48 0.02 0
0.49 0.02 0
0.5 0.02 0
0.51 0.02 0
0.52 0.02 0
0.53 0.02 0
0.54 0.02 0
0.55 0.02 0
0.56 0.02 0
0.57 0.02 0
0.58 0.02 0
0.59 0.02 0
0.6 0.02 0
0.61 0.02 0
0 0.03 0
0.01 0.03 0
0.02 0.03 0
0.03 0.03 0
0.04 0.03 0
0.05 0.03 0
0.06 0.03 0
0.07 0.03 0
0.08 0.03 0
0.09 0.03 0
0.1 0.03 0
0.11 0.03 0
0.12 0.03 0
0.13 0.03 0
0.14 0.03 0
0.15 0.03 0
0.16 0.03 0
0.17 0.03 0
0.18 0.03 0
0.19 0.03 0
0.2 0.03 0
0.21 0.03 0
0.22 0.03 0
0.23 0.03 0
0.24 0.03 0
0.25 0.03 0
0.26 0.03 0
0.27 0.03 0
0.28 0.03 0
0.29 0.03 0
0.3 0.03 0
0.31 0.03 0
0.32 0.03 0
0.33 0.03 0
0.34 0.03 0
0.35 0.03 0
0.36 0.03 0
0.37 0.03 0
0.38 0.03 0
0.39 0.03 0
0.4 0.03 0
0.41 0.03 0
0.42 0.03 0
0.43 0.03 0
0.44 0.03 0
0.45 0.03 0
0.46 0.03 0
0.47 0.03 0
0.48 0.03 0
0.49 0.03 0
0.5 0.03 0
0.51 0.03 0
0.52 0.03 0
0.53 0.03 0
0.54 0.03 0
0.55 0.03 0
0.56 0.03 0
0.57 0.03 0
0.58 0.03 0
0.59 0.03 0
0.6 0.03 0
0.61 0.03 0
0 0.04 0
0.01 0.04 0
0.02 0.04 0
0.03 0.04 0
0.04 0.04 0
0.05 0.04 0
0.06 0.04 0
0.07 0.04 0
0.08 0.04 0
0.09 0.04 0
0.1 0.04 0
0.11 0.04 0
0.12 0.04 0
0.13 0.04 0
0.14 0.04 0
0.15 0.04 0
0.16 0.04 0
0.17 0.04 0
0.18 0.04 0
0.19 0.04 0
0.2 0.04 0
0.21 0.04 0
0.22 0.04 0
0.23 0.04 0
0.24 0.04 0
0.25 0.04 0
0.26 0.04 0
0.27 0.04 0
0.28 0.04 0
0.29 0.04 0
0.3 0.04 0
0.31 0.04 0
0.32 0.04 0
0.33 0.04 0
0.34 0.04 0
0.35 0.04 0
0.36 0.04 0
0.37 0.04 0
0.38 0.04 0
0.39 0.04 0
0.4 0.04 0
0.41 0.04 0
0.42 0.04 0
0.43 0.04 0
0.44 0.04 0
0.45 0.04 0
0.46 0.04 0
0.47 0.04 0
0.48 0.04 0
0.49 0.04 0
0.5 0.04 0
0.51 0.04 0
0.52 0.04 0
0.53 0.04 0
0.54 0.04 0
0.55 0.04 0
0.56 0.04 0
0.57 0.04 0
0.58 0.04 0
0.59 0.04 0
0.6 0.04 0
0.61 0.04 0
0 0.05 0
0.01 0.05 0
0.02 0.05 0
0.03 0.05 0
0.04 0.05 0
0.05 0.05 0
0.06 0.05 0
0.07 0.05 0
0.08 0.05 0
0.09 0.05 0
0.1 0.05 0
0.11 0.05 0
0.12 0.05 0
0.13 0.05 0
0.14 0.05 0
0.15 0.05 0
0.16 0.05 0
0.17 0.05 0
0.18 0.05 0
0.19 0.05 0
0.2 0.05 0
0.21 0.05 0
0.22 0.05 0
0.23 0.05 0
0.24 0.05 0
0.25 0.05 0
0.26 0.05 0
0.27 0.05 0
0.28 0.05 0
0.29 0.05 0
0.3 0.05 0
0.31 0.05 0
0.32 0.05 0
0.33 0.05 0
0.34 0.05 0
0.35 0.05 0
0.36 0.05 0
0.37 0.05 0
0.38 0.05 0
0.39 0.05 0
0.4 0.05 0
0.41 0.05 0
0.42 0.05 0
0.43 0.05 0
0.44 0.05 0
0.45 0.05 0
0.46 0.05 0
0.47 0.05 0
0.48 0.05 0
0.49 0.05 0
0.5 0.05 0
0.51 0.05 0
0.52 0.05 0
0.53 0.05 0
0.54 0.05 0
0.55 0.05 0
0.56 0.05 0
0.57 0.05 0
0.58 0.05 0
0.59 0.05 0
0.6 0.05 0
0.61 0.05 0
0 0.06 0
0.01 0.06 0
0.02 0.06 0
0.03 0.06 0
0.04 0.06 0
0.05 0.06 0
0.06 0.06 0
0.07 0.06 0
0.08 0.06 0
0.09 0.06 0
0.1 0.06 0
0.11 0.06 0
0.12 0.06 0
0.13 0.06 0
0.14 0.06 0
0.15 0.06 0
0.16 0.06 0
0.17 0.06 0
0.18 0.06 0
0.19 0.06 0
0.2 0.06 0
0.21 0.06 0
0.22 0.06 0
0.23 0.06 0
0.24 0.06 0
0.25 0.06 0
0.26 0.06 0
0.27 0.06 0
0.28 0.06 0
0.29 0.06 0
0.3 0.06 0
0.31 0.06 0
0.32 0.06 0
0.33 0.06 0
0.34 0.06 0
0.35 0.06 0
0.36 0.06 0
0.37 0.06 0
0.38 0.06 0
0.39 0.06 0
0.4 0.06 0
0.41 0.06 0
0.42 0.06 0
0.43 0.06 0
0.44 0.06 0
0.45 0.06 0
0.46 0.06 0
0.47 0.06 0
0.48 0.06 0
0.49 0.06 0
0.5 0.06 0
0.51 0.06 0
0.52 0.06 0
0.53 0.06 0
0.54 0.06 0
0.55 0.06 0
0.56 0.06 0
0.57 0.06 0
0.58 0.06 0
0.59 0.06 0
0.6 0.06 0
0.61 0.06 0
0 0.07 0
0.01 0.07 0
0.02 0.07 0
0.03 0.07 0
0.04 0.07 0
0.05 0.07 0
0.06 0.07 0
0.07 0.07 0
0.08 0.07 0
0.09 0.07 0
0.1 0.07 0
0.11 0.07 0
0.12 0.07 0
0.13 0.07 0
0.14 0.07 0
0.15 0.07 0
0.16 0.07 0
0.17 0.07 0
0.18 0.07 0
0.19 0.07 0
0.2 0.07 0
0.21 0.07 0
0.22 0.07 0
0.23 0.07 0
0.24 0.07 0
0.25 0.07 0
0.26 0.07 0
0.27 0.07 0
0.28 0.07 0
0.29 0.07 0
0.3 0.07 0
0.31 0.07 0
0.32 0.07 0
0.33 0.07 0
0.34 0.07 0
0.35 0.07 0
0.36 0.07 0
0.37 0.07 0
0.38 0.07 0
0.39 0.07 0
0.4 0.07 0
0.41 0.07 0
0.42 0.07 0
0.43 0.07 0
0.44 0.07 0
0.45 0.07 0
0.46 0.07 0
0.47 0.07 0
0.48 0.07 0
0.49 0.07 0
0.5 0.07 0
0.51 0.07 0
0.52 0.07 0
0.53 0.07 0
0.54 0.07 0
0.55 0.07 0
0.56 0.07 0
0.57 0.07 0
0.58 0.07 0
0.59 0.07 0
0.6 0.07 0
0.61 0.07 0
0 0.08 0
0.01 0.08 0
0.02 0.08 0
0.03 0.08 0
0.04 0.08 0
0.05 0.08 0
0.06 0.08 0
0.07 0.08 0
0.08 0.08 0
0.09 0.08 0
0.1 0.08 0
0.11 0.08 0
0.12 0.08 0
0.13 0.08 0
0.14 0.08 0
0.15 0.08 0
0.16 0.08 0
0.17 0.08 0
0.18 0.08 0
0.19 0.08 0
0.2 0.08 0
0.21 0.08 0
0.22 0.08 0
0.23 0.08 0
0.24 0.08 0
0.25 0.08 0
0.26 0.08 0
0.27 0.08 0
0.28 0.08 0
0.29 0.08 0
0.3 0.08 0
0.31 0.08 0
0.32 0.08 0
0.33 0.08 0
0.34 0.08 0
0.35 0.08 0
0.36 0.08 0
0.37 0.08 0
0.38 0.08 0
0.39 0.08 0
0.4 0.08 0
0.41 0.08 0
0.42 0.08 0
0.43 0.08 0
0.44 0.08 0
0.45 0.08 0
0.46 0.08 0
0.47 0.08 0
0.48 0.08 0
0.49 0.08 0
0.5 0.08 0
0.51 0.08 0
0.52 0.08 0
0.53 0.08 0
0.54 0.08 0
0.55 0.08 0
0.56 0.08 0
0.57 0.08 0
0.58 0.08 0
0.59 0.08 0
0.6 0.08 0
0.61 0.08 0
0 0.09 0
0.01 0.09 0
0.02 0.09 0
0.03 0.09 0
0.04 0.09 0
0.05 0.09 0
0.06 0.09 0
0.07 0.09 0
0.08 0.09 0
0.09 0.09 0
0.1 0.09 0
0.11 0.09 0
0.12 0.09 0
0.13 0.09 0
0.14 0.09 0
0.15 0.09 0
0.16 0.09 0
0.17 0.09 0
0.18 0.09 0
0.19 0.09 0
0.2 0.09 0
0.21 0.09 0
0.22 0.09 0
0.23 0.09 0
0.24 0.09 0
0.25 0.09 0
0.26 0.09 0
0.27 0.09 0
0.28 0.09 0
0.29 0.09 0
0.3 0.09 0
0.31 0.09 0
0.32 0.09 0
0.33 0.09 0
0.34 0.09 0
0.35 0.09 0
0.36 0.09 0
0.37 0.09 0
0.38 0.09 0
0.39 0.09 0
0.4 0.09 0
0.41 0.09 0
0.42 0.09 0
0.43 0.09 0
0.44 0.09 0
0.45 0.09 0
0.46 0.09 0
0.47 0.09 0
0.48 0.09 0
0.49 0.09 0
0.5 0.09 0
0.51 0.09 0
0.52 0.09 0
0.53 0.09 0
0.54 0.09 0
0.55 0.09 0
0.56 0.09 0
0.57 0.09 0
0.58 0.09 0
0.59 0.09 0
0.6 0.09 0
0.61 0.09 0
0 0.1 0
0.01 0.1 0
0.02 0.1 0
0.03 0.1 0
0.04 0.1 0
0.05 0.1 0
0.06 0.1 0
0.07 0.1 0
0.08 0.1 0
0.09 0.1 0
0.1 0.1 0
0.11 0.1 0
0.12 0.1 0
0.13 0.1 0
0.14 0.1 0
0.15 0.1 0
0.16 0.1 0
0.17 0.1 0
0.18 0.1 0
0.19 0.1 0
0.2 0.1 0
0.21 0.1 0
0.22 0.1 0
0.23 0.1 0
0.24 0.1 0
0.25 0.1 0
0.26 0.1 0
0.27 0.1 0
0.28 0.1 0
0.29 0.1 0
0.3 0.1 0
0.31 0.1 0
0.32 0.1 0
0.33 0.1 0
0.34 0.1 0
0.35 0.1 0
0.36 0.1 0
0.37 0.1 0
0.38 0.1 0
0.39 0.1 0
0.4 0.1 0
0.41 0.1 0
0.42 0.1 0
0.43 0.1 0
0.44 0.1 0
0.45 0.1 0
0.46 0.1 0
0.47 0.1 0
0.48 0.1 0
0.49 0.1 0
0.5 0.1 0
0.51 0.1 0
0.52 0.1 0
0.53 0.1 0
0.54 0.1 0
0.55 0.1 0
0.56 0.1 0
0.57 0.1 0
0.58 0.1 0
0.59 0.1 0
0.6 0.1 0
0.61 0.1 0
0 0.11 0
0.01 0.11 0
0.02 0.11 0
0.03 0.11 0
0.04 0.11 0
0.05 0.11 0
0.06 0.11 0
0.07 0.11 0
0.08 0.11 0
0.09 0.11 0
0.1 0.11 0
0.11 0.11 0
0.12 0.11 0
0.13 0.11 0
0.14 0.11 0
0.15 0.11 0
0.16 0.11 0
0.17 0.11 0
0.18 0.11 0
0.19 0.11 0
0.2 0.11 0
0.21 0.11 0
0.22 0.11 0
0.23 0.11 0
0.24 0.11 0
0.25 0.11 0
0.26 0.11 0
0.27 0.11 0
0.28 0.11 0
0.29 0.11 0
0.3 0.11 0
0.31 0.11 0
0.32 0.11 0
0.33 0.11 0
0.34 0.11 0
0.35 0.11 0
0.36 0.11 0
0.37 0.11 0
0.38 0.11 0
0.39 0.11 0
0.4 0.11 0
0.41 0.11 0
0.42 0.11 0
0.43 0.11 0
0.44 0.11 0
0.45 0.11 0
0.46 0.11 0
0.47 0.11 0
0.48 0.11 0
0.49 0.11 0
0.5 0.11 0
0.51 0.11 0
0.52 0.11 0
0.53 0.11 0
0.54 0.11 0
0.55 0.11 0
0.56 0.11 0
0.57 0.11 0
0.58 0.11 0
0.59 0.11 0
0.6 0.11 0
0.61 0.11 0
0 0.12 0
0.01 0.12 0
0.02 0.12 0
0.03 0.12 0
0.04 0.12 0
0.05 0.12 0
0.06 0.12 0
0.07 0.12 0
0.08 0.12 0
0.09 0.12 0
0.1 0.12 0
0.11 0.12 0
0.12 0.12 0
0.13 0.12 0
0.14 0.12 0
0.15 0.12 0
0.16 0.12 0
0.17 0.12 0
0.18 0.12 0
0.19 0.12 0
0.2 0.12 0
0.21 0.12 0
0.22 0.12 0
0.23 0.12 0
0.24 0.12 0
0.25 0.12 0
0.26 0.12 0
0.27 0.12 0
0.28 0.12 0
0.29 0.12 0
0.3 0.12 0
0.31 0.12 0
0.32 0.12 0
0.33 0.12 0
0.34 0.12 0
0.35 0.12 0
0.36 0.12 0
0.37 0.12 0
0.38 0.12 0
0.39 0.12 0
0.4 0.12 0
0.41 0.12 0
0.42 0.12 0
0.43 0.12 0
0.44 0.12 0
0.45 0.12 0
0.46 0.12 0
0.47 0.12 0
0.48 0.12 0
0.49 0.12 0
0.5 0.12 0
0.51 0.12 0
0.52 0.12 0
0.53 0.12 0
0.54 0.12 0
0.55 0.12 0
0.56 0.12 0
0.57 0.12 0
0.58 0.12 0
0.59 0.12 0
0.6 0.12 0
0.61 0.12 0
0 0.13 0
0.01 0.13 0
0.02 0.13 0
0.03 0.13 0
0.04 0.13 0
0.05 0.13 0
0.06 0.13 0
0.07 0.13 0
0.08 0.13 0
0.09 0.13 0
0.1 0.13 0
0.11 0.13 0
0.12 0.13 0
0.13 0.13 0
0.14 0.13 0
0.15 0.13 0
0.16 0.13 0
0.17 0.13 0
0.18 0.13 0
0.19 0.13 0
0.2 0.13 0
0.21 0.13 0
0.22 0.13 0
0.23 0.13 0
0.24 0.13 0
0.25 0.13 0
0.26 0.13 0
0.27 0.13 0
0.28 0.13 0
0.29 0.13 0
0.3 0.13 0
0.31 0.13 0
0.32 0.13 0
0.33 0.13 0
0.34 0.13 0
0.35 0.13 0
0.36 0.13 0
0.37 0.13 0
0.38 0.13 0
0.39 0.13 0
0.4 0.13 0
0.41 0.13 0
0.42 0.13 0
0.43 0.13 0
0.44 0.13 0
0.45 0.13 0
0.46 0.13 0
0.47 0.13 0
0.48 0.13 0
[...]
POINT_DATA 93248

SCALARS w double
LOOKUP_TABLE default
0
0
0
0
0
0
0
0
0
0
0
0
0
-0.0182374
0
0
0
0
0
0
0
0
0
0
0
0
-0.0239786
0
0
0
0
0
-0.0228831
0
0
0
0
0
0
0
0
0
0
0
0
0
-0.0221982
0
0
0
0
0
0
0
0
0
0
0
0
0
0
0
0
-0.0110469
-0.0150972
-0.0153039
-0.01626
-0.0188293
-0.0213975
-0.022674
-0.0233325
-0.0237184
-0.0239645
-0.0241482
-0.024224
-0.0243319
-0.0244257
-0.0245012
-0.0245475
-0.0245989
-0.0246191
-0.0246264
-0.024365
-0.0243973
-0.0244286
-0.024476
-0.0244959
-0.0245002
-0.0244968
-0.0244892
-0.0244784
-0.0244635
-0.0244416
-0.0244046
-0.0243398
-0.0242986
-0.0241967
-0.0238951
-0.0233074
-0.0222166
-0.0214442
-0.0290636
-0.0252964
-0.0251897
-0.0249842
-0.0248269
-0.024832
-0.0304771
-0.0243965
-0.0243989
-0.0244247
-0.0244821
-0.0246138
-0.0249668
-0.0239209
-0.0244248
-0.0304409
-0.024785
-0.024859
-0.0238457
-0.0241524
-0.0240911
-0.0233156
0
0
-0.0127223
-0.0208714
-0.0185575
-0.0184653
-0.021789
-0.0258031
-0.0284049
-0.0297606
-0.0305189
-0.0309448
-0.0313146
-0.0313739
-0.0315952
-0.0317337
-0.0318633
-0.0319353
-0.0320563
-0.032104
-0.0323017
-0.031447
-0.0316863
-0.0311853
-0.0318421
-0.0318924
-0.0319047
-0.0319032
-0.0318957
-0.0318844
-0.0318692
-0.0318469
-0.0318044
-0.031681
-0.0316943
-0.0316417
-0.0312115
-0.0304027
-0.0280372
-0.0229636
-0.0384343
-0.0364898
-0.0340661
-0.0328132
-0.0323486
-0.0322757
-0.0323869
-0.0320682
-0.0318226
-0.0317985
-0.0318596
-0.0318667
-0.0305104
-0.0316951
-0.0318773
-0.032083
-0.032062
-0.0321046
-0.0315705
-0.0316628
-0.0313794
-0.0298483
0
0
-0.0124188
-0.0191004
-0.0175012
-0.0181558
-0.0188293
-0.0257659
-0.0284206
-0.0297999
-0.0305595
-0.0308778
-0.0315468
-0.0318838
-0.0318563
-0.0318671
-0.0318732
-0.0319824
-0.0322706
-0.0321999
-0.0321966
-0.0321915
-0.0320495
-0.0319886
-0.03199
-0.0319947
-0.0319939
-0.0319886
-0.0319801
-0.0319692
-0.0319561
-0.0319423
-0.0319377
-0.0319934
-0.0310552
-0.0319439
-0.0313373
-0.0308936
-0.0299384
-0.0287185
-0.0339052
-0.0342365
-0.033288
-0.0326297
-0.032337
-0.0323741
-0.0326627
-0.0317318
-0.031728
-0.0317511
-0.0319839
-0.0319387
-0.0318986
-0.0318964
-0.031947
-0.0320059
-0.0320234
-0.0320513
-0.0320518
-0.0318989
-0.0315051
-0.029859
0
0
-0.0120846
-0.0178971
-0.0175409
-0.0178095
-0.0214814
-0.0256057
-0.0281005
-0.0294091
-0.0301457
-0.030566
-0.0309582
-0.0312002
-0.0312887
-0.0313269
-0.0313032
-0.0313395
-0.0311598
-0.0313286
-0.0314489
-0.0315507
-0.0315357
-0.0315084
-0.0314968
-0.0314906
-0.0314846
-0.0314771
-0.0314679
-0.0314571
-0.0314449
-0.0314317
-0.0314199
-0.0314126
-0.0313539
-0.0313356
-0.0310952
-0.0308847
-0.0306254
-0.0308231
-0.0318904
-0.0322155
-0.0320135
-0.031798
-0.0316827
-0.0316861
-0.0317627
-0.0315147
-0.0313904
-0.0313609
-0.0314056
-0.0313989
-0.031392
-0.0313968
-0.031417
-0.0314393
-0.0314512
-0.0314614
-0.0314618
-0.0313922
-0.0310056
-0.029382
0
0
-0.0119939
-0.0177409
-0.016477
-0.0177213
-0.0215538
-0.0255388
-0.0279299
-0.0292138
-0.0299222
-0.030338
-0.0306278
-0.0308189
-0.0309255
-0.0309532
-0.0291024
-0.0309455
-0.0309742
-0.0310522
-0.0311275
-0.0311816
-0.0311913
-0.0311853
-0.0311782
-0.0311714
-0.031164
-0.0311554
-0.0311459
-0.0311355
-0.0311238
-0.0311098
-0.0310904
-0.0310552
-0.0309775
-0.0309743
-0.0309115
-0.0308409
-0.0307899
-0.0308515
-0.0311986
-0.0313529
-0.0313407
-0.0312841
-0.0312409
-0.0312345
-0.0312858
-0.0314465
-0.0311793
-0.0310831
-0.0310653
-0.0310584
-0.0310572
-0.0310659
-0.0310853
-0.0311011
-0.0311078
-0.0311077
-0.0310987
-0.0310419
-0.0306602
-0.0290739
0
0
-0.0119482
-0.0175993
-0.0163613
-0.017624
-0.0215046
-0.0254054
-0.0278278
-0.0291541
-0.0298334
-0.0301945
-0.0304482
-0.0306239
-0.0307362
-0.0307998
-0.0307899
-0.0308486
-0.030894
-0.0305999
-0.0309589
-0.0309889
-0.0309981
-0.0309975
-0.0309931
-0.0309868
-0.0309791
-0.0309697
-0.0309602
-0.0309507
-0.0309405
-0.0309277
-0.030906
-0.0308529
-0.0306499
-0.0307765
-0.0307941
-0.0307838
-0.0307812
-0.0308231
-0.0309268
-0.030993
-0.0310071
-0.0309937
-0.0309715
-0.0309374
-0.0308412
-0.0305357
-0.0307352
-0.0308243
-0.030847
-0.0308457
-0.030843
-0.0308574
-0.0309005
-0.0309239
-0.030926
-0.030915
-0.0308858
-0.0307878
-0.0303504
-0.0288316
0
0
-0.0119162
-0.0175087
-0.0162584
-0.017542
-0.0214313
-0.0251986
-0.0277436
-0.0289604
-0.0296303
-0.0300309
-0.0302946
-0.0305009
-0.0306245
-0.0306957
-0.030717
-0.0306979
-0.0308177
-0.0308552
-0.0308673
-0.0308778
-0.030881
-0.0308814
-0.0308783
-0.0308726
-0.0308656
-0.0308537
-0.0308447
-0.0308372
-0.030831
-0.0308245
-0.0308138
-0.0308347
-0.0310072
-0.0308388
-0.0307674
-0.0307372
-0.0307343
-0.0307533
-0.0307892
-0.0308174
-0.0308281
-0.0308249
-0.0308123
-0.0307864
-0.0307284
-0.0306224
-0.0306713
-0.0307069
-0.0307081
-0.0306867
-0.03066
-0.0306732
-0.0308159
-0.0308603
-0.0308471
-0.0308167
-0.0307561
-0.0305149
-0.0240911
-0.0285823
0
0
-0.0118941
-0.0174528
-0.0161909
-0.017497
-0.0214257
-0.0253012
-0.0276702
-0.0288647
-0.0295436
-0.0299438
-0.030239
-0.0304628
-0.0305647
-0.0306268
-0.0306129
-0.0303332
-0.0287194
-0.0308092
-0.0307975
-0.0308014
-0.0307978
-0.0308015
-0.0308013
-0.0307966
-0.030793
-0.030772
-0.0307652
-0.030762
-0.0307648
-0.030771
-0.0307407
-0.0307364
-0.0307745
-0.0307351
-0.0307005
-0.0306845
-0.0306833
-0.0306913
-0.0307048
-0.0307165
-0.0307222
-0.0307211
-0.0307141
-0.0306993
-0.0306734
-0.0306393
-0.0306377
-0.0306307
-0.0305978
-0.030524
-0.0304009
-0.0303236
-0.0308849
-0.0309513
-0.0308662
-0.0308004
-0.0307771
-0.030788
-0.0302267
-0.0286896
0
0
-0.0118788
-0.017415
-0.0161435
-0.0174622
-0.0214159
-0.025343
-0.0276333
-0.0288159
-0.0294892
-0.0299175
-0.0302173
-0.0313739
-0.0305866
-0.0306211
-0.0306382
-0.0306122
-0.0307216
-0.0307571
-0.0307555
-0.0307513
-0.0307255
-0.0307457
-0.0307469
-0.0307406
-0.0307282
-0.0307157
-0.0307072
-0.0307081
-0.0307312
-0.0307842
-0.0306843
-0.0306459
-0.0306526
-0.0306494
-0.0306411
-0.0306335
-0.0306389
-0.0306424
-0.0306464
-0.0306506
-0.030653
-0.0306524
-0.0306486
-0.0306407
-0.0306281
-0.0306122
-0.0305974
-0.0305684
-0.0304968
-0.0303178
-0.029891
-0.0278034
-0.0313836
-0.0313489
-0.031001
-0.0308172
-0.0307498
-0.0307021
-0.0302844
-0.0286947
0
0
-0.0118679
-0.0173877
-0.0161073
-0.0174254
-0.0213949
-0.0253371
-0.027609
-0.0287821
-0.0294633
-0.0298902
-0.0301757
-0.0303943
-0.0305088
-0.0305917
-0.030659
-0.0306833
-0.0307131
-0.0307221
-0.0307219
-0.0307208
-0.0307712
-0.0307428
-0.0307201
-0.0307007
-0.0305666
-0.0306641
-0.0306531
-0.0306549
-0.030708
-0.030891
-0.030642
-0.0305795
-0.0305797
-0.0305898
-0.0305912
-0.0305803
-0.0306043
-0.0306058
-0.0306027
-0.0306022
-0.0306028
-0.0306028
-0.0306012
-0.0305973
-0.0305905
-0.0305798
-0.0305625
-0.0305246
-0.0304254
-0.0301348
-0.0292928
-0.0278034
-0.0329251
-0.0320371
-0.0311802
-0.0308366
-0.0307254
-0.0306583
-0.03027
-0.0286825
0
0
-0.0118603
-0.0173685
-0.0160807
-0.0173793
-0.0213693
-0.0253197
-0.0275894
-0.0287615
-0.0294422
-0.0298666
-0.0301462
-0.0303397
-0.0304732
-0.0305846
-0.0307194
-0.0307341
-0.0307183
-0.030704
-0.0306902
-0.0306554
-0.0307429
-0.030719
-0.0306906
-0.0306668
-0.0306422
-0.0306173
-0.0305899
-0.0305683
-0.0305787
-0.0306782
-0.030846
-0.0306423
-0.0305691
-0.0305557
-0.0305556
-0.0305519
-0.0305472
-0.0305734
-0.0305652
-0.0305615
-0.0305617
-0.0305627
-0.0305638
-0.0305632
-0.0305601
-0.0305531
-0.0305393
-0.0305094
-0.03044
-0.030274
-0.0299195
-0.0296017
-0.0313699
-0.0312804
-0.0309376
-0.0307565
-0.0306854
-0.0306275
-0.0302497
-0.0286668
0
0
-0.0118554
-0.0173571
-0.0160767
-0.017456
-0.0214156
-0.0253329
-0.0275817
-0.0287472
-0.0294255
-0.0298471
-0.0301239
-0.0303123
-0.0304472
-0.0305746
-0.0308502
-0.0307701
-0.0307145
-0.0306846
-0.0306715
-0.0306635
-0.0306838
-0.0306762
-0.0306578
-0.0306349
-0.0306047
-0.0305638
-0.0305082
-0.0304386
-0.0303619
-0.030315
-0.0300448
-0.0302732
-0.0304202
-0.0304893
-0.0305148
-0.0305208
-0.0305198
-0.0305234
-0.0305202
-0.0305197
-0.0305221
-0.0305242
-0.0305307
-0.0305345
-0.0305352
-0.0305324
-0.0305247
-0.0305084
-0.0304755
-0.0304083
-0.0303133
-0.0303043
-0.0307613
-0.0308129
-0.0307343
-0.0306738
-0.0306451
-0.0306015
-0.0302308
-0.0286518
0
0
-0.0118521
-0.0173475
-0.0160614
-0.0174178
-0.0213928
-0.0253171
-0.0275692
-0.028735
-0.0294125
-0.02983
-0.0301066
-0.0302897
-0.0304074
-0.0304514
-0.0302869
-0.0304466
-0.0305567
-0.0306142
-0.0306307
-0.0306429
-0.030652
-0.0306476
-0.0306323
-0.0306066
-0.0305666
-0.0305027
-0.0303996
-0.0302383
-0.0299667
-0.0300449
-0.030101
-0.0302608
-0.0303861
-0.0304531
-0.0304807
-0.0304867
-0.0304826
-0.0304746
-0.0304683
-0.0304702
-0.0304772
-0.0302933
-0.0304969
-0.0305085
-0.030514
-0.0305155
-0.0305141
-0.0305113
-0.0305076
-0.0304784
-0.0304575
-0.0304823
-0.0306015
-0.0306389
-0.030631
-0.030619
-0.030617
-0.0305816
-0.0302153
-0.0286391
0
0
-0.0118511
-0.0173428
-0.0160507
-0.017497
-0.0213764
-0.0253041
-0.0275589
-0.0287264
-0.029405
-0.0298288
-0.0300983
-0.0302776
-0.0303931
-0.0304511
-0.0304342
-0.0304965
-0.0305628
-0.030595
-0.0305793
-0.0306071
-0.0306276
-0.0306279
-0.0306131
-0.0305836
-0.030532
-0.0304378
-0.0302542
-0.0298595
-0.0284453
-0.029338
-0.0299016
-0.0301992
-0.0303509
-0.030422
-0.0304484
-0.0304487
-0.0304863
-0.0304092
-0.0303907
-0.0303986
-0.0304213
-0.0304444
-0.0304681
-0.0304846
-0.0304948
-0.0305004
-0.0305036
-0.0305109
-0.0305464
-0.0305061
-0.0305
-0.030522
-0.0305777
-0.0305819
-0.0305827
-0.0305881
-0.0307878
-0.0305702
-0.0302042
-0.0286295
0
0
-0.0118545
-0.0173514
-0.0160511
-0.0173883
-0.0213639
-0.0252914
-0.027551
-0.0287226
-0.0294012
-0.0298205
-0.0300904
-0.0302693
-0.0303881
-0.0304626
-0.0305023
-0.0305467
-0.0305833
-0.0305875
-0.0304687
-0.0305705
-0.0306095
-0.0306162
-0.0306007
-0.0305685
-0.0305091
-0.0303885
-0.0300886
-0.0289469
0.0186098
-0.0273053
-0.0294177
-0.0300829
-0.0303126
-0.0303949
-0.0304177
-0.0304042
-0.0303618
-0.0302975
-0.03024
-0.0302717
-0.0303338
-0.0303905
-0.0304325
-0.0304601
-0.0304771
-0.0304858
-0.030488
-0.0304794
-0.0304382
-0.0304767
-0.0304993
-0.0305369
-0.0313836
-0.0305734
-0.0305574
-0.0305617
-0.0305846
-0.0305601
-0.0301978
-0.0286235
0
0
-0.0118642
-0.0173987
-0.0160778
-0.0173901
-0.0213538
-0.0252725
-0.0275467
-0.0287291
-0.0294082
-0.0298211
-0.0300869
-0.030264
-0.0303841
-0.0304662
-0.0305233
-0.0305678
-0.0306045
-0.0306496
-0.0307963
-0.0306999
-0.0306508
-0.0306211
-0.0305969
-0.0305637
-0.0305089
-0.0304077
-0.0302016
-0.0297278
-0.0283393
-0.0292981
-0.029907
-0.0301994
-0.0303304
-0.0303814
-0.0303926
-0.0303546
-0.030257
-0.0300858
-0.0298412
-0.0300033
-0.0301864
-0.0303132
-0.0303906
-0.0304357
-0.030462
-0.0304741
-0.0304783
-0.0304723
-0.0304613
-0.0304657
-0.0304871
-0.0305105
-0.0305427
-0.0305336
-0.0305392
-0.0305324
-0.030588
-0.0305666
-0.0301996
-0.0286226
0
0
-0.0118695
-0.0175205
-0.0161227
-0.0173941
-0.0213366
-0.0252301
-0.0275544
-0.0287589
-0.0294343
-0.029835
-0.0300893
-0.0302602
-0.0303774
-0.030462
-0.0305285
-0.0305768
-0.0306104
-0.0306403
-0.0306841
-0.0306642
-0.0306377
-0.0306165
-0.0305946
-0.0305654
-0.0305212
-0.0304496
-0.0303305
-0.0301438
-0.0298806
-0.0300176
-0.0301845
-0.0302966
-0.0303505
-0.0303624
-0.0303798
-0.0303119
-0.0301139
-0.0296298
-0.0282195
-0.0292965
-0.0299262
-0.0302133
-0.0303472
-0.030414
-0.0304524
-0.0304649
-0.0304709
-0.0304689
-0.0304529
-0.0304212
-0.0304619
-0.0304902
-0.0305047
-0.0305119
-0.0314512
-0.0304675
-0.0306444
-0.0306025
-0.0302129
-0.0286294
0
0
-0.011796
-0.0170817
-0.0158728
-0.0172823
-0.0212906
-0.0253371
-0.0276205
-0.0288231
-0.0294745
-0.0298553
-0.0301006
-0.0302566
-0.0303624
-0.030444
-0.0305321
-0.0305908
-0.0306192
-0.0306333
-0.0306443
-0.0306387
-0.0306266
-0.030612
-0.030594
-0.0305697
-0.0305355
-0.0304856
-0.0304104
-0.0303276
-0.0302119
-0.030252
-0.0303166
-0.0303545
-0.0303489
-0.0303
-0.0304053
-0.0303176
-0.029981
-0.0286666
0.0226089
-0.0274045
-0.0295244
-0.0301192
-0.030318
-0.0303982
-0.030431
-0.0304543
-0.0304648
-0.0304649
-0.0304371
-0.0303033
-0.0304368
-0.0304776
-0.0304858
-0.0304716
-0.0304148
-0.0302776
-0.0307935
-0.0306609
-0.0302303
-0.0286042
0
0
-0.0118019
-0.0172033
-0.0159214
-0.0172706
-0.0213058
-0.0253195
-0.0276371
-0.0288023
-0.0294507
-0.0298437
-0.0301174
-0.0302522
-0.0303215
-0.0303798
-0.0305462
-0.0306402
-0.0306506
-0.0306379
-0.0306333
-0.0306287
-0.0306209
-0.0306096
-0.0305945
-0.0305743
-0.0305471
-0.0305104
-0.0304595
-0.0303967
-0.0302105
-0.0303333
-0.0303829
-0.0303893
-0.0303287
-0.0301475
-0.0305242
-0.0304213
-0.0301482
-0.0296
-0.0281594
-0.029256
-0.0299146
-0.0302029
-0.0303372
-0.030403
-0.030435
-0.030452
-0.0304638
-0.030479
-0.0305198
-0.0306673
-0.0305374
-0.0304955
-0.0304826
-0.030473
-0.0304525
-0.0304371
-0.0306215
-0.0305851
-0.0301978
-0.028615
0
0
-0.0118148
-0.0172601
-0.0159468
-0.017197
-0.021301
-0.0255266
-0.0276906
-0.0287946
-0.0294275
-0.0298355
-0.03019
-0.0302314
-0.0302045
-0.030152
-0.0306297
-0.0307788
-0.0307454
-0.0306503
-0.0306276
-0.0306236
-0.030618
-0.0306087
-0.0305956
-0.030578
-0.0305541
-0.0305206
-0.0304531
-0.0304997
-0.0306629
-0.0305283
-0.030472
-0.0304376
-0.0303948
-0.0303328
-0.030437
-0.0303982
-0.0302656
-0.0300641
-0.0298113
-0.0299745
-0.0301641
-0.0302933
-0.0303731
-0.03042
-0.0304445
-0.0304489
-0.030457
-0.0304723
-0.0305
-0.0305447
-0.0305144
-0.0304825
-0.0304706
-0.0304712
-0.0304846
-0.0304994
-0.0305552
-0.0305367
-0.0301717
-0.028597
0
0
-0.0118233
-0.0172856
-0.0160001
-0.0174639
-0.0213423
-0.0249718
-0.0273483
-0.0286125
-0.0293513
-0.0297741
-0.029889
-0.0300333
-0.0298778
-0.0296197
-0.030916
-0.0310838
-0.0308753
-0.0306516
-0.030622
-0.0306203
-0.0306174
-0.0306092
-0.0305976
-0.0305814
-0.0305568
-0.0304959
-0.0286037
-0.0304379
-0.0305371
-0.0305196
-0.030489
-0.0304636
-0.0304359
-0.0304082
-0.0304195
-0.0303958
-0.0303398
-0.0302668
-0.0302083
-0.0302393
-0.0303028
-0.030363
-0.0304119
-0.0304479
-0.030469
-0.0304367
-0.0304379
-0.0304571
-0.0304823
-0.0305104
-0.0305094
-0.0304525
-0.0304358
-0.0304444
-0.0305063
-0.0305257
-0.0305416
-0.0305186
-0.0301571
-0.0285858
0
0
-0.0118263
-0.0172909
-0.015996
-0.0173736
-0.0213231
-0.0251545
-0.0274273
-0.028652
-0.0293888
-0.029866
-0.0300387
-0.0300439
-0.0296216
-0.0302045
-0.0308459
-0.030909
-0.030826
-0.0307848
-0.0306876
-0.0306439
-0.0306232
-0.030612
-0.0306017
-0.0305873
-0.0305679
-0.0305402
-0.030478
-0.0305111
-0.030524
-0.0305136
-0.0304958
-0.0304742
-0.0304465
-0.0304128
-0.030409
-0.0303951
-0.0303795
-0.0303578
-0.030343
-0.0303527
-0.0303786
-0.0304111
-0.0305632
-0.0304949
-0.0305395
-0.0303908
-0.0303904
-0.0304308
-0.0304732
-0.0305319
-0.0305666
-0.030382
-0.0303513
-0.0303557
-0.030562
-0.0305669
-0.030551
-0.0305164
-0.0301507
-0.0285787
0
0
-0.0118268
-0.0172912
-0.0159902
-0.0173457
-0.0213248
-0.0252352
-0.0275034
-0.0287109
-0.0294719
-0.0302496
-0.0302924
-0.0302618
-0.0301935
-0.0306513
-0.0307496
-0.0307574
-0.0306977
-0.0306837
-0.0306547
-0.0306335
-0.0306216
-0.0306149
-0.0306111
-0.0305962
-0.0305784
-0.0305611
-0.030545
-0.0305451
-0.0305256
-0.030514
-0.0304994
-0.0304754
-0.0304312
-0.030318
-0.0303617
-0.0303395
-0.0303828
-0.0303958
-0.0303991
-0.030406
-0.0304195
-0.0304397
-0.0304744
-0.0305497
-0.0306935
-0.0302702
-0.0303148
-0.0303914
-0.0304554
-0.0305941
-0.0307361
-0.0302382
-0.0302271
-0.0301665
-0.0307088
-0.0306307
-0.0305695
-0.0305253
-0.0301502
-0.0285743
0
0
-0.0118265
-0.0172914
-0.015989
-0.0173417
-0.0213322
-0.0252669
-0.0275543
-0.028755
-0.0295449
-0.0452613
-0.0309265
-0.0304831
-0.0304047
-0.0305374
-0.0306148
-0.0306319
-0.0306338
-0.0306353
-0.0306298
-0.0306232
-0.0306187
-0.0306207
-0.0306374
-0.0306125
-0.0305875
-0.0305728
-0.0305673
-0.0305828
-0.0305182
-0.0305128
-0.0305024
-0.0304746
-0.0303898
-0.0241967
-0.0302005
-0.0285064
-0.0303288
-0.0304051
-0.0304248
-0.0304329
-0.0304417
-0.030454
-0.0304714
-0.0305032
-0.0305356
-0.0303858
-0.0303683
-0.0303723
-0.030377
-0.0305988
-0.0306458
-0.0304094
-0.0303586
-0.0303588
-0.0305521
-0.0305608
-0.0305578
-0.0305515
-0.0301561
-0.0285708
0
0
-0.011826
-0.0172927
-0.0159905
-0.0173436
-0.0213388
-0.0252867
-0.028735
-0.0287853
-0.0295198
-0.0302955
-0.0303487
-0.0303663
-0.0304121
-0.0304908
-0.030549
-0.0305831
-0.0306361
-0.0306128
-0.0306162
-0.0306153
-0.030614
-0.0306243
-0.0307061
-0.0306249
-0.0305897
-0.0305766
-0.0305731
-0.0305803
-0.0305449
-0.0305283
-0.0305153
-0.0304897
-0.0304443
-0.0303307
-0.0303768
-0.0303586
-0.0304124
-0.030435
-0.0304437
-0.0304491
-0.0304565
-0.0304673
-0.0304693
-0.0304729
-0.0304707
-0.0304238
-0.0303924
-0.0303292
-0.030204
-0.0307084
-0.030731
-0.0304768
-0.0304373
-0.0304396
-0.0304938
-0.0305155
-0.0305491
-0.0306403
-0.0301616
-0.0285641
0
0
-0.0118253
-0.0172956
-0.0159944
-0.0173468
-0.0213406
-0.0252819
-0.0275689
-0.0287536
-0.0294595
-0.0299356
-0.0301653
-0.0302942
-0.0303874
-0.030465
-0.030523
-0.0305626
-0.0305879
-0.0306032
-0.030609
-0.0306082
-0.030601
-0.0305782
-0.0304765
-0.0305237
-0.0305433
-0.030572
-0.0305764
-0.0305535
-0.0305466
-0.0305368
-0.0307407
-0.0305082
-0.0304803
-0.0304496
-0.0304456
-0.0304424
-0.0304491
-0.0304534
-0.0304556
-0.0304594
-0.0304711
-0.0304974
-0.0304781
-0.0304632
-0.0304528
-0.0304346
-0.0304155
-0.0303846
-0.0303531
-0.0304943
-0.0303981
-0.0304906
-0.0304641
-0.0304605
-0.0304738
-0.0304794
-0.0304598
-0.0303156
-0.0300769
-0.0285416
0
0
-0.0118247
-0.0173014
-0.0160019
-0.017352
-0.021343
-0.0252814
-0.0275577
-0.0287787
-0.0294573
-0.0298773
-0.0301028
-0.0302468
-0.030357
-0.030444
-0.0305069
-0.0305504
-0.0305818
-0.0306002
-0.0306054
-0.0306034
-0.0305955
-0.0306578
-0.0305545
-0.0305025
-0.0304938
-0.0305886
-0.0306172
-0.0305908
-0.030565
-0.0305459
-0.0305323
-0.0305147
-0.0304979
-0.0304825
-0.0304738
-0.0304682
-0.0304654
-0.0304632
-0.0304615
-0.0304631
-0.0304811
-0.0305719
-0.0304879
-0.0304583
-0.0304456
-0.0304361
-0.030427
-0.030417
-0.0304133
-0.0304453
-0.0304318
-0.0304562
-0.0304575
-0.0304595
-0.0304659
-0.0304715
-0.0304693
-0.0304163
-0.0300869
-0.0285364
0
0
-0.0118242
-0.0173126
-0.0160165
-0.017361
-0.0213461
-0.0252805
-0.0275621
-0.0288901
-0.0294895
-0.029922
-0.0300681
-0.0301935
-0.0303153
-0.0304171
-0.0304907
-0.0305379
-0.030582
-0.0306079
-0.030605
-0.0305979
-0.0305845
-0.0305716
-0.0305391
-0.0304598
-0.0303244
-0.0306713
-0.0307278
-0.0306613
-0.0305922
-0.0305565
-0.030536
-0.0305204
-0.030507
-0.0304955
-0.0304863
-0.0304791
-0.0304731
-0.0304676
-0.0304617
-0.0304526
-0.030427
-0.0303276
-0.0304071
-0.030431
-0.0304346
-0.0304314
-0.0304271
-0.0304241
-0.030425
-0.0304336
-0.0304356
-0.0304444
-0.0304493
-0.0304541
-0.0304607
-0.0304702
-0.0306275
-0.0304496
-0.0300959
-0.0285352
0
0
-0.0118246
-0.0173338
-0.0160463
-0.0173748
-0.0213493
-0.0252693
-0.0274981
-0.028521
-0.0293484
-0.0299897
-0.0299758
-0.0301178
-0.0302671
-0.0303887
-0.0304717
-0.0305097
-0.0305978
-0.0306475
-0.0306063
-0.0305868
-0.030557
-0.0305527
-0.0305169
-0.0303655
-0.0299032
-0.0309124
-0.0309318
-0.0307477
-0.0306255
-0.0305652
-0.0305398
-0.0305242
-0.030512
-0.0305016
-0.0304924
-0.0304841
-0.0304765
-0.030469
-0.0304611
-0.0304511
-0.030434
-0.0304043
-0.0304182
-0.0304263
-0.0304259
-0.0304224
-0.030419
-0.0304175
-0.0304189
-0.0304234
-0.0304283
-0.0304347
-0.0304409
-0.0304473
-0.0304549
-0.0304651
-0.0304775
-0.0304538
-0.0300972
-0.0285337
0
0
-0.0118303
-0.0173777
-0.0161028
-0.017395
-0.021356
-0.0252734
-0.0275079
-0.0286377
-0.0293531
-0.0298439
-0.0300322
-0.0301752
-0.0303005
-0.0303941
-0.0309455
-0.0304089
-0.0306686
-0.0307789
-0.0305951
-0.0305738
-0.0304857
-0.0305449
-0.0305383
-0.0304789
-0.0303573
-0.0306765
-0.0307249
-0.0306612
-0.0305953
-0.0305601
-0.0305399
-0.0305261
-0.0305149
-0.0305049
-0.0304955
-0.0304863
-0.0304773
-0.0304681
-0.0304587
-0.0304487
-0.0304381
-0.0304275
-0.0304249
-0.0304207
-0.0304141
-0.0304074
-0.0304026
-0.0304009
-0.0304027
-0.0304077
-0.0304146
-0.0304225
-0.0304305
-0.0304387
-0.0304479
-0.0304597
-0.0304724
-0.0304515
-0.0300959
-0.0285316
0
0
-0.0118779
-0.0175302
-0.0161599
-0.0174685
-0.0214085
-0.025297