# vtk DataFile Version 2.0
FlowField
ASCII
DATASET STRUCTURED_GRID
DIMENSIONS 102 11 11 
POINTS 12342 double
0 0 0
0 0 0.2
0 0 0.4
0 0 0.6
0 0 0.8
0 0 1
0 0 1.2
0 0 1.4
0 0 1.6
0 0 1.8
0 0 2
0 0.1 0
0 0.1 0.2
0 0.1 0.4
0 0.1 0.6
0 0.1 0.8
0 0.1 1
0 0.1 1.2
0 0.1 1.4
0 0.1 1.6
0 0.1 1.8
0 0.1 2
0 0.2 0
0 0.2 0.2
0 0.2 0.4
0 0.2 0.6
0 0.2 0.8
0 0.2 1
0 0.2 1.2
0 0.2 1.4
0 0.2 1.6
0 0.2 1.8
0 0.2 2
0 0.3 0
0 0.3 0.2
0 0.3 0.4
0 0.3 0.6
0 0.3 0.8
0 0.3 1
0 0.3 1.2
0 0.3 1.4
0 0.3 1.6
0 0.3 1.8
0 0.3 2
0 0.4 0
0 0.4 0.2
0 0.4 0.4
0 0.4 0.6
0 0.4 0.8
0 0.4 1
0 0.4 1.2
0 0.4 1.4
0 0.4 1.6
0 0.4 1.8
0 0.4 2
0 0.5 0
0 0.5 0.2
0 0.5 0.4
0 0.5 0.6
0 0.5 0.8
0 0.5 1
0 0.5 1.2
0 0.5 1.4
0 0.5 1.6
0 0.5 1.8
0 0.5 2
0 0.6 0
0 0.6 0.2
0 0.6 0.4
0 0.6 0.6
0 0.6 0.8
0 0.6 1
0 0.6 1.2
0 0.6 1.4
0 0.6 1.6
0 0.6 1.8
0 0.6 2
0 0.7 0
0 0.7 0.2
0 0.7 0.4
0 0.7 0.6
0 0.7 0.8
0 0.7 1
0 0.7 1.2
0 0.7 1.4
0 0.7 1.6
0 0.7 1.8
0 0.7 2
0 0.8 0
0 0.8 0.2
0 0.8 0.4
0 0.8 0.6
0 0.8 0.8
0 0.8 1
0 0.8 1.2
0 0.8 1.4
0 0.8 1.6
0 0.8 1.8
0 0.8 2
0 0.9 0
0 0.9 0.2
0 0.9 0.4
0 0.9 0.6
0 0.9 0.8
0 0.9 1
0 0.9 1.2
0 0.9 1.4
0 0.9 1.6
0 0.9 1.8
0 0.9 2
0 1 0
0 1 0.2
0 1 0.4
0 1 0.6
0 1 0.8
0 1 1
0 1 1.2
0 1 1.4
0 1 1.6
0 1 1.8
0 1 2
0.2 0 0
0.2 0 0.2
0.2 0 0.4
0.2 0 0.6
0.2 0 0.8
0.2 0 1
0.2 0 1.2
0.2 0 1.4
0.2 0 1.6
0.2 0 1.8
0.2 0 2
0.2 0.1 0
0.2 0.1 0.2
0.2 0.1 0.4
0.2 0.1 0.6
0.2 0.1 0.8
0.2 0.1 1
0.2 0.1 1.2
0.2 0.1 1.4
0.2 0.1 1.6
0.2 0.1 1.8
0.2 0.1 2
0.2 0.2 0
0.2 0.2 0.2
0.2 0.2 0.4
0.2 0.2 0.6
0.2 0.2 0.8
0.2 0.2 1
0.2 0.2 1.2
0.2 0.2 1.4
0.2 0.2 1.6
0.2 0.2 1.8
0.2 0.2 2
0.2 0.3 0
0.2 0.3 0.2
0.2 0.3 0.4
0.2 0.3 0.6
0.2 0.3 0.8
0.2 0.3 1
0.2 0.3 1.2
0.2 0.3 1.4
0.2 0.3 1.6
0.2 0.3 1.8
0.2 0.3 2
0.2 0.4 0
0.2 0.4 0.2
0.2 0.4 0.4
0.2 0.4 0.6
0.2 0.4 0.8
0.2 0.4 1
0.2 0.4 1.2
0.2 0.4 1.4
0.2 0.4 1.6
0.2 0.4 1.8
0.2 0.4 2
0.2 0.5 0
0.2 0.5 0.2
0.2 0.5 0.4
0.2 0.5 0.6
0.2 0.5 0.8
0.2 0.5 1
0.2 0.5 1.2
0.2 0.5 1.4
0.2 0.5 1.6
0.2 0.5 1.8
0.2 0.5 2
0.2 0.6 0
0.2 0.6 0.2
0.2 0.6 0.4
0.2 0.6 0.6
0.2 0.6 0.8
0.2 0.6 1
0.2 0.6 1.2
0.2 0.6 1.4
0.2 0.6 1.6
0.2 0.6 1.8
0.2 0.6 2
0.2 0.7 0
0.2 0.7 0.2
0.2 0.7 0.4
0.2 0.7 0.6
0.2 0.7 0.8
0.2 0.7 1
0.2 0.7 1.2
0.2 0.7 1.4
0.2 0.7 1.6
0.2 0.7 1.8
0.2 0.7 2
0.2 0.8 0
0.2 0.8 0.2
0.2 0.8 0.4
0.2 0.8 0.6
0.2 0.8 0.8
0.2 0.8 1
0.2 0.8 1.2
0.2 0.8 1.4
0.2 0.8 1.6
0.2 0.8 1.8
0.2 0.8 2
0.2 0.9 0
0.2 0.9 0.2
0.2 0.9 0.4
0.2 0.9 0.6
0.2 0.9 0.8
0.2 0.9 1
0.2 0.9 1.2
0.2 0.9 1.4
0.2 0.9 1.6
0.2 0.9 1.8
0.2 0.9 2
0.2 1 0
0.2 1 0.2
0.2 1 0.4
0.2 1 0.6
0.2 1 0.8
0.2 1 1
0.2 1 1.2
0.2 1 1.4
0.2 1 1.6
0.2 1 1.8
0.2 1 2
0.4 0 0
0.4 0 0.2
0.4 0 0.4
0.4 0 0.6
0.4 0 0.8
0.4 0 1
0.4 0 1.2
0.4 0 1.4
0.4 0 1.6
0.4 0 1.8
0.4 0 2
0.4 0.1 0
0.4 0.1 0.2
0.4 0.1 0.4
0.4 0.1 0.6
0.4 0.1 0.8
0.4 0.1 1
0.4 0.1 1.2
0.4 0.1 1.4
0.4 0.1 1.6
0.4 0.1 1.8
0.4 0.1 2
0.4 0.2 0
0.4 0.2 0.2
0.4 0.2 0.4
0.4 0.2 0.6
0.4 0.2 0.8
0.4 0.2 1
0.4 0.2 1.2
0.4 0.2 1.4
0.4 0.2 1.6
0.4 0.2 1.8
0.4 0.2 2
0.4 0.3 0
0.4 0.3 0.2
0.4 0.3 0.4
0.4 0.3 0.6
0.4 0.3 0.8
0.4 0.3 1
0.4 0.3 1.2
0.4 0.3 1.4
0.4 0.3 1.6
0.4 0.3 1.8
0.4 0.3 2
0.4 0.4 0
0.4 0.4 0.2
0.4 0.4 0.4
0.4 0.4 0.6
0.4 0.4 0.8
0.4 0.4 1
0.4 0.4 1.2
0.4 0.4 1.4
0.4 0.4 1.6
0.4 0.4 1.8
0.4 0.4 2
0.4 0.5 0
0.4 0.5 0.2
0.4 0.5 0.4
0.4 0.5 0.6
0.4 0.5 0.8
0.4 0.5 1
0.4 0.5 1.2
0.4 0.5 1.4
0.4 0.5 1.6
0.4 0.5 1.8
0.4 0.5 2
0.4 0.6 0
0.4 0.6 0.2
0.4 0.6 0.4
0.4 0.6 0.6
0.4 0.6 0.8
0.4 0.6 1
0.4 0.6 1.2
0.4 0.6 1.4
0.4 0.6 1.6
0.4 0.6 1.8
0.4 0.6 2
0.4 0.7 0
0.4 0.7 0.2
0.4 0.7 0.4
0.4 0.7 0.6
0.4 0.7 0.8
0.4 0.7 1
0.4 0.7 1.2
0.4 0.7 1.4
0.4 0.7 1.6
0.4 0.7 1.8
0.4 0.7 2
0.4 0.8 0
0.4 0.8 0.2
0.4 0.8 0.4
0.4 0.8 0.6
0.4 0.8 0.8
0.4 0.8 1
0.4 0.8 1.2
0.4 0.8 1.4
0.4 0.8 1.6
0.4 0.8 1.8
0.4 0.8 2
0.4 0.9 0
0.4 0.9 0.2
0.4 0.9 0.4
0.4 0.9 0.6
0.4 0.9 0.8
0.4 0.9 1
0.4 0.9 1.2
0.4 0.9 1.4
0.4 0.9 1.6
0.4 0.9 1.8
0.4 0.9 2
0.4 1 0
0.4 1 0.2
0.4 1 0.4
0.4 1 0.6
0.4 1 0.8
0.4 1 1
0.4 1 1.2
0.4 1 1.4
0.4 1 1.6
0.4 1 1.8
0.4 1 2
0.6 0 0
0.6 0 0.2
0.6 0 0.4
0.6 0 0.6
0.6 0 0.8
0.6 0 1
0.6 0 1.2
0.6 0 1.4
0.6 0 1.6
0.6 0 1.8
0.6 0 2
0.6 0.1 0
0.6 0.1 0.2
0.6 0.1 0.4
0.6 0.1 0.6
0.6 0.1 0.8
0.6 0.1 1
0.6 0.1 1.2
0.6 0.1 1.4
0.6 0.1 1.6
0.6 0.1 1.8
0.6 0.1 2
0.6 0.2 0
0.6 0.2 0.2
0.6 0.2 0.4
0.6 0.2 0.6
0.6 0.2 0.8
0.6 0.2 1
0.6 0.2 1.2
0.6 0.2 1.4
0.6 0.2 1.6
0.6 0.2 1.8
0.6 0.2 2
0.6 0.3 0
0.6 0.3 0.2
0.6 0.3 0.4
0.6 0.3 0.6
0.6 0.3 0.8
0.6 0.3 1
0.6 0.3 1.2
0.6 0.3 1.4
0.6 0.3 1.6
0.6 0.3 1.8
0.6 0.3 2
0.6 0.4 0
0.6 0.4 0.2
0.6 0.4 0.4
0.6 0.4 0.6
0.6 0.4 0.8
0.6 0.4 1
0.6 0.4 1.2
0.6 0.4 1.4
0.6 0.4 1.6
0.6 0.4 1.8
0.6 0.4 2
0.6 0.5 0
0.6 0.5 0.2
0.6 0.5 0.4
0.6 0.5 0.6
0.6 0.5 0.8
0.6 0.5 1
0.6 0.5 1.2
0.6 0.5 1.4
0.6 0.5 1.6
0.6 0.5 1.8
0.6 0.5 2
0.6 0.6 0
0.6 0.6 0.2
0.6 0.6 0.4
0.6 0.6 0.6
0.6 0.6 0.8
0.6 0.6 1
0.6 0.6 1.2
0.6 0.6 1.4
0.6 0.6 1.6
0.6 0.6 1.8
0.6 0.6 2
0.6 0.7 0
0.6 0.7 0.2
0.6 0.7 0.4
0.6 0.7 0.6
0.6 0.7 0.8
0.6 0.7 1
0.6 0.7 1.2
0.6 0.7 1.4
0.6 0.7 1.6
0.6 0.7 1.8
0.6 0.7 2
0.6 0.8 0
0.6 0.8 0.2
0.6 0.8 0.4
0.6 0.8 0.6
0.6 0.8 0.8
0.6 0.8 1
0.6 0.8 1.2
0.6 0.8 1.4
0.6 0.8 1.6
0.6 0.8 1.8
0.6 0.8 2
0.6 0.9 0
0.6 0.9 0.2
0.6 0.9 0.4
0.6 0.9 0.6
0.6 0.9 0.8
0.6 0.9 1
0.6 0.9 1.2
0.6 0.9 1.4
0.6 0.9 1.6
0.6 0.9 1.8
0.6 0.9 2
0.6 1 0
0.6 1 0.2
0.6 1 0.4
0.6 1 0.6
0.6 1 0.8
0.6 1 1
0.6 1 1.2
0.6 1 1.4
0.6 1 1.6
0.6 1 1.8
0.6 1 2
0.8 0 0
0.8 0 0.2
0.8 0 0.4
0.8 0 0.6
0.8 0 0.8
0.8 0 1
0.8 0 1.2
0.8 0 1.4
0.8 0 1.6
0.8 0 1.8
0.8 0 2
0.8 0.1 0
0.8 0.1 0.2
0.8 0.1 0.4
0.8 0.1 0.6
0.8 0.1 0.8
0.8 0.1 1
0.8 0.1 1.2
0.8 0.1 1.4
0.8 0.1 1.6
0.8 0.1 1.8
0.8 0.1 2
0.8 0.2 0
0.8 0.2 0.2
0.8 0.2 0.4
0.8 0.2 0.6
0.8 0.2 0.8
0.8 0.2 1
0.8 0.2 1.2
0.8 0.2 1.4
0.8 0.2 1.6
0.8 0.2 1.8
0.8 0.2 2
0.8 0.3 0
0.8 0.3 0.2
0.8 0.3 0.4
0.8 0.3 0.6
0.8 0.3 0.8
0.8 0.3 1
0.8 0.3 1.2
0.8 0.3 1.4
0.8 0.3 1.6
0.8 0.3 1.8
0.8 0.3 2
0.8 0.4 0
0.8 0.4 0.2
0.8 0.4 0.4
0.8 0.4 0.6
0.8 0.4 0.8
0.8 0.4 1
0.8 0.4 1.2
0.8 0.4 1.4
0.8 0.4 1.6
0.8 0.4 1.8
0.8 0.4 2
0.8 0.5 0
0.8 0.5 0.2
0.8 0.5 0.4
0.8 0.5 0.6
0.8 0.5 0.8
0.8 0.5 1
0.8 0.5 1.2
0.8 0.5 1.4
0.8 0.5 1.6
0.8 0.5 1.8
0.8 0.5 2
0.8 0.6 0
0.8 0.6 0.2
0.8 0.6 0.4
0.8 0.6 0.6
0.8 0.6 0.8
0.8 0.6 1
0.8 0.6 1.2
0.8 0.6 1.4
0.8 0.6 1.6
0.8 0.6 1.8
0.8 0.6 2
0.8 0.7 0
0.8 0.7 0.2
0.8 0.7 0.4
0.8 0.7 0.6
0.8 0.7 0.8
0.8 0.7 1
0.8 0.7 1.2
0.8 0.7 1.4
0.8 0.7 1.6
0.8 0.7 1.8
0.8 0.7 2
0.8 0.8 0
0.8 0.8 0.2
0.8 0.8 0.4
0.8 0.8 0.6
0.8 0.8 0.8
0.8 0.8 1
0.8 0.8 1.2
0.8 0.8 1.4
0.8 0.8 1.6
0.8 0.8 1.8
0.8 0.8 2
0.8 0.9 0
0.8 0.9 0.2
0.8 0.9 0.4
0.8 0.9 0.6
0.8 0.9 0.8
0.8 0.9 1
0.8 0.9 1.2
0.8 0.9 1.4
0.8 0.9 1.6
0.8 0.9 1.8
0.8 0.9 2
0.8 1 0
0.8 1 0.2
0.8 1 0.4
0.8 1 0.6
0.8 1 0.8
0.8 1 1
0.8 1 1.2
0.8 1 1.4
0.8 1 1.6
0.8 1 1.8
0.8 1 2
1 0 0
1 0 0.2
1 0 0.4
1 0 0.6
1 0 0.8
1 0 1
1 0 1.2
1 0 1.4
1 0 1.6
1 0 1.8
1 0 2
1 0.1 0
1 0.1 0.2
1 0.1 0.4
1 0.1 0.6
1 0.1 0.8
1 0.1 1
1 0.1 1.2
1 0.1 1.4
1 0.1 1.6
1 0.1 1.8
1 0.1 2
1 0.2 0
1 0.2 0.2
1 0.2 0.4
1 0.2 0.6
1 0.2 0.8
1 0.2 1
1 0.2 1.2
1 0.2 1.4
1 0.2 1.6
1 0.2 1.8
1 0.2 2
1 0.3 0
1 0.3 0.2
1 0.3 0.4
1 0.3 0.6
1 0.3 0.8
1 0.3 1
1 0.3 1.2
1 0.3 1.4
1 0.3 1.6
1 0.3 1.8
1 0.3 2
1 0.4 0
1 0.4 0.2
1 0.4 0.4
1 0.4 0.6
1 0.4 0.8
1 0.4 1
1 0.4 1.2
1 0.4 1.4
1 0.4 1.6
1 0.4 1.8
1 0.4 2
1 0.5 0
1 0.5 0.2
1 0.5 0.4
1 0.5 0.6
1 0.5 0.8
1 0.5 1
1 0.5 1.2
1 0.5 1.4
1 0.5 1.6
1 0.5 1.8
1 0.5 2
1 0.6 0
1 0.6 0.2
1 0.6 0.4
1 0.6 0.6
1 0.6 0.8
1 0.6 1
1 0.6 1.2
1 0.6 1.4
1 0.6 1.6
1 0.6 1.8
1 0.6 2
1 0.7 0
1 0.7 0.2
1 0.7 0.4
1 0.7 0.6
1 0.7 0.8
1 0.7 1
1 0.7 1.2
1 0.7 1.4
1 0.7 1.6
1 0.7 1.8
1 0.7 2
1 0.8 0
1 0.8 0.2
1 0.8 0.4
1 0.8 0.6
1 0.8 0.8
1 0.8 1
1 0.8 1.2
1 0.8 1.4
1 0.8 1.6
1 0.8 1.8
1 0.8 2
1 0.9 0
1 0.9 0.2
1 0.9 0.4
1 0.9 0.6
1 0.9 0.8
1 0.9 1
1 0.9 1.2
1 0.9 1.4
1 0.9 1.6
1 0.9 1.8
1 0.9 2
1 1 0
1 1 0.2
1 1 0.4
1 1 0.6
1 1 0.8
1 1 1
1 1 1.2
1 1 1.4
1 1 1.6
1 1 1.8
1 1 2
1.2 0 0
1.2 0 0.2
1.2 0 0.4
1.2 0 0.6
1.2 0 0.8
1.2 0 1
1.2 0 1.2
1.2 0 1.4
1.2 0 1.6
1.2 0 1.8
1.2 0 2
1.2 0.1 0
1.2 0.1 0.2
1.2 0.1 0.4
1.2 0.1 0.6
1.2 0.1 0.8
1.2 0.1 1
1.2 0.1 1.2
1.2 0.1 1.4
1.2 0.1 1.6
1.2 0.1 1.8
1.2 0.1 2
1.2 0.2 0
1.2 0.2 0.2
1.2 0.2 0.4
1.2 0.2 0.6
1.2 0.2 0.8
1.2 0.2 1
1.2 0.2 1.2
1.2 0.2 1.4
1.2 0.2 1.6
1.2 0.2 1.8
1.2 0.2 2
1.2 0.3 0
1.2 0.3 0.2
1.2 0.3 0.4
1.2 0.3 0.6
1.2 0.3 0.8
1.2 0.3 1
1.2 0.3 1.2
1.2 0.3 1.4
1.2 0.3 1.6
1.2 0.3 1.8
1.2 0.3 2
1.2 0.4 0
1.2 0.4 0.2
1.2 0.4 0.4
1.2 0.4 0.6
1.2 0.4 0.8
1.2 0.4 1
1.2 0.4 1.2
1.2 0.4 1.4
1.2 0.4 1.6
1.2 0.4 1.8
1.2 0.4 2
1.2 0.5 0
1.2 0.5 0.2
1.2 0.5 0.4
1.2 0.5 0.6
1.2 0.5 0.8
1.2 0.5 1
1.2 0.5 1.2
1.2 0.5 1.4
1.2 0.5 1.6
1.2 0.5 1.8
1.2 0.5 2
1.2 0.6 0
1.2 0.6 0.2
1.2 0.6 0.4
1.2 0.6 0.6
1.2 0.6 0.8
1.2 0.6 1
1.2 0.6 1.2
1.2 0.6 1.4
1.2 0.6 1.6
1.2 0.6 1.8
1.2 0.6 2
1.2 0.7 0
1.2 0.7 0.2
1.2 0.7 0.4
1.2 0.7 0.6
1.2 0.7 0.8
1.2 0.7 1
1.2 0.7 1.2
1.2 0.7 1.4
1.2 0.7 1.6
1.2 0.7 1.8
1.2 0.7 2
1.2 0.8 0
1.2 0.8 0.2
1.2 0.8 0.4
1.2 0.8 0.6
1.2 0.8 0.8
1.2 0.8 1
1.2 0.8 1.2
1.2 0.8 1.4
1.2 0.8 1.6
1.2 0.8 1.8
1.2 0.8 2
1.2 0.9 0
1.2 0.9 0.2
1.2 0.9 0.4
1.2 0.9 0.6
1.2 0.9 0.8
1.2 0.9 1
1.2 0.9 1.2
1.2 0.9 1.4
1.2 0.9 1.6
1.2 0.9 1.8
1.2 0.9 2
1.2 1 0
1.2 1 0.2
1.2 1 0.4
1.2 1 0.6
1.2 1 0.8
1.2 1 1
1.2 1 1.2
1.2 1 1.4
1.2 1 1.6
1.2 1 1.8
1.2 1 2
1.4 0 0
1.4 0 0.2
1.4 0 0.4
1.4 0 0.6
1.4 0 0.8
1.4 0 1
1.4 0 1.2
1.4 0 1.4
1.4 0 1.6
1.4 0 1.8
1.4 0 2
1.4 0.1 0
1.4 0.1 0.2
1.4 0.1 0.4
1.4 0.1 0.6
1.4 0.1 0.8
1.4 0.1 1
1.4 0.1 1.2
1.4 0.1 1.4
1.4 0.1 1.6
1.4 0.1 1.8
1.4 0.1 2
1.4 0.2 0
1.4 0.2 0.2
1.4 0.2 0.4
1.4 0.2 0.6
1.4 0.2 0.8
1.4 0.2 1
1.4 0.2 1.2
1.4 0.2 1.4
1.4 0.2 1.6
1.4 0.2 1.8
1.4 0.2 2
1.4 0.3 0
1.4 0.3 0.2
1.4 0.3 0.4
1.4 0.3 0.6
1.4 0.3 0.8
1.4 0.3 1
1.4 0.3 1.2
1.4 0.3 1.4
1.4 0.3 1.6
1.4 0.3 1.8
1.4 0.3 2
1.4 0.4 0
1.4 0.4 0.2
1.4 0.4 0.4
1.4 0.4 0.6
1.4 0.4 0.8
1.4 0.4 1
1.4 0.4 1.2
1.4 0.4 1.4
1.4 0.4 1.6
1.4 0.4 1.8
1.4 0.4 2
1.4 0.5 0
1.4 0.5 0.2
1.4 0.5 0.4
1.4 0.5 0.6
1.4 0.5 0.8
1.4 0.5 1
1.4 0.5 1.2
1.4 0.5 1.4
1.4 0.5 1.6
1.4 0.5 1.8
1.4 0.5 2
1.4 0.6 0
1.4 0.6 0.2
1.4 0.6 0.4
1.4 0.6 0.6
1.4 0.6 0.8
1.4 0.6 1
1.4 0.6 1.2
1.4 0.6 1.4
1.4 0.6 1.6
1.4 0.6 1.8
1.4 0.6 2
1.4 0.7 0
1.4 0.7 0.2
1.4 0.7 0.4
1.4 0.7 0.6
1.4 0.7 0.8
1.4 0.7 1
1.4 0.7 1.2
1.4 0.7 1.4
1.4 0.7 1.6
1.4 0.7 1.8
[...]
POINT_DATA 12342

SCALARS p double
LOOKUP_TABLE default
191.726
191.726
161.386
141.894
129.746
121.892
117.246
115.556
117.637
126.536
126.536
191.726
191.726
161.386
141.894
129.746
121.892
117.246
115.556
117.637
126.536
126.536
191.735
191.735
161.34
141.852
129.711
121.861
117.217
115.528
117.609
126.528
126.536
191.762
191.762
161.326
141.836
129.698
121.848
117.204
115.513
117.59
126.528
126.536
191.783
191.783
161.325
141.834
129.697
121.847
117.203
115.51
117.585
126.534
126.536
191.799
191.799
161.334
141.843
129.706
121.856
117.212
115.519
117.593
126.544
126.536
191.809
191.809
161.354
141.864
129.726
121.875
117.231
115.538
117.612
126.559
126.536
191.815
191.815
161.386
141.898
129.758
121.906
117.261
115.569
117.644
126.578
126.536
191.818
191.818
161.437
141.949
129.805
121.951
117.306
115.615
117.692
126.605
126.536
191.823
191.823
161.513
142.023
129.873
122.017
117.371
115.681
117.763
126.643
126.536
191.823
191.823
161.513
142.023
129.873
122.017
117.371
115.681
117.763
126.643
126.536
191.726
191.726
161.386
141.894
129.746
121.892
117.246
115.556
117.637
126.536
126.536
191.726
191.726
161.386
141.894
129.746
121.892
117.246
115.556
117.637
126.536
126.536
191.735
191.735
161.34
141.852
129.711
121.861
117.217
115.528
117.609
126.528
126.536
191.762
191.762
161.326
141.836
129.698
121.848
117.204
115.513
117.59
126.528
126.536
191.783
191.783
161.325
141.834
129.697
121.847
117.203
115.51
117.585
126.534
126.536
191.799
191.799
161.334
141.843
129.706
121.856
117.212
115.519
117.593
126.544
126.536
191.809
191.809
161.354
141.864
129.726
121.875
117.231
115.538
117.612
126.559
126.536
191.815
191.815
161.386
141.898
129.758
121.906
117.261
115.569
117.644
126.578
126.536
191.818
191.818
161.437
141.949
129.805
121.951
117.306
115.615
117.692
126.605
126.536
191.823
191.823
161.513
142.023
129.873
122.017
117.371
115.681
117.763
126.643
126.536
191.823
191.823
161.513
142.023
129.873
122.017
117.371
115.681
117.763
126.643
126.536
187.825
187.825
160.162
141.289
129.313
121.565
117.003
115.424
117.665
125.617
125.617
187.825
187.825
160.162
141.289
129.313
121.565
117.003
115.424
117.665
125.617
125.617
187.853
187.853
160.153
141.279
129.308
121.562
117
115.421
117.662
125.628
125.617
187.881
187.881
160.151
141.276
129.307
121.562
117
115.42
117.659
125.639
125.617
187.902
187.902
160.155
141.279
129.311
121.566
117.004
115.424
117.661
125.648
125.617
187.916
187.916
160.165
141.289
129.321
121.576
117.014
115.433
117.67
125.659
125.617
187.923
187.923
160.181
141.306
129.337
121.592
117.029
115.449
117.685
125.67
125.617
187.922
187.922
160.203
141.329
129.359
121.612
117.05
115.469
117.706
125.681
125.617
187.913
187.913
160.229
141.358
129.384
121.637
117.074
115.494
117.732
125.69
125.617
187.894
187.894
160.258
141.388
129.411
121.662
117.099
115.521
117.76
125.697
125.617
187.894
187.894
160.258
141.388
129.411
121.662
117.099
115.521
117.76
125.697
125.617
181.294
181.294
157.829
140.234
128.611
121.056
116.655
115.279
117.623
124.102
124.102
181.294
181.294
157.829
140.234
128.611
121.056
116.655
115.279
117.623
124.102
124.102
181.321
181.321
157.83
140.233
128.612
121.058
116.657
115.281
117.624
124.114
124.102
181.343
181.343
157.834
140.235
128.615
121.062
116.661
115.284
117.628
124.125
124.102
181.361
181.361
157.84
140.241
128.621
121.069
116.668
115.291
117.633
124.136
124.102
181.373
181.373
157.85
140.25
128.631
121.079
116.677
115.3
117.642
124.146
124.102
181.379
181.379
157.862
140.264
128.644
121.091
116.69
115.313
117.655
124.155
124.102
181.378
181.378
157.877
140.281
128.661
121.107
116.705
115.328
117.67
124.163
124.102
181.371
181.371
157.894
140.301
128.679
121.124
116.722
115.346
117.687
124.169
124.102
181.357
181.357
157.912
140.322
128.698
121.142
116.74
115.365
117.706
124.174
124.102
181.357
181.357
157.912
140.322
128.698
121.142
116.74
115.365
117.706
124.174
124.102
173.394
173.394
154.434
138.639
127.607
120.349
116.182
115.032
117.289
122.254
122.254
173.394
173.394
154.434
138.639
127.607
120.349
116.182
115.032
117.289
122.254
122.254
173.417
173.417
154.439
138.641
127.61
120.353
116.185
115.035
117.293
122.265
122.254
173.437
173.437
154.445
138.646
127.615
120.358
116.191
115.04
117.299
122.276
122.254
173.452
173.452
154.453
138.652
127.622
120.366
116.198
115.048
117.306
122.287
122.254
173.463
173.463
154.462
138.662
127.632
120.375
116.208
115.057
117.315
122.296
122.254
173.469
173.469
154.473
138.674
127.644
120.387
116.219
115.069
117.326
122.305
122.254
173.47
173.47
154.485
138.688
127.658
120.4
116.233
115.082
117.339
122.313
122.254
173.467
173.467
154.498
138.704
127.674
120.415
116.248
115.097
117.353
122.32
122.254
173.459
173.459
154.512
138.723
127.691
120.432
116.264
115.114
117.369
122.325
122.254
173.459
173.459
154.512
138.723
127.691
120.432
116.264
115.114
117.369
122.325
122.254
165.029
165.029
150.198
136.492
126.293
119.447
115.568
114.604
116.592
120.238
120.238
165.029
165.029
150.198
136.492
126.293
119.447
115.568
114.604
116.592
120.238
120.238
165.05
165.05
150.205
136.496
126.298
119.451
115.572
114.609
116.597
120.25
120.238
165.067
165.067
150.213
136.502
126.303
119.457
115.578
114.615
116.604
120.26
120.238
165.08
165.08
150.222
136.509
126.311
119.465
115.586
114.622
116.612
120.27
120.238
165.091
165.091
150.231
136.518
126.32
119.474
115.595
114.632
116.621
120.28
120.238
165.098
165.098
150.241
136.529
126.332
119.485
115.607
114.643
116.631
120.289
120.238
165.101
165.101
150.251
136.542
126.345
119.498
115.619
114.655
116.643
120.297
120.238
165.101
165.101
150.263
136.557
126.359
119.513
115.634
114.67
116.656
120.305
120.238
165.098
165.098
150.275
136.573
126.376
119.528
115.649
114.685
116.67
120.312
120.238
165.098
165.098
150.275
136.573
126.376
119.528
115.649
114.685
116.67
120.312
120.238
156.762
156.762
145.4
133.841
124.669
118.345
114.786
113.938
115.544
118.148
118.148
156.762
156.762
145.4
133.841
124.669
118.345
114.786
113.938
115.544
118.148
118.148
156.78
156.78
145.409
133.846
124.673
118.35
114.791
113.943
115.551
118.158
118.148
156.795
156.795
145.417
133.853
124.68
118.357
114.798
113.95
115.558
118.168
118.148
156.808
156.808
145.427
133.861
124.688
118.365
114.806
113.958
115.566
118.178
118.148
156.818
156.818
145.436
133.87
124.697
118.374
114.815
113.967
115.576
118.188
118.148
156.826
156.826
145.446
133.881
124.708
118.385
114.826
113.978
115.586
118.197
118.148
156.831
156.831
145.456
133.893
124.72
118.397
114.838
113.99
115.597
118.206
118.148
156.833
156.833
145.466
133.906
124.734
118.411
114.852
114.003
115.609
118.214
118.148
156.834
156.834
145.477
133.921
124.75
118.427
114.868
114.018
115.622
118.223
118.148
156.834
156.834
145.477
133.921
124.75
118.427
114.868
114.018
115.622
118.223
118.148
148.891
148.891
140.303
130.778
122.744
117.034
113.807
113.005
114.199
116.022
116.022
148.891
148.891
140.303
130.778
122.744
117.034
113.807
113.005
114.199
116.022
116.022
148.907
148.907
140.312
130.785
122.75
117.04
113.812
113.011
114.207
116.031
116.022
148.92
148.92
140.322
130.792
122.756
117.046
113.819
113.018
114.214
116.041
116.022
148.932
148.932
140.331
130.801
122.765
117.054
113.827
113.026
114.223
116.051
116.022
148.942
148.942
140.34
130.81
122.774
117.064
113.836
113.036
114.232
116.06
116.022
148.95
148.95
140.35
130.82
122.785
117.074
113.847
113.046
114.243
116.07
116.022
148.957
148.957
140.36
130.832
122.797
117.087
113.859
113.058
114.253
116.079
116.022
148.962
148.962
140.37
130.844
122.81
117.1
113.872
113.071
114.265
116.088
116.022
148.965
148.965
140.38
130.858
122.825
117.115
113.887
113.085
114.278
116.098
116.022
148.965
148.965
140.38
130.858
122.825
117.115
113.887
113.085
114.278
116.098
116.022
141.544
141.544
135.115
127.415
120.545
115.502
112.605
111.807
112.617
113.871
113.871
141.544
141.544
135.115
127.415
120.545
115.502
112.605
111.807
112.617
113.871
113.871
141.558
141.558
135.125
127.422
120.551
115.508
112.611
111.814
112.624
113.88
113.871
141.57
141.57
135.134
127.43
120.559
115.514
112.618
111.821
112.632
113.89
113.871
141.581
141.581
135.144
127.438
120.567
115.523
112.626
111.829
112.641
113.899
113.871
141.591
141.591
135.153
127.448
120.576
115.532
112.635
111.839
112.65
113.909
113.871
141.6
141.6
135.163
127.458
120.587
115.543
112.646
111.849
112.661
113.918
113.871
141.607
141.607
135.172
127.469
120.598
115.555
112.658
111.86
112.671
113.928
113.871
141.614
141.614
135.182
127.481
120.611
115.568
112.671
111.873
112.683
113.938
113.871
141.619
141.619
135.192
127.494
120.625
115.582
112.685
111.887
112.695
113.948
113.871
141.619
141.619
135.192
127.494
120.625
115.582
112.685
111.887
112.695
113.948
113.871
134.752
134.752
129.982
123.856
118.108
113.744
111.171
110.362
110.846
111.696
111.696
134.752
134.752
129.982
123.856
118.108
113.744
111.171
110.362
110.846
111.696
111.696
134.764
134.764
129.992
123.864
118.114
113.75
111.177
110.368
110.854
111.705
111.696
134.776
134.776
130.001
123.872
118.122
113.757
111.184
110.376
110.862
111.714
111.696
134.786
134.786
130.011
123.88
118.13
113.766
111.193
110.384
110.871
111.723
111.696
134.796
134.796
130.02
123.89
118.139
113.775
111.202
110.393
110.88
111.732
111.696
134.805
134.805
130.03
123.9
118.15
113.785
111.212
110.404
110.89
111.742
111.696
134.814
134.814
130.039
123.911
118.161
113.797
111.224
110.415
110.901
111.752
111.696
134.821
134.821
130.049
123.922
118.173
113.81
111.237
110.427
110.912
111.762
111.696
134.828
134.828
130.059
123.934
118.187
113.824
111.251
110.44
110.924
111.772
111.696
134.828
134.828
130.059
123.934
118.187
113.824
111.251
110.44
110.924
111.772
111.696
128.497
128.497
124.995
120.191
115.472
111.768
109.508
108.694
108.925
109.49
109.49
128.497
128.497
124.995
120.191
115.472
111.768
109.508
108.694
108.925
109.49
109.49
128.508
128.508
125.005
120.199
115.479
111.774
109.515
108.701
108.933
109.498
109.49
128.519
128.519
125.014
120.207
115.487
111.782
109.522
108.708
108.941
109.507
109.49
128.529
128.529
125.023
120.216
115.495
111.79
109.53
108.717
108.95
109.516
109.49
128.539
128.539
125.033
120.226
115.505
111.799
109.54
108.726
108.959
109.526
109.49
128.548
128.548
125.042
120.235
115.515
111.81
109.55
108.736
108.969
109.535
109.49
128.557
128.557
125.052
120.246
115.526
111.821
109.561
108.747
108.979
109.545
109.49
128.565
128.565
125.062
120.257
115.538
111.833
109.574
108.759
108.991
109.556
109.49
128.573
128.573
125.072
120.269
115.551
111.847
109.587
108.772
109.002
109.566
109.49
128.573
128.573
125.072
120.269
115.551
111.847
109.587
108.772
109.002
109.566
109.49
122.738
122.738
120.203
116.489
112.682
109.591
107.632
106.832
106.88
107.248
107.248
122.738
122.738
120.203
116.489
112.682
109.591
107.632
106.832
106.88
107.248
107.248
122.748
122.748
120.212
116.497
112.689
109.598
107.638
106.839
106.887
107.256
107.248
122.758
122.758
120.222
116.505
112.696
109.605
107.646
106.846
106.895
107.265
107.248
122.767
122.767
120.231
116.514
112.705
109.614
107.654
106.855
106.904
107.274
107.248
122.777
122.777
120.24
116.523
112.714
109.623
107.663
106.864
106.913
107.283
107.248
122.786
122.786
120.25
116.533
112.724
109.633
107.673
106.874
106.923
107.293
107.248
122.796
122.796
120.26
116.543
112.735
109.644
107.684
106.885
106.933
107.303
107.248
122.805
122.805
120.269
116.554
112.747
109.656
107.696
106.896
106.944
107.313
107.248
122.814
122.814
120.279
116.566
112.759
109.669
107.709
106.909
106.956
107.324
107.248
122.814
122.814
120.279
116.566
112.759
109.669
107.709
106.909
106.956
107.324
107.248
117.422
117.422
115.627
112.797
109.775
107.238
105.563
104.801
104.728
104.964
104.964
117.422
117.422
115.627
112.797
109.775
107.238
105.563
104.801
104.728
104.964
104.964
117.431
117.431
115.635
112.805
109.782
107.245
105.57
104.808
104.735
104.972
104.964
117.441
117.441
115.644
112.814
109.79
107.253
105.577
104.816
104.743
104.981
104.964
117.45
117.45
115.654
112.822
109.799
107.261
105.585
104.824
104.752
104.99
104.964
117.46
117.46
115.663
112.832
109.808
107.27
105.595
104.834
104.761
104.999
104.964
117.469
117.469
115.672
112.841
109.818
107.28
105.605
104.843
104.771
105.008
104.964
117.479
117.479
115.682
112.851
109.828
107.291
105.615
104.854
104.781
105.019
104.964
117.488
117.488
115.692
112.862
109.84
107.302
105.627
104.865
104.792
105.029
104.964
117.498
117.498
115.702
112.873
109.851
107.315
105.639
104.878
104.804
105.04
104.964
117.498
117.498
115.702
112.873
109.851
107.315
105.639
104.878
104.804
105.04
104.964
112.498
112.498
111.266
109.148
106.788
104.739
103.328
102.627
102.484
102.636
102.636
112.498
112.498
111.266
109.148
106.788
104.739
103.328
102.627
102.484
102.636
102.636
112.507
112.507
111.275
109.156
106.796
104.746
103.335
102.634
102.491
102.644
102.636
112.516
112.516
111.284
109.165
106.803
104.753
103.343
102.642
102.499
102.652
102.636
112.525
112.525
111.293
109.173
106.812
104.762
103.351
102.65
102.508
102.661
102.636
112.534
112.534
111.302
109.182
106.821
104.771
103.36
102.659
102.517
102.67
102.636
112.543
112.543
111.311
109.192
106.831
104.781
103.37
102.669
102.527
102.679
102.636
112.553
112.553
111.321
109.202
106.841
104.791
103.381
102.68
102.537
102.689
102.636
112.563
112.563
111.331
109.212
106.852
104.802
103.392
102.691
102.548
102.7
102.636
112.573
112.573
111.341
109.223
106.864
104.814
103.404
102.703
102.559
102.711
102.636
112.573
112.573
111.341
109.223
106.864
104.814
103.404
102.703
102.559
102.711
102.636
107.914
107.914
107.113
105.562
103.751
102.122
100.956
100.332
100.159
100.261
100.261
107.914
107.914
107.113
105.562
103.751
102.122
100.956
100.332
100.159
100.261
100.261
107.923
107.923
107.121
105.57
103.758
102.129
100.963
100.339
100.166
100.268
100.261
107.931
107.931
107.13
105.578
103.766
102.137
100.97
100.347
100.174
100.276
100.261
107.94
107.94
107.139
105.586
103.774
102.145
100.979
100.355
100.182
100.285
100.261
107.949
107.949
107.148
105.595
103.783
102.154
100.988
100.364
100.191
100.294
100.261
107.959
107.959
107.157
105.605
103.793
102.164
100.997
100.373
100.201
100.303
100.261
107.968
107.968
107.167
105.615
103.803
102.174
101.008
100.384
100.211
100.313
100.261
107.978
107.978
107.177
105.625
103.814
102.185
101.019
100.394
100.222
100.324
100.261
107.989
107.989
107.187
105.636
103.825
102.197
101.03
100.406
100.233
100.334
100.261
107.989
107.989
107.187
105.636
103.825
102.197
101.03
100.406
100.233
100.334
100.261
103.625
103.625
103.151
102.048
100.687
99.4164
98.4712
97.935
97.7615
97.8376
97.8376
103.625
103.625
103.151
102.048
100.687
99.4164
98.4712
97.935
97.7615
97.8376
97.8376
103.633
103.633
103.159
102.056
100.694
99.4235
98.4783
97.9421
97.7687
97.8452
97.8376
103.641
103.641
103.168
102.064
100.702
99.4311
98.4859
97.9497
97.7764
97.8531
97.8376
103.65
103.65
103.176
102.072
100.71
99.4394
98.4941
97.958
97.7847
97.8615
97.8376
103.659
103.659
103.185
102.081
100.719
99.4483
98.5029
97.9668
97.7935
97.8704
97.8376
103.668
103.668
103.194
102.091
100.729
99.4577
98.5124
97.9763
97.8029
97.8797
97.8376
103.678
103.678
103.204
102.1
100.738
99.4678
98.5225
97.9863
97.8129
97.8895
97.8376
103.688
103.688
103.214
102.11
100.749
99.4784
98.5332
97.9969
97.8234
97.8997
97.8376
103.698
103.698
103.224
102.121
100.76
99.4897
98.5445
98.0082
97.8346
97.9105
97.8376
103.698
103.698
103.224
102.121
100.76
99.4897
98.5445
98.0082
97.8346
97.9105
97.8376
99.5865
99.5865
99.3621
98.6116
97.615
96.6461
95.8984
95.4549
95.3008
95.3684
95.3684
99.5865
99.5865
99.3621
98.6116
97.615
96.6461
95.8984
95.4549
95.3008
95.3684
95.3684
99.5941
99.5941
99.37
98.6192
97.6223
96.6532
95.9055
95.462
95.3079
95.3758
95.3684
99.6021
99.6021
99.3781
98.6271
97.6301
96.6609
95.913
95.4695
95.3156
95.3836
95.3684
99.6105
99.6105
99.3866
98.6355
97.6384
96.669
95.9212
95.4777
95.3237
95.3919
95.3684
99.6193
99.6193
99.3954
98.6443
97.6471
96.6778
95.9299
95.4864
95.3325
95.4006
95.3684
99.6286
99.6286
99.4045
98.6535
97.6563
96.6871
95.9392
95.4957
95.3417
95.4098
95.3684
99.6383
99.6383
99.414
98.6631
97.6661
96.6969
95.9491
95.5055
95.3515
95.4194
95.3684
99.6484
99.6484
99.4238
98.6731
97.6763
96.7073
95.9595
95.516
95.3618
95.4295
95.3684
99.659
99.659
99.434
98.6836
97.6871
96.7183
95.9706
95.527
95.3728
95.4401
95.3684
99.659
99.659
99.434
98.6836
97.6871
96.7183
95.9706
95.527
95.3728
95.4401
95.3684
95.7628
95.7628
95.7274
95.2528
94.5499
93.8322
93.2584
92.9074
92.7852
92.8555
92.8555
95.7628
95.7628
95.7274
95.2528
94.5499
93.8322
93.2584
92.9074
92.7852
92.8555
92.8555
95.7701
95.7701
95.735
95.2603
94.5572
93.8393
93.2654
92.9144
92.7923
92.8628
92.8555
95.7778
95.7778
95.743
95.2681
94.5648
93.8468
93.2729
92.9219
92.7998
92.8704
92.8555
95.786
95.786
95.7513
95.2763
94.573
93.8549
93.281
92.9299
92.8078
92.8786
92.8555
95.7947
95.7947
95.7599
95.285
94.5816
93.8635
93.2896
92.9385
92.8164
92.8872
92.8555
95.8038
95.8038
95.769
95.294
94.5907
93.8726
93.2987
92.9476
92.8255
92.8962
92.8555
95.8135
95.8135
95.7783
95.3035
94.6002
93.8823
93.3084
92.9573
92.8351
92.9057
92.8555
95.8235
95.8235
95.7881
95.3133
94.6103
93.8924
93.3186
92.9675
92.8453
92.9156
92.8555
95.8342
95.8342
95.7982
95.3236
94.6208
93.9032
93.3294
92.9783
92.856
92.9261
92.8555
95.8342
95.8342
95.7982
95.3236
94.6208
93.9032
93.3294
92.9783
92.856
92.9261
92.8555
92.1224
92.1224
92.2294
91.9697
91.5017
90.9916
90.569
90.3064
90.2228
90.3026
90.3026
92.1224
92.1224
92.2294
91.9697
91.5017
90.9916
90.569
90.3064
90.2228
90.3026
90.3026
92.1295
92.1295
92.2369
91.977
91.5088
90.9986
90.5759
90.3133
90.2297
90.3098
90.3026
92.137
92.137
92.2446
91.9847
91.5164
91.0061
90.5833
90.3207
90.2372
90.3173
90.3026
92.145
92.145
92.2528
91.9928
91.5244
91.014
90.5913
90.3286
90.2451
90.3253
90.3026
92.1535
92.1535
92.2613
92.0013
91.5329
91.0225
90.5997
90.3371
90.2535
90.3338
90.3026
92.1625
92.1625
92.2702
92.0102
91.5418
91.0314
90.6087
90.346
90.2624
90.3427
90.3026
92.1721
92.1721
92.2794
92.0195
91.5512
91.0409
90.6181
90.3555
90.2719
90.352
90.3026
92.1821
92.1821
92.289
92.0292
91.561
91.0508
90.6281
90.3655
90.2818
90.3617
90.3026
92.1927
92.1927
92.2991
92.0393
91.5714
91.0613
90.6387
90.376
90.2924
90.372
90.3026
92.1927
92.1927
92.2991
92.0393
91.5714
91.0613
90.6387
90.376
90.2924
90.372
90.3026
88.6387
88.6387
88.8521
88.7588
88.4775
88.1378
87.8449
87.6641
87.6214
87.7144
87.7144
88.6387
88.6387
88.8521
88.7588
88.4775
88.1378
87.8449
87.6641
87.6214
87.7144
87.7144
88.6455
88.6455
88.8594
88.7659
88.4846
88.1447
87.8517
87.6709
87.6282
87.7214
87.7144
88.6528
88.6528
88.867
88.7735
88.492
88.152
87.859
87.6782
87.6355
87.7289
87.7144
88.6606
88.6606
88.8749
88.7814
88.4999
88.1599
87.8668
87.686
87.6433
87.7367
87.7144
88.669
88.669
88.8833
88.7897
88.5082
88.1682
87.8751
87.6943
87.6515
87.745
87.7144
88.6778
88.6778
88.892
88.7984
88.5169
88.1769
87.8839
87.7031
87.6603
87.7537
87.7144
88.6873
88.6873
88.9011
88.8076
88.5261
88.1862
87.8932
87.7123
87.6696
87.7629
87.7144
88.6972
88.6972
88.9106
88.8171
88.5358
88.1959
87.9029
87.7221
87.6793
87.7724
87.7144
88.7077
88.7077
88.9205
88.8271
88.5459
88.2061
87.9132
87.7324
87.6896
87.7825
87.7144
88.7077
88.7077
88.9205
88.8271
88.5459
88.2061
87.9132
87.7324
87.6896
87.7825
87.7144
85.2888
85.2888
85.5811
85.6157
85.4821
85.2811
85.0981
84.991
84.9883
85.0959
85.0959
85.2888
85.2888
85.5811
85.6157
85.4821
85.2811
85.0981
84.991
84.9883
85.0959
85.0959
85.2954
85.2954
85.5881
85.6227
85.489
85.2879
85.1049
84.9977
84.995
85.1028
85.0959
85.3025
85.3025
85.5955
85.6301
85.4963
85.2951
85.1121
85.0048
85.0022
85.1101
85.0959
85.3101
85.3101
85.6033
85.6378
85.504
85.3028
85.1197
85.0125
85.0098
85.1179
85.0959
85.3183
85.3183
85.6115
85.646
85.5122
85.3109
85.1279
85.0206
85.018
85.126
85.0959
85.3271
85.3271
85.6201
85.6545
85.5207
85.3195
85.1365
85.0292
85.0265
85.1345
85.0959
85.3363
85.3363
85.629
85.6635
85.5297
85.3286
85.1455
85.0383
85.0356
85.1435
85.0959
85.3461
85.3461
85.6384
85.6729
85.5392
85.3381
85.1551
85.0478
85.0452
85.1528
85.0959
85.3565
85.3565