# vtk DataFile Version 2.0
FlowField
ASCII
DATASET STRUCTURED_GRID
DIMENSIONS 62 47 32 
POINTS 93248 double
0 0 0
0.01 0 0
0.02 0 0
0.03 0 0
0.04 0 0
0.05 0 0
0.06 0 0
0.07 0 0
0.08 0 0
0.09 0 0
0.1 0 0
0.11 0 0
0.12 0 0
0.13 0 0
0.14 0 0
0.15 0 0
0.16 0 0
0.17 0 0
0.18 0 0
0.19 0 0
0.2 0 0
0.21 0 0
0.22 0 0
0.23 0 0
0.24 0 0
0.25 0 0
0.26 0 0
0.27 0 0
0.28 0 0
0.29 0 0
0.3 0 0
0.31 0 0
0.32 0 0
0.33 0 0
0.34 0 0
0.35 0 0
0.36 0 0
0.37 0 0
0.38 0 0
0.39 0 0
0.4 0 0
0.41 0 0
0.42 0 0
0.43 0 0
0.44 0 0
0.45 0 0
0.46 0 0
0.47 0 0
0.48 0 0
0.49 0 0
0.5 0 0
0.51 0 0
0.52 0 0
0.53 0 0
0.54 0 0
0.55 0 0
0.56 0 0
0.57 0 0
0.58 0 0
0.59 0 0
0.6 0 0
0.61 0 0
0 0.01 0
0.01 0.01 0
0.02 0.01 0
0.03 0.01 0
0.04 0.01 0
0.05 0.01 0
0.06 0.01 0
0.07 0.01 0
0.08 0.01 0
0.09 0.01 0
0.1 0.01 0
0.11 0.01 0
0.12 0.01 0
0.13 0.01 0
0.14 0.01 0
0.15 0.01 0
0.16 0.01 0
0.17 0.01 0
0.18 0.01 0
0.19 0.01 0
0.2 0.01 0
0.21 0.01 0
0.22 0.01 0
0.23 0.01 0
0.24 0.01 0
0.25 0.01 0
0.26 0.01 0
0.27 0.01 0
0.28 0.01 0
0.29 0.01 0
0.3 0.01 0
0.31 0.01 0
0.32 0.01 0
0.33 0.01 0
0.34 0.01 0
0.35 0.01 0
0.36 0.01 0
0.37 0.01 0
0.38 0.01 0
0.39 0.01 0
0.4 0.01 0
0.41 0.01 0
0.42 0.01 0
0.43 0.01 0
0.44 0.01 0
0.45 0.01 0
0.46 0.01 0
0.47 0.01 0
0.48 0.01 0
0.49 0.01 0
0.5 0.01 0
0.51 0.01 0
0.52 0.01 0
0.53 0.01 0
0.54 0.01 0
0.55 0.01 0
0.56 0.01 0
0.57 0.01 0
0.58 0.01 0
0.59 0.01 0
0.6 0.01 0
0.61 0.01 0
0 0.02 0
0.01 0.02 0
0.02 0.02 0
0.03 0.02 0
0.04 0.02 0
0.05 0.02 0
0.06 0.02 0
0.07 0.02 0
0.08 0.02 0
0.09 0.02 0
0.1 0.02 0
0.11 0.02 0
0.12 0.02 0
0.13 0.02 0
0.14 0.02 0
0.15 0.02 0
0.16 0.02 0
0.17 0.02 0
0.18 0.02 0
0.19 0.02 0
0.2 0.02 0
0.21 0.02 0
0.22 0.02 0
0.23 0.02 0
0.24 0.02 0
0.25 0.02 0
0.26 0.02 0
0.27 0.02 0
0.28 0.02 0
0.29 0.02 0
0.3 0.02 0
0.31 0.02 0
0.32 0.02 0
0.33 0.02 0
0.34 0.02 0
0.35 0.02 0
0.36 0.02 0
0.37 0.02 0
0.38 0.02 0
0.39 0.02 0
0.4 0.02 0
0.41 0.02 0
0.42 0.02 0
0.43 0.02 0
0.44 0.02 0
0.45 0.02 0
0.46 0.02 0
0.47 0.02 0
0.48 0.02 0
0.49 0.02 0
0.5 0.02 0
0.51 0.02 0
0.52 0.02 0
0.53 0.02 0
0.54 0.02 0
0.55 0.02 0
0.56 0.02 0
0.57 0.02 0
0.58 0.02 0
0.59 0.02 0
0.6 0.02 0
0.61 0.02 0
0 0.03 0
0.01 0.03 0
0.02 0.03 0
0.03 0.03 0
0.04 0.03 0
0.05 0.03 0
0.06 0.03 0
0.07 0.03 0
0.08 0.03 0
0.09 0.03 0
0.1 0.03 0
0.11 0.03 0
0.12 0.03 0
0.13 0.03 0
0.14 0.03 0
0.15 0.03 0
0.16 0.03 0
0.17 0.03 0
0.18 0.03 0
0.19 0.03 0
0.2 0.03 0
0.21 0.03 0
0.22 0.03 0
0.23 0.03 0
0.24 0.03 0
0.25 0.03 0
0.26 0.03 0
0.27 0.03 0
0.28 0.03 0
0.29 0.03 0
0.3 0.03 0
0.31 0.03 0
0.32 0.03 0
0.33 0.03 0
0.34 0.03 0
0.35 0.03 0
0.36 0.03 0
0.37 0.03 0
0.38 0.03 0
0.39 0.03 0
0.4 0.03 0
0.41 0.03 0
0.42 0.03 0
0.43 0.03 0
0.44 0.03 0
0.45 0.03 0
0.46 0.03 0
0.47 0.03 0
0.48 0.03 0
0.49 0.03 0
0.5 0.03 0
0.51 0.03 0
0.52 0.03 0
0.53 0.03 0
0.54 0.03 0
0.55 0.03 0
0.56 0.03 0
0.57 0.03 0
0.58 0.03 0
0.59 0.03 0
0.6 0.03 0
0.61 0.03 0
0 0.04 0
0.01 0.04 0
0.02 0.04 0
0.03 0.04 0
0.04 0.04 0
0.05 0.04 0
0.06 0.04 0
0.07 0.04 0
0.08 0.04 0
0.09 0.04 0
0.1 0.04 0
0.11 0.04 0
0.12 0.04 0
0.13 0.04 0
0.14 0.04 0
0.15 0.04 0
0.16 0.04 0
0.17 0.04 0
0.18 0.04 0
0.19 0.04 0
0.2 0.04 0
0.21 0.04 0
0.22 0.04 0
0.23 0.04 0
0.24 0.04 0
0.25 0.04 0
0.26 0.04 0
0.27 0.04 0
0.28 0.04 0
0.29 0.04 0
0.3 0.04 0
0.31 0.04 0
0.32 0.04 0
0.33 0.04 0
0.34 0.04 0
0.35 0.04 0
0.36 0.04 0
0.37 0.04 0
0.38 0.04 0
0.39 0.04 0
0.4 0.04 0
0.41 0.04 0
0.42 0.04 0
0.43 0.04 0
0.44 0.04 0
0.45 0.04 0
0.46 0.04 0
0.47 0.04 0
0.48 0.04 0
0.49 0.04 0
0.5 0.04 0
0.51 0.04 0
0.52 0.04 0
0.53 0.04 0
0.54 0.04 0
0.55 0.04 0
0.56 0.04 0
0.57 0.04 0
0.58 0.04 0
0.59 0.04 0
0.6 0.04 0
0.61 0.04 0
0 0.05 0
0.01 0.05 0
0.02 0.05 0
0.03 0.05 0
0.04 0.05 0
0.05 0.05 0
0.06 0.05 0
0.07 0.05 0
0.08 0.05 0
0.09 0.05 0
0.1 0.05 0
0.11 0.05 0
0.12 0.05 0
0.13 0.05 0
0.14 0.05 0
0.15 0.05 0
0.16 0.05 0
0.17 0.05 0
0.18 0.05 0
0.19 0.05 0
0.2 0.05 0
0.21 0.05 0
0.22 0.05 0
0.23 0.05 0
0.24 0.05 0
0.25 0.05 0
0.26 0.05 0
0.27 0.05 0
0.28 0.05 0
0.29 0.05 0
0.3 0.05 0
0.31 0.05 0
0.32 0.05 0
0.33 0.05 0
0.34 0.05 0
0.35 0.05 0
0.36 0.05 0
0.37 0.05 0
0.38 0.05 0
0.39 0.05 0
0.4 0.05 0
0.41 0.05 0
0.42 0.05 0
0.43 0.05 0
0.44 0.05 0
0.45 0.05 0
0.46 0.05 0
0.47 0.05 0
0.48 0.05 0
0.49 0.05 0
0.5 0.05 0
0.51 0.05 0
0.52 0.05 0
0.53 0.05 0
0.54 0.05 0
0.55 0.05 0
0.56 0.05 0
0.57 0.05 0
0.58 0.05 0
0.59 0.05 0
0.6 0.05 0
0.61 0.05 0
0 0.06 0
0.01 0.06 0
0.02 0.06 0
0.03 0.06 0
0.04 0.06 0
0.05 0.06 0
0.06 0.06 0
0.07 0.06 0
0.08 0.06 0
0.09 0.06 0
0.1 0.06 0
0.11 0.06 0
0.12 0.06 0
0.13 0.06 0
0.14 0.06 0
0.15 0.06 0
0.16 0.06 0
0.17 0.06 0
0.18 0.06 0
0.19 0.06 0
0.2 0.06 0
0.21 0.06 0
0.22 0.06 0
0.23 0.06 0
0.24 0.06 0
0.25 0.06 0
0.26 0.06 0
0.27 0.06 0
0.28 0.06 0
0.29 0.06 0
0.3 0.06 0
0.31 0.06 0
0.32 0.06 0
0.33 0.06 0
0.34 0.06 0
0.35 0.06 0
0.36 0.06 0
0.37 0.06 0
0.38 0.06 0
0.39 0.06 0
0.4 0.06 0
0.41 0.06 0
0.42 0.06 0
0.43 0.06 0
0.44 0.06 0
0.45 0.06 0
0.46 0.06 0
0.47 0.06 0
0.48 0.06 0
0.49 0.06 0
0.5 0.06 0
0.51 0.06 0
0.52 0.06 0
0.53 0.06 0
0.54 0.06 0
0.55 0.06 0
0.56 0.06 0
0.57 0.06 0
0.58 0.06 0
0.59 0.06 0
0.6 0.06 0
0.61 0.06 0
0 0.07 0
0.01 0.07 0
0.02 0.07 0
0.03 0.07 0
0.04 0.07 0
0.05 0.07 0
0.06 0.07 0
0.07 0.07 0
0.08 0.07 0
0.09 0.07 0
0.1 0.07 0
0.11 0.07 0
0.12 0.07 0
0.13 0.07 0
0.14 0.07 0
0.15 0.07 0
0.16 0.07 0
0.17 0.07 0
0.18 0.07 0
0.19 0.07 0
0.2 0.07 0
0.21 0.07 0
0.22 0.07 0
0.23 0.07 0
0.24 0.07 0
0.25 0.07 0
0.26 0.07 0
0.27 0.07 0
0.28 0.07 0
0.29 0.07 0
0.3 0.07 0
0.31 0.07 0
0.32 0.07 0
0.33 0.07 0
0.34 0.07 0
0.35 0.07 0
0.36 0.07 0
0.37 0.07 0
0.38 0.07 0
0.39 0.07 0
0.4 0.07 0
0.41 0.07 0
0.42 0.07 0
0.43 0.07 0
0.44 0.07 0
0.45 0.07 0
0.46 0.07 0
0.47 0.07 0
0.48 0.07 0
0.49 0.07 0
0.5 0.07 0
0.51 0.07 0
0.52 0.07 0
0.53 0.07 0
0.54 0.07 0
0.55 0.07 0
0.56 0.07 0
0.57 0.07 0
0.58 0.07 0
0.59 0.07 0
0.6 0.07 0
0.61 0.07 0
0 0.08 0
0.01 0.08 0
0.02 0.08 0
0.03 0.08 0
0.04 0.08 0
0.05 0.08 0
0.06 0.08 0
0.07 0.08 0
0.08 0.08 0
0.09 0.08 0
0.1 0.08 0
0.11 0.08 0
0.12 0.08 0
0.13 0.08 0
0.14 0.08 0
0.15 0.08 0
0.16 0.08 0
0.17 0.08 0
0.18 0.08 0
0.19 0.08 0
0.2 0.08 0
0.21 0.08 0
0.22 0.08 0
0.23 0.08 0
0.24 0.08 0
0.25 0.08 0
0.26 0.08 0
0.27 0.08 0
0.28 0.08 0
0.29 0.08 0
0.3 0.08 0
0.31 0.08 0
0.32 0.08 0
0.33 0.08 0
0.34 0.08 0
0.35 0.08 0
0.36 0.08 0
0.37 0.08 0
0.38 0.08 0
0.39 0.08 0
0.4 0.08 0
0.41 0.08 0
0.42 0.08 0
0.43 0.08 0
0.44 0.08 0
0.45 0.08 0
0.46 0.08 0
0.47 0.08 0
0.48 0.08 0
0.49 0.08 0
0.5 0.08 0
0.51 0.08 0
0.52 0.08 0
0.53 0.08 0
0.54 0.08 0
0.55 0.08 0
0.56 0.08 0
0.57 0.08 0
0.58 0.08 0
0.59 0.08 0
0.6 0.08 0
0.61 0.08 0
0 0.09 0
0.01 0.09 0
0.02 0.09 0
0.03 0.09 0
0.04 0.09 0
0.05 0.09 0
0.06 0.09 0
0.07 0.09 0
0.08 0.09 0
0.09 0.09 0
0.1 0.09 0
0.11 0.09 0
0.12 0.09 0
0.13 0.09 0
0.14 0.09 0
0.15 0.09 0
0.16 0.09 0
0.17 0.09 0
0.18 0.09 0
0.19 0.09 0
0.2 0.09 0
0.21 0.09 0
0.22 0.09 0
0.23 0.09 0
0.24 0.09 0
0.25 0.09 0
0.26 0.09 0
0.27 0.09 0
0.28 0.09 0
0.29 0.09 0
0.3 0.09 0
0.31 0.09 0
0.32 0.09 0
0.33 0.09 0
0.34 0.09 0
0.35 0.09 0
0.36 0.09 0
0.37 0.09 0
0.38 0.09 0
0.39 0.09 0
0.4 0.09 0
0.41 0.09 0
0.42 0.09 0
0.43 0.09 0
0.44 0.09 0
0.45 0.09 0
0.46 0.09 0
0.47 0.09 0
0.48 0.09 0
0.49 0.09 0
0.5 0.09 0
0.51 0.09 0
0.52 0.09 0
0.53 0.09 0
0.54 0.09 0
0.55 0.09 0
0.56 0.09 0
0.57 0.09 0
0.58 0.09 0
0.59 0.09 0
0.6 0.09 0
0.61 0.09 0
0 0.1 0
0.01 0.1 0
0.02 0.1 0
0.03 0.1 0
0.04 0.1 0
0.05 0.1 0
0.06 0.1 0
0.07 0.1 0
0.08 0.1 0
0.09 0.1 0
0.1 0.1 0
0.11 0.1 0
0.12 0.1 0
0.13 0.1 0
0.14 0.1 0
0.15 0.1 0
0.16 0.1 0
0.17 0.1 0
0.18 0.1 0
0.19 0.1 0
0.2 0.1 0
0.21 0.1 0
0.22 0.1 0
0.23 0.1 0
0.24 0.1 0
0.25 0.1 0
0.26 0.1 0
0.27 0.1 0
0.28 0.1 0
0.29 0.1 0
0.3 0.1 0
0.31 0.1 0
0.32 0.1 0
0.33 0.1 0
0.34 0.1 0
0.35 0.1 0
0.36 0.1 0
0.37 0.1 0
0.38 0.1 0
0.39 0.1 0
0.4 0.1 0
0.41 0.1 0
0.42 0.1 0
0.43 0.1 0
0.44 0.1 0
0.45 0.1 0
0.46 0.1 0
0.47 0.1 0
0.48 0.1 0
0.49 0.1 0
0.5 0.1 0
0.51 0.1 0
0.52 0.1 0
0.53 0.1 0
0.54 0.1 0
0.55 0.1 0
0.56 0.1 0
0.57 0.1 0
0.58 0.1 0
0.59 0.1 0
0.6 0.1 0
0.61 0.1 0
0 0.11 0
0.01 0.11 0
0.02 0.11 0
0.03 0.11 0
0.04 0.11 0
0.05 0.11 0
0.06 0.11 0
0.07 0.11 0
0.08 0.11 0
0.09 0.11 0
0.1 0.11 0
0.11 0.11 0
0.12 0.11 0
0.13 0.11 0
0.14 0.11 0
0.15 0.11 0
0.16 0.11 0
0.17 0.11 0
0.18 0.11 0
0.19 0.11 0
0.2 0.11 0
0.21 0.11 0
0.22 0.11 0
0.23 0.11 0
0.24 0.11 0
0.25 0.11 0
0.26 0.11 0
0.27 0.11 0
0.28 0.11 0
0.29 0.11 0
0.3 0.11 0
0.31 0.11 0
0.32 0.11 0
0.33 0.11 0
0.34 0.11 0
0.35 0.11 0
0.36 0.11 0
0.37 0.11 0
0.38 0.11 0
0.39 0.11 0
0.4 0.11 0
0.41 0.11 0
0.42 0.11 0
0.43 0.11 0
0.44 0.11 0
0.45 0.11 0
0.46 0.11 0
0.47 0.11 0
0.48 0.11 0
0.49 0.11 0
0.5 0.11 0
0.51 0.11 0
0.52 0.11 0
0.53 0.11 0
0.54 0.11 0
0.55 0.11 0
0.56 0.11 0
0.57 0.11 0
0.58 0.11 0
0.59 0.11 0
0.6 0.11 0
0.61 0.11 0
0 0.12 0
0.01 0.12 0
0.02 0.12 0
0.03 0.12 0
0.04 0.12 0
0.05 0.12 0
0.06 0.12 0
0.07 0.12 0
0.08 0.12 0
0.09 0.12 0
0.1 0.12 0
0.11 0.12 0
0.12 0.12 0
0.13 0.12 0
0.14 0.12 0
0.15 0.12 0
0.16 0.12 0
0.17 0.12 0
0.18 0.12 0
0.19 0.12 0
0.2 0.12 0
0.21 0.12 0
0.22 0.12 0
0.23 0.12 0
0.24 0.12 0
0.25 0.12 0
0.26 0.12 0
0.27 0.12 0
0.28 0.12 0
0.29 0.12 0
0.3 0.12 0
0.31 0.12 0
0.32 0.12 0
0.33 0.12 0
0.34 0.12 0
0.35 0.12 0
0.36 0.12 0
0.37 0.12 0
0.38 0.12 0
0.39 0.12 0
0.4 0.12 0
0.41 0.12 0
0.42 0.12 0
0.43 0.12 0
0.44 0.12 0
0.45 0.12 0
0.46 0.12 0
0.47 0.12 0
0.48 0.12 0
0.49 0.12 0
0.5 0.12 0
0.51 0.12 0
0.52 0.12 0
0.53 0.12 0
0.54 0.12 0
0.55 0.12 0
0.56 0.12 0
0.57 0.12 0
0.58 0.12 0
0.59 0.12 0
0.6 0.12 0
0.61 0.12 0
0 0.13 0
0.01 0.13 0
0.02 0.13 0
0.03 0.13 0
0.04 0.13 0
0.05 0.13 0
0.06 0.13 0
0.07 0.13 0
0.08 0.13 0
0.09 0.13 0
0.1 0.13 0
0.11 0.13 0
0.12 0.13 0
0.13 0.13 0
0.14 0.13 0
0.15 0.13 0
0.16 0.13 0
0.17 0.13 0
0.18 0.13 0
0.19 0.13 0
0.2 0.13 0
0.21 0.13 0
0.22 0.13 0
0.23 0.13 0
0.24 0.13 0
0.25 0.13 0
0.26 0.13 0
0.27 0.13 0
0.28 0.13 0
0.29 0.13 0
0.3 0.13 0
0.31 0.13 0
0.32 0.13 0
0.33 0.13 0
0.34 0.13 0
0.35 0.13 0
0.36 0.13 0
0.37 0.13 0
0.38 0.13 0
0.39 0.13 0
0.4 0.13 0
0.41 0.13 0
0.42 0.13 0
0.43 0.13 0
0.44 0.13 0
0.45 0.13 0
0.46 0.13 0
0.47 0.13 0
0.48 0.13 0
[...]
POINT_DATA 93248

SCALARS w double
LOOKUP_TABLE default
0
0
0
0
0
0
0
0
0
0
0
0
0
-0.0266251
0
0
0
0
0
0
0
0
0
0
0
0
-0.0420641
0
0
0
0
0
-0.0394462
0
0
0
0
0
0
0
0
0
0
0
0
0
-0.0375885
0
0
0
0
0
0
0
0
0
0
0
0
0
0
0
0
-0.0134461
-0.022205
-0.0273274
-0.029009
-0.0289871
-0.0294301
-0.0302782
-0.0312195
-0.0319239
-0.032365
-0.0326667
-0.0327544
-0.0329465
-0.0331402
-0.0333212
-0.0334412
-0.0335851
-0.0337338
-0.0338785
-0.0327004
-0.0326206
-0.0328358
-0.0330159
-0.0330996
-0.0331234
-0.0331186
-0.0331001
-0.0330724
-0.0330347
-0.0329796
-0.0328875
-0.0327306
-0.0326617
-0.0325196
-0.0320744
-0.0312784
-0.0303818
-0.0307677
-0.0388074
-0.0328507
-0.0335827
-0.0338829
-0.0338923
-0.0341504
-0.04769
-0.033113
-0.0329931
-0.0330063
-0.0332645
-0.0336262
-0.0341528
-0.0322085
-0.0331932
-0.0476142
-0.033871
-0.0335633
-0.0321052
-0.0325277
-0.0324612
-0.0315299
0
0
-0.015514
-0.0320598
-0.0381447
-0.0397983
-0.039113
-0.0392005
-0.0410348
-0.0434785
-0.045461
-0.0466885
-0.047549
-0.0477919
-0.0483001
-0.0486411
-0.0489498
-0.0491414
-0.0494444
-0.0497665
-0.0506937
-0.0477264
-0.0479896
-0.0496359
-0.048699
-0.0488304
-0.0488759
-0.0488783
-0.0488597
-0.0488286
-0.0487859
-0.0487249
-0.0486152
-0.0483316
-0.0483178
-0.0482487
-0.0475873
-0.0465525
-0.0441259
-0.0407812
-0.0546175
-0.0531769
-0.0517214
-0.0506699
-0.0500525
-0.050027
-0.0503594
-0.0497548
-0.0490153
-0.0488317
-0.0490493
-0.0491274
-0.0477977
-0.0485327
-0.0489875
-0.0496795
-0.0495283
-0.049465
-0.0483334
-0.0483911
-0.0478298
-0.0455855
0
0
-0.0152637
-0.0313687
-0.03865
-0.0408718
-0.0289871
-0.0399059
-0.0418373
-0.0445521
-0.0468389
-0.0482132
-0.0495103
-0.0505205
-0.0506854
-0.0507557
-0.0507621
-0.0509693
-0.051489
-0.0515417
-0.051772
-0.0513961
-0.0509523
-0.0508478
-0.0508587
-0.0508769
-0.0508781
-0.0508648
-0.0508412
-0.0508099
-0.0507723
-0.0507326
-0.0507138
-0.0508017
-0.0492331
-0.0505937
-0.0496111
-0.0489776
-0.0478203
-0.0469658
-0.0523046
-0.0535007
-0.0530817
-0.0524491
-0.0517612
-0.0518036
-0.0521975
-0.0509598
-0.0506607
-0.0504314
-0.0511114
-0.0510124
-0.0508682
-0.0507604
-0.050901
-0.0511194
-0.0511644
-0.0512112
-0.0511635
-0.0507303
-0.0498476
-0.047194
0
0
-0.0149524
-0.0305189
-0.0294403
-0.0399726
-0.0397859
-0.0400683
-0.0418038
-0.0443089
-0.0464662
-0.0478711
-0.0488971
-0.0496138
-0.0499274
-0.0500399
-0.0500042
-0.0500667
-0.0498217
-0.0501246
-0.0503904
-0.0504597
-0.0503826
-0.0503187
-0.0502852
-0.0502621
-0.0502402
-0.0502155
-0.0501871
-0.050155
-0.0501193
-0.0500813
-0.0500465
-0.0500156
-0.0498464
-0.0497952
-0.0493991
-0.0490554
-0.0486828
-0.0486861
-0.0503813
-0.0512254
-0.0512722
-0.0510399
-0.0507781
-0.0507622
-0.0508707
-0.0505354
-0.0501969
-0.0500243
-0.0501916
-0.0501782
-0.0501363
-0.0501186
-0.0501733
-0.0502517
-0.050294
-0.0503246
-0.0503125
-0.0500736
-0.0492019
-0.0465364
0
0
-0.014772
-0.0300105
-0.037174
-0.0395448
-0.0395459
-0.039948
-0.0416799
-0.0440674
-0.0461038
-0.0474493
-0.0483073
-0.0488521
-0.0491412
-0.0492153
-0.0478905
-0.0492239
-0.0492897
-0.0494296
-0.0495772
-0.0496547
-0.0496586
-0.0496359
-0.0496078
-0.0495799
-0.0495518
-0.0495223
-0.0494916
-0.0494593
-0.0494247
-0.0493849
-0.0493311
-0.0492331
-0.0490237
-0.0490089
-0.0489211
-0.048813
-0.0487409
-0.0488657
-0.049401
-0.0497829
-0.0498893
-0.0498463
-0.0497685
-0.0497527
-0.0498306
-0.0500732
-0.0495897
-0.0493916
-0.0493774
-0.0493667
-0.0493595
-0.0493758
-0.0494262
-0.0494756
-0.0495012
-0.0495048
-0.0494661
-0.049257
-0.0483938
-0.0458413
0
0
-0.0146689
-0.0297452
-0.0369059
-0.0391812
-0.0392506
-0.0397932
-0.0414839
-0.0438296
-0.0458221
-0.0471362
-0.0479245
-0.048398
-0.0486666
-0.0487892
-0.0487564
-0.0488093
-0.0489967
-0.0481831
-0.0491611
-0.049203
-0.0491977
-0.0491772
-0.0491514
-0.0491233
-0.0490938
-0.0490614
-0.0490294
-0.0489985
-0.0489677
-0.0489326
-0.0488777
-0.0487481
-0.0483178
-0.0485317
-0.0485942
-0.0485932
-0.0486013
-0.0486861
-0.0488751
-0.0490356
-0.0491097
-0.0491161
-0.0490816
-0.0490156
-0.0488313
-0.0483106
-0.0485891
-0.0487407
-0.0487977
-0.0488048
-0.0488054
-0.0488429
-0.048943
-0.0490095
-0.0490233
-0.0489943
-0.0488885
-0.0485293
-0.0474156
-0.0451445
0
0
-0.0146062
-0.0295887
-0.0366931
-0.0389146
-0.0390096
-0.0397797
-0.0412244
-0.0435403
-0.0455618
-0.0468645
-0.0476435
-0.0481043
-0.0483592
-0.0484794
-0.0484358
-0.0481827
-0.0487892
-0.0490282
-0.0490299
-0.0489704
-0.0489154
-0.0488801
-0.0488522
-0.0488242
-0.0487951
-0.0487576
-0.0487246
-0.0486973
-0.0486756
-0.048658
-0.0486423
-0.0486953
-0.0490556
-0.0487362
-0.0485501
-0.0484627
-0.0484459
-0.0484816
-0.048554
-0.0486231
-0.0486652
-0.0486782
-0.048652
-0.0486
-0.048478
-0.0482707
-0.0483362
-0.0484076
-0.0484231
-0.0483917
-0.0483505
-0.0483964
-0.0486689
-0.0487994
-0.048792
-0.0487194
-0.0485218
-0.0477229
-0.0324612
-0.0445672
0
0
-0.0145649
-0.029482
-0.0365367
-0.0387108
-0.038782
-0.0394291
-0.0411926
-0.043525
-0.0454538
-0.0467135
-0.047473
-0.047952
-0.0481762
-0.0482705
-0.0480726
-0.0468935
-0.0453545
-0.0491111
-0.0489807
-0.0488247
-0.0487123
-0.0486692
-0.0486436
-0.0486166
-0.0485905
-0.0485404
-0.0485075
-0.0484861
-0.0484799
-0.0484868
-0.0484621
-0.0484689
-0.0485574
-0.0484615
-0.0483603
-0.0483028
-0.0482903
-0.0483055
-0.0483352
-0.0483656
-0.0483869
-0.0483941
-0.0483821
-0.0483519
-0.0482945
-0.0482204
-0.0482091
-0.0481986
-0.0481426
-0.0480133
-0.04782
-0.047781
-0.0486069
-0.0488661
-0.0487836
-0.0486662
-0.0486038
-0.0485031
-0.0470873
-0.0447727
0
0
-0.0145358
-0.0294046
-0.0364201
-0.0385566
-0.0386137
-0.0392482
-0.0411425
-0.0434891
-0.0453839
-0.0466141
-0.0473856
-0.0477919
-0.0481742
-0.0482645
-0.0482186
-0.0479606
-0.0485256
-0.048765
-0.0487304
-0.048633
-0.0485174
-0.0485159
-0.048497
-0.0484635
-0.0484155
-0.0483757
-0.048341
-0.0483236
-0.0483435
-0.0484115
-0.0483411
-0.0482837
-0.0482612
-0.0482173
-0.0481741
-0.0481437
-0.0481508
-0.0481632
-0.048175
-0.0481869
-0.0481965
-0.0482006
-0.048196
-0.0481814
-0.048155
-0.0481208
-0.0480896
-0.0480348
-0.0479064
-0.0476148
-0.0470538
-0.0453271
-0.0489352
-0.0492897
-0.0489587
-0.0486753
-0.0485424
-0.0483814
-0.0474253
-0.0448207
0
0
-0.0145146
-0.0293475
-0.0363308
-0.0384238
-0.0384812
-0.0391389
-0.0410809
-0.0434382
-0.0453183
-0.0465304
-0.047276
-0.0477694
-0.0480458
-0.0482171
-0.0483224
-0.0483377
-0.048491
-0.0485637
-0.0485457
-0.0484981
-0.0485654
-0.0484993
-0.0484289
-0.0483575
-0.0479677
-0.0482266
-0.0481873
-0.0481658
-0.048215
-0.0484245
-0.0482807
-0.0481709
-0.0480937
-0.0480502
-0.0480227
-0.0479921
-0.048031
-0.048049
-0.04805
-0.0480503
-0.0480534
-0.0480567
-0.0480575
-0.0480529
-0.048041
-0.0480206
-0.0479869
-0.0479162
-0.0477469
-0.0473303
-0.0464169
-0.0453271
-0.0501259
-0.0498798
-0.0491257
-0.0486689
-0.0484697
-0.0482772
-0.0474212
-0.044804
0
0
-0.0144999
-0.0293077
-0.0362667
-0.0382844
-0.0383767
-0.0390656
-0.0410306
-0.0433913
-0.045263
-0.0464646
-0.0471983
-0.047664
-0.0479666
-0.048193
-0.0484331
-0.0484799
-0.0484897
-0.0484736
-0.0484256
-0.048331
-0.0484549
-0.0484155
-0.0483434
-0.0482644
-0.0481784
-0.0481026
-0.0480238
-0.0479582
-0.0479469
-0.0480839
-0.0484233
-0.0481173
-0.0479636
-0.0479149
-0.0479022
-0.0478902
-0.0478845
-0.0479412
-0.0479367
-0.0479314
-0.0479325
-0.0479369
-0.047945
-0.0479497
-0.0479479
-0.0479374
-0.0479123
-0.0478568
-0.0477326
-0.0474658
-0.0470193
-0.0468528
-0.0488401
-0.0490963
-0.0487719
-0.0485022
-0.0483677
-0.0481972
-0.0473743
-0.0447694
0
0
-0.0144908
-0.0292868
-0.0362619
-0.0384509
-0.0384483
-0.0390778
-0.0410176
-0.0433642
-0.0452228
-0.0464124
-0.0471395
-0.0475984
-0.0479033
-0.0481541
-0.0485951
-0.0485081
-0.0484356
-0.0483842
-0.0483379
-0.0482946
-0.0483162
-0.0482951
-0.0482415
-0.0481674
-0.0480747
-0.0479616
-0.0478229
-0.0476662
-0.0474975
-0.0473977
-0.0469608
-0.0473041
-0.0475579
-0.0476993
-0.0477653
-0.0477875
-0.0477916
-0.0478067
-0.0478065
-0.0478076
-0.0478138
-0.0478165
-0.0478427
-0.0478612
-0.0478706
-0.0478711
-0.0478607
-0.0478341
-0.0477773
-0.0476608
-0.0475251
-0.047585
-0.0482398
-0.0484548
-0.0483966
-0.0483123
-0.0482646
-0.0481289
-0.0473265
-0.0447327
0
0
-0.0144841
-0.0292685
-0.0362296
-0.0383558
-0.0383827
-0.0390323
-0.0409833
-0.0433315
-0.0451869
-0.0463655
-0.0470928
-0.047544
-0.0478203
-0.0479391
-0.0477149
-0.0479436
-0.0481064
-0.0481855
-0.0481924
-0.0482013
-0.0482155
-0.0482025
-0.0481572
-0.0480807
-0.0479677
-0.0478029
-0.0475625
-0.0472215
-0.0466589
-0.0467809
-0.0468943
-0.0471784
-0.0474251
-0.0475812
-0.0476597
-0.0476861
-0.0476858
-0.0476727
-0.0476627
-0.0476688
-0.0476814
-0.0471882
-0.0477356
-0.0477802
-0.0478038
-0.0478161
-0.0478213
-0.0478249
-0.0478294
-0.0477787
-0.0477503
-0.0478175
-0.0480365
-0.0481493
-0.0481725
-0.0481786
-0.0481935
-0.0480762
-0.0472859
-0.0446995
0
0
-0.0144804
-0.0292595
-0.0362098
-0.0387108
-0.0383441
-0.0389921
-0.0409497
-0.0433034
-0.0451636
-0.046363
-0.0470748
-0.0475144
-0.0477833
-0.0479185
-0.047908
-0.0479965
-0.048087
-0.0481198
-0.0480479
-0.048088
-0.0481316
-0.0481345
-0.0480945
-0.0480109
-0.047871
-0.0476342
-0.0472083
-0.0463513
-0.0436257
-0.0451898
-0.0463122
-0.046955
-0.0473069
-0.0474878
-0.0475656
-0.0475798
-0.0476848
-0.0475067
-0.0474693
-0.0474881
-0.0475383
-0.0475888
-0.0476574
-0.0477091
-0.0477445
-0.0477671
-0.0477829
-0.0478065
-0.0478794
-0.0478157
-0.0478142
-0.0478748
-0.048001
-0.0480328
-0.0480606
-0.0481032
-0.0485293
-0.0480459
-0.0472555
-0.0446722
0
0
-0.0144822
-0.0292702
-0.0362125
-0.0382872
-0.0382999
-0.0389555
-0.0409221
-0.0432827
-0.0451455
-0.0463374
-0.0470527
-0.0474926
-0.0477661
-0.0479276
-0.0480088
-0.0480796
-0.0481307
-0.0481161
-0.0478473
-0.0480141
-0.0480957
-0.0481053
-0.0480597
-0.0479668
-0.0478051
-0.0474997
-0.0467892
-0.0443376
0.0270872
-0.0412124
-0.0451635
-0.0466025
-0.0471735
-0.0474016
-0.0474754
-0.0474576
-0.0473741
-0.0472421
-0.047124
-0.0471924
-0.0473273
-0.0474561
-0.0475613
-0.0476379
-0.04769
-0.0477208
-0.0477334
-0.047719
-0.047643
-0.0477209
-0.0477886
-0.0478903
-0.0489352
-0.0480103
-0.0480059
-0.0480378
-0.0481028
-0.0480123
-0.0472342
-0.0446519
0
0
-0.0144906
-0.029321
-0.0362514
-0.0382889
-0.0382827
-0.0389268
-0.0409046
-0.0432754
-0.0451424
-0.0463321
-0.0470457
-0.0474821
-0.0477554
-0.0479286
-0.0480407
-0.0481218
-0.0481871
-0.0482768
-0.0485889
-0.048405
-0.0482621
-0.0481564
-0.0480646
-0.0479565
-0.0477994
-0.0475343
-0.0470303
-0.0459408
-0.0432328
-0.0449932
-0.0462588
-0.0469249
-0.0472434
-0.0473753
-0.0474041
-0.0473265
-0.0471226
-0.0467612
-0.0462351
-0.0465651
-0.0469714
-0.0472621
-0.0474489
-0.0475674
-0.0476432
-0.0476831
-0.0477004
-0.0476945
-0.0476623
-0.0476703
-0.0477391
-0.0478205
-0.0479171
-0.047933
-0.047999
-0.0479884
-0.0480883
-0.0480121
-0.0472292
-0.0446383
0
0
-0.0144898
-0.0294032
-0.0362584
-0.0382544
-0.0382337
-0.0388746
-0.0409031
-0.0432946
-0.0451643
-0.0463497
-0.0470583
-0.0474837
-0.0477455
-0.0479165
-0.0480427
-0.0481367
-0.0482043
-0.0482673
-0.0483684
-0.0483187
-0.0482305
-0.0481441
-0.0480583
-0.0479597
-0.0478278
-0.0476336
-0.0473352
-0.0468882
-0.0463262
-0.0465899
-0.0469453
-0.0471918
-0.0473171
-0.0473497
-0.0473522
-0.047202
-0.046777
-0.0457112
-0.0428247
-0.0448977
-0.0462972
-0.0469915
-0.0473278
-0.0475032
-0.0476085
-0.0476532
-0.0476759
-0.0476736
-0.0476297
-0.0475468
-0.047662
-0.0477615
-0.0478304
-0.0479089
-0.050294
-0.0479315
-0.0481472
-0.0480533
-0.0472398
-0.0446286
0
0
-0.0144019
-0.0289249
-0.0358755
-0.0379749
-0.0380607
-0.0391389
-0.0409596
-0.0433598
-0.0452108
-0.0463837
-0.0470925
-0.0474955
-0.0477266
-0.0478781
-0.0480282
-0.0481486
-0.0482214
-0.0482536
-0.0482694
-0.0482394
-0.048186
-0.048123
-0.0480526
-0.0479695
-0.0478642
-0.0477255
-0.0475425
-0.047299
-0.0470286
-0.0471011
-0.0472438
-0.0473373
-0.0473484
-0.0472813
-0.0473522
-0.0471506
-0.0464234
-0.0435863
0.0327951
-0.040969
-0.0453037
-0.0467177
-0.0472357
-0.0474545
-0.0475534
-0.0476218
-0.0476582
-0.0476654
-0.0476042
-0.0473381
-0.0476154
-0.0477346
-0.0477825
-0.0478013
-0.0478028
-0.0476663
-0.0482817
-0.0481049
-0.0472462
-0.044521
0
0
-0.0144031
-0.0290135
-0.0358906
-0.0379063
-0.0380304
-0.0389289
-0.0410119
-0.0433801
-0.0452194
-0.0463957
-0.0471577
-0.0475127
-0.0476673
-0.047762
-0.047998
-0.0481883
-0.0482754
-0.048274
-0.0482479
-0.0482096
-0.0481637
-0.0481118
-0.048052
-0.0479812
-0.0478948
-0.0477877
-0.0476517
-0.0474868
-0.0470957
-0.0472971
-0.0474086
-0.0474366
-0.0473615
-0.047146
-0.047475
-0.0472881
-0.0467602
-0.0455496
-0.0425883
-0.0447273
-0.0462465
-0.0469534
-0.0472919
-0.047466
-0.0475593
-0.0476159
-0.0476577
-0.0477092
-0.0478271
-0.0481584
-0.0479038
-0.0478008
-0.047775
-0.0477749
-0.0477793
-0.047806
-0.0480755
-0.0479985
-0.047192
-0.0445834
0
0
-0.0144182
-0.029084
-0.0359428
-0.0378068
-0.0380216
-0.0392135
-0.0410947
-0.0433752
-0.0451855
-0.0463753
-0.0472867
-0.0474782
-0.0474754
-0.0474235
-0.0479879
-0.0483118
-0.0484031
-0.0483179
-0.048257
-0.048205
-0.0481573
-0.048109
-0.0480555
-0.0479923
-0.0479148
-0.0478147
-0.047654
-0.0477384
-0.0480794
-0.0478328
-0.0476774
-0.0475743
-0.0474747
-0.0473603
-0.0474265
-0.0473315
-0.0470693
-0.0466375
-0.0460978
-0.0464382
-0.0468815
-0.0471882
-0.0473848
-0.047508
-0.0475813
-0.0476137
-0.0476448
-0.0476945
-0.0477815
-0.0479092
-0.0478453
-0.0477714
-0.0477435
-0.0477558
-0.0478062
-0.0478705
-0.0479829
-0.047917
-0.047142
-0.0445598
0
0
-0.0144311
-0.029133
-0.036063
-0.0383339
-0.0382099
-0.0383952
-0.0405361
-0.0430516
-0.0450112
-0.046198
-0.0465857
-0.0469915
-0.0469339
-0.0467049
-0.0481819
-0.0485708
-0.0485789
-0.0483253
-0.048281
-0.048222
-0.0481661
-0.0481152
-0.0480641
-0.0480045
-0.0479254
-0.047771
-0.044604
-0.0476258
-0.0478432
-0.0478055
-0.0477132
-0.0476243
-0.0475364
-0.0474531
-0.0474326
-0.0473751
-0.0472623
-0.0471135
-0.0469996
-0.0470709
-0.0472171
-0.0473603
-0.0474851
-0.0475709
-0.0476252
-0.0476045
-0.0476123
-0.047656
-0.0477234
-0.0477977
-0.0477983
-0.0477097
-0.0476728
-0.0477007
-0.0478277
-0.0479049
-0.0479605
-0.0478818
-0.0471106
-0.0445383
0
0
-0.014436
-0.0291462
-0.036066
-0.038189
-0.0381679
-0.0386812
-0.0406825
-0.0431392
-0.0451047
-0.0463857
-0.0468996
-0.0470891
-0.046666
-0.0473136
-0.0481167
-0.0484709
-0.0485816
-0.0486777
-0.0484714
-0.0483068
-0.0482005
-0.048133
-0.048082
-0.0480259
-0.0479586
-0.0478712
-0.047721
-0.0477793
-0.0478071
-0.0477729
-0.0477093
-0.0476292
-0.047529
-0.047404
-0.0473949
-0.0473767
-0.0473572
-0.047324
-0.0473056
-0.047335
-0.0473991
-0.0474823
-0.0479497
-0.0476562
-0.047711
-0.0475683
-0.0475501
-0.0476028
-0.0476859
-0.0477955
-0.0478419
-0.0476192
-0.0475462
-0.0475723
-0.0478841
-0.04796
-0.0479769
-0.0478809
-0.0470978
-0.0445226
0
0
-0.0144366
-0.0291463
-0.0360543
-0.0381273
-0.0381514
-0.0388132
-0.040844
-0.0433115
-0.0453814
-0.0471644
-0.0474514
-0.0475498
-0.0475596
-0.0482541
-0.0484077
-0.0484725
-0.0484693
-0.0484573
-0.0483592
-0.0482607
-0.0481874
-0.0481399
-0.0481111
-0.0480578
-0.0479943
-0.0479324
-0.0478797
-0.0478702
-0.0478168
-0.0477657
-0.0477037
-0.0476087
-0.0474307
-0.046984
-0.0471898
-0.0472272
-0.0473522
-0.0474086
-0.0474349
-0.0474622
-0.0475008
-0.0475522
-0.0476241
-0.0477163
-0.0478405
-0.0474758
-0.047471
-0.0475406
-0.0476441
-0.0478522
-0.0480068
-0.0474951
-0.0474077
-0.0473601
-0.0480289
-0.0480309
-0.0480095
-0.0479142
-0.0471031
-0.0445126
0
0
-0.014436
-0.0291442
-0.0360481
-0.0381133
-0.0381599
-0.038881
-0.0410074
-0.0434944
-0.0458402
-0.0596482
-0.0485701
-0.0480699
-0.0479826
-0.0481684
-0.0482702
-0.0483117
-0.0483227
-0.0483033
-0.0482584
-0.0482079
-0.0481666
-0.0481486
-0.0481772
-0.0481072
-0.0480257
-0.0479673
-0.0479373
-0.0479507
-0.0478212
-0.0477674
-0.0477072
-0.0475839
-0.0471962
-0.0325196
-0.0465987
-0.0443255
-0.047233
-0.0474288
-0.0474968
-0.0475305
-0.0475613
-0.047597
-0.0476337
-0.0476789
-0.0477092
-0.0475552
-0.0475055
-0.0475019
-0.0475439
-0.0478686
-0.0479947
-0.0476677
-0.0475544
-0.0475696
-0.0478564
-0.0479445
-0.0480101
-0.0480074
-0.0471277
-0.0445035
0
0
-0.0144352
-0.0291421
-0.0360456
-0.0381123
-0.0381725
-0.0389385
-0.0433315
-0.0435974
-0.0455848
-0.0473858
-0.0476549
-0.0477825
-0.0479039
-0.0480412
-0.0481365
-0.048194
-0.0486744
-0.0482302
-0.0482032
-0.0481722
-0.0481436
-0.0481451
-0.0482953
-0.0481264
-0.0480201
-0.0479683
-0.0479488
-0.0479557
-0.047871
-0.0478089
-0.0477575
-0.0476498
-0.0474551
-0.0469936
-0.0472229
-0.047277
-0.0474326
-0.0475128
-0.0475513
-0.0475767
-0.0476062
-0.0476436
-0.0476493
-0.0476496
-0.0476399
-0.047578
-0.0475246
-0.0474503
-0.0473563
-0.0479633
-0.0481548
-0.0477287
-0.0476547
-0.0476711
-0.0477789
-0.047864
-0.0479864
-0.0481843
-0.047129
-0.0444785
0
0
-0.0144347
-0.0291406
-0.0360442
-0.0381109
-0.0381669
-0.0389047
-0.0410315
-0.0434452
-0.0453663
-0.046643
-0.0472524
-0.047589
-0.047803
-0.0479537
-0.0480569
-0.0481247
-0.0481705
-0.0481825
-0.048172
-0.0481454
-0.0481045
-0.0480307
-0.0477857
-0.0478429
-0.0478714
-0.0479177
-0.0479362
-0.0478954
-0.047872
-0.0478409
-0.0484621
-0.0477351
-0.0476215
-0.0475043
-0.0475068
-0.0475187
-0.0475503
-0.0475735
-0.0475891
-0.0476076
-0.047648
-0.0477262
-0.0476847
-0.0476425
-0.0476145
-0.0475821
-0.0475485
-0.0475051
-0.0474742
-0.0476193
-0.0474254
-0.0476996
-0.0476892
-0.0476964
-0.0477349
-0.0477606
-0.0477035
-0.0473147
-0.046857
-0.0444075
0
0
-0.0144354
-0.0291405
-0.0360447
-0.0381101
-0.0381598
-0.0388817
-0.0409481
-0.0434714
-0.0453404
-0.0465014
-0.0471276
-0.0474915
-0.0477257
-0.0478858
-0.0479977
-0.0480756
-0.048137
-0.0481684
-0.0481611
-0.0481307
-0.0480864
-0.0482415
-0.0479327
-0.047826
-0.0477849
-0.047913
-0.0479915
-0.0479799
-0.0479323
-0.0478761
-0.0478322
-0.0477629
-0.0476988
-0.0476454
-0.0476209
-0.0476103
-0.0476084
-0.047608
-0.0476086
-0.0476172
-0.0476645
-0.0478536
-0.0476975
-0.047626
-0.0475948
-0.0475756
-0.047559
-0.047543
-0.0475381
-0.0475709
-0.0475394
-0.0476329
-0.0476633
-0.0476841
-0.0477125
-0.0477398
-0.047735
-0.0475557
-0.0468834
-0.0443897
0
0
-0.0144389
-0.0291455
-0.0360516
-0.0381122
-0.0381528
-0.0388608
-0.0409239
-0.0436587
-0.0453649
-0.0465034
-0.0470524
-0.0474041
-0.0476462
-0.047817
-0.0479376
-0.0480186
-0.0481276
-0.0481949
-0.0481734
-0.0481225
-0.0480563
-0.0480042
-0.0479217
-0.0477766
-0.0475742
-0.0479783
-0.0481343
-0.0481105
-0.0480179
-0.0479232
-0.047849
-0.0477886
-0.0477394
-0.0477002
-0.0476723
-0.0476525
-0.0476377
-0.0476248
-0.0476109
-0.0475884
-0.0475247
-0.0473115
-0.0474668
-0.0475364
-0.0475561
-0.0475556
-0.0475502
-0.0475464
-0.0475498
-0.0475643
-0.0475735
-0.0476103
-0.0476388
-0.0476655
-0.047698
-0.047744
-0.0481972
-0.04767
-0.0469197
-0.044388
0
0
-0.0144495
-0.0291656
-0.036079
-0.0381194
-0.0381436
-0.0388174
-0.0407473
-0.0427609
-0.044867
-0.0463618
-0.0468596
-0.0472741
-0.0475622
-0.0477509
-0.0478799
-0.0479006
-0.0481611
-0.0483194
-0.0482222
-0.0481193
-0.0479962
-0.0479547
-0.0478873
-0.047675
-0.0471232
-0.0482346
-0.0483533
-0.0482352
-0.0480842
-0.0479572
-0.0478682
-0.0478071
-0.0477625
-0.0477272
-0.0476983
-0.0476739
-0.047652
-0.0476313
-0.0476095
-0.0475819
-0.0475358
-0.0474606
-0.0474938
-0.047524
-0.0475327
-0.0475299
-0.0475251
-0.0475242
-0.04753
-0.0475432
-0.0475609
-0.0475868
-0.0476142
-0.047644
-0.0476802
-0.0477272
-0.0477754
-0.0476858
-0.0469295
-0.044386
0
0
-0.0144752
-0.0292298
-0.0361593
-0.0381414
-0.0381469
-0.0388177
-0.0407634
-0.0430199
-0.0449308
-0.0462281
-0.0468956
-0.0473097
-0.0475752
-0.0477327
-0.0492239
-0.0475447
-0.0483387
-0.0486689
-0.0483129
-0.0481488
-0.0479045
-0.0479523
-0.0479318
-0.0478342
-0.0476714
-0.0480293
-0.0481535
-0.0481197
-0.0480273
-0.047936
-0.0478656
-0.0478145
-0.0477755
-0.0477429
-0.0477132
-0.0476848
-0.0476572
-0.0476294
-0.0476012
-0.0475724
-0.0475448
-0.0475229
-0.0475229
-0.0475194
-0.0475073
-0.0474925
-0.0474817
-0.047479
-0.0474859
-0.0475021
-0.0475252
-0.0475533
-0.0475839
-0.0476173
-0.0476579
-0.0477098
-0.0477552
-0.0476777
-0.0469301
-0.0443826
0
0
-0.0145199
-0.0294478
-0.0362698
-0.0382352