# vtk DataFile Version 2.0
FlowField
ASCII
DATASET STRUCTURED_GRID
DIMENSIONS 62 47 32 
POINTS 93248 double
0 0 0
0.01 0 0
0.02 0 0
0.03 0 0
0.04 0 0
0.05 0 0
0.06 0 0
0.07 0 0
0.08 0 0
0.09 0 0
0.1 0 0
0.11 0 0
0.12 0 0
0.13 0 0
0.14 0 0
0.15 0 0
0.16 0 0
0.17 0 0
0.18 0 0
0.19 0 0
0.2 0 0
0.21 0 0
0.22 0 0
0.23 0 0
0.24 0 0
0.25 0 0
0.26 0 0
0.27 0 0
0.28 0 0
0.29 0 0
0.3 0 0
0.31 0 0
0.32 0 0
0.33 0 0
0.34 0 0
0.35 0 0
0.36 0 0
0.37 0 0
0.38 0 0
0.39 0 0
0.4 0 0
0.41 0 0
0.42 0 0
0.43 0 0
0.44 0 0
0.45 0 0
0.46 0 0
0.47 0 0
0.48 0 0
0.49 0 0
0.5 0 0
0.51 0 0
0.52 0 0
0.53 0 0
0.54 0 0
0.55 0 0
0.56 0 0
0.57 0 0
0.58 0 0
0.59 0 0
0.6 0 0
0.61 0 0
0 0.01 0
0.01 0.01 0
0.02 0.01 0
0.03 0.01 0
0.04 0.01 0
0.05 0.01 0
0.06 0.01 0
0.07 0.01 0
0.08 0.01 0
0.09 0.01 0
0.1 0.01 0
0.11 0.01 0
0.12 0.01 0
0.13 0.01 0
0.14 0.01 0
0.15 0.01 0
0.16 0.01 0
0.17 0.01 0
0.18 0.01 0
0.19 0.01 0
0.2 0.01 0
0.21 0.01 0
0.22 0.01 0
0.23 0.01 0
0.24 0.01 0
0.25 0.01 0
0.26 0.01 0
0.27 0.01 0
0.28 0.01 0
0.29 0.01 0
0.3 0.01 0
0.31 0.01 0
0.32 0.01 0
0.33 0.01 0
0.34 0.01 0
0.35 0.01 0
0.36 0.01 0
0.37 0.01 0
0.38 0.01 0
0.39 0.01 0
0.4 0.01 0
0.41 0.01 0
0.42 0.01 0
0.43 0.01 0
0.44 0.01 0
0.45 0.01 0
0.46 0.01 0
0.47 0.01 0
0.48 0.01 0
0.49 0.01 0
0.5 0.01 0
0.51 0.01 0
0.52 0.01 0
0.53 0.01 0
0.54 0.01 0
0.55 0.01 0
0.56 0.01 0
0.57 0.01 0
0.58 0.01 0
0.59 0.01 0
0.6 0.01 0
0.61 0.01 0
0 0.02 0
0.01 0.02 0
0.02 0.02 0
0.03 0.02 0
0.04 0.02 0
0.05 0.02 0
0.06 0.02 0
0.07 0.02 0
0.08 0.02 0
0.09 0.02 0
0.1 0.02 0
0.11 0.02 0
0.12 0.02 0
0.13 0.02 0
0.14 0.02 0
0.15 0.02 0
0.16 0.02 0
0.17 0.02 0
0.18 0.02 0
0.19 0.02 0
0.2 0.02 0
0.21 0.02 0
0.22 0.02 0
0.23 0.02 0
0.24 0.02 0
0.25 0.02 0
0.26 0.02 0
0.27 0.02 0
0.28 0.02 0
0.29 0.02 0
0.3 0.02 0
0.31 0.02 0
0.32 0.02 0
0.33 0.02 0
0.34 0.02 0
0.35 0.02 0
0.36 0.02 0
0.37 0.02 0
0.38 0.02 0
0.39 0.02 0
0.4 0.02 0
0.41 0.02 0
0.42 0.02 0
0.43 0.02 0
0.44 0.02 0
0.45 0.02 0
0.46 0.02 0
0.47 0.02 0
0.48 0.02 0
0.49 0.02 0
0.5 0.02 0
0.51 0.02 0
0.52 0.02 0
0.53 0.02 0
0.54 0.02 0
0.55 0.02 0
0.56 0.02 0
0.57 0.02 0
0.58 0.02 0
0.59 0.02 0
0.6 0.02 0
0.61 0.02 0
0 0.03 0
0.01 0.03 0
0.02 0.03 0
0.03 0.03 0
0.04 0.03 0
0.05 0.03 0
0.06 0.03 0
0.07 0.03 0
0.08 0.03 0
0.09 0.03 0
0.1 0.03 0
0.11 0.03 0
0.12 0.03 0
0.13 0.03 0
0.14 0.03 0
0.15 0.03 0
0.16 0.03 0
0.17 0.03 0
0.18 0.03 0
0.19 0.03 0
0.2 0.03 0
0.21 0.03 0
0.22 0.03 0
0.23 0.03 0
0.24 0.03 0
0.25 0.03 0
0.26 0.03 0
0.27 0.03 0
0.28 0.03 0
0.29 0.03 0
0.3 0.03 0
0.31 0.03 0
0.32 0.03 0
0.33 0.03 0
0.34 0.03 0
0.35 0.03 0
0.36 0.03 0
0.37 0.03 0
0.38 0.03 0
0.39 0.03 0
0.4 0.03 0
0.41 0.03 0
0.42 0.03 0
0.43 0.03 0
0.44 0.03 0
0.45 0.03 0
0.46 0.03 0
0.47 0.03 0
0.48 0.03 0
0.49 0.03 0
0.5 0.03 0
0.51 0.03 0
0.52 0.03 0
0.53 0.03 0
0.54 0.03 0
0.55 0.03 0
0.56 0.03 0
0.57 0.03 0
0.58 0.03 0
0.59 0.03 0
0.6 0.03 0
0.61 0.03 0
0 0.04 0
0.01 0.04 0
0.02 0.04 0
0.03 0.04 0
0.04 0.04 0
0.05 0.04 0
0.06 0.04 0
0.07 0.04 0
0.08 0.04 0
0.09 0.04 0
0.1 0.04 0
0.11 0.04 0
0.12 0.04 0
0.13 0.04 0
0.14 0.04 0
0.15 0.04 0
0.16 0.04 0
0.17 0.04 0
0.18 0.04 0
0.19 0.04 0
0.2 0.04 0
0.21 0.04 0
0.22 0.04 0
0.23 0.04 0
0.24 0.04 0
0.25 0.04 0
0.26 0.04 0
0.27 0.04 0
0.28 0.04 0
0.29 0.04 0
0.3 0.04 0
0.31 0.04 0
0.32 0.04 0
0.33 0.04 0
0.34 0.04 0
0.35 0.04 0
0.36 0.04 0
0.37 0.04 0
0.38 0.04 0
0.39 0.04 0
0.4 0.04 0
0.41 0.04 0
0.42 0.04 0
0.43 0.04 0
0.44 0.04 0
0.45 0.04 0
0.46 0.04 0
0.47 0.04 0
0.48 0.04 0
0.49 0.04 0
0.5 0.04 0
0.51 0.04 0
0.52 0.04 0
0.53 0.04 0
0.54 0.04 0
0.55 0.04 0
0.56 0.04 0
0.57 0.04 0
0.58 0.04 0
0.59 0.04 0
0.6 0.04 0
0.61 0.04 0
0 0.05 0
0.01 0.05 0
0.02 0.05 0
0.03 0.05 0
0.04 0.05 0
0.05 0.05 0
0.06 0.05 0
0.07 0.05 0
0.08 0.05 0
0.09 0.05 0
0.1 0.05 0
0.11 0.05 0
0.12 0.05 0
0.13 0.05 0
0.14 0.05 0
0.15 0.05 0
0.16 0.05 0
0.17 0.05 0
0.18 0.05 0
0.19 0.05 0
0.2 0.05 0
0.21 0.05 0
0.22 0.05 0
0.23 0.05 0
0.24 0.05 0
0.25 0.05 0
0.26 0.05 0
0.27 0.05 0
0.28 0.05 0
0.29 0.05 0
0.3 0.05 0
0.31 0.05 0
0.32 0.05 0
0.33 0.05 0
0.34 0.05 0
0.35 0.05 0
0.36 0.05 0
0.37 0.05 0
0.38 0.05 0
0.39 0.05 0
0.4 0.05 0
0.41 0.05 0
0.42 0.05 0
0.43 0.05 0
0.44 0.05 0
0.45 0.05 0
0.46 0.05 0
0.47 0.05 0
0.48 0.05 0
0.49 0.05 0
0.5 0.05 0
0.51 0.05 0
0.52 0.05 0
0.53 0.05 0
0.54 0.05 0
0.55 0.05 0
0.56 0.05 0
0.57 0.05 0
0.58 0.05 0
0.59 0.05 0
0.6 0.05 0
0.61 0.05 0
0 0.06 0
0.01 0.06 0
0.02 0.06 0
0.03 0.06 0
0.04 0.06 0
0.05 0.06 0
0.06 0.06 0
0.07 0.06 0
0.08 0.06 0
0.09 0.06 0
0.1 0.06 0
0.11 0.06 0
0.12 0.06 0
0.13 0.06 0
0.14 0.06 0
0.15 0.06 0
0.16 0.06 0
0.17 0.06 0
0.18 0.06 0
0.19 0.06 0
0.2 0.06 0
0.21 0.06 0
0.22 0.06 0
0.23 0.06 0
0.24 0.06 0
0.25 0.06 0
0.26 0.06 0
0.27 0.06 0
0.28 0.06 0
0.29 0.06 0
0.3 0.06 0
0.31 0.06 0
0.32 0.06 0
0.33 0.06 0
0.34 0.06 0
0.35 0.06 0
0.36 0.06 0
0.37 0.06 0
0.38 0.06 0
0.39 0.06 0
0.4 0.06 0
0.41 0.06 0
0.42 0.06 0
0.43 0.06 0
0.44 0.06 0
0.45 0.06 0
0.46 0.06 0
0.47 0.06 0
0.48 0.06 0
0.49 0.06 0
0.5 0.06 0
0.51 0.06 0
0.52 0.06 0
0.53 0.06 0
0.54 0.06 0
0.55 0.06 0
0.56 0.06 0
0.57 0.06 0
0.58 0.06 0
0.59 0.06 0
0.6 0.06 0
0.61 0.06 0
0 0.07 0
0.01 0.07 0
0.02 0.07 0
0.03 0.07 0
0.04 0.07 0
0.05 0.07 0
0.06 0.07 0
0.07 0.07 0
0.08 0.07 0
0.09 0.07 0
0.1 0.07 0
0.11 0.07 0
0.12 0.07 0
0.13 0.07 0
0.14 0.07 0
0.15 0.07 0
0.16 0.07 0
0.17 0.07 0
0.18 0.07 0
0.19 0.07 0
0.2 0.07 0
0.21 0.07 0
0.22 0.07 0
0.23 0.07 0
0.24 0.07 0
0.25 0.07 0
0.26 0.07 0
0.27 0.07 0
0.28 0.07 0
0.29 0.07 0
0.3 0.07 0
0.31 0.07 0
0.32 0.07 0
0.33 0.07 0
0.34 0.07 0
0.35 0.07 0
0.36 0.07 0
0.37 0.07 0
0.38 0.07 0
0.39 0.07 0
0.4 0.07 0
0.41 0.07 0
0.42 0.07 0
0.43 0.07 0
0.44 0.07 0
0.45 0.07 0
0.46 0.07 0
0.47 0.07 0
0.48 0.07 0
0.49 0.07 0
0.5 0.07 0
0.51 0.07 0
0.52 0.07 0
0.53 0.07 0
0.54 0.07 0
0.55 0.07 0
0.56 0.07 0
0.57 0.07 0
0.58 0.07 0
0.59 0.07 0
0.6 0.07 0
0.61 0.07 0
0 0.08 0
0.01 0.08 0
0.02 0.08 0
0.03 0.08 0
0.04 0.08 0
0.05 0.08 0
0.06 0.08 0
0.07 0.08 0
0.08 0.08 0
0.09 0.08 0
0.1 0.08 0
0.11 0.08 0
0.12 0.08 0
0.13 0.08 0
0.14 0.08 0
0.15 0.08 0
0.16 0.08 0
0.17 0.08 0
0.18 0.08 0
0.19 0.08 0
0.2 0.08 0
0.21 0.08 0
0.22 0.08 0
0.23 0.08 0
0.24 0.08 0
0.25 0.08 0
0.26 0.08 0
0.27 0.08 0
0.28 0.08 0
0.29 0.08 0
0.3 0.08 0
0.31 0.08 0
0.32 0.08 0
0.33 0.08 0
0.34 0.08 0
0.35 0.08 0
0.36 0.08 0
0.37 0.08 0
0.38 0.08 0
0.39 0.08 0
0.4 0.08 0
0.41 0.08 0
0.42 0.08 0
0.43 0.08 0
0.44 0.08 0
0.45 0.08 0
0.46 0.08 0
0.47 0.08 0
0.48 0.08 0
0.49 0.08 0
0.5 0.08 0
0.51 0.08 0
0.52 0.08 0
0.53 0.08 0
0.54 0.08 0
0.55 0.08 0
0.56 0.08 0
0.57 0.08 0
0.58 0.08 0
0.59 0.08 0
0.6 0.08 0
0.61 0.08 0
0 0.09 0
0.01 0.09 0
0.02 0.09 0
0.03 0.09 0
0.04 0.09 0
0.05 0.09 0
0.06 0.09 0
0.07 0.09 0
0.08 0.09 0
0.09 0.09 0
0.1 0.09 0
0.11 0.09 0
0.12 0.09 0
0.13 0.09 0
0.14 0.09 0
0.15 0.09 0
0.16 0.09 0
0.17 0.09 0
0.18 0.09 0
0.19 0.09 0
0.2 0.09 0
0.21 0.09 0
0.22 0.09 0
0.23 0.09 0
0.24 0.09 0
0.25 0.09 0
0.26 0.09 0
0.27 0.09 0
0.28 0.09 0
0.29 0.09 0
0.3 0.09 0
0.31 0.09 0
0.32 0.09 0
0.33 0.09 0
0.34 0.09 0
0.35 0.09 0
0.36 0.09 0
0.37 0.09 0
0.38 0.09 0
0.39 0.09 0
0.4 0.09 0
0.41 0.09 0
0.42 0.09 0
0.43 0.09 0
0.44 0.09 0
0.45 0.09 0
0.46 0.09 0
0.47 0.09 0
0.48 0.09 0
0.49 0.09 0
0.5 0.09 0
0.51 0.09 0
0.52 0.09 0
0.53 0.09 0
0.54 0.09 0
0.55 0.09 0
0.56 0.09 0
0.57 0.09 0
0.58 0.09 0
0.59 0.09 0
0.6 0.09 0
0.61 0.09 0
0 0.1 0
0.01 0.1 0
0.02 0.1 0
0.03 0.1 0
0.04 0.1 0
0.05 0.1 0
0.06 0.1 0
0.07 0.1 0
0.08 0.1 0
0.09 0.1 0
0.1 0.1 0
0.11 0.1 0
0.12 0.1 0
0.13 0.1 0
0.14 0.1 0
0.15 0.1 0
0.16 0.1 0
0.17 0.1 0
0.18 0.1 0
0.19 0.1 0
0.2 0.1 0
0.21 0.1 0
0.22 0.1 0
0.23 0.1 0
0.24 0.1 0
0.25 0.1 0
0.26 0.1 0
0.27 0.1 0
0.28 0.1 0
0.29 0.1 0
0.3 0.1 0
0.31 0.1 0
0.32 0.1 0
0.33 0.1 0
0.34 0.1 0
0.35 0.1 0
0.36 0.1 0
0.37 0.1 0
0.38 0.1 0
0.39 0.1 0
0.4 0.1 0
0.41 0.1 0
0.42 0.1 0
0.43 0.1 0
0.44 0.1 0
0.45 0.1 0
0.46 0.1 0
0.47 0.1 0
0.48 0.1 0
0.49 0.1 0
0.5 0.1 0
0.51 0.1 0
0.52 0.1 0
0.53 0.1 0
0.54 0.1 0
0.55 0.1 0
0.56 0.1 0
0.57 0.1 0
0.58 0.1 0
0.59 0.1 0
0.6 0.1 0
0.61 0.1 0
0 0.11 0
0.01 0.11 0
0.02 0.11 0
0.03 0.11 0
0.04 0.11 0
0.05 0.11 0
0.06 0.11 0
0.07 0.11 0
0.08 0.11 0
0.09 0.11 0
0.1 0.11 0
0.11 0.11 0
0.12 0.11 0
0.13 0.11 0
0.14 0.11 0
0.15 0.11 0
0.16 0.11 0
0.17 0.11 0
0.18 0.11 0
0.19 0.11 0
0.2 0.11 0
0.21 0.11 0
0.22 0.11 0
0.23 0.11 0
0.24 0.11 0
0.25 0.11 0
0.26 0.11 0
0.27 0.11 0
0.28 0.11 0
0.29 0.11 0
0.3 0.11 0
0.31 0.11 0
0.32 0.11 0
0.33 0.11 0
0.34 0.11 0
0.35 0.11 0
0.36 0.11 0
0.37 0.11 0
0.38 0.11 0
0.39 0.11 0
0.4 0.11 0
0.41 0.11 0
0.42 0.11 0
0.43 0.11 0
0.44 0.11 0
0.45 0.11 0
0.46 0.11 0
0.47 0.11 0
0.48 0.11 0
0.49 0.11 0
0.5 0.11 0
0.51 0.11 0
0.52 0.11 0
0.53 0.11 0
0.54 0.11 0
0.55 0.11 0
0.56 0.11 0
0.57 0.11 0
0.58 0.11 0
0.59 0.11 0
0.6 0.11 0
0.61 0.11 0
0 0.12 0
0.01 0.12 0
0.02 0.12 0
0.03 0.12 0
0.04 0.12 0
0.05 0.12 0
0.06 0.12 0
0.07 0.12 0
0.08 0.12 0
0.09 0.12 0
0.1 0.12 0
0.11 0.12 0
0.12 0.12 0
0.13 0.12 0
0.14 0.12 0
0.15 0.12 0
0.16 0.12 0
0.17 0.12 0
0.18 0.12 0
0.19 0.12 0
0.2 0.12 0
0.21 0.12 0
0.22 0.12 0
0.23 0.12 0
0.24 0.12 0
0.25 0.12 0
0.26 0.12 0
0.27 0.12 0
0.28 0.12 0
0.29 0.12 0
0.3 0.12 0
0.31 0.12 0
0.32 0.12 0
0.33 0.12 0
0.34 0.12 0
0.35 0.12 0
0.36 0.12 0
0.37 0.12 0
0.38 0.12 0
0.39 0.12 0
0.4 0.12 0
0.41 0.12 0
0.42 0.12 0
0.43 0.12 0
0.44 0.12 0
0.45 0.12 0
0.46 0.12 0
0.47 0.12 0
0.48 0.12 0
0.49 0.12 0
0.5 0.12 0
0.51 0.12 0
0.52 0.12 0
0.53 0.12 0
0.54 0.12 0
0.55 0.12 0
0.56 0.12 0
0.57 0.12 0
0.58 0.12 0
0.59 0.12 0
0.6 0.12 0
0.61 0.12 0
0 0.13 0
0.01 0.13 0
0.02 0.13 0
0.03 0.13 0
0.04 0.13 0
0.05 0.13 0
0.06 0.13 0
0.07 0.13 0
0.08 0.13 0
0.09 0.13 0
0.1 0.13 0
0.11 0.13 0
0.12 0.13 0
0.13 0.13 0
0.14 0.13 0
0.15 0.13 0
0.16 0.13 0
0.17 0.13 0
0.18 0.13 0
0.19 0.13 0
0.2 0.13 0
0.21 0.13 0
0.22 0.13 0
0.23 0.13 0
0.24 0.13 0
0.25 0.13 0
0.26 0.13 0
0.27 0.13 0
0.28 0.13 0
0.29 0.13 0
0.3 0.13 0
0.31 0.13 0
0.32 0.13 0
0.33 0.13 0
0.34 0.13 0
0.35 0.13 0
0.36 0.13 0
0.37 0.13 0
0.38 0.13 0
0.39 0.13 0
0.4 0.13 0
0.41 0.13 0
0.42 0.13 0
0.43 0.13 0
0.44 0.13 0
0.45 0.13 0
0.46 0.13 0
0.47 0.13 0
0.48 0.13 0
[...]
POINT_DATA 93248

SCALARS u double
LOOKUP_TABLE default
0
0
0
0
0
0
0
0
0
0
0
0
0
0
0
0
0
0
0
0
0
0
0
0
0.302507
0
0
0
0
0
0
0
0.0422705
0.228254
0
0
0
0
0
0
0
0
0
0
0
0
0
0.0844126
0
0
0.0750001
0
0
0
0
0
0
0
0
0
0
0
0
0.416111
0.335991
0.259845
0.197749
0.151649
0.118848
0.0967951
0.0833416
0.0755967
0.0712761
0.0689152
0.0685782
0.0677563
0.0666373
0.065279
0.0639734
0.0623154
0.0602878
0.0569597
0.0587454
0.0579692
0.0551521
0.0531382
0.0512897
0.0495237
0.0478023
0.0460907
0.0443593
0.0425771
0.0407099
0.0388269
0.0376512
0.0357638
0.0333091
0.0310658
0.0298305
0.027378
0.0255147
0.162221
0.0178313
0.0191883
0.0194883
0.0200328
0.0221078
0.00507029
0.0105553
0.00970748
0.00866657
0.0065468
0.00435654
0.0308822
0.00203327
0.00412669
-0.0122032
-0.0113096
0.00739539
-0.0125048
-0.01632
-0.0228438
-0.0228438
0
0
0.489959
0.472339
0.445378
0.410691
0.376645
0.340746
0.308726
0.282462
0.263026
0.248992
0.238589
0.232695
0.226359
0.22063
0.215067
0.210054
0.204799
0.201088
0.338776
0.194682
0.187817
0.178235
0.173147
0.167784
0.162446
0.157155
0.151884
0.146603
0.141275
0.135836
0.130154
0.125897
0.120474
0.114521
0.109074
0.101921
0.0939543
-0.0300843
0.0829771
0.079435
0.075193
0.0716298
0.0683832
0.0641228
0.0540302
0.047135
0.0431912
0.0384535
0.0334268
0.0286505
0.0234754
0.0185418
0.0128649
0.00117374
-0.00462689
-0.0116311
-0.0163015
-0.0239562
-0.0324126
-0.0324126
0
0
0.484155
0.482777
0.48052
0.469216
0.46479
0.443898
0.423932
0.40479
0.386635
0.390544
0.356878
0.342483
0.331693
0.322237
0.313942
0.306349
0.297547
0.290005
0.281629
0.273195
0.266539
0.258622
0.251212
0.243765
0.236275
0.228769
0.22126
0.213749
0.206249
0.198836
0.191693
0.18309
0.176713
0.213841
0.162179
0.153472
0.146266
0.141796
0.133521
0.124709
0.116457
0.134436
0.10202
0.0946298
0.126931
0.0762194
0.0674437
0.0384535
0.0524517
0.0457953
0.0386467
0.0308822
0.0222188
0.0120406
0.00339456
-0.00509645
-0.0152525
-0.0236731
-0.0321495
-0.0321495
0
0
0.477059
0.471354
0.476581
0.47431
0.473213
0.467247
0.458759
0.448249
0.435833
0.421928
0.408015
0.393896
0.381261
0.369957
0.359513
0.349352
0.341285
0.332174
0.336617
0.313152
0.304376
0.295778
0.287338
0.278908
0.270446
0.261957
0.253453
0.244941
0.236431
0.227935
0.219408
0.210418
0.202196
0.193449
0.185436
0.177392
0.170016
0.163884
0.155146
0.145407
0.135483
0.125746
0.116899
0.107922
0.0981669
0.0883929
0.0796516
0.0714835
0.0628948
0.0544692
0.0459185
0.0369916
0.0275375
0.0176549
0.00805208
-0.00153634
-0.0116299
-0.0209963
-0.0301429
-0.0301429
0
0
0.474274
0.465198
0.462715
0.461527
0.461321
0.459811
0.45661
0.451381
0.443491
0.433157
0.421366
0.408949
0.396897
0.385533
0.374622
0.364868
0.355619
0.346253
0.336414
0.326894
0.317742
0.308794
0.299962
0.291166
0.282369
0.273556
0.264732
0.255897
0.247041
0.238134
0.229093
0.219849
0.211623
0.202814
0.194259
0.185964
0.178024
0.170264
0.161475
0.1519
0.141955
0.131984
0.122393
0.112959
0.103755
0.0969969
0.0843611
0.075712
0.0667637
0.0577672
0.0487026
0.0394501
0.0299016
0.0201668
0.0104669
0.000835615
-0.00871658
-0.0178716
-0.0275194
-0.0275194
0
0
0.473047
0.460962
0.453831
0.449713
0.447562
0.445921
0.444067
0.441432
0.436286
0.428753
0.419401
0.409016
0.398341
0.38785
0.377699
0.368466
0.358606
0.34962
0.33968
0.330244
0.321121
0.31216
0.303271
0.294408
0.285551
0.276679
0.267804
0.258922
0.250015
0.241038
0.231879
0.222231
0.214852
0.205744
0.196872
0.188281
0.179869
0.171393
0.162472
0.153101
0.143436
0.133645
0.123869
0.113949
0.103764
0.0960853
0.0867066
0.0773743
0.0681113
0.0589144
0.0497523
0.0405192
0.0310364
0.0214426
0.0119042
0.00253867
-0.00633431
-0.013485
-0.0176399
-0.0176399
0
0
0.472409
0.458472
0.448532
0.441729
0.437457
0.456962
0.433384
0.43039
0.426494
0.420806
0.413348
0.404725
0.395366
0.385648
0.375883
0.367332
0.357303
0.347864
0.338776
0.329917
0.321202
0.312475
0.303705
0.294901
0.286088
0.277245
0.268417
0.259593
0.250758
0.241918
0.233211
0.225001
0.214312
0.205596
0.197048
0.18852
0.179938
0.171206
0.162221
0.152977
0.14354
0.134968
0.124316
0.114581
0.10497
0.096334
0.0871979
0.0778857
0.0685729
0.059338
0.0502247
0.0411592
0.0317169
0.022238
0.0128868
0.00360363
-0.00596573
-0.0158733
-0.0121414
-0.0121414
0
0
0.47203
0.456962
0.445306
0.43659
0.430411
0.42621
0.423735
0.421328
0.418137
0.413441
0.407133
0.400023
0.391637
0.382374
0.371618
0.210054
0.351012
0.344077
0.336617
0.328664
0.320504
0.312046
0.303405
0.294666
0.282369
0.27711
0.268398
0.25968
0.250952
0.242173
0.233407
0.224647
0.21504
0.205974
0.197198
0.188502
0.179761
0.170902
0.161885
0.152709
0.143396
0.133972
0.124499
0.115008
0.105625
0.0965311
0.0873456
0.078051
0.0687131
0.0594118
0.0502867
0.0415041
0.0319803
0.0226678
0.0136746
0.00497582
-0.00347673
-0.0133001
-0.0183882
-0.0183882
0
0
0.471788
0.456
0.443256
0.433299
0.425893
0.420756
0.417481
0.414883
0.411832
0.407512
0.401534
0.396854
0.388468
0.380024
0.371444
0.364296
0.355187
0.345979
0.337201
0.328533
0.320253
0.311641
0.302964
0.294251
0.285646
0.276922
0.268246
0.259634
0.251066
0.242389
0.233457
0.224456
0.21528
0.206243
0.197341
0.188501
0.179634
0.170696
0.161665
0.152536
0.143312
0.134011
0.124664
0.115308
0.105996
0.0967587
0.0874979
0.0781628
0.0687303
0.059185
0.0495901
0.0411742
0.0314949
0.0226209
0.0140471
0.00557494
-0.00293222
-0.0119173
-0.0202288
-0.0202288
0
0
0.471627
0.455363
0.441892
0.431145
0.422939
0.41714
0.413284
0.410352
0.407211
0.403088
0.397793
0.392097
0.385132
0.37768
0.369935
0.362609
0.354334
0.345648
0.336972
0.328497
0.319573
0.310956
0.302328
0.293618
0.285287
0.276551
0.26795
0.259495
0.251249
0.252412
0.233643
0.224403
0.215354
0.206374
0.197423
0.188185
0.179541
0.170569
0.161548
0.152461
0.143306
0.134093
0.124831
0.115546
0.106267
0.0969969
0.0877049
0.0783438
0.0688389
0.0590359
0.048565
-0.00729661
0.0301212
0.0224938
0.0143582
0.00599375
-0.00253029
-0.0113299
-0.0204038
-0.0204038
0
0
0.471521
0.454941
0.440954
0.429729
0.420939
0.414622
0.410318
0.407059
0.403743
0.399644
0.394578
0.388794
0.382342
0.375537
0.367888
0.360354
0.352497
0.344316
0.335954
0.323512
0.318854
0.310325
0.301751
0.29313
0.284587
0.275975
0.26746
0.259126
0.251004
0.243033
0.23289
0.224188
0.215411
0.206502
0.197527
0.188534
0.179116
0.170516
0.161516
0.152468
0.143366
0.134225
0.125015
0.11577
0.106513
0.0972532
0.0879816
0.0786766
0.0693217
0.0600081
0.0509801
0.0427316
0.033014
0.0239164
0.0151818
0.00656583
-0.00207659
-0.0109057
-0.0201601
-0.0201601
0
0
0.471457
0.454701
0.440557
0.428675
0.419458
0.412757
0.408113
0.404572
0.401064
0.396904
0.391879
0.386146
0.379933
0.373689
0.365655
0.358371
0.350822
0.342974
0.334956
0.326812
0.318385
0.309851
0.301243
0.292582
0.283907
0.275247
0.266742
0.258504
0.250448
0.241305
0.234225
0.225229
0.216017
0.206822
0.197681
0.188599
0.179573
0.170569
0.161577
0.15255
0.143471
0.134436
0.125239
0.116004
0.106762
0.0975268
0.0883058
0.0790924
0.0698663
0.0608448
0.0521344
0.0436378
0.0343177
0.0250397
0.0160254
0.0072023
-0.00157659
-0.0104842
-0.0198213
-0.0198213
0
0
0.471408
0.454505
0.440087
0.427971
0.418445
0.411438
0.406504
0.402709
0.398995
0.394736
0.389656
0.38389
0.377537
0.370386
0.364528
0.357325
0.349722
0.341869
0.334068
0.326058
0.317772
0.309291
0.300673
0.291944
0.283126
0.274281
0.265648
0.257602
0.251235
0.242812
0.234458
0.225471
0.21623
0.206949
0.197716
0.188571
0.179516
0.170577
0.16167
0.152681
0.143508
0.134855
0.12552
0.116256
0.107013
0.0977978
0.0886314
0.0795116
0.070269
0.0613432
0.0525998
0.0438536
0.0347844
0.0256676
0.0166671
0.00779833
-0.00108442
-0.0100467
-0.019446
-0.019446
0
0
0.471373
0.454363
0.439813
0.427357
0.417689
0.41047
0.40531
0.401308
0.397451
0.392993
0.38784
0.382069
0.375809
0.369141
0.362726
0.355783
0.348365
0.340547
0.333221
0.325362
0.317128
0.308674
0.300048
0.291249
0.282228
0.272942
0.263556
0.25456
0.254794
0.245539
0.235686
0.22599
0.216429
0.206973
0.197627
0.188439
0.179318
0.170545
0.161847
0.152989
0.14396
0.134968
0.125757
0.116502
0.10725
0.0980315
0.0888877
0.0798841
0.0704937
0.0616808
0.0528971
0.0440571
0.0350046
0.0260409
0.017148
0.0084036
-0.00067723
-0.0095821
-0.0190186
-0.0190186
0
0
0.471349
0.45423
0.439491
0.427064
0.417175
0.409762
0.404413
0.400226
0.396192
0.391634
0.386405
0.380626
0.374452
0.367997
0.361416
0.354518
0.347199
0.339176
0.332662
0.324656
0.316395
0.307978
0.299401
0.290587
0.281383
0.271353
0.259049
0.239975
0.271368
0.250482
0.237401
0.226595
0.216567
0.206873
0.197363
0.188037
0.178982
0.170445
0.162233
0.153546
0.144504
0.135325
0.126058
0.116764
0.107469
0.0981977
0.0889341
0.0796596
0.0710595
0.0621357
0.0532566
0.0444808
0.035059
0.0263116
0.0174742
0.00876576
-6.1856e-05
-0.0089854
-0.0184497
-0.0184497
0
0
0.471364
0.454128
0.439289
0.426824
0.416823
0.409254
0.403742
0.399391
0.395206
0.390544
0.385243
0.379445
0.37332
0.366962
0.3604
0.353607
0.346658
0.339933
0.33103
0.323224
0.315314
0.307182
0.298797
0.290133
0.281105
0.271548
0.261359
0.25206
0.2553
0.24655
0.236256
0.226088
0.216188
0.206475
0.196836
0.187299
0.178102
0.169915
0.163244
0.154684
0.14537
0.135906
0.126459
0.117063
0.10769
0.0983795
0.0891053
0.0798948
0.0710195
0.0623498
0.0534891
0.0445603
0.03551
0.0267005
0.017627
0.0091084
0.000525799
-0.00818273
-0.0175257
-0.0175257
0
0
0.471454
0.454026
0.439182
0.426706
0.416662
0.408921
0.403261
0.398762
0.394446
0.38969
0.384294
0.378455
0.372359
0.366073
0.359559
0.352805
0.345852
0.338729
0.330723
0.322797
0.314841
0.306746
0.298463
0.289963
0.281236
0.272318
0.263457
0.255711
0.250823
0.243313
0.234405
0.224993
0.215444
0.205851
0.196062
0.186072
0.175971
0.167034
0.166809
0.157212
0.146803
0.136707
0.126931
0.117379
0.107899
0.0985642
0.0892728
0.0800014
0.0708825
0.0626076
0.0536959
0.0447014
0.0358661
0.027569
0.017056
0.0092275
0.00106369
-0.00700942
-0.015638
-0.015638
0
0
0.471162
0.454203
0.439296
0.426807
0.416797
0.408113
0.402939
0.398306
0.393896
0.389093
0.38353
0.377614
0.371544
0.365353
0.358865
0.352087
0.345071
0.337846
0.330238
0.322461
0.314557
0.306512
0.298313
0.289959
0.281484
0.272994
0.269776
0.256596
0.249724
0.241836
0.233143
0.224028
0.214679
0.205184
0.195239
0.184614
0.171843
0.15119
0.183451
0.162013
0.148507
0.137446
0.127297
0.117557
0.108121
0.09876
0.0894713
0.0801557
0.0706626
0.0629807
0.0537227
0.0446611
0.0357976
0.0270017
0.0175748
-0.00253029
0.00136273
-0.00556345
-0.0110021
0
0
0
0.471252
0.45361
0.439132
0.42678
0.416865
0.40859
0.402617
0.397942
0.393533
0.388832
0.382879
0.376864
0.370852
0.364807
0.358255
0.351382
0.344297
0.337144
0.32974
0.322116
0.314313
0.306351
0.298239
0.289997
0.281671
0.273336
0.26501
0.256402
0.249607
0.241111
0.232307
0.223278
0.214003
0.197216
0.194819
0.184852
0.174239
0.164365
0.167648
0.152536
0.147565
0.137238
0.127282
0.117616
0.108181
0.0988893
0.08975
0.0808425
0.0722608
0.0616817
0.0530009
0.0443376
0.0356344
0.0269184
0.018194
0.00988953
0.00151196
-0.00669524
-0.015508
-0.015508
0
0
0.471283
0.454035
0.438901
0.426786
0.417084
0.408154
0.402299
0.397661
0.39327
0.388855
0.382115
0.37622
0.370233
0.364246
0.357434
0.350482
0.343374
0.33652
0.329298
0.321796
0.314095
0.306223
0.298192
0.290025
0.28177
0.273577
0.265922
0.258244
0.24842
0.239978
0.231441
0.222718
0.213841
0.204905
0.195561
0.186094
0.176804
0.168658
0.163309
0.155423
0.146153
0.136553
0.126954
0.117476
0.108126
0.0989038
0.0898066
0.0808296
0.0718276
0.0621282
0.0530591
0.0442597
0.0355461
0.0268781
0.0182284
0.00969661
0.00104646
-0.00780934
-0.0173239
-0.0173239
0
0
0.471303
0.454111
0.439374
0.426146
0.415224
0.408447
0.402604
0.397744
0.392877
0.387045
0.382619
0.376401
0.369614
0.334824
0.3558
0.349406
0.34247
0.336204
0.328995
0.321546
0.313925
0.306139
0.29817
0.290036
0.28171
0.272929
0.266795
0.258008
0.248787
0.239945
0.231219
0.222493
0.213789
0.205118
0.196167
0.187129
0.178275
0.169967
0.162212
0.153929
0.14506
0.135882
0.126513
0.11723
0.107994
0.0988407
0.0897539
0.0807079
0.0716139
0.0623198
0.0531647
0.0442453
0.0354561
0.0267665
0.0180064
0.00929998
0.00050216
-0.00857502
-0.018183
-0.018183
0
0
0.471299
0.454077
0.439155
0.426219
0.415651
0.408124
0.402401
0.397626
0.39281
0.387372
0.382079
0.375853
0.353737
0.363457
0.356877
0.350174
0.343615
0.33585
0.328649
0.321338
0.313845
0.30615
0.298222
0.290133
0.281925
0.273678
0.266049
0.257595
0.248804
0.23997
0.231133
0.222325
0.213713
0.205522
0.196779
0.187916
0.179077
0.170441
0.16193
0.153291
0.144452
0.135519
0.125989
0.116959
0.107845
0.0987549
0.0896766
0.0806203
0.0715606
0.062398
0.0531767
0.0441749
0.0352529
0.0264889
0.0176416
0.0089118
6.71435e-05
-0.00912623
-0.0187206
-0.0187206
0
0
0.471292
0.454047
0.439073
0.426309
0.415957
0.408192
0.402417
0.397728
0.393092
0.387616
0.38221
0.376596
0.371513
0.363922
0.357272
0.350555
0.343686
0.336325
0.328977
0.32157
0.314049
0.306374
0.298374
0.290283
0.282146
0.273988
0.265862
0.257416
0.248761
0.23994
0.230976
0.221911
0.213076
0.206647
0.197617
0.188738
0.179645
0.17071
0.161866
0.153011
0.144081
0.135053
0.125847
0.116769
0.106693
0.0986288
0.089544
0.0805033
0.0715315
0.0624433
0.0548209
0.0440253
0.0348457
0.0138938
0.0171395
0.00863273
-0.00017716
-0.00959702
-0.0191645
-0.0191645
0
0
0.47129
0.454042
0.439077
0.426402
0.416158
0.408395
0.402614
0.398073
0.39396
0.387664
0.382524
0.376863
0.371166
0.36449
0.357794
0.351008
0.343859
0.33667
0.32935
0.321917
0.314392
0.306789
0.298549
0.290442
0.282364
0.274221
0.265989
0.258922
0.248849
0.239962
0.230789
0.221022
0.209066
0.211413
0.19846
0.18997
0.180147
0.170896
0.161856
0.152874
0.143864
0.13475
0.125603
0.116489
0.107372
0.0983131
0.0892584
0.0802275
0.0713234
0.0622477
0.052414
0.0437168
0.0349922
0.02635
0.0174282
0.00870324
-0.000106695
-0.0100968
-0.0195592
-0.0195592
0
0
0.47129
0.454049
0.439108
0.426491
0.416326
0.408641
0.402724
0.398172
0.393654
0.388075
0.382552
0.376878
0.370981
0.36469
0.358211
0.351705
0.343789
0.336942
0.329704
0.322262
0.314727
0.307311
0.29861
0.290695
0.282694
0.274526
0.26621
0.257543
0.248911
0.240107
0.230955
0.221718
0.212531
0.207103
0.198091
0.18928
0.180027
0.170862
0.161795
0.152786
0.143753
0.134505
0.125338
0.116233
0.107138
0.0980639
0.0889666
0.0797809
0.0616657
0.0621196
0.0517876
0.0436698
0.0349565
0.0261964
0.017317
0.00859702
0.000140496
-0.0106084
-0.0196666
-0.0196666
0
0
0.47129
0.454055
0.439133
0.426557
0.416441
0.408792
0.403085
0.39825
0.393567
0.388403
0.382943
0.377223
0.371271
0.365057
0.358623
0.351971
0.344749
0.337552
0.330172
0.32261
0.314825
0.306564
0.299551
0.291517
0.283334
0.274931
0.266347
0.257869
0.24922
0.240612
0.23107
0.222417
0.213853
0.206008
0.197467
0.188692
0.179711
0.17068
0.161667
0.152707
0.143749
0.134231
0.125077
0.116031
0.106979
0.0979155
0.0888369
0.0797398
0.0706129
0.0610134
0.0537147
0.0439623
0.034903
0.0259464
0.0169092
0.00769058
-0.00177973
-0.00883232
-0.018765
-0.018765
0
0
0.471286
0.454047
0.439135
0.426595
0.416537
0.408991
0.403596
0.398399
0.39372
0.388805
0.38349
0.377818
0.371852
0.365635
0.359195
0.352556
0.345513
0.338198
0.330702
0.323064
0.315328
0.307221
0.299401
0.291742
0.283677
0.275174
0.266545
0.257961
0.249335
0.240652
0.231699
0.222967
0.214352
0.205851
0.197192
0.188387
0.179464
0.17048
0.161486
0.152551
0.143805
0.133865
0.124931
0.115944
0.106897
0.0978288
0.0887608
0.0796958
0.0706193
0.0615133
0.0531241
0.0439547
0.0348466
0.0258086
0.0167687
0.00769657
-0.0013217
-0.00952142
-0.0189678
-0.0189678
0
0
0.471271
0.454006
0.439092
0.426593
0.416595
0.40916
0.404305
0.398364
0.394141
0.389512
0.384374
0.378709
0.372694
0.366404
0.359909
0.353394
0.346306
0.338818
0.331214
0.323512
0.31581
0.307906
0.299968
0.291846
0.283721
0.275026
0.266443
0.257934
0.249391
0.24077
0.232043
0.223324
0.214619
0.205902
0.197116
0.188246
0.179301
0.170298
0.161233
0.152048
0.142617
0.134537
0.125302
0.116055
0.10688
0.0977654
0.088693
0.0796478
0.0706213
0.0616351
0.0528026
0.0437899
0.0347468
0.0257325
0.0167675
0.007929
-0.00129304
-0.0099397
-0.0192942
-0.0192942
0
0
0.471236
0.453895
0.438981
0.426553
0.416573
0.408891
0.402552
0.399859
0.395749
0.393654
0.38575
0.379887
0.373712
0.367294
0.360501
0.354295
0.346905
0.339185
0.331568
0.323842
0.316338
0.308505
0.300378
0.291792
0.250935
0.274204
0.26624
0.258006
0.249577
0.241007
0.232335
0.223603
0.214828
0.206003
0.197122
0.188185
0.179198
0.170167
0.161093
0.151967
0.142839
0.134145
0.125096
0.115921
0.106762
0.0976563
0.0886005
0.0795794
0.0705803
0.0616032
0.0526491
0.0436551
0.0346479
0.0256621
0.0167167
0.00781334
-0.00116984
-0.010093
-0.0194857
-0.0194857
0
0
0.471176
0.45361
0.442062
0.426561
0.416691
0.409204
0.403632
0.400008
0.396201
0.391637
0.386453
0.380718
0.374612
0.368364
0.360101
0.354258
0.346273
0.346253
0.331667
0.324
0.31696
0.309089
0.301035
0.292869
0.284859
0.276107
0.267414
0.258779
0.250131
0.241439
0.232693
0.223896
0.215043
0.206129
0.197164
0.18816
0.179126
0.170069
0.161004
0.151952
0.142929
0.133947
0.124842
0.115686
0.10656
0.097491
0.0884752
0.0794923
0.0705207
0.0615479
0.0525647
0.0435642
0.034565
0.0255942
0.0166519
0.00772243
-0.00120538
-0.0101918
-0.0192942
-0.0195934
0
0
0.471227
0.452723
0.438158
0.426245
0.41675
0.409627
0.404496
0.400678
0.396929
0.392555
0.387467
0.381769
0.375563
0.368722
0.360009
0.204799
0.342424
0.337285
0.331368
0.324989
0.317052
0.309401
0.301551
0.293607
0.285288
0.276744
0.268108
0.259413
0.250675
0.241894
0.233073
0.224205
0.215277
0.206269
0.197216
0.188142
0.179054
0.16996
0.160889
0.151887
0.142928
0.133799
0.124574
0.115381
0.106282
0.0972701
0.0883206
0.0794003
0.0704709
0.0615147
0.0525241
0.0435068
0.0344961
0.0255361
0.0165857
0.00763002
-0.00133732
-0.013485
-0.0197712
-0.0197712
0
0
0.472478
0.450197
0.437523
0.426207
0.417085
0.410262
0.405405
0.401713
0.398085
0.393851
0.388852
0.383203
0.377044
0.370457
0.363568
0.35808
0.349798
0.341745
0.334064
0.326477
0.318465
0.310441
0.302394
0.294424
0.285617
0.277196
0.26863
0.259938
0.251156
0.242321
0.233446
0.22453
0.215542
0.206413
0.197256
0.188108
0.178958
0.1698
0.160669
0.151688
0.14284
0.133504
0.124112
0.114899
0.105882
0.0969787
0.0881415
0.0793259
0.0704622
0.0615349
0.0525378
0.0434844
0.0344349
0.025496
0.0147205
0.0075549
-0.00134994
-0.0103548
-0.0209229
-0.0198274
0
0
0.471382
0.452974
0.438651
0.427049
0.417963
0.411289
0.406613
0.403244
0.399735
0.395585
0.390641
0.385019
0.378896
0.372451
0.365829
0.359456
0.35195
0.344026
0.336024
0.327985
0.319804
0.311532
0.303138
0.294483
0.286608
0.278023
0.269296
0.260493
0.251619
0.242726
0.233812
0.224877
0.215873
0.206536
0.197262
0.188053
0.17884
0.169574
0.160213
0.151116
0.142433
0.13262
0.123103
0.114037
0.105278
0.0966007
0.0879514
0.0793103
0.070551
0.0616657
0.0526516
0.0435279
0.0343922
0.0255925
0.0165719
0.00754097
-0.00140685
-0.0104142
-0.0197942
-0.0197942
0
0
0.471293
0.454023
0.439684
0.42805
0.416662
0.412522
0.407999
0.405729
0.401965
0.397794
0.392861
0.387219
0.381008
0.366962
0.367583
0.360701
0.35328
0.345478
0.337461
0.329307
0.32103
0.312605
0.304069
0.295463
0.287088
0.278505
0.269776
0.260961
0.251996
0.243091
0.234152
0.225236
0.216322
0.206574
0.197232
0.188023
0.17876
0.169418
0.159307
0.149639
0.140643
0.130226
0.121159
0.112649
0.10443
0.0961923
0.0877946
0.0794111
0.0708722
0.0620446
0.0529751
0.0437345
0.0343722
0.0257006
0.0164821
0.00741289
-0.0015408
-0.0105444
-0.0199021
-0.0199021
0
0
0.471392
0.45456
0.440483
0.429104
0.420419
0.414245
0.410082
0.407247
0.404139
0.400281
0.395495
0.389847
0.383572
0.376908
0.369828
0.362473
0.354821
0.346912
0.338815
0.330582
0.322241
0.313651
0.304982
0.296314
0.287693
0.278998
0.270222
0.261365
0.252412
0.243431
0.234429
0.225486
0.216829
0.20642
0.197349
0.188168
0.178791
0.169122
0.158732
0.147011
0.0191883
0.125746
0.118883
0.110997
0.103288
0.0961099
0.0877662
0.0795145
0.0718478
0.0630196
0.0537014
0.0443251
0.0350782
0.0251489
0.0161047
0.00715196
-0.0017527
-0.0107252
-0.0200495
-0.0200495
0
0
0.471494
0.454958
0.441225
0.43023
0.421951
0.416233
0.412545
0.40991
0.407127
0.403461
0.39874
0.39294
0.38643
0.379449
0.372085
0.36443
0.356534