# vtk DataFile Version 2.0
FlowField
ASCII
DATASET STRUCTURED_GRID
DIMENSIONS 62 47 32 
POINTS 93248 double
0 0 0
0.01 0 0
0.02 0 0
0.03 0 0
0.04 0 0
0.05 0 0
0.06 0 0
0.07 0 0
0.08 0 0
0.09 0 0
0.1 0 0
0.11 0 0
0.12 0 0
0.13 0 0
0.14 0 0
0.15 0 0
0.16 0 0
0.17 0 0
0.18 0 0
0.19 0 0
0.2 0 0
0.21 0 0
0.22 0 0
0.23 0 0
0.24 0 0
0.25 0 0
0.26 0 0
0.27 0 0
0.28 0 0
0.29 0 0
0.3 0 0
0.31 0 0
0.32 0 0
0.33 0 0
0.34 0 0
0.35 0 0
0.36 0 0
0.37 0 0
0.38 0 0
0.39 0 0
0.4 0 0
0.41 0 0
0.42 0 0
0.43 0 0
0.44 0 0
0.45 0 0
0.46 0 0
0.47 0 0
0.48 0 0
0.49 0 0
0.5 0 0
0.51 0 0
0.52 0 0
0.53 0 0
0.54 0 0
0.55 0 0
0.56 0 0
0.57 0 0
0.58 0 0
0.59 0 0
0.6 0 0
0.61 0 0
0 0.01 0
0.01 0.01 0
0.02 0.01 0
0.03 0.01 0
0.04 0.01 0
0.05 0.01 0
0.06 0.01 0
0.07 0.01 0
0.08 0.01 0
0.09 0.01 0
0.1 0.01 0
0.11 0.01 0
0.12 0.01 0
0.13 0.01 0
0.14 0.01 0
0.15 0.01 0
0.16 0.01 0
0.17 0.01 0
0.18 0.01 0
0.19 0.01 0
0.2 0.01 0
0.21 0.01 0
0.22 0.01 0
0.23 0.01 0
0.24 0.01 0
0.25 0.01 0
0.26 0.01 0
0.27 0.01 0
0.28 0.01 0
0.29 0.01 0
0.3 0.01 0
0.31 0.01 0
0.32 0.01 0
0.33 0.01 0
0.34 0.01 0
0.35 0.01 0
0.36 0.01 0
0.37 0.01 0
0.38 0.01 0
0.39 0.01 0
0.4 0.01 0
0.41 0.01 0
0.42 0.01 0
0.43 0.01 0
0.44 0.01 0
0.45 0.01 0
0.46 0.01 0
0.47 0.01 0
0.48 0.01 0
0.49 0.01 0
0.5 0.01 0
0.51 0.01 0
0.52 0.01 0
0.53 0.01 0
0.54 0.01 0
0.55 0.01 0
0.56 0.01 0
0.57 0.01 0
0.58 0.01 0
0.59 0.01 0
0.6 0.01 0
0.61 0.01 0
0 0.02 0
0.01 0.02 0
0.02 0.02 0
0.03 0.02 0
0.04 0.02 0
0.05 0.02 0
0.06 0.02 0
0.07 0.02 0
0.08 0.02 0
0.09 0.02 0
0.1 0.02 0
0.11 0.02 0
0.12 0.02 0
0.13 0.02 0
0.14 0.02 0
0.15 0.02 0
0.16 0.02 0
0.17 0.02 0
0.18 0.02 0
0.19 0.02 0
0.2 0.02 0
0.21 0.02 0
0.22 0.02 0
0.23 0.02 0
0.24 0.02 0
0.25 0.02 0
0.26 0.02 0
0.27 0.02 0
0.28 0.02 0
0.29 0.02 0
0.3 0.02 0
0.31 0.02 0
0.32 0.02 0
0.33 0.02 0
0.34 0.02 0
0.35 0.02 0
0.36 0.02 0
0.37 0.02 0
0.38 0.02 0
0.39 0.02 0
0.4 0.02 0
0.41 0.02 0
0.42 0.02 0
0.43 0.02 0
0.44 0.02 0
0.45 0.02 0
0.46 0.02 0
0.47 0.02 0
0.48 0.02 0
0.49 0.02 0
0.5 0.02 0
0.51 0.02 0
0.52 0.02 0
0.53 0.02 0
0.54 0.02 0
0.55 0.02 0
0.56 0.02 0
0.57 0.02 0
0.58 0.02 0
0.59 0.02 0
0.6 0.02 0
0.61 0.02 0
0 0.03 0
0.01 0.03 0
0.02 0.03 0
0.03 0.03 0
0.04 0.03 0
0.05 0.03 0
0.06 0.03 0
0.07 0.03 0
0.08 0.03 0
0.09 0.03 0
0.1 0.03 0
0.11 0.03 0
0.12 0.03 0
0.13 0.03 0
0.14 0.03 0
0.15 0.03 0
0.16 0.03 0
0.17 0.03 0
0.18 0.03 0
0.19 0.03 0
0.2 0.03 0
0.21 0.03 0
0.22 0.03 0
0.23 0.03 0
0.24 0.03 0
0.25 0.03 0
0.26 0.03 0
0.27 0.03 0
0.28 0.03 0
0.29 0.03 0
0.3 0.03 0
0.31 0.03 0
0.32 0.03 0
0.33 0.03 0
0.34 0.03 0
0.35 0.03 0
0.36 0.03 0
0.37 0.03 0
0.38 0.03 0
0.39 0.03 0
0.4 0.03 0
0.41 0.03 0
0.42 0.03 0
0.43 0.03 0
0.44 0.03 0
0.45 0.03 0
0.46 0.03 0
0.47 0.03 0
0.48 0.03 0
0.49 0.03 0
0.5 0.03 0
0.51 0.03 0
0.52 0.03 0
0.53 0.03 0
0.54 0.03 0
0.55 0.03 0
0.56 0.03 0
0.57 0.03 0
0.58 0.03 0
0.59 0.03 0
0.6 0.03 0
0.61 0.03 0
0 0.04 0
0.01 0.04 0
0.02 0.04 0
0.03 0.04 0
0.04 0.04 0
0.05 0.04 0
0.06 0.04 0
0.07 0.04 0
0.08 0.04 0
0.09 0.04 0
0.1 0.04 0
0.11 0.04 0
0.12 0.04 0
0.13 0.04 0
0.14 0.04 0
0.15 0.04 0
0.16 0.04 0
0.17 0.04 0
0.18 0.04 0
0.19 0.04 0
0.2 0.04 0
0.21 0.04 0
0.22 0.04 0
0.23 0.04 0
0.24 0.04 0
0.25 0.04 0
0.26 0.04 0
0.27 0.04 0
0.28 0.04 0
0.29 0.04 0
0.3 0.04 0
0.31 0.04 0
0.32 0.04 0
0.33 0.04 0
0.34 0.04 0
0.35 0.04 0
0.36 0.04 0
0.37 0.04 0
0.38 0.04 0
0.39 0.04 0
0.4 0.04 0
0.41 0.04 0
0.42 0.04 0
0.43 0.04 0
0.44 0.04 0
0.45 0.04 0
0.46 0.04 0
0.47 0.04 0
0.48 0.04 0
0.49 0.04 0
0.5 0.04 0
0.51 0.04 0
0.52 0.04 0
0.53 0.04 0
0.54 0.04 0
0.55 0.04 0
0.56 0.04 0
0.57 0.04 0
0.58 0.04 0
0.59 0.04 0
0.6 0.04 0
0.61 0.04 0
0 0.05 0
0.01 0.05 0
0.02 0.05 0
0.03 0.05 0
0.04 0.05 0
0.05 0.05 0
0.06 0.05 0
0.07 0.05 0
0.08 0.05 0
0.09 0.05 0
0.1 0.05 0
0.11 0.05 0
0.12 0.05 0
0.13 0.05 0
0.14 0.05 0
0.15 0.05 0
0.16 0.05 0
0.17 0.05 0
0.18 0.05 0
0.19 0.05 0
0.2 0.05 0
0.21 0.05 0
0.22 0.05 0
0.23 0.05 0
0.24 0.05 0
0.25 0.05 0
0.26 0.05 0
0.27 0.05 0
0.28 0.05 0
0.29 0.05 0
0.3 0.05 0
0.31 0.05 0
0.32 0.05 0
0.33 0.05 0
0.34 0.05 0
0.35 0.05 0
0.36 0.05 0
0.37 0.05 0
0.38 0.05 0
0.39 0.05 0
0.4 0.05 0
0.41 0.05 0
0.42 0.05 0
0.43 0.05 0
0.44 0.05 0
0.45 0.05 0
0.46 0.05 0
0.47 0.05 0
0.48 0.05 0
0.49 0.05 0
0.5 0.05 0
0.51 0.05 0
0.52 0.05 0
0.53 0.05 0
0.54 0.05 0
0.55 0.05 0
0.56 0.05 0
0.57 0.05 0
0.58 0.05 0
0.59 0.05 0
0.6 0.05 0
0.61 0.05 0
0 0.06 0
0.01 0.06 0
0.02 0.06 0
0.03 0.06 0
0.04 0.06 0
0.05 0.06 0
0.06 0.06 0
0.07 0.06 0
0.08 0.06 0
0.09 0.06 0
0.1 0.06 0
0.11 0.06 0
0.12 0.06 0
0.13 0.06 0
0.14 0.06 0
0.15 0.06 0
0.16 0.06 0
0.17 0.06 0
0.18 0.06 0
0.19 0.06 0
0.2 0.06 0
0.21 0.06 0
0.22 0.06 0
0.23 0.06 0
0.24 0.06 0
0.25 0.06 0
0.26 0.06 0
0.27 0.06 0
0.28 0.06 0
0.29 0.06 0
0.3 0.06 0
0.31 0.06 0
0.32 0.06 0
0.33 0.06 0
0.34 0.06 0
0.35 0.06 0
0.36 0.06 0
0.37 0.06 0
0.38 0.06 0
0.39 0.06 0
0.4 0.06 0
0.41 0.06 0
0.42 0.06 0
0.43 0.06 0
0.44 0.06 0
0.45 0.06 0
0.46 0.06 0
0.47 0.06 0
0.48 0.06 0
0.49 0.06 0
0.5 0.06 0
0.51 0.06 0
0.52 0.06 0
0.53 0.06 0
0.54 0.06 0
0.55 0.06 0
0.56 0.06 0
0.57 0.06 0
0.58 0.06 0
0.59 0.06 0
0.6 0.06 0
0.61 0.06 0
0 0.07 0
0.01 0.07 0
0.02 0.07 0
0.03 0.07 0
0.04 0.07 0
0.05 0.07 0
0.06 0.07 0
0.07 0.07 0
0.08 0.07 0
0.09 0.07 0
0.1 0.07 0
0.11 0.07 0
0.12 0.07 0
0.13 0.07 0
0.14 0.07 0
0.15 0.07 0
0.16 0.07 0
0.17 0.07 0
0.18 0.07 0
0.19 0.07 0
0.2 0.07 0
0.21 0.07 0
0.22 0.07 0
0.23 0.07 0
0.24 0.07 0
0.25 0.07 0
0.26 0.07 0
0.27 0.07 0
0.28 0.07 0
0.29 0.07 0
0.3 0.07 0
0.31 0.07 0
0.32 0.07 0
0.33 0.07 0
0.34 0.07 0
0.35 0.07 0
0.36 0.07 0
0.37 0.07 0
0.38 0.07 0
0.39 0.07 0
0.4 0.07 0
0.41 0.07 0
0.42 0.07 0
0.43 0.07 0
0.44 0.07 0
0.45 0.07 0
0.46 0.07 0
0.47 0.07 0
0.48 0.07 0
0.49 0.07 0
0.5 0.07 0
0.51 0.07 0
0.52 0.07 0
0.53 0.07 0
0.54 0.07 0
0.55 0.07 0
0.56 0.07 0
0.57 0.07 0
0.58 0.07 0
0.59 0.07 0
0.6 0.07 0
0.61 0.07 0
0 0.08 0
0.01 0.08 0
0.02 0.08 0
0.03 0.08 0
0.04 0.08 0
0.05 0.08 0
0.06 0.08 0
0.07 0.08 0
0.08 0.08 0
0.09 0.08 0
0.1 0.08 0
0.11 0.08 0
0.12 0.08 0
0.13 0.08 0
0.14 0.08 0
0.15 0.08 0
0.16 0.08 0
0.17 0.08 0
0.18 0.08 0
0.19 0.08 0
0.2 0.08 0
0.21 0.08 0
0.22 0.08 0
0.23 0.08 0
0.24 0.08 0
0.25 0.08 0
0.26 0.08 0
0.27 0.08 0
0.28 0.08 0
0.29 0.08 0
0.3 0.08 0
0.31 0.08 0
0.32 0.08 0
0.33 0.08 0
0.34 0.08 0
0.35 0.08 0
0.36 0.08 0
0.37 0.08 0
0.38 0.08 0
0.39 0.08 0
0.4 0.08 0
0.41 0.08 0
0.42 0.08 0
0.43 0.08 0
0.44 0.08 0
0.45 0.08 0
0.46 0.08 0
0.47 0.08 0
0.48 0.08 0
0.49 0.08 0
0.5 0.08 0
0.51 0.08 0
0.52 0.08 0
0.53 0.08 0
0.54 0.08 0
0.55 0.08 0
0.56 0.08 0
0.57 0.08 0
0.58 0.08 0
0.59 0.08 0
0.6 0.08 0
0.61 0.08 0
0 0.09 0
0.01 0.09 0
0.02 0.09 0
0.03 0.09 0
0.04 0.09 0
0.05 0.09 0
0.06 0.09 0
0.07 0.09 0
0.08 0.09 0
0.09 0.09 0
0.1 0.09 0
0.11 0.09 0
0.12 0.09 0
0.13 0.09 0
0.14 0.09 0
0.15 0.09 0
0.16 0.09 0
0.17 0.09 0
0.18 0.09 0
0.19 0.09 0
0.2 0.09 0
0.21 0.09 0
0.22 0.09 0
0.23 0.09 0
0.24 0.09 0
0.25 0.09 0
0.26 0.09 0
0.27 0.09 0
0.28 0.09 0
0.29 0.09 0
0.3 0.09 0
0.31 0.09 0
0.32 0.09 0
0.33 0.09 0
0.34 0.09 0
0.35 0.09 0
0.36 0.09 0
0.37 0.09 0
0.38 0.09 0
0.39 0.09 0
0.4 0.09 0
0.41 0.09 0
0.42 0.09 0
0.43 0.09 0
0.44 0.09 0
0.45 0.09 0
0.46 0.09 0
0.47 0.09 0
0.48 0.09 0
0.49 0.09 0
0.5 0.09 0
0.51 0.09 0
0.52 0.09 0
0.53 0.09 0
0.54 0.09 0
0.55 0.09 0
0.56 0.09 0
0.57 0.09 0
0.58 0.09 0
0.59 0.09 0
0.6 0.09 0
0.61 0.09 0
0 0.1 0
0.01 0.1 0
0.02 0.1 0
0.03 0.1 0
0.04 0.1 0
0.05 0.1 0
0.06 0.1 0
0.07 0.1 0
0.08 0.1 0
0.09 0.1 0
0.1 0.1 0
0.11 0.1 0
0.12 0.1 0
0.13 0.1 0
0.14 0.1 0
0.15 0.1 0
0.16 0.1 0
0.17 0.1 0
0.18 0.1 0
0.19 0.1 0
0.2 0.1 0
0.21 0.1 0
0.22 0.1 0
0.23 0.1 0
0.24 0.1 0
0.25 0.1 0
0.26 0.1 0
0.27 0.1 0
0.28 0.1 0
0.29 0.1 0
0.3 0.1 0
0.31 0.1 0
0.32 0.1 0
0.33 0.1 0
0.34 0.1 0
0.35 0.1 0
0.36 0.1 0
0.37 0.1 0
0.38 0.1 0
0.39 0.1 0
0.4 0.1 0
0.41 0.1 0
0.42 0.1 0
0.43 0.1 0
0.44 0.1 0
0.45 0.1 0
0.46 0.1 0
0.47 0.1 0
0.48 0.1 0
0.49 0.1 0
0.5 0.1 0
0.51 0.1 0
0.52 0.1 0
0.53 0.1 0
0.54 0.1 0
0.55 0.1 0
0.56 0.1 0
0.57 0.1 0
0.58 0.1 0
0.59 0.1 0
0.6 0.1 0
0.61 0.1 0
0 0.11 0
0.01 0.11 0
0.02 0.11 0
0.03 0.11 0
0.04 0.11 0
0.05 0.11 0
0.06 0.11 0
0.07 0.11 0
0.08 0.11 0
0.09 0.11 0
0.1 0.11 0
0.11 0.11 0
0.12 0.11 0
0.13 0.11 0
0.14 0.11 0
0.15 0.11 0
0.16 0.11 0
0.17 0.11 0
0.18 0.11 0
0.19 0.11 0
0.2 0.11 0
0.21 0.11 0
0.22 0.11 0
0.23 0.11 0
0.24 0.11 0
0.25 0.11 0
0.26 0.11 0
0.27 0.11 0
0.28 0.11 0
0.29 0.11 0
0.3 0.11 0
0.31 0.11 0
0.32 0.11 0
0.33 0.11 0
0.34 0.11 0
0.35 0.11 0
0.36 0.11 0
0.37 0.11 0
0.38 0.11 0
0.39 0.11 0
0.4 0.11 0
0.41 0.11 0
0.42 0.11 0
0.43 0.11 0
0.44 0.11 0
0.45 0.11 0
0.46 0.11 0
0.47 0.11 0
0.48 0.11 0
0.49 0.11 0
0.5 0.11 0
0.51 0.11 0
0.52 0.11 0
0.53 0.11 0
0.54 0.11 0
0.55 0.11 0
0.56 0.11 0
0.57 0.11 0
0.58 0.11 0
0.59 0.11 0
0.6 0.11 0
0.61 0.11 0
0 0.12 0
0.01 0.12 0
0.02 0.12 0
0.03 0.12 0
0.04 0.12 0
0.05 0.12 0
0.06 0.12 0
0.07 0.12 0
0.08 0.12 0
0.09 0.12 0
0.1 0.12 0
0.11 0.12 0
0.12 0.12 0
0.13 0.12 0
0.14 0.12 0
0.15 0.12 0
0.16 0.12 0
0.17 0.12 0
0.18 0.12 0
0.19 0.12 0
0.2 0.12 0
0.21 0.12 0
0.22 0.12 0
0.23 0.12 0
0.24 0.12 0
0.25 0.12 0
0.26 0.12 0
0.27 0.12 0
0.28 0.12 0
0.29 0.12 0
0.3 0.12 0
0.31 0.12 0
0.32 0.12 0
0.33 0.12 0
0.34 0.12 0
0.35 0.12 0
0.36 0.12 0
0.37 0.12 0
0.38 0.12 0
0.39 0.12 0
0.4 0.12 0
0.41 0.12 0
0.42 0.12 0
0.43 0.12 0
0.44 0.12 0
0.45 0.12 0
0.46 0.12 0
0.47 0.12 0
0.48 0.12 0
0.49 0.12 0
0.5 0.12 0
0.51 0.12 0
0.52 0.12 0
0.53 0.12 0
0.54 0.12 0
0.55 0.12 0
0.56 0.12 0
0.57 0.12 0
0.58 0.12 0
0.59 0.12 0
0.6 0.12 0
0.61 0.12 0
0 0.13 0
0.01 0.13 0
0.02 0.13 0
0.03 0.13 0
0.04 0.13 0
0.05 0.13 0
0.06 0.13 0
0.07 0.13 0
0.08 0.13 0
0.09 0.13 0
0.1 0.13 0
0.11 0.13 0
0.12 0.13 0
0.13 0.13 0
0.14 0.13 0
0.15 0.13 0
0.16 0.13 0
0.17 0.13 0
0.18 0.13 0
0.19 0.13 0
0.2 0.13 0
0.21 0.13 0
0.22 0.13 0
0.23 0.13 0
0.24 0.13 0
0.25 0.13 0
0.26 0.13 0
0.27 0.13 0
0.28 0.13 0
0.29 0.13 0
0.3 0.13 0
0.31 0.13 0
0.32 0.13 0
0.33 0.13 0
0.34 0.13 0
0.35 0.13 0
0.36 0.13 0
0.37 0.13 0
0.38 0.13 0
0.39 0.13 0
0.4 0.13 0
0.41 0.13 0
0.42 0.13 0
0.43 0.13 0
0.44 0.13 0
0.45 0.13 0
0.46 0.13 0
0.47 0.13 0
0.48 0.13 0
[...]
POINT_DATA 93248

SCALARS u double
LOOKUP_TABLE default
0
0
0
0
0
0
0
0
0
0
0
0
0
0
0
0
0
0
0
0
0
0
0
0
0.298938
0
0
0
0
0
0
0
0.0330843
0.226175
0
0
0
0
0
0
0
0
0
0
0
0
0
0.0764413
0
0
0.0712124
0
0
0
0
0
0
0
0
0
0
0
0
0.413778
0.332335
0.254551
0.190866
0.143628
0.109392
0.0854956
0.0697478
0.0595649
0.0531477
0.0496713
0.04975
0.0495635
0.0491814
0.0485833
0.0480244
0.0469253
0.0453035
0.0422482
0.0456113
0.0454824
0.0422585
0.0406445
0.0392356
0.037872
0.036533
0.0351936
0.033821
0.032372
0.0307971
0.0292137
0.0286925
0.0271232
0.024843
0.0228864
0.0224061
0.0198691
0.0173122
0.158657
0.0106034
0.0129317
0.013737
0.0151407
0.0190387
-0.00392998
0.0046173
0.00437115
0.00378715
0.00189837
-5.84372e-05
0.0217401
-0.00159168
0.00239333
-0.0195662
-0.0170205
-0.000665583
-0.0164236
-0.0205039
-0.0276304
-0.0276304
0
0
0.487732
0.468176
0.439337
0.402404
0.366359
0.326839
0.29039
0.259255
0.235239
0.217637
0.205087
0.199325
0.193413
0.18862
0.184233
0.18049
0.176316
0.173812
0.333754
0.170183
0.164628
0.153307
0.149558
0.145072
0.140488
0.135904
0.131314
0.126692
0.121996
0.117143
0.11198
0.108792
0.103892
0.0985457
0.0939455
0.0872575
0.0803744
-0.0217254
0.0710689
0.0673644
0.0632042
0.0603314
0.0580287
0.0544045
0.0422413
0.0351798
0.0322474
0.0281948
0.023916
0.020079
0.0142281
0.010353
0.00511983
-0.00897976
-0.0144632
-0.0214894
-0.0253491
-0.0332922
-0.0422638
-0.0422638
0
0
0.481869
0.478491
0.474412
0.460245
0.455617
0.430906
0.407237
0.384848
0.364098
0.371842
0.331348
0.315207
0.304122
0.294956
0.287338
0.280651
0.272575
0.266013
0.258456
0.250277
0.24471
0.236932
0.230263
0.223578
0.21679
0.209932
0.203033
0.196108
0.189188
0.182398
0.175995
0.167634
0.161578
0.210919
0.148601
0.140148
0.133358
0.129106
0.121725
0.113542
0.105696
0.130752
0.092062
0.0847089
0.123705
0.0650661
0.0565445
0.0281948
0.0426023
0.0364089
0.0292246
0.0217401
0.0129558
0.00187846
-0.00702669
-0.0156922
-0.0265378
-0.0350971
-0.0438643
-0.0438643
0
0
0.474759
0.466797
0.471081
0.466388
0.463684
0.455466
0.444884
0.432978
0.42023
0.406529
0.392999
0.378588
0.36557
0.353957
0.343441
0.333314
0.32586
0.317227
0.331454
0.298755
0.29022
0.281869
0.273849
0.265899
0.257909
0.249856
0.241753
0.23362
0.225476
0.217348
0.209157
0.200272
0.192254
0.183731
0.176137
0.168369
0.161152
0.155228
0.146879
0.137585
0.127899
0.118154
0.10934
0.10018
0.0899599
0.0797413
0.0709916
0.0629902
0.0545796
0.0462594
0.037647
0.0286178
0.0188645
0.00848057
-0.00156723
-0.0116331
-0.0223517
-0.0321334
-0.0417186
-0.0417186
0
0
0.472085
0.461196
0.457042
0.453854
0.451835
0.448507
0.443924
0.438229
0.431012
0.422191
0.412007
0.400551
0.388764
0.377224
0.366334
0.356307
0.347075
0.337819
0.327921
0.318469
0.309459
0.300703
0.292126
0.283619
0.275111
0.266562
0.257976
0.249357
0.240696
0.231952
0.222993
0.213713
0.205712
0.196977
0.188538
0.180349
0.17247
0.164778
0.156112
0.146684
0.136772
0.126663
0.116874
0.107162
0.0976928
0.0923824
0.0776699
0.0689347
0.0598964
0.0507605
0.0414867
0.0319694
0.0220834
0.0119558
0.00184406
-0.00819362
-0.0180885
-0.0274445
-0.0375076
-0.0375076
0
0
0.4709
0.457088
0.448128
0.442038
0.437908
0.434277
0.430937
0.427726
0.423285
0.417542
0.410381
0.401819
0.392199
0.382103
0.372066
0.362866
0.352886
0.344135
0.33404
0.324615
0.315601
0.306807
0.298119
0.28947
0.280828
0.272134
0.263418
0.254679
0.24589
0.236993
0.227832
0.218023
0.211003
0.201821
0.192906
0.184311
0.175895
0.167403
0.158475
0.149086
0.139337
0.129359
0.119307
0.109009
0.098367
0.090784
0.0811443
0.071555
0.0620505
0.0525925
0.0431367
0.0335894
0.0238001
0.0139126
0.00410097
-0.00545892
-0.0142903
-0.0207135
-0.0229572
-0.0229572
0
0
0.470272
0.45462
0.442794
0.433956
0.427556
0.454621
0.419425
0.415158
0.41143
0.407329
0.402235
0.396026
0.388328
0.379559
0.370272
0.362045
0.352077
0.342766
0.333754
0.325009
0.316481
0.30797
0.299422
0.290832
0.282224
0.273532
0.264852
0.256163
0.247446
0.238701
0.230097
0.222101
0.210882
0.202127
0.193595
0.185073
0.176474
0.167702
0.158657
0.149328
0.139765
0.131472
0.120086
0.110025
0.100109
0.0913716
0.0820357
0.0724714
0.0628849
0.0533527
0.0439153
0.0345249
0.0248438
0.0151836
0.00568969
-0.00370795
-0.0134813
-0.0239289
-0.0147967
-0.0147967
0
0
0.469894
0.4531
0.439509
0.428649
0.42006
0.413143
0.408279
0.404301
0.400997
0.397672
0.393666
0.389575
0.383075
0.375059
0.364974
0.18049
0.345165
0.338616
0.331454
0.323747
0.315881
0.30769
0.299291
0.290756
0.275111
0.273528
0.265027
0.256484
0.247901
0.239237
0.230543
0.221815
0.211965
0.202771
0.19394
0.185208
0.176429
0.167513
0.158415
0.149129
0.139671
0.130057
0.120361
0.110619
0.101002
0.0917222
0.082337
0.0728137
0.0632237
0.0536468
0.0442113
0.0350941
0.0254257
0.0160201
0.00697119
-0.00172365
-0.0101673
-0.0203598
-0.0236602
-0.0236602
0
0
0.469648
0.452117
0.437394
0.425191
0.415193
0.407137
0.401131
0.396702
0.393314
0.390087
0.385728
0.385869
0.378758
0.371596
0.36403
0.357941
0.349458
0.340606
0.332106
0.323652
0.3157
0.307323
0.298867
0.290368
0.282045
0.273485
0.264972
0.256529
0.248126
0.239579
0.230641
0.221586
0.212296
0.203162
0.19419
0.185287
0.17636
0.167349
0.158223
0.148973
0.139602
0.130125
0.120582
0.111015
0.101494
0.0920543
0.0825904
0.0730467
0.0634055
0.0536638
0.04387
0.0351475
0.0254171
0.0164242
0.00775104
-0.000765898
-0.00933702
-0.0184936
-0.0266629
-0.0266629
0
0
0.469484
0.451461
0.435977
0.422905
0.412005
0.403186
0.396458
0.391571
0.387988
0.384916
0.381628
0.378974
0.374091
0.368248
0.361751
0.355534
0.348083
0.339985
0.331755
0.323669
0.314934
0.306566
0.298166
0.289638
0.281693
0.273102
0.264678
0.25642
0.248383
0.252044
0.230823
0.221496
0.212391
0.20336
0.194362
0.185929
0.176351
0.167283
0.158148
0.148931
0.13963
0.130253
0.120809
0.111331
0.101853
0.0923824
0.082891
0.0733368
0.063664
0.0537747
0.0433937
-0.00584008
0.0247854
0.0167576
0.00838499
-0.000108831
-0.00875125
-0.0177339
-0.0270712
-0.0270712
0
0
0.469374
0.451022
0.435007
0.421395
0.409864
0.400485
0.393261
0.388006
0.384206
0.38112
0.378052
0.374694
0.370363
0.365315
0.358954
0.352542
0.345616
0.338174
0.330408
0.318758
0.314124
0.305866
0.297528
0.28912
0.280841
0.272434
0.264133
0.256035
0.248144
0.240388
0.229969
0.221291
0.212515
0.203571
0.194543
0.185485
0.177181
0.167313
0.158181
0.148992
0.139742
0.13045
0.121065
0.111632
0.102181
0.092725
0.0832591
0.0737639
0.0642268
0.0547722
0.045624
0.0371708
0.0274341
0.0182183
0.00934843
0.000618265
-0.00815157
-0.0171793
-0.0267618
-0.0267618
0
0
0.469305
0.450759
0.434526
0.420297
0.408327
0.398549
0.390976
0.385428
0.38141
0.378207
0.375072
0.371527
0.367344
0.362896
0.35605
0.349953
0.343401
0.336364
0.329034
0.321446
0.313452
0.305256
0.296917
0.288481
0.280019
0.271562
0.263299
0.255343
0.247506
0.23828
0.231617
0.222596
0.213301
0.204022
0.194795
0.185621
0.176496
0.167406
0.158302
0.149133
0.139899
0.130752
0.121375
0.111949
0.102513
0.0930864
0.0836792
0.0742812
0.0648503
0.0556654
0.0467988
0.0381211
0.0287519
0.0194134
0.0103159
0.00140009
-0.00750398
-0.0166133
-0.0262845
-0.0262845
0
0
0.469255
0.450557
0.434055
0.419546
0.407264
0.397186
0.389333
0.38354
0.379306
0.375956
0.372669
0.368948
0.364472
0.358816
0.354599
0.348573
0.341926
0.334871
0.327834
0.32045
0.31265
0.304541
0.296209
0.287699
0.279055
0.270373
0.261974
0.254281
0.248449
0.240117
0.231898
0.222923
0.213625
0.204257
0.194923
0.185674
0.176517
0.167498
0.15848
0.149331
0.139922
0.131355
0.121763
0.11229
0.10285
0.0934455
0.0841026
0.0748148
0.0653361
0.0562651
0.0473913
0.0385092
0.0293568
0.0201745
0.0111056
0.00215871
-0.00685239
-0.0160128
-0.0257479
-0.0257479
0
0
0.46922
0.450418
0.433802
0.41888
0.406476
0.396198
0.388136
0.382152
0.377773
0.37419
0.370762
0.366944
0.362486
0.35736
0.352392
0.346649
0.340211
0.33317
0.326757
0.31957
0.311832
0.303756
0.295415
0.286814
0.277909
0.26866
0.259309
0.250455
0.252702
0.243426
0.233438
0.223635
0.213967
0.204387
0.194913
0.185618
0.176375
0.167567
0.158779
0.149765
0.140551
0.131472
0.122076
0.112623
0.103171
0.0937586
0.0844371
0.0752922
0.0656371
0.0567359
0.0478546
0.0389026
0.0297295
0.020694
0.011744
0.0029583
-0.00629276
-0.0153621
-0.0251302
-0.0251302
0
0
0.469196
0.450281
0.43346
0.41862
0.405969
0.3955
0.387264
0.381113
0.376562
0.372857
0.3693
0.365409
0.360989
0.356069
0.350847
0.345126
0.338795
0.331492
0.326097
0.318697
0.310905
0.302867
0.294578
0.285948
0.276785
0.266539
0.253368
0.231729
0.273182
0.249647
0.235723
0.224553
0.214284
0.20438
0.194682
0.185209
0.176072
0.167569
0.159322
0.150494
0.14127
0.131923
0.122468
0.112978
0.103475
0.0939909
0.0845036
0.0749961
0.0664085
0.0573876
0.0484075
0.03956
0.0298822
0.0211009
0.0122071
0.00346605
-0.00545031
-0.0145143
-0.0242961
-0.0242961
0
0
0.46921
0.450177
0.433254
0.418395
0.405638
0.395024
0.386641
0.380349
0.375662
0.371842
0.368168
0.364203
0.359787
0.354932
0.349696
0.344085
0.338224
0.332634
0.324072
0.316902
0.309555
0.301867
0.293808
0.285348
0.276374
0.266663
0.25606
0.246612
0.253565
0.245168
0.234633
0.22416
0.213968
0.20398
0.194091
0.184348
0.175058
0.167022
0.16055
0.151889
0.142371
0.132686
0.123019
0.113402
0.103798
0.0942612
0.0847597
0.0753417
0.0663827
0.0577168
0.0487817
0.0397463
0.0305414
0.0216714
0.0124539
0.00395464
-0.00460096
-0.0133459
-0.0229349
-0.0229349
0
0
0.4693
0.450076
0.43315
0.41829
0.4055
0.394719
0.386207
0.379805
0.375019
0.371113
0.367298
0.363234
0.358797
0.353983
0.348776
0.343195
0.337312
0.331159
0.32378
0.316442
0.309013
0.301357
0.293415
0.285157
0.27657
0.267705
0.258893
0.25159
0.248001
0.241098
0.232323
0.222813
0.213058
0.203203
0.193125
0.182812
0.172388
0.163458
0.164768
0.154978
0.14421
0.13378
0.123705
0.113882
0.104133
0.0945589
0.0850355
0.0755413
0.0662572
0.058087
0.0490854
0.0399784
0.0310906
0.0229343
0.0117633
0.00419655
-0.00376443
-0.0116518
-0.0202557
-0.0202557
0
0
0.469008
0.450257
0.433268
0.418402
0.405655
0.390976
0.385844
0.379399
0.374583
0.370671
0.366625
0.362424
0.357972
0.35323
0.348041
0.342424
0.33644
0.330128
0.323261
0.316109
0.308735
0.301134
0.293295
0.285227
0.276982
0.268721
0.269218
0.252967
0.246736
0.23923
0.230677
0.22154
0.212062
0.202337
0.192076
0.180918
0.167054
0.143462
0.185153
0.161055
0.146513
0.134875
0.124302
0.114212
0.104502
0.0948843
0.0853641
0.0758258
0.0660851
0.0585622
0.0491219
0.0399499
0.0310547
0.0222649
0.0125931
-0.00875125
-0.0031829
-0.00964021
-0.0140838
0
0
0
0.469097
0.449529
0.433097
0.418385
0.40577
0.394416
0.385604
0.379085
0.374296
0.370576
0.36601
0.361682
0.357271
0.35268
0.347457
0.341741
0.33565
0.329409
0.322775
0.315792
0.308528
0.301021
0.293291
0.28537
0.277325
0.269267
0.261205
0.252829
0.246628
0.238307
0.229571
0.220544
0.211216
0.195246
0.191609
0.181136
0.169804
0.159463
0.166173
0.148973
0.145634
0.13481
0.124413
0.114384
0.104658
0.095119
0.0857841
0.0767596
0.0681411
0.0569692
0.0482258
0.0395403
0.0308239
0.0220999
0.0133586
0.00516582
-0.00306212
-0.011132
-0.0200154
-0.0200154
0
0
0.469129
0.450087
0.432874
0.4184
0.406026
0.393954
0.385304
0.378839
0.374085
0.370775
0.36522
0.361113
0.356726
0.352269
0.346869
0.34104
0.334837
0.328913
0.322439
0.315552
0.308379
0.300964
0.293327
0.2855
0.277545
0.269665
0.262489
0.255244
0.245236
0.236916
0.22848
0.219802
0.210919
0.201892
0.192381
0.18266
0.173153
0.165176
0.160795
0.153262
0.143867
0.133967
0.124027
0.114243
0.104635
0.0951826
0.0858965
0.0767729
0.0676074
0.0575563
0.0483127
0.0394284
0.0306761
0.0219993
0.0133655
0.0048735
-0.00377207
-0.0127527
-0.0226163
-0.0226163
0
0
0.46915
0.450163
0.433346
0.417709
0.40396
0.394339
0.385697
0.378948
0.373597
0.368412
0.366174
0.361792
0.356505
0.335974
0.346065
0.340475
0.334205
0.328861
0.322291
0.315407
0.308298
0.300973
0.293404
0.285607
0.277539
0.268835
0.263793
0.255043
0.245763
0.236926
0.228225
0.219529
0.210869
0.202205
0.193186
0.18405
0.175165
0.167
0.159494
0.151346
0.142427
0.133071
0.123424
0.113909
0.104469
0.0950969
0.0858184
0.0765999
0.0673173
0.0577933
0.0484482
0.03939
0.0305288
0.0218137
0.0130474
0.00432622
-0.00456251
-0.0138818
-0.0238851
-0.0238851
0
0
0.469146
0.450129
0.433123
0.417788
0.404459
0.393987
0.385476
0.378823
0.373583
0.369152
0.365775
0.361593
0.361609
0.353062
0.347379
0.341474
0.335788
0.328483
0.321937
0.315248
0.308312
0.301108
0.293584
0.285833
0.277909
0.269915
0.262849
0.254588
0.245842
0.237003
0.228148
0.219345
0.210839
0.202834
0.194083
0.185171
0.176306
0.167695
0.159207
0.150554
0.141645
0.132623
0.122661
0.113488
0.104208
0.0949094
0.0856588
0.0764405
0.0672056
0.0578387
0.0483991
0.0392365
0.0302424
0.0214468
0.0125852
0.00381702
-0.00517132
-0.0146872
-0.0246855
-0.0246855
0
0
0.46914
0.450102
0.433048
0.417904
0.404826
0.394082
0.385466
0.378865
0.373829
0.369916
0.366221
0.362513
0.359295
0.352523
0.347177
0.341611
0.335698
0.329068
0.322405
0.315631
0.308686
0.301527
0.293907
0.286149
0.27832
0.270459
0.262649
0.254392
0.245806
0.236979
0.227947
0.218782
0.209988
0.204432
0.19531
0.186357
0.177144
0.168122
0.159192
0.15024
0.141188
0.13199
0.122482
0.11315
0.0991927
0.0946089
0.085427
0.0762582
0.0671306
0.0578096
0.0470313
0.0389278
0.0297427
0.00677004
0.0120158
0.00346826
-0.00551038
-0.0153684
-0.0253411
-0.0253411
0
0
0.469139
0.450102
0.433067
0.418031
0.405091
0.394363
0.385558
0.378991
0.373748
0.371224
0.366981
0.362953
0.358869
0.353394
0.347897
0.3422
0.335871
0.329521
0.322946
0.316173
0.309247
0.302201
0.294264
0.286488
0.278733
0.270879
0.262878
0.254679
0.245916
0.237014
0.227674
0.217463
0.204128
0.211102
0.196625
0.188128
0.17792
0.168453
0.15925
0.150117
0.140942
0.13161
0.122223
0.112906
0.103646
0.0943744
0.085144
0.0759657
0.0669367
0.0577306
0.0474581
0.0386626
0.0298896
0.0212236
0.0122439
0.00347739
-0.0054679
-0.0160637
-0.0258901
-0.0258901
0
0
0.469141
0.450115
0.433114
0.418158
0.405353
0.394923
0.385236
0.379177
0.374344
0.370688
0.366891
0.362999
0.358718
0.353804
0.348597
0.3434
0.335723
0.329925
0.323496
0.316733
0.309801
0.302984
0.294479
0.286957
0.279299
0.271402
0.263296
0.254733
0.246152
0.237313
0.227944
0.21844
0.209015
0.205297
0.19625
0.187383
0.177885
0.168492
0.159231
0.150051
0.140839
0.131323
0.121921
0.112627
0.103371
0.0941062
0.0848251
0.0754813
0.0565327
0.0576722
0.046745
0.0386647
0.029846
0.0209827
0.0120106
0.0032312
-0.00524558
-0.0166809
-0.0259717
-0.0259717
0
0
0.469142
0.450124
0.433148
0.418243
0.405489
0.394992
0.386373
0.379735
0.374759
0.370828
0.367168
0.363328
0.359071
0.354323
0.349188
0.343699
0.337199
0.330857
0.32424
0.317323
0.310058
0.302117
0.29583
0.288156
0.280242
0.272043
0.263597
0.255274
0.246699
0.23818
0.228174
0.21957
0.211121
0.203756
0.195364
0.186576
0.177468
0.168268
0.159085
0.149968
0.140856
0.130992
0.121615
0.112392
0.103165
0.0939102
0.08463
0.0753174
0.0659307
0.05601
0.0492194
0.0390637
0.0297766
0.0206407
0.0114235
0.00196807
-0.00779158
-0.0143154
-0.0247128
-0.0247128
0
0
0.469136
0.450112
0.433146
0.418282
0.405595
0.395208
0.387202
0.380109
0.375101
0.371283
0.367769
0.364031
0.35982
0.355112
0.349983
0.344488
0.338367
0.331873
0.325089
0.31806
0.310852
0.30313
0.294578
0.288556
0.28079
0.272492
0.264011
0.255548
0.246993
0.238334
0.229219
0.220487
0.211957
0.203586
0.194983
0.186146
0.177124
0.168
0.158846
0.149757
0.1409
0.130552
0.121467
0.11231
0.103069
0.0937928
0.0845079
0.0752156
0.0659046
0.0566316
0.0483477
0.038993
0.029672
0.0204384
0.0112147
0.00196291
-0.007188
-0.0152604
-0.0249976
-0.0249976
0
0
0.469117
0.450055
0.433077
0.418256
0.405638
0.395388
0.388055
0.380102
0.375648
0.372151
0.36883
0.365141
0.360925
0.356165
0.35098
0.345632
0.339489
0.3328
0.325873
0.318758
0.311608
0.304176
0.296698
0.288935
0.281068
0.272577
0.264149
0.255743
0.24725
0.238631
0.229858
0.221125
0.212434
0.203726
0.194913
0.185971
0.176914
0.167762
0.158517
0.149102
0.139368
0.131414
0.121967
0.112476
0.103063
0.0937167
0.0844178
0.075152
0.0659216
0.0567841
0.0478628
0.0387079
0.0294945
0.0203154
0.0112118
0.0022926
-0.00718051
-0.0158726
-0.0255001
-0.0255001
0
0
0.469072
0.449903
0.432906
0.41816
0.405555
0.394988
0.38581
0.381861
0.377542
0.374344
0.370381
0.36658
0.362274
0.357419
0.351871
0.346833
0.340319
0.333368
0.326406
0.319271
0.312377
0.305064
0.297384
0.289169
0.245753
0.27208
0.264249
0.256088
0.247683
0.2391
0.230395
0.22163
0.212819
0.203941
0.194978
0.185929
0.176803
0.167607
0.158343
0.149003
0.139671
0.130916
0.121708
0.112319
0.102927
0.0935875
0.0843047
0.075068
0.0658709
0.0567227
0.0476169
0.0384731
0.029316
0.0201933
0.0111314
0.00212242
-0.00704192
-0.0161233
-0.0258145
-0.0258145
0
0
0.468989
0.449529
0.436674
0.418108
0.405631
0.395312
0.387134
0.382067
0.378173
0.374823
0.371531
0.367855
0.363649
0.3591
0.351665
0.346975
0.339817
0.337819
0.326673
0.319667
0.313303
0.30594
0.298323
0.290527
0.282798
0.274225
0.265655
0.257092
0.248469
0.239765
0.230983
0.222131
0.213206
0.204193
0.195102
0.185949
0.176748
0.167508
0.158248
0.148997
0.139792
0.130655
0.121376
0.112022
0.102679
0.0933856
0.0841478
0.0749519
0.0657761
0.0566143
0.0474573
0.0382975
0.0291551
0.020063
0.0110105
0.00196309
-0.00711305
-0.0162883
-0.0255001
-0.0259941
0
0
0.469027
0.448446
0.431847
0.417698
0.405675
0.395819
0.388228
0.382948
0.379138
0.376009
0.372893
0.369315
0.365032
0.359799
0.352118
0.176316
0.336514
0.332332
0.327128
0.321399
0.313867
0.306656
0.29921
0.291621
0.283473
0.275089
0.26658
0.257963
0.249252
0.240457
0.231589
0.222649
0.213621
0.20447
0.195246
0.185987
0.176705
0.167408
0.158128
0.148914
0.139752
0.130423
0.121006
0.111629
0.102338
0.0931135
0.0839505
0.0748211
0.0656761
0.0565153
0.0473404
0.0381584
0.0290066
0.0199383
0.0108803
0.00180297
-0.00731664
-0.0207135
-0.0262682
-0.0262682
0
0
0.470548
0.445561
0.431159
0.417697
0.406101
0.396608
0.389385
0.384308
0.380647
0.377686
0.374717
0.371243
0.367041
0.362091
0.356538
0.352524
0.345149
0.33781
0.330714
0.323625
0.315983
0.308289
0.300542
0.292866
0.28411
0.275847
0.267397
0.258767
0.249996
0.24113
0.232192
0.223187
0.214078
0.204754
0.195378
0.186012
0.176644
0.167259
0.157887
0.148652
0.139547
0.129969
0.120386
0.111023
0.101857
0.0927561
0.0837214
0.0747106
0.0656121
0.0564632
0.0472769
0.0380571
0.0288662
0.0198349
0.00803612
0.00166808
-0.00736062
-0.016553
-0.0281279
-0.0263721
0
0
0.469227
0.448756
0.432441
0.418659
0.407122
0.397804
0.390815
0.386292
0.382775
0.379945
0.377092
0.373703
0.36958
0.364822
0.359595
0.354466
0.347941
0.340783
0.333378
0.325803
0.317975
0.309968
0.301757
0.293169
0.285597
0.27711
0.268426
0.259633
0.250738
0.241786
0.232788
0.223752
0.214618
0.205009
0.19547
0.186022
0.176576
0.167061
0.1574
0.14799
0.13896
0.128878
0.119191
0.110023
0.101173
0.0922965
0.0834779
0.0746842
0.0656557
0.0565327
0.0473341
0.0380469
0.0287637
0.0199119
0.0107785
0.00161415
-0.00746638
-0.0166539
-0.0263279
-0.0263279
0
0
0.469133
0.450029
0.433705
0.419895
0.4055
0.399214
0.391959
0.389449
0.385565
0.382774
0.380022
0.376685
0.372501
0.354932
0.362108
0.356422
0.349952
0.342899
0.335463
0.327757
0.319819
0.311613
0.303207
0.29468
0.286437
0.277926
0.269218
0.260378
0.251388
0.242391
0.233343
0.224316
0.215287
0.205142
0.195522
0.18608
0.176583
0.167014
0.156455
0.146488
0.137071
0.126432
0.117177
0.108547
0.100272
0.0917833
0.0832654
0.0748306
0.0659769
0.0569159
0.0476785
0.0382752
0.0287283
0.0199854
0.0106031
0.00140237
-0.00767979
-0.0168597
-0.0265054
-0.0265054
0
0
0.469257
0.450697
0.434711
0.421234
0.410199
0.401455
0.394975
0.391297
0.388362
0.385986
0.383485
0.380246
0.376103
0.371222
0.36548
0.359174
0.352352
0.345099
0.337516
0.329685
0.321659
0.31322
0.304628
0.29601
0.287436
0.278761
0.269973
0.26107
0.252044
0.242948
0.233804
0.224712
0.215959
0.205038
0.195772
0.186369
0.176725
0.166762
0.156017
0.144101
0.0129317
0.122365
0.114985
0.106752
0.0989779
0.0915601
0.0831679
0.0750154
0.067104
0.0581023
0.0486009
0.0390285
0.0295891
0.0192885
0.0100957
0.00102764
-0.00799728
-0.0171381
-0.0267433
-0.0267433
0
0
0.469381
0.451188
0.43564
0.422665
0.41217
0.404047
0.39822
0.39449
0.391991
0.389974
0.387717
0.384447
0.38014
0.374909
0.368851
0.362165