# vtk DataFile Version 2.0
FlowField
ASCII
DATASET STRUCTURED_GRID
DIMENSIONS 62 47 32 
POINTS 93248 double
0 0 0
0.01 0 0
0.02 0 0
0.03 0 0
0.04 0 0
0.05 0 0
0.06 0 0
0.07 0 0
0.08 0 0
0.09 0 0
0.1 0 0
0.11 0 0
0.12 0 0
0.13 0 0
0.14 0 0
0.15 0 0
0.16 0 0
0.17 0 0
0.18 0 0
0.19 0 0
0.2 0 0
0.21 0 0
0.22 0 0
0.23 0 0
0.24 0 0
0.25 0 0
0.26 0 0
0.27 0 0
0.28 0 0
0.29 0 0
0.3 0 0
0.31 0 0
0.32 0 0
0.33 0 0
0.34 0 0
0.35 0 0
0.36 0 0
0.37 0 0
0.38 0 0
0.39 0 0
0.4 0 0
0.41 0 0
0.42 0 0
0.43 0 0
0.44 0 0
0.45 0 0
0.46 0 0
0.47 0 0
0.48 0 0
0.49 0 0
0.5 0 0
0.51 0 0
0.52 0 0
0.53 0 0
0.54 0 0
0.55 0 0
0.56 0 0
0.57 0 0
0.58 0 0
0.59 0 0
0.6 0 0
0.61 0 0
0 0.01 0
0.01 0.01 0
0.02 0.01 0
0.03 0.01 0
0.04 0.01 0
0.05 0.01 0
0.06 0.01 0
0.07 0.01 0
0.08 0.01 0
0.09 0.01 0
0.1 0.01 0
0.11 0.01 0
0.12 0.01 0
0.13 0.01 0
0.14 0.01 0
0.15 0.01 0
0.16 0.01 0
0.17 0.01 0
0.18 0.01 0
0.19 0.01 0
0.2 0.01 0
0.21 0.01 0
0.22 0.01 0
0.23 0.01 0
0.24 0.01 0
0.25 0.01 0
0.26 0.01 0
0.27 0.01 0
0.28 0.01 0
0.29 0.01 0
0.3 0.01 0
0.31 0.01 0
0.32 0.01 0
0.33 0.01 0
0.34 0.01 0
0.35 0.01 0
0.36 0.01 0
0.37 0.01 0
0.38 0.01 0
0.39 0.01 0
0.4 0.01 0
0.41 0.01 0
0.42 0.01 0
0.43 0.01 0
0.44 0.01 0
0.45 0.01 0
0.46 0.01 0
0.47 0.01 0
0.48 0.01 0
0.49 0.01 0
0.5 0.01 0
0.51 0.01 0
0.52 0.01 0
0.53 0.01 0
0.54 0.01 0
0.55 0.01 0
0.56 0.01 0
0.57 0.01 0
0.58 0.01 0
0.59 0.01 0
0.6 0.01 0
0.61 0.01 0
0 0.02 0
0.01 0.02 0
0.02 0.02 0
0.03 0.02 0
0.04 0.02 0
0.05 0.02 0
0.06 0.02 0
0.07 0.02 0
0.08 0.02 0
0.09 0.02 0
0.1 0.02 0
0.11 0.02 0
0.12 0.02 0
0.13 0.02 0
0.14 0.02 0
0.15 0.02 0
0.16 0.02 0
0.17 0.02 0
0.18 0.02 0
0.19 0.02 0
0.2 0.02 0
0.21 0.02 0
0.22 0.02 0
0.23 0.02 0
0.24 0.02 0
0.25 0.02 0
0.26 0.02 0
0.27 0.02 0
0.28 0.02 0
0.29 0.02 0
0.3 0.02 0
0.31 0.02 0
0.32 0.02 0
0.33 0.02 0
0.34 0.02 0
0.35 0.02 0
0.36 0.02 0
0.37 0.02 0
0.38 0.02 0
0.39 0.02 0
0.4 0.02 0
0.41 0.02 0
0.42 0.02 0
0.43 0.02 0
0.44 0.02 0
0.45 0.02 0
0.46 0.02 0
0.47 0.02 0
0.48 0.02 0
0.49 0.02 0
0.5 0.02 0
0.51 0.02 0
0.52 0.02 0
0.53 0.02 0
0.54 0.02 0
0.55 0.02 0
0.56 0.02 0
0.57 0.02 0
0.58 0.02 0
0.59 0.02 0
0.6 0.02 0
0.61 0.02 0
0 0.03 0
0.01 0.03 0
0.02 0.03 0
0.03 0.03 0
0.04 0.03 0
0.05 0.03 0
0.06 0.03 0
0.07 0.03 0
0.08 0.03 0
0.09 0.03 0
0.1 0.03 0
0.11 0.03 0
0.12 0.03 0
0.13 0.03 0
0.14 0.03 0
0.15 0.03 0
0.16 0.03 0
0.17 0.03 0
0.18 0.03 0
0.19 0.03 0
0.2 0.03 0
0.21 0.03 0
0.22 0.03 0
0.23 0.03 0
0.24 0.03 0
0.25 0.03 0
0.26 0.03 0
0.27 0.03 0
0.28 0.03 0
0.29 0.03 0
0.3 0.03 0
0.31 0.03 0
0.32 0.03 0
0.33 0.03 0
0.34 0.03 0
0.35 0.03 0
0.36 0.03 0
0.37 0.03 0
0.38 0.03 0
0.39 0.03 0
0.4 0.03 0
0.41 0.03 0
0.42 0.03 0
0.43 0.03 0
0.44 0.03 0
0.45 0.03 0
0.46 0.03 0
0.47 0.03 0
0.48 0.03 0
0.49 0.03 0
0.5 0.03 0
0.51 0.03 0
0.52 0.03 0
0.53 0.03 0
0.54 0.03 0
0.55 0.03 0
0.56 0.03 0
0.57 0.03 0
0.58 0.03 0
0.59 0.03 0
0.6 0.03 0
0.61 0.03 0
0 0.04 0
0.01 0.04 0
0.02 0.04 0
0.03 0.04 0
0.04 0.04 0
0.05 0.04 0
0.06 0.04 0
0.07 0.04 0
0.08 0.04 0
0.09 0.04 0
0.1 0.04 0
0.11 0.04 0
0.12 0.04 0
0.13 0.04 0
0.14 0.04 0
0.15 0.04 0
0.16 0.04 0
0.17 0.04 0
0.18 0.04 0
0.19 0.04 0
0.2 0.04 0
0.21 0.04 0
0.22 0.04 0
0.23 0.04 0
0.24 0.04 0
0.25 0.04 0
0.26 0.04 0
0.27 0.04 0
0.28 0.04 0
0.29 0.04 0
0.3 0.04 0
0.31 0.04 0
0.32 0.04 0
0.33 0.04 0
0.34 0.04 0
0.35 0.04 0
0.36 0.04 0
0.37 0.04 0
0.38 0.04 0
0.39 0.04 0
0.4 0.04 0
0.41 0.04 0
0.42 0.04 0
0.43 0.04 0
0.44 0.04 0
0.45 0.04 0
0.46 0.04 0
0.47 0.04 0
0.48 0.04 0
0.49 0.04 0
0.5 0.04 0
0.51 0.04 0
0.52 0.04 0
0.53 0.04 0
0.54 0.04 0
0.55 0.04 0
0.56 0.04 0
0.57 0.04 0
0.58 0.04 0
0.59 0.04 0
0.6 0.04 0
0.61 0.04 0
0 0.05 0
0.01 0.05 0
0.02 0.05 0
0.03 0.05 0
0.04 0.05 0
0.05 0.05 0
0.06 0.05 0
0.07 0.05 0
0.08 0.05 0
0.09 0.05 0
0.1 0.05 0
0.11 0.05 0
0.12 0.05 0
0.13 0.05 0
0.14 0.05 0
0.15 0.05 0
0.16 0.05 0
0.17 0.05 0
0.18 0.05 0
0.19 0.05 0
0.2 0.05 0
0.21 0.05 0
0.22 0.05 0
0.23 0.05 0
0.24 0.05 0
0.25 0.05 0
0.26 0.05 0
0.27 0.05 0
0.28 0.05 0
0.29 0.05 0
0.3 0.05 0
0.31 0.05 0
0.32 0.05 0
0.33 0.05 0
0.34 0.05 0
0.35 0.05 0
0.36 0.05 0
0.37 0.05 0
0.38 0.05 0
0.39 0.05 0
0.4 0.05 0
0.41 0.05 0
0.42 0.05 0
0.43 0.05 0
0.44 0.05 0
0.45 0.05 0
0.46 0.05 0
0.47 0.05 0
0.48 0.05 0
0.49 0.05 0
0.5 0.05 0
0.51 0.05 0
0.52 0.05 0
0.53 0.05 0
0.54 0.05 0
0.55 0.05 0
0.56 0.05 0
0.57 0.05 0
0.58 0.05 0
0.59 0.05 0
0.6 0.05 0
0.61 0.05 0
0 0.06 0
0.01 0.06 0
0.02 0.06 0
0.03 0.06 0
0.04 0.06 0
0.05 0.06 0
0.06 0.06 0
0.07 0.06 0
0.08 0.06 0
0.09 0.06 0
0.1 0.06 0
0.11 0.06 0
0.12 0.06 0
0.13 0.06 0
0.14 0.06 0
0.15 0.06 0
0.16 0.06 0
0.17 0.06 0
0.18 0.06 0
0.19 0.06 0
0.2 0.06 0
0.21 0.06 0
0.22 0.06 0
0.23 0.06 0
0.24 0.06 0
0.25 0.06 0
0.26 0.06 0
0.27 0.06 0
0.28 0.06 0
0.29 0.06 0
0.3 0.06 0
0.31 0.06 0
0.32 0.06 0
0.33 0.06 0
0.34 0.06 0
0.35 0.06 0
0.36 0.06 0
0.37 0.06 0
0.38 0.06 0
0.39 0.06 0
0.4 0.06 0
0.41 0.06 0
0.42 0.06 0
0.43 0.06 0
0.44 0.06 0
0.45 0.06 0
0.46 0.06 0
0.47 0.06 0
0.48 0.06 0
0.49 0.06 0
0.5 0.06 0
0.51 0.06 0
0.52 0.06 0
0.53 0.06 0
0.54 0.06 0
0.55 0.06 0
0.56 0.06 0
0.57 0.06 0
0.58 0.06 0
0.59 0.06 0
0.6 0.06 0
0.61 0.06 0
0 0.07 0
0.01 0.07 0
0.02 0.07 0
0.03 0.07 0
0.04 0.07 0
0.05 0.07 0
0.06 0.07 0
0.07 0.07 0
0.08 0.07 0
0.09 0.07 0
0.1 0.07 0
0.11 0.07 0
0.12 0.07 0
0.13 0.07 0
0.14 0.07 0
0.15 0.07 0
0.16 0.07 0
0.17 0.07 0
0.18 0.07 0
0.19 0.07 0
0.2 0.07 0
0.21 0.07 0
0.22 0.07 0
0.23 0.07 0
0.24 0.07 0
0.25 0.07 0
0.26 0.07 0
0.27 0.07 0
0.28 0.07 0
0.29 0.07 0
0.3 0.07 0
0.31 0.07 0
0.32 0.07 0
0.33 0.07 0
0.34 0.07 0
0.35 0.07 0
0.36 0.07 0
0.37 0.07 0
0.38 0.07 0
0.39 0.07 0
0.4 0.07 0
0.41 0.07 0
0.42 0.07 0
0.43 0.07 0
0.44 0.07 0
0.45 0.07 0
0.46 0.07 0
0.47 0.07 0
0.48 0.07 0
0.49 0.07 0
0.5 0.07 0
0.51 0.07 0
0.52 0.07 0
0.53 0.07 0
0.54 0.07 0
0.55 0.07 0
0.56 0.07 0
0.57 0.07 0
0.58 0.07 0
0.59 0.07 0
0.6 0.07 0
0.61 0.07 0
0 0.08 0
0.01 0.08 0
0.02 0.08 0
0.03 0.08 0
0.04 0.08 0
0.05 0.08 0
0.06 0.08 0
0.07 0.08 0
0.08 0.08 0
0.09 0.08 0
0.1 0.08 0
0.11 0.08 0
0.12 0.08 0
0.13 0.08 0
0.14 0.08 0
0.15 0.08 0
0.16 0.08 0
0.17 0.08 0
0.18 0.08 0
0.19 0.08 0
0.2 0.08 0
0.21 0.08 0
0.22 0.08 0
0.23 0.08 0
0.24 0.08 0
0.25 0.08 0
0.26 0.08 0
0.27 0.08 0
0.28 0.08 0
0.29 0.08 0
0.3 0.08 0
0.31 0.08 0
0.32 0.08 0
0.33 0.08 0
0.34 0.08 0
0.35 0.08 0
0.36 0.08 0
0.37 0.08 0
0.38 0.08 0
0.39 0.08 0
0.4 0.08 0
0.41 0.08 0
0.42 0.08 0
0.43 0.08 0
0.44 0.08 0
0.45 0.08 0
0.46 0.08 0
0.47 0.08 0
0.48 0.08 0
0.49 0.08 0
0.5 0.08 0
0.51 0.08 0
0.52 0.08 0
0.53 0.08 0
0.54 0.08 0
0.55 0.08 0
0.56 0.08 0
0.57 0.08 0
0.58 0.08 0
0.59 0.08 0
0.6 0.08 0
0.61 0.08 0
0 0.09 0
0.01 0.09 0
0.02 0.09 0
0.03 0.09 0
0.04 0.09 0
0.05 0.09 0
0.06 0.09 0
0.07 0.09 0
0.08 0.09 0
0.09 0.09 0
0.1 0.09 0
0.11 0.09 0
0.12 0.09 0
0.13 0.09 0
0.14 0.09 0
0.15 0.09 0
0.16 0.09 0
0.17 0.09 0
0.18 0.09 0
0.19 0.09 0
0.2 0.09 0
0.21 0.09 0
0.22 0.09 0
0.23 0.09 0
0.24 0.09 0
0.25 0.09 0
0.26 0.09 0
0.27 0.09 0
0.28 0.09 0
0.29 0.09 0
0.3 0.09 0
0.31 0.09 0
0.32 0.09 0
0.33 0.09 0
0.34 0.09 0
0.35 0.09 0
0.36 0.09 0
0.37 0.09 0
0.38 0.09 0
0.39 0.09 0
0.4 0.09 0
0.41 0.09 0
0.42 0.09 0
0.43 0.09 0
0.44 0.09 0
0.45 0.09 0
0.46 0.09 0
0.47 0.09 0
0.48 0.09 0
0.49 0.09 0
0.5 0.09 0
0.51 0.09 0
0.52 0.09 0
0.53 0.09 0
0.54 0.09 0
0.55 0.09 0
0.56 0.09 0
0.57 0.09 0
0.58 0.09 0
0.59 0.09 0
0.6 0.09 0
0.61 0.09 0
0 0.1 0
0.01 0.1 0
0.02 0.1 0
0.03 0.1 0
0.04 0.1 0
0.05 0.1 0
0.06 0.1 0
0.07 0.1 0
0.08 0.1 0
0.09 0.1 0
0.1 0.1 0
0.11 0.1 0
0.12 0.1 0
0.13 0.1 0
0.14 0.1 0
0.15 0.1 0
0.16 0.1 0
0.17 0.1 0
0.18 0.1 0
0.19 0.1 0
0.2 0.1 0
0.21 0.1 0
0.22 0.1 0
0.23 0.1 0
0.24 0.1 0
0.25 0.1 0
0.26 0.1 0
0.27 0.1 0
0.28 0.1 0
0.29 0.1 0
0.3 0.1 0
0.31 0.1 0
0.32 0.1 0
0.33 0.1 0
0.34 0.1 0
0.35 0.1 0
0.36 0.1 0
0.37 0.1 0
0.38 0.1 0
0.39 0.1 0
0.4 0.1 0
0.41 0.1 0
0.42 0.1 0
0.43 0.1 0
0.44 0.1 0
0.45 0.1 0
0.46 0.1 0
0.47 0.1 0
0.48 0.1 0
0.49 0.1 0
0.5 0.1 0
0.51 0.1 0
0.52 0.1 0
0.53 0.1 0
0.54 0.1 0
0.55 0.1 0
0.56 0.1 0
0.57 0.1 0
0.58 0.1 0
0.59 0.1 0
0.6 0.1 0
0.61 0.1 0
0 0.11 0
0.01 0.11 0
0.02 0.11 0
0.03 0.11 0
0.04 0.11 0
0.05 0.11 0
0.06 0.11 0
0.07 0.11 0
0.08 0.11 0
0.09 0.11 0
0.1 0.11 0
0.11 0.11 0
0.12 0.11 0
0.13 0.11 0
0.14 0.11 0
0.15 0.11 0
0.16 0.11 0
0.17 0.11 0
0.18 0.11 0
0.19 0.11 0
0.2 0.11 0
0.21 0.11 0
0.22 0.11 0
0.23 0.11 0
0.24 0.11 0
0.25 0.11 0
0.26 0.11 0
0.27 0.11 0
0.28 0.11 0
0.29 0.11 0
0.3 0.11 0
0.31 0.11 0
0.32 0.11 0
0.33 0.11 0
0.34 0.11 0
0.35 0.11 0
0.36 0.11 0
0.37 0.11 0
0.38 0.11 0
0.39 0.11 0
0.4 0.11 0
0.41 0.11 0
0.42 0.11 0
0.43 0.11 0
0.44 0.11 0
0.45 0.11 0
0.46 0.11 0
0.47 0.11 0
0.48 0.11 0
0.49 0.11 0
0.5 0.11 0
0.51 0.11 0
0.52 0.11 0
0.53 0.11 0
0.54 0.11 0
0.55 0.11 0
0.56 0.11 0
0.57 0.11 0
0.58 0.11 0
0.59 0.11 0
0.6 0.11 0
0.61 0.11 0
0 0.12 0
0.01 0.12 0
0.02 0.12 0
0.03 0.12 0
0.04 0.12 0
0.05 0.12 0
0.06 0.12 0
0.07 0.12 0
0.08 0.12 0
0.09 0.12 0
0.1 0.12 0
0.11 0.12 0
0.12 0.12 0
0.13 0.12 0
0.14 0.12 0
0.15 0.12 0
0.16 0.12 0
0.17 0.12 0
0.18 0.12 0
0.19 0.12 0
0.2 0.12 0
0.21 0.12 0
0.22 0.12 0
0.23 0.12 0
0.24 0.12 0
0.25 0.12 0
0.26 0.12 0
0.27 0.12 0
0.28 0.12 0
0.29 0.12 0
0.3 0.12 0
0.31 0.12 0
0.32 0.12 0
0.33 0.12 0
0.34 0.12 0
0.35 0.12 0
0.36 0.12 0
0.37 0.12 0
0.38 0.12 0
0.39 0.12 0
0.4 0.12 0
0.41 0.12 0
0.42 0.12 0
0.43 0.12 0
0.44 0.12 0
0.45 0.12 0
0.46 0.12 0
0.47 0.12 0
0.48 0.12 0
0.49 0.12 0
0.5 0.12 0
0.51 0.12 0
0.52 0.12 0
0.53 0.12 0
0.54 0.12 0
0.55 0.12 0
0.56 0.12 0
0.57 0.12 0
0.58 0.12 0
0.59 0.12 0
0.6 0.12 0
0.61 0.12 0
0 0.13 0
0.01 0.13 0
0.02 0.13 0
0.03 0.13 0
0.04 0.13 0
0.05 0.13 0
0.06 0.13 0
0.07 0.13 0
0.08 0.13 0
0.09 0.13 0
0.1 0.13 0
0.11 0.13 0
0.12 0.13 0
0.13 0.13 0
0.14 0.13 0
0.15 0.13 0
0.16 0.13 0
0.17 0.13 0
0.18 0.13 0
0.19 0.13 0
0.2 0.13 0
0.21 0.13 0
0.22 0.13 0
0.23 0.13 0
0.24 0.13 0
0.25 0.13 0
0.26 0.13 0
0.27 0.13 0
0.28 0.13 0
0.29 0.13 0
0.3 0.13 0
0.31 0.13 0
0.32 0.13 0
0.33 0.13 0
0.34 0.13 0
0.35 0.13 0
0.36 0.13 0
0.37 0.13 0
0.38 0.13 0
0.39 0.13 0
0.4 0.13 0
0.41 0.13 0
0.42 0.13 0
0.43 0.13 0
0.44 0.13 0
0.45 0.13 0
0.46 0.13 0
0.47 0.13 0
0.48 0.13 0
[...]
POINT_DATA 93248

SCALARS u double
LOOKUP_TABLE default
0
0
0
0
0
0
0
0
0
0
0
0
0
0
0
0
0
0
0
0
0
0
0
0
0.258435
0
0
0
0
0
0
0
0.00519937
0.200749
0
0
0
0
0
0
0
0
0
0
0
0
0
0.039132
0
0
0.0503603
0
0
0
0
0
0
0
0
0
0
0
0
0.404792
0.318416
0.235001
0.165969
0.114919
0.0765113
0.0488921
0.0291093
0.0142521
0.00259805
-0.00569716
-0.0067535
-0.00839922
-0.00926453
-0.00888669
-0.00767739
-0.00723674
-0.0072382
-0.00810614
0.00157805
0.00343535
-0.00234029
-0.00174525
-0.000826524
-0.00025642
6.59312e-05
0.000222806
0.00020815
-7.10715e-05
-0.000735552
-0.00135852
0.000767941
6.78791e-05
-0.00156454
-0.00266536
-0.000329408
-0.00307976
-0.00716215
0.132054
-0.0106306
-0.00511171
-0.00293702
0.00136508
0.0133201
-0.0349466
-0.0142534
-0.0123758
-0.011322
-0.0120518
-0.0126876
-0.0138307
-0.0113722
0.00124747
-0.0463242
-0.0362097
-0.0374638
-0.0297266
-0.0360649
-0.046168
-0.046168
0
0
0.479033
0.452394
0.416822
0.372288
0.329579
0.28013
0.232236
0.18956
0.154289
0.126077
0.104055
0.0941324
0.0840104
0.0775848
0.0742914
0.0730004
0.0714607
0.0725013
0.282712
0.0804043
0.0822214
0.0617516
0.0650197
0.0649093
0.0639385
0.0625802
0.0609426
0.0590481
0.0568656
0.0542693
0.0510806
0.051966
0.0483
0.045423
0.0436605
0.038191
0.0347719
0.00250669
0.0313166
0.0278991
0.0244932
0.0247053
0.0260751
0.0248426
0.00108218
-0.00625522
-0.00478813
-0.00590678
-0.00690775
-0.00637607
-0.0174274
-0.0163637
-0.0201015
-0.0468037
-0.0514419
-0.0592762
-0.0612583
-0.0716878
-0.0834031
-0.0834031
0
0
0.473117
0.462613
0.452001
0.428738
0.421982
0.386143
0.351821
0.318561
0.287201
0.292441
0.237205
0.211055
0.195256
0.183677
0.175821
0.170187
0.163705
0.160936
0.158315
0.150821
0.151004
0.14252
0.139691
0.137232
0.134371
0.131099
0.127496
0.123652
0.119717
0.116063
0.113236
0.106383
0.0995672
0.184896
0.0933673
0.0866387
0.0820683
0.0792118
0.0751898
0.069618
0.0635889
0.106459
0.0539917
0.046562
0.102511
0.0206469
0.014159
-0.00590678
0.00582179
0.00162245
-0.00734092
-0.0138307
-0.0237652
-0.0397898
-0.0507313
-0.0610107
-0.075426
-0.0852722
-0.0958864
-0.0958864
0
0
0.466039
0.450415
0.450383
0.437484
0.428777
0.412691
0.393991
0.374117
0.354064
0.334243
0.315627
0.295662
0.278614
0.264365
0.254363
0.243077
0.237206
0.230323
0.28078
0.215069
0.208577
0.201897
0.196553
0.191804
0.187099
0.182198
0.177061
0.171735
0.16631
0.160865
0.155107
0.147513
0.140062
0.133357
0.128039
0.122162
0.116689
0.111437
0.105219
0.0982058
0.0903112
0.0817098
0.0735913
0.0638993
0.052124
0.0402449
0.0318096
0.0248804
0.0177769
0.0101129
0.00093559
-0.00881556
-0.0201133
-0.0328058
-0.0451585
-0.0574601
-0.0708571
-0.0825898
-0.0944966
-0.0944966
0
0
0.463647
0.446183
0.435909
0.425674
0.416944
0.406601
0.395381
0.383473
0.370988
0.358071
0.34489
0.33111
0.317267
0.302323
0.300183
0.287192
0.278184
0.269942
0.260716
0.252265
0.244562
0.237443
0.230909
0.224764
0.218774
0.212715
0.20654
0.200237
0.193777
0.187032
0.179628
0.171266
0.164827
0.157209
0.150017
0.143112
0.136349
0.129402
0.121842
0.113696
0.104863
0.0953193
0.0855374
0.0752901
0.0653184
0.0664162
0.0436778
0.0348528
0.025805
0.0163836
0.00641199
-0.00415056
-0.0152879
-0.0266975
-0.0381832
-0.0493778
-0.060025
-0.0698669
-0.0818397
-0.0818397
0
0
0.462586
0.442462
0.426987
0.41401
0.402976
0.392366
0.38285
0.37348
0.363899
0.354182
0.344478
0.334896
0.324942
0.315135
0.30977
0.302255
0.293991
0.287613
0.27845
0.270204
0.262515
0.255226
0.248227
0.241445
0.234804
0.228074
0.221316
0.214491
0.207504
0.200187
0.192218
0.182994
0.177984
0.169312
0.161068
0.153265
0.145566
0.137649
0.129337
0.120567
0.111293
0.101464
0.0911207
0.0800619
0.0683504
0.0616669
0.0512036
0.0408151
0.0306121
0.0203889
0.0100442
-0.000461743
-0.0110402
-0.021438
-0.0314754
-0.0407237
-0.0481794
-0.0509028
-0.044904
-0.044904
0
0
0.462
0.440107
0.421682
0.405959
0.392669
0.446815
0.370835
0.359788
0.349756
0.340521
0.332189
0.325429
0.317953
0.310979
0.305219
0.300249
0.295397
0.289396
0.282712
0.275848
0.269117
0.262281
0.255372
0.248459
0.241602
0.234596
0.227669
0.220719
0.213643
0.206387
0.199201
0.192932
0.180605
0.172633
0.164944
0.15711
0.149062
0.140726
0.132054
0.123015
0.11361
0.108002
0.0935103
0.0828692
0.0724684
0.0638095
0.054008
0.043704
0.0332994
0.0229131
0.0126054
0.00244777
-0.00754649
-0.0171171
-0.0261611
-0.0348962
-0.0445966
-0.057862
-0.0255723
-0.0255723
0
0
0.461634
0.438613
0.418386
0.400542
0.384681
0.369978
0.357576
0.346135
0.335552
0.32583
0.31746
0.314319
0.307306
0.301184
0.294634
0.0730004
0.290361
0.285389
0.28078
0.27548
0.270094
0.263949
0.25736
0.250507
0.218774
0.236605
0.229973
0.223196
0.216265
0.20908
0.201583
0.193766
0.183882
0.175038
0.166748
0.158536
0.150215
0.141667
0.132832
0.123689
0.11423
0.104443
0.094476
0.0843899
0.0744787
0.0649351
0.0551545
0.0450738
0.0348378
0.0246009
0.0145154
0.00482806
-0.0047431
-0.0138043
-0.0223478
-0.030557
-0.0390039
-0.050659
-0.0449586
-0.0449586
0
0
0.461392
0.437626
0.416228
0.396929
0.379427
0.363373
0.349146
0.336307
0.324559
0.313399
0.300578
0.309501
0.298954
0.292889
0.288552
0.287036
0.286687
0.28292
0.278582
0.273534
0.269121
0.26329
0.257028
0.25056
0.244502
0.237694
0.230931
0.224251
0.217542
0.210467
0.202302
0.193805
0.184934
0.176237
0.167734
0.159258
0.150723
0.142031
0.1331
0.123916
0.11449
0.10485
0.0950831
0.0852657
0.075486
0.065731
0.055905
0.0459511
0.0358998
0.0258478
0.0158409
0.00688654
-0.0025276
-0.0113541
-0.0198375
-0.0282535
-0.037096
-0.0468424
-0.0543787
-0.0543787
0
0
0.461226
0.436956
0.414764
0.394492
0.375929
0.35894
0.343559
0.329668
0.317145
0.305904
0.296423
0.295483
0.290627
0.28648
0.283273
0.281923
0.280673
0.278333
0.275269
0.271863
0.266317
0.261132
0.255451
0.249152
0.244212
0.237442
0.230937
0.2246
0.218374
0.239168
0.202551
0.193711
0.185244
0.176818
0.168392
0.167003
0.151243
0.14242
0.133404
0.124186
0.114793
0.105258
0.0956082
0.0859028
0.0761752
0.0664162
0.0566177
0.0467608
0.0368534
0.0270111
0.0172598
-0.00579782
-0.00085085
-0.00947787
-0.0180643
-0.0267217
-0.035785
-0.0456359
-0.0564494
-0.0564494
0
0
0.461113
0.436496
0.413745
0.392819
0.373514
0.355823
0.339726
0.325223
0.312367
0.30137
0.29289
0.287905
0.283933
0.281203
0.278077
0.276537
0.275333
0.273658
0.2714
0.271266
0.26408
0.259215
0.253841
0.248049
0.242525
0.236395
0.230298
0.224339
0.218208
0.211868
0.201262
0.19358
0.185644
0.177371
0.168907
0.160327
0.16115
0.142945
0.133845
0.124584
0.115199
0.10576
0.0961619
0.0864991
0.0768091
0.0671012
0.0573837
0.0476402
0.0378592
0.0283342
0.0191856
0.0104607
0.00123322
-0.0077646
-0.0165828
-0.0254287
-0.0346411
-0.0446715
-0.0559909
-0.0559909
0
0
0.461038
0.436196
0.413119
0.391596
0.371791
0.353612
0.33707
0.322225
0.309215
0.298253
0.289698
0.28354
0.279356
0.277309
0.273289
0.272227
0.271236
0.269785
0.267985
0.265381
0.261753
0.257292
0.25218
0.246598
0.240774
0.234764
0.228972
0.22342
0.217124
0.208198
0.204004
0.1957
0.186978
0.178279
0.169585
0.160852
0.152056
0.143334
0.134336
0.12504
0.11559
0.106459
0.0968228
0.0871459
0.0774757
0.0678249
0.0582126
0.0486044
0.0388506
0.0295496
0.0205916
0.0117573
0.00270074
-0.00631581
-0.01522
-0.0241504
-0.0334286
-0.043509
-0.0548832
-0.0548832
0
0
0.460988
0.43599
0.412648
0.390719
0.370578
0.352075
0.335239
0.320176
0.307051
0.295966
0.28717
0.280487
0.275478
0.271068
0.271659
0.270243
0.268649
0.266816
0.265428
0.263126
0.259738
0.255444
0.250424
0.244808
0.238721
0.232408
0.226528
0.221555
0.218206
0.210982
0.20422
0.196307
0.187814
0.17909
0.170286
0.161481
0.152671
0.144015
0.134999
0.125506
0.115374
0.107937
0.0976894
0.0878861
0.0781952
0.0685715
0.0590514
0.049611
0.039698
0.0306081
0.0217389
0.0128327
0.00383263
-0.00509548
-0.0139336
-0.0228167
-0.0320913
-0.0421456
-0.0535496
-0.0535496
0
0
0.460957
0.435872
0.412505
0.389899
0.36971
0.351014
0.333979
0.318748
0.30546
0.294354
0.285343
0.278398
0.273275
0.26973
0.268635
0.267574
0.266125
0.264021
0.263707
0.261511
0.258029
0.25369
0.248613
0.242802
0.236194
0.228766
0.221016
0.213984
0.224763
0.216436
0.207062
0.197998
0.189009
0.17997
0.170947
0.162156
0.153042
0.14478
0.135867
0.126387
0.116712
0.108002
0.0983868
0.0886626
0.0789456
0.0692825
0.0597515
0.0505278
0.0404042
0.031712
0.022934
0.0140124
0.00481498
-0.00400017
-0.0126761
-0.0213362
-0.0306569
-0.0405154
-0.0519125
-0.0519125
0
0
0.460931
0.435721
0.412073
0.389763
0.369221
0.350322
0.33313
0.317781
0.304419
0.293181
0.284056
0.27702
0.271953
0.26868
0.266929
0.265755
0.264389
0.261785
0.262993
0.260038
0.256287
0.251928
0.246836
0.240819
0.233501
0.223799
0.208076
0.176
0.262428
0.228599
0.212323
0.200776
0.190568
0.180794
0.17126
0.162054
0.153261
0.145455
0.136972
0.12769
0.118164
0.10877
0.0992041
0.089515
0.0797312
0.0699245
0.0600448
0.0501137
0.0421484
0.0332556
0.0243608
0.015755
0.00535041
-0.00297434
-0.0114792
-0.0199091
-0.0287822
-0.0383427
-0.0496135
-0.0496135
0
0
0.460941
0.435611
0.411849
0.389603
0.368954
0.34991
0.33258
0.317139
0.303729
0.292441
0.283228
0.276127
0.271073
0.267842
0.265979
0.264921
0.264424
0.265119
0.259486
0.257039
0.254115
0.250248
0.245383
0.239428
0.232096
0.222789
0.211032
0.201608
0.228281
0.223108
0.212512
0.201599
0.191055
0.1808
0.170726
0.160921
0.151924
0.14496
0.138776
0.129962
0.120259
0.110423
0.100562
0.0906724
0.0806869
0.0707572
0.0608457
0.0511698
0.0423777
0.0342149
0.0254286
0.0164547
0.00697948
-0.00154623
-0.0105212
-0.018457
-0.0265302
-0.0352591
-0.0459439
-0.0459439
0
0
0.461025
0.435516
0.411764
0.389553
0.368895
0.34962
0.332164
0.316693
0.303316
0.292075
0.282743
0.275534
0.270447
0.267243
0.265431
0.264429
0.263798
0.263031
0.259896
0.25687
0.253552
0.249582
0.244791
0.239092
0.232442
0.224985
0.217597
0.21378
0.217558
0.214944
0.20806
0.199223
0.189578
0.179503
0.169024
0.158067
0.146887
0.138352
0.145373
0.135458
0.124091
0.113115
0.102511
0.0921602
0.081842
0.0717905
0.0618468
0.0520325
0.0425993
0.0351434
0.0261662
0.0171224
0.00854517
0.0013781
-0.0111051
-0.0172718
-0.0240692
-0.031021
-0.0395248
-0.0395248
0
0
0.460755
0.435699
0.411894
0.389724
0.369208
0.33707
0.331627
0.316349
0.303144
0.292096
0.282468
0.275096
0.269973
0.266875
0.265195
0.264178
0.263259
0.262079
0.259948
0.257155
0.253763
0.249731
0.24502
0.239653
0.233792
0.227909
0.253533
0.217998
0.21575
0.21114
0.204445
0.1964
0.187427
0.177619
0.166733
0.153871
0.135805
0.100107
0.181979
0.1476
0.129621
0.116314
0.104572
0.0935323
0.0831447
0.0729187
0.0629485
0.0530825
0.0429467
0.0360281
0.0263418
0.0173618
0.00902847
0.000957371
-0.00905391
-0.035785
-0.0220338
-0.0264591
-0.0268567
0
0
0
0.460838
0.434838
0.411744
0.38976
0.36941
0.349508
0.331812
0.316387
0.303277
0.292591
0.282199
0.27474
0.269666
0.266864
0.265447
0.264384
0.263195
0.262126
0.260307
0.257671
0.254321
0.250327
0.245729
0.240622
0.235216
0.229845
0.224436
0.218683
0.215913
0.209423
0.202162
0.194274
0.185711
0.177666
0.165547
0.153153
0.13876
0.126753
0.150793
0.123916
0.130025
0.11751
0.105677
0.0945184
0.0839604
0.0737878
0.0640614
0.0549616
0.0465187
0.0336277
0.0251223
0.0168611
0.00869634
0.00059621
-0.00752372
-0.0147105
-0.0219224
-0.0292702
-0.0385768
-0.0385768
0
0
0.460872
0.43555
0.41155
0.389803
0.36971
0.349076
0.33168
0.316386
0.303372
0.293223
0.281707
0.274814
0.269818
0.267754
0.2666
0.26528
0.26361
0.26296
0.261136
0.25844
0.255093
0.251155
0.24664
0.241634
0.236319
0.231204
0.227713
0.223471
0.213969
0.207339
0.200417
0.192938
0.184896
0.176022
0.166216
0.155787
0.14591
0.139687
0.140503
0.135613
0.126565
0.116029
0.105158
0.0945005
0.0841803
0.0741482
0.0644819
0.055143
0.0456716
0.0348037
0.02532
0.0165946
0.00827906
0.000221117
-0.00770013
-0.015593
-0.0240716
-0.0337362
-0.045375
-0.045375
0
0
0.460892
0.435627
0.412009
0.389018
0.367279
0.349612
0.332209
0.316568
0.302804
0.290097
0.283927
0.276833
0.271104
0.320569
0.269005
0.266821
0.264438
0.264362
0.262035
0.259209
0.255927
0.252107
0.247631
0.242548
0.236728
0.229051
0.232033
0.223954
0.215482
0.207746
0.20019
0.192615
0.185019
0.176826
0.167964
0.159008
0.150829
0.144253
0.138477
0.131704
0.123407
0.114005
0.103755
0.093721
0.0838146
0.0739478
0.064298
0.0547756
0.0451355
0.0351857
0.025472
0.0163486
0.00778373
-0.000418991
-0.0086623
-0.0171221
-0.0263829
-0.0369608
-0.0489053
-0.0489053
0
0
0.460891
0.435599
0.411795
0.389118
0.367907
0.349173
0.331874
0.316382
0.303006
0.292
0.284197
0.27792
0.347025
0.272704
0.269842
0.268046
0.267591
0.263842
0.261931
0.259681
0.256797
0.253235
0.248775
0.243695
0.238089
0.232211
0.229968
0.223682
0.216119
0.208239
0.200288
0.192487
0.185358
0.17843
0.170234
0.161915
0.153845
0.146204
0.138478
0.130422
0.121916
0.113211
0.101796
0.0925563
0.0830082
0.0733254
0.0637958
0.0543205
0.0448048
0.0350616
0.0250753
0.0157887
0.00704835
-0.0013536
-0.00982911
-0.018503
-0.0280972
-0.0391646
-0.0510899
-0.0510899
0
0
0.46089
0.435591
0.411766
0.389338
0.368459
0.349323
0.331653
0.316128
0.303085
0.294166
0.285676
0.279815
0.277185
0.269704
0.268161
0.267611
0.267096
0.265228
0.263263
0.260964
0.258178
0.254806
0.250142
0.245108
0.239876
0.234622
0.22963
0.223391
0.216161
0.208288
0.199907
0.191224
0.183507
0.182002
0.173321
0.165174
0.156329
0.147688
0.139029
0.13025
0.12127
0.111913
0.101466
0.0916289
0.0583365
0.0724619
0.0631986
0.0538502
0.0445066
0.0347364
0.00780733
0.0149086
0.00608256
-0.0299431
-0.0110216
-0.0195259
-0.0291555
-0.0408844
-0.0527117
-0.0527117
0
0
0.460896
0.435623
0.411868
0.389644
0.369044
0.349983
0.331333
0.315449
0.299718
0.298779
0.28774
0.28106
0.276814
0.272318
0.270027
0.26888
0.267974
0.266682
0.264896
0.26263
0.259928
0.256834
0.251558
0.246635
0.241652
0.236352
0.23054
0.214491
0.216468
0.208408
0.199157
0.187607
0.168358
0.197727
0.176891
0.17053
0.159029
0.149157
0.139753
0.13046
0.121055
0.11121
0.101219
0.0915166
0.0821371
0.0723948
0.0627938
0.0533421
0.044158
0.0348631
0.0233988
0.01466
0.00601301
-0.00243906
-0.0114182
-0.020168
-0.0295579
-0.0423681
-0.0538051
-0.0538051
0
0
0.460907
0.435673
0.412014
0.390005
0.3699
0.352508
0.32996
0.316012
0.302883
0.296303
0.288282
0.281956
0.277407
0.274135
0.272217
0.271261
0.269905
0.268527
0.266735
0.264426
0.261684
0.258933
0.252838
0.248539
0.243711
0.238219
0.232152
0.225181
0.217775
0.209555
0.199825
0.189464
0.179257
0.185962
0.177732
0.169971
0.159932
0.149941
0.140217
0.130683
0.121098
0.110815
0.100867
0.0912165
0.0816745
0.0719916
0.0622715
0.0525438
0.028875
0.0346541
0.0222911
0.0146412
0.00567243
-0.00332999
-0.0124271
-0.0212699
-0.0297245
-0.0432549
-0.0537151
-0.0537151
0
0
0.460914
0.435708
0.412111
0.390199
0.370111
0.351881
0.333301
0.317899
0.305317
0.296045
0.28846
0.282615
0.278446
0.275744
0.274209
0.273282
0.271944
0.270581
0.268754
0.266278
0.262927
0.257999
0.256574
0.251834
0.246359
0.240285
0.233623
0.227076
0.219817
0.21263
0.200906
0.193278
0.186334
0.182361
0.175817
0.167994
0.159036
0.149614
0.140093
0.130647
0.121206
0.110327
0.100497
0.0909423
0.0813304
0.071598
0.0617621
0.05181
0.0416225
0.0307724
0.0264191
0.015052
0.00522424
-0.00428207
-0.0138791
-0.0239143
-0.0343592
-0.0389289
-0.0514239
-0.0514239
0
0
0.460911
0.435702
0.412123
0.390254
0.370179
0.351924
0.335417
0.319543
0.306922
0.297128
0.289536
0.283909
0.280033
0.277624
0.276315
0.275538
0.274526
0.273131
0.27119
0.2686
0.265383
0.26133
0.246836
0.253582
0.248362
0.242208
0.235569
0.228736
0.221521
0.213917
0.204559
0.196659
0.189481
0.182541
0.175078
0.166928
0.15817
0.148999
0.139605
0.130192
0.121111
0.109703
0.100433
0.0909332
0.0812072
0.0713497
0.0614026
0.0513815
0.0413522
0.0317404
0.0240666
0.0143908
0.00463212
-0.00497237
-0.0145175
-0.0240521
-0.0332823
-0.0410961
-0.0522033
-0.0522033
0
0
0.460886
0.435621
0.412017
0.390205
0.370222
0.352218
0.336904
0.320242
0.308434
0.298926
0.291479
0.285979
0.282266
0.279982
0.278788
0.278248
0.277278
0.275847
0.273863
0.271266
0.268332
0.264713
0.260717
0.255854
0.250338
0.244005
0.237399
0.230496
0.223209
0.215484
0.207291
0.199304
0.191486
0.183538
0.175312
0.166726
0.15779
0.148544
0.138993
0.129013
0.118421
0.111295
0.101342
0.091254
0.0812322
0.0712203
0.0611974
0.0511929
0.0413086
0.0317668
0.0226387
0.0132855
0.00384601
-0.00550679
-0.0147085
-0.0236665
-0.0334516
-0.0426465
-0.0536073
-0.0536073
0
0
0.460821
0.435392
0.411757
0.39007
0.370151
0.351792
0.334181
0.323115
0.311488
0.302883
0.294177
0.288714
0.285124
0.282967
0.281488
0.281217
0.280029
0.278603
0.276722
0.274191
0.27164
0.268033
0.263576
0.258236
0.212642
0.245701
0.239369
0.232486
0.225148
0.217428
0.209451
0.201351
0.193126
0.184673
0.175963
0.167003
0.157812
0.148398
0.138761
0.128914
0.119118
0.110375
0.100883
0.0910433
0.0810881
0.0710591
0.0610083
0.0509876
0.0410484
0.0312941
0.0217312
0.0123282
0.00305411
-0.00606404
-0.0150669
-0.0240976
-0.0336888
-0.043518
-0.0546115
-0.0546115
0
0
0.460696
0.434838
0.41793
0.390042
0.370366
0.352473
0.336466
0.324015
0.313162
0.304062
0.296936
0.291801
0.288548
0.287105
0.283374
0.283608
0.28238
0.269942
0.280053
0.277689
0.275559
0.271547
0.266866
0.261656
0.255926
0.249153
0.242145
0.234901
0.227362
0.219533
0.211464
0.203183
0.19467
0.185857
0.176782
0.16751
0.158079
0.148506
0.138821
0.129085
0.11943
0.109924
0.10032
0.090618
0.080797
0.0708005
0.0607402
0.0506763
0.0405946
0.0306488
0.0209417
0.0114945
0.00228551
-0.00670524
-0.0156482
-0.0247338
-0.0341444
-0.0441151
-0.0536073
-0.0552176
0
0
0.460727
0.433294
0.4103
0.389588
0.370692
0.353641
0.338679
0.326113
0.31554
0.306891
0.300185
0.295373
0.29226
0.290322
0.287167
0.0714607
0.284604
0.285628
0.284979
0.283452
0.279097
0.275017
0.27033
0.265146
0.258554
0.251781
0.244752
0.237392
0.229702
0.221716
0.213476
0.205
0.196245
0.187085
0.177666
0.168115
0.15847
0.148734
0.138952
0.129167
0.119417
0.109581
0.0998229
0.0901812
0.0804675
0.0704506
0.0603784
0.0502954
0.0400385
0.0299376
0.020176
0.0107227
0.00153942
-0.00736818
-0.016309
-0.0254031
-0.0348007
-0.0509028
-0.0559594
-0.0559594
0
0
0.462892
0.429474
0.409575
0.389884
0.371704
0.355362
0.341127
0.329007
0.318849
0.310637
0.304331
0.29982
0.29689
0.295195
0.294325
0.296078
0.294743
0.293122
0.291086
0.288311
0.284192
0.279495
0.274275
0.268808
0.261332
0.254675
0.247581
0.240053
0.232165
0.223971
0.215528
0.206865
0.197904
0.188317
0.178539
0.168746
0.158913
0.148988
0.139006
0.129051
0.119173
0.109059
0.0992025
0.089673
0.0800965
0.069959
0.0599176
0.0499412
0.0394792
0.0292664
0.0195226
0.010083
0.00087239
-0.00797458
-0.0263358
-0.026069
-0.0353128
-0.045247
-0.063603
-0.0565869
0
0
0.461055
0.43384
0.411365
0.391377
0.373509
0.357693
0.344078
0.332702
0.323156
0.315507
0.309666
0.30547
0.302745
0.301349
0.300925
0.301272
0.300655
0.299154
0.29679
0.293494
0.289225
0.284058
0.278027
0.27092
0.26563
0.258461
0.250799
0.242862
0.23472
0.22625
0.217581
0.208753
0.19966
0.189434
0.17933
0.169386
0.159414
0.149279
0.138865
0.128597
0.118589
0.108073
0.0981751
0.0888556
0.0795362
0.0691451
0.0593186
0.0497737
0.0390777
0.028875
0.0192491
0.00980451
0.000449765
-0.00819258
-0.0173026
-0.0265789
-0.0359042
-0.0457521
-0.0566778
-0.0566778
0
0
0.460938
0.43572
0.413301
0.393388
0.368895
0.360549
0.347525
0.337532
0.328688
0.321762
0.316456
0.312533
0.309791
0.267842
0.30755
0.307455
0.306737
0.305126
0.302513
0.298895
0.294339
0.288701
0.282244
0.275302
0.268649
0.261356
0.253533
0.245225
0.237272
0.228431
0.219491
0.210503
0.201435
0.190223
0.180027
0.170108
0.160049
0.149863
0.138221
0.127525
0.117055
0.106154
0.0963393
0.0872339
0.0783881
0.0677264
0.058525
0.049997
0.0391853
0.0292972
0.0198405
0.0102559
0.000396738
-0.00843822
-0.018055
-0.0273777
-0.0367055
-0.046531
-0.0574234
-0.0574234
0
0
0.461126
0.436734
0.414887
0.395609
0.37892
0.364599
0.352675
0.343383
0.33575
0.329665
0.324944
0.321257
0.318626
0.317223
0.315976
0.314901
0.313516
0.311399
0.308336
0.304313
0.29943
0.293154
0.286242
0.279072
0.271749
0.264092
0.25605
0.247644
0.239168
0.230193
0.220967
0.211662
0.202751
0.190516
0.180958
0.171043
0.160678
0.149875
0.138141
0.125918
-0.00511171
0.102967
0.0933998
0.083749
0.0754449
0.0658451
0.0575661
0.0503391
0.0408375