# vtk DataFile Version 2.0
FlowField
ASCII
DATASET STRUCTURED_GRID
DIMENSIONS 62 47 32 
POINTS 93248 double
0 0 0
0.01 0 0
0.02 0 0
0.03 0 0
0.04 0 0
0.05 0 0
0.06 0 0
0.07 0 0
0.08 0 0
0.09 0 0
0.1 0 0
0.11 0 0
0.12 0 0
0.13 0 0
0.14 0 0
0.15 0 0
0.16 0 0
0.17 0 0
0.18 0 0
0.19 0 0
0.2 0 0
0.21 0 0
0.22 0 0
0.23 0 0
0.24 0 0
0.25 0 0
0.26 0 0
0.27 0 0
0.28 0 0
0.29 0 0
0.3 0 0
0.31 0 0
0.32 0 0
0.33 0 0
0.34 0 0
0.35 0 0
0.36 0 0
0.37 0 0
0.38 0 0
0.39 0 0
0.4 0 0
0.41 0 0
0.42 0 0
0.43 0 0
0.44 0 0
0.45 0 0
0.46 0 0
0.47 0 0
0.48 0 0
0.49 0 0
0.5 0 0
0.51 0 0
0.52 0 0
0.53 0 0
0.54 0 0
0.55 0 0
0.56 0 0
0.57 0 0
0.58 0 0
0.59 0 0
0.6 0 0
0.61 0 0
0 0.01 0
0.01 0.01 0
0.02 0.01 0
0.03 0.01 0
0.04 0.01 0
0.05 0.01 0
0.06 0.01 0
0.07 0.01 0
0.08 0.01 0
0.09 0.01 0
0.1 0.01 0
0.11 0.01 0
0.12 0.01 0
0.13 0.01 0
0.14 0.01 0
0.15 0.01 0
0.16 0.01 0
0.17 0.01 0
0.18 0.01 0
0.19 0.01 0
0.2 0.01 0
0.21 0.01 0
0.22 0.01 0
0.23 0.01 0
0.24 0.01 0
0.25 0.01 0
0.26 0.01 0
0.27 0.01 0
0.28 0.01 0
0.29 0.01 0
0.3 0.01 0
0.31 0.01 0
0.32 0.01 0
0.33 0.01 0
0.34 0.01 0
0.35 0.01 0
0.36 0.01 0
0.37 0.01 0
0.38 0.01 0
0.39 0.01 0
0.4 0.01 0
0.41 0.01 0
0.42 0.01 0
0.43 0.01 0
0.44 0.01 0
0.45 0.01 0
0.46 0.01 0
0.47 0.01 0
0.48 0.01 0
0.49 0.01 0
0.5 0.01 0
0.51 0.01 0
0.52 0.01 0
0.53 0.01 0
0.54 0.01 0
0.55 0.01 0
0.56 0.01 0
0.57 0.01 0
0.58 0.01 0
0.59 0.01 0
0.6 0.01 0
0.61 0.01 0
0 0.02 0
0.01 0.02 0
0.02 0.02 0
0.03 0.02 0
0.04 0.02 0
0.05 0.02 0
0.06 0.02 0
0.07 0.02 0
0.08 0.02 0
0.09 0.02 0
0.1 0.02 0
0.11 0.02 0
0.12 0.02 0
0.13 0.02 0
0.14 0.02 0
0.15 0.02 0
0.16 0.02 0
0.17 0.02 0
0.18 0.02 0
0.19 0.02 0
0.2 0.02 0
0.21 0.02 0
0.22 0.02 0
0.23 0.02 0
0.24 0.02 0
0.25 0.02 0
0.26 0.02 0
0.27 0.02 0
0.28 0.02 0
0.29 0.02 0
0.3 0.02 0
0.31 0.02 0
0.32 0.02 0
0.33 0.02 0
0.34 0.02 0
0.35 0.02 0
0.36 0.02 0
0.37 0.02 0
0.38 0.02 0
0.39 0.02 0
0.4 0.02 0
0.41 0.02 0
0.42 0.02 0
0.43 0.02 0
0.44 0.02 0
0.45 0.02 0
0.46 0.02 0
0.47 0.02 0
0.48 0.02 0
0.49 0.02 0
0.5 0.02 0
0.51 0.02 0
0.52 0.02 0
0.53 0.02 0
0.54 0.02 0
0.55 0.02 0
0.56 0.02 0
0.57 0.02 0
0.58 0.02 0
0.59 0.02 0
0.6 0.02 0
0.61 0.02 0
0 0.03 0
0.01 0.03 0
0.02 0.03 0
0.03 0.03 0
0.04 0.03 0
0.05 0.03 0
0.06 0.03 0
0.07 0.03 0
0.08 0.03 0
0.09 0.03 0
0.1 0.03 0
0.11 0.03 0
0.12 0.03 0
0.13 0.03 0
0.14 0.03 0
0.15 0.03 0
0.16 0.03 0
0.17 0.03 0
0.18 0.03 0
0.19 0.03 0
0.2 0.03 0
0.21 0.03 0
0.22 0.03 0
0.23 0.03 0
0.24 0.03 0
0.25 0.03 0
0.26 0.03 0
0.27 0.03 0
0.28 0.03 0
0.29 0.03 0
0.3 0.03 0
0.31 0.03 0
0.32 0.03 0
0.33 0.03 0
0.34 0.03 0
0.35 0.03 0
0.36 0.03 0
0.37 0.03 0
0.38 0.03 0
0.39 0.03 0
0.4 0.03 0
0.41 0.03 0
0.42 0.03 0
0.43 0.03 0
0.44 0.03 0
0.45 0.03 0
0.46 0.03 0
0.47 0.03 0
0.48 0.03 0
0.49 0.03 0
0.5 0.03 0
0.51 0.03 0
0.52 0.03 0
0.53 0.03 0
0.54 0.03 0
0.55 0.03 0
0.56 0.03 0
0.57 0.03 0
0.58 0.03 0
0.59 0.03 0
0.6 0.03 0
0.61 0.03 0
0 0.04 0
0.01 0.04 0
0.02 0.04 0
0.03 0.04 0
0.04 0.04 0
0.05 0.04 0
0.06 0.04 0
0.07 0.04 0
0.08 0.04 0
0.09 0.04 0
0.1 0.04 0
0.11 0.04 0
0.12 0.04 0
0.13 0.04 0
0.14 0.04 0
0.15 0.04 0
0.16 0.04 0
0.17 0.04 0
0.18 0.04 0
0.19 0.04 0
0.2 0.04 0
0.21 0.04 0
0.22 0.04 0
0.23 0.04 0
0.24 0.04 0
0.25 0.04 0
0.26 0.04 0
0.27 0.04 0
0.28 0.04 0
0.29 0.04 0
0.3 0.04 0
0.31 0.04 0
0.32 0.04 0
0.33 0.04 0
0.34 0.04 0
0.35 0.04 0
0.36 0.04 0
0.37 0.04 0
0.38 0.04 0
0.39 0.04 0
0.4 0.04 0
0.41 0.04 0
0.42 0.04 0
0.43 0.04 0
0.44 0.04 0
0.45 0.04 0
0.46 0.04 0
0.47 0.04 0
0.48 0.04 0
0.49 0.04 0
0.5 0.04 0
0.51 0.04 0
0.52 0.04 0
0.53 0.04 0
0.54 0.04 0
0.55 0.04 0
0.56 0.04 0
0.57 0.04 0
0.58 0.04 0
0.59 0.04 0
0.6 0.04 0
0.61 0.04 0
0 0.05 0
0.01 0.05 0
0.02 0.05 0
0.03 0.05 0
0.04 0.05 0
0.05 0.05 0
0.06 0.05 0
0.07 0.05 0
0.08 0.05 0
0.09 0.05 0
0.1 0.05 0
0.11 0.05 0
0.12 0.05 0
0.13 0.05 0
0.14 0.05 0
0.15 0.05 0
0.16 0.05 0
0.17 0.05 0
0.18 0.05 0
0.19 0.05 0
0.2 0.05 0
0.21 0.05 0
0.22 0.05 0
0.23 0.05 0
0.24 0.05 0
0.25 0.05 0
0.26 0.05 0
0.27 0.05 0
0.28 0.05 0
0.29 0.05 0
0.3 0.05 0
0.31 0.05 0
0.32 0.05 0
0.33 0.05 0
0.34 0.05 0
0.35 0.05 0
0.36 0.05 0
0.37 0.05 0
0.38 0.05 0
0.39 0.05 0
0.4 0.05 0
0.41 0.05 0
0.42 0.05 0
0.43 0.05 0
0.44 0.05 0
0.45 0.05 0
0.46 0.05 0
0.47 0.05 0
0.48 0.05 0
0.49 0.05 0
0.5 0.05 0
0.51 0.05 0
0.52 0.05 0
0.53 0.05 0
0.54 0.05 0
0.55 0.05 0
0.56 0.05 0
0.57 0.05 0
0.58 0.05 0
0.59 0.05 0
0.6 0.05 0
0.61 0.05 0
0 0.06 0
0.01 0.06 0
0.02 0.06 0
0.03 0.06 0
0.04 0.06 0
0.05 0.06 0
0.06 0.06 0
0.07 0.06 0
0.08 0.06 0
0.09 0.06 0
0.1 0.06 0
0.11 0.06 0
0.12 0.06 0
0.13 0.06 0
0.14 0.06 0
0.15 0.06 0
0.16 0.06 0
0.17 0.06 0
0.18 0.06 0
0.19 0.06 0
0.2 0.06 0
0.21 0.06 0
0.22 0.06 0
0.23 0.06 0
0.24 0.06 0
0.25 0.06 0
0.26 0.06 0
0.27 0.06 0
0.28 0.06 0
0.29 0.06 0
0.3 0.06 0
0.31 0.06 0
0.32 0.06 0
0.33 0.06 0
0.34 0.06 0
0.35 0.06 0
0.36 0.06 0
0.37 0.06 0
0.38 0.06 0
0.39 0.06 0
0.4 0.06 0
0.41 0.06 0
0.42 0.06 0
0.43 0.06 0
0.44 0.06 0
0.45 0.06 0
0.46 0.06 0
0.47 0.06 0
0.48 0.06 0
0.49 0.06 0
0.5 0.06 0
0.51 0.06 0
0.52 0.06 0
0.53 0.06 0
0.54 0.06 0
0.55 0.06 0
0.56 0.06 0
0.57 0.06 0
0.58 0.06 0
0.59 0.06 0
0.6 0.06 0
0.61 0.06 0
0 0.07 0
0.01 0.07 0
0.02 0.07 0
0.03 0.07 0
0.04 0.07 0
0.05 0.07 0
0.06 0.07 0
0.07 0.07 0
0.08 0.07 0
0.09 0.07 0
0.1 0.07 0
0.11 0.07 0
0.12 0.07 0
0.13 0.07 0
0.14 0.07 0
0.15 0.07 0
0.16 0.07 0
0.17 0.07 0
0.18 0.07 0
0.19 0.07 0
0.2 0.07 0
0.21 0.07 0
0.22 0.07 0
0.23 0.07 0
0.24 0.07 0
0.25 0.07 0
0.26 0.07 0
0.27 0.07 0
0.28 0.07 0
0.29 0.07 0
0.3 0.07 0
0.31 0.07 0
0.32 0.07 0
0.33 0.07 0
0.34 0.07 0
0.35 0.07 0
0.36 0.07 0
0.37 0.07 0
0.38 0.07 0
0.39 0.07 0
0.4 0.07 0
0.41 0.07 0
0.42 0.07 0
0.43 0.07 0
0.44 0.07 0
0.45 0.07 0
0.46 0.07 0
0.47 0.07 0
0.48 0.07 0
0.49 0.07 0
0.5 0.07 0
0.51 0.07 0
0.52 0.07 0
0.53 0.07 0
0.54 0.07 0
0.55 0.07 0
0.56 0.07 0
0.57 0.07 0
0.58 0.07 0
0.59 0.07 0
0.6 0.07 0
0.61 0.07 0
0 0.08 0
0.01 0.08 0
0.02 0.08 0
0.03 0.08 0
0.04 0.08 0
0.05 0.08 0
0.06 0.08 0
0.07 0.08 0
0.08 0.08 0
0.09 0.08 0
0.1 0.08 0
0.11 0.08 0
0.12 0.08 0
0.13 0.08 0
0.14 0.08 0
0.15 0.08 0
0.16 0.08 0
0.17 0.08 0
0.18 0.08 0
0.19 0.08 0
0.2 0.08 0
0.21 0.08 0
0.22 0.08 0
0.23 0.08 0
0.24 0.08 0
0.25 0.08 0
0.26 0.08 0
0.27 0.08 0
0.28 0.08 0
0.29 0.08 0
0.3 0.08 0
0.31 0.08 0
0.32 0.08 0
0.33 0.08 0
0.34 0.08 0
0.35 0.08 0
0.36 0.08 0
0.37 0.08 0
0.38 0.08 0
0.39 0.08 0
0.4 0.08 0
0.41 0.08 0
0.42 0.08 0
0.43 0.08 0
0.44 0.08 0
0.45 0.08 0
0.46 0.08 0
0.47 0.08 0
0.48 0.08 0
0.49 0.08 0
0.5 0.08 0
0.51 0.08 0
0.52 0.08 0
0.53 0.08 0
0.54 0.08 0
0.55 0.08 0
0.56 0.08 0
0.57 0.08 0
0.58 0.08 0
0.59 0.08 0
0.6 0.08 0
0.61 0.08 0
0 0.09 0
0.01 0.09 0
0.02 0.09 0
0.03 0.09 0
0.04 0.09 0
0.05 0.09 0
0.06 0.09 0
0.07 0.09 0
0.08 0.09 0
0.09 0.09 0
0.1 0.09 0
0.11 0.09 0
0.12 0.09 0
0.13 0.09 0
0.14 0.09 0
0.15 0.09 0
0.16 0.09 0
0.17 0.09 0
0.18 0.09 0
0.19 0.09 0
0.2 0.09 0
0.21 0.09 0
0.22 0.09 0
0.23 0.09 0
0.24 0.09 0
0.25 0.09 0
0.26 0.09 0
0.27 0.09 0
0.28 0.09 0
0.29 0.09 0
0.3 0.09 0
0.31 0.09 0
0.32 0.09 0
0.33 0.09 0
0.34 0.09 0
0.35 0.09 0
0.36 0.09 0
0.37 0.09 0
0.38 0.09 0
0.39 0.09 0
0.4 0.09 0
0.41 0.09 0
0.42 0.09 0
0.43 0.09 0
0.44 0.09 0
0.45 0.09 0
0.46 0.09 0
0.47 0.09 0
0.48 0.09 0
0.49 0.09 0
0.5 0.09 0
0.51 0.09 0
0.52 0.09 0
0.53 0.09 0
0.54 0.09 0
0.55 0.09 0
0.56 0.09 0
0.57 0.09 0
0.58 0.09 0
0.59 0.09 0
0.6 0.09 0
0.61 0.09 0
0 0.1 0
0.01 0.1 0
0.02 0.1 0
0.03 0.1 0
0.04 0.1 0
0.05 0.1 0
0.06 0.1 0
0.07 0.1 0
0.08 0.1 0
0.09 0.1 0
0.1 0.1 0
0.11 0.1 0
0.12 0.1 0
0.13 0.1 0
0.14 0.1 0
0.15 0.1 0
0.16 0.1 0
0.17 0.1 0
0.18 0.1 0
0.19 0.1 0
0.2 0.1 0
0.21 0.1 0
0.22 0.1 0
0.23 0.1 0
0.24 0.1 0
0.25 0.1 0
0.26 0.1 0
0.27 0.1 0
0.28 0.1 0
0.29 0.1 0
0.3 0.1 0
0.31 0.1 0
0.32 0.1 0
0.33 0.1 0
0.34 0.1 0
0.35 0.1 0
0.36 0.1 0
0.37 0.1 0
0.38 0.1 0
0.39 0.1 0
0.4 0.1 0
0.41 0.1 0
0.42 0.1 0
0.43 0.1 0
0.44 0.1 0
0.45 0.1 0
0.46 0.1 0
0.47 0.1 0
0.48 0.1 0
0.49 0.1 0
0.5 0.1 0
0.51 0.1 0
0.52 0.1 0
0.53 0.1 0
0.54 0.1 0
0.55 0.1 0
0.56 0.1 0
0.57 0.1 0
0.58 0.1 0
0.59 0.1 0
0.6 0.1 0
0.61 0.1 0
0 0.11 0
0.01 0.11 0
0.02 0.11 0
0.03 0.11 0
0.04 0.11 0
0.05 0.11 0
0.06 0.11 0
0.07 0.11 0
0.08 0.11 0
0.09 0.11 0
0.1 0.11 0
0.11 0.11 0
0.12 0.11 0
0.13 0.11 0
0.14 0.11 0
0.15 0.11 0
0.16 0.11 0
0.17 0.11 0
0.18 0.11 0
0.19 0.11 0
0.2 0.11 0
0.21 0.11 0
0.22 0.11 0
0.23 0.11 0
0.24 0.11 0
0.25 0.11 0
0.26 0.11 0
0.27 0.11 0
0.28 0.11 0
0.29 0.11 0
0.3 0.11 0
0.31 0.11 0
0.32 0.11 0
0.33 0.11 0
0.34 0.11 0
0.35 0.11 0
0.36 0.11 0
0.37 0.11 0
0.38 0.11 0
0.39 0.11 0
0.4 0.11 0
0.41 0.11 0
0.42 0.11 0
0.43 0.11 0
0.44 0.11 0
0.45 0.11 0
0.46 0.11 0
0.47 0.11 0
0.48 0.11 0
0.49 0.11 0
0.5 0.11 0
0.51 0.11 0
0.52 0.11 0
0.53 0.11 0
0.54 0.11 0
0.55 0.11 0
0.56 0.11 0
0.57 0.11 0
0.58 0.11 0
0.59 0.11 0
0.6 0.11 0
0.61 0.11 0
0 0.12 0
0.01 0.12 0
0.02 0.12 0
0.03 0.12 0
0.04 0.12 0
0.05 0.12 0
0.06 0.12 0
0.07 0.12 0
0.08 0.12 0
0.09 0.12 0
0.1 0.12 0
0.11 0.12 0
0.12 0.12 0
0.13 0.12 0
0.14 0.12 0
0.15 0.12 0
0.16 0.12 0
0.17 0.12 0
0.18 0.12 0
0.19 0.12 0
0.2 0.12 0
0.21 0.12 0
0.22 0.12 0
0.23 0.12 0
0.24 0.12 0
0.25 0.12 0
0.26 0.12 0
0.27 0.12 0
0.28 0.12 0
0.29 0.12 0
0.3 0.12 0
0.31 0.12 0
0.32 0.12 0
0.33 0.12 0
0.34 0.12 0
0.35 0.12 0
0.36 0.12 0
0.37 0.12 0
0.38 0.12 0
0.39 0.12 0
0.4 0.12 0
0.41 0.12 0
0.42 0.12 0
0.43 0.12 0
0.44 0.12 0
0.45 0.12 0
0.46 0.12 0
0.47 0.12 0
0.48 0.12 0
0.49 0.12 0
0.5 0.12 0
0.51 0.12 0
0.52 0.12 0
0.53 0.12 0
0.54 0.12 0
0.55 0.12 0
0.56 0.12 0
0.57 0.12 0
0.58 0.12 0
0.59 0.12 0
0.6 0.12 0
0.61 0.12 0
0 0.13 0
0.01 0.13 0
0.02 0.13 0
0.03 0.13 0
0.04 0.13 0
0.05 0.13 0
0.06 0.13 0
0.07 0.13 0
0.08 0.13 0
0.09 0.13 0
0.1 0.13 0
0.11 0.13 0
0.12 0.13 0
0.13 0.13 0
0.14 0.13 0
0.15 0.13 0
0.16 0.13 0
0.17 0.13 0
0.18 0.13 0
0.19 0.13 0
0.2 0.13 0
0.21 0.13 0
0.22 0.13 0
0.23 0.13 0
0.24 0.13 0
0.25 0.13 0
0.26 0.13 0
0.27 0.13 0
0.28 0.13 0
0.29 0.13 0
0.3 0.13 0
0.31 0.13 0
0.32 0.13 0
0.33 0.13 0
0.34 0.13 0
0.35 0.13 0
0.36 0.13 0
0.37 0.13 0
0.38 0.13 0
0.39 0.13 0
0.4 0.13 0
0.41 0.13 0
0.42 0.13 0
0.43 0.13 0
0.44 0.13 0
0.45 0.13 0
0.46 0.13 0
0.47 0.13 0
0.48 0.13 0
[...]
POINT_DATA 93248

SCALARS u double
LOOKUP_TABLE default
0
0
0
0
0
0
0
0
0
0
0
0
0
0
0
0
0
0
0
0
0
0
0
0
0.291658
0
0
0
0
0
0
0
0.0885559
0.219184
0
0
0
0
0
0
0
0
0
0
0
0
0
0.0935811
0
0
0.0775493
0
0
0
0
0
0
0
0
0
0
0
0
0.423052
0.34996
0.282569
0.233006
0.203218
0.186726
0.176998
0.170007
0.164292
0.159312
0.154671
0.150544
0.146547
0.142707
0.138958
0.135359
0.13176
0.128213
0.124434
0.121557
0.11829
0.115006
0.111649
0.108326
0.105035
0.101763
0.0985003
0.0952398
0.0919726
0.0886874
0.085377
0.0821246
0.078709
0.0750936
0.0714275
0.0677194
0.0648238
0.0656428
0.164386
0.0542466
0.0517603
0.0493977
0.0468908
0.0444272
0.0391082
0.0371645
0.0342306
0.0311563
0.0279616
0.0248549
0.0520773
0.0188084
0.0159981
0.0106573
0.00778432
0.024199
0.00127998
-0.00278281
-0.00812704
-0.00812704
0
0
0.497524
0.491535
0.47778
0.456442
0.432592
0.411269
0.39399
0.379885
0.36785
0.357226
0.347245
0.338364
0.329713
0.321366
0.313177
0.305359
0.29747
0.290083
0.334596
0.27562
0.267548
0.260192
0.252666
0.245277
0.237953
0.230663
0.223395
0.216136
0.208877
0.201598
0.194267
0.187099
0.179773
0.172093
0.164228
0.155118
0.142453
-0.0706002
0.124597
0.123613
0.119802
0.114306
0.108039
0.10136
0.0937857
0.0866386
0.079725
0.0727308
0.0655822
0.0584748
0.05213
0.0445964
0.0372245
0.0293103
0.0221177
0.014775
0.00743427
-0.000300907
-0.00809231
-0.00809231
0
0
0.492166
0.503007
0.509512
0.502953
0.48751
0.468885
0.452248
0.437655
0.424552
0.403683
0.401617
0.39124
0.381475
0.372014
0.362986
0.354125
0.344717
0.33593
0.327141
0.318424
0.3099
0.301509
0.293028
0.284562
0.276121
0.267704
0.259305
0.250919
0.242542
0.234179
0.225848
0.217289
0.209297
0.213806
0.192254
0.183267
0.174977
0.170121
0.159184
0.149979
0.141874
0.138583
0.12621
0.118518
0.130422
0.10203
0.0932105
0.0727308
0.0765109
0.0684675
0.0604664
0.0520773
0.0436196
0.0350618
0.0267157
0.0183906
0.00969483
0.00135884
-0.00682675
-0.00682675
0
0
0.485238
0.492229
0.498921
0.496467
0.485438
0.471107
0.457178
0.444181
0.432064
0.420816
0.410014
0.399593
0.389637
0.37998
0.370799
0.361361
0.352724
0.343684
0.334162
0.325681
0.316953
0.308299
0.299658
0.29103
0.282422
0.273833
0.26526
0.2567
0.248149
0.239606
0.231066
0.222459
0.214011
0.205372
0.19697
0.18872
0.181193
0.174734
0.165208
0.155454
0.146354
0.137718
0.129326
0.120958
0.112345
0.103789
0.0953828
0.0870593
0.0786003
0.0702149
0.0618419
0.0533489
0.0447857
0.0361933
0.0276582
0.0191444
0.0105458
0.00213282
-0.00621057
-0.00621057
0
0
0.481883
0.483981
0.48807
0.485469
0.476039
0.464343
0.452715
0.441327
0.430317
0.419738
0.40947
0.399456
0.389689
0.380044
0.371632
0.362101
0.35313
0.344176
0.335242
0.326368
0.3176
0.308906
0.300251
0.291621
0.283012
0.274422
0.265848
0.257285
0.248729
0.240174
0.23161
0.223022
0.214644
0.206117
0.197734
0.189539
0.181655
0.173932
0.165152
0.15603
0.147074
0.138349
0.129781
0.121295
0.112903
0.10451
0.0956019
0.0872919
0.0788739
0.0704554
0.0620365
0.053569
0.04503
0.0364672
0.0279301
0.0194238
0.0109447
0.00254603
-0.00596447
-0.00596447
0
0
0.480481
0.479601
0.480868
0.477187
0.468376
0.458004
0.44776
0.437521
0.42745
0.417585
0.407828
0.398229
0.388775
0.379458
0.370553
0.361618
0.352666
0.343857
0.334987
0.326192
0.317467
0.308793
0.300156
0.291546
0.282956
0.274388
0.265834
0.25729
0.248752
0.24021
0.231648
0.223002
0.214846
0.20636
0.197921
0.18963
0.181449
0.173239
0.164679
0.155923
0.147168
0.138484
0.12985
0.121183
0.11239
0.104576
0.0959977
0.0874502
0.078965
0.0705334
0.0621447
0.0537467
0.0452041
0.0366327
0.0281014
0.0196187
0.0112078
0.00305919
-0.00476291
-0.00476291
0
0
0.47982
0.477189
0.476584
0.47185
0.462949
0.467036
0.443132
0.433788
0.42462
0.415419
0.406157
0.396865
0.387684
0.378585
0.369619
0.360944
0.352133
0.343351
0.334596
0.325887
0.317222
0.308587
0.299978
0.291394
0.282828
0.274285
0.265756
0.257238
0.248724
0.240213
0.231762
0.223431
0.214621
0.206212
0.197891
0.18957
0.181254
0.172887
0.164386
0.155783
0.14715
0.138678
0.129919
0.121307
0.112719
0.104478
0.0959961
0.0874716
0.0789795
0.0705568
0.0622555
0.0540419
0.045401
0.036754
0.0282146
0.0197286
0.0112042
0.00265773
-0.00421602
-0.00421602
0
0
0.479471
0.475833
0.473992
0.468346
0.45908
0.449305
0.4401
0.431171
0.422317
0.413437
0.404481
0.395425
0.386519
0.377553
0.36834
0.305359
0.351107
0.342706
0.334162
0.325533
0.316937
0.308342
0.299765
0.29121
0.283012
0.274165
0.265658
0.257171
0.248686
0.240172
0.231725
0.223306
0.214719
0.206277
0.197886
0.18951
0.181121
0.172697
0.164214
0.155677
0.147112
0.138542
0.129975
0.121417
0.112891
0.104456
0.0959651
0.0874391
0.0789117
0.0704426
0.0622071
0.0544488
0.0454878
0.0367409
0.0282593
0.0199067
0.0116269
0.00307058
-0.00496423
-0.00496423
0
0
0.479269
0.475009
0.472326
0.465965
0.456324
0.44652
0.437495
0.428803
0.420195
0.411574
0.402992
0.393922
0.385326
0.376673
0.367986
0.359574
0.350966
0.342335
0.333731
0.325143
0.316624
0.308069
0.299515
0.290986
0.282476
0.273991
0.265529
0.257098
0.248687
0.240199
0.231752
0.223275
0.214767
0.206301
0.197867
0.189452
0.181026
0.172579
0.164106
0.155603
0.14708
0.138547
0.130013
0.121485
0.11297
0.104475
0.0959549
0.0873884
0.078746
0.0699879
0.0611661
0.0540507
0.0446311
0.0362781
0.0281195
0.0199162
0.0116711
0.00330909
-0.00506534
-0.00506534
0
0
0.479143
0.474474
0.471193
0.464291
0.454292
0.444329
0.435319
0.426756
0.418315
0.409893
0.401448
0.39287
0.384362
0.375861
0.36731
0.358862
0.350334
0.341798
0.333284
0.324814
0.316231
0.307716
0.299224
0.290725
0.282271
0.273796
0.265368
0.257014
0.248806
0.247399
0.232017
0.223346
0.21479
0.206295
0.197821
0.188494
0.180925
0.172488
0.16403
0.155552
0.147057
0.138551
0.13004
0.121529
0.11302
0.10451
0.0959746
0.087374
0.0785985
0.0693112
0.0586569
-0.0164351
0.0412343
0.0352424
0.0278922
0.0199117
0.0117142
0.00341484
-0.00504477
-0.00504477
0
0
0.479059
0.47411
0.470381
0.463088
0.452774
0.442627
0.433571
0.425054
0.416717
0.408425
0.400118
0.391767
0.383422
0.375095
0.366532
0.358089
0.349672
0.341246
0.332781
0.321307
0.31579
0.307377
0.298931
0.290463
0.282
0.273544
0.26513
0.256793
0.248563
0.240384
0.231466
0.223094
0.214702
0.206254
0.19779
0.189325
0.179856
0.172405
0.163974
0.155518
0.147045
0.138561
0.130066
0.121567
0.113065
0.10456
0.0960389
0.0874845
0.0788697
0.070198
0.0616969
0.0542407
0.044862
0.0364549
0.0282837
0.0200724
0.0118083
0.00349134
-0.0050051
-0.0050051
0
0
0.479004
0.47387
0.469895
0.462141
0.451551
0.441266
0.432156
0.42365
0.415366
0.407158
0.398953
0.390729
0.382515
0.374425
0.365718
0.357377
0.349082
0.340742
0.332379
0.324002
0.315554
0.307105
0.29865
0.290183
0.281708
0.273237
0.264805
0.25647
0.248258
0.239686
0.231927
0.223418
0.214823
0.206271
0.19776
0.189282
0.180829
0.17238
0.163946
0.155504
0.147047
0.138583
0.130097
0.121605
0.113111
0.104617
0.0961217
0.0876234
0.0791283
0.0707173
0.0625504
0.0547011
0.0457895
0.0370721
0.0286102
0.0202514
0.0119173
0.00356522
-0.00496121
-0.00496121
0
0
0.478963
0.47368
0.469445
0.461468
0.450663
0.440226
0.431034
0.422499
0.41423
0.406071
0.39793
0.389766
0.381542
0.373134
0.365313
0.357062
0.348698
0.340331
0.331994
0.323638
0.315233
0.306806
0.298361
0.28989
0.281388
0.272859
0.264355
0.256038
0.248474
0.240179
0.231928
0.223406
0.214808
0.206231
0.197697
0.189203
0.180745
0.172322
0.163923
0.15551
0.147058
0.138641
0.130141
0.121647
0.113157
0.104673
0.0961995
0.0877409
0.079272
0.0709021
0.0626395
0.0544136
0.0458332
0.03726
0.0287912
0.0203945
0.0120155
0.00363706
-0.00491509
-0.00491509
0
0
0.478932
0.473532
0.469106
0.46093
0.449967
0.439406
0.430132
0.421558
0.413289
0.405141
0.397041
0.388939
0.380799
0.372604
0.364595
0.356435
0.348165
0.33983
0.33162
0.323297
0.314918
0.306512
0.298079
0.289602
0.281055
0.272401
0.263632
0.254967
0.249901
0.241161
0.232256
0.223466
0.214775
0.20616
0.197599
0.189086
0.180617
0.172237
0.163919
0.155559
0.147135
0.138678
0.130187
0.121691
0.113199
0.104719
0.0962584
0.0878288
0.0793369
0.0709659
0.0626341
0.0542861
0.0457773
0.0373161
0.0288947
0.0205247
0.0120863
0.00370927
-0.00486323
-0.00486323
0
0
0.478915
0.47341
0.468832
0.460518
0.449416
0.438757
0.429406
0.420782
0.412491
0.404354
0.396285
0.38823
0.380161
0.372072
0.364004
0.355873
0.347653
0.339294
0.331297
0.322993
0.314613
0.306232
0.297819
0.289349
0.280769
0.271937
0.262382
0.250176
0.256962
0.243146
0.232799
0.223553
0.21472
0.206056
0.197456
0.188901
0.180418
0.172091
0.163972
0.155692
0.147265
0.13877
0.130253
0.12174
0.113236
0.104747
0.0962666
0.0877923
0.0794398
0.0710377
0.0626597
0.0543465
0.045657
0.0373311
0.0289538
0.0206003
0.0122072
0.00380368
-0.00479286
-0.00479286
0
0
0.478935
0.47329
0.46859
0.46017
0.448971
0.438241
0.428808
0.420128
0.411814
0.403683
0.395633
0.387615
0.379598
0.371566
0.363509
0.355412
0.347293
0.339233
0.330732
0.322488
0.314256
0.305953
0.297593
0.289166
0.280651
0.271998
0.263161
0.25447
0.249841
0.241097
0.232083
0.223236
0.21453
0.205899
0.197261
0.188622
0.180044
0.171755
0.164263
0.156035
0.147507
0.138915
0.130337
0.121791
0.113268
0.104771
0.096291
0.0878302
0.0794276
0.0710493
0.0626498
0.0542464
0.0457745
0.0373895
0.0289845
0.0206919
0.0123092
0.00392305
-0.0046753
-0.0046753
0
0
0.479035
0.473155
0.46838
0.4599
0.448609
0.437792
0.428236
0.419508
0.411199
0.403093
0.395067
0.387078
0.379106
0.371123
0.363087
0.355002
0.346892
0.338768
0.330479
0.322247
0.31401
0.305734
0.29741
0.289036
0.28061
0.272137
0.263675
0.255465
0.24813
0.239974
0.231476
0.222888
0.214297
0.205727
0.197023
0.188226
0.179322
0.170663
0.165699
0.156923
0.147925
0.139101
0.130422
0.121834
0.113287
0.104786
0.0963044
0.0878314
0.0793771
0.0710828
0.0626562
0.0542258
0.0458086
0.037475
0.0288378
0.0206744
0.0123376
0.00409146
-0.00437038
-0.00437038
0
0
0.478713
0.473373
0.468539
0.459857
0.448372
0.432156
0.427494
0.418847
0.410618
0.402574
0.394565
0.386603
0.378681
0.37077
0.362737
0.35464
0.346523
0.338398
0.330218
0.32202
0.313801
0.305548
0.297257
0.288929
0.280571
0.2722
0.26412
0.255615
0.247717
0.23951
0.231102
0.222593
0.214037
0.205508
0.196728
0.187783
0.178105
0.165312
0.172844
0.158743
0.148423
0.139243
0.130459
0.121833
0.113298
0.104794
0.0963119
0.087821
0.0792872
0.0711486
0.0626628
0.0542036
0.0457741
0.0373176
0.0286722
0.0117142
0.0121312
0.00433547
-0.00328332
0
0
0
0.478819
0.473068
0.46835
0.459753
0.448348
0.43721
0.42749
0.418692
0.410364
0.402264
0.394139
0.386161
0.3783
0.370513
0.362426
0.354277
0.34617
0.338084
0.329966
0.321807
0.313614
0.305385
0.297123
0.28883
0.280515
0.272199
0.263917
0.255548
0.247616
0.239308
0.230862
0.222353
0.213688
0.196855
0.196303
0.187785
0.17898
0.170227
0.165757
0.155603
0.147903
0.139073
0.130389
0.121797
0.113268
0.104783
0.0963333
0.0879292
0.0795945
0.0708561
0.0625014
0.0541471
0.0457684
0.0373813
0.029002
0.0207715
0.0123881
0.00412166
-0.00435266
-0.00435266
0
0
0.478853
0.473182
0.46815
0.4597
0.448416
0.436937
0.427257
0.418497
0.410129
0.402051
0.393706
0.385689
0.377852
0.370136
0.361787
0.353697
0.345706
0.337794
0.329743
0.321621
0.313451
0.305245
0.297005
0.288733
0.280436
0.272135
0.264076
0.255921
0.247294
0.238974
0.230656
0.222251
0.213806
0.205421
0.196807
0.188235
0.179718
0.17148
0.164131
0.155953
0.14743
0.138844
0.130271
0.121726
0.113208
0.104749
0.0963177
0.087903
0.079489
0.0709275
0.0624962
0.0541276
0.0457717
0.0374235
0.0290629
0.020751
0.0123565
0.00395593
-0.004658
-0.004658
0
0
0.478868
0.473207
0.468368
0.459271
0.44748
0.436971
0.427401
0.418499
0.409971
0.401498
0.393537
0.385332
0.377033
0.339518
0.35985
0.352553
0.345062
0.3375
0.329562
0.321463
0.313315
0.305128
0.296905
0.288645
0.280334
0.271892
0.264437
0.255856
0.247324
0.238936
0.230571
0.222187
0.213797
0.205438
0.196965
0.188493
0.180079
0.171812
0.163751
0.155518
0.147124
0.138656
0.130156
0.121652
0.11313
0.104713
0.0963007
0.0878823
0.0794505
0.0709603
0.0624723
0.0541092
0.0457639
0.0374439
0.0290266
0.0206457
0.0122584
0.00384077
-0.00477263
-0.00477263
0
0
0.478867
0.473179
0.46822
0.459288
0.44763
0.436777
0.427219
0.418393
0.409891
0.401345
0.393154
0.384775
0.352684
0.368498
0.36074
0.353046
0.345378
0.337349
0.329351
0.321311
0.3132
0.305037
0.296829
0.288588
0.280319
0.272028
0.263956
0.255641
0.247257
0.238882
0.230504
0.222112
0.213727
0.205415
0.197016
0.188631
0.180244
0.171911
0.163635
0.15532
0.146943
0.138532
0.130069
0.12164
0.113135
0.104763
0.0963268
0.0878945
0.0794846
0.0710337
0.0625083
0.0541352
0.0457053
0.0373676
0.0288925
0.0205257
0.0121649
0.00375632
-0.00483795
-0.00483795
0
0
0.478865
0.473161
0.468165
0.459304
0.447705
0.436718
0.427134
0.418389
0.409988
0.400775
0.392851
0.385044
0.377633
0.369376
0.361317
0.353366
0.345426
0.337363
0.329318
0.321247
0.313137
0.304984
0.296772
0.288546
0.280306
0.272057
0.263832
0.255525
0.247193
0.238827
0.230434
0.22201
0.213577
0.205499
0.197045
0.188776
0.180351
0.171947
0.163581
0.155213
0.146827
0.138429
0.13005
0.121787
0.119301
0.105042
0.0964015
0.0879087
0.0795607
0.0712576
0.0692775
0.0543347
0.0454859
0.0280451
0.0285256
0.0203828
0.0120953
0.00368864
-0.00488563
-0.00488563
0
0
0.478865
0.473156
0.468153
0.459313
0.447736
0.436734
0.427102
0.418568
0.411226
0.398027
0.391849
0.384784
0.377383
0.369466
0.361451
0.353438
0.345418
0.337369
0.329305
0.32122
0.313109
0.304977
0.296721
0.288508
0.280291
0.272054
0.263814
0.25729
0.247197
0.238797
0.230377
0.221885
0.21309
0.206241
0.197015
0.189215
0.180461
0.171962
0.16354
0.155141
0.146739
0.138326
0.129912
0.121486
0.112969
0.104616
0.0961808
0.0877357
0.079393
0.0708979
0.0622927
0.0540208
0.0456434
0.0373423
0.0288419
0.0204675
0.0121254
0.00362124
-0.00492796
-0.00492796
0
0
0.478867
0.473159
0.468156
0.459325
0.447759
0.436777
0.426791
0.418246
0.409995
0.400732
0.392857
0.385088
0.377321
0.369423
0.361455
0.353451
0.345432
0.337381
0.329308
0.321211
0.313102
0.305019
0.29667
0.288477
0.280299
0.272054
0.263776
0.255422
0.247103
0.238755
0.230359
0.221939
0.213498
0.205464
0.197015
0.188774
0.18034
0.171903
0.163487
0.155082
0.146673
0.138233
0.129802
0.121356
0.112875
0.104466
0.096005
0.0873952
0.0708614
0.0705086
0.062059
0.0539316
0.0456371
0.0373156
0.0288824
0.0205006
0.0121959
0.00352725
-0.00496099
-0.00496099
0
0
0.47887
0.473164
0.468165
0.459338
0.447769
0.436746
0.427032
0.418198
0.409764
0.401309
0.393204
0.38526
0.377369
0.369451
0.361491
0.353498
0.345472
0.337413
0.329327
0.321213
0.313058
0.304812
0.296797
0.288612
0.28039
0.272087
0.26374
0.255427
0.247095
0.238757
0.230337
0.221981
0.213618
0.20533
0.196975
0.188634
0.180243
0.171837
0.163432
0.155034
0.146639
0.138139
0.129715
0.121292
0.112855
0.104437
0.0960152
0.0875943
0.0792468
0.0706641
0.0624735
0.0539738
0.0456024
0.0372364
0.0288217
0.0203794
0.0119031
0.00379014
-0.00485999
-0.00485999
0
0
0.478873
0.473169
0.468177
0.459362
0.447801
0.436775
0.427162
0.41822
0.409754
0.401457
0.393393
0.385431
0.377497
0.369552
0.361585
0.353593
0.345553
0.337472
0.329373
0.32125
0.313101
0.304897
0.297819
0.288624
0.280482
0.27211
0.263725
0.255394
0.247068
0.238734
0.23037
0.222009
0.21365
0.205302
0.196939
0.188568
0.180179
0.171779
0.163376
0.154987
0.146638
0.138039
0.129642
0.121247
0.112831
0.104419
0.0960142
0.0876253
0.0792574
0.0707899
0.0624374
0.0539925
0.04559
0.0371962
0.0287913
0.0203801
0.0119738
0.00368528
-0.00489319
-0.00489319
0
0
0.478872
0.473171
0.46819
0.459401
0.447864
0.436868
0.427386
0.418301
0.409877
0.401667
0.393683
0.385712
0.377721
0.369727
0.361734
0.353752
0.345682
0.337556
0.329443
0.321307
0.313157
0.30495
0.296705
0.288443
0.280383
0.271844
0.263536
0.255295
0.24703
0.238719
0.230378
0.222021
0.213657
0.205288
0.196912
0.188527
0.18013
0.171725
0.163308
0.154868
0.146379
0.138147
0.129692
0.121234
0.112804
0.104391
0.0959903
0.087599
0.0792105
0.0707949
0.0623966
0.0539818
0.0455752
0.0371745
0.0287769
0.0203941
0.011982
0.0036309
-0.00492346
-0.00492346
0
0
0.47886
0.473154
0.468202
0.459471
0.447954
0.436927
0.427185
0.418715
0.410439
0.409995
0.394374
0.386181
0.378045
0.369959
0.36191
0.353998
0.345859
0.33767
0.329555
0.321385
0.313259
0.30502
0.29666
0.287989
0.254142
0.270683
0.263014
0.255114
0.246984
0.238718
0.230387
0.222029
0.213658
0.205278
0.19689
0.188494
0.18009
0.171679
0.163261
0.154832
0.146396
0.138044
0.129615
0.121179
0.112758
0.104351
0.0959551
0.0875653
0.0791751
0.0707755
0.062374
0.0539671
0.0455611
0.0371585
0.028761
0.0203727
0.0119914
0.00361255
-0.00493974
-0.00493974
0
0
0.47882
0.473068
0.470185
0.459618
0.448134
0.437141
0.427535
0.418876
0.410516
0.402232
0.394212
0.386204
0.37817
0.370125
0.361931
0.354197
0.345947
0.344176
0.329824
0.321507
0.313417
0.305182
0.296875
0.288591
0.280571
0.271999
0.263638
0.255361
0.247077
0.238756
0.230409
0.222042
0.213662
0.205271
0.196872
0.188466
0.180054
0.171638
0.16322
0.154801
0.146383
0.137968
0.129536
0.121107
0.112695
0.104299
0.095914
0.0875339
0.0791518
0.0707616
0.0623631
0.0539578
0.0455506
0.0371465
0.028748
0.0203577
0.0119821
0.00360028
-0.00492346
-0.00494999
0
0
0.478878
0.472896
0.467981
0.459524
0.448242
0.437391
0.427881
0.419162
0.410791
0.402562
0.394487
0.386458
0.37841
0.370264
0.361756
0.29747
0.344919
0.337471
0.329704
0.321732
0.313432
0.305217
0.297024
0.288833
0.280649
0.272268
0.26387
0.255507
0.247157
0.238804
0.230439
0.222061
0.21367
0.205266
0.196855
0.188438
0.180016
0.171593
0.163174
0.154767
0.146364
0.13791
0.129451
0.121017
0.112613
0.104234
0.0958687
0.0875072
0.0791416
0.0707622
0.0623662
0.0539578
0.0455454
0.0371383
0.0287376
0.0203419
0.0119632
0.00305919
-0.0049658
-0.0049658
0
0
0.478891
0.473148
0.468364
0.45959
0.448384
0.437707
0.428304
0.41957
0.411205
0.403016
0.394926
0.386872
0.378811
0.370715
0.362609
0.354814
0.346403
0.338174
0.330045
0.321904
0.313646
0.305409
0.297182
0.288991
0.280629
0.272301
0.263954
0.25559
0.247224
0.238853
0.230475
0.222086
0.213683
0.205262
0.196836
0.188407
0.179972
0.171535
0.16311
0.154727
0.14639
0.137857
0.129337
0.120887
0.112498
0.104152
0.0958193
0.0874884
0.0791522
0.0707882
0.0623914
0.0539713
0.0455447
0.0371332
0.0282363
0.0203217
0.011949
0.0035675
-0.00521589
-0.00498445
0
0
0.478923
0.473048
0.46833
0.460051
0.448959
0.438269
0.428905
0.420025
0.411701
0.40355
0.395458
0.387381
0.379297
0.3712
0.363107
0.355089
0.346842
0.338583
0.330354
0.322125
0.313861
0.305587
0.297296
0.288957
0.28078
0.272437
0.26405
0.255667
0.247285
0.238903
0.230514
0.222119
0.213711
0.205254
0.196812
0.188372
0.179919
0.171452
0.162987
0.154627
0.146517
0.137749
0.12913
0.120675
0.112326
0.10405
0.095767
0.0874808
0.0792019
0.0708614
0.0624539
0.0540048
0.0455446
0.0371586
0.0287283
0.020312
0.0119299
0.00354929
-0.00498797
-0.00498797
0
0
0.478917
0.473368
0.468835
0.460585
0.448609
0.438934
0.429754
0.420059
0.412193
0.404164
0.396084
0.387975
0.379851
0.371566
0.363574
0.355399
0.347164
0.338903
0.330638
0.322366
0.314077
0.305772
0.297455
0.289124
0.28084
0.272494
0.26412
0.255738
0.247342
0.238949
0.230555
0.222163
0.213774
0.205224
0.196777
0.188335
0.17986
0.171338
0.162703
0.154135
0.146219
0.13709
0.128634
0.120303
0.112052
0.103944
0.0957189
0.0874786
0.0793372
0.0710274
0.0625821
0.0540731
0.0455412
0.0371927
0.0287171
0.0202836
0.0118977
0.00352026
-0.00500937
-0.00500937
0
0
0.479005
0.473643
0.469239
0.461124
0.450214
0.439691
0.430448
0.421585
0.413245
0.405036
0.396854
0.388664
0.380461
0.372245
0.364017
0.35578
0.347512
0.339224
0.330927
0.322621
0.314303
0.305962
0.297617
0.289272
0.280932
0.272569
0.26419
0.255798
0.247399
0.238996
0.230591
0.222203
0.213878
0.205178
0.196745
0.18832
0.179819
0.171208
0.162287
0.152334
0.0517603
0.13418
0.127551
0.119694
0.111579
0.103973
0.0957046
0.0874074
0.0797167
0.0713892
0.0628197
0.054234
0.0457105
0.0370625
0.0286282
0.0202235
0.0118464
0.00347805
-0.00503623
-0.00503623
0
0
0.479075
0.473868
0.469663
0.46177
0.451046
0.440646
0.431426
0.422752
0.414341
0.406027
0.397742
0.389445
0.381142
0.372836
0.364529
0.356216
0.347893
0.339562
0.331226
0.322887
0.314548
0.306145
0.297769
0.289407
0.281042
0.272657
0.264266
0.255865
0.247456
0.239038
0.230606
0.222139
0.213586