# vtk DataFile Version 2.0
FlowField
ASCII
DATASET STRUCTURED_GRID
DIMENSIONS 62 47 32 
POINTS 93248 double
0 0 0
0.01 0 0
0.02 0 0
0.03 0 0
0.04 0 0
0.05 0 0
0.06 0 0
0.07 0 0
0.08 0 0
0.09 0 0
0.1 0 0
0.11 0 0
0.12 0 0
0.13 0 0
0.14 0 0
0.15 0 0
0.16 0 0
0.17 0 0
0.18 0 0
0.19 0 0
0.2 0 0
0.21 0 0
0.22 0 0
0.23 0 0
0.24 0 0
0.25 0 0
0.26 0 0
0.27 0 0
0.28 0 0
0.29 0 0
0.3 0 0
0.31 0 0
0.32 0 0
0.33 0 0
0.34 0 0
0.35 0 0
0.36 0 0
0.37 0 0
0.38 0 0
0.39 0 0
0.4 0 0
0.41 0 0
0.42 0 0
0.43 0 0
0.44 0 0
0.45 0 0
0.46 0 0
0.47 0 0
0.48 0 0
0.49 0 0
0.5 0 0
0.51 0 0
0.52 0 0
0.53 0 0
0.54 0 0
0.55 0 0
0.56 0 0
0.57 0 0
0.58 0 0
0.59 0 0
0.6 0 0
0.61 0 0
0 0.01 0
0.01 0.01 0
0.02 0.01 0
0.03 0.01 0
0.04 0.01 0
0.05 0.01 0
0.06 0.01 0
0.07 0.01 0
0.08 0.01 0
0.09 0.01 0
0.1 0.01 0
0.11 0.01 0
0.12 0.01 0
0.13 0.01 0
0.14 0.01 0
0.15 0.01 0
0.16 0.01 0
0.17 0.01 0
0.18 0.01 0
0.19 0.01 0
0.2 0.01 0
0.21 0.01 0
0.22 0.01 0
0.23 0.01 0
0.24 0.01 0
0.25 0.01 0
0.26 0.01 0
0.27 0.01 0
0.28 0.01 0
0.29 0.01 0
0.3 0.01 0
0.31 0.01 0
0.32 0.01 0
0.33 0.01 0
0.34 0.01 0
0.35 0.01 0
0.36 0.01 0
0.37 0.01 0
0.38 0.01 0
0.39 0.01 0
0.4 0.01 0
0.41 0.01 0
0.42 0.01 0
0.43 0.01 0
0.44 0.01 0
0.45 0.01 0
0.46 0.01 0
0.47 0.01 0
0.48 0.01 0
0.49 0.01 0
0.5 0.01 0
0.51 0.01 0
0.52 0.01 0
0.53 0.01 0
0.54 0.01 0
0.55 0.01 0
0.56 0.01 0
0.57 0.01 0
0.58 0.01 0
0.59 0.01 0
0.6 0.01 0
0.61 0.01 0
0 0.02 0
0.01 0.02 0
0.02 0.02 0
0.03 0.02 0
0.04 0.02 0
0.05 0.02 0
0.06 0.02 0
0.07 0.02 0
0.08 0.02 0
0.09 0.02 0
0.1 0.02 0
0.11 0.02 0
0.12 0.02 0
0.13 0.02 0
0.14 0.02 0
0.15 0.02 0
0.16 0.02 0
0.17 0.02 0
0.18 0.02 0
0.19 0.02 0
0.2 0.02 0
0.21 0.02 0
0.22 0.02 0
0.23 0.02 0
0.24 0.02 0
0.25 0.02 0
0.26 0.02 0
0.27 0.02 0
0.28 0.02 0
0.29 0.02 0
0.3 0.02 0
0.31 0.02 0
0.32 0.02 0
0.33 0.02 0
0.34 0.02 0
0.35 0.02 0
0.36 0.02 0
0.37 0.02 0
0.38 0.02 0
0.39 0.02 0
0.4 0.02 0
0.41 0.02 0
0.42 0.02 0
0.43 0.02 0
0.44 0.02 0
0.45 0.02 0
0.46 0.02 0
0.47 0.02 0
0.48 0.02 0
0.49 0.02 0
0.5 0.02 0
0.51 0.02 0
0.52 0.02 0
0.53 0.02 0
0.54 0.02 0
0.55 0.02 0
0.56 0.02 0
0.57 0.02 0
0.58 0.02 0
0.59 0.02 0
0.6 0.02 0
0.61 0.02 0
0 0.03 0
0.01 0.03 0
0.02 0.03 0
0.03 0.03 0
0.04 0.03 0
0.05 0.03 0
0.06 0.03 0
0.07 0.03 0
0.08 0.03 0
0.09 0.03 0
0.1 0.03 0
0.11 0.03 0
0.12 0.03 0
0.13 0.03 0
0.14 0.03 0
0.15 0.03 0
0.16 0.03 0
0.17 0.03 0
0.18 0.03 0
0.19 0.03 0
0.2 0.03 0
0.21 0.03 0
0.22 0.03 0
0.23 0.03 0
0.24 0.03 0
0.25 0.03 0
0.26 0.03 0
0.27 0.03 0
0.28 0.03 0
0.29 0.03 0
0.3 0.03 0
0.31 0.03 0
0.32 0.03 0
0.33 0.03 0
0.34 0.03 0
0.35 0.03 0
0.36 0.03 0
0.37 0.03 0
0.38 0.03 0
0.39 0.03 0
0.4 0.03 0
0.41 0.03 0
0.42 0.03 0
0.43 0.03 0
0.44 0.03 0
0.45 0.03 0
0.46 0.03 0
0.47 0.03 0
0.48 0.03 0
0.49 0.03 0
0.5 0.03 0
0.51 0.03 0
0.52 0.03 0
0.53 0.03 0
0.54 0.03 0
0.55 0.03 0
0.56 0.03 0
0.57 0.03 0
0.58 0.03 0
0.59 0.03 0
0.6 0.03 0
0.61 0.03 0
0 0.04 0
0.01 0.04 0
0.02 0.04 0
0.03 0.04 0
0.04 0.04 0
0.05 0.04 0
0.06 0.04 0
0.07 0.04 0
0.08 0.04 0
0.09 0.04 0
0.1 0.04 0
0.11 0.04 0
0.12 0.04 0
0.13 0.04 0
0.14 0.04 0
0.15 0.04 0
0.16 0.04 0
0.17 0.04 0
0.18 0.04 0
0.19 0.04 0
0.2 0.04 0
0.21 0.04 0
0.22 0.04 0
0.23 0.04 0
0.24 0.04 0
0.25 0.04 0
0.26 0.04 0
0.27 0.04 0
0.28 0.04 0
0.29 0.04 0
0.3 0.04 0
0.31 0.04 0
0.32 0.04 0
0.33 0.04 0
0.34 0.04 0
0.35 0.04 0
0.36 0.04 0
0.37 0.04 0
0.38 0.04 0
0.39 0.04 0
0.4 0.04 0
0.41 0.04 0
0.42 0.04 0
0.43 0.04 0
0.44 0.04 0
0.45 0.04 0
0.46 0.04 0
0.47 0.04 0
0.48 0.04 0
0.49 0.04 0
0.5 0.04 0
0.51 0.04 0
0.52 0.04 0
0.53 0.04 0
0.54 0.04 0
0.55 0.04 0
0.56 0.04 0
0.57 0.04 0
0.58 0.04 0
0.59 0.04 0
0.6 0.04 0
0.61 0.04 0
0 0.05 0
0.01 0.05 0
0.02 0.05 0
0.03 0.05 0
0.04 0.05 0
0.05 0.05 0
0.06 0.05 0
0.07 0.05 0
0.08 0.05 0
0.09 0.05 0
0.1 0.05 0
0.11 0.05 0
0.12 0.05 0
0.13 0.05 0
0.14 0.05 0
0.15 0.05 0
0.16 0.05 0
0.17 0.05 0
0.18 0.05 0
0.19 0.05 0
0.2 0.05 0
0.21 0.05 0
0.22 0.05 0
0.23 0.05 0
0.24 0.05 0
0.25 0.05 0
0.26 0.05 0
0.27 0.05 0
0.28 0.05 0
0.29 0.05 0
0.3 0.05 0
0.31 0.05 0
0.32 0.05 0
0.33 0.05 0
0.34 0.05 0
0.35 0.05 0
0.36 0.05 0
0.37 0.05 0
0.38 0.05 0
0.39 0.05 0
0.4 0.05 0
0.41 0.05 0
0.42 0.05 0
0.43 0.05 0
0.44 0.05 0
0.45 0.05 0
0.46 0.05 0
0.47 0.05 0
0.48 0.05 0
0.49 0.05 0
0.5 0.05 0
0.51 0.05 0
0.52 0.05 0
0.53 0.05 0
0.54 0.05 0
0.55 0.05 0
0.56 0.05 0
0.57 0.05 0
0.58 0.05 0
0.59 0.05 0
0.6 0.05 0
0.61 0.05 0
0 0.06 0
0.01 0.06 0
0.02 0.06 0
0.03 0.06 0
0.04 0.06 0
0.05 0.06 0
0.06 0.06 0
0.07 0.06 0
0.08 0.06 0
0.09 0.06 0
0.1 0.06 0
0.11 0.06 0
0.12 0.06 0
0.13 0.06 0
0.14 0.06 0
0.15 0.06 0
0.16 0.06 0
0.17 0.06 0
0.18 0.06 0
0.19 0.06 0
0.2 0.06 0
0.21 0.06 0
0.22 0.06 0
0.23 0.06 0
0.24 0.06 0
0.25 0.06 0
0.26 0.06 0
0.27 0.06 0
0.28 0.06 0
0.29 0.06 0
0.3 0.06 0
0.31 0.06 0
0.32 0.06 0
0.33 0.06 0
0.34 0.06 0
0.35 0.06 0
0.36 0.06 0
0.37 0.06 0
0.38 0.06 0
0.39 0.06 0
0.4 0.06 0
0.41 0.06 0
0.42 0.06 0
0.43 0.06 0
0.44 0.06 0
0.45 0.06 0
0.46 0.06 0
0.47 0.06 0
0.48 0.06 0
0.49 0.06 0
0.5 0.06 0
0.51 0.06 0
0.52 0.06 0
0.53 0.06 0
0.54 0.06 0
0.55 0.06 0
0.56 0.06 0
0.57 0.06 0
0.58 0.06 0
0.59 0.06 0
0.6 0.06 0
0.61 0.06 0
0 0.07 0
0.01 0.07 0
0.02 0.07 0
0.03 0.07 0
0.04 0.07 0
0.05 0.07 0
0.06 0.07 0
0.07 0.07 0
0.08 0.07 0
0.09 0.07 0
0.1 0.07 0
0.11 0.07 0
0.12 0.07 0
0.13 0.07 0
0.14 0.07 0
0.15 0.07 0
0.16 0.07 0
0.17 0.07 0
0.18 0.07 0
0.19 0.07 0
0.2 0.07 0
0.21 0.07 0
0.22 0.07 0
0.23 0.07 0
0.24 0.07 0
0.25 0.07 0
0.26 0.07 0
0.27 0.07 0
0.28 0.07 0
0.29 0.07 0
0.3 0.07 0
0.31 0.07 0
0.32 0.07 0
0.33 0.07 0
0.34 0.07 0
0.35 0.07 0
0.36 0.07 0
0.37 0.07 0
0.38 0.07 0
0.39 0.07 0
0.4 0.07 0
0.41 0.07 0
0.42 0.07 0
0.43 0.07 0
0.44 0.07 0
0.45 0.07 0
0.46 0.07 0
0.47 0.07 0
0.48 0.07 0
0.49 0.07 0
0.5 0.07 0
0.51 0.07 0
0.52 0.07 0
0.53 0.07 0
0.54 0.07 0
0.55 0.07 0
0.56 0.07 0
0.57 0.07 0
0.58 0.07 0
0.59 0.07 0
0.6 0.07 0
0.61 0.07 0
0 0.08 0
0.01 0.08 0
0.02 0.08 0
0.03 0.08 0
0.04 0.08 0
0.05 0.08 0
0.06 0.08 0
0.07 0.08 0
0.08 0.08 0
0.09 0.08 0
0.1 0.08 0
0.11 0.08 0
0.12 0.08 0
0.13 0.08 0
0.14 0.08 0
0.15 0.08 0
0.16 0.08 0
0.17 0.08 0
0.18 0.08 0
0.19 0.08 0
0.2 0.08 0
0.21 0.08 0
0.22 0.08 0
0.23 0.08 0
0.24 0.08 0
0.25 0.08 0
0.26 0.08 0
0.27 0.08 0
0.28 0.08 0
0.29 0.08 0
0.3 0.08 0
0.31 0.08 0
0.32 0.08 0
0.33 0.08 0
0.34 0.08 0
0.35 0.08 0
0.36 0.08 0
0.37 0.08 0
0.38 0.08 0
0.39 0.08 0
0.4 0.08 0
0.41 0.08 0
0.42 0.08 0
0.43 0.08 0
0.44 0.08 0
0.45 0.08 0
0.46 0.08 0
0.47 0.08 0
0.48 0.08 0
0.49 0.08 0
0.5 0.08 0
0.51 0.08 0
0.52 0.08 0
0.53 0.08 0
0.54 0.08 0
0.55 0.08 0
0.56 0.08 0
0.57 0.08 0
0.58 0.08 0
0.59 0.08 0
0.6 0.08 0
0.61 0.08 0
0 0.09 0
0.01 0.09 0
0.02 0.09 0
0.03 0.09 0
0.04 0.09 0
0.05 0.09 0
0.06 0.09 0
0.07 0.09 0
0.08 0.09 0
0.09 0.09 0
0.1 0.09 0
0.11 0.09 0
0.12 0.09 0
0.13 0.09 0
0.14 0.09 0
0.15 0.09 0
0.16 0.09 0
0.17 0.09 0
0.18 0.09 0
0.19 0.09 0
0.2 0.09 0
0.21 0.09 0
0.22 0.09 0
0.23 0.09 0
0.24 0.09 0
0.25 0.09 0
0.26 0.09 0
0.27 0.09 0
0.28 0.09 0
0.29 0.09 0
0.3 0.09 0
0.31 0.09 0
0.32 0.09 0
0.33 0.09 0
0.34 0.09 0
0.35 0.09 0
0.36 0.09 0
0.37 0.09 0
0.38 0.09 0
0.39 0.09 0
0.4 0.09 0
0.41 0.09 0
0.42 0.09 0
0.43 0.09 0
0.44 0.09 0
0.45 0.09 0
0.46 0.09 0
0.47 0.09 0
0.48 0.09 0
0.49 0.09 0
0.5 0.09 0
0.51 0.09 0
0.52 0.09 0
0.53 0.09 0
0.54 0.09 0
0.55 0.09 0
0.56 0.09 0
0.57 0.09 0
0.58 0.09 0
0.59 0.09 0
0.6 0.09 0
0.61 0.09 0
0 0.1 0
0.01 0.1 0
0.02 0.1 0
0.03 0.1 0
0.04 0.1 0
0.05 0.1 0
0.06 0.1 0
0.07 0.1 0
0.08 0.1 0
0.09 0.1 0
0.1 0.1 0
0.11 0.1 0
0.12 0.1 0
0.13 0.1 0
0.14 0.1 0
0.15 0.1 0
0.16 0.1 0
0.17 0.1 0
0.18 0.1 0
0.19 0.1 0
0.2 0.1 0
0.21 0.1 0
0.22 0.1 0
0.23 0.1 0
0.24 0.1 0
0.25 0.1 0
0.26 0.1 0
0.27 0.1 0
0.28 0.1 0
0.29 0.1 0
0.3 0.1 0
0.31 0.1 0
0.32 0.1 0
0.33 0.1 0
0.34 0.1 0
0.35 0.1 0
0.36 0.1 0
0.37 0.1 0
0.38 0.1 0
0.39 0.1 0
0.4 0.1 0
0.41 0.1 0
0.42 0.1 0
0.43 0.1 0
0.44 0.1 0
0.45 0.1 0
0.46 0.1 0
0.47 0.1 0
0.48 0.1 0
0.49 0.1 0
0.5 0.1 0
0.51 0.1 0
0.52 0.1 0
0.53 0.1 0
0.54 0.1 0
0.55 0.1 0
0.56 0.1 0
0.57 0.1 0
0.58 0.1 0
0.59 0.1 0
0.6 0.1 0
0.61 0.1 0
0 0.11 0
0.01 0.11 0
0.02 0.11 0
0.03 0.11 0
0.04 0.11 0
0.05 0.11 0
0.06 0.11 0
0.07 0.11 0
0.08 0.11 0
0.09 0.11 0
0.1 0.11 0
0.11 0.11 0
0.12 0.11 0
0.13 0.11 0
0.14 0.11 0
0.15 0.11 0
0.16 0.11 0
0.17 0.11 0
0.18 0.11 0
0.19 0.11 0
0.2 0.11 0
0.21 0.11 0
0.22 0.11 0
0.23 0.11 0
0.24 0.11 0
0.25 0.11 0
0.26 0.11 0
0.27 0.11 0
0.28 0.11 0
0.29 0.11 0
0.3 0.11 0
0.31 0.11 0
0.32 0.11 0
0.33 0.11 0
0.34 0.11 0
0.35 0.11 0
0.36 0.11 0
0.37 0.11 0
0.38 0.11 0
0.39 0.11 0
0.4 0.11 0
0.41 0.11 0
0.42 0.11 0
0.43 0.11 0
0.44 0.11 0
0.45 0.11 0
0.46 0.11 0
0.47 0.11 0
0.48 0.11 0
0.49 0.11 0
0.5 0.11 0
0.51 0.11 0
0.52 0.11 0
0.53 0.11 0
0.54 0.11 0
0.55 0.11 0
0.56 0.11 0
0.57 0.11 0
0.58 0.11 0
0.59 0.11 0
0.6 0.11 0
0.61 0.11 0
0 0.12 0
0.01 0.12 0
0.02 0.12 0
0.03 0.12 0
0.04 0.12 0
0.05 0.12 0
0.06 0.12 0
0.07 0.12 0
0.08 0.12 0
0.09 0.12 0
0.1 0.12 0
0.11 0.12 0
0.12 0.12 0
0.13 0.12 0
0.14 0.12 0
0.15 0.12 0
0.16 0.12 0
0.17 0.12 0
0.18 0.12 0
0.19 0.12 0
0.2 0.12 0
0.21 0.12 0
0.22 0.12 0
0.23 0.12 0
0.24 0.12 0
0.25 0.12 0
0.26 0.12 0
0.27 0.12 0
0.28 0.12 0
0.29 0.12 0
0.3 0.12 0
0.31 0.12 0
0.32 0.12 0
0.33 0.12 0
0.34 0.12 0
0.35 0.12 0
0.36 0.12 0
0.37 0.12 0
0.38 0.12 0
0.39 0.12 0
0.4 0.12 0
0.41 0.12 0
0.42 0.12 0
0.43 0.12 0
0.44 0.12 0
0.45 0.12 0
0.46 0.12 0
0.47 0.12 0
0.48 0.12 0
0.49 0.12 0
0.5 0.12 0
0.51 0.12 0
0.52 0.12 0
0.53 0.12 0
0.54 0.12 0
0.55 0.12 0
0.56 0.12 0
0.57 0.12 0
0.58 0.12 0
0.59 0.12 0
0.6 0.12 0
0.61 0.12 0
0 0.13 0
0.01 0.13 0
0.02 0.13 0
0.03 0.13 0
0.04 0.13 0
0.05 0.13 0
0.06 0.13 0
0.07 0.13 0
0.08 0.13 0
0.09 0.13 0
0.1 0.13 0
0.11 0.13 0
0.12 0.13 0
0.13 0.13 0
0.14 0.13 0
0.15 0.13 0
0.16 0.13 0
0.17 0.13 0
0.18 0.13 0
0.19 0.13 0
0.2 0.13 0
0.21 0.13 0
0.22 0.13 0
0.23 0.13 0
0.24 0.13 0
0.25 0.13 0
0.26 0.13 0
0.27 0.13 0
0.28 0.13 0
0.29 0.13 0
0.3 0.13 0
0.31 0.13 0
0.32 0.13 0
0.33 0.13 0
0.34 0.13 0
0.35 0.13 0
0.36 0.13 0
0.37 0.13 0
0.38 0.13 0
0.39 0.13 0
0.4 0.13 0
0.41 0.13 0
0.42 0.13 0
0.43 0.13 0
0.44 0.13 0
0.45 0.13 0
0.46 0.13 0
0.47 0.13 0
0.48 0.13 0
[...]
POINT_DATA 93248

SCALARS u double
LOOKUP_TABLE default
0
0
0
0
0
0
0
0
0
0
0
0
0
0
0
0
0
0
0
0
0
0
0
0
0.296557
0
0
0
0
0
0
0
0.0330429
0.223508
0
0
0
0
0
0
0
0
0
0
0
0
0
0.0755034
0
0
0.0692596
0
0
0
0
0
0
0
0
0
0
0
0
0.414502
0.33313
0.255739
0.19237
0.145445
0.111651
0.0882553
0.0731204
0.0636389
0.0579178
0.0549534
0.0551423
0.0549951
0.0545945
0.0539364
0.0533066
0.0521708
0.0505285
0.0474152
0.0504905
0.0502652
0.0472353
0.0455693
0.044093
0.0426713
0.0412795
0.0398892
0.0384683
0.0369773
0.0353715
0.0337504
0.0330843
0.0314714
0.0291856
0.0272107
0.0265332
0.0240641
0.0217254
0.163048
0.0148179
0.0169243
0.017661
0.0188942
0.0223575
0.00103939
0.00867896
0.00838829
0.00774291
0.00583909
0.00386657
0.0272054
0.0022704
0.00584008
-0.0146181
-0.0123691
0.00409316
-0.0121197
-0.0160272
-0.0228974
-0.0228974
0
0
0.488745
0.470095
0.441843
0.405634
0.370189
0.331573
0.296169
0.266195
0.243389
0.226825
0.215068
0.209376
0.203623
0.198737
0.194134
0.190186
0.185812
0.183099
0.338929
0.178734
0.172936
0.162126
0.158039
0.153342
0.148581
0.143834
0.139088
0.134314
0.129475
0.124492
0.119249
0.115695
0.110741
0.105233
0.100434
0.0936673
0.0864969
-0.0212771
0.0768119
0.0731436
0.0689893
0.0659347
0.0634175
0.0596451
0.0479712
0.0411102
0.0378754
0.0336695
0.029208
0.0251407
0.0195718
0.0154429
0.0101211
-0.00327827
-0.00883981
-0.0156735
-0.0198069
-0.0275489
-0.0362713
-0.0362713
0
0
0.482833
0.480336
0.477011
0.463877
0.459717
0.436053
0.413459
0.392077
0.372165
0.379661
0.340503
0.325039
0.314056
0.304898
0.297235
0.290359
0.282144
0.275325
0.267454
0.259427
0.253492
0.245716
0.238855
0.23197
0.224994
0.217963
0.2109
0.203817
0.19674
0.189777
0.183139
0.174795
0.16865
0.21532
0.155233
0.146704
0.139803
0.135531
0.127874
0.119522
0.111562
0.135075
0.0976874
0.0903198
0.12788
0.0710092
0.0623988
0.0336695
0.048178
0.0418796
0.0347445
0.0272054
0.0184705
0.00766854
-0.00114136
-0.00975436
-0.0202645
-0.0287515
-0.0373312
-0.0373312
0
0
0.475727
0.468575
0.473299
0.469656
0.467772
0.460468
0.450716
0.439513
0.427217
0.413762
0.400329
0.386086
0.373169
0.361562
0.351247
0.341203
0.333575
0.324816
0.336663
0.30619
0.297586
0.289165
0.281027
0.272937
0.264806
0.25662
0.248392
0.240139
0.231878
0.223631
0.215326
0.206406
0.198316
0.189695
0.181993
0.174137
0.166861
0.160889
0.152408
0.142974
0.133193
0.123403
0.114561
0.105424
0.0952966
0.0852012
0.0764413
0.0683929
0.0599165
0.0515659
0.0429772
0.033982
0.0243166
0.0140841
0.00417427
-0.00573152
-0.0162209
-0.0258228
-0.0351782
-0.0351782
0
0
0.473037
0.462902
0.459413
0.457027
0.455827
0.453308
0.449438
0.444291
0.437364
0.428545
0.418181
0.406547
0.394675
0.383236
0.372749
0.362492
0.353246
0.343915
0.334011
0.32455
0.31549
0.306673
0.298014
0.289412
0.280808
0.272167
0.263494
0.254792
0.246055
0.237241
0.228237
0.218946
0.210851
0.202066
0.193586
0.18535
0.177434
0.169704
0.160981
0.151487
0.141532
0.131419
0.121649
0.111982
0.102551
0.0968454
0.0826707
0.0739451
0.064916
0.0558068
0.0465839
0.0371365
0.0273437
0.01733
0.00734372
-0.00255948
-0.012315
-0.0215549
-0.0312848
-0.0312848
0
0
0.471838
0.458718
0.450479
0.445173
0.441845
0.439018
0.436384
0.433793
0.42963
0.423882
0.416437
0.407506
0.397594
0.387301
0.377347
0.368227
0.358286
0.349423
0.339406
0.329975
0.320926
0.312076
0.303321
0.294598
0.285879
0.277116
0.268335
0.259533
0.250687
0.241745
0.232565
0.222833
0.215514
0.206446
0.197507
0.188897
0.180458
0.171945
0.162992
0.15358
0.143821
0.133859
0.123847
0.113618
0.103077
0.0954398
0.0858581
0.0763202
0.0668648
0.0574641
0.0480786
0.0386115
0.0289044
0.0191008
0.00937417
-0.000111119
-0.00892174
-0.0155079
-0.0183255
-0.0183255
0
0
0.471203
0.456232
0.445136
0.437078
0.43148
0.456487
0.424962
0.42137
0.418122
0.414088
0.408728
0.40204
0.393935
0.384893
0.375494
0.367193
0.357296
0.348011
0.338929
0.330154
0.321565
0.312991
0.304374
0.295714
0.287036
0.278282
0.26954
0.260792
0.252019
0.243222
0.234561
0.226431
0.21549
0.206615
0.198065
0.189512
0.180893
0.172104
0.163048
0.153714
0.144155
0.135745
0.124535
0.114531
0.104672
0.095938
0.086637
0.0771219
0.067592
0.0581255
0.0487644
0.0394548
0.0298354
0.0202272
0.0107819
0.00143505
-0.00821574
-0.0185533
-0.0107334
-0.0107334
0
0
0.470821
0.454706
0.441853
0.431785
0.424042
0.418039
0.414074
0.410882
0.408108
0.404928
0.400698
0.395975
0.389059
0.380695
0.370397
0.190186
0.3509
0.343921
0.336663
0.328861
0.320916
0.312649
0.304182
0.29558
0.280808
0.278233
0.269657
0.261044
0.252398
0.243678
0.234939
0.226175
0.216389
0.207197
0.19835
0.189601
0.180806
0.171877
0.162773
0.153489
0.144041
0.134448
0.124782
0.115079
0.105498
0.0962434
0.0868903
0.0774082
0.0678674
0.0583479
0.0489819
0.0399449
0.0303108
0.0209323
0.011907
0.00322825
-0.00522366
-0.0152081
-0.0189432
-0.0189432
0
0
0.470573
0.453723
0.439744
0.42835
0.419231
0.412132
0.407095
0.403527
0.400724
0.397715
0.39333
0.392334
0.384985
0.377526
0.369702
0.363368
0.354776
0.345901
0.337288
0.328775
0.320698
0.312273
0.303746
0.295183
0.286766
0.278147
0.269572
0.261063
0.252593
0.243981
0.23503
0.225962
0.216688
0.207552
0.198572
0.189657
0.18072
0.1717
0.162571
0.153324
0.143964
0.134506
0.124987
0.115448
0.105956
0.0965444
0.0871111
0.0776011
0.0679951
0.0582868
0.0485292
0.0398892
0.0301541
0.0211946
0.0125554
0.00406706
-0.00445869
-0.0135158
-0.0216637
-0.0216637
0
0
0.470408
0.453068
0.438334
0.426087
0.416085
0.408244
0.402518
0.398524
0.395546
0.39269
0.389255
0.385993
0.380655
0.374436
0.367644
0.361168
0.353552
0.345318
0.336968
0.328759
0.319991
0.311528
0.303062
0.294473
0.286411
0.277765
0.269276
0.260946
0.252834
0.256118
0.235213
0.22589
0.216774
0.207733
0.198721
0.190109
0.180687
0.171617
0.162483
0.153272
0.143981
0.134619
0.125196
0.115742
0.106289
0.0968454
0.0873818
0.0778552
0.0682048
0.0583177
0.0478933
-0.00318658
0.0293168
0.0213885
0.0130814
0.00463615
-0.00394623
-0.0128333
-0.0220332
-0.0220332
0
0
0.470298
0.452633
0.437373
0.424588
0.413976
0.405581
0.399372
0.395014
0.391822
0.388948
0.385721
0.381937
0.377155
0.371701
0.365042
0.35837
0.351228
0.343614
0.335695
0.324016
0.319187
0.310848
0.302436
0.29396
0.285597
0.27712
0.268745
0.260564
0.252589
0.244732
0.234418
0.225678
0.216884
0.207924
0.198884
0.189815
0.18125
0.171624
0.162498
0.153318
0.144078
0.134798
0.125431
0.11602
0.106593
0.0971617
0.087721
0.0782514
0.0687399
0.0593027
0.0501721
0.0417745
0.0320135
0.0228191
0.0139834
0.00529405
-0.0034175
-0.0123495
-0.0217748
-0.0217748
0
0
0.47023
0.452373
0.436905
0.423518
0.412451
0.403667
0.397106
0.392455
0.389041
0.386053
0.38278
0.378877
0.374273
0.369403
0.362341
0.355919
0.349147
0.34191
0.334409
0.326674
0.318565
0.310271
0.301852
0.293344
0.284812
0.276286
0.267943
0.259894
0.251973
0.242761
0.235933
0.226925
0.217625
0.208345
0.199113
0.189935
0.180805
0.171708
0.162603
0.153443
0.144222
0.135075
0.125717
0.116314
0.106901
0.0974967
0.0881115
0.0787364
0.0693377
0.0601747
0.0513312
0.0426836
0.0333108
0.0239746
0.0148926
0.00600581
-0.00284982
-0.011867
-0.0213796
-0.0213796
0
0
0.47018
0.452173
0.436439
0.422772
0.411403
0.402314
0.395473
0.390571
0.38694
0.383804
0.3804
0.37636
0.37151
0.36554
0.360891
0.354633
0.347754
0.340514
0.333282
0.325739
0.317808
0.309597
0.301179
0.2926
0.283896
0.275157
0.266683
0.258881
0.252877
0.244504
0.236229
0.227232
0.217927
0.208556
0.199221
0.189971
0.180806
0.171776
0.162758
0.153622
0.144249
0.135627
0.126076
0.11663
0.107213
0.0978295
0.0885045
0.0792345
0.0697958
0.0607398
0.0518764
0.0430078
0.0338579
0.0246759
0.0156134
0.00668449
-0.00229298
-0.0113688
-0.0209466
-0.0209466
0
0
0.470145
0.452034
0.436178
0.422111
0.410624
0.401333
0.39428
0.389182
0.385398
0.382041
0.378503
0.374388
0.369576
0.364116
0.358808
0.352792
0.34613
0.338905
0.332261
0.324898
0.317036
0.308854
0.30043
0.291764
0.282815
0.273542
0.26416
0.255311
0.256909
0.247683
0.237699
0.227904
0.218236
0.208661
0.199193
0.189898
0.180641
0.171818
0.163023
0.154022
0.14483
0.135745
0.126368
0.116939
0.10751
0.098119
0.0888141
0.07966
0.0700918
0.0611645
0.0522815
0.0433324
0.0341672
0.0251281
0.0161761
0.00739973
-0.00185243
-0.0108457
-0.0204617
-0.0204617
0
0
0.470122
0.4519
0.435847
0.421854
0.410119
0.400638
0.393406
0.388136
0.384177
0.380695
0.37704
0.372865
0.368105
0.362853
0.357322
0.351333
0.344776
0.337326
0.331572
0.324081
0.316151
0.308016
0.29964
0.290951
0.281763
0.27156
0.258614
0.237626
0.276477
0.253582
0.239855
0.228746
0.21851
0.208631
0.198954
0.189491
0.180343
0.171798
0.163525
0.154706
0.145503
0.136171
0.126737
0.117268
0.10779
0.0983328
0.0888764
0.0794173
0.070756
0.06175
0.0527676
0.0439106
0.0342684
0.0254673
0.0165576
0.0077964
-0.00112839
-0.0101583
-0.0198109
-0.0198109
0
0
0.470136
0.451799
0.435645
0.421627
0.409788
0.400159
0.392779
0.387362
0.383261
0.379661
0.375897
0.371661
0.366915
0.361738
0.356205
0.350323
0.344206
0.338321
0.329751
0.322365
0.314882
0.307066
0.298915
0.29039
0.28139
0.271705
0.261196
0.251752
0.25778
0.249245
0.238746
0.228322
0.218176
0.208231
0.198378
0.188662
0.17937
0.171265
0.164694
0.156035
0.146546
0.13689
0.127249
0.117659
0.108085
0.0985772
0.089106
0.0797126
0.0707386
0.0620373
0.053092
0.0440534
0.0348552
0.0259639
0.0167373
0.00818401
-0.000432011
-0.00921206
-0.0187353
-0.0187353
0
0
0.470219
0.45172
0.435533
0.421527
0.409649
0.399855
0.392346
0.38681
0.3826
0.378906
0.375009
0.370686
0.365932
0.360805
0.355306
0.349458
0.343324
0.336936
0.329417
0.321927
0.314356
0.30658
0.29854
0.290209
0.281574
0.272687
0.263853
0.256432
0.252457
0.245387
0.236551
0.22704
0.217308
0.207493
0.197461
0.187207
0.176849
0.167911
0.168701
0.158991
0.148285
0.137911
0.12788
0.118093
0.108387
0.0988418
0.0893485
0.0798832
0.0706061
0.0623715
0.053358
0.0442503
0.0353419
0.0271133
0.0160294
0.00833815
0.000241968
-0.00781081
-0.0165231
-0.0165231
0
0
0.469943
0.451854
0.435665
0.421631
0.409807
0.397106
0.39201
0.38641
0.382148
0.378435
0.374321
0.369874
0.365116
0.360066
0.354587
0.348704
0.342479
0.335948
0.328905
0.321594
0.31408
0.306358
0.298416
0.290262
0.281947
0.273621
0.273394
0.257689
0.251256
0.243618
0.235011
0.225849
0.216375
0.206679
0.196469
0.185421
0.171817
0.148995
0.188216
0.164755
0.150443
0.138917
0.128417
0.118386
0.10871
0.0991293
0.0896386
0.0801305
0.0704771
0.0627467
0.0533866
0.0442108
0.0352875
0.0264524
0.01678
-0.00394623
0.000708165
-0.00608615
-0.0113529
0
0
0
0.470027
0.451264
0.43549
0.421617
0.409908
0.399558
0.391752
0.386078
0.381846
0.378304
0.373705
0.369143
0.364426
0.359528
0.354001
0.348018
0.341695
0.335235
0.328415
0.321271
0.313868
0.306237
0.298398
0.290379
0.282244
0.274106
0.265997
0.257611
0.251067
0.242779
0.233977
0.224925
0.215576
0.199402
0.196018
0.185647
0.174472
0.164206
0.170058
0.153324
0.149543
0.13881
0.128493
0.118524
0.10884
0.0993325
0.0900147
0.0809841
0.0722932
0.0613603
0.0525427
0.0438264
0.0350745
0.0263101
0.0175245
0.00924383
0.000902753
-0.00729285
-0.0161753
-0.0161753
0
0
0.470059
0.451712
0.435278
0.421611
0.410145
0.399166
0.391431
0.385837
0.381621
0.37846
0.372969
0.368557
0.363881
0.359079
0.353348
0.347261
0.340853
0.334707
0.32805
0.321014
0.313704
0.306167
0.298417
0.290483
0.282421
0.274384
0.267203
0.25982
0.249948
0.241457
0.232968
0.224235
0.21532
0.206287
0.196791
0.187113
0.177641
0.169598
0.164909
0.157262
0.147862
0.138006
0.12812
0.118382
0.108808
0.0993814
0.0901106
0.0809902
0.071831
0.0618585
0.0526249
0.0437275
0.0349506
0.0262403
0.0175642
0.00902217
0.000338623
-0.00863293
-0.0183723
-0.0183723
0
0
0.470081
0.451791
0.435741
0.420986
0.40817
0.399422
0.391833
0.385927
0.381168
0.376271
0.373772
0.369148
0.363557
0.339141
0.352303
0.346558
0.340163
0.334563
0.327877
0.320846
0.313609
0.306159
0.298477
0.290573
0.282408
0.273665
0.268769
0.259714
0.250391
0.241484
0.232728
0.223983
0.215273
0.206572
0.197546
0.188422
0.179525
0.171292
0.163674
0.155454
0.146513
0.137167
0.127559
0.118071
0.10865
0.0993013
0.0900388
0.080832
0.0715666
0.0620802
0.0527553
0.0437032
0.0348308
0.0260935
0.0173016
0.00856261
-0.000311621
-0.00955473
-0.0193928
-0.0193928
0
0
0.470079
0.451761
0.435529
0.421053
0.408649
0.399131
0.391608
0.385812
0.381138
0.376929
0.373397
0.36889
0.363686
0.359432
0.353622
0.347521
0.341634
0.334264
0.327533
0.320695
0.313612
0.306276
0.298637
0.290782
0.282756
0.274638
0.26752
0.259227
0.250428
0.241546
0.232653
0.223807
0.215232
0.207135
0.198362
0.189472
0.180595
0.171941
0.1634
0.154709
0.145779
0.136741
0.126861
0.117689
0.108422
0.099139
0.0899003
0.0806921
0.0714729
0.0621337
0.0527313
0.0435789
0.0345783
0.0257744
0.0168938
0.00812915
-0.000812501
-0.0102116
-0.0200311
-0.0200311
0
0
0.470074
0.451737
0.435459
0.421166
0.409005
0.399236
0.391623
0.38587
0.381279
0.377612
0.373865
0.369806
0.366179
0.359337
0.353618
0.347788
0.341629
0.334829
0.327993
0.321057
0.313962
0.306663
0.298938
0.291077
0.28315
0.275193
0.267316
0.259007
0.250378
0.241518
0.232466
0.223288
0.214446
0.20858
0.199427
0.190594
0.181404
0.172345
0.163385
0.15441
0.145347
0.136155
0.126689
0.117385
0.104095
0.0988797
0.0896918
0.080526
0.0714095
0.0621204
0.0516647
0.0433145
0.0341103
0.0113214
0.0163684
0.00783616
-0.00107862
-0.0107773
-0.020567
-0.020567
0
0
0.470076
0.451741
0.435482
0.421291
0.409261
0.399502
0.391777
0.386116
0.381699
0.379191
0.374601
0.37028
0.365823
0.360109
0.35433
0.348379
0.341833
0.33527
0.328513
0.321571
0.314487
0.307292
0.299269
0.291398
0.283536
0.275592
0.267523
0.259533
0.25048
0.24155
0.232218
0.222085
0.209076
0.214776
0.200613
0.192536
0.182163
0.172659
0.163431
0.154287
0.14511
0.135796
0.126434
0.117133
0.107878
0.0986239
0.0894073
0.0802366
0.0712124
0.0620141
0.0518396
0.0430507
0.0342739
0.0256131
0.0166397
0.00789224
-0.000990244
-0.0113804
-0.02103
-0.02103
0
0
0.47008
0.451759
0.435533
0.421419
0.409508
0.39998
0.391634
0.386291
0.381917
0.378338
0.374496
0.370286
0.365682
0.360467
0.35497
0.349457
0.341661
0.335656
0.329033
0.3221
0.315007
0.308007
0.299519
0.291822
0.284069
0.276078
0.267899
0.259299
0.250672
0.241812
0.232469
0.222995
0.213584
0.209385
0.200268
0.191489
0.182048
0.172657
0.163396
0.154212
0.145004
0.13552
0.126141
0.116859
0.107609
0.0983591
0.0890934
0.0797591
0.0609117
0.0618905
0.0512179
0.0430336
0.0342425
0.0254021
0.0164572
0.00770557
-0.000789104
-0.0118889
-0.0210881
-0.0210881
0
0
0.470084
0.451774
0.435577
0.421515
0.409661
0.40011
0.392555
0.386767
0.38231
0.378537
0.374752
0.370622
0.366025
0.36096
0.355534
0.349785
0.343101
0.336546
0.329741
0.322657
0.315252
0.307245
0.300694
0.292958
0.284949
0.276681
0.268178
0.259782
0.251166
0.24259
0.232683
0.224026
0.215509
0.207968
0.199504
0.190719
0.181622
0.172428
0.163245
0.154125
0.145013
0.135201
0.125847
0.116629
0.107412
0.0981729
0.0889144
0.0796312
0.0702937
0.0604693
0.0534255
0.0434256
0.0341819
0.0250931
0.0159316
0.00655851
-0.00304943
-0.00975635
-0.0199208
-0.0199208
0
0
0.470083
0.451772
0.43559
0.421574
0.409792
0.400362
0.393321
0.387102
0.382648
0.378986
0.37535
0.371307
0.366752
0.361716
0.356297
0.350543
0.344203
0.337505
0.330541
0.323352
0.316001
0.308187
0.29964
0.293328
0.285467
0.277094
0.268547
0.260025
0.251422
0.242726
0.233622
0.224857
0.216266
0.20782
0.199168
0.190316
0.181291
0.172168
0.163015
0.153923
0.14502
0.134828
0.125692
0.116544
0.107315
0.0980597
0.088801
0.0795414
0.0702692
0.0610217
0.0526756
0.0433635
0.0340933
0.0249125
0.0157476
0.00656521
-0.00251122
-0.0105856
-0.0201694
-0.0201694
0
0
0.47007
0.45173
0.435543
0.421576
0.409867
0.400568
0.394138
0.3872
0.38317
0.379866
0.376383
0.372394
0.367815
0.362725
0.357253
0.351644
0.345275
0.338387
0.331287
0.324016
0.316709
0.309149
0.301534
0.293658
0.285718
0.277126
0.268638
0.260175
0.251639
0.242987
0.234194
0.22543
0.216698
0.207949
0.199107
0.190152
0.18109
0.171941
0.162705
0.153313
0.143647
0.135542
0.126154
0.116687
0.107301
0.0979813
0.088711
0.0794758
0.0702752
0.0611571
0.0522359
0.0431089
0.0339356
0.0248025
0.0157472
0.00687207
-0.00249941
-0.0111363
-0.0206163
-0.0206163
0
0
0.47003
0.4516
0.435405
0.42152
0.409829
0.400241
0.392096
0.388779
0.385066
0.381917
0.377935
0.373795
0.369113
0.363893
0.358103
0.35281
0.346079
0.338928
0.331798
0.324506
0.317446
0.30998
0.302174
0.293831
0.250349
0.276573
0.268674
0.260468
0.252023
0.243411
0.234679
0.225887
0.217047
0.208144
0.199165
0.190109
0.180982
0.171791
0.162537
0.153215
0.143898
0.135106
0.125901
0.116531
0.107163
0.0978497
0.088595
0.0793873
0.0702181
0.0610944
0.0520105
0.0428956
0.0337738
0.0246904
0.0156717
0.00671435
-0.00236718
-0.0113583
-0.0208956
-0.0208956
0
0
0.469953
0.451264
0.439221
0.421511
0.409948
0.400595
0.39338
0.389065
0.385672
0.382465
0.379009
0.375001
0.370406
0.365486
0.357948
0.352969
0.345521
0.343915
0.332022
0.324886
0.318243
0.310822
0.303059
0.295159
0.287354
0.278682
0.270052
0.261435
0.252771
0.244033
0.235223
0.226347
0.217401
0.208373
0.199275
0.190121
0.180923
0.171691
0.162442
0.153203
0.144006
0.134863
0.125588
0.116244
0.106918
0.0976475
0.0884358
0.0792677
0.0701216
0.0609895
0.0518622
0.042734
0.0336252
0.0245686
0.0155578
0.00656517
-0.00243553
-0.0115117
-0.0206163
-0.0210599
0
0
0.469945
0.450257
0.434474
0.421155
0.41003
0.401114
0.394451
0.38994
0.386623
0.383623
0.380331
0.376403
0.37172
0.366104
0.358162
0.185812
0.342095
0.337656
0.332292
0.326403
0.318841
0.311439
0.303889
0.296184
0.287972
0.279519
0.270939
0.262268
0.253513
0.244684
0.235787
0.226824
0.21778
0.208624
0.199402
0.190148
0.180874
0.171588
0.162321
0.153123
0.143973
0.134652
0.12524
0.115866
0.106583
0.0973766
0.0882366
0.0791335
0.0700214
0.0608951
0.0517534
0.0426043
0.0334852
0.0244485
0.0154351
0.00641009
-0.0026332
-0.0155079
-0.0213157
-0.0213157
0
0
0.471522
0.447681
0.433843
0.421192
0.410463
0.401904
0.395584
0.39127
0.388095
0.385259
0.3821
0.378262
0.373654
0.36833
0.362481
0.358185
0.350502
0.342985
0.335718
0.328499
0.320766
0.312968
0.305121
0.297332
0.288586
0.280214
0.271705
0.263019
0.254211
0.245313
0.236348
0.227321
0.218199
0.208881
0.199517
0.190162
0.180805
0.171433
0.162082
0.152872
0.143793
0.13423
0.124649
0.115278
0.106108
0.0970208
0.0880047
0.0790162
0.0699557
0.0608461
0.0516944
0.0425078
0.0333492
0.0243421
0.0125386
0.00627247
-0.00268546
-0.0117768
-0.0232397
-0.0214352
0
0
0.470163
0.450566
0.43509
0.42213
0.41149
0.403089
0.397006
0.393205
0.390175
0.387455
0.384396
0.380627
0.376085
0.370953
0.365389
0.359977
0.353204
0.345842
0.338271
0.330562
0.322632
0.314535
0.306254
0.297634
0.289912
0.281395
0.272656
0.263815
0.254905
0.245928
0.236903
0.227844
0.218696
0.209114
0.199593
0.190158
0.180721
0.171219
0.161597
0.152222
0.143238
0.13317
0.123475
0.114291
0.105423
0.0965629
0.0877568
0.078974
0.0699915
0.0609117
0.0517466
0.0424925
0.0332413
0.024405
0.0153151
0.00620858
-0.00279897
-0.0118849
-0.0213995
-0.0213995
0
0
0.470121
0.451802
0.436295
0.423335
0.409649
0.404497
0.39822
0.396312
0.392905
0.390206
0.387224
0.383485
0.378867
0.361738
0.36777
0.361789
0.355086
0.347836
0.34024
0.332403
0.324359
0.316072
0.307606
0.299028
0.29071
0.282146
0.273394
0.264518
0.255553
0.246497
0.237421
0.228368
0.219321
0.209228
0.199638
0.190195
0.180705
0.171136
0.160665
0.150705
0.141357
0.130689
0.121446
0.112808
0.104515
0.0960535
0.0875399
0.0790905
0.0702874
0.0612686
0.0520603
0.0426907
0.0332151
0.0244275
0.0151304
0.00599053
-0.00301922
-0.0120964
-0.0215842
-0.0215842
0
0
0.470254
0.452456
0.437275
0.424641
0.41449
0.406661
0.401088
0.398081
0.395591
0.393298
0.390553
0.386889
0.382287
0.376991
0.37091
0.364347
0.357314
0.349889
0.342161
0.334209
0.32608
0.317576
0.308932
0.300267
0.29164
0.282923
0.274096
0.265156
0.256118
0.247009
0.237848
0.228737
0.219908
0.209211
0.199849
0.190457
0.18082
0.170874
0.160161
0.14822
0.0169243
0.126535
0.119189
0.111044
0.103252
0.0958447
0.0874421
0.0792419
0.0713451
0.0623678
0.0529004
0.043365
0.0339443
0.0237967
0.0146278
0.00561162
-0.00334372
-0.0123813
-0.0218243
-0.0218243
0
0
0.470388
0.452948
0.438192
0.42604
0.416399
0.409162
0.404204
0.401189
0.399125
0.397167
0.394629
0.390906
0.386109
0.380456