# vtk DataFile Version 2.0
FlowField
ASCII
DATASET STRUCTURED_GRID
DIMENSIONS 62 47 32 
POINTS 93248 double
0 0 0
0.01 0 0
0.02 0 0
0.03 0 0
0.04 0 0
0.05 0 0
0.06 0 0
0.07 0 0
0.08 0 0
0.09 0 0
0.1 0 0
0.11 0 0
0.12 0 0
0.13 0 0
0.14 0 0
0.15 0 0
0.16 0 0
0.17 0 0
0.18 0 0
0.19 0 0
0.2 0 0
0.21 0 0
0.22 0 0
0.23 0 0
0.24 0 0
0.25 0 0
0.26 0 0
0.27 0 0
0.28 0 0
0.29 0 0
0.3 0 0
0.31 0 0
0.32 0 0
0.33 0 0
0.34 0 0
0.35 0 0
0.36 0 0
0.37 0 0
0.38 0 0
0.39 0 0
0.4 0 0
0.41 0 0
0.42 0 0
0.43 0 0
0.44 0 0
0.45 0 0
0.46 0 0
0.47 0 0
0.48 0 0
0.49 0 0
0.5 0 0
0.51 0 0
0.52 0 0
0.53 0 0
0.54 0 0
0.55 0 0
0.56 0 0
0.57 0 0
0.58 0 0
0.59 0 0
0.6 0 0
0.61 0 0
0 0.01 0
0.01 0.01 0
0.02 0.01 0
0.03 0.01 0
0.04 0.01 0
0.05 0.01 0
0.06 0.01 0
0.07 0.01 0
0.08 0.01 0
0.09 0.01 0
0.1 0.01 0
0.11 0.01 0
0.12 0.01 0
0.13 0.01 0
0.14 0.01 0
0.15 0.01 0
0.16 0.01 0
0.17 0.01 0
0.18 0.01 0
0.19 0.01 0
0.2 0.01 0
0.21 0.01 0
0.22 0.01 0
0.23 0.01 0
0.24 0.01 0
0.25 0.01 0
0.26 0.01 0
0.27 0.01 0
0.28 0.01 0
0.29 0.01 0
0.3 0.01 0
0.31 0.01 0
0.32 0.01 0
0.33 0.01 0
0.34 0.01 0
0.35 0.01 0
0.36 0.01 0
0.37 0.01 0
0.38 0.01 0
0.39 0.01 0
0.4 0.01 0
0.41 0.01 0
0.42 0.01 0
0.43 0.01 0
0.44 0.01 0
0.45 0.01 0
0.46 0.01 0
0.47 0.01 0
0.48 0.01 0
0.49 0.01 0
0.5 0.01 0
0.51 0.01 0
0.52 0.01 0
0.53 0.01 0
0.54 0.01 0
0.55 0.01 0
0.56 0.01 0
0.57 0.01 0
0.58 0.01 0
0.59 0.01 0
0.6 0.01 0
0.61 0.01 0
0 0.02 0
0.01 0.02 0
0.02 0.02 0
0.03 0.02 0
0.04 0.02 0
0.05 0.02 0
0.06 0.02 0
0.07 0.02 0
0.08 0.02 0
0.09 0.02 0
0.1 0.02 0
0.11 0.02 0
0.12 0.02 0
0.13 0.02 0
0.14 0.02 0
0.15 0.02 0
0.16 0.02 0
0.17 0.02 0
0.18 0.02 0
0.19 0.02 0
0.2 0.02 0
0.21 0.02 0
0.22 0.02 0
0.23 0.02 0
0.24 0.02 0
0.25 0.02 0
0.26 0.02 0
0.27 0.02 0
0.28 0.02 0
0.29 0.02 0
0.3 0.02 0
0.31 0.02 0
0.32 0.02 0
0.33 0.02 0
0.34 0.02 0
0.35 0.02 0
0.36 0.02 0
0.37 0.02 0
0.38 0.02 0
0.39 0.02 0
0.4 0.02 0
0.41 0.02 0
0.42 0.02 0
0.43 0.02 0
0.44 0.02 0
0.45 0.02 0
0.46 0.02 0
0.47 0.02 0
0.48 0.02 0
0.49 0.02 0
0.5 0.02 0
0.51 0.02 0
0.52 0.02 0
0.53 0.02 0
0.54 0.02 0
0.55 0.02 0
0.56 0.02 0
0.57 0.02 0
0.58 0.02 0
0.59 0.02 0
0.6 0.02 0
0.61 0.02 0
0 0.03 0
0.01 0.03 0
0.02 0.03 0
0.03 0.03 0
0.04 0.03 0
0.05 0.03 0
0.06 0.03 0
0.07 0.03 0
0.08 0.03 0
0.09 0.03 0
0.1 0.03 0
0.11 0.03 0
0.12 0.03 0
0.13 0.03 0
0.14 0.03 0
0.15 0.03 0
0.16 0.03 0
0.17 0.03 0
0.18 0.03 0
0.19 0.03 0
0.2 0.03 0
0.21 0.03 0
0.22 0.03 0
0.23 0.03 0
0.24 0.03 0
0.25 0.03 0
0.26 0.03 0
0.27 0.03 0
0.28 0.03 0
0.29 0.03 0
0.3 0.03 0
0.31 0.03 0
0.32 0.03 0
0.33 0.03 0
0.34 0.03 0
0.35 0.03 0
0.36 0.03 0
0.37 0.03 0
0.38 0.03 0
0.39 0.03 0
0.4 0.03 0
0.41 0.03 0
0.42 0.03 0
0.43 0.03 0
0.44 0.03 0
0.45 0.03 0
0.46 0.03 0
0.47 0.03 0
0.48 0.03 0
0.49 0.03 0
0.5 0.03 0
0.51 0.03 0
0.52 0.03 0
0.53 0.03 0
0.54 0.03 0
0.55 0.03 0
0.56 0.03 0
0.57 0.03 0
0.58 0.03 0
0.59 0.03 0
0.6 0.03 0
0.61 0.03 0
0 0.04 0
0.01 0.04 0
0.02 0.04 0
0.03 0.04 0
0.04 0.04 0
0.05 0.04 0
0.06 0.04 0
0.07 0.04 0
0.08 0.04 0
0.09 0.04 0
0.1 0.04 0
0.11 0.04 0
0.12 0.04 0
0.13 0.04 0
0.14 0.04 0
0.15 0.04 0
0.16 0.04 0
0.17 0.04 0
0.18 0.04 0
0.19 0.04 0
0.2 0.04 0
0.21 0.04 0
0.22 0.04 0
0.23 0.04 0
0.24 0.04 0
0.25 0.04 0
0.26 0.04 0
0.27 0.04 0
0.28 0.04 0
0.29 0.04 0
0.3 0.04 0
0.31 0.04 0
0.32 0.04 0
0.33 0.04 0
0.34 0.04 0
0.35 0.04 0
0.36 0.04 0
0.37 0.04 0
0.38 0.04 0
0.39 0.04 0
0.4 0.04 0
0.41 0.04 0
0.42 0.04 0
0.43 0.04 0
0.44 0.04 0
0.45 0.04 0
0.46 0.04 0
0.47 0.04 0
0.48 0.04 0
0.49 0.04 0
0.5 0.04 0
0.51 0.04 0
0.52 0.04 0
0.53 0.04 0
0.54 0.04 0
0.55 0.04 0
0.56 0.04 0
0.57 0.04 0
0.58 0.04 0
0.59 0.04 0
0.6 0.04 0
0.61 0.04 0
0 0.05 0
0.01 0.05 0
0.02 0.05 0
0.03 0.05 0
0.04 0.05 0
0.05 0.05 0
0.06 0.05 0
0.07 0.05 0
0.08 0.05 0
0.09 0.05 0
0.1 0.05 0
0.11 0.05 0
0.12 0.05 0
0.13 0.05 0
0.14 0.05 0
0.15 0.05 0
0.16 0.05 0
0.17 0.05 0
0.18 0.05 0
0.19 0.05 0
0.2 0.05 0
0.21 0.05 0
0.22 0.05 0
0.23 0.05 0
0.24 0.05 0
0.25 0.05 0
0.26 0.05 0
0.27 0.05 0
0.28 0.05 0
0.29 0.05 0
0.3 0.05 0
0.31 0.05 0
0.32 0.05 0
0.33 0.05 0
0.34 0.05 0
0.35 0.05 0
0.36 0.05 0
0.37 0.05 0
0.38 0.05 0
0.39 0.05 0
0.4 0.05 0
0.41 0.05 0
0.42 0.05 0
0.43 0.05 0
0.44 0.05 0
0.45 0.05 0
0.46 0.05 0
0.47 0.05 0
0.48 0.05 0
0.49 0.05 0
0.5 0.05 0
0.51 0.05 0
0.52 0.05 0
0.53 0.05 0
0.54 0.05 0
0.55 0.05 0
0.56 0.05 0
0.57 0.05 0
0.58 0.05 0
0.59 0.05 0
0.6 0.05 0
0.61 0.05 0
0 0.06 0
0.01 0.06 0
0.02 0.06 0
0.03 0.06 0
0.04 0.06 0
0.05 0.06 0
0.06 0.06 0
0.07 0.06 0
0.08 0.06 0
0.09 0.06 0
0.1 0.06 0
0.11 0.06 0
0.12 0.06 0
0.13 0.06 0
0.14 0.06 0
0.15 0.06 0
0.16 0.06 0
0.17 0.06 0
0.18 0.06 0
0.19 0.06 0
0.2 0.06 0
0.21 0.06 0
0.22 0.06 0
0.23 0.06 0
0.24 0.06 0
0.25 0.06 0
0.26 0.06 0
0.27 0.06 0
0.28 0.06 0
0.29 0.06 0
0.3 0.06 0
0.31 0.06 0
0.32 0.06 0
0.33 0.06 0
0.34 0.06 0
0.35 0.06 0
0.36 0.06 0
0.37 0.06 0
0.38 0.06 0
0.39 0.06 0
0.4 0.06 0
0.41 0.06 0
0.42 0.06 0
0.43 0.06 0
0.44 0.06 0
0.45 0.06 0
0.46 0.06 0
0.47 0.06 0
0.48 0.06 0
0.49 0.06 0
0.5 0.06 0
0.51 0.06 0
0.52 0.06 0
0.53 0.06 0
0.54 0.06 0
0.55 0.06 0
0.56 0.06 0
0.57 0.06 0
0.58 0.06 0
0.59 0.06 0
0.6 0.06 0
0.61 0.06 0
0 0.07 0
0.01 0.07 0
0.02 0.07 0
0.03 0.07 0
0.04 0.07 0
0.05 0.07 0
0.06 0.07 0
0.07 0.07 0
0.08 0.07 0
0.09 0.07 0
0.1 0.07 0
0.11 0.07 0
0.12 0.07 0
0.13 0.07 0
0.14 0.07 0
0.15 0.07 0
0.16 0.07 0
0.17 0.07 0
0.18 0.07 0
0.19 0.07 0
0.2 0.07 0
0.21 0.07 0
0.22 0.07 0
0.23 0.07 0
0.24 0.07 0
0.25 0.07 0
0.26 0.07 0
0.27 0.07 0
0.28 0.07 0
0.29 0.07 0
0.3 0.07 0
0.31 0.07 0
0.32 0.07 0
0.33 0.07 0
0.34 0.07 0
0.35 0.07 0
0.36 0.07 0
0.37 0.07 0
0.38 0.07 0
0.39 0.07 0
0.4 0.07 0
0.41 0.07 0
0.42 0.07 0
0.43 0.07 0
0.44 0.07 0
0.45 0.07 0
0.46 0.07 0
0.47 0.07 0
0.48 0.07 0
0.49 0.07 0
0.5 0.07 0
0.51 0.07 0
0.52 0.07 0
0.53 0.07 0
0.54 0.07 0
0.55 0.07 0
0.56 0.07 0
0.57 0.07 0
0.58 0.07 0
0.59 0.07 0
0.6 0.07 0
0.61 0.07 0
0 0.08 0
0.01 0.08 0
0.02 0.08 0
0.03 0.08 0
0.04 0.08 0
0.05 0.08 0
0.06 0.08 0
0.07 0.08 0
0.08 0.08 0
0.09 0.08 0
0.1 0.08 0
0.11 0.08 0
0.12 0.08 0
0.13 0.08 0
0.14 0.08 0
0.15 0.08 0
0.16 0.08 0
0.17 0.08 0
0.18 0.08 0
0.19 0.08 0
0.2 0.08 0
0.21 0.08 0
0.22 0.08 0
0.23 0.08 0
0.24 0.08 0
0.25 0.08 0
0.26 0.08 0
0.27 0.08 0
0.28 0.08 0
0.29 0.08 0
0.3 0.08 0
0.31 0.08 0
0.32 0.08 0
0.33 0.08 0
0.34 0.08 0
0.35 0.08 0
0.36 0.08 0
0.37 0.08 0
0.38 0.08 0
0.39 0.08 0
0.4 0.08 0
0.41 0.08 0
0.42 0.08 0
0.43 0.08 0
0.44 0.08 0
0.45 0.08 0
0.46 0.08 0
0.47 0.08 0
0.48 0.08 0
0.49 0.08 0
0.5 0.08 0
0.51 0.08 0
0.52 0.08 0
0.53 0.08 0
0.54 0.08 0
0.55 0.08 0
0.56 0.08 0
0.57 0.08 0
0.58 0.08 0
0.59 0.08 0
0.6 0.08 0
0.61 0.08 0
0 0.09 0
0.01 0.09 0
0.02 0.09 0
0.03 0.09 0
0.04 0.09 0
0.05 0.09 0
0.06 0.09 0
0.07 0.09 0
0.08 0.09 0
0.09 0.09 0
0.1 0.09 0
0.11 0.09 0
0.12 0.09 0
0.13 0.09 0
0.14 0.09 0
0.15 0.09 0
0.16 0.09 0
0.17 0.09 0
0.18 0.09 0
0.19 0.09 0
0.2 0.09 0
0.21 0.09 0
0.22 0.09 0
0.23 0.09 0
0.24 0.09 0
0.25 0.09 0
0.26 0.09 0
0.27 0.09 0
0.28 0.09 0
0.29 0.09 0
0.3 0.09 0
0.31 0.09 0
0.32 0.09 0
0.33 0.09 0
0.34 0.09 0
0.35 0.09 0
0.36 0.09 0
0.37 0.09 0
0.38 0.09 0
0.39 0.09 0
0.4 0.09 0
0.41 0.09 0
0.42 0.09 0
0.43 0.09 0
0.44 0.09 0
0.45 0.09 0
0.46 0.09 0
0.47 0.09 0
0.48 0.09 0
0.49 0.09 0
0.5 0.09 0
0.51 0.09 0
0.52 0.09 0
0.53 0.09 0
0.54 0.09 0
0.55 0.09 0
0.56 0.09 0
0.57 0.09 0
0.58 0.09 0
0.59 0.09 0
0.6 0.09 0
0.61 0.09 0
0 0.1 0
0.01 0.1 0
0.02 0.1 0
0.03 0.1 0
0.04 0.1 0
0.05 0.1 0
0.06 0.1 0
0.07 0.1 0
0.08 0.1 0
0.09 0.1 0
0.1 0.1 0
0.11 0.1 0
0.12 0.1 0
0.13 0.1 0
0.14 0.1 0
0.15 0.1 0
0.16 0.1 0
0.17 0.1 0
0.18 0.1 0
0.19 0.1 0
0.2 0.1 0
0.21 0.1 0
0.22 0.1 0
0.23 0.1 0
0.24 0.1 0
0.25 0.1 0
0.26 0.1 0
0.27 0.1 0
0.28 0.1 0
0.29 0.1 0
0.3 0.1 0
0.31 0.1 0
0.32 0.1 0
0.33 0.1 0
0.34 0.1 0
0.35 0.1 0
0.36 0.1 0
0.37 0.1 0
0.38 0.1 0
0.39 0.1 0
0.4 0.1 0
0.41 0.1 0
0.42 0.1 0
0.43 0.1 0
0.44 0.1 0
0.45 0.1 0
0.46 0.1 0
0.47 0.1 0
0.48 0.1 0
0.49 0.1 0
0.5 0.1 0
0.51 0.1 0
0.52 0.1 0
0.53 0.1 0
0.54 0.1 0
0.55 0.1 0
0.56 0.1 0
0.57 0.1 0
0.58 0.1 0
0.59 0.1 0
0.6 0.1 0
0.61 0.1 0
0 0.11 0
0.01 0.11 0
0.02 0.11 0
0.03 0.11 0
0.04 0.11 0
0.05 0.11 0
0.06 0.11 0
0.07 0.11 0
0.08 0.11 0
0.09 0.11 0
0.1 0.11 0
0.11 0.11 0
0.12 0.11 0
0.13 0.11 0
0.14 0.11 0
0.15 0.11 0
0.16 0.11 0
0.17 0.11 0
0.18 0.11 0
0.19 0.11 0
0.2 0.11 0
0.21 0.11 0
0.22 0.11 0
0.23 0.11 0
0.24 0.11 0
0.25 0.11 0
0.26 0.11 0
0.27 0.11 0
0.28 0.11 0
0.29 0.11 0
0.3 0.11 0
0.31 0.11 0
0.32 0.11 0
0.33 0.11 0
0.34 0.11 0
0.35 0.11 0
0.36 0.11 0
0.37 0.11 0
0.38 0.11 0
0.39 0.11 0
0.4 0.11 0
0.41 0.11 0
0.42 0.11 0
0.43 0.11 0
0.44 0.11 0
0.45 0.11 0
0.46 0.11 0
0.47 0.11 0
0.48 0.11 0
0.49 0.11 0
0.5 0.11 0
0.51 0.11 0
0.52 0.11 0
0.53 0.11 0
0.54 0.11 0
0.55 0.11 0
0.56 0.11 0
0.57 0.11 0
0.58 0.11 0
0.59 0.11 0
0.6 0.11 0
0.61 0.11 0
0 0.12 0
0.01 0.12 0
0.02 0.12 0
0.03 0.12 0
0.04 0.12 0
0.05 0.12 0
0.06 0.12 0
0.07 0.12 0
0.08 0.12 0
0.09 0.12 0
0.1 0.12 0
0.11 0.12 0
0.12 0.12 0
0.13 0.12 0
0.14 0.12 0
0.15 0.12 0
0.16 0.12 0
0.17 0.12 0
0.18 0.12 0
0.19 0.12 0
0.2 0.12 0
0.21 0.12 0
0.22 0.12 0
0.23 0.12 0
0.24 0.12 0
0.25 0.12 0
0.26 0.12 0
0.27 0.12 0
0.28 0.12 0
0.29 0.12 0
0.3 0.12 0
0.31 0.12 0
0.32 0.12 0
0.33 0.12 0
0.34 0.12 0
0.35 0.12 0
0.36 0.12 0
0.37 0.12 0
0.38 0.12 0
0.39 0.12 0
0.4 0.12 0
0.41 0.12 0
0.42 0.12 0
0.43 0.12 0
0.44 0.12 0
0.45 0.12 0
0.46 0.12 0
0.47 0.12 0
0.48 0.12 0
0.49 0.12 0
0.5 0.12 0
0.51 0.12 0
0.52 0.12 0
0.53 0.12 0
0.54 0.12 0
0.55 0.12 0
0.56 0.12 0
0.57 0.12 0
0.58 0.12 0
0.59 0.12 0
0.6 0.12 0
0.61 0.12 0
0 0.13 0
0.01 0.13 0
0.02 0.13 0
0.03 0.13 0
0.04 0.13 0
0.05 0.13 0
0.06 0.13 0
0.07 0.13 0
0.08 0.13 0
0.09 0.13 0
0.1 0.13 0
0.11 0.13 0
0.12 0.13 0
0.13 0.13 0
0.14 0.13 0
0.15 0.13 0
0.16 0.13 0
0.17 0.13 0
0.18 0.13 0
0.19 0.13 0
0.2 0.13 0
0.21 0.13 0
0.22 0.13 0
0.23 0.13 0
0.24 0.13 0
0.25 0.13 0
0.26 0.13 0
0.27 0.13 0
0.28 0.13 0
0.29 0.13 0
0.3 0.13 0
0.31 0.13 0
0.32 0.13 0
0.33 0.13 0
0.34 0.13 0
0.35 0.13 0
0.36 0.13 0
0.37 0.13 0
0.38 0.13 0
0.39 0.13 0
0.4 0.13 0
0.41 0.13 0
0.42 0.13 0
0.43 0.13 0
0.44 0.13 0
0.45 0.13 0
0.46 0.13 0
0.47 0.13 0
0.48 0.13 0
[...]
POINT_DATA 93248

SCALARS v double
LOOKUP_TABLE default
0
0
0
0
0
0
0
0
0
0
0
0
0
0
0
0
0
0
0
0
0
0
0
0
0
0
0
0
0
0
0
0
0
0
0
0
0
0
-0.0906222
0
0
0
0
0
-0.0957379
0
0
0
0
0
0
0
0
0
0
0
0
0
0
0
0
0
0
0.0452361
-0.0747923
0.0480118
0.034449
0.0177482
0
-0.00486157
-0.0124213
-0.0173567
-0.0207634
-0.0240895
-0.0294125
-0.0293921
-0.0295767
-0.0296869
-0.0299002
-0.0291726
-0.0285645
-0.0272385
-0.0356006
-0.0306191
-0.0258498
-0.0289317
-0.029304
-0.0293255
-0.0293393
-0.0293486
-0.0293274
-0.0292479
-0.0291044
-0.0291771
-0.0308444
-0.0292543
-0.0283974
-0.0288996
-0.0600952
-0.0278467
-0.0272165
-0.0243418
-0.0314902
-0.054859
-0.0317853
-0.0327423
-0.036526
-0.0527916
-0.111272
-0.031064
-0.041962
-0.0288911
-0.0287919
-0.0281044
-0.0316614
-0.036639
-0.0564778
-0.0352122
-0.0786874
-0.030003
-0.0260102
-0.0227399
-0.018299
0
0
0.0266229
0.0509437
0.0586447
0.0544561
0.0374398
0.0309081
0.0197133
0.00820022
-0.00267263
-0.0119982
-0.0207457
-0.113408
-0.035466
-0.0378298
-0.0334263
-0.0406384
-0.0393457
-0.0406386
-0.0433448
-0.139579
-0.0408474
-0.0443087
-0.0408382
-0.0400564
-0.0399388
-0.0399739
-0.0400114
-0.0399921
-0.0398674
-0.0395753
-0.0393703
-0.0874056
-0.0396628
-0.0385742
-0.0401167
-0.039522
-0.0367946
-0.0345186
-0.0394591
-0.0428946
-0.0449962
-0.0446314
-0.0462363
-0.0479056
-0.0509642
-0.0498703
-0.0439569
-0.041962
-0.0403108
-0.0408193
-0.0435257
-0.043424
-0.0459063
-0.0493309
-0.0442113
-0.0415219
-0.0904093
-0.0326865
-0.0286505
-0.024889
0
0
0.0139721
0.0349362
0.0443933
0.0524009
0.0551412
0.0427268
0.0317803
0.0206348
0.00938028
-0.00224695
-0.0126968
-0.0247907
-0.0319938
-0.0375232
-0.0416902
-0.0446086
0
-0.0453497
-0.0470132
-0.0488397
-0.0470379
-0.0467478
-0.0458379
-0.0454134
-0.0453212
-0.0453559
-0.0454059
-0.0454169
-0.0453723
-0.0453328
-0.0456548
-0.047372
-0.0476687
-0.0473279
-0.0441832
-0.0434213
-0.0424992
-0.0425107
-0.0452871
-0.0477547
-0.0498467
-0.051386
-0.050897
-0.0521915
-0.0531771
-0.0490397
-0.0475618
-0.0465174
-0.0469782
-0.0469785
-0.0475231
-0.0477468
-0.0482364
-0.0481475
-0.0462214
-0.0439547
-0.0416509
-0.0360848
-0.0324207
-0.0304219
0
0
0.00841802
0.0238697
0.0374445
0.0405513
0.0416429
0.0368802
0.0298249
0.0213801
0.0122214
0.00257175
-0.00713446
-0.017088
-0.02566
-0.0329245
-0.0396171
-0.0427944
-0.0438485
-0.0460412
-0.04791
-0.0479329
-0.0479656
-0.0479861
-0.0479116
-0.047904
-0.047976
-0.048068
-0.0481535
-0.0482095
-0.0482335
-0.0482796
-0.0485148
-0.0492124
-0.0503601
-0.0498345
-0.0480162
-0.0469406
-0.0464726
-0.0466829
-0.0484309
-0.0500954
-0.0515805
-0.0527188
-0.0530687
-0.0535311
-0.052982
-0.0488455
-0.049503
-0.0494879
-0.04961
-0.0495155
-0.0493779
-0.0490769
-0.0485242
-0.0474926
-0.0458969
-0.0436569
-0.0407199
-0.036856
-0.0340874
-0.0349898
0
0
0.00541772
0.015277
0.0233171
0.0271052
0.0281017
0.0260656
0.0214462
0.0153397
0.0088004
0.00172362
-0.00580228
-0.0137003
-0.0213721
-0.0284467
-0.0335412
-0.0395525
-0.0426343
-0.0451344
-0.0463799
-0.0472671
-0.0479965
-0.0485433
-0.0489434
-0.0492661
-0.0495381
-0.049719
-0.0498721
-0.0499861
-0.0500419
-0.0500378
-0.0500094
-0.0502779
-0.0530956
-0.0517205
-0.050326
-0.049539
-0.0493624
-0.0497568
-0.0506594
-0.0516478
-0.0525547
-0.053279
-0.0537806
-0.0541233
-0.0537792
0
-0.0509419
-0.0512181
-0.051041
-0.0507393
-0.0503027
-0.0496192
-0.0485713
-0.047205
-0.0455339
-0.0434353
-0.0409589
-0.0382491
-0.0353207
-0.0383008
-0.105868
0
0.00356556
0.00958127
0.0142396
0.0166277
0.0169746
0.0158121
0.0119346
0
0.00287705
-0.00209989
-0.00770979
-0.0139691
-0.0202051
-0.0264625
-0.0324463
-0.0385855
-0.0407723
-0.042068
-0.0447188
-0.04659
-0.0480353
-0.0490668
-0.0498169
-0.0503986
-0.0508704
-0.0511076
-0.0513563
-0.0515509
-0.0516343
-0.0515559
-0.0512371
-0.0508012
-0.115928
-0.0531289
-0.051952
-0.0516091
-0.0516511
-0.0519968
-0.05252
-0.0530786
-0.0535784
-0.0539547
-0.0542416
-0.0541819
-0.0534225
-0.0511865
-0.0517743
-0.052041
-0.0519348
-0.051613
-0.0510902
-0.0502451
-0.0489477
-0.0474922
-0.0459065
-0.0442369
-0.043065
-0.0441521
-0.0477152
-0.038988
0
0
0.00233423
0.00572211
0.008104
0.00897211
0.00824373
0.00578595
0.00400372
0.000497709
-0.00307599
-0.00694878
-0.0114857
-0.0170468
-0.021555
-0.0266525
-0.0321534
-0.0391005
-0.0398661
-0.0416821
-0.0444693
-0.0468383
-0.048746
-0.0500222
-0.0509366
-0.0516741
-0.0523239
-0.0525486
-0.0529603
-0.0532633
-0.053399
-0.0533449
-0.0532321
-0.0535171
-0.0555565
-0.0547766
-0.0541107
-0.053829
-0.053845
-0.0540471
-0.0543301
-0.0546166
-0.054859
-0.0550263
-0.0549627
-0.054745
-0.0541851
-0.0533736
-0.0531849
-0.0530987
-0.0528981
-0.0525599
-0.0520593
-0.051232
-0.0497462
-0.0483812
-0.0470148
-0.0455362
-0.0441614
-0.0828471
-0.0284106
-0.0380367
0
0
0.00148197
0.00300825
0.00376165
0.00341352
0.00192177
-0.000531107
-0.00298774
-0.00587605
-0.00885713
-0.0120551
-0.0160669
-0.023218
-0.0213721
-0.027959
-0.0313692
-0.0320974
-0.038732
-0.0436254
-0.0463665
-0.0483176
-0.0503798
-0.051464
-0.0523364
-0.0530951
-0.0525486
-0.0544621
-0.0549435
-0.0552885
-0.0554545
-0.0553542
-0.0552054
-0.055423
-0.0560581
-0.0561198
-0.0559979
-0.0559219
-0.0559651
-0.0560753
-0.0562006
-0.0563042
-0.0563575
-0.0563298
-0.0561655
-0.0558832
-0.055475
-0.0550329
-0.0546939
-0.0543949
-0.0540577
-0.0536629
-0.0532221
-0.0526637
-0.050868
-0.0498176
-0.0488224
-0.0477432
-0.0466764
-0.0454215
-0.0403815
-0.0389532
0
0
0.000876022
0.00103456
0.000568702
-0.000748788
-0.00287432
-0.00558791
-0.008452
-0.0113266
-0.0140823
-0.0167441
-0.0191347
-0.0184315
-0.0256188
-0.0301789
-0.0334263
-0.0359216
-0.0404747
-0.0444618
-0.0473332
-0.0493743
-0.0660184
-0.0529025
-0.0538111
-0.0547215
-0.055688
-0.0563038
-0.0569749
-0.0575257
-0.0578244
-0.0575919
-0.0569327
-0.0570143
-0.0574402
-0.0577393
-0.0578868
-0.0579523
-0.0580533
-0.0581274
-0.058156
-0.0581381
-0.0580638
-0.0579157
-0.0576766
-0.0573648
-0.0570032
-0.0566264
-0.0562401
-0.0558242
-0.0553511
-0.0548226
-0.0542673
-0.0536703
-0.052182
-0.0517915
-0.0510689
-0.0501363
-0.0490449
-0.0474579
-0.0445506
-0.0406147
0
0
0.00043424
-0.000447275
-0.00185919
-0.00400543
-0.00670846
-0.00981354
-0.013016
-0.0160857
-0.0189186
-0.021557
-0.0240294
-0.0263686
-0.0303697
-0.0340726
-0.0367605
-0.0397059
-0.0431279
-0.0463148
-0.0489895
-0.0512053
-0.0532267
-0.0544901
-0.0555255
-0.0564172
-0.0569701
-0.0582287
-0.0592453
-0.060104
-0.0607255
-0.0608623
-0.0576059
-0.0584247
-0.0592182
-0.0596812
-0.0599366
-0.0600952
-0.0601201
-0.0602253
-0.0601979
-0.0601014
-0.0599439
-0.0597194
-0.0594058
-0.0590526
-0.0586802
-0.0582914
-0.0578647
-0.0573647
-0.0567606
-0.0560523
-0.0551209
-0.0540782
-0.0553344
-0.0545544
-0.053561
-0.0525258
-0.0513231
-0.0496038
-0.046862
-0.0424526
0
0
0.000102397
-0.00160041
-0.00376149
-0.00812074
-0.0099001
-0.0134455
-0.0170313
-0.0204125
-0.0235091
-0.0264045
-0.0292321
-0.0322249
-0.035602
-0.0388855
-0.0401966
-0.0433125
-0.0463297
-0.0490136
-0.0513725
-0.0533182
-0.0550866
-0.0563906
-0.0574585
-0.0584197
-0.0593702
-0.0605479
-0.0618187
-0.0630161
-0.0638914
-0.0641554
0
-0.060778
-0.0615784
-0.0618947
-0.0621
-0.0622596
-0.0623785
-0.0623639
-0.0623211
-0.0621737
-0.0619636
-0.0617132
-0.0612873
-0.0608746
-0.0604726
-0.0600622
-0.059608
-0.0590543
-0.058375
-0.057754
-0.0570891
-0.0565958
-0.0568713
-0.0564778
-0.0557083
-0.0547397
-0.0535
-0.0516955
-0.0488588
-0.0442832
0
0
-0.000159216
-0.00255215
-0.00540725
-0.00880837
-0.0126483
-0.0166927
-0.0206976
-0.0244578
-0.0279021
-0.03115
-0.034279
-0.0374692
-0.0407788
-0.0442672
0
-0.0472885
-0.05001
-0.0522222
-0.0543753
-0.056072
-0.0574514
-0.0585766
-0.0595703
-0.060541
-0.0616149
-0.0629455
-0.0646108
-0.066281
-0.0672289
-0.0658547
-0.0628957
-0.0630566
-0.0635196
-0.0638956
-0.0641838
-0.0644153
-0.0645917
-0.0646791
-0.0645913
-0.0643475
-0.0640733
-0.0640032
-0.0632508
-0.0627748
-0.0623546
-0.061941
-0.0614931
-0.0609184
-0.0601342
-0.059782
-0.0593992
-0.0590235
-0.0587601
-0.0583448
-0.0577059
-0.0568252
-0.0555803
-0.0537356
-0.0507977
-0.046065
0
0
-0.000372403
-0.00335787
-0.00680193
-0.0106076
-0.0151056
-0.019655
-0.024109
-0.0282864
-0.0321104
-0.0361994
-0.0391045
-0.0423715
-0.0454623
-0.0480981
-0.0491773
-0.0514795
-0.0535617
-0.0554463
-0.0578506
-0.0592163
-0.0601605
-0.0609892
-0.0618047
-0.0626797
-0.0637323
-0.0651929
-0.0674259
-0.0701135
-0.0732396
-0.0689622
-0.0662962
-0.0656007
-0.0656827
-0.0659659
-0.066286
-0.0666123
-0.0668768
-0.0671568
-0.0670198
-0.0665763
-0.0659628
-0.0648774
-0.064972
-0.0646759
-0.0642934
-0.0639085
-0.063516
-0.0629752
-0.0618592
-0.0620225
-0.0618116
-0.0613702
-0.0608505
-0.0603715
-0.0597664
-0.0589223
-0.0575695
-0.0557613
-0.0527034
-0.0477839
0
0
-0.000554187
-0.00407147
-0.00812074
-0.0128073
-0.0174861
-0.0224395
-0.0273368
-0.0319538
-0.0361994
-0.0401274
-0.0437498
-0.047107
-0.0500987
-0.0525334
-0.0542833
-0.0559343
-0.0573621
-0.058672
-0.0622331
-0.0626562
-0.0629899
-0.0634816
-0.0640817
-0.0647608
-0.0655903
-0.0668242
-0.0692127
-0.0500419
-0.0901425
-0.0717285
-0.0679309
-0.0674075
-0.0675823
-0.0679202
-0.0683359
-0.0688779
-0.0696313
-0.0700149
-0.069764
-0.0690104
-0.0681982
-0.0674758
-0.0670685
-0.066679
-0.0662784
-0.0659192
-0.065614
-0.0652507
-0.04961
-0.064564
-0.0643256
-0.0637236
-0.0628863
-0.0625485
-0.061975
-0.0612495
-0.0602407
-0.0579495
-0.054605
-0.0494161
0
0
-0.000713227
-0.00467509
-0.00922178
-0.0142773
-0.0195934
-0.0250474
-0.0304121
-0.0354849
-0.0401507
-0.044404
-0.0482607
-0.0517381
-0.0547472
-0.0571659
-0.0589851
-0.0603496
-0.0612637
-0.0615852
-0.12814
-0.0658193
-0.0656828
-0.0660184
-0.0664218
-0.0668142
-0.0671316
-0.0671956
-0.0661741
-0.060044
-0.0313696
-0.0576576
-0.0651382
-0.0677029
-0.0688297
-0.0695286
-0.0701681
-0.0709981
-0.0721675
-0.0733601
-0.0731923
-0.0717688
-0.0705585
-0.0697526
-0.0691958
-0.0687229
-0.0682638
-0.0678918
-0.067547
-0.0671611
-0.0666305
-0.0671082
-0.0668034
-0.0662817
-0.0661485
-0.0650449
-0.0642487
-0.0636265
-0.0623902
-0.0601718
-0.0565183
-0.0509078
0
0
-0.000886811
-0.00516759
-0.0102271
-0.0157763
-0.0216152
-0.0275296
-0.0333589
-0.0389053
-0.044006
-0.048601
-0.0526583
-0.0562731
-0.0593695
-0.0618299
-0.0636241
-0.0648657
-0.06575
-0.0666565
-0.0689682
-0.0689868
-0.0689059
-0.0689462
-0.0690309
-0.0690575
-0.0688759
-0.068167
-0.0662451
-0.0622716
-0.0569485
-0.0623873
-0.0664559
-0.0687646
-0.0700967
-0.0709926
-0.0717737
-0.0728506
-0.0746836
-0.0775257
-0.0789121
-0.0750296
-0.0728321
-0.0717867
-0.0711799
-0.0706927
-0.0701762
-0.0698426
-0.0695072
-0.0692301
-0.069307
-0.0701652
-0.0693976
-0.0686281
-0.0681113
-0.067406
-0.0660722
-0.0662971
-0.0650559
-0.0628345
-0.0586968
-0.0521518
0
0
-0.00114385
0.00103456
-0.0112119
-0.0173126
-0.0236183
-0.0298394
-0.0361791
-0.0422525
-0.0478227
-0.0527697
-0.0569142
-0.0606791
-0.063936
-0.0665072
-0.0682868
-0.069422
-0.0701992
-0.0709484
-0.0717786
-0.0720169
-0.0720024
-0.0719159
-0.0717838
-0.0715574
-0.0711203
-0.0702627
-0.0687007
-0.0672275
-0.0670998
-0.0683624
-0.0697886
-0.0709679
-0.0718733
-0.0725944
-0.0731667
-0.074053
-0.0759427
-0.0810319
-0.0950068
-0.0777616
-0.073996
-0.0731279
-0.0727691
-0.0724586
-0.0701762
-0.0717738
-0.0714717
-0.0712206
-0.071554
-0.073845
-0.0718978
-0.0709151
-0.0705831
-0.0707123
-0.0722849
-0.0701795
-0.0685324
-0.066593
-0.0621321
-0.0529644
0
0
-0.00113023
-0.00625483
-0.0122035
-0.0188416
-0.0257063
-0.032358
-0.0391026
-0.0456565
-0.0517032
-0.0570284
-0.0608989
-0.0649074
-0.0684577
-0.0712537
-0.0730178
-0.0739843
-0.0745457
-0.0750696
-0.0753543
-0.0753607
-0.0752046
-0.0749692
-0.0746767
-0.0743107
-0.0738286
-0.0731853
-0.0723942
-0.0711716
-0.0732649
-0.0729924
-0.0731053
-0.0734985
-0.073949
-0.0743273
-0.0743396
-0.0741777
-0.0728885
-0.0666034
-0.0369166
-0.0637349
-0.0708065
-0.0730603
-0.073756
-0.0738977
-0.0737839
-0.0736658
-0.0734544
-0.0731713
-0.0732946
-0.119243
-0.0738893
-0.0731473
-0.073111
-0.0732678
-0.0734355
-0.0728535
-0.072994
-0.0720697
-0.0705074
-0.0673448
0
0
-0.00119949
-0.00680245
-0.0131472
-0.0205601
-0.0279565
-0.0340629
-0.041651
-0.0489628
-0.0556641
-0.0615841
-0.0642279
-0.0690109
-0.0730182
-0.07621
-0.0778763
-0.0785509
-0.0788132
-0.0793452
-0.079268
-0.0789435
-0.0785527
-0.0781384
-0.0777023
-0.0772471
-0.0767853
-0.0763462
-0.0757717
-0.0744378
-0.127775
-0.0764182
-0.0759306
-0.0760473
-0.0761852
-0.0760873
-0.0759311
-0.0749872
-0.0727923
-0.0683759
-0.0624515
-0.0674453
-0.071743
-0.0738556
-0.0748769
-0.0753696
-0.0755794
-0.075648
-0.0756579
-0.0757244
-0.076205
-0.0777035
-0.0765287
-0.0759358
-0.0758354
-0.0759111
-0.0759587
-0.0760323
-0.0762144
-0.075678
-0.0737044
-0.0681021
0
0
-0.00130214
-0.00730236
-0.0139106
-0.0335836
-0.0304859
0
-0.0443769
-0.0524287
-0.0597192
-0.0666867
-0.00770979
-0.073502
-0.0776811
-0.0815321
-0.0828879
-0.0830699
-0.0829044
-0.0840224
-0.0833227
-0.0825939
-0.0819656
-0.0813873
-0.0808114
-0.0802657
-0.0798066
-0.0796207
-0.080491
-0.0788562
-0.0799314
-0.0793602
-0.0789828
-0.0788931
-0.0788714
-0.0785943
-0.0779819
-0.0768685
-0.0751535
-0.0730843
-0.0719823
-0.0729808
-0.0745496
-0.0757428
-0.0765372
-0.0771425
-0.0775281
-0.077735
-0.077917
-0.0781391
-0.0784706
-0.0788184
-0.0785995
-0.078452
-0.0785098
-0.0786422
-0.0786874
-0.0788546
-0.0788465
-0.0780499
-0.0755589
-0.0693457
0
0
-0.00142585
-0.00785996
-0.015058
-0.023285
-0.0314973
-0.038797
-0.0473212
-0.0555872
-0.0631577
-0.0696339
-0.0733496
-0.078038
-0.0814775
-0.0873784
-0.0878256
-0.0874147
-0.086607
-0.123802
-0.0871145
-0.0861181
-0.085393
-0.0846942
-0.0839544
-0.0832648
-0.0826045
-0.0817321
-0.078838
-0.080818
-0.0816353
-0.0816924
-0.0816321
-0.0816973
-0.0818554
-0.081592
-0.0806544
-0.0795355
-0.0783004
-0.0772826
-0.0769509
-0.0771849
-0.0777011
-0.0782051
-0.0784921
-0.0792447
-0.0797052
-0.0799148
-0.0801822
-0.0804415
-0.0806351
-0.0806581
-0.0805887
-0.0807483
-0.0810562
-0.0813412
-0.0812743
-0.0813919
-0.0811163
-0.0799395
-0.0772357
-0.0708415
0
0
-0.00154759
-0.00838998
-0.0160212
-0.0243698
-0.033002
-0.0415763
-0.0503302
-0.0588993
-0.0668554
-0.0738585
-0.0787848
-0.0829734
-0.0857501
-0.174175
-0.0920563
-0.091453
-0.0911644
-0.0916373
-0.090795
-0.0898688
-0.089001
-0.0881281
-0.0871038
-0.0862726
-0.0855449
-0.0847474
-0.0838429
-0.0839426
-0.0840542
-0.0840574
-0.0840969
-0.0844
-0.08515
-0.0855571
-0.0837564
-0.0825614
-0.0814284
-0.0807379
-0.0804851
-0.0805057
-0.0806851
-0.0810141
-0.0818654
-0.0817717
-0.0820952
-0.082168
-0.0825019
-0.0827717
-0.0828969
-0.082706
-0.0824728
-0.0829229
-0.083487
-0.0839753
-0.0837581
-0.0838641
-0.0832243
-0.0815306
-0.0789163
-0.0724981
0
0
-0.00166605
-0.00890408
-0.0169469
-0.0256641
-0.0347869
-0.044012
-0.0530979
-0.0622048
-0.0707484
-0.0796385
-0.0838044
-0.0881732
-0.0918799
-0.0960189
-0.0964557
-0.0960511
-0.0954878
-0.0951628
-0.0944301
-0.0935368
-0.0926176
-0.0916272
-0.090096
-0.089245
-0.0886137
-0.0879816
-0.0874038
-0.0869744
-0.0866661
-0.0864431
-0.0863402
-0.0866558
-0.0882366
-0.0932581
-0.0866032
-0.0858104
-0.0841233
-0.0835558
-0.0833704
-0.0833371
-0.0833741
-0.0834703
-0.083769
-0.0839776
-0.084173
-0.0847441
-0.0849727
-0.0851989
-0.0853078
-0.0847787
-0.0838258
-0.0852675
-0.0858124
-0.0859671
-0.0868662
-0.0865735
-0.0853239
-0.0826415
-0.0806376
-0.0742854
0
0
-0.00178734
-0.00942746
-0.0179073
-0.0270943
-0.0367451
-0.0464339
-0.055295
-0.0653687
-0.0736605
-0.0782675
-0.0870014
-0.0928257
-0.0968874
-0.0996583
-0.100609
-0.100348
-0.0991979
-0.0990762
-0.0982323
-0.0972389
-0.0962829
-0.0952937
-0.0926417
-0.0922115
-0.0917798
-0.0911925
-0.0905515
-0.0897114
-0.0892578
-0.0887269
-0.0881337
-0.0874056
-0.0849887
-0.0727416
-0.0824337
-0.0829983
-0.0851323
-0.0856769
-0.085815
-0.0858667
-0.0858321
-0.0856758
-0.0858892
-0.0862462
-0.0866036
-0.0870067
-0.0873083
-0.0876045
-0.0878709
-0.0871135
-0.0846121
-0.0879515
-0.0885251
-0.0887709
-0.0892021
-0.089089
-0.0875421
-0.0828471
-0.0826074
-0.0761728
0
0
-0.00191492
-0.0099708
-0.0189193
-0.0286442
-0.0389519
-0.0496258
-0.0612767
-0.0694739
-0.077703
-0.0849662
-0.092085
-0.0977373
-0.101761
-0.104195
-0.105209
-0.105314
-0.105874
-0.103708
-0.10221
-0.100967
-0.0999492
-0.0992319
-0.0547215
-0.0955035
-0.0951148
-0.094331
-0.0935457
-0.0869744
-0.0917968
-0.0910049
-0.0897567
-0.0890199
-0.0870642
-0.084285
-0.0856303
-0.0864438
-0.087334
-0.0878482
-0.0881329
-0.0882859
-0.088201
-0.0875968
-0.0879912
-0.0885397
-0.0889784
-0.0893224
-0.0895972
-0.0898404
-0.0900616
-0.0903809
-0.0316614
-0.104332
-0.0911746
-0.0912937
-0.0915541
-0.0916265
-0.0904093
-0.0227399
-0.085296
-0.0780726
0
0
-0.00204676
-0.010527
-0.0199643
-0.0302512
-0.041182
-0.0524517
-0.0635768
-0.0727202
-0.0817497
-0.090025
-0.0971866
-0.102829
-0.106774
-0.109065
-0.109982
-0.109928
-0.109174
-0.107589
-0.105982
-0.10452
-0.103202
-0.101797
-0.0996047
-0.0988003
-0.0981123
-0.0970983
-0.0961107
-0.0951046
-0.0943902
-0.093764
-0.0937835
-0.0919099
-0.0904726
-0.0895141
-0.0894277
-0.08963
-0.0899519
-0.0902569
-0.0905298
-0.0907623
-0.0906811
-0.0890506
-0.0901465
-0.090918
-0.0913616
-0.0916507
-0.0918754
-0.0920586
-0.0921587
-0.0919515
-0.0905677
-0.0926617
-0.0932403
-0.0934924
-0.0936041
-0.0933547
-0.0920047
-0.088496
-0.0867822
-0.0798385
0
0
-0.00217502
-0.0110754
-0.0210162
-0.0318967
-0.0434669
-0.0553878
-0.0671239
-0.0754602
-0.085726
-0.094844
-0.102347
-0.108057
-0.111935
-0.114072
-0.114834
-0.114552
-0.113173
-0.11134
-0.109548
-0.107926
-0.106526
-0.105128
-0.103398
-0.102255
-0.101266
-0.0997391
-0.0986254
-0.0977299
-0.0969689
-0.0962713
-0.0955855
-0.0945402
-0.0935877
-0.0929463
-0.0926177
-0.092521
-0.0925743
-0.0927199
-0.0929412
-0.0932501
-0.0934273
-0.0579157
-0.0926681
-0.0933993
-0.0937141
-0.0939402
-0.0941321
-0.0942871
-0.0943702
-0.0943287
-0.0942565
-0.0948622
-0.0953319
-0.0956062
-0.0956766
-0.0953929
-0.0943365
-0.0924348
-0.089112
-0.0816644
0
0
-0.00228243
-0.0115742
-0.0220426
-0.0335836
-0.0458287
-0.05851
-0.0715344
-0.0173567
-0.0902802
-0.100057
-0.107681
-0.113408
-0.117171
-0.119107
-0.119703
-0.119389
-0.117218
-0.114922
-0.112945
-0.11122
-0.109924
-0.108357
-0.106713
-0.105291
-0.10421
-0.10212
-0.101168
-0.100342
-0.0995442
-0.0987529
-0.0979402
-0.0970967
-0.0963342
-0.0957465
-0.0953472
-0.095126
-0.0950526
-0.0950924
-0.0952074
-0.0953194
-0.095172
-0.0941885
-0.0949102
-0.0954853
-0.0958602
-0.0961349
-0.0963598
-0.0965435
-0.0966828
-0.096802
-0.0969836
-0.0972781
-0.0975922
-0.0978352
-0.0979416
-0.09786
-0.0975921
-0.0954407
-0.0915238
-0.0835916
0
0
-0.00233289
-0.0119363
-0.0230279
-0.0353494
-0.0482005
-0.0612779
-0.0739026
-0.0841177
-0.095276
-0.105033
-0.112902
-0.118703
-0.122403
-0.12408
-0.124272
-0.12453
-0.120858
-0.118254
-0.116289
-0.114473
-0.113602
-0.111647
-0.109719
-0.107807
-0.105569
-0.1053
-0.104188
-0.103111
-0.102132
-0.101227
-0.100365
-0.0995538
-0.0988261
-0.09822
-0.0977717
-0.0974919
-0.0973623
-0.0973497
-0.0974101
-0.0974663
-0.0974031
-0.0972105
-0.0973913
-0.097708
-0.0980317
-0.0983243
-0.0985878
-0.0988141
-0.0990023
-0.0991922
-0.0994173
-0.0996665
-0.0999325
-0.100169
-0.100288
-0.100206
-0.0996991
-0.0979082
-0.0938149
-0.0855892
0
0
-0.00227173
-0.0119384
-0.0242715
-0.0371915
-0.0507122
-0.0643425
-0.0774853
-0.0895173
-0.100712
-0.110475
-0.118378
-0.124171
-0.12779
-0.129523
-0.130747
-0.129873
-0.123802
-0.121973
-0.120071
-0.117922
-0.135787
-0.114841
-0.112627
-0.110652
-0.108497
-0.107417
-0.106427
-0.105437
-0.104474
-0.103551
-0.102677
-0.10186
-0.101111
-0.100445
-0.0999493
-0.0996463
-0.0995086
-0.0994971
-0.0995773
-0.0996884
-0.0997406
-0.0996783
-0.0997404
-0.0999655
-0.100262
-0.100551
-0.10084
-0.101096
-0.101294
-0.101508
-0.101754
-0.102015
-0.102295
-0.10256
-0.102656
-0.102496
-0.10195
-0.100244
-0.096075
-0.0876238
0
0
-0.00217226
-0.010649
-0.0256744
-0.0395952
-0.0537455
-0.0679604
-0.0817859
-0.094658
-0.106212
-0.116135
-0.124086
-0.129792
-0.133148
-0.13425
-0.133015
-0.128297
-0.130608
-0.128086
-0.125075
-0.122292
-0.120305
-0.117862
-0.115613
-0.113585