# vtk DataFile Version 2.0
FlowField
ASCII
DATASET STRUCTURED_GRID
DIMENSIONS 62 47 32 
POINTS 93248 double
0 0 0
0.01 0 0
0.02 0 0
0.03 0 0
0.04 0 0
0.05 0 0
0.06 0 0
0.07 0 0
0.08 0 0
0.09 0 0
0.1 0 0
0.11 0 0
0.12 0 0
0.13 0 0
0.14 0 0
0.15 0 0
0.16 0 0
0.17 0 0
0.18 0 0
0.19 0 0
0.2 0 0
0.21 0 0
0.22 0 0
0.23 0 0
0.24 0 0
0.25 0 0
0.26 0 0
0.27 0 0
0.28 0 0
0.29 0 0
0.3 0 0
0.31 0 0
0.32 0 0
0.33 0 0
0.34 0 0
0.35 0 0
0.36 0 0
0.37 0 0
0.38 0 0
0.39 0 0
0.4 0 0
0.41 0 0
0.42 0 0
0.43 0 0
0.44 0 0
0.45 0 0
0.46 0 0
0.47 0 0
0.48 0 0
0.49 0 0
0.5 0 0
0.51 0 0
0.52 0 0
0.53 0 0
0.54 0 0
0.55 0 0
0.56 0 0
0.57 0 0
0.58 0 0
0.59 0 0
0.6 0 0
0.61 0 0
0 0.01 0
0.01 0.01 0
0.02 0.01 0
0.03 0.01 0
0.04 0.01 0
0.05 0.01 0
0.06 0.01 0
0.07 0.01 0
0.08 0.01 0
0.09 0.01 0
0.1 0.01 0
0.11 0.01 0
0.12 0.01 0
0.13 0.01 0
0.14 0.01 0
0.15 0.01 0
0.16 0.01 0
0.17 0.01 0
0.18 0.01 0
0.19 0.01 0
0.2 0.01 0
0.21 0.01 0
0.22 0.01 0
0.23 0.01 0
0.24 0.01 0
0.25 0.01 0
0.26 0.01 0
0.27 0.01 0
0.28 0.01 0
0.29 0.01 0
0.3 0.01 0
0.31 0.01 0
0.32 0.01 0
0.33 0.01 0
0.34 0.01 0
0.35 0.01 0
0.36 0.01 0
0.37 0.01 0
0.38 0.01 0
0.39 0.01 0
0.4 0.01 0
0.41 0.01 0
0.42 0.01 0
0.43 0.01 0
0.44 0.01 0
0.45 0.01 0
0.46 0.01 0
0.47 0.01 0
0.48 0.01 0
0.49 0.01 0
0.5 0.01 0
0.51 0.01 0
0.52 0.01 0
0.53 0.01 0
0.54 0.01 0
0.55 0.01 0
0.56 0.01 0
0.57 0.01 0
0.58 0.01 0
0.59 0.01 0
0.6 0.01 0
0.61 0.01 0
0 0.02 0
0.01 0.02 0
0.02 0.02 0
0.03 0.02 0
0.04 0.02 0
0.05 0.02 0
0.06 0.02 0
0.07 0.02 0
0.08 0.02 0
0.09 0.02 0
0.1 0.02 0
0.11 0.02 0
0.12 0.02 0
0.13 0.02 0
0.14 0.02 0
0.15 0.02 0
0.16 0.02 0
0.17 0.02 0
0.18 0.02 0
0.19 0.02 0
0.2 0.02 0
0.21 0.02 0
0.22 0.02 0
0.23 0.02 0
0.24 0.02 0
0.25 0.02 0
0.26 0.02 0
0.27 0.02 0
0.28 0.02 0
0.29 0.02 0
0.3 0.02 0
0.31 0.02 0
0.32 0.02 0
0.33 0.02 0
0.34 0.02 0
0.35 0.02 0
0.36 0.02 0
0.37 0.02 0
0.38 0.02 0
0.39 0.02 0
0.4 0.02 0
0.41 0.02 0
0.42 0.02 0
0.43 0.02 0
0.44 0.02 0
0.45 0.02 0
0.46 0.02 0
0.47 0.02 0
0.48 0.02 0
0.49 0.02 0
0.5 0.02 0
0.51 0.02 0
0.52 0.02 0
0.53 0.02 0
0.54 0.02 0
0.55 0.02 0
0.56 0.02 0
0.57 0.02 0
0.58 0.02 0
0.59 0.02 0
0.6 0.02 0
0.61 0.02 0
0 0.03 0
0.01 0.03 0
0.02 0.03 0
0.03 0.03 0
0.04 0.03 0
0.05 0.03 0
0.06 0.03 0
0.07 0.03 0
0.08 0.03 0
0.09 0.03 0
0.1 0.03 0
0.11 0.03 0
0.12 0.03 0
0.13 0.03 0
0.14 0.03 0
0.15 0.03 0
0.16 0.03 0
0.17 0.03 0
0.18 0.03 0
0.19 0.03 0
0.2 0.03 0
0.21 0.03 0
0.22 0.03 0
0.23 0.03 0
0.24 0.03 0
0.25 0.03 0
0.26 0.03 0
0.27 0.03 0
0.28 0.03 0
0.29 0.03 0
0.3 0.03 0
0.31 0.03 0
0.32 0.03 0
0.33 0.03 0
0.34 0.03 0
0.35 0.03 0
0.36 0.03 0
0.37 0.03 0
0.38 0.03 0
0.39 0.03 0
0.4 0.03 0
0.41 0.03 0
0.42 0.03 0
0.43 0.03 0
0.44 0.03 0
0.45 0.03 0
0.46 0.03 0
0.47 0.03 0
0.48 0.03 0
0.49 0.03 0
0.5 0.03 0
0.51 0.03 0
0.52 0.03 0
0.53 0.03 0
0.54 0.03 0
0.55 0.03 0
0.56 0.03 0
0.57 0.03 0
0.58 0.03 0
0.59 0.03 0
0.6 0.03 0
0.61 0.03 0
0 0.04 0
0.01 0.04 0
0.02 0.04 0
0.03 0.04 0
0.04 0.04 0
0.05 0.04 0
0.06 0.04 0
0.07 0.04 0
0.08 0.04 0
0.09 0.04 0
0.1 0.04 0
0.11 0.04 0
0.12 0.04 0
0.13 0.04 0
0.14 0.04 0
0.15 0.04 0
0.16 0.04 0
0.17 0.04 0
0.18 0.04 0
0.19 0.04 0
0.2 0.04 0
0.21 0.04 0
0.22 0.04 0
0.23 0.04 0
0.24 0.04 0
0.25 0.04 0
0.26 0.04 0
0.27 0.04 0
0.28 0.04 0
0.29 0.04 0
0.3 0.04 0
0.31 0.04 0
0.32 0.04 0
0.33 0.04 0
0.34 0.04 0
0.35 0.04 0
0.36 0.04 0
0.37 0.04 0
0.38 0.04 0
0.39 0.04 0
0.4 0.04 0
0.41 0.04 0
0.42 0.04 0
0.43 0.04 0
0.44 0.04 0
0.45 0.04 0
0.46 0.04 0
0.47 0.04 0
0.48 0.04 0
0.49 0.04 0
0.5 0.04 0
0.51 0.04 0
0.52 0.04 0
0.53 0.04 0
0.54 0.04 0
0.55 0.04 0
0.56 0.04 0
0.57 0.04 0
0.58 0.04 0
0.59 0.04 0
0.6 0.04 0
0.61 0.04 0
0 0.05 0
0.01 0.05 0
0.02 0.05 0
0.03 0.05 0
0.04 0.05 0
0.05 0.05 0
0.06 0.05 0
0.07 0.05 0
0.08 0.05 0
0.09 0.05 0
0.1 0.05 0
0.11 0.05 0
0.12 0.05 0
0.13 0.05 0
0.14 0.05 0
0.15 0.05 0
0.16 0.05 0
0.17 0.05 0
0.18 0.05 0
0.19 0.05 0
0.2 0.05 0
0.21 0.05 0
0.22 0.05 0
0.23 0.05 0
0.24 0.05 0
0.25 0.05 0
0.26 0.05 0
0.27 0.05 0
0.28 0.05 0
0.29 0.05 0
0.3 0.05 0
0.31 0.05 0
0.32 0.05 0
0.33 0.05 0
0.34 0.05 0
0.35 0.05 0
0.36 0.05 0
0.37 0.05 0
0.38 0.05 0
0.39 0.05 0
0.4 0.05 0
0.41 0.05 0
0.42 0.05 0
0.43 0.05 0
0.44 0.05 0
0.45 0.05 0
0.46 0.05 0
0.47 0.05 0
0.48 0.05 0
0.49 0.05 0
0.5 0.05 0
0.51 0.05 0
0.52 0.05 0
0.53 0.05 0
0.54 0.05 0
0.55 0.05 0
0.56 0.05 0
0.57 0.05 0
0.58 0.05 0
0.59 0.05 0
0.6 0.05 0
0.61 0.05 0
0 0.06 0
0.01 0.06 0
0.02 0.06 0
0.03 0.06 0
0.04 0.06 0
0.05 0.06 0
0.06 0.06 0
0.07 0.06 0
0.08 0.06 0
0.09 0.06 0
0.1 0.06 0
0.11 0.06 0
0.12 0.06 0
0.13 0.06 0
0.14 0.06 0
0.15 0.06 0
0.16 0.06 0
0.17 0.06 0
0.18 0.06 0
0.19 0.06 0
0.2 0.06 0
0.21 0.06 0
0.22 0.06 0
0.23 0.06 0
0.24 0.06 0
0.25 0.06 0
0.26 0.06 0
0.27 0.06 0
0.28 0.06 0
0.29 0.06 0
0.3 0.06 0
0.31 0.06 0
0.32 0.06 0
0.33 0.06 0
0.34 0.06 0
0.35 0.06 0
0.36 0.06 0
0.37 0.06 0
0.38 0.06 0
0.39 0.06 0
0.4 0.06 0
0.41 0.06 0
0.42 0.06 0
0.43 0.06 0
0.44 0.06 0
0.45 0.06 0
0.46 0.06 0
0.47 0.06 0
0.48 0.06 0
0.49 0.06 0
0.5 0.06 0
0.51 0.06 0
0.52 0.06 0
0.53 0.06 0
0.54 0.06 0
0.55 0.06 0
0.56 0.06 0
0.57 0.06 0
0.58 0.06 0
0.59 0.06 0
0.6 0.06 0
0.61 0.06 0
0 0.07 0
0.01 0.07 0
0.02 0.07 0
0.03 0.07 0
0.04 0.07 0
0.05 0.07 0
0.06 0.07 0
0.07 0.07 0
0.08 0.07 0
0.09 0.07 0
0.1 0.07 0
0.11 0.07 0
0.12 0.07 0
0.13 0.07 0
0.14 0.07 0
0.15 0.07 0
0.16 0.07 0
0.17 0.07 0
0.18 0.07 0
0.19 0.07 0
0.2 0.07 0
0.21 0.07 0
0.22 0.07 0
0.23 0.07 0
0.24 0.07 0
0.25 0.07 0
0.26 0.07 0
0.27 0.07 0
0.28 0.07 0
0.29 0.07 0
0.3 0.07 0
0.31 0.07 0
0.32 0.07 0
0.33 0.07 0
0.34 0.07 0
0.35 0.07 0
0.36 0.07 0
0.37 0.07 0
0.38 0.07 0
0.39 0.07 0
0.4 0.07 0
0.41 0.07 0
0.42 0.07 0
0.43 0.07 0
0.44 0.07 0
0.45 0.07 0
0.46 0.07 0
0.47 0.07 0
0.48 0.07 0
0.49 0.07 0
0.5 0.07 0
0.51 0.07 0
0.52 0.07 0
0.53 0.07 0
0.54 0.07 0
0.55 0.07 0
0.56 0.07 0
0.57 0.07 0
0.58 0.07 0
0.59 0.07 0
0.6 0.07 0
0.61 0.07 0
0 0.08 0
0.01 0.08 0
0.02 0.08 0
0.03 0.08 0
0.04 0.08 0
0.05 0.08 0
0.06 0.08 0
0.07 0.08 0
0.08 0.08 0
0.09 0.08 0
0.1 0.08 0
0.11 0.08 0
0.12 0.08 0
0.13 0.08 0
0.14 0.08 0
0.15 0.08 0
0.16 0.08 0
0.17 0.08 0
0.18 0.08 0
0.19 0.08 0
0.2 0.08 0
0.21 0.08 0
0.22 0.08 0
0.23 0.08 0
0.24 0.08 0
0.25 0.08 0
0.26 0.08 0
0.27 0.08 0
0.28 0.08 0
0.29 0.08 0
0.3 0.08 0
0.31 0.08 0
0.32 0.08 0
0.33 0.08 0
0.34 0.08 0
0.35 0.08 0
0.36 0.08 0
0.37 0.08 0
0.38 0.08 0
0.39 0.08 0
0.4 0.08 0
0.41 0.08 0
0.42 0.08 0
0.43 0.08 0
0.44 0.08 0
0.45 0.08 0
0.46 0.08 0
0.47 0.08 0
0.48 0.08 0
0.49 0.08 0
0.5 0.08 0
0.51 0.08 0
0.52 0.08 0
0.53 0.08 0
0.54 0.08 0
0.55 0.08 0
0.56 0.08 0
0.57 0.08 0
0.58 0.08 0
0.59 0.08 0
0.6 0.08 0
0.61 0.08 0
0 0.09 0
0.01 0.09 0
0.02 0.09 0
0.03 0.09 0
0.04 0.09 0
0.05 0.09 0
0.06 0.09 0
0.07 0.09 0
0.08 0.09 0
0.09 0.09 0
0.1 0.09 0
0.11 0.09 0
0.12 0.09 0
0.13 0.09 0
0.14 0.09 0
0.15 0.09 0
0.16 0.09 0
0.17 0.09 0
0.18 0.09 0
0.19 0.09 0
0.2 0.09 0
0.21 0.09 0
0.22 0.09 0
0.23 0.09 0
0.24 0.09 0
0.25 0.09 0
0.26 0.09 0
0.27 0.09 0
0.28 0.09 0
0.29 0.09 0
0.3 0.09 0
0.31 0.09 0
0.32 0.09 0
0.33 0.09 0
0.34 0.09 0
0.35 0.09 0
0.36 0.09 0
0.37 0.09 0
0.38 0.09 0
0.39 0.09 0
0.4 0.09 0
0.41 0.09 0
0.42 0.09 0
0.43 0.09 0
0.44 0.09 0
0.45 0.09 0
0.46 0.09 0
0.47 0.09 0
0.48 0.09 0
0.49 0.09 0
0.5 0.09 0
0.51 0.09 0
0.52 0.09 0
0.53 0.09 0
0.54 0.09 0
0.55 0.09 0
0.56 0.09 0
0.57 0.09 0
0.58 0.09 0
0.59 0.09 0
0.6 0.09 0
0.61 0.09 0
0 0.1 0
0.01 0.1 0
0.02 0.1 0
0.03 0.1 0
0.04 0.1 0
0.05 0.1 0
0.06 0.1 0
0.07 0.1 0
0.08 0.1 0
0.09 0.1 0
0.1 0.1 0
0.11 0.1 0
0.12 0.1 0
0.13 0.1 0
0.14 0.1 0
0.15 0.1 0
0.16 0.1 0
0.17 0.1 0
0.18 0.1 0
0.19 0.1 0
0.2 0.1 0
0.21 0.1 0
0.22 0.1 0
0.23 0.1 0
0.24 0.1 0
0.25 0.1 0
0.26 0.1 0
0.27 0.1 0
0.28 0.1 0
0.29 0.1 0
0.3 0.1 0
0.31 0.1 0
0.32 0.1 0
0.33 0.1 0
0.34 0.1 0
0.35 0.1 0
0.36 0.1 0
0.37 0.1 0
0.38 0.1 0
0.39 0.1 0
0.4 0.1 0
0.41 0.1 0
0.42 0.1 0
0.43 0.1 0
0.44 0.1 0
0.45 0.1 0
0.46 0.1 0
0.47 0.1 0
0.48 0.1 0
0.49 0.1 0
0.5 0.1 0
0.51 0.1 0
0.52 0.1 0
0.53 0.1 0
0.54 0.1 0
0.55 0.1 0
0.56 0.1 0
0.57 0.1 0
0.58 0.1 0
0.59 0.1 0
0.6 0.1 0
0.61 0.1 0
0 0.11 0
0.01 0.11 0
0.02 0.11 0
0.03 0.11 0
0.04 0.11 0
0.05 0.11 0
0.06 0.11 0
0.07 0.11 0
0.08 0.11 0
0.09 0.11 0
0.1 0.11 0
0.11 0.11 0
0.12 0.11 0
0.13 0.11 0
0.14 0.11 0
0.15 0.11 0
0.16 0.11 0
0.17 0.11 0
0.18 0.11 0
0.19 0.11 0
0.2 0.11 0
0.21 0.11 0
0.22 0.11 0
0.23 0.11 0
0.24 0.11 0
0.25 0.11 0
0.26 0.11 0
0.27 0.11 0
0.28 0.11 0
0.29 0.11 0
0.3 0.11 0
0.31 0.11 0
0.32 0.11 0
0.33 0.11 0
0.34 0.11 0
0.35 0.11 0
0.36 0.11 0
0.37 0.11 0
0.38 0.11 0
0.39 0.11 0
0.4 0.11 0
0.41 0.11 0
0.42 0.11 0
0.43 0.11 0
0.44 0.11 0
0.45 0.11 0
0.46 0.11 0
0.47 0.11 0
0.48 0.11 0
0.49 0.11 0
0.5 0.11 0
0.51 0.11 0
0.52 0.11 0
0.53 0.11 0
0.54 0.11 0
0.55 0.11 0
0.56 0.11 0
0.57 0.11 0
0.58 0.11 0
0.59 0.11 0
0.6 0.11 0
0.61 0.11 0
0 0.12 0
0.01 0.12 0
0.02 0.12 0
0.03 0.12 0
0.04 0.12 0
0.05 0.12 0
0.06 0.12 0
0.07 0.12 0
0.08 0.12 0
0.09 0.12 0
0.1 0.12 0
0.11 0.12 0
0.12 0.12 0
0.13 0.12 0
0.14 0.12 0
0.15 0.12 0
0.16 0.12 0
0.17 0.12 0
0.18 0.12 0
0.19 0.12 0
0.2 0.12 0
0.21 0.12 0
0.22 0.12 0
0.23 0.12 0
0.24 0.12 0
0.25 0.12 0
0.26 0.12 0
0.27 0.12 0
0.28 0.12 0
0.29 0.12 0
0.3 0.12 0
0.31 0.12 0
0.32 0.12 0
0.33 0.12 0
0.34 0.12 0
0.35 0.12 0
0.36 0.12 0
0.37 0.12 0
0.38 0.12 0
0.39 0.12 0
0.4 0.12 0
0.41 0.12 0
0.42 0.12 0
0.43 0.12 0
0.44 0.12 0
0.45 0.12 0
0.46 0.12 0
0.47 0.12 0
0.48 0.12 0
0.49 0.12 0
0.5 0.12 0
0.51 0.12 0
0.52 0.12 0
0.53 0.12 0
0.54 0.12 0
0.55 0.12 0
0.56 0.12 0
0.57 0.12 0
0.58 0.12 0
0.59 0.12 0
0.6 0.12 0
0.61 0.12 0
0 0.13 0
0.01 0.13 0
0.02 0.13 0
0.03 0.13 0
0.04 0.13 0
0.05 0.13 0
0.06 0.13 0
0.07 0.13 0
0.08 0.13 0
0.09 0.13 0
0.1 0.13 0
0.11 0.13 0
0.12 0.13 0
0.13 0.13 0
0.14 0.13 0
0.15 0.13 0
0.16 0.13 0
0.17 0.13 0
0.18 0.13 0
0.19 0.13 0
0.2 0.13 0
0.21 0.13 0
0.22 0.13 0
0.23 0.13 0
0.24 0.13 0
0.25 0.13 0
0.26 0.13 0
0.27 0.13 0
0.28 0.13 0
0.29 0.13 0
0.3 0.13 0
0.31 0.13 0
0.32 0.13 0
0.33 0.13 0
0.34 0.13 0
0.35 0.13 0
0.36 0.13 0
0.37 0.13 0
0.38 0.13 0
0.39 0.13 0
0.4 0.13 0
0.41 0.13 0
0.42 0.13 0
0.43 0.13 0
0.44 0.13 0
0.45 0.13 0
0.46 0.13 0
0.47 0.13 0
0.48 0.13 0
[...]
POINT_DATA 93248

SCALARS v double
LOOKUP_TABLE default
0
0
0
0
0
0
0
0
0
0
0
0
0
0
0
0
0
0
0
0
0
0
0
0
0
0
0
0
0
0
0
0
0
0
0
0
0
0
-0.118175
0
0
0
0
0
-0.124327
0
0
0
0
0
0
0
0
0
0
0
0
0
0
0
0
0
0
0.0436018
-0.0898734
0.0454482
0.0314673
0.0137795
0
-0.0089996
-0.0164765
-0.021066
-0.0239911
-0.0271636
-0.0342929
-0.0334664
-0.0340123
-0.035083
-0.0357665
-0.0349134
-0.0345258
-0.0338796
-0.0445429
-0.0364453
-0.0285234
-0.0351293
-0.0356521
-0.0354323
-0.0352744
-0.0351807
-0.0350739
-0.034876
-0.0345731
-0.0347288
-0.0376015
-0.0347625
-0.0338522
-0.0344514
-0.0827012
-0.0328225
-0.0315193
-0.0300989
-0.0377525
-0.0738909
-0.0375623
-0.0395632
-0.0469719
-0.0765392
-0.154125
-0.0372356
-0.0521812
-0.0346595
-0.0346893
-0.0329374
-0.0386151
-0.0475156
-0.07549
-0.0452255
-0.110377
-0.0353597
-0.02956
-0.026028
-0.0218119
0
0
0.025271
0.0485811
0.0560495
0.051833
0.0330558
0.028392
0.0173389
0.00562866
-0.00535662
-0.0143492
-0.0227918
-0.148674
-0.0394597
-0.043073
-0.0476855
-0.0492215
-0.0479633
-0.0502217
-0.0533993
-0.211154
-0.0529467
-0.0617406
-0.0533336
-0.0509686
-0.0501854
-0.0498618
-0.0496704
-0.0494651
-0.0491249
-0.0485497
-0.0482606
-0.124569
-0.0479609
-0.0479679
-0.0497344
-0.0494989
-0.046468
-0.0448296
-0.0479859
-0.0516467
-0.0546342
-0.0547263
-0.0576428
-0.0620086
-0.0683793
-0.0646355
-0.0553428
-0.0521812
-0.0505759
-0.0519389
-0.0584129
-0.0559673
-0.0598534
-0.0653375
-0.0569281
-0.0517232
-0.12645
-0.0373427
-0.0332315
-0.0304714
0
0
0.0128509
0.0332353
0.0417904
0.0511248
0.0557446
0.0421435
0.0307484
0.0191907
0.00761111
-0.00426062
-0.0153448
-0.0289882
-0.0363937
-0.0432066
-0.0498921
-0.0539374
0
-0.0574494
-0.06079
-0.0653226
-0.0632459
-0.0633235
-0.0612246
-0.0597538
-0.0589587
-0.0585299
-0.0582612
-0.0580319
-0.0577878
-0.0576406
-0.0582464
-0.0612305
-0.0631832
-0.0610451
-0.0570252
-0.0561633
-0.0553539
-0.0554898
-0.0577485
-0.059848
-0.0622628
-0.064544
-0.0651164
-0.0676871
-0.0690275
-0.0639514
-0.0620008
-0.0605416
-0.0605468
-0.0609633
-0.0623165
-0.062366
-0.062736
-0.0620782
-0.0589422
-0.0547525
-0.0504455
-0.0423838
-0.0385388
-0.0382258
0
0
0.007498
0.0229914
0.0374601
0.040164
0.0415189
0.0363707
0.028712
0.0195319
0.00945007
-0.00119545
-0.0118683
-0.0224555
-0.0311895
-0.0394063
-0.0492866
-0.0510893
-0.0536238
-0.0582886
-0.0624318
-0.0639821
-0.0648792
-0.0651075
-0.0647738
-0.0643224
-0.0639493
-0.0636495
-0.0634281
-0.0632554
-0.0631218
-0.063119
-0.0635175
-0.0647169
-0.0668895
-0.0657769
-0.0633381
-0.0620286
-0.0616949
-0.0622935
-0.0635619
-0.0649338
-0.0664591
-0.06799
-0.068969
-0.0698963
-0.0691163
-0.0638633
-0.065385
-0.0654556
-0.0652986
-0.065079
-0.0647974
-0.064202
-0.0629824
-0.0609087
-0.0581328
-0.054212
-0.0493534
-0.0439017
-0.0410255
-0.0447452
0
0
0.00453825
0.0146143
0.0229608
0.0266779
0.0275433
0.0250619
0.0193776
0.0120684
0.00384763
-0.00495202
-0.0138052
-0.0221304
-0.0291254
-0.0347745
-0.0357659
-0.0459815
-0.0517017
-0.0568451
-0.0600411
-0.0626271
-0.0646375
-0.065861
-0.0665174
-0.0668383
-0.0669739
-0.0669237
-0.0668711
-0.0668254
-0.066758
-0.0666577
-0.0665544
-0.0669477
-0.0712272
-0.0690764
-0.0671994
-0.0663033
-0.0662176
-0.0667162
-0.0674888
-0.0683484
-0.0692231
-0.0700564
-0.0707972
-0.0712653
-0.0707642
0
-0.0677744
-0.0681482
-0.0677261
-0.0670774
-0.06618
-0.0649243
-0.0630743
-0.0606701
-0.0577993
-0.0543224
-0.0504854
-0.046712
-0.0428929
-0.0493117
-0.132306
0
0.00264327
0.0089197
0.0137373
0.0160299
0.0160174
0.0142031
0.00852575
0
-0.00445969
-0.01173
-0.0190787
-0.0259017
-0.030842
-0.0350923
-0.0393573
-0.0461151
-0.0503178
-0.0526975
-0.0574977
-0.0612952
-0.0642779
-0.0663383
-0.0676984
-0.0686159
-0.069239
-0.0694097
-0.0696123
-0.0697571
-0.0697586
-0.0695306
-0.0689554
-0.0682693
-0.162237
-0.0712543
-0.0699372
-0.0696221
-0.0697678
-0.0701616
-0.0706385
-0.0711173
-0.071543
-0.0718639
-0.0721249
-0.0719158
-0.0708162
-0.068109
-0.0690314
-0.0693902
-0.0690883
-0.068359
-0.0672766
-0.0657918
-0.0638018
-0.0615104
-0.0589743
-0.0564162
-0.0548149
-0.0566734
-0.0629351
-0.0503595
0
0
0.00133639
0.00500498
0.00749355
0.0081769
0.00683319
0.00304403
-6.20663e-05
-0.00572893
-0.0121549
-0.0188049
-0.0255335
-0.0323053
-0.0348021
-0.0379439
-0.0420551
-0.0485136
-0.0524013
-0.0533597
-0.0575245
-0.0614388
-0.0649707
-0.0673602
-0.069058
-0.0703525
-0.0713796
-0.0717044
-0.0722699
-0.0726532
-0.0727623
-0.0725577
-0.0722273
-0.0725898
-0.0752711
-0.074153
-0.0733264
-0.0730311
-0.0731023
-0.0733297
-0.0735709
-0.0737664
-0.0738909
-0.0739217
-0.0736325
-0.0731769
-0.0723576
-0.0714081
-0.0711403
-0.070932
-0.0704632
-0.0696834
-0.0686078
-0.0672031
-0.0653164
-0.0633872
-0.0613576
-0.059242
-0.0571602
-0.114423
-0.0295959
-0.0477706
0
0
0.000395843
0.00221963
0.00305677
0.00245992
0.000243652
-0.00355331
-0.00781103
-0.0132074
-0.0191618
-0.0252419
-0.0318105
-0.0422504
-0.0291254
-0.0414216
-0.0437545
-0.0438213
-0.0467631
-0.0553522
-0.0598452
-0.0633317
-0.0671835
-0.0692218
-0.0708726
-0.0722822
-0.0717044
-0.0746008
-0.0753597
-0.0758591
-0.0760464
-0.0757844
-0.0753109
-0.0755012
-0.0762574
-0.0763675
-0.076279
-0.0762255
-0.0763332
-0.0764583
-0.0765158
-0.0764882
-0.0763676
-0.0761274
-0.0757096
-0.0751731
-0.0745502
-0.0739648
-0.0734371
-0.0728868
-0.0722046
-0.0713525
-0.0703478
-0.0692708
-0.0674673
-0.0659985
-0.0644628
-0.0628017
-0.0609106
-0.058118
-0.0500717
-0.0491544
0
0
-0.000303553
0.000173895
-0.000214938
-0.00181068
-0.00471276
-0.0088119
-0.013706
-0.0192308
-0.0249259
-0.0301606
-0.0336365
-0.0289702
-0.0397743
-0.0449274
-0.0476855
-0.0497485
-0.0537333
-0.0586483
-0.0626064
-0.0656437
-0.0950981
-0.07153
-0.07314
-0.0747278
-0.0763725
-0.0773729
-0.0784602
-0.0793013
-0.0796831
-0.0792447
-0.0778496
-0.0778911
-0.0784678
-0.0789346
-0.0792083
-0.0793309
-0.0795222
-0.079614
-0.0795328
-0.0793339
-0.079039
-0.0786418
-0.0781426
-0.0775863
-0.0770151
-0.0764499
-0.0758331
-0.0751201
-0.0742866
-0.0733599
-0.0723095
-0.0710407
-0.0699711
-0.0690364
-0.0677986
-0.0662873
-0.0643236
-0.0613889
-0.0567434
-0.0515712
0
0
-0.00084001
-0.00137425
-0.00270521
-0.00512612
-0.00863265
-0.0131618
-0.0184616
-0.024196
-0.0298887
-0.0349468
-0.0386952
-0.0411499
-0.0461804
-0.0503694
-0.0527695
-0.0558691
-0.0596021
-0.0633458
-0.0667206
-0.0696932
-0.0727671
-0.074558
-0.0760975
-0.0774701
-0.0782208
-0.0803298
-0.0819612
-0.0832227
-0.0839321
-0.0838545
-0.0788965
-0.0801005
-0.08127
-0.0819645
-0.0823976
-0.0827012
-0.0826392
-0.0827989
-0.0826156
-0.0822893
-0.0818818
-0.0813952
-0.0808203
-0.0802352
-0.0796536
-0.0790538
-0.0783799
-0.0775743
-0.076637
-0.0757002
-0.0746384
-0.0735147
-0.0734596
-0.0724192
-0.0711471
-0.0696109
-0.0675417
-0.0645003
-0.0599978
-0.0542241
0
0
-0.00126602
-0.00258478
-0.00465135
-0.00903949
-0.0118403
-0.0168425
-0.0225303
-0.0285669
-0.0345108
-0.039919
-0.0445838
-0.0488665
-0.0532043
-0.0570853
-0.0578511
-0.0617825
-0.0655068
-0.0687537
-0.0717356
-0.0742756
-0.0763985
-0.07806
-0.0794932
-0.0808431
-0.0822431
-0.0840629
-0.0860127
-0.0876634
-0.088415
-0.0883252
0
-0.0836762
-0.0848056
-0.0853357
-0.0857234
-0.0860351
-0.0862334
-0.0860024
-0.0857465
-0.0853237
-0.084851
-0.0843609
-0.0836609
-0.0830341
-0.0824357
-0.081815
-0.0811136
-0.0802471
-0.0792197
-0.0784729
-0.0777029
-0.0769237
-0.0763745
-0.07549
-0.0743266
-0.072797
-0.07064
-0.0674361
-0.0627339
-0.0568329
0
0
-0.00161967
-0.00357838
-0.00628865
-0.00992237
-0.0145809
-0.020072
-0.0261879
-0.032617
-0.0389748
-0.0448744
-0.0502756
-0.0552141
-0.0598378
-0.0643629
0
-0.0681935
-0.0716827
-0.0744715
-0.0773286
-0.0793935
-0.0808775
-0.0821022
-0.0832753
-0.0845388
-0.0860624
-0.088037
-0.0905164
-0.0926763
-0.0929293
-0.0904681
-0.0864955
-0.0869221
-0.0877691
-0.0884628
-0.0889858
-0.089374
-0.0896092
-0.0895495
-0.0890884
-0.0884272
-0.0878645
-0.0877572
-0.0865723
-0.0859188
-0.0853339
-0.0847276
-0.084046
-0.0831479
-0.0819226
-0.0815755
-0.0810782
-0.0803453
-0.0795102
-0.0785789
-0.0774583
-0.0759358
-0.073704
-0.0703442
-0.0654296
-0.059339
0
0
-0.00192517
-0.00442381
-0.00767263
-0.0116433
-0.0170089
-0.023004
-0.0295783
-0.0364675
-0.0433248
-0.0475215
-0.0556618
-0.0609554
-0.0655735
-0.06927
-0.0708868
-0.0743512
-0.0773256
-0.0798929
-0.0834563
-0.0849413
-0.08571
-0.0864151
-0.0872506
-0.0883038
-0.089732
-0.0918508
-0.0951215
-0.0985281
-0.10078
-0.0946585
-0.0913427
-0.090767
-0.0911634
-0.0917481
-0.0923017
-0.0927887
-0.0931026
-0.0932737
-0.0925095
-0.0914314
-0.0903129
-0.0883675
-0.0889941
-0.0887777
-0.0883032
-0.087755
-0.0871568
-0.0863028
-0.0845504
-0.084986
-0.084641
-0.0837817
-0.0827546
-0.081792
-0.0806891
-0.0791536
-0.0768058
-0.0733003
-0.0681117
-0.0617223
0
0
-0.00220191
-0.00518824
-0.00903949
-0.0140407
-0.0194034
-0.0257632
-0.0327896
-0.0401663
-0.0475215
-0.0544714
-0.060827
-0.0664113
-0.0711704
-0.0750232
-0.0780396
-0.0808609
-0.0831595
-0.0851206
-0.0907773
-0.0906816
-0.090515
-0.0907492
-0.0912456
-0.0919644
-0.0930015
-0.0947218
-0.0981399
-0.066758
-0.12399
-0.0984798
-0.0939902
-0.0937347
-0.0942719
-0.0948922
-0.0955502
-0.0963493
-0.0974491
-0.097503
-0.0961365
-0.0945485
-0.093316
-0.0924297
-0.0921476
-0.091814
-0.0913361
-0.0908271
-0.0903403
-0.0897633
-0.0652986
-0.0888888
-0.0883752
-0.0872624
-0.0858352
-0.0851464
-0.0841097
-0.0826231
-0.0804143
-0.0764686
-0.0708106
-0.0639413
0
0
-0.00245463
-0.00583393
-0.0101377
-0.015407
-0.0214621
-0.0283375
-0.03586
-0.0437587
-0.0516497
-0.0591248
-0.0658622
-0.0717604
-0.0768085
-0.0810267
-0.0844998
-0.0872474
-0.0890918
-0.0898736
-0.191628
-0.0956529
-0.0950572
-0.0950981
-0.0952846
-0.0955022
-0.0956775
-0.0955084
-0.0935797
-0.0833376
-0.0379174
-0.078211
-0.0903051
-0.094528
-0.0963643
-0.097455
-0.0984211
-0.0996285
-0.101216
-0.102337
-0.100345
-0.0980103
-0.09659
-0.0958779
-0.0954382
-0.0949767
-0.0943877
-0.0938359
-0.0932556
-0.0926152
-0.0918776
-0.0926862
-0.0920516
-0.0910884
-0.0909065
-0.0890004
-0.087715
-0.0863284
-0.083941
-0.0799268
-0.0736327
-0.0659162
0
0
-0.00271992
-0.00636516
-0.0111328
-0.0168545
-0.0234312
-0.0307813
-0.0388048
-0.0472698
-0.055735
-0.0637235
-0.0708013
-0.0770335
-0.0824502
-0.0870641
-0.0908483
-0.0937575
-0.0958963
-0.097864
-0.101371
-0.101014
-0.100423
-0.0999769
-0.0996067
-0.099173
-0.0984297
-0.0968114
-0.0931242
-0.0862656
-0.0784138
-0.0862609
-0.0924429
-0.0961091
-0.0982406
-0.0996379
-0.100858
-0.102443
-0.104966
-0.108274
-0.107208
-0.102239
-0.0999069
-0.0990425
-0.0985566
-0.0980399
-0.0973225
-0.0967955
-0.0962033
-0.0956978
-0.0958813
-0.0972508
-0.0958657
-0.0945681
-0.0937245
-0.0926583
-0.0908451
-0.0905271
-0.0882605
-0.0842057
-0.0770274
-0.0675149
0
0
-0.00307
0.000173895
-0.0121453
-0.0183474
-0.0254008
-0.0330014
-0.0416296
-0.0507582
-0.0598577
-0.0683716
-0.0756167
-0.0821956
-0.0880599
-0.0931411
-0.0972704
-0.100353
-0.102599
-0.104444
-0.105782
-0.105906
-0.105459
-0.104805
-0.10405
-0.103142
-0.101896
-0.0999521
-0.0968735
-0.0941927
-0.0944091
-0.0959756
-0.0978819
-0.0995957
-0.100957
-0.102006
-0.102952
-0.104233
-0.106784
-0.113154
-0.128405
-0.106012
-0.101917
-0.101285
-0.101079
-0.100748
-0.0973225
-0.099697
-0.0991634
-0.0987359
-0.0992426
-0.10253
-0.0994899
-0.0979932
-0.0974774
-0.0976726
-0.100016
-0.09648
-0.0938577
-0.0902578
-0.0825911
-0.0685376
0
0
-0.00314989
-0.0075299
-0.0131041
-0.0198822
-0.0275142
-0.035693
-0.0447635
-0.0544424
-0.0641615
-0.0732196
-0.080137
-0.0872018
-0.0936533
-0.0993556
-0.103871
-0.106987
-0.109075
-0.110704
-0.111333
-0.111146
-0.110501
-0.109625
-0.108608
-0.107459
-0.106134
-0.104583
-0.102811
-0.100588
-0.103788
-0.103169
-0.103138
-0.103645
-0.104223
-0.104592
-0.10467
-0.104242
-0.102023
-0.0918268
-0.0463829
-0.0864966
-0.097749
-0.101415
-0.102596
-0.10286
-0.102694
-0.102473
-0.102126
-0.101728
-0.101882
-0.166703
-0.102379
-0.101482
-0.101487
-0.10179
-0.102053
-0.101173
-0.100717
-0.0988596
-0.0962754
-0.0936244
0
0
-0.00331323
-0.00811417
-0.0140584
-0.0216073
-0.0297987
-0.0372931
-0.0473624
-0.0579986
-0.0685787
-0.0784467
-0.0839069
-0.092151
-0.0993318
-0.105913
-0.110794
-0.113631
-0.115341
-0.117149
-0.117264
-0.116598
-0.115625
-0.114508
-0.113289
-0.112028
-0.110794
-0.109654
-0.108189
-0.105929
-0.184016
-0.108214
-0.107613
-0.107703
-0.107806
-0.107462
-0.106592
-0.104773
-0.101012
-0.0939678
-0.0856981
-0.0927388
-0.0991201
-0.102421
-0.104083
-0.104895
-0.10524
-0.105326
-0.105347
-0.105486
-0.106174
-0.107986
-0.106419
-0.105697
-0.105692
-0.105937
-0.106089
-0.106171
-0.105959
-0.104595
-0.101148
-0.0946383
0
0
-0.00351078
-0.00865958
-0.0148276
-0.0350704
-0.0323474
0
-0.0502881
-0.0617137
-0.0731217
-0.0842446
-0.0190787
-0.0977164
-0.10512
-0.11324
-0.118026
-0.120046
-0.12114
-0.124038
-0.12319
-0.121977
-0.12074
-0.119433
-0.118034
-0.116671
-0.115513
-0.114961
-0.115501
-0.112672
-0.113966
-0.112953
-0.112335
-0.112114
-0.111881
-0.110918
-0.109366
-0.107204
-0.104316
-0.101263
-0.100241
-0.101519
-0.103585
-0.105251
-0.106465
-0.107406
-0.108017
-0.108318
-0.108629
-0.109011
-0.109468
-0.109781
-0.109519
-0.109468
-0.109774
-0.11017
-0.110377
-0.110509
-0.109967
-0.108046
-0.103715
-0.0963648
0
0
-0.003729
-0.00926149
-0.0159801
-0.0243003
-0.0332627
-0.0420528
-0.0532221
-0.0651026
-0.0769439
-0.0875368
-0.0947358
-0.1031
-0.110147
-0.122586
-0.124337
-0.125555
-0.126169
-0.183413
-0.128533
-0.127164
-0.125874
-0.12444
-0.122782
-0.121204
-0.119712
-0.117773
-0.111803
-0.11568
-0.116686
-0.116623
-0.116431
-0.116438
-0.116416
-0.115068
-0.113061
-0.111017
-0.109105
-0.107798
-0.107631
-0.107944
-0.108484
-0.109015
-0.109335
-0.11047
-0.111175
-0.111457
-0.111925
-0.112368
-0.112632
-0.112554
-0.112432
-0.11287
-0.113635
-0.114288
-0.114368
-0.114302
-0.113206
-0.110592
-0.105978
-0.0984614
0
0
-0.00394518
-0.00983572
-0.0169427
-0.025339
-0.0347031
-0.0448571
-0.056268
-0.0686606
-0.0811912
-0.0925726
-0.101227
-0.109293
-0.116199
-0.2462
-0.129729
-0.131333
-0.133002
-0.134926
-0.134168
-0.132865
-0.131365
-0.129668
-0.127502
-0.125698
-0.124089
-0.122325
-0.12051
-0.12048
-0.120369
-0.120197
-0.120177
-0.120592
-0.121504
-0.120594
-0.117486
-0.115463
-0.113906
-0.1131
-0.112885
-0.112897
-0.113005
-0.113323
-0.114742
-0.114245
-0.114655
-0.114752
-0.115333
-0.115782
-0.115945
-0.115561
-0.115102
-0.116131
-0.117347
-0.118232
-0.118147
-0.1179
-0.116122
-0.112651
-0.108265
-0.100787
0
0
-0.00415894
-0.0103988
-0.0178794
-0.0266169
-0.0364633
-0.0472412
-0.0589251
-0.0721915
-0.085815
-0.099786
-0.107067
-0.115906
-0.124242
-0.132992
-0.13627
-0.138291
-0.13976
-0.14036
-0.139762
-0.1385
-0.136928
-0.13505
-0.131969
-0.130195
-0.128788
-0.12739
-0.126188
-0.125189
-0.124332
-0.123774
-0.123526
-0.123957
-0.126226
-0.132037
-0.121709
-0.120251
-0.117978
-0.117377
-0.117155
-0.117062
-0.116976
-0.116911
-0.117219
-0.117384
-0.117574
-0.118625
-0.118999
-0.119329
-0.119445
-0.118561
-0.116816
-0.119833
-0.121003
-0.121428
-0.122505
-0.121696
-0.119027
-0.114062
-0.110674
-0.103283
0
0
-0.00437753
-0.0109818
-0.0188767
-0.0280842
-0.0384789
-0.0496617
-0.0605324
-0.0753449
-0.0878226
-0.0944339
-0.110481
-0.121766
-0.130749
-0.137731
-0.142144
-0.144691
-0.146214
-0.146427
-0.145558
-0.144166
-0.14256
-0.14069
-0.135783
-0.134782
-0.13371
-0.132352
-0.130956
-0.129199
-0.128271
-0.127144
-0.126024
-0.124569
-0.119869
-0.097145
-0.114413
-0.115508
-0.119534
-0.120453
-0.120671
-0.120688
-0.120493
-0.119989
-0.120168
-0.120652
-0.121181
-0.121842
-0.122334
-0.122783
-0.123122
-0.122057
-0.118031
-0.123722
-0.124884
-0.125388
-0.125852
-0.125294
-0.122223
-0.114423
-0.113517
-0.105891
0
0
-0.00460473
-0.0115976
-0.019958
-0.0297483
-0.0409588
-0.053681
-0.0697432
-0.080342
-0.0923661
-0.104144
-0.116935
-0.128042
-0.137039
-0.14381
-0.148486
-0.151389
-0.152973
-0.152513
-0.151366
-0.149785
-0.148146
-0.146678
-0.0747278
-0.140024
-0.138796
-0.137099
-0.135433
-0.125189
-0.131977
-0.130317
-0.127994
-0.126344
-0.122415
-0.117488
-0.119558
-0.120996
-0.12253
-0.123392
-0.123844
-0.124048
-0.123808
-0.122608
-0.123156
-0.123967
-0.124616
-0.125126
-0.125561
-0.125975
-0.126371
-0.126652
-0.0386151
-0.146074
-0.12849
-0.128836
-0.129133
-0.128867
-0.12645
-0.026028
-0.117403
-0.10851
0
0
-0.00483676
-0.0122332
-0.0210879
-0.0314916
-0.0434368
-0.0568547
-0.0712889
-0.0838343
-0.097337
-0.110917
-0.123692
-0.134755
-0.14372
-0.15049
-0.155234
-0.15809
-0.15907
-0.158526
-0.157102
-0.155215
-0.153121
-0.15054
-0.146697
-0.144906
-0.143228
-0.141229
-0.139274
-0.137319
-0.135787
-0.134438
-0.134529
-0.130644
-0.127794
-0.126144
-0.12576
-0.125963
-0.126369
-0.126775
-0.127148
-0.127456
-0.127243
-0.124613
-0.126264
-0.127383
-0.127982
-0.128362
-0.128676
-0.128954
-0.129102
-0.128745
-0.127071
-0.130165
-0.131269
-0.131812
-0.131952
-0.13131
-0.128827
-0.123139
-0.119337
-0.111028
0
0
-0.00506235
-0.0128566
-0.0222206
-0.0332626
-0.0459132
-0.060011
-0.0749759
-0.0868607
-0.102228
-0.117092
-0.130382
-0.141656
-0.150686
-0.15746
-0.162196
-0.164891
-0.165341
-0.164418
-0.162673
-0.160497
-0.158206
-0.155528
-0.152437
-0.150107
-0.147827
-0.145208
-0.143075
-0.141219
-0.139575
-0.138079
-0.136615
-0.134501
-0.132644
-0.131431
-0.130679
-0.130315
-0.130207
-0.130279
-0.130498
-0.130851
-0.131025
-0.0786418
-0.129953
-0.130861
-0.131228
-0.131463
-0.131667
-0.131851
-0.131975
-0.132023
-0.132249
-0.133228
-0.134122
-0.134699
-0.134828
-0.134246
-0.132364
-0.128717
-0.122617
-0.113629
0
0
-0.00525939
-0.0134115
-0.0233104
-0.0350704
-0.0484643
-0.0634101
-0.0798634
-0.021066
-0.10793
-0.123541
-0.137203
-0.148674
-0.157811
-0.164546
-0.169251
-0.171881
-0.171584
-0.170214
-0.168149
-0.165725
-0.163525
-0.160582
-0.157497
-0.154639
-0.15202
-0.148927
-0.146842
-0.144986
-0.143233
-0.141554
-0.139864
-0.138191
-0.136712
-0.135542
-0.134666
-0.134078
-0.133741
-0.13361
-0.133621
-0.133639
-0.133302
-0.131979
-0.132987
-0.13374
-0.134158
-0.134383
-0.134553
-0.13473
-0.134944
-0.135295
-0.135875
-0.136558
-0.137268
-0.137822
-0.138025
-0.137719
-0.136717
-0.132825
-0.125992
-0.116362
0
0
-0.00538492
-0.0137852
-0.024345
-0.0369749
-0.0510519
-0.0664307
-0.0824437
-0.0969665
-0.113799
-0.129744
-0.143856
-0.155718
-0.165052
-0.171745
-0.175983
-0.179072
-0.177543
-0.175968
-0.173676
-0.170963
-0.169162
-0.165558
-0.161995
-0.158597
-0.154907
-0.153087
-0.150828
-0.148717
-0.146787
-0.144984
-0.143277
-0.141699
-0.140285
-0.139056
-0.138075
-0.137376
-0.136936
-0.136702
-0.136599
-0.136509
-0.136319
-0.136125
-0.136414
-0.136825
-0.137117
-0.137245
-0.137366
-0.137541
-0.1378
-0.138294
-0.139014
-0.139792
-0.140544
-0.141151
-0.141388
-0.141071
-0.139765
-0.136252
-0.129198
-0.119192
0
0
-0.00537611
-0.0137009
-0.0257004
-0.0390077
-0.0538421
-0.0698737
-0.0865789
-0.103374
-0.120389
-0.136537
-0.15096
-0.16309
-0.172638
-0.179651
-0.185449
-0.186644
-0.183413
-0.18204
-0.179798
-0.176303
-0.202906
-0.170034
-0.166184
-0.162615
-0.158731
-0.156225
-0.154067
-0.152028
-0.150084
-0.148249
-0.146537
-0.144959
-0.143498
-0.142135
-0.141045
-0.140291
-0.139827
-0.139575
-0.139474
-0.139432
-0.139408
-0.139426
-0.13966
-0.139995
-0.140161
-0.14009
-0.140116
-0.140255
-0.140459
-0.141053
-0.141969
-0.142948
-0.143856
-0.144578
-0.144779
-0.144335
-0.14296
-0.139508
-0.132371
-0.122078
0
0
-0.00538104
-0.0119822
-0.0272839
-0.041793
-0.0573505
-0.074092
-0.0916833
-0.109582
-0.127189
-0.143736
-0.158467
-0.170798
-0.180391
-0.187085
-0.190421
-0.189321
-0.192452
-0.190205
-0.186467
-0.182374
-0.178749
-0.174341
-0.170291
-0.166599
-0.161642
-0.159315
-0.157239
-0.155175
-0.15318
-0.151302
-0.149567
-0.147959
-0.146404
-0.144797
-0.143601
-0.142864
-0.142444
-0.14223
-0.142194
-0.142248
-0.142339
-0.142341
-0.142707
-0.143184
-0.143271
-0.142867
-0.142809
-0.142905
-0.142901
-0.143621
-0.144842
-0.146074
-0.147169
-0.148063
-0.148144
-0.147555
-0.146136
-0.142554
-0.135618
-0.125019
0
0
-0.00752286
-0.0224115
-0.0318814
-0.0455297
-0.0615025
-0.0789357
-0.0974232
-0.116143
-0.13433
-0.151329
-0.166367
-0.178837
-0.188387
-0.194843
-0.197793
-0.198447
-0.198157