# vtk DataFile Version 2.0
FlowField
ASCII
DATASET STRUCTURED_GRID
DIMENSIONS 62 47 32 
POINTS 93248 double
0 0 0
0.01 0 0
0.02 0 0
0.03 0 0
0.04 0 0
0.05 0 0
0.06 0 0
0.07 0 0
0.08 0 0
0.09 0 0
0.1 0 0
0.11 0 0
0.12 0 0
0.13 0 0
0.14 0 0
0.15 0 0
0.16 0 0
0.17 0 0
0.18 0 0
0.19 0 0
0.2 0 0
0.21 0 0
0.22 0 0
0.23 0 0
0.24 0 0
0.25 0 0
0.26 0 0
0.27 0 0
0.28 0 0
0.29 0 0
0.3 0 0
0.31 0 0
0.32 0 0
0.33 0 0
0.34 0 0
0.35 0 0
0.36 0 0
0.37 0 0
0.38 0 0
0.39 0 0
0.4 0 0
0.41 0 0
0.42 0 0
0.43 0 0
0.44 0 0
0.45 0 0
0.46 0 0
0.47 0 0
0.48 0 0
0.49 0 0
0.5 0 0
0.51 0 0
0.52 0 0
0.53 0 0
0.54 0 0
0.55 0 0
0.56 0 0
0.57 0 0
0.58 0 0
0.59 0 0
0.6 0 0
0.61 0 0
0 0.01 0
0.01 0.01 0
0.02 0.01 0
0.03 0.01 0
0.04 0.01 0
0.05 0.01 0
0.06 0.01 0
0.07 0.01 0
0.08 0.01 0
0.09 0.01 0
0.1 0.01 0
0.11 0.01 0
0.12 0.01 0
0.13 0.01 0
0.14 0.01 0
0.15 0.01 0
0.16 0.01 0
0.17 0.01 0
0.18 0.01 0
0.19 0.01 0
0.2 0.01 0
0.21 0.01 0
0.22 0.01 0
0.23 0.01 0
0.24 0.01 0
0.25 0.01 0
0.26 0.01 0
0.27 0.01 0
0.28 0.01 0
0.29 0.01 0
0.3 0.01 0
0.31 0.01 0
0.32 0.01 0
0.33 0.01 0
0.34 0.01 0
0.35 0.01 0
0.36 0.01 0
0.37 0.01 0
0.38 0.01 0
0.39 0.01 0
0.4 0.01 0
0.41 0.01 0
0.42 0.01 0
0.43 0.01 0
0.44 0.01 0
0.45 0.01 0
0.46 0.01 0
0.47 0.01 0
0.48 0.01 0
0.49 0.01 0
0.5 0.01 0
0.51 0.01 0
0.52 0.01 0
0.53 0.01 0
0.54 0.01 0
0.55 0.01 0
0.56 0.01 0
0.57 0.01 0
0.58 0.01 0
0.59 0.01 0
0.6 0.01 0
0.61 0.01 0
0 0.02 0
0.01 0.02 0
0.02 0.02 0
0.03 0.02 0
0.04 0.02 0
0.05 0.02 0
0.06 0.02 0
0.07 0.02 0
0.08 0.02 0
0.09 0.02 0
0.1 0.02 0
0.11 0.02 0
0.12 0.02 0
0.13 0.02 0
0.14 0.02 0
0.15 0.02 0
0.16 0.02 0
0.17 0.02 0
0.18 0.02 0
0.19 0.02 0
0.2 0.02 0
0.21 0.02 0
0.22 0.02 0
0.23 0.02 0
0.24 0.02 0
0.25 0.02 0
0.26 0.02 0
0.27 0.02 0
0.28 0.02 0
0.29 0.02 0
0.3 0.02 0
0.31 0.02 0
0.32 0.02 0
0.33 0.02 0
0.34 0.02 0
0.35 0.02 0
0.36 0.02 0
0.37 0.02 0
0.38 0.02 0
0.39 0.02 0
0.4 0.02 0
0.41 0.02 0
0.42 0.02 0
0.43 0.02 0
0.44 0.02 0
0.45 0.02 0
0.46 0.02 0
0.47 0.02 0
0.48 0.02 0
0.49 0.02 0
0.5 0.02 0
0.51 0.02 0
0.52 0.02 0
0.53 0.02 0
0.54 0.02 0
0.55 0.02 0
0.56 0.02 0
0.57 0.02 0
0.58 0.02 0
0.59 0.02 0
0.6 0.02 0
0.61 0.02 0
0 0.03 0
0.01 0.03 0
0.02 0.03 0
0.03 0.03 0
0.04 0.03 0
0.05 0.03 0
0.06 0.03 0
0.07 0.03 0
0.08 0.03 0
0.09 0.03 0
0.1 0.03 0
0.11 0.03 0
0.12 0.03 0
0.13 0.03 0
0.14 0.03 0
0.15 0.03 0
0.16 0.03 0
0.17 0.03 0
0.18 0.03 0
0.19 0.03 0
0.2 0.03 0
0.21 0.03 0
0.22 0.03 0
0.23 0.03 0
0.24 0.03 0
0.25 0.03 0
0.26 0.03 0
0.27 0.03 0
0.28 0.03 0
0.29 0.03 0
0.3 0.03 0
0.31 0.03 0
0.32 0.03 0
0.33 0.03 0
0.34 0.03 0
0.35 0.03 0
0.36 0.03 0
0.37 0.03 0
0.38 0.03 0
0.39 0.03 0
0.4 0.03 0
0.41 0.03 0
0.42 0.03 0
0.43 0.03 0
0.44 0.03 0
0.45 0.03 0
0.46 0.03 0
0.47 0.03 0
0.48 0.03 0
0.49 0.03 0
0.5 0.03 0
0.51 0.03 0
0.52 0.03 0
0.53 0.03 0
0.54 0.03 0
0.55 0.03 0
0.56 0.03 0
0.57 0.03 0
0.58 0.03 0
0.59 0.03 0
0.6 0.03 0
0.61 0.03 0
0 0.04 0
0.01 0.04 0
0.02 0.04 0
0.03 0.04 0
0.04 0.04 0
0.05 0.04 0
0.06 0.04 0
0.07 0.04 0
0.08 0.04 0
0.09 0.04 0
0.1 0.04 0
0.11 0.04 0
0.12 0.04 0
0.13 0.04 0
0.14 0.04 0
0.15 0.04 0
0.16 0.04 0
0.17 0.04 0
0.18 0.04 0
0.19 0.04 0
0.2 0.04 0
0.21 0.04 0
0.22 0.04 0
0.23 0.04 0
0.24 0.04 0
0.25 0.04 0
0.26 0.04 0
0.27 0.04 0
0.28 0.04 0
0.29 0.04 0
0.3 0.04 0
0.31 0.04 0
0.32 0.04 0
0.33 0.04 0
0.34 0.04 0
0.35 0.04 0
0.36 0.04 0
0.37 0.04 0
0.38 0.04 0
0.39 0.04 0
0.4 0.04 0
0.41 0.04 0
0.42 0.04 0
0.43 0.04 0
0.44 0.04 0
0.45 0.04 0
0.46 0.04 0
0.47 0.04 0
0.48 0.04 0
0.49 0.04 0
0.5 0.04 0
0.51 0.04 0
0.52 0.04 0
0.53 0.04 0
0.54 0.04 0
0.55 0.04 0
0.56 0.04 0
0.57 0.04 0
0.58 0.04 0
0.59 0.04 0
0.6 0.04 0
0.61 0.04 0
0 0.05 0
0.01 0.05 0
0.02 0.05 0
0.03 0.05 0
0.04 0.05 0
0.05 0.05 0
0.06 0.05 0
0.07 0.05 0
0.08 0.05 0
0.09 0.05 0
0.1 0.05 0
0.11 0.05 0
0.12 0.05 0
0.13 0.05 0
0.14 0.05 0
0.15 0.05 0
0.16 0.05 0
0.17 0.05 0
0.18 0.05 0
0.19 0.05 0
0.2 0.05 0
0.21 0.05 0
0.22 0.05 0
0.23 0.05 0
0.24 0.05 0
0.25 0.05 0
0.26 0.05 0
0.27 0.05 0
0.28 0.05 0
0.29 0.05 0
0.3 0.05 0
0.31 0.05 0
0.32 0.05 0
0.33 0.05 0
0.34 0.05 0
0.35 0.05 0
0.36 0.05 0
0.37 0.05 0
0.38 0.05 0
0.39 0.05 0
0.4 0.05 0
0.41 0.05 0
0.42 0.05 0
0.43 0.05 0
0.44 0.05 0
0.45 0.05 0
0.46 0.05 0
0.47 0.05 0
0.48 0.05 0
0.49 0.05 0
0.5 0.05 0
0.51 0.05 0
0.52 0.05 0
0.53 0.05 0
0.54 0.05 0
0.55 0.05 0
0.56 0.05 0
0.57 0.05 0
0.58 0.05 0
0.59 0.05 0
0.6 0.05 0
0.61 0.05 0
0 0.06 0
0.01 0.06 0
0.02 0.06 0
0.03 0.06 0
0.04 0.06 0
0.05 0.06 0
0.06 0.06 0
0.07 0.06 0
0.08 0.06 0
0.09 0.06 0
0.1 0.06 0
0.11 0.06 0
0.12 0.06 0
0.13 0.06 0
0.14 0.06 0
0.15 0.06 0
0.16 0.06 0
0.17 0.06 0
0.18 0.06 0
0.19 0.06 0
0.2 0.06 0
0.21 0.06 0
0.22 0.06 0
0.23 0.06 0
0.24 0.06 0
0.25 0.06 0
0.26 0.06 0
0.27 0.06 0
0.28 0.06 0
0.29 0.06 0
0.3 0.06 0
0.31 0.06 0
0.32 0.06 0
0.33 0.06 0
0.34 0.06 0
0.35 0.06 0
0.36 0.06 0
0.37 0.06 0
0.38 0.06 0
0.39 0.06 0
0.4 0.06 0
0.41 0.06 0
0.42 0.06 0
0.43 0.06 0
0.44 0.06 0
0.45 0.06 0
0.46 0.06 0
0.47 0.06 0
0.48 0.06 0
0.49 0.06 0
0.5 0.06 0
0.51 0.06 0
0.52 0.06 0
0.53 0.06 0
0.54 0.06 0
0.55 0.06 0
0.56 0.06 0
0.57 0.06 0
0.58 0.06 0
0.59 0.06 0
0.6 0.06 0
0.61 0.06 0
0 0.07 0
0.01 0.07 0
0.02 0.07 0
0.03 0.07 0
0.04 0.07 0
0.05 0.07 0
0.06 0.07 0
0.07 0.07 0
0.08 0.07 0
0.09 0.07 0
0.1 0.07 0
0.11 0.07 0
0.12 0.07 0
0.13 0.07 0
0.14 0.07 0
0.15 0.07 0
0.16 0.07 0
0.17 0.07 0
0.18 0.07 0
0.19 0.07 0
0.2 0.07 0
0.21 0.07 0
0.22 0.07 0
0.23 0.07 0
0.24 0.07 0
0.25 0.07 0
0.26 0.07 0
0.27 0.07 0
0.28 0.07 0
0.29 0.07 0
0.3 0.07 0
0.31 0.07 0
0.32 0.07 0
0.33 0.07 0
0.34 0.07 0
0.35 0.07 0
0.36 0.07 0
0.37 0.07 0
0.38 0.07 0
0.39 0.07 0
0.4 0.07 0
0.41 0.07 0
0.42 0.07 0
0.43 0.07 0
0.44 0.07 0
0.45 0.07 0
0.46 0.07 0
0.47 0.07 0
0.48 0.07 0
0.49 0.07 0
0.5 0.07 0
0.51 0.07 0
0.52 0.07 0
0.53 0.07 0
0.54 0.07 0
0.55 0.07 0
0.56 0.07 0
0.57 0.07 0
0.58 0.07 0
0.59 0.07 0
0.6 0.07 0
0.61 0.07 0
0 0.08 0
0.01 0.08 0
0.02 0.08 0
0.03 0.08 0
0.04 0.08 0
0.05 0.08 0
0.06 0.08 0
0.07 0.08 0
0.08 0.08 0
0.09 0.08 0
0.1 0.08 0
0.11 0.08 0
0.12 0.08 0
0.13 0.08 0
0.14 0.08 0
0.15 0.08 0
0.16 0.08 0
0.17 0.08 0
0.18 0.08 0
0.19 0.08 0
0.2 0.08 0
0.21 0.08 0
0.22 0.08 0
0.23 0.08 0
0.24 0.08 0
0.25 0.08 0
0.26 0.08 0
0.27 0.08 0
0.28 0.08 0
0.29 0.08 0
0.3 0.08 0
0.31 0.08 0
0.32 0.08 0
0.33 0.08 0
0.34 0.08 0
0.35 0.08 0
0.36 0.08 0
0.37 0.08 0
0.38 0.08 0
0.39 0.08 0
0.4 0.08 0
0.41 0.08 0
0.42 0.08 0
0.43 0.08 0
0.44 0.08 0
0.45 0.08 0
0.46 0.08 0
0.47 0.08 0
0.48 0.08 0
0.49 0.08 0
0.5 0.08 0
0.51 0.08 0
0.52 0.08 0
0.53 0.08 0
0.54 0.08 0
0.55 0.08 0
0.56 0.08 0
0.57 0.08 0
0.58 0.08 0
0.59 0.08 0
0.6 0.08 0
0.61 0.08 0
0 0.09 0
0.01 0.09 0
0.02 0.09 0
0.03 0.09 0
0.04 0.09 0
0.05 0.09 0
0.06 0.09 0
0.07 0.09 0
0.08 0.09 0
0.09 0.09 0
0.1 0.09 0
0.11 0.09 0
0.12 0.09 0
0.13 0.09 0
0.14 0.09 0
0.15 0.09 0
0.16 0.09 0
0.17 0.09 0
0.18 0.09 0
0.19 0.09 0
0.2 0.09 0
0.21 0.09 0
0.22 0.09 0
0.23 0.09 0
0.24 0.09 0
0.25 0.09 0
0.26 0.09 0
0.27 0.09 0
0.28 0.09 0
0.29 0.09 0
0.3 0.09 0
0.31 0.09 0
0.32 0.09 0
0.33 0.09 0
0.34 0.09 0
0.35 0.09 0
0.36 0.09 0
0.37 0.09 0
0.38 0.09 0
0.39 0.09 0
0.4 0.09 0
0.41 0.09 0
0.42 0.09 0
0.43 0.09 0
0.44 0.09 0
0.45 0.09 0
0.46 0.09 0
0.47 0.09 0
0.48 0.09 0
0.49 0.09 0
0.5 0.09 0
0.51 0.09 0
0.52 0.09 0
0.53 0.09 0
0.54 0.09 0
0.55 0.09 0
0.56 0.09 0
0.57 0.09 0
0.58 0.09 0
0.59 0.09 0
0.6 0.09 0
0.61 0.09 0
0 0.1 0
0.01 0.1 0
0.02 0.1 0
0.03 0.1 0
0.04 0.1 0
0.05 0.1 0
0.06 0.1 0
0.07 0.1 0
0.08 0.1 0
0.09 0.1 0
0.1 0.1 0
0.11 0.1 0
0.12 0.1 0
0.13 0.1 0
0.14 0.1 0
0.15 0.1 0
0.16 0.1 0
0.17 0.1 0
0.18 0.1 0
0.19 0.1 0
0.2 0.1 0
0.21 0.1 0
0.22 0.1 0
0.23 0.1 0
0.24 0.1 0
0.25 0.1 0
0.26 0.1 0
0.27 0.1 0
0.28 0.1 0
0.29 0.1 0
0.3 0.1 0
0.31 0.1 0
0.32 0.1 0
0.33 0.1 0
0.34 0.1 0
0.35 0.1 0
0.36 0.1 0
0.37 0.1 0
0.38 0.1 0
0.39 0.1 0
0.4 0.1 0
0.41 0.1 0
0.42 0.1 0
0.43 0.1 0
0.44 0.1 0
0.45 0.1 0
0.46 0.1 0
0.47 0.1 0
0.48 0.1 0
0.49 0.1 0
0.5 0.1 0
0.51 0.1 0
0.52 0.1 0
0.53 0.1 0
0.54 0.1 0
0.55 0.1 0
0.56 0.1 0
0.57 0.1 0
0.58 0.1 0
0.59 0.1 0
0.6 0.1 0
0.61 0.1 0
0 0.11 0
0.01 0.11 0
0.02 0.11 0
0.03 0.11 0
0.04 0.11 0
0.05 0.11 0
0.06 0.11 0
0.07 0.11 0
0.08 0.11 0
0.09 0.11 0
0.1 0.11 0
0.11 0.11 0
0.12 0.11 0
0.13 0.11 0
0.14 0.11 0
0.15 0.11 0
0.16 0.11 0
0.17 0.11 0
0.18 0.11 0
0.19 0.11 0
0.2 0.11 0
0.21 0.11 0
0.22 0.11 0
0.23 0.11 0
0.24 0.11 0
0.25 0.11 0
0.26 0.11 0
0.27 0.11 0
0.28 0.11 0
0.29 0.11 0
0.3 0.11 0
0.31 0.11 0
0.32 0.11 0
0.33 0.11 0
0.34 0.11 0
0.35 0.11 0
0.36 0.11 0
0.37 0.11 0
0.38 0.11 0
0.39 0.11 0
0.4 0.11 0
0.41 0.11 0
0.42 0.11 0
0.43 0.11 0
0.44 0.11 0
0.45 0.11 0
0.46 0.11 0
0.47 0.11 0
0.48 0.11 0
0.49 0.11 0
0.5 0.11 0
0.51 0.11 0
0.52 0.11 0
0.53 0.11 0
0.54 0.11 0
0.55 0.11 0
0.56 0.11 0
0.57 0.11 0
0.58 0.11 0
0.59 0.11 0
0.6 0.11 0
0.61 0.11 0
0 0.12 0
0.01 0.12 0
0.02 0.12 0
0.03 0.12 0
0.04 0.12 0
0.05 0.12 0
0.06 0.12 0
0.07 0.12 0
0.08 0.12 0
0.09 0.12 0
0.1 0.12 0
0.11 0.12 0
0.12 0.12 0
0.13 0.12 0
0.14 0.12 0
0.15 0.12 0
0.16 0.12 0
0.17 0.12 0
0.18 0.12 0
0.19 0.12 0
0.2 0.12 0
0.21 0.12 0
0.22 0.12 0
0.23 0.12 0
0.24 0.12 0
0.25 0.12 0
0.26 0.12 0
0.27 0.12 0
0.28 0.12 0
0.29 0.12 0
0.3 0.12 0
0.31 0.12 0
0.32 0.12 0
0.33 0.12 0
0.34 0.12 0
0.35 0.12 0
0.36 0.12 0
0.37 0.12 0
0.38 0.12 0
0.39 0.12 0
0.4 0.12 0
0.41 0.12 0
0.42 0.12 0
0.43 0.12 0
0.44 0.12 0
0.45 0.12 0
0.46 0.12 0
0.47 0.12 0
0.48 0.12 0
0.49 0.12 0
0.5 0.12 0
0.51 0.12 0
0.52 0.12 0
0.53 0.12 0
0.54 0.12 0
0.55 0.12 0
0.56 0.12 0
0.57 0.12 0
0.58 0.12 0
0.59 0.12 0
0.6 0.12 0
0.61 0.12 0
0 0.13 0
0.01 0.13 0
0.02 0.13 0
0.03 0.13 0
0.04 0.13 0
0.05 0.13 0
0.06 0.13 0
0.07 0.13 0
0.08 0.13 0
0.09 0.13 0
0.1 0.13 0
0.11 0.13 0
0.12 0.13 0
0.13 0.13 0
0.14 0.13 0
0.15 0.13 0
0.16 0.13 0
0.17 0.13 0
0.18 0.13 0
0.19 0.13 0
0.2 0.13 0
0.21 0.13 0
0.22 0.13 0
0.23 0.13 0
0.24 0.13 0
0.25 0.13 0
0.26 0.13 0
0.27 0.13 0
0.28 0.13 0
0.29 0.13 0
0.3 0.13 0
0.31 0.13 0
0.32 0.13 0
0.33 0.13 0
0.34 0.13 0
0.35 0.13 0
0.36 0.13 0
0.37 0.13 0
0.38 0.13 0
0.39 0.13 0
0.4 0.13 0
0.41 0.13 0
0.42 0.13 0
0.43 0.13 0
0.44 0.13 0
0.45 0.13 0
0.46 0.13 0
0.47 0.13 0
0.48 0.13 0
[...]
POINT_DATA 93248

SCALARS v double
LOOKUP_TABLE default
0
0
0
0
0
0
0
0
0
0
0
0
0
0
0
0
0
0
0
0
0
0
0
0
0
0
0
0
0
0
0
0
0
0
0
0
0
0
-0.0630832
0
0
0
0
0
-0.0667558
0
0
0
0
0
0
0
0
0
0
0
0
0
0
0
0
0
0
0.0461115
-0.06379
0.0496893
0.0363857
0.0206784
0
-0.0024854
-0.0109532
-0.0168303
-0.0206434
-0.0231524
-0.0257764
-0.0253927
-0.0250817
-0.0247908
-0.024801
-0.0243463
-0.0238868
-0.0225718
-0.0285855
-0.0258007
-0.0233461
-0.0243593
-0.0245654
-0.0246597
-0.0247189
-0.0247475
-0.0247475
-0.0247159
-0.0246529
-0.024681
-0.0255245
-0.0247168
-0.0240808
-0.0243575
-0.0425886
-0.0238556
-0.0241505
-0.0197406
-0.026301
-0.0398021
-0.026964
-0.0271044
-0.0286141
-0.0364892
-0.0775507
-0.0259099
-0.033501
-0.0243878
-0.0242551
-0.0241829
-0.0261704
-0.0285797
-0.0415429
-0.0275829
-0.055123
-0.0251858
-0.0226762
-0.0199552
-0.0157912
0
0
0.027291
0.0524984
0.0604282
0.0562569
0.0411568
0.0322406
0.0195806
0.00617629
-0.00660952
-0.0164993
-0.0236118
-0.0802392
-0.0311427
-0.0314394
-0.0257738
-0.0318663
-0.0309978
-0.0320325
-0.0344067
-0.0896772
-0.0315875
-0.0327118
-0.0317297
-0.0317141
-0.0318685
-0.0320031
-0.0320826
-0.0321043
-0.0320605
-0.0319198
-0.0317765
-0.0601049
-0.0321466
-0.0308703
-0.0317759
-0.0309367
-0.0284294
-0.0255459
-0.0326477
-0.0358248
-0.0370013
-0.0361782
-0.0365191
-0.0366247
-0.0376208
-0.0377581
-0.0345079
-0.033501
-0.0319945
-0.0320696
-0.0328072
-0.0336327
-0.0350354
-0.0367757
-0.0339264
-0.0326171
-0.0631938
-0.0277361
-0.024422
-0.0206759
0
0
0.0143498
0.0360062
0.0464264
0.0530511
0.0537591
0.0423187
0.0305453
0.0175349
0.0041493
-0.00848891
-0.0179198
-0.0259061
-0.0295166
-0.0314955
-0.032678
-0.0339201
0
-0.0339692
-0.0352851
-0.0357914
-0.034677
-0.0345051
-0.0343371
-0.0344178
-0.034588
-0.034748
-0.0348606
-0.0349179
-0.0349238
-0.0349075
-0.0350291
-0.0358574
-0.0355087
-0.0356783
-0.0334676
-0.0326873
-0.0315944
-0.0313062
-0.0350279
-0.0378044
-0.0393736
-0.040001
-0.0389929
-0.0392751
-0.0397304
-0.0367663
-0.0358751
-0.0352104
-0.0359093
-0.0356894
-0.0357386
-0.0359814
-0.0363183
-0.0363026
-0.0351544
-0.0340137
-0.0329872
-0.0296331
-0.0267451
-0.0243139
0
0
0.0084946
0.0240226
0.0369471
0.0407589
0.0417546
0.0373373
0.0299717
0.0202584
0.00924958
-0.00199104
-0.0119021
-0.0199293
-0.0252701
-0.0286844
-0.0310707
-0.0325849
-0.0325945
-0.0337188
-0.0347589
-0.0348308
-0.0348567
-0.0349774
-0.0351311
-0.0353325
-0.0355451
-0.0357304
-0.0358728
-0.0359656
-0.0360129
-0.036043
-0.0361411
-0.0364668
-0.0369402
-0.0366094
-0.0353218
-0.0344744
-0.0339908
-0.0341898
-0.0361778
-0.0380061
-0.0392683
-0.039891
-0.0397506
-0.0397473
-0.0392644
-0.0363294
-0.0366429
-0.0366551
-0.0369201
-0.0368398
-0.0367002
-0.0365274
-0.0362525
-0.0357289
-0.0348432
-0.0337041
-0.0322169
-0.0299
-0.0277181
-0.0272269
0
0
0.00539509
0.0153043
0.0233858
0.0276985
0.0293518
0.0281133
0.024131
0.0175817
0.00964112
0.000672221
-0.00815416
-0.0157865
-0.0216109
-0.0258433
-0.0288438
-0.0311679
-0.0320843
-0.0331097
-0.0336448
-0.0341571
-0.034636
-0.0350688
-0.0354462
-0.0357788
-0.0360658
-0.0362949
-0.0364777
-0.0366066
-0.036675
-0.0366867
-0.0366695
-0.0368154
-0.0384419
-0.0375186
-0.0365367
-0.0359493
-0.0358079
-0.0362009
-0.0371874
-0.0382322
-0.0390517
-0.0395438
-0.0397352
-0.0398333
-0.0395395
0
-0.0373954
-0.0376169
-0.0375717
-0.0374152
-0.0371728
-0.0367761
-0.0361598
-0.0354073
-0.0345235
-0.0334516
-0.0321404
-0.0305017
-0.0283726
-0.0294717
-0.074837
0
0.00352401
0.00965268
0.0146152
0.0177071
0.019183
0.0193144
0.0171295
0
0.00723279
0.000333124
-0.00707945
-0.0139432
-0.0195478
-0.0239388
-0.0275255
-0.0308565
-0.0310925
-0.0313063
-0.0326415
-0.0336974
-0.0345789
-0.0352685
-0.0358153
-0.036263
-0.0366361
-0.0369078
-0.0371438
-0.0373162
-0.0374021
-0.0373792
-0.0372053
-0.0369335
-0.0812041
-0.0383561
-0.0374865
-0.0372208
-0.0372644
-0.0376042
-0.0381599
-0.0387497
-0.0392382
-0.0395537
-0.0397243
-0.0396534
-0.0391144
-0.0374345
-0.0378715
-0.0380912
-0.0380891
-0.0379705
-0.0377342
-0.0372376
-0.0363449
-0.0354526
-0.0346029
-0.03373
-0.0330726
-0.0336392
-0.035302
-0.0299129
0
0
0.00229484
0.00586656
0.00870174
0.0104781
0.0112843
0.0110202
0.0105765
0.00776492
0.00364295
-0.00188145
-0.00807348
-0.0141257
-0.0190619
-0.0231034
-0.0267398
-0.0314447
-0.0301903
-0.0309839
-0.0325695
-0.0339511
-0.0350584
-0.0358384
-0.0364355
-0.0369412
-0.0373905
-0.0376783
-0.0379908
-0.038221
-0.0383407
-0.0383436
-0.0383256
-0.0385225
-0.0398931
-0.039321
-0.0388377
-0.0386349
-0.0386654
-0.0388753
-0.0391902
-0.0395214
-0.0398021
-0.0399918
-0.0400015
-0.0398739
-0.03949
-0.0388684
-0.0387695
-0.0387702
-0.0387345
-0.0386645
-0.0385198
-0.0380443
-0.0367706
-0.0358215
-0.0350776
-0.034288
-0.0335055
-0.0588735
-0.0251749
-0.0293466
0
0
0.00144624
0.00321272
0.00451408
0.00519867
0.00539286
0.00514516
0.00453981
0.00263635
-0.000655967
-0.00517917
-0.0103696
-0.0161633
-0.0216109
-0.0229021
-0.0250935
-0.0248339
-0.0301737
-0.0329165
-0.0342639
-0.0351934
-0.0362223
-0.0367903
-0.0373001
-0.0377943
-0.0376783
-0.0387203
-0.0390811
-0.0393566
-0.0395067
-0.0394835
-0.0394838
-0.0396757
-0.0401392
-0.0401512
-0.0400387
-0.0399827
-0.0400128
-0.0401306
-0.0403019
-0.0404778
-0.0406167
-0.0406853
-0.0406434
-0.0404971
-0.0402359
-0.039923
-0.0397252
-0.0395942
-0.0394897
-0.0394269
-0.0394179
-0.0392465
-0.0372827
-0.0365262
-0.0360604
-0.0355505
-0.0350282
-0.0345291
-0.0315087
-0.030035
0
0
0.000839756
0.0012747
0.00141153
0.00117491
0.000766738
0.0002384
-0.000597744
-0.00229953
-0.00513383
-0.00891708
-0.0130143
-0.0160339
-0.0205769
-0.0236755
-0.0257738
-0.0271607
-0.0304423
-0.0330172
-0.0347035
-0.0358287
-0.0452494
-0.0376934
-0.0382061
-0.0387715
-0.0394012
-0.0398375
-0.0403043
-0.040702
-0.0409363
-0.0408135
-0.0405514
-0.040666
-0.0409752
-0.0411598
-0.0412376
-0.0412887
-0.0413371
-0.0414073
-0.0414991
-0.0415807
-0.0416257
-0.0416129
-0.0415248
-0.0413672
-0.0411529
-0.0409144
-0.040688
-0.0404706
-0.0402511
-0.040047
-0.0399304
-0.0398741
-0.0377818
-0.0378024
-0.0375615
-0.0371069
-0.0365548
-0.0357409
-0.0339456
-0.031204
0
0
0.00039277
-0.000193464
-0.000971007
-0.00205254
-0.00304516
-0.0039949
-0.00513908
-0.00691341
-0.00956226
-0.0129121
-0.0164581
-0.0196949
-0.0228951
-0.0255038
-0.0273263
-0.0292192
-0.0315666
-0.033697
-0.0353994
-0.0367623
-0.0378752
-0.038611
-0.0392411
-0.039818
-0.0402633
-0.0410322
-0.0417019
-0.0423064
-0.0427942
-0.0429733
-0.0409154
-0.0415027
-0.0420527
-0.0423579
-0.0425063
-0.0425886
-0.0426886
-0.042741
-0.0427918
-0.042813
-0.0427915
-0.0427193
-0.0425791
-0.0423952
-0.0421811
-0.0419466
-0.041691
-0.041395
-0.0410191
-0.0404966
-0.0396669
-0.0386283
-0.0410014
-0.040377
-0.0395522
-0.0388168
-0.0381071
-0.0371626
-0.035502
-0.03247
0
0
5.00991e-05
-0.00135337
-0.0028525
-0.00737506
-0.00628458
-0.00770665
-0.00923561
-0.0112157
-0.0138454
-0.0169601
-0.020138
-0.023067
-0.0257165
-0.0280046
-0.0289539
-0.0310273
-0.0331055
-0.0349566
-0.0365164
-0.0377319
-0.0389178
-0.03974
-0.040412
-0.0410365
-0.041672
-0.0424393
-0.0432826
-0.0441355
-0.0448813
-0.0452076
0
-0.0429917
-0.0435584
-0.0437556
-0.0438648
-0.0439466
-0.0440314
-0.0441414
-0.0441834
-0.0441595
-0.0440864
-0.0439784
-0.0437609
-0.0435329
-0.0432989
-0.0430523
-0.0427757
-0.042435
-0.0419943
-0.0414962
-0.0409098
-0.0405959
-0.0415942
-0.0415429
-0.0409937
-0.0403188
-0.0395817
-0.0385871
-0.0368893
-0.0337243
0
0
-0.000229658
-0.00234194
-0.00457383
-0.00694174
-0.00910882
-0.0110605
-0.0130031
-0.0152537
-0.0179538
-0.0209591
-0.0238542
-0.0264467
-0.0287712
-0.0310807
0
-0.03307
-0.03502
-0.0366151
-0.0380826
-0.0392278
-0.0401948
-0.040968
-0.0416384
-0.0422889
-0.0430024
-0.0438769
-0.0449767
-0.046189
-0.0471777
-0.0464369
-0.0444004
-0.0445103
-0.0447901
-0.0450016
-0.0451626
-0.0453082
-0.0454535
-0.0456033
-0.045658
-0.0455971
-0.0454757
-0.0454324
-0.0450241
-0.0447423
-0.0444886
-0.0442375
-0.0439635
-0.0436149
-0.0431391
-0.0428362
-0.0425353
-0.0423956
-0.0425981
-0.0425419
-0.0421867
-0.0416488
-0.0409504
-0.0399623
-0.0382205
-0.0349419
0
0
-0.000462919
-0.00318964
-0.00603658
-0.0088422
-0.0116387
-0.0141145
-0.0164945
-0.019054
-0.0218757
-0.0256711
-0.0275186
-0.0297846
-0.0316856
-0.0332648
-0.0338523
-0.0354206
-0.0369457
-0.0383607
-0.0399687
-0.0409694
-0.0417039
-0.0423332
-0.0429255
-0.0435383
-0.0442503
-0.0452082
-0.0466622
-0.0486205
-0.0515076
-0.0486597
-0.0467257
-0.0461547
-0.046131
-0.0462686
-0.0464599
-0.0466881
-0.0469212
-0.0472021
-0.047287
-0.0471382
-0.0468282
-0.0462745
-0.0462035
-0.0459747
-0.0457268
-0.0454899
-0.0452514
-0.0449316
-0.0442915
-0.0443145
-0.0441778
-0.0440033
-0.0438644
-0.0437175
-0.0434208
-0.0429627
-0.0422269
-0.0413057
-0.0395125
-0.0361142
0
0
-0.000663416
-0.00393696
-0.00737506
-0.0109114
-0.0140438
-0.0169675
-0.0197761
-0.0226658
-0.0256711
-0.0286008
-0.0311134
-0.0331205
-0.034699
-0.0359565
-0.0369043
-0.0380034
-0.0391008
-0.0401722
-0.0424436
-0.0429345
-0.0433278
-0.0437698
-0.0442503
-0.0447596
-0.0453444
-0.0461601
-0.047699
-0.036675
-0.0635441
-0.0506145
-0.0477766
-0.0472451
-0.0472638
-0.0474481
-0.0477199
-0.0480999
-0.0486312
-0.0490579
-0.0492079
-0.0488852
-0.0483966
-0.0479045
-0.0475641
-0.0472649
-0.0469986
-0.0467796
-0.0466026
-0.0463946
-0.0369201
-0.0459404
-0.0458299
-0.045556
-0.045154
-0.045061
-0.0447843
-0.0444326
-0.0439467
-0.042733
-0.0407858
-0.0372302
0
0
-0.000842658
-0.00458176
-0.00853467
-0.0125112
-0.0162274
-0.0196394
-0.0228833
-0.0261127
-0.0293115
-0.0322456
-0.0346422
-0.0364517
-0.0378054
-0.0388701
-0.039765
-0.0406147
-0.0413528
-0.04179
-0.083345
-0.0448068
-0.0448887
-0.0452494
-0.0456293
-0.0459875
-0.0462778
-0.0463875
-0.0458166
-0.0421171
-0.0243373
-0.0412547
-0.0458319
-0.0473357
-0.047999
-0.0484417
-0.0488682
-0.0494371
-0.0502649
-0.0512642
-0.0517478
-0.0509248
-0.0500464
-0.0493875
-0.0489188
-0.0485605
-0.0482654
-0.0480513
-0.0478691
-0.0476633
-0.0473291
-0.0475753
-0.0474385
-0.0472132
-0.0471956
-0.0466358
-0.0462017
-0.0459374
-0.0453019
-0.044139
-0.0420376
-0.0382606
0
0
-0.00103815
-0.00511862
-0.00960363
-0.0140924
-0.0183176
-0.0221671
-0.0258444
-0.0294171
-0.032823
-0.0358017
-0.0381045
-0.0397659
-0.0409627
-0.0418818
-0.042641
-0.0433281
-0.0439813
-0.0447062
-0.0463573
-0.0465932
-0.0467547
-0.0469705
-0.0471962
-0.0473688
-0.0474018
-0.047116
-0.0461224
-0.0438277
-0.0403662
-0.044032
-0.0466083
-0.0480163
-0.0488361
-0.0494169
-0.0499124
-0.0506187
-0.0518684
-0.0540271
-0.056163
-0.0533534
-0.0516004
-0.0506879
-0.0501608
-0.0497996
-0.0494868
-0.0493139
-0.0491545
-0.0490214
-0.0490471
-0.0495112
-0.049115
-0.0487425
-0.0485121
-0.0481405
-0.047317
-0.0476283
-0.0469292
-0.0457655
-0.0434065
-0.0391357
0
0
-0.0013193
0.0012747
-0.0106483
-0.0156908
-0.020373
-0.0245302
-0.0286732
-0.0325948
-0.0362287
-0.0392805
-0.0414713
-0.043032
-0.0441437
-0.0449672
-0.0455689
-0.046086
-0.0466088
-0.0472154
-0.0479621
-0.0483436
-0.0485676
-0.0487395
-0.0488692
-0.0489251
-0.0488405
-0.0485018
-0.0477521
-0.0469269
-0.0467188
-0.0476181
-0.048591
-0.0493704
-0.0499845
-0.0505021
-0.0508223
-0.0513902
-0.0526688
-0.0563775
-0.0681546
-0.0553167
-0.0523198
-0.0514952
-0.0511475
-0.0509242
-0.0494868
-0.0505742
-0.0504433
-0.0503251
-0.0505186
-0.0519056
-0.0507606
-0.0502277
-0.0500882
-0.0501896
-0.0510836
-0.0500378
-0.0489987
-0.0480289
-0.0454785
-0.0397055
0
0
-0.00132478
-0.00628906
-0.011694
-0.0172623
-0.0224816
-0.0270843
-0.0314104
-0.0356706
-0.0395656
-0.0427326
-0.0446513
-0.0462003
-0.0473447
-0.0481528
-0.0485375
-0.0488371
-0.0491886
-0.049647
-0.0500542
-0.0503148
-0.0504773
-0.0505844
-0.050643
-0.0506374
-0.0505379
-0.0503134
-0.0499668
-0.0493971
-0.0506711
-0.0505232
-0.0506372
-0.0509347
-0.0512974
-0.0516698
-0.0515849
-0.0515347
-0.0507742
-0.0469147
-0.0280511
-0.0456927
-0.0500891
-0.0514066
-0.0517961
-0.0518878
-0.0518505
-0.0518318
-0.0517475
-0.0515861
-0.0516391
-0.0839365
-0.0520842
-0.0516366
-0.051651
-0.0517429
-0.0518187
-0.0514655
-0.0518505
-0.0514342
-0.0505704
-0.0482401
0
0
-0.00141694
-0.00689105
-0.0126837
-0.0189953
-0.0246937
-0.0289087
-0.0339416
-0.0387052
-0.0429363
-0.0463204
-0.0473873
-0.0492573
-0.0506063
-0.0515183
-0.0514839
-0.0515299
-0.0517299
-0.0521983
-0.0524066
-0.0524875
-0.0525224
-0.0525321
-0.0525151
-0.052464
-0.0523754
-0.0522586
-0.0520554
-0.0513427
-0.088149
-0.0527409
-0.0524082
-0.0525167
-0.0526478
-0.0526206
-0.0528209
-0.0523503
-0.051092
-0.0484192
-0.0444502
-0.0479451
-0.0507053
-0.0520039
-0.0526167
-0.0529214
-0.0530729
-0.053165
-0.0532076
-0.0532515
-0.0535343
-0.0545839
-0.053781
-0.0534269
-0.0533808
-0.0534122
-0.0534095
-0.0534508
-0.0537481
-0.0536115
-0.052544
-0.0487788
0
0
-0.00154101
-0.00743094
-0.013496
-0.0320664
-0.0271459
0
-0.0365486
-0.0418451
-0.0463507
-0.050263
-0.00707945
-0.052453
-0.053971
-0.0550164
-0.0542665
-0.0542041
-0.0542831
-0.0551114
-0.0549731
-0.0548043
-0.0546777
-0.0545738
-0.0544656
-0.0543566
-0.0542633
-0.054279
-0.0549508
-0.0540953
-0.0549434
-0.0545819
-0.0543529
-0.0543266
-0.0543745
-0.0543402
-0.0542
-0.053685
-0.0527326
-0.0514504
-0.0505787
-0.0513422
-0.0524447
-0.0532491
-0.0537605
-0.054135
-0.054383
-0.0545703
-0.0547117
-0.0548433
-0.055039
-0.0553007
-0.0551412
-0.0550752
-0.0551106
-0.0551581
-0.055123
-0.0552314
-0.0553897
-0.055151
-0.0538026
-0.0496424
0
0
-0.00168678
-0.00803067
-0.0146976
-0.0218357
-0.0283582
-0.0335743
-0.0393914
-0.0447645
-0.0493464
-0.0528172
-0.0541124
-0.0556641
-0.0565913
-0.0571383
-0.0577292
-0.057455
-0.0570049
-0.0797601
-0.05756
-0.0571349
-0.0568958
-0.0566835
-0.0564642
-0.0562632
-0.0560544
-0.0557136
-0.0543515
-0.0554311
-0.056004
-0.0560726
-0.0560574
-0.056123
-0.056283
-0.0563558
-0.0559928
-0.055454
-0.0547547
-0.0540995
-0.0538117
-0.054007
-0.0544321
-0.054843
-0.0550876
-0.0555342
-0.0558128
-0.0560427
-0.0562261
-0.056373
-0.0564815
-0.0565034
-0.0564594
-0.0566162
-0.0567761
-0.0569005
-0.0567437
-0.0568505
-0.0568909
-0.0564753
-0.054982
-0.0506691
0
0
-0.00183073
-0.00860376
-0.0157214
-0.0230072
-0.0299556
-0.0362665
-0.0422917
-0.0478027
-0.0524258
-0.0559192
-0.057939
-0.0588318
-0.058368
-0.105927
-0.0608327
-0.0603185
-0.0600621
-0.0603757
-0.0599684
-0.0595553
-0.0592023
-0.0588656
-0.0584794
-0.058193
-0.0579461
-0.0576439
-0.0572475
-0.0573722
-0.0575483
-0.0576123
-0.0576656
-0.0578565
-0.0583393
-0.0589668
-0.0580577
-0.0574389
-0.0567538
-0.0563002
-0.0561189
-0.0561658
-0.0563556
-0.0566341
-0.0571166
-0.0571802
-0.0573776
-0.0575671
-0.0577504
-0.0579043
-0.0579848
-0.0578713
-0.0577407
-0.0580749
-0.0583201
-0.058589
-0.0582856
-0.058458
-0.0583446
-0.0576699
-0.0561766
-0.0518017
0
0
-0.00197036
-0.00915731
-0.0166979
-0.0243551
-0.0317773
-0.0387117
-0.0451171
-0.0509004
-0.0556146
-0.0594097
-0.0616697
-0.0625078
-0.0626718
-0.0638017
-0.0635298
-0.0631093
-0.0627087
-0.0625676
-0.0622445
-0.0618608
-0.0614767
-0.0610607
-0.0603999
-0.0600965
-0.0598967
-0.0596714
-0.0594345
-0.059259
-0.0592357
-0.0591763
-0.0591554
-0.0593511
-0.0602754
-0.0637921
-0.059965
-0.0595821
-0.0585055
-0.0581314
-0.0580207
-0.0580382
-0.0581325
-0.058283
-0.0585356
-0.0587531
-0.0589658
-0.059126
-0.0592823
-0.0594668
-0.059593
-0.0593157
-0.0589339
-0.0594105
-0.059628
-0.059662
-0.0603875
-0.0603016
-0.0598258
-0.0585938
-0.0573905
-0.0530268
0
0
-0.00211048
-0.00971176
-0.0176889
-0.0257965
-0.0337126
-0.0411602
-0.0479066
-0.0541457
-0.059407
-0.0632312
-0.0651848
-0.0661003
-0.0663047
-0.0664635
-0.0662268
-0.0657783
-0.0649854
-0.0649337
-0.064574
-0.0641561
-0.0637605
-0.0633407
-0.0620411
-0.0619737
-0.0618935
-0.0616995
-0.0614503
-0.061104
-0.0608691
-0.0606669
-0.0604176
-0.0601049
-0.0589731
-0.052981
-0.0579574
-0.0581308
-0.0592821
-0.0595817
-0.0596758
-0.0597435
-0.0597921
-0.0598123
-0.0600211
-0.0602863
-0.0605196
-0.0606845
-0.0608441
-0.0610489
-0.0612869
-0.0607916
-0.0595179
-0.0612132
-0.0614092
-0.0615142
-0.0618846
-0.0619429
-0.0613181
-0.0588735
-0.0587201
-0.0543355
0
0
-0.00225423
-0.0102767
-0.0187079
-0.0273012
-0.0357352
-0.0437198
-0.0511791
-0.0574005
-0.0627183
-0.0665916
-0.0687477
-0.0696227
-0.0697459
-0.0695527
-0.0691839
-0.0687671
-0.0687687
-0.0677022
-0.0670076
-0.066462
-0.0660491
-0.0658127
-0.0387715
-0.064018
-0.0640136
-0.0637047
-0.0633719
-0.059259
-0.0625498
-0.0622279
-0.0616591
-0.061385
-0.0605299
-0.0591545
-0.0599312
-0.0603375
-0.060823
-0.0611112
-0.0612848
-0.0613979
-0.0614035
-0.0611705
-0.0614656
-0.0618158
-0.0620739
-0.0622467
-0.0623788
-0.0624911
-0.0625912
-0.0630093
-0.0261704
-0.072502
-0.0632405
-0.0632515
-0.063457
-0.0636283
-0.0631938
-0.0199552
-0.0604815
-0.0556659
0
0
-0.00240115
-0.0108507
-0.0197501
-0.0288493
-0.0378083
-0.046298
-0.0540464
-0.0603107
-0.0658349
-0.0698834
-0.0722044
-0.0731071
-0.0731321
-0.0727517
-0.0722165
-0.0716313
-0.0709788
-0.0700967
-0.0693122
-0.0686539
-0.0680909
-0.0674671
-0.0663577
-0.0661618
-0.0659814
-0.0655011
-0.0650265
-0.0645374
-0.0642381
-0.063988
-0.0639995
-0.0632325
-0.0626211
-0.0621611
-0.0621923
-0.0623437
-0.0625571
-0.0627548
-0.0629321
-0.0630889
-0.0630814
-0.0622104
-0.0629151
-0.0634008
-0.0636696
-0.0638302
-0.0639457
-0.0640372
-0.0641085
-0.0641061
-0.0632319
-0.0644912
-0.064718
-0.0648062
-0.0648905
-0.0648481
-0.0642528
-0.062305
-0.0615438
-0.0568581
0
0
-0.0025466
-0.0114228
-0.0208042
-0.0304362
-0.0399437
-0.0489818
-0.0572647
-0.0627832
-0.0689141
-0.0732978
-0.0757773
-0.076641
-0.0765323
-0.0759701
-0.0752736
-0.0745414
-0.073505
-0.0724086
-0.0715031
-0.0707662
-0.070183
-0.0696269
-0.0688281
-0.0683668
-0.068073
-0.0671847
-0.0666253
-0.0662323
-0.0659267
-0.0656504
-0.0653825
-0.0649558
-0.0645583
-0.0642844
-0.0641834
-0.0641987
-0.0642874
-0.0644169
-0.0645821
-0.0648005
-0.0649541
-0.0416129
-0.0645733
-0.0650743
-0.0652803
-0.0654199
-0.0655337
-0.0656274
-0.0656928
-0.0656972
-0.0656039
-0.0659669
-0.0661839
-0.0662972
-0.066341
-0.0662418
-0.0657442
-0.0648391
-0.063086
-0.0580966
0
0
-0.00267905
-0.0119676
-0.0218531
-0.0320664
-0.0421442
-0.0517876
-0.0610371
-0.0168303
-0.0724055
-0.0771114
-0.0795388
-0.0802392
-0.0799115
-0.0791458
-0.0783014
-0.0776264
-0.0760269
-0.0745562
-0.0735727
-0.0727945
-0.0722963
-0.0716263
-0.0708884
-0.0703056
-0.0700805
-0.0686248
-0.0682579
-0.0679745
-0.0676759
-0.0673552
-0.0670184
-0.0666618
-0.0663404
-0.0661025
-0.0659662
-0.0659223
-0.0659514
-0.0660332
-0.0661485
-0.0662588
-0.0662142
-0.0655887
-0.0661091
-0.066514
-0.066779
-0.0669724
-0.0671261
-0.0672469
-0.0673343
-0.0673907
-0.0674494
-0.0675942
-0.0677314
-0.0678309
-0.0678839
-0.0678785
-0.0678302
-0.0668173
-0.0646891
-0.0594088
0
0
-0.00277358
-0.0124266
-0.0228885
-0.0337705
-0.0443643
-0.0543554
-0.063351
-0.0699297
-0.0764368
-0.0809967
-0.083177
-0.083685
-0.0831797
-0.0821981
-0.081047
-0.0810762
-0.0782415
-0.076451
-0.0755936
-0.0747668
-0.0745967
-0.073668
-0.0727225
-0.0717321
-0.0704154
-0.0709174
-0.0704657
-0.0699696
-0.0695123
-0.069091
-0.0686947
-0.0683278
-0.06801
-0.0677639
-0.067606
-0.067536
-0.0675404
-0.0676013
-0.0676952
-0.067778
-0.0677701
-0.0676362
-0.0677858
-0.0680364
-0.0682989
-0.0685395
-0.068742
-0.0688977
-0.0690067
-0.0690826
-0.0691514
-0.069234
-0.0693251
-0.0694085
-0.0694586
-0.0694486
-0.0692878
-0.0684792
-0.0662305
-0.0607677
0
0
-0.0027924
-0.0126296
-0.0241198
-0.0355388
-0.0466945
-0.0571304
-0.0664765
-0.0742907
-0.0806688
-0.0849754
-0.0870004
-0.0872715
-0.0865252
-0.08547
-0.0851877
-0.0849183
-0.0797601
-0.0788423
-0.0777975
-0.0768052
-0.0915233
-0.0757032
-0.074552
-0.0735517
-0.0724549
-0.0722195
-0.0719162
-0.0715281
-0.0711083
-0.070686
-0.0702796
-0.0699034
-0.0695711
-0.0693001
-0.0691253
-0.0690494
-0.0690556
-0.0691262
-0.0692441
-0.0693718
-0.0694268
-0.0693492
-0.0693758
-0.0695629
-0.0698475
-0.0701452
-0.0704034
-0.0705938
-0.0707114
-0.0707795
-0.0708247
-0.0708712
-0.0709377
-0.0710163
-0.0710483
-0.0709982
-0.0708242
-0.0700741
-0.0677557
-0.0621529
0
0
-0.00278308
-0.0118363
-0.0254513
-0.0376992
-0.0493904
-0.0602744
-0.0700594
-0.0784077