# vtk DataFile Version 2.0
FlowField
ASCII
DATASET STRUCTURED_GRID
DIMENSIONS 62 47 32 
POINTS 93248 double
0 0 0
0.01 0 0
0.02 0 0
0.03 0 0
0.04 0 0
0.05 0 0
0.06 0 0
0.07 0 0
0.08 0 0
0.09 0 0
0.1 0 0
0.11 0 0
0.12 0 0
0.13 0 0
0.14 0 0
0.15 0 0
0.16 0 0
0.17 0 0
0.18 0 0
0.19 0 0
0.2 0 0
0.21 0 0
0.22 0 0
0.23 0 0
0.24 0 0
0.25 0 0
0.26 0 0
0.27 0 0
0.28 0 0
0.29 0 0
0.3 0 0
0.31 0 0
0.32 0 0
0.33 0 0
0.34 0 0
0.35 0 0
0.36 0 0
0.37 0 0
0.38 0 0
0.39 0 0
0.4 0 0
0.41 0 0
0.42 0 0
0.43 0 0
0.44 0 0
0.45 0 0
0.46 0 0
0.47 0 0
0.48 0 0
0.49 0 0
0.5 0 0
0.51 0 0
0.52 0 0
0.53 0 0
0.54 0 0
0.55 0 0
0.56 0 0
0.57 0 0
0.58 0 0
0.59 0 0
0.6 0 0
0.61 0 0
0 0.01 0
0.01 0.01 0
0.02 0.01 0
0.03 0.01 0
0.04 0.01 0
0.05 0.01 0
0.06 0.01 0
0.07 0.01 0
0.08 0.01 0
0.09 0.01 0
0.1 0.01 0
0.11 0.01 0
0.12 0.01 0
0.13 0.01 0
0.14 0.01 0
0.15 0.01 0
0.16 0.01 0
0.17 0.01 0
0.18 0.01 0
0.19 0.01 0
0.2 0.01 0
0.21 0.01 0
0.22 0.01 0
0.23 0.01 0
0.24 0.01 0
0.25 0.01 0
0.26 0.01 0
0.27 0.01 0
0.28 0.01 0
0.29 0.01 0
0.3 0.01 0
0.31 0.01 0
0.32 0.01 0
0.33 0.01 0
0.34 0.01 0
0.35 0.01 0
0.36 0.01 0
0.37 0.01 0
0.38 0.01 0
0.39 0.01 0
0.4 0.01 0
0.41 0.01 0
0.42 0.01 0
0.43 0.01 0
0.44 0.01 0
0.45 0.01 0
0.46 0.01 0
0.47 0.01 0
0.48 0.01 0
0.49 0.01 0
0.5 0.01 0
0.51 0.01 0
0.52 0.01 0
0.53 0.01 0
0.54 0.01 0
0.55 0.01 0
0.56 0.01 0
0.57 0.01 0
0.58 0.01 0
0.59 0.01 0
0.6 0.01 0
0.61 0.01 0
0 0.02 0
0.01 0.02 0
0.02 0.02 0
0.03 0.02 0
0.04 0.02 0
0.05 0.02 0
0.06 0.02 0
0.07 0.02 0
0.08 0.02 0
0.09 0.02 0
0.1 0.02 0
0.11 0.02 0
0.12 0.02 0
0.13 0.02 0
0.14 0.02 0
0.15 0.02 0
0.16 0.02 0
0.17 0.02 0
0.18 0.02 0
0.19 0.02 0
0.2 0.02 0
0.21 0.02 0
0.22 0.02 0
0.23 0.02 0
0.24 0.02 0
0.25 0.02 0
0.26 0.02 0
0.27 0.02 0
0.28 0.02 0
0.29 0.02 0
0.3 0.02 0
0.31 0.02 0
0.32 0.02 0
0.33 0.02 0
0.34 0.02 0
0.35 0.02 0
0.36 0.02 0
0.37 0.02 0
0.38 0.02 0
0.39 0.02 0
0.4 0.02 0
0.41 0.02 0
0.42 0.02 0
0.43 0.02 0
0.44 0.02 0
0.45 0.02 0
0.46 0.02 0
0.47 0.02 0
0.48 0.02 0
0.49 0.02 0
0.5 0.02 0
0.51 0.02 0
0.52 0.02 0
0.53 0.02 0
0.54 0.02 0
0.55 0.02 0
0.56 0.02 0
0.57 0.02 0
0.58 0.02 0
0.59 0.02 0
0.6 0.02 0
0.61 0.02 0
0 0.03 0
0.01 0.03 0
0.02 0.03 0
0.03 0.03 0
0.04 0.03 0
0.05 0.03 0
0.06 0.03 0
0.07 0.03 0
0.08 0.03 0
0.09 0.03 0
0.1 0.03 0
0.11 0.03 0
0.12 0.03 0
0.13 0.03 0
0.14 0.03 0
0.15 0.03 0
0.16 0.03 0
0.17 0.03 0
0.18 0.03 0
0.19 0.03 0
0.2 0.03 0
0.21 0.03 0
0.22 0.03 0
0.23 0.03 0
0.24 0.03 0
0.25 0.03 0
0.26 0.03 0
0.27 0.03 0
0.28 0.03 0
0.29 0.03 0
0.3 0.03 0
0.31 0.03 0
0.32 0.03 0
0.33 0.03 0
0.34 0.03 0
0.35 0.03 0
0.36 0.03 0
0.37 0.03 0
0.38 0.03 0
0.39 0.03 0
0.4 0.03 0
0.41 0.03 0
0.42 0.03 0
0.43 0.03 0
0.44 0.03 0
0.45 0.03 0
0.46 0.03 0
0.47 0.03 0
0.48 0.03 0
0.49 0.03 0
0.5 0.03 0
0.51 0.03 0
0.52 0.03 0
0.53 0.03 0
0.54 0.03 0
0.55 0.03 0
0.56 0.03 0
0.57 0.03 0
0.58 0.03 0
0.59 0.03 0
0.6 0.03 0
0.61 0.03 0
0 0.04 0
0.01 0.04 0
0.02 0.04 0
0.03 0.04 0
0.04 0.04 0
0.05 0.04 0
0.06 0.04 0
0.07 0.04 0
0.08 0.04 0
0.09 0.04 0
0.1 0.04 0
0.11 0.04 0
0.12 0.04 0
0.13 0.04 0
0.14 0.04 0
0.15 0.04 0
0.16 0.04 0
0.17 0.04 0
0.18 0.04 0
0.19 0.04 0
0.2 0.04 0
0.21 0.04 0
0.22 0.04 0
0.23 0.04 0
0.24 0.04 0
0.25 0.04 0
0.26 0.04 0
0.27 0.04 0
0.28 0.04 0
0.29 0.04 0
0.3 0.04 0
0.31 0.04 0
0.32 0.04 0
0.33 0.04 0
0.34 0.04 0
0.35 0.04 0
0.36 0.04 0
0.37 0.04 0
0.38 0.04 0
0.39 0.04 0
0.4 0.04 0
0.41 0.04 0
0.42 0.04 0
0.43 0.04 0
0.44 0.04 0
0.45 0.04 0
0.46 0.04 0
0.47 0.04 0
0.48 0.04 0
0.49 0.04 0
0.5 0.04 0
0.51 0.04 0
0.52 0.04 0
0.53 0.04 0
0.54 0.04 0
0.55 0.04 0
0.56 0.04 0
0.57 0.04 0
0.58 0.04 0
0.59 0.04 0
0.6 0.04 0
0.61 0.04 0
0 0.05 0
0.01 0.05 0
0.02 0.05 0
0.03 0.05 0
0.04 0.05 0
0.05 0.05 0
0.06 0.05 0
0.07 0.05 0
0.08 0.05 0
0.09 0.05 0
0.1 0.05 0
0.11 0.05 0
0.12 0.05 0
0.13 0.05 0
0.14 0.05 0
0.15 0.05 0
0.16 0.05 0
0.17 0.05 0
0.18 0.05 0
0.19 0.05 0
0.2 0.05 0
0.21 0.05 0
0.22 0.05 0
0.23 0.05 0
0.24 0.05 0
0.25 0.05 0
0.26 0.05 0
0.27 0.05 0
0.28 0.05 0
0.29 0.05 0
0.3 0.05 0
0.31 0.05 0
0.32 0.05 0
0.33 0.05 0
0.34 0.05 0
0.35 0.05 0
0.36 0.05 0
0.37 0.05 0
0.38 0.05 0
0.39 0.05 0
0.4 0.05 0
0.41 0.05 0
0.42 0.05 0
0.43 0.05 0
0.44 0.05 0
0.45 0.05 0
0.46 0.05 0
0.47 0.05 0
0.48 0.05 0
0.49 0.05 0
0.5 0.05 0
0.51 0.05 0
0.52 0.05 0
0.53 0.05 0
0.54 0.05 0
0.55 0.05 0
0.56 0.05 0
0.57 0.05 0
0.58 0.05 0
0.59 0.05 0
0.6 0.05 0
0.61 0.05 0
0 0.06 0
0.01 0.06 0
0.02 0.06 0
0.03 0.06 0
0.04 0.06 0
0.05 0.06 0
0.06 0.06 0
0.07 0.06 0
0.08 0.06 0
0.09 0.06 0
0.1 0.06 0
0.11 0.06 0
0.12 0.06 0
0.13 0.06 0
0.14 0.06 0
0.15 0.06 0
0.16 0.06 0
0.17 0.06 0
0.18 0.06 0
0.19 0.06 0
0.2 0.06 0
0.21 0.06 0
0.22 0.06 0
0.23 0.06 0
0.24 0.06 0
0.25 0.06 0
0.26 0.06 0
0.27 0.06 0
0.28 0.06 0
0.29 0.06 0
0.3 0.06 0
0.31 0.06 0
0.32 0.06 0
0.33 0.06 0
0.34 0.06 0
0.35 0.06 0
0.36 0.06 0
0.37 0.06 0
0.38 0.06 0
0.39 0.06 0
0.4 0.06 0
0.41 0.06 0
0.42 0.06 0
0.43 0.06 0
0.44 0.06 0
0.45 0.06 0
0.46 0.06 0
0.47 0.06 0
0.48 0.06 0
0.49 0.06 0
0.5 0.06 0
0.51 0.06 0
0.52 0.06 0
0.53 0.06 0
0.54 0.06 0
0.55 0.06 0
0.56 0.06 0
0.57 0.06 0
0.58 0.06 0
0.59 0.06 0
0.6 0.06 0
0.61 0.06 0
0 0.07 0
0.01 0.07 0
0.02 0.07 0
0.03 0.07 0
0.04 0.07 0
0.05 0.07 0
0.06 0.07 0
0.07 0.07 0
0.08 0.07 0
0.09 0.07 0
0.1 0.07 0
0.11 0.07 0
0.12 0.07 0
0.13 0.07 0
0.14 0.07 0
0.15 0.07 0
0.16 0.07 0
0.17 0.07 0
0.18 0.07 0
0.19 0.07 0
0.2 0.07 0
0.21 0.07 0
0.22 0.07 0
0.23 0.07 0
0.24 0.07 0
0.25 0.07 0
0.26 0.07 0
0.27 0.07 0
0.28 0.07 0
0.29 0.07 0
0.3 0.07 0
0.31 0.07 0
0.32 0.07 0
0.33 0.07 0
0.34 0.07 0
0.35 0.07 0
0.36 0.07 0
0.37 0.07 0
0.38 0.07 0
0.39 0.07 0
0.4 0.07 0
0.41 0.07 0
0.42 0.07 0
0.43 0.07 0
0.44 0.07 0
0.45 0.07 0
0.46 0.07 0
0.47 0.07 0
0.48 0.07 0
0.49 0.07 0
0.5 0.07 0
0.51 0.07 0
0.52 0.07 0
0.53 0.07 0
0.54 0.07 0
0.55 0.07 0
0.56 0.07 0
0.57 0.07 0
0.58 0.07 0
0.59 0.07 0
0.6 0.07 0
0.61 0.07 0
0 0.08 0
0.01 0.08 0
0.02 0.08 0
0.03 0.08 0
0.04 0.08 0
0.05 0.08 0
0.06 0.08 0
0.07 0.08 0
0.08 0.08 0
0.09 0.08 0
0.1 0.08 0
0.11 0.08 0
0.12 0.08 0
0.13 0.08 0
0.14 0.08 0
0.15 0.08 0
0.16 0.08 0
0.17 0.08 0
0.18 0.08 0
0.19 0.08 0
0.2 0.08 0
0.21 0.08 0
0.22 0.08 0
0.23 0.08 0
0.24 0.08 0
0.25 0.08 0
0.26 0.08 0
0.27 0.08 0
0.28 0.08 0
0.29 0.08 0
0.3 0.08 0
0.31 0.08 0
0.32 0.08 0
0.33 0.08 0
0.34 0.08 0
0.35 0.08 0
0.36 0.08 0
0.37 0.08 0
0.38 0.08 0
0.39 0.08 0
0.4 0.08 0
0.41 0.08 0
0.42 0.08 0
0.43 0.08 0
0.44 0.08 0
0.45 0.08 0
0.46 0.08 0
0.47 0.08 0
0.48 0.08 0
0.49 0.08 0
0.5 0.08 0
0.51 0.08 0
0.52 0.08 0
0.53 0.08 0
0.54 0.08 0
0.55 0.08 0
0.56 0.08 0
0.57 0.08 0
0.58 0.08 0
0.59 0.08 0
0.6 0.08 0
0.61 0.08 0
0 0.09 0
0.01 0.09 0
0.02 0.09 0
0.03 0.09 0
0.04 0.09 0
0.05 0.09 0
0.06 0.09 0
0.07 0.09 0
0.08 0.09 0
0.09 0.09 0
0.1 0.09 0
0.11 0.09 0
0.12 0.09 0
0.13 0.09 0
0.14 0.09 0
0.15 0.09 0
0.16 0.09 0
0.17 0.09 0
0.18 0.09 0
0.19 0.09 0
0.2 0.09 0
0.21 0.09 0
0.22 0.09 0
0.23 0.09 0
0.24 0.09 0
0.25 0.09 0
0.26 0.09 0
0.27 0.09 0
0.28 0.09 0
0.29 0.09 0
0.3 0.09 0
0.31 0.09 0
0.32 0.09 0
0.33 0.09 0
0.34 0.09 0
0.35 0.09 0
0.36 0.09 0
0.37 0.09 0
0.38 0.09 0
0.39 0.09 0
0.4 0.09 0
0.41 0.09 0
0.42 0.09 0
0.43 0.09 0
0.44 0.09 0
0.45 0.09 0
0.46 0.09 0
0.47 0.09 0
0.48 0.09 0
0.49 0.09 0
0.5 0.09 0
0.51 0.09 0
0.52 0.09 0
0.53 0.09 0
0.54 0.09 0
0.55 0.09 0
0.56 0.09 0
0.57 0.09 0
0.58 0.09 0
0.59 0.09 0
0.6 0.09 0
0.61 0.09 0
0 0.1 0
0.01 0.1 0
0.02 0.1 0
0.03 0.1 0
0.04 0.1 0
0.05 0.1 0
0.06 0.1 0
0.07 0.1 0
0.08 0.1 0
0.09 0.1 0
0.1 0.1 0
0.11 0.1 0
0.12 0.1 0
0.13 0.1 0
0.14 0.1 0
0.15 0.1 0
0.16 0.1 0
0.17 0.1 0
0.18 0.1 0
0.19 0.1 0
0.2 0.1 0
0.21 0.1 0
0.22 0.1 0
0.23 0.1 0
0.24 0.1 0
0.25 0.1 0
0.26 0.1 0
0.27 0.1 0
0.28 0.1 0
0.29 0.1 0
0.3 0.1 0
0.31 0.1 0
0.32 0.1 0
0.33 0.1 0
0.34 0.1 0
0.35 0.1 0
0.36 0.1 0
0.37 0.1 0
0.38 0.1 0
0.39 0.1 0
0.4 0.1 0
0.41 0.1 0
0.42 0.1 0
0.43 0.1 0
0.44 0.1 0
0.45 0.1 0
0.46 0.1 0
0.47 0.1 0
0.48 0.1 0
0.49 0.1 0
0.5 0.1 0
0.51 0.1 0
0.52 0.1 0
0.53 0.1 0
0.54 0.1 0
0.55 0.1 0
0.56 0.1 0
0.57 0.1 0
0.58 0.1 0
0.59 0.1 0
0.6 0.1 0
0.61 0.1 0
0 0.11 0
0.01 0.11 0
0.02 0.11 0
0.03 0.11 0
0.04 0.11 0
0.05 0.11 0
0.06 0.11 0
0.07 0.11 0
0.08 0.11 0
0.09 0.11 0
0.1 0.11 0
0.11 0.11 0
0.12 0.11 0
0.13 0.11 0
0.14 0.11 0
0.15 0.11 0
0.16 0.11 0
0.17 0.11 0
0.18 0.11 0
0.19 0.11 0
0.2 0.11 0
0.21 0.11 0
0.22 0.11 0
0.23 0.11 0
0.24 0.11 0
0.25 0.11 0
0.26 0.11 0
0.27 0.11 0
0.28 0.11 0
0.29 0.11 0
0.3 0.11 0
0.31 0.11 0
0.32 0.11 0
0.33 0.11 0
0.34 0.11 0
0.35 0.11 0
0.36 0.11 0
0.37 0.11 0
0.38 0.11 0
0.39 0.11 0
0.4 0.11 0
0.41 0.11 0
0.42 0.11 0
0.43 0.11 0
0.44 0.11 0
0.45 0.11 0
0.46 0.11 0
0.47 0.11 0
0.48 0.11 0
0.49 0.11 0
0.5 0.11 0
0.51 0.11 0
0.52 0.11 0
0.53 0.11 0
0.54 0.11 0
0.55 0.11 0
0.56 0.11 0
0.57 0.11 0
0.58 0.11 0
0.59 0.11 0
0.6 0.11 0
0.61 0.11 0
0 0.12 0
0.01 0.12 0
0.02 0.12 0
0.03 0.12 0
0.04 0.12 0
0.05 0.12 0
0.06 0.12 0
0.07 0.12 0
0.08 0.12 0
0.09 0.12 0
0.1 0.12 0
0.11 0.12 0
0.12 0.12 0
0.13 0.12 0
0.14 0.12 0
0.15 0.12 0
0.16 0.12 0
0.17 0.12 0
0.18 0.12 0
0.19 0.12 0
0.2 0.12 0
0.21 0.12 0
0.22 0.12 0
0.23 0.12 0
0.24 0.12 0
0.25 0.12 0
0.26 0.12 0
0.27 0.12 0
0.28 0.12 0
0.29 0.12 0
0.3 0.12 0
0.31 0.12 0
0.32 0.12 0
0.33 0.12 0
0.34 0.12 0
0.35 0.12 0
0.36 0.12 0
0.37 0.12 0
0.38 0.12 0
0.39 0.12 0
0.4 0.12 0
0.41 0.12 0
0.42 0.12 0
0.43 0.12 0
0.44 0.12 0
0.45 0.12 0
0.46 0.12 0
0.47 0.12 0
0.48 0.12 0
0.49 0.12 0
0.5 0.12 0
0.51 0.12 0
0.52 0.12 0
0.53 0.12 0
0.54 0.12 0
0.55 0.12 0
0.56 0.12 0
0.57 0.12 0
0.58 0.12 0
0.59 0.12 0
0.6 0.12 0
0.61 0.12 0
0 0.13 0
0.01 0.13 0
0.02 0.13 0
0.03 0.13 0
0.04 0.13 0
0.05 0.13 0
0.06 0.13 0
0.07 0.13 0
0.08 0.13 0
0.09 0.13 0
0.1 0.13 0
0.11 0.13 0
0.12 0.13 0
0.13 0.13 0
0.14 0.13 0
0.15 0.13 0
0.16 0.13 0
0.17 0.13 0
0.18 0.13 0
0.19 0.13 0
0.2 0.13 0
0.21 0.13 0
0.22 0.13 0
0.23 0.13 0
0.24 0.13 0
0.25 0.13 0
0.26 0.13 0
0.27 0.13 0
0.28 0.13 0
0.29 0.13 0
0.3 0.13 0
0.31 0.13 0
0.32 0.13 0
0.33 0.13 0
0.34 0.13 0
0.35 0.13 0
0.36 0.13 0
0.37 0.13 0
0.38 0.13 0
0.39 0.13 0
0.4 0.13 0
0.41 0.13 0
0.42 0.13 0
0.43 0.13 0
0.44 0.13 0
0.45 0.13 0
0.46 0.13 0
0.47 0.13 0
0.48 0.13 0
[...]
POINT_DATA 93248

SCALARS v double
LOOKUP_TABLE default
0
0
0
0
0
0
0
0
0
0
0
0
0
0
0
0
0
0
0
0
0
0
0
0
0
0
0
0
0
0
0
0
0
0
0
0
0
0
-0.097726
0
0
0
0
0
-0.103176
0
0
0
0
0
0
0
0
0
0
0
0
0
0
0
0
0
0
0.0450084
-0.0772876
0.047577
0.0339463
0.0170076
0
-0.00566758
-0.0131976
-0.0179992
-0.0212397
-0.0245126
-0.0302855
-0.0301946
-0.0305135
-0.0308249
-0.0311652
-0.030405
-0.0298007
-0.0285389
-0.0374464
-0.03183
-0.0264166
-0.0301619
-0.0305724
-0.0305542
-0.0305404
-0.030535
-0.0305018
-0.0304036
-0.0302322
-0.0303195
-0.0322291
-0.0303992
-0.0295113
-0.0300546
-0.0646515
-0.0288707
-0.0280594
-0.0255232
-0.0327989
-0.0587536
-0.0329899
-0.0341693
-0.03866
-0.0575177
-0.119659
-0.0323678
-0.0440972
-0.0300648
-0.029986
-0.0291004
-0.0330939
-0.0388505
-0.0602981
-0.0372842
-0.084822
-0.0311784
-0.0267852
-0.0234122
-0.0189526
0
0
0.0264623
0.0505795
0.0582336
0.0540423
0.0365944
0.0304823
0.0193391
0.00784851
-0.00289776
-0.0120004
-0.0206152
-0.12064
-0.0360841
-0.0388838
-0.0355214
-0.0426199
-0.0413325
-0.0427683
-0.0455432
-0.153483
-0.0433216
-0.0476479
-0.0433219
-0.0422599
-0.0420258
-0.0420034
-0.0420084
-0.0419635
-0.0418056
-0.0414633
-0.0412457
-0.094579
-0.0414618
-0.0405251
-0.0421762
-0.0416453
-0.0388521
-0.0367144
-0.0412193
-0.0447052
-0.0470108
-0.0467449
-0.0486537
-0.050835
-0.0545402
-0.0529872
-0.0463522
-0.0440972
-0.0424401
-0.0431037
-0.0464884
-0.0459979
-0.0487901
-0.0526539
-0.046884
-0.0437392
-0.0973774
-0.0337599
-0.029626
-0.0259577
0
0
0.0138872
0.0347055
0.0439719
0.0522786
0.0554584
0.0427387
0.0316957
0.0205313
0.00934827
-0.00212094
-0.0125119
-0.0249155
-0.0323126
-0.0383765
-0.0433548
-0.0468023
0
-0.0481161
-0.0499957
-0.0522881
-0.0503495
-0.0500681
-0.048924
-0.0483112
-0.0481008
-0.0480637
-0.0480686
-0.0480475
-0.0479758
-0.0479231
-0.0483053
-0.0502775
-0.0508487
-0.0502441
-0.0468815
-0.046113
-0.0452202
-0.0452773
-0.0478956
-0.0502803
-0.0524608
-0.0541857
-0.0538815
-0.0554597
-0.0565614
-0.0521682
-0.0505689
-0.0494301
-0.049803
-0.049879
-0.050581
-0.050782
-0.0512806
-0.0511376
-0.0489705
-0.0463373
-0.0436304
-0.0375034
-0.0337362
-0.0319529
0
0
0.00840563
0.0238547
0.0375916
0.0405843
0.0417278
0.0368516
0.0296519
0.0210851
0.0118452
0.00219987
-0.00742887
-0.0173043
-0.025891
-0.0335392
-0.0413199
-0.0446757
-0.0461936
-0.0489111
-0.0511797
-0.0513442
-0.0514574
-0.0514692
-0.0513218
-0.0512266
-0.0512235
-0.0512553
-0.0512977
-0.0513239
-0.051329
-0.051374
-0.0516474
-0.0524488
-0.0538002
-0.0531871
-0.0512363
-0.0501074
-0.0496557
-0.0499102
-0.0515777
-0.053185
-0.0546921
-0.0559294
-0.0564139
-0.0569947
-0.0564161
-0.052006
-0.0528109
-0.0528013
-0.0528692
-0.0527586
-0.052608
-0.0522612
-0.0516001
-0.0503954
-0.0485785
-0.0459949
-0.0426442
-0.0384084
-0.0355774
-0.0369294
0
0
0.00543579
0.0153137
0.0233841
0.0271197
0.0280474
0.0258667
0.0209651
0.0145937
0.00777214
0.000547103
-0.00691421
-0.014551
-0.02191
-0.0288406
-0.0335563
-0.0407409
-0.0446597
-0.0478019
-0.0494547
-0.0506017
-0.0514949
-0.0521137
-0.0525278
-0.052835
-0.0530799
-0.0532217
-0.0533445
-0.0534382
-0.0534798
-0.0534652
-0.0534295
-0.0537274
-0.0568616
-0.0553449
-0.0538491
-0.053026
-0.0528562
-0.0532626
-0.0541393
-0.0551025
-0.05601
-0.0567699
-0.0573381
-0.0577291
-0.0573626
0
-0.0544302
-0.0547251
-0.0545022
-0.0541432
-0.0536326
-0.0528528
-0.0516631
-0.0501024
-0.0481969
-0.0458008
-0.0430151
-0.0400569
-0.0369807
-0.0404964
-0.113601
0
0.00359579
0.00963072
0.0142781
0.0165947
0.016804
0.0154311
0.0110648
0
0.00119244
-0.00405789
-0.00964777
-0.0156073
-0.0213128
-0.0271899
-0.033108
-0.0397662
-0.0426501
-0.0444071
-0.0475646
-0.049789
-0.0514841
-0.052665
-0.0534967
-0.0541206
-0.0546117
-0.0548264
-0.0550656
-0.0552553
-0.0553295
-0.0552293
-0.0548667
-0.0543902
-0.124588
-0.0569124
-0.0556699
-0.0553237
-0.0553784
-0.0557309
-0.0562434
-0.0567862
-0.057275
-0.057649
-0.0579475
-0.0578725
-0.0570478
-0.0546958
-0.0553417
-0.0556258
-0.0554841
-0.0550906
-0.0544699
-0.0535119
-0.0520888
-0.0504666
-0.048681
-0.0468031
-0.0455188
-0.0467688
-0.0509026
-0.0412325
0
0
0.00237063
0.00577421
0.00812548
0.00889109
0.00795172
0.00510232
0.00294346
-0.00108373
-0.00521733
-0.00945359
-0.014065
-0.0194723
-0.0232619
-0.0279
-0.0332959
-0.0404869
-0.0420846
-0.0440802
-0.0472448
-0.0499649
-0.0521753
-0.0536462
-0.0546872
-0.0555115
-0.0562233
-0.0564374
-0.0568748
-0.0571927
-0.0573264
-0.0572489
-0.0571024
-0.0574092
-0.0595954
-0.0587598
-0.0580534
-0.0577616
-0.0577837
-0.0579886
-0.0582623
-0.0585313
-0.0587536
-0.0589008
-0.0587998
-0.0585431
-0.0579324
-0.0570859
-0.0568794
-0.0567699
-0.0565185
-0.0560964
-0.0554864
-0.0545514
-0.0529962
-0.0515146
-0.0499974
-0.0483602
-0.0468467
-0.0889171
-0.028842
-0.0400984
0
0
0.00152304
0.00306203
0.00377281
0.00330065
0.00156627
-0.00128269
-0.00423273
-0.00772066
-0.0112783
-0.0148608
-0.0190486
-0.0266072
-0.02191
-0.0297088
-0.0329981
-0.0337916
-0.0402289
-0.045906
-0.0491301
-0.0514399
-0.0538703
-0.0551496
-0.0561676
-0.0570361
-0.0564374
-0.0585638
-0.0590865
-0.0594532
-0.0596209
-0.0594923
-0.0592908
-0.0595086
-0.0601739
-0.060249
-0.0601298
-0.0600544
-0.0601081
-0.0602205
-0.0603327
-0.060412
-0.0604339
-0.0603684
-0.060158
-0.0598284
-0.0593775
-0.0589056
-0.0585299
-0.0581831
-0.0577784
-0.0572903
-0.0567319
-0.0560673
-0.0542926
-0.0531578
-0.0520376
-0.050831
-0.0496146
-0.0480978
-0.0424869
-0.0410727
0
0
0.000921741
0.00109207
0.000576534
-0.000876378
-0.0032593
-0.00637689
-0.009781
-0.0132773
-0.016597
-0.0195852
-0.0218671
-0.0199668
-0.0276984
-0.0322957
-0.0355214
-0.0381101
-0.0427939
-0.0471293
-0.0503337
-0.052649
-0.0716006
-0.0567157
-0.0577693
-0.0588104
-0.0598991
-0.0605829
-0.0613248
-0.0619245
-0.062239
-0.0619679
-0.0611818
-0.0612505
-0.0617049
-0.0620364
-0.0622062
-0.0622789
-0.0623986
-0.062477
-0.0624863
-0.0624358
-0.0623212
-0.0621268
-0.0618375
-0.061477
-0.0610729
-0.0606588
-0.0602283
-0.0597556
-0.0592111
-0.0585977
-0.0579328
-0.0571933
-0.0558252
-0.0553219
-0.0544849
-0.0534405
-0.0521948
-0.0503687
-0.0471443
-0.042861
0
0
0.000485054
-0.000383333
-0.00184865
-0.00413117
-0.00709917
-0.010614
-0.014364
-0.018052
-0.0214356
-0.0243969
-0.0268542
-0.0289128
-0.0329217
-0.0366517
-0.0393404
-0.0424327
-0.0460479
-0.0494676
-0.0523795
-0.0548186
-0.057101
-0.0585168
-0.0596799
-0.0606793
-0.0612761
-0.062696
-0.0638253
-0.0647604
-0.0654103
-0.0655225
-0.0619159
-0.062807
-0.0636707
-0.0641788
-0.0644669
-0.0646515
-0.0646537
-0.0647762
-0.0647221
-0.064586
-0.0643835
-0.0641096
-0.063743
-0.0633407
-0.062924
-0.0624927
-0.0620179
-0.0614593
-0.0607903
-0.0600338
-0.0590763
-0.0580253
-0.0589931
-0.0581644
-0.0571233
-0.0560057
-0.054655
-0.0527006
-0.0496419
-0.044844
0
0
0.000159073
-0.00152673
-0.00374339
-0.00804259
-0.0102803
-0.0142368
-0.0183674
-0.0223612
-0.0260122
-0.0292736
-0.0322347
-0.035231
-0.0386301
-0.0419827
-0.0432352
-0.0465761
-0.0498074
-0.0526779
-0.0552223
-0.0573438
-0.0592452
-0.0606712
-0.0618484
-0.0629103
-0.0639611
-0.0652678
-0.0666704
-0.0679626
-0.0688437
-0.0690609
0
-0.0653885
-0.0662557
-0.0666091
-0.0668462
-0.0670326
-0.0671653
-0.0671072
-0.0670323
-0.0668406
-0.0665847
-0.0662889
-0.0658043
-0.0653425
-0.0648963
-0.0644417
-0.0639384
-0.063324
-0.0625765
-0.0619272
-0.0612424
-0.0606956
-0.0607885
-0.0602981
-0.0594611
-0.0584014
-0.0570066
-0.0549548
-0.0517832
-0.0468177
0
0
-9.5507e-05
-0.00246347
-0.0053644
-0.00889651
-0.0130062
-0.0174613
-0.0220095
-0.0263839
-0.0304
-0.0340624
-0.0374367
-0.0407623
-0.0441968
-0.0478618
0
-0.0511042
-0.0540308
-0.0563901
-0.0587075
-0.0605195
-0.0619736
-0.063169
-0.0642387
-0.0652961
-0.0664763
-0.067943
-0.0697739
-0.0715582
-0.072425
-0.0708511
-0.0676642
-0.0678566
-0.068384
-0.0688152
-0.069145
-0.0694042
-0.0695897
-0.0696524
-0.0695072
-0.0691957
-0.0688703
-0.0687911
-0.0679454
-0.0674232
-0.0669626
-0.0665069
-0.0660115
-0.065373
-0.0645006
-0.0641445
-0.0637412
-0.0632972
-0.0629123
-0.0623957
-0.0616714
-0.0606826
-0.0592675
-0.0571584
-0.0538684
-0.0487366
0
0
-0.000301423
-0.0032533
-0.0067346
-0.010659
-0.0154389
-0.0203991
-0.0253972
-0.0301963
-0.0346171
-0.0387168
-0.0423919
-0.0458834
-0.0491753
-0.05201
-0.053227
-0.0557806
-0.0580524
-0.0600701
-0.062692
-0.0641129
-0.0650658
-0.0659138
-0.0667704
-0.06771
-0.0688577
-0.0704628
-0.0729157
-0.0757774
-0.0788284
-0.0741689
-0.0713421
-0.0706411
-0.0707715
-0.0711066
-0.0714689
-0.0718247
-0.0720936
-0.0723638
-0.0721324
-0.0715817
-0.0708724
-0.069621
-0.0697948
-0.0694981
-0.0690878
-0.068666
-0.0682315
-0.0676284
-0.0663794
-0.0665943
-0.0663619
-0.0658417
-0.0652183
-0.0646454
-0.0639497
-0.0629863
-0.0614465
-0.059356
-0.0559237
-0.0505851
0
0
-0.000476416
-0.00395352
-0.00804259
-0.0128875
-0.0178069
-0.0231623
-0.0286048
-0.0338535
-0.0387168
-0.0431503
-0.0471539
-0.0508061
-0.0540751
-0.056793
-0.058823
-0.0607209
-0.0623107
-0.0637154
-0.0676576
-0.0680009
-0.0682658
-0.0687351
-0.0693453
-0.0700592
-0.0709521
-0.0723017
-0.0749208
-0.0534798
-0.0969954
-0.0771527
-0.0731404
-0.0726499
-0.072885
-0.0732754
-0.0737371
-0.0743277
-0.0751482
-0.0754884
-0.0750628
-0.0741606
-0.0732582
-0.0724864
-0.0720837
-0.0716891
-0.0712628
-0.0708689
-0.0705273
-0.0701185
-0.0528692
-0.0693839
-0.0691034
-0.0684037
-0.0674455
-0.0670402
-0.0663825
-0.0655348
-0.0643428
-0.0617351
-0.0579792
-0.0523358
0
0
-0.000628263
-0.00454168
-0.00912094
-0.0143138
-0.0198866
-0.0257478
-0.0316634
-0.0373818
-0.0426913
-0.0474937
-0.0517789
-0.0556149
-0.0589791
-0.0617703
-0.0639496
-0.0655949
-0.0666628
-0.0670127
-0.140488
-0.0715401
-0.071304
-0.0716006
-0.0719849
-0.0723682
-0.0726805
-0.0727208
-0.071551
-0.064673
-0.032727
-0.0617643
-0.0701205
-0.0730061
-0.0742734
-0.0750511
-0.0757554
-0.0766605
-0.0779192
-0.0791265
-0.0786674
-0.0770654
-0.075788
-0.0749739
-0.07442
-0.0739352
-0.0734411
-0.0730285
-0.0726359
-0.0721971
-0.0716207
-0.0721668
-0.0718065
-0.0711986
-0.0710471
-0.0697848
-0.0688928
-0.0681462
-0.0667144
-0.064175
-0.0600594
-0.0539283
0
0
-0.000794062
-0.00501809
-0.0101019
-0.0157814
-0.0218806
-0.0282073
-0.0345943
-0.0408058
-0.0465815
-0.0517667
-0.0562936
-0.0603246
-0.063851
-0.0667672
-0.0689928
-0.0705657
-0.0716528
-0.0726933
-0.0751954
-0.0751236
-0.0749378
-0.0748943
-0.0749091
-0.0748681
-0.074601
-0.073743
-0.0715136
-0.0670125
-0.0611771
-0.0670905
-0.0715834
-0.0741577
-0.0756463
-0.0766406
-0.0775089
-0.0786902
-0.0806742
-0.0836506
-0.084645
-0.0805119
-0.0782469
-0.0772067
-0.0766064
-0.0761022
-0.0755379
-0.0751614
-0.0747734
-0.0744516
-0.0745479
-0.0755155
-0.0746334
-0.0737535
-0.073163
-0.0723755
-0.0709295
-0.0710825
-0.0696658
-0.0671196
-0.0624503
-0.0552474
0
0
-0.00104231
0.00109207
-0.0110632
-0.0172916
-0.0238585
-0.0304836
-0.0373973
-0.044168
-0.0504518
-0.056032
-0.0606706
-0.0649034
-0.068662
-0.0717708
-0.0740589
-0.0755787
-0.0765919
-0.0774748
-0.0783434
-0.0785242
-0.078412
-0.0782195
-0.0779805
-0.0776415
-0.077071
-0.07603
-0.0741987
-0.0725157
-0.0724339
-0.0737712
-0.0753063
-0.0765967
-0.0775917
-0.0783774
-0.0790261
-0.079999
-0.0820424
-0.0874464
-0.101764
-0.083452
-0.0795406
-0.078697
-0.0783572
-0.078036
-0.0755379
-0.0772672
-0.0769157
-0.0766266
-0.0769969
-0.0795163
-0.0773444
-0.076247
-0.0758678
-0.0760073
-0.077758
-0.0753543
-0.0735248
-0.0712843
-0.0662545
-0.0561048
0
0
-0.00102244
-0.00607264
-0.0120328
-0.0188001
-0.0259353
-0.0330111
-0.0403505
-0.0476212
-0.0544167
-0.0604184
-0.0647709
-0.0693036
-0.073426
-0.0768459
-0.0792109
-0.0806054
-0.0814088
-0.0820564
-0.0823324
-0.0822539
-0.0819807
-0.0816177
-0.0811934
-0.0806912
-0.0800661
-0.0792712
-0.0783229
-0.0768966
-0.0792155
-0.0788854
-0.0789842
-0.0794016
-0.0798798
-0.0802603
-0.0802966
-0.0800931
-0.078636
-0.0716133
-0.0387651
-0.0682319
-0.0761003
-0.0786338
-0.0794261
-0.0795907
-0.0794623
-0.0793187
-0.0790743
-0.0787625
-0.0789058
-0.128017
-0.0795066
-0.0787028
-0.0786612
-0.07884
-0.0790282
-0.0783835
-0.0784231
-0.0773203
-0.0755222
-0.0721146
0
0
-0.00108437
-0.0066021
-0.0129562
-0.0205026
-0.0281799
-0.0346744
-0.0428921
-0.0509671
-0.0584717
-0.065129
-0.0681882
-0.0735926
-0.0782326
-0.0821493
-0.08454
-0.085652
-0.0861266
-0.0867972
-0.08667
-0.0862202
-0.0856852
-0.0851236
-0.084539
-0.0839378
-0.0833402
-0.0827856
-0.0820787
-0.0805596
-0.138028
-0.0826404
-0.0821067
-0.0822237
-0.0823605
-0.0822313
-0.0819517
-0.0808515
-0.0783622
-0.0734279
-0.0669983
-0.0723865
-0.0771107
-0.0794584
-0.0806056
-0.0811601
-0.0813933
-0.0814596
-0.0814648
-0.0815418
-0.0820715
-0.0836522
-0.0823939
-0.0817541
-0.0816534
-0.0817498
-0.0818127
-0.0818917
-0.0820092
-0.0813168
-0.0790432
-0.0729118
0
0
-0.00117973
-0.00708631
-0.0136998
-0.0334269
-0.0307065
0
-0.0456315
-0.0544831
-0.0626293
-0.0704012
-0.00964777
-0.0783221
-0.0831463
-0.0878999
-0.0900992
-0.0906218
-0.0905986
-0.0919378
-0.0911104
-0.0902195
-0.0894328
-0.0886978
-0.0879621
-0.0872641
-0.086676
-0.0864186
-0.0873357
-0.0854373
-0.0865324
-0.0858911
-0.0854664
-0.0853551
-0.0853036
-0.0849249
-0.0841506
-0.0828446
-0.0808989
-0.0786155
-0.0774932
-0.0785419
-0.0802206
-0.0815148
-0.0823927
-0.0830658
-0.0834944
-0.0837127
-0.0839131
-0.0841639
-0.0845261
-0.0848766
-0.0846473
-0.0844973
-0.0845817
-0.0847509
-0.084822
-0.084993
-0.0848971
-0.0838897
-0.0810339
-0.0742413
0
0
-0.00129593
-0.00762765
-0.0148244
-0.023178
-0.0316658
-0.0393909
-0.0485773
-0.0576762
-0.0661424
-0.0734082
-0.0777084
-0.0830709
-0.087209
-0.0946557
-0.0953406
-0.0952055
-0.0945418
-0.135738
-0.0952066
-0.0940568
-0.0931839
-0.0923273
-0.0914115
-0.0905545
-0.0897379
-0.0886757
-0.0852123
-0.0875233
-0.0884076
-0.0884543
-0.0883762
-0.0884366
-0.0885774
-0.0881558
-0.0870289
-0.0857349
-0.0843516
-0.0832501
-0.0829292
-0.0831711
-0.0836974
-0.084214
-0.0845104
-0.0853435
-0.0858544
-0.0860676
-0.0863678
-0.0866616
-0.0868728
-0.086882
-0.0868026
-0.0869897
-0.0873654
-0.0877103
-0.0876695
-0.0877658
-0.087351
-0.085901
-0.0828222
-0.0758476
0
0
-0.00141015
-0.00814125
-0.0157636
-0.0242308
-0.0331342
-0.0421612
-0.051584
-0.0610296
-0.0699572
-0.0778346
-0.0834058
-0.0883232
-0.0919751
-0.188641
-0.0998406
-0.0995744
-0.0995343
-0.10017
-0.0992457
-0.0981765
-0.0971494
-0.0961026
-0.0948627
-0.0938469
-0.0929532
-0.0919787
-0.0908941
-0.0909787
-0.0910606
-0.09104
-0.0910734
-0.0914054
-0.0922107
-0.0924433
-0.0903879
-0.0890372
-0.0877907
-0.0870504
-0.086789
-0.0868018
-0.0869684
-0.0873
-0.0882607
-0.0880997
-0.0884499
-0.0885063
-0.08889
-0.0891947
-0.0893282
-0.0891027
-0.0888292
-0.0893529
-0.0900332
-0.0905954
-0.0903993
-0.0904546
-0.0896105
-0.0875723
-0.0846165
-0.0776292
0
0
-0.00152141
-0.00864003
-0.0166678
-0.0255
-0.0348934
-0.0445658
-0.0543073
-0.0643614
-0.0739874
-0.0840367
-0.0886335
-0.0938203
-0.0985011
-0.103648
-0.104672
-0.104654
-0.104338
-0.104076
-0.103265
-0.102227
-0.10114
-0.099963
-0.0981403
-0.0971074
-0.0963281
-0.0955524
-0.0948543
-0.0943301
-0.0939226
-0.093645
-0.0935179
-0.0938645
-0.0956096
-0.100889
-0.093483
-0.0926055
-0.090744
-0.0901316
-0.0899305
-0.0898819
-0.0898955
-0.0899641
-0.0902669
-0.0904669
-0.0906567
-0.0913406
-0.0915943
-0.0918378
-0.0919436
-0.0913374
-0.0902151
-0.091962
-0.0926185
-0.0928174
-0.0937631
-0.0933787
-0.0918573
-0.0887201
-0.0864649
-0.0795506
0
0
-0.00163623
-0.00915066
-0.0176129
-0.0269173
-0.0368442
-0.0469609
-0.0563439
-0.0674854
-0.0766356
-0.0814205
-0.0917206
-0.0986919
-0.103809
-0.107514
-0.10918
-0.109379
-0.10852
-0.108426
-0.107477
-0.106321
-0.105191
-0.104014
-0.100927
-0.100377
-0.0998205
-0.0990922
-0.0983112
-0.0973017
-0.0967721
-0.0961338
-0.0954397
-0.094579
-0.091746
-0.0775061
-0.088649
-0.0892923
-0.091777
-0.092412
-0.0925681
-0.092615
-0.092551
-0.0923307
-0.0925378
-0.0929186
-0.0933112
-0.093776
-0.0941191
-0.0944456
-0.0947236
-0.0938929
-0.0910555
-0.0948737
-0.0955612
-0.0958551
-0.0962987
-0.0961059
-0.0942583
-0.0889171
-0.0886028
-0.0815747
0
0
-0.00175823
-0.00968432
-0.0186169
-0.028472
-0.0390954
-0.0503316
-0.0630429
-0.0717714
-0.0807791
-0.0888758
-0.0971174
-0.103887
-0.108984
-0.112381
-0.11417
-0.1148
-0.115669
-0.113483
-0.111855
-0.110435
-0.109237
-0.108355
-0.0588104
-0.104023
-0.10349
-0.102537
-0.101591
-0.0943301
-0.0995301
-0.0985827
-0.0971314
-0.096232
-0.0939125
-0.0907084
-0.0921942
-0.0931188
-0.0941373
-0.0947262
-0.0950477
-0.0952135
-0.0950997
-0.0943787
-0.0947997
-0.0954019
-0.0958879
-0.0962744
-0.0965879
-0.0968687
-0.0971237
-0.0974192
-0.0330939
-0.112423
-0.0984024
-0.0985608
-0.098833
-0.0988452
-0.0973774
-0.0234122
-0.0915257
-0.0836093
0
0
-0.00188503
-0.0102324
-0.0196568
-0.030087
-0.0413591
-0.0532115
-0.0651507
-0.0750635
-0.0850224
-0.0943318
-0.102585
-0.10933
-0.114359
-0.117646
-0.119376
-0.119867
-0.119357
-0.117772
-0.116025
-0.114363
-0.112827
-0.111178
-0.108647
-0.107635
-0.106763
-0.105564
-0.104398
-0.103217
-0.102357
-0.101602
-0.101631
-0.0993905
-0.0976869
-0.0965821
-0.0964389
-0.0966413
-0.0969868
-0.0973197
-0.0976185
-0.0978709
-0.0977668
-0.0959233
-0.0971309
-0.0979755
-0.0984596
-0.0987776
-0.0990293
-0.0992372
-0.0993464
-0.0990934
-0.0976172
-0.0999189
-0.100601
-0.100907
-0.101025
-0.100699
-0.0991207
-0.0951755
-0.0931053
-0.0855144
0
0
-0.00200805
-0.0107716
-0.0207021
-0.0317372
-0.043665
-0.0561791
-0.0687231
-0.0778445
-0.0891922
-0.0994476
-0.108084
-0.114923
-0.119916
-0.12308
-0.124682
-0.124939
-0.123771
-0.121924
-0.119974
-0.118129
-0.116493
-0.114821
-0.112806
-0.111434
-0.1102
-0.108462
-0.107158
-0.106087
-0.105166
-0.104323
-0.103496
-0.102251
-0.101123
-0.100367
-0.0999561
-0.0998104
-0.0998395
-0.0999794
-0.100209
-0.100535
-0.100712
-0.0621268
-0.0998661
-0.100649
-0.100984
-0.101225
-0.101432
-0.101601
-0.101692
-0.101654
-0.101619
-0.10229
-0.102837
-0.103164
-0.103244
-0.102901
-0.101682
-0.0994564
-0.0956279
-0.0874835
0
0
-0.00210886
-0.0112571
-0.0217175
-0.0334269
-0.0460468
-0.0593454
-0.0732296
-0.0179992
-0.0939666
-0.104936
-0.113738
-0.12064
-0.125563
-0.128561
-0.130023
-0.130227
-0.128237
-0.125918
-0.123752
-0.121783
-0.120252
-0.118401
-0.116469
-0.114768
-0.113393
-0.111099
-0.10994
-0.108923
-0.107949
-0.106994
-0.10602
-0.105019
-0.104117
-0.103416
-0.102926
-0.102637
-0.102519
-0.102533
-0.102636
-0.102738
-0.102557
-0.101495
-0.102269
-0.102884
-0.103278
-0.10356
-0.103792
-0.103987
-0.104144
-0.104297
-0.104538
-0.104889
-0.105266
-0.10556
-0.105685
-0.10557
-0.1052
-0.102699
-0.0982364
-0.0895604
0
0
-0.00214923
-0.0115963
-0.0226875
-0.0351988
-0.04844
-0.0621422
-0.0756084
-0.0868011
-0.0991565
-0.110157
-0.119266
-0.126311
-0.131228
-0.133999
-0.135084
-0.135796
-0.132303
-0.129688
-0.127491
-0.125403
-0.124304
-0.122021
-0.119779
-0.117573
-0.115044
-0.114494
-0.113157
-0.111882
-0.110722
-0.109649
-0.108629
-0.107671
-0.106811
-0.106086
-0.105538
-0.105181
-0.104996
-0.104948
-0.104985
-0.105021
-0.104937
-0.10474
-0.104936
-0.105271
-0.105599
-0.105883
-0.106142
-0.106376
-0.106586
-0.106825
-0.107122
-0.107446
-0.107785
-0.108081
-0.108225
-0.108109
-0.10747
-0.105359
-0.100711
-0.0917131
0
0
-0.00207126
-0.0115554
-0.0239332
-0.0370528
-0.0509838
-0.0652589
-0.079281
-0.0924012
-0.10483
-0.115882
-0.125087
-0.132186
-0.137083
-0.139963
-0.142082
-0.141532
-0.135738
-0.133829
-0.131722
-0.129232
-0.147924
-0.125492
-0.122945
-0.120663
-0.118172
-0.116813
-0.115595
-0.1144
-0.113249
-0.112153
-0.111118
-0.110155
-0.109269
-0.108472
-0.107864
-0.107478
-0.107282
-0.107231
-0.107284
-0.107374
-0.107417
-0.107368
-0.107457
-0.107702
-0.107988
-0.108239
-0.108505
-0.108759
-0.108972
-0.109246
-0.109588
-0.109951
-0.110327
-0.110668
-0.110787
-0.110583
-0.109897
-0.107872
-0.103151
-0.0939051
0
0
-0.00195256
-0.010162
-0.0253528
-0.0395102
-0.05409
-0.0689752
-0.0837263
-0.0977431
-0.110585
-0.121856
-0.131173
-0.138253
-0.14295
-0.145245
-0.144881
-0.140672
-0.143062
-0.14036
-0.137051
-0.133923
-0.131563
-0.128747
-0.126155
-0.123813
-0.120579
-0.119227
-0.118026
-0.116822
-0.115642
-0.114515
-0.113459
-0.112471
-0.111521
-0.110579
-0.109912
-0.109541