# vtk DataFile Version 2.0
FlowField
ASCII
DATASET STRUCTURED_GRID
DIMENSIONS 62 47 32 
POINTS 93248 double
0 0 0
0.01 0 0
0.02 0 0
0.03 0 0
0.04 0 0
0.05 0 0
0.06 0 0
0.07 0 0
0.08 0 0
0.09 0 0
0.1 0 0
0.11 0 0
0.12 0 0
0.13 0 0
0.14 0 0
0.15 0 0
0.16 0 0
0.17 0 0
0.18 0 0
0.19 0 0
0.2 0 0
0.21 0 0
0.22 0 0
0.23 0 0
0.24 0 0
0.25 0 0
0.26 0 0
0.27 0 0
0.28 0 0
0.29 0 0
0.3 0 0
0.31 0 0
0.32 0 0
0.33 0 0
0.34 0 0
0.35 0 0
0.36 0 0
0.37 0 0
0.38 0 0
0.39 0 0
0.4 0 0
0.41 0 0
0.42 0 0
0.43 0 0
0.44 0 0
0.45 0 0
0.46 0 0
0.47 0 0
0.48 0 0
0.49 0 0
0.5 0 0
0.51 0 0
0.52 0 0
0.53 0 0
0.54 0 0
0.55 0 0
0.56 0 0
0.57 0 0
0.58 0 0
0.59 0 0
0.6 0 0
0.61 0 0
0 0.01 0
0.01 0.01 0
0.02 0.01 0
0.03 0.01 0
0.04 0.01 0
0.05 0.01 0
0.06 0.01 0
0.07 0.01 0
0.08 0.01 0
0.09 0.01 0
0.1 0.01 0
0.11 0.01 0
0.12 0.01 0
0.13 0.01 0
0.14 0.01 0
0.15 0.01 0
0.16 0.01 0
0.17 0.01 0
0.18 0.01 0
0.19 0.01 0
0.2 0.01 0
0.21 0.01 0
0.22 0.01 0
0.23 0.01 0
0.24 0.01 0
0.25 0.01 0
0.26 0.01 0
0.27 0.01 0
0.28 0.01 0
0.29 0.01 0
0.3 0.01 0
0.31 0.01 0
0.32 0.01 0
0.33 0.01 0
0.34 0.01 0
0.35 0.01 0
0.36 0.01 0
0.37 0.01 0
0.38 0.01 0
0.39 0.01 0
0.4 0.01 0
0.41 0.01 0
0.42 0.01 0
0.43 0.01 0
0.44 0.01 0
0.45 0.01 0
0.46 0.01 0
0.47 0.01 0
0.48 0.01 0
0.49 0.01 0
0.5 0.01 0
0.51 0.01 0
0.52 0.01 0
0.53 0.01 0
0.54 0.01 0
0.55 0.01 0
0.56 0.01 0
0.57 0.01 0
0.58 0.01 0
0.59 0.01 0
0.6 0.01 0
0.61 0.01 0
0 0.02 0
0.01 0.02 0
0.02 0.02 0
0.03 0.02 0
0.04 0.02 0
0.05 0.02 0
0.06 0.02 0
0.07 0.02 0
0.08 0.02 0
0.09 0.02 0
0.1 0.02 0
0.11 0.02 0
0.12 0.02 0
0.13 0.02 0
0.14 0.02 0
0.15 0.02 0
0.16 0.02 0
0.17 0.02 0
0.18 0.02 0
0.19 0.02 0
0.2 0.02 0
0.21 0.02 0
0.22 0.02 0
0.23 0.02 0
0.24 0.02 0
0.25 0.02 0
0.26 0.02 0
0.27 0.02 0
0.28 0.02 0
0.29 0.02 0
0.3 0.02 0
0.31 0.02 0
0.32 0.02 0
0.33 0.02 0
0.34 0.02 0
0.35 0.02 0
0.36 0.02 0
0.37 0.02 0
0.38 0.02 0
0.39 0.02 0
0.4 0.02 0
0.41 0.02 0
0.42 0.02 0
0.43 0.02 0
0.44 0.02 0
0.45 0.02 0
0.46 0.02 0
0.47 0.02 0
0.48 0.02 0
0.49 0.02 0
0.5 0.02 0
0.51 0.02 0
0.52 0.02 0
0.53 0.02 0
0.54 0.02 0
0.55 0.02 0
0.56 0.02 0
0.57 0.02 0
0.58 0.02 0
0.59 0.02 0
0.6 0.02 0
0.61 0.02 0
0 0.03 0
0.01 0.03 0
0.02 0.03 0
0.03 0.03 0
0.04 0.03 0
0.05 0.03 0
0.06 0.03 0
0.07 0.03 0
0.08 0.03 0
0.09 0.03 0
0.1 0.03 0
0.11 0.03 0
0.12 0.03 0
0.13 0.03 0
0.14 0.03 0
0.15 0.03 0
0.16 0.03 0
0.17 0.03 0
0.18 0.03 0
0.19 0.03 0
0.2 0.03 0
0.21 0.03 0
0.22 0.03 0
0.23 0.03 0
0.24 0.03 0
0.25 0.03 0
0.26 0.03 0
0.27 0.03 0
0.28 0.03 0
0.29 0.03 0
0.3 0.03 0
0.31 0.03 0
0.32 0.03 0
0.33 0.03 0
0.34 0.03 0
0.35 0.03 0
0.36 0.03 0
0.37 0.03 0
0.38 0.03 0
0.39 0.03 0
0.4 0.03 0
0.41 0.03 0
0.42 0.03 0
0.43 0.03 0
0.44 0.03 0
0.45 0.03 0
0.46 0.03 0
0.47 0.03 0
0.48 0.03 0
0.49 0.03 0
0.5 0.03 0
0.51 0.03 0
0.52 0.03 0
0.53 0.03 0
0.54 0.03 0
0.55 0.03 0
0.56 0.03 0
0.57 0.03 0
0.58 0.03 0
0.59 0.03 0
0.6 0.03 0
0.61 0.03 0
0 0.04 0
0.01 0.04 0
0.02 0.04 0
0.03 0.04 0
0.04 0.04 0
0.05 0.04 0
0.06 0.04 0
0.07 0.04 0
0.08 0.04 0
0.09 0.04 0
0.1 0.04 0
0.11 0.04 0
0.12 0.04 0
0.13 0.04 0
0.14 0.04 0
0.15 0.04 0
0.16 0.04 0
0.17 0.04 0
0.18 0.04 0
0.19 0.04 0
0.2 0.04 0
0.21 0.04 0
0.22 0.04 0
0.23 0.04 0
0.24 0.04 0
0.25 0.04 0
0.26 0.04 0
0.27 0.04 0
0.28 0.04 0
0.29 0.04 0
0.3 0.04 0
0.31 0.04 0
0.32 0.04 0
0.33 0.04 0
0.34 0.04 0
0.35 0.04 0
0.36 0.04 0
0.37 0.04 0
0.38 0.04 0
0.39 0.04 0
0.4 0.04 0
0.41 0.04 0
0.42 0.04 0
0.43 0.04 0
0.44 0.04 0
0.45 0.04 0
0.46 0.04 0
0.47 0.04 0
0.48 0.04 0
0.49 0.04 0
0.5 0.04 0
0.51 0.04 0
0.52 0.04 0
0.53 0.04 0
0.54 0.04 0
0.55 0.04 0
0.56 0.04 0
0.57 0.04 0
0.58 0.04 0
0.59 0.04 0
0.6 0.04 0
0.61 0.04 0
0 0.05 0
0.01 0.05 0
0.02 0.05 0
0.03 0.05 0
0.04 0.05 0
0.05 0.05 0
0.06 0.05 0
0.07 0.05 0
0.08 0.05 0
0.09 0.05 0
0.1 0.05 0
0.11 0.05 0
0.12 0.05 0
0.13 0.05 0
0.14 0.05 0
0.15 0.05 0
0.16 0.05 0
0.17 0.05 0
0.18 0.05 0
0.19 0.05 0
0.2 0.05 0
0.21 0.05 0
0.22 0.05 0
0.23 0.05 0
0.24 0.05 0
0.25 0.05 0
0.26 0.05 0
0.27 0.05 0
0.28 0.05 0
0.29 0.05 0
0.3 0.05 0
0.31 0.05 0
0.32 0.05 0
0.33 0.05 0
0.34 0.05 0
0.35 0.05 0
0.36 0.05 0
0.37 0.05 0
0.38 0.05 0
0.39 0.05 0
0.4 0.05 0
0.41 0.05 0
0.42 0.05 0
0.43 0.05 0
0.44 0.05 0
0.45 0.05 0
0.46 0.05 0
0.47 0.05 0
0.48 0.05 0
0.49 0.05 0
0.5 0.05 0
0.51 0.05 0
0.52 0.05 0
0.53 0.05 0
0.54 0.05 0
0.55 0.05 0
0.56 0.05 0
0.57 0.05 0
0.58 0.05 0
0.59 0.05 0
0.6 0.05 0
0.61 0.05 0
0 0.06 0
0.01 0.06 0
0.02 0.06 0
0.03 0.06 0
0.04 0.06 0
0.05 0.06 0
0.06 0.06 0
0.07 0.06 0
0.08 0.06 0
0.09 0.06 0
0.1 0.06 0
0.11 0.06 0
0.12 0.06 0
0.13 0.06 0
0.14 0.06 0
0.15 0.06 0
0.16 0.06 0
0.17 0.06 0
0.18 0.06 0
0.19 0.06 0
0.2 0.06 0
0.21 0.06 0
0.22 0.06 0
0.23 0.06 0
0.24 0.06 0
0.25 0.06 0
0.26 0.06 0
0.27 0.06 0
0.28 0.06 0
0.29 0.06 0
0.3 0.06 0
0.31 0.06 0
0.32 0.06 0
0.33 0.06 0
0.34 0.06 0
0.35 0.06 0
0.36 0.06 0
0.37 0.06 0
0.38 0.06 0
0.39 0.06 0
0.4 0.06 0
0.41 0.06 0
0.42 0.06 0
0.43 0.06 0
0.44 0.06 0
0.45 0.06 0
0.46 0.06 0
0.47 0.06 0
0.48 0.06 0
0.49 0.06 0
0.5 0.06 0
0.51 0.06 0
0.52 0.06 0
0.53 0.06 0
0.54 0.06 0
0.55 0.06 0
0.56 0.06 0
0.57 0.06 0
0.58 0.06 0
0.59 0.06 0
0.6 0.06 0
0.61 0.06 0
0 0.07 0
0.01 0.07 0
0.02 0.07 0
0.03 0.07 0
0.04 0.07 0
0.05 0.07 0
0.06 0.07 0
0.07 0.07 0
0.08 0.07 0
0.09 0.07 0
0.1 0.07 0
0.11 0.07 0
0.12 0.07 0
0.13 0.07 0
0.14 0.07 0
0.15 0.07 0
0.16 0.07 0
0.17 0.07 0
0.18 0.07 0
0.19 0.07 0
0.2 0.07 0
0.21 0.07 0
0.22 0.07 0
0.23 0.07 0
0.24 0.07 0
0.25 0.07 0
0.26 0.07 0
0.27 0.07 0
0.28 0.07 0
0.29 0.07 0
0.3 0.07 0
0.31 0.07 0
0.32 0.07 0
0.33 0.07 0
0.34 0.07 0
0.35 0.07 0
0.36 0.07 0
0.37 0.07 0
0.38 0.07 0
0.39 0.07 0
0.4 0.07 0
0.41 0.07 0
0.42 0.07 0
0.43 0.07 0
0.44 0.07 0
0.45 0.07 0
0.46 0.07 0
0.47 0.07 0
0.48 0.07 0
0.49 0.07 0
0.5 0.07 0
0.51 0.07 0
0.52 0.07 0
0.53 0.07 0
0.54 0.07 0
0.55 0.07 0
0.56 0.07 0
0.57 0.07 0
0.58 0.07 0
0.59 0.07 0
0.6 0.07 0
0.61 0.07 0
0 0.08 0
0.01 0.08 0
0.02 0.08 0
0.03 0.08 0
0.04 0.08 0
0.05 0.08 0
0.06 0.08 0
0.07 0.08 0
0.08 0.08 0
0.09 0.08 0
0.1 0.08 0
0.11 0.08 0
0.12 0.08 0
0.13 0.08 0
0.14 0.08 0
0.15 0.08 0
0.16 0.08 0
0.17 0.08 0
0.18 0.08 0
0.19 0.08 0
0.2 0.08 0
0.21 0.08 0
0.22 0.08 0
0.23 0.08 0
0.24 0.08 0
0.25 0.08 0
0.26 0.08 0
0.27 0.08 0
0.28 0.08 0
0.29 0.08 0
0.3 0.08 0
0.31 0.08 0
0.32 0.08 0
0.33 0.08 0
0.34 0.08 0
0.35 0.08 0
0.36 0.08 0
0.37 0.08 0
0.38 0.08 0
0.39 0.08 0
0.4 0.08 0
0.41 0.08 0
0.42 0.08 0
0.43 0.08 0
0.44 0.08 0
0.45 0.08 0
0.46 0.08 0
0.47 0.08 0
0.48 0.08 0
0.49 0.08 0
0.5 0.08 0
0.51 0.08 0
0.52 0.08 0
0.53 0.08 0
0.54 0.08 0
0.55 0.08 0
0.56 0.08 0
0.57 0.08 0
0.58 0.08 0
0.59 0.08 0
0.6 0.08 0
0.61 0.08 0
0 0.09 0
0.01 0.09 0
0.02 0.09 0
0.03 0.09 0
0.04 0.09 0
0.05 0.09 0
0.06 0.09 0
0.07 0.09 0
0.08 0.09 0
0.09 0.09 0
0.1 0.09 0
0.11 0.09 0
0.12 0.09 0
0.13 0.09 0
0.14 0.09 0
0.15 0.09 0
0.16 0.09 0
0.17 0.09 0
0.18 0.09 0
0.19 0.09 0
0.2 0.09 0
0.21 0.09 0
0.22 0.09 0
0.23 0.09 0
0.24 0.09 0
0.25 0.09 0
0.26 0.09 0
0.27 0.09 0
0.28 0.09 0
0.29 0.09 0
0.3 0.09 0
0.31 0.09 0
0.32 0.09 0
0.33 0.09 0
0.34 0.09 0
0.35 0.09 0
0.36 0.09 0
0.37 0.09 0
0.38 0.09 0
0.39 0.09 0
0.4 0.09 0
0.41 0.09 0
0.42 0.09 0
0.43 0.09 0
0.44 0.09 0
0.45 0.09 0
0.46 0.09 0
0.47 0.09 0
0.48 0.09 0
0.49 0.09 0
0.5 0.09 0
0.51 0.09 0
0.52 0.09 0
0.53 0.09 0
0.54 0.09 0
0.55 0.09 0
0.56 0.09 0
0.57 0.09 0
0.58 0.09 0
0.59 0.09 0
0.6 0.09 0
0.61 0.09 0
0 0.1 0
0.01 0.1 0
0.02 0.1 0
0.03 0.1 0
0.04 0.1 0
0.05 0.1 0
0.06 0.1 0
0.07 0.1 0
0.08 0.1 0
0.09 0.1 0
0.1 0.1 0
0.11 0.1 0
0.12 0.1 0
0.13 0.1 0
0.14 0.1 0
0.15 0.1 0
0.16 0.1 0
0.17 0.1 0
0.18 0.1 0
0.19 0.1 0
0.2 0.1 0
0.21 0.1 0
0.22 0.1 0
0.23 0.1 0
0.24 0.1 0
0.25 0.1 0
0.26 0.1 0
0.27 0.1 0
0.28 0.1 0
0.29 0.1 0
0.3 0.1 0
0.31 0.1 0
0.32 0.1 0
0.33 0.1 0
0.34 0.1 0
0.35 0.1 0
0.36 0.1 0
0.37 0.1 0
0.38 0.1 0
0.39 0.1 0
0.4 0.1 0
0.41 0.1 0
0.42 0.1 0
0.43 0.1 0
0.44 0.1 0
0.45 0.1 0
0.46 0.1 0
0.47 0.1 0
0.48 0.1 0
0.49 0.1 0
0.5 0.1 0
0.51 0.1 0
0.52 0.1 0
0.53 0.1 0
0.54 0.1 0
0.55 0.1 0
0.56 0.1 0
0.57 0.1 0
0.58 0.1 0
0.59 0.1 0
0.6 0.1 0
0.61 0.1 0
0 0.11 0
0.01 0.11 0
0.02 0.11 0
0.03 0.11 0
0.04 0.11 0
0.05 0.11 0
0.06 0.11 0
0.07 0.11 0
0.08 0.11 0
0.09 0.11 0
0.1 0.11 0
0.11 0.11 0
0.12 0.11 0
0.13 0.11 0
0.14 0.11 0
0.15 0.11 0
0.16 0.11 0
0.17 0.11 0
0.18 0.11 0
0.19 0.11 0
0.2 0.11 0
0.21 0.11 0
0.22 0.11 0
0.23 0.11 0
0.24 0.11 0
0.25 0.11 0
0.26 0.11 0
0.27 0.11 0
0.28 0.11 0
0.29 0.11 0
0.3 0.11 0
0.31 0.11 0
0.32 0.11 0
0.33 0.11 0
0.34 0.11 0
0.35 0.11 0
0.36 0.11 0
0.37 0.11 0
0.38 0.11 0
0.39 0.11 0
0.4 0.11 0
0.41 0.11 0
0.42 0.11 0
0.43 0.11 0
0.44 0.11 0
0.45 0.11 0
0.46 0.11 0
0.47 0.11 0
0.48 0.11 0
0.49 0.11 0
0.5 0.11 0
0.51 0.11 0
0.52 0.11 0
0.53 0.11 0
0.54 0.11 0
0.55 0.11 0
0.56 0.11 0
0.57 0.11 0
0.58 0.11 0
0.59 0.11 0
0.6 0.11 0
0.61 0.11 0
0 0.12 0
0.01 0.12 0
0.02 0.12 0
0.03 0.12 0
0.04 0.12 0
0.05 0.12 0
0.06 0.12 0
0.07 0.12 0
0.08 0.12 0
0.09 0.12 0
0.1 0.12 0
0.11 0.12 0
0.12 0.12 0
0.13 0.12 0
0.14 0.12 0
0.15 0.12 0
0.16 0.12 0
0.17 0.12 0
0.18 0.12 0
0.19 0.12 0
0.2 0.12 0
0.21 0.12 0
0.22 0.12 0
0.23 0.12 0
0.24 0.12 0
0.25 0.12 0
0.26 0.12 0
0.27 0.12 0
0.28 0.12 0
0.29 0.12 0
0.3 0.12 0
0.31 0.12 0
0.32 0.12 0
0.33 0.12 0
0.34 0.12 0
0.35 0.12 0
0.36 0.12 0
0.37 0.12 0
0.38 0.12 0
0.39 0.12 0
0.4 0.12 0
0.41 0.12 0
0.42 0.12 0
0.43 0.12 0
0.44 0.12 0
0.45 0.12 0
0.46 0.12 0
0.47 0.12 0
0.48 0.12 0
0.49 0.12 0
0.5 0.12 0
0.51 0.12 0
0.52 0.12 0
0.53 0.12 0
0.54 0.12 0
0.55 0.12 0
0.56 0.12 0
0.57 0.12 0
0.58 0.12 0
0.59 0.12 0
0.6 0.12 0
0.61 0.12 0
0 0.13 0
0.01 0.13 0
0.02 0.13 0
0.03 0.13 0
0.04 0.13 0
0.05 0.13 0
0.06 0.13 0
0.07 0.13 0
0.08 0.13 0
0.09 0.13 0
0.1 0.13 0
0.11 0.13 0
0.12 0.13 0
0.13 0.13 0
0.14 0.13 0
0.15 0.13 0
0.16 0.13 0
0.17 0.13 0
0.18 0.13 0
0.19 0.13 0
0.2 0.13 0
0.21 0.13 0
0.22 0.13 0
0.23 0.13 0
0.24 0.13 0
0.25 0.13 0
0.26 0.13 0
0.27 0.13 0
0.28 0.13 0
0.29 0.13 0
0.3 0.13 0
0.31 0.13 0
0.32 0.13 0
0.33 0.13 0
0.34 0.13 0
0.35 0.13 0
0.36 0.13 0
0.37 0.13 0
0.38 0.13 0
0.39 0.13 0
0.4 0.13 0
0.41 0.13 0
0.42 0.13 0
0.43 0.13 0
0.44 0.13 0
0.45 0.13 0
0.46 0.13 0
0.47 0.13 0
0.48 0.13 0
[...]
POINT_DATA 93248

SCALARS v double
LOOKUP_TABLE default
0
0
0
0
0
0
0
0
0
0
0
0
0
0
0
0
0
0
0
0
0
0
0
0
0
0
0
0
0
0
0
0
0
0
0
0
0
0
-0.140317
0
0
0
0
0
-0.147386
0
0
0
0
0
0
0
0
0
0
0
0
0
0
0
0
0
0
0.0435698
-0.090807
0.044952
0.0308433
0.0123821
0
-0.0106964
-0.0181788
-0.0227229
-0.0256459
-0.0290744
-0.0372352
-0.035738
-0.036453
-0.0381529
-0.0387737
-0.0376748
-0.0375442
-0.0375279
-0.0497037
-0.0394195
-0.0296385
-0.0386751
-0.0392414
-0.0388293
-0.0385329
-0.0383434
-0.03815
-0.0378424
-0.0374121
-0.0376302
-0.0412632
-0.0375469
-0.0367215
-0.0373174
-0.0927945
-0.0353548
-0.0338575
-0.0331217
-0.0410295
-0.0827755
-0.0405621
-0.0432146
-0.0532067
-0.09251
-0.165255
-0.0406616
-0.0577711
-0.0378337
-0.0380203
-0.0355574
-0.0425203
-0.0542354
-0.0837766
-0.0513335
-0.123045
-0.0377765
-0.0308964
-0.0273175
-0.0231432
0
0
0.025561
0.0486613
0.0562181
0.0520758
0.032328
0.0285362
0.0175562
0.00549497
-0.00601484
-0.0154412
-0.0246207
-0.159348
-0.0423603
-0.0464727
-0.0563904
-0.0535148
-0.0517424
-0.0546552
-0.0585324
-0.243234
-0.0598216
-0.0736765
-0.0608356
-0.0572018
-0.0559152
-0.0552937
-0.0548841
-0.0544892
-0.0539464
-0.0531522
-0.0528959
-0.138924
-0.0519806
-0.0528131
-0.0545706
-0.0544709
-0.0513184
-0.0500573
-0.0525721
-0.0562119
-0.0596823
-0.0600823
-0.0638356
-0.0700931
-0.0784355
-0.0727561
-0.0615758
-0.0577711
-0.0562151
-0.0582753
-0.0676628
-0.0632561
-0.0679698
-0.0745208
-0.0640851
-0.0569567
-0.139198
-0.038959
-0.0350927
-0.0326447
0
0
0.01349
0.0337271
0.0423373
0.0523995
0.0582084
0.0441116
0.0324599
0.0205093
0.0082932
-0.00457794
-0.0169772
-0.0322111
-0.0402764
-0.0478568
-0.0555808
-0.0588422
0
-0.062802
-0.0674017
-0.073729
-0.0721316
-0.0728641
-0.0700937
-0.0678305
-0.0664687
-0.0656374
-0.0650657
-0.0645903
-0.0641385
-0.0638707
-0.0646453
-0.0683254
-0.0718976
-0.0679936
-0.0633932
-0.06248
-0.0617796
-0.0619955
-0.0641645
-0.0660096
-0.0685615
-0.071283
-0.0726247
-0.0758698
-0.0770677
-0.0716985
-0.0698168
-0.0681482
-0.067914
-0.0686514
-0.0705543
-0.0704223
-0.0703797
-0.069014
-0.065236
-0.0597269
-0.0540375
-0.044788
-0.0412235
-0.0413529
0
0
0.00845091
0.0241393
0.0390185
0.0419241
0.0438301
0.0387812
0.0309565
0.021335
0.0104498
-0.00144066
-0.0137541
-0.0259247
-0.0359029
-0.0451326
-0.0572487
-0.056383
-0.0583041
-0.0635638
-0.0686555
-0.0713901
-0.0733497
-0.0739645
-0.0737491
-0.0731211
-0.0724558
-0.0718463
-0.0713517
-0.0709541
-0.0706504
-0.0705647
-0.0710234
-0.0724769
-0.0753351
-0.0736986
-0.0708505
-0.0694317
-0.0692792
-0.0703272
-0.0711915
-0.0723729
-0.0738921
-0.0756316
-0.0769633
-0.0779918
-0.0768927
-0.0711964
-0.0736118
-0.0738425
-0.0735352
-0.073187
-0.0727083
-0.0718426
-0.0699281
-0.066999
-0.0635468
-0.0587081
-0.0528315
-0.0467386
-0.0441729
-0.0486482
0
0
0.00570933
0.0160566
0.0247317
0.0287476
0.0299048
0.0275536
0.021582
0.0137077
0.00449117
-0.00579209
-0.0164914
-0.0265745
-0.0347309
-0.0404098
-0.0373697
-0.0501481
-0.0569363
-0.062257
-0.0657614
-0.0691382
-0.0720797
-0.0739839
-0.075098
-0.0756369
-0.075799
-0.0756493
-0.0754653
-0.0752879
-0.0750996
-0.0748884
-0.0746757
-0.0750756
-0.080142
-0.0774223
-0.0753308
-0.0744384
-0.0744876
-0.0750917
-0.0757816
-0.0765631
-0.0774016
-0.078253
-0.0790358
-0.0794322
-0.078739
0
-0.0761493
-0.0766438
-0.0760826
-0.0751518
-0.0738437
-0.0721152
-0.0696321
-0.0665339
-0.0630384
-0.0589761
-0.0545995
-0.0504013
-0.0467306
-0.0535215
-0.158996
0
0.00399792
0.0106192
0.0157586
0.0183237
0.0184932
0.0167391
0.0104752
0
-0.00436027
-0.0133874
-0.0227781
-0.0315242
-0.0374006
-0.0415892
-0.0449944
-0.0518667
-0.0568578
-0.0583977
-0.0632438
-0.0673776
-0.0710807
-0.0738267
-0.075764
-0.0771074
-0.0779926
-0.0782809
-0.0785371
-0.0786798
-0.07862
-0.0782602
-0.0774789
-0.0767322
-0.174439
-0.0799273
-0.0784427
-0.0782363
-0.0784776
-0.0789077
-0.0793604
-0.0797883
-0.080151
-0.0803919
-0.0805452
-0.0801562
-0.0788256
-0.0760153
-0.0772081
-0.0776804
-0.0772688
-0.0762474
-0.0747451
-0.0727957
-0.0703677
-0.0676331
-0.0647344
-0.0619713
-0.0603724
-0.0626652
-0.0708543
-0.0543696
0
0
0.00286275
0.00693481
0.00976452
0.0106871
0.00939355
0.00530013
0.00195428
-0.00465618
-0.0125377
-0.0211422
-0.0301489
-0.0390738
-0.0421789
-0.0455835
-0.0495754
-0.0556773
-0.0619681
-0.0603967
-0.0636652
-0.067643
-0.0717128
-0.0746053
-0.0768018
-0.0785699
-0.0799794
-0.0805769
-0.0813707
-0.0818671
-0.0819796
-0.081654
-0.0811254
-0.0815193
-0.0843251
-0.0831548
-0.0822839
-0.082032
-0.0821657
-0.0824131
-0.0826245
-0.0827499
-0.0827755
-0.0826792
-0.0822077
-0.0815732
-0.0806154
-0.0796815
-0.0793763
-0.0791094
-0.0784891
-0.077446
-0.0760243
-0.0742861
-0.0722054
-0.0700794
-0.0679239
-0.0657464
-0.0634578
-0.12469
-0.0275267
-0.0507634
0
0
0.00209
0.00436918
0.0055722
0.00520404
0.0029964
-0.00108806
-0.00589032
-0.0123329
-0.0198695
-0.0280003
-0.0369868
-0.050262
-0.0347309
-0.0497376
-0.0522213
-0.0518018
-0.0495003
-0.0608108
-0.066206
-0.0699274
-0.0744557
-0.0766794
-0.0786588
-0.0804782
-0.0805769
-0.0835906
-0.0846351
-0.0853342
-0.0855774
-0.085202
-0.0844336
-0.0845877
-0.0853406
-0.0855735
-0.0855679
-0.0855753
-0.085741
-0.0858716
-0.0858685
-0.085732
-0.0854721
-0.0850696
-0.0844818
-0.083796
-0.0830791
-0.0824547
-0.081819
-0.0811171
-0.0802441
-0.0791688
-0.0779107
-0.0766259
-0.0748466
-0.0732779
-0.0716512
-0.0698203
-0.0673969
-0.063302
-0.0535482
-0.052126
0
0
0.00155724
0.00253911
0.00254459
0.00118536
-0.00172096
-0.00613038
-0.0117079
-0.0183819
-0.0256945
-0.0328546
-0.0379711
-0.0323253
-0.0466565
-0.0533597
-0.0563904
-0.0580555
-0.0608078
-0.065827
-0.0700062
-0.0731455
-0.109072
-0.0796072
-0.0813621
-0.0832693
-0.0853413
-0.0866099
-0.0880365
-0.0891275
-0.0895606
-0.0889446
-0.0869919
-0.08703
-0.0877477
-0.0883893
-0.0888043
-0.0890107
-0.089277
-0.0893556
-0.0891725
-0.0888181
-0.0883499
-0.0877781
-0.0871284
-0.0864561
-0.0858015
-0.0851553
-0.0844111
-0.0835246
-0.0825019
-0.0814188
-0.0801996
-0.0786588
-0.0778181
-0.0767457
-0.0753706
-0.0735973
-0.0710585
-0.0671794
-0.0615836
-0.0547299
0
0
0.00118756
0.00120594
0.000301906
-0.00186125
-0.00537541
-0.0102401
-0.0162754
-0.0231938
-0.0304722
-0.0373103
-0.0426683
-0.0465285
-0.0534078
-0.0589218
-0.0615978
-0.0648832
-0.0685734
-0.0722414
-0.0756294
-0.0786416
-0.0819146
-0.0836089
-0.0851282
-0.0865853
-0.0872946
-0.0899733
-0.092029
-0.0935429
-0.0941886
-0.093847
-0.0877791
-0.0893921
-0.0908573
-0.0917607
-0.092357
-0.0927945
-0.0927075
-0.0928667
-0.0925257
-0.0919946
-0.0913887
-0.0907274
-0.090026
-0.0893562
-0.0887027
-0.0880128
-0.0872105
-0.0862353
-0.0851297
-0.0841383
-0.0830836
-0.0819718
-0.0814173
-0.08033
-0.0789667
-0.0771576
-0.074532
-0.0706274
-0.0651337
-0.0576179
0
0
0.000928905
0.000212254
-0.00139578
-0.0050038
-0.00830738
-0.0136392
-0.0200828
-0.0273083
-0.0348317
-0.0420362
-0.0486129
-0.0548903
-0.0609753
-0.0660889
-0.0668368
-0.0715546
-0.0756395
-0.0789937
-0.0821035
-0.0846948
-0.0866001
-0.0881115
-0.0894419
-0.09078
-0.0923046
-0.0944496
-0.0967997
-0.0986316
-0.0989939
-0.0984549
0
-0.0933302
-0.0947841
-0.0955168
-0.0960753
-0.0965114
-0.0967667
-0.0963876
-0.0959079
-0.0952153
-0.0945314
-0.0938911
-0.0930909
-0.0924171
-0.0917689
-0.0910682
-0.0902478
-0.0892168
-0.0880197
-0.0872953
-0.0865445
-0.085678
-0.0848313
-0.0837766
-0.0824447
-0.0806064
-0.0778811
-0.0737894
-0.0680551
-0.0604386
0
0
0.00074407
-0.000559608
-0.00276245
-0.00607551
-0.010728
-0.0165615
-0.023434
-0.0310696
-0.039052
-0.0468073
-0.0543699
-0.0614783
-0.0679795
-0.0738564
0
-0.0787697
-0.0827518
-0.0857578
-0.0889948
-0.0910504
-0.0922697
-0.0932333
-0.0942273
-0.0954326
-0.097066
-0.0993269
-0.102224
-0.104449
-0.10367
-0.100452
-0.0961363
-0.0968711
-0.0980928
-0.0990643
-0.099774
-0.100272
-0.10053
-0.100334
-0.099485
-0.098441
-0.0976706
-0.0975694
-0.0962342
-0.0955791
-0.094975
-0.094305
-0.0935179
-0.0924566
-0.0910192
-0.0907855
-0.0902845
-0.0894077
-0.0883695
-0.0872456
-0.0859177
-0.0840527
-0.0812312
-0.0769395
-0.0709586
-0.0631204
0
0
0.000607385
-0.00118413
-0.00387941
-0.0074758
-0.0128387
-0.0191697
-0.0265043
-0.0346317
-0.0432026
-0.047141
-0.0597882
-0.0673306
-0.0738517
-0.0788465
-0.0812091
-0.0855027
-0.0890307
-0.0920102
-0.0964076
-0.097766
-0.0981747
-0.0985737
-0.0991966
-0.100156
-0.101648
-0.10404
-0.107803
-0.11126
-0.112003
-0.104998
-0.101657
-0.101322
-0.102023
-0.102841
-0.103557
-0.104141
-0.104399
-0.104442
-0.103035
-0.101425
-0.0999995
-0.0974944
-0.0987285
-0.0987067
-0.0982626
-0.0976677
-0.0969779
-0.0959746
-0.0939195
-0.0946255
-0.0942214
-0.093163
-0.0919469
-0.0908075
-0.0895061
-0.0876127
-0.0846887
-0.0801769
-0.0738552
-0.0656394
0
0
0.000498384
-0.00173373
-0.0050038
-0.00968465
-0.0149411
-0.0216027
-0.0293907
-0.0380327
-0.047141
-0.0561948
-0.0649345
-0.0728304
-0.0795624
-0.0849069
-0.0890726
-0.0926928
-0.0955246
-0.0979636
-0.105145
-0.10447
-0.103887
-0.103836
-0.10412
-0.104693
-0.105697
-0.107559
-0.111358
-0.0750996
-0.138349
-0.109611
-0.104767
-0.104866
-0.105663
-0.106462
-0.107265
-0.108232
-0.109625
-0.109177
-0.106645
-0.104438
-0.103063
-0.102266
-0.102229
-0.102061
-0.101618
-0.101065
-0.100492
-0.0997877
-0.0735352
-0.0989896
-0.0983241
-0.0969505
-0.0952893
-0.0945015
-0.0933034
-0.0914127
-0.088424
-0.0836142
-0.076755
-0.0679434
0
0
0.00041413
-0.00216426
-0.00583977
-0.0107159
-0.0166732
-0.0238469
-0.0321407
-0.0413437
-0.0510621
-0.0607791
-0.0699605
-0.0782404
-0.0853786
-0.0912905
-0.0960828
-0.0997473
-0.102183
-0.103476
-0.220564
-0.110163
-0.109233
-0.109072
-0.109006
-0.108963
-0.108876
-0.108349
-0.10549
-0.0919628
-0.0341118
-0.0848175
-0.100319
-0.105721
-0.108003
-0.109317
-0.110473
-0.111907
-0.113694
-0.11446
-0.110658
-0.10787
-0.106596
-0.106195
-0.105977
-0.105614
-0.105002
-0.104381
-0.103684
-0.102921
-0.102194
-0.103205
-0.102342
-0.101172
-0.101146
-0.0988255
-0.0973551
-0.0955419
-0.0924988
-0.0874449
-0.0797885
-0.0699427
0
0
0.000321036
-0.00248516
-0.00656995
-0.0118498
-0.0183164
-0.0259583
-0.0347716
-0.0445941
-0.0549732
-0.0653052
-0.074893
-0.0835997
-0.091249
-0.0977412
-0.102997
-0.10697
-0.109913
-0.112722
-0.11692
-0.11647
-0.115594
-0.114828
-0.114086
-0.113217
-0.111914
-0.109419
-0.104158
-0.0950128
-0.0859384
-0.0949711
-0.102591
-0.107187
-0.109864
-0.111583
-0.113072
-0.114945
-0.117785
-0.120981
-0.117474
-0.112361
-0.110362
-0.109829
-0.109524
-0.109038
-0.108231
-0.10762
-0.106904
-0.106297
-0.106624
-0.108285
-0.106493
-0.104962
-0.10405
-0.102922
-0.100955
-0.100253
-0.0973751
-0.0922089
-0.083459
-0.0715063
0
0
0.00015792
0.00253911
-0.00728312
-0.0130536
-0.0199605
-0.0278386
-0.0372941
-0.047855
-0.0589584
-0.0699083
-0.0797003
-0.088865
-0.0971224
-0.104286
-0.110055
-0.114325
-0.117482
-0.120135
-0.121835
-0.122053
-0.121431
-0.120436
-0.11922
-0.117743
-0.115783
-0.11289
-0.10856
-0.105014
-0.105733
-0.107188
-0.109195
-0.111184
-0.112819
-0.11406
-0.115206
-0.116679
-0.119504
-0.126239
-0.141009
-0.116855
-0.112709
-0.112386
-0.112309
-0.111974
-0.108231
-0.110757
-0.110135
-0.109662
-0.110288
-0.11408
-0.110379
-0.108725
-0.108225
-0.108575
-0.111407
-0.106979
-0.103676
-0.0989098
-0.0895445
-0.0724702
0
0
0.000227544
-0.00321196
-0.00801768
-0.0142915
-0.0217985
-0.0303366
-0.0402447
-0.051378
-0.0631717
-0.0747464
-0.0841897
-0.0939892
-0.103014
-0.111048
-0.117364
-0.121699
-0.124693
-0.12715
-0.128124
-0.12799
-0.127174
-0.125947
-0.124432
-0.122676
-0.120672
-0.118398
-0.115846
-0.112962
-0.116915
-0.11578
-0.115505
-0.115955
-0.116543
-0.116812
-0.116814
-0.116105
-0.113124
-0.100066
-0.0435998
-0.093363
-0.107622
-0.112283
-0.113772
-0.114114
-0.113946
-0.113704
-0.113346
-0.112963
-0.113254
-0.178499
-0.113585
-0.11267
-0.112827
-0.113304
-0.113603
-0.112468
-0.111314
-0.108369
-0.104364
-0.0990644
0
0
0.000225803
-0.00357632
-0.00871573
-0.0157308
-0.023786
-0.0316388
-0.0425855
-0.0547435
-0.0675123
-0.0799783
-0.0878807
-0.0991066
-0.109016
-0.118284
-0.125031
-0.12901
-0.131584
-0.134413
-0.13482
-0.134141
-0.132979
-0.131501
-0.129769
-0.127918
-0.12612
-0.124537
-0.122487
-0.119636
-0.202059
-0.121717
-0.120734
-0.120717
-0.120654
-0.119937
-0.118421
-0.115866
-0.110899
-0.102088
-0.0929506
-0.101017
-0.108798
-0.112904
-0.115027
-0.116069
-0.116538
-0.116695
-0.116801
-0.117052
-0.11787
-0.119632
-0.118033
-0.117392
-0.117593
-0.118019
-0.118198
-0.118111
-0.117262
-0.114803
-0.109883
-0.100007
0
0
0.000192693
-0.0039084
-0.009254
-0.0272572
-0.0260213
0
-0.04518
-0.0582904
-0.0719632
-0.0857494
-0.0227781
-0.104856
-0.115138
-0.126459
-0.133006
-0.135946
-0.137938
-0.142238
-0.14145
-0.140205
-0.13879
-0.137124
-0.135177
-0.133225
-0.131571
-0.130753
-0.131825
-0.127597
-0.128412
-0.127097
-0.126189
-0.125776
-0.125236
-0.123493
-0.121142
-0.118193
-0.114528
-0.111036
-0.110489
-0.111778
-0.114024
-0.115945
-0.117453
-0.118614
-0.119403
-0.119838
-0.120312
-0.120845
-0.121366
-0.121566
-0.121376
-0.121573
-0.12219
-0.122809
-0.123045
-0.122906
-0.12159
-0.118393
-0.112547
-0.101805
0
0
0.000139095
-0.00429928
-0.0101484
-0.017869
-0.0266553
-0.0358236
-0.0478974
-0.0614722
-0.075694
-0.0889888
-0.0990378
-0.110376
-0.120457
-0.137126
-0.139643
-0.141937
-0.143594
-0.209795
-0.147462
-0.146114
-0.144693
-0.142874
-0.140569
-0.13833
-0.136188
-0.133294
-0.123613
-0.129757
-0.131244
-0.131126
-0.130806
-0.130692
-0.130355
-0.12782
-0.125054
-0.122458
-0.120208
-0.118892
-0.11898
-0.119281
-0.119723
-0.120189
-0.120553
-0.121877
-0.122752
-0.123173
-0.123837
-0.124433
-0.124739
-0.124569
-0.124457
-0.125298
-0.126491
-0.127393
-0.127467
-0.127004
-0.124957
-0.120937
-0.114924
-0.104033
0
0
8.54297e-05
-0.00466847
-0.0108681
-0.0186464
-0.027805
-0.0382858
-0.0506568
-0.0648515
-0.0799228
-0.0941803
-0.10574
-0.11689
-0.126963
-0.278222
-0.145561
-0.148503
-0.151524
-0.154381
-0.153978
-0.152714
-0.15103
-0.148886
-0.145876
-0.143347
-0.14101
-0.13833
-0.13556
-0.135447
-0.135269
-0.135008
-0.13494
-0.135364
-0.136156
-0.133708
-0.13
-0.127707
-0.125906
-0.125074
-0.124884
-0.124843
-0.12483
-0.125073
-0.126894
-0.126055
-0.126527
-0.126708
-0.127498
-0.128084
-0.12829
-0.12779
-0.127224
-0.128859
-0.13059
-0.131711
-0.131574
-0.130852
-0.127985
-0.122985
-0.117383
-0.106512
0
0
3.12514e-05
-0.0050332
-0.0115723
-0.0196664
-0.0292807
-0.0403443
-0.0529806
-0.0682032
-0.0844824
-0.101955
-0.111848
-0.123977
-0.135853
-0.147687
-0.152979
-0.156631
-0.159372
-0.160585
-0.160363
-0.159194
-0.157449
-0.155087
-0.150853
-0.148427
-0.146404
-0.144319
-0.14254
-0.141006
-0.13974
-0.138926
-0.138564
-0.138988
-0.141451
-0.1468
-0.134865
-0.133801
-0.130673
-0.129842
-0.129561
-0.129387
-0.129178
-0.128959
-0.129252
-0.129418
-0.129628
-0.130966
-0.131428
-0.13186
-0.132026
-0.130978
-0.128812
-0.133007
-0.1346
-0.135174
-0.136245
-0.134903
-0.131063
-0.124372
-0.120031
-0.109165
0
0
-3.17827e-05
-0.00542734
-0.0123538
-0.0209001
-0.0310496
-0.0424648
-0.0541166
-0.0711205
-0.0859491
-0.0939241
-0.114703
-0.130213
-0.142836
-0.152708
-0.159489
-0.164074
-0.167353
-0.167505
-0.166963
-0.165674
-0.163925
-0.161575
-0.155036
-0.15373
-0.152108
-0.150088
-0.148026
-0.145519
-0.144144
-0.142519
-0.141023
-0.138924
-0.132375
-0.101515
-0.124648
-0.125148
-0.131301
-0.13286
-0.133186
-0.133188
-0.132873
-0.132106
-0.132282
-0.132886
-0.133542
-0.134325
-0.134922
-0.135481
-0.13591
-0.134748
-0.129944
-0.137228
-0.138729
-0.139386
-0.139776
-0.138785
-0.134574
-0.12469
-0.123223
-0.111923
0
0
-0.000108637
-0.00586659
-0.0132421
-0.0223751
-0.0333956
-0.0466035
-0.0644491
-0.0761531
-0.0903337
-0.105006
-0.121712
-0.136891
-0.149554
-0.159306
-0.166325
-0.170745
-0.171318
-0.173648
-0.17339
-0.172052
-0.170298
-0.168369
-0.0832693
-0.159769
-0.157915
-0.155435
-0.153017
-0.141006
-0.148129
-0.145752
-0.142677
-0.140094
-0.134571
-0.128323
-0.130584
-0.132291
-0.134418
-0.13568
-0.136319
-0.136588
-0.136255
-0.134681
-0.135381
-0.13639
-0.137159
-0.137732
-0.138233
-0.138742
-0.139262
-0.13956
-0.0425203
-0.159986
-0.142468
-0.14297
-0.143242
-0.142644
-0.139198
-0.0273175
-0.12748
-0.114685
0
0
-0.000196057
-0.00633753
-0.0141988
-0.0239585
-0.0357601
-0.0497013
-0.0653683
-0.0795453
-0.0955124
-0.112444
-0.12911
-0.144179
-0.156808
-0.166636
-0.173754
-0.17819
-0.180122
-0.180702
-0.179929
-0.178219
-0.175911
-0.172721
-0.167839
-0.165222
-0.162767
-0.159963
-0.157215
-0.15449
-0.15224
-0.150254
-0.150362
-0.144819
-0.140938
-0.138916
-0.13815
-0.138241
-0.138684
-0.139191
-0.139657
-0.140025
-0.139748
-0.136558
-0.138642
-0.13996
-0.140628
-0.141014
-0.141333
-0.141647
-0.141855
-0.14154
-0.140115
-0.143707
-0.145258
-0.14604
-0.1462
-0.145249
-0.141925
-0.134843
-0.129453
-0.117366
0
0
-0.000282395
-0.00680503
-0.0151702
-0.0255817
-0.0381107
-0.052726
-0.0688736
-0.0825362
-0.100691
-0.119072
-0.136366
-0.151687
-0.164453
-0.17438
-0.181626
-0.18606
-0.187782
-0.187761
-0.186481
-0.184324
-0.181697
-0.178105
-0.17423
-0.171031
-0.167735
-0.164277
-0.161322
-0.158693
-0.156311
-0.154142
-0.151991
-0.149064
-0.146559
-0.144941
-0.143809
-0.143171
-0.142897
-0.142895
-0.143092
-0.143444
-0.143544
-0.0877781
-0.14246
-0.143529
-0.143895
-0.144069
-0.144212
-0.144379
-0.144568
-0.144845
-0.145557
-0.146865
-0.148171
-0.149042
-0.149251
-0.148462
-0.146007
-0.140978
-0.133047
-0.120132
0
0
-0.00034403
-0.00720834
-0.0161062
-0.0272572
-0.0405538
-0.0560374
-0.0736865
-0.0227229
-0.106621
-0.125992
-0.143707
-0.159348
-0.172325
-0.182341
-0.189713
-0.194104
-0.195188
-0.19475
-0.193031
-0.19047
-0.187863
-0.184001
-0.179891
-0.175962
-0.172186
-0.168261
-0.165315
-0.162639
-0.16013
-0.157731
-0.155323
-0.153027
-0.151022
-0.149403
-0.148128
-0.147216
-0.146644
-0.146356
-0.14626
-0.146179
-0.145714
-0.144375
-0.145512
-0.146383
-0.146777
-0.146864
-0.146901
-0.147026
-0.147326
-0.148008
-0.149122
-0.150297
-0.151469
-0.152362
-0.152674
-0.152142
-0.15029
-0.145287
-0.136717
-0.123039
0
0
-0.000333463
-0.00743056
-0.0169954
-0.0290676
-0.0430757
-0.0590362
-0.0763438
-0.0930768
-0.112919
-0.132662
-0.150999
-0.167125
-0.180409
-0.190443
-0.197635
-0.202324
-0.202455
-0.2018
-0.1997
-0.196638
-0.194377
-0.189557
-0.184818
-0.18026
-0.175457
-0.172459
-0.169301
-0.166416
-0.163748
-0.161241
-0.158874
-0.156715
-0.154783
-0.153062
-0.151647
-0.150599
-0.149898
-0.14947
-0.149216
-0.148994
-0.148728
-0.148629
-0.149001
-0.149472
-0.149656
-0.149517
-0.149424
-0.149512
-0.149843
-0.15074
-0.15212
-0.15359
-0.154932
-0.155945
-0.156311
-0.155789
-0.153788
-0.148972
-0.140203
-0.126057
0
0
-0.000178964
-0.00718949
-0.0182854
-0.0310216
-0.0458562
-0.062541
-0.0806732
-0.0998292
-0.120047
-0.140121
-0.158873
-0.17537
-0.188981
-0.199514
-0.208229
-0.210945
-0.209795
-0.209188
-0.206895
-0.202922
-0.229394
-0.194488
-0.189244
-0.184454
-0.179219
-0.175633
-0.172599
-0.169768
-0.167076
-0.164543
-0.162194
-0.160044
-0.158046
-0.156134
-0.154571
-0.153458
-0.152727
-0.152272
-0.152009
-0.151835
-0.151765
-0.15189
-0.152272
-0.152656
-0.152587
-0.152043
-0.151777
-0.151797
-0.152018
-0.153125
-0.154918
-0.156795
-0.158432
-0.159636
-0.159973
-0.159337
-0.157303
-0.152505
-0.143676
-0.129149
0
0
2.56181e-05
-0.00531416
-0.019837
-0.0338382
-0.0494722
-0.0669562
-0.0861165
-0.106533
-0.127561
-0.148195
-0.167361
-0.18413
-0.197864
-0.208199
-0.21451
-0.216072
-0.219985
-0.218143
-0.214293
-0.209324
-0.204714
-0.19901
-0.193529
-0.188492
-0.181934
-0.178684
-0.175741
-0.17288
-0.170118
-0.167537
-0.165169
-0.162992
-0.160876
-0.158639
-0.156947
-0.155866
-0.155193
-0.154777
-0.154581
-0.154493
-0.154548
-0.154718
-0.155314
-0.155838
-0.155512
-0.154334
-0.153968
-0.153958
-0.153845
-0.155262
-0.157655
-0.159986
-0.161918
-0.163355
-0.163569
-0.16281
-0.160782
-0.15588
-0.147174
-0.132312
0
0
-0.0022058
-0.0160258
-0.024436
-0.0377045
-0.0538276
-0.0721361
-0.0923306
-0.113742
-0.135645
-0.156929
-0.176506
-0.193427
-0.207087
-0.217147
-0.223121
-0.226231
-0.22712
-0.224919
-0.220564
-0.215025
-0.209
-0.202825
-0.19705
-0.192015
-0.146404
-0.18172
-0.178676
-0.175659
-0.172806
-0.170146
-0.167755
-0.165563
-0.163312