# vtk DataFile Version 2.0
FlowField
ASCII
DATASET STRUCTURED_GRID
DIMENSIONS 62 47 32 
POINTS 93248 double
0 0 0
0.01 0 0
0.02 0 0
0.03 0 0
0.04 0 0
0.05 0 0
0.06 0 0
0.07 0 0
0.08 0 0
0.09 0 0
0.1 0 0
0.11 0 0
0.12 0 0
0.13 0 0
0.14 0 0
0.15 0 0
0.16 0 0
0.17 0 0
0.18 0 0
0.19 0 0
0.2 0 0
0.21 0 0
0.22 0 0
0.23 0 0
0.24 0 0
0.25 0 0
0.26 0 0
0.27 0 0
0.28 0 0
0.29 0 0
0.3 0 0
0.31 0 0
0.32 0 0
0.33 0 0
0.34 0 0
0.35 0 0
0.36 0 0
0.37 0 0
0.38 0 0
0.39 0 0
0.4 0 0
0.41 0 0
0.42 0 0
0.43 0 0
0.44 0 0
0.45 0 0
0.46 0 0
0.47 0 0
0.48 0 0
0.49 0 0
0.5 0 0
0.51 0 0
0.52 0 0
0.53 0 0
0.54 0 0
0.55 0 0
0.56 0 0
0.57 0 0
0.58 0 0
0.59 0 0
0.6 0 0
0.61 0 0
0 0.01 0
0.01 0.01 0
0.02 0.01 0
0.03 0.01 0
0.04 0.01 0
0.05 0.01 0
0.06 0.01 0
0.07 0.01 0
0.08 0.01 0
0.09 0.01 0
0.1 0.01 0
0.11 0.01 0
0.12 0.01 0
0.13 0.01 0
0.14 0.01 0
0.15 0.01 0
0.16 0.01 0
0.17 0.01 0
0.18 0.01 0
0.19 0.01 0
0.2 0.01 0
0.21 0.01 0
0.22 0.01 0
0.23 0.01 0
0.24 0.01 0
0.25 0.01 0
0.26 0.01 0
0.27 0.01 0
0.28 0.01 0
0.29 0.01 0
0.3 0.01 0
0.31 0.01 0
0.32 0.01 0
0.33 0.01 0
0.34 0.01 0
0.35 0.01 0
0.36 0.01 0
0.37 0.01 0
0.38 0.01 0
0.39 0.01 0
0.4 0.01 0
0.41 0.01 0
0.42 0.01 0
0.43 0.01 0
0.44 0.01 0
0.45 0.01 0
0.46 0.01 0
0.47 0.01 0
0.48 0.01 0
0.49 0.01 0
0.5 0.01 0
0.51 0.01 0
0.52 0.01 0
0.53 0.01 0
0.54 0.01 0
0.55 0.01 0
0.56 0.01 0
0.57 0.01 0
0.58 0.01 0
0.59 0.01 0
0.6 0.01 0
0.61 0.01 0
0 0.02 0
0.01 0.02 0
0.02 0.02 0
0.03 0.02 0
0.04 0.02 0
0.05 0.02 0
0.06 0.02 0
0.07 0.02 0
0.08 0.02 0
0.09 0.02 0
0.1 0.02 0
0.11 0.02 0
0.12 0.02 0
0.13 0.02 0
0.14 0.02 0
0.15 0.02 0
0.16 0.02 0
0.17 0.02 0
0.18 0.02 0
0.19 0.02 0
0.2 0.02 0
0.21 0.02 0
0.22 0.02 0
0.23 0.02 0
0.24 0.02 0
0.25 0.02 0
0.26 0.02 0
0.27 0.02 0
0.28 0.02 0
0.29 0.02 0
0.3 0.02 0
0.31 0.02 0
0.32 0.02 0
0.33 0.02 0
0.34 0.02 0
0.35 0.02 0
0.36 0.02 0
0.37 0.02 0
0.38 0.02 0
0.39 0.02 0
0.4 0.02 0
0.41 0.02 0
0.42 0.02 0
0.43 0.02 0
0.44 0.02 0
0.45 0.02 0
0.46 0.02 0
0.47 0.02 0
0.48 0.02 0
0.49 0.02 0
0.5 0.02 0
0.51 0.02 0
0.52 0.02 0
0.53 0.02 0
0.54 0.02 0
0.55 0.02 0
0.56 0.02 0
0.57 0.02 0
0.58 0.02 0
0.59 0.02 0
0.6 0.02 0
0.61 0.02 0
0 0.03 0
0.01 0.03 0
0.02 0.03 0
0.03 0.03 0
0.04 0.03 0
0.05 0.03 0
0.06 0.03 0
0.07 0.03 0
0.08 0.03 0
0.09 0.03 0
0.1 0.03 0
0.11 0.03 0
0.12 0.03 0
0.13 0.03 0
0.14 0.03 0
0.15 0.03 0
0.16 0.03 0
0.17 0.03 0
0.18 0.03 0
0.19 0.03 0
0.2 0.03 0
0.21 0.03 0
0.22 0.03 0
0.23 0.03 0
0.24 0.03 0
0.25 0.03 0
0.26 0.03 0
0.27 0.03 0
0.28 0.03 0
0.29 0.03 0
0.3 0.03 0
0.31 0.03 0
0.32 0.03 0
0.33 0.03 0
0.34 0.03 0
0.35 0.03 0
0.36 0.03 0
0.37 0.03 0
0.38 0.03 0
0.39 0.03 0
0.4 0.03 0
0.41 0.03 0
0.42 0.03 0
0.43 0.03 0
0.44 0.03 0
0.45 0.03 0
0.46 0.03 0
0.47 0.03 0
0.48 0.03 0
0.49 0.03 0
0.5 0.03 0
0.51 0.03 0
0.52 0.03 0
0.53 0.03 0
0.54 0.03 0
0.55 0.03 0
0.56 0.03 0
0.57 0.03 0
0.58 0.03 0
0.59 0.03 0
0.6 0.03 0
0.61 0.03 0
0 0.04 0
0.01 0.04 0
0.02 0.04 0
0.03 0.04 0
0.04 0.04 0
0.05 0.04 0
0.06 0.04 0
0.07 0.04 0
0.08 0.04 0
0.09 0.04 0
0.1 0.04 0
0.11 0.04 0
0.12 0.04 0
0.13 0.04 0
0.14 0.04 0
0.15 0.04 0
0.16 0.04 0
0.17 0.04 0
0.18 0.04 0
0.19 0.04 0
0.2 0.04 0
0.21 0.04 0
0.22 0.04 0
0.23 0.04 0
0.24 0.04 0
0.25 0.04 0
0.26 0.04 0
0.27 0.04 0
0.28 0.04 0
0.29 0.04 0
0.3 0.04 0
0.31 0.04 0
0.32 0.04 0
0.33 0.04 0
0.34 0.04 0
0.35 0.04 0
0.36 0.04 0
0.37 0.04 0
0.38 0.04 0
0.39 0.04 0
0.4 0.04 0
0.41 0.04 0
0.42 0.04 0
0.43 0.04 0
0.44 0.04 0
0.45 0.04 0
0.46 0.04 0
0.47 0.04 0
0.48 0.04 0
0.49 0.04 0
0.5 0.04 0
0.51 0.04 0
0.52 0.04 0
0.53 0.04 0
0.54 0.04 0
0.55 0.04 0
0.56 0.04 0
0.57 0.04 0
0.58 0.04 0
0.59 0.04 0
0.6 0.04 0
0.61 0.04 0
0 0.05 0
0.01 0.05 0
0.02 0.05 0
0.03 0.05 0
0.04 0.05 0
0.05 0.05 0
0.06 0.05 0
0.07 0.05 0
0.08 0.05 0
0.09 0.05 0
0.1 0.05 0
0.11 0.05 0
0.12 0.05 0
0.13 0.05 0
0.14 0.05 0
0.15 0.05 0
0.16 0.05 0
0.17 0.05 0
0.18 0.05 0
0.19 0.05 0
0.2 0.05 0
0.21 0.05 0
0.22 0.05 0
0.23 0.05 0
0.24 0.05 0
0.25 0.05 0
0.26 0.05 0
0.27 0.05 0
0.28 0.05 0
0.29 0.05 0
0.3 0.05 0
0.31 0.05 0
0.32 0.05 0
0.33 0.05 0
0.34 0.05 0
0.35 0.05 0
0.36 0.05 0
0.37 0.05 0
0.38 0.05 0
0.39 0.05 0
0.4 0.05 0
0.41 0.05 0
0.42 0.05 0
0.43 0.05 0
0.44 0.05 0
0.45 0.05 0
0.46 0.05 0
0.47 0.05 0
0.48 0.05 0
0.49 0.05 0
0.5 0.05 0
0.51 0.05 0
0.52 0.05 0
0.53 0.05 0
0.54 0.05 0
0.55 0.05 0
0.56 0.05 0
0.57 0.05 0
0.58 0.05 0
0.59 0.05 0
0.6 0.05 0
0.61 0.05 0
0 0.06 0
0.01 0.06 0
0.02 0.06 0
0.03 0.06 0
0.04 0.06 0
0.05 0.06 0
0.06 0.06 0
0.07 0.06 0
0.08 0.06 0
0.09 0.06 0
0.1 0.06 0
0.11 0.06 0
0.12 0.06 0
0.13 0.06 0
0.14 0.06 0
0.15 0.06 0
0.16 0.06 0
0.17 0.06 0
0.18 0.06 0
0.19 0.06 0
0.2 0.06 0
0.21 0.06 0
0.22 0.06 0
0.23 0.06 0
0.24 0.06 0
0.25 0.06 0
0.26 0.06 0
0.27 0.06 0
0.28 0.06 0
0.29 0.06 0
0.3 0.06 0
0.31 0.06 0
0.32 0.06 0
0.33 0.06 0
0.34 0.06 0
0.35 0.06 0
0.36 0.06 0
0.37 0.06 0
0.38 0.06 0
0.39 0.06 0
0.4 0.06 0
0.41 0.06 0
0.42 0.06 0
0.43 0.06 0
0.44 0.06 0
0.45 0.06 0
0.46 0.06 0
0.47 0.06 0
0.48 0.06 0
0.49 0.06 0
0.5 0.06 0
0.51 0.06 0
0.52 0.06 0
0.53 0.06 0
0.54 0.06 0
0.55 0.06 0
0.56 0.06 0
0.57 0.06 0
0.58 0.06 0
0.59 0.06 0
0.6 0.06 0
0.61 0.06 0
0 0.07 0
0.01 0.07 0
0.02 0.07 0
0.03 0.07 0
0.04 0.07 0
0.05 0.07 0
0.06 0.07 0
0.07 0.07 0
0.08 0.07 0
0.09 0.07 0
0.1 0.07 0
0.11 0.07 0
0.12 0.07 0
0.13 0.07 0
0.14 0.07 0
0.15 0.07 0
0.16 0.07 0
0.17 0.07 0
0.18 0.07 0
0.19 0.07 0
0.2 0.07 0
0.21 0.07 0
0.22 0.07 0
0.23 0.07 0
0.24 0.07 0
0.25 0.07 0
0.26 0.07 0
0.27 0.07 0
0.28 0.07 0
0.29 0.07 0
0.3 0.07 0
0.31 0.07 0
0.32 0.07 0
0.33 0.07 0
0.34 0.07 0
0.35 0.07 0
0.36 0.07 0
0.37 0.07 0
0.38 0.07 0
0.39 0.07 0
0.4 0.07 0
0.41 0.07 0
0.42 0.07 0
0.43 0.07 0
0.44 0.07 0
0.45 0.07 0
0.46 0.07 0
0.47 0.07 0
0.48 0.07 0
0.49 0.07 0
0.5 0.07 0
0.51 0.07 0
0.52 0.07 0
0.53 0.07 0
0.54 0.07 0
0.55 0.07 0
0.56 0.07 0
0.57 0.07 0
0.58 0.07 0
0.59 0.07 0
0.6 0.07 0
0.61 0.07 0
0 0.08 0
0.01 0.08 0
0.02 0.08 0
0.03 0.08 0
0.04 0.08 0
0.05 0.08 0
0.06 0.08 0
0.07 0.08 0
0.08 0.08 0
0.09 0.08 0
0.1 0.08 0
0.11 0.08 0
0.12 0.08 0
0.13 0.08 0
0.14 0.08 0
0.15 0.08 0
0.16 0.08 0
0.17 0.08 0
0.18 0.08 0
0.19 0.08 0
0.2 0.08 0
0.21 0.08 0
0.22 0.08 0
0.23 0.08 0
0.24 0.08 0
0.25 0.08 0
0.26 0.08 0
0.27 0.08 0
0.28 0.08 0
0.29 0.08 0
0.3 0.08 0
0.31 0.08 0
0.32 0.08 0
0.33 0.08 0
0.34 0.08 0
0.35 0.08 0
0.36 0.08 0
0.37 0.08 0
0.38 0.08 0
0.39 0.08 0
0.4 0.08 0
0.41 0.08 0
0.42 0.08 0
0.43 0.08 0
0.44 0.08 0
0.45 0.08 0
0.46 0.08 0
0.47 0.08 0
0.48 0.08 0
0.49 0.08 0
0.5 0.08 0
0.51 0.08 0
0.52 0.08 0
0.53 0.08 0
0.54 0.08 0
0.55 0.08 0
0.56 0.08 0
0.57 0.08 0
0.58 0.08 0
0.59 0.08 0
0.6 0.08 0
0.61 0.08 0
0 0.09 0
0.01 0.09 0
0.02 0.09 0
0.03 0.09 0
0.04 0.09 0
0.05 0.09 0
0.06 0.09 0
0.07 0.09 0
0.08 0.09 0
0.09 0.09 0
0.1 0.09 0
0.11 0.09 0
0.12 0.09 0
0.13 0.09 0
0.14 0.09 0
0.15 0.09 0
0.16 0.09 0
0.17 0.09 0
0.18 0.09 0
0.19 0.09 0
0.2 0.09 0
0.21 0.09 0
0.22 0.09 0
0.23 0.09 0
0.24 0.09 0
0.25 0.09 0
0.26 0.09 0
0.27 0.09 0
0.28 0.09 0
0.29 0.09 0
0.3 0.09 0
0.31 0.09 0
0.32 0.09 0
0.33 0.09 0
0.34 0.09 0
0.35 0.09 0
0.36 0.09 0
0.37 0.09 0
0.38 0.09 0
0.39 0.09 0
0.4 0.09 0
0.41 0.09 0
0.42 0.09 0
0.43 0.09 0
0.44 0.09 0
0.45 0.09 0
0.46 0.09 0
0.47 0.09 0
0.48 0.09 0
0.49 0.09 0
0.5 0.09 0
0.51 0.09 0
0.52 0.09 0
0.53 0.09 0
0.54 0.09 0
0.55 0.09 0
0.56 0.09 0
0.57 0.09 0
0.58 0.09 0
0.59 0.09 0
0.6 0.09 0
0.61 0.09 0
0 0.1 0
0.01 0.1 0
0.02 0.1 0
0.03 0.1 0
0.04 0.1 0
0.05 0.1 0
0.06 0.1 0
0.07 0.1 0
0.08 0.1 0
0.09 0.1 0
0.1 0.1 0
0.11 0.1 0
0.12 0.1 0
0.13 0.1 0
0.14 0.1 0
0.15 0.1 0
0.16 0.1 0
0.17 0.1 0
0.18 0.1 0
0.19 0.1 0
0.2 0.1 0
0.21 0.1 0
0.22 0.1 0
0.23 0.1 0
0.24 0.1 0
0.25 0.1 0
0.26 0.1 0
0.27 0.1 0
0.28 0.1 0
0.29 0.1 0
0.3 0.1 0
0.31 0.1 0
0.32 0.1 0
0.33 0.1 0
0.34 0.1 0
0.35 0.1 0
0.36 0.1 0
0.37 0.1 0
0.38 0.1 0
0.39 0.1 0
0.4 0.1 0
0.41 0.1 0
0.42 0.1 0
0.43 0.1 0
0.44 0.1 0
0.45 0.1 0
0.46 0.1 0
0.47 0.1 0
0.48 0.1 0
0.49 0.1 0
0.5 0.1 0
0.51 0.1 0
0.52 0.1 0
0.53 0.1 0
0.54 0.1 0
0.55 0.1 0
0.56 0.1 0
0.57 0.1 0
0.58 0.1 0
0.59 0.1 0
0.6 0.1 0
0.61 0.1 0
0 0.11 0
0.01 0.11 0
0.02 0.11 0
0.03 0.11 0
0.04 0.11 0
0.05 0.11 0
0.06 0.11 0
0.07 0.11 0
0.08 0.11 0
0.09 0.11 0
0.1 0.11 0
0.11 0.11 0
0.12 0.11 0
0.13 0.11 0
0.14 0.11 0
0.15 0.11 0
0.16 0.11 0
0.17 0.11 0
0.18 0.11 0
0.19 0.11 0
0.2 0.11 0
0.21 0.11 0
0.22 0.11 0
0.23 0.11 0
0.24 0.11 0
0.25 0.11 0
0.26 0.11 0
0.27 0.11 0
0.28 0.11 0
0.29 0.11 0
0.3 0.11 0
0.31 0.11 0
0.32 0.11 0
0.33 0.11 0
0.34 0.11 0
0.35 0.11 0
0.36 0.11 0
0.37 0.11 0
0.38 0.11 0
0.39 0.11 0
0.4 0.11 0
0.41 0.11 0
0.42 0.11 0
0.43 0.11 0
0.44 0.11 0
0.45 0.11 0
0.46 0.11 0
0.47 0.11 0
0.48 0.11 0
0.49 0.11 0
0.5 0.11 0
0.51 0.11 0
0.52 0.11 0
0.53 0.11 0
0.54 0.11 0
0.55 0.11 0
0.56 0.11 0
0.57 0.11 0
0.58 0.11 0
0.59 0.11 0
0.6 0.11 0
0.61 0.11 0
0 0.12 0
0.01 0.12 0
0.02 0.12 0
0.03 0.12 0
0.04 0.12 0
0.05 0.12 0
0.06 0.12 0
0.07 0.12 0
0.08 0.12 0
0.09 0.12 0
0.1 0.12 0
0.11 0.12 0
0.12 0.12 0
0.13 0.12 0
0.14 0.12 0
0.15 0.12 0
0.16 0.12 0
0.17 0.12 0
0.18 0.12 0
0.19 0.12 0
0.2 0.12 0
0.21 0.12 0
0.22 0.12 0
0.23 0.12 0
0.24 0.12 0
0.25 0.12 0
0.26 0.12 0
0.27 0.12 0
0.28 0.12 0
0.29 0.12 0
0.3 0.12 0
0.31 0.12 0
0.32 0.12 0
0.33 0.12 0
0.34 0.12 0
0.35 0.12 0
0.36 0.12 0
0.37 0.12 0
0.38 0.12 0
0.39 0.12 0
0.4 0.12 0
0.41 0.12 0
0.42 0.12 0
0.43 0.12 0
0.44 0.12 0
0.45 0.12 0
0.46 0.12 0
0.47 0.12 0
0.48 0.12 0
0.49 0.12 0
0.5 0.12 0
0.51 0.12 0
0.52 0.12 0
0.53 0.12 0
0.54 0.12 0
0.55 0.12 0
0.56 0.12 0
0.57 0.12 0
0.58 0.12 0
0.59 0.12 0
0.6 0.12 0
0.61 0.12 0
0 0.13 0
0.01 0.13 0
0.02 0.13 0
0.03 0.13 0
0.04 0.13 0
0.05 0.13 0
0.06 0.13 0
0.07 0.13 0
0.08 0.13 0
0.09 0.13 0
0.1 0.13 0
0.11 0.13 0
0.12 0.13 0
0.13 0.13 0
0.14 0.13 0
0.15 0.13 0
0.16 0.13 0
0.17 0.13 0
0.18 0.13 0
0.19 0.13 0
0.2 0.13 0
0.21 0.13 0
0.22 0.13 0
0.23 0.13 0
0.24 0.13 0
0.25 0.13 0
0.26 0.13 0
0.27 0.13 0
0.28 0.13 0
0.29 0.13 0
0.3 0.13 0
0.31 0.13 0
0.32 0.13 0
0.33 0.13 0
0.34 0.13 0
0.35 0.13 0
0.36 0.13 0
0.37 0.13 0
0.38 0.13 0
0.39 0.13 0
0.4 0.13 0
0.41 0.13 0
0.42 0.13 0
0.43 0.13 0
0.44 0.13 0
0.45 0.13 0
0.46 0.13 0
0.47 0.13 0
0.48 0.13 0
[...]
POINT_DATA 93248

SCALARS u double
LOOKUP_TABLE default
0
0
0
0
0
0
0
0
0
0
0
0
0
0
0
0
0
0
0
0
0
0
0
0
0.238281
0
0
0
0
0
0
0
-0.00264538
0.188182
0
0
0
0
0
0
0
0
0
0
0
0
0
0.0267267
0
0
0.0426256
0
0
0
0
0
0
0
0
0
0
0
0
0.401906
0.313879
0.228642
0.157909
0.105629
0.0659527
0.0371775
0.0161889
5.11196e-05
-0.0129053
-0.0222884
-0.0235474
-0.0258491
-0.027177
-0.0266967
-0.0253191
-0.0248032
-0.0244777
-0.0244276
-0.0126103
-0.0101808
-0.0169019
-0.0153149
-0.0133963
-0.0120042
-0.0109895
-0.010231
-0.00972507
-0.00958356
-0.00994587
-0.0102364
-0.00717963
-0.00765411
-0.00901736
-0.00987044
-0.0066755
-0.00946067
-0.0137536
0.12079
-0.0161994
-0.00976404
-0.00721513
-0.00202573
0.0128553
-0.0438365
-0.0194493
-0.0168594
-0.0152196
-0.0154377
-0.0154519
-0.0243085
-0.0130544
0.00281101
-0.0539758
-0.0411405
-0.0500465
-0.0333605
-0.0408231
-0.0520669
-0.0520669
0
0
0.476219
0.447302
0.4095
0.362462
0.317397
0.264765
0.213426
0.167502
0.129397
0.0986683
0.0744391
0.0634154
0.0518888
0.0445596
0.041156
0.0397749
0.0382166
0.0397082
0.25738
0.0512208
0.0559445
0.0317392
0.0378808
0.0395386
0.0400305
0.0399599
0.039471
0.0386061
0.0373432
0.0355563
0.0330851
0.0352749
0.0318744
0.0298741
0.0289413
0.0238075
0.021429
0.00895827
0.0198733
0.0167876
0.0137819
0.0151346
0.0177855
0.0173915
-0.0112475
-0.0183035
-0.0152536
-0.0152478
-0.0150267
-0.012827
-0.0259255
-0.0229038
-0.0261416
-0.0580241
-0.0625187
-0.070877
-0.0727218
-0.0843248
-0.0970973
-0.0970973
0
0
0.470327
0.457578
0.444807
0.418737
0.410722
0.371462
0.33388
0.297379
0.262806
0.269103
0.207698
0.178713
0.161646
0.149238
0.140698
0.134584
0.127855
0.125721
0.124568
0.116827
0.119174
0.10958
0.108302
0.10763
0.106412
0.104624
0.102372
0.099775
0.0970296
0.0945974
0.0930975
0.0869343
0.0794009
0.172958
0.0756049
0.0696474
0.0659739
0.0637191
0.0607993
0.0561569
0.0507879
0.0964855
0.0427211
0.0351281
0.0940335
0.00680803
0.00127678
-0.0152478
-0.00477691
-0.00820695
-0.0181787
-0.0243085
-0.0348493
-0.052961
-0.0649789
-0.0760808
-0.0918094
-0.102234
-0.113609
-0.113609
0
0
0.463275
0.445335
0.443628
0.428195
0.417438
0.398813
0.377481
0.354971
0.332397
0.310245
0.289504
0.267376
0.248719
0.233322
0.223159
0.210913
0.204988
0.198145
0.254885
0.183183
0.177355
0.171109
0.166736
0.163307
0.160019
0.156506
0.152694
0.148633
0.144437
0.140199
0.135529
0.12862
0.121173
0.115337
0.110926
0.105881
0.101258
0.096162
0.090807
0.0846839
0.077561
0.0695625
0.0617048
0.0518138
0.039651
0.0272651
0.0190124
0.0125577
0.00601942
-0.00140563
-0.010939
-0.0210901
-0.0330415
-0.0465812
-0.0598657
-0.0729881
-0.087242
-0.0996688
-0.112488
-0.112488
0
0
0.460948
0.441399
0.429112
0.416647
0.405746
0.393128
0.379669
0.365566
0.351015
0.336193
0.321232
0.305764
0.290209
0.272911
0.273429
0.258689
0.249491
0.241492
0.232516
0.224308
0.216958
0.210407
0.204643
0.199463
0.194568
0.189656
0.184637
0.179476
0.174125
0.168405
0.161842
0.154076
0.148288
0.141242
0.134689
0.128461
0.122302
0.115667
0.108638
0.101088
0.0928076
0.0836542
0.0739978
0.0637023
0.0537492
0.0564984
0.0318373
0.0230338
0.0140289
0.00453474
-0.00567387
-0.0166401
-0.0281369
-0.0398204
-0.0515999
-0.0629809
-0.073689
-0.0836729
-0.0964117
-0.0964117
0
0
0.459918
0.437778
0.42022
0.405065
0.39184
0.379012
0.367423
0.356005
0.344512
0.333028
0.321673
0.310528
0.298849
0.287389
0.282835
0.274914
0.266821
0.261255
0.252574
0.244975
0.237974
0.231409
0.225166
0.219198
0.213439
0.207643
0.201857
0.196013
0.189976
0.183523
0.176275
0.167594
0.163383
0.155117
0.147362
0.14007
0.132816
0.125257
0.117321
0.108922
0.0999733
0.090371
0.0801069
0.0690138
0.0572086
0.0510035
0.0403121
0.0297009
0.0193076
0.00888976
-0.00165516
-0.012359
-0.0229769
-0.0332349
-0.0429826
-0.0517664
-0.058517
-0.0600396
-0.0514484
-0.0514484
0
0
0.459346
0.435462
0.414946
0.39706
0.381608
0.444005
0.355524
0.342357
0.330347
0.31926
0.309201
0.300871
0.291574
0.283166
0.276848
0.271542
0.268103
0.263062
0.25738
0.251616
0.246031
0.240226
0.234232
0.228174
0.222151
0.215996
0.209939
0.203862
0.19763
0.191156
0.184696
0.179209
0.166834
0.159418
0.152255
0.144859
0.137181
0.12917
0.12079
0.112003
0.102795
0.098341
0.0828802
0.0722655
0.0619442
0.0534734
0.0436213
0.0331438
0.0225408
0.0119829
0.00156513
-0.00859424
-0.0183899
-0.0275745
-0.0360968
-0.0443109
-0.0538919
-0.0685336
-0.0288096
-0.0288096
0
0
0.458986
0.433985
0.411673
0.391659
0.373578
0.356574
0.342011
0.32847
0.315821
0.304047
0.293692
0.289142
0.27994
0.272164
0.264596
0.0397749
0.264092
0.258589
0.254885
0.250919
0.247094
0.242296
0.236868
0.231043
0.194568
0.218999
0.213231
0.207297
0.201177
0.194736
0.187847
0.180522
0.170902
0.162443
0.154578
0.146757
0.138785
0.130541
0.121958
0.113009
0.103688
0.0939862
0.0840887
0.0740765
0.0642633
0.0547816
0.0450019
0.0348523
0.024522
0.0142267
0.00415938
-0.00539759
-0.0146501
-0.0233116
-0.0314719
-0.0394941
-0.048167
-0.0604512
-0.0514349
-0.0514349
0
0
0.458746
0.433008
0.409526
0.388051
0.368299
0.349942
0.333458
0.31839
0.304376
0.290785
0.274859
0.284133
0.270668
0.262605
0.256815
0.254442
0.256665
0.254191
0.251298
0.247883
0.245407
0.241162
0.236313
0.231101
0.226235
0.220425
0.214603
0.208826
0.202944
0.196586
0.188846
0.180737
0.172268
0.163968
0.155855
0.147743
0.139539
0.131137
0.122434
0.113415
0.104102
0.0945411
0.0848473
0.0751117
0.065413
0.055704
0.0459041
0.0359584
0.0259193
0.0159359
0.00606865
-0.00261822
-0.0117321
-0.0202799
-0.0285648
-0.0369673
-0.0460328
-0.0560311
-0.063433
-0.063433
0
0
0.458583
0.432342
0.408066
0.38561
0.364784
0.345481
0.327768
0.311512
0.296534
0.282652
0.270446
0.268611
0.261695
0.255606
0.250931
0.249123
0.248881
0.248008
0.246736
0.245375
0.241503
0.238151
0.234117
0.229204
0.225839
0.220152
0.214714
0.209374
0.203991
0.232058
0.189081
0.180669
0.172684
0.164707
0.156699
0.158876
0.14026
0.131709
0.122898
0.11382
0.104522
0.0950589
0.0854775
0.0758486
0.0661957
0.0564984
0.0467569
0.0369594
0.0271308
0.0174518
0.0080097
-0.00765837
-0.0095459
-0.0180781
-0.0265689
-0.035247
-0.0445091
-0.0547566
-0.0662434
-0.0662434
0
0
0.458471
0.431884
0.407048
0.383926
0.362346
0.342316
0.323832
0.306886
0.29151
0.277926
0.267024
0.260099
0.254229
0.249856
0.245356
0.24349
0.242887
0.242497
0.24203
0.249114
0.23861
0.235561
0.231886
0.227639
0.223691
0.218874
0.213996
0.209142
0.203812
0.198073
0.187675
0.180587
0.173182
0.165382
0.157345
0.149142
0.153461
0.132422
0.123504
0.114348
0.105033
0.0956612
0.0861254
0.0765365
0.0669265
0.0572997
0.0476676
0.0380139
0.0283252
0.0189589
0.00998935
0.00138062
-0.00752125
-0.0162852
-0.0249623
-0.0337963
-0.0431898
-0.053674
-0.0657413
-0.0657413
0
0
0.458396
0.431582
0.406412
0.382689
0.360597
0.340059
0.3211
0.303784
0.288267
0.274765
0.263804
0.255401
0.249225
0.245634
0.240258
0.239016
0.238528
0.238201
0.238098
0.23738
0.235687
0.233083
0.229711
0.225753
0.221453
0.216852
0.212411
0.208068
0.202448
0.19383
0.1907
0.182894
0.174656
0.166441
0.158196
0.14986
0.141403
0.132995
0.124164
0.114917
0.10549
0.0964855
0.0869024
0.0772984
0.0677147
0.0581575
0.0486478
0.039145
0.0294661
0.0203223
0.0115219
0.0028254
-0.0059846
-0.0147651
-0.0234897
-0.0323616
-0.0417721
-0.052277
-0.0643708
-0.0643708
0
0
0.458346
0.431378
0.405945
0.381795
0.359363
0.33849
0.319226
0.301692
0.286094
0.272465
0.26124
0.252219
0.245057
0.238781
0.238885
0.237114
0.235853
0.235012
0.235336
0.234872
0.233333
0.230843
0.227537
0.223523
0.21891
0.213972
0.209445
0.205762
0.203316
0.196753
0.190816
0.18361
0.175717
0.167512
0.159162
0.150761
0.14229
0.133937
0.124999
0.115438
0.105117
0.0982929
0.0879529
0.0782003
0.0685917
0.0590603
0.0496444
0.0403206
0.0304577
0.0215554
0.0128587
0.00410789
-0.00469712
-0.0134127
-0.0220531
-0.0308412
-0.0401548
-0.0505884
-0.0626941
-0.0626941
0
0
0.458317
0.431268
0.40583
0.380949
0.358487
0.33742
0.317951
0.300243
0.284436
0.270915
0.259442
0.250111
0.242827
0.237619
0.235716
0.234428
0.233351
0.232177
0.233693
0.233204
0.231441
0.228817
0.225384
0.221084
0.215815
0.209523
0.202728
0.196624
0.21046
0.202874
0.194135
0.185715
0.177299
0.168745
0.160151
0.151803
0.142873
0.134971
0.126022
0.1164
0.106662
0.098341
0.0888306
0.0791809
0.0695371
0.0599497
0.0505024
0.0414036
0.0313435
0.0228905
0.0142924
0.00552767
-0.00352765
-0.0121311
-0.0205902
-0.0291875
-0.0382742
-0.0485212
-0.0606112
-0.0606112
0
0
0.458291
0.431116
0.405382
0.380846
0.358005
0.336734
0.317113
0.2993
0.283458
0.269769
0.258189
0.248781
0.241608
0.236746
0.234077
0.232691
0.231763
0.230101
0.233171
0.231688
0.22957
0.226869
0.223335
0.218691
0.212464
0.203347
0.18703
0.151346
0.254412
0.217299
0.200618
0.189296
0.179413
0.16996
0.160741
0.151865
0.143334
0.135874
0.127233
0.117848
0.108396
0.0992184
0.0898315
0.0802617
0.0705493
0.0607939
0.0509457
0.0410506
0.0334377
0.024736
0.0160096
0.00764078
-0.00287023
-0.0108723
-0.0190814
-0.0273058
-0.0360224
-0.0458003
-0.0577005
-0.0577005
0
0
0.4583
0.431007
0.405159
0.380707
0.357762
0.336345
0.316592
0.298705
0.282843
0.269103
0.257438
0.247985
0.240866
0.236078
0.233315
0.232096
0.232215
0.234314
0.229295
0.228528
0.22735
0.225117
0.221721
0.217004
0.210568
0.201628
0.189573
0.180424
0.215566
0.212065
0.201661
0.190775
0.180319
0.170198
0.160282
0.150651
0.14189
0.135347
0.129125
0.12041
0.110895
0.101254
0.0915425
0.0817425
0.0717907
0.0618837
0.0519932
0.0424249
0.0338252
0.0259517
0.0173391
0.00854462
-0.000893431
-0.00910671
-0.0177538
-0.0253764
-0.0332236
-0.0419893
-0.0531546
-0.0531546
0
0
0.45838
0.430917
0.405083
0.380678
0.357733
0.336073
0.316207
0.298317
0.282517
0.268847
0.257061
0.247511
0.240384
0.235666
0.233013
0.231899
0.231859
0.232173
0.230168
0.22862
0.226913
0.224507
0.221133
0.216643
0.210962
0.20428
0.197766
0.195767
0.202769
0.202219
0.196373
0.188047
0.178679
0.168746
0.158314
0.147281
0.135931
0.127547
0.136504
0.126829
0.115548
0.104626
0.0940335
0.0836639
0.0733054
0.0632405
0.053317
0.0435819
0.0342494
0.0270903
0.0182384
0.00938779
0.00109434
-0.00560597
-0.0180819
-0.0237216
-0.0301232
-0.0368544
-0.0454609
-0.0454609
0
0
0.458125
0.431097
0.405217
0.380869
0.3581
0.3211
0.315682
0.298039
0.282453
0.269006
0.256903
0.247198
0.240058
0.235506
0.233047
0.231924
0.231518
0.231369
0.230579
0.229284
0.227443
0.22492
0.221607
0.2175
0.212804
0.208126
0.245312
0.201234
0.200769
0.197554
0.191886
0.184561
0.176049
0.166431
0.155465
0.142095
0.122617
0.0827476
0.17898
0.141303
0.122401
0.10871
0.0967202
0.0854929
0.0750039
0.0647077
0.0547378
0.0449333
0.0348393
0.0281115
0.0185101
0.00980142
0.00187932
-0.00573127
-0.0156231
-0.0445091
-0.0275473
-0.0314553
-0.030773
0
0
0
0.458205
0.430298
0.405085
0.380927
0.358316
0.336058
0.315986
0.298185
0.282709
0.269641
0.256739
0.246981
0.239912
0.235752
0.233611
0.232413
0.231686
0.231724
0.231304
0.230196
0.228403
0.22592
0.222737
0.218953
0.214844
0.210852
0.206835
0.202457
0.201115
0.195558
0.189148
0.181983
0.17395
0.170056
0.153814
0.140751
0.125245
0.112844
0.144004
0.113415
0.123575
0.110524
0.0982836
0.0868439
0.0761124
0.0658443
0.0561102
0.047098
0.0388017
0.0255718
0.0173073
0.00935929
0.00158033
-0.00610367
-0.0138246
-0.0205884
-0.0274523
-0.0346555
-0.0442482
-0.0442482
0
0
0.458238
0.430964
0.404907
0.380988
0.358622
0.335689
0.315938
0.298278
0.282908
0.270377
0.256384
0.247252
0.240266
0.237013
0.235128
0.23361
0.232371
0.232951
0.232522
0.231363
0.229603
0.227209
0.22413
0.22046
0.216435
0.212695
0.210986
0.208091
0.199085
0.193361
0.187264
0.180478
0.172958
0.164237
0.154388
0.143791
0.133983
0.128787
0.131769
0.128137
0.119435
0.108825
0.0977593
0.086912
0.0764525
0.0663381
0.0566606
0.0473571
0.0378908
0.0269486
0.0175382
0.00904169
0.00106582
-0.00659845
-0.0141363
-0.0217866
-0.0302778
-0.0403341
-0.0527352
-0.0527352
0
0
0.45826
0.431046
0.405367
0.380227
0.356255
0.336253
0.316493
0.298502
0.282385
0.267258
0.258939
0.249534
0.241811
0.308142
0.237868
0.235439
0.233542
0.234754
0.233769
0.232517
0.230877
0.228643
0.225597
0.221793
0.21704
0.209798
0.216864
0.209039
0.20109
0.194002
0.187114
0.180189
0.17318
0.165215
0.156519
0.147821
0.140194
0.134509
0.129505
0.123421
0.115564
0.106339
0.0960492
0.0859702
0.0760171
0.0661087
0.0564518
0.0469361
0.0372978
0.0273667
0.0176636
0.00869488
0.000404926
-0.00748138
-0.0154555
-0.0238211
-0.0332922
-0.0444348
-0.0571644
-0.0571644
0
0
0.45826
0.431026
0.40517
0.380345
0.356896
0.335845
0.31619
0.29837
0.282713
0.26945
0.259407
0.250964
0.337243
0.24264
0.238831
0.237021
0.237408
0.234378
0.233976
0.233411
0.232224
0.230281
0.227214
0.223374
0.218836
0.213927
0.21433
0.209019
0.202081
0.194753
0.187352
0.180136
0.173694
0.167158
0.159355
0.151525
0.144041
0.136994
0.129699
0.122009
0.113824
0.105415
0.093627
0.0845281
0.0750192
0.0653509
0.0558374
0.0463762
0.0368863
0.0271616
0.0171184
0.00797141
-0.000542357
-0.00871588
-0.0170059
-0.0256532
-0.035507
-0.0471877
-0.0598687
-0.0598687
0
0
0.458261
0.431026
0.405163
0.380598
0.357496
0.336047
0.315985
0.29815
0.282878
0.271958
0.261231
0.253395
0.249251
0.239464
0.237322
0.236974
0.237259
0.236418
0.235864
0.235202
0.234124
0.232404
0.229077
0.225332
0.221354
0.217404
0.213856
0.208661
0.202186
0.194881
0.186949
0.178631
0.171459
0.17143
0.163197
0.155725
0.147276
0.13897
0.13056
0.121983
0.113176
0.103913
0.093232
0.0834095
0.0428511
0.0643385
0.0551075
0.0457735
0.0364619
0.0267011
-0.00624188
0.00688744
-0.00173401
-0.0438069
-0.0185408
-0.0270364
-0.0369007
-0.0492824
-0.0618187
-0.0618187
0
0
0.458271
0.43107
0.405293
0.38096
0.358175
0.336837
0.315645
0.297411
0.279032
0.277241
0.263728
0.25504
0.249
0.242833
0.239682
0.238557
0.238762
0.238534
0.238129
0.237469
0.236467
0.235054
0.231019
0.227481
0.223845
0.219808
0.215093
0.196013
0.20262
0.195054
0.186007
0.174081
0.152705
0.190626
0.167563
0.162831
0.150905
0.140998
0.131634
0.122393
0.113016
0.103096
0.0930152
0.0833116
0.0740035
0.0642206
0.0545843
0.0451123
0.0359464
0.0267295
0.0150677
0.00648566
-0.00203605
-0.0103627
-0.0192849
-0.0280053
-0.0375326
-0.0510183
-0.0630795
-0.0630795
0
0
0.458285
0.431135
0.405476
0.381398
0.359201
0.339855
0.314104
0.298073
0.282628
0.274717
0.264713
0.256358
0.249934
0.245164
0.242234
0.240422
0.242422
0.241269
0.240676
0.239917
0.238838
0.23777
0.232905
0.23013
0.226633
0.222294
0.217222
0.211081
0.204327
0.196504
0.186762
0.1761
0.165652
0.177052
0.169325
0.16246
0.152333
0.142185
0.132361
0.122774
0.113137
0.102686
0.0926779
0.0830218
0.0734729
0.0637398
0.0539445
0.0441408
0.0183868
0.0263085
0.0137626
0.00630469
-0.00262362
-0.0115849
-0.0206281
-0.0294411
-0.0378887
-0.0519825
-0.0629733
-0.0629733
0
0
0.458296
0.431185
0.405606
0.381654
0.359499
0.339176
0.317983
0.300316
0.285667
0.274573
0.265092
0.257324
0.251378
0.247277
0.244866
0.243678
0.244066
0.243823
0.243352
0.242432
0.240655
0.237102
0.237789
0.234386
0.230061
0.225023
0.219265
0.213589
0.207022
0.200521
0.188249
0.181159
0.175066
0.172661
0.167123
0.159944
0.151225
0.141837
0.132276
0.122777
0.11328
0.102182
0.0923254
0.0827588
0.0730952
0.0632706
0.0533015
0.0431772
0.0327703
0.0217046
0.0181738
0.00653247
-0.00333488
-0.0128259
-0.0223992
-0.0324936
-0.0430797
-0.0472036
-0.0605196
-0.0605196
0
0
0.458295
0.431189
0.405641
0.38175
0.359609
0.339229
0.320485
0.302427
0.287798
0.276066
0.266544
0.259034
0.253467
0.249761
0.24775
0.247004
0.246905
0.246805
0.246413
0.245484
0.243915
0.24162
0.223335
0.236907
0.232837
0.227698
0.221957
0.215929
0.209418
0.202416
0.193057
0.185703
0.179309
0.173099
0.166284
0.158595
0.150113
0.141068
0.131697
0.122246
0.113135
0.101552
0.0923184
0.0827825
0.0729663
0.0629697
0.052836
0.0425941
0.0323559
0.0226881
0.0152047
0.00554514
-0.00420383
-0.0137654
-0.0232483
-0.0327436
-0.0419192
-0.0498263
-0.0615148
-0.0615148
0
0
0.458272
0.431112
0.405549
0.381735
0.359713
0.339638
0.322238
0.30354
0.289813
0.278391
0.269032
0.261694
0.256359
0.252852
0.251033
0.250531
0.250348
0.250272
0.249947
0.249114
0.247984
0.246117
0.243663
0.240106
0.235676
0.230345
0.224594
0.218425
0.211772
0.204567
0.19679
0.189304
0.18203
0.174543
0.166704
0.158411
0.149676
0.140537
0.131002
0.12094
0.110179
0.103377
0.0933371
0.083148
0.0730066
0.0628193
0.0525715
0.0423213
0.0322163
0.0225447
0.0133511
0.00404518
-0.00529915
-0.0145283
-0.0236103
-0.0325587
-0.0421335
-0.0517154
-0.0632621
-0.0632621
0
0
0.458205
0.430877
0.405295
0.38164
0.35973
0.339364
0.319758
0.306858
0.293376
0.282628
0.27241
0.265203
0.260077
0.256768
0.254674
0.254403
0.254097
0.254123
0.253965
0.253233
0.252533
0.250567
0.247551
0.243511
0.199249
0.233028
0.227401
0.221164
0.214406
0.207201
0.199708
0.192067
0.184252
0.176126
0.167661
0.158876
0.149797
0.140434
0.130786
0.120879
0.111043
0.102367
0.0928689
0.0829749
0.0729011
0.0626591
0.0523378
0.0420246
0.0317902
0.0218046
0.0121164
0.00274328
-0.00639198
-0.0153199
-0.0241469
-0.0330924
-0.0426847
-0.0528687
-0.0645525
-0.0645525
0
0
0.458076
0.430298
0.412238
0.381676
0.360068
0.340259
0.322397
0.308204
0.295658
0.284878
0.276072
0.269308
0.264623
0.262189
0.257659
0.258046
0.257921
0.241492
0.258695
0.258082
0.257706
0.25519
0.251861
0.247838
0.242998
0.237094
0.230857
0.224284
0.217324
0.210003
0.20239
0.194512
0.186329
0.177748
0.168823
0.159642
0.150257
0.140686
0.130968
0.121176
0.111475
0.101934
0.0923212
0.0825976
0.0726588
0.0623916
0.052
0.0415835
0.0311116
0.0208622
0.0110218
0.00160998
-0.00744098
-0.0162126
-0.0249605
-0.033944
-0.04341
-0.0537045
-0.0632621
-0.0653719
0
0
0.458111
0.428666
0.40381
0.381268
0.360552
0.341716
0.325045
0.310868
0.298776
0.28864
0.280435
0.274137
0.269685
0.266784
0.263169
0.0382166
0.262251
0.264256
0.264974
0.265309
0.262308
0.259704
0.256344
0.252296
0.246527
0.240573
0.234285
0.227566
0.220418
0.212896
0.205056
0.196918
0.188425
0.179406
0.170056
0.160534
0.150886
0.141115
0.131269
0.121397
0.111555
0.101664
0.0919025
0.0822481
0.0723853
0.0619896
0.0515185
0.0410421
0.0303013
0.0198543
0.00997753
0.000581439
-0.00844054
-0.0171299
-0.0258896
-0.0348784
-0.044319
-0.0600396
-0.0663364
-0.0663364
0
0
0.460398
0.424655
0.403114
0.381691
0.361801
0.343805
0.328005
0.314432
0.302976
0.293522
0.285945
0.280113
0.275893
0.273123
0.271627
0.27317
0.272691
0.272439
0.272047
0.27107
0.26854
0.26528
0.261304
0.256898
0.25023
0.244398
0.237995
0.231052
0.22365
0.215858
0.207748
0.199356
0.19059
0.181041
0.171259
0.161452
0.151581
0.141584
0.131501
0.12141
0.111387
0.101225
0.0913697
0.081815
0.0720255
0.0613406
0.050863
0.0405193
0.0294859
0.0189273
0.00912015
-0.000238985
-0.00931084
-0.017973
-0.0395716
-0.0358425
-0.0451432
-0.0553841
-0.0770945
-0.0672822
0
0
0.458466
0.429285
0.405038
0.383359
0.363891
0.346582
0.331595
0.318874
0.30834
0.299768
0.292957
0.28766
0.283737
0.281218
0.280029
0.280093
0.28004
0.27974
0.278956
0.277354
0.274692
0.27091
0.266012
0.259782
0.255548
0.249094
0.242022
0.234596
0.226929
0.218788
0.210377
0.201748
0.192783
0.182476
0.172322
0.162343
0.152304
0.142059
0.131506
0.121052
0.110831
0.100272
0.0903286
0.0809213
0.0713126
0.0601566
0.0499621
0.0402066
0.0288589
0.0183868
0.00878398
-0.000576828
-0.00985885
-0.0183783
-0.0273999
-0.0366475
-0.0460438
-0.056158
-0.06755
-0.06755
0
0
0.458348
0.431311
0.407154
0.385601
0.357733
0.350006
0.336158
0.324386
0.315109
0.30768
0.301773
0.297037
0.293243
0.236078
0.288887
0.288262
0.287744
0.287046
0.285828
0.283797
0.280781
0.276438
0.271044
0.265019
0.259213
0.252606
0.245312
0.237341
0.230149
0.221469
0.212689
0.203819
0.194817
0.183413
0.173178
0.163215
0.153053
0.142705
0.1309
0.120004
0.109263
0.0982615
0.0881828
0.0788341
0.0696652
0.0580419
0.0487373
0.0403363
0.0288242
0.0188632
0.00951479
-4.44442e-05
-0.00996962
-0.018832
-0.0284677
-0.0377854
-0.0471978
-0.0572866
-0.0686434
-0.0686434
0
0
0.458552
0.432413
0.4089
0.388086
0.370064
0.35465
0.341941
0.331737
0.323792
0.317561
0.312617
0.308424
0.304923
0.302367
0.299827
0.297773
0.296076
0.294422
0.292445
0.289836
0.286399
0.281312
0.275417
0.269143
0.262589
0.255573
0.248037
0.240017
0.232058
0.223309
0.214199
0.204931
0.196025
0.1836
0.174072
0.164079
0.153554