# vtk DataFile Version 2.0
FlowField
ASCII
DATASET STRUCTURED_GRID
DIMENSIONS 62 47 32 
POINTS 93248 double
0 0 0
0.01 0 0
0.02 0 0
0.03 0 0
0.04 0 0
0.05 0 0
0.06 0 0
0.07 0 0
0.08 0 0
0.09 0 0
0.1 0 0
0.11 0 0
0.12 0 0
0.13 0 0
0.14 0 0
0.15 0 0
0.16 0 0
0.17 0 0
0.18 0 0
0.19 0 0
0.2 0 0
0.21 0 0
0.22 0 0
0.23 0 0
0.24 0 0
0.25 0 0
0.26 0 0
0.27 0 0
0.28 0 0
0.29 0 0
0.3 0 0
0.31 0 0
0.32 0 0
0.33 0 0
0.34 0 0
0.35 0 0
0.36 0 0
0.37 0 0
0.38 0 0
0.39 0 0
0.4 0 0
0.41 0 0
0.42 0 0
0.43 0 0
0.44 0 0
0.45 0 0
0.46 0 0
0.47 0 0
0.48 0 0
0.49 0 0
0.5 0 0
0.51 0 0
0.52 0 0
0.53 0 0
0.54 0 0
0.55 0 0
0.56 0 0
0.57 0 0
0.58 0 0
0.59 0 0
0.6 0 0
0.61 0 0
0 0.01 0
0.01 0.01 0
0.02 0.01 0
0.03 0.01 0
0.04 0.01 0
0.05 0.01 0
0.06 0.01 0
0.07 0.01 0
0.08 0.01 0
0.09 0.01 0
0.1 0.01 0
0.11 0.01 0
0.12 0.01 0
0.13 0.01 0
0.14 0.01 0
0.15 0.01 0
0.16 0.01 0
0.17 0.01 0
0.18 0.01 0
0.19 0.01 0
0.2 0.01 0
0.21 0.01 0
0.22 0.01 0
0.23 0.01 0
0.24 0.01 0
0.25 0.01 0
0.26 0.01 0
0.27 0.01 0
0.28 0.01 0
0.29 0.01 0
0.3 0.01 0
0.31 0.01 0
0.32 0.01 0
0.33 0.01 0
0.34 0.01 0
0.35 0.01 0
0.36 0.01 0
0.37 0.01 0
0.38 0.01 0
0.39 0.01 0
0.4 0.01 0
0.41 0.01 0
0.42 0.01 0
0.43 0.01 0
0.44 0.01 0
0.45 0.01 0
0.46 0.01 0
0.47 0.01 0
0.48 0.01 0
0.49 0.01 0
0.5 0.01 0
0.51 0.01 0
0.52 0.01 0
0.53 0.01 0
0.54 0.01 0
0.55 0.01 0
0.56 0.01 0
0.57 0.01 0
0.58 0.01 0
0.59 0.01 0
0.6 0.01 0
0.61 0.01 0
0 0.02 0
0.01 0.02 0
0.02 0.02 0
0.03 0.02 0
0.04 0.02 0
0.05 0.02 0
0.06 0.02 0
0.07 0.02 0
0.08 0.02 0
0.09 0.02 0
0.1 0.02 0
0.11 0.02 0
0.12 0.02 0
0.13 0.02 0
0.14 0.02 0
0.15 0.02 0
0.16 0.02 0
0.17 0.02 0
0.18 0.02 0
0.19 0.02 0
0.2 0.02 0
0.21 0.02 0
0.22 0.02 0
0.23 0.02 0
0.24 0.02 0
0.25 0.02 0
0.26 0.02 0
0.27 0.02 0
0.28 0.02 0
0.29 0.02 0
0.3 0.02 0
0.31 0.02 0
0.32 0.02 0
0.33 0.02 0
0.34 0.02 0
0.35 0.02 0
0.36 0.02 0
0.37 0.02 0
0.38 0.02 0
0.39 0.02 0
0.4 0.02 0
0.41 0.02 0
0.42 0.02 0
0.43 0.02 0
0.44 0.02 0
0.45 0.02 0
0.46 0.02 0
0.47 0.02 0
0.48 0.02 0
0.49 0.02 0
0.5 0.02 0
0.51 0.02 0
0.52 0.02 0
0.53 0.02 0
0.54 0.02 0
0.55 0.02 0
0.56 0.02 0
0.57 0.02 0
0.58 0.02 0
0.59 0.02 0
0.6 0.02 0
0.61 0.02 0
0 0.03 0
0.01 0.03 0
0.02 0.03 0
0.03 0.03 0
0.04 0.03 0
0.05 0.03 0
0.06 0.03 0
0.07 0.03 0
0.08 0.03 0
0.09 0.03 0
0.1 0.03 0
0.11 0.03 0
0.12 0.03 0
0.13 0.03 0
0.14 0.03 0
0.15 0.03 0
0.16 0.03 0
0.17 0.03 0
0.18 0.03 0
0.19 0.03 0
0.2 0.03 0
0.21 0.03 0
0.22 0.03 0
0.23 0.03 0
0.24 0.03 0
0.25 0.03 0
0.26 0.03 0
0.27 0.03 0
0.28 0.03 0
0.29 0.03 0
0.3 0.03 0
0.31 0.03 0
0.32 0.03 0
0.33 0.03 0
0.34 0.03 0
0.35 0.03 0
0.36 0.03 0
0.37 0.03 0
0.38 0.03 0
0.39 0.03 0
0.4 0.03 0
0.41 0.03 0
0.42 0.03 0
0.43 0.03 0
0.44 0.03 0
0.45 0.03 0
0.46 0.03 0
0.47 0.03 0
0.48 0.03 0
0.49 0.03 0
0.5 0.03 0
0.51 0.03 0
0.52 0.03 0
0.53 0.03 0
0.54 0.03 0
0.55 0.03 0
0.56 0.03 0
0.57 0.03 0
0.58 0.03 0
0.59 0.03 0
0.6 0.03 0
0.61 0.03 0
0 0.04 0
0.01 0.04 0
0.02 0.04 0
0.03 0.04 0
0.04 0.04 0
0.05 0.04 0
0.06 0.04 0
0.07 0.04 0
0.08 0.04 0
0.09 0.04 0
0.1 0.04 0
0.11 0.04 0
0.12 0.04 0
0.13 0.04 0
0.14 0.04 0
0.15 0.04 0
0.16 0.04 0
0.17 0.04 0
0.18 0.04 0
0.19 0.04 0
0.2 0.04 0
0.21 0.04 0
0.22 0.04 0
0.23 0.04 0
0.24 0.04 0
0.25 0.04 0
0.26 0.04 0
0.27 0.04 0
0.28 0.04 0
0.29 0.04 0
0.3 0.04 0
0.31 0.04 0
0.32 0.04 0
0.33 0.04 0
0.34 0.04 0
0.35 0.04 0
0.36 0.04 0
0.37 0.04 0
0.38 0.04 0
0.39 0.04 0
0.4 0.04 0
0.41 0.04 0
0.42 0.04 0
0.43 0.04 0
0.44 0.04 0
0.45 0.04 0
0.46 0.04 0
0.47 0.04 0
0.48 0.04 0
0.49 0.04 0
0.5 0.04 0
0.51 0.04 0
0.52 0.04 0
0.53 0.04 0
0.54 0.04 0
0.55 0.04 0
0.56 0.04 0
0.57 0.04 0
0.58 0.04 0
0.59 0.04 0
0.6 0.04 0
0.61 0.04 0
0 0.05 0
0.01 0.05 0
0.02 0.05 0
0.03 0.05 0
0.04 0.05 0
0.05 0.05 0
0.06 0.05 0
0.07 0.05 0
0.08 0.05 0
0.09 0.05 0
0.1 0.05 0
0.11 0.05 0
0.12 0.05 0
0.13 0.05 0
0.14 0.05 0
0.15 0.05 0
0.16 0.05 0
0.17 0.05 0
0.18 0.05 0
0.19 0.05 0
0.2 0.05 0
0.21 0.05 0
0.22 0.05 0
0.23 0.05 0
0.24 0.05 0
0.25 0.05 0
0.26 0.05 0
0.27 0.05 0
0.28 0.05 0
0.29 0.05 0
0.3 0.05 0
0.31 0.05 0
0.32 0.05 0
0.33 0.05 0
0.34 0.05 0
0.35 0.05 0
0.36 0.05 0
0.37 0.05 0
0.38 0.05 0
0.39 0.05 0
0.4 0.05 0
0.41 0.05 0
0.42 0.05 0
0.43 0.05 0
0.44 0.05 0
0.45 0.05 0
0.46 0.05 0
0.47 0.05 0
0.48 0.05 0
0.49 0.05 0
0.5 0.05 0
0.51 0.05 0
0.52 0.05 0
0.53 0.05 0
0.54 0.05 0
0.55 0.05 0
0.56 0.05 0
0.57 0.05 0
0.58 0.05 0
0.59 0.05 0
0.6 0.05 0
0.61 0.05 0
0 0.06 0
0.01 0.06 0
0.02 0.06 0
0.03 0.06 0
0.04 0.06 0
0.05 0.06 0
0.06 0.06 0
0.07 0.06 0
0.08 0.06 0
0.09 0.06 0
0.1 0.06 0
0.11 0.06 0
0.12 0.06 0
0.13 0.06 0
0.14 0.06 0
0.15 0.06 0
0.16 0.06 0
0.17 0.06 0
0.18 0.06 0
0.19 0.06 0
0.2 0.06 0
0.21 0.06 0
0.22 0.06 0
0.23 0.06 0
0.24 0.06 0
0.25 0.06 0
0.26 0.06 0
0.27 0.06 0
0.28 0.06 0
0.29 0.06 0
0.3 0.06 0
0.31 0.06 0
0.32 0.06 0
0.33 0.06 0
0.34 0.06 0
0.35 0.06 0
0.36 0.06 0
0.37 0.06 0
0.38 0.06 0
0.39 0.06 0
0.4 0.06 0
0.41 0.06 0
0.42 0.06 0
0.43 0.06 0
0.44 0.06 0
0.45 0.06 0
0.46 0.06 0
0.47 0.06 0
0.48 0.06 0
0.49 0.06 0
0.5 0.06 0
0.51 0.06 0
0.52 0.06 0
0.53 0.06 0
0.54 0.06 0
0.55 0.06 0
0.56 0.06 0
0.57 0.06 0
0.58 0.06 0
0.59 0.06 0
0.6 0.06 0
0.61 0.06 0
0 0.07 0
0.01 0.07 0
0.02 0.07 0
0.03 0.07 0
0.04 0.07 0
0.05 0.07 0
0.06 0.07 0
0.07 0.07 0
0.08 0.07 0
0.09 0.07 0
0.1 0.07 0
0.11 0.07 0
0.12 0.07 0
0.13 0.07 0
0.14 0.07 0
0.15 0.07 0
0.16 0.07 0
0.17 0.07 0
0.18 0.07 0
0.19 0.07 0
0.2 0.07 0
0.21 0.07 0
0.22 0.07 0
0.23 0.07 0
0.24 0.07 0
0.25 0.07 0
0.26 0.07 0
0.27 0.07 0
0.28 0.07 0
0.29 0.07 0
0.3 0.07 0
0.31 0.07 0
0.32 0.07 0
0.33 0.07 0
0.34 0.07 0
0.35 0.07 0
0.36 0.07 0
0.37 0.07 0
0.38 0.07 0
0.39 0.07 0
0.4 0.07 0
0.41 0.07 0
0.42 0.07 0
0.43 0.07 0
0.44 0.07 0
0.45 0.07 0
0.46 0.07 0
0.47 0.07 0
0.48 0.07 0
0.49 0.07 0
0.5 0.07 0
0.51 0.07 0
0.52 0.07 0
0.53 0.07 0
0.54 0.07 0
0.55 0.07 0
0.56 0.07 0
0.57 0.07 0
0.58 0.07 0
0.59 0.07 0
0.6 0.07 0
0.61 0.07 0
0 0.08 0
0.01 0.08 0
0.02 0.08 0
0.03 0.08 0
0.04 0.08 0
0.05 0.08 0
0.06 0.08 0
0.07 0.08 0
0.08 0.08 0
0.09 0.08 0
0.1 0.08 0
0.11 0.08 0
0.12 0.08 0
0.13 0.08 0
0.14 0.08 0
0.15 0.08 0
0.16 0.08 0
0.17 0.08 0
0.18 0.08 0
0.19 0.08 0
0.2 0.08 0
0.21 0.08 0
0.22 0.08 0
0.23 0.08 0
0.24 0.08 0
0.25 0.08 0
0.26 0.08 0
0.27 0.08 0
0.28 0.08 0
0.29 0.08 0
0.3 0.08 0
0.31 0.08 0
0.32 0.08 0
0.33 0.08 0
0.34 0.08 0
0.35 0.08 0
0.36 0.08 0
0.37 0.08 0
0.38 0.08 0
0.39 0.08 0
0.4 0.08 0
0.41 0.08 0
0.42 0.08 0
0.43 0.08 0
0.44 0.08 0
0.45 0.08 0
0.46 0.08 0
0.47 0.08 0
0.48 0.08 0
0.49 0.08 0
0.5 0.08 0
0.51 0.08 0
0.52 0.08 0
0.53 0.08 0
0.54 0.08 0
0.55 0.08 0
0.56 0.08 0
0.57 0.08 0
0.58 0.08 0
0.59 0.08 0
0.6 0.08 0
0.61 0.08 0
0 0.09 0
0.01 0.09 0
0.02 0.09 0
0.03 0.09 0
0.04 0.09 0
0.05 0.09 0
0.06 0.09 0
0.07 0.09 0
0.08 0.09 0
0.09 0.09 0
0.1 0.09 0
0.11 0.09 0
0.12 0.09 0
0.13 0.09 0
0.14 0.09 0
0.15 0.09 0
0.16 0.09 0
0.17 0.09 0
0.18 0.09 0
0.19 0.09 0
0.2 0.09 0
0.21 0.09 0
0.22 0.09 0
0.23 0.09 0
0.24 0.09 0
0.25 0.09 0
0.26 0.09 0
0.27 0.09 0
0.28 0.09 0
0.29 0.09 0
0.3 0.09 0
0.31 0.09 0
0.32 0.09 0
0.33 0.09 0
0.34 0.09 0
0.35 0.09 0
0.36 0.09 0
0.37 0.09 0
0.38 0.09 0
0.39 0.09 0
0.4 0.09 0
0.41 0.09 0
0.42 0.09 0
0.43 0.09 0
0.44 0.09 0
0.45 0.09 0
0.46 0.09 0
0.47 0.09 0
0.48 0.09 0
0.49 0.09 0
0.5 0.09 0
0.51 0.09 0
0.52 0.09 0
0.53 0.09 0
0.54 0.09 0
0.55 0.09 0
0.56 0.09 0
0.57 0.09 0
0.58 0.09 0
0.59 0.09 0
0.6 0.09 0
0.61 0.09 0
0 0.1 0
0.01 0.1 0
0.02 0.1 0
0.03 0.1 0
0.04 0.1 0
0.05 0.1 0
0.06 0.1 0
0.07 0.1 0
0.08 0.1 0
0.09 0.1 0
0.1 0.1 0
0.11 0.1 0
0.12 0.1 0
0.13 0.1 0
0.14 0.1 0
0.15 0.1 0
0.16 0.1 0
0.17 0.1 0
0.18 0.1 0
0.19 0.1 0
0.2 0.1 0
0.21 0.1 0
0.22 0.1 0
0.23 0.1 0
0.24 0.1 0
0.25 0.1 0
0.26 0.1 0
0.27 0.1 0
0.28 0.1 0
0.29 0.1 0
0.3 0.1 0
0.31 0.1 0
0.32 0.1 0
0.33 0.1 0
0.34 0.1 0
0.35 0.1 0
0.36 0.1 0
0.37 0.1 0
0.38 0.1 0
0.39 0.1 0
0.4 0.1 0
0.41 0.1 0
0.42 0.1 0
0.43 0.1 0
0.44 0.1 0
0.45 0.1 0
0.46 0.1 0
0.47 0.1 0
0.48 0.1 0
0.49 0.1 0
0.5 0.1 0
0.51 0.1 0
0.52 0.1 0
0.53 0.1 0
0.54 0.1 0
0.55 0.1 0
0.56 0.1 0
0.57 0.1 0
0.58 0.1 0
0.59 0.1 0
0.6 0.1 0
0.61 0.1 0
0 0.11 0
0.01 0.11 0
0.02 0.11 0
0.03 0.11 0
0.04 0.11 0
0.05 0.11 0
0.06 0.11 0
0.07 0.11 0
0.08 0.11 0
0.09 0.11 0
0.1 0.11 0
0.11 0.11 0
0.12 0.11 0
0.13 0.11 0
0.14 0.11 0
0.15 0.11 0
0.16 0.11 0
0.17 0.11 0
0.18 0.11 0
0.19 0.11 0
0.2 0.11 0
0.21 0.11 0
0.22 0.11 0
0.23 0.11 0
0.24 0.11 0
0.25 0.11 0
0.26 0.11 0
0.27 0.11 0
0.28 0.11 0
0.29 0.11 0
0.3 0.11 0
0.31 0.11 0
0.32 0.11 0
0.33 0.11 0
0.34 0.11 0
0.35 0.11 0
0.36 0.11 0
0.37 0.11 0
0.38 0.11 0
0.39 0.11 0
0.4 0.11 0
0.41 0.11 0
0.42 0.11 0
0.43 0.11 0
0.44 0.11 0
0.45 0.11 0
0.46 0.11 0
0.47 0.11 0
0.48 0.11 0
0.49 0.11 0
0.5 0.11 0
0.51 0.11 0
0.52 0.11 0
0.53 0.11 0
0.54 0.11 0
0.55 0.11 0
0.56 0.11 0
0.57 0.11 0
0.58 0.11 0
0.59 0.11 0
0.6 0.11 0
0.61 0.11 0
0 0.12 0
0.01 0.12 0
0.02 0.12 0
0.03 0.12 0
0.04 0.12 0
0.05 0.12 0
0.06 0.12 0
0.07 0.12 0
0.08 0.12 0
0.09 0.12 0
0.1 0.12 0
0.11 0.12 0
0.12 0.12 0
0.13 0.12 0
0.14 0.12 0
0.15 0.12 0
0.16 0.12 0
0.17 0.12 0
0.18 0.12 0
0.19 0.12 0
0.2 0.12 0
0.21 0.12 0
0.22 0.12 0
0.23 0.12 0
0.24 0.12 0
0.25 0.12 0
0.26 0.12 0
0.27 0.12 0
0.28 0.12 0
0.29 0.12 0
0.3 0.12 0
0.31 0.12 0
0.32 0.12 0
0.33 0.12 0
0.34 0.12 0
0.35 0.12 0
0.36 0.12 0
0.37 0.12 0
0.38 0.12 0
0.39 0.12 0
0.4 0.12 0
0.41 0.12 0
0.42 0.12 0
0.43 0.12 0
0.44 0.12 0
0.45 0.12 0
0.46 0.12 0
0.47 0.12 0
0.48 0.12 0
0.49 0.12 0
0.5 0.12 0
0.51 0.12 0
0.52 0.12 0
0.53 0.12 0
0.54 0.12 0
0.55 0.12 0
0.56 0.12 0
0.57 0.12 0
0.58 0.12 0
0.59 0.12 0
0.6 0.12 0
0.61 0.12 0
0 0.13 0
0.01 0.13 0
0.02 0.13 0
0.03 0.13 0
0.04 0.13 0
0.05 0.13 0
0.06 0.13 0
0.07 0.13 0
0.08 0.13 0
0.09 0.13 0
0.1 0.13 0
0.11 0.13 0
0.12 0.13 0
0.13 0.13 0
0.14 0.13 0
0.15 0.13 0
0.16 0.13 0
0.17 0.13 0
0.18 0.13 0
0.19 0.13 0
0.2 0.13 0
0.21 0.13 0
0.22 0.13 0
0.23 0.13 0
0.24 0.13 0
0.25 0.13 0
0.26 0.13 0
0.27 0.13 0
0.28 0.13 0
0.29 0.13 0
0.3 0.13 0
0.31 0.13 0
0.32 0.13 0
0.33 0.13 0
0.34 0.13 0
0.35 0.13 0
0.36 0.13 0
0.37 0.13 0
0.38 0.13 0
0.39 0.13 0
0.4 0.13 0
0.41 0.13 0
0.42 0.13 0
0.43 0.13 0
0.44 0.13 0
0.45 0.13 0
0.46 0.13 0
0.47 0.13 0
0.48 0.13 0
[...]
POINT_DATA 93248

SCALARS w double
LOOKUP_TABLE default
0
0
0
0
0
0
0
0
0
0
0
0
0
-0.0194157
0
0
0
0
0
0
0
0
0
0
0
0
-0.0230995
0
0
0
0
0
-0.0223502
0
0
0
0
0
0
0
0
0
0
0
0
0
-0.0218105
0
0
0
0
0
0
0
0
0
0
0
0
0
0
0
0
-0.00605061
-0.00454964
-0.00519811
-0.00806163
-0.0122353
-0.0149199
-0.0161964
-0.0169201
-0.0173888
-0.0177133
-0.0179565
-0.0180977
-0.0182374
-0.0183492
-0.0184377
-0.0184997
-0.0185605
-0.0185891
-0.0186007
-0.0184934
-0.0185265
-0.0185399
-0.018576
-0.0185972
-0.018608
-0.0186131
-0.0186146
-0.0186136
-0.0186098
-0.0186014
-0.0185839
-0.0185469
-0.0185184
-0.0184406
-0.0182051
-0.0177465
-0.0167648
-0.0157916
-0.0226089
-0.0195564
-0.0193151
-0.0190691
-0.0189226
-0.0189
-0.022905
-0.0186549
-0.0186303
-0.0186572
-0.0186783
-0.0187395
-0.0189776
-0.0183415
-0.0186798
-0.0228964
-0.0189075
-0.0190521
-0.0182263
-0.0184713
-0.0184347
-0.0172097
0
0
-0.00737594
-0.00772125
-0.00638763
-0.00940025
-0.0149733
-0.0186748
-0.0206852
-0.0218475
-0.0225457
-0.0229773
-0.0233374
-0.0234756
-0.0236527
-0.0238079
-0.0239371
-0.0240041
-0.0241216
-0.0241545
-0.0242537
-0.0238503
-0.0239788
-0.0232895
-0.0240638
-0.02411
-0.0241261
-0.0241322
-0.0241338
-0.0241326
-0.0241286
-0.0241203
-0.0241006
-0.0240503
-0.024033
-0.0240034
-0.0236514
-0.0229783
-0.0208738
-0.0155146
-0.030882
-0.0283621
-0.0258932
-0.0248344
-0.0245029
-0.0244529
-0.0245299
-0.0242273
-0.0241367
-0.02414
-0.0241772
-0.0241721
-0.0229341
-0.0241068
-0.0242171
-0.0243118
-0.0243214
-0.0243471
-0.0240266
-0.0240728
-0.0238828
-0.0220612
0
0
-0.00690956
-0.00604465
-0.0055035
-0.00913581
-0.0122353
-0.0185108
-0.0205287
-0.0216861
-0.022373
-0.0227132
-0.023296
-0.023549
-0.0236186
-0.0236673
-0.0237039
-0.0238313
-0.0240821
-0.0240312
-0.0240131
-0.024019
-0.0239864
-0.0239396
-0.0239537
-0.0239667
-0.0239747
-0.0239786
-0.0239797
-0.0239787
-0.0239759
-0.0239719
-0.0239721
-0.0239915
-0.0232781
-0.0240394
-0.0235109
-0.0231771
-0.0223914
-0.0212186
-0.0259491
-0.0259063
-0.0249833
-0.0244805
-0.0242959
-0.0243445
-0.0246221
-0.0237604
-0.0238371
-0.0239111
-0.0240477
-0.0240236
-0.0240013
-0.0240173
-0.0240484
-0.0240789
-0.0240908
-0.0241082
-0.0240848
-0.0240151
-0.0237595
-0.0218795
0
0
-0.00658876
-0.00519165
-0.00516008
-0.00852163
-0.0144558
-0.0182745
-0.0202139
-0.0213312
-0.0220061
-0.0224259
-0.022795
-0.0230265
-0.0231471
-0.0232197
-0.02322
-0.0232784
-0.0231657
-0.0233266
-0.0234427
-0.0235347
-0.0235408
-0.023535
-0.0235386
-0.0235447
-0.0235493
-0.0235519
-0.0235526
-0.0235517
-0.0235494
-0.023546
-0.0235426
-0.0235425
-0.0235149
-0.0235128
-0.0233165
-0.0231644
-0.0229676
-0.023131
-0.0240191
-0.0241925
-0.0240047
-0.0238455
-0.0237707
-0.0237823
-0.0238549
-0.0236367
-0.0235678
-0.023566
-0.0235923
-0.0235913
-0.0235902
-0.0235981
-0.0236119
-0.0236248
-0.0236317
-0.0236362
-0.0236353
-0.0235944
-0.0233432
-0.0214838
0
0
-0.00650306
-0.00505334
-0.00488555
-0.00884963
-0.0145436
-0.0181714
-0.0200632
-0.0211752
-0.0218291
-0.0222413
-0.0225365
-0.0227449
-0.0228813
-0.0229586
-0.020635
-0.0229446
-0.0230319
-0.0231249
-0.0232043
-0.0232597
-0.0232808
-0.0232895
-0.023296
-0.0233012
-0.0233047
-0.0233066
-0.0233071
-0.0233065
-0.0233047
-0.023301
-0.0232939
-0.0232781
-0.0232367
-0.0232372
-0.0231865
-0.0231372
-0.0231027
-0.0231521
-0.0234264
-0.0235299
-0.0235134
-0.0234719
-0.0234445
-0.0234448
-0.0234911
-0.0236234
-0.0234232
-0.0233537
-0.0233419
-0.0233395
-0.023341
-0.023349
-0.0233629
-0.0233732
-0.023377
-0.0233762
-0.0233707
-0.023337
-0.0230875
-0.0212553
0
0
-0.0064569
-0.00494199
-0.00500327
-0.0088937
-0.0145213
-0.0180365
-0.019995
-0.0211805
-0.0217556
-0.0221324
-0.0224049
-0.0226015
-0.022741
-0.0228278
-0.0228368
-0.022913
-0.0229711
-0.0228112
-0.0230745
-0.0231149
-0.0231371
-0.0231498
-0.0231579
-0.0231631
-0.0231664
-0.0231678
-0.0231684
-0.0231684
-0.0231675
-0.0231646
-0.0231561
-0.0231308
-0.0230442
-0.0230836
-0.0231018
-0.0230945
-0.0230961
-0.023131
-0.0232122
-0.0232609
-0.0232707
-0.0232626
-0.0232499
-0.0232289
-0.0231594
-0.0229235
-0.0230918
-0.023166
-0.0231843
-0.0231851
-0.0231848
-0.0231961
-0.0232273
-0.0232431
-0.023244
-0.0232367
-0.0232203
-0.0231629
-0.0228832
-0.0210663
0
0
-0.0064285
-0.0048778
-0.00497809
-0.00888281
-0.0144749
-0.0177634
-0.0199977
-0.0209889
-0.0215982
-0.0219658
-0.0222931
-0.0225181
-0.0226625
-0.022758
-0.0228086
-0.0228368
-0.0228888
-0.0229443
-0.0229954
-0.0230294
-0.0230502
-0.023064
-0.0230729
-0.0230785
-0.023082
-0.0230818
-0.023083
-0.0230844
-0.0230861
-0.0230868
-0.0230822
-0.0230961
-0.0231733
-0.0231142
-0.023068
-0.0230562
-0.0230595
-0.0230777
-0.0231079
-0.0231309
-0.0231408
-0.0231411
-0.023136
-0.0231211
-0.0230832
-0.0230073
-0.023052
-0.0230811
-0.0230835
-0.0230697
-0.0230515
-0.0230615
-0.0231671
-0.023196
-0.0231851
-0.0231644
-0.0231287
-0.0230052
-0.0184347
-0.0208275
0
0
-0.00640976
-0.00483599
-0.00494553
-0.00886994
-0.0144817
-0.0179541
-0.0198645
-0.0209166
-0.0215033
-0.0219389
-0.0222543
-0.0224915
-0.0226189
-0.0227147
-0.0227537
-0.0226606
-0.020556
-0.0228446
-0.0229305
-0.022971
-0.0229899
-0.0230061
-0.0230165
-0.0230225
-0.0230273
-0.0230223
-0.023025
-0.0230298
-0.0230383
-0.0230483
-0.0230251
-0.0230244
-0.023052
-0.0230343
-0.0230207
-0.0230167
-0.0230212
-0.0230313
-0.0230451
-0.023057
-0.0230643
-0.0230669
-0.0230655
-0.0230589
-0.0230445
-0.023024
-0.0230269
-0.0230245
-0.0230027
-0.02295
-0.0228581
-0.0227931
-0.0232368
-0.0232647
-0.0231962
-0.0231468
-0.0231281
-0.0231197
-0.0227804
-0.0209611
0
0
-0.00639658
-0.00480611
-0.00491825
-0.00885717
-0.0144866
-0.0180097
-0.0198229
-0.0208507
-0.0214905
-0.0219233
-0.0222315
-0.0234756
-0.0226475
-0.022705
-0.0227595
-0.0227806
-0.0228235
-0.0228731
-0.0229137
-0.0229382
-0.0229452
-0.0229636
-0.0229772
-0.022982
-0.0229835
-0.0229813
-0.0229835
-0.022992
-0.0230182
-0.0230699
-0.0229736
-0.0229543
-0.0229705
-0.0229787
-0.0229799
-0.0229808
-0.0229886
-0.022995
-0.0230022
-0.0230092
-0.0230146
-0.0230179
-0.0230187
-0.0230168
-0.0230116
-0.0230039
-0.0229966
-0.0229782
-0.0229274
-0.0227928
-0.0224516
-0.0203186
-0.0237327
-0.023594
-0.0232949
-0.023156
-0.0231049
-0.0230704
-0.0227974
-0.0209587
0
0
-0.00638697
-0.00478376
-0.00489512
-0.00883685
-0.014477
-0.0180105
-0.0197958
-0.0208285
-0.0214742
-0.0219042
-0.0222059
-0.022441
-0.0225811
-0.0226845
-0.0227697
-0.0228147
-0.0228454
-0.0228741
-0.0228987
-0.0229182
-0.0229597
-0.02296
-0.0229547
-0.0229528
-0.0228681
-0.0229453
-0.0229455
-0.0229563
-0.0230123
-0.0231915
-0.0229173
-0.0228913
-0.0229171
-0.0229376
-0.0229462
-0.0229447
-0.0229638
-0.0229681
-0.0229703
-0.0229745
-0.022979
-0.0229827
-0.0229851
-0.0229858
-0.0229843
-0.0229801
-0.0229706
-0.0229455
-0.0228726
-0.0226412
-0.0218928
-0.0203186
-0.0253472
-0.024238
-0.0234445
-0.0231697
-0.0230866
-0.023039
-0.0227821
-0.0209459
0
0
-0.00638003
-0.00476734
-0.00487686
-0.00880236
-0.0144565
-0.0179992
-0.0197809
-0.0208131
-0.0214589
-0.0218872
-0.0221844
-0.0223991
-0.0225536
-0.0226803
-0.0228198
-0.0228518
-0.0228586
-0.0228685
-0.0228816
-0.0228782
-0.022946
-0.0229415
-0.0229331
-0.0229283
-0.022921
-0.022912
-0.0229006
-0.0228937
-0.0229119
-0.0230017
-0.0231116
-0.0229697
-0.0229184
-0.0229164
-0.0229214
-0.0229244
-0.0229259
-0.022945
-0.0229438
-0.0229459
-0.0229503
-0.0229547
-0.0229589
-0.0229617
-0.0229626
-0.0229607
-0.0229535
-0.0229343
-0.022885
-0.0227596
-0.0224687
-0.0221435
-0.023716
-0.0235445
-0.0232486
-0.0231105
-0.0230573
-0.0230163
-0.0227653
-0.0209319
0
0
-0.0063754
-0.00475737
-0.00487688
-0.00887254
-0.014493
-0.0180022
-0.0197729
-0.0208019
-0.0214467
-0.0218732
-0.0221682
-0.0223785
-0.0225346
-0.0226755
-0.0229221
-0.0228963
-0.0228625
-0.0228612
-0.0228708
-0.0228832
-0.0229085
-0.0229135
-0.022912
-0.0229064
-0.0228946
-0.0228743
-0.0228425
-0.0227994
-0.0227512
-0.0227228
-0.0225209
-0.0226992
-0.0228214
-0.0228738
-0.0228948
-0.0229027
-0.0229061
-0.0229118
-0.0229137
-0.0229177
-0.0229234
-0.0229289
-0.0229362
-0.0229417
-0.022945
-0.0229458
-0.0229428
-0.0229332
-0.0229107
-0.022863
-0.0227911
-0.0227757
-0.0231449
-0.0231642
-0.0230984
-0.0230512
-0.0230281
-0.022997
-0.0227503
-0.0209193
0
0
-0.00637193
-0.00474823
-0.00486509
-0.00884089
-0.0144732
-0.0179916
-0.019764
-0.020793
-0.0214372
-0.021862
-0.0221552
-0.0223619
-0.0225045
-0.0225796
-0.0224864
-0.0226312
-0.0227538
-0.0228179
-0.0228493
-0.0228711
-0.0228885
-0.0228959
-0.0228954
-0.0228871
-0.0228681
-0.0228313
-0.0227644
-0.0226521
-0.0224607
-0.0225292
-0.0225771
-0.0227058
-0.0228006
-0.0228502
-0.0228717
-0.0228793
-0.0228801
-0.0228788
-0.0228788
-0.0228844
-0.0228935
-0.0227714
-0.0229139
-0.022924
-0.0229302
-0.0229338
-0.022935
-0.0229342
-0.0229323
-0.0229137
-0.0229003
-0.0229187
-0.0230086
-0.0230325
-0.0230236
-0.023012
-0.0230077
-0.0229822
-0.0227382
-0.0209089
0
0
-0.00637023
-0.00474264
-0.00485654
-0.00886994
-0.0144621
-0.0179827
-0.0197569
-0.0207868
-0.0214313
-0.021858
-0.0221493
-0.0223528
-0.0224948
-0.0225823
-0.0226025
-0.0226845
-0.0227615
-0.0228083
-0.0228173
-0.0228507
-0.0228738
-0.0228835
-0.0228827
-0.0228714
-0.0228442
-0.0227857
-0.0226601
-0.0223684
-0.0213184
-0.0220187
-0.0224448
-0.0226656
-0.0227769
-0.0228288
-0.0228499
-0.0228535
-0.0228757
-0.0228336
-0.0228256
-0.0228357
-0.0228556
-0.0228753
-0.022894
-0.0229076
-0.0229171
-0.0229233
-0.0229276
-0.0229337
-0.022948
-0.0229345
-0.0229315
-0.0229478
-0.022986
-0.0229897
-0.0229886
-0.0229896
-0.0231629
-0.0229734
-0.0227295
-0.020901
0
0
-0.00637188
-0.00474574
-0.00485421
-0.00881876
-0.0144524
-0.0179729
-0.0197519
-0.0207845
-0.0214284
-0.0218528
-0.0221429
-0.0223468
-0.0224915
-0.0225922
-0.0226587
-0.0227227
-0.0227757
-0.0228027
-0.0227606
-0.0228203
-0.0228636
-0.0228754
-0.0228743
-0.022861
-0.0228285
-0.0227524
-0.0225499
-0.0217425
0.0194906
-0.020482
-0.0221061
-0.0225905
-0.022752
-0.0228106
-0.0228292
-0.0228232
-0.0227972
-0.022756
-0.0227196
-0.0227469
-0.0227953
-0.0228385
-0.02287
-0.0228912
-0.022905
-0.0229135
-0.0229179
-0.0229156
-0.0229016
-0.0229176
-0.0229332
-0.0229567
-0.0237327
-0.0229808
-0.0229698
-0.0229705
-0.0229841
-0.0229658
-0.0227241
-0.0208962
0
0
-0.00637894
-0.00477719
-0.00486739
-0.00881656
-0.0144426
-0.0179562
-0.0197509
-0.0207922
-0.0214329
-0.021852
-0.0221394
-0.0223423
-0.0224884
-0.0225952
-0.0226746
-0.0227375
-0.0227879
-0.0228367
-0.0229326
-0.0229051
-0.0228811
-0.0228763
-0.0228707
-0.0228575
-0.0228283
-0.0227659
-0.0226283
-0.0222969
-0.021249
-0.021997
-0.0224506
-0.0226655
-0.0227616
-0.0228004
-0.0228123
-0.0227891
-0.0227236
-0.022605
-0.0224347
-0.0225564
-0.0226919
-0.0227854
-0.0228418
-0.0228748
-0.0228947
-0.0229055
-0.0229113
-0.0229059
-0.0229078
-0.0229131
-0.0229262
-0.0229407
-0.0229601
-0.022954
-0.0229545
-0.0229475
-0.0229881
-0.0229706
-0.022725
-0.0208959
0
0
-0.00638385
-0.00487136
-0.00490328
-0.00881509
-0.0144259
-0.0179121
-0.0197633
-0.0208225
-0.0214559
-0.0218582
-0.0221384
-0.0223378
-0.0224828
-0.0225923
-0.0226792
-0.0227442
-0.0227919
-0.0228313
-0.0228748
-0.0228768
-0.0228746
-0.022873
-0.0228689
-0.0228583
-0.0228363
-0.0227948
-0.0227191
-0.0225931
-0.0224094
-0.0225168
-0.0226449
-0.0227309
-0.0227729
-0.0227845
-0.0228056
-0.0227603
-0.0226217
-0.0222819
-0.0212471
-0.0220579
-0.0225113
-0.0227165
-0.0228124
-0.0228602
-0.0228872
-0.0228993
-0.022906
-0.0229083
-0.0229031
-0.0228865
-0.022912
-0.0229277
-0.0229356
-0.0229369
-0.0236317
-0.0228884
-0.0230395
-0.0229999
-0.0227354
-0.0209006
0
0
-0.00632838
-0.00455308
-0.00474018
-0.0087599
-0.0143961
-0.0180105
-0.0198331
-0.0208853
-0.0214908
-0.0218734
-0.0221404
-0.0223314
-0.0224696
-0.0225797
-0.0226851
-0.0227561
-0.022799
-0.0228282
-0.0228517
-0.0228632
-0.0228686
-0.0228705
-0.0228683
-0.0228607
-0.0228451
-0.0228181
-0.022775
-0.0227227
-0.0226555
-0.0226901
-0.0227389
-0.0227692
-0.022766
-0.0227275
-0.0228345
-0.0227703
-0.0225303
-0.0215867
0.0224632
-0.0206661
-0.0222341
-0.022654
-0.022793
-0.0228499
-0.0228754
-0.022892
-0.0229016
-0.0229049
-0.0228918
-0.022835
-0.0228932
-0.022919
-0.0229222
-0.0229083
-0.0228516
-0.0227138
-0.0231862
-0.0230537
-0.0227474
-0.0209239
0
0
-0.00633431
-0.00464972
-0.00477783
-0.00875139
-0.0144176
-0.017989
-0.0198242
-0.0208494
-0.02146
-0.0218578
-0.0221481
-0.0223205
-0.0224338
-0.0225296
-0.0227122
-0.0227963
-0.0228209
-0.0228323
-0.0228465
-0.0228582
-0.0228657
-0.0228691
-0.0228684
-0.0228629
-0.0228512
-0.0228309
-0.0227991
-0.0227692
-0.0226898
-0.0227407
-0.0227854
-0.0227895
-0.0227404
-0.0225775
-0.0229505
-0.0228599
-0.022651
-0.0222624
-0.0212052
-0.0220334
-0.0225029
-0.022709
-0.0228054
-0.0228528
-0.0228767
-0.02289
-0.0228997
-0.0229108
-0.0229362
-0.0230056
-0.0229513
-0.0229262
-0.0229191
-0.0229113
-0.0228916
-0.0228696
-0.0230231
-0.0229877
-0.0227249
-0.0208913
0
0
-0.00634405
-0.00468682
-0.00479218
-0.00870131
-0.0144163
-0.0181497
-0.0198773
-0.0208348
-0.0214396
-0.0218476
-0.0221792
-0.0223
-0.0223282
-0.0223442
-0.0228082
-0.0229399
-0.0228793
-0.0228382
-0.0228438
-0.0228557
-0.0228643
-0.0228686
-0.0228689
-0.0228646
-0.0228537
-0.0228303
-0.0227703
-0.0228124
-0.0229052
-0.0228666
-0.0228344
-0.022821
-0.0227946
-0.0227488
-0.0228542
-0.0228253
-0.0227299
-0.02259
-0.0224149
-0.0225376
-0.0226765
-0.0227714
-0.0228295
-0.022864
-0.0228827
-0.0228869
-0.0228944
-0.0229059
-0.0229234
-0.0229509
-0.0229351
-0.022917
-0.0229106
-0.022911
-0.0229187
-0.0229251
-0.0229649
-0.0229495
-0.0227052
-0.0208776
0
0
-0.00635002
-0.00470209
-0.00482506
-0.00887251
-0.0144337
-0.017733
-0.0195823
-0.0207034
-0.0213859
-0.0218093
-0.0219992
-0.0221457
-0.0220552
-0.0217991
-0.0232253
-0.0231802
-0.0230114
-0.0228333
-0.022835
-0.0228542
-0.0228638
-0.0228688
-0.02287
-0.0228665
-0.0228551
-0.0228195
-0.0206214
-0.0227398
-0.0228479
-0.0228544
-0.0228476
-0.0228393
-0.022827
-0.0228133
-0.0228296
-0.022815
-0.0227789
-0.0227327
-0.0226963
-0.0227237
-0.0227731
-0.0228187
-0.0228555
-0.0228834
-0.022901
-0.0228755
-0.02288
-0.022896
-0.0229142
-0.0229341
-0.0229367
-0.0228946
-0.0228851
-0.0228908
-0.0229368
-0.0229459
-0.0229536
-0.0229359
-0.0226949
-0.0208687
0
0
-0.00635242
-0.0047051
-0.00482177
-0.00881287
-0.0144205
-0.0178662
-0.0196587
-0.0207285
-0.0214061
-0.0218491
-0.0220708
-0.022131
-0.0217272
-0.0225915
-0.0230108
-0.0230609
-0.0229124
-0.0229123
-0.0228796
-0.0228652
-0.0228665
-0.0228702
-0.0228724
-0.0228702
-0.0228624
-0.0228434
-0.0227876
-0.0228233
-0.0228497
-0.022856
-0.0228542
-0.022848
-0.0228369
-0.0228214
-0.0228194
-0.0228071
-0.0228016
-0.0227934
-0.0227895
-0.0228018
-0.0228244
-0.0228506
-0.0229617
-0.0229197
-0.0229628
-0.0228304
-0.0228412
-0.0228775
-0.0229103
-0.0229563
-0.0229906
-0.0228322
-0.0228173
-0.022816
-0.0229886
-0.0229795
-0.0229604
-0.0229338
-0.0226902
-0.0208636
0
0
-0.00635347
-0.00470571
-0.00481858
-0.00879617
-0.0144265
-0.0179319
-0.0197147
-0.0207642
-0.021444
-0.0220276
-0.0221989
-0.0222759
-0.0222853
-0.0227037
-0.0228864
-0.0228572
-0.0228458
-0.0228571
-0.0228572
-0.02286
-0.0228656
-0.0228718
-0.0228776
-0.0228759
-0.0228707
-0.0228632
-0.022853
-0.0228606
-0.022858
-0.0228605
-0.0228589
-0.0228509
-0.0228315
-0.022775
-0.0227889
-0.0227512
-0.0227921
-0.0228151
-0.022826
-0.022837
-0.0228511
-0.0228694
-0.0228995
-0.0229688
-0.0231147
-0.0227066
-0.0227723
-0.022847
-0.0228984
-0.023014
-0.023152
-0.0226892
-0.0227046
-0.0226363
-0.0231351
-0.0230372
-0.0229744
-0.022938
-0.0226891
-0.0208606
0
0
-0.00635442
-0.00470698
-0.00481893
-0.00879543
-0.0144337
-0.0179562
-0.0197523
-0.0207883
-0.0214511
-0.0347571
-0.022507
-0.0223967
-0.0224552
-0.0226366
-0.022734
-0.0227792
-0.0228052
-0.0228279
-0.0228432
-0.0228544
-0.0228642
-0.0228751
-0.0228938
-0.0228853
-0.0228777
-0.0228744
-0.0228756
-0.0228912
-0.0228571
-0.0228623
-0.0228629
-0.0228525
-0.0228135
-0.0184406
-0.0227044
-0.0206072
-0.0227293
-0.0228164
-0.0228418
-0.0228542
-0.0228649
-0.0228775
-0.0228945
-0.0229241
-0.0229587
-0.0228275
-0.022825
-0.0228322
-0.0228295
-0.0230164
-0.0230467
-0.022852
-0.0228233
-0.0228194
-0.0229816
-0.0229749
-0.0229617
-0.0229507
-0.0226909
-0.0208584
0
0
-0.00635583
-0.00470967
-0.00482157
-0.00879819
-0.0144386
-0.0179637
-0.020793
-0.0208257
-0.021474
-0.022055
-0.0222411
-0.0223669
-0.0224834
-0.0226019
-0.0226892
-0.022747
-0.0227726
-0.0228131
-0.0228353
-0.0228502
-0.0228618
-0.0228772
-0.0229226
-0.0228992
-0.0228796
-0.0228801
-0.0228834
-0.0228912
-0.0228777
-0.0228734
-0.0228711
-0.0228614
-0.0228411
-0.0227842
-0.0227995
-0.0227647
-0.0228117
-0.0228408
-0.0228552
-0.0228646
-0.0228737
-0.0228842
-0.0228904
-0.022898
-0.0229008
-0.0228662
-0.0228459
-0.0227919
-0.0226638
-0.0231294
-0.0230781
-0.0229229
-0.0228878
-0.0228894
-0.0229298
-0.0229396
-0.0229546
-0.0229802
-0.0226946
-0.0208547
0
0
-0.00635819
-0.00471459
-0.00482646
-0.00880244
-0.0144428
-0.0179694
-0.0197664
-0.0208007
-0.0214511
-0.0218969
-0.022163
-0.0223418
-0.0224791
-0.0225895
-0.0226731
-0.0227337
-0.0227768
-0.0228091
-0.0228316
-0.0228466
-0.022855
-0.0228526
-0.0228113
-0.0228301
-0.0228558
-0.0228821
-0.0228902
-0.022882
-0.0228803
-0.0228797
-0.0230251
-0.0228722
-0.0228602
-0.0228462
-0.0228428
-0.0228377
-0.0228473
-0.022857
-0.0228646
-0.0228717
-0.0228821
-0.0229017
-0.0228936
-0.0228897
-0.0228868
-0.0228767
-0.0228657
-0.0228433
-0.0228162
-0.0229485
-0.0229068
-0.0229239
-0.0229098
-0.0229065
-0.0229155
-0.0229183
-0.0229067
-0.0228414
-0.0226498
-0.0208427
0
0
-0.0063623
-0.00472353
-0.00483517
-0.00880883
-0.0144469
-0.0179708
-0.0197575
-0.0208171
-0.0214566
-0.0218808
-0.0221353
-0.022319
-0.022466
-0.0225797
-0.0226644
-0.022727
-0.0227742
-0.0228082
-0.0228301
-0.0228443
-0.022852
-0.022912
-0.0228447
-0.0228174
-0.0228161
-0.0229059
-0.022922
-0.0229059
-0.0228934
-0.0228859
-0.0228821
-0.0228761
-0.0228702
-0.0228647
-0.0228618
-0.0228603
-0.0228626
-0.0228662
-0.0228699
-0.0228749
-0.0228888
-0.0229316
-0.0229028
-0.0228862
-0.0228823
-0.0228791
-0.0228756
-0.0228709
-0.0228707
-0.0229017
-0.0228957
-0.0229073
-0.0229062
-0.0229071
-0.0229106
-0.0229132
-0.0229121
-0.0228797
-0.022656
-0.0208401
0
0
-0.00636982
-0.00474057
-0.004852
-0.00881922
-0.0144524
-0.0179729
-0.01976
-0.0208691
-0.0214991
-0.0219314
-0.0221122
-0.0222799
-0.0224375
-0.0225663
-0.0226561
-0.0227202
-0.0227755
-0.0228132
-0.0228304
-0.0228421
-0.0228467
-0.022847
-0.02283
-0.0227725
-0.0226678
-0.0229919
-0.0230256
-0.0229503
-0.0229099
-0.0228926
-0.0228847
-0.0228796
-0.0228757
-0.0228726
-0.0228705
-0.0228695
-0.0228697
-0.0228706
-0.0228714
-0.0228704
-0.02286
-0.0228189
-0.0228528
-0.0228722
-0.0228764
-0.022877
-0.0228769
-0.0228775
-0.0228808
-0.0228901
-0.0228936
-0.0228987
-0.0229015
-0.0229042
-0.0229076
-0.0229119
-0.0230163
-0.0228965
-0.02266
-0.0208394
0
0
-0.00638408
-0.00477505
-0.00488827
-0.00883634
-0.0144589
-0.0179706
-0.0197297
-0.0206901
-0.0214086
-0.0220368
-0.0220363
-0.022212
-0.0224005
-0.0225463
-0.0226461
-0.0227028
-0.0227867
-0.022839
-0.0228301
-0.0228373
-0.0228318
-0.0228367
-0.0228111
-0.0226842
-0.0222122
-0.0233037
-0.0231993
-0.0230301
-0.0229267
-0.0228976
-0.0228872
-0.0228821
-0.0228789
-0.0228766
-0.0228749
-0.0228737
-0.022873
-0.0228726
-0.022872
-0.0228702
-0.0228648
-0.0228513
-0.0228624
-0.0228691
-0.0228713
-0.0228717
-0.0228723
-0.0228739
-0.0228773
-0.0228826
-0.0228874
-0.0228922
-0.0228964
-0.0229002
-0.0229041
-0.0229087
-0.0229147
-0.0228978
-0.0226601
-0.0208384
0
0
-0.00641129
-0.00485469
-0.00497273
-0.0088585
-0.0144722
-0.0179757
-0.0197367
-0.0207434
-0.0214145
-0.0218946
-0.0220992
-0.0222761
-0.0224328
-0.0225539
-0.0229446
-0.0226361
-0.0228332
-0.0229252
-0.0228238
-0.0228281
-0.0228087
-0.022827
-0.0228314
-0.0227844
-0.0226884
-0.022992
-0.0230221
-0.0229522
-0.0229127
-0.0228954
-0.0228876
-0.0228835
-0.0228809
-0.0228789
-0.0228772
-0.0228757
-0.0228742
-0.0228728
-0.0228711
-0.0228692
-0.0228668
-0.0228642
-0.0228651
-0.0228651
-0.0228636
-0.0228622
-0.022862
-0.0228635
-0.0228671
-0.0228724
-0.0228784
-0.0228845
-0.0228901
-0.0228951
-0.0228999