# vtk DataFile Version 2.0
FlowField
ASCII
DATASET STRUCTURED_GRID
DIMENSIONS 62 47 32 
POINTS 93248 double
0 0 0
0.01 0 0
0.02 0 0
0.03 0 0
0.04 0 0
0.05 0 0
0.06 0 0
0.07 0 0
0.08 0 0
0.09 0 0
0.1 0 0
0.11 0 0
0.12 0 0
0.13 0 0
0.14 0 0
0.15 0 0
0.16 0 0
0.17 0 0
0.18 0 0
0.19 0 0
0.2 0 0
0.21 0 0
0.22 0 0
0.23 0 0
0.24 0 0
0.25 0 0
0.26 0 0
0.27 0 0
0.28 0 0
0.29 0 0
0.3 0 0
0.31 0 0
0.32 0 0
0.33 0 0
0.34 0 0
0.35 0 0
0.36 0 0
0.37 0 0
0.38 0 0
0.39 0 0
0.4 0 0
0.41 0 0
0.42 0 0
0.43 0 0
0.44 0 0
0.45 0 0
0.46 0 0
0.47 0 0
0.48 0 0
0.49 0 0
0.5 0 0
0.51 0 0
0.52 0 0
0.53 0 0
0.54 0 0
0.55 0 0
0.56 0 0
0.57 0 0
0.58 0 0
0.59 0 0
0.6 0 0
0.61 0 0
0 0.01 0
0.01 0.01 0
0.02 0.01 0
0.03 0.01 0
0.04 0.01 0
0.05 0.01 0
0.06 0.01 0
0.07 0.01 0
0.08 0.01 0
0.09 0.01 0
0.1 0.01 0
0.11 0.01 0
0.12 0.01 0
0.13 0.01 0
0.14 0.01 0
0.15 0.01 0
0.16 0.01 0
0.17 0.01 0
0.18 0.01 0
0.19 0.01 0
0.2 0.01 0
0.21 0.01 0
0.22 0.01 0
0.23 0.01 0
0.24 0.01 0
0.25 0.01 0
0.26 0.01 0
0.27 0.01 0
0.28 0.01 0
0.29 0.01 0
0.3 0.01 0
0.31 0.01 0
0.32 0.01 0
0.33 0.01 0
0.34 0.01 0
0.35 0.01 0
0.36 0.01 0
0.37 0.01 0
0.38 0.01 0
0.39 0.01 0
0.4 0.01 0
0.41 0.01 0
0.42 0.01 0
0.43 0.01 0
0.44 0.01 0
0.45 0.01 0
0.46 0.01 0
0.47 0.01 0
0.48 0.01 0
0.49 0.01 0
0.5 0.01 0
0.51 0.01 0
0.52 0.01 0
0.53 0.01 0
0.54 0.01 0
0.55 0.01 0
0.56 0.01 0
0.57 0.01 0
0.58 0.01 0
0.59 0.01 0
0.6 0.01 0
0.61 0.01 0
0 0.02 0
0.01 0.02 0
0.02 0.02 0
0.03 0.02 0
0.04 0.02 0
0.05 0.02 0
0.06 0.02 0
0.07 0.02 0
0.08 0.02 0
0.09 0.02 0
0.1 0.02 0
0.11 0.02 0
0.12 0.02 0
0.13 0.02 0
0.14 0.02 0
0.15 0.02 0
0.16 0.02 0
0.17 0.02 0
0.18 0.02 0
0.19 0.02 0
0.2 0.02 0
0.21 0.02 0
0.22 0.02 0
0.23 0.02 0
0.24 0.02 0
0.25 0.02 0
0.26 0.02 0
0.27 0.02 0
0.28 0.02 0
0.29 0.02 0
0.3 0.02 0
0.31 0.02 0
0.32 0.02 0
0.33 0.02 0
0.34 0.02 0
0.35 0.02 0
0.36 0.02 0
0.37 0.02 0
0.38 0.02 0
0.39 0.02 0
0.4 0.02 0
0.41 0.02 0
0.42 0.02 0
0.43 0.02 0
0.44 0.02 0
0.45 0.02 0
0.46 0.02 0
0.47 0.02 0
0.48 0.02 0
0.49 0.02 0
0.5 0.02 0
0.51 0.02 0
0.52 0.02 0
0.53 0.02 0
0.54 0.02 0
0.55 0.02 0
0.56 0.02 0
0.57 0.02 0
0.58 0.02 0
0.59 0.02 0
0.6 0.02 0
0.61 0.02 0
0 0.03 0
0.01 0.03 0
0.02 0.03 0
0.03 0.03 0
0.04 0.03 0
0.05 0.03 0
0.06 0.03 0
0.07 0.03 0
0.08 0.03 0
0.09 0.03 0
0.1 0.03 0
0.11 0.03 0
0.12 0.03 0
0.13 0.03 0
0.14 0.03 0
0.15 0.03 0
0.16 0.03 0
0.17 0.03 0
0.18 0.03 0
0.19 0.03 0
0.2 0.03 0
0.21 0.03 0
0.22 0.03 0
0.23 0.03 0
0.24 0.03 0
0.25 0.03 0
0.26 0.03 0
0.27 0.03 0
0.28 0.03 0
0.29 0.03 0
0.3 0.03 0
0.31 0.03 0
0.32 0.03 0
0.33 0.03 0
0.34 0.03 0
0.35 0.03 0
0.36 0.03 0
0.37 0.03 0
0.38 0.03 0
0.39 0.03 0
0.4 0.03 0
0.41 0.03 0
0.42 0.03 0
0.43 0.03 0
0.44 0.03 0
0.45 0.03 0
0.46 0.03 0
0.47 0.03 0
0.48 0.03 0
0.49 0.03 0
0.5 0.03 0
0.51 0.03 0
0.52 0.03 0
0.53 0.03 0
0.54 0.03 0
0.55 0.03 0
0.56 0.03 0
0.57 0.03 0
0.58 0.03 0
0.59 0.03 0
0.6 0.03 0
0.61 0.03 0
0 0.04 0
0.01 0.04 0
0.02 0.04 0
0.03 0.04 0
0.04 0.04 0
0.05 0.04 0
0.06 0.04 0
0.07 0.04 0
0.08 0.04 0
0.09 0.04 0
0.1 0.04 0
0.11 0.04 0
0.12 0.04 0
0.13 0.04 0
0.14 0.04 0
0.15 0.04 0
0.16 0.04 0
0.17 0.04 0
0.18 0.04 0
0.19 0.04 0
0.2 0.04 0
0.21 0.04 0
0.22 0.04 0
0.23 0.04 0
0.24 0.04 0
0.25 0.04 0
0.26 0.04 0
0.27 0.04 0
0.28 0.04 0
0.29 0.04 0
0.3 0.04 0
0.31 0.04 0
0.32 0.04 0
0.33 0.04 0
0.34 0.04 0
0.35 0.04 0
0.36 0.04 0
0.37 0.04 0
0.38 0.04 0
0.39 0.04 0
0.4 0.04 0
0.41 0.04 0
0.42 0.04 0
0.43 0.04 0
0.44 0.04 0
0.45 0.04 0
0.46 0.04 0
0.47 0.04 0
0.48 0.04 0
0.49 0.04 0
0.5 0.04 0
0.51 0.04 0
0.52 0.04 0
0.53 0.04 0
0.54 0.04 0
0.55 0.04 0
0.56 0.04 0
0.57 0.04 0
0.58 0.04 0
0.59 0.04 0
0.6 0.04 0
0.61 0.04 0
0 0.05 0
0.01 0.05 0
0.02 0.05 0
0.03 0.05 0
0.04 0.05 0
0.05 0.05 0
0.06 0.05 0
0.07 0.05 0
0.08 0.05 0
0.09 0.05 0
0.1 0.05 0
0.11 0.05 0
0.12 0.05 0
0.13 0.05 0
0.14 0.05 0
0.15 0.05 0
0.16 0.05 0
0.17 0.05 0
0.18 0.05 0
0.19 0.05 0
0.2 0.05 0
0.21 0.05 0
0.22 0.05 0
0.23 0.05 0
0.24 0.05 0
0.25 0.05 0
0.26 0.05 0
0.27 0.05 0
0.28 0.05 0
0.29 0.05 0
0.3 0.05 0
0.31 0.05 0
0.32 0.05 0
0.33 0.05 0
0.34 0.05 0
0.35 0.05 0
0.36 0.05 0
0.37 0.05 0
0.38 0.05 0
0.39 0.05 0
0.4 0.05 0
0.41 0.05 0
0.42 0.05 0
0.43 0.05 0
0.44 0.05 0
0.45 0.05 0
0.46 0.05 0
0.47 0.05 0
0.48 0.05 0
0.49 0.05 0
0.5 0.05 0
0.51 0.05 0
0.52 0.05 0
0.53 0.05 0
0.54 0.05 0
0.55 0.05 0
0.56 0.05 0
0.57 0.05 0
0.58 0.05 0
0.59 0.05 0
0.6 0.05 0
0.61 0.05 0
0 0.06 0
0.01 0.06 0
0.02 0.06 0
0.03 0.06 0
0.04 0.06 0
0.05 0.06 0
0.06 0.06 0
0.07 0.06 0
0.08 0.06 0
0.09 0.06 0
0.1 0.06 0
0.11 0.06 0
0.12 0.06 0
0.13 0.06 0
0.14 0.06 0
0.15 0.06 0
0.16 0.06 0
0.17 0.06 0
0.18 0.06 0
0.19 0.06 0
0.2 0.06 0
0.21 0.06 0
0.22 0.06 0
0.23 0.06 0
0.24 0.06 0
0.25 0.06 0
0.26 0.06 0
0.27 0.06 0
0.28 0.06 0
0.29 0.06 0
0.3 0.06 0
0.31 0.06 0
0.32 0.06 0
0.33 0.06 0
0.34 0.06 0
0.35 0.06 0
0.36 0.06 0
0.37 0.06 0
0.38 0.06 0
0.39 0.06 0
0.4 0.06 0
0.41 0.06 0
0.42 0.06 0
0.43 0.06 0
0.44 0.06 0
0.45 0.06 0
0.46 0.06 0
0.47 0.06 0
0.48 0.06 0
0.49 0.06 0
0.5 0.06 0
0.51 0.06 0
0.52 0.06 0
0.53 0.06 0
0.54 0.06 0
0.55 0.06 0
0.56 0.06 0
0.57 0.06 0
0.58 0.06 0
0.59 0.06 0
0.6 0.06 0
0.61 0.06 0
0 0.07 0
0.01 0.07 0
0.02 0.07 0
0.03 0.07 0
0.04 0.07 0
0.05 0.07 0
0.06 0.07 0
0.07 0.07 0
0.08 0.07 0
0.09 0.07 0
0.1 0.07 0
0.11 0.07 0
0.12 0.07 0
0.13 0.07 0
0.14 0.07 0
0.15 0.07 0
0.16 0.07 0
0.17 0.07 0
0.18 0.07 0
0.19 0.07 0
0.2 0.07 0
0.21 0.07 0
0.22 0.07 0
0.23 0.07 0
0.24 0.07 0
0.25 0.07 0
0.26 0.07 0
0.27 0.07 0
0.28 0.07 0
0.29 0.07 0
0.3 0.07 0
0.31 0.07 0
0.32 0.07 0
0.33 0.07 0
0.34 0.07 0
0.35 0.07 0
0.36 0.07 0
0.37 0.07 0
0.38 0.07 0
0.39 0.07 0
0.4 0.07 0
0.41 0.07 0
0.42 0.07 0
0.43 0.07 0
0.44 0.07 0
0.45 0.07 0
0.46 0.07 0
0.47 0.07 0
0.48 0.07 0
0.49 0.07 0
0.5 0.07 0
0.51 0.07 0
0.52 0.07 0
0.53 0.07 0
0.54 0.07 0
0.55 0.07 0
0.56 0.07 0
0.57 0.07 0
0.58 0.07 0
0.59 0.07 0
0.6 0.07 0
0.61 0.07 0
0 0.08 0
0.01 0.08 0
0.02 0.08 0
0.03 0.08 0
0.04 0.08 0
0.05 0.08 0
0.06 0.08 0
0.07 0.08 0
0.08 0.08 0
0.09 0.08 0
0.1 0.08 0
0.11 0.08 0
0.12 0.08 0
0.13 0.08 0
0.14 0.08 0
0.15 0.08 0
0.16 0.08 0
0.17 0.08 0
0.18 0.08 0
0.19 0.08 0
0.2 0.08 0
0.21 0.08 0
0.22 0.08 0
0.23 0.08 0
0.24 0.08 0
0.25 0.08 0
0.26 0.08 0
0.27 0.08 0
0.28 0.08 0
0.29 0.08 0
0.3 0.08 0
0.31 0.08 0
0.32 0.08 0
0.33 0.08 0
0.34 0.08 0
0.35 0.08 0
0.36 0.08 0
0.37 0.08 0
0.38 0.08 0
0.39 0.08 0
0.4 0.08 0
0.41 0.08 0
0.42 0.08 0
0.43 0.08 0
0.44 0.08 0
0.45 0.08 0
0.46 0.08 0
0.47 0.08 0
0.48 0.08 0
0.49 0.08 0
0.5 0.08 0
0.51 0.08 0
0.52 0.08 0
0.53 0.08 0
0.54 0.08 0
0.55 0.08 0
0.56 0.08 0
0.57 0.08 0
0.58 0.08 0
0.59 0.08 0
0.6 0.08 0
0.61 0.08 0
0 0.09 0
0.01 0.09 0
0.02 0.09 0
0.03 0.09 0
0.04 0.09 0
0.05 0.09 0
0.06 0.09 0
0.07 0.09 0
0.08 0.09 0
0.09 0.09 0
0.1 0.09 0
0.11 0.09 0
0.12 0.09 0
0.13 0.09 0
0.14 0.09 0
0.15 0.09 0
0.16 0.09 0
0.17 0.09 0
0.18 0.09 0
0.19 0.09 0
0.2 0.09 0
0.21 0.09 0
0.22 0.09 0
0.23 0.09 0
0.24 0.09 0
0.25 0.09 0
0.26 0.09 0
0.27 0.09 0
0.28 0.09 0
0.29 0.09 0
0.3 0.09 0
0.31 0.09 0
0.32 0.09 0
0.33 0.09 0
0.34 0.09 0
0.35 0.09 0
0.36 0.09 0
0.37 0.09 0
0.38 0.09 0
0.39 0.09 0
0.4 0.09 0
0.41 0.09 0
0.42 0.09 0
0.43 0.09 0
0.44 0.09 0
0.45 0.09 0
0.46 0.09 0
0.47 0.09 0
0.48 0.09 0
0.49 0.09 0
0.5 0.09 0
0.51 0.09 0
0.52 0.09 0
0.53 0.09 0
0.54 0.09 0
0.55 0.09 0
0.56 0.09 0
0.57 0.09 0
0.58 0.09 0
0.59 0.09 0
0.6 0.09 0
0.61 0.09 0
0 0.1 0
0.01 0.1 0
0.02 0.1 0
0.03 0.1 0
0.04 0.1 0
0.05 0.1 0
0.06 0.1 0
0.07 0.1 0
0.08 0.1 0
0.09 0.1 0
0.1 0.1 0
0.11 0.1 0
0.12 0.1 0
0.13 0.1 0
0.14 0.1 0
0.15 0.1 0
0.16 0.1 0
0.17 0.1 0
0.18 0.1 0
0.19 0.1 0
0.2 0.1 0
0.21 0.1 0
0.22 0.1 0
0.23 0.1 0
0.24 0.1 0
0.25 0.1 0
0.26 0.1 0
0.27 0.1 0
0.28 0.1 0
0.29 0.1 0
0.3 0.1 0
0.31 0.1 0
0.32 0.1 0
0.33 0.1 0
0.34 0.1 0
0.35 0.1 0
0.36 0.1 0
0.37 0.1 0
0.38 0.1 0
0.39 0.1 0
0.4 0.1 0
0.41 0.1 0
0.42 0.1 0
0.43 0.1 0
0.44 0.1 0
0.45 0.1 0
0.46 0.1 0
0.47 0.1 0
0.48 0.1 0
0.49 0.1 0
0.5 0.1 0
0.51 0.1 0
0.52 0.1 0
0.53 0.1 0
0.54 0.1 0
0.55 0.1 0
0.56 0.1 0
0.57 0.1 0
0.58 0.1 0
0.59 0.1 0
0.6 0.1 0
0.61 0.1 0
0 0.11 0
0.01 0.11 0
0.02 0.11 0
0.03 0.11 0
0.04 0.11 0
0.05 0.11 0
0.06 0.11 0
0.07 0.11 0
0.08 0.11 0
0.09 0.11 0
0.1 0.11 0
0.11 0.11 0
0.12 0.11 0
0.13 0.11 0
0.14 0.11 0
0.15 0.11 0
0.16 0.11 0
0.17 0.11 0
0.18 0.11 0
0.19 0.11 0
0.2 0.11 0
0.21 0.11 0
0.22 0.11 0
0.23 0.11 0
0.24 0.11 0
0.25 0.11 0
0.26 0.11 0
0.27 0.11 0
0.28 0.11 0
0.29 0.11 0
0.3 0.11 0
0.31 0.11 0
0.32 0.11 0
0.33 0.11 0
0.34 0.11 0
0.35 0.11 0
0.36 0.11 0
0.37 0.11 0
0.38 0.11 0
0.39 0.11 0
0.4 0.11 0
0.41 0.11 0
0.42 0.11 0
0.43 0.11 0
0.44 0.11 0
0.45 0.11 0
0.46 0.11 0
0.47 0.11 0
0.48 0.11 0
0.49 0.11 0
0.5 0.11 0
0.51 0.11 0
0.52 0.11 0
0.53 0.11 0
0.54 0.11 0
0.55 0.11 0
0.56 0.11 0
0.57 0.11 0
0.58 0.11 0
0.59 0.11 0
0.6 0.11 0
0.61 0.11 0
0 0.12 0
0.01 0.12 0
0.02 0.12 0
0.03 0.12 0
0.04 0.12 0
0.05 0.12 0
0.06 0.12 0
0.07 0.12 0
0.08 0.12 0
0.09 0.12 0
0.1 0.12 0
0.11 0.12 0
0.12 0.12 0
0.13 0.12 0
0.14 0.12 0
0.15 0.12 0
0.16 0.12 0
0.17 0.12 0
0.18 0.12 0
0.19 0.12 0
0.2 0.12 0
0.21 0.12 0
0.22 0.12 0
0.23 0.12 0
0.24 0.12 0
0.25 0.12 0
0.26 0.12 0
0.27 0.12 0
0.28 0.12 0
0.29 0.12 0
0.3 0.12 0
0.31 0.12 0
0.32 0.12 0
0.33 0.12 0
0.34 0.12 0
0.35 0.12 0
0.36 0.12 0
0.37 0.12 0
0.38 0.12 0
0.39 0.12 0
0.4 0.12 0
0.41 0.12 0
0.42 0.12 0
0.43 0.12 0
0.44 0.12 0
0.45 0.12 0
0.46 0.12 0
0.47 0.12 0
0.48 0.12 0
0.49 0.12 0
0.5 0.12 0
0.51 0.12 0
0.52 0.12 0
0.53 0.12 0
0.54 0.12 0
0.55 0.12 0
0.56 0.12 0
0.57 0.12 0
0.58 0.12 0
0.59 0.12 0
0.6 0.12 0
0.61 0.12 0
0 0.13 0
0.01 0.13 0
0.02 0.13 0
0.03 0.13 0
0.04 0.13 0
0.05 0.13 0
0.06 0.13 0
0.07 0.13 0
0.08 0.13 0
0.09 0.13 0
0.1 0.13 0
0.11 0.13 0
0.12 0.13 0
0.13 0.13 0
0.14 0.13 0
0.15 0.13 0
0.16 0.13 0
0.17 0.13 0
0.18 0.13 0
0.19 0.13 0
0.2 0.13 0
0.21 0.13 0
0.22 0.13 0
0.23 0.13 0
0.24 0.13 0
0.25 0.13 0
0.26 0.13 0
0.27 0.13 0
0.28 0.13 0
0.29 0.13 0
0.3 0.13 0
0.31 0.13 0
0.32 0.13 0
0.33 0.13 0
0.34 0.13 0
0.35 0.13 0
0.36 0.13 0
0.37 0.13 0
0.38 0.13 0
0.39 0.13 0
0.4 0.13 0
0.41 0.13 0
0.42 0.13 0
0.43 0.13 0
0.44 0.13 0
0.45 0.13 0
0.46 0.13 0
0.47 0.13 0
0.48 0.13 0
[...]
POINT_DATA 93248

SCALARS w double
LOOKUP_TABLE default
0
0
0
0
0
0
0
0
0
0
0
0
0
-0.0381715
0
0
0
0
0
0
0
0
0
0
0
0
-0.0714976
0
0
0
0
0
-0.0670891
0
0
0
0
0
0
0
0
0
0
0
0
0
-0.062889
0
0
0
0
0
0
0
0
0
0
0
0
0
0
0
0
-0.0166199
-0.0300644
-0.0390368
-0.0436437
-0.0451717
-0.0452605
-0.0451348
-0.0449411
-0.0449454
-0.0450831
-0.045146
-0.04494
-0.0451481
-0.0454743
-0.0458119
-0.0460769
-0.0464198
-0.0468061
-0.0469915
-0.0441605
-0.0437759
-0.0444127
-0.0446742
-0.0448127
-0.044856
-0.0448379
-0.044786
-0.0447144
-0.0446243
-0.0445009
-0.044301
-0.0439778
-0.0439511
-0.0438834
-0.0433766
-0.0425777
-0.042481
-0.0438256
-0.0504351
-0.0426509
-0.0441605
-0.0453713
-0.04594
-0.0468556
-0.0760793
-0.0447259
-0.0444199
-0.0444384
-0.0449895
-0.0455498
-0.0461839
-0.0443183
-0.0457749
-0.0759185
-0.0461652
-0.0448615
-0.0433973
-0.0439072
-0.0437004
-0.0423928
0
0
-0.0193097
-0.0426887
-0.0547317
-0.0623828
-0.0664652
-0.0697279
-0.0707862
-0.0710518
-0.0713872
-0.07212
-0.0728445
-0.0729446
-0.0738363
-0.0745255
-0.075122
-0.0755512
-0.0762112
-0.077037
-0.0787506
-0.0726346
-0.0727469
-0.0812455
-0.0741195
-0.0741506
-0.0741972
-0.0741844
-0.0741237
-0.0740319
-0.0739158
-0.0737656
-0.0735204
-0.0729371
-0.0730045
-0.0730585
-0.072208
-0.071474
-0.0698072
-0.0684122
-0.0787242
-0.0764845
-0.0761002
-0.0760476
-0.0759294
-0.0765441
-0.0776058
-0.0764196
-0.0747415
-0.0742731
-0.0746189
-0.0748622
-0.0763382
-0.0743072
-0.0751234
-0.0765254
-0.0758148
-0.0753675
-0.0733605
-0.0732101
-0.0720342
-0.0686863
0
0
-0.0191186
-0.042235
-0.0558763
-0.0650676
-0.0451717
-0.073758
-0.0763278
-0.0769846
-0.0773626
-0.0782522
-0.0792347
-0.0811007
-0.0815805
-0.0818772
-0.0820488
-0.0824373
-0.0833173
-0.0836277
-0.0842771
-0.0833368
-0.0821033
-0.0818232
-0.0815826
-0.0814983
-0.0814532
-0.0813955
-0.0813158
-0.0812186
-0.0811114
-0.0810117
-0.080986
-0.0812228
-0.0799046
-0.0809269
-0.0792136
-0.0786896
-0.0778887
-0.0776758
-0.0819864
-0.0829877
-0.0832498
-0.0834111
-0.0826217
-0.0830756
-0.083899
-0.0821499
-0.0814138
-0.0808839
-0.0818741
-0.0818163
-0.0816856
-0.0815082
-0.0818102
-0.0822839
-0.0823178
-0.0823533
-0.0822201
-0.081037
-0.0791178
-0.0748786
0
0
-0.0187058
-0.0411356
-0.0406413
-0.0647288
-0.0711258
-0.0756369
-0.0775942
-0.0779966
-0.0781046
-0.0786723
-0.0796543
-0.0809362
-0.0817094
-0.0821136
-0.0822839
-0.0823241
-0.0819369
-0.0824687
-0.0830586
-0.082865
-0.0825075
-0.0822444
-0.0820462
-0.0819107
-0.0818047
-0.0817052
-0.081603
-0.0814972
-0.0813904
-0.0812906
-0.0812169
-0.0811696
-0.0808481
-0.0807548
-0.0800797
-0.0796867
-0.0793758
-0.0787014
-0.0810413
-0.0820503
-0.0825142
-0.0826605
-0.0824221
-0.082546
-0.082815
-0.0823695
-0.0817189
-0.0813361
-0.0816125
-0.081636
-0.0815888
-0.0815693
-0.0816971
-0.0818824
-0.0819921
-0.082063
-0.0819839
-0.0812342
-0.0793208
-0.0749426
0
0
-0.0185129
-0.0408082
-0.055051
-0.065322
-0.0719239
-0.0758732
-0.0775105
-0.0777609
-0.0778106
-0.0782577
-0.0790925
-0.0800275
-0.0806976
-0.0810266
-0.0819776
-0.0812039
-0.0811146
-0.0812753
-0.0815399
-0.0815422
-0.0814107
-0.0812455
-0.0810853
-0.080943
-0.0808151
-0.0806956
-0.0805804
-0.0804685
-0.0803594
-0.0802494
-0.0801206
-0.0799046
-0.0794575
-0.0794138
-0.0792886
-0.0791749
-0.0791233
-0.0792736
-0.0798505
-0.0803786
-0.080701
-0.0808306
-0.0808064
-0.0808442
-0.0809992
-0.081376
-0.0805616
-0.0802288
-0.0802331
-0.0802498
-0.0802599
-0.0803065
-0.0804183
-0.0805392
-0.0806194
-0.0806378
-0.0804918
-0.0798185
-0.0779194
-0.0737707
0
0
-0.0184056
-0.0405837
-0.0551946
-0.0652845
-0.0718692
-0.0756809
-0.0770916
-0.077189
-0.0773246
-0.0777895
-0.078539
-0.0793098
-0.0798609
-0.0801262
-0.0801395
-0.0799901
-0.0802602
-0.0783721
-0.0806036
-0.080644
-0.0805221
-0.0803559
-0.0801901
-0.0800377
-0.0798985
-0.0797706
-0.0796489
-0.0795352
-0.07943
-0.0793268
-0.0791962
-0.0789284
-0.0781262
-0.0784569
-0.0785753
-0.0785853
-0.0785996
-0.0787014
-0.0789249
-0.0791617
-0.0793341
-0.0794195
-0.079409
-0.0793286
-0.0790373
-0.0782154
-0.0786103
-0.0788591
-0.0789863
-0.0790364
-0.0790692
-0.0791581
-0.0793398
-0.0794886
-0.0795476
-0.0794936
-0.0791789
-0.0781141
-0.0755408
-0.0721579
0
0
-0.0183319
-0.0404037
-0.05503
-0.0650797
-0.0716505
-0.0755507
-0.07666
-0.077085
-0.0771296
-0.077478
-0.0781299
-0.078785
-0.0792446
-0.0794122
-0.0791944
-0.078453
-0.0796143
-0.080217
-0.0803587
-0.0802187
-0.079977
-0.0797448
-0.079546
-0.0793754
-0.0792238
-0.0790949
-0.0789681
-0.0788557
-0.0787642
-0.078696
-0.0786573
-0.0787641
-0.0794397
-0.0788666
-0.0784633
-0.0782438
-0.0781609
-0.0781748
-0.0782532
-0.0783514
-0.078435
-0.0784868
-0.078451
-0.0783737
-0.0781691
-0.0778294
-0.0779215
-0.0780587
-0.0781267
-0.0781245
-0.0781111
-0.0782258
-0.0786073
-0.0788617
-0.0789164
-0.0787996
-0.0782803
-0.0761541
-0.0437004
-0.0707977
0
0
-0.0182763
-0.0402603
-0.0548417
-0.0648472
-0.0713471
-0.0750253
-0.0763525
-0.076662
-0.0767649
-0.0771627
-0.0777982
-0.078336
-0.0787798
-0.0788983
-0.0783532
-0.0759435
-0.0750219
-0.0803638
-0.0802779
-0.0799476
-0.0795633
-0.0792862
-0.0790714
-0.078888
-0.0787163
-0.0786016
-0.0784649
-0.0783536
-0.078283
-0.078257
-0.078234
-0.0782768
-0.0784559
-0.0782542
-0.0780039
-0.0778273
-0.0777434
-0.0777266
-0.0777483
-0.0777852
-0.0778207
-0.0778412
-0.0778242
-0.0777763
-0.07768
-0.0775599
-0.0775456
-0.0775541
-0.0775117
-0.0773845
-0.0772179
-0.077285
-0.0781848
-0.078629
-0.0786728
-0.0785837
-0.0784455
-0.0779212
-0.0746805
-0.0712465
0
0
-0.018233
-0.0401464
-0.054677
-0.0646329
-0.0710726
-0.0746422
-0.0760246
-0.0763242
-0.076477
-0.076914
-0.077543
-0.0729446
-0.0784872
-0.0787674
-0.0785764
-0.0778755
-0.078973
-0.0796116
-0.0796633
-0.0794384
-0.0790712
-0.0788908
-0.0787075
-0.0785185
-0.0783108
-0.0781769
-0.0780453
-0.0779433
-0.0779074
-0.0779651
-0.0779269
-0.0778678
-0.0778107
-0.0776744
-0.0775247
-0.0774077
-0.0773593
-0.0773474
-0.0773509
-0.0773614
-0.0773738
-0.0773817
-0.0773766
-0.077356
-0.0773168
-0.0772688
-0.0772315
-0.0771737
-0.0770353
-0.0767407
-0.0762665
-0.0749204
-0.0781563
-0.0787526
-0.0786554
-0.0784582
-0.0782986
-0.0778226
-0.0757391
-0.0713927
0
0
-0.0181996
-0.0400578
-0.054542
-0.0644372
-0.0708389
-0.0743664
-0.0757516
-0.0760665
-0.0762533
-0.076727
-0.077395
-0.0779427
-0.0784772
-0.0787591
-0.0788456
-0.0787436
-0.0790025
-0.0791812
-0.0791608
-0.0790197
-0.0790046
-0.0787529
-0.0784984
-0.0782464
-0.0772112
-0.0778057
-0.0776679
-0.0775562
-0.0775506
-0.0777774
-0.0777372
-0.0775805
-0.0773978
-0.0772424
-0.0771215
-0.0770266
-0.0770184
-0.0770234
-0.0770216
-0.0770199
-0.0770221
-0.0770269
-0.0770319
-0.0770312
-0.0770209
-0.0770002
-0.0769642
-0.0768863
-0.0767043
-0.0763062
-0.0755824
-0.0749204
-0.078839
-0.0790048
-0.078626
-0.0783107
-0.0780977
-0.0776134
-0.0757903
-0.0713694
0
0
-0.0181754
-0.0399945
-0.0544457
-0.0642654
-0.0706746
-0.0741901
-0.0755665
-0.0758822
-0.0760844
-0.076577
-0.0772706
-0.0779155
-0.0784103
-0.0787487
-0.0790689
-0.0790642
-0.0790266
-0.0789577
-0.0788228
-0.0786102
-0.0786367
-0.0784637
-0.0782411
-0.0779997
-0.0777345
-0.0775133
-0.0772941
-0.0771085
-0.0770166
-0.0771631
-0.0777111
-0.0772383
-0.0769535
-0.0768205
-0.0767532
-0.0767054
-0.0766791
-0.0767245
-0.0767221
-0.0767166
-0.0767169
-0.0767224
-0.0767437
-0.0767634
-0.0767745
-0.0767735
-0.0767539
-0.0766975
-0.076564
-0.0762947
-0.075931
-0.0759517
-0.0777602
-0.0782714
-0.0781907
-0.078024
-0.0778772
-0.0774318
-0.075686
-0.0712909
0
0
-0.0181596
-0.0399587
-0.0544259
-0.0644278
-0.0707611
-0.0741892
-0.0754986
-0.0757776
-0.0759666
-0.0764547
-0.0771557
-0.077816
-0.0783051
-0.0786721
-0.0792847
-0.0790762
-0.0788772
-0.0787083
-0.0785352
-0.0783678
-0.0782842
-0.078151
-0.0779688
-0.0777449
-0.0774806
-0.0771836
-0.0768535
-0.0765161
-0.0761651
-0.0759314
-0.0751852
-0.0756711
-0.0760474
-0.0762592
-0.0763602
-0.0763946
-0.0763994
-0.0764128
-0.0764133
-0.0764154
-0.0764198
-0.0764093
-0.0764759
-0.0765292
-0.0765652
-0.0765864
-0.0765933
-0.0765826
-0.0765386
-0.0764199
-0.0763194
-0.076482
-0.0771993
-0.0775956
-0.0776957
-0.0777029
-0.0776653
-0.0772773
-0.0755737
-0.0712037
0
0
-0.0181474
-0.0399282
-0.0543807
-0.0643295
-0.0706687
-0.0740929
-0.0753937
-0.0756679
-0.075859
-0.0763412
-0.0770534
-0.0777094
-0.0781521
-0.0783067
-0.0778748
-0.0781179
-0.0782665
-0.0782758
-0.078157
-0.0780636
-0.0779944
-0.0778922
-0.0777339
-0.0775108
-0.0772112
-0.076814
-0.0762929
-0.075628
-0.074575
-0.0746692
-0.0748061
-0.0752386
-0.0756392
-0.07591
-0.0760576
-0.0761156
-0.076125
-0.0761029
-0.0760882
-0.0760969
-0.0761008
-0.0748789
-0.0761971
-0.0763149
-0.0763827
-0.0764279
-0.076463
-0.0765034
-0.0765568
-0.0765049
-0.0765012
-0.0766429
-0.0769595
-0.0772005
-0.0773456
-0.0774549
-0.0775162
-0.0771578
-0.0754772
-0.071122
0
0
-0.0181389
-0.0399077
-0.054351
-0.0648472
-0.0706041
-0.0740021
-0.0752942
-0.0755706
-0.0757769
-0.0763116
-0.07701
-0.0776475
-0.0780731
-0.0782454
-0.0781446
-0.0781708
-0.0781908
-0.0781069
-0.0778178
-0.0777771
-0.0777737
-0.0777095
-0.0775634
-0.0773251
-0.0769681
-0.0764224
-0.0755332
-0.0739084
-0.0691812
-0.071581
-0.0734361
-0.0745765
-0.0752493
-0.0756215
-0.0757968
-0.0758474
-0.0760748
-0.075746
-0.0756861
-0.0757187
-0.0757987
-0.0758703
-0.0760172
-0.0761357
-0.0762235
-0.0762869
-0.076338
-0.0764057
-0.0765629
-0.0764773
-0.0765082
-0.0766489
-0.0768834
-0.077011
-0.077146
-0.0773062
-0.0781141
-0.0770841
-0.0754015
-0.0710497
0
0
-0.0181352
-0.0399023
-0.0543224
-0.0642059
-0.0705108
-0.0739174
-0.0752104
-0.0754908
-0.0757039
-0.0762325
-0.0769447
-0.0775899
-0.0780262
-0.0782422
-0.078289
-0.0782938
-0.078257
-0.0781016
-0.0774816
-0.0776721
-0.0777395
-0.0776711
-0.0774954
-0.0772204
-0.0768034
-0.0761016
-0.0746313
-0.0700823
0.0381039
-0.0646682
-0.0711874
-0.0737499
-0.0748754
-0.0753748
-0.0755592
-0.075555
-0.0754275
-0.0752076
-0.0750049
-0.0751182
-0.0753581
-0.0755946
-0.0758007
-0.075961
-0.0760793
-0.0761566
-0.0761958
-0.0761764
-0.0760389
-0.0762025
-0.0763758
-0.0766028
-0.0781563
-0.0769486
-0.0770518
-0.0771779
-0.0773084
-0.076996
-0.0753391
-0.0709855
0
0
-0.0181376
-0.0399319
-0.0543263
-0.0641572
-0.0704512
-0.0738548
-0.0751468
-0.0754327
-0.0756538
-0.0761858
-0.0769061
-0.0775561
-0.0779979
-0.0782343
-0.0783301
-0.078357
-0.0783609
-0.0784322
-0.0789586
-0.0785494
-0.0781673
-0.0778453
-0.0775436
-0.07721
-0.0767792
-0.0761325
-0.0750101
-0.0727732
-0.0679542
-0.0708385
-0.0730886
-0.0743714
-0.0750346
-0.0753281
-0.0753939
-0.0752566
-0.0748965
-0.0742507
-0.0732998
-0.0738194
-0.074565
-0.0751416
-0.0755284
-0.0757817
-0.0759518
-0.0760487
-0.0760962
-0.0760956
-0.0760212
-0.0760401
-0.0762225
-0.0764486
-0.0766954
-0.0768473
-0.0771175
-0.0771163
-0.0772462
-0.0769582
-0.0752986
-0.0709213
0
0
-0.0181295
-0.039986
-0.0542902
-0.0640671
-0.0703504
-0.0737901
-0.0750901
-0.0753924
-0.0756295
-0.0761739
-0.0769078
-0.0775542
-0.0779829
-0.0782125
-0.0783217
-0.0783641
-0.0783761
-0.0784076
-0.0785363
-0.078372
-0.0781073
-0.077824
-0.0775329
-0.0772152
-0.0768341
-0.076333
-0.075633
-0.0746194
-0.073498
-0.0738858
-0.074523
-0.074999
-0.0752549
-0.0753222
-0.0752697
-0.0749566
-0.0741626
-0.0722137
-0.0672647
-0.0705444
-0.0730602
-0.0744654
-0.0752042
-0.0756036
-0.0758448
-0.0759605
-0.0760236
-0.0760279
-0.0759382
-0.0757759
-0.0760483
-0.0763205
-0.0765492
-0.0768612
-0.0819921
-0.0771159
-0.0772892
-0.0769704
-0.0752707
-0.0708427
0
0
-0.018039
-0.0395168
-0.053901
-0.0637535
-0.07014
-0.0743664
-0.0750813
-0.075389
-0.0756345
-0.076193
-0.0769644
-0.0775891
-0.0779669
-0.0781545
-0.0782747
-0.0783397
-0.0783546
-0.0783333
-0.0782991
-0.0781729
-0.0779816
-0.0777548
-0.0775049
-0.0772282
-0.0769115
-0.0765402
-0.0761138
-0.0754674
-0.0748749
-0.0749463
-0.0751851
-0.0753546
-0.0753871
-0.0752796
-0.0752196
-0.07476
-0.0733876
-0.0683767
0.0440532
-0.0637864
-0.0711118
-0.073829
-0.0749536
-0.0754646
-0.0757091
-0.0758774
-0.075977
-0.0760158
-0.0759256
-0.0754898
-0.0760143
-0.0762914
-0.0764576
-0.0766212
-0.0768446
-0.0767057
-0.077372
-0.0769776
-0.0752308
-0.0705331
0
0
-0.0180344
-0.0395824
-0.0538812
-0.0636261
-0.0700346
-0.073789
-0.0751534
-0.0754313
-0.0756449
-0.0762111
-0.0771049
-0.0776436
-0.0778875
-0.0779757
-0.0781704
-0.0783071
-0.0783431
-0.0782809
-0.0781996
-0.0780784
-0.0779135
-0.0777157
-0.0774943
-0.0772505
-0.0769795
-0.0766764
-0.0763326
-0.0759215
-0.0751689
-0.0754398
-0.0755975
-0.0756179
-0.0754953
-0.0752057
-0.0753402
-0.0749091
-0.0739001
-0.0716079
-0.0664779
-0.069988
-0.0728484
-0.0743225
-0.0750803
-0.0754834
-0.0757094
-0.0758592
-0.0759773
-0.0761186
-0.0764032
-0.0770748
-0.0766451
-0.0764608
-0.0764422
-0.07651
-0.0766266
-0.0767552
-0.0770993
-0.0768262
-0.07514
-0.0707161
0
0
-0.0180473
-0.0396447
-0.0539203
-0.0635088
-0.0700141
-0.0740891
-0.0752267
-0.0753848
-0.0755466
-0.0761181
-0.0772834
-0.0775228
-0.0775367
-0.0774604
-0.0780137
-0.0783172
-0.0783819
-0.0782294
-0.0781516
-0.0780513
-0.0779012
-0.077715
-0.077507
-0.0772805
-0.0770299
-0.0767415
-0.0763613
-0.0764468
-0.077028
-0.0765727
-0.076213
-0.0759421
-0.0756973
-0.0754479
-0.0753558
-0.0750795
-0.0745556
-0.0737352
-0.0727769
-0.0733606
-0.0742352
-0.0748789
-0.0753046
-0.0755738
-0.0757475
-0.0758596
-0.07596
-0.0760956
-0.0763165
-0.0766135
-0.0765254
-0.0764084
-0.0763763
-0.0764397
-0.076594
-0.0767801
-0.0769645
-0.0767082
-0.0750685
-0.0707129
0
0
-0.0180606
-0.0396987
-0.0540624
-0.0641127
-0.0702125
-0.0729173
-0.0743838
-0.074857
-0.0751939
-0.0756649
-0.0757176
-0.076417
-0.076574
-0.0764423
-0.0780241
-0.0784692
-0.0785071
-0.0781622
-0.0781885
-0.0781104
-0.077951
-0.0777537
-0.077545
-0.0773224
-0.0770667
-0.0766774
-0.0710449
-0.0762793
-0.0766368
-0.0765278
-0.0762837
-0.0760243
-0.0757676
-0.0755268
-0.0753881
-0.075224
-0.0749961
-0.0747301
-0.074553
-0.0746928
-0.0749811
-0.0752723
-0.0755374
-0.0756957
-0.0758106
-0.0758606
-0.0759195
-0.076021
-0.0761724
-0.0763382
-0.0763715
-0.0762893
-0.0762578
-0.0763397
-0.0765889
-0.0767988
-0.076927
-0.0766579
-0.0750227
-0.0706922
0
0
-0.0180655
-0.039714
-0.0540695
-0.0639572
-0.0701716
-0.0733123
-0.074588
-0.0749624
-0.0752829
-0.0758227
-0.0762131
-0.0765892
-0.0763167
-0.0769575
-0.0779978
-0.0784827
-0.0786876
-0.078978
-0.0786765
-0.0783559
-0.0780692
-0.0778225
-0.0776079
-0.07739
-0.0771539
-0.0768802
-0.0765032
-0.0765497
-0.0765581
-0.0764381
-0.076237
-0.0759821
-0.0756724
-0.0753023
-0.0752505
-0.0752198
-0.0751973
-0.0751612
-0.0751593
-0.0752328
-0.0753652
-0.0755421
-0.0767634
-0.0758406
-0.0758937
-0.075849
-0.0758604
-0.0759379
-0.0760749
-0.0762557
-0.0763482
-0.0761771
-0.0761011
-0.0761736
-0.0766296
-0.0768499
-0.076952
-0.076674
-0.0750114
-0.0706708
0
0
-0.0180655
-0.0397133
-0.0540537
-0.0638813
-0.0701528
-0.0735022
-0.0748177
-0.0752014
-0.0756161
-0.0764639
-0.076863
-0.0772365
-0.0775157
-0.0786559
-0.0788141
-0.0788175
-0.0787753
-0.0787456
-0.0785421
-0.0782868
-0.0780414
-0.077835
-0.0776785
-0.0774762
-0.0772506
-0.0770291
-0.0768353
-0.0767379
-0.0765914
-0.0764187
-0.0761974
-0.0758774
-0.0753238
-0.074102
-0.0746313
-0.0748589
-0.0751592
-0.0753164
-0.0754053
-0.0754828
-0.075572
-0.0756801
-0.0758125
-0.0758872
-0.0759594
-0.0758086
-0.075795
-0.075855
-0.075997
-0.0762804
-0.076481
-0.0760968
-0.0759648
-0.0759394
-0.076761
-0.0769158
-0.0770138
-0.076775
-0.0750407
-0.0706538
0
0
-0.0180645
-0.0397105
-0.0540449
-0.0638623
-0.0701651
-0.0736023
-0.0749964
-0.0754307
-0.07605
-0.0804536
-0.077707
-0.0777969
-0.0780673
-0.078518
-0.0786827
-0.0786955
-0.0786821
-0.0785428
-0.0783586
-0.0781572
-0.0779673
-0.0778294
-0.0778045
-0.0775808
-0.0773236
-0.0771078
-0.0769523
-0.0768705
-0.0766304
-0.0764366
-0.0761986
-0.0757695
-0.0745926
-0.0438834
-0.0731118
-0.0701995
-0.0749288
-0.0753526
-0.0755259
-0.0756208
-0.0757017
-0.0757845
-0.0758467
-0.0758882
-0.0759062
-0.0758211
-0.0757765
-0.0757784
-0.075875
-0.0763264
-0.0766184
-0.0762289
-0.0760754
-0.0761305
-0.0765494
-0.0768087
-0.0770464
-0.0769995
-0.0750965
-0.0706253
0
0
-0.018064
-0.0397101
-0.0540434
-0.0638616
-0.070183
-0.0736774
-0.0756679
-0.0755437
-0.0759791
-0.0769086
-0.077341
-0.0777325
-0.0780606
-0.0783281
-0.0784636
-0.0785245
-0.0810032
-0.0784635
-0.0782456
-0.0780591
-0.0778906
-0.0777874
-0.0779649
-0.0775731
-0.0772752
-0.0770809
-0.0769579
-0.0768961
-0.0766994
-0.0765147
-0.076334
-0.0759559
-0.0753098
-0.0739866
-0.0746308
-0.0749342
-0.0753244
-0.0755372
-0.0756489
-0.0757249
-0.0758071
-0.0759041
-0.0759139
-0.0758937
-0.0758659
-0.0758104
-0.0757556
-0.0756921
-0.0756535
-0.0763747
-0.076864
-0.0762018
-0.0761273
-0.0762028
-0.0764186
-0.0766506
-0.0769426
-0.0772338
-0.0750288
-0.0705382
0
0
-0.0180651
-0.0397135
-0.0540465
-0.063862
-0.0701793
-0.0736541
-0.0750948
-0.0755506
-0.0758806
-0.0764656
-0.0770592
-0.0775756
-0.0779487
-0.0781825
-0.0782998
-0.0783455
-0.0783884
-0.0782809
-0.0781441
-0.0779826
-0.0777926
-0.0775358
-0.0769333
-0.0769474
-0.0769318
-0.0769251
-0.0768845
-0.0767586
-0.076683
-0.076598
-0.078234
-0.0762361
-0.075854
-0.0754923
-0.0754951
-0.075551
-0.0756382
-0.0757029
-0.0757483
-0.0757991
-0.0758986
-0.0760787
-0.0759989
-0.0759013
-0.0758377
-0.0757901
-0.0757477
-0.0757
-0.0756616
-0.0757291
-0.0752926
-0.0759863
-0.0761016
-0.0761867
-0.0763048
-0.076386
-0.0762245
-0.0752681
-0.0743455
-0.070355
0
0
-0.0180692
-0.0397241
-0.0540575
-0.0638647
-0.0701682
-0.0736251
-0.075067
-0.0757205
-0.0759588
-0.0763918
-0.0769536
-0.0774761
-0.0778524
-0.0780726
-0.0781743
-0.0782036
-0.0782283
-0.0782045
-0.0781097
-0.077956
-0.0777609
-0.0779688
-0.0772
-0.0769755
-0.0768337
-0.0769042
-0.0769387
-0.0768811
-0.076788
-0.0766704
-0.0765627
-0.0763329
-0.076116
-0.075944
-0.0758614
-0.0758251
-0.0758127
-0.0758066
-0.0758043
-0.0758191
-0.0759084
-0.0762488
-0.075976
-0.0758395
-0.0757818
-0.0757524
-0.0757308
-0.0757107
-0.0756958
-0.0756896
-0.075607
-0.0758734
-0.0760237
-0.0761321
-0.0762411
-0.076333
-0.0763009
-0.0757771
-0.0743968
-0.0703034
0
0
-0.0180799
-0.0397511
-0.0540871
-0.0638768
-0.0701547
-0.0735812
-0.0750197
-0.0760368
-0.0759418
-0.0762822
-0.0767875
-0.077325
-0.0777236
-0.0779511
-0.0780457
-0.0780387
-0.0781515
-0.0782349
-0.0781598
-0.0779822
-0.0777364
-0.0775136
-0.0772522
-0.0769677
-0.0766375
-0.0769947
-0.07711
-0.0770553
-0.0769245
-0.0767637
-0.0765956
-0.076416
-0.0762532
-0.0761218
-0.0760267
-0.0759582
-0.0759061
-0.0758618
-0.0758176
-0.0757553
-0.0756063
-0.0751783
-0.0754574
-0.0756146
-0.0756755
-0.0756912
-0.0756916
-0.0756912
-0.0756976
-0.0757146
-0.0757425
-0.0758576
-0.0759711
-0.0760816
-0.0762063
-0.0763616
-0.0774318
-0.0760834
-0.0745066
-0.0703043
0
0
-0.0181059
-0.0398179
-0.0541615
-0.0639083
-0.0701421
-0.0734851
-0.0746211
-0.0741009
-0.0747026
-0.0756568
-0.076359
-0.0770668
-0.0775595
-0.0778211
-0.0779386
-0.0777336
-0.0781423
-0.0784528
-0.0783348
-0.0780795
-0.0777113
-0.0774806
-0.0772577
-0.0769118
-0.0762307
-0.077312
-0.0773686
-0.0772136
-0.0770236
-0.0768296
-0.0766453
-0.0764773
-0.0763325
-0.0762126
-0.0761139
-0.0760305
-0.075957
-0.0758885
-0.0758195
-0.0757382
-0.0756193
-0.0754516
-0.0755119
-0.0755876
-0.0756247
-0.0756335
-0.0756332
-0.0756376
-0.0756543
-0.0756872
-0.0757398
-0.0758218
-0.0759185
-0.076029
-0.0761626
-0.076322
-0.0764433
-0.0761329
-0.0745475
-0.070308
0
0
-0.0181682
-0.0399982
-0.0543398
-0.0639789
-0.0701689
-0.0734894
-0.0746552
-0.0746578
-0.0749229
-0.0756118
-0.0763763
-0.0770657
-0.0775341
-0.0777702
-0.0812039
-0.0770045
-0.0783713
-0.0790344
-0.0786573
-0.0782867
-0.0777162
-0.0775845
-0.077405
-0.077169
-0.0769005
-0.0771764
-0.0772263
-0.0771346
-0.0769843
-0.0768172
-0.0766541
-0.0765066
-0.0763789
-0.0762687
-0.076169
-0.0760748
-0.0759839
-0.0758944
-0.0758051
-0.0757165
-0.0756368
-0.075587
-0.0755951
-0.0756031
-0.0755907
-0.0755675
-0.0755492
-0.075547
-0.0755665
-0.0756086
-0.0756717
-0.0757535
-0.0758497
-0.0759632
-0.0761061
-0.0762761
-0.0763831
-0.0761111
-0.0745598
-0.0703072
0
0
-0.0183155
-0.0406034
-0.0546693
-0.0641956
-0.0702967
-0.0735761
-0.0747726