# vtk DataFile Version 2.0
FlowField
ASCII
DATASET STRUCTURED_GRID
DIMENSIONS 62 47 32 
POINTS 93248 double
0 0 0
0.01 0 0
0.02 0 0
0.03 0 0
0.04 0 0
0.05 0 0
0.06 0 0
0.07 0 0
0.08 0 0
0.09 0 0
0.1 0 0
0.11 0 0
0.12 0 0
0.13 0 0
0.14 0 0
0.15 0 0
0.16 0 0
0.17 0 0
0.18 0 0
0.19 0 0
0.2 0 0
0.21 0 0
0.22 0 0
0.23 0 0
0.24 0 0
0.25 0 0
0.26 0 0
0.27 0 0
0.28 0 0
0.29 0 0
0.3 0 0
0.31 0 0
0.32 0 0
0.33 0 0
0.34 0 0
0.35 0 0
0.36 0 0
0.37 0 0
0.38 0 0
0.39 0 0
0.4 0 0
0.41 0 0
0.42 0 0
0.43 0 0
0.44 0 0
0.45 0 0
0.46 0 0
0.47 0 0
0.48 0 0
0.49 0 0
0.5 0 0
0.51 0 0
0.52 0 0
0.53 0 0
0.54 0 0
0.55 0 0
0.56 0 0
0.57 0 0
0.58 0 0
0.59 0 0
0.6 0 0
0.61 0 0
0 0.01 0
0.01 0.01 0
0.02 0.01 0
0.03 0.01 0
0.04 0.01 0
0.05 0.01 0
0.06 0.01 0
0.07 0.01 0
0.08 0.01 0
0.09 0.01 0
0.1 0.01 0
0.11 0.01 0
0.12 0.01 0
0.13 0.01 0
0.14 0.01 0
0.15 0.01 0
0.16 0.01 0
0.17 0.01 0
0.18 0.01 0
0.19 0.01 0
0.2 0.01 0
0.21 0.01 0
0.22 0.01 0
0.23 0.01 0
0.24 0.01 0
0.25 0.01 0
0.26 0.01 0
0.27 0.01 0
0.28 0.01 0
0.29 0.01 0
0.3 0.01 0
0.31 0.01 0
0.32 0.01 0
0.33 0.01 0
0.34 0.01 0
0.35 0.01 0
0.36 0.01 0
0.37 0.01 0
0.38 0.01 0
0.39 0.01 0
0.4 0.01 0
0.41 0.01 0
0.42 0.01 0
0.43 0.01 0
0.44 0.01 0
0.45 0.01 0
0.46 0.01 0
0.47 0.01 0
0.48 0.01 0
0.49 0.01 0
0.5 0.01 0
0.51 0.01 0
0.52 0.01 0
0.53 0.01 0
0.54 0.01 0
0.55 0.01 0
0.56 0.01 0
0.57 0.01 0
0.58 0.01 0
0.59 0.01 0
0.6 0.01 0
0.61 0.01 0
0 0.02 0
0.01 0.02 0
0.02 0.02 0
0.03 0.02 0
0.04 0.02 0
0.05 0.02 0
0.06 0.02 0
0.07 0.02 0
0.08 0.02 0
0.09 0.02 0
0.1 0.02 0
0.11 0.02 0
0.12 0.02 0
0.13 0.02 0
0.14 0.02 0
0.15 0.02 0
0.16 0.02 0
0.17 0.02 0
0.18 0.02 0
0.19 0.02 0
0.2 0.02 0
0.21 0.02 0
0.22 0.02 0
0.23 0.02 0
0.24 0.02 0
0.25 0.02 0
0.26 0.02 0
0.27 0.02 0
0.28 0.02 0
0.29 0.02 0
0.3 0.02 0
0.31 0.02 0
0.32 0.02 0
0.33 0.02 0
0.34 0.02 0
0.35 0.02 0
0.36 0.02 0
0.37 0.02 0
0.38 0.02 0
0.39 0.02 0
0.4 0.02 0
0.41 0.02 0
0.42 0.02 0
0.43 0.02 0
0.44 0.02 0
0.45 0.02 0
0.46 0.02 0
0.47 0.02 0
0.48 0.02 0
0.49 0.02 0
0.5 0.02 0
0.51 0.02 0
0.52 0.02 0
0.53 0.02 0
0.54 0.02 0
0.55 0.02 0
0.56 0.02 0
0.57 0.02 0
0.58 0.02 0
0.59 0.02 0
0.6 0.02 0
0.61 0.02 0
0 0.03 0
0.01 0.03 0
0.02 0.03 0
0.03 0.03 0
0.04 0.03 0
0.05 0.03 0
0.06 0.03 0
0.07 0.03 0
0.08 0.03 0
0.09 0.03 0
0.1 0.03 0
0.11 0.03 0
0.12 0.03 0
0.13 0.03 0
0.14 0.03 0
0.15 0.03 0
0.16 0.03 0
0.17 0.03 0
0.18 0.03 0
0.19 0.03 0
0.2 0.03 0
0.21 0.03 0
0.22 0.03 0
0.23 0.03 0
0.24 0.03 0
0.25 0.03 0
0.26 0.03 0
0.27 0.03 0
0.28 0.03 0
0.29 0.03 0
0.3 0.03 0
0.31 0.03 0
0.32 0.03 0
0.33 0.03 0
0.34 0.03 0
0.35 0.03 0
0.36 0.03 0
0.37 0.03 0
0.38 0.03 0
0.39 0.03 0
0.4 0.03 0
0.41 0.03 0
0.42 0.03 0
0.43 0.03 0
0.44 0.03 0
0.45 0.03 0
0.46 0.03 0
0.47 0.03 0
0.48 0.03 0
0.49 0.03 0
0.5 0.03 0
0.51 0.03 0
0.52 0.03 0
0.53 0.03 0
0.54 0.03 0
0.55 0.03 0
0.56 0.03 0
0.57 0.03 0
0.58 0.03 0
0.59 0.03 0
0.6 0.03 0
0.61 0.03 0
0 0.04 0
0.01 0.04 0
0.02 0.04 0
0.03 0.04 0
0.04 0.04 0
0.05 0.04 0
0.06 0.04 0
0.07 0.04 0
0.08 0.04 0
0.09 0.04 0
0.1 0.04 0
0.11 0.04 0
0.12 0.04 0
0.13 0.04 0
0.14 0.04 0
0.15 0.04 0
0.16 0.04 0
0.17 0.04 0
0.18 0.04 0
0.19 0.04 0
0.2 0.04 0
0.21 0.04 0
0.22 0.04 0
0.23 0.04 0
0.24 0.04 0
0.25 0.04 0
0.26 0.04 0
0.27 0.04 0
0.28 0.04 0
0.29 0.04 0
0.3 0.04 0
0.31 0.04 0
0.32 0.04 0
0.33 0.04 0
0.34 0.04 0
0.35 0.04 0
0.36 0.04 0
0.37 0.04 0
0.38 0.04 0
0.39 0.04 0
0.4 0.04 0
0.41 0.04 0
0.42 0.04 0
0.43 0.04 0
0.44 0.04 0
0.45 0.04 0
0.46 0.04 0
0.47 0.04 0
0.48 0.04 0
0.49 0.04 0
0.5 0.04 0
0.51 0.04 0
0.52 0.04 0
0.53 0.04 0
0.54 0.04 0
0.55 0.04 0
0.56 0.04 0
0.57 0.04 0
0.58 0.04 0
0.59 0.04 0
0.6 0.04 0
0.61 0.04 0
0 0.05 0
0.01 0.05 0
0.02 0.05 0
0.03 0.05 0
0.04 0.05 0
0.05 0.05 0
0.06 0.05 0
0.07 0.05 0
0.08 0.05 0
0.09 0.05 0
0.1 0.05 0
0.11 0.05 0
0.12 0.05 0
0.13 0.05 0
0.14 0.05 0
0.15 0.05 0
0.16 0.05 0
0.17 0.05 0
0.18 0.05 0
0.19 0.05 0
0.2 0.05 0
0.21 0.05 0
0.22 0.05 0
0.23 0.05 0
0.24 0.05 0
0.25 0.05 0
0.26 0.05 0
0.27 0.05 0
0.28 0.05 0
0.29 0.05 0
0.3 0.05 0
0.31 0.05 0
0.32 0.05 0
0.33 0.05 0
0.34 0.05 0
0.35 0.05 0
0.36 0.05 0
0.37 0.05 0
0.38 0.05 0
0.39 0.05 0
0.4 0.05 0
0.41 0.05 0
0.42 0.05 0
0.43 0.05 0
0.44 0.05 0
0.45 0.05 0
0.46 0.05 0
0.47 0.05 0
0.48 0.05 0
0.49 0.05 0
0.5 0.05 0
0.51 0.05 0
0.52 0.05 0
0.53 0.05 0
0.54 0.05 0
0.55 0.05 0
0.56 0.05 0
0.57 0.05 0
0.58 0.05 0
0.59 0.05 0
0.6 0.05 0
0.61 0.05 0
0 0.06 0
0.01 0.06 0
0.02 0.06 0
0.03 0.06 0
0.04 0.06 0
0.05 0.06 0
0.06 0.06 0
0.07 0.06 0
0.08 0.06 0
0.09 0.06 0
0.1 0.06 0
0.11 0.06 0
0.12 0.06 0
0.13 0.06 0
0.14 0.06 0
0.15 0.06 0
0.16 0.06 0
0.17 0.06 0
0.18 0.06 0
0.19 0.06 0
0.2 0.06 0
0.21 0.06 0
0.22 0.06 0
0.23 0.06 0
0.24 0.06 0
0.25 0.06 0
0.26 0.06 0
0.27 0.06 0
0.28 0.06 0
0.29 0.06 0
0.3 0.06 0
0.31 0.06 0
0.32 0.06 0
0.33 0.06 0
0.34 0.06 0
0.35 0.06 0
0.36 0.06 0
0.37 0.06 0
0.38 0.06 0
0.39 0.06 0
0.4 0.06 0
0.41 0.06 0
0.42 0.06 0
0.43 0.06 0
0.44 0.06 0
0.45 0.06 0
0.46 0.06 0
0.47 0.06 0
0.48 0.06 0
0.49 0.06 0
0.5 0.06 0
0.51 0.06 0
0.52 0.06 0
0.53 0.06 0
0.54 0.06 0
0.55 0.06 0
0.56 0.06 0
0.57 0.06 0
0.58 0.06 0
0.59 0.06 0
0.6 0.06 0
0.61 0.06 0
0 0.07 0
0.01 0.07 0
0.02 0.07 0
0.03 0.07 0
0.04 0.07 0
0.05 0.07 0
0.06 0.07 0
0.07 0.07 0
0.08 0.07 0
0.09 0.07 0
0.1 0.07 0
0.11 0.07 0
0.12 0.07 0
0.13 0.07 0
0.14 0.07 0
0.15 0.07 0
0.16 0.07 0
0.17 0.07 0
0.18 0.07 0
0.19 0.07 0
0.2 0.07 0
0.21 0.07 0
0.22 0.07 0
0.23 0.07 0
0.24 0.07 0
0.25 0.07 0
0.26 0.07 0
0.27 0.07 0
0.28 0.07 0
0.29 0.07 0
0.3 0.07 0
0.31 0.07 0
0.32 0.07 0
0.33 0.07 0
0.34 0.07 0
0.35 0.07 0
0.36 0.07 0
0.37 0.07 0
0.38 0.07 0
0.39 0.07 0
0.4 0.07 0
0.41 0.07 0
0.42 0.07 0
0.43 0.07 0
0.44 0.07 0
0.45 0.07 0
0.46 0.07 0
0.47 0.07 0
0.48 0.07 0
0.49 0.07 0
0.5 0.07 0
0.51 0.07 0
0.52 0.07 0
0.53 0.07 0
0.54 0.07 0
0.55 0.07 0
0.56 0.07 0
0.57 0.07 0
0.58 0.07 0
0.59 0.07 0
0.6 0.07 0
0.61 0.07 0
0 0.08 0
0.01 0.08 0
0.02 0.08 0
0.03 0.08 0
0.04 0.08 0
0.05 0.08 0
0.06 0.08 0
0.07 0.08 0
0.08 0.08 0
0.09 0.08 0
0.1 0.08 0
0.11 0.08 0
0.12 0.08 0
0.13 0.08 0
0.14 0.08 0
0.15 0.08 0
0.16 0.08 0
0.17 0.08 0
0.18 0.08 0
0.19 0.08 0
0.2 0.08 0
0.21 0.08 0
0.22 0.08 0
0.23 0.08 0
0.24 0.08 0
0.25 0.08 0
0.26 0.08 0
0.27 0.08 0
0.28 0.08 0
0.29 0.08 0
0.3 0.08 0
0.31 0.08 0
0.32 0.08 0
0.33 0.08 0
0.34 0.08 0
0.35 0.08 0
0.36 0.08 0
0.37 0.08 0
0.38 0.08 0
0.39 0.08 0
0.4 0.08 0
0.41 0.08 0
0.42 0.08 0
0.43 0.08 0
0.44 0.08 0
0.45 0.08 0
0.46 0.08 0
0.47 0.08 0
0.48 0.08 0
0.49 0.08 0
0.5 0.08 0
0.51 0.08 0
0.52 0.08 0
0.53 0.08 0
0.54 0.08 0
0.55 0.08 0
0.56 0.08 0
0.57 0.08 0
0.58 0.08 0
0.59 0.08 0
0.6 0.08 0
0.61 0.08 0
0 0.09 0
0.01 0.09 0
0.02 0.09 0
0.03 0.09 0
0.04 0.09 0
0.05 0.09 0
0.06 0.09 0
0.07 0.09 0
0.08 0.09 0
0.09 0.09 0
0.1 0.09 0
0.11 0.09 0
0.12 0.09 0
0.13 0.09 0
0.14 0.09 0
0.15 0.09 0
0.16 0.09 0
0.17 0.09 0
0.18 0.09 0
0.19 0.09 0
0.2 0.09 0
0.21 0.09 0
0.22 0.09 0
0.23 0.09 0
0.24 0.09 0
0.25 0.09 0
0.26 0.09 0
0.27 0.09 0
0.28 0.09 0
0.29 0.09 0
0.3 0.09 0
0.31 0.09 0
0.32 0.09 0
0.33 0.09 0
0.34 0.09 0
0.35 0.09 0
0.36 0.09 0
0.37 0.09 0
0.38 0.09 0
0.39 0.09 0
0.4 0.09 0
0.41 0.09 0
0.42 0.09 0
0.43 0.09 0
0.44 0.09 0
0.45 0.09 0
0.46 0.09 0
0.47 0.09 0
0.48 0.09 0
0.49 0.09 0
0.5 0.09 0
0.51 0.09 0
0.52 0.09 0
0.53 0.09 0
0.54 0.09 0
0.55 0.09 0
0.56 0.09 0
0.57 0.09 0
0.58 0.09 0
0.59 0.09 0
0.6 0.09 0
0.61 0.09 0
0 0.1 0
0.01 0.1 0
0.02 0.1 0
0.03 0.1 0
0.04 0.1 0
0.05 0.1 0
0.06 0.1 0
0.07 0.1 0
0.08 0.1 0
0.09 0.1 0
0.1 0.1 0
0.11 0.1 0
0.12 0.1 0
0.13 0.1 0
0.14 0.1 0
0.15 0.1 0
0.16 0.1 0
0.17 0.1 0
0.18 0.1 0
0.19 0.1 0
0.2 0.1 0
0.21 0.1 0
0.22 0.1 0
0.23 0.1 0
0.24 0.1 0
0.25 0.1 0
0.26 0.1 0
0.27 0.1 0
0.28 0.1 0
0.29 0.1 0
0.3 0.1 0
0.31 0.1 0
0.32 0.1 0
0.33 0.1 0
0.34 0.1 0
0.35 0.1 0
0.36 0.1 0
0.37 0.1 0
0.38 0.1 0
0.39 0.1 0
0.4 0.1 0
0.41 0.1 0
0.42 0.1 0
0.43 0.1 0
0.44 0.1 0
0.45 0.1 0
0.46 0.1 0
0.47 0.1 0
0.48 0.1 0
0.49 0.1 0
0.5 0.1 0
0.51 0.1 0
0.52 0.1 0
0.53 0.1 0
0.54 0.1 0
0.55 0.1 0
0.56 0.1 0
0.57 0.1 0
0.58 0.1 0
0.59 0.1 0
0.6 0.1 0
0.61 0.1 0
0 0.11 0
0.01 0.11 0
0.02 0.11 0
0.03 0.11 0
0.04 0.11 0
0.05 0.11 0
0.06 0.11 0
0.07 0.11 0
0.08 0.11 0
0.09 0.11 0
0.1 0.11 0
0.11 0.11 0
0.12 0.11 0
0.13 0.11 0
0.14 0.11 0
0.15 0.11 0
0.16 0.11 0
0.17 0.11 0
0.18 0.11 0
0.19 0.11 0
0.2 0.11 0
0.21 0.11 0
0.22 0.11 0
0.23 0.11 0
0.24 0.11 0
0.25 0.11 0
0.26 0.11 0
0.27 0.11 0
0.28 0.11 0
0.29 0.11 0
0.3 0.11 0
0.31 0.11 0
0.32 0.11 0
0.33 0.11 0
0.34 0.11 0
0.35 0.11 0
0.36 0.11 0
0.37 0.11 0
0.38 0.11 0
0.39 0.11 0
0.4 0.11 0
0.41 0.11 0
0.42 0.11 0
0.43 0.11 0
0.44 0.11 0
0.45 0.11 0
0.46 0.11 0
0.47 0.11 0
0.48 0.11 0
0.49 0.11 0
0.5 0.11 0
0.51 0.11 0
0.52 0.11 0
0.53 0.11 0
0.54 0.11 0
0.55 0.11 0
0.56 0.11 0
0.57 0.11 0
0.58 0.11 0
0.59 0.11 0
0.6 0.11 0
0.61 0.11 0
0 0.12 0
0.01 0.12 0
0.02 0.12 0
0.03 0.12 0
0.04 0.12 0
0.05 0.12 0
0.06 0.12 0
0.07 0.12 0
0.08 0.12 0
0.09 0.12 0
0.1 0.12 0
0.11 0.12 0
0.12 0.12 0
0.13 0.12 0
0.14 0.12 0
0.15 0.12 0
0.16 0.12 0
0.17 0.12 0
0.18 0.12 0
0.19 0.12 0
0.2 0.12 0
0.21 0.12 0
0.22 0.12 0
0.23 0.12 0
0.24 0.12 0
0.25 0.12 0
0.26 0.12 0
0.27 0.12 0
0.28 0.12 0
0.29 0.12 0
0.3 0.12 0
0.31 0.12 0
0.32 0.12 0
0.33 0.12 0
0.34 0.12 0
0.35 0.12 0
0.36 0.12 0
0.37 0.12 0
0.38 0.12 0
0.39 0.12 0
0.4 0.12 0
0.41 0.12 0
0.42 0.12 0
0.43 0.12 0
0.44 0.12 0
0.45 0.12 0
0.46 0.12 0
0.47 0.12 0
0.48 0.12 0
0.49 0.12 0
0.5 0.12 0
0.51 0.12 0
0.52 0.12 0
0.53 0.12 0
0.54 0.12 0
0.55 0.12 0
0.56 0.12 0
0.57 0.12 0
0.58 0.12 0
0.59 0.12 0
0.6 0.12 0
0.61 0.12 0
0 0.13 0
0.01 0.13 0
0.02 0.13 0
0.03 0.13 0
0.04 0.13 0
0.05 0.13 0
0.06 0.13 0
0.07 0.13 0
0.08 0.13 0
0.09 0.13 0
0.1 0.13 0
0.11 0.13 0
0.12 0.13 0
0.13 0.13 0
0.14 0.13 0
0.15 0.13 0
0.16 0.13 0
0.17 0.13 0
0.18 0.13 0
0.19 0.13 0
0.2 0.13 0
0.21 0.13 0
0.22 0.13 0
0.23 0.13 0
0.24 0.13 0
0.25 0.13 0
0.26 0.13 0
0.27 0.13 0
0.28 0.13 0
0.29 0.13 0
0.3 0.13 0
0.31 0.13 0
0.32 0.13 0
0.33 0.13 0
0.34 0.13 0
0.35 0.13 0
0.36 0.13 0
0.37 0.13 0
0.38 0.13 0
0.39 0.13 0
0.4 0.13 0
0.41 0.13 0
0.42 0.13 0
0.43 0.13 0
0.44 0.13 0
0.45 0.13 0
0.46 0.13 0
0.47 0.13 0
0.48 0.13 0
[...]
POINT_DATA 93248

SCALARS u double
LOOKUP_TABLE default
0
0
0
0
0
0
0
0
0
0
0
0
0
0
0
0
0
0
0
0
0
0
0
0
0
0
0
0
0
0
0
0
0
0
0
0
0
0
0
0
0
0
0
0
0
0
0
0
0
0
0
0
0
0
0
0
0
0
0
0
0
0
0
0.484824
0.476358
0.467894
0.459431
0.45097
0.442511
0.434053
0.425598
0.417145
0.408694
0.400247
0.391802
0.38336
0.374922
0.366487
0.358055
0.349627
0.341203
0.332783
0.324367
0.315954
0.307546
0.299142
0.290742
0.282346
0.273954
0.265567
0.257184
0.248805
0.24043
0.232059
0.223693
0.21533
0.206972
0.198617
0.190266
0.181919
0.173575
0.165253
0.156898
0.148565
0.140234
0.131906
0.123581
0.115258
0.106938
0.0986202
0.0903042
0.08199
0.0736774
0.0570585
0.0570562
0.0487473
0.0404391
0.0321316
0.0321632
0.0155175
0.00721049
-0.00109671
-0.00109671
0
0
0.484824
0.476359
0.467895
0.459432
0.450971
0.442512
0.434055
0.425599
0.417147
0.408696
0.400249
0.391804
0.383363
0.374924
0.366489
0.358058
0.34963
0.341206
0.332801
0.32437
0.315957
0.307549
0.299145
0.290745
0.282349
0.273958
0.26557
0.257187
0.248808
0.240433
0.232063
0.223696
0.215334
0.206975
0.19862
0.190269
0.181922
-0
0.165238
0.156901
0.148567
0.140236
0.131909
0.123583
0.115261
0.10694
0.0986221
0.0903059
0.0819916
0.0736788
0.0653675
0.0570573
0.0487482
0.0404399
0.0321322
0.0238249
0.0155178
0.00721063
-0.00109673
-0.00109673
0
0
0.484824
0.47636
0.467896
0.459433
0.450972
0.442513
0.434056
0.425601
0.417148
0.408724
0.400251
0.391806
0.383365
0.374927
0.366492
0.358061
0.349633
0.341209
0.332789
0.324373
0.31596
0.307552
0.299148
0.290748
0.282353
0.273961
0.265574
0.25719
0.248812
0.240437
0.232066
0.223699
0.215337
0.215396
0.198624
0.190272
0.181925
0.173581
0.165241
0.156904
0.14857
0.140263
0.131911
0.123586
0.131947
0.106942
0.098624
0.0903059
0.0819932
0.0736803
0.0653688
0.0570585
0.0487492
0.0404407
0.0321328
0.0238254
0.0155181
0.00721077
-0.00109675
-0.00109675
0
0
0.484825
0.47636
0.467896
0.459434
0.450973
0.442514
0.434057
0.425603
0.41715
0.4087
0.400253
0.391809
0.383367
0.374929
0.366495
0.358064
0.349636
0.341212
0.332804
0.324376
0.315964
0.307556
0.299151
0.290752
0.282356
0.273964
0.265577
0.257194
0.248815
0.24044
0.232069
0.223703
0.21534
0.206982
0.198627
0.190276
0.181928
0.173584
0.165244
0.156907
0.148573
0.140242
0.131913
0.123588
0.115265
0.106944
0.0986259
0.0903094
0.0819948
0.0736817
0.0653701
0.0570596
0.0487502
0.0404415
0.0321335
0.0238258
0.0155184
0.00721091
-0.00109678
-0.00109678
0
0
0.484825
0.476361
0.467897
0.459435
0.450975
0.442516
0.434059
0.425604
0.417152
0.408702
0.400255
0.391811
0.38337
0.374932
0.366497
0.358066
0.349639
0.341215
0.332795
0.324379
0.315967
0.307559
0.299155
0.290755
0.282359
0.273968
0.26558
0.257197
0.248818
0.240444
0.232073
0.223706
0.215344
0.206985
0.19863
0.190279
0.181931
0.173587
0.165247
0.156909
0.148575
0.140244
0.131916
0.12359
0.115267
0.106957
0.0986278
0.0903112
0.0819964
0.0736832
0.0653714
0.0570608
0.0487512
0.0404423
0.0321341
0.0238263
0.0155187
0.00721106
-0.0010968
-0.0010968
0
0
0.484826
0.476361
0.467898
0.459436
0.450976
0.442517
0.43406
0.425606
0.417154
0.408704
0.400257
0.391813
0.383372
0.374934
0.3665
0.358069
0.349642
0.341218
0.332798
0.324382
0.31597
0.307562
0.299158
0.290758
0.282363
0.273971
0.265584
0.257201
0.248822
0.240447
0.232076
0.22371
0.215347
0.206988
0.198633
0.190282
0.181934
0.17359
0.16525
0.156912
0.148578
0.140247
0.131918
0.123593
0.115269
0.106948
0.0986298
0.090313
0.081998
0.0736847
0.0653727
0.0570619
0.0487521
0.0404432
0.0321348
0.0238268
0.015519
0.0072112
-0.00109683
-0.00109683
0
0
0.484826
0.476362
0.467899
0.459437
0.450977
0.459476
0.434062
0.425607
0.417156
0.408706
0.400259
0.391815
0.383375
0.374937
0.366503
0.358072
0.349645
0.341221
0.332801
0.324385
0.315973
0.307565
0.299162
0.290762
0.282366
0.273975
0.265587
0.257204
0.248825
0.240451
0.23208
0.223713
0.21535
0.206991
0.198636
0.190285
0.181938
0.173593
0.165253
0.156915
0.148581
0.140268
0.131921
0.123595
0.115272
0.106951
0.0986317
0.0903148
0.0819997
0.0736861
0.065374
0.0570631
0.0487531
0.040444
0.0321355
0.0238273
0.0155193
0.00721135
-0.00109685
-0.00109685
0
0
0.484826
0.476362
0.467899
0.459438
0.450978
0.44252
0.434063
0.425609
0.417157
0.408708
0.400261
0.391818
0.383377
0.37494
0.366505
0.358058
0.349648
0.341224
0.332804
0.324389
0.315977
0.307569
0.299165
0.290765
0.282359
0.273978
0.265591
0.257208
0.248829
0.240454
0.232083
0.223717
0.215354
0.206995
0.19864
0.190288
0.181941
0.173596
0.165256
0.156918
0.148584
0.140252
0.131923
0.123597
0.115274
0.106953
0.0986337
0.0903166
0.0820013
0.0736876
0.0653753
0.0570642
0.0487541
0.0404448
0.0321361
0.0238278
0.0155196
0.00721149
-0.00109688
-0.00109688
0
0
0.484827
0.476363
0.4679
0.459439
0.450979
0.442521
0.434065
0.425611
0.417159
0.40871
0.400264
0.39182
0.38338
0.374942
0.366508
0.358078
0.34965
0.341227
0.332807
0.324392
0.31598
0.307572
0.299168
0.290769
0.282373
0.273982
0.265595
0.257211
0.248832
0.240458
0.232087
0.22372
0.215357
0.206998
0.198643
0.190292
0.181944
0.173599
0.165259
0.156921
0.148586
0.140255
0.131926
0.1236
0.115276
0.106955
0.0986356
0.0903184
0.082003
0.0736891
0.0653767
0.0570654
0.0487551
0.0404457
0.0321368
0.0238283
0.01552
0.00721164
-0.0010969
-0.0010969
0
0
0.484827
0.476363
0.467901
0.45944
0.45098
0.442522
0.434066
0.425613
0.417161
0.408712
0.400266
0.391822
0.383382
0.374945
0.366511
0.35808
0.349653
0.34123
0.332811
0.324395
0.315983
0.307576
0.299172
0.290772
0.282377
0.273985
0.265598
0.257215
0.248836
0.248932
0.23209
0.223723
0.215361
0.207002
0.198646
0.190361
0.181947
0.173603
0.165262
0.156924
0.148589
0.140257
0.131928
0.123602
0.115278
0.106957
0.0986376
0.0903203
0.0820047
0.0736907
0.065378
-0
0.0487562
0.0404465
0.0321374
0.0238288
0.0155203
0.00721179
-0.00109693
-0.00109693
0
0
0.484827
0.476364
0.467902
0.459441
0.450981
0.442524
0.434068
0.425614
0.417163
0.408714
0.400268
0.391825
0.383385
0.374947
0.366514
0.358083
0.349656
0.341233
0.332814
0.324457
0.315987
0.307579
0.299175
0.290776
0.28238
0.273989
0.265602
0.257219
0.24884
0.240465
0.232094
0.223727
0.215364
0.207005
0.19865
0.190298
0.182036
0.173606
0.165265
0.156927
0.148592
0.14026
0.131931
0.123605
0.115281
0.106959
0.0986396
0.0903221
0.0820064
0.0736922
0.0653794
0.0570678
0.0487572
0.0404474
0.0321381
0.0238293
0.0155206
0.00721194
-0.00109695
-0.00109695
0
0
0.484828
0.476365
0.467902
0.459442
0.450982
0.442525
0.434069
0.425616
0.417165
0.408716
0.40027
0.391827
0.383387
0.37495
0.366516
0.358086
0.349659
0.341236
0.332817
0.324402
0.31599
0.307582
0.299179
0.290779
0.282384
0.273992
0.265605
0.257222
0.248843
0.240468
0.232097
0.223731
0.215368
0.207008
0.198653
0.190301
0.181953
0.173609
0.165268
0.15693
0.148595
0.140263
0.131934
0.123607
0.115283
0.106961
0.0986416
0.090324
0.0820081
0.0736937
0.0653808
0.057069
0.0487582
0.0404482
0.0321388
0.0238298
0.0155209
0.00721209
-0.00109698
-0.00109698
0
0
0.484828
0.476365
0.467903
0.459443
0.450984
0.442526
0.434071
0.425618
0.417167
0.408718
0.400272
0.391829
0.38339
0.374953
0.366519
0.358089
0.349662
0.341239
0.33282
0.324405
0.315993
0.307586
0.299182
0.290783
0.282387
0.273996
0.265609
0.257226
0.248847
0.240472
0.232101
0.223734
0.215371
0.207012
0.198657
0.190305
0.181957
0.173612
0.165271
0.156933
0.148598
0.140265
0.131936
0.12361
0.115285
0.106963
0.0986437
0.0903258
0.0820098
0.0736953
0.0653821
0.0570702
0.0487592
0.0404491
0.0321395
0.0238303
0.0155213
0.00721224
-0.00109701
-0.00109701
0
0
0.484828
0.476366
0.467904
0.459444
0.450985
0.442528
0.434072
0.425619
0.417169
0.40872
0.400275
0.391832
0.383392
0.374955
0.366522
0.358092
0.349665
0.341243
0.332824
0.324408
0.315997
0.307589
0.299186
0.290786
0.282391
0.274
0.265613
0.257229
0.24885
0.240476
0.232105
0.223738
0.215375
0.207015
0.19866
0.190308
0.18196
0.173615
0.165274
0.156936
0.1486
0.140268
0.131939
0.123612
0.115288
0.106966
0.0986457
0.0903277
0.0820115
0.0736968
0.0653835
0.0570714
0.0487603
0.0404499
0.0321402
0.0238308
0.0155216
0.00721239
-0.00109704
-0.00109704
0
0
0.484829
0.476366
0.467905
0.459445
0.450986
0.442529
0.434074
0.425621
0.41717
0.408722
0.400277
0.391834
0.383395
0.374958
0.366525
0.358095
0.349669
0.341246
0.332827
0.324412
0.316
0.307593
0.299189
0.29079
0.282395
0.274003
0.265616
0.257233
0.248854
0.240479
0.232108
0.223741
0.215378
0.207019
0.198663
0.190312
0.181963
0.173618
0.165277
0.156939
0.148603
0.140271
0.131941
0.123614
0.11529
0.106968
0.0986477
0.0903296
0.0820132
0.0736984
0.0653849
0.0570726
0.0487613
0.0404508
0.0321409
0.0238313
0.0155219
0.00721254
-0.00109706
-0.00109706
0
0
0.484829
0.476367
0.467906
0.459446
0.450987
0.44253
0.434076
0.425623
0.417172
0.408724
0.400279
0.391837
0.383397
0.374961
0.366528
0.358098
0.349672
0.341249
0.33283
0.324415
0.316004
0.307596
0.299193
0.290794
0.282398
0.274007
0.26562
0.257237
0.248858
0.240483
0.232112
0.223745
0.215382
0.207022
0.198667
0.190315
0.181967
0.173622
0.16528
0.156942
0.148606
0.140274
0.131944
0.123617
0.115292
0.10697
0.0986498
0.0903315
0.0820149
0.0736999
0.0653863
0.0570738
0.0487624
0.0404517
0.0321415
0.0238318
0.0155223
0.00721269
-0.00109709
-0.00109709
0
0
0.48483
0.476367
0.467906
0.459447
0.450988
0.442532
0.434077
0.425625
0.417174
0.408727
0.400281
0.391839
0.3834
0.374963
0.36653
0.358101
0.349675
0.341252
0.332833
0.324418
0.316007
0.3076
0.299196
0.290797
0.282402
0.274011
0.265624
0.257241
0.248862
0.240487
0.232116
0.223749
0.215385
0.207026
0.19867
0.190318
0.18197
0.173625
0.165283
0.156945
0.148609
0.140276
0.131947
0.123619
0.115295
0.106972
0.0986519
0.0903334
0.0820167
0.0737015
0.0653877
0.0570751
0.0487634
0.0404525
0.0321422
0.0238323
0.0155226
0.00721284
-0.00109712
-0.00109712
0
0
0.48483
0.476368
0.467907
0.459448
0.45099
0.434069
0.434079
0.425626
0.417176
0.408729
0.400284
0.391842
0.383402
0.374966
0.366533
0.358104
0.349678
0.341255
0.332837
0.324422
0.316011
0.307603
0.2992
0.290801
0.282406
0.274014
0.26569
0.257244
0.248865
0.24049
0.232119
0.223752
0.215389
0.20703
0.198674
0.190322
0.181973
0.173628
0.165286
0.156948
0.148612
0.140279
0.131949
0.123622
0.115297
0.106974
0.0986539
0.0903353
0.0820184
0.0737031
0.0653891
0.0570763
0.0487645
0.0404534
0.0321429
0.0155203
0.0155229
0.007213
-0.00109715
0
0
0
0.48483
0.476375
0.467908
0.459449
0.450991
0.442535
0.43408
0.425628
0.417178
0.408731
0.400286
0.391844
0.383405
0.374969
0.366536
0.358107
0.349681
0.341259
0.33284
0.324425
0.316014
0.307607
0.299204
0.290805
0.282409
0.274018
0.265631
0.257248
0.248869
0.240494
0.232123
0.223756
0.215393
0.198721
0.198677
0.190325
0.181977
0.173631
0.165289
0.156921
0.148615
0.140282
0.131952
0.123625
0.1153
0.106977
0.098656
0.0903372
0.0820202
0.0737047
0.0653905
0.0570776
0.0487656
0.0404543
0.0321437
0.0238334
0.0155233
0.00721315
-0.00109717
-0.00109717
0
0
0.484831
0.476369
0.467909
0.45945
0.450992
0.442536
0.434082
0.42563
0.41718
0.408733
0.400288
0.391846
0.383408
0.374972
0.366539
0.35811
0.349684
0.341262
0.332843
0.324429
0.316018
0.30761
0.299207
0.290808
0.282413
0.274022
0.265635
0.257252
0.248873
0.240498
0.232127
0.22376
0.215396
0.207037
0.198681
0.190329
0.18198
0.173635
0.165293
0.156954
0.148618
0.140285
0.131955
0.123627
0.115302
0.106979
0.0986581
0.0903392
0.082022
0.0737063
0.065392
0.0570788
0.0487666
0.0404552
0.0321444
0.0238339
0.0155236
0.00721331
-0.0010972
-0.0010972
0
0
0.484831
0.47637
0.46791
0.459451
0.450993
0.442537
0.434084
0.425632
0.417182
0.408735
0.400291
0.391849
0.38341
0.375045
0.366542
0.358113
0.349687
0.341265
0.332847
0.324432
0.316021
0.307614
0.299211
0.290812
0.282417
0.274026
0.265639
0.257256
0.248877
0.240502
0.23213
0.223763
0.2154
0.20704
0.198684
0.190332
0.181983
0.173638
0.165296
0.156957
0.148621
0.140288
0.131957
0.12363
0.115304
0.106981
0.0986602
0.0903411
0.0820238
0.0737079
0.0653934
0.0570801
0.0487677
0.0404561
0.0321451
0.0238344
0.0155239
0.00721346
-0.00109723
-0.00109723
0
0
0.484831
0.47637
0.46791
0.459452
0.450994
0.442539
0.434085
0.425634
0.417184
0.408737
0.400293
0.391851
0.391912
0.374977
0.366545
0.358116
0.34969
0.341268
0.33285
0.324435
0.316025
0.307618
0.299215
0.290816
0.282421
0.27403
0.265642
0.257259
0.24888
0.240505
0.232134
0.223767
0.215404
0.207044
0.198688
0.190336
0.181987
0.173641
0.165299
0.15696
0.148624
0.140291
0.13196
0.123632
0.115307
0.106984
0.0986624
0.0903431
0.0820256
0.0737095
0.0653949
0.0570813
0.0487688
0.040457
0.0321458
0.0238349
0.0155243
0.00721362
-0.00109726
-0.00109726
0
0
0.484832
0.476371
0.467911
0.459453
0.450996
0.44254
0.434087
0.425635
0.417186
0.408739
0.400295
0.391854
0.383415
0.37498
0.366548
0.358119
0.349694
0.341272
0.332853
0.324439
0.316028
0.307621
0.299218
0.290819
0.282424
0.274033
0.265646
0.257263
0.248884
0.240509
0.232138
0.223771
0.215407
0.207048
0.198692
0.190339
0.18199
0.173645
0.165302
0.156963
0.148627
0.140293
0.131963
0.123635
0.123689
0.106986
0.0986645
0.0903451
0.0820274
0.0737112
0.0737454
0.0570826
0.0487699
0.0321593
0.0321465
0.0238355
0.0155246
0.00721378
-0.00109729
-0.00109729
0
0
0.484832
0.476372
0.467912
0.459454
0.450997
0.442542
0.434088
0.425637
0.417188
0.408742
0.400298
0.391856
0.383418
0.374983
0.366551
0.358122
0.349697
0.341275
0.332857
0.324442
0.316032
0.307625
0.299222
0.290823
0.282428
0.274037
0.26565
0.257201
0.248888
0.240513
0.232142
0.223775
0.215411
0.207051
0.198695
0.190343
0.181994
0.173648
0.165305
0.156966
0.14863
0.140296
0.131966
0.123637
0.115312
0.106988
0.0986667
0.0903471
0.0820292
0.0737128
0.0653978
0.0570839
0.048771
0.0404588
0.0321472
0.023836
0.015525
0.00721394
-0.00109732
-0.00109732
0
0
0.484833
0.476372
0.467913
0.459455
0.450998
0.442543
0.43409
0.425639
0.41719
0.408744
0.4003
0.391859
0.383421
0.374986
0.366554
0.358125
0.3497
0.341278
0.33286
0.324446
0.316035
0.307629
0.299226
0.290827
0.282432
0.274041
0.265654
0.257271
0.248892
0.240517
0.232146
0.223778
0.215415
0.207055
0.198699
0.190346
0.181997
0.173651
0.165309
0.156969
0.148633
0.140299
0.131968
0.12364
0.115314
0.10699
0.0986688
0.090349
0.0737279
0.0737144
0.0653992
0.0570852
0.0487721
0.0404597
0.032148
0.0238366
0.0155253
0.0072141
-0.00109735
-0.00109735
0
0
0.484833
0.476373
0.467914
0.459456
0.450999
0.442545
0.434092
0.425641
0.417192
0.408746
0.400302
0.391862
0.383424
0.374989
0.366557
0.358128
0.349703
0.341282
0.332864
0.32445
0.316039
0.307632
0.29923
0.290831
0.282436
0.274045
0.265658
0.257275
0.248896
0.240521
0.23215
0.223782
0.215419
0.207059
0.198702
0.19035
0.182001
0.173655
0.165312
0.156972
0.148636
0.140302
0.131971
0.123643
0.115317
0.106993
0.098671
0.090351
0.0820328
0.0737161
0.0654007
0.0570865
0.0487732
0.0404607
0.0321487
0.0238371
0.0155257
0.00721426
-0.00109738
-0.00109738
0
0
0.484833
0.476373
0.467914
0.459457
0.451001
0.442546
0.434093
0.425643
0.417194
0.408748
0.400305
0.391864
0.383426
0.374991
0.36656
0.358131
0.349707
0.341285
0.332867
0.324453
0.316043
0.307636
0.299189
0.290835
0.28244
0.274049
0.265662
0.257279
0.2489
0.240525
0.232153
0.223786
0.215422
0.207062
0.198706
0.190353
0.182004
0.173658
0.165315
0.156976
0.148639
0.140305
0.131974
0.123645
0.115319
0.106995
0.0986732
0.0903531
0.0820347
0.0737178
0.0654022
0.0570878
0.0487743
0.0404616
0.0321494
0.0238376
0.015526
0.00721442
-0.00109741
-0.00109741
0
0
0.484834
0.476374
0.467915
0.459458
0.451002
0.442547
0.434095
0.425645
0.417196
0.40875
0.400307
0.391867
0.383429
0.374994
0.366563
0.358135
0.34971
0.341288
0.332871
0.324457
0.316046
0.30764
0.299237
0.290838
0.282444
0.274053
0.265666
0.257283
0.248904
0.240529
0.232157
0.22379
0.215426
0.207066
0.19871
0.190357
0.182008
0.173661
0.165319
0.156979
0.148642
0.140308
0.131977
0.123648
0.115322
0.106997
0.0986753
0.0903551
0.0820365
0.0737194
0.0654037
0.0570891
0.0487754
0.0404625
0.0321502
0.0238382
0.0155264
0.00721458
-0.00109744
-0.00109744
0
0
0.484834
0.476375
0.467916
0.459459
0.451003
0.442549
0.434097
0.425646
0.417198
0.41719
0.40031
0.391869
0.383432
0.374997
0.366566
0.358138
0.349713
0.341292
0.332874
0.32446
0.31605
0.307644
0.299241
0.290842
0.282512
0.274057
0.26567
0.257287
0.248908
0.240533
0.232161
0.223794
0.21543
0.20707
0.198713
0.190361
0.182011
0.173665
0.165322
0.156982
0.148645
0.140311
0.13198
0.123651
0.115324
0.107
0.0986775
0.0903571
0.0820384
0.0737211
0.0654052
0.0570904
0.0487765
0.0404634
0.0321509
0.0238387
0.0155267
0.00721474
-0.00109746
-0.00109746
0
0
0.484835
0.476375
0.467923
0.45946
0.451004
0.44255
0.434098
0.425648
0.4172
0.408755
0.400312
0.391872
0.383434
0.375
0.366569
0.358141
0.349716
0.341215
0.332878
0.324464
0.316054
0.307647
0.299245
0.290846
0.282451
0.274061
0.265674
0.257291
0.248912
0.240536
0.232165
0.223798
0.215434
0.207074
0.198717
0.190364
0.182015
0.173668
0.165325
0.156985
0.148648
0.140314
0.131982
0.123653
0.115327
0.107002
0.0986798
0.0903591
0.0820402
0.0737228
0.0654067
0.0570917
0.0487777
0.0404644
0.0321516
0.0238393
0.0155271
0.00721491
-0.00109744
-0.00109749
0
0
0.484835
0.476376
0.467918
0.459461
0.451006
0.442552
0.4341
0.42565
0.417202
0.408757
0.400314
0.391874
0.383437
0.375003
0.366572
0.34963
0.34972
0.341299
0.332881
0.324468
0.316057
0.307651
0.299249
0.29085
0.282455
0.274065
0.265678
0.257295
0.248916
0.24054
0.232169
0.223802
0.215438
0.207078
0.198721
0.190368
0.182018
0.173672
0.165329
0.156989
0.148651
0.140317
0.131985
0.123656
0.115329
0.107005
0.098682
0.0903612
0.0820421
0.0737245
0.0654082
0.057093
0.0487788
0.0404653
0.0321524
0.0238398
0.0155275
0.0072112
-0.00109752
-0.00109752
0
0
0.484835
0.476377
0.467919
0.459462
0.451007
0.442553
0.434102
0.425652
0.417205
0.408759
0.400317
0.391877
0.38344
0.375006
0.366575
0.358147
0.349723
0.341302
0.332885
0.324471
0.316061
0.307655
0.299253
0.290854
0.282459
0.274069
0.265682
0.257299
0.24892
0.240544
0.232173
0.223805
0.215442
0.207081
0.198725
0.190372
0.182022
0.173675
0.165332
0.156992
0.148654
0.14032
0.131988
0.123659
0.115332
0.107007
0.0986842
0.0903633
0.082044
0.0737262
0.0654097
0.0570944
0.0487799
0.0404663
0.0321585
0.0238404
0.0155278
0.00721524
-0.00109776
-0.00109755
0
0
0.484836
0.476377
0.46792
0.459463
0.451008
0.442555
0.434103
0.425654
0.417207
0.408762
0.400319
0.39188
0.383443
0.375009
0.366578
0.358151
0.349726
0.341306
0.332888
0.324475
0.316065
0.307659
0.299256
0.290858
0.282463
0.274073
0.265686
0.257303
0.248924
0.240548
0.232177
0.223809
0.215445
0.207085
0.198728
0.190375
0.182025
0.173679
0.165335
0.156995
0.148658
0.140323
0.131991
0.123662
0.115334
0.107009
0.0986864
0.0903653
0.0820459
0.0737279
0.0654112
0.0570957
0.0487811
0.0404672
0.0321539
0.023841
0.0155282
0.00721541
-0.00109758
-0.00109758
0
0
0.484836
0.476378
0.46792
0.459464
0.450988
0.442556
0.434105
0.425656
0.417209
0.408764
0.400322
0.391882
0.383446
0.374961
0.366581
0.358154
0.34973
0.341309
0.332892
0.324479
0.316069
0.307663
0.29926
0.290862
0.282467
0.274077
0.26569
0.257307
0.248928
0.240552
0.232181
0.223813
0.215449
0.207089
0.198732
0.190379
0.182029
0.173682
0.165339
0.156998
0.148661
0.140326
0.131994
0.123664
0.115337
0.107012
0.0986887
0.0903674
0.0820478
0.0737296
0.0654128
0.057097
0.0487822
0.0404682
0.0321547
0.0238415
0.0155286
0.00721557
-0.00109761
-0.00109761
0
0
0.484837
0.476378
0.467921
0.459465
0.451011
0.442558
0.434107
0.425658
0.417211
0.408766
0.400324
0.391885
0.383448
0.375015
0.366584
0.358157
0.349733
0.341313
0.332896
0.324482
0.316072
0.307666
0.299264
0.290866
0.282471
0.274081
0.265694
0.257311
0.248932
0.240557
0.232185
0.223817
0.215453
0.207093
0.198736
0.190383
0.182033
0.173686
0.165342
0.157002
0.148565
0.140329
0.131997
0.123667
0.11534
0.107014
0.098691
0.0903695
0.0820497
0.0737313
0.0654143
0.0570984
0.0487834
0.0404691
0.0321554
0.0238421
0.0155289
0.00721574
-0.00109764
-0.00109764
0
0
0.484837
0.476379
0.467922
0.459466
0.451012
0.442559
0.434109
0.42566
0.417213
0.408769
0.400327
0.391888
0.383451
0.375018
0.366587
0.35816
0.349737
0.341316
0.332899
0.324486
0.316076
0.30767
0.299268
0.29087
0.282475
0.274085
0.265698
0.257315
0.248936
0.240561
0.232189
0.223821
0.215457
0.207097
0.19874
0.190386
0.182036
0.173689
0.165346
0.157005
0.148667