# vtk DataFile Version 2.0
FlowField
ASCII
DATASET STRUCTURED_GRID
DIMENSIONS 62 47 32 
POINTS 93248 double
0 0 0
0.01 0 0
0.02 0 0
0.03 0 0
0.04 0 0
0.05 0 0
0.06 0 0
0.07 0 0
0.08 0 0
0.09 0 0
0.1 0 0
0.11 0 0
0.12 0 0
0.13 0 0
0.14 0 0
0.15 0 0
0.16 0 0
0.17 0 0
0.18 0 0
0.19 0 0
0.2 0 0
0.21 0 0
0.22 0 0
0.23 0 0
0.24 0 0
0.25 0 0
0.26 0 0
0.27 0 0
0.28 0 0
0.29 0 0
0.3 0 0
0.31 0 0
0.32 0 0
0.33 0 0
0.34 0 0
0.35 0 0
0.36 0 0
0.37 0 0
0.38 0 0
0.39 0 0
0.4 0 0
0.41 0 0
0.42 0 0
0.43 0 0
0.44 0 0
0.45 0 0
0.46 0 0
0.47 0 0
0.48 0 0
0.49 0 0
0.5 0 0
0.51 0 0
0.52 0 0
0.53 0 0
0.54 0 0
0.55 0 0
0.56 0 0
0.57 0 0
0.58 0 0
0.59 0 0
0.6 0 0
0.61 0 0
0 0.01 0
0.01 0.01 0
0.02 0.01 0
0.03 0.01 0
0.04 0.01 0
0.05 0.01 0
0.06 0.01 0
0.07 0.01 0
0.08 0.01 0
0.09 0.01 0
0.1 0.01 0
0.11 0.01 0
0.12 0.01 0
0.13 0.01 0
0.14 0.01 0
0.15 0.01 0
0.16 0.01 0
0.17 0.01 0
0.18 0.01 0
0.19 0.01 0
0.2 0.01 0
0.21 0.01 0
0.22 0.01 0
0.23 0.01 0
0.24 0.01 0
0.25 0.01 0
0.26 0.01 0
0.27 0.01 0
0.28 0.01 0
0.29 0.01 0
0.3 0.01 0
0.31 0.01 0
0.32 0.01 0
0.33 0.01 0
0.34 0.01 0
0.35 0.01 0
0.36 0.01 0
0.37 0.01 0
0.38 0.01 0
0.39 0.01 0
0.4 0.01 0
0.41 0.01 0
0.42 0.01 0
0.43 0.01 0
0.44 0.01 0
0.45 0.01 0
0.46 0.01 0
0.47 0.01 0
0.48 0.01 0
0.49 0.01 0
0.5 0.01 0
0.51 0.01 0
0.52 0.01 0
0.53 0.01 0
0.54 0.01 0
0.55 0.01 0
0.56 0.01 0
0.57 0.01 0
0.58 0.01 0
0.59 0.01 0
0.6 0.01 0
0.61 0.01 0
0 0.02 0
0.01 0.02 0
0.02 0.02 0
0.03 0.02 0
0.04 0.02 0
0.05 0.02 0
0.06 0.02 0
0.07 0.02 0
0.08 0.02 0
0.09 0.02 0
0.1 0.02 0
0.11 0.02 0
0.12 0.02 0
0.13 0.02 0
0.14 0.02 0
0.15 0.02 0
0.16 0.02 0
0.17 0.02 0
0.18 0.02 0
0.19 0.02 0
0.2 0.02 0
0.21 0.02 0
0.22 0.02 0
0.23 0.02 0
0.24 0.02 0
0.25 0.02 0
0.26 0.02 0
0.27 0.02 0
0.28 0.02 0
0.29 0.02 0
0.3 0.02 0
0.31 0.02 0
0.32 0.02 0
0.33 0.02 0
0.34 0.02 0
0.35 0.02 0
0.36 0.02 0
0.37 0.02 0
0.38 0.02 0
0.39 0.02 0
0.4 0.02 0
0.41 0.02 0
0.42 0.02 0
0.43 0.02 0
0.44 0.02 0
0.45 0.02 0
0.46 0.02 0
0.47 0.02 0
0.48 0.02 0
0.49 0.02 0
0.5 0.02 0
0.51 0.02 0
0.52 0.02 0
0.53 0.02 0
0.54 0.02 0
0.55 0.02 0
0.56 0.02 0
0.57 0.02 0
0.58 0.02 0
0.59 0.02 0
0.6 0.02 0
0.61 0.02 0
0 0.03 0
0.01 0.03 0
0.02 0.03 0
0.03 0.03 0
0.04 0.03 0
0.05 0.03 0
0.06 0.03 0
0.07 0.03 0
0.08 0.03 0
0.09 0.03 0
0.1 0.03 0
0.11 0.03 0
0.12 0.03 0
0.13 0.03 0
0.14 0.03 0
0.15 0.03 0
0.16 0.03 0
0.17 0.03 0
0.18 0.03 0
0.19 0.03 0
0.2 0.03 0
0.21 0.03 0
0.22 0.03 0
0.23 0.03 0
0.24 0.03 0
0.25 0.03 0
0.26 0.03 0
0.27 0.03 0
0.28 0.03 0
0.29 0.03 0
0.3 0.03 0
0.31 0.03 0
0.32 0.03 0
0.33 0.03 0
0.34 0.03 0
0.35 0.03 0
0.36 0.03 0
0.37 0.03 0
0.38 0.03 0
0.39 0.03 0
0.4 0.03 0
0.41 0.03 0
0.42 0.03 0
0.43 0.03 0
0.44 0.03 0
0.45 0.03 0
0.46 0.03 0
0.47 0.03 0
0.48 0.03 0
0.49 0.03 0
0.5 0.03 0
0.51 0.03 0
0.52 0.03 0
0.53 0.03 0
0.54 0.03 0
0.55 0.03 0
0.56 0.03 0
0.57 0.03 0
0.58 0.03 0
0.59 0.03 0
0.6 0.03 0
0.61 0.03 0
0 0.04 0
0.01 0.04 0
0.02 0.04 0
0.03 0.04 0
0.04 0.04 0
0.05 0.04 0
0.06 0.04 0
0.07 0.04 0
0.08 0.04 0
0.09 0.04 0
0.1 0.04 0
0.11 0.04 0
0.12 0.04 0
0.13 0.04 0
0.14 0.04 0
0.15 0.04 0
0.16 0.04 0
0.17 0.04 0
0.18 0.04 0
0.19 0.04 0
0.2 0.04 0
0.21 0.04 0
0.22 0.04 0
0.23 0.04 0
0.24 0.04 0
0.25 0.04 0
0.26 0.04 0
0.27 0.04 0
0.28 0.04 0
0.29 0.04 0
0.3 0.04 0
0.31 0.04 0
0.32 0.04 0
0.33 0.04 0
0.34 0.04 0
0.35 0.04 0
0.36 0.04 0
0.37 0.04 0
0.38 0.04 0
0.39 0.04 0
0.4 0.04 0
0.41 0.04 0
0.42 0.04 0
0.43 0.04 0
0.44 0.04 0
0.45 0.04 0
0.46 0.04 0
0.47 0.04 0
0.48 0.04 0
0.49 0.04 0
0.5 0.04 0
0.51 0.04 0
0.52 0.04 0
0.53 0.04 0
0.54 0.04 0
0.55 0.04 0
0.56 0.04 0
0.57 0.04 0
0.58 0.04 0
0.59 0.04 0
0.6 0.04 0
0.61 0.04 0
0 0.05 0
0.01 0.05 0
0.02 0.05 0
0.03 0.05 0
0.04 0.05 0
0.05 0.05 0
0.06 0.05 0
0.07 0.05 0
0.08 0.05 0
0.09 0.05 0
0.1 0.05 0
0.11 0.05 0
0.12 0.05 0
0.13 0.05 0
0.14 0.05 0
0.15 0.05 0
0.16 0.05 0
0.17 0.05 0
0.18 0.05 0
0.19 0.05 0
0.2 0.05 0
0.21 0.05 0
0.22 0.05 0
0.23 0.05 0
0.24 0.05 0
0.25 0.05 0
0.26 0.05 0
0.27 0.05 0
0.28 0.05 0
0.29 0.05 0
0.3 0.05 0
0.31 0.05 0
0.32 0.05 0
0.33 0.05 0
0.34 0.05 0
0.35 0.05 0
0.36 0.05 0
0.37 0.05 0
0.38 0.05 0
0.39 0.05 0
0.4 0.05 0
0.41 0.05 0
0.42 0.05 0
0.43 0.05 0
0.44 0.05 0
0.45 0.05 0
0.46 0.05 0
0.47 0.05 0
0.48 0.05 0
0.49 0.05 0
0.5 0.05 0
0.51 0.05 0
0.52 0.05 0
0.53 0.05 0
0.54 0.05 0
0.55 0.05 0
0.56 0.05 0
0.57 0.05 0
0.58 0.05 0
0.59 0.05 0
0.6 0.05 0
0.61 0.05 0
0 0.06 0
0.01 0.06 0
0.02 0.06 0
0.03 0.06 0
0.04 0.06 0
0.05 0.06 0
0.06 0.06 0
0.07 0.06 0
0.08 0.06 0
0.09 0.06 0
0.1 0.06 0
0.11 0.06 0
0.12 0.06 0
0.13 0.06 0
0.14 0.06 0
0.15 0.06 0
0.16 0.06 0
0.17 0.06 0
0.18 0.06 0
0.19 0.06 0
0.2 0.06 0
0.21 0.06 0
0.22 0.06 0
0.23 0.06 0
0.24 0.06 0
0.25 0.06 0
0.26 0.06 0
0.27 0.06 0
0.28 0.06 0
0.29 0.06 0
0.3 0.06 0
0.31 0.06 0
0.32 0.06 0
0.33 0.06 0
0.34 0.06 0
0.35 0.06 0
0.36 0.06 0
0.37 0.06 0
0.38 0.06 0
0.39 0.06 0
0.4 0.06 0
0.41 0.06 0
0.42 0.06 0
0.43 0.06 0
0.44 0.06 0
0.45 0.06 0
0.46 0.06 0
0.47 0.06 0
0.48 0.06 0
0.49 0.06 0
0.5 0.06 0
0.51 0.06 0
0.52 0.06 0
0.53 0.06 0
0.54 0.06 0
0.55 0.06 0
0.56 0.06 0
0.57 0.06 0
0.58 0.06 0
0.59 0.06 0
0.6 0.06 0
0.61 0.06 0
0 0.07 0
0.01 0.07 0
0.02 0.07 0
0.03 0.07 0
0.04 0.07 0
0.05 0.07 0
0.06 0.07 0
0.07 0.07 0
0.08 0.07 0
0.09 0.07 0
0.1 0.07 0
0.11 0.07 0
0.12 0.07 0
0.13 0.07 0
0.14 0.07 0
0.15 0.07 0
0.16 0.07 0
0.17 0.07 0
0.18 0.07 0
0.19 0.07 0
0.2 0.07 0
0.21 0.07 0
0.22 0.07 0
0.23 0.07 0
0.24 0.07 0
0.25 0.07 0
0.26 0.07 0
0.27 0.07 0
0.28 0.07 0
0.29 0.07 0
0.3 0.07 0
0.31 0.07 0
0.32 0.07 0
0.33 0.07 0
0.34 0.07 0
0.35 0.07 0
0.36 0.07 0
0.37 0.07 0
0.38 0.07 0
0.39 0.07 0
0.4 0.07 0
0.41 0.07 0
0.42 0.07 0
0.43 0.07 0
0.44 0.07 0
0.45 0.07 0
0.46 0.07 0
0.47 0.07 0
0.48 0.07 0
0.49 0.07 0
0.5 0.07 0
0.51 0.07 0
0.52 0.07 0
0.53 0.07 0
0.54 0.07 0
0.55 0.07 0
0.56 0.07 0
0.57 0.07 0
0.58 0.07 0
0.59 0.07 0
0.6 0.07 0
0.61 0.07 0
0 0.08 0
0.01 0.08 0
0.02 0.08 0
0.03 0.08 0
0.04 0.08 0
0.05 0.08 0
0.06 0.08 0
0.07 0.08 0
0.08 0.08 0
0.09 0.08 0
0.1 0.08 0
0.11 0.08 0
0.12 0.08 0
0.13 0.08 0
0.14 0.08 0
0.15 0.08 0
0.16 0.08 0
0.17 0.08 0
0.18 0.08 0
0.19 0.08 0
0.2 0.08 0
0.21 0.08 0
0.22 0.08 0
0.23 0.08 0
0.24 0.08 0
0.25 0.08 0
0.26 0.08 0
0.27 0.08 0
0.28 0.08 0
0.29 0.08 0
0.3 0.08 0
0.31 0.08 0
0.32 0.08 0
0.33 0.08 0
0.34 0.08 0
0.35 0.08 0
0.36 0.08 0
0.37 0.08 0
0.38 0.08 0
0.39 0.08 0
0.4 0.08 0
0.41 0.08 0
0.42 0.08 0
0.43 0.08 0
0.44 0.08 0
0.45 0.08 0
0.46 0.08 0
0.47 0.08 0
0.48 0.08 0
0.49 0.08 0
0.5 0.08 0
0.51 0.08 0
0.52 0.08 0
0.53 0.08 0
0.54 0.08 0
0.55 0.08 0
0.56 0.08 0
0.57 0.08 0
0.58 0.08 0
0.59 0.08 0
0.6 0.08 0
0.61 0.08 0
0 0.09 0
0.01 0.09 0
0.02 0.09 0
0.03 0.09 0
0.04 0.09 0
0.05 0.09 0
0.06 0.09 0
0.07 0.09 0
0.08 0.09 0
0.09 0.09 0
0.1 0.09 0
0.11 0.09 0
0.12 0.09 0
0.13 0.09 0
0.14 0.09 0
0.15 0.09 0
0.16 0.09 0
0.17 0.09 0
0.18 0.09 0
0.19 0.09 0
0.2 0.09 0
0.21 0.09 0
0.22 0.09 0
0.23 0.09 0
0.24 0.09 0
0.25 0.09 0
0.26 0.09 0
0.27 0.09 0
0.28 0.09 0
0.29 0.09 0
0.3 0.09 0
0.31 0.09 0
0.32 0.09 0
0.33 0.09 0
0.34 0.09 0
0.35 0.09 0
0.36 0.09 0
0.37 0.09 0
0.38 0.09 0
0.39 0.09 0
0.4 0.09 0
0.41 0.09 0
0.42 0.09 0
0.43 0.09 0
0.44 0.09 0
0.45 0.09 0
0.46 0.09 0
0.47 0.09 0
0.48 0.09 0
0.49 0.09 0
0.5 0.09 0
0.51 0.09 0
0.52 0.09 0
0.53 0.09 0
0.54 0.09 0
0.55 0.09 0
0.56 0.09 0
0.57 0.09 0
0.58 0.09 0
0.59 0.09 0
0.6 0.09 0
0.61 0.09 0
0 0.1 0
0.01 0.1 0
0.02 0.1 0
0.03 0.1 0
0.04 0.1 0
0.05 0.1 0
0.06 0.1 0
0.07 0.1 0
0.08 0.1 0
0.09 0.1 0
0.1 0.1 0
0.11 0.1 0
0.12 0.1 0
0.13 0.1 0
0.14 0.1 0
0.15 0.1 0
0.16 0.1 0
0.17 0.1 0
0.18 0.1 0
0.19 0.1 0
0.2 0.1 0
0.21 0.1 0
0.22 0.1 0
0.23 0.1 0
0.24 0.1 0
0.25 0.1 0
0.26 0.1 0
0.27 0.1 0
0.28 0.1 0
0.29 0.1 0
0.3 0.1 0
0.31 0.1 0
0.32 0.1 0
0.33 0.1 0
0.34 0.1 0
0.35 0.1 0
0.36 0.1 0
0.37 0.1 0
0.38 0.1 0
0.39 0.1 0
0.4 0.1 0
0.41 0.1 0
0.42 0.1 0
0.43 0.1 0
0.44 0.1 0
0.45 0.1 0
0.46 0.1 0
0.47 0.1 0
0.48 0.1 0
0.49 0.1 0
0.5 0.1 0
0.51 0.1 0
0.52 0.1 0
0.53 0.1 0
0.54 0.1 0
0.55 0.1 0
0.56 0.1 0
0.57 0.1 0
0.58 0.1 0
0.59 0.1 0
0.6 0.1 0
0.61 0.1 0
0 0.11 0
0.01 0.11 0
0.02 0.11 0
0.03 0.11 0
0.04 0.11 0
0.05 0.11 0
0.06 0.11 0
0.07 0.11 0
0.08 0.11 0
0.09 0.11 0
0.1 0.11 0
0.11 0.11 0
0.12 0.11 0
0.13 0.11 0
0.14 0.11 0
0.15 0.11 0
0.16 0.11 0
0.17 0.11 0
0.18 0.11 0
0.19 0.11 0
0.2 0.11 0
0.21 0.11 0
0.22 0.11 0
0.23 0.11 0
0.24 0.11 0
0.25 0.11 0
0.26 0.11 0
0.27 0.11 0
0.28 0.11 0
0.29 0.11 0
0.3 0.11 0
0.31 0.11 0
0.32 0.11 0
0.33 0.11 0
0.34 0.11 0
0.35 0.11 0
0.36 0.11 0
0.37 0.11 0
0.38 0.11 0
0.39 0.11 0
0.4 0.11 0
0.41 0.11 0
0.42 0.11 0
0.43 0.11 0
0.44 0.11 0
0.45 0.11 0
0.46 0.11 0
0.47 0.11 0
0.48 0.11 0
0.49 0.11 0
0.5 0.11 0
0.51 0.11 0
0.52 0.11 0
0.53 0.11 0
0.54 0.11 0
0.55 0.11 0
0.56 0.11 0
0.57 0.11 0
0.58 0.11 0
0.59 0.11 0
0.6 0.11 0
0.61 0.11 0
0 0.12 0
0.01 0.12 0
0.02 0.12 0
0.03 0.12 0
0.04 0.12 0
0.05 0.12 0
0.06 0.12 0
0.07 0.12 0
0.08 0.12 0
0.09 0.12 0
0.1 0.12 0
0.11 0.12 0
0.12 0.12 0
0.13 0.12 0
0.14 0.12 0
0.15 0.12 0
0.16 0.12 0
0.17 0.12 0
0.18 0.12 0
0.19 0.12 0
0.2 0.12 0
0.21 0.12 0
0.22 0.12 0
0.23 0.12 0
0.24 0.12 0
0.25 0.12 0
0.26 0.12 0
0.27 0.12 0
0.28 0.12 0
0.29 0.12 0
0.3 0.12 0
0.31 0.12 0
0.32 0.12 0
0.33 0.12 0
0.34 0.12 0
0.35 0.12 0
0.36 0.12 0
0.37 0.12 0
0.38 0.12 0
0.39 0.12 0
0.4 0.12 0
0.41 0.12 0
0.42 0.12 0
0.43 0.12 0
0.44 0.12 0
0.45 0.12 0
0.46 0.12 0
0.47 0.12 0
0.48 0.12 0
0.49 0.12 0
0.5 0.12 0
0.51 0.12 0
0.52 0.12 0
0.53 0.12 0
0.54 0.12 0
0.55 0.12 0
0.56 0.12 0
0.57 0.12 0
0.58 0.12 0
0.59 0.12 0
0.6 0.12 0
0.61 0.12 0
0 0.13 0
0.01 0.13 0
0.02 0.13 0
0.03 0.13 0
0.04 0.13 0
0.05 0.13 0
0.06 0.13 0
0.07 0.13 0
0.08 0.13 0
0.09 0.13 0
0.1 0.13 0
0.11 0.13 0
0.12 0.13 0
0.13 0.13 0
0.14 0.13 0
0.15 0.13 0
0.16 0.13 0
0.17 0.13 0
0.18 0.13 0
0.19 0.13 0
0.2 0.13 0
0.21 0.13 0
0.22 0.13 0
0.23 0.13 0
0.24 0.13 0
0.25 0.13 0
0.26 0.13 0
0.27 0.13 0
0.28 0.13 0
0.29 0.13 0
0.3 0.13 0
0.31 0.13 0
0.32 0.13 0
0.33 0.13 0
0.34 0.13 0
0.35 0.13 0
0.36 0.13 0
0.37 0.13 0
0.38 0.13 0
0.39 0.13 0
0.4 0.13 0
0.41 0.13 0
0.42 0.13 0
0.43 0.13 0
0.44 0.13 0
0.45 0.13 0
0.46 0.13 0
0.47 0.13 0
0.48 0.13 0
[...]
POINT_DATA 93248

SCALARS v double
LOOKUP_TABLE default
0
0
0
0
0
0
0
0
0
0
0
0
0
0
0
0
0
0
0
0
0
0
0
0
0
0
0
0
0
0
0
0
0
0
0
0
0
0
-0.0308465
0
0
0
0
0
-0.0324611
0
0
0
0
0
0
0
0
0
0
0
0
0
0
0
0
0
0
0.0465547
-0.052106
0.0508293
0.0370814
0.0192211
0
-0.00973803
-0.0153189
-0.0173975
-0.0181827
-0.0184109
-0.0190478
-0.0189557
-0.018958
-0.0189134
-0.0190161
-0.0189014
-0.0187876
-0.0181108
-0.0206618
-0.0198194
-0.01935
-0.0192515
-0.019287
-0.019331
-0.0193598
-0.0193754
-0.0193808
-0.0193759
-0.01936
-0.0193628
-0.019595
-0.0193316
-0.0190554
-0.0190928
-0.025878
-0.0196292
-0.0217062
-0.0144881
-0.0196589
-0.0247428
-0.0206067
-0.0203397
-0.0204764
-0.0223111
-0.0459078
-0.0198154
-0.0231967
-0.0192531
-0.0191781
-0.019312
-0.0200021
-0.0204488
-0.0267588
-0.0198831
-0.0333549
-0.0194171
-0.0183376
-0.0165432
-0.0132917
0
0
0.0278458
0.0538692
0.06164
0.0547885
0.0365933
0.0166708
2.1437e-05
-0.010014
-0.0150138
-0.0175688
-0.0185387
-0.0428775
-0.0205909
-0.0209609
-0.0171706
-0.0214328
-0.0211695
-0.0217768
-0.0229405
-0.0486085
-0.0216942
-0.0218549
-0.0220627
-0.0222335
-0.0223456
-0.0224192
-0.0224647
-0.0224882
-0.0224878
-0.0224498
-0.0223655
-0.0356383
-0.0224793
-0.0218005
-0.0218838
-0.0209409
-0.0186024
-0.0146771
-0.0253733
-0.0274362
-0.0267275
-0.0252578
-0.0245012
-0.0239971
-0.0238547
-0.0244579
-0.0234527
-0.0231967
-0.0223767
-0.0223263
-0.0221783
-0.0228934
-0.023246
-0.0236065
-0.0226994
-0.022267
-0.0378538
-0.020594
-0.018727
-0.0160063
0
0
0.0145623
0.0372533
0.0490806
0.0502626
0.0405737
0.023386
0.00775655
-0.00303534
-0.00950607
-0.0132307
-0.015964
-0.0181565
-0.019164
-0.0199249
-0.0205273
-0.0212183
0
-0.0214133
-0.022229
-0.0223411
-0.0220908
-0.0221372
-0.0223052
-0.0224684
-0.0226035
-0.0227062
-0.0227803
-0.0228282
-0.0228518
-0.0228549
-0.0228714
-0.0230825
-0.0227258
-0.0227811
-0.0217243
-0.020935
-0.0196056
-0.0186785
-0.0240176
-0.0264828
-0.0266171
-0.0259198
-0.0249995
-0.0247538
-0.0248291
-0.0233344
-0.0231185
-0.0228988
-0.0233845
-0.0231583
-0.02303
-0.0231699
-0.0232352
-0.0231607
-0.0227398
-0.022365
-0.0221031
-0.0208758
-0.0193976
-0.0175379
0
0
0.00817258
0.0239095
0.0359859
0.039964
0.0351935
0.0236564
0.0111677
0.00137661
-0.00529149
-0.00975117
-0.0130327
-0.0154834
-0.0171522
-0.0184282
-0.0195382
-0.0199841
-0.0199886
-0.0206665
-0.0212696
-0.0216244
-0.0217868
-0.0219531
-0.0221353
-0.0223119
-0.0224676
-0.0225973
-0.0226983
-0.0227708
-0.0228168
-0.022843
-0.02287
-0.0229444
-0.0229909
-0.0227584
-0.0221209
-0.0215713
-0.0211035
-0.0213142
-0.023441
-0.0249669
-0.025409
-0.0252369
-0.0248608
-0.0246549
-0.0243637
-0.0228917
-0.0231413
-0.0232127
-0.0233728
-0.0232838
-0.0231806
-0.0231132
-0.0229892
-0.0227825
-0.0224637
-0.0221008
-0.0216614
-0.0208548
-0.01977
-0.0187971
0
0
0.00491353
0.0154375
0.0246112
0.0297618
0.0282554
0.0208002
0.0112002
0.00298089
-0.00311056
-0.00758069
-0.0109897
-0.0136134
-0.01557
-0.0169942
-0.0179256
-0.0191679
-0.0196015
-0.0202273
-0.0207234
-0.0211865
-0.0215371
-0.021818
-0.0220608
-0.0222755
-0.022463
-0.0226237
-0.0227526
-0.0228481
-0.0229106
-0.0229429
-0.0229556
-0.0230113
-0.0235678
-0.02307
-0.0226083
-0.0223277
-0.0222513
-0.022586
-0.0235129
-0.0243259
-0.0247206
-0.024782
-0.0246964
-0.0246325
-0.0244773
0
-0.0234947
-0.0236321
-0.0236044
-0.0235166
-0.0234107
-0.0232483
-0.0229732
-0.0226856
-0.0223921
-0.0220695
-0.021679
-0.0211062
-0.020029
-0.0199883
-0.035035
0
0.00298612
0.0100774
0.0169172
0.0217139
0.0216384
0.0167466
0.00923157
0
-0.00260325
-0.00666339
-0.00993893
-0.0125555
-0.014641
-0.0162772
-0.0176502
-0.019065
-0.0192332
-0.019616
-0.0203636
-0.0209895
-0.0214724
-0.0218418
-0.0221421
-0.0223993
-0.0226216
-0.0228185
-0.0229768
-0.0230948
-0.02317
-0.0231995
-0.0231721
-0.023055
-0.0488968
-0.0234307
-0.0231274
-0.0230316
-0.0231066
-0.0233787
-0.0238435
-0.0242859
-0.024565
-0.0246697
-0.0246655
-0.0245756
-0.0243028
-0.023412
-0.0237564
-0.0239039
-0.0239216
-0.0239008
-0.0238481
-0.0236436
-0.023137
-0.0227608
-0.0225079
-0.0222708
-0.0220755
-0.0222351
-0.0224829
-0.020304
0
0
0.00170892
0.00648581
0.0115131
0.0154593
0.0157164
0.011801
0.00664723
0.00141114
-0.00306107
-0.00671867
-0.00972287
-0.0121827
-0.0142608
-0.0159303
-0.017477
-0.0196614
-0.0189613
-0.0194454
-0.0203431
-0.0210538
-0.0216178
-0.0220278
-0.0223642
-0.0226574
-0.022913
-0.0231516
-0.0233403
-0.0234828
-0.0235729
-0.023616
-0.0236794
-0.0238016
-0.0243884
-0.0240419
-0.0238306
-0.0237857
-0.0238573
-0.0240405
-0.0243018
-0.0245582
-0.0247428
-0.0248342
-0.0248276
-0.0247495
-0.0245633
-0.0242513
-0.0242656
-0.0243141
-0.0243557
-0.0244308
-0.0245298
-0.0243776
-0.0233387
-0.0228664
-0.0227247
-0.022571
-0.02233
-0.0362328
-0.0197097
-0.020101
0
0
0.000794755
0.00391351
0.00749719
0.0105026
0.0106799
0.00765104
0.00341989
-0.000750158
-0.00437931
-0.00748304
-0.0101077
-0.0122622
-0.01557
-0.0158023
-0.0168258
-0.0168056
-0.019373
-0.0205167
-0.021007
-0.021476
-0.0220011
-0.0223611
-0.0227007
-0.0230293
-0.0231516
-0.0235898
-0.0238145
-0.0239931
-0.0240967
-0.0241137
-0.0242322
-0.0243821
-0.0245978
-0.0245599
-0.0245043
-0.0245089
-0.0245614
-0.02468
-0.0248414
-0.0249998
-0.025118
-0.0251776
-0.0251728
-0.025112
-0.0249974
-0.0248577
-0.0248036
-0.0247965
-0.0248414
-0.0250102
-0.0253776
-0.0256304
-0.0233688
-0.0229745
-0.0231053
-0.0231552
-0.023083
-0.023011
-0.0218109
-0.0206692
0
0
0.000101634
0.0019571
0.00435648
0.00643653
0.00632473
0.00371909
0.000161485
-0.003199
-0.00612751
-0.00872077
-0.0110412
-0.0131336
-0.0147575
-0.0161298
-0.0171706
-0.0179381
-0.0195067
-0.0205889
-0.0212793
-0.0218054
-0.0266334
-0.0227546
-0.0231194
-0.0234798
-0.0238484
-0.0241322
-0.0244087
-0.0246429
-0.0247817
-0.0247178
-0.0247823
-0.0249182
-0.0250778
-0.0251435
-0.02517
-0.0252211
-0.0252537
-0.0253344
-0.0254456
-0.0255503
-0.0256243
-0.0256566
-0.025644
-0.0255921
-0.0255097
-0.0254156
-0.0253401
-0.0252844
-0.0252639
-0.0253502
-0.0257024
-0.0262038
-0.0231464
-0.0235685
-0.0239062
-0.0239638
-0.0238687
-0.0236367
-0.0228532
-0.0213993
0
0
-0.000449061
0.000397161
0.00180796
0.00296396
0.00250268
7.86274e-05
-0.0029788
-0.00572578
-0.00809399
-0.0102365
-0.0122049
-0.0139835
-0.0155062
-0.0167933
-0.0177539
-0.0187581
-0.0199228
-0.0209078
-0.0216769
-0.0223418
-0.0228275
-0.023242
-0.0236351
-0.0240117
-0.0243477
-0.0247384
-0.0251031
-0.0254501
-0.0257592
-0.0259377
-0.0249014
-0.0252907
-0.025617
-0.0257691
-0.0258346
-0.025878
-0.0260041
-0.0260376
-0.0261195
-0.0261879
-0.0262281
-0.0262357
-0.0262074
-0.0261521
-0.0260768
-0.025989
-0.0258926
-0.025775
-0.0255974
-0.0252547
-0.0244995
-0.0233483
-0.0268684
-0.0262243
-0.0254835
-0.0250305
-0.024735
-0.0244093
-0.0236785
-0.0221363
0
0
-0.000906037
-0.000895885
-0.000286163
-0.00545195
-0.000866056
-0.00324293
-0.00595281
-0.00824273
-0.010168
-0.0119363
-0.0135959
-0.0151337
-0.0165238
-0.0177426
-0.0183017
-0.0194394
-0.0205381
-0.0214663
-0.0222147
-0.0227728
-0.0234267
-0.0238646
-0.0242521
-0.0246276
-0.0250087
-0.0254265
-0.0258807
-0.0263653
-0.0268433
-0.0271136
0
-0.026101
-0.026406
-0.0265067
-0.0265514
-0.0265981
-0.0266705
-0.0268052
-0.0268702
-0.026905
-0.0269122
-0.0268971
-0.0268412
-0.0267717
-0.0266919
-0.026601
-0.0264924
-0.0263466
-0.0261261
-0.0257832
-0.0252683
-0.0250081
-0.0266875
-0.0267588
-0.0262983
-0.02587
-0.0255425
-0.0251879
-0.0244458
-0.0228505
0
0
-0.00130571
-0.00203624
-0.00224318
-0.00253566
-0.00385674
-0.00630447
-0.00877915
-0.0107149
-0.0122866
-0.013751
-0.0151395
-0.0164674
-0.0177405
-0.0190426
0
-0.0202926
-0.0213484
-0.022221
-0.0229499
-0.0235164
-0.0240424
-0.0244813
-0.0248769
-0.0252633
-0.0256693
-0.0261354
-0.0267056
-0.0273874
-0.0280848
-0.0278311
-0.026792
-0.0269199
-0.027072
-0.0271655
-0.0272414
-0.0273294
-0.0274397
-0.0275755
-0.027662
-0.0276845
-0.027662
-0.0276463
-0.0275269
-0.0274352
-0.0273477
-0.027256
-0.0271494
-0.0270068
-0.0267989
-0.0266017
-0.0263829
-0.0263726
-0.0269254
-0.0270432
-0.0268427
-0.0265637
-0.0262813
-0.0259367
-0.0251787
-0.0235357
0
0
-0.00166006
-0.00303904
-0.00393238
-0.00474537
-0.00655624
-0.00912392
-0.0114454
-0.0131139
-0.014397
-0.0164979
-0.0167651
-0.0178878
-0.0189544
-0.0199156
-0.0203293
-0.0213021
-0.0222136
-0.0230218
-0.0238146
-0.024331
-0.0247606
-0.0251546
-0.0255336
-0.0259101
-0.026313
-0.0268064
-0.0275193
-0.0286027
-0.0305227
-0.0291291
-0.0281119
-0.027806
-0.027771
-0.0278279
-0.0279294
-0.0280699
-0.0282356
-0.0284334
-0.0285583
-0.0285531
-0.0284559
-0.0282845
-0.0282172
-0.0281239
-0.0280335
-0.0279476
-0.0278574
-0.0277339
-0.027488
-0.0274627
-0.0273873
-0.0273751
-0.0274919
-0.0275408
-0.0274393
-0.0272499
-0.0269782
-0.0266646
-0.0258841
-0.0241879
0
0
-0.00198
-0.00393399
-0.00545195
-0.00692232
-0.00908429
-0.0117671
-0.0139784
-0.0154368
-0.0164979
-0.0174829
-0.0184427
-0.0193882
-0.0202887
-0.0211006
-0.0217464
-0.0224825
-0.0232026
-0.0238875
-0.0249386
-0.025248
-0.0255401
-0.0258762
-0.0262206
-0.0265611
-0.0269079
-0.0273287
-0.0280593
-0.0229106
-0.0374417
-0.0303078
-0.0287163
-0.0283653
-0.0283517
-0.0284499
-0.0286048
-0.0288218
-0.0291185
-0.029423
-0.0296429
-0.0295641
-0.0293529
-0.0291292
-0.0289641
-0.0288372
-0.0287385
-0.0286619
-0.0286008
-0.0285379
-0.0233728
-0.028357
-0.0283068
-0.0282446
-0.0281326
-0.0282114
-0.0281428
-0.0280123
-0.0278235
-0.0274128
-0.0265704
-0.0248007
0
0
-0.00227891
-0.00472719
-0.00681862
-0.00882035
-0.0114172
-0.0142531
-0.0163881
-0.0176764
-0.0185511
-0.0193466
-0.0201473
-0.0209491
-0.0217218
-0.0224344
-0.0230695
-0.0236827
-0.0242414
-0.02466
-0.0454381
-0.0261233
-0.0263399
-0.0266334
-0.0269489
-0.0272299
-0.0274575
-0.0275805
-0.0273849
-0.0257712
-0.0172033
-0.0256215
-0.0277356
-0.0284136
-0.0287553
-0.0290108
-0.0292453
-0.0295468
-0.0299895
-0.0305892
-0.0311274
-0.0307794
-0.030312
-0.0299473
-0.0297052
-0.0295492
-0.0294428
-0.0293746
-0.0293193
-0.0292533
-0.0291138
-0.0292011
-0.0291741
-0.0291521
-0.029253
-0.0290568
-0.028921
-0.0288243
-0.028557
-0.0281487
-0.0272363
-0.0253587
0
0
-0.00259532
-0.00539928
-0.00806744
-0.010624
-0.0136234
-0.0166251
-0.0186786
-0.0198284
-0.0205562
-0.0212058
-0.0218695
-0.022553
-0.0232251
-0.0238501
-0.0244076
-0.0249281
-0.0254306
-0.0259473
-0.0268213
-0.0270416
-0.0272592
-0.0275132
-0.0277633
-0.0279756
-0.0281105
-0.0281009
-0.0277903
-0.0268556
-0.0251333
-0.0269683
-0.0281705
-0.0288511
-0.0292926
-0.0296216
-0.0298564
-0.0301948
-0.0308183
-0.0320131
-0.0337987
-0.0322513
-0.0312219
-0.0306752
-0.0303889
-0.0302336
-0.0301295
-0.0300878
-0.03005
-0.0300149
-0.0300132
-0.030158
-0.0300423
-0.0299728
-0.0299578
-0.0298682
-0.0296249
-0.0297423
-0.0293659
-0.0289566
-0.0279364
-0.0258249
0
0
-0.00301071
0.0019571
-0.0093103
-0.0123822
-0.0157427
-0.0188611
-0.0208142
-0.0218882
-0.0225283
-0.023068
-0.0236018
-0.0241896
-0.0247888
-0.0253396
-0.0257834
-0.0261923
-0.026617
-0.0270795
-0.0275966
-0.0279274
-0.0281902
-0.0284267
-0.0286368
-0.0288023
-0.0288972
-0.0288813
-0.0287014
-0.028368
-0.0281866
-0.0286326
-0.029149
-0.0295987
-0.029986
-0.0303151
-0.0303993
-0.0306481
-0.0312705
-0.0332629
-0.0411121
-0.0334704
-0.0316622
-0.0311359
-0.0309494
-0.0308732
-0.0301295
-0.0308059
-0.0307856
-0.030761
-0.0308254
-0.0313285
-0.0309046
-0.0307709
-0.0307713
-0.0308222
-0.0310956
-0.0309039
-0.0303116
-0.0300398
-0.0289353
-0.0260926
0
0
-0.00311796
-0.00687011
-0.0105337
-0.014118
-0.0177505
-0.0207434
-0.0229151
-0.0239683
-0.0245234
-0.0249565
-0.0253076
-0.0258361
-0.0264167
-0.0269323
-0.0271922
-0.0274477
-0.0277835
-0.0281907
-0.0285891
-0.0289064
-0.0291633
-0.0293793
-0.0295595
-0.0296982
-0.0297834
-0.0297997
-0.0297365
-0.029641
-0.0301427
-0.0300611
-0.0301814
-0.0304359
-0.0307287
-0.0310575
-0.0308545
-0.0308631
-0.0305578
-0.0287911
-0.0194007
-0.0284697
-0.0305661
-0.0311649
-0.0313725
-0.0314583
-0.0314882
-0.0315261
-0.0315271
-0.0314785
-0.0314467
-0.0509911
-0.0316038
-0.0315326
-0.031578
-0.0316033
-0.0315794
-0.0314151
-0.0318865
-0.0317861
-0.0315044
-0.0306706
0
0
-0.00332726
-0.0076559
-0.0117411
-0.0159868
-0.0198898
-0.0225376
-0.0247648
-0.0258727
-0.0264147
-0.0268092
-0.026803
-0.027424
-0.02811
-0.0286873
-0.0285681
-0.0286586
-0.0289359
-0.029364
-0.0296979
-0.0299675
-0.0301881
-0.0303732
-0.0305253
-0.030645
-0.0307309
-0.0307829
-0.0307857
-0.0305753
-0.0528339
-0.0311441
-0.0311255
-0.0312546
-0.0313816
-0.0313591
-0.0317349
-0.0315804
-0.0310574
-0.0298806
-0.0278484
-0.0296983
-0.0309875
-0.0316099
-0.031926
-0.0320966
-0.0321978
-0.0322847
-0.0323338
-0.0323574
-0.0324487
-0.0328967
-0.0325404
-0.0324592
-0.0324767
-0.0324829
-0.0324507
-0.0324728
-0.0327713
-0.0328409
-0.0324678
-0.0309447
0
0
-0.00356819
-0.00835722
-0.0127552
-0.0295496
-0.0221823
0
-0.0267187
-0.0278093
-0.0283025
-0.0287387
-0.00993893
-0.0290241
-0.0298425
-0.0305341
-0.0297399
-0.0298671
-0.0301885
-0.0307664
-0.0309539
-0.0311074
-0.0312635
-0.0314039
-0.0315243
-0.0316231
-0.0317079
-0.0318278
-0.0321361
-0.0318978
-0.0323871
-0.0321948
-0.0321408
-0.032203
-0.0322839
-0.0323274
-0.0324526
-0.0323383
-0.0319829
-0.0314249
-0.0309343
-0.0313671
-0.031937
-0.0323573
-0.0326274
-0.0328043
-0.0329289
-0.0330801
-0.0331701
-0.0332163
-0.0332703
-0.0333703
-0.0333027
-0.0333556
-0.0334068
-0.0334186
-0.0333549
-0.0334136
-0.0335919
-0.033645
-0.0331562
-0.0314204
0
0
-0.00382473
-0.00908686
-0.0140675
-0.0191173
-0.0236216
-0.026626
-0.0287997
-0.0297039
-0.0299775
-0.0300762
-0.0299984
-0.0304823
-0.0311512
-0.0306195
-0.0316565
-0.0318293
-0.031826
-0.0430385
-0.0323116
-0.0323168
-0.0323808
-0.0324691
-0.032546
-0.0326132
-0.0326546
-0.0326194
-0.03229
-0.0327446
-0.0330041
-0.0330512
-0.0330819
-0.0331552
-0.0332643
-0.0333766
-0.0333663
-0.0332475
-0.0330133
-0.0327481
-0.0325991
-0.0327345
-0.0329953
-0.0332451
-0.0334128
-0.0335715
-0.0336746
-0.0339225
-0.0340304
-0.034068
-0.0340768
-0.0340487
-0.0340209
-0.0342425
-0.0343444
-0.0343836
-0.0341871
-0.0342541
-0.0343888
-0.0343923
-0.0338267
-0.0319927
0
0
-0.00407639
-0.00978369
-0.0152135
-0.0204243
-0.0252708
-0.0288951
-0.0309366
-0.0316425
-0.031631
-0.0312944
-0.0316614
-0.0317896
-0.03131
-0.0526653
-0.0333611
-0.0334204
-0.0334375
-0.0336783
-0.0335916
-0.0335403
-0.0335436
-0.0335671
-0.0335832
-0.0336228
-0.0336532
-0.0336455
-0.0335965
-0.0337088
-0.0338569
-0.0339305
-0.0339892
-0.0340863
-0.0342749
-0.0346086
-0.0344062
-0.0342631
-0.0340393
-0.033881
-0.0338216
-0.0338842
-0.0340248
-0.0341914
-0.034373
-0.0344375
-0.0344628
-0.0348116
-0.0348753
-0.0349133
-0.0349221
-0.0348122
-0.0347087
-0.0351052
-0.0351875
-0.0353185
-0.0349501
-0.0350951
-0.0351982
-0.0351259
-0.0345204
-0.0326271
0
0
-0.00432162
-0.0104603
-0.0163149
-0.0218691
-0.0270459
-0.0309566
-0.0329856
-0.0336464
-0.0333482
-0.0314795
-0.0333855
-0.0337082
-0.0336799
-0.0345145
-0.0346934
-0.0347482
-0.0347578
-0.0347965
-0.0347578
-0.0347187
-0.0346979
-0.0346764
-0.0345922
-0.0346329
-0.0346763
-0.0346835
-0.0346682
-0.0346583
-0.0347803
-0.0348213
-0.0348605
-0.0349497
-0.0352418
-0.0366117
-0.035442
-0.03539
-0.0349818
-0.034876
-0.0348581
-0.0349067
-0.034999
-0.0351182
-0.0352681
-0.0354344
-0.0356375
-0.0354437
-0.0355609
-0.0357198
-0.0358435
-0.0357145
-0.0357304
-0.035569
-0.0356407
-0.0356328
-0.0361869
-0.0361578
-0.0360707
-0.0358051
-0.0352371
-0.0333129
0
0
-0.00456381
-0.0111327
-0.0174169
-0.0233681
-0.028873
-0.0329744
-0.0348818
-0.0359217
-0.0364632
-0.0387614
-0.0365106
-0.0359437
-0.0358402
-0.0360084
-0.0360679
-0.0360582
-0.035997
-0.0359777
-0.0359326
-0.0358895
-0.0358599
-0.0358176
-0.0354878
-0.0356319
-0.0357241
-0.0357266
-0.0357065
-0.0356803
-0.0356349
-0.0356609
-0.0356641
-0.0356383
-0.0354023
-0.0338195
-0.0351916
-0.0351751
-0.0356253
-0.0357338
-0.0357939
-0.0358549
-0.0359245
-0.0360007
-0.0361353
-0.0362865
-0.0364108
-0.0363628
-0.0364271
-0.0365779
-0.0367891
-0.0364554
-0.0361822
-0.0365849
-0.0365802
-0.0366294
-0.0369205
-0.0369942
-0.0368861
-0.0362328
-0.0359884
-0.0340495
0
0
-0.0048049
-0.0118078
-0.0185284
-0.0248944
-0.0307459
-0.0351323
-0.0377022
-0.0381271
-0.0383571
-0.0387381
-0.038181
-0.0378436
-0.0376662
-0.0375865
-0.0375032
-0.0374101
-0.0373349
-0.0372156
-0.0371257
-0.0370612
-0.0370328
-0.0370687
-0.0234798
-0.0367303
-0.0368177
-0.0367674
-0.0366956
-0.0346583
-0.0365659
-0.0365596
-0.0364884
-0.0364753
-0.0363189
-0.0359766
-0.0362162
-0.0363343
-0.0365144
-0.0366275
-0.0367077
-0.0367759
-0.0368223
-0.036812
-0.0369707
-0.0371196
-0.0372164
-0.0372399
-0.037268
-0.0372836
-0.0372647
-0.0377484
-0.0200021
-0.0428735
-0.0375899
-0.0375966
-0.0377331
-0.0378503
-0.0378538
-0.0165432
-0.0369194
-0.0348188
0
0
-0.00504476
-0.0124866
-0.0196477
-0.0264281
-0.0325993
-0.0371344
-0.039453
-0.0399283
-0.0400006
-0.0399761
-0.0397656
-0.0395369
-0.0393278
-0.0391407
-0.038963
-0.0387873
-0.0386042
-0.0384317
-0.0383037
-0.0382069
-0.0381261
-0.0380076
-0.0376752
-0.037832
-0.0379022
-0.0377268
-0.0375729
-0.0374642
-0.0374664
-0.0374831
-0.0375339
-0.0374281
-0.0373303
-0.0372369
-0.0372828
-0.0373574
-0.0374536
-0.0375418
-0.0376235
-0.0377016
-0.0377328
-0.0374774
-0.0377979
-0.0379861
-0.0380756
-0.0381194
-0.0381492
-0.0381674
-0.0381968
-0.0383591
-0.0380796
-0.0384903
-0.0384795
-0.0384903
-0.0385451
-0.0385812
-0.0384809
-0.0378957
-0.0375437
-0.0355051
0
0
-0.00528188
-0.0131674
-0.0207741
-0.0279748
-0.034464
-0.0391557
-0.0414624
-0.0415144
-0.0416297
-0.0415307
-0.0414209
-0.0412071
-0.0409432
-0.0406813
-0.0404304
-0.0401881
-0.0398796
-0.0396126
-0.0394559
-0.039341
-0.0392494
-0.0391495
-0.0389975
-0.0389679
-0.0390773
-0.0386151
-0.0384092
-0.0383525
-0.0383683
-0.0383887
-0.0383941
-0.0383514
-0.0383002
-0.0382646
-0.0382769
-0.0383201
-0.0383825
-0.0384538
-0.0385353
-0.0386401
-0.0387534
-0.0256566
-0.0387307
-0.0388969
-0.0389669
-0.0390127
-0.0390535
-0.0390896
-0.0391316
-0.0391954
-0.0391745
-0.0392909
-0.0393256
-0.0393478
-0.0393733
-0.039377
-0.0392835
-0.0390535
-0.0383545
-0.0362251
0
0
-0.00551355
-0.0138434
-0.0219036
-0.0295496
-0.0363632
-0.0412373
-0.0437577
-0.0173975
-0.0434731
-0.0432299
-0.0432121
-0.0428775
-0.042519
-0.0421826
-0.0418836
-0.0416502
-0.0411117
-0.0406966
-0.0405661
-0.0404535
-0.0403915
-0.040222
-0.040056
-0.0400114
-0.0402939
-0.039353
-0.0392866
-0.0393245
-0.0393381
-0.0393326
-0.0393096
-0.0392721
-0.0392348
-0.0392124
-0.0392164
-0.0392445
-0.039291
-0.0393499
-0.0394168
-0.0394831
-0.0395011
-0.0392744
-0.0395547
-0.0397292
-0.0398316
-0.0399067
-0.0399679
-0.0400182
-0.0400614
-0.0400996
-0.0401193
-0.0401604
-0.0401866
-0.0402061
-0.040224
-0.0402378
-0.0402462
-0.0400121
-0.0391945
-0.0369804
0
0
-0.00573655
-0.0144957
-0.0230303
-0.0311665
-0.0383014
-0.0432578
-0.0455376
-0.0455355
-0.0455089
-0.0453939
-0.0447748
-0.0443453
-0.0439528
-0.0436015
-0.0432546
-0.0433291
-0.0422099
-0.0416206
-0.0416489
-0.0415078
-0.041605
-0.0412862
-0.0409689
-0.0406195
-0.0399995
-0.0408374
-0.0407893
-0.040607
-0.0404513
-0.0403334
-0.0402493
-0.0401873
-0.0401436
-0.0401195
-0.0401188
-0.0401404
-0.0401807
-0.040235
-0.0402967
-0.040353
-0.0403782
-0.0403531
-0.0404662
-0.0405975
-0.040717
-0.0408192
-0.0409015
-0.0409626
-0.0410041
-0.0410285
-0.0410404
-0.0410522
-0.0410624
-0.0410727
-0.0410824
-0.0410883
-0.0410721
-0.0408849
-0.0400266
-0.0377538
0
0
-0.00596238
-0.0150653
-0.0242393
-0.0328043
-0.0402774
-0.0453769
-0.0476111
-0.0478721
-0.0475688
-0.0471466
-0.046551
-0.0459894
-0.0454818
-0.0450659
-0.0449968
-0.0454333
-0.0430385
-0.0429199
-0.0425917
-0.0423613
-0.0536178
-0.0422584
-0.0419292
-0.0415964
-0.0412426
-0.0415182
-0.0415882
-0.0415074
-0.0413742
-0.0412493
-0.0411506
-0.0410776
-0.0410257
-0.0409952
-0.0409913
-0.0410122
-0.041054
-0.0411134
-0.0411852
-0.0412553
-0.041294
-0.0412857
-0.0413494
-0.0414766
-0.0416255
-0.0417628
-0.0418698
-0.0419409
-0.0419772
-0.0419836
-0.0419721
-0.0419576
-0.0419491
-0.0419489
-0.0419478
-0.0419394
-0.0419197
-0.0417474
-0.0408564
-0.0385373
0
0
-0.00625322
-0.0152453
-0.0254028
-0.0345556
-0.0424052
-0.0476312