# vtk DataFile Version 2.0
FlowField
ASCII
DATASET STRUCTURED_GRID
DIMENSIONS 62 47 32 
POINTS 93248 double
0 0 0
0.01 0 0
0.02 0 0
0.03 0 0
0.04 0 0
0.05 0 0
0.06 0 0
0.07 0 0
0.08 0 0
0.09 0 0
0.1 0 0
0.11 0 0
0.12 0 0
0.13 0 0
0.14 0 0
0.15 0 0
0.16 0 0
0.17 0 0
0.18 0 0
0.19 0 0
0.2 0 0
0.21 0 0
0.22 0 0
0.23 0 0
0.24 0 0
0.25 0 0
0.26 0 0
0.27 0 0
0.28 0 0
0.29 0 0
0.3 0 0
0.31 0 0
0.32 0 0
0.33 0 0
0.34 0 0
0.35 0 0
0.36 0 0
0.37 0 0
0.38 0 0
0.39 0 0
0.4 0 0
0.41 0 0
0.42 0 0
0.43 0 0
0.44 0 0
0.45 0 0
0.46 0 0
0.47 0 0
0.48 0 0
0.49 0 0
0.5 0 0
0.51 0 0
0.52 0 0
0.53 0 0
0.54 0 0
0.55 0 0
0.56 0 0
0.57 0 0
0.58 0 0
0.59 0 0
0.6 0 0
0.61 0 0
0 0.01 0
0.01 0.01 0
0.02 0.01 0
0.03 0.01 0
0.04 0.01 0
0.05 0.01 0
0.06 0.01 0
0.07 0.01 0
0.08 0.01 0
0.09 0.01 0
0.1 0.01 0
0.11 0.01 0
0.12 0.01 0
0.13 0.01 0
0.14 0.01 0
0.15 0.01 0
0.16 0.01 0
0.17 0.01 0
0.18 0.01 0
0.19 0.01 0
0.2 0.01 0
0.21 0.01 0
0.22 0.01 0
0.23 0.01 0
0.24 0.01 0
0.25 0.01 0
0.26 0.01 0
0.27 0.01 0
0.28 0.01 0
0.29 0.01 0
0.3 0.01 0
0.31 0.01 0
0.32 0.01 0
0.33 0.01 0
0.34 0.01 0
0.35 0.01 0
0.36 0.01 0
0.37 0.01 0
0.38 0.01 0
0.39 0.01 0
0.4 0.01 0
0.41 0.01 0
0.42 0.01 0
0.43 0.01 0
0.44 0.01 0
0.45 0.01 0
0.46 0.01 0
0.47 0.01 0
0.48 0.01 0
0.49 0.01 0
0.5 0.01 0
0.51 0.01 0
0.52 0.01 0
0.53 0.01 0
0.54 0.01 0
0.55 0.01 0
0.56 0.01 0
0.57 0.01 0
0.58 0.01 0
0.59 0.01 0
0.6 0.01 0
0.61 0.01 0
0 0.02 0
0.01 0.02 0
0.02 0.02 0
0.03 0.02 0
0.04 0.02 0
0.05 0.02 0
0.06 0.02 0
0.07 0.02 0
0.08 0.02 0
0.09 0.02 0
0.1 0.02 0
0.11 0.02 0
0.12 0.02 0
0.13 0.02 0
0.14 0.02 0
0.15 0.02 0
0.16 0.02 0
0.17 0.02 0
0.18 0.02 0
0.19 0.02 0
0.2 0.02 0
0.21 0.02 0
0.22 0.02 0
0.23 0.02 0
0.24 0.02 0
0.25 0.02 0
0.26 0.02 0
0.27 0.02 0
0.28 0.02 0
0.29 0.02 0
0.3 0.02 0
0.31 0.02 0
0.32 0.02 0
0.33 0.02 0
0.34 0.02 0
0.35 0.02 0
0.36 0.02 0
0.37 0.02 0
0.38 0.02 0
0.39 0.02 0
0.4 0.02 0
0.41 0.02 0
0.42 0.02 0
0.43 0.02 0
0.44 0.02 0
0.45 0.02 0
0.46 0.02 0
0.47 0.02 0
0.48 0.02 0
0.49 0.02 0
0.5 0.02 0
0.51 0.02 0
0.52 0.02 0
0.53 0.02 0
0.54 0.02 0
0.55 0.02 0
0.56 0.02 0
0.57 0.02 0
0.58 0.02 0
0.59 0.02 0
0.6 0.02 0
0.61 0.02 0
0 0.03 0
0.01 0.03 0
0.02 0.03 0
0.03 0.03 0
0.04 0.03 0
0.05 0.03 0
0.06 0.03 0
0.07 0.03 0
0.08 0.03 0
0.09 0.03 0
0.1 0.03 0
0.11 0.03 0
0.12 0.03 0
0.13 0.03 0
0.14 0.03 0
0.15 0.03 0
0.16 0.03 0
0.17 0.03 0
0.18 0.03 0
0.19 0.03 0
0.2 0.03 0
0.21 0.03 0
0.22 0.03 0
0.23 0.03 0
0.24 0.03 0
0.25 0.03 0
0.26 0.03 0
0.27 0.03 0
0.28 0.03 0
0.29 0.03 0
0.3 0.03 0
0.31 0.03 0
0.32 0.03 0
0.33 0.03 0
0.34 0.03 0
0.35 0.03 0
0.36 0.03 0
0.37 0.03 0
0.38 0.03 0
0.39 0.03 0
0.4 0.03 0
0.41 0.03 0
0.42 0.03 0
0.43 0.03 0
0.44 0.03 0
0.45 0.03 0
0.46 0.03 0
0.47 0.03 0
0.48 0.03 0
0.49 0.03 0
0.5 0.03 0
0.51 0.03 0
0.52 0.03 0
0.53 0.03 0
0.54 0.03 0
0.55 0.03 0
0.56 0.03 0
0.57 0.03 0
0.58 0.03 0
0.59 0.03 0
0.6 0.03 0
0.61 0.03 0
0 0.04 0
0.01 0.04 0
0.02 0.04 0
0.03 0.04 0
0.04 0.04 0
0.05 0.04 0
0.06 0.04 0
0.07 0.04 0
0.08 0.04 0
0.09 0.04 0
0.1 0.04 0
0.11 0.04 0
0.12 0.04 0
0.13 0.04 0
0.14 0.04 0
0.15 0.04 0
0.16 0.04 0
0.17 0.04 0
0.18 0.04 0
0.19 0.04 0
0.2 0.04 0
0.21 0.04 0
0.22 0.04 0
0.23 0.04 0
0.24 0.04 0
0.25 0.04 0
0.26 0.04 0
0.27 0.04 0
0.28 0.04 0
0.29 0.04 0
0.3 0.04 0
0.31 0.04 0
0.32 0.04 0
0.33 0.04 0
0.34 0.04 0
0.35 0.04 0
0.36 0.04 0
0.37 0.04 0
0.38 0.04 0
0.39 0.04 0
0.4 0.04 0
0.41 0.04 0
0.42 0.04 0
0.43 0.04 0
0.44 0.04 0
0.45 0.04 0
0.46 0.04 0
0.47 0.04 0
0.48 0.04 0
0.49 0.04 0
0.5 0.04 0
0.51 0.04 0
0.52 0.04 0
0.53 0.04 0
0.54 0.04 0
0.55 0.04 0
0.56 0.04 0
0.57 0.04 0
0.58 0.04 0
0.59 0.04 0
0.6 0.04 0
0.61 0.04 0
0 0.05 0
0.01 0.05 0
0.02 0.05 0
0.03 0.05 0
0.04 0.05 0
0.05 0.05 0
0.06 0.05 0
0.07 0.05 0
0.08 0.05 0
0.09 0.05 0
0.1 0.05 0
0.11 0.05 0
0.12 0.05 0
0.13 0.05 0
0.14 0.05 0
0.15 0.05 0
0.16 0.05 0
0.17 0.05 0
0.18 0.05 0
0.19 0.05 0
0.2 0.05 0
0.21 0.05 0
0.22 0.05 0
0.23 0.05 0
0.24 0.05 0
0.25 0.05 0
0.26 0.05 0
0.27 0.05 0
0.28 0.05 0
0.29 0.05 0
0.3 0.05 0
0.31 0.05 0
0.32 0.05 0
0.33 0.05 0
0.34 0.05 0
0.35 0.05 0
0.36 0.05 0
0.37 0.05 0
0.38 0.05 0
0.39 0.05 0
0.4 0.05 0
0.41 0.05 0
0.42 0.05 0
0.43 0.05 0
0.44 0.05 0
0.45 0.05 0
0.46 0.05 0
0.47 0.05 0
0.48 0.05 0
0.49 0.05 0
0.5 0.05 0
0.51 0.05 0
0.52 0.05 0
0.53 0.05 0
0.54 0.05 0
0.55 0.05 0
0.56 0.05 0
0.57 0.05 0
0.58 0.05 0
0.59 0.05 0
0.6 0.05 0
0.61 0.05 0
0 0.06 0
0.01 0.06 0
0.02 0.06 0
0.03 0.06 0
0.04 0.06 0
0.05 0.06 0
0.06 0.06 0
0.07 0.06 0
0.08 0.06 0
0.09 0.06 0
0.1 0.06 0
0.11 0.06 0
0.12 0.06 0
0.13 0.06 0
0.14 0.06 0
0.15 0.06 0
0.16 0.06 0
0.17 0.06 0
0.18 0.06 0
0.19 0.06 0
0.2 0.06 0
0.21 0.06 0
0.22 0.06 0
0.23 0.06 0
0.24 0.06 0
0.25 0.06 0
0.26 0.06 0
0.27 0.06 0
0.28 0.06 0
0.29 0.06 0
0.3 0.06 0
0.31 0.06 0
0.32 0.06 0
0.33 0.06 0
0.34 0.06 0
0.35 0.06 0
0.36 0.06 0
0.37 0.06 0
0.38 0.06 0
0.39 0.06 0
0.4 0.06 0
0.41 0.06 0
0.42 0.06 0
0.43 0.06 0
0.44 0.06 0
0.45 0.06 0
0.46 0.06 0
0.47 0.06 0
0.48 0.06 0
0.49 0.06 0
0.5 0.06 0
0.51 0.06 0
0.52 0.06 0
0.53 0.06 0
0.54 0.06 0
0.55 0.06 0
0.56 0.06 0
0.57 0.06 0
0.58 0.06 0
0.59 0.06 0
0.6 0.06 0
0.61 0.06 0
0 0.07 0
0.01 0.07 0
0.02 0.07 0
0.03 0.07 0
0.04 0.07 0
0.05 0.07 0
0.06 0.07 0
0.07 0.07 0
0.08 0.07 0
0.09 0.07 0
0.1 0.07 0
0.11 0.07 0
0.12 0.07 0
0.13 0.07 0
0.14 0.07 0
0.15 0.07 0
0.16 0.07 0
0.17 0.07 0
0.18 0.07 0
0.19 0.07 0
0.2 0.07 0
0.21 0.07 0
0.22 0.07 0
0.23 0.07 0
0.24 0.07 0
0.25 0.07 0
0.26 0.07 0
0.27 0.07 0
0.28 0.07 0
0.29 0.07 0
0.3 0.07 0
0.31 0.07 0
0.32 0.07 0
0.33 0.07 0
0.34 0.07 0
0.35 0.07 0
0.36 0.07 0
0.37 0.07 0
0.38 0.07 0
0.39 0.07 0
0.4 0.07 0
0.41 0.07 0
0.42 0.07 0
0.43 0.07 0
0.44 0.07 0
0.45 0.07 0
0.46 0.07 0
0.47 0.07 0
0.48 0.07 0
0.49 0.07 0
0.5 0.07 0
0.51 0.07 0
0.52 0.07 0
0.53 0.07 0
0.54 0.07 0
0.55 0.07 0
0.56 0.07 0
0.57 0.07 0
0.58 0.07 0
0.59 0.07 0
0.6 0.07 0
0.61 0.07 0
0 0.08 0
0.01 0.08 0
0.02 0.08 0
0.03 0.08 0
0.04 0.08 0
0.05 0.08 0
0.06 0.08 0
0.07 0.08 0
0.08 0.08 0
0.09 0.08 0
0.1 0.08 0
0.11 0.08 0
0.12 0.08 0
0.13 0.08 0
0.14 0.08 0
0.15 0.08 0
0.16 0.08 0
0.17 0.08 0
0.18 0.08 0
0.19 0.08 0
0.2 0.08 0
0.21 0.08 0
0.22 0.08 0
0.23 0.08 0
0.24 0.08 0
0.25 0.08 0
0.26 0.08 0
0.27 0.08 0
0.28 0.08 0
0.29 0.08 0
0.3 0.08 0
0.31 0.08 0
0.32 0.08 0
0.33 0.08 0
0.34 0.08 0
0.35 0.08 0
0.36 0.08 0
0.37 0.08 0
0.38 0.08 0
0.39 0.08 0
0.4 0.08 0
0.41 0.08 0
0.42 0.08 0
0.43 0.08 0
0.44 0.08 0
0.45 0.08 0
0.46 0.08 0
0.47 0.08 0
0.48 0.08 0
0.49 0.08 0
0.5 0.08 0
0.51 0.08 0
0.52 0.08 0
0.53 0.08 0
0.54 0.08 0
0.55 0.08 0
0.56 0.08 0
0.57 0.08 0
0.58 0.08 0
0.59 0.08 0
0.6 0.08 0
0.61 0.08 0
0 0.09 0
0.01 0.09 0
0.02 0.09 0
0.03 0.09 0
0.04 0.09 0
0.05 0.09 0
0.06 0.09 0
0.07 0.09 0
0.08 0.09 0
0.09 0.09 0
0.1 0.09 0
0.11 0.09 0
0.12 0.09 0
0.13 0.09 0
0.14 0.09 0
0.15 0.09 0
0.16 0.09 0
0.17 0.09 0
0.18 0.09 0
0.19 0.09 0
0.2 0.09 0
0.21 0.09 0
0.22 0.09 0
0.23 0.09 0
0.24 0.09 0
0.25 0.09 0
0.26 0.09 0
0.27 0.09 0
0.28 0.09 0
0.29 0.09 0
0.3 0.09 0
0.31 0.09 0
0.32 0.09 0
0.33 0.09 0
0.34 0.09 0
0.35 0.09 0
0.36 0.09 0
0.37 0.09 0
0.38 0.09 0
0.39 0.09 0
0.4 0.09 0
0.41 0.09 0
0.42 0.09 0
0.43 0.09 0
0.44 0.09 0
0.45 0.09 0
0.46 0.09 0
0.47 0.09 0
0.48 0.09 0
0.49 0.09 0
0.5 0.09 0
0.51 0.09 0
0.52 0.09 0
0.53 0.09 0
0.54 0.09 0
0.55 0.09 0
0.56 0.09 0
0.57 0.09 0
0.58 0.09 0
0.59 0.09 0
0.6 0.09 0
0.61 0.09 0
0 0.1 0
0.01 0.1 0
0.02 0.1 0
0.03 0.1 0
0.04 0.1 0
0.05 0.1 0
0.06 0.1 0
0.07 0.1 0
0.08 0.1 0
0.09 0.1 0
0.1 0.1 0
0.11 0.1 0
0.12 0.1 0
0.13 0.1 0
0.14 0.1 0
0.15 0.1 0
0.16 0.1 0
0.17 0.1 0
0.18 0.1 0
0.19 0.1 0
0.2 0.1 0
0.21 0.1 0
0.22 0.1 0
0.23 0.1 0
0.24 0.1 0
0.25 0.1 0
0.26 0.1 0
0.27 0.1 0
0.28 0.1 0
0.29 0.1 0
0.3 0.1 0
0.31 0.1 0
0.32 0.1 0
0.33 0.1 0
0.34 0.1 0
0.35 0.1 0
0.36 0.1 0
0.37 0.1 0
0.38 0.1 0
0.39 0.1 0
0.4 0.1 0
0.41 0.1 0
0.42 0.1 0
0.43 0.1 0
0.44 0.1 0
0.45 0.1 0
0.46 0.1 0
0.47 0.1 0
0.48 0.1 0
0.49 0.1 0
0.5 0.1 0
0.51 0.1 0
0.52 0.1 0
0.53 0.1 0
0.54 0.1 0
0.55 0.1 0
0.56 0.1 0
0.57 0.1 0
0.58 0.1 0
0.59 0.1 0
0.6 0.1 0
0.61 0.1 0
0 0.11 0
0.01 0.11 0
0.02 0.11 0
0.03 0.11 0
0.04 0.11 0
0.05 0.11 0
0.06 0.11 0
0.07 0.11 0
0.08 0.11 0
0.09 0.11 0
0.1 0.11 0
0.11 0.11 0
0.12 0.11 0
0.13 0.11 0
0.14 0.11 0
0.15 0.11 0
0.16 0.11 0
0.17 0.11 0
0.18 0.11 0
0.19 0.11 0
0.2 0.11 0
0.21 0.11 0
0.22 0.11 0
0.23 0.11 0
0.24 0.11 0
0.25 0.11 0
0.26 0.11 0
0.27 0.11 0
0.28 0.11 0
0.29 0.11 0
0.3 0.11 0
0.31 0.11 0
0.32 0.11 0
0.33 0.11 0
0.34 0.11 0
0.35 0.11 0
0.36 0.11 0
0.37 0.11 0
0.38 0.11 0
0.39 0.11 0
0.4 0.11 0
0.41 0.11 0
0.42 0.11 0
0.43 0.11 0
0.44 0.11 0
0.45 0.11 0
0.46 0.11 0
0.47 0.11 0
0.48 0.11 0
0.49 0.11 0
0.5 0.11 0
0.51 0.11 0
0.52 0.11 0
0.53 0.11 0
0.54 0.11 0
0.55 0.11 0
0.56 0.11 0
0.57 0.11 0
0.58 0.11 0
0.59 0.11 0
0.6 0.11 0
0.61 0.11 0
0 0.12 0
0.01 0.12 0
0.02 0.12 0
0.03 0.12 0
0.04 0.12 0
0.05 0.12 0
0.06 0.12 0
0.07 0.12 0
0.08 0.12 0
0.09 0.12 0
0.1 0.12 0
0.11 0.12 0
0.12 0.12 0
0.13 0.12 0
0.14 0.12 0
0.15 0.12 0
0.16 0.12 0
0.17 0.12 0
0.18 0.12 0
0.19 0.12 0
0.2 0.12 0
0.21 0.12 0
0.22 0.12 0
0.23 0.12 0
0.24 0.12 0
0.25 0.12 0
0.26 0.12 0
0.27 0.12 0
0.28 0.12 0
0.29 0.12 0
0.3 0.12 0
0.31 0.12 0
0.32 0.12 0
0.33 0.12 0
0.34 0.12 0
0.35 0.12 0
0.36 0.12 0
0.37 0.12 0
0.38 0.12 0
0.39 0.12 0
0.4 0.12 0
0.41 0.12 0
0.42 0.12 0
0.43 0.12 0
0.44 0.12 0
0.45 0.12 0
0.46 0.12 0
0.47 0.12 0
0.48 0.12 0
0.49 0.12 0
0.5 0.12 0
0.51 0.12 0
0.52 0.12 0
0.53 0.12 0
0.54 0.12 0
0.55 0.12 0
0.56 0.12 0
0.57 0.12 0
0.58 0.12 0
0.59 0.12 0
0.6 0.12 0
0.61 0.12 0
0 0.13 0
0.01 0.13 0
0.02 0.13 0
0.03 0.13 0
0.04 0.13 0
0.05 0.13 0
0.06 0.13 0
0.07 0.13 0
0.08 0.13 0
0.09 0.13 0
0.1 0.13 0
0.11 0.13 0
0.12 0.13 0
0.13 0.13 0
0.14 0.13 0
0.15 0.13 0
0.16 0.13 0
0.17 0.13 0
0.18 0.13 0
0.19 0.13 0
0.2 0.13 0
0.21 0.13 0
0.22 0.13 0
0.23 0.13 0
0.24 0.13 0
0.25 0.13 0
0.26 0.13 0
0.27 0.13 0
0.28 0.13 0
0.29 0.13 0
0.3 0.13 0
0.31 0.13 0
0.32 0.13 0
0.33 0.13 0
0.34 0.13 0
0.35 0.13 0
0.36 0.13 0
0.37 0.13 0
0.38 0.13 0
0.39 0.13 0
0.4 0.13 0
0.41 0.13 0
0.42 0.13 0
0.43 0.13 0
0.44 0.13 0
0.45 0.13 0
0.46 0.13 0
0.47 0.13 0
0.48 0.13 0
[...]
POINT_DATA 93248

SCALARS u double
LOOKUP_TABLE default
0
0
0
0
0
0
0
0
0
0
0
0
0
0
0
0
0
0
0
0
0
0
0
0
0.25923
0
0
0
0
0
0
0
0.00470033
0.199541
0
0
0
0
0
0
0
0
0
0
0
0
0
0.0380323
0
0
0.0480307
0
0
0
0
0
0
0
0
0
0
0
0
0.405609
0.319267
0.236183
0.167363
0.116521
0.0784323
0.0511147
0.0316871
0.0172205
0.00599055
-0.00189614
-0.00275896
-0.00408929
-0.0046685
-0.00413071
-0.00280181
-0.00224464
-0.00220032
-0.00322047
0.00614877
0.0079923
0.00259342
0.00307992
0.0038825
0.00437403
0.00464472
0.00476739
0.00473354
0.0044546
0.00381582
0.00320794
0.00519937
0.00453042
0.00292822
0.00187577
0.00405599
0.00141082
-0.00250669
0.138802
-0.00603691
-0.000660594
0.00152973
0.00572591
0.0171096
-0.0289913
-0.00926857
-0.00736683
-0.00631748
-0.00703616
-0.00767204
-0.00673384
-0.00627448
0.00579782
-0.039632
-0.0298621
-0.0301628
-0.0234309
-0.0293499
-0.0390426
-0.0390426
0
0
0.48016
0.454428
0.419393
0.375505
0.333341
0.284604
0.237473
0.195531
0.160945
0.133356
0.11199
0.102317
0.0927268
0.0866833
0.0835492
0.0824424
0.0810152
0.0820702
0.291781
0.089212
0.090513
0.070998
0.0737081
0.0732875
0.0720746
0.0705104
0.0686938
0.0666431
0.0643262
0.06162
0.0583832
0.0589153
0.0553081
0.0522644
0.0503808
0.0449093
0.0412845
0.00382585
0.0375314
0.034108
0.0307026
0.0307154
0.0318938
0.0305494
0.00775762
0.000638879
0.001771
0.000491775
-0.00070123
-0.000469174
-0.0108561
-0.0101253
-0.0138924
-0.0393464
-0.0439626
-0.0513863
-0.0534314
-0.0633843
-0.0746088
-0.0746088
0
0
0.474184
0.464551
0.454646
0.432292
0.426116
0.391135
0.357667
0.325224
0.294656
0.300076
0.245934
0.220615
0.205156
0.193886
0.18641
0.181
0.174671
0.171792
0.16874
0.161572
0.161273
0.153028
0.149926
0.14714
0.14398
0.14044
0.136595
0.132528
0.12838
0.124498
0.121377
0.114502
0.107886
0.191648
0.101188
0.0943345
0.0896113
0.0867075
0.0824453
0.0767062
0.0705763
0.112954
0.0607089
0.0533403
0.108713
0.028069
0.0214128
0.000491775
0.0127016
0.00841581
-0.000245714
-0.00673384
-0.0164762
-0.0319224
-0.0425524
-0.0525811
-0.0664291
-0.0759969
-0.0861752
-0.0861752
0
0
0.467101
0.452229
0.452631
0.440732
0.432839
0.417608
0.399721
0.380635
0.36131
0.34212
0.32409
0.304724
0.2881
0.274081
0.264483
0.253627
0.247798
0.240925
0.289971
0.225648
0.219034
0.21229
0.206762
0.201764
0.196794
0.191633
0.18625
0.180689
0.175035
0.169363
0.163397
0.155712
0.14826
0.14137
0.135915
0.129895
0.124272
0.11905
0.112648
0.105461
0.0974194
0.08869
0.0805454
0.070915
0.0592599
0.0475643
0.039132
0.0321497
0.0249644
0.0173015
0.00826279
-0.00133812
-0.0124188
-0.0248131
-0.0368636
-0.048859
-0.0618734
-0.0732531
-0.0846767
-0.0846767
0
0
0.464706
0.447992
0.43835
0.428848
0.420895
0.411345
0.400889
0.389716
0.377899
0.36557
0.352928
0.339654
0.326284
0.31199
0.310263
0.297144
0.288173
0.279804
0.270511
0.262082
0.254324
0.24712
0.240447
0.234122
0.227927
0.221655
0.215265
0.20875
0.202085
0.195151
0.187599
0.179147
0.172579
0.164846
0.157558
0.150542
0.14368
0.136691
0.129036
0.12078
0.111844
0.10223
0.0924388
0.0822306
0.0722903
0.0730216
0.050809
0.0420138
0.0329947
0.0236362
0.0137748
0.00336193
-0.00760252
-0.0188401
-0.0301392
-0.0411492
-0.051603
-0.0612301
-0.0725575
-0.0725575
0
0
0.463633
0.444194
0.429399
0.417145
0.406848
0.396984
0.388186
0.379556
0.370589
0.361472
0.352303
0.343218
0.333749
0.32431
0.319067
0.311799
0.303543
0.296787
0.287684
0.279361
0.271585
0.264191
0.257072
0.25015
0.243352
0.236455
0.229519
0.222514
0.215353
0.207881
0.199796
0.19057
0.185186
0.176584
0.168256
0.160378
0.152607
0.144636
0.136262
0.12743
0.118102
0.108241
0.0979034
0.0868837
0.0752436
0.068489
0.0581101
0.0478059
0.0376837
0.0275515
0.0173126
0.00692456
-0.00354835
-0.0138598
-0.0238278
-0.0330264
-0.0404762
-0.0433468
-0.0380366
-0.0380366
0
0
0.463039
0.441819
0.424079
0.409065
0.396495
0.448663
0.376091
0.365706
0.356369
0.347756
0.340013
0.333768
0.326839
0.320279
0.314746
0.309868
0.30489
0.298761
0.291781
0.284727
0.277802
0.270814
0.263768
0.256723
0.249737
0.242578
0.235498
0.22839
0.221161
0.213761
0.206437
0.199958
0.187863
0.179694
0.171923
0.164012
0.155904
0.147519
0.138802
0.129728
0.120298
0.114427
0.100201
0.0895874
0.0792125
0.0705423
0.0607886
0.050559
0.0402392
0.0299417
0.019724
0.0096489
-0.000293249
-0.00983691
-0.0188684
-0.0275788
-0.0370951
-0.0499898
-0.0191998
-0.0191998
0
0
0.462668
0.440314
0.420773
0.403629
0.388483
0.374505
0.36283
0.35207
0.342177
0.333145
0.325435
0.322759
0.316433
0.310756
0.304431
0.0824424
0.300424
0.29486
0.289971
0.284364
0.278701
0.272338
0.265576
0.258563
0.227927
0.244374
0.23759
0.230663
0.223585
0.216264
0.208657
0.200749
0.190877
0.181968
0.173606
0.165331
0.156954
0.14836
0.139489
0.130322
0.120852
0.111067
0.10111
0.091039
0.0811414
0.0716131
0.0618678
0.0518407
0.0416689
0.0314975
0.0214739
0.01184
0.0022851
-0.00676525
-0.0152899
-0.0234382
-0.0317846
-0.0430775
-0.0379751
-0.0379751
0
0
0.462422
0.439322
0.418607
0.400008
0.383221
0.367898
0.354391
0.342271
0.331259
0.320887
0.309038
0.318029
0.308276
0.302765
0.298768
0.297422
0.296667
0.292715
0.288005
0.282633
0.277822
0.271743
0.265255
0.258597
0.25234
0.24537
0.238452
0.231615
0.224755
0.217539
0.209318
0.20076
0.19185
0.183092
0.174528
0.165993
0.157408
0.148672
0.13971
0.130508
0.121075
0.111438
0.10168
0.0918731
0.0821059
0.0723701
0.0625723
0.0526548
0.0426437
0.0326261
0.0226464
0.0137178
0.00430178
-0.00449593
-0.0129348
-0.0212628
-0.0299581
-0.0394952
-0.0469238
-0.0469238
0
0
0.462256
0.438649
0.417139
0.397566
0.37972
0.363461
0.348815
0.335671
0.323925
0.313508
0.304858
0.304336
0.300098
0.296485
0.293646
0.292407
0.291002
0.288368
0.284922
0.281092
0.275261
0.269738
0.263785
0.257266
0.252047
0.24511
0.238427
0.231916
0.225539
0.245035
0.20956
0.200668
0.192131
0.183637
0.175146
0.17306
0.15788
0.14902
0.139976
0.130745
0.121349
0.111819
0.102177
0.0924809
0.0827648
0.0730216
0.0632432
0.0534097
0.0435254
0.0336901
0.0239118
-0.000849652
0.00580906
-0.002755
-0.0112784
-0.0198427
-0.0287608
-0.0383963
-0.0489101
-0.0489101
0
0
0.462141
0.438188
0.416122
0.395886
0.377312
0.36035
0.345001
0.331263
0.319198
0.309012
0.301305
0.296949
0.293568
0.291309
0.288539
0.287096
0.285772
0.283834
0.281205
0.279828
0.273131
0.267945
0.262282
0.256236
0.250448
0.244101
0.237796
0.231639
0.225354
0.218874
0.208328
0.200522
0.192509
0.184163
0.175633
0.166993
0.167018
0.149502
0.14038
0.131112
0.121729
0.112293
0.102703
0.0930497
0.0833692
0.0736723
0.0639673
0.0542388
0.0444768
0.0349608
0.0258229
0.0171369
0.00788296
-0.00110618
-0.00988504
-0.0186534
-0.0277322
-0.0375468
-0.0485459
-0.0485459
0
0
0.462065
0.437886
0.415492
0.394686
0.375591
0.358153
0.342363
0.328289
0.316065
0.305903
0.298114
0.292657
0.289077
0.287459
0.283862
0.282815
0.281726
0.280034
0.277887
0.274911
0.270923
0.266129
0.260717
0.254863
0.248785
0.242542
0.236518
0.230744
0.224307
0.215366
0.210945
0.202596
0.193808
0.185041
0.176279
0.167484
0.158628
0.149855
0.140833
0.131539
0.122102
0.112954
0.103332
0.0936651
0.0840026
0.0743586
0.064753
0.0551536
0.0454221
0.0361273
0.0271788
0.0183621
0.00929681
0.000278211
-0.00860637
-0.0174814
-0.026653
-0.0365336
-0.0475958
-0.0475958
0
0
0.462014
0.43768
0.415024
0.393807
0.374387
0.356624
0.340544
0.326251
0.313907
0.303618
0.295593
0.289632
0.285265
0.28139
0.282099
0.280814
0.279145
0.277109
0.275369
0.272708
0.268974
0.264359
0.259041
0.253157
0.246827
0.240292
0.234186
0.228971
0.225402
0.218081
0.211194
0.203181
0.194603
0.185804
0.176932
0.168069
0.159187
0.150475
0.14145
0.131984
0.121916
0.114354
0.104154
0.0943661
0.0846828
0.0750644
0.0655472
0.0561107
0.0462227
0.0371284
0.0282551
0.0193519
0.010349
0.00141639
-0.00741369
-0.0162611
-0.0254854
-0.0353591
-0.0464603
-0.0464603
0
0
0.461984
0.437561
0.414873
0.392989
0.373523
0.355568
0.339291
0.324832
0.312331
0.302
0.293761
0.287549
0.283065
0.28
0.279126
0.278139
0.276617
0.274324
0.273636
0.271096
0.267304
0.262658
0.257299
0.251233
0.244411
0.236814
0.228921
0.221803
0.231676
0.223413
0.213941
0.204798
0.195724
0.186617
0.177534
0.168681
0.159474
0.151173
0.142272
0.132832
0.123191
0.114427
0.104813
0.0950968
0.0853877
0.0757317
0.0662048
0.0569558
0.0469014
0.0381607
0.0293679
0.0204401
0.011246
0.00241641
-0.00626185
-0.0148672
-0.0242975
-0.0339688
-0.045075
-0.045075
0
0
0.461958
0.437412
0.41445
0.392852
0.373036
0.35488
0.338446
0.323866
0.311284
0.300824
0.292471
0.286164
0.281724
0.27891
0.277408
0.276301
0.274851
0.272093
0.272814
0.269641
0.265584
0.260937
0.255575
0.249328
0.241841
0.232081
0.216585
0.185454
0.268201
0.235103
0.218983
0.20742
0.197175
0.187363
0.17779
0.168541
0.159692
0.151807
0.143337
0.134093
0.12458
0.115167
0.10559
0.0958991
0.0861228
0.0763284
0.0664678
0.0565706
0.0485065
0.0396105
0.0307014
0.0220666
0.0117082
0.00333446
-0.00521411
-0.0136809
-0.0225913
-0.0320735
-0.0431071
-0.0431071
0
0
0.461968
0.437305
0.414229
0.392689
0.372768
0.354468
0.337896
0.323221
0.310586
0.300076
0.291634
0.285257
0.28082
0.278037
0.276423
0.275419
0.274791
0.275164
0.26949
0.266679
0.263438
0.259273
0.254152
0.24799
0.24052
0.231184
0.219537
0.210069
0.235142
0.229613
0.219009
0.208112
0.197576
0.18732
0.177239
0.167425
0.158394
0.151334
0.145101
0.136289
0.12659
0.116742
0.106874
0.0969873
0.0870154
0.0771029
0.0672122
0.0575308
0.0487103
0.0404967
0.0316916
0.022699
0.0132288
0.00464562
-0.00439794
-0.0124277
-0.0205933
-0.029356
-0.0399178
-0.0399178
0
0
0.462045
0.437235
0.414135
0.392642
0.372704
0.354183
0.337481
0.322773
0.310164
0.299695
0.291135
0.284648
0.28017
0.277406
0.275831
0.27487
0.274111
0.273107
0.269773
0.266461
0.262847
0.258597
0.253558
0.247655
0.240854
0.233293
0.225792
0.221689
0.224754
0.221779
0.214715
0.205805
0.196129
0.186051
0.175588
0.164678
0.153575
0.145044
0.15139
0.141609
0.130256
0.1193
0.108713
0.0983812
0.0880952
0.0780627
0.0681358
0.058328
0.0488834
0.0413704
0.0323738
0.0233102
0.014688
0.00742536
-0.00510222
-0.0114218
-0.0183987
-0.0255643
-0.0342074
-0.0342074
0
0
0.461791
0.437365
0.41428
0.392802
0.37301
0.342363
0.336954
0.322425
0.309979
0.299698
0.290848
0.284194
0.279677
0.277004
0.275546
0.274564
0.273531
0.27213
0.269744
0.266667
0.262992
0.258691
0.253737
0.248156
0.242105
0.23604
0.259597
0.225649
0.223029
0.21814
0.211277
0.203111
0.19407
0.184244
0.173395
0.160667
0.142951
0.108332
0.186951
0.153292
0.135537
0.122323
0.110647
0.0996625
0.0893061
0.0791134
0.0691626
0.0593075
0.0492552
0.0421281
0.0325187
0.0235049
0.0150989
0.00693046
-0.00313813
-0.0287608
-0.016535
-0.0213921
-0.0229634
0
0
0
0.461868
0.436617
0.41412
0.392839
0.373208
0.354065
0.337125
0.322446
0.310096
0.300173
0.290568
0.28383
0.279349
0.276955
0.275737
0.274712
0.273417
0.272113
0.27002
0.267098
0.263467
0.259206
0.254361
0.249023
0.243393
0.237805
0.232228
0.226333
0.223068
0.216525
0.209092
0.201083
0.192425
0.183625
0.172283
0.160047
0.145903
0.133973
0.156649
0.130508
0.135789
0.123391
0.111656
0.100569
0.0900587
0.07992
0.0702077
0.0610964
0.0525715
0.0399171
0.0313184
0.0230002
0.0147627
0.00657709
-0.00163695
-0.0089478
-0.0162953
-0.0237601
-0.0329383
-0.0329383
0
0
0.461901
0.437243
0.413937
0.392855
0.373492
0.353693
0.336964
0.322441
0.310173
0.300779
0.29011
0.283875
0.279483
0.277753
0.276825
0.275541
0.273779
0.272871
0.270764
0.267786
0.264153
0.259944
0.255175
0.249927
0.244363
0.238907
0.235348
0.230881
0.221417
0.214495
0.207412
0.19979
0.191648
0.18275
0.172971
0.16261
0.152764
0.146378
0.146675
0.14156
0.132453
0.121948
0.111134
0.100529
0.0902502
0.0802475
0.0705953
0.0612575
0.0517896
0.0409918
0.0315062
0.0227479
0.0143758
0.00624687
-0.00175227
-0.00970125
-0.0181828
-0.0277521
-0.0391107
-0.0391107
0
0
0.461922
0.437321
0.414383
0.392132
0.37111
0.354098
0.337511
0.322608
0.309612
0.29771
0.292222
0.285873
0.280714
0.327252
0.279133
0.277042
0.274571
0.274163
0.271608
0.268483
0.264908
0.260806
0.256077
0.25076
0.244725
0.236941
0.240071
0.231438
0.22281
0.214887
0.207182
0.19947
0.19175
0.183506
0.174636
0.16568
0.157438
0.150698
0.144727
0.137812
0.129435
0.120009
0.109794
0.09978
0.089894
0.0800486
0.0704113
0.0608989
0.0512734
0.0413554
0.0316618
0.0225295
0.0139285
0.00567949
-0.00260183
-0.0110588
-0.0202365
-0.0306216
-0.0422407
-0.0422407
0
0
0.461922
0.437296
0.414178
0.392213
0.371726
0.353709
0.337166
0.322419
0.309793
0.299578
0.292511
0.28694
0.352913
0.282532
0.280031
0.278226
0.277573
0.273704
0.271465
0.268896
0.265699
0.261848
0.257141
0.251839
0.246028
0.239931
0.2374
0.231019
0.223324
0.215323
0.207256
0.199334
0.192053
0.185012
0.176769
0.168453
0.160308
0.152552
0.144714
0.136572
0.127999
0.119233
0.107934
0.0986693
0.089134
0.0794478
0.0699275
0.060462
0.0509594
0.0412413
0.0313076
0.0220099
0.0132499
0.00483964
-0.00365025
-0.0122834
-0.021752
-0.0325805
-0.0441697
-0.0441697
0
0
0.461922
0.43729
0.414152
0.392429
0.372269
0.353864
0.336959
0.322162
0.309759
0.3017
0.294023
0.288757
0.286567
0.279775
0.278347
0.277768
0.277047
0.274966
0.272708
0.270097
0.266997
0.263327
0.258435
0.253175
0.247723
0.242245
0.23706
0.230676
0.223318
0.215342
0.206879
0.198129
0.190295
0.188331
0.17958
0.171569
0.162711
0.153965
0.145226
0.136387
0.127363
0.11799
0.107599
0.0977699
0.0654009
0.0786105
0.0693503
0.0600129
0.0506804
0.040932
0.0144392
0.0211755
0.012337
-0.0229152
-0.0047374
-0.0131781
-0.0226682
-0.0341229
-0.0456171
-0.0456171
0
0
0.461931
0.437325
0.414255
0.39273
0.372838
0.35449
0.336681
0.321545
0.306674
0.306749
0.296097
0.289995
0.286237
0.28222
0.280148
0.279034
0.277826
0.276286
0.274234
0.271664
0.268651
0.265257
0.259771
0.254621
0.249395
0.243881
0.2379
0.222514
0.223584
0.215438
0.20616
0.194701
0.175962
0.203405
0.182939
0.177155
0.165325
0.155357
0.145891
0.136562
0.12714
0.11731
0.107346
0.0976523
0.0882745
0.0785413
0.0689607
0.0595277
0.0503603
0.0410738
0.0296995
0.020966
0.0123306
0.00390998
-0.00502479
-0.0137073
-0.0229635
-0.0354848
-0.0465988
-0.0465988
0
0
0.461944
0.437379
0.414404
0.393088
0.373673
0.356935
0.335457
0.322123
0.309682
0.303767
0.296485
0.290776
0.286778
0.283933
0.28227
0.28147
0.279277
0.27796
0.275948
0.273357
0.27031
0.267229
0.261032
0.256402
0.251347
0.245649
0.239414
0.232321
0.224795
0.216506
0.206809
0.196502
0.186317
0.19211
0.183713
0.175971
0.166009
0.156017
0.146288
0.136746
0.127162
0.116918
0.106987
0.0973443
0.0878101
0.0781462
0.0684533
0.0587536
0.0354009
0.0408324
0.0287082
0.0209659
0.0120461
0.00309462
-0.00593682
-0.0146996
-0.0231277
-0.0362387
-0.0464642
-0.0464642
0
0
0.461955
0.43742
0.414507
0.393286
0.37389
0.356349
0.338608
0.32397
0.312081
0.303499
0.296591
0.291375
0.287748
0.285452
0.284147
0.283284
0.2816
0.279981
0.277886
0.275112
0.271466
0.266356
0.26448
0.259539
0.25386
0.247608
0.240796
0.234087
0.22671
0.219387
0.20784
0.200094
0.192987
0.188658
0.181935
0.174055
0.165086
0.155659
0.146137
0.136691
0.127256
0.116425
0.106612
0.0970603
0.0874645
0.0777597
0.0679645
0.0580675
0.0479585
0.0372274
0.0326148
0.0214159
0.011652
0.00221291
-0.00730083
-0.0172202
-0.0274497
-0.0321126
-0.0442237
-0.0442237
0
0
0.461955
0.437422
0.414529
0.393355
0.373978
0.356432
0.340676
0.325538
0.31363
0.304514
0.297605
0.2926
0.289257
0.287232
0.286132
0.285367
0.284158
0.282485
0.280232
0.277321
0.2738
0.269528
0.255575
0.261166
0.255738
0.249407
0.242608
0.235631
0.228291
0.220582
0.21124
0.203251
0.19592
0.18882
0.181238
0.173027
0.164237
0.15505
0.14565
0.136238
0.127113
0.115862
0.106528
0.0970366
0.0873321
0.0775118
0.0676162
0.05766
0.0477019
0.0381412
0.0304262
0.0208099
0.0111147
0.00157741
-0.00788819
-0.0173224
-0.0264216
-0.034125
-0.0449281
-0.0449281
0
0
0.461936
0.437353
0.41444
0.393325
0.374041
0.356736
0.342096
0.326287
0.315051
0.306255
0.29946
0.294583
0.291384
0.289478
0.288494
0.28797
0.286818
0.285092
0.282765
0.279828
0.27655
0.272638
0.268367
0.263269
0.257576
0.251046
0.244295
0.23726
0.229861
0.222046
0.213789
0.205713
0.197789
0.189746
0.181448
0.172818
0.163856
0.154597
0.145047
0.135089
0.124571
0.117286
0.107393
0.0973315
0.0873416
0.0773735
0.0674089
0.057473
0.0476591
0.0381749
0.0290839
0.019777
0.010386
0.00108664
-0.008049
-0.0169139
-0.0265794
-0.0355824
-0.0462409
-0.0462409
0
0
0.461874
0.43714
0.414202
0.393215
0.373989
0.356332
0.339451
0.328932
0.318059
0.309682
0.302065
0.297198
0.2941
0.292243
0.291069
0.290829
0.289432
0.287663
0.285424
0.28254
0.279649
0.275733
0.271033
0.265453
0.219747
0.252564
0.24611
0.23912
0.231681
0.223872
0.215811
0.207627
0.199321
0.190803
0.182048
0.17306
0.163853
0.154434
0.144803
0.134974
0.125195
0.116414
0.106928
0.0971042
0.0871769
0.0771961
0.0672102
0.0572656
0.0474093
0.0377324
0.0282323
0.0188788
0.0096452
0.000568162
-0.00837857
-0.0173189
-0.0267743
-0.0363935
-0.0471815
-0.0471815
0
0
0.46175
0.436617
0.420459
0.393209
0.374218
0.357006
0.341673
0.329839
0.319637
0.311187
0.30469
0.300138
0.297359
0.296232
0.29306
0.293127
0.291481
0.279804
0.288472
0.285833
0.283246
0.279064
0.27413
0.268727
0.262864
0.255924
0.248784
0.241421
0.23378
0.22586
0.217706
0.209349
0.200769
0.191909
0.182806
0.173518
0.16408
0.154509
0.144834
0.135113
0.12547
0.11596
0.106356
0.0966582
0.0868597
0.0769183
0.0669322
0.056955
0.0469748
0.0371236
0.0274879
0.0180907
0.00891842
-3.73749e-05
-0.00892822
-0.0179248
-0.0271945
-0.0369566
-0.0462409
-0.0477527
0
0
0.461722
0.435137
0.412842
0.392788
0.374551
0.358153
0.34383
0.33187
0.32191
0.313874
0.307773
0.303526
0.300876
0.299222
0.296204
0.0810152
0.29329
0.29405
0.293126
0.291302
0.286759
0.282339
0.277427
0.272044
0.265319
0.258415
0.251251
0.243778
0.235993
0.227923
0.219606
0.211061
0.202251
0.193059
0.183625
0.174067
0.16442
0.154692
0.144925
0.13516
0.125427
0.115596
0.105833
0.0961864
0.086495
0.0765497
0.0665639
0.0565759
0.0464408
0.036447
0.0267576
0.0173511
0.00820256
-0.000671604
-0.00955193
-0.0185641
-0.0278249
-0.0433468
-0.0484619
-0.0484619
0
0
0.463987
0.43163
0.41217
0.393108
0.375552
0.359841
0.346212
0.334672
0.325082
0.317441
0.311708
0.307746
0.30529
0.303929
0.303254
0.305097
0.30344
0.3015
0.299095
0.295981
0.291601
0.286634
0.281192
0.275518
0.267979
0.261135
0.253924
0.24629
0.238324
0.230056
0.221547
0.212824
0.203817
0.194216
0.184435
0.174639
0.164807
0.154894
0.144937
0.13501
0.125159
0.115043
0.105173
0.0956335
0.0860861
0.0760506
0.0661049
0.0562202
0.0458993
0.0357985
0.0261196
0.016722
0.00754943
-0.00126536
-0.0193549
-0.0192044
-0.0283085
-0.0380341
-0.0559096
-0.0490789
0
0
0.462082
0.435673
0.413927
0.394573
0.377341
0.362121
0.34911
0.338254
0.329208
0.322081
0.316768
0.313099
0.310855
0.309837
0.30958
0.309955
0.309131
0.307317
0.304599
0.300969
0.296414
0.291
0.284775
0.277541
0.272013
0.264748
0.256977
0.248933
0.24075
0.232228
0.223496
0.214616
0.205484
0.195275
0.185169
0.175223
0.165248
0.155116
0.144759
0.134524
0.124548
0.114022
0.104107
0.0947887
0.0855089
0.0752631
0.0655238
0.0560415
0.0455029
0.0354009
0.0258248
0.0164218
0.00711278
-0.00148156
-0.0105193
-0.0196952
-0.0288776
-0.0385208
-0.0491521
-0.0491521
0
0
0.462021
0.437539
0.415817
0.39656
0.372704
0.3649
0.352324
0.34287
0.334523
0.328037
0.323201
0.31977
0.317502
0.278037
0.315887
0.315817
0.31494
0.313041
0.310092
0.306152
0.301316
0.295454
0.288822
0.281732
0.27492
0.267515
0.259597
0.251223
0.243279
0.23432
0.225326
0.216294
0.207201
0.196014
0.185836
0.175898
0.165837
0.155645
0.144141
0.133416
0.123011
0.112053
0.102284
0.093208
0.0844141
0.0739255
0.0647747
0.056243
0.0455829
0.0357644
0.02634
0.0168085
0.00706641
-0.00178232
-0.0112655
-0.0204777
-0.0296587
-0.0392771
-0.0498756
-0.0498756
0
0
0.462224
0.43855
0.417393
0.398763
0.382672
0.368879
0.357431
0.3486
0.341311
0.335583
0.331246
0.328
0.32585
0.324887
0.323939
0.322979
0.321493
0.319126
0.315748
0.311413
0.306256
0.299785
0.29271
0.285396
0.277943
0.270188
0.262059
0.253578
0.245035
0.236028
0.226766
0.217435
0.208441
0.19643
0.18674
0.176828
0.166467
0.155683
0.143991
0.131749
-0.000660594
0.108914
0.0994326
0.0899368
0.0816653
0.0721927
0.0638809
0.0565767
0.047154
0.0379983
0.0283094
0.0182907
0.00829373
-0.00295369
-0.0123769
-0.0215283