# vtk DataFile Version 2.0
FlowField
ASCII
DATASET STRUCTURED_GRID
DIMENSIONS 62 47 32 
POINTS 93248 double
0 0 0
0.01 0 0
0.02 0 0
0.03 0 0
0.04 0 0
0.05 0 0
0.06 0 0
0.07 0 0
0.08 0 0
0.09 0 0
0.1 0 0
0.11 0 0
0.12 0 0
0.13 0 0
0.14 0 0
0.15 0 0
0.16 0 0
0.17 0 0
0.18 0 0
0.19 0 0
0.2 0 0
0.21 0 0
0.22 0 0
0.23 0 0
0.24 0 0
0.25 0 0
0.26 0 0
0.27 0 0
0.28 0 0
0.29 0 0
0.3 0 0
0.31 0 0
0.32 0 0
0.33 0 0
0.34 0 0
0.35 0 0
0.36 0 0
0.37 0 0
0.38 0 0
0.39 0 0
0.4 0 0
0.41 0 0
0.42 0 0
0.43 0 0
0.44 0 0
0.45 0 0
0.46 0 0
0.47 0 0
0.48 0 0
0.49 0 0
0.5 0 0
0.51 0 0
0.52 0 0
0.53 0 0
0.54 0 0
0.55 0 0
0.56 0 0
0.57 0 0
0.58 0 0
0.59 0 0
0.6 0 0
0.61 0 0
0 0.01 0
0.01 0.01 0
0.02 0.01 0
0.03 0.01 0
0.04 0.01 0
0.05 0.01 0
0.06 0.01 0
0.07 0.01 0
0.08 0.01 0
0.09 0.01 0
0.1 0.01 0
0.11 0.01 0
0.12 0.01 0
0.13 0.01 0
0.14 0.01 0
0.15 0.01 0
0.16 0.01 0
0.17 0.01 0
0.18 0.01 0
0.19 0.01 0
0.2 0.01 0
0.21 0.01 0
0.22 0.01 0
0.23 0.01 0
0.24 0.01 0
0.25 0.01 0
0.26 0.01 0
0.27 0.01 0
0.28 0.01 0
0.29 0.01 0
0.3 0.01 0
0.31 0.01 0
0.32 0.01 0
0.33 0.01 0
0.34 0.01 0
0.35 0.01 0
0.36 0.01 0
0.37 0.01 0
0.38 0.01 0
0.39 0.01 0
0.4 0.01 0
0.41 0.01 0
0.42 0.01 0
0.43 0.01 0
0.44 0.01 0
0.45 0.01 0
0.46 0.01 0
0.47 0.01 0
0.48 0.01 0
0.49 0.01 0
0.5 0.01 0
0.51 0.01 0
0.52 0.01 0
0.53 0.01 0
0.54 0.01 0
0.55 0.01 0
0.56 0.01 0
0.57 0.01 0
0.58 0.01 0
0.59 0.01 0
0.6 0.01 0
0.61 0.01 0
0 0.02 0
0.01 0.02 0
0.02 0.02 0
0.03 0.02 0
0.04 0.02 0
0.05 0.02 0
0.06 0.02 0
0.07 0.02 0
0.08 0.02 0
0.09 0.02 0
0.1 0.02 0
0.11 0.02 0
0.12 0.02 0
0.13 0.02 0
0.14 0.02 0
0.15 0.02 0
0.16 0.02 0
0.17 0.02 0
0.18 0.02 0
0.19 0.02 0
0.2 0.02 0
0.21 0.02 0
0.22 0.02 0
0.23 0.02 0
0.24 0.02 0
0.25 0.02 0
0.26 0.02 0
0.27 0.02 0
0.28 0.02 0
0.29 0.02 0
0.3 0.02 0
0.31 0.02 0
0.32 0.02 0
0.33 0.02 0
0.34 0.02 0
0.35 0.02 0
0.36 0.02 0
0.37 0.02 0
0.38 0.02 0
0.39 0.02 0
0.4 0.02 0
0.41 0.02 0
0.42 0.02 0
0.43 0.02 0
0.44 0.02 0
0.45 0.02 0
0.46 0.02 0
0.47 0.02 0
0.48 0.02 0
0.49 0.02 0
0.5 0.02 0
0.51 0.02 0
0.52 0.02 0
0.53 0.02 0
0.54 0.02 0
0.55 0.02 0
0.56 0.02 0
0.57 0.02 0
0.58 0.02 0
0.59 0.02 0
0.6 0.02 0
0.61 0.02 0
0 0.03 0
0.01 0.03 0
0.02 0.03 0
0.03 0.03 0
0.04 0.03 0
0.05 0.03 0
0.06 0.03 0
0.07 0.03 0
0.08 0.03 0
0.09 0.03 0
0.1 0.03 0
0.11 0.03 0
0.12 0.03 0
0.13 0.03 0
0.14 0.03 0
0.15 0.03 0
0.16 0.03 0
0.17 0.03 0
0.18 0.03 0
0.19 0.03 0
0.2 0.03 0
0.21 0.03 0
0.22 0.03 0
0.23 0.03 0
0.24 0.03 0
0.25 0.03 0
0.26 0.03 0
0.27 0.03 0
0.28 0.03 0
0.29 0.03 0
0.3 0.03 0
0.31 0.03 0
0.32 0.03 0
0.33 0.03 0
0.34 0.03 0
0.35 0.03 0
0.36 0.03 0
0.37 0.03 0
0.38 0.03 0
0.39 0.03 0
0.4 0.03 0
0.41 0.03 0
0.42 0.03 0
0.43 0.03 0
0.44 0.03 0
0.45 0.03 0
0.46 0.03 0
0.47 0.03 0
0.48 0.03 0
0.49 0.03 0
0.5 0.03 0
0.51 0.03 0
0.52 0.03 0
0.53 0.03 0
0.54 0.03 0
0.55 0.03 0
0.56 0.03 0
0.57 0.03 0
0.58 0.03 0
0.59 0.03 0
0.6 0.03 0
0.61 0.03 0
0 0.04 0
0.01 0.04 0
0.02 0.04 0
0.03 0.04 0
0.04 0.04 0
0.05 0.04 0
0.06 0.04 0
0.07 0.04 0
0.08 0.04 0
0.09 0.04 0
0.1 0.04 0
0.11 0.04 0
0.12 0.04 0
0.13 0.04 0
0.14 0.04 0
0.15 0.04 0
0.16 0.04 0
0.17 0.04 0
0.18 0.04 0
0.19 0.04 0
0.2 0.04 0
0.21 0.04 0
0.22 0.04 0
0.23 0.04 0
0.24 0.04 0
0.25 0.04 0
0.26 0.04 0
0.27 0.04 0
0.28 0.04 0
0.29 0.04 0
0.3 0.04 0
0.31 0.04 0
0.32 0.04 0
0.33 0.04 0
0.34 0.04 0
0.35 0.04 0
0.36 0.04 0
0.37 0.04 0
0.38 0.04 0
0.39 0.04 0
0.4 0.04 0
0.41 0.04 0
0.42 0.04 0
0.43 0.04 0
0.44 0.04 0
0.45 0.04 0
0.46 0.04 0
0.47 0.04 0
0.48 0.04 0
0.49 0.04 0
0.5 0.04 0
0.51 0.04 0
0.52 0.04 0
0.53 0.04 0
0.54 0.04 0
0.55 0.04 0
0.56 0.04 0
0.57 0.04 0
0.58 0.04 0
0.59 0.04 0
0.6 0.04 0
0.61 0.04 0
0 0.05 0
0.01 0.05 0
0.02 0.05 0
0.03 0.05 0
0.04 0.05 0
0.05 0.05 0
0.06 0.05 0
0.07 0.05 0
0.08 0.05 0
0.09 0.05 0
0.1 0.05 0
0.11 0.05 0
0.12 0.05 0
0.13 0.05 0
0.14 0.05 0
0.15 0.05 0
0.16 0.05 0
0.17 0.05 0
0.18 0.05 0
0.19 0.05 0
0.2 0.05 0
0.21 0.05 0
0.22 0.05 0
0.23 0.05 0
0.24 0.05 0
0.25 0.05 0
0.26 0.05 0
0.27 0.05 0
0.28 0.05 0
0.29 0.05 0
0.3 0.05 0
0.31 0.05 0
0.32 0.05 0
0.33 0.05 0
0.34 0.05 0
0.35 0.05 0
0.36 0.05 0
0.37 0.05 0
0.38 0.05 0
0.39 0.05 0
0.4 0.05 0
0.41 0.05 0
0.42 0.05 0
0.43 0.05 0
0.44 0.05 0
0.45 0.05 0
0.46 0.05 0
0.47 0.05 0
0.48 0.05 0
0.49 0.05 0
0.5 0.05 0
0.51 0.05 0
0.52 0.05 0
0.53 0.05 0
0.54 0.05 0
0.55 0.05 0
0.56 0.05 0
0.57 0.05 0
0.58 0.05 0
0.59 0.05 0
0.6 0.05 0
0.61 0.05 0
0 0.06 0
0.01 0.06 0
0.02 0.06 0
0.03 0.06 0
0.04 0.06 0
0.05 0.06 0
0.06 0.06 0
0.07 0.06 0
0.08 0.06 0
0.09 0.06 0
0.1 0.06 0
0.11 0.06 0
0.12 0.06 0
0.13 0.06 0
0.14 0.06 0
0.15 0.06 0
0.16 0.06 0
0.17 0.06 0
0.18 0.06 0
0.19 0.06 0
0.2 0.06 0
0.21 0.06 0
0.22 0.06 0
0.23 0.06 0
0.24 0.06 0
0.25 0.06 0
0.26 0.06 0
0.27 0.06 0
0.28 0.06 0
0.29 0.06 0
0.3 0.06 0
0.31 0.06 0
0.32 0.06 0
0.33 0.06 0
0.34 0.06 0
0.35 0.06 0
0.36 0.06 0
0.37 0.06 0
0.38 0.06 0
0.39 0.06 0
0.4 0.06 0
0.41 0.06 0
0.42 0.06 0
0.43 0.06 0
0.44 0.06 0
0.45 0.06 0
0.46 0.06 0
0.47 0.06 0
0.48 0.06 0
0.49 0.06 0
0.5 0.06 0
0.51 0.06 0
0.52 0.06 0
0.53 0.06 0
0.54 0.06 0
0.55 0.06 0
0.56 0.06 0
0.57 0.06 0
0.58 0.06 0
0.59 0.06 0
0.6 0.06 0
0.61 0.06 0
0 0.07 0
0.01 0.07 0
0.02 0.07 0
0.03 0.07 0
0.04 0.07 0
0.05 0.07 0
0.06 0.07 0
0.07 0.07 0
0.08 0.07 0
0.09 0.07 0
0.1 0.07 0
0.11 0.07 0
0.12 0.07 0
0.13 0.07 0
0.14 0.07 0
0.15 0.07 0
0.16 0.07 0
0.17 0.07 0
0.18 0.07 0
0.19 0.07 0
0.2 0.07 0
0.21 0.07 0
0.22 0.07 0
0.23 0.07 0
0.24 0.07 0
0.25 0.07 0
0.26 0.07 0
0.27 0.07 0
0.28 0.07 0
0.29 0.07 0
0.3 0.07 0
0.31 0.07 0
0.32 0.07 0
0.33 0.07 0
0.34 0.07 0
0.35 0.07 0
0.36 0.07 0
0.37 0.07 0
0.38 0.07 0
0.39 0.07 0
0.4 0.07 0
0.41 0.07 0
0.42 0.07 0
0.43 0.07 0
0.44 0.07 0
0.45 0.07 0
0.46 0.07 0
0.47 0.07 0
0.48 0.07 0
0.49 0.07 0
0.5 0.07 0
0.51 0.07 0
0.52 0.07 0
0.53 0.07 0
0.54 0.07 0
0.55 0.07 0
0.56 0.07 0
0.57 0.07 0
0.58 0.07 0
0.59 0.07 0
0.6 0.07 0
0.61 0.07 0
0 0.08 0
0.01 0.08 0
0.02 0.08 0
0.03 0.08 0
0.04 0.08 0
0.05 0.08 0
0.06 0.08 0
0.07 0.08 0
0.08 0.08 0
0.09 0.08 0
0.1 0.08 0
0.11 0.08 0
0.12 0.08 0
0.13 0.08 0
0.14 0.08 0
0.15 0.08 0
0.16 0.08 0
0.17 0.08 0
0.18 0.08 0
0.19 0.08 0
0.2 0.08 0
0.21 0.08 0
0.22 0.08 0
0.23 0.08 0
0.24 0.08 0
0.25 0.08 0
0.26 0.08 0
0.27 0.08 0
0.28 0.08 0
0.29 0.08 0
0.3 0.08 0
0.31 0.08 0
0.32 0.08 0
0.33 0.08 0
0.34 0.08 0
0.35 0.08 0
0.36 0.08 0
0.37 0.08 0
0.38 0.08 0
0.39 0.08 0
0.4 0.08 0
0.41 0.08 0
0.42 0.08 0
0.43 0.08 0
0.44 0.08 0
0.45 0.08 0
0.46 0.08 0
0.47 0.08 0
0.48 0.08 0
0.49 0.08 0
0.5 0.08 0
0.51 0.08 0
0.52 0.08 0
0.53 0.08 0
0.54 0.08 0
0.55 0.08 0
0.56 0.08 0
0.57 0.08 0
0.58 0.08 0
0.59 0.08 0
0.6 0.08 0
0.61 0.08 0
0 0.09 0
0.01 0.09 0
0.02 0.09 0
0.03 0.09 0
0.04 0.09 0
0.05 0.09 0
0.06 0.09 0
0.07 0.09 0
0.08 0.09 0
0.09 0.09 0
0.1 0.09 0
0.11 0.09 0
0.12 0.09 0
0.13 0.09 0
0.14 0.09 0
0.15 0.09 0
0.16 0.09 0
0.17 0.09 0
0.18 0.09 0
0.19 0.09 0
0.2 0.09 0
0.21 0.09 0
0.22 0.09 0
0.23 0.09 0
0.24 0.09 0
0.25 0.09 0
0.26 0.09 0
0.27 0.09 0
0.28 0.09 0
0.29 0.09 0
0.3 0.09 0
0.31 0.09 0
0.32 0.09 0
0.33 0.09 0
0.34 0.09 0
0.35 0.09 0
0.36 0.09 0
0.37 0.09 0
0.38 0.09 0
0.39 0.09 0
0.4 0.09 0
0.41 0.09 0
0.42 0.09 0
0.43 0.09 0
0.44 0.09 0
0.45 0.09 0
0.46 0.09 0
0.47 0.09 0
0.48 0.09 0
0.49 0.09 0
0.5 0.09 0
0.51 0.09 0
0.52 0.09 0
0.53 0.09 0
0.54 0.09 0
0.55 0.09 0
0.56 0.09 0
0.57 0.09 0
0.58 0.09 0
0.59 0.09 0
0.6 0.09 0
0.61 0.09 0
0 0.1 0
0.01 0.1 0
0.02 0.1 0
0.03 0.1 0
0.04 0.1 0
0.05 0.1 0
0.06 0.1 0
0.07 0.1 0
0.08 0.1 0
0.09 0.1 0
0.1 0.1 0
0.11 0.1 0
0.12 0.1 0
0.13 0.1 0
0.14 0.1 0
0.15 0.1 0
0.16 0.1 0
0.17 0.1 0
0.18 0.1 0
0.19 0.1 0
0.2 0.1 0
0.21 0.1 0
0.22 0.1 0
0.23 0.1 0
0.24 0.1 0
0.25 0.1 0
0.26 0.1 0
0.27 0.1 0
0.28 0.1 0
0.29 0.1 0
0.3 0.1 0
0.31 0.1 0
0.32 0.1 0
0.33 0.1 0
0.34 0.1 0
0.35 0.1 0
0.36 0.1 0
0.37 0.1 0
0.38 0.1 0
0.39 0.1 0
0.4 0.1 0
0.41 0.1 0
0.42 0.1 0
0.43 0.1 0
0.44 0.1 0
0.45 0.1 0
0.46 0.1 0
0.47 0.1 0
0.48 0.1 0
0.49 0.1 0
0.5 0.1 0
0.51 0.1 0
0.52 0.1 0
0.53 0.1 0
0.54 0.1 0
0.55 0.1 0
0.56 0.1 0
0.57 0.1 0
0.58 0.1 0
0.59 0.1 0
0.6 0.1 0
0.61 0.1 0
0 0.11 0
0.01 0.11 0
0.02 0.11 0
0.03 0.11 0
0.04 0.11 0
0.05 0.11 0
0.06 0.11 0
0.07 0.11 0
0.08 0.11 0
0.09 0.11 0
0.1 0.11 0
0.11 0.11 0
0.12 0.11 0
0.13 0.11 0
0.14 0.11 0
0.15 0.11 0
0.16 0.11 0
0.17 0.11 0
0.18 0.11 0
0.19 0.11 0
0.2 0.11 0
0.21 0.11 0
0.22 0.11 0
0.23 0.11 0
0.24 0.11 0
0.25 0.11 0
0.26 0.11 0
0.27 0.11 0
0.28 0.11 0
0.29 0.11 0
0.3 0.11 0
0.31 0.11 0
0.32 0.11 0
0.33 0.11 0
0.34 0.11 0
0.35 0.11 0
0.36 0.11 0
0.37 0.11 0
0.38 0.11 0
0.39 0.11 0
0.4 0.11 0
0.41 0.11 0
0.42 0.11 0
0.43 0.11 0
0.44 0.11 0
0.45 0.11 0
0.46 0.11 0
0.47 0.11 0
0.48 0.11 0
0.49 0.11 0
0.5 0.11 0
0.51 0.11 0
0.52 0.11 0
0.53 0.11 0
0.54 0.11 0
0.55 0.11 0
0.56 0.11 0
0.57 0.11 0
0.58 0.11 0
0.59 0.11 0
0.6 0.11 0
0.61 0.11 0
0 0.12 0
0.01 0.12 0
0.02 0.12 0
0.03 0.12 0
0.04 0.12 0
0.05 0.12 0
0.06 0.12 0
0.07 0.12 0
0.08 0.12 0
0.09 0.12 0
0.1 0.12 0
0.11 0.12 0
0.12 0.12 0
0.13 0.12 0
0.14 0.12 0
0.15 0.12 0
0.16 0.12 0
0.17 0.12 0
0.18 0.12 0
0.19 0.12 0
0.2 0.12 0
0.21 0.12 0
0.22 0.12 0
0.23 0.12 0
0.24 0.12 0
0.25 0.12 0
0.26 0.12 0
0.27 0.12 0
0.28 0.12 0
0.29 0.12 0
0.3 0.12 0
0.31 0.12 0
0.32 0.12 0
0.33 0.12 0
0.34 0.12 0
0.35 0.12 0
0.36 0.12 0
0.37 0.12 0
0.38 0.12 0
0.39 0.12 0
0.4 0.12 0
0.41 0.12 0
0.42 0.12 0
0.43 0.12 0
0.44 0.12 0
0.45 0.12 0
0.46 0.12 0
0.47 0.12 0
0.48 0.12 0
0.49 0.12 0
0.5 0.12 0
0.51 0.12 0
0.52 0.12 0
0.53 0.12 0
0.54 0.12 0
0.55 0.12 0
0.56 0.12 0
0.57 0.12 0
0.58 0.12 0
0.59 0.12 0
0.6 0.12 0
0.61 0.12 0
0 0.13 0
0.01 0.13 0
0.02 0.13 0
0.03 0.13 0
0.04 0.13 0
0.05 0.13 0
0.06 0.13 0
0.07 0.13 0
0.08 0.13 0
0.09 0.13 0
0.1 0.13 0
0.11 0.13 0
0.12 0.13 0
0.13 0.13 0
0.14 0.13 0
0.15 0.13 0
0.16 0.13 0
0.17 0.13 0
0.18 0.13 0
0.19 0.13 0
0.2 0.13 0
0.21 0.13 0
0.22 0.13 0
0.23 0.13 0
0.24 0.13 0
0.25 0.13 0
0.26 0.13 0
0.27 0.13 0
0.28 0.13 0
0.29 0.13 0
0.3 0.13 0
0.31 0.13 0
0.32 0.13 0
0.33 0.13 0
0.34 0.13 0
0.35 0.13 0
0.36 0.13 0
0.37 0.13 0
0.38 0.13 0
0.39 0.13 0
0.4 0.13 0
0.41 0.13 0
0.42 0.13 0
0.43 0.13 0
0.44 0.13 0
0.45 0.13 0
0.46 0.13 0
0.47 0.13 0
0.48 0.13 0
[...]
POINT_DATA 93248

SCALARS w double
LOOKUP_TABLE default
0
0
0
0
0
0
0
0
0
0
0
0
0
-0.0462706
0
0
0
0
0
0
0
0
0
0
0
0
-0.0926671
0
0
0
0
0
-0.0878204
0
0
0
0
0
0
0
0
0
0
0
0
0
-0.0814603
0
0
0
0
0
0
0
0
0
0
0
0
0
0
0
0
-0.0184265
-0.034305
-0.0451909
-0.0511969
-0.0537716
-0.0547918
-0.0552224
-0.0551311
-0.0549242
-0.0546919
-0.0543062
-0.053635
-0.053732
-0.0540949
-0.0545009
-0.0548371
-0.0552823
-0.0557411
-0.0557685
-0.0519707
-0.0515049
-0.0525027
-0.0526645
-0.0527333
-0.052737
-0.052682
-0.0525883
-0.0524709
-0.0523309
-0.0521466
-0.0518538
-0.0513985
-0.0514321
-0.0514355
-0.0508845
-0.0500524
-0.05038
-0.0520089
-0.0577067
-0.0494303
-0.0512015
-0.0528737
-0.0537981
-0.0551928
-0.0969901
-0.0522956
-0.0518698
-0.0519162
-0.0526254
-0.053307
-0.0540897
-0.0525971
-0.0542943
-0.0967814
-0.0542498
-0.0521481
-0.050847
-0.051377
-0.0509985
-0.0493488
0
0
-0.0213959
-0.0483224
-0.0632766
-0.073617
-0.0802079
-0.0865877
-0.0902742
-0.0920127
-0.09259
-0.0927418
-0.0925241
-0.0917076
-0.0924241
-0.0931328
-0.0938056
-0.0943316
-0.0951786
-0.0962173
-0.0980553
-0.0902354
-0.090419
-0.105394
-0.0920237
-0.0917398
-0.0916671
-0.0915798
-0.0914484
-0.0912818
-0.0910871
-0.0908527
-0.0904953
-0.0896941
-0.0898889
-0.0900334
-0.0890976
-0.0886528
-0.0874077
-0.0867647
-0.0950836
-0.0924446
-0.0925519
-0.0930017
-0.093298
-0.0945201
-0.0962608
-0.0946176
-0.0922341
-0.0915691
-0.0919022
-0.0923265
-0.0973682
-0.0922192
-0.0932709
-0.0951269
-0.0938146
-0.0929844
-0.090389
-0.0899827
-0.0882168
-0.0839942
0
0
-0.0212011
-0.047987
-0.0647513
-0.0769241
-0.0537716
-0.0921261
-0.0985015
-0.101884
-0.103391
-0.10419
-0.104024
-0.105364
-0.10519
-0.105212
-0.105325
-0.105755
-0.106818
-0.107248
-0.108095
-0.106908
-0.105101
-0.104694
-0.104054
-0.103714
-0.103518
-0.103355
-0.103185
-0.103002
-0.102814
-0.102654
-0.102631
-0.103041
-0.102843
-0.102645
-0.100448
-0.100049
-0.0995097
-0.0995664
-0.103183
-0.103872
-0.104355
-0.104959
-0.104284
-0.105178
-0.106387
-0.104387
-0.103374
-0.10269
-0.103652
-0.103675
-0.103743
-0.103602
-0.104042
-0.104662
-0.104635
-0.104618
-0.104384
-0.102485
-0.0996331
-0.0941977
0
0
-0.020761
-0.0468351
-0.046676
-0.0769812
-0.086648
-0.0950389
-0.100764
-0.104128
-0.105683
-0.106222
-0.106215
-0.10662
-0.10679
-0.106929
-0.107023
-0.106969
-0.106435
-0.107098
-0.107907
-0.107459
-0.106847
-0.10636
-0.105918
-0.10558
-0.105319
-0.105096
-0.104887
-0.104685
-0.104493
-0.104327
-0.104221
-0.104178
-0.103777
-0.103604
-0.102716
-0.102301
-0.10205
-0.101075
-0.103572
-0.104512
-0.105106
-0.105491
-0.105369
-0.105692
-0.106136
-0.105671
-0.104844
-0.104351
-0.104626
-0.104691
-0.104708
-0.104744
-0.104946
-0.105207
-0.105372
-0.105467
-0.10527
-0.10399
-0.101131
-0.0954497
0
0
-0.0205856
-0.0466375
-0.0643179
-0.0781169
-0.0882234
-0.0959118
-0.101182
-0.10425
-0.105681
-0.10605
-0.105976
-0.105975
-0.106039
-0.106096
-0.106222
-0.106005
-0.105758
-0.105868
-0.106166
-0.106041
-0.105744
-0.105394
-0.105044
-0.104725
-0.104443
-0.104192
-0.10396
-0.103743
-0.103542
-0.103352
-0.103152
-0.102843
-0.102221
-0.102135
-0.101963
-0.101831
-0.10178
-0.101909
-0.102448
-0.102978
-0.103379
-0.103625
-0.103682
-0.103801
-0.104037
-0.104528
-0.103508
-0.103118
-0.103135
-0.10319
-0.103244
-0.103341
-0.103511
-0.103695
-0.103835
-0.103869
-0.103579
-0.102419
-0.0995812
-0.0941802
0
0
-0.0204914
-0.046483
-0.0647009
-0.0783376
-0.0885305
-0.0961088
-0.101013
-0.103712
-0.105101
-0.105445
-0.105328
-0.105183
-0.10512
-0.10505
-0.104861
-0.104463
-0.104622
-0.101884
-0.104859
-0.10484
-0.104585
-0.104251
-0.103906
-0.103578
-0.103278
-0.103017
-0.102774
-0.10255
-0.102348
-0.102161
-0.101952
-0.101573
-0.100513
-0.100903
-0.10103
-0.101016
-0.101002
-0.101075
-0.101274
-0.101512
-0.101719
-0.101854
-0.101874
-0.101801
-0.101453
-0.100448
-0.100942
-0.101274
-0.101462
-0.101562
-0.101641
-0.101782
-0.102022
-0.102236
-0.10235
-0.102287
-0.101757
-0.100022
-0.0961958
-0.091904
0
0
-0.0204197
-0.0463174
-0.0645866
-0.0782093
-0.0884572
-0.0962452
-0.100662
-0.103745
-0.104916
-0.105041
-0.10478
-0.104487
-0.10433
-0.104121
-0.103595
-0.10248
-0.103703
-0.104302
-0.10443
-0.104202
-0.103814
-0.103404
-0.103014
-0.102655
-0.102326
-0.102074
-0.101823
-0.101596
-0.101407
-0.101264
-0.101179
-0.101303
-0.102184
-0.101416
-0.100838
-0.100496
-0.10033
-0.100289
-0.100334
-0.100419
-0.100509
-0.100577
-0.100535
-0.100445
-0.100195
-0.0997857
-0.0999111
-0.100108
-0.100233
-0.10028
-0.100317
-0.100488
-0.100919
-0.101244
-0.101363
-0.101233
-0.100422
-0.0971432
-0.0509985
-0.0898123
0
0
-0.0203588
-0.0461595
-0.0643807
-0.077964
-0.0881576
-0.0956703
-0.100446
-0.103259
-0.10438
-0.104487
-0.104176
-0.103644
-0.103597
-0.103383
-0.102482
-0.0994637
-0.0981702
-0.104397
-0.104236
-0.103781
-0.103212
-0.102745
-0.102331
-0.101945
-0.101564
-0.101371
-0.101099
-0.100865
-0.100699
-0.100609
-0.100555
-0.100602
-0.100824
-0.100533
-0.100155
-0.0998637
-0.0996896
-0.0996105
-0.0995931
-0.0996087
-0.0996356
-0.0996539
-0.0996279
-0.0995684
-0.0994534
-0.0993181
-0.0993168
-0.0993578
-0.0993559
-0.0992771
-0.0991768
-0.0993128
-0.100202
-0.100712
-0.100858
-0.100828
-0.100603
-0.0995961
-0.0948019
-0.0905159
0
0
-0.0203073
-0.0460212
-0.064179
-0.0777094
-0.0878478
-0.095242
-0.100102
-0.102824
-0.103899
-0.103987
-0.103593
-0.0917076
-0.102896
-0.103067
-0.10264
-0.101599
-0.102758
-0.103435
-0.103436
-0.103086
-0.102515
-0.102163
-0.101787
-0.101395
-0.100977
-0.10072
-0.100464
-0.100249
-0.100127
-0.100139
-0.100084
-0.0999969
-0.0998949
-0.0996767
-0.0994298
-0.0992223
-0.0990918
-0.0990226
-0.0989903
-0.0989794
-0.0989792
-0.0989795
-0.0989685
-0.0989435
-0.0989018
-0.0988568
-0.0988321
-0.098797
-0.0986938
-0.0984611
-0.0981013
-0.0969094
-0.0999048
-0.100559
-0.100623
-0.100548
-0.100376
-0.0995534
-0.096489
-0.0907528
0
0
-0.0202653
-0.0459075
-0.0640066
-0.0774765
-0.0875789
-0.0949314
-0.099789
-0.102476
-0.103531
-0.103642
-0.103379
-0.102906
-0.103044
-0.103089
-0.10298
-0.102666
-0.10281
-0.102898
-0.102768
-0.102499
-0.102366
-0.101906
-0.101435
-0.100964
-0.0993056
-0.100157
-0.0998971
-0.0996727
-0.0995863
-0.0997917
-0.0997627
-0.0995381
-0.0992596
-0.0990078
-0.0988013
-0.0986402
-0.0985527
-0.0985074
-0.0984786
-0.0984607
-0.098452
-0.0984498
-0.0984533
-0.0984552
-0.0984512
-0.0984412
-0.0984208
-0.0983653
-0.0982203
-0.0978999
-0.0973462
-0.0969094
-0.100254
-0.100561
-0.100419
-0.100268
-0.100069
-0.0992817
-0.0966077
-0.0907367
0
0
-0.0202331
-0.0458215
-0.0638775
-0.0772817
-0.0873879
-0.094729
-0.0995695
-0.102229
-0.103266
-0.103392
-0.103212
-0.10304
-0.103042
-0.103107
-0.103274
-0.103072
-0.102843
-0.102597
-0.102291
-0.101919
-0.101776
-0.10142
-0.101006
-0.100568
-0.1001
-0.0997179
-0.0993483
-0.0990332
-0.098844
-0.0989523
-0.0995803
-0.0989468
-0.0985446
-0.0983314
-0.098204
-0.0981109
-0.0980476
-0.0980353
-0.0980155
-0.0980002
-0.097992
-0.0979904
-0.0980175
-0.098048
-0.0980726
-0.0980879
-0.0980881
-0.0980568
-0.0979582
-0.0977441
-0.0974817
-0.0976004
-0.099239
-0.0998315
-0.0999251
-0.0998962
-0.0997597
-0.0990245
-0.0964601
-0.0906246
0
0
-0.0202103
-0.0457654
-0.0638209
-0.0773567
-0.0874044
-0.0946813
-0.0994642
-0.102076
-0.103081
-0.103198
-0.103046
-0.10293
-0.102919
-0.103005
-0.103514
-0.103047
-0.102611
-0.102226
-0.101847
-0.101493
-0.101234
-0.10093
-0.100573
-0.100168
-0.0997156
-0.0992304
-0.0987148
-0.0982098
-0.0976939
-0.0973172
-0.0962953
-0.0968355
-0.0972581
-0.0974849
-0.0975816
-0.0976024
-0.0975893
-0.0975765
-0.0975633
-0.0975567
-0.0975493
-0.0975158
-0.09761
-0.097689
-0.0977477
-0.0977916
-0.0978242
-0.0978461
-0.0978424
-0.0977598
-0.0977166
-0.0979431
-0.0986646
-0.0991488
-0.0993831
-0.0995037
-0.0994747
-0.0988036
-0.0962951
-0.0904938
0
0
-0.0201926
-0.0457203
-0.0637564
-0.0772552
-0.0872997
-0.0945688
-0.0993372
-0.101929
-0.102919
-0.103024
-0.102887
-0.102776
-0.102709
-0.102524
-0.101717
-0.101807
-0.1018
-0.101624
-0.101288
-0.101011
-0.100781
-0.100524
-0.100204
-0.0998033
-0.0993056
-0.0986849
-0.0979151
-0.0969865
-0.0955563
-0.0955686
-0.0956566
-0.0961334
-0.0965961
-0.0969147
-0.0970882
-0.0971533
-0.0971594
-0.097122
-0.0970976
-0.0970995
-0.0970808
-0.0951689
-0.0971874
-0.0973609
-0.0974632
-0.0975378
-0.0976044
-0.0976867
-0.0977973
-0.0977646
-0.0977996
-0.0980017
-0.0983809
-0.0987148
-0.0989764
-0.0991917
-0.099272
-0.0986312
-0.0961525
-0.0903688
0
0
-0.0201796
-0.045688
-0.0637128
-0.077964
-0.0872278
-0.0944633
-0.0992154
-0.101797
-0.102787
-0.102933
-0.102786
-0.102664
-0.102583
-0.102421
-0.102035
-0.101852
-0.101675
-0.101371
-0.100795
-0.100589
-0.100454
-0.100251
-0.0999451
-0.0995201
-0.0989384
-0.0981087
-0.0968355
-0.0946331
-0.0884824
-0.091408
-0.0936904
-0.0951025
-0.0959497
-0.0964298
-0.0966621
-0.0967342
-0.097063
-0.096613
-0.0965381
-0.0965715
-0.0966563
-0.096722
-0.0969233
-0.0970893
-0.0972156
-0.0973116
-0.097394
-0.0975022
-0.0977333
-0.0976427
-0.0977163
-0.0979338
-0.0982656
-0.0984829
-0.0987286
-0.0989971
-0.100022
-0.0985201
-0.0960377
-0.0902546
0
0
-0.0201717
-0.0456701
-0.0636634
-0.077099
-0.0871075
-0.0943569
-0.0991071
-0.101683
-0.10267
-0.102805
-0.102674
-0.102565
-0.102501
-0.102398
-0.102202
-0.101993
-0.101747
-0.101358
-0.100366
-0.100476
-0.100436
-0.100217
-0.0998593
-0.0993703
-0.0986912
-0.0976303
-0.0955469
-0.0894435
0.0453008
-0.0824453
-0.090658
-0.0939107
-0.0953682
-0.0960344
-0.09629
-0.0962957
-0.0961415
-0.0958656
-0.0956077
-0.095735
-0.0960282
-0.0963286
-0.0966034
-0.0968234
-0.0969901
-0.0971029
-0.0971643
-0.0971427
-0.0969582
-0.0972015
-0.097475
-0.0978229
-0.0999048
-0.0983975
-0.0986138
-0.0988294
-0.0989798
-0.0983892
-0.0959388
-0.0901469
0
0
-0.0201699
-0.045687
-0.0636462
-0.0770196
-0.0870209
-0.0942741
-0.0990211
-0.101592
-0.102577
-0.102713
-0.102596
-0.102499
-0.102448
-0.102374
-0.10224
-0.102062
-0.101875
-0.101805
-0.102387
-0.101703
-0.10105
-0.100481
-0.0999414
-0.0993596
-0.0986458
-0.0976361
-0.0959724
-0.0927983
-0.0863893
-0.0900507
-0.0929684
-0.0946608
-0.0955534
-0.0959561
-0.0960442
-0.095861
-0.0953908
-0.0945542
-0.0933249
-0.0939355
-0.0948775
-0.0956429
-0.0961784
-0.0965386
-0.0967838
-0.0969268
-0.0970002
-0.0970025
-0.0969061
-0.0969448
-0.0972333
-0.0975964
-0.0979941
-0.0982835
-0.0987393
-0.0987638
-0.0988786
-0.0983156
-0.0958636
-0.0900306
0
0
-0.0201581
-0.0457292
-0.0635917
-0.0769073
-0.0869012
-0.0942025
-0.098954
-0.101524
-0.102511
-0.102661
-0.102571
-0.102481
-0.102419
-0.102337
-0.102215
-0.102053
-0.101876
-0.101753
-0.101785
-0.101436
-0.100955
-0.100446
-0.0999233
-0.099363
-0.098716
-0.0979071
-0.0968299
-0.0953099
-0.093724
-0.0941413
-0.0949387
-0.0955555
-0.0958929
-0.0959763
-0.0958687
-0.0954215
-0.0943578
-0.0918159
-0.0855317
-0.0895686
-0.0927652
-0.0946318
-0.0956646
-0.0962456
-0.0966013
-0.0967798
-0.0968815
-0.0969006
-0.0967926
-0.0965942
-0.097001
-0.0974236
-0.0978047
-0.0983312
-0.105372
-0.0988062
-0.0989037
-0.0982973
-0.0957988
-0.0898856
0
0
-0.0200647
-0.0452535
-0.0631945
-0.0765837
-0.086685
-0.0949314
-0.0989558
-0.101502
-0.102482
-0.10265
-0.102631
-0.102524
-0.102398
-0.102256
-0.102132
-0.101986
-0.101804
-0.101602
-0.101409
-0.101117
-0.100746
-0.100326
-0.0998694
-0.0993731
-0.0988228
-0.0982065
-0.0975374
-0.0965144
-0.0956418
-0.095662
-0.0959236
-0.096112
-0.0961339
-0.0959749
-0.0957843
-0.095103
-0.0932527
-0.086775
0.0508805
-0.0809813
-0.0901863
-0.0937293
-0.0952782
-0.0960201
-0.0963908
-0.0966479
-0.0968078
-0.0968873
-0.0968059
-0.0962981
-0.0970049
-0.0974073
-0.0976885
-0.098005
-0.098439
-0.0983023
-0.0989437
-0.0982652
-0.0957209
-0.0894007
0
0
-0.0200567
-0.0453073
-0.0631617
-0.0764384
-0.0865617
-0.0942064
-0.0990017
-0.101516
-0.102461
-0.102649
-0.102823
-0.1026
-0.102296
-0.102016
-0.101947
-0.101872
-0.101711
-0.101452
-0.101206
-0.100935
-0.100617
-0.100251
-0.0998447
-0.0994011
-0.0989203
-0.0984029
-0.0978452
-0.0971992
-0.0961632
-0.0964325
-0.0965691
-0.0965358
-0.0963398
-0.0959638
-0.0959001
-0.0952379
-0.0938288
-0.0907323
-0.0841202
-0.0885767
-0.092342
-0.0943574
-0.09544
-0.0960357
-0.0963794
-0.0966149
-0.0968053
-0.0970296
-0.097454
-0.0983835
-0.0978581
-0.0976446
-0.0976625
-0.0978166
-0.0980506
-0.0982644
-0.0986164
-0.0980753
-0.09559
-0.0896781
0
0
-0.0200678
-0.0453657
-0.0631872
-0.0763021
-0.0865185
-0.0944974
-0.0990222
-0.101403
-0.10229
-0.102483
-0.10303
-0.102396
-0.101826
-0.101353
-0.101623
-0.101747
-0.101643
-0.101286
-0.101075
-0.10086
-0.100583
-0.100246
-0.0998655
-0.0994499
-0.0989986
-0.0984994
-0.0978896
-0.0979227
-0.0986216
-0.0979772
-0.097432
-0.0970001
-0.0966102
-0.0962226
-0.0959633
-0.0955003
-0.0947364
-0.093606
-0.0923644
-0.0931034
-0.0942743
-0.0951689
-0.0957784
-0.0961681
-0.0964277
-0.0966155
-0.0967861
-0.0970025
-0.0973362
-0.097766
-0.0976901
-0.097575
-0.0975703
-0.0976995
-0.0979558
-0.0982437
-0.0984473
-0.0979341
-0.095509
-0.0897061
0
0
-0.0200799
-0.0454165
-0.0633215
-0.0768919
-0.0866551
-0.0930809
-0.0980027
-0.100753
-0.101814
-0.101799
-0.100709
-0.100797
-0.100621
-0.100119
-0.101373
-0.101748
-0.101698
-0.101153
-0.101119
-0.100951
-0.100667
-0.100317
-0.0999361
-0.0995246
-0.099063
-0.0984195
-0.090518
-0.0977156
-0.0981235
-0.09792
-0.0975251
-0.0970993
-0.0966761
-0.0962776
-0.0960078
-0.0957234
-0.0953785
-0.0950123
-0.0947953
-0.0949781
-0.0953626
-0.0957624
-0.0961357
-0.0963423
-0.0965033
-0.096624
-0.0967432
-0.0969042
-0.0971272
-0.0973682
-0.0974512
-0.0974135
-0.0974207
-0.0975669
-0.0979234
-0.0982416
-0.0983992
-0.0978812
-0.0954631
-0.0897011
0
0
-0.0200838
-0.0454291
-0.0633231
-0.0767237
-0.0866025
-0.0935212
-0.0982141
-0.100832
-0.101845
-0.101875
-0.101351
-0.101067
-0.100567
-0.100321
-0.101331
-0.101838
-0.102022
-0.102346
-0.101858
-0.101342
-0.100869
-0.10044
-0.100046
-0.0996379
-0.0991997
-0.0987064
-0.0980754
-0.0980648
-0.0980125
-0.0977855
-0.0974383
-0.0970057
-0.0964905
-0.0958925
-0.0957715
-0.0957049
-0.0956632
-0.0956195
-0.0956324
-0.0957376
-0.0959175
-0.0961647
-0.098048
-0.0965392
-0.0965824
-0.0966308
-0.09669
-0.0968027
-0.0969849
-0.0972226
-0.0973721
-0.0972861
-0.0972477
-0.097377
-0.0979496
-0.0982838
-0.098432
-0.097919
-0.0954611
-0.0896841
0
0
-0.020083
-0.0454261
-0.0633033
-0.0766427
-0.0865856
-0.0937387
-0.0984698
-0.101072
-0.102117
-0.102262
-0.101966
-0.101757
-0.101762
-0.102893
-0.102728
-0.1025
-0.1023
-0.102135
-0.101748
-0.101297
-0.100859
-0.100473
-0.100156
-0.0997694
-0.0993467
-0.0989304
-0.0985587
-0.0983302
-0.0980685
-0.0977581
-0.0973656
-0.0968161
-0.0959105
-0.0940461
-0.0947963
-0.0951609
-0.0955889
-0.0958225
-0.0959613
-0.096078
-0.0962052
-0.0963559
-0.0965333
-0.0965771
-0.0966054
-0.0966276
-0.0966341
-0.0967058
-0.0968811
-0.0972218
-0.097478
-0.097232
-0.0971069
-0.0971207
-0.0980664
-0.0983402
-0.0985137
-0.0980726
-0.0955079
-0.0896621
0
0
-0.0200815
-0.0454223
-0.0632928
-0.0766229
-0.0866011
-0.0938475
-0.0986804
-0.101307
-0.102411
-0.0989045
-0.102477
-0.102239
-0.102258
-0.102589
-0.102583
-0.102433
-0.102309
-0.101949
-0.10155
-0.101145
-0.100764
-0.10046
-0.100321
-0.0999048
-0.099442
-0.0990377
-0.0987179
-0.0984907
-0.0981366
-0.0977887
-0.097359
-0.0966223
-0.094741
-0.0514355
-0.0925373
-0.0890131
-0.095268
-0.0958653
-0.0961208
-0.096264
-0.0963843
-0.0965033
-0.0965794
-0.0966075
-0.0966133
-0.096593
-0.0965751
-0.0965978
-0.0967384
-0.0972804
-0.0977099
-0.0973078
-0.0971659
-0.0972783
-0.0978098
-0.0982044
-0.0985504
-0.0983671
-0.0955653
-0.0896069
0
0
-0.020081
-0.0454222
-0.0632922
-0.0766248
-0.0866232
-0.0939194
-0.101929
-0.101534
-0.102571
-0.102778
-0.102573
-0.102379
-0.102323
-0.102364
-0.102331
-0.102281
-0.106512
-0.101932
-0.101429
-0.101019
-0.100653
-0.100383
-0.100489
-0.0998512
-0.0993434
-0.0989787
-0.0987124
-0.0985319
-0.0982061
-0.0978863
-0.0975603
-0.0968977
-0.0958002
-0.0937042
-0.0946817
-0.095202
-0.0957945
-0.0961205
-0.0962933
-0.0964098
-0.0965331
-0.0966761
-0.0966847
-0.0966429
-0.0966001
-0.0965573
-0.0965166
-0.096473
-0.0964734
-0.0972661
-0.0979625
-0.0971713
-0.0971439
-0.0972991
-0.0976169
-0.0979639
-0.0983411
-0.0985663
-0.0954034
-0.0894543
0
0
-0.0200825
-0.0454274
-0.0632988
-0.0766313
-0.0866317
-0.0939315
-0.0988509
-0.10161
-0.102666
-0.102776
-0.102543
-0.102342
-0.102252
-0.102206
-0.102127
-0.102018
-0.10197
-0.101624
-0.101268
-0.100904
-0.100511
-0.100026
-0.0990639
-0.0989777
-0.0988644
-0.0987519
-0.098597
-0.0983399
-0.098172
-0.098011
-0.100555
-0.0973588
-0.0967001
-0.0960994
-0.0960782
-0.0961614
-0.096289
-0.0963829
-0.0964476
-0.0965183
-0.0966568
-0.0969073
-0.0967945
-0.0966548
-0.096567
-0.0965141
-0.0964744
-0.0964307
-0.096383
-0.0963755
-0.0957458
-0.0967825
-0.0970399
-0.0972255
-0.0974322
-0.097564
-0.0972885
-0.0958043
-0.0944164
-0.0891842
0
0
-0.0200876
-0.0454419
-0.0633159
-0.0766417
-0.08663
-0.093918
-0.0988375
-0.101885
-0.102853
-0.102812
-0.102497
-0.102259
-0.102146
-0.102068
-0.101956
-0.101795
-0.101657
-0.101462
-0.101195
-0.100862
-0.100474
-0.100573
-0.0994376
-0.0990658
-0.098785
-0.0987413
-0.0986629
-0.0984921
-0.0983028
-0.0981011
-0.0979249
-0.0975287
-0.0971514
-0.0968544
-0.096699
-0.0966217
-0.0965839
-0.0965592
-0.096542
-0.0965487
-0.0966525
-0.0970795
-0.0967208
-0.0965442
-0.0964753
-0.0964462
-0.096428
-0.0964097
-0.0963856
-0.0963433
-0.0962268
-0.0966385
-0.096915
-0.0971276
-0.0973286
-0.097483
-0.0974032
-0.0965238
-0.0944889
-0.0891067
0
0
-0.0201005
-0.0454771
-0.0633567
-0.0766628
-0.0866197
-0.0938657
-0.0987683
-0.102236
-0.102763
-0.102585
-0.102242
-0.10204
-0.101963
-0.101901
-0.101777
-0.101549
-0.101507
-0.101461
-0.101251
-0.100912
-0.100472
-0.100052
-0.0995811
-0.099125
-0.0986381
-0.0988807
-0.0988738
-0.0987034
-0.0984713
-0.0982181
-0.0979554
-0.0976616
-0.0973849
-0.0971553
-0.0969812
-0.0968502
-0.0967469
-0.0966588
-0.0965737
-0.0964648
-0.0962364
-0.0956373
-0.0960003
-0.0962221
-0.0963183
-0.0963528
-0.0963641
-0.0963711
-0.0963826
-0.0964043
-0.0964561
-0.0966439
-0.096847
-0.0970528
-0.0972791
-0.0975374
-0.0990245
-0.0969849
-0.0946629
-0.0891135
0
0
-0.0201328
-0.0455649
-0.063457
-0.0767098
-0.0866073
-0.0937344
-0.0982163
-0.0996557
-0.101055
-0.101629
-0.101664
-0.101696
-0.101742
-0.101732
-0.101654
-0.101147
-0.101458
-0.101692
-0.101482
-0.101076
-0.1005
-0.100075
-0.0996641
-0.0991448
-0.0983083
-0.0992657
-0.0991793
-0.098899
-0.0986023
-0.0983121
-0.0980321
-0.0977644
-0.0975214
-0.0973114
-0.0971325
-0.0969781
-0.0968406
-0.0967132
-0.0965871
-0.0964454
-0.096255
-0.09601
-0.0960821
-0.0961906
-0.0962537
-0.0962781
-0.0962878
-0.0963018
-0.0963319
-0.096386
-0.0964748
-0.0966121
-0.0967814
-0.0969804
-0.0972193
-0.0974871
-0.0976472
-0.0970673
-0.0947347
-0.0891268
0
0
-0.0202133
-0.045804
-0.0636996
-0.0768155
-0.0866534
-0.0937392
-0.0982513
-0.10039
-0.101385
-0.101685
-0.10168
-0.101678
-0.101702
-0.101689
-0.106005
-0.100303
-0.101715
-0.102331
-0.10191
-0.101383
-0.10059
-0.100285
-0.0999162
-0.0994976
-0.0990747
-0.0991997
-0.0990975
-0.0988685
-0.0986001
-0.0983287
-0.0980677
-0.097825
-0.0976065
-0.0974121
-0.0972331
-0.097063
-0.0968988
-0.0967385
-0.09658
-0.0964242
-0.0962859
-0.0962023
-0.0962107
-0.0962312
-0.0962278
-0.0962075
-0.0961907
-0.0961946
-0.0962286
-0.0962956
-0.0963963
-0.096529
-0.096691
-0.0968889
-0.0971391
-0.0974211
-0.0975551
-0.0970368
-0.0947593
-0.0891322
0
0
-0.0204092
-0.0465872
-0.0641467
-0.0771257
-0.0868413
-0.0938615
-0.0984086
-0.100799
-0.101735
-0.101898
-0.101818
-0.10176
-0.10172
-0.101539
-0.100885
-0.0980992
-0.102681
-0.103022
-0.102436
-0.101703
-0.10167
-0.100978
-0.100376
-0.0999064
-0.0996364
-0.0993748
-0.099098
-0.0988235
-0.0985597
-0.0983092
-0.0980749
-0.0978613
-0.0976718
-0.0975013
-0.0973248
-0.0971361
-0.0969397
-0.0967386
-0.0965334
-0.0963349
-0.0962017
-0.096221
-0.096271
-0.0962637
-0.0961988
-0.0961165
-0.0960543
-0.0960352
-0.0960664
-0.0961436
-0.0962587
-0.0964019
-0.0965665
-0.0967638
-0.0970329
-0.0973621
-0.097496
-0.0969624
-0.0947719
-0.0891373
0
0
-0.0207651
-0.0632766
-0.0652454
-0.0775565
-0.0870323
-0.0939564