# vtk DataFile Version 2.0
FlowField
ASCII
DATASET STRUCTURED_GRID
DIMENSIONS 12 12 12 
POINTS 1728 double
0 0 0
0 0 1
0 0 2
0 0 3
0 0 4
0 0 5
0 0 6
0 0 7
0 0 8
0 0 9
0 0 10
0 0 11
0 1 0
0 1 1
0 1 2
0 1 3
0 1 4
0 1 5
0 1 6
0 1 7
0 1 8
0 1 9
0 1 10
0 1 11
0 2 0
0 2 1
0 2 2
0 2 3
0 2 4
0 2 5
0 2 6
0 2 7
0 2 8
0 2 9
0 2 10
0 2 11
0 3 0
0 3 1
0 3 2
0 3 3
0 3 4
0 3 5
0 3 6
0 3 7
0 3 8
0 3 9
0 3 10
0 3 11
0 4 0
0 4 1
0 4 2
0 4 3
0 4 4
0 4 5
0 4 6
0 4 7
0 4 8
0 4 9
0 4 10
0 4 11
0 5 0
0 5 1
0 5 2
0 5 3
0 5 4
0 5 5
0 5 6
0 5 7
0 5 8
0 5 9
0 5 10
0 5 11
0 6 0
0 6 1
0 6 2
0 6 3
0 6 4
0 6 5
0 6 6
0 6 7
0 6 8
0 6 9
0 6 10
0 6 11
0 7 0
0 7 1
0 7 2
0 7 3
0 7 4
0 7 5
0 7 6
0 7 7
0 7 8
0 7 9
0 7 10
0 7 11
0 8 0
0 8 1
0 8 2
0 8 3
0 8 4
0 8 5
0 8 6
0 8 7
0 8 8
0 8 9
0 8 10
0 8 11
0 9 0
0 9 1
0 9 2
0 9 3
0 9 4
0 9 5
0 9 6
0 9 7
0 9 8
0 9 9
0 9 10
0 9 11
0 10 0
0 10 1
0 10 2
0 10 3
0 10 4
0 10 5
0 10 6
0 10 7
0 10 8
0 10 9
0 10 10
0 10 11
0 11 0
0 11 1
0 11 2
0 11 3
0 11 4
0 11 5
0 11 6
0 11 7
0 11 8
0 11 9
0 11 10
0 11 11
1 0 0
1 0 1
1 0 2
1 0 3
1 0 4
1 0 5
1 0 6
1 0 7
1 0 8
1 0 9
1 0 10
1 0 11
1 1 0
1 1 1
1 1 2
1 1 3
1 1 4
1 1 5
1 1 6
1 1 7
1 1 8
1 1 9
1 1 10
1 1 11
1 2 0
1 2 1
1 2 2
1 2 3
1 2 4
1 2 5
1 2 6
1 2 7
1 2 8
1 2 9
1 2 10
1 2 11
1 3 0
1 3 1
1 3 2
1 3 3
1 3 4
1 3 5
1 3 6
1 3 7
1 3 8
1 3 9
1 3 10
1 3 11
1 4 0
1 4 1
1 4 2
1 4 3
1 4 4
1 4 5
1 4 6
1 4 7
1 4 8
1 4 9
1 4 10
1 4 11
1 5 0
1 5 1
1 5 2
1 5 3
1 5 4
1 5 5
1 5 6
1 5 7
1 5 8
1 5 9
1 5 10
1 5 11
1 6 0
1 6 1
1 6 2
1 6 3
1 6 4
1 6 5
1 6 6
1 6 7
1 6 8
1 6 9
1 6 10
1 6 11
1 7 0
1 7 1
1 7 2
1 7 3
1 7 4
1 7 5
1 7 6
1 7 7
1 7 8
1 7 9
1 7 10
1 7 11
1 8 0
1 8 1
1 8 2
1 8 3
1 8 4
1 8 5
1 8 6
1 8 7
1 8 8
1 8 9
1 8 10
1 8 11
1 9 0
1 9 1
1 9 2
1 9 3
1 9 4
1 9 5
1 9 6
1 9 7
1 9 8
1 9 9
1 9 10
1 9 11
1 10 0
1 10 1
1 10 2
1 10 3
1 10 4
1 10 5
1 10 6
1 10 7
1 10 8
1 10 9
1 10 10
1 10 11
1 11 0
1 11 1
1 11 2
1 11 3
1 11 4
1 11 5
1 11 6
1 11 7
1 11 8
1 11 9
1 11 10
1 11 11
2 0 0
2 0 1
2 0 2
2 0 3
2 0 4
2 0 5
2 0 6
2 0 7
2 0 8
2 0 9
2 0 10
2 0 11
2 1 0
2 1 1
2 1 2
2 1 3
2 1 4
2 1 5
2 1 6
2 1 7
2 1 8
2 1 9
2 1 10
2 1 11
2 2 0
2 2 1
2 2 2
2 2 3
2 2 4
2 2 5
2 2 6
2 2 7
2 2 8
2 2 9
2 2 10
2 2 11
2 3 0
2 3 1
2 3 2
2 3 3
2 3 4
2 3 5
2 3 6
2 3 7
2 3 8
2 3 9
2 3 10
2 3 11
2 4 0
2 4 1
2 4 2
2 4 3
2 4 4
2 4 5
2 4 6
2 4 7
2 4 8
2 4 9
2 4 10
2 4 11
2 5 0
2 5 1
2 5 2
2 5 3
2 5 4
2 5 5
2 5 6
2 5 7
2 5 8
2 5 9
2 5 10
2 5 11
2 6 0
2 6 1
2 6 2
2 6 3
2 6 4
2 6 5
2 6 6
2 6 7
2 6 8
2 6 9
2 6 10
2 6 11
2 7 0
2 7 1
2 7 2
2 7 3
2 7 4
2 7 5
2 7 6
2 7 7
2 7 8
2 7 9
2 7 10
2 7 11
2 8 0
2 8 1
2 8 2
2 8 3
2 8 4
2 8 5
2 8 6
2 8 7
2 8 8
2 8 9
2 8 10
2 8 11
2 9 0
2 9 1
2 9 2
2 9 3
2 9 4
2 9 5
2 9 6
2 9 7
2 9 8
2 9 9
2 9 10
2 9 11
2 10 0
2 10 1
2 10 2
2 10 3
2 10 4
2 10 5
2 10 6
2 10 7
2 10 8
2 10 9
2 10 10
2 10 11
2 11 0
2 11 1
2 11 2
2 11 3
2 11 4
2 11 5
2 11 6
2 11 7
2 11 8
2 11 9
2 11 10
2 11 11
3 0 0
3 0 1
3 0 2
3 0 3
3 0 4
3 0 5
3 0 6
3 0 7
3 0 8
3 0 9
3 0 10
3 0 11
3 1 0
3 1 1
3 1 2
3 1 3
3 1 4
3 1 5
3 1 6
3 1 7
3 1 8
3 1 9
3 1 10
3 1 11
3 2 0
3 2 1
3 2 2
3 2 3
3 2 4
3 2 5
3 2 6
3 2 7
3 2 8
3 2 9
3 2 10
3 2 11
3 3 0
3 3 1
3 3 2
3 3 3
3 3 4
3 3 5
3 3 6
3 3 7
3 3 8
3 3 9
3 3 10
3 3 11
3 4 0
3 4 1
3 4 2
3 4 3
3 4 4
3 4 5
3 4 6
3 4 7
3 4 8
3 4 9
3 4 10
3 4 11
3 5 0
3 5 1
3 5 2
3 5 3
3 5 4
3 5 5
3 5 6
3 5 7
3 5 8
3 5 9
3 5 10
3 5 11
3 6 0
3 6 1
3 6 2
3 6 3
3 6 4
3 6 5
3 6 6
3 6 7
3 6 8
3 6 9
3 6 10
3 6 11
3 7 0
3 7 1
3 7 2
3 7 3
3 7 4
3 7 5
3 7 6
3 7 7
3 7 8
3 7 9
3 7 10
3 7 11
3 8 0
3 8 1
3 8 2
3 8 3
3 8 4
3 8 5
3 8 6
3 8 7
3 8 8
3 8 9
3 8 10
3 8 11
3 9 0
3 9 1
3 9 2
3 9 3
3 9 4
3 9 5
3 9 6
3 9 7
3 9 8
3 9 9
3 9 10
3 9 11
3 10 0
3 10 1
3 10 2
3 10 3
3 10 4
3 10 5
3 10 6
3 10 7
3 10 8
3 10 9
3 10 10
3 10 11
3 11 0
3 11 1
3 11 2
3 11 3
3 11 4
3 11 5
3 11 6
3 11 7
3 11 8
3 11 9
3 11 10
3 11 11
4 0 0
4 0 1
4 0 2
4 0 3
4 0 4
4 0 5
4 0 6
4 0 7
4 0 8
4 0 9
4 0 10
4 0 11
4 1 0
4 1 1
4 1 2
4 1 3
4 1 4
4 1 5
4 1 6
4 1 7
4 1 8
4 1 9
4 1 10
4 1 11
4 2 0
4 2 1
4 2 2
4 2 3
4 2 4
4 2 5
4 2 6
4 2 7
4 2 8
4 2 9
4 2 10
4 2 11
4 3 0
4 3 1
4 3 2
4 3 3
4 3 4
4 3 5
4 3 6
4 3 7
4 3 8
4 3 9
4 3 10
4 3 11
4 4 0
4 4 1
4 4 2
4 4 3
4 4 4
4 4 5
4 4 6
4 4 7
4 4 8
4 4 9
4 4 10
4 4 11
4 5 0
4 5 1
4 5 2
4 5 3
4 5 4
4 5 5
4 5 6
4 5 7
4 5 8
4 5 9
4 5 10
4 5 11
4 6 0
4 6 1
4 6 2
4 6 3
4 6 4
4 6 5
4 6 6
4 6 7
4 6 8
4 6 9
4 6 10
4 6 11
4 7 0
4 7 1
4 7 2
4 7 3
4 7 4
4 7 5
4 7 6
4 7 7
4 7 8
4 7 9
4 7 10
4 7 11
4 8 0
4 8 1
4 8 2
4 8 3
4 8 4
4 8 5
4 8 6
4 8 7
4 8 8
4 8 9
4 8 10
4 8 11
4 9 0
4 9 1
4 9 2
4 9 3
4 9 4
4 9 5
4 9 6
4 9 7
4 9 8
4 9 9
4 9 10
4 9 11
4 10 0
4 10 1
4 10 2
4 10 3
4 10 4
4 10 5
4 10 6
4 10 7
4 10 8
4 10 9
4 10 10
4 10 11
4 11 0
4 11 1
4 11 2
4 11 3
4 11 4
4 11 5
4 11 6
4 11 7
4 11 8
4 11 9
4 11 10
4 11 11
5 0 0
5 0 1
5 0 2
5 0 3
5 0 4
5 0 5
5 0 6
5 0 7
5 0 8
5 0 9
5 0 10
5 0 11
5 1 0
5 1 1
5 1 2
5 1 3
5 1 4
5 1 5
5 1 6
5 1 7
5 1 8
5 1 9
5 1 10
5 1 11
5 2 0
5 2 1
5 2 2
5 2 3
5 2 4
5 2 5
5 2 6
5 2 7
5 2 8
5 2 9
5 2 10
5 2 11
5 3 0
5 3 1
5 3 2
5 3 3
5 3 4
5 3 5
5 3 6
5 3 7
5 3 8
5 3 9
5 3 10
5 3 11
5 4 0
5 4 1
5 4 2
5 4 3
5 4 4
5 4 5
5 4 6
5 4 7
5 4 8
5 4 9
5 4 10
5 4 11
5 5 0
5 5 1
5 5 2
5 5 3
5 5 4
5 5 5
5 5 6
5 5 7
5 5 8
5 5 9
5 5 10
5 5 11
5 6 0
5 6 1
5 6 2
5 6 3
5 6 4
5 6 5
5 6 6
5 6 7
5 6 8
5 6 9
5 6 10
5 6 11
5 7 0
5 7 1
5 7 2
5 7 3
5 7 4
5 7 5
5 7 6
5 7 7
5 7 8
5 7 9
5 7 10
5 7 11
5 8 0
5 8 1
5 8 2
5 8 3
5 8 4
5 8 5
5 8 6
5 8 7
5 8 8
5 8 9
5 8 10
5 8 11
5 9 0
5 9 1
5 9 2
5 9 3
5 9 4
5 9 5
5 9 6
5 9 7
5 9 8
5 9 9
5 9 10
5 9 11
5 10 0
5 10 1
5 10 2
5 10 3
5 10 4
5 10 5
5 10 6
5 10 7
5 10 8
5 10 9
5 10 10
5 10 11
5 11 0
5 11 1
5 11 2
5 11 3
5 11 4
5 11 5
5 11 6
5 11 7
5 11 8
5 11 9
5 11 10
5 11 11
6 0 0
6 0 1
6 0 2
6 0 3
6 0 4
6 0 5
6 0 6
6 0 7
6 0 8
6 0 9
6 0 10
6 0 11
6 1 0
6 1 1
6 1 2
6 1 3
6 1 4
6 1 5
6 1 6
6 1 7
6 1 8
6 1 9
6 1 10
6 1 11
6 2 0
6 2 1
6 2 2
6 2 3
6 2 4
6 2 5
6 2 6
6 2 7
6 2 8
6 2 9
6 2 10
6 2 11
6 3 0
6 3 1
6 3 2
6 3 3
6 3 4
6 3 5
6 3 6
6 3 7
6 3 8
6 3 9
6 3 10
6 3 11
6 4 0
6 4 1
6 4 2
6 4 3
6 4 4
6 4 5
6 4 6
6 4 7
6 4 8
6 4 9
6 4 10
6 4 11
6 5 0
6 5 1
6 5 2
6 5 3
6 5 4
6 5 5
6 5 6
6 5 7
6 5 8
6 5 9
6 5 10
6 5 11
6 6 0
6 6 1
6 6 2
6 6 3
6 6 4
6 6 5
6 6 6
6 6 7
6 6 8
6 6 9
6 6 10
6 6 11
6 7 0
6 7 1
6 7 2
6 7 3
6 7 4
6 7 5
6 7 6
6 7 7
6 7 8
6 7 9
6 7 10
6 7 11
6 8 0
6 8 1
6 8 2
6 8 3
6 8 4
6 8 5
6 8 6
6 8 7
6 8 8
6 8 9
6 8 10
6 8 11
6 9 0
6 9 1
6 9 2
6 9 3
6 9 4
6 9 5
6 9 6
6 9 7
6 9 8
6 9 9
6 9 10
6 9 11
6 10 0
6 10 1
6 10 2
6 10 3
6 10 4
6 10 5
6 10 6
6 10 7
6 10 8
6 10 9
6 10 10
6 10 11
6 11 0
6 11 1
6 11 2
6 11 3
6 11 4
6 11 5
6 11 6
6 11 7
6 11 8
6 11 9
6 11 10
6 11 11
7 0 0
7 0 1
7 0 2
7 0 3
7 0 4
7 0 5
7 0 6
7 0 7
7 0 8
7 0 9
7 0 10
7 0 11
7 1 0
7 1 1
7 1 2
7 1 3
7 1 4
7 1 5
7 1 6
7 1 7
7 1 8
7 1 9
7 1 10
7 1 11
7 2 0
7 2 1
7 2 2
7 2 3
7 2 4
7 2 5
7 2 6
7 2 7
7 2 8
7 2 9
7 2 10
7 2 11
7 3 0
7 3 1
7 3 2
7 3 3
7 3 4
7 3 5
7 3 6
7 3 7
7 3 8
7 3 9
7 3 10
7 3 11
7 4 0
7 4 1
7 4 2
7 4 3
7 4 4
7 4 5
7 4 6
7 4 7
7 4 8
7 4 9
7 4 10
7 4 11
7 5 0
7 5 1
7 5 2
7 5 3
7 5 4
7 5 5
7 5 6
7 5 7
7 5 8
7 5 9
7 5 10
7 5 11
7 6 0
7 6 1
7 6 2
7 6 3
7 6 4
7 6 5
7 6 6
7 6 7
7 6 8
7 6 9
7 6 10
7 6 11
7 7 0
7 7 1
7 7 2
7 7 3
7 7 4
7 7 5
7 7 6
7 7 7
7 7 8
7 7 9
7 7 10
7 7 11
7 8 0
7 8 1
7 8 2
7 8 3
7 8 4
7 8 5
7 8 6
7 8 7
7 8 8
7 8 9
7 8 10
7 8 11
7 9 0
7 9 1
7 9 2
7 9 3
7 9 4
7 9 5
7 9 6
7 9 7
7 9 8
7 9 9
7 9 10
7 9 11
7 10 0
7 10 1
7 10 2
7 10 3
7 10 4
7 10 5
7 10 6
7 10 7
7 10 8
7 10 9
7 10 10
7 10 11
7 11 0
7 11 1
7 11 2
7 11 3
7 11 4
7 11 5
7 11 6
7 11 7
7 11 8
7 11 9
7 11 10
7 11 11
8 0 0
8 0 1
8 0 2
8 0 3
8 0 4
8 0 5
8 0 6
8 0 7
8 0 8
8 0 9
8 0 10
8 0 11
8 1 0
8 1 1
8 1 2
8 1 3
8 1 4
8 1 5
8 1 6
8 1 7
8 1 8
8 1 9
8 1 10
8 1 11
8 2 0
8 2 1
8 2 2
8 2 3
8 2 4
8 2 5
8 2 6
8 2 7
8 2 8
8 2 9
8 2 10
8 2 11
8 3 0
8 3 1
8 3 2
8 3 3
8 3 4
8 3 5
8 3 6
8 3 7
8 3 8
8 3 9
8 3 10
8 3 11
8 4 0
8 4 1
8 4 2
8 4 3
8 4 4
8 4 5
8 4 6
8 4 7
8 4 8
8 4 9
8 4 10
8 4 11
8 5 0
8 5 1
8 5 2
8 5 3
8 5 4
8 5 5
8 5 6
8 5 7
8 5 8
8 5 9
8 5 10
8 5 11
8 6 0
8 6 1
8 6 2
8 6 3
8 6 4
8 6 5
8 6 6
8 6 7
8 6 8
8 6 9
8 6 10
8 6 11
8 7 0
8 7 1
8 7 2
8 7 3
8 7 4
8 7 5
8 7 6
8 7 7
8 7 8
8 7 9
8 7 10
8 7 11
8 8 0
8 8 1
8 8 2
8 8 3
8 8 4
8 8 5
8 8 6
8 8 7
8 8 8
8 8 9
8 8 10
8 8 11
8 9 0
8 9 1
8 9 2
8 9 3
8 9 4
8 9 5
8 9 6
8 9 7
8 9 8
8 9 9
8 9 10
8 9 11
8 10 0
8 10 1
8 10 2
8 10 3
8 10 4
8 10 5
8 10 6
8 10 7
8 10 8
8 10 9
8 10 10
8 10 11
8 11 0
8 11 1
8 11 2
8 11 3
8 11 4
8 11 5
8 11 6
8 11 7
8 11 8
8 11 9
8 11 10
8 11 11
9 0 0
9 0 1
9 0 2
9 0 3
9 0 4
9 0 5
9 0 6
9 0 7
9 0 8
9 0 9
9 0 10
9 0 11
9 1 0
9 1 1
9 1 2
9 1 3
9 1 4
9 1 5
9 1 6
9 1 7
9 1 8
9 1 9
9 1 10
9 1 11
9 2 0
9 2 1
9 2 2
9 2 3
9 2 4
9 2 5
9 2 6
9 2 7
9 2 8
9 2 9
9 2 10
9 2 11
9 3 0
9 3 1
9 3 2
9 3 3
9 3 4
9 3 5
9 3 6
9 3 7
9 3 8
9 3 9
9 3 10
9 3 11
9 4 0
9 4 1
9 4 2
9 4 3
9 4 4
9 4 5
9 4 6
9 4 7
9 4 8
9 4 9
9 4 10
9 4 11
9 5 0
9 5 1
9 5 2
9 5 3
9 5 4
9 5 5
9 5 6
9 5 7
9 5 8
9 5 9
9 5 10
9 5 11
9 6 0
9 6 1
9 6 2
9 6 3
9 6 4
9 6 5
9 6 6
9 6 7
9 6 8
9 6 9
9 6 10
9 6 11
9 7 0
9 7 1
9 7 2
9 7 3
9 7 4
9 7 5
9 7 6
9 7 7
9 7 8
9 7 9
9 7 10
9 7 11
9 8 0
9 8 1
9 8 2
9 8 3
9 8 4
9 8 5
9 8 6
9 8 7
9 8 8
9 8 9
9 8 10
9 8 11
9 9 0
9 9 1
9 9 2
9 9 3
9 9 4
9 9 5
9 9 6
9 9 7
9 9 8
9 9 9
9 9 10
9 9 11
9 10 0
9 10 1
9 10 2
9 10 3
9 10 4
9 10 5
9 10 6
9 10 7
9 10 8
9 10 9
9 10 10
9 10 11
9 11 0
9 11 1
9 11 2
9 11 3
9 11 4
9 11 5
9 11 6
9 11 7
9 11 8
9 11 9
9 11 10
9 11 11
10 0 0
10 0 1
10 0 2
10 0 3
10 0 4
10 0 5
10 0 6
10 0 7
10 0 8
10 0 9
10 0 10
10 0 11
10 1 0
10 1 1
10 1 2
10 1 3
10 1 4
10 1 5
10 1 6
10 1 7
10 1 8
10 1 9
10 1 10
10 1 11
10 2 0
10 2 1
10 2 2
10 2 3
10 2 4
10 2 5
10 2 6
10 2 7
10 2 8
10 2 9
10 2 10
10 2 11
10 3 0
10 3 1
10 3 2
10 3 3
10 3 4
10 3 5
10 3 6
10 3 7
10 3 8
10 3 9
10 3 10
10 3 11
10 4 0
10 4 1
10 4 2
10 4 3
10 4 4
10 4 5
10 4 6
10 4 7
10 4 8
10 4 9
10 4 10
10 4 11
10 5 0
10 5 1
10 5 2
10 5 3
10 5 4
10 5 5
10 5 6
10 5 7
10 5 8
10 5 9
10 5 10
10 5 11
10 6 0
10 6 1
10 6 2
10 6 3
10 6 4
10 6 5
10 6 6
10 6 7
10 6 8
10 6 9
10 6 10
10 6 11
10 7 0
10 7 1
10 7 2
10 7 3
10 7 4
10 7 5
10 7 6
10 7 7
10 7 8
10 7 9
10 7 10
10 7 11
10 8 0
10 8 1
10 8 2
10 8 3
10 8 4
10 8 5
10 8 6
10 8 7
10 8 8
10 8 9
10 8 10
10 8 11
10 9 0
10 9 1
10 9 2
10 9 3
10 9 4
10 9 5
10 9 6
10 9 7
10 9 8
10 9 9
10 9 10
10 9 11
10 10 0
10 10 1
10 10 2
10 10 3
10 10 4
10 10 5
10 10 6
10 10 7
10 10 8
10 10 9
10 10 10
10 10 11
10 11 0
10 11 1
10 11 2
10 11 3
10 11 4
10 11 5
10 11 6
10 11 7
10 11 8
10 11 9
10 11 10
10 11 11
11 0 0
11 0 1
11 0 2
11 0 3
11 0 4
11 0 5
11 0 6
11 0 7
11 0 8
11 0 9
11 0 10
11 0 11
11 1 0
11 1 1
11 1 2
11 1 3
11 1 4
11 1 5
11 1 6
11 1 7
11 1 8
11 1 9
11 1 10
11 1 11
11 2 0
11 2 1
11 2 2
11 2 3
11 2 4
11 2 5
11 2 6
11 2 7
11 2 8
11 2 9
11 2 10
11 2 11
11 3 0
11 3 1
11 3 2
11 3 3
11 3 4
11 3 5
11 3 6
11 3 7
11 3 8
11 3 9
11 3 10
11 3 11
11 4 0
11 4 1
11 4 2
11 4 3
11 4 4
11 4 5
11 4 6
11 4 7
11 4 8
11 4 9
11 4 10
11 4 11
11 5 0
11 5 1
11 5 2
11 5 3
11 5 4
11 5 5
11 5 6
11 5 7
11 5 8
11 5 9
11 5 10
11 5 11
11 6 0
11 6 1
11 6 2
11 6 3
11 6 4
11 6 5
11 6 6
11 6 7
11 6 8
11 6 9
11 6 10
11 6 11
11 7 0
11 7 1
11 7 2
11 7 3
11 7 4
11 7 5
11 7 6
11 7 7
11 7 8
11 7 9
11 7 10
11 7 11
11 8 0
11 8 1
11 8 2
11 8 3
11 8 4
11 8 5
11 8 6
11 8 7
11 8 8
11 8 9
11 8 10
11 8 11
11 9 0
11 9 1
11 9 2
11 9 3
11 9 4
11 9 5
11 9 6
11 9 7
11 9 8
11 9 9
11 9 10
11 9 11
11 10 0
11 10 1
11 10 2
11 10 3
11 10 4
11 10 5
11 10 6
11 10 7
11 10 8
11 10 9
11 10 10
11 10 11
11 11 0
11 11 1
11 11 2
11 11 3
11 11 4
11 11 5
11 11 6
11 11 7
11 11 8
11 11 9
11 11 10
11 11 11

POINT_DATA 1728

SCALARS u double
LOOKUP_TABLE default
0
1
4
9
16
25
36
49
64
81
100
121
1
2
5
10
17
26
37
50
65
82
101
122
4
5
8
13
20
29
40
53
68
85
104
125
9
10
13
18
25
34
45
58
73
90
109
130
16
17
20
25
32
41
52
65
80
97
116
137
25
26
29
34
41
50
61
74
89
106
125
146
36
37
40
45
52
61
72
85
100
117
136
157
49
50
53
58
65
74
85
98
113
130
149
170
64
65
68
73
80
89
100
113
128
145
164
185
81
82
85
90
97
106
117
130
145
162
181
202
100
101
104
109
116
125
136
149
164
181
200
221
121
122
125
130
137
146
157
170
185
202
221
242
1
2
5
10
17
26
37
50
65
82
101
122
2
3
6
11
18
27
38
51
66
83
102
123
5
6
9
14
21
30
41
54
69
86
105
126
10
11
14
19
26
35
46
59
74
91
110
131
17
18
21
26
33
42
53
66
81
98
117
138
26
27
30
35
42
51
62
75
90
107
126
147
37
38
41
46
53
62
73
86
101
118
137
158
50
51
54
59
66
75
86
99
114
131
150
171
65
66
69
74
81
90
101
114
129
146
165
186
82
83
86
91
98
107
118
131
146
163
182
203
101
102
105
110
117
126
137
150
165
182
201
222
122
123
126
131
138
147
158
171
186
203
222
243
4
5
8
13
20
29
40
53
68
85
104
125
5
6
9
14
21
30
41
54
69
86
105
126
8
9
12
17
24
33
44
57
72
89
108
129
13
14
17
22
29
38
49
62
77
94
113
134
20
21
24
29
36
45
56
69
84
101
120
141
29
30
33
38
45
54
65
78
93
110
129
150
40
41
44
49
56
65
76
89
104
121
140
161
53
54
57
62
69
78
89
102
117
134
153
174
68
69
72
77
84
93
104
117
132
149
168
189
85
86
89
94
101
110
121
134
149
166
185
206
104
105
108
113
120
129
140
153
168
185
204
225
125
126
129
134
141
150
161
174
189
206
225
246
9
10
13
18
25
34
45
58
73
90
109
130
10
11
14
19
26
35
46
59
74
91
110
131
13
14
17
22
29
38
49
62
77
94
113
134
18
19
22
27
34
43
54
67
82
99
118
139
25
26
29
34
41
50
61
74
89
106
125
146
34
35
38
43
50
59
70
83
98
115
134
155
45
46
49
54
61
70
81
94
109
126
145
166
58
59
62
67
74
83
94
107
122
139
158
179
73
74
77
82
89
98
109
122
137
154
173
194
90
91
94
99
106
115
126
139
154
171
190
211
109
110
113
118
125
134
145
158
173
190
209
230
130
131
134
139
146
155
166
179
194
211
230
251
16
17
20
25
32
41
52
65
80
97
116
137
17
18
21
26
33
42
53
66
81
98
117
138
20
21
24
29
36
45
56
69
84
101
120
141
25
26
29
34
41
50
61
74
89
106
125
146
32
33
36
41
48
57
68
81
96
113
132
153
41
42
45
50
57
66
77
90
105
122
141
162
52
53
56
61
68
77
88
101
116
133
152
173
65
66
69
74
81
90
101
114
129
146
165
186
80
81
84
89
96
105
116
129
144
161
180
201
97
98
101
106
113
122
133
146
161
178
197
218
116
117
120
125
132
141
152
165
180
197
216
237
137
138
141
146
153
162
173
186
201
218
237
258
25
26
29
34
41
50
61
74
89
106
125
146
26
27
30
35
42
51
62
75
90
107
126
147
29
30
33
38
45
54
65
78
93
110
129
150
34
35
38
43
50
59
70
83
98
115
134
155
41
42
45
50
57
66
77
90
105
122
141
162
50
51
54
59
66
75
86
99
114
131
150
171
61
62
65
70
77
86
97
110
125
142
161
182
74
75
78
83
90
99
110
123
138
155
174
195
89
90
93
98
105
114
125
138
153
170
189
210
106
107
110
115
122
131
142
155
170
187
206
227
125
126
129
134
141
150
161
174
189
206
225
246
146
147
150
155
162
171
182
195
210
227
246
267
36
37
40
45
52
61
72
85
100
117
136
157
37
38
41
46
53
62
73
86
101
118
137
158
40
41
44
49
56
65
76
89
104
121
140
161
45
46
49
54
61
70
81
94
109
126
145
166
52
53
56
61
68
77
88
101
116
133
152
173
61
62
65
70
77
86
97
110
125
142
161
182
72
73
76
81
88
97
108
121
136
153
172
193
85
86
89
94
101
110
121
134
149
166
185
206
100
101
104
109
116
125
136
149
164
181
200
221
117
118
121
126
133
142
153
166
181
198
217
238
136
137
140
145
152
161
172
185
200
217
236
257
157
158
161
166
173
182
193
206
221
238
257
278
49
50
53
58
65
74
85
98
113
130
149
170
50
51
54
59
66
75
86
99
114
131
150
171
53
54
57
62
69
78
89
102
117
134
153
174
58
59
62
67
74
83
94
107
122
139
158
179
65
66
69
74
81
90
101
114
129
146
165
186
74
75
78
83
90
99
110
123
138
155
174
195
85
86
89
94
101
110
121
134
149
166
185
206
98
99
102
107
114
123
134
147
162
179
198
219
113
114
117
122
129
138
149
162
177
194
213
234
130
131
134
139
146
155
166
179
194
211
230
251
149
150
153
158
165
174
185
198
213
230
249
270
170
171
174
179
186
195
206
219
234
251
270
291
64
65
68
73
80
89
100
113
128
145
164
185
65
66
69
74
81
90
101
114
129
146
165
186
68
69
72
77
84
93
104
117
132
149
168
189
73
74
77
82
89
98
109
122
137
154
173
194
80
81
84
89
96
105
116
129
144
161
180
201
89
90
93
98
105
114
125
138
153
170
189
210
100
101
104
109
116
125
136
149
164
181
200
221
113
114
117
122
129
138
149
162
177
194
213
234
128
129
132
137
144
153
164
177
192
209
228
249
145
146
149
154
161
170
181
194
209
226
245
266
164
165
168
173
180
189
200
213
228
245
264
285
185
186
189
194
201
210
221
234
249
266
285
306
81
82
85
90
97
106
117
130
145
162
181
202
82
83
86
91
98
107
118
131
146
163
182
203
85
86
89
94
101
110
121
134
149
166
185
206
90
91
94
99
106
115
126
139
154
171
190
211
97
98
101
106
113
122
133
146
161
178
197
218
106
107
110
115
122
131
142
155
170
187
206
227
117
118
121
126
133
142
153
166
181
198
217
238
130
131
134
139
146
155
166
179
194
211
230
251
145
146
149
154
161
170
181
194
209
226
245
266
162
163
166
171
178
187
198
211
226
243
262
283
181
182
185
190
197
206
217
230
245
262
281
302
202
203
206
211
218
227
238
251
266
283
302
323
100
101
104
109
116
125
136
149
164
181
200
221
101
102
105
110
117
126
137
150
165
182
201
222
104
105
108
113
120
129
140
153
168
185
204
225
109
110
113
118
125
134
145
158
173
190
209
230
116
117
120
125
132
141
152
165
180
197
216
237
125
126
129
134
141
150
161
174
189
206
225
246
136
137
140
145
152
161
172
185
200
217
236
257
149
150
153
158
165
174
185
198
213
230
249
270
164
165
168
173
180
189
200
213
228
245
264
285
181
182
185
190
197
206
217
230
245
262
281
302
200
201
204
209
216
225
236
249
264
281
300
321
221
222
225
230
237
246
257
270
285
302
321
342
121
122
125
130
137
146
157
170
185
202
221
242
122
123
126
131
138
147
158
171
186
203
222
243
125
126
129
134
141
150
161
174
189
206
225
246
130
131
134
139
146
155
166
179
194
211
230
251
137
138
141
146
153
162
173
186
201
218
237
258
146
147
150
155
162
171
182
195
210
227
246
267
157
158
161
166
173
182
193
206
221
238
257
278
170
171
174
179
186
195
206
219
234
251
270
291
185
186
189
194
201
210
221
234
249
266
285
306
202
203
206
211
218
227
238
251
266
283
302
323
221
222
225
230
237
246
257
270
285
302
321
342
242
243
246
251
258
267
278
291
306
323
342
363
