# vtk DataFile Version 2.0
FlowField
ASCII
DATASET STRUCTURED_GRID
DIMENSIONS 62 47 32 
POINTS 93248 double
0 0 0
0.01 0 0
0.02 0 0
0.03 0 0
0.04 0 0
0.05 0 0
0.06 0 0
0.07 0 0
0.08 0 0
0.09 0 0
0.1 0 0
0.11 0 0
0.12 0 0
0.13 0 0
0.14 0 0
0.15 0 0
0.16 0 0
0.17 0 0
0.18 0 0
0.19 0 0
0.2 0 0
0.21 0 0
0.22 0 0
0.23 0 0
0.24 0 0
0.25 0 0
0.26 0 0
0.27 0 0
0.28 0 0
0.29 0 0
0.3 0 0
0.31 0 0
0.32 0 0
0.33 0 0
0.34 0 0
0.35 0 0
0.36 0 0
0.37 0 0
0.38 0 0
0.39 0 0
0.4 0 0
0.41 0 0
0.42 0 0
0.43 0 0
0.44 0 0
0.45 0 0
0.46 0 0
0.47 0 0
0.48 0 0
0.49 0 0
0.5 0 0
0.51 0 0
0.52 0 0
0.53 0 0
0.54 0 0
0.55 0 0
0.56 0 0
0.57 0 0
0.58 0 0
0.59 0 0
0.6 0 0
0.61 0 0
0 0.01 0
0.01 0.01 0
0.02 0.01 0
0.03 0.01 0
0.04 0.01 0
0.05 0.01 0
0.06 0.01 0
0.07 0.01 0
0.08 0.01 0
0.09 0.01 0
0.1 0.01 0
0.11 0.01 0
0.12 0.01 0
0.13 0.01 0
0.14 0.01 0
0.15 0.01 0
0.16 0.01 0
0.17 0.01 0
0.18 0.01 0
0.19 0.01 0
0.2 0.01 0
0.21 0.01 0
0.22 0.01 0
0.23 0.01 0
0.24 0.01 0
0.25 0.01 0
0.26 0.01 0
0.27 0.01 0
0.28 0.01 0
0.29 0.01 0
0.3 0.01 0
0.31 0.01 0
0.32 0.01 0
0.33 0.01 0
0.34 0.01 0
0.35 0.01 0
0.36 0.01 0
0.37 0.01 0
0.38 0.01 0
0.39 0.01 0
0.4 0.01 0
0.41 0.01 0
0.42 0.01 0
0.43 0.01 0
0.44 0.01 0
0.45 0.01 0
0.46 0.01 0
0.47 0.01 0
0.48 0.01 0
0.49 0.01 0
0.5 0.01 0
0.51 0.01 0
0.52 0.01 0
0.53 0.01 0
0.54 0.01 0
0.55 0.01 0
0.56 0.01 0
0.57 0.01 0
0.58 0.01 0
0.59 0.01 0
0.6 0.01 0
0.61 0.01 0
0 0.02 0
0.01 0.02 0
0.02 0.02 0
0.03 0.02 0
0.04 0.02 0
0.05 0.02 0
0.06 0.02 0
0.07 0.02 0
0.08 0.02 0
0.09 0.02 0
0.1 0.02 0
0.11 0.02 0
0.12 0.02 0
0.13 0.02 0
0.14 0.02 0
0.15 0.02 0
0.16 0.02 0
0.17 0.02 0
0.18 0.02 0
0.19 0.02 0
0.2 0.02 0
0.21 0.02 0
0.22 0.02 0
0.23 0.02 0
0.24 0.02 0
0.25 0.02 0
0.26 0.02 0
0.27 0.02 0
0.28 0.02 0
0.29 0.02 0
0.3 0.02 0
0.31 0.02 0
0.32 0.02 0
0.33 0.02 0
0.34 0.02 0
0.35 0.02 0
0.36 0.02 0
0.37 0.02 0
0.38 0.02 0
0.39 0.02 0
0.4 0.02 0
0.41 0.02 0
0.42 0.02 0
0.43 0.02 0
0.44 0.02 0
0.45 0.02 0
0.46 0.02 0
0.47 0.02 0
0.48 0.02 0
0.49 0.02 0
0.5 0.02 0
0.51 0.02 0
0.52 0.02 0
0.53 0.02 0
0.54 0.02 0
0.55 0.02 0
0.56 0.02 0
0.57 0.02 0
0.58 0.02 0
0.59 0.02 0
0.6 0.02 0
0.61 0.02 0
0 0.03 0
0.01 0.03 0
0.02 0.03 0
0.03 0.03 0
0.04 0.03 0
0.05 0.03 0
0.06 0.03 0
0.07 0.03 0
0.08 0.03 0
0.09 0.03 0
0.1 0.03 0
0.11 0.03 0
0.12 0.03 0
0.13 0.03 0
0.14 0.03 0
0.15 0.03 0
0.16 0.03 0
0.17 0.03 0
0.18 0.03 0
0.19 0.03 0
0.2 0.03 0
0.21 0.03 0
0.22 0.03 0
0.23 0.03 0
0.24 0.03 0
0.25 0.03 0
0.26 0.03 0
0.27 0.03 0
0.28 0.03 0
0.29 0.03 0
0.3 0.03 0
0.31 0.03 0
0.32 0.03 0
0.33 0.03 0
0.34 0.03 0
0.35 0.03 0
0.36 0.03 0
0.37 0.03 0
0.38 0.03 0
0.39 0.03 0
0.4 0.03 0
0.41 0.03 0
0.42 0.03 0
0.43 0.03 0
0.44 0.03 0
0.45 0.03 0
0.46 0.03 0
0.47 0.03 0
0.48 0.03 0
0.49 0.03 0
0.5 0.03 0
0.51 0.03 0
0.52 0.03 0
0.53 0.03 0
0.54 0.03 0
0.55 0.03 0
0.56 0.03 0
0.57 0.03 0
0.58 0.03 0
0.59 0.03 0
0.6 0.03 0
0.61 0.03 0
0 0.04 0
0.01 0.04 0
0.02 0.04 0
0.03 0.04 0
0.04 0.04 0
0.05 0.04 0
0.06 0.04 0
0.07 0.04 0
0.08 0.04 0
0.09 0.04 0
0.1 0.04 0
0.11 0.04 0
0.12 0.04 0
0.13 0.04 0
0.14 0.04 0
0.15 0.04 0
0.16 0.04 0
0.17 0.04 0
0.18 0.04 0
0.19 0.04 0
0.2 0.04 0
0.21 0.04 0
0.22 0.04 0
0.23 0.04 0
0.24 0.04 0
0.25 0.04 0
0.26 0.04 0
0.27 0.04 0
0.28 0.04 0
0.29 0.04 0
0.3 0.04 0
0.31 0.04 0
0.32 0.04 0
0.33 0.04 0
0.34 0.04 0
0.35 0.04 0
0.36 0.04 0
0.37 0.04 0
0.38 0.04 0
0.39 0.04 0
0.4 0.04 0
0.41 0.04 0
0.42 0.04 0
0.43 0.04 0
0.44 0.04 0
0.45 0.04 0
0.46 0.04 0
0.47 0.04 0
0.48 0.04 0
0.49 0.04 0
0.5 0.04 0
0.51 0.04 0
0.52 0.04 0
0.53 0.04 0
0.54 0.04 0
0.55 0.04 0
0.56 0.04 0
0.57 0.04 0
0.58 0.04 0
0.59 0.04 0
0.6 0.04 0
0.61 0.04 0
0 0.05 0
0.01 0.05 0
0.02 0.05 0
0.03 0.05 0
0.04 0.05 0
0.05 0.05 0
0.06 0.05 0
0.07 0.05 0
0.08 0.05 0
0.09 0.05 0
0.1 0.05 0
0.11 0.05 0
0.12 0.05 0
0.13 0.05 0
0.14 0.05 0
0.15 0.05 0
0.16 0.05 0
0.17 0.05 0
0.18 0.05 0
0.19 0.05 0
0.2 0.05 0
0.21 0.05 0
0.22 0.05 0
0.23 0.05 0
0.24 0.05 0
0.25 0.05 0
0.26 0.05 0
0.27 0.05 0
0.28 0.05 0
0.29 0.05 0
0.3 0.05 0
0.31 0.05 0
0.32 0.05 0
0.33 0.05 0
0.34 0.05 0
0.35 0.05 0
0.36 0.05 0
0.37 0.05 0
0.38 0.05 0
0.39 0.05 0
0.4 0.05 0
0.41 0.05 0
0.42 0.05 0
0.43 0.05 0
0.44 0.05 0
0.45 0.05 0
0.46 0.05 0
0.47 0.05 0
0.48 0.05 0
0.49 0.05 0
0.5 0.05 0
0.51 0.05 0
0.52 0.05 0
0.53 0.05 0
0.54 0.05 0
0.55 0.05 0
0.56 0.05 0
0.57 0.05 0
0.58 0.05 0
0.59 0.05 0
0.6 0.05 0
0.61 0.05 0
0 0.06 0
0.01 0.06 0
0.02 0.06 0
0.03 0.06 0
0.04 0.06 0
0.05 0.06 0
0.06 0.06 0
0.07 0.06 0
0.08 0.06 0
0.09 0.06 0
0.1 0.06 0
0.11 0.06 0
0.12 0.06 0
0.13 0.06 0
0.14 0.06 0
0.15 0.06 0
0.16 0.06 0
0.17 0.06 0
0.18 0.06 0
0.19 0.06 0
0.2 0.06 0
0.21 0.06 0
0.22 0.06 0
0.23 0.06 0
0.24 0.06 0
0.25 0.06 0
0.26 0.06 0
0.27 0.06 0
0.28 0.06 0
0.29 0.06 0
0.3 0.06 0
0.31 0.06 0
0.32 0.06 0
0.33 0.06 0
0.34 0.06 0
0.35 0.06 0
0.36 0.06 0
0.37 0.06 0
0.38 0.06 0
0.39 0.06 0
0.4 0.06 0
0.41 0.06 0
0.42 0.06 0
0.43 0.06 0
0.44 0.06 0
0.45 0.06 0
0.46 0.06 0
0.47 0.06 0
0.48 0.06 0
0.49 0.06 0
0.5 0.06 0
0.51 0.06 0
0.52 0.06 0
0.53 0.06 0
0.54 0.06 0
0.55 0.06 0
0.56 0.06 0
0.57 0.06 0
0.58 0.06 0
0.59 0.06 0
0.6 0.06 0
0.61 0.06 0
0 0.07 0
0.01 0.07 0
0.02 0.07 0
0.03 0.07 0
0.04 0.07 0
0.05 0.07 0
0.06 0.07 0
0.07 0.07 0
0.08 0.07 0
0.09 0.07 0
0.1 0.07 0
0.11 0.07 0
0.12 0.07 0
0.13 0.07 0
0.14 0.07 0
0.15 0.07 0
0.16 0.07 0
0.17 0.07 0
0.18 0.07 0
0.19 0.07 0
0.2 0.07 0
0.21 0.07 0
0.22 0.07 0
0.23 0.07 0
0.24 0.07 0
0.25 0.07 0
0.26 0.07 0
0.27 0.07 0
0.28 0.07 0
0.29 0.07 0
0.3 0.07 0
0.31 0.07 0
0.32 0.07 0
0.33 0.07 0
0.34 0.07 0
0.35 0.07 0
0.36 0.07 0
0.37 0.07 0
0.38 0.07 0
0.39 0.07 0
0.4 0.07 0
0.41 0.07 0
0.42 0.07 0
0.43 0.07 0
0.44 0.07 0
0.45 0.07 0
0.46 0.07 0
0.47 0.07 0
0.48 0.07 0
0.49 0.07 0
0.5 0.07 0
0.51 0.07 0
0.52 0.07 0
0.53 0.07 0
0.54 0.07 0
0.55 0.07 0
0.56 0.07 0
0.57 0.07 0
0.58 0.07 0
0.59 0.07 0
0.6 0.07 0
0.61 0.07 0
0 0.08 0
0.01 0.08 0
0.02 0.08 0
0.03 0.08 0
0.04 0.08 0
0.05 0.08 0
0.06 0.08 0
0.07 0.08 0
0.08 0.08 0
0.09 0.08 0
0.1 0.08 0
0.11 0.08 0
0.12 0.08 0
0.13 0.08 0
0.14 0.08 0
0.15 0.08 0
0.16 0.08 0
0.17 0.08 0
0.18 0.08 0
0.19 0.08 0
0.2 0.08 0
0.21 0.08 0
0.22 0.08 0
0.23 0.08 0
0.24 0.08 0
0.25 0.08 0
0.26 0.08 0
0.27 0.08 0
0.28 0.08 0
0.29 0.08 0
0.3 0.08 0
0.31 0.08 0
0.32 0.08 0
0.33 0.08 0
0.34 0.08 0
0.35 0.08 0
0.36 0.08 0
0.37 0.08 0
0.38 0.08 0
0.39 0.08 0
0.4 0.08 0
0.41 0.08 0
0.42 0.08 0
0.43 0.08 0
0.44 0.08 0
0.45 0.08 0
0.46 0.08 0
0.47 0.08 0
0.48 0.08 0
0.49 0.08 0
0.5 0.08 0
0.51 0.08 0
0.52 0.08 0
0.53 0.08 0
0.54 0.08 0
0.55 0.08 0
0.56 0.08 0
0.57 0.08 0
0.58 0.08 0
0.59 0.08 0
0.6 0.08 0
0.61 0.08 0
0 0.09 0
0.01 0.09 0
0.02 0.09 0
0.03 0.09 0
0.04 0.09 0
0.05 0.09 0
0.06 0.09 0
0.07 0.09 0
0.08 0.09 0
0.09 0.09 0
0.1 0.09 0
0.11 0.09 0
0.12 0.09 0
0.13 0.09 0
0.14 0.09 0
0.15 0.09 0
0.16 0.09 0
0.17 0.09 0
0.18 0.09 0
0.19 0.09 0
0.2 0.09 0
0.21 0.09 0
0.22 0.09 0
0.23 0.09 0
0.24 0.09 0
0.25 0.09 0
0.26 0.09 0
0.27 0.09 0
0.28 0.09 0
0.29 0.09 0
0.3 0.09 0
0.31 0.09 0
0.32 0.09 0
0.33 0.09 0
0.34 0.09 0
0.35 0.09 0
0.36 0.09 0
0.37 0.09 0
0.38 0.09 0
0.39 0.09 0
0.4 0.09 0
0.41 0.09 0
0.42 0.09 0
0.43 0.09 0
0.44 0.09 0
0.45 0.09 0
0.46 0.09 0
0.47 0.09 0
0.48 0.09 0
0.49 0.09 0
0.5 0.09 0
0.51 0.09 0
0.52 0.09 0
0.53 0.09 0
0.54 0.09 0
0.55 0.09 0
0.56 0.09 0
0.57 0.09 0
0.58 0.09 0
0.59 0.09 0
0.6 0.09 0
0.61 0.09 0
0 0.1 0
0.01 0.1 0
0.02 0.1 0
0.03 0.1 0
0.04 0.1 0
0.05 0.1 0
0.06 0.1 0
0.07 0.1 0
0.08 0.1 0
0.09 0.1 0
0.1 0.1 0
0.11 0.1 0
0.12 0.1 0
0.13 0.1 0
0.14 0.1 0
0.15 0.1 0
0.16 0.1 0
0.17 0.1 0
0.18 0.1 0
0.19 0.1 0
0.2 0.1 0
0.21 0.1 0
0.22 0.1 0
0.23 0.1 0
0.24 0.1 0
0.25 0.1 0
0.26 0.1 0
0.27 0.1 0
0.28 0.1 0
0.29 0.1 0
0.3 0.1 0
0.31 0.1 0
0.32 0.1 0
0.33 0.1 0
0.34 0.1 0
0.35 0.1 0
0.36 0.1 0
0.37 0.1 0
0.38 0.1 0
0.39 0.1 0
0.4 0.1 0
0.41 0.1 0
0.42 0.1 0
0.43 0.1 0
0.44 0.1 0
0.45 0.1 0
0.46 0.1 0
0.47 0.1 0
0.48 0.1 0
0.49 0.1 0
0.5 0.1 0
0.51 0.1 0
0.52 0.1 0
0.53 0.1 0
0.54 0.1 0
0.55 0.1 0
0.56 0.1 0
0.57 0.1 0
0.58 0.1 0
0.59 0.1 0
0.6 0.1 0
0.61 0.1 0
0 0.11 0
0.01 0.11 0
0.02 0.11 0
0.03 0.11 0
0.04 0.11 0
0.05 0.11 0
0.06 0.11 0
0.07 0.11 0
0.08 0.11 0
0.09 0.11 0
0.1 0.11 0
0.11 0.11 0
0.12 0.11 0
0.13 0.11 0
0.14 0.11 0
0.15 0.11 0
0.16 0.11 0
0.17 0.11 0
0.18 0.11 0
0.19 0.11 0
0.2 0.11 0
0.21 0.11 0
0.22 0.11 0
0.23 0.11 0
0.24 0.11 0
0.25 0.11 0
0.26 0.11 0
0.27 0.11 0
0.28 0.11 0
0.29 0.11 0
0.3 0.11 0
0.31 0.11 0
0.32 0.11 0
0.33 0.11 0
0.34 0.11 0
0.35 0.11 0
0.36 0.11 0
0.37 0.11 0
0.38 0.11 0
0.39 0.11 0
0.4 0.11 0
0.41 0.11 0
0.42 0.11 0
0.43 0.11 0
0.44 0.11 0
0.45 0.11 0
0.46 0.11 0
0.47 0.11 0
0.48 0.11 0
0.49 0.11 0
0.5 0.11 0
0.51 0.11 0
0.52 0.11 0
0.53 0.11 0
0.54 0.11 0
0.55 0.11 0
0.56 0.11 0
0.57 0.11 0
0.58 0.11 0
0.59 0.11 0
0.6 0.11 0
0.61 0.11 0
0 0.12 0
0.01 0.12 0
0.02 0.12 0
0.03 0.12 0
0.04 0.12 0
0.05 0.12 0
0.06 0.12 0
0.07 0.12 0
0.08 0.12 0
0.09 0.12 0
0.1 0.12 0
0.11 0.12 0
0.12 0.12 0
0.13 0.12 0
0.14 0.12 0
0.15 0.12 0
0.16 0.12 0
0.17 0.12 0
0.18 0.12 0
0.19 0.12 0
0.2 0.12 0
0.21 0.12 0
0.22 0.12 0
0.23 0.12 0
0.24 0.12 0
0.25 0.12 0
0.26 0.12 0
0.27 0.12 0
0.28 0.12 0
0.29 0.12 0
0.3 0.12 0
0.31 0.12 0
0.32 0.12 0
0.33 0.12 0
0.34 0.12 0
0.35 0.12 0
0.36 0.12 0
0.37 0.12 0
0.38 0.12 0
0.39 0.12 0
0.4 0.12 0
0.41 0.12 0
0.42 0.12 0
0.43 0.12 0
0.44 0.12 0
0.45 0.12 0
0.46 0.12 0
0.47 0.12 0
0.48 0.12 0
0.49 0.12 0
0.5 0.12 0
0.51 0.12 0
0.52 0.12 0
0.53 0.12 0
0.54 0.12 0
0.55 0.12 0
0.56 0.12 0
0.57 0.12 0
0.58 0.12 0
0.59 0.12 0
0.6 0.12 0
0.61 0.12 0
0 0.13 0
0.01 0.13 0
0.02 0.13 0
0.03 0.13 0
0.04 0.13 0
0.05 0.13 0
0.06 0.13 0
0.07 0.13 0
0.08 0.13 0
0.09 0.13 0
0.1 0.13 0
0.11 0.13 0
0.12 0.13 0
0.13 0.13 0
0.14 0.13 0
0.15 0.13 0
0.16 0.13 0
0.17 0.13 0
0.18 0.13 0
0.19 0.13 0
0.2 0.13 0
0.21 0.13 0
0.22 0.13 0
0.23 0.13 0
0.24 0.13 0
0.25 0.13 0
0.26 0.13 0
0.27 0.13 0
0.28 0.13 0
0.29 0.13 0
0.3 0.13 0
0.31 0.13 0
0.32 0.13 0
0.33 0.13 0
0.34 0.13 0
0.35 0.13 0
0.36 0.13 0
0.37 0.13 0
0.38 0.13 0
0.39 0.13 0
0.4 0.13 0
0.41 0.13 0
0.42 0.13 0
0.43 0.13 0
0.44 0.13 0
0.45 0.13 0
0.46 0.13 0
0.47 0.13 0
0.48 0.13 0
[...]
POINT_DATA 93248

SCALARS w double
LOOKUP_TABLE default
0
0
0
0
0
0
0
0
0
0
0
0
0
-0.102508
0
0
0
0
0
0
0
0
0
0
0
0
-0.246666
0
0
0
0
0
-0.249989
0
0
0
0
0
0
0
0
0
0
0
0
0
-0.218119
0
0
0
0
0
0
0
0
0
0
0
0
0
0
0
0
-0.0232882
-0.0475237
-0.0648216
-0.0752633
-0.0811227
-0.0858439
-0.0897128
-0.0930524
-0.0956354
-0.09721
-0.0974203
-0.0964549
-0.0977871
-0.0996809
-0.101283
-0.102635
-0.103704
-0.103711
-0.101719
-0.0956068
-0.0971096
-0.100741
-0.0989186
-0.097312
-0.0962327
-0.0954087
-0.0946826
-0.0939832
-0.0932439
-0.0923324
-0.0910334
-0.0894471
-0.089661
-0.0895942
-0.0884388
-0.086794
-0.0882011
-0.0898918
-0.0923534
-0.0868188
-0.0887567
-0.0917135
-0.0940738
-0.0979696
-0.234155
-0.0926537
-0.0908417
-0.090584
-0.091676
-0.0930594
-0.0950383
-0.0956793
-0.0986792
-0.236494
-0.0964836
-0.088509
-0.087792
-0.0873473
-0.0853296
-0.0795122
0
0
-0.0274991
-0.0669649
-0.0921802
-0.111583
-0.126628
-0.143575
-0.158513
-0.171208
-0.181967
-0.190762
-0.196944
-0.19979
-0.204877
-0.209022
-0.212012
-0.214361
-0.216344
-0.217061
-0.216544
-0.205208
-0.20875
-0.284755
-0.208781
-0.204185
-0.201603
-0.199681
-0.198043
-0.196551
-0.195127
-0.193695
-0.19206
-0.18974
-0.190284
-0.189619
-0.18815
-0.188583
-0.187263
-0.187466
-0.189122
-0.188155
-0.190956
-0.192719
-0.195415
-0.200876
-0.208597
-0.202737
-0.195188
-0.192803
-0.19249
-0.194736
-0.235761
-0.198915
-0.201931
-0.20795
-0.200265
-0.194482
-0.186232
-0.181181
-0.173634
-0.160679
0
0
-0.0273038
-0.0671389
-0.0950163
-0.117432
-0.0811227
-0.154415
-0.174661
-0.192128
-0.208025
-0.222706
-0.235229
-0.248385
-0.2541
-0.25882
-0.262574
-0.265674
-0.268606
-0.269464
-0.270574
-0.270612
-0.26582
-0.265639
-0.259464
-0.254727
-0.251308
-0.248642
-0.246403
-0.244441
-0.242721
-0.241361
-0.240849
-0.242281
-0.260035
-0.238097
-0.234019
-0.233572
-0.232931
-0.232842
-0.233479
-0.233791
-0.235359
-0.237283
-0.238416
-0.241739
-0.244754
-0.242622
-0.239685
-0.237834
-0.23787
-0.239268
-0.242419
-0.24234
-0.243583
-0.244819
-0.243366
-0.240806
-0.236523
-0.226105
-0.214533
-0.198105
0
0
-0.026759
-0.0658216
-0.0679869
-0.118997
-0.139443
-0.160493
-0.179493
-0.197051
-0.213607
-0.229351
-0.243876
-0.257301
-0.26726
-0.274494
-0.278877
-0.283457
-0.284933
-0.287383
-0.288793
-0.287416
-0.284496
-0.28129
-0.277311
-0.273471
-0.270104
-0.267209
-0.264691
-0.262484
-0.260589
-0.259089
-0.25815
-0.257742
-0.256676
-0.254291
-0.251613
-0.250341
-0.24965
-0.251603
-0.249335
-0.249621
-0.250369
-0.251359
-0.251994
-0.253209
-0.254268
-0.254409
-0.253171
-0.252398
-0.252556
-0.253268
-0.254365
-0.255122
-0.255843
-0.256423
-0.256626
-0.255301
-0.251115
-0.242201
-0.229818
-0.211938
0
0
-0.0266329
-0.0660523
-0.0959621
-0.121912
-0.143876
-0.163945
-0.182205
-0.199242
-0.215394
-0.230699
-0.244975
-0.25788
-0.268678
-0.276374
-0.237157
-0.28671
-0.290831
-0.292544
-0.292858
-0.291045
-0.288181
-0.284755
-0.28121
-0.27778
-0.274599
-0.271733
-0.269152
-0.266844
-0.264823
-0.263101
-0.261616
-0.260035
-0.257776
-0.256576
-0.255314
-0.254211
-0.253364
-0.252814
-0.252425
-0.252375
-0.252572
-0.25287
-0.25307
-0.25332
-0.253717
-0.254936
-0.253578
-0.25347
-0.253852
-0.254417
-0.255085
-0.255849
-0.256625
-0.257384
-0.257867
-0.256951
-0.253134
-0.24495
-0.232269
-0.21388
0
0
-0.0265972
-0.0661765
-0.0972492
-0.123257
-0.145858
-0.166235
-0.184121
-0.200917
-0.21687
-0.231786
-0.245522
-0.257863
-0.268576
-0.276734
-0.281324
-0.287208
-0.290916
-0.286162
-0.292359
-0.290425
-0.287369
-0.283871
-0.280354
-0.276989
-0.273854
-0.271047
-0.268462
-0.266109
-0.264014
-0.262171
-0.260487
-0.258635
-0.255685
-0.25539
-0.254551
-0.253451
-0.252426
-0.251603
-0.251007
-0.250652
-0.250476
-0.250378
-0.250196
-0.249888
-0.249093
-0.24724
-0.248853
-0.250019
-0.250825
-0.251501
-0.252185
-0.252975
-0.253876
-0.254766
-0.255262
-0.254382
-0.250434
-0.24119
-0.225717
-0.209289
0
0
-0.0265523
-0.066125
-0.0974438
-0.123647
-0.146677
-0.167926
-0.184913
-0.202093
-0.2181
-0.232821
-0.246119
-0.257917
-0.26875
-0.277255
-0.28312
-0.286696
-0.2892
-0.291047
-0.29075
-0.288607
-0.285367
-0.281841
-0.278322
-0.274929
-0.271735
-0.269025
-0.266424
-0.264034
-0.261923
-0.260116
-0.258636
-0.257794
-0.258682
-0.255846
-0.253467
-0.251701
-0.250348
-0.249308
-0.248529
-0.247968
-0.24757
-0.247273
-0.246841
-0.246435
-0.245851
-0.24526
-0.24582
-0.246628
-0.247378
-0.248072
-0.24879
-0.249626
-0.250625
-0.251572
-0.252049
-0.251068
-0.246393
-0.232724
-0.0853296
-0.200073
0
0
-0.0264889
-0.0659654
-0.0972653
-0.123487
-0.146547
-0.167453
-0.185732
-0.202878
-0.218816
-0.233326
-0.246042
-0.256373
-0.268367
-0.277196
-0.282766
-0.283914
-0.240822
-0.288649
-0.288878
-0.286575
-0.283146
-0.279709
-0.276253
-0.27282
-0.269451
-0.266997
-0.264319
-0.261897
-0.259823
-0.258132
-0.256754
-0.255687
-0.254896
-0.253101
-0.251167
-0.249479
-0.248068
-0.246945
-0.246079
-0.245419
-0.24491
-0.244499
-0.244091
-0.243751
-0.243475
-0.24338
-0.243603
-0.244047
-0.244594
-0.245192
-0.245866
-0.246685
-0.247822
-0.248846
-0.249413
-0.248757
-0.245421
-0.236899
-0.217876
-0.203841
0
0
-0.026417
-0.0657608
-0.0969549
-0.123093
-0.146073
-0.16682
-0.185638
-0.203005
-0.218981
-0.23328
-0.244788
-0.19979
-0.265573
-0.276121
-0.282282
-0.284665
-0.285384
-0.287303
-0.286844
-0.284586
-0.281017
-0.277877
-0.27448
-0.270987
-0.267528
-0.264836
-0.262248
-0.259899
-0.257938
-0.256445
-0.255079
-0.253568
-0.25195
-0.250249
-0.248615
-0.24716
-0.245823
-0.24473
-0.243881
-0.243218
-0.242691
-0.242267
-0.241925
-0.241681
-0.241558
-0.241585
-0.241753
-0.242058
-0.242472
-0.242963
-0.243529
-0.242569
-0.24563
-0.246791
-0.247515
-0.247192
-0.244584
-0.237781
-0.224749
-0.204994
0
0
-0.0263462
-0.0655519
-0.0966197
-0.122643
-0.145527
-0.166214
-0.185192
-0.202726
-0.218838
-0.233283
-0.245423
-0.254298
-0.266299
-0.275865
-0.28241
-0.285754
-0.287039
-0.286991
-0.285571
-0.283215
-0.280733
-0.276914
-0.273079
-0.269316
-0.261283
-0.26284
-0.260286
-0.257984
-0.256143
-0.254958
-0.253614
-0.251603
-0.249545
-0.247752
-0.246244
-0.245008
-0.243718
-0.242693
-0.241933
-0.241335
-0.240846
-0.240455
-0.240174
-0.240003
-0.239947
-0.24001
-0.240184
-0.240466
-0.24084
-0.241275
-0.241816
-0.242569
-0.244093
-0.245295
-0.246154
-0.246074
-0.243869
-0.237771
-0.225949
-0.205555
0
0
-0.0262829
-0.0653626
-0.0963119
-0.122222
-0.145026
-0.165677
-0.184703
-0.202347
-0.218641
-0.233449
-0.246534
-0.257924
-0.268288
-0.27683
-0.283319
-0.2864
-0.287225
-0.286398
-0.284361
-0.281658
-0.278521
-0.275021
-0.271384
-0.267738
-0.264109
-0.261122
-0.258376
-0.255983
-0.254024
-0.252576
-0.251996
-0.249052
-0.246865
-0.245245
-0.243948
-0.242874
-0.241921
-0.240849
-0.240215
-0.239703
-0.239254
-0.238875
-0.238669
-0.238567
-0.238561
-0.238656
-0.238859
-0.239175
-0.239583
-0.240019
-0.24061
-0.241508
-0.242846
-0.244115
-0.24509
-0.24517
-0.24317
-0.23732
-0.225763
-0.205527
0
0
-0.0262304
-0.0652055
-0.0960651
-0.121933
-0.144651
-0.165245
-0.18428
-0.202002
-0.218468
-0.233602
-0.247208
-0.259192
-0.269323
-0.27743
-0.283979
-0.286123
-0.286465
-0.285289
-0.282891
-0.279937
-0.276677
-0.273264
-0.269766
-0.266248
-0.262775
-0.259456
-0.256336
-0.253569
-0.250954
-0.248385
-0.244304
-0.243902
-0.243361
-0.242562
-0.241687
-0.240845
-0.240069
-0.239289
-0.238726
-0.238254
-0.237769
-0.237224
-0.237231
-0.237262
-0.237332
-0.237478
-0.237727
-0.238112
-0.238616
-0.239049
-0.239679
-0.240623
-0.241852
-0.243141
-0.244198
-0.244393
-0.242522
-0.236798
-0.225354
-0.205219
0
0
-0.0261889
-0.0650812
-0.0958729
-0.121712
-0.144332
-0.164881
-0.183921
-0.201704
-0.218294
-0.233648
-0.24744
-0.259512
-0.269453
-0.276697
-0.280092
-0.283643
-0.284828
-0.283838
-0.281211
-0.278291
-0.275178
-0.271878
-0.268436
-0.2649
-0.261283
-0.257561
-0.253744
-0.249905
-0.245087
-0.24332
-0.241822
-0.24121
-0.240768
-0.240249
-0.23964
-0.238998
-0.238409
-0.237775
-0.23731
-0.236857
-0.236189
-0.227331
-0.235665
-0.236006
-0.236202
-0.236418
-0.236718
-0.237173
-0.23783
-0.23818
-0.238837
-0.239845
-0.241094
-0.242384
-0.243482
-0.243758
-0.242
-0.236361
-0.224974
-0.20483
0
0
-0.0261572
-0.0649872
-0.0957468
-0.123487
-0.144144
-0.164601
-0.18363
-0.201444
-0.21808
-0.233395
-0.247349
-0.259472
-0.26935
-0.276578
-0.281004
-0.283659
-0.284296
-0.282925
-0.279652
-0.277068
-0.274232
-0.271004
-0.267501
-0.263795
-0.259837
-0.255413
-0.250056
-0.242538
-0.226403
-0.232025
-0.235853
-0.237544
-0.238131
-0.238134
-0.237804
-0.237337
-0.239303
-0.236218
-0.235743
-0.235338
-0.234839
-0.234201
-0.23453
-0.234859
-0.235149
-0.235431
-0.235747
-0.236179
-0.236955
-0.237175
-0.23798
-0.239189
-0.240658
-0.241879
-0.242974
-0.2433
-0.24119
-0.236062
-0.224683
-0.204444
0
0
-0.0261315
-0.0649053
-0.0955748
-0.121304
-0.143832
-0.164331
-0.183379
-0.201223
-0.217907
-0.233327
-0.247286
-0.259401
-0.269275
-0.27662
-0.281413
-0.283886
-0.284272
-0.282746
-0.278865
-0.277062
-0.274245
-0.270774
-0.267
-0.263001
-0.258611
-0.253281
-0.245224
-0.226492
0.0982169
-0.209399
-0.227355
-0.23349
-0.235714
-0.236354
-0.236216
-0.235671
-0.234965
-0.23402
-0.233299
-0.233036
-0.23299
-0.233077
-0.233377
-0.23376
-0.234155
-0.234501
-0.234776
-0.234869
-0.234624
-0.235736
-0.2371
-0.238737
-0.24563
-0.241697
-0.242733
-0.243009
-0.241376
-0.235884
-0.224506
-0.204084
0
0
-0.0261139
-0.0648604
-0.0954468
-0.121041
-0.143575
-0.164095
-0.183174
-0.201044
-0.217761
-0.233234
-0.247233
-0.259358
-0.269227
-0.276591
-0.281423
-0.283894
-0.284418
-0.283848
-0.284134
-0.279764
-0.275243
-0.27095
-0.266765
-0.262509
-0.257894
-0.252361
-0.244681
-0.232233
-0.212457
-0.221693
-0.229226
-0.233274
-0.235048
-0.235477
-0.235062
-0.234037
-0.232463
-0.230257
-0.227515
-0.228256
-0.229624
-0.230817
-0.231764
-0.232535
-0.233182
-0.233663
-0.234032
-0.234066
-0.234438
-0.235046
-0.236491
-0.238222
-0.240129
-0.241529
-0.242999
-0.242941
-0.241246
-0.235814
-0.224434
-0.203731
0
0
-0.0260913
-0.0648344
-0.0953182
-0.120821
-0.143346
-0.163931
-0.18306
-0.200934
-0.217653
-0.23316
-0.247237
-0.259364
-0.269167
-0.276437
-0.281186
-0.283628
-0.284162
-0.283378
-0.281807
-0.278554
-0.274626
-0.270534
-0.266414
-0.262216
-0.257779
-0.252857
-0.247153
-0.240316
-0.234516
-0.234054
-0.23507
-0.235862
-0.236014
-0.235514
-0.23436
-0.232419
-0.229121
-0.222639
-0.208797
-0.217459
-0.223932
-0.227651
-0.229845
-0.231251
-0.232262
-0.232946
-0.233508
-0.233966
-0.234295
-0.234524
-0.236179
-0.237879
-0.239603
-0.241664
-0.256626
-0.24317
-0.241231
-0.235769
-0.224399
-0.203169
0
0
-0.0260078
-0.0644248
-0.0949149
-0.120473
-0.143102
-0.166214
-0.183158
-0.200913
-0.217567
-0.233102
-0.247343
-0.259401
-0.269024
-0.276084
-0.28068
-0.283067
-0.283521
-0.282402
-0.280206
-0.277197
-0.273687
-0.269932
-0.266065
-0.262118
-0.258068
-0.253939
-0.249923
-0.245114
-0.241618
-0.240193
-0.239338
-0.238459
-0.23737
-0.235967
-0.233999
-0.230995
-0.2252
-0.20866
0.0978071
-0.19739
-0.217194
-0.224741
-0.22827
-0.23021
-0.23139
-0.232373
-0.233181
-0.233916
-0.23452
-0.234557
-0.236478
-0.237914
-0.239376
-0.241161
-0.243084
-0.242543
-0.241062
-0.235523
-0.22407
-0.202864
0
0
-0.0259969
-0.0644335
-0.0948477
-0.120283
-0.142931
-0.16392
-0.183013
-0.200728
-0.21734
-0.232937
-0.247534
-0.25931
-0.268628
-0.275394
-0.27984
-0.282274
-0.282748
-0.28146
-0.27927
-0.276432
-0.273145
-0.269605
-0.265946
-0.262227
-0.258475
-0.254762
-0.251246
-0.247914
-0.244478
-0.243402
-0.241981
-0.240275
-0.238451
-0.236494
-0.234018
-0.230687
-0.225257
-0.21527
-0.198084
-0.209661
-0.219512
-0.224952
-0.228047
-0.229912
-0.231152
-0.232154
-0.23308
-0.234141
-0.235729
-0.238338
-0.237888
-0.238208
-0.239141
-0.240414
-0.241602
-0.24186
-0.240353
-0.234839
-0.223255
-0.202008
0
0
-0.0260089
-0.0644789
-0.0948462
-0.120123
-0.14281
-0.164041
-0.182747
-0.200259
-0.216796
-0.23237
-0.247357
-0.258528
-0.267718
-0.274258
-0.278694
-0.281471
-0.282168
-0.280763
-0.278899
-0.276296
-0.273132
-0.269679
-0.26612
-0.262506
-0.258826
-0.255025
-0.251004
-0.249685
-0.249796
-0.246786
-0.243916
-0.241387
-0.239073
-0.236854
-0.234438
-0.23159
-0.228058
-0.223996
-0.220825
-0.222191
-0.224967
-0.227331
-0.229094
-0.230331
-0.23129
-0.232177
-0.233055
-0.234066
-0.235349
-0.236769
-0.237377
-0.237972
-0.238811
-0.239908
-0.241023
-0.241428
-0.239884
-0.234434
-0.222978
-0.202409
0
0
-0.0260266
-0.0645314
-0.0949624
-0.120608
-0.14277
-0.162184
-0.181303
-0.199245
-0.215871
-0.230871
-0.243037
-0.255943
-0.266437
-0.272927
-0.277648
-0.281217
-0.282324
-0.280856
-0.279474
-0.276881
-0.273606
-0.270087
-0.266532
-0.262907
-0.259078
-0.254435
-0.211889
-0.248389
-0.248352
-0.246434
-0.243986
-0.241456
-0.239021
-0.236779
-0.234681
-0.232596
-0.23061
-0.229056
-0.228408
-0.228422
-0.228968
-0.229767
-0.230665
-0.231136
-0.231643
-0.232347
-0.23305
-0.233838
-0.234764
-0.235761
-0.236689
-0.237549
-0.23843
-0.239529
-0.240776
-0.241234
-0.239732
-0.23435
-0.222973
-0.202688
0
0
-0.0260417
-0.0645635
-0.0949857
-0.120467
-0.142716
-0.162681
-0.181479
-0.199104
-0.215479
-0.230419
-0.243967
-0.256494
-0.267145
-0.272094
-0.27872
-0.2825
-0.283928
-0.284532
-0.281608
-0.278021
-0.274294
-0.270617
-0.267076
-0.263431
-0.259594
-0.255346
-0.250307
-0.249171
-0.24784
-0.245901
-0.243526
-0.24088
-0.238075
-0.235308
-0.233791
-0.23256
-0.231697
-0.23116
-0.230962
-0.230924
-0.231072
-0.231539
-0.238567
-0.232049
-0.231994
-0.232608
-0.233088
-0.233652
-0.234393
-0.235332
-0.236327
-0.237262
-0.238065
-0.239132
-0.240656
-0.241149
-0.239731
-0.234442
-0.223001
-0.202785
0
0
-0.0260581
-0.0645971
-0.0950187
-0.120462
-0.142819
-0.163103
-0.181944
-0.199294
-0.215243
-0.229447
-0.244168
-0.257156
-0.268586
-0.279358
-0.283031
-0.284732
-0.285005
-0.284072
-0.281553
-0.278206
-0.274565
-0.27098
-0.267648
-0.263996
-0.260238
-0.256571
-0.25323
-0.250661
-0.248382
-0.245924
-0.243167
-0.239882
-0.235488
-0.228811
-0.230089
-0.230291
-0.231194
-0.231603
-0.231789
-0.231894
-0.232046
-0.232337
-0.232749
-0.232377
-0.23208
-0.232915
-0.233127
-0.233506
-0.234156
-0.235175
-0.236235
-0.237152
-0.237715
-0.23862
-0.240589
-0.241002
-0.239706
-0.234631
-0.222958
-0.202679
0
0
-0.0260795
-0.0646463
-0.0950914
-0.120571
-0.143049
-0.163599
-0.182918
-0.199752
-0.214713
-0.196403
-0.242908
-0.256993
-0.268264
-0.27712
-0.282235
-0.284576
-0.284789
-0.283632
-0.281258
-0.278089
-0.274581
-0.271148
-0.26821
-0.264359
-0.260584
-0.257175
-0.254155
-0.251395
-0.248927
-0.246156
-0.243021
-0.238703
-0.230279
-0.0895942
-0.221916
-0.201321
-0.229489
-0.231428
-0.232081
-0.232352
-0.232544
-0.232736
-0.232721
-0.232526
-0.23241
-0.232735
-0.232969
-0.233292
-0.233874
-0.235113
-0.236643
-0.236669
-0.237353
-0.238475
-0.239938
-0.24049
-0.23939
-0.234818
-0.222715
-0.202362
0
0
-0.026107
-0.0647128
-0.095196
-0.120733
-0.143353
-0.164385
-0.201704
-0.201116
-0.215935
-0.228955
-0.243924
-0.257071
-0.267825
-0.275911
-0.281186
-0.283736
-0.271619
-0.283137
-0.281037
-0.277985
-0.274485
-0.270994
-0.268296
-0.264003
-0.260359
-0.257242
-0.25443
-0.251852
-0.249212
-0.246555
-0.243694
-0.239336
-0.232907
-0.222978
-0.22638
-0.228089
-0.230628
-0.231973
-0.232538
-0.232765
-0.232945
-0.233163
-0.232945
-0.232667
-0.232542
-0.232619
-0.232784
-0.233011
-0.233352
-0.234583
-0.236417
-0.235806
-0.236858
-0.238129
-0.239275
-0.239616
-0.238291
-0.234261
-0.221904
-0.201884
0
0
-0.0261402
-0.0647944
-0.095317
-0.120886
-0.143515
-0.164374
-0.184328
-0.201548
-0.217295
-0.23182
-0.245512
-0.257687
-0.267813
-0.275537
-0.280725
-0.283424
-0.283793
-0.28311
-0.281017
-0.277958
-0.274303
-0.270094
-0.26459
-0.262174
-0.259731
-0.257189
-0.254571
-0.251809
-0.249485
-0.247398
-0.256754
-0.241643
-0.237609
-0.23436
-0.233373
-0.233132
-0.233276
-0.233371
-0.233335
-0.233258
-0.23331
-0.23364
-0.233093
-0.232673
-0.23252
-0.23255
-0.232675
-0.232819
-0.232873
-0.232594
-0.231148
-0.234684
-0.236385
-0.237732
-0.238702
-0.238543
-0.235664
-0.228071
-0.219852
-0.201464
0
0
-0.0261814
-0.0648973
-0.0954604
-0.121035
-0.143612
-0.164259
-0.183586
-0.201824
-0.217937
-0.232647
-0.246058
-0.257889
-0.267759
-0.275353
-0.280512
-0.283324
-0.284143
-0.283327
-0.281194
-0.27812
-0.274428
-0.269766
-0.266249
-0.263267
-0.260374
-0.257764
-0.255163
-0.252571
-0.250168
-0.248012
-0.246216
-0.243227
-0.240584
-0.238617
-0.237157
-0.236105
-0.235315
-0.234678
-0.234132
-0.233668
-0.23339
-0.233721
-0.232783
-0.232436
-0.232413
-0.23252
-0.232679
-0.232842
-0.232957
-0.232985
-0.233146
-0.234671
-0.236164
-0.237506
-0.238502
-0.2385
-0.23629
-0.23041
-0.22031
-0.201473
0
0
-0.0262386
-0.0650457
-0.0956607
-0.121223
-0.143734
-0.164234
-0.183384
-0.202075
-0.217715
-0.232327
-0.24578
-0.257648
-0.267541
-0.275165
-0.280361
-0.283206
-0.284277
-0.283607
-0.281568
-0.278522
-0.27485
-0.271124
-0.267562
-0.26431
-0.261193
-0.258647
-0.255991
-0.253357
-0.250854
-0.248512
-0.246283
-0.244058
-0.242055
-0.240369
-0.238915
-0.237659
-0.236566
-0.235605
-0.234737
-0.233875
-0.232768
-0.230902
-0.231559
-0.232048
-0.232347
-0.232585
-0.232813
-0.233053
-0.233325
-0.233683
-0.234264
-0.235155
-0.236294
-0.237539
-0.238619
-0.238921
-0.23732
-0.231814
-0.221021
-0.201715
0
0
-0.0263332
-0.0653027
-0.0959971
-0.121504
-0.143934
-0.164241
-0.182716
-0.198576
-0.215526
-0.231237
-0.245237
-0.25735
-0.26736
-0.275076
-0.280371
-0.283101
-0.28456
-0.284101
-0.282196
-0.279169
-0.275432
-0.271948
-0.268553
-0.265226
-0.261913
-0.259661
-0.256836
-0.254073
-0.251477
-0.249063
-0.246819
-0.244776
-0.242956
-0.241351
-0.239908
-0.23859
-0.23738
-0.236268
-0.235237
-0.234245
-0.233242
-0.232329
-0.23221
-0.232356
-0.23257
-0.232812
-0.233067
-0.233355
-0.233706
-0.23415
-0.234737
-0.235498
-0.236494
-0.237678
-0.238809
-0.23924
-0.237714
-0.232336
-0.221447
-0.201997
0
0
-0.026519
-0.0658419
-0.0966289
-0.121942
-0.14433
-0.164593
-0.183127
-0.200071
-0.216421
-0.231695
-0.245467
-0.257445
-0.267395
-0.275225
-0.28671
-0.282901
-0.285198
-0.28485
-0.283066
-0.280028
-0.276291
-0.273014
-0.269624
-0.266277
-0.263165
-0.260335
-0.257424
-0.254612
-0.251992
-0.249585
-0.24739
-0.245418
-0.243666
-0.242108
-0.240667
-0.239303
-0.238014
-0.23681
-0.235696
-0.234685
-0.233827
-0.233237
-0.232935
-0.232858
-0.232949
-0.233146
-0.23338
-0.233662
-0.234019
-0.234437
-0.234966
-0.23568
-0.236629
-0.237787
-0.238944
-0.239421
-0.237851
-0.23253
-0.221721
-0.202278
0
0
-0.0269169
-0.0672734
-0.0976043
-0.122822
-0.145082
-0.165295
-0.183934
-0.201273
-0.217494
-0.232461
-0.245931
-0.257658
-0.267418
-0.275042
-0.280401
-0.282026
-0.286251
-0.285784
-0.283821
-0.279764
-0.278407
-0.274563
-0.270751
-0.267264
-0.264263
-0.260989
-0.257859
-0.254996
-0.252398
-0.250041
-0.247907
-0.245998
-0.244312
-0.242821
-0.241378
-0.239951
-0.238576
-0.237289
-0.236105
-0.235054
-0.234212
-0.233701
-0.233395
-0.233255
-0.23329
-0.23345
-0.233618
-0.23385
-0.234188
-0.234557
-0.235034
-0.235729
-0.236674
-0.237828
-0.239033
-0.239627
-0.238037
-0.23268
-0.221934
-0.20259
0
0
-0.0276715
-0.0921802
-0.0995491
-0.123936
-0.145918
-0.16606
-0.184712
-0.20209
-0.218211
-0.232971
-0.246203
-0.257707
-0.267281
-0.27474
-0.280086
-0.283168
-0.285666
-0.285753
-0.284141
-0.281503
-0.278432
-0.274901
-0.271278
-0.267812
-0.264871
-0.261255
-0.258082
-0.255283
-0.252756
-0.250472
-0.248406
-0.24656
-0.24496
-0.243579
-0.242102
-0.240566
-0.239086
-0.237718
-0.23646
-0.235309
-0.234395
-0.233979
-0.233685
-0.233477
-0.233432
-0.233513
-0.233531
-0.233669
-0.234012
-0.234357
-0.234847
-0.235609
-0.236626
-0.237813
-0.239105
-0.239933
-0.238334
-0.232978
-0.222109
-0.202968
0
0
-0.0271763
-0.0679869
-0.0984832
-0.123861
-0.146181
-0.166524
-0.185256
-0.202648
-0.218617
-0.233189
-0.246209
-0.257536
-0.266983
-0.274394
-0.280205
-0.28388
-0.285721
-0.285764
-0.284331
-0.281848
-0.278726
-0.27531
-0.271738
-0.267976
-0.263598
-0.260809
-0.258174
-0.255589
-0.253085
-0.25092
-0.248919
-0.247131
-0.245627
-0.24443
-0.242817
-0.241103
-0.239519
-0.238107
-0.236811
-0.235477
-0.234379
-0.234222
-0.233871
-0.233423
-0.233103
-0.232924
-0.232627
-0.232624
-0.233039
-0.233481
-0.234181
-0.235227