# vtk DataFile Version 2.0
FlowField
ASCII
DATASET STRUCTURED_GRID
DIMENSIONS 62 47 32 
POINTS 93248 double
0 0 0
0.01 0 0
0.02 0 0
0.03 0 0
0.04 0 0
0.05 0 0
0.06 0 0
0.07 0 0
0.08 0 0
0.09 0 0
0.1 0 0
0.11 0 0
0.12 0 0
0.13 0 0
0.14 0 0
0.15 0 0
0.16 0 0
0.17 0 0
0.18 0 0
0.19 0 0
0.2 0 0
0.21 0 0
0.22 0 0
0.23 0 0
0.24 0 0
0.25 0 0
0.26 0 0
0.27 0 0
0.28 0 0
0.29 0 0
0.3 0 0
0.31 0 0
0.32 0 0
0.33 0 0
0.34 0 0
0.35 0 0
0.36 0 0
0.37 0 0
0.38 0 0
0.39 0 0
0.4 0 0
0.41 0 0
0.42 0 0
0.43 0 0
0.44 0 0
0.45 0 0
0.46 0 0
0.47 0 0
0.48 0 0
0.49 0 0
0.5 0 0
0.51 0 0
0.52 0 0
0.53 0 0
0.54 0 0
0.55 0 0
0.56 0 0
0.57 0 0
0.58 0 0
0.59 0 0
0.6 0 0
0.61 0 0
0 0.01 0
0.01 0.01 0
0.02 0.01 0
0.03 0.01 0
0.04 0.01 0
0.05 0.01 0
0.06 0.01 0
0.07 0.01 0
0.08 0.01 0
0.09 0.01 0
0.1 0.01 0
0.11 0.01 0
0.12 0.01 0
0.13 0.01 0
0.14 0.01 0
0.15 0.01 0
0.16 0.01 0
0.17 0.01 0
0.18 0.01 0
0.19 0.01 0
0.2 0.01 0
0.21 0.01 0
0.22 0.01 0
0.23 0.01 0
0.24 0.01 0
0.25 0.01 0
0.26 0.01 0
0.27 0.01 0
0.28 0.01 0
0.29 0.01 0
0.3 0.01 0
0.31 0.01 0
0.32 0.01 0
0.33 0.01 0
0.34 0.01 0
0.35 0.01 0
0.36 0.01 0
0.37 0.01 0
0.38 0.01 0
0.39 0.01 0
0.4 0.01 0
0.41 0.01 0
0.42 0.01 0
0.43 0.01 0
0.44 0.01 0
0.45 0.01 0
0.46 0.01 0
0.47 0.01 0
0.48 0.01 0
0.49 0.01 0
0.5 0.01 0
0.51 0.01 0
0.52 0.01 0
0.53 0.01 0
0.54 0.01 0
0.55 0.01 0
0.56 0.01 0
0.57 0.01 0
0.58 0.01 0
0.59 0.01 0
0.6 0.01 0
0.61 0.01 0
0 0.02 0
0.01 0.02 0
0.02 0.02 0
0.03 0.02 0
0.04 0.02 0
0.05 0.02 0
0.06 0.02 0
0.07 0.02 0
0.08 0.02 0
0.09 0.02 0
0.1 0.02 0
0.11 0.02 0
0.12 0.02 0
0.13 0.02 0
0.14 0.02 0
0.15 0.02 0
0.16 0.02 0
0.17 0.02 0
0.18 0.02 0
0.19 0.02 0
0.2 0.02 0
0.21 0.02 0
0.22 0.02 0
0.23 0.02 0
0.24 0.02 0
0.25 0.02 0
0.26 0.02 0
0.27 0.02 0
0.28 0.02 0
0.29 0.02 0
0.3 0.02 0
0.31 0.02 0
0.32 0.02 0
0.33 0.02 0
0.34 0.02 0
0.35 0.02 0
0.36 0.02 0
0.37 0.02 0
0.38 0.02 0
0.39 0.02 0
0.4 0.02 0
0.41 0.02 0
0.42 0.02 0
0.43 0.02 0
0.44 0.02 0
0.45 0.02 0
0.46 0.02 0
0.47 0.02 0
0.48 0.02 0
0.49 0.02 0
0.5 0.02 0
0.51 0.02 0
0.52 0.02 0
0.53 0.02 0
0.54 0.02 0
0.55 0.02 0
0.56 0.02 0
0.57 0.02 0
0.58 0.02 0
0.59 0.02 0
0.6 0.02 0
0.61 0.02 0
0 0.03 0
0.01 0.03 0
0.02 0.03 0
0.03 0.03 0
0.04 0.03 0
0.05 0.03 0
0.06 0.03 0
0.07 0.03 0
0.08 0.03 0
0.09 0.03 0
0.1 0.03 0
0.11 0.03 0
0.12 0.03 0
0.13 0.03 0
0.14 0.03 0
0.15 0.03 0
0.16 0.03 0
0.17 0.03 0
0.18 0.03 0
0.19 0.03 0
0.2 0.03 0
0.21 0.03 0
0.22 0.03 0
0.23 0.03 0
0.24 0.03 0
0.25 0.03 0
0.26 0.03 0
0.27 0.03 0
0.28 0.03 0
0.29 0.03 0
0.3 0.03 0
0.31 0.03 0
0.32 0.03 0
0.33 0.03 0
0.34 0.03 0
0.35 0.03 0
0.36 0.03 0
0.37 0.03 0
0.38 0.03 0
0.39 0.03 0
0.4 0.03 0
0.41 0.03 0
0.42 0.03 0
0.43 0.03 0
0.44 0.03 0
0.45 0.03 0
0.46 0.03 0
0.47 0.03 0
0.48 0.03 0
0.49 0.03 0
0.5 0.03 0
0.51 0.03 0
0.52 0.03 0
0.53 0.03 0
0.54 0.03 0
0.55 0.03 0
0.56 0.03 0
0.57 0.03 0
0.58 0.03 0
0.59 0.03 0
0.6 0.03 0
0.61 0.03 0
0 0.04 0
0.01 0.04 0
0.02 0.04 0
0.03 0.04 0
0.04 0.04 0
0.05 0.04 0
0.06 0.04 0
0.07 0.04 0
0.08 0.04 0
0.09 0.04 0
0.1 0.04 0
0.11 0.04 0
0.12 0.04 0
0.13 0.04 0
0.14 0.04 0
0.15 0.04 0
0.16 0.04 0
0.17 0.04 0
0.18 0.04 0
0.19 0.04 0
0.2 0.04 0
0.21 0.04 0
0.22 0.04 0
0.23 0.04 0
0.24 0.04 0
0.25 0.04 0
0.26 0.04 0
0.27 0.04 0
0.28 0.04 0
0.29 0.04 0
0.3 0.04 0
0.31 0.04 0
0.32 0.04 0
0.33 0.04 0
0.34 0.04 0
0.35 0.04 0
0.36 0.04 0
0.37 0.04 0
0.38 0.04 0
0.39 0.04 0
0.4 0.04 0
0.41 0.04 0
0.42 0.04 0
0.43 0.04 0
0.44 0.04 0
0.45 0.04 0
0.46 0.04 0
0.47 0.04 0
0.48 0.04 0
0.49 0.04 0
0.5 0.04 0
0.51 0.04 0
0.52 0.04 0
0.53 0.04 0
0.54 0.04 0
0.55 0.04 0
0.56 0.04 0
0.57 0.04 0
0.58 0.04 0
0.59 0.04 0
0.6 0.04 0
0.61 0.04 0
0 0.05 0
0.01 0.05 0
0.02 0.05 0
0.03 0.05 0
0.04 0.05 0
0.05 0.05 0
0.06 0.05 0
0.07 0.05 0
0.08 0.05 0
0.09 0.05 0
0.1 0.05 0
0.11 0.05 0
0.12 0.05 0
0.13 0.05 0
0.14 0.05 0
0.15 0.05 0
0.16 0.05 0
0.17 0.05 0
0.18 0.05 0
0.19 0.05 0
0.2 0.05 0
0.21 0.05 0
0.22 0.05 0
0.23 0.05 0
0.24 0.05 0
0.25 0.05 0
0.26 0.05 0
0.27 0.05 0
0.28 0.05 0
0.29 0.05 0
0.3 0.05 0
0.31 0.05 0
0.32 0.05 0
0.33 0.05 0
0.34 0.05 0
0.35 0.05 0
0.36 0.05 0
0.37 0.05 0
0.38 0.05 0
0.39 0.05 0
0.4 0.05 0
0.41 0.05 0
0.42 0.05 0
0.43 0.05 0
0.44 0.05 0
0.45 0.05 0
0.46 0.05 0
0.47 0.05 0
0.48 0.05 0
0.49 0.05 0
0.5 0.05 0
0.51 0.05 0
0.52 0.05 0
0.53 0.05 0
0.54 0.05 0
0.55 0.05 0
0.56 0.05 0
0.57 0.05 0
0.58 0.05 0
0.59 0.05 0
0.6 0.05 0
0.61 0.05 0
0 0.06 0
0.01 0.06 0
0.02 0.06 0
0.03 0.06 0
0.04 0.06 0
0.05 0.06 0
0.06 0.06 0
0.07 0.06 0
0.08 0.06 0
0.09 0.06 0
0.1 0.06 0
0.11 0.06 0
0.12 0.06 0
0.13 0.06 0
0.14 0.06 0
0.15 0.06 0
0.16 0.06 0
0.17 0.06 0
0.18 0.06 0
0.19 0.06 0
0.2 0.06 0
0.21 0.06 0
0.22 0.06 0
0.23 0.06 0
0.24 0.06 0
0.25 0.06 0
0.26 0.06 0
0.27 0.06 0
0.28 0.06 0
0.29 0.06 0
0.3 0.06 0
0.31 0.06 0
0.32 0.06 0
0.33 0.06 0
0.34 0.06 0
0.35 0.06 0
0.36 0.06 0
0.37 0.06 0
0.38 0.06 0
0.39 0.06 0
0.4 0.06 0
0.41 0.06 0
0.42 0.06 0
0.43 0.06 0
0.44 0.06 0
0.45 0.06 0
0.46 0.06 0
0.47 0.06 0
0.48 0.06 0
0.49 0.06 0
0.5 0.06 0
0.51 0.06 0
0.52 0.06 0
0.53 0.06 0
0.54 0.06 0
0.55 0.06 0
0.56 0.06 0
0.57 0.06 0
0.58 0.06 0
0.59 0.06 0
0.6 0.06 0
0.61 0.06 0
0 0.07 0
0.01 0.07 0
0.02 0.07 0
0.03 0.07 0
0.04 0.07 0
0.05 0.07 0
0.06 0.07 0
0.07 0.07 0
0.08 0.07 0
0.09 0.07 0
0.1 0.07 0
0.11 0.07 0
0.12 0.07 0
0.13 0.07 0
0.14 0.07 0
0.15 0.07 0
0.16 0.07 0
0.17 0.07 0
0.18 0.07 0
0.19 0.07 0
0.2 0.07 0
0.21 0.07 0
0.22 0.07 0
0.23 0.07 0
0.24 0.07 0
0.25 0.07 0
0.26 0.07 0
0.27 0.07 0
0.28 0.07 0
0.29 0.07 0
0.3 0.07 0
0.31 0.07 0
0.32 0.07 0
0.33 0.07 0
0.34 0.07 0
0.35 0.07 0
0.36 0.07 0
0.37 0.07 0
0.38 0.07 0
0.39 0.07 0
0.4 0.07 0
0.41 0.07 0
0.42 0.07 0
0.43 0.07 0
0.44 0.07 0
0.45 0.07 0
0.46 0.07 0
0.47 0.07 0
0.48 0.07 0
0.49 0.07 0
0.5 0.07 0
0.51 0.07 0
0.52 0.07 0
0.53 0.07 0
0.54 0.07 0
0.55 0.07 0
0.56 0.07 0
0.57 0.07 0
0.58 0.07 0
0.59 0.07 0
0.6 0.07 0
0.61 0.07 0
0 0.08 0
0.01 0.08 0
0.02 0.08 0
0.03 0.08 0
0.04 0.08 0
0.05 0.08 0
0.06 0.08 0
0.07 0.08 0
0.08 0.08 0
0.09 0.08 0
0.1 0.08 0
0.11 0.08 0
0.12 0.08 0
0.13 0.08 0
0.14 0.08 0
0.15 0.08 0
0.16 0.08 0
0.17 0.08 0
0.18 0.08 0
0.19 0.08 0
0.2 0.08 0
0.21 0.08 0
0.22 0.08 0
0.23 0.08 0
0.24 0.08 0
0.25 0.08 0
0.26 0.08 0
0.27 0.08 0
0.28 0.08 0
0.29 0.08 0
0.3 0.08 0
0.31 0.08 0
0.32 0.08 0
0.33 0.08 0
0.34 0.08 0
0.35 0.08 0
0.36 0.08 0
0.37 0.08 0
0.38 0.08 0
0.39 0.08 0
0.4 0.08 0
0.41 0.08 0
0.42 0.08 0
0.43 0.08 0
0.44 0.08 0
0.45 0.08 0
0.46 0.08 0
0.47 0.08 0
0.48 0.08 0
0.49 0.08 0
0.5 0.08 0
0.51 0.08 0
0.52 0.08 0
0.53 0.08 0
0.54 0.08 0
0.55 0.08 0
0.56 0.08 0
0.57 0.08 0
0.58 0.08 0
0.59 0.08 0
0.6 0.08 0
0.61 0.08 0
0 0.09 0
0.01 0.09 0
0.02 0.09 0
0.03 0.09 0
0.04 0.09 0
0.05 0.09 0
0.06 0.09 0
0.07 0.09 0
0.08 0.09 0
0.09 0.09 0
0.1 0.09 0
0.11 0.09 0
0.12 0.09 0
0.13 0.09 0
0.14 0.09 0
0.15 0.09 0
0.16 0.09 0
0.17 0.09 0
0.18 0.09 0
0.19 0.09 0
0.2 0.09 0
0.21 0.09 0
0.22 0.09 0
0.23 0.09 0
0.24 0.09 0
0.25 0.09 0
0.26 0.09 0
0.27 0.09 0
0.28 0.09 0
0.29 0.09 0
0.3 0.09 0
0.31 0.09 0
0.32 0.09 0
0.33 0.09 0
0.34 0.09 0
0.35 0.09 0
0.36 0.09 0
0.37 0.09 0
0.38 0.09 0
0.39 0.09 0
0.4 0.09 0
0.41 0.09 0
0.42 0.09 0
0.43 0.09 0
0.44 0.09 0
0.45 0.09 0
0.46 0.09 0
0.47 0.09 0
0.48 0.09 0
0.49 0.09 0
0.5 0.09 0
0.51 0.09 0
0.52 0.09 0
0.53 0.09 0
0.54 0.09 0
0.55 0.09 0
0.56 0.09 0
0.57 0.09 0
0.58 0.09 0
0.59 0.09 0
0.6 0.09 0
0.61 0.09 0
0 0.1 0
0.01 0.1 0
0.02 0.1 0
0.03 0.1 0
0.04 0.1 0
0.05 0.1 0
0.06 0.1 0
0.07 0.1 0
0.08 0.1 0
0.09 0.1 0
0.1 0.1 0
0.11 0.1 0
0.12 0.1 0
0.13 0.1 0
0.14 0.1 0
0.15 0.1 0
0.16 0.1 0
0.17 0.1 0
0.18 0.1 0
0.19 0.1 0
0.2 0.1 0
0.21 0.1 0
0.22 0.1 0
0.23 0.1 0
0.24 0.1 0
0.25 0.1 0
0.26 0.1 0
0.27 0.1 0
0.28 0.1 0
0.29 0.1 0
0.3 0.1 0
0.31 0.1 0
0.32 0.1 0
0.33 0.1 0
0.34 0.1 0
0.35 0.1 0
0.36 0.1 0
0.37 0.1 0
0.38 0.1 0
0.39 0.1 0
0.4 0.1 0
0.41 0.1 0
0.42 0.1 0
0.43 0.1 0
0.44 0.1 0
0.45 0.1 0
0.46 0.1 0
0.47 0.1 0
0.48 0.1 0
0.49 0.1 0
0.5 0.1 0
0.51 0.1 0
0.52 0.1 0
0.53 0.1 0
0.54 0.1 0
0.55 0.1 0
0.56 0.1 0
0.57 0.1 0
0.58 0.1 0
0.59 0.1 0
0.6 0.1 0
0.61 0.1 0
0 0.11 0
0.01 0.11 0
0.02 0.11 0
0.03 0.11 0
0.04 0.11 0
0.05 0.11 0
0.06 0.11 0
0.07 0.11 0
0.08 0.11 0
0.09 0.11 0
0.1 0.11 0
0.11 0.11 0
0.12 0.11 0
0.13 0.11 0
0.14 0.11 0
0.15 0.11 0
0.16 0.11 0
0.17 0.11 0
0.18 0.11 0
0.19 0.11 0
0.2 0.11 0
0.21 0.11 0
0.22 0.11 0
0.23 0.11 0
0.24 0.11 0
0.25 0.11 0
0.26 0.11 0
0.27 0.11 0
0.28 0.11 0
0.29 0.11 0
0.3 0.11 0
0.31 0.11 0
0.32 0.11 0
0.33 0.11 0
0.34 0.11 0
0.35 0.11 0
0.36 0.11 0
0.37 0.11 0
0.38 0.11 0
0.39 0.11 0
0.4 0.11 0
0.41 0.11 0
0.42 0.11 0
0.43 0.11 0
0.44 0.11 0
0.45 0.11 0
0.46 0.11 0
0.47 0.11 0
0.48 0.11 0
0.49 0.11 0
0.5 0.11 0
0.51 0.11 0
0.52 0.11 0
0.53 0.11 0
0.54 0.11 0
0.55 0.11 0
0.56 0.11 0
0.57 0.11 0
0.58 0.11 0
0.59 0.11 0
0.6 0.11 0
0.61 0.11 0
0 0.12 0
0.01 0.12 0
0.02 0.12 0
0.03 0.12 0
0.04 0.12 0
0.05 0.12 0
0.06 0.12 0
0.07 0.12 0
0.08 0.12 0
0.09 0.12 0
0.1 0.12 0
0.11 0.12 0
0.12 0.12 0
0.13 0.12 0
0.14 0.12 0
0.15 0.12 0
0.16 0.12 0
0.17 0.12 0
0.18 0.12 0
0.19 0.12 0
0.2 0.12 0
0.21 0.12 0
0.22 0.12 0
0.23 0.12 0
0.24 0.12 0
0.25 0.12 0
0.26 0.12 0
0.27 0.12 0
0.28 0.12 0
0.29 0.12 0
0.3 0.12 0
0.31 0.12 0
0.32 0.12 0
0.33 0.12 0
0.34 0.12 0
0.35 0.12 0
0.36 0.12 0
0.37 0.12 0
0.38 0.12 0
0.39 0.12 0
0.4 0.12 0
0.41 0.12 0
0.42 0.12 0
0.43 0.12 0
0.44 0.12 0
0.45 0.12 0
0.46 0.12 0
0.47 0.12 0
0.48 0.12 0
0.49 0.12 0
0.5 0.12 0
0.51 0.12 0
0.52 0.12 0
0.53 0.12 0
0.54 0.12 0
0.55 0.12 0
0.56 0.12 0
0.57 0.12 0
0.58 0.12 0
0.59 0.12 0
0.6 0.12 0
0.61 0.12 0
0 0.13 0
0.01 0.13 0
0.02 0.13 0
0.03 0.13 0
0.04 0.13 0
0.05 0.13 0
0.06 0.13 0
0.07 0.13 0
0.08 0.13 0
0.09 0.13 0
0.1 0.13 0
0.11 0.13 0
0.12 0.13 0
0.13 0.13 0
0.14 0.13 0
0.15 0.13 0
0.16 0.13 0
0.17 0.13 0
0.18 0.13 0
0.19 0.13 0
0.2 0.13 0
0.21 0.13 0
0.22 0.13 0
0.23 0.13 0
0.24 0.13 0
0.25 0.13 0
0.26 0.13 0
0.27 0.13 0
0.28 0.13 0
0.29 0.13 0
0.3 0.13 0
0.31 0.13 0
0.32 0.13 0
0.33 0.13 0
0.34 0.13 0
0.35 0.13 0
0.36 0.13 0
0.37 0.13 0
0.38 0.13 0
0.39 0.13 0
0.4 0.13 0
0.41 0.13 0
0.42 0.13 0
0.43 0.13 0
0.44 0.13 0
0.45 0.13 0
0.46 0.13 0
0.47 0.13 0
0.48 0.13 0
[...]
POINT_DATA 93248

SCALARS u double
LOOKUP_TABLE default
0
0
0
0
0
0
0
0
0
0
0
0
0
0
0
0
0
0
0
0
0
0
0
0
0.274704
0
0
0
0
0
0
0
0.0129744
0.210981
0
0
0
0
0
0
0
0
0
0
0
0
0
0.0509536
0
0
0.0574066
0
0
0
0
0
0
0
0
0
0
0
0
0.407522
0.322669
0.240946
0.173498
0.123578
0.0863538
0.0598038
0.0411067
0.0274003
0.0169725
0.00983949
0.00906663
0.00807046
0.0076625
0.00798559
0.00890864
0.00908259
0.00865474
0.00699148
0.014669
0.0159692
0.0110744
0.0108668
0.0109582
0.0108526
0.0106076
0.0102675
0.00981523
0.00917369
0.00824315
0.00733272
0.00861912
0.00769079
0.0058383
0.00449669
0.00599392
0.00329745
-0.000460034
0.141814
-0.00489101
-0.000281706
0.00152113
0.00498089
0.0143276
-0.0260564
-0.00900867
-0.0077549
-0.00721373
-0.0083576
-0.00947954
-0.0033112
-0.00908656
0.000669583
-0.0385801
-0.0309336
-0.025712
-0.0259935
-0.031443
-0.0405431
-0.0405431
0
0
0.481689
0.457191
0.423673
0.38144
0.340824
0.294316
0.249631
0.210033
0.177531
0.15188
0.132223
0.123536
0.114935
0.109473
0.106314
0.104859
0.102993
0.103286
0.303053
0.107643
0.106903
0.0895881
0.0904161
0.0888042
0.0865982
0.0841505
0.0815332
0.0787508
0.0757655
0.0724582
0.0686454
0.0682995
0.0643475
0.0606828
0.0581076
0.0523157
0.0478975
-0.00406931
0.0426796
0.0390495
0.0353375
0.0345401
0.0347599
0.0327753
0.0131093
0.00572586
0.00575639
0.00366655
0.00159413
0.000672697
-0.00854559
-0.00916596
-0.0133621
-0.0356888
-0.040525
-0.0479909
-0.0503137
-0.0597825
-0.0705645
-0.0705645
0
0
0.475767
0.46739
0.458773
0.438164
0.43234
0.399704
0.368414
0.338198
0.309897
0.315331
0.264875
0.241644
0.227337
0.216759
0.209488
0.204142
0.19766
0.194033
0.18988
0.182353
0.180579
0.172622
0.168462
0.164505
0.160259
0.155731
0.150982
0.146075
0.14112
0.136405
0.132397
0.124993
0.118681
0.194868
0.110313
0.102947
0.0976049
0.0942433
0.0891896
0.0827848
0.0761737
0.115161
0.0652347
0.0578843
0.110031
0.0340863
0.0268208
0.00366655
0.0165305
0.0116608
0.00349056
-0.0033112
-0.0128049
-0.0270926
-0.0372094
-0.0468334
-0.06005
-0.0694045
-0.079364
-0.079364
0
0
0.468669
0.455281
0.456703
0.446213
0.439362
0.425624
0.409356
0.391924
0.374202
0.356508
0.339822
0.321907
0.30644
0.29333
0.283351
0.272855
0.266888
0.25975
0.301229
0.243768
0.236562
0.229333
0.223055
0.217151
0.211243
0.205178
0.19894
0.192568
0.186129
0.179687
0.173028
0.164906
0.157352
0.14995
0.143849
0.13728
0.131116
0.125695
0.11873
0.110941
0.102398
0.0933129
0.0849416
0.0754109
0.0640594
0.0526704
0.0440925
0.0367692
0.0291869
0.0212989
0.0123597
0.00291536
-0.00783329
-0.0197745
-0.0313285
-0.0428813
-0.055447
-0.0665446
-0.0776582
-0.0776582
0
0
0.466207
0.450718
0.442311
0.434177
0.427471
0.41925
0.410097
0.400211
0.389589
0.378352
0.366724
0.354421
0.34205
0.329111
0.323942
0.312368
0.303394
0.294832
0.285329
0.276556
0.268429
0.260741
0.253479
0.246468
0.239535
0.23252
0.2254
0.218176
0.210832
0.203274
0.195214
0.186412
0.179406
0.171329
0.163635
0.156202
0.148968
0.141743
0.133753
0.125117
0.115838
0.105993
0.0961248
0.0859678
0.0760602
0.075318
0.0547798
0.0459477
0.0368668
0.0275098
0.0177447
0.00752067
-0.00322826
-0.0143074
-0.0254351
-0.0363633
-0.0468797
-0.0566006
-0.0679269
-0.0679269
0
0
0.465113
0.446892
0.433376
0.422451
0.413479
0.404959
0.397354
0.389905
0.382076
0.373959
0.365732
0.357486
0.348864
0.340114
0.333563
0.325843
0.316963
0.30967
0.299983
0.291192
0.282966
0.275106
0.267483
0.260011
0.252621
0.245125
0.237581
0.229972
0.222235
0.214244
0.205729
0.196135
0.190426
0.18147
0.172881
0.164703
0.156669
0.148484
0.139888
0.130833
0.12131
0.111328
0.100969
0.0900302
0.0785186
0.0714654
0.0612278
0.0510576
0.0410399
0.0310165
0.020899
0.0106326
0.000217327
-0.0101559
-0.0202937
-0.0298293
-0.0378724
-0.0417845
-0.0383186
-0.0383186
0
0
0.464515
0.444501
0.428048
0.414369
0.403119
0.449318
0.385313
0.376248
0.368112
0.360686
0.354024
0.348623
0.342554
0.336377
0.33039
0.324884
0.318098
0.31079
0.303053
0.295298
0.287758
0.280219
0.272664
0.265111
0.257597
0.249924
0.242299
0.234649
0.2269
0.219024
0.211254
0.204331
0.19218
0.183812
0.175734
0.167576
0.159258
0.150693
0.141814
0.132599
0.123058
0.116438
0.102901
0.0923245
0.0819505
0.0731834
0.0634714
0.0533563
0.0431645
0.0329865
0.0228666
0.0128369
0.00280736
-0.0069471
-0.0163164
-0.025433
-0.0352502
-0.0474674
-0.0223382
-0.0223382
0
0
0.464143
0.442993
0.42474
0.40895
0.3952
0.382699
0.372375
0.362967
0.354452
0.346844
0.340493
0.338479
0.333248
0.328065
0.321535
0.104859
0.312115
0.306881
0.301229
0.294821
0.288307
0.281254
0.273894
0.266343
0.239535
0.251092
0.243759
0.236298
0.228713
0.220928
0.212937
0.204729
0.194709
0.185616
0.177031
0.168546
0.159982
0.151225
0.14222
0.13295
0.123413
0.113599
0.103627
0.0935466
0.0836233
0.0740828
0.0643574
0.0543912
0.0442965
0.0341882
0.0241961
0.0145404
0.00480572
-0.00449504
-0.0133164
-0.0217242
-0.0301015
-0.04126
-0.0385559
-0.0385559
0
0
0.463898
0.442001
0.422578
0.405347
0.389988
0.376149
0.364119
0.353501
0.344083
0.335488
0.32592
0.333976
0.325996
0.321155
0.317119
0.315126
0.311879
0.306291
0.300299
0.293763
0.287808
0.280834
0.273603
0.26627
0.259328
0.2518
0.244331
0.236949
0.229573
0.221913
0.213406
0.204625
0.195488
0.186523
0.177753
0.169031
0.16027
0.151383
0.142305
0.133021
0.123537
0.113872
0.104094
0.0942649
0.0844763
0.0747399
0.0649523
0.0550553
0.0450611
0.0350255
0.0249857
0.0159361
0.00632647
-0.00266208
-0.0112944
-0.0197618
-0.02848
-0.0380321
-0.0457422
-0.0457422
0
0
0.463732
0.44133
0.421115
0.402925
0.386529
0.371775
0.358683
0.347166
0.337168
0.328651
0.321896
0.321709
0.318458
0.315421
0.312548
0.310536
0.30752
0.303218
0.298183
0.292864
0.285915
0.27933
0.272454
0.265175
0.259058
0.251513
0.244218
0.237112
0.230193
0.244642
0.213636
0.204511
0.19571
0.186966
0.178244
0.174051
0.160607
0.151609
0.142467
0.133172
0.123736
0.11418
0.104519
0.0948031
0.0850692
0.075318
0.0655347
0.0556938
0.0457859
0.0358618
0.0258701
-0.0049061
0.00741159
-0.00118975
-0.0098153
-0.0184609
-0.027381
-0.0369214
-0.0471944
-0.0471944
0
0
0.463619
0.440872
0.4201
0.401276
0.384157
0.368732
0.354983
0.342935
0.332661
0.324324
0.318284
0.315077
0.312554
0.310675
0.307855
0.305618
0.302961
0.299449
0.295192
0.289784
0.284277
0.277965
0.271308
0.264385
0.257707
0.250618
0.243611
0.236798
0.230006
0.223158
0.212472
0.204346
0.196021
0.187412
0.178648
0.169806
0.167277
0.151965
0.142765
0.133452
0.124043
0.114585
0.104981
0.095311
0.085612
0.0758974
0.0661725
0.0564211
0.0466332
0.0370441
0.027811
0.0190723
0.00959835
0.000435474
-0.00847673
-0.0173278
-0.0263988
-0.036069
-0.0467714
-0.0467714
0
0
0.463544
0.440576
0.419497
0.400076
0.382471
0.366582
0.352421
0.340055
0.329614
0.321265
0.315135
0.311042
0.308388
0.307117
0.303458
0.301617
0.299278
0.29613
0.292398
0.287922
0.28256
0.276561
0.270086
0.263283
0.25633
0.249279
0.242467
0.235966
0.229104
0.219986
0.214908
0.206255
0.197211
0.188184
0.179184
0.170186
0.16117
0.152227
0.143117
0.133801
0.124363
0.115161
0.105534
0.0958551
0.086173
0.076505
0.0668691
0.0572385
0.0474974
0.0381376
0.0291152
0.0202334
0.0110022
0.00180769
-0.00722348
-0.0161935
-0.0253631
-0.0351013
-0.0458777
-0.0458777
0
0
0.463493
0.440369
0.419024
0.399224
0.38129
0.365085
0.350641
0.338056
0.327469
0.318999
0.312644
0.30811
0.304771
0.301446
0.301683
0.299645
0.296889
0.293509
0.290187
0.28603
0.280945
0.275121
0.268727
0.26188
0.254687
0.24735
0.240429
0.234411
0.230252
0.222554
0.215184
0.206774
0.197866
0.188787
0.179673
0.170595
0.161558
0.152687
0.143614
0.134194
0.124256
0.116351
0.106243
0.0964614
0.086763
0.0771215
0.067572
0.058094
0.0482221
0.0390409
0.0300824
0.021099
0.0119762
0.00289554
-0.00607855
-0.0150295
-0.0242553
-0.0340011
-0.0448223
-0.0448223
0
0
0.463461
0.440244
0.41885
0.398438
0.380437
0.36404
0.349399
0.336651
0.325934
0.317335
0.310788
0.306031
0.302587
0.299969
0.298804
0.297054
0.294453
0.290901
0.288543
0.28458
0.279498
0.273684
0.267269
0.260274
0.252654
0.244389
0.235917
0.228139
0.236185
0.227372
0.217606
0.20812
0.198746
0.189381
0.18007
0.170976
0.161736
0.153203
0.14431
0.134962
0.125387
0.116438
0.106802
0.0970777
0.0873585
0.0776897
0.068144
0.0588671
0.048781
0.0399347
0.0310475
0.0220407
0.0127757
0.0038166
-0.00500923
-0.0137342
-0.0231546
-0.0327218
-0.0435487
-0.0435487
0
0
0.463435
0.440095
0.418439
0.398269
0.379942
0.363347
0.348546
0.335667
0.324843
0.316136
0.309464
0.304602
0.301172
0.298767
0.297049
0.295202
0.292668
0.288664
0.28774
0.283234
0.277969
0.272174
0.265791
0.258677
0.250523
0.240431
0.225359
0.196569
0.268264
0.237559
0.221832
0.210227
0.199843
0.189882
0.180157
0.170736
0.161743
0.153647
0.145269
0.13611
0.126602
0.117111
0.107472
0.0977484
0.0879643
0.0781742
0.0683332
0.0584452
0.0502058
0.0411941
0.0321989
0.0234381
0.0131971
0.00464064
-0.00407008
-0.012658
-0.0216146
-0.0310112
-0.0417668
-0.0417668
0
0
0.463447
0.439986
0.418218
0.398088
0.379654
0.362916
0.347974
0.334991
0.324096
0.315331
0.308563
0.303615
0.300165
0.297778
0.295948
0.294189
0.292379
0.291205
0.284634
0.28051
0.275964
0.27065
0.264534
0.257559
0.249509
0.239931
0.228468
0.218919
0.238601
0.232129
0.221428
0.210549
0.200001
0.189707
0.179567
0.169669
0.160491
0.153143
0.146947
0.138122
0.128362
0.118451
0.108539
0.0986381
0.088685
0.0787962
0.0689306
0.0592375
0.0503192
0.0419324
0.0330351
0.0239642
0.0145124
0.00578206
-0.0033912
-0.0115751
-0.0198444
-0.0285774
-0.0388812
-0.0388812
0
0
0.463534
0.439888
0.418126
0.398021
0.379569
0.362617
0.347542
0.334508
0.323614
0.314868
0.307976
0.30291
0.299405
0.297019
0.2952
0.293463
0.291545
0.28921
0.284695
0.280158
0.27534
0.269986
0.263981
0.257267
0.24982
0.241749
0.233718
0.228512
0.229634
0.22538
0.2177
0.2085
0.198687
0.18856
0.178098
0.167252
0.156245
0.14756
0.152829
0.142824
0.131501
0.120572
0.110031
0.0997585
0.0895375
0.0795578
0.069662
0.0598525
0.0503861
0.0426737
0.033631
0.0244841
0.0157236
0.00818119
-0.00411439
-0.0107593
-0.0179456
-0.0251721
-0.0336652
-0.0336652
0
0
0.463253
0.440072
0.418253
0.398172
0.379827
0.352421
0.347018
0.33412
0.323354
0.314763
0.307591
0.302353
0.298798
0.296477
0.294731
0.292962
0.290816
0.288136
0.284455
0.280144
0.275309
0.269947
0.264043
0.257623
0.250811
0.243967
0.260097
0.231708
0.227993
0.222266
0.214788
0.206222
0.196936
0.187031
0.176255
0.163874
0.147105
0.115226
0.184191
0.15293
0.135901
0.123018
0.11156
0.100745
0.0905018
0.0803965
0.0704891
0.0606357
0.0505306
0.0434323
0.0337419
0.0246
0.0159814
0.00757549
-0.00244448
-0.027381
-0.0164026
-0.0214159
-0.0229839
0
0
0
0.463338
0.439198
0.418091
0.398191
0.380015
0.362433
0.347094
0.334061
0.323372
0.315115
0.307221
0.301868
0.298343
0.296242
0.294674
0.292852
0.290483
0.287872
0.284466
0.280309
0.275536
0.270231
0.264442
0.258244
0.251795
0.245342
0.238853
0.232022
0.228031
0.220801
0.212895
0.204476
0.195526
0.184261
0.175393
0.163596
0.150193
0.138645
0.156672
0.133021
0.13574
0.12372
0.112289
0.101427
0.0910732
0.0810386
0.0713708
0.0622348
0.0536908
0.0412185
0.0325593
0.0240826
0.0156469
0.00724592
-0.00117412
-0.00873792
-0.0162975
-0.0238477
-0.0329667
-0.0329667
0
0
0.463372
0.439912
0.417885
0.398224
0.380313
0.361969
0.346901
0.333982
0.323375
0.315651
0.306615
0.30175
0.298286
0.296746
0.295375
0.293348
0.290565
0.288291
0.284903
0.280707
0.275943
0.270692
0.264985
0.258888
0.252538
0.246331
0.241414
0.236053
0.226214
0.218876
0.211314
0.203304
0.194868
0.185881
0.176125
0.165877
0.156027
0.149059
0.148046
0.142142
0.132862
0.122442
0.111793
0.10135
0.0911992
0.0812905
0.0716823
0.0623533
0.0529219
0.0422083
0.0327231
0.0238632
0.015314
0.00696147
-0.0012704
-0.00939381
-0.0179131
-0.0272999
-0.0383089
-0.0383089
0
0
0.463393
0.439988
0.418348
0.397442
0.377903
0.362474
0.347404
0.33414
0.322792
0.312581
0.308509
0.30348
0.299243
0.330616
0.297226
0.29451
0.291058
0.289305
0.285486
0.281155
0.276424
0.271265
0.265604
0.259476
0.252785
0.244717
0.244547
0.236218
0.227351
0.219116
0.211048
0.202973
0.194914
0.186523
0.177553
0.168447
0.159902
0.152659
0.146238
0.138913
0.1303
0.120808
0.110659
0.100718
0.0908995
0.0811235
0.0715267
0.0620401
0.0524478
0.0425488
0.0328838
0.0236948
0.0149449
0.00649593
-0.00197417
-0.0105404
-0.0196571
-0.0297783
-0.0410538
-0.0410538
0
0
0.46339
0.439956
0.418125
0.397534
0.378511
0.362038
0.347078
0.333944
0.322909
0.314206
0.3086
0.304239
0.3558
0.300931
0.298156
0.295596
0.293677
0.288775
0.285223
0.281346
0.276943
0.272
0.266373
0.260271
0.253779
0.247095
0.242885
0.235812
0.227746
0.219432
0.21106
0.202804
0.195112
0.18782
0.179354
0.170714
0.162242
0.154161
0.1461
0.137764
0.129031
0.120125
0.109103
0.0998007
0.0902701
0.0806322
0.0711281
0.061676
0.0521831
0.0424836
0.0326074
0.023269
0.0143705
0.00578239
-0.00285496
-0.0115732
-0.0209586
-0.0314978
-0.0427708
-0.0427708
0
0
0.463387
0.439941
0.41808
0.397724
0.379017
0.362161
0.346886
0.333723
0.32298
0.316042
0.309791
0.305753
0.304285
0.298259
0.296507
0.294999
0.293051
0.289723
0.286166
0.282261
0.277936
0.273141
0.267352
0.261265
0.255022
0.248738
0.24262
0.235561
0.227749
0.219438
0.210723
0.201768
0.193598
0.19077
0.181808
0.173215
0.164116
0.155245
0.146413
0.137499
0.128412
0.119024
0.108824
0.0990533
0.0722461
0.0799204
0.0706437
0.0613065
0.0519713
0.0422594
0.020757
0.0225613
0.0135746
-0.0175214
-0.00378804
-0.0123151
-0.0217398
-0.0328747
-0.0440859
-0.0440859
0
0
0.463391
0.439962
0.418156
0.397977
0.37951
0.362705
0.346635
0.33319
0.320314
0.319912
0.31148
0.306687
0.303807
0.300238
0.297942
0.295992
0.293501
0.290701
0.287338
0.283485
0.27924
0.274683
0.268374
0.262333
0.256265
0.249957
0.243271
0.229972
0.227964
0.219519
0.210136
0.19895
0.181605
0.203465
0.184644
0.177197
0.166077
0.156269
0.146864
0.137558
0.128163
0.118424
0.108561
0.0989103
0.0895028
0.0798456
0.0703103
0.0609009
0.0517211
0.0423919
0.031196
0.0223667
0.0136351
0.00507948
-0.00391901
-0.0126923
-0.0219576
-0.0341188
-0.0450218
-0.0450218
0
0
0.463399
0.44
0.41827
0.398266
0.380195
0.364704
0.345487
0.333666
0.322951
0.317696
0.311684
0.307227
0.304096
0.301584
0.29971
0.298371
0.294284
0.291906
0.288659
0.284803
0.280543
0.276312
0.269231
0.263684
0.257763
0.251329
0.244454
0.236819
0.228903
0.220382
0.210694
0.20059
0.19061
0.193489
0.184871
0.176519
0.166587
0.156745
0.147126
0.137659
0.128145
0.118052
0.10821
0.0986073
0.0891025
0.0794987
0.069873
0.0602317
0.0382717
0.0423074
0.0302342
0.0224178
0.0134517
0.00444788
-0.00464521
-0.0134963
-0.0219691
-0.0349368
-0.0449756
-0.0449756
0
0
0.463403
0.440025
0.418341
0.398412
0.380351
0.364198
0.348273
0.335213
0.324813
0.317454
0.311793
0.307699
0.304845
0.302792
0.301176
0.299534
0.296476
0.293602
0.290205
0.286172
0.281388
0.275293
0.272078
0.266219
0.259793
0.252871
0.245477
0.238215
0.230401
0.222662
0.211447
0.203403
0.195822
0.190572
0.183256
0.174968
0.165861
0.156443
0.146979
0.137598
0.128224
0.117599
0.107841
0.0983327
0.088795
0.07917
0.0694727
0.0596903
0.0497192
0.039104
0.0339671
0.0229111
0.0131858
0.00372947
-0.0058119
-0.0157374
-0.0260285
-0.0311287
-0.0429187
-0.0429187
0
0
0.463398
0.440012
0.418339
0.398446
0.380407
0.364272
0.350027
0.336454
0.325987
0.318261
0.312641
0.308736
0.306102
0.304258
0.302766
0.301141
0.298715
0.295705
0.292098
0.287906
0.28321
0.277714
0.265791
0.267408
0.261218
0.254218
0.246836
0.23934
0.231558
0.223486
0.214148
0.205854
0.19809
0.190572
0.182614
0.174127
0.165185
0.15595
0.146571
0.137219
0.12818
0.117008
0.107738
0.0982978
0.0886793
0.078966
0.0691975
0.0593813
0.0495488
0.0400023
0.0321337
0.0224954
0.0128005
0.00323288
-0.00628829
-0.0158087
-0.0250699
-0.0328892
-0.0435171
-0.0435171
0
0
0.463374
0.439932
0.41823
0.398384
0.380422
0.364496
0.351299
0.33685
0.327119
0.319685
0.31422
0.31042
0.307902
0.306128
0.304692
0.303283
0.300919
0.29779
0.294054
0.289784
0.285263
0.280183
0.274888
0.268935
0.262518
0.255345
0.248022
0.240511
0.232712
0.22458
0.216086
0.207735
0.199514
0.191219
0.182707
0.173915
0.164855
0.155562
0.146042
0.136181
0.125796
0.11838
0.108537
0.0985799
0.0886957
0.0788542
0.0690346
0.0592465
0.0495535
0.0401228
0.0310514
0.0217046
0.012256
0.00286831
-0.00637756
-0.0153514
-0.0251835
-0.0341313
-0.0446171
-0.0446171
0
0
0.463311
0.439715
0.41798
0.398232
0.380301
0.363992
0.348506
0.339342
0.329768
0.322951
0.316454
0.312644
0.310188
0.308476
0.306729
0.305605
0.302921
0.299673
0.295964
0.291716
0.287533
0.282536
0.27688
0.270466
0.224252
0.256215
0.249303
0.241897
0.234097
0.225978
0.217641
0.209205
0.20068
0.191994
0.183118
0.174051
0.164806
0.155393
0.14581
0.136064
0.126354
0.117574
0.108122
0.0983663
0.0885368
0.0786941
0.0688717
0.059096
0.0493978
0.039838
0.0304032
0.0210267
0.0117045
0.00248796
-0.00661483
-0.0156963
-0.0252174
-0.0347741
-0.0453801
-0.0453801
0
0
0.463194
0.439198
0.423436
0.398165
0.380431
0.36451
0.350474
0.339924
0.331008
0.323868
0.31861
0.315056
0.312861
0.311739
0.307828
0.307082
0.304102
0.294832
0.298089
0.294032
0.290334
0.285064
0.27928
0.273107
0.266649
0.25918
0.251552
0.243769
0.235766
0.227539
0.219121
0.210542
0.201791
0.192823
0.183663
0.174356
0.16493
0.155398
0.145787
0.136147
0.12658
0.117146
0.107588
0.0979363
0.0882224
0.078437
0.0686418
0.0588672
0.0491018
0.0394196
0.0298643
0.0204464
0.0111698
0.00204794
-0.00701391
-0.016155
-0.0254988
-0.0352019
-0.0446171
-0.0458272
0
0
0.463224
0.437761
0.416586
0.397689
0.380629
0.36543
0.352305
0.341565
0.332828
0.326028
0.321096
0.317795
0.31568
0.314002
0.31035
0.102993
0.30439
0.303869
0.301649
0.298484
0.292913
0.287606
0.281845
0.275746
0.268529
0.261117
0.253501
0.245629
0.237507
0.229155
0.220606
0.211877
0.202936
0.193694
0.184261
0.174732
0.165134
0.155475
0.145791
0.13613
0.126509
0.116771
0.107056
0.0974407
0.0878369
0.078097
0.0683424
0.0585902
0.0487358
0.0389533
0.029346
0.0199082
0.0106452
0.00159321
-0.00746492
-0.0166235
-0.0259761
-0.0417845
-0.0464029
-0.0464029
0
0
0.46524
0.434165
0.415849
0.397874
0.381434
0.366824
0.354305
0.343903
0.335439
0.328933
0.32429
0.321229
0.319294
0.317928
0.316636
0.317389
0.314362
0.31086
0.306996
0.302551
0.297037
0.291137
0.284905
0.278579
0.270519
0.263216
0.255576
0.247591
0.23932
0.230815
0.222118
0.213254
0.204158
0.194578
0.184852
0.175121
0.165367
0.155551
0.145699
0.135909
0.126208
0.116182
0.106343
0.0968252
0.0873885
0.0776576
0.0679833
0.0583415
0.0483759
0.0385125
0.0288969
0.019449
0.0101612
0.00117844
-0.0146416
-0.0170705
-0.0262746
-0.0359609
-0.0516763
-0.0468025
0
0
0.46352
0.438236
0.4175
0.399203
0.382978
0.368757
0.356698
0.346971
0.338888
0.332735
0.328403
0.325585
0.32386
0.322832
0.322009
0.321359
0.319146
0.315809
0.311632
0.3067
0.301025
0.294712
0.287778
0.280012
0.27385
0.266128
0.258022
0.249702
0.24121
0.232496
0.223639
0.214668
0.205489
0.195385
0.18538
0.175519
0.165648
0.15565
0.145403
0.135338
0.125561
0.115096
0.10522
0.0959376
0.0868113
0.0770267
0.0675568
0.0582512
0.0481505
0.0382717
0.0287097
0.0192378
0.00983953
0.0010849
-0.00808771
-0.0173815
-0.026656
-0.0362892
-0.0468049
-0.0468049
0
0
0.463407
0.43996
0.419254
0.400991
0.379569
0.371104
0.359168
0.351224
0.343361
0.337613
0.333603
0.330973
0.329263
0.297778
0.327167
0.326085
0.323848
0.320473
0.316112
0.310923
0.305031
0.29835
0.291075
0.283443
0.276133
0.268317
0.260097
0.251538
0.243073
0.234122
0.22508
0.216021
0.206915
0.195952
0.185853
0.176017
0.166082
0.156056
0.144645
0.134132
0.123919
0.113065
0.103434
0.0944949
0.0858841
0.0760501
0.0670421
0.0584903
0.0483514
0.0386524
0.0291768
0.0195905
0.00978996
0.000971195
-0.00861721
-0.0179452
-0.0272152
-0.0368292
-0.0473108
-0.0473108
0
0
0.463578
0.440883
0.420683
0.402964
0.387688
0.374619
0.363752
0.355694
0.348928
0.343736
0.340064
0.337568
0.33602
0.33522
0.333958
0.332109
0.329345
0.325554
0.320814
0.31529
0.309145
0.301958
0.294312
0.286499
0.278619
0.270498
0.2621
0.253433
0.244642
0.235544
0.226276
0.216986
0.208098
0.196149
0.186616
0.176808
0.166623
0.156042
0.144565
0.132421
-0.000281706
0.109888
0.101029
0.0918302
0.0837202
0.0749008
0.0664689
0.0588439
0.0498566
0.0406173
0.0308765
0.0209218
0.0110488
-8.35973e-05
-0.00951352
-0.0187377
-0.0279644