# vtk DataFile Version 2.0
FlowField
ASCII
DATASET STRUCTURED_GRID
DIMENSIONS 62 47 32 
POINTS 93248 double
0 0 0
0.01 0 0
0.02 0 0
0.03 0 0
0.04 0 0
0.05 0 0
0.06 0 0
0.07 0 0
0.08 0 0
0.09 0 0
0.1 0 0
0.11 0 0
0.12 0 0
0.13 0 0
0.14 0 0
0.15 0 0
0.16 0 0
0.17 0 0
0.18 0 0
0.19 0 0
0.2 0 0
0.21 0 0
0.22 0 0
0.23 0 0
0.24 0 0
0.25 0 0
0.26 0 0
0.27 0 0
0.28 0 0
0.29 0 0
0.3 0 0
0.31 0 0
0.32 0 0
0.33 0 0
0.34 0 0
0.35 0 0
0.36 0 0
0.37 0 0
0.38 0 0
0.39 0 0
0.4 0 0
0.41 0 0
0.42 0 0
0.43 0 0
0.44 0 0
0.45 0 0
0.46 0 0
0.47 0 0
0.48 0 0
0.49 0 0
0.5 0 0
0.51 0 0
0.52 0 0
0.53 0 0
0.54 0 0
0.55 0 0
0.56 0 0
0.57 0 0
0.58 0 0
0.59 0 0
0.6 0 0
0.61 0 0
0 0.01 0
0.01 0.01 0
0.02 0.01 0
0.03 0.01 0
0.04 0.01 0
0.05 0.01 0
0.06 0.01 0
0.07 0.01 0
0.08 0.01 0
0.09 0.01 0
0.1 0.01 0
0.11 0.01 0
0.12 0.01 0
0.13 0.01 0
0.14 0.01 0
0.15 0.01 0
0.16 0.01 0
0.17 0.01 0
0.18 0.01 0
0.19 0.01 0
0.2 0.01 0
0.21 0.01 0
0.22 0.01 0
0.23 0.01 0
0.24 0.01 0
0.25 0.01 0
0.26 0.01 0
0.27 0.01 0
0.28 0.01 0
0.29 0.01 0
0.3 0.01 0
0.31 0.01 0
0.32 0.01 0
0.33 0.01 0
0.34 0.01 0
0.35 0.01 0
0.36 0.01 0
0.37 0.01 0
0.38 0.01 0
0.39 0.01 0
0.4 0.01 0
0.41 0.01 0
0.42 0.01 0
0.43 0.01 0
0.44 0.01 0
0.45 0.01 0
0.46 0.01 0
0.47 0.01 0
0.48 0.01 0
0.49 0.01 0
0.5 0.01 0
0.51 0.01 0
0.52 0.01 0
0.53 0.01 0
0.54 0.01 0
0.55 0.01 0
0.56 0.01 0
0.57 0.01 0
0.58 0.01 0
0.59 0.01 0
0.6 0.01 0
0.61 0.01 0
0 0.02 0
0.01 0.02 0
0.02 0.02 0
0.03 0.02 0
0.04 0.02 0
0.05 0.02 0
0.06 0.02 0
0.07 0.02 0
0.08 0.02 0
0.09 0.02 0
0.1 0.02 0
0.11 0.02 0
0.12 0.02 0
0.13 0.02 0
0.14 0.02 0
0.15 0.02 0
0.16 0.02 0
0.17 0.02 0
0.18 0.02 0
0.19 0.02 0
0.2 0.02 0
0.21 0.02 0
0.22 0.02 0
0.23 0.02 0
0.24 0.02 0
0.25 0.02 0
0.26 0.02 0
0.27 0.02 0
0.28 0.02 0
0.29 0.02 0
0.3 0.02 0
0.31 0.02 0
0.32 0.02 0
0.33 0.02 0
0.34 0.02 0
0.35 0.02 0
0.36 0.02 0
0.37 0.02 0
0.38 0.02 0
0.39 0.02 0
0.4 0.02 0
0.41 0.02 0
0.42 0.02 0
0.43 0.02 0
0.44 0.02 0
0.45 0.02 0
0.46 0.02 0
0.47 0.02 0
0.48 0.02 0
0.49 0.02 0
0.5 0.02 0
0.51 0.02 0
0.52 0.02 0
0.53 0.02 0
0.54 0.02 0
0.55 0.02 0
0.56 0.02 0
0.57 0.02 0
0.58 0.02 0
0.59 0.02 0
0.6 0.02 0
0.61 0.02 0
0 0.03 0
0.01 0.03 0
0.02 0.03 0
0.03 0.03 0
0.04 0.03 0
0.05 0.03 0
0.06 0.03 0
0.07 0.03 0
0.08 0.03 0
0.09 0.03 0
0.1 0.03 0
0.11 0.03 0
0.12 0.03 0
0.13 0.03 0
0.14 0.03 0
0.15 0.03 0
0.16 0.03 0
0.17 0.03 0
0.18 0.03 0
0.19 0.03 0
0.2 0.03 0
0.21 0.03 0
0.22 0.03 0
0.23 0.03 0
0.24 0.03 0
0.25 0.03 0
0.26 0.03 0
0.27 0.03 0
0.28 0.03 0
0.29 0.03 0
0.3 0.03 0
0.31 0.03 0
0.32 0.03 0
0.33 0.03 0
0.34 0.03 0
0.35 0.03 0
0.36 0.03 0
0.37 0.03 0
0.38 0.03 0
0.39 0.03 0
0.4 0.03 0
0.41 0.03 0
0.42 0.03 0
0.43 0.03 0
0.44 0.03 0
0.45 0.03 0
0.46 0.03 0
0.47 0.03 0
0.48 0.03 0
0.49 0.03 0
0.5 0.03 0
0.51 0.03 0
0.52 0.03 0
0.53 0.03 0
0.54 0.03 0
0.55 0.03 0
0.56 0.03 0
0.57 0.03 0
0.58 0.03 0
0.59 0.03 0
0.6 0.03 0
0.61 0.03 0
0 0.04 0
0.01 0.04 0
0.02 0.04 0
0.03 0.04 0
0.04 0.04 0
0.05 0.04 0
0.06 0.04 0
0.07 0.04 0
0.08 0.04 0
0.09 0.04 0
0.1 0.04 0
0.11 0.04 0
0.12 0.04 0
0.13 0.04 0
0.14 0.04 0
0.15 0.04 0
0.16 0.04 0
0.17 0.04 0
0.18 0.04 0
0.19 0.04 0
0.2 0.04 0
0.21 0.04 0
0.22 0.04 0
0.23 0.04 0
0.24 0.04 0
0.25 0.04 0
0.26 0.04 0
0.27 0.04 0
0.28 0.04 0
0.29 0.04 0
0.3 0.04 0
0.31 0.04 0
0.32 0.04 0
0.33 0.04 0
0.34 0.04 0
0.35 0.04 0
0.36 0.04 0
0.37 0.04 0
0.38 0.04 0
0.39 0.04 0
0.4 0.04 0
0.41 0.04 0
0.42 0.04 0
0.43 0.04 0
0.44 0.04 0
0.45 0.04 0
0.46 0.04 0
0.47 0.04 0
0.48 0.04 0
0.49 0.04 0
0.5 0.04 0
0.51 0.04 0
0.52 0.04 0
0.53 0.04 0
0.54 0.04 0
0.55 0.04 0
0.56 0.04 0
0.57 0.04 0
0.58 0.04 0
0.59 0.04 0
0.6 0.04 0
0.61 0.04 0
0 0.05 0
0.01 0.05 0
0.02 0.05 0
0.03 0.05 0
0.04 0.05 0
0.05 0.05 0
0.06 0.05 0
0.07 0.05 0
0.08 0.05 0
0.09 0.05 0
0.1 0.05 0
0.11 0.05 0
0.12 0.05 0
0.13 0.05 0
0.14 0.05 0
0.15 0.05 0
0.16 0.05 0
0.17 0.05 0
0.18 0.05 0
0.19 0.05 0
0.2 0.05 0
0.21 0.05 0
0.22 0.05 0
0.23 0.05 0
0.24 0.05 0
0.25 0.05 0
0.26 0.05 0
0.27 0.05 0
0.28 0.05 0
0.29 0.05 0
0.3 0.05 0
0.31 0.05 0
0.32 0.05 0
0.33 0.05 0
0.34 0.05 0
0.35 0.05 0
0.36 0.05 0
0.37 0.05 0
0.38 0.05 0
0.39 0.05 0
0.4 0.05 0
0.41 0.05 0
0.42 0.05 0
0.43 0.05 0
0.44 0.05 0
0.45 0.05 0
0.46 0.05 0
0.47 0.05 0
0.48 0.05 0
0.49 0.05 0
0.5 0.05 0
0.51 0.05 0
0.52 0.05 0
0.53 0.05 0
0.54 0.05 0
0.55 0.05 0
0.56 0.05 0
0.57 0.05 0
0.58 0.05 0
0.59 0.05 0
0.6 0.05 0
0.61 0.05 0
0 0.06 0
0.01 0.06 0
0.02 0.06 0
0.03 0.06 0
0.04 0.06 0
0.05 0.06 0
0.06 0.06 0
0.07 0.06 0
0.08 0.06 0
0.09 0.06 0
0.1 0.06 0
0.11 0.06 0
0.12 0.06 0
0.13 0.06 0
0.14 0.06 0
0.15 0.06 0
0.16 0.06 0
0.17 0.06 0
0.18 0.06 0
0.19 0.06 0
0.2 0.06 0
0.21 0.06 0
0.22 0.06 0
0.23 0.06 0
0.24 0.06 0
0.25 0.06 0
0.26 0.06 0
0.27 0.06 0
0.28 0.06 0
0.29 0.06 0
0.3 0.06 0
0.31 0.06 0
0.32 0.06 0
0.33 0.06 0
0.34 0.06 0
0.35 0.06 0
0.36 0.06 0
0.37 0.06 0
0.38 0.06 0
0.39 0.06 0
0.4 0.06 0
0.41 0.06 0
0.42 0.06 0
0.43 0.06 0
0.44 0.06 0
0.45 0.06 0
0.46 0.06 0
0.47 0.06 0
0.48 0.06 0
0.49 0.06 0
0.5 0.06 0
0.51 0.06 0
0.52 0.06 0
0.53 0.06 0
0.54 0.06 0
0.55 0.06 0
0.56 0.06 0
0.57 0.06 0
0.58 0.06 0
0.59 0.06 0
0.6 0.06 0
0.61 0.06 0
0 0.07 0
0.01 0.07 0
0.02 0.07 0
0.03 0.07 0
0.04 0.07 0
0.05 0.07 0
0.06 0.07 0
0.07 0.07 0
0.08 0.07 0
0.09 0.07 0
0.1 0.07 0
0.11 0.07 0
0.12 0.07 0
0.13 0.07 0
0.14 0.07 0
0.15 0.07 0
0.16 0.07 0
0.17 0.07 0
0.18 0.07 0
0.19 0.07 0
0.2 0.07 0
0.21 0.07 0
0.22 0.07 0
0.23 0.07 0
0.24 0.07 0
0.25 0.07 0
0.26 0.07 0
0.27 0.07 0
0.28 0.07 0
0.29 0.07 0
0.3 0.07 0
0.31 0.07 0
0.32 0.07 0
0.33 0.07 0
0.34 0.07 0
0.35 0.07 0
0.36 0.07 0
0.37 0.07 0
0.38 0.07 0
0.39 0.07 0
0.4 0.07 0
0.41 0.07 0
0.42 0.07 0
0.43 0.07 0
0.44 0.07 0
0.45 0.07 0
0.46 0.07 0
0.47 0.07 0
0.48 0.07 0
0.49 0.07 0
0.5 0.07 0
0.51 0.07 0
0.52 0.07 0
0.53 0.07 0
0.54 0.07 0
0.55 0.07 0
0.56 0.07 0
0.57 0.07 0
0.58 0.07 0
0.59 0.07 0
0.6 0.07 0
0.61 0.07 0
0 0.08 0
0.01 0.08 0
0.02 0.08 0
0.03 0.08 0
0.04 0.08 0
0.05 0.08 0
0.06 0.08 0
0.07 0.08 0
0.08 0.08 0
0.09 0.08 0
0.1 0.08 0
0.11 0.08 0
0.12 0.08 0
0.13 0.08 0
0.14 0.08 0
0.15 0.08 0
0.16 0.08 0
0.17 0.08 0
0.18 0.08 0
0.19 0.08 0
0.2 0.08 0
0.21 0.08 0
0.22 0.08 0
0.23 0.08 0
0.24 0.08 0
0.25 0.08 0
0.26 0.08 0
0.27 0.08 0
0.28 0.08 0
0.29 0.08 0
0.3 0.08 0
0.31 0.08 0
0.32 0.08 0
0.33 0.08 0
0.34 0.08 0
0.35 0.08 0
0.36 0.08 0
0.37 0.08 0
0.38 0.08 0
0.39 0.08 0
0.4 0.08 0
0.41 0.08 0
0.42 0.08 0
0.43 0.08 0
0.44 0.08 0
0.45 0.08 0
0.46 0.08 0
0.47 0.08 0
0.48 0.08 0
0.49 0.08 0
0.5 0.08 0
0.51 0.08 0
0.52 0.08 0
0.53 0.08 0
0.54 0.08 0
0.55 0.08 0
0.56 0.08 0
0.57 0.08 0
0.58 0.08 0
0.59 0.08 0
0.6 0.08 0
0.61 0.08 0
0 0.09 0
0.01 0.09 0
0.02 0.09 0
0.03 0.09 0
0.04 0.09 0
0.05 0.09 0
0.06 0.09 0
0.07 0.09 0
0.08 0.09 0
0.09 0.09 0
0.1 0.09 0
0.11 0.09 0
0.12 0.09 0
0.13 0.09 0
0.14 0.09 0
0.15 0.09 0
0.16 0.09 0
0.17 0.09 0
0.18 0.09 0
0.19 0.09 0
0.2 0.09 0
0.21 0.09 0
0.22 0.09 0
0.23 0.09 0
0.24 0.09 0
0.25 0.09 0
0.26 0.09 0
0.27 0.09 0
0.28 0.09 0
0.29 0.09 0
0.3 0.09 0
0.31 0.09 0
0.32 0.09 0
0.33 0.09 0
0.34 0.09 0
0.35 0.09 0
0.36 0.09 0
0.37 0.09 0
0.38 0.09 0
0.39 0.09 0
0.4 0.09 0
0.41 0.09 0
0.42 0.09 0
0.43 0.09 0
0.44 0.09 0
0.45 0.09 0
0.46 0.09 0
0.47 0.09 0
0.48 0.09 0
0.49 0.09 0
0.5 0.09 0
0.51 0.09 0
0.52 0.09 0
0.53 0.09 0
0.54 0.09 0
0.55 0.09 0
0.56 0.09 0
0.57 0.09 0
0.58 0.09 0
0.59 0.09 0
0.6 0.09 0
0.61 0.09 0
0 0.1 0
0.01 0.1 0
0.02 0.1 0
0.03 0.1 0
0.04 0.1 0
0.05 0.1 0
0.06 0.1 0
0.07 0.1 0
0.08 0.1 0
0.09 0.1 0
0.1 0.1 0
0.11 0.1 0
0.12 0.1 0
0.13 0.1 0
0.14 0.1 0
0.15 0.1 0
0.16 0.1 0
0.17 0.1 0
0.18 0.1 0
0.19 0.1 0
0.2 0.1 0
0.21 0.1 0
0.22 0.1 0
0.23 0.1 0
0.24 0.1 0
0.25 0.1 0
0.26 0.1 0
0.27 0.1 0
0.28 0.1 0
0.29 0.1 0
0.3 0.1 0
0.31 0.1 0
0.32 0.1 0
0.33 0.1 0
0.34 0.1 0
0.35 0.1 0
0.36 0.1 0
0.37 0.1 0
0.38 0.1 0
0.39 0.1 0
0.4 0.1 0
0.41 0.1 0
0.42 0.1 0
0.43 0.1 0
0.44 0.1 0
0.45 0.1 0
0.46 0.1 0
0.47 0.1 0
0.48 0.1 0
0.49 0.1 0
0.5 0.1 0
0.51 0.1 0
0.52 0.1 0
0.53 0.1 0
0.54 0.1 0
0.55 0.1 0
0.56 0.1 0
0.57 0.1 0
0.58 0.1 0
0.59 0.1 0
0.6 0.1 0
0.61 0.1 0
0 0.11 0
0.01 0.11 0
0.02 0.11 0
0.03 0.11 0
0.04 0.11 0
0.05 0.11 0
0.06 0.11 0
0.07 0.11 0
0.08 0.11 0
0.09 0.11 0
0.1 0.11 0
0.11 0.11 0
0.12 0.11 0
0.13 0.11 0
0.14 0.11 0
0.15 0.11 0
0.16 0.11 0
0.17 0.11 0
0.18 0.11 0
0.19 0.11 0
0.2 0.11 0
0.21 0.11 0
0.22 0.11 0
0.23 0.11 0
0.24 0.11 0
0.25 0.11 0
0.26 0.11 0
0.27 0.11 0
0.28 0.11 0
0.29 0.11 0
0.3 0.11 0
0.31 0.11 0
0.32 0.11 0
0.33 0.11 0
0.34 0.11 0
0.35 0.11 0
0.36 0.11 0
0.37 0.11 0
0.38 0.11 0
0.39 0.11 0
0.4 0.11 0
0.41 0.11 0
0.42 0.11 0
0.43 0.11 0
0.44 0.11 0
0.45 0.11 0
0.46 0.11 0
0.47 0.11 0
0.48 0.11 0
0.49 0.11 0
0.5 0.11 0
0.51 0.11 0
0.52 0.11 0
0.53 0.11 0
0.54 0.11 0
0.55 0.11 0
0.56 0.11 0
0.57 0.11 0
0.58 0.11 0
0.59 0.11 0
0.6 0.11 0
0.61 0.11 0
0 0.12 0
0.01 0.12 0
0.02 0.12 0
0.03 0.12 0
0.04 0.12 0
0.05 0.12 0
0.06 0.12 0
0.07 0.12 0
0.08 0.12 0
0.09 0.12 0
0.1 0.12 0
0.11 0.12 0
0.12 0.12 0
0.13 0.12 0
0.14 0.12 0
0.15 0.12 0
0.16 0.12 0
0.17 0.12 0
0.18 0.12 0
0.19 0.12 0
0.2 0.12 0
0.21 0.12 0
0.22 0.12 0
0.23 0.12 0
0.24 0.12 0
0.25 0.12 0
0.26 0.12 0
0.27 0.12 0
0.28 0.12 0
0.29 0.12 0
0.3 0.12 0
0.31 0.12 0
0.32 0.12 0
0.33 0.12 0
0.34 0.12 0
0.35 0.12 0
0.36 0.12 0
0.37 0.12 0
0.38 0.12 0
0.39 0.12 0
0.4 0.12 0
0.41 0.12 0
0.42 0.12 0
0.43 0.12 0
0.44 0.12 0
0.45 0.12 0
0.46 0.12 0
0.47 0.12 0
0.48 0.12 0
0.49 0.12 0
0.5 0.12 0
0.51 0.12 0
0.52 0.12 0
0.53 0.12 0
0.54 0.12 0
0.55 0.12 0
0.56 0.12 0
0.57 0.12 0
0.58 0.12 0
0.59 0.12 0
0.6 0.12 0
0.61 0.12 0
0 0.13 0
0.01 0.13 0
0.02 0.13 0
0.03 0.13 0
0.04 0.13 0
0.05 0.13 0
0.06 0.13 0
0.07 0.13 0
0.08 0.13 0
0.09 0.13 0
0.1 0.13 0
0.11 0.13 0
0.12 0.13 0
0.13 0.13 0
0.14 0.13 0
0.15 0.13 0
0.16 0.13 0
0.17 0.13 0
0.18 0.13 0
0.19 0.13 0
0.2 0.13 0
0.21 0.13 0
0.22 0.13 0
0.23 0.13 0
0.24 0.13 0
0.25 0.13 0
0.26 0.13 0
0.27 0.13 0
0.28 0.13 0
0.29 0.13 0
0.3 0.13 0
0.31 0.13 0
0.32 0.13 0
0.33 0.13 0
0.34 0.13 0
0.35 0.13 0
0.36 0.13 0
0.37 0.13 0
0.38 0.13 0
0.39 0.13 0
0.4 0.13 0
0.41 0.13 0
0.42 0.13 0
0.43 0.13 0
0.44 0.13 0
0.45 0.13 0
0.46 0.13 0
0.47 0.13 0
0.48 0.13 0
[...]
POINT_DATA 93248

SCALARS w double
LOOKUP_TABLE default
0
0
0
0
0
0
0
0
0
0
0
0
0
-0.0975632
0
0
0
0
0
0
0
0
0
0
0
0
-0.228863
0
0
0
0
0
-0.23067
0
0
0
0
0
0
0
0
0
0
0
0
0
-0.202575
0
0
0
0
0
0
0
0
0
0
0
0
0
0
0
0
-0.0226787
-0.0461727
-0.0629627
-0.0730771
-0.0787071
-0.0831503
-0.0867241
-0.0897401
-0.0920084
-0.0932916
-0.0932824
-0.0921119
-0.0930869
-0.0946407
-0.0959687
-0.0970521
-0.0979393
-0.0979538
-0.0961357
-0.0899555
-0.0910676
-0.0944121
-0.0928512
-0.0914816
-0.0905653
-0.0898589
-0.0892271
-0.0886122
-0.0879603
-0.0871559
-0.0859972
-0.0845475
-0.0847632
-0.0847392
-0.0836611
-0.0821234
-0.0834827
-0.0852201
-0.0878837
-0.0818667
-0.083854
-0.0867459
-0.0889821
-0.092609
-0.217451
-0.0873064
-0.085738
-0.0855785
-0.0866696
-0.0879863
-0.0898493
-0.090328
-0.0931519
-0.219216
-0.0911325
-0.0839256
-0.0832988
-0.0830702
-0.0812914
-0.0758501
0
0
-0.0267983
-0.0651765
-0.0895877
-0.108288
-0.122684
-0.138817
-0.152874
-0.164638
-0.174435
-0.182241
-0.187458
-0.189399
-0.193471
-0.196687
-0.19891
-0.200577
-0.202098
-0.202674
-0.202331
-0.190751
-0.193743
-0.261373
-0.194154
-0.190144
-0.187938
-0.186305
-0.184908
-0.183627
-0.1824
-0.181159
-0.179715
-0.17758
-0.178158
-0.177678
-0.176271
-0.176683
-0.175515
-0.17576
-0.177836
-0.176501
-0.179047
-0.180739
-0.183149
-0.188072
-0.194955
-0.189706
-0.182809
-0.180672
-0.180451
-0.182476
-0.218894
-0.186188
-0.188908
-0.194333
-0.18765
-0.182744
-0.17543
-0.171169
-0.164408
-0.152321
0
0
-0.0266072
-0.0653264
-0.0923261
-0.113955
-0.0787071
-0.149253
-0.168423
-0.18475
-0.199386
-0.212704
-0.223723
-0.235241
-0.239655
-0.242986
-0.245384
-0.247364
-0.249434
-0.249771
-0.250542
-0.250015
-0.245403
-0.245029
-0.23973
-0.235691
-0.232789
-0.230531
-0.228635
-0.22697
-0.225509
-0.224359
-0.223963
-0.22533
-0.240431
-0.221817
-0.217862
-0.217514
-0.217003
-0.217019
-0.217903
-0.218165
-0.21961
-0.221437
-0.222292
-0.225381
-0.228246
-0.226063
-0.223384
-0.221696
-0.221817
-0.222993
-0.225716
-0.225696
-0.226887
-0.228118
-0.227001
-0.225067
-0.221672
-0.212567
-0.202163
-0.186849
0
0
-0.0260729
-0.0640263
-0.0658739
-0.115412
-0.135053
-0.155141
-0.173116
-0.189549
-0.204851
-0.219192
-0.232157
-0.24391
-0.252211
-0.257788
-0.260604
-0.263521
-0.263739
-0.26521
-0.26609
-0.264369
-0.261595
-0.258734
-0.255292
-0.252021
-0.249173
-0.246731
-0.244607
-0.242745
-0.241143
-0.239878
-0.239099
-0.238782
-0.237811
-0.235819
-0.233395
-0.232299
-0.231737
-0.233095
-0.23171
-0.232071
-0.232819
-0.233774
-0.23433
-0.235506
-0.236565
-0.236603
-0.235364
-0.234599
-0.234748
-0.235353
-0.236305
-0.236992
-0.237689
-0.238294
-0.238614
-0.23773
-0.234415
-0.226774
-0.215737
-0.19916
0
0
-0.0259463
-0.0642355
-0.0931914
-0.118215
-0.139282
-0.158409
-0.175668
-0.191609
-0.206548
-0.220509
-0.233305
-0.244615
-0.253733
-0.2598
-0.22387
-0.266543
-0.268989
-0.269524
-0.269153
-0.267106
-0.264393
-0.261373
-0.258328
-0.255419
-0.252738
-0.250329
-0.248159
-0.246216
-0.244511
-0.243057
-0.241798
-0.240431
-0.238411
-0.237418
-0.236362
-0.235454
-0.234769
-0.234339
-0.234113
-0.234169
-0.234428
-0.234765
-0.23499
-0.235282
-0.23571
-0.236863
-0.23546
-0.235279
-0.235596
-0.236087
-0.236681
-0.237359
-0.238067
-0.238784
-0.239315
-0.238721
-0.235652
-0.22866
-0.217431
-0.20055
0
0
-0.0259076
-0.0643422
-0.0944164
-0.119475
-0.141128
-0.160522
-0.177401
-0.19309
-0.207831
-0.221427
-0.233728
-0.244518
-0.253571
-0.260077
-0.263166
-0.267026
-0.269047
-0.263746
-0.268441
-0.266264
-0.263364
-0.260264
-0.257246
-0.254401
-0.251764
-0.249417
-0.247251
-0.245273
-0.243509
-0.241959
-0.240535
-0.238932
-0.236251
-0.236125
-0.235495
-0.234602
-0.23376
-0.233095
-0.232639
-0.232397
-0.232309
-0.232284
-0.232167
-0.231924
-0.231199
-0.229427
-0.230881
-0.231938
-0.232662
-0.233261
-0.233863
-0.23456
-0.235366
-0.236182
-0.236701
-0.236085
-0.232801
-0.224733
-0.210906
-0.196083
0
0
-0.0258606
-0.0642815
-0.0945849
-0.119817
-0.141861
-0.162067
-0.178065
-0.194097
-0.208861
-0.222245
-0.234104
-0.244338
-0.253449
-0.260197
-0.264293
-0.266111
-0.267361
-0.267993
-0.266944
-0.264553
-0.26146
-0.258305
-0.255267
-0.252387
-0.24969
-0.247446
-0.24527
-0.24326
-0.241487
-0.239978
-0.23876
-0.238134
-0.239147
-0.236645
-0.234539
-0.232993
-0.23183
-0.230954
-0.230315
-0.229872
-0.229575
-0.229364
-0.229008
-0.228668
-0.228135
-0.227555
-0.22806
-0.228789
-0.229457
-0.230063
-0.230684
-0.23142
-0.232323
-0.233197
-0.233699
-0.232983
-0.229013
-0.216815
-0.0812914
-0.188017
0
0
-0.0257968
-0.0641198
-0.0943994
-0.119641
-0.1417
-0.161555
-0.178765
-0.194745
-0.209422
-0.222577
-0.233848
-0.242626
-0.252755
-0.259746
-0.26351
-0.263006
-0.225169
-0.26584
-0.26528
-0.262751
-0.259475
-0.256371
-0.253364
-0.250428
-0.247543
-0.245561
-0.243306
-0.241263
-0.239523
-0.238125
-0.237001
-0.236171
-0.235622
-0.234096
-0.232418
-0.230954
-0.22974
-0.228785
-0.228062
-0.227522
-0.227116
-0.226793
-0.22646
-0.226176
-0.22593
-0.225831
-0.22603
-0.226425
-0.2269
-0.227408
-0.227978
-0.228694
-0.229757
-0.230717
-0.231312
-0.230923
-0.228281
-0.221062
-0.204025
-0.191144
0
0
-0.0257257
-0.0639178
-0.094093
-0.119251
-0.141228
-0.160922
-0.178628
-0.194805
-0.209502
-0.222442
-0.232566
-0.189399
-0.249908
-0.258491
-0.262862
-0.263782
-0.263763
-0.264588
-0.263469
-0.261007
-0.257598
-0.254752
-0.251785
-0.248779
-0.245807
-0.24356
-0.241386
-0.239411
-0.237779
-0.236573
-0.23546
-0.23423
-0.232904
-0.231469
-0.230074
-0.228831
-0.227688
-0.226761
-0.22605
-0.225504
-0.225078
-0.224738
-0.224464
-0.224268
-0.224168
-0.224194
-0.224344
-0.224609
-0.224958
-0.225361
-0.225819
-0.224874
-0.227783
-0.228873
-0.229603
-0.229506
-0.227503
-0.22179
-0.210237
-0.192148
0
0
-0.0256564
-0.0637144
-0.0937676
-0.118814
-0.140701
-0.160334
-0.178188
-0.194515
-0.209334
-0.222408
-0.233142
-0.240611
-0.25063
-0.258189
-0.262888
-0.26473
-0.264925
-0.264087
-0.262225
-0.259747
-0.257366
-0.253933
-0.250564
-0.247299
-0.240212
-0.241744
-0.239589
-0.237648
-0.236123
-0.235225
-0.234132
-0.232453
-0.230708
-0.229183
-0.227904
-0.226865
-0.225767
-0.224899
-0.224268
-0.223779
-0.223384
-0.223072
-0.222855
-0.222727
-0.222694
-0.222759
-0.222916
-0.223159
-0.22347
-0.223818
-0.224245
-0.224874
-0.226435
-0.227532
-0.228363
-0.228461
-0.226788
-0.221676
-0.211249
-0.192583
0
0
-0.0255948
-0.0635315
-0.0934719
-0.118412
-0.140224
-0.159826
-0.177725
-0.194153
-0.209135
-0.222529
-0.234095
-0.243818
-0.252328
-0.258952
-0.263619
-0.265231
-0.264951
-0.263415
-0.261041
-0.258294
-0.255374
-0.252236
-0.249048
-0.245893
-0.242765
-0.240204
-0.23785
-0.235806
-0.234153
-0.233007
-0.232708
-0.230139
-0.228249
-0.226877
-0.225796
-0.22491
-0.224128
-0.223211
-0.222692
-0.22228
-0.221921
-0.221621
-0.221473
-0.221413
-0.22143
-0.221528
-0.221713
-0.221988
-0.222334
-0.22269
-0.223175
-0.223964
-0.225256
-0.226431
-0.227369
-0.227603
-0.226102
-0.221209
-0.211032
-0.192504
0
0
-0.025544
-0.0633811
-0.0932377
-0.118144
-0.139877
-0.159426
-0.177333
-0.19383
-0.20896
-0.222631
-0.23464
-0.244871
-0.253142
-0.25937
-0.264133
-0.264887
-0.264158
-0.262315
-0.259645
-0.256706
-0.253686
-0.250643
-0.247591
-0.24455
-0.241554
-0.238688
-0.235985
-0.233584
-0.231302
-0.229097
-0.22547
-0.225285
-0.224967
-0.224388
-0.223714
-0.223049
-0.222426
-0.221783
-0.221324
-0.220946
-0.220557
-0.220107
-0.220159
-0.220224
-0.220313
-0.220459
-0.22069
-0.221032
-0.221473
-0.221836
-0.222368
-0.223199
-0.224324
-0.225506
-0.226522
-0.226862
-0.225481
-0.2207
-0.210628
-0.192195
0
0
-0.025504
-0.0632623
-0.0930554
-0.117935
-0.139579
-0.159088
-0.177
-0.193551
-0.208788
-0.222641
-0.234803
-0.245096
-0.253173
-0.258596
-0.260411
-0.262436
-0.262519
-0.260896
-0.258057
-0.255172
-0.252298
-0.249375
-0.246389
-0.243338
-0.240212
-0.236974
-0.233627
-0.230236
-0.225886
-0.224428
-0.223217
-0.222843
-0.222611
-0.222285
-0.221851
-0.221364
-0.220905
-0.220389
-0.220014
-0.219656
-0.219113
-0.211233
-0.218738
-0.219088
-0.219292
-0.219502
-0.21978
-0.220193
-0.220783
-0.221071
-0.221627
-0.222507
-0.223623
-0.224791
-0.225841
-0.22626
-0.224991
-0.220276
-0.210255
-0.191824
0
0
-0.0254734
-0.0631727
-0.0929357
-0.119641
-0.139404
-0.158826
-0.176728
-0.193306
-0.208586
-0.222418
-0.234705
-0.245028
-0.253035
-0.258434
-0.261188
-0.262414
-0.262004
-0.260034
-0.256591
-0.254013
-0.251414
-0.248583
-0.245558
-0.242364
-0.238931
-0.235055
-0.230299
-0.223537
-0.208598
-0.213953
-0.217715
-0.219495
-0.220221
-0.220373
-0.22019
-0.219851
-0.221561
-0.21895
-0.218556
-0.218251
-0.217881
-0.21739
-0.217731
-0.21806
-0.218345
-0.218614
-0.218904
-0.219297
-0.220007
-0.220161
-0.220846
-0.221908
-0.223221
-0.224318
-0.225363
-0.225835
-0.224733
-0.219984
-0.209963
-0.191458
0
0
-0.0254488
-0.0630953
-0.092773
-0.117549
-0.139106
-0.15857
-0.176491
-0.193096
-0.208417
-0.222331
-0.234626
-0.24494
-0.25294
-0.258439
-0.261538
-0.262605
-0.261974
-0.259857
-0.255804
-0.253981
-0.251447
-0.248416
-0.245153
-0.241696
-0.237878
-0.233189
-0.225982
-0.208911
0.0927987
-0.192914
-0.209877
-0.215813
-0.218053
-0.218781
-0.218763
-0.218342
-0.217745
-0.216922
-0.216277
-0.21611
-0.216166
-0.216334
-0.216674
-0.217066
-0.217451
-0.217777
-0.218023
-0.218088
-0.217819
-0.218804
-0.220015
-0.221478
-0.227783
-0.224144
-0.225137
-0.225543
-0.22438
-0.219774
-0.209762
-0.191113
0
0
-0.025432
-0.0630549
-0.092653
-0.117299
-0.138862
-0.158346
-0.176295
-0.192924
-0.208273
-0.222232
-0.234562
-0.244887
-0.252881
-0.258398
-0.261538
-0.262607
-0.262103
-0.260875
-0.260748
-0.256612
-0.252483
-0.248665
-0.245006
-0.24131
-0.2373
-0.232463
-0.22569
-0.214584
-0.196596
-0.20511
-0.21206
-0.215843
-0.217559
-0.218042
-0.217745
-0.216874
-0.215477
-0.213461
-0.210883
-0.211653
-0.213039
-0.214246
-0.215196
-0.215954
-0.216576
-0.217024
-0.217352
-0.217389
-0.217641
-0.218146
-0.219427
-0.220976
-0.222689
-0.223978
-0.225403
-0.225462
-0.224209
-0.21966
-0.209649
-0.190768
0
0
-0.0254095
-0.0630327
-0.0925282
-0.117084
-0.138639
-0.158186
-0.176184
-0.192818
-0.208167
-0.222157
-0.234563
-0.244892
-0.252827
-0.258258
-0.26132
-0.262357
-0.261857
-0.260438
-0.258622
-0.255493
-0.251914
-0.248293
-0.244704
-0.241072
-0.237234
-0.232961
-0.227973
-0.221891
-0.216647
-0.216361
-0.217411
-0.218239
-0.218472
-0.218101
-0.217131
-0.215423
-0.212439
-0.206444
-0.193399
-0.201553
-0.20774
-0.211326
-0.213444
-0.214794
-0.21575
-0.216379
-0.21688
-0.217263
-0.217498
-0.217626
-0.219116
-0.220655
-0.222213
-0.224117
-0.238614
-0.225671
-0.224182
-0.219588
-0.209576
-0.190234
0
0
-0.025323
-0.0626099
-0.0921162
-0.11673
-0.138391
-0.160334
-0.176275
-0.192796
-0.208085
-0.222103
-0.23467
-0.244941
-0.252709
-0.257941
-0.260854
-0.261828
-0.261252
-0.259534
-0.257133
-0.254224
-0.251032
-0.247726
-0.244378
-0.240979
-0.237493
-0.233927
-0.230444
-0.226126
-0.222982
-0.221816
-0.221202
-0.220552
-0.219685
-0.218507
-0.216819
-0.21416
-0.208902
-0.19359
0.0931733
-0.182795
-0.201507
-0.208681
-0.212033
-0.213863
-0.214963
-0.215863
-0.216587
-0.217224
-0.21771
-0.217631
-0.219402
-0.220703
-0.222004
-0.223615
-0.225416
-0.225033
-0.224035
-0.219366
-0.209266
-0.189946
0
0
-0.0253111
-0.0626195
-0.0920483
-0.116539
-0.138219
-0.158176
-0.176143
-0.19262
-0.207866
-0.221946
-0.234872
-0.244879
-0.252351
-0.257299
-0.260053
-0.261058
-0.260499
-0.258629
-0.256224
-0.253476
-0.250499
-0.247401
-0.244248
-0.24106
-0.237841
-0.234641
-0.23158
-0.228634
-0.225536
-0.224717
-0.223601
-0.222202
-0.220665
-0.218981
-0.216864
-0.21394
-0.209101
-0.200066
-0.184196
-0.19487
-0.203995
-0.209031
-0.2119
-0.213624
-0.214763
-0.215673
-0.216504
-0.217455
-0.218899
-0.221317
-0.220813
-0.221019
-0.221805
-0.222935
-0.224052
-0.224427
-0.223378
-0.218773
-0.208591
-0.189236
0
0
-0.025322
-0.062664
-0.0920441
-0.116373
-0.138096
-0.158313
-0.175889
-0.192161
-0.207332
-0.221395
-0.234726
-0.244133
-0.251467
-0.256197
-0.258917
-0.260235
-0.259893
-0.257914
-0.255811
-0.253295
-0.250449
-0.247443
-0.244386
-0.241296
-0.238149
-0.234882
-0.231384
-0.230304
-0.230591
-0.227972
-0.225467
-0.22327
-0.22126
-0.219329
-0.217246
-0.21477
-0.211659
-0.208009
-0.205071
-0.206401
-0.209023
-0.211233
-0.212872
-0.214014
-0.21489
-0.215692
-0.216481
-0.217389
-0.218552
-0.21985
-0.220337
-0.220807
-0.22151
-0.222479
-0.223533
-0.224052
-0.222959
-0.218425
-0.208363
-0.189588
0
0
-0.0253379
-0.062713
-0.0921562
-0.11686
-0.138052
-0.156417
-0.174419
-0.191137
-0.206411
-0.219923
-0.230467
-0.24154
-0.250161
-0.254863
-0.257825
-0.259914
-0.259979
-0.25793
-0.256298
-0.253817
-0.250876
-0.247807
-0.244752
-0.241656
-0.238388
-0.234413
-0.197381
-0.229202
-0.229302
-0.227676
-0.225557
-0.223355
-0.221227
-0.21926
-0.217452
-0.215656
-0.213928
-0.21255
-0.211968
-0.212048
-0.212625
-0.213415
-0.214279
-0.214727
-0.215194
-0.215836
-0.216469
-0.217174
-0.218004
-0.218894
-0.21969
-0.220414
-0.221159
-0.222129
-0.223315
-0.223889
-0.222832
-0.218362
-0.208365
-0.189824
0
0
-0.0253504
-0.0627389
-0.0921701
-0.116705
-0.137985
-0.156916
-0.174596
-0.191004
-0.206038
-0.219488
-0.231372
-0.242081
-0.250853
-0.253987
-0.25879
-0.261132
-0.261511
-0.261414
-0.258362
-0.254926
-0.251534
-0.248298
-0.245244
-0.242133
-0.238868
-0.235262
-0.230978
-0.23
-0.22887
-0.227205
-0.225149
-0.222844
-0.220376
-0.217902
-0.216625
-0.215602
-0.214891
-0.21445
-0.214311
-0.214329
-0.21452
-0.214994
-0.221413
-0.215528
-0.215486
-0.216058
-0.216491
-0.216992
-0.217652
-0.218485
-0.219351
-0.220154
-0.22082
-0.221755
-0.223217
-0.223827
-0.222851
-0.218469
-0.208403
-0.189905
0
0
-0.0253634
-0.0627639
-0.0921899
-0.116683
-0.138067
-0.157316
-0.17504
-0.19119
-0.205823
-0.218566
-0.23158
-0.242729
-0.252193
-0.260875
-0.263006
-0.263386
-0.262648
-0.261082
-0.258343
-0.255099
-0.251773
-0.248616
-0.245753
-0.242641
-0.239438
-0.236307
-0.233446
-0.231257
-0.229319
-0.22721
-0.224826
-0.221952
-0.218048
-0.211944
-0.213249
-0.213555
-0.214446
-0.214872
-0.215089
-0.215229
-0.215406
-0.215702
-0.2161
-0.215793
-0.215531
-0.216328
-0.216512
-0.216842
-0.21742
-0.21834
-0.219274
-0.220065
-0.220497
-0.221265
-0.223178
-0.223712
-0.222858
-0.218679
-0.208383
-0.189806
0
0
-0.0253806
-0.0628023
-0.0922455
-0.116767
-0.138265
-0.157767
-0.175945
-0.191622
-0.20534
-0.187016
-0.230402
-0.242613
-0.251944
-0.258897
-0.262342
-0.263338
-0.262613
-0.260757
-0.258095
-0.254985
-0.251769
-0.248751
-0.24626
-0.242967
-0.239725
-0.236796
-0.234208
-0.231856
-0.22977
-0.227398
-0.224695
-0.220913
-0.213383
-0.0847392
-0.205839
-0.188174
-0.212957
-0.21475
-0.215379
-0.215661
-0.21587
-0.216078
-0.216095
-0.215937
-0.215837
-0.216138
-0.216342
-0.21662
-0.217141
-0.218295
-0.219688
-0.219626
-0.220166
-0.221152
-0.222555
-0.22324
-0.222592
-0.218899
-0.208175
-0.189507
0
0
-0.0254032
-0.0628559
-0.0923294
-0.116901
-0.138527
-0.158476
-0.193551
-0.192903
-0.206511
-0.218217
-0.231471
-0.242762
-0.251604
-0.257834
-0.261436
-0.262714
-0.254571
-0.260469
-0.257928
-0.254881
-0.251659
-0.248589
-0.246347
-0.242619
-0.239464
-0.236791
-0.234401
-0.23223
-0.229989
-0.227729
-0.225304
-0.221525
-0.21591
-0.20711
-0.210218
-0.211823
-0.214078
-0.215282
-0.215808
-0.216043
-0.216244
-0.216483
-0.216313
-0.216069
-0.215951
-0.216013
-0.216148
-0.216333
-0.216622
-0.217804
-0.21951
-0.218808
-0.219695
-0.220829
-0.221927
-0.222419
-0.221571
-0.21841
-0.207406
-0.189035
0
0
-0.0254307
-0.0629226
-0.0924271
-0.117022
-0.138651
-0.158431
-0.177187
-0.193251
-0.20774
-0.22085
-0.232931
-0.243336
-0.251608
-0.257498
-0.261013
-0.262376
-0.261929
-0.26038
-0.257883
-0.254826
-0.251456
-0.247724
-0.242852
-0.240811
-0.23877
-0.236653
-0.234462
-0.232125
-0.23018
-0.228441
-0.237001
-0.223556
-0.220038
-0.217178
-0.216378
-0.216221
-0.21639
-0.216506
-0.216506
-0.216474
-0.216571
-0.216932
-0.216451
-0.216062
-0.21591
-0.215923
-0.216018
-0.216126
-0.216148
-0.21587
-0.214468
-0.217712
-0.219232
-0.220445
-0.221371
-0.221383
-0.219049
-0.212466
-0.205394
-0.188593
0
0
-0.0254655
-0.0630085
-0.0925442
-0.117138
-0.138712
-0.158295
-0.176478
-0.193506
-0.208312
-0.221574
-0.233388
-0.243485
-0.251532
-0.257304
-0.260772
-0.262155
-0.261903
-0.260382
-0.257943
-0.25491
-0.251523
-0.247591
-0.24429
-0.241739
-0.239284
-0.237122
-0.234959
-0.232783
-0.230762
-0.228946
-0.227436
-0.224876
-0.222598
-0.220897
-0.219663
-0.21879
-0.218143
-0.217625
-0.21718
-0.216807
-0.216612
-0.216998
-0.216132
-0.215801
-0.215769
-0.215854
-0.215981
-0.216109
-0.216186
-0.216174
-0.216261
-0.217654
-0.218995
-0.220206
-0.221157
-0.221313
-0.219606
-0.214619
-0.205798
-0.188572
0
0
-0.0255152
-0.0631367
-0.0927136
-0.117288
-0.138793
-0.158233
-0.176249
-0.193729
-0.208041
-0.221193
-0.233049
-0.243199
-0.251289
-0.257101
-0.260591
-0.261961
-0.261919
-0.260559
-0.258225
-0.255224
-0.251843
-0.248539
-0.245419
-0.242618
-0.239945
-0.237892
-0.235692
-0.233477
-0.23136
-0.229377
-0.227487
-0.225587
-0.223871
-0.222429
-0.221195
-0.220136
-0.219218
-0.218411
-0.217678
-0.216939
-0.215957
-0.214242
-0.214885
-0.215364
-0.215649
-0.215861
-0.216054
-0.216251
-0.216472
-0.216766
-0.21726
-0.218057
-0.219076
-0.220197
-0.221229
-0.221684
-0.221209
-0.215939
-0.206447
-0.188773
0
0
-0.0256006
-0.0633679
-0.0930112
-0.117522
-0.138941
-0.158183
-0.17552
-0.190147
-0.205754
-0.220011
-0.232435
-0.242859
-0.251091
-0.257007
-0.260593
-0.261802
-0.262166
-0.261017
-0.258797
-0.255786
-0.252312
-0.249205
-0.246255
-0.243391
-0.240508
-0.238819
-0.236454
-0.23411
-0.231903
-0.229851
-0.227944
-0.226203
-0.224652
-0.223286
-0.222061
-0.220944
-0.219917
-0.218971
-0.218088
-0.217227
-0.216341
-0.215515
-0.21544
-0.215601
-0.215805
-0.216016
-0.216232
-0.216472
-0.216768
-0.217148
-0.217661
-0.218333
-0.219216
-0.22028
-0.221358
-0.221925
-0.220886
-0.216396
-0.206825
-0.189007
0
0
-0.0257738
-0.0638709
-0.0935909
-0.117905
-0.139271
-0.158459
-0.175846
-0.191551
-0.206564
-0.220395
-0.232615
-0.242932
-0.251132
-0.257169
-0.266543
-0.261531
-0.262828
-0.261788
-0.259639
-0.256572
-0.253046
-0.250125
-0.247194
-0.244333
-0.241693
-0.239377
-0.23694
-0.234559
-0.232333
-0.230286
-0.228421
-0.226746
-0.22526
-0.22394
-0.22272
-0.221561
-0.220461
-0.219426
-0.218462
-0.217578
-0.216825
-0.216313
-0.216071
-0.216024
-0.216109
-0.216273
-0.216466
-0.216702
-0.217005
-0.21737
-0.217836
-0.218462
-0.219297
-0.220333
-0.221431
-0.222037
-0.22094
-0.216533
-0.207053
-0.189236
0
0
-0.0261526
-0.0652432
-0.0945054
-0.118708
-0.139936
-0.159061
-0.176538
-0.192632
-0.207524
-0.22107
-0.233021
-0.243129
-0.251181
-0.257041
-0.260622
-0.260554
-0.264021
-0.262785
-0.260384
-0.256612
-0.255004
-0.251541
-0.248206
-0.24522
-0.24271
-0.239947
-0.237292
-0.234859
-0.232651
-0.23065
-0.228843
-0.227229
-0.225808
-0.224554
-0.223336
-0.222122
-0.220941
-0.219825
-0.218788
-0.217857
-0.217116
-0.216694
-0.216459
-0.216356
-0.216385
-0.216509
-0.216643
-0.216835
-0.217121
-0.217446
-0.217869
-0.218474
-0.219298
-0.220324
-0.221463
-0.222181
-0.221065
-0.216625
-0.207223
-0.189486
0
0
-0.0268773
-0.0895877
-0.0963667
-0.119734
-0.140668
-0.159702
-0.177177
-0.193302
-0.208109
-0.221478
-0.233234
-0.243174
-0.251102
-0.256866
-0.260531
-0.262061
-0.263454
-0.262722
-0.260641
-0.257893
-0.254963
-0.251779
-0.248617
-0.245661
-0.243237
-0.240138
-0.237431
-0.235056
-0.232917
-0.230988
-0.229247
-0.227696
-0.22636
-0.225215
-0.223972
-0.222658
-0.221376
-0.220176
-0.219059
-0.218021
-0.217206
-0.216902
-0.216701
-0.216542
-0.216493
-0.21654
-0.216542
-0.216651
-0.216936
-0.217242
-0.217676
-0.218338
-0.219217
-0.220264
-0.221481
-0.222426
-0.221306
-0.216874
-0.207335
-0.189791
0
0
-0.0263841
-0.0658739
-0.0952548
-0.119572
-0.14082
-0.160028
-0.177556
-0.19366
-0.208358
-0.221588
-0.233191
-0.24302
-0.250891
-0.256671
-0.260857
-0.263035
-0.263655
-0.262796
-0.260825
-0.258165
-0.255164
-0.252073
-0.248955
-0.24572
-0.241917
-0.239603
-0.23742
-0.235267
-0.23317
-0.231351
-0.22967
-0.228176
-0.226937
-0.225975
-0.224613
-0.223129
-0.22174
-0.220489
-0.219328
-0.218088
-0.217085
-0.217093
-0.216873
-0.216499
-0.216191
-0.215988
-0.215712
-0.215693
-0.216028
-0.216425