# vtk DataFile Version 2.0
FlowField
ASCII
DATASET STRUCTURED_GRID
DIMENSIONS 62 47 32 
POINTS 93248 double
0 0 0
0.01 0 0
0.02 0 0
0.03 0 0
0.04 0 0
0.05 0 0
0.06 0 0
0.07 0 0
0.08 0 0
0.09 0 0
0.1 0 0
0.11 0 0
0.12 0 0
0.13 0 0
0.14 0 0
0.15 0 0
0.16 0 0
0.17 0 0
0.18 0 0
0.19 0 0
0.2 0 0
0.21 0 0
0.22 0 0
0.23 0 0
0.24 0 0
0.25 0 0
0.26 0 0
0.27 0 0
0.28 0 0
0.29 0 0
0.3 0 0
0.31 0 0
0.32 0 0
0.33 0 0
0.34 0 0
0.35 0 0
0.36 0 0
0.37 0 0
0.38 0 0
0.39 0 0
0.4 0 0
0.41 0 0
0.42 0 0
0.43 0 0
0.44 0 0
0.45 0 0
0.46 0 0
0.47 0 0
0.48 0 0
0.49 0 0
0.5 0 0
0.51 0 0
0.52 0 0
0.53 0 0
0.54 0 0
0.55 0 0
0.56 0 0
0.57 0 0
0.58 0 0
0.59 0 0
0.6 0 0
0.61 0 0
0 0.01 0
0.01 0.01 0
0.02 0.01 0
0.03 0.01 0
0.04 0.01 0
0.05 0.01 0
0.06 0.01 0
0.07 0.01 0
0.08 0.01 0
0.09 0.01 0
0.1 0.01 0
0.11 0.01 0
0.12 0.01 0
0.13 0.01 0
0.14 0.01 0
0.15 0.01 0
0.16 0.01 0
0.17 0.01 0
0.18 0.01 0
0.19 0.01 0
0.2 0.01 0
0.21 0.01 0
0.22 0.01 0
0.23 0.01 0
0.24 0.01 0
0.25 0.01 0
0.26 0.01 0
0.27 0.01 0
0.28 0.01 0
0.29 0.01 0
0.3 0.01 0
0.31 0.01 0
0.32 0.01 0
0.33 0.01 0
0.34 0.01 0
0.35 0.01 0
0.36 0.01 0
0.37 0.01 0
0.38 0.01 0
0.39 0.01 0
0.4 0.01 0
0.41 0.01 0
0.42 0.01 0
0.43 0.01 0
0.44 0.01 0
0.45 0.01 0
0.46 0.01 0
0.47 0.01 0
0.48 0.01 0
0.49 0.01 0
0.5 0.01 0
0.51 0.01 0
0.52 0.01 0
0.53 0.01 0
0.54 0.01 0
0.55 0.01 0
0.56 0.01 0
0.57 0.01 0
0.58 0.01 0
0.59 0.01 0
0.6 0.01 0
0.61 0.01 0
0 0.02 0
0.01 0.02 0
0.02 0.02 0
0.03 0.02 0
0.04 0.02 0
0.05 0.02 0
0.06 0.02 0
0.07 0.02 0
0.08 0.02 0
0.09 0.02 0
0.1 0.02 0
0.11 0.02 0
0.12 0.02 0
0.13 0.02 0
0.14 0.02 0
0.15 0.02 0
0.16 0.02 0
0.17 0.02 0
0.18 0.02 0
0.19 0.02 0
0.2 0.02 0
0.21 0.02 0
0.22 0.02 0
0.23 0.02 0
0.24 0.02 0
0.25 0.02 0
0.26 0.02 0
0.27 0.02 0
0.28 0.02 0
0.29 0.02 0
0.3 0.02 0
0.31 0.02 0
0.32 0.02 0
0.33 0.02 0
0.34 0.02 0
0.35 0.02 0
0.36 0.02 0
0.37 0.02 0
0.38 0.02 0
0.39 0.02 0
0.4 0.02 0
0.41 0.02 0
0.42 0.02 0
0.43 0.02 0
0.44 0.02 0
0.45 0.02 0
0.46 0.02 0
0.47 0.02 0
0.48 0.02 0
0.49 0.02 0
0.5 0.02 0
0.51 0.02 0
0.52 0.02 0
0.53 0.02 0
0.54 0.02 0
0.55 0.02 0
0.56 0.02 0
0.57 0.02 0
0.58 0.02 0
0.59 0.02 0
0.6 0.02 0
0.61 0.02 0
0 0.03 0
0.01 0.03 0
0.02 0.03 0
0.03 0.03 0
0.04 0.03 0
0.05 0.03 0
0.06 0.03 0
0.07 0.03 0
0.08 0.03 0
0.09 0.03 0
0.1 0.03 0
0.11 0.03 0
0.12 0.03 0
0.13 0.03 0
0.14 0.03 0
0.15 0.03 0
0.16 0.03 0
0.17 0.03 0
0.18 0.03 0
0.19 0.03 0
0.2 0.03 0
0.21 0.03 0
0.22 0.03 0
0.23 0.03 0
0.24 0.03 0
0.25 0.03 0
0.26 0.03 0
0.27 0.03 0
0.28 0.03 0
0.29 0.03 0
0.3 0.03 0
0.31 0.03 0
0.32 0.03 0
0.33 0.03 0
0.34 0.03 0
0.35 0.03 0
0.36 0.03 0
0.37 0.03 0
0.38 0.03 0
0.39 0.03 0
0.4 0.03 0
0.41 0.03 0
0.42 0.03 0
0.43 0.03 0
0.44 0.03 0
0.45 0.03 0
0.46 0.03 0
0.47 0.03 0
0.48 0.03 0
0.49 0.03 0
0.5 0.03 0
0.51 0.03 0
0.52 0.03 0
0.53 0.03 0
0.54 0.03 0
0.55 0.03 0
0.56 0.03 0
0.57 0.03 0
0.58 0.03 0
0.59 0.03 0
0.6 0.03 0
0.61 0.03 0
0 0.04 0
0.01 0.04 0
0.02 0.04 0
0.03 0.04 0
0.04 0.04 0
0.05 0.04 0
0.06 0.04 0
0.07 0.04 0
0.08 0.04 0
0.09 0.04 0
0.1 0.04 0
0.11 0.04 0
0.12 0.04 0
0.13 0.04 0
0.14 0.04 0
0.15 0.04 0
0.16 0.04 0
0.17 0.04 0
0.18 0.04 0
0.19 0.04 0
0.2 0.04 0
0.21 0.04 0
0.22 0.04 0
0.23 0.04 0
0.24 0.04 0
0.25 0.04 0
0.26 0.04 0
0.27 0.04 0
0.28 0.04 0
0.29 0.04 0
0.3 0.04 0
0.31 0.04 0
0.32 0.04 0
0.33 0.04 0
0.34 0.04 0
0.35 0.04 0
0.36 0.04 0
0.37 0.04 0
0.38 0.04 0
0.39 0.04 0
0.4 0.04 0
0.41 0.04 0
0.42 0.04 0
0.43 0.04 0
0.44 0.04 0
0.45 0.04 0
0.46 0.04 0
0.47 0.04 0
0.48 0.04 0
0.49 0.04 0
0.5 0.04 0
0.51 0.04 0
0.52 0.04 0
0.53 0.04 0
0.54 0.04 0
0.55 0.04 0
0.56 0.04 0
0.57 0.04 0
0.58 0.04 0
0.59 0.04 0
0.6 0.04 0
0.61 0.04 0
0 0.05 0
0.01 0.05 0
0.02 0.05 0
0.03 0.05 0
0.04 0.05 0
0.05 0.05 0
0.06 0.05 0
0.07 0.05 0
0.08 0.05 0
0.09 0.05 0
0.1 0.05 0
0.11 0.05 0
0.12 0.05 0
0.13 0.05 0
0.14 0.05 0
0.15 0.05 0
0.16 0.05 0
0.17 0.05 0
0.18 0.05 0
0.19 0.05 0
0.2 0.05 0
0.21 0.05 0
0.22 0.05 0
0.23 0.05 0
0.24 0.05 0
0.25 0.05 0
0.26 0.05 0
0.27 0.05 0
0.28 0.05 0
0.29 0.05 0
0.3 0.05 0
0.31 0.05 0
0.32 0.05 0
0.33 0.05 0
0.34 0.05 0
0.35 0.05 0
0.36 0.05 0
0.37 0.05 0
0.38 0.05 0
0.39 0.05 0
0.4 0.05 0
0.41 0.05 0
0.42 0.05 0
0.43 0.05 0
0.44 0.05 0
0.45 0.05 0
0.46 0.05 0
0.47 0.05 0
0.48 0.05 0
0.49 0.05 0
0.5 0.05 0
0.51 0.05 0
0.52 0.05 0
0.53 0.05 0
0.54 0.05 0
0.55 0.05 0
0.56 0.05 0
0.57 0.05 0
0.58 0.05 0
0.59 0.05 0
0.6 0.05 0
0.61 0.05 0
0 0.06 0
0.01 0.06 0
0.02 0.06 0
0.03 0.06 0
0.04 0.06 0
0.05 0.06 0
0.06 0.06 0
0.07 0.06 0
0.08 0.06 0
0.09 0.06 0
0.1 0.06 0
0.11 0.06 0
0.12 0.06 0
0.13 0.06 0
0.14 0.06 0
0.15 0.06 0
0.16 0.06 0
0.17 0.06 0
0.18 0.06 0
0.19 0.06 0
0.2 0.06 0
0.21 0.06 0
0.22 0.06 0
0.23 0.06 0
0.24 0.06 0
0.25 0.06 0
0.26 0.06 0
0.27 0.06 0
0.28 0.06 0
0.29 0.06 0
0.3 0.06 0
0.31 0.06 0
0.32 0.06 0
0.33 0.06 0
0.34 0.06 0
0.35 0.06 0
0.36 0.06 0
0.37 0.06 0
0.38 0.06 0
0.39 0.06 0
0.4 0.06 0
0.41 0.06 0
0.42 0.06 0
0.43 0.06 0
0.44 0.06 0
0.45 0.06 0
0.46 0.06 0
0.47 0.06 0
0.48 0.06 0
0.49 0.06 0
0.5 0.06 0
0.51 0.06 0
0.52 0.06 0
0.53 0.06 0
0.54 0.06 0
0.55 0.06 0
0.56 0.06 0
0.57 0.06 0
0.58 0.06 0
0.59 0.06 0
0.6 0.06 0
0.61 0.06 0
0 0.07 0
0.01 0.07 0
0.02 0.07 0
0.03 0.07 0
0.04 0.07 0
0.05 0.07 0
0.06 0.07 0
0.07 0.07 0
0.08 0.07 0
0.09 0.07 0
0.1 0.07 0
0.11 0.07 0
0.12 0.07 0
0.13 0.07 0
0.14 0.07 0
0.15 0.07 0
0.16 0.07 0
0.17 0.07 0
0.18 0.07 0
0.19 0.07 0
0.2 0.07 0
0.21 0.07 0
0.22 0.07 0
0.23 0.07 0
0.24 0.07 0
0.25 0.07 0
0.26 0.07 0
0.27 0.07 0
0.28 0.07 0
0.29 0.07 0
0.3 0.07 0
0.31 0.07 0
0.32 0.07 0
0.33 0.07 0
0.34 0.07 0
0.35 0.07 0
0.36 0.07 0
0.37 0.07 0
0.38 0.07 0
0.39 0.07 0
0.4 0.07 0
0.41 0.07 0
0.42 0.07 0
0.43 0.07 0
0.44 0.07 0
0.45 0.07 0
0.46 0.07 0
0.47 0.07 0
0.48 0.07 0
0.49 0.07 0
0.5 0.07 0
0.51 0.07 0
0.52 0.07 0
0.53 0.07 0
0.54 0.07 0
0.55 0.07 0
0.56 0.07 0
0.57 0.07 0
0.58 0.07 0
0.59 0.07 0
0.6 0.07 0
0.61 0.07 0
0 0.08 0
0.01 0.08 0
0.02 0.08 0
0.03 0.08 0
0.04 0.08 0
0.05 0.08 0
0.06 0.08 0
0.07 0.08 0
0.08 0.08 0
0.09 0.08 0
0.1 0.08 0
0.11 0.08 0
0.12 0.08 0
0.13 0.08 0
0.14 0.08 0
0.15 0.08 0
0.16 0.08 0
0.17 0.08 0
0.18 0.08 0
0.19 0.08 0
0.2 0.08 0
0.21 0.08 0
0.22 0.08 0
0.23 0.08 0
0.24 0.08 0
0.25 0.08 0
0.26 0.08 0
0.27 0.08 0
0.28 0.08 0
0.29 0.08 0
0.3 0.08 0
0.31 0.08 0
0.32 0.08 0
0.33 0.08 0
0.34 0.08 0
0.35 0.08 0
0.36 0.08 0
0.37 0.08 0
0.38 0.08 0
0.39 0.08 0
0.4 0.08 0
0.41 0.08 0
0.42 0.08 0
0.43 0.08 0
0.44 0.08 0
0.45 0.08 0
0.46 0.08 0
0.47 0.08 0
0.48 0.08 0
0.49 0.08 0
0.5 0.08 0
0.51 0.08 0
0.52 0.08 0
0.53 0.08 0
0.54 0.08 0
0.55 0.08 0
0.56 0.08 0
0.57 0.08 0
0.58 0.08 0
0.59 0.08 0
0.6 0.08 0
0.61 0.08 0
0 0.09 0
0.01 0.09 0
0.02 0.09 0
0.03 0.09 0
0.04 0.09 0
0.05 0.09 0
0.06 0.09 0
0.07 0.09 0
0.08 0.09 0
0.09 0.09 0
0.1 0.09 0
0.11 0.09 0
0.12 0.09 0
0.13 0.09 0
0.14 0.09 0
0.15 0.09 0
0.16 0.09 0
0.17 0.09 0
0.18 0.09 0
0.19 0.09 0
0.2 0.09 0
0.21 0.09 0
0.22 0.09 0
0.23 0.09 0
0.24 0.09 0
0.25 0.09 0
0.26 0.09 0
0.27 0.09 0
0.28 0.09 0
0.29 0.09 0
0.3 0.09 0
0.31 0.09 0
0.32 0.09 0
0.33 0.09 0
0.34 0.09 0
0.35 0.09 0
0.36 0.09 0
0.37 0.09 0
0.38 0.09 0
0.39 0.09 0
0.4 0.09 0
0.41 0.09 0
0.42 0.09 0
0.43 0.09 0
0.44 0.09 0
0.45 0.09 0
0.46 0.09 0
0.47 0.09 0
0.48 0.09 0
0.49 0.09 0
0.5 0.09 0
0.51 0.09 0
0.52 0.09 0
0.53 0.09 0
0.54 0.09 0
0.55 0.09 0
0.56 0.09 0
0.57 0.09 0
0.58 0.09 0
0.59 0.09 0
0.6 0.09 0
0.61 0.09 0
0 0.1 0
0.01 0.1 0
0.02 0.1 0
0.03 0.1 0
0.04 0.1 0
0.05 0.1 0
0.06 0.1 0
0.07 0.1 0
0.08 0.1 0
0.09 0.1 0
0.1 0.1 0
0.11 0.1 0
0.12 0.1 0
0.13 0.1 0
0.14 0.1 0
0.15 0.1 0
0.16 0.1 0
0.17 0.1 0
0.18 0.1 0
0.19 0.1 0
0.2 0.1 0
0.21 0.1 0
0.22 0.1 0
0.23 0.1 0
0.24 0.1 0
0.25 0.1 0
0.26 0.1 0
0.27 0.1 0
0.28 0.1 0
0.29 0.1 0
0.3 0.1 0
0.31 0.1 0
0.32 0.1 0
0.33 0.1 0
0.34 0.1 0
0.35 0.1 0
0.36 0.1 0
0.37 0.1 0
0.38 0.1 0
0.39 0.1 0
0.4 0.1 0
0.41 0.1 0
0.42 0.1 0
0.43 0.1 0
0.44 0.1 0
0.45 0.1 0
0.46 0.1 0
0.47 0.1 0
0.48 0.1 0
0.49 0.1 0
0.5 0.1 0
0.51 0.1 0
0.52 0.1 0
0.53 0.1 0
0.54 0.1 0
0.55 0.1 0
0.56 0.1 0
0.57 0.1 0
0.58 0.1 0
0.59 0.1 0
0.6 0.1 0
0.61 0.1 0
0 0.11 0
0.01 0.11 0
0.02 0.11 0
0.03 0.11 0
0.04 0.11 0
0.05 0.11 0
0.06 0.11 0
0.07 0.11 0
0.08 0.11 0
0.09 0.11 0
0.1 0.11 0
0.11 0.11 0
0.12 0.11 0
0.13 0.11 0
0.14 0.11 0
0.15 0.11 0
0.16 0.11 0
0.17 0.11 0
0.18 0.11 0
0.19 0.11 0
0.2 0.11 0
0.21 0.11 0
0.22 0.11 0
0.23 0.11 0
0.24 0.11 0
0.25 0.11 0
0.26 0.11 0
0.27 0.11 0
0.28 0.11 0
0.29 0.11 0
0.3 0.11 0
0.31 0.11 0
0.32 0.11 0
0.33 0.11 0
0.34 0.11 0
0.35 0.11 0
0.36 0.11 0
0.37 0.11 0
0.38 0.11 0
0.39 0.11 0
0.4 0.11 0
0.41 0.11 0
0.42 0.11 0
0.43 0.11 0
0.44 0.11 0
0.45 0.11 0
0.46 0.11 0
0.47 0.11 0
0.48 0.11 0
0.49 0.11 0
0.5 0.11 0
0.51 0.11 0
0.52 0.11 0
0.53 0.11 0
0.54 0.11 0
0.55 0.11 0
0.56 0.11 0
0.57 0.11 0
0.58 0.11 0
0.59 0.11 0
0.6 0.11 0
0.61 0.11 0
0 0.12 0
0.01 0.12 0
0.02 0.12 0
0.03 0.12 0
0.04 0.12 0
0.05 0.12 0
0.06 0.12 0
0.07 0.12 0
0.08 0.12 0
0.09 0.12 0
0.1 0.12 0
0.11 0.12 0
0.12 0.12 0
0.13 0.12 0
0.14 0.12 0
0.15 0.12 0
0.16 0.12 0
0.17 0.12 0
0.18 0.12 0
0.19 0.12 0
0.2 0.12 0
0.21 0.12 0
0.22 0.12 0
0.23 0.12 0
0.24 0.12 0
0.25 0.12 0
0.26 0.12 0
0.27 0.12 0
0.28 0.12 0
0.29 0.12 0
0.3 0.12 0
0.31 0.12 0
0.32 0.12 0
0.33 0.12 0
0.34 0.12 0
0.35 0.12 0
0.36 0.12 0
0.37 0.12 0
0.38 0.12 0
0.39 0.12 0
0.4 0.12 0
0.41 0.12 0
0.42 0.12 0
0.43 0.12 0
0.44 0.12 0
0.45 0.12 0
0.46 0.12 0
0.47 0.12 0
0.48 0.12 0
0.49 0.12 0
0.5 0.12 0
0.51 0.12 0
0.52 0.12 0
0.53 0.12 0
0.54 0.12 0
0.55 0.12 0
0.56 0.12 0
0.57 0.12 0
0.58 0.12 0
0.59 0.12 0
0.6 0.12 0
0.61 0.12 0
0 0.13 0
0.01 0.13 0
0.02 0.13 0
0.03 0.13 0
0.04 0.13 0
0.05 0.13 0
0.06 0.13 0
0.07 0.13 0
0.08 0.13 0
0.09 0.13 0
0.1 0.13 0
0.11 0.13 0
0.12 0.13 0
0.13 0.13 0
0.14 0.13 0
0.15 0.13 0
0.16 0.13 0
0.17 0.13 0
0.18 0.13 0
0.19 0.13 0
0.2 0.13 0
0.21 0.13 0
0.22 0.13 0
0.23 0.13 0
0.24 0.13 0
0.25 0.13 0
0.26 0.13 0
0.27 0.13 0
0.28 0.13 0
0.29 0.13 0
0.3 0.13 0
0.31 0.13 0
0.32 0.13 0
0.33 0.13 0
0.34 0.13 0
0.35 0.13 0
0.36 0.13 0
0.37 0.13 0
0.38 0.13 0
0.39 0.13 0
0.4 0.13 0
0.41 0.13 0
0.42 0.13 0
0.43 0.13 0
0.44 0.13 0
0.45 0.13 0
0.46 0.13 0
0.47 0.13 0
0.48 0.13 0
[...]
POINT_DATA 93248

SCALARS u double
LOOKUP_TABLE default
0
0
0
0
0
0
0
0
0
0
0
0
0
0
0
0
0
0
0
0
0
0
0
0
0.292622
0
0
0
0
0
0
0
0.101377
0.220055
0
0
0
0
0
0
0
0
0
0
0
0
0
0.0953948
0
0
0.0791725
0
0
0
0
0
0
0
0
0
0
0
0
0.423867
0.350131
0.284746
0.239487
0.214255
0.199793
0.190464
0.183348
0.177376
0.172093
0.167169
0.162722
0.158416
0.154266
0.150228
0.14632
0.142422
0.138595
0.134654
0.131325
0.127734
0.124158
0.120533
0.116938
0.11337
0.109819
0.106279
0.102742
0.0992024
0.095649
0.0920775
0.0885559
0.0848861
0.081039
0.0771312
0.0731844
0.0699554
0.0706002
0.161108
0.0589694
0.0560199
0.0532129
0.0502861
0.0473418
0.0423672
0.0399645
0.0366387
0.0332441
0.0297858
0.0264194
0.0512375
0.0197161
0.0164351
0.0115236
0.00821898
0.0239522
0.00114259
-0.00309889
-0.00845203
-0.00845203
0
0
0.497573
0.492253
0.477989
0.455501
0.432451
0.413449
0.397873
0.384786
0.373341
0.363057
0.353281
0.344519
0.335785
0.327404
0.319179
0.311223
0.303216
0.295576
0.328711
0.280691
0.272631
0.265233
0.257597
0.250078
0.242614
0.23518
0.227765
0.22036
0.212957
0.205538
0.198054
0.190812
0.18329
0.175531
0.16758
0.158372
0.145347
-0.0811772
0.126824
0.126496
0.12257
0.116715
0.110097
0.103163
0.0956256
0.0882491
0.0811787
0.0739877
0.0666851
0.0594052
0.052712
0.0450792
0.0376227
0.0297846
0.02249
0.0149544
0.00756793
-0.000244896
-0.00805576
-0.00805576
0
0
0.492728
0.502934
0.50521
0.493136
0.476181
0.459192
0.444303
0.43101
0.41888
0.397514
0.397229
0.387196
0.377774
0.368501
0.359559
0.350823
0.341574
0.332921
0.324332
0.315575
0.30721
0.298851
0.290445
0.282051
0.27368
0.265332
0.257
0.248681
0.240372
0.232079
0.223837
0.215316
0.20736
0.209858
0.190505
0.181601
0.173296
0.168321
0.157485
0.148576
0.140599
0.13578
0.124927
0.117251
0.127667
0.100946
0.0922367
0.0739877
0.0756565
0.0675789
0.0595452
0.0512375
0.0428947
0.0344878
0.0262288
0.0180087
0.00937982
0.00115232
-0.00700463
-0.00700463
0
0
0.485498
0.490731
0.493319
0.486042
0.472843
0.459273
0.446538
0.434554
0.423272
0.412681
0.402425
0.392464
0.382883
0.373564
0.36451
0.355286
0.346826
0.33797
0.328341
0.320354
0.311767
0.303246
0.294735
0.286241
0.277765
0.269308
0.260866
0.252437
0.244017
0.235606
0.227199
0.218733
0.210394
0.201897
0.193596
0.185412
0.177864
0.171393
0.161944
0.152484
0.143665
0.135235
0.126973
0.118725
0.110262
0.101866
0.0935811
0.0853415
0.0770095
0.0687246
0.0604482
0.0520875
0.0436802
0.035254
0.0268691
0.0184954
0.0100445
0.00174396
-0.00653226
-0.00653226
0
0
0.482301
0.483902
0.48399
0.476145
0.464746
0.453526
0.442611
0.431867
0.421435
0.411401
0.401588
0.391976
0.382561
0.373207
0.364696
0.355575
0.346818
0.33807
0.329331
0.320634
0.312029
0.303485
0.294974
0.286486
0.278017
0.269566
0.26113
0.252706
0.244288
0.235873
0.227451
0.21901
0.210741
0.20234
0.194064
0.185945
0.178089
0.170393
0.161733
0.152845
0.144141
0.135628
0.12723
0.118892
0.11064
0.102316
0.09366
0.0854515
0.077159
0.0688619
0.060564
0.0522309
0.0438448
0.0354424
0.0270592
0.0186976
0.0103507
0.00206102
-0.00641808
-0.00641808
0
0
0.480861
0.47944
0.47727
0.469061
0.458415
0.448333
0.438514
0.428658
0.419055
0.409526
0.400158
0.390886
0.381735
0.372713
0.363919
0.355119
0.346377
0.337736
0.329059
0.320436
0.311869
0.303346
0.294853
0.286384
0.277933
0.269501
0.261083
0.252675
0.244272
0.235868
0.227447
0.218918
0.210959
0.202506
0.194199
0.186
0.177895
0.169769
0.16134
0.152768
0.144215
0.135722
0.127267
0.118779
0.110165
0.102423
0.0939736
0.0855692
0.0772215
0.0689177
0.0606484
0.0523745
0.0439822
0.035571
0.0271924
0.0188505
0.0105629
0.00247642
-0.00536156
-0.00536156
0
0
0.480179
0.477069
0.473317
0.464377
0.453675
0.449807
0.434323
0.425515
0.416718
0.407789
0.398726
0.389711
0.380782
0.37192
0.363152
0.354603
0.345932
0.337293
0.328711
0.320157
0.311642
0.303152
0.294685
0.286238
0.277808
0.269398
0.261002
0.252615
0.244233
0.235855
0.227532
0.219341
0.210599
0.2024
0.194168
0.185948
0.177731
0.169475
0.161108
0.152664
0.144203
0.135844
0.127317
0.118876
0.110448
0.102311
0.0939616
0.0855809
0.0772295
0.0689341
0.0607405
0.0526326
0.044145
0.0356666
0.0272813
0.0189386
0.0105459
0.0022501
-0.00506391
-0.00506391
0
0
0.479827
0.475724
0.470874
0.461262
0.450466
0.440988
0.432042
0.423376
0.414763
0.406029
0.397291
0.388479
0.379772
0.371043
0.362155
0.311223
0.345158
0.33683
0.328341
0.319843
0.311383
0.302928
0.294487
0.286069
0.278017
0.269282
0.260905
0.252545
0.244186
0.235799
0.227481
0.219184
0.210742
0.202431
0.194157
0.185892
0.177618
0.169318
0.160969
0.152581
0.144174
0.135764
0.127359
0.11896
0.110584
0.102283
0.0939311
0.0855516
0.07717
0.0688359
0.0607118
0.0530564
0.0442415
0.0356572
0.0273143
0.019077
0.0109198
0.00246395
-0.00558719
-0.00558719
0
0
0.479626
0.474893
0.469267
0.459087
0.448045
0.438565
0.429833
0.421347
0.412888
0.404439
0.396008
0.387183
0.378748
0.370253
0.361733
0.353399
0.344903
0.336398
0.327944
0.319486
0.311116
0.302677
0.294262
0.285863
0.277485
0.269123
0.260784
0.252472
0.244177
0.235809
0.227491
0.219147
0.210773
0.20244
0.194132
0.185839
0.177536
0.169219
0.16088
0.15252
0.144146
0.135766
0.127385
0.119009
0.110643
0.102292
0.0939191
0.085506
0.0770254
0.0684397
0.0597922
0.052798
0.043521
0.035274
0.0271986
0.01908
0.0109219
0.00266046
-0.00565007
-0.00565007
0
0
0.479503
0.474346
0.468155
0.457532
0.446228
0.436626
0.427945
0.419564
0.411274
0.402987
0.394671
0.386256
0.377893
0.369519
0.361093
0.352733
0.344329
0.33593
0.327548
0.319207
0.31074
0.302374
0.294003
0.285634
0.277294
0.268946
0.260636
0.252393
0.244288
0.24264
0.227758
0.219211
0.210786
0.202424
0.194085
0.184862
0.177452
0.169142
0.160817
0.152476
0.144124
0.135765
0.127403
0.11904
0.110679
0.102316
0.0939316
0.0854893
0.0768878
0.0677905
0.0572444
-0.0205291
0.0400916
0.0343001
0.0269985
0.0190741
0.0109533
0.00274162
-0.00563144
-0.00563144
0
0
0.479422
0.47397
0.467348
0.456404
0.444849
0.435113
0.426409
0.418084
0.409886
0.401713
0.393522
0.385291
0.377059
0.368835
0.360392
0.35206
0.343763
0.335451
0.327107
0.315746
0.310376
0.302075
0.293744
0.285397
0.277055
0.268722
0.260423
0.252189
0.24405
0.235965
0.227186
0.218971
0.210698
0.202382
0.194051
0.18572
0.176381
0.16907
0.160767
0.152445
0.14411
0.135768
0.127418
0.119065
0.110711
0.102353
0.0939814
0.0855802
0.0771239
0.0686104
0.060242
0.0528855
0.0436781
0.035407
0.02733
0.0192059
0.0110301
0.00280416
-0.0055985
-0.0055985
0
0
0.479369
0.473718
0.466853
0.455486
0.443732
0.433894
0.425161
0.416851
0.408704
0.400606
0.392503
0.384379
0.37626
0.368258
0.359635
0.35144
0.343236
0.335008
0.326746
0.318478
0.310145
0.301819
0.293487
0.285146
0.276797
0.268451
0.260135
0.251897
0.243768
0.23532
0.227641
0.219227
0.210784
0.202379
0.194013
0.185673
0.177355
0.169039
0.160736
0.152427
0.144106
0.13578
0.127438
0.119092
0.110744
0.102396
0.094046
0.0856925
0.0773391
0.0690546
0.0609858
0.0532371
0.0444717
0.0359208
0.0275973
0.0193533
0.0111221
0.00286801
-0.00555979
-0.00555979
0
0
0.47933
0.473518
0.466398
0.454845
0.442909
0.432953
0.424156
0.41583
0.4077
0.399651
0.391602
0.38353
0.375398
0.36709
0.359364
0.351154
0.342897
0.334627
0.326395
0.318142
0.309851
0.301546
0.293225
0.284884
0.276515
0.268123
0.259742
0.251505
0.243922
0.235736
0.227593
0.219203
0.210755
0.202334
0.193951
0.185599
0.177277
0.168983
0.16071
0.152425
0.144112
0.135817
0.127467
0.11912
0.110776
0.102437
0.0941063
0.0857863
0.077455
0.0692063
0.0610494
0.0529328
0.0444962
0.036078
0.0277492
0.0194743
0.0112099
0.00293486
-0.00551527
-0.00551527
0
0
0.479301
0.473362
0.466053
0.454331
0.44226
0.432202
0.423341
0.414986
0.406862
0.398822
0.390816
0.382797
0.37474
0.366631
0.358691
0.350601
0.342414
0.334186
0.326056
0.317832
0.309563
0.301278
0.29297
0.284626
0.276224
0.267731
0.259138
0.250551
0.245107
0.236526
0.22783
0.21923
0.210715
0.202266
0.193861
0.185495
0.177163
0.168905
0.160698
0.152457
0.144164
0.135844
0.127499
0.11915
0.110806
0.10247
0.0941514
0.0858707
0.0774875
0.0692583
0.0610427
0.0528167
0.0444528
0.0361307
0.0278405
0.0195854
0.0112845
0.0030087
-0.00545977
-0.00545977
0
0
0.479284
0.473234
0.465775
0.453927
0.441743
0.431604
0.422679
0.414285
0.406145
0.39812
0.39014
0.382164
0.374169
0.366152
0.358154
0.350092
0.341957
0.333697
0.325802
0.317541
0.309288
0.301022
0.292734
0.284398
0.275971
0.26734
0.258108
0.246688
0.251304
0.238233
0.228262
0.219277
0.210653
0.202169
0.193735
0.185335
0.176992
0.168773
0.160732
0.152558
0.144262
0.135912
0.127546
0.119184
0.11083
0.102488
0.0941517
0.0858066
0.077609
0.0693164
0.0610633
0.0528654
0.0443543
0.0361491
0.0279001
0.0196664
0.0113966
0.00310735
-0.00537909
-0.00537909
0
0
0.479302
0.47311
0.465534
0.453592
0.441323
0.431125
0.422131
0.413691
0.405535
0.397514
0.389554
0.38161
0.373659
0.365691
0.3577
0.349673
0.341625
0.333636
0.325221
0.317127
0.308974
0.300775
0.292526
0.284226
0.275854
0.267369
0.258728
0.250177
0.244995
0.236421
0.227642
0.219009
0.21049
0.202035
0.193568
0.185099
0.176673
0.168473
0.160955
0.152827
0.14445
0.136021
0.127607
0.119219
0.11085
0.102504
0.0941692
0.0858487
0.0775802
0.0693256
0.061054
0.052782
0.044456
0.0361997
0.0279404
0.019766
0.0115045
0.00323903
-0.00524063
-0.00524063
0
0
0.479406
0.472941
0.465326
0.453319
0.440971
0.430696
0.421596
0.413124
0.404983
0.396988
0.389042
0.381124
0.37321
0.365282
0.357308
0.349294
0.341258
0.333206
0.325021
0.316887
0.308745
0.300567
0.29235
0.284094
0.275796
0.267457
0.259124
0.250978
0.243572
0.235495
0.227143
0.218718
0.210294
0.201893
0.193371
0.184771
0.176074
0.167534
0.16213
0.153539
0.144777
0.136162
0.127667
0.119249
0.110859
0.102511
0.0941767
0.0858483
0.0775372
0.0693517
0.0610591
0.0527646
0.0444802
0.036254
0.0278443
0.0197743
0.0115513
0.00342349
-0.00491684
-0.00491684
0
0
0.479081
0.473187
0.465409
0.453222
0.440696
0.425161
0.420845
0.412488
0.404449
0.396519
0.388591
0.380691
0.372819
0.36495
0.356979
0.348953
0.340919
0.332873
0.324777
0.31667
0.308542
0.300385
0.292198
0.283982
0.27574
0.267482
0.259089
0.25109
0.243226
0.235107
0.226824
0.218464
0.210067
0.20171
0.193123
0.184414
0.175108
0.163212
0.168222
0.155051
0.145172
0.136265
0.127688
0.119239
0.110866
0.102513
0.0941789
0.0858354
0.077422
0.0694511
0.0610631
0.0527477
0.044454
0.0361346
0.0276527
0.0109533
0.0113521
0.00366751
-0.00378203
0
0
0
0.479187
0.472777
0.465236
0.453108
0.440659
0.430106
0.420877
0.412364
0.404206
0.396216
0.388191
0.380284
0.372466
0.364716
0.356684
0.348634
0.340596
0.332588
0.324542
0.316465
0.308358
0.300224
0.292062
0.283876
0.275672
0.267463
0.259266
0.250975
0.243191
0.234912
0.226615
0.21825
0.209741
0.193072
0.192704
0.184389
0.175806
0.167223
0.162129
0.15252
0.144736
0.136121
0.127627
0.119206
0.110836
0.102501
0.0941936
0.0859231
0.0777422
0.0691197
0.0609357
0.0527028
0.0444519
0.0361954
0.0279501
0.0198383
0.0115816
0.00343716
-0.00492041
-0.00492041
0
0
0.479219
0.472964
0.465045
0.453061
0.440708
0.429796
0.420668
0.412152
0.403975
0.395999
0.387758
0.37986
0.372057
0.364334
0.356155
0.348129
0.340236
0.33233
0.324334
0.316281
0.308195
0.30008
0.291939
0.283773
0.27559
0.267418
0.259366
0.251306
0.242762
0.234646
0.226436
0.218165
0.209858
0.201614
0.19316
0.184751
0.176384
0.168229
0.160808
0.152716
0.14435
0.135933
0.127528
0.119144
0.110782
0.10247
0.094178
0.0858985
0.0776194
0.0692172
0.0609254
0.0526848
0.0444527
0.036228
0.0279933
0.0198029
0.0115321
0.00325563
-0.00523641
-0.00523641
0
0
0.479229
0.472969
0.4652
0.45264
0.439877
0.42994
0.420759
0.412144
0.403791
0.395492
0.387634
0.379475
0.371212
0.334432
0.354271
0.347142
0.339671
0.332124
0.324157
0.316124
0.308053
0.299955
0.291829
0.283675
0.275484
0.267179
0.259498
0.251182
0.242821
0.234583
0.226354
0.218102
0.209845
0.201613
0.193278
0.184942
0.176656
0.16849
0.160497
0.152363
0.1441
0.135778
0.127433
0.119081
0.110709
0.102435
0.0941616
0.0858796
0.0775859
0.069241
0.0608949
0.0526635
0.0444435
0.0362454
0.027955
0.0196966
0.011428
0.00312849
-0.00536997
-0.00536997
0
0
0.479226
0.472936
0.465059
0.452647
0.439987
0.429693
0.420585
0.412012
0.403717
0.395348
0.38724
0.378936
0.348207
0.362797
0.35516
0.347564
0.339933
0.33188
0.323958
0.315969
0.30793
0.29985
0.291736
0.2836
0.275442
0.267281
0.25922
0.251005
0.242762
0.234526
0.226285
0.218031
0.209778
0.201575
0.193302
0.185032
0.176769
0.168556
0.160393
0.152196
0.143949
0.135674
0.127367
0.119075
0.110707
0.102476
0.0941814
0.0858885
0.0776149
0.069303
0.0609153
0.0526822
0.0443895
0.0361803
0.0278351
0.019584
0.0113338
0.00303771
-0.00544579
-0.00544579
0
0
0.479222
0.472912
0.465
0.45264
0.440022
0.429597
0.420471
0.411981
0.403868
0.394937
0.386999
0.379211
0.371743
0.363567
0.355654
0.347774
0.339851
0.331861
0.323882
0.31588
0.307844
0.299774
0.291658
0.283533
0.275397
0.267249
0.259106
0.250907
0.242699
0.234468
0.226218
0.217943
0.209653
0.201612
0.193326
0.185119
0.176826
0.168569
0.160338
0.152103
0.143851
0.135591
0.127353
0.119234
0.117377
0.102765
0.0942554
0.0859031
0.0776907
0.0695293
0.0681275
0.0528898
0.0441798
0.027308
0.0274823
0.0194473
0.0112625
0.00296848
-0.00549746
-0.00549746
0
0
0.47922
0.4729
0.464976
0.452628
0.440017
0.429554
0.420404
0.412021
0.404338
0.392056
0.386158
0.37903
0.371548
0.363641
0.355703
0.347748
0.3398
0.331822
0.323831
0.315819
0.307786
0.299734
0.291583
0.28347
0.275354
0.267216
0.259072
0.252675
0.242685
0.234427
0.22616
0.217845
0.209337
0.202125
0.19327
0.185338
0.176882
0.168563
0.160295
0.152037
0.143775
0.135502
0.12723
0.118946
0.11057
0.102355
0.0940593
0.0857552
0.0775493
0.0691914
0.0607401
0.0525852
0.0443303
0.0361444
0.0277761
0.019516
0.0112766
0.00290648
-0.00553961
-0.00553961
0
0
0.479218
0.472893
0.464964
0.452619
0.440014
0.429581
0.420226
0.411814
0.403777
0.394843
0.386938
0.379182
0.371429
0.36357
0.355656
0.347717
0.339768
0.331791
0.323792
0.315775
0.307747
0.299754
0.291471
0.283422
0.275326
0.267186
0.259021
0.250786
0.242598
0.234379
0.226129
0.21786
0.209572
0.201553
0.193274
0.185093
0.176797
0.168516
0.160248
0.151985
0.143716
0.135422
0.127135
0.118832
0.110494
0.102227
0.0939062
0.0854384
0.0691834
0.0688495
0.0604925
0.0525177
0.0443239
0.0361188
0.0278077
0.0195387
0.0113616
0.00279028
-0.00557145
-0.00557145
0
0
0.479217
0.472889
0.464959
0.452614
0.440001
0.429515
0.420304
0.411734
0.40348
0.395182
0.387154
0.379269
0.371427
0.363554
0.355649
0.347718
0.339761
0.331777
0.32377
0.315739
0.307672
0.299521
0.29162
0.283484
0.27537
0.267182
0.258961
0.25078
0.242571
0.23436
0.226097
0.217869
0.209635
0.201451
0.19322
0.184989
0.17673
0.168465
0.160201
0.151943
0.143685
0.135342
0.127062
0.118779
0.110483
0.102205
0.0939205
0.0856355
0.0774208
0.0689629
0.0609364
0.0525323
0.0442946
0.0360472
0.0277555
0.0194399
0.0110624
0.00305958
-0.00549441
-0.00549441
0
0
0.479214
0.472885
0.464958
0.45262
0.440013
0.429534
0.420372
0.411706
0.403416
0.395249
0.387265
0.379368
0.371488
0.363597
0.355685
0.347753
0.339785
0.331786
0.323771
0.315734
0.307675
0.299578
0.292734
0.28347
0.275427
0.267178
0.258936
0.25073
0.242532
0.234326
0.226098
0.217869
0.209639
0.201416
0.19318
0.184935
0.176679
0.168417
0.160154
0.151904
0.143708
0.13522
0.127002
0.118741
0.110465
0.10219
0.093921
0.0856648
0.0774287
0.0690982
0.060867
0.0525579
0.0442828
0.0360125
0.0277296
0.0194381
0.0111473
0.0029445
-0.00552136
-0.00552136
0
0
0.479205
0.472877
0.464958
0.452639
0.440048
0.429593
0.420546
0.411678
0.403502
0.395369
0.387474
0.379556
0.371623
0.363691
0.355763
0.347836
0.339847
0.331815
0.32379
0.315746
0.307688
0.299582
0.291442
0.283292
0.275297
0.26696
0.258773
0.250652
0.242489
0.234299
0.226086
0.21786
0.209628
0.201391
0.193147
0.184895
0.176636
0.16837
0.160095
0.151801
0.143446
0.13538
0.127035
0.118729
0.110442
0.102168
0.0939023
0.0856435
0.0773865
0.0691029
0.0608347
0.0525503
0.0442717
0.0359951
0.0277175
0.0194465
0.0111557
0.00290184
-0.00554504
-0.00554504
0
0
0.479181
0.472858
0.464969
0.452678
0.440103
0.429615
0.420328
0.412111
0.403897
0.403777
0.388059
0.37993
0.371851
0.363837
0.355862
0.347983
0.339947
0.331862
0.323842
0.315769
0.307736
0.299604
0.291361
0.28282
0.250852
0.265812
0.2583
0.250492
0.242448
0.234282
0.226075
0.21785
0.209614
0.20137
0.193119
0.184862
0.176598
0.168329
0.160053
0.151769
0.143479
0.135261
0.126975
0.118684
0.110405
0.102136
0.0938753
0.0856179
0.0773586
0.0690898
0.0608186
0.0525411
0.0442625
0.0359842
0.0277067
0.019433
0.0111625
0.00288765
-0.0055569
-0.0055569
0
0
0.479095
0.472777
0.466501
0.452806
0.440225
0.429765
0.420596
0.412149
0.403925
0.395747
0.387815
0.379873
0.371907
0.363935
0.355863
0.348117
0.340009
0.33807
0.324017
0.315804
0.307876
0.299693
0.291519
0.283348
0.275388
0.26702
0.2588
0.250657
0.242485
0.234291
0.226075
0.217844
0.209603
0.201352
0.193095
0.184832
0.176563
0.168291
0.160016
0.15174
0.143464
0.135194
0.126909
0.118627
0.110356
0.102097
0.0938449
0.0855954
0.0773429
0.0690823
0.0608135
0.0525375
0.044258
0.0359782
0.0276999
0.0194249
0.0111577
0.00288032
-0.00554504
-0.00556313
0
0
0.478891
0.4724
0.464797
0.452746
0.440321
0.429948
0.420848
0.412343
0.404105
0.395978
0.387986
0.380034
0.372064
0.364027
0.355738
0.303216
0.3393
0.33171
0.323922
0.316017
0.307762
0.299711
0.291611
0.283525
0.275453
0.267204
0.258958
0.250734
0.242524
0.234308
0.226081
0.217843
0.209595
0.201337
0.193072
0.184802
0.176528
0.168251
0.159976
0.151708
0.143441
0.135142
0.12684
0.118555
0.110293
0.102048
0.0938122
0.085578
0.0773392
0.0690877
0.0608212
0.052543
0.0442594
0.0359773
0.0276961
0.019418
0.0111486
0.00247642
-0.00557137
-0.00557137
0
0
0.479974
0.473329
0.464733
0.452602
0.440416
0.430199
0.421159
0.412638
0.404404
0.396308
0.388299
0.38032
0.372337
0.364329
0.356313
0.348505
0.340279
0.33217
0.324138
0.31609
0.30794
0.299821
0.291711
0.283635
0.275377
0.267211
0.258998
0.250779
0.242555
0.234327
0.226092
0.217848
0.209593
0.201322
0.193049
0.184771
0.176489
0.168203
0.159924
0.151672
0.14345
0.135091
0.126748
0.118455
0.110206
0.101988
0.0937777
0.0855683
0.0773539
0.0691153
0.0608484
0.0525611
0.0442664
0.0359818
0.0274292
0.0194097
0.0111428
0.0028645
-0.0056901
-0.0055791
0
0
0.47894
0.472519
0.465053
0.45314
0.440844
0.430597
0.421589
0.412988
0.404777
0.3967
0.38868
0.380678
0.372673
0.364651
0.35665
0.348686
0.340567
0.332441
0.324333
0.316219
0.308077
0.29993
0.291768
0.283558
0.275521
0.267287
0.259054
0.250822
0.242584
0.234347
0.226107
0.217861
0.209602
0.201305
0.193022
0.184738
0.176444
0.168138
0.159832
0.1516
0.143556
0.13501
0.126592
0.118295
0.110074
0.101912
0.0937423
0.0855683
0.0774024
0.0691834
0.0609077
0.0525966
0.0442751
0.0360101
0.0277048
0.0194093
0.0111352
0.00285643
-0.00557995
-0.00557995
0
0
0.479138
0.472965
0.46545
0.45353
0.440971
0.431084
0.422189
0.413086
0.405161
0.397159
0.389133
0.3811
0.373065
0.365691
0.356967
0.348895
0.34078
0.33265
0.324514
0.316371
0.308213
0.300044
0.291865
0.283674
0.275522
0.267316
0.259089
0.250858
0.242596
0.234366
0.226125
0.217884
0.209641
0.20127
0.192986
0.184705
0.176395
0.168049
0.159628
0.151255
0.143438
0.134578
0.126251
0.118018
0.10986
0.101836
0.0937105
0.0855702
0.0775237
0.069331
0.0610229
0.0526616
0.0442641
0.0360695
0.0277088
0.0193983
0.0111203
0.00284282
-0.0055889
-0.0055889
0
0
0.479237
0.473176
0.465741
0.453943
0.441802
0.431676
0.422741
0.414145
0.40591
0.397779
0.389681
0.381587
0.373488
0.365375
0.357273
0.349153
0.341015
0.332863
0.324703
0.316535
0.308357
0.300162
0.291964
0.283765
0.27557
0.267355
0.259126
0.25089
0.24264
0.23439
0.226141
0.217906
0.209753
0.201162
0.19296
0.184685
0.17636
0.16795
0.159305
0.149821
0.0560199
0.132297
0.125492
0.117556
0.109469
0.101872
0.0937034
0.0855031
0.0778509
0.0696445
0.0612311
0.0528063
0.0444494
0.0359385
0.0276522
0.0193651
0.0110937
0.00282154
-0.0056014
-0.0056014
0
0
0.479285
0.47334
0.466075
0.454461
0.442464
0.432417
0.423499
0.414997
0.406702
0.398492
0.390315
0.382139
0.373966
0.365793
0.357624
0.349451
0.341272
0.333088
0.3249
0.31671
0.308511
0.300276
0.292057
0.283847
0.275633
0.267403
0.259168
0.250924
0.24267
0.234411
0.226139
0.217838
0.209439
0.201469
0.193081
0.184732