# vtk DataFile Version 2.0
FlowField
ASCII
DATASET STRUCTURED_GRID
DIMENSIONS 62 47 32 
POINTS 93248 double
0 0 0
0.01 0 0
0.02 0 0
0.03 0 0
0.04 0 0
0.05 0 0
0.06 0 0
0.07 0 0
0.08 0 0
0.09 0 0
0.1 0 0
0.11 0 0
0.12 0 0
0.13 0 0
0.14 0 0
0.15 0 0
0.16 0 0
0.17 0 0
0.18 0 0
0.19 0 0
0.2 0 0
0.21 0 0
0.22 0 0
0.23 0 0
0.24 0 0
0.25 0 0
0.26 0 0
0.27 0 0
0.28 0 0
0.29 0 0
0.3 0 0
0.31 0 0
0.32 0 0
0.33 0 0
0.34 0 0
0.35 0 0
0.36 0 0
0.37 0 0
0.38 0 0
0.39 0 0
0.4 0 0
0.41 0 0
0.42 0 0
0.43 0 0
0.44 0 0
0.45 0 0
0.46 0 0
0.47 0 0
0.48 0 0
0.49 0 0
0.5 0 0
0.51 0 0
0.52 0 0
0.53 0 0
0.54 0 0
0.55 0 0
0.56 0 0
0.57 0 0
0.58 0 0
0.59 0 0
0.6 0 0
0.61 0 0
0 0.01 0
0.01 0.01 0
0.02 0.01 0
0.03 0.01 0
0.04 0.01 0
0.05 0.01 0
0.06 0.01 0
0.07 0.01 0
0.08 0.01 0
0.09 0.01 0
0.1 0.01 0
0.11 0.01 0
0.12 0.01 0
0.13 0.01 0
0.14 0.01 0
0.15 0.01 0
0.16 0.01 0
0.17 0.01 0
0.18 0.01 0
0.19 0.01 0
0.2 0.01 0
0.21 0.01 0
0.22 0.01 0
0.23 0.01 0
0.24 0.01 0
0.25 0.01 0
0.26 0.01 0
0.27 0.01 0
0.28 0.01 0
0.29 0.01 0
0.3 0.01 0
0.31 0.01 0
0.32 0.01 0
0.33 0.01 0
0.34 0.01 0
0.35 0.01 0
0.36 0.01 0
0.37 0.01 0
0.38 0.01 0
0.39 0.01 0
0.4 0.01 0
0.41 0.01 0
0.42 0.01 0
0.43 0.01 0
0.44 0.01 0
0.45 0.01 0
0.46 0.01 0
0.47 0.01 0
0.48 0.01 0
0.49 0.01 0
0.5 0.01 0
0.51 0.01 0
0.52 0.01 0
0.53 0.01 0
0.54 0.01 0
0.55 0.01 0
0.56 0.01 0
0.57 0.01 0
0.58 0.01 0
0.59 0.01 0
0.6 0.01 0
0.61 0.01 0
0 0.02 0
0.01 0.02 0
0.02 0.02 0
0.03 0.02 0
0.04 0.02 0
0.05 0.02 0
0.06 0.02 0
0.07 0.02 0
0.08 0.02 0
0.09 0.02 0
0.1 0.02 0
0.11 0.02 0
0.12 0.02 0
0.13 0.02 0
0.14 0.02 0
0.15 0.02 0
0.16 0.02 0
0.17 0.02 0
0.18 0.02 0
0.19 0.02 0
0.2 0.02 0
0.21 0.02 0
0.22 0.02 0
0.23 0.02 0
0.24 0.02 0
0.25 0.02 0
0.26 0.02 0
0.27 0.02 0
0.28 0.02 0
0.29 0.02 0
0.3 0.02 0
0.31 0.02 0
0.32 0.02 0
0.33 0.02 0
0.34 0.02 0
0.35 0.02 0
0.36 0.02 0
0.37 0.02 0
0.38 0.02 0
0.39 0.02 0
0.4 0.02 0
0.41 0.02 0
0.42 0.02 0
0.43 0.02 0
0.44 0.02 0
0.45 0.02 0
0.46 0.02 0
0.47 0.02 0
0.48 0.02 0
0.49 0.02 0
0.5 0.02 0
0.51 0.02 0
0.52 0.02 0
0.53 0.02 0
0.54 0.02 0
0.55 0.02 0
0.56 0.02 0
0.57 0.02 0
0.58 0.02 0
0.59 0.02 0
0.6 0.02 0
0.61 0.02 0
0 0.03 0
0.01 0.03 0
0.02 0.03 0
0.03 0.03 0
0.04 0.03 0
0.05 0.03 0
0.06 0.03 0
0.07 0.03 0
0.08 0.03 0
0.09 0.03 0
0.1 0.03 0
0.11 0.03 0
0.12 0.03 0
0.13 0.03 0
0.14 0.03 0
0.15 0.03 0
0.16 0.03 0
0.17 0.03 0
0.18 0.03 0
0.19 0.03 0
0.2 0.03 0
0.21 0.03 0
0.22 0.03 0
0.23 0.03 0
0.24 0.03 0
0.25 0.03 0
0.26 0.03 0
0.27 0.03 0
0.28 0.03 0
0.29 0.03 0
0.3 0.03 0
0.31 0.03 0
0.32 0.03 0
0.33 0.03 0
0.34 0.03 0
0.35 0.03 0
0.36 0.03 0
0.37 0.03 0
0.38 0.03 0
0.39 0.03 0
0.4 0.03 0
0.41 0.03 0
0.42 0.03 0
0.43 0.03 0
0.44 0.03 0
0.45 0.03 0
0.46 0.03 0
0.47 0.03 0
0.48 0.03 0
0.49 0.03 0
0.5 0.03 0
0.51 0.03 0
0.52 0.03 0
0.53 0.03 0
0.54 0.03 0
0.55 0.03 0
0.56 0.03 0
0.57 0.03 0
0.58 0.03 0
0.59 0.03 0
0.6 0.03 0
0.61 0.03 0
0 0.04 0
0.01 0.04 0
0.02 0.04 0
0.03 0.04 0
0.04 0.04 0
0.05 0.04 0
0.06 0.04 0
0.07 0.04 0
0.08 0.04 0
0.09 0.04 0
0.1 0.04 0
0.11 0.04 0
0.12 0.04 0
0.13 0.04 0
0.14 0.04 0
0.15 0.04 0
0.16 0.04 0
0.17 0.04 0
0.18 0.04 0
0.19 0.04 0
0.2 0.04 0
0.21 0.04 0
0.22 0.04 0
0.23 0.04 0
0.24 0.04 0
0.25 0.04 0
0.26 0.04 0
0.27 0.04 0
0.28 0.04 0
0.29 0.04 0
0.3 0.04 0
0.31 0.04 0
0.32 0.04 0
0.33 0.04 0
0.34 0.04 0
0.35 0.04 0
0.36 0.04 0
0.37 0.04 0
0.38 0.04 0
0.39 0.04 0
0.4 0.04 0
0.41 0.04 0
0.42 0.04 0
0.43 0.04 0
0.44 0.04 0
0.45 0.04 0
0.46 0.04 0
0.47 0.04 0
0.48 0.04 0
0.49 0.04 0
0.5 0.04 0
0.51 0.04 0
0.52 0.04 0
0.53 0.04 0
0.54 0.04 0
0.55 0.04 0
0.56 0.04 0
0.57 0.04 0
0.58 0.04 0
0.59 0.04 0
0.6 0.04 0
0.61 0.04 0
0 0.05 0
0.01 0.05 0
0.02 0.05 0
0.03 0.05 0
0.04 0.05 0
0.05 0.05 0
0.06 0.05 0
0.07 0.05 0
0.08 0.05 0
0.09 0.05 0
0.1 0.05 0
0.11 0.05 0
0.12 0.05 0
0.13 0.05 0
0.14 0.05 0
0.15 0.05 0
0.16 0.05 0
0.17 0.05 0
0.18 0.05 0
0.19 0.05 0
0.2 0.05 0
0.21 0.05 0
0.22 0.05 0
0.23 0.05 0
0.24 0.05 0
0.25 0.05 0
0.26 0.05 0
0.27 0.05 0
0.28 0.05 0
0.29 0.05 0
0.3 0.05 0
0.31 0.05 0
0.32 0.05 0
0.33 0.05 0
0.34 0.05 0
0.35 0.05 0
0.36 0.05 0
0.37 0.05 0
0.38 0.05 0
0.39 0.05 0
0.4 0.05 0
0.41 0.05 0
0.42 0.05 0
0.43 0.05 0
0.44 0.05 0
0.45 0.05 0
0.46 0.05 0
0.47 0.05 0
0.48 0.05 0
0.49 0.05 0
0.5 0.05 0
0.51 0.05 0
0.52 0.05 0
0.53 0.05 0
0.54 0.05 0
0.55 0.05 0
0.56 0.05 0
0.57 0.05 0
0.58 0.05 0
0.59 0.05 0
0.6 0.05 0
0.61 0.05 0
0 0.06 0
0.01 0.06 0
0.02 0.06 0
0.03 0.06 0
0.04 0.06 0
0.05 0.06 0
0.06 0.06 0
0.07 0.06 0
0.08 0.06 0
0.09 0.06 0
0.1 0.06 0
0.11 0.06 0
0.12 0.06 0
0.13 0.06 0
0.14 0.06 0
0.15 0.06 0
0.16 0.06 0
0.17 0.06 0
0.18 0.06 0
0.19 0.06 0
0.2 0.06 0
0.21 0.06 0
0.22 0.06 0
0.23 0.06 0
0.24 0.06 0
0.25 0.06 0
0.26 0.06 0
0.27 0.06 0
0.28 0.06 0
0.29 0.06 0
0.3 0.06 0
0.31 0.06 0
0.32 0.06 0
0.33 0.06 0
0.34 0.06 0
0.35 0.06 0
0.36 0.06 0
0.37 0.06 0
0.38 0.06 0
0.39 0.06 0
0.4 0.06 0
0.41 0.06 0
0.42 0.06 0
0.43 0.06 0
0.44 0.06 0
0.45 0.06 0
0.46 0.06 0
0.47 0.06 0
0.48 0.06 0
0.49 0.06 0
0.5 0.06 0
0.51 0.06 0
0.52 0.06 0
0.53 0.06 0
0.54 0.06 0
0.55 0.06 0
0.56 0.06 0
0.57 0.06 0
0.58 0.06 0
0.59 0.06 0
0.6 0.06 0
0.61 0.06 0
0 0.07 0
0.01 0.07 0
0.02 0.07 0
0.03 0.07 0
0.04 0.07 0
0.05 0.07 0
0.06 0.07 0
0.07 0.07 0
0.08 0.07 0
0.09 0.07 0
0.1 0.07 0
0.11 0.07 0
0.12 0.07 0
0.13 0.07 0
0.14 0.07 0
0.15 0.07 0
0.16 0.07 0
0.17 0.07 0
0.18 0.07 0
0.19 0.07 0
0.2 0.07 0
0.21 0.07 0
0.22 0.07 0
0.23 0.07 0
0.24 0.07 0
0.25 0.07 0
0.26 0.07 0
0.27 0.07 0
0.28 0.07 0
0.29 0.07 0
0.3 0.07 0
0.31 0.07 0
0.32 0.07 0
0.33 0.07 0
0.34 0.07 0
0.35 0.07 0
0.36 0.07 0
0.37 0.07 0
0.38 0.07 0
0.39 0.07 0
0.4 0.07 0
0.41 0.07 0
0.42 0.07 0
0.43 0.07 0
0.44 0.07 0
0.45 0.07 0
0.46 0.07 0
0.47 0.07 0
0.48 0.07 0
0.49 0.07 0
0.5 0.07 0
0.51 0.07 0
0.52 0.07 0
0.53 0.07 0
0.54 0.07 0
0.55 0.07 0
0.56 0.07 0
0.57 0.07 0
0.58 0.07 0
0.59 0.07 0
0.6 0.07 0
0.61 0.07 0
0 0.08 0
0.01 0.08 0
0.02 0.08 0
0.03 0.08 0
0.04 0.08 0
0.05 0.08 0
0.06 0.08 0
0.07 0.08 0
0.08 0.08 0
0.09 0.08 0
0.1 0.08 0
0.11 0.08 0
0.12 0.08 0
0.13 0.08 0
0.14 0.08 0
0.15 0.08 0
0.16 0.08 0
0.17 0.08 0
0.18 0.08 0
0.19 0.08 0
0.2 0.08 0
0.21 0.08 0
0.22 0.08 0
0.23 0.08 0
0.24 0.08 0
0.25 0.08 0
0.26 0.08 0
0.27 0.08 0
0.28 0.08 0
0.29 0.08 0
0.3 0.08 0
0.31 0.08 0
0.32 0.08 0
0.33 0.08 0
0.34 0.08 0
0.35 0.08 0
0.36 0.08 0
0.37 0.08 0
0.38 0.08 0
0.39 0.08 0
0.4 0.08 0
0.41 0.08 0
0.42 0.08 0
0.43 0.08 0
0.44 0.08 0
0.45 0.08 0
0.46 0.08 0
0.47 0.08 0
0.48 0.08 0
0.49 0.08 0
0.5 0.08 0
0.51 0.08 0
0.52 0.08 0
0.53 0.08 0
0.54 0.08 0
0.55 0.08 0
0.56 0.08 0
0.57 0.08 0
0.58 0.08 0
0.59 0.08 0
0.6 0.08 0
0.61 0.08 0
0 0.09 0
0.01 0.09 0
0.02 0.09 0
0.03 0.09 0
0.04 0.09 0
0.05 0.09 0
0.06 0.09 0
0.07 0.09 0
0.08 0.09 0
0.09 0.09 0
0.1 0.09 0
0.11 0.09 0
0.12 0.09 0
0.13 0.09 0
0.14 0.09 0
0.15 0.09 0
0.16 0.09 0
0.17 0.09 0
0.18 0.09 0
0.19 0.09 0
0.2 0.09 0
0.21 0.09 0
0.22 0.09 0
0.23 0.09 0
0.24 0.09 0
0.25 0.09 0
0.26 0.09 0
0.27 0.09 0
0.28 0.09 0
0.29 0.09 0
0.3 0.09 0
0.31 0.09 0
0.32 0.09 0
0.33 0.09 0
0.34 0.09 0
0.35 0.09 0
0.36 0.09 0
0.37 0.09 0
0.38 0.09 0
0.39 0.09 0
0.4 0.09 0
0.41 0.09 0
0.42 0.09 0
0.43 0.09 0
0.44 0.09 0
0.45 0.09 0
0.46 0.09 0
0.47 0.09 0
0.48 0.09 0
0.49 0.09 0
0.5 0.09 0
0.51 0.09 0
0.52 0.09 0
0.53 0.09 0
0.54 0.09 0
0.55 0.09 0
0.56 0.09 0
0.57 0.09 0
0.58 0.09 0
0.59 0.09 0
0.6 0.09 0
0.61 0.09 0
0 0.1 0
0.01 0.1 0
0.02 0.1 0
0.03 0.1 0
0.04 0.1 0
0.05 0.1 0
0.06 0.1 0
0.07 0.1 0
0.08 0.1 0
0.09 0.1 0
0.1 0.1 0
0.11 0.1 0
0.12 0.1 0
0.13 0.1 0
0.14 0.1 0
0.15 0.1 0
0.16 0.1 0
0.17 0.1 0
0.18 0.1 0
0.19 0.1 0
0.2 0.1 0
0.21 0.1 0
0.22 0.1 0
0.23 0.1 0
0.24 0.1 0
0.25 0.1 0
0.26 0.1 0
0.27 0.1 0
0.28 0.1 0
0.29 0.1 0
0.3 0.1 0
0.31 0.1 0
0.32 0.1 0
0.33 0.1 0
0.34 0.1 0
0.35 0.1 0
0.36 0.1 0
0.37 0.1 0
0.38 0.1 0
0.39 0.1 0
0.4 0.1 0
0.41 0.1 0
0.42 0.1 0
0.43 0.1 0
0.44 0.1 0
0.45 0.1 0
0.46 0.1 0
0.47 0.1 0
0.48 0.1 0
0.49 0.1 0
0.5 0.1 0
0.51 0.1 0
0.52 0.1 0
0.53 0.1 0
0.54 0.1 0
0.55 0.1 0
0.56 0.1 0
0.57 0.1 0
0.58 0.1 0
0.59 0.1 0
0.6 0.1 0
0.61 0.1 0
0 0.11 0
0.01 0.11 0
0.02 0.11 0
0.03 0.11 0
0.04 0.11 0
0.05 0.11 0
0.06 0.11 0
0.07 0.11 0
0.08 0.11 0
0.09 0.11 0
0.1 0.11 0
0.11 0.11 0
0.12 0.11 0
0.13 0.11 0
0.14 0.11 0
0.15 0.11 0
0.16 0.11 0
0.17 0.11 0
0.18 0.11 0
0.19 0.11 0
0.2 0.11 0
0.21 0.11 0
0.22 0.11 0
0.23 0.11 0
0.24 0.11 0
0.25 0.11 0
0.26 0.11 0
0.27 0.11 0
0.28 0.11 0
0.29 0.11 0
0.3 0.11 0
0.31 0.11 0
0.32 0.11 0
0.33 0.11 0
0.34 0.11 0
0.35 0.11 0
0.36 0.11 0
0.37 0.11 0
0.38 0.11 0
0.39 0.11 0
0.4 0.11 0
0.41 0.11 0
0.42 0.11 0
0.43 0.11 0
0.44 0.11 0
0.45 0.11 0
0.46 0.11 0
0.47 0.11 0
0.48 0.11 0
0.49 0.11 0
0.5 0.11 0
0.51 0.11 0
0.52 0.11 0
0.53 0.11 0
0.54 0.11 0
0.55 0.11 0
0.56 0.11 0
0.57 0.11 0
0.58 0.11 0
0.59 0.11 0
0.6 0.11 0
0.61 0.11 0
0 0.12 0
0.01 0.12 0
0.02 0.12 0
0.03 0.12 0
0.04 0.12 0
0.05 0.12 0
0.06 0.12 0
0.07 0.12 0
0.08 0.12 0
0.09 0.12 0
0.1 0.12 0
0.11 0.12 0
0.12 0.12 0
0.13 0.12 0
0.14 0.12 0
0.15 0.12 0
0.16 0.12 0
0.17 0.12 0
0.18 0.12 0
0.19 0.12 0
0.2 0.12 0
0.21 0.12 0
0.22 0.12 0
0.23 0.12 0
0.24 0.12 0
0.25 0.12 0
0.26 0.12 0
0.27 0.12 0
0.28 0.12 0
0.29 0.12 0
0.3 0.12 0
0.31 0.12 0
0.32 0.12 0
0.33 0.12 0
0.34 0.12 0
0.35 0.12 0
0.36 0.12 0
0.37 0.12 0
0.38 0.12 0
0.39 0.12 0
0.4 0.12 0
0.41 0.12 0
0.42 0.12 0
0.43 0.12 0
0.44 0.12 0
0.45 0.12 0
0.46 0.12 0
0.47 0.12 0
0.48 0.12 0
0.49 0.12 0
0.5 0.12 0
0.51 0.12 0
0.52 0.12 0
0.53 0.12 0
0.54 0.12 0
0.55 0.12 0
0.56 0.12 0
0.57 0.12 0
0.58 0.12 0
0.59 0.12 0
0.6 0.12 0
0.61 0.12 0
0 0.13 0
0.01 0.13 0
0.02 0.13 0
0.03 0.13 0
0.04 0.13 0
0.05 0.13 0
0.06 0.13 0
0.07 0.13 0
0.08 0.13 0
0.09 0.13 0
0.1 0.13 0
0.11 0.13 0
0.12 0.13 0
0.13 0.13 0
0.14 0.13 0
0.15 0.13 0
0.16 0.13 0
0.17 0.13 0
0.18 0.13 0
0.19 0.13 0
0.2 0.13 0
0.21 0.13 0
0.22 0.13 0
0.23 0.13 0
0.24 0.13 0
0.25 0.13 0
0.26 0.13 0
0.27 0.13 0
0.28 0.13 0
0.29 0.13 0
0.3 0.13 0
0.31 0.13 0
0.32 0.13 0
0.33 0.13 0
0.34 0.13 0
0.35 0.13 0
0.36 0.13 0
0.37 0.13 0
0.38 0.13 0
0.39 0.13 0
0.4 0.13 0
0.41 0.13 0
0.42 0.13 0
0.43 0.13 0
0.44 0.13 0
0.45 0.13 0
0.46 0.13 0
0.47 0.13 0
0.48 0.13 0
[...]
POINT_DATA 93248

SCALARS u double
LOOKUP_TABLE default
0
0
0
0
0
0
0
0
0
0
0
0
0
0
0
0
0
0
0
0
0
0
0
0
0.290402
0
0
0
0
0
0
0
0.0245175
0.219561
0
0
0
0
0
0
0
0
0
0
0
0
0
0.0661523
0
0
0.0643622
0
0
0
0
0
0
0
0
0
0
0
0
0.412103
0.329388
0.250388
0.185448
0.137393
0.102293
0.0776176
0.0609177
0.0495428
0.0418121
0.0373088
0.0373825
0.0373771
0.0374208
0.0374234
0.0375484
0.0370051
0.0358325
0.0331284
0.0378511
0.0382493
0.0347122
0.033522
0.0325607
0.0315894
0.030608
0.0296071
0.0285558
0.0274017
0.026082
0.0247547
0.0247806
0.023467
0.0213564
0.0196576
0.0197628
0.0172325
0.0143209
0.158365
0.00837734
0.0114284
0.0126202
0.0147025
0.0201485
-0.00756699
0.00332662
0.00365197
0.00346441
0.00183019
0.000146541
0.0179947
-0.000650895
0.00499297
-0.0216375
-0.0175396
-0.0043771
-0.0154488
-0.019711
-0.0272424
-0.0272424
0
0
0.486437
0.465824
0.435691
0.397311
0.360012
0.318382
0.279274
0.245322
0.218376
0.198083
0.18347
0.177076
0.170973
0.166565
0.162979
0.160313
0.157073
0.155591
0.330908
0.154205
0.149995
0.137192
0.134662
0.130968
0.127051
0.123078
0.119064
0.114987
0.110808
0.106431
0.101724
0.099279
0.0947939
0.0899236
0.0859677
0.0796179
0.0734797
-0.0135432
0.065446
0.0617155
0.0576963
0.0554038
0.0538682
0.0507439
0.0366189
0.0295983
0.0274536
0.0239765
0.0203291
0.0173051
0.0107685
0.0078018
0.00290557
-0.0132475
-0.0184977
-0.0253844
-0.028756
-0.036892
-0.0461849
-0.0461849
0
0
0.480485
0.475986
0.470835
0.454996
0.450512
0.423439
0.397509
0.372742
0.349817
0.357648
0.313731
0.295858
0.284127
0.274986
0.267968
0.262045
0.254677
0.249031
0.242262
0.234549
0.229905
0.222215
0.21622
0.21025
0.204125
0.197878
0.191545
0.185155
0.17876
0.172523
0.166734
0.158705
0.15272
0.211104
0.141009
0.132821
0.126412
0.122427
0.115683
0.108006
0.100513
0.130565
0.0875996
0.0802714
0.123957
0.059567
0.0513264
0.0239765
0.0383545
0.0325528
0.0252459
0.0179947
0.00909543
-0.00275903
-0.0118853
-0.0207271
-0.032009
-0.0406806
-0.0495936
-0.0495936
0
0
0.473376
0.464009
0.46767
0.461639
0.458102
0.448547
0.436529
0.423276
0.409424
0.395018
0.381135
0.366228
0.3529
0.341071
0.331007
0.321088
0.314192
0.306059
0.328745
0.288307
0.280088
0.272022
0.26444
0.256993
0.249506
0.241926
0.234263
0.226542
0.218796
0.21106
0.203224
0.194507
0.186634
0.178339
0.171151
0.163672
0.156676
0.150934
0.142914
0.134005
0.124582
0.114924
0.106203
0.0969149
0.0863338
0.0757964
0.0670755
0.0592498
0.0510345
0.0428366
0.0341788
0.0250788
0.0151025
0.00434802
-0.00605944
-0.0164584
-0.0275969
-0.0376305
-0.0474572
-0.0474572
0
0
0.470783
0.458818
0.45363
0.449226
0.446144
0.441698
0.436117
0.429604
0.421906
0.413059
0.403288
0.3924
0.381085
0.369731
0.360503
0.349851
0.340679
0.331538
0.321685
0.312425
0.303631
0.295134
0.286869
0.27871
0.27056
0.262347
0.254073
0.245744
0.237352
0.228842
0.220047
0.210824
0.20304
0.194417
0.186139
0.1781
0.170336
0.162743
0.154213
0.14495
0.135141
0.125015
0.115135
0.105243
0.0955938
0.0915843
0.0751579
0.0663773
0.0573056
0.0480961
0.0386871
0.0289881
0.0188761
0.0084995
-0.00188249
-0.0121556
-0.0221907
-0.031575
-0.041691
-0.041691
0
0
0.469623
0.454754
0.444678
0.437401
0.432106
0.427306
0.422999
0.41893
0.413957
0.408271
0.401785
0.394357
0.385858
0.376553
0.367507
0.358734
0.348888
0.340353
0.330335
0.321036
0.312208
0.303636
0.295202
0.286826
0.278466
0.270026
0.261546
0.253026
0.244435
0.235699
0.226633
0.216854
0.209963
0.200899
0.191994
0.183456
0.175084
0.166623
0.15773
0.148374
0.13862
0.128564
0.118352
0.107803
0.096854
0.0893691
0.0795459
0.0697735
0.0601055
0.0504714
0.040816
0.0310577
0.0210801
0.0110392
0.00111334
-0.0084729
-0.0170967
-0.0227952
-0.0235121
-0.0235121
0
0
0.468999
0.452296
0.439325
0.429279
0.421673
0.45415
0.411122
0.405617
0.401018
0.396674
0.392206
0.387418
0.381212
0.373759
0.365547
0.358003
0.348657
0.339765
0.330908
0.322354
0.314034
0.305756
0.29745
0.28911
0.280762
0.272283
0.263821
0.255338
0.246805
0.238218
0.229764
0.221947
0.210548
0.201717
0.193254
0.184768
0.176192
0.16742
0.158365
0.149011
0.139394
0.131438
0.119451
0.109179
0.0990711
0.0902787
0.0808077
0.0710645
0.0612856
0.051548
0.041892
0.032293
0.0224838
0.0127638
0.00326978
-0.00608145
-0.0158177
-0.0267144
-0.0129718
-0.0129718
0
0
0.468619
0.450769
0.436014
0.423894
0.413954
0.405507
0.399129
0.393671
0.389199
0.385393
0.381856
0.379641
0.374679
0.368137
0.359246
0.160313
0.342222
0.335623
0.328745
0.321259
0.31368
0.305744
0.297592
0.289284
0.27056
0.272493
0.264258
0.255945
0.247565
0.239069
0.2305
0.22185
0.211903
0.202655
0.193819
0.185094
0.176317
0.167388
0.15826
0.148924
0.139389
0.129662
0.11983
0.109934
0.100173
0.0907727
0.0812548
0.0715755
0.061814
0.0520549
0.0424231
0.0331076
0.0233856
0.0139798
0.0049764
-0.00362825
-0.0120285
-0.0223473
-0.0239921
-0.0239921
0
0
0.46837
0.449775
0.433866
0.420353
0.408907
0.399211
0.39145
0.38529
0.380502
0.376523
0.371913
0.375665
0.369426
0.363674
0.357442
0.352628
0.345294
0.337191
0.32914
0.321049
0.31347
0.3054
0.297201
0.288964
0.280962
0.272625
0.264333
0.256114
0.247923
0.239546
0.230677
0.221632
0.212324
0.203164
0.194181
0.185263
0.176324
0.167289
0.15812
0.148806
0.139351
0.12977
0.120107
0.110411
0.100761
0.0911897
0.0815926
0.0719116
0.0621357
0.0522747
0.0423706
0.0335061
0.0237724
0.0147545
0.00608096
-0.00240417
-0.0109619
-0.0201521
-0.0281074
-0.0281074
0
0
0.468203
0.449108
0.432423
0.418
0.40559
0.395065
0.386462
0.379713
0.374639
0.37082
0.367754
0.367024
0.363738
0.359494
0.354448
0.349544
0.343237
0.336007
0.328451
0.320918
0.312546
0.304514
0.296428
0.288153
0.280634
0.272257
0.264069
0.256056
0.248266
0.254775
0.230865
0.221532
0.212441
0.203423
0.194436
0.186978
0.1764
0.167292
0.158098
0.148805
0.139415
0.129939
0.120383
0.110786
0.101184
0.0915843
0.0819642
0.0722865
0.0625093
0.0525769
0.0422821
-0.001743
0.0236568
0.0154105
0.00693861
-0.00158793
-0.0102623
-0.0193209
-0.0287991
-0.0287991
0
0
0.46809
0.448659
0.431435
0.416422
0.403357
0.392229
0.383085
0.375929
0.370629
0.366837
0.364074
0.362006
0.359295
0.355933
0.351015
0.345925
0.340151
0.333673
0.326702
0.316378
0.311564
0.303702
0.295703
0.287599
0.27966
0.271527
0.263499
0.255677
0.24803
0.240462
0.229955
0.221331
0.21262
0.203701
0.19468
0.185616
0.178669
0.167404
0.158195
0.14892
0.139576
0.130189
0.120694
0.111143
0.10157
0.0919895
0.0824004
0.0727857
0.063135
0.0536021
0.0443963
0.0358392
0.0261246
0.0168844
0.00797905
-0.000778567
-0.00959431
-0.0187233
-0.0284966
-0.0284966
0
0
0.468018
0.448381
0.430898
0.415304
0.401764
0.390225
0.380715
0.373266
0.367759
0.363865
0.360998
0.358533
0.355868
0.353081
0.347624
0.342832
0.337468
0.331415
0.324943
0.318063
0.31065
0.302919
0.294967
0.286864
0.278708
0.270539
0.262582
0.254945
0.247324
0.238093
0.231785
0.222833
0.213534
0.204253
0.195014
0.185817
0.176652
0.167536
0.158372
0.149113
0.139778
0.130565
0.12107
0.111522
0.101964
0.0924152
0.0828911
0.0733773
0.0638146
0.054534
0.0455807
0.0368022
0.027435
0.0181018
0.00899828
6.61474e-05
-0.00888837
-0.0181041
-0.0279667
-0.0279667
0
0
0.467967
0.448177
0.430429
0.41451
0.400663
0.388819
0.379034
0.371352
0.365646
0.361604
0.358546
0.355805
0.352717
0.348488
0.345895
0.341213
0.335669
0.329575
0.323443
0.316822
0.30964
0.302032
0.294108
0.285937
0.277579
0.269163
0.261077
0.253764
0.248359
0.240152
0.232107
0.223219
0.213954
0.204587
0.195236
0.18596
0.176759
0.167712
0.158629
0.149366
0.139777
0.131323
0.121544
0.111933
0.102366
0.0928402
0.0833855
0.0739936
0.0643563
0.0552036
0.0462572
0.0373009
0.0281178
0.0189278
0.0098563
0.000898891
-0.00817985
-0.0174456
-0.0273716
-0.0273716
0
0
0.467933
0.448042
0.430197
0.413797
0.399852
0.387813
0.377829
0.369969
0.364133
0.359863
0.356634
0.353745
0.350616
0.346935
0.343445
0.33901
0.333682
0.327563
0.32217
0.315763
0.308652
0.301079
0.293149
0.284871
0.276207
0.267126
0.257923
0.24935
0.253062
0.243926
0.233902
0.224106
0.214432
0.20483
0.195321
0.186003
0.176675
0.167887
0.159035
0.149898
0.140547
0.131438
0.121919
0.112337
0.102755
0.0932155
0.0837772
0.0745257
0.0647363
0.0557739
0.0468411
0.0378263
0.0285843
0.0195272
0.0105768
0.00180969
-0.00758655
-0.016731
-0.0266887
-0.0266887
0
0
0.467909
0.447903
0.429839
0.413575
0.399352
0.387122
0.376969
0.368957
0.362967
0.358582
0.355214
0.352218
0.349096
0.345603
0.341775
0.337325
0.332096
0.325686
0.321376
0.314756
0.307544
0.300018
0.292137
0.283814
0.274825
0.264531
0.250778
0.227147
0.276864
0.251229
0.236716
0.225328
0.21494
0.204938
0.195153
0.18562
0.176454
0.168004
0.159699
0.150754
0.141405
0.131955
0.122386
0.11277
0.103131
0.093506
0.0838669
0.074214
0.0656281
0.056575
0.0475402
0.038665
0.0287842
0.0200099
0.0111068
0.00236303
-0.00662069
-0.0157729
-0.0257506
-0.0257506
0
0
0.467922
0.447799
0.42963
0.413364
0.399038
0.386666
0.376372
0.368234
0.362129
0.357648
0.354158
0.351066
0.347917
0.344459
0.340582
0.336228
0.331536
0.32712
0.31913
0.312657
0.305995
0.298853
0.291229
0.28308
0.274276
0.264535
0.253656
0.24411
0.254408
0.246396
0.235742
0.225086
0.214722
0.204574
0.194541
0.184687
0.175368
0.167475
0.16107
0.152331
0.142689
0.132873
0.123069
0.113309
0.103548
0.0938577
0.0842005
0.074644
0.0656373
0.0569951
0.0480228
0.0389243
0.0296015
0.0207035
0.0114034
0.00291959
-0.00563162
-0.014423
-0.0241959
-0.0241959
0
0
0.468005
0.447722
0.429522
0.413276
0.398916
0.386369
0.375946
0.367721
0.361554
0.35702
0.353387
0.350172
0.346974
0.343529
0.339662
0.335328
0.33059
0.325473
0.318848
0.312204
0.305404
0.298289
0.290787
0.282867
0.274515
0.265803
0.257136
0.250326
0.247881
0.241612
0.233045
0.22354
0.21369
0.203684
0.193429
0.182907
0.172278
0.163404
0.165712
0.155879
0.144876
0.134232
0.123957
0.113943
0.104009
0.0942632
0.0845793
0.0749372
0.0655403
0.0574562
0.048392
0.0392199
0.0303092
0.022273
0.010605
0.00322764
-0.0046188
-0.0124522
-0.021134
-0.021134
0
0
0.467731
0.447857
0.429658
0.413392
0.399099
0.380715
0.375522
0.36732
0.361179
0.356698
0.352813
0.349436
0.346198
0.342807
0.338961
0.334582
0.329708
0.324381
0.318349
0.311912
0.305161
0.298093
0.290702
0.283004
0.275074
0.267129
0.271619
0.252169
0.24653
0.239416
0.231077
0.222005
0.212495
0.202642
0.192173
0.180624
0.165917
0.14004
0.189264
0.163057
0.147735
0.135671
0.124783
0.114434
0.104516
0.0947108
0.0850277
0.0753443
0.0654978
0.0579326
0.0484347
0.0392073
0.0303182
0.0215555
0.0116778
-0.0102623
-0.00383059
-0.0101172
-0.0143912
0
0
0
0.467814
0.447169
0.429481
0.413392
0.399246
0.386107
0.375398
0.367088
0.360994
0.356761
0.352273
0.348765
0.345549
0.342316
0.33848
0.33401
0.328994
0.323733
0.317944
0.31168
0.305033
0.298056
0.29078
0.283251
0.275557
0.267858
0.260179
0.252198
0.246366
0.238374
0.229757
0.220812
0.211501
0.196574
0.191632
0.180759
0.168833
0.158091
0.16782
0.148806
0.146985
0.135774
0.125036
0.114722
0.10477
0.0950428
0.085563
0.0764538
0.0677603
0.0562731
0.0474395
0.0387516
0.0300445
0.0213335
0.0125949
0.00449344
-0.00364196
-0.0116557
-0.020589
-0.020589
0
0
0.467847
0.447716
0.429276
0.413393
0.399511
0.3857
0.375111
0.366903
0.360847
0.357085
0.351567
0.348322
0.345148
0.342139
0.338241
0.333623
0.3284
0.323453
0.317779
0.31158
0.305
0.298107
0.290923
0.283488
0.275878
0.268301
0.26181
0.255011
0.245068
0.236815
0.228534
0.219943
0.211104
0.202035
0.192414
0.182514
0.172867
0.165092
0.161521
0.15436
0.144915
0.134805
0.124608
0.114588
0.10478
0.0951507
0.0857237
0.0764916
0.0671995
0.0569197
0.0475504
0.0386139
0.0298542
0.0211987
0.0126065
0.00416363
-0.00448193
-0.0135718
-0.0236773
-0.0236773
0
0
0.467868
0.447794
0.429736
0.412721
0.397349
0.386021
0.37558
0.36702
0.360318
0.354431
0.352808
0.349422
0.34532
0.340828
0.33833
0.333644
0.328133
0.32368
0.317839
0.311578
0.305051
0.298244
0.291124
0.283707
0.275934
0.26736
0.263991
0.254991
0.245706
0.236903
0.228271
0.219651
0.211072
0.202432
0.193386
0.184222
0.175371
0.167377
0.160088
0.15209
0.143178
0.133711
0.123864
0.114174
0.104578
0.0950412
0.0856213
0.0762772
0.0668577
0.057183
0.0477017
0.0385531
0.0296648
0.0209667
0.0122328
0.0035295
-0.00541768
-0.0149116
-0.0251629
-0.0251629
0
0
0.467866
0.447764
0.429521
0.412792
0.397888
0.385692
0.375316
0.366878
0.360341
0.355505
0.352618
0.34957
0.367587
0.344214
0.339708
0.334754
0.330045
0.323351
0.317509
0.311513
0.305189
0.298529
0.291454
0.284084
0.276476
0.268735
0.26243
0.254469
0.245818
0.23703
0.228213
0.219467
0.211095
0.203236
0.194516
0.185656
0.176835
0.168289
0.159837
0.151196
0.14226
0.133194
0.122892
0.113619
0.104221
0.0947643
0.0853913
0.0760585
0.0667027
0.0571969
0.0476034
0.0383331
0.0293173
0.020545
0.0117091
0.00295198
-0.00612109
-0.015856
-0.0260944
-0.0260944
0
0
0.467863
0.447744
0.429461
0.412935
0.398305
0.38581
0.37526
0.366826
0.360404
0.356696
0.353414
0.350672
0.34887
0.342958
0.338908
0.33462
0.329779
0.324005
0.318113
0.312044
0.305736
0.299147
0.291962
0.284587
0.277116
0.269606
0.262208
0.254222
0.245772
0.237004
0.227973
0.218781
0.210077
0.20517
0.195996
0.187208
0.177977
0.168894
0.159904
0.150883
0.141748
0.13243
0.12268
0.113158
0.0953775
0.0943317
0.0850818
0.0758237
0.0665915
0.0571081
0.0429144
0.0379089
0.0287488
0.00346432
0.0110934
0.00256489
-0.00650537
-0.0166519
-0.0268558
-0.0268558
0
0
0.467866
0.447755
0.429503
0.413106
0.398644
0.386166
0.375254
0.366773
0.35969
0.359523
0.354574
0.351317
0.348422
0.344098
0.339841
0.335343
0.329988
0.324567
0.31882
0.312776
0.306507
0.300069
0.292508
0.285133
0.277752
0.270245
0.26254
0.253026
0.245896
0.237045
0.22762
0.217076
0.202614
0.213495
0.197713
0.189878
0.179096
0.169407
0.160052
0.150796
0.141492
0.131989
0.122414
0.112946
0.103592
0.0941551
0.0847941
0.0755095
0.0663997
0.0571159
0.0465358
0.0376934
0.0289084
0.0202698
0.0112783
0.00252948
-0.00646972
-0.0174557
-0.0274661
-0.0274661
0
0
0.467872
0.447781
0.429577
0.413289
0.399042
0.387189
0.374707
0.367064
0.360866
0.357728
0.354415
0.351407
0.348365
0.344755
0.340855
0.336968
0.329842
0.325139
0.31957
0.31355
0.307276
0.301075
0.292957
0.285828
0.278576
0.270999
0.263159
0.254786
0.246308
0.23749
0.22798
0.218263
0.208628
0.206525
0.197461
0.188747
0.179104
0.169512
0.160083
0.150759
0.141404
0.131674
0.12209
0.112653
0.103276
0.0938671
0.0844462
0.0749806
0.0551634
0.057029
0.0458297
0.0377231
0.0288579
0.0199485
0.0109465
0.00217108
-0.00632624
-0.0180481
-0.0274757
-0.0274757
0
0
0.467877
0.447801
0.429631
0.413401
0.399191
0.387076
0.376372
0.368004
0.361837
0.357736
0.354561
0.351746
0.348808
0.345456
0.341668
0.337422
0.331764
0.326341
0.320564
0.314371
0.307707
0.300218
0.294617
0.287404
0.279813
0.271887
0.263652
0.255535
0.247098
0.238713
0.228349
0.219821
0.211521
0.204614
0.196423
0.187723
0.178561
0.16924
0.159918
0.150671
0.141435
0.131298
0.121758
0.112396
0.103033
0.0936303
0.0841945
0.0747179
0.0651426
0.0550266
0.0485754
0.0381999
0.0287622
0.0195274
0.0102206
0.000644383
-0.00919208
-0.0153207
-0.025956
-0.025956
0
0
0.467876
0.447796
0.429639
0.413453
0.399304
0.387292
0.37752
0.368651
0.362454
0.358275
0.355221
0.352536
0.349706
0.34644
0.342684
0.338411
0.333299
0.327707
0.321724
0.315391
0.308791
0.301603
0.292137
0.288001
0.280591
0.272567
0.264303
0.256024
0.247601
0.239025
0.2298
0.221115
0.212706
0.204484
0.19598
0.187177
0.178117
0.1689
0.159624
0.150406
0.141415
0.130858
0.12161
0.112322
0.102925
0.0934841
0.0840279
0.0745592
0.0650751
0.0556992
0.0475001
0.0380477
0.0286026
0.0192635
0.00995495
0.000640099
-0.00850649
-0.0164327
-0.0262987
-0.0262987
0
0
0.467859
0.44774
0.429569
0.413431
0.399357
0.387503
0.378488
0.36884
0.363144
0.359324
0.356417
0.353819
0.35102
0.347742
0.34396
0.339857
0.334747
0.32896
0.322811
0.316378
0.309849
0.302978
0.296017
0.288672
0.28114
0.272905
0.264708
0.256467
0.248088
0.239527
0.230759
0.222055
0.213414
0.204745
0.195947
0.186984
0.177865
0.168613
0.159233
0.149639
0.139695
0.131765
0.122196
0.112517
0.10292
0.0933912
0.0839117
0.0744723
0.0650892
0.0558496
0.0468677
0.0376405
0.0283409
0.0190887
0.00994358
0.00103604
-0.00852994
-0.0172008
-0.0269469
-0.0269469
0
0
0.46781
0.447576
0.429383
0.413331
0.399271
0.387073
0.376068
0.37068
0.36531
0.360866
0.358164
0.355481
0.352648
0.349287
0.345188
0.341393
0.335884
0.329831
0.323642
0.31719
0.310952
0.304192
0.29701
0.289208
0.24388
0.272762
0.265115
0.257092
0.248775
0.240241
0.231557
0.222803
0.213995
0.205098
0.196094
0.186978
0.177758
0.168443
0.159032
0.149524
0.140034
0.13121
0.121883
0.112335
0.102766
0.0932407
0.083774
0.0743633
0.0650105
0.0557353
0.0465236
0.0372965
0.028072
0.0189053
0.00982729
0.000818178
-0.0084122
-0.0175439
-0.027373
-0.027373
0
0
0.467714
0.447169
0.433881
0.413287
0.399372
0.387458
0.377589
0.371048
0.366111
0.362456
0.359646
0.357124
0.354433
0.351513
0.345444
0.341909
0.335696
0.331538
0.324287
0.318047
0.312238
0.305476
0.29829
0.290901
0.283499
0.275141
0.266759
0.258331
0.249799
0.241144
0.23238
0.223522
0.214568
0.205496
0.19632
0.187061
0.177736
0.168356
0.158941
0.149527
0.140169
0.130893
0.12148
0.111981
0.102477
0.0930044
0.0835824
0.0742076
0.0648613
0.0555498
0.0462697
0.0370186
0.0278157
0.0186959
0.00963491
0.000578208
-0.00853318
-0.0177792
-0.0269469
-0.0276238
0
0
0.467699
0.445995
0.428267
0.41287
0.399472
0.388093
0.378915
0.372169
0.367331
0.363915
0.361337
0.358961
0.356231
0.352595
0.346261
0.157073
0.333284
0.330049
0.325606
0.320505
0.313501
0.306664
0.299631
0.292396
0.284455
0.27628
0.267942
0.259458
0.250832
0.24208
0.233219
0.224255
0.215173
0.205925
0.196574
0.187175
0.177742
0.168283
0.158832
0.149439
0.140096
0.130592
0.121028
0.111519
0.102086
0.0926874
0.0833395
0.0740256
0.0646877
0.0553556
0.0460482
0.0367725
0.0275645
0.018481
0.00942194
0.000332098
-0.00881733
-0.0227952
-0.0279865
-0.0279865
0
0
0.469507
0.443096
0.427599
0.412957
0.400021
0.389073
0.380331
0.373837
0.369169
0.365945
0.363557
0.361334
0.358727
0.355415
0.351383
0.348935
0.342596
0.336188
0.329822
0.323338
0.316181
0.308871
0.301452
0.294067
0.285479
0.277373
0.269084
0.260557
0.251856
0.243013
0.234062
0.225015
0.215832
0.206364
0.19682
0.187282
0.177739
0.168169
0.158603
0.149153
0.139821
0.130041
0.120314
0.110844
0.101561
0.0922771
0.0830566
0.0738634
0.0645388
0.0551954
0.0458737
0.0365637
0.02732
0.0182827
0.00523182
0.000107958
-0.00892803
-0.018182
-0.0308907
-0.0281834
0
0
0.467961
0.446364
0.428998
0.41403
0.40122
0.390481
0.382033
0.376153
0.371678
0.368637
0.366429
0.364352
0.361877
0.358827
0.355134
0.35137
0.345974
0.339742
0.333083
0.326103
0.318751
0.311099
0.303143
0.294706
0.287406
0.279087
0.270482
0.261736
0.2529
0.243944
0.234903
0.225806
0.216583
0.206767
0.197018
0.18738
0.177742
0.168018
0.158136
0.148471
0.139156
0.128872
0.119057
0.109808
0.100859
0.0917514
0.0827512
0.0738042
0.064499
0.0551634
0.0458396
0.0364728
0.0271329
0.0183027
0.00916053
-2.23564e-05
-0.0091154
-0.0183517
-0.0281459
-0.0281459
0
0
0.46791
0.447802
0.430414
0.415461
0.398916
0.392154
0.383372
0.379681
0.37492
0.372008
0.369976
0.368017
0.365519
0.344459
0.358404
0.354068
0.348705
0.34254
0.335818
0.328679
0.321192
0.313302
0.305112
0.296739
0.288661
0.280266
0.271619
0.262789
0.253921
0.244824
0.235696
0.226582
0.217465
0.207008
0.197183
0.187544
0.177852
0.168081
0.157231
0.147011
0.137298
0.126479
0.11708
0.108327
0.0999517
0.0911228
0.0824597
0.0739645
0.064766
0.0555071
0.0461703
0.0366928
0.0270919
0.0182651
0.00886234
-0.000350268
-0.00943987
-0.018663
-0.0284259
-0.0284259
0
0
0.468066
0.448571
0.431581
0.417036
0.404857
0.394832
0.386995
0.382208
0.378456
0.375975
0.374231
0.372424
0.370063
0.367022
0.362823
0.357792
0.351987
0.345543
0.338602
0.331283
0.323669
0.315479
0.30705
0.298559
0.290084
0.281481
0.272723
0.263806
0.254775
0.245612
0.236358
0.227137
0.218236
0.207083
0.197566
0.187985
0.17811
0.167898
0.156873
0.144806
0.0114284
0.122775
0.114883
0.106382
0.0984927
0.0906928
0.0822475
0.0741971
0.065966
0.0568457
0.0472453
0.0375525
0.0279687
0.0174915
0.00821851
-0.000865649
-0.00989784
-0.0190742
-0.0287856
-0.0287856
0
0
0.468219
0.449146
0.43267
0.418729
0.407217
0.397985
0.39097
0.38613
0.382862
0.380783
0.379344
0.377582
0.37513
0.371748