# vtk DataFile Version 2.0
FlowField
ASCII
DATASET STRUCTURED_GRID
DIMENSIONS 102 1 12 
POINTS 1224 double
0 0 0
0.3 0 0
0.6 0 0
0.9 0 0
1.2 0 0
1.5 0 0
1.8 0 0
2.1 0 0
2.4 0 0
2.7 0 0
3 0 0
3.3 0 0
3.6 0 0
3.9 0 0
4.2 0 0
4.5 0 0
4.8 0 0
5.1 0 0
5.4 0 0
5.7 0 0
6 0 0
6.3 0 0
6.6 0 0
6.9 0 0
7.2 0 0
7.5 0 0
7.8 0 0
8.1 0 0
8.4 0 0
8.7 0 0
9 0 0
9.3 0 0
9.6 0 0
9.9 0 0
10.2 0 0
10.5 0 0
10.8 0 0
11.1 0 0
11.4 0 0
11.7 0 0
12 0 0
12.3 0 0
12.6 0 0
12.9 0 0
13.2 0 0
13.5 0 0
13.8 0 0
14.1 0 0
14.4 0 0
14.7 0 0
15 0 0
15.3 0 0
15.6 0 0
15.9 0 0
16.2 0 0
16.5 0 0
16.8 0 0
17.1 0 0
17.4 0 0
17.7 0 0
18 0 0
18.3 0 0
18.6 0 0
18.9 0 0
19.2 0 0
19.5 0 0
19.8 0 0
20.1 0 0
20.4 0 0
20.7 0 0
21 0 0
21.3 0 0
21.6 0 0
21.9 0 0
22.2 0 0
22.5 0 0
22.8 0 0
23.1 0 0
23.4 0 0
23.7 0 0
24 0 0
24.3 0 0
24.6 0 0
24.9 0 0
25.2 0 0
25.5 0 0
25.8 0 0
26.1 0 0
26.4 0 0
26.7 0 0
27 0 0
27.3 0 0
27.6 0 0
27.9 0 0
28.2 0 0
28.5 0 0
28.8 0 0
29.1 0 0
29.4 0 0
29.7 0 0
30 0 0
30.3 0 0
0 0.1 0
0.3 0.1 0
0.6 0.1 0
0.9 0.1 0
1.2 0.1 0
1.5 0.1 0
1.8 0.1 0
2.1 0.1 0
2.4 0.1 0
2.7 0.1 0
3 0.1 0
3.3 0.1 0
3.6 0.1 0
3.9 0.1 0
4.2 0.1 0
4.5 0.1 0
4.8 0.1 0
5.1 0.1 0
5.4 0.1 0
5.7 0.1 0
6 0.1 0
6.3 0.1 0
6.6 0.1 0
6.9 0.1 0
7.2 0.1 0
7.5 0.1 0
7.8 0.1 0
8.1 0.1 0
8.4 0.1 0
8.7 0.1 0
9 0.1 0
9.3 0.1 0
9.6 0.1 0
9.9 0.1 0
10.2 0.1 0
10.5 0.1 0
10.8 0.1 0
11.1 0.1 0
11.4 0.1 0
11.7 0.1 0
12 0.1 0
12.3 0.1 0
12.6 0.1 0
12.9 0.1 0
13.2 0.1 0
13.5 0.1 0
13.8 0.1 0
14.1 0.1 0
14.4 0.1 0
14.7 0.1 0
15 0.1 0
15.3 0.1 0
15.6 0.1 0
15.9 0.1 0
16.2 0.1 0
16.5 0.1 0
16.8 0.1 0
17.1 0.1 0
17.4 0.1 0
17.7 0.1 0
18 0.1 0
18.3 0.1 0
18.6 0.1 0
18.9 0.1 0
19.2 0.1 0
19.5 0.1 0
19.8 0.1 0
20.1 0.1 0
20.4 0.1 0
20.7 0.1 0
21 0.1 0
21.3 0.1 0
21.6 0.1 0
21.9 0.1 0
22.2 0.1 0
22.5 0.1 0
22.8 0.1 0
23.1 0.1 0
23.4 0.1 0
23.7 0.1 0
24 0.1 0
24.3 0.1 0
24.6 0.1 0
24.9 0.1 0
25.2 0.1 0
25.5 0.1 0
25.8 0.1 0
26.1 0.1 0
26.4 0.1 0
26.7 0.1 0
27 0.1 0
27.3 0.1 0
27.6 0.1 0
27.9 0.1 0
28.2 0.1 0
28.5 0.1 0
28.8 0.1 0
29.1 0.1 0
29.4 0.1 0
29.7 0.1 0
30 0.1 0
30.3 0.1 0
0 0.2 0
0.3 0.2 0
0.6 0.2 0
0.9 0.2 0
1.2 0.2 0
1.5 0.2 0
1.8 0.2 0
2.1 0.2 0
2.4 0.2 0
2.7 0.2 0
3 0.2 0
3.3 0.2 0
3.6 0.2 0
3.9 0.2 0
4.2 0.2 0
4.5 0.2 0
4.8 0.2 0
5.1 0.2 0
5.4 0.2 0
5.7 0.2 0
6 0.2 0
6.3 0.2 0
6.6 0.2 0
6.9 0.2 0
7.2 0.2 0
7.5 0.2 0
7.8 0.2 0
8.1 0.2 0
8.4 0.2 0
8.7 0.2 0
9 0.2 0
9.3 0.2 0
9.6 0.2 0
9.9 0.2 0
10.2 0.2 0
10.5 0.2 0
10.8 0.2 0
11.1 0.2 0
11.4 0.2 0
11.7 0.2 0
12 0.2 0
12.3 0.2 0
12.6 0.2 0
12.9 0.2 0
13.2 0.2 0
13.5 0.2 0
13.8 0.2 0
14.1 0.2 0
14.4 0.2 0
14.7 0.2 0
15 0.2 0
15.3 0.2 0
15.6 0.2 0
15.9 0.2 0
16.2 0.2 0
16.5 0.2 0
16.8 0.2 0
17.1 0.2 0
17.4 0.2 0
17.7 0.2 0
18 0.2 0
18.3 0.2 0
18.6 0.2 0
18.9 0.2 0
19.2 0.2 0
19.5 0.2 0
19.8 0.2 0
20.1 0.2 0
20.4 0.2 0
20.7 0.2 0
21 0.2 0
21.3 0.2 0
21.6 0.2 0
21.9 0.2 0
22.2 0.2 0
22.5 0.2 0
22.8 0.2 0
23.1 0.2 0
23.4 0.2 0
23.7 0.2 0
24 0.2 0
24.3 0.2 0
24.6 0.2 0
24.9 0.2 0
25.2 0.2 0
25.5 0.2 0
25.8 0.2 0
26.1 0.2 0
26.4 0.2 0
26.7 0.2 0
27 0.2 0
27.3 0.2 0
27.6 0.2 0
27.9 0.2 0
28.2 0.2 0
28.5 0.2 0
28.8 0.2 0
29.1 0.2 0
29.4 0.2 0
29.7 0.2 0
30 0.2 0
30.3 0.2 0
0 0.3 0
0.3 0.3 0
0.6 0.3 0
0.9 0.3 0
1.2 0.3 0
1.5 0.3 0
1.8 0.3 0
2.1 0.3 0
2.4 0.3 0
2.7 0.3 0
3 0.3 0
3.3 0.3 0
3.6 0.3 0
3.9 0.3 0
4.2 0.3 0
4.5 0.3 0
4.8 0.3 0
5.1 0.3 0
5.4 0.3 0
5.7 0.3 0
6 0.3 0
6.3 0.3 0
6.6 0.3 0
6.9 0.3 0
7.2 0.3 0
7.5 0.3 0
7.8 0.3 0
8.1 0.3 0
8.4 0.3 0
8.7 0.3 0
9 0.3 0
9.3 0.3 0
9.6 0.3 0
9.9 0.3 0
10.2 0.3 0
10.5 0.3 0
10.8 0.3 0
11.1 0.3 0
11.4 0.3 0
11.7 0.3 0
12 0.3 0
12.3 0.3 0
12.6 0.3 0
12.9 0.3 0
13.2 0.3 0
13.5 0.3 0
13.8 0.3 0
14.1 0.3 0
14.4 0.3 0
14.7 0.3 0
15 0.3 0
15.3 0.3 0
15.6 0.3 0
15.9 0.3 0
16.2 0.3 0
16.5 0.3 0
16.8 0.3 0
17.1 0.3 0
17.4 0.3 0
17.7 0.3 0
18 0.3 0
18.3 0.3 0
18.6 0.3 0
18.9 0.3 0
19.2 0.3 0
19.5 0.3 0
19.8 0.3 0
20.1 0.3 0
20.4 0.3 0
20.7 0.3 0
21 0.3 0
21.3 0.3 0
21.6 0.3 0
21.9 0.3 0
22.2 0.3 0
22.5 0.3 0
22.8 0.3 0
23.1 0.3 0
23.4 0.3 0
23.7 0.3 0
24 0.3 0
24.3 0.3 0
24.6 0.3 0
24.9 0.3 0
25.2 0.3 0
25.5 0.3 0
25.8 0.3 0
26.1 0.3 0
26.4 0.3 0
26.7 0.3 0
27 0.3 0
27.3 0.3 0
27.6 0.3 0
27.9 0.3 0
28.2 0.3 0
28.5 0.3 0
28.8 0.3 0
29.1 0.3 0
29.4 0.3 0
29.7 0.3 0
30 0.3 0
30.3 0.3 0
0 0.4 0
0.3 0.4 0
0.6 0.4 0
0.9 0.4 0
1.2 0.4 0
1.5 0.4 0
1.8 0.4 0
2.1 0.4 0
2.4 0.4 0
2.7 0.4 0
3 0.4 0
3.3 0.4 0
3.6 0.4 0
3.9 0.4 0
4.2 0.4 0
4.5 0.4 0
4.8 0.4 0
5.1 0.4 0
5.4 0.4 0
5.7 0.4 0
6 0.4 0
6.3 0.4 0
6.6 0.4 0
6.9 0.4 0
7.2 0.4 0
7.5 0.4 0
7.8 0.4 0
8.1 0.4 0
8.4 0.4 0
8.7 0.4 0
9 0.4 0
9.3 0.4 0
9.6 0.4 0
9.9 0.4 0
10.2 0.4 0
10.5 0.4 0
10.8 0.4 0
11.1 0.4 0
11.4 0.4 0
11.7 0.4 0
12 0.4 0
12.3 0.4 0
12.6 0.4 0
12.9 0.4 0
13.2 0.4 0
13.5 0.4 0
13.8 0.4 0
14.1 0.4 0
14.4 0.4 0
14.7 0.4 0
15 0.4 0
15.3 0.4 0
15.6 0.4 0
15.9 0.4 0
16.2 0.4 0
16.5 0.4 0
16.8 0.4 0
17.1 0.4 0
17.4 0.4 0
17.7 0.4 0
18 0.4 0
18.3 0.4 0
18.6 0.4 0
18.9 0.4 0
19.2 0.4 0
19.5 0.4 0
19.8 0.4 0
20.1 0.4 0
20.4 0.4 0
20.7 0.4 0
21 0.4 0
21.3 0.4 0
21.6 0.4 0
21.9 0.4 0
22.2 0.4 0
22.5 0.4 0
22.8 0.4 0
23.1 0.4 0
23.4 0.4 0
23.7 0.4 0
24 0.4 0
24.3 0.4 0
24.6 0.4 0
24.9 0.4 0
25.2 0.4 0
25.5 0.4 0
25.8 0.4 0
26.1 0.4 0
26.4 0.4 0
26.7 0.4 0
27 0.4 0
27.3 0.4 0
27.6 0.4 0
27.9 0.4 0
28.2 0.4 0
28.5 0.4 0
28.8 0.4 0
29.1 0.4 0
29.4 0.4 0
29.7 0.4 0
30 0.4 0
30.3 0.4 0
0 0.5 0
0.3 0.5 0
0.6 0.5 0
0.9 0.5 0
1.2 0.5 0
1.5 0.5 0
1.8 0.5 0
2.1 0.5 0
2.4 0.5 0
2.7 0.5 0
3 0.5 0
3.3 0.5 0
3.6 0.5 0
3.9 0.5 0
4.2 0.5 0
4.5 0.5 0
4.8 0.5 0
5.1 0.5 0
5.4 0.5 0
5.7 0.5 0
6 0.5 0
6.3 0.5 0
6.6 0.5 0
6.9 0.5 0
7.2 0.5 0
7.5 0.5 0
7.8 0.5 0
8.1 0.5 0
8.4 0.5 0
8.7 0.5 0
9 0.5 0
9.3 0.5 0
9.6 0.5 0
9.9 0.5 0
10.2 0.5 0
10.5 0.5 0
10.8 0.5 0
11.1 0.5 0
11.4 0.5 0
11.7 0.5 0
12 0.5 0
12.3 0.5 0
12.6 0.5 0
12.9 0.5 0
13.2 0.5 0
13.5 0.5 0
13.8 0.5 0
14.1 0.5 0
14.4 0.5 0
14.7 0.5 0
15 0.5 0
15.3 0.5 0
15.6 0.5 0
15.9 0.5 0
16.2 0.5 0
16.5 0.5 0
16.8 0.5 0
17.1 0.5 0
17.4 0.5 0
17.7 0.5 0
18 0.5 0
18.3 0.5 0
18.6 0.5 0
18.9 0.5 0
19.2 0.5 0
19.5 0.5 0
19.8 0.5 0
20.1 0.5 0
20.4 0.5 0
20.7 0.5 0
21 0.5 0
21.3 0.5 0
21.6 0.5 0
21.9 0.5 0
22.2 0.5 0
22.5 0.5 0
22.8 0.5 0
23.1 0.5 0
23.4 0.5 0
23.7 0.5 0
24 0.5 0
24.3 0.5 0
24.6 0.5 0
24.9 0.5 0
25.2 0.5 0
25.5 0.5 0
25.8 0.5 0
26.1 0.5 0
26.4 0.5 0
26.7 0.5 0
27 0.5 0
27.3 0.5 0
27.6 0.5 0
27.9 0.5 0
28.2 0.5 0
28.5 0.5 0
28.8 0.5 0
29.1 0.5 0
29.4 0.5 0
29.7 0.5 0
30 0.5 0
30.3 0.5 0
0 0.6 0
0.3 0.6 0
0.6 0.6 0
0.9 0.6 0
1.2 0.6 0
1.5 0.6 0
1.8 0.6 0
2.1 0.6 0
2.4 0.6 0
2.7 0.6 0
3 0.6 0
3.3 0.6 0
3.6 0.6 0
3.9 0.6 0
4.2 0.6 0
4.5 0.6 0
4.8 0.6 0
5.1 0.6 0
5.4 0.6 0
5.7 0.6 0
6 0.6 0
6.3 0.6 0
6.6 0.6 0
6.9 0.6 0
7.2 0.6 0
7.5 0.6 0
7.8 0.6 0
8.1 0.6 0
8.4 0.6 0
8.7 0.6 0
9 0.6 0
9.3 0.6 0
9.6 0.6 0
9.9 0.6 0
10.2 0.6 0
10.5 0.6 0
10.8 0.6 0
11.1 0.6 0
11.4 0.6 0
11.7 0.6 0
12 0.6 0
12.3 0.6 0
12.6 0.6 0
12.9 0.6 0
13.2 0.6 0
13.5 0.6 0
13.8 0.6 0
14.1 0.6 0
14.4 0.6 0
14.7 0.6 0
15 0.6 0
15.3 0.6 0
15.6 0.6 0
15.9 0.6 0
16.2 0.6 0
16.5 0.6 0
16.8 0.6 0
17.1 0.6 0
17.4 0.6 0
17.7 0.6 0
18 0.6 0
18.3 0.6 0
18.6 0.6 0
18.9 0.6 0
19.2 0.6 0
19.5 0.6 0
19.8 0.6 0
20.1 0.6 0
20.4 0.6 0
20.7 0.6 0
21 0.6 0
21.3 0.6 0
21.6 0.6 0
21.9 0.6 0
22.2 0.6 0
22.5 0.6 0
22.8 0.6 0
23.1 0.6 0
23.4 0.6 0
23.7 0.6 0
24 0.6 0
24.3 0.6 0
24.6 0.6 0
24.9 0.6 0
25.2 0.6 0
25.5 0.6 0
25.8 0.6 0
26.1 0.6 0
26.4 0.6 0
26.7 0.6 0
27 0.6 0
27.3 0.6 0
27.6 0.6 0
27.9 0.6 0
28.2 0.6 0
28.5 0.6 0
28.8 0.6 0
29.1 0.6 0
29.4 0.6 0
29.7 0.6 0
30 0.6 0
30.3 0.6 0
0 0.7 0
0.3 0.7 0
0.6 0.7 0
0.9 0.7 0
1.2 0.7 0
1.5 0.7 0
1.8 0.7 0
2.1 0.7 0
2.4 0.7 0
2.7 0.7 0
3 0.7 0
3.3 0.7 0
3.6 0.7 0
3.9 0.7 0
4.2 0.7 0
4.5 0.7 0
4.8 0.7 0
5.1 0.7 0
5.4 0.7 0
5.7 0.7 0
6 0.7 0
6.3 0.7 0
6.6 0.7 0
6.9 0.7 0
7.2 0.7 0
7.5 0.7 0
7.8 0.7 0
8.1 0.7 0
8.4 0.7 0
8.7 0.7 0
9 0.7 0
9.3 0.7 0
9.6 0.7 0
9.9 0.7 0
10.2 0.7 0
10.5 0.7 0
10.8 0.7 0
11.1 0.7 0
11.4 0.7 0
11.7 0.7 0
12 0.7 0
12.3 0.7 0
12.6 0.7 0
12.9 0.7 0
13.2 0.7 0
13.5 0.7 0
13.8 0.7 0
14.1 0.7 0
14.4 0.7 0
14.7 0.7 0
15 0.7 0
15.3 0.7 0
15.6 0.7 0
15.9 0.7 0
16.2 0.7 0
16.5 0.7 0
16.8 0.7 0
17.1 0.7 0
17.4 0.7 0
17.7 0.7 0
18 0.7 0
18.3 0.7 0
18.6 0.7 0
18.9 0.7 0
19.2 0.7 0
19.5 0.7 0
19.8 0.7 0
20.1 0.7 0
20.4 0.7 0
20.7 0.7 0
21 0.7 0
21.3 0.7 0
21.6 0.7 0
21.9 0.7 0
22.2 0.7 0
22.5 0.7 0
22.8 0.7 0
23.1 0.7 0
23.4 0.7 0
23.7 0.7 0
24 0.7 0
24.3 0.7 0
24.6 0.7 0
24.9 0.7 0
25.2 0.7 0
25.5 0.7 0
25.8 0.7 0
26.1 0.7 0
26.4 0.7 0
26.7 0.7 0
27 0.7 0
27.3 0.7 0
27.6 0.7 0
27.9 0.7 0
28.2 0.7 0
28.5 0.7 0
28.8 0.7 0
29.1 0.7 0
29.4 0.7 0
29.7 0.7 0
30 0.7 0
30.3 0.7 0
0 0.8 0
0.3 0.8 0
0.6 0.8 0
0.9 0.8 0
1.2 0.8 0
1.5 0.8 0
1.8 0.8 0
2.1 0.8 0
2.4 0.8 0
2.7 0.8 0
3 0.8 0
3.3 0.8 0
3.6 0.8 0
3.9 0.8 0
4.2 0.8 0
4.5 0.8 0
4.8 0.8 0
5.1 0.8 0
5.4 0.8 0
5.7 0.8 0
6 0.8 0
6.3 0.8 0
6.6 0.8 0
6.9 0.8 0
7.2 0.8 0
7.5 0.8 0
7.8 0.8 0
8.1 0.8 0
8.4 0.8 0
8.7 0.8 0
9 0.8 0
9.3 0.8 0
9.6 0.8 0
9.9 0.8 0
10.2 0.8 0
10.5 0.8 0
10.8 0.8 0
11.1 0.8 0
11.4 0.8 0
11.7 0.8 0
12 0.8 0
12.3 0.8 0
12.6 0.8 0
12.9 0.8 0
13.2 0.8 0
13.5 0.8 0
13.8 0.8 0
14.1 0.8 0
14.4 0.8 0
14.7 0.8 0
15 0.8 0
15.3 0.8 0
15.6 0.8 0
15.9 0.8 0
16.2 0.8 0
16.5 0.8 0
16.8 0.8 0
17.1 0.8 0
17.4 0.8 0
17.7 0.8 0
18 0.8 0
18.3 0.8 0
18.6 0.8 0
18.9 0.8 0
19.2 0.8 0
19.5 0.8 0
19.8 0.8 0
20.1 0.8 0
20.4 0.8 0
20.7 0.8 0
21 0.8 0
21.3 0.8 0
21.6 0.8 0
21.9 0.8 0
22.2 0.8 0
22.5 0.8 0
22.8 0.8 0
23.1 0.8 0
23.4 0.8 0
23.7 0.8 0
24 0.8 0
24.3 0.8 0
24.6 0.8 0
24.9 0.8 0
25.2 0.8 0
25.5 0.8 0
25.8 0.8 0
26.1 0.8 0
26.4 0.8 0
26.7 0.8 0
27 0.8 0
27.3 0.8 0
27.6 0.8 0
27.9 0.8 0
28.2 0.8 0
28.5 0.8 0
28.8 0.8 0
29.1 0.8 0
29.4 0.8 0
29.7 0.8 0
30 0.8 0
30.3 0.8 0
0 0.9 0
0.3 0.9 0
0.6 0.9 0
0.9 0.9 0
1.2 0.9 0
1.5 0.9 0
1.8 0.9 0
2.1 0.9 0
2.4 0.9 0
2.7 0.9 0
3 0.9 0
3.3 0.9 0
3.6 0.9 0
3.9 0.9 0
4.2 0.9 0
4.5 0.9 0
4.8 0.9 0
5.1 0.9 0
5.4 0.9 0
5.7 0.9 0
6 0.9 0
6.3 0.9 0
6.6 0.9 0
6.9 0.9 0
7.2 0.9 0
7.5 0.9 0
7.8 0.9 0
8.1 0.9 0
8.4 0.9 0
8.7 0.9 0
9 0.9 0
9.3 0.9 0
9.6 0.9 0
9.9 0.9 0
10.2 0.9 0
10.5 0.9 0
10.8 0.9 0
11.1 0.9 0
11.4 0.9 0
11.7 0.9 0
12 0.9 0
12.3 0.9 0
12.6 0.9 0
12.9 0.9 0
13.2 0.9 0
13.5 0.9 0
13.8 0.9 0
14.1 0.9 0
14.4 0.9 0
14.7 0.9 0
15 0.9 0
15.3 0.9 0
15.6 0.9 0
15.9 0.9 0
16.2 0.9 0
16.5 0.9 0
16.8 0.9 0
17.1 0.9 0
17.4 0.9 0
17.7 0.9 0
18 0.9 0
18.3 0.9 0
18.6 0.9 0
18.9 0.9 0
19.2 0.9 0
19.5 0.9 0
19.8 0.9 0
20.1 0.9 0
20.4 0.9 0
20.7 0.9 0
21 0.9 0
21.3 0.9 0
21.6 0.9 0
21.9 0.9 0
22.2 0.9 0
22.5 0.9 0
22.8 0.9 0
23.1 0.9 0
23.4 0.9 0
23.7 0.9 0
24 0.9 0
24.3 0.9 0
24.6 0.9 0
24.9 0.9 0
25.2 0.9 0
25.5 0.9 0
25.8 0.9 0
26.1 0.9 0
26.4 0.9 0
26.7 0.9 0
27 0.9 0
27.3 0.9 0
27.6 0.9 0
27.9 0.9 0
28.2 0.9 0
28.5 0.9 0
28.8 0.9 0
29.1 0.9 0
29.4 0.9 0
29.7 0.9 0
30 0.9 0
30.3 0.9 0
0 1 0
0.3 1 0
0.6 1 0
0.9 1 0
1.2 1 0
1.5 1 0
1.8 1 0
2.1 1 0
2.4 1 0
2.7 1 0
3 1 0
3.3 1 0
3.6 1 0
3.9 1 0
4.2 1 0
4.5 1 0
4.8 1 0
5.1 1 0
5.4 1 0
5.7 1 0
6 1 0
6.3 1 0
6.6 1 0
6.9 1 0
7.2 1 0
7.5 1 0
7.8 1 0
8.1 1 0
8.4 1 0
8.7 1 0
9 1 0
9.3 1 0
9.6 1 0
9.9 1 0
10.2 1 0
10.5 1 0
10.8 1 0
11.1 1 0
11.4 1 0
11.7 1 0
12 1 0
12.3 1 0
12.6 1 0
12.9 1 0
13.2 1 0
13.5 1 0
13.8 1 0
14.1 1 0
14.4 1 0
14.7 1 0
15 1 0
15.3 1 0
15.6 1 0
15.9 1 0
16.2 1 0
16.5 1 0
16.8 1 0
17.1 1 0
17.4 1 0
17.7 1 0
18 1 0
18.3 1 0
18.6 1 0
18.9 1 0
19.2 1 0
19.5 1 0
19.8 1 0
20.1 1 0
20.4 1 0
20.7 1 0
21 1 0
21.3 1 0
21.6 1 0
21.9 1 0
22.2 1 0
22.5 1 0
22.8 1 0
23.1 1 0
23.4 1 0
23.7 1 0
24 1 0
24.3 1 0
24.6 1 0
24.9 1 0
25.2 1 0
25.5 1 0
25.8 1 0
26.1 1 0
26.4 1 0
26.7 1 0
27 1 0
27.3 1 0
27.6 1 0
27.9 1 0
28.2 1 0
28.5 1 0
28.8 1 0
29.1 1 0
29.4 1 0
29.7 1 0
30 1 0
30.3 1 0
0 1.1 0
0.3 1.1 0
0.6 1.1 0
0.9 1.1 0
1.2 1.1 0
1.5 1.1 0
1.8 1.1 0
2.1 1.1 0
2.4 1.1 0
2.7 1.1 0
3 1.1 0
3.3 1.1 0
3.6 1.1 0
3.9 1.1 0
4.2 1.1 0
4.5 1.1 0
4.8 1.1 0
5.1 1.1 0
5.4 1.1 0
5.7 1.1 0
6 1.1 0
6.3 1.1 0
6.6 1.1 0
6.9 1.1 0
7.2 1.1 0
7.5 1.1 0
7.8 1.1 0
8.1 1.1 0
8.4 1.1 0
8.7 1.1 0
9 1.1 0
9.3 1.1 0
9.6 1.1 0
9.9 1.1 0
10.2 1.1 0
10.5 1.1 0
10.8 1.1 0
11.1 1.1 0
11.4 1.1 0
11.7 1.1 0
12 1.1 0
12.3 1.1 0
12.6 1.1 0
12.9 1.1 0
13.2 1.1 0
13.5 1.1 0
13.8 1.1 0
14.1 1.1 0
14.4 1.1 0
14.7 1.1 0
15 1.1 0
15.3 1.1 0
15.6 1.1 0
15.9 1.1 0
16.2 1.1 0
16.5 1.1 0
16.8 1.1 0
17.1 1.1 0
17.4 1.1 0
17.7 1.1 0
18 1.1 0
18.3 1.1 0
18.6 1.1 0
18.9 1.1 0
19.2 1.1 0
19.5 1.1 0
19.8 1.1 0
20.1 1.1 0
20.4 1.1 0
20.7 1.1 0
21 1.1 0
21.3 1.1 0
21.6 1.1 0
21.9 1.1 0
22.2 1.1 0
22.5 1.1 0
22.8 1.1 0
23.1 1.1 0
23.4 1.1 0
23.7 1.1 0
24 1.1 0
24.3 1.1 0
24.6 1.1 0
24.9 1.1 0
25.2 1.1 0
25.5 1.1 0
25.8 1.1 0
26.1 1.1 0
26.4 1.1 0
26.7 1.1 0
27 1.1 0
27.3 1.1 0
27.6 1.1 0
27.9 1.1 0
28.2 1.1 0
28.5 1.1 0
28.8 1.1 0
29.1 1.1 0
29.4 1.1 0
29.7 1.1 0
30 1.1 0
30.3 1.1 0

POINT_DATA 1224

SCALARS u double
LOOKUP_TABLE default
-1
-0.810924
-0.643743
-0.528209
-0.455076
-0.410252
-0.382416
-0.364271
-0.35166
-0.342374
-0.335289
-0.329829
-0.325677
-0.322613
-0.320442
-0.318977
-0.318037
-0.317466
-0.317136
-0.316956
-0.316862
-0.316816
-0.316794
-0.316784
-0.31678
-0.316778
-0.316777
-0.316777
-0.316777
-0.316777
-0.316777
-0.316777
-0.316777
-0.316777
-0.316777
-0.316777
-0.316777
-0.316777
-0.316777
-0.316777
-0.316777
-0.316777
-0.316777
-0.316777
-0.316777
-0.316777
-0.316777
-0.316777
-0.316777
-0.316777
-0.316777
-0.316777
-0.316777
-0.316777
-0.316777
-0.316777
-0.316777
-0.316777
-0.316777
-0.316777
-0.316777
-0.316777
-0.316778
-0.316778
-0.316778
-0.316778
-0.316778
-0.316778
-0.316778
-0.316778
-0.316778
-0.316778
-0.316778
-0.316778
-0.316778
-0.316778
-0.316778
-0.316778
-0.316778
-0.316778
-0.316778
-0.316778
-0.316778
-0.316778
-0.316778
-0.316778
-0.316778
-0.316778
-0.316778
-0.316778
-0.316778
-0.316778
-0.316778
-0.316778
-0.316778
-0.316779
-0.316778
-0.316786
-0.316791
-0.316832
-0.316832
-1
1
0.810924
0.643743
0.528209
0.455076
0.410252
0.382416
0.364271
0.35166
0.342374
0.335289
0.329829
0.325677
0.322613
0.320442
0.318977
0.318037
0.317466
0.317136
0.316956
0.316862
0.316816
0.316794
0.316784
0.31678
0.316778
0.316777
0.316777
0.316777
0.316777
0.316777
0.316777
0.316777
0.316777
0.316777
0.316777
0.316777
0.316777
0.316777
0.316777
0.316777
0.316777
0.316777
0.316777
0.316777
0.316777
0.316777
0.316777
0.316777
0.316777
0.316777
0.316777
0.316777
0.316777
0.316777
0.316777
0.316777
0.316777
0.316777
0.316777
0.316777
0.316777
0.316778
0.316778
0.316778
0.316778
0.316778
0.316778
0.316778
0.316778
0.316778
0.316778
0.316778
0.316778
0.316778
0.316778
0.316778
0.316778
0.316778
0.316778
0.316778
0.316778
0.316778
0.316778
0.316778
0.316778
0.316778
0.316778
0.316778
0.316778
0.316778
0.316778
0.316778
0.316778
0.316778
0.316779
0.316778
0.316786
0.316791
0.316832
0.316832
1
1
1.03423
1.01986
0.989596
0.957337
0.927964
0.902789
0.881742
0.86432
0.849986
0.838316
0.828995
0.821764
0.816363
0.812507
0.809887
0.808197
0.807164
0.806565
0.806236
0.806065
0.80598
0.805939
0.805921
0.805914
0.80591
0.805909
0.805909
0.805909
0.805909
0.805909
0.805909
0.805909
0.805909
0.805909
0.805909
0.805909
0.805909
0.805909
0.805909
0.805909
0.805909
0.805909
0.805909
0.805909
0.805909
0.805909
0.805909
0.805909
0.805909
0.805909
0.805909
0.805909
0.805909
0.80591
0.80591
0.80591
0.80591
0.80591
0.80591
0.80591
0.80591
0.80591
0.80591
0.80591
0.80591
0.80591
0.80591
0.80591
0.80591
0.80591
0.80591
0.80591
0.80591
0.80591
0.80591
0.80591
0.80591
0.80591
0.80591
0.80591
0.80591
0.80591
0.80591
0.80591
0.80591
0.80591
0.80591
0.80591
0.80591
0.80591
0.805911
0.805911
0.805911
0.805911
0.805911
0.805911
0.805919
0.805919
0.806073
0.806073
1
1
1.05978
1.10938
1.13939
1.15483
1.16117
1.16234
1.16079
1.15793
1.15456
1.15114
1.14796
1.14516
1.14283
1.14101
1.13965
1.13869
1.13806
1.13766
1.13742
1.13728
1.13721
1.13717
1.13716
1.13715
1.13715
1.13714
1.13714
1.13714
1.13714
1.13714
1.13714
1.13714
1.13714
1.13714
1.13714
1.13714
1.13714
1.13714
1.13714
1.13714
1.13714
1.13714
1.13714
1.13714
1.13714
1.13714
1.13714
1.13714
1.13714
1.13714
1.13714
1.13714
1.13714
1.13714
1.13714
1.13714
1.13714
1.13714
1.13714
1.13714
1.13714
1.13714
1.13714
1.13714
1.13714
1.13714
1.13714
1.13714
1.13714
1.13714
1.13714
1.13714
1.13714
1.13714
1.13715
1.13715
1.13715
1.13715
1.13715
1.13715
1.13715
1.13715
1.13715
1.13715
1.13715
1.13715
1.13715
1.13715
1.13715
1.13715
1.13715
1.13715
1.13715
1.13715
1.13715
1.13714
1.13715
1.13714
1.13722
1.13722
1
1
1.05116
1.11659
1.17117
1.21172
1.24096
1.26226
1.27824
1.29058
1.3003
1.30799
1.31402
1.31863
1.32202
1.3244
1.32598
1.32699
1.32758
1.32792
1.32809
1.32818
1.32822
1.32824
1.32825
1.32825
1.32825
1.32825
1.32825
1.32825
1.32825
1.32825
1.32825
1.32825
1.32825
1.32825
1.32825
1.32825
1.32825
1.32825
1.32825
1.32825
1.32825
1.32825
1.32825
1.32825
1.32825
1.32825
1.32825
1.32825
1.32825
1.32825
1.32825
1.32825
1.32825
1.32825
1.32825
1.32825
1.32825
1.32825
1.32825
1.32825
1.32825
1.32825
1.32825
1.32825
1.32825
1.32825
1.32825
1.32825
1.32825
1.32825
1.32825
1.32825
1.32825
1.32825
1.32825
1.32825
1.32825
1.32825
1.32825
1.32825
1.32825
1.32825
1.32825
1.32825
1.32825
1.32825
1.32825
1.32825
1.32825
1.32825
1.32825
1.32825
1.32825
1.32825
1.32825
1.32825
1.32824
1.32824
1.32816
1.32816
1
1
1.0439
1.11044
1.17164
1.22103
1.25966
1.2902
1.31496
1.33552
1.35278
1.36726
1.3792
1.38877
1.39617
1.40165
1.4055
1.40809
1.40974
1.41073
1.4113
1.41161
1.41178
1.41186
1.41189
1.41191
1.41192
1.41192
1.41192
1.41192
1.41192
1.41192
1.41192
1.41192
1.41192
1.41192
1.41193
1.41193
1.41193
1.41193
1.41193
1.41193
1.41193
1.41193
1.41193
1.41193
1.41193
1.41193
1.41193
1.41193
1.41193
1.41193
1.41193
1.41193
1.41193
1.41193
1.41193
1.41193
1.41193
1.41193
1.41193
1.41193
1.41193
1.41193
1.41193
1.41193
1.41193
1.41193
1.41193
1.41193
1.41193
1.41193
1.41193
1.41193
1.41193
1.41193
1.41193
1.41193
1.41193
1.41193
1.41193
1.41193
1.41193
1.41193
1.41193
1.41193
1.41193
1.41193
1.41193
1.41193
1.41193
1.41193
1.41193
1.41193
1.41193
1.41193
1.41192
1.41193
1.41191
1.41192
1.41172
1.41172
1
1
1.0439
1.11044
1.17164
1.22103
1.25966
1.2902
1.31496
1.33552
1.35278
1.36726
1.3792
1.38877
1.39617
1.40165
1.4055
1.40809
1.40974
1.41073
1.4113
1.41161
1.41178
1.41186
1.41189
1.41191
1.41192
1.41192
1.41192
1.41192
1.41192
1.41192
1.41192
1.41192
1.41192
1.41192
1.41192
1.41192
1.41192
1.41192
1.41192
1.41192
1.41192
1.41192
1.41192
1.41192
1.41193
1.41193
1.41193
1.41193
1.41193
1.41193
1.41193
1.41193
1.41193
1.41193
1.41193
1.41193
1.41193
1.41193
1.41193
1.41193
1.41193
1.41193
1.41193
1.41193
1.41193
1.41193
1.41193
1.41193
1.41193
1.41193
1.41193
1.41193
1.41193
1.41193
1.41193
1.41193
1.41193
1.41193
1.41193
1.41193
1.41193
1.41193
1.41193
1.41192
1.41192
1.41192
1.41192
1.41192
1.41192
1.41192
1.41192
1.41192
1.41192
1.41192
1.41192
1.41192
1.41191
1.41192
1.41172
1.41172
1
1
1.05116
1.11659
1.17117
1.21172
1.24096
1.26226
1.27824
1.29058
1.3003
1.30799
1.31402
1.31863
1.32202
1.3244
1.32598
1.32699
1.32758
1.32792
1.32809
1.32818
1.32822
1.32824
1.32825
1.32825
1.32825
1.32825
1.32825
1.32825
1.32825
1.32825
1.32825
1.32825
1.32825
1.32825
1.32825
1.32825
1.32825
1.32825
1.32825
1.32825
1.32825
1.32825
1.32825
1.32825
1.32825
1.32825
1.32825
1.32825
1.32825
1.32825
1.32825
1.32825
1.32825
1.32825
1.32825
1.32825
1.32825
1.32825
1.32825
1.32825
1.32825
1.32825
1.32825
1.32825
1.32825
1.32825
1.32825
1.32825
1.32825
1.32825
1.32825
1.32825
1.32825
1.32825
1.32825
1.32825
1.32825
1.32825
1.32825
1.32825
1.32825
1.32825
1.32825
1.32825
1.32825
1.32825
1.32825
1.32825
1.32825
1.32825
1.32825
1.32825
1.32825
1.32825
1.32825
1.32825
1.32824
1.32824
1.32816
1.32816
1
1
1.05978
1.10938
1.13939
1.15483
1.16117
1.16234
1.16079
1.15793
1.15456
1.15114
1.14796
1.14516
1.14284
1.14101
1.13965
1.13869
1.13806
1.13766
1.13742
1.13728
1.13721
1.13717
1.13716
1.13715
1.13715
1.13714
1.13714
1.13714
1.13714
1.13714
1.13714
1.13714
1.13714
1.13714
1.13714
1.13714
1.13714
1.13714
1.13714
1.13714
1.13714
1.13714
1.13714
1.13714
1.13714
1.13714
1.13714
1.13714
1.13714
1.13714
1.13714
1.13714
1.13714
1.13714
1.13714
1.13714
1.13714
1.13714
1.13714
1.13714
1.13714
1.13714
1.13714
1.13714
1.13714
1.13714
1.13714
1.13714
1.13714
1.13714
1.13714
1.13714
1.13714
1.13714
1.13714
1.13714
1.13714
1.13714
1.13714
1.13714
1.13714
1.13714
1.13714
1.13714
1.13714
1.13714
1.13714
1.13714
1.13714
1.13714
1.13714
1.13714
1.13714
1.13714
1.13714
1.13714
1.13715
1.13714
1.13722
1.13722
1
1
1.03423
1.01986
0.989596
0.957338
0.927964
0.902789
0.881743
0.86432
0.849987
0.838317
0.828996
0.821764
0.816364
0.812507
0.809887
0.808197
0.807164
0.806565
0.806236
0.806065
0.80598
0.805939
0.805921
0.805913
0.80591
0.805909
0.805909
0.805909
0.805908
0.805908
0.805909
0.805909
0.805909
0.805909
0.805909
0.805909
0.805909
0.805909
0.805909
0.805909
0.805909
0.805909
0.805909
0.805909
0.805909
0.805909
0.805909
0.805909
0.805909
0.805909
0.805909
0.805909
0.805909
0.805909
0.805909
0.805909
0.805909
0.805909
0.805909
0.805909
0.805909
0.805909
0.805909
0.805909
0.805909
0.805909
0.805909
0.805909
0.805909
0.805909
0.805909
0.805909
0.805909
0.805909
0.805909
0.805909
0.805909
0.805909
0.805909
0.805909
0.805909
0.805909
0.805909
0.80591
0.80591
0.80591
0.80591
0.80591
0.80591
0.80591
0.80591
0.80591
0.80591
0.80591
0.80591
0.80591
0.805918
0.805918
0.806072
0.806072
1
1
0.810924
0.643743
0.528209
0.455076
0.410252
0.382416
0.364272
0.35166
0.342375
0.335289
0.32983
0.325678
0.322613
0.320442
0.318977
0.318037
0.317466
0.317137
0.316956
0.316862
0.316816
0.316794
0.316784
0.31678
0.316778
0.316777
0.316777
0.316777
0.316777
0.316777
0.316777
0.316777
0.316777
0.316777
0.316777
0.316777
0.316777
0.316777
0.316777
0.316777
0.316777
0.316777
0.316777
0.316777
0.316777
0.316777
0.316777
0.316777
0.316777
0.316777
0.316777
0.316777
0.316777
0.316777
0.316777
0.316777
0.316777
0.316777
0.316777
0.316777
0.316777
0.316777
0.316777
0.316777
0.316777
0.316777
0.316777
0.316777
0.316777
0.316777
0.316777
0.316777
0.316777
0.316777
0.316777
0.316777
0.316777
0.316777
0.316777
0.316777
0.316777
0.316777
0.316777
0.316777
0.316777
0.316778
0.316778
0.316778
0.316778
0.316778
0.316778
0.316778
0.316778
0.316778
0.316778
0.316778
0.316786
0.316791
0.316831
0.316831
1
-1
-0.810924
-0.643743
-0.528209
-0.455076
-0.410252
-0.382416
-0.364272
-0.35166
-0.342375
-0.335289
-0.32983
-0.325678
-0.322613
-0.320442
-0.318977
-0.318037
-0.317466
-0.317137
-0.316956
-0.316862
-0.316816
-0.316794
-0.316784
-0.31678
-0.316778
-0.316777
-0.316777
-0.316777
-0.316777
-0.316777
-0.316777
-0.316777
-0.316777
-0.316777
-0.316777
-0.316777
-0.316777
-0.316777
-0.316777
-0.316777
-0.316777
-0.316777
-0.316777
-0.316777
-0.316777
-0.316777
-0.316777
-0.316777
-0.316777
-0.316777
-0.316777
-0.316777
-0.316777
-0.316777
-0.316777
-0.316777
-0.316777
-0.316777
-0.316777
-0.316777
-0.316777
-0.316777
-0.316777
-0.316777
-0.316777
-0.316777
-0.316777
-0.316777
-0.316777
-0.316777
-0.316777
-0.316777
-0.316777
-0.316777
-0.316777
-0.316777
-0.316777
-0.316777
-0.316777
-0.316777
-0.316777
-0.316777
-0.316777
-0.316777
-0.316777
-0.316778
-0.316778
-0.316778
-0.316778
-0.316778
-0.316778
-0.316778
-0.316778
-0.316778
-0.316778
-0.316778
-0.316786
-0.316791
-0.316831
-0.316831
-1
