# vtk DataFile Version 2.0
FlowField
ASCII
DATASET STRUCTURED_GRID
DIMENSIONS 102 13 1 
POINTS 1326 double
0 0 0
0.3 0 0
0.6 0 0
0.9 0 0
1.2 0 0
1.5 0 0
1.8 0 0
2.1 0 0
2.4 0 0
2.7 0 0
3 0 0
3.3 0 0
3.6 0 0
3.9 0 0
4.2 0 0
4.5 0 0
4.8 0 0
5.1 0 0
5.4 0 0
5.7 0 0
6 0 0
6.3 0 0
6.6 0 0
6.9 0 0
7.2 0 0
7.5 0 0
7.8 0 0
8.1 0 0
8.4 0 0
8.7 0 0
9 0 0
9.3 0 0
9.6 0 0
9.9 0 0
10.2 0 0
10.5 0 0
10.8 0 0
11.1 0 0
11.4 0 0
11.7 0 0
12 0 0
12.3 0 0
12.6 0 0
12.9 0 0
13.2 0 0
13.5 0 0
13.8 0 0
14.1 0 0
14.4 0 0
14.7 0 0
15 0 0
15.3 0 0
15.6 0 0
15.9 0 0
16.2 0 0
16.5 0 0
16.8 0 0
17.1 0 0
17.4 0 0
17.7 0 0
18 0 0
18.3 0 0
18.6 0 0
18.9 0 0
19.2 0 0
19.5 0 0
19.8 0 0
20.1 0 0
20.4 0 0
20.7 0 0
21 0 0
21.3 0 0
21.6 0 0
21.9 0 0
22.2 0 0
22.5 0 0
22.8 0 0
23.1 0 0
23.4 0 0
23.7 0 0
24 0 0
24.3 0 0
24.6 0 0
24.9 0 0
25.2 0 0
25.5 0 0
25.8 0 0
26.1 0 0
26.4 0 0
26.7 0 0
27 0 0
27.3 0 0
27.6 0 0
27.9 0 0
28.2 0 0
28.5 0 0
28.8 0 0
29.1 0 0
29.4 0 0
29.7 0 0
30 0 0
30.3 0 0
0 0.1 0
0.3 0.1 0
0.6 0.1 0
0.9 0.1 0
1.2 0.1 0
1.5 0.1 0
1.8 0.1 0
2.1 0.1 0
2.4 0.1 0
2.7 0.1 0
3 0.1 0
3.3 0.1 0
3.6 0.1 0
3.9 0.1 0
4.2 0.1 0
4.5 0.1 0
4.8 0.1 0
5.1 0.1 0
5.4 0.1 0
5.7 0.1 0
6 0.1 0
6.3 0.1 0
6.6 0.1 0
6.9 0.1 0
7.2 0.1 0
7.5 0.1 0
7.8 0.1 0
8.1 0.1 0
8.4 0.1 0
8.7 0.1 0
9 0.1 0
9.3 0.1 0
9.6 0.1 0
9.9 0.1 0
10.2 0.1 0
10.5 0.1 0
10.8 0.1 0
11.1 0.1 0
11.4 0.1 0
11.7 0.1 0
12 0.1 0
12.3 0.1 0
12.6 0.1 0
12.9 0.1 0
13.2 0.1 0
13.5 0.1 0
13.8 0.1 0
14.1 0.1 0
14.4 0.1 0
14.7 0.1 0
15 0.1 0
15.3 0.1 0
15.6 0.1 0
15.9 0.1 0
16.2 0.1 0
16.5 0.1 0
16.8 0.1 0
17.1 0.1 0
17.4 0.1 0
17.7 0.1 0
18 0.1 0
18.3 0.1 0
18.6 0.1 0
18.9 0.1 0
19.2 0.1 0
19.5 0.1 0
19.8 0.1 0
20.1 0.1 0
20.4 0.1 0
20.7 0.1 0
21 0.1 0
21.3 0.1 0
21.6 0.1 0
21.9 0.1 0
22.2 0.1 0
22.5 0.1 0
22.8 0.1 0
23.1 0.1 0
23.4 0.1 0
23.7 0.1 0
24 0.1 0
24.3 0.1 0
24.6 0.1 0
24.9 0.1 0
25.2 0.1 0
25.5 0.1 0
25.8 0.1 0
26.1 0.1 0
26.4 0.1 0
26.7 0.1 0
27 0.1 0
27.3 0.1 0
27.6 0.1 0
27.9 0.1 0
28.2 0.1 0
28.5 0.1 0
28.8 0.1 0
29.1 0.1 0
29.4 0.1 0
29.7 0.1 0
30 0.1 0
30.3 0.1 0
0 0.2 0
0.3 0.2 0
0.6 0.2 0
0.9 0.2 0
1.2 0.2 0
1.5 0.2 0
1.8 0.2 0
2.1 0.2 0
2.4 0.2 0
2.7 0.2 0
3 0.2 0
3.3 0.2 0
3.6 0.2 0
3.9 0.2 0
4.2 0.2 0
4.5 0.2 0
4.8 0.2 0
5.1 0.2 0
5.4 0.2 0
5.7 0.2 0
6 0.2 0
6.3 0.2 0
6.6 0.2 0
6.9 0.2 0
7.2 0.2 0
7.5 0.2 0
7.8 0.2 0
8.1 0.2 0
8.4 0.2 0
8.7 0.2 0
9 0.2 0
9.3 0.2 0
9.6 0.2 0
9.9 0.2 0
10.2 0.2 0
10.5 0.2 0
10.8 0.2 0
11.1 0.2 0
11.4 0.2 0
11.7 0.2 0
12 0.2 0
12.3 0.2 0
12.6 0.2 0
12.9 0.2 0
13.2 0.2 0
13.5 0.2 0
13.8 0.2 0
14.1 0.2 0
14.4 0.2 0
14.7 0.2 0
15 0.2 0
15.3 0.2 0
15.6 0.2 0
15.9 0.2 0
16.2 0.2 0
16.5 0.2 0
16.8 0.2 0
17.1 0.2 0
17.4 0.2 0
17.7 0.2 0
18 0.2 0
18.3 0.2 0
18.6 0.2 0
18.9 0.2 0
19.2 0.2 0
19.5 0.2 0
19.8 0.2 0
20.1 0.2 0
20.4 0.2 0
20.7 0.2 0
21 0.2 0
21.3 0.2 0
21.6 0.2 0
21.9 0.2 0
22.2 0.2 0
22.5 0.2 0
22.8 0.2 0
23.1 0.2 0
23.4 0.2 0
23.7 0.2 0
24 0.2 0
24.3 0.2 0
24.6 0.2 0
24.9 0.2 0
25.2 0.2 0
25.5 0.2 0
25.8 0.2 0
26.1 0.2 0
26.4 0.2 0
26.7 0.2 0
27 0.2 0
27.3 0.2 0
27.6 0.2 0
27.9 0.2 0
28.2 0.2 0
28.5 0.2 0
28.8 0.2 0
29.1 0.2 0
29.4 0.2 0
29.7 0.2 0
30 0.2 0
30.3 0.2 0
0 0.3 0
0.3 0.3 0
0.6 0.3 0
0.9 0.3 0
1.2 0.3 0
1.5 0.3 0
1.8 0.3 0
2.1 0.3 0
2.4 0.3 0
2.7 0.3 0
3 0.3 0
3.3 0.3 0
3.6 0.3 0
3.9 0.3 0
4.2 0.3 0
4.5 0.3 0
4.8 0.3 0
5.1 0.3 0
5.4 0.3 0
5.7 0.3 0
6 0.3 0
6.3 0.3 0
6.6 0.3 0
6.9 0.3 0
7.2 0.3 0
7.5 0.3 0
7.8 0.3 0
8.1 0.3 0
8.4 0.3 0
8.7 0.3 0
9 0.3 0
9.3 0.3 0
9.6 0.3 0
9.9 0.3 0
10.2 0.3 0
10.5 0.3 0
10.8 0.3 0
11.1 0.3 0
11.4 0.3 0
11.7 0.3 0
12 0.3 0
12.3 0.3 0
12.6 0.3 0
12.9 0.3 0
13.2 0.3 0
13.5 0.3 0
13.8 0.3 0
14.1 0.3 0
14.4 0.3 0
14.7 0.3 0
15 0.3 0
15.3 0.3 0
15.6 0.3 0
15.9 0.3 0
16.2 0.3 0
16.5 0.3 0
16.8 0.3 0
17.1 0.3 0
17.4 0.3 0
17.7 0.3 0
18 0.3 0
18.3 0.3 0
18.6 0.3 0
18.9 0.3 0
19.2 0.3 0
19.5 0.3 0
19.8 0.3 0
20.1 0.3 0
20.4 0.3 0
20.7 0.3 0
21 0.3 0
21.3 0.3 0
21.6 0.3 0
21.9 0.3 0
22.2 0.3 0
22.5 0.3 0
22.8 0.3 0
23.1 0.3 0
23.4 0.3 0
23.7 0.3 0
24 0.3 0
24.3 0.3 0
24.6 0.3 0
24.9 0.3 0
25.2 0.3 0
25.5 0.3 0
25.8 0.3 0
26.1 0.3 0
26.4 0.3 0
26.7 0.3 0
27 0.3 0
27.3 0.3 0
27.6 0.3 0
27.9 0.3 0
28.2 0.3 0
28.5 0.3 0
28.8 0.3 0
29.1 0.3 0
29.4 0.3 0
29.7 0.3 0
30 0.3 0
30.3 0.3 0
0 0.4 0
0.3 0.4 0
0.6 0.4 0
0.9 0.4 0
1.2 0.4 0
1.5 0.4 0
1.8 0.4 0
2.1 0.4 0
2.4 0.4 0
2.7 0.4 0
3 0.4 0
3.3 0.4 0
3.6 0.4 0
3.9 0.4 0
4.2 0.4 0
4.5 0.4 0
4.8 0.4 0
5.1 0.4 0
5.4 0.4 0
5.7 0.4 0
6 0.4 0
6.3 0.4 0
6.6 0.4 0
6.9 0.4 0
7.2 0.4 0
7.5 0.4 0
7.8 0.4 0
8.1 0.4 0
8.4 0.4 0
8.7 0.4 0
9 0.4 0
9.3 0.4 0
9.6 0.4 0
9.9 0.4 0
10.2 0.4 0
10.5 0.4 0
10.8 0.4 0
11.1 0.4 0
11.4 0.4 0
11.7 0.4 0
12 0.4 0
12.3 0.4 0
12.6 0.4 0
12.9 0.4 0
13.2 0.4 0
13.5 0.4 0
13.8 0.4 0
14.1 0.4 0
14.4 0.4 0
14.7 0.4 0
15 0.4 0
15.3 0.4 0
15.6 0.4 0
15.9 0.4 0
16.2 0.4 0
16.5 0.4 0
16.8 0.4 0
17.1 0.4 0
17.4 0.4 0
17.7 0.4 0
18 0.4 0
18.3 0.4 0
18.6 0.4 0
18.9 0.4 0
19.2 0.4 0
19.5 0.4 0
19.8 0.4 0
20.1 0.4 0
20.4 0.4 0
20.7 0.4 0
21 0.4 0
21.3 0.4 0
21.6 0.4 0
21.9 0.4 0
22.2 0.4 0
22.5 0.4 0
22.8 0.4 0
23.1 0.4 0
23.4 0.4 0
23.7 0.4 0
24 0.4 0
24.3 0.4 0
24.6 0.4 0
24.9 0.4 0
25.2 0.4 0
25.5 0.4 0
25.8 0.4 0
26.1 0.4 0
26.4 0.4 0
26.7 0.4 0
27 0.4 0
27.3 0.4 0
27.6 0.4 0
27.9 0.4 0
28.2 0.4 0
28.5 0.4 0
28.8 0.4 0
29.1 0.4 0
29.4 0.4 0
29.7 0.4 0
30 0.4 0
30.3 0.4 0
0 0.5 0
0.3 0.5 0
0.6 0.5 0
0.9 0.5 0
1.2 0.5 0
1.5 0.5 0
1.8 0.5 0
2.1 0.5 0
2.4 0.5 0
2.7 0.5 0
3 0.5 0
3.3 0.5 0
3.6 0.5 0
3.9 0.5 0
4.2 0.5 0
4.5 0.5 0
4.8 0.5 0
5.1 0.5 0
5.4 0.5 0
5.7 0.5 0
6 0.5 0
6.3 0.5 0
6.6 0.5 0
6.9 0.5 0
7.2 0.5 0
7.5 0.5 0
7.8 0.5 0
8.1 0.5 0
8.4 0.5 0
8.7 0.5 0
9 0.5 0
9.3 0.5 0
9.6 0.5 0
9.9 0.5 0
10.2 0.5 0
10.5 0.5 0
10.8 0.5 0
11.1 0.5 0
11.4 0.5 0
11.7 0.5 0
12 0.5 0
12.3 0.5 0
12.6 0.5 0
12.9 0.5 0
13.2 0.5 0
13.5 0.5 0
13.8 0.5 0
14.1 0.5 0
14.4 0.5 0
14.7 0.5 0
15 0.5 0
15.3 0.5 0
15.6 0.5 0
15.9 0.5 0
16.2 0.5 0
16.5 0.5 0
16.8 0.5 0
17.1 0.5 0
17.4 0.5 0
17.7 0.5 0
18 0.5 0
18.3 0.5 0
18.6 0.5 0
18.9 0.5 0
19.2 0.5 0
19.5 0.5 0
19.8 0.5 0
20.1 0.5 0
20.4 0.5 0
20.7 0.5 0
21 0.5 0
21.3 0.5 0
21.6 0.5 0
21.9 0.5 0
22.2 0.5 0
22.5 0.5 0
22.8 0.5 0
23.1 0.5 0
23.4 0.5 0
23.7 0.5 0
24 0.5 0
24.3 0.5 0
24.6 0.5 0
24.9 0.5 0
25.2 0.5 0
25.5 0.5 0
25.8 0.5 0
26.1 0.5 0
26.4 0.5 0
26.7 0.5 0
27 0.5 0
27.3 0.5 0
27.6 0.5 0
27.9 0.5 0
28.2 0.5 0
28.5 0.5 0
28.8 0.5 0
29.1 0.5 0
29.4 0.5 0
29.7 0.5 0
30 0.5 0
30.3 0.5 0
0 0.6 0
0.3 0.6 0
0.6 0.6 0
0.9 0.6 0
1.2 0.6 0
1.5 0.6 0
1.8 0.6 0
2.1 0.6 0
2.4 0.6 0
2.7 0.6 0
3 0.6 0
3.3 0.6 0
3.6 0.6 0
3.9 0.6 0
4.2 0.6 0
4.5 0.6 0
4.8 0.6 0
5.1 0.6 0
5.4 0.6 0
5.7 0.6 0
6 0.6 0
6.3 0.6 0
6.6 0.6 0
6.9 0.6 0
7.2 0.6 0
7.5 0.6 0
7.8 0.6 0
8.1 0.6 0
8.4 0.6 0
8.7 0.6 0
9 0.6 0
9.3 0.6 0
9.6 0.6 0
9.9 0.6 0
10.2 0.6 0
10.5 0.6 0
10.8 0.6 0
11.1 0.6 0
11.4 0.6 0
11.7 0.6 0
12 0.6 0
12.3 0.6 0
12.6 0.6 0
12.9 0.6 0
13.2 0.6 0
13.5 0.6 0
13.8 0.6 0
14.1 0.6 0
14.4 0.6 0
14.7 0.6 0
15 0.6 0
15.3 0.6 0
15.6 0.6 0
15.9 0.6 0
16.2 0.6 0
16.5 0.6 0
16.8 0.6 0
17.1 0.6 0
17.4 0.6 0
17.7 0.6 0
18 0.6 0
18.3 0.6 0
18.6 0.6 0
18.9 0.6 0
19.2 0.6 0
19.5 0.6 0
19.8 0.6 0
20.1 0.6 0
20.4 0.6 0
20.7 0.6 0
21 0.6 0
21.3 0.6 0
21.6 0.6 0
21.9 0.6 0
22.2 0.6 0
22.5 0.6 0
22.8 0.6 0
23.1 0.6 0
23.4 0.6 0
23.7 0.6 0
24 0.6 0
24.3 0.6 0
24.6 0.6 0
24.9 0.6 0
25.2 0.6 0
25.5 0.6 0
25.8 0.6 0
26.1 0.6 0
26.4 0.6 0
26.7 0.6 0
27 0.6 0
27.3 0.6 0
27.6 0.6 0
27.9 0.6 0
28.2 0.6 0
28.5 0.6 0
28.8 0.6 0
29.1 0.6 0
29.4 0.6 0
29.7 0.6 0
30 0.6 0
30.3 0.6 0
0 0.7 0
0.3 0.7 0
0.6 0.7 0
0.9 0.7 0
1.2 0.7 0
1.5 0.7 0
1.8 0.7 0
2.1 0.7 0
2.4 0.7 0
2.7 0.7 0
3 0.7 0
3.3 0.7 0
3.6 0.7 0
3.9 0.7 0
4.2 0.7 0
4.5 0.7 0
4.8 0.7 0
5.1 0.7 0
5.4 0.7 0
5.7 0.7 0
6 0.7 0
6.3 0.7 0
6.6 0.7 0
6.9 0.7 0
7.2 0.7 0
7.5 0.7 0
7.8 0.7 0
8.1 0.7 0
8.4 0.7 0
8.7 0.7 0
9 0.7 0
9.3 0.7 0
9.6 0.7 0
9.9 0.7 0
10.2 0.7 0
10.5 0.7 0
10.8 0.7 0
11.1 0.7 0
11.4 0.7 0
11.7 0.7 0
12 0.7 0
12.3 0.7 0
12.6 0.7 0
12.9 0.7 0
13.2 0.7 0
13.5 0.7 0
13.8 0.7 0
14.1 0.7 0
14.4 0.7 0
14.7 0.7 0
15 0.7 0
15.3 0.7 0
15.6 0.7 0
15.9 0.7 0
16.2 0.7 0
16.5 0.7 0
16.8 0.7 0
17.1 0.7 0
17.4 0.7 0
17.7 0.7 0
18 0.7 0
18.3 0.7 0
18.6 0.7 0
18.9 0.7 0
19.2 0.7 0
19.5 0.7 0
19.8 0.7 0
20.1 0.7 0
20.4 0.7 0
20.7 0.7 0
21 0.7 0
21.3 0.7 0
21.6 0.7 0
21.9 0.7 0
22.2 0.7 0
22.5 0.7 0
22.8 0.7 0
23.1 0.7 0
23.4 0.7 0
23.7 0.7 0
24 0.7 0
24.3 0.7 0
24.6 0.7 0
24.9 0.7 0
25.2 0.7 0
25.5 0.7 0
25.8 0.7 0
26.1 0.7 0
26.4 0.7 0
26.7 0.7 0
27 0.7 0
27.3 0.7 0
27.6 0.7 0
27.9 0.7 0
28.2 0.7 0
28.5 0.7 0
28.8 0.7 0
29.1 0.7 0
29.4 0.7 0
29.7 0.7 0
30 0.7 0
30.3 0.7 0
0 0.8 0
0.3 0.8 0
0.6 0.8 0
0.9 0.8 0
1.2 0.8 0
1.5 0.8 0
1.8 0.8 0
2.1 0.8 0
2.4 0.8 0
2.7 0.8 0
3 0.8 0
3.3 0.8 0
3.6 0.8 0
3.9 0.8 0
4.2 0.8 0
4.5 0.8 0
4.8 0.8 0
5.1 0.8 0
5.4 0.8 0
5.7 0.8 0
6 0.8 0
6.3 0.8 0
6.6 0.8 0
6.9 0.8 0
7.2 0.8 0
7.5 0.8 0
7.8 0.8 0
8.1 0.8 0
8.4 0.8 0
8.7 0.8 0
9 0.8 0
9.3 0.8 0
9.6 0.8 0
9.9 0.8 0
10.2 0.8 0
10.5 0.8 0
10.8 0.8 0
11.1 0.8 0
11.4 0.8 0
11.7 0.8 0
12 0.8 0
12.3 0.8 0
12.6 0.8 0
12.9 0.8 0
13.2 0.8 0
13.5 0.8 0
13.8 0.8 0
14.1 0.8 0
14.4 0.8 0
14.7 0.8 0
15 0.8 0
15.3 0.8 0
15.6 0.8 0
15.9 0.8 0
16.2 0.8 0
16.5 0.8 0
16.8 0.8 0
17.1 0.8 0
17.4 0.8 0
17.7 0.8 0
18 0.8 0
18.3 0.8 0
18.6 0.8 0
18.9 0.8 0
19.2 0.8 0
19.5 0.8 0
19.8 0.8 0
20.1 0.8 0
20.4 0.8 0
20.7 0.8 0
21 0.8 0
21.3 0.8 0
21.6 0.8 0
21.9 0.8 0
22.2 0.8 0
22.5 0.8 0
22.8 0.8 0
23.1 0.8 0
23.4 0.8 0
23.7 0.8 0
24 0.8 0
24.3 0.8 0
24.6 0.8 0
24.9 0.8 0
25.2 0.8 0
25.5 0.8 0
25.8 0.8 0
26.1 0.8 0
26.4 0.8 0
26.7 0.8 0
27 0.8 0
27.3 0.8 0
27.6 0.8 0
27.9 0.8 0
28.2 0.8 0
28.5 0.8 0
28.8 0.8 0
29.1 0.8 0
29.4 0.8 0
29.7 0.8 0
30 0.8 0
30.3 0.8 0
0 0.9 0
0.3 0.9 0
0.6 0.9 0
0.9 0.9 0
1.2 0.9 0
1.5 0.9 0
1.8 0.9 0
2.1 0.9 0
2.4 0.9 0
2.7 0.9 0
3 0.9 0
3.3 0.9 0
3.6 0.9 0
3.9 0.9 0
4.2 0.9 0
4.5 0.9 0
4.8 0.9 0
5.1 0.9 0
5.4 0.9 0
5.7 0.9 0
6 0.9 0
6.3 0.9 0
6.6 0.9 0
6.9 0.9 0
7.2 0.9 0
7.5 0.9 0
7.8 0.9 0
8.1 0.9 0
8.4 0.9 0
8.7 0.9 0
9 0.9 0
9.3 0.9 0
9.6 0.9 0
9.9 0.9 0
10.2 0.9 0
10.5 0.9 0
10.8 0.9 0
11.1 0.9 0
11.4 0.9 0
11.7 0.9 0
12 0.9 0
12.3 0.9 0
12.6 0.9 0
12.9 0.9 0
13.2 0.9 0
13.5 0.9 0
13.8 0.9 0
14.1 0.9 0
14.4 0.9 0
14.7 0.9 0
15 0.9 0
15.3 0.9 0
15.6 0.9 0
15.9 0.9 0
16.2 0.9 0
16.5 0.9 0
16.8 0.9 0
17.1 0.9 0
17.4 0.9 0
17.7 0.9 0
18 0.9 0
18.3 0.9 0
18.6 0.9 0
18.9 0.9 0
19.2 0.9 0
19.5 0.9 0
19.8 0.9 0
20.1 0.9 0
20.4 0.9 0
20.7 0.9 0
21 0.9 0
21.3 0.9 0
21.6 0.9 0
21.9 0.9 0
22.2 0.9 0
22.5 0.9 0
22.8 0.9 0
23.1 0.9 0
23.4 0.9 0
23.7 0.9 0
24 0.9 0
24.3 0.9 0
24.6 0.9 0
24.9 0.9 0
25.2 0.9 0
25.5 0.9 0
25.8 0.9 0
26.1 0.9 0
26.4 0.9 0
26.7 0.9 0
27 0.9 0
27.3 0.9 0
27.6 0.9 0
27.9 0.9 0
28.2 0.9 0
28.5 0.9 0
28.8 0.9 0
29.1 0.9 0
29.4 0.9 0
29.7 0.9 0
30 0.9 0
30.3 0.9 0
0 1 0
0.3 1 0
0.6 1 0
0.9 1 0
1.2 1 0
1.5 1 0
1.8 1 0
2.1 1 0
2.4 1 0
2.7 1 0
3 1 0
3.3 1 0
3.6 1 0
3.9 1 0
4.2 1 0
4.5 1 0
4.8 1 0
5.1 1 0
5.4 1 0
5.7 1 0
6 1 0
6.3 1 0
6.6 1 0
6.9 1 0
7.2 1 0
7.5 1 0
7.8 1 0
8.1 1 0
8.4 1 0
8.7 1 0
9 1 0
9.3 1 0
9.6 1 0
9.9 1 0
10.2 1 0
10.5 1 0
10.8 1 0
11.1 1 0
11.4 1 0
11.7 1 0
12 1 0
12.3 1 0
12.6 1 0
12.9 1 0
13.2 1 0
13.5 1 0
13.8 1 0
14.1 1 0
14.4 1 0
14.7 1 0
15 1 0
15.3 1 0
15.6 1 0
15.9 1 0
16.2 1 0
16.5 1 0
16.8 1 0
17.1 1 0
17.4 1 0
17.7 1 0
18 1 0
18.3 1 0
18.6 1 0
18.9 1 0
19.2 1 0
19.5 1 0
19.8 1 0
20.1 1 0
20.4 1 0
20.7 1 0
21 1 0
21.3 1 0
21.6 1 0
21.9 1 0
22.2 1 0
22.5 1 0
22.8 1 0
23.1 1 0
23.4 1 0
23.7 1 0
24 1 0
24.3 1 0
24.6 1 0
24.9 1 0
25.2 1 0
25.5 1 0
25.8 1 0
26.1 1 0
26.4 1 0
26.7 1 0
27 1 0
27.3 1 0
27.6 1 0
27.9 1 0
28.2 1 0
28.5 1 0
28.8 1 0
29.1 1 0
29.4 1 0
29.7 1 0
30 1 0
30.3 1 0
0 1.1 0
0.3 1.1 0
0.6 1.1 0
0.9 1.1 0
1.2 1.1 0
1.5 1.1 0
1.8 1.1 0
2.1 1.1 0
2.4 1.1 0
2.7 1.1 0
3 1.1 0
3.3 1.1 0
3.6 1.1 0
3.9 1.1 0
4.2 1.1 0
4.5 1.1 0
4.8 1.1 0
5.1 1.1 0
5.4 1.1 0
5.7 1.1 0
6 1.1 0
6.3 1.1 0
6.6 1.1 0
6.9 1.1 0
7.2 1.1 0
7.5 1.1 0
7.8 1.1 0
8.1 1.1 0
8.4 1.1 0
8.7 1.1 0
9 1.1 0
9.3 1.1 0
9.6 1.1 0
9.9 1.1 0
10.2 1.1 0
10.5 1.1 0
10.8 1.1 0
11.1 1.1 0
11.4 1.1 0
11.7 1.1 0
12 1.1 0
12.3 1.1 0
12.6 1.1 0
12.9 1.1 0
13.2 1.1 0
13.5 1.1 0
13.8 1.1 0
14.1 1.1 0
14.4 1.1 0
14.7 1.1 0
15 1.1 0
15.3 1.1 0
15.6 1.1 0
15.9 1.1 0
16.2 1.1 0
16.5 1.1 0
16.8 1.1 0
17.1 1.1 0
17.4 1.1 0
17.7 1.1 0
18 1.1 0
18.3 1.1 0
18.6 1.1 0
18.9 1.1 0
19.2 1.1 0
19.5 1.1 0
19.8 1.1 0
20.1 1.1 0
20.4 1.1 0
20.7 1.1 0
21 1.1 0
21.3 1.1 0
21.6 1.1 0
21.9 1.1 0
22.2 1.1 0
22.5 1.1 0
22.8 1.1 0
23.1 1.1 0
23.4 1.1 0
23.7 1.1 0
24 1.1 0
24.3 1.1 0
24.6 1.1 0
24.9 1.1 0
25.2 1.1 0
25.5 1.1 0
25.8 1.1 0
26.1 1.1 0
26.4 1.1 0
26.7 1.1 0
27 1.1 0
27.3 1.1 0
27.6 1.1 0
27.9 1.1 0
28.2 1.1 0
28.5 1.1 0
28.8 1.1 0
29.1 1.1 0
29.4 1.1 0
29.7 1.1 0
30 1.1 0
30.3 1.1 0
0 1.2 0
0.3 1.2 0
0.6 1.2 0
0.9 1.2 0
1.2 1.2 0
1.5 1.2 0
1.8 1.2 0
2.1 1.2 0
2.4 1.2 0
2.7 1.2 0
3 1.2 0
3.3 1.2 0
3.6 1.2 0
3.9 1.2 0
4.2 1.2 0
4.5 1.2 0
4.8 1.2 0
5.1 1.2 0
5.4 1.2 0
5.7 1.2 0
6 1.2 0
6.3 1.2 0
6.6 1.2 0
6.9 1.2 0
7.2 1.2 0
7.5 1.2 0
7.8 1.2 0
8.1 1.2 0
8.4 1.2 0
8.7 1.2 0
9 1.2 0
9.3 1.2 0
9.6 1.2 0
9.9 1.2 0
10.2 1.2 0
10.5 1.2 0
10.8 1.2 0
11.1 1.2 0
11.4 1.2 0
11.7 1.2 0
12 1.2 0
12.3 1.2 0
12.6 1.2 0
12.9 1.2 0
13.2 1.2 0
13.5 1.2 0
13.8 1.2 0
14.1 1.2 0
14.4 1.2 0
14.7 1.2 0
15 1.2 0
15.3 1.2 0
15.6 1.2 0
15.9 1.2 0
16.2 1.2 0
16.5 1.2 0
16.8 1.2 0
17.1 1.2 0
17.4 1.2 0
17.7 1.2 0
18 1.2 0
18.3 1.2 0
18.6 1.2 0
18.9 1.2 0
19.2 1.2 0
19.5 1.2 0
19.8 1.2 0
20.1 1.2 0
20.4 1.2 0
20.7 1.2 0
21 1.2 0
21.3 1.2 0
21.6 1.2 0
21.9 1.2 0
22.2 1.2 0
22.5 1.2 0
22.8 1.2 0
23.1 1.2 0
23.4 1.2 0
23.7 1.2 0
24 1.2 0
24.3 1.2 0
24.6 1.2 0
24.9 1.2 0
25.2 1.2 0
25.5 1.2 0
25.8 1.2 0
26.1 1.2 0
26.4 1.2 0
26.7 1.2 0
27 1.2 0
27.3 1.2 0
27.6 1.2 0
27.9 1.2 0
28.2 1.2 0
28.5 1.2 0
28.8 1.2 0
29.1 1.2 0
29.4 1.2 0
29.7 1.2 0
30 1.2 0
30.3 1.2 0

POINT_DATA 1326

SCALARS p double
LOOKUP_TABLE default
1.16036
1.16036
1.09551
1.05127
1.01145
0.974878
0.941826
0.912297
0.88594
0.862232
0.840631
0.820667
0.801974
0.784275
0.767368
0.751109
0.73539
0.720134
0.705282
0.690787
0.676613
0.662728
0.649108
0.635729
0.622573
0.609623
0.596864
0.584281
0.571864
0.559599
0.547479
0.535492
0.523631
0.511888
0.500255
0.488726
0.477295
0.465955
0.454702
0.44353
0.432435
0.421412
0.410458
0.399568
0.388739
0.377968
0.367251
0.356585
0.345968
0.335397
0.324869
0.314382
0.303935
0.293524
0.283147
0.272804
0.262491
0.252209
0.241954
0.231725
0.221522
0.211343
0.201187
0.191054
0.180941
0.17085
0.160778
0.150725
0.140692
0.130676
0.120678
0.110696
0.100731
0.0907812
0.0808458
0.0709241
0.0610151
0.0511179
0.0412314
0.0313548
0.021487
0.011627
0.00177401
-0.00807291
-0.0179146
-0.0277518
-0.0375851
-0.0474153
-0.0572428
-0.0670681
-0.0768916
-0.0867137
-0.0965346
-0.106355
-0.116174
-0.125993
-0.135811
-0.145629
-0.155447
-0.165264
-0.17508
0.17508
1.16036
1.16036
1.09551
1.05127
1.01145
0.974878
0.941826
0.912297
0.88594
0.862232
0.840631
0.820667
0.801974
0.784275
0.767368
0.751109
0.73539
0.720134
0.705282
0.690787
0.676613
0.662728
0.649108
0.635729
0.622573
0.609623
0.596864
0.584281
0.571864
0.559599
0.547479
0.535492
0.523631
0.511888
0.500255
0.488726
0.477295
0.465955
0.454702
0.44353
0.432435
0.421412
0.410458
0.399568
0.388739
0.377968
0.367251
0.356585
0.345968
0.335397
0.324869
0.314382
0.303935
0.293524
0.283147
0.272804
0.262491
0.252209
0.241954
0.231725
0.221522
0.211343
0.201187
0.191054
0.180941
0.17085
0.160778
0.150725
0.140692
0.130676
0.120678
0.110696
0.100731
0.0907812
0.0808458
0.0709241
0.0610151
0.0511179
0.0412314
0.0313548
0.021487
0.011627
0.00177401
-0.00807291
-0.0179146
-0.0277518
-0.0375851
-0.0474153
-0.0572428
-0.0670681
-0.0768916
-0.0867137
-0.0965346
-0.106355
-0.116174
-0.125993
-0.135811
-0.145629
-0.155447
-0.165264
-0.17508
0.17508
1.13941
1.13941
1.09352
1.0515
1.01215
0.975674
0.942569
0.912928
0.886448
0.862627
0.840934
0.820901
0.802156
0.784419
0.767486
0.751206
0.735472
0.720206
0.705345
0.690843
0.676662
0.662773
0.649148
0.635766
0.622607
0.609654
0.596892
0.584307
0.571888
0.559622
0.547499
0.535511
0.523649
0.511905
0.500271
0.488741
0.477308
0.465968
0.454714
0.443541
0.432445
0.421422
0.410467
0.399577
0.388747
0.377975
0.367258
0.356592
0.345974
0.335403
0.324875
0.314388
0.30394
0.293528
0.283152
0.272808
0.262496
0.252212
0.241957
0.231729
0.221525
0.211346
0.20119
0.191056
0.180944
0.170852
0.16078
0.150727
0.140693
0.130677
0.120679
0.110698
0.100732
0.090782
0.0808465
0.0709247
0.0610155
0.0511182
0.0412317
0.031355
0.0214871
0.0116271
0.00177407
-0.00807288
-0.0179146
-0.0277518
-0.0375852
-0.0474154
-0.0572429
-0.0670681
-0.0768916
-0.0867137
-0.0965346
-0.106355
-0.116174
-0.125993
-0.135811
-0.145629
-0.155447
-0.165264
-0.17508
0.17508
1.12444
1.12444
1.09064
1.05173
1.01327
0.976998
0.94383
0.914006
0.887309
0.863287
0.841427
0.821265
0.802427
0.784625
0.767644
0.751331
0.735574
0.72029
0.705416
0.690904
0.676715
0.662819
0.649189
0.635803
0.62264
0.609684
0.596919
0.584332
0.57191
0.559642
0.547518
0.535529
0.523665
0.511919
0.500284
0.488753
0.47732
0.465978
0.454724
0.44355
0.432454
0.42143
0.410475
0.399584
0.388754
0.377982
0.367264
0.356597
0.34598
0.335408
0.324879
0.314392
0.303944
0.293532
0.283156
0.272812
0.262499
0.252216
0.24196
0.231731
0.221528
0.211349
0.201192
0.191058
0.180946
0.170854
0.160782
0.150729
0.140695
0.130679
0.12068
0.110698
0.100733
0.0907826
0.080847
0.0709251
0.0610159
0.0511185
0.0412319
0.0313551
0.0214872
0.0116272
0.00177411
-0.00807286
-0.0179146
-0.0277518
-0.0375852
-0.0474154
-0.0572429
-0.0670682
-0.0768917
-0.0867137
-0.0965347
-0.106355
-0.116174
-0.125993
-0.135811
-0.145629
-0.155447
-0.165264
-0.17508
0.17508
1.11486
1.11486
1.08815
1.05184
1.01422
0.978193
0.945006
0.915043
0.888163
0.863959
0.841944
0.82166
0.80273
0.784859
0.767829
0.75148
0.735697
0.720393
0.705503
0.690979
0.676782
0.662878
0.649241
0.635849
0.622681
0.609721
0.596953
0.584363
0.571938
0.559668
0.547541
0.53555
0.523684
0.511937
0.500301
0.488768
0.477334
0.465992
0.454736
0.443562
0.432465
0.42144
0.410484
0.399592
0.388762
0.377989
0.367271
0.356604
0.345986
0.335414
0.324885
0.314397
0.303949
0.293537
0.28316
0.272816
0.262503
0.252219
0.241963
0.231735
0.221531
0.211351
0.201195
0.191061
0.180948
0.170856
0.160784
0.150731
0.140696
0.13068
0.120682
0.1107
0.100734
0.0907839
0.0808481
0.0709261
0.0610168
0.0511192
0.0412326
0.0313557
0.0214877
0.0116276
0.00177448
-0.00807255
-0.0179143
-0.0277516
-0.037585
-0.0474152
-0.0572428
-0.0670681
-0.0768916
-0.0867137
-0.0965346
-0.106355
-0.116174
-0.125993
-0.135811
-0.145629
-0.155446
-0.165263
-0.175079
0.175079
1.10955
1.10955
1.08653
1.05186
1.01481
0.978959
0.945775
0.915732
0.888741
0.864423
0.842308
0.821944
0.802952
0.785036
0.767972
0.751598
0.735796
0.720477
0.705577
0.691044
0.676839
0.662928
0.649286
0.63589
0.622718
0.609755
0.596983
0.58439
0.571963
0.559691
0.547563
0.53557
0.523703
0.511954
0.500316
0.488783
0.477347
0.466004
0.454747
0.443572
0.432475
0.421449
0.410493
0.399601
0.38877
0.377996
0.367277
0.35661
0.345992
0.335419
0.32489
0.314402
0.303953
0.293541
0.283164
0.272819
0.262506
0.252222
0.241967
0.231738
0.221534
0.211354
0.201198
0.191063
0.18095
0.170858
0.160786
0.150733
0.140698
0.130682
0.120684
0.110702
0.100736
0.0907854
0.0808496
0.0709274
0.0610179
0.0511203
0.0412335
0.0313566
0.0214885
0.0116283
0.00177506
-0.00807205
-0.0179139
-0.0277512
-0.0375847
-0.047415
-0.0572426
-0.0670679
-0.0768915
-0.0867136
-0.0965345
-0.106355
-0.116174
-0.125993
-0.135811
-0.145629
-0.155446
-0.165262
-0.175078
0.175078
1.10785
1.10785
1.08598
1.05187
1.01503
0.979233
0.946049
0.915978
0.888947
0.86459
0.84244
0.822049
0.803035
0.785102
0.768026
0.751644
0.735835
0.720511
0.705606
0.69107
0.676862
0.662949
0.649305
0.635907
0.622734
0.609769
0.596996
0.584402
0.571974
0.559701
0.547572
0.535578
0.523711
0.511961
0.500323
0.488789
0.477353
0.466009
0.454752
0.443577
0.432479
0.421453
0.410496
0.399604
0.388773
0.377999
0.36728
0.356613
0.345994
0.335422
0.324892
0.314404
0.303955
0.293543
0.283166
0.272821
0.262508
0.252224
0.241968
0.231739
0.221535
0.211355
0.201199
0.191065
0.180952
0.170859
0.160787
0.150734
0.140699
0.130683
0.120684
0.110702
0.100737
0.0907861
0.0808502
0.070928
0.0610185
0.0511208
0.041234
0.031357
0.0214889
0.0116286
0.00177535
-0.0080718
-0.0179137
-0.0277511
-0.0375846
-0.0474149
-0.0572424
-0.0670678
-0.0768914
-0.0867135
-0.0965345
-0.106354
-0.116174
-0.125993
-0.135811
-0.145629
-0.155446
-0.165261
-0.175078
0.175078
1.10955
1.10955
1.08653
1.05186
1.01481
0.978959
0.945775
0.915733
0.888741
0.864423
0.842308
0.821944
0.802952
0.785036
0.767972
0.751598
0.735796
0.720477
0.705577
0.691044
0.676839
0.662928
0.649286
0.63589
0.622718
0.609755
0.596983
0.58439
0.571963
0.559691
0.547563
0.53557
0.523703
0.511954
0.500316
0.488783
0.477347
0.466004
0.454747
0.443572
0.432475
0.421449
0.410493
0.399601
0.38877
0.377996
0.367278
0.35661
0.345992
0.335419
0.32489
0.314402
0.303953
0.293541
0.283164
0.272819
0.262506
0.252222
0.241967
0.231738
0.221534
0.211354
0.201198
0.191063
0.18095
0.170858
0.160786
0.150733
0.140698
0.130682
0.120684
0.110702
0.100736
0.0907854
0.0808496
0.0709274
0.0610179
0.0511203
0.0412335
0.0313566
0.0214885
0.0116283
0.00177507
-0.00807205
-0.0179139
-0.0277513
-0.0375847
-0.047415
-0.0572425
-0.0670679
-0.0768915
-0.0867136
-0.0965345
-0.106355
-0.116174
-0.125993
-0.135811
-0.145629
-0.155446
-0.165262
-0.175078
0.175078
1.11486
1.11486
1.08815
1.05184
1.01422
0.978192
0.945006
0.915043
0.888163
0.863959
0.841943
0.82166
0.80273
0.784859
0.767829
0.75148
0.735697
0.720393
0.705503
0.690979
0.676782
0.662878
0.649241
0.635849
0.622681
0.609721
0.596953
0.584362
0.571938
0.559668
0.547541
0.53555
0.523684
0.511937
0.500301
0.488768
0.477334
0.465992
0.454736
0.443562
0.432465
0.42144
0.410484
0.399592
0.388762
0.377989
0.367271
0.356604
0.345986
0.335414
0.324885
0.314397
0.303949
0.293537
0.28316
0.272816
0.262503
0.252219
0.241964
0.231735
0.221531
0.211351
0.201195
0.191061
0.180948
0.170856
0.160784
0.150731
0.140696
0.13068
0.120682
0.1107
0.100734
0.0907839
0.0808482
0.0709261
0.0610168
0.0511192
0.0412326
0.0313557
0.0214877
0.0116276
0.0017745
-0.00807255
-0.0179143
-0.0277516
-0.037585
-0.0474152
-0.0572427
-0.0670681
-0.0768916
-0.0867137
-0.0965346
-0.106355
-0.116174
-0.125993
-0.135811
-0.145629
-0.155446
-0.165263
-0.175079
0.175079
1.12444
1.12444
1.09064
1.05174
1.01327
0.976997
0.943829
0.914006
0.88731
0.863286
0.841426
0.821265
0.802428
0.784624
0.767644
0.751331
0.735574
0.72029
0.705415
0.690904
0.676715
0.662819
0.649189
0.635803
0.62264
0.609684
0.596919
0.584332
0.57191
0.559642
0.547518
0.535529
0.523665
0.511919
0.500284
0.488753
0.47732
0.465979
0.454724
0.44355
0.432454
0.42143
0.410475
0.399584
0.388754
0.377982
0.367264
0.356597
0.34598
0.335408
0.324879
0.314392
0.303944
0.293532
0.283156
0.272812
0.262499
0.252216
0.24196
0.231731
0.221528
0.211349
0.201192
0.191058
0.180946
0.170854
0.160781
0.150729
0.140695
0.130679
0.12068
0.110698
0.100733
0.0907827
0.080847
0.0709251
0.0610159
0.0511184
0.0412319
0.0313551
0.0214872
0.0116272
0.00177413
-0.00807286
-0.0179146
-0.0277518
-0.0375852
-0.0474153
-0.0572428
-0.0670681
-0.0768917
-0.0867137
-0.0965346
-0.106355
-0.116174
-0.125993
-0.135811
-0.145629
-0.155447
-0.165264
-0.17508
0.17508
1.13941
1.13941
1.09352
1.0515
1.01216
0.975673
0.942568
0.912928
0.886449
0.862627
0.840934
0.820901
0.802156
0.784419
0.767486
0.751206
0.735473
0.720206
0.705345
0.690843
0.676662
0.662773
0.649148
0.635766
0.622607
0.609654
0.596892
0.584307
0.571888
0.559622
0.547499
0.535511
0.523649
0.511905
0.500271
0.488741
0.477308
0.465968
0.454714
0.443541
0.432445
0.421422
0.410467
0.399577
0.388747
0.377975
0.367258
0.356592
0.345974
0.335403
0.324875
0.314388
0.30394
0.293528
0.283152
0.272808
0.262496
0.252212
0.241957
0.231729
0.221525
0.211346
0.20119
0.191056
0.180944
0.170852
0.16078
0.150727
0.140693
0.130677
0.120679
0.110698
0.100732
0.0907821
0.0808465
0.0709247
0.0610155
0.0511182
0.0412317
0.031355
0.0214871
0.0116271
0.00177411
-0.00807287
-0.0179146
-0.0277518
-0.0375851
-0.0474153
-0.0572428
-0.0670681
-0.0768916
-0.0867137
-0.0965346
-0.106355
-0.116174
-0.125993
-0.135811
-0.145629
-0.155447
-0.165264
-0.17508
0.17508
1.16035
1.16035
1.09551
1.05128
1.01145
0.974877
0.941825
0.912297
0.885941
0.862232
0.84063
0.820667
0.801974
0.784275
0.767368
0.751109
0.73539
0.720134
0.705282
0.690787
0.676613
0.662728
0.649108
0.635729
0.622573
0.609623
0.596864
0.584281
0.571864
0.559599
0.547479
0.535492
0.523631
0.511888
0.500255
0.488726
0.477294
0.465955
0.454702
0.44353
0.432435
0.421412
0.410458
0.399568
0.388739
0.377968
0.367251
0.356585
0.345968
0.335397
0.324869
0.314382
0.303935
0.293524
0.283147
0.272804
0.262491
0.252209
0.241954
0.231725
0.221522
0.211343
0.201187
0.191054
0.180941
0.17085
0.160778
0.150725
0.140692
0.130676
0.120678
0.110696
0.100731
0.0907813
0.0808459
0.0709241
0.0610151
0.0511179
0.0412314
0.0313548
0.021487
0.0116271
0.00177405
-0.00807289
-0.0179146
-0.0277518
-0.0375851
-0.0474153
-0.0572428
-0.0670681
-0.0768916
-0.0867137
-0.0965346
-0.106355
-0.116174
-0.125993
-0.135811
-0.145629
-0.155447
-0.165264
-0.17508
0.17508
1.16035
1.16035
1.09551
1.05128
1.01145
0.974877
0.941825
0.912297
0.885941
0.862232
0.84063
0.820667
0.801974
0.784275
0.767368
0.751109
0.73539
0.720134
0.705282
0.690787
0.676613
0.662728
0.649108
0.635729
0.622573
0.609623
0.596864
0.584281
0.571864
0.559599
0.547479
0.535492
0.523631
0.511888
0.500255
0.488726
0.477294
0.465955
0.454702
0.44353
0.432435
0.421412
0.410458
0.399568
0.388739
0.377968
0.367251
0.356585
0.345968
0.335397
0.324869
0.314382
0.303935
0.293524
0.283147
0.272804
0.262491
0.252209
0.241954
0.231725
0.221522
0.211343
0.201187
0.191054
0.180941
0.17085
0.160778
0.150725
0.140692
0.130676
0.120678
0.110696
0.100731
0.0907813
0.0808459
0.0709241
0.0610151
0.0511179
0.0412314
0.0313548
0.021487
0.0116271
0.00177405
-0.00807289
-0.0179146
-0.0277518
-0.0375851
-0.0474153
-0.0572428
-0.0670681
-0.0768916
-0.0867137
-0.0965346
-0.106355
-0.116174
-0.125993
-0.135811
-0.145629
-0.155447
-0.165264
-0.17508
0.17508
