# vtk DataFile Version 2.0
FlowField
ASCII
DATASET STRUCTURED_GRID
DIMENSIONS 102 12 1 
POINTS 1224 double
0 0 0
0.3 0 0
0.6 0 0
0.9 0 0
1.2 0 0
1.5 0 0
1.8 0 0
2.1 0 0
2.4 0 0
2.7 0 0
3 0 0
3.3 0 0
3.6 0 0
3.9 0 0
4.2 0 0
4.5 0 0
4.8 0 0
5.1 0 0
5.4 0 0
5.7 0 0
6 0 0
6.3 0 0
6.6 0 0
6.9 0 0
7.2 0 0
7.5 0 0
7.8 0 0
8.1 0 0
8.4 0 0
8.7 0 0
9 0 0
9.3 0 0
9.6 0 0
9.9 0 0
10.2 0 0
10.5 0 0
10.8 0 0
11.1 0 0
11.4 0 0
11.7 0 0
12 0 0
12.3 0 0
12.6 0 0
12.9 0 0
13.2 0 0
13.5 0 0
13.8 0 0
14.1 0 0
14.4 0 0
14.7 0 0
15 0 0
15.3 0 0
15.6 0 0
15.9 0 0
16.2 0 0
16.5 0 0
16.8 0 0
17.1 0 0
17.4 0 0
17.7 0 0
18 0 0
18.3 0 0
18.6 0 0
18.9 0 0
19.2 0 0
19.5 0 0
19.8 0 0
20.1 0 0
20.4 0 0
20.7 0 0
21 0 0
21.3 0 0
21.6 0 0
21.9 0 0
22.2 0 0
22.5 0 0
22.8 0 0
23.1 0 0
23.4 0 0
23.7 0 0
24 0 0
24.3 0 0
24.6 0 0
24.9 0 0
25.2 0 0
25.5 0 0
25.8 0 0
26.1 0 0
26.4 0 0
26.7 0 0
27 0 0
27.3 0 0
27.6 0 0
27.9 0 0
28.2 0 0
28.5 0 0
28.8 0 0
29.1 0 0
29.4 0 0
29.7 0 0
30 0 0
30.3 0 0
0 0.1 0
0.3 0.1 0
0.6 0.1 0
0.9 0.1 0
1.2 0.1 0
1.5 0.1 0
1.8 0.1 0
2.1 0.1 0
2.4 0.1 0
2.7 0.1 0
3 0.1 0
3.3 0.1 0
3.6 0.1 0
3.9 0.1 0
4.2 0.1 0
4.5 0.1 0
4.8 0.1 0
5.1 0.1 0
5.4 0.1 0
5.7 0.1 0
6 0.1 0
6.3 0.1 0
6.6 0.1 0
6.9 0.1 0
7.2 0.1 0
7.5 0.1 0
7.8 0.1 0
8.1 0.1 0
8.4 0.1 0
8.7 0.1 0
9 0.1 0
9.3 0.1 0
9.6 0.1 0
9.9 0.1 0
10.2 0.1 0
10.5 0.1 0
10.8 0.1 0
11.1 0.1 0
11.4 0.1 0
11.7 0.1 0
12 0.1 0
12.3 0.1 0
12.6 0.1 0
12.9 0.1 0
13.2 0.1 0
13.5 0.1 0
13.8 0.1 0
14.1 0.1 0
14.4 0.1 0
14.7 0.1 0
15 0.1 0
15.3 0.1 0
15.6 0.1 0
15.9 0.1 0
16.2 0.1 0
16.5 0.1 0
16.8 0.1 0
17.1 0.1 0
17.4 0.1 0
17.7 0.1 0
18 0.1 0
18.3 0.1 0
18.6 0.1 0
18.9 0.1 0
19.2 0.1 0
19.5 0.1 0
19.8 0.1 0
20.1 0.1 0
20.4 0.1 0
20.7 0.1 0
21 0.1 0
21.3 0.1 0
21.6 0.1 0
21.9 0.1 0
22.2 0.1 0
22.5 0.1 0
22.8 0.1 0
23.1 0.1 0
23.4 0.1 0
23.7 0.1 0
24 0.1 0
24.3 0.1 0
24.6 0.1 0
24.9 0.1 0
25.2 0.1 0
25.5 0.1 0
25.8 0.1 0
26.1 0.1 0
26.4 0.1 0
26.7 0.1 0
27 0.1 0
27.3 0.1 0
27.6 0.1 0
27.9 0.1 0
28.2 0.1 0
28.5 0.1 0
28.8 0.1 0
29.1 0.1 0
29.4 0.1 0
29.7 0.1 0
30 0.1 0
30.3 0.1 0
0 0.2 0
0.3 0.2 0
0.6 0.2 0
0.9 0.2 0
1.2 0.2 0
1.5 0.2 0
1.8 0.2 0
2.1 0.2 0
2.4 0.2 0
2.7 0.2 0
3 0.2 0
3.3 0.2 0
3.6 0.2 0
3.9 0.2 0
4.2 0.2 0
4.5 0.2 0
4.8 0.2 0
5.1 0.2 0
5.4 0.2 0
5.7 0.2 0
6 0.2 0
6.3 0.2 0
6.6 0.2 0
6.9 0.2 0
7.2 0.2 0
7.5 0.2 0
7.8 0.2 0
8.1 0.2 0
8.4 0.2 0
8.7 0.2 0
9 0.2 0
9.3 0.2 0
9.6 0.2 0
9.9 0.2 0
10.2 0.2 0
10.5 0.2 0
10.8 0.2 0
11.1 0.2 0
11.4 0.2 0
11.7 0.2 0
12 0.2 0
12.3 0.2 0
12.6 0.2 0
12.9 0.2 0
13.2 0.2 0
13.5 0.2 0
13.8 0.2 0
14.1 0.2 0
14.4 0.2 0
14.7 0.2 0
15 0.2 0
15.3 0.2 0
15.6 0.2 0
15.9 0.2 0
16.2 0.2 0
16.5 0.2 0
16.8 0.2 0
17.1 0.2 0
17.4 0.2 0
17.7 0.2 0
18 0.2 0
18.3 0.2 0
18.6 0.2 0
18.9 0.2 0
19.2 0.2 0
19.5 0.2 0
19.8 0.2 0
20.1 0.2 0
20.4 0.2 0
20.7 0.2 0
21 0.2 0
21.3 0.2 0
21.6 0.2 0
21.9 0.2 0
22.2 0.2 0
22.5 0.2 0
22.8 0.2 0
23.1 0.2 0
23.4 0.2 0
23.7 0.2 0
24 0.2 0
24.3 0.2 0
24.6 0.2 0
24.9 0.2 0
25.2 0.2 0
25.5 0.2 0
25.8 0.2 0
26.1 0.2 0
26.4 0.2 0
26.7 0.2 0
27 0.2 0
27.3 0.2 0
27.6 0.2 0
27.9 0.2 0
28.2 0.2 0
28.5 0.2 0
28.8 0.2 0
29.1 0.2 0
29.4 0.2 0
29.7 0.2 0
30 0.2 0
30.3 0.2 0
0 0.3 0
0.3 0.3 0
0.6 0.3 0
0.9 0.3 0
1.2 0.3 0
1.5 0.3 0
1.8 0.3 0
2.1 0.3 0
2.4 0.3 0
2.7 0.3 0
3 0.3 0
3.3 0.3 0
3.6 0.3 0
3.9 0.3 0
4.2 0.3 0
4.5 0.3 0
4.8 0.3 0
5.1 0.3 0
5.4 0.3 0
5.7 0.3 0
6 0.3 0
6.3 0.3 0
6.6 0.3 0
6.9 0.3 0
7.2 0.3 0
7.5 0.3 0
7.8 0.3 0
8.1 0.3 0
8.4 0.3 0
8.7 0.3 0
9 0.3 0
9.3 0.3 0
9.6 0.3 0
9.9 0.3 0
10.2 0.3 0
10.5 0.3 0
10.8 0.3 0
11.1 0.3 0
11.4 0.3 0
11.7 0.3 0
12 0.3 0
12.3 0.3 0
12.6 0.3 0
12.9 0.3 0
13.2 0.3 0
13.5 0.3 0
13.8 0.3 0
14.1 0.3 0
14.4 0.3 0
14.7 0.3 0
15 0.3 0
15.3 0.3 0
15.6 0.3 0
15.9 0.3 0
16.2 0.3 0
16.5 0.3 0
16.8 0.3 0
17.1 0.3 0
17.4 0.3 0
17.7 0.3 0
18 0.3 0
18.3 0.3 0
18.6 0.3 0
18.9 0.3 0
19.2 0.3 0
19.5 0.3 0
19.8 0.3 0
20.1 0.3 0
20.4 0.3 0
20.7 0.3 0
21 0.3 0
21.3 0.3 0
21.6 0.3 0
21.9 0.3 0
22.2 0.3 0
22.5 0.3 0
22.8 0.3 0
23.1 0.3 0
23.4 0.3 0
23.7 0.3 0
24 0.3 0
24.3 0.3 0
24.6 0.3 0
24.9 0.3 0
25.2 0.3 0
25.5 0.3 0
25.8 0.3 0
26.1 0.3 0
26.4 0.3 0
26.7 0.3 0
27 0.3 0
27.3 0.3 0
27.6 0.3 0
27.9 0.3 0
28.2 0.3 0
28.5 0.3 0
28.8 0.3 0
29.1 0.3 0
29.4 0.3 0
29.7 0.3 0
30 0.3 0
30.3 0.3 0
0 0.4 0
0.3 0.4 0
0.6 0.4 0
0.9 0.4 0
1.2 0.4 0
1.5 0.4 0
1.8 0.4 0
2.1 0.4 0
2.4 0.4 0
2.7 0.4 0
3 0.4 0
3.3 0.4 0
3.6 0.4 0
3.9 0.4 0
4.2 0.4 0
4.5 0.4 0
4.8 0.4 0
5.1 0.4 0
5.4 0.4 0
5.7 0.4 0
6 0.4 0
6.3 0.4 0
6.6 0.4 0
6.9 0.4 0
7.2 0.4 0
7.5 0.4 0
7.8 0.4 0
8.1 0.4 0
8.4 0.4 0
8.7 0.4 0
9 0.4 0
9.3 0.4 0
9.6 0.4 0
9.9 0.4 0
10.2 0.4 0
10.5 0.4 0
10.8 0.4 0
11.1 0.4 0
11.4 0.4 0
11.7 0.4 0
12 0.4 0
12.3 0.4 0
12.6 0.4 0
12.9 0.4 0
13.2 0.4 0
13.5 0.4 0
13.8 0.4 0
14.1 0.4 0
14.4 0.4 0
14.7 0.4 0
15 0.4 0
15.3 0.4 0
15.6 0.4 0
15.9 0.4 0
16.2 0.4 0
16.5 0.4 0
16.8 0.4 0
17.1 0.4 0
17.4 0.4 0
17.7 0.4 0
18 0.4 0
18.3 0.4 0
18.6 0.4 0
18.9 0.4 0
19.2 0.4 0
19.5 0.4 0
19.8 0.4 0
20.1 0.4 0
20.4 0.4 0
20.7 0.4 0
21 0.4 0
21.3 0.4 0
21.6 0.4 0
21.9 0.4 0
22.2 0.4 0
22.5 0.4 0
22.8 0.4 0
23.1 0.4 0
23.4 0.4 0
23.7 0.4 0
24 0.4 0
24.3 0.4 0
24.6 0.4 0
24.9 0.4 0
25.2 0.4 0
25.5 0.4 0
25.8 0.4 0
26.1 0.4 0
26.4 0.4 0
26.7 0.4 0
27 0.4 0
27.3 0.4 0
27.6 0.4 0
27.9 0.4 0
28.2 0.4 0
28.5 0.4 0
28.8 0.4 0
29.1 0.4 0
29.4 0.4 0
29.7 0.4 0
30 0.4 0
30.3 0.4 0
0 0.5 0
0.3 0.5 0
0.6 0.5 0
0.9 0.5 0
1.2 0.5 0
1.5 0.5 0
1.8 0.5 0
2.1 0.5 0
2.4 0.5 0
2.7 0.5 0
3 0.5 0
3.3 0.5 0
3.6 0.5 0
3.9 0.5 0
4.2 0.5 0
4.5 0.5 0
4.8 0.5 0
5.1 0.5 0
5.4 0.5 0
5.7 0.5 0
6 0.5 0
6.3 0.5 0
6.6 0.5 0
6.9 0.5 0
7.2 0.5 0
7.5 0.5 0
7.8 0.5 0
8.1 0.5 0
8.4 0.5 0
8.7 0.5 0
9 0.5 0
9.3 0.5 0
9.6 0.5 0
9.9 0.5 0
10.2 0.5 0
10.5 0.5 0
10.8 0.5 0
11.1 0.5 0
11.4 0.5 0
11.7 0.5 0
12 0.5 0
12.3 0.5 0
12.6 0.5 0
12.9 0.5 0
13.2 0.5 0
13.5 0.5 0
13.8 0.5 0
14.1 0.5 0
14.4 0.5 0
14.7 0.5 0
15 0.5 0
15.3 0.5 0
15.6 0.5 0
15.9 0.5 0
16.2 0.5 0
16.5 0.5 0
16.8 0.5 0
17.1 0.5 0
17.4 0.5 0
17.7 0.5 0
18 0.5 0
18.3 0.5 0
18.6 0.5 0
18.9 0.5 0
19.2 0.5 0
19.5 0.5 0
19.8 0.5 0
20.1 0.5 0
20.4 0.5 0
20.7 0.5 0
21 0.5 0
21.3 0.5 0
21.6 0.5 0
21.9 0.5 0
22.2 0.5 0
22.5 0.5 0
22.8 0.5 0
23.1 0.5 0
23.4 0.5 0
23.7 0.5 0
24 0.5 0
24.3 0.5 0
24.6 0.5 0
24.9 0.5 0
25.2 0.5 0
25.5 0.5 0
25.8 0.5 0
26.1 0.5 0
26.4 0.5 0
26.7 0.5 0
27 0.5 0
27.3 0.5 0
27.6 0.5 0
27.9 0.5 0
28.2 0.5 0
28.5 0.5 0
28.8 0.5 0
29.1 0.5 0
29.4 0.5 0
29.7 0.5 0
30 0.5 0
30.3 0.5 0
0 0.6 0
0.3 0.6 0
0.6 0.6 0
0.9 0.6 0
1.2 0.6 0
1.5 0.6 0
1.8 0.6 0
2.1 0.6 0
2.4 0.6 0
2.7 0.6 0
3 0.6 0
3.3 0.6 0
3.6 0.6 0
3.9 0.6 0
4.2 0.6 0
4.5 0.6 0
4.8 0.6 0
5.1 0.6 0
5.4 0.6 0
5.7 0.6 0
6 0.6 0
6.3 0.6 0
6.6 0.6 0
6.9 0.6 0
7.2 0.6 0
7.5 0.6 0
7.8 0.6 0
8.1 0.6 0
8.4 0.6 0
8.7 0.6 0
9 0.6 0
9.3 0.6 0
9.6 0.6 0
9.9 0.6 0
10.2 0.6 0
10.5 0.6 0
10.8 0.6 0
11.1 0.6 0
11.4 0.6 0
11.7 0.6 0
12 0.6 0
12.3 0.6 0
12.6 0.6 0
12.9 0.6 0
13.2 0.6 0
13.5 0.6 0
13.8 0.6 0
14.1 0.6 0
14.4 0.6 0
14.7 0.6 0
15 0.6 0
15.3 0.6 0
15.6 0.6 0
15.9 0.6 0
16.2 0.6 0
16.5 0.6 0
16.8 0.6 0
17.1 0.6 0
17.4 0.6 0
17.7 0.6 0
18 0.6 0
18.3 0.6 0
18.6 0.6 0
18.9 0.6 0
19.2 0.6 0
19.5 0.6 0
19.8 0.6 0
20.1 0.6 0
20.4 0.6 0
20.7 0.6 0
21 0.6 0
21.3 0.6 0
21.6 0.6 0
21.9 0.6 0
22.2 0.6 0
22.5 0.6 0
22.8 0.6 0
23.1 0.6 0
23.4 0.6 0
23.7 0.6 0
24 0.6 0
24.3 0.6 0
24.6 0.6 0
24.9 0.6 0
25.2 0.6 0
25.5 0.6 0
25.8 0.6 0
26.1 0.6 0
26.4 0.6 0
26.7 0.6 0
27 0.6 0
27.3 0.6 0
27.6 0.6 0
27.9 0.6 0
28.2 0.6 0
28.5 0.6 0
28.8 0.6 0
29.1 0.6 0
29.4 0.6 0
29.7 0.6 0
30 0.6 0
30.3 0.6 0
0 0.7 0
0.3 0.7 0
0.6 0.7 0
0.9 0.7 0
1.2 0.7 0
1.5 0.7 0
1.8 0.7 0
2.1 0.7 0
2.4 0.7 0
2.7 0.7 0
3 0.7 0
3.3 0.7 0
3.6 0.7 0
3.9 0.7 0
4.2 0.7 0
4.5 0.7 0
4.8 0.7 0
5.1 0.7 0
5.4 0.7 0
5.7 0.7 0
6 0.7 0
6.3 0.7 0
6.6 0.7 0
6.9 0.7 0
7.2 0.7 0
7.5 0.7 0
7.8 0.7 0
8.1 0.7 0
8.4 0.7 0
8.7 0.7 0
9 0.7 0
9.3 0.7 0
9.6 0.7 0
9.9 0.7 0
10.2 0.7 0
10.5 0.7 0
10.8 0.7 0
11.1 0.7 0
11.4 0.7 0
11.7 0.7 0
12 0.7 0
12.3 0.7 0
12.6 0.7 0
12.9 0.7 0
13.2 0.7 0
13.5 0.7 0
13.8 0.7 0
14.1 0.7 0
14.4 0.7 0
14.7 0.7 0
15 0.7 0
15.3 0.7 0
15.6 0.7 0
15.9 0.7 0
16.2 0.7 0
16.5 0.7 0
16.8 0.7 0
17.1 0.7 0
17.4 0.7 0
17.7 0.7 0
18 0.7 0
18.3 0.7 0
18.6 0.7 0
18.9 0.7 0
19.2 0.7 0
19.5 0.7 0
19.8 0.7 0
20.1 0.7 0
20.4 0.7 0
20.7 0.7 0
21 0.7 0
21.3 0.7 0
21.6 0.7 0
21.9 0.7 0
22.2 0.7 0
22.5 0.7 0
22.8 0.7 0
23.1 0.7 0
23.4 0.7 0
23.7 0.7 0
24 0.7 0
24.3 0.7 0
24.6 0.7 0
24.9 0.7 0
25.2 0.7 0
25.5 0.7 0
25.8 0.7 0
26.1 0.7 0
26.4 0.7 0
26.7 0.7 0
27 0.7 0
27.3 0.7 0
27.6 0.7 0
27.9 0.7 0
28.2 0.7 0
28.5 0.7 0
28.8 0.7 0
29.1 0.7 0
29.4 0.7 0
29.7 0.7 0
30 0.7 0
30.3 0.7 0
0 0.8 0
0.3 0.8 0
0.6 0.8 0
0.9 0.8 0
1.2 0.8 0
1.5 0.8 0
1.8 0.8 0
2.1 0.8 0
2.4 0.8 0
2.7 0.8 0
3 0.8 0
3.3 0.8 0
3.6 0.8 0
3.9 0.8 0
4.2 0.8 0
4.5 0.8 0
4.8 0.8 0
5.1 0.8 0
5.4 0.8 0
5.7 0.8 0
6 0.8 0
6.3 0.8 0
6.6 0.8 0
6.9 0.8 0
7.2 0.8 0
7.5 0.8 0
7.8 0.8 0
8.1 0.8 0
8.4 0.8 0
8.7 0.8 0
9 0.8 0
9.3 0.8 0
9.6 0.8 0
9.9 0.8 0
10.2 0.8 0
10.5 0.8 0
10.8 0.8 0
11.1 0.8 0
11.4 0.8 0
11.7 0.8 0
12 0.8 0
12.3 0.8 0
12.6 0.8 0
12.9 0.8 0
13.2 0.8 0
13.5 0.8 0
13.8 0.8 0
14.1 0.8 0
14.4 0.8 0
14.7 0.8 0
15 0.8 0
15.3 0.8 0
15.6 0.8 0
15.9 0.8 0
16.2 0.8 0
16.5 0.8 0
16.8 0.8 0
17.1 0.8 0
17.4 0.8 0
17.7 0.8 0
18 0.8 0
18.3 0.8 0
18.6 0.8 0
18.9 0.8 0
19.2 0.8 0
19.5 0.8 0
19.8 0.8 0
20.1 0.8 0
20.4 0.8 0
20.7 0.8 0
21 0.8 0
21.3 0.8 0
21.6 0.8 0
21.9 0.8 0
22.2 0.8 0
22.5 0.8 0
22.8 0.8 0
23.1 0.8 0
23.4 0.8 0
23.7 0.8 0
24 0.8 0
24.3 0.8 0
24.6 0.8 0
24.9 0.8 0
25.2 0.8 0
25.5 0.8 0
25.8 0.8 0
26.1 0.8 0
26.4 0.8 0
26.7 0.8 0
27 0.8 0
27.3 0.8 0
27.6 0.8 0
27.9 0.8 0
28.2 0.8 0
28.5 0.8 0
28.8 0.8 0
29.1 0.8 0
29.4 0.8 0
29.7 0.8 0
30 0.8 0
30.3 0.8 0
0 0.9 0
0.3 0.9 0
0.6 0.9 0
0.9 0.9 0
1.2 0.9 0
1.5 0.9 0
1.8 0.9 0
2.1 0.9 0
2.4 0.9 0
2.7 0.9 0
3 0.9 0
3.3 0.9 0
3.6 0.9 0
3.9 0.9 0
4.2 0.9 0
4.5 0.9 0
4.8 0.9 0
5.1 0.9 0
5.4 0.9 0
5.7 0.9 0
6 0.9 0
6.3 0.9 0
6.6 0.9 0
6.9 0.9 0
7.2 0.9 0
7.5 0.9 0
7.8 0.9 0
8.1 0.9 0
8.4 0.9 0
8.7 0.9 0
9 0.9 0
9.3 0.9 0
9.6 0.9 0
9.9 0.9 0
10.2 0.9 0
10.5 0.9 0
10.8 0.9 0
11.1 0.9 0
11.4 0.9 0
11.7 0.9 0
12 0.9 0
12.3 0.9 0
12.6 0.9 0
12.9 0.9 0
13.2 0.9 0
13.5 0.9 0
13.8 0.9 0
14.1 0.9 0
14.4 0.9 0
14.7 0.9 0
15 0.9 0
15.3 0.9 0
15.6 0.9 0
15.9 0.9 0
16.2 0.9 0
16.5 0.9 0
16.8 0.9 0
17.1 0.9 0
17.4 0.9 0
17.7 0.9 0
18 0.9 0
18.3 0.9 0
18.6 0.9 0
18.9 0.9 0
19.2 0.9 0
19.5 0.9 0
19.8 0.9 0
20.1 0.9 0
20.4 0.9 0
20.7 0.9 0
21 0.9 0
21.3 0.9 0
21.6 0.9 0
21.9 0.9 0
22.2 0.9 0
22.5 0.9 0
22.8 0.9 0
23.1 0.9 0
23.4 0.9 0
23.7 0.9 0
24 0.9 0
24.3 0.9 0
24.6 0.9 0
24.9 0.9 0
25.2 0.9 0
25.5 0.9 0
25.8 0.9 0
26.1 0.9 0
26.4 0.9 0
26.7 0.9 0
27 0.9 0
27.3 0.9 0
27.6 0.9 0
27.9 0.9 0
28.2 0.9 0
28.5 0.9 0
28.8 0.9 0
29.1 0.9 0
29.4 0.9 0
29.7 0.9 0
30 0.9 0
30.3 0.9 0
0 1 0
0.3 1 0
0.6 1 0
0.9 1 0
1.2 1 0
1.5 1 0
1.8 1 0
2.1 1 0
2.4 1 0
2.7 1 0
3 1 0
3.3 1 0
3.6 1 0
3.9 1 0
4.2 1 0
4.5 1 0
4.8 1 0
5.1 1 0
5.4 1 0
5.7 1 0
6 1 0
6.3 1 0
6.6 1 0
6.9 1 0
7.2 1 0
7.5 1 0
7.8 1 0
8.1 1 0
8.4 1 0
8.7 1 0
9 1 0
9.3 1 0
9.6 1 0
9.9 1 0
10.2 1 0
10.5 1 0
10.8 1 0
11.1 1 0
11.4 1 0
11.7 1 0
12 1 0
12.3 1 0
12.6 1 0
12.9 1 0
13.2 1 0
13.5 1 0
13.8 1 0
14.1 1 0
14.4 1 0
14.7 1 0
15 1 0
15.3 1 0
15.6 1 0
15.9 1 0
16.2 1 0
16.5 1 0
16.8 1 0
17.1 1 0
17.4 1 0
17.7 1 0
18 1 0
18.3 1 0
18.6 1 0
18.9 1 0
19.2 1 0
19.5 1 0
19.8 1 0
20.1 1 0
20.4 1 0
20.7 1 0
21 1 0
21.3 1 0
21.6 1 0
21.9 1 0
22.2 1 0
22.5 1 0
22.8 1 0
23.1 1 0
23.4 1 0
23.7 1 0
24 1 0
24.3 1 0
24.6 1 0
24.9 1 0
25.2 1 0
25.5 1 0
25.8 1 0
26.1 1 0
26.4 1 0
26.7 1 0
27 1 0
27.3 1 0
27.6 1 0
27.9 1 0
28.2 1 0
28.5 1 0
28.8 1 0
29.1 1 0
29.4 1 0
29.7 1 0
30 1 0
30.3 1 0
0 1.1 0
0.3 1.1 0
0.6 1.1 0
0.9 1.1 0
1.2 1.1 0
1.5 1.1 0
1.8 1.1 0
2.1 1.1 0
2.4 1.1 0
2.7 1.1 0
3 1.1 0
3.3 1.1 0
3.6 1.1 0
3.9 1.1 0
4.2 1.1 0
4.5 1.1 0
4.8 1.1 0
5.1 1.1 0
5.4 1.1 0
5.7 1.1 0
6 1.1 0
6.3 1.1 0
6.6 1.1 0
6.9 1.1 0
7.2 1.1 0
7.5 1.1 0
7.8 1.1 0
8.1 1.1 0
8.4 1.1 0
8.7 1.1 0
9 1.1 0
9.3 1.1 0
9.6 1.1 0
9.9 1.1 0
10.2 1.1 0
10.5 1.1 0
10.8 1.1 0
11.1 1.1 0
11.4 1.1 0
11.7 1.1 0
12 1.1 0
12.3 1.1 0
12.6 1.1 0
12.9 1.1 0
13.2 1.1 0
13.5 1.1 0
13.8 1.1 0
14.1 1.1 0
14.4 1.1 0
14.7 1.1 0
15 1.1 0
15.3 1.1 0
15.6 1.1 0
15.9 1.1 0
16.2 1.1 0
16.5 1.1 0
16.8 1.1 0
17.1 1.1 0
17.4 1.1 0
17.7 1.1 0
18 1.1 0
18.3 1.1 0
18.6 1.1 0
18.9 1.1 0
19.2 1.1 0
19.5 1.1 0
19.8 1.1 0
20.1 1.1 0
20.4 1.1 0
20.7 1.1 0
21 1.1 0
21.3 1.1 0
21.6 1.1 0
21.9 1.1 0
22.2 1.1 0
22.5 1.1 0
22.8 1.1 0
23.1 1.1 0
23.4 1.1 0
23.7 1.1 0
24 1.1 0
24.3 1.1 0
24.6 1.1 0
24.9 1.1 0
25.2 1.1 0
25.5 1.1 0
25.8 1.1 0
26.1 1.1 0
26.4 1.1 0
26.7 1.1 0
27 1.1 0
27.3 1.1 0
27.6 1.1 0
27.9 1.1 0
28.2 1.1 0
28.5 1.1 0
28.8 1.1 0
29.1 1.1 0
29.4 1.1 0
29.7 1.1 0
30 1.1 0
30.3 1.1 0

POINT_DATA 1224

VECTORS velocity double
LOOKUP_TABLE default
-1 0 0
-0.982197 0 0
-0.979453 0 0
-0.97905 0 0
-0.97898 0 0
-0.978965 0 0
-0.978961 0 0
-0.978958 0 0
-0.978956 0 0
-0.978953 0 0
-0.978951 0 0
-0.978949 0 0
-0.978946 0 0
-0.978944 0 0
-0.978942 0 0
-0.97894 0 0
-0.978938 0 0
-0.978935 0 0
-0.978933 0 0
-0.978931 0 0
-0.978929 0 0
-0.978927 0 0
-0.978925 0 0
-0.978923 0 0
-0.978921 0 0
-0.978919 0 0
-0.978917 0 0
-0.978916 0 0
-0.978914 0 0
-0.978912 0 0
-0.97891 0 0
-0.978909 0 0
-0.978907 0 0
-0.978906 0 0
-0.978904 0 0
-0.978903 0 0
-0.978901 0 0
-0.9789 0 0
-0.978898 0 0
-0.978897 0 0
-0.978896 0 0
-0.978895 0 0
-0.978894 0 0
-0.978893 0 0
-0.978892 0 0
-0.978891 0 0
-0.97889 0 0
-0.978889 0 0
-0.978888 0 0
-0.978887 0 0
-0.978887 0 0
-0.978886 0 0
-0.978886 0 0
-0.978885 0 0
-0.978885 0 0
-0.978884 0 0
-0.978884 0 0
-0.978884 0 0
-0.978884 0 0
-0.978883 0 0
-0.978883 0 0
-0.978883 0 0
-0.978883 0 0
-0.978883 0 0
-0.978883 0 0
-0.978884 0 0
-0.978884 0 0
-0.978884 0 0
-0.978885 0 0
-0.978885 0 0
-0.978885 0 0
-0.978886 0 0
-0.978886 0 0
-0.978887 0 0
-0.978888 0 0
-0.978888 0 0
-0.978889 0 0
-0.97889 0 0
-0.97889 0 0
-0.978891 0 0
-0.978892 0 0
-0.978893 0 0
-0.978894 0 0
-0.978895 0 0
-0.978896 0 0
-0.978897 0 0
-0.978898 0 0
-0.978899 0 0
-0.9789 0 0
-0.978902 0 0
-0.978903 0 0
-0.978904 0 0
-0.978905 0 0
-0.978906 0 0
-0.978908 0 0
-0.97891 0 0
-0.978914 0 0
-0.978935 0 0
-0.979046 0 0
-0.979825 0 0
-0.979825 0 0
-1 0 0
1 -0.00593115 0
0.982197 0.00593115 0
0.979453 0.00091152 0
0.97905 0.000131254 0
0.97898 2.01777e-05 0
0.978965 1.77015e-06 0
0.978961 -1.53738e-06 0
0.978958 -2.13836e-06 0
0.978956 -2.23662e-06 0
0.978953 -2.23978e-06 0
0.978951 -2.22394e-06 0
0.978949 -2.20324e-06 0
0.978946 -2.18027e-06 0
0.978944 -2.15549e-06 0
0.978942 -2.12899e-06 0
0.97894 -2.1008e-06 0
0.978938 -2.07094e-06 0
0.978935 -2.03945e-06 0
0.978933 -2.00635e-06 0
0.978931 -1.97168e-06 0
0.978929 -1.93547e-06 0
0.978927 -1.89776e-06 0
0.978925 -1.85858e-06 0
0.978923 -1.81798e-06 0
0.978921 -1.77599e-06 0
0.978919 -1.73265e-06 0
0.978917 -1.68802e-06 0
0.978916 -1.64212e-06 0
0.978914 -1.59501e-06 0
0.978912 -1.54674e-06 0
0.97891 -1.49734e-06 0
0.978909 -1.44688e-06 0
0.978907 -1.39539e-06 0
0.978906 -1.34293e-06 0
0.978904 -1.28955e-06 0
0.978903 -1.23531e-06 0
0.978901 -1.18024e-06 0
0.9789 -1.12442e-06 0
0.978898 -1.0679e-06 0
0.978897 -1.01072e-06 0
0.978896 -9.52953e-07 0
0.978895 -8.94647e-07 0
0.978894 -8.35861e-07 0
0.978893 -7.76654e-07 0
0.978892 -7.17083e-07 0
0.978891 -6.57208e-07 0
0.97889 -5.97087e-07 0
0.978889 -5.3678e-07 0
0.978888 -4.76346e-07 0
0.978887 -4.15846e-07 0
0.978887 -3.55351e-07 0
0.978886 -2.95129e-07 0
0.978886 -2.34919e-07 0
0.978885 -1.74758e-07 0
0.978885 -1.14819e-07 0
0.978884 -5.51707e-08 0
0.978884 4.12767e-09 0
0.978884 6.30167e-08 0
0.978884 1.21438e-07 0
0.978883 1.79333e-07 0
0.978883 2.36644e-07 0
0.978883 2.93315e-07 0
0.978883 3.49288e-07 0
0.978883 4.04509e-07 0
0.978883 4.58921e-07 0
0.978884 5.12471e-07 0
0.978884 5.65105e-07 0
0.978884 6.16771e-07 0
0.978885 6.67417e-07 0
0.978885 7.16993e-07 0
0.978885 7.6545e-07 0
0.978886 8.12738e-07 0
0.978886 8.58811e-07 0
0.978887 9.03623e-07 0
0.978888 9.47129e-07 0
0.978888 9.89287e-07 0
0.978889 1.03005e-06 0
0.97889 1.06939e-06 0
0.97889 1.10726e-06 0
0.978891 1.14361e-06 0
0.978892 1.17843e-06 0
0.978893 1.21167e-06 0
0.978894 1.2433e-06 0
0.978895 1.27328e-06 0
0.978896 1.3016e-06 0
0.978897 1.32821e-06 0
0.978898 1.35311e-06 0
0.978899 1.37625e-06 0
0.9789 1.39763e-06 0
0.978902 1.4172e-06 0
0.978903 1.43491e-06 0
0.978904 1.4506e-06 0
0.978905 1.46341e-06 0
0.978906 1.46909e-06 0
0.978908 1.44546e-06 0
0.97891 1.27573e-06 0
0.978914 3.3544e-07 0
0.978935 -4.83281e-06 0
0.979046 -3.52283e-05 0
0.979825 -0.00025748 0
0.979825 -0.00170638 0
1 -0.00170638 0
1 -0.00406568 0
1.00559 0.00406568 0
1.00536 0.000987557 0
1.0052 0.000185347 0
1.00516 3.25315e-05 0
1.00515 4.16382e-06 0
1.00514 -1.12853e-06 0
1.00514 -2.10721e-06 0
1.00514 -2.27539e-06 0
1.00513 -2.29078e-06 0
1.00513 -2.27661e-06 0
1.00513 -2.25572e-06 0
1.00513 -2.23225e-06 0
1.00512 -2.20691e-06 0
1.00512 -2.17983e-06 0
1.00512 -2.15102e-06 0
1.00511 -2.12052e-06 0
1.00511 -2.08835e-06 0
1.00511 -2.05455e-06 0
1.00511 -2.01914e-06 0
1.00511 -1.98217e-06 0
1.0051 -1.94366e-06 0
1.0051 -1.90365e-06 0
1.0051 -1.86219e-06 0
1.0051 -1.81932e-06 0
1.00509 -1.77507e-06 0
1.00509 -1.7295e-06 0
1.00509 -1.68264e-06 0
1.00509 -1.63454e-06 0
1.00509 -1.58525e-06 0
1.00508 -1.53482e-06 0
1.00508 -1.48329e-06 0
1.00508 -1.43073e-06 0
1.00508 -1.37717e-06 0
1.00508 -1.32267e-06 0
1.00508 -1.26729e-06 0
1.00507 -1.21108e-06 0
1.00507 -1.1541e-06 0
1.00507 -1.09639e-06 0
1.00507 -1.03802e-06 0
1.00507 -9.79048e-07 0
1.00507 -9.19527e-07 0
1.00507 -8.59517e-07 0
1.00507 -7.99077e-07 0
1.00506 -7.38268e-07 0
1.00506 -6.77148e-07 0
1.00506 -6.15779e-07 0
1.00506 -5.5422e-07 0
1.00506 -4.92534e-07 0
1.00506 -4.30782e-07 0
1.00506 -3.6903e-07 0
1.00506 -3.07312e-07 0
1.00506 -2.45722e-07 0
1.00506 -1.84316e-07 0
1.00506 -1.23144e-07 0
1.00506 -6.22713e-08 0
1.00506 -1.75781e-09 0
1.00506 5.83358e-08 0
1.00506 1.1795e-07 0
1.00506 1.77024e-07 0
1.00506 2.35501e-07 0
1.00506 2.93321e-07 0
1.00506 3.50428e-07 0
1.00506 4.06763e-07 0
1.00506 4.62272e-07 0
1.00506 5.16898e-07 0
1.00506 5.70587e-07 0
1.00506 6.23285e-07 0
1.00506 6.74941e-07 0
1.00506 7.25502e-07 0
1.00507 7.74918e-07 0
1.00507 8.23139e-07 0
1.00507 8.70119e-07 0
1.00507 9.1581e-07 0
1.00507 9.60166e-07 0
1.00507 1.00314e-06 0
1.00507 1.0447e-06 0
1.00507 1.0848e-06 0
1.00507 1.12339e-06 0
1.00508 1.16044e-06 0
1.00508 1.19592e-06 0
1.00508 1.22979e-06 0
1.00508 1.26201e-06 0
1.00508 1.29255e-06 0
1.00508 1.32139e-06 0
1.00509 1.3485e-06 0
1.00509 1.37385e-06 0
1.00509 1.39741e-06 0
1.00509 1.41915e-06 0
1.00509 1.43906e-06 0
1.00509 1.45704e-06 0
1.0051 1.47281e-06 0
1.0051 1.485e-06 0
1.0051 1.48665e-06 0
1.0051 1.44158e-06 0
1.0051 1.16016e-06 0
1.00511 -3.58449e-07 0
1.00512 -8.44551e-06 0
1.00517 -5.18844e-05 0
1.00525 -0.000284789 0
1.00525 -0.00129765 0
1 -0.00129765 0
1 -0.00253254 0
1.0046 0.00253254 0
1.00522 0.000776852 0
1.00528 0.000166928 0
1.00528 3.10837e-05 0
1.00528 3.9966e-06 0
1.00527 -1.19777e-06 0
1.00527 -2.16523e-06 0
1.00527 -2.33033e-06 0
1.00526 -2.34429e-06 0
1.00526 -2.32927e-06 0
1.00526 -2.30776e-06 0
1.00526 -2.28373e-06 0
1.00525 -2.25785e-06 0
1.00525 -2.2302e-06 0
1.00525 -2.20081e-06 0
1.00525 -2.16969e-06 0
1.00524 -2.13687e-06 0
1.00524 -2.10239e-06 0
1.00524 -2.06627e-06 0
1.00524 -2.02855e-06 0
1.00523 -1.98926e-06 0
1.00523 -1.94845e-06 0
1.00523 -1.90616e-06 0
1.00523 -1.86243e-06 0
1.00523 -1.81729e-06 0
1.00522 -1.7708e-06 0
1.00522 -1.723e-06 0
1.00522 -1.67394e-06 0
1.00522 -1.62367e-06 0
1.00522 -1.57222e-06 0
1.00521 -1.51967e-06 0
1.00521 -1.46605e-06 0
1.00521 -1.41142e-06 0
1.00521 -1.35583e-06 0
1.00521 -1.29934e-06 0
1.00521 -1.24201e-06 0
1.0052 -1.18388e-06 0
1.0052 -1.12502e-06 0
1.0052 -1.06548e-06 0
1.0052 -1.00533e-06 0
1.0052 -9.44619e-07 0
1.0052 -8.83409e-07 0
1.0052 -8.21762e-07 0
1.0052 -7.59738e-07 0
1.0052 -6.97398e-07 0
1.00519 -6.34804e-07 0
1.00519 -5.72018e-07 0
1.00519 -5.09103e-07 0
1.00519 -4.4612e-07 0
1.00519 -3.83135e-07 0
1.00519 -3.20195e-07 0
1.00519 -2.57382e-07 0
1.00519 -1.94754e-07 0
1.00519 -1.3237e-07 0
1.00519 -7.02905e-08 0
1.00519 -8.57961e-09 0
1.00519 5.27017e-08 0
1.00519 1.13492e-07 0
1.00519 1.73731e-07 0
1.00519 2.33359e-07 0
1.00519 2.92316e-07 0
1.00519 3.50544e-07 0
1.00519 4.07983e-07 0
1.00519 4.64577e-07 0
1.00519 5.2027e-07 0
1.00519 5.75006e-07 0
1.0052 6.2873e-07 0
1.0052 6.81389e-07 0
1.0052 7.3293e-07 0
1.0052 7.83302e-07 0
1.0052 8.32454e-07 0
1.0052 8.80339e-07 0
1.0052 9.26907e-07 0
1.0052 9.72114e-07 0
1.0052 1.01591e-06 0
1.0052 1.05826e-06 0
1.00521 1.09912e-06 0
1.00521 1.13845e-06 0
1.00521 1.1762e-06 0
1.00521 1.21235e-06 0
1.00521 1.24685e-06 0
1.00521 1.27967e-06 0
1.00521 1.31079e-06 0
1.00522 1.34017e-06 0
1.00522 1.36777e-06 0
1.00522 1.39359e-06 0
1.00522 1.41758e-06 0
1.00522 1.43972e-06 0
1.00522 1.45998e-06 0
1.00523 1.47827e-06 0
1.00523 1.4943e-06 0
1.00523 1.50667e-06 0
1.00523 1.50834e-06 0
1.00523 1.46298e-06 0
1.00523 1.18148e-06 0
1.00524 -3.20946e-07 0
1.00524 -8.11857e-06 0
1.00522 -4.74121e-05 0
1.00506 -0.00022876 0
1.00506 -0.000865634 0
1 -0.000865634 0
1 -0.00121584 0
1.00395 0.00121584 0
1.00502 0.000417742 0
1.00523 9.54706e-05 0
1.00527 1.75499e-05 0
1.00527 1.39714e-06 0
1.00527 -1.73638e-06 0
1.00527 -2.31213e-06 0
1.00527 -2.4018e-06 0
1.00527 -2.40075e-06 0
1.00526 -2.38239e-06 0
1.00526 -2.35981e-06 0
1.00526 -2.33517e-06 0
1.00525 -2.30873e-06 0
1.00525 -2.28052e-06 0
1.00525 -2.25054e-06 0
1.00525 -2.21881e-06 0
1.00524 -2.18534e-06 0
1.00524 -2.15017e-06 0
1.00524 -2.11334e-06 0
1.00524 -2.07488e-06 0
1.00523 -2.03482e-06 0
1.00523 -1.99321e-06 0
1.00523 -1.95009e-06 0
1.00523 -1.90549e-06 0
1.00523 -1.85947e-06 0
1.00522 -1.81207e-06 0
1.00522 -1.76333e-06 0
1.00522 -1.71331e-06 0
1.00522 -1.66205e-06 0
1.00522 -1.6096e-06 0
1.00521 -1.55601e-06 0
1.00521 -1.50134e-06 0
1.00521 -1.44564e-06 0
1.00521 -1.38896e-06 0
1.00521 -1.33137e-06 0
1.00521 -1.27291e-06 0
1.0052 -1.21364e-06 0
1.0052 -1.15363e-06 0
1.0052 -1.09293e-06 0
1.0052 -1.0316e-06 0
1.0052 -9.69696e-07 0
1.0052 -9.07289e-07 0
1.0052 -8.44436e-07 0
1.0052 -7.81199e-07 0
1.0052 -7.17641e-07 0
1.0052 -6.53825e-07 0
1.00519 -5.89813e-07 0
1.00519 -5.25669e-07 0
1.00519 -4.61458e-07 0
1.00519 -3.97243e-07 0
1.00519 -3.33083e-07 0
1.00519 -2.69049e-07 0
1.00519 -2.05203e-07 0
1.00519 -1.41606e-07 0
1.00519 -7.8323e-08 0
1.00519 -1.54165e-08 0
1.00519 4.70507e-08 0
1.00519 1.09016e-07 0
1.00519 1.70418e-07 0
1.00519 2.31195e-07 0
1.00519 2.91287e-07 0
1.00519 3.50634e-07 0
1.00519 4.09175e-07 0
1.00519 4.66854e-07 0
1.00519 5.23612e-07 0
1.00519 5.79393e-07 0
1.0052 6.34141e-07 0
1.0052 6.87802e-07 0
1.0052 7.40321e-07 0
1.0052 7.91647e-07 0
1.0052 8.41729e-07 0
1.0052 8.90517e-07 0
1.0052 9.37963e-07 0
1.0052 9.84018e-07 0
1.0052 1.02864e-06 0
1.0052 1.07178e-06 0
1.00521 1.1134e-06 0
1.00521 1.15346e-06 0
1.00521 1.19191e-06 0
1.00521 1.22872e-06 0
1.00521 1.26386e-06 0
1.00521 1.29729e-06 0
1.00521 1.32897e-06 0
1.00522 1.35889e-06 0
1.00522 1.38699e-06 0
1.00522 1.41327e-06 0
1.00522 1.43769e-06 0
1.00522 1.46023e-06 0
1.00522 1.48085e-06 0
1.00523 1.49949e-06 0
1.00523 1.51593e-06 0
1.00523 1.52925e-06 0
1.00523 1.53498e-06 0
1.00523 1.51034e-06 0
1.00523 1.33819e-06 0
1.00523 4.15762e-07 0
1.00522 -4.29238e-06 0
1.00516 -2.71287e-05 0
1.00485 -0.000124764 0
1.00485 -0.000432524 0
1 -0.000432524 0
1 2.06533e-06 0
1.00365 -2.06533e-06 0
1.00491 -4.1814e-06 0
1.00521 -3.30516e-06 0
1.00526 -2.84775e-06 0
1.00527 -2.64863e-06 0
1.00527 -2.55891e-06 0
1.00527 -2.51276e-06 0
1.00527 -2.48307e-06 0
1.00527 -2.45886e-06 0
1.00526 -2.43571e-06 0
1.00526 -2.41183e-06 0
1.00526 -2.38654e-06 0
1.00525 -2.35955e-06 0
1.00525 -2.33079e-06 0
1.00525 -2.30022e-06 0
1.00525 -2.26787e-06 0
1.00524 -2.23376e-06 0
1.00524 -2.19791e-06 0
1.00524 -2.16036e-06 0
1.00524 -2.12116e-06 0
1.00523 -2.08033e-06 0
1.00523 -2.03792e-06 0
1.00523 -1.99397e-06 0
1.00523 -1.94851e-06 0
1.00523 -1.90161e-06 0
1.00522 -1.8533e-06 0
1.00522 -1.80362e-06 0
1.00522 -1.75264e-06 0
1.00522 -1.70039e-06 0
1.00522 -1.64693e-06 0
1.00521 -1.59232e-06 0
1.00521 -1.5366e-06 0
1.00521 -1.47983e-06 0
1.00521 -1.42207e-06 0
1.00521 -1.36336e-06 0
1.00521 -1.30378e-06 0
1.0052 -1.24338e-06 0
1.0052 -1.18222e-06 0
1.0052 -1.12035e-06 0
1.0052 -1.05784e-06 0
1.0052 -9.94757e-07 0
1.0052 -9.31154e-07 0
1.0052 -8.67097e-07 0
1.0052 -8.02649e-07 0
1.0052 -7.37875e-07 0
1.0052 -6.72838e-07 0
1.00519 -6.07602e-07 0
1.00519 -5.42233e-07 0
1.00519 -4.76794e-07 0
1.00519 -4.11353e-07 0
1.00519 -3.45974e-07 0
1.00519 -2.80721e-07 0
1.00519 -2.15658e-07 0
1.00519 -1.50852e-07 0
1.00519 -8.63663e-08 0
1.00519 -2.22661e-08 0
1.00519 4.13849e-08 0
1.00519 1.04523e-07 0
1.00519 1.67086e-07 0
1.00519 2.29011e-07 0
1.00519 2.90236e-07 0
1.00519 3.50699e-07 0
1.00519 4.10342e-07 0
1.00519 4.69103e-07 0
1.00519 5.26924e-07 0
1.00519 5.83749e-07 0
1.0052 6.39519e-07 0
1.0052 6.94179e-07 0
1.0052 7.47676e-07 0
1.0052 7.99955e-07 0
1.0052 8.50965e-07 0
1.0052 9.00654e-07 0
1.0052 9.48975e-07 0
1.0052 9.95878e-07 0
1.0052 1.04132e-06 0
1.0052 1.08525e-06 0
1.00521 1.12763e-06 0
1.00521 1.16842e-06 0
1.00521 1.20757e-06 0
1.00521 1.24505e-06 0
1.00521 1.28082e-06 0
1.00521 1.31485e-06 0
1.00521 1.3471e-06 0
1.00522 1.37755e-06 0
1.00522 1.40616e-06 0
1.00522 1.4329e-06 0
1.00522 1.45775e-06 0
1.00522 1.48069e-06 0
1.00522 1.50167e-06 0
1.00523 1.52067e-06 0
1.00523 1.53763e-06 0
1.00523 1.5524e-06 0
1.00523 1.56471e-06 0
1.00523 1.57382e-06 0
1.00523 1.57798e-06 0
1.00523 1.57282e-06 0
1.00522 1.54773e-06 0
1.00513 1.47824e-06 0
1.00476 1.31357e-06 0
1.00476 9.85102e-07 0
1 9.85102e-07 0
1 0.00122014 0
1.00365 -0.00122014 0
1.00491 -0.000426045 0
1.00521 -0.000102022 0
1.00526 -2.32164e-05 0
1.00527 -6.68195e-06 0
1.00527 -3.37631e-06 0
1.00527 -2.71127e-06 0
1.00527 -2.56345e-06 0
1.00527 -2.51658e-06 0
1.00526 -2.48883e-06 0
1.00526 -2.46374e-06 0
1.00526 -2.43782e-06 0
1.00525 -2.4103e-06 0
1.00525 -2.38098e-06 0
1.00525 -2.34984e-06 0
1.00525 -2.31687e-06 0
1.00524 -2.28211e-06 0
1.00524 -2.24559e-06 0
1.00524 -2.20733e-06 0
1.00524 -2.16739e-06 0
1.00523 -2.12579e-06 0
1.00523 -2.08258e-06 0
1.00523 -2.03779e-06 0
1.00523 -1.99149e-06 0
1.00523 -1.9437e-06 0
1.00522 -1.89448e-06 0
1.00522 -1.84387e-06 0
1.00522 -1.79192e-06 0
1.00522 -1.73869e-06 0
1.00522 -1.68423e-06 0
1.00521 -1.62859e-06 0
1.00521 -1.57182e-06 0
1.00521 -1.51399e-06 0
1.00521 -1.45514e-06 0
1.00521 -1.39533e-06 0
1.00521 -1.33463e-06 0
1.0052 -1.27309e-06 0
1.0052 -1.21078e-06 0
1.0052 -1.14775e-06 0
1.0052 -1.08407e-06 0
1.0052 -1.0198e-06 0
1.0052 -9.55003e-07 0
1.0052 -8.89744e-07 0
1.0052 -8.24087e-07 0
1.0052 -7.58099e-07 0
1.0052 -6.91843e-07 0
1.00519 -6.25385e-07 0
1.00519 -5.58792e-07 0
1.00519 -4.9213e-07 0
1.00519 -4.25463e-07 0
1.00519 -3.58867e-07 0
1.00519 -2.92398e-07 0
1.00519 -2.2612e-07 0
1.00519 -1.60106e-07 0
1.00519 -9.4421e-08 0
1.00519 -2.91293e-08 0
1.00519 3.57036e-08 0
1.00519 1.00013e-07 0
1.00519 1.63735e-07 0
1.00519 2.26805e-07 0
1.00519 2.8916e-07 0
1.00519 3.50739e-07 0
1.00519 4.1148e-07 0
1.00519 4.71322e-07 0
1.00519 5.30205e-07 0
1.00519 5.88071e-07 0
1.0052 6.44861e-07 0
1.0052 7.0052e-07 0
1.0052 7.54991e-07 0
1.0052 8.08222e-07 0
1.0052 8.60158e-07 0
1.0052 9.10748e-07 0
1.0052 9.59942e-07 0
1.0052 1.00769e-06 0
1.0052 1.05395e-06 0
1.0052 1.09867e-06 0
1.00521 1.14181e-06 0
1.00521 1.18332e-06 0
1.00521 1.22317e-06 0
1.00521 1.26132e-06 0
1.00521 1.29772e-06 0
1.00521 1.33235e-06 0
1.00521 1.36517e-06 0
1.00522 1.39615e-06 0
1.00522 1.42526e-06 0
1.00522 1.45247e-06 0
1.00522 1.47775e-06 0
1.00522 1.50108e-06 0
1.00522 1.52243e-06 0
1.00523 1.5418e-06 0
1.00523 1.55928e-06 0
1.00523 1.57554e-06 0
1.00523 1.5945e-06 0
1.00523 1.63755e-06 0
1.00523 1.81851e-06 0
1.00523 2.7318e-06 0
1.00522 7.39248e-06 0
1.00513 3.00954e-05 0
1.00476 0.000127408 0
1.00476 0.000434497 0
1 0.000434497 0
1 0.00253737 0
1.00395 -0.00253737 0
1.00502 -0.000784949 0
1.00523 -0.0001733 0
1.00527 -3.66643e-05 0
1.00527 -9.2451e-06 0
1.00527 -3.90002e-06 0
1.00527 -2.85202e-06 0
1.00527 -2.63231e-06 0
1.00527 -2.57188e-06 0
1.00526 -2.54137e-06 0
1.00526 -2.51545e-06 0
1.00526 -2.48901e-06 0
1.00525 -2.46097e-06 0
1.00525 -2.43111e-06 0
1.00525 -2.39939e-06 0
1.00525 -2.36581e-06 0
1.00524 -2.33041e-06 0
1.00524 -2.2932e-06 0
1.00524 -2.25424e-06 0
1.00524 -2.21356e-06 0
1.00523 -2.17119e-06 0
1.00523 -2.12718e-06 0
1.00523 -2.08157e-06 0
1.00523 -2.03441e-06 0
1.00523 -1.98574e-06 0
1.00522 -1.93561e-06 0
1.00522 -1.88407e-06 0
1.00522 -1.83116e-06 0
1.00522 -1.77695e-06 0
1.00522 -1.72149e-06 0
1.00521 -1.66482e-06 0
1.00521 -1.60701e-06 0
1.00521 -1.54811e-06 0
1.00521 -1.48817e-06 0
1.00521 -1.42727e-06 0
1.00521 -1.36545e-06 0
1.0052 -1.30278e-06 0
1.0052 -1.23932e-06 0
1.0052 -1.17513e-06 0
1.0052 -1.11027e-06 0
1.0052 -1.04482e-06 0
1.0052 -9.78834e-07 0
1.0052 -9.12376e-07 0
1.0052 -8.45513e-07 0
1.0052 -7.78312e-07 0
1.0052 -7.1084e-07 0
1.00519 -6.43163e-07 0
1.00519 -5.75349e-07 0
1.00519 -5.07463e-07 0
1.00519 -4.39572e-07 0
1.00519 -3.71764e-07 0
1.00519 -3.0408e-07 0
1.00519 -2.3659e-07 0
1.00519 -1.69371e-07 0
1.00519 -1.02488e-07 0
1.00519 -3.60069e-08 0
1.00519 3.00056e-08 0
1.00519 9.54837e-08 0
1.00519 1.60362e-07 0
1.00519 2.24575e-07 0
1.00519 2.8806e-07 0
1.00519 3.50752e-07 0
1.00519 4.12589e-07 0
1.00519 4.73509e-07 0
1.00519 5.33452e-07 0
1.00519 5.92357e-07 0
1.0052 6.50166e-07 0
1.0052 7.06821e-07 0
1.0052 7.62266e-07 0
1.0052 8.16445e-07 0
1.0052 8.69305e-07 0
1.0052 9.20794e-07 0
1.0052 9.7086e-07 0
1.0052 1.01945e-06 0
1.0052 1.06653e-06 0
1.0052 1.11203e-06 0
1.00521 1.15593e-06 0
1.00521 1.19817e-06 0
1.00521 1.23872e-06 0
1.00521 1.27753e-06 0
1.00521 1.31457e-06 0
1.00521 1.34979e-06 0
1.00521 1.38318e-06 0
1.00522 1.41469e-06 0
1.00522 1.4443e-06 0
1.00522 1.47197e-06 0
1.00522 1.49768e-06 0
1.00522 1.5214e-06 0
1.00522 1.54312e-06 0
1.00523 1.56285e-06 0
1.00523 1.58077e-06 0
1.00523 1.59808e-06 0
1.00523 1.62132e-06 0
1.00523 1.68566e-06 0
1.00523 1.97737e-06 0
1.00523 3.4741e-06 0
1.00522 1.12323e-05 0
1.00516 5.04096e-05 0
1.00485 0.000231455 0
1.00485 0.000867621 0
1 0.000867621 0
1 0.00407149 0
1.0046 -0.00407149 0
1.00523 -0.000995213 0
1.00528 -0.000191413 0
1.00528 -3.79744e-05 0
1.00528 -9.3553e-06 0