# vtk DataFile Version 2.0
FlowField
ASCII
DATASET STRUCTURED_GRID
DIMENSIONS 102 13 1 
POINTS 1326 double
0 0 0
0.3 0 0
0.6 0 0
0.9 0 0
1.2 0 0
1.5 0 0
1.8 0 0
2.1 0 0
2.4 0 0
2.7 0 0
3 0 0
3.3 0 0
3.6 0 0
3.9 0 0
4.2 0 0
4.5 0 0
4.8 0 0
5.1 0 0
5.4 0 0
5.7 0 0
6 0 0
6.3 0 0
6.6 0 0
6.9 0 0
7.2 0 0
7.5 0 0
7.8 0 0
8.1 0 0
8.4 0 0
8.7 0 0
9 0 0
9.3 0 0
9.6 0 0
9.9 0 0
10.2 0 0
10.5 0 0
10.8 0 0
11.1 0 0
11.4 0 0
11.7 0 0
12 0 0
12.3 0 0
12.6 0 0
12.9 0 0
13.2 0 0
13.5 0 0
13.8 0 0
14.1 0 0
14.4 0 0
14.7 0 0
15 0 0
15.3 0 0
15.6 0 0
15.9 0 0
16.2 0 0
16.5 0 0
16.8 0 0
17.1 0 0
17.4 0 0
17.7 0 0
18 0 0
18.3 0 0
18.6 0 0
18.9 0 0
19.2 0 0
19.5 0 0
19.8 0 0
20.1 0 0
20.4 0 0
20.7 0 0
21 0 0
21.3 0 0
21.6 0 0
21.9 0 0
22.2 0 0
22.5 0 0
22.8 0 0
23.1 0 0
23.4 0 0
23.7 0 0
24 0 0
24.3 0 0
24.6 0 0
24.9 0 0
25.2 0 0
25.5 0 0
25.8 0 0
26.1 0 0
26.4 0 0
26.7 0 0
27 0 0
27.3 0 0
27.6 0 0
27.9 0 0
28.2 0 0
28.5 0 0
28.8 0 0
29.1 0 0
29.4 0 0
29.7 0 0
30 0 0
30.3 0 0
0 0.1 0
0.3 0.1 0
0.6 0.1 0
0.9 0.1 0
1.2 0.1 0
1.5 0.1 0
1.8 0.1 0
2.1 0.1 0
2.4 0.1 0
2.7 0.1 0
3 0.1 0
3.3 0.1 0
3.6 0.1 0
3.9 0.1 0
4.2 0.1 0
4.5 0.1 0
4.8 0.1 0
5.1 0.1 0
5.4 0.1 0
5.7 0.1 0
6 0.1 0
6.3 0.1 0
6.6 0.1 0
6.9 0.1 0
7.2 0.1 0
7.5 0.1 0
7.8 0.1 0
8.1 0.1 0
8.4 0.1 0
8.7 0.1 0
9 0.1 0
9.3 0.1 0
9.6 0.1 0
9.9 0.1 0
10.2 0.1 0
10.5 0.1 0
10.8 0.1 0
11.1 0.1 0
11.4 0.1 0
11.7 0.1 0
12 0.1 0
12.3 0.1 0
12.6 0.1 0
12.9 0.1 0
13.2 0.1 0
13.5 0.1 0
13.8 0.1 0
14.1 0.1 0
14.4 0.1 0
14.7 0.1 0
15 0.1 0
15.3 0.1 0
15.6 0.1 0
15.9 0.1 0
16.2 0.1 0
16.5 0.1 0
16.8 0.1 0
17.1 0.1 0
17.4 0.1 0
17.7 0.1 0
18 0.1 0
18.3 0.1 0
18.6 0.1 0
18.9 0.1 0
19.2 0.1 0
19.5 0.1 0
19.8 0.1 0
20.1 0.1 0
20.4 0.1 0
20.7 0.1 0
21 0.1 0
21.3 0.1 0
21.6 0.1 0
21.9 0.1 0
22.2 0.1 0
22.5 0.1 0
22.8 0.1 0
23.1 0.1 0
23.4 0.1 0
23.7 0.1 0
24 0.1 0
24.3 0.1 0
24.6 0.1 0
24.9 0.1 0
25.2 0.1 0
25.5 0.1 0
25.8 0.1 0
26.1 0.1 0
26.4 0.1 0
26.7 0.1 0
27 0.1 0
27.3 0.1 0
27.6 0.1 0
27.9 0.1 0
28.2 0.1 0
28.5 0.1 0
28.8 0.1 0
29.1 0.1 0
29.4 0.1 0
29.7 0.1 0
30 0.1 0
30.3 0.1 0
0 0.2 0
0.3 0.2 0
0.6 0.2 0
0.9 0.2 0
1.2 0.2 0
1.5 0.2 0
1.8 0.2 0
2.1 0.2 0
2.4 0.2 0
2.7 0.2 0
3 0.2 0
3.3 0.2 0
3.6 0.2 0
3.9 0.2 0
4.2 0.2 0
4.5 0.2 0
4.8 0.2 0
5.1 0.2 0
5.4 0.2 0
5.7 0.2 0
6 0.2 0
6.3 0.2 0
6.6 0.2 0
6.9 0.2 0
7.2 0.2 0
7.5 0.2 0
7.8 0.2 0
8.1 0.2 0
8.4 0.2 0
8.7 0.2 0
9 0.2 0
9.3 0.2 0
9.6 0.2 0
9.9 0.2 0
10.2 0.2 0
10.5 0.2 0
10.8 0.2 0
11.1 0.2 0
11.4 0.2 0
11.7 0.2 0
12 0.2 0
12.3 0.2 0
12.6 0.2 0
12.9 0.2 0
13.2 0.2 0
13.5 0.2 0
13.8 0.2 0
14.1 0.2 0
14.4 0.2 0
14.7 0.2 0
15 0.2 0
15.3 0.2 0
15.6 0.2 0
15.9 0.2 0
16.2 0.2 0
16.5 0.2 0
16.8 0.2 0
17.1 0.2 0
17.4 0.2 0
17.7 0.2 0
18 0.2 0
18.3 0.2 0
18.6 0.2 0
18.9 0.2 0
19.2 0.2 0
19.5 0.2 0
19.8 0.2 0
20.1 0.2 0
20.4 0.2 0
20.7 0.2 0
21 0.2 0
21.3 0.2 0
21.6 0.2 0
21.9 0.2 0
22.2 0.2 0
22.5 0.2 0
22.8 0.2 0
23.1 0.2 0
23.4 0.2 0
23.7 0.2 0
24 0.2 0
24.3 0.2 0
24.6 0.2 0
24.9 0.2 0
25.2 0.2 0
25.5 0.2 0
25.8 0.2 0
26.1 0.2 0
26.4 0.2 0
26.7 0.2 0
27 0.2 0
27.3 0.2 0
27.6 0.2 0
27.9 0.2 0
28.2 0.2 0
28.5 0.2 0
28.8 0.2 0
29.1 0.2 0
29.4 0.2 0
29.7 0.2 0
30 0.2 0
30.3 0.2 0
0 0.3 0
0.3 0.3 0
0.6 0.3 0
0.9 0.3 0
1.2 0.3 0
1.5 0.3 0
1.8 0.3 0
2.1 0.3 0
2.4 0.3 0
2.7 0.3 0
3 0.3 0
3.3 0.3 0
3.6 0.3 0
3.9 0.3 0
4.2 0.3 0
4.5 0.3 0
4.8 0.3 0
5.1 0.3 0
5.4 0.3 0
5.7 0.3 0
6 0.3 0
6.3 0.3 0
6.6 0.3 0
6.9 0.3 0
7.2 0.3 0
7.5 0.3 0
7.8 0.3 0
8.1 0.3 0
8.4 0.3 0
8.7 0.3 0
9 0.3 0
9.3 0.3 0
9.6 0.3 0
9.9 0.3 0
10.2 0.3 0
10.5 0.3 0
10.8 0.3 0
11.1 0.3 0
11.4 0.3 0
11.7 0.3 0
12 0.3 0
12.3 0.3 0
12.6 0.3 0
12.9 0.3 0
13.2 0.3 0
13.5 0.3 0
13.8 0.3 0
14.1 0.3 0
14.4 0.3 0
14.7 0.3 0
15 0.3 0
15.3 0.3 0
15.6 0.3 0
15.9 0.3 0
16.2 0.3 0
16.5 0.3 0
16.8 0.3 0
17.1 0.3 0
17.4 0.3 0
17.7 0.3 0
18 0.3 0
18.3 0.3 0
18.6 0.3 0
18.9 0.3 0
19.2 0.3 0
19.5 0.3 0
19.8 0.3 0
20.1 0.3 0
20.4 0.3 0
20.7 0.3 0
21 0.3 0
21.3 0.3 0
21.6 0.3 0
21.9 0.3 0
22.2 0.3 0
22.5 0.3 0
22.8 0.3 0
23.1 0.3 0
23.4 0.3 0
23.7 0.3 0
24 0.3 0
24.3 0.3 0
24.6 0.3 0
24.9 0.3 0
25.2 0.3 0
25.5 0.3 0
25.8 0.3 0
26.1 0.3 0
26.4 0.3 0
26.7 0.3 0
27 0.3 0
27.3 0.3 0
27.6 0.3 0
27.9 0.3 0
28.2 0.3 0
28.5 0.3 0
28.8 0.3 0
29.1 0.3 0
29.4 0.3 0
29.7 0.3 0
30 0.3 0
30.3 0.3 0
0 0.4 0
0.3 0.4 0
0.6 0.4 0
0.9 0.4 0
1.2 0.4 0
1.5 0.4 0
1.8 0.4 0
2.1 0.4 0
2.4 0.4 0
2.7 0.4 0
3 0.4 0
3.3 0.4 0
3.6 0.4 0
3.9 0.4 0
4.2 0.4 0
4.5 0.4 0
4.8 0.4 0
5.1 0.4 0
5.4 0.4 0
5.7 0.4 0
6 0.4 0
6.3 0.4 0
6.6 0.4 0
6.9 0.4 0
7.2 0.4 0
7.5 0.4 0
7.8 0.4 0
8.1 0.4 0
8.4 0.4 0
8.7 0.4 0
9 0.4 0
9.3 0.4 0
9.6 0.4 0
9.9 0.4 0
10.2 0.4 0
10.5 0.4 0
10.8 0.4 0
11.1 0.4 0
11.4 0.4 0
11.7 0.4 0
12 0.4 0
12.3 0.4 0
12.6 0.4 0
12.9 0.4 0
13.2 0.4 0
13.5 0.4 0
13.8 0.4 0
14.1 0.4 0
14.4 0.4 0
14.7 0.4 0
15 0.4 0
15.3 0.4 0
15.6 0.4 0
15.9 0.4 0
16.2 0.4 0
16.5 0.4 0
16.8 0.4 0
17.1 0.4 0
17.4 0.4 0
17.7 0.4 0
18 0.4 0
18.3 0.4 0
18.6 0.4 0
18.9 0.4 0
19.2 0.4 0
19.5 0.4 0
19.8 0.4 0
20.1 0.4 0
20.4 0.4 0
20.7 0.4 0
21 0.4 0
21.3 0.4 0
21.6 0.4 0
21.9 0.4 0
22.2 0.4 0
22.5 0.4 0
22.8 0.4 0
23.1 0.4 0
23.4 0.4 0
23.7 0.4 0
24 0.4 0
24.3 0.4 0
24.6 0.4 0
24.9 0.4 0
25.2 0.4 0
25.5 0.4 0
25.8 0.4 0
26.1 0.4 0
26.4 0.4 0
26.7 0.4 0
27 0.4 0
27.3 0.4 0
27.6 0.4 0
27.9 0.4 0
28.2 0.4 0
28.5 0.4 0
28.8 0.4 0
29.1 0.4 0
29.4 0.4 0
29.7 0.4 0
30 0.4 0
30.3 0.4 0
0 0.5 0
0.3 0.5 0
0.6 0.5 0
0.9 0.5 0
1.2 0.5 0
1.5 0.5 0
1.8 0.5 0
2.1 0.5 0
2.4 0.5 0
2.7 0.5 0
3 0.5 0
3.3 0.5 0
3.6 0.5 0
3.9 0.5 0
4.2 0.5 0
4.5 0.5 0
4.8 0.5 0
5.1 0.5 0
5.4 0.5 0
5.7 0.5 0
6 0.5 0
6.3 0.5 0
6.6 0.5 0
6.9 0.5 0
7.2 0.5 0
7.5 0.5 0
7.8 0.5 0
8.1 0.5 0
8.4 0.5 0
8.7 0.5 0
9 0.5 0
9.3 0.5 0
9.6 0.5 0
9.9 0.5 0
10.2 0.5 0
10.5 0.5 0
10.8 0.5 0
11.1 0.5 0
11.4 0.5 0
11.7 0.5 0
12 0.5 0
12.3 0.5 0
12.6 0.5 0
12.9 0.5 0
13.2 0.5 0
13.5 0.5 0
13.8 0.5 0
14.1 0.5 0
14.4 0.5 0
14.7 0.5 0
15 0.5 0
15.3 0.5 0
15.6 0.5 0
15.9 0.5 0
16.2 0.5 0
16.5 0.5 0
16.8 0.5 0
17.1 0.5 0
17.4 0.5 0
17.7 0.5 0
18 0.5 0
18.3 0.5 0
18.6 0.5 0
18.9 0.5 0
19.2 0.5 0
19.5 0.5 0
19.8 0.5 0
20.1 0.5 0
20.4 0.5 0
20.7 0.5 0
21 0.5 0
21.3 0.5 0
21.6 0.5 0
21.9 0.5 0
22.2 0.5 0
22.5 0.5 0
22.8 0.5 0
23.1 0.5 0
23.4 0.5 0
23.7 0.5 0
24 0.5 0
24.3 0.5 0
24.6 0.5 0
24.9 0.5 0
25.2 0.5 0
25.5 0.5 0
25.8 0.5 0
26.1 0.5 0
26.4 0.5 0
26.7 0.5 0
27 0.5 0
27.3 0.5 0
27.6 0.5 0
27.9 0.5 0
28.2 0.5 0
28.5 0.5 0
28.8 0.5 0
29.1 0.5 0
29.4 0.5 0
29.7 0.5 0
30 0.5 0
30.3 0.5 0
0 0.6 0
0.3 0.6 0
0.6 0.6 0
0.9 0.6 0
1.2 0.6 0
1.5 0.6 0
1.8 0.6 0
2.1 0.6 0
2.4 0.6 0
2.7 0.6 0
3 0.6 0
3.3 0.6 0
3.6 0.6 0
3.9 0.6 0
4.2 0.6 0
4.5 0.6 0
4.8 0.6 0
5.1 0.6 0
5.4 0.6 0
5.7 0.6 0
6 0.6 0
6.3 0.6 0
6.6 0.6 0
6.9 0.6 0
7.2 0.6 0
7.5 0.6 0
7.8 0.6 0
8.1 0.6 0
8.4 0.6 0
8.7 0.6 0
9 0.6 0
9.3 0.6 0
9.6 0.6 0
9.9 0.6 0
10.2 0.6 0
10.5 0.6 0
10.8 0.6 0
11.1 0.6 0
11.4 0.6 0
11.7 0.6 0
12 0.6 0
12.3 0.6 0
12.6 0.6 0
12.9 0.6 0
13.2 0.6 0
13.5 0.6 0
13.8 0.6 0
14.1 0.6 0
14.4 0.6 0
14.7 0.6 0
15 0.6 0
15.3 0.6 0
15.6 0.6 0
15.9 0.6 0
16.2 0.6 0
16.5 0.6 0
16.8 0.6 0
17.1 0.6 0
17.4 0.6 0
17.7 0.6 0
18 0.6 0
18.3 0.6 0
18.6 0.6 0
18.9 0.6 0
19.2 0.6 0
19.5 0.6 0
19.8 0.6 0
20.1 0.6 0
20.4 0.6 0
20.7 0.6 0
21 0.6 0
21.3 0.6 0
21.6 0.6 0
21.9 0.6 0
22.2 0.6 0
22.5 0.6 0
22.8 0.6 0
23.1 0.6 0
23.4 0.6 0
23.7 0.6 0
24 0.6 0
24.3 0.6 0
24.6 0.6 0
24.9 0.6 0
25.2 0.6 0
25.5 0.6 0
25.8 0.6 0
26.1 0.6 0
26.4 0.6 0
26.7 0.6 0
27 0.6 0
27.3 0.6 0
27.6 0.6 0
27.9 0.6 0
28.2 0.6 0
28.5 0.6 0
28.8 0.6 0
29.1 0.6 0
29.4 0.6 0
29.7 0.6 0
30 0.6 0
30.3 0.6 0
0 0.7 0
0.3 0.7 0
0.6 0.7 0
0.9 0.7 0
1.2 0.7 0
1.5 0.7 0
1.8 0.7 0
2.1 0.7 0
2.4 0.7 0
2.7 0.7 0
3 0.7 0
3.3 0.7 0
3.6 0.7 0
3.9 0.7 0
4.2 0.7 0
4.5 0.7 0
4.8 0.7 0
5.1 0.7 0
5.4 0.7 0
5.7 0.7 0
6 0.7 0
6.3 0.7 0
6.6 0.7 0
6.9 0.7 0
7.2 0.7 0
7.5 0.7 0
7.8 0.7 0
8.1 0.7 0
8.4 0.7 0
8.7 0.7 0
9 0.7 0
9.3 0.7 0
9.6 0.7 0
9.9 0.7 0
10.2 0.7 0
10.5 0.7 0
10.8 0.7 0
11.1 0.7 0
11.4 0.7 0
11.7 0.7 0
12 0.7 0
12.3 0.7 0
12.6 0.7 0
12.9 0.7 0
13.2 0.7 0
13.5 0.7 0
13.8 0.7 0
14.1 0.7 0
14.4 0.7 0
14.7 0.7 0
15 0.7 0
15.3 0.7 0
15.6 0.7 0
15.9 0.7 0
16.2 0.7 0
16.5 0.7 0
16.8 0.7 0
17.1 0.7 0
17.4 0.7 0
17.7 0.7 0
18 0.7 0
18.3 0.7 0
18.6 0.7 0
18.9 0.7 0
19.2 0.7 0
19.5 0.7 0
19.8 0.7 0
20.1 0.7 0
20.4 0.7 0
20.7 0.7 0
21 0.7 0
21.3 0.7 0
21.6 0.7 0
21.9 0.7 0
22.2 0.7 0
22.5 0.7 0
22.8 0.7 0
23.1 0.7 0
23.4 0.7 0
23.7 0.7 0
24 0.7 0
24.3 0.7 0
24.6 0.7 0
24.9 0.7 0
25.2 0.7 0
25.5 0.7 0
25.8 0.7 0
26.1 0.7 0
26.4 0.7 0
26.7 0.7 0
27 0.7 0
27.3 0.7 0
27.6 0.7 0
27.9 0.7 0
28.2 0.7 0
28.5 0.7 0
28.8 0.7 0
29.1 0.7 0
29.4 0.7 0
29.7 0.7 0
30 0.7 0
30.3 0.7 0
0 0.8 0
0.3 0.8 0
0.6 0.8 0
0.9 0.8 0
1.2 0.8 0
1.5 0.8 0
1.8 0.8 0
2.1 0.8 0
2.4 0.8 0
2.7 0.8 0
3 0.8 0
3.3 0.8 0
3.6 0.8 0
3.9 0.8 0
4.2 0.8 0
4.5 0.8 0
4.8 0.8 0
5.1 0.8 0
5.4 0.8 0
5.7 0.8 0
6 0.8 0
6.3 0.8 0
6.6 0.8 0
6.9 0.8 0
7.2 0.8 0
7.5 0.8 0
7.8 0.8 0
8.1 0.8 0
8.4 0.8 0
8.7 0.8 0
9 0.8 0
9.3 0.8 0
9.6 0.8 0
9.9 0.8 0
10.2 0.8 0
10.5 0.8 0
10.8 0.8 0
11.1 0.8 0
11.4 0.8 0
11.7 0.8 0
12 0.8 0
12.3 0.8 0
12.6 0.8 0
12.9 0.8 0
13.2 0.8 0
13.5 0.8 0
13.8 0.8 0
14.1 0.8 0
14.4 0.8 0
14.7 0.8 0
15 0.8 0
15.3 0.8 0
15.6 0.8 0
15.9 0.8 0
16.2 0.8 0
16.5 0.8 0
16.8 0.8 0
17.1 0.8 0
17.4 0.8 0
17.7 0.8 0
18 0.8 0
18.3 0.8 0
18.6 0.8 0
18.9 0.8 0
19.2 0.8 0
19.5 0.8 0
19.8 0.8 0
20.1 0.8 0
20.4 0.8 0
20.7 0.8 0
21 0.8 0
21.3 0.8 0
21.6 0.8 0
21.9 0.8 0
22.2 0.8 0
22.5 0.8 0
22.8 0.8 0
23.1 0.8 0
23.4 0.8 0
23.7 0.8 0
24 0.8 0
24.3 0.8 0
24.6 0.8 0
24.9 0.8 0
25.2 0.8 0
25.5 0.8 0
25.8 0.8 0
26.1 0.8 0
26.4 0.8 0
26.7 0.8 0
27 0.8 0
27.3 0.8 0
27.6 0.8 0
27.9 0.8 0
28.2 0.8 0
28.5 0.8 0
28.8 0.8 0
29.1 0.8 0
29.4 0.8 0
29.7 0.8 0
30 0.8 0
30.3 0.8 0
0 0.9 0
0.3 0.9 0
0.6 0.9 0
0.9 0.9 0
1.2 0.9 0
1.5 0.9 0
1.8 0.9 0
2.1 0.9 0
2.4 0.9 0
2.7 0.9 0
3 0.9 0
3.3 0.9 0
3.6 0.9 0
3.9 0.9 0
4.2 0.9 0
4.5 0.9 0
4.8 0.9 0
5.1 0.9 0
5.4 0.9 0
5.7 0.9 0
6 0.9 0
6.3 0.9 0
6.6 0.9 0
6.9 0.9 0
7.2 0.9 0
7.5 0.9 0
7.8 0.9 0
8.1 0.9 0
8.4 0.9 0
8.7 0.9 0
9 0.9 0
9.3 0.9 0
9.6 0.9 0
9.9 0.9 0
10.2 0.9 0
10.5 0.9 0
10.8 0.9 0
11.1 0.9 0
11.4 0.9 0
11.7 0.9 0
12 0.9 0
12.3 0.9 0
12.6 0.9 0
12.9 0.9 0
13.2 0.9 0
13.5 0.9 0
13.8 0.9 0
14.1 0.9 0
14.4 0.9 0
14.7 0.9 0
15 0.9 0
15.3 0.9 0
15.6 0.9 0
15.9 0.9 0
16.2 0.9 0
16.5 0.9 0
16.8 0.9 0
17.1 0.9 0
17.4 0.9 0
17.7 0.9 0
18 0.9 0
18.3 0.9 0
18.6 0.9 0
18.9 0.9 0
19.2 0.9 0
19.5 0.9 0
19.8 0.9 0
20.1 0.9 0
20.4 0.9 0
20.7 0.9 0
21 0.9 0
21.3 0.9 0
21.6 0.9 0
21.9 0.9 0
22.2 0.9 0
22.5 0.9 0
22.8 0.9 0
23.1 0.9 0
23.4 0.9 0
23.7 0.9 0
24 0.9 0
24.3 0.9 0
24.6 0.9 0
24.9 0.9 0
25.2 0.9 0
25.5 0.9 0
25.8 0.9 0
26.1 0.9 0
26.4 0.9 0
26.7 0.9 0
27 0.9 0
27.3 0.9 0
27.6 0.9 0
27.9 0.9 0
28.2 0.9 0
28.5 0.9 0
28.8 0.9 0
29.1 0.9 0
29.4 0.9 0
29.7 0.9 0
30 0.9 0
30.3 0.9 0
0 1 0
0.3 1 0
0.6 1 0
0.9 1 0
1.2 1 0
1.5 1 0
1.8 1 0
2.1 1 0
2.4 1 0
2.7 1 0
3 1 0
3.3 1 0
3.6 1 0
3.9 1 0
4.2 1 0
4.5 1 0
4.8 1 0
5.1 1 0
5.4 1 0
5.7 1 0
6 1 0
6.3 1 0
6.6 1 0
6.9 1 0
7.2 1 0
7.5 1 0
7.8 1 0
8.1 1 0
8.4 1 0
8.7 1 0
9 1 0
9.3 1 0
9.6 1 0
9.9 1 0
10.2 1 0
10.5 1 0
10.8 1 0
11.1 1 0
11.4 1 0
11.7 1 0
12 1 0
12.3 1 0
12.6 1 0
12.9 1 0
13.2 1 0
13.5 1 0
13.8 1 0
14.1 1 0
14.4 1 0
14.7 1 0
15 1 0
15.3 1 0
15.6 1 0
15.9 1 0
16.2 1 0
16.5 1 0
16.8 1 0
17.1 1 0
17.4 1 0
17.7 1 0
18 1 0
18.3 1 0
18.6 1 0
18.9 1 0
19.2 1 0
19.5 1 0
19.8 1 0
20.1 1 0
20.4 1 0
20.7 1 0
21 1 0
21.3 1 0
21.6 1 0
21.9 1 0
22.2 1 0
22.5 1 0
22.8 1 0
23.1 1 0
23.4 1 0
23.7 1 0
24 1 0
24.3 1 0
24.6 1 0
24.9 1 0
25.2 1 0
25.5 1 0
25.8 1 0
26.1 1 0
26.4 1 0
26.7 1 0
27 1 0
27.3 1 0
27.6 1 0
27.9 1 0
28.2 1 0
28.5 1 0
28.8 1 0
29.1 1 0
29.4 1 0
29.7 1 0
30 1 0
30.3 1 0
0 1.1 0
0.3 1.1 0
0.6 1.1 0
0.9 1.1 0
1.2 1.1 0
1.5 1.1 0
1.8 1.1 0
2.1 1.1 0
2.4 1.1 0
2.7 1.1 0
3 1.1 0
3.3 1.1 0
3.6 1.1 0
3.9 1.1 0
4.2 1.1 0
4.5 1.1 0
4.8 1.1 0
5.1 1.1 0
5.4 1.1 0
5.7 1.1 0
6 1.1 0
6.3 1.1 0
6.6 1.1 0
6.9 1.1 0
7.2 1.1 0
7.5 1.1 0
7.8 1.1 0
8.1 1.1 0
8.4 1.1 0
8.7 1.1 0
9 1.1 0
9.3 1.1 0
9.6 1.1 0
9.9 1.1 0
10.2 1.1 0
10.5 1.1 0
10.8 1.1 0
11.1 1.1 0
11.4 1.1 0
11.7 1.1 0
12 1.1 0
12.3 1.1 0
12.6 1.1 0
12.9 1.1 0
13.2 1.1 0
13.5 1.1 0
13.8 1.1 0
14.1 1.1 0
14.4 1.1 0
14.7 1.1 0
15 1.1 0
15.3 1.1 0
15.6 1.1 0
15.9 1.1 0
16.2 1.1 0
16.5 1.1 0
16.8 1.1 0
17.1 1.1 0
17.4 1.1 0
17.7 1.1 0
18 1.1 0
18.3 1.1 0
18.6 1.1 0
18.9 1.1 0
19.2 1.1 0
19.5 1.1 0
19.8 1.1 0
20.1 1.1 0
20.4 1.1 0
20.7 1.1 0
21 1.1 0
21.3 1.1 0
21.6 1.1 0
21.9 1.1 0
22.2 1.1 0
22.5 1.1 0
22.8 1.1 0
23.1 1.1 0
23.4 1.1 0
23.7 1.1 0
24 1.1 0
24.3 1.1 0
24.6 1.1 0
24.9 1.1 0
25.2 1.1 0
25.5 1.1 0
25.8 1.1 0
26.1 1.1 0
26.4 1.1 0
26.7 1.1 0
27 1.1 0
27.3 1.1 0
27.6 1.1 0
27.9 1.1 0
28.2 1.1 0
28.5 1.1 0
28.8 1.1 0
29.1 1.1 0
29.4 1.1 0
29.7 1.1 0
30 1.1 0
30.3 1.1 0
0 1.2 0
0.3 1.2 0
0.6 1.2 0
0.9 1.2 0
1.2 1.2 0
1.5 1.2 0
1.8 1.2 0
2.1 1.2 0
2.4 1.2 0
2.7 1.2 0
3 1.2 0
3.3 1.2 0
3.6 1.2 0
3.9 1.2 0
4.2 1.2 0
4.5 1.2 0
4.8 1.2 0
5.1 1.2 0
5.4 1.2 0
5.7 1.2 0
6 1.2 0
6.3 1.2 0
6.6 1.2 0
6.9 1.2 0
7.2 1.2 0
7.5 1.2 0
7.8 1.2 0
8.1 1.2 0
8.4 1.2 0
8.7 1.2 0
9 1.2 0
9.3 1.2 0
9.6 1.2 0
9.9 1.2 0
10.2 1.2 0
10.5 1.2 0
10.8 1.2 0
11.1 1.2 0
11.4 1.2 0
11.7 1.2 0
12 1.2 0
12.3 1.2 0
12.6 1.2 0
12.9 1.2 0
13.2 1.2 0
13.5 1.2 0
13.8 1.2 0
14.1 1.2 0
14.4 1.2 0
14.7 1.2 0
15 1.2 0
15.3 1.2 0
15.6 1.2 0
15.9 1.2 0
16.2 1.2 0
16.5 1.2 0
16.8 1.2 0
17.1 1.2 0
17.4 1.2 0
17.7 1.2 0
18 1.2 0
18.3 1.2 0
18.6 1.2 0
18.9 1.2 0
19.2 1.2 0
19.5 1.2 0
19.8 1.2 0
20.1 1.2 0
20.4 1.2 0
20.7 1.2 0
21 1.2 0
21.3 1.2 0
21.6 1.2 0
21.9 1.2 0
22.2 1.2 0
22.5 1.2 0
22.8 1.2 0
23.1 1.2 0
23.4 1.2 0
23.7 1.2 0
24 1.2 0
24.3 1.2 0
24.6 1.2 0
24.9 1.2 0
25.2 1.2 0
25.5 1.2 0
25.8 1.2 0
26.1 1.2 0
26.4 1.2 0
26.7 1.2 0
27 1.2 0
27.3 1.2 0
27.6 1.2 0
27.9 1.2 0
28.2 1.2 0
28.5 1.2 0
28.8 1.2 0
29.1 1.2 0
29.4 1.2 0
29.7 1.2 0
30 1.2 0
30.3 1.2 0

POINT_DATA 1326

SCALARS v double
LOOKUP_TABLE default
0
0
0
0
0
0
0
0
0
0
0
0
0
0
0
0
0
0
0
0
0
0
0
0
0
0
0
0
0
0
0
0
0
0
0
0
0
0
0
0
0
0
0
0
0
0
0
0
0
0
0
0
0
0
0
0
0
0
0
0
0
0
0
0
0
0
0
0
0
0
0
0
0
0
0
0
0
0
0
0
0
0
0
0
0
0
0
0
0
0
0
0
0
0
0
0
0
0
0
0
0
0
-0.0370799
0.0370799
0.0391133
0.0336313
0.0272525
0.0213215
0.0162805
0.0122495
0.00917274
0.006904
0.00526868
0.00410328
0.00327337
0.00267717
0.00224164
0.00191621
0.00166664
0.00147002
0.00131108
0.0011796
0.00106865
0.000973496
0.000890795
0.000818149
0.000753786
0.00069636
0.000644825
0.000598347
0.00055625
0.000517978
0.000483066
0.000451121
0.000421809
0.000394845
0.000369981
0.000347005
0.00032573
0.000305993
0.000287653
0.000270583
0.000254676
0.000239833
0.000225973
0.000213019
0.000200908
0.000189577
0.000178971
0.000169032
0.000159703
0.000150923
0.000142627
0.000134744
0.000127204
0.000119937
0.000112876
0.000105963
9.91516e-05
9.24085e-05
8.57176e-05
7.90791e-05
7.2509e-05
6.60374e-05
5.97048e-05
5.35589e-05
4.76506e-05
4.20297e-05
3.67415e-05
3.18243e-05
2.73067e-05
2.32069e-05
1.95321e-05
1.6279e-05
1.34349e-05
1.09789e-05
8.88402e-06
7.11882e-06
5.64925e-06
4.44033e-06
3.45746e-06
2.66763e-06
2.04013e-06
1.54709e-06
1.1638e-06
8.6887e-07
6.44217e-07
4.74853e-07
3.48458e-07
2.54947e-07
1.86229e-07
1.35964e-07
9.94976e-08
7.28953e-08
5.46244e-08
3.92818e-08
3.47713e-08
1.13458e-08
2.51043e-08
-1.30023e-07
-1.89984e-07
1.74062e-07
-2.0264e-06
-2.0264e-06
-0.0282545
0.0282545
0.038741
0.0375699
0.0331777
0.0280244
0.0230972
0.0188234
0.0153293
0.0125738
0.0104408
0.00879741
0.00752361
0.00652316
0.00572378
0.00507311
0.00453395
0.00407991
0.0036922
0.00335723
0.003065
0.00280795
0.00258031
0.00237752
0.00219596
0.00203267
0.00188521
0.00175157
0.00163004
0.00151918
0.00141778
0.00132477
0.00123925
0.00116043
0.00108765
0.0010203
0.00095787
0.000899897
0.000845982
0.000795771
0.000748952
0.00070525
0.000664419
0.000626244
0.000590526
0.000557083
0.000525741
0.000496327
0.000468664
0.000442565
0.000417839
0.000394284
0.000371698
0.000349887
0.00032867
0.000307893
0.000287438
0.000267227
0.000247229
0.000227459
0.000207973
0.000188865
0.000170256
0.000152281
0.000135083
0.000118798
0.000103546
8.94252e-05
7.65068e-05
6.48304e-05
5.4405e-05
4.52104e-05
3.72004e-05
3.03077e-05
2.44483e-05
1.95273e-05
1.54436e-05
1.20949e-05
9.38089e-06
7.20657e-06
5.4844e-06
4.1355e-06
3.09042e-06
2.28933e-06
1.6817e-06
1.22559e-06
8.86694e-07
6.37269e-07
4.55286e-07
3.23555e-07
2.29065e-07
1.61502e-07
1.14749e-07
7.88657e-08
6.25897e-08
1.69491e-08
3.65363e-08
-2.97633e-07
-1.94772e-07
-2.70842e-06
-6.10979e-06
-6.10979e-06
-0.0177598
0.0177598
0.0281239
0.029097
0.0269195
0.0237001
0.0203368
0.0172614
0.0146483
0.01252
0.0108216
0.00947164
0.00839008
0.00751006
0.00678039
0.00616371
0.00563341
0.00517065
0.00476201
0.00439777
0.00407071
0.00377536
0.00350741
0.00326339
0.00304047
0.00283627
0.00264876
0.00247621
0.0023171
0.00217012
0.00203412
0.00190808
0.00179109
0.00168236
0.00158116
0.00148687
0.00139891
0.00131678
0.00124
0.00116818
0.00110093
0.00103792
0.000978852
0.000923455
0.000871474
0.000822673
0.000776823
0.000733695
0.000693052
0.000654646
0.000618217
0.000583494
0.000550205
0.000518081
0.000486873
0.000456365
0.000426384
0.000396812
0.000367592
0.00033873
0.000310291
0.000282391
0.000255188
0.000228866
0.000203621
0.000179645
0.000157115
0.000136176
0.000116941
9.94778e-05
8.3813e-05
6.99307e-05
5.77771e-05
4.72659e-05
3.82848e-05
3.07034e-05
2.43799e-05
1.9168e-05
1.49227e-05
1.15047e-05
8.78432e-06
6.6435e-06
4.97734e-06
3.69468e-06
2.71782e-06
1.98173e-06
1.43278e-06
1.02744e-06
7.30925e-07
5.15952e-07
3.6158e-07
2.51404e-07
1.74632e-07
1.17789e-07
8.758e-08
2.43986e-08
5.4855e-08
-4.00385e-07
-1.81453e-08
-5.37233e-06
-8.94756e-06
-8.94756e-06
-0.00966197
0.00966197
0.0165163
0.017616
0.016649
0.0149526
0.0130935
0.0113491
0.00984098
0.00859623
0.00759149
0.0067838
0.00612856
0.00558766
0.0051317
0.0047392
0.00439501
0.00408853
0.00381235
0.00356121
0.00333132
0.00311983
0.00292452
0.00274364
0.00257576
0.00241964
0.00227426
0.00213869
0.00201213
0.00189386
0.00178325
0.0016797
0.00158269
0.00149176
0.00140645
0.00132638
0.00125118
0.00118052
0.0011141
0.00105162
0.000992852
0.000937542
0.000885481
0.000836468
0.000790318
0.000746851
0.000705891
0.000667259
0.000630767
0.000596217
0.000563398
0.000532088
0.000502061
0.000473095
0.000444977
0.000417522
0.000390575
0.00036403
0.000337824
0.00031195
0.000286451
0.000261414
0.000236966
0.000213257
0.000190451
0.000168716
0.000148207
0.00012906
0.00011138
9.52421e-05
8.06811e-05
6.76977e-05
5.62581e-05
4.62983e-05
3.77302e-05
3.04465e-05
2.43278e-05
1.92481e-05
1.50801e-05
1.16995e-05
8.98897e-06
6.84003e-06
5.15517e-06
3.84858e-06
2.84628e-06
2.08559e-06
1.51428e-06
1.08948e-06
7.76628e-07
5.48366e-07
3.83425e-07
2.65159e-07
1.82128e-07
1.21445e-07
8.64254e-08
2.55619e-08
5.54126e-08
-3.49523e-07
1.00511e-07
-5.24779e-06
-8.04469e-06
-8.04469e-06
-0.00306441
0.00306441
0.00542172
0.00585223
0.00557287
0.00504142
0.00444943
0.00388983
0.00340392
0.00300176
0.00267649
0.00241448
0.00220133
0.00202464
0.00187483
0.0017449
0.00162997
0.00152664
0.00143258
0.00134617
0.00126626
0.00119201
0.00112277
0.00105805
0.000997442
0.000940611
0.000887263
0.000837141
0.00079002
0.000745693
0.000703976
0.000664697
0.000627702
0.000592845
0.000559993
0.000529023
0.00049982
0.000472278
0.000446296
0.000421784
0.000398654
0.000376828
0.000356233
0.000336798
0.00031846
0.000301153
0.000284814
0.000269378
0.000254776
0.000240932
0.000227769
0.000215202
0.000203145
0.000191512
0.000180221
0.0001692
0.000158389
0.000147744
0.000137239
0.000126869
0.000116648
0.000106609
9.67986e-05
8.72744e-05
7.81004e-05
6.93416e-05
6.10598e-05
5.33094e-05
4.61344e-05
3.95658e-05
3.36207e-05
2.8302e-05
2.35992e-05
1.94895e-05
1.59404e-05
1.29111e-05
1.03558e-05
8.22532e-06
6.46956e-06
5.03917e-06
3.887e-06
2.96924e-06
2.24615e-06
1.68257e-06
1.24803e-06
9.16535e-07
6.66223e-07
4.79002e-07
3.40216e-07
2.38239e-07
1.64002e-07
1.10492e-07
7.28181e-08
4.55218e-08
2.89132e-08
1.88348e-09
1.43682e-08
-1.49326e-07
5.56679e-08
-2.15146e-06
-3.2271e-06
-3.2271e-06
0.0030644
-0.0030644
-0.00542171
-0.00585221
-0.00557285
-0.00504138
-0.00444939
-0.0038898
-0.00340389
-0.00300173
-0.00267646
-0.00241445
-0.0022013
-0.00202461
-0.00187479
-0.00174487
-0.00162994
-0.00152661
-0.00143255
-0.00134614
-0.00126623
-0.00119197
-0.00112273
-0.00105801
-0.00099741
-0.000940579
-0.000887231
-0.00083711
-0.000789989
-0.000745663
-0.000703946
-0.000664667
-0.000627672
-0.000592815
-0.000559964
-0.000528995
-0.000499792
-0.00047225
-0.000446269
-0.000421757
-0.000398627
-0.000376802
-0.000356206
-0.000336772
-0.000318432
-0.000301125
-0.000284785
-0.000269347
-0.000254743
-0.000240897
-0.000227731
-0.000215161
-0.0002031
-0.000191463
-0.000180168
-0.000169143
-0.000158328
-0.000147678
-0.000137169
-0.000126796
-0.000116573
-0.000106533
-9.67216e-05
-8.71977e-05
-7.80246e-05
-6.92675e-05
-6.09881e-05
-5.32408e-05
-4.60693e-05
-3.95046e-05
-3.35636e-05
-2.82493e-05
-2.3551e-05
-1.94459e-05
-1.59013e-05
-1.28766e-05
-1.03258e-05
-8.19969e-06
-6.44802e-06
-5.02145e-06
-3.87294e-06
-2.95886e-06
-2.23961e-06
-1.67998e-06
-1.24934e-06
-9.21543e-07
-6.74761e-07
-4.91078e-07
-3.55926e-07
-2.57594e-07
-1.86801e-07
-1.36096e-07
-1.00167e-07
-7.36965e-08
-5.8573e-08
-3.5074e-08
-4.97566e-08
1.14418e-07
-8.48902e-08
2.12608e-06
3.23126e-06
3.23126e-06
0.00966196
-0.00966196
-0.0165163
-0.017616
-0.016649
-0.0149526
-0.0130935
-0.0113491
-0.00984095
-0.00859619
-0.00759146
-0.00678377
-0.00612852
-0.00558763
-0.00513166
-0.00473917
-0.00439498
-0.0040885
-0.00381231
-0.00356118
-0.00333129
-0.0031198
-0.00292449
-0.00274361
-0.00257573
-0.00241961
-0.00227423
-0.00213866
-0.0020121
-0.00189384
-0.00178322
-0.00167967
-0.00158267
-0.00149173
-0.00140642
-0.00132635
-0.00125116
-0.0011805
-0.00111407
-0.0010516
-0.000992828
-0.000937519
-0.000885457
-0.000836444
-0.000790293
-0.000746826
-0.000705865
-0.000667232
-0.000630738
-0.000596186
-0.000563363
-0.000532051
-0.000502021
-0.00047305
-0.000444929
-0.000417469
-0.000390519
-0.000363969
-0.00033776
-0.000311883
-0.000286381
-0.000261343
-0.000236893
-0.000213183
-0.000190378
-0.000168644
-0.000148137
-0.000128992
-0.000111315
-9.51796e-05
-8.0622e-05
-6.76423e-05
-5.62064e-05
-4.62506e-05
-3.76865e-05
-3.04069e-05
-2.42923e-05
-1.92166e-05
-1.50524e-05
-1.16755e-05
-8.96839e-06
-6.82298e-06
-5.14184e-06
-3.83911e-06
-2.84064e-06
-2.08362e-06
-1.51584e-06
-1.09457e-06
-7.85375e-07
-5.60789e-07
-3.99316e-07
-2.83939e-07
-2.029e-07
-1.43358e-07
-1.09752e-07
-5.17681e-08
-8.58271e-08
3.19018e-07
-1.27227e-07
5.23064e-06
8.04756e-06
8.04756e-06
0.0177597
-0.0177597
-0.0281239
-0.029097
-0.0269195
-0.0237
-0.0203368
-0.0172613
-0.0146483
-0.0125199
-0.0108215
-0.00947161
-0.00839005
-0.00751003
-0.00678036
-0.00616368
-0.00563338
-0.00517062
-0.00476198
-0.00439774
-0.00407069
-0.00377534
-0.00350738
-0.00326337
-0.00304045
-0.00283625
-0.00264874
-0.00247618
-0.00231708
-0.0021701
-0.0020341
-0.00190806
-0.00179107
-0.00168234
-0.00158114
-0.00148685
-0.0013989
-0.00131676
-0.00123998
-0.00116816
-0.00110091
-0.0010379
-0.000978834
-0.000923436
-0.000871454
-0.000822653
-0.000776802
-0.000733673
-0.000693028
-0.00065462
-0.000618189
-0.000583464
-0.000550171
-0.000518044
-0.000486833
-0.000456321
-0.000426336
-0.00039676
-0.000367537
-0.000338672
-0.00031023
-0.000282327
-0.000255122
-0.000228799
-0.000203553
-0.000179578
-0.000157047
-0.00013611
-0.000116876
-9.9414e-05
-8.37512e-05
-6.98712e-05
-5.77201e-05
-4.72117e-05
-3.82336e-05
-3.06554e-05
-2.43351e-05
-1.91265e-05
-1.48844e-05
-1.14695e-05
-8.75222e-06
-6.61459e-06
-4.95187e-06
-3.67283e-06
-2.69965e-06
-1.96713e-06
-1.42166e-06
-1.01983e-06
-7.26962e-07
-5.15689e-07
-3.64833e-07
-2.57661e-07
-1.83276e-07
-1.28067e-07
-9.92351e-08
-3.82548e-08
-7.41837e-08
3.78675e-07
1.3343e-09
5.36007e-06
8.95493e-06
8.95493e-06
0.0282545
-0.0282545
-0.038741
-0.0375699
-0.0331777
-0.0280244
-0.0230972
-0.0188234
-0.0153293
-0.0125738
-0.0104408
-0.00879739
-0.00752359
-0.00652315
-0.00572376
-0.0050731
-0.00453393
-0.00407989
-0.00369219
-0.00335722
-0.00306498
-0.00280793
-0.00258029
-0.00237751
-0.00219595
-0.00203265
-0.00188519
-0.00175155
-0.00163002
-0.00151917
-0.00141776
-0.00132475
-0.00123923
-0.00116042
-0.00108764
-0.00102029
-0.000957856
-0.000899883
-0.000845968
-0.000795757
-0.000748938
-0.000705236
-0.000664405
-0.00062623
-0.000590511
-0.000557068
-0.000525726
-0.000496311
-0.000468646
-0.000442547
-0.000417819
-0.000394262
-0.000371674
-0.00034986
-0.00032864
-0.000307861
-0.000287402
-0.000267188
-0.000247187
-0.000227413
-0.000207924
-0.000188813
-0.0001702
-0.000152223
-0.000135023
-0.000118735
-0.000103482
-8.93599e-05
-7.64408e-05
-6.47641e-05
-5.43388e-05
-4.51446e-05
-3.71356e-05
-3.02442e-05
-2.43864e-05
-1.94674e-05
-1.53861e-05
-1.20398e-05
-9.32828e-06
-7.15653e-06
-5.437e-06
-4.09094e-06
-3.04899e-06
-2.25129e-06
-1.64718e-06
-1.19456e-06
-8.59115e-07
-6.13196e-07
-4.34867e-07
-3.06856e-07
-2.15957e-07
-1.51543e-07
-1.07572e-07
-7.39207e-08
-5.92062e-08
-1.53309e-08
-3.96459e-08
2.90155e-07
1.88931e-07
2.70761e-06
6.11522e-06
6.11522e-06
0.0370799
-0.0370799
-0.0391132
-0.0336313
-0.0272525
-0.0213215
-0.0162805
-0.0122495
-0.00917273
-0.00690399
-0.00526867
-0.00410327
-0.00327336
-0.00267716
-0.00224162
-0.00191619
-0.00166663
-0.00147001
-0.00131107
-0.00117959
-0.00106864
-0.000973485
-0.000890784
-0.000818139
-0.000753776
-0.00069635
-0.000644815
-0.000598337
-0.00055624
-0.000517968
-0.000483056
-0.00045111
-0.000421799
-0.000394834
-0.000369971
-0.000346994
-0.000325719
-0.000305983
-0.000287642
-0.000270573
-0.000254665
-0.000239823
-0.000225962
-0.000213009
-0.000200897
-0.000189566
-0.000178959
-0.000169021
-0.000159692
-0.000150911
-0.000142613
-0.00013473
-0.000127188
-0.00011992
-0.000112857
-0.000105942
-9.91276e-05
-9.23816e-05
-8.56874e-05
-7.90454e-05
-7.24717e-05
-6.59962e-05
-5.96597e-05
-5.35101e-05
-4.75981e-05
-4.19736e-05
-3.66822e-05
-3.1762e-05
-2.72418e-05
-2.31398e-05
-1.94633e-05
-1.62089e-05
-1.3364e-05
-1.09078e-05
-8.81323e-06
-7.04879e-06
-5.58039e-06
-4.37294e-06
-3.39179e-06
-2.60386e-06
-1.97846e-06
-1.4878e-06
-1.10723e-06
-8.15355e-07
-5.93987e-07
-4.27982e-07
-3.04957e-07
-2.14894e-07
-1.49769e-07
-1.03193e-07
-7.03203e-08
-4.70335e-08
-3.17014e-08
-1.93063e-08
-1.66032e-08
4.6353e-09
-9.59599e-09
1.37052e-07
1.95671e-07
-1.6792e-07
2.03398e-06
2.03398e-06
0
0
0
0
0
0
0
0
0
0
0
0
0
0
0
0
0
0
0
0
0
0
0
0
0
0
0
0
0
0
0
0
0
0
0
0
0
0
0
0
0
0
0
0
0
0
0
0
0
0
0
0
0
0
0
0
0
0
0
0
0
0
0
0
0
0
0
0
0
0
0
0
0
0
0
0
0
0
0
0
0
0
0
0
0
0
0
0
0
0
0
0
0
0
0
0
0
0
0
0
0
0
0
0
0
0
0
0
0
0
0
0
0
0
0
0
0
0
0
0
0
0
0
0
0
0
0
0
0
0
0
0
0
0
0
0
0
0
0
0
0
0
0
0
0
0
0
0
0
0
0
0
0
0
0
0
0
0
0
0
0
0
0
0
0
0
0
0
0
0
0
0
0
0
0
0
0
0
0
0
0
0
0
0
0
0
0
0
0
0
0
0
0
0
0
0
0
0
0
0
0
0
0
0
