# vtk DataFile Version 2.0
FlowField
ASCII
DATASET STRUCTURED_GRID
DIMENSIONS 102 1 12 
POINTS 1224 double
0 0 0
0.4 0 0
0.8 0 0
1.2 0 0
1.6 0 0
2 0 0
2.4 0 0
2.8 0 0
3.2 0 0
3.6 0 0
4 0 0
4.4 0 0
4.8 0 0
5.2 0 0
5.6 0 0
6 0 0
6.4 0 0
6.8 0 0
7.2 0 0
7.6 0 0
8 0 0
8.4 0 0
8.8 0 0
9.2 0 0
9.6 0 0
10 0 0
10.4 0 0
10.8 0 0
11.2 0 0
11.6 0 0
12 0 0
12.4 0 0
12.8 0 0
13.2 0 0
13.6 0 0
14 0 0
14.4 0 0
14.8 0 0
15.2 0 0
15.6 0 0
16 0 0
16.4 0 0
16.8 0 0
17.2 0 0
17.6 0 0
18 0 0
18.4 0 0
18.8 0 0
19.2 0 0
19.6 0 0
20 0 0
20.4 0 0
20.8 0 0
21.2 0 0
21.6 0 0
22 0 0
22.4 0 0
22.8 0 0
23.2 0 0
23.6 0 0
24 0 0
24.4 0 0
24.8 0 0
25.2 0 0
25.6 0 0
26 0 0
26.4 0 0
26.8 0 0
27.2 0 0
27.6 0 0
28 0 0
28.4 0 0
28.8 0 0
29.2 0 0
29.6 0 0
30 0 0
30.4 0 0
30.8 0 0
31.2 0 0
31.6 0 0
32 0 0
32.4 0 0
32.8 0 0
33.2 0 0
33.6 0 0
34 0 0
34.4 0 0
34.8 0 0
35.2 0 0
35.6 0 0
36 0 0
36.4 0 0
36.8 0 0
37.2 0 0
37.6 0 0
38 0 0
38.4 0 0
38.8 0 0
39.2 0 0
39.6 0 0
40 0 0
40.4 0 0
0 0.1 0
0.4 0.1 0
0.8 0.1 0
1.2 0.1 0
1.6 0.1 0
2 0.1 0
2.4 0.1 0
2.8 0.1 0
3.2 0.1 0
3.6 0.1 0
4 0.1 0
4.4 0.1 0
4.8 0.1 0
5.2 0.1 0
5.6 0.1 0
6 0.1 0
6.4 0.1 0
6.8 0.1 0
7.2 0.1 0
7.6 0.1 0
8 0.1 0
8.4 0.1 0
8.8 0.1 0
9.2 0.1 0
9.6 0.1 0
10 0.1 0
10.4 0.1 0
10.8 0.1 0
11.2 0.1 0
11.6 0.1 0
12 0.1 0
12.4 0.1 0
12.8 0.1 0
13.2 0.1 0
13.6 0.1 0
14 0.1 0
14.4 0.1 0
14.8 0.1 0
15.2 0.1 0
15.6 0.1 0
16 0.1 0
16.4 0.1 0
16.8 0.1 0
17.2 0.1 0
17.6 0.1 0
18 0.1 0
18.4 0.1 0
18.8 0.1 0
19.2 0.1 0
19.6 0.1 0
20 0.1 0
20.4 0.1 0
20.8 0.1 0
21.2 0.1 0
21.6 0.1 0
22 0.1 0
22.4 0.1 0
22.8 0.1 0
23.2 0.1 0
23.6 0.1 0
24 0.1 0
24.4 0.1 0
24.8 0.1 0
25.2 0.1 0
25.6 0.1 0
26 0.1 0
26.4 0.1 0
26.8 0.1 0
27.2 0.1 0
27.6 0.1 0
28 0.1 0
28.4 0.1 0
28.8 0.1 0
29.2 0.1 0
29.6 0.1 0
30 0.1 0
30.4 0.1 0
30.8 0.1 0
31.2 0.1 0
31.6 0.1 0
32 0.1 0
32.4 0.1 0
32.8 0.1 0
33.2 0.1 0
33.6 0.1 0
34 0.1 0
34.4 0.1 0
34.8 0.1 0
35.2 0.1 0
35.6 0.1 0
36 0.1 0
36.4 0.1 0
36.8 0.1 0
37.2 0.1 0
37.6 0.1 0
38 0.1 0
38.4 0.1 0
38.8 0.1 0
39.2 0.1 0
39.6 0.1 0
40 0.1 0
40.4 0.1 0
0 0.2 0
0.4 0.2 0
0.8 0.2 0
1.2 0.2 0
1.6 0.2 0
2 0.2 0
2.4 0.2 0
2.8 0.2 0
3.2 0.2 0
3.6 0.2 0
4 0.2 0
4.4 0.2 0
4.8 0.2 0
5.2 0.2 0
5.6 0.2 0
6 0.2 0
6.4 0.2 0
6.8 0.2 0
7.2 0.2 0
7.6 0.2 0
8 0.2 0
8.4 0.2 0
8.8 0.2 0
9.2 0.2 0
9.6 0.2 0
10 0.2 0
10.4 0.2 0
10.8 0.2 0
11.2 0.2 0
11.6 0.2 0
12 0.2 0
12.4 0.2 0
12.8 0.2 0
13.2 0.2 0
13.6 0.2 0
14 0.2 0
14.4 0.2 0
14.8 0.2 0
15.2 0.2 0
15.6 0.2 0
16 0.2 0
16.4 0.2 0
16.8 0.2 0
17.2 0.2 0
17.6 0.2 0
18 0.2 0
18.4 0.2 0
18.8 0.2 0
19.2 0.2 0
19.6 0.2 0
20 0.2 0
20.4 0.2 0
20.8 0.2 0
21.2 0.2 0
21.6 0.2 0
22 0.2 0
22.4 0.2 0
22.8 0.2 0
23.2 0.2 0
23.6 0.2 0
24 0.2 0
24.4 0.2 0
24.8 0.2 0
25.2 0.2 0
25.6 0.2 0
26 0.2 0
26.4 0.2 0
26.8 0.2 0
27.2 0.2 0
27.6 0.2 0
28 0.2 0
28.4 0.2 0
28.8 0.2 0
29.2 0.2 0
29.6 0.2 0
30 0.2 0
30.4 0.2 0
30.8 0.2 0
31.2 0.2 0
31.6 0.2 0
32 0.2 0
32.4 0.2 0
32.8 0.2 0
33.2 0.2 0
33.6 0.2 0
34 0.2 0
34.4 0.2 0
34.8 0.2 0
35.2 0.2 0
35.6 0.2 0
36 0.2 0
36.4 0.2 0
36.8 0.2 0
37.2 0.2 0
37.6 0.2 0
38 0.2 0
38.4 0.2 0
38.8 0.2 0
39.2 0.2 0
39.6 0.2 0
40 0.2 0
40.4 0.2 0
0 0.3 0
0.4 0.3 0
0.8 0.3 0
1.2 0.3 0
1.6 0.3 0
2 0.3 0
2.4 0.3 0
2.8 0.3 0
3.2 0.3 0
3.6 0.3 0
4 0.3 0
4.4 0.3 0
4.8 0.3 0
5.2 0.3 0
5.6 0.3 0
6 0.3 0
6.4 0.3 0
6.8 0.3 0
7.2 0.3 0
7.6 0.3 0
8 0.3 0
8.4 0.3 0
8.8 0.3 0
9.2 0.3 0
9.6 0.3 0
10 0.3 0
10.4 0.3 0
10.8 0.3 0
11.2 0.3 0
11.6 0.3 0
12 0.3 0
12.4 0.3 0
12.8 0.3 0
13.2 0.3 0
13.6 0.3 0
14 0.3 0
14.4 0.3 0
14.8 0.3 0
15.2 0.3 0
15.6 0.3 0
16 0.3 0
16.4 0.3 0
16.8 0.3 0
17.2 0.3 0
17.6 0.3 0
18 0.3 0
18.4 0.3 0
18.8 0.3 0
19.2 0.3 0
19.6 0.3 0
20 0.3 0
20.4 0.3 0
20.8 0.3 0
21.2 0.3 0
21.6 0.3 0
22 0.3 0
22.4 0.3 0
22.8 0.3 0
23.2 0.3 0
23.6 0.3 0
24 0.3 0
24.4 0.3 0
24.8 0.3 0
25.2 0.3 0
25.6 0.3 0
26 0.3 0
26.4 0.3 0
26.8 0.3 0
27.2 0.3 0
27.6 0.3 0
28 0.3 0
28.4 0.3 0
28.8 0.3 0
29.2 0.3 0
29.6 0.3 0
30 0.3 0
30.4 0.3 0
30.8 0.3 0
31.2 0.3 0
31.6 0.3 0
32 0.3 0
32.4 0.3 0
32.8 0.3 0
33.2 0.3 0
33.6 0.3 0
34 0.3 0
34.4 0.3 0
34.8 0.3 0
35.2 0.3 0
35.6 0.3 0
36 0.3 0
36.4 0.3 0
36.8 0.3 0
37.2 0.3 0
37.6 0.3 0
38 0.3 0
38.4 0.3 0
38.8 0.3 0
39.2 0.3 0
39.6 0.3 0
40 0.3 0
40.4 0.3 0
0 0.4 0
0.4 0.4 0
0.8 0.4 0
1.2 0.4 0
1.6 0.4 0
2 0.4 0
2.4 0.4 0
2.8 0.4 0
3.2 0.4 0
3.6 0.4 0
4 0.4 0
4.4 0.4 0
4.8 0.4 0
5.2 0.4 0
5.6 0.4 0
6 0.4 0
6.4 0.4 0
6.8 0.4 0
7.2 0.4 0
7.6 0.4 0
8 0.4 0
8.4 0.4 0
8.8 0.4 0
9.2 0.4 0
9.6 0.4 0
10 0.4 0
10.4 0.4 0
10.8 0.4 0
11.2 0.4 0
11.6 0.4 0
12 0.4 0
12.4 0.4 0
12.8 0.4 0
13.2 0.4 0
13.6 0.4 0
14 0.4 0
14.4 0.4 0
14.8 0.4 0
15.2 0.4 0
15.6 0.4 0
16 0.4 0
16.4 0.4 0
16.8 0.4 0
17.2 0.4 0
17.6 0.4 0
18 0.4 0
18.4 0.4 0
18.8 0.4 0
19.2 0.4 0
19.6 0.4 0
20 0.4 0
20.4 0.4 0
20.8 0.4 0
21.2 0.4 0
21.6 0.4 0
22 0.4 0
22.4 0.4 0
22.8 0.4 0
23.2 0.4 0
23.6 0.4 0
24 0.4 0
24.4 0.4 0
24.8 0.4 0
25.2 0.4 0
25.6 0.4 0
26 0.4 0
26.4 0.4 0
26.8 0.4 0
27.2 0.4 0
27.6 0.4 0
28 0.4 0
28.4 0.4 0
28.8 0.4 0
29.2 0.4 0
29.6 0.4 0
30 0.4 0
30.4 0.4 0
30.8 0.4 0
31.2 0.4 0
31.6 0.4 0
32 0.4 0
32.4 0.4 0
32.8 0.4 0
33.2 0.4 0
33.6 0.4 0
34 0.4 0
34.4 0.4 0
34.8 0.4 0
35.2 0.4 0
35.6 0.4 0
36 0.4 0
36.4 0.4 0
36.8 0.4 0
37.2 0.4 0
37.6 0.4 0
38 0.4 0
38.4 0.4 0
38.8 0.4 0
39.2 0.4 0
39.6 0.4 0
40 0.4 0
40.4 0.4 0
0 0.5 0
0.4 0.5 0
0.8 0.5 0
1.2 0.5 0
1.6 0.5 0
2 0.5 0
2.4 0.5 0
2.8 0.5 0
3.2 0.5 0
3.6 0.5 0
4 0.5 0
4.4 0.5 0
4.8 0.5 0
5.2 0.5 0
5.6 0.5 0
6 0.5 0
6.4 0.5 0
6.8 0.5 0
7.2 0.5 0
7.6 0.5 0
8 0.5 0
8.4 0.5 0
8.8 0.5 0
9.2 0.5 0
9.6 0.5 0
10 0.5 0
10.4 0.5 0
10.8 0.5 0
11.2 0.5 0
11.6 0.5 0
12 0.5 0
12.4 0.5 0
12.8 0.5 0
13.2 0.5 0
13.6 0.5 0
14 0.5 0
14.4 0.5 0
14.8 0.5 0
15.2 0.5 0
15.6 0.5 0
16 0.5 0
16.4 0.5 0
16.8 0.5 0
17.2 0.5 0
17.6 0.5 0
18 0.5 0
18.4 0.5 0
18.8 0.5 0
19.2 0.5 0
19.6 0.5 0
20 0.5 0
20.4 0.5 0
20.8 0.5 0
21.2 0.5 0
21.6 0.5 0
22 0.5 0
22.4 0.5 0
22.8 0.5 0
23.2 0.5 0
23.6 0.5 0
24 0.5 0
24.4 0.5 0
24.8 0.5 0
25.2 0.5 0
25.6 0.5 0
26 0.5 0
26.4 0.5 0
26.8 0.5 0
27.2 0.5 0
27.6 0.5 0
28 0.5 0
28.4 0.5 0
28.8 0.5 0
29.2 0.5 0
29.6 0.5 0
30 0.5 0
30.4 0.5 0
30.8 0.5 0
31.2 0.5 0
31.6 0.5 0
32 0.5 0
32.4 0.5 0
32.8 0.5 0
33.2 0.5 0
33.6 0.5 0
34 0.5 0
34.4 0.5 0
34.8 0.5 0
35.2 0.5 0
35.6 0.5 0
36 0.5 0
36.4 0.5 0
36.8 0.5 0
37.2 0.5 0
37.6 0.5 0
38 0.5 0
38.4 0.5 0
38.8 0.5 0
39.2 0.5 0
39.6 0.5 0
40 0.5 0
40.4 0.5 0
0 0.6 0
0.4 0.6 0
0.8 0.6 0
1.2 0.6 0
1.6 0.6 0
2 0.6 0
2.4 0.6 0
2.8 0.6 0
3.2 0.6 0
3.6 0.6 0
4 0.6 0
4.4 0.6 0
4.8 0.6 0
5.2 0.6 0
5.6 0.6 0
6 0.6 0
6.4 0.6 0
6.8 0.6 0
7.2 0.6 0
7.6 0.6 0
8 0.6 0
8.4 0.6 0
8.8 0.6 0
9.2 0.6 0
9.6 0.6 0
10 0.6 0
10.4 0.6 0
10.8 0.6 0
11.2 0.6 0
11.6 0.6 0
12 0.6 0
12.4 0.6 0
12.8 0.6 0
13.2 0.6 0
13.6 0.6 0
14 0.6 0
14.4 0.6 0
14.8 0.6 0
15.2 0.6 0
15.6 0.6 0
16 0.6 0
16.4 0.6 0
16.8 0.6 0
17.2 0.6 0
17.6 0.6 0
18 0.6 0
18.4 0.6 0
18.8 0.6 0
19.2 0.6 0
19.6 0.6 0
20 0.6 0
20.4 0.6 0
20.8 0.6 0
21.2 0.6 0
21.6 0.6 0
22 0.6 0
22.4 0.6 0
22.8 0.6 0
23.2 0.6 0
23.6 0.6 0
24 0.6 0
24.4 0.6 0
24.8 0.6 0
25.2 0.6 0
25.6 0.6 0
26 0.6 0
26.4 0.6 0
26.8 0.6 0
27.2 0.6 0
27.6 0.6 0
28 0.6 0
28.4 0.6 0
28.8 0.6 0
29.2 0.6 0
29.6 0.6 0
30 0.6 0
30.4 0.6 0
30.8 0.6 0
31.2 0.6 0
31.6 0.6 0
32 0.6 0
32.4 0.6 0
32.8 0.6 0
33.2 0.6 0
33.6 0.6 0
34 0.6 0
34.4 0.6 0
34.8 0.6 0
35.2 0.6 0
35.6 0.6 0
36 0.6 0
36.4 0.6 0
36.8 0.6 0
37.2 0.6 0
37.6 0.6 0
38 0.6 0
38.4 0.6 0
38.8 0.6 0
39.2 0.6 0
39.6 0.6 0
40 0.6 0
40.4 0.6 0
0 0.7 0
0.4 0.7 0
0.8 0.7 0
1.2 0.7 0
1.6 0.7 0
2 0.7 0
2.4 0.7 0
2.8 0.7 0
3.2 0.7 0
3.6 0.7 0
4 0.7 0
4.4 0.7 0
4.8 0.7 0
5.2 0.7 0
5.6 0.7 0
6 0.7 0
6.4 0.7 0
6.8 0.7 0
7.2 0.7 0
7.6 0.7 0
8 0.7 0
8.4 0.7 0
8.8 0.7 0
9.2 0.7 0
9.6 0.7 0
10 0.7 0
10.4 0.7 0
10.8 0.7 0
11.2 0.7 0
11.6 0.7 0
12 0.7 0
12.4 0.7 0
12.8 0.7 0
13.2 0.7 0
13.6 0.7 0
14 0.7 0
14.4 0.7 0
14.8 0.7 0
15.2 0.7 0
15.6 0.7 0
16 0.7 0
16.4 0.7 0
16.8 0.7 0
17.2 0.7 0
17.6 0.7 0
18 0.7 0
18.4 0.7 0
18.8 0.7 0
19.2 0.7 0
19.6 0.7 0
20 0.7 0
20.4 0.7 0
20.8 0.7 0
21.2 0.7 0
21.6 0.7 0
22 0.7 0
22.4 0.7 0
22.8 0.7 0
23.2 0.7 0
23.6 0.7 0
24 0.7 0
24.4 0.7 0
24.8 0.7 0
25.2 0.7 0
25.6 0.7 0
26 0.7 0
26.4 0.7 0
26.8 0.7 0
27.2 0.7 0
27.6 0.7 0
28 0.7 0
28.4 0.7 0
28.8 0.7 0
29.2 0.7 0
29.6 0.7 0
30 0.7 0
30.4 0.7 0
30.8 0.7 0
31.2 0.7 0
31.6 0.7 0
32 0.7 0
32.4 0.7 0
32.8 0.7 0
33.2 0.7 0
33.6 0.7 0
34 0.7 0
34.4 0.7 0
34.8 0.7 0
35.2 0.7 0
35.6 0.7 0
36 0.7 0
36.4 0.7 0
36.8 0.7 0
37.2 0.7 0
37.6 0.7 0
38 0.7 0
38.4 0.7 0
38.8 0.7 0
39.2 0.7 0
39.6 0.7 0
40 0.7 0
40.4 0.7 0
0 0.8 0
0.4 0.8 0
0.8 0.8 0
1.2 0.8 0
1.6 0.8 0
2 0.8 0
2.4 0.8 0
2.8 0.8 0
3.2 0.8 0
3.6 0.8 0
4 0.8 0
4.4 0.8 0
4.8 0.8 0
5.2 0.8 0
5.6 0.8 0
6 0.8 0
6.4 0.8 0
6.8 0.8 0
7.2 0.8 0
7.6 0.8 0
8 0.8 0
8.4 0.8 0
8.8 0.8 0
9.2 0.8 0
9.6 0.8 0
10 0.8 0
10.4 0.8 0
10.8 0.8 0
11.2 0.8 0
11.6 0.8 0
12 0.8 0
12.4 0.8 0
12.8 0.8 0
13.2 0.8 0
13.6 0.8 0
14 0.8 0
14.4 0.8 0
14.8 0.8 0
15.2 0.8 0
15.6 0.8 0
16 0.8 0
16.4 0.8 0
16.8 0.8 0
17.2 0.8 0
17.6 0.8 0
18 0.8 0
18.4 0.8 0
18.8 0.8 0
19.2 0.8 0
19.6 0.8 0
20 0.8 0
20.4 0.8 0
20.8 0.8 0
21.2 0.8 0
21.6 0.8 0
22 0.8 0
22.4 0.8 0
22.8 0.8 0
23.2 0.8 0
23.6 0.8 0
24 0.8 0
24.4 0.8 0
24.8 0.8 0
25.2 0.8 0
25.6 0.8 0
26 0.8 0
26.4 0.8 0
26.8 0.8 0
27.2 0.8 0
27.6 0.8 0
28 0.8 0
28.4 0.8 0
28.8 0.8 0
29.2 0.8 0
29.6 0.8 0
30 0.8 0
30.4 0.8 0
30.8 0.8 0
31.2 0.8 0
31.6 0.8 0
32 0.8 0
32.4 0.8 0
32.8 0.8 0
33.2 0.8 0
33.6 0.8 0
34 0.8 0
34.4 0.8 0
34.8 0.8 0
35.2 0.8 0
35.6 0.8 0
36 0.8 0
36.4 0.8 0
36.8 0.8 0
37.2 0.8 0
37.6 0.8 0
38 0.8 0
38.4 0.8 0
38.8 0.8 0
39.2 0.8 0
39.6 0.8 0
40 0.8 0
40.4 0.8 0
0 0.9 0
0.4 0.9 0
0.8 0.9 0
1.2 0.9 0
1.6 0.9 0
2 0.9 0
2.4 0.9 0
2.8 0.9 0
3.2 0.9 0
3.6 0.9 0
4 0.9 0
4.4 0.9 0
4.8 0.9 0
5.2 0.9 0
5.6 0.9 0
6 0.9 0
6.4 0.9 0
6.8 0.9 0
7.2 0.9 0
7.6 0.9 0
8 0.9 0
8.4 0.9 0
8.8 0.9 0
9.2 0.9 0
9.6 0.9 0
10 0.9 0
10.4 0.9 0
10.8 0.9 0
11.2 0.9 0
11.6 0.9 0
12 0.9 0
12.4 0.9 0
12.8 0.9 0
13.2 0.9 0
13.6 0.9 0
14 0.9 0
14.4 0.9 0
14.8 0.9 0
15.2 0.9 0
15.6 0.9 0
16 0.9 0
16.4 0.9 0
16.8 0.9 0
17.2 0.9 0
17.6 0.9 0
18 0.9 0
18.4 0.9 0
18.8 0.9 0
19.2 0.9 0
19.6 0.9 0
20 0.9 0
20.4 0.9 0
20.8 0.9 0
21.2 0.9 0
21.6 0.9 0
22 0.9 0
22.4 0.9 0
22.8 0.9 0
23.2 0.9 0
23.6 0.9 0
24 0.9 0
24.4 0.9 0
24.8 0.9 0
25.2 0.9 0
25.6 0.9 0
26 0.9 0
26.4 0.9 0
26.8 0.9 0
27.2 0.9 0
27.6 0.9 0
28 0.9 0
28.4 0.9 0
28.8 0.9 0
29.2 0.9 0
29.6 0.9 0
30 0.9 0
30.4 0.9 0
30.8 0.9 0
31.2 0.9 0
31.6 0.9 0
32 0.9 0
32.4 0.9 0
32.8 0.9 0
33.2 0.9 0
33.6 0.9 0
34 0.9 0
34.4 0.9 0
34.8 0.9 0
35.2 0.9 0
35.6 0.9 0
36 0.9 0
36.4 0.9 0
36.8 0.9 0
37.2 0.9 0
37.6 0.9 0
38 0.9 0
38.4 0.9 0
38.8 0.9 0
39.2 0.9 0
39.6 0.9 0
40 0.9 0
40.4 0.9 0
0 1 0
0.4 1 0
0.8 1 0
1.2 1 0
1.6 1 0
2 1 0
2.4 1 0
2.8 1 0
3.2 1 0
3.6 1 0
4 1 0
4.4 1 0
4.8 1 0
5.2 1 0
5.6 1 0
6 1 0
6.4 1 0
6.8 1 0
7.2 1 0
7.6 1 0
8 1 0
8.4 1 0
8.8 1 0
9.2 1 0
9.6 1 0
10 1 0
10.4 1 0
10.8 1 0
11.2 1 0
11.6 1 0
12 1 0
12.4 1 0
12.8 1 0
13.2 1 0
13.6 1 0
14 1 0
14.4 1 0
14.8 1 0
15.2 1 0
15.6 1 0
16 1 0
16.4 1 0
16.8 1 0
17.2 1 0
17.6 1 0
18 1 0
18.4 1 0
18.8 1 0
19.2 1 0
19.6 1 0
20 1 0
20.4 1 0
20.8 1 0
21.2 1 0
21.6 1 0
22 1 0
22.4 1 0
22.8 1 0
23.2 1 0
23.6 1 0
24 1 0
24.4 1 0
24.8 1 0
25.2 1 0
25.6 1 0
26 1 0
26.4 1 0
26.8 1 0
27.2 1 0
27.6 1 0
28 1 0
28.4 1 0
28.8 1 0
29.2 1 0
29.6 1 0
30 1 0
30.4 1 0
30.8 1 0
31.2 1 0
31.6 1 0
32 1 0
32.4 1 0
32.8 1 0
33.2 1 0
33.6 1 0
34 1 0
34.4 1 0
34.8 1 0
35.2 1 0
35.6 1 0
36 1 0
36.4 1 0
36.8 1 0
37.2 1 0
37.6 1 0
38 1 0
38.4 1 0
38.8 1 0
39.2 1 0
39.6 1 0
40 1 0
40.4 1 0
0 1.1 0
0.4 1.1 0
0.8 1.1 0
1.2 1.1 0
1.6 1.1 0
2 1.1 0
2.4 1.1 0
2.8 1.1 0
3.2 1.1 0
3.6 1.1 0
4 1.1 0
4.4 1.1 0
4.8 1.1 0
5.2 1.1 0
5.6 1.1 0
6 1.1 0
6.4 1.1 0
6.8 1.1 0
7.2 1.1 0
7.6 1.1 0
8 1.1 0
8.4 1.1 0
8.8 1.1 0
9.2 1.1 0
9.6 1.1 0
10 1.1 0
10.4 1.1 0
10.8 1.1 0
11.2 1.1 0
11.6 1.1 0
12 1.1 0
12.4 1.1 0
12.8 1.1 0
13.2 1.1 0
13.6 1.1 0
14 1.1 0
14.4 1.1 0
14.8 1.1 0
15.2 1.1 0
15.6 1.1 0
16 1.1 0
16.4 1.1 0
16.8 1.1 0
17.2 1.1 0
17.6 1.1 0
18 1.1 0
18.4 1.1 0
18.8 1.1 0
19.2 1.1 0
19.6 1.1 0
20 1.1 0
20.4 1.1 0
20.8 1.1 0
21.2 1.1 0
21.6 1.1 0
22 1.1 0
22.4 1.1 0
22.8 1.1 0
23.2 1.1 0
23.6 1.1 0
24 1.1 0
24.4 1.1 0
24.8 1.1 0
25.2 1.1 0
25.6 1.1 0
26 1.1 0
26.4 1.1 0
26.8 1.1 0
27.2 1.1 0
27.6 1.1 0
28 1.1 0
28.4 1.1 0
28.8 1.1 0
29.2 1.1 0
29.6 1.1 0
30 1.1 0
30.4 1.1 0
30.8 1.1 0
31.2 1.1 0
31.6 1.1 0
32 1.1 0
32.4 1.1 0
32.8 1.1 0
33.2 1.1 0
33.6 1.1 0
34 1.1 0
34.4 1.1 0
34.8 1.1 0
35.2 1.1 0
35.6 1.1 0
36 1.1 0
36.4 1.1 0
36.8 1.1 0
37.2 1.1 0
37.6 1.1 0
38 1.1 0
38.4 1.1 0
38.8 1.1 0
39.2 1.1 0
39.6 1.1 0
40 1.1 0
40.4 1.1 0

POINT_DATA 1224

SCALARS v double
LOOKUP_TABLE default
0
0
0
0
0
0
0
0
0
0
0
0
0
0
0
0
0
0
0
0
0
0
0
0
0
0
0
0
0
0
0
0
0
0
0
0
0
0
0
0
0
0
0
0
0
0
0
0
0
0
0
0
0
0
0
0
0
0
0
0
0
0
0
0
0
0
0
0
0
0
0
0
0
0
0
0
0
0
0
0
0
0
0
0
0
0
0
0
0
0
0
0
0
0
0
0
0
0
0
0
0
0
0
0.0787075
0.0554407
0.0327103
0.0178113
0.00965826
0.00557768
0.00354709
0.00247032
0.00183779
0.00142579
0.00113504
0.000918472
0.000751444
0.000619618
0.000513883
0.000428072
0.000357821
0.000299893
0.00025185
0.000211853
0.000178452
0.000150456
0.000126936
0.000107172
9.05356e-05
7.65024e-05
6.46587e-05
5.46651e-05
4.62351e-05
3.91026e-05
3.30667e-05
2.79777e-05
2.3671e-05
2.00226e-05
1.69426e-05
1.43352e-05
1.21299e-05
1.02628e-05
8.68353e-06
7.3529e-06
6.21755e-06
5.25682e-06
4.45776e-06
3.77218e-06
3.18157e-06
2.69805e-06
2.29008e-06
1.92956e-06
1.63211e-06
1.38603e-06
1.17184e-06
9.90927e-07
8.37115e-07
7.09484e-07
6.0214e-07
5.07667e-07
4.29459e-07
3.63959e-07
3.08321e-07
2.60703e-07
2.20285e-07
1.86738e-07
1.57726e-07
1.33849e-07
1.13071e-07
9.5616e-08
8.11195e-08
6.84472e-08
5.79988e-08
4.90812e-08
4.15195e-08
3.51485e-08
2.97333e-08
2.51566e-08
2.12963e-08
1.8006e-08
1.52419e-08
1.28975e-08
1.0913e-08
9.22709e-09
7.81364e-09
6.60479e-09
5.58971e-09
4.73005e-09
4.00135e-09
3.38461e-09
2.86166e-09
2.41823e-09
2.04801e-09
1.7349e-09
1.4649e-09
1.24002e-09
1.04958e-09
8.87513e-10
7.51176e-10
6.34673e-10
5.46369e-10
4.3007e-10
4.49778e-10
2.52455e-12
2.52455e-12
0
0.0668416
0.060839
0.042293
0.0271275
0.0175004
0.0118521
0.00849204
0.00637032
0.00493628
0.00391078
0.00314663
0.00256041
0.00210108
0.00173541
0.00144064
0.00120071
0.00100388
0.000841384
0.000706559
0.00059427
0.000500448
0.000421833
0.00035584
0.000300372
0.000253672
0.000214309
0.000181111
0.000153101
0.000129454
0.000109465
9.25767e-05
7.83127e-05
6.62443e-05
5.60388e-05
4.74123e-05
4.01129e-05
3.39396e-05
2.87156e-05
2.42993e-05
2.05638e-05
1.7394e-05
1.47196e-05
1.24637e-05
1.05406e-05
8.91407e-06
7.55265e-06
6.39131e-06
5.40068e-06
4.57372e-06
3.87305e-06
3.27582e-06
2.77143e-06
2.34435e-06
1.98588e-06
1.68072e-06
1.42061e-06
1.20265e-06
1.01812e-06
8.61786e-07
7.28812e-07
6.16805e-07
5.22064e-07
4.41634e-07
3.7404e-07
3.16199e-07
2.67754e-07
2.2661e-07
1.91629e-07
1.62253e-07
1.37271e-07
1.16165e-07
9.83199e-08
8.31886e-08
7.04003e-08
5.95645e-08
5.03986e-08
4.26561e-08
3.61002e-08
3.05398e-08
2.58416e-08
2.18678e-08
1.8502e-08
1.56573e-08
1.32486e-08
1.12082e-08
9.48351e-09
8.02162e-09
6.78666e-09
5.74483e-09
4.86024e-09
4.10965e-09
3.47766e-09
2.94228e-09
2.48835e-09
2.10673e-09
1.77903e-09
1.52135e-09
1.22207e-09
1.21682e-09
3.21207e-12
3.21207e-12
0
0.0434614
0.0450425
0.0342517
0.0238913
0.0167606
0.0122647
0.00937327
0.00739328
0.0059502
0.0048499
0.00398639
0.00329625
0.00273789
0.00228214
0.00190762
0.00159821
0.00134146
0.00112763
0.000949042
0.000799547
0.000674144
0.000568772
0.000480136
0.000405499
0.00034258
0.000289503
0.000244712
0.000206899
0.000174954
0.000147952
0.000125138
0.000105856
8.95436e-05
7.57527e-05
6.40902e-05
5.42235e-05
4.58783e-05
3.88175e-05
3.28478e-05
2.77937e-05
2.35132e-05
1.99014e-05
1.68435e-05
1.42449e-05
1.20552e-05
1.02089e-05
8.63401e-06
7.30261e-06
6.18437e-06
5.23345e-06
4.42738e-06
3.74593e-06
3.17007e-06
2.68432e-06
2.27053e-06
1.92066e-06
1.62596e-06
1.37619e-06
1.16454e-06
9.8507e-07
8.33895e-07
7.0556e-07
5.9713e-07
5.05388e-07
4.27449e-07
3.61968e-07
3.06199e-07
2.59095e-07
2.19305e-07
1.85541e-07
1.57026e-07
1.32894e-07
1.12448e-07
9.51595e-08
8.05101e-08
6.81351e-08
5.76624e-08
4.87951e-08
4.12806e-08
3.49374e-08
2.95614e-08
2.50147e-08
2.11655e-08
1.79091e-08
1.51524e-08
1.28211e-08
1.08459e-08
9.1773e-09
7.7663e-09
6.5683e-09
5.55581e-09
4.70055e-09
3.97658e-09
3.36293e-09
2.84646e-09
2.40366e-09
2.04896e-09
1.66299e-09
1.61967e-09
3.89866e-12
3.89866e-12
0
0.0210569
0.0230874
0.0183628
0.0133674
0.00978212
0.00744484
0.00588651
0.00477598
0.00393344
0.00326682
0.00272645
0.00228249
0.00191489
0.00160901
0.00135366
0.00113994
0.000960731
0.000810212
0.000683651
0.000577127
0.000487376
0.000411709
0.000347894
0.000294038
0.000248558
0.000210146
0.000177699
0.000150283
0.000127103
0.000107505
9.09422e-05
7.6934e-05
6.50833e-05
5.5064e-05
4.65877e-05
3.9417e-05
3.33511e-05
2.82195e-05
2.38799e-05
2.02036e-05
1.70945e-05
1.44703e-05
1.22428e-05
1.03546e-05
8.76711e-06
7.42153e-06
6.27444e-06
5.31028e-06
4.49679e-06
3.80405e-06
3.21839e-06
2.72307e-06
2.30536e-06
1.95141e-06
1.65013e-06
1.3965e-06
1.18219e-06
1.00056e-06
8.46428e-07
7.16159e-07
6.06285e-07
5.12903e-07
4.34209e-07
3.67307e-07
3.10801e-07
2.63155e-07
2.22565e-07
1.88395e-07
1.59422e-07
1.34884e-07
1.14162e-07
9.6609e-08
8.17453e-08
6.91747e-08
5.85285e-08
4.95357e-08
4.19162e-08
3.54653e-08
3.0007e-08
2.53987e-08
2.1487e-08
1.8181e-08
1.53808e-08
1.30146e-08
1.10112e-08
9.31558e-09
7.87974e-09
6.6669e-09
5.63984e-09
4.76814e-09
4.03302e-09
3.41133e-09
2.88467e-09
2.43878e-09
2.06272e-09
1.74141e-09
1.48201e-09
1.20867e-09
1.16489e-09
4.48507e-12
4.48507e-12
0
1.3966e-10
-2.09908e-08
-2.14638e-09
2.46664e-08
3.55891e-09
-5.45348e-09
-5.6806e-09
-9.23007e-09
-7.82462e-09
7.47046e-10
5.98621e-09
5.97204e-09
-5.6644e-11
-6.13637e-09
-3.9829e-09
1.92678e-09
-2.82933e-10
-2.90209e-09
2.42973e-09
4.32176e-09
-2.06326e-09
-3.92898e-09
1.66191e-09
2.67099e-09
-1.34324e-09
-2.3037e-09
1.29738e-09
2.54441e-09
-1.51895e-09
-1.58918e-09
1.82053e-09
-1.75255e-11
-7.98829e-10
7.19041e-10
-9.49576e-11
-1.14192e-10
-2.10399e-10
5.55291e-10
7.29714e-10
-1.89819e-09
2.67672e-10
2.80192e-09
-1.75103e-09
-2.18219e-09
2.96692e-09
6.84376e-10
-2.5097e-09
6.47215e-10
1.12679e-09
-1.72905e-10
-4.58847e-10
-3.46839e-10
8.11781e-10
1.46926e-10
-4.79537e-10
2.64764e-11
1.91266e-10
1.8857e-10
-1.69069e-10
1.29845e-11
4.86815e-11
-2.31811e-12
1.09893e-10
-8.57769e-11
3.77423e-11
2.65589e-11
-3.04898e-11
2.64323e-11
-7.31398e-12
-3.98034e-12
5.36281e-12
-7.06084e-12
-8.98694e-12
-8.96202e-12
-8.46599e-12
-7.03692e-12
-1.23768e-11
-1.61145e-11
-1.12989e-11
-9.29493e-12
-1.43193e-11
-1.53678e-11
-1.64236e-11
-1.46419e-11
-1.50712e-11
-1.63826e-11
-1.65477e-11
-1.59565e-11
-1.66652e-11
-1.79054e-11
-1.6856e-11
-1.6385e-11
-1.6714e-11
-1.63978e-11
-1.61327e-11
-1.53792e-11
-1.39805e-11
-1.12661e-11
-8.179e-12
5.14137e-12
5.14137e-12
0
-0.0210569
-0.0230874
-0.0183628
-0.0133673
-0.00978212
-0.00744486
-0.00588652
-0.00477599
-0.00393344
-0.00326681
-0.00272644
-0.00228248
-0.00191489
-0.00160902
-0.00135366
-0.00113994
-0.00096073
-0.000810216
-0.000683649
-0.000577121
-0.000487378
-0.000411716
-0.000347892
-0.000294033
-0.000248559
-0.000210149
-0.000177698
-0.000150279
-0.000127104
-0.000107508
-9.09402e-05
-7.69333e-05
-6.50845e-05
-5.50632e-05
-4.65877e-05
-3.94173e-05
-3.33513e-05
-2.82189e-05
-2.38786e-05
-2.02059e-05
-1.70949e-05
-1.44663e-05
-1.22443e-05
-1.03584e-05
-8.76363e-06
-7.41937e-06
-6.27787e-06
-5.31033e-06
-4.49482e-06
-3.80394e-06
-3.21916e-06
-2.72363e-06
-2.30436e-06
-1.95094e-06
-1.65073e-06
-1.39666e-06
-1.18188e-06
-1.00024e-06
-8.46608e-07
-7.1619e-07
-6.06203e-07
-5.12894e-07
-4.34062e-07
-3.67388e-07
-3.10787e-07
-2.63087e-07
-2.22608e-07
-1.8837e-07
-1.59424e-07
-1.34896e-07
-1.14161e-07
-9.66191e-08
-8.17612e-08
-6.91907e-08
-5.85508e-08
-4.95535e-08
-4.19387e-08
-3.54928e-08
-3.00323e-08
-2.54204e-08
-2.15157e-08
-1.82102e-08
-1.54119e-08
-1.30438e-08
-1.10419e-08
-9.34747e-09
-7.91198e-09
-6.69795e-09
-5.67138e-09
-4.80194e-09
-4.06535e-09
-3.44278e-09
-2.91612e-09
-2.46941e-09
-2.09238e-09
-1.76934e-09
-1.50749e-09
-1.22933e-09
-1.17919e-09
4.30369e-12
4.30369e-12
0
-0.0434614
-0.0450424
-0.0342517
-0.0238913
-0.0167606
-0.0122647
-0.00937329
-0.00739327
-0.00595019
-0.00484989
-0.00398639
-0.00329625
-0.00273789
-0.00228214
-0.00190762
-0.0015982
-0.00134145
-0.00112763
-0.000949047
-0.000799548
-0.00067414
-0.000568774
-0.000480139
-0.000405496
-0.000342578
-0.000289505
-0.000244714
-0.000206898
-0.000174951
-0.000147954
-0.00012514
-0.000105853
-8.95438e-05
-7.57532e-05
-6.40897e-05
-5.42239e-05
-4.5878e-05
-3.88182e-05
-3.2847e-05
-2.77924e-05
-2.35157e-05
-1.99012e-05
-1.68403e-05
-1.4247e-05
-1.20576e-05
-1.02054e-05
-8.63334e-06
-7.30563e-06
-6.18342e-06
-5.23219e-06
-4.42774e-06
-3.74617e-06
-3.17052e-06
-2.68352e-06
-2.27024e-06
-1.92128e-06
-1.62584e-06
-1.37601e-06
-1.16436e-06
-9.85201e-07
-8.33869e-07
-7.05507e-07
-5.97161e-07
-5.05264e-07
-4.27559e-07
-3.61885e-07
-3.06187e-07
-2.59135e-07
-2.19286e-07
-1.85559e-07
-1.57041e-07
-1.32897e-07
-1.12462e-07
-9.51724e-08
-8.05401e-08
-6.81609e-08
-5.76826e-08
-4.88142e-08
-4.13098e-08
-3.49651e-08
-2.95896e-08
-2.50422e-08
-2.11931e-08
-1.79373e-08
-1.51831e-08
-1.28505e-08
-1.08761e-08
-9.20659e-09
-7.79357e-09
-6.59683e-09
-5.58436e-09
-4.72791e-09
-4.00268e-09
-3.38817e-09
-2.86942e-09
-2.42482e-09
-2.06775e-09
-1.67754e-09
-1.62951e-09
3.42282e-12
3.42282e-12
0
-0.0668416
-0.0608389
-0.042293
-0.0271276
-0.0175004
-0.0118521
-0.00849206
-0.00637029
-0.00493626
-0.00391077
-0.00314664
-0.00256042
-0.00210109
-0.0017354
-0.00144064
-0.00120071
-0.00100387
-0.000841378
-0.000706569
-0.000594277
-0.000500439
-0.000421829
-0.000355848
-0.000300371
-0.000253666
-0.000214307
-0.000181116
-0.000153104
-0.000129447
-0.000109465
-9.25827e-05
-7.83096e-05
-6.62428e-05
-5.60406e-05
-4.74116e-05
-4.01131e-05
-3.3939e-05
-2.87173e-05
-2.42995e-05
-2.05591e-05
-1.73974e-05
-1.47238e-05
-1.24568e-05
-1.05396e-05
-8.92195e-06
-7.54934e-06
-6.38602e-06
-5.40561e-06
-4.57471e-06
-3.87072e-06
-3.2755e-06
-2.77136e-06
-2.34611e-06
-1.98515e-06
-1.67939e-06
-1.4215e-06
-1.20287e-06
-1.01807e-06
-8.61305e-07
-7.28929e-07
-6.16897e-07
-5.21964e-07
-4.41832e-07
-3.73752e-07
-3.16365e-07
-2.67715e-07
-2.26523e-07
-1.91727e-07
-1.6223e-07
-1.37289e-07
-1.16189e-07
-9.83194e-08
-8.32072e-08
-7.04151e-08
-5.95919e-08
-5.04304e-08
-4.26785e-08
-3.61169e-08
-3.05689e-08
-2.58723e-08
-2.18944e-08
-1.85304e-08
-1.56831e-08
-1.32747e-08
-1.12364e-08
-9.50948e-09
-8.04922e-09
-6.8142e-09
-5.76783e-09
-4.88211e-09
-4.1329e-09
-3.49884e-09
-2.96129e-09
-2.50642e-09
-2.12243e-09
-1.79189e-09
-1.53179e-09
-1.2289e-09
-1.22033e-09
3.62589e-12
3.62589e-12
0
-0.0787076
-0.0554406
-0.0327103
-0.0178114
-0.00965828
-0.00557768
-0.00354709
-0.00247029
-0.00183776
-0.00142579
-0.00113507
-0.000918497
-0.00075145
-0.000619606
-0.000513874
-0.000428075
-0.000357816
-0.000299886
-0.00025186
-0.000211865
-0.000178443
-0.000150447
-0.000126944
-0.000107176
-9.05291e-05
-7.64979e-05
-6.46637e-05
-5.4671e-05
-4.62285e-05
-3.90993e-05
-3.30735e-05
-2.79763e-05
-2.36681e-05
-2.00247e-05
-1.69423e-05
-1.4335e-05
-1.21292e-05
-1.02644e-05
-8.68471e-06
-7.34742e-06
-6.21968e-06
-5.26363e-06
-4.45106e-06
-3.76772e-06
-3.19089e-06
-2.6977e-06
-2.28217e-06
-1.93329e-06
-1.63538e-06
-1.3836e-06
-1.17072e-06
-9.90712e-07
-8.3916e-07
-7.09424e-07
-6.00246e-07
-5.08272e-07
-4.30056e-07
-3.6399e-07
-3.07805e-07
-2.60648e-07
-2.205e-07
-1.86628e-07
-1.57968e-07
-1.33574e-07
-1.13144e-07
-9.56833e-08
-8.09851e-08
-6.85507e-08
-5.79982e-08
-4.90906e-08
-4.15442e-08
-3.51523e-08
-2.97556e-08
-2.51807e-08
-2.13139e-08
-1.8037e-08
-1.52673e-08
-1.29204e-08
-1.09399e-08
-9.25818e-09
-7.83669e-09
-6.63446e-09
-5.6164e-09
-4.7552e-09
-4.02573e-09
-3.40742e-09
-2.88599e-09
-2.44414e-09
-2.06875e-09
-1.75162e-09
-1.48319e-09
-1.25559e-09
-1.06229e-09
-8.99141e-10
-7.61109e-10
-6.4127e-10
-5.50584e-10
-4.30269e-10
-4.48025e-10
2.61099e-12
2.61099e-12
0
0
0
0
0
0
0
0
0
0
0
0
0
0
0
0
0
0
0
0
0
0
0
0
0
0
0
0
0
0
0
0
0
0
0
0
0
0
0
0
0
0
0
0
0
0
0
0
0
0
0
0
0
0
0
0
0
0
0
0
0
0
0
0
0
0
0
0
0
0
0
0
0
0
0
0
0
0
0
0
0
0
0
0
0
0
0
0
0
0
0
0
0
0
0
0
0
0
0
0
0
0
0
0
0
0
0
0
0
0
0
0
0
0
0
0
0
0
0
0
0
0
0
0
0
0
0
0
0
0
0
0
0
0
0
0
0
0
0
0
0
0
0
0
0
0
0
0
0
0
0
0
0
0
0
0
0
0
0
0
0
0
0
0
0
0
0
0
0
0
0
0
0
0
0
0
0
0
0
0
0
0
0
0
0
0
0
0
0
0
0
0
0
0
0
0
0
0
0
0
0
0
0
0
