# vtk DataFile Version 2.0
FlowField
ASCII
DATASET STRUCTURED_GRID
DIMENSIONS 101 11 1 
POINTS 1111 double
0 0 0
0.3 0 0
0.6 0 0
0.9 0 0
1.2 0 0
1.5 0 0
1.8 0 0
2.1 0 0
2.4 0 0
2.7 0 0
3 0 0
3.3 0 0
3.6 0 0
3.9 0 0
4.2 0 0
4.5 0 0
4.8 0 0
5.1 0 0
5.4 0 0
5.7 0 0
6 0 0
6.3 0 0
6.6 0 0
6.9 0 0
7.2 0 0
7.5 0 0
7.8 0 0
8.1 0 0
8.4 0 0
8.7 0 0
9 0 0
9.3 0 0
9.6 0 0
9.9 0 0
10.2 0 0
10.5 0 0
10.8 0 0
11.1 0 0
11.4 0 0
11.7 0 0
12 0 0
12.3 0 0
12.6 0 0
12.9 0 0
13.2 0 0
13.5 0 0
13.8 0 0
14.1 0 0
14.4 0 0
14.7 0 0
15 0 0
15.3 0 0
15.6 0 0
15.9 0 0
16.2 0 0
16.5 0 0
16.8 0 0
17.1 0 0
17.4 0 0
17.7 0 0
18 0 0
18.3 0 0
18.6 0 0
18.9 0 0
19.2 0 0
19.5 0 0
19.8 0 0
20.1 0 0
20.4 0 0
20.7 0 0
21 0 0
21.3 0 0
21.6 0 0
21.9 0 0
22.2 0 0
22.5 0 0
22.8 0 0
23.1 0 0
23.4 0 0
23.7 0 0
24 0 0
24.3 0 0
24.6 0 0
24.9 0 0
25.2 0 0
25.5 0 0
25.8 0 0
26.1 0 0
26.4 0 0
26.7 0 0
27 0 0
27.3 0 0
27.6 0 0
27.9 0 0
28.2 0 0
28.5 0 0
28.8 0 0
29.1 0 0
29.4 0 0
29.7 0 0
30 0 0
0 0.1 0
0.3 0.1 0
0.6 0.1 0
0.9 0.1 0
1.2 0.1 0
1.5 0.1 0
1.8 0.1 0
2.1 0.1 0
2.4 0.1 0
2.7 0.1 0
3 0.1 0
3.3 0.1 0
3.6 0.1 0
3.9 0.1 0
4.2 0.1 0
4.5 0.1 0
4.8 0.1 0
5.1 0.1 0
5.4 0.1 0
5.7 0.1 0
6 0.1 0
6.3 0.1 0
6.6 0.1 0
6.9 0.1 0
7.2 0.1 0
7.5 0.1 0
7.8 0.1 0
8.1 0.1 0
8.4 0.1 0
8.7 0.1 0
9 0.1 0
9.3 0.1 0
9.6 0.1 0
9.9 0.1 0
10.2 0.1 0
10.5 0.1 0
10.8 0.1 0
11.1 0.1 0
11.4 0.1 0
11.7 0.1 0
12 0.1 0
12.3 0.1 0
12.6 0.1 0
12.9 0.1 0
13.2 0.1 0
13.5 0.1 0
13.8 0.1 0
14.1 0.1 0
14.4 0.1 0
14.7 0.1 0
15 0.1 0
15.3 0.1 0
15.6 0.1 0
15.9 0.1 0
16.2 0.1 0
16.5 0.1 0
16.8 0.1 0
17.1 0.1 0
17.4 0.1 0
17.7 0.1 0
18 0.1 0
18.3 0.1 0
18.6 0.1 0
18.9 0.1 0
19.2 0.1 0
19.5 0.1 0
19.8 0.1 0
20.1 0.1 0
20.4 0.1 0
20.7 0.1 0
21 0.1 0
21.3 0.1 0
21.6 0.1 0
21.9 0.1 0
22.2 0.1 0
22.5 0.1 0
22.8 0.1 0
23.1 0.1 0
23.4 0.1 0
23.7 0.1 0
24 0.1 0
24.3 0.1 0
24.6 0.1 0
24.9 0.1 0
25.2 0.1 0
25.5 0.1 0
25.8 0.1 0
26.1 0.1 0
26.4 0.1 0
26.7 0.1 0
27 0.1 0
27.3 0.1 0
27.6 0.1 0
27.9 0.1 0
28.2 0.1 0
28.5 0.1 0
28.8 0.1 0
29.1 0.1 0
29.4 0.1 0
29.7 0.1 0
30 0.1 0
0 0.2 0
0.3 0.2 0
0.6 0.2 0
0.9 0.2 0
1.2 0.2 0
1.5 0.2 0
1.8 0.2 0
2.1 0.2 0
2.4 0.2 0
2.7 0.2 0
3 0.2 0
3.3 0.2 0
3.6 0.2 0
3.9 0.2 0
4.2 0.2 0
4.5 0.2 0
4.8 0.2 0
5.1 0.2 0
5.4 0.2 0
5.7 0.2 0
6 0.2 0
6.3 0.2 0
6.6 0.2 0
6.9 0.2 0
7.2 0.2 0
7.5 0.2 0
7.8 0.2 0
8.1 0.2 0
8.4 0.2 0
8.7 0.2 0
9 0.2 0
9.3 0.2 0
9.6 0.2 0
9.9 0.2 0
10.2 0.2 0
10.5 0.2 0
10.8 0.2 0
11.1 0.2 0
11.4 0.2 0
11.7 0.2 0
12 0.2 0
12.3 0.2 0
12.6 0.2 0
12.9 0.2 0
13.2 0.2 0
13.5 0.2 0
13.8 0.2 0
14.1 0.2 0
14.4 0.2 0
14.7 0.2 0
15 0.2 0
15.3 0.2 0
15.6 0.2 0
15.9 0.2 0
16.2 0.2 0
16.5 0.2 0
16.8 0.2 0
17.1 0.2 0
17.4 0.2 0
17.7 0.2 0
18 0.2 0
18.3 0.2 0
18.6 0.2 0
18.9 0.2 0
19.2 0.2 0
19.5 0.2 0
19.8 0.2 0
20.1 0.2 0
20.4 0.2 0
20.7 0.2 0
21 0.2 0
21.3 0.2 0
21.6 0.2 0
21.9 0.2 0
22.2 0.2 0
22.5 0.2 0
22.8 0.2 0
23.1 0.2 0
23.4 0.2 0
23.7 0.2 0
24 0.2 0
24.3 0.2 0
24.6 0.2 0
24.9 0.2 0
25.2 0.2 0
25.5 0.2 0
25.8 0.2 0
26.1 0.2 0
26.4 0.2 0
26.7 0.2 0
27 0.2 0
27.3 0.2 0
27.6 0.2 0
27.9 0.2 0
28.2 0.2 0
28.5 0.2 0
28.8 0.2 0
29.1 0.2 0
29.4 0.2 0
29.7 0.2 0
30 0.2 0
0 0.3 0
0.3 0.3 0
0.6 0.3 0
0.9 0.3 0
1.2 0.3 0
1.5 0.3 0
1.8 0.3 0
2.1 0.3 0
2.4 0.3 0
2.7 0.3 0
3 0.3 0
3.3 0.3 0
3.6 0.3 0
3.9 0.3 0
4.2 0.3 0
4.5 0.3 0
4.8 0.3 0
5.1 0.3 0
5.4 0.3 0
5.7 0.3 0
6 0.3 0
6.3 0.3 0
6.6 0.3 0
6.9 0.3 0
7.2 0.3 0
7.5 0.3 0
7.8 0.3 0
8.1 0.3 0
8.4 0.3 0
8.7 0.3 0
9 0.3 0
9.3 0.3 0
9.6 0.3 0
9.9 0.3 0
10.2 0.3 0
10.5 0.3 0
10.8 0.3 0
11.1 0.3 0
11.4 0.3 0
11.7 0.3 0
12 0.3 0
12.3 0.3 0
12.6 0.3 0
12.9 0.3 0
13.2 0.3 0
13.5 0.3 0
13.8 0.3 0
14.1 0.3 0
14.4 0.3 0
14.7 0.3 0
15 0.3 0
15.3 0.3 0
15.6 0.3 0
15.9 0.3 0
16.2 0.3 0
16.5 0.3 0
16.8 0.3 0
17.1 0.3 0
17.4 0.3 0
17.7 0.3 0
18 0.3 0
18.3 0.3 0
18.6 0.3 0
18.9 0.3 0
19.2 0.3 0
19.5 0.3 0
19.8 0.3 0
20.1 0.3 0
20.4 0.3 0
20.7 0.3 0
21 0.3 0
21.3 0.3 0
21.6 0.3 0
21.9 0.3 0
22.2 0.3 0
22.5 0.3 0
22.8 0.3 0
23.1 0.3 0
23.4 0.3 0
23.7 0.3 0
24 0.3 0
24.3 0.3 0
24.6 0.3 0
24.9 0.3 0
25.2 0.3 0
25.5 0.3 0
25.8 0.3 0
26.1 0.3 0
26.4 0.3 0
26.7 0.3 0
27 0.3 0
27.3 0.3 0
27.6 0.3 0
27.9 0.3 0
28.2 0.3 0
28.5 0.3 0
28.8 0.3 0
29.1 0.3 0
29.4 0.3 0
29.7 0.3 0
30 0.3 0
0 0.4 0
0.3 0.4 0
0.6 0.4 0
0.9 0.4 0
1.2 0.4 0
1.5 0.4 0
1.8 0.4 0
2.1 0.4 0
2.4 0.4 0
2.7 0.4 0
3 0.4 0
3.3 0.4 0
3.6 0.4 0
3.9 0.4 0
4.2 0.4 0
4.5 0.4 0
4.8 0.4 0
5.1 0.4 0
5.4 0.4 0
5.7 0.4 0
6 0.4 0
6.3 0.4 0
6.6 0.4 0
6.9 0.4 0
7.2 0.4 0
7.5 0.4 0
7.8 0.4 0
8.1 0.4 0
8.4 0.4 0
8.7 0.4 0
9 0.4 0
9.3 0.4 0
9.6 0.4 0
9.9 0.4 0
10.2 0.4 0
10.5 0.4 0
10.8 0.4 0
11.1 0.4 0
11.4 0.4 0
11.7 0.4 0
12 0.4 0
12.3 0.4 0
12.6 0.4 0
12.9 0.4 0
13.2 0.4 0
13.5 0.4 0
13.8 0.4 0
14.1 0.4 0
14.4 0.4 0
14.7 0.4 0
15 0.4 0
15.3 0.4 0
15.6 0.4 0
15.9 0.4 0
16.2 0.4 0
16.5 0.4 0
16.8 0.4 0
17.1 0.4 0
17.4 0.4 0
17.7 0.4 0
18 0.4 0
18.3 0.4 0
18.6 0.4 0
18.9 0.4 0
19.2 0.4 0
19.5 0.4 0
19.8 0.4 0
20.1 0.4 0
20.4 0.4 0
20.7 0.4 0
21 0.4 0
21.3 0.4 0
21.6 0.4 0
21.9 0.4 0
22.2 0.4 0
22.5 0.4 0
22.8 0.4 0
23.1 0.4 0
23.4 0.4 0
23.7 0.4 0
24 0.4 0
24.3 0.4 0
24.6 0.4 0
24.9 0.4 0
25.2 0.4 0
25.5 0.4 0
25.8 0.4 0
26.1 0.4 0
26.4 0.4 0
26.7 0.4 0
27 0.4 0
27.3 0.4 0
27.6 0.4 0
27.9 0.4 0
28.2 0.4 0
28.5 0.4 0
28.8 0.4 0
29.1 0.4 0
29.4 0.4 0
29.7 0.4 0
30 0.4 0
0 0.5 0
0.3 0.5 0
0.6 0.5 0
0.9 0.5 0
1.2 0.5 0
1.5 0.5 0
1.8 0.5 0
2.1 0.5 0
2.4 0.5 0
2.7 0.5 0
3 0.5 0
3.3 0.5 0
3.6 0.5 0
3.9 0.5 0
4.2 0.5 0
4.5 0.5 0
4.8 0.5 0
5.1 0.5 0
5.4 0.5 0
5.7 0.5 0
6 0.5 0
6.3 0.5 0
6.6 0.5 0
6.9 0.5 0
7.2 0.5 0
7.5 0.5 0
7.8 0.5 0
8.1 0.5 0
8.4 0.5 0
8.7 0.5 0
9 0.5 0
9.3 0.5 0
9.6 0.5 0
9.9 0.5 0
10.2 0.5 0
10.5 0.5 0
10.8 0.5 0
11.1 0.5 0
11.4 0.5 0
11.7 0.5 0
12 0.5 0
12.3 0.5 0
12.6 0.5 0
12.9 0.5 0
13.2 0.5 0
13.5 0.5 0
13.8 0.5 0
14.1 0.5 0
14.4 0.5 0
14.7 0.5 0
15 0.5 0
15.3 0.5 0
15.6 0.5 0
15.9 0.5 0
16.2 0.5 0
16.5 0.5 0
16.8 0.5 0
17.1 0.5 0
17.4 0.5 0
17.7 0.5 0
18 0.5 0
18.3 0.5 0
18.6 0.5 0
18.9 0.5 0
19.2 0.5 0
19.5 0.5 0
19.8 0.5 0
20.1 0.5 0
20.4 0.5 0
20.7 0.5 0
21 0.5 0
21.3 0.5 0
21.6 0.5 0
21.9 0.5 0
22.2 0.5 0
22.5 0.5 0
22.8 0.5 0
23.1 0.5 0
23.4 0.5 0
23.7 0.5 0
24 0.5 0
24.3 0.5 0
24.6 0.5 0
24.9 0.5 0
25.2 0.5 0
25.5 0.5 0
25.8 0.5 0
26.1 0.5 0
26.4 0.5 0
26.7 0.5 0
27 0.5 0
27.3 0.5 0
27.6 0.5 0
27.9 0.5 0
28.2 0.5 0
28.5 0.5 0
28.8 0.5 0
29.1 0.5 0
29.4 0.5 0
29.7 0.5 0
30 0.5 0
0 0.6 0
0.3 0.6 0
0.6 0.6 0
0.9 0.6 0
1.2 0.6 0
1.5 0.6 0
1.8 0.6 0
2.1 0.6 0
2.4 0.6 0
2.7 0.6 0
3 0.6 0
3.3 0.6 0
3.6 0.6 0
3.9 0.6 0
4.2 0.6 0
4.5 0.6 0
4.8 0.6 0
5.1 0.6 0
5.4 0.6 0
5.7 0.6 0
6 0.6 0
6.3 0.6 0
6.6 0.6 0
6.9 0.6 0
7.2 0.6 0
7.5 0.6 0
7.8 0.6 0
8.1 0.6 0
8.4 0.6 0
8.7 0.6 0
9 0.6 0
9.3 0.6 0
9.6 0.6 0
9.9 0.6 0
10.2 0.6 0
10.5 0.6 0
10.8 0.6 0
11.1 0.6 0
11.4 0.6 0
11.7 0.6 0
12 0.6 0
12.3 0.6 0
12.6 0.6 0
12.9 0.6 0
13.2 0.6 0
13.5 0.6 0
13.8 0.6 0
14.1 0.6 0
14.4 0.6 0
14.7 0.6 0
15 0.6 0
15.3 0.6 0
15.6 0.6 0
15.9 0.6 0
16.2 0.6 0
16.5 0.6 0
16.8 0.6 0
17.1 0.6 0
17.4 0.6 0
17.7 0.6 0
18 0.6 0
18.3 0.6 0
18.6 0.6 0
18.9 0.6 0
19.2 0.6 0
19.5 0.6 0
19.8 0.6 0
20.1 0.6 0
20.4 0.6 0
20.7 0.6 0
21 0.6 0
21.3 0.6 0
21.6 0.6 0
21.9 0.6 0
22.2 0.6 0
22.5 0.6 0
22.8 0.6 0
23.1 0.6 0
23.4 0.6 0
23.7 0.6 0
24 0.6 0
24.3 0.6 0
24.6 0.6 0
24.9 0.6 0
25.2 0.6 0
25.5 0.6 0
25.8 0.6 0
26.1 0.6 0
26.4 0.6 0
26.7 0.6 0
27 0.6 0
27.3 0.6 0
27.6 0.6 0
27.9 0.6 0
28.2 0.6 0
28.5 0.6 0
28.8 0.6 0
29.1 0.6 0
29.4 0.6 0
29.7 0.6 0
30 0.6 0
0 0.7 0
0.3 0.7 0
0.6 0.7 0
0.9 0.7 0
1.2 0.7 0
1.5 0.7 0
1.8 0.7 0
2.1 0.7 0
2.4 0.7 0
2.7 0.7 0
3 0.7 0
3.3 0.7 0
3.6 0.7 0
3.9 0.7 0
4.2 0.7 0
4.5 0.7 0
4.8 0.7 0
5.1 0.7 0
5.4 0.7 0
5.7 0.7 0
6 0.7 0
6.3 0.7 0
6.6 0.7 0
6.9 0.7 0
7.2 0.7 0
7.5 0.7 0
7.8 0.7 0
8.1 0.7 0
8.4 0.7 0
8.7 0.7 0
9 0.7 0
9.3 0.7 0
9.6 0.7 0
9.9 0.7 0
10.2 0.7 0
10.5 0.7 0
10.8 0.7 0
11.1 0.7 0
11.4 0.7 0
11.7 0.7 0
12 0.7 0
12.3 0.7 0
12.6 0.7 0
12.9 0.7 0
13.2 0.7 0
13.5 0.7 0
13.8 0.7 0
14.1 0.7 0
14.4 0.7 0
14.7 0.7 0
15 0.7 0
15.3 0.7 0
15.6 0.7 0
15.9 0.7 0
16.2 0.7 0
16.5 0.7 0
16.8 0.7 0
17.1 0.7 0
17.4 0.7 0
17.7 0.7 0
18 0.7 0
18.3 0.7 0
18.6 0.7 0
18.9 0.7 0
19.2 0.7 0
19.5 0.7 0
19.8 0.7 0
20.1 0.7 0
20.4 0.7 0
20.7 0.7 0
21 0.7 0
21.3 0.7 0
21.6 0.7 0
21.9 0.7 0
22.2 0.7 0
22.5 0.7 0
22.8 0.7 0
23.1 0.7 0
23.4 0.7 0
23.7 0.7 0
24 0.7 0
24.3 0.7 0
24.6 0.7 0
24.9 0.7 0
25.2 0.7 0
25.5 0.7 0
25.8 0.7 0
26.1 0.7 0
26.4 0.7 0
26.7 0.7 0
27 0.7 0
27.3 0.7 0
27.6 0.7 0
27.9 0.7 0
28.2 0.7 0
28.5 0.7 0
28.8 0.7 0
29.1 0.7 0
29.4 0.7 0
29.7 0.7 0
30 0.7 0
0 0.8 0
0.3 0.8 0
0.6 0.8 0
0.9 0.8 0
1.2 0.8 0
1.5 0.8 0
1.8 0.8 0
2.1 0.8 0
2.4 0.8 0
2.7 0.8 0
3 0.8 0
3.3 0.8 0
3.6 0.8 0
3.9 0.8 0
4.2 0.8 0
4.5 0.8 0
4.8 0.8 0
5.1 0.8 0
5.4 0.8 0
5.7 0.8 0
6 0.8 0
6.3 0.8 0
6.6 0.8 0
6.9 0.8 0
7.2 0.8 0
7.5 0.8 0
7.8 0.8 0
8.1 0.8 0
8.4 0.8 0
8.7 0.8 0
9 0.8 0
9.3 0.8 0
9.6 0.8 0
9.9 0.8 0
10.2 0.8 0
10.5 0.8 0
10.8 0.8 0
11.1 0.8 0
11.4 0.8 0
11.7 0.8 0
12 0.8 0
12.3 0.8 0
12.6 0.8 0
12.9 0.8 0
13.2 0.8 0
13.5 0.8 0
13.8 0.8 0
14.1 0.8 0
14.4 0.8 0
14.7 0.8 0
15 0.8 0
15.3 0.8 0
15.6 0.8 0
15.9 0.8 0
16.2 0.8 0
16.5 0.8 0
16.8 0.8 0
17.1 0.8 0
17.4 0.8 0
17.7 0.8 0
18 0.8 0
18.3 0.8 0
18.6 0.8 0
18.9 0.8 0
19.2 0.8 0
19.5 0.8 0
19.8 0.8 0
20.1 0.8 0
20.4 0.8 0
20.7 0.8 0
21 0.8 0
21.3 0.8 0
21.6 0.8 0
21.9 0.8 0
22.2 0.8 0
22.5 0.8 0
22.8 0.8 0
23.1 0.8 0
23.4 0.8 0
23.7 0.8 0
24 0.8 0
24.3 0.8 0
24.6 0.8 0
24.9 0.8 0
25.2 0.8 0
25.5 0.8 0
25.8 0.8 0
26.1 0.8 0
26.4 0.8 0
26.7 0.8 0
27 0.8 0
27.3 0.8 0
27.6 0.8 0
27.9 0.8 0
28.2 0.8 0
28.5 0.8 0
28.8 0.8 0
29.1 0.8 0
29.4 0.8 0
29.7 0.8 0
30 0.8 0
0 0.9 0
0.3 0.9 0
0.6 0.9 0
0.9 0.9 0
1.2 0.9 0
1.5 0.9 0
1.8 0.9 0
2.1 0.9 0
2.4 0.9 0
2.7 0.9 0
3 0.9 0
3.3 0.9 0
3.6 0.9 0
3.9 0.9 0
4.2 0.9 0
4.5 0.9 0
4.8 0.9 0
5.1 0.9 0
5.4 0.9 0
5.7 0.9 0
6 0.9 0
6.3 0.9 0
6.6 0.9 0
6.9 0.9 0
7.2 0.9 0
7.5 0.9 0
7.8 0.9 0
8.1 0.9 0
8.4 0.9 0
8.7 0.9 0
9 0.9 0
9.3 0.9 0
9.6 0.9 0
9.9 0.9 0
10.2 0.9 0
10.5 0.9 0
10.8 0.9 0
11.1 0.9 0
11.4 0.9 0
11.7 0.9 0
12 0.9 0
12.3 0.9 0
12.6 0.9 0
12.9 0.9 0
13.2 0.9 0
13.5 0.9 0
13.8 0.9 0
14.1 0.9 0
14.4 0.9 0
14.7 0.9 0
15 0.9 0
15.3 0.9 0
15.6 0.9 0
15.9 0.9 0
16.2 0.9 0
16.5 0.9 0
16.8 0.9 0
17.1 0.9 0
17.4 0.9 0
17.7 0.9 0
18 0.9 0
18.3 0.9 0
18.6 0.9 0
18.9 0.9 0
19.2 0.9 0
19.5 0.9 0
19.8 0.9 0
20.1 0.9 0
20.4 0.9 0
20.7 0.9 0
21 0.9 0
21.3 0.9 0
21.6 0.9 0
21.9 0.9 0
22.2 0.9 0
22.5 0.9 0
22.8 0.9 0
23.1 0.9 0
23.4 0.9 0
23.7 0.9 0
24 0.9 0
24.3 0.9 0
24.6 0.9 0
24.9 0.9 0
25.2 0.9 0
25.5 0.9 0
25.8 0.9 0
26.1 0.9 0
26.4 0.9 0
26.7 0.9 0
27 0.9 0
27.3 0.9 0
27.6 0.9 0
27.9 0.9 0
28.2 0.9 0
28.5 0.9 0
28.8 0.9 0
29.1 0.9 0
29.4 0.9 0
29.7 0.9 0
30 0.9 0
0 1 0
0.3 1 0
0.6 1 0
0.9 1 0
1.2 1 0
1.5 1 0
1.8 1 0
2.1 1 0
2.4 1 0
2.7 1 0
3 1 0
3.3 1 0
3.6 1 0
3.9 1 0
4.2 1 0
4.5 1 0
4.8 1 0
5.1 1 0
5.4 1 0
5.7 1 0
6 1 0
6.3 1 0
6.6 1 0
6.9 1 0
7.2 1 0
7.5 1 0
7.8 1 0
8.1 1 0
8.4 1 0
8.7 1 0
9 1 0
9.3 1 0
9.6 1 0
9.9 1 0
10.2 1 0
10.5 1 0
10.8 1 0
11.1 1 0
11.4 1 0
11.7 1 0
12 1 0
12.3 1 0
12.6 1 0
12.9 1 0
13.2 1 0
13.5 1 0
13.8 1 0
14.1 1 0
14.4 1 0
14.7 1 0
15 1 0
15.3 1 0
15.6 1 0
15.9 1 0
16.2 1 0
16.5 1 0
16.8 1 0
17.1 1 0
17.4 1 0
17.7 1 0
18 1 0
18.3 1 0
18.6 1 0
18.9 1 0
19.2 1 0
19.5 1 0
19.8 1 0
20.1 1 0
20.4 1 0
20.7 1 0
21 1 0
21.3 1 0
21.6 1 0
21.9 1 0
22.2 1 0
22.5 1 0
22.8 1 0
23.1 1 0
23.4 1 0
23.7 1 0
24 1 0
24.3 1 0
24.6 1 0
24.9 1 0
25.2 1 0
25.5 1 0
25.8 1 0
26.1 1 0
26.4 1 0
26.7 1 0
27 1 0
27.3 1 0
27.6 1 0
27.9 1 0
28.2 1 0
28.5 1 0
28.8 1 0
29.1 1 0
29.4 1 0
29.7 1 0
30 1 0

POINT_DATA 1111

SCALARS phi double
LOOKUP_TABLE default
1
1
1
0.999994
0.999972
0.999915
0.999796
0.999583
0.999241
0.998737
0.998043
0.997137
0.996001
0.994626
0.993007
0.991141
0.989033
0.986688
0.984114
0.981323
0.978324
0.975132
0.971759
0.96822
0.964528
0.960697
0.95674
0.952673
0.948504
0.944244
0.939893
0.935446
0.930884
0.92618
0.921292
0.916173
0.910766
0.90501
0.898845
0.892212
0.885059
0.87734
0.869018
0.860064
0.850461
0.840201
0.829285
0.817723
0.805533
0.792742
0.77938
0.765483
0.751093
0.736253
0.721008
0.705405
0.689493
0.673317
0.656926
0.640363
0.623673
0.606897
0.590075
0.573244
0.55644
0.539693
0.523034
0.50649
0.490086
0.473843
0.457782
0.44192
0.426273
0.410855
0.395677
0.380749
0.366081
0.351678
0.337547
0.323693
0.310119
0.296828
0.283822
0.271102
0.25867
0.246525
0.234668
0.223098
0.211816
0.20082
0.19011
0.179687
0.16955
0.159697
0.150136
0.140844
0.131904
0.123033
0.115223
0.104981
0.104981
1
1
1
0.999994
0.999972
0.999915
0.999796
0.999583
0.999241
0.998737
0.998043
0.997137
0.996001
0.994626
0.993007
0.991141
0.989033
0.986688
0.984114
0.981323
0.978324
0.975132
0.971759
0.96822
0.964528
0.960697
0.95674
0.952673
0.948504
0.944244
0.939893
0.935446
0.930884
0.92618
0.921292
0.916173
0.910766
0.90501
0.898845
0.892212
0.885059
0.87734
0.869018
0.860064
0.850461
0.840201
0.829285
0.817723
0.805533
0.792742
0.77938
0.765483
0.751093
0.736253
0.721008
0.705405
0.689493
0.673317
0.656926
0.640363
0.623673
0.606897
0.590075
0.573244
0.55644
0.539693
0.523034
0.50649
0.490086
0.473843
0.457782
0.44192
0.426273
0.410855
0.395677
0.380749
0.366081
0.351678
0.337547
0.323693
0.310119
0.296828
0.283822
0.271102
0.25867
0.246525
0.234668
0.223098
0.211816
0.20082
0.19011
0.179687
0.16955
0.159697
0.150136
0.140844
0.131904
0.123033
0.115223
0.104981
0.104981
0.999997
1
0.999982
0.999903
0.99973
0.999422
0.998942
0.998257
0.99734
0.996174
0.994749
0.99306
0.99111
0.988905
0.986455
0.983772
0.98087
0.977762
0.974464
0.97099
0.967355
0.963575
0.959662
0.955631
0.951494
0.947264
0.942954
0.938574
0.934134
0.929644
0.925112
0.920541
0.915932
0.91128
0.906574
0.901796
0.896922
0.891921
0.886758
0.881394
0.875786
0.869894
0.863677
0.857097
0.850119
0.842714
0.834857
0.82653
0.817721
0.808424
0.798637
0.788368
0.777625
0.766424
0.754785
0.74273
0.730286
0.71748
0.704343
0.690905
0.6772
0.663259
0.649115
0.634799
0.620344
0.605779
0.591134
0.576437
0.561713
0.546989
0.532287
0.517629
0.503036
0.488526
0.474115
0.45982
0.445653
0.431629
0.417757
0.404049
0.390511
0.377153
0.36398
0.350999
0.338213
0.325627
0.313244
0.301067
0.289096
0.277335
0.265783
0.25444
0.243308
0.232383
0.221675
0.211144
0.200923
0.190566
0.181539
0.168985
0.168985
1
0.999999
0.99946
0.998318
0.996569
0.994237
0.991359
0.987986
0.984174
0.979985
0.975479
0.970715
0.965744
0.960613
0.955362
0.950025
0.944629
0.9392
0.933756
0.928313
0.922885
0.917483
0.912115
0.906789
0.901509
0.896282
0.891109
0.885995
0.88094
0.875948
0.871018
0.866151
0.861347
0.856603
0.851916
0.84728
0.842687
0.838126
0.833584
0.829042
0.824482
0.819882
0.815218
0.810463
0.805593
0.80058
0.795398
0.790023
0.78443
0.778598
0.772508
0.766143
0.75949
0.752538
0.745279
0.737709
0.729826
0.721631
0.713128
0.704323
0.695225
0.685843
0.676191
0.66628
0.656127
0.645746
0.635153
0.624366
0.613401
0.602276
0.591007
0.579612
0.568106
0.556506
0.544828
0.533085
0.521293
0.509465
0.497614
0.485751
0.473888
0.462036
0.450204
0.4384
0.426635
0.414914
0.403244
0.391633
0.380084
0.368603
0.357194
0.34586
0.334605
0.323424
0.312337
0.301287
0.290454
0.279263
0.269532
0.255468
0.255468
1.00152
0.998478
0.989845
0.978523
0.966041
0.953192
0.940393
0.927875
0.915766
0.904141
0.893035
0.882463
0.87242
0.862891
0.853856
0.845287
0.837157
0.829439
0.822103
0.815125
0.808478
0.80214
0.796087
0.790301
0.784762
0.779454
0.77436
0.769467
0.76476
0.760229
0.755861
0.751646
0.747575
0.743639
0.739829
0.736138
0.732557
0.729077
0.72569
0.722386
0.719155
0.715986
0.712867
0.709784
0.706724
0.703671
0.70061
0.697525
0.694399
0.691215
0.687956
0.684605
0.681146
0.677564
0.673844
0.669972
0.665936
0.661723
0.657324
0.652731
0.647935
0.64293
0.637713
0.632279
0.626627
0.620755
0.614665
0.608356
0.601832
0.595095
0.58815
0.581001
0.573652
0.566111
0.558382
0.550471
0.542387
0.534134
0.525721
0.517154
0.508439
0.499585
0.490598
0.481484
0.472251
0.462905
0.453452
0.443899
0.434251
0.424515
0.414696
0.404798
0.394828
0.384783
0.374687
0.364479
0.354358
0.343712
0.334439
0.320641
0.320641
1.04956
0.950436
0.872951
0.815234
0.771992
0.739004
0.713323
0.692935
0.676455
0.662919
0.651641
0.642125
0.634005
0.627008
0.620923
0.61559
0.61088
0.606694
0.60295
0.599584
0.596543
0.593782
0.591266
0.588964
0.586851
0.584905
0.583109
0.581447
0.579906
0.578473
0.577139
0.575895
0.574733
0.573646
0.572629
0.571675
0.57078
0.569939
0.569146
0.568399
0.567693
0.567022
0.566382
0.565768
0.565175
0.564597
0.564026
0.563456
0.56288
0.562288
0.561673
0.561025
0.560335
0.559592
0.558786
0.557906
0.556942
0.555883
0.554717
0.553435
0.552026
0.550479
0.548785
0.546933
0.544915
0.542721
0.540344
0.537777
0.535011
0.532041
0.52886
0.525464
0.521847
0.518007
0.513938
0.50964
0.505109
0.500344
0.495344
0.49011
0.48464
0.478937
0.473001
0.466834
0.460439
0.453818
0.446976
0.439914
0.432639
0.425153
0.417463
0.409571
0.401485
0.393203
0.384749
0.376066
0.367347
0.358013
0.349848
0.337386
0.337386
-0.0440411
0.0440411
0.104658
0.147826
0.179978
0.204969
0.225119
0.241852
0.256065
0.268346
0.279103
0.288632
0.297153
0.30484
0.31183
0.318232
0.324136
0.329615
0.334729
0.339527
0.344051
0.348335
0.352408
0.356294
0.360014
0.363586
0.367024
0.370342
0.373551
0.376661
0.379679
0.382614
0.385471
0.388257
0.390976
0.393633
0.396232
0.398776
0.401268
0.403711
0.406106
0.408456
0.410761
0.413023
0.415241
0.417416
0.419547
0.421633
0.423671
0.425659
0.427594
0.429471
0.431287
0.433035
0.434709
0.436303
0.43781
0.43922
0.440526
0.441719
0.442788
0.443724
0.444517
0.445156
0.44563
0.445929
0.446043
0.44596
0.44567
0.445164
0.444431
0.443463
0.44225
0.440785
0.43906
0.437068
0.434803
0.432259
0.429433
0.42632
0.422919
0.419225
0.41524
0.410963
0.406394
0.401536
0.396391
0.390961
0.385252
0.379268
0.373014
0.366495
0.35972
0.352689
0.345426
0.337881
0.330233
0.321956
0.314681
0.303431
0.303431
-0.00135393
0.00135393
0.00757106
0.0154113
0.0241244
0.0333479
0.0428735
0.0525556
0.0622788
0.07195
0.0814968
0.0908662
0.100022
0.108944
0.11762
0.126049
0.134233
0.142179
0.149896
0.157395
0.164687
0.171781
0.178688
0.185419
0.191982
0.198387
0.204641
0.210752
0.216726
0.222571
0.22829
0.23389
0.239375
0.24475
0.250018
0.255184
0.26025
0.265219
0.270094
0.274878
0.279572
0.284178
0.288696
0.293128
0.297474
0.301732
0.305903
0.309983
0.313971
0.317864
0.321657
0.325345
0.328924
0.332386
0.335725
0.338933
0.342002
0.344922
0.347685
0.35028
0.352697
0.354925
0.356954
0.358772
0.360368
0.361731
0.362851
0.363718
0.364321
0.36465
0.364697
0.364453
0.363912
0.363065
0.361909
0.360436
0.358645
0.356532
0.354095
0.351334
0.348249
0.344843
0.341118
0.337078
0.332727
0.328072
0.32312
0.317878
0.312355
0.30656
0.300503
0.294193
0.287642
0.280857
0.273862
0.26662
0.259292
0.251414
0.244471
0.233885
0.233885
-1.12304e-05
1.12304e-05
0.000371135
0.00113545
0.00236809
0.00411785
0.00641416
0.00926464
0.0126562
0.0165593
0.0209329
0.0257304
0.0309028
0.036402
0.0421821
0.0482009
0.0544193
0.0608023
0.0673182
0.0739389
0.0806389
0.087396
0.0941902
0.101004
0.107821
0.114629
0.121414
0.128167
0.134878
0.14154
0.148144
0.154686
0.16116
0.167561
0.173886
0.180132
0.186296
0.192374
0.198364
0.204264
0.21007
0.215778
0.221386
0.226888
0.23228
0.237555
0.242708
0.247731
0.252617
0.257356
0.261939
0.266357
0.270598
0.274653
0.278509
0.282155
0.285579
0.288769
0.291713
0.2944
0.296818
0.298956
0.300803
0.302349
0.303585
0.304501
0.305091
0.305347
0.305263
0.304835
0.30406
0.302933
0.301456
0.299627
0.297448
0.294922
0.292053
0.288846
0.285308
0.281446
0.277269
0.272788
0.268013
0.262956
0.257631
0.252051
0.24623
0.240183
0.233927
0.227476
0.220848
0.214057
0.207122
0.200055
0.192884
0.185589
0.178301
0.170662
0.163907
0.154082
0.154082
1.70138e-06
-1.70138e-06
1.49765e-05
9.33843e-05
0.000299334
0.000718214
0.00144362
0.00256259
0.00414307
0.0062276
0.00883328
0.0119559
0.0155752
0.0196605
0.0241746
0.0290772
0.0343266
0.0398817
0.0457028
0.0517522
0.0579944
0.0643967
0.0709289
0.0775635
0.0842758
0.0910432
0.0978457
0.104665
0.111487
0.118296
0.12508
0.131828
0.138532
0.145182
0.151771
0.158292
0.164738
0.171103
0.177381
0.183562
0.189641
0.195609
0.201457
0.207175
0.212753
0.218178
0.22344
0.228525
0.23342
0.238112
0.242586
0.246828
0.250823
0.254558
0.258018
0.261191
0.264061
0.266618
0.26885
0.270744
0.272292
0.273484
0.274313
0.274772
0.274856
0.274561
0.273885
0.272827
0.271386
0.269567
0.267371
0.264805
0.261874
0.258587
0.254953
0.250983
0.246688
0.242083
0.237181
0.231999
0.226552
0.220857
0.214933
0.208798
0.202471
0.195973
0.189323
0.182541
0.175649
0.168667
0.161616
0.154516
0.147389
0.140254
0.133137
0.126038
0.119051
0.111943
0.1056
0.0970219
0.0970219
1.70138e-06
-1.70138e-06
1.49765e-05
9.33843e-05
0.000299334
0.000718214
0.00144362
0.00256259
0.00414307
0.0062276
0.00883328
0.0119559
0.0155752
0.0196605
0.0241746
0.0290772
0.0343266
0.0398817
0.0457028
0.0517522
0.0579944
0.0643967
0.0709289
0.0775635
0.0842758
0.0910432
0.0978457
0.104665
0.111487
0.118296
0.12508
0.131828
0.138532
0.145182
0.151771
0.158292
0.164738
0.171103
0.177381
0.183562
0.189641
0.195609
0.201457
0.207175
0.212753
0.218178
0.22344
0.228525
0.23342
0.238112
0.242586
0.246828
0.250823
0.254558
0.258018
0.261191
0.264061
0.266618
0.26885
0.270744
0.272292
0.273484
0.274313
0.274772
0.274856
0.274561
0.273885
0.272827
0.271386
0.269567
0.267371
0.264805
0.261874
0.258587
0.254953
0.250983
0.246688
0.242083
0.237181
0.231999
0.226552
0.220857
0.214933
0.208798
0.202471
0.195973
0.189323
0.182541
0.175649
0.168667
0.161616
0.154516
0.147389
0.140254
0.133137
0.126038
0.119051
0.111943
0.1056
0.0970219
0.0970219
