# vtk DataFile Version 2.0
FlowField
ASCII
DATASET STRUCTURED_GRID
DIMENSIONS 102 1 12 
POINTS 1224 double
0 0 0
0.4 0 0
0.8 0 0
1.2 0 0
1.6 0 0
2 0 0
2.4 0 0
2.8 0 0
3.2 0 0
3.6 0 0
4 0 0
4.4 0 0
4.8 0 0
5.2 0 0
5.6 0 0
6 0 0
6.4 0 0
6.8 0 0
7.2 0 0
7.6 0 0
8 0 0
8.4 0 0
8.8 0 0
9.2 0 0
9.6 0 0
10 0 0
10.4 0 0
10.8 0 0
11.2 0 0
11.6 0 0
12 0 0
12.4 0 0
12.8 0 0
13.2 0 0
13.6 0 0
14 0 0
14.4 0 0
14.8 0 0
15.2 0 0
15.6 0 0
16 0 0
16.4 0 0
16.8 0 0
17.2 0 0
17.6 0 0
18 0 0
18.4 0 0
18.8 0 0
19.2 0 0
19.6 0 0
20 0 0
20.4 0 0
20.8 0 0
21.2 0 0
21.6 0 0
22 0 0
22.4 0 0
22.8 0 0
23.2 0 0
23.6 0 0
24 0 0
24.4 0 0
24.8 0 0
25.2 0 0
25.6 0 0
26 0 0
26.4 0 0
26.8 0 0
27.2 0 0
27.6 0 0
28 0 0
28.4 0 0
28.8 0 0
29.2 0 0
29.6 0 0
30 0 0
30.4 0 0
30.8 0 0
31.2 0 0
31.6 0 0
32 0 0
32.4 0 0
32.8 0 0
33.2 0 0
33.6 0 0
34 0 0
34.4 0 0
34.8 0 0
35.2 0 0
35.6 0 0
36 0 0
36.4 0 0
36.8 0 0
37.2 0 0
37.6 0 0
38 0 0
38.4 0 0
38.8 0 0
39.2 0 0
39.6 0 0
40 0 0
40.4 0 0
0 0.1 0
0.4 0.1 0
0.8 0.1 0
1.2 0.1 0
1.6 0.1 0
2 0.1 0
2.4 0.1 0
2.8 0.1 0
3.2 0.1 0
3.6 0.1 0
4 0.1 0
4.4 0.1 0
4.8 0.1 0
5.2 0.1 0
5.6 0.1 0
6 0.1 0
6.4 0.1 0
6.8 0.1 0
7.2 0.1 0
7.6 0.1 0
8 0.1 0
8.4 0.1 0
8.8 0.1 0
9.2 0.1 0
9.6 0.1 0
10 0.1 0
10.4 0.1 0
10.8 0.1 0
11.2 0.1 0
11.6 0.1 0
12 0.1 0
12.4 0.1 0
12.8 0.1 0
13.2 0.1 0
13.6 0.1 0
14 0.1 0
14.4 0.1 0
14.8 0.1 0
15.2 0.1 0
15.6 0.1 0
16 0.1 0
16.4 0.1 0
16.8 0.1 0
17.2 0.1 0
17.6 0.1 0
18 0.1 0
18.4 0.1 0
18.8 0.1 0
19.2 0.1 0
19.6 0.1 0
20 0.1 0
20.4 0.1 0
20.8 0.1 0
21.2 0.1 0
21.6 0.1 0
22 0.1 0
22.4 0.1 0
22.8 0.1 0
23.2 0.1 0
23.6 0.1 0
24 0.1 0
24.4 0.1 0
24.8 0.1 0
25.2 0.1 0
25.6 0.1 0
26 0.1 0
26.4 0.1 0
26.8 0.1 0
27.2 0.1 0
27.6 0.1 0
28 0.1 0
28.4 0.1 0
28.8 0.1 0
29.2 0.1 0
29.6 0.1 0
30 0.1 0
30.4 0.1 0
30.8 0.1 0
31.2 0.1 0
31.6 0.1 0
32 0.1 0
32.4 0.1 0
32.8 0.1 0
33.2 0.1 0
33.6 0.1 0
34 0.1 0
34.4 0.1 0
34.8 0.1 0
35.2 0.1 0
35.6 0.1 0
36 0.1 0
36.4 0.1 0
36.8 0.1 0
37.2 0.1 0
37.6 0.1 0
38 0.1 0
38.4 0.1 0
38.8 0.1 0
39.2 0.1 0
39.6 0.1 0
40 0.1 0
40.4 0.1 0
0 0.2 0
0.4 0.2 0
0.8 0.2 0
1.2 0.2 0
1.6 0.2 0
2 0.2 0
2.4 0.2 0
2.8 0.2 0
3.2 0.2 0
3.6 0.2 0
4 0.2 0
4.4 0.2 0
4.8 0.2 0
5.2 0.2 0
5.6 0.2 0
6 0.2 0
6.4 0.2 0
6.8 0.2 0
7.2 0.2 0
7.6 0.2 0
8 0.2 0
8.4 0.2 0
8.8 0.2 0
9.2 0.2 0
9.6 0.2 0
10 0.2 0
10.4 0.2 0
10.8 0.2 0
11.2 0.2 0
11.6 0.2 0
12 0.2 0
12.4 0.2 0
12.8 0.2 0
13.2 0.2 0
13.6 0.2 0
14 0.2 0
14.4 0.2 0
14.8 0.2 0
15.2 0.2 0
15.6 0.2 0
16 0.2 0
16.4 0.2 0
16.8 0.2 0
17.2 0.2 0
17.6 0.2 0
18 0.2 0
18.4 0.2 0
18.8 0.2 0
19.2 0.2 0
19.6 0.2 0
20 0.2 0
20.4 0.2 0
20.8 0.2 0
21.2 0.2 0
21.6 0.2 0
22 0.2 0
22.4 0.2 0
22.8 0.2 0
23.2 0.2 0
23.6 0.2 0
24 0.2 0
24.4 0.2 0
24.8 0.2 0
25.2 0.2 0
25.6 0.2 0
26 0.2 0
26.4 0.2 0
26.8 0.2 0
27.2 0.2 0
27.6 0.2 0
28 0.2 0
28.4 0.2 0
28.8 0.2 0
29.2 0.2 0
29.6 0.2 0
30 0.2 0
30.4 0.2 0
30.8 0.2 0
31.2 0.2 0
31.6 0.2 0
32 0.2 0
32.4 0.2 0
32.8 0.2 0
33.2 0.2 0
33.6 0.2 0
34 0.2 0
34.4 0.2 0
34.8 0.2 0
35.2 0.2 0
35.6 0.2 0
36 0.2 0
36.4 0.2 0
36.8 0.2 0
37.2 0.2 0
37.6 0.2 0
38 0.2 0
38.4 0.2 0
38.8 0.2 0
39.2 0.2 0
39.6 0.2 0
40 0.2 0
40.4 0.2 0
0 0.3 0
0.4 0.3 0
0.8 0.3 0
1.2 0.3 0
1.6 0.3 0
2 0.3 0
2.4 0.3 0
2.8 0.3 0
3.2 0.3 0
3.6 0.3 0
4 0.3 0
4.4 0.3 0
4.8 0.3 0
5.2 0.3 0
5.6 0.3 0
6 0.3 0
6.4 0.3 0
6.8 0.3 0
7.2 0.3 0
7.6 0.3 0
8 0.3 0
8.4 0.3 0
8.8 0.3 0
9.2 0.3 0
9.6 0.3 0
10 0.3 0
10.4 0.3 0
10.8 0.3 0
11.2 0.3 0
11.6 0.3 0
12 0.3 0
12.4 0.3 0
12.8 0.3 0
13.2 0.3 0
13.6 0.3 0
14 0.3 0
14.4 0.3 0
14.8 0.3 0
15.2 0.3 0
15.6 0.3 0
16 0.3 0
16.4 0.3 0
16.8 0.3 0
17.2 0.3 0
17.6 0.3 0
18 0.3 0
18.4 0.3 0
18.8 0.3 0
19.2 0.3 0
19.6 0.3 0
20 0.3 0
20.4 0.3 0
20.8 0.3 0
21.2 0.3 0
21.6 0.3 0
22 0.3 0
22.4 0.3 0
22.8 0.3 0
23.2 0.3 0
23.6 0.3 0
24 0.3 0
24.4 0.3 0
24.8 0.3 0
25.2 0.3 0
25.6 0.3 0
26 0.3 0
26.4 0.3 0
26.8 0.3 0
27.2 0.3 0
27.6 0.3 0
28 0.3 0
28.4 0.3 0
28.8 0.3 0
29.2 0.3 0
29.6 0.3 0
30 0.3 0
30.4 0.3 0
30.8 0.3 0
31.2 0.3 0
31.6 0.3 0
32 0.3 0
32.4 0.3 0
32.8 0.3 0
33.2 0.3 0
33.6 0.3 0
34 0.3 0
34.4 0.3 0
34.8 0.3 0
35.2 0.3 0
35.6 0.3 0
36 0.3 0
36.4 0.3 0
36.8 0.3 0
37.2 0.3 0
37.6 0.3 0
38 0.3 0
38.4 0.3 0
38.8 0.3 0
39.2 0.3 0
39.6 0.3 0
40 0.3 0
40.4 0.3 0
0 0.4 0
0.4 0.4 0
0.8 0.4 0
1.2 0.4 0
1.6 0.4 0
2 0.4 0
2.4 0.4 0
2.8 0.4 0
3.2 0.4 0
3.6 0.4 0
4 0.4 0
4.4 0.4 0
4.8 0.4 0
5.2 0.4 0
5.6 0.4 0
6 0.4 0
6.4 0.4 0
6.8 0.4 0
7.2 0.4 0
7.6 0.4 0
8 0.4 0
8.4 0.4 0
8.8 0.4 0
9.2 0.4 0
9.6 0.4 0
10 0.4 0
10.4 0.4 0
10.8 0.4 0
11.2 0.4 0
11.6 0.4 0
12 0.4 0
12.4 0.4 0
12.8 0.4 0
13.2 0.4 0
13.6 0.4 0
14 0.4 0
14.4 0.4 0
14.8 0.4 0
15.2 0.4 0
15.6 0.4 0
16 0.4 0
16.4 0.4 0
16.8 0.4 0
17.2 0.4 0
17.6 0.4 0
18 0.4 0
18.4 0.4 0
18.8 0.4 0
19.2 0.4 0
19.6 0.4 0
20 0.4 0
20.4 0.4 0
20.8 0.4 0
21.2 0.4 0
21.6 0.4 0
22 0.4 0
22.4 0.4 0
22.8 0.4 0
23.2 0.4 0
23.6 0.4 0
24 0.4 0
24.4 0.4 0
24.8 0.4 0
25.2 0.4 0
25.6 0.4 0
26 0.4 0
26.4 0.4 0
26.8 0.4 0
27.2 0.4 0
27.6 0.4 0
28 0.4 0
28.4 0.4 0
28.8 0.4 0
29.2 0.4 0
29.6 0.4 0
30 0.4 0
30.4 0.4 0
30.8 0.4 0
31.2 0.4 0
31.6 0.4 0
32 0.4 0
32.4 0.4 0
32.8 0.4 0
33.2 0.4 0
33.6 0.4 0
34 0.4 0
34.4 0.4 0
34.8 0.4 0
35.2 0.4 0
35.6 0.4 0
36 0.4 0
36.4 0.4 0
36.8 0.4 0
37.2 0.4 0
37.6 0.4 0
38 0.4 0
38.4 0.4 0
38.8 0.4 0
39.2 0.4 0
39.6 0.4 0
40 0.4 0
40.4 0.4 0
0 0.5 0
0.4 0.5 0
0.8 0.5 0
1.2 0.5 0
1.6 0.5 0
2 0.5 0
2.4 0.5 0
2.8 0.5 0
3.2 0.5 0
3.6 0.5 0
4 0.5 0
4.4 0.5 0
4.8 0.5 0
5.2 0.5 0
5.6 0.5 0
6 0.5 0
6.4 0.5 0
6.8 0.5 0
7.2 0.5 0
7.6 0.5 0
8 0.5 0
8.4 0.5 0
8.8 0.5 0
9.2 0.5 0
9.6 0.5 0
10 0.5 0
10.4 0.5 0
10.8 0.5 0
11.2 0.5 0
11.6 0.5 0
12 0.5 0
12.4 0.5 0
12.8 0.5 0
13.2 0.5 0
13.6 0.5 0
14 0.5 0
14.4 0.5 0
14.8 0.5 0
15.2 0.5 0
15.6 0.5 0
16 0.5 0
16.4 0.5 0
16.8 0.5 0
17.2 0.5 0
17.6 0.5 0
18 0.5 0
18.4 0.5 0
18.8 0.5 0
19.2 0.5 0
19.6 0.5 0
20 0.5 0
20.4 0.5 0
20.8 0.5 0
21.2 0.5 0
21.6 0.5 0
22 0.5 0
22.4 0.5 0
22.8 0.5 0
23.2 0.5 0
23.6 0.5 0
24 0.5 0
24.4 0.5 0
24.8 0.5 0
25.2 0.5 0
25.6 0.5 0
26 0.5 0
26.4 0.5 0
26.8 0.5 0
27.2 0.5 0
27.6 0.5 0
28 0.5 0
28.4 0.5 0
28.8 0.5 0
29.2 0.5 0
29.6 0.5 0
30 0.5 0
30.4 0.5 0
30.8 0.5 0
31.2 0.5 0
31.6 0.5 0
32 0.5 0
32.4 0.5 0
32.8 0.5 0
33.2 0.5 0
33.6 0.5 0
34 0.5 0
34.4 0.5 0
34.8 0.5 0
35.2 0.5 0
35.6 0.5 0
36 0.5 0
36.4 0.5 0
36.8 0.5 0
37.2 0.5 0
37.6 0.5 0
38 0.5 0
38.4 0.5 0
38.8 0.5 0
39.2 0.5 0
39.6 0.5 0
40 0.5 0
40.4 0.5 0
0 0.6 0
0.4 0.6 0
0.8 0.6 0
1.2 0.6 0
1.6 0.6 0
2 0.6 0
2.4 0.6 0
2.8 0.6 0
3.2 0.6 0
3.6 0.6 0
4 0.6 0
4.4 0.6 0
4.8 0.6 0
5.2 0.6 0
5.6 0.6 0
6 0.6 0
6.4 0.6 0
6.8 0.6 0
7.2 0.6 0
7.6 0.6 0
8 0.6 0
8.4 0.6 0
8.8 0.6 0
9.2 0.6 0
9.6 0.6 0
10 0.6 0
10.4 0.6 0
10.8 0.6 0
11.2 0.6 0
11.6 0.6 0
12 0.6 0
12.4 0.6 0
12.8 0.6 0
13.2 0.6 0
13.6 0.6 0
14 0.6 0
14.4 0.6 0
14.8 0.6 0
15.2 0.6 0
15.6 0.6 0
16 0.6 0
16.4 0.6 0
16.8 0.6 0
17.2 0.6 0
17.6 0.6 0
18 0.6 0
18.4 0.6 0
18.8 0.6 0
19.2 0.6 0
19.6 0.6 0
20 0.6 0
20.4 0.6 0
20.8 0.6 0
21.2 0.6 0
21.6 0.6 0
22 0.6 0
22.4 0.6 0
22.8 0.6 0
23.2 0.6 0
23.6 0.6 0
24 0.6 0
24.4 0.6 0
24.8 0.6 0
25.2 0.6 0
25.6 0.6 0
26 0.6 0
26.4 0.6 0
26.8 0.6 0
27.2 0.6 0
27.6 0.6 0
28 0.6 0
28.4 0.6 0
28.8 0.6 0
29.2 0.6 0
29.6 0.6 0
30 0.6 0
30.4 0.6 0
30.8 0.6 0
31.2 0.6 0
31.6 0.6 0
32 0.6 0
32.4 0.6 0
32.8 0.6 0
33.2 0.6 0
33.6 0.6 0
34 0.6 0
34.4 0.6 0
34.8 0.6 0
35.2 0.6 0
35.6 0.6 0
36 0.6 0
36.4 0.6 0
36.8 0.6 0
37.2 0.6 0
37.6 0.6 0
38 0.6 0
38.4 0.6 0
38.8 0.6 0
39.2 0.6 0
39.6 0.6 0
40 0.6 0
40.4 0.6 0
0 0.7 0
0.4 0.7 0
0.8 0.7 0
1.2 0.7 0
1.6 0.7 0
2 0.7 0
2.4 0.7 0
2.8 0.7 0
3.2 0.7 0
3.6 0.7 0
4 0.7 0
4.4 0.7 0
4.8 0.7 0
5.2 0.7 0
5.6 0.7 0
6 0.7 0
6.4 0.7 0
6.8 0.7 0
7.2 0.7 0
7.6 0.7 0
8 0.7 0
8.4 0.7 0
8.8 0.7 0
9.2 0.7 0
9.6 0.7 0
10 0.7 0
10.4 0.7 0
10.8 0.7 0
11.2 0.7 0
11.6 0.7 0
12 0.7 0
12.4 0.7 0
12.8 0.7 0
13.2 0.7 0
13.6 0.7 0
14 0.7 0
14.4 0.7 0
14.8 0.7 0
15.2 0.7 0
15.6 0.7 0
16 0.7 0
16.4 0.7 0
16.8 0.7 0
17.2 0.7 0
17.6 0.7 0
18 0.7 0
18.4 0.7 0
18.8 0.7 0
19.2 0.7 0
19.6 0.7 0
20 0.7 0
20.4 0.7 0
20.8 0.7 0
21.2 0.7 0
21.6 0.7 0
22 0.7 0
22.4 0.7 0
22.8 0.7 0
23.2 0.7 0
23.6 0.7 0
24 0.7 0
24.4 0.7 0
24.8 0.7 0
25.2 0.7 0
25.6 0.7 0
26 0.7 0
26.4 0.7 0
26.8 0.7 0
27.2 0.7 0
27.6 0.7 0
28 0.7 0
28.4 0.7 0
28.8 0.7 0
29.2 0.7 0
29.6 0.7 0
30 0.7 0
30.4 0.7 0
30.8 0.7 0
31.2 0.7 0
31.6 0.7 0
32 0.7 0
32.4 0.7 0
32.8 0.7 0
33.2 0.7 0
33.6 0.7 0
34 0.7 0
34.4 0.7 0
34.8 0.7 0
35.2 0.7 0
35.6 0.7 0
36 0.7 0
36.4 0.7 0
36.8 0.7 0
37.2 0.7 0
37.6 0.7 0
38 0.7 0
38.4 0.7 0
38.8 0.7 0
39.2 0.7 0
39.6 0.7 0
40 0.7 0
40.4 0.7 0
0 0.8 0
0.4 0.8 0
0.8 0.8 0
1.2 0.8 0
1.6 0.8 0
2 0.8 0
2.4 0.8 0
2.8 0.8 0
3.2 0.8 0
3.6 0.8 0
4 0.8 0
4.4 0.8 0
4.8 0.8 0
5.2 0.8 0
5.6 0.8 0
6 0.8 0
6.4 0.8 0
6.8 0.8 0
7.2 0.8 0
7.6 0.8 0
8 0.8 0
8.4 0.8 0
8.8 0.8 0
9.2 0.8 0
9.6 0.8 0
10 0.8 0
10.4 0.8 0
10.8 0.8 0
11.2 0.8 0
11.6 0.8 0
12 0.8 0
12.4 0.8 0
12.8 0.8 0
13.2 0.8 0
13.6 0.8 0
14 0.8 0
14.4 0.8 0
14.8 0.8 0
15.2 0.8 0
15.6 0.8 0
16 0.8 0
16.4 0.8 0
16.8 0.8 0
17.2 0.8 0
17.6 0.8 0
18 0.8 0
18.4 0.8 0
18.8 0.8 0
19.2 0.8 0
19.6 0.8 0
20 0.8 0
20.4 0.8 0
20.8 0.8 0
21.2 0.8 0
21.6 0.8 0
22 0.8 0
22.4 0.8 0
22.8 0.8 0
23.2 0.8 0
23.6 0.8 0
24 0.8 0
24.4 0.8 0
24.8 0.8 0
25.2 0.8 0
25.6 0.8 0
26 0.8 0
26.4 0.8 0
26.8 0.8 0
27.2 0.8 0
27.6 0.8 0
28 0.8 0
28.4 0.8 0
28.8 0.8 0
29.2 0.8 0
29.6 0.8 0
30 0.8 0
30.4 0.8 0
30.8 0.8 0
31.2 0.8 0
31.6 0.8 0
32 0.8 0
32.4 0.8 0
32.8 0.8 0
33.2 0.8 0
33.6 0.8 0
34 0.8 0
34.4 0.8 0
34.8 0.8 0
35.2 0.8 0
35.6 0.8 0
36 0.8 0
36.4 0.8 0
36.8 0.8 0
37.2 0.8 0
37.6 0.8 0
38 0.8 0
38.4 0.8 0
38.8 0.8 0
39.2 0.8 0
39.6 0.8 0
40 0.8 0
40.4 0.8 0
0 0.9 0
0.4 0.9 0
0.8 0.9 0
1.2 0.9 0
1.6 0.9 0
2 0.9 0
2.4 0.9 0
2.8 0.9 0
3.2 0.9 0
3.6 0.9 0
4 0.9 0
4.4 0.9 0
4.8 0.9 0
5.2 0.9 0
5.6 0.9 0
6 0.9 0
6.4 0.9 0
6.8 0.9 0
7.2 0.9 0
7.6 0.9 0
8 0.9 0
8.4 0.9 0
8.8 0.9 0
9.2 0.9 0
9.6 0.9 0
10 0.9 0
10.4 0.9 0
10.8 0.9 0
11.2 0.9 0
11.6 0.9 0
12 0.9 0
12.4 0.9 0
12.8 0.9 0
13.2 0.9 0
13.6 0.9 0
14 0.9 0
14.4 0.9 0
14.8 0.9 0
15.2 0.9 0
15.6 0.9 0
16 0.9 0
16.4 0.9 0
16.8 0.9 0
17.2 0.9 0
17.6 0.9 0
18 0.9 0
18.4 0.9 0
18.8 0.9 0
19.2 0.9 0
19.6 0.9 0
20 0.9 0
20.4 0.9 0
20.8 0.9 0
21.2 0.9 0
21.6 0.9 0
22 0.9 0
22.4 0.9 0
22.8 0.9 0
23.2 0.9 0
23.6 0.9 0
24 0.9 0
24.4 0.9 0
24.8 0.9 0
25.2 0.9 0
25.6 0.9 0
26 0.9 0
26.4 0.9 0
26.8 0.9 0
27.2 0.9 0
27.6 0.9 0
28 0.9 0
28.4 0.9 0
28.8 0.9 0
29.2 0.9 0
29.6 0.9 0
30 0.9 0
30.4 0.9 0
30.8 0.9 0
31.2 0.9 0
31.6 0.9 0
32 0.9 0
32.4 0.9 0
32.8 0.9 0
33.2 0.9 0
33.6 0.9 0
34 0.9 0
34.4 0.9 0
34.8 0.9 0
35.2 0.9 0
35.6 0.9 0
36 0.9 0
36.4 0.9 0
36.8 0.9 0
37.2 0.9 0
37.6 0.9 0
38 0.9 0
38.4 0.9 0
38.8 0.9 0
39.2 0.9 0
39.6 0.9 0
40 0.9 0
40.4 0.9 0
0 1 0
0.4 1 0
0.8 1 0
1.2 1 0
1.6 1 0
2 1 0
2.4 1 0
2.8 1 0
3.2 1 0
3.6 1 0
4 1 0
4.4 1 0
4.8 1 0
5.2 1 0
5.6 1 0
6 1 0
6.4 1 0
6.8 1 0
7.2 1 0
7.6 1 0
8 1 0
8.4 1 0
8.8 1 0
9.2 1 0
9.6 1 0
10 1 0
10.4 1 0
10.8 1 0
11.2 1 0
11.6 1 0
12 1 0
12.4 1 0
12.8 1 0
13.2 1 0
13.6 1 0
14 1 0
14.4 1 0
14.8 1 0
15.2 1 0
15.6 1 0
16 1 0
16.4 1 0
16.8 1 0
17.2 1 0
17.6 1 0
18 1 0
18.4 1 0
18.8 1 0
19.2 1 0
19.6 1 0
20 1 0
20.4 1 0
20.8 1 0
21.2 1 0
21.6 1 0
22 1 0
22.4 1 0
22.8 1 0
23.2 1 0
23.6 1 0
24 1 0
24.4 1 0
24.8 1 0
25.2 1 0
25.6 1 0
26 1 0
26.4 1 0
26.8 1 0
27.2 1 0
27.6 1 0
28 1 0
28.4 1 0
28.8 1 0
29.2 1 0
29.6 1 0
30 1 0
30.4 1 0
30.8 1 0
31.2 1 0
31.6 1 0
32 1 0
32.4 1 0
32.8 1 0
33.2 1 0
33.6 1 0
34 1 0
34.4 1 0
34.8 1 0
35.2 1 0
35.6 1 0
36 1 0
36.4 1 0
36.8 1 0
37.2 1 0
37.6 1 0
38 1 0
38.4 1 0
38.8 1 0
39.2 1 0
39.6 1 0
40 1 0
40.4 1 0
0 1.1 0
0.4 1.1 0
0.8 1.1 0
1.2 1.1 0
1.6 1.1 0
2 1.1 0
2.4 1.1 0
2.8 1.1 0
3.2 1.1 0
3.6 1.1 0
4 1.1 0
4.4 1.1 0
4.8 1.1 0
5.2 1.1 0
5.6 1.1 0
6 1.1 0
6.4 1.1 0
6.8 1.1 0
7.2 1.1 0
7.6 1.1 0
8 1.1 0
8.4 1.1 0
8.8 1.1 0
9.2 1.1 0
9.6 1.1 0
10 1.1 0
10.4 1.1 0
10.8 1.1 0
11.2 1.1 0
11.6 1.1 0
12 1.1 0
12.4 1.1 0
12.8 1.1 0
13.2 1.1 0
13.6 1.1 0
14 1.1 0
14.4 1.1 0
14.8 1.1 0
15.2 1.1 0
15.6 1.1 0
16 1.1 0
16.4 1.1 0
16.8 1.1 0
17.2 1.1 0
17.6 1.1 0
18 1.1 0
18.4 1.1 0
18.8 1.1 0
19.2 1.1 0
19.6 1.1 0
20 1.1 0
20.4 1.1 0
20.8 1.1 0
21.2 1.1 0
21.6 1.1 0
22 1.1 0
22.4 1.1 0
22.8 1.1 0
23.2 1.1 0
23.6 1.1 0
24 1.1 0
24.4 1.1 0
24.8 1.1 0
25.2 1.1 0
25.6 1.1 0
26 1.1 0
26.4 1.1 0
26.8 1.1 0
27.2 1.1 0
27.6 1.1 0
28 1.1 0
28.4 1.1 0
28.8 1.1 0
29.2 1.1 0
29.6 1.1 0
30 1.1 0
30.4 1.1 0
30.8 1.1 0
31.2 1.1 0
31.6 1.1 0
32 1.1 0
32.4 1.1 0
32.8 1.1 0
33.2 1.1 0
33.6 1.1 0
34 1.1 0
34.4 1.1 0
34.8 1.1 0
35.2 1.1 0
35.6 1.1 0
36 1.1 0
36.4 1.1 0
36.8 1.1 0
37.2 1.1 0
37.6 1.1 0
38 1.1 0
38.4 1.1 0
38.8 1.1 0
39.2 1.1 0
39.6 1.1 0
40 1.1 0
40.4 1.1 0

POINT_DATA 1224

SCALARS p double
LOOKUP_TABLE default
4.38493
4.38493
4.25207
4.15953
4.08752
4.02142
3.95607
3.8907
3.82528
3.75987
3.69445
3.62904
3.56364
3.49824
3.43285
3.36746
3.30207
3.23669
3.17131
3.10594
3.04057
2.97521
2.90985
2.84449
2.77913
2.71378
2.64843
2.58309
2.51774
2.4524
2.38706
2.32172
2.25639
2.19105
2.12572
2.06039
1.99506
1.92973
1.8644
1.79907
1.73374
1.66841
1.60308
1.53776
1.47243
1.4071
1.34177
1.27645
1.21112
1.14579
1.08046
1.01513
0.9498
0.884469
0.819138
0.753806
0.688473
0.623139
0.557805
0.49247
0.427134
0.361797
0.296459
0.23112
0.165781
0.10044
0.035099
-0.0302432
-0.0955864
-0.16093
-0.226275
-0.291621
-0.356968
-0.422316
-0.487664
-0.553014
-0.618364
-0.683715
-0.749067
-0.81442
-0.879774
-0.945129
-1.01048
-1.07584
-1.1412
-1.20656
-1.27192
-1.33728
-1.40264
-1.468
-1.53336
-1.59872
-1.66409
-1.72945
-1.79482
-1.86019
-1.92555
-1.99093
-2.05633
-2.12173
-2.18687
2.18687
4.38493
4.38493
4.25207
4.15953
4.08752
4.02142
3.95607
3.8907
3.82528
3.75987
3.69445
3.62904
3.56364
3.49824
3.43285
3.36746
3.30207
3.23669
3.17131
3.10594
3.04057
2.97521
2.90985
2.84449
2.77913
2.71378
2.64843
2.58309
2.51774
2.4524
2.38706
2.32172
2.25639
2.19105
2.12572
2.06039
1.99506
1.92973
1.8644
1.79907
1.73374
1.66841
1.60308
1.53776
1.47243
1.4071
1.34177
1.27645
1.21112
1.14579
1.08046
1.01513
0.9498
0.884469
0.819138
0.753806
0.688473
0.623139
0.557805
0.49247
0.427134
0.361797
0.296459
0.23112
0.165781
0.10044
0.035099
-0.0302432
-0.0955864
-0.16093
-0.226275
-0.291621
-0.356968
-0.422316
-0.487664
-0.553014
-0.618364
-0.683715
-0.749067
-0.81442
-0.879774
-0.945129
-1.01048
-1.07584
-1.1412
-1.20656
-1.27192
-1.33728
-1.40264
-1.468
-1.53336
-1.59872
-1.66409
-1.72945
-1.79482
-1.86019
-1.92555
-1.99093
-2.05633
-2.12173
-2.18687
2.18687
4.3616
4.3616
4.25224
4.16066
4.08804
4.02157
3.95611
3.8907
3.82529
3.75987
3.69445
3.62904
3.56364
3.49824
3.43285
3.36746
3.30207
3.23669
3.17131
3.10594
3.04057
2.97521
2.90985
2.84449
2.77913
2.71378
2.64843
2.58309
2.51774
2.4524
2.38706
2.32172
2.25639
2.19105
2.12572
2.06039
1.99506
1.92973
1.8644
1.79907
1.73374
1.66841
1.60308
1.53776
1.47243
1.4071
1.34177
1.27645
1.21112
1.14579
1.08046
1.01513
0.9498
0.884469
0.819138
0.753806
0.688473
0.623139
0.557805
0.49247
0.427134
0.361797
0.296459
0.23112
0.165781
0.10044
0.0350989
-0.0302433
-0.0955865
-0.160931
-0.226275
-0.291621
-0.356968
-0.422316
-0.487664
-0.553014
-0.618364
-0.683715
-0.749067
-0.81442
-0.879774
-0.945129
-1.01048
-1.07584
-1.1412
-1.20656
-1.27192
-1.33728
-1.40264
-1.468
-1.53336
-1.59872
-1.66409
-1.72945
-1.79482
-1.86019
-1.92555
-1.99092
-2.05631
-2.12165
-2.18689
2.18689
4.34927
4.34927
4.25328
4.16317
4.08918
4.02189
3.95617
3.89071
3.82529
3.75987
3.69445
3.62905
3.56364
3.49824
3.43285
3.36746
3.30207
3.23669
3.17131
3.10594
3.04057
2.97521
2.90985
2.84449
2.77914
2.71378
2.64843
2.58309
2.51774
2.4524
2.38706
2.32172
2.25639
2.19105
2.12572
2.06039
1.99506
1.92973
1.8644
1.79907
1.73374
1.66841
1.60308
1.53776
1.47243
1.4071
1.34177
1.27645
1.21112
1.14579
1.08046
1.01513
0.9498
0.884469
0.819138
0.753806
0.688473
0.623139
0.557805
0.49247
0.427133
0.361797
0.296459
0.23112
0.165781
0.10044
0.0350988
-0.0302435
-0.0955866
-0.160931
-0.226276
-0.291621
-0.356968
-0.422316
-0.487664
-0.553014
-0.618364
-0.683715
-0.749068
-0.814421
-0.879774
-0.945129
-1.01048
-1.07584
-1.1412
-1.20656
-1.27192
-1.33728
-1.40264
-1.468
-1.53336
-1.59872
-1.66409
-1.72945
-1.79482
-1.86019
-1.92555
-1.99092
-2.05628
-2.12148
-2.18685
2.18685
4.34196
4.34196
4.25391
4.16503
4.09008
4.02215
3.95623
3.89073
3.82529
3.75987
3.69446
3.62905
3.56364
3.49824
3.43285
3.36746
3.30207
3.23669
3.17132
3.10594
3.04057
2.97521
2.90985
2.84449
2.77914
2.71378
2.64843
2.58309
2.51774
2.4524
2.38706
2.32172
2.25639
2.19105
2.12572
2.06039
1.99506
1.92973
1.8644
1.79907
1.73374
1.66841
1.60308
1.53776
1.47243
1.4071
1.34177
1.27645
1.21112
1.14579
1.08046
1.01513
0.9498
0.884469
0.819138
0.753806
0.688473
0.623139
0.557805
0.492469
0.427133
0.361796
0.296459
0.23112
0.16578
0.10044
0.0350986
-0.0302436
-0.0955868
-0.160931
-0.226276
-0.291622
-0.356968
-0.422316
-0.487665
-0.553014
-0.618364
-0.683716
-0.749068
-0.814421
-0.879775
-0.945129
-1.01048
-1.07584
-1.1412
-1.20656
-1.27192
-1.33728
-1.40264
-1.468
-1.53336
-1.59872
-1.66409
-1.72945
-1.79482
-1.86019
-1.92555
-1.99092
-2.05625
-2.12137
-2.18682
2.18682
4.3384
4.3384
4.25416
4.16594
4.09053
4.02229
3.95626
3.89073
3.82529
3.75987
3.69446
3.62905
3.56364
3.49824
3.43285
3.36746
3.30207
3.23669
3.17132
3.10594
3.04058
2.97521
2.90985
2.84449
2.77914
2.71378
2.64844
2.58309
2.51774
2.4524
2.38706
2.32173
2.25639
2.19105
2.12572
2.06039
1.99506
1.92973
1.8644
1.79907
1.73374
1.66841
1.60308
1.53776
1.47243
1.4071
1.34177
1.27645
1.21112
1.14579
1.08046
1.01513
0.9498
0.884469
0.819138
0.753805
0.688473
0.623139
0.557804
0.492469
0.427133
0.361796
0.296458
0.23112
0.16578
0.10044
0.0350984
-0.0302438
-0.0955869
-0.160931
-0.226276
-0.291622
-0.356969
-0.422316
-0.487665
-0.553014
-0.618365
-0.683716
-0.749068
-0.814421
-0.879775
-0.945129
-1.01049
-1.07584
-1.1412
-1.20656
-1.27192
-1.33728
-1.40264
-1.468
-1.53336
-1.59872
-1.66409
-1.72945
-1.79482
-1.86019
-1.92555
-1.99091
-2.05623
-2.12131
-2.1868
2.1868
4.3384
4.3384
4.25416
4.16595
4.09054
4.02229
3.95626
3.89073
3.82529
3.75987
3.69446
3.62905
3.56364
3.49824
3.43285
3.36746
3.30207
3.23669
3.17132
3.10594
3.04058
2.97521
2.90985
2.84449
2.77914
2.71379
2.64844
2.58309
2.51775
2.4524
2.38706
2.32173
2.25639
2.19105
2.12572
2.06039
1.99506
1.92973
1.8644
1.79907
1.73374
1.66841
1.60308
1.53776
1.47243
1.4071
1.34177
1.27645
1.21112
1.14579
1.08046
1.01513
0.9498
0.884469
0.819137
0.753805
0.688472
0.623139
0.557804
0.492469
0.427133
0.361796
0.296458
0.23112
0.16578
0.10044
0.0350983
-0.030244
-0.0955871
-0.160931
-0.226276
-0.291622
-0.356969
-0.422316
-0.487665
-0.553014
-0.618365
-0.683716
-0.749068
-0.814421
-0.879775
-0.94513
-1.01049
-1.07584
-1.1412
-1.20656
-1.27192
-1.33728
-1.40264
-1.468
-1.53336
-1.59872
-1.66409
-1.72945
-1.79482
-1.86019
-1.92555
-1.99091
-2.05623
-2.12131
-2.1868
2.1868
4.34196
4.34196
4.25391
4.16503
4.09008
4.02215
3.95623
3.89073
3.82529
3.75987
3.69446
3.62905
3.56364
3.49825
3.43285
3.36746
3.30208
3.23669
3.17132
3.10595
3.04058
2.97521
2.90985
2.84449
2.77914
2.71379
2.64844
2.58309
2.51775
2.4524
2.38706
2.32173
2.25639
2.19105
2.12572
2.06039
1.99506
1.92973
1.8644
1.79907
1.73374
1.66841
1.60308
1.53776
1.47243
1.4071
1.34177
1.27645
1.21112
1.14579
1.08046
1.01513
0.9498
0.884469
0.819137
0.753805
0.688472
0.623139
0.557804
0.492469
0.427133
0.361796
0.296458
0.231119
0.16578
0.100439
0.0350981
-0.0302442
-0.0955873
-0.160931
-0.226276
-0.291622
-0.356969
-0.422317
-0.487665
-0.553015
-0.618365
-0.683716
-0.749068
-0.814421
-0.879775
-0.94513
-1.01049
-1.07584
-1.1412
-1.20656
-1.27192
-1.33728
-1.40264
-1.468
-1.53336
-1.59872
-1.66409
-1.72945
-1.79482
-1.86019
-1.92555
-1.99092
-2.05625
-2.12137
-2.18682
2.18682
4.34928
4.34928
4.25328
4.16318
4.08919
4.02189
3.95618
3.89072
3.82529
3.75987
3.69446
3.62905
3.56365
3.49825
3.43285
3.36746
3.30208
3.2367
3.17132
3.10595
3.04058
2.97521
2.90985
2.84449
2.77914
2.71379
2.64844
2.58309
2.51775
2.4524
2.38706
2.32173
2.25639
2.19105
2.12572
2.06039
1.99506
1.92973
1.8644
1.79907
1.73374
1.66841
1.60308
1.53776
1.47243
1.4071
1.34177
1.27645
1.21112
1.14579
1.08046
1.01513
0.9498
0.884469
0.819137
0.753805
0.688472
0.623138
0.557804
0.492469
0.427133
0.361796
0.296458
0.231119
0.16578
0.100439
0.0350979
-0.0302444
-0.0955875
-0.160932
-0.226277
-0.291622
-0.356969
-0.422317
-0.487665
-0.553015
-0.618365
-0.683716
-0.749068
-0.814421
-0.879775
-0.94513
-1.01049
-1.07584
-1.1412
-1.20656
-1.27192
-1.33728
-1.40264
-1.468
-1.53336
-1.59872
-1.66409
-1.72945
-1.79482
-1.86019
-1.92555
-1.99092
-2.05628
-2.12149
-2.18685
2.18685
4.3616
4.3616
4.25225
4.16067
4.08805
4.02158
3.95611
3.89071
3.82529
3.75988
3.69446
3.62905
3.56365
3.49825
3.43285
3.36746
3.30208
3.2367
3.17132
3.10595
3.04058
2.97521
2.90985
2.84449
2.77914
2.71379
2.64844
2.58309
2.51775
2.4524
2.38706
2.32173
2.25639
2.19106
2.12572
2.06039
1.99506
1.92973
1.8644
1.79907
1.73374
1.66841
1.60308
1.53776
1.47243
1.4071
1.34177
1.27645
1.21112
1.14579
1.08046
1.01513
0.949799
0.884469
0.819137
0.753805
0.688472
0.623138
0.557804
0.492469
0.427132
0.361796
0.296458
0.231119
0.165779
0.100439
0.0350977
-0.0302446
-0.0955877
-0.160932
-0.226277
-0.291623
-0.356969
-0.422317
-0.487666
-0.553015
-0.618365
-0.683717
-0.749069
-0.814422
-0.879776
-0.94513
-1.01049
-1.07584
-1.1412
-1.20656
-1.27192
-1.33728
-1.40264
-1.468
-1.53336
-1.59873
-1.66409
-1.72945
-1.79482
-1.86019
-1.92556
-1.99092
-2.05631
-2.12165
-2.18689
2.18689
4.38494
4.38494
4.25208
4.15954
4.08753
4.02143
3.95608
3.89071
3.82529
3.75988
3.69446
3.62905
3.56365
3.49825
3.43285
3.36746
3.30208
3.2367
3.17132
3.10595
3.04058
2.97521
2.90985
2.84449
2.77914
2.71379
2.64844
2.58309
2.51775
2.45241
2.38707
2.32173
2.25639
2.19106
2.12572
2.06039
1.99506
1.92973
1.8644
1.79907
1.73374
1.66841
1.60308
1.53776
1.47243
1.4071
1.34177
1.27645
1.21112
1.14579
1.08046
1.01513
0.949799
0.884468
0.819137
0.753805
0.688472
0.623138
0.557804
0.492468
0.427132
0.361795
0.296458
0.231119
0.165779
0.100439
0.0350975
-0.0302447
-0.0955879
-0.160932
-0.226277
-0.291623
-0.35697
-0.422317
-0.487666
-0.553015
-0.618366
-0.683717
-0.749069
-0.814422
-0.879776
-0.94513
-1.01049
-1.07584
-1.1412
-1.20656
-1.27192
-1.33728
-1.40264
-1.468
-1.53336
-1.59873
-1.66409
-1.72945
-1.79482
-1.86019
-1.92556
-1.99093
-2.05634
-2.12173
-2.18687
2.18687
4.38494
4.38494
4.25208
4.15954
4.08753
4.02143
3.95608
3.89071
3.82529
3.75988
3.69446
3.62905
3.56365
3.49825
3.43285
3.36746
3.30208
3.2367
3.17132
3.10595
3.04058
2.97521
2.90985
2.84449
2.77914
2.71379
2.64844
2.58309
2.51775
2.45241
2.38707
2.32173
2.25639
2.19106
2.12572
2.06039
1.99506
1.92973
1.8644
1.79907
1.73374
1.66841
1.60308
1.53776
1.47243
1.4071
1.34177
1.27645
1.21112
1.14579
1.08046
1.01513
0.949799
0.884468
0.819137
0.753805
0.688472
0.623138
0.557804
0.492468
0.427132
0.361795
0.296458
0.231119
0.165779
0.100439
0.0350975
-0.0302447
-0.0955879
-0.160932
-0.226277
-0.291623
-0.35697
-0.422317
-0.487666
-0.553015
-0.618366
-0.683717
-0.749069
-0.814422
-0.879776
-0.94513
-1.01049
-1.07584
-1.1412
-1.20656
-1.27192
-1.33728
-1.40264
-1.468
-1.53336
-1.59873
-1.66409
-1.72945
-1.79482
-1.86019
-1.92556
-1.99093
-2.05634
-2.12173
-2.18687
2.18687
