# vtk DataFile Version 2.0
FlowField
ASCII
DATASET STRUCTURED_GRID
DIMENSIONS 102 13 1 
POINTS 1326 double
0 0 0
0.3 0 0
0.6 0 0
0.9 0 0
1.2 0 0
1.5 0 0
1.8 0 0
2.1 0 0
2.4 0 0
2.7 0 0
3 0 0
3.3 0 0
3.6 0 0
3.9 0 0
4.2 0 0
4.5 0 0
4.8 0 0
5.1 0 0
5.4 0 0
5.7 0 0
6 0 0
6.3 0 0
6.6 0 0
6.9 0 0
7.2 0 0
7.5 0 0
7.8 0 0
8.1 0 0
8.4 0 0
8.7 0 0
9 0 0
9.3 0 0
9.6 0 0
9.9 0 0
10.2 0 0
10.5 0 0
10.8 0 0
11.1 0 0
11.4 0 0
11.7 0 0
12 0 0
12.3 0 0
12.6 0 0
12.9 0 0
13.2 0 0
13.5 0 0
13.8 0 0
14.1 0 0
14.4 0 0
14.7 0 0
15 0 0
15.3 0 0
15.6 0 0
15.9 0 0
16.2 0 0
16.5 0 0
16.8 0 0
17.1 0 0
17.4 0 0
17.7 0 0
18 0 0
18.3 0 0
18.6 0 0
18.9 0 0
19.2 0 0
19.5 0 0
19.8 0 0
20.1 0 0
20.4 0 0
20.7 0 0
21 0 0
21.3 0 0
21.6 0 0
21.9 0 0
22.2 0 0
22.5 0 0
22.8 0 0
23.1 0 0
23.4 0 0
23.7 0 0
24 0 0
24.3 0 0
24.6 0 0
24.9 0 0
25.2 0 0
25.5 0 0
25.8 0 0
26.1 0 0
26.4 0 0
26.7 0 0
27 0 0
27.3 0 0
27.6 0 0
27.9 0 0
28.2 0 0
28.5 0 0
28.8 0 0
29.1 0 0
29.4 0 0
29.7 0 0
30 0 0
30.3 0 0
0 0.1 0
0.3 0.1 0
0.6 0.1 0
0.9 0.1 0
1.2 0.1 0
1.5 0.1 0
1.8 0.1 0
2.1 0.1 0
2.4 0.1 0
2.7 0.1 0
3 0.1 0
3.3 0.1 0
3.6 0.1 0
3.9 0.1 0
4.2 0.1 0
4.5 0.1 0
4.8 0.1 0
5.1 0.1 0
5.4 0.1 0
5.7 0.1 0
6 0.1 0
6.3 0.1 0
6.6 0.1 0
6.9 0.1 0
7.2 0.1 0
7.5 0.1 0
7.8 0.1 0
8.1 0.1 0
8.4 0.1 0
8.7 0.1 0
9 0.1 0
9.3 0.1 0
9.6 0.1 0
9.9 0.1 0
10.2 0.1 0
10.5 0.1 0
10.8 0.1 0
11.1 0.1 0
11.4 0.1 0
11.7 0.1 0
12 0.1 0
12.3 0.1 0
12.6 0.1 0
12.9 0.1 0
13.2 0.1 0
13.5 0.1 0
13.8 0.1 0
14.1 0.1 0
14.4 0.1 0
14.7 0.1 0
15 0.1 0
15.3 0.1 0
15.6 0.1 0
15.9 0.1 0
16.2 0.1 0
16.5 0.1 0
16.8 0.1 0
17.1 0.1 0
17.4 0.1 0
17.7 0.1 0
18 0.1 0
18.3 0.1 0
18.6 0.1 0
18.9 0.1 0
19.2 0.1 0
19.5 0.1 0
19.8 0.1 0
20.1 0.1 0
20.4 0.1 0
20.7 0.1 0
21 0.1 0
21.3 0.1 0
21.6 0.1 0
21.9 0.1 0
22.2 0.1 0
22.5 0.1 0
22.8 0.1 0
23.1 0.1 0
23.4 0.1 0
23.7 0.1 0
24 0.1 0
24.3 0.1 0
24.6 0.1 0
24.9 0.1 0
25.2 0.1 0
25.5 0.1 0
25.8 0.1 0
26.1 0.1 0
26.4 0.1 0
26.7 0.1 0
27 0.1 0
27.3 0.1 0
27.6 0.1 0
27.9 0.1 0
28.2 0.1 0
28.5 0.1 0
28.8 0.1 0
29.1 0.1 0
29.4 0.1 0
29.7 0.1 0
30 0.1 0
30.3 0.1 0
0 0.2 0
0.3 0.2 0
0.6 0.2 0
0.9 0.2 0
1.2 0.2 0
1.5 0.2 0
1.8 0.2 0
2.1 0.2 0
2.4 0.2 0
2.7 0.2 0
3 0.2 0
3.3 0.2 0
3.6 0.2 0
3.9 0.2 0
4.2 0.2 0
4.5 0.2 0
4.8 0.2 0
5.1 0.2 0
5.4 0.2 0
5.7 0.2 0
6 0.2 0
6.3 0.2 0
6.6 0.2 0
6.9 0.2 0
7.2 0.2 0
7.5 0.2 0
7.8 0.2 0
8.1 0.2 0
8.4 0.2 0
8.7 0.2 0
9 0.2 0
9.3 0.2 0
9.6 0.2 0
9.9 0.2 0
10.2 0.2 0
10.5 0.2 0
10.8 0.2 0
11.1 0.2 0
11.4 0.2 0
11.7 0.2 0
12 0.2 0
12.3 0.2 0
12.6 0.2 0
12.9 0.2 0
13.2 0.2 0
13.5 0.2 0
13.8 0.2 0
14.1 0.2 0
14.4 0.2 0
14.7 0.2 0
15 0.2 0
15.3 0.2 0
15.6 0.2 0
15.9 0.2 0
16.2 0.2 0
16.5 0.2 0
16.8 0.2 0
17.1 0.2 0
17.4 0.2 0
17.7 0.2 0
18 0.2 0
18.3 0.2 0
18.6 0.2 0
18.9 0.2 0
19.2 0.2 0
19.5 0.2 0
19.8 0.2 0
20.1 0.2 0
20.4 0.2 0
20.7 0.2 0
21 0.2 0
21.3 0.2 0
21.6 0.2 0
21.9 0.2 0
22.2 0.2 0
22.5 0.2 0
22.8 0.2 0
23.1 0.2 0
23.4 0.2 0
23.7 0.2 0
24 0.2 0
24.3 0.2 0
24.6 0.2 0
24.9 0.2 0
25.2 0.2 0
25.5 0.2 0
25.8 0.2 0
26.1 0.2 0
26.4 0.2 0
26.7 0.2 0
27 0.2 0
27.3 0.2 0
27.6 0.2 0
27.9 0.2 0
28.2 0.2 0
28.5 0.2 0
28.8 0.2 0
29.1 0.2 0
29.4 0.2 0
29.7 0.2 0
30 0.2 0
30.3 0.2 0
0 0.3 0
0.3 0.3 0
0.6 0.3 0
0.9 0.3 0
1.2 0.3 0
1.5 0.3 0
1.8 0.3 0
2.1 0.3 0
2.4 0.3 0
2.7 0.3 0
3 0.3 0
3.3 0.3 0
3.6 0.3 0
3.9 0.3 0
4.2 0.3 0
4.5 0.3 0
4.8 0.3 0
5.1 0.3 0
5.4 0.3 0
5.7 0.3 0
6 0.3 0
6.3 0.3 0
6.6 0.3 0
6.9 0.3 0
7.2 0.3 0
7.5 0.3 0
7.8 0.3 0
8.1 0.3 0
8.4 0.3 0
8.7 0.3 0
9 0.3 0
9.3 0.3 0
9.6 0.3 0
9.9 0.3 0
10.2 0.3 0
10.5 0.3 0
10.8 0.3 0
11.1 0.3 0
11.4 0.3 0
11.7 0.3 0
12 0.3 0
12.3 0.3 0
12.6 0.3 0
12.9 0.3 0
13.2 0.3 0
13.5 0.3 0
13.8 0.3 0
14.1 0.3 0
14.4 0.3 0
14.7 0.3 0
15 0.3 0
15.3 0.3 0
15.6 0.3 0
15.9 0.3 0
16.2 0.3 0
16.5 0.3 0
16.8 0.3 0
17.1 0.3 0
17.4 0.3 0
17.7 0.3 0
18 0.3 0
18.3 0.3 0
18.6 0.3 0
18.9 0.3 0
19.2 0.3 0
19.5 0.3 0
19.8 0.3 0
20.1 0.3 0
20.4 0.3 0
20.7 0.3 0
21 0.3 0
21.3 0.3 0
21.6 0.3 0
21.9 0.3 0
22.2 0.3 0
22.5 0.3 0
22.8 0.3 0
23.1 0.3 0
23.4 0.3 0
23.7 0.3 0
24 0.3 0
24.3 0.3 0
24.6 0.3 0
24.9 0.3 0
25.2 0.3 0
25.5 0.3 0
25.8 0.3 0
26.1 0.3 0
26.4 0.3 0
26.7 0.3 0
27 0.3 0
27.3 0.3 0
27.6 0.3 0
27.9 0.3 0
28.2 0.3 0
28.5 0.3 0
28.8 0.3 0
29.1 0.3 0
29.4 0.3 0
29.7 0.3 0
30 0.3 0
30.3 0.3 0
0 0.4 0
0.3 0.4 0
0.6 0.4 0
0.9 0.4 0
1.2 0.4 0
1.5 0.4 0
1.8 0.4 0
2.1 0.4 0
2.4 0.4 0
2.7 0.4 0
3 0.4 0
3.3 0.4 0
3.6 0.4 0
3.9 0.4 0
4.2 0.4 0
4.5 0.4 0
4.8 0.4 0
5.1 0.4 0
5.4 0.4 0
5.7 0.4 0
6 0.4 0
6.3 0.4 0
6.6 0.4 0
6.9 0.4 0
7.2 0.4 0
7.5 0.4 0
7.8 0.4 0
8.1 0.4 0
8.4 0.4 0
8.7 0.4 0
9 0.4 0
9.3 0.4 0
9.6 0.4 0
9.9 0.4 0
10.2 0.4 0
10.5 0.4 0
10.8 0.4 0
11.1 0.4 0
11.4 0.4 0
11.7 0.4 0
12 0.4 0
12.3 0.4 0
12.6 0.4 0
12.9 0.4 0
13.2 0.4 0
13.5 0.4 0
13.8 0.4 0
14.1 0.4 0
14.4 0.4 0
14.7 0.4 0
15 0.4 0
15.3 0.4 0
15.6 0.4 0
15.9 0.4 0
16.2 0.4 0
16.5 0.4 0
16.8 0.4 0
17.1 0.4 0
17.4 0.4 0
17.7 0.4 0
18 0.4 0
18.3 0.4 0
18.6 0.4 0
18.9 0.4 0
19.2 0.4 0
19.5 0.4 0
19.8 0.4 0
20.1 0.4 0
20.4 0.4 0
20.7 0.4 0
21 0.4 0
21.3 0.4 0
21.6 0.4 0
21.9 0.4 0
22.2 0.4 0
22.5 0.4 0
22.8 0.4 0
23.1 0.4 0
23.4 0.4 0
23.7 0.4 0
24 0.4 0
24.3 0.4 0
24.6 0.4 0
24.9 0.4 0
25.2 0.4 0
25.5 0.4 0
25.8 0.4 0
26.1 0.4 0
26.4 0.4 0
26.7 0.4 0
27 0.4 0
27.3 0.4 0
27.6 0.4 0
27.9 0.4 0
28.2 0.4 0
28.5 0.4 0
28.8 0.4 0
29.1 0.4 0
29.4 0.4 0
29.7 0.4 0
30 0.4 0
30.3 0.4 0
0 0.5 0
0.3 0.5 0
0.6 0.5 0
0.9 0.5 0
1.2 0.5 0
1.5 0.5 0
1.8 0.5 0
2.1 0.5 0
2.4 0.5 0
2.7 0.5 0
3 0.5 0
3.3 0.5 0
3.6 0.5 0
3.9 0.5 0
4.2 0.5 0
4.5 0.5 0
4.8 0.5 0
5.1 0.5 0
5.4 0.5 0
5.7 0.5 0
6 0.5 0
6.3 0.5 0
6.6 0.5 0
6.9 0.5 0
7.2 0.5 0
7.5 0.5 0
7.8 0.5 0
8.1 0.5 0
8.4 0.5 0
8.7 0.5 0
9 0.5 0
9.3 0.5 0
9.6 0.5 0
9.9 0.5 0
10.2 0.5 0
10.5 0.5 0
10.8 0.5 0
11.1 0.5 0
11.4 0.5 0
11.7 0.5 0
12 0.5 0
12.3 0.5 0
12.6 0.5 0
12.9 0.5 0
13.2 0.5 0
13.5 0.5 0
13.8 0.5 0
14.1 0.5 0
14.4 0.5 0
14.7 0.5 0
15 0.5 0
15.3 0.5 0
15.6 0.5 0
15.9 0.5 0
16.2 0.5 0
16.5 0.5 0
16.8 0.5 0
17.1 0.5 0
17.4 0.5 0
17.7 0.5 0
18 0.5 0
18.3 0.5 0
18.6 0.5 0
18.9 0.5 0
19.2 0.5 0
19.5 0.5 0
19.8 0.5 0
20.1 0.5 0
20.4 0.5 0
20.7 0.5 0
21 0.5 0
21.3 0.5 0
21.6 0.5 0
21.9 0.5 0
22.2 0.5 0
22.5 0.5 0
22.8 0.5 0
23.1 0.5 0
23.4 0.5 0
23.7 0.5 0
24 0.5 0
24.3 0.5 0
24.6 0.5 0
24.9 0.5 0
25.2 0.5 0
25.5 0.5 0
25.8 0.5 0
26.1 0.5 0
26.4 0.5 0
26.7 0.5 0
27 0.5 0
27.3 0.5 0
27.6 0.5 0
27.9 0.5 0
28.2 0.5 0
28.5 0.5 0
28.8 0.5 0
29.1 0.5 0
29.4 0.5 0
29.7 0.5 0
30 0.5 0
30.3 0.5 0
0 0.6 0
0.3 0.6 0
0.6 0.6 0
0.9 0.6 0
1.2 0.6 0
1.5 0.6 0
1.8 0.6 0
2.1 0.6 0
2.4 0.6 0
2.7 0.6 0
3 0.6 0
3.3 0.6 0
3.6 0.6 0
3.9 0.6 0
4.2 0.6 0
4.5 0.6 0
4.8 0.6 0
5.1 0.6 0
5.4 0.6 0
5.7 0.6 0
6 0.6 0
6.3 0.6 0
6.6 0.6 0
6.9 0.6 0
7.2 0.6 0
7.5 0.6 0
7.8 0.6 0
8.1 0.6 0
8.4 0.6 0
8.7 0.6 0
9 0.6 0
9.3 0.6 0
9.6 0.6 0
9.9 0.6 0
10.2 0.6 0
10.5 0.6 0
10.8 0.6 0
11.1 0.6 0
11.4 0.6 0
11.7 0.6 0
12 0.6 0
12.3 0.6 0
12.6 0.6 0
12.9 0.6 0
13.2 0.6 0
13.5 0.6 0
13.8 0.6 0
14.1 0.6 0
14.4 0.6 0
14.7 0.6 0
15 0.6 0
15.3 0.6 0
15.6 0.6 0
15.9 0.6 0
16.2 0.6 0
16.5 0.6 0
16.8 0.6 0
17.1 0.6 0
17.4 0.6 0
17.7 0.6 0
18 0.6 0
18.3 0.6 0
18.6 0.6 0
18.9 0.6 0
19.2 0.6 0
19.5 0.6 0
19.8 0.6 0
20.1 0.6 0
20.4 0.6 0
20.7 0.6 0
21 0.6 0
21.3 0.6 0
21.6 0.6 0
21.9 0.6 0
22.2 0.6 0
22.5 0.6 0
22.8 0.6 0
23.1 0.6 0
23.4 0.6 0
23.7 0.6 0
24 0.6 0
24.3 0.6 0
24.6 0.6 0
24.9 0.6 0
25.2 0.6 0
25.5 0.6 0
25.8 0.6 0
26.1 0.6 0
26.4 0.6 0
26.7 0.6 0
27 0.6 0
27.3 0.6 0
27.6 0.6 0
27.9 0.6 0
28.2 0.6 0
28.5 0.6 0
28.8 0.6 0
29.1 0.6 0
29.4 0.6 0
29.7 0.6 0
30 0.6 0
30.3 0.6 0
0 0.7 0
0.3 0.7 0
0.6 0.7 0
0.9 0.7 0
1.2 0.7 0
1.5 0.7 0
1.8 0.7 0
2.1 0.7 0
2.4 0.7 0
2.7 0.7 0
3 0.7 0
3.3 0.7 0
3.6 0.7 0
3.9 0.7 0
4.2 0.7 0
4.5 0.7 0
4.8 0.7 0
5.1 0.7 0
5.4 0.7 0
5.7 0.7 0
6 0.7 0
6.3 0.7 0
6.6 0.7 0
6.9 0.7 0
7.2 0.7 0
7.5 0.7 0
7.8 0.7 0
8.1 0.7 0
8.4 0.7 0
8.7 0.7 0
9 0.7 0
9.3 0.7 0
9.6 0.7 0
9.9 0.7 0
10.2 0.7 0
10.5 0.7 0
10.8 0.7 0
11.1 0.7 0
11.4 0.7 0
11.7 0.7 0
12 0.7 0
12.3 0.7 0
12.6 0.7 0
12.9 0.7 0
13.2 0.7 0
13.5 0.7 0
13.8 0.7 0
14.1 0.7 0
14.4 0.7 0
14.7 0.7 0
15 0.7 0
15.3 0.7 0
15.6 0.7 0
15.9 0.7 0
16.2 0.7 0
16.5 0.7 0
16.8 0.7 0
17.1 0.7 0
17.4 0.7 0
17.7 0.7 0
18 0.7 0
18.3 0.7 0
18.6 0.7 0
18.9 0.7 0
19.2 0.7 0
19.5 0.7 0
19.8 0.7 0
20.1 0.7 0
20.4 0.7 0
20.7 0.7 0
21 0.7 0
21.3 0.7 0
21.6 0.7 0
21.9 0.7 0
22.2 0.7 0
22.5 0.7 0
22.8 0.7 0
23.1 0.7 0
23.4 0.7 0
23.7 0.7 0
24 0.7 0
24.3 0.7 0
24.6 0.7 0
24.9 0.7 0
25.2 0.7 0
25.5 0.7 0
25.8 0.7 0
26.1 0.7 0
26.4 0.7 0
26.7 0.7 0
27 0.7 0
27.3 0.7 0
27.6 0.7 0
27.9 0.7 0
28.2 0.7 0
28.5 0.7 0
28.8 0.7 0
29.1 0.7 0
29.4 0.7 0
29.7 0.7 0
30 0.7 0
30.3 0.7 0
0 0.8 0
0.3 0.8 0
0.6 0.8 0
0.9 0.8 0
1.2 0.8 0
1.5 0.8 0
1.8 0.8 0
2.1 0.8 0
2.4 0.8 0
2.7 0.8 0
3 0.8 0
3.3 0.8 0
3.6 0.8 0
3.9 0.8 0
4.2 0.8 0
4.5 0.8 0
4.8 0.8 0
5.1 0.8 0
5.4 0.8 0
5.7 0.8 0
6 0.8 0
6.3 0.8 0
6.6 0.8 0
6.9 0.8 0
7.2 0.8 0
7.5 0.8 0
7.8 0.8 0
8.1 0.8 0
8.4 0.8 0
8.7 0.8 0
9 0.8 0
9.3 0.8 0
9.6 0.8 0
9.9 0.8 0
10.2 0.8 0
10.5 0.8 0
10.8 0.8 0
11.1 0.8 0
11.4 0.8 0
11.7 0.8 0
12 0.8 0
12.3 0.8 0
12.6 0.8 0
12.9 0.8 0
13.2 0.8 0
13.5 0.8 0
13.8 0.8 0
14.1 0.8 0
14.4 0.8 0
14.7 0.8 0
15 0.8 0
15.3 0.8 0
15.6 0.8 0
15.9 0.8 0
16.2 0.8 0
16.5 0.8 0
16.8 0.8 0
17.1 0.8 0
17.4 0.8 0
17.7 0.8 0
18 0.8 0
18.3 0.8 0
18.6 0.8 0
18.9 0.8 0
19.2 0.8 0
19.5 0.8 0
19.8 0.8 0
20.1 0.8 0
20.4 0.8 0
20.7 0.8 0
21 0.8 0
21.3 0.8 0
21.6 0.8 0
21.9 0.8 0
22.2 0.8 0
22.5 0.8 0
22.8 0.8 0
23.1 0.8 0
23.4 0.8 0
23.7 0.8 0
24 0.8 0
24.3 0.8 0
24.6 0.8 0
24.9 0.8 0
25.2 0.8 0
25.5 0.8 0
25.8 0.8 0
26.1 0.8 0
26.4 0.8 0
26.7 0.8 0
27 0.8 0
27.3 0.8 0
27.6 0.8 0
27.9 0.8 0
28.2 0.8 0
28.5 0.8 0
28.8 0.8 0
29.1 0.8 0
29.4 0.8 0
29.7 0.8 0
30 0.8 0
30.3 0.8 0
0 0.9 0
0.3 0.9 0
0.6 0.9 0
0.9 0.9 0
1.2 0.9 0
1.5 0.9 0
1.8 0.9 0
2.1 0.9 0
2.4 0.9 0
2.7 0.9 0
3 0.9 0
3.3 0.9 0
3.6 0.9 0
3.9 0.9 0
4.2 0.9 0
4.5 0.9 0
4.8 0.9 0
5.1 0.9 0
5.4 0.9 0
5.7 0.9 0
6 0.9 0
6.3 0.9 0
6.6 0.9 0
6.9 0.9 0
7.2 0.9 0
7.5 0.9 0
7.8 0.9 0
8.1 0.9 0
8.4 0.9 0
8.7 0.9 0
9 0.9 0
9.3 0.9 0
9.6 0.9 0
9.9 0.9 0
10.2 0.9 0
10.5 0.9 0
10.8 0.9 0
11.1 0.9 0
11.4 0.9 0
11.7 0.9 0
12 0.9 0
12.3 0.9 0
12.6 0.9 0
12.9 0.9 0
13.2 0.9 0
13.5 0.9 0
13.8 0.9 0
14.1 0.9 0
14.4 0.9 0
14.7 0.9 0
15 0.9 0
15.3 0.9 0
15.6 0.9 0
15.9 0.9 0
16.2 0.9 0
16.5 0.9 0
16.8 0.9 0
17.1 0.9 0
17.4 0.9 0
17.7 0.9 0
18 0.9 0
18.3 0.9 0
18.6 0.9 0
18.9 0.9 0
19.2 0.9 0
19.5 0.9 0
19.8 0.9 0
20.1 0.9 0
20.4 0.9 0
20.7 0.9 0
21 0.9 0
21.3 0.9 0
21.6 0.9 0
21.9 0.9 0
22.2 0.9 0
22.5 0.9 0
22.8 0.9 0
23.1 0.9 0
23.4 0.9 0
23.7 0.9 0
24 0.9 0
24.3 0.9 0
24.6 0.9 0
24.9 0.9 0
25.2 0.9 0
25.5 0.9 0
25.8 0.9 0
26.1 0.9 0
26.4 0.9 0
26.7 0.9 0
27 0.9 0
27.3 0.9 0
27.6 0.9 0
27.9 0.9 0
28.2 0.9 0
28.5 0.9 0
28.8 0.9 0
29.1 0.9 0
29.4 0.9 0
29.7 0.9 0
30 0.9 0
30.3 0.9 0
0 1 0
0.3 1 0
0.6 1 0
0.9 1 0
1.2 1 0
1.5 1 0
1.8 1 0
2.1 1 0
2.4 1 0
2.7 1 0
3 1 0
3.3 1 0
3.6 1 0
3.9 1 0
4.2 1 0
4.5 1 0
4.8 1 0
5.1 1 0
5.4 1 0
5.7 1 0
6 1 0
6.3 1 0
6.6 1 0
6.9 1 0
7.2 1 0
7.5 1 0
7.8 1 0
8.1 1 0
8.4 1 0
8.7 1 0
9 1 0
9.3 1 0
9.6 1 0
9.9 1 0
10.2 1 0
10.5 1 0
10.8 1 0
11.1 1 0
11.4 1 0
11.7 1 0
12 1 0
12.3 1 0
12.6 1 0
12.9 1 0
13.2 1 0
13.5 1 0
13.8 1 0
14.1 1 0
14.4 1 0
14.7 1 0
15 1 0
15.3 1 0
15.6 1 0
15.9 1 0
16.2 1 0
16.5 1 0
16.8 1 0
17.1 1 0
17.4 1 0
17.7 1 0
18 1 0
18.3 1 0
18.6 1 0
18.9 1 0
19.2 1 0
19.5 1 0
19.8 1 0
20.1 1 0
20.4 1 0
20.7 1 0
21 1 0
21.3 1 0
21.6 1 0
21.9 1 0
22.2 1 0
22.5 1 0
22.8 1 0
23.1 1 0
23.4 1 0
23.7 1 0
24 1 0
24.3 1 0
24.6 1 0
24.9 1 0
25.2 1 0
25.5 1 0
25.8 1 0
26.1 1 0
26.4 1 0
26.7 1 0
27 1 0
27.3 1 0
27.6 1 0
27.9 1 0
28.2 1 0
28.5 1 0
28.8 1 0
29.1 1 0
29.4 1 0
29.7 1 0
30 1 0
30.3 1 0
0 1.1 0
0.3 1.1 0
0.6 1.1 0
0.9 1.1 0
1.2 1.1 0
1.5 1.1 0
1.8 1.1 0
2.1 1.1 0
2.4 1.1 0
2.7 1.1 0
3 1.1 0
3.3 1.1 0
3.6 1.1 0
3.9 1.1 0
4.2 1.1 0
4.5 1.1 0
4.8 1.1 0
5.1 1.1 0
5.4 1.1 0
5.7 1.1 0
6 1.1 0
6.3 1.1 0
6.6 1.1 0
6.9 1.1 0
7.2 1.1 0
7.5 1.1 0
7.8 1.1 0
8.1 1.1 0
8.4 1.1 0
8.7 1.1 0
9 1.1 0
9.3 1.1 0
9.6 1.1 0
9.9 1.1 0
10.2 1.1 0
10.5 1.1 0
10.8 1.1 0
11.1 1.1 0
11.4 1.1 0
11.7 1.1 0
12 1.1 0
12.3 1.1 0
12.6 1.1 0
12.9 1.1 0
13.2 1.1 0
13.5 1.1 0
13.8 1.1 0
14.1 1.1 0
14.4 1.1 0
14.7 1.1 0
15 1.1 0
15.3 1.1 0
15.6 1.1 0
15.9 1.1 0
16.2 1.1 0
16.5 1.1 0
16.8 1.1 0
17.1 1.1 0
17.4 1.1 0
17.7 1.1 0
18 1.1 0
18.3 1.1 0
18.6 1.1 0
18.9 1.1 0
19.2 1.1 0
19.5 1.1 0
19.8 1.1 0
20.1 1.1 0
20.4 1.1 0
20.7 1.1 0
21 1.1 0
21.3 1.1 0
21.6 1.1 0
21.9 1.1 0
22.2 1.1 0
22.5 1.1 0
22.8 1.1 0
23.1 1.1 0
23.4 1.1 0
23.7 1.1 0
24 1.1 0
24.3 1.1 0
24.6 1.1 0
24.9 1.1 0
25.2 1.1 0
25.5 1.1 0
25.8 1.1 0
26.1 1.1 0
26.4 1.1 0
26.7 1.1 0
27 1.1 0
27.3 1.1 0
27.6 1.1 0
27.9 1.1 0
28.2 1.1 0
28.5 1.1 0
28.8 1.1 0
29.1 1.1 0
29.4 1.1 0
29.7 1.1 0
30 1.1 0
30.3 1.1 0
0 1.2 0
0.3 1.2 0
0.6 1.2 0
0.9 1.2 0
1.2 1.2 0
1.5 1.2 0
1.8 1.2 0
2.1 1.2 0
2.4 1.2 0
2.7 1.2 0
3 1.2 0
3.3 1.2 0
3.6 1.2 0
3.9 1.2 0
4.2 1.2 0
4.5 1.2 0
4.8 1.2 0
5.1 1.2 0
5.4 1.2 0
5.7 1.2 0
6 1.2 0
6.3 1.2 0
6.6 1.2 0
6.9 1.2 0
7.2 1.2 0
7.5 1.2 0
7.8 1.2 0
8.1 1.2 0
8.4 1.2 0
8.7 1.2 0
9 1.2 0
9.3 1.2 0
9.6 1.2 0
9.9 1.2 0
10.2 1.2 0
10.5 1.2 0
10.8 1.2 0
11.1 1.2 0
11.4 1.2 0
11.7 1.2 0
12 1.2 0
12.3 1.2 0
12.6 1.2 0
12.9 1.2 0
13.2 1.2 0
13.5 1.2 0
13.8 1.2 0
14.1 1.2 0
14.4 1.2 0
14.7 1.2 0
15 1.2 0
15.3 1.2 0
15.6 1.2 0
15.9 1.2 0
16.2 1.2 0
16.5 1.2 0
16.8 1.2 0
17.1 1.2 0
17.4 1.2 0
17.7 1.2 0
18 1.2 0
18.3 1.2 0
18.6 1.2 0
18.9 1.2 0
19.2 1.2 0
19.5 1.2 0
19.8 1.2 0
20.1 1.2 0
20.4 1.2 0
20.7 1.2 0
21 1.2 0
21.3 1.2 0
21.6 1.2 0
21.9 1.2 0
22.2 1.2 0
22.5 1.2 0
22.8 1.2 0
23.1 1.2 0
23.4 1.2 0
23.7 1.2 0
24 1.2 0
24.3 1.2 0
24.6 1.2 0
24.9 1.2 0
25.2 1.2 0
25.5 1.2 0
25.8 1.2 0
26.1 1.2 0
26.4 1.2 0
26.7 1.2 0
27 1.2 0
27.3 1.2 0
27.6 1.2 0
27.9 1.2 0
28.2 1.2 0
28.5 1.2 0
28.8 1.2 0
29.1 1.2 0
29.4 1.2 0
29.7 1.2 0
30 1.2 0
30.3 1.2 0

POINT_DATA 1326

SCALARS u double
LOOKUP_TABLE default
-1
-0.88876
-0.771421
-0.670526
-0.588769
-0.52481
-0.475977
-0.439226
-0.411721
-0.391157
-0.375842
-0.36458
-0.356501
-0.350909
-0.347217
-0.344914
-0.343572
-0.34285
-0.342495
-0.342339
-0.34228
-0.342262
-0.342258
-0.342259
-0.34226
-0.342261
-0.342261
-0.342261
-0.342261
-0.342261
-0.342261
-0.342261
-0.342261
-0.342261
-0.342261
-0.342261
-0.342261
-0.342261
-0.342261
-0.342261
-0.342261
-0.342261
-0.342261
-0.342261
-0.342261
-0.342262
-0.342262
-0.342262
-0.342262
-0.342262
-0.342262
-0.342262
-0.342262
-0.342262
-0.342262
-0.342262
-0.342262
-0.342262
-0.342262
-0.342262
-0.342262
-0.342262
-0.342262
-0.342262
-0.342262
-0.342262
-0.342262
-0.342262
-0.342262
-0.342262
-0.342262
-0.342262
-0.342262
-0.342262
-0.342262
-0.342262
-0.342262
-0.342262
-0.342262
-0.342262
-0.342262
-0.342262
-0.342262
-0.342262
-0.342262
-0.342262
-0.342262
-0.342262
-0.342262
-0.342262
-0.342262
-0.342262
-0.342262
-0.342262
-0.342263
-0.342265
-0.342268
-0.342288
-0.342323
-0.342419
-0.342419
-1
1
0.88876
0.771421
0.670526
0.588769
0.52481
0.475977
0.439226
0.411721
0.391157
0.375842
0.36458
0.356501
0.350909
0.347217
0.344914
0.343572
0.34285
0.342495
0.342339
0.34228
0.342262
0.342258
0.342259
0.34226
0.342261
0.342261
0.342261
0.342261
0.342261
0.342261
0.342261
0.342261
0.342261
0.342261
0.342261
0.342261
0.342261
0.342261
0.342261
0.342261
0.342261
0.342261
0.342261
0.342261
0.342262
0.342262
0.342262
0.342262
0.342262
0.342262
0.342262
0.342262
0.342262
0.342262
0.342262
0.342262
0.342262
0.342262
0.342262
0.342262
0.342262
0.342262
0.342262
0.342262
0.342262
0.342262
0.342262
0.342262
0.342262
0.342262
0.342262
0.342262
0.342262
0.342262
0.342262
0.342262
0.342262
0.342262
0.342262
0.342262
0.342262
0.342262
0.342262
0.342262
0.342262
0.342262
0.342262
0.342262
0.342262
0.342262
0.342262
0.342262
0.342262
0.342263
0.342265
0.342268
0.342288
0.342323
0.342419
0.342419
1
1
1.02648
1.02759
1.01578
0.998002
0.977897
0.957453
0.937737
0.919312
0.902514
0.887608
0.874839
0.864383
0.856275
0.850369
0.846354
0.843821
0.842347
0.841563
0.841185
0.841023
0.840966
0.84095
0.84095
0.840952
0.840954
0.840955
0.840955
0.840955
0.840955
0.840955
0.840955
0.840955
0.840955
0.840955
0.840955
0.840955
0.840955
0.840955
0.840955
0.840955
0.840955
0.840956
0.840956
0.840956
0.840956
0.840956
0.840956
0.840956
0.840956
0.840956
0.840956
0.840956
0.840956
0.840956
0.840956
0.840956
0.840956
0.840956
0.840956
0.840956
0.840956
0.840956
0.840956
0.840956
0.840956
0.840956
0.840956
0.840956
0.840956
0.840956
0.840956
0.840956
0.840956
0.840956
0.840956
0.840956
0.840956
0.840956
0.840956
0.840956
0.840956
0.840956
0.840956
0.840956
0.840956
0.840956
0.840956
0.840956
0.840956
0.840956
0.840956
0.840957
0.840957
0.840957
0.840958
0.84096
0.840976
0.840981
0.841229
0.841229
1
1
1.03148
1.06334
1.08875
1.10753
1.1205
1.12878
1.13348
1.13554
1.13576
1.13475
1.13302
1.13098
1.12896
1.12716
1.1257
1.12462
1.12387
1.12338
1.12308
1.1229
1.1228
1.12274
1.12271
1.12269
1.12269
1.12268
1.12268
1.12268
1.12268
1.12268
1.12268
1.12268
1.12268
1.12268
1.12268
1.12268
1.12268
1.12268
1.12268
1.12268
1.12268
1.12268
1.12268
1.12268
1.12268
1.12268
1.12268
1.12268
1.12268
1.12268
1.12268
1.12268
1.12268
1.12268
1.12268
1.12268
1.12268
1.12268
1.12268
1.12268
1.12268
1.12268
1.12268
1.12268
1.12268
1.12268
1.12268
1.12268
1.12268
1.12268
1.12268
1.12268
1.12268
1.12268
1.12268
1.12268
1.12268
1.12268
1.12268
1.12268
1.12268
1.12268
1.12268
1.12268
1.12268
1.12268
1.12268
1.12268
1.12268
1.12268
1.12268
1.12268
1.12268
1.12268
1.12268
1.12268
1.12268
1.12267
1.12276
1.12276
1
1
1.02429
1.05912
1.09356
1.12437
1.15061
1.17234
1.19007
1.20448
1.21614
1.22549
1.23284
1.23841
1.24244
1.24519
1.24692
1.24792
1.24842
1.24864
1.24869
1.24867
1.24863
1.2486
1.24857
1.24855
1.24853
1.24852
1.24852
1.24852
1.24851
1.24851
1.24851
1.24851
1.24851
1.24851
1.24851
1.24851
1.24851
1.24851
1.24851
1.24851
1.24851
1.24851
1.24851
1.24851
1.24851
1.24851
1.24851
1.24851
1.24851
1.24851
1.24851
1.24851
1.24851
1.24851
1.24851
1.24851
1.24851
1.24851
1.24851
1.24851
1.24851
1.24851
1.24851
1.24851
1.24851
1.24851
1.24851
1.24851
1.24851
1.24851
1.24851
1.24851
1.24851
1.24851
1.24851
1.24851
1.24851
1.24851
1.24851
1.24851
1.24851
1.24851
1.24851
1.24851
1.24851
1.24851
1.24851
1.24851
1.24851
1.24851
1.24851
1.24851
1.24851
1.24851
1.24851
1.24851
1.2485
1.24849
1.24839
1.24839
1
1
1.01979
1.05308
1.08837
1.1216
1.15133
1.17725
1.19962
1.21889
1.23548
1.24965
1.26151
1.27113
1.27858
1.28406
1.28785
1.29032
1.29183
1.29268
1.29315
1.29338
1.2935
1.29355
1.29358
1.29359
1.2936
1.29361
1.29361
1.29361
1.29361
1.29361
1.29361
1.29361
1.29361
1.29361
1.29361
1.29361
1.29361
1.29361
1.29361
1.29361
1.29361
1.29361
1.29361
1.29361
1.29361
1.29361
1.29361
1.29361
1.29361
1.29361
1.29361
1.29361
1.29361
1.29361
1.29361
1.29361
1.29361
1.29361
1.29361
1.29361
1.29361
1.29361
1.29361
1.29361
1.29361
1.29361
1.29361
1.29361
1.29361
1.29361
1.29361
1.29361
1.29361
1.29361
1.29361
1.29361
1.29361
1.29361
1.29361
1.29361
1.29361
1.29361
1.29361
1.29361
1.29361
1.29361
1.29361
1.29361
1.29361
1.29361
1.29361
1.29361
1.29361
1.29361
1.29361
1.29361
1.29359
1.29358
1.29337
1.29337
1
1
1.01839
1.05092
1.08603
1.11947
1.14971
1.1764
1.19973
1.22011
1.2379
1.25332
1.26643
1.2772
1.28569
1.29203
1.29651
1.2995
1.30137
1.30249
1.30314
1.3035
1.3037
1.30381
1.30388
1.30391
1.30394
1.30395
1.30396
1.30396
1.30397
1.30397
1.30397
1.30397
1.30397
1.30397
1.30397
1.30397
1.30397
1.30397
1.30397
1.30397
1.30397
1.30397
1.30397
1.30397
1.30397
1.30397
1.30397
1.30397
1.30397
1.30397
1.30397
1.30397
1.30397
1.30397
1.30397
1.30397
1.30397
1.30397
1.30397
1.30397
1.30397
1.30397
1.30397
1.30397
1.30397
1.30397
1.30397
1.30397
1.30397
1.30397
1.30397
1.30397
1.30397
1.30397
1.30397
1.30397
1.30397
1.30397
1.30397
1.30397
1.30397
1.30397
1.30397
1.30397
1.30397
1.30397
1.30397
1.30397
1.30397
1.30397
1.30397
1.30397
1.30397
1.30397
1.30397
1.30397
1.30395
1.30393
1.30369
1.30369
1
1
1.01979
1.05308
1.08837
1.1216
1.15133
1.17725
1.19962
1.21889
1.23548
1.24965
1.26151
1.27113
1.27858
1.28406
1.28785
1.29032
1.29183
1.29268
1.29315
1.29338
1.2935
1.29355
1.29358
1.29359
1.2936
1.29361
1.29361
1.29361
1.29361
1.29361
1.29361
1.29361
1.29361
1.29361
1.29361
1.29361
1.29361
1.29361
1.29361
1.29361
1.29361
1.29361
1.29361
1.29361
1.29361
1.29361
1.29361
1.29361
1.29361
1.29361
1.29361
1.29361
1.29361
1.29361
1.29361
1.29361
1.29361
1.29361
1.29361
1.29361
1.29361
1.29361
1.29361
1.29361
1.29361
1.29361
1.29361
1.29361
1.29361
1.29361
1.29361
1.29361
1.29361
1.29361
1.29361
1.29361
1.29361
1.29361
1.29361
1.29361
1.29361
1.29361
1.29361
1.29361
1.29361
1.29361
1.29361
1.29361
1.29361
1.29361
1.29361
1.29361
1.29361
1.29361
1.29361
1.29361
1.29359
1.29358
1.29337
1.29337
1
1
1.02429
1.05912
1.09356
1.12437
1.15061
1.17234
1.19007
1.20448
1.21614
1.22549
1.23284
1.23841
1.24244
1.24519
1.24692
1.24792
1.24842
1.24864
1.24869
1.24867
1.24863
1.2486
1.24857
1.24855
1.24853
1.24852
1.24852
1.24852
1.24851
1.24851
1.24851
1.24851
1.24851
1.24851
1.24851
1.24851
1.24851
1.24851
1.24851
1.24851
1.24851
1.24851
1.24851
1.24851
1.24851
1.24851
1.24851
1.24851
1.24851
1.24851
1.24851
1.24851
1.24851
1.24851
1.24851
1.24851
1.24851
1.24851
1.24851
1.24851
1.24851
1.24851
1.24851
1.24851
1.24851
1.24851
1.24851
1.24851
1.24851
1.24851
1.24851
1.24851
1.24851
1.24851
1.24851
1.24851
1.24851
1.24851
1.24851
1.24851
1.24851
1.24851
1.24851
1.24851
1.24851
1.24851
1.24851
1.24851
1.24851
1.24851
1.24851
1.24851
1.24851
1.24851
1.24851
1.24851
1.2485
1.24849
1.24839
1.24839
1
1
1.03148
1.06334
1.08875
1.10753
1.1205
1.12878
1.13348
1.13554
1.13576
1.13475
1.13302
1.13098
1.12896
1.12716
1.1257
1.12462
1.12387
1.12338
1.12308
1.1229
1.1228
1.12274
1.12271
1.12269
1.12269
1.12268
1.12268
1.12268
1.12268
1.12268
1.12268
1.12268
1.12268
1.12268
1.12268
1.12268
1.12268
1.12268
1.12268
1.12268
1.12268
1.12268
1.12268
1.12268
1.12268
1.12268
1.12268
1.12268
1.12268
1.12268
1.12268
1.12268
1.12268
1.12268
1.12268
1.12268
1.12268
1.12268
1.12268
1.12268
1.12268
1.12268
1.12268
1.12268
1.12268
1.12268
1.12268
1.12268
1.12268
1.12268
1.12268
1.12268
1.12268
1.12268
1.12268
1.12268
1.12268
1.12268
1.12268
1.12268
1.12268
1.12268
1.12268
1.12268
1.12268
1.12268
1.12268
1.12268
1.12268
1.12268
1.12268
1.12268
1.12268
1.12268
1.12268
1.12268
1.12268
1.12267
1.12276
1.12276
1
1
1.02648
1.02759
1.01578
0.998002
0.977898
0.957453
0.937737
0.919313
0.902514
0.887608
0.874839
0.864383
0.856275
0.850369
0.846354
0.843821
0.842347
0.841563
0.841185
0.841023
0.840965
0.84095
0.840949
0.840952
0.840953
0.840954
0.840955
0.840955
0.840955
0.840955
0.840955
0.840955
0.840955
0.840955
0.840955
0.840955
0.840955
0.840955
0.840955
0.840955
0.840955
0.840955
0.840955
0.840955
0.840955
0.840955
0.840955
0.840955
0.840955
0.840955
0.840955
0.840955
0.840955
0.840956
0.840956
0.840956
0.840956
0.840956
0.840956
0.840956
0.840956
0.840956
0.840956
0.840956
0.840956
0.840956
0.840956
0.840956
0.840956
0.840956
0.840956
0.840956
0.840956
0.840956
0.840956
0.840956
0.840956
0.840956
0.840956
0.840956
0.840956
0.840956
0.840956
0.840956
0.840956
0.840956
0.840956
0.840956
0.840956
0.840956
0.840956
0.840956
0.840956
0.840956
0.840958
0.840959
0.840976
0.840981
0.841228
0.841228
1
1
0.88876
0.771421
0.670527
0.588769
0.524811
0.475978
0.439227
0.411722
0.391158
0.375842
0.364581
0.356501
0.350909
0.347217
0.344914
0.343572
0.34285
0.342496
0.34234
0.34228
0.342262
0.342259
0.342259
0.34226
0.342261
0.342261
0.342261
0.342261
0.342261
0.342261
0.342261
0.342261
0.342261
0.342261
0.342261
0.342261
0.342261
0.342261
0.342261
0.342261
0.342261
0.342261
0.342261
0.342261
0.342261
0.342261
0.342261
0.342262
0.342262
0.342262
0.342262
0.342262
0.342262
0.342262
0.342262
0.342262
0.342262
0.342262
0.342262
0.342262
0.342262
0.342262
0.342262
0.342262
0.342262
0.342262
0.342262
0.342262
0.342262
0.342262
0.342262
0.342262
0.342262
0.342262
0.342262
0.342262
0.342262
0.342262
0.342262
0.342262
0.342262
0.342262
0.342262
0.342262
0.342262
0.342262
0.342262
0.342262
0.342262
0.342262
0.342262
0.342262
0.342262
0.342262
0.342264
0.342268
0.342288
0.342323
0.342419
0.342419
1
-1
-0.88876
-0.771421
-0.670527
-0.588769
-0.524811
-0.475978
-0.439227
-0.411722
-0.391158
-0.375842
-0.364581
-0.356501
-0.350909
-0.347217
-0.344914
-0.343572
-0.34285
-0.342496
-0.34234
-0.34228
-0.342262
-0.342259
-0.342259
-0.34226
-0.342261
-0.342261
-0.342261
-0.342261
-0.342261
-0.342261
-0.342261
-0.342261
-0.342261
-0.342261
-0.342261
-0.342261
-0.342261
-0.342261
-0.342261
-0.342261
-0.342261
-0.342261
-0.342261
-0.342261
-0.342261
-0.342261
-0.342261
-0.342262
-0.342262
-0.342262
-0.342262
-0.342262
-0.342262
-0.342262
-0.342262
-0.342262
-0.342262
-0.342262
-0.342262
-0.342262
-0.342262
-0.342262
-0.342262
-0.342262
-0.342262
-0.342262
-0.342262
-0.342262
-0.342262
-0.342262
-0.342262
-0.342262
-0.342262
-0.342262
-0.342262
-0.342262
-0.342262
-0.342262
-0.342262
-0.342262
-0.342262
-0.342262
-0.342262
-0.342262
-0.342262
-0.342262
-0.342262
-0.342262
-0.342262
-0.342262
-0.342262
-0.342262
-0.342262
-0.342262
-0.342264
-0.342268
-0.342288
-0.342323
-0.342419
-0.342419
-1
