# vtk DataFile Version 2.0
FlowField
ASCII
DATASET STRUCTURED_GRID
DIMENSIONS 101 11 1 
POINTS 1111 double
0 0 0
0.3 0 0
0.6 0 0
0.9 0 0
1.2 0 0
1.5 0 0
1.8 0 0
2.1 0 0
2.4 0 0
2.7 0 0
3 0 0
3.3 0 0
3.6 0 0
3.9 0 0
4.2 0 0
4.5 0 0
4.8 0 0
5.1 0 0
5.4 0 0
5.7 0 0
6 0 0
6.3 0 0
6.6 0 0
6.9 0 0
7.2 0 0
7.5 0 0
7.8 0 0
8.1 0 0
8.4 0 0
8.7 0 0
9 0 0
9.3 0 0
9.6 0 0
9.9 0 0
10.2 0 0
10.5 0 0
10.8 0 0
11.1 0 0
11.4 0 0
11.7 0 0
12 0 0
12.3 0 0
12.6 0 0
12.9 0 0
13.2 0 0
13.5 0 0
13.8 0 0
14.1 0 0
14.4 0 0
14.7 0 0
15 0 0
15.3 0 0
15.6 0 0
15.9 0 0
16.2 0 0
16.5 0 0
16.8 0 0
17.1 0 0
17.4 0 0
17.7 0 0
18 0 0
18.3 0 0
18.6 0 0
18.9 0 0
19.2 0 0
19.5 0 0
19.8 0 0
20.1 0 0
20.4 0 0
20.7 0 0
21 0 0
21.3 0 0
21.6 0 0
21.9 0 0
22.2 0 0
22.5 0 0
22.8 0 0
23.1 0 0
23.4 0 0
23.7 0 0
24 0 0
24.3 0 0
24.6 0 0
24.9 0 0
25.2 0 0
25.5 0 0
25.8 0 0
26.1 0 0
26.4 0 0
26.7 0 0
27 0 0
27.3 0 0
27.6 0 0
27.9 0 0
28.2 0 0
28.5 0 0
28.8 0 0
29.1 0 0
29.4 0 0
29.7 0 0
30 0 0
0 0.1 0
0.3 0.1 0
0.6 0.1 0
0.9 0.1 0
1.2 0.1 0
1.5 0.1 0
1.8 0.1 0
2.1 0.1 0
2.4 0.1 0
2.7 0.1 0
3 0.1 0
3.3 0.1 0
3.6 0.1 0
3.9 0.1 0
4.2 0.1 0
4.5 0.1 0
4.8 0.1 0
5.1 0.1 0
5.4 0.1 0
5.7 0.1 0
6 0.1 0
6.3 0.1 0
6.6 0.1 0
6.9 0.1 0
7.2 0.1 0
7.5 0.1 0
7.8 0.1 0
8.1 0.1 0
8.4 0.1 0
8.7 0.1 0
9 0.1 0
9.3 0.1 0
9.6 0.1 0
9.9 0.1 0
10.2 0.1 0
10.5 0.1 0
10.8 0.1 0
11.1 0.1 0
11.4 0.1 0
11.7 0.1 0
12 0.1 0
12.3 0.1 0
12.6 0.1 0
12.9 0.1 0
13.2 0.1 0
13.5 0.1 0
13.8 0.1 0
14.1 0.1 0
14.4 0.1 0
14.7 0.1 0
15 0.1 0
15.3 0.1 0
15.6 0.1 0
15.9 0.1 0
16.2 0.1 0
16.5 0.1 0
16.8 0.1 0
17.1 0.1 0
17.4 0.1 0
17.7 0.1 0
18 0.1 0
18.3 0.1 0
18.6 0.1 0
18.9 0.1 0
19.2 0.1 0
19.5 0.1 0
19.8 0.1 0
20.1 0.1 0
20.4 0.1 0
20.7 0.1 0
21 0.1 0
21.3 0.1 0
21.6 0.1 0
21.9 0.1 0
22.2 0.1 0
22.5 0.1 0
22.8 0.1 0
23.1 0.1 0
23.4 0.1 0
23.7 0.1 0
24 0.1 0
24.3 0.1 0
24.6 0.1 0
24.9 0.1 0
25.2 0.1 0
25.5 0.1 0
25.8 0.1 0
26.1 0.1 0
26.4 0.1 0
26.7 0.1 0
27 0.1 0
27.3 0.1 0
27.6 0.1 0
27.9 0.1 0
28.2 0.1 0
28.5 0.1 0
28.8 0.1 0
29.1 0.1 0
29.4 0.1 0
29.7 0.1 0
30 0.1 0
0 0.2 0
0.3 0.2 0
0.6 0.2 0
0.9 0.2 0
1.2 0.2 0
1.5 0.2 0
1.8 0.2 0
2.1 0.2 0
2.4 0.2 0
2.7 0.2 0
3 0.2 0
3.3 0.2 0
3.6 0.2 0
3.9 0.2 0
4.2 0.2 0
4.5 0.2 0
4.8 0.2 0
5.1 0.2 0
5.4 0.2 0
5.7 0.2 0
6 0.2 0
6.3 0.2 0
6.6 0.2 0
6.9 0.2 0
7.2 0.2 0
7.5 0.2 0
7.8 0.2 0
8.1 0.2 0
8.4 0.2 0
8.7 0.2 0
9 0.2 0
9.3 0.2 0
9.6 0.2 0
9.9 0.2 0
10.2 0.2 0
10.5 0.2 0
10.8 0.2 0
11.1 0.2 0
11.4 0.2 0
11.7 0.2 0
12 0.2 0
12.3 0.2 0
12.6 0.2 0
12.9 0.2 0
13.2 0.2 0
13.5 0.2 0
13.8 0.2 0
14.1 0.2 0
14.4 0.2 0
14.7 0.2 0
15 0.2 0
15.3 0.2 0
15.6 0.2 0
15.9 0.2 0
16.2 0.2 0
16.5 0.2 0
16.8 0.2 0
17.1 0.2 0
17.4 0.2 0
17.7 0.2 0
18 0.2 0
18.3 0.2 0
18.6 0.2 0
18.9 0.2 0
19.2 0.2 0
19.5 0.2 0
19.8 0.2 0
20.1 0.2 0
20.4 0.2 0
20.7 0.2 0
21 0.2 0
21.3 0.2 0
21.6 0.2 0
21.9 0.2 0
22.2 0.2 0
22.5 0.2 0
22.8 0.2 0
23.1 0.2 0
23.4 0.2 0
23.7 0.2 0
24 0.2 0
24.3 0.2 0
24.6 0.2 0
24.9 0.2 0
25.2 0.2 0
25.5 0.2 0
25.8 0.2 0
26.1 0.2 0
26.4 0.2 0
26.7 0.2 0
27 0.2 0
27.3 0.2 0
27.6 0.2 0
27.9 0.2 0
28.2 0.2 0
28.5 0.2 0
28.8 0.2 0
29.1 0.2 0
29.4 0.2 0
29.7 0.2 0
30 0.2 0
0 0.3 0
0.3 0.3 0
0.6 0.3 0
0.9 0.3 0
1.2 0.3 0
1.5 0.3 0
1.8 0.3 0
2.1 0.3 0
2.4 0.3 0
2.7 0.3 0
3 0.3 0
3.3 0.3 0
3.6 0.3 0
3.9 0.3 0
4.2 0.3 0
4.5 0.3 0
4.8 0.3 0
5.1 0.3 0
5.4 0.3 0
5.7 0.3 0
6 0.3 0
6.3 0.3 0
6.6 0.3 0
6.9 0.3 0
7.2 0.3 0
7.5 0.3 0
7.8 0.3 0
8.1 0.3 0
8.4 0.3 0
8.7 0.3 0
9 0.3 0
9.3 0.3 0
9.6 0.3 0
9.9 0.3 0
10.2 0.3 0
10.5 0.3 0
10.8 0.3 0
11.1 0.3 0
11.4 0.3 0
11.7 0.3 0
12 0.3 0
12.3 0.3 0
12.6 0.3 0
12.9 0.3 0
13.2 0.3 0
13.5 0.3 0
13.8 0.3 0
14.1 0.3 0
14.4 0.3 0
14.7 0.3 0
15 0.3 0
15.3 0.3 0
15.6 0.3 0
15.9 0.3 0
16.2 0.3 0
16.5 0.3 0
16.8 0.3 0
17.1 0.3 0
17.4 0.3 0
17.7 0.3 0
18 0.3 0
18.3 0.3 0
18.6 0.3 0
18.9 0.3 0
19.2 0.3 0
19.5 0.3 0
19.8 0.3 0
20.1 0.3 0
20.4 0.3 0
20.7 0.3 0
21 0.3 0
21.3 0.3 0
21.6 0.3 0
21.9 0.3 0
22.2 0.3 0
22.5 0.3 0
22.8 0.3 0
23.1 0.3 0
23.4 0.3 0
23.7 0.3 0
24 0.3 0
24.3 0.3 0
24.6 0.3 0
24.9 0.3 0
25.2 0.3 0
25.5 0.3 0
25.8 0.3 0
26.1 0.3 0
26.4 0.3 0
26.7 0.3 0
27 0.3 0
27.3 0.3 0
27.6 0.3 0
27.9 0.3 0
28.2 0.3 0
28.5 0.3 0
28.8 0.3 0
29.1 0.3 0
29.4 0.3 0
29.7 0.3 0
30 0.3 0
0 0.4 0
0.3 0.4 0
0.6 0.4 0
0.9 0.4 0
1.2 0.4 0
1.5 0.4 0
1.8 0.4 0
2.1 0.4 0
2.4 0.4 0
2.7 0.4 0
3 0.4 0
3.3 0.4 0
3.6 0.4 0
3.9 0.4 0
4.2 0.4 0
4.5 0.4 0
4.8 0.4 0
5.1 0.4 0
5.4 0.4 0
5.7 0.4 0
6 0.4 0
6.3 0.4 0
6.6 0.4 0
6.9 0.4 0
7.2 0.4 0
7.5 0.4 0
7.8 0.4 0
8.1 0.4 0
8.4 0.4 0
8.7 0.4 0
9 0.4 0
9.3 0.4 0
9.6 0.4 0
9.9 0.4 0
10.2 0.4 0
10.5 0.4 0
10.8 0.4 0
11.1 0.4 0
11.4 0.4 0
11.7 0.4 0
12 0.4 0
12.3 0.4 0
12.6 0.4 0
12.9 0.4 0
13.2 0.4 0
13.5 0.4 0
13.8 0.4 0
14.1 0.4 0
14.4 0.4 0
14.7 0.4 0
15 0.4 0
15.3 0.4 0
15.6 0.4 0
15.9 0.4 0
16.2 0.4 0
16.5 0.4 0
16.8 0.4 0
17.1 0.4 0
17.4 0.4 0
17.7 0.4 0
18 0.4 0
18.3 0.4 0
18.6 0.4 0
18.9 0.4 0
19.2 0.4 0
19.5 0.4 0
19.8 0.4 0
20.1 0.4 0
20.4 0.4 0
20.7 0.4 0
21 0.4 0
21.3 0.4 0
21.6 0.4 0
21.9 0.4 0
22.2 0.4 0
22.5 0.4 0
22.8 0.4 0
23.1 0.4 0
23.4 0.4 0
23.7 0.4 0
24 0.4 0
24.3 0.4 0
24.6 0.4 0
24.9 0.4 0
25.2 0.4 0
25.5 0.4 0
25.8 0.4 0
26.1 0.4 0
26.4 0.4 0
26.7 0.4 0
27 0.4 0
27.3 0.4 0
27.6 0.4 0
27.9 0.4 0
28.2 0.4 0
28.5 0.4 0
28.8 0.4 0
29.1 0.4 0
29.4 0.4 0
29.7 0.4 0
30 0.4 0
0 0.5 0
0.3 0.5 0
0.6 0.5 0
0.9 0.5 0
1.2 0.5 0
1.5 0.5 0
1.8 0.5 0
2.1 0.5 0
2.4 0.5 0
2.7 0.5 0
3 0.5 0
3.3 0.5 0
3.6 0.5 0
3.9 0.5 0
4.2 0.5 0
4.5 0.5 0
4.8 0.5 0
5.1 0.5 0
5.4 0.5 0
5.7 0.5 0
6 0.5 0
6.3 0.5 0
6.6 0.5 0
6.9 0.5 0
7.2 0.5 0
7.5 0.5 0
7.8 0.5 0
8.1 0.5 0
8.4 0.5 0
8.7 0.5 0
9 0.5 0
9.3 0.5 0
9.6 0.5 0
9.9 0.5 0
10.2 0.5 0
10.5 0.5 0
10.8 0.5 0
11.1 0.5 0
11.4 0.5 0
11.7 0.5 0
12 0.5 0
12.3 0.5 0
12.6 0.5 0
12.9 0.5 0
13.2 0.5 0
13.5 0.5 0
13.8 0.5 0
14.1 0.5 0
14.4 0.5 0
14.7 0.5 0
15 0.5 0
15.3 0.5 0
15.6 0.5 0
15.9 0.5 0
16.2 0.5 0
16.5 0.5 0
16.8 0.5 0
17.1 0.5 0
17.4 0.5 0
17.7 0.5 0
18 0.5 0
18.3 0.5 0
18.6 0.5 0
18.9 0.5 0
19.2 0.5 0
19.5 0.5 0
19.8 0.5 0
20.1 0.5 0
20.4 0.5 0
20.7 0.5 0
21 0.5 0
21.3 0.5 0
21.6 0.5 0
21.9 0.5 0
22.2 0.5 0
22.5 0.5 0
22.8 0.5 0
23.1 0.5 0
23.4 0.5 0
23.7 0.5 0
24 0.5 0
24.3 0.5 0
24.6 0.5 0
24.9 0.5 0
25.2 0.5 0
25.5 0.5 0
25.8 0.5 0
26.1 0.5 0
26.4 0.5 0
26.7 0.5 0
27 0.5 0
27.3 0.5 0
27.6 0.5 0
27.9 0.5 0
28.2 0.5 0
28.5 0.5 0
28.8 0.5 0
29.1 0.5 0
29.4 0.5 0
29.7 0.5 0
30 0.5 0
0 0.6 0
0.3 0.6 0
0.6 0.6 0
0.9 0.6 0
1.2 0.6 0
1.5 0.6 0
1.8 0.6 0
2.1 0.6 0
2.4 0.6 0
2.7 0.6 0
3 0.6 0
3.3 0.6 0
3.6 0.6 0
3.9 0.6 0
4.2 0.6 0
4.5 0.6 0
4.8 0.6 0
5.1 0.6 0
5.4 0.6 0
5.7 0.6 0
6 0.6 0
6.3 0.6 0
6.6 0.6 0
6.9 0.6 0
7.2 0.6 0
7.5 0.6 0
7.8 0.6 0
8.1 0.6 0
8.4 0.6 0
8.7 0.6 0
9 0.6 0
9.3 0.6 0
9.6 0.6 0
9.9 0.6 0
10.2 0.6 0
10.5 0.6 0
10.8 0.6 0
11.1 0.6 0
11.4 0.6 0
11.7 0.6 0
12 0.6 0
12.3 0.6 0
12.6 0.6 0
12.9 0.6 0
13.2 0.6 0
13.5 0.6 0
13.8 0.6 0
14.1 0.6 0
14.4 0.6 0
14.7 0.6 0
15 0.6 0
15.3 0.6 0
15.6 0.6 0
15.9 0.6 0
16.2 0.6 0
16.5 0.6 0
16.8 0.6 0
17.1 0.6 0
17.4 0.6 0
17.7 0.6 0
18 0.6 0
18.3 0.6 0
18.6 0.6 0
18.9 0.6 0
19.2 0.6 0
19.5 0.6 0
19.8 0.6 0
20.1 0.6 0
20.4 0.6 0
20.7 0.6 0
21 0.6 0
21.3 0.6 0
21.6 0.6 0
21.9 0.6 0
22.2 0.6 0
22.5 0.6 0
22.8 0.6 0
23.1 0.6 0
23.4 0.6 0
23.7 0.6 0
24 0.6 0
24.3 0.6 0
24.6 0.6 0
24.9 0.6 0
25.2 0.6 0
25.5 0.6 0
25.8 0.6 0
26.1 0.6 0
26.4 0.6 0
26.7 0.6 0
27 0.6 0
27.3 0.6 0
27.6 0.6 0
27.9 0.6 0
28.2 0.6 0
28.5 0.6 0
28.8 0.6 0
29.1 0.6 0
29.4 0.6 0
29.7 0.6 0
30 0.6 0
0 0.7 0
0.3 0.7 0
0.6 0.7 0
0.9 0.7 0
1.2 0.7 0
1.5 0.7 0
1.8 0.7 0
2.1 0.7 0
2.4 0.7 0
2.7 0.7 0
3 0.7 0
3.3 0.7 0
3.6 0.7 0
3.9 0.7 0
4.2 0.7 0
4.5 0.7 0
4.8 0.7 0
5.1 0.7 0
5.4 0.7 0
5.7 0.7 0
6 0.7 0
6.3 0.7 0
6.6 0.7 0
6.9 0.7 0
7.2 0.7 0
7.5 0.7 0
7.8 0.7 0
8.1 0.7 0
8.4 0.7 0
8.7 0.7 0
9 0.7 0
9.3 0.7 0
9.6 0.7 0
9.9 0.7 0
10.2 0.7 0
10.5 0.7 0
10.8 0.7 0
11.1 0.7 0
11.4 0.7 0
11.7 0.7 0
12 0.7 0
12.3 0.7 0
12.6 0.7 0
12.9 0.7 0
13.2 0.7 0
13.5 0.7 0
13.8 0.7 0
14.1 0.7 0
14.4 0.7 0
14.7 0.7 0
15 0.7 0
15.3 0.7 0
15.6 0.7 0
15.9 0.7 0
16.2 0.7 0
16.5 0.7 0
16.8 0.7 0
17.1 0.7 0
17.4 0.7 0
17.7 0.7 0
18 0.7 0
18.3 0.7 0
18.6 0.7 0
18.9 0.7 0
19.2 0.7 0
19.5 0.7 0
19.8 0.7 0
20.1 0.7 0
20.4 0.7 0
20.7 0.7 0
21 0.7 0
21.3 0.7 0
21.6 0.7 0
21.9 0.7 0
22.2 0.7 0
22.5 0.7 0
22.8 0.7 0
23.1 0.7 0
23.4 0.7 0
23.7 0.7 0
24 0.7 0
24.3 0.7 0
24.6 0.7 0
24.9 0.7 0
25.2 0.7 0
25.5 0.7 0
25.8 0.7 0
26.1 0.7 0
26.4 0.7 0
26.7 0.7 0
27 0.7 0
27.3 0.7 0
27.6 0.7 0
27.9 0.7 0
28.2 0.7 0
28.5 0.7 0
28.8 0.7 0
29.1 0.7 0
29.4 0.7 0
29.7 0.7 0
30 0.7 0
0 0.8 0
0.3 0.8 0
0.6 0.8 0
0.9 0.8 0
1.2 0.8 0
1.5 0.8 0
1.8 0.8 0
2.1 0.8 0
2.4 0.8 0
2.7 0.8 0
3 0.8 0
3.3 0.8 0
3.6 0.8 0
3.9 0.8 0
4.2 0.8 0
4.5 0.8 0
4.8 0.8 0
5.1 0.8 0
5.4 0.8 0
5.7 0.8 0
6 0.8 0
6.3 0.8 0
6.6 0.8 0
6.9 0.8 0
7.2 0.8 0
7.5 0.8 0
7.8 0.8 0
8.1 0.8 0
8.4 0.8 0
8.7 0.8 0
9 0.8 0
9.3 0.8 0
9.6 0.8 0
9.9 0.8 0
10.2 0.8 0
10.5 0.8 0
10.8 0.8 0
11.1 0.8 0
11.4 0.8 0
11.7 0.8 0
12 0.8 0
12.3 0.8 0
12.6 0.8 0
12.9 0.8 0
13.2 0.8 0
13.5 0.8 0
13.8 0.8 0
14.1 0.8 0
14.4 0.8 0
14.7 0.8 0
15 0.8 0
15.3 0.8 0
15.6 0.8 0
15.9 0.8 0
16.2 0.8 0
16.5 0.8 0
16.8 0.8 0
17.1 0.8 0
17.4 0.8 0
17.7 0.8 0
18 0.8 0
18.3 0.8 0
18.6 0.8 0
18.9 0.8 0
19.2 0.8 0
19.5 0.8 0
19.8 0.8 0
20.1 0.8 0
20.4 0.8 0
20.7 0.8 0
21 0.8 0
21.3 0.8 0
21.6 0.8 0
21.9 0.8 0
22.2 0.8 0
22.5 0.8 0
22.8 0.8 0
23.1 0.8 0
23.4 0.8 0
23.7 0.8 0
24 0.8 0
24.3 0.8 0
24.6 0.8 0
24.9 0.8 0
25.2 0.8 0
25.5 0.8 0
25.8 0.8 0
26.1 0.8 0
26.4 0.8 0
26.7 0.8 0
27 0.8 0
27.3 0.8 0
27.6 0.8 0
27.9 0.8 0
28.2 0.8 0
28.5 0.8 0
28.8 0.8 0
29.1 0.8 0
29.4 0.8 0
29.7 0.8 0
30 0.8 0
0 0.9 0
0.3 0.9 0
0.6 0.9 0
0.9 0.9 0
1.2 0.9 0
1.5 0.9 0
1.8 0.9 0
2.1 0.9 0
2.4 0.9 0
2.7 0.9 0
3 0.9 0
3.3 0.9 0
3.6 0.9 0
3.9 0.9 0
4.2 0.9 0
4.5 0.9 0
4.8 0.9 0
5.1 0.9 0
5.4 0.9 0
5.7 0.9 0
6 0.9 0
6.3 0.9 0
6.6 0.9 0
6.9 0.9 0
7.2 0.9 0
7.5 0.9 0
7.8 0.9 0
8.1 0.9 0
8.4 0.9 0
8.7 0.9 0
9 0.9 0
9.3 0.9 0
9.6 0.9 0
9.9 0.9 0
10.2 0.9 0
10.5 0.9 0
10.8 0.9 0
11.1 0.9 0
11.4 0.9 0
11.7 0.9 0
12 0.9 0
12.3 0.9 0
12.6 0.9 0
12.9 0.9 0
13.2 0.9 0
13.5 0.9 0
13.8 0.9 0
14.1 0.9 0
14.4 0.9 0
14.7 0.9 0
15 0.9 0
15.3 0.9 0
15.6 0.9 0
15.9 0.9 0
16.2 0.9 0
16.5 0.9 0
16.8 0.9 0
17.1 0.9 0
17.4 0.9 0
17.7 0.9 0
18 0.9 0
18.3 0.9 0
18.6 0.9 0
18.9 0.9 0
19.2 0.9 0
19.5 0.9 0
19.8 0.9 0
20.1 0.9 0
20.4 0.9 0
20.7 0.9 0
21 0.9 0
21.3 0.9 0
21.6 0.9 0
21.9 0.9 0
22.2 0.9 0
22.5 0.9 0
22.8 0.9 0
23.1 0.9 0
23.4 0.9 0
23.7 0.9 0
24 0.9 0
24.3 0.9 0
24.6 0.9 0
24.9 0.9 0
25.2 0.9 0
25.5 0.9 0
25.8 0.9 0
26.1 0.9 0
26.4 0.9 0
26.7 0.9 0
27 0.9 0
27.3 0.9 0
27.6 0.9 0
27.9 0.9 0
28.2 0.9 0
28.5 0.9 0
28.8 0.9 0
29.1 0.9 0
29.4 0.9 0
29.7 0.9 0
30 0.9 0
0 1 0
0.3 1 0
0.6 1 0
0.9 1 0
1.2 1 0
1.5 1 0
1.8 1 0
2.1 1 0
2.4 1 0
2.7 1 0
3 1 0
3.3 1 0
3.6 1 0
3.9 1 0
4.2 1 0
4.5 1 0
4.8 1 0
5.1 1 0
5.4 1 0
5.7 1 0
6 1 0
6.3 1 0
6.6 1 0
6.9 1 0
7.2 1 0
7.5 1 0
7.8 1 0
8.1 1 0
8.4 1 0
8.7 1 0
9 1 0
9.3 1 0
9.6 1 0
9.9 1 0
10.2 1 0
10.5 1 0
10.8 1 0
11.1 1 0
11.4 1 0
11.7 1 0
12 1 0
12.3 1 0
12.6 1 0
12.9 1 0
13.2 1 0
13.5 1 0
13.8 1 0
14.1 1 0
14.4 1 0
14.7 1 0
15 1 0
15.3 1 0
15.6 1 0
15.9 1 0
16.2 1 0
16.5 1 0
16.8 1 0
17.1 1 0
17.4 1 0
17.7 1 0
18 1 0
18.3 1 0
18.6 1 0
18.9 1 0
19.2 1 0
19.5 1 0
19.8 1 0
20.1 1 0
20.4 1 0
20.7 1 0
21 1 0
21.3 1 0
21.6 1 0
21.9 1 0
22.2 1 0
22.5 1 0
22.8 1 0
23.1 1 0
23.4 1 0
23.7 1 0
24 1 0
24.3 1 0
24.6 1 0
24.9 1 0
25.2 1 0
25.5 1 0
25.8 1 0
26.1 1 0
26.4 1 0
26.7 1 0
27 1 0
27.3 1 0
27.6 1 0
27.9 1 0
28.2 1 0
28.5 1 0
28.8 1 0
29.1 1 0
29.4 1 0
29.7 1 0
30 1 0

POINT_DATA 1111

SCALARS p double
LOOKUP_TABLE default
1.52413
1.52413
1.4554
1.4047
1.35787
1.31442
1.27477
1.23888
1.2064
1.17681
1.14958
1.12424
1.10039
1.07775
1.05607
1.03518
1.01495
0.995288
0.976105
0.957343
0.938954
0.9209
0.903151
0.885684
0.868481
0.851529
0.834818
0.818337
0.802075
0.78602
0.770153
0.754456
0.738905
0.723479
0.708155
0.69291
0.677727
0.662589
0.647484
0.632401
0.617333
0.602275
0.587223
0.572174
0.557128
0.542083
0.527039
0.511996
0.496952
0.481908
0.466865
0.451821
0.436778
0.421734
0.406691
0.391647
0.376604
0.36156
0.346517
0.331473
0.31643
0.301386
0.286343
0.271299
0.256256
0.241212
0.226168
0.211125
0.196081
0.181038
0.165994
0.150951
0.135907
0.120864
0.10582
0.0907768
0.0757333
0.0606898
0.0456463
0.0306028
0.0155593
0.000515795
-0.0145277
-0.0295712
-0.0446147
-0.0596582
-0.0747017
-0.0897452
-0.104789
-0.119832
-0.134876
-0.149919
-0.164963
-0.180006
-0.19505
-0.210093
-0.225136
-0.24018
-0.255223
-0.27025
0.27025
1.52413
1.52413
1.4554
1.4047
1.35787
1.31442
1.27477
1.23888
1.2064
1.17681
1.14958
1.12424
1.10039
1.07775
1.05607
1.03518
1.01495
0.995288
0.976105
0.957343
0.938954
0.9209
0.903151
0.885684
0.868481
0.851529
0.834818
0.818337
0.802075
0.78602
0.770153
0.754456
0.738905
0.723479
0.708155
0.69291
0.677727
0.662589
0.647484
0.632401
0.617333
0.602275
0.587223
0.572174
0.557128
0.542083
0.527039
0.511996
0.496952
0.481908
0.466865
0.451821
0.436778
0.421734
0.406691
0.391647
0.376604
0.36156
0.346517
0.331473
0.31643
0.301386
0.286343
0.271299
0.256256
0.241212
0.226168
0.211125
0.196081
0.181038
0.165994
0.150951
0.135907
0.120864
0.10582
0.0907768
0.0757333
0.0606898
0.0456463
0.0306028
0.0155593
0.000515795
-0.0145277
-0.0295712
-0.0446147
-0.0596582
-0.0747017
-0.0897452
-0.104789
-0.119832
-0.134876
-0.149919
-0.164963
-0.180006
-0.19505
-0.210093
-0.225136
-0.24018
-0.255223
-0.27025
0.27025
1.50387
1.50387
1.45383
1.4051
1.35859
1.31516
1.27542
1.23942
1.20683
1.17715
1.14985
1.12444
1.10055
1.07787
1.05617
1.03526
1.01502
0.995348
0.976157
0.957388
0.938994
0.920935
0.903181
0.88571
0.868503
0.851547
0.834832
0.818348
0.802083
0.786025
0.770156
0.754457
0.738906
0.723479
0.708154
0.692909
0.677726
0.662588
0.647483
0.6324
0.617332
0.602274
0.587222
0.572174
0.557128
0.542083
0.527039
0.511996
0.496952
0.481908
0.466865
0.451821
0.436778
0.421734
0.406691
0.391647
0.376604
0.36156
0.346517
0.331473
0.31643
0.301386
0.286343
0.271299
0.256256
0.241212
0.226168
0.211125
0.196081
0.181038
0.165994
0.150951
0.135907
0.120864
0.10582
0.0907768
0.0757333
0.0606898
0.0456463
0.0306028
0.0155593
0.000515795
-0.0145277
-0.0295712
-0.0446147
-0.0596582
-0.0747017
-0.0897452
-0.104789
-0.119832
-0.134876
-0.149919
-0.164963
-0.180006
-0.19505
-0.210093
-0.225136
-0.24018
-0.255223
-0.27025
0.27025
1.49027
1.49027
1.45176
1.40564
1.35971
1.31634
1.27649
1.24031
1.20754
1.1777
1.15026
1.12475
1.10079
1.07805
1.05631
1.03537
1.01511
0.99542
0.976217
0.957439
0.939037
0.920972
0.903214
0.885738
0.868527
0.851568
0.83485
0.818362
0.802095
0.786034
0.770163
0.754462
0.738909
0.723481
0.708155
0.69291
0.677726
0.662588
0.647483
0.6324
0.617332
0.602274
0.587222
0.572174
0.557128
0.542083
0.527039
0.511996
0.496952
0.481908
0.466865
0.451821
0.436778
0.421734
0.406691
0.391647
0.376604
0.36156
0.346517
0.331473
0.31643
0.301386
0.286343
0.271299
0.256256
0.241212
0.226168
0.211125
0.196081
0.181038
0.165994
0.150951
0.135907
0.120864
0.10582
0.0907768
0.0757333
0.0606898
0.0456463
0.0306028
0.0155593
0.000515795
-0.0145277
-0.0295712
-0.0446147
-0.0596582
-0.0747017
-0.0897452
-0.104789
-0.119832
-0.134876
-0.149919
-0.164963
-0.180006
-0.19505
-0.210093
-0.225136
-0.240179
-0.255216
-0.270247
0.270247
1.48277
1.48277
1.45028
1.40601
1.36055
1.31726
1.27734
1.24104
1.20813
1.17817
1.15062
1.12504
1.10101
1.07823
1.05645
1.03549
1.0152
0.995497
0.976281
0.957494
0.939085
0.921014
0.903251
0.885771
0.868557
0.851595
0.834874
0.818385
0.802115
0.786052
0.770178
0.754475
0.738919
0.723489
0.708161
0.692914
0.67773
0.662591
0.647484
0.632401
0.617333
0.602275
0.587223
0.572174
0.557128
0.542083
0.527039
0.511996
0.496952
0.481908
0.466865
0.451821
0.436778
0.421734
0.406691
0.391647
0.376604
0.36156
0.346517
0.331473
0.31643
0.301386
0.286343
0.271299
0.256256
0.241212
0.226168
0.211125
0.196081
0.181038
0.165994
0.150951
0.135907
0.120864
0.10582
0.0907768
0.0757333
0.0606898
0.0456463
0.0306028
0.0155593
0.000515795
-0.0145277
-0.0295712
-0.0446147
-0.0596582
-0.0747017
-0.0897452
-0.104789
-0.119832
-0.134876
-0.149919
-0.164963
-0.180006
-0.19505
-0.210093
-0.225136
-0.240177
-0.255206
-0.270243
0.270243
1.4804
1.4804
1.44978
1.40616
1.36087
1.31761
1.27766
1.24132
1.20836
1.17835
1.15077
1.12515
1.1011
1.0783
1.05651
1.03553
1.01524
0.995531
0.97631
0.957519
0.939107
0.921034
0.903269
0.885787
0.868572
0.851609
0.834887
0.818397
0.802126
0.786061
0.770186
0.754482
0.738925
0.723494
0.708165
0.692917
0.677732
0.662592
0.647485
0.632402
0.617333
0.602275
0.587223
0.572174
0.557128
0.542083
0.527039
0.511996
0.496952
0.481908
0.466865
0.451821
0.436778
0.421734
0.406691
0.391647
0.376604
0.36156
0.346517
0.331473
0.31643
0.301386
0.286343
0.271299
0.256256
0.241212
0.226168
0.211125
0.196081
0.181038
0.165994
0.150951
0.135907
0.120864
0.10582
0.0907768
0.0757333
0.0606898
0.0456463
0.0306028
0.0155593
0.000515795
-0.0145277
-0.0295712
-0.0446147
-0.0596582
-0.0747017
-0.0897452
-0.104789
-0.119832
-0.134876
-0.149919
-0.164963
-0.180006
-0.19505
-0.210093
-0.225136
-0.240176
-0.255201
-0.270241
0.270241
1.48277
1.48277
1.45028
1.40601
1.36055
1.31726
1.27734
1.24104
1.20813
1.17817
1.15062
1.12504
1.10101
1.07823
1.05645
1.03549
1.0152
0.995497
0.976281
0.957494
0.939085
0.921014
0.903251
0.885771
0.868557
0.851595
0.834874
0.818385
0.802115
0.786052
0.770178
0.754475
0.738919
0.723489
0.708161
0.692914
0.67773
0.662591
0.647484
0.632401
0.617333
0.602275
0.587223
0.572174
0.557128
0.542083
0.527039
0.511996
0.496952
0.481908
0.466865
0.451821
0.436778
0.421734
0.406691
0.391647
0.376604
0.36156
0.346517
0.331473
0.31643
0.301386
0.286343
0.271299
0.256256
0.241212
0.226168
0.211125
0.196081
0.181038
0.165994
0.150951
0.135907
0.120864
0.10582
0.0907768
0.0757333
0.0606898
0.0456463
0.0306028
0.0155593
0.000515795
-0.0145277
-0.0295712
-0.0446147
-0.0596582
-0.0747017
-0.0897452
-0.104789
-0.119832
-0.134876
-0.149919
-0.164963
-0.180006
-0.19505
-0.210093
-0.225136
-0.240177
-0.255206
-0.270243
0.270243
1.49027
1.49027
1.45176
1.40564
1.35971
1.31634
1.27649
1.24031
1.20754
1.1777
1.15026
1.12475
1.10079
1.07805
1.05631
1.03537
1.01511
0.99542
0.976217
0.957439
0.939037
0.920972
0.903214
0.885738
0.868527
0.851568
0.83485
0.818362
0.802095
0.786034
0.770163
0.754462
0.738909
0.723481
0.708155
0.69291
0.677726
0.662588
0.647483
0.6324
0.617332
0.602274
0.587222
0.572174
0.557128
0.542083
0.527039
0.511996
0.496952
0.481908
0.466865
0.451821
0.436778
0.421734
0.406691
0.391647
0.376604
0.36156
0.346517
0.331473
0.31643
0.301386
0.286343
0.271299
0.256256
0.241212
0.226168
0.211125
0.196081
0.181038
0.165994
0.150951
0.135907
0.120864
0.10582
0.0907768
0.0757333
0.0606898
0.0456463
0.0306028
0.0155593
0.000515796
-0.0145277
-0.0295712
-0.0446147
-0.0596582
-0.0747017
-0.0897452
-0.104789
-0.119832
-0.134876
-0.149919
-0.164963
-0.180006
-0.19505
-0.210093
-0.225136
-0.240179
-0.255216
-0.270247
0.270247
1.50387
1.50387
1.45383
1.4051
1.35859
1.31516
1.27542
1.23942
1.20683
1.17715
1.14985
1.12444
1.10055
1.07787
1.05617
1.03526
1.01502
0.995348
0.976157
0.957388
0.938994
0.920935
0.903181
0.88571
0.868503
0.851547
0.834832
0.818348
0.802083
0.786025
0.770156
0.754457
0.738906
0.723479
0.708154
0.692909
0.677726
0.662588
0.647483
0.6324
0.617332
0.602274
0.587222
0.572174
0.557128
0.542083
0.527039
0.511996
0.496952
0.481908
0.466865
0.451821
0.436778
0.421734
0.406691
0.391647
0.376604
0.36156
0.346517
0.331473
0.31643
0.301386
0.286343
0.271299
0.256256
0.241212
0.226168
0.211125
0.196081
0.181038
0.165994
0.150951
0.135907
0.120864
0.10582
0.0907768
0.0757333
0.0606898
0.0456463
0.0306028
0.0155593
0.000515796
-0.0145277
-0.0295712
-0.0446147
-0.0596582
-0.0747017
-0.0897452
-0.104789
-0.119832
-0.134876
-0.149919
-0.164963
-0.180006
-0.19505
-0.210093
-0.225136
-0.24018
-0.255223
-0.27025
0.27025
1.52413
1.52413
1.4554
1.4047
1.35787
1.31442
1.27477
1.23888
1.2064
1.17681
1.14958
1.12424
1.10039
1.07775
1.05607
1.03518
1.01495
0.995288
0.976105
0.957343
0.938954
0.9209
0.903151
0.885684
0.868481
0.851529
0.834818
0.818337
0.802075
0.78602
0.770153
0.754456
0.738905
0.723479
0.708155
0.69291
0.677727
0.662589
0.647484
0.632401
0.617333
0.602275
0.587223
0.572174
0.557128
0.542083
0.527039
0.511996
0.496952
0.481908
0.466865
0.451821
0.436778
0.421734
0.406691
0.391647
0.376604
0.36156
0.346517
0.331473
0.31643
0.301386
0.286343
0.271299
0.256256
0.241212
0.226168
0.211125
0.196081
0.181038
0.165994
0.150951
0.135907
0.120864
0.10582
0.0907768
0.0757333
0.0606898
0.0456463
0.0306028
0.0155593
0.000515796
-0.0145277
-0.0295712
-0.0446147
-0.0596582
-0.0747017
-0.0897452
-0.104789
-0.119832
-0.134876
-0.149919
-0.164963
-0.180006
-0.19505
-0.210093
-0.225136
-0.24018
-0.255223
-0.27025
0.27025
1.52413
1.52413
1.4554
1.4047
1.35787
1.31442
1.27477
1.23888
1.2064
1.17681
1.14958
1.12424
1.10039
1.07775
1.05607
1.03518
1.01495
0.995288
0.976105
0.957343
0.938954
0.9209
0.903151
0.885684
0.868481
0.851529
0.834818
0.818337
0.802075
0.78602
0.770153
0.754456
0.738905
0.723479
0.708155
0.69291
0.677727
0.662589
0.647484
0.632401
0.617333
0.602275
0.587223
0.572174
0.557128
0.542083
0.527039
0.511996
0.496952
0.481908
0.466865
0.451821
0.436778
0.421734
0.406691
0.391647
0.376604
0.36156
0.346517
0.331473
0.31643
0.301386
0.286343
0.271299
0.256256
0.241212
0.226168
0.211125
0.196081
0.181038
0.165994
0.150951
0.135907
0.120864
0.10582
0.0907768
0.0757333
0.0606898
0.0456463
0.0306028
0.0155593
0.000515796
-0.0145277
-0.0295712
-0.0446147
-0.0596582
-0.0747017
-0.0897452
-0.104789
-0.119832
-0.134876
-0.149919
-0.164963
-0.180006
-0.19505
-0.210093
-0.225136
-0.24018
-0.255223
-0.27025
0.27025
