# vtk DataFile Version 2.0
FlowField
ASCII
DATASET STRUCTURED_GRID
DIMENSIONS 101 11 1 
POINTS 1111 double
0 0 0
0.3 0 0
0.6 0 0
0.9 0 0
1.2 0 0
1.5 0 0
1.8 0 0
2.1 0 0
2.4 0 0
2.7 0 0
3 0 0
3.3 0 0
3.6 0 0
3.9 0 0
4.2 0 0
4.5 0 0
4.8 0 0
5.1 0 0
5.4 0 0
5.7 0 0
6 0 0
6.3 0 0
6.6 0 0
6.9 0 0
7.2 0 0
7.5 0 0
7.8 0 0
8.1 0 0
8.4 0 0
8.7 0 0
9 0 0
9.3 0 0
9.6 0 0
9.9 0 0
10.2 0 0
10.5 0 0
10.8 0 0
11.1 0 0
11.4 0 0
11.7 0 0
12 0 0
12.3 0 0
12.6 0 0
12.9 0 0
13.2 0 0
13.5 0 0
13.8 0 0
14.1 0 0
14.4 0 0
14.7 0 0
15 0 0
15.3 0 0
15.6 0 0
15.9 0 0
16.2 0 0
16.5 0 0
16.8 0 0
17.1 0 0
17.4 0 0
17.7 0 0
18 0 0
18.3 0 0
18.6 0 0
18.9 0 0
19.2 0 0
19.5 0 0
19.8 0 0
20.1 0 0
20.4 0 0
20.7 0 0
21 0 0
21.3 0 0
21.6 0 0
21.9 0 0
22.2 0 0
22.5 0 0
22.8 0 0
23.1 0 0
23.4 0 0
23.7 0 0
24 0 0
24.3 0 0
24.6 0 0
24.9 0 0
25.2 0 0
25.5 0 0
25.8 0 0
26.1 0 0
26.4 0 0
26.7 0 0
27 0 0
27.3 0 0
27.6 0 0
27.9 0 0
28.2 0 0
28.5 0 0
28.8 0 0
29.1 0 0
29.4 0 0
29.7 0 0
30 0 0
0 0.1 0
0.3 0.1 0
0.6 0.1 0
0.9 0.1 0
1.2 0.1 0
1.5 0.1 0
1.8 0.1 0
2.1 0.1 0
2.4 0.1 0
2.7 0.1 0
3 0.1 0
3.3 0.1 0
3.6 0.1 0
3.9 0.1 0
4.2 0.1 0
4.5 0.1 0
4.8 0.1 0
5.1 0.1 0
5.4 0.1 0
5.7 0.1 0
6 0.1 0
6.3 0.1 0
6.6 0.1 0
6.9 0.1 0
7.2 0.1 0
7.5 0.1 0
7.8 0.1 0
8.1 0.1 0
8.4 0.1 0
8.7 0.1 0
9 0.1 0
9.3 0.1 0
9.6 0.1 0
9.9 0.1 0
10.2 0.1 0
10.5 0.1 0
10.8 0.1 0
11.1 0.1 0
11.4 0.1 0
11.7 0.1 0
12 0.1 0
12.3 0.1 0
12.6 0.1 0
12.9 0.1 0
13.2 0.1 0
13.5 0.1 0
13.8 0.1 0
14.1 0.1 0
14.4 0.1 0
14.7 0.1 0
15 0.1 0
15.3 0.1 0
15.6 0.1 0
15.9 0.1 0
16.2 0.1 0
16.5 0.1 0
16.8 0.1 0
17.1 0.1 0
17.4 0.1 0
17.7 0.1 0
18 0.1 0
18.3 0.1 0
18.6 0.1 0
18.9 0.1 0
19.2 0.1 0
19.5 0.1 0
19.8 0.1 0
20.1 0.1 0
20.4 0.1 0
20.7 0.1 0
21 0.1 0
21.3 0.1 0
21.6 0.1 0
21.9 0.1 0
22.2 0.1 0
22.5 0.1 0
22.8 0.1 0
23.1 0.1 0
23.4 0.1 0
23.7 0.1 0
24 0.1 0
24.3 0.1 0
24.6 0.1 0
24.9 0.1 0
25.2 0.1 0
25.5 0.1 0
25.8 0.1 0
26.1 0.1 0
26.4 0.1 0
26.7 0.1 0
27 0.1 0
27.3 0.1 0
27.6 0.1 0
27.9 0.1 0
28.2 0.1 0
28.5 0.1 0
28.8 0.1 0
29.1 0.1 0
29.4 0.1 0
29.7 0.1 0
30 0.1 0
0 0.2 0
0.3 0.2 0
0.6 0.2 0
0.9 0.2 0
1.2 0.2 0
1.5 0.2 0
1.8 0.2 0
2.1 0.2 0
2.4 0.2 0
2.7 0.2 0
3 0.2 0
3.3 0.2 0
3.6 0.2 0
3.9 0.2 0
4.2 0.2 0
4.5 0.2 0
4.8 0.2 0
5.1 0.2 0
5.4 0.2 0
5.7 0.2 0
6 0.2 0
6.3 0.2 0
6.6 0.2 0
6.9 0.2 0
7.2 0.2 0
7.5 0.2 0
7.8 0.2 0
8.1 0.2 0
8.4 0.2 0
8.7 0.2 0
9 0.2 0
9.3 0.2 0
9.6 0.2 0
9.9 0.2 0
10.2 0.2 0
10.5 0.2 0
10.8 0.2 0
11.1 0.2 0
11.4 0.2 0
11.7 0.2 0
12 0.2 0
12.3 0.2 0
12.6 0.2 0
12.9 0.2 0
13.2 0.2 0
13.5 0.2 0
13.8 0.2 0
14.1 0.2 0
14.4 0.2 0
14.7 0.2 0
15 0.2 0
15.3 0.2 0
15.6 0.2 0
15.9 0.2 0
16.2 0.2 0
16.5 0.2 0
16.8 0.2 0
17.1 0.2 0
17.4 0.2 0
17.7 0.2 0
18 0.2 0
18.3 0.2 0
18.6 0.2 0
18.9 0.2 0
19.2 0.2 0
19.5 0.2 0
19.8 0.2 0
20.1 0.2 0
20.4 0.2 0
20.7 0.2 0
21 0.2 0
21.3 0.2 0
21.6 0.2 0
21.9 0.2 0
22.2 0.2 0
22.5 0.2 0
22.8 0.2 0
23.1 0.2 0
23.4 0.2 0
23.7 0.2 0
24 0.2 0
24.3 0.2 0
24.6 0.2 0
24.9 0.2 0
25.2 0.2 0
25.5 0.2 0
25.8 0.2 0
26.1 0.2 0
26.4 0.2 0
26.7 0.2 0
27 0.2 0
27.3 0.2 0
27.6 0.2 0
27.9 0.2 0
28.2 0.2 0
28.5 0.2 0
28.8 0.2 0
29.1 0.2 0
29.4 0.2 0
29.7 0.2 0
30 0.2 0
0 0.3 0
0.3 0.3 0
0.6 0.3 0
0.9 0.3 0
1.2 0.3 0
1.5 0.3 0
1.8 0.3 0
2.1 0.3 0
2.4 0.3 0
2.7 0.3 0
3 0.3 0
3.3 0.3 0
3.6 0.3 0
3.9 0.3 0
4.2 0.3 0
4.5 0.3 0
4.8 0.3 0
5.1 0.3 0
5.4 0.3 0
5.7 0.3 0
6 0.3 0
6.3 0.3 0
6.6 0.3 0
6.9 0.3 0
7.2 0.3 0
7.5 0.3 0
7.8 0.3 0
8.1 0.3 0
8.4 0.3 0
8.7 0.3 0
9 0.3 0
9.3 0.3 0
9.6 0.3 0
9.9 0.3 0
10.2 0.3 0
10.5 0.3 0
10.8 0.3 0
11.1 0.3 0
11.4 0.3 0
11.7 0.3 0
12 0.3 0
12.3 0.3 0
12.6 0.3 0
12.9 0.3 0
13.2 0.3 0
13.5 0.3 0
13.8 0.3 0
14.1 0.3 0
14.4 0.3 0
14.7 0.3 0
15 0.3 0
15.3 0.3 0
15.6 0.3 0
15.9 0.3 0
16.2 0.3 0
16.5 0.3 0
16.8 0.3 0
17.1 0.3 0
17.4 0.3 0
17.7 0.3 0
18 0.3 0
18.3 0.3 0
18.6 0.3 0
18.9 0.3 0
19.2 0.3 0
19.5 0.3 0
19.8 0.3 0
20.1 0.3 0
20.4 0.3 0
20.7 0.3 0
21 0.3 0
21.3 0.3 0
21.6 0.3 0
21.9 0.3 0
22.2 0.3 0
22.5 0.3 0
22.8 0.3 0
23.1 0.3 0
23.4 0.3 0
23.7 0.3 0
24 0.3 0
24.3 0.3 0
24.6 0.3 0
24.9 0.3 0
25.2 0.3 0
25.5 0.3 0
25.8 0.3 0
26.1 0.3 0
26.4 0.3 0
26.7 0.3 0
27 0.3 0
27.3 0.3 0
27.6 0.3 0
27.9 0.3 0
28.2 0.3 0
28.5 0.3 0
28.8 0.3 0
29.1 0.3 0
29.4 0.3 0
29.7 0.3 0
30 0.3 0
0 0.4 0
0.3 0.4 0
0.6 0.4 0
0.9 0.4 0
1.2 0.4 0
1.5 0.4 0
1.8 0.4 0
2.1 0.4 0
2.4 0.4 0
2.7 0.4 0
3 0.4 0
3.3 0.4 0
3.6 0.4 0
3.9 0.4 0
4.2 0.4 0
4.5 0.4 0
4.8 0.4 0
5.1 0.4 0
5.4 0.4 0
5.7 0.4 0
6 0.4 0
6.3 0.4 0
6.6 0.4 0
6.9 0.4 0
7.2 0.4 0
7.5 0.4 0
7.8 0.4 0
8.1 0.4 0
8.4 0.4 0
8.7 0.4 0
9 0.4 0
9.3 0.4 0
9.6 0.4 0
9.9 0.4 0
10.2 0.4 0
10.5 0.4 0
10.8 0.4 0
11.1 0.4 0
11.4 0.4 0
11.7 0.4 0
12 0.4 0
12.3 0.4 0
12.6 0.4 0
12.9 0.4 0
13.2 0.4 0
13.5 0.4 0
13.8 0.4 0
14.1 0.4 0
14.4 0.4 0
14.7 0.4 0
15 0.4 0
15.3 0.4 0
15.6 0.4 0
15.9 0.4 0
16.2 0.4 0
16.5 0.4 0
16.8 0.4 0
17.1 0.4 0
17.4 0.4 0
17.7 0.4 0
18 0.4 0
18.3 0.4 0
18.6 0.4 0
18.9 0.4 0
19.2 0.4 0
19.5 0.4 0
19.8 0.4 0
20.1 0.4 0
20.4 0.4 0
20.7 0.4 0
21 0.4 0
21.3 0.4 0
21.6 0.4 0
21.9 0.4 0
22.2 0.4 0
22.5 0.4 0
22.8 0.4 0
23.1 0.4 0
23.4 0.4 0
23.7 0.4 0
24 0.4 0
24.3 0.4 0
24.6 0.4 0
24.9 0.4 0
25.2 0.4 0
25.5 0.4 0
25.8 0.4 0
26.1 0.4 0
26.4 0.4 0
26.7 0.4 0
27 0.4 0
27.3 0.4 0
27.6 0.4 0
27.9 0.4 0
28.2 0.4 0
28.5 0.4 0
28.8 0.4 0
29.1 0.4 0
29.4 0.4 0
29.7 0.4 0
30 0.4 0
0 0.5 0
0.3 0.5 0
0.6 0.5 0
0.9 0.5 0
1.2 0.5 0
1.5 0.5 0
1.8 0.5 0
2.1 0.5 0
2.4 0.5 0
2.7 0.5 0
3 0.5 0
3.3 0.5 0
3.6 0.5 0
3.9 0.5 0
4.2 0.5 0
4.5 0.5 0
4.8 0.5 0
5.1 0.5 0
5.4 0.5 0
5.7 0.5 0
6 0.5 0
6.3 0.5 0
6.6 0.5 0
6.9 0.5 0
7.2 0.5 0
7.5 0.5 0
7.8 0.5 0
8.1 0.5 0
8.4 0.5 0
8.7 0.5 0
9 0.5 0
9.3 0.5 0
9.6 0.5 0
9.9 0.5 0
10.2 0.5 0
10.5 0.5 0
10.8 0.5 0
11.1 0.5 0
11.4 0.5 0
11.7 0.5 0
12 0.5 0
12.3 0.5 0
12.6 0.5 0
12.9 0.5 0
13.2 0.5 0
13.5 0.5 0
13.8 0.5 0
14.1 0.5 0
14.4 0.5 0
14.7 0.5 0
15 0.5 0
15.3 0.5 0
15.6 0.5 0
15.9 0.5 0
16.2 0.5 0
16.5 0.5 0
16.8 0.5 0
17.1 0.5 0
17.4 0.5 0
17.7 0.5 0
18 0.5 0
18.3 0.5 0
18.6 0.5 0
18.9 0.5 0
19.2 0.5 0
19.5 0.5 0
19.8 0.5 0
20.1 0.5 0
20.4 0.5 0
20.7 0.5 0
21 0.5 0
21.3 0.5 0
21.6 0.5 0
21.9 0.5 0
22.2 0.5 0
22.5 0.5 0
22.8 0.5 0
23.1 0.5 0
23.4 0.5 0
23.7 0.5 0
24 0.5 0
24.3 0.5 0
24.6 0.5 0
24.9 0.5 0
25.2 0.5 0
25.5 0.5 0
25.8 0.5 0
26.1 0.5 0
26.4 0.5 0
26.7 0.5 0
27 0.5 0
27.3 0.5 0
27.6 0.5 0
27.9 0.5 0
28.2 0.5 0
28.5 0.5 0
28.8 0.5 0
29.1 0.5 0
29.4 0.5 0
29.7 0.5 0
30 0.5 0
0 0.6 0
0.3 0.6 0
0.6 0.6 0
0.9 0.6 0
1.2 0.6 0
1.5 0.6 0
1.8 0.6 0
2.1 0.6 0
2.4 0.6 0
2.7 0.6 0
3 0.6 0
3.3 0.6 0
3.6 0.6 0
3.9 0.6 0
4.2 0.6 0
4.5 0.6 0
4.8 0.6 0
5.1 0.6 0
5.4 0.6 0
5.7 0.6 0
6 0.6 0
6.3 0.6 0
6.6 0.6 0
6.9 0.6 0
7.2 0.6 0
7.5 0.6 0
7.8 0.6 0
8.1 0.6 0
8.4 0.6 0
8.7 0.6 0
9 0.6 0
9.3 0.6 0
9.6 0.6 0
9.9 0.6 0
10.2 0.6 0
10.5 0.6 0
10.8 0.6 0
11.1 0.6 0
11.4 0.6 0
11.7 0.6 0
12 0.6 0
12.3 0.6 0
12.6 0.6 0
12.9 0.6 0
13.2 0.6 0
13.5 0.6 0
13.8 0.6 0
14.1 0.6 0
14.4 0.6 0
14.7 0.6 0
15 0.6 0
15.3 0.6 0
15.6 0.6 0
15.9 0.6 0
16.2 0.6 0
16.5 0.6 0
16.8 0.6 0
17.1 0.6 0
17.4 0.6 0
17.7 0.6 0
18 0.6 0
18.3 0.6 0
18.6 0.6 0
18.9 0.6 0
19.2 0.6 0
19.5 0.6 0
19.8 0.6 0
20.1 0.6 0
20.4 0.6 0
20.7 0.6 0
21 0.6 0
21.3 0.6 0
21.6 0.6 0
21.9 0.6 0
22.2 0.6 0
22.5 0.6 0
22.8 0.6 0
23.1 0.6 0
23.4 0.6 0
23.7 0.6 0
24 0.6 0
24.3 0.6 0
24.6 0.6 0
24.9 0.6 0
25.2 0.6 0
25.5 0.6 0
25.8 0.6 0
26.1 0.6 0
26.4 0.6 0
26.7 0.6 0
27 0.6 0
27.3 0.6 0
27.6 0.6 0
27.9 0.6 0
28.2 0.6 0
28.5 0.6 0
28.8 0.6 0
29.1 0.6 0
29.4 0.6 0
29.7 0.6 0
30 0.6 0
0 0.7 0
0.3 0.7 0
0.6 0.7 0
0.9 0.7 0
1.2 0.7 0
1.5 0.7 0
1.8 0.7 0
2.1 0.7 0
2.4 0.7 0
2.7 0.7 0
3 0.7 0
3.3 0.7 0
3.6 0.7 0
3.9 0.7 0
4.2 0.7 0
4.5 0.7 0
4.8 0.7 0
5.1 0.7 0
5.4 0.7 0
5.7 0.7 0
6 0.7 0
6.3 0.7 0
6.6 0.7 0
6.9 0.7 0
7.2 0.7 0
7.5 0.7 0
7.8 0.7 0
8.1 0.7 0
8.4 0.7 0
8.7 0.7 0
9 0.7 0
9.3 0.7 0
9.6 0.7 0
9.9 0.7 0
10.2 0.7 0
10.5 0.7 0
10.8 0.7 0
11.1 0.7 0
11.4 0.7 0
11.7 0.7 0
12 0.7 0
12.3 0.7 0
12.6 0.7 0
12.9 0.7 0
13.2 0.7 0
13.5 0.7 0
13.8 0.7 0
14.1 0.7 0
14.4 0.7 0
14.7 0.7 0
15 0.7 0
15.3 0.7 0
15.6 0.7 0
15.9 0.7 0
16.2 0.7 0
16.5 0.7 0
16.8 0.7 0
17.1 0.7 0
17.4 0.7 0
17.7 0.7 0
18 0.7 0
18.3 0.7 0
18.6 0.7 0
18.9 0.7 0
19.2 0.7 0
19.5 0.7 0
19.8 0.7 0
20.1 0.7 0
20.4 0.7 0
20.7 0.7 0
21 0.7 0
21.3 0.7 0
21.6 0.7 0
21.9 0.7 0
22.2 0.7 0
22.5 0.7 0
22.8 0.7 0
23.1 0.7 0
23.4 0.7 0
23.7 0.7 0
24 0.7 0
24.3 0.7 0
24.6 0.7 0
24.9 0.7 0
25.2 0.7 0
25.5 0.7 0
25.8 0.7 0
26.1 0.7 0
26.4 0.7 0
26.7 0.7 0
27 0.7 0
27.3 0.7 0
27.6 0.7 0
27.9 0.7 0
28.2 0.7 0
28.5 0.7 0
28.8 0.7 0
29.1 0.7 0
29.4 0.7 0
29.7 0.7 0
30 0.7 0
0 0.8 0
0.3 0.8 0
0.6 0.8 0
0.9 0.8 0
1.2 0.8 0
1.5 0.8 0
1.8 0.8 0
2.1 0.8 0
2.4 0.8 0
2.7 0.8 0
3 0.8 0
3.3 0.8 0
3.6 0.8 0
3.9 0.8 0
4.2 0.8 0
4.5 0.8 0
4.8 0.8 0
5.1 0.8 0
5.4 0.8 0
5.7 0.8 0
6 0.8 0
6.3 0.8 0
6.6 0.8 0
6.9 0.8 0
7.2 0.8 0
7.5 0.8 0
7.8 0.8 0
8.1 0.8 0
8.4 0.8 0
8.7 0.8 0
9 0.8 0
9.3 0.8 0
9.6 0.8 0
9.9 0.8 0
10.2 0.8 0
10.5 0.8 0
10.8 0.8 0
11.1 0.8 0
11.4 0.8 0
11.7 0.8 0
12 0.8 0
12.3 0.8 0
12.6 0.8 0
12.9 0.8 0
13.2 0.8 0
13.5 0.8 0
13.8 0.8 0
14.1 0.8 0
14.4 0.8 0
14.7 0.8 0
15 0.8 0
15.3 0.8 0
15.6 0.8 0
15.9 0.8 0
16.2 0.8 0
16.5 0.8 0
16.8 0.8 0
17.1 0.8 0
17.4 0.8 0
17.7 0.8 0
18 0.8 0
18.3 0.8 0
18.6 0.8 0
18.9 0.8 0
19.2 0.8 0
19.5 0.8 0
19.8 0.8 0
20.1 0.8 0
20.4 0.8 0
20.7 0.8 0
21 0.8 0
21.3 0.8 0
21.6 0.8 0
21.9 0.8 0
22.2 0.8 0
22.5 0.8 0
22.8 0.8 0
23.1 0.8 0
23.4 0.8 0
23.7 0.8 0
24 0.8 0
24.3 0.8 0
24.6 0.8 0
24.9 0.8 0
25.2 0.8 0
25.5 0.8 0
25.8 0.8 0
26.1 0.8 0
26.4 0.8 0
26.7 0.8 0
27 0.8 0
27.3 0.8 0
27.6 0.8 0
27.9 0.8 0
28.2 0.8 0
28.5 0.8 0
28.8 0.8 0
29.1 0.8 0
29.4 0.8 0
29.7 0.8 0
30 0.8 0
0 0.9 0
0.3 0.9 0
0.6 0.9 0
0.9 0.9 0
1.2 0.9 0
1.5 0.9 0
1.8 0.9 0
2.1 0.9 0
2.4 0.9 0
2.7 0.9 0
3 0.9 0
3.3 0.9 0
3.6 0.9 0
3.9 0.9 0
4.2 0.9 0
4.5 0.9 0
4.8 0.9 0
5.1 0.9 0
5.4 0.9 0
5.7 0.9 0
6 0.9 0
6.3 0.9 0
6.6 0.9 0
6.9 0.9 0
7.2 0.9 0
7.5 0.9 0
7.8 0.9 0
8.1 0.9 0
8.4 0.9 0
8.7 0.9 0
9 0.9 0
9.3 0.9 0
9.6 0.9 0
9.9 0.9 0
10.2 0.9 0
10.5 0.9 0
10.8 0.9 0
11.1 0.9 0
11.4 0.9 0
11.7 0.9 0
12 0.9 0
12.3 0.9 0
12.6 0.9 0
12.9 0.9 0
13.2 0.9 0
13.5 0.9 0
13.8 0.9 0
14.1 0.9 0
14.4 0.9 0
14.7 0.9 0
15 0.9 0
15.3 0.9 0
15.6 0.9 0
15.9 0.9 0
16.2 0.9 0
16.5 0.9 0
16.8 0.9 0
17.1 0.9 0
17.4 0.9 0
17.7 0.9 0
18 0.9 0
18.3 0.9 0
18.6 0.9 0
18.9 0.9 0
19.2 0.9 0
19.5 0.9 0
19.8 0.9 0
20.1 0.9 0
20.4 0.9 0
20.7 0.9 0
21 0.9 0
21.3 0.9 0
21.6 0.9 0
21.9 0.9 0
22.2 0.9 0
22.5 0.9 0
22.8 0.9 0
23.1 0.9 0
23.4 0.9 0
23.7 0.9 0
24 0.9 0
24.3 0.9 0
24.6 0.9 0
24.9 0.9 0
25.2 0.9 0
25.5 0.9 0
25.8 0.9 0
26.1 0.9 0
26.4 0.9 0
26.7 0.9 0
27 0.9 0
27.3 0.9 0
27.6 0.9 0
27.9 0.9 0
28.2 0.9 0
28.5 0.9 0
28.8 0.9 0
29.1 0.9 0
29.4 0.9 0
29.7 0.9 0
30 0.9 0
0 1 0
0.3 1 0
0.6 1 0
0.9 1 0
1.2 1 0
1.5 1 0
1.8 1 0
2.1 1 0
2.4 1 0
2.7 1 0
3 1 0
3.3 1 0
3.6 1 0
3.9 1 0
4.2 1 0
4.5 1 0
4.8 1 0
5.1 1 0
5.4 1 0
5.7 1 0
6 1 0
6.3 1 0
6.6 1 0
6.9 1 0
7.2 1 0
7.5 1 0
7.8 1 0
8.1 1 0
8.4 1 0
8.7 1 0
9 1 0
9.3 1 0
9.6 1 0
9.9 1 0
10.2 1 0
10.5 1 0
10.8 1 0
11.1 1 0
11.4 1 0
11.7 1 0
12 1 0
12.3 1 0
12.6 1 0
12.9 1 0
13.2 1 0
13.5 1 0
13.8 1 0
14.1 1 0
14.4 1 0
14.7 1 0
15 1 0
15.3 1 0
15.6 1 0
15.9 1 0
16.2 1 0
16.5 1 0
16.8 1 0
17.1 1 0
17.4 1 0
17.7 1 0
18 1 0
18.3 1 0
18.6 1 0
18.9 1 0
19.2 1 0
19.5 1 0
19.8 1 0
20.1 1 0
20.4 1 0
20.7 1 0
21 1 0
21.3 1 0
21.6 1 0
21.9 1 0
22.2 1 0
22.5 1 0
22.8 1 0
23.1 1 0
23.4 1 0
23.7 1 0
24 1 0
24.3 1 0
24.6 1 0
24.9 1 0
25.2 1 0
25.5 1 0
25.8 1 0
26.1 1 0
26.4 1 0
26.7 1 0
27 1 0
27.3 1 0
27.6 1 0
27.9 1 0
28.2 1 0
28.5 1 0
28.8 1 0
29.1 1 0
29.4 1 0
29.7 1 0
30 1 0

POINT_DATA 1111

SCALARS u double
LOOKUP_TABLE default
-1
-0.892043
-0.781757
-0.688942
-0.61456
-0.556457
-0.511785
-0.477708
-0.451723
-0.431826
-0.416542
-0.404845
-0.396014
-0.389507
-0.384871
-0.381703
-0.379644
-0.378381
-0.377656
-0.377272
-0.377088
-0.377011
-0.376984
-0.37698
-0.376981
-0.376984
-0.376986
-0.376988
-0.376989
-0.376989
-0.376989
-0.376989
-0.37699
-0.37699
-0.37699
-0.37699
-0.37699
-0.37699
-0.37699
-0.37699
-0.37699
-0.37699
-0.37699
-0.37699
-0.37699
-0.37699
-0.37699
-0.37699
-0.37699
-0.37699
-0.37699
-0.37699
-0.37699
-0.37699
-0.37699
-0.37699
-0.37699
-0.37699
-0.37699
-0.37699
-0.37699
-0.37699
-0.37699
-0.37699
-0.37699
-0.37699
-0.37699
-0.37699
-0.37699
-0.37699
-0.37699
-0.37699
-0.37699
-0.37699
-0.37699
-0.37699
-0.37699
-0.37699
-0.37699
-0.37699
-0.37699
-0.37699
-0.37699
-0.37699
-0.37699
-0.37699
-0.37699
-0.37699
-0.37699
-0.37699
-0.37699
-0.37699
-0.376991
-0.376991
-0.376991
-0.376992
-0.377004
-0.377016
-0.377115
-0.377115
-1
1
0.892043
0.781757
0.688942
0.61456
0.556457
0.511785
0.477708
0.451723
0.431826
0.416542
0.404845
0.396014
0.389507
0.384871
0.381703
0.379644
0.378381
0.377656
0.377272
0.377088
0.377011
0.376984
0.37698
0.376981
0.376984
0.376986
0.376988
0.376989
0.376989
0.376989
0.376989
0.37699
0.37699
0.37699
0.37699
0.37699
0.37699
0.37699
0.37699
0.37699
0.37699
0.37699
0.37699
0.37699
0.37699
0.37699
0.37699
0.37699
0.37699
0.37699
0.37699
0.37699
0.37699
0.37699
0.37699
0.37699
0.37699
0.37699
0.37699
0.37699
0.37699
0.37699
0.37699
0.37699
0.37699
0.37699
0.37699
0.37699
0.37699
0.37699
0.37699
0.37699
0.37699
0.37699
0.37699
0.37699
0.37699
0.37699
0.37699
0.37699
0.37699
0.37699
0.37699
0.37699
0.37699
0.37699
0.37699
0.37699
0.37699
0.37699
0.37699
0.376991
0.376991
0.376991
0.376992
0.377004
0.377016
0.377115
0.377115
1
1
1.03004
1.03872
1.03588
1.02713
1.01543
1.00248
0.989256
0.976348
0.964111
0.952808
0.942661
0.933867
0.926566
0.920802
0.916501
0.913486
0.911512
0.910312
0.909641
0.909301
0.90915
0.909094
0.909082
0.909085
0.909091
0.909096
0.9091
0.909102
0.909103
0.909103
0.909104
0.909104
0.909104
0.909104
0.909104
0.909104
0.909104
0.909104
0.909104
0.909104
0.909104
0.909104
0.909104
0.909104
0.909104
0.909104
0.909104
0.909104
0.909104
0.909104
0.909104
0.909105
0.909105
0.909105
0.909105
0.909105
0.909105
0.909105
0.909105
0.909105
0.909105
0.909105
0.909105
0.909105
0.909105
0.909105
0.909105
0.909105
0.909105
0.909105
0.909105
0.909105
0.909105
0.909105
0.909105
0.909105
0.909105
0.909105
0.909105
0.909105
0.909105
0.909105
0.909105
0.909105
0.909105
0.909105
0.909105
0.909105
0.909105
0.909105
0.909105
0.909105
0.909105
0.909106
0.909105
0.909115
0.909103
0.909295
0.909295
1
1
1.03528
1.07404
1.1071
1.13349
1.15381
1.16904
1.18024
1.18833
1.19408
1.19806
1.20071
1.20237
1.20329
1.20371
1.20381
1.20374
1.20361
1.20346
1.20334
1.20325
1.2032
1.20317
1.20316
1.20315
1.20315
1.20315
1.20315
1.20315
1.20315
1.20316
1.20316
1.20316
1.20316
1.20316
1.20316
1.20316
1.20316
1.20316
1.20316
1.20316
1.20316
1.20316
1.20316
1.20316
1.20316
1.20316
1.20316
1.20316
1.20316
1.20316
1.20316
1.20316
1.20316
1.20316
1.20316
1.20316
1.20316
1.20316
1.20316
1.20316
1.20316
1.20316
1.20316
1.20316
1.20316
1.20316
1.20316
1.20316
1.20316
1.20316
1.20316
1.20316
1.20316
1.20316
1.20316
1.20316
1.20316
1.20316
1.20316
1.20316
1.20316
1.20316
1.20316
1.20316
1.20316
1.20316
1.20316
1.20316
1.20316
1.20316
1.20316
1.20316
1.20316
1.20316
1.20316
1.20315
1.20315
1.20316
1.20316
1
1
1.02921
1.07124
1.11265
1.14986
1.18204
1.20937
1.23242
1.25191
1.26844
1.28247
1.29427
1.30401
1.3118
1.31778
1.32217
1.3252
1.32717
1.32837
1.32904
1.32938
1.32954
1.3296
1.32961
1.32961
1.3296
1.3296
1.32959
1.32959
1.32959
1.32959
1.32959
1.32959
1.32959
1.32959
1.32959
1.32959
1.32959
1.32959
1.32959
1.32959
1.32959
1.32959
1.32959
1.32959
1.32959
1.32959
1.32959
1.32959
1.32959
1.32959
1.32959
1.32959
1.32959
1.32959
1.32959
1.32959
1.32959
1.32959
1.32959
1.32959
1.32959
1.32959
1.32959
1.32959
1.32959
1.32959
1.32959
1.32959
1.32959
1.32959
1.32959
1.32959
1.32959
1.32959
1.32959
1.32959
1.32959
1.32959
1.32959
1.32959
1.32959
1.32959
1.32959
1.32959
1.32959
1.32959
1.32959
1.32959
1.32959
1.32959
1.32959
1.32959
1.32959
1.32959
1.32959
1.32958
1.32958
1.3294
1.3294
1
1
1.02685
1.06849
1.11086
1.14991
1.18452
1.21466
1.24076
1.26339
1.2831
1.30025
1.31503
1.32749
1.33768
1.34567
1.35164
1.35585
1.35866
1.36041
1.36141
1.36195
1.36221
1.36231
1.36235
1.36236
1.36235
1.36235
1.36234
1.36234
1.36233
1.36233
1.36233
1.36233
1.36233
1.36233
1.36233
1.36233
1.36233
1.36233
1.36233
1.36233
1.36233
1.36233
1.36233
1.36233
1.36233
1.36233
1.36233
1.36233
1.36233
1.36233
1.36233
1.36233
1.36233
1.36233
1.36233
1.36233
1.36233
1.36233
1.36233
1.36233
1.36233
1.36233
1.36233
1.36233
1.36233
1.36233
1.36233
1.36233
1.36233
1.36233
1.36233
1.36233
1.36233
1.36233
1.36233
1.36233
1.36233
1.36233
1.36233
1.36233
1.36233
1.36233
1.36233
1.36233
1.36233
1.36233
1.36233
1.36233
1.36233
1.36233
1.36233
1.36233
1.36233
1.36233
1.36233
1.36232
1.36232
1.36208
1.36208
1
1
1.02921
1.07124
1.11265
1.14986
1.18204
1.20937
1.23242
1.25191
1.26844
1.28247
1.29427
1.30401
1.3118
1.31778
1.32217
1.3252
1.32717
1.32837
1.32904
1.32938
1.32954
1.3296
1.32961
1.32961
1.3296
1.3296
1.32959
1.32959
1.32959
1.32959
1.32959
1.32959
1.32959
1.32959
1.32959
1.32959
1.32959
1.32959
1.32959
1.32959
1.32959
1.32959
1.32959
1.32959
1.32959
1.32959
1.32959
1.32959
1.32959
1.32959
1.32959
1.32959
1.32959
1.32959
1.32959
1.32959
1.32959
1.32959
1.32959
1.32959
1.32959
1.32959
1.32959
1.32959
1.32959
1.32959
1.32959
1.32959
1.32959
1.32959
1.32959
1.32959
1.32959
1.32959
1.32959
1.32959
1.32959
1.32959
1.32959
1.32959
1.32959
1.32959
1.32959
1.32959
1.32959
1.32959
1.32959
1.32959
1.32959
1.32959
1.32959
1.32959
1.32959
1.32959
1.32959
1.32958
1.32958
1.3294
1.3294
1
1
1.03528
1.07404
1.1071
1.13349
1.15381
1.16904
1.18024
1.18833
1.19408
1.19806
1.20071
1.20237
1.20329
1.20371
1.20381
1.20374
1.20361
1.20346
1.20334
1.20325
1.2032
1.20317
1.20316
1.20315
1.20315
1.20315
1.20315
1.20315
1.20315
1.20315
1.20316
1.20316
1.20316
1.20316
1.20316
1.20316
1.20316
1.20316
1.20316
1.20316
1.20316
1.20316
1.20316
1.20316
1.20316
1.20316
1.20316
1.20316
1.20316
1.20316
1.20316
1.20316
1.20316
1.20316
1.20316
1.20316
1.20316
1.20316
1.20316
1.20316
1.20316
1.20316
1.20316
1.20316
1.20316
1.20316
1.20316
1.20316
1.20316
1.20316
1.20316
1.20316
1.20316
1.20316
1.20316
1.20316
1.20316
1.20316
1.20316
1.20316
1.20316
1.20316
1.20316
1.20316
1.20316
1.20316
1.20316
1.20316
1.20316
1.20316
1.20316
1.20316
1.20316
1.20316
1.20316
1.20315
1.20315
1.20315
1.20315
1
1
1.03004
1.03872
1.03588
1.02713
1.01543
1.00248
0.989257
0.976348
0.964112
0.952808
0.942661
0.933868
0.926566
0.920802
0.916501
0.913486
0.911512
0.910312
0.909641
0.909301
0.90915
0.909094
0.909082
0.909085
0.909091
0.909096
0.909099
0.909101
0.909102
0.909103
0.909103
0.909103
0.909103
0.909104
0.909104
0.909104
0.909104
0.909104
0.909104
0.909104
0.909104
0.909104
0.909104
0.909104
0.909104
0.909104
0.909104
0.909104
0.909104
0.909104
0.909104
0.909104
0.909104
0.909104
0.909104
0.909104
0.909104
0.909104
0.909104
0.909104
0.909104
0.909104
0.909104
0.909104
0.909104
0.909104
0.909104
0.909104
0.909104
0.909104
0.909104
0.909104
0.909104
0.909104
0.909104
0.909104
0.909104
0.909104
0.909104
0.909104
0.909104
0.909104
0.909104
0.909104
0.909104
0.909104
0.909104
0.909104
0.909104
0.909104
0.909104
0.909104
0.909104
0.909105
0.909104
0.909114
0.909103
0.909294
0.909294
1
1
0.892043
0.781757
0.688942
0.614561
0.556457
0.511786
0.477709
0.451723
0.431826
0.416542
0.404845
0.396014
0.389507
0.384871
0.381703
0.379644
0.378381
0.377656
0.377272
0.377088
0.377011
0.376985
0.37698
0.376981
0.376984
0.376986
0.376988
0.376989
0.376989
0.376989
0.37699
0.37699
0.37699
0.37699
0.37699
0.37699
0.37699
0.37699
0.37699
0.37699
0.37699
0.37699
0.37699
0.37699
0.37699
0.37699
0.37699
0.37699
0.37699
0.37699
0.37699
0.37699
0.37699
0.37699
0.37699
0.37699
0.37699
0.37699
0.37699
0.37699
0.37699
0.37699
0.37699
0.37699
0.37699
0.37699
0.37699
0.37699
0.37699
0.37699
0.37699
0.37699
0.37699
0.37699
0.37699
0.37699
0.37699
0.37699
0.37699
0.37699
0.37699
0.37699
0.37699
0.37699
0.37699
0.37699
0.37699
0.37699
0.37699
0.37699
0.37699
0.37699
0.37699
0.376991
0.376991
0.377003
0.377016
0.377114
0.377114
1
-1
-0.892043
-0.781757
-0.688942
-0.614561
-0.556457
-0.511786
-0.477709
-0.451723
-0.431826
-0.416542
-0.404845
-0.396014
-0.389507
-0.384871
-0.381703
-0.379644
-0.378381
-0.377656
-0.377272
-0.377088
-0.377011
-0.376985
-0.37698
-0.376981
-0.376984
-0.376986
-0.376988
-0.376989
-0.376989
-0.376989
-0.37699
-0.37699
-0.37699
-0.37699
-0.37699
-0.37699
-0.37699
-0.37699
-0.37699
-0.37699
-0.37699
-0.37699
-0.37699
-0.37699
-0.37699
-0.37699
-0.37699
-0.37699
-0.37699
-0.37699
-0.37699
-0.37699
-0.37699
-0.37699
-0.37699
-0.37699
-0.37699
-0.37699
-0.37699
-0.37699
-0.37699
-0.37699
-0.37699
-0.37699
-0.37699
-0.37699
-0.37699
-0.37699
-0.37699
-0.37699
-0.37699
-0.37699
-0.37699
-0.37699
-0.37699
-0.37699
-0.37699
-0.37699
-0.37699
-0.37699
-0.37699
-0.37699
-0.37699
-0.37699
-0.37699
-0.37699
-0.37699
-0.37699
-0.37699
-0.37699
-0.37699
-0.37699
-0.37699
-0.376991
-0.376991
-0.377003
-0.377016
-0.377114
-0.377114
-1
