# vtk DataFile Version 2.0
FlowField
ASCII
DATASET STRUCTURED_GRID
DIMENSIONS 102 1 12 
POINTS 1224 double
0 0 0
0.4 0 0
0.8 0 0
1.2 0 0
1.6 0 0
2 0 0
2.4 0 0
2.8 0 0
3.2 0 0
3.6 0 0
4 0 0
4.4 0 0
4.8 0 0
5.2 0 0
5.6 0 0
6 0 0
6.4 0 0
6.8 0 0
7.2 0 0
7.6 0 0
8 0 0
8.4 0 0
8.8 0 0
9.2 0 0
9.6 0 0
10 0 0
10.4 0 0
10.8 0 0
11.2 0 0
11.6 0 0
12 0 0
12.4 0 0
12.8 0 0
13.2 0 0
13.6 0 0
14 0 0
14.4 0 0
14.8 0 0
15.2 0 0
15.6 0 0
16 0 0
16.4 0 0
16.8 0 0
17.2 0 0
17.6 0 0
18 0 0
18.4 0 0
18.8 0 0
19.2 0 0
19.6 0 0
20 0 0
20.4 0 0
20.8 0 0
21.2 0 0
21.6 0 0
22 0 0
22.4 0 0
22.8 0 0
23.2 0 0
23.6 0 0
24 0 0
24.4 0 0
24.8 0 0
25.2 0 0
25.6 0 0
26 0 0
26.4 0 0
26.8 0 0
27.2 0 0
27.6 0 0
28 0 0
28.4 0 0
28.8 0 0
29.2 0 0
29.6 0 0
30 0 0
30.4 0 0
30.8 0 0
31.2 0 0
31.6 0 0
32 0 0
32.4 0 0
32.8 0 0
33.2 0 0
33.6 0 0
34 0 0
34.4 0 0
34.8 0 0
35.2 0 0
35.6 0 0
36 0 0
36.4 0 0
36.8 0 0
37.2 0 0
37.6 0 0
38 0 0
38.4 0 0
38.8 0 0
39.2 0 0
39.6 0 0
40 0 0
40.4 0 0
0 0.1 0
0.4 0.1 0
0.8 0.1 0
1.2 0.1 0
1.6 0.1 0
2 0.1 0
2.4 0.1 0
2.8 0.1 0
3.2 0.1 0
3.6 0.1 0
4 0.1 0
4.4 0.1 0
4.8 0.1 0
5.2 0.1 0
5.6 0.1 0
6 0.1 0
6.4 0.1 0
6.8 0.1 0
7.2 0.1 0
7.6 0.1 0
8 0.1 0
8.4 0.1 0
8.8 0.1 0
9.2 0.1 0
9.6 0.1 0
10 0.1 0
10.4 0.1 0
10.8 0.1 0
11.2 0.1 0
11.6 0.1 0
12 0.1 0
12.4 0.1 0
12.8 0.1 0
13.2 0.1 0
13.6 0.1 0
14 0.1 0
14.4 0.1 0
14.8 0.1 0
15.2 0.1 0
15.6 0.1 0
16 0.1 0
16.4 0.1 0
16.8 0.1 0
17.2 0.1 0
17.6 0.1 0
18 0.1 0
18.4 0.1 0
18.8 0.1 0
19.2 0.1 0
19.6 0.1 0
20 0.1 0
20.4 0.1 0
20.8 0.1 0
21.2 0.1 0
21.6 0.1 0
22 0.1 0
22.4 0.1 0
22.8 0.1 0
23.2 0.1 0
23.6 0.1 0
24 0.1 0
24.4 0.1 0
24.8 0.1 0
25.2 0.1 0
25.6 0.1 0
26 0.1 0
26.4 0.1 0
26.8 0.1 0
27.2 0.1 0
27.6 0.1 0
28 0.1 0
28.4 0.1 0
28.8 0.1 0
29.2 0.1 0
29.6 0.1 0
30 0.1 0
30.4 0.1 0
30.8 0.1 0
31.2 0.1 0
31.6 0.1 0
32 0.1 0
32.4 0.1 0
32.8 0.1 0
33.2 0.1 0
33.6 0.1 0
34 0.1 0
34.4 0.1 0
34.8 0.1 0
35.2 0.1 0
35.6 0.1 0
36 0.1 0
36.4 0.1 0
36.8 0.1 0
37.2 0.1 0
37.6 0.1 0
38 0.1 0
38.4 0.1 0
38.8 0.1 0
39.2 0.1 0
39.6 0.1 0
40 0.1 0
40.4 0.1 0
0 0.2 0
0.4 0.2 0
0.8 0.2 0
1.2 0.2 0
1.6 0.2 0
2 0.2 0
2.4 0.2 0
2.8 0.2 0
3.2 0.2 0
3.6 0.2 0
4 0.2 0
4.4 0.2 0
4.8 0.2 0
5.2 0.2 0
5.6 0.2 0
6 0.2 0
6.4 0.2 0
6.8 0.2 0
7.2 0.2 0
7.6 0.2 0
8 0.2 0
8.4 0.2 0
8.8 0.2 0
9.2 0.2 0
9.6 0.2 0
10 0.2 0
10.4 0.2 0
10.8 0.2 0
11.2 0.2 0
11.6 0.2 0
12 0.2 0
12.4 0.2 0
12.8 0.2 0
13.2 0.2 0
13.6 0.2 0
14 0.2 0
14.4 0.2 0
14.8 0.2 0
15.2 0.2 0
15.6 0.2 0
16 0.2 0
16.4 0.2 0
16.8 0.2 0
17.2 0.2 0
17.6 0.2 0
18 0.2 0
18.4 0.2 0
18.8 0.2 0
19.2 0.2 0
19.6 0.2 0
20 0.2 0
20.4 0.2 0
20.8 0.2 0
21.2 0.2 0
21.6 0.2 0
22 0.2 0
22.4 0.2 0
22.8 0.2 0
23.2 0.2 0
23.6 0.2 0
24 0.2 0
24.4 0.2 0
24.8 0.2 0
25.2 0.2 0
25.6 0.2 0
26 0.2 0
26.4 0.2 0
26.8 0.2 0
27.2 0.2 0
27.6 0.2 0
28 0.2 0
28.4 0.2 0
28.8 0.2 0
29.2 0.2 0
29.6 0.2 0
30 0.2 0
30.4 0.2 0
30.8 0.2 0
31.2 0.2 0
31.6 0.2 0
32 0.2 0
32.4 0.2 0
32.8 0.2 0
33.2 0.2 0
33.6 0.2 0
34 0.2 0
34.4 0.2 0
34.8 0.2 0
35.2 0.2 0
35.6 0.2 0
36 0.2 0
36.4 0.2 0
36.8 0.2 0
37.2 0.2 0
37.6 0.2 0
38 0.2 0
38.4 0.2 0
38.8 0.2 0
39.2 0.2 0
39.6 0.2 0
40 0.2 0
40.4 0.2 0
0 0.3 0
0.4 0.3 0
0.8 0.3 0
1.2 0.3 0
1.6 0.3 0
2 0.3 0
2.4 0.3 0
2.8 0.3 0
3.2 0.3 0
3.6 0.3 0
4 0.3 0
4.4 0.3 0
4.8 0.3 0
5.2 0.3 0
5.6 0.3 0
6 0.3 0
6.4 0.3 0
6.8 0.3 0
7.2 0.3 0
7.6 0.3 0
8 0.3 0
8.4 0.3 0
8.8 0.3 0
9.2 0.3 0
9.6 0.3 0
10 0.3 0
10.4 0.3 0
10.8 0.3 0
11.2 0.3 0
11.6 0.3 0
12 0.3 0
12.4 0.3 0
12.8 0.3 0
13.2 0.3 0
13.6 0.3 0
14 0.3 0
14.4 0.3 0
14.8 0.3 0
15.2 0.3 0
15.6 0.3 0
16 0.3 0
16.4 0.3 0
16.8 0.3 0
17.2 0.3 0
17.6 0.3 0
18 0.3 0
18.4 0.3 0
18.8 0.3 0
19.2 0.3 0
19.6 0.3 0
20 0.3 0
20.4 0.3 0
20.8 0.3 0
21.2 0.3 0
21.6 0.3 0
22 0.3 0
22.4 0.3 0
22.8 0.3 0
23.2 0.3 0
23.6 0.3 0
24 0.3 0
24.4 0.3 0
24.8 0.3 0
25.2 0.3 0
25.6 0.3 0
26 0.3 0
26.4 0.3 0
26.8 0.3 0
27.2 0.3 0
27.6 0.3 0
28 0.3 0
28.4 0.3 0
28.8 0.3 0
29.2 0.3 0
29.6 0.3 0
30 0.3 0
30.4 0.3 0
30.8 0.3 0
31.2 0.3 0
31.6 0.3 0
32 0.3 0
32.4 0.3 0
32.8 0.3 0
33.2 0.3 0
33.6 0.3 0
34 0.3 0
34.4 0.3 0
34.8 0.3 0
35.2 0.3 0
35.6 0.3 0
36 0.3 0
36.4 0.3 0
36.8 0.3 0
37.2 0.3 0
37.6 0.3 0
38 0.3 0
38.4 0.3 0
38.8 0.3 0
39.2 0.3 0
39.6 0.3 0
40 0.3 0
40.4 0.3 0
0 0.4 0
0.4 0.4 0
0.8 0.4 0
1.2 0.4 0
1.6 0.4 0
2 0.4 0
2.4 0.4 0
2.8 0.4 0
3.2 0.4 0
3.6 0.4 0
4 0.4 0
4.4 0.4 0
4.8 0.4 0
5.2 0.4 0
5.6 0.4 0
6 0.4 0
6.4 0.4 0
6.8 0.4 0
7.2 0.4 0
7.6 0.4 0
8 0.4 0
8.4 0.4 0
8.8 0.4 0
9.2 0.4 0
9.6 0.4 0
10 0.4 0
10.4 0.4 0
10.8 0.4 0
11.2 0.4 0
11.6 0.4 0
12 0.4 0
12.4 0.4 0
12.8 0.4 0
13.2 0.4 0
13.6 0.4 0
14 0.4 0
14.4 0.4 0
14.8 0.4 0
15.2 0.4 0
15.6 0.4 0
16 0.4 0
16.4 0.4 0
16.8 0.4 0
17.2 0.4 0
17.6 0.4 0
18 0.4 0
18.4 0.4 0
18.8 0.4 0
19.2 0.4 0
19.6 0.4 0
20 0.4 0
20.4 0.4 0
20.8 0.4 0
21.2 0.4 0
21.6 0.4 0
22 0.4 0
22.4 0.4 0
22.8 0.4 0
23.2 0.4 0
23.6 0.4 0
24 0.4 0
24.4 0.4 0
24.8 0.4 0
25.2 0.4 0
25.6 0.4 0
26 0.4 0
26.4 0.4 0
26.8 0.4 0
27.2 0.4 0
27.6 0.4 0
28 0.4 0
28.4 0.4 0
28.8 0.4 0
29.2 0.4 0
29.6 0.4 0
30 0.4 0
30.4 0.4 0
30.8 0.4 0
31.2 0.4 0
31.6 0.4 0
32 0.4 0
32.4 0.4 0
32.8 0.4 0
33.2 0.4 0
33.6 0.4 0
34 0.4 0
34.4 0.4 0
34.8 0.4 0
35.2 0.4 0
35.6 0.4 0
36 0.4 0
36.4 0.4 0
36.8 0.4 0
37.2 0.4 0
37.6 0.4 0
38 0.4 0
38.4 0.4 0
38.8 0.4 0
39.2 0.4 0
39.6 0.4 0
40 0.4 0
40.4 0.4 0
0 0.5 0
0.4 0.5 0
0.8 0.5 0
1.2 0.5 0
1.6 0.5 0
2 0.5 0
2.4 0.5 0
2.8 0.5 0
3.2 0.5 0
3.6 0.5 0
4 0.5 0
4.4 0.5 0
4.8 0.5 0
5.2 0.5 0
5.6 0.5 0
6 0.5 0
6.4 0.5 0
6.8 0.5 0
7.2 0.5 0
7.6 0.5 0
8 0.5 0
8.4 0.5 0
8.8 0.5 0
9.2 0.5 0
9.6 0.5 0
10 0.5 0
10.4 0.5 0
10.8 0.5 0
11.2 0.5 0
11.6 0.5 0
12 0.5 0
12.4 0.5 0
12.8 0.5 0
13.2 0.5 0
13.6 0.5 0
14 0.5 0
14.4 0.5 0
14.8 0.5 0
15.2 0.5 0
15.6 0.5 0
16 0.5 0
16.4 0.5 0
16.8 0.5 0
17.2 0.5 0
17.6 0.5 0
18 0.5 0
18.4 0.5 0
18.8 0.5 0
19.2 0.5 0
19.6 0.5 0
20 0.5 0
20.4 0.5 0
20.8 0.5 0
21.2 0.5 0
21.6 0.5 0
22 0.5 0
22.4 0.5 0
22.8 0.5 0
23.2 0.5 0
23.6 0.5 0
24 0.5 0
24.4 0.5 0
24.8 0.5 0
25.2 0.5 0
25.6 0.5 0
26 0.5 0
26.4 0.5 0
26.8 0.5 0
27.2 0.5 0
27.6 0.5 0
28 0.5 0
28.4 0.5 0
28.8 0.5 0
29.2 0.5 0
29.6 0.5 0
30 0.5 0
30.4 0.5 0
30.8 0.5 0
31.2 0.5 0
31.6 0.5 0
32 0.5 0
32.4 0.5 0
32.8 0.5 0
33.2 0.5 0
33.6 0.5 0
34 0.5 0
34.4 0.5 0
34.8 0.5 0
35.2 0.5 0
35.6 0.5 0
36 0.5 0
36.4 0.5 0
36.8 0.5 0
37.2 0.5 0
37.6 0.5 0
38 0.5 0
38.4 0.5 0
38.8 0.5 0
39.2 0.5 0
39.6 0.5 0
40 0.5 0
40.4 0.5 0
0 0.6 0
0.4 0.6 0
0.8 0.6 0
1.2 0.6 0
1.6 0.6 0
2 0.6 0
2.4 0.6 0
2.8 0.6 0
3.2 0.6 0
3.6 0.6 0
4 0.6 0
4.4 0.6 0
4.8 0.6 0
5.2 0.6 0
5.6 0.6 0
6 0.6 0
6.4 0.6 0
6.8 0.6 0
7.2 0.6 0
7.6 0.6 0
8 0.6 0
8.4 0.6 0
8.8 0.6 0
9.2 0.6 0
9.6 0.6 0
10 0.6 0
10.4 0.6 0
10.8 0.6 0
11.2 0.6 0
11.6 0.6 0
12 0.6 0
12.4 0.6 0
12.8 0.6 0
13.2 0.6 0
13.6 0.6 0
14 0.6 0
14.4 0.6 0
14.8 0.6 0
15.2 0.6 0
15.6 0.6 0
16 0.6 0
16.4 0.6 0
16.8 0.6 0
17.2 0.6 0
17.6 0.6 0
18 0.6 0
18.4 0.6 0
18.8 0.6 0
19.2 0.6 0
19.6 0.6 0
20 0.6 0
20.4 0.6 0
20.8 0.6 0
21.2 0.6 0
21.6 0.6 0
22 0.6 0
22.4 0.6 0
22.8 0.6 0
23.2 0.6 0
23.6 0.6 0
24 0.6 0
24.4 0.6 0
24.8 0.6 0
25.2 0.6 0
25.6 0.6 0
26 0.6 0
26.4 0.6 0
26.8 0.6 0
27.2 0.6 0
27.6 0.6 0
28 0.6 0
28.4 0.6 0
28.8 0.6 0
29.2 0.6 0
29.6 0.6 0
30 0.6 0
30.4 0.6 0
30.8 0.6 0
31.2 0.6 0
31.6 0.6 0
32 0.6 0
32.4 0.6 0
32.8 0.6 0
33.2 0.6 0
33.6 0.6 0
34 0.6 0
34.4 0.6 0
34.8 0.6 0
35.2 0.6 0
35.6 0.6 0
36 0.6 0
36.4 0.6 0
36.8 0.6 0
37.2 0.6 0
37.6 0.6 0
38 0.6 0
38.4 0.6 0
38.8 0.6 0
39.2 0.6 0
39.6 0.6 0
40 0.6 0
40.4 0.6 0
0 0.7 0
0.4 0.7 0
0.8 0.7 0
1.2 0.7 0
1.6 0.7 0
2 0.7 0
2.4 0.7 0
2.8 0.7 0
3.2 0.7 0
3.6 0.7 0
4 0.7 0
4.4 0.7 0
4.8 0.7 0
5.2 0.7 0
5.6 0.7 0
6 0.7 0
6.4 0.7 0
6.8 0.7 0
7.2 0.7 0
7.6 0.7 0
8 0.7 0
8.4 0.7 0
8.8 0.7 0
9.2 0.7 0
9.6 0.7 0
10 0.7 0
10.4 0.7 0
10.8 0.7 0
11.2 0.7 0
11.6 0.7 0
12 0.7 0
12.4 0.7 0
12.8 0.7 0
13.2 0.7 0
13.6 0.7 0
14 0.7 0
14.4 0.7 0
14.8 0.7 0
15.2 0.7 0
15.6 0.7 0
16 0.7 0
16.4 0.7 0
16.8 0.7 0
17.2 0.7 0
17.6 0.7 0
18 0.7 0
18.4 0.7 0
18.8 0.7 0
19.2 0.7 0
19.6 0.7 0
20 0.7 0
20.4 0.7 0
20.8 0.7 0
21.2 0.7 0
21.6 0.7 0
22 0.7 0
22.4 0.7 0
22.8 0.7 0
23.2 0.7 0
23.6 0.7 0
24 0.7 0
24.4 0.7 0
24.8 0.7 0
25.2 0.7 0
25.6 0.7 0
26 0.7 0
26.4 0.7 0
26.8 0.7 0
27.2 0.7 0
27.6 0.7 0
28 0.7 0
28.4 0.7 0
28.8 0.7 0
29.2 0.7 0
29.6 0.7 0
30 0.7 0
30.4 0.7 0
30.8 0.7 0
31.2 0.7 0
31.6 0.7 0
32 0.7 0
32.4 0.7 0
32.8 0.7 0
33.2 0.7 0
33.6 0.7 0
34 0.7 0
34.4 0.7 0
34.8 0.7 0
35.2 0.7 0
35.6 0.7 0
36 0.7 0
36.4 0.7 0
36.8 0.7 0
37.2 0.7 0
37.6 0.7 0
38 0.7 0
38.4 0.7 0
38.8 0.7 0
39.2 0.7 0
39.6 0.7 0
40 0.7 0
40.4 0.7 0
0 0.8 0
0.4 0.8 0
0.8 0.8 0
1.2 0.8 0
1.6 0.8 0
2 0.8 0
2.4 0.8 0
2.8 0.8 0
3.2 0.8 0
3.6 0.8 0
4 0.8 0
4.4 0.8 0
4.8 0.8 0
5.2 0.8 0
5.6 0.8 0
6 0.8 0
6.4 0.8 0
6.8 0.8 0
7.2 0.8 0
7.6 0.8 0
8 0.8 0
8.4 0.8 0
8.8 0.8 0
9.2 0.8 0
9.6 0.8 0
10 0.8 0
10.4 0.8 0
10.8 0.8 0
11.2 0.8 0
11.6 0.8 0
12 0.8 0
12.4 0.8 0
12.8 0.8 0
13.2 0.8 0
13.6 0.8 0
14 0.8 0
14.4 0.8 0
14.8 0.8 0
15.2 0.8 0
15.6 0.8 0
16 0.8 0
16.4 0.8 0
16.8 0.8 0
17.2 0.8 0
17.6 0.8 0
18 0.8 0
18.4 0.8 0
18.8 0.8 0
19.2 0.8 0
19.6 0.8 0
20 0.8 0
20.4 0.8 0
20.8 0.8 0
21.2 0.8 0
21.6 0.8 0
22 0.8 0
22.4 0.8 0
22.8 0.8 0
23.2 0.8 0
23.6 0.8 0
24 0.8 0
24.4 0.8 0
24.8 0.8 0
25.2 0.8 0
25.6 0.8 0
26 0.8 0
26.4 0.8 0
26.8 0.8 0
27.2 0.8 0
27.6 0.8 0
28 0.8 0
28.4 0.8 0
28.8 0.8 0
29.2 0.8 0
29.6 0.8 0
30 0.8 0
30.4 0.8 0
30.8 0.8 0
31.2 0.8 0
31.6 0.8 0
32 0.8 0
32.4 0.8 0
32.8 0.8 0
33.2 0.8 0
33.6 0.8 0
34 0.8 0
34.4 0.8 0
34.8 0.8 0
35.2 0.8 0
35.6 0.8 0
36 0.8 0
36.4 0.8 0
36.8 0.8 0
37.2 0.8 0
37.6 0.8 0
38 0.8 0
38.4 0.8 0
38.8 0.8 0
39.2 0.8 0
39.6 0.8 0
40 0.8 0
40.4 0.8 0
0 0.9 0
0.4 0.9 0
0.8 0.9 0
1.2 0.9 0
1.6 0.9 0
2 0.9 0
2.4 0.9 0
2.8 0.9 0
3.2 0.9 0
3.6 0.9 0
4 0.9 0
4.4 0.9 0
4.8 0.9 0
5.2 0.9 0
5.6 0.9 0
6 0.9 0
6.4 0.9 0
6.8 0.9 0
7.2 0.9 0
7.6 0.9 0
8 0.9 0
8.4 0.9 0
8.8 0.9 0
9.2 0.9 0
9.6 0.9 0
10 0.9 0
10.4 0.9 0
10.8 0.9 0
11.2 0.9 0
11.6 0.9 0
12 0.9 0
12.4 0.9 0
12.8 0.9 0
13.2 0.9 0
13.6 0.9 0
14 0.9 0
14.4 0.9 0
14.8 0.9 0
15.2 0.9 0
15.6 0.9 0
16 0.9 0
16.4 0.9 0
16.8 0.9 0
17.2 0.9 0
17.6 0.9 0
18 0.9 0
18.4 0.9 0
18.8 0.9 0
19.2 0.9 0
19.6 0.9 0
20 0.9 0
20.4 0.9 0
20.8 0.9 0
21.2 0.9 0
21.6 0.9 0
22 0.9 0
22.4 0.9 0
22.8 0.9 0
23.2 0.9 0
23.6 0.9 0
24 0.9 0
24.4 0.9 0
24.8 0.9 0
25.2 0.9 0
25.6 0.9 0
26 0.9 0
26.4 0.9 0
26.8 0.9 0
27.2 0.9 0
27.6 0.9 0
28 0.9 0
28.4 0.9 0
28.8 0.9 0
29.2 0.9 0
29.6 0.9 0
30 0.9 0
30.4 0.9 0
30.8 0.9 0
31.2 0.9 0
31.6 0.9 0
32 0.9 0
32.4 0.9 0
32.8 0.9 0
33.2 0.9 0
33.6 0.9 0
34 0.9 0
34.4 0.9 0
34.8 0.9 0
35.2 0.9 0
35.6 0.9 0
36 0.9 0
36.4 0.9 0
36.8 0.9 0
37.2 0.9 0
37.6 0.9 0
38 0.9 0
38.4 0.9 0
38.8 0.9 0
39.2 0.9 0
39.6 0.9 0
40 0.9 0
40.4 0.9 0
0 1 0
0.4 1 0
0.8 1 0
1.2 1 0
1.6 1 0
2 1 0
2.4 1 0
2.8 1 0
3.2 1 0
3.6 1 0
4 1 0
4.4 1 0
4.8 1 0
5.2 1 0
5.6 1 0
6 1 0
6.4 1 0
6.8 1 0
7.2 1 0
7.6 1 0
8 1 0
8.4 1 0
8.8 1 0
9.2 1 0
9.6 1 0
10 1 0
10.4 1 0
10.8 1 0
11.2 1 0
11.6 1 0
12 1 0
12.4 1 0
12.8 1 0
13.2 1 0
13.6 1 0
14 1 0
14.4 1 0
14.8 1 0
15.2 1 0
15.6 1 0
16 1 0
16.4 1 0
16.8 1 0
17.2 1 0
17.6 1 0
18 1 0
18.4 1 0
18.8 1 0
19.2 1 0
19.6 1 0
20 1 0
20.4 1 0
20.8 1 0
21.2 1 0
21.6 1 0
22 1 0
22.4 1 0
22.8 1 0
23.2 1 0
23.6 1 0
24 1 0
24.4 1 0
24.8 1 0
25.2 1 0
25.6 1 0
26 1 0
26.4 1 0
26.8 1 0
27.2 1 0
27.6 1 0
28 1 0
28.4 1 0
28.8 1 0
29.2 1 0
29.6 1 0
30 1 0
30.4 1 0
30.8 1 0
31.2 1 0
31.6 1 0
32 1 0
32.4 1 0
32.8 1 0
33.2 1 0
33.6 1 0
34 1 0
34.4 1 0
34.8 1 0
35.2 1 0
35.6 1 0
36 1 0
36.4 1 0
36.8 1 0
37.2 1 0
37.6 1 0
38 1 0
38.4 1 0
38.8 1 0
39.2 1 0
39.6 1 0
40 1 0
40.4 1 0
0 1.1 0
0.4 1.1 0
0.8 1.1 0
1.2 1.1 0
1.6 1.1 0
2 1.1 0
2.4 1.1 0
2.8 1.1 0
3.2 1.1 0
3.6 1.1 0
4 1.1 0
4.4 1.1 0
4.8 1.1 0
5.2 1.1 0
5.6 1.1 0
6 1.1 0
6.4 1.1 0
6.8 1.1 0
7.2 1.1 0
7.6 1.1 0
8 1.1 0
8.4 1.1 0
8.8 1.1 0
9.2 1.1 0
9.6 1.1 0
10 1.1 0
10.4 1.1 0
10.8 1.1 0
11.2 1.1 0
11.6 1.1 0
12 1.1 0
12.4 1.1 0
12.8 1.1 0
13.2 1.1 0
13.6 1.1 0
14 1.1 0
14.4 1.1 0
14.8 1.1 0
15.2 1.1 0
15.6 1.1 0
16 1.1 0
16.4 1.1 0
16.8 1.1 0
17.2 1.1 0
17.6 1.1 0
18 1.1 0
18.4 1.1 0
18.8 1.1 0
19.2 1.1 0
19.6 1.1 0
20 1.1 0
20.4 1.1 0
20.8 1.1 0
21.2 1.1 0
21.6 1.1 0
22 1.1 0
22.4 1.1 0
22.8 1.1 0
23.2 1.1 0
23.6 1.1 0
24 1.1 0
24.4 1.1 0
24.8 1.1 0
25.2 1.1 0
25.6 1.1 0
26 1.1 0
26.4 1.1 0
26.8 1.1 0
27.2 1.1 0
27.6 1.1 0
28 1.1 0
28.4 1.1 0
28.8 1.1 0
29.2 1.1 0
29.6 1.1 0
30 1.1 0
30.4 1.1 0
30.8 1.1 0
31.2 1.1 0
31.6 1.1 0
32 1.1 0
32.4 1.1 0
32.8 1.1 0
33.2 1.1 0
33.6 1.1 0
34 1.1 0
34.4 1.1 0
34.8 1.1 0
35.2 1.1 0
35.6 1.1 0
36 1.1 0
36.4 1.1 0
36.8 1.1 0
37.2 1.1 0
37.6 1.1 0
38 1.1 0
38.4 1.1 0
38.8 1.1 0
39.2 1.1 0
39.6 1.1 0
40 1.1 0
40.4 1.1 0

POINT_DATA 1224

SCALARS phi double
LOOKUP_TABLE default
0.911619
1.08838
1.18693
1.21817
1.20207
1.16371
1.12152
1.08384
1.05232
1.02601
1.00345
0.983492
0.965361
0.948566
0.932799
0.917861
0.903614
0.88995
0.87676
0.86392
0.851277
0.838645
0.825816
0.812568
0.798686
0.783976
0.768281
0.75149
0.733546
0.714438
0.694205
0.672927
0.650711
0.627688
0.604007
0.579821
0.555283
0.530538
0.505724
0.480969
0.456384
0.432071
0.408113
0.384586
0.361551
0.339059
0.317151
0.295863
0.275224
0.255256
0.23598
0.217413
0.199573
0.182474
0.166131
0.150559
0.135774
0.121792
0.108626
0.0962907
0.084798
0.0741561
0.0643692
0.0554357
0.0473472
0.0400879
0.0336334
0.0279514
0.0230016
0.0187366
0.0151032
0.0120442
0.0094997
0.00740922
0.00571327
0.00435489
0.0032809
0.00244279
0.00179728
0.00130664
0.000938608
0.000666179
0.000467163
0.000323682
0.000221588
0.000149886
0.00010018
6.61641e-05
4.31827e-05
2.78526e-05
1.7755e-05
1.11867e-05
6.96707e-06
4.28917e-06
2.61103e-06
1.57071e-06
9.36848e-07
5.49042e-07
3.30009e-07
1.85055e-07
1.16092e-07
1.16092e-07
0.911619
1.08838
1.18693
1.21817
1.20207
1.16371
1.12152
1.08384
1.05232
1.02601
1.00345
0.983492
0.965361
0.948566
0.932799
0.917861
0.903614
0.88995
0.87676
0.86392
0.851277
0.838645
0.825816
0.812568
0.798686
0.783976
0.768281
0.75149
0.733546
0.714438
0.694205
0.672927
0.650711
0.627688
0.604007
0.579821
0.555283
0.530538
0.505724
0.480969
0.456384
0.432071
0.408113
0.384586
0.361551
0.339059
0.317151
0.295863
0.275224
0.255256
0.23598
0.217413
0.199573
0.182474
0.166131
0.150559
0.135774
0.121792
0.108626
0.0962907
0.084798
0.0741561
0.0643692
0.0554357
0.0473472
0.0400879
0.0336334
0.0279514
0.0230016
0.0187366
0.0151032
0.0120442
0.0094997
0.00740922
0.00571327
0.00435489
0.0032809
0.00244279
0.00179728
0.00130664
0.000938608
0.000666179
0.000467163
0.000323682
0.000221588
0.000149886
0.00010018
6.61641e-05
4.31827e-05
2.78526e-05
1.7755e-05
1.11867e-05
6.96707e-06
4.28917e-06
2.61103e-06
1.57071e-06
9.36848e-07
5.49042e-07
3.30009e-07
1.85055e-07
1.16092e-07
1.16092e-07
1.00188
0.998125
1.02685
1.06105
1.08319
1.0888
1.08087
1.06447
1.04395
1.02217
1.00069
0.980209
0.960954
0.942917
0.925998
0.910074
0.895025
0.880743
0.867127
0.854072
0.84146
0.829153
0.816993
0.804803
0.792398
0.779595
0.766223
0.752137
0.737225
0.721408
0.704651
0.686951
0.668343
0.648885
0.628662
0.607775
0.586334
0.564455
0.542252
0.519839
0.49732
0.474796
0.452356
0.43008
0.408038
0.386293
0.364896
0.343894
0.323326
0.303224
0.283617
0.264531
0.245988
0.228007
0.210608
0.19381
0.177631
0.162089
0.147206
0.133002
0.119499
0.106722
0.0946921
0.0834331
0.0729648
0.063303
0.0544579
0.0464323
0.0392198
0.0328044
0.0271601
0.0222507
0.0180313
0.0144496
0.0114476
0.0089642
0.00693684
0.00530392
0.00400648
0.00298961
0.00220353
0.00160419
0.00115347
0.000819163
0.000574574
0.000398054
0.000272378
0.0001841
0.000122916
8.10705e-05
5.2826e-05
3.40089e-05
2.16341e-05
1.35988e-05
8.44897e-06
5.18601e-06
3.15295e-06
1.88538e-06
1.14392e-06
6.5217e-07
4.4254e-07
4.4254e-07
1.01572
0.984281
0.963649
0.958795
0.96217
0.966524
0.967709
0.964361
0.956778
0.945954
0.932986
0.918808
0.904114
0.889375
0.874887
0.860824
0.847274
0.834273
0.821824
0.809904
0.798468
0.787457
0.776787
0.76636
0.756061
0.745763
0.735333
0.724642
0.713568
0.702002
0.689855
0.677062
0.663578
0.649385
0.634484
0.618897
0.602663
0.585833
0.568467
0.550635
0.532405
0.513851
0.495041
0.476044
0.456924
0.43774
0.418547
0.399394
0.380325
0.361383
0.342602
0.324017
0.305658
0.287552
0.269726
0.252204
0.23501
0.218169
0.201706
0.185651
0.170034
0.154894
0.140273
0.126217
0.112781
0.100017
0.0879831
0.0767305
0.0663056
0.0567449
0.0480723
0.0402964
0.0334094
0.0273875
0.0221914
0.0177683
0.0140555
0.0109824
0.00847497
0.00645827
0.00485953
0.00361032
0.00264822
0.00191785
0.00137128
0.000968057
0.000674765
0.000464411
0.000315628
0.000211837
0.000140415
9.19273e-05
5.94483e-05
3.79773e-05
2.39713e-05
1.49466e-05
9.21996e-06
5.60496e-06
3.41872e-06
1.99472e-06
1.31686e-06
1.31686e-06
1.02404
0.975965
0.919364
0.876597
0.848753
0.831753
0.821182
0.813715
0.807274
0.800757
0.793701
0.786012
0.777776
0.769148
0.760296
0.751368
0.742486
0.733739
0.725193
0.716888
0.708846
0.70107
0.693549
0.686254
0.67914
0.672152
0.66522
0.658267
0.65121
0.643964
0.636447
0.628582
0.6203
0.611544
0.602268
0.592438
0.582034
0.571046
0.559478
0.54734
0.534651
0.521437
0.507729
0.493558
0.478961
0.463974
0.448634
0.432977
0.417039
0.400857
0.384465
0.367898
0.351188
0.334368
0.317471
0.300528
0.283569
0.266627
0.249733
0.232924
0.21624
0.199728
0.183444
0.167453
0.151832
0.136664
0.122042
0.108063
0.0948218
0.0824072
0.0708968
0.0603514
0.0508114
0.0422943
0.034794
0.0282814
0.0227073
0.0180057
0.0140982
0.0108986
0.00831738
0.00626593
0.00465961
0.00342036
0.00247829
0.00177257
0.00125152
0.000872332
0.000600287
0.000407851
0.000273617
0.000181269
0.000118599
7.66405e-05
4.89234e-05
3.08486e-05
1.92307e-05
1.18245e-05
7.25935e-06
4.28516e-06
2.81365e-06
2.81365e-06
1.11553
0.884471
0.754942
0.682423
0.641439
0.61841
0.605773
0.599099
0.595721
0.594024
0.593049
0.592248
0.591331
0.590167
0.588716
0.586989
0.585024
0.582868
0.580569
0.578172
0.575715
0.573227
0.570732
0.568241
0.565758
0.563274
0.560775
0.558233
0.555613
0.552875
0.549971
0.546848
0.543454
0.539736
0.535641
0.531121
0.52613
0.520628
0.514582
0.507965
0.500753
0.492931
0.484489
0.475423
0.465733
0.455423
0.444503
0.432987
0.420893
0.408242
0.395059
0.381372
0.367213
0.352616
0.337617
0.322252
0.30656
0.290583
0.274362
0.257943
0.241377
0.224722
0.208045
0.191427
0.174958
0.158745
0.142903
0.127556
0.11283
0.09885
0.0857286
0.0735636
0.0624306
0.052379
0.0434302
0.0355771
0.0287862
0.0230008
0.0181455
0.0141321
0.0108646
0.00824441
0.00617485
0.00456465
0.00333046
0.00239842
0.00170486
0.00119624
0.000828587
0.000566609
0.00038255
0.00025503
0.000167894
0.000109159
7.01013e-05
4.44661e-05
2.78801e-05
1.72438e-05
1.06405e-05
6.30975e-06
4.17963e-06
4.17963e-06
-0.101677
0.101677
0.204149
0.258515
0.29004
0.310502
0.325452
0.337536
0.348013
0.357476
0.366192
0.374278
0.381784
0.388735
0.395152
0.401057
0.406477
0.411445
0.415996
0.420165
0.423989
0.427503
0.430738
0.433723
0.436479
0.439026
0.441375
0.44353
0.445489
0.447241
0.44877
0.450049
0.451049
0.451733
0.452059
0.451983
0.451458
0.450437
0.448871
0.446714
0.443923
0.440457
0.436282
0.431366
0.425686
0.419223
0.411968
0.403917
0.395074
0.385451
0.375067
0.363948
0.352125
0.339639
0.32653
0.312847
0.298639
0.283959
0.268865
0.253416
0.237677
0.221723
0.205634
0.189505
0.173439
0.157555
0.141979
0.126845
0.112289
0.0984413
0.0854232
0.0733376
0.062265
0.0522589
0.0433439
0.0355159
0.0287432
0.0229708
0.0181249
0.0141181
0.0108552
0.00823812
0.00617071
0.00456195
0.00332872
0.00239731
0.00170416
0.0011958
0.000828317
0.000566443
0.00038245
0.00025497
0.000167859
0.000109138
7.00893e-05
4.44592e-05
2.78762e-05
1.72416e-05
1.06393e-05
6.30909e-06
4.17924e-06
4.17924e-06
-0.00930645
0.00930645
0.0399923
0.0692732
0.0943627
0.115578
0.133846
0.150008
0.164679
0.178277
0.191068
0.203216
0.214819
0.225933
0.236591
0.246813
0.25661
0.265995
0.274979
0.283574
0.291793
0.299651
0.307162
0.314342
0.321205
0.327761
0.33402
0.339987
0.345662
0.351038
0.356103
0.360838
0.365216
0.369205
0.372765
0.37585
0.378412
0.380397
0.38175
0.382419
0.382349
0.381493
0.379806
0.37725
0.373794
0.369419
0.364111
0.357869
0.350702
0.342627
0.333674
0.323879
0.31329
0.301959
0.289945
0.277312
0.264129
0.250468
0.236402
0.22201
0.207376
0.192586
0.177737
0.162932
0.14828
0.133899
0.119909
0.106432
0.0935869
0.081481
0.0702089
0.0598455
0.0504431
0.0420289
0.0346046
0.0281478
0.022614
0.0179412
0.0140541
0.0108687
0.00829741
0.00625271
0.00465095
0.00341475
0.0024747
0.00177029
0.00125009
0.000871445
0.000599742
0.00040752
0.000273419
0.000181151
0.00011853
7.66001e-05
4.89001e-05
3.08354e-05
1.92232e-05
1.18204e-05
7.25703e-06
4.2839e-06
2.81295e-06
2.81295e-06
-0.000483305
0.000483305
0.0062834
0.014825
0.024693
0.0352056
0.0460684
0.0571535
0.0683964
0.0797547
0.0911921
0.102673
0.114161
0.125618
0.137007
0.14829
0.159435
0.17041
0.181187
0.191744
0.202061
0.212122
0.221916
0.231431
0.240657
0.249586
0.258205
0.266502
0.274457
0.282049
0.289249
0.296023
0.30233
0.308124
0.313353
0.317962
0.321892
0.325083
0.327478
0.32902
0.329659
0.329351
0.328061
0.325764
0.322445
0.318101
0.312742
0.306389
0.299077
0.290851
0.281765
0.271884
0.261282
0.250035
0.238227
0.225946
0.213279
0.200317
0.187153
0.173878
0.160586
0.147373
0.134336
0.12157
0.109175
0.0972446
0.0858702
0.0751351
0.0651123
0.055861
0.0474239
0.0398254
0.0330708
0.0271465
0.0220215
0.0176499
0.0139738
0.0109266
0.00843728
0.00643308
0.00484287
0.00359942
0.00264116
0.00191333
0.00136842
0.000966262
0.000673652
0.000463728
0.000315213
0.000211588
0.000140267
9.18404e-05
5.93977e-05
3.79482e-05
2.39547e-05
1.49372e-05
9.21473e-06
5.60207e-06
3.41713e-06
1.99386e-06
1.31639e-06
1.31639e-06
4.08322e-05
-4.08322e-05
0.000817245
0.00283838
0.00606915
0.0105077
0.0161103
0.0227913
0.0304364
0.0389186
0.0481101
0.057889
0.0681419
0.0787647
0.0896627
0.100751
0.111952
0.123199
0.134432
0.145599
0.156654
0.167558
0.178275
0.188771
0.199015
0.208974
0.218614
0.227898
0.236783
0.245223
0.253164
0.260551
0.26732
0.273408
0.278747
0.283271
0.286916
0.289622
0.291335
0.29201
0.291613
0.29012
0.287523
0.283826
0.279048
0.273222
0.266395
0.258625
0.249983
0.24055
0.230415
0.219673
0.208425
0.196773
0.184822
0.172676
0.160438
0.148209
0.136086
0.124164
0.112532
0.101274
0.0904691
0.0801873
0.0704919
0.0614358
0.0530609
0.0453967
0.0384593
0.0322514
0.0267617
0.0219666
0.0178307
0.0143093
0.0113506
0.00889774
0.00689179
0.0052737
0.00398641
0.00297642
0.00219496
0.00159867
0.00114996
0.000816952
0.000573196
0.000397204
0.000271859
0.000183786
0.000122729
8.09598e-05
5.27612e-05
3.39714e-05
2.16126e-05
1.35866e-05
8.44211e-06
5.18219e-06
3.15085e-06
1.88424e-06
1.14329e-06
6.5184e-07
4.42353e-07
4.42353e-07
2.2059e-05
-2.2059e-05
0.000114971
0.000803975
0.00239726
0.00512891
0.00909723
0.0142977
0.0206594
0.0280718
0.0364036
0.0455167
0.0552757
0.0655533
0.0762328
0.087209
0.0983885
0.109689
0.121037
0.13237
0.14363
0.154768
0.165736
0.176487
0.186978
0.19716
0.206981
0.216386
0.225315
0.233702
0.241477
0.248567
0.254895
0.260387
0.264969
0.268575
0.271142
0.27262
0.272966
0.272156
0.270175
0.267029
0.262736
0.257332
0.250868
0.24341
0.235036
0.225835
0.215906
0.205355
0.194294
0.182837
0.171101
0.159201
0.14725
0.135359
0.123632
0.11217
0.101062
0.0903944
0.0802399
0.0706627
0.0617151
0.0534371
0.0458559
0.0389851
0.0328256
0.0273653
0.0225803
0.0184367
0.0148919
0.0118967
0.00939777
0.0073395
0.00566606
0.00432325
0.00325991
0.002429
0.00178832
0.00130087
0.00093494
0.000663868
0.000465722
0.000322792
0.000221044
0.000149558
9.99835e-05
6.60478e-05
4.31145e-05
2.78131e-05
1.77323e-05
1.11738e-05
6.9598e-06
4.28512e-06
2.6088e-06
1.56949e-06
9.36186e-07
5.48688e-07
3.29817e-07
1.84955e-07
1.16039e-07
1.16039e-07
2.2059e-05
-2.2059e-05
0.000114971
0.000803975
0.00239726
0.00512891
0.00909723
0.0142977
0.0206594
0.0280718
0.0364036
0.0455167
0.0552757
0.0655533
0.0762328
0.087209
0.0983885
0.109689
0.121037
0.13237
0.14363
0.154768
0.165736
0.176487
0.186978
0.19716
0.206981
0.216386
0.225315
0.233702
0.241477
0.248567
0.254895
0.260387
0.264969
0.268575
0.271142
0.27262
0.272966
0.272156
0.270175
0.267029
0.262736
0.257332
0.250868
0.24341
0.235036
0.225835
0.215906
0.205355
0.194294
0.182837
0.171101
0.159201
0.14725
0.135359
0.123632
0.11217
0.101062
0.0903944
0.0802399
0.0706627
0.0617151
0.0534371
0.0458559
0.0389851
0.0328256
0.0273653
0.0225803
0.0184367
0.0148919
0.0118967
0.00939777
0.0073395
0.00566606
0.00432325
0.00325991
0.002429
0.00178832
0.00130087
0.00093494
0.000663868
0.000465722
0.000322792
0.000221044
0.000149558
9.99835e-05
6.60478e-05
4.31145e-05
2.78131e-05
1.77323e-05
1.11738e-05
6.9598e-06
4.28512e-06
2.6088e-06
1.56949e-06
9.36186e-07
5.48688e-07
3.29817e-07
1.84955e-07
1.16039e-07
1.16039e-07
