# vtk DataFile Version 2.0
FlowField
ASCII
DATASET STRUCTURED_GRID
DIMENSIONS 102 1 12 
POINTS 1224 double
0 0 0
0.4 0 0
0.8 0 0
1.2 0 0
1.6 0 0
2 0 0
2.4 0 0
2.8 0 0
3.2 0 0
3.6 0 0
4 0 0
4.4 0 0
4.8 0 0
5.2 0 0
5.6 0 0
6 0 0
6.4 0 0
6.8 0 0
7.2 0 0
7.6 0 0
8 0 0
8.4 0 0
8.8 0 0
9.2 0 0
9.6 0 0
10 0 0
10.4 0 0
10.8 0 0
11.2 0 0
11.6 0 0
12 0 0
12.4 0 0
12.8 0 0
13.2 0 0
13.6 0 0
14 0 0
14.4 0 0
14.8 0 0
15.2 0 0
15.6 0 0
16 0 0
16.4 0 0
16.8 0 0
17.2 0 0
17.6 0 0
18 0 0
18.4 0 0
18.8 0 0
19.2 0 0
19.6 0 0
20 0 0
20.4 0 0
20.8 0 0
21.2 0 0
21.6 0 0
22 0 0
22.4 0 0
22.8 0 0
23.2 0 0
23.6 0 0
24 0 0
24.4 0 0
24.8 0 0
25.2 0 0
25.6 0 0
26 0 0
26.4 0 0
26.8 0 0
27.2 0 0
27.6 0 0
28 0 0
28.4 0 0
28.8 0 0
29.2 0 0
29.6 0 0
30 0 0
30.4 0 0
30.8 0 0
31.2 0 0
31.6 0 0
32 0 0
32.4 0 0
32.8 0 0
33.2 0 0
33.6 0 0
34 0 0
34.4 0 0
34.8 0 0
35.2 0 0
35.6 0 0
36 0 0
36.4 0 0
36.8 0 0
37.2 0 0
37.6 0 0
38 0 0
38.4 0 0
38.8 0 0
39.2 0 0
39.6 0 0
40 0 0
40.4 0 0
0 0.1 0
0.4 0.1 0
0.8 0.1 0
1.2 0.1 0
1.6 0.1 0
2 0.1 0
2.4 0.1 0
2.8 0.1 0
3.2 0.1 0
3.6 0.1 0
4 0.1 0
4.4 0.1 0
4.8 0.1 0
5.2 0.1 0
5.6 0.1 0
6 0.1 0
6.4 0.1 0
6.8 0.1 0
7.2 0.1 0
7.6 0.1 0
8 0.1 0
8.4 0.1 0
8.8 0.1 0
9.2 0.1 0
9.6 0.1 0
10 0.1 0
10.4 0.1 0
10.8 0.1 0
11.2 0.1 0
11.6 0.1 0
12 0.1 0
12.4 0.1 0
12.8 0.1 0
13.2 0.1 0
13.6 0.1 0
14 0.1 0
14.4 0.1 0
14.8 0.1 0
15.2 0.1 0
15.6 0.1 0
16 0.1 0
16.4 0.1 0
16.8 0.1 0
17.2 0.1 0
17.6 0.1 0
18 0.1 0
18.4 0.1 0
18.8 0.1 0
19.2 0.1 0
19.6 0.1 0
20 0.1 0
20.4 0.1 0
20.8 0.1 0
21.2 0.1 0
21.6 0.1 0
22 0.1 0
22.4 0.1 0
22.8 0.1 0
23.2 0.1 0
23.6 0.1 0
24 0.1 0
24.4 0.1 0
24.8 0.1 0
25.2 0.1 0
25.6 0.1 0
26 0.1 0
26.4 0.1 0
26.8 0.1 0
27.2 0.1 0
27.6 0.1 0
28 0.1 0
28.4 0.1 0
28.8 0.1 0
29.2 0.1 0
29.6 0.1 0
30 0.1 0
30.4 0.1 0
30.8 0.1 0
31.2 0.1 0
31.6 0.1 0
32 0.1 0
32.4 0.1 0
32.8 0.1 0
33.2 0.1 0
33.6 0.1 0
34 0.1 0
34.4 0.1 0
34.8 0.1 0
35.2 0.1 0
35.6 0.1 0
36 0.1 0
36.4 0.1 0
36.8 0.1 0
37.2 0.1 0
37.6 0.1 0
38 0.1 0
38.4 0.1 0
38.8 0.1 0
39.2 0.1 0
39.6 0.1 0
40 0.1 0
40.4 0.1 0
0 0.2 0
0.4 0.2 0
0.8 0.2 0
1.2 0.2 0
1.6 0.2 0
2 0.2 0
2.4 0.2 0
2.8 0.2 0
3.2 0.2 0
3.6 0.2 0
4 0.2 0
4.4 0.2 0
4.8 0.2 0
5.2 0.2 0
5.6 0.2 0
6 0.2 0
6.4 0.2 0
6.8 0.2 0
7.2 0.2 0
7.6 0.2 0
8 0.2 0
8.4 0.2 0
8.8 0.2 0
9.2 0.2 0
9.6 0.2 0
10 0.2 0
10.4 0.2 0
10.8 0.2 0
11.2 0.2 0
11.6 0.2 0
12 0.2 0
12.4 0.2 0
12.8 0.2 0
13.2 0.2 0
13.6 0.2 0
14 0.2 0
14.4 0.2 0
14.8 0.2 0
15.2 0.2 0
15.6 0.2 0
16 0.2 0
16.4 0.2 0
16.8 0.2 0
17.2 0.2 0
17.6 0.2 0
18 0.2 0
18.4 0.2 0
18.8 0.2 0
19.2 0.2 0
19.6 0.2 0
20 0.2 0
20.4 0.2 0
20.8 0.2 0
21.2 0.2 0
21.6 0.2 0
22 0.2 0
22.4 0.2 0
22.8 0.2 0
23.2 0.2 0
23.6 0.2 0
24 0.2 0
24.4 0.2 0
24.8 0.2 0
25.2 0.2 0
25.6 0.2 0
26 0.2 0
26.4 0.2 0
26.8 0.2 0
27.2 0.2 0
27.6 0.2 0
28 0.2 0
28.4 0.2 0
28.8 0.2 0
29.2 0.2 0
29.6 0.2 0
30 0.2 0
30.4 0.2 0
30.8 0.2 0
31.2 0.2 0
31.6 0.2 0
32 0.2 0
32.4 0.2 0
32.8 0.2 0
33.2 0.2 0
33.6 0.2 0
34 0.2 0
34.4 0.2 0
34.8 0.2 0
35.2 0.2 0
35.6 0.2 0
36 0.2 0
36.4 0.2 0
36.8 0.2 0
37.2 0.2 0
37.6 0.2 0
38 0.2 0
38.4 0.2 0
38.8 0.2 0
39.2 0.2 0
39.6 0.2 0
40 0.2 0
40.4 0.2 0
0 0.3 0
0.4 0.3 0
0.8 0.3 0
1.2 0.3 0
1.6 0.3 0
2 0.3 0
2.4 0.3 0
2.8 0.3 0
3.2 0.3 0
3.6 0.3 0
4 0.3 0
4.4 0.3 0
4.8 0.3 0
5.2 0.3 0
5.6 0.3 0
6 0.3 0
6.4 0.3 0
6.8 0.3 0
7.2 0.3 0
7.6 0.3 0
8 0.3 0
8.4 0.3 0
8.8 0.3 0
9.2 0.3 0
9.6 0.3 0
10 0.3 0
10.4 0.3 0
10.8 0.3 0
11.2 0.3 0
11.6 0.3 0
12 0.3 0
12.4 0.3 0
12.8 0.3 0
13.2 0.3 0
13.6 0.3 0
14 0.3 0
14.4 0.3 0
14.8 0.3 0
15.2 0.3 0
15.6 0.3 0
16 0.3 0
16.4 0.3 0
16.8 0.3 0
17.2 0.3 0
17.6 0.3 0
18 0.3 0
18.4 0.3 0
18.8 0.3 0
19.2 0.3 0
19.6 0.3 0
20 0.3 0
20.4 0.3 0
20.8 0.3 0
21.2 0.3 0
21.6 0.3 0
22 0.3 0
22.4 0.3 0
22.8 0.3 0
23.2 0.3 0
23.6 0.3 0
24 0.3 0
24.4 0.3 0
24.8 0.3 0
25.2 0.3 0
25.6 0.3 0
26 0.3 0
26.4 0.3 0
26.8 0.3 0
27.2 0.3 0
27.6 0.3 0
28 0.3 0
28.4 0.3 0
28.8 0.3 0
29.2 0.3 0
29.6 0.3 0
30 0.3 0
30.4 0.3 0
30.8 0.3 0
31.2 0.3 0
31.6 0.3 0
32 0.3 0
32.4 0.3 0
32.8 0.3 0
33.2 0.3 0
33.6 0.3 0
34 0.3 0
34.4 0.3 0
34.8 0.3 0
35.2 0.3 0
35.6 0.3 0
36 0.3 0
36.4 0.3 0
36.8 0.3 0
37.2 0.3 0
37.6 0.3 0
38 0.3 0
38.4 0.3 0
38.8 0.3 0
39.2 0.3 0
39.6 0.3 0
40 0.3 0
40.4 0.3 0
0 0.4 0
0.4 0.4 0
0.8 0.4 0
1.2 0.4 0
1.6 0.4 0
2 0.4 0
2.4 0.4 0
2.8 0.4 0
3.2 0.4 0
3.6 0.4 0
4 0.4 0
4.4 0.4 0
4.8 0.4 0
5.2 0.4 0
5.6 0.4 0
6 0.4 0
6.4 0.4 0
6.8 0.4 0
7.2 0.4 0
7.6 0.4 0
8 0.4 0
8.4 0.4 0
8.8 0.4 0
9.2 0.4 0
9.6 0.4 0
10 0.4 0
10.4 0.4 0
10.8 0.4 0
11.2 0.4 0
11.6 0.4 0
12 0.4 0
12.4 0.4 0
12.8 0.4 0
13.2 0.4 0
13.6 0.4 0
14 0.4 0
14.4 0.4 0
14.8 0.4 0
15.2 0.4 0
15.6 0.4 0
16 0.4 0
16.4 0.4 0
16.8 0.4 0
17.2 0.4 0
17.6 0.4 0
18 0.4 0
18.4 0.4 0
18.8 0.4 0
19.2 0.4 0
19.6 0.4 0
20 0.4 0
20.4 0.4 0
20.8 0.4 0
21.2 0.4 0
21.6 0.4 0
22 0.4 0
22.4 0.4 0
22.8 0.4 0
23.2 0.4 0
23.6 0.4 0
24 0.4 0
24.4 0.4 0
24.8 0.4 0
25.2 0.4 0
25.6 0.4 0
26 0.4 0
26.4 0.4 0
26.8 0.4 0
27.2 0.4 0
27.6 0.4 0
28 0.4 0
28.4 0.4 0
28.8 0.4 0
29.2 0.4 0
29.6 0.4 0
30 0.4 0
30.4 0.4 0
30.8 0.4 0
31.2 0.4 0
31.6 0.4 0
32 0.4 0
32.4 0.4 0
32.8 0.4 0
33.2 0.4 0
33.6 0.4 0
34 0.4 0
34.4 0.4 0
34.8 0.4 0
35.2 0.4 0
35.6 0.4 0
36 0.4 0
36.4 0.4 0
36.8 0.4 0
37.2 0.4 0
37.6 0.4 0
38 0.4 0
38.4 0.4 0
38.8 0.4 0
39.2 0.4 0
39.6 0.4 0
40 0.4 0
40.4 0.4 0
0 0.5 0
0.4 0.5 0
0.8 0.5 0
1.2 0.5 0
1.6 0.5 0
2 0.5 0
2.4 0.5 0
2.8 0.5 0
3.2 0.5 0
3.6 0.5 0
4 0.5 0
4.4 0.5 0
4.8 0.5 0
5.2 0.5 0
5.6 0.5 0
6 0.5 0
6.4 0.5 0
6.8 0.5 0
7.2 0.5 0
7.6 0.5 0
8 0.5 0
8.4 0.5 0
8.8 0.5 0
9.2 0.5 0
9.6 0.5 0
10 0.5 0
10.4 0.5 0
10.8 0.5 0
11.2 0.5 0
11.6 0.5 0
12 0.5 0
12.4 0.5 0
12.8 0.5 0
13.2 0.5 0
13.6 0.5 0
14 0.5 0
14.4 0.5 0
14.8 0.5 0
15.2 0.5 0
15.6 0.5 0
16 0.5 0
16.4 0.5 0
16.8 0.5 0
17.2 0.5 0
17.6 0.5 0
18 0.5 0
18.4 0.5 0
18.8 0.5 0
19.2 0.5 0
19.6 0.5 0
20 0.5 0
20.4 0.5 0
20.8 0.5 0
21.2 0.5 0
21.6 0.5 0
22 0.5 0
22.4 0.5 0
22.8 0.5 0
23.2 0.5 0
23.6 0.5 0
24 0.5 0
24.4 0.5 0
24.8 0.5 0
25.2 0.5 0
25.6 0.5 0
26 0.5 0
26.4 0.5 0
26.8 0.5 0
27.2 0.5 0
27.6 0.5 0
28 0.5 0
28.4 0.5 0
28.8 0.5 0
29.2 0.5 0
29.6 0.5 0
30 0.5 0
30.4 0.5 0
30.8 0.5 0
31.2 0.5 0
31.6 0.5 0
32 0.5 0
32.4 0.5 0
32.8 0.5 0
33.2 0.5 0
33.6 0.5 0
34 0.5 0
34.4 0.5 0
34.8 0.5 0
35.2 0.5 0
35.6 0.5 0
36 0.5 0
36.4 0.5 0
36.8 0.5 0
37.2 0.5 0
37.6 0.5 0
38 0.5 0
38.4 0.5 0
38.8 0.5 0
39.2 0.5 0
39.6 0.5 0
40 0.5 0
40.4 0.5 0
0 0.6 0
0.4 0.6 0
0.8 0.6 0
1.2 0.6 0
1.6 0.6 0
2 0.6 0
2.4 0.6 0
2.8 0.6 0
3.2 0.6 0
3.6 0.6 0
4 0.6 0
4.4 0.6 0
4.8 0.6 0
5.2 0.6 0
5.6 0.6 0
6 0.6 0
6.4 0.6 0
6.8 0.6 0
7.2 0.6 0
7.6 0.6 0
8 0.6 0
8.4 0.6 0
8.8 0.6 0
9.2 0.6 0
9.6 0.6 0
10 0.6 0
10.4 0.6 0
10.8 0.6 0
11.2 0.6 0
11.6 0.6 0
12 0.6 0
12.4 0.6 0
12.8 0.6 0
13.2 0.6 0
13.6 0.6 0
14 0.6 0
14.4 0.6 0
14.8 0.6 0
15.2 0.6 0
15.6 0.6 0
16 0.6 0
16.4 0.6 0
16.8 0.6 0
17.2 0.6 0
17.6 0.6 0
18 0.6 0
18.4 0.6 0
18.8 0.6 0
19.2 0.6 0
19.6 0.6 0
20 0.6 0
20.4 0.6 0
20.8 0.6 0
21.2 0.6 0
21.6 0.6 0
22 0.6 0
22.4 0.6 0
22.8 0.6 0
23.2 0.6 0
23.6 0.6 0
24 0.6 0
24.4 0.6 0
24.8 0.6 0
25.2 0.6 0
25.6 0.6 0
26 0.6 0
26.4 0.6 0
26.8 0.6 0
27.2 0.6 0
27.6 0.6 0
28 0.6 0
28.4 0.6 0
28.8 0.6 0
29.2 0.6 0
29.6 0.6 0
30 0.6 0
30.4 0.6 0
30.8 0.6 0
31.2 0.6 0
31.6 0.6 0
32 0.6 0
32.4 0.6 0
32.8 0.6 0
33.2 0.6 0
33.6 0.6 0
34 0.6 0
34.4 0.6 0
34.8 0.6 0
35.2 0.6 0
35.6 0.6 0
36 0.6 0
36.4 0.6 0
36.8 0.6 0
37.2 0.6 0
37.6 0.6 0
38 0.6 0
38.4 0.6 0
38.8 0.6 0
39.2 0.6 0
39.6 0.6 0
40 0.6 0
40.4 0.6 0
0 0.7 0
0.4 0.7 0
0.8 0.7 0
1.2 0.7 0
1.6 0.7 0
2 0.7 0
2.4 0.7 0
2.8 0.7 0
3.2 0.7 0
3.6 0.7 0
4 0.7 0
4.4 0.7 0
4.8 0.7 0
5.2 0.7 0
5.6 0.7 0
6 0.7 0
6.4 0.7 0
6.8 0.7 0
7.2 0.7 0
7.6 0.7 0
8 0.7 0
8.4 0.7 0
8.8 0.7 0
9.2 0.7 0
9.6 0.7 0
10 0.7 0
10.4 0.7 0
10.8 0.7 0
11.2 0.7 0
11.6 0.7 0
12 0.7 0
12.4 0.7 0
12.8 0.7 0
13.2 0.7 0
13.6 0.7 0
14 0.7 0
14.4 0.7 0
14.8 0.7 0
15.2 0.7 0
15.6 0.7 0
16 0.7 0
16.4 0.7 0
16.8 0.7 0
17.2 0.7 0
17.6 0.7 0
18 0.7 0
18.4 0.7 0
18.8 0.7 0
19.2 0.7 0
19.6 0.7 0
20 0.7 0
20.4 0.7 0
20.8 0.7 0
21.2 0.7 0
21.6 0.7 0
22 0.7 0
22.4 0.7 0
22.8 0.7 0
23.2 0.7 0
23.6 0.7 0
24 0.7 0
24.4 0.7 0
24.8 0.7 0
25.2 0.7 0
25.6 0.7 0
26 0.7 0
26.4 0.7 0
26.8 0.7 0
27.2 0.7 0
27.6 0.7 0
28 0.7 0
28.4 0.7 0
28.8 0.7 0
29.2 0.7 0
29.6 0.7 0
30 0.7 0
30.4 0.7 0
30.8 0.7 0
31.2 0.7 0
31.6 0.7 0
32 0.7 0
32.4 0.7 0
32.8 0.7 0
33.2 0.7 0
33.6 0.7 0
34 0.7 0
34.4 0.7 0
34.8 0.7 0
35.2 0.7 0
35.6 0.7 0
36 0.7 0
36.4 0.7 0
36.8 0.7 0
37.2 0.7 0
37.6 0.7 0
38 0.7 0
38.4 0.7 0
38.8 0.7 0
39.2 0.7 0
39.6 0.7 0
40 0.7 0
40.4 0.7 0
0 0.8 0
0.4 0.8 0
0.8 0.8 0
1.2 0.8 0
1.6 0.8 0
2 0.8 0
2.4 0.8 0
2.8 0.8 0
3.2 0.8 0
3.6 0.8 0
4 0.8 0
4.4 0.8 0
4.8 0.8 0
5.2 0.8 0
5.6 0.8 0
6 0.8 0
6.4 0.8 0
6.8 0.8 0
7.2 0.8 0
7.6 0.8 0
8 0.8 0
8.4 0.8 0
8.8 0.8 0
9.2 0.8 0
9.6 0.8 0
10 0.8 0
10.4 0.8 0
10.8 0.8 0
11.2 0.8 0
11.6 0.8 0
12 0.8 0
12.4 0.8 0
12.8 0.8 0
13.2 0.8 0
13.6 0.8 0
14 0.8 0
14.4 0.8 0
14.8 0.8 0
15.2 0.8 0
15.6 0.8 0
16 0.8 0
16.4 0.8 0
16.8 0.8 0
17.2 0.8 0
17.6 0.8 0
18 0.8 0
18.4 0.8 0
18.8 0.8 0
19.2 0.8 0
19.6 0.8 0
20 0.8 0
20.4 0.8 0
20.8 0.8 0
21.2 0.8 0
21.6 0.8 0
22 0.8 0
22.4 0.8 0
22.8 0.8 0
23.2 0.8 0
23.6 0.8 0
24 0.8 0
24.4 0.8 0
24.8 0.8 0
25.2 0.8 0
25.6 0.8 0
26 0.8 0
26.4 0.8 0
26.8 0.8 0
27.2 0.8 0
27.6 0.8 0
28 0.8 0
28.4 0.8 0
28.8 0.8 0
29.2 0.8 0
29.6 0.8 0
30 0.8 0
30.4 0.8 0
30.8 0.8 0
31.2 0.8 0
31.6 0.8 0
32 0.8 0
32.4 0.8 0
32.8 0.8 0
33.2 0.8 0
33.6 0.8 0
34 0.8 0
34.4 0.8 0
34.8 0.8 0
35.2 0.8 0
35.6 0.8 0
36 0.8 0
36.4 0.8 0
36.8 0.8 0
37.2 0.8 0
37.6 0.8 0
38 0.8 0
38.4 0.8 0
38.8 0.8 0
39.2 0.8 0
39.6 0.8 0
40 0.8 0
40.4 0.8 0
0 0.9 0
0.4 0.9 0
0.8 0.9 0
1.2 0.9 0
1.6 0.9 0
2 0.9 0
2.4 0.9 0
2.8 0.9 0
3.2 0.9 0
3.6 0.9 0
4 0.9 0
4.4 0.9 0
4.8 0.9 0
5.2 0.9 0
5.6 0.9 0
6 0.9 0
6.4 0.9 0
6.8 0.9 0
7.2 0.9 0
7.6 0.9 0
8 0.9 0
8.4 0.9 0
8.8 0.9 0
9.2 0.9 0
9.6 0.9 0
10 0.9 0
10.4 0.9 0
10.8 0.9 0
11.2 0.9 0
11.6 0.9 0
12 0.9 0
12.4 0.9 0
12.8 0.9 0
13.2 0.9 0
13.6 0.9 0
14 0.9 0
14.4 0.9 0
14.8 0.9 0
15.2 0.9 0
15.6 0.9 0
16 0.9 0
16.4 0.9 0
16.8 0.9 0
17.2 0.9 0
17.6 0.9 0
18 0.9 0
18.4 0.9 0
18.8 0.9 0
19.2 0.9 0
19.6 0.9 0
20 0.9 0
20.4 0.9 0
20.8 0.9 0
21.2 0.9 0
21.6 0.9 0
22 0.9 0
22.4 0.9 0
22.8 0.9 0
23.2 0.9 0
23.6 0.9 0
24 0.9 0
24.4 0.9 0
24.8 0.9 0
25.2 0.9 0
25.6 0.9 0
26 0.9 0
26.4 0.9 0
26.8 0.9 0
27.2 0.9 0
27.6 0.9 0
28 0.9 0
28.4 0.9 0
28.8 0.9 0
29.2 0.9 0
29.6 0.9 0
30 0.9 0
30.4 0.9 0
30.8 0.9 0
31.2 0.9 0
31.6 0.9 0
32 0.9 0
32.4 0.9 0
32.8 0.9 0
33.2 0.9 0
33.6 0.9 0
34 0.9 0
34.4 0.9 0
34.8 0.9 0
35.2 0.9 0
35.6 0.9 0
36 0.9 0
36.4 0.9 0
36.8 0.9 0
37.2 0.9 0
37.6 0.9 0
38 0.9 0
38.4 0.9 0
38.8 0.9 0
39.2 0.9 0
39.6 0.9 0
40 0.9 0
40.4 0.9 0
0 1 0
0.4 1 0
0.8 1 0
1.2 1 0
1.6 1 0
2 1 0
2.4 1 0
2.8 1 0
3.2 1 0
3.6 1 0
4 1 0
4.4 1 0
4.8 1 0
5.2 1 0
5.6 1 0
6 1 0
6.4 1 0
6.8 1 0
7.2 1 0
7.6 1 0
8 1 0
8.4 1 0
8.8 1 0
9.2 1 0
9.6 1 0
10 1 0
10.4 1 0
10.8 1 0
11.2 1 0
11.6 1 0
12 1 0
12.4 1 0
12.8 1 0
13.2 1 0
13.6 1 0
14 1 0
14.4 1 0
14.8 1 0
15.2 1 0
15.6 1 0
16 1 0
16.4 1 0
16.8 1 0
17.2 1 0
17.6 1 0
18 1 0
18.4 1 0
18.8 1 0
19.2 1 0
19.6 1 0
20 1 0
20.4 1 0
20.8 1 0
21.2 1 0
21.6 1 0
22 1 0
22.4 1 0
22.8 1 0
23.2 1 0
23.6 1 0
24 1 0
24.4 1 0
24.8 1 0
25.2 1 0
25.6 1 0
26 1 0
26.4 1 0
26.8 1 0
27.2 1 0
27.6 1 0
28 1 0
28.4 1 0
28.8 1 0
29.2 1 0
29.6 1 0
30 1 0
30.4 1 0
30.8 1 0
31.2 1 0
31.6 1 0
32 1 0
32.4 1 0
32.8 1 0
33.2 1 0
33.6 1 0
34 1 0
34.4 1 0
34.8 1 0
35.2 1 0
35.6 1 0
36 1 0
36.4 1 0
36.8 1 0
37.2 1 0
37.6 1 0
38 1 0
38.4 1 0
38.8 1 0
39.2 1 0
39.6 1 0
40 1 0
40.4 1 0
0 1.1 0
0.4 1.1 0
0.8 1.1 0
1.2 1.1 0
1.6 1.1 0
2 1.1 0
2.4 1.1 0
2.8 1.1 0
3.2 1.1 0
3.6 1.1 0
4 1.1 0
4.4 1.1 0
4.8 1.1 0
5.2 1.1 0
5.6 1.1 0
6 1.1 0
6.4 1.1 0
6.8 1.1 0
7.2 1.1 0
7.6 1.1 0
8 1.1 0
8.4 1.1 0
8.8 1.1 0
9.2 1.1 0
9.6 1.1 0
10 1.1 0
10.4 1.1 0
10.8 1.1 0
11.2 1.1 0
11.6 1.1 0
12 1.1 0
12.4 1.1 0
12.8 1.1 0
13.2 1.1 0
13.6 1.1 0
14 1.1 0
14.4 1.1 0
14.8 1.1 0
15.2 1.1 0
15.6 1.1 0
16 1.1 0
16.4 1.1 0
16.8 1.1 0
17.2 1.1 0
17.6 1.1 0
18 1.1 0
18.4 1.1 0
18.8 1.1 0
19.2 1.1 0
19.6 1.1 0
20 1.1 0
20.4 1.1 0
20.8 1.1 0
21.2 1.1 0
21.6 1.1 0
22 1.1 0
22.4 1.1 0
22.8 1.1 0
23.2 1.1 0
23.6 1.1 0
24 1.1 0
24.4 1.1 0
24.8 1.1 0
25.2 1.1 0
25.6 1.1 0
26 1.1 0
26.4 1.1 0
26.8 1.1 0
27.2 1.1 0
27.6 1.1 0
28 1.1 0
28.4 1.1 0
28.8 1.1 0
29.2 1.1 0
29.6 1.1 0
30 1.1 0
30.4 1.1 0
30.8 1.1 0
31.2 1.1 0
31.6 1.1 0
32 1.1 0
32.4 1.1 0
32.8 1.1 0
33.2 1.1 0
33.6 1.1 0
34 1.1 0
34.4 1.1 0
34.8 1.1 0
35.2 1.1 0
35.6 1.1 0
36 1.1 0
36.4 1.1 0
36.8 1.1 0
37.2 1.1 0
37.6 1.1 0
38 1.1 0
38.4 1.1 0
38.8 1.1 0
39.2 1.1 0
39.6 1.1 0
40 1.1 0
40.4 1.1 0

POINT_DATA 1224

SCALARS phi double
LOOKUP_TABLE default
0.999994
1.00001
0.999956
0.999559
0.9983
0.995702
0.991537
0.9858
0.978615
0.970168
0.960673
0.950341
0.939373
0.927949
0.916226
0.904334
0.892377
0.880425
0.868511
0.856623
0.844704
0.832654
0.820338
0.8076
0.794276
0.780212
0.765273
0.749358
0.732405
0.714389
0.695328
0.675273
0.654305
0.632529
0.610066
0.587047
0.563607
0.53988
0.515995
0.492073
0.468224
0.444549
0.421136
0.398062
0.375393
0.353183
0.33148
0.310323
0.289743
0.269768
0.250422
0.231723
0.213691
0.196342
0.179691
0.163757
0.148554
0.134099
0.12041
0.107503
0.0953934
0.0840951
0.0736186
0.0639704
0.0551514
0.0471555
0.0399694
0.0335714
0.0279315
0.0230117
0.0187668
0.0151458
0.0120931
0.00955033
0.00745842
0.00575894
0.0043958
0.00331647
0.00247293
0.00182225
0.0013269
0.000954729
0.000678774
0.000476834
0.000330984
0.000227013
0.000153855
0.000103039
6.81933e-05
4.4602e-05
2.88313e-05
1.84204e-05
1.16329e-05
7.26216e-06
4.4819e-06
2.73473e-06
1.64988e-06
9.84346e-07
5.80359e-07
3.40814e-07
1.83908e-07
1.83908e-07
0.999994
1.00001
0.999956
0.999559
0.9983
0.995702
0.991537
0.9858
0.978615
0.970168
0.960673
0.950341
0.939373
0.927949
0.916226
0.904334
0.892377
0.880425
0.868511
0.856623
0.844704
0.832654
0.820338
0.8076
0.794276
0.780212
0.765273
0.749358
0.732405
0.714389
0.695328
0.675273
0.654305
0.632529
0.610066
0.587047
0.563607
0.53988
0.515995
0.492073
0.468224
0.444549
0.421136
0.398062
0.375393
0.353183
0.33148
0.310323
0.289743
0.269768
0.250422
0.231723
0.213691
0.196342
0.179691
0.163757
0.148554
0.134099
0.12041
0.107503
0.0953934
0.0840951
0.0736186
0.0639704
0.0551514
0.0471555
0.0399694
0.0335714
0.0279315
0.0230117
0.0187668
0.0151458
0.0120931
0.00955033
0.00745842
0.00575894
0.0043958
0.00331647
0.00247293
0.00182225
0.0013269
0.000954729
0.000678774
0.000476834
0.000330984
0.000227013
0.000153855
0.000103039
6.81933e-05
4.4602e-05
2.88313e-05
1.84204e-05
1.16329e-05
7.26216e-06
4.4819e-06
2.73473e-06
1.64988e-06
9.84346e-07
5.80359e-07
3.40814e-07
1.83908e-07
1.83908e-07
0.99999
1.00001
0.999544
0.998171
0.995436
0.991089
0.985125
0.977695
0.969019
0.959326
0.948839
0.937759
0.926259
0.91449
0.902577
0.890622
0.878709
0.866898
0.855226
0.843701
0.832301
0.820971
0.809623
0.798146
0.78641
0.774277
0.761613
0.748297
0.73423
0.719337
0.703577
0.686937
0.669433
0.651108
0.632025
0.612266
0.591923
0.571097
0.54989
0.528407
0.506746
0.485004
0.463266
0.441615
0.42012
0.398846
0.377848
0.357174
0.336866
0.316961
0.297489
0.278479
0.259953
0.241935
0.224445
0.207501
0.191124
0.175331
0.160142
0.145579
0.131662
0.118416
0.105864
0.09403
0.0829389
0.0726119
0.0630669
0.0543162
0.0463646
0.0392084
0.032834
0.0272176
0.0223254
0.0181148
0.0145354
0.011531
0.00904194
0.00700692
0.00536534
0.00405899
0.00303352
0.00223951
0.0016331
0.00117629
0.000836857
0.000588068
0.000408178
0.000279855
0.000189537
0.000126811
8.38199e-05
5.47387e-05
3.53207e-05
2.2521e-05
1.41907e-05
8.83728e-06
5.43955e-06
3.30995e-06
1.98942e-06
1.1917e-06
6.52334e-07
6.52334e-07
1.00047
0.999533
0.995342
0.988481
0.979264
0.968242
0.956033
0.943149
0.929951
0.916682
0.903497
0.890497
0.877745
0.865283
0.853133
0.841311
0.829824
0.818674
0.807856
0.797358
0.787156
0.777213
0.767476
0.757875
0.748326
0.738731
0.728985
0.718982
0.708617
0.697798
0.686442
0.674486
0.661886
0.648614
0.634667
0.620053
0.604802
0.588951
0.572552
0.555661
0.538341
0.520656
0.502671
0.484449
0.466053
0.447538
0.428959
0.410366
0.391803
0.373313
0.354933
0.336698
0.318639
0.300785
0.283165
0.265802
0.248722
0.231947
0.215502
0.199412
0.183703
0.168408
0.153562
0.139206
0.125388
0.11216
0.0995764
0.087694
0.0765664
0.0662416
0.0567582
0.0481424
0.0404055
0.0335427
0.0275326
0.0223388
0.017911
0.0141883
0.0111023
0.00858034
0.00654869
0.00493543
0.00367276
0.00269861
0.00195778
0.00140238
0.000991876
0.000692709
0.000477716
0.00032534
0.00021882
0.000145361
9.53801e-05
6.18236e-05
3.95892e-05
2.50477e-05
1.5659e-05
9.67519e-06
5.9026e-06
3.59008e-06
1.99078e-06
1.99078e-06
1.00913
0.990874
0.963593
0.936344
0.910574
0.88679
0.865195
0.845729
0.828186
0.812315
0.797874
0.784649
0.77246
0.761157
0.750618
0.740743
0.731448
0.722667
0.714341
0.706423
0.698869
0.691637
0.684683
0.67796
0.671414
0.664985
0.658606
0.652206
0.645707
0.639033
0.632108
0.624861
0.617227
0.60915
0.600584
0.591494
0.581855
0.571654
0.560888
0.549561
0.537686
0.525283
0.512376
0.498993
0.485165
0.470925
0.456306
0.441343
0.426069
0.410518
0.394725
0.378722
0.362544
0.346221
0.329787
0.313273
0.296709
0.280125
0.263552
0.247019
0.230561
0.214215
0.198024
0.182043
0.166332
0.150966
0.136026
0.121604
0.107796
0.0946963
0.0823954
0.0709724
0.0604906
0.0509932
0.0425008
0.0350104
0.0284962
0.0229119
0.0181943
0.014267
0.011046
0.00844326
0.00637117
0.00474588
0.00348976
0.00253314
0.00181517
0.00128406
0.000896788
0.000618377
0.000421027
0.000283069
0.000187949
0.000123252
7.98351e-05
5.1084e-05
3.22928e-05
2.01724e-05
1.24394e-05
7.64899e-06
4.28374e-06
4.28374e-06
1.10476
0.895237
0.791779
0.734418
0.698349
0.673559
0.65547
0.641661
0.630713
0.621752
0.614215
0.607733
0.602055
0.597005
0.592456
0.588315
0.584512
0.580993
0.577715
0.574645
0.571755
0.569022
0.566422
0.563933
0.561532
0.559191
0.55688
0.554562
0.552197
0.549741
0.547144
0.544357
0.541326
0.538
0.534328
0.530262
0.525759
0.520776
0.51528
0.50924
0.502633
0.495438
0.487644
0.47924
0.470224
0.460597
0.450365
0.439537
0.428129
0.416158
0.403645
0.390617
0.377102
0.363132
0.348741
0.333964
0.318838
0.303402
0.287693
0.271751
0.255619
0.239343
0.222977
0.206584
0.190237
0.174025
0.158048
0.142417
0.127256
0.112688
0.0988375
0.0858182
0.0737294
0.0626489
0.0526292
0.0436949
0.0358423
0.0290411
0.0232376
0.0183594
0.0143205
0.0110267
0.00838102
0.0062877
0.00465613
0.00340328
0.0024554
0.0017487
0.00122941
0.000853294
0.000584725
0.000395633
0.000264337
0.000174417
0.000113666
7.31694e-05
4.65288e-05
2.92357e-05
1.81319e-05
1.12146e-05
6.31492e-06
6.31492e-06
-0.104763
0.104763
0.208221
0.265582
0.301651
0.326442
0.34453
0.358339
0.369287
0.378249
0.385785
0.392267
0.397945
0.402995
0.407544
0.411685
0.415488
0.419007
0.422285
0.425355
0.428243
0.43097
0.433553
0.436004
0.43833
0.440536
0.44262
0.444577
0.446394
0.448056
0.44954
0.450818
0.451856
0.452619
0.453063
0.453146
0.45282
0.452038
0.450754
0.44892
0.446492
0.44343
0.439697
0.43526
0.430092
0.424172
0.417487
0.410029
0.401798
0.3928
0.383051
0.372572
0.36139
0.349539
0.337058
0.32399
0.310383
0.296283
0.281743
0.266814
0.251554
0.236022
0.220285
0.204419
0.188511
0.172661
0.156978
0.141587
0.126617
0.112201
0.0984694
0.0855429
0.0735255
0.0624994
0.0525207
0.043617
0.0357869
0.0290021
0.0232105
0.0183407
0.0143077
0.0110181
0.00837528
0.00628392
0.00465366
0.00340169
0.00245438
0.00174805
0.00122901
0.000853045
0.000584573
0.00039554
0.000264281
0.000174385
0.000113647
7.31583e-05
4.65224e-05
2.9232e-05
1.81299e-05
1.12135e-05
6.31433e-06
6.31433e-06
-0.00912621
0.00912621
0.036407
0.0636559
0.0894265
0.11321
0.134805
0.154271
0.171814
0.187685
0.202126
0.215351
0.22754
0.238843
0.249381
0.259257
0.268552
0.277334
0.285659
0.293574
0.301117
0.30832
0.315211
0.321811
0.328138
0.334205
0.340021
0.34559
0.35091
0.355974
0.360769
0.365275
0.369466
0.373308
0.376764
0.37979
0.382338
0.384356
0.385792
0.386592
0.386704
0.386079
0.384672
0.382443
0.37936
0.375397
0.37054
0.36478
0.358121
0.350576
0.342167
0.332926
0.322891
0.312111
0.300638
0.288531
0.275853
0.262669
0.249047
0.235055
0.220768
0.206261
0.191616
0.176921
0.162273
0.147777
0.133542
0.119687
0.106329
0.0935851
0.0815614
0.0703525
0.0600344
0.0506608
0.042261
0.0348392
0.0283752
0.0228273
0.0181357
0.014227
0.0110189
0.00842507
0.00635911
0.00473797
0.00348463
0.00252985
0.00181308
0.00128275
0.000895971
0.000617875
0.000420721
0.000282886
0.00018784
0.000123188
7.97975e-05
5.10623e-05
3.22805e-05
2.01654e-05
1.24355e-05
7.64681e-06
4.28264e-06
4.28264e-06
-0.000467025
0.000467025
0.00465755
0.0115186
0.0207356
0.0317579
0.0439669
0.0568514
0.0700488
0.083318
0.0965028
0.109503
0.122254
0.134717
0.146867
0.158689
0.170177
0.181327
0.192141
0.20262
0.212769
0.222593
0.232098
0.241287
0.250164
0.25873
0.266983
0.274917
0.28252
0.289776
0.296662
0.303148
0.309199
0.314771
0.319817
0.324286
0.328121
0.331267
0.333666
0.335265
0.336013
0.335865
0.334785
0.332745
0.329725
0.325719
0.320729
0.314773
0.307875
0.300075
0.291418
0.281963
0.271773
0.260921
0.249483
0.237538
0.22517
0.212462
0.199499
0.186367
0.173151
0.159939
0.14682
0.133883
0.12122
0.108925
0.0970874
0.0857962
0.0751327
0.0651686
0.0559627
0.0475584
0.0399809
0.0332371
0.0273149
0.0221852
0.0178038
0.0141143
0.0110517
0.00854611
0.00652577
0.00492026
0.00366282
0.00269217
0.00195365
0.00139976
0.00099023
0.000691687
0.000477087
0.000324959
0.00021859
0.000145224
9.52995e-05
6.17766e-05
3.95621e-05
2.50322e-05
1.56503e-05
9.67031e-06
5.8999e-06
3.58859e-06
1.99003e-06
1.99003e-06
9.54835e-06
-9.54835e-06
0.000456061
0.00182854
0.00456363
0.00891112
0.0148752
0.0223044
0.0309812
0.0406737
0.0511603
0.0622409
0.0737403
0.0855094
0.0974232
0.109379
0.121293
0.1331
0.144746
0.15619
0.167401
0.178354
0.189029
0.199407
0.209472
0.219207
0.228589
0.237594
0.246191
0.254344
0.262009
0.269137
0.275675
0.281564
0.286743
0.29115
0.294724
0.297407
0.299147
0.299899
0.299626
0.298305
0.295921
0.292474
0.287977
0.282454
0.275946
0.268503
0.260187
0.251069
0.24123
0.230757
0.219743
0.208283
0.196475
0.184418
0.17221
0.159947
0.147723
0.13563
0.123754
0.112181
0.100987
0.0902483
0.0800311
0.0703955
0.0613924
0.0530626
0.0454347
0.0385251
0.0323366
0.026859
0.0220695
0.0179339
0.0144088
0.0114433
0.00898181
0.00696611
0.00533793
0.00404077
0.00302154
0.0022317
0.00162807
0.00117308
0.000834835
0.000586806
0.000407399
0.000279378
0.000189249
0.000126638
8.37177e-05
5.46787e-05
3.5286e-05
2.25011e-05
1.41794e-05
8.83089e-06
5.43599e-06
3.30799e-06
1.98835e-06
1.19111e-06
6.52044e-07
6.52044e-07
5.82414e-06
-5.82414e-06
4.36942e-05
0.000440584
0.00170024
0.00429825
0.00846288
0.0141997
0.0213849
0.0298313
0.039327
0.0496587
0.0606261
0.0720499
0.0837747
0.0956694
0.107626
0.119555
0.131387
0.143066
0.154545
0.165787
0.176761
0.187437
0.197784
0.207772
0.217364
0.226518
0.235187
0.243316
0.250847
0.257715
0.263853
0.269191
0.273662
0.277202
0.279751
0.281259
0.281684
0.280998
0.279184
0.276243
0.272186
0.267043
0.260857
0.253682
0.24559
0.236659
0.226979
0.216646
0.205765
0.19444
0.182782
0.1709
0.158902
0.146894
0.13498
0.123257
0.111818
0.100748
0.0901262
0.0800222
0.070496
0.061597
0.0533632
0.0458204
0.0389816
0.0328473
0.0274056
0.0226334
0.0184974
0.0149557
0.0119603
0.00945847
0.00739552
0.0057163
0.00436718
0.00329746
0.00246043
0.00181412
0.00132166
0.00095139
0.000676667
0.000475519
0.000330171
0.000226516
0.000153554
0.000102858
6.80862e-05
4.45391e-05
2.87948e-05
1.83994e-05
1.1621e-05
7.25541e-06
4.47814e-06
2.73264e-06
1.64874e-06
9.83729e-07
5.80028e-07
3.40638e-07
1.83821e-07
1.83821e-07
5.82414e-06
-5.82414e-06
4.36942e-05
0.000440584
0.00170024
0.00429825
0.00846288
0.0141997
0.0213849
0.0298313
0.039327
0.0496587
0.0606261
0.0720499
0.0837747
0.0956694
0.107626
0.119555
0.131387
0.143066
0.154545
0.165787
0.176761
0.187437
0.197784
0.207772
0.217364
0.226518
0.235187
0.243316
0.250847
0.257715
0.263853
0.269191
0.273662
0.277202
0.279751
0.281259
0.281684
0.280998
0.279184
0.276243
0.272186
0.267043
0.260857
0.253682
0.24559
0.236659
0.226979
0.216646
0.205765
0.19444
0.182782
0.1709
0.158902
0.146894
0.13498
0.123257
0.111818
0.100748
0.0901262
0.0800222
0.070496
0.061597
0.0533632
0.0458204
0.0389816
0.0328473
0.0274056
0.0226334
0.0184974
0.0149557
0.0119603
0.00945847
0.00739552
0.0057163
0.00436718
0.00329746
0.00246043
0.00181412
0.00132166
0.00095139
0.000676667
0.000475519
0.000330171
0.000226516
0.000153554
0.000102858
6.80862e-05
4.45391e-05
2.87948e-05
1.83994e-05
1.1621e-05
7.25541e-06
4.47814e-06
2.73264e-06
1.64874e-06
9.83729e-07
5.80028e-07
3.40638e-07
1.83821e-07
1.83821e-07
