# vtk DataFile Version 2.0
FlowField
ASCII
DATASET STRUCTURED_GRID
DIMENSIONS 102 1 12 
POINTS 1224 double
0 0 0
0.3 0 0
0.6 0 0
0.9 0 0
1.2 0 0
1.5 0 0
1.8 0 0
2.1 0 0
2.4 0 0
2.7 0 0
3 0 0
3.3 0 0
3.6 0 0
3.9 0 0
4.2 0 0
4.5 0 0
4.8 0 0
5.1 0 0
5.4 0 0
5.7 0 0
6 0 0
6.3 0 0
6.6 0 0
6.9 0 0
7.2 0 0
7.5 0 0
7.8 0 0
8.1 0 0
8.4 0 0
8.7 0 0
9 0 0
9.3 0 0
9.6 0 0
9.9 0 0
10.2 0 0
10.5 0 0
10.8 0 0
11.1 0 0
11.4 0 0
11.7 0 0
12 0 0
12.3 0 0
12.6 0 0
12.9 0 0
13.2 0 0
13.5 0 0
13.8 0 0
14.1 0 0
14.4 0 0
14.7 0 0
15 0 0
15.3 0 0
15.6 0 0
15.9 0 0
16.2 0 0
16.5 0 0
16.8 0 0
17.1 0 0
17.4 0 0
17.7 0 0
18 0 0
18.3 0 0
18.6 0 0
18.9 0 0
19.2 0 0
19.5 0 0
19.8 0 0
20.1 0 0
20.4 0 0
20.7 0 0
21 0 0
21.3 0 0
21.6 0 0
21.9 0 0
22.2 0 0
22.5 0 0
22.8 0 0
23.1 0 0
23.4 0 0
23.7 0 0
24 0 0
24.3 0 0
24.6 0 0
24.9 0 0
25.2 0 0
25.5 0 0
25.8 0 0
26.1 0 0
26.4 0 0
26.7 0 0
27 0 0
27.3 0 0
27.6 0 0
27.9 0 0
28.2 0 0
28.5 0 0
28.8 0 0
29.1 0 0
29.4 0 0
29.7 0 0
30 0 0
30.3 0 0
0 0.1 0
0.3 0.1 0
0.6 0.1 0
0.9 0.1 0
1.2 0.1 0
1.5 0.1 0
1.8 0.1 0
2.1 0.1 0
2.4 0.1 0
2.7 0.1 0
3 0.1 0
3.3 0.1 0
3.6 0.1 0
3.9 0.1 0
4.2 0.1 0
4.5 0.1 0
4.8 0.1 0
5.1 0.1 0
5.4 0.1 0
5.7 0.1 0
6 0.1 0
6.3 0.1 0
6.6 0.1 0
6.9 0.1 0
7.2 0.1 0
7.5 0.1 0
7.8 0.1 0
8.1 0.1 0
8.4 0.1 0
8.7 0.1 0
9 0.1 0
9.3 0.1 0
9.6 0.1 0
9.9 0.1 0
10.2 0.1 0
10.5 0.1 0
10.8 0.1 0
11.1 0.1 0
11.4 0.1 0
11.7 0.1 0
12 0.1 0
12.3 0.1 0
12.6 0.1 0
12.9 0.1 0
13.2 0.1 0
13.5 0.1 0
13.8 0.1 0
14.1 0.1 0
14.4 0.1 0
14.7 0.1 0
15 0.1 0
15.3 0.1 0
15.6 0.1 0
15.9 0.1 0
16.2 0.1 0
16.5 0.1 0
16.8 0.1 0
17.1 0.1 0
17.4 0.1 0
17.7 0.1 0
18 0.1 0
18.3 0.1 0
18.6 0.1 0
18.9 0.1 0
19.2 0.1 0
19.5 0.1 0
19.8 0.1 0
20.1 0.1 0
20.4 0.1 0
20.7 0.1 0
21 0.1 0
21.3 0.1 0
21.6 0.1 0
21.9 0.1 0
22.2 0.1 0
22.5 0.1 0
22.8 0.1 0
23.1 0.1 0
23.4 0.1 0
23.7 0.1 0
24 0.1 0
24.3 0.1 0
24.6 0.1 0
24.9 0.1 0
25.2 0.1 0
25.5 0.1 0
25.8 0.1 0
26.1 0.1 0
26.4 0.1 0
26.7 0.1 0
27 0.1 0
27.3 0.1 0
27.6 0.1 0
27.9 0.1 0
28.2 0.1 0
28.5 0.1 0
28.8 0.1 0
29.1 0.1 0
29.4 0.1 0
29.7 0.1 0
30 0.1 0
30.3 0.1 0
0 0.2 0
0.3 0.2 0
0.6 0.2 0
0.9 0.2 0
1.2 0.2 0
1.5 0.2 0
1.8 0.2 0
2.1 0.2 0
2.4 0.2 0
2.7 0.2 0
3 0.2 0
3.3 0.2 0
3.6 0.2 0
3.9 0.2 0
4.2 0.2 0
4.5 0.2 0
4.8 0.2 0
5.1 0.2 0
5.4 0.2 0
5.7 0.2 0
6 0.2 0
6.3 0.2 0
6.6 0.2 0
6.9 0.2 0
7.2 0.2 0
7.5 0.2 0
7.8 0.2 0
8.1 0.2 0
8.4 0.2 0
8.7 0.2 0
9 0.2 0
9.3 0.2 0
9.6 0.2 0
9.9 0.2 0
10.2 0.2 0
10.5 0.2 0
10.8 0.2 0
11.1 0.2 0
11.4 0.2 0
11.7 0.2 0
12 0.2 0
12.3 0.2 0
12.6 0.2 0
12.9 0.2 0
13.2 0.2 0
13.5 0.2 0
13.8 0.2 0
14.1 0.2 0
14.4 0.2 0
14.7 0.2 0
15 0.2 0
15.3 0.2 0
15.6 0.2 0
15.9 0.2 0
16.2 0.2 0
16.5 0.2 0
16.8 0.2 0
17.1 0.2 0
17.4 0.2 0
17.7 0.2 0
18 0.2 0
18.3 0.2 0
18.6 0.2 0
18.9 0.2 0
19.2 0.2 0
19.5 0.2 0
19.8 0.2 0
20.1 0.2 0
20.4 0.2 0
20.7 0.2 0
21 0.2 0
21.3 0.2 0
21.6 0.2 0
21.9 0.2 0
22.2 0.2 0
22.5 0.2 0
22.8 0.2 0
23.1 0.2 0
23.4 0.2 0
23.7 0.2 0
24 0.2 0
24.3 0.2 0
24.6 0.2 0
24.9 0.2 0
25.2 0.2 0
25.5 0.2 0
25.8 0.2 0
26.1 0.2 0
26.4 0.2 0
26.7 0.2 0
27 0.2 0
27.3 0.2 0
27.6 0.2 0
27.9 0.2 0
28.2 0.2 0
28.5 0.2 0
28.8 0.2 0
29.1 0.2 0
29.4 0.2 0
29.7 0.2 0
30 0.2 0
30.3 0.2 0
0 0.3 0
0.3 0.3 0
0.6 0.3 0
0.9 0.3 0
1.2 0.3 0
1.5 0.3 0
1.8 0.3 0
2.1 0.3 0
2.4 0.3 0
2.7 0.3 0
3 0.3 0
3.3 0.3 0
3.6 0.3 0
3.9 0.3 0
4.2 0.3 0
4.5 0.3 0
4.8 0.3 0
5.1 0.3 0
5.4 0.3 0
5.7 0.3 0
6 0.3 0
6.3 0.3 0
6.6 0.3 0
6.9 0.3 0
7.2 0.3 0
7.5 0.3 0
7.8 0.3 0
8.1 0.3 0
8.4 0.3 0
8.7 0.3 0
9 0.3 0
9.3 0.3 0
9.6 0.3 0
9.9 0.3 0
10.2 0.3 0
10.5 0.3 0
10.8 0.3 0
11.1 0.3 0
11.4 0.3 0
11.7 0.3 0
12 0.3 0
12.3 0.3 0
12.6 0.3 0
12.9 0.3 0
13.2 0.3 0
13.5 0.3 0
13.8 0.3 0
14.1 0.3 0
14.4 0.3 0
14.7 0.3 0
15 0.3 0
15.3 0.3 0
15.6 0.3 0
15.9 0.3 0
16.2 0.3 0
16.5 0.3 0
16.8 0.3 0
17.1 0.3 0
17.4 0.3 0
17.7 0.3 0
18 0.3 0
18.3 0.3 0
18.6 0.3 0
18.9 0.3 0
19.2 0.3 0
19.5 0.3 0
19.8 0.3 0
20.1 0.3 0
20.4 0.3 0
20.7 0.3 0
21 0.3 0
21.3 0.3 0
21.6 0.3 0
21.9 0.3 0
22.2 0.3 0
22.5 0.3 0
22.8 0.3 0
23.1 0.3 0
23.4 0.3 0
23.7 0.3 0
24 0.3 0
24.3 0.3 0
24.6 0.3 0
24.9 0.3 0
25.2 0.3 0
25.5 0.3 0
25.8 0.3 0
26.1 0.3 0
26.4 0.3 0
26.7 0.3 0
27 0.3 0
27.3 0.3 0
27.6 0.3 0
27.9 0.3 0
28.2 0.3 0
28.5 0.3 0
28.8 0.3 0
29.1 0.3 0
29.4 0.3 0
29.7 0.3 0
30 0.3 0
30.3 0.3 0
0 0.4 0
0.3 0.4 0
0.6 0.4 0
0.9 0.4 0
1.2 0.4 0
1.5 0.4 0
1.8 0.4 0
2.1 0.4 0
2.4 0.4 0
2.7 0.4 0
3 0.4 0
3.3 0.4 0
3.6 0.4 0
3.9 0.4 0
4.2 0.4 0
4.5 0.4 0
4.8 0.4 0
5.1 0.4 0
5.4 0.4 0
5.7 0.4 0
6 0.4 0
6.3 0.4 0
6.6 0.4 0
6.9 0.4 0
7.2 0.4 0
7.5 0.4 0
7.8 0.4 0
8.1 0.4 0
8.4 0.4 0
8.7 0.4 0
9 0.4 0
9.3 0.4 0
9.6 0.4 0
9.9 0.4 0
10.2 0.4 0
10.5 0.4 0
10.8 0.4 0
11.1 0.4 0
11.4 0.4 0
11.7 0.4 0
12 0.4 0
12.3 0.4 0
12.6 0.4 0
12.9 0.4 0
13.2 0.4 0
13.5 0.4 0
13.8 0.4 0
14.1 0.4 0
14.4 0.4 0
14.7 0.4 0
15 0.4 0
15.3 0.4 0
15.6 0.4 0
15.9 0.4 0
16.2 0.4 0
16.5 0.4 0
16.8 0.4 0
17.1 0.4 0
17.4 0.4 0
17.7 0.4 0
18 0.4 0
18.3 0.4 0
18.6 0.4 0
18.9 0.4 0
19.2 0.4 0
19.5 0.4 0
19.8 0.4 0
20.1 0.4 0
20.4 0.4 0
20.7 0.4 0
21 0.4 0
21.3 0.4 0
21.6 0.4 0
21.9 0.4 0
22.2 0.4 0
22.5 0.4 0
22.8 0.4 0
23.1 0.4 0
23.4 0.4 0
23.7 0.4 0
24 0.4 0
24.3 0.4 0
24.6 0.4 0
24.9 0.4 0
25.2 0.4 0
25.5 0.4 0
25.8 0.4 0
26.1 0.4 0
26.4 0.4 0
26.7 0.4 0
27 0.4 0
27.3 0.4 0
27.6 0.4 0
27.9 0.4 0
28.2 0.4 0
28.5 0.4 0
28.8 0.4 0
29.1 0.4 0
29.4 0.4 0
29.7 0.4 0
30 0.4 0
30.3 0.4 0
0 0.5 0
0.3 0.5 0
0.6 0.5 0
0.9 0.5 0
1.2 0.5 0
1.5 0.5 0
1.8 0.5 0
2.1 0.5 0
2.4 0.5 0
2.7 0.5 0
3 0.5 0
3.3 0.5 0
3.6 0.5 0
3.9 0.5 0
4.2 0.5 0
4.5 0.5 0
4.8 0.5 0
5.1 0.5 0
5.4 0.5 0
5.7 0.5 0
6 0.5 0
6.3 0.5 0
6.6 0.5 0
6.9 0.5 0
7.2 0.5 0
7.5 0.5 0
7.8 0.5 0
8.1 0.5 0
8.4 0.5 0
8.7 0.5 0
9 0.5 0
9.3 0.5 0
9.6 0.5 0
9.9 0.5 0
10.2 0.5 0
10.5 0.5 0
10.8 0.5 0
11.1 0.5 0
11.4 0.5 0
11.7 0.5 0
12 0.5 0
12.3 0.5 0
12.6 0.5 0
12.9 0.5 0
13.2 0.5 0
13.5 0.5 0
13.8 0.5 0
14.1 0.5 0
14.4 0.5 0
14.7 0.5 0
15 0.5 0
15.3 0.5 0
15.6 0.5 0
15.9 0.5 0
16.2 0.5 0
16.5 0.5 0
16.8 0.5 0
17.1 0.5 0
17.4 0.5 0
17.7 0.5 0
18 0.5 0
18.3 0.5 0
18.6 0.5 0
18.9 0.5 0
19.2 0.5 0
19.5 0.5 0
19.8 0.5 0
20.1 0.5 0
20.4 0.5 0
20.7 0.5 0
21 0.5 0
21.3 0.5 0
21.6 0.5 0
21.9 0.5 0
22.2 0.5 0
22.5 0.5 0
22.8 0.5 0
23.1 0.5 0
23.4 0.5 0
23.7 0.5 0
24 0.5 0
24.3 0.5 0
24.6 0.5 0
24.9 0.5 0
25.2 0.5 0
25.5 0.5 0
25.8 0.5 0
26.1 0.5 0
26.4 0.5 0
26.7 0.5 0
27 0.5 0
27.3 0.5 0
27.6 0.5 0
27.9 0.5 0
28.2 0.5 0
28.5 0.5 0
28.8 0.5 0
29.1 0.5 0
29.4 0.5 0
29.7 0.5 0
30 0.5 0
30.3 0.5 0
0 0.6 0
0.3 0.6 0
0.6 0.6 0
0.9 0.6 0
1.2 0.6 0
1.5 0.6 0
1.8 0.6 0
2.1 0.6 0
2.4 0.6 0
2.7 0.6 0
3 0.6 0
3.3 0.6 0
3.6 0.6 0
3.9 0.6 0
4.2 0.6 0
4.5 0.6 0
4.8 0.6 0
5.1 0.6 0
5.4 0.6 0
5.7 0.6 0
6 0.6 0
6.3 0.6 0
6.6 0.6 0
6.9 0.6 0
7.2 0.6 0
7.5 0.6 0
7.8 0.6 0
8.1 0.6 0
8.4 0.6 0
8.7 0.6 0
9 0.6 0
9.3 0.6 0
9.6 0.6 0
9.9 0.6 0
10.2 0.6 0
10.5 0.6 0
10.8 0.6 0
11.1 0.6 0
11.4 0.6 0
11.7 0.6 0
12 0.6 0
12.3 0.6 0
12.6 0.6 0
12.9 0.6 0
13.2 0.6 0
13.5 0.6 0
13.8 0.6 0
14.1 0.6 0
14.4 0.6 0
14.7 0.6 0
15 0.6 0
15.3 0.6 0
15.6 0.6 0
15.9 0.6 0
16.2 0.6 0
16.5 0.6 0
16.8 0.6 0
17.1 0.6 0
17.4 0.6 0
17.7 0.6 0
18 0.6 0
18.3 0.6 0
18.6 0.6 0
18.9 0.6 0
19.2 0.6 0
19.5 0.6 0
19.8 0.6 0
20.1 0.6 0
20.4 0.6 0
20.7 0.6 0
21 0.6 0
21.3 0.6 0
21.6 0.6 0
21.9 0.6 0
22.2 0.6 0
22.5 0.6 0
22.8 0.6 0
23.1 0.6 0
23.4 0.6 0
23.7 0.6 0
24 0.6 0
24.3 0.6 0
24.6 0.6 0
24.9 0.6 0
25.2 0.6 0
25.5 0.6 0
25.8 0.6 0
26.1 0.6 0
26.4 0.6 0
26.7 0.6 0
27 0.6 0
27.3 0.6 0
27.6 0.6 0
27.9 0.6 0
28.2 0.6 0
28.5 0.6 0
28.8 0.6 0
29.1 0.6 0
29.4 0.6 0
29.7 0.6 0
30 0.6 0
30.3 0.6 0
0 0.7 0
0.3 0.7 0
0.6 0.7 0
0.9 0.7 0
1.2 0.7 0
1.5 0.7 0
1.8 0.7 0
2.1 0.7 0
2.4 0.7 0
2.7 0.7 0
3 0.7 0
3.3 0.7 0
3.6 0.7 0
3.9 0.7 0
4.2 0.7 0
4.5 0.7 0
4.8 0.7 0
5.1 0.7 0
5.4 0.7 0
5.7 0.7 0
6 0.7 0
6.3 0.7 0
6.6 0.7 0
6.9 0.7 0
7.2 0.7 0
7.5 0.7 0
7.8 0.7 0
8.1 0.7 0
8.4 0.7 0
8.7 0.7 0
9 0.7 0
9.3 0.7 0
9.6 0.7 0
9.9 0.7 0
10.2 0.7 0
10.5 0.7 0
10.8 0.7 0
11.1 0.7 0
11.4 0.7 0
11.7 0.7 0
12 0.7 0
12.3 0.7 0
12.6 0.7 0
12.9 0.7 0
13.2 0.7 0
13.5 0.7 0
13.8 0.7 0
14.1 0.7 0
14.4 0.7 0
14.7 0.7 0
15 0.7 0
15.3 0.7 0
15.6 0.7 0
15.9 0.7 0
16.2 0.7 0
16.5 0.7 0
16.8 0.7 0
17.1 0.7 0
17.4 0.7 0
17.7 0.7 0
18 0.7 0
18.3 0.7 0
18.6 0.7 0
18.9 0.7 0
19.2 0.7 0
19.5 0.7 0
19.8 0.7 0
20.1 0.7 0
20.4 0.7 0
20.7 0.7 0
21 0.7 0
21.3 0.7 0
21.6 0.7 0
21.9 0.7 0
22.2 0.7 0
22.5 0.7 0
22.8 0.7 0
23.1 0.7 0
23.4 0.7 0
23.7 0.7 0
24 0.7 0
24.3 0.7 0
24.6 0.7 0
24.9 0.7 0
25.2 0.7 0
25.5 0.7 0
25.8 0.7 0
26.1 0.7 0
26.4 0.7 0
26.7 0.7 0
27 0.7 0
27.3 0.7 0
27.6 0.7 0
27.9 0.7 0
28.2 0.7 0
28.5 0.7 0
28.8 0.7 0
29.1 0.7 0
29.4 0.7 0
29.7 0.7 0
30 0.7 0
30.3 0.7 0
0 0.8 0
0.3 0.8 0
0.6 0.8 0
0.9 0.8 0
1.2 0.8 0
1.5 0.8 0
1.8 0.8 0
2.1 0.8 0
2.4 0.8 0
2.7 0.8 0
3 0.8 0
3.3 0.8 0
3.6 0.8 0
3.9 0.8 0
4.2 0.8 0
4.5 0.8 0
4.8 0.8 0
5.1 0.8 0
5.4 0.8 0
5.7 0.8 0
6 0.8 0
6.3 0.8 0
6.6 0.8 0
6.9 0.8 0
7.2 0.8 0
7.5 0.8 0
7.8 0.8 0
8.1 0.8 0
8.4 0.8 0
8.7 0.8 0
9 0.8 0
9.3 0.8 0
9.6 0.8 0
9.9 0.8 0
10.2 0.8 0
10.5 0.8 0
10.8 0.8 0
11.1 0.8 0
11.4 0.8 0
11.7 0.8 0
12 0.8 0
12.3 0.8 0
12.6 0.8 0
12.9 0.8 0
13.2 0.8 0
13.5 0.8 0
13.8 0.8 0
14.1 0.8 0
14.4 0.8 0
14.7 0.8 0
15 0.8 0
15.3 0.8 0
15.6 0.8 0
15.9 0.8 0
16.2 0.8 0
16.5 0.8 0
16.8 0.8 0
17.1 0.8 0
17.4 0.8 0
17.7 0.8 0
18 0.8 0
18.3 0.8 0
18.6 0.8 0
18.9 0.8 0
19.2 0.8 0
19.5 0.8 0
19.8 0.8 0
20.1 0.8 0
20.4 0.8 0
20.7 0.8 0
21 0.8 0
21.3 0.8 0
21.6 0.8 0
21.9 0.8 0
22.2 0.8 0
22.5 0.8 0
22.8 0.8 0
23.1 0.8 0
23.4 0.8 0
23.7 0.8 0
24 0.8 0
24.3 0.8 0
24.6 0.8 0
24.9 0.8 0
25.2 0.8 0
25.5 0.8 0
25.8 0.8 0
26.1 0.8 0
26.4 0.8 0
26.7 0.8 0
27 0.8 0
27.3 0.8 0
27.6 0.8 0
27.9 0.8 0
28.2 0.8 0
28.5 0.8 0
28.8 0.8 0
29.1 0.8 0
29.4 0.8 0
29.7 0.8 0
30 0.8 0
30.3 0.8 0
0 0.9 0
0.3 0.9 0
0.6 0.9 0
0.9 0.9 0
1.2 0.9 0
1.5 0.9 0
1.8 0.9 0
2.1 0.9 0
2.4 0.9 0
2.7 0.9 0
3 0.9 0
3.3 0.9 0
3.6 0.9 0
3.9 0.9 0
4.2 0.9 0
4.5 0.9 0
4.8 0.9 0
5.1 0.9 0
5.4 0.9 0
5.7 0.9 0
6 0.9 0
6.3 0.9 0
6.6 0.9 0
6.9 0.9 0
7.2 0.9 0
7.5 0.9 0
7.8 0.9 0
8.1 0.9 0
8.4 0.9 0
8.7 0.9 0
9 0.9 0
9.3 0.9 0
9.6 0.9 0
9.9 0.9 0
10.2 0.9 0
10.5 0.9 0
10.8 0.9 0
11.1 0.9 0
11.4 0.9 0
11.7 0.9 0
12 0.9 0
12.3 0.9 0
12.6 0.9 0
12.9 0.9 0
13.2 0.9 0
13.5 0.9 0
13.8 0.9 0
14.1 0.9 0
14.4 0.9 0
14.7 0.9 0
15 0.9 0
15.3 0.9 0
15.6 0.9 0
15.9 0.9 0
16.2 0.9 0
16.5 0.9 0
16.8 0.9 0
17.1 0.9 0
17.4 0.9 0
17.7 0.9 0
18 0.9 0
18.3 0.9 0
18.6 0.9 0
18.9 0.9 0
19.2 0.9 0
19.5 0.9 0
19.8 0.9 0
20.1 0.9 0
20.4 0.9 0
20.7 0.9 0
21 0.9 0
21.3 0.9 0
21.6 0.9 0
21.9 0.9 0
22.2 0.9 0
22.5 0.9 0
22.8 0.9 0
23.1 0.9 0
23.4 0.9 0
23.7 0.9 0
24 0.9 0
24.3 0.9 0
24.6 0.9 0
24.9 0.9 0
25.2 0.9 0
25.5 0.9 0
25.8 0.9 0
26.1 0.9 0
26.4 0.9 0
26.7 0.9 0
27 0.9 0
27.3 0.9 0
27.6 0.9 0
27.9 0.9 0
28.2 0.9 0
28.5 0.9 0
28.8 0.9 0
29.1 0.9 0
29.4 0.9 0
29.7 0.9 0
30 0.9 0
30.3 0.9 0
0 1 0
0.3 1 0
0.6 1 0
0.9 1 0
1.2 1 0
1.5 1 0
1.8 1 0
2.1 1 0
2.4 1 0
2.7 1 0
3 1 0
3.3 1 0
3.6 1 0
3.9 1 0
4.2 1 0
4.5 1 0
4.8 1 0
5.1 1 0
5.4 1 0
5.7 1 0
6 1 0
6.3 1 0
6.6 1 0
6.9 1 0
7.2 1 0
7.5 1 0
7.8 1 0
8.1 1 0
8.4 1 0
8.7 1 0
9 1 0
9.3 1 0
9.6 1 0
9.9 1 0
10.2 1 0
10.5 1 0
10.8 1 0
11.1 1 0
11.4 1 0
11.7 1 0
12 1 0
12.3 1 0
12.6 1 0
12.9 1 0
13.2 1 0
13.5 1 0
13.8 1 0
14.1 1 0
14.4 1 0
14.7 1 0
15 1 0
15.3 1 0
15.6 1 0
15.9 1 0
16.2 1 0
16.5 1 0
16.8 1 0
17.1 1 0
17.4 1 0
17.7 1 0
18 1 0
18.3 1 0
18.6 1 0
18.9 1 0
19.2 1 0
19.5 1 0
19.8 1 0
20.1 1 0
20.4 1 0
20.7 1 0
21 1 0
21.3 1 0
21.6 1 0
21.9 1 0
22.2 1 0
22.5 1 0
22.8 1 0
23.1 1 0
23.4 1 0
23.7 1 0
24 1 0
24.3 1 0
24.6 1 0
24.9 1 0
25.2 1 0
25.5 1 0
25.8 1 0
26.1 1 0
26.4 1 0
26.7 1 0
27 1 0
27.3 1 0
27.6 1 0
27.9 1 0
28.2 1 0
28.5 1 0
28.8 1 0
29.1 1 0
29.4 1 0
29.7 1 0
30 1 0
30.3 1 0
0 1.1 0
0.3 1.1 0
0.6 1.1 0
0.9 1.1 0
1.2 1.1 0
1.5 1.1 0
1.8 1.1 0
2.1 1.1 0
2.4 1.1 0
2.7 1.1 0
3 1.1 0
3.3 1.1 0
3.6 1.1 0
3.9 1.1 0
4.2 1.1 0
4.5 1.1 0
4.8 1.1 0
5.1 1.1 0
5.4 1.1 0
5.7 1.1 0
6 1.1 0
6.3 1.1 0
6.6 1.1 0
6.9 1.1 0
7.2 1.1 0
7.5 1.1 0
7.8 1.1 0
8.1 1.1 0
8.4 1.1 0
8.7 1.1 0
9 1.1 0
9.3 1.1 0
9.6 1.1 0
9.9 1.1 0
10.2 1.1 0
10.5 1.1 0
10.8 1.1 0
11.1 1.1 0
11.4 1.1 0
11.7 1.1 0
12 1.1 0
12.3 1.1 0
12.6 1.1 0
12.9 1.1 0
13.2 1.1 0
13.5 1.1 0
13.8 1.1 0
14.1 1.1 0
14.4 1.1 0
14.7 1.1 0
15 1.1 0
15.3 1.1 0
15.6 1.1 0
15.9 1.1 0
16.2 1.1 0
16.5 1.1 0
16.8 1.1 0
17.1 1.1 0
17.4 1.1 0
17.7 1.1 0
18 1.1 0
18.3 1.1 0
18.6 1.1 0
18.9 1.1 0
19.2 1.1 0
19.5 1.1 0
19.8 1.1 0
20.1 1.1 0
20.4 1.1 0
20.7 1.1 0
21 1.1 0
21.3 1.1 0
21.6 1.1 0
21.9 1.1 0
22.2 1.1 0
22.5 1.1 0
22.8 1.1 0
23.1 1.1 0
23.4 1.1 0
23.7 1.1 0
24 1.1 0
24.3 1.1 0
24.6 1.1 0
24.9 1.1 0
25.2 1.1 0
25.5 1.1 0
25.8 1.1 0
26.1 1.1 0
26.4 1.1 0
26.7 1.1 0
27 1.1 0
27.3 1.1 0
27.6 1.1 0
27.9 1.1 0
28.2 1.1 0
28.5 1.1 0
28.8 1.1 0
29.1 1.1 0
29.4 1.1 0
29.7 1.1 0
30 1.1 0
30.3 1.1 0

POINT_DATA 1224

SCALARS p double
LOOKUP_TABLE default
2.40367
2.40367
2.2733
2.18701
2.11783
2.06129
2.01371
1.97199
1.93412
1.89892
1.86577
1.8343
1.80427
1.77546
1.74763
1.72056
1.69404
1.66787
1.64193
1.61613
1.59039
1.5647
1.53902
1.51335
1.48768
1.46202
1.43636
1.41069
1.38503
1.35937
1.3337
1.30804
1.28238
1.25671
1.23105
1.20539
1.17972
1.15406
1.1284
1.10273
1.07707
1.05141
1.02575
1.00008
0.974419
0.948756
0.923092
0.897429
0.871766
0.846103
0.82044
0.794777
0.769113
0.74345
0.717787
0.692124
0.666461
0.640797
0.615134
0.589471
0.563808
0.538145
0.512482
0.486818
0.461155
0.435492
0.409829
0.384166
0.358503
0.332839
0.307176
0.281513
0.25585
0.230187
0.204523
0.17886
0.153197
0.127534
0.101871
0.0762074
0.0505442
0.024881
-0.000782192
-0.0264454
-0.0521086
-0.0777718
-0.103435
-0.129098
-0.154761
-0.180425
-0.206088
-0.231751
-0.257414
-0.283078
-0.308741
-0.334404
-0.360068
-0.38573
-0.411395
-0.437056
-0.462661
0.462661
2.40367
2.40367
2.2733
2.18701
2.11783
2.06129
2.01371
1.97199
1.93412
1.89892
1.86577
1.8343
1.80427
1.77546
1.74763
1.72056
1.69404
1.66787
1.64193
1.61613
1.59039
1.5647
1.53902
1.51335
1.48768
1.46202
1.43636
1.41069
1.38503
1.35937
1.3337
1.30804
1.28238
1.25671
1.23105
1.20539
1.17972
1.15406
1.1284
1.10273
1.07707
1.05141
1.02575
1.00008
0.974419
0.948756
0.923092
0.897429
0.871766
0.846103
0.82044
0.794777
0.769113
0.74345
0.717787
0.692124
0.666461
0.640797
0.615134
0.589471
0.563808
0.538145
0.512482
0.486818
0.461155
0.435492
0.409829
0.384166
0.358503
0.332839
0.307176
0.281513
0.25585
0.230187
0.204523
0.17886
0.153197
0.127534
0.101871
0.0762074
0.0505442
0.024881
-0.000782192
-0.0264454
-0.0521086
-0.0777718
-0.103435
-0.129098
-0.154761
-0.180425
-0.206088
-0.231751
-0.257414
-0.283078
-0.308741
-0.334404
-0.360068
-0.38573
-0.411395
-0.437056
-0.462661
0.462661
2.36544
2.36544
2.27148
2.18894
2.11989
2.06282
2.01473
1.97265
1.93455
1.89921
1.86596
1.83442
1.80434
1.7755
1.74765
1.72057
1.69404
1.66787
1.64193
1.61613
1.59039
1.5647
1.53902
1.51335
1.48768
1.46202
1.43636
1.41069
1.38503
1.35937
1.3337
1.30804
1.28238
1.25671
1.23105
1.20539
1.17972
1.15406
1.1284
1.10273
1.07707
1.05141
1.02575
1.00008
0.974419
0.948756
0.923092
0.897429
0.871766
0.846103
0.82044
0.794777
0.769113
0.74345
0.717787
0.692124
0.666461
0.640797
0.615134
0.589471
0.563808
0.538145
0.512482
0.486818
0.461155
0.435492
0.409829
0.384166
0.358503
0.332839
0.307176
0.281513
0.25585
0.230187
0.204523
0.17886
0.153197
0.127534
0.101871
0.0762074
0.0505442
0.024881
-0.000782193
-0.0264454
-0.0521086
-0.0777718
-0.103435
-0.129098
-0.154761
-0.180425
-0.206088
-0.231751
-0.257414
-0.283078
-0.308741
-0.334404
-0.360067
-0.385729
-0.411394
-0.437057
-0.462661
0.462661
2.33829
2.33829
2.26864
2.19174
2.12315
2.06528
2.01632
1.97363
1.93516
1.8996
1.86621
1.83459
1.80446
1.77557
1.7477
1.7206
1.69405
1.66788
1.64193
1.61613
1.59039
1.5647
1.53902
1.51335
1.48768
1.46202
1.43636
1.41069
1.38503
1.35937
1.3337
1.30804
1.28238
1.25671
1.23105
1.20539
1.17972
1.15406
1.1284
1.10273
1.07707
1.05141
1.02575
1.00008
0.974419
0.948756
0.923092
0.897429
0.871766
0.846103
0.82044
0.794777
0.769113
0.74345
0.717787
0.692124
0.666461
0.640797
0.615134
0.589471
0.563808
0.538145
0.512482
0.486818
0.461155
0.435492
0.409829
0.384166
0.358503
0.332839
0.307176
0.281513
0.25585
0.230187
0.204523
0.17886
0.153197
0.127534
0.101871
0.0762074
0.0505442
0.024881
-0.000782194
-0.0264454
-0.0521086
-0.0777718
-0.103435
-0.129098
-0.154761
-0.180425
-0.206088
-0.231751
-0.257414
-0.283078
-0.308741
-0.334404
-0.360067
-0.385728
-0.41139
-0.437037
-0.462652
0.462652
2.3219
2.3219
2.26624
2.19396
2.12602
2.06758
2.01789
1.97465
1.93582
1.90005
1.86654
1.83483
1.80463
1.7757
1.74778
1.72065
1.69409
1.6679
1.64195
1.61613
1.5904
1.5647
1.53902
1.51335
1.48768
1.46202
1.43636
1.41069
1.38503
1.35937
1.3337
1.30804
1.28238
1.25671
1.23105
1.20539
1.17972
1.15406
1.1284
1.10273
1.07707
1.05141
1.02575
1.00008
0.974419
0.948756
0.923092
0.897429
0.871766
0.846103
0.82044
0.794777
0.769113
0.74345
0.717787
0.692124
0.666461
0.640797
0.615134
0.589471
0.563808
0.538145
0.512482
0.486818
0.461155
0.435492
0.409829
0.384166
0.358503
0.332839
0.307176
0.281513
0.25585
0.230187
0.204523
0.17886
0.153197
0.127534
0.101871
0.0762074
0.0505442
0.024881
-0.000782195
-0.0264454
-0.0521086
-0.0777718
-0.103435
-0.129098
-0.154761
-0.180425
-0.206088
-0.231751
-0.257414
-0.283078
-0.308741
-0.334404
-0.360067
-0.385727
-0.411382
-0.436999
-0.462637
0.462637
2.31425
2.31425
2.26494
2.19513
2.12761
2.0689
2.01883
1.97528
1.93624
1.90035
1.86676
1.835
1.80477
1.7758
1.74786
1.72071
1.69412
1.66792
1.64196
1.61614
1.5904
1.5647
1.53902
1.51335
1.48768
1.46202
1.43636
1.41069
1.38503
1.35937
1.3337
1.30804
1.28238
1.25671
1.23105
1.20539
1.17972
1.15406
1.1284
1.10273
1.07707
1.05141
1.02575
1.00008
0.974419
0.948756
0.923092
0.897429
0.871766
0.846103
0.82044
0.794777
0.769113
0.74345
0.717787
0.692124
0.666461
0.640797
0.615134
0.589471
0.563808
0.538145
0.512482
0.486818
0.461155
0.435492
0.409829
0.384166
0.358503
0.332839
0.307176
0.281513
0.25585
0.230187
0.204523
0.17886
0.153197
0.127534
0.101871
0.0762074
0.0505442
0.024881
-0.000782196
-0.0264454
-0.0521086
-0.0777718
-0.103435
-0.129098
-0.154761
-0.180425
-0.206088
-0.231751
-0.257414
-0.283078
-0.308741
-0.334404
-0.360066
-0.385726
-0.411376
-0.436969
-0.462626
0.462626
2.31425
2.31425
2.26494
2.19513
2.12761
2.0689
2.01883
1.97528
1.93624
1.90035
1.86676
1.835
1.80477
1.7758
1.74786
1.72071
1.69412
1.66792
1.64196
1.61614
1.5904
1.5647
1.53902
1.51335
1.48768
1.46202
1.43636
1.41069
1.38503
1.35937
1.3337
1.30804
1.28238
1.25671
1.23105
1.20539
1.17972
1.15406
1.1284
1.10273
1.07707
1.05141
1.02575
1.00008
0.974419
0.948756
0.923092
0.897429
0.871766
0.846103
0.82044
0.794777
0.769113
0.74345
0.717787
0.692124
0.666461
0.640797
0.615134
0.589471
0.563808
0.538145
0.512482
0.486818
0.461155
0.435492
0.409829
0.384166
0.358503
0.332839
0.307176
0.281513
0.25585
0.230187
0.204523
0.17886
0.153197
0.127534
0.101871
0.0762074
0.0505442
0.024881
-0.000782197
-0.0264454
-0.0521086
-0.0777718
-0.103435
-0.129098
-0.154762
-0.180425
-0.206088
-0.231751
-0.257414
-0.283078
-0.308741
-0.334404
-0.360066
-0.385726
-0.411376
-0.436969
-0.462626
0.462626
2.3219
2.3219
2.26624
2.19396
2.12602
2.06758
2.01789
1.97465
1.93582
1.90005
1.86654
1.83483
1.80463
1.7757
1.74778
1.72065
1.69409
1.6679
1.64195
1.61613
1.5904
1.5647
1.53902
1.51335
1.48768
1.46202
1.43636
1.41069
1.38503
1.35937
1.3337
1.30804
1.28238
1.25671
1.23105
1.20539
1.17972
1.15406
1.1284
1.10273
1.07707
1.05141
1.02575
1.00008
0.974419
0.948756
0.923092
0.897429
0.871766
0.846103
0.82044
0.794777
0.769113
0.74345
0.717787
0.692124
0.666461
0.640797
0.615134
0.589471
0.563808
0.538145
0.512482
0.486818
0.461155
0.435492
0.409829
0.384166
0.358503
0.332839
0.307176
0.281513
0.25585
0.230187
0.204523
0.17886
0.153197
0.127534
0.101871
0.0762074
0.0505442
0.024881
-0.000782197
-0.0264454
-0.0521086
-0.0777718
-0.103435
-0.129098
-0.154762
-0.180425
-0.206088
-0.231751
-0.257414
-0.283078
-0.308741
-0.334404
-0.360067
-0.385727
-0.411382
-0.436999
-0.462637
0.462637
2.33829
2.33829
2.26864
2.19174
2.12315
2.06528
2.01632
1.97363
1.93516
1.8996
1.86621
1.83459
1.80446
1.77557
1.7477
1.7206
1.69405
1.66788
1.64193
1.61613
1.59039
1.5647
1.53902
1.51335
1.48768
1.46202
1.43636
1.41069
1.38503
1.35937
1.3337
1.30804
1.28238
1.25671
1.23105
1.20539
1.17972
1.15406
1.1284
1.10273
1.07707
1.05141
1.02575
1.00008
0.974419
0.948756
0.923092
0.897429
0.871766
0.846103
0.82044
0.794777
0.769113
0.74345
0.717787
0.692124
0.666461
0.640797
0.615134
0.589471
0.563808
0.538145
0.512482
0.486818
0.461155
0.435492
0.409829
0.384166
0.358503
0.332839
0.307176
0.281513
0.25585
0.230187
0.204523
0.17886
0.153197
0.127534
0.101871
0.0762074
0.0505442
0.024881
-0.000782198
-0.0264454
-0.0521086
-0.0777718
-0.103435
-0.129098
-0.154762
-0.180425
-0.206088
-0.231751
-0.257414
-0.283078
-0.308741
-0.334404
-0.360067
-0.385728
-0.41139
-0.437037
-0.462652
0.462652
2.36544
2.36544
2.27148
2.18894
2.11989
2.06282
2.01473
1.97265
1.93455
1.89921
1.86596
1.83442
1.80434
1.7755
1.74765
1.72057
1.69404
1.66787
1.64193
1.61613
1.59039
1.5647
1.53902
1.51335
1.48768
1.46202
1.43636
1.41069
1.38503
1.35937
1.3337
1.30804
1.28238
1.25671
1.23105
1.20539
1.17972
1.15406
1.1284
1.10273
1.07707
1.05141
1.02575
1.00008
0.974419
0.948756
0.923092
0.897429
0.871766
0.846103
0.82044
0.794777
0.769113
0.74345
0.717787
0.692124
0.666461
0.640797
0.615134
0.589471
0.563808
0.538145
0.512482
0.486818
0.461155
0.435492
0.409829
0.384166
0.358503
0.332839
0.307176
0.281513
0.25585
0.230187
0.204523
0.17886
0.153197
0.127534
0.101871
0.0762074
0.0505442
0.024881
-0.000782198
-0.0264454
-0.0521086
-0.0777718
-0.103435
-0.129098
-0.154762
-0.180425
-0.206088
-0.231751
-0.257414
-0.283078
-0.308741
-0.334404
-0.360067
-0.385729
-0.411394
-0.437057
-0.462661
0.462661
2.40367
2.40367
2.2733
2.18701
2.11783
2.06129
2.01371
1.97199
1.93412
1.89892
1.86577
1.8343
1.80427
1.77546
1.74763
1.72056
1.69404
1.66787
1.64193
1.61613
1.59039
1.5647
1.53902
1.51335
1.48768
1.46202
1.43636
1.41069
1.38503
1.35937
1.3337
1.30804
1.28238
1.25671
1.23105
1.20539
1.17972
1.15406
1.1284
1.10273
1.07707
1.05141
1.02575
1.00008
0.974419
0.948756
0.923092
0.897429
0.871766
0.846103
0.82044
0.794777
0.769113
0.74345
0.717787
0.692124
0.666461
0.640797
0.615134
0.589471
0.563808
0.538145
0.512482
0.486818
0.461155
0.435492
0.409829
0.384166
0.358503
0.332839
0.307176
0.281513
0.25585
0.230187
0.204523
0.17886
0.153197
0.127534
0.101871
0.0762074
0.0505442
0.024881
-0.000782198
-0.0264454
-0.0521086
-0.0777718
-0.103435
-0.129098
-0.154762
-0.180425
-0.206088
-0.231751
-0.257414
-0.283078
-0.308741
-0.334404
-0.360068
-0.38573
-0.411395
-0.437056
-0.462661
0.462661
2.40367
2.40367
2.2733
2.18701
2.11783
2.06129
2.01371
1.97199
1.93412
1.89892
1.86577
1.8343
1.80427
1.77546
1.74763
1.72056
1.69404
1.66787
1.64193
1.61613
1.59039
1.5647
1.53902
1.51335
1.48768
1.46202
1.43636
1.41069
1.38503
1.35937
1.3337
1.30804
1.28238
1.25671
1.23105
1.20539
1.17972
1.15406
1.1284
1.10273
1.07707
1.05141
1.02575
1.00008
0.974419
0.948756
0.923092
0.897429
0.871766
0.846103
0.82044
0.794777
0.769113
0.74345
0.717787
0.692124
0.666461
0.640797
0.615134
0.589471
0.563808
0.538145
0.512482
0.486818
0.461155
0.435492
0.409829
0.384166
0.358503
0.332839
0.307176
0.281513
0.25585
0.230187
0.204523
0.17886
0.153197
0.127534
0.101871
0.0762074
0.0505442
0.024881
-0.000782198
-0.0264454
-0.0521086
-0.0777718
-0.103435
-0.129098
-0.154762
-0.180425
-0.206088
-0.231751
-0.257414
-0.283078
-0.308741
-0.334404
-0.360068
-0.38573
-0.411395
-0.437056
-0.462661
0.462661
