# vtk DataFile Version 2.0
FlowField
ASCII
DATASET STRUCTURED_GRID
DIMENSIONS 101 11 1 
POINTS 1111 double
0 0 0
0.3 0 0
0.6 0 0
0.9 0 0
1.2 0 0
1.5 0 0
1.8 0 0
2.1 0 0
2.4 0 0
2.7 0 0
3 0 0
3.3 0 0
3.6 0 0
3.9 0 0
4.2 0 0
4.5 0 0
4.8 0 0
5.1 0 0
5.4 0 0
5.7 0 0
6 0 0
6.3 0 0
6.6 0 0
6.9 0 0
7.2 0 0
7.5 0 0
7.8 0 0
8.1 0 0
8.4 0 0
8.7 0 0
9 0 0
9.3 0 0
9.6 0 0
9.9 0 0
10.2 0 0
10.5 0 0
10.8 0 0
11.1 0 0
11.4 0 0
11.7 0 0
12 0 0
12.3 0 0
12.6 0 0
12.9 0 0
13.2 0 0
13.5 0 0
13.8 0 0
14.1 0 0
14.4 0 0
14.7 0 0
15 0 0
15.3 0 0
15.6 0 0
15.9 0 0
16.2 0 0
16.5 0 0
16.8 0 0
17.1 0 0
17.4 0 0
17.7 0 0
18 0 0
18.3 0 0
18.6 0 0
18.9 0 0
19.2 0 0
19.5 0 0
19.8 0 0
20.1 0 0
20.4 0 0
20.7 0 0
21 0 0
21.3 0 0
21.6 0 0
21.9 0 0
22.2 0 0
22.5 0 0
22.8 0 0
23.1 0 0
23.4 0 0
23.7 0 0
24 0 0
24.3 0 0
24.6 0 0
24.9 0 0
25.2 0 0
25.5 0 0
25.8 0 0
26.1 0 0
26.4 0 0
26.7 0 0
27 0 0
27.3 0 0
27.6 0 0
27.9 0 0
28.2 0 0
28.5 0 0
28.8 0 0
29.1 0 0
29.4 0 0
29.7 0 0
30 0 0
0 0.1 0
0.3 0.1 0
0.6 0.1 0
0.9 0.1 0
1.2 0.1 0
1.5 0.1 0
1.8 0.1 0
2.1 0.1 0
2.4 0.1 0
2.7 0.1 0
3 0.1 0
3.3 0.1 0
3.6 0.1 0
3.9 0.1 0
4.2 0.1 0
4.5 0.1 0
4.8 0.1 0
5.1 0.1 0
5.4 0.1 0
5.7 0.1 0
6 0.1 0
6.3 0.1 0
6.6 0.1 0
6.9 0.1 0
7.2 0.1 0
7.5 0.1 0
7.8 0.1 0
8.1 0.1 0
8.4 0.1 0
8.7 0.1 0
9 0.1 0
9.3 0.1 0
9.6 0.1 0
9.9 0.1 0
10.2 0.1 0
10.5 0.1 0
10.8 0.1 0
11.1 0.1 0
11.4 0.1 0
11.7 0.1 0
12 0.1 0
12.3 0.1 0
12.6 0.1 0
12.9 0.1 0
13.2 0.1 0
13.5 0.1 0
13.8 0.1 0
14.1 0.1 0
14.4 0.1 0
14.7 0.1 0
15 0.1 0
15.3 0.1 0
15.6 0.1 0
15.9 0.1 0
16.2 0.1 0
16.5 0.1 0
16.8 0.1 0
17.1 0.1 0
17.4 0.1 0
17.7 0.1 0
18 0.1 0
18.3 0.1 0
18.6 0.1 0
18.9 0.1 0
19.2 0.1 0
19.5 0.1 0
19.8 0.1 0
20.1 0.1 0
20.4 0.1 0
20.7 0.1 0
21 0.1 0
21.3 0.1 0
21.6 0.1 0
21.9 0.1 0
22.2 0.1 0
22.5 0.1 0
22.8 0.1 0
23.1 0.1 0
23.4 0.1 0
23.7 0.1 0
24 0.1 0
24.3 0.1 0
24.6 0.1 0
24.9 0.1 0
25.2 0.1 0
25.5 0.1 0
25.8 0.1 0
26.1 0.1 0
26.4 0.1 0
26.7 0.1 0
27 0.1 0
27.3 0.1 0
27.6 0.1 0
27.9 0.1 0
28.2 0.1 0
28.5 0.1 0
28.8 0.1 0
29.1 0.1 0
29.4 0.1 0
29.7 0.1 0
30 0.1 0
0 0.2 0
0.3 0.2 0
0.6 0.2 0
0.9 0.2 0
1.2 0.2 0
1.5 0.2 0
1.8 0.2 0
2.1 0.2 0
2.4 0.2 0
2.7 0.2 0
3 0.2 0
3.3 0.2 0
3.6 0.2 0
3.9 0.2 0
4.2 0.2 0
4.5 0.2 0
4.8 0.2 0
5.1 0.2 0
5.4 0.2 0
5.7 0.2 0
6 0.2 0
6.3 0.2 0
6.6 0.2 0
6.9 0.2 0
7.2 0.2 0
7.5 0.2 0
7.8 0.2 0
8.1 0.2 0
8.4 0.2 0
8.7 0.2 0
9 0.2 0
9.3 0.2 0
9.6 0.2 0
9.9 0.2 0
10.2 0.2 0
10.5 0.2 0
10.8 0.2 0
11.1 0.2 0
11.4 0.2 0
11.7 0.2 0
12 0.2 0
12.3 0.2 0
12.6 0.2 0
12.9 0.2 0
13.2 0.2 0
13.5 0.2 0
13.8 0.2 0
14.1 0.2 0
14.4 0.2 0
14.7 0.2 0
15 0.2 0
15.3 0.2 0
15.6 0.2 0
15.9 0.2 0
16.2 0.2 0
16.5 0.2 0
16.8 0.2 0
17.1 0.2 0
17.4 0.2 0
17.7 0.2 0
18 0.2 0
18.3 0.2 0
18.6 0.2 0
18.9 0.2 0
19.2 0.2 0
19.5 0.2 0
19.8 0.2 0
20.1 0.2 0
20.4 0.2 0
20.7 0.2 0
21 0.2 0
21.3 0.2 0
21.6 0.2 0
21.9 0.2 0
22.2 0.2 0
22.5 0.2 0
22.8 0.2 0
23.1 0.2 0
23.4 0.2 0
23.7 0.2 0
24 0.2 0
24.3 0.2 0
24.6 0.2 0
24.9 0.2 0
25.2 0.2 0
25.5 0.2 0
25.8 0.2 0
26.1 0.2 0
26.4 0.2 0
26.7 0.2 0
27 0.2 0
27.3 0.2 0
27.6 0.2 0
27.9 0.2 0
28.2 0.2 0
28.5 0.2 0
28.8 0.2 0
29.1 0.2 0
29.4 0.2 0
29.7 0.2 0
30 0.2 0
0 0.3 0
0.3 0.3 0
0.6 0.3 0
0.9 0.3 0
1.2 0.3 0
1.5 0.3 0
1.8 0.3 0
2.1 0.3 0
2.4 0.3 0
2.7 0.3 0
3 0.3 0
3.3 0.3 0
3.6 0.3 0
3.9 0.3 0
4.2 0.3 0
4.5 0.3 0
4.8 0.3 0
5.1 0.3 0
5.4 0.3 0
5.7 0.3 0
6 0.3 0
6.3 0.3 0
6.6 0.3 0
6.9 0.3 0
7.2 0.3 0
7.5 0.3 0
7.8 0.3 0
8.1 0.3 0
8.4 0.3 0
8.7 0.3 0
9 0.3 0
9.3 0.3 0
9.6 0.3 0
9.9 0.3 0
10.2 0.3 0
10.5 0.3 0
10.8 0.3 0
11.1 0.3 0
11.4 0.3 0
11.7 0.3 0
12 0.3 0
12.3 0.3 0
12.6 0.3 0
12.9 0.3 0
13.2 0.3 0
13.5 0.3 0
13.8 0.3 0
14.1 0.3 0
14.4 0.3 0
14.7 0.3 0
15 0.3 0
15.3 0.3 0
15.6 0.3 0
15.9 0.3 0
16.2 0.3 0
16.5 0.3 0
16.8 0.3 0
17.1 0.3 0
17.4 0.3 0
17.7 0.3 0
18 0.3 0
18.3 0.3 0
18.6 0.3 0
18.9 0.3 0
19.2 0.3 0
19.5 0.3 0
19.8 0.3 0
20.1 0.3 0
20.4 0.3 0
20.7 0.3 0
21 0.3 0
21.3 0.3 0
21.6 0.3 0
21.9 0.3 0
22.2 0.3 0
22.5 0.3 0
22.8 0.3 0
23.1 0.3 0
23.4 0.3 0
23.7 0.3 0
24 0.3 0
24.3 0.3 0
24.6 0.3 0
24.9 0.3 0
25.2 0.3 0
25.5 0.3 0
25.8 0.3 0
26.1 0.3 0
26.4 0.3 0
26.7 0.3 0
27 0.3 0
27.3 0.3 0
27.6 0.3 0
27.9 0.3 0
28.2 0.3 0
28.5 0.3 0
28.8 0.3 0
29.1 0.3 0
29.4 0.3 0
29.7 0.3 0
30 0.3 0
0 0.4 0
0.3 0.4 0
0.6 0.4 0
0.9 0.4 0
1.2 0.4 0
1.5 0.4 0
1.8 0.4 0
2.1 0.4 0
2.4 0.4 0
2.7 0.4 0
3 0.4 0
3.3 0.4 0
3.6 0.4 0
3.9 0.4 0
4.2 0.4 0
4.5 0.4 0
4.8 0.4 0
5.1 0.4 0
5.4 0.4 0
5.7 0.4 0
6 0.4 0
6.3 0.4 0
6.6 0.4 0
6.9 0.4 0
7.2 0.4 0
7.5 0.4 0
7.8 0.4 0
8.1 0.4 0
8.4 0.4 0
8.7 0.4 0
9 0.4 0
9.3 0.4 0
9.6 0.4 0
9.9 0.4 0
10.2 0.4 0
10.5 0.4 0
10.8 0.4 0
11.1 0.4 0
11.4 0.4 0
11.7 0.4 0
12 0.4 0
12.3 0.4 0
12.6 0.4 0
12.9 0.4 0
13.2 0.4 0
13.5 0.4 0
13.8 0.4 0
14.1 0.4 0
14.4 0.4 0
14.7 0.4 0
15 0.4 0
15.3 0.4 0
15.6 0.4 0
15.9 0.4 0
16.2 0.4 0
16.5 0.4 0
16.8 0.4 0
17.1 0.4 0
17.4 0.4 0
17.7 0.4 0
18 0.4 0
18.3 0.4 0
18.6 0.4 0
18.9 0.4 0
19.2 0.4 0
19.5 0.4 0
19.8 0.4 0
20.1 0.4 0
20.4 0.4 0
20.7 0.4 0
21 0.4 0
21.3 0.4 0
21.6 0.4 0
21.9 0.4 0
22.2 0.4 0
22.5 0.4 0
22.8 0.4 0
23.1 0.4 0
23.4 0.4 0
23.7 0.4 0
24 0.4 0
24.3 0.4 0
24.6 0.4 0
24.9 0.4 0
25.2 0.4 0
25.5 0.4 0
25.8 0.4 0
26.1 0.4 0
26.4 0.4 0
26.7 0.4 0
27 0.4 0
27.3 0.4 0
27.6 0.4 0
27.9 0.4 0
28.2 0.4 0
28.5 0.4 0
28.8 0.4 0
29.1 0.4 0
29.4 0.4 0
29.7 0.4 0
30 0.4 0
0 0.5 0
0.3 0.5 0
0.6 0.5 0
0.9 0.5 0
1.2 0.5 0
1.5 0.5 0
1.8 0.5 0
2.1 0.5 0
2.4 0.5 0
2.7 0.5 0
3 0.5 0
3.3 0.5 0
3.6 0.5 0
3.9 0.5 0
4.2 0.5 0
4.5 0.5 0
4.8 0.5 0
5.1 0.5 0
5.4 0.5 0
5.7 0.5 0
6 0.5 0
6.3 0.5 0
6.6 0.5 0
6.9 0.5 0
7.2 0.5 0
7.5 0.5 0
7.8 0.5 0
8.1 0.5 0
8.4 0.5 0
8.7 0.5 0
9 0.5 0
9.3 0.5 0
9.6 0.5 0
9.9 0.5 0
10.2 0.5 0
10.5 0.5 0
10.8 0.5 0
11.1 0.5 0
11.4 0.5 0
11.7 0.5 0
12 0.5 0
12.3 0.5 0
12.6 0.5 0
12.9 0.5 0
13.2 0.5 0
13.5 0.5 0
13.8 0.5 0
14.1 0.5 0
14.4 0.5 0
14.7 0.5 0
15 0.5 0
15.3 0.5 0
15.6 0.5 0
15.9 0.5 0
16.2 0.5 0
16.5 0.5 0
16.8 0.5 0
17.1 0.5 0
17.4 0.5 0
17.7 0.5 0
18 0.5 0
18.3 0.5 0
18.6 0.5 0
18.9 0.5 0
19.2 0.5 0
19.5 0.5 0
19.8 0.5 0
20.1 0.5 0
20.4 0.5 0
20.7 0.5 0
21 0.5 0
21.3 0.5 0
21.6 0.5 0
21.9 0.5 0
22.2 0.5 0
22.5 0.5 0
22.8 0.5 0
23.1 0.5 0
23.4 0.5 0
23.7 0.5 0
24 0.5 0
24.3 0.5 0
24.6 0.5 0
24.9 0.5 0
25.2 0.5 0
25.5 0.5 0
25.8 0.5 0
26.1 0.5 0
26.4 0.5 0
26.7 0.5 0
27 0.5 0
27.3 0.5 0
27.6 0.5 0
27.9 0.5 0
28.2 0.5 0
28.5 0.5 0
28.8 0.5 0
29.1 0.5 0
29.4 0.5 0
29.7 0.5 0
30 0.5 0
0 0.6 0
0.3 0.6 0
0.6 0.6 0
0.9 0.6 0
1.2 0.6 0
1.5 0.6 0
1.8 0.6 0
2.1 0.6 0
2.4 0.6 0
2.7 0.6 0
3 0.6 0
3.3 0.6 0
3.6 0.6 0
3.9 0.6 0
4.2 0.6 0
4.5 0.6 0
4.8 0.6 0
5.1 0.6 0
5.4 0.6 0
5.7 0.6 0
6 0.6 0
6.3 0.6 0
6.6 0.6 0
6.9 0.6 0
7.2 0.6 0
7.5 0.6 0
7.8 0.6 0
8.1 0.6 0
8.4 0.6 0
8.7 0.6 0
9 0.6 0
9.3 0.6 0
9.6 0.6 0
9.9 0.6 0
10.2 0.6 0
10.5 0.6 0
10.8 0.6 0
11.1 0.6 0
11.4 0.6 0
11.7 0.6 0
12 0.6 0
12.3 0.6 0
12.6 0.6 0
12.9 0.6 0
13.2 0.6 0
13.5 0.6 0
13.8 0.6 0
14.1 0.6 0
14.4 0.6 0
14.7 0.6 0
15 0.6 0
15.3 0.6 0
15.6 0.6 0
15.9 0.6 0
16.2 0.6 0
16.5 0.6 0
16.8 0.6 0
17.1 0.6 0
17.4 0.6 0
17.7 0.6 0
18 0.6 0
18.3 0.6 0
18.6 0.6 0
18.9 0.6 0
19.2 0.6 0
19.5 0.6 0
19.8 0.6 0
20.1 0.6 0
20.4 0.6 0
20.7 0.6 0
21 0.6 0
21.3 0.6 0
21.6 0.6 0
21.9 0.6 0
22.2 0.6 0
22.5 0.6 0
22.8 0.6 0
23.1 0.6 0
23.4 0.6 0
23.7 0.6 0
24 0.6 0
24.3 0.6 0
24.6 0.6 0
24.9 0.6 0
25.2 0.6 0
25.5 0.6 0
25.8 0.6 0
26.1 0.6 0
26.4 0.6 0
26.7 0.6 0
27 0.6 0
27.3 0.6 0
27.6 0.6 0
27.9 0.6 0
28.2 0.6 0
28.5 0.6 0
28.8 0.6 0
29.1 0.6 0
29.4 0.6 0
29.7 0.6 0
30 0.6 0
0 0.7 0
0.3 0.7 0
0.6 0.7 0
0.9 0.7 0
1.2 0.7 0
1.5 0.7 0
1.8 0.7 0
2.1 0.7 0
2.4 0.7 0
2.7 0.7 0
3 0.7 0
3.3 0.7 0
3.6 0.7 0
3.9 0.7 0
4.2 0.7 0
4.5 0.7 0
4.8 0.7 0
5.1 0.7 0
5.4 0.7 0
5.7 0.7 0
6 0.7 0
6.3 0.7 0
6.6 0.7 0
6.9 0.7 0
7.2 0.7 0
7.5 0.7 0
7.8 0.7 0
8.1 0.7 0
8.4 0.7 0
8.7 0.7 0
9 0.7 0
9.3 0.7 0
9.6 0.7 0
9.9 0.7 0
10.2 0.7 0
10.5 0.7 0
10.8 0.7 0
11.1 0.7 0
11.4 0.7 0
11.7 0.7 0
12 0.7 0
12.3 0.7 0
12.6 0.7 0
12.9 0.7 0
13.2 0.7 0
13.5 0.7 0
13.8 0.7 0
14.1 0.7 0
14.4 0.7 0
14.7 0.7 0
15 0.7 0
15.3 0.7 0
15.6 0.7 0
15.9 0.7 0
16.2 0.7 0
16.5 0.7 0
16.8 0.7 0
17.1 0.7 0
17.4 0.7 0
17.7 0.7 0
18 0.7 0
18.3 0.7 0
18.6 0.7 0
18.9 0.7 0
19.2 0.7 0
19.5 0.7 0
19.8 0.7 0
20.1 0.7 0
20.4 0.7 0
20.7 0.7 0
21 0.7 0
21.3 0.7 0
21.6 0.7 0
21.9 0.7 0
22.2 0.7 0
22.5 0.7 0
22.8 0.7 0
23.1 0.7 0
23.4 0.7 0
23.7 0.7 0
24 0.7 0
24.3 0.7 0
24.6 0.7 0
24.9 0.7 0
25.2 0.7 0
25.5 0.7 0
25.8 0.7 0
26.1 0.7 0
26.4 0.7 0
26.7 0.7 0
27 0.7 0
27.3 0.7 0
27.6 0.7 0
27.9 0.7 0
28.2 0.7 0
28.5 0.7 0
28.8 0.7 0
29.1 0.7 0
29.4 0.7 0
29.7 0.7 0
30 0.7 0
0 0.8 0
0.3 0.8 0
0.6 0.8 0
0.9 0.8 0
1.2 0.8 0
1.5 0.8 0
1.8 0.8 0
2.1 0.8 0
2.4 0.8 0
2.7 0.8 0
3 0.8 0
3.3 0.8 0
3.6 0.8 0
3.9 0.8 0
4.2 0.8 0
4.5 0.8 0
4.8 0.8 0
5.1 0.8 0
5.4 0.8 0
5.7 0.8 0
6 0.8 0
6.3 0.8 0
6.6 0.8 0
6.9 0.8 0
7.2 0.8 0
7.5 0.8 0
7.8 0.8 0
8.1 0.8 0
8.4 0.8 0
8.7 0.8 0
9 0.8 0
9.3 0.8 0
9.6 0.8 0
9.9 0.8 0
10.2 0.8 0
10.5 0.8 0
10.8 0.8 0
11.1 0.8 0
11.4 0.8 0
11.7 0.8 0
12 0.8 0
12.3 0.8 0
12.6 0.8 0
12.9 0.8 0
13.2 0.8 0
13.5 0.8 0
13.8 0.8 0
14.1 0.8 0
14.4 0.8 0
14.7 0.8 0
15 0.8 0
15.3 0.8 0
15.6 0.8 0
15.9 0.8 0
16.2 0.8 0
16.5 0.8 0
16.8 0.8 0
17.1 0.8 0
17.4 0.8 0
17.7 0.8 0
18 0.8 0
18.3 0.8 0
18.6 0.8 0
18.9 0.8 0
19.2 0.8 0
19.5 0.8 0
19.8 0.8 0
20.1 0.8 0
20.4 0.8 0
20.7 0.8 0
21 0.8 0
21.3 0.8 0
21.6 0.8 0
21.9 0.8 0
22.2 0.8 0
22.5 0.8 0
22.8 0.8 0
23.1 0.8 0
23.4 0.8 0
23.7 0.8 0
24 0.8 0
24.3 0.8 0
24.6 0.8 0
24.9 0.8 0
25.2 0.8 0
25.5 0.8 0
25.8 0.8 0
26.1 0.8 0
26.4 0.8 0
26.7 0.8 0
27 0.8 0
27.3 0.8 0
27.6 0.8 0
27.9 0.8 0
28.2 0.8 0
28.5 0.8 0
28.8 0.8 0
29.1 0.8 0
29.4 0.8 0
29.7 0.8 0
30 0.8 0
0 0.9 0
0.3 0.9 0
0.6 0.9 0
0.9 0.9 0
1.2 0.9 0
1.5 0.9 0
1.8 0.9 0
2.1 0.9 0
2.4 0.9 0
2.7 0.9 0
3 0.9 0
3.3 0.9 0
3.6 0.9 0
3.9 0.9 0
4.2 0.9 0
4.5 0.9 0
4.8 0.9 0
5.1 0.9 0
5.4 0.9 0
5.7 0.9 0
6 0.9 0
6.3 0.9 0
6.6 0.9 0
6.9 0.9 0
7.2 0.9 0
7.5 0.9 0
7.8 0.9 0
8.1 0.9 0
8.4 0.9 0
8.7 0.9 0
9 0.9 0
9.3 0.9 0
9.6 0.9 0
9.9 0.9 0
10.2 0.9 0
10.5 0.9 0
10.8 0.9 0
11.1 0.9 0
11.4 0.9 0
11.7 0.9 0
12 0.9 0
12.3 0.9 0
12.6 0.9 0
12.9 0.9 0
13.2 0.9 0
13.5 0.9 0
13.8 0.9 0
14.1 0.9 0
14.4 0.9 0
14.7 0.9 0
15 0.9 0
15.3 0.9 0
15.6 0.9 0
15.9 0.9 0
16.2 0.9 0
16.5 0.9 0
16.8 0.9 0
17.1 0.9 0
17.4 0.9 0
17.7 0.9 0
18 0.9 0
18.3 0.9 0
18.6 0.9 0
18.9 0.9 0
19.2 0.9 0
19.5 0.9 0
19.8 0.9 0
20.1 0.9 0
20.4 0.9 0
20.7 0.9 0
21 0.9 0
21.3 0.9 0
21.6 0.9 0
21.9 0.9 0
22.2 0.9 0
22.5 0.9 0
22.8 0.9 0
23.1 0.9 0
23.4 0.9 0
23.7 0.9 0
24 0.9 0
24.3 0.9 0
24.6 0.9 0
24.9 0.9 0
25.2 0.9 0
25.5 0.9 0
25.8 0.9 0
26.1 0.9 0
26.4 0.9 0
26.7 0.9 0
27 0.9 0
27.3 0.9 0
27.6 0.9 0
27.9 0.9 0
28.2 0.9 0
28.5 0.9 0
28.8 0.9 0
29.1 0.9 0
29.4 0.9 0
29.7 0.9 0
30 0.9 0
0 1 0
0.3 1 0
0.6 1 0
0.9 1 0
1.2 1 0
1.5 1 0
1.8 1 0
2.1 1 0
2.4 1 0
2.7 1 0
3 1 0
3.3 1 0
3.6 1 0
3.9 1 0
4.2 1 0
4.5 1 0
4.8 1 0
5.1 1 0
5.4 1 0
5.7 1 0
6 1 0
6.3 1 0
6.6 1 0
6.9 1 0
7.2 1 0
7.5 1 0
7.8 1 0
8.1 1 0
8.4 1 0
8.7 1 0
9 1 0
9.3 1 0
9.6 1 0
9.9 1 0
10.2 1 0
10.5 1 0
10.8 1 0
11.1 1 0
11.4 1 0
11.7 1 0
12 1 0
12.3 1 0
12.6 1 0
12.9 1 0
13.2 1 0
13.5 1 0
13.8 1 0
14.1 1 0
14.4 1 0
14.7 1 0
15 1 0
15.3 1 0
15.6 1 0
15.9 1 0
16.2 1 0
16.5 1 0
16.8 1 0
17.1 1 0
17.4 1 0
17.7 1 0
18 1 0
18.3 1 0
18.6 1 0
18.9 1 0
19.2 1 0
19.5 1 0
19.8 1 0
20.1 1 0
20.4 1 0
20.7 1 0
21 1 0
21.3 1 0
21.6 1 0
21.9 1 0
22.2 1 0
22.5 1 0
22.8 1 0
23.1 1 0
23.4 1 0
23.7 1 0
24 1 0
24.3 1 0
24.6 1 0
24.9 1 0
25.2 1 0
25.5 1 0
25.8 1 0
26.1 1 0
26.4 1 0
26.7 1 0
27 1 0
27.3 1 0
27.6 1 0
27.9 1 0
28.2 1 0
28.5 1 0
28.8 1 0
29.1 1 0
29.4 1 0
29.7 1 0
30 1 0

POINT_DATA 1111

SCALARS p double
LOOKUP_TABLE default
1.5108
1.5108
1.44208
1.39138
1.34455
1.3011
1.26144
1.22556
1.19308
1.16349
1.13626
1.11091
1.08707
1.06442
1.04274
1.02186
1.00163
0.981966
0.962784
0.944024
0.925636
0.907579
0.889819
0.872328
0.855081
0.838055
0.821231
0.804591
0.788121
0.771805
0.755633
0.739592
0.723674
0.707869
0.692171
0.676574
0.661072
0.645662
0.630338
0.615097
0.599933
0.584843
0.569819
0.554856
0.539947
0.525086
0.510265
0.495478
0.48072
0.465984
0.451266
0.436561
0.421867
0.407181
0.3925
0.377823
0.363149
0.348476
0.333805
0.319135
0.304465
0.289795
0.275126
0.260457
0.245788
0.231118
0.216449
0.20178
0.187111
0.172442
0.157773
0.143104
0.128435
0.113766
0.0990964
0.0844273
0.0697582
0.0550891
0.04042
0.0257509
0.0110818
-0.00358728
-0.0182564
-0.0329255
-0.0475946
-0.0622637
-0.0769327
-0.0916018
-0.106271
-0.12094
-0.135609
-0.150278
-0.164947
-0.179616
-0.194285
-0.208955
-0.223623
-0.238293
-0.252962
-0.267625
0.267625
1.5108
1.5108
1.44208
1.39138
1.34455
1.3011
1.26144
1.22556
1.19308
1.16349
1.13626
1.11091
1.08707
1.06442
1.04274
1.02186
1.00163
0.981966
0.962784
0.944024
0.925636
0.907579
0.889819
0.872328
0.855081
0.838055
0.821231
0.804591
0.788121
0.771805
0.755633
0.739592
0.723674
0.707869
0.692171
0.676574
0.661072
0.645662
0.630338
0.615097
0.599933
0.584843
0.569819
0.554856
0.539947
0.525086
0.510265
0.495478
0.48072
0.465984
0.451266
0.436561
0.421867
0.407181
0.3925
0.377823
0.363149
0.348476
0.333805
0.319135
0.304465
0.289795
0.275126
0.260457
0.245788
0.231118
0.216449
0.20178
0.187111
0.172442
0.157773
0.143104
0.128435
0.113766
0.0990964
0.0844273
0.0697582
0.0550891
0.04042
0.0257509
0.0110818
-0.00358728
-0.0182564
-0.0329255
-0.0475946
-0.0622637
-0.0769327
-0.0916018
-0.106271
-0.12094
-0.135609
-0.150278
-0.164947
-0.179616
-0.194285
-0.208955
-0.223623
-0.238293
-0.252962
-0.267625
0.267625
1.49054
1.49054
1.44051
1.39178
1.34527
1.30184
1.2621
1.2261
1.19351
1.16383
1.13652
1.11112
1.08723
1.06455
1.04285
1.02194
1.0017
0.982026
0.962836
0.944069
0.925675
0.907614
0.889851
0.872357
0.855106
0.838078
0.821251
0.80461
0.788138
0.771821
0.755647
0.739605
0.723685
0.70788
0.69218
0.676582
0.661079
0.645668
0.630343
0.615101
0.599936
0.584845
0.56982
0.554857
0.539948
0.525086
0.510265
0.495478
0.48072
0.465984
0.451266
0.436561
0.421867
0.407181
0.3925
0.377823
0.363149
0.348476
0.333805
0.319135
0.304465
0.289795
0.275126
0.260457
0.245788
0.231118
0.216449
0.20178
0.187111
0.172442
0.157773
0.143104
0.128435
0.113766
0.0990964
0.0844273
0.0697582
0.0550891
0.04042
0.0257509
0.0110818
-0.00358728
-0.0182564
-0.0329255
-0.0475946
-0.0622637
-0.0769327
-0.0916018
-0.106271
-0.12094
-0.135609
-0.150278
-0.164947
-0.179616
-0.194285
-0.208955
-0.223623
-0.238293
-0.252961
-0.267625
0.267625
1.47695
1.47695
1.43844
1.39232
1.34639
1.30302
1.26316
1.22699
1.19422
1.16437
1.13694
1.11143
1.08747
1.06473
1.04299
1.02205
1.00179
0.982098
0.962896
0.94412
0.925718
0.907651
0.889883
0.872385
0.855132
0.8381
0.821271
0.804628
0.788154
0.771836
0.75566
0.739617
0.723696
0.707889
0.692189
0.67659
0.661086
0.645674
0.630348
0.615105
0.59994
0.584848
0.569823
0.554859
0.539949
0.525087
0.510266
0.495479
0.48072
0.465984
0.451266
0.436561
0.421867
0.407181
0.3925
0.377823
0.363149
0.348476
0.333805
0.319135
0.304465
0.289795
0.275126
0.260457
0.245788
0.231118
0.216449
0.20178
0.187111
0.172442
0.157773
0.143104
0.128435
0.113766
0.0990964
0.0844273
0.0697582
0.0550891
0.04042
0.0257509
0.0110818
-0.00358728
-0.0182564
-0.0329255
-0.0475946
-0.0622637
-0.0769327
-0.0916018
-0.106271
-0.12094
-0.135609
-0.150278
-0.164947
-0.179616
-0.194285
-0.208954
-0.223623
-0.238292
-0.252959
-0.267623
0.267623
1.46945
1.46945
1.43696
1.39269
1.34723
1.30394
1.26401
1.22772
1.19481
1.16484
1.1373
1.11172
1.08769
1.0649
1.04312
1.02216
1.00188
0.982175
0.962961
0.944175
0.925766
0.907693
0.88992
0.872417
0.85516
0.838126
0.821294
0.804648
0.788172
0.771852
0.755675
0.739631
0.723709
0.707901
0.6922
0.6766
0.661095
0.645682
0.630356
0.615112
0.599946
0.584853
0.569828
0.554863
0.539953
0.52509
0.510268
0.495481
0.480722
0.465985
0.451267
0.436562
0.421868
0.407181
0.3925
0.377823
0.363149
0.348476
0.333805
0.319135
0.304465
0.289795
0.275126
0.260457
0.245788
0.231118
0.216449
0.20178
0.187111
0.172442
0.157773
0.143104
0.128435
0.113766
0.0990964
0.0844273
0.0697582
0.0550891
0.04042
0.0257509
0.0110818
-0.00358728
-0.0182564
-0.0329255
-0.0475946
-0.0622637
-0.0769327
-0.0916018
-0.106271
-0.12094
-0.135609
-0.150278
-0.164947
-0.179616
-0.194285
-0.208954
-0.223623
-0.238292
-0.252955
-0.267622
0.267622
1.46707
1.46707
1.43645
1.39284
1.34755
1.30429
1.26434
1.22799
1.19504
1.16503
1.13745
1.11183
1.08778
1.06498
1.04318
1.02221
1.00192
0.982209
0.96299
0.9442
0.925788
0.907712
0.889937
0.872433
0.855174
0.838138
0.821305
0.804658
0.788181
0.77186
0.755683
0.739638
0.723715
0.707906
0.692205
0.676605
0.6611
0.645686
0.63036
0.615116
0.59995
0.584857
0.569831
0.554865
0.539955
0.525092
0.51027
0.495482
0.480723
0.465986
0.451267
0.436562
0.421868
0.407181
0.3925
0.377823
0.363149
0.348476
0.333805
0.319135
0.304465
0.289795
0.275126
0.260457
0.245788
0.231118
0.216449
0.20178
0.187111
0.172442
0.157773
0.143104
0.128435
0.113766
0.0990964
0.0844273
0.0697582
0.0550891
0.04042
0.0257509
0.0110818
-0.00358728
-0.0182564
-0.0329255
-0.0475946
-0.0622637
-0.0769327
-0.0916018
-0.106271
-0.12094
-0.135609
-0.150278
-0.164947
-0.179616
-0.194285
-0.208954
-0.223623
-0.238291
-0.252953
-0.267621
0.267621
1.46945
1.46945
1.43696
1.39269
1.34723
1.30394
1.26401
1.22772
1.19481
1.16484
1.1373
1.11172
1.08769
1.0649
1.04312
1.02216
1.00188
0.982175
0.962961
0.944175
0.925766
0.907693
0.88992
0.872417
0.85516
0.838126
0.821294
0.804648
0.788172
0.771852
0.755675
0.739631
0.723709
0.707901
0.6922
0.6766
0.661095
0.645682
0.630356
0.615112
0.599946
0.584853
0.569828
0.554863
0.539953
0.52509
0.510268
0.495481
0.480722
0.465985
0.451267
0.436562
0.421868
0.407181
0.3925
0.377823
0.363149
0.348476
0.333805
0.319135
0.304465
0.289795
0.275126
0.260457
0.245788
0.231118
0.216449
0.20178
0.187111
0.172442
0.157773
0.143104
0.128435
0.113766
0.0990964
0.0844273
0.0697582
0.0550891
0.04042
0.0257509
0.0110818
-0.00358728
-0.0182564
-0.0329255
-0.0475946
-0.0622637
-0.0769327
-0.0916018
-0.106271
-0.12094
-0.135609
-0.150278
-0.164947
-0.179616
-0.194285
-0.208954
-0.223623
-0.238292
-0.252955
-0.267622
0.267622
1.47695
1.47695
1.43844
1.39232
1.34639
1.30302
1.26316
1.22699
1.19422
1.16437
1.13694
1.11143
1.08747
1.06473
1.04299
1.02205
1.00179
0.982098
0.962896
0.94412
0.925718
0.907651
0.889883
0.872385
0.855132
0.8381
0.821271
0.804628
0.788154
0.771836
0.75566
0.739617
0.723696
0.707889
0.692189
0.67659
0.661086
0.645674
0.630348
0.615105
0.59994
0.584848
0.569823
0.554859
0.539949
0.525087
0.510266
0.495479
0.48072
0.465984
0.451266
0.436561
0.421867
0.407181
0.3925
0.377823
0.363149
0.348476
0.333805
0.319135
0.304465
0.289795
0.275126
0.260457
0.245788
0.231118
0.216449
0.20178
0.187111
0.172442
0.157773
0.143104
0.128435
0.113766
0.0990964
0.0844273
0.0697582
0.0550891
0.04042
0.0257509
0.0110818
-0.00358728
-0.0182564
-0.0329255
-0.0475946
-0.0622637
-0.0769327
-0.0916018
-0.106271
-0.12094
-0.135609
-0.150278
-0.164947
-0.179616
-0.194285
-0.208954
-0.223623
-0.238292
-0.252959
-0.267623
0.267623
1.49054
1.49054
1.44051
1.39178
1.34527
1.30184
1.2621
1.2261
1.19351
1.16383
1.13652
1.11112
1.08723
1.06455
1.04285
1.02194
1.0017
0.982026
0.962836
0.944069
0.925675
0.907614
0.889851
0.872357
0.855106
0.838078
0.821251
0.80461
0.788138
0.771821
0.755647
0.739605
0.723685
0.70788
0.69218
0.676582
0.661079
0.645668
0.630343
0.615101
0.599936
0.584845
0.56982
0.554857
0.539948
0.525086
0.510265
0.495478
0.48072
0.465984
0.451266
0.436561
0.421867
0.407181
0.3925
0.377823
0.363149
0.348476
0.333805
0.319135
0.304465
0.289795
0.275126
0.260457
0.245788
0.231118
0.216449
0.20178
0.187111
0.172442
0.157773
0.143104
0.128435
0.113766
0.0990964
0.0844273
0.0697582
0.0550891
0.04042
0.0257509
0.0110818
-0.00358728
-0.0182564
-0.0329255
-0.0475946
-0.0622637
-0.0769327
-0.0916018
-0.106271
-0.12094
-0.135609
-0.150278
-0.164947
-0.179616
-0.194285
-0.208955
-0.223623
-0.238293
-0.252961
-0.267625
0.267625
1.5108
1.5108
1.44208
1.39138
1.34455
1.3011
1.26144
1.22556
1.19308
1.16349
1.13626
1.11091
1.08707
1.06442
1.04274
1.02186
1.00163
0.981966
0.962784
0.944024
0.925636
0.907579
0.889819
0.872328
0.855081
0.838055
0.821231
0.804591
0.788121
0.771805
0.755633
0.739592
0.723674
0.707869
0.692171
0.676574
0.661072
0.645662
0.630338
0.615097
0.599933
0.584843
0.569819
0.554856
0.539947
0.525086
0.510265
0.495478
0.48072
0.465984
0.451266
0.436561
0.421867
0.407181
0.3925
0.377823
0.363149
0.348476
0.333805
0.319135
0.304465
0.289795
0.275126
0.260457
0.245788
0.231118
0.216449
0.20178
0.187111
0.172442
0.157773
0.143104
0.128435
0.113766
0.0990964
0.0844273
0.0697582
0.0550891
0.04042
0.0257509
0.0110818
-0.00358728
-0.0182564
-0.0329255
-0.0475946
-0.0622637
-0.0769327
-0.0916018
-0.106271
-0.12094
-0.135609
-0.150278
-0.164947
-0.179616
-0.194285
-0.208955
-0.223623
-0.238293
-0.252962
-0.267625
0.267625
1.5108
1.5108
1.44208
1.39138
1.34455
1.3011
1.26144
1.22556
1.19308
1.16349
1.13626
1.11091
1.08707
1.06442
1.04274
1.02186
1.00163
0.981966
0.962784
0.944024
0.925636
0.907579
0.889819
0.872328
0.855081
0.838055
0.821231
0.804591
0.788121
0.771805
0.755633
0.739592
0.723674
0.707869
0.692171
0.676574
0.661072
0.645662
0.630338
0.615097
0.599933
0.584843
0.569819
0.554856
0.539947
0.525086
0.510265
0.495478
0.48072
0.465984
0.451266
0.436561
0.421867
0.407181
0.3925
0.377823
0.363149
0.348476
0.333805
0.319135
0.304465
0.289795
0.275126
0.260457
0.245788
0.231118
0.216449
0.20178
0.187111
0.172442
0.157773
0.143104
0.128435
0.113766
0.0990964
0.0844273
0.0697582
0.0550891
0.04042
0.0257509
0.0110818
-0.00358728
-0.0182564
-0.0329255
-0.0475946
-0.0622637
-0.0769327
-0.0916018
-0.106271
-0.12094
-0.135609
-0.150278
-0.164947
-0.179616
-0.194285
-0.208955
-0.223623
-0.238293
-0.252962
-0.267625
0.267625
