# vtk DataFile Version 2.0
FlowField
ASCII
DATASET STRUCTURED_GRID
DIMENSIONS 102 1 12 
POINTS 1224 double
0 0 0
0.3 0 0
0.6 0 0
0.9 0 0
1.2 0 0
1.5 0 0
1.8 0 0
2.1 0 0
2.4 0 0
2.7 0 0
3 0 0
3.3 0 0
3.6 0 0
3.9 0 0
4.2 0 0
4.5 0 0
4.8 0 0
5.1 0 0
5.4 0 0
5.7 0 0
6 0 0
6.3 0 0
6.6 0 0
6.9 0 0
7.2 0 0
7.5 0 0
7.8 0 0
8.1 0 0
8.4 0 0
8.7 0 0
9 0 0
9.3 0 0
9.6 0 0
9.9 0 0
10.2 0 0
10.5 0 0
10.8 0 0
11.1 0 0
11.4 0 0
11.7 0 0
12 0 0
12.3 0 0
12.6 0 0
12.9 0 0
13.2 0 0
13.5 0 0
13.8 0 0
14.1 0 0
14.4 0 0
14.7 0 0
15 0 0
15.3 0 0
15.6 0 0
15.9 0 0
16.2 0 0
16.5 0 0
16.8 0 0
17.1 0 0
17.4 0 0
17.7 0 0
18 0 0
18.3 0 0
18.6 0 0
18.9 0 0
19.2 0 0
19.5 0 0
19.8 0 0
20.1 0 0
20.4 0 0
20.7 0 0
21 0 0
21.3 0 0
21.6 0 0
21.9 0 0
22.2 0 0
22.5 0 0
22.8 0 0
23.1 0 0
23.4 0 0
23.7 0 0
24 0 0
24.3 0 0
24.6 0 0
24.9 0 0
25.2 0 0
25.5 0 0
25.8 0 0
26.1 0 0
26.4 0 0
26.7 0 0
27 0 0
27.3 0 0
27.6 0 0
27.9 0 0
28.2 0 0
28.5 0 0
28.8 0 0
29.1 0 0
29.4 0 0
29.7 0 0
30 0 0
30.3 0 0
0 0.1 0
0.3 0.1 0
0.6 0.1 0
0.9 0.1 0
1.2 0.1 0
1.5 0.1 0
1.8 0.1 0
2.1 0.1 0
2.4 0.1 0
2.7 0.1 0
3 0.1 0
3.3 0.1 0
3.6 0.1 0
3.9 0.1 0
4.2 0.1 0
4.5 0.1 0
4.8 0.1 0
5.1 0.1 0
5.4 0.1 0
5.7 0.1 0
6 0.1 0
6.3 0.1 0
6.6 0.1 0
6.9 0.1 0
7.2 0.1 0
7.5 0.1 0
7.8 0.1 0
8.1 0.1 0
8.4 0.1 0
8.7 0.1 0
9 0.1 0
9.3 0.1 0
9.6 0.1 0
9.9 0.1 0
10.2 0.1 0
10.5 0.1 0
10.8 0.1 0
11.1 0.1 0
11.4 0.1 0
11.7 0.1 0
12 0.1 0
12.3 0.1 0
12.6 0.1 0
12.9 0.1 0
13.2 0.1 0
13.5 0.1 0
13.8 0.1 0
14.1 0.1 0
14.4 0.1 0
14.7 0.1 0
15 0.1 0
15.3 0.1 0
15.6 0.1 0
15.9 0.1 0
16.2 0.1 0
16.5 0.1 0
16.8 0.1 0
17.1 0.1 0
17.4 0.1 0
17.7 0.1 0
18 0.1 0
18.3 0.1 0
18.6 0.1 0
18.9 0.1 0
19.2 0.1 0
19.5 0.1 0
19.8 0.1 0
20.1 0.1 0
20.4 0.1 0
20.7 0.1 0
21 0.1 0
21.3 0.1 0
21.6 0.1 0
21.9 0.1 0
22.2 0.1 0
22.5 0.1 0
22.8 0.1 0
23.1 0.1 0
23.4 0.1 0
23.7 0.1 0
24 0.1 0
24.3 0.1 0
24.6 0.1 0
24.9 0.1 0
25.2 0.1 0
25.5 0.1 0
25.8 0.1 0
26.1 0.1 0
26.4 0.1 0
26.7 0.1 0
27 0.1 0
27.3 0.1 0
27.6 0.1 0
27.9 0.1 0
28.2 0.1 0
28.5 0.1 0
28.8 0.1 0
29.1 0.1 0
29.4 0.1 0
29.7 0.1 0
30 0.1 0
30.3 0.1 0
0 0.2 0
0.3 0.2 0
0.6 0.2 0
0.9 0.2 0
1.2 0.2 0
1.5 0.2 0
1.8 0.2 0
2.1 0.2 0
2.4 0.2 0
2.7 0.2 0
3 0.2 0
3.3 0.2 0
3.6 0.2 0
3.9 0.2 0
4.2 0.2 0
4.5 0.2 0
4.8 0.2 0
5.1 0.2 0
5.4 0.2 0
5.7 0.2 0
6 0.2 0
6.3 0.2 0
6.6 0.2 0
6.9 0.2 0
7.2 0.2 0
7.5 0.2 0
7.8 0.2 0
8.1 0.2 0
8.4 0.2 0
8.7 0.2 0
9 0.2 0
9.3 0.2 0
9.6 0.2 0
9.9 0.2 0
10.2 0.2 0
10.5 0.2 0
10.8 0.2 0
11.1 0.2 0
11.4 0.2 0
11.7 0.2 0
12 0.2 0
12.3 0.2 0
12.6 0.2 0
12.9 0.2 0
13.2 0.2 0
13.5 0.2 0
13.8 0.2 0
14.1 0.2 0
14.4 0.2 0
14.7 0.2 0
15 0.2 0
15.3 0.2 0
15.6 0.2 0
15.9 0.2 0
16.2 0.2 0
16.5 0.2 0
16.8 0.2 0
17.1 0.2 0
17.4 0.2 0
17.7 0.2 0
18 0.2 0
18.3 0.2 0
18.6 0.2 0
18.9 0.2 0
19.2 0.2 0
19.5 0.2 0
19.8 0.2 0
20.1 0.2 0
20.4 0.2 0
20.7 0.2 0
21 0.2 0
21.3 0.2 0
21.6 0.2 0
21.9 0.2 0
22.2 0.2 0
22.5 0.2 0
22.8 0.2 0
23.1 0.2 0
23.4 0.2 0
23.7 0.2 0
24 0.2 0
24.3 0.2 0
24.6 0.2 0
24.9 0.2 0
25.2 0.2 0
25.5 0.2 0
25.8 0.2 0
26.1 0.2 0
26.4 0.2 0
26.7 0.2 0
27 0.2 0
27.3 0.2 0
27.6 0.2 0
27.9 0.2 0
28.2 0.2 0
28.5 0.2 0
28.8 0.2 0
29.1 0.2 0
29.4 0.2 0
29.7 0.2 0
30 0.2 0
30.3 0.2 0
0 0.3 0
0.3 0.3 0
0.6 0.3 0
0.9 0.3 0
1.2 0.3 0
1.5 0.3 0
1.8 0.3 0
2.1 0.3 0
2.4 0.3 0
2.7 0.3 0
3 0.3 0
3.3 0.3 0
3.6 0.3 0
3.9 0.3 0
4.2 0.3 0
4.5 0.3 0
4.8 0.3 0
5.1 0.3 0
5.4 0.3 0
5.7 0.3 0
6 0.3 0
6.3 0.3 0
6.6 0.3 0
6.9 0.3 0
7.2 0.3 0
7.5 0.3 0
7.8 0.3 0
8.1 0.3 0
8.4 0.3 0
8.7 0.3 0
9 0.3 0
9.3 0.3 0
9.6 0.3 0
9.9 0.3 0
10.2 0.3 0
10.5 0.3 0
10.8 0.3 0
11.1 0.3 0
11.4 0.3 0
11.7 0.3 0
12 0.3 0
12.3 0.3 0
12.6 0.3 0
12.9 0.3 0
13.2 0.3 0
13.5 0.3 0
13.8 0.3 0
14.1 0.3 0
14.4 0.3 0
14.7 0.3 0
15 0.3 0
15.3 0.3 0
15.6 0.3 0
15.9 0.3 0
16.2 0.3 0
16.5 0.3 0
16.8 0.3 0
17.1 0.3 0
17.4 0.3 0
17.7 0.3 0
18 0.3 0
18.3 0.3 0
18.6 0.3 0
18.9 0.3 0
19.2 0.3 0
19.5 0.3 0
19.8 0.3 0
20.1 0.3 0
20.4 0.3 0
20.7 0.3 0
21 0.3 0
21.3 0.3 0
21.6 0.3 0
21.9 0.3 0
22.2 0.3 0
22.5 0.3 0
22.8 0.3 0
23.1 0.3 0
23.4 0.3 0
23.7 0.3 0
24 0.3 0
24.3 0.3 0
24.6 0.3 0
24.9 0.3 0
25.2 0.3 0
25.5 0.3 0
25.8 0.3 0
26.1 0.3 0
26.4 0.3 0
26.7 0.3 0
27 0.3 0
27.3 0.3 0
27.6 0.3 0
27.9 0.3 0
28.2 0.3 0
28.5 0.3 0
28.8 0.3 0
29.1 0.3 0
29.4 0.3 0
29.7 0.3 0
30 0.3 0
30.3 0.3 0
0 0.4 0
0.3 0.4 0
0.6 0.4 0
0.9 0.4 0
1.2 0.4 0
1.5 0.4 0
1.8 0.4 0
2.1 0.4 0
2.4 0.4 0
2.7 0.4 0
3 0.4 0
3.3 0.4 0
3.6 0.4 0
3.9 0.4 0
4.2 0.4 0
4.5 0.4 0
4.8 0.4 0
5.1 0.4 0
5.4 0.4 0
5.7 0.4 0
6 0.4 0
6.3 0.4 0
6.6 0.4 0
6.9 0.4 0
7.2 0.4 0
7.5 0.4 0
7.8 0.4 0
8.1 0.4 0
8.4 0.4 0
8.7 0.4 0
9 0.4 0
9.3 0.4 0
9.6 0.4 0
9.9 0.4 0
10.2 0.4 0
10.5 0.4 0
10.8 0.4 0
11.1 0.4 0
11.4 0.4 0
11.7 0.4 0
12 0.4 0
12.3 0.4 0
12.6 0.4 0
12.9 0.4 0
13.2 0.4 0
13.5 0.4 0
13.8 0.4 0
14.1 0.4 0
14.4 0.4 0
14.7 0.4 0
15 0.4 0
15.3 0.4 0
15.6 0.4 0
15.9 0.4 0
16.2 0.4 0
16.5 0.4 0
16.8 0.4 0
17.1 0.4 0
17.4 0.4 0
17.7 0.4 0
18 0.4 0
18.3 0.4 0
18.6 0.4 0
18.9 0.4 0
19.2 0.4 0
19.5 0.4 0
19.8 0.4 0
20.1 0.4 0
20.4 0.4 0
20.7 0.4 0
21 0.4 0
21.3 0.4 0
21.6 0.4 0
21.9 0.4 0
22.2 0.4 0
22.5 0.4 0
22.8 0.4 0
23.1 0.4 0
23.4 0.4 0
23.7 0.4 0
24 0.4 0
24.3 0.4 0
24.6 0.4 0
24.9 0.4 0
25.2 0.4 0
25.5 0.4 0
25.8 0.4 0
26.1 0.4 0
26.4 0.4 0
26.7 0.4 0
27 0.4 0
27.3 0.4 0
27.6 0.4 0
27.9 0.4 0
28.2 0.4 0
28.5 0.4 0
28.8 0.4 0
29.1 0.4 0
29.4 0.4 0
29.7 0.4 0
30 0.4 0
30.3 0.4 0
0 0.5 0
0.3 0.5 0
0.6 0.5 0
0.9 0.5 0
1.2 0.5 0
1.5 0.5 0
1.8 0.5 0
2.1 0.5 0
2.4 0.5 0
2.7 0.5 0
3 0.5 0
3.3 0.5 0
3.6 0.5 0
3.9 0.5 0
4.2 0.5 0
4.5 0.5 0
4.8 0.5 0
5.1 0.5 0
5.4 0.5 0
5.7 0.5 0
6 0.5 0
6.3 0.5 0
6.6 0.5 0
6.9 0.5 0
7.2 0.5 0
7.5 0.5 0
7.8 0.5 0
8.1 0.5 0
8.4 0.5 0
8.7 0.5 0
9 0.5 0
9.3 0.5 0
9.6 0.5 0
9.9 0.5 0
10.2 0.5 0
10.5 0.5 0
10.8 0.5 0
11.1 0.5 0
11.4 0.5 0
11.7 0.5 0
12 0.5 0
12.3 0.5 0
12.6 0.5 0
12.9 0.5 0
13.2 0.5 0
13.5 0.5 0
13.8 0.5 0
14.1 0.5 0
14.4 0.5 0
14.7 0.5 0
15 0.5 0
15.3 0.5 0
15.6 0.5 0
15.9 0.5 0
16.2 0.5 0
16.5 0.5 0
16.8 0.5 0
17.1 0.5 0
17.4 0.5 0
17.7 0.5 0
18 0.5 0
18.3 0.5 0
18.6 0.5 0
18.9 0.5 0
19.2 0.5 0
19.5 0.5 0
19.8 0.5 0
20.1 0.5 0
20.4 0.5 0
20.7 0.5 0
21 0.5 0
21.3 0.5 0
21.6 0.5 0
21.9 0.5 0
22.2 0.5 0
22.5 0.5 0
22.8 0.5 0
23.1 0.5 0
23.4 0.5 0
23.7 0.5 0
24 0.5 0
24.3 0.5 0
24.6 0.5 0
24.9 0.5 0
25.2 0.5 0
25.5 0.5 0
25.8 0.5 0
26.1 0.5 0
26.4 0.5 0
26.7 0.5 0
27 0.5 0
27.3 0.5 0
27.6 0.5 0
27.9 0.5 0
28.2 0.5 0
28.5 0.5 0
28.8 0.5 0
29.1 0.5 0
29.4 0.5 0
29.7 0.5 0
30 0.5 0
30.3 0.5 0
0 0.6 0
0.3 0.6 0
0.6 0.6 0
0.9 0.6 0
1.2 0.6 0
1.5 0.6 0
1.8 0.6 0
2.1 0.6 0
2.4 0.6 0
2.7 0.6 0
3 0.6 0
3.3 0.6 0
3.6 0.6 0
3.9 0.6 0
4.2 0.6 0
4.5 0.6 0
4.8 0.6 0
5.1 0.6 0
5.4 0.6 0
5.7 0.6 0
6 0.6 0
6.3 0.6 0
6.6 0.6 0
6.9 0.6 0
7.2 0.6 0
7.5 0.6 0
7.8 0.6 0
8.1 0.6 0
8.4 0.6 0
8.7 0.6 0
9 0.6 0
9.3 0.6 0
9.6 0.6 0
9.9 0.6 0
10.2 0.6 0
10.5 0.6 0
10.8 0.6 0
11.1 0.6 0
11.4 0.6 0
11.7 0.6 0
12 0.6 0
12.3 0.6 0
12.6 0.6 0
12.9 0.6 0
13.2 0.6 0
13.5 0.6 0
13.8 0.6 0
14.1 0.6 0
14.4 0.6 0
14.7 0.6 0
15 0.6 0
15.3 0.6 0
15.6 0.6 0
15.9 0.6 0
16.2 0.6 0
16.5 0.6 0
16.8 0.6 0
17.1 0.6 0
17.4 0.6 0
17.7 0.6 0
18 0.6 0
18.3 0.6 0
18.6 0.6 0
18.9 0.6 0
19.2 0.6 0
19.5 0.6 0
19.8 0.6 0
20.1 0.6 0
20.4 0.6 0
20.7 0.6 0
21 0.6 0
21.3 0.6 0
21.6 0.6 0
21.9 0.6 0
22.2 0.6 0
22.5 0.6 0
22.8 0.6 0
23.1 0.6 0
23.4 0.6 0
23.7 0.6 0
24 0.6 0
24.3 0.6 0
24.6 0.6 0
24.9 0.6 0
25.2 0.6 0
25.5 0.6 0
25.8 0.6 0
26.1 0.6 0
26.4 0.6 0
26.7 0.6 0
27 0.6 0
27.3 0.6 0
27.6 0.6 0
27.9 0.6 0
28.2 0.6 0
28.5 0.6 0
28.8 0.6 0
29.1 0.6 0
29.4 0.6 0
29.7 0.6 0
30 0.6 0
30.3 0.6 0
0 0.7 0
0.3 0.7 0
0.6 0.7 0
0.9 0.7 0
1.2 0.7 0
1.5 0.7 0
1.8 0.7 0
2.1 0.7 0
2.4 0.7 0
2.7 0.7 0
3 0.7 0
3.3 0.7 0
3.6 0.7 0
3.9 0.7 0
4.2 0.7 0
4.5 0.7 0
4.8 0.7 0
5.1 0.7 0
5.4 0.7 0
5.7 0.7 0
6 0.7 0
6.3 0.7 0
6.6 0.7 0
6.9 0.7 0
7.2 0.7 0
7.5 0.7 0
7.8 0.7 0
8.1 0.7 0
8.4 0.7 0
8.7 0.7 0
9 0.7 0
9.3 0.7 0
9.6 0.7 0
9.9 0.7 0
10.2 0.7 0
10.5 0.7 0
10.8 0.7 0
11.1 0.7 0
11.4 0.7 0
11.7 0.7 0
12 0.7 0
12.3 0.7 0
12.6 0.7 0
12.9 0.7 0
13.2 0.7 0
13.5 0.7 0
13.8 0.7 0
14.1 0.7 0
14.4 0.7 0
14.7 0.7 0
15 0.7 0
15.3 0.7 0
15.6 0.7 0
15.9 0.7 0
16.2 0.7 0
16.5 0.7 0
16.8 0.7 0
17.1 0.7 0
17.4 0.7 0
17.7 0.7 0
18 0.7 0
18.3 0.7 0
18.6 0.7 0
18.9 0.7 0
19.2 0.7 0
19.5 0.7 0
19.8 0.7 0
20.1 0.7 0
20.4 0.7 0
20.7 0.7 0
21 0.7 0
21.3 0.7 0
21.6 0.7 0
21.9 0.7 0
22.2 0.7 0
22.5 0.7 0
22.8 0.7 0
23.1 0.7 0
23.4 0.7 0
23.7 0.7 0
24 0.7 0
24.3 0.7 0
24.6 0.7 0
24.9 0.7 0
25.2 0.7 0
25.5 0.7 0
25.8 0.7 0
26.1 0.7 0
26.4 0.7 0
26.7 0.7 0
27 0.7 0
27.3 0.7 0
27.6 0.7 0
27.9 0.7 0
28.2 0.7 0
28.5 0.7 0
28.8 0.7 0
29.1 0.7 0
29.4 0.7 0
29.7 0.7 0
30 0.7 0
30.3 0.7 0
0 0.8 0
0.3 0.8 0
0.6 0.8 0
0.9 0.8 0
1.2 0.8 0
1.5 0.8 0
1.8 0.8 0
2.1 0.8 0
2.4 0.8 0
2.7 0.8 0
3 0.8 0
3.3 0.8 0
3.6 0.8 0
3.9 0.8 0
4.2 0.8 0
4.5 0.8 0
4.8 0.8 0
5.1 0.8 0
5.4 0.8 0
5.7 0.8 0
6 0.8 0
6.3 0.8 0
6.6 0.8 0
6.9 0.8 0
7.2 0.8 0
7.5 0.8 0
7.8 0.8 0
8.1 0.8 0
8.4 0.8 0
8.7 0.8 0
9 0.8 0
9.3 0.8 0
9.6 0.8 0
9.9 0.8 0
10.2 0.8 0
10.5 0.8 0
10.8 0.8 0
11.1 0.8 0
11.4 0.8 0
11.7 0.8 0
12 0.8 0
12.3 0.8 0
12.6 0.8 0
12.9 0.8 0
13.2 0.8 0
13.5 0.8 0
13.8 0.8 0
14.1 0.8 0
14.4 0.8 0
14.7 0.8 0
15 0.8 0
15.3 0.8 0
15.6 0.8 0
15.9 0.8 0
16.2 0.8 0
16.5 0.8 0
16.8 0.8 0
17.1 0.8 0
17.4 0.8 0
17.7 0.8 0
18 0.8 0
18.3 0.8 0
18.6 0.8 0
18.9 0.8 0
19.2 0.8 0
19.5 0.8 0
19.8 0.8 0
20.1 0.8 0
20.4 0.8 0
20.7 0.8 0
21 0.8 0
21.3 0.8 0
21.6 0.8 0
21.9 0.8 0
22.2 0.8 0
22.5 0.8 0
22.8 0.8 0
23.1 0.8 0
23.4 0.8 0
23.7 0.8 0
24 0.8 0
24.3 0.8 0
24.6 0.8 0
24.9 0.8 0
25.2 0.8 0
25.5 0.8 0
25.8 0.8 0
26.1 0.8 0
26.4 0.8 0
26.7 0.8 0
27 0.8 0
27.3 0.8 0
27.6 0.8 0
27.9 0.8 0
28.2 0.8 0
28.5 0.8 0
28.8 0.8 0
29.1 0.8 0
29.4 0.8 0
29.7 0.8 0
30 0.8 0
30.3 0.8 0
0 0.9 0
0.3 0.9 0
0.6 0.9 0
0.9 0.9 0
1.2 0.9 0
1.5 0.9 0
1.8 0.9 0
2.1 0.9 0
2.4 0.9 0
2.7 0.9 0
3 0.9 0
3.3 0.9 0
3.6 0.9 0
3.9 0.9 0
4.2 0.9 0
4.5 0.9 0
4.8 0.9 0
5.1 0.9 0
5.4 0.9 0
5.7 0.9 0
6 0.9 0
6.3 0.9 0
6.6 0.9 0
6.9 0.9 0
7.2 0.9 0
7.5 0.9 0
7.8 0.9 0
8.1 0.9 0
8.4 0.9 0
8.7 0.9 0
9 0.9 0
9.3 0.9 0
9.6 0.9 0
9.9 0.9 0
10.2 0.9 0
10.5 0.9 0
10.8 0.9 0
11.1 0.9 0
11.4 0.9 0
11.7 0.9 0
12 0.9 0
12.3 0.9 0
12.6 0.9 0
12.9 0.9 0
13.2 0.9 0
13.5 0.9 0
13.8 0.9 0
14.1 0.9 0
14.4 0.9 0
14.7 0.9 0
15 0.9 0
15.3 0.9 0
15.6 0.9 0
15.9 0.9 0
16.2 0.9 0
16.5 0.9 0
16.8 0.9 0
17.1 0.9 0
17.4 0.9 0
17.7 0.9 0
18 0.9 0
18.3 0.9 0
18.6 0.9 0
18.9 0.9 0
19.2 0.9 0
19.5 0.9 0
19.8 0.9 0
20.1 0.9 0
20.4 0.9 0
20.7 0.9 0
21 0.9 0
21.3 0.9 0
21.6 0.9 0
21.9 0.9 0
22.2 0.9 0
22.5 0.9 0
22.8 0.9 0
23.1 0.9 0
23.4 0.9 0
23.7 0.9 0
24 0.9 0
24.3 0.9 0
24.6 0.9 0
24.9 0.9 0
25.2 0.9 0
25.5 0.9 0
25.8 0.9 0
26.1 0.9 0
26.4 0.9 0
26.7 0.9 0
27 0.9 0
27.3 0.9 0
27.6 0.9 0
27.9 0.9 0
28.2 0.9 0
28.5 0.9 0
28.8 0.9 0
29.1 0.9 0
29.4 0.9 0
29.7 0.9 0
30 0.9 0
30.3 0.9 0
0 1 0
0.3 1 0
0.6 1 0
0.9 1 0
1.2 1 0
1.5 1 0
1.8 1 0
2.1 1 0
2.4 1 0
2.7 1 0
3 1 0
3.3 1 0
3.6 1 0
3.9 1 0
4.2 1 0
4.5 1 0
4.8 1 0
5.1 1 0
5.4 1 0
5.7 1 0
6 1 0
6.3 1 0
6.6 1 0
6.9 1 0
7.2 1 0
7.5 1 0
7.8 1 0
8.1 1 0
8.4 1 0
8.7 1 0
9 1 0
9.3 1 0
9.6 1 0
9.9 1 0
10.2 1 0
10.5 1 0
10.8 1 0
11.1 1 0
11.4 1 0
11.7 1 0
12 1 0
12.3 1 0
12.6 1 0
12.9 1 0
13.2 1 0
13.5 1 0
13.8 1 0
14.1 1 0
14.4 1 0
14.7 1 0
15 1 0
15.3 1 0
15.6 1 0
15.9 1 0
16.2 1 0
16.5 1 0
16.8 1 0
17.1 1 0
17.4 1 0
17.7 1 0
18 1 0
18.3 1 0
18.6 1 0
18.9 1 0
19.2 1 0
19.5 1 0
19.8 1 0
20.1 1 0
20.4 1 0
20.7 1 0
21 1 0
21.3 1 0
21.6 1 0
21.9 1 0
22.2 1 0
22.5 1 0
22.8 1 0
23.1 1 0
23.4 1 0
23.7 1 0
24 1 0
24.3 1 0
24.6 1 0
24.9 1 0
25.2 1 0
25.5 1 0
25.8 1 0
26.1 1 0
26.4 1 0
26.7 1 0
27 1 0
27.3 1 0
27.6 1 0
27.9 1 0
28.2 1 0
28.5 1 0
28.8 1 0
29.1 1 0
29.4 1 0
29.7 1 0
30 1 0
30.3 1 0
0 1.1 0
0.3 1.1 0
0.6 1.1 0
0.9 1.1 0
1.2 1.1 0
1.5 1.1 0
1.8 1.1 0
2.1 1.1 0
2.4 1.1 0
2.7 1.1 0
3 1.1 0
3.3 1.1 0
3.6 1.1 0
3.9 1.1 0
4.2 1.1 0
4.5 1.1 0
4.8 1.1 0
5.1 1.1 0
5.4 1.1 0
5.7 1.1 0
6 1.1 0
6.3 1.1 0
6.6 1.1 0
6.9 1.1 0
7.2 1.1 0
7.5 1.1 0
7.8 1.1 0
8.1 1.1 0
8.4 1.1 0
8.7 1.1 0
9 1.1 0
9.3 1.1 0
9.6 1.1 0
9.9 1.1 0
10.2 1.1 0
10.5 1.1 0
10.8 1.1 0
11.1 1.1 0
11.4 1.1 0
11.7 1.1 0
12 1.1 0
12.3 1.1 0
12.6 1.1 0
12.9 1.1 0
13.2 1.1 0
13.5 1.1 0
13.8 1.1 0
14.1 1.1 0
14.4 1.1 0
14.7 1.1 0
15 1.1 0
15.3 1.1 0
15.6 1.1 0
15.9 1.1 0
16.2 1.1 0
16.5 1.1 0
16.8 1.1 0
17.1 1.1 0
17.4 1.1 0
17.7 1.1 0
18 1.1 0
18.3 1.1 0
18.6 1.1 0
18.9 1.1 0
19.2 1.1 0
19.5 1.1 0
19.8 1.1 0
20.1 1.1 0
20.4 1.1 0
20.7 1.1 0
21 1.1 0
21.3 1.1 0
21.6 1.1 0
21.9 1.1 0
22.2 1.1 0
22.5 1.1 0
22.8 1.1 0
23.1 1.1 0
23.4 1.1 0
23.7 1.1 0
24 1.1 0
24.3 1.1 0
24.6 1.1 0
24.9 1.1 0
25.2 1.1 0
25.5 1.1 0
25.8 1.1 0
26.1 1.1 0
26.4 1.1 0
26.7 1.1 0
27 1.1 0
27.3 1.1 0
27.6 1.1 0
27.9 1.1 0
28.2 1.1 0
28.5 1.1 0
28.8 1.1 0
29.1 1.1 0
29.4 1.1 0
29.7 1.1 0
30 1.1 0
30.3 1.1 0

POINT_DATA 1224

SCALARS p double
LOOKUP_TABLE default
2.28448
2.28448
2.15412
2.06782
1.99864
1.9421
1.89452
1.85282
1.81493
1.77964
1.74623
1.71427
1.68348
1.65366
1.62465
1.59634
1.56864
1.54145
1.51471
1.48836
1.46235
1.43665
1.4112
1.38599
1.36098
1.33614
1.31146
1.28692
1.2625
1.23818
1.21396
1.18982
1.16576
1.14175
1.11781
1.09391
1.07006
1.04624
1.02246
0.99871
0.974986
0.951285
0.927604
0.903941
0.880294
0.856662
0.833042
0.809433
0.785834
0.762244
0.738662
0.715087
0.691517
0.667953
0.644394
0.620839
0.597287
0.573737
0.55019
0.526645
0.503102
0.47956
0.456018
0.432478
0.408938
0.385398
0.361859
0.33832
0.314781
0.291242
0.267703
0.244165
0.220626
0.197088
0.173549
0.15001
0.126472
0.102933
0.0793948
0.0558562
0.0323177
0.00877917
-0.0147594
-0.0382979
-0.0618365
-0.085375
-0.108914
-0.132452
-0.155991
-0.179529
-0.203068
-0.226606
-0.250145
-0.273683
-0.297222
-0.32076
-0.344299
-0.367837
-0.391376
-0.414914
-0.438453
0.438453
2.28448
2.28448
2.15412
2.06782
1.99864
1.9421
1.89452
1.85282
1.81493
1.77964
1.74623
1.71427
1.68348
1.65366
1.62465
1.59634
1.56864
1.54145
1.51471
1.48836
1.46235
1.43665
1.4112
1.38599
1.36098
1.33614
1.31146
1.28692
1.2625
1.23818
1.21396
1.18982
1.16576
1.14175
1.11781
1.09391
1.07006
1.04624
1.02246
0.99871
0.974986
0.951285
0.927604
0.903941
0.880294
0.856662
0.833042
0.809433
0.785834
0.762244
0.738662
0.715087
0.691517
0.667953
0.644394
0.620839
0.597287
0.573737
0.55019
0.526645
0.503102
0.47956
0.456018
0.432478
0.408938
0.385398
0.361859
0.33832
0.314781
0.291242
0.267703
0.244165
0.220626
0.197088
0.173549
0.15001
0.126472
0.102933
0.0793948
0.0558562
0.0323177
0.00877917
-0.0147594
-0.0382979
-0.0618365
-0.085375
-0.108914
-0.132452
-0.155991
-0.179529
-0.203068
-0.226606
-0.250145
-0.273683
-0.297222
-0.32076
-0.344299
-0.367837
-0.391376
-0.414914
-0.438453
0.438453
2.24626
2.24626
2.15229
2.06976
2.0007
1.94364
1.89554
1.85348
1.81537
1.77995
1.74646
1.71445
1.68362
1.65377
1.62475
1.59642
1.5687
1.5415
1.51476
1.4884
1.46239
1.43668
1.41123
1.38601
1.361
1.33616
1.31148
1.28693
1.26251
1.23819
1.21397
1.18983
1.16576
1.14176
1.11781
1.09391
1.07006
1.04625
1.02246
0.998713
0.974989
0.951287
0.927606
0.903943
0.880296
0.856663
0.833043
0.809434
0.785835
0.762245
0.738663
0.715087
0.691518
0.667954
0.644394
0.620839
0.597287
0.573737
0.550191
0.526645
0.503102
0.47956
0.456018
0.432478
0.408938
0.385398
0.361859
0.33832
0.314781
0.291242
0.267703
0.244165
0.220626
0.197088
0.173549
0.15001
0.126472
0.102933
0.0793948
0.0558562
0.0323177
0.00877917
-0.0147594
-0.0382979
-0.0618365
-0.085375
-0.108914
-0.132452
-0.155991
-0.179529
-0.203068
-0.226606
-0.250145
-0.273683
-0.297222
-0.32076
-0.344299
-0.367837
-0.391376
-0.414914
-0.438453
0.438453
2.2191
2.2191
2.14945
2.07255
2.00396
1.9461
1.89714
1.85446
1.81598
1.78034
1.74672
1.71464
1.68377
1.65389
1.62484
1.5965
1.56877
1.54156
1.5148
1.48844
1.46242
1.43671
1.41125
1.38603
1.36102
1.33618
1.31149
1.28695
1.26252
1.2382
1.21398
1.18984
1.16577
1.14177
1.11782
1.09392
1.07006
1.04625
1.02247
0.998716
0.974991
0.951289
0.927608
0.903944
0.880297
0.856664
0.833044
0.809435
0.785836
0.762246
0.738663
0.715088
0.691518
0.667954
0.644395
0.620839
0.597287
0.573738
0.550191
0.526646
0.503102
0.47956
0.456018
0.432478
0.408938
0.385398
0.361859
0.33832
0.314781
0.291242
0.267703
0.244165
0.220626
0.197088
0.173549
0.15001
0.126472
0.102933
0.0793948
0.0558562
0.0323177
0.00877917
-0.0147594
-0.0382979
-0.0618365
-0.085375
-0.108914
-0.132452
-0.155991
-0.179529
-0.203068
-0.226606
-0.250145
-0.273683
-0.297222
-0.32076
-0.344299
-0.367837
-0.391376
-0.414914
-0.438453
0.438453
2.20271
2.20271
2.14705
2.07477
2.00683
1.9484
1.89871
1.85547
1.81663
1.78078
1.74703
1.71487
1.68394
1.65403
1.62495
1.59659
1.56884
1.54162
1.51485
1.48848
1.46246
1.43674
1.41128
1.38606
1.36104
1.33619
1.31151
1.28696
1.26253
1.23821
1.21399
1.18985
1.16578
1.14177
1.11782
1.09392
1.07007
1.04625
1.02247
0.998719
0.974993
0.951291
0.92761
0.903946
0.880299
0.856666
0.833045
0.809436
0.785837
0.762246
0.738664
0.715088
0.691519
0.667955
0.644395
0.620839
0.597287
0.573738
0.550191
0.526646
0.503102
0.47956
0.456018
0.432478
0.408938
0.385398
0.361859
0.33832
0.314781
0.291242
0.267703
0.244165
0.220626
0.197088
0.173549
0.15001
0.126472
0.102933
0.0793948
0.0558562
0.0323177
0.00877917
-0.0147594
-0.0382979
-0.0618365
-0.085375
-0.108914
-0.132452
-0.155991
-0.179529
-0.203068
-0.226606
-0.250145
-0.273683
-0.297222
-0.32076
-0.344299
-0.367837
-0.391376
-0.414914
-0.438452
0.438452
2.19506
2.19506
2.14575
2.07595
2.00842
1.94972
1.89964
1.8561
1.81705
1.78107
1.74725
1.71503
1.68407
1.65413
1.62504
1.59666
1.5689
1.54167
1.5149
1.48852
1.46249
1.43677
1.41131
1.38608
1.36105
1.33621
1.31152
1.28697
1.26254
1.23822
1.214
1.18985
1.16578
1.14178
1.11783
1.09393
1.07007
1.04626
1.02247
0.998721
0.974995
0.951293
0.927611
0.903947
0.8803
0.856667
0.833046
0.809437
0.785838
0.762247
0.738664
0.715089
0.691519
0.667955
0.644395
0.62084
0.597287
0.573738
0.550191
0.526646
0.503102
0.47956
0.456019
0.432478
0.408938
0.385398
0.361859
0.33832
0.314781
0.291242
0.267703
0.244165
0.220626
0.197088
0.173549
0.15001
0.126472
0.102933
0.0793948
0.0558562
0.0323177
0.00877917
-0.0147594
-0.0382979
-0.0618365
-0.085375
-0.108914
-0.132452
-0.155991
-0.179529
-0.203068
-0.226606
-0.250145
-0.273683
-0.297222
-0.32076
-0.344299
-0.367837
-0.391376
-0.414914
-0.438452
0.438452
2.19506
2.19506
2.14575
2.07595
2.00842
1.94972
1.89964
1.8561
1.81705
1.78107
1.74725
1.71503
1.68407
1.65413
1.62504
1.59666
1.5689
1.54167
1.5149
1.48852
1.46249
1.43677
1.41131
1.38608
1.36105
1.33621
1.31152
1.28697
1.26254
1.23822
1.214
1.18985
1.16578
1.14178
1.11783
1.09393
1.07007
1.04626
1.02247
0.998721
0.974995
0.951293
0.927611
0.903947
0.8803
0.856667
0.833046
0.809437
0.785838
0.762247
0.738664
0.715089
0.691519
0.667955
0.644395
0.62084
0.597287
0.573738
0.550191
0.526646
0.503102
0.47956
0.456019
0.432478
0.408938
0.385398
0.361859
0.33832
0.314781
0.291242
0.267703
0.244165
0.220626
0.197088
0.173549
0.15001
0.126472
0.102933
0.0793948
0.0558563
0.0323177
0.00877917
-0.0147594
-0.0382979
-0.0618365
-0.085375
-0.108914
-0.132452
-0.155991
-0.179529
-0.203068
-0.226606
-0.250145
-0.273683
-0.297222
-0.32076
-0.344299
-0.367837
-0.391376
-0.414914
-0.438452
0.438452
2.20271
2.20271
2.14705
2.07477
2.00683
1.9484
1.89871
1.85547
1.81663
1.78078
1.74703
1.71487
1.68394
1.65403
1.62495
1.59659
1.56884
1.54162
1.51485
1.48848
1.46246
1.43674
1.41128
1.38606
1.36104
1.33619
1.31151
1.28696
1.26253
1.23821
1.21399
1.18985
1.16578
1.14177
1.11782
1.09392
1.07007
1.04625
1.02247
0.998719
0.974993
0.951291
0.92761
0.903946
0.880299
0.856666
0.833045
0.809436
0.785837
0.762246
0.738664
0.715088
0.691519
0.667955
0.644395
0.620839
0.597287
0.573738
0.550191
0.526646
0.503102
0.47956
0.456018
0.432478
0.408938
0.385398
0.361859
0.33832
0.314781
0.291242
0.267703
0.244165
0.220626
0.197088
0.173549
0.15001
0.126472
0.102933
0.0793948
0.0558563
0.0323177
0.00877917
-0.0147594
-0.0382979
-0.0618365
-0.085375
-0.108914
-0.132452
-0.155991
-0.179529
-0.203068
-0.226606
-0.250145
-0.273683
-0.297222
-0.32076
-0.344299
-0.367837
-0.391376
-0.414914
-0.438453
0.438453
2.2191
2.2191
2.14945
2.07255
2.00396
1.9461
1.89714
1.85446
1.81598
1.78034
1.74672
1.71464
1.68377
1.65389
1.62484
1.5965
1.56877
1.54156
1.5148
1.48844
1.46242
1.43671
1.41125
1.38603
1.36102
1.33618
1.31149
1.28695
1.26252
1.2382
1.21398
1.18984
1.16577
1.14177
1.11782
1.09392
1.07006
1.04625
1.02247
0.998716
0.974991
0.951289
0.927608
0.903944
0.880297
0.856664
0.833044
0.809435
0.785836
0.762246
0.738663
0.715088
0.691518
0.667954
0.644395
0.620839
0.597287
0.573738
0.550191
0.526646
0.503102
0.47956
0.456018
0.432478
0.408938
0.385398
0.361859
0.33832
0.314781
0.291242
0.267703
0.244165
0.220626
0.197088
0.173549
0.15001
0.126472
0.102933
0.0793948
0.0558563
0.0323177
0.00877917
-0.0147594
-0.0382979
-0.0618365
-0.085375
-0.108914
-0.132452
-0.155991
-0.179529
-0.203068
-0.226606
-0.250145
-0.273683
-0.297222
-0.32076
-0.344299
-0.367837
-0.391376
-0.414914
-0.438453
0.438453
2.24626
2.24626
2.15229
2.06976
2.0007
1.94364
1.89554
1.85348
1.81537
1.77995
1.74646
1.71445
1.68362
1.65377
1.62475
1.59642
1.5687
1.5415
1.51476
1.4884
1.46239
1.43668
1.41123
1.38601
1.361
1.33616
1.31148
1.28693
1.26251
1.23819
1.21397
1.18983
1.16576
1.14176
1.11781
1.09391
1.07006
1.04625
1.02246
0.998713
0.974989
0.951287
0.927606
0.903943
0.880296
0.856663
0.833043
0.809434
0.785835
0.762245
0.738663
0.715087
0.691518
0.667954
0.644394
0.620839
0.597287
0.573737
0.550191
0.526645
0.503102
0.47956
0.456018
0.432478
0.408938
0.385398
0.361859
0.33832
0.314781
0.291242
0.267703
0.244165
0.220626
0.197088
0.173549
0.15001
0.126472
0.102933
0.0793948
0.0558563
0.0323177
0.00877917
-0.0147594
-0.0382979
-0.0618365
-0.085375
-0.108914
-0.132452
-0.155991
-0.179529
-0.203068
-0.226606
-0.250145
-0.273683
-0.297222
-0.32076
-0.344299
-0.367837
-0.391376
-0.414914
-0.438453
0.438453
2.28448
2.28448
2.15412
2.06782
1.99864
1.9421
1.89452
1.85282
1.81493
1.77964
1.74623
1.71427
1.68348
1.65366
1.62465
1.59634
1.56864
1.54145
1.51471
1.48836
1.46235
1.43665
1.4112
1.38599
1.36098
1.33614
1.31146
1.28692
1.2625
1.23818
1.21396
1.18982
1.16576
1.14175
1.11781
1.09391
1.07006
1.04624
1.02246
0.99871
0.974986
0.951285
0.927604
0.903941
0.880294
0.856662
0.833042
0.809433
0.785834
0.762244
0.738662
0.715087
0.691517
0.667953
0.644394
0.620839
0.597287
0.573737
0.55019
0.526645
0.503102
0.47956
0.456018
0.432478
0.408938
0.385398
0.361859
0.33832
0.314781
0.291242
0.267703
0.244165
0.220626
0.197088
0.173549
0.15001
0.126472
0.102933
0.0793948
0.0558563
0.0323177
0.00877917
-0.0147594
-0.0382979
-0.0618365
-0.085375
-0.108914
-0.132452
-0.155991
-0.179529
-0.203068
-0.226606
-0.250145
-0.273683
-0.297222
-0.32076
-0.344299
-0.367837
-0.391376
-0.414914
-0.438453
0.438453
2.28448
2.28448
2.15412
2.06782
1.99864
1.9421
1.89452
1.85282
1.81493
1.77964
1.74623
1.71427
1.68348
1.65366
1.62465
1.59634
1.56864
1.54145
1.51471
1.48836
1.46235
1.43665
1.4112
1.38599
1.36098
1.33614
1.31146
1.28692
1.2625
1.23818
1.21396
1.18982
1.16576
1.14175
1.11781
1.09391
1.07006
1.04624
1.02246
0.99871
0.974986
0.951285
0.927604
0.903941
0.880294
0.856662
0.833042
0.809433
0.785834
0.762244
0.738662
0.715087
0.691517
0.667953
0.644394
0.620839
0.597287
0.573737
0.55019
0.526645
0.503102
0.47956
0.456018
0.432478
0.408938
0.385398
0.361859
0.33832
0.314781
0.291242
0.267703
0.244165
0.220626
0.197088
0.173549
0.15001
0.126472
0.102933
0.0793948
0.0558563
0.0323177
0.00877917
-0.0147594
-0.0382979
-0.0618365
-0.085375
-0.108914
-0.132452
-0.155991
-0.179529
-0.203068
-0.226606
-0.250145
-0.273683
-0.297222
-0.32076
-0.344299
-0.367837
-0.391376
-0.414914
-0.438453
0.438453
