# vtk DataFile Version 2.0
FlowField
ASCII
DATASET STRUCTURED_GRID
DIMENSIONS 102 1 12 
POINTS 1224 double
0 0 0
0.4 0 0
0.8 0 0
1.2 0 0
1.6 0 0
2 0 0
2.4 0 0
2.8 0 0
3.2 0 0
3.6 0 0
4 0 0
4.4 0 0
4.8 0 0
5.2 0 0
5.6 0 0
6 0 0
6.4 0 0
6.8 0 0
7.2 0 0
7.6 0 0
8 0 0
8.4 0 0
8.8 0 0
9.2 0 0
9.6 0 0
10 0 0
10.4 0 0
10.8 0 0
11.2 0 0
11.6 0 0
12 0 0
12.4 0 0
12.8 0 0
13.2 0 0
13.6 0 0
14 0 0
14.4 0 0
14.8 0 0
15.2 0 0
15.6 0 0
16 0 0
16.4 0 0
16.8 0 0
17.2 0 0
17.6 0 0
18 0 0
18.4 0 0
18.8 0 0
19.2 0 0
19.6 0 0
20 0 0
20.4 0 0
20.8 0 0
21.2 0 0
21.6 0 0
22 0 0
22.4 0 0
22.8 0 0
23.2 0 0
23.6 0 0
24 0 0
24.4 0 0
24.8 0 0
25.2 0 0
25.6 0 0
26 0 0
26.4 0 0
26.8 0 0
27.2 0 0
27.6 0 0
28 0 0
28.4 0 0
28.8 0 0
29.2 0 0
29.6 0 0
30 0 0
30.4 0 0
30.8 0 0
31.2 0 0
31.6 0 0
32 0 0
32.4 0 0
32.8 0 0
33.2 0 0
33.6 0 0
34 0 0
34.4 0 0
34.8 0 0
35.2 0 0
35.6 0 0
36 0 0
36.4 0 0
36.8 0 0
37.2 0 0
37.6 0 0
38 0 0
38.4 0 0
38.8 0 0
39.2 0 0
39.6 0 0
40 0 0
40.4 0 0
0 0.1 0
0.4 0.1 0
0.8 0.1 0
1.2 0.1 0
1.6 0.1 0
2 0.1 0
2.4 0.1 0
2.8 0.1 0
3.2 0.1 0
3.6 0.1 0
4 0.1 0
4.4 0.1 0
4.8 0.1 0
5.2 0.1 0
5.6 0.1 0
6 0.1 0
6.4 0.1 0
6.8 0.1 0
7.2 0.1 0
7.6 0.1 0
8 0.1 0
8.4 0.1 0
8.8 0.1 0
9.2 0.1 0
9.6 0.1 0
10 0.1 0
10.4 0.1 0
10.8 0.1 0
11.2 0.1 0
11.6 0.1 0
12 0.1 0
12.4 0.1 0
12.8 0.1 0
13.2 0.1 0
13.6 0.1 0
14 0.1 0
14.4 0.1 0
14.8 0.1 0
15.2 0.1 0
15.6 0.1 0
16 0.1 0
16.4 0.1 0
16.8 0.1 0
17.2 0.1 0
17.6 0.1 0
18 0.1 0
18.4 0.1 0
18.8 0.1 0
19.2 0.1 0
19.6 0.1 0
20 0.1 0
20.4 0.1 0
20.8 0.1 0
21.2 0.1 0
21.6 0.1 0
22 0.1 0
22.4 0.1 0
22.8 0.1 0
23.2 0.1 0
23.6 0.1 0
24 0.1 0
24.4 0.1 0
24.8 0.1 0
25.2 0.1 0
25.6 0.1 0
26 0.1 0
26.4 0.1 0
26.8 0.1 0
27.2 0.1 0
27.6 0.1 0
28 0.1 0
28.4 0.1 0
28.8 0.1 0
29.2 0.1 0
29.6 0.1 0
30 0.1 0
30.4 0.1 0
30.8 0.1 0
31.2 0.1 0
31.6 0.1 0
32 0.1 0
32.4 0.1 0
32.8 0.1 0
33.2 0.1 0
33.6 0.1 0
34 0.1 0
34.4 0.1 0
34.8 0.1 0
35.2 0.1 0
35.6 0.1 0
36 0.1 0
36.4 0.1 0
36.8 0.1 0
37.2 0.1 0
37.6 0.1 0
38 0.1 0
38.4 0.1 0
38.8 0.1 0
39.2 0.1 0
39.6 0.1 0
40 0.1 0
40.4 0.1 0
0 0.2 0
0.4 0.2 0
0.8 0.2 0
1.2 0.2 0
1.6 0.2 0
2 0.2 0
2.4 0.2 0
2.8 0.2 0
3.2 0.2 0
3.6 0.2 0
4 0.2 0
4.4 0.2 0
4.8 0.2 0
5.2 0.2 0
5.6 0.2 0
6 0.2 0
6.4 0.2 0
6.8 0.2 0
7.2 0.2 0
7.6 0.2 0
8 0.2 0
8.4 0.2 0
8.8 0.2 0
9.2 0.2 0
9.6 0.2 0
10 0.2 0
10.4 0.2 0
10.8 0.2 0
11.2 0.2 0
11.6 0.2 0
12 0.2 0
12.4 0.2 0
12.8 0.2 0
13.2 0.2 0
13.6 0.2 0
14 0.2 0
14.4 0.2 0
14.8 0.2 0
15.2 0.2 0
15.6 0.2 0
16 0.2 0
16.4 0.2 0
16.8 0.2 0
17.2 0.2 0
17.6 0.2 0
18 0.2 0
18.4 0.2 0
18.8 0.2 0
19.2 0.2 0
19.6 0.2 0
20 0.2 0
20.4 0.2 0
20.8 0.2 0
21.2 0.2 0
21.6 0.2 0
22 0.2 0
22.4 0.2 0
22.8 0.2 0
23.2 0.2 0
23.6 0.2 0
24 0.2 0
24.4 0.2 0
24.8 0.2 0
25.2 0.2 0
25.6 0.2 0
26 0.2 0
26.4 0.2 0
26.8 0.2 0
27.2 0.2 0
27.6 0.2 0
28 0.2 0
28.4 0.2 0
28.8 0.2 0
29.2 0.2 0
29.6 0.2 0
30 0.2 0
30.4 0.2 0
30.8 0.2 0
31.2 0.2 0
31.6 0.2 0
32 0.2 0
32.4 0.2 0
32.8 0.2 0
33.2 0.2 0
33.6 0.2 0
34 0.2 0
34.4 0.2 0
34.8 0.2 0
35.2 0.2 0
35.6 0.2 0
36 0.2 0
36.4 0.2 0
36.8 0.2 0
37.2 0.2 0
37.6 0.2 0
38 0.2 0
38.4 0.2 0
38.8 0.2 0
39.2 0.2 0
39.6 0.2 0
40 0.2 0
40.4 0.2 0
0 0.3 0
0.4 0.3 0
0.8 0.3 0
1.2 0.3 0
1.6 0.3 0
2 0.3 0
2.4 0.3 0
2.8 0.3 0
3.2 0.3 0
3.6 0.3 0
4 0.3 0
4.4 0.3 0
4.8 0.3 0
5.2 0.3 0
5.6 0.3 0
6 0.3 0
6.4 0.3 0
6.8 0.3 0
7.2 0.3 0
7.6 0.3 0
8 0.3 0
8.4 0.3 0
8.8 0.3 0
9.2 0.3 0
9.6 0.3 0
10 0.3 0
10.4 0.3 0
10.8 0.3 0
11.2 0.3 0
11.6 0.3 0
12 0.3 0
12.4 0.3 0
12.8 0.3 0
13.2 0.3 0
13.6 0.3 0
14 0.3 0
14.4 0.3 0
14.8 0.3 0
15.2 0.3 0
15.6 0.3 0
16 0.3 0
16.4 0.3 0
16.8 0.3 0
17.2 0.3 0
17.6 0.3 0
18 0.3 0
18.4 0.3 0
18.8 0.3 0
19.2 0.3 0
19.6 0.3 0
20 0.3 0
20.4 0.3 0
20.8 0.3 0
21.2 0.3 0
21.6 0.3 0
22 0.3 0
22.4 0.3 0
22.8 0.3 0
23.2 0.3 0
23.6 0.3 0
24 0.3 0
24.4 0.3 0
24.8 0.3 0
25.2 0.3 0
25.6 0.3 0
26 0.3 0
26.4 0.3 0
26.8 0.3 0
27.2 0.3 0
27.6 0.3 0
28 0.3 0
28.4 0.3 0
28.8 0.3 0
29.2 0.3 0
29.6 0.3 0
30 0.3 0
30.4 0.3 0
30.8 0.3 0
31.2 0.3 0
31.6 0.3 0
32 0.3 0
32.4 0.3 0
32.8 0.3 0
33.2 0.3 0
33.6 0.3 0
34 0.3 0
34.4 0.3 0
34.8 0.3 0
35.2 0.3 0
35.6 0.3 0
36 0.3 0
36.4 0.3 0
36.8 0.3 0
37.2 0.3 0
37.6 0.3 0
38 0.3 0
38.4 0.3 0
38.8 0.3 0
39.2 0.3 0
39.6 0.3 0
40 0.3 0
40.4 0.3 0
0 0.4 0
0.4 0.4 0
0.8 0.4 0
1.2 0.4 0
1.6 0.4 0
2 0.4 0
2.4 0.4 0
2.8 0.4 0
3.2 0.4 0
3.6 0.4 0
4 0.4 0
4.4 0.4 0
4.8 0.4 0
5.2 0.4 0
5.6 0.4 0
6 0.4 0
6.4 0.4 0
6.8 0.4 0
7.2 0.4 0
7.6 0.4 0
8 0.4 0
8.4 0.4 0
8.8 0.4 0
9.2 0.4 0
9.6 0.4 0
10 0.4 0
10.4 0.4 0
10.8 0.4 0
11.2 0.4 0
11.6 0.4 0
12 0.4 0
12.4 0.4 0
12.8 0.4 0
13.2 0.4 0
13.6 0.4 0
14 0.4 0
14.4 0.4 0
14.8 0.4 0
15.2 0.4 0
15.6 0.4 0
16 0.4 0
16.4 0.4 0
16.8 0.4 0
17.2 0.4 0
17.6 0.4 0
18 0.4 0
18.4 0.4 0
18.8 0.4 0
19.2 0.4 0
19.6 0.4 0
20 0.4 0
20.4 0.4 0
20.8 0.4 0
21.2 0.4 0
21.6 0.4 0
22 0.4 0
22.4 0.4 0
22.8 0.4 0
23.2 0.4 0
23.6 0.4 0
24 0.4 0
24.4 0.4 0
24.8 0.4 0
25.2 0.4 0
25.6 0.4 0
26 0.4 0
26.4 0.4 0
26.8 0.4 0
27.2 0.4 0
27.6 0.4 0
28 0.4 0
28.4 0.4 0
28.8 0.4 0
29.2 0.4 0
29.6 0.4 0
30 0.4 0
30.4 0.4 0
30.8 0.4 0
31.2 0.4 0
31.6 0.4 0
32 0.4 0
32.4 0.4 0
32.8 0.4 0
33.2 0.4 0
33.6 0.4 0
34 0.4 0
34.4 0.4 0
34.8 0.4 0
35.2 0.4 0
35.6 0.4 0
36 0.4 0
36.4 0.4 0
36.8 0.4 0
37.2 0.4 0
37.6 0.4 0
38 0.4 0
38.4 0.4 0
38.8 0.4 0
39.2 0.4 0
39.6 0.4 0
40 0.4 0
40.4 0.4 0
0 0.5 0
0.4 0.5 0
0.8 0.5 0
1.2 0.5 0
1.6 0.5 0
2 0.5 0
2.4 0.5 0
2.8 0.5 0
3.2 0.5 0
3.6 0.5 0
4 0.5 0
4.4 0.5 0
4.8 0.5 0
5.2 0.5 0
5.6 0.5 0
6 0.5 0
6.4 0.5 0
6.8 0.5 0
7.2 0.5 0
7.6 0.5 0
8 0.5 0
8.4 0.5 0
8.8 0.5 0
9.2 0.5 0
9.6 0.5 0
10 0.5 0
10.4 0.5 0
10.8 0.5 0
11.2 0.5 0
11.6 0.5 0
12 0.5 0
12.4 0.5 0
12.8 0.5 0
13.2 0.5 0
13.6 0.5 0
14 0.5 0
14.4 0.5 0
14.8 0.5 0
15.2 0.5 0
15.6 0.5 0
16 0.5 0
16.4 0.5 0
16.8 0.5 0
17.2 0.5 0
17.6 0.5 0
18 0.5 0
18.4 0.5 0
18.8 0.5 0
19.2 0.5 0
19.6 0.5 0
20 0.5 0
20.4 0.5 0
20.8 0.5 0
21.2 0.5 0
21.6 0.5 0
22 0.5 0
22.4 0.5 0
22.8 0.5 0
23.2 0.5 0
23.6 0.5 0
24 0.5 0
24.4 0.5 0
24.8 0.5 0
25.2 0.5 0
25.6 0.5 0
26 0.5 0
26.4 0.5 0
26.8 0.5 0
27.2 0.5 0
27.6 0.5 0
28 0.5 0
28.4 0.5 0
28.8 0.5 0
29.2 0.5 0
29.6 0.5 0
30 0.5 0
30.4 0.5 0
30.8 0.5 0
31.2 0.5 0
31.6 0.5 0
32 0.5 0
32.4 0.5 0
32.8 0.5 0
33.2 0.5 0
33.6 0.5 0
34 0.5 0
34.4 0.5 0
34.8 0.5 0
35.2 0.5 0
35.6 0.5 0
36 0.5 0
36.4 0.5 0
36.8 0.5 0
37.2 0.5 0
37.6 0.5 0
38 0.5 0
38.4 0.5 0
38.8 0.5 0
39.2 0.5 0
39.6 0.5 0
40 0.5 0
40.4 0.5 0
0 0.6 0
0.4 0.6 0
0.8 0.6 0
1.2 0.6 0
1.6 0.6 0
2 0.6 0
2.4 0.6 0
2.8 0.6 0
3.2 0.6 0
3.6 0.6 0
4 0.6 0
4.4 0.6 0
4.8 0.6 0
5.2 0.6 0
5.6 0.6 0
6 0.6 0
6.4 0.6 0
6.8 0.6 0
7.2 0.6 0
7.6 0.6 0
8 0.6 0
8.4 0.6 0
8.8 0.6 0
9.2 0.6 0
9.6 0.6 0
10 0.6 0
10.4 0.6 0
10.8 0.6 0
11.2 0.6 0
11.6 0.6 0
12 0.6 0
12.4 0.6 0
12.8 0.6 0
13.2 0.6 0
13.6 0.6 0
14 0.6 0
14.4 0.6 0
14.8 0.6 0
15.2 0.6 0
15.6 0.6 0
16 0.6 0
16.4 0.6 0
16.8 0.6 0
17.2 0.6 0
17.6 0.6 0
18 0.6 0
18.4 0.6 0
18.8 0.6 0
19.2 0.6 0
19.6 0.6 0
20 0.6 0
20.4 0.6 0
20.8 0.6 0
21.2 0.6 0
21.6 0.6 0
22 0.6 0
22.4 0.6 0
22.8 0.6 0
23.2 0.6 0
23.6 0.6 0
24 0.6 0
24.4 0.6 0
24.8 0.6 0
25.2 0.6 0
25.6 0.6 0
26 0.6 0
26.4 0.6 0
26.8 0.6 0
27.2 0.6 0
27.6 0.6 0
28 0.6 0
28.4 0.6 0
28.8 0.6 0
29.2 0.6 0
29.6 0.6 0
30 0.6 0
30.4 0.6 0
30.8 0.6 0
31.2 0.6 0
31.6 0.6 0
32 0.6 0
32.4 0.6 0
32.8 0.6 0
33.2 0.6 0
33.6 0.6 0
34 0.6 0
34.4 0.6 0
34.8 0.6 0
35.2 0.6 0
35.6 0.6 0
36 0.6 0
36.4 0.6 0
36.8 0.6 0
37.2 0.6 0
37.6 0.6 0
38 0.6 0
38.4 0.6 0
38.8 0.6 0
39.2 0.6 0
39.6 0.6 0
40 0.6 0
40.4 0.6 0
0 0.7 0
0.4 0.7 0
0.8 0.7 0
1.2 0.7 0
1.6 0.7 0
2 0.7 0
2.4 0.7 0
2.8 0.7 0
3.2 0.7 0
3.6 0.7 0
4 0.7 0
4.4 0.7 0
4.8 0.7 0
5.2 0.7 0
5.6 0.7 0
6 0.7 0
6.4 0.7 0
6.8 0.7 0
7.2 0.7 0
7.6 0.7 0
8 0.7 0
8.4 0.7 0
8.8 0.7 0
9.2 0.7 0
9.6 0.7 0
10 0.7 0
10.4 0.7 0
10.8 0.7 0
11.2 0.7 0
11.6 0.7 0
12 0.7 0
12.4 0.7 0
12.8 0.7 0
13.2 0.7 0
13.6 0.7 0
14 0.7 0
14.4 0.7 0
14.8 0.7 0
15.2 0.7 0
15.6 0.7 0
16 0.7 0
16.4 0.7 0
16.8 0.7 0
17.2 0.7 0
17.6 0.7 0
18 0.7 0
18.4 0.7 0
18.8 0.7 0
19.2 0.7 0
19.6 0.7 0
20 0.7 0
20.4 0.7 0
20.8 0.7 0
21.2 0.7 0
21.6 0.7 0
22 0.7 0
22.4 0.7 0
22.8 0.7 0
23.2 0.7 0
23.6 0.7 0
24 0.7 0
24.4 0.7 0
24.8 0.7 0
25.2 0.7 0
25.6 0.7 0
26 0.7 0
26.4 0.7 0
26.8 0.7 0
27.2 0.7 0
27.6 0.7 0
28 0.7 0
28.4 0.7 0
28.8 0.7 0
29.2 0.7 0
29.6 0.7 0
30 0.7 0
30.4 0.7 0
30.8 0.7 0
31.2 0.7 0
31.6 0.7 0
32 0.7 0
32.4 0.7 0
32.8 0.7 0
33.2 0.7 0
33.6 0.7 0
34 0.7 0
34.4 0.7 0
34.8 0.7 0
35.2 0.7 0
35.6 0.7 0
36 0.7 0
36.4 0.7 0
36.8 0.7 0
37.2 0.7 0
37.6 0.7 0
38 0.7 0
38.4 0.7 0
38.8 0.7 0
39.2 0.7 0
39.6 0.7 0
40 0.7 0
40.4 0.7 0
0 0.8 0
0.4 0.8 0
0.8 0.8 0
1.2 0.8 0
1.6 0.8 0
2 0.8 0
2.4 0.8 0
2.8 0.8 0
3.2 0.8 0
3.6 0.8 0
4 0.8 0
4.4 0.8 0
4.8 0.8 0
5.2 0.8 0
5.6 0.8 0
6 0.8 0
6.4 0.8 0
6.8 0.8 0
7.2 0.8 0
7.6 0.8 0
8 0.8 0
8.4 0.8 0
8.8 0.8 0
9.2 0.8 0
9.6 0.8 0
10 0.8 0
10.4 0.8 0
10.8 0.8 0
11.2 0.8 0
11.6 0.8 0
12 0.8 0
12.4 0.8 0
12.8 0.8 0
13.2 0.8 0
13.6 0.8 0
14 0.8 0
14.4 0.8 0
14.8 0.8 0
15.2 0.8 0
15.6 0.8 0
16 0.8 0
16.4 0.8 0
16.8 0.8 0
17.2 0.8 0
17.6 0.8 0
18 0.8 0
18.4 0.8 0
18.8 0.8 0
19.2 0.8 0
19.6 0.8 0
20 0.8 0
20.4 0.8 0
20.8 0.8 0
21.2 0.8 0
21.6 0.8 0
22 0.8 0
22.4 0.8 0
22.8 0.8 0
23.2 0.8 0
23.6 0.8 0
24 0.8 0
24.4 0.8 0
24.8 0.8 0
25.2 0.8 0
25.6 0.8 0
26 0.8 0
26.4 0.8 0
26.8 0.8 0
27.2 0.8 0
27.6 0.8 0
28 0.8 0
28.4 0.8 0
28.8 0.8 0
29.2 0.8 0
29.6 0.8 0
30 0.8 0
30.4 0.8 0
30.8 0.8 0
31.2 0.8 0
31.6 0.8 0
32 0.8 0
32.4 0.8 0
32.8 0.8 0
33.2 0.8 0
33.6 0.8 0
34 0.8 0
34.4 0.8 0
34.8 0.8 0
35.2 0.8 0
35.6 0.8 0
36 0.8 0
36.4 0.8 0
36.8 0.8 0
37.2 0.8 0
37.6 0.8 0
38 0.8 0
38.4 0.8 0
38.8 0.8 0
39.2 0.8 0
39.6 0.8 0
40 0.8 0
40.4 0.8 0
0 0.9 0
0.4 0.9 0
0.8 0.9 0
1.2 0.9 0
1.6 0.9 0
2 0.9 0
2.4 0.9 0
2.8 0.9 0
3.2 0.9 0
3.6 0.9 0
4 0.9 0
4.4 0.9 0
4.8 0.9 0
5.2 0.9 0
5.6 0.9 0
6 0.9 0
6.4 0.9 0
6.8 0.9 0
7.2 0.9 0
7.6 0.9 0
8 0.9 0
8.4 0.9 0
8.8 0.9 0
9.2 0.9 0
9.6 0.9 0
10 0.9 0
10.4 0.9 0
10.8 0.9 0
11.2 0.9 0
11.6 0.9 0
12 0.9 0
12.4 0.9 0
12.8 0.9 0
13.2 0.9 0
13.6 0.9 0
14 0.9 0
14.4 0.9 0
14.8 0.9 0
15.2 0.9 0
15.6 0.9 0
16 0.9 0
16.4 0.9 0
16.8 0.9 0
17.2 0.9 0
17.6 0.9 0
18 0.9 0
18.4 0.9 0
18.8 0.9 0
19.2 0.9 0
19.6 0.9 0
20 0.9 0
20.4 0.9 0
20.8 0.9 0
21.2 0.9 0
21.6 0.9 0
22 0.9 0
22.4 0.9 0
22.8 0.9 0
23.2 0.9 0
23.6 0.9 0
24 0.9 0
24.4 0.9 0
24.8 0.9 0
25.2 0.9 0
25.6 0.9 0
26 0.9 0
26.4 0.9 0
26.8 0.9 0
27.2 0.9 0
27.6 0.9 0
28 0.9 0
28.4 0.9 0
28.8 0.9 0
29.2 0.9 0
29.6 0.9 0
30 0.9 0
30.4 0.9 0
30.8 0.9 0
31.2 0.9 0
31.6 0.9 0
32 0.9 0
32.4 0.9 0
32.8 0.9 0
33.2 0.9 0
33.6 0.9 0
34 0.9 0
34.4 0.9 0
34.8 0.9 0
35.2 0.9 0
35.6 0.9 0
36 0.9 0
36.4 0.9 0
36.8 0.9 0
37.2 0.9 0
37.6 0.9 0
38 0.9 0
38.4 0.9 0
38.8 0.9 0
39.2 0.9 0
39.6 0.9 0
40 0.9 0
40.4 0.9 0
0 1 0
0.4 1 0
0.8 1 0
1.2 1 0
1.6 1 0
2 1 0
2.4 1 0
2.8 1 0
3.2 1 0
3.6 1 0
4 1 0
4.4 1 0
4.8 1 0
5.2 1 0
5.6 1 0
6 1 0
6.4 1 0
6.8 1 0
7.2 1 0
7.6 1 0
8 1 0
8.4 1 0
8.8 1 0
9.2 1 0
9.6 1 0
10 1 0
10.4 1 0
10.8 1 0
11.2 1 0
11.6 1 0
12 1 0
12.4 1 0
12.8 1 0
13.2 1 0
13.6 1 0
14 1 0
14.4 1 0
14.8 1 0
15.2 1 0
15.6 1 0
16 1 0
16.4 1 0
16.8 1 0
17.2 1 0
17.6 1 0
18 1 0
18.4 1 0
18.8 1 0
19.2 1 0
19.6 1 0
20 1 0
20.4 1 0
20.8 1 0
21.2 1 0
21.6 1 0
22 1 0
22.4 1 0
22.8 1 0
23.2 1 0
23.6 1 0
24 1 0
24.4 1 0
24.8 1 0
25.2 1 0
25.6 1 0
26 1 0
26.4 1 0
26.8 1 0
27.2 1 0
27.6 1 0
28 1 0
28.4 1 0
28.8 1 0
29.2 1 0
29.6 1 0
30 1 0
30.4 1 0
30.8 1 0
31.2 1 0
31.6 1 0
32 1 0
32.4 1 0
32.8 1 0
33.2 1 0
33.6 1 0
34 1 0
34.4 1 0
34.8 1 0
35.2 1 0
35.6 1 0
36 1 0
36.4 1 0
36.8 1 0
37.2 1 0
37.6 1 0
38 1 0
38.4 1 0
38.8 1 0
39.2 1 0
39.6 1 0
40 1 0
40.4 1 0
0 1.1 0
0.4 1.1 0
0.8 1.1 0
1.2 1.1 0
1.6 1.1 0
2 1.1 0
2.4 1.1 0
2.8 1.1 0
3.2 1.1 0
3.6 1.1 0
4 1.1 0
4.4 1.1 0
4.8 1.1 0
5.2 1.1 0
5.6 1.1 0
6 1.1 0
6.4 1.1 0
6.8 1.1 0
7.2 1.1 0
7.6 1.1 0
8 1.1 0
8.4 1.1 0
8.8 1.1 0
9.2 1.1 0
9.6 1.1 0
10 1.1 0
10.4 1.1 0
10.8 1.1 0
11.2 1.1 0
11.6 1.1 0
12 1.1 0
12.4 1.1 0
12.8 1.1 0
13.2 1.1 0
13.6 1.1 0
14 1.1 0
14.4 1.1 0
14.8 1.1 0
15.2 1.1 0
15.6 1.1 0
16 1.1 0
16.4 1.1 0
16.8 1.1 0
17.2 1.1 0
17.6 1.1 0
18 1.1 0
18.4 1.1 0
18.8 1.1 0
19.2 1.1 0
19.6 1.1 0
20 1.1 0
20.4 1.1 0
20.8 1.1 0
21.2 1.1 0
21.6 1.1 0
22 1.1 0
22.4 1.1 0
22.8 1.1 0
23.2 1.1 0
23.6 1.1 0
24 1.1 0
24.4 1.1 0
24.8 1.1 0
25.2 1.1 0
25.6 1.1 0
26 1.1 0
26.4 1.1 0
26.8 1.1 0
27.2 1.1 0
27.6 1.1 0
28 1.1 0
28.4 1.1 0
28.8 1.1 0
29.2 1.1 0
29.6 1.1 0
30 1.1 0
30.4 1.1 0
30.8 1.1 0
31.2 1.1 0
31.6 1.1 0
32 1.1 0
32.4 1.1 0
32.8 1.1 0
33.2 1.1 0
33.6 1.1 0
34 1.1 0
34.4 1.1 0
34.8 1.1 0
35.2 1.1 0
35.6 1.1 0
36 1.1 0
36.4 1.1 0
36.8 1.1 0
37.2 1.1 0
37.6 1.1 0
38 1.1 0
38.4 1.1 0
38.8 1.1 0
39.2 1.1 0
39.6 1.1 0
40 1.1 0
40.4 1.1 0

POINT_DATA 1224

SCALARS u double
LOOKUP_TABLE default
-1
-0.80718
-0.659027
-0.550101
-0.474363
-0.423321
-0.389
-0.365438
-0.348706
-0.336385
-0.327021
-0.319734
-0.313975
-0.309378
-0.305692
-0.302733
-0.300364
-0.29848
-0.296999
-0.295856
-0.295001
-0.294389
-0.293983
-0.293747
-0.293652
-0.293675
-0.293791
-0.293957
-0.294147
-0.294342
-0.294527
-0.294693
-0.294836
-0.294954
-0.295048
-0.295122
-0.295178
-0.295219
-0.295249
-0.29527
-0.295285
-0.295296
-0.295303
-0.295307
-0.29531
-0.295312
-0.295314
-0.295315
-0.295315
-0.295316
-0.295316
-0.295316
-0.295316
-0.295316
-0.295316
-0.295316
-0.295316
-0.295316
-0.295316
-0.295316
-0.295316
-0.295316
-0.295316
-0.295316
-0.295316
-0.295316
-0.295316
-0.295316
-0.295316
-0.295316
-0.295316
-0.295316
-0.295316
-0.295316
-0.295316
-0.295316
-0.295316
-0.295316
-0.295316
-0.295316
-0.295316
-0.295316
-0.295316
-0.295316
-0.295316
-0.295316
-0.295316
-0.295316
-0.295316
-0.295316
-0.295317
-0.295318
-0.295328
-0.295349
-0.295481
-0.295799
-0.297658
-0.302378
-0.329449
-0.37213
-1
-0.37213
1
0.80718
0.659027
0.550101
0.474363
0.423321
0.389
0.365438
0.348706
0.336385
0.327021
0.319734
0.313975
0.309378
0.305692
0.302733
0.300364
0.298479
0.296998
0.295854
0.294998
0.294384
0.293976
0.293739
0.293642
0.293663
0.293778
0.293943
0.294133
0.294328
0.294512
0.294679
0.294822
0.29494
0.295035
0.295109
0.295165
0.295207
0.295237
0.295258
0.295273
0.295284
0.295291
0.295295
0.295298
0.2953
0.295302
0.295303
0.295303
0.295304
0.295304
0.295304
0.295304
0.295304
0.295304
0.295304
0.295304
0.295304
0.295304
0.295304
0.295304
0.295304
0.295304
0.295304
0.295304
0.295304
0.295304
0.295304
0.295304
0.295304
0.295304
0.295304
0.295304
0.295304
0.295304
0.295304
0.295304
0.295304
0.295304
0.295304
0.295304
0.295304
0.295304
0.295304
0.295304
0.295304
0.295304
0.295304
0.295304
0.295304
0.295305
0.295306
0.295316
0.295337
0.295469
0.295787
0.297647
0.302367
0.329438
0.372123
1
0.37213
1
1.02373
1.02809
1.01223
0.983935
0.950688
0.917729
0.887957
0.86251
0.841467
0.824393
0.810677
0.799714
0.790972
0.78401
0.778478
0.774099
0.770656
0.767983
0.76595
0.764455
0.763415
0.762758
0.76242
0.76234
0.762453
0.762717
0.763089
0.763511
0.76394
0.764344
0.764704
0.765011
0.765261
0.76546
0.765612
0.765726
0.765809
0.765868
0.76591
0.765938
0.765957
0.76597
0.765979
0.765985
0.765988
0.765991
0.765992
0.765993
0.765994
0.765995
0.765995
0.765995
0.765995
0.765995
0.765995
0.765996
0.765996
0.765996
0.765996
0.765996
0.765996
0.765996
0.765996
0.765996
0.765996
0.765996
0.765996
0.765996
0.765996
0.765996
0.765996
0.765996
0.765996
0.765996
0.765996
0.765996
0.765995
0.765995
0.765995
0.765995
0.765995
0.765995
0.765995
0.765995
0.765995
0.765995
0.765995
0.765995
0.765995
0.765996
0.765996
0.766
0.766006
0.76606
0.766137
0.766993
0.767819
0.781289
0.796011
1
0.796034
1
1.04017
1.08473
1.11989
1.14301
1.15539
1.15973
1.15877
1.15476
1.1493
1.14344
1.13781
1.13272
1.12832
1.12461
1.12156
1.1191
1.11715
1.11563
1.11447
1.11362
1.11303
1.11266
1.11247
1.11245
1.11255
1.11274
1.11299
1.11329
1.1136
1.11391
1.11419
1.11443
1.11464
1.1148
1.11493
1.11503
1.1151
1.11515
1.11518
1.11521
1.11522
1.11523
1.11524
1.11524
1.11524
1.11525
1.11525
1.11525
1.11525
1.11525
1.11525
1.11525
1.11525
1.11525
1.11525
1.11525
1.11525
1.11525
1.11525
1.11525
1.11525
1.11525
1.11525
1.11525
1.11525
1.11525
1.11525
1.11525
1.11525
1.11525
1.11525
1.11525
1.11525
1.11525
1.11525
1.11525
1.11525
1.11525
1.11525
1.11525
1.11525
1.11525
1.11525
1.11525
1.11525
1.11525
1.11525
1.11525
1.11525
1.11525
1.11525
1.11525
1.11524
1.11523
1.11513
1.11507
1.11371
1.11124
1.10526
1
1.10527
1
1.03766
1.08576
1.13255
1.17421
1.20955
1.23861
1.26203
1.28064
1.29531
1.30682
1.31583
1.32289
1.32843
1.33279
1.33622
1.33893
1.34106
1.34271
1.34399
1.34494
1.34561
1.34606
1.34632
1.34642
1.3464
1.3463
1.34612
1.34592
1.3457
1.34551
1.34533
1.34519
1.34507
1.34498
1.34491
1.34486
1.34482
1.34479
1.34477
1.34476
1.34475
1.34475
1.34474
1.34474
1.34474
1.34474
1.34473
1.34473
1.34473
1.34473
1.34473
1.34473
1.34473
1.34473
1.34473
1.34473
1.34473
1.34473
1.34473
1.34473
1.34473
1.34473
1.34473
1.34473
1.34473
1.34473
1.34473
1.34473
1.34473
1.34473
1.34473
1.34473
1.34473
1.34473
1.34473
1.34473
1.34473
1.34473
1.34473
1.34473
1.34473
1.34473
1.34473
1.34473
1.34473
1.34473
1.34473
1.34473
1.34473
1.34473
1.34473
1.34473
1.34472
1.34466
1.34456
1.34362
1.34264
1.32685
1.32388
1
1.32387
1
1.03576
1.08266
1.1305
1.17621
1.21854
1.25697
1.29129
1.32149
1.34769
1.37013
1.38912
1.405
1.41816
1.42896
1.43773
1.44479
1.45041
1.45482
1.45821
1.46073
1.46252
1.46369
1.46433
1.46454
1.46441
1.464
1.46342
1.46272
1.46199
1.46127
1.46061
1.46003
1.45954
1.45915
1.45884
1.45861
1.45844
1.45831
1.45822
1.45816
1.45812
1.4581
1.45808
1.45807
1.45806
1.45806
1.45805
1.45805
1.45805
1.45805
1.45805
1.45805
1.45805
1.45805
1.45805
1.45805
1.45805
1.45805
1.45805
1.45805
1.45805
1.45805
1.45805
1.45805
1.45805
1.45805
1.45805
1.45805
1.45805
1.45805
1.45805
1.45805
1.45805
1.45805
1.45805
1.45805
1.45805
1.45805
1.45805
1.45805
1.45805
1.45805
1.45805
1.45805
1.45805
1.45805
1.45805
1.45805
1.45805
1.45805
1.45805
1.45804
1.45804
1.45793
1.45793
1.45632
1.45632
1.43247
1.437
1
1.43696
1
1.03576
1.08266
1.1305
1.17621
1.21854
1.25697
1.29129
1.32149
1.34769
1.37013
1.38912
1.405
1.41816
1.42896
1.43773
1.44479
1.45041
1.45482
1.45821
1.46073
1.46252
1.46369
1.46434
1.46455
1.46441
1.46401
1.46342
1.46272
1.46199
1.46127
1.46061
1.46003
1.45954
1.45915
1.45884
1.45861
1.45843
1.45831
1.45822
1.45816
1.45812
1.4581
1.45808
1.45807
1.45806
1.45806
1.45805
1.45805
1.45805
1.45805
1.45805
1.45805
1.45805
1.45805
1.45805
1.45805
1.45805
1.45805
1.45805
1.45805
1.45805
1.45805
1.45805
1.45805
1.45805
1.45805
1.45805
1.45805
1.45805
1.45805
1.45805
1.45805
1.45805
1.45805
1.45805
1.45805
1.45805
1.45805
1.45805
1.45805
1.45805
1.45805
1.45805
1.45805
1.45805
1.45805
1.45805
1.45805
1.45805
1.45805
1.45805
1.45804
1.45804
1.45793
1.45793
1.45632
1.45632
1.43247
1.437
1
1.43696
1
1.03766
1.08576
1.13255
1.17421
1.20955
1.23861
1.26203
1.28064
1.29531
1.30682
1.31583
1.32289
1.32843
1.33279
1.33622
1.33893
1.34106
1.34272
1.34399
1.34494
1.34561
1.34606
1.34632
1.34642
1.34641
1.3463
1.34612
1.34592
1.34571
1.34551
1.34533
1.34519
1.34507
1.34498
1.34491
1.34486
1.34482
1.34479
1.34477
1.34476
1.34475
1.34475
1.34474
1.34474
1.34474
1.34474
1.34473
1.34473
1.34473
1.34473
1.34473
1.34473
1.34473
1.34473
1.34473
1.34473
1.34473
1.34473
1.34473
1.34473
1.34473
1.34473
1.34473
1.34473
1.34473
1.34473
1.34473
1.34473
1.34473
1.34473
1.34473
1.34473
1.34473
1.34473
1.34473
1.34473
1.34473
1.34473
1.34473
1.34473
1.34473
1.34473
1.34473
1.34473
1.34473
1.34473
1.34473
1.34473
1.34473
1.34473
1.34473
1.34473
1.34472
1.34466
1.34456
1.34362
1.34264
1.32685
1.32388
1
1.32387
1
1.04017
1.08473
1.11989
1.14301
1.15539
1.15973
1.15877
1.15476
1.1493
1.14345
1.13781
1.13272
1.12832
1.12461
1.12156
1.1191
1.11715
1.11563
1.11447
1.11362
1.11303
1.11266
1.11248
1.11245
1.11255
1.11274
1.11299
1.11329
1.1136
1.1139
1.11419
1.11443
1.11464
1.1148
1.11493
1.11503
1.1151
1.11515
1.11518
1.11521
1.11522
1.11523
1.11524
1.11524
1.11524
1.11525
1.11525
1.11525
1.11525
1.11525
1.11525
1.11525
1.11525
1.11525
1.11525
1.11525
1.11525
1.11525
1.11525
1.11525
1.11525
1.11525
1.11525
1.11525
1.11525
1.11525
1.11525
1.11525
1.11525
1.11525
1.11525
1.11525
1.11525
1.11525
1.11525
1.11525
1.11525
1.11525
1.11525
1.11525
1.11525
1.11525
1.11525
1.11525
1.11525
1.11525
1.11525
1.11525
1.11525
1.11525
1.11525
1.11525
1.11524
1.11523
1.11513
1.11506
1.11371
1.11124
1.10526
1
1.10527
1
1.02373
1.02809
1.01223
0.983935
0.950688
0.917729
0.887957
0.86251
0.841467
0.824393
0.810678
0.799715
0.790973
0.784011
0.77848
0.7741
0.770658
0.767985
0.765952
0.764458
0.763418
0.762761
0.762423
0.762342
0.762455
0.762719
0.76309
0.763511
0.76394
0.764344
0.764704
0.76501
0.765261
0.765459
0.765611
0.765725
0.765808
0.765868
0.765909
0.765938
0.765957
0.76597
0.765979
0.765985
0.765988
0.765991
0.765992
0.765993
0.765994
0.765995
0.765995
0.765995
0.765995
0.765995
0.765995
0.765995
0.765995
0.765995
0.765995
0.765995
0.765995
0.765995
0.765995
0.765995
0.765995
0.765995
0.765995
0.765995
0.765995
0.765995
0.765995
0.765995
0.765995
0.765995
0.765995
0.765995
0.765995
0.765995
0.765995
0.765995
0.765995
0.765995
0.765995
0.765995
0.765995
0.765995
0.765994
0.765994
0.765994
0.765995
0.765995
0.765999
0.766005
0.766059
0.766136
0.766992
0.767819
0.781289
0.796011
1
0.796034
1
0.80718
0.659027
0.550101
0.474363
0.423321
0.389001
0.365439
0.348706
0.336385
0.327021
0.319735
0.313975
0.309378
0.305692
0.302733
0.300364
0.29848
0.296998
0.295855
0.294999
0.294385
0.293977
0.29374
0.293643
0.293664
0.293778
0.293943
0.294133
0.294327
0.294512
0.294678
0.294821
0.29494
0.295035
0.295109
0.295165
0.295207
0.295237
0.295258
0.295273
0.295284
0.295291
0.295295
0.295298
0.2953
0.295302
0.295303
0.295303
0.295304
0.295304
0.295304
0.295304
0.295304
0.295304
0.295304
0.295304
0.295304
0.295304
0.295304
0.295304
0.295304
0.295304
0.295304
0.295304
0.295304
0.295304
0.295304
0.295304
0.295304
0.295304
0.295304
0.295304
0.295304
0.295304
0.295304
0.295304
0.295304
0.295304
0.295304
0.295304
0.295304
0.295304
0.295304
0.295304
0.295304
0.295304
0.295304
0.295304
0.295304
0.295305
0.295306
0.295315
0.295336
0.295469
0.295787
0.297646
0.302367
0.329438
0.372123
1
0.37213
-1
-0.80718
-0.659027
-0.550101
-0.474363
-0.423321
-0.389001
-0.365439
-0.348706
-0.336385
-0.327021
-0.319735
-0.313975
-0.309378
-0.305692
-0.302734
-0.300365
-0.298481
-0.297
-0.295857
-0.295002
-0.29439
-0.293983
-0.293748
-0.293653
-0.293675
-0.293791
-0.293957
-0.294147
-0.294342
-0.294527
-0.294693
-0.294836
-0.294954
-0.295048
-0.295122
-0.295178
-0.295219
-0.295249
-0.29527
-0.295285
-0.295296
-0.295303
-0.295307
-0.29531
-0.295312
-0.295314
-0.295315
-0.295315
-0.295316
-0.295316
-0.295316
-0.295316
-0.295316
-0.295316
-0.295316
-0.295316
-0.295316
-0.295316
-0.295316
-0.295316
-0.295316
-0.295316
-0.295316
-0.295316
-0.295316
-0.295316
-0.295316
-0.295316
-0.295316
-0.295316
-0.295316
-0.295316
-0.295316
-0.295316
-0.295316
-0.295316
-0.295316
-0.295316
-0.295316
-0.295316
-0.295316
-0.295316
-0.295316
-0.295316
-0.295316
-0.295316
-0.295316
-0.295316
-0.295316
-0.295317
-0.295318
-0.295327
-0.295348
-0.295481
-0.295799
-0.297658
-0.302378
-0.329449
-0.37213
-1
-0.37213
