# vtk DataFile Version 2.0
FlowField
ASCII
DATASET STRUCTURED_GRID
DIMENSIONS 102 1 12 
POINTS 1224 double
0 0 0
0.4 0 0
0.8 0 0
1.2 0 0
1.6 0 0
2 0 0
2.4 0 0
2.8 0 0
3.2 0 0
3.6 0 0
4 0 0
4.4 0 0
4.8 0 0
5.2 0 0
5.6 0 0
6 0 0
6.4 0 0
6.8 0 0
7.2 0 0
7.6 0 0
8 0 0
8.4 0 0
8.8 0 0
9.2 0 0
9.6 0 0
10 0 0
10.4 0 0
10.8 0 0
11.2 0 0
11.6 0 0
12 0 0
12.4 0 0
12.8 0 0
13.2 0 0
13.6 0 0
14 0 0
14.4 0 0
14.8 0 0
15.2 0 0
15.6 0 0
16 0 0
16.4 0 0
16.8 0 0
17.2 0 0
17.6 0 0
18 0 0
18.4 0 0
18.8 0 0
19.2 0 0
19.6 0 0
20 0 0
20.4 0 0
20.8 0 0
21.2 0 0
21.6 0 0
22 0 0
22.4 0 0
22.8 0 0
23.2 0 0
23.6 0 0
24 0 0
24.4 0 0
24.8 0 0
25.2 0 0
25.6 0 0
26 0 0
26.4 0 0
26.8 0 0
27.2 0 0
27.6 0 0
28 0 0
28.4 0 0
28.8 0 0
29.2 0 0
29.6 0 0
30 0 0
30.4 0 0
30.8 0 0
31.2 0 0
31.6 0 0
32 0 0
32.4 0 0
32.8 0 0
33.2 0 0
33.6 0 0
34 0 0
34.4 0 0
34.8 0 0
35.2 0 0
35.6 0 0
36 0 0
36.4 0 0
36.8 0 0
37.2 0 0
37.6 0 0
38 0 0
38.4 0 0
38.8 0 0
39.2 0 0
39.6 0 0
40 0 0
40.4 0 0
0 0.1 0
0.4 0.1 0
0.8 0.1 0
1.2 0.1 0
1.6 0.1 0
2 0.1 0
2.4 0.1 0
2.8 0.1 0
3.2 0.1 0
3.6 0.1 0
4 0.1 0
4.4 0.1 0
4.8 0.1 0
5.2 0.1 0
5.6 0.1 0
6 0.1 0
6.4 0.1 0
6.8 0.1 0
7.2 0.1 0
7.6 0.1 0
8 0.1 0
8.4 0.1 0
8.8 0.1 0
9.2 0.1 0
9.6 0.1 0
10 0.1 0
10.4 0.1 0
10.8 0.1 0
11.2 0.1 0
11.6 0.1 0
12 0.1 0
12.4 0.1 0
12.8 0.1 0
13.2 0.1 0
13.6 0.1 0
14 0.1 0
14.4 0.1 0
14.8 0.1 0
15.2 0.1 0
15.6 0.1 0
16 0.1 0
16.4 0.1 0
16.8 0.1 0
17.2 0.1 0
17.6 0.1 0
18 0.1 0
18.4 0.1 0
18.8 0.1 0
19.2 0.1 0
19.6 0.1 0
20 0.1 0
20.4 0.1 0
20.8 0.1 0
21.2 0.1 0
21.6 0.1 0
22 0.1 0
22.4 0.1 0
22.8 0.1 0
23.2 0.1 0
23.6 0.1 0
24 0.1 0
24.4 0.1 0
24.8 0.1 0
25.2 0.1 0
25.6 0.1 0
26 0.1 0
26.4 0.1 0
26.8 0.1 0
27.2 0.1 0
27.6 0.1 0
28 0.1 0
28.4 0.1 0
28.8 0.1 0
29.2 0.1 0
29.6 0.1 0
30 0.1 0
30.4 0.1 0
30.8 0.1 0
31.2 0.1 0
31.6 0.1 0
32 0.1 0
32.4 0.1 0
32.8 0.1 0
33.2 0.1 0
33.6 0.1 0
34 0.1 0
34.4 0.1 0
34.8 0.1 0
35.2 0.1 0
35.6 0.1 0
36 0.1 0
36.4 0.1 0
36.8 0.1 0
37.2 0.1 0
37.6 0.1 0
38 0.1 0
38.4 0.1 0
38.8 0.1 0
39.2 0.1 0
39.6 0.1 0
40 0.1 0
40.4 0.1 0
0 0.2 0
0.4 0.2 0
0.8 0.2 0
1.2 0.2 0
1.6 0.2 0
2 0.2 0
2.4 0.2 0
2.8 0.2 0
3.2 0.2 0
3.6 0.2 0
4 0.2 0
4.4 0.2 0
4.8 0.2 0
5.2 0.2 0
5.6 0.2 0
6 0.2 0
6.4 0.2 0
6.8 0.2 0
7.2 0.2 0
7.6 0.2 0
8 0.2 0
8.4 0.2 0
8.8 0.2 0
9.2 0.2 0
9.6 0.2 0
10 0.2 0
10.4 0.2 0
10.8 0.2 0
11.2 0.2 0
11.6 0.2 0
12 0.2 0
12.4 0.2 0
12.8 0.2 0
13.2 0.2 0
13.6 0.2 0
14 0.2 0
14.4 0.2 0
14.8 0.2 0
15.2 0.2 0
15.6 0.2 0
16 0.2 0
16.4 0.2 0
16.8 0.2 0
17.2 0.2 0
17.6 0.2 0
18 0.2 0
18.4 0.2 0
18.8 0.2 0
19.2 0.2 0
19.6 0.2 0
20 0.2 0
20.4 0.2 0
20.8 0.2 0
21.2 0.2 0
21.6 0.2 0
22 0.2 0
22.4 0.2 0
22.8 0.2 0
23.2 0.2 0
23.6 0.2 0
24 0.2 0
24.4 0.2 0
24.8 0.2 0
25.2 0.2 0
25.6 0.2 0
26 0.2 0
26.4 0.2 0
26.8 0.2 0
27.2 0.2 0
27.6 0.2 0
28 0.2 0
28.4 0.2 0
28.8 0.2 0
29.2 0.2 0
29.6 0.2 0
30 0.2 0
30.4 0.2 0
30.8 0.2 0
31.2 0.2 0
31.6 0.2 0
32 0.2 0
32.4 0.2 0
32.8 0.2 0
33.2 0.2 0
33.6 0.2 0
34 0.2 0
34.4 0.2 0
34.8 0.2 0
35.2 0.2 0
35.6 0.2 0
36 0.2 0
36.4 0.2 0
36.8 0.2 0
37.2 0.2 0
37.6 0.2 0
38 0.2 0
38.4 0.2 0
38.8 0.2 0
39.2 0.2 0
39.6 0.2 0
40 0.2 0
40.4 0.2 0
0 0.3 0
0.4 0.3 0
0.8 0.3 0
1.2 0.3 0
1.6 0.3 0
2 0.3 0
2.4 0.3 0
2.8 0.3 0
3.2 0.3 0
3.6 0.3 0
4 0.3 0
4.4 0.3 0
4.8 0.3 0
5.2 0.3 0
5.6 0.3 0
6 0.3 0
6.4 0.3 0
6.8 0.3 0
7.2 0.3 0
7.6 0.3 0
8 0.3 0
8.4 0.3 0
8.8 0.3 0
9.2 0.3 0
9.6 0.3 0
10 0.3 0
10.4 0.3 0
10.8 0.3 0
11.2 0.3 0
11.6 0.3 0
12 0.3 0
12.4 0.3 0
12.8 0.3 0
13.2 0.3 0
13.6 0.3 0
14 0.3 0
14.4 0.3 0
14.8 0.3 0
15.2 0.3 0
15.6 0.3 0
16 0.3 0
16.4 0.3 0
16.8 0.3 0
17.2 0.3 0
17.6 0.3 0
18 0.3 0
18.4 0.3 0
18.8 0.3 0
19.2 0.3 0
19.6 0.3 0
20 0.3 0
20.4 0.3 0
20.8 0.3 0
21.2 0.3 0
21.6 0.3 0
22 0.3 0
22.4 0.3 0
22.8 0.3 0
23.2 0.3 0
23.6 0.3 0
24 0.3 0
24.4 0.3 0
24.8 0.3 0
25.2 0.3 0
25.6 0.3 0
26 0.3 0
26.4 0.3 0
26.8 0.3 0
27.2 0.3 0
27.6 0.3 0
28 0.3 0
28.4 0.3 0
28.8 0.3 0
29.2 0.3 0
29.6 0.3 0
30 0.3 0
30.4 0.3 0
30.8 0.3 0
31.2 0.3 0
31.6 0.3 0
32 0.3 0
32.4 0.3 0
32.8 0.3 0
33.2 0.3 0
33.6 0.3 0
34 0.3 0
34.4 0.3 0
34.8 0.3 0
35.2 0.3 0
35.6 0.3 0
36 0.3 0
36.4 0.3 0
36.8 0.3 0
37.2 0.3 0
37.6 0.3 0
38 0.3 0
38.4 0.3 0
38.8 0.3 0
39.2 0.3 0
39.6 0.3 0
40 0.3 0
40.4 0.3 0
0 0.4 0
0.4 0.4 0
0.8 0.4 0
1.2 0.4 0
1.6 0.4 0
2 0.4 0
2.4 0.4 0
2.8 0.4 0
3.2 0.4 0
3.6 0.4 0
4 0.4 0
4.4 0.4 0
4.8 0.4 0
5.2 0.4 0
5.6 0.4 0
6 0.4 0
6.4 0.4 0
6.8 0.4 0
7.2 0.4 0
7.6 0.4 0
8 0.4 0
8.4 0.4 0
8.8 0.4 0
9.2 0.4 0
9.6 0.4 0
10 0.4 0
10.4 0.4 0
10.8 0.4 0
11.2 0.4 0
11.6 0.4 0
12 0.4 0
12.4 0.4 0
12.8 0.4 0
13.2 0.4 0
13.6 0.4 0
14 0.4 0
14.4 0.4 0
14.8 0.4 0
15.2 0.4 0
15.6 0.4 0
16 0.4 0
16.4 0.4 0
16.8 0.4 0
17.2 0.4 0
17.6 0.4 0
18 0.4 0
18.4 0.4 0
18.8 0.4 0
19.2 0.4 0
19.6 0.4 0
20 0.4 0
20.4 0.4 0
20.8 0.4 0
21.2 0.4 0
21.6 0.4 0
22 0.4 0
22.4 0.4 0
22.8 0.4 0
23.2 0.4 0
23.6 0.4 0
24 0.4 0
24.4 0.4 0
24.8 0.4 0
25.2 0.4 0
25.6 0.4 0
26 0.4 0
26.4 0.4 0
26.8 0.4 0
27.2 0.4 0
27.6 0.4 0
28 0.4 0
28.4 0.4 0
28.8 0.4 0
29.2 0.4 0
29.6 0.4 0
30 0.4 0
30.4 0.4 0
30.8 0.4 0
31.2 0.4 0
31.6 0.4 0
32 0.4 0
32.4 0.4 0
32.8 0.4 0
33.2 0.4 0
33.6 0.4 0
34 0.4 0
34.4 0.4 0
34.8 0.4 0
35.2 0.4 0
35.6 0.4 0
36 0.4 0
36.4 0.4 0
36.8 0.4 0
37.2 0.4 0
37.6 0.4 0
38 0.4 0
38.4 0.4 0
38.8 0.4 0
39.2 0.4 0
39.6 0.4 0
40 0.4 0
40.4 0.4 0
0 0.5 0
0.4 0.5 0
0.8 0.5 0
1.2 0.5 0
1.6 0.5 0
2 0.5 0
2.4 0.5 0
2.8 0.5 0
3.2 0.5 0
3.6 0.5 0
4 0.5 0
4.4 0.5 0
4.8 0.5 0
5.2 0.5 0
5.6 0.5 0
6 0.5 0
6.4 0.5 0
6.8 0.5 0
7.2 0.5 0
7.6 0.5 0
8 0.5 0
8.4 0.5 0
8.8 0.5 0
9.2 0.5 0
9.6 0.5 0
10 0.5 0
10.4 0.5 0
10.8 0.5 0
11.2 0.5 0
11.6 0.5 0
12 0.5 0
12.4 0.5 0
12.8 0.5 0
13.2 0.5 0
13.6 0.5 0
14 0.5 0
14.4 0.5 0
14.8 0.5 0
15.2 0.5 0
15.6 0.5 0
16 0.5 0
16.4 0.5 0
16.8 0.5 0
17.2 0.5 0
17.6 0.5 0
18 0.5 0
18.4 0.5 0
18.8 0.5 0
19.2 0.5 0
19.6 0.5 0
20 0.5 0
20.4 0.5 0
20.8 0.5 0
21.2 0.5 0
21.6 0.5 0
22 0.5 0
22.4 0.5 0
22.8 0.5 0
23.2 0.5 0
23.6 0.5 0
24 0.5 0
24.4 0.5 0
24.8 0.5 0
25.2 0.5 0
25.6 0.5 0
26 0.5 0
26.4 0.5 0
26.8 0.5 0
27.2 0.5 0
27.6 0.5 0
28 0.5 0
28.4 0.5 0
28.8 0.5 0
29.2 0.5 0
29.6 0.5 0
30 0.5 0
30.4 0.5 0
30.8 0.5 0
31.2 0.5 0
31.6 0.5 0
32 0.5 0
32.4 0.5 0
32.8 0.5 0
33.2 0.5 0
33.6 0.5 0
34 0.5 0
34.4 0.5 0
34.8 0.5 0
35.2 0.5 0
35.6 0.5 0
36 0.5 0
36.4 0.5 0
36.8 0.5 0
37.2 0.5 0
37.6 0.5 0
38 0.5 0
38.4 0.5 0
38.8 0.5 0
39.2 0.5 0
39.6 0.5 0
40 0.5 0
40.4 0.5 0
0 0.6 0
0.4 0.6 0
0.8 0.6 0
1.2 0.6 0
1.6 0.6 0
2 0.6 0
2.4 0.6 0
2.8 0.6 0
3.2 0.6 0
3.6 0.6 0
4 0.6 0
4.4 0.6 0
4.8 0.6 0
5.2 0.6 0
5.6 0.6 0
6 0.6 0
6.4 0.6 0
6.8 0.6 0
7.2 0.6 0
7.6 0.6 0
8 0.6 0
8.4 0.6 0
8.8 0.6 0
9.2 0.6 0
9.6 0.6 0
10 0.6 0
10.4 0.6 0
10.8 0.6 0
11.2 0.6 0
11.6 0.6 0
12 0.6 0
12.4 0.6 0
12.8 0.6 0
13.2 0.6 0
13.6 0.6 0
14 0.6 0
14.4 0.6 0
14.8 0.6 0
15.2 0.6 0
15.6 0.6 0
16 0.6 0
16.4 0.6 0
16.8 0.6 0
17.2 0.6 0
17.6 0.6 0
18 0.6 0
18.4 0.6 0
18.8 0.6 0
19.2 0.6 0
19.6 0.6 0
20 0.6 0
20.4 0.6 0
20.8 0.6 0
21.2 0.6 0
21.6 0.6 0
22 0.6 0
22.4 0.6 0
22.8 0.6 0
23.2 0.6 0
23.6 0.6 0
24 0.6 0
24.4 0.6 0
24.8 0.6 0
25.2 0.6 0
25.6 0.6 0
26 0.6 0
26.4 0.6 0
26.8 0.6 0
27.2 0.6 0
27.6 0.6 0
28 0.6 0
28.4 0.6 0
28.8 0.6 0
29.2 0.6 0
29.6 0.6 0
30 0.6 0
30.4 0.6 0
30.8 0.6 0
31.2 0.6 0
31.6 0.6 0
32 0.6 0
32.4 0.6 0
32.8 0.6 0
33.2 0.6 0
33.6 0.6 0
34 0.6 0
34.4 0.6 0
34.8 0.6 0
35.2 0.6 0
35.6 0.6 0
36 0.6 0
36.4 0.6 0
36.8 0.6 0
37.2 0.6 0
37.6 0.6 0
38 0.6 0
38.4 0.6 0
38.8 0.6 0
39.2 0.6 0
39.6 0.6 0
40 0.6 0
40.4 0.6 0
0 0.7 0
0.4 0.7 0
0.8 0.7 0
1.2 0.7 0
1.6 0.7 0
2 0.7 0
2.4 0.7 0
2.8 0.7 0
3.2 0.7 0
3.6 0.7 0
4 0.7 0
4.4 0.7 0
4.8 0.7 0
5.2 0.7 0
5.6 0.7 0
6 0.7 0
6.4 0.7 0
6.8 0.7 0
7.2 0.7 0
7.6 0.7 0
8 0.7 0
8.4 0.7 0
8.8 0.7 0
9.2 0.7 0
9.6 0.7 0
10 0.7 0
10.4 0.7 0
10.8 0.7 0
11.2 0.7 0
11.6 0.7 0
12 0.7 0
12.4 0.7 0
12.8 0.7 0
13.2 0.7 0
13.6 0.7 0
14 0.7 0
14.4 0.7 0
14.8 0.7 0
15.2 0.7 0
15.6 0.7 0
16 0.7 0
16.4 0.7 0
16.8 0.7 0
17.2 0.7 0
17.6 0.7 0
18 0.7 0
18.4 0.7 0
18.8 0.7 0
19.2 0.7 0
19.6 0.7 0
20 0.7 0
20.4 0.7 0
20.8 0.7 0
21.2 0.7 0
21.6 0.7 0
22 0.7 0
22.4 0.7 0
22.8 0.7 0
23.2 0.7 0
23.6 0.7 0
24 0.7 0
24.4 0.7 0
24.8 0.7 0
25.2 0.7 0
25.6 0.7 0
26 0.7 0
26.4 0.7 0
26.8 0.7 0
27.2 0.7 0
27.6 0.7 0
28 0.7 0
28.4 0.7 0
28.8 0.7 0
29.2 0.7 0
29.6 0.7 0
30 0.7 0
30.4 0.7 0
30.8 0.7 0
31.2 0.7 0
31.6 0.7 0
32 0.7 0
32.4 0.7 0
32.8 0.7 0
33.2 0.7 0
33.6 0.7 0
34 0.7 0
34.4 0.7 0
34.8 0.7 0
35.2 0.7 0
35.6 0.7 0
36 0.7 0
36.4 0.7 0
36.8 0.7 0
37.2 0.7 0
37.6 0.7 0
38 0.7 0
38.4 0.7 0
38.8 0.7 0
39.2 0.7 0
39.6 0.7 0
40 0.7 0
40.4 0.7 0
0 0.8 0
0.4 0.8 0
0.8 0.8 0
1.2 0.8 0
1.6 0.8 0
2 0.8 0
2.4 0.8 0
2.8 0.8 0
3.2 0.8 0
3.6 0.8 0
4 0.8 0
4.4 0.8 0
4.8 0.8 0
5.2 0.8 0
5.6 0.8 0
6 0.8 0
6.4 0.8 0
6.8 0.8 0
7.2 0.8 0
7.6 0.8 0
8 0.8 0
8.4 0.8 0
8.8 0.8 0
9.2 0.8 0
9.6 0.8 0
10 0.8 0
10.4 0.8 0
10.8 0.8 0
11.2 0.8 0
11.6 0.8 0
12 0.8 0
12.4 0.8 0
12.8 0.8 0
13.2 0.8 0
13.6 0.8 0
14 0.8 0
14.4 0.8 0
14.8 0.8 0
15.2 0.8 0
15.6 0.8 0
16 0.8 0
16.4 0.8 0
16.8 0.8 0
17.2 0.8 0
17.6 0.8 0
18 0.8 0
18.4 0.8 0
18.8 0.8 0
19.2 0.8 0
19.6 0.8 0
20 0.8 0
20.4 0.8 0
20.8 0.8 0
21.2 0.8 0
21.6 0.8 0
22 0.8 0
22.4 0.8 0
22.8 0.8 0
23.2 0.8 0
23.6 0.8 0
24 0.8 0
24.4 0.8 0
24.8 0.8 0
25.2 0.8 0
25.6 0.8 0
26 0.8 0
26.4 0.8 0
26.8 0.8 0
27.2 0.8 0
27.6 0.8 0
28 0.8 0
28.4 0.8 0
28.8 0.8 0
29.2 0.8 0
29.6 0.8 0
30 0.8 0
30.4 0.8 0
30.8 0.8 0
31.2 0.8 0
31.6 0.8 0
32 0.8 0
32.4 0.8 0
32.8 0.8 0
33.2 0.8 0
33.6 0.8 0
34 0.8 0
34.4 0.8 0
34.8 0.8 0
35.2 0.8 0
35.6 0.8 0
36 0.8 0
36.4 0.8 0
36.8 0.8 0
37.2 0.8 0
37.6 0.8 0
38 0.8 0
38.4 0.8 0
38.8 0.8 0
39.2 0.8 0
39.6 0.8 0
40 0.8 0
40.4 0.8 0
0 0.9 0
0.4 0.9 0
0.8 0.9 0
1.2 0.9 0
1.6 0.9 0
2 0.9 0
2.4 0.9 0
2.8 0.9 0
3.2 0.9 0
3.6 0.9 0
4 0.9 0
4.4 0.9 0
4.8 0.9 0
5.2 0.9 0
5.6 0.9 0
6 0.9 0
6.4 0.9 0
6.8 0.9 0
7.2 0.9 0
7.6 0.9 0
8 0.9 0
8.4 0.9 0
8.8 0.9 0
9.2 0.9 0
9.6 0.9 0
10 0.9 0
10.4 0.9 0
10.8 0.9 0
11.2 0.9 0
11.6 0.9 0
12 0.9 0
12.4 0.9 0
12.8 0.9 0
13.2 0.9 0
13.6 0.9 0
14 0.9 0
14.4 0.9 0
14.8 0.9 0
15.2 0.9 0
15.6 0.9 0
16 0.9 0
16.4 0.9 0
16.8 0.9 0
17.2 0.9 0
17.6 0.9 0
18 0.9 0
18.4 0.9 0
18.8 0.9 0
19.2 0.9 0
19.6 0.9 0
20 0.9 0
20.4 0.9 0
20.8 0.9 0
21.2 0.9 0
21.6 0.9 0
22 0.9 0
22.4 0.9 0
22.8 0.9 0
23.2 0.9 0
23.6 0.9 0
24 0.9 0
24.4 0.9 0
24.8 0.9 0
25.2 0.9 0
25.6 0.9 0
26 0.9 0
26.4 0.9 0
26.8 0.9 0
27.2 0.9 0
27.6 0.9 0
28 0.9 0
28.4 0.9 0
28.8 0.9 0
29.2 0.9 0
29.6 0.9 0
30 0.9 0
30.4 0.9 0
30.8 0.9 0
31.2 0.9 0
31.6 0.9 0
32 0.9 0
32.4 0.9 0
32.8 0.9 0
33.2 0.9 0
33.6 0.9 0
34 0.9 0
34.4 0.9 0
34.8 0.9 0
35.2 0.9 0
35.6 0.9 0
36 0.9 0
36.4 0.9 0
36.8 0.9 0
37.2 0.9 0
37.6 0.9 0
38 0.9 0
38.4 0.9 0
38.8 0.9 0
39.2 0.9 0
39.6 0.9 0
40 0.9 0
40.4 0.9 0
0 1 0
0.4 1 0
0.8 1 0
1.2 1 0
1.6 1 0
2 1 0
2.4 1 0
2.8 1 0
3.2 1 0
3.6 1 0
4 1 0
4.4 1 0
4.8 1 0
5.2 1 0
5.6 1 0
6 1 0
6.4 1 0
6.8 1 0
7.2 1 0
7.6 1 0
8 1 0
8.4 1 0
8.8 1 0
9.2 1 0
9.6 1 0
10 1 0
10.4 1 0
10.8 1 0
11.2 1 0
11.6 1 0
12 1 0
12.4 1 0
12.8 1 0
13.2 1 0
13.6 1 0
14 1 0
14.4 1 0
14.8 1 0
15.2 1 0
15.6 1 0
16 1 0
16.4 1 0
16.8 1 0
17.2 1 0
17.6 1 0
18 1 0
18.4 1 0
18.8 1 0
19.2 1 0
19.6 1 0
20 1 0
20.4 1 0
20.8 1 0
21.2 1 0
21.6 1 0
22 1 0
22.4 1 0
22.8 1 0
23.2 1 0
23.6 1 0
24 1 0
24.4 1 0
24.8 1 0
25.2 1 0
25.6 1 0
26 1 0
26.4 1 0
26.8 1 0
27.2 1 0
27.6 1 0
28 1 0
28.4 1 0
28.8 1 0
29.2 1 0
29.6 1 0
30 1 0
30.4 1 0
30.8 1 0
31.2 1 0
31.6 1 0
32 1 0
32.4 1 0
32.8 1 0
33.2 1 0
33.6 1 0
34 1 0
34.4 1 0
34.8 1 0
35.2 1 0
35.6 1 0
36 1 0
36.4 1 0
36.8 1 0
37.2 1 0
37.6 1 0
38 1 0
38.4 1 0
38.8 1 0
39.2 1 0
39.6 1 0
40 1 0
40.4 1 0
0 1.1 0
0.4 1.1 0
0.8 1.1 0
1.2 1.1 0
1.6 1.1 0
2 1.1 0
2.4 1.1 0
2.8 1.1 0
3.2 1.1 0
3.6 1.1 0
4 1.1 0
4.4 1.1 0
4.8 1.1 0
5.2 1.1 0
5.6 1.1 0
6 1.1 0
6.4 1.1 0
6.8 1.1 0
7.2 1.1 0
7.6 1.1 0
8 1.1 0
8.4 1.1 0
8.8 1.1 0
9.2 1.1 0
9.6 1.1 0
10 1.1 0
10.4 1.1 0
10.8 1.1 0
11.2 1.1 0
11.6 1.1 0
12 1.1 0
12.4 1.1 0
12.8 1.1 0
13.2 1.1 0
13.6 1.1 0
14 1.1 0
14.4 1.1 0
14.8 1.1 0
15.2 1.1 0
15.6 1.1 0
16 1.1 0
16.4 1.1 0
16.8 1.1 0
17.2 1.1 0
17.6 1.1 0
18 1.1 0
18.4 1.1 0
18.8 1.1 0
19.2 1.1 0
19.6 1.1 0
20 1.1 0
20.4 1.1 0
20.8 1.1 0
21.2 1.1 0
21.6 1.1 0
22 1.1 0
22.4 1.1 0
22.8 1.1 0
23.2 1.1 0
23.6 1.1 0
24 1.1 0
24.4 1.1 0
24.8 1.1 0
25.2 1.1 0
25.6 1.1 0
26 1.1 0
26.4 1.1 0
26.8 1.1 0
27.2 1.1 0
27.6 1.1 0
28 1.1 0
28.4 1.1 0
28.8 1.1 0
29.2 1.1 0
29.6 1.1 0
30 1.1 0
30.4 1.1 0
30.8 1.1 0
31.2 1.1 0
31.6 1.1 0
32 1.1 0
32.4 1.1 0
32.8 1.1 0
33.2 1.1 0
33.6 1.1 0
34 1.1 0
34.4 1.1 0
34.8 1.1 0
35.2 1.1 0
35.6 1.1 0
36 1.1 0
36.4 1.1 0
36.8 1.1 0
37.2 1.1 0
37.6 1.1 0
38 1.1 0
38.4 1.1 0
38.8 1.1 0
39.2 1.1 0
39.6 1.1 0
40 1.1 0
40.4 1.1 0

POINT_DATA 1224

SCALARS phi double
LOOKUP_TABLE default
0.999994
1.00001
0.999956
0.999559
0.9983
0.995702
0.991537
0.9858
0.978615
0.970169
0.960673
0.950341
0.939374
0.92795
0.916225
0.904331
0.892374
0.880445
0.868612
0.856933
0.845449
0.834193
0.82319
0.812458
0.802007
0.791845
0.781977
0.7724
0.763114
0.754112
0.745385
0.736919
0.7287
0.720708
0.712919
0.705306
0.697837
0.690479
0.683197
0.67595
0.668702
0.661413
0.654045
0.646562
0.638931
0.631122
0.623109
0.614868
0.606382
0.597637
0.588623
0.579335
0.569769
0.559927
0.549814
0.539435
0.5288
0.517918
0.506802
0.495463
0.483915
0.472172
0.460247
0.448155
0.43591
0.423526
0.411019
0.398402
0.385691
0.372901
0.360049
0.34715
0.334221
0.321282
0.308349
0.295443
0.282584
0.269794
0.257093
0.244505
0.232053
0.219761
0.207652
0.195751
0.184081
0.172665
0.161528
0.150691
0.140175
0.130001
0.120187
0.11075
0.101707
0.0930695
0.0848495
0.0770586
0.0696931
0.0627962
0.0562272
0.0505153
0.0436434
0.0436434
0.999994
1.00001
0.999956
0.999559
0.9983
0.995702
0.991537
0.9858
0.978615
0.970169
0.960673
0.950341
0.939374
0.92795
0.916225
0.904331
0.892374
0.880445
0.868612
0.856933
0.845449
0.834193
0.82319
0.812458
0.802007
0.791845
0.781977
0.7724
0.763114
0.754112
0.745385
0.736919
0.7287
0.720708
0.712919
0.705306
0.697837
0.690479
0.683197
0.67595
0.668702
0.661413
0.654045
0.646562
0.638931
0.631122
0.623109
0.614868
0.606382
0.597637
0.588623
0.579335
0.569769
0.559927
0.549814
0.539435
0.5288
0.517918
0.506802
0.495463
0.483915
0.472172
0.460247
0.448155
0.43591
0.423526
0.411019
0.398402
0.385691
0.372901
0.360049
0.34715
0.334221
0.321282
0.308349
0.295443
0.282584
0.269794
0.257093
0.244505
0.232053
0.219761
0.207652
0.195751
0.184081
0.172665
0.161528
0.150691
0.140175
0.130001
0.120187
0.11075
0.101707
0.0930695
0.0848495
0.0770586
0.0696931
0.0627962
0.0562272
0.0505153
0.0436434
0.0436434
0.99999
1.00001
0.999544
0.998171
0.995436
0.991089
0.985125
0.977696
0.969019
0.959326
0.94884
0.937759
0.92626
0.914491
0.902577
0.890621
0.878707
0.8669
0.855254
0.843809
0.832597
0.821639
0.810952
0.800548
0.790433
0.780612
0.771083
0.761846
0.752898
0.744231
0.735839
0.727712
0.719836
0.712198
0.70478
0.69756
0.690516
0.68362
0.676845
0.670158
0.663527
0.656918
0.650297
0.64363
0.636884
0.630029
0.623034
0.615875
0.608528
0.600974
0.593195
0.585179
0.576916
0.568401
0.559628
0.550598
0.541311
0.531772
0.521985
0.511957
0.501696
0.491211
0.48051
0.469605
0.458505
0.44722
0.435763
0.424145
0.412376
0.400471
0.388441
0.3763
0.364061
0.351741
0.339354
0.326918
0.31445
0.301968
0.289493
0.277046
0.264647
0.252319
0.240086
0.227971
0.215998
0.204192
0.192577
0.181177
0.170017
0.159119
0.148506
0.1382
0.12822
0.118587
0.109315
0.100425
0.091914
0.0838544
0.0760375
0.0692579
0.0606656
0.0606656
1.00047
0.999533
0.995342
0.988481
0.979264
0.968242
0.956033
0.943149
0.929951
0.916682
0.903497
0.890497
0.877746
0.865283
0.853133
0.841311
0.829823
0.818673
0.80786
0.79738
0.787231
0.777405
0.767897
0.7587
0.749806
0.741207
0.732895
0.724863
0.717101
0.709601
0.702355
0.695352
0.688582
0.682034
0.675695
0.669551
0.663587
0.657784
0.652123
0.646583
0.641139
0.635768
0.630443
0.625138
0.619825
0.614476
0.609066
0.603568
0.597957
0.592212
0.58631
0.580233
0.573964
0.567489
0.560796
0.553875
0.546717
0.539318
0.531672
0.523778
0.515635
0.507242
0.4986
0.489713
0.480584
0.471215
0.461612
0.451779
0.441723
0.43145
0.420967
0.410284
0.399407
0.388349
0.377119
0.365731
0.354197
0.342534
0.330755
0.318881
0.306929
0.294919
0.282874
0.270816
0.258768
0.246757
0.234806
0.222943
0.211193
0.199584
0.188142
0.176894
0.165866
0.155083
0.144567
0.13435
0.124427
0.114912
0.105501
0.097334
0.0865387
0.0865387
1.00913
0.990874
0.963593
0.936344
0.910574
0.88679
0.865195
0.845729
0.828186
0.812315
0.797874
0.784649
0.77246
0.761157
0.750619
0.740743
0.731448
0.722666
0.714341
0.706426
0.698883
0.691679
0.684787
0.678184
0.671849
0.665765
0.659918
0.654293
0.64888
0.643667
0.638644
0.633803
0.629134
0.624629
0.62028
0.616076
0.612008
0.608066
0.604238
0.600511
0.596871
0.593304
0.589792
0.586318
0.582862
0.579407
0.575931
0.572414
0.568835
0.565173
0.56141
0.557523
0.553496
0.54931
0.544949
0.540395
0.535636
0.530657
0.525446
0.519993
0.514287
0.50832
0.502085
0.495574
0.488783
0.481706
0.47434
0.466682
0.458732
0.450487
0.44195
0.433121
0.424004
0.414604
0.404927
0.39498
0.384772
0.374315
0.363621
0.352705
0.341583
0.330274
0.318798
0.307176
0.295432
0.283591
0.27168
0.259726
0.247757
0.235804
0.223897
0.212066
0.200342
0.188757
0.177336
0.166122
0.155108
0.144443
0.13374
0.124435
0.111799
0.111799
1.10476
0.895237
0.791779
0.734418
0.698349
0.673559
0.65547
0.641661
0.630713
0.621752
0.614215
0.607733
0.602055
0.597005
0.592456
0.588315
0.584512
0.580993
0.577715
0.574645
0.571757
0.569029
0.566443
0.563985
0.561643
0.559406
0.557266
0.555217
0.553251
0.551363
0.549549
0.547804
0.546124
0.544506
0.542946
0.541439
0.539983
0.538573
0.537205
0.535871
0.534567
0.533286
0.532018
0.530756
0.529488
0.528203
0.526889
0.525532
0.524117
0.522631
0.521056
0.519375
0.517573
0.515632
0.513534
0.511261
0.508796
0.506122
0.503221
0.500078
0.496675
0.492998
0.489031
0.484761
0.480175
0.475261
0.470008
0.464406
0.458448
0.452127
0.445437
0.438376
0.430941
0.423134
0.414956
0.406412
0.39751
0.388257
0.378666
0.368749
0.358524
0.348007
0.337219
0.326183
0.314924
0.303467
0.291842
0.280077
0.268205
0.256258
0.244269
0.232272
0.220301
0.208392
0.196576
0.1849
0.173356
0.162117
0.150747
0.140847
0.12722
0.12722
-0.104763
0.104763
0.208221
0.265582
0.301651
0.326441
0.34453
0.358339
0.369287
0.378248
0.385785
0.392267
0.397945
0.402995
0.407544
0.411685
0.415488
0.419007
0.422285
0.425355
0.428243
0.430971
0.433557
0.436015
0.438357
0.440594
0.442734
0.444783
0.446749
0.448637
0.450451
0.452195
0.453874
0.45549
0.457046
0.458544
0.459987
0.461376
0.462712
0.463994
0.465224
0.4664
0.467519
0.468579
0.469576
0.470505
0.471358
0.472129
0.472807
0.473383
0.473843
0.474176
0.474366
0.474398
0.474253
0.473916
0.473366
0.472585
0.471553
0.470249
0.468655
0.466749
0.464514
0.46193
0.458981
0.455649
0.45192
0.447781
0.443219
0.438227
0.432796
0.426921
0.420601
0.413835
0.406626
0.398979
0.390903
0.382409
0.37351
0.364223
0.354566
0.344561
0.334232
0.323605
0.312708
0.301571
0.290227
0.278708
0.267049
0.255287
0.243456
0.231596
0.219741
0.207931
0.196198
0.184591
0.173106
0.161915
0.150585
0.140716
0.127121
0.127121
-0.00912621
0.00912621
0.036407
0.0636558
0.0894265
0.11321
0.134805
0.154271
0.171814
0.187685
0.202126
0.215351
0.22754
0.238843
0.249381
0.259257
0.268552
0.277334
0.285659
0.293574
0.301117
0.308321
0.315213
0.321816
0.328151
0.334235
0.340082
0.345707
0.35112
0.356333
0.361355
0.366194
0.370859
0.375357
0.379694
0.383877
0.387911
0.391802
0.395554
0.399171
0.402655
0.40601
0.409236
0.412334
0.415302
0.418138
0.420838
0.423397
0.425806
0.428058
0.430139
0.432039
0.433742
0.435232
0.43649
0.437498
0.438236
0.438681
0.438813
0.438609
0.438046
0.437104
0.435762
0.434
0.4318
0.429145
0.426021
0.422416
0.418321
0.413728
0.408634
0.403039
0.396944
0.390356
0.383282
0.375735
0.36773
0.359283
0.350417
0.341155
0.331522
0.321547
0.31126
0.300693
0.289881
0.27886
0.267665
0.256334
0.244905
0.233417
0.221909
0.210418
0.198982
0.18764
0.176424
0.16538
0.154508
0.14396
0.133354
0.124124
0.111566
0.111566
-0.000467025
0.000467025
0.00465755
0.0115186
0.0207356
0.0317579
0.0439669
0.0568514
0.0700488
0.083318
0.0965028
0.109503
0.122254
0.134717
0.146867
0.158689
0.170177
0.181327
0.19214
0.20262
0.212769
0.222595
0.232103
0.2413
0.250194
0.258793
0.267105
0.275137
0.282898
0.290396
0.297639
0.304635
0.311392
0.317917
0.324217
0.3303
0.336172
0.341839
0.347307
0.352579
0.357661
0.362553
0.367259
0.371777
0.376107
0.380243
0.384182
0.387916
0.391434
0.394725
0.397776
0.40057
0.403088
0.405313
0.407221
0.408793
0.410003
0.410829
0.411248
0.411237
0.410774
0.409839
0.408412
0.406477
0.40402
0.40103
0.397498
0.39342
0.388794
0.383623
0.377912
0.37167
0.364911
0.35765
0.349908
0.341707
0.333072
0.324034
0.314622
0.304869
0.294811
0.284484
0.273927
0.263178
0.252277
0.241264
0.230179
0.219063
0.207955
0.196894
0.185919
0.175065
0.164368
0.153862
0.143577
0.133552
0.123786
0.1144
0.105095
0.0970105
0.0862975
0.0862975
9.54834e-06
-9.54834e-06
0.000456061
0.00182854
0.00456363
0.00891112
0.0148752
0.0223044
0.0309812
0.0406736
0.0511603
0.0622408
0.0737403
0.0855094
0.0974232
0.109379
0.121293
0.1331
0.144746
0.156191
0.167403
0.178361
0.189048
0.199452
0.209567
0.219388
0.228917
0.238152
0.247099
0.25576
0.26414
0.272247
0.280085
0.287661
0.294981
0.302053
0.308881
0.315471
0.321827
0.327953
0.333851
0.339521
0.344962
0.35017
0.355141
0.359867
0.364338
0.368541
0.372461
0.376081
0.379382
0.382343
0.38494
0.38715
0.388948
0.390309
0.391208
0.391622
0.391528
0.390905
0.389735
0.388001
0.385692
0.382798
0.379314
0.375237
0.370572
0.365323
0.359503
0.353125
0.346209
0.338777
0.330854
0.322471
0.313659
0.304453
0.29489
0.285009
0.274851
0.264457
0.253871
0.243134
0.232292
0.221387
0.210461
0.199556
0.188713
0.177972
0.167371
0.156945
0.146728
0.136753
0.127049
0.117643
0.108558
0.0998214
0.0914352
0.0834764
0.0757413
0.0690244
0.0604934
0.0604934
5.82414e-06
-5.82414e-06
4.36942e-05
0.000440584
0.00170024
0.00429825
0.00846288
0.0141997
0.0213849
0.0298313
0.039327
0.0496587
0.0606261
0.0720499
0.0837747
0.0956693
0.107626
0.119555
0.131388
0.143067
0.154551
0.165807
0.17681
0.187542
0.197993
0.208154
0.218022
0.227596
0.236876
0.245865
0.254568
0.262989
0.271133
0.279007
0.286615
0.293964
0.301058
0.307901
0.314496
0.320844
0.326944
0.332795
0.338392
0.343727
0.348791
0.353572
0.358055
0.362222
0.366053
0.369527
0.372619
0.375305
0.377557
0.37935
0.380657
0.381452
0.381712
0.381413
0.380537
0.379065
0.376985
0.374287
0.370966
0.36702
0.362453
0.357272
0.35149
0.345125
0.338196
0.330729
0.322753
0.314301
0.305408
0.296113
0.286456
0.27648
0.266229
0.255748
0.245084
0.234283
0.22339
0.212452
0.201513
0.190619
0.17981
0.169128
0.158612
0.148298
0.138222
0.128414
0.118904
0.109718
0.100881
0.0924121
0.0843288
0.0766483
0.0693716
0.0625455
0.0560331
0.0503644
0.0435332
0.0435332
5.82414e-06
-5.82414e-06
4.36942e-05
0.000440584
0.00170024
0.00429825
0.00846288
0.0141997
0.0213849
0.0298313
0.039327
0.0496587
0.0606261
0.0720499
0.0837747
0.0956693
0.107626
0.119555
0.131388
0.143067
0.154551
0.165807
0.17681
0.187542
0.197993
0.208154
0.218022
0.227596
0.236876
0.245865
0.254568
0.262989
0.271133
0.279007
0.286615
0.293964
0.301058
0.307901
0.314496
0.320844
0.326944
0.332795
0.338392
0.343727
0.348791
0.353572
0.358055
0.362222
0.366053
0.369527
0.372619
0.375305
0.377557
0.37935
0.380657
0.381452
0.381712
0.381413
0.380537
0.379065
0.376985
0.374287
0.370966
0.36702
0.362453
0.357272
0.35149
0.345125
0.338196
0.330729
0.322753
0.314301
0.305408
0.296113
0.286456
0.27648
0.266229
0.255748
0.245084
0.234283
0.22339
0.212452
0.201513
0.190619
0.17981
0.169128
0.158612
0.148298
0.138222
0.128414
0.118904
0.109718
0.100881
0.0924121
0.0843288
0.0766483
0.0693716
0.0625455
0.0560331
0.0503644
0.0435332
0.0435332
