# vtk DataFile Version 2.0
FlowField
ASCII
DATASET STRUCTURED_GRID
DIMENSIONS 102 13 1 
POINTS 1326 double
0 0 0
0.3 0 0
0.6 0 0
0.9 0 0
1.2 0 0
1.5 0 0
1.8 0 0
2.1 0 0
2.4 0 0
2.7 0 0
3 0 0
3.3 0 0
3.6 0 0
3.9 0 0
4.2 0 0
4.5 0 0
4.8 0 0
5.1 0 0
5.4 0 0
5.7 0 0
6 0 0
6.3 0 0
6.6 0 0
6.9 0 0
7.2 0 0
7.5 0 0
7.8 0 0
8.1 0 0
8.4 0 0
8.7 0 0
9 0 0
9.3 0 0
9.6 0 0
9.9 0 0
10.2 0 0
10.5 0 0
10.8 0 0
11.1 0 0
11.4 0 0
11.7 0 0
12 0 0
12.3 0 0
12.6 0 0
12.9 0 0
13.2 0 0
13.5 0 0
13.8 0 0
14.1 0 0
14.4 0 0
14.7 0 0
15 0 0
15.3 0 0
15.6 0 0
15.9 0 0
16.2 0 0
16.5 0 0
16.8 0 0
17.1 0 0
17.4 0 0
17.7 0 0
18 0 0
18.3 0 0
18.6 0 0
18.9 0 0
19.2 0 0
19.5 0 0
19.8 0 0
20.1 0 0
20.4 0 0
20.7 0 0
21 0 0
21.3 0 0
21.6 0 0
21.9 0 0
22.2 0 0
22.5 0 0
22.8 0 0
23.1 0 0
23.4 0 0
23.7 0 0
24 0 0
24.3 0 0
24.6 0 0
24.9 0 0
25.2 0 0
25.5 0 0
25.8 0 0
26.1 0 0
26.4 0 0
26.7 0 0
27 0 0
27.3 0 0
27.6 0 0
27.9 0 0
28.2 0 0
28.5 0 0
28.8 0 0
29.1 0 0
29.4 0 0
29.7 0 0
30 0 0
30.3 0 0
0 0.1 0
0.3 0.1 0
0.6 0.1 0
0.9 0.1 0
1.2 0.1 0
1.5 0.1 0
1.8 0.1 0
2.1 0.1 0
2.4 0.1 0
2.7 0.1 0
3 0.1 0
3.3 0.1 0
3.6 0.1 0
3.9 0.1 0
4.2 0.1 0
4.5 0.1 0
4.8 0.1 0
5.1 0.1 0
5.4 0.1 0
5.7 0.1 0
6 0.1 0
6.3 0.1 0
6.6 0.1 0
6.9 0.1 0
7.2 0.1 0
7.5 0.1 0
7.8 0.1 0
8.1 0.1 0
8.4 0.1 0
8.7 0.1 0
9 0.1 0
9.3 0.1 0
9.6 0.1 0
9.9 0.1 0
10.2 0.1 0
10.5 0.1 0
10.8 0.1 0
11.1 0.1 0
11.4 0.1 0
11.7 0.1 0
12 0.1 0
12.3 0.1 0
12.6 0.1 0
12.9 0.1 0
13.2 0.1 0
13.5 0.1 0
13.8 0.1 0
14.1 0.1 0
14.4 0.1 0
14.7 0.1 0
15 0.1 0
15.3 0.1 0
15.6 0.1 0
15.9 0.1 0
16.2 0.1 0
16.5 0.1 0
16.8 0.1 0
17.1 0.1 0
17.4 0.1 0
17.7 0.1 0
18 0.1 0
18.3 0.1 0
18.6 0.1 0
18.9 0.1 0
19.2 0.1 0
19.5 0.1 0
19.8 0.1 0
20.1 0.1 0
20.4 0.1 0
20.7 0.1 0
21 0.1 0
21.3 0.1 0
21.6 0.1 0
21.9 0.1 0
22.2 0.1 0
22.5 0.1 0
22.8 0.1 0
23.1 0.1 0
23.4 0.1 0
23.7 0.1 0
24 0.1 0
24.3 0.1 0
24.6 0.1 0
24.9 0.1 0
25.2 0.1 0
25.5 0.1 0
25.8 0.1 0
26.1 0.1 0
26.4 0.1 0
26.7 0.1 0
27 0.1 0
27.3 0.1 0
27.6 0.1 0
27.9 0.1 0
28.2 0.1 0
28.5 0.1 0
28.8 0.1 0
29.1 0.1 0
29.4 0.1 0
29.7 0.1 0
30 0.1 0
30.3 0.1 0
0 0.2 0
0.3 0.2 0
0.6 0.2 0
0.9 0.2 0
1.2 0.2 0
1.5 0.2 0
1.8 0.2 0
2.1 0.2 0
2.4 0.2 0
2.7 0.2 0
3 0.2 0
3.3 0.2 0
3.6 0.2 0
3.9 0.2 0
4.2 0.2 0
4.5 0.2 0
4.8 0.2 0
5.1 0.2 0
5.4 0.2 0
5.7 0.2 0
6 0.2 0
6.3 0.2 0
6.6 0.2 0
6.9 0.2 0
7.2 0.2 0
7.5 0.2 0
7.8 0.2 0
8.1 0.2 0
8.4 0.2 0
8.7 0.2 0
9 0.2 0
9.3 0.2 0
9.6 0.2 0
9.9 0.2 0
10.2 0.2 0
10.5 0.2 0
10.8 0.2 0
11.1 0.2 0
11.4 0.2 0
11.7 0.2 0
12 0.2 0
12.3 0.2 0
12.6 0.2 0
12.9 0.2 0
13.2 0.2 0
13.5 0.2 0
13.8 0.2 0
14.1 0.2 0
14.4 0.2 0
14.7 0.2 0
15 0.2 0
15.3 0.2 0
15.6 0.2 0
15.9 0.2 0
16.2 0.2 0
16.5 0.2 0
16.8 0.2 0
17.1 0.2 0
17.4 0.2 0
17.7 0.2 0
18 0.2 0
18.3 0.2 0
18.6 0.2 0
18.9 0.2 0
19.2 0.2 0
19.5 0.2 0
19.8 0.2 0
20.1 0.2 0
20.4 0.2 0
20.7 0.2 0
21 0.2 0
21.3 0.2 0
21.6 0.2 0
21.9 0.2 0
22.2 0.2 0
22.5 0.2 0
22.8 0.2 0
23.1 0.2 0
23.4 0.2 0
23.7 0.2 0
24 0.2 0
24.3 0.2 0
24.6 0.2 0
24.9 0.2 0
25.2 0.2 0
25.5 0.2 0
25.8 0.2 0
26.1 0.2 0
26.4 0.2 0
26.7 0.2 0
27 0.2 0
27.3 0.2 0
27.6 0.2 0
27.9 0.2 0
28.2 0.2 0
28.5 0.2 0
28.8 0.2 0
29.1 0.2 0
29.4 0.2 0
29.7 0.2 0
30 0.2 0
30.3 0.2 0
0 0.3 0
0.3 0.3 0
0.6 0.3 0
0.9 0.3 0
1.2 0.3 0
1.5 0.3 0
1.8 0.3 0
2.1 0.3 0
2.4 0.3 0
2.7 0.3 0
3 0.3 0
3.3 0.3 0
3.6 0.3 0
3.9 0.3 0
4.2 0.3 0
4.5 0.3 0
4.8 0.3 0
5.1 0.3 0
5.4 0.3 0
5.7 0.3 0
6 0.3 0
6.3 0.3 0
6.6 0.3 0
6.9 0.3 0
7.2 0.3 0
7.5 0.3 0
7.8 0.3 0
8.1 0.3 0
8.4 0.3 0
8.7 0.3 0
9 0.3 0
9.3 0.3 0
9.6 0.3 0
9.9 0.3 0
10.2 0.3 0
10.5 0.3 0
10.8 0.3 0
11.1 0.3 0
11.4 0.3 0
11.7 0.3 0
12 0.3 0
12.3 0.3 0
12.6 0.3 0
12.9 0.3 0
13.2 0.3 0
13.5 0.3 0
13.8 0.3 0
14.1 0.3 0
14.4 0.3 0
14.7 0.3 0
15 0.3 0
15.3 0.3 0
15.6 0.3 0
15.9 0.3 0
16.2 0.3 0
16.5 0.3 0
16.8 0.3 0
17.1 0.3 0
17.4 0.3 0
17.7 0.3 0
18 0.3 0
18.3 0.3 0
18.6 0.3 0
18.9 0.3 0
19.2 0.3 0
19.5 0.3 0
19.8 0.3 0
20.1 0.3 0
20.4 0.3 0
20.7 0.3 0
21 0.3 0
21.3 0.3 0
21.6 0.3 0
21.9 0.3 0
22.2 0.3 0
22.5 0.3 0
22.8 0.3 0
23.1 0.3 0
23.4 0.3 0
23.7 0.3 0
24 0.3 0
24.3 0.3 0
24.6 0.3 0
24.9 0.3 0
25.2 0.3 0
25.5 0.3 0
25.8 0.3 0
26.1 0.3 0
26.4 0.3 0
26.7 0.3 0
27 0.3 0
27.3 0.3 0
27.6 0.3 0
27.9 0.3 0
28.2 0.3 0
28.5 0.3 0
28.8 0.3 0
29.1 0.3 0
29.4 0.3 0
29.7 0.3 0
30 0.3 0
30.3 0.3 0
0 0.4 0
0.3 0.4 0
0.6 0.4 0
0.9 0.4 0
1.2 0.4 0
1.5 0.4 0
1.8 0.4 0
2.1 0.4 0
2.4 0.4 0
2.7 0.4 0
3 0.4 0
3.3 0.4 0
3.6 0.4 0
3.9 0.4 0
4.2 0.4 0
4.5 0.4 0
4.8 0.4 0
5.1 0.4 0
5.4 0.4 0
5.7 0.4 0
6 0.4 0
6.3 0.4 0
6.6 0.4 0
6.9 0.4 0
7.2 0.4 0
7.5 0.4 0
7.8 0.4 0
8.1 0.4 0
8.4 0.4 0
8.7 0.4 0
9 0.4 0
9.3 0.4 0
9.6 0.4 0
9.9 0.4 0
10.2 0.4 0
10.5 0.4 0
10.8 0.4 0
11.1 0.4 0
11.4 0.4 0
11.7 0.4 0
12 0.4 0
12.3 0.4 0
12.6 0.4 0
12.9 0.4 0
13.2 0.4 0
13.5 0.4 0
13.8 0.4 0
14.1 0.4 0
14.4 0.4 0
14.7 0.4 0
15 0.4 0
15.3 0.4 0
15.6 0.4 0
15.9 0.4 0
16.2 0.4 0
16.5 0.4 0
16.8 0.4 0
17.1 0.4 0
17.4 0.4 0
17.7 0.4 0
18 0.4 0
18.3 0.4 0
18.6 0.4 0
18.9 0.4 0
19.2 0.4 0
19.5 0.4 0
19.8 0.4 0
20.1 0.4 0
20.4 0.4 0
20.7 0.4 0
21 0.4 0
21.3 0.4 0
21.6 0.4 0
21.9 0.4 0
22.2 0.4 0
22.5 0.4 0
22.8 0.4 0
23.1 0.4 0
23.4 0.4 0
23.7 0.4 0
24 0.4 0
24.3 0.4 0
24.6 0.4 0
24.9 0.4 0
25.2 0.4 0
25.5 0.4 0
25.8 0.4 0
26.1 0.4 0
26.4 0.4 0
26.7 0.4 0
27 0.4 0
27.3 0.4 0
27.6 0.4 0
27.9 0.4 0
28.2 0.4 0
28.5 0.4 0
28.8 0.4 0
29.1 0.4 0
29.4 0.4 0
29.7 0.4 0
30 0.4 0
30.3 0.4 0
0 0.5 0
0.3 0.5 0
0.6 0.5 0
0.9 0.5 0
1.2 0.5 0
1.5 0.5 0
1.8 0.5 0
2.1 0.5 0
2.4 0.5 0
2.7 0.5 0
3 0.5 0
3.3 0.5 0
3.6 0.5 0
3.9 0.5 0
4.2 0.5 0
4.5 0.5 0
4.8 0.5 0
5.1 0.5 0
5.4 0.5 0
5.7 0.5 0
6 0.5 0
6.3 0.5 0
6.6 0.5 0
6.9 0.5 0
7.2 0.5 0
7.5 0.5 0
7.8 0.5 0
8.1 0.5 0
8.4 0.5 0
8.7 0.5 0
9 0.5 0
9.3 0.5 0
9.6 0.5 0
9.9 0.5 0
10.2 0.5 0
10.5 0.5 0
10.8 0.5 0
11.1 0.5 0
11.4 0.5 0
11.7 0.5 0
12 0.5 0
12.3 0.5 0
12.6 0.5 0
12.9 0.5 0
13.2 0.5 0
13.5 0.5 0
13.8 0.5 0
14.1 0.5 0
14.4 0.5 0
14.7 0.5 0
15 0.5 0
15.3 0.5 0
15.6 0.5 0
15.9 0.5 0
16.2 0.5 0
16.5 0.5 0
16.8 0.5 0
17.1 0.5 0
17.4 0.5 0
17.7 0.5 0
18 0.5 0
18.3 0.5 0
18.6 0.5 0
18.9 0.5 0
19.2 0.5 0
19.5 0.5 0
19.8 0.5 0
20.1 0.5 0
20.4 0.5 0
20.7 0.5 0
21 0.5 0
21.3 0.5 0
21.6 0.5 0
21.9 0.5 0
22.2 0.5 0
22.5 0.5 0
22.8 0.5 0
23.1 0.5 0
23.4 0.5 0
23.7 0.5 0
24 0.5 0
24.3 0.5 0
24.6 0.5 0
24.9 0.5 0
25.2 0.5 0
25.5 0.5 0
25.8 0.5 0
26.1 0.5 0
26.4 0.5 0
26.7 0.5 0
27 0.5 0
27.3 0.5 0
27.6 0.5 0
27.9 0.5 0
28.2 0.5 0
28.5 0.5 0
28.8 0.5 0
29.1 0.5 0
29.4 0.5 0
29.7 0.5 0
30 0.5 0
30.3 0.5 0
0 0.6 0
0.3 0.6 0
0.6 0.6 0
0.9 0.6 0
1.2 0.6 0
1.5 0.6 0
1.8 0.6 0
2.1 0.6 0
2.4 0.6 0
2.7 0.6 0
3 0.6 0
3.3 0.6 0
3.6 0.6 0
3.9 0.6 0
4.2 0.6 0
4.5 0.6 0
4.8 0.6 0
5.1 0.6 0
5.4 0.6 0
5.7 0.6 0
6 0.6 0
6.3 0.6 0
6.6 0.6 0
6.9 0.6 0
7.2 0.6 0
7.5 0.6 0
7.8 0.6 0
8.1 0.6 0
8.4 0.6 0
8.7 0.6 0
9 0.6 0
9.3 0.6 0
9.6 0.6 0
9.9 0.6 0
10.2 0.6 0
10.5 0.6 0
10.8 0.6 0
11.1 0.6 0
11.4 0.6 0
11.7 0.6 0
12 0.6 0
12.3 0.6 0
12.6 0.6 0
12.9 0.6 0
13.2 0.6 0
13.5 0.6 0
13.8 0.6 0
14.1 0.6 0
14.4 0.6 0
14.7 0.6 0
15 0.6 0
15.3 0.6 0
15.6 0.6 0
15.9 0.6 0
16.2 0.6 0
16.5 0.6 0
16.8 0.6 0
17.1 0.6 0
17.4 0.6 0
17.7 0.6 0
18 0.6 0
18.3 0.6 0
18.6 0.6 0
18.9 0.6 0
19.2 0.6 0
19.5 0.6 0
19.8 0.6 0
20.1 0.6 0
20.4 0.6 0
20.7 0.6 0
21 0.6 0
21.3 0.6 0
21.6 0.6 0
21.9 0.6 0
22.2 0.6 0
22.5 0.6 0
22.8 0.6 0
23.1 0.6 0
23.4 0.6 0
23.7 0.6 0
24 0.6 0
24.3 0.6 0
24.6 0.6 0
24.9 0.6 0
25.2 0.6 0
25.5 0.6 0
25.8 0.6 0
26.1 0.6 0
26.4 0.6 0
26.7 0.6 0
27 0.6 0
27.3 0.6 0
27.6 0.6 0
27.9 0.6 0
28.2 0.6 0
28.5 0.6 0
28.8 0.6 0
29.1 0.6 0
29.4 0.6 0
29.7 0.6 0
30 0.6 0
30.3 0.6 0
0 0.7 0
0.3 0.7 0
0.6 0.7 0
0.9 0.7 0
1.2 0.7 0
1.5 0.7 0
1.8 0.7 0
2.1 0.7 0
2.4 0.7 0
2.7 0.7 0
3 0.7 0
3.3 0.7 0
3.6 0.7 0
3.9 0.7 0
4.2 0.7 0
4.5 0.7 0
4.8 0.7 0
5.1 0.7 0
5.4 0.7 0
5.7 0.7 0
6 0.7 0
6.3 0.7 0
6.6 0.7 0
6.9 0.7 0
7.2 0.7 0
7.5 0.7 0
7.8 0.7 0
8.1 0.7 0
8.4 0.7 0
8.7 0.7 0
9 0.7 0
9.3 0.7 0
9.6 0.7 0
9.9 0.7 0
10.2 0.7 0
10.5 0.7 0
10.8 0.7 0
11.1 0.7 0
11.4 0.7 0
11.7 0.7 0
12 0.7 0
12.3 0.7 0
12.6 0.7 0
12.9 0.7 0
13.2 0.7 0
13.5 0.7 0
13.8 0.7 0
14.1 0.7 0
14.4 0.7 0
14.7 0.7 0
15 0.7 0
15.3 0.7 0
15.6 0.7 0
15.9 0.7 0
16.2 0.7 0
16.5 0.7 0
16.8 0.7 0
17.1 0.7 0
17.4 0.7 0
17.7 0.7 0
18 0.7 0
18.3 0.7 0
18.6 0.7 0
18.9 0.7 0
19.2 0.7 0
19.5 0.7 0
19.8 0.7 0
20.1 0.7 0
20.4 0.7 0
20.7 0.7 0
21 0.7 0
21.3 0.7 0
21.6 0.7 0
21.9 0.7 0
22.2 0.7 0
22.5 0.7 0
22.8 0.7 0
23.1 0.7 0
23.4 0.7 0
23.7 0.7 0
24 0.7 0
24.3 0.7 0
24.6 0.7 0
24.9 0.7 0
25.2 0.7 0
25.5 0.7 0
25.8 0.7 0
26.1 0.7 0
26.4 0.7 0
26.7 0.7 0
27 0.7 0
27.3 0.7 0
27.6 0.7 0
27.9 0.7 0
28.2 0.7 0
28.5 0.7 0
28.8 0.7 0
29.1 0.7 0
29.4 0.7 0
29.7 0.7 0
30 0.7 0
30.3 0.7 0
0 0.8 0
0.3 0.8 0
0.6 0.8 0
0.9 0.8 0
1.2 0.8 0
1.5 0.8 0
1.8 0.8 0
2.1 0.8 0
2.4 0.8 0
2.7 0.8 0
3 0.8 0
3.3 0.8 0
3.6 0.8 0
3.9 0.8 0
4.2 0.8 0
4.5 0.8 0
4.8 0.8 0
5.1 0.8 0
5.4 0.8 0
5.7 0.8 0
6 0.8 0
6.3 0.8 0
6.6 0.8 0
6.9 0.8 0
7.2 0.8 0
7.5 0.8 0
7.8 0.8 0
8.1 0.8 0
8.4 0.8 0
8.7 0.8 0
9 0.8 0
9.3 0.8 0
9.6 0.8 0
9.9 0.8 0
10.2 0.8 0
10.5 0.8 0
10.8 0.8 0
11.1 0.8 0
11.4 0.8 0
11.7 0.8 0
12 0.8 0
12.3 0.8 0
12.6 0.8 0
12.9 0.8 0
13.2 0.8 0
13.5 0.8 0
13.8 0.8 0
14.1 0.8 0
14.4 0.8 0
14.7 0.8 0
15 0.8 0
15.3 0.8 0
15.6 0.8 0
15.9 0.8 0
16.2 0.8 0
16.5 0.8 0
16.8 0.8 0
17.1 0.8 0
17.4 0.8 0
17.7 0.8 0
18 0.8 0
18.3 0.8 0
18.6 0.8 0
18.9 0.8 0
19.2 0.8 0
19.5 0.8 0
19.8 0.8 0
20.1 0.8 0
20.4 0.8 0
20.7 0.8 0
21 0.8 0
21.3 0.8 0
21.6 0.8 0
21.9 0.8 0
22.2 0.8 0
22.5 0.8 0
22.8 0.8 0
23.1 0.8 0
23.4 0.8 0
23.7 0.8 0
24 0.8 0
24.3 0.8 0
24.6 0.8 0
24.9 0.8 0
25.2 0.8 0
25.5 0.8 0
25.8 0.8 0
26.1 0.8 0
26.4 0.8 0
26.7 0.8 0
27 0.8 0
27.3 0.8 0
27.6 0.8 0
27.9 0.8 0
28.2 0.8 0
28.5 0.8 0
28.8 0.8 0
29.1 0.8 0
29.4 0.8 0
29.7 0.8 0
30 0.8 0
30.3 0.8 0
0 0.9 0
0.3 0.9 0
0.6 0.9 0
0.9 0.9 0
1.2 0.9 0
1.5 0.9 0
1.8 0.9 0
2.1 0.9 0
2.4 0.9 0
2.7 0.9 0
3 0.9 0
3.3 0.9 0
3.6 0.9 0
3.9 0.9 0
4.2 0.9 0
4.5 0.9 0
4.8 0.9 0
5.1 0.9 0
5.4 0.9 0
5.7 0.9 0
6 0.9 0
6.3 0.9 0
6.6 0.9 0
6.9 0.9 0
7.2 0.9 0
7.5 0.9 0
7.8 0.9 0
8.1 0.9 0
8.4 0.9 0
8.7 0.9 0
9 0.9 0
9.3 0.9 0
9.6 0.9 0
9.9 0.9 0
10.2 0.9 0
10.5 0.9 0
10.8 0.9 0
11.1 0.9 0
11.4 0.9 0
11.7 0.9 0
12 0.9 0
12.3 0.9 0
12.6 0.9 0
12.9 0.9 0
13.2 0.9 0
13.5 0.9 0
13.8 0.9 0
14.1 0.9 0
14.4 0.9 0
14.7 0.9 0
15 0.9 0
15.3 0.9 0
15.6 0.9 0
15.9 0.9 0
16.2 0.9 0
16.5 0.9 0
16.8 0.9 0
17.1 0.9 0
17.4 0.9 0
17.7 0.9 0
18 0.9 0
18.3 0.9 0
18.6 0.9 0
18.9 0.9 0
19.2 0.9 0
19.5 0.9 0
19.8 0.9 0
20.1 0.9 0
20.4 0.9 0
20.7 0.9 0
21 0.9 0
21.3 0.9 0
21.6 0.9 0
21.9 0.9 0
22.2 0.9 0
22.5 0.9 0
22.8 0.9 0
23.1 0.9 0
23.4 0.9 0
23.7 0.9 0
24 0.9 0
24.3 0.9 0
24.6 0.9 0
24.9 0.9 0
25.2 0.9 0
25.5 0.9 0
25.8 0.9 0
26.1 0.9 0
26.4 0.9 0
26.7 0.9 0
27 0.9 0
27.3 0.9 0
27.6 0.9 0
27.9 0.9 0
28.2 0.9 0
28.5 0.9 0
28.8 0.9 0
29.1 0.9 0
29.4 0.9 0
29.7 0.9 0
30 0.9 0
30.3 0.9 0
0 1 0
0.3 1 0
0.6 1 0
0.9 1 0
1.2 1 0
1.5 1 0
1.8 1 0
2.1 1 0
2.4 1 0
2.7 1 0
3 1 0
3.3 1 0
3.6 1 0
3.9 1 0
4.2 1 0
4.5 1 0
4.8 1 0
5.1 1 0
5.4 1 0
5.7 1 0
6 1 0
6.3 1 0
6.6 1 0
6.9 1 0
7.2 1 0
7.5 1 0
7.8 1 0
8.1 1 0
8.4 1 0
8.7 1 0
9 1 0
9.3 1 0
9.6 1 0
9.9 1 0
10.2 1 0
10.5 1 0
10.8 1 0
11.1 1 0
11.4 1 0
11.7 1 0
12 1 0
12.3 1 0
12.6 1 0
12.9 1 0
13.2 1 0
13.5 1 0
13.8 1 0
14.1 1 0
14.4 1 0
14.7 1 0
15 1 0
15.3 1 0
15.6 1 0
15.9 1 0
16.2 1 0
16.5 1 0
16.8 1 0
17.1 1 0
17.4 1 0
17.7 1 0
18 1 0
18.3 1 0
18.6 1 0
18.9 1 0
19.2 1 0
19.5 1 0
19.8 1 0
20.1 1 0
20.4 1 0
20.7 1 0
21 1 0
21.3 1 0
21.6 1 0
21.9 1 0
22.2 1 0
22.5 1 0
22.8 1 0
23.1 1 0
23.4 1 0
23.7 1 0
24 1 0
24.3 1 0
24.6 1 0
24.9 1 0
25.2 1 0
25.5 1 0
25.8 1 0
26.1 1 0
26.4 1 0
26.7 1 0
27 1 0
27.3 1 0
27.6 1 0
27.9 1 0
28.2 1 0
28.5 1 0
28.8 1 0
29.1 1 0
29.4 1 0
29.7 1 0
30 1 0
30.3 1 0
0 1.1 0
0.3 1.1 0
0.6 1.1 0
0.9 1.1 0
1.2 1.1 0
1.5 1.1 0
1.8 1.1 0
2.1 1.1 0
2.4 1.1 0
2.7 1.1 0
3 1.1 0
3.3 1.1 0
3.6 1.1 0
3.9 1.1 0
4.2 1.1 0
4.5 1.1 0
4.8 1.1 0
5.1 1.1 0
5.4 1.1 0
5.7 1.1 0
6 1.1 0
6.3 1.1 0
6.6 1.1 0
6.9 1.1 0
7.2 1.1 0
7.5 1.1 0
7.8 1.1 0
8.1 1.1 0
8.4 1.1 0
8.7 1.1 0
9 1.1 0
9.3 1.1 0
9.6 1.1 0
9.9 1.1 0
10.2 1.1 0
10.5 1.1 0
10.8 1.1 0
11.1 1.1 0
11.4 1.1 0
11.7 1.1 0
12 1.1 0
12.3 1.1 0
12.6 1.1 0
12.9 1.1 0
13.2 1.1 0
13.5 1.1 0
13.8 1.1 0
14.1 1.1 0
14.4 1.1 0
14.7 1.1 0
15 1.1 0
15.3 1.1 0
15.6 1.1 0
15.9 1.1 0
16.2 1.1 0
16.5 1.1 0
16.8 1.1 0
17.1 1.1 0
17.4 1.1 0
17.7 1.1 0
18 1.1 0
18.3 1.1 0
18.6 1.1 0
18.9 1.1 0
19.2 1.1 0
19.5 1.1 0
19.8 1.1 0
20.1 1.1 0
20.4 1.1 0
20.7 1.1 0
21 1.1 0
21.3 1.1 0
21.6 1.1 0
21.9 1.1 0
22.2 1.1 0
22.5 1.1 0
22.8 1.1 0
23.1 1.1 0
23.4 1.1 0
23.7 1.1 0
24 1.1 0
24.3 1.1 0
24.6 1.1 0
24.9 1.1 0
25.2 1.1 0
25.5 1.1 0
25.8 1.1 0
26.1 1.1 0
26.4 1.1 0
26.7 1.1 0
27 1.1 0
27.3 1.1 0
27.6 1.1 0
27.9 1.1 0
28.2 1.1 0
28.5 1.1 0
28.8 1.1 0
29.1 1.1 0
29.4 1.1 0
29.7 1.1 0
30 1.1 0
30.3 1.1 0
0 1.2 0
0.3 1.2 0
0.6 1.2 0
0.9 1.2 0
1.2 1.2 0
1.5 1.2 0
1.8 1.2 0
2.1 1.2 0
2.4 1.2 0
2.7 1.2 0
3 1.2 0
3.3 1.2 0
3.6 1.2 0
3.9 1.2 0
4.2 1.2 0
4.5 1.2 0
4.8 1.2 0
5.1 1.2 0
5.4 1.2 0
5.7 1.2 0
6 1.2 0
6.3 1.2 0
6.6 1.2 0
6.9 1.2 0
7.2 1.2 0
7.5 1.2 0
7.8 1.2 0
8.1 1.2 0
8.4 1.2 0
8.7 1.2 0
9 1.2 0
9.3 1.2 0
9.6 1.2 0
9.9 1.2 0
10.2 1.2 0
10.5 1.2 0
10.8 1.2 0
11.1 1.2 0
11.4 1.2 0
11.7 1.2 0
12 1.2 0
12.3 1.2 0
12.6 1.2 0
12.9 1.2 0
13.2 1.2 0
13.5 1.2 0
13.8 1.2 0
14.1 1.2 0
14.4 1.2 0
14.7 1.2 0
15 1.2 0
15.3 1.2 0
15.6 1.2 0
15.9 1.2 0
16.2 1.2 0
16.5 1.2 0
16.8 1.2 0
17.1 1.2 0
17.4 1.2 0
17.7 1.2 0
18 1.2 0
18.3 1.2 0
18.6 1.2 0
18.9 1.2 0
19.2 1.2 0
19.5 1.2 0
19.8 1.2 0
20.1 1.2 0
20.4 1.2 0
20.7 1.2 0
21 1.2 0
21.3 1.2 0
21.6 1.2 0
21.9 1.2 0
22.2 1.2 0
22.5 1.2 0
22.8 1.2 0
23.1 1.2 0
23.4 1.2 0
23.7 1.2 0
24 1.2 0
24.3 1.2 0
24.6 1.2 0
24.9 1.2 0
25.2 1.2 0
25.5 1.2 0
25.8 1.2 0
26.1 1.2 0
26.4 1.2 0
26.7 1.2 0
27 1.2 0
27.3 1.2 0
27.6 1.2 0
27.9 1.2 0
28.2 1.2 0
28.5 1.2 0
28.8 1.2 0
29.1 1.2 0
29.4 1.2 0
29.7 1.2 0
30 1.2 0
30.3 1.2 0

POINT_DATA 1326

SCALARS p double
LOOKUP_TABLE default
1.16102
1.16102
1.09618
1.05194
1.01212
0.975543
0.942491
0.912963
0.886608
0.862899
0.841296
0.821332
0.80264
0.784942
0.768034
0.751774
0.736056
0.720801
0.705948
0.691452
0.677279
0.663394
0.649773
0.636394
0.623238
0.610289
0.597529
0.584947
0.572528
0.560264
0.548144
0.536157
0.524296
0.512553
0.50092
0.489391
0.477959
0.466619
0.455366
0.444194
0.433099
0.422076
0.411122
0.400232
0.389403
0.378632
0.367914
0.357249
0.346632
0.336061
0.325533
0.315046
0.304598
0.294187
0.283811
0.273468
0.263156
0.252873
0.242618
0.23239
0.222187
0.212007
0.201851
0.191715
0.181599
0.171503
0.161424
0.151363
0.141317
0.131287
0.121272
0.11127
0.101282
0.0913055
0.0813408
0.0713873
0.0614442
0.051511
0.0415871
0.0316722
0.0217657
0.0118672
0.00197621
-0.00790763
-0.0177847
-0.0276553
-0.0375199
-0.0473788
-0.0572322
-0.0670805
-0.0769238
-0.0867625
-0.0965968
-0.106427
-0.116253
-0.126075
-0.135894
-0.145709
-0.155521
-0.165331
-0.175137
0.175137
1.16102
1.16102
1.09618
1.05194
1.01212
0.975543
0.942491
0.912963
0.886608
0.862899
0.841296
0.821332
0.80264
0.784942
0.768034
0.751774
0.736056
0.720801
0.705948
0.691452
0.677279
0.663394
0.649773
0.636394
0.623238
0.610289
0.597529
0.584947
0.572528
0.560264
0.548144
0.536157
0.524296
0.512553
0.50092
0.489391
0.477959
0.466619
0.455366
0.444194
0.433099
0.422076
0.411122
0.400232
0.389403
0.378632
0.367914
0.357249
0.346632
0.336061
0.325533
0.315046
0.304598
0.294187
0.283811
0.273468
0.263156
0.252873
0.242618
0.23239
0.222187
0.212007
0.201851
0.191715
0.181599
0.171503
0.161424
0.151363
0.141317
0.131287
0.121272
0.11127
0.101282
0.0913055
0.0813408
0.0713873
0.0614442
0.051511
0.0415871
0.0316722
0.0217657
0.0118672
0.00197621
-0.00790763
-0.0177847
-0.0276553
-0.0375199
-0.0473788
-0.0572322
-0.0670805
-0.0769238
-0.0867625
-0.0965968
-0.106427
-0.116253
-0.126075
-0.135894
-0.145709
-0.155521
-0.165331
-0.175137
0.175137
1.14007
1.14007
1.09419
1.05217
1.01282
0.976339
0.943234
0.913595
0.887115
0.863294
0.841599
0.821566
0.802822
0.785086
0.768151
0.751871
0.736139
0.720872
0.70601
0.691508
0.677328
0.663439
0.649813
0.636431
0.623272
0.610319
0.597558
0.584973
0.572552
0.560287
0.548165
0.536176
0.524314
0.51257
0.500936
0.489405
0.477973
0.466632
0.455378
0.444206
0.43311
0.422086
0.411131
0.400241
0.389412
0.37864
0.367922
0.357256
0.346638
0.336067
0.325538
0.315051
0.304603
0.294192
0.283816
0.273472
0.26316
0.252877
0.242622
0.232394
0.22219
0.212011
0.201853
0.191718
0.181602
0.171505
0.161426
0.151365
0.141319
0.131289
0.121274
0.111272
0.101283
0.0913071
0.0813423
0.0713887
0.0614455
0.0515122
0.0415883
0.0316734
0.0217668
0.0118682
0.00197717
-0.00790671
-0.0177838
-0.0276545
-0.0375192
-0.0473781
-0.0572315
-0.0670798
-0.0769232
-0.0867619
-0.0965963
-0.106426
-0.116253
-0.126075
-0.135894
-0.145709
-0.15552
-0.16533
-0.175136
0.175136
1.1251
1.1251
1.09131
1.0524
1.01393
0.977663
0.944496
0.914673
0.887977
0.863953
0.842092
0.821931
0.803094
0.785291
0.768309
0.751997
0.73624
0.720956
0.706081
0.691569
0.677381
0.663485
0.649855
0.636468
0.623305
0.610349
0.597585
0.584997
0.572575
0.560308
0.548184
0.536194
0.52433
0.512584
0.500949
0.489418
0.477984
0.466643
0.455388
0.444215
0.433118
0.422095
0.411139
0.400248
0.389418
0.378646
0.367928
0.357261
0.346644
0.336072
0.325543
0.315056
0.304607
0.294196
0.283819
0.273475
0.263163
0.25288
0.242625
0.232396
0.222193
0.212013
0.201856
0.19172
0.181604
0.171507
0.161428
0.151367
0.141321
0.131291
0.121275
0.111274
0.101285
0.0913083
0.0813435
0.0713898
0.0614465
0.0515132
0.0415893
0.0316742
0.0217676
0.011869
0.00197791
-0.00790601
-0.0177832
-0.0276539
-0.0375186
-0.0473775
-0.057231
-0.0670793
-0.0769227
-0.0867615
-0.0965959
-0.106426
-0.116252
-0.126075
-0.135893
-0.145708
-0.15552
-0.165329
-0.175129
0.175129
1.11553
1.11553
1.08882
1.05251
1.01489
0.978858
0.945672
0.91571
0.88883
0.864625
0.842609
0.822326
0.803396
0.785525
0.768495
0.752146
0.736363
0.721059
0.706169
0.691645
0.677448
0.663543
0.649906
0.636514
0.623347
0.610387
0.597618
0.585027
0.572603
0.560333
0.548207
0.536215
0.524349
0.512602
0.500966
0.489433
0.477999
0.466656
0.4554
0.444226
0.433129
0.422104
0.411148
0.400257
0.389426
0.378653
0.367935
0.357268
0.34665
0.336077
0.325548
0.315061
0.304612
0.2942
0.283823
0.273479
0.263167
0.252883
0.242628
0.232399
0.222196
0.212016
0.201858
0.191722
0.181606
0.171509
0.16143
0.151369
0.141323
0.131293
0.121277
0.111275
0.101286
0.0913097
0.0813448
0.071391
0.0614477
0.0515143
0.0415903
0.0316752
0.0217686
0.0118699
0.00197876
-0.00790521
-0.0177824
-0.0276532
-0.0375179
-0.0473769
-0.0572304
-0.0670787
-0.0769222
-0.086761
-0.0965954
-0.106426
-0.116252
-0.126074
-0.135893
-0.145708
-0.155519
-0.165326
-0.175117
0.175117
1.11021
1.11021
1.08719
1.05252
1.01548
0.979625
0.946441
0.916399
0.889407
0.865089
0.842974
0.82261
0.803619
0.785702
0.768638
0.752264
0.736462
0.721143
0.706242
0.69171
0.677504
0.663594
0.649952
0.636555
0.623384
0.61042
0.597649
0.585055
0.572628
0.560356
0.548228
0.536234
0.524368
0.512619
0.500981
0.489448
0.478012
0.466669
0.455412
0.444237
0.433139
0.422114
0.411157
0.400265
0.389434
0.37866
0.367941
0.357274
0.346655
0.336083
0.325554
0.315066
0.304617
0.294205
0.283827
0.273483
0.26317
0.252887
0.242631
0.232402
0.222199
0.212018
0.201861
0.191725
0.181608
0.171511
0.161432
0.15137
0.141325
0.131294
0.121279
0.111277
0.101288
0.091311
0.0813461
0.0713922
0.0614488
0.0515154
0.0415913
0.0316762
0.0217695
0.0118708
0.00197958
-0.00790443
-0.0177817
-0.0276525
-0.0375172
-0.0473762
-0.0572298
-0.0670782
-0.0769217
-0.0867605
-0.0965949
-0.106425
-0.116251
-0.126074
-0.135892
-0.145707
-0.155518
-0.165323
-0.175104
0.175104
1.10851
1.10851
1.08665
1.05254
1.01569
0.979899
0.946715
0.916644
0.889614
0.865257
0.843106
0.822715
0.803702
0.785768
0.768692
0.75231
0.736501
0.721177
0.706272
0.691736
0.677527
0.663615
0.649971
0.636572
0.623399
0.610434
0.597661
0.585067
0.572639
0.560366
0.548237
0.536243
0.524376
0.512626
0.500988
0.489454
0.478018
0.466674
0.455417
0.444242
0.433143
0.422118
0.411161
0.400268
0.389437
0.378664
0.367944
0.357277
0.346658
0.336085
0.325556
0.315068
0.304619
0.294207
0.283829
0.273485
0.263172
0.252888
0.242633
0.232404
0.2222
0.21202
0.201862
0.191726
0.181609
0.171512
0.161433
0.151371
0.141326
0.131295
0.121279
0.111277
0.101288
0.0913116
0.0813467
0.0713928
0.0614494
0.0515159
0.0415918
0.0316766
0.0217699
0.0118711
0.00197994
-0.00790409
-0.0177813
-0.0276522
-0.037517
-0.047376
-0.0572295
-0.0670779
-0.0769214
-0.0867603
-0.0965947
-0.106425
-0.116251
-0.126074
-0.135892
-0.145707
-0.155518
-0.165321
-0.175098
0.175098
1.11021
1.11021
1.08719
1.05253
1.01548
0.979625
0.946441
0.916399
0.889407
0.865089
0.842974
0.82261
0.803619
0.785702
0.768638
0.752264
0.736462
0.721143
0.706242
0.69171
0.677504
0.663594
0.649952
0.636555
0.623384
0.61042
0.597649
0.585056
0.572629
0.560356
0.548228
0.536235
0.524368
0.512619
0.500981
0.489448
0.478012
0.466669
0.455412
0.444237
0.433139
0.422114
0.411157
0.400265
0.389434
0.37866
0.367942
0.357274
0.346655
0.336083
0.325554
0.315066
0.304617
0.294205
0.283827
0.273483
0.26317
0.252887
0.242631
0.232402
0.222199
0.212018
0.201861
0.191725
0.181608
0.171511
0.161432
0.15137
0.141325
0.131294
0.121279
0.111277
0.101288
0.091311
0.0813461
0.0713922
0.0614488
0.0515154
0.0415913
0.0316762
0.0217695
0.0118708
0.00197958
-0.00790443
-0.0177817
-0.0276525
-0.0375172
-0.0473762
-0.0572298
-0.0670782
-0.0769217
-0.0867605
-0.0965949
-0.106425
-0.116251
-0.126074
-0.135892
-0.145707
-0.155518
-0.165323
-0.175104
0.175104
1.11553
1.11553
1.08882
1.05251
1.01489
0.978859
0.945672
0.915709
0.88883
0.864625
0.842609
0.822326
0.803396
0.785525
0.768495
0.752146
0.736363
0.721059
0.706169
0.691645
0.677447
0.663543
0.649907
0.636514
0.623347
0.610386
0.597618
0.585028
0.572603
0.560333
0.548206
0.536215
0.524349
0.512602
0.500966
0.489433
0.477999
0.466656
0.4554
0.444226
0.433129
0.422104
0.411148
0.400257
0.389426
0.378653
0.367935
0.357268
0.34665
0.336077
0.325549
0.315061
0.304612
0.2942
0.283823
0.273479
0.263167
0.252883
0.242628
0.232399
0.222196
0.212016
0.201858
0.191722
0.181606
0.171509
0.16143
0.151369
0.141323
0.131293
0.121277
0.111275
0.101286
0.0913097
0.0813448
0.071391
0.0614477
0.0515143
0.0415903
0.0316752
0.0217686
0.0118699
0.00197876
-0.00790521
-0.0177824
-0.0276532
-0.0375179
-0.0473769
-0.0572304
-0.0670787
-0.0769222
-0.086761
-0.0965954
-0.106426
-0.116252
-0.126074
-0.135893
-0.145708
-0.155519
-0.165326
-0.175117
0.175117
1.1251
1.1251
1.09131
1.0524
1.01393
0.977664
0.944495
0.914673
0.887977
0.863953
0.842092
0.821931
0.803094
0.78529
0.76831
0.751997
0.73624
0.720955
0.706081
0.691569
0.677381
0.663485
0.649855
0.636468
0.623305
0.610349
0.597584
0.584997
0.572575
0.560307
0.548183
0.536194
0.52433
0.512584
0.500949
0.489418
0.477985
0.466643
0.455388
0.444215
0.433119
0.422095
0.411139
0.400248
0.389418
0.378646
0.367928
0.357261
0.346643
0.336072
0.325543
0.315056
0.304607
0.294196
0.283819
0.273475
0.263163
0.25288
0.242625
0.232396
0.222193
0.212013
0.201856
0.19172
0.181604
0.171507
0.161428
0.151367
0.141321
0.131291
0.121275
0.111274
0.101285
0.0913083
0.0813435
0.0713898
0.0614465
0.0515132
0.0415893
0.0316742
0.0217676
0.011869
0.00197792
-0.00790601
-0.0177832
-0.0276539
-0.0375186
-0.0473775
-0.057231
-0.0670793
-0.0769227
-0.0867615
-0.0965959
-0.106426
-0.116252
-0.126075
-0.135893
-0.145708
-0.15552
-0.165329
-0.175129
0.175129
1.14008
1.14008
1.09419
1.05217
1.01282
0.97634
0.943234
0.913595
0.887115
0.863293
0.8416
0.821567
0.802822
0.785085
0.768151
0.751872
0.736139
0.720871
0.70601
0.691508
0.677328
0.663438
0.649813
0.636431
0.623272
0.610319
0.597557
0.584973
0.572553
0.560287
0.548165
0.536176
0.524314
0.512569
0.500936
0.489405
0.477973
0.466632
0.455378
0.444206
0.43311
0.422086
0.411131
0.400241
0.389411
0.37864
0.367922
0.357256
0.346638
0.336067
0.325538
0.315051
0.304603
0.294192
0.283816
0.273472
0.26316
0.252877
0.242622
0.232394
0.22219
0.212011
0.201853
0.191718
0.181602
0.171505
0.161426
0.151365
0.141319
0.131289
0.121274
0.111272
0.101283
0.0913071
0.0813423
0.0713887
0.0614455
0.0515122
0.0415883
0.0316734
0.0217668
0.0118682
0.00197718
-0.00790671
-0.0177838
-0.0276545
-0.0375192
-0.0473781
-0.0572315
-0.0670798
-0.0769232
-0.0867619
-0.0965963
-0.106426
-0.116253
-0.126075
-0.135894
-0.145709
-0.15552
-0.16533
-0.175136
0.175136
1.16102
1.16102
1.09618
1.05194
1.01212
0.975543
0.942491
0.912963
0.886608
0.862898
0.841296
0.821333
0.80264
0.784941
0.768034
0.751775
0.736056
0.7208
0.705948
0.691453
0.677279
0.663394
0.649773
0.636394
0.623239
0.610289
0.597529
0.584946
0.572529
0.560265
0.548144
0.536157
0.524296
0.512553
0.50092
0.489391
0.477959
0.466619
0.455366
0.444194
0.433099
0.422076
0.411122
0.400232
0.389403
0.378632
0.367915
0.357249
0.346632
0.336061
0.325533
0.315046
0.304598
0.294187
0.283811
0.273468
0.263156
0.252873
0.242618
0.23239
0.222187
0.212008
0.201851
0.191715
0.181599
0.171503
0.161424
0.151363
0.141317
0.131287
0.121272
0.11127
0.101282
0.0913055
0.0813408
0.0713873
0.0614441
0.0515109
0.0415871
0.0316722
0.0217657
0.0118672
0.00197621
-0.00790762
-0.0177847
-0.0276553
-0.0375199
-0.0473788
-0.0572322
-0.0670805
-0.0769238
-0.0867625
-0.0965968
-0.106427
-0.116253
-0.126075
-0.135894
-0.145709
-0.155521
-0.165331
-0.175137
0.175137
1.16102
1.16102
1.09618
1.05194
1.01212
0.975543
0.942491
0.912963
0.886608
0.862898
0.841296
0.821333
0.80264
0.784941
0.768034
0.751775
0.736056
0.7208
0.705948
0.691453
0.677279
0.663394
0.649773
0.636394
0.623239
0.610289
0.597529
0.584946
0.572529
0.560265
0.548144
0.536157
0.524296
0.512553
0.50092
0.489391
0.477959
0.466619
0.455366
0.444194
0.433099
0.422076
0.411122
0.400232
0.389403
0.378632
0.367915
0.357249
0.346632
0.336061
0.325533
0.315046
0.304598
0.294187
0.283811
0.273468
0.263156
0.252873
0.242618
0.23239
0.222187
0.212008
0.201851
0.191715
0.181599
0.171503
0.161424
0.151363
0.141317
0.131287
0.121272
0.11127
0.101282
0.0913055
0.0813408
0.0713873
0.0614441
0.0515109
0.0415871
0.0316722
0.0217657
0.0118672
0.00197621
-0.00790762
-0.0177847
-0.0276553
-0.0375199
-0.0473788
-0.0572322
-0.0670805
-0.0769238
-0.0867625
-0.0965968
-0.106427
-0.116253
-0.126075
-0.135894
-0.145709
-0.155521
-0.165331
-0.175137
0.175137
