# vtk DataFile Version 2.0
FlowField
ASCII
DATASET STRUCTURED_GRID
DIMENSIONS 101 11 1 
POINTS 1111 double
0 0 0
0.3 0 0
0.6 0 0
0.9 0 0
1.2 0 0
1.5 0 0
1.8 0 0
2.1 0 0
2.4 0 0
2.7 0 0
3 0 0
3.3 0 0
3.6 0 0
3.9 0 0
4.2 0 0
4.5 0 0
4.8 0 0
5.1 0 0
5.4 0 0
5.7 0 0
6 0 0
6.3 0 0
6.6 0 0
6.9 0 0
7.2 0 0
7.5 0 0
7.8 0 0
8.1 0 0
8.4 0 0
8.7 0 0
9 0 0
9.3 0 0
9.6 0 0
9.9 0 0
10.2 0 0
10.5 0 0
10.8 0 0
11.1 0 0
11.4 0 0
11.7 0 0
12 0 0
12.3 0 0
12.6 0 0
12.9 0 0
13.2 0 0
13.5 0 0
13.8 0 0
14.1 0 0
14.4 0 0
14.7 0 0
15 0 0
15.3 0 0
15.6 0 0
15.9 0 0
16.2 0 0
16.5 0 0
16.8 0 0
17.1 0 0
17.4 0 0
17.7 0 0
18 0 0
18.3 0 0
18.6 0 0
18.9 0 0
19.2 0 0
19.5 0 0
19.8 0 0
20.1 0 0
20.4 0 0
20.7 0 0
21 0 0
21.3 0 0
21.6 0 0
21.9 0 0
22.2 0 0
22.5 0 0
22.8 0 0
23.1 0 0
23.4 0 0
23.7 0 0
24 0 0
24.3 0 0
24.6 0 0
24.9 0 0
25.2 0 0
25.5 0 0
25.8 0 0
26.1 0 0
26.4 0 0
26.7 0 0
27 0 0
27.3 0 0
27.6 0 0
27.9 0 0
28.2 0 0
28.5 0 0
28.8 0 0
29.1 0 0
29.4 0 0
29.7 0 0
30 0 0
0 0.1 0
0.3 0.1 0
0.6 0.1 0
0.9 0.1 0
1.2 0.1 0
1.5 0.1 0
1.8 0.1 0
2.1 0.1 0
2.4 0.1 0
2.7 0.1 0
3 0.1 0
3.3 0.1 0
3.6 0.1 0
3.9 0.1 0
4.2 0.1 0
4.5 0.1 0
4.8 0.1 0
5.1 0.1 0
5.4 0.1 0
5.7 0.1 0
6 0.1 0
6.3 0.1 0
6.6 0.1 0
6.9 0.1 0
7.2 0.1 0
7.5 0.1 0
7.8 0.1 0
8.1 0.1 0
8.4 0.1 0
8.7 0.1 0
9 0.1 0
9.3 0.1 0
9.6 0.1 0
9.9 0.1 0
10.2 0.1 0
10.5 0.1 0
10.8 0.1 0
11.1 0.1 0
11.4 0.1 0
11.7 0.1 0
12 0.1 0
12.3 0.1 0
12.6 0.1 0
12.9 0.1 0
13.2 0.1 0
13.5 0.1 0
13.8 0.1 0
14.1 0.1 0
14.4 0.1 0
14.7 0.1 0
15 0.1 0
15.3 0.1 0
15.6 0.1 0
15.9 0.1 0
16.2 0.1 0
16.5 0.1 0
16.8 0.1 0
17.1 0.1 0
17.4 0.1 0
17.7 0.1 0
18 0.1 0
18.3 0.1 0
18.6 0.1 0
18.9 0.1 0
19.2 0.1 0
19.5 0.1 0
19.8 0.1 0
20.1 0.1 0
20.4 0.1 0
20.7 0.1 0
21 0.1 0
21.3 0.1 0
21.6 0.1 0
21.9 0.1 0
22.2 0.1 0
22.5 0.1 0
22.8 0.1 0
23.1 0.1 0
23.4 0.1 0
23.7 0.1 0
24 0.1 0
24.3 0.1 0
24.6 0.1 0
24.9 0.1 0
25.2 0.1 0
25.5 0.1 0
25.8 0.1 0
26.1 0.1 0
26.4 0.1 0
26.7 0.1 0
27 0.1 0
27.3 0.1 0
27.6 0.1 0
27.9 0.1 0
28.2 0.1 0
28.5 0.1 0
28.8 0.1 0
29.1 0.1 0
29.4 0.1 0
29.7 0.1 0
30 0.1 0
0 0.2 0
0.3 0.2 0
0.6 0.2 0
0.9 0.2 0
1.2 0.2 0
1.5 0.2 0
1.8 0.2 0
2.1 0.2 0
2.4 0.2 0
2.7 0.2 0
3 0.2 0
3.3 0.2 0
3.6 0.2 0
3.9 0.2 0
4.2 0.2 0
4.5 0.2 0
4.8 0.2 0
5.1 0.2 0
5.4 0.2 0
5.7 0.2 0
6 0.2 0
6.3 0.2 0
6.6 0.2 0
6.9 0.2 0
7.2 0.2 0
7.5 0.2 0
7.8 0.2 0
8.1 0.2 0
8.4 0.2 0
8.7 0.2 0
9 0.2 0
9.3 0.2 0
9.6 0.2 0
9.9 0.2 0
10.2 0.2 0
10.5 0.2 0
10.8 0.2 0
11.1 0.2 0
11.4 0.2 0
11.7 0.2 0
12 0.2 0
12.3 0.2 0
12.6 0.2 0
12.9 0.2 0
13.2 0.2 0
13.5 0.2 0
13.8 0.2 0
14.1 0.2 0
14.4 0.2 0
14.7 0.2 0
15 0.2 0
15.3 0.2 0
15.6 0.2 0
15.9 0.2 0
16.2 0.2 0
16.5 0.2 0
16.8 0.2 0
17.1 0.2 0
17.4 0.2 0
17.7 0.2 0
18 0.2 0
18.3 0.2 0
18.6 0.2 0
18.9 0.2 0
19.2 0.2 0
19.5 0.2 0
19.8 0.2 0
20.1 0.2 0
20.4 0.2 0
20.7 0.2 0
21 0.2 0
21.3 0.2 0
21.6 0.2 0
21.9 0.2 0
22.2 0.2 0
22.5 0.2 0
22.8 0.2 0
23.1 0.2 0
23.4 0.2 0
23.7 0.2 0
24 0.2 0
24.3 0.2 0
24.6 0.2 0
24.9 0.2 0
25.2 0.2 0
25.5 0.2 0
25.8 0.2 0
26.1 0.2 0
26.4 0.2 0
26.7 0.2 0
27 0.2 0
27.3 0.2 0
27.6 0.2 0
27.9 0.2 0
28.2 0.2 0
28.5 0.2 0
28.8 0.2 0
29.1 0.2 0
29.4 0.2 0
29.7 0.2 0
30 0.2 0
0 0.3 0
0.3 0.3 0
0.6 0.3 0
0.9 0.3 0
1.2 0.3 0
1.5 0.3 0
1.8 0.3 0
2.1 0.3 0
2.4 0.3 0
2.7 0.3 0
3 0.3 0
3.3 0.3 0
3.6 0.3 0
3.9 0.3 0
4.2 0.3 0
4.5 0.3 0
4.8 0.3 0
5.1 0.3 0
5.4 0.3 0
5.7 0.3 0
6 0.3 0
6.3 0.3 0
6.6 0.3 0
6.9 0.3 0
7.2 0.3 0
7.5 0.3 0
7.8 0.3 0
8.1 0.3 0
8.4 0.3 0
8.7 0.3 0
9 0.3 0
9.3 0.3 0
9.6 0.3 0
9.9 0.3 0
10.2 0.3 0
10.5 0.3 0
10.8 0.3 0
11.1 0.3 0
11.4 0.3 0
11.7 0.3 0
12 0.3 0
12.3 0.3 0
12.6 0.3 0
12.9 0.3 0
13.2 0.3 0
13.5 0.3 0
13.8 0.3 0
14.1 0.3 0
14.4 0.3 0
14.7 0.3 0
15 0.3 0
15.3 0.3 0
15.6 0.3 0
15.9 0.3 0
16.2 0.3 0
16.5 0.3 0
16.8 0.3 0
17.1 0.3 0
17.4 0.3 0
17.7 0.3 0
18 0.3 0
18.3 0.3 0
18.6 0.3 0
18.9 0.3 0
19.2 0.3 0
19.5 0.3 0
19.8 0.3 0
20.1 0.3 0
20.4 0.3 0
20.7 0.3 0
21 0.3 0
21.3 0.3 0
21.6 0.3 0
21.9 0.3 0
22.2 0.3 0
22.5 0.3 0
22.8 0.3 0
23.1 0.3 0
23.4 0.3 0
23.7 0.3 0
24 0.3 0
24.3 0.3 0
24.6 0.3 0
24.9 0.3 0
25.2 0.3 0
25.5 0.3 0
25.8 0.3 0
26.1 0.3 0
26.4 0.3 0
26.7 0.3 0
27 0.3 0
27.3 0.3 0
27.6 0.3 0
27.9 0.3 0
28.2 0.3 0
28.5 0.3 0
28.8 0.3 0
29.1 0.3 0
29.4 0.3 0
29.7 0.3 0
30 0.3 0
0 0.4 0
0.3 0.4 0
0.6 0.4 0
0.9 0.4 0
1.2 0.4 0
1.5 0.4 0
1.8 0.4 0
2.1 0.4 0
2.4 0.4 0
2.7 0.4 0
3 0.4 0
3.3 0.4 0
3.6 0.4 0
3.9 0.4 0
4.2 0.4 0
4.5 0.4 0
4.8 0.4 0
5.1 0.4 0
5.4 0.4 0
5.7 0.4 0
6 0.4 0
6.3 0.4 0
6.6 0.4 0
6.9 0.4 0
7.2 0.4 0
7.5 0.4 0
7.8 0.4 0
8.1 0.4 0
8.4 0.4 0
8.7 0.4 0
9 0.4 0
9.3 0.4 0
9.6 0.4 0
9.9 0.4 0
10.2 0.4 0
10.5 0.4 0
10.8 0.4 0
11.1 0.4 0
11.4 0.4 0
11.7 0.4 0
12 0.4 0
12.3 0.4 0
12.6 0.4 0
12.9 0.4 0
13.2 0.4 0
13.5 0.4 0
13.8 0.4 0
14.1 0.4 0
14.4 0.4 0
14.7 0.4 0
15 0.4 0
15.3 0.4 0
15.6 0.4 0
15.9 0.4 0
16.2 0.4 0
16.5 0.4 0
16.8 0.4 0
17.1 0.4 0
17.4 0.4 0
17.7 0.4 0
18 0.4 0
18.3 0.4 0
18.6 0.4 0
18.9 0.4 0
19.2 0.4 0
19.5 0.4 0
19.8 0.4 0
20.1 0.4 0
20.4 0.4 0
20.7 0.4 0
21 0.4 0
21.3 0.4 0
21.6 0.4 0
21.9 0.4 0
22.2 0.4 0
22.5 0.4 0
22.8 0.4 0
23.1 0.4 0
23.4 0.4 0
23.7 0.4 0
24 0.4 0
24.3 0.4 0
24.6 0.4 0
24.9 0.4 0
25.2 0.4 0
25.5 0.4 0
25.8 0.4 0
26.1 0.4 0
26.4 0.4 0
26.7 0.4 0
27 0.4 0
27.3 0.4 0
27.6 0.4 0
27.9 0.4 0
28.2 0.4 0
28.5 0.4 0
28.8 0.4 0
29.1 0.4 0
29.4 0.4 0
29.7 0.4 0
30 0.4 0
0 0.5 0
0.3 0.5 0
0.6 0.5 0
0.9 0.5 0
1.2 0.5 0
1.5 0.5 0
1.8 0.5 0
2.1 0.5 0
2.4 0.5 0
2.7 0.5 0
3 0.5 0
3.3 0.5 0
3.6 0.5 0
3.9 0.5 0
4.2 0.5 0
4.5 0.5 0
4.8 0.5 0
5.1 0.5 0
5.4 0.5 0
5.7 0.5 0
6 0.5 0
6.3 0.5 0
6.6 0.5 0
6.9 0.5 0
7.2 0.5 0
7.5 0.5 0
7.8 0.5 0
8.1 0.5 0
8.4 0.5 0
8.7 0.5 0
9 0.5 0
9.3 0.5 0
9.6 0.5 0
9.9 0.5 0
10.2 0.5 0
10.5 0.5 0
10.8 0.5 0
11.1 0.5 0
11.4 0.5 0
11.7 0.5 0
12 0.5 0
12.3 0.5 0
12.6 0.5 0
12.9 0.5 0
13.2 0.5 0
13.5 0.5 0
13.8 0.5 0
14.1 0.5 0
14.4 0.5 0
14.7 0.5 0
15 0.5 0
15.3 0.5 0
15.6 0.5 0
15.9 0.5 0
16.2 0.5 0
16.5 0.5 0
16.8 0.5 0
17.1 0.5 0
17.4 0.5 0
17.7 0.5 0
18 0.5 0
18.3 0.5 0
18.6 0.5 0
18.9 0.5 0
19.2 0.5 0
19.5 0.5 0
19.8 0.5 0
20.1 0.5 0
20.4 0.5 0
20.7 0.5 0
21 0.5 0
21.3 0.5 0
21.6 0.5 0
21.9 0.5 0
22.2 0.5 0
22.5 0.5 0
22.8 0.5 0
23.1 0.5 0
23.4 0.5 0
23.7 0.5 0
24 0.5 0
24.3 0.5 0
24.6 0.5 0
24.9 0.5 0
25.2 0.5 0
25.5 0.5 0
25.8 0.5 0
26.1 0.5 0
26.4 0.5 0
26.7 0.5 0
27 0.5 0
27.3 0.5 0
27.6 0.5 0
27.9 0.5 0
28.2 0.5 0
28.5 0.5 0
28.8 0.5 0
29.1 0.5 0
29.4 0.5 0
29.7 0.5 0
30 0.5 0
0 0.6 0
0.3 0.6 0
0.6 0.6 0
0.9 0.6 0
1.2 0.6 0
1.5 0.6 0
1.8 0.6 0
2.1 0.6 0
2.4 0.6 0
2.7 0.6 0
3 0.6 0
3.3 0.6 0
3.6 0.6 0
3.9 0.6 0
4.2 0.6 0
4.5 0.6 0
4.8 0.6 0
5.1 0.6 0
5.4 0.6 0
5.7 0.6 0
6 0.6 0
6.3 0.6 0
6.6 0.6 0
6.9 0.6 0
7.2 0.6 0
7.5 0.6 0
7.8 0.6 0
8.1 0.6 0
8.4 0.6 0
8.7 0.6 0
9 0.6 0
9.3 0.6 0
9.6 0.6 0
9.9 0.6 0
10.2 0.6 0
10.5 0.6 0
10.8 0.6 0
11.1 0.6 0
11.4 0.6 0
11.7 0.6 0
12 0.6 0
12.3 0.6 0
12.6 0.6 0
12.9 0.6 0
13.2 0.6 0
13.5 0.6 0
13.8 0.6 0
14.1 0.6 0
14.4 0.6 0
14.7 0.6 0
15 0.6 0
15.3 0.6 0
15.6 0.6 0
15.9 0.6 0
16.2 0.6 0
16.5 0.6 0
16.8 0.6 0
17.1 0.6 0
17.4 0.6 0
17.7 0.6 0
18 0.6 0
18.3 0.6 0
18.6 0.6 0
18.9 0.6 0
19.2 0.6 0
19.5 0.6 0
19.8 0.6 0
20.1 0.6 0
20.4 0.6 0
20.7 0.6 0
21 0.6 0
21.3 0.6 0
21.6 0.6 0
21.9 0.6 0
22.2 0.6 0
22.5 0.6 0
22.8 0.6 0
23.1 0.6 0
23.4 0.6 0
23.7 0.6 0
24 0.6 0
24.3 0.6 0
24.6 0.6 0
24.9 0.6 0
25.2 0.6 0
25.5 0.6 0
25.8 0.6 0
26.1 0.6 0
26.4 0.6 0
26.7 0.6 0
27 0.6 0
27.3 0.6 0
27.6 0.6 0
27.9 0.6 0
28.2 0.6 0
28.5 0.6 0
28.8 0.6 0
29.1 0.6 0
29.4 0.6 0
29.7 0.6 0
30 0.6 0
0 0.7 0
0.3 0.7 0
0.6 0.7 0
0.9 0.7 0
1.2 0.7 0
1.5 0.7 0
1.8 0.7 0
2.1 0.7 0
2.4 0.7 0
2.7 0.7 0
3 0.7 0
3.3 0.7 0
3.6 0.7 0
3.9 0.7 0
4.2 0.7 0
4.5 0.7 0
4.8 0.7 0
5.1 0.7 0
5.4 0.7 0
5.7 0.7 0
6 0.7 0
6.3 0.7 0
6.6 0.7 0
6.9 0.7 0
7.2 0.7 0
7.5 0.7 0
7.8 0.7 0
8.1 0.7 0
8.4 0.7 0
8.7 0.7 0
9 0.7 0
9.3 0.7 0
9.6 0.7 0
9.9 0.7 0
10.2 0.7 0
10.5 0.7 0
10.8 0.7 0
11.1 0.7 0
11.4 0.7 0
11.7 0.7 0
12 0.7 0
12.3 0.7 0
12.6 0.7 0
12.9 0.7 0
13.2 0.7 0
13.5 0.7 0
13.8 0.7 0
14.1 0.7 0
14.4 0.7 0
14.7 0.7 0
15 0.7 0
15.3 0.7 0
15.6 0.7 0
15.9 0.7 0
16.2 0.7 0
16.5 0.7 0
16.8 0.7 0
17.1 0.7 0
17.4 0.7 0
17.7 0.7 0
18 0.7 0
18.3 0.7 0
18.6 0.7 0
18.9 0.7 0
19.2 0.7 0
19.5 0.7 0
19.8 0.7 0
20.1 0.7 0
20.4 0.7 0
20.7 0.7 0
21 0.7 0
21.3 0.7 0
21.6 0.7 0
21.9 0.7 0
22.2 0.7 0
22.5 0.7 0
22.8 0.7 0
23.1 0.7 0
23.4 0.7 0
23.7 0.7 0
24 0.7 0
24.3 0.7 0
24.6 0.7 0
24.9 0.7 0
25.2 0.7 0
25.5 0.7 0
25.8 0.7 0
26.1 0.7 0
26.4 0.7 0
26.7 0.7 0
27 0.7 0
27.3 0.7 0
27.6 0.7 0
27.9 0.7 0
28.2 0.7 0
28.5 0.7 0
28.8 0.7 0
29.1 0.7 0
29.4 0.7 0
29.7 0.7 0
30 0.7 0
0 0.8 0
0.3 0.8 0
0.6 0.8 0
0.9 0.8 0
1.2 0.8 0
1.5 0.8 0
1.8 0.8 0
2.1 0.8 0
2.4 0.8 0
2.7 0.8 0
3 0.8 0
3.3 0.8 0
3.6 0.8 0
3.9 0.8 0
4.2 0.8 0
4.5 0.8 0
4.8 0.8 0
5.1 0.8 0
5.4 0.8 0
5.7 0.8 0
6 0.8 0
6.3 0.8 0
6.6 0.8 0
6.9 0.8 0
7.2 0.8 0
7.5 0.8 0
7.8 0.8 0
8.1 0.8 0
8.4 0.8 0
8.7 0.8 0
9 0.8 0
9.3 0.8 0
9.6 0.8 0
9.9 0.8 0
10.2 0.8 0
10.5 0.8 0
10.8 0.8 0
11.1 0.8 0
11.4 0.8 0
11.7 0.8 0
12 0.8 0
12.3 0.8 0
12.6 0.8 0
12.9 0.8 0
13.2 0.8 0
13.5 0.8 0
13.8 0.8 0
14.1 0.8 0
14.4 0.8 0
14.7 0.8 0
15 0.8 0
15.3 0.8 0
15.6 0.8 0
15.9 0.8 0
16.2 0.8 0
16.5 0.8 0
16.8 0.8 0
17.1 0.8 0
17.4 0.8 0
17.7 0.8 0
18 0.8 0
18.3 0.8 0
18.6 0.8 0
18.9 0.8 0
19.2 0.8 0
19.5 0.8 0
19.8 0.8 0
20.1 0.8 0
20.4 0.8 0
20.7 0.8 0
21 0.8 0
21.3 0.8 0
21.6 0.8 0
21.9 0.8 0
22.2 0.8 0
22.5 0.8 0
22.8 0.8 0
23.1 0.8 0
23.4 0.8 0
23.7 0.8 0
24 0.8 0
24.3 0.8 0
24.6 0.8 0
24.9 0.8 0
25.2 0.8 0
25.5 0.8 0
25.8 0.8 0
26.1 0.8 0
26.4 0.8 0
26.7 0.8 0
27 0.8 0
27.3 0.8 0
27.6 0.8 0
27.9 0.8 0
28.2 0.8 0
28.5 0.8 0
28.8 0.8 0
29.1 0.8 0
29.4 0.8 0
29.7 0.8 0
30 0.8 0
0 0.9 0
0.3 0.9 0
0.6 0.9 0
0.9 0.9 0
1.2 0.9 0
1.5 0.9 0
1.8 0.9 0
2.1 0.9 0
2.4 0.9 0
2.7 0.9 0
3 0.9 0
3.3 0.9 0
3.6 0.9 0
3.9 0.9 0
4.2 0.9 0
4.5 0.9 0
4.8 0.9 0
5.1 0.9 0
5.4 0.9 0
5.7 0.9 0
6 0.9 0
6.3 0.9 0
6.6 0.9 0
6.9 0.9 0
7.2 0.9 0
7.5 0.9 0
7.8 0.9 0
8.1 0.9 0
8.4 0.9 0
8.7 0.9 0
9 0.9 0
9.3 0.9 0
9.6 0.9 0
9.9 0.9 0
10.2 0.9 0
10.5 0.9 0
10.8 0.9 0
11.1 0.9 0
11.4 0.9 0
11.7 0.9 0
12 0.9 0
12.3 0.9 0
12.6 0.9 0
12.9 0.9 0
13.2 0.9 0
13.5 0.9 0
13.8 0.9 0
14.1 0.9 0
14.4 0.9 0
14.7 0.9 0
15 0.9 0
15.3 0.9 0
15.6 0.9 0
15.9 0.9 0
16.2 0.9 0
16.5 0.9 0
16.8 0.9 0
17.1 0.9 0
17.4 0.9 0
17.7 0.9 0
18 0.9 0
18.3 0.9 0
18.6 0.9 0
18.9 0.9 0
19.2 0.9 0
19.5 0.9 0
19.8 0.9 0
20.1 0.9 0
20.4 0.9 0
20.7 0.9 0
21 0.9 0
21.3 0.9 0
21.6 0.9 0
21.9 0.9 0
22.2 0.9 0
22.5 0.9 0
22.8 0.9 0
23.1 0.9 0
23.4 0.9 0
23.7 0.9 0
24 0.9 0
24.3 0.9 0
24.6 0.9 0
24.9 0.9 0
25.2 0.9 0
25.5 0.9 0
25.8 0.9 0
26.1 0.9 0
26.4 0.9 0
26.7 0.9 0
27 0.9 0
27.3 0.9 0
27.6 0.9 0
27.9 0.9 0
28.2 0.9 0
28.5 0.9 0
28.8 0.9 0
29.1 0.9 0
29.4 0.9 0
29.7 0.9 0
30 0.9 0
0 1 0
0.3 1 0
0.6 1 0
0.9 1 0
1.2 1 0
1.5 1 0
1.8 1 0
2.1 1 0
2.4 1 0
2.7 1 0
3 1 0
3.3 1 0
3.6 1 0
3.9 1 0
4.2 1 0
4.5 1 0
4.8 1 0
5.1 1 0
5.4 1 0
5.7 1 0
6 1 0
6.3 1 0
6.6 1 0
6.9 1 0
7.2 1 0
7.5 1 0
7.8 1 0
8.1 1 0
8.4 1 0
8.7 1 0
9 1 0
9.3 1 0
9.6 1 0
9.9 1 0
10.2 1 0
10.5 1 0
10.8 1 0
11.1 1 0
11.4 1 0
11.7 1 0
12 1 0
12.3 1 0
12.6 1 0
12.9 1 0
13.2 1 0
13.5 1 0
13.8 1 0
14.1 1 0
14.4 1 0
14.7 1 0
15 1 0
15.3 1 0
15.6 1 0
15.9 1 0
16.2 1 0
16.5 1 0
16.8 1 0
17.1 1 0
17.4 1 0
17.7 1 0
18 1 0
18.3 1 0
18.6 1 0
18.9 1 0
19.2 1 0
19.5 1 0
19.8 1 0
20.1 1 0
20.4 1 0
20.7 1 0
21 1 0
21.3 1 0
21.6 1 0
21.9 1 0
22.2 1 0
22.5 1 0
22.8 1 0
23.1 1 0
23.4 1 0
23.7 1 0
24 1 0
24.3 1 0
24.6 1 0
24.9 1 0
25.2 1 0
25.5 1 0
25.8 1 0
26.1 1 0
26.4 1 0
26.7 1 0
27 1 0
27.3 1 0
27.6 1 0
27.9 1 0
28.2 1 0
28.5 1 0
28.8 1 0
29.1 1 0
29.4 1 0
29.7 1 0
30 1 0

POINT_DATA 1111

SCALARS phi double
LOOKUP_TABLE default
1
1
1
0.999994
0.999972
0.999915
0.999796
0.999582
0.999239
0.998738
0.998045
0.997121
0.995971
0.994674
0.993258
0.991441
0.988428
0.98298
0.973739
0.959631
0.940132
0.915311
0.885696
0.852072
0.815306
0.776232
0.735598
0.694053
0.652147
0.610346
0.569037
0.528536
0.489099
0.450923
0.414158
0.378912
0.345261
0.313251
0.28291
0.254251
0.227278
0.201989
0.178382
0.15645
0.136188
0.117588
0.100637
0.0853179
0.0716012
0.0594455
0.0487941
0.0395744
0.0316975
0.0250603
0.0195482
0.015039
0.0114072
0.00852823
0.00628291
0.00456038
0.00326074
0.00229646
0.00159293
0.0010882
0.000732142
0.000485127
0.000316595
0.0002035
0.000128843
8.0359e-05
4.93765e-05
2.98925e-05
1.78324e-05
1.04836e-05
6.07465e-06
3.46971e-06
1.95381e-06
1.08479e-06
5.93944e-07
3.20727e-07
1.70835e-07
8.9769e-08
4.6542e-08
2.38117e-08
1.20232e-08
5.99234e-09
2.9483e-09
1.4322e-09
6.86992e-10
3.25438e-10
1.52268e-10
7.03766e-11
3.2135e-11
1.44982e-11
6.46374e-12
2.848e-12
1.24034e-12
5.33862e-13
2.28077e-13
8.94164e-14
8.94164e-14
1
1
1
0.999994
0.999972
0.999915
0.999796
0.999582
0.999239
0.998738
0.998045
0.997121
0.995971
0.994674
0.993258
0.991441
0.988428
0.98298
0.973739
0.959631
0.940132
0.915311
0.885696
0.852072
0.815306
0.776232
0.735598
0.694053
0.652147
0.610346
0.569037
0.528536
0.489099
0.450923
0.414158
0.378912
0.345261
0.313251
0.28291
0.254251
0.227278
0.201989
0.178382
0.15645
0.136188
0.117588
0.100637
0.0853179
0.0716012
0.0594455
0.0487941
0.0395744
0.0316975
0.0250603
0.0195482
0.015039
0.0114072
0.00852823
0.00628291
0.00456038
0.00326074
0.00229646
0.00159293
0.0010882
0.000732142
0.000485127
0.000316595
0.0002035
0.000128843
8.0359e-05
4.93765e-05
2.98925e-05
1.78324e-05
1.04836e-05
6.07465e-06
3.46971e-06
1.95381e-06
1.08479e-06
5.93944e-07
3.20727e-07
1.70835e-07
8.9769e-08
4.6542e-08
2.38117e-08
1.20232e-08
5.99234e-09
2.9483e-09
1.4322e-09
6.86992e-10
3.25438e-10
1.52268e-10
7.03766e-11
3.2135e-11
1.44982e-11
6.46374e-12
2.848e-12
1.24034e-12
5.33862e-13
2.28077e-13
8.94164e-14
8.94164e-14
0.999997
1
0.999982
0.999903
0.99973
0.999422
0.998942
0.998256
0.99734
0.996174
0.994749
0.993059
0.991102
0.988899
0.986486
0.983867
0.980933
0.977395
0.97278
0.966503
0.957975
0.946714
0.932409
0.914942
0.89437
0.870891
0.844798
0.816443
0.786208
0.754481
0.721639
0.68804
0.654008
0.619834
0.585769
0.552021
0.518758
0.486106
0.454155
0.42296
0.392549
0.36293
0.3341
0.306054
0.278796
0.25235
0.226764
0.202118
0.178521
0.156105
0.135018
0.115408
0.0974078
0.0811241
0.0666224
0.0539211
0.0429888
0.0337472
0.0260775
0.0198304
0.0148373
0.0109214
0.00790796
0.00563253
0.00394633
0.00271988
0.00184416
0.0012302
0.000807471
0.000521557
0.000331556
0.000207469
0.000127807
7.75225e-05
4.63065e-05
2.72438e-05
1.57897e-05
9.01642e-06
5.07364e-06
2.81386e-06
1.53835e-06
8.29172e-07
4.40703e-07
2.31007e-07
1.19441e-07
6.09254e-08
3.06637e-08
1.523e-08
7.466e-09
3.61287e-09
1.72606e-09
8.14251e-10
3.79333e-10
1.74543e-10
7.93344e-11
3.56248e-11
1.58067e-11
6.92886e-12
3.01493e-12
1.19914e-12
1.19914e-12
1
0.999999
0.99946
0.998318
0.996569
0.994236
0.991359
0.987986
0.984174
0.979984
0.975479
0.970715
0.965743
0.960611
0.955362
0.950035
0.944653
0.939205
0.933625
0.927792
0.921528
0.91462
0.906843
0.897984
0.887861
0.876337
0.863323
0.848778
0.832709
0.815164
0.796224
0.775999
0.754617
0.732219
0.708951
0.68496
0.660384
0.635347
0.609956
0.584289
0.558394
0.532281
0.505926
0.479268
0.452223
0.4247
0.39662
0.367946
0.338708
0.30902
0.279097
0.249246
0.219853
0.191352
0.164189
0.138781
0.115481
0.0945471
0.076131
0.060271
0.0469014
0.0358695
0.0269579
0.0199092
0.0144488
0.010305
0.00722327
0.00497668
0.00337073
0.00224467
0.00146992
0.000946728
0.000599826
0.000373916
0.00022938
0.000138501
8.23281e-05
4.81867e-05
2.77763e-05
1.57714e-05
8.82267e-06
4.86343e-06
2.64228e-06
1.4151e-06
7.47214e-07
3.8907e-07
1.99807e-07
1.0122e-07
5.05905e-08
2.49509e-08
1.21446e-08
5.83492e-09
2.76759e-09
1.29613e-09
5.9943e-10
2.738e-10
1.23538e-10
5.50518e-11
2.43517e-11
9.82653e-12
9.82653e-12
1.00152
0.998478
0.989845
0.978523
0.966041
0.953192
0.940393
0.927875
0.915766
0.904141
0.893035
0.882463
0.87242
0.862891
0.853855
0.845287
0.83716
0.829444
0.822102
0.815087
0.808339
0.801782
0.795326
0.78887
0.782305
0.77552
0.76841
0.760875
0.752825
0.744186
0.734898
0.724915
0.714209
0.702765
0.690582
0.677671
0.664053
0.649756
0.634809
0.619237
0.603056
0.586256
0.568791
0.550572
0.531454
0.511242
0.489705
0.466602
0.441724
0.41494
0.386242
0.355781
0.323878
0.291021
0.257829
0.225002
0.193256
0.16326
0.135581
0.11064
0.0886936
0.0698318
0.0539939
0.0409965
0.0305679
0.0223834
0.0160979
0.0113724
0.00789301
0.00538283
0.00360777
0.00237691
0.00153964
0.000980729
0.000614462
0.000378747
0.000229723
0.000137137
8.05914e-05
4.66336e-05
2.65751e-05
1.49178e-05
8.25037e-06
4.49643e-06
2.4153e-06
1.27898e-06
6.67769e-07
3.43825e-07
1.74611e-07
8.74796e-08
4.32427e-08
2.10942e-08
1.0156e-08
4.82689e-09
2.26494e-09
1.04944e-09
4.80222e-10
2.16987e-10
9.73216e-11
3.97743e-11
3.97743e-11
1.04956
0.950436
0.872951
0.815234
0.771993
0.739004
0.713323
0.692935
0.676456
0.662919
0.651641
0.642125
0.634005
0.627008
0.620923
0.61559
0.61088
0.606695
0.602951
0.599584
0.596533
0.593748
0.591178
0.588774
0.586485
0.584261
0.582046
0.579785
0.577423
0.574903
0.572171
0.569172
0.565858
0.562181
0.558099
0.553575
0.548579
0.543083
0.537068
0.530513
0.523394
0.51567
0.507272
0.498086
0.487934
0.476577
0.463711
0.448993
0.43208
0.412682
0.390621
0.365881
0.338648
0.309317
0.27848
0.246871
0.215308
0.184612
0.155537
0.128707
0.104577
0.0834187
0.0653183
0.0502041
0.0378785
0.0280562
0.0204032
0.0145703
0.0102191
0.00704061
0.00476601
0.00317056
0.00207324
0.00133288
0.000842679
0.000524032
0.00032061
0.000193027
0.000114386
6.67333e-05
3.83368e-05
2.16913e-05
1.20904e-05
6.64007e-06
3.59388e-06
1.91734e-06
1.00847e-06
5.23038e-07
2.6754e-07
1.34992e-07
6.71992e-08
3.30088e-08
1.60021e-08
7.6573e-09
3.61737e-09
1.6873e-09
7.77232e-10
3.53499e-10
1.59596e-10
6.56298e-11
6.56298e-11
-0.0440411
0.0440411
0.104658
0.147826
0.179978
0.204969
0.22512
0.241852
0.256065
0.268346
0.279104
0.288632
0.297153
0.304841
0.31183
0.318232
0.324136
0.329615
0.334729
0.339528
0.344051
0.348332
0.352397
0.356266
0.359952
0.363463
0.366801
0.36996
0.372931
0.3757
0.378246
0.380546
0.382574
0.3843
0.385695
0.386727
0.387365
0.38758
0.387341
0.386612
0.385348
0.383481
0.380911
0.377492
0.37302
0.367237
0.359837
0.350493
0.338902
0.324827
0.308152
0.288922
0.267368
0.243901
0.219092
0.193622
0.16822
0.143595
0.120377
0.099074
0.0800372
0.0634585
0.0493784
0.0377087
0.0282642
0.0207957
0.0150214
0.0106544
0.00742174
0.00507847
0.00341432
0.00225588
0.00146509
0.000935523
0.000587465
0.000362868
0.000220522
0.000131884
7.76365e-05
4.49953e-05
2.56797e-05
1.44353e-05
7.99402e-06
4.3621e-06
2.34587e-06
1.24358e-06
6.49958e-07
3.34982e-07
1.70278e-07
8.53837e-08
4.22419e-08
2.06223e-08
9.9363e-09
4.72583e-09
2.21904e-09
1.02884e-09
4.71087e-10
2.12985e-10
9.55813e-11
3.90837e-11
3.90837e-11
-0.00135393
0.00135393
0.00757106
0.0154113
0.0241244
0.0333479
0.0428736
0.0525556
0.0622789
0.0719501
0.0814969
0.0908662
0.100022
0.108944
0.11762
0.126049
0.134233
0.142179
0.149897
0.157396
0.164685
0.171772
0.178665
0.185364
0.191869
0.198175
0.204272
0.210144
0.215773
0.221136
0.226207
0.230956
0.235353
0.239368
0.242967
0.24612
0.248794
0.250956
0.252564
0.253567
0.253899
0.253466
0.252148
0.249793
0.246222
0.241242
0.234666
0.226341
0.216179
0.204184
0.190471
0.175274
0.158935
0.141883
0.124598
0.107567
0.0912459
0.0760233
0.0621957
0.0499546
0.0393867
0.0304838
0.0231604
0.0172748
0.0126507
0.00909735
0.00642516
0.00445759
0.00303843
0.00203527
0.00134001
0.000867369
0.000552084
0.000345627
0.000212867
0.000129004
7.69457e-05
4.51803e-05
2.61209e-05
1.48728e-05
8.34167e-06
4.60951e-06
2.51006e-06
1.34718e-06
7.1279e-07
3.71853e-07
1.91309e-07
9.70792e-08
4.85985e-08
2.40047e-08
1.17008e-08
5.62933e-09
2.67351e-09
1.2536e-09
5.80436e-10
2.65417e-10
1.19881e-10
5.34758e-11
2.36774e-11
9.56295e-12
9.56295e-12
-1.12304e-05
1.12304e-05
0.000371136
0.00113545
0.00236809
0.00411786
0.00641416
0.00926465
0.0126562
0.0165593
0.020933
0.0257305
0.0309029
0.036402
0.0421821
0.0482009
0.0544198
0.0608035
0.0673188
0.0739333
0.0806131
0.0873215
0.0940178
0.100657
0.107189
0.11356
0.119715
0.125594
0.13114
0.136296
0.141008
0.145228
0.148909
0.152012
0.154502
0.156345
0.157512
0.157971
0.157687
0.156622
0.154732
0.15197
0.148291
0.143657
0.138045
0.13146
0.123941
0.115572
0.106483
0.0968459
0.086872
0.0767946
0.0668546
0.0572826
0.0482824
0.0400179
0.032605
0.0261082
0.0205429
0.0158818
0.0120634
0.00900278
0.00660142
0.00475648
0.00336796
0.00234389
0.00160345
0.00107844
0.000713227
0.000463906
0.000296813
0.000186839
0.000115735
7.05609e-05
4.23492e-05
2.50261e-05
1.45644e-05
8.34879e-06
4.71487e-06
2.62369e-06
1.4389e-06
7.77862e-07
4.14578e-07
2.17879e-07
1.12929e-07
5.77367e-08
2.9122e-08
1.4494e-08
7.11894e-09
3.45124e-09
1.6517e-09
7.80451e-10
3.64153e-10
1.67806e-10
7.63791e-11
3.43435e-11
1.52575e-11
6.6962e-12
2.91708e-12
1.16147e-12
1.16147e-12
1.70138e-06
-1.70138e-06
1.49765e-05
9.33844e-05
0.000299335
0.000718214
0.00144362
0.0025626
0.00414308
0.0062276
0.0088333
0.0119559
0.0155752
0.0196603
0.0241745
0.0290782
0.0343298
0.0398848
0.0456932
0.0516967
0.0578273
0.0640069
0.0701498
0.0761646
0.0819577
0.0874366
0.0925128
0.0971038
0.101136
0.104544
0.107274
0.109282
0.110537
0.111015
0.110706
0.109609
0.107731
0.105094
0.101727
0.0976726
0.0929856
0.0877337
0.0819982
0.0758732
0.0694651
0.0628895
0.0562679
0.0497228
0.0433725
0.0373251
0.0316738
0.026492
0.0218308
0.017718
0.0141586
0.0111374
0.00862217
0.0065684
0.0049234
0.00363083
0.00263431
0.0018804
0.00132058
0.000912506
0.000620427
0.000415116
0.000273348
0.000177166
0.000113036
7.10037e-05
4.39174e-05
2.67513e-05
1.60499e-05
9.48596e-06
5.52385e-06
3.16972e-06
1.79261e-06
9.99318e-07
5.49216e-07
2.97626e-07
1.59058e-07
8.38418e-08
4.35967e-08
2.23665e-08
1.13229e-08
5.65716e-09
2.78983e-09
1.35819e-09
6.52838e-10
3.09864e-10
1.4525e-10
6.72509e-11
3.0759e-11
1.38993e-11
6.20608e-12
2.73838e-12
1.19423e-12
5.14679e-13
2.20156e-13
8.64099e-14
8.64099e-14
1.70138e-06
-1.70138e-06
1.49765e-05
9.33844e-05
0.000299335
0.000718214
0.00144362
0.0025626
0.00414308
0.0062276
0.0088333
0.0119559
0.0155752
0.0196603
0.0241745
0.0290782
0.0343298
0.0398848
0.0456932
0.0516967
0.0578273
0.0640069
0.0701498
0.0761646
0.0819577
0.0874366
0.0925128
0.0971038
0.101136
0.104544
0.107274
0.109282
0.110537
0.111015
0.110706
0.109609
0.107731
0.105094
0.101727
0.0976726
0.0929856
0.0877337
0.0819982
0.0758732
0.0694651
0.0628895
0.0562679
0.0497228
0.0433725
0.0373251
0.0316738
0.026492
0.0218308
0.017718
0.0141586
0.0111374
0.00862217
0.0065684
0.0049234
0.00363083
0.00263431
0.0018804
0.00132058
0.000912506
0.000620427
0.000415116
0.000273348
0.000177166
0.000113036
7.10037e-05
4.39174e-05
2.67513e-05
1.60499e-05
9.48596e-06
5.52385e-06
3.16972e-06
1.79261e-06
9.99318e-07
5.49216e-07
2.97626e-07
1.59058e-07
8.38418e-08
4.35967e-08
2.23665e-08
1.13229e-08
5.65716e-09
2.78983e-09
1.35819e-09
6.52838e-10
3.09864e-10
1.4525e-10
6.72509e-11
3.0759e-11
1.38993e-11
6.20608e-12
2.73838e-12
1.19423e-12
5.14679e-13
2.20156e-13
8.64099e-14
8.64099e-14
