# vtk DataFile Version 2.0
FlowField
ASCII
DATASET STRUCTURED_GRID
DIMENSIONS 102 12 1 
POINTS 1224 double
0 0 0
0.3 0 0
0.6 0 0
0.9 0 0
1.2 0 0
1.5 0 0
1.8 0 0
2.1 0 0
2.4 0 0
2.7 0 0
3 0 0
3.3 0 0
3.6 0 0
3.9 0 0
4.2 0 0
4.5 0 0
4.8 0 0
5.1 0 0
5.4 0 0
5.7 0 0
6 0 0
6.3 0 0
6.6 0 0
6.9 0 0
7.2 0 0
7.5 0 0
7.8 0 0
8.1 0 0
8.4 0 0
8.7 0 0
9 0 0
9.3 0 0
9.6 0 0
9.9 0 0
10.2 0 0
10.5 0 0
10.8 0 0
11.1 0 0
11.4 0 0
11.7 0 0
12 0 0
12.3 0 0
12.6 0 0
12.9 0 0
13.2 0 0
13.5 0 0
13.8 0 0
14.1 0 0
14.4 0 0
14.7 0 0
15 0 0
15.3 0 0
15.6 0 0
15.9 0 0
16.2 0 0
16.5 0 0
16.8 0 0
17.1 0 0
17.4 0 0
17.7 0 0
18 0 0
18.3 0 0
18.6 0 0
18.9 0 0
19.2 0 0
19.5 0 0
19.8 0 0
20.1 0 0
20.4 0 0
20.7 0 0
21 0 0
21.3 0 0
21.6 0 0
21.9 0 0
22.2 0 0
22.5 0 0
22.8 0 0
23.1 0 0
23.4 0 0
23.7 0 0
24 0 0
24.3 0 0
24.6 0 0
24.9 0 0
25.2 0 0
25.5 0 0
25.8 0 0
26.1 0 0
26.4 0 0
26.7 0 0
27 0 0
27.3 0 0
27.6 0 0
27.9 0 0
28.2 0 0
28.5 0 0
28.8 0 0
29.1 0 0
29.4 0 0
29.7 0 0
30 0 0
30.3 0 0
0 0.1 0
0.3 0.1 0
0.6 0.1 0
0.9 0.1 0
1.2 0.1 0
1.5 0.1 0
1.8 0.1 0
2.1 0.1 0
2.4 0.1 0
2.7 0.1 0
3 0.1 0
3.3 0.1 0
3.6 0.1 0
3.9 0.1 0
4.2 0.1 0
4.5 0.1 0
4.8 0.1 0
5.1 0.1 0
5.4 0.1 0
5.7 0.1 0
6 0.1 0
6.3 0.1 0
6.6 0.1 0
6.9 0.1 0
7.2 0.1 0
7.5 0.1 0
7.8 0.1 0
8.1 0.1 0
8.4 0.1 0
8.7 0.1 0
9 0.1 0
9.3 0.1 0
9.6 0.1 0
9.9 0.1 0
10.2 0.1 0
10.5 0.1 0
10.8 0.1 0
11.1 0.1 0
11.4 0.1 0
11.7 0.1 0
12 0.1 0
12.3 0.1 0
12.6 0.1 0
12.9 0.1 0
13.2 0.1 0
13.5 0.1 0
13.8 0.1 0
14.1 0.1 0
14.4 0.1 0
14.7 0.1 0
15 0.1 0
15.3 0.1 0
15.6 0.1 0
15.9 0.1 0
16.2 0.1 0
16.5 0.1 0
16.8 0.1 0
17.1 0.1 0
17.4 0.1 0
17.7 0.1 0
18 0.1 0
18.3 0.1 0
18.6 0.1 0
18.9 0.1 0
19.2 0.1 0
19.5 0.1 0
19.8 0.1 0
20.1 0.1 0
20.4 0.1 0
20.7 0.1 0
21 0.1 0
21.3 0.1 0
21.6 0.1 0
21.9 0.1 0
22.2 0.1 0
22.5 0.1 0
22.8 0.1 0
23.1 0.1 0
23.4 0.1 0
23.7 0.1 0
24 0.1 0
24.3 0.1 0
24.6 0.1 0
24.9 0.1 0
25.2 0.1 0
25.5 0.1 0
25.8 0.1 0
26.1 0.1 0
26.4 0.1 0
26.7 0.1 0
27 0.1 0
27.3 0.1 0
27.6 0.1 0
27.9 0.1 0
28.2 0.1 0
28.5 0.1 0
28.8 0.1 0
29.1 0.1 0
29.4 0.1 0
29.7 0.1 0
30 0.1 0
30.3 0.1 0
0 0.2 0
0.3 0.2 0
0.6 0.2 0
0.9 0.2 0
1.2 0.2 0
1.5 0.2 0
1.8 0.2 0
2.1 0.2 0
2.4 0.2 0
2.7 0.2 0
3 0.2 0
3.3 0.2 0
3.6 0.2 0
3.9 0.2 0
4.2 0.2 0
4.5 0.2 0
4.8 0.2 0
5.1 0.2 0
5.4 0.2 0
5.7 0.2 0
6 0.2 0
6.3 0.2 0
6.6 0.2 0
6.9 0.2 0
7.2 0.2 0
7.5 0.2 0
7.8 0.2 0
8.1 0.2 0
8.4 0.2 0
8.7 0.2 0
9 0.2 0
9.3 0.2 0
9.6 0.2 0
9.9 0.2 0
10.2 0.2 0
10.5 0.2 0
10.8 0.2 0
11.1 0.2 0
11.4 0.2 0
11.7 0.2 0
12 0.2 0
12.3 0.2 0
12.6 0.2 0
12.9 0.2 0
13.2 0.2 0
13.5 0.2 0
13.8 0.2 0
14.1 0.2 0
14.4 0.2 0
14.7 0.2 0
15 0.2 0
15.3 0.2 0
15.6 0.2 0
15.9 0.2 0
16.2 0.2 0
16.5 0.2 0
16.8 0.2 0
17.1 0.2 0
17.4 0.2 0
17.7 0.2 0
18 0.2 0
18.3 0.2 0
18.6 0.2 0
18.9 0.2 0
19.2 0.2 0
19.5 0.2 0
19.8 0.2 0
20.1 0.2 0
20.4 0.2 0
20.7 0.2 0
21 0.2 0
21.3 0.2 0
21.6 0.2 0
21.9 0.2 0
22.2 0.2 0
22.5 0.2 0
22.8 0.2 0
23.1 0.2 0
23.4 0.2 0
23.7 0.2 0
24 0.2 0
24.3 0.2 0
24.6 0.2 0
24.9 0.2 0
25.2 0.2 0
25.5 0.2 0
25.8 0.2 0
26.1 0.2 0
26.4 0.2 0
26.7 0.2 0
27 0.2 0
27.3 0.2 0
27.6 0.2 0
27.9 0.2 0
28.2 0.2 0
28.5 0.2 0
28.8 0.2 0
29.1 0.2 0
29.4 0.2 0
29.7 0.2 0
30 0.2 0
30.3 0.2 0
0 0.3 0
0.3 0.3 0
0.6 0.3 0
0.9 0.3 0
1.2 0.3 0
1.5 0.3 0
1.8 0.3 0
2.1 0.3 0
2.4 0.3 0
2.7 0.3 0
3 0.3 0
3.3 0.3 0
3.6 0.3 0
3.9 0.3 0
4.2 0.3 0
4.5 0.3 0
4.8 0.3 0
5.1 0.3 0
5.4 0.3 0
5.7 0.3 0
6 0.3 0
6.3 0.3 0
6.6 0.3 0
6.9 0.3 0
7.2 0.3 0
7.5 0.3 0
7.8 0.3 0
8.1 0.3 0
8.4 0.3 0
8.7 0.3 0
9 0.3 0
9.3 0.3 0
9.6 0.3 0
9.9 0.3 0
10.2 0.3 0
10.5 0.3 0
10.8 0.3 0
11.1 0.3 0
11.4 0.3 0
11.7 0.3 0
12 0.3 0
12.3 0.3 0
12.6 0.3 0
12.9 0.3 0
13.2 0.3 0
13.5 0.3 0
13.8 0.3 0
14.1 0.3 0
14.4 0.3 0
14.7 0.3 0
15 0.3 0
15.3 0.3 0
15.6 0.3 0
15.9 0.3 0
16.2 0.3 0
16.5 0.3 0
16.8 0.3 0
17.1 0.3 0
17.4 0.3 0
17.7 0.3 0
18 0.3 0
18.3 0.3 0
18.6 0.3 0
18.9 0.3 0
19.2 0.3 0
19.5 0.3 0
19.8 0.3 0
20.1 0.3 0
20.4 0.3 0
20.7 0.3 0
21 0.3 0
21.3 0.3 0
21.6 0.3 0
21.9 0.3 0
22.2 0.3 0
22.5 0.3 0
22.8 0.3 0
23.1 0.3 0
23.4 0.3 0
23.7 0.3 0
24 0.3 0
24.3 0.3 0
24.6 0.3 0
24.9 0.3 0
25.2 0.3 0
25.5 0.3 0
25.8 0.3 0
26.1 0.3 0
26.4 0.3 0
26.7 0.3 0
27 0.3 0
27.3 0.3 0
27.6 0.3 0
27.9 0.3 0
28.2 0.3 0
28.5 0.3 0
28.8 0.3 0
29.1 0.3 0
29.4 0.3 0
29.7 0.3 0
30 0.3 0
30.3 0.3 0
0 0.4 0
0.3 0.4 0
0.6 0.4 0
0.9 0.4 0
1.2 0.4 0
1.5 0.4 0
1.8 0.4 0
2.1 0.4 0
2.4 0.4 0
2.7 0.4 0
3 0.4 0
3.3 0.4 0
3.6 0.4 0
3.9 0.4 0
4.2 0.4 0
4.5 0.4 0
4.8 0.4 0
5.1 0.4 0
5.4 0.4 0
5.7 0.4 0
6 0.4 0
6.3 0.4 0
6.6 0.4 0
6.9 0.4 0
7.2 0.4 0
7.5 0.4 0
7.8 0.4 0
8.1 0.4 0
8.4 0.4 0
8.7 0.4 0
9 0.4 0
9.3 0.4 0
9.6 0.4 0
9.9 0.4 0
10.2 0.4 0
10.5 0.4 0
10.8 0.4 0
11.1 0.4 0
11.4 0.4 0
11.7 0.4 0
12 0.4 0
12.3 0.4 0
12.6 0.4 0
12.9 0.4 0
13.2 0.4 0
13.5 0.4 0
13.8 0.4 0
14.1 0.4 0
14.4 0.4 0
14.7 0.4 0
15 0.4 0
15.3 0.4 0
15.6 0.4 0
15.9 0.4 0
16.2 0.4 0
16.5 0.4 0
16.8 0.4 0
17.1 0.4 0
17.4 0.4 0
17.7 0.4 0
18 0.4 0
18.3 0.4 0
18.6 0.4 0
18.9 0.4 0
19.2 0.4 0
19.5 0.4 0
19.8 0.4 0
20.1 0.4 0
20.4 0.4 0
20.7 0.4 0
21 0.4 0
21.3 0.4 0
21.6 0.4 0
21.9 0.4 0
22.2 0.4 0
22.5 0.4 0
22.8 0.4 0
23.1 0.4 0
23.4 0.4 0
23.7 0.4 0
24 0.4 0
24.3 0.4 0
24.6 0.4 0
24.9 0.4 0
25.2 0.4 0
25.5 0.4 0
25.8 0.4 0
26.1 0.4 0
26.4 0.4 0
26.7 0.4 0
27 0.4 0
27.3 0.4 0
27.6 0.4 0
27.9 0.4 0
28.2 0.4 0
28.5 0.4 0
28.8 0.4 0
29.1 0.4 0
29.4 0.4 0
29.7 0.4 0
30 0.4 0
30.3 0.4 0
0 0.5 0
0.3 0.5 0
0.6 0.5 0
0.9 0.5 0
1.2 0.5 0
1.5 0.5 0
1.8 0.5 0
2.1 0.5 0
2.4 0.5 0
2.7 0.5 0
3 0.5 0
3.3 0.5 0
3.6 0.5 0
3.9 0.5 0
4.2 0.5 0
4.5 0.5 0
4.8 0.5 0
5.1 0.5 0
5.4 0.5 0
5.7 0.5 0
6 0.5 0
6.3 0.5 0
6.6 0.5 0
6.9 0.5 0
7.2 0.5 0
7.5 0.5 0
7.8 0.5 0
8.1 0.5 0
8.4 0.5 0
8.7 0.5 0
9 0.5 0
9.3 0.5 0
9.6 0.5 0
9.9 0.5 0
10.2 0.5 0
10.5 0.5 0
10.8 0.5 0
11.1 0.5 0
11.4 0.5 0
11.7 0.5 0
12 0.5 0
12.3 0.5 0
12.6 0.5 0
12.9 0.5 0
13.2 0.5 0
13.5 0.5 0
13.8 0.5 0
14.1 0.5 0
14.4 0.5 0
14.7 0.5 0
15 0.5 0
15.3 0.5 0
15.6 0.5 0
15.9 0.5 0
16.2 0.5 0
16.5 0.5 0
16.8 0.5 0
17.1 0.5 0
17.4 0.5 0
17.7 0.5 0
18 0.5 0
18.3 0.5 0
18.6 0.5 0
18.9 0.5 0
19.2 0.5 0
19.5 0.5 0
19.8 0.5 0
20.1 0.5 0
20.4 0.5 0
20.7 0.5 0
21 0.5 0
21.3 0.5 0
21.6 0.5 0
21.9 0.5 0
22.2 0.5 0
22.5 0.5 0
22.8 0.5 0
23.1 0.5 0
23.4 0.5 0
23.7 0.5 0
24 0.5 0
24.3 0.5 0
24.6 0.5 0
24.9 0.5 0
25.2 0.5 0
25.5 0.5 0
25.8 0.5 0
26.1 0.5 0
26.4 0.5 0
26.7 0.5 0
27 0.5 0
27.3 0.5 0
27.6 0.5 0
27.9 0.5 0
28.2 0.5 0
28.5 0.5 0
28.8 0.5 0
29.1 0.5 0
29.4 0.5 0
29.7 0.5 0
30 0.5 0
30.3 0.5 0
0 0.6 0
0.3 0.6 0
0.6 0.6 0
0.9 0.6 0
1.2 0.6 0
1.5 0.6 0
1.8 0.6 0
2.1 0.6 0
2.4 0.6 0
2.7 0.6 0
3 0.6 0
3.3 0.6 0
3.6 0.6 0
3.9 0.6 0
4.2 0.6 0
4.5 0.6 0
4.8 0.6 0
5.1 0.6 0
5.4 0.6 0
5.7 0.6 0
6 0.6 0
6.3 0.6 0
6.6 0.6 0
6.9 0.6 0
7.2 0.6 0
7.5 0.6 0
7.8 0.6 0
8.1 0.6 0
8.4 0.6 0
8.7 0.6 0
9 0.6 0
9.3 0.6 0
9.6 0.6 0
9.9 0.6 0
10.2 0.6 0
10.5 0.6 0
10.8 0.6 0
11.1 0.6 0
11.4 0.6 0
11.7 0.6 0
12 0.6 0
12.3 0.6 0
12.6 0.6 0
12.9 0.6 0
13.2 0.6 0
13.5 0.6 0
13.8 0.6 0
14.1 0.6 0
14.4 0.6 0
14.7 0.6 0
15 0.6 0
15.3 0.6 0
15.6 0.6 0
15.9 0.6 0
16.2 0.6 0
16.5 0.6 0
16.8 0.6 0
17.1 0.6 0
17.4 0.6 0
17.7 0.6 0
18 0.6 0
18.3 0.6 0
18.6 0.6 0
18.9 0.6 0
19.2 0.6 0
19.5 0.6 0
19.8 0.6 0
20.1 0.6 0
20.4 0.6 0
20.7 0.6 0
21 0.6 0
21.3 0.6 0
21.6 0.6 0
21.9 0.6 0
22.2 0.6 0
22.5 0.6 0
22.8 0.6 0
23.1 0.6 0
23.4 0.6 0
23.7 0.6 0
24 0.6 0
24.3 0.6 0
24.6 0.6 0
24.9 0.6 0
25.2 0.6 0
25.5 0.6 0
25.8 0.6 0
26.1 0.6 0
26.4 0.6 0
26.7 0.6 0
27 0.6 0
27.3 0.6 0
27.6 0.6 0
27.9 0.6 0
28.2 0.6 0
28.5 0.6 0
28.8 0.6 0
29.1 0.6 0
29.4 0.6 0
29.7 0.6 0
30 0.6 0
30.3 0.6 0
0 0.7 0
0.3 0.7 0
0.6 0.7 0
0.9 0.7 0
1.2 0.7 0
1.5 0.7 0
1.8 0.7 0
2.1 0.7 0
2.4 0.7 0
2.7 0.7 0
3 0.7 0
3.3 0.7 0
3.6 0.7 0
3.9 0.7 0
4.2 0.7 0
4.5 0.7 0
4.8 0.7 0
5.1 0.7 0
5.4 0.7 0
5.7 0.7 0
6 0.7 0
6.3 0.7 0
6.6 0.7 0
6.9 0.7 0
7.2 0.7 0
7.5 0.7 0
7.8 0.7 0
8.1 0.7 0
8.4 0.7 0
8.7 0.7 0
9 0.7 0
9.3 0.7 0
9.6 0.7 0
9.9 0.7 0
10.2 0.7 0
10.5 0.7 0
10.8 0.7 0
11.1 0.7 0
11.4 0.7 0
11.7 0.7 0
12 0.7 0
12.3 0.7 0
12.6 0.7 0
12.9 0.7 0
13.2 0.7 0
13.5 0.7 0
13.8 0.7 0
14.1 0.7 0
14.4 0.7 0
14.7 0.7 0
15 0.7 0
15.3 0.7 0
15.6 0.7 0
15.9 0.7 0
16.2 0.7 0
16.5 0.7 0
16.8 0.7 0
17.1 0.7 0
17.4 0.7 0
17.7 0.7 0
18 0.7 0
18.3 0.7 0
18.6 0.7 0
18.9 0.7 0
19.2 0.7 0
19.5 0.7 0
19.8 0.7 0
20.1 0.7 0
20.4 0.7 0
20.7 0.7 0
21 0.7 0
21.3 0.7 0
21.6 0.7 0
21.9 0.7 0
22.2 0.7 0
22.5 0.7 0
22.8 0.7 0
23.1 0.7 0
23.4 0.7 0
23.7 0.7 0
24 0.7 0
24.3 0.7 0
24.6 0.7 0
24.9 0.7 0
25.2 0.7 0
25.5 0.7 0
25.8 0.7 0
26.1 0.7 0
26.4 0.7 0
26.7 0.7 0
27 0.7 0
27.3 0.7 0
27.6 0.7 0
27.9 0.7 0
28.2 0.7 0
28.5 0.7 0
28.8 0.7 0
29.1 0.7 0
29.4 0.7 0
29.7 0.7 0
30 0.7 0
30.3 0.7 0
0 0.8 0
0.3 0.8 0
0.6 0.8 0
0.9 0.8 0
1.2 0.8 0
1.5 0.8 0
1.8 0.8 0
2.1 0.8 0
2.4 0.8 0
2.7 0.8 0
3 0.8 0
3.3 0.8 0
3.6 0.8 0
3.9 0.8 0
4.2 0.8 0
4.5 0.8 0
4.8 0.8 0
5.1 0.8 0
5.4 0.8 0
5.7 0.8 0
6 0.8 0
6.3 0.8 0
6.6 0.8 0
6.9 0.8 0
7.2 0.8 0
7.5 0.8 0
7.8 0.8 0
8.1 0.8 0
8.4 0.8 0
8.7 0.8 0
9 0.8 0
9.3 0.8 0
9.6 0.8 0
9.9 0.8 0
10.2 0.8 0
10.5 0.8 0
10.8 0.8 0
11.1 0.8 0
11.4 0.8 0
11.7 0.8 0
12 0.8 0
12.3 0.8 0
12.6 0.8 0
12.9 0.8 0
13.2 0.8 0
13.5 0.8 0
13.8 0.8 0
14.1 0.8 0
14.4 0.8 0
14.7 0.8 0
15 0.8 0
15.3 0.8 0
15.6 0.8 0
15.9 0.8 0
16.2 0.8 0
16.5 0.8 0
16.8 0.8 0
17.1 0.8 0
17.4 0.8 0
17.7 0.8 0
18 0.8 0
18.3 0.8 0
18.6 0.8 0
18.9 0.8 0
19.2 0.8 0
19.5 0.8 0
19.8 0.8 0
20.1 0.8 0
20.4 0.8 0
20.7 0.8 0
21 0.8 0
21.3 0.8 0
21.6 0.8 0
21.9 0.8 0
22.2 0.8 0
22.5 0.8 0
22.8 0.8 0
23.1 0.8 0
23.4 0.8 0
23.7 0.8 0
24 0.8 0
24.3 0.8 0
24.6 0.8 0
24.9 0.8 0
25.2 0.8 0
25.5 0.8 0
25.8 0.8 0
26.1 0.8 0
26.4 0.8 0
26.7 0.8 0
27 0.8 0
27.3 0.8 0
27.6 0.8 0
27.9 0.8 0
28.2 0.8 0
28.5 0.8 0
28.8 0.8 0
29.1 0.8 0
29.4 0.8 0
29.7 0.8 0
30 0.8 0
30.3 0.8 0
0 0.9 0
0.3 0.9 0
0.6 0.9 0
0.9 0.9 0
1.2 0.9 0
1.5 0.9 0
1.8 0.9 0
2.1 0.9 0
2.4 0.9 0
2.7 0.9 0
3 0.9 0
3.3 0.9 0
3.6 0.9 0
3.9 0.9 0
4.2 0.9 0
4.5 0.9 0
4.8 0.9 0
5.1 0.9 0
5.4 0.9 0
5.7 0.9 0
6 0.9 0
6.3 0.9 0
6.6 0.9 0
6.9 0.9 0
7.2 0.9 0
7.5 0.9 0
7.8 0.9 0
8.1 0.9 0
8.4 0.9 0
8.7 0.9 0
9 0.9 0
9.3 0.9 0
9.6 0.9 0
9.9 0.9 0
10.2 0.9 0
10.5 0.9 0
10.8 0.9 0
11.1 0.9 0
11.4 0.9 0
11.7 0.9 0
12 0.9 0
12.3 0.9 0
12.6 0.9 0
12.9 0.9 0
13.2 0.9 0
13.5 0.9 0
13.8 0.9 0
14.1 0.9 0
14.4 0.9 0
14.7 0.9 0
15 0.9 0
15.3 0.9 0
15.6 0.9 0
15.9 0.9 0
16.2 0.9 0
16.5 0.9 0
16.8 0.9 0
17.1 0.9 0
17.4 0.9 0
17.7 0.9 0
18 0.9 0
18.3 0.9 0
18.6 0.9 0
18.9 0.9 0
19.2 0.9 0
19.5 0.9 0
19.8 0.9 0
20.1 0.9 0
20.4 0.9 0
20.7 0.9 0
21 0.9 0
21.3 0.9 0
21.6 0.9 0
21.9 0.9 0
22.2 0.9 0
22.5 0.9 0
22.8 0.9 0
23.1 0.9 0
23.4 0.9 0
23.7 0.9 0
24 0.9 0
24.3 0.9 0
24.6 0.9 0
24.9 0.9 0
25.2 0.9 0
25.5 0.9 0
25.8 0.9 0
26.1 0.9 0
26.4 0.9 0
26.7 0.9 0
27 0.9 0
27.3 0.9 0
27.6 0.9 0
27.9 0.9 0
28.2 0.9 0
28.5 0.9 0
28.8 0.9 0
29.1 0.9 0
29.4 0.9 0
29.7 0.9 0
30 0.9 0
30.3 0.9 0
0 1 0
0.3 1 0
0.6 1 0
0.9 1 0
1.2 1 0
1.5 1 0
1.8 1 0
2.1 1 0
2.4 1 0
2.7 1 0
3 1 0
3.3 1 0
3.6 1 0
3.9 1 0
4.2 1 0
4.5 1 0
4.8 1 0
5.1 1 0
5.4 1 0
5.7 1 0
6 1 0
6.3 1 0
6.6 1 0
6.9 1 0
7.2 1 0
7.5 1 0
7.8 1 0
8.1 1 0
8.4 1 0
8.7 1 0
9 1 0
9.3 1 0
9.6 1 0
9.9 1 0
10.2 1 0
10.5 1 0
10.8 1 0
11.1 1 0
11.4 1 0
11.7 1 0
12 1 0
12.3 1 0
12.6 1 0
12.9 1 0
13.2 1 0
13.5 1 0
13.8 1 0
14.1 1 0
14.4 1 0
14.7 1 0
15 1 0
15.3 1 0
15.6 1 0
15.9 1 0
16.2 1 0
16.5 1 0
16.8 1 0
17.1 1 0
17.4 1 0
17.7 1 0
18 1 0
18.3 1 0
18.6 1 0
18.9 1 0
19.2 1 0
19.5 1 0
19.8 1 0
20.1 1 0
20.4 1 0
20.7 1 0
21 1 0
21.3 1 0
21.6 1 0
21.9 1 0
22.2 1 0
22.5 1 0
22.8 1 0
23.1 1 0
23.4 1 0
23.7 1 0
24 1 0
24.3 1 0
24.6 1 0
24.9 1 0
25.2 1 0
25.5 1 0
25.8 1 0
26.1 1 0
26.4 1 0
26.7 1 0
27 1 0
27.3 1 0
27.6 1 0
27.9 1 0
28.2 1 0
28.5 1 0
28.8 1 0
29.1 1 0
29.4 1 0
29.7 1 0
30 1 0
30.3 1 0
0 1.1 0
0.3 1.1 0
0.6 1.1 0
0.9 1.1 0
1.2 1.1 0
1.5 1.1 0
1.8 1.1 0
2.1 1.1 0
2.4 1.1 0
2.7 1.1 0
3 1.1 0
3.3 1.1 0
3.6 1.1 0
3.9 1.1 0
4.2 1.1 0
4.5 1.1 0
4.8 1.1 0
5.1 1.1 0
5.4 1.1 0
5.7 1.1 0
6 1.1 0
6.3 1.1 0
6.6 1.1 0
6.9 1.1 0
7.2 1.1 0
7.5 1.1 0
7.8 1.1 0
8.1 1.1 0
8.4 1.1 0
8.7 1.1 0
9 1.1 0
9.3 1.1 0
9.6 1.1 0
9.9 1.1 0
10.2 1.1 0
10.5 1.1 0
10.8 1.1 0
11.1 1.1 0
11.4 1.1 0
11.7 1.1 0
12 1.1 0
12.3 1.1 0
12.6 1.1 0
12.9 1.1 0
13.2 1.1 0
13.5 1.1 0
13.8 1.1 0
14.1 1.1 0
14.4 1.1 0
14.7 1.1 0
15 1.1 0
15.3 1.1 0
15.6 1.1 0
15.9 1.1 0
16.2 1.1 0
16.5 1.1 0
16.8 1.1 0
17.1 1.1 0
17.4 1.1 0
17.7 1.1 0
18 1.1 0
18.3 1.1 0
18.6 1.1 0
18.9 1.1 0
19.2 1.1 0
19.5 1.1 0
19.8 1.1 0
20.1 1.1 0
20.4 1.1 0
20.7 1.1 0
21 1.1 0
21.3 1.1 0
21.6 1.1 0
21.9 1.1 0
22.2 1.1 0
22.5 1.1 0
22.8 1.1 0
23.1 1.1 0
23.4 1.1 0
23.7 1.1 0
24 1.1 0
24.3 1.1 0
24.6 1.1 0
24.9 1.1 0
25.2 1.1 0
25.5 1.1 0
25.8 1.1 0
26.1 1.1 0
26.4 1.1 0
26.7 1.1 0
27 1.1 0
27.3 1.1 0
27.6 1.1 0
27.9 1.1 0
28.2 1.1 0
28.5 1.1 0
28.8 1.1 0
29.1 1.1 0
29.4 1.1 0
29.7 1.1 0
30 1.1 0
30.3 1.1 0

POINT_DATA 1224

VECTORS velocity double
LOOKUP_TABLE default
-1 0 0
-0.897902 0 0
-0.82877 0 0
-0.800475 0 0
-0.791983 0 0
-0.789974 0 0
-0.789586 0 0
-0.789524 0 0
-0.789516 0 0
-0.789516 0 0
-0.789516 0 0
-0.789516 0 0
-0.789517 0 0
-0.789517 0 0
-0.789517 0 0
-0.789517 0 0
-0.789517 0 0
-0.789517 0 0
-0.789518 0 0
-0.789518 0 0
-0.789518 0 0
-0.789518 0 0
-0.789518 0 0
-0.789518 0 0
-0.789518 0 0
-0.789518 0 0
-0.789518 0 0
-0.789518 0 0
-0.789518 0 0
-0.789518 0 0
-0.789518 0 0
-0.789518 0 0
-0.789518 0 0
-0.789518 0 0
-0.789518 0 0
-0.789518 0 0
-0.789518 0 0
-0.789518 0 0
-0.789518 0 0
-0.789518 0 0
-0.789518 0 0
-0.789518 0 0
-0.789517 0 0
-0.789517 0 0
-0.789517 0 0
-0.789517 0 0
-0.789517 0 0
-0.789517 0 0
-0.789516 0 0
-0.789516 0 0
-0.789516 0 0
-0.789516 0 0
-0.789515 0 0
-0.789515 0 0
-0.789515 0 0
-0.789515 0 0
-0.789514 0 0
-0.789514 0 0
-0.789514 0 0
-0.789513 0 0
-0.789513 0 0
-0.789513 0 0
-0.789512 0 0
-0.789512 0 0
-0.789511 0 0
-0.789511 0 0
-0.789511 0 0
-0.78951 0 0
-0.78951 0 0
-0.789509 0 0
-0.789509 0 0
-0.789509 0 0
-0.789508 0 0
-0.789508 0 0
-0.789507 0 0
-0.789507 0 0
-0.789506 0 0
-0.789506 0 0
-0.789505 0 0
-0.789505 0 0
-0.789504 0 0
-0.789504 0 0
-0.789503 0 0
-0.789503 0 0
-0.789502 0 0
-0.789502 0 0
-0.789501 0 0
-0.7895 0 0
-0.7895 0 0
-0.789499 0 0
-0.789499 0 0
-0.789498 0 0
-0.789498 0 0
-0.789497 0 0
-0.789497 0 0
-0.789498 0 0
-0.789503 0 0
-0.789543 0 0
-0.789609 0 0
-0.791324 0 0
-0.791324 0 0
-1 0 0
1 -0.0340327 0
0.897902 0.0340327 0
0.82877 0.0230441 0
0.800475 0.00943143 0
0.791983 0.00283088 0
0.789974 0.000669598 0
0.789586 0.000129346 0
0.789524 2.05407e-05 0
0.789516 2.53615e-06 0
0.789516 1.34564e-07 0
0.789516 -9.23242e-08 0
0.789516 -8.98706e-08 0
0.789517 -8.26277e-08 0
0.789517 -8.08312e-08 0
0.789517 -8.10499e-08 0
0.789517 -8.18606e-08 0
0.789517 -8.28912e-08 0
0.789517 -8.4058e-08 0
0.789518 -8.53426e-08 0
0.789518 -8.67402e-08 0
0.789518 -8.82485e-08 0
0.789518 -8.98658e-08 0
0.789518 -9.15899e-08 0
0.789518 -9.34203e-08 0
0.789518 -9.53555e-08 0
0.789518 -9.73935e-08 0
0.789518 -9.95299e-08 0
0.789518 -1.01761e-07 0
0.789518 -1.04084e-07 0
0.789518 -1.06498e-07 0
0.789518 -1.09001e-07 0
0.789518 -1.11589e-07 0
0.789518 -1.14261e-07 0
0.789518 -1.17013e-07 0
0.789518 -1.19843e-07 0
0.789518 -1.22747e-07 0
0.789518 -1.25725e-07 0
0.789518 -1.28777e-07 0
0.789518 -1.31898e-07 0
0.789518 -1.35082e-07 0
0.789518 -1.3832e-07 0
0.789518 -1.41612e-07 0
0.789517 -1.44957e-07 0
0.789517 -1.48352e-07 0
0.789517 -1.51793e-07 0
0.789517 -1.55283e-07 0
0.789517 -1.58818e-07 0
0.789517 -1.6239e-07 0
0.789516 -1.65979e-07 0
0.789516 -1.69656e-07 0
0.789516 -1.73384e-07 0
0.789516 -1.77166e-07 0
0.789515 -1.80979e-07 0
0.789515 -1.84772e-07 0
0.789515 -1.88534e-07 0
0.789515 -1.92294e-07 0
0.789514 -1.96061e-07 0
0.789514 -1.99835e-07 0
0.789514 -2.03611e-07 0
0.789513 -2.07376e-07 0
0.789513 -2.11126e-07 0
0.789513 -2.14859e-07 0
0.789512 -2.18577e-07 0
0.789512 -2.22277e-07 0
0.789511 -2.25957e-07 0
0.789511 -2.29612e-07 0
0.789511 -2.3324e-07 0
0.78951 -2.36836e-07 0
0.78951 -2.40398e-07 0
0.789509 -2.43922e-07 0
0.789509 -2.47404e-07 0
0.789509 -2.50841e-07 0
0.789508 -2.5423e-07 0
0.789508 -2.57568e-07 0
0.789507 -2.6085e-07 0
0.789507 -2.64073e-07 0
0.789506 -2.67235e-07 0
0.789506 -2.70331e-07 0
0.789505 -2.73359e-07 0
0.789505 -2.76317e-07 0
0.789504 -2.792e-07 0
0.789504 -2.82004e-07 0
0.789503 -2.84726e-07 0
0.789503 -2.87364e-07 0
0.789502 -2.89916e-07 0
0.789502 -2.92377e-07 0
0.789501 -2.94746e-07 0
0.7895 -2.97021e-07 0
0.7895 -2.99202e-07 0
0.789499 -3.01303e-07 0
0.789499 -3.03393e-07 0
0.789498 -3.05828e-07 0
0.789498 -3.1037e-07 0
0.789497 -3.25755e-07 0
0.789497 -3.94434e-07 0
0.789498 -7.45427e-07 0
0.789503 -2.17225e-06 0
0.789543 -1.3963e-05 0
0.789609 -2.23412e-05 0
0.791324 -0.000572383 0
0.791324 -0.00113843 0
1 -0.00113843 0
1 -0.0248861 0
1.02744 0.0248861 0
1.03592 0.020218 0
1.03751 0.00890035 0
1.03753 0.00282337 0
1.03743 0.000705647 0
1.03738 0.000144878 0
1.03737 2.47623e-05 0
1.03736 3.40628e-06 0
1.03736 2.79177e-07 0
1.03736 -6.60519e-08 0
1.03736 -8.09752e-08 0
1.03736 -7.50737e-08 0
1.03736 -7.30072e-08 0
1.03736 -7.305e-08 0
1.03736 -7.37975e-08 0
1.03736 -7.48127e-08 0
1.03736 -7.5986e-08 0
1.03736 -7.72916e-08 0
1.03736 -7.87229e-08 0
1.03736 -8.0277e-08 0
1.03736 -8.19518e-08 0
1.03736 -8.37455e-08 0
1.03736 -8.56561e-08 0
1.03736 -8.76817e-08 0
1.03736 -8.98201e-08 0
1.03736 -9.20691e-08 0
1.03736 -9.44255e-08 0
1.03736 -9.68861e-08 0
1.03736 -9.94482e-08 0
1.03736 -1.02109e-07 0
1.03736 -1.04866e-07 0
1.03736 -1.07717e-07 0
1.03736 -1.10658e-07 0
1.03736 -1.13686e-07 0
1.03736 -1.16799e-07 0
1.03736 -1.19993e-07 0
1.03736 -1.23266e-07 0
1.03736 -1.26612e-07 0
1.03736 -1.30029e-07 0
1.03736 -1.33513e-07 0
1.03736 -1.37063e-07 0
1.03736 -1.40674e-07 0
1.03736 -1.44344e-07 0
1.03736 -1.48068e-07 0
1.03736 -1.51843e-07 0
1.03736 -1.55665e-07 0
1.03736 -1.59528e-07 0
1.03736 -1.63439e-07 0
1.03736 -1.67389e-07 0
1.03736 -1.71371e-07 0
1.03736 -1.75379e-07 0
1.03736 -1.79404e-07 0
1.03736 -1.83446e-07 0
1.03736 -1.87508e-07 0
1.03736 -1.9159e-07 0
1.03736 -1.95686e-07 0
1.03736 -1.9979e-07 0
1.03736 -2.03896e-07 0
1.03736 -2.08001e-07 0
1.03735 -2.12103e-07 0
1.03735 -2.16197e-07 0
1.03735 -2.20282e-07 0
1.03735 -2.24351e-07 0
1.03735 -2.28402e-07 0
1.03735 -2.32429e-07 0
1.03735 -2.36431e-07 0
1.03735 -2.40402e-07 0
1.03735 -2.44339e-07 0
1.03735 -2.48238e-07 0
1.03735 -2.52095e-07 0
1.03735 -2.55907e-07 0
1.03735 -2.5967e-07 0
1.03735 -2.6338e-07 0
1.03735 -2.67033e-07 0
1.03735 -2.70625e-07 0
1.03735 -2.74154e-07 0
1.03735 -2.77614e-07 0
1.03735 -2.81004e-07 0
1.03735 -2.84318e-07 0
1.03735 -2.87553e-07 0
1.03735 -2.90707e-07 0
1.03735 -2.93775e-07 0
1.03735 -2.96754e-07 0
1.03735 -2.99641e-07 0
1.03735 -3.02433e-07 0
1.03735 -3.05127e-07 0
1.03734 -3.07721e-07 0
1.03734 -3.10218e-07 0
1.03734 -3.12638e-07 0
1.03734 -3.15092e-07 0
1.03734 -3.18129e-07 0
1.03734 -3.24461e-07 0
1.03734 -3.47494e-07 0
1.03734 -4.53214e-07 0
1.03734 -9.72545e-07 0
1.03735 -3.43442e-06 0
1.03735 -1.723e-05 0
1.03748 -6.38353e-05 0
1.03735 -0.00052948 0
1.03735 -0.00103451 0
1 -0.00103451 0
1 -0.0150708 0
1.02945 0.0150708 0
1.04826 0.0139466 0
1.05503 0.00664409 0
1.0567 0.00226563 0
1.05699 0.000609868 0
1.05702 0.000135726 0
1.05701 2.55095e-05 0
1.05701 4.01675e-06 0
1.05701 4.72271e-07 0
1.05701 -7.17816e-09 0
1.05701 -5.3001e-08 0
1.05701 -5.32761e-08 0
1.05701 -5.24568e-08 0
1.05701 -5.28982e-08 0
1.05701 -5.39297e-08 0
1.05701 -5.5232e-08 0
1.05701 -5.67116e-08 0
1.05701 -5.83442e-08 0
1.05701 -6.01229e-08 0
1.05701 -6.20443e-08 0
1.05701 -6.41058e-08 0
1.05701 -6.63051e-08 0
1.05701 -6.86399e-08 0
1.05701 -7.11076e-08 0
1.05701 -7.37064e-08 0
1.05701 -7.64337e-08 0
1.05701 -7.92851e-08 0
1.05701 -8.22563e-08 0
1.05701 -8.53444e-08 0
1.05701 -8.85463e-08 0
1.05701 -9.18588e-08 0
1.05701 -9.52783e-08 0
1.05701 -9.88015e-08 0
1.05701 -1.02425e-07 0
1.05701 -1.06145e-07 0
1.05701 -1.09958e-07 0
1.05701 -1.1386e-07 0
1.05701 -1.17846e-07 0
1.05701 -1.21911e-07 0
1.05701 -1.26054e-07 0
1.05701 -1.30271e-07 0
1.05701 -1.34559e-07 0
1.05701 -1.38911e-07 0
1.05701 -1.43325e-07 0
1.05701 -1.47795e-07 0
1.05701 -1.52316e-07 0
1.05701 -1.56885e-07 0
1.05701 -1.61504e-07 0
1.05701 -1.6616e-07 0
1.05701 -1.70849e-07 0
1.05701 -1.75563e-07 0
1.05701 -1.80299e-07 0
1.057 -1.85056e-07 0
1.057 -1.89838e-07 0
1.057 -1.9464e-07 0
1.057 -1.99453e-07 0
1.057 -2.04271e-07 0
1.057 -2.09089e-07 0
1.057 -2.13904e-07 0
1.057 -2.18713e-07 0
1.057 -2.23511e-07 0
1.057 -2.28293e-07 0
1.057 -2.33055e-07 0
1.057 -2.37791e-07 0
1.057 -2.42498e-07 0
1.057 -2.4717e-07 0
1.057 -2.51803e-07 0
1.057 -2.56393e-07 0
1.057 -2.60936e-07 0
1.057 -2.65427e-07 0
1.057 -2.69861e-07 0
1.057 -2.74234e-07 0
1.057 -2.78542e-07 0
1.057 -2.8278e-07 0
1.057 -2.86945e-07 0
1.057 -2.91031e-07 0
1.057 -2.95035e-07 0
1.057 -2.98952e-07 0
1.057 -3.02778e-07 0
1.057 -3.06509e-07 0
1.057 -3.10141e-07 0
1.057 -3.1367e-07 0
1.05699 -3.17092e-07 0
1.05699 -3.20404e-07 0
1.05699 -3.23602e-07 0
1.05699 -3.26682e-07 0
1.05699 -3.29643e-07 0
1.05699 -3.32486e-07 0
1.05699 -3.35232e-07 0
1.05699 -3.37988e-07 0
1.05699 -3.41283e-07 0
1.05699 -3.4772e-07 0
1.05699 -3.70127e-07 0
1.05699 -4.71745e-07 0
1.05699 -9.64065e-07 0
1.05699 -3.35677e-06 0
1.05698 -1.52399e-05 0
1.05699 -6.58754e-05 0
1.05647 -0.000356385 0
1.05647 -0.000702807 0
1 -0.000702807 0
1 -0.00707512 0
1.02399 0.00707512 0
1.04465 0.0070573 0
1.05402 0.00352261 0
1.05706 0.00125138 0
1.05784 0.000350515 0
1.058 8.12394e-05 0
1.05803 1.59548e-05 0
1.05804 2.65162e-06 0
1.05804 3.44078e-07 0
1.05804 9.12089e-09 0
1.05804 -2.82479e-08 0
1.05804 -3.04882e-08 0
1.05804 -3.079e-08 0
1.05804 -3.17436e-08 0
1.05804 -3.31197e-08 0
1.05804 -3.47431e-08 0
1.05804 -3.65559e-08 0
1.05804 -3.85412e-08 0
1.05804 -4.06932e-08 0
1.05804 -4.30083e-08 0
1.05804 -4.54837e-08 0
1.05804 -4.81162e-08 0
1.05804 -5.09035e-08 0
1.05804 -5.38424e-08 0
1.05804 -5.69313e-08 0
1.05803 -6.01674e-08 0
1.05803 -6.35447e-08 0
1.05803 -6.70575e-08 0
1.05803 -7.0703e-08 0
1.05803 -7.44774e-08 0
1.05803 -7.83771e-08 0
1.05803 -8.23981e-08 0
1.05803 -8.65364e-08 0
1.05803 -9.07876e-08 0
1.05803 -9.5148e-08 0
1.05803 -9.96134e-08 0
1.05803 -1.04179e-07 0
1.05803 -1.08839e-07 0
1.05803 -1.13589e-07 0
1.05803 -1.18425e-07 0
1.05803 -1.23344e-07 0
1.05803 -1.28341e-07 0
1.05803 -1.33411e-07 0
1.05803 -1.38548e-07 0
1.05803 -1.43747e-07 0
1.05803 -1.49003e-07 0
1.05803 -1.54312e-07 0
1.05803 -1.59672e-07 0
1.05803 -1.65074e-07 0
1.05803 -1.70512e-07 0
1.05803 -1.75982e-07 0
1.05803 -1.81479e-07 0
1.05803 -1.86999e-07 0
1.05803 -1.9254e-07 0
1.05803 -1.98095e-07 0
1.05803 -2.03659e-07 0
1.05803 -2.09225e-07 0
1.05803 -2.14789e-07 0
1.05803 -2.20346e-07 0
1.05803 -2.25893e-07 0
1.05803 -2.31423e-07 0
1.05803 -2.3693e-07 0
1.05803 -2.42411e-07 0
1.05803 -2.47859e-07 0
1.05803 -2.53269e-07 0
1.05803 -2.58636e-07 0
1.05803 -2.63955e-07 0
1.05803 -2.69222e-07 0
1.05802 -2.7443e-07 0
1.05802 -2.79575e-07 0
1.05802 -2.84651e-07 0
1.05802 -2.89654e-07 0
1.05802 -2.94578e-07 0
1.05802 -2.99419e-07 0
1.05802 -3.04172e-07 0
1.05802 -3.08831e-07 0
1.05802 -3.13392e-07 0
1.05802 -3.1785e-07 0
1.05802 -3.222e-07 0
1.05802 -3.26437e-07 0
1.05802 -3.30557e-07 0
1.05802 -3.34556e-07 0
1.05802 -3.38429e-07 0
1.05802 -3.42172e-07 0
1.05802 -3.45781e-07 0
1.05802 -3.49251e-07 0
1.05802 -3.52581e-07 0
1.05802 -3.5577e-07 0
1.05802 -3.5883e-07 0
1.05802 -3.61827e-07 0
1.05802 -3.65085e-07 0
1.05802 -3.70178e-07 0
1.05802 -3.84833e-07 0
1.05802 -4.47126e-07 0
1.05801 -7.44054e-07 0
1.05801 -2.18766e-06 0
1.05799 -9.06531e-06 0
1.05791 -3.96787e-05 0
1.05738 -0.000177624 0
1.05738 -0.000352188 0
1 -0.000352188 0
1 -1.8923e-07 0
1.02122 1.8923e-07 0
1.0424 -1.08035e-07 0
1.05297 -5.0176e-07 0
1.05672 -5.18674e-07 0
1.05777 -3.34152e-07 0
1.05802 -1.66507e-07 0
1.05807 -7.21598e-08 0
1.05807 -3.01951e-08 0
1.05808 -1.40087e-08 0
1.05808 -8.60698e-09 0
1.05808 -7.44279e-09 0
1.05808 -7.89481e-09 0
1.05808 -9.02852e-09 0
1.05808 -1.05211e-08 0
1.05808 -1.22623e-08 0
1.05808 -1.42142e-08 0
1.05808 -1.6363e-08 0
1.05808 -1.87026e-08 0
1.05808 -2.12292e-08 0
1.05807 -2.39395e-08 0
1.05807 -2.683e-08 0
1.05807 -2.98971e-08 0
1.05807 -3.31381e-08 0
1.05807 -3.65494e-08 0
1.05807 -4.01298e-08 0
1.05807 -4.38764e-08 0
1.05807 -4.77813e-08 0
1.05807 -5.18371e-08 0
1.05807 -5.60413e-08 0
1.05807 -6.03898e-08 0
1.05807 -6.48782e-08 0
1.05807 -6.95022e-08 0
1.05807 -7.4257e-08 0
1.05807 -7.91377e-08 0
1.05807 -8.41398e-08 0
1.05807 -8.92592e-08 0
1.05807 -9.44901e-08 0
1.05807 -9.98261e-08 0
1.05807 -1.05262e-07 0
1.05807 -1.10793e-07 0
1.05807 -1.16415e-07 0
1.05807 -1.22124e-07 0
1.05807 -1.27913e-07 0
1.05807 -1.33775e-07 0
1.05807 -1.39705e-07 0
1.05807 -1.45697e-07 0
1.05807 -1.51748e-07 0
1.05807 -1.5785e-07 0
1.05807 -1.63998e-07 0
1.05807 -1.7019e-07 0
1.05807 -1.76418e-07 0
1.05807 -1.82679e-07 0
1.05807 -1.88964e-07 0
1.05807 -1.95265e-07 0
1.05807 -2.01576e-07 0
1.05807 -2.07893e-07 0
1.05807 -2.14209e-07 0
1.05807 -2.2052e-07 0
1.05807 -2.26821e-07 0
1.05807 -2.33106e-07 0
1.05807 -2.39369e-07 0
1.05807 -2.45604e-07 0
1.05807 -2.51804e-07 0
1.05807 -2.57965e-07 0
1.05807 -2.6408e-07 0
1.05807 -2.70143e-07 0
1.05806 -2.76149e-07 0
1.05806 -2.82092e-07 0
1.05806 -2.87967e-07 0
1.05806 -2.93766e-07 0
1.05806 -2.99486e-07 0
1.05806 -3.05119e-07 0
1.05806 -3.10661e-07 0
1.05806 -3.16105e-07 0
1.05806 -3.21446e-07 0
1.05806 -3.26679e-07 0
1.05806 -3.31797e-07 0
1.05806 -3.36796e-07 0
1.05806 -3.41671e-07 0
1.05806 -3.46415e-07 0
1.05806 -3.51024e-07 0
1.05806 -3.55492e-07 0
1.05806 -3.59816e-07 0
1.05806 -3.6399e-07 0
1.05806 -3.68009e-07 0
1.05806 -3.7187e-07 0
1.05806 -3.75568e-07 0
1.05806 -3.79101e-07 0
1.05806 -3.82467e-07 0
1.05806 -3.85669e-07 0
1.05806 -3.88714e-07 0
1.05806 -3.91603e-07 0
1.05805 -3.94272e-07 0
1.05805 -3.96362e-07 0
1.05805 -3.97617e-07 0
1.05805 -3.99167e-07 0
1.05802 -4.00272e-07 0
1.0579 -4.00263e-07 0
1.05737 -3.9756e-07 0
1.05737 -3.905e-07 0
1 -3.905e-07 0
1 0.00707478 0
1.02122 -0.00707478 0
1.0424 -0.00705756 0
1.05297 -0.00352361 0
1.05672 -0.00125239 0
1.05777 -0.000351155 0
1.05802 -8.15557e-05 0
1.05807 -1.60912e-05 0
1.05807 -2.70876e-06 0
1.05808 -3.70861e-07 0
1.05808 -2.58857e-08 0
1.05808 1.35125e-08 0
1.05808 1.47442e-08 0
1.05808 1.27428e-08 0
1.05808 1.06992e-08 0
1.05808 8.58891e-09 0
1.05808 6.30713e-09 0
1.05808 3.82192e-09 0
1.05808 1.12794e-09 0
1.05808 -1.77343e-09 0
1.05807 -4.87887e-09 0
1.05807 -8.18448e-09 0
1.05807 -1.1686e-08 0
1.05807 -1.53808e-08 0
1.05807 -1.9264e-08 0
1.05807 -2.33358e-08 0
1.05807 -2.75934e-08 0
1.05807 -3.2026e-08 0
1.05807 -3.66246e-08 0
1.05807 -4.13874e-08 0
1.05807 -4.63098e-08 0
1.05807 -5.13868e-08 0
1.05807 -5.66136e-08 0
1.05807 -6.19849e-08 0
1.05807 -6.7495e-08 0
1.05807 -7.31387e-08 0
1.05807 -7.89118e-08 0
1.05807 -8.48081e-08 0
1.05807 -9.082e-08 0
1.05807 -9.69412e-08 0
1.05807 -1.03166e-07 0
1.05807 -1.09492e-07 0
1.05807 -1.15912e-07 0
1.05807 -1.2242e-07 0
1.05807 -1.29008e-07 0
1.05807 -1.35668e-07 0
1.05807 -1.42396e-07 0
1.05807 -1.49188e-07 0
1.05807 -1.56032e-07 0
1.05807 -1.62928e-07 0
1.05807 -1.69871e-07 0
1.05807 -1.76859e-07 0
1.05807 -1.83883e-07 0
1.05807 -1.90933e-07 0
1.05807 -1.97994e-07 0
1.05807 -2.05061e-07 0
1.05807 -2.1213e-07 0
1.05807 -2.19196e-07 0
1.05807 -2.26254e-07 0
1.05807 -2.33298e-07 0
1.05807 -2.40322e-07 0
1.05807 -2.47318e-07 0
1.05807 -2.54279e-07 0
1.05807 -2.61199e-07 0
1.05807 -2.68072e-07 0
1.05807 -2.74892e-07 0
1.05807 -2.81651e-07 0
1.05806 -2.88344e-07 0
1.05806 -2.94964e-07 0
1.05806 -3.01504e-07 0
1.05806 -3.07959e-07 0
1.05806 -3.14321e-07 0
1.05806 -3.20585e-07 0
1.05806 -3.26743e-07 0
1.05806 -3.3279e-07 0
1.05806 -3.3872e-07 0
1.05806 -3.44526e-07 0
1.05806 -3.50202e-07 0
1.05806 -3.55742e-07 0
1.05806 -3.6114e-07 0
1.05806 -3.6639e-07 0
1.05806 -3.71488e-07 0
1.05806 -3.76426e-07 0
1.05806 -3.812e-07 0
1.05806 -3.85805e-07 0
1.05806 -3.90235e-07 0
1.05806 -3.94485e-07 0
1.05806 -3.98552e-07 0
1.05806 -4.02428e-07 0
1.05806 -4.06099e-07 0
1.05806 -4.09504e-07 0
1.05806 -4.12335e-07 0
1.05806 -4.13027e-07 0
1.05805 -4.0375e-07 0
1.05805 -3.45668e-07 0
1.05805 -5.11264e-08 0
1.05805 1.3893e-06 0
1.05802 8.26465e-06 0
1.0579 3.8878e-05 0
1.05737 0.000176829 0
1.05737 0.000351407 0
1 0.000351407 0
1 0.0150706 0
1.02399 -0.0150706 0
1.04466 -0.013947 0
1.05402 -0.00664509 0
1.05706 -0.00226655 0
1.05784 -0.000610424 0
1.058 -0.000135993 0
1.05803 -2.56227e-05 0
1.05804 -4.06447e-06 0
1.05804 -4.95509e-07 0
1.05804 -8.31759e-09 0
1.05804 3.86774e-08 0
1.05804 3.76457e-08 0
1.05804 3.44202e-08 0
1.05804 3.18288e-08 0
1.05804 2.93612e-08 0
1.05804 2.67534e-08 0
1.05804 2.39326e-08 0
1.05804 2.08845e-08 0
1.05804 1.76085e-08 0
1.05804 1.4108e-08 0
1.05804 1.03876e-08 0
1.05804 6.45242e-09 0
1.05804 2.30454e-09 0
1.05804 -2.04937e-09 0
1.05804 -6.61135e-09 0
1.05803 -1.13795e-08 0
1.05803 -1.63396e-08 0
1.05803 -2.14795e-08 0
1.05803 -2.68e-08 0
1.05803 -3.22954e-08 0
1.05803 -3.79601e-08 0
1.05803 -4.37886e-08 0
1.05803 -4.97752e-08 0
1.05803 -5.59136e-08 0
1.05803 -6.21974e-08 0
1.05803 -6.86231e-08 0
1.05803 -7.51834e-08 0
1.05803 -8.18699e-08 0
1.05803 -8.86752e-08 0
1.05803 -9.5593e-08 0
1.05803 -1.0262e-07 0
1.05803 -1.09751e-07 0
1.05803 -1.16976e-07 0
1.05803 -1.24287e-07 0
1.05803 -1.31676e-07 0
1.05803 -1.39138e-07 0
1.05803 -1.4667e-07 0
1.05803 -1.54254e-07 0
1.05803 -1.61894e-07 0
1.05803 -1.69587e-07 0
1.05803 -1.77328e-07 0
1.05803 -1.85114e-07 0
1.05803 -1.92926e-07 0
1.05803 -2.00745e-07 0
1.05803 -2.08565e-07 0
1.05803 -2.16384e-07 0
1.05803 -2.24197e-07 0
1.05803 -2.31999e-07 0
1.05803 -2.39785e-07 0
1.05803 -2.47545e-07 0
1.05803 -2.55272e-07 0
1.05803 -2.62958e-07 0
1.05803 -2.70596e-07 0
1.05803 -2.7818e-07 0
1.05803 -2.85702e-07 0
1.05803 -2.93155e-07 0
1.05803 -3.00533e-07 0
1.05803 -3.07827e-07 0
1.05802 -3.15032e-07 0
1.05802 -3.22139e-07 0
1.05802 -3.29142e-07 0
1.05802 -3.36034e-07 0
1.05802 -3.42808e-07 0
1.05802 -3.49456e-07 0
1.05802 -3.55972e-07 0
1.05802 -3.62349e-07 0
1.05802 -3.68581e-07 0
1.05802 -3.7466e-07 0
1.05802 -3.8058e-07 0
1.05802 -3.86336e-07 0
1.05802 -3.9192e-07 0
1.05802 -3.97326e-07 0
1.05802 -4.02549e-07 0
1.05802 -4.07583e-07 0
1.05802 -4.12422e-07 0
1.05802 -4.17061e-07 0
1.05802 -4.21494e-07 0
1.05802 -4.25713e-07 0
1.05802 -4.29694e-07 0
1.05802 -4.33336e-07 0
1.05802 -4.36125e-07 0
1.05802 -4.35492e-07 0
1.05802 -4.18592e-07 0
1.05802 -3.21352e-07 0
1.05801 1.68962e-07 0