# vtk DataFile Version 2.0
FlowField
ASCII
DATASET STRUCTURED_GRID
DIMENSIONS 101 11 1 
POINTS 1111 double
0 0 0
0.3 0 0
0.6 0 0
0.9 0 0
1.2 0 0
1.5 0 0
1.8 0 0
2.1 0 0
2.4 0 0
2.7 0 0
3 0 0
3.3 0 0
3.6 0 0
3.9 0 0
4.2 0 0
4.5 0 0
4.8 0 0
5.1 0 0
5.4 0 0
5.7 0 0
6 0 0
6.3 0 0
6.6 0 0
6.9 0 0
7.2 0 0
7.5 0 0
7.8 0 0
8.1 0 0
8.4 0 0
8.7 0 0
9 0 0
9.3 0 0
9.6 0 0
9.9 0 0
10.2 0 0
10.5 0 0
10.8 0 0
11.1 0 0
11.4 0 0
11.7 0 0
12 0 0
12.3 0 0
12.6 0 0
12.9 0 0
13.2 0 0
13.5 0 0
13.8 0 0
14.1 0 0
14.4 0 0
14.7 0 0
15 0 0
15.3 0 0
15.6 0 0
15.9 0 0
16.2 0 0
16.5 0 0
16.8 0 0
17.1 0 0
17.4 0 0
17.7 0 0
18 0 0
18.3 0 0
18.6 0 0
18.9 0 0
19.2 0 0
19.5 0 0
19.8 0 0
20.1 0 0
20.4 0 0
20.7 0 0
21 0 0
21.3 0 0
21.6 0 0
21.9 0 0
22.2 0 0
22.5 0 0
22.8 0 0
23.1 0 0
23.4 0 0
23.7 0 0
24 0 0
24.3 0 0
24.6 0 0
24.9 0 0
25.2 0 0
25.5 0 0
25.8 0 0
26.1 0 0
26.4 0 0
26.7 0 0
27 0 0
27.3 0 0
27.6 0 0
27.9 0 0
28.2 0 0
28.5 0 0
28.8 0 0
29.1 0 0
29.4 0 0
29.7 0 0
30 0 0
0 0.1 0
0.3 0.1 0
0.6 0.1 0
0.9 0.1 0
1.2 0.1 0
1.5 0.1 0
1.8 0.1 0
2.1 0.1 0
2.4 0.1 0
2.7 0.1 0
3 0.1 0
3.3 0.1 0
3.6 0.1 0
3.9 0.1 0
4.2 0.1 0
4.5 0.1 0
4.8 0.1 0
5.1 0.1 0
5.4 0.1 0
5.7 0.1 0
6 0.1 0
6.3 0.1 0
6.6 0.1 0
6.9 0.1 0
7.2 0.1 0
7.5 0.1 0
7.8 0.1 0
8.1 0.1 0
8.4 0.1 0
8.7 0.1 0
9 0.1 0
9.3 0.1 0
9.6 0.1 0
9.9 0.1 0
10.2 0.1 0
10.5 0.1 0
10.8 0.1 0
11.1 0.1 0
11.4 0.1 0
11.7 0.1 0
12 0.1 0
12.3 0.1 0
12.6 0.1 0
12.9 0.1 0
13.2 0.1 0
13.5 0.1 0
13.8 0.1 0
14.1 0.1 0
14.4 0.1 0
14.7 0.1 0
15 0.1 0
15.3 0.1 0
15.6 0.1 0
15.9 0.1 0
16.2 0.1 0
16.5 0.1 0
16.8 0.1 0
17.1 0.1 0
17.4 0.1 0
17.7 0.1 0
18 0.1 0
18.3 0.1 0
18.6 0.1 0
18.9 0.1 0
19.2 0.1 0
19.5 0.1 0
19.8 0.1 0
20.1 0.1 0
20.4 0.1 0
20.7 0.1 0
21 0.1 0
21.3 0.1 0
21.6 0.1 0
21.9 0.1 0
22.2 0.1 0
22.5 0.1 0
22.8 0.1 0
23.1 0.1 0
23.4 0.1 0
23.7 0.1 0
24 0.1 0
24.3 0.1 0
24.6 0.1 0
24.9 0.1 0
25.2 0.1 0
25.5 0.1 0
25.8 0.1 0
26.1 0.1 0
26.4 0.1 0
26.7 0.1 0
27 0.1 0
27.3 0.1 0
27.6 0.1 0
27.9 0.1 0
28.2 0.1 0
28.5 0.1 0
28.8 0.1 0
29.1 0.1 0
29.4 0.1 0
29.7 0.1 0
30 0.1 0
0 0.2 0
0.3 0.2 0
0.6 0.2 0
0.9 0.2 0
1.2 0.2 0
1.5 0.2 0
1.8 0.2 0
2.1 0.2 0
2.4 0.2 0
2.7 0.2 0
3 0.2 0
3.3 0.2 0
3.6 0.2 0
3.9 0.2 0
4.2 0.2 0
4.5 0.2 0
4.8 0.2 0
5.1 0.2 0
5.4 0.2 0
5.7 0.2 0
6 0.2 0
6.3 0.2 0
6.6 0.2 0
6.9 0.2 0
7.2 0.2 0
7.5 0.2 0
7.8 0.2 0
8.1 0.2 0
8.4 0.2 0
8.7 0.2 0
9 0.2 0
9.3 0.2 0
9.6 0.2 0
9.9 0.2 0
10.2 0.2 0
10.5 0.2 0
10.8 0.2 0
11.1 0.2 0
11.4 0.2 0
11.7 0.2 0
12 0.2 0
12.3 0.2 0
12.6 0.2 0
12.9 0.2 0
13.2 0.2 0
13.5 0.2 0
13.8 0.2 0
14.1 0.2 0
14.4 0.2 0
14.7 0.2 0
15 0.2 0
15.3 0.2 0
15.6 0.2 0
15.9 0.2 0
16.2 0.2 0
16.5 0.2 0
16.8 0.2 0
17.1 0.2 0
17.4 0.2 0
17.7 0.2 0
18 0.2 0
18.3 0.2 0
18.6 0.2 0
18.9 0.2 0
19.2 0.2 0
19.5 0.2 0
19.8 0.2 0
20.1 0.2 0
20.4 0.2 0
20.7 0.2 0
21 0.2 0
21.3 0.2 0
21.6 0.2 0
21.9 0.2 0
22.2 0.2 0
22.5 0.2 0
22.8 0.2 0
23.1 0.2 0
23.4 0.2 0
23.7 0.2 0
24 0.2 0
24.3 0.2 0
24.6 0.2 0
24.9 0.2 0
25.2 0.2 0
25.5 0.2 0
25.8 0.2 0
26.1 0.2 0
26.4 0.2 0
26.7 0.2 0
27 0.2 0
27.3 0.2 0
27.6 0.2 0
27.9 0.2 0
28.2 0.2 0
28.5 0.2 0
28.8 0.2 0
29.1 0.2 0
29.4 0.2 0
29.7 0.2 0
30 0.2 0
0 0.3 0
0.3 0.3 0
0.6 0.3 0
0.9 0.3 0
1.2 0.3 0
1.5 0.3 0
1.8 0.3 0
2.1 0.3 0
2.4 0.3 0
2.7 0.3 0
3 0.3 0
3.3 0.3 0
3.6 0.3 0
3.9 0.3 0
4.2 0.3 0
4.5 0.3 0
4.8 0.3 0
5.1 0.3 0
5.4 0.3 0
5.7 0.3 0
6 0.3 0
6.3 0.3 0
6.6 0.3 0
6.9 0.3 0
7.2 0.3 0
7.5 0.3 0
7.8 0.3 0
8.1 0.3 0
8.4 0.3 0
8.7 0.3 0
9 0.3 0
9.3 0.3 0
9.6 0.3 0
9.9 0.3 0
10.2 0.3 0
10.5 0.3 0
10.8 0.3 0
11.1 0.3 0
11.4 0.3 0
11.7 0.3 0
12 0.3 0
12.3 0.3 0
12.6 0.3 0
12.9 0.3 0
13.2 0.3 0
13.5 0.3 0
13.8 0.3 0
14.1 0.3 0
14.4 0.3 0
14.7 0.3 0
15 0.3 0
15.3 0.3 0
15.6 0.3 0
15.9 0.3 0
16.2 0.3 0
16.5 0.3 0
16.8 0.3 0
17.1 0.3 0
17.4 0.3 0
17.7 0.3 0
18 0.3 0
18.3 0.3 0
18.6 0.3 0
18.9 0.3 0
19.2 0.3 0
19.5 0.3 0
19.8 0.3 0
20.1 0.3 0
20.4 0.3 0
20.7 0.3 0
21 0.3 0
21.3 0.3 0
21.6 0.3 0
21.9 0.3 0
22.2 0.3 0
22.5 0.3 0
22.8 0.3 0
23.1 0.3 0
23.4 0.3 0
23.7 0.3 0
24 0.3 0
24.3 0.3 0
24.6 0.3 0
24.9 0.3 0
25.2 0.3 0
25.5 0.3 0
25.8 0.3 0
26.1 0.3 0
26.4 0.3 0
26.7 0.3 0
27 0.3 0
27.3 0.3 0
27.6 0.3 0
27.9 0.3 0
28.2 0.3 0
28.5 0.3 0
28.8 0.3 0
29.1 0.3 0
29.4 0.3 0
29.7 0.3 0
30 0.3 0
0 0.4 0
0.3 0.4 0
0.6 0.4 0
0.9 0.4 0
1.2 0.4 0
1.5 0.4 0
1.8 0.4 0
2.1 0.4 0
2.4 0.4 0
2.7 0.4 0
3 0.4 0
3.3 0.4 0
3.6 0.4 0
3.9 0.4 0
4.2 0.4 0
4.5 0.4 0
4.8 0.4 0
5.1 0.4 0
5.4 0.4 0
5.7 0.4 0
6 0.4 0
6.3 0.4 0
6.6 0.4 0
6.9 0.4 0
7.2 0.4 0
7.5 0.4 0
7.8 0.4 0
8.1 0.4 0
8.4 0.4 0
8.7 0.4 0
9 0.4 0
9.3 0.4 0
9.6 0.4 0
9.9 0.4 0
10.2 0.4 0
10.5 0.4 0
10.8 0.4 0
11.1 0.4 0
11.4 0.4 0
11.7 0.4 0
12 0.4 0
12.3 0.4 0
12.6 0.4 0
12.9 0.4 0
13.2 0.4 0
13.5 0.4 0
13.8 0.4 0
14.1 0.4 0
14.4 0.4 0
14.7 0.4 0
15 0.4 0
15.3 0.4 0
15.6 0.4 0
15.9 0.4 0
16.2 0.4 0
16.5 0.4 0
16.8 0.4 0
17.1 0.4 0
17.4 0.4 0
17.7 0.4 0
18 0.4 0
18.3 0.4 0
18.6 0.4 0
18.9 0.4 0
19.2 0.4 0
19.5 0.4 0
19.8 0.4 0
20.1 0.4 0
20.4 0.4 0
20.7 0.4 0
21 0.4 0
21.3 0.4 0
21.6 0.4 0
21.9 0.4 0
22.2 0.4 0
22.5 0.4 0
22.8 0.4 0
23.1 0.4 0
23.4 0.4 0
23.7 0.4 0
24 0.4 0
24.3 0.4 0
24.6 0.4 0
24.9 0.4 0
25.2 0.4 0
25.5 0.4 0
25.8 0.4 0
26.1 0.4 0
26.4 0.4 0
26.7 0.4 0
27 0.4 0
27.3 0.4 0
27.6 0.4 0
27.9 0.4 0
28.2 0.4 0
28.5 0.4 0
28.8 0.4 0
29.1 0.4 0
29.4 0.4 0
29.7 0.4 0
30 0.4 0
0 0.5 0
0.3 0.5 0
0.6 0.5 0
0.9 0.5 0
1.2 0.5 0
1.5 0.5 0
1.8 0.5 0
2.1 0.5 0
2.4 0.5 0
2.7 0.5 0
3 0.5 0
3.3 0.5 0
3.6 0.5 0
3.9 0.5 0
4.2 0.5 0
4.5 0.5 0
4.8 0.5 0
5.1 0.5 0
5.4 0.5 0
5.7 0.5 0
6 0.5 0
6.3 0.5 0
6.6 0.5 0
6.9 0.5 0
7.2 0.5 0
7.5 0.5 0
7.8 0.5 0
8.1 0.5 0
8.4 0.5 0
8.7 0.5 0
9 0.5 0
9.3 0.5 0
9.6 0.5 0
9.9 0.5 0
10.2 0.5 0
10.5 0.5 0
10.8 0.5 0
11.1 0.5 0
11.4 0.5 0
11.7 0.5 0
12 0.5 0
12.3 0.5 0
12.6 0.5 0
12.9 0.5 0
13.2 0.5 0
13.5 0.5 0
13.8 0.5 0
14.1 0.5 0
14.4 0.5 0
14.7 0.5 0
15 0.5 0
15.3 0.5 0
15.6 0.5 0
15.9 0.5 0
16.2 0.5 0
16.5 0.5 0
16.8 0.5 0
17.1 0.5 0
17.4 0.5 0
17.7 0.5 0
18 0.5 0
18.3 0.5 0
18.6 0.5 0
18.9 0.5 0
19.2 0.5 0
19.5 0.5 0
19.8 0.5 0
20.1 0.5 0
20.4 0.5 0
20.7 0.5 0
21 0.5 0
21.3 0.5 0
21.6 0.5 0
21.9 0.5 0
22.2 0.5 0
22.5 0.5 0
22.8 0.5 0
23.1 0.5 0
23.4 0.5 0
23.7 0.5 0
24 0.5 0
24.3 0.5 0
24.6 0.5 0
24.9 0.5 0
25.2 0.5 0
25.5 0.5 0
25.8 0.5 0
26.1 0.5 0
26.4 0.5 0
26.7 0.5 0
27 0.5 0
27.3 0.5 0
27.6 0.5 0
27.9 0.5 0
28.2 0.5 0
28.5 0.5 0
28.8 0.5 0
29.1 0.5 0
29.4 0.5 0
29.7 0.5 0
30 0.5 0
0 0.6 0
0.3 0.6 0
0.6 0.6 0
0.9 0.6 0
1.2 0.6 0
1.5 0.6 0
1.8 0.6 0
2.1 0.6 0
2.4 0.6 0
2.7 0.6 0
3 0.6 0
3.3 0.6 0
3.6 0.6 0
3.9 0.6 0
4.2 0.6 0
4.5 0.6 0
4.8 0.6 0
5.1 0.6 0
5.4 0.6 0
5.7 0.6 0
6 0.6 0
6.3 0.6 0
6.6 0.6 0
6.9 0.6 0
7.2 0.6 0
7.5 0.6 0
7.8 0.6 0
8.1 0.6 0
8.4 0.6 0
8.7 0.6 0
9 0.6 0
9.3 0.6 0
9.6 0.6 0
9.9 0.6 0
10.2 0.6 0
10.5 0.6 0
10.8 0.6 0
11.1 0.6 0
11.4 0.6 0
11.7 0.6 0
12 0.6 0
12.3 0.6 0
12.6 0.6 0
12.9 0.6 0
13.2 0.6 0
13.5 0.6 0
13.8 0.6 0
14.1 0.6 0
14.4 0.6 0
14.7 0.6 0
15 0.6 0
15.3 0.6 0
15.6 0.6 0
15.9 0.6 0
16.2 0.6 0
16.5 0.6 0
16.8 0.6 0
17.1 0.6 0
17.4 0.6 0
17.7 0.6 0
18 0.6 0
18.3 0.6 0
18.6 0.6 0
18.9 0.6 0
19.2 0.6 0
19.5 0.6 0
19.8 0.6 0
20.1 0.6 0
20.4 0.6 0
20.7 0.6 0
21 0.6 0
21.3 0.6 0
21.6 0.6 0
21.9 0.6 0
22.2 0.6 0
22.5 0.6 0
22.8 0.6 0
23.1 0.6 0
23.4 0.6 0
23.7 0.6 0
24 0.6 0
24.3 0.6 0
24.6 0.6 0
24.9 0.6 0
25.2 0.6 0
25.5 0.6 0
25.8 0.6 0
26.1 0.6 0
26.4 0.6 0
26.7 0.6 0
27 0.6 0
27.3 0.6 0
27.6 0.6 0
27.9 0.6 0
28.2 0.6 0
28.5 0.6 0
28.8 0.6 0
29.1 0.6 0
29.4 0.6 0
29.7 0.6 0
30 0.6 0
0 0.7 0
0.3 0.7 0
0.6 0.7 0
0.9 0.7 0
1.2 0.7 0
1.5 0.7 0
1.8 0.7 0
2.1 0.7 0
2.4 0.7 0
2.7 0.7 0
3 0.7 0
3.3 0.7 0
3.6 0.7 0
3.9 0.7 0
4.2 0.7 0
4.5 0.7 0
4.8 0.7 0
5.1 0.7 0
5.4 0.7 0
5.7 0.7 0
6 0.7 0
6.3 0.7 0
6.6 0.7 0
6.9 0.7 0
7.2 0.7 0
7.5 0.7 0
7.8 0.7 0
8.1 0.7 0
8.4 0.7 0
8.7 0.7 0
9 0.7 0
9.3 0.7 0
9.6 0.7 0
9.9 0.7 0
10.2 0.7 0
10.5 0.7 0
10.8 0.7 0
11.1 0.7 0
11.4 0.7 0
11.7 0.7 0
12 0.7 0
12.3 0.7 0
12.6 0.7 0
12.9 0.7 0
13.2 0.7 0
13.5 0.7 0
13.8 0.7 0
14.1 0.7 0
14.4 0.7 0
14.7 0.7 0
15 0.7 0
15.3 0.7 0
15.6 0.7 0
15.9 0.7 0
16.2 0.7 0
16.5 0.7 0
16.8 0.7 0
17.1 0.7 0
17.4 0.7 0
17.7 0.7 0
18 0.7 0
18.3 0.7 0
18.6 0.7 0
18.9 0.7 0
19.2 0.7 0
19.5 0.7 0
19.8 0.7 0
20.1 0.7 0
20.4 0.7 0
20.7 0.7 0
21 0.7 0
21.3 0.7 0
21.6 0.7 0
21.9 0.7 0
22.2 0.7 0
22.5 0.7 0
22.8 0.7 0
23.1 0.7 0
23.4 0.7 0
23.7 0.7 0
24 0.7 0
24.3 0.7 0
24.6 0.7 0
24.9 0.7 0
25.2 0.7 0
25.5 0.7 0
25.8 0.7 0
26.1 0.7 0
26.4 0.7 0
26.7 0.7 0
27 0.7 0
27.3 0.7 0
27.6 0.7 0
27.9 0.7 0
28.2 0.7 0
28.5 0.7 0
28.8 0.7 0
29.1 0.7 0
29.4 0.7 0
29.7 0.7 0
30 0.7 0
0 0.8 0
0.3 0.8 0
0.6 0.8 0
0.9 0.8 0
1.2 0.8 0
1.5 0.8 0
1.8 0.8 0
2.1 0.8 0
2.4 0.8 0
2.7 0.8 0
3 0.8 0
3.3 0.8 0
3.6 0.8 0
3.9 0.8 0
4.2 0.8 0
4.5 0.8 0
4.8 0.8 0
5.1 0.8 0
5.4 0.8 0
5.7 0.8 0
6 0.8 0
6.3 0.8 0
6.6 0.8 0
6.9 0.8 0
7.2 0.8 0
7.5 0.8 0
7.8 0.8 0
8.1 0.8 0
8.4 0.8 0
8.7 0.8 0
9 0.8 0
9.3 0.8 0
9.6 0.8 0
9.9 0.8 0
10.2 0.8 0
10.5 0.8 0
10.8 0.8 0
11.1 0.8 0
11.4 0.8 0
11.7 0.8 0
12 0.8 0
12.3 0.8 0
12.6 0.8 0
12.9 0.8 0
13.2 0.8 0
13.5 0.8 0
13.8 0.8 0
14.1 0.8 0
14.4 0.8 0
14.7 0.8 0
15 0.8 0
15.3 0.8 0
15.6 0.8 0
15.9 0.8 0
16.2 0.8 0
16.5 0.8 0
16.8 0.8 0
17.1 0.8 0
17.4 0.8 0
17.7 0.8 0
18 0.8 0
18.3 0.8 0
18.6 0.8 0
18.9 0.8 0
19.2 0.8 0
19.5 0.8 0
19.8 0.8 0
20.1 0.8 0
20.4 0.8 0
20.7 0.8 0
21 0.8 0
21.3 0.8 0
21.6 0.8 0
21.9 0.8 0
22.2 0.8 0
22.5 0.8 0
22.8 0.8 0
23.1 0.8 0
23.4 0.8 0
23.7 0.8 0
24 0.8 0
24.3 0.8 0
24.6 0.8 0
24.9 0.8 0
25.2 0.8 0
25.5 0.8 0
25.8 0.8 0
26.1 0.8 0
26.4 0.8 0
26.7 0.8 0
27 0.8 0
27.3 0.8 0
27.6 0.8 0
27.9 0.8 0
28.2 0.8 0
28.5 0.8 0
28.8 0.8 0
29.1 0.8 0
29.4 0.8 0
29.7 0.8 0
30 0.8 0
0 0.9 0
0.3 0.9 0
0.6 0.9 0
0.9 0.9 0
1.2 0.9 0
1.5 0.9 0
1.8 0.9 0
2.1 0.9 0
2.4 0.9 0
2.7 0.9 0
3 0.9 0
3.3 0.9 0
3.6 0.9 0
3.9 0.9 0
4.2 0.9 0
4.5 0.9 0
4.8 0.9 0
5.1 0.9 0
5.4 0.9 0
5.7 0.9 0
6 0.9 0
6.3 0.9 0
6.6 0.9 0
6.9 0.9 0
7.2 0.9 0
7.5 0.9 0
7.8 0.9 0
8.1 0.9 0
8.4 0.9 0
8.7 0.9 0
9 0.9 0
9.3 0.9 0
9.6 0.9 0
9.9 0.9 0
10.2 0.9 0
10.5 0.9 0
10.8 0.9 0
11.1 0.9 0
11.4 0.9 0
11.7 0.9 0
12 0.9 0
12.3 0.9 0
12.6 0.9 0
12.9 0.9 0
13.2 0.9 0
13.5 0.9 0
13.8 0.9 0
14.1 0.9 0
14.4 0.9 0
14.7 0.9 0
15 0.9 0
15.3 0.9 0
15.6 0.9 0
15.9 0.9 0
16.2 0.9 0
16.5 0.9 0
16.8 0.9 0
17.1 0.9 0
17.4 0.9 0
17.7 0.9 0
18 0.9 0
18.3 0.9 0
18.6 0.9 0
18.9 0.9 0
19.2 0.9 0
19.5 0.9 0
19.8 0.9 0
20.1 0.9 0
20.4 0.9 0
20.7 0.9 0
21 0.9 0
21.3 0.9 0
21.6 0.9 0
21.9 0.9 0
22.2 0.9 0
22.5 0.9 0
22.8 0.9 0
23.1 0.9 0
23.4 0.9 0
23.7 0.9 0
24 0.9 0
24.3 0.9 0
24.6 0.9 0
24.9 0.9 0
25.2 0.9 0
25.5 0.9 0
25.8 0.9 0
26.1 0.9 0
26.4 0.9 0
26.7 0.9 0
27 0.9 0
27.3 0.9 0
27.6 0.9 0
27.9 0.9 0
28.2 0.9 0
28.5 0.9 0
28.8 0.9 0
29.1 0.9 0
29.4 0.9 0
29.7 0.9 0
30 0.9 0
0 1 0
0.3 1 0
0.6 1 0
0.9 1 0
1.2 1 0
1.5 1 0
1.8 1 0
2.1 1 0
2.4 1 0
2.7 1 0
3 1 0
3.3 1 0
3.6 1 0
3.9 1 0
4.2 1 0
4.5 1 0
4.8 1 0
5.1 1 0
5.4 1 0
5.7 1 0
6 1 0
6.3 1 0
6.6 1 0
6.9 1 0
7.2 1 0
7.5 1 0
7.8 1 0
8.1 1 0
8.4 1 0
8.7 1 0
9 1 0
9.3 1 0
9.6 1 0
9.9 1 0
10.2 1 0
10.5 1 0
10.8 1 0
11.1 1 0
11.4 1 0
11.7 1 0
12 1 0
12.3 1 0
12.6 1 0
12.9 1 0
13.2 1 0
13.5 1 0
13.8 1 0
14.1 1 0
14.4 1 0
14.7 1 0
15 1 0
15.3 1 0
15.6 1 0
15.9 1 0
16.2 1 0
16.5 1 0
16.8 1 0
17.1 1 0
17.4 1 0
17.7 1 0
18 1 0
18.3 1 0
18.6 1 0
18.9 1 0
19.2 1 0
19.5 1 0
19.8 1 0
20.1 1 0
20.4 1 0
20.7 1 0
21 1 0
21.3 1 0
21.6 1 0
21.9 1 0
22.2 1 0
22.5 1 0
22.8 1 0
23.1 1 0
23.4 1 0
23.7 1 0
24 1 0
24.3 1 0
24.6 1 0
24.9 1 0
25.2 1 0
25.5 1 0
25.8 1 0
26.1 1 0
26.4 1 0
26.7 1 0
27 1 0
27.3 1 0
27.6 1 0
27.9 1 0
28.2 1 0
28.5 1 0
28.8 1 0
29.1 1 0
29.4 1 0
29.7 1 0
30 1 0

POINT_DATA 1111

SCALARS v double
LOOKUP_TABLE default
0
0
0
0
0
0
0
0
0
0
0
0
0
0
0
0
0
0
0
0
0
0
0
0
0
0
0
0
0
0
0
0
0
0
0
0
0
0
0
0
0
0
0
0
0
0
0
0
0
0
0
0
0
0
0
0
0
0
0
0
0
0
0
0
0
0
0
0
0
0
0
0
0
0
0
0
0
0
0
0
0
0
0
0
0
0
0
0
0
0
0
0
0
0
0
0
0
0
0
0
0
-0.0359734
0.0359734
0.036776
0.0310536
0.0246992
0.0182835
0.0121987
0.00716633
0.00366383
0.00161631
0.000604404
0.000182105
3.65079e-05
-2.52083e-06
-6.21193e-06
-3.35272e-06
-1.32352e-06
-4.41494e-07
-1.26204e-07
-2.61733e-08
2.44153e-09
1.09303e-08
1.2998e-08
1.29309e-08
1.22458e-08
1.13871e-08
1.04628e-08
9.4976e-09
8.4977e-09
7.46445e-09
6.39917e-09
5.30263e-09
4.17663e-09
3.02238e-09
1.84126e-09
6.36022e-10
-5.6829e-10
-1.7741e-09
-2.99702e-09
-4.23693e-09
-5.49271e-09
-6.76317e-09
-8.04702e-09
-9.34311e-09
-1.06504e-08
-1.19678e-08
-1.32938e-08
-1.4627e-08
-1.59656e-08
-1.73087e-08
-1.86564e-08
-2.00088e-08
-2.13658e-08
-2.27256e-08
-2.40842e-08
-2.54368e-08
-2.678e-08
-2.81131e-08
-2.94363e-08
-3.07501e-08
-3.20541e-08
-3.33469e-08
-3.4627e-08
-3.58928e-08
-3.71429e-08
-3.83764e-08
-3.95918e-08
-4.07879e-08
-4.19634e-08
-4.31168e-08
-4.4247e-08
-4.53525e-08
-4.64323e-08
-4.7485e-08
-4.85093e-08
-4.95042e-08
-5.04685e-08
-5.14009e-08
-5.23006e-08
-5.31663e-08
-5.39971e-08
-5.47922e-08
-5.55508e-08
-5.62728e-08
-5.69585e-08
-5.76104e-08
-5.82356e-08
-5.88525e-08
-5.95258e-08
-6.03885e-08
-6.26049e-08
-6.61436e-08
-1.02092e-07
-1.18124e-07
-8.80541e-07
-7.41022e-07
-1.43204e-05
-1.43239e-05
-0.000200539
-0.000260599
-0.000260599
-0.0259492
0.0259492
0.0339025
0.0320612
0.0274631
0.0213658
0.0147059
0.00876856
0.00445416
0.00187504
0.000604859
0.000100468
-4.40373e-05
-5.31923e-05
-3.26133e-05
-1.56265e-05
-6.47032e-06
-2.41204e-06
-8.24455e-07
-2.59084e-07
-7.26974e-08
-1.56603e-08
1.79393e-10
3.94682e-09
4.41244e-09
3.97531e-09
3.28866e-09
2.52032e-09
1.71029e-09
8.6726e-10
-3.90177e-12
-8.95999e-10
-1.8124e-09
-2.75224e-09
-3.71369e-09
-4.69532e-09
-5.69957e-09
-6.72526e-09
-7.76823e-09
-8.82702e-09
-9.90048e-09
-1.09874e-08
-1.20868e-08
-1.31976e-08
-1.43193e-08
-1.5451e-08
-1.65915e-08
-1.77389e-08
-1.88915e-08
-2.00485e-08
-2.12104e-08
-2.23776e-08
-2.35498e-08
-2.47246e-08
-2.58968e-08
-2.70604e-08
-2.82124e-08
-2.93536e-08
-3.04863e-08
-3.16127e-08
-3.27336e-08
-3.38477e-08
-3.49528e-08
-3.60474e-08
-3.71303e-08
-3.82006e-08
-3.92573e-08
-4.02991e-08
-4.13246e-08
-4.23324e-08
-4.33211e-08
-4.42896e-08
-4.52367e-08
-4.61613e-08
-4.70623e-08
-4.79387e-08
-4.87895e-08
-4.96137e-08
-5.04103e-08
-5.11785e-08
-5.19174e-08
-5.26264e-08
-5.33052e-08
-5.39539e-08
-5.45744e-08
-5.51712e-08
-5.57569e-08
-5.63609e-08
-5.70889e-08
-5.80847e-08
-6.12851e-08
-6.467e-08
-1.1995e-07
-1.09556e-07
-1.25731e-06
-5.43139e-07
-2.07146e-05
-1.17504e-05
-0.000315617
-0.000405093
-0.000405093
-0.0141905
0.0141905
0.0209756
0.0210083
0.0186997
0.0149281
0.0104471
0.00629675
0.00321982
0.0013573
0.000432503
6.5532e-05
-3.70624e-05
-4.28938e-05
-2.68602e-05
-1.3282e-05
-5.68999e-06
-2.1929e-06
-7.71786e-07
-2.46602e-07
-6.72355e-08
-1.0481e-08
5.93958e-09
1.00716e-08
1.06491e-08
1.02511e-08
9.58447e-09
8.83096e-09
8.03299e-09
7.19903e-09
6.33072e-09
5.4284e-09
4.49503e-09
3.53319e-09
2.54535e-09
1.53323e-09
4.96439e-10
-5.60923e-10
-1.63563e-09
-2.7272e-09
-3.83421e-09
-4.95527e-09
-6.08918e-09
-7.23511e-09
-8.39255e-09
-9.56072e-09
-1.07381e-08
-1.19228e-08
-1.31129e-08
-1.43074e-08
-1.55062e-08
-1.67088e-08
-1.79139e-08
-1.91191e-08
-2.03205e-08
-2.1514e-08
-2.26979e-08
-2.38735e-08
-2.50419e-08
-2.62045e-08
-2.73611e-08
-2.85102e-08
-2.96501e-08
-3.07794e-08
-3.18973e-08
-3.30031e-08
-3.40957e-08
-3.51738e-08
-3.62355e-08
-3.72794e-08
-3.83041e-08
-3.93083e-08
-4.02908e-08
-4.12507e-08
-4.21868e-08
-4.3098e-08
-4.39833e-08
-4.48417e-08
-4.56723e-08
-4.64741e-08
-4.72463e-08
-4.79884e-08
-4.87e-08
-4.93816e-08
-5.00354e-08
-5.06671e-08
-5.12914e-08
-5.19411e-08
-5.27208e-08
-5.37711e-08
-5.67067e-08
-5.97811e-08
-1.03311e-07
-9.8075e-08
-9.67517e-07
-5.37807e-07
-1.55193e-05
-1.1414e-05
-0.000238267
-0.0003132
-0.0003132
-0.00446746
0.00446746
0.00694769
0.0071143
0.00643279
0.00519795
0.00367472
0.00223832
0.00116075
0.000500884
0.000168098
3.26242e-05
-7.80851e-06
-1.26331e-05
-8.44022e-06
-4.29672e-06
-1.86595e-06
-7.16409e-07
-2.40892e-07
-6.29e-08
-1.63908e-09
1.76545e-08
2.29183e-08
2.38025e-08
2.34255e-08
2.27019e-08
2.18727e-08
2.09946e-08
2.00772e-08
1.91201e-08
1.81218e-08
1.70826e-08
1.60053e-08
1.48934e-08
1.37503e-08
1.25785e-08
1.13788e-08
1.01532e-08
8.90506e-09
7.63703e-09
6.35119e-09
5.04933e-09
3.73286e-09
2.4027e-09
1.05947e-09
-2.9556e-10
-1.66028e-09
-3.03279e-09
-4.41127e-09
-5.79453e-09
-7.18131e-09
-8.56957e-09
-9.95679e-09
-1.13412e-08
-1.27219e-08
-1.40985e-08
-1.5471e-08
-1.68403e-08
-1.82039e-08
-1.95596e-08
-2.09052e-08
-2.22387e-08
-2.35587e-08
-2.48647e-08
-2.61568e-08
-2.74345e-08
-2.86964e-08
-2.99408e-08
-3.11657e-08
-3.23695e-08
-3.35507e-08
-3.47081e-08
-3.58403e-08
-3.69464e-08
-3.8025e-08
-3.9075e-08
-4.00953e-08
-4.10846e-08
-4.2042e-08
-4.29664e-08
-4.38568e-08
-4.47126e-08
-4.55333e-08
-4.63195e-08
-4.70733e-08
-4.78008e-08
-4.85164e-08
-4.92513e-08
-5.00882e-08
-5.11338e-08
-5.31908e-08
-5.53965e-08
-7.23231e-08
-7.42613e-08
-3.794e-07
-2.84425e-07
-5.51882e-06
-5.19397e-06
-8.40025e-05
-0.000112563
-0.000112563
0.00446739
-0.00446739
-0.00694756
-0.00711418
-0.00643274
-0.005198
-0.00367485
-0.00223846
-0.00116086
-0.000500964
-0.000168146
-3.26433e-05
7.81477e-06
1.26544e-05
8.47373e-06
4.34327e-06
1.92341e-06
7.80582e-07
3.07973e-07
1.30561e-07
6.88378e-08
4.84035e-08
4.15755e-08
3.89346e-08
3.75134e-08
3.64196e-08
3.53922e-08
3.43552e-08
3.32842e-08
3.21693e-08
3.10064e-08
2.97952e-08
2.85384e-08
2.72404e-08
2.59052e-08
2.45362e-08
2.31354e-08
2.1705e-08
2.02486e-08
1.87692e-08
1.72695e-08
1.57518e-08
1.42178e-08
1.26685e-08
1.11047e-08
9.52753e-09
7.93907e-09
6.34217e-09
4.73877e-09
3.13021e-09
1.51887e-09
-9.17631e-11
-1.69849e-09
-3.29967e-09
-4.89775e-09
-6.49609e-09
-8.09693e-09
-9.70085e-09
-1.13003e-08
-1.28893e-08
-1.4463e-08
-1.60185e-08
-1.75553e-08
-1.90739e-08
-2.05751e-08
-2.20586e-08
-2.35229e-08
-2.49659e-08
-2.63853e-08
-2.77794e-08
-2.91466e-08
-3.04856e-08
-3.17952e-08
-3.30741e-08
-3.43211e-08
-3.55348e-08
-3.67139e-08
-3.7857e-08
-3.8963e-08
-4.00307e-08
-4.10589e-08
-4.20467e-08
-4.29938e-08
-4.39003e-08
-4.47684e-08
-4.56034e-08
-4.64187e-08
-4.72395e-08
-4.8125e-08
-4.91032e-08
-5.01821e-08
-5.09391e-08
-3.84858e-08
-3.97518e-08
2.70279e-07
1.85128e-07
5.42892e-06
5.10813e-06
8.39189e-05
0.000112456
0.000112456
0.0141904
-0.0141904
-0.0209754
-0.0210082
-0.0186997
-0.0149282
-0.0104472
-0.00629692
-0.00321995
-0.00135738
-0.000432532
-6.55256e-05
3.7094e-05
4.29341e-05
2.69058e-05
1.33356e-05
5.75125e-06
2.25883e-06
8.39478e-07
3.143e-07
1.34267e-07
7.61978e-08
5.80805e-08
5.21911e-08
4.98174e-08
4.83857e-08
4.71747e-08
4.59897e-08
4.47769e-08
4.35188e-08
4.22092e-08
4.08473e-08
3.94358e-08
3.79792e-08
3.6482e-08
3.49479e-08
3.33793e-08
3.17789e-08
3.015e-08
2.8496e-08
2.682e-08
2.51246e-08
2.34116e-08
2.16823e-08
1.99376e-08
1.81788e-08
1.64083e-08
1.46292e-08
1.28435e-08
1.10524e-08
9.25927e-09
7.4693e-09
5.68755e-09
3.9149e-09
2.1461e-09
3.74354e-10
-1.40978e-09
-3.2048e-09
-4.99668e-09
-6.77623e-09
-8.53674e-09
-1.02745e-08
-1.19893e-08
-1.36825e-08
-1.53553e-08
-1.70076e-08
-1.86376e-08
-2.02429e-08
-2.18211e-08
-2.33702e-08
-2.48886e-08
-2.6375e-08
-2.78282e-08
-2.92468e-08
-3.06293e-08
-3.19744e-08
-3.32805e-08
-3.45463e-08
-3.57703e-08
-3.69512e-08
-3.80878e-08
-3.91791e-08
-4.02244e-08
-4.12237e-08
-4.21786e-08
-4.30937e-08
-4.39799e-08
-4.48546e-08
-4.57589e-08
-4.6638e-08
-4.68715e-08
-4.68862e-08
-8.20021e-09
-1.77215e-08
8.5649e-07
4.36662e-07
1.54274e-05
1.13261e-05
0.000238182
0.000313093
0.000313093
0.0259491
-0.0259491
-0.0339024
-0.0320611
-0.027463
-0.0213659
-0.014706
-0.00876872
-0.00445427
-0.00187509
-0.000604853
-0.000100422
4.41068e-05
5.32602e-05
3.26757e-05
1.56897e-05
6.53636e-06
2.47984e-06
8.9237e-07
3.26111e-07
1.38711e-07
8.02645e-08
6.25687e-08
5.69096e-08
5.45831e-08
5.31125e-08
5.18319e-08
5.057e-08
4.92816e-08
4.79528e-08
4.65788e-08
4.51591e-08
4.36959e-08
4.21929e-08
4.06538e-08
3.90815e-08
3.74779e-08
3.58452e-08
3.41861e-08
3.25034e-08
3.08001e-08
2.90784e-08
2.73402e-08
2.55868e-08
2.38191e-08
2.20383e-08
2.02468e-08
1.84475e-08
1.6642e-08
1.48315e-08
1.3019e-08
1.12103e-08
9.41098e-09
7.6227e-09
5.84036e-09
4.06014e-09
2.27753e-09
4.85095e-10
-1.32607e-09
-3.13513e-09
-4.92641e-09
-6.69527e-09
-8.44095e-09
-1.01644e-08
-1.18664e-08
-1.35465e-08
-1.5203e-08
-1.68334e-08
-1.84353e-08
-2.00067e-08
-2.1546e-08
-2.30519e-08
-2.45228e-08
-2.59576e-08
-2.73545e-08
-2.87123e-08
-3.00293e-08
-3.13041e-08
-3.25353e-08
-3.37216e-08
-3.48617e-08
-3.59544e-08
-3.69991e-08
-3.79952e-08
-3.89439e-08
-3.9848e-08
-4.07158e-08
-4.15552e-08
-4.23975e-08
-4.31548e-08
-4.28628e-08
-4.36637e-08
6.40751e-09
-1.06874e-08
1.14069e-06
4.35573e-07
2.06155e-05
1.1655e-05
0.000315524
0.000404985
0.000404985
0.0359733
-0.0359733
-0.0367758
-0.0310535
-0.0246991
-0.0182835
-0.0121988
-0.00716639
-0.00366385
-0.00161629
-0.000604349
-0.000182034
-3.64224e-05
2.62117e-06
6.29232e-06
3.4249e-06
1.39343e-06
5.10299e-07
1.93747e-07
9.16938e-08
6.06329e-08
5.11423e-08
4.77984e-08
4.61046e-08
4.48194e-08
4.36157e-08
4.24108e-08
4.11847e-08
3.99319e-08
3.86506e-08
3.73404e-08
3.60022e-08
3.46376e-08
3.32485e-08
3.18369e-08
3.04042e-08
2.89515e-08
2.748e-08
2.59912e-08
2.44869e-08
2.29687e-08
2.14381e-08
1.98963e-08
1.83445e-08
1.67834e-08
1.52141e-08
1.36379e-08
1.20571e-08
1.04726e-08
8.88478e-09
7.29593e-09
5.70947e-09
4.12898e-09
2.55699e-09
9.91522e-10
-6.03474e-10
-2.23674e-09
-3.87317e-09
-5.50429e-09
-7.12617e-09
-8.73481e-09
-1.0327e-08
-1.1901e-08
-1.34559e-08
-1.4991e-08
-1.65052e-08
-1.79968e-08
-1.94639e-08
-2.09044e-08
-2.23167e-08
-2.36991e-08
-2.50503e-08
-2.63686e-08
-2.76528e-08
-2.89013e-08
-3.01128e-08
-3.12858e-08
-3.24191e-08
-3.35114e-08
-3.45613e-08
-3.55677e-08
-3.65296e-08
-3.74459e-08
-3.83162e-08
-3.91403e-08
-3.99194e-08
-4.06563e-08
-4.13587e-08
-4.20098e-08
-4.27298e-08
-4.21377e-08
-4.46434e-08
-1.22297e-08
-8.60105e-09
7.55537e-07
6.22805e-07
1.42084e-05
1.42155e-05
0.000200431
0.000260489
0.000260489
0
0
0
0
0
0
0
0
0
0
0
0
0
0
0
0
0
0
0
0
0
0
0
0
0
0
0
0
0
0
0
0
0
0
0
0
0
0
0
0
0
0
0
0
0
0
0
0
0
0
0
0
0
0
0
0
0
0
0
0
0
0
0
0
0
0
0
0
0
0
0
0
0
0
0
0
0
0
0
0
0
0
0
0
0
0
0
0
0
0
0
0
0
0
0
0
0
0
0
0
0
0
0
0
0
0
0
0
0
0
0
0
0
0
0
0
0
0
0
0
0
0
0
0
0
0
0
0
0
0
0
0
0
0
0
0
0
0
0
0
0
0
0
0
0
0
0
0
0
0
0
0
0
0
0
0
0
0
0
0
0
0
0
0
0
0
0
0
0
0
0
0
0
0
0
0
0
0
0
0
0
0
0
0
0
0
0
0
0
0
0
0
0
0
0
0
0
0
0
0
0
0
