# vtk DataFile Version 2.0
FlowField
ASCII
DATASET STRUCTURED_GRID
DIMENSIONS 102 13 1 
POINTS 1326 double
0 0 0
0.3 0 0
0.6 0 0
0.9 0 0
1.2 0 0
1.5 0 0
1.8 0 0
2.1 0 0
2.4 0 0
2.7 0 0
3 0 0
3.3 0 0
3.6 0 0
3.9 0 0
4.2 0 0
4.5 0 0
4.8 0 0
5.1 0 0
5.4 0 0
5.7 0 0
6 0 0
6.3 0 0
6.6 0 0
6.9 0 0
7.2 0 0
7.5 0 0
7.8 0 0
8.1 0 0
8.4 0 0
8.7 0 0
9 0 0
9.3 0 0
9.6 0 0
9.9 0 0
10.2 0 0
10.5 0 0
10.8 0 0
11.1 0 0
11.4 0 0
11.7 0 0
12 0 0
12.3 0 0
12.6 0 0
12.9 0 0
13.2 0 0
13.5 0 0
13.8 0 0
14.1 0 0
14.4 0 0
14.7 0 0
15 0 0
15.3 0 0
15.6 0 0
15.9 0 0
16.2 0 0
16.5 0 0
16.8 0 0
17.1 0 0
17.4 0 0
17.7 0 0
18 0 0
18.3 0 0
18.6 0 0
18.9 0 0
19.2 0 0
19.5 0 0
19.8 0 0
20.1 0 0
20.4 0 0
20.7 0 0
21 0 0
21.3 0 0
21.6 0 0
21.9 0 0
22.2 0 0
22.5 0 0
22.8 0 0
23.1 0 0
23.4 0 0
23.7 0 0
24 0 0
24.3 0 0
24.6 0 0
24.9 0 0
25.2 0 0
25.5 0 0
25.8 0 0
26.1 0 0
26.4 0 0
26.7 0 0
27 0 0
27.3 0 0
27.6 0 0
27.9 0 0
28.2 0 0
28.5 0 0
28.8 0 0
29.1 0 0
29.4 0 0
29.7 0 0
30 0 0
30.3 0 0
0 0.1 0
0.3 0.1 0
0.6 0.1 0
0.9 0.1 0
1.2 0.1 0
1.5 0.1 0
1.8 0.1 0
2.1 0.1 0
2.4 0.1 0
2.7 0.1 0
3 0.1 0
3.3 0.1 0
3.6 0.1 0
3.9 0.1 0
4.2 0.1 0
4.5 0.1 0
4.8 0.1 0
5.1 0.1 0
5.4 0.1 0
5.7 0.1 0
6 0.1 0
6.3 0.1 0
6.6 0.1 0
6.9 0.1 0
7.2 0.1 0
7.5 0.1 0
7.8 0.1 0
8.1 0.1 0
8.4 0.1 0
8.7 0.1 0
9 0.1 0
9.3 0.1 0
9.6 0.1 0
9.9 0.1 0
10.2 0.1 0
10.5 0.1 0
10.8 0.1 0
11.1 0.1 0
11.4 0.1 0
11.7 0.1 0
12 0.1 0
12.3 0.1 0
12.6 0.1 0
12.9 0.1 0
13.2 0.1 0
13.5 0.1 0
13.8 0.1 0
14.1 0.1 0
14.4 0.1 0
14.7 0.1 0
15 0.1 0
15.3 0.1 0
15.6 0.1 0
15.9 0.1 0
16.2 0.1 0
16.5 0.1 0
16.8 0.1 0
17.1 0.1 0
17.4 0.1 0
17.7 0.1 0
18 0.1 0
18.3 0.1 0
18.6 0.1 0
18.9 0.1 0
19.2 0.1 0
19.5 0.1 0
19.8 0.1 0
20.1 0.1 0
20.4 0.1 0
20.7 0.1 0
21 0.1 0
21.3 0.1 0
21.6 0.1 0
21.9 0.1 0
22.2 0.1 0
22.5 0.1 0
22.8 0.1 0
23.1 0.1 0
23.4 0.1 0
23.7 0.1 0
24 0.1 0
24.3 0.1 0
24.6 0.1 0
24.9 0.1 0
25.2 0.1 0
25.5 0.1 0
25.8 0.1 0
26.1 0.1 0
26.4 0.1 0
26.7 0.1 0
27 0.1 0
27.3 0.1 0
27.6 0.1 0
27.9 0.1 0
28.2 0.1 0
28.5 0.1 0
28.8 0.1 0
29.1 0.1 0
29.4 0.1 0
29.7 0.1 0
30 0.1 0
30.3 0.1 0
0 0.2 0
0.3 0.2 0
0.6 0.2 0
0.9 0.2 0
1.2 0.2 0
1.5 0.2 0
1.8 0.2 0
2.1 0.2 0
2.4 0.2 0
2.7 0.2 0
3 0.2 0
3.3 0.2 0
3.6 0.2 0
3.9 0.2 0
4.2 0.2 0
4.5 0.2 0
4.8 0.2 0
5.1 0.2 0
5.4 0.2 0
5.7 0.2 0
6 0.2 0
6.3 0.2 0
6.6 0.2 0
6.9 0.2 0
7.2 0.2 0
7.5 0.2 0
7.8 0.2 0
8.1 0.2 0
8.4 0.2 0
8.7 0.2 0
9 0.2 0
9.3 0.2 0
9.6 0.2 0
9.9 0.2 0
10.2 0.2 0
10.5 0.2 0
10.8 0.2 0
11.1 0.2 0
11.4 0.2 0
11.7 0.2 0
12 0.2 0
12.3 0.2 0
12.6 0.2 0
12.9 0.2 0
13.2 0.2 0
13.5 0.2 0
13.8 0.2 0
14.1 0.2 0
14.4 0.2 0
14.7 0.2 0
15 0.2 0
15.3 0.2 0
15.6 0.2 0
15.9 0.2 0
16.2 0.2 0
16.5 0.2 0
16.8 0.2 0
17.1 0.2 0
17.4 0.2 0
17.7 0.2 0
18 0.2 0
18.3 0.2 0
18.6 0.2 0
18.9 0.2 0
19.2 0.2 0
19.5 0.2 0
19.8 0.2 0
20.1 0.2 0
20.4 0.2 0
20.7 0.2 0
21 0.2 0
21.3 0.2 0
21.6 0.2 0
21.9 0.2 0
22.2 0.2 0
22.5 0.2 0
22.8 0.2 0
23.1 0.2 0
23.4 0.2 0
23.7 0.2 0
24 0.2 0
24.3 0.2 0
24.6 0.2 0
24.9 0.2 0
25.2 0.2 0
25.5 0.2 0
25.8 0.2 0
26.1 0.2 0
26.4 0.2 0
26.7 0.2 0
27 0.2 0
27.3 0.2 0
27.6 0.2 0
27.9 0.2 0
28.2 0.2 0
28.5 0.2 0
28.8 0.2 0
29.1 0.2 0
29.4 0.2 0
29.7 0.2 0
30 0.2 0
30.3 0.2 0
0 0.3 0
0.3 0.3 0
0.6 0.3 0
0.9 0.3 0
1.2 0.3 0
1.5 0.3 0
1.8 0.3 0
2.1 0.3 0
2.4 0.3 0
2.7 0.3 0
3 0.3 0
3.3 0.3 0
3.6 0.3 0
3.9 0.3 0
4.2 0.3 0
4.5 0.3 0
4.8 0.3 0
5.1 0.3 0
5.4 0.3 0
5.7 0.3 0
6 0.3 0
6.3 0.3 0
6.6 0.3 0
6.9 0.3 0
7.2 0.3 0
7.5 0.3 0
7.8 0.3 0
8.1 0.3 0
8.4 0.3 0
8.7 0.3 0
9 0.3 0
9.3 0.3 0
9.6 0.3 0
9.9 0.3 0
10.2 0.3 0
10.5 0.3 0
10.8 0.3 0
11.1 0.3 0
11.4 0.3 0
11.7 0.3 0
12 0.3 0
12.3 0.3 0
12.6 0.3 0
12.9 0.3 0
13.2 0.3 0
13.5 0.3 0
13.8 0.3 0
14.1 0.3 0
14.4 0.3 0
14.7 0.3 0
15 0.3 0
15.3 0.3 0
15.6 0.3 0
15.9 0.3 0
16.2 0.3 0
16.5 0.3 0
16.8 0.3 0
17.1 0.3 0
17.4 0.3 0
17.7 0.3 0
18 0.3 0
18.3 0.3 0
18.6 0.3 0
18.9 0.3 0
19.2 0.3 0
19.5 0.3 0
19.8 0.3 0
20.1 0.3 0
20.4 0.3 0
20.7 0.3 0
21 0.3 0
21.3 0.3 0
21.6 0.3 0
21.9 0.3 0
22.2 0.3 0
22.5 0.3 0
22.8 0.3 0
23.1 0.3 0
23.4 0.3 0
23.7 0.3 0
24 0.3 0
24.3 0.3 0
24.6 0.3 0
24.9 0.3 0
25.2 0.3 0
25.5 0.3 0
25.8 0.3 0
26.1 0.3 0
26.4 0.3 0
26.7 0.3 0
27 0.3 0
27.3 0.3 0
27.6 0.3 0
27.9 0.3 0
28.2 0.3 0
28.5 0.3 0
28.8 0.3 0
29.1 0.3 0
29.4 0.3 0
29.7 0.3 0
30 0.3 0
30.3 0.3 0
0 0.4 0
0.3 0.4 0
0.6 0.4 0
0.9 0.4 0
1.2 0.4 0
1.5 0.4 0
1.8 0.4 0
2.1 0.4 0
2.4 0.4 0
2.7 0.4 0
3 0.4 0
3.3 0.4 0
3.6 0.4 0
3.9 0.4 0
4.2 0.4 0
4.5 0.4 0
4.8 0.4 0
5.1 0.4 0
5.4 0.4 0
5.7 0.4 0
6 0.4 0
6.3 0.4 0
6.6 0.4 0
6.9 0.4 0
7.2 0.4 0
7.5 0.4 0
7.8 0.4 0
8.1 0.4 0
8.4 0.4 0
8.7 0.4 0
9 0.4 0
9.3 0.4 0
9.6 0.4 0
9.9 0.4 0
10.2 0.4 0
10.5 0.4 0
10.8 0.4 0
11.1 0.4 0
11.4 0.4 0
11.7 0.4 0
12 0.4 0
12.3 0.4 0
12.6 0.4 0
12.9 0.4 0
13.2 0.4 0
13.5 0.4 0
13.8 0.4 0
14.1 0.4 0
14.4 0.4 0
14.7 0.4 0
15 0.4 0
15.3 0.4 0
15.6 0.4 0
15.9 0.4 0
16.2 0.4 0
16.5 0.4 0
16.8 0.4 0
17.1 0.4 0
17.4 0.4 0
17.7 0.4 0
18 0.4 0
18.3 0.4 0
18.6 0.4 0
18.9 0.4 0
19.2 0.4 0
19.5 0.4 0
19.8 0.4 0
20.1 0.4 0
20.4 0.4 0
20.7 0.4 0
21 0.4 0
21.3 0.4 0
21.6 0.4 0
21.9 0.4 0
22.2 0.4 0
22.5 0.4 0
22.8 0.4 0
23.1 0.4 0
23.4 0.4 0
23.7 0.4 0
24 0.4 0
24.3 0.4 0
24.6 0.4 0
24.9 0.4 0
25.2 0.4 0
25.5 0.4 0
25.8 0.4 0
26.1 0.4 0
26.4 0.4 0
26.7 0.4 0
27 0.4 0
27.3 0.4 0
27.6 0.4 0
27.9 0.4 0
28.2 0.4 0
28.5 0.4 0
28.8 0.4 0
29.1 0.4 0
29.4 0.4 0
29.7 0.4 0
30 0.4 0
30.3 0.4 0
0 0.5 0
0.3 0.5 0
0.6 0.5 0
0.9 0.5 0
1.2 0.5 0
1.5 0.5 0
1.8 0.5 0
2.1 0.5 0
2.4 0.5 0
2.7 0.5 0
3 0.5 0
3.3 0.5 0
3.6 0.5 0
3.9 0.5 0
4.2 0.5 0
4.5 0.5 0
4.8 0.5 0
5.1 0.5 0
5.4 0.5 0
5.7 0.5 0
6 0.5 0
6.3 0.5 0
6.6 0.5 0
6.9 0.5 0
7.2 0.5 0
7.5 0.5 0
7.8 0.5 0
8.1 0.5 0
8.4 0.5 0
8.7 0.5 0
9 0.5 0
9.3 0.5 0
9.6 0.5 0
9.9 0.5 0
10.2 0.5 0
10.5 0.5 0
10.8 0.5 0
11.1 0.5 0
11.4 0.5 0
11.7 0.5 0
12 0.5 0
12.3 0.5 0
12.6 0.5 0
12.9 0.5 0
13.2 0.5 0
13.5 0.5 0
13.8 0.5 0
14.1 0.5 0
14.4 0.5 0
14.7 0.5 0
15 0.5 0
15.3 0.5 0
15.6 0.5 0
15.9 0.5 0
16.2 0.5 0
16.5 0.5 0
16.8 0.5 0
17.1 0.5 0
17.4 0.5 0
17.7 0.5 0
18 0.5 0
18.3 0.5 0
18.6 0.5 0
18.9 0.5 0
19.2 0.5 0
19.5 0.5 0
19.8 0.5 0
20.1 0.5 0
20.4 0.5 0
20.7 0.5 0
21 0.5 0
21.3 0.5 0
21.6 0.5 0
21.9 0.5 0
22.2 0.5 0
22.5 0.5 0
22.8 0.5 0
23.1 0.5 0
23.4 0.5 0
23.7 0.5 0
24 0.5 0
24.3 0.5 0
24.6 0.5 0
24.9 0.5 0
25.2 0.5 0
25.5 0.5 0
25.8 0.5 0
26.1 0.5 0
26.4 0.5 0
26.7 0.5 0
27 0.5 0
27.3 0.5 0
27.6 0.5 0
27.9 0.5 0
28.2 0.5 0
28.5 0.5 0
28.8 0.5 0
29.1 0.5 0
29.4 0.5 0
29.7 0.5 0
30 0.5 0
30.3 0.5 0
0 0.6 0
0.3 0.6 0
0.6 0.6 0
0.9 0.6 0
1.2 0.6 0
1.5 0.6 0
1.8 0.6 0
2.1 0.6 0
2.4 0.6 0
2.7 0.6 0
3 0.6 0
3.3 0.6 0
3.6 0.6 0
3.9 0.6 0
4.2 0.6 0
4.5 0.6 0
4.8 0.6 0
5.1 0.6 0
5.4 0.6 0
5.7 0.6 0
6 0.6 0
6.3 0.6 0
6.6 0.6 0
6.9 0.6 0
7.2 0.6 0
7.5 0.6 0
7.8 0.6 0
8.1 0.6 0
8.4 0.6 0
8.7 0.6 0
9 0.6 0
9.3 0.6 0
9.6 0.6 0
9.9 0.6 0
10.2 0.6 0
10.5 0.6 0
10.8 0.6 0
11.1 0.6 0
11.4 0.6 0
11.7 0.6 0
12 0.6 0
12.3 0.6 0
12.6 0.6 0
12.9 0.6 0
13.2 0.6 0
13.5 0.6 0
13.8 0.6 0
14.1 0.6 0
14.4 0.6 0
14.7 0.6 0
15 0.6 0
15.3 0.6 0
15.6 0.6 0
15.9 0.6 0
16.2 0.6 0
16.5 0.6 0
16.8 0.6 0
17.1 0.6 0
17.4 0.6 0
17.7 0.6 0
18 0.6 0
18.3 0.6 0
18.6 0.6 0
18.9 0.6 0
19.2 0.6 0
19.5 0.6 0
19.8 0.6 0
20.1 0.6 0
20.4 0.6 0
20.7 0.6 0
21 0.6 0
21.3 0.6 0
21.6 0.6 0
21.9 0.6 0
22.2 0.6 0
22.5 0.6 0
22.8 0.6 0
23.1 0.6 0
23.4 0.6 0
23.7 0.6 0
24 0.6 0
24.3 0.6 0
24.6 0.6 0
24.9 0.6 0
25.2 0.6 0
25.5 0.6 0
25.8 0.6 0
26.1 0.6 0
26.4 0.6 0
26.7 0.6 0
27 0.6 0
27.3 0.6 0
27.6 0.6 0
27.9 0.6 0
28.2 0.6 0
28.5 0.6 0
28.8 0.6 0
29.1 0.6 0
29.4 0.6 0
29.7 0.6 0
30 0.6 0
30.3 0.6 0
0 0.7 0
0.3 0.7 0
0.6 0.7 0
0.9 0.7 0
1.2 0.7 0
1.5 0.7 0
1.8 0.7 0
2.1 0.7 0
2.4 0.7 0
2.7 0.7 0
3 0.7 0
3.3 0.7 0
3.6 0.7 0
3.9 0.7 0
4.2 0.7 0
4.5 0.7 0
4.8 0.7 0
5.1 0.7 0
5.4 0.7 0
5.7 0.7 0
6 0.7 0
6.3 0.7 0
6.6 0.7 0
6.9 0.7 0
7.2 0.7 0
7.5 0.7 0
7.8 0.7 0
8.1 0.7 0
8.4 0.7 0
8.7 0.7 0
9 0.7 0
9.3 0.7 0
9.6 0.7 0
9.9 0.7 0
10.2 0.7 0
10.5 0.7 0
10.8 0.7 0
11.1 0.7 0
11.4 0.7 0
11.7 0.7 0
12 0.7 0
12.3 0.7 0
12.6 0.7 0
12.9 0.7 0
13.2 0.7 0
13.5 0.7 0
13.8 0.7 0
14.1 0.7 0
14.4 0.7 0
14.7 0.7 0
15 0.7 0
15.3 0.7 0
15.6 0.7 0
15.9 0.7 0
16.2 0.7 0
16.5 0.7 0
16.8 0.7 0
17.1 0.7 0
17.4 0.7 0
17.7 0.7 0
18 0.7 0
18.3 0.7 0
18.6 0.7 0
18.9 0.7 0
19.2 0.7 0
19.5 0.7 0
19.8 0.7 0
20.1 0.7 0
20.4 0.7 0
20.7 0.7 0
21 0.7 0
21.3 0.7 0
21.6 0.7 0
21.9 0.7 0
22.2 0.7 0
22.5 0.7 0
22.8 0.7 0
23.1 0.7 0
23.4 0.7 0
23.7 0.7 0
24 0.7 0
24.3 0.7 0
24.6 0.7 0
24.9 0.7 0
25.2 0.7 0
25.5 0.7 0
25.8 0.7 0
26.1 0.7 0
26.4 0.7 0
26.7 0.7 0
27 0.7 0
27.3 0.7 0
27.6 0.7 0
27.9 0.7 0
28.2 0.7 0
28.5 0.7 0
28.8 0.7 0
29.1 0.7 0
29.4 0.7 0
29.7 0.7 0
30 0.7 0
30.3 0.7 0
0 0.8 0
0.3 0.8 0
0.6 0.8 0
0.9 0.8 0
1.2 0.8 0
1.5 0.8 0
1.8 0.8 0
2.1 0.8 0
2.4 0.8 0
2.7 0.8 0
3 0.8 0
3.3 0.8 0
3.6 0.8 0
3.9 0.8 0
4.2 0.8 0
4.5 0.8 0
4.8 0.8 0
5.1 0.8 0
5.4 0.8 0
5.7 0.8 0
6 0.8 0
6.3 0.8 0
6.6 0.8 0
6.9 0.8 0
7.2 0.8 0
7.5 0.8 0
7.8 0.8 0
8.1 0.8 0
8.4 0.8 0
8.7 0.8 0
9 0.8 0
9.3 0.8 0
9.6 0.8 0
9.9 0.8 0
10.2 0.8 0
10.5 0.8 0
10.8 0.8 0
11.1 0.8 0
11.4 0.8 0
11.7 0.8 0
12 0.8 0
12.3 0.8 0
12.6 0.8 0
12.9 0.8 0
13.2 0.8 0
13.5 0.8 0
13.8 0.8 0
14.1 0.8 0
14.4 0.8 0
14.7 0.8 0
15 0.8 0
15.3 0.8 0
15.6 0.8 0
15.9 0.8 0
16.2 0.8 0
16.5 0.8 0
16.8 0.8 0
17.1 0.8 0
17.4 0.8 0
17.7 0.8 0
18 0.8 0
18.3 0.8 0
18.6 0.8 0
18.9 0.8 0
19.2 0.8 0
19.5 0.8 0
19.8 0.8 0
20.1 0.8 0
20.4 0.8 0
20.7 0.8 0
21 0.8 0
21.3 0.8 0
21.6 0.8 0
21.9 0.8 0
22.2 0.8 0
22.5 0.8 0
22.8 0.8 0
23.1 0.8 0
23.4 0.8 0
23.7 0.8 0
24 0.8 0
24.3 0.8 0
24.6 0.8 0
24.9 0.8 0
25.2 0.8 0
25.5 0.8 0
25.8 0.8 0
26.1 0.8 0
26.4 0.8 0
26.7 0.8 0
27 0.8 0
27.3 0.8 0
27.6 0.8 0
27.9 0.8 0
28.2 0.8 0
28.5 0.8 0
28.8 0.8 0
29.1 0.8 0
29.4 0.8 0
29.7 0.8 0
30 0.8 0
30.3 0.8 0
0 0.9 0
0.3 0.9 0
0.6 0.9 0
0.9 0.9 0
1.2 0.9 0
1.5 0.9 0
1.8 0.9 0
2.1 0.9 0
2.4 0.9 0
2.7 0.9 0
3 0.9 0
3.3 0.9 0
3.6 0.9 0
3.9 0.9 0
4.2 0.9 0
4.5 0.9 0
4.8 0.9 0
5.1 0.9 0
5.4 0.9 0
5.7 0.9 0
6 0.9 0
6.3 0.9 0
6.6 0.9 0
6.9 0.9 0
7.2 0.9 0
7.5 0.9 0
7.8 0.9 0
8.1 0.9 0
8.4 0.9 0
8.7 0.9 0
9 0.9 0
9.3 0.9 0
9.6 0.9 0
9.9 0.9 0
10.2 0.9 0
10.5 0.9 0
10.8 0.9 0
11.1 0.9 0
11.4 0.9 0
11.7 0.9 0
12 0.9 0
12.3 0.9 0
12.6 0.9 0
12.9 0.9 0
13.2 0.9 0
13.5 0.9 0
13.8 0.9 0
14.1 0.9 0
14.4 0.9 0
14.7 0.9 0
15 0.9 0
15.3 0.9 0
15.6 0.9 0
15.9 0.9 0
16.2 0.9 0
16.5 0.9 0
16.8 0.9 0
17.1 0.9 0
17.4 0.9 0
17.7 0.9 0
18 0.9 0
18.3 0.9 0
18.6 0.9 0
18.9 0.9 0
19.2 0.9 0
19.5 0.9 0
19.8 0.9 0
20.1 0.9 0
20.4 0.9 0
20.7 0.9 0
21 0.9 0
21.3 0.9 0
21.6 0.9 0
21.9 0.9 0
22.2 0.9 0
22.5 0.9 0
22.8 0.9 0
23.1 0.9 0
23.4 0.9 0
23.7 0.9 0
24 0.9 0
24.3 0.9 0
24.6 0.9 0
24.9 0.9 0
25.2 0.9 0
25.5 0.9 0
25.8 0.9 0
26.1 0.9 0
26.4 0.9 0
26.7 0.9 0
27 0.9 0
27.3 0.9 0
27.6 0.9 0
27.9 0.9 0
28.2 0.9 0
28.5 0.9 0
28.8 0.9 0
29.1 0.9 0
29.4 0.9 0
29.7 0.9 0
30 0.9 0
30.3 0.9 0
0 1 0
0.3 1 0
0.6 1 0
0.9 1 0
1.2 1 0
1.5 1 0
1.8 1 0
2.1 1 0
2.4 1 0
2.7 1 0
3 1 0
3.3 1 0
3.6 1 0
3.9 1 0
4.2 1 0
4.5 1 0
4.8 1 0
5.1 1 0
5.4 1 0
5.7 1 0
6 1 0
6.3 1 0
6.6 1 0
6.9 1 0
7.2 1 0
7.5 1 0
7.8 1 0
8.1 1 0
8.4 1 0
8.7 1 0
9 1 0
9.3 1 0
9.6 1 0
9.9 1 0
10.2 1 0
10.5 1 0
10.8 1 0
11.1 1 0
11.4 1 0
11.7 1 0
12 1 0
12.3 1 0
12.6 1 0
12.9 1 0
13.2 1 0
13.5 1 0
13.8 1 0
14.1 1 0
14.4 1 0
14.7 1 0
15 1 0
15.3 1 0
15.6 1 0
15.9 1 0
16.2 1 0
16.5 1 0
16.8 1 0
17.1 1 0
17.4 1 0
17.7 1 0
18 1 0
18.3 1 0
18.6 1 0
18.9 1 0
19.2 1 0
19.5 1 0
19.8 1 0
20.1 1 0
20.4 1 0
20.7 1 0
21 1 0
21.3 1 0
21.6 1 0
21.9 1 0
22.2 1 0
22.5 1 0
22.8 1 0
23.1 1 0
23.4 1 0
23.7 1 0
24 1 0
24.3 1 0
24.6 1 0
24.9 1 0
25.2 1 0
25.5 1 0
25.8 1 0
26.1 1 0
26.4 1 0
26.7 1 0
27 1 0
27.3 1 0
27.6 1 0
27.9 1 0
28.2 1 0
28.5 1 0
28.8 1 0
29.1 1 0
29.4 1 0
29.7 1 0
30 1 0
30.3 1 0
0 1.1 0
0.3 1.1 0
0.6 1.1 0
0.9 1.1 0
1.2 1.1 0
1.5 1.1 0
1.8 1.1 0
2.1 1.1 0
2.4 1.1 0
2.7 1.1 0
3 1.1 0
3.3 1.1 0
3.6 1.1 0
3.9 1.1 0
4.2 1.1 0
4.5 1.1 0
4.8 1.1 0
5.1 1.1 0
5.4 1.1 0
5.7 1.1 0
6 1.1 0
6.3 1.1 0
6.6 1.1 0
6.9 1.1 0
7.2 1.1 0
7.5 1.1 0
7.8 1.1 0
8.1 1.1 0
8.4 1.1 0
8.7 1.1 0
9 1.1 0
9.3 1.1 0
9.6 1.1 0
9.9 1.1 0
10.2 1.1 0
10.5 1.1 0
10.8 1.1 0
11.1 1.1 0
11.4 1.1 0
11.7 1.1 0
12 1.1 0
12.3 1.1 0
12.6 1.1 0
12.9 1.1 0
13.2 1.1 0
13.5 1.1 0
13.8 1.1 0
14.1 1.1 0
14.4 1.1 0
14.7 1.1 0
15 1.1 0
15.3 1.1 0
15.6 1.1 0
15.9 1.1 0
16.2 1.1 0
16.5 1.1 0
16.8 1.1 0
17.1 1.1 0
17.4 1.1 0
17.7 1.1 0
18 1.1 0
18.3 1.1 0
18.6 1.1 0
18.9 1.1 0
19.2 1.1 0
19.5 1.1 0
19.8 1.1 0
20.1 1.1 0
20.4 1.1 0
20.7 1.1 0
21 1.1 0
21.3 1.1 0
21.6 1.1 0
21.9 1.1 0
22.2 1.1 0
22.5 1.1 0
22.8 1.1 0
23.1 1.1 0
23.4 1.1 0
23.7 1.1 0
24 1.1 0
24.3 1.1 0
24.6 1.1 0
24.9 1.1 0
25.2 1.1 0
25.5 1.1 0
25.8 1.1 0
26.1 1.1 0
26.4 1.1 0
26.7 1.1 0
27 1.1 0
27.3 1.1 0
27.6 1.1 0
27.9 1.1 0
28.2 1.1 0
28.5 1.1 0
28.8 1.1 0
29.1 1.1 0
29.4 1.1 0
29.7 1.1 0
30 1.1 0
30.3 1.1 0
0 1.2 0
0.3 1.2 0
0.6 1.2 0
0.9 1.2 0
1.2 1.2 0
1.5 1.2 0
1.8 1.2 0
2.1 1.2 0
2.4 1.2 0
2.7 1.2 0
3 1.2 0
3.3 1.2 0
3.6 1.2 0
3.9 1.2 0
4.2 1.2 0
4.5 1.2 0
4.8 1.2 0
5.1 1.2 0
5.4 1.2 0
5.7 1.2 0
6 1.2 0
6.3 1.2 0
6.6 1.2 0
6.9 1.2 0
7.2 1.2 0
7.5 1.2 0
7.8 1.2 0
8.1 1.2 0
8.4 1.2 0
8.7 1.2 0
9 1.2 0
9.3 1.2 0
9.6 1.2 0
9.9 1.2 0
10.2 1.2 0
10.5 1.2 0
10.8 1.2 0
11.1 1.2 0
11.4 1.2 0
11.7 1.2 0
12 1.2 0
12.3 1.2 0
12.6 1.2 0
12.9 1.2 0
13.2 1.2 0
13.5 1.2 0
13.8 1.2 0
14.1 1.2 0
14.4 1.2 0
14.7 1.2 0
15 1.2 0
15.3 1.2 0
15.6 1.2 0
15.9 1.2 0
16.2 1.2 0
16.5 1.2 0
16.8 1.2 0
17.1 1.2 0
17.4 1.2 0
17.7 1.2 0
18 1.2 0
18.3 1.2 0
18.6 1.2 0
18.9 1.2 0
19.2 1.2 0
19.5 1.2 0
19.8 1.2 0
20.1 1.2 0
20.4 1.2 0
20.7 1.2 0
21 1.2 0
21.3 1.2 0
21.6 1.2 0
21.9 1.2 0
22.2 1.2 0
22.5 1.2 0
22.8 1.2 0
23.1 1.2 0
23.4 1.2 0
23.7 1.2 0
24 1.2 0
24.3 1.2 0
24.6 1.2 0
24.9 1.2 0
25.2 1.2 0
25.5 1.2 0
25.8 1.2 0
26.1 1.2 0
26.4 1.2 0
26.7 1.2 0
27 1.2 0
27.3 1.2 0
27.6 1.2 0
27.9 1.2 0
28.2 1.2 0
28.5 1.2 0
28.8 1.2 0
29.1 1.2 0
29.4 1.2 0
29.7 1.2 0
30 1.2 0
30.3 1.2 0

POINT_DATA 1326

SCALARS p double
LOOKUP_TABLE default
1.16094
1.16094
1.0961
1.05186
1.01204
0.975462
0.942411
0.912884
0.886528
0.862819
0.841217
0.821255
0.802561
0.784861
0.767954
0.751695
0.735976
0.720721
0.705869
0.691374
0.677199
0.663314
0.649694
0.636315
0.623159
0.610209
0.59745
0.584867
0.572449
0.560185
0.548064
0.536078
0.524217
0.512473
0.50084
0.489311
0.47788
0.46654
0.455287
0.444115
0.43302
0.421997
0.411043
0.400153
0.389324
0.378552
0.367835
0.35717
0.346552
0.335981
0.325453
0.314967
0.304519
0.294108
0.283731
0.273388
0.263076
0.252794
0.242539
0.232311
0.222107
0.211928
0.201771
0.191635
0.18152
0.171423
0.161344
0.151283
0.141238
0.131208
0.121192
0.111191
0.101202
0.0912258
0.0812612
0.0713076
0.0613643
0.051431
0.0415072
0.0315923
0.0216857
0.0117871
0.00189599
-0.00798797
-0.017865
-0.0277354
-0.0375999
-0.0474584
-0.0573112
-0.0671586
-0.0770008
-0.086838
-0.0966704
-0.106498
-0.116322
-0.126141
-0.135956
-0.145767
-0.155575
-0.16538
-0.175181
0.175181
1.16094
1.16094
1.0961
1.05186
1.01204
0.975462
0.942411
0.912884
0.886528
0.862819
0.841217
0.821255
0.802561
0.784861
0.767954
0.751695
0.735976
0.720721
0.705869
0.691374
0.677199
0.663314
0.649694
0.636315
0.623159
0.610209
0.59745
0.584867
0.572449
0.560185
0.548064
0.536078
0.524217
0.512473
0.50084
0.489311
0.47788
0.46654
0.455287
0.444115
0.43302
0.421997
0.411043
0.400153
0.389324
0.378552
0.367835
0.35717
0.346552
0.335981
0.325453
0.314967
0.304519
0.294108
0.283731
0.273388
0.263076
0.252794
0.242539
0.232311
0.222107
0.211928
0.201771
0.191635
0.18152
0.171423
0.161344
0.151283
0.141238
0.131208
0.121192
0.111191
0.101202
0.0912258
0.0812612
0.0713076
0.0613643
0.051431
0.0415072
0.0315923
0.0216857
0.0117871
0.00189599
-0.00798797
-0.017865
-0.0277354
-0.0375999
-0.0474584
-0.0573112
-0.0671586
-0.0770008
-0.086838
-0.0966704
-0.106498
-0.116322
-0.126141
-0.135956
-0.145767
-0.155575
-0.16538
-0.175181
0.175181
1.14
1.14
1.09411
1.05209
1.01274
0.976259
0.943154
0.913515
0.887035
0.863214
0.841521
0.821488
0.802743
0.785006
0.768072
0.751793
0.736059
0.720792
0.705931
0.691429
0.677248
0.663359
0.649734
0.636352
0.623193
0.61024
0.597478
0.584893
0.572473
0.560208
0.548085
0.536097
0.524235
0.51249
0.500856
0.489326
0.477893
0.466553
0.455299
0.444126
0.43303
0.422007
0.411052
0.400162
0.389332
0.37856
0.367843
0.357176
0.346559
0.335987
0.325459
0.314972
0.304524
0.294113
0.283736
0.273392
0.26308
0.252797
0.242542
0.232314
0.222111
0.211931
0.201774
0.191638
0.181522
0.171425
0.161347
0.151285
0.14124
0.13121
0.121194
0.111193
0.101204
0.0912274
0.0812627
0.071309
0.0613657
0.0514323
0.0415085
0.0315934
0.0216867
0.0117881
0.00189694
-0.00798705
-0.0178641
-0.0277346
-0.0375991
-0.0474576
-0.0573105
-0.0671579
-0.0770002
-0.0868375
-0.0966699
-0.106498
-0.116321
-0.12614
-0.135956
-0.145767
-0.155574
-0.165379
-0.17518
0.17518
1.12502
1.12502
1.09123
1.05232
1.01385
0.977584
0.944416
0.914593
0.887896
0.863873
0.842013
0.821853
0.803014
0.785211
0.76823
0.751918
0.73616
0.720876
0.706002
0.69149
0.677301
0.663405
0.649775
0.636389
0.623226
0.61027
0.597505
0.584918
0.572496
0.560228
0.548104
0.536114
0.524251
0.512505
0.50087
0.489339
0.477905
0.466564
0.455309
0.444136
0.433039
0.422015
0.41106
0.400169
0.389339
0.378566
0.367848
0.357182
0.346564
0.335992
0.325464
0.314976
0.304528
0.294116
0.28374
0.273396
0.263083
0.2528
0.242545
0.232317
0.222113
0.211933
0.201776
0.19164
0.181524
0.171427
0.161349
0.151287
0.141241
0.131211
0.121196
0.111194
0.101205
0.0912286
0.0812638
0.07131
0.0613667
0.0514333
0.0415094
0.0315943
0.0216876
0.0117889
0.00189766
-0.00798633
-0.0178634
-0.0277341
-0.0375986
-0.0474571
-0.05731
-0.0671575
-0.0769998
-0.0868371
-0.0966696
-0.106498
-0.116321
-0.12614
-0.135955
-0.145767
-0.155574
-0.165378
-0.175175
0.175175
1.11545
1.11545
1.08874
1.05243
1.01481
0.978779
0.945592
0.91563
0.888749
0.864545
0.84253
0.822247
0.803317
0.785446
0.768416
0.752067
0.736283
0.720979
0.70609
0.691566
0.677368
0.663464
0.649827
0.636435
0.623267
0.610307
0.597539
0.584948
0.572524
0.560253
0.548127
0.536136
0.52427
0.512523
0.500886
0.489354
0.477919
0.466577
0.455321
0.444147
0.43305
0.422025
0.411069
0.400177
0.389347
0.378574
0.367855
0.357188
0.34657
0.335998
0.325469
0.314981
0.304533
0.294121
0.283744
0.2734
0.263087
0.252804
0.242549
0.23232
0.222116
0.211936
0.201779
0.191643
0.181527
0.17143
0.161351
0.151289
0.141243
0.131213
0.121197
0.111195
0.101207
0.09123
0.0812651
0.0713113
0.0613679
0.0514345
0.0415104
0.0315953
0.0216885
0.0117898
0.00189851
-0.0079855
-0.0178626
-0.0277334
-0.0375979
-0.0474564
-0.0573094
-0.0671569
-0.0769992
-0.0868366
-0.0966691
-0.106497
-0.116321
-0.12614
-0.135955
-0.145766
-0.155573
-0.165376
-0.175165
0.175165
1.11013
1.11013
1.08711
1.05245
1.0154
0.979546
0.946362
0.916319
0.889327
0.86501
0.842895
0.822531
0.803539
0.785622
0.768558
0.752185
0.736382
0.721064
0.706163
0.69163
0.677425
0.663515
0.649873
0.636476
0.623304
0.610341
0.597569
0.584976
0.572549
0.560277
0.548149
0.536155
0.524288
0.512539
0.500902
0.489368
0.477933
0.466589
0.455333
0.444158
0.43306
0.422034
0.411078
0.400185
0.389354
0.378581
0.367862
0.357195
0.346576
0.336003
0.325474
0.314986
0.304537
0.294125
0.283748
0.273404
0.263091
0.252807
0.242552
0.232323
0.222119
0.211939
0.201781
0.191645
0.181529
0.171432
0.161353
0.151291
0.141245
0.131215
0.121199
0.111197
0.101208
0.0912314
0.0812664
0.0713125
0.0613691
0.0514356
0.0415115
0.0315962
0.0216894
0.0117906
0.00189934
-0.0079847
-0.0178619
-0.0277327
-0.0375972
-0.0474558
-0.0573088
-0.0671563
-0.0769987
-0.086836
-0.0966686
-0.106497
-0.11632
-0.126139
-0.135955
-0.145766
-0.155572
-0.165373
-0.175154
0.175154
1.10843
1.10843
1.08657
1.05246
1.01561
0.97982
0.946636
0.916565
0.889534
0.865177
0.843027
0.822635
0.803622
0.785689
0.768613
0.75223
0.736421
0.721097
0.706193
0.691656
0.677448
0.663535
0.649891
0.636493
0.62332
0.610355
0.597582
0.584988
0.57256
0.560287
0.548158
0.536164
0.524296
0.512547
0.500908
0.489374
0.477938
0.466595
0.455338
0.444162
0.433064
0.422038
0.411081
0.400189
0.389358
0.378584
0.367865
0.357197
0.346579
0.336006
0.325477
0.314988
0.304539
0.294127
0.28375
0.273405
0.263092
0.252809
0.242553
0.232324
0.22212
0.21194
0.201782
0.191646
0.18153
0.171433
0.161354
0.151292
0.141246
0.131216
0.1212
0.111198
0.101209
0.0912319
0.0812669
0.071313
0.0613696
0.051436
0.0415119
0.0315967
0.0216898
0.011791
0.00189971
-0.00798435
-0.0178616
-0.0277324
-0.0375969
-0.0474555
-0.0573085
-0.0671561
-0.0769984
-0.0868358
-0.0966684
-0.106496
-0.11632
-0.126139
-0.135954
-0.145765
-0.155572
-0.165372
-0.175149
0.175149
1.11013
1.11013
1.08711
1.05245
1.0154
0.979546
0.946362
0.916319
0.889328
0.86501
0.842895
0.822531
0.803539
0.785622
0.768558
0.752185
0.736382
0.721064
0.706163
0.69163
0.677425
0.663515
0.649873
0.636476
0.623304
0.610341
0.597569
0.584976
0.572549
0.560277
0.548149
0.536155
0.524288
0.512539
0.500902
0.489368
0.477933
0.466589
0.455333
0.444158
0.43306
0.422034
0.411077
0.400185
0.389354
0.378581
0.367862
0.357195
0.346576
0.336003
0.325474
0.314986
0.304537
0.294125
0.283748
0.273404
0.263091
0.252807
0.242552
0.232323
0.222119
0.211939
0.201781
0.191645
0.181529
0.171432
0.161353
0.151291
0.141245
0.131215
0.121199
0.111197
0.101208
0.0912313
0.0812664
0.0713125
0.0613691
0.0514356
0.0415114
0.0315962
0.0216894
0.0117906
0.00189935
-0.0079847
-0.0178619
-0.0277327
-0.0375972
-0.0474558
-0.0573088
-0.0671563
-0.0769987
-0.086836
-0.0966686
-0.106497
-0.11632
-0.126139
-0.135955
-0.145766
-0.155572
-0.165373
-0.175154
0.175154
1.11545
1.11545
1.08874
1.05243
1.01481
0.978779
0.945592
0.91563
0.88875
0.864546
0.84253
0.822247
0.803317
0.785445
0.768416
0.752067
0.736283
0.720979
0.70609
0.691566
0.677368
0.663464
0.649827
0.636435
0.623267
0.610307
0.597539
0.584948
0.572524
0.560253
0.548127
0.536136
0.52427
0.512523
0.500886
0.489354
0.477919
0.466577
0.455321
0.444147
0.43305
0.422025
0.411069
0.400177
0.389347
0.378574
0.367855
0.357188
0.34657
0.335998
0.325469
0.314981
0.304533
0.294121
0.283744
0.2734
0.263087
0.252804
0.242549
0.23232
0.222116
0.211936
0.201779
0.191643
0.181527
0.17143
0.161351
0.151289
0.141243
0.131213
0.121197
0.111195
0.101207
0.09123
0.0812651
0.0713113
0.0613679
0.0514345
0.0415104
0.0315953
0.0216885
0.0117897
0.00189853
-0.00798549
-0.0178627
-0.0277334
-0.0375979
-0.0474564
-0.0573094
-0.0671569
-0.0769992
-0.0868366
-0.0966691
-0.106497
-0.116321
-0.12614
-0.135955
-0.145766
-0.155573
-0.165376
-0.175165
0.175165
1.12502
1.12502
1.09123
1.05232
1.01385
0.977584
0.944416
0.914593
0.887897
0.863873
0.842013
0.821852
0.803014
0.785211
0.76823
0.751918
0.73616
0.720876
0.706002
0.69149
0.677301
0.663405
0.649775
0.636389
0.623226
0.61027
0.597505
0.584918
0.572496
0.560228
0.548104
0.536114
0.524251
0.512505
0.50087
0.489339
0.477905
0.466564
0.455309
0.444136
0.433039
0.422015
0.41106
0.400169
0.389339
0.378566
0.367848
0.357182
0.346564
0.335992
0.325464
0.314976
0.304528
0.294116
0.28374
0.273396
0.263083
0.2528
0.242545
0.232317
0.222113
0.211933
0.201776
0.19164
0.181524
0.171427
0.161349
0.151287
0.141241
0.131211
0.121196
0.111194
0.101205
0.0912286
0.0812638
0.0713101
0.0613667
0.0514333
0.0415094
0.0315943
0.0216876
0.0117889
0.00189768
-0.00798629
-0.0178634
-0.0277341
-0.0375985
-0.0474571
-0.05731
-0.0671575
-0.0769998
-0.0868371
-0.0966696
-0.106498
-0.116321
-0.12614
-0.135955
-0.145767
-0.155574
-0.165378
-0.175175
0.175175
1.14
1.14
1.09411
1.05209
1.01274
0.97626
0.943154
0.913515
0.887035
0.863214
0.84152
0.821488
0.802743
0.785006
0.768072
0.751792
0.736059
0.720792
0.705931
0.691429
0.677248
0.663359
0.649734
0.636352
0.623193
0.61024
0.597478
0.584893
0.572473
0.560208
0.548085
0.536097
0.524235
0.51249
0.500856
0.489326
0.477893
0.466553
0.455299
0.444126
0.43303
0.422007
0.411052
0.400162
0.389332
0.37856
0.367842
0.357176
0.346559
0.335987
0.325459
0.314972
0.304524
0.294113
0.283736
0.273392
0.26308
0.252797
0.242542
0.232314
0.222111
0.211931
0.201774
0.191638
0.181522
0.171425
0.161347
0.151285
0.14124
0.13121
0.121194
0.111193
0.101204
0.0912274
0.0812627
0.071309
0.0613657
0.0514324
0.0415084
0.0315934
0.0216867
0.0117881
0.00189694
-0.00798699
-0.0178641
-0.0277347
-0.0375991
-0.0474576
-0.0573105
-0.0671579
-0.0770002
-0.0868375
-0.09667
-0.106498
-0.116321
-0.12614
-0.135956
-0.145767
-0.155574
-0.165379
-0.17518
0.17518
1.16094
1.16094
1.0961
1.05186
1.01204
0.975464
0.942412
0.912884
0.886528
0.862819
0.841217
0.821254
0.802561
0.784862
0.767955
0.751695
0.735976
0.720721
0.705869
0.691374
0.677199
0.663314
0.649694
0.636315
0.623159
0.610209
0.59745
0.584867
0.572449
0.560185
0.548064
0.536078
0.524217
0.512473
0.50084
0.489311
0.47788
0.46654
0.455287
0.444115
0.43302
0.421997
0.411043
0.400153
0.389324
0.378552
0.367835
0.357169
0.346552
0.335981
0.325453
0.314967
0.304519
0.294108
0.283731
0.273388
0.263076
0.252793
0.242539
0.232311
0.222107
0.211928
0.201771
0.191635
0.18152
0.171423
0.161344
0.151283
0.141238
0.131208
0.121192
0.111191
0.101202
0.0912258
0.0812612
0.0713075
0.0613644
0.0514311
0.0415072
0.0315923
0.0216857
0.011787
0.00189597
-0.00798789
-0.0178649
-0.0277355
-0.0375999
-0.0474583
-0.0573112
-0.0671586
-0.0770008
-0.086838
-0.0966704
-0.106498
-0.116322
-0.126141
-0.135956
-0.145767
-0.155575
-0.16538
-0.175181
0.175181
1.16094
1.16094
1.0961
1.05186
1.01204
0.975464
0.942412
0.912884
0.886528
0.862819
0.841217
0.821254
0.802561
0.784862
0.767955
0.751695
0.735976
0.720721
0.705869
0.691374
0.677199
0.663314
0.649694
0.636315
0.623159
0.610209
0.59745
0.584867
0.572449
0.560185
0.548064
0.536078
0.524217
0.512473
0.50084
0.489311
0.47788
0.46654
0.455287
0.444115
0.43302
0.421997
0.411043
0.400153
0.389324
0.378552
0.367835
0.357169
0.346552
0.335981
0.325453
0.314967
0.304519
0.294108
0.283731
0.273388
0.263076
0.252793
0.242539
0.232311
0.222107
0.211928
0.201771
0.191635
0.18152
0.171423
0.161344
0.151283
0.141238
0.131208
0.121192
0.111191
0.101202
0.0912258
0.0812612
0.0713075
0.0613644
0.0514311
0.0415072
0.0315923
0.0216857
0.011787
0.00189597
-0.00798789
-0.0178649
-0.0277355
-0.0375999
-0.0474583
-0.0573112
-0.0671586
-0.0770008
-0.086838
-0.0966704
-0.106498
-0.116322
-0.126141
-0.135956
-0.145767
-0.155575
-0.16538
-0.175181
0.175181
