# vtk DataFile Version 2.0
FlowField
ASCII
DATASET STRUCTURED_GRID
DIMENSIONS 102 13 1 
POINTS 1326 double
0 0 0
0.3 0 0
0.6 0 0
0.9 0 0
1.2 0 0
1.5 0 0
1.8 0 0
2.1 0 0
2.4 0 0
2.7 0 0
3 0 0
3.3 0 0
3.6 0 0
3.9 0 0
4.2 0 0
4.5 0 0
4.8 0 0
5.1 0 0
5.4 0 0
5.7 0 0
6 0 0
6.3 0 0
6.6 0 0
6.9 0 0
7.2 0 0
7.5 0 0
7.8 0 0
8.1 0 0
8.4 0 0
8.7 0 0
9 0 0
9.3 0 0
9.6 0 0
9.9 0 0
10.2 0 0
10.5 0 0
10.8 0 0
11.1 0 0
11.4 0 0
11.7 0 0
12 0 0
12.3 0 0
12.6 0 0
12.9 0 0
13.2 0 0
13.5 0 0
13.8 0 0
14.1 0 0
14.4 0 0
14.7 0 0
15 0 0
15.3 0 0
15.6 0 0
15.9 0 0
16.2 0 0
16.5 0 0
16.8 0 0
17.1 0 0
17.4 0 0
17.7 0 0
18 0 0
18.3 0 0
18.6 0 0
18.9 0 0
19.2 0 0
19.5 0 0
19.8 0 0
20.1 0 0
20.4 0 0
20.7 0 0
21 0 0
21.3 0 0
21.6 0 0
21.9 0 0
22.2 0 0
22.5 0 0
22.8 0 0
23.1 0 0
23.4 0 0
23.7 0 0
24 0 0
24.3 0 0
24.6 0 0
24.9 0 0
25.2 0 0
25.5 0 0
25.8 0 0
26.1 0 0
26.4 0 0
26.7 0 0
27 0 0
27.3 0 0
27.6 0 0
27.9 0 0
28.2 0 0
28.5 0 0
28.8 0 0
29.1 0 0
29.4 0 0
29.7 0 0
30 0 0
30.3 0 0
0 0.1 0
0.3 0.1 0
0.6 0.1 0
0.9 0.1 0
1.2 0.1 0
1.5 0.1 0
1.8 0.1 0
2.1 0.1 0
2.4 0.1 0
2.7 0.1 0
3 0.1 0
3.3 0.1 0
3.6 0.1 0
3.9 0.1 0
4.2 0.1 0
4.5 0.1 0
4.8 0.1 0
5.1 0.1 0
5.4 0.1 0
5.7 0.1 0
6 0.1 0
6.3 0.1 0
6.6 0.1 0
6.9 0.1 0
7.2 0.1 0
7.5 0.1 0
7.8 0.1 0
8.1 0.1 0
8.4 0.1 0
8.7 0.1 0
9 0.1 0
9.3 0.1 0
9.6 0.1 0
9.9 0.1 0
10.2 0.1 0
10.5 0.1 0
10.8 0.1 0
11.1 0.1 0
11.4 0.1 0
11.7 0.1 0
12 0.1 0
12.3 0.1 0
12.6 0.1 0
12.9 0.1 0
13.2 0.1 0
13.5 0.1 0
13.8 0.1 0
14.1 0.1 0
14.4 0.1 0
14.7 0.1 0
15 0.1 0
15.3 0.1 0
15.6 0.1 0
15.9 0.1 0
16.2 0.1 0
16.5 0.1 0
16.8 0.1 0
17.1 0.1 0
17.4 0.1 0
17.7 0.1 0
18 0.1 0
18.3 0.1 0
18.6 0.1 0
18.9 0.1 0
19.2 0.1 0
19.5 0.1 0
19.8 0.1 0
20.1 0.1 0
20.4 0.1 0
20.7 0.1 0
21 0.1 0
21.3 0.1 0
21.6 0.1 0
21.9 0.1 0
22.2 0.1 0
22.5 0.1 0
22.8 0.1 0
23.1 0.1 0
23.4 0.1 0
23.7 0.1 0
24 0.1 0
24.3 0.1 0
24.6 0.1 0
24.9 0.1 0
25.2 0.1 0
25.5 0.1 0
25.8 0.1 0
26.1 0.1 0
26.4 0.1 0
26.7 0.1 0
27 0.1 0
27.3 0.1 0
27.6 0.1 0
27.9 0.1 0
28.2 0.1 0
28.5 0.1 0
28.8 0.1 0
29.1 0.1 0
29.4 0.1 0
29.7 0.1 0
30 0.1 0
30.3 0.1 0
0 0.2 0
0.3 0.2 0
0.6 0.2 0
0.9 0.2 0
1.2 0.2 0
1.5 0.2 0
1.8 0.2 0
2.1 0.2 0
2.4 0.2 0
2.7 0.2 0
3 0.2 0
3.3 0.2 0
3.6 0.2 0
3.9 0.2 0
4.2 0.2 0
4.5 0.2 0
4.8 0.2 0
5.1 0.2 0
5.4 0.2 0
5.7 0.2 0
6 0.2 0
6.3 0.2 0
6.6 0.2 0
6.9 0.2 0
7.2 0.2 0
7.5 0.2 0
7.8 0.2 0
8.1 0.2 0
8.4 0.2 0
8.7 0.2 0
9 0.2 0
9.3 0.2 0
9.6 0.2 0
9.9 0.2 0
10.2 0.2 0
10.5 0.2 0
10.8 0.2 0
11.1 0.2 0
11.4 0.2 0
11.7 0.2 0
12 0.2 0
12.3 0.2 0
12.6 0.2 0
12.9 0.2 0
13.2 0.2 0
13.5 0.2 0
13.8 0.2 0
14.1 0.2 0
14.4 0.2 0
14.7 0.2 0
15 0.2 0
15.3 0.2 0
15.6 0.2 0
15.9 0.2 0
16.2 0.2 0
16.5 0.2 0
16.8 0.2 0
17.1 0.2 0
17.4 0.2 0
17.7 0.2 0
18 0.2 0
18.3 0.2 0
18.6 0.2 0
18.9 0.2 0
19.2 0.2 0
19.5 0.2 0
19.8 0.2 0
20.1 0.2 0
20.4 0.2 0
20.7 0.2 0
21 0.2 0
21.3 0.2 0
21.6 0.2 0
21.9 0.2 0
22.2 0.2 0
22.5 0.2 0
22.8 0.2 0
23.1 0.2 0
23.4 0.2 0
23.7 0.2 0
24 0.2 0
24.3 0.2 0
24.6 0.2 0
24.9 0.2 0
25.2 0.2 0
25.5 0.2 0
25.8 0.2 0
26.1 0.2 0
26.4 0.2 0
26.7 0.2 0
27 0.2 0
27.3 0.2 0
27.6 0.2 0
27.9 0.2 0
28.2 0.2 0
28.5 0.2 0
28.8 0.2 0
29.1 0.2 0
29.4 0.2 0
29.7 0.2 0
30 0.2 0
30.3 0.2 0
0 0.3 0
0.3 0.3 0
0.6 0.3 0
0.9 0.3 0
1.2 0.3 0
1.5 0.3 0
1.8 0.3 0
2.1 0.3 0
2.4 0.3 0
2.7 0.3 0
3 0.3 0
3.3 0.3 0
3.6 0.3 0
3.9 0.3 0
4.2 0.3 0
4.5 0.3 0
4.8 0.3 0
5.1 0.3 0
5.4 0.3 0
5.7 0.3 0
6 0.3 0
6.3 0.3 0
6.6 0.3 0
6.9 0.3 0
7.2 0.3 0
7.5 0.3 0
7.8 0.3 0
8.1 0.3 0
8.4 0.3 0
8.7 0.3 0
9 0.3 0
9.3 0.3 0
9.6 0.3 0
9.9 0.3 0
10.2 0.3 0
10.5 0.3 0
10.8 0.3 0
11.1 0.3 0
11.4 0.3 0
11.7 0.3 0
12 0.3 0
12.3 0.3 0
12.6 0.3 0
12.9 0.3 0
13.2 0.3 0
13.5 0.3 0
13.8 0.3 0
14.1 0.3 0
14.4 0.3 0
14.7 0.3 0
15 0.3 0
15.3 0.3 0
15.6 0.3 0
15.9 0.3 0
16.2 0.3 0
16.5 0.3 0
16.8 0.3 0
17.1 0.3 0
17.4 0.3 0
17.7 0.3 0
18 0.3 0
18.3 0.3 0
18.6 0.3 0
18.9 0.3 0
19.2 0.3 0
19.5 0.3 0
19.8 0.3 0
20.1 0.3 0
20.4 0.3 0
20.7 0.3 0
21 0.3 0
21.3 0.3 0
21.6 0.3 0
21.9 0.3 0
22.2 0.3 0
22.5 0.3 0
22.8 0.3 0
23.1 0.3 0
23.4 0.3 0
23.7 0.3 0
24 0.3 0
24.3 0.3 0
24.6 0.3 0
24.9 0.3 0
25.2 0.3 0
25.5 0.3 0
25.8 0.3 0
26.1 0.3 0
26.4 0.3 0
26.7 0.3 0
27 0.3 0
27.3 0.3 0
27.6 0.3 0
27.9 0.3 0
28.2 0.3 0
28.5 0.3 0
28.8 0.3 0
29.1 0.3 0
29.4 0.3 0
29.7 0.3 0
30 0.3 0
30.3 0.3 0
0 0.4 0
0.3 0.4 0
0.6 0.4 0
0.9 0.4 0
1.2 0.4 0
1.5 0.4 0
1.8 0.4 0
2.1 0.4 0
2.4 0.4 0
2.7 0.4 0
3 0.4 0
3.3 0.4 0
3.6 0.4 0
3.9 0.4 0
4.2 0.4 0
4.5 0.4 0
4.8 0.4 0
5.1 0.4 0
5.4 0.4 0
5.7 0.4 0
6 0.4 0
6.3 0.4 0
6.6 0.4 0
6.9 0.4 0
7.2 0.4 0
7.5 0.4 0
7.8 0.4 0
8.1 0.4 0
8.4 0.4 0
8.7 0.4 0
9 0.4 0
9.3 0.4 0
9.6 0.4 0
9.9 0.4 0
10.2 0.4 0
10.5 0.4 0
10.8 0.4 0
11.1 0.4 0
11.4 0.4 0
11.7 0.4 0
12 0.4 0
12.3 0.4 0
12.6 0.4 0
12.9 0.4 0
13.2 0.4 0
13.5 0.4 0
13.8 0.4 0
14.1 0.4 0
14.4 0.4 0
14.7 0.4 0
15 0.4 0
15.3 0.4 0
15.6 0.4 0
15.9 0.4 0
16.2 0.4 0
16.5 0.4 0
16.8 0.4 0
17.1 0.4 0
17.4 0.4 0
17.7 0.4 0
18 0.4 0
18.3 0.4 0
18.6 0.4 0
18.9 0.4 0
19.2 0.4 0
19.5 0.4 0
19.8 0.4 0
20.1 0.4 0
20.4 0.4 0
20.7 0.4 0
21 0.4 0
21.3 0.4 0
21.6 0.4 0
21.9 0.4 0
22.2 0.4 0
22.5 0.4 0
22.8 0.4 0
23.1 0.4 0
23.4 0.4 0
23.7 0.4 0
24 0.4 0
24.3 0.4 0
24.6 0.4 0
24.9 0.4 0
25.2 0.4 0
25.5 0.4 0
25.8 0.4 0
26.1 0.4 0
26.4 0.4 0
26.7 0.4 0
27 0.4 0
27.3 0.4 0
27.6 0.4 0
27.9 0.4 0
28.2 0.4 0
28.5 0.4 0
28.8 0.4 0
29.1 0.4 0
29.4 0.4 0
29.7 0.4 0
30 0.4 0
30.3 0.4 0
0 0.5 0
0.3 0.5 0
0.6 0.5 0
0.9 0.5 0
1.2 0.5 0
1.5 0.5 0
1.8 0.5 0
2.1 0.5 0
2.4 0.5 0
2.7 0.5 0
3 0.5 0
3.3 0.5 0
3.6 0.5 0
3.9 0.5 0
4.2 0.5 0
4.5 0.5 0
4.8 0.5 0
5.1 0.5 0
5.4 0.5 0
5.7 0.5 0
6 0.5 0
6.3 0.5 0
6.6 0.5 0
6.9 0.5 0
7.2 0.5 0
7.5 0.5 0
7.8 0.5 0
8.1 0.5 0
8.4 0.5 0
8.7 0.5 0
9 0.5 0
9.3 0.5 0
9.6 0.5 0
9.9 0.5 0
10.2 0.5 0
10.5 0.5 0
10.8 0.5 0
11.1 0.5 0
11.4 0.5 0
11.7 0.5 0
12 0.5 0
12.3 0.5 0
12.6 0.5 0
12.9 0.5 0
13.2 0.5 0
13.5 0.5 0
13.8 0.5 0
14.1 0.5 0
14.4 0.5 0
14.7 0.5 0
15 0.5 0
15.3 0.5 0
15.6 0.5 0
15.9 0.5 0
16.2 0.5 0
16.5 0.5 0
16.8 0.5 0
17.1 0.5 0
17.4 0.5 0
17.7 0.5 0
18 0.5 0
18.3 0.5 0
18.6 0.5 0
18.9 0.5 0
19.2 0.5 0
19.5 0.5 0
19.8 0.5 0
20.1 0.5 0
20.4 0.5 0
20.7 0.5 0
21 0.5 0
21.3 0.5 0
21.6 0.5 0
21.9 0.5 0
22.2 0.5 0
22.5 0.5 0
22.8 0.5 0
23.1 0.5 0
23.4 0.5 0
23.7 0.5 0
24 0.5 0
24.3 0.5 0
24.6 0.5 0
24.9 0.5 0
25.2 0.5 0
25.5 0.5 0
25.8 0.5 0
26.1 0.5 0
26.4 0.5 0
26.7 0.5 0
27 0.5 0
27.3 0.5 0
27.6 0.5 0
27.9 0.5 0
28.2 0.5 0
28.5 0.5 0
28.8 0.5 0
29.1 0.5 0
29.4 0.5 0
29.7 0.5 0
30 0.5 0
30.3 0.5 0
0 0.6 0
0.3 0.6 0
0.6 0.6 0
0.9 0.6 0
1.2 0.6 0
1.5 0.6 0
1.8 0.6 0
2.1 0.6 0
2.4 0.6 0
2.7 0.6 0
3 0.6 0
3.3 0.6 0
3.6 0.6 0
3.9 0.6 0
4.2 0.6 0
4.5 0.6 0
4.8 0.6 0
5.1 0.6 0
5.4 0.6 0
5.7 0.6 0
6 0.6 0
6.3 0.6 0
6.6 0.6 0
6.9 0.6 0
7.2 0.6 0
7.5 0.6 0
7.8 0.6 0
8.1 0.6 0
8.4 0.6 0
8.7 0.6 0
9 0.6 0
9.3 0.6 0
9.6 0.6 0
9.9 0.6 0
10.2 0.6 0
10.5 0.6 0
10.8 0.6 0
11.1 0.6 0
11.4 0.6 0
11.7 0.6 0
12 0.6 0
12.3 0.6 0
12.6 0.6 0
12.9 0.6 0
13.2 0.6 0
13.5 0.6 0
13.8 0.6 0
14.1 0.6 0
14.4 0.6 0
14.7 0.6 0
15 0.6 0
15.3 0.6 0
15.6 0.6 0
15.9 0.6 0
16.2 0.6 0
16.5 0.6 0
16.8 0.6 0
17.1 0.6 0
17.4 0.6 0
17.7 0.6 0
18 0.6 0
18.3 0.6 0
18.6 0.6 0
18.9 0.6 0
19.2 0.6 0
19.5 0.6 0
19.8 0.6 0
20.1 0.6 0
20.4 0.6 0
20.7 0.6 0
21 0.6 0
21.3 0.6 0
21.6 0.6 0
21.9 0.6 0
22.2 0.6 0
22.5 0.6 0
22.8 0.6 0
23.1 0.6 0
23.4 0.6 0
23.7 0.6 0
24 0.6 0
24.3 0.6 0
24.6 0.6 0
24.9 0.6 0
25.2 0.6 0
25.5 0.6 0
25.8 0.6 0
26.1 0.6 0
26.4 0.6 0
26.7 0.6 0
27 0.6 0
27.3 0.6 0
27.6 0.6 0
27.9 0.6 0
28.2 0.6 0
28.5 0.6 0
28.8 0.6 0
29.1 0.6 0
29.4 0.6 0
29.7 0.6 0
30 0.6 0
30.3 0.6 0
0 0.7 0
0.3 0.7 0
0.6 0.7 0
0.9 0.7 0
1.2 0.7 0
1.5 0.7 0
1.8 0.7 0
2.1 0.7 0
2.4 0.7 0
2.7 0.7 0
3 0.7 0
3.3 0.7 0
3.6 0.7 0
3.9 0.7 0
4.2 0.7 0
4.5 0.7 0
4.8 0.7 0
5.1 0.7 0
5.4 0.7 0
5.7 0.7 0
6 0.7 0
6.3 0.7 0
6.6 0.7 0
6.9 0.7 0
7.2 0.7 0
7.5 0.7 0
7.8 0.7 0
8.1 0.7 0
8.4 0.7 0
8.7 0.7 0
9 0.7 0
9.3 0.7 0
9.6 0.7 0
9.9 0.7 0
10.2 0.7 0
10.5 0.7 0
10.8 0.7 0
11.1 0.7 0
11.4 0.7 0
11.7 0.7 0
12 0.7 0
12.3 0.7 0
12.6 0.7 0
12.9 0.7 0
13.2 0.7 0
13.5 0.7 0
13.8 0.7 0
14.1 0.7 0
14.4 0.7 0
14.7 0.7 0
15 0.7 0
15.3 0.7 0
15.6 0.7 0
15.9 0.7 0
16.2 0.7 0
16.5 0.7 0
16.8 0.7 0
17.1 0.7 0
17.4 0.7 0
17.7 0.7 0
18 0.7 0
18.3 0.7 0
18.6 0.7 0
18.9 0.7 0
19.2 0.7 0
19.5 0.7 0
19.8 0.7 0
20.1 0.7 0
20.4 0.7 0
20.7 0.7 0
21 0.7 0
21.3 0.7 0
21.6 0.7 0
21.9 0.7 0
22.2 0.7 0
22.5 0.7 0
22.8 0.7 0
23.1 0.7 0
23.4 0.7 0
23.7 0.7 0
24 0.7 0
24.3 0.7 0
24.6 0.7 0
24.9 0.7 0
25.2 0.7 0
25.5 0.7 0
25.8 0.7 0
26.1 0.7 0
26.4 0.7 0
26.7 0.7 0
27 0.7 0
27.3 0.7 0
27.6 0.7 0
27.9 0.7 0
28.2 0.7 0
28.5 0.7 0
28.8 0.7 0
29.1 0.7 0
29.4 0.7 0
29.7 0.7 0
30 0.7 0
30.3 0.7 0
0 0.8 0
0.3 0.8 0
0.6 0.8 0
0.9 0.8 0
1.2 0.8 0
1.5 0.8 0
1.8 0.8 0
2.1 0.8 0
2.4 0.8 0
2.7 0.8 0
3 0.8 0
3.3 0.8 0
3.6 0.8 0
3.9 0.8 0
4.2 0.8 0
4.5 0.8 0
4.8 0.8 0
5.1 0.8 0
5.4 0.8 0
5.7 0.8 0
6 0.8 0
6.3 0.8 0
6.6 0.8 0
6.9 0.8 0
7.2 0.8 0
7.5 0.8 0
7.8 0.8 0
8.1 0.8 0
8.4 0.8 0
8.7 0.8 0
9 0.8 0
9.3 0.8 0
9.6 0.8 0
9.9 0.8 0
10.2 0.8 0
10.5 0.8 0
10.8 0.8 0
11.1 0.8 0
11.4 0.8 0
11.7 0.8 0
12 0.8 0
12.3 0.8 0
12.6 0.8 0
12.9 0.8 0
13.2 0.8 0
13.5 0.8 0
13.8 0.8 0
14.1 0.8 0
14.4 0.8 0
14.7 0.8 0
15 0.8 0
15.3 0.8 0
15.6 0.8 0
15.9 0.8 0
16.2 0.8 0
16.5 0.8 0
16.8 0.8 0
17.1 0.8 0
17.4 0.8 0
17.7 0.8 0
18 0.8 0
18.3 0.8 0
18.6 0.8 0
18.9 0.8 0
19.2 0.8 0
19.5 0.8 0
19.8 0.8 0
20.1 0.8 0
20.4 0.8 0
20.7 0.8 0
21 0.8 0
21.3 0.8 0
21.6 0.8 0
21.9 0.8 0
22.2 0.8 0
22.5 0.8 0
22.8 0.8 0
23.1 0.8 0
23.4 0.8 0
23.7 0.8 0
24 0.8 0
24.3 0.8 0
24.6 0.8 0
24.9 0.8 0
25.2 0.8 0
25.5 0.8 0
25.8 0.8 0
26.1 0.8 0
26.4 0.8 0
26.7 0.8 0
27 0.8 0
27.3 0.8 0
27.6 0.8 0
27.9 0.8 0
28.2 0.8 0
28.5 0.8 0
28.8 0.8 0
29.1 0.8 0
29.4 0.8 0
29.7 0.8 0
30 0.8 0
30.3 0.8 0
0 0.9 0
0.3 0.9 0
0.6 0.9 0
0.9 0.9 0
1.2 0.9 0
1.5 0.9 0
1.8 0.9 0
2.1 0.9 0
2.4 0.9 0
2.7 0.9 0
3 0.9 0
3.3 0.9 0
3.6 0.9 0
3.9 0.9 0
4.2 0.9 0
4.5 0.9 0
4.8 0.9 0
5.1 0.9 0
5.4 0.9 0
5.7 0.9 0
6 0.9 0
6.3 0.9 0
6.6 0.9 0
6.9 0.9 0
7.2 0.9 0
7.5 0.9 0
7.8 0.9 0
8.1 0.9 0
8.4 0.9 0
8.7 0.9 0
9 0.9 0
9.3 0.9 0
9.6 0.9 0
9.9 0.9 0
10.2 0.9 0
10.5 0.9 0
10.8 0.9 0
11.1 0.9 0
11.4 0.9 0
11.7 0.9 0
12 0.9 0
12.3 0.9 0
12.6 0.9 0
12.9 0.9 0
13.2 0.9 0
13.5 0.9 0
13.8 0.9 0
14.1 0.9 0
14.4 0.9 0
14.7 0.9 0
15 0.9 0
15.3 0.9 0
15.6 0.9 0
15.9 0.9 0
16.2 0.9 0
16.5 0.9 0
16.8 0.9 0
17.1 0.9 0
17.4 0.9 0
17.7 0.9 0
18 0.9 0
18.3 0.9 0
18.6 0.9 0
18.9 0.9 0
19.2 0.9 0
19.5 0.9 0
19.8 0.9 0
20.1 0.9 0
20.4 0.9 0
20.7 0.9 0
21 0.9 0
21.3 0.9 0
21.6 0.9 0
21.9 0.9 0
22.2 0.9 0
22.5 0.9 0
22.8 0.9 0
23.1 0.9 0
23.4 0.9 0
23.7 0.9 0
24 0.9 0
24.3 0.9 0
24.6 0.9 0
24.9 0.9 0
25.2 0.9 0
25.5 0.9 0
25.8 0.9 0
26.1 0.9 0
26.4 0.9 0
26.7 0.9 0
27 0.9 0
27.3 0.9 0
27.6 0.9 0
27.9 0.9 0
28.2 0.9 0
28.5 0.9 0
28.8 0.9 0
29.1 0.9 0
29.4 0.9 0
29.7 0.9 0
30 0.9 0
30.3 0.9 0
0 1 0
0.3 1 0
0.6 1 0
0.9 1 0
1.2 1 0
1.5 1 0
1.8 1 0
2.1 1 0
2.4 1 0
2.7 1 0
3 1 0
3.3 1 0
3.6 1 0
3.9 1 0
4.2 1 0
4.5 1 0
4.8 1 0
5.1 1 0
5.4 1 0
5.7 1 0
6 1 0
6.3 1 0
6.6 1 0
6.9 1 0
7.2 1 0
7.5 1 0
7.8 1 0
8.1 1 0
8.4 1 0
8.7 1 0
9 1 0
9.3 1 0
9.6 1 0
9.9 1 0
10.2 1 0
10.5 1 0
10.8 1 0
11.1 1 0
11.4 1 0
11.7 1 0
12 1 0
12.3 1 0
12.6 1 0
12.9 1 0
13.2 1 0
13.5 1 0
13.8 1 0
14.1 1 0
14.4 1 0
14.7 1 0
15 1 0
15.3 1 0
15.6 1 0
15.9 1 0
16.2 1 0
16.5 1 0
16.8 1 0
17.1 1 0
17.4 1 0
17.7 1 0
18 1 0
18.3 1 0
18.6 1 0
18.9 1 0
19.2 1 0
19.5 1 0
19.8 1 0
20.1 1 0
20.4 1 0
20.7 1 0
21 1 0
21.3 1 0
21.6 1 0
21.9 1 0
22.2 1 0
22.5 1 0
22.8 1 0
23.1 1 0
23.4 1 0
23.7 1 0
24 1 0
24.3 1 0
24.6 1 0
24.9 1 0
25.2 1 0
25.5 1 0
25.8 1 0
26.1 1 0
26.4 1 0
26.7 1 0
27 1 0
27.3 1 0
27.6 1 0
27.9 1 0
28.2 1 0
28.5 1 0
28.8 1 0
29.1 1 0
29.4 1 0
29.7 1 0
30 1 0
30.3 1 0
0 1.1 0
0.3 1.1 0
0.6 1.1 0
0.9 1.1 0
1.2 1.1 0
1.5 1.1 0
1.8 1.1 0
2.1 1.1 0
2.4 1.1 0
2.7 1.1 0
3 1.1 0
3.3 1.1 0
3.6 1.1 0
3.9 1.1 0
4.2 1.1 0
4.5 1.1 0
4.8 1.1 0
5.1 1.1 0
5.4 1.1 0
5.7 1.1 0
6 1.1 0
6.3 1.1 0
6.6 1.1 0
6.9 1.1 0
7.2 1.1 0
7.5 1.1 0
7.8 1.1 0
8.1 1.1 0
8.4 1.1 0
8.7 1.1 0
9 1.1 0
9.3 1.1 0
9.6 1.1 0
9.9 1.1 0
10.2 1.1 0
10.5 1.1 0
10.8 1.1 0
11.1 1.1 0
11.4 1.1 0
11.7 1.1 0
12 1.1 0
12.3 1.1 0
12.6 1.1 0
12.9 1.1 0
13.2 1.1 0
13.5 1.1 0
13.8 1.1 0
14.1 1.1 0
14.4 1.1 0
14.7 1.1 0
15 1.1 0
15.3 1.1 0
15.6 1.1 0
15.9 1.1 0
16.2 1.1 0
16.5 1.1 0
16.8 1.1 0
17.1 1.1 0
17.4 1.1 0
17.7 1.1 0
18 1.1 0
18.3 1.1 0
18.6 1.1 0
18.9 1.1 0
19.2 1.1 0
19.5 1.1 0
19.8 1.1 0
20.1 1.1 0
20.4 1.1 0
20.7 1.1 0
21 1.1 0
21.3 1.1 0
21.6 1.1 0
21.9 1.1 0
22.2 1.1 0
22.5 1.1 0
22.8 1.1 0
23.1 1.1 0
23.4 1.1 0
23.7 1.1 0
24 1.1 0
24.3 1.1 0
24.6 1.1 0
24.9 1.1 0
25.2 1.1 0
25.5 1.1 0
25.8 1.1 0
26.1 1.1 0
26.4 1.1 0
26.7 1.1 0
27 1.1 0
27.3 1.1 0
27.6 1.1 0
27.9 1.1 0
28.2 1.1 0
28.5 1.1 0
28.8 1.1 0
29.1 1.1 0
29.4 1.1 0
29.7 1.1 0
30 1.1 0
30.3 1.1 0
0 1.2 0
0.3 1.2 0
0.6 1.2 0
0.9 1.2 0
1.2 1.2 0
1.5 1.2 0
1.8 1.2 0
2.1 1.2 0
2.4 1.2 0
2.7 1.2 0
3 1.2 0
3.3 1.2 0
3.6 1.2 0
3.9 1.2 0
4.2 1.2 0
4.5 1.2 0
4.8 1.2 0
5.1 1.2 0
5.4 1.2 0
5.7 1.2 0
6 1.2 0
6.3 1.2 0
6.6 1.2 0
6.9 1.2 0
7.2 1.2 0
7.5 1.2 0
7.8 1.2 0
8.1 1.2 0
8.4 1.2 0
8.7 1.2 0
9 1.2 0
9.3 1.2 0
9.6 1.2 0
9.9 1.2 0
10.2 1.2 0
10.5 1.2 0
10.8 1.2 0
11.1 1.2 0
11.4 1.2 0
11.7 1.2 0
12 1.2 0
12.3 1.2 0
12.6 1.2 0
12.9 1.2 0
13.2 1.2 0
13.5 1.2 0
13.8 1.2 0
14.1 1.2 0
14.4 1.2 0
14.7 1.2 0
15 1.2 0
15.3 1.2 0
15.6 1.2 0
15.9 1.2 0
16.2 1.2 0
16.5 1.2 0
16.8 1.2 0
17.1 1.2 0
17.4 1.2 0
17.7 1.2 0
18 1.2 0
18.3 1.2 0
18.6 1.2 0
18.9 1.2 0
19.2 1.2 0
19.5 1.2 0
19.8 1.2 0
20.1 1.2 0
20.4 1.2 0
20.7 1.2 0
21 1.2 0
21.3 1.2 0
21.6 1.2 0
21.9 1.2 0
22.2 1.2 0
22.5 1.2 0
22.8 1.2 0
23.1 1.2 0
23.4 1.2 0
23.7 1.2 0
24 1.2 0
24.3 1.2 0
24.6 1.2 0
24.9 1.2 0
25.2 1.2 0
25.5 1.2 0
25.8 1.2 0
26.1 1.2 0
26.4 1.2 0
26.7 1.2 0
27 1.2 0
27.3 1.2 0
27.6 1.2 0
27.9 1.2 0
28.2 1.2 0
28.5 1.2 0
28.8 1.2 0
29.1 1.2 0
29.4 1.2 0
29.7 1.2 0
30 1.2 0
30.3 1.2 0

POINT_DATA 1326

SCALARS v double
LOOKUP_TABLE default
0
0
0
0
0
0
0
0
0
0
0
0
0
0
0
0
0
0
0
0
0
0
0
0
0
0
0
0
0
0
0
0
0
0
0
0
0
0
0
0
0
0
0
0
0
0
0
0
0
0
0
0
0
0
0
0
0
0
0
0
0
0
0
0
0
0
0
0
0
0
0
0
0
0
0
0
0
0
0
0
0
0
0
0
0
0
0
0
0
0
0
0
0
0
0
0
0
0
0
0
0
0
-0.0370799
0.0370799
0.0391132
0.0336313
0.0272525
0.0213215
0.0162805
0.0122494
0.00917271
0.006904
0.00526867
0.00410324
0.00327334
0.00267717
0.00224162
0.00191616
0.00166661
0.00147002
0.00131107
0.00117956
0.00106863
0.000973482
0.000890779
0.000818123
0.000753761
0.000696345
0.000644808
0.00059832
0.000556228
0.000517964
0.000483046
0.000451094
0.000421787
0.000394827
0.000369962
0.000346985
0.000325709
0.000305972
0.000287636
0.000270573
0.000254661
0.00023981
0.00022594
0.000212966
0.000200812
0.000189419
0.000178734
0.000168702
0.000159276
0.000150414
0.000142078
0.00013423
0.000126841
0.000119879
0.000113316
0.000107127
0.00010129
9.57829e-05
9.05848e-05
8.56783e-05
8.10462e-05
7.66731e-05
7.25452e-05
6.86487e-05
6.49702e-05
6.14975e-05
5.82186e-05
5.51213e-05
5.21919e-05
4.94164e-05
4.67821e-05
4.42751e-05
4.18802e-05
3.95827e-05
3.73696e-05
3.52283e-05
3.31478e-05
3.11188e-05
2.91342e-05
2.71891e-05
2.52819e-05
2.34136e-05
2.15862e-05
1.98043e-05
1.80743e-05
1.64037e-05
1.48002e-05
1.32711e-05
1.18238e-05
1.04647e-05
9.19892e-06
8.0299e-06
6.96014e-06
5.9887e-06
5.11673e-06
4.33518e-06
3.64329e-06
3.04493e-06
2.2831e-06
2.10064e-06
-5.11307e-07
-5.11307e-07
-0.0282544
0.0282544
0.038741
0.0375699
0.0331777
0.0280244
0.0230972
0.0188234
0.0153293
0.0125738
0.0104408
0.00879737
0.00752358
0.00652316
0.00572375
0.00507307
0.00453393
0.0040799
0.00369218
0.0033572
0.00306497
0.00280794
0.00258029
0.00237749
0.00219594
0.00203265
0.00188519
0.00175154
0.00163002
0.00151917
0.00141775
0.00132474
0.00123922
0.00116041
0.00108763
0.00102028
0.000957849
0.000899878
0.000845969
0.00079576
0.000748931
0.000705209
0.000664347
0.00062611
0.000590293
0.000556719
0.000525224
0.000495654
0.000467872
0.000441757
0.000417191
0.000394072
0.000372306
0.000351802
0.000332478
0.000314261
0.000297084
0.00028088
0.000265591
0.000251163
0.000237545
0.000224692
0.00021256
0.000201108
0.000190296
0.000180086
0.000170439
0.000161319
0.000152684
0.000144494
0.00013671
0.000129288
0.000122187
0.000115367
0.000108789
0.000102419
9.62276e-05
9.01903e-05
8.42895e-05
7.85146e-05
7.28628e-05
6.73376e-05
6.1948e-05
5.67086e-05
5.16381e-05
4.67575e-05
4.20884e-05
3.76517e-05
3.34668e-05
2.95504e-05
2.5915e-05
2.25687e-05
1.95158e-05
1.67531e-05
1.42792e-05
1.20716e-05
1.01346e-05
8.39792e-06
6.63174e-06
5.15347e-06
-1.56225e-06
-1.56225e-06
-0.0177597
0.0177597
0.0281239
0.029097
0.0269195
0.0237
0.0203368
0.0172613
0.0146483
0.01252
0.0108215
0.00947159
0.00839006
0.00751005
0.00678035
0.00616367
0.00563339
0.00517063
0.00476197
0.00439773
0.00407069
0.00377535
0.00350738
0.00326336
0.00304045
0.00283625
0.00264873
0.00247618
0.00231708
0.0021701
0.00203409
0.00190805
0.00179107
0.00168233
0.00158114
0.00148685
0.00139889
0.00131676
0.00123999
0.00116816
0.0011009
0.00103787
0.000978761
0.000923286
0.000871188
0.000822239
0.000776221
0.000732933
0.000692197
0.000653845
0.000617722
0.000583685
0.000551606
0.000521359
0.00049283
0.000465917
0.000440521
0.000416551
0.000393924
0.000372561
0.000352389
0.000333343
0.000315357
0.000298372
0.00028233
0.000267176
0.000252853
0.000239307
0.00022648
0.000214313
0.00020275
0.000191729
0.000181191
0.000171079
0.000161337
0.000151916
0.000142772
0.000133868
0.000125177
0.000116682
0.000108376
0.00010026
9.2346e-05
8.46515e-05
7.72012e-05
7.00233e-05
6.31477e-05
5.66042e-05
5.04205e-05
4.4621e-05
3.92248e-05
3.42449e-05
2.96884e-05
2.55536e-05
2.18381e-05
1.85163e-05
1.55911e-05
1.29521e-05
1.04285e-05
7.78587e-06
-2.28069e-06
-2.28069e-06
-0.00966194
0.00966194
0.0165163
0.017616
0.016649
0.0149526
0.0130935
0.0113491
0.00984095
0.0085962
0.00759145
0.00678376
0.00612854
0.00558764
0.00513165
0.00473917
0.004395
0.0040885
0.00381231
0.00356118
0.00333131
0.00311981
0.00292449
0.00274361
0.00257573
0.00241962
0.00227423
0.00213866
0.00201211
0.00189384
0.00178322
0.00167967
0.00158267
0.00149173
0.00140643
0.00132636
0.00125116
0.0011805
0.00111408
0.00105161
0.000992822
0.000937496
0.000885402
0.000836326
0.000790086
0.000746507
0.000705421
0.000666675
0.000630128
0.000595647
0.000563107
0.000532394
0.000503401
0.000476024
0.00045017
0.000425751
0.000402684
0.000380892
0.000360301
0.000340846
0.000322463
0.000305092
0.000288679
0.00027317
0.000258513
0.000244661
0.000231563
0.000219171
0.000207434
0.000196301
0.000185722
0.000175643
0.000166013
0.000156779
0.000147895
0.000139314
0.000130997
0.00012291
0.000115027
0.00010733
9.98109e-05
9.24677e-05
8.5307e-05
7.83427e-05
7.15941e-05
6.50842e-05
5.8838e-05
5.28813e-05
4.72386e-05
4.19317e-05
3.69786e-05
3.23923e-05
2.81806e-05
2.43445e-05
2.08825e-05
1.77771e-05
1.50266e-05
1.25453e-05
1.01901e-05
7.63175e-06
-2.03446e-06
-2.03446e-06
-0.00306439
0.00306439
0.0054217
0.00585219
0.00557283
0.00504138
0.00444938
0.00388978
0.00340388
0.00300173
0.00267645
0.00241445
0.00220131
0.00202461
0.00187478
0.00174487
0.00162995
0.00152661
0.00143254
0.00134614
0.00126624
0.00119198
0.00112273
0.00105802
0.000997422
0.000940588
0.000887231
0.000837115
0.00079
0.000745668
0.000703948
0.000664674
0.00062768
0.00059282
0.000559968
0.000529
0.000499798
0.000472257
0.000446277
0.000421761
0.000398627
0.000376798
0.00035619
0.00033673
0.000318357
0.000301009
0.000284624
0.000269146
0.000254525
0.000240713
0.000227661
0.000215329
0.000203675
0.00019266
0.000182249
0.000172409
0.000163106
0.000154312
0.000145998
0.000138139
0.000130708
0.000123685
0.000117045
0.000110769
0.000104836
9.9227e-05
9.39224e-05
8.89024e-05
8.41465e-05
7.96355e-05
7.53493e-05
7.12664e-05
6.73657e-05
6.36274e-05
6.00322e-05
5.65619e-05
5.32004e-05
4.9934e-05
4.67518e-05
4.36465e-05
4.0614e-05
3.76531e-05
3.47659e-05
3.19573e-05
2.92348e-05
2.66069e-05
2.40833e-05
2.1674e-05
1.9389e-05
1.72368e-05
1.5225e-05
1.33588e-05
1.16418e-05
1.00748e-05
8.65762e-06
7.38418e-06
6.25322e-06
5.23326e-06
4.26681e-06
3.1994e-06
-8.12081e-07
-8.12081e-07
0.00306442
-0.00306442
-0.00542174
-0.00585227
-0.00557289
-0.00504142
-0.00444944
-0.00388986
-0.00340393
-0.00300176
-0.00267651
-0.00241449
-0.00220133
-0.00202465
-0.00187484
-0.0017449
-0.00162996
-0.00152664
-0.00143259
-0.00134617
-0.00126625
-0.001192
-0.00112277
-0.00105804
-0.00099743
-0.000940605
-0.000887262
-0.000837134
-0.000790009
-0.000745689
-0.000703972
-0.000664689
-0.000627694
-0.00059284
-0.000559988
-0.000529017
-0.000499816
-0.000472273
-0.000446292
-0.000421781
-0.000398649
-0.000376813
-0.000356204
-0.000336749
-0.000318377
-0.000301027
-0.000284641
-0.000269165
-0.000254544
-0.000240731
-0.00022768
-0.000215347
-0.000203692
-0.000192678
-0.000182267
-0.000172425
-0.000163122
-0.000154327
-0.000146012
-0.000138151
-0.000130719
-0.000123693
-0.000117051
-0.000110772
-0.000104837
-9.92239e-05
-9.39147e-05
-8.88901e-05
-8.41307e-05
-7.96155e-05
-7.53241e-05
-7.12367e-05
-6.73324e-05
-6.35909e-05
-5.99928e-05
-5.65203e-05
-5.31573e-05
-4.98906e-05
-4.67094e-05
-4.3606e-05
-4.0576e-05
-3.76187e-05
-3.47363e-05
-3.19333e-05
-2.92167e-05
-2.65951e-05
-2.40784e-05
-2.16764e-05
-1.93986e-05
-1.72536e-05
-1.52485e-05
-1.33886e-05
-1.16774e-05
-1.01156e-05
-8.70245e-06
-7.4318e-06
-6.30181e-06
-5.28066e-06
-4.3077e-06
-3.23298e-06
8.14841e-07
8.14841e-07
0.00966197
-0.00966197
-0.0165164
-0.017616
-0.016649
-0.0149526
-0.0130936
-0.0113491
-0.00984099
-0.00859623
-0.00759151
-0.00678381
-0.00612855
-0.00558767
-0.0051317
-0.0047392
-0.00439501
-0.00408853
-0.00381235
-0.00356121
-0.00333132
-0.00311983
-0.00292452
-0.00274364
-0.00257575
-0.00241964
-0.00227426
-0.00213868
-0.00201212
-0.00189386
-0.00178324
-0.00167969
-0.00158269
-0.00149175
-0.00140645
-0.00132638
-0.00125118
-0.00118052
-0.0011141
-0.00105163
-0.000992845
-0.000937515
-0.000885418
-0.000836347
-0.000790107
-0.000746527
-0.000705441
-0.000666695
-0.000630147
-0.000595666
-0.000563128
-0.000532415
-0.00050342
-0.000476044
-0.00045019
-0.00042577
-0.000402702
-0.000380909
-0.000360317
-0.000340861
-0.000322476
-0.000305104
-0.000288688
-0.000273176
-0.000258517
-0.000244662
-0.00023156
-0.000219164
-0.000207423
-0.000196287
-0.000185703
-0.000175621
-0.000165987
-0.000156751
-0.000147864
-0.000139281
-0.000130962
-0.000122875
-0.000114993
-0.000107297
-9.97801e-05
-9.24396e-05
-8.52828e-05
-7.83231e-05
-7.15794e-05
-6.50748e-05
-5.88343e-05
-5.28836e-05
-4.7247e-05
-4.19461e-05
-3.69987e-05
-3.24177e-05
-2.82109e-05
-2.43792e-05
-2.09207e-05
-1.78176e-05
-1.50679e-05
-1.25857e-05
-1.02239e-05
-7.65978e-06
2.03673e-06
2.03673e-06
0.0177598
-0.0177598
-0.028124
-0.029097
-0.0269196
-0.0237001
-0.0203368
-0.0172614
-0.0146483
-0.01252
-0.0108216
-0.00947164
-0.00839008
-0.00751007
-0.00678039
-0.00616371
-0.00563341
-0.00517065
-0.00476201
-0.00439776
-0.00407071
-0.00377537
-0.00350741
-0.00326339
-0.00304047
-0.00283627
-0.00264876
-0.0024762
-0.0023171
-0.00217012
-0.00203412
-0.00190808
-0.00179109
-0.00168235
-0.00158116
-0.00148687
-0.00139892
-0.00131678
-0.00124001
-0.00116818
-0.00110092
-0.00103789
-0.000978782
-0.000923307
-0.000871212
-0.000822262
-0.000776243
-0.000732956
-0.000692219
-0.000653867
-0.000617745
-0.000583709
-0.000551628
-0.000521381
-0.000492852
-0.000465939
-0.000440542
-0.000416571
-0.000393943
-0.000372579
-0.000352407
-0.000333359
-0.000315371
-0.000298384
-0.000282341
-0.000267184
-0.000252858
-0.000239309
-0.000226479
-0.00021431
-0.000202743
-0.00019172
-0.000181179
-0.000171065
-0.000161321
-0.000151898
-0.000142753
-0.000133848
-0.000125157
-0.000116663
-0.000108358
-0.000100244
-9.23321e-05
-8.46405e-05
-7.71933e-05
-7.00188e-05
-6.31468e-05
-5.66072e-05
-5.04276e-05
-4.46321e-05
-3.92396e-05
-3.42632e-05
-2.97099e-05
-2.55782e-05
-2.1865e-05
-1.85448e-05
-1.56198e-05
-1.29798e-05
-1.04512e-05
-7.80336e-06
2.28302e-06
2.28302e-06
0.0282545
-0.0282545
-0.0387411
-0.0375699
-0.0331777
-0.0280244
-0.0230972
-0.0188234
-0.0153293
-0.0125738
-0.0104408
-0.00879742
-0.00752361
-0.00652317
-0.00572378
-0.00507311
-0.00453395
-0.00407992
-0.0036922
-0.00335724
-0.003065
-0.00280796
-0.00258031
-0.00237752
-0.00219596
-0.00203267
-0.00188521
-0.00175157
-0.00163004
-0.00151919
-0.00141778
-0.00132477
-0.00123925
-0.00116044
-0.00108765
-0.00102031
-0.000957876
-0.000899904
-0.000845992
-0.000795782
-0.000748957
-0.000705238
-0.000664372
-0.000626133
-0.000590318
-0.000556746
-0.00052525
-0.000495679
-0.000467898
-0.000441782
-0.000417217
-0.000394098
-0.000372331
-0.000351826
-0.000332503
-0.000314287
-0.000297108
-0.000280904
-0.000265614
-0.000251186
-0.000237568
-0.000224714
-0.000212581
-0.000201127
-0.000190314
-0.000180103
-0.000170455
-0.000161332
-0.000152696
-0.000144505
-0.000136718
-0.000129295
-0.000122192
-0.00011537
-0.000108791
-0.00010242
-9.62274e-05
-9.01893e-05
-8.4288e-05
-7.85131e-05
-7.28613e-05
-6.73361e-05
-6.19471e-05
-5.67086e-05
-5.16391e-05
-4.67595e-05
-4.20914e-05
-3.76561e-05
-3.34728e-05
-2.95579e-05
-2.59241e-05
-2.25792e-05
-1.95275e-05
-1.67659e-05
-1.42929e-05
-1.20859e-05
-1.01488e-05
-8.41073e-06
-6.64206e-06
-5.15893e-06
1.56497e-06
1.56497e-06
0.0370799
-0.0370799
-0.0391133
-0.0336313
-0.0272525
-0.0213215
-0.0162806
-0.0122495
-0.00917275
-0.00690402
-0.0052687
-0.00410328
-0.00327338
-0.00267718
-0.00224164
-0.00191621
-0.00166665
-0.00147003
-0.00131109
-0.0011796
-0.00106866
-0.000973505
-0.000890801
-0.000818154
-0.000753794
-0.00069637
-0.000644831
-0.000598352
-0.000556258
-0.000517986
-0.000483072
-0.000451128
-0.000421817
-0.000394851
-0.000369987
-0.000347013
-0.000325738
-0.000306002
-0.000287664
-0.000270596
-0.000254688
-0.000239842
-0.00022597
-0.000212991
-0.000200839
-0.000189448
-0.000178762
-0.00016873
-0.000159304
-0.000150442
-0.000142105
-0.000134258
-0.000126869
-0.000119906
-0.000113343
-0.000107155
-0.000101318
-9.58098e-05
-9.06117e-05
-8.57051e-05
-8.10727e-05
-7.66994e-05
-7.25711e-05
-6.8674e-05
-6.49952e-05
-6.15222e-05
-5.82429e-05
-5.51448e-05
-5.22146e-05
-4.9439e-05
-4.68043e-05
-4.42963e-05
-4.19003e-05
-3.96024e-05
-3.73887e-05
-3.52466e-05
-3.31651e-05
-3.11351e-05
-2.91494e-05
-2.72035e-05
-2.52955e-05
-2.34258e-05
-2.15973e-05
-1.98144e-05
-1.80835e-05
-1.64118e-05
-1.4807e-05
-1.32771e-05
-1.1829e-05
-1.04692e-05
-9.2028e-06
-8.03324e-06
-6.96293e-06
-5.9909e-06
-5.11869e-06
-4.33676e-06
-3.64442e-06
-3.04543e-06
-2.28259e-06
-2.09718e-06
5.14806e-07
5.14806e-07
0
0
0
0
0
0
0
0
0
0
0
0
0
0
0
0
0
0
0
0
0
0
0
0
0
0
0
0
0
0
0
0
0
0
0
0
0
0
0
0
0
0
0
0
0
0
0
0
0
0
0
0
0
0
0
0
0
0
0
0
0
0
0
0
0
0
0
0
0
0
0
0
0
0
0
0
0
0
0
0
0
0
0
0
0
0
0
0
0
0
0
0
0
0
0
0
0
0
0
0
0
0
0
0
0
0
0
0
0
0
0
0
0
0
0
0
0
0
0
0
0
0
0
0
0
0
0
0
0
0
0
0
0
0
0
0
0
0
0
0
0
0
0
0
0
0
0
0
0
0
0
0
0
0
0
0
0
0
0
0
0
0
0
0
0
0
0
0
0
0
0
0
0
0
0
0
0
0
0
0
0
0
0
0
0
0
0
0
0
0
0
0
0
0
0
0
0
0
0
0
0
0
0
0
