# vtk DataFile Version 2.0
FlowField
ASCII
DATASET STRUCTURED_GRID
DIMENSIONS 102 1 12 
POINTS 1224 double
0 0 0
0.4 0 0
0.8 0 0
1.2 0 0
1.6 0 0
2 0 0
2.4 0 0
2.8 0 0
3.2 0 0
3.6 0 0
4 0 0
4.4 0 0
4.8 0 0
5.2 0 0
5.6 0 0
6 0 0
6.4 0 0
6.8 0 0
7.2 0 0
7.6 0 0
8 0 0
8.4 0 0
8.8 0 0
9.2 0 0
9.6 0 0
10 0 0
10.4 0 0
10.8 0 0
11.2 0 0
11.6 0 0
12 0 0
12.4 0 0
12.8 0 0
13.2 0 0
13.6 0 0
14 0 0
14.4 0 0
14.8 0 0
15.2 0 0
15.6 0 0
16 0 0
16.4 0 0
16.8 0 0
17.2 0 0
17.6 0 0
18 0 0
18.4 0 0
18.8 0 0
19.2 0 0
19.6 0 0
20 0 0
20.4 0 0
20.8 0 0
21.2 0 0
21.6 0 0
22 0 0
22.4 0 0
22.8 0 0
23.2 0 0
23.6 0 0
24 0 0
24.4 0 0
24.8 0 0
25.2 0 0
25.6 0 0
26 0 0
26.4 0 0
26.8 0 0
27.2 0 0
27.6 0 0
28 0 0
28.4 0 0
28.8 0 0
29.2 0 0
29.6 0 0
30 0 0
30.4 0 0
30.8 0 0
31.2 0 0
31.6 0 0
32 0 0
32.4 0 0
32.8 0 0
33.2 0 0
33.6 0 0
34 0 0
34.4 0 0
34.8 0 0
35.2 0 0
35.6 0 0
36 0 0
36.4 0 0
36.8 0 0
37.2 0 0
37.6 0 0
38 0 0
38.4 0 0
38.8 0 0
39.2 0 0
39.6 0 0
40 0 0
40.4 0 0
0 0.1 0
0.4 0.1 0
0.8 0.1 0
1.2 0.1 0
1.6 0.1 0
2 0.1 0
2.4 0.1 0
2.8 0.1 0
3.2 0.1 0
3.6 0.1 0
4 0.1 0
4.4 0.1 0
4.8 0.1 0
5.2 0.1 0
5.6 0.1 0
6 0.1 0
6.4 0.1 0
6.8 0.1 0
7.2 0.1 0
7.6 0.1 0
8 0.1 0
8.4 0.1 0
8.8 0.1 0
9.2 0.1 0
9.6 0.1 0
10 0.1 0
10.4 0.1 0
10.8 0.1 0
11.2 0.1 0
11.6 0.1 0
12 0.1 0
12.4 0.1 0
12.8 0.1 0
13.2 0.1 0
13.6 0.1 0
14 0.1 0
14.4 0.1 0
14.8 0.1 0
15.2 0.1 0
15.6 0.1 0
16 0.1 0
16.4 0.1 0
16.8 0.1 0
17.2 0.1 0
17.6 0.1 0
18 0.1 0
18.4 0.1 0
18.8 0.1 0
19.2 0.1 0
19.6 0.1 0
20 0.1 0
20.4 0.1 0
20.8 0.1 0
21.2 0.1 0
21.6 0.1 0
22 0.1 0
22.4 0.1 0
22.8 0.1 0
23.2 0.1 0
23.6 0.1 0
24 0.1 0
24.4 0.1 0
24.8 0.1 0
25.2 0.1 0
25.6 0.1 0
26 0.1 0
26.4 0.1 0
26.8 0.1 0
27.2 0.1 0
27.6 0.1 0
28 0.1 0
28.4 0.1 0
28.8 0.1 0
29.2 0.1 0
29.6 0.1 0
30 0.1 0
30.4 0.1 0
30.8 0.1 0
31.2 0.1 0
31.6 0.1 0
32 0.1 0
32.4 0.1 0
32.8 0.1 0
33.2 0.1 0
33.6 0.1 0
34 0.1 0
34.4 0.1 0
34.8 0.1 0
35.2 0.1 0
35.6 0.1 0
36 0.1 0
36.4 0.1 0
36.8 0.1 0
37.2 0.1 0
37.6 0.1 0
38 0.1 0
38.4 0.1 0
38.8 0.1 0
39.2 0.1 0
39.6 0.1 0
40 0.1 0
40.4 0.1 0
0 0.2 0
0.4 0.2 0
0.8 0.2 0
1.2 0.2 0
1.6 0.2 0
2 0.2 0
2.4 0.2 0
2.8 0.2 0
3.2 0.2 0
3.6 0.2 0
4 0.2 0
4.4 0.2 0
4.8 0.2 0
5.2 0.2 0
5.6 0.2 0
6 0.2 0
6.4 0.2 0
6.8 0.2 0
7.2 0.2 0
7.6 0.2 0
8 0.2 0
8.4 0.2 0
8.8 0.2 0
9.2 0.2 0
9.6 0.2 0
10 0.2 0
10.4 0.2 0
10.8 0.2 0
11.2 0.2 0
11.6 0.2 0
12 0.2 0
12.4 0.2 0
12.8 0.2 0
13.2 0.2 0
13.6 0.2 0
14 0.2 0
14.4 0.2 0
14.8 0.2 0
15.2 0.2 0
15.6 0.2 0
16 0.2 0
16.4 0.2 0
16.8 0.2 0
17.2 0.2 0
17.6 0.2 0
18 0.2 0
18.4 0.2 0
18.8 0.2 0
19.2 0.2 0
19.6 0.2 0
20 0.2 0
20.4 0.2 0
20.8 0.2 0
21.2 0.2 0
21.6 0.2 0
22 0.2 0
22.4 0.2 0
22.8 0.2 0
23.2 0.2 0
23.6 0.2 0
24 0.2 0
24.4 0.2 0
24.8 0.2 0
25.2 0.2 0
25.6 0.2 0
26 0.2 0
26.4 0.2 0
26.8 0.2 0
27.2 0.2 0
27.6 0.2 0
28 0.2 0
28.4 0.2 0
28.8 0.2 0
29.2 0.2 0
29.6 0.2 0
30 0.2 0
30.4 0.2 0
30.8 0.2 0
31.2 0.2 0
31.6 0.2 0
32 0.2 0
32.4 0.2 0
32.8 0.2 0
33.2 0.2 0
33.6 0.2 0
34 0.2 0
34.4 0.2 0
34.8 0.2 0
35.2 0.2 0
35.6 0.2 0
36 0.2 0
36.4 0.2 0
36.8 0.2 0
37.2 0.2 0
37.6 0.2 0
38 0.2 0
38.4 0.2 0
38.8 0.2 0
39.2 0.2 0
39.6 0.2 0
40 0.2 0
40.4 0.2 0
0 0.3 0
0.4 0.3 0
0.8 0.3 0
1.2 0.3 0
1.6 0.3 0
2 0.3 0
2.4 0.3 0
2.8 0.3 0
3.2 0.3 0
3.6 0.3 0
4 0.3 0
4.4 0.3 0
4.8 0.3 0
5.2 0.3 0
5.6 0.3 0
6 0.3 0
6.4 0.3 0
6.8 0.3 0
7.2 0.3 0
7.6 0.3 0
8 0.3 0
8.4 0.3 0
8.8 0.3 0
9.2 0.3 0
9.6 0.3 0
10 0.3 0
10.4 0.3 0
10.8 0.3 0
11.2 0.3 0
11.6 0.3 0
12 0.3 0
12.4 0.3 0
12.8 0.3 0
13.2 0.3 0
13.6 0.3 0
14 0.3 0
14.4 0.3 0
14.8 0.3 0
15.2 0.3 0
15.6 0.3 0
16 0.3 0
16.4 0.3 0
16.8 0.3 0
17.2 0.3 0
17.6 0.3 0
18 0.3 0
18.4 0.3 0
18.8 0.3 0
19.2 0.3 0
19.6 0.3 0
20 0.3 0
20.4 0.3 0
20.8 0.3 0
21.2 0.3 0
21.6 0.3 0
22 0.3 0
22.4 0.3 0
22.8 0.3 0
23.2 0.3 0
23.6 0.3 0
24 0.3 0
24.4 0.3 0
24.8 0.3 0
25.2 0.3 0
25.6 0.3 0
26 0.3 0
26.4 0.3 0
26.8 0.3 0
27.2 0.3 0
27.6 0.3 0
28 0.3 0
28.4 0.3 0
28.8 0.3 0
29.2 0.3 0
29.6 0.3 0
30 0.3 0
30.4 0.3 0
30.8 0.3 0
31.2 0.3 0
31.6 0.3 0
32 0.3 0
32.4 0.3 0
32.8 0.3 0
33.2 0.3 0
33.6 0.3 0
34 0.3 0
34.4 0.3 0
34.8 0.3 0
35.2 0.3 0
35.6 0.3 0
36 0.3 0
36.4 0.3 0
36.8 0.3 0
37.2 0.3 0
37.6 0.3 0
38 0.3 0
38.4 0.3 0
38.8 0.3 0
39.2 0.3 0
39.6 0.3 0
40 0.3 0
40.4 0.3 0
0 0.4 0
0.4 0.4 0
0.8 0.4 0
1.2 0.4 0
1.6 0.4 0
2 0.4 0
2.4 0.4 0
2.8 0.4 0
3.2 0.4 0
3.6 0.4 0
4 0.4 0
4.4 0.4 0
4.8 0.4 0
5.2 0.4 0
5.6 0.4 0
6 0.4 0
6.4 0.4 0
6.8 0.4 0
7.2 0.4 0
7.6 0.4 0
8 0.4 0
8.4 0.4 0
8.8 0.4 0
9.2 0.4 0
9.6 0.4 0
10 0.4 0
10.4 0.4 0
10.8 0.4 0
11.2 0.4 0
11.6 0.4 0
12 0.4 0
12.4 0.4 0
12.8 0.4 0
13.2 0.4 0
13.6 0.4 0
14 0.4 0
14.4 0.4 0
14.8 0.4 0
15.2 0.4 0
15.6 0.4 0
16 0.4 0
16.4 0.4 0
16.8 0.4 0
17.2 0.4 0
17.6 0.4 0
18 0.4 0
18.4 0.4 0
18.8 0.4 0
19.2 0.4 0
19.6 0.4 0
20 0.4 0
20.4 0.4 0
20.8 0.4 0
21.2 0.4 0
21.6 0.4 0
22 0.4 0
22.4 0.4 0
22.8 0.4 0
23.2 0.4 0
23.6 0.4 0
24 0.4 0
24.4 0.4 0
24.8 0.4 0
25.2 0.4 0
25.6 0.4 0
26 0.4 0
26.4 0.4 0
26.8 0.4 0
27.2 0.4 0
27.6 0.4 0
28 0.4 0
28.4 0.4 0
28.8 0.4 0
29.2 0.4 0
29.6 0.4 0
30 0.4 0
30.4 0.4 0
30.8 0.4 0
31.2 0.4 0
31.6 0.4 0
32 0.4 0
32.4 0.4 0
32.8 0.4 0
33.2 0.4 0
33.6 0.4 0
34 0.4 0
34.4 0.4 0
34.8 0.4 0
35.2 0.4 0
35.6 0.4 0
36 0.4 0
36.4 0.4 0
36.8 0.4 0
37.2 0.4 0
37.6 0.4 0
38 0.4 0
38.4 0.4 0
38.8 0.4 0
39.2 0.4 0
39.6 0.4 0
40 0.4 0
40.4 0.4 0
0 0.5 0
0.4 0.5 0
0.8 0.5 0
1.2 0.5 0
1.6 0.5 0
2 0.5 0
2.4 0.5 0
2.8 0.5 0
3.2 0.5 0
3.6 0.5 0
4 0.5 0
4.4 0.5 0
4.8 0.5 0
5.2 0.5 0
5.6 0.5 0
6 0.5 0
6.4 0.5 0
6.8 0.5 0
7.2 0.5 0
7.6 0.5 0
8 0.5 0
8.4 0.5 0
8.8 0.5 0
9.2 0.5 0
9.6 0.5 0
10 0.5 0
10.4 0.5 0
10.8 0.5 0
11.2 0.5 0
11.6 0.5 0
12 0.5 0
12.4 0.5 0
12.8 0.5 0
13.2 0.5 0
13.6 0.5 0
14 0.5 0
14.4 0.5 0
14.8 0.5 0
15.2 0.5 0
15.6 0.5 0
16 0.5 0
16.4 0.5 0
16.8 0.5 0
17.2 0.5 0
17.6 0.5 0
18 0.5 0
18.4 0.5 0
18.8 0.5 0
19.2 0.5 0
19.6 0.5 0
20 0.5 0
20.4 0.5 0
20.8 0.5 0
21.2 0.5 0
21.6 0.5 0
22 0.5 0
22.4 0.5 0
22.8 0.5 0
23.2 0.5 0
23.6 0.5 0
24 0.5 0
24.4 0.5 0
24.8 0.5 0
25.2 0.5 0
25.6 0.5 0
26 0.5 0
26.4 0.5 0
26.8 0.5 0
27.2 0.5 0
27.6 0.5 0
28 0.5 0
28.4 0.5 0
28.8 0.5 0
29.2 0.5 0
29.6 0.5 0
30 0.5 0
30.4 0.5 0
30.8 0.5 0
31.2 0.5 0
31.6 0.5 0
32 0.5 0
32.4 0.5 0
32.8 0.5 0
33.2 0.5 0
33.6 0.5 0
34 0.5 0
34.4 0.5 0
34.8 0.5 0
35.2 0.5 0
35.6 0.5 0
36 0.5 0
36.4 0.5 0
36.8 0.5 0
37.2 0.5 0
37.6 0.5 0
38 0.5 0
38.4 0.5 0
38.8 0.5 0
39.2 0.5 0
39.6 0.5 0
40 0.5 0
40.4 0.5 0
0 0.6 0
0.4 0.6 0
0.8 0.6 0
1.2 0.6 0
1.6 0.6 0
2 0.6 0
2.4 0.6 0
2.8 0.6 0
3.2 0.6 0
3.6 0.6 0
4 0.6 0
4.4 0.6 0
4.8 0.6 0
5.2 0.6 0
5.6 0.6 0
6 0.6 0
6.4 0.6 0
6.8 0.6 0
7.2 0.6 0
7.6 0.6 0
8 0.6 0
8.4 0.6 0
8.8 0.6 0
9.2 0.6 0
9.6 0.6 0
10 0.6 0
10.4 0.6 0
10.8 0.6 0
11.2 0.6 0
11.6 0.6 0
12 0.6 0
12.4 0.6 0
12.8 0.6 0
13.2 0.6 0
13.6 0.6 0
14 0.6 0
14.4 0.6 0
14.8 0.6 0
15.2 0.6 0
15.6 0.6 0
16 0.6 0
16.4 0.6 0
16.8 0.6 0
17.2 0.6 0
17.6 0.6 0
18 0.6 0
18.4 0.6 0
18.8 0.6 0
19.2 0.6 0
19.6 0.6 0
20 0.6 0
20.4 0.6 0
20.8 0.6 0
21.2 0.6 0
21.6 0.6 0
22 0.6 0
22.4 0.6 0
22.8 0.6 0
23.2 0.6 0
23.6 0.6 0
24 0.6 0
24.4 0.6 0
24.8 0.6 0
25.2 0.6 0
25.6 0.6 0
26 0.6 0
26.4 0.6 0
26.8 0.6 0
27.2 0.6 0
27.6 0.6 0
28 0.6 0
28.4 0.6 0
28.8 0.6 0
29.2 0.6 0
29.6 0.6 0
30 0.6 0
30.4 0.6 0
30.8 0.6 0
31.2 0.6 0
31.6 0.6 0
32 0.6 0
32.4 0.6 0
32.8 0.6 0
33.2 0.6 0
33.6 0.6 0
34 0.6 0
34.4 0.6 0
34.8 0.6 0
35.2 0.6 0
35.6 0.6 0
36 0.6 0
36.4 0.6 0
36.8 0.6 0
37.2 0.6 0
37.6 0.6 0
38 0.6 0
38.4 0.6 0
38.8 0.6 0
39.2 0.6 0
39.6 0.6 0
40 0.6 0
40.4 0.6 0
0 0.7 0
0.4 0.7 0
0.8 0.7 0
1.2 0.7 0
1.6 0.7 0
2 0.7 0
2.4 0.7 0
2.8 0.7 0
3.2 0.7 0
3.6 0.7 0
4 0.7 0
4.4 0.7 0
4.8 0.7 0
5.2 0.7 0
5.6 0.7 0
6 0.7 0
6.4 0.7 0
6.8 0.7 0
7.2 0.7 0
7.6 0.7 0
8 0.7 0
8.4 0.7 0
8.8 0.7 0
9.2 0.7 0
9.6 0.7 0
10 0.7 0
10.4 0.7 0
10.8 0.7 0
11.2 0.7 0
11.6 0.7 0
12 0.7 0
12.4 0.7 0
12.8 0.7 0
13.2 0.7 0
13.6 0.7 0
14 0.7 0
14.4 0.7 0
14.8 0.7 0
15.2 0.7 0
15.6 0.7 0
16 0.7 0
16.4 0.7 0
16.8 0.7 0
17.2 0.7 0
17.6 0.7 0
18 0.7 0
18.4 0.7 0
18.8 0.7 0
19.2 0.7 0
19.6 0.7 0
20 0.7 0
20.4 0.7 0
20.8 0.7 0
21.2 0.7 0
21.6 0.7 0
22 0.7 0
22.4 0.7 0
22.8 0.7 0
23.2 0.7 0
23.6 0.7 0
24 0.7 0
24.4 0.7 0
24.8 0.7 0
25.2 0.7 0
25.6 0.7 0
26 0.7 0
26.4 0.7 0
26.8 0.7 0
27.2 0.7 0
27.6 0.7 0
28 0.7 0
28.4 0.7 0
28.8 0.7 0
29.2 0.7 0
29.6 0.7 0
30 0.7 0
30.4 0.7 0
30.8 0.7 0
31.2 0.7 0
31.6 0.7 0
32 0.7 0
32.4 0.7 0
32.8 0.7 0
33.2 0.7 0
33.6 0.7 0
34 0.7 0
34.4 0.7 0
34.8 0.7 0
35.2 0.7 0
35.6 0.7 0
36 0.7 0
36.4 0.7 0
36.8 0.7 0
37.2 0.7 0
37.6 0.7 0
38 0.7 0
38.4 0.7 0
38.8 0.7 0
39.2 0.7 0
39.6 0.7 0
40 0.7 0
40.4 0.7 0
0 0.8 0
0.4 0.8 0
0.8 0.8 0
1.2 0.8 0
1.6 0.8 0
2 0.8 0
2.4 0.8 0
2.8 0.8 0
3.2 0.8 0
3.6 0.8 0
4 0.8 0
4.4 0.8 0
4.8 0.8 0
5.2 0.8 0
5.6 0.8 0
6 0.8 0
6.4 0.8 0
6.8 0.8 0
7.2 0.8 0
7.6 0.8 0
8 0.8 0
8.4 0.8 0
8.8 0.8 0
9.2 0.8 0
9.6 0.8 0
10 0.8 0
10.4 0.8 0
10.8 0.8 0
11.2 0.8 0
11.6 0.8 0
12 0.8 0
12.4 0.8 0
12.8 0.8 0
13.2 0.8 0
13.6 0.8 0
14 0.8 0
14.4 0.8 0
14.8 0.8 0
15.2 0.8 0
15.6 0.8 0
16 0.8 0
16.4 0.8 0
16.8 0.8 0
17.2 0.8 0
17.6 0.8 0
18 0.8 0
18.4 0.8 0
18.8 0.8 0
19.2 0.8 0
19.6 0.8 0
20 0.8 0
20.4 0.8 0
20.8 0.8 0
21.2 0.8 0
21.6 0.8 0
22 0.8 0
22.4 0.8 0
22.8 0.8 0
23.2 0.8 0
23.6 0.8 0
24 0.8 0
24.4 0.8 0
24.8 0.8 0
25.2 0.8 0
25.6 0.8 0
26 0.8 0
26.4 0.8 0
26.8 0.8 0
27.2 0.8 0
27.6 0.8 0
28 0.8 0
28.4 0.8 0
28.8 0.8 0
29.2 0.8 0
29.6 0.8 0
30 0.8 0
30.4 0.8 0
30.8 0.8 0
31.2 0.8 0
31.6 0.8 0
32 0.8 0
32.4 0.8 0
32.8 0.8 0
33.2 0.8 0
33.6 0.8 0
34 0.8 0
34.4 0.8 0
34.8 0.8 0
35.2 0.8 0
35.6 0.8 0
36 0.8 0
36.4 0.8 0
36.8 0.8 0
37.2 0.8 0
37.6 0.8 0
38 0.8 0
38.4 0.8 0
38.8 0.8 0
39.2 0.8 0
39.6 0.8 0
40 0.8 0
40.4 0.8 0
0 0.9 0
0.4 0.9 0
0.8 0.9 0
1.2 0.9 0
1.6 0.9 0
2 0.9 0
2.4 0.9 0
2.8 0.9 0
3.2 0.9 0
3.6 0.9 0
4 0.9 0
4.4 0.9 0
4.8 0.9 0
5.2 0.9 0
5.6 0.9 0
6 0.9 0
6.4 0.9 0
6.8 0.9 0
7.2 0.9 0
7.6 0.9 0
8 0.9 0
8.4 0.9 0
8.8 0.9 0
9.2 0.9 0
9.6 0.9 0
10 0.9 0
10.4 0.9 0
10.8 0.9 0
11.2 0.9 0
11.6 0.9 0
12 0.9 0
12.4 0.9 0
12.8 0.9 0
13.2 0.9 0
13.6 0.9 0
14 0.9 0
14.4 0.9 0
14.8 0.9 0
15.2 0.9 0
15.6 0.9 0
16 0.9 0
16.4 0.9 0
16.8 0.9 0
17.2 0.9 0
17.6 0.9 0
18 0.9 0
18.4 0.9 0
18.8 0.9 0
19.2 0.9 0
19.6 0.9 0
20 0.9 0
20.4 0.9 0
20.8 0.9 0
21.2 0.9 0
21.6 0.9 0
22 0.9 0
22.4 0.9 0
22.8 0.9 0
23.2 0.9 0
23.6 0.9 0
24 0.9 0
24.4 0.9 0
24.8 0.9 0
25.2 0.9 0
25.6 0.9 0
26 0.9 0
26.4 0.9 0
26.8 0.9 0
27.2 0.9 0
27.6 0.9 0
28 0.9 0
28.4 0.9 0
28.8 0.9 0
29.2 0.9 0
29.6 0.9 0
30 0.9 0
30.4 0.9 0
30.8 0.9 0
31.2 0.9 0
31.6 0.9 0
32 0.9 0
32.4 0.9 0
32.8 0.9 0
33.2 0.9 0
33.6 0.9 0
34 0.9 0
34.4 0.9 0
34.8 0.9 0
35.2 0.9 0
35.6 0.9 0
36 0.9 0
36.4 0.9 0
36.8 0.9 0
37.2 0.9 0
37.6 0.9 0
38 0.9 0
38.4 0.9 0
38.8 0.9 0
39.2 0.9 0
39.6 0.9 0
40 0.9 0
40.4 0.9 0
0 1 0
0.4 1 0
0.8 1 0
1.2 1 0
1.6 1 0
2 1 0
2.4 1 0
2.8 1 0
3.2 1 0
3.6 1 0
4 1 0
4.4 1 0
4.8 1 0
5.2 1 0
5.6 1 0
6 1 0
6.4 1 0
6.8 1 0
7.2 1 0
7.6 1 0
8 1 0
8.4 1 0
8.8 1 0
9.2 1 0
9.6 1 0
10 1 0
10.4 1 0
10.8 1 0
11.2 1 0
11.6 1 0
12 1 0
12.4 1 0
12.8 1 0
13.2 1 0
13.6 1 0
14 1 0
14.4 1 0
14.8 1 0
15.2 1 0
15.6 1 0
16 1 0
16.4 1 0
16.8 1 0
17.2 1 0
17.6 1 0
18 1 0
18.4 1 0
18.8 1 0
19.2 1 0
19.6 1 0
20 1 0
20.4 1 0
20.8 1 0
21.2 1 0
21.6 1 0
22 1 0
22.4 1 0
22.8 1 0
23.2 1 0
23.6 1 0
24 1 0
24.4 1 0
24.8 1 0
25.2 1 0
25.6 1 0
26 1 0
26.4 1 0
26.8 1 0
27.2 1 0
27.6 1 0
28 1 0
28.4 1 0
28.8 1 0
29.2 1 0
29.6 1 0
30 1 0
30.4 1 0
30.8 1 0
31.2 1 0
31.6 1 0
32 1 0
32.4 1 0
32.8 1 0
33.2 1 0
33.6 1 0
34 1 0
34.4 1 0
34.8 1 0
35.2 1 0
35.6 1 0
36 1 0
36.4 1 0
36.8 1 0
37.2 1 0
37.6 1 0
38 1 0
38.4 1 0
38.8 1 0
39.2 1 0
39.6 1 0
40 1 0
40.4 1 0
0 1.1 0
0.4 1.1 0
0.8 1.1 0
1.2 1.1 0
1.6 1.1 0
2 1.1 0
2.4 1.1 0
2.8 1.1 0
3.2 1.1 0
3.6 1.1 0
4 1.1 0
4.4 1.1 0
4.8 1.1 0
5.2 1.1 0
5.6 1.1 0
6 1.1 0
6.4 1.1 0
6.8 1.1 0
7.2 1.1 0
7.6 1.1 0
8 1.1 0
8.4 1.1 0
8.8 1.1 0
9.2 1.1 0
9.6 1.1 0
10 1.1 0
10.4 1.1 0
10.8 1.1 0
11.2 1.1 0
11.6 1.1 0
12 1.1 0
12.4 1.1 0
12.8 1.1 0
13.2 1.1 0
13.6 1.1 0
14 1.1 0
14.4 1.1 0
14.8 1.1 0
15.2 1.1 0
15.6 1.1 0
16 1.1 0
16.4 1.1 0
16.8 1.1 0
17.2 1.1 0
17.6 1.1 0
18 1.1 0
18.4 1.1 0
18.8 1.1 0
19.2 1.1 0
19.6 1.1 0
20 1.1 0
20.4 1.1 0
20.8 1.1 0
21.2 1.1 0
21.6 1.1 0
22 1.1 0
22.4 1.1 0
22.8 1.1 0
23.2 1.1 0
23.6 1.1 0
24 1.1 0
24.4 1.1 0
24.8 1.1 0
25.2 1.1 0
25.6 1.1 0
26 1.1 0
26.4 1.1 0
26.8 1.1 0
27.2 1.1 0
27.6 1.1 0
28 1.1 0
28.4 1.1 0
28.8 1.1 0
29.2 1.1 0
29.6 1.1 0
30 1.1 0
30.4 1.1 0
30.8 1.1 0
31.2 1.1 0
31.6 1.1 0
32 1.1 0
32.4 1.1 0
32.8 1.1 0
33.2 1.1 0
33.6 1.1 0
34 1.1 0
34.4 1.1 0
34.8 1.1 0
35.2 1.1 0
35.6 1.1 0
36 1.1 0
36.4 1.1 0
36.8 1.1 0
37.2 1.1 0
37.6 1.1 0
38 1.1 0
38.4 1.1 0
38.8 1.1 0
39.2 1.1 0
39.6 1.1 0
40 1.1 0
40.4 1.1 0

POINT_DATA 1224

SCALARS v double
LOOKUP_TABLE default
0
0
0
0
0
0
0
0
0
0
0
0
0
0
0
0
0
0
0
0
0
0
0
0
0
0
0
0
0
0
0
0
0
0
0
0
0
0
0
0
0
0
0
0
0
0
0
0
0
0
0
0
0
0
0
0
0
0
0
0
0
0
0
0
0
0
0
0
0
0
0
0
0
0
0
0
0
0
0
0
0
0
0
0
0
0
0
0
0
0
0
0
0
0
0
0
0
0
0
0
0
0
-0.00751344
0.00751344
0.0146552
0.0162812
0.0149618
0.0125487
0.0100747
0.00795881
0.00628244
0.00499023
0.00399568
0.00322207
0.00261165
0.00212355
0.00172906
0.00140775
0.00114464
0.000928474
0.000750552
0.000604033
0.000483439
0.000384326
0.000303039
0.000236544
0.000182292
0.000138134
0.000102252
7.31164e-05
4.94538e-05
3.02172e-05
1.44055e-05
9.78633e-07
-9.84954e-06
-1.8152e-05
-2.41361e-05
-2.8002e-05
-2.99689e-05
-3.02923e-05
-2.92641e-05
-2.72004e-05
-2.44225e-05
-2.12356e-05
-1.79088e-05
-1.46616e-05
-1.1656e-05
-8.9968e-06
-6.73659e-06
-4.88536e-06
-3.42162e-06
-2.30347e-06
-1.47851e-06
-8.91541e-07
-4.90089e-07
-2.27761e-07
-6.60726e-08
2.4636e-08
7.06598e-08
8.85312e-08
8.97657e-08
8.20419e-08
7.02531e-08
5.73559e-08
4.50037e-08
3.40064e-08
2.46545e-08
1.69393e-08
1.06969e-08
5.69472e-09
1.69897e-09
-1.43916e-09
-3.89023e-09
-5.84364e-09
-7.42641e-09
-8.73432e-09
-9.84326e-09
-1.08102e-08
-1.16763e-08
-1.2471e-08
-1.32153e-08
-1.39238e-08
-1.46073e-08
-1.52726e-08
-1.5928e-08
-1.65686e-08
-1.72413e-08
-1.78282e-08
-1.8942e-08
-1.89884e-08
-2.62967e-08
-2.01689e-08
-1.12104e-07
-3.84926e-08
-1.27757e-06
-5.15495e-07
-1.73081e-05
-1.02928e-05
-0.000240346
-0.000167961
-0.00348948
-0.00152341
-0.0477561
-0.0477559
-0.00621568
0.00621568
0.0142999
0.0183624
0.0194157
0.0185586
0.0167091
0.0144992
0.0122985
0.0102886
0.00853605
0.00704675
0.00579865
0.00476024
0.00389927
0.0031865
0.00259685
0.00210927
0.00170638
0.00137384
0.00109982
0.000874511
0.000689766
0.000538758
0.000415741
0.000315849
0.00023495
0.000169547
0.000116712
7.39726e-05
3.93115e-05
1.07712e-05
-1.28521e-05
-3.17227e-05
-4.60514e-05
-5.60822e-05
-6.21207e-05
-6.45597e-05
-6.3891e-05
-6.06942e-05
-5.56055e-05
-4.92717e-05
-4.2302e-05
-3.52262e-05
-2.84661e-05
-2.2322e-05
-1.69754e-05
-1.25028e-05
-8.89737e-06
-6.09305e-06
-3.98803e-06
-2.4646e-06
-1.40426e-06
-6.9815e-07
-2.51885e-07
8.6569e-09
1.45602e-07
2.04647e-07
2.1704e-07
2.03596e-07
1.77709e-07
1.47599e-07
1.17975e-07
9.12422e-08
6.83747e-08
4.95045e-08
3.43181e-08
2.23114e-08
1.29334e-08
5.62117e-09
-8.80253e-11
-4.49079e-09
-7.89455e-09
-1.05641e-08
-1.2704e-08
-1.44657e-08
-1.59584e-08
-1.72603e-08
-1.84271e-08
-1.94979e-08
-2.05011e-08
-2.14552e-08
-2.23788e-08
-2.32657e-08
-2.4195e-08
-2.49443e-08
-2.65417e-08
-2.58846e-08
-3.70632e-08
-1.87316e-08
-1.60906e-07
7.92437e-08
-1.84212e-06
1.1825e-06
-2.50016e-05
1.32065e-05
-0.000346932
0.000139983
-0.00481325
0.000860964
-0.0611993
-0.061199
-0.00401801
0.00401801
0.00987185
0.0135457
0.0153924
0.0158461
0.015338
0.0142366
0.0128244
0.0112996
0.00979085
0.00837401
0.00708838
0.00594915
0.00495671
0.00410302
0.00337578
0.00276103
0.0022447
0.00181345
0.00145509
0.00115874
0.000914857
0.000715105
0.000552286
0.000420179
0.000313432
0.000227449
0.000158332
0.000102783
5.80264e-05
2.18564e-05
-7.7777e-06
-3.17866e-05
-5.06318e-05
-6.4608e-05
-7.39594e-05
-7.89791e-05
-8.00735e-05
-7.77857e-05
-7.27788e-05
-6.57911e-05
-5.75743e-05
-4.88313e-05
-4.0164e-05
-3.20396e-05
-2.47779e-05
-1.85564e-05
-1.34311e-05
-9.3636e-06
-6.25171e-06
-3.95766e-06
-2.3311e-06
-1.22634e-06
-5.12581e-07
-8.10318e-08
1.55783e-07
2.6663e-07
3.00312e-07
2.90077e-07
2.57661e-07
2.16601e-07
1.74789e-07
1.36397e-07
1.03243e-07
7.57575e-08
5.36139e-08
3.61379e-08
2.25412e-08
1.20429e-08
3.9395e-09
-2.30759e-09
-7.0945e-09
-1.07843e-08
-1.36729e-08
-1.59842e-08
-1.7882e-08
-1.94842e-08
-2.08754e-08
-2.2116e-08
-2.32492e-08
-2.43048e-08
-2.53085e-08
-2.62605e-08
-2.72387e-08
-2.80162e-08
-2.9636e-08
-2.86133e-08
-4.017e-08
-1.43591e-08
-1.67215e-07
1.9658e-07
-1.91605e-06
2.93431e-06
-2.57801e-05
3.63384e-05
-0.000343526
0.000394586
-0.00437808
0.00282583
-0.0515447
-0.0515443
-0.00195406
0.00195406
0.00490746
0.00691944
0.00813033
0.0086901
0.00874624
0.00843555
0.00787798
0.00717311
0.00639891
0.00561272
0.00485393
0.00414729
0.00350644
0.00293697
0.00243905
0.00200934
0.00164252
0.00133229
0.00107204
0.000855333
0.000676103
0.00052883
0.000408567
0.000310938
0.00023211
0.000168747
0.00011798
7.73694e-05
4.48282e-05
1.87128e-05
-2.39674e-06
-1.94556e-05
-3.29935e-05
-4.33058e-05
-5.0566e-05
-5.49218e-05
-5.65688e-05
-5.57924e-05
-5.29762e-05
-4.85824e-05
-4.31139e-05
-3.70688e-05
-3.08976e-05
-2.49708e-05
-1.95606e-05
-1.48378e-05
-1.08801e-05
-7.68924e-06
-5.21135e-06
-3.35821e-06
-2.0254e-06
-1.10654e-06
-5.03247e-07
-1.30302e-07
8.09375e-08
1.85112e-07
2.2233e-07
2.20568e-07
1.9845e-07
1.67745e-07
1.35421e-07
1.05238e-07
7.89126e-08
5.69413e-08
3.91485e-08
2.504e-08
1.40074e-08
5.42814e-09
-1.23107e-09
-6.38669e-09
-1.03972e-08
-1.35514e-08
-1.60735e-08
-1.81323e-08
-1.98521e-08
-2.13239e-08
-2.26143e-08
-2.37719e-08
-2.48327e-08
-2.58217e-08
-2.67614e-08
-2.76514e-08
-2.85574e-08
-2.92822e-08
-3.06677e-08
-2.97875e-08
-3.86103e-08
-1.62081e-08
-1.29022e-07
1.80803e-07
-1.34014e-06
2.67254e-06
-1.72357e-05
3.17544e-05
-0.00021744
0.000326338
-0.00259446
0.00236353
-0.0289427
-0.0289424
-2.28375e-09
2.28275e-09
6.37696e-09
1.00679e-08
1.34382e-08
1.6521e-08
1.93189e-08
2.18245e-08
2.40338e-08
2.59524e-08
2.75986e-08
2.90051e-08
3.02218e-08
3.13177e-08
3.23794e-08
3.35067e-08
3.48038e-08
3.63686e-08
3.82814e-08
4.05943e-08
4.3323e-08
4.64448e-08
4.99029e-08
5.36162e-08
5.74836e-08
6.13691e-08
6.50524e-08
6.81391e-08
6.99829e-08
6.95966e-08
6.57446e-08
5.69425e-08
4.23301e-08
2.1879e-08
-3.63594e-09
-3.22046e-08
-6.07846e-08
-8.5796e-08
-1.038e-07
-1.12202e-07
-1.09792e-07
-9.69944e-08
-7.57658e-08
-4.9177e-08
-2.0809e-08
5.89162e-09
2.815e-08
4.41987e-08
5.33769e-08
5.6019e-08
5.31986e-08
4.64075e-08
3.72487e-08
2.71841e-08
1.73909e-08
8.65877e-09
1.40542e-09
-4.22112e-09
-8.30533e-09
-1.10744e-08
-1.28163e-08
-1.38236e-08
-1.43578e-08
-1.46327e-08
-1.48079e-08
-1.49922e-08
-1.52501e-08
-1.56134e-08
-1.60948e-08
-1.66865e-08
-1.73577e-08
-1.80948e-08
-1.88907e-08
-1.97305e-08
-2.05961e-08
-2.14708e-08
-2.2341e-08
-2.31978e-08
-2.40361e-08
-2.4854e-08
-2.56521e-08
-2.64315e-08
-2.71951e-08
-2.79417e-08
-2.86798e-08
-2.93875e-08
-3.0117e-08
-3.07302e-08
-3.14713e-08
-3.18332e-08
-3.2389e-08
-3.24722e-08
-3.26494e-08
-3.22664e-08
-3.16855e-08
-3.03814e-08
-2.77293e-08
-2.51483e-08
-1.47445e-08
-1.62816e-08
3.51818e-08
3.5203e-08
0.00195405
-0.00195405
-0.00490745
-0.00691942
-0.00813031
-0.00869006
-0.00874621
-0.0084355
-0.00787793
-0.00717306
-0.00639886
-0.00561267
-0.00485387
-0.00414723
-0.00350637
-0.00293691
-0.00243898
-0.00200927
-0.00164245
-0.00133221
-0.00107196
-0.000855245
-0.000676008
-0.000528728
-0.000408458
-0.000310822
-0.000231987
-0.00016862
-0.000117849
-7.72406e-05
-4.47081e-05
-1.86108e-05
2.47009e-06
1.94894e-05
3.29789e-05
4.32385e-05
5.04474e-05
5.47599e-05
5.63776e-05
5.55902e-05
5.27827e-05
4.84158e-05
4.29885e-05
3.69929e-05
3.08731e-05
2.49933e-05
1.96213e-05
1.49249e-05
1.09812e-05
7.79263e-06
5.30765e-06
3.4408e-06
2.09056e-06
1.15312e-06
5.32101e-07
1.43574e-07
-8.0402e-08
-1.94339e-07
-2.38593e-07
-2.41591e-07
-2.22484e-07
-1.9356e-07
-1.62241e-07
-1.32653e-07
-1.06784e-07
-8.53094e-08
-6.81618e-08
-5.48945e-08
-4.4911e-08
-3.75889e-08
-3.23555e-08
-2.87373e-08
-2.63481e-08
-2.48727e-08
-2.40609e-08
-2.37205e-08
-2.37077e-08
-2.39181e-08
-2.42775e-08
-2.47345e-08
-2.52542e-08
-2.58136e-08
-2.63942e-08
-2.69967e-08
-2.75616e-08
-2.82713e-08
-2.831e-08
-3.05266e-08
-2.2998e-08
-4.65428e-08
6.55962e-08
-2.44857e-07
1.27612e-06
-2.73627e-06
1.71734e-05
-3.18144e-05
0.000217385
-0.000326387
0.00259443
-0.00236355
0.0289427
0.0289424
0.00401801
-0.00401801
-0.00987184
-0.0135457
-0.0153924
-0.0158461
-0.0153379
-0.0142366
-0.0128243
-0.0112996
-0.00979081
-0.00837397
-0.00708833
-0.0059491
-0.00495665
-0.00410296
-0.00337572
-0.00276097
-0.00224464
-0.00181339
-0.00145502
-0.00115867
-0.000914776
-0.000715019
-0.000552193
-0.000420081
-0.000313329
-0.000227344
-0.000158227
-0.000102682
-5.79357e-05
-2.17837e-05
7.82394e-06
3.17987e-05
5.06051e-05
6.4542e-05
7.38583e-05
7.88518e-05
7.99325e-05
7.76453e-05
7.26531e-05
6.5692e-05
5.75097e-05
4.88044e-05
4.01733e-05
3.20799e-05
2.48411e-05
1.86334e-05
1.35129e-05
9.44242e-06
6.32174e-06
4.01521e-06
2.37453e-06
1.25569e-06
5.29078e-07
8.66458e-08
-1.58798e-07
-2.76141e-07
-3.14479e-07
-3.07434e-07
-2.77132e-07
-2.37461e-07
-1.96614e-07
-1.58988e-07
-1.2657e-07
-9.98948e-08
-7.86947e-08
-6.23148e-08
-4.99637e-08
-4.08553e-08
-3.42867e-08
-2.96728e-08
-2.65366e-08
-2.44955e-08
-2.32505e-08
-2.25744e-08
-2.22983e-08
-2.22993e-08
-2.24899e-08
-2.28085e-08
-2.32123e-08
-2.36731e-08
-2.4166e-08
-2.46945e-08
-2.51725e-08
-2.58499e-08
-2.56111e-08
-2.81184e-08
-1.76723e-08
-4.51338e-08
1.07427e-07
-2.57564e-07
1.85538e-06
-2.99527e-06
2.57207e-05
-3.6396e-05
0.000343473
-0.000394632
0.00437805
-0.00282584
0.0515448
0.0515443
0.00621567
-0.00621567
-0.0142999
-0.0183624
-0.0194157
-0.0185586
-0.016709
-0.0144991
-0.0122985
-0.0102885
-0.00853601
-0.00704671
-0.00579861
-0.0047602
-0.00389922
-0.00318646
-0.0025968
-0.00210922
-0.00170633
-0.00137379
-0.00109976
-0.000874452
-0.000689704
-0.000538693
-0.000415673
-0.000315778
-0.000234877
-0.000169474
-0.00011664
-7.39066e-05
-3.92553e-05
-1.07295e-05
1.28739e-05
3.1722e-05
4.60277e-05
5.60377e-05
6.20603e-05
6.44905e-05
6.38209e-05
6.06313e-05
5.55566e-05
4.92416e-05
4.22929e-05
3.52377e-05
2.84954e-05
2.23648e-05
1.70264e-05
1.25569e-05
8.94998e-06
6.14057e-06
4.02807e-06
2.49598e-06
1.4268e-06
7.124e-07
2.58894e-07
-7.54651e-09
-1.49125e-07
-2.11708e-07
-2.26745e-07
-2.15265e-07
-1.9087e-07
-1.61959e-07
-1.33378e-07
-1.07642e-07
-8.57938e-08
-6.8013e-08
-5.401e-08
-4.32814e-08
-3.5262e-08
-2.94096e-08
-2.5248e-08
-2.23822e-08
-2.04912e-08
-1.93193e-08
-1.86689e-08
-1.83906e-08
-1.83741e-08
-1.85396e-08
-1.88299e-08
-1.92051e-08
-1.9637e-08
-2.01079e-08
-2.05984e-08
-2.11194e-08
-2.15798e-08
-2.22366e-08
-2.19664e-08
-2.41195e-08
-1.40972e-08
-3.4069e-08
1.06996e-07
-1.33767e-07
1.78689e-06
-1.23737e-06
2.49472e-05
-1.32588e-05
0.000346883
-0.000140025
0.00481321
-0.000860973
0.0611993
0.061199
0.00751343
-0.00751343
-0.0146552
-0.0162812
-0.0149618
-0.0125487
-0.0100746
-0.00795879
-0.00628242
-0.0049902
-0.00399566
-0.00322204
-0.00261163
-0.00212352
-0.00172903
-0.00140772
-0.00114461
-0.000928444
-0.000750521
-0.000604001
-0.000483406
-0.000384291
-0.000303003
-0.000236506
-0.000182253
-0.000138094
-0.000102211
-7.30763e-05
-4.94156e-05
-3.01827e-05
-1.43763e-05
-9.56741e-07
9.8623e-06
1.81556e-05
2.41315e-05
2.79909e-05
2.9954e-05
3.02766e-05
2.92505e-05
2.71916e-05
2.44203e-05
2.12409e-05
1.79216e-05
1.4681e-05
1.16804e-05
9.02415e-06
6.7649e-06
4.91281e-06
3.44673e-06
2.32523e-06
1.49634e-06
9.05274e-07
4.99887e-07
2.33989e-07
6.92095e-08
-2.40263e-08
-7.21201e-08
-9.16964e-08
-9.43472e-08
-8.78298e-08
-7.71083e-08
-6.51979e-08
-5.37977e-08
-4.37507e-08
-3.53703e-08
-2.86626e-08
-2.34743e-08
-1.9584e-08
-1.67569e-08
-1.47742e-08
-1.34467e-08
-1.26186e-08
-1.21637e-08
-1.19825e-08
-1.19989e-08
-1.21555e-08
-1.24106e-08
-1.27337e-08
-1.31035e-08
-1.35051e-08
-1.39277e-08
-1.43654e-08
-1.48095e-08
-1.5268e-08
-1.56879e-08
-1.62101e-08
-1.61644e-08
-1.73285e-08
-1.10508e-08
-1.86112e-08
7.21166e-08
-1.74631e-09
1.2366e-06
4.74589e-07
1.72671e-05
1.02529e-05
0.000240307
0.000167927
0.00348945
0.00152339
0.047756
0.0477558
0
0
0
0
0
0
0
0
0
0
0
0
0
0
0
0
0
0
0
0
0
0
0
0
0
0
0
0
0
0
0
0
0
0
0
0
0
0
0
0
0
0
0
0
0
0
0
0
0
0
0
0
0
0
0
0
0
0
0
0
0
0
0
0
0
0
0
0
0
0
0
0
0
0
0
0
0
0
0
0
0
0
0
0
0
0
0
0
0
0
0
0
0
0
0
0
0
0
0
0
0
0
0
0
0
0
0
0
0
0
0
0
0
0
0
0
0
0
0
0
0
0
0
0
0
0
0
0
0
0
0
0
0
0
0
0
0
0
0
0
0
0
0
0
0
0
0
0
0
0
0
0
0
0
0
0
0
0
0
0
0
0
0
0
0
0
0
0
0
0
0
0
0
0
0
0
0
0
0
0
0
0
0
0
0
0
0
0
0
0
0
0
0
0
0
0
0
0
0
0
0
0
0
0
