# vtk DataFile Version 2.0
FlowField
ASCII
DATASET STRUCTURED_GRID
DIMENSIONS 102 1 12 
POINTS 1224 double
0 0 0
0.4 0 0
0.8 0 0
1.2 0 0
1.6 0 0
2 0 0
2.4 0 0
2.8 0 0
3.2 0 0
3.6 0 0
4 0 0
4.4 0 0
4.8 0 0
5.2 0 0
5.6 0 0
6 0 0
6.4 0 0
6.8 0 0
7.2 0 0
7.6 0 0
8 0 0
8.4 0 0
8.8 0 0
9.2 0 0
9.6 0 0
10 0 0
10.4 0 0
10.8 0 0
11.2 0 0
11.6 0 0
12 0 0
12.4 0 0
12.8 0 0
13.2 0 0
13.6 0 0
14 0 0
14.4 0 0
14.8 0 0
15.2 0 0
15.6 0 0
16 0 0
16.4 0 0
16.8 0 0
17.2 0 0
17.6 0 0
18 0 0
18.4 0 0
18.8 0 0
19.2 0 0
19.6 0 0
20 0 0
20.4 0 0
20.8 0 0
21.2 0 0
21.6 0 0
22 0 0
22.4 0 0
22.8 0 0
23.2 0 0
23.6 0 0
24 0 0
24.4 0 0
24.8 0 0
25.2 0 0
25.6 0 0
26 0 0
26.4 0 0
26.8 0 0
27.2 0 0
27.6 0 0
28 0 0
28.4 0 0
28.8 0 0
29.2 0 0
29.6 0 0
30 0 0
30.4 0 0
30.8 0 0
31.2 0 0
31.6 0 0
32 0 0
32.4 0 0
32.8 0 0
33.2 0 0
33.6 0 0
34 0 0
34.4 0 0
34.8 0 0
35.2 0 0
35.6 0 0
36 0 0
36.4 0 0
36.8 0 0
37.2 0 0
37.6 0 0
38 0 0
38.4 0 0
38.8 0 0
39.2 0 0
39.6 0 0
40 0 0
40.4 0 0
0 0.1 0
0.4 0.1 0
0.8 0.1 0
1.2 0.1 0
1.6 0.1 0
2 0.1 0
2.4 0.1 0
2.8 0.1 0
3.2 0.1 0
3.6 0.1 0
4 0.1 0
4.4 0.1 0
4.8 0.1 0
5.2 0.1 0
5.6 0.1 0
6 0.1 0
6.4 0.1 0
6.8 0.1 0
7.2 0.1 0
7.6 0.1 0
8 0.1 0
8.4 0.1 0
8.8 0.1 0
9.2 0.1 0
9.6 0.1 0
10 0.1 0
10.4 0.1 0
10.8 0.1 0
11.2 0.1 0
11.6 0.1 0
12 0.1 0
12.4 0.1 0
12.8 0.1 0
13.2 0.1 0
13.6 0.1 0
14 0.1 0
14.4 0.1 0
14.8 0.1 0
15.2 0.1 0
15.6 0.1 0
16 0.1 0
16.4 0.1 0
16.8 0.1 0
17.2 0.1 0
17.6 0.1 0
18 0.1 0
18.4 0.1 0
18.8 0.1 0
19.2 0.1 0
19.6 0.1 0
20 0.1 0
20.4 0.1 0
20.8 0.1 0
21.2 0.1 0
21.6 0.1 0
22 0.1 0
22.4 0.1 0
22.8 0.1 0
23.2 0.1 0
23.6 0.1 0
24 0.1 0
24.4 0.1 0
24.8 0.1 0
25.2 0.1 0
25.6 0.1 0
26 0.1 0
26.4 0.1 0
26.8 0.1 0
27.2 0.1 0
27.6 0.1 0
28 0.1 0
28.4 0.1 0
28.8 0.1 0
29.2 0.1 0
29.6 0.1 0
30 0.1 0
30.4 0.1 0
30.8 0.1 0
31.2 0.1 0
31.6 0.1 0
32 0.1 0
32.4 0.1 0
32.8 0.1 0
33.2 0.1 0
33.6 0.1 0
34 0.1 0
34.4 0.1 0
34.8 0.1 0
35.2 0.1 0
35.6 0.1 0
36 0.1 0
36.4 0.1 0
36.8 0.1 0
37.2 0.1 0
37.6 0.1 0
38 0.1 0
38.4 0.1 0
38.8 0.1 0
39.2 0.1 0
39.6 0.1 0
40 0.1 0
40.4 0.1 0
0 0.2 0
0.4 0.2 0
0.8 0.2 0
1.2 0.2 0
1.6 0.2 0
2 0.2 0
2.4 0.2 0
2.8 0.2 0
3.2 0.2 0
3.6 0.2 0
4 0.2 0
4.4 0.2 0
4.8 0.2 0
5.2 0.2 0
5.6 0.2 0
6 0.2 0
6.4 0.2 0
6.8 0.2 0
7.2 0.2 0
7.6 0.2 0
8 0.2 0
8.4 0.2 0
8.8 0.2 0
9.2 0.2 0
9.6 0.2 0
10 0.2 0
10.4 0.2 0
10.8 0.2 0
11.2 0.2 0
11.6 0.2 0
12 0.2 0
12.4 0.2 0
12.8 0.2 0
13.2 0.2 0
13.6 0.2 0
14 0.2 0
14.4 0.2 0
14.8 0.2 0
15.2 0.2 0
15.6 0.2 0
16 0.2 0
16.4 0.2 0
16.8 0.2 0
17.2 0.2 0
17.6 0.2 0
18 0.2 0
18.4 0.2 0
18.8 0.2 0
19.2 0.2 0
19.6 0.2 0
20 0.2 0
20.4 0.2 0
20.8 0.2 0
21.2 0.2 0
21.6 0.2 0
22 0.2 0
22.4 0.2 0
22.8 0.2 0
23.2 0.2 0
23.6 0.2 0
24 0.2 0
24.4 0.2 0
24.8 0.2 0
25.2 0.2 0
25.6 0.2 0
26 0.2 0
26.4 0.2 0
26.8 0.2 0
27.2 0.2 0
27.6 0.2 0
28 0.2 0
28.4 0.2 0
28.8 0.2 0
29.2 0.2 0
29.6 0.2 0
30 0.2 0
30.4 0.2 0
30.8 0.2 0
31.2 0.2 0
31.6 0.2 0
32 0.2 0
32.4 0.2 0
32.8 0.2 0
33.2 0.2 0
33.6 0.2 0
34 0.2 0
34.4 0.2 0
34.8 0.2 0
35.2 0.2 0
35.6 0.2 0
36 0.2 0
36.4 0.2 0
36.8 0.2 0
37.2 0.2 0
37.6 0.2 0
38 0.2 0
38.4 0.2 0
38.8 0.2 0
39.2 0.2 0
39.6 0.2 0
40 0.2 0
40.4 0.2 0
0 0.3 0
0.4 0.3 0
0.8 0.3 0
1.2 0.3 0
1.6 0.3 0
2 0.3 0
2.4 0.3 0
2.8 0.3 0
3.2 0.3 0
3.6 0.3 0
4 0.3 0
4.4 0.3 0
4.8 0.3 0
5.2 0.3 0
5.6 0.3 0
6 0.3 0
6.4 0.3 0
6.8 0.3 0
7.2 0.3 0
7.6 0.3 0
8 0.3 0
8.4 0.3 0
8.8 0.3 0
9.2 0.3 0
9.6 0.3 0
10 0.3 0
10.4 0.3 0
10.8 0.3 0
11.2 0.3 0
11.6 0.3 0
12 0.3 0
12.4 0.3 0
12.8 0.3 0
13.2 0.3 0
13.6 0.3 0
14 0.3 0
14.4 0.3 0
14.8 0.3 0
15.2 0.3 0
15.6 0.3 0
16 0.3 0
16.4 0.3 0
16.8 0.3 0
17.2 0.3 0
17.6 0.3 0
18 0.3 0
18.4 0.3 0
18.8 0.3 0
19.2 0.3 0
19.6 0.3 0
20 0.3 0
20.4 0.3 0
20.8 0.3 0
21.2 0.3 0
21.6 0.3 0
22 0.3 0
22.4 0.3 0
22.8 0.3 0
23.2 0.3 0
23.6 0.3 0
24 0.3 0
24.4 0.3 0
24.8 0.3 0
25.2 0.3 0
25.6 0.3 0
26 0.3 0
26.4 0.3 0
26.8 0.3 0
27.2 0.3 0
27.6 0.3 0
28 0.3 0
28.4 0.3 0
28.8 0.3 0
29.2 0.3 0
29.6 0.3 0
30 0.3 0
30.4 0.3 0
30.8 0.3 0
31.2 0.3 0
31.6 0.3 0
32 0.3 0
32.4 0.3 0
32.8 0.3 0
33.2 0.3 0
33.6 0.3 0
34 0.3 0
34.4 0.3 0
34.8 0.3 0
35.2 0.3 0
35.6 0.3 0
36 0.3 0
36.4 0.3 0
36.8 0.3 0
37.2 0.3 0
37.6 0.3 0
38 0.3 0
38.4 0.3 0
38.8 0.3 0
39.2 0.3 0
39.6 0.3 0
40 0.3 0
40.4 0.3 0
0 0.4 0
0.4 0.4 0
0.8 0.4 0
1.2 0.4 0
1.6 0.4 0
2 0.4 0
2.4 0.4 0
2.8 0.4 0
3.2 0.4 0
3.6 0.4 0
4 0.4 0
4.4 0.4 0
4.8 0.4 0
5.2 0.4 0
5.6 0.4 0
6 0.4 0
6.4 0.4 0
6.8 0.4 0
7.2 0.4 0
7.6 0.4 0
8 0.4 0
8.4 0.4 0
8.8 0.4 0
9.2 0.4 0
9.6 0.4 0
10 0.4 0
10.4 0.4 0
10.8 0.4 0
11.2 0.4 0
11.6 0.4 0
12 0.4 0
12.4 0.4 0
12.8 0.4 0
13.2 0.4 0
13.6 0.4 0
14 0.4 0
14.4 0.4 0
14.8 0.4 0
15.2 0.4 0
15.6 0.4 0
16 0.4 0
16.4 0.4 0
16.8 0.4 0
17.2 0.4 0
17.6 0.4 0
18 0.4 0
18.4 0.4 0
18.8 0.4 0
19.2 0.4 0
19.6 0.4 0
20 0.4 0
20.4 0.4 0
20.8 0.4 0
21.2 0.4 0
21.6 0.4 0
22 0.4 0
22.4 0.4 0
22.8 0.4 0
23.2 0.4 0
23.6 0.4 0
24 0.4 0
24.4 0.4 0
24.8 0.4 0
25.2 0.4 0
25.6 0.4 0
26 0.4 0
26.4 0.4 0
26.8 0.4 0
27.2 0.4 0
27.6 0.4 0
28 0.4 0
28.4 0.4 0
28.8 0.4 0
29.2 0.4 0
29.6 0.4 0
30 0.4 0
30.4 0.4 0
30.8 0.4 0
31.2 0.4 0
31.6 0.4 0
32 0.4 0
32.4 0.4 0
32.8 0.4 0
33.2 0.4 0
33.6 0.4 0
34 0.4 0
34.4 0.4 0
34.8 0.4 0
35.2 0.4 0
35.6 0.4 0
36 0.4 0
36.4 0.4 0
36.8 0.4 0
37.2 0.4 0
37.6 0.4 0
38 0.4 0
38.4 0.4 0
38.8 0.4 0
39.2 0.4 0
39.6 0.4 0
40 0.4 0
40.4 0.4 0
0 0.5 0
0.4 0.5 0
0.8 0.5 0
1.2 0.5 0
1.6 0.5 0
2 0.5 0
2.4 0.5 0
2.8 0.5 0
3.2 0.5 0
3.6 0.5 0
4 0.5 0
4.4 0.5 0
4.8 0.5 0
5.2 0.5 0
5.6 0.5 0
6 0.5 0
6.4 0.5 0
6.8 0.5 0
7.2 0.5 0
7.6 0.5 0
8 0.5 0
8.4 0.5 0
8.8 0.5 0
9.2 0.5 0
9.6 0.5 0
10 0.5 0
10.4 0.5 0
10.8 0.5 0
11.2 0.5 0
11.6 0.5 0
12 0.5 0
12.4 0.5 0
12.8 0.5 0
13.2 0.5 0
13.6 0.5 0
14 0.5 0
14.4 0.5 0
14.8 0.5 0
15.2 0.5 0
15.6 0.5 0
16 0.5 0
16.4 0.5 0
16.8 0.5 0
17.2 0.5 0
17.6 0.5 0
18 0.5 0
18.4 0.5 0
18.8 0.5 0
19.2 0.5 0
19.6 0.5 0
20 0.5 0
20.4 0.5 0
20.8 0.5 0
21.2 0.5 0
21.6 0.5 0
22 0.5 0
22.4 0.5 0
22.8 0.5 0
23.2 0.5 0
23.6 0.5 0
24 0.5 0
24.4 0.5 0
24.8 0.5 0
25.2 0.5 0
25.6 0.5 0
26 0.5 0
26.4 0.5 0
26.8 0.5 0
27.2 0.5 0
27.6 0.5 0
28 0.5 0
28.4 0.5 0
28.8 0.5 0
29.2 0.5 0
29.6 0.5 0
30 0.5 0
30.4 0.5 0
30.8 0.5 0
31.2 0.5 0
31.6 0.5 0
32 0.5 0
32.4 0.5 0
32.8 0.5 0
33.2 0.5 0
33.6 0.5 0
34 0.5 0
34.4 0.5 0
34.8 0.5 0
35.2 0.5 0
35.6 0.5 0
36 0.5 0
36.4 0.5 0
36.8 0.5 0
37.2 0.5 0
37.6 0.5 0
38 0.5 0
38.4 0.5 0
38.8 0.5 0
39.2 0.5 0
39.6 0.5 0
40 0.5 0
40.4 0.5 0
0 0.6 0
0.4 0.6 0
0.8 0.6 0
1.2 0.6 0
1.6 0.6 0
2 0.6 0
2.4 0.6 0
2.8 0.6 0
3.2 0.6 0
3.6 0.6 0
4 0.6 0
4.4 0.6 0
4.8 0.6 0
5.2 0.6 0
5.6 0.6 0
6 0.6 0
6.4 0.6 0
6.8 0.6 0
7.2 0.6 0
7.6 0.6 0
8 0.6 0
8.4 0.6 0
8.8 0.6 0
9.2 0.6 0
9.6 0.6 0
10 0.6 0
10.4 0.6 0
10.8 0.6 0
11.2 0.6 0
11.6 0.6 0
12 0.6 0
12.4 0.6 0
12.8 0.6 0
13.2 0.6 0
13.6 0.6 0
14 0.6 0
14.4 0.6 0
14.8 0.6 0
15.2 0.6 0
15.6 0.6 0
16 0.6 0
16.4 0.6 0
16.8 0.6 0
17.2 0.6 0
17.6 0.6 0
18 0.6 0
18.4 0.6 0
18.8 0.6 0
19.2 0.6 0
19.6 0.6 0
20 0.6 0
20.4 0.6 0
20.8 0.6 0
21.2 0.6 0
21.6 0.6 0
22 0.6 0
22.4 0.6 0
22.8 0.6 0
23.2 0.6 0
23.6 0.6 0
24 0.6 0
24.4 0.6 0
24.8 0.6 0
25.2 0.6 0
25.6 0.6 0
26 0.6 0
26.4 0.6 0
26.8 0.6 0
27.2 0.6 0
27.6 0.6 0
28 0.6 0
28.4 0.6 0
28.8 0.6 0
29.2 0.6 0
29.6 0.6 0
30 0.6 0
30.4 0.6 0
30.8 0.6 0
31.2 0.6 0
31.6 0.6 0
32 0.6 0
32.4 0.6 0
32.8 0.6 0
33.2 0.6 0
33.6 0.6 0
34 0.6 0
34.4 0.6 0
34.8 0.6 0
35.2 0.6 0
35.6 0.6 0
36 0.6 0
36.4 0.6 0
36.8 0.6 0
37.2 0.6 0
37.6 0.6 0
38 0.6 0
38.4 0.6 0
38.8 0.6 0
39.2 0.6 0
39.6 0.6 0
40 0.6 0
40.4 0.6 0
0 0.7 0
0.4 0.7 0
0.8 0.7 0
1.2 0.7 0
1.6 0.7 0
2 0.7 0
2.4 0.7 0
2.8 0.7 0
3.2 0.7 0
3.6 0.7 0
4 0.7 0
4.4 0.7 0
4.8 0.7 0
5.2 0.7 0
5.6 0.7 0
6 0.7 0
6.4 0.7 0
6.8 0.7 0
7.2 0.7 0
7.6 0.7 0
8 0.7 0
8.4 0.7 0
8.8 0.7 0
9.2 0.7 0
9.6 0.7 0
10 0.7 0
10.4 0.7 0
10.8 0.7 0
11.2 0.7 0
11.6 0.7 0
12 0.7 0
12.4 0.7 0
12.8 0.7 0
13.2 0.7 0
13.6 0.7 0
14 0.7 0
14.4 0.7 0
14.8 0.7 0
15.2 0.7 0
15.6 0.7 0
16 0.7 0
16.4 0.7 0
16.8 0.7 0
17.2 0.7 0
17.6 0.7 0
18 0.7 0
18.4 0.7 0
18.8 0.7 0
19.2 0.7 0
19.6 0.7 0
20 0.7 0
20.4 0.7 0
20.8 0.7 0
21.2 0.7 0
21.6 0.7 0
22 0.7 0
22.4 0.7 0
22.8 0.7 0
23.2 0.7 0
23.6 0.7 0
24 0.7 0
24.4 0.7 0
24.8 0.7 0
25.2 0.7 0
25.6 0.7 0
26 0.7 0
26.4 0.7 0
26.8 0.7 0
27.2 0.7 0
27.6 0.7 0
28 0.7 0
28.4 0.7 0
28.8 0.7 0
29.2 0.7 0
29.6 0.7 0
30 0.7 0
30.4 0.7 0
30.8 0.7 0
31.2 0.7 0
31.6 0.7 0
32 0.7 0
32.4 0.7 0
32.8 0.7 0
33.2 0.7 0
33.6 0.7 0
34 0.7 0
34.4 0.7 0
34.8 0.7 0
35.2 0.7 0
35.6 0.7 0
36 0.7 0
36.4 0.7 0
36.8 0.7 0
37.2 0.7 0
37.6 0.7 0
38 0.7 0
38.4 0.7 0
38.8 0.7 0
39.2 0.7 0
39.6 0.7 0
40 0.7 0
40.4 0.7 0
0 0.8 0
0.4 0.8 0
0.8 0.8 0
1.2 0.8 0
1.6 0.8 0
2 0.8 0
2.4 0.8 0
2.8 0.8 0
3.2 0.8 0
3.6 0.8 0
4 0.8 0
4.4 0.8 0
4.8 0.8 0
5.2 0.8 0
5.6 0.8 0
6 0.8 0
6.4 0.8 0
6.8 0.8 0
7.2 0.8 0
7.6 0.8 0
8 0.8 0
8.4 0.8 0
8.8 0.8 0
9.2 0.8 0
9.6 0.8 0
10 0.8 0
10.4 0.8 0
10.8 0.8 0
11.2 0.8 0
11.6 0.8 0
12 0.8 0
12.4 0.8 0
12.8 0.8 0
13.2 0.8 0
13.6 0.8 0
14 0.8 0
14.4 0.8 0
14.8 0.8 0
15.2 0.8 0
15.6 0.8 0
16 0.8 0
16.4 0.8 0
16.8 0.8 0
17.2 0.8 0
17.6 0.8 0
18 0.8 0
18.4 0.8 0
18.8 0.8 0
19.2 0.8 0
19.6 0.8 0
20 0.8 0
20.4 0.8 0
20.8 0.8 0
21.2 0.8 0
21.6 0.8 0
22 0.8 0
22.4 0.8 0
22.8 0.8 0
23.2 0.8 0
23.6 0.8 0
24 0.8 0
24.4 0.8 0
24.8 0.8 0
25.2 0.8 0
25.6 0.8 0
26 0.8 0
26.4 0.8 0
26.8 0.8 0
27.2 0.8 0
27.6 0.8 0
28 0.8 0
28.4 0.8 0
28.8 0.8 0
29.2 0.8 0
29.6 0.8 0
30 0.8 0
30.4 0.8 0
30.8 0.8 0
31.2 0.8 0
31.6 0.8 0
32 0.8 0
32.4 0.8 0
32.8 0.8 0
33.2 0.8 0
33.6 0.8 0
34 0.8 0
34.4 0.8 0
34.8 0.8 0
35.2 0.8 0
35.6 0.8 0
36 0.8 0
36.4 0.8 0
36.8 0.8 0
37.2 0.8 0
37.6 0.8 0
38 0.8 0
38.4 0.8 0
38.8 0.8 0
39.2 0.8 0
39.6 0.8 0
40 0.8 0
40.4 0.8 0
0 0.9 0
0.4 0.9 0
0.8 0.9 0
1.2 0.9 0
1.6 0.9 0
2 0.9 0
2.4 0.9 0
2.8 0.9 0
3.2 0.9 0
3.6 0.9 0
4 0.9 0
4.4 0.9 0
4.8 0.9 0
5.2 0.9 0
5.6 0.9 0
6 0.9 0
6.4 0.9 0
6.8 0.9 0
7.2 0.9 0
7.6 0.9 0
8 0.9 0
8.4 0.9 0
8.8 0.9 0
9.2 0.9 0
9.6 0.9 0
10 0.9 0
10.4 0.9 0
10.8 0.9 0
11.2 0.9 0
11.6 0.9 0
12 0.9 0
12.4 0.9 0
12.8 0.9 0
13.2 0.9 0
13.6 0.9 0
14 0.9 0
14.4 0.9 0
14.8 0.9 0
15.2 0.9 0
15.6 0.9 0
16 0.9 0
16.4 0.9 0
16.8 0.9 0
17.2 0.9 0
17.6 0.9 0
18 0.9 0
18.4 0.9 0
18.8 0.9 0
19.2 0.9 0
19.6 0.9 0
20 0.9 0
20.4 0.9 0
20.8 0.9 0
21.2 0.9 0
21.6 0.9 0
22 0.9 0
22.4 0.9 0
22.8 0.9 0
23.2 0.9 0
23.6 0.9 0
24 0.9 0
24.4 0.9 0
24.8 0.9 0
25.2 0.9 0
25.6 0.9 0
26 0.9 0
26.4 0.9 0
26.8 0.9 0
27.2 0.9 0
27.6 0.9 0
28 0.9 0
28.4 0.9 0
28.8 0.9 0
29.2 0.9 0
29.6 0.9 0
30 0.9 0
30.4 0.9 0
30.8 0.9 0
31.2 0.9 0
31.6 0.9 0
32 0.9 0
32.4 0.9 0
32.8 0.9 0
33.2 0.9 0
33.6 0.9 0
34 0.9 0
34.4 0.9 0
34.8 0.9 0
35.2 0.9 0
35.6 0.9 0
36 0.9 0
36.4 0.9 0
36.8 0.9 0
37.2 0.9 0
37.6 0.9 0
38 0.9 0
38.4 0.9 0
38.8 0.9 0
39.2 0.9 0
39.6 0.9 0
40 0.9 0
40.4 0.9 0
0 1 0
0.4 1 0
0.8 1 0
1.2 1 0
1.6 1 0
2 1 0
2.4 1 0
2.8 1 0
3.2 1 0
3.6 1 0
4 1 0
4.4 1 0
4.8 1 0
5.2 1 0
5.6 1 0
6 1 0
6.4 1 0
6.8 1 0
7.2 1 0
7.6 1 0
8 1 0
8.4 1 0
8.8 1 0
9.2 1 0
9.6 1 0
10 1 0
10.4 1 0
10.8 1 0
11.2 1 0
11.6 1 0
12 1 0
12.4 1 0
12.8 1 0
13.2 1 0
13.6 1 0
14 1 0
14.4 1 0
14.8 1 0
15.2 1 0
15.6 1 0
16 1 0
16.4 1 0
16.8 1 0
17.2 1 0
17.6 1 0
18 1 0
18.4 1 0
18.8 1 0
19.2 1 0
19.6 1 0
20 1 0
20.4 1 0
20.8 1 0
21.2 1 0
21.6 1 0
22 1 0
22.4 1 0
22.8 1 0
23.2 1 0
23.6 1 0
24 1 0
24.4 1 0
24.8 1 0
25.2 1 0
25.6 1 0
26 1 0
26.4 1 0
26.8 1 0
27.2 1 0
27.6 1 0
28 1 0
28.4 1 0
28.8 1 0
29.2 1 0
29.6 1 0
30 1 0
30.4 1 0
30.8 1 0
31.2 1 0
31.6 1 0
32 1 0
32.4 1 0
32.8 1 0
33.2 1 0
33.6 1 0
34 1 0
34.4 1 0
34.8 1 0
35.2 1 0
35.6 1 0
36 1 0
36.4 1 0
36.8 1 0
37.2 1 0
37.6 1 0
38 1 0
38.4 1 0
38.8 1 0
39.2 1 0
39.6 1 0
40 1 0
40.4 1 0
0 1.1 0
0.4 1.1 0
0.8 1.1 0
1.2 1.1 0
1.6 1.1 0
2 1.1 0
2.4 1.1 0
2.8 1.1 0
3.2 1.1 0
3.6 1.1 0
4 1.1 0
4.4 1.1 0
4.8 1.1 0
5.2 1.1 0
5.6 1.1 0
6 1.1 0
6.4 1.1 0
6.8 1.1 0
7.2 1.1 0
7.6 1.1 0
8 1.1 0
8.4 1.1 0
8.8 1.1 0
9.2 1.1 0
9.6 1.1 0
10 1.1 0
10.4 1.1 0
10.8 1.1 0
11.2 1.1 0
11.6 1.1 0
12 1.1 0
12.4 1.1 0
12.8 1.1 0
13.2 1.1 0
13.6 1.1 0
14 1.1 0
14.4 1.1 0
14.8 1.1 0
15.2 1.1 0
15.6 1.1 0
16 1.1 0
16.4 1.1 0
16.8 1.1 0
17.2 1.1 0
17.6 1.1 0
18 1.1 0
18.4 1.1 0
18.8 1.1 0
19.2 1.1 0
19.6 1.1 0
20 1.1 0
20.4 1.1 0
20.8 1.1 0
21.2 1.1 0
21.6 1.1 0
22 1.1 0
22.4 1.1 0
22.8 1.1 0
23.2 1.1 0
23.6 1.1 0
24 1.1 0
24.4 1.1 0
24.8 1.1 0
25.2 1.1 0
25.6 1.1 0
26 1.1 0
26.4 1.1 0
26.8 1.1 0
27.2 1.1 0
27.6 1.1 0
28 1.1 0
28.4 1.1 0
28.8 1.1 0
29.2 1.1 0
29.6 1.1 0
30 1.1 0
30.4 1.1 0
30.8 1.1 0
31.2 1.1 0
31.6 1.1 0
32 1.1 0
32.4 1.1 0
32.8 1.1 0
33.2 1.1 0
33.6 1.1 0
34 1.1 0
34.4 1.1 0
34.8 1.1 0
35.2 1.1 0
35.6 1.1 0
36 1.1 0
36.4 1.1 0
36.8 1.1 0
37.2 1.1 0
37.6 1.1 0
38 1.1 0
38.4 1.1 0
38.8 1.1 0
39.2 1.1 0
39.6 1.1 0
40 1.1 0
40.4 1.1 0

POINT_DATA 1224

SCALARS v double
LOOKUP_TABLE default
0
0
0
0
0
0
0
0
0
0
0
0
0
0
0
0
0
0
0
0
0
0
0
0
0
0
0
0
0
0
0
0
0
0
0
0
0
0
0
0
0
0
0
0
0
0
0
0
0
0
0
0
0
0
0
0
0
0
0
0
0
0
0
0
0
0
0
0
0
0
0
0
0
0
0
0
0
0
0
0
0
0
0
0
0
0
0
0
0
0
0
0
0
0
0
0
0
0
0
0
0
0
-0.00751344
0.00751344
0.0146552
0.0162812
0.0149618
0.0125487
0.0100747
0.0079588
0.00628243
0.00499021
0.00399567
0.00322206
0.00261164
0.00212353
0.00172905
0.00140773
0.00114463
0.000928458
0.000750534
0.000604011
0.000483415
0.00038431
0.000303061
0.00023667
0.000182641
0.00013889
0.000103669
7.55092e-05
5.31765e-05
3.56317e-05
2.20051e-05
1.15539e-05
3.68713e-06
-2.31686e-06
-6.66824e-06
-9.65105e-06
-1.15444e-05
-1.25926e-05
-1.29998e-05
-1.29327e-05
-1.25256e-05
-1.18848e-05
-1.10935e-05
-1.02159e-05
-9.30061e-06
-8.38367e-06
-7.49101e-06
-6.6406e-06
-5.84418e-06
-5.10871e-06
-4.43749e-06
-3.83111e-06
-3.2882e-06
-2.80602e-06
-2.38092e-06
-2.00868e-06
-1.68482e-06
-1.40477e-06
-1.16402e-06
-9.58256e-07
-7.83387e-07
-6.35622e-07
-5.11479e-07
-4.07797e-07
-3.21734e-07
-2.50755e-07
-1.92615e-07
-1.45343e-07
-1.07217e-07
-7.67429e-08
-5.26324e-08
-3.37804e-08
-1.92511e-08
-8.23377e-09
-2.13548e-10
5.43626e-09
9.3365e-09
1.18972e-08
1.34308e-08
1.41842e-08
1.43534e-08
1.40955e-08
1.353e-08
1.27666e-08
1.18267e-08
1.09231e-08
9.40282e-09
9.15458e-09
1.37347e-09
7.50333e-09
-8.5789e-08
-9.8868e-09
-1.25924e-06
-4.7861e-07
-1.73471e-05
-1.02463e-05
-0.000240811
-0.00016871
-0.00349307
-0.00153827
-0.0477942
-0.0477942
-0.00621567
0.00621567
0.0142999
0.0183624
0.0194157
0.0185586
0.0167091
0.0144992
0.0122985
0.0102885
0.00853603
0.00704673
0.00579863
0.00476022
0.00389924
0.00318648
0.00259682
0.00210924
0.00170635
0.00137381
0.00109978
0.000874466
0.000689742
0.000538827
0.000416055
0.000316675
0.000236696
0.000172765
0.000122067
8.22324e-05
5.12823e-05
2.75368e-05
9.65125e-06
-3.77146e-06
-1.35606e-05
-2.03697e-05
-2.47873e-05
-2.73275e-05
-2.84266e-05
-2.84467e-05
-2.7683e-05
-2.63725e-05
-2.47024e-05
-2.28183e-05
-2.08315e-05
-1.88251e-05
-1.68599e-05
-1.49784e-05
-1.32091e-05
-1.15694e-05
-1.00683e-05
-8.70836e-06
-7.48771e-06
-6.40107e-06
-5.44097e-06
-4.59856e-06
-3.8642e-06
-3.22797e-06
-2.68004e-06
-2.21088e-06
-1.81144e-06
-1.47331e-06
-1.1887e-06
-9.50553e-07
-7.52483e-07
-5.88785e-07
-4.54399e-07
-3.44869e-07
-2.56295e-07
-1.85287e-07
-1.28914e-07
-8.4662e-08
-5.03797e-08
-2.42595e-08
-4.78326e-09
9.1179e-09
1.87731e-08
2.51786e-08
2.91072e-08
3.11633e-08
3.18216e-08
3.14583e-08
3.03605e-08
2.87803e-08
2.68056e-08
2.48554e-08
2.1861e-08
2.14155e-08
8.53904e-09
2.6502e-08
-1.18969e-07
1.2547e-07
-1.81529e-06
1.25088e-06
-2.50788e-05
1.34172e-05
-0.00034783
0.000140673
-0.00482119
0.00085742
-0.061277
-0.061277
-0.00401801
0.00401801
0.00987185
0.0135457
0.0153924
0.0158461
0.0153379
0.0142366
0.0128244
0.0112996
0.00979083
0.00837399
0.00708835
0.00594912
0.00495668
0.00410299
0.00337575
0.002761
0.00224467
0.00181342
0.00145505
0.00115869
0.000914798
0.000715082
0.000552402
0.000420645
0.000314605
0.000229864
0.000162688
0.00010993
6.89532e-05
3.75339e-05
1.38505e-05
-3.76514e-06
-1.65549e-05
-2.54699e-05
-3.1307e-05
-3.47341e-05
-3.63068e-05
-3.64825e-05
-3.56343e-05
-3.40626e-05
-3.20063e-05
-2.9653e-05
-2.7147e-05
-2.45979e-05
-2.20861e-05
-1.96693e-05
-1.73867e-05
-1.52631e-05
-1.33122e-05
-1.15392e-05
-9.94308e-06
-8.5183e-06
-7.25618e-06
-6.14604e-06
-5.176e-06
-4.33367e-06
-3.60663e-06
-2.98273e-06
-2.45039e-06
-1.99876e-06
-1.61778e-06
-1.29825e-06
-1.03187e-06
-8.11161e-07
-6.29496e-07
-4.81009e-07
-3.60557e-07
-2.6366e-07
-1.86433e-07
-1.25538e-07
-7.81041e-08
-4.1732e-08
-1.43131e-08
5.70513e-09
1.98419e-08
2.94082e-08
3.54598e-08
3.88408e-08
4.02219e-08
4.01355e-08
3.89934e-08
3.71417e-08
3.4749e-08
3.22914e-08
2.87319e-08
2.80821e-08
1.40539e-08
3.94629e-08
-1.18986e-07
2.52554e-07
-1.89076e-06
3.03772e-06
-2.59286e-05
3.68616e-05
-0.000345135
0.000398293
-0.0043912
0.00284663
-0.0516343
-0.0516343
-0.00195405
0.00195405
0.00490746
0.00691943
0.00813032
0.00869008
0.00874623
0.00843553
0.00787796
0.00717309
0.00639888
0.0056127
0.0048539
0.00414726
0.0035064
0.00293694
0.00243901
0.0020093
0.00164248
0.00133225
0.001072
0.000855281
0.000676042
0.000528772
0.000408557
0.000311079
0.000232591
0.000169874
0.000120179
8.11787e-05
5.09124e-05
2.7735e-05
1.02716e-05
-2.65293e-06
-1.19818e-05
-1.84619e-05
-2.27016e-05
-2.51984e-05
-2.63586e-05
-2.65125e-05
-2.59273e-05
-2.48177e-05
-2.33541e-05
-2.16707e-05
-1.98712e-05
-1.80346e-05
-1.62195e-05
-1.44683e-05
-1.28101e-05
-1.12637e-05
-9.83977e-06
-8.54293e-06
-7.37306e-06
-6.32672e-06
-5.39808e-06
-4.57978e-06
-3.86347e-06
-3.2404e-06
-2.70168e-06
-2.2386e-06
-1.84282e-06
-1.50647e-06
-1.22224e-06
-9.83448e-07
-7.84003e-07
-6.18443e-07
-4.81896e-07
-3.70048e-07
-2.79109e-07
-2.05767e-07
-1.47151e-07
-1.0078e-07
-6.45292e-08
-3.65924e-08
-1.54371e-08
2.18407e-10
1.14298e-08
1.914e-08
2.41295e-08
2.70357e-08
2.83725e-08
2.85518e-08
2.78947e-08
2.66705e-08
2.5015e-08
2.32972e-08
2.07367e-08
2.0527e-08
1.01211e-08
3.23447e-08
-8.4947e-08
2.3262e-07
-1.31724e-06
2.7741e-06
-1.73778e-05
3.22966e-05
-0.00021892
0.000330259
-0.00260555
0.00238736
-0.0290026
-0.0290026
-1.7821e-10
1.78726e-10
4.48151e-10
6.3122e-10
7.3372e-10
7.61826e-10
7.23713e-10
6.30805e-10
4.97936e-10
3.42498e-10
1.82994e-10
3.74094e-11
-7.83686e-11
-1.51912e-10
-1.75304e-10
-1.45778e-10
-6.58448e-11
5.71042e-11
2.11716e-10
3.83995e-10
5.58858e-10
7.21722e-10
8.59931e-10
9.63841e-10
1.02749e-09
1.04877e-09
1.02927e-09
9.73656e-10
8.88952e-10
7.83779e-10
6.67287e-10
5.48658e-10
4.37388e-10
3.35928e-10
2.5398e-10
1.96592e-10
1.66739e-10
1.65019e-10
1.8967e-10
2.36764e-10
3.00568e-10
3.74059e-10
4.49555e-10
5.19408e-10
5.76688e-10
6.15786e-10
6.32879e-10
6.26198e-10
5.9609e-10
5.44871e-10
4.76494e-10
3.96088e-10
3.09418e-10
2.22334e-10
1.40259e-10
6.77651e-11
8.26726e-12
-3.61584e-11
-6.48247e-11
-7.83697e-11
-7.85982e-11
-6.82521e-11
-5.07347e-11
-2.98126e-11
-9.31429e-12
7.15317e-12
1.64557e-11
1.61378e-11
4.57234e-12
-1.89693e-11
-5.42522e-11
-1.00281e-10
-1.5509e-10
-2.16174e-10
-2.83203e-10
-3.53397e-10
-4.20863e-10
-4.82817e-10
-5.37159e-10
-5.82557e-10
-6.18482e-10
-6.45177e-10
-6.63555e-10
-6.75086e-10
-6.81546e-10
-6.84951e-10
-6.87391e-10
-6.89742e-10
-6.98042e-10
-6.97611e-10
-7.09301e-10
-7.18453e-10
-7.40985e-10
-7.64487e-10
-8.03897e-10
-8.43715e-10
-9.07203e-10
-9.53272e-10
-1.10709e-09
-9.93271e-10
-1.82104e-09
-1.8223e-09
0.00195405
-0.00195405
-0.00490745
-0.00691943
-0.00813032
-0.00869008
-0.00874623
-0.00843552
-0.00787796
-0.00717309
-0.00639888
-0.0056127
-0.0048539
-0.00414726
-0.00350641
-0.00293694
-0.00243901
-0.0020093
-0.00164248
-0.00133225
-0.001072
-0.000855279
-0.00067604
-0.00052877
-0.000408555
-0.000311077
-0.000232589
-0.000169872
-0.000120177
-8.11772e-05
-5.09112e-05
-2.7734e-05
-1.02707e-05
2.65361e-06
1.19824e-05
1.84623e-05
2.2702e-05
2.51988e-05
2.6359e-05
2.6513e-05
2.5928e-05
2.48185e-05
2.3355e-05
2.16717e-05
1.98723e-05
1.80358e-05
1.62207e-05
1.44695e-05
1.28112e-05
1.12647e-05
9.84065e-06
8.54365e-06
7.37363e-06
6.32712e-06
5.39834e-06
4.5799e-06
3.86349e-06
3.24033e-06
2.70156e-06
2.23846e-06
1.84268e-06
1.50635e-06
1.22215e-06
9.83389e-07
7.83975e-07
6.18438e-07
4.81899e-07
3.70042e-07
2.79071e-07
2.05676e-07
1.46985e-07
1.00522e-07
6.41624e-08
3.6108e-08
1.48229e-08
-9.63246e-10
-1.2301e-08
-2.01274e-08
-2.52189e-08
-2.82101e-08
-2.96142e-08
-2.98437e-08
-2.92217e-08
-2.80204e-08
-2.63792e-08
-2.46704e-08
-2.21177e-08
-2.19167e-08
-1.15283e-08
-3.37629e-08
8.35109e-08
-2.34083e-07
1.31574e-06
-2.77566e-06
1.73762e-05
-3.22983e-05
0.000218918
-0.000330261
0.00260555
-0.00238736
0.0290026
0.0290026
0.00401801
-0.00401801
-0.00987185
-0.0135457
-0.0153924
-0.0158461
-0.0153379
-0.0142366
-0.0128244
-0.0112996
-0.00979083
-0.00837399
-0.00708835
-0.00594912
-0.00495668
-0.00410299
-0.00337575
-0.002761
-0.00224467
-0.00181341
-0.00145504
-0.00115869
-0.000914796
-0.00071508
-0.0005524
-0.000420643
-0.000314603
-0.000229862
-0.000162686
-0.000109929
-6.89521e-05
-3.75329e-05
-1.38496e-05
3.76585e-06
1.65556e-05
2.54705e-05
3.13075e-05
3.47347e-05
3.63074e-05
3.64832e-05
3.5635e-05
3.40634e-05
3.20072e-05
2.9654e-05
2.71481e-05
2.4599e-05
2.20872e-05
1.96703e-05
1.73877e-05
1.5264e-05
1.33129e-05
1.15398e-05
9.94352e-06
8.51861e-06
7.25637e-06
6.14613e-06
5.17601e-06
4.33363e-06
3.60654e-06
2.98262e-06
2.45028e-06
1.99866e-06
1.61768e-06
1.29817e-06
1.03179e-06
8.11082e-07
6.29401e-07
4.80882e-07
3.60383e-07
2.63421e-07
1.86115e-07
1.25129e-07
7.75938e-08
4.11182e-08
1.35863e-08
-6.53904e-09
-2.07818e-08
-3.04459e-08
-3.65827e-08
-4.00345e-08
-4.1472e-08
-4.14289e-08
-4.03191e-08
-3.84914e-08
-3.61172e-08
-3.36753e-08
-3.0132e-08
-2.94997e-08
-1.54944e-08
-4.09362e-08
1.17502e-07
-2.54078e-07
1.88921e-06
-3.03934e-06
2.5927e-05
-3.68633e-05
0.000345133
-0.000398295
0.00439119
-0.00284663
0.0516343
0.0516343
0.00621567
-0.00621567
-0.0142999
-0.0183624
-0.0194157
-0.0185586
-0.0167091
-0.0144992
-0.0122985
-0.0102885
-0.00853603
-0.00704673
-0.00579863
-0.00476022
-0.00389924
-0.00318648
-0.00259682
-0.00210924
-0.00170635
-0.00137381
-0.00109978
-0.000874464
-0.00068974
-0.000538826
-0.000416054
-0.000316673
-0.000236694
-0.000172764
-0.000122066
-8.22312e-05
-5.12813e-05
-2.75359e-05
-9.65041e-06
3.77224e-06
1.35614e-05
2.03704e-05
2.4788e-05
2.73282e-05
2.84273e-05
2.84474e-05
2.76838e-05
2.63733e-05
2.47032e-05
2.28192e-05
2.08323e-05
1.8826e-05
1.68607e-05
1.49792e-05
1.32098e-05
1.157e-05
1.00688e-05
8.70876e-06
7.48801e-06
6.40128e-06
5.44111e-06
4.59863e-06
3.86421e-06
3.22794e-06
2.67997e-06
2.21078e-06
1.81133e-06
1.47318e-06
1.18856e-06
9.50395e-07
7.52301e-07
5.88573e-07
4.54148e-07
3.44569e-07
2.55937e-07
1.84862e-07
1.28415e-07
8.40834e-08
4.97176e-08
2.35129e-08
3.96535e-09
-1.00238e-08
-1.97639e-08
-2.62452e-08
-3.02387e-08
-3.23491e-08
-3.30526e-08
-3.27267e-08
-3.16605e-08
-3.01078e-08
-2.81583e-08
-2.62325e-08
-2.32634e-08
-2.28442e-08
-9.99495e-09
-2.8016e-08
1.17455e-07
-1.27023e-07
1.8137e-06
-1.25251e-06
2.50771e-05
-1.34189e-05
0.000347829
-0.000140675
0.00482119
-0.000857422
0.061277
0.061277
0.00751344
-0.00751344
-0.0146552
-0.0162812
-0.0149618
-0.0125487
-0.0100747
-0.0079588
-0.00628243
-0.00499021
-0.00399567
-0.00322205
-0.00261164
-0.00212353
-0.00172905
-0.00140773
-0.00114463
-0.000928457
-0.000750533
-0.00060401
-0.000483414
-0.000384309
-0.00030306
-0.000236669
-0.00018264
-0.000138889
-0.000103668
-7.55083e-05
-5.31756e-05
-3.56308e-05
-2.20042e-05
-1.15531e-05
-3.68639e-06
2.31758e-06
6.66892e-06
9.65171e-06
1.15451e-05
1.25932e-05
1.30004e-05
1.29334e-05
1.25262e-05
1.18854e-05
1.10941e-05
1.02165e-05
9.30119e-06
8.38422e-06
7.49152e-06
6.64105e-06
5.84459e-06
5.10906e-06
4.43778e-06
3.83134e-06
3.28837e-06
2.80614e-06
2.38099e-06
2.00871e-06
1.68481e-06
1.40472e-06
1.16394e-06
9.58143e-07
7.83245e-07
6.35451e-07
5.11277e-07
4.07564e-07
3.21466e-07
2.50448e-07
1.92266e-07
1.44949e-07
1.06774e-07
7.62482e-08
5.20838e-08
3.3177e-08
1.8592e-08
7.51956e-09
-5.34456e-10
-6.24691e-09
-1.02054e-08
-1.2816e-08
-1.43926e-08
-1.51837e-08
-1.53865e-08
-1.51593e-08
-1.46222e-08
-1.38856e-08
-1.29717e-08
-1.20933e-08
-1.05987e-08
-1.03759e-08
-2.61935e-09
-8.80975e-09
8.44679e-08
8.56284e-09
1.25789e-06
4.77232e-07
1.73457e-05
1.02449e-05
0.00024081
0.000168708
0.00349307
0.00153827
0.0477942
0.0477942
0
0
0
0
0
0
0
0
0
0
0
0
0
0
0
0
0
0
0
0
0
0
0
0
0
0
0
0
0
0
0
0
0
0
0
0
0
0
0
0
0
0
0
0
0
0
0
0
0
0
0
0
0
0
0
0
0
0
0
0
0
0
0
0
0
0
0
0
0
0
0
0
0
0
0
0
0
0
0
0
0
0
0
0
0
0
0
0
0
0
0
0
0
0
0
0
0
0
0
0
0
0
0
0
0
0
0
0
0
0
0
0
0
0
0
0
0
0
0
0
0
0
0
0
0
0
0
0
0
0
0
0
0
0
0
0
0
0
0
0
0
0
0
0
0
0
0
0
0
0
0
0
0
0
0
0
0
0
0
0
0
0
0
0
0
0
0
0
0
0
0
0
0
0
0
0
0
0
0
0
0
0
0
0
0
0
0
0
0
0
0
0
0
0
0
0
0
0
0
0
0
0
0
0
