# vtk DataFile Version 2.0
FlowField
ASCII
DATASET STRUCTURED_GRID
DIMENSIONS 102 12 1 
POINTS 1224 double
0 0 0
0.3 0 0
0.6 0 0
0.9 0 0
1.2 0 0
1.5 0 0
1.8 0 0
2.1 0 0
2.4 0 0
2.7 0 0
3 0 0
3.3 0 0
3.6 0 0
3.9 0 0
4.2 0 0
4.5 0 0
4.8 0 0
5.1 0 0
5.4 0 0
5.7 0 0
6 0 0
6.3 0 0
6.6 0 0
6.9 0 0
7.2 0 0
7.5 0 0
7.8 0 0
8.1 0 0
8.4 0 0
8.7 0 0
9 0 0
9.3 0 0
9.6 0 0
9.9 0 0
10.2 0 0
10.5 0 0
10.8 0 0
11.1 0 0
11.4 0 0
11.7 0 0
12 0 0
12.3 0 0
12.6 0 0
12.9 0 0
13.2 0 0
13.5 0 0
13.8 0 0
14.1 0 0
14.4 0 0
14.7 0 0
15 0 0
15.3 0 0
15.6 0 0
15.9 0 0
16.2 0 0
16.5 0 0
16.8 0 0
17.1 0 0
17.4 0 0
17.7 0 0
18 0 0
18.3 0 0
18.6 0 0
18.9 0 0
19.2 0 0
19.5 0 0
19.8 0 0
20.1 0 0
20.4 0 0
20.7 0 0
21 0 0
21.3 0 0
21.6 0 0
21.9 0 0
22.2 0 0
22.5 0 0
22.8 0 0
23.1 0 0
23.4 0 0
23.7 0 0
24 0 0
24.3 0 0
24.6 0 0
24.9 0 0
25.2 0 0
25.5 0 0
25.8 0 0
26.1 0 0
26.4 0 0
26.7 0 0
27 0 0
27.3 0 0
27.6 0 0
27.9 0 0
28.2 0 0
28.5 0 0
28.8 0 0
29.1 0 0
29.4 0 0
29.7 0 0
30 0 0
30.3 0 0
0 0.1 0
0.3 0.1 0
0.6 0.1 0
0.9 0.1 0
1.2 0.1 0
1.5 0.1 0
1.8 0.1 0
2.1 0.1 0
2.4 0.1 0
2.7 0.1 0
3 0.1 0
3.3 0.1 0
3.6 0.1 0
3.9 0.1 0
4.2 0.1 0
4.5 0.1 0
4.8 0.1 0
5.1 0.1 0
5.4 0.1 0
5.7 0.1 0
6 0.1 0
6.3 0.1 0
6.6 0.1 0
6.9 0.1 0
7.2 0.1 0
7.5 0.1 0
7.8 0.1 0
8.1 0.1 0
8.4 0.1 0
8.7 0.1 0
9 0.1 0
9.3 0.1 0
9.6 0.1 0
9.9 0.1 0
10.2 0.1 0
10.5 0.1 0
10.8 0.1 0
11.1 0.1 0
11.4 0.1 0
11.7 0.1 0
12 0.1 0
12.3 0.1 0
12.6 0.1 0
12.9 0.1 0
13.2 0.1 0
13.5 0.1 0
13.8 0.1 0
14.1 0.1 0
14.4 0.1 0
14.7 0.1 0
15 0.1 0
15.3 0.1 0
15.6 0.1 0
15.9 0.1 0
16.2 0.1 0
16.5 0.1 0
16.8 0.1 0
17.1 0.1 0
17.4 0.1 0
17.7 0.1 0
18 0.1 0
18.3 0.1 0
18.6 0.1 0
18.9 0.1 0
19.2 0.1 0
19.5 0.1 0
19.8 0.1 0
20.1 0.1 0
20.4 0.1 0
20.7 0.1 0
21 0.1 0
21.3 0.1 0
21.6 0.1 0
21.9 0.1 0
22.2 0.1 0
22.5 0.1 0
22.8 0.1 0
23.1 0.1 0
23.4 0.1 0
23.7 0.1 0
24 0.1 0
24.3 0.1 0
24.6 0.1 0
24.9 0.1 0
25.2 0.1 0
25.5 0.1 0
25.8 0.1 0
26.1 0.1 0
26.4 0.1 0
26.7 0.1 0
27 0.1 0
27.3 0.1 0
27.6 0.1 0
27.9 0.1 0
28.2 0.1 0
28.5 0.1 0
28.8 0.1 0
29.1 0.1 0
29.4 0.1 0
29.7 0.1 0
30 0.1 0
30.3 0.1 0
0 0.2 0
0.3 0.2 0
0.6 0.2 0
0.9 0.2 0
1.2 0.2 0
1.5 0.2 0
1.8 0.2 0
2.1 0.2 0
2.4 0.2 0
2.7 0.2 0
3 0.2 0
3.3 0.2 0
3.6 0.2 0
3.9 0.2 0
4.2 0.2 0
4.5 0.2 0
4.8 0.2 0
5.1 0.2 0
5.4 0.2 0
5.7 0.2 0
6 0.2 0
6.3 0.2 0
6.6 0.2 0
6.9 0.2 0
7.2 0.2 0
7.5 0.2 0
7.8 0.2 0
8.1 0.2 0
8.4 0.2 0
8.7 0.2 0
9 0.2 0
9.3 0.2 0
9.6 0.2 0
9.9 0.2 0
10.2 0.2 0
10.5 0.2 0
10.8 0.2 0
11.1 0.2 0
11.4 0.2 0
11.7 0.2 0
12 0.2 0
12.3 0.2 0
12.6 0.2 0
12.9 0.2 0
13.2 0.2 0
13.5 0.2 0
13.8 0.2 0
14.1 0.2 0
14.4 0.2 0
14.7 0.2 0
15 0.2 0
15.3 0.2 0
15.6 0.2 0
15.9 0.2 0
16.2 0.2 0
16.5 0.2 0
16.8 0.2 0
17.1 0.2 0
17.4 0.2 0
17.7 0.2 0
18 0.2 0
18.3 0.2 0
18.6 0.2 0
18.9 0.2 0
19.2 0.2 0
19.5 0.2 0
19.8 0.2 0
20.1 0.2 0
20.4 0.2 0
20.7 0.2 0
21 0.2 0
21.3 0.2 0
21.6 0.2 0
21.9 0.2 0
22.2 0.2 0
22.5 0.2 0
22.8 0.2 0
23.1 0.2 0
23.4 0.2 0
23.7 0.2 0
24 0.2 0
24.3 0.2 0
24.6 0.2 0
24.9 0.2 0
25.2 0.2 0
25.5 0.2 0
25.8 0.2 0
26.1 0.2 0
26.4 0.2 0
26.7 0.2 0
27 0.2 0
27.3 0.2 0
27.6 0.2 0
27.9 0.2 0
28.2 0.2 0
28.5 0.2 0
28.8 0.2 0
29.1 0.2 0
29.4 0.2 0
29.7 0.2 0
30 0.2 0
30.3 0.2 0
0 0.3 0
0.3 0.3 0
0.6 0.3 0
0.9 0.3 0
1.2 0.3 0
1.5 0.3 0
1.8 0.3 0
2.1 0.3 0
2.4 0.3 0
2.7 0.3 0
3 0.3 0
3.3 0.3 0
3.6 0.3 0
3.9 0.3 0
4.2 0.3 0
4.5 0.3 0
4.8 0.3 0
5.1 0.3 0
5.4 0.3 0
5.7 0.3 0
6 0.3 0
6.3 0.3 0
6.6 0.3 0
6.9 0.3 0
7.2 0.3 0
7.5 0.3 0
7.8 0.3 0
8.1 0.3 0
8.4 0.3 0
8.7 0.3 0
9 0.3 0
9.3 0.3 0
9.6 0.3 0
9.9 0.3 0
10.2 0.3 0
10.5 0.3 0
10.8 0.3 0
11.1 0.3 0
11.4 0.3 0
11.7 0.3 0
12 0.3 0
12.3 0.3 0
12.6 0.3 0
12.9 0.3 0
13.2 0.3 0
13.5 0.3 0
13.8 0.3 0
14.1 0.3 0
14.4 0.3 0
14.7 0.3 0
15 0.3 0
15.3 0.3 0
15.6 0.3 0
15.9 0.3 0
16.2 0.3 0
16.5 0.3 0
16.8 0.3 0
17.1 0.3 0
17.4 0.3 0
17.7 0.3 0
18 0.3 0
18.3 0.3 0
18.6 0.3 0
18.9 0.3 0
19.2 0.3 0
19.5 0.3 0
19.8 0.3 0
20.1 0.3 0
20.4 0.3 0
20.7 0.3 0
21 0.3 0
21.3 0.3 0
21.6 0.3 0
21.9 0.3 0
22.2 0.3 0
22.5 0.3 0
22.8 0.3 0
23.1 0.3 0
23.4 0.3 0
23.7 0.3 0
24 0.3 0
24.3 0.3 0
24.6 0.3 0
24.9 0.3 0
25.2 0.3 0
25.5 0.3 0
25.8 0.3 0
26.1 0.3 0
26.4 0.3 0
26.7 0.3 0
27 0.3 0
27.3 0.3 0
27.6 0.3 0
27.9 0.3 0
28.2 0.3 0
28.5 0.3 0
28.8 0.3 0
29.1 0.3 0
29.4 0.3 0
29.7 0.3 0
30 0.3 0
30.3 0.3 0
0 0.4 0
0.3 0.4 0
0.6 0.4 0
0.9 0.4 0
1.2 0.4 0
1.5 0.4 0
1.8 0.4 0
2.1 0.4 0
2.4 0.4 0
2.7 0.4 0
3 0.4 0
3.3 0.4 0
3.6 0.4 0
3.9 0.4 0
4.2 0.4 0
4.5 0.4 0
4.8 0.4 0
5.1 0.4 0
5.4 0.4 0
5.7 0.4 0
6 0.4 0
6.3 0.4 0
6.6 0.4 0
6.9 0.4 0
7.2 0.4 0
7.5 0.4 0
7.8 0.4 0
8.1 0.4 0
8.4 0.4 0
8.7 0.4 0
9 0.4 0
9.3 0.4 0
9.6 0.4 0
9.9 0.4 0
10.2 0.4 0
10.5 0.4 0
10.8 0.4 0
11.1 0.4 0
11.4 0.4 0
11.7 0.4 0
12 0.4 0
12.3 0.4 0
12.6 0.4 0
12.9 0.4 0
13.2 0.4 0
13.5 0.4 0
13.8 0.4 0
14.1 0.4 0
14.4 0.4 0
14.7 0.4 0
15 0.4 0
15.3 0.4 0
15.6 0.4 0
15.9 0.4 0
16.2 0.4 0
16.5 0.4 0
16.8 0.4 0
17.1 0.4 0
17.4 0.4 0
17.7 0.4 0
18 0.4 0
18.3 0.4 0
18.6 0.4 0
18.9 0.4 0
19.2 0.4 0
19.5 0.4 0
19.8 0.4 0
20.1 0.4 0
20.4 0.4 0
20.7 0.4 0
21 0.4 0
21.3 0.4 0
21.6 0.4 0
21.9 0.4 0
22.2 0.4 0
22.5 0.4 0
22.8 0.4 0
23.1 0.4 0
23.4 0.4 0
23.7 0.4 0
24 0.4 0
24.3 0.4 0
24.6 0.4 0
24.9 0.4 0
25.2 0.4 0
25.5 0.4 0
25.8 0.4 0
26.1 0.4 0
26.4 0.4 0
26.7 0.4 0
27 0.4 0
27.3 0.4 0
27.6 0.4 0
27.9 0.4 0
28.2 0.4 0
28.5 0.4 0
28.8 0.4 0
29.1 0.4 0
29.4 0.4 0
29.7 0.4 0
30 0.4 0
30.3 0.4 0
0 0.5 0
0.3 0.5 0
0.6 0.5 0
0.9 0.5 0
1.2 0.5 0
1.5 0.5 0
1.8 0.5 0
2.1 0.5 0
2.4 0.5 0
2.7 0.5 0
3 0.5 0
3.3 0.5 0
3.6 0.5 0
3.9 0.5 0
4.2 0.5 0
4.5 0.5 0
4.8 0.5 0
5.1 0.5 0
5.4 0.5 0
5.7 0.5 0
6 0.5 0
6.3 0.5 0
6.6 0.5 0
6.9 0.5 0
7.2 0.5 0
7.5 0.5 0
7.8 0.5 0
8.1 0.5 0
8.4 0.5 0
8.7 0.5 0
9 0.5 0
9.3 0.5 0
9.6 0.5 0
9.9 0.5 0
10.2 0.5 0
10.5 0.5 0
10.8 0.5 0
11.1 0.5 0
11.4 0.5 0
11.7 0.5 0
12 0.5 0
12.3 0.5 0
12.6 0.5 0
12.9 0.5 0
13.2 0.5 0
13.5 0.5 0
13.8 0.5 0
14.1 0.5 0
14.4 0.5 0
14.7 0.5 0
15 0.5 0
15.3 0.5 0
15.6 0.5 0
15.9 0.5 0
16.2 0.5 0
16.5 0.5 0
16.8 0.5 0
17.1 0.5 0
17.4 0.5 0
17.7 0.5 0
18 0.5 0
18.3 0.5 0
18.6 0.5 0
18.9 0.5 0
19.2 0.5 0
19.5 0.5 0
19.8 0.5 0
20.1 0.5 0
20.4 0.5 0
20.7 0.5 0
21 0.5 0
21.3 0.5 0
21.6 0.5 0
21.9 0.5 0
22.2 0.5 0
22.5 0.5 0
22.8 0.5 0
23.1 0.5 0
23.4 0.5 0
23.7 0.5 0
24 0.5 0
24.3 0.5 0
24.6 0.5 0
24.9 0.5 0
25.2 0.5 0
25.5 0.5 0
25.8 0.5 0
26.1 0.5 0
26.4 0.5 0
26.7 0.5 0
27 0.5 0
27.3 0.5 0
27.6 0.5 0
27.9 0.5 0
28.2 0.5 0
28.5 0.5 0
28.8 0.5 0
29.1 0.5 0
29.4 0.5 0
29.7 0.5 0
30 0.5 0
30.3 0.5 0
0 0.6 0
0.3 0.6 0
0.6 0.6 0
0.9 0.6 0
1.2 0.6 0
1.5 0.6 0
1.8 0.6 0
2.1 0.6 0
2.4 0.6 0
2.7 0.6 0
3 0.6 0
3.3 0.6 0
3.6 0.6 0
3.9 0.6 0
4.2 0.6 0
4.5 0.6 0
4.8 0.6 0
5.1 0.6 0
5.4 0.6 0
5.7 0.6 0
6 0.6 0
6.3 0.6 0
6.6 0.6 0
6.9 0.6 0
7.2 0.6 0
7.5 0.6 0
7.8 0.6 0
8.1 0.6 0
8.4 0.6 0
8.7 0.6 0
9 0.6 0
9.3 0.6 0
9.6 0.6 0
9.9 0.6 0
10.2 0.6 0
10.5 0.6 0
10.8 0.6 0
11.1 0.6 0
11.4 0.6 0
11.7 0.6 0
12 0.6 0
12.3 0.6 0
12.6 0.6 0
12.9 0.6 0
13.2 0.6 0
13.5 0.6 0
13.8 0.6 0
14.1 0.6 0
14.4 0.6 0
14.7 0.6 0
15 0.6 0
15.3 0.6 0
15.6 0.6 0
15.9 0.6 0
16.2 0.6 0
16.5 0.6 0
16.8 0.6 0
17.1 0.6 0
17.4 0.6 0
17.7 0.6 0
18 0.6 0
18.3 0.6 0
18.6 0.6 0
18.9 0.6 0
19.2 0.6 0
19.5 0.6 0
19.8 0.6 0
20.1 0.6 0
20.4 0.6 0
20.7 0.6 0
21 0.6 0
21.3 0.6 0
21.6 0.6 0
21.9 0.6 0
22.2 0.6 0
22.5 0.6 0
22.8 0.6 0
23.1 0.6 0
23.4 0.6 0
23.7 0.6 0
24 0.6 0
24.3 0.6 0
24.6 0.6 0
24.9 0.6 0
25.2 0.6 0
25.5 0.6 0
25.8 0.6 0
26.1 0.6 0
26.4 0.6 0
26.7 0.6 0
27 0.6 0
27.3 0.6 0
27.6 0.6 0
27.9 0.6 0
28.2 0.6 0
28.5 0.6 0
28.8 0.6 0
29.1 0.6 0
29.4 0.6 0
29.7 0.6 0
30 0.6 0
30.3 0.6 0
0 0.7 0
0.3 0.7 0
0.6 0.7 0
0.9 0.7 0
1.2 0.7 0
1.5 0.7 0
1.8 0.7 0
2.1 0.7 0
2.4 0.7 0
2.7 0.7 0
3 0.7 0
3.3 0.7 0
3.6 0.7 0
3.9 0.7 0
4.2 0.7 0
4.5 0.7 0
4.8 0.7 0
5.1 0.7 0
5.4 0.7 0
5.7 0.7 0
6 0.7 0
6.3 0.7 0
6.6 0.7 0
6.9 0.7 0
7.2 0.7 0
7.5 0.7 0
7.8 0.7 0
8.1 0.7 0
8.4 0.7 0
8.7 0.7 0
9 0.7 0
9.3 0.7 0
9.6 0.7 0
9.9 0.7 0
10.2 0.7 0
10.5 0.7 0
10.8 0.7 0
11.1 0.7 0
11.4 0.7 0
11.7 0.7 0
12 0.7 0
12.3 0.7 0
12.6 0.7 0
12.9 0.7 0
13.2 0.7 0
13.5 0.7 0
13.8 0.7 0
14.1 0.7 0
14.4 0.7 0
14.7 0.7 0
15 0.7 0
15.3 0.7 0
15.6 0.7 0
15.9 0.7 0
16.2 0.7 0
16.5 0.7 0
16.8 0.7 0
17.1 0.7 0
17.4 0.7 0
17.7 0.7 0
18 0.7 0
18.3 0.7 0
18.6 0.7 0
18.9 0.7 0
19.2 0.7 0
19.5 0.7 0
19.8 0.7 0
20.1 0.7 0
20.4 0.7 0
20.7 0.7 0
21 0.7 0
21.3 0.7 0
21.6 0.7 0
21.9 0.7 0
22.2 0.7 0
22.5 0.7 0
22.8 0.7 0
23.1 0.7 0
23.4 0.7 0
23.7 0.7 0
24 0.7 0
24.3 0.7 0
24.6 0.7 0
24.9 0.7 0
25.2 0.7 0
25.5 0.7 0
25.8 0.7 0
26.1 0.7 0
26.4 0.7 0
26.7 0.7 0
27 0.7 0
27.3 0.7 0
27.6 0.7 0
27.9 0.7 0
28.2 0.7 0
28.5 0.7 0
28.8 0.7 0
29.1 0.7 0
29.4 0.7 0
29.7 0.7 0
30 0.7 0
30.3 0.7 0
0 0.8 0
0.3 0.8 0
0.6 0.8 0
0.9 0.8 0
1.2 0.8 0
1.5 0.8 0
1.8 0.8 0
2.1 0.8 0
2.4 0.8 0
2.7 0.8 0
3 0.8 0
3.3 0.8 0
3.6 0.8 0
3.9 0.8 0
4.2 0.8 0
4.5 0.8 0
4.8 0.8 0
5.1 0.8 0
5.4 0.8 0
5.7 0.8 0
6 0.8 0
6.3 0.8 0
6.6 0.8 0
6.9 0.8 0
7.2 0.8 0
7.5 0.8 0
7.8 0.8 0
8.1 0.8 0
8.4 0.8 0
8.7 0.8 0
9 0.8 0
9.3 0.8 0
9.6 0.8 0
9.9 0.8 0
10.2 0.8 0
10.5 0.8 0
10.8 0.8 0
11.1 0.8 0
11.4 0.8 0
11.7 0.8 0
12 0.8 0
12.3 0.8 0
12.6 0.8 0
12.9 0.8 0
13.2 0.8 0
13.5 0.8 0
13.8 0.8 0
14.1 0.8 0
14.4 0.8 0
14.7 0.8 0
15 0.8 0
15.3 0.8 0
15.6 0.8 0
15.9 0.8 0
16.2 0.8 0
16.5 0.8 0
16.8 0.8 0
17.1 0.8 0
17.4 0.8 0
17.7 0.8 0
18 0.8 0
18.3 0.8 0
18.6 0.8 0
18.9 0.8 0
19.2 0.8 0
19.5 0.8 0
19.8 0.8 0
20.1 0.8 0
20.4 0.8 0
20.7 0.8 0
21 0.8 0
21.3 0.8 0
21.6 0.8 0
21.9 0.8 0
22.2 0.8 0
22.5 0.8 0
22.8 0.8 0
23.1 0.8 0
23.4 0.8 0
23.7 0.8 0
24 0.8 0
24.3 0.8 0
24.6 0.8 0
24.9 0.8 0
25.2 0.8 0
25.5 0.8 0
25.8 0.8 0
26.1 0.8 0
26.4 0.8 0
26.7 0.8 0
27 0.8 0
27.3 0.8 0
27.6 0.8 0
27.9 0.8 0
28.2 0.8 0
28.5 0.8 0
28.8 0.8 0
29.1 0.8 0
29.4 0.8 0
29.7 0.8 0
30 0.8 0
30.3 0.8 0
0 0.9 0
0.3 0.9 0
0.6 0.9 0
0.9 0.9 0
1.2 0.9 0
1.5 0.9 0
1.8 0.9 0
2.1 0.9 0
2.4 0.9 0
2.7 0.9 0
3 0.9 0
3.3 0.9 0
3.6 0.9 0
3.9 0.9 0
4.2 0.9 0
4.5 0.9 0
4.8 0.9 0
5.1 0.9 0
5.4 0.9 0
5.7 0.9 0
6 0.9 0
6.3 0.9 0
6.6 0.9 0
6.9 0.9 0
7.2 0.9 0
7.5 0.9 0
7.8 0.9 0
8.1 0.9 0
8.4 0.9 0
8.7 0.9 0
9 0.9 0
9.3 0.9 0
9.6 0.9 0
9.9 0.9 0
10.2 0.9 0
10.5 0.9 0
10.8 0.9 0
11.1 0.9 0
11.4 0.9 0
11.7 0.9 0
12 0.9 0
12.3 0.9 0
12.6 0.9 0
12.9 0.9 0
13.2 0.9 0
13.5 0.9 0
13.8 0.9 0
14.1 0.9 0
14.4 0.9 0
14.7 0.9 0
15 0.9 0
15.3 0.9 0
15.6 0.9 0
15.9 0.9 0
16.2 0.9 0
16.5 0.9 0
16.8 0.9 0
17.1 0.9 0
17.4 0.9 0
17.7 0.9 0
18 0.9 0
18.3 0.9 0
18.6 0.9 0
18.9 0.9 0
19.2 0.9 0
19.5 0.9 0
19.8 0.9 0
20.1 0.9 0
20.4 0.9 0
20.7 0.9 0
21 0.9 0
21.3 0.9 0
21.6 0.9 0
21.9 0.9 0
22.2 0.9 0
22.5 0.9 0
22.8 0.9 0
23.1 0.9 0
23.4 0.9 0
23.7 0.9 0
24 0.9 0
24.3 0.9 0
24.6 0.9 0
24.9 0.9 0
25.2 0.9 0
25.5 0.9 0
25.8 0.9 0
26.1 0.9 0
26.4 0.9 0
26.7 0.9 0
27 0.9 0
27.3 0.9 0
27.6 0.9 0
27.9 0.9 0
28.2 0.9 0
28.5 0.9 0
28.8 0.9 0
29.1 0.9 0
29.4 0.9 0
29.7 0.9 0
30 0.9 0
30.3 0.9 0
0 1 0
0.3 1 0
0.6 1 0
0.9 1 0
1.2 1 0
1.5 1 0
1.8 1 0
2.1 1 0
2.4 1 0
2.7 1 0
3 1 0
3.3 1 0
3.6 1 0
3.9 1 0
4.2 1 0
4.5 1 0
4.8 1 0
5.1 1 0
5.4 1 0
5.7 1 0
6 1 0
6.3 1 0
6.6 1 0
6.9 1 0
7.2 1 0
7.5 1 0
7.8 1 0
8.1 1 0
8.4 1 0
8.7 1 0
9 1 0
9.3 1 0
9.6 1 0
9.9 1 0
10.2 1 0
10.5 1 0
10.8 1 0
11.1 1 0
11.4 1 0
11.7 1 0
12 1 0
12.3 1 0
12.6 1 0
12.9 1 0
13.2 1 0
13.5 1 0
13.8 1 0
14.1 1 0
14.4 1 0
14.7 1 0
15 1 0
15.3 1 0
15.6 1 0
15.9 1 0
16.2 1 0
16.5 1 0
16.8 1 0
17.1 1 0
17.4 1 0
17.7 1 0
18 1 0
18.3 1 0
18.6 1 0
18.9 1 0
19.2 1 0
19.5 1 0
19.8 1 0
20.1 1 0
20.4 1 0
20.7 1 0
21 1 0
21.3 1 0
21.6 1 0
21.9 1 0
22.2 1 0
22.5 1 0
22.8 1 0
23.1 1 0
23.4 1 0
23.7 1 0
24 1 0
24.3 1 0
24.6 1 0
24.9 1 0
25.2 1 0
25.5 1 0
25.8 1 0
26.1 1 0
26.4 1 0
26.7 1 0
27 1 0
27.3 1 0
27.6 1 0
27.9 1 0
28.2 1 0
28.5 1 0
28.8 1 0
29.1 1 0
29.4 1 0
29.7 1 0
30 1 0
30.3 1 0
0 1.1 0
0.3 1.1 0
0.6 1.1 0
0.9 1.1 0
1.2 1.1 0
1.5 1.1 0
1.8 1.1 0
2.1 1.1 0
2.4 1.1 0
2.7 1.1 0
3 1.1 0
3.3 1.1 0
3.6 1.1 0
3.9 1.1 0
4.2 1.1 0
4.5 1.1 0
4.8 1.1 0
5.1 1.1 0
5.4 1.1 0
5.7 1.1 0
6 1.1 0
6.3 1.1 0
6.6 1.1 0
6.9 1.1 0
7.2 1.1 0
7.5 1.1 0
7.8 1.1 0
8.1 1.1 0
8.4 1.1 0
8.7 1.1 0
9 1.1 0
9.3 1.1 0
9.6 1.1 0
9.9 1.1 0
10.2 1.1 0
10.5 1.1 0
10.8 1.1 0
11.1 1.1 0
11.4 1.1 0
11.7 1.1 0
12 1.1 0
12.3 1.1 0
12.6 1.1 0
12.9 1.1 0
13.2 1.1 0
13.5 1.1 0
13.8 1.1 0
14.1 1.1 0
14.4 1.1 0
14.7 1.1 0
15 1.1 0
15.3 1.1 0
15.6 1.1 0
15.9 1.1 0
16.2 1.1 0
16.5 1.1 0
16.8 1.1 0
17.1 1.1 0
17.4 1.1 0
17.7 1.1 0
18 1.1 0
18.3 1.1 0
18.6 1.1 0
18.9 1.1 0
19.2 1.1 0
19.5 1.1 0
19.8 1.1 0
20.1 1.1 0
20.4 1.1 0
20.7 1.1 0
21 1.1 0
21.3 1.1 0
21.6 1.1 0
21.9 1.1 0
22.2 1.1 0
22.5 1.1 0
22.8 1.1 0
23.1 1.1 0
23.4 1.1 0
23.7 1.1 0
24 1.1 0
24.3 1.1 0
24.6 1.1 0
24.9 1.1 0
25.2 1.1 0
25.5 1.1 0
25.8 1.1 0
26.1 1.1 0
26.4 1.1 0
26.7 1.1 0
27 1.1 0
27.3 1.1 0
27.6 1.1 0
27.9 1.1 0
28.2 1.1 0
28.5 1.1 0
28.8 1.1 0
29.1 1.1 0
29.4 1.1 0
29.7 1.1 0
30 1.1 0
30.3 1.1 0

POINT_DATA 1224

SCALARS u double
LOOKUP_TABLE default
-1
-0.890156
-0.775927
-0.678685
-0.600321
-0.539072
-0.492128
-0.456571
-0.429908
-0.41024
-0.396147
-0.386466
-0.380167
-0.376323
-0.374146
-0.37302
-0.372502
-0.3723
-0.372243
-0.372239
-0.372248
-0.372256
-0.372262
-0.372265
-0.372266
-0.372267
-0.372268
-0.372268
-0.372268
-0.372268
-0.372268
-0.372268
-0.372268
-0.372268
-0.372268
-0.372268
-0.372268
-0.372268
-0.372268
-0.372268
-0.372268
-0.372268
-0.372268
-0.372268
-0.372268
-0.372268
-0.372268
-0.372268
-0.372268
-0.372268
-0.372268
-0.372268
-0.372269
-0.372269
-0.372269
-0.372269
-0.372269
-0.372269
-0.372269
-0.372269
-0.372269
-0.372269
-0.372269
-0.372269
-0.372269
-0.372269
-0.372269
-0.372269
-0.372269
-0.372269
-0.372269
-0.372269
-0.372269
-0.372269
-0.372269
-0.372269
-0.372269
-0.372269
-0.372269
-0.372269
-0.372269
-0.372269
-0.372269
-0.372269
-0.372269
-0.372269
-0.372269
-0.372269
-0.372269
-0.372269
-0.372269
-0.372269
-0.372269
-0.372269
-0.37227
-0.372271
-0.372274
-0.372295
-0.372327
-0.372476
-0.372476
-1
1
0.890156
0.775927
0.678685
0.600321
0.539072
0.492128
0.456571
0.429908
0.41024
0.396147
0.386466
0.380167
0.376323
0.374146
0.37302
0.372502
0.3723
0.372243
0.372239
0.372248
0.372256
0.372262
0.372265
0.372266
0.372267
0.372268
0.372268
0.372268
0.372268
0.372268
0.372268
0.372268
0.372268
0.372268
0.372268
0.372268
0.372268
0.372268
0.372268
0.372268
0.372268
0.372268
0.372268
0.372268
0.372268
0.372268
0.372268
0.372268
0.372268
0.372268
0.372268
0.372269
0.372269
0.372269
0.372269
0.372269
0.372269
0.372269
0.372269
0.372269
0.372269
0.372269
0.372269
0.372269
0.372269
0.372269
0.372269
0.372269
0.372269
0.372269
0.372269
0.372269
0.372269
0.372269
0.372269
0.372269
0.372269
0.372269
0.372269
0.372269
0.372269
0.372269
0.372269
0.372269
0.372269
0.372269
0.372269
0.372269
0.372269
0.372269
0.372269
0.372269
0.372269
0.37227
0.372271
0.372274
0.372295
0.372327
0.372476
0.372476
1
1
1.02798
1.03242
1.02466
1.01102
0.99479
0.977783
0.961065
0.94536
0.93125
0.919218
0.909571
0.902362
0.897383
0.894228
0.892413
0.891481
0.891068
0.890921
0.890893
0.890905
0.890924
0.890938
0.890946
0.890951
0.890953
0.890954
0.890955
0.890955
0.890955
0.890955
0.890955
0.890955
0.890955
0.890955
0.890955
0.890956
0.890956
0.890956
0.890956
0.890956
0.890956
0.890956
0.890956
0.890956
0.890956
0.890956
0.890956
0.890956
0.890956
0.890956
0.890956
0.890956
0.890956
0.890956
0.890956
0.890956
0.890956
0.890956
0.890956
0.890956
0.890956
0.890956
0.890956
0.890956
0.890956
0.890956
0.890957
0.890957
0.890957
0.890957
0.890957
0.890957
0.890957
0.890957
0.890957
0.890957
0.890957
0.890957
0.890957
0.890957
0.890957
0.890957
0.890957
0.890957
0.890957
0.890957
0.890957
0.890957
0.890957
0.890957
0.890957
0.890957
0.890957
0.890957
0.890958
0.890958
0.890974
0.89097
0.891238
0.891238
1
1
1.03305
1.06793
1.0968
1.11906
1.13542
1.14692
1.15463
1.15947
1.1622
1.16347
1.16379
1.16357
1.16314
1.16269
1.16231
1.16205
1.16188
1.16178
1.16173
1.1617
1.16169
1.16169
1.16169
1.16169
1.16169
1.16169
1.1617
1.1617
1.1617
1.1617
1.1617
1.1617
1.1617
1.1617
1.1617
1.1617
1.1617
1.1617
1.1617
1.1617
1.1617
1.1617
1.1617
1.1617
1.1617
1.1617
1.1617
1.1617
1.1617
1.1617
1.1617
1.1617
1.1617
1.1617
1.1617
1.1617
1.1617
1.1617
1.1617
1.1617
1.1617
1.1617
1.1617
1.1617
1.1617
1.1617
1.1617
1.1617
1.1617
1.1617
1.1617
1.1617
1.1617
1.1617
1.1617
1.1617
1.1617
1.1617
1.1617
1.1617
1.1617
1.1617
1.1617
1.1617
1.1617
1.1617
1.1617
1.1617
1.1617
1.1617
1.1617
1.1617
1.1617
1.1617
1.1617
1.1617
1.16169
1.16168
1.16172
1.16172
1
1
1.02627
1.06424
1.10183
1.13558
1.16457
1.18892
1.20915
1.22578
1.2392
1.24969
1.25753
1.26304
1.26665
1.26884
1.27004
1.27061
1.27084
1.2709
1.2709
1.27087
1.27085
1.27084
1.27083
1.27082
1.27082
1.27082
1.27082
1.27082
1.27082
1.27082
1.27082
1.27082
1.27082
1.27082
1.27082
1.27082
1.27082
1.27082
1.27082
1.27082
1.27082
1.27082
1.27082
1.27082
1.27082
1.27082
1.27082
1.27082
1.27082
1.27082
1.27082
1.27082
1.27082
1.27082
1.27082
1.27082
1.27082
1.27082
1.27082
1.27082
1.27082
1.27082
1.27082
1.27082
1.27082
1.27082
1.27082
1.27082
1.27082
1.27082
1.27082
1.27082
1.27082
1.27082
1.27082
1.27082
1.27082
1.27082
1.27082
1.27082
1.27082
1.27082
1.27082
1.27082
1.27082
1.27082
1.27082
1.27082
1.27082
1.27082
1.27082
1.27082
1.27082
1.27082
1.27082
1.27082
1.2708
1.27079
1.27061
1.27061
1
1
1.02256
1.05949
1.09803
1.13402
1.16615
1.19425
1.21859
1.23949
1.25711
1.27147
1.28265
1.29086
1.2965
1.3001
1.30222
1.30336
1.30391
1.30416
1.30425
1.30428
1.30428
1.30428
1.30427
1.30427
1.30427
1.30427
1.30427
1.30427
1.30427
1.30427
1.30427
1.30427
1.30427
1.30427
1.30427
1.30427
1.30427
1.30427
1.30427
1.30427
1.30427
1.30427
1.30427
1.30427
1.30427
1.30427
1.30427
1.30427
1.30427
1.30427
1.30427
1.30427
1.30427
1.30427
1.30427
1.30427
1.30427
1.30427
1.30427
1.30427
1.30427
1.30427
1.30427
1.30427
1.30427
1.30427
1.30427
1.30427
1.30427
1.30427
1.30427
1.30427
1.30427
1.30427
1.30427
1.30427
1.30427
1.30427
1.30427
1.30427
1.30427
1.30427
1.30427
1.30427
1.30427
1.30427
1.30427
1.30427
1.30427
1.30427
1.30427
1.30427
1.30427
1.30427
1.30427
1.30427
1.30424
1.30423
1.30396
1.30396
1
1
1.02256
1.05949
1.09803
1.13402
1.16615
1.19425
1.21859
1.23949
1.25711
1.27147
1.28265
1.29086
1.2965
1.3001
1.30222
1.30336
1.30391
1.30416
1.30425
1.30428
1.30428
1.30428
1.30427
1.30427
1.30427
1.30427
1.30427
1.30427
1.30427
1.30427
1.30427
1.30427
1.30427
1.30427
1.30427
1.30427
1.30427
1.30427
1.30427
1.30427
1.30427
1.30427
1.30427
1.30427
1.30427
1.30427
1.30427
1.30427
1.30427
1.30427
1.30427
1.30427
1.30427
1.30427
1.30427
1.30427
1.30427
1.30427
1.30427
1.30427
1.30427
1.30427
1.30427
1.30427
1.30427
1.30427
1.30427
1.30427
1.30427
1.30427
1.30427
1.30427
1.30427
1.30427
1.30427
1.30427
1.30427
1.30427
1.30427
1.30427
1.30427
1.30427
1.30427
1.30427
1.30427
1.30427
1.30427
1.30427
1.30427
1.30427
1.30427
1.30427
1.30427
1.30427
1.30427
1.30427
1.30424
1.30423
1.30396
1.30396
1
1
1.02627
1.06424
1.10183
1.13558
1.16457
1.18892
1.20915
1.22578
1.2392
1.24969
1.25753
1.26304
1.26665
1.26884
1.27004
1.27061
1.27084
1.2709
1.2709
1.27087
1.27085
1.27084
1.27083
1.27082
1.27082
1.27082
1.27082
1.27082
1.27082
1.27082
1.27082
1.27082
1.27082
1.27082
1.27082
1.27082
1.27082
1.27082
1.27082
1.27082
1.27082
1.27082
1.27082
1.27082
1.27082
1.27082
1.27082
1.27082
1.27082
1.27082
1.27082
1.27082
1.27082
1.27082
1.27082
1.27082
1.27082
1.27082
1.27082
1.27082
1.27082
1.27082
1.27082
1.27082
1.27082
1.27082
1.27082
1.27082
1.27082
1.27082
1.27082
1.27082
1.27082
1.27082
1.27082
1.27082
1.27082
1.27082
1.27082
1.27082
1.27082
1.27082
1.27082
1.27082
1.27082
1.27082
1.27082
1.27082
1.27082
1.27082
1.27082
1.27082
1.27082
1.27082
1.27082
1.27082
1.2708
1.27079
1.27061
1.27061
1
1
1.03305
1.06793
1.0968
1.11906
1.13542
1.14692
1.15463
1.15947
1.1622
1.16347
1.16379
1.16357
1.16314
1.16269
1.16231
1.16205
1.16188
1.16178
1.16173
1.1617
1.16169
1.16169
1.16169
1.16169
1.16169
1.16169
1.16169
1.16169
1.1617
1.1617
1.1617
1.1617
1.1617
1.1617
1.1617
1.1617
1.1617
1.1617
1.1617
1.1617
1.1617
1.1617
1.1617
1.1617
1.1617
1.1617
1.1617
1.1617
1.1617
1.1617
1.1617
1.1617
1.1617
1.1617
1.1617
1.1617
1.1617
1.1617
1.1617
1.1617
1.1617
1.1617
1.1617
1.1617
1.1617
1.1617
1.1617
1.1617
1.1617
1.1617
1.1617
1.1617
1.1617
1.1617
1.1617
1.1617
1.1617
1.1617
1.1617
1.1617
1.1617
1.1617
1.1617
1.1617
1.1617
1.1617
1.1617
1.1617
1.1617
1.1617
1.1617
1.1617
1.1617
1.1617
1.1617
1.16169
1.16169
1.16168
1.16172
1.16172
1
1
1.02798
1.03242
1.02466
1.01102
0.994791
0.977783
0.961065
0.94536
0.931251
0.919218
0.909571
0.902362
0.897383
0.894228
0.892413
0.891481
0.891068
0.890921
0.890893
0.890905
0.890923
0.890937
0.890946
0.89095
0.890953
0.890954
0.890954
0.890955
0.890955
0.890955
0.890955
0.890955
0.890955
0.890955
0.890955
0.890955
0.890955
0.890955
0.890955
0.890955
0.890955
0.890955
0.890955
0.890955
0.890955
0.890955
0.890955
0.890955
0.890955
0.890955
0.890955
0.890956
0.890956
0.890956
0.890956
0.890956
0.890956
0.890956
0.890956
0.890956
0.890956
0.890956
0.890956
0.890956
0.890956
0.890956
0.890956
0.890956
0.890956
0.890956
0.890956
0.890956
0.890956
0.890956
0.890956
0.890956
0.890956
0.890956
0.890956
0.890956
0.890956
0.890956
0.890956
0.890956
0.890956
0.890956
0.890956
0.890956
0.890956
0.890956
0.890956
0.890956
0.890956
0.890956
0.890957
0.890957
0.890973
0.890969
0.891237
0.891237
1
1
0.890156
0.775927
0.678685
0.600321
0.539073
0.492129
0.456572
0.429908
0.410241
0.396147
0.386466
0.380167
0.376323
0.374146
0.37302
0.372502
0.3723
0.372243
0.372239
0.372248
0.372256
0.372262
0.372265
0.372266
0.372267
0.372268
0.372268
0.372268
0.372268
0.372268
0.372268
0.372268
0.372268
0.372268
0.372268
0.372268
0.372268
0.372268
0.372268
0.372268
0.372268
0.372268
0.372268
0.372268
0.372268
0.372268
0.372268
0.372268
0.372268
0.372268
0.372268
0.372268
0.372268
0.372268
0.372268
0.372268
0.372268
0.372268
0.372268
0.372268
0.372268
0.372268
0.372268
0.372268
0.372268
0.372268
0.372268
0.372268
0.372268
0.372268
0.372268
0.372268
0.372268
0.372268
0.372268
0.372268
0.372269
0.372269
0.372269
0.372269
0.372269
0.372269
0.372269
0.372269
0.372269
0.372269
0.372269
0.372269
0.372269
0.372269
0.372269
0.372269
0.372269
0.372269
0.372271
0.372273
0.372294
0.372326
0.372475
0.372475
1
-1
-0.890156
-0.775927
-0.678685
-0.600321
-0.539073
-0.492129
-0.456572
-0.429908
-0.410241
-0.396147
-0.386466
-0.380167
-0.376323
-0.374146
-0.37302
-0.372502
-0.3723
-0.372243
-0.372239
-0.372248
-0.372256
-0.372262
-0.372265
-0.372266
-0.372267
-0.372268
-0.372268
-0.372268
-0.372268
-0.372268
-0.372268
-0.372268
-0.372268
-0.372268
-0.372268
-0.372268
-0.372268
-0.372268
-0.372268
-0.372268
-0.372268
-0.372268
-0.372268
-0.372268
-0.372268
-0.372268
-0.372268
-0.372268
-0.372268
-0.372268
-0.372268
-0.372268
-0.372268
-0.372268
-0.372268
-0.372268
-0.372268
-0.372268
-0.372268
-0.372268
-0.372268
-0.372268
-0.372268
-0.372268
-0.372268
-0.372268
-0.372268
-0.372268
-0.372268
-0.372268
-0.372268
-0.372268
-0.372268
-0.372268
-0.372268
-0.372268
-0.372269
-0.372269
-0.372269
-0.372269
-0.372269
-0.372269
-0.372269
-0.372269
-0.372269
-0.372269
-0.372269
-0.372269
-0.372269
-0.372269
-0.372269
-0.372269
-0.372269
-0.372269
-0.372271
-0.372273
-0.372294
-0.372326
-0.372475
-0.372475
-1
