# vtk DataFile Version 2.0
FlowField
ASCII
DATASET STRUCTURED_GRID
DIMENSIONS 102 1 12 
POINTS 1224 double
0 0 0
0.4 0 0
0.8 0 0
1.2 0 0
1.6 0 0
2 0 0
2.4 0 0
2.8 0 0
3.2 0 0
3.6 0 0
4 0 0
4.4 0 0
4.8 0 0
5.2 0 0
5.6 0 0
6 0 0
6.4 0 0
6.8 0 0
7.2 0 0
7.6 0 0
8 0 0
8.4 0 0
8.8 0 0
9.2 0 0
9.6 0 0
10 0 0
10.4 0 0
10.8 0 0
11.2 0 0
11.6 0 0
12 0 0
12.4 0 0
12.8 0 0
13.2 0 0
13.6 0 0
14 0 0
14.4 0 0
14.8 0 0
15.2 0 0
15.6 0 0
16 0 0
16.4 0 0
16.8 0 0
17.2 0 0
17.6 0 0
18 0 0
18.4 0 0
18.8 0 0
19.2 0 0
19.6 0 0
20 0 0
20.4 0 0
20.8 0 0
21.2 0 0
21.6 0 0
22 0 0
22.4 0 0
22.8 0 0
23.2 0 0
23.6 0 0
24 0 0
24.4 0 0
24.8 0 0
25.2 0 0
25.6 0 0
26 0 0
26.4 0 0
26.8 0 0
27.2 0 0
27.6 0 0
28 0 0
28.4 0 0
28.8 0 0
29.2 0 0
29.6 0 0
30 0 0
30.4 0 0
30.8 0 0
31.2 0 0
31.6 0 0
32 0 0
32.4 0 0
32.8 0 0
33.2 0 0
33.6 0 0
34 0 0
34.4 0 0
34.8 0 0
35.2 0 0
35.6 0 0
36 0 0
36.4 0 0
36.8 0 0
37.2 0 0
37.6 0 0
38 0 0
38.4 0 0
38.8 0 0
39.2 0 0
39.6 0 0
40 0 0
40.4 0 0
0 0.1 0
0.4 0.1 0
0.8 0.1 0
1.2 0.1 0
1.6 0.1 0
2 0.1 0
2.4 0.1 0
2.8 0.1 0
3.2 0.1 0
3.6 0.1 0
4 0.1 0
4.4 0.1 0
4.8 0.1 0
5.2 0.1 0
5.6 0.1 0
6 0.1 0
6.4 0.1 0
6.8 0.1 0
7.2 0.1 0
7.6 0.1 0
8 0.1 0
8.4 0.1 0
8.8 0.1 0
9.2 0.1 0
9.6 0.1 0
10 0.1 0
10.4 0.1 0
10.8 0.1 0
11.2 0.1 0
11.6 0.1 0
12 0.1 0
12.4 0.1 0
12.8 0.1 0
13.2 0.1 0
13.6 0.1 0
14 0.1 0
14.4 0.1 0
14.8 0.1 0
15.2 0.1 0
15.6 0.1 0
16 0.1 0
16.4 0.1 0
16.8 0.1 0
17.2 0.1 0
17.6 0.1 0
18 0.1 0
18.4 0.1 0
18.8 0.1 0
19.2 0.1 0
19.6 0.1 0
20 0.1 0
20.4 0.1 0
20.8 0.1 0
21.2 0.1 0
21.6 0.1 0
22 0.1 0
22.4 0.1 0
22.8 0.1 0
23.2 0.1 0
23.6 0.1 0
24 0.1 0
24.4 0.1 0
24.8 0.1 0
25.2 0.1 0
25.6 0.1 0
26 0.1 0
26.4 0.1 0
26.8 0.1 0
27.2 0.1 0
27.6 0.1 0
28 0.1 0
28.4 0.1 0
28.8 0.1 0
29.2 0.1 0
29.6 0.1 0
30 0.1 0
30.4 0.1 0
30.8 0.1 0
31.2 0.1 0
31.6 0.1 0
32 0.1 0
32.4 0.1 0
32.8 0.1 0
33.2 0.1 0
33.6 0.1 0
34 0.1 0
34.4 0.1 0
34.8 0.1 0
35.2 0.1 0
35.6 0.1 0
36 0.1 0
36.4 0.1 0
36.8 0.1 0
37.2 0.1 0
37.6 0.1 0
38 0.1 0
38.4 0.1 0
38.8 0.1 0
39.2 0.1 0
39.6 0.1 0
40 0.1 0
40.4 0.1 0
0 0.2 0
0.4 0.2 0
0.8 0.2 0
1.2 0.2 0
1.6 0.2 0
2 0.2 0
2.4 0.2 0
2.8 0.2 0
3.2 0.2 0
3.6 0.2 0
4 0.2 0
4.4 0.2 0
4.8 0.2 0
5.2 0.2 0
5.6 0.2 0
6 0.2 0
6.4 0.2 0
6.8 0.2 0
7.2 0.2 0
7.6 0.2 0
8 0.2 0
8.4 0.2 0
8.8 0.2 0
9.2 0.2 0
9.6 0.2 0
10 0.2 0
10.4 0.2 0
10.8 0.2 0
11.2 0.2 0
11.6 0.2 0
12 0.2 0
12.4 0.2 0
12.8 0.2 0
13.2 0.2 0
13.6 0.2 0
14 0.2 0
14.4 0.2 0
14.8 0.2 0
15.2 0.2 0
15.6 0.2 0
16 0.2 0
16.4 0.2 0
16.8 0.2 0
17.2 0.2 0
17.6 0.2 0
18 0.2 0
18.4 0.2 0
18.8 0.2 0
19.2 0.2 0
19.6 0.2 0
20 0.2 0
20.4 0.2 0
20.8 0.2 0
21.2 0.2 0
21.6 0.2 0
22 0.2 0
22.4 0.2 0
22.8 0.2 0
23.2 0.2 0
23.6 0.2 0
24 0.2 0
24.4 0.2 0
24.8 0.2 0
25.2 0.2 0
25.6 0.2 0
26 0.2 0
26.4 0.2 0
26.8 0.2 0
27.2 0.2 0
27.6 0.2 0
28 0.2 0
28.4 0.2 0
28.8 0.2 0
29.2 0.2 0
29.6 0.2 0
30 0.2 0
30.4 0.2 0
30.8 0.2 0
31.2 0.2 0
31.6 0.2 0
32 0.2 0
32.4 0.2 0
32.8 0.2 0
33.2 0.2 0
33.6 0.2 0
34 0.2 0
34.4 0.2 0
34.8 0.2 0
35.2 0.2 0
35.6 0.2 0
36 0.2 0
36.4 0.2 0
36.8 0.2 0
37.2 0.2 0
37.6 0.2 0
38 0.2 0
38.4 0.2 0
38.8 0.2 0
39.2 0.2 0
39.6 0.2 0
40 0.2 0
40.4 0.2 0
0 0.3 0
0.4 0.3 0
0.8 0.3 0
1.2 0.3 0
1.6 0.3 0
2 0.3 0
2.4 0.3 0
2.8 0.3 0
3.2 0.3 0
3.6 0.3 0
4 0.3 0
4.4 0.3 0
4.8 0.3 0
5.2 0.3 0
5.6 0.3 0
6 0.3 0
6.4 0.3 0
6.8 0.3 0
7.2 0.3 0
7.6 0.3 0
8 0.3 0
8.4 0.3 0
8.8 0.3 0
9.2 0.3 0
9.6 0.3 0
10 0.3 0
10.4 0.3 0
10.8 0.3 0
11.2 0.3 0
11.6 0.3 0
12 0.3 0
12.4 0.3 0
12.8 0.3 0
13.2 0.3 0
13.6 0.3 0
14 0.3 0
14.4 0.3 0
14.8 0.3 0
15.2 0.3 0
15.6 0.3 0
16 0.3 0
16.4 0.3 0
16.8 0.3 0
17.2 0.3 0
17.6 0.3 0
18 0.3 0
18.4 0.3 0
18.8 0.3 0
19.2 0.3 0
19.6 0.3 0
20 0.3 0
20.4 0.3 0
20.8 0.3 0
21.2 0.3 0
21.6 0.3 0
22 0.3 0
22.4 0.3 0
22.8 0.3 0
23.2 0.3 0
23.6 0.3 0
24 0.3 0
24.4 0.3 0
24.8 0.3 0
25.2 0.3 0
25.6 0.3 0
26 0.3 0
26.4 0.3 0
26.8 0.3 0
27.2 0.3 0
27.6 0.3 0
28 0.3 0
28.4 0.3 0
28.8 0.3 0
29.2 0.3 0
29.6 0.3 0
30 0.3 0
30.4 0.3 0
30.8 0.3 0
31.2 0.3 0
31.6 0.3 0
32 0.3 0
32.4 0.3 0
32.8 0.3 0
33.2 0.3 0
33.6 0.3 0
34 0.3 0
34.4 0.3 0
34.8 0.3 0
35.2 0.3 0
35.6 0.3 0
36 0.3 0
36.4 0.3 0
36.8 0.3 0
37.2 0.3 0
37.6 0.3 0
38 0.3 0
38.4 0.3 0
38.8 0.3 0
39.2 0.3 0
39.6 0.3 0
40 0.3 0
40.4 0.3 0
0 0.4 0
0.4 0.4 0
0.8 0.4 0
1.2 0.4 0
1.6 0.4 0
2 0.4 0
2.4 0.4 0
2.8 0.4 0
3.2 0.4 0
3.6 0.4 0
4 0.4 0
4.4 0.4 0
4.8 0.4 0
5.2 0.4 0
5.6 0.4 0
6 0.4 0
6.4 0.4 0
6.8 0.4 0
7.2 0.4 0
7.6 0.4 0
8 0.4 0
8.4 0.4 0
8.8 0.4 0
9.2 0.4 0
9.6 0.4 0
10 0.4 0
10.4 0.4 0
10.8 0.4 0
11.2 0.4 0
11.6 0.4 0
12 0.4 0
12.4 0.4 0
12.8 0.4 0
13.2 0.4 0
13.6 0.4 0
14 0.4 0
14.4 0.4 0
14.8 0.4 0
15.2 0.4 0
15.6 0.4 0
16 0.4 0
16.4 0.4 0
16.8 0.4 0
17.2 0.4 0
17.6 0.4 0
18 0.4 0
18.4 0.4 0
18.8 0.4 0
19.2 0.4 0
19.6 0.4 0
20 0.4 0
20.4 0.4 0
20.8 0.4 0
21.2 0.4 0
21.6 0.4 0
22 0.4 0
22.4 0.4 0
22.8 0.4 0
23.2 0.4 0
23.6 0.4 0
24 0.4 0
24.4 0.4 0
24.8 0.4 0
25.2 0.4 0
25.6 0.4 0
26 0.4 0
26.4 0.4 0
26.8 0.4 0
27.2 0.4 0
27.6 0.4 0
28 0.4 0
28.4 0.4 0
28.8 0.4 0
29.2 0.4 0
29.6 0.4 0
30 0.4 0
30.4 0.4 0
30.8 0.4 0
31.2 0.4 0
31.6 0.4 0
32 0.4 0
32.4 0.4 0
32.8 0.4 0
33.2 0.4 0
33.6 0.4 0
34 0.4 0
34.4 0.4 0
34.8 0.4 0
35.2 0.4 0
35.6 0.4 0
36 0.4 0
36.4 0.4 0
36.8 0.4 0
37.2 0.4 0
37.6 0.4 0
38 0.4 0
38.4 0.4 0
38.8 0.4 0
39.2 0.4 0
39.6 0.4 0
40 0.4 0
40.4 0.4 0
0 0.5 0
0.4 0.5 0
0.8 0.5 0
1.2 0.5 0
1.6 0.5 0
2 0.5 0
2.4 0.5 0
2.8 0.5 0
3.2 0.5 0
3.6 0.5 0
4 0.5 0
4.4 0.5 0
4.8 0.5 0
5.2 0.5 0
5.6 0.5 0
6 0.5 0
6.4 0.5 0
6.8 0.5 0
7.2 0.5 0
7.6 0.5 0
8 0.5 0
8.4 0.5 0
8.8 0.5 0
9.2 0.5 0
9.6 0.5 0
10 0.5 0
10.4 0.5 0
10.8 0.5 0
11.2 0.5 0
11.6 0.5 0
12 0.5 0
12.4 0.5 0
12.8 0.5 0
13.2 0.5 0
13.6 0.5 0
14 0.5 0
14.4 0.5 0
14.8 0.5 0
15.2 0.5 0
15.6 0.5 0
16 0.5 0
16.4 0.5 0
16.8 0.5 0
17.2 0.5 0
17.6 0.5 0
18 0.5 0
18.4 0.5 0
18.8 0.5 0
19.2 0.5 0
19.6 0.5 0
20 0.5 0
20.4 0.5 0
20.8 0.5 0
21.2 0.5 0
21.6 0.5 0
22 0.5 0
22.4 0.5 0
22.8 0.5 0
23.2 0.5 0
23.6 0.5 0
24 0.5 0
24.4 0.5 0
24.8 0.5 0
25.2 0.5 0
25.6 0.5 0
26 0.5 0
26.4 0.5 0
26.8 0.5 0
27.2 0.5 0
27.6 0.5 0
28 0.5 0
28.4 0.5 0
28.8 0.5 0
29.2 0.5 0
29.6 0.5 0
30 0.5 0
30.4 0.5 0
30.8 0.5 0
31.2 0.5 0
31.6 0.5 0
32 0.5 0
32.4 0.5 0
32.8 0.5 0
33.2 0.5 0
33.6 0.5 0
34 0.5 0
34.4 0.5 0
34.8 0.5 0
35.2 0.5 0
35.6 0.5 0
36 0.5 0
36.4 0.5 0
36.8 0.5 0
37.2 0.5 0
37.6 0.5 0
38 0.5 0
38.4 0.5 0
38.8 0.5 0
39.2 0.5 0
39.6 0.5 0
40 0.5 0
40.4 0.5 0
0 0.6 0
0.4 0.6 0
0.8 0.6 0
1.2 0.6 0
1.6 0.6 0
2 0.6 0
2.4 0.6 0
2.8 0.6 0
3.2 0.6 0
3.6 0.6 0
4 0.6 0
4.4 0.6 0
4.8 0.6 0
5.2 0.6 0
5.6 0.6 0
6 0.6 0
6.4 0.6 0
6.8 0.6 0
7.2 0.6 0
7.6 0.6 0
8 0.6 0
8.4 0.6 0
8.8 0.6 0
9.2 0.6 0
9.6 0.6 0
10 0.6 0
10.4 0.6 0
10.8 0.6 0
11.2 0.6 0
11.6 0.6 0
12 0.6 0
12.4 0.6 0
12.8 0.6 0
13.2 0.6 0
13.6 0.6 0
14 0.6 0
14.4 0.6 0
14.8 0.6 0
15.2 0.6 0
15.6 0.6 0
16 0.6 0
16.4 0.6 0
16.8 0.6 0
17.2 0.6 0
17.6 0.6 0
18 0.6 0
18.4 0.6 0
18.8 0.6 0
19.2 0.6 0
19.6 0.6 0
20 0.6 0
20.4 0.6 0
20.8 0.6 0
21.2 0.6 0
21.6 0.6 0
22 0.6 0
22.4 0.6 0
22.8 0.6 0
23.2 0.6 0
23.6 0.6 0
24 0.6 0
24.4 0.6 0
24.8 0.6 0
25.2 0.6 0
25.6 0.6 0
26 0.6 0
26.4 0.6 0
26.8 0.6 0
27.2 0.6 0
27.6 0.6 0
28 0.6 0
28.4 0.6 0
28.8 0.6 0
29.2 0.6 0
29.6 0.6 0
30 0.6 0
30.4 0.6 0
30.8 0.6 0
31.2 0.6 0
31.6 0.6 0
32 0.6 0
32.4 0.6 0
32.8 0.6 0
33.2 0.6 0
33.6 0.6 0
34 0.6 0
34.4 0.6 0
34.8 0.6 0
35.2 0.6 0
35.6 0.6 0
36 0.6 0
36.4 0.6 0
36.8 0.6 0
37.2 0.6 0
37.6 0.6 0
38 0.6 0
38.4 0.6 0
38.8 0.6 0
39.2 0.6 0
39.6 0.6 0
40 0.6 0
40.4 0.6 0
0 0.7 0
0.4 0.7 0
0.8 0.7 0
1.2 0.7 0
1.6 0.7 0
2 0.7 0
2.4 0.7 0
2.8 0.7 0
3.2 0.7 0
3.6 0.7 0
4 0.7 0
4.4 0.7 0
4.8 0.7 0
5.2 0.7 0
5.6 0.7 0
6 0.7 0
6.4 0.7 0
6.8 0.7 0
7.2 0.7 0
7.6 0.7 0
8 0.7 0
8.4 0.7 0
8.8 0.7 0
9.2 0.7 0
9.6 0.7 0
10 0.7 0
10.4 0.7 0
10.8 0.7 0
11.2 0.7 0
11.6 0.7 0
12 0.7 0
12.4 0.7 0
12.8 0.7 0
13.2 0.7 0
13.6 0.7 0
14 0.7 0
14.4 0.7 0
14.8 0.7 0
15.2 0.7 0
15.6 0.7 0
16 0.7 0
16.4 0.7 0
16.8 0.7 0
17.2 0.7 0
17.6 0.7 0
18 0.7 0
18.4 0.7 0
18.8 0.7 0
19.2 0.7 0
19.6 0.7 0
20 0.7 0
20.4 0.7 0
20.8 0.7 0
21.2 0.7 0
21.6 0.7 0
22 0.7 0
22.4 0.7 0
22.8 0.7 0
23.2 0.7 0
23.6 0.7 0
24 0.7 0
24.4 0.7 0
24.8 0.7 0
25.2 0.7 0
25.6 0.7 0
26 0.7 0
26.4 0.7 0
26.8 0.7 0
27.2 0.7 0
27.6 0.7 0
28 0.7 0
28.4 0.7 0
28.8 0.7 0
29.2 0.7 0
29.6 0.7 0
30 0.7 0
30.4 0.7 0
30.8 0.7 0
31.2 0.7 0
31.6 0.7 0
32 0.7 0
32.4 0.7 0
32.8 0.7 0
33.2 0.7 0
33.6 0.7 0
34 0.7 0
34.4 0.7 0
34.8 0.7 0
35.2 0.7 0
35.6 0.7 0
36 0.7 0
36.4 0.7 0
36.8 0.7 0
37.2 0.7 0
37.6 0.7 0
38 0.7 0
38.4 0.7 0
38.8 0.7 0
39.2 0.7 0
39.6 0.7 0
40 0.7 0
40.4 0.7 0
0 0.8 0
0.4 0.8 0
0.8 0.8 0
1.2 0.8 0
1.6 0.8 0
2 0.8 0
2.4 0.8 0
2.8 0.8 0
3.2 0.8 0
3.6 0.8 0
4 0.8 0
4.4 0.8 0
4.8 0.8 0
5.2 0.8 0
5.6 0.8 0
6 0.8 0
6.4 0.8 0
6.8 0.8 0
7.2 0.8 0
7.6 0.8 0
8 0.8 0
8.4 0.8 0
8.8 0.8 0
9.2 0.8 0
9.6 0.8 0
10 0.8 0
10.4 0.8 0
10.8 0.8 0
11.2 0.8 0
11.6 0.8 0
12 0.8 0
12.4 0.8 0
12.8 0.8 0
13.2 0.8 0
13.6 0.8 0
14 0.8 0
14.4 0.8 0
14.8 0.8 0
15.2 0.8 0
15.6 0.8 0
16 0.8 0
16.4 0.8 0
16.8 0.8 0
17.2 0.8 0
17.6 0.8 0
18 0.8 0
18.4 0.8 0
18.8 0.8 0
19.2 0.8 0
19.6 0.8 0
20 0.8 0
20.4 0.8 0
20.8 0.8 0
21.2 0.8 0
21.6 0.8 0
22 0.8 0
22.4 0.8 0
22.8 0.8 0
23.2 0.8 0
23.6 0.8 0
24 0.8 0
24.4 0.8 0
24.8 0.8 0
25.2 0.8 0
25.6 0.8 0
26 0.8 0
26.4 0.8 0
26.8 0.8 0
27.2 0.8 0
27.6 0.8 0
28 0.8 0
28.4 0.8 0
28.8 0.8 0
29.2 0.8 0
29.6 0.8 0
30 0.8 0
30.4 0.8 0
30.8 0.8 0
31.2 0.8 0
31.6 0.8 0
32 0.8 0
32.4 0.8 0
32.8 0.8 0
33.2 0.8 0
33.6 0.8 0
34 0.8 0
34.4 0.8 0
34.8 0.8 0
35.2 0.8 0
35.6 0.8 0
36 0.8 0
36.4 0.8 0
36.8 0.8 0
37.2 0.8 0
37.6 0.8 0
38 0.8 0
38.4 0.8 0
38.8 0.8 0
39.2 0.8 0
39.6 0.8 0
40 0.8 0
40.4 0.8 0
0 0.9 0
0.4 0.9 0
0.8 0.9 0
1.2 0.9 0
1.6 0.9 0
2 0.9 0
2.4 0.9 0
2.8 0.9 0
3.2 0.9 0
3.6 0.9 0
4 0.9 0
4.4 0.9 0
4.8 0.9 0
5.2 0.9 0
5.6 0.9 0
6 0.9 0
6.4 0.9 0
6.8 0.9 0
7.2 0.9 0
7.6 0.9 0
8 0.9 0
8.4 0.9 0
8.8 0.9 0
9.2 0.9 0
9.6 0.9 0
10 0.9 0
10.4 0.9 0
10.8 0.9 0
11.2 0.9 0
11.6 0.9 0
12 0.9 0
12.4 0.9 0
12.8 0.9 0
13.2 0.9 0
13.6 0.9 0
14 0.9 0
14.4 0.9 0
14.8 0.9 0
15.2 0.9 0
15.6 0.9 0
16 0.9 0
16.4 0.9 0
16.8 0.9 0
17.2 0.9 0
17.6 0.9 0
18 0.9 0
18.4 0.9 0
18.8 0.9 0
19.2 0.9 0
19.6 0.9 0
20 0.9 0
20.4 0.9 0
20.8 0.9 0
21.2 0.9 0
21.6 0.9 0
22 0.9 0
22.4 0.9 0
22.8 0.9 0
23.2 0.9 0
23.6 0.9 0
24 0.9 0
24.4 0.9 0
24.8 0.9 0
25.2 0.9 0
25.6 0.9 0
26 0.9 0
26.4 0.9 0
26.8 0.9 0
27.2 0.9 0
27.6 0.9 0
28 0.9 0
28.4 0.9 0
28.8 0.9 0
29.2 0.9 0
29.6 0.9 0
30 0.9 0
30.4 0.9 0
30.8 0.9 0
31.2 0.9 0
31.6 0.9 0
32 0.9 0
32.4 0.9 0
32.8 0.9 0
33.2 0.9 0
33.6 0.9 0
34 0.9 0
34.4 0.9 0
34.8 0.9 0
35.2 0.9 0
35.6 0.9 0
36 0.9 0
36.4 0.9 0
36.8 0.9 0
37.2 0.9 0
37.6 0.9 0
38 0.9 0
38.4 0.9 0
38.8 0.9 0
39.2 0.9 0
39.6 0.9 0
40 0.9 0
40.4 0.9 0
0 1 0
0.4 1 0
0.8 1 0
1.2 1 0
1.6 1 0
2 1 0
2.4 1 0
2.8 1 0
3.2 1 0
3.6 1 0
4 1 0
4.4 1 0
4.8 1 0
5.2 1 0
5.6 1 0
6 1 0
6.4 1 0
6.8 1 0
7.2 1 0
7.6 1 0
8 1 0
8.4 1 0
8.8 1 0
9.2 1 0
9.6 1 0
10 1 0
10.4 1 0
10.8 1 0
11.2 1 0
11.6 1 0
12 1 0
12.4 1 0
12.8 1 0
13.2 1 0
13.6 1 0
14 1 0
14.4 1 0
14.8 1 0
15.2 1 0
15.6 1 0
16 1 0
16.4 1 0
16.8 1 0
17.2 1 0
17.6 1 0
18 1 0
18.4 1 0
18.8 1 0
19.2 1 0
19.6 1 0
20 1 0
20.4 1 0
20.8 1 0
21.2 1 0
21.6 1 0
22 1 0
22.4 1 0
22.8 1 0
23.2 1 0
23.6 1 0
24 1 0
24.4 1 0
24.8 1 0
25.2 1 0
25.6 1 0
26 1 0
26.4 1 0
26.8 1 0
27.2 1 0
27.6 1 0
28 1 0
28.4 1 0
28.8 1 0
29.2 1 0
29.6 1 0
30 1 0
30.4 1 0
30.8 1 0
31.2 1 0
31.6 1 0
32 1 0
32.4 1 0
32.8 1 0
33.2 1 0
33.6 1 0
34 1 0
34.4 1 0
34.8 1 0
35.2 1 0
35.6 1 0
36 1 0
36.4 1 0
36.8 1 0
37.2 1 0
37.6 1 0
38 1 0
38.4 1 0
38.8 1 0
39.2 1 0
39.6 1 0
40 1 0
40.4 1 0
0 1.1 0
0.4 1.1 0
0.8 1.1 0
1.2 1.1 0
1.6 1.1 0
2 1.1 0
2.4 1.1 0
2.8 1.1 0
3.2 1.1 0
3.6 1.1 0
4 1.1 0
4.4 1.1 0
4.8 1.1 0
5.2 1.1 0
5.6 1.1 0
6 1.1 0
6.4 1.1 0
6.8 1.1 0
7.2 1.1 0
7.6 1.1 0
8 1.1 0
8.4 1.1 0
8.8 1.1 0
9.2 1.1 0
9.6 1.1 0
10 1.1 0
10.4 1.1 0
10.8 1.1 0
11.2 1.1 0
11.6 1.1 0
12 1.1 0
12.4 1.1 0
12.8 1.1 0
13.2 1.1 0
13.6 1.1 0
14 1.1 0
14.4 1.1 0
14.8 1.1 0
15.2 1.1 0
15.6 1.1 0
16 1.1 0
16.4 1.1 0
16.8 1.1 0
17.2 1.1 0
17.6 1.1 0
18 1.1 0
18.4 1.1 0
18.8 1.1 0
19.2 1.1 0
19.6 1.1 0
20 1.1 0
20.4 1.1 0
20.8 1.1 0
21.2 1.1 0
21.6 1.1 0
22 1.1 0
22.4 1.1 0
22.8 1.1 0
23.2 1.1 0
23.6 1.1 0
24 1.1 0
24.4 1.1 0
24.8 1.1 0
25.2 1.1 0
25.6 1.1 0
26 1.1 0
26.4 1.1 0
26.8 1.1 0
27.2 1.1 0
27.6 1.1 0
28 1.1 0
28.4 1.1 0
28.8 1.1 0
29.2 1.1 0
29.6 1.1 0
30 1.1 0
30.4 1.1 0
30.8 1.1 0
31.2 1.1 0
31.6 1.1 0
32 1.1 0
32.4 1.1 0
32.8 1.1 0
33.2 1.1 0
33.6 1.1 0
34 1.1 0
34.4 1.1 0
34.8 1.1 0
35.2 1.1 0
35.6 1.1 0
36 1.1 0
36.4 1.1 0
36.8 1.1 0
37.2 1.1 0
37.6 1.1 0
38 1.1 0
38.4 1.1 0
38.8 1.1 0
39.2 1.1 0
39.6 1.1 0
40 1.1 0
40.4 1.1 0

POINT_DATA 1224

SCALARS u double
LOOKUP_TABLE default
-1
-0.80718
-0.659027
-0.550103
-0.474367
-0.423317
-0.388988
-0.365454
-0.348858
-0.336869
-0.32811
-0.321749
-0.317238
-0.314169
-0.312206
-0.311059
-0.310483
-0.310278
-0.31029
-0.310413
-0.310578
-0.310742
-0.310884
-0.310997
-0.311081
-0.311143
-0.311185
-0.311214
-0.311232
-0.311244
-0.311252
-0.311257
-0.311259
-0.311261
-0.311261
-0.311262
-0.311262
-0.311262
-0.311262
-0.311262
-0.311262
-0.311262
-0.311262
-0.311262
-0.311262
-0.311262
-0.311262
-0.311262
-0.311262
-0.311262
-0.311261
-0.311261
-0.311261
-0.311261
-0.311261
-0.311261
-0.311261
-0.311261
-0.311261
-0.311261
-0.311261
-0.311261
-0.311261
-0.311261
-0.311261
-0.311261
-0.311261
-0.311261
-0.311261
-0.311261
-0.311261
-0.311261
-0.311261
-0.311261
-0.311261
-0.311261
-0.311261
-0.311261
-0.311261
-0.311261
-0.311261
-0.311261
-0.311261
-0.311261
-0.31126
-0.31126
-0.31126
-0.31126
-0.31126
-0.311261
-0.311261
-0.311262
-0.31127
-0.311292
-0.311409
-0.311713
-0.313443
-0.317784
-0.343884
-0.3805
-1
-0.3805
1
0.80718
0.659027
0.550103
0.474367
0.423317
0.388988
0.365452
0.348853
0.336856
0.328087
0.321713
0.317188
0.314104
0.312128
0.310971
0.310388
0.310178
0.310188
0.31031
0.310476
0.310641
0.310784
0.310898
0.310984
0.311046
0.311089
0.311118
0.311138
0.31115
0.311158
0.311162
0.311165
0.311166
0.311167
0.311168
0.311168
0.311168
0.311168
0.311168
0.311168
0.311168
0.311168
0.311168
0.311168
0.311167
0.311167
0.311167
0.311167
0.311167
0.311167
0.311167
0.311167
0.311167
0.311167
0.311167
0.311167
0.311167
0.311167
0.311167
0.311167
0.311167
0.311167
0.311167
0.311167
0.311167
0.311167
0.311167
0.311167
0.311167
0.311167
0.311167
0.311167
0.311167
0.311167
0.311167
0.311167
0.311167
0.311167
0.311167
0.311166
0.311166
0.311166
0.311166
0.311166
0.311166
0.311166
0.311166
0.311166
0.311166
0.311167
0.311168
0.311176
0.311197
0.311315
0.311619
0.31335
0.317694
0.343799
0.38045
1
0.3805
1
1.02373
1.02809
1.01223
0.983941
0.950693
0.917709
0.887903
0.862514
0.841809
0.825574
0.813371
0.804649
0.798797
0.795188
0.793227
0.792389
0.792248
0.792487
0.792889
0.793324
0.793722
0.79405
0.794303
0.794488
0.794619
0.794709
0.794768
0.794807
0.794831
0.794846
0.794855
0.794861
0.794863
0.794865
0.794866
0.794866
0.794866
0.794866
0.794866
0.794866
0.794866
0.794866
0.794866
0.794866
0.794866
0.794866
0.794866
0.794866
0.794866
0.794866
0.794866
0.794866
0.794866
0.794866
0.794866
0.794865
0.794865
0.794865
0.794865
0.794865
0.794865
0.794865
0.794865
0.794865
0.794865
0.794865
0.794865
0.794864
0.794864
0.794864
0.794864
0.794864
0.794864
0.794864
0.794864
0.794864
0.794863
0.794863
0.794863
0.794863
0.794863
0.794863
0.794863
0.794862
0.794862
0.794862
0.794862
0.794862
0.794862
0.794862
0.794862
0.794865
0.794872
0.794917
0.795003
0.795751
0.796727
0.808392
0.82619
1
0.826366
1
1.04017
1.08473
1.11989
1.14301
1.1554
1.15973
1.15874
1.15465
1.14913
1.14332
1.13797
1.13355
1.13023
1.12802
1.12678
1.12627
1.12626
1.12654
1.12695
1.12737
1.12775
1.12806
1.1283
1.12848
1.12861
1.12869
1.12875
1.12879
1.12881
1.12883
1.12884
1.12884
1.12885
1.12885
1.12885
1.12885
1.12885
1.12885
1.12885
1.12885
1.12885
1.12885
1.12885
1.12885
1.12885
1.12885
1.12885
1.12885
1.12885
1.12885
1.12885
1.12885
1.12885
1.12885
1.12885
1.12885
1.12885
1.12885
1.12885
1.12885
1.12885
1.12885
1.12885
1.12885
1.12885
1.12885
1.12885
1.12885
1.12885
1.12885
1.12885
1.12885
1.12885
1.12885
1.12885
1.12885
1.12885
1.12885
1.12885
1.12885
1.12885
1.12885
1.12884
1.12884
1.12884
1.12884
1.12884
1.12884
1.12884
1.12884
1.12884
1.12884
1.12884
1.12881
1.12879
1.12849
1.12811
1.12314
1.12686
1
1.12698
1
1.03766
1.08576
1.13255
1.17421
1.20955
1.23862
1.26205
1.2806
1.29503
1.306
1.31406
1.31975
1.32355
1.32591
1.32724
1.32787
1.32807
1.32804
1.3279
1.32773
1.32756
1.32742
1.32731
1.32723
1.32717
1.32713
1.32711
1.32709
1.32708
1.32708
1.32707
1.32707
1.32707
1.32707
1.32707
1.32707
1.32707
1.32707
1.32707
1.32707
1.32707
1.32707
1.32707
1.32707
1.32707
1.32707
1.32707
1.32707
1.32707
1.32707
1.32707
1.32707
1.32707
1.32707
1.32707
1.32707
1.32707
1.32707
1.32707
1.32707
1.32707
1.32707
1.32707
1.32707
1.32707
1.32707
1.32707
1.32707
1.32707
1.32707
1.32707
1.32707
1.32707
1.32707
1.32707
1.32707
1.32707
1.32707
1.32707
1.32707
1.32707
1.32707
1.32707
1.32707
1.32707
1.32707
1.32707
1.32707
1.32707
1.32707
1.32707
1.32706
1.32706
1.32699
1.32692
1.32598
1.32518
1.31001
1.30753
1
1.30743
1
1.03576
1.08266
1.1305
1.1762
1.21853
1.25698
1.29135
1.32153
1.34746
1.3691
1.38648
1.39976
1.40929
1.41558
1.41925
1.42098
1.4214
1.42105
1.42032
1.41948
1.41869
1.41801
1.41748
1.41708
1.4168
1.4166
1.41647
1.41638
1.41633
1.41629
1.41627
1.41626
1.41625
1.41625
1.41624
1.41624
1.41624
1.41624
1.41624
1.41624
1.41624
1.41624
1.41624
1.41624
1.41624
1.41624
1.41624
1.41624
1.41624
1.41624
1.41624
1.41624
1.41624
1.41624
1.41624
1.41624
1.41624
1.41624
1.41624
1.41624
1.41624
1.41624
1.41624
1.41624
1.41624
1.41624
1.41624
1.41624
1.41624
1.41624
1.41624
1.41624
1.41624
1.41624
1.41624
1.41624
1.41624
1.41624
1.41624
1.41624
1.41624
1.41624
1.41624
1.41624
1.41624
1.41624
1.41624
1.41624
1.41624
1.41624
1.41624
1.41624
1.41622
1.41616
1.41603
1.4149
1.41361
1.39449
1.38697
1
1.38669
1
1.03576
1.08266
1.1305
1.1762
1.21853
1.25698
1.29135
1.32153
1.34746
1.3691
1.38648
1.39976
1.40929
1.41558
1.41925
1.42098
1.4214
1.42105
1.42032
1.41948
1.41868
1.41801
1.41748
1.41708
1.4168
1.4166
1.41647
1.41638
1.41633
1.41629
1.41627
1.41626
1.41625
1.41625
1.41624
1.41624
1.41624
1.41624
1.41624
1.41624
1.41624
1.41624
1.41624
1.41624
1.41624
1.41624
1.41624
1.41624
1.41624
1.41624
1.41624
1.41624
1.41624
1.41624
1.41624
1.41624
1.41624
1.41624
1.41624
1.41624
1.41624
1.41624
1.41624
1.41624
1.41624
1.41624
1.41624
1.41624
1.41624
1.41624
1.41624
1.41624
1.41624
1.41624
1.41624
1.41624
1.41624
1.41624
1.41624
1.41624
1.41624
1.41624
1.41624
1.41624
1.41624
1.41624
1.41624
1.41624
1.41624
1.41624
1.41624
1.41624
1.41622
1.41616
1.41603
1.4149
1.41361
1.39449
1.38697
1
1.38669
1
1.03766
1.08576
1.13255
1.17421
1.20955
1.23862
1.26205
1.2806
1.29503
1.306
1.31407
1.31976
1.32356
1.32592
1.32724
1.32787
1.32807
1.32804
1.3279
1.32772
1.32756
1.32741
1.32731
1.32723
1.32717
1.32713
1.32711
1.32709
1.32708
1.32707
1.32707
1.32707
1.32707
1.32707
1.32707
1.32707
1.32707
1.32707
1.32707
1.32707
1.32707
1.32707
1.32707
1.32707
1.32707
1.32707
1.32707
1.32707
1.32707
1.32707
1.32707
1.32707
1.32707
1.32707
1.32707
1.32707
1.32707
1.32707
1.32707
1.32707
1.32707
1.32707
1.32707
1.32707
1.32707
1.32707
1.32707
1.32707
1.32707
1.32707
1.32707
1.32707
1.32707
1.32707
1.32707
1.32707
1.32707
1.32707
1.32707
1.32707
1.32707
1.32707
1.32707
1.32707
1.32707
1.32707
1.32707
1.32707
1.32707
1.32707
1.32707
1.32706
1.32706
1.327
1.32693
1.32599
1.32518
1.31002
1.30753
1
1.30743
1
1.04017
1.08473
1.11989
1.14301
1.1554
1.15973
1.15874
1.15465
1.14913
1.14332
1.13798
1.13355
1.13024
1.12803
1.12678
1.12627
1.12626
1.12654
1.12694
1.12736
1.12774
1.12806
1.1283
1.12848
1.1286
1.12869
1.12875
1.12879
1.12881
1.12882
1.12883
1.12884
1.12884
1.12884
1.12885
1.12885
1.12885
1.12885
1.12885
1.12885
1.12885
1.12885
1.12885
1.12885
1.12885
1.12885
1.12885
1.12885
1.12885
1.12885
1.12885
1.12885
1.12885
1.12885
1.12885
1.12885
1.12885
1.12885
1.12885
1.12885
1.12885
1.12885
1.12885
1.12885
1.12885
1.12885
1.12885
1.12885
1.12885
1.12885
1.12885
1.12885
1.12885
1.12885
1.12885
1.12885
1.12885
1.12885
1.12885
1.12885
1.12885
1.12885
1.12885
1.12885
1.12885
1.12884
1.12884
1.12884
1.12884
1.12884
1.12884
1.12884
1.12884
1.12882
1.1288
1.12849
1.12811
1.12314
1.12687
1
1.12698
1
1.02373
1.02809
1.01223
0.983942
0.950694
0.91771
0.887904
0.862517
0.841813
0.825579
0.813376
0.804654
0.798801
0.795192
0.79323
0.792391
0.792248
0.792486
0.792887
0.793322
0.79372
0.794048
0.794301
0.794486
0.794617
0.794707
0.794767
0.794805
0.79483
0.794845
0.794854
0.794859
0.794862
0.794863
0.794864
0.794864
0.794864
0.794864
0.794864
0.794864
0.794864
0.794864
0.794864
0.794864
0.794864
0.794864
0.794864
0.794864
0.794864
0.794864
0.794864
0.794864
0.794864
0.794864
0.794864
0.794864
0.794864
0.794864
0.794864
0.794864
0.794864
0.794864
0.794864
0.794864
0.794864
0.794864
0.794864
0.794864
0.794863
0.794863
0.794863
0.794863
0.794863
0.794863
0.794863
0.794863
0.794863
0.794863
0.794863
0.794863
0.794862
0.794862
0.794862
0.794862
0.794862
0.794862
0.794862
0.794862
0.794862
0.794862
0.794862
0.794865
0.794872
0.794917
0.795003
0.795751
0.796726
0.808392
0.82619
1
0.826366
1
0.80718
0.659027
0.550103
0.474367
0.423318
0.388988
0.365453
0.348855
0.336858
0.328089
0.321715
0.31719
0.314106
0.312129
0.310972
0.310388
0.310178
0.310188
0.31031
0.310476
0.310641
0.310784
0.310898
0.310984
0.311046
0.311089
0.311118
0.311137
0.311149
0.311157
0.311162
0.311164
0.311166
0.311167
0.311167
0.311167
0.311167
0.311167
0.311167
0.311167
0.311167
0.311167
0.311167
0.311167
0.311167
0.311167
0.311167
0.311167
0.311167
0.311167
0.311167
0.311167
0.311167
0.311167
0.311167
0.311167
0.311167
0.311167
0.311167
0.311167
0.311167
0.311166
0.311166
0.311166
0.311166
0.311166
0.311166
0.311166
0.311166
0.311166
0.311166
0.311166
0.311166
0.311166
0.311166
0.311166
0.311166
0.311166
0.311166
0.311166
0.311166
0.311166
0.311166
0.311166
0.311166
0.311166
0.311166
0.311166
0.311166
0.311166
0.311168
0.311176
0.311197
0.311314
0.311618
0.313349
0.317693
0.343798
0.380449
1
0.380499
-1
-0.80718
-0.659027
-0.550103
-0.474367
-0.423318
-0.388988
-0.365455
-0.34886
-0.336871
-0.328112
-0.321751
-0.31724
-0.314171
-0.312207
-0.31106
-0.310483
-0.310278
-0.31029
-0.310413
-0.310578
-0.310742
-0.310884
-0.310996
-0.311081
-0.311142
-0.311185
-0.311213
-0.311232
-0.311244
-0.311252
-0.311256
-0.311259
-0.31126
-0.311261
-0.311261
-0.311261
-0.311262
-0.311262
-0.311261
-0.311261
-0.311261
-0.311261
-0.311261
-0.311261
-0.311261
-0.311261
-0.311261
-0.311261
-0.311261
-0.311261
-0.311261
-0.311261
-0.311261
-0.311261
-0.311261
-0.311261
-0.311261
-0.311261
-0.311261
-0.311261
-0.311261
-0.311261
-0.311261
-0.311261
-0.311261
-0.31126
-0.31126
-0.31126
-0.31126
-0.31126
-0.31126
-0.31126
-0.31126
-0.31126
-0.31126
-0.31126
-0.31126
-0.31126
-0.31126
-0.31126
-0.31126
-0.31126
-0.31126
-0.31126
-0.31126
-0.31126
-0.31126
-0.31126
-0.31126
-0.31126
-0.311262
-0.31127
-0.311291
-0.311409
-0.311712
-0.313442
-0.317784
-0.343883
-0.380499
-1
-0.380499
