# vtk DataFile Version 2.0
FlowField
ASCII
DATASET STRUCTURED_GRID
DIMENSIONS 102 1 12 
POINTS 1224 double
0 0 0
0.4 0 0
0.8 0 0
1.2 0 0
1.6 0 0
2 0 0
2.4 0 0
2.8 0 0
3.2 0 0
3.6 0 0
4 0 0
4.4 0 0
4.8 0 0
5.2 0 0
5.6 0 0
6 0 0
6.4 0 0
6.8 0 0
7.2 0 0
7.6 0 0
8 0 0
8.4 0 0
8.8 0 0
9.2 0 0
9.6 0 0
10 0 0
10.4 0 0
10.8 0 0
11.2 0 0
11.6 0 0
12 0 0
12.4 0 0
12.8 0 0
13.2 0 0
13.6 0 0
14 0 0
14.4 0 0
14.8 0 0
15.2 0 0
15.6 0 0
16 0 0
16.4 0 0
16.8 0 0
17.2 0 0
17.6 0 0
18 0 0
18.4 0 0
18.8 0 0
19.2 0 0
19.6 0 0
20 0 0
20.4 0 0
20.8 0 0
21.2 0 0
21.6 0 0
22 0 0
22.4 0 0
22.8 0 0
23.2 0 0
23.6 0 0
24 0 0
24.4 0 0
24.8 0 0
25.2 0 0
25.6 0 0
26 0 0
26.4 0 0
26.8 0 0
27.2 0 0
27.6 0 0
28 0 0
28.4 0 0
28.8 0 0
29.2 0 0
29.6 0 0
30 0 0
30.4 0 0
30.8 0 0
31.2 0 0
31.6 0 0
32 0 0
32.4 0 0
32.8 0 0
33.2 0 0
33.6 0 0
34 0 0
34.4 0 0
34.8 0 0
35.2 0 0
35.6 0 0
36 0 0
36.4 0 0
36.8 0 0
37.2 0 0
37.6 0 0
38 0 0
38.4 0 0
38.8 0 0
39.2 0 0
39.6 0 0
40 0 0
40.4 0 0
0 0.1 0
0.4 0.1 0
0.8 0.1 0
1.2 0.1 0
1.6 0.1 0
2 0.1 0
2.4 0.1 0
2.8 0.1 0
3.2 0.1 0
3.6 0.1 0
4 0.1 0
4.4 0.1 0
4.8 0.1 0
5.2 0.1 0
5.6 0.1 0
6 0.1 0
6.4 0.1 0
6.8 0.1 0
7.2 0.1 0
7.6 0.1 0
8 0.1 0
8.4 0.1 0
8.8 0.1 0
9.2 0.1 0
9.6 0.1 0
10 0.1 0
10.4 0.1 0
10.8 0.1 0
11.2 0.1 0
11.6 0.1 0
12 0.1 0
12.4 0.1 0
12.8 0.1 0
13.2 0.1 0
13.6 0.1 0
14 0.1 0
14.4 0.1 0
14.8 0.1 0
15.2 0.1 0
15.6 0.1 0
16 0.1 0
16.4 0.1 0
16.8 0.1 0
17.2 0.1 0
17.6 0.1 0
18 0.1 0
18.4 0.1 0
18.8 0.1 0
19.2 0.1 0
19.6 0.1 0
20 0.1 0
20.4 0.1 0
20.8 0.1 0
21.2 0.1 0
21.6 0.1 0
22 0.1 0
22.4 0.1 0
22.8 0.1 0
23.2 0.1 0
23.6 0.1 0
24 0.1 0
24.4 0.1 0
24.8 0.1 0
25.2 0.1 0
25.6 0.1 0
26 0.1 0
26.4 0.1 0
26.8 0.1 0
27.2 0.1 0
27.6 0.1 0
28 0.1 0
28.4 0.1 0
28.8 0.1 0
29.2 0.1 0
29.6 0.1 0
30 0.1 0
30.4 0.1 0
30.8 0.1 0
31.2 0.1 0
31.6 0.1 0
32 0.1 0
32.4 0.1 0
32.8 0.1 0
33.2 0.1 0
33.6 0.1 0
34 0.1 0
34.4 0.1 0
34.8 0.1 0
35.2 0.1 0
35.6 0.1 0
36 0.1 0
36.4 0.1 0
36.8 0.1 0
37.2 0.1 0
37.6 0.1 0
38 0.1 0
38.4 0.1 0
38.8 0.1 0
39.2 0.1 0
39.6 0.1 0
40 0.1 0
40.4 0.1 0
0 0.2 0
0.4 0.2 0
0.8 0.2 0
1.2 0.2 0
1.6 0.2 0
2 0.2 0
2.4 0.2 0
2.8 0.2 0
3.2 0.2 0
3.6 0.2 0
4 0.2 0
4.4 0.2 0
4.8 0.2 0
5.2 0.2 0
5.6 0.2 0
6 0.2 0
6.4 0.2 0
6.8 0.2 0
7.2 0.2 0
7.6 0.2 0
8 0.2 0
8.4 0.2 0
8.8 0.2 0
9.2 0.2 0
9.6 0.2 0
10 0.2 0
10.4 0.2 0
10.8 0.2 0
11.2 0.2 0
11.6 0.2 0
12 0.2 0
12.4 0.2 0
12.8 0.2 0
13.2 0.2 0
13.6 0.2 0
14 0.2 0
14.4 0.2 0
14.8 0.2 0
15.2 0.2 0
15.6 0.2 0
16 0.2 0
16.4 0.2 0
16.8 0.2 0
17.2 0.2 0
17.6 0.2 0
18 0.2 0
18.4 0.2 0
18.8 0.2 0
19.2 0.2 0
19.6 0.2 0
20 0.2 0
20.4 0.2 0
20.8 0.2 0
21.2 0.2 0
21.6 0.2 0
22 0.2 0
22.4 0.2 0
22.8 0.2 0
23.2 0.2 0
23.6 0.2 0
24 0.2 0
24.4 0.2 0
24.8 0.2 0
25.2 0.2 0
25.6 0.2 0
26 0.2 0
26.4 0.2 0
26.8 0.2 0
27.2 0.2 0
27.6 0.2 0
28 0.2 0
28.4 0.2 0
28.8 0.2 0
29.2 0.2 0
29.6 0.2 0
30 0.2 0
30.4 0.2 0
30.8 0.2 0
31.2 0.2 0
31.6 0.2 0
32 0.2 0
32.4 0.2 0
32.8 0.2 0
33.2 0.2 0
33.6 0.2 0
34 0.2 0
34.4 0.2 0
34.8 0.2 0
35.2 0.2 0
35.6 0.2 0
36 0.2 0
36.4 0.2 0
36.8 0.2 0
37.2 0.2 0
37.6 0.2 0
38 0.2 0
38.4 0.2 0
38.8 0.2 0
39.2 0.2 0
39.6 0.2 0
40 0.2 0
40.4 0.2 0
0 0.3 0
0.4 0.3 0
0.8 0.3 0
1.2 0.3 0
1.6 0.3 0
2 0.3 0
2.4 0.3 0
2.8 0.3 0
3.2 0.3 0
3.6 0.3 0
4 0.3 0
4.4 0.3 0
4.8 0.3 0
5.2 0.3 0
5.6 0.3 0
6 0.3 0
6.4 0.3 0
6.8 0.3 0
7.2 0.3 0
7.6 0.3 0
8 0.3 0
8.4 0.3 0
8.8 0.3 0
9.2 0.3 0
9.6 0.3 0
10 0.3 0
10.4 0.3 0
10.8 0.3 0
11.2 0.3 0
11.6 0.3 0
12 0.3 0
12.4 0.3 0
12.8 0.3 0
13.2 0.3 0
13.6 0.3 0
14 0.3 0
14.4 0.3 0
14.8 0.3 0
15.2 0.3 0
15.6 0.3 0
16 0.3 0
16.4 0.3 0
16.8 0.3 0
17.2 0.3 0
17.6 0.3 0
18 0.3 0
18.4 0.3 0
18.8 0.3 0
19.2 0.3 0
19.6 0.3 0
20 0.3 0
20.4 0.3 0
20.8 0.3 0
21.2 0.3 0
21.6 0.3 0
22 0.3 0
22.4 0.3 0
22.8 0.3 0
23.2 0.3 0
23.6 0.3 0
24 0.3 0
24.4 0.3 0
24.8 0.3 0
25.2 0.3 0
25.6 0.3 0
26 0.3 0
26.4 0.3 0
26.8 0.3 0
27.2 0.3 0
27.6 0.3 0
28 0.3 0
28.4 0.3 0
28.8 0.3 0
29.2 0.3 0
29.6 0.3 0
30 0.3 0
30.4 0.3 0
30.8 0.3 0
31.2 0.3 0
31.6 0.3 0
32 0.3 0
32.4 0.3 0
32.8 0.3 0
33.2 0.3 0
33.6 0.3 0
34 0.3 0
34.4 0.3 0
34.8 0.3 0
35.2 0.3 0
35.6 0.3 0
36 0.3 0
36.4 0.3 0
36.8 0.3 0
37.2 0.3 0
37.6 0.3 0
38 0.3 0
38.4 0.3 0
38.8 0.3 0
39.2 0.3 0
39.6 0.3 0
40 0.3 0
40.4 0.3 0
0 0.4 0
0.4 0.4 0
0.8 0.4 0
1.2 0.4 0
1.6 0.4 0
2 0.4 0
2.4 0.4 0
2.8 0.4 0
3.2 0.4 0
3.6 0.4 0
4 0.4 0
4.4 0.4 0
4.8 0.4 0
5.2 0.4 0
5.6 0.4 0
6 0.4 0
6.4 0.4 0
6.8 0.4 0
7.2 0.4 0
7.6 0.4 0
8 0.4 0
8.4 0.4 0
8.8 0.4 0
9.2 0.4 0
9.6 0.4 0
10 0.4 0
10.4 0.4 0
10.8 0.4 0
11.2 0.4 0
11.6 0.4 0
12 0.4 0
12.4 0.4 0
12.8 0.4 0
13.2 0.4 0
13.6 0.4 0
14 0.4 0
14.4 0.4 0
14.8 0.4 0
15.2 0.4 0
15.6 0.4 0
16 0.4 0
16.4 0.4 0
16.8 0.4 0
17.2 0.4 0
17.6 0.4 0
18 0.4 0
18.4 0.4 0
18.8 0.4 0
19.2 0.4 0
19.6 0.4 0
20 0.4 0
20.4 0.4 0
20.8 0.4 0
21.2 0.4 0
21.6 0.4 0
22 0.4 0
22.4 0.4 0
22.8 0.4 0
23.2 0.4 0
23.6 0.4 0
24 0.4 0
24.4 0.4 0
24.8 0.4 0
25.2 0.4 0
25.6 0.4 0
26 0.4 0
26.4 0.4 0
26.8 0.4 0
27.2 0.4 0
27.6 0.4 0
28 0.4 0
28.4 0.4 0
28.8 0.4 0
29.2 0.4 0
29.6 0.4 0
30 0.4 0
30.4 0.4 0
30.8 0.4 0
31.2 0.4 0
31.6 0.4 0
32 0.4 0
32.4 0.4 0
32.8 0.4 0
33.2 0.4 0
33.6 0.4 0
34 0.4 0
34.4 0.4 0
34.8 0.4 0
35.2 0.4 0
35.6 0.4 0
36 0.4 0
36.4 0.4 0
36.8 0.4 0
37.2 0.4 0
37.6 0.4 0
38 0.4 0
38.4 0.4 0
38.8 0.4 0
39.2 0.4 0
39.6 0.4 0
40 0.4 0
40.4 0.4 0
0 0.5 0
0.4 0.5 0
0.8 0.5 0
1.2 0.5 0
1.6 0.5 0
2 0.5 0
2.4 0.5 0
2.8 0.5 0
3.2 0.5 0
3.6 0.5 0
4 0.5 0
4.4 0.5 0
4.8 0.5 0
5.2 0.5 0
5.6 0.5 0
6 0.5 0
6.4 0.5 0
6.8 0.5 0
7.2 0.5 0
7.6 0.5 0
8 0.5 0
8.4 0.5 0
8.8 0.5 0
9.2 0.5 0
9.6 0.5 0
10 0.5 0
10.4 0.5 0
10.8 0.5 0
11.2 0.5 0
11.6 0.5 0
12 0.5 0
12.4 0.5 0
12.8 0.5 0
13.2 0.5 0
13.6 0.5 0
14 0.5 0
14.4 0.5 0
14.8 0.5 0
15.2 0.5 0
15.6 0.5 0
16 0.5 0
16.4 0.5 0
16.8 0.5 0
17.2 0.5 0
17.6 0.5 0
18 0.5 0
18.4 0.5 0
18.8 0.5 0
19.2 0.5 0
19.6 0.5 0
20 0.5 0
20.4 0.5 0
20.8 0.5 0
21.2 0.5 0
21.6 0.5 0
22 0.5 0
22.4 0.5 0
22.8 0.5 0
23.2 0.5 0
23.6 0.5 0
24 0.5 0
24.4 0.5 0
24.8 0.5 0
25.2 0.5 0
25.6 0.5 0
26 0.5 0
26.4 0.5 0
26.8 0.5 0
27.2 0.5 0
27.6 0.5 0
28 0.5 0
28.4 0.5 0
28.8 0.5 0
29.2 0.5 0
29.6 0.5 0
30 0.5 0
30.4 0.5 0
30.8 0.5 0
31.2 0.5 0
31.6 0.5 0
32 0.5 0
32.4 0.5 0
32.8 0.5 0
33.2 0.5 0
33.6 0.5 0
34 0.5 0
34.4 0.5 0
34.8 0.5 0
35.2 0.5 0
35.6 0.5 0
36 0.5 0
36.4 0.5 0
36.8 0.5 0
37.2 0.5 0
37.6 0.5 0
38 0.5 0
38.4 0.5 0
38.8 0.5 0
39.2 0.5 0
39.6 0.5 0
40 0.5 0
40.4 0.5 0
0 0.6 0
0.4 0.6 0
0.8 0.6 0
1.2 0.6 0
1.6 0.6 0
2 0.6 0
2.4 0.6 0
2.8 0.6 0
3.2 0.6 0
3.6 0.6 0
4 0.6 0
4.4 0.6 0
4.8 0.6 0
5.2 0.6 0
5.6 0.6 0
6 0.6 0
6.4 0.6 0
6.8 0.6 0
7.2 0.6 0
7.6 0.6 0
8 0.6 0
8.4 0.6 0
8.8 0.6 0
9.2 0.6 0
9.6 0.6 0
10 0.6 0
10.4 0.6 0
10.8 0.6 0
11.2 0.6 0
11.6 0.6 0
12 0.6 0
12.4 0.6 0
12.8 0.6 0
13.2 0.6 0
13.6 0.6 0
14 0.6 0
14.4 0.6 0
14.8 0.6 0
15.2 0.6 0
15.6 0.6 0
16 0.6 0
16.4 0.6 0
16.8 0.6 0
17.2 0.6 0
17.6 0.6 0
18 0.6 0
18.4 0.6 0
18.8 0.6 0
19.2 0.6 0
19.6 0.6 0
20 0.6 0
20.4 0.6 0
20.8 0.6 0
21.2 0.6 0
21.6 0.6 0
22 0.6 0
22.4 0.6 0
22.8 0.6 0
23.2 0.6 0
23.6 0.6 0
24 0.6 0
24.4 0.6 0
24.8 0.6 0
25.2 0.6 0
25.6 0.6 0
26 0.6 0
26.4 0.6 0
26.8 0.6 0
27.2 0.6 0
27.6 0.6 0
28 0.6 0
28.4 0.6 0
28.8 0.6 0
29.2 0.6 0
29.6 0.6 0
30 0.6 0
30.4 0.6 0
30.8 0.6 0
31.2 0.6 0
31.6 0.6 0
32 0.6 0
32.4 0.6 0
32.8 0.6 0
33.2 0.6 0
33.6 0.6 0
34 0.6 0
34.4 0.6 0
34.8 0.6 0
35.2 0.6 0
35.6 0.6 0
36 0.6 0
36.4 0.6 0
36.8 0.6 0
37.2 0.6 0
37.6 0.6 0
38 0.6 0
38.4 0.6 0
38.8 0.6 0
39.2 0.6 0
39.6 0.6 0
40 0.6 0
40.4 0.6 0
0 0.7 0
0.4 0.7 0
0.8 0.7 0
1.2 0.7 0
1.6 0.7 0
2 0.7 0
2.4 0.7 0
2.8 0.7 0
3.2 0.7 0
3.6 0.7 0
4 0.7 0
4.4 0.7 0
4.8 0.7 0
5.2 0.7 0
5.6 0.7 0
6 0.7 0
6.4 0.7 0
6.8 0.7 0
7.2 0.7 0
7.6 0.7 0
8 0.7 0
8.4 0.7 0
8.8 0.7 0
9.2 0.7 0
9.6 0.7 0
10 0.7 0
10.4 0.7 0
10.8 0.7 0
11.2 0.7 0
11.6 0.7 0
12 0.7 0
12.4 0.7 0
12.8 0.7 0
13.2 0.7 0
13.6 0.7 0
14 0.7 0
14.4 0.7 0
14.8 0.7 0
15.2 0.7 0
15.6 0.7 0
16 0.7 0
16.4 0.7 0
16.8 0.7 0
17.2 0.7 0
17.6 0.7 0
18 0.7 0
18.4 0.7 0
18.8 0.7 0
19.2 0.7 0
19.6 0.7 0
20 0.7 0
20.4 0.7 0
20.8 0.7 0
21.2 0.7 0
21.6 0.7 0
22 0.7 0
22.4 0.7 0
22.8 0.7 0
23.2 0.7 0
23.6 0.7 0
24 0.7 0
24.4 0.7 0
24.8 0.7 0
25.2 0.7 0
25.6 0.7 0
26 0.7 0
26.4 0.7 0
26.8 0.7 0
27.2 0.7 0
27.6 0.7 0
28 0.7 0
28.4 0.7 0
28.8 0.7 0
29.2 0.7 0
29.6 0.7 0
30 0.7 0
30.4 0.7 0
30.8 0.7 0
31.2 0.7 0
31.6 0.7 0
32 0.7 0
32.4 0.7 0
32.8 0.7 0
33.2 0.7 0
33.6 0.7 0
34 0.7 0
34.4 0.7 0
34.8 0.7 0
35.2 0.7 0
35.6 0.7 0
36 0.7 0
36.4 0.7 0
36.8 0.7 0
37.2 0.7 0
37.6 0.7 0
38 0.7 0
38.4 0.7 0
38.8 0.7 0
39.2 0.7 0
39.6 0.7 0
40 0.7 0
40.4 0.7 0
0 0.8 0
0.4 0.8 0
0.8 0.8 0
1.2 0.8 0
1.6 0.8 0
2 0.8 0
2.4 0.8 0
2.8 0.8 0
3.2 0.8 0
3.6 0.8 0
4 0.8 0
4.4 0.8 0
4.8 0.8 0
5.2 0.8 0
5.6 0.8 0
6 0.8 0
6.4 0.8 0
6.8 0.8 0
7.2 0.8 0
7.6 0.8 0
8 0.8 0
8.4 0.8 0
8.8 0.8 0
9.2 0.8 0
9.6 0.8 0
10 0.8 0
10.4 0.8 0
10.8 0.8 0
11.2 0.8 0
11.6 0.8 0
12 0.8 0
12.4 0.8 0
12.8 0.8 0
13.2 0.8 0
13.6 0.8 0
14 0.8 0
14.4 0.8 0
14.8 0.8 0
15.2 0.8 0
15.6 0.8 0
16 0.8 0
16.4 0.8 0
16.8 0.8 0
17.2 0.8 0
17.6 0.8 0
18 0.8 0
18.4 0.8 0
18.8 0.8 0
19.2 0.8 0
19.6 0.8 0
20 0.8 0
20.4 0.8 0
20.8 0.8 0
21.2 0.8 0
21.6 0.8 0
22 0.8 0
22.4 0.8 0
22.8 0.8 0
23.2 0.8 0
23.6 0.8 0
24 0.8 0
24.4 0.8 0
24.8 0.8 0
25.2 0.8 0
25.6 0.8 0
26 0.8 0
26.4 0.8 0
26.8 0.8 0
27.2 0.8 0
27.6 0.8 0
28 0.8 0
28.4 0.8 0
28.8 0.8 0
29.2 0.8 0
29.6 0.8 0
30 0.8 0
30.4 0.8 0
30.8 0.8 0
31.2 0.8 0
31.6 0.8 0
32 0.8 0
32.4 0.8 0
32.8 0.8 0
33.2 0.8 0
33.6 0.8 0
34 0.8 0
34.4 0.8 0
34.8 0.8 0
35.2 0.8 0
35.6 0.8 0
36 0.8 0
36.4 0.8 0
36.8 0.8 0
37.2 0.8 0
37.6 0.8 0
38 0.8 0
38.4 0.8 0
38.8 0.8 0
39.2 0.8 0
39.6 0.8 0
40 0.8 0
40.4 0.8 0
0 0.9 0
0.4 0.9 0
0.8 0.9 0
1.2 0.9 0
1.6 0.9 0
2 0.9 0
2.4 0.9 0
2.8 0.9 0
3.2 0.9 0
3.6 0.9 0
4 0.9 0
4.4 0.9 0
4.8 0.9 0
5.2 0.9 0
5.6 0.9 0
6 0.9 0
6.4 0.9 0
6.8 0.9 0
7.2 0.9 0
7.6 0.9 0
8 0.9 0
8.4 0.9 0
8.8 0.9 0
9.2 0.9 0
9.6 0.9 0
10 0.9 0
10.4 0.9 0
10.8 0.9 0
11.2 0.9 0
11.6 0.9 0
12 0.9 0
12.4 0.9 0
12.8 0.9 0
13.2 0.9 0
13.6 0.9 0
14 0.9 0
14.4 0.9 0
14.8 0.9 0
15.2 0.9 0
15.6 0.9 0
16 0.9 0
16.4 0.9 0
16.8 0.9 0
17.2 0.9 0
17.6 0.9 0
18 0.9 0
18.4 0.9 0
18.8 0.9 0
19.2 0.9 0
19.6 0.9 0
20 0.9 0
20.4 0.9 0
20.8 0.9 0
21.2 0.9 0
21.6 0.9 0
22 0.9 0
22.4 0.9 0
22.8 0.9 0
23.2 0.9 0
23.6 0.9 0
24 0.9 0
24.4 0.9 0
24.8 0.9 0
25.2 0.9 0
25.6 0.9 0
26 0.9 0
26.4 0.9 0
26.8 0.9 0
27.2 0.9 0
27.6 0.9 0
28 0.9 0
28.4 0.9 0
28.8 0.9 0
29.2 0.9 0
29.6 0.9 0
30 0.9 0
30.4 0.9 0
30.8 0.9 0
31.2 0.9 0
31.6 0.9 0
32 0.9 0
32.4 0.9 0
32.8 0.9 0
33.2 0.9 0
33.6 0.9 0
34 0.9 0
34.4 0.9 0
34.8 0.9 0
35.2 0.9 0
35.6 0.9 0
36 0.9 0
36.4 0.9 0
36.8 0.9 0
37.2 0.9 0
37.6 0.9 0
38 0.9 0
38.4 0.9 0
38.8 0.9 0
39.2 0.9 0
39.6 0.9 0
40 0.9 0
40.4 0.9 0
0 1 0
0.4 1 0
0.8 1 0
1.2 1 0
1.6 1 0
2 1 0
2.4 1 0
2.8 1 0
3.2 1 0
3.6 1 0
4 1 0
4.4 1 0
4.8 1 0
5.2 1 0
5.6 1 0
6 1 0
6.4 1 0
6.8 1 0
7.2 1 0
7.6 1 0
8 1 0
8.4 1 0
8.8 1 0
9.2 1 0
9.6 1 0
10 1 0
10.4 1 0
10.8 1 0
11.2 1 0
11.6 1 0
12 1 0
12.4 1 0
12.8 1 0
13.2 1 0
13.6 1 0
14 1 0
14.4 1 0
14.8 1 0
15.2 1 0
15.6 1 0
16 1 0
16.4 1 0
16.8 1 0
17.2 1 0
17.6 1 0
18 1 0
18.4 1 0
18.8 1 0
19.2 1 0
19.6 1 0
20 1 0
20.4 1 0
20.8 1 0
21.2 1 0
21.6 1 0
22 1 0
22.4 1 0
22.8 1 0
23.2 1 0
23.6 1 0
24 1 0
24.4 1 0
24.8 1 0
25.2 1 0
25.6 1 0
26 1 0
26.4 1 0
26.8 1 0
27.2 1 0
27.6 1 0
28 1 0
28.4 1 0
28.8 1 0
29.2 1 0
29.6 1 0
30 1 0
30.4 1 0
30.8 1 0
31.2 1 0
31.6 1 0
32 1 0
32.4 1 0
32.8 1 0
33.2 1 0
33.6 1 0
34 1 0
34.4 1 0
34.8 1 0
35.2 1 0
35.6 1 0
36 1 0
36.4 1 0
36.8 1 0
37.2 1 0
37.6 1 0
38 1 0
38.4 1 0
38.8 1 0
39.2 1 0
39.6 1 0
40 1 0
40.4 1 0
0 1.1 0
0.4 1.1 0
0.8 1.1 0
1.2 1.1 0
1.6 1.1 0
2 1.1 0
2.4 1.1 0
2.8 1.1 0
3.2 1.1 0
3.6 1.1 0
4 1.1 0
4.4 1.1 0
4.8 1.1 0
5.2 1.1 0
5.6 1.1 0
6 1.1 0
6.4 1.1 0
6.8 1.1 0
7.2 1.1 0
7.6 1.1 0
8 1.1 0
8.4 1.1 0
8.8 1.1 0
9.2 1.1 0
9.6 1.1 0
10 1.1 0
10.4 1.1 0
10.8 1.1 0
11.2 1.1 0
11.6 1.1 0
12 1.1 0
12.4 1.1 0
12.8 1.1 0
13.2 1.1 0
13.6 1.1 0
14 1.1 0
14.4 1.1 0
14.8 1.1 0
15.2 1.1 0
15.6 1.1 0
16 1.1 0
16.4 1.1 0
16.8 1.1 0
17.2 1.1 0
17.6 1.1 0
18 1.1 0
18.4 1.1 0
18.8 1.1 0
19.2 1.1 0
19.6 1.1 0
20 1.1 0
20.4 1.1 0
20.8 1.1 0
21.2 1.1 0
21.6 1.1 0
22 1.1 0
22.4 1.1 0
22.8 1.1 0
23.2 1.1 0
23.6 1.1 0
24 1.1 0
24.4 1.1 0
24.8 1.1 0
25.2 1.1 0
25.6 1.1 0
26 1.1 0
26.4 1.1 0
26.8 1.1 0
27.2 1.1 0
27.6 1.1 0
28 1.1 0
28.4 1.1 0
28.8 1.1 0
29.2 1.1 0
29.6 1.1 0
30 1.1 0
30.4 1.1 0
30.8 1.1 0
31.2 1.1 0
31.6 1.1 0
32 1.1 0
32.4 1.1 0
32.8 1.1 0
33.2 1.1 0
33.6 1.1 0
34 1.1 0
34.4 1.1 0
34.8 1.1 0
35.2 1.1 0
35.6 1.1 0
36 1.1 0
36.4 1.1 0
36.8 1.1 0
37.2 1.1 0
37.6 1.1 0
38 1.1 0
38.4 1.1 0
38.8 1.1 0
39.2 1.1 0
39.6 1.1 0
40 1.1 0
40.4 1.1 0

POINT_DATA 1224

SCALARS phi double
LOOKUP_TABLE default
0.911619
1.08838
1.18693
1.21817
1.20207
1.16371
1.12152
1.08384
1.05232
1.02601
1.00345
0.983492
0.965361
0.948566
0.932798
0.917857
0.903608
0.88996
0.876843
0.864205
0.852
0.840185
0.828705
0.817499
0.806486
0.795573
0.784653
0.773611
0.762329
0.750693
0.738598
0.725954
0.712693
0.698763
0.68414
0.668821
0.652821
0.636174
0.618925
0.601135
0.58287
0.564201
0.545203
0.525952
0.506519
0.486976
0.467386
0.447812
0.428309
0.408927
0.389711
0.370703
0.351939
0.333452
0.315271
0.297423
0.279935
0.26283
0.24613
0.229857
0.214035
0.198684
0.183825
0.16948
0.155671
0.142418
0.129741
0.11766
0.106193
0.0953554
0.0851626
0.0756254
0.0667517
0.0585452
0.051005
0.0441252
0.0378944
0.0322955
0.027306
0.0228981
0.0190391
0.0156924
0.0128181
0.0103743
0.00831766
0.00660507
0.00519416
0.0040444
0.00311774
0.00237917
0.00179711
0.00134354
0.000994112
0.00072792
0.00052757
0.000378158
0.000268888
0.000187764
0.000133736
8.90549e-05
5.89828e-05
5.89828e-05
0.911619
1.08838
1.18693
1.21817
1.20207
1.16371
1.12152
1.08384
1.05232
1.02601
1.00345
0.983492
0.965361
0.948566
0.932798
0.917857
0.903608
0.88996
0.876843
0.864205
0.852
0.840185
0.828705
0.817499
0.806486
0.795573
0.784653
0.773611
0.762329
0.750693
0.738598
0.725954
0.712693
0.698763
0.68414
0.668821
0.652821
0.636174
0.618925
0.601135
0.58287
0.564201
0.545203
0.525952
0.506519
0.486976
0.467386
0.447812
0.428309
0.408927
0.389711
0.370703
0.351939
0.333452
0.315271
0.297423
0.279935
0.26283
0.24613
0.229857
0.214035
0.198684
0.183825
0.16948
0.155671
0.142418
0.129741
0.11766
0.106193
0.0953554
0.0851626
0.0756254
0.0667517
0.0585452
0.051005
0.0441252
0.0378944
0.0322955
0.027306
0.0228981
0.0190391
0.0156924
0.0128181
0.0103743
0.00831766
0.00660507
0.00519416
0.0040444
0.00311774
0.00237917
0.00179711
0.00134354
0.000994112
0.00072792
0.00052757
0.000378158
0.000268888
0.000187764
0.000133736
8.90549e-05
5.89828e-05
5.89828e-05
1.00188
0.998125
1.02685
1.06105
1.08319
1.0888
1.08087
1.06447
1.04395
1.02217
1.00069
0.980209
0.960954
0.942917
0.925998
0.910072
0.895021
0.880742
0.867147
0.854167
0.841741
0.829815
0.818336
0.807248
0.796488
0.785983
0.77565
0.765395
0.755119
0.74472
0.734098
0.723158
0.711815
0.699999
0.687654
0.674744
0.661248
0.647164
0.632502
0.617287
0.601555
0.585349
0.568721
0.551725
0.534419
0.51686
0.499104
0.481208
0.463222
0.445197
0.427176
0.409203
0.391314
0.373546
0.355931
0.338497
0.321274
0.304286
0.28756
0.271119
0.254987
0.239187
0.223742
0.208677
0.194015
0.179778
0.165991
0.152677
0.13986
0.127562
0.115805
0.104611
0.0940009
0.0839924
0.074602
0.0658426
0.0577236
0.0502496
0.0434199
0.0372283
0.031662
0.0267022
0.0223236
0.0184957
0.0151829
0.0123454
0.00994115
0.00792614
0.00625614
0.00488774
0.00377931
0.00289181
0.00218953
0.00164022
0.00121588
0.000891269
0.000647709
0.000462901
0.000335476
0.000227675
0.00017878
0.00017878
1.01572
0.984281
0.963649
0.958795
0.96217
0.966524
0.967709
0.964361
0.956778
0.945954
0.932986
0.918808
0.904114
0.889375
0.874887
0.860824
0.847273
0.834272
0.821825
0.809921
0.798536
0.787643
0.777208
0.767197
0.75757
0.748281
0.739277
0.7305
0.721884
0.713354
0.704836
0.696252
0.687524
0.67858
0.669351
0.65978
0.649817
0.639427
0.628582
0.617267
0.605478
0.593218
0.580501
0.567348
0.553782
0.539836
0.525541
0.510933
0.496046
0.480917
0.46558
0.450069
0.434417
0.418656
0.402814
0.38692
0.371001
0.355085
0.339196
0.323361
0.307605
0.291954
0.276433
0.261069
0.245889
0.230921
0.216191
0.20173
0.187566
0.17373
0.160252
0.147166
0.134505
0.122303
0.110597
0.0994234
0.0888164
0.0788099
0.0694345
0.0607157
0.052673
0.0453183
0.0386547
0.032676
0.0273665
0.0227012
0.0186471
0.0151636
0.012205
0.00972171
0.00766217
0.00597463
0.00460871
0.00351648
0.00265418
0.00198082
0.0014641
0.00106636
0.000781554
0.000543181
0.00043841
0.00043841
1.02404
0.975965
0.919364
0.876597
0.848753
0.831753
0.821182
0.813715
0.807274
0.800757
0.793701
0.786012
0.777776
0.769148
0.760296
0.751368
0.742486
0.733739
0.725192
0.716889
0.708857
0.701109
0.693651
0.686478
0.679581
0.672946
0.666551
0.66037
0.65437
0.648513
0.642757
0.637052
0.631348
0.625592
0.61973
0.613708
0.607475
0.600984
0.594193
0.587066
0.579572
0.571687
0.563392
0.554676
0.545533
0.53596
0.52596
0.515541
0.504711
0.493484
0.481872
0.469893
0.457563
0.4449
0.431923
0.418652
0.405108
0.391312
0.377288
0.36306
0.348652
0.334091
0.319406
0.304626
0.289782
0.274905
0.26003
0.245191
0.230424
0.215765
0.201255
0.186935
0.17285
0.159047
0.145577
0.132493
0.119853
0.107714
0.0961334
0.0851667
0.0748646
0.0652706
0.056419
0.0483328
0.0410224
0.0344849
0.0287041
0.0236514
0.0192875
0.0155638
0.0124253
0.00981274
0.00766513
0.00592175
0.00452465
0.00341822
0.00255607
0.0018848
0.00139472
0.000979391
0.000807891
0.000807891
1.11553
0.884471
0.754942
0.682423
0.641439
0.61841
0.605773
0.599099
0.595721
0.594024
0.593049
0.592248
0.591331
0.590167
0.588716
0.586989
0.585024
0.582868
0.580569
0.578172
0.575716
0.573234
0.570752
0.568292
0.565868
0.563491
0.561167
0.558895
0.556672
0.55449
0.552334
0.550188
0.548028
0.545827
0.543556
0.541182
0.538668
0.535976
0.533071
0.529915
0.526471
0.522706
0.518588
0.514085
0.509173
0.503826
0.498024
0.49175
0.484989
0.47773
0.469966
0.461691
0.452904
0.443608
0.433805
0.423506
0.41272
0.401463
0.389752
0.377609
0.365057
0.352124
0.338842
0.325242
0.311362
0.297239
0.282913
0.268428
0.253825
0.239152
0.224455
0.209785
0.195196
0.180745
0.166493
0.152506
0.138854
0.12561
0.112848
0.100642
0.0890618
0.0781725
0.0680288
0.0586741
0.0501374
0.0424328
0.0355583
0.0294962
0.0242147
0.0196695
0.0158066
0.0125646
0.00987823
0.00768038
0.00590552
0.00448942
0.00337778
0.00250592
0.00186615
0.00131461
0.00110515
0.00110515
-0.101677
0.101677
0.204149
0.258515
0.29004
0.310502
0.325452
0.337536
0.348013
0.357476
0.366192
0.374278
0.381784
0.388735
0.395152
0.401057
0.406477
0.411445
0.415995
0.420165
0.423989
0.427504
0.430742
0.433734
0.436506
0.439085
0.44149
0.44374
0.445848
0.447826
0.449679
0.45141
0.453016
0.454493
0.455828
0.457006
0.458009
0.458814
0.459394
0.459719
0.459757
0.459474
0.458834
0.457801
0.45634
0.454414
0.45199
0.449037
0.445523
0.441425
0.436718
0.431384
0.42541
0.418786
0.411509
0.40358
0.395004
0.385796
0.375971
0.365553
0.354569
0.343053
0.33104
0.318572
0.305693
0.292451
0.278894
0.265075
0.251046
0.236863
0.222583
0.208265
0.19397
0.179762
0.165711
0.151889
0.138371
0.125234
0.112558
0.10042
0.0888934
0.0780457
0.0679342
0.058604
0.0500859
0.0423954
0.0355312
0.0294768
0.024201
0.0196599
0.0157999
0.01256
0.00987506
0.00767824
0.00590408
0.00448846
0.00337715
0.00250551
0.00186588
0.00131444
0.00110503
0.00110503
-0.00930645
0.00930645
0.0399923
0.0692732
0.0943627
0.115578
0.133846
0.150008
0.164679
0.178277
0.191068
0.203216
0.214819
0.225933
0.236591
0.246813
0.25661
0.265995
0.274979
0.283574
0.291793
0.299651
0.307164
0.314347
0.321218
0.327792
0.334084
0.340108
0.345878
0.351404
0.356695
0.361756
0.366589
0.371195
0.375566
0.379693
0.383563
0.387154
0.390444
0.393405
0.396005
0.398209
0.399978
0.401274
0.402054
0.40228
0.401911
0.40091
0.399243
0.39688
0.393795
0.389968
0.385387
0.380043
0.373937
0.367075
0.359472
0.351148
0.34213
0.332454
0.322157
0.311287
0.299892
0.288025
0.275744
0.263107
0.250176
0.237013
0.22368
0.210241
0.19676
0.183303
0.169935
0.156724
0.143739
0.13105
0.118729
0.106844
0.0954661
0.0846588
0.074481
0.0649833
0.0562056
0.0481756
0.0409076
0.0344018
0.0286444
0.023609
0.0192576
0.0155429
0.0124108
0.0098028
0.00765838
0.0059172
0.00452161
0.00341621
0.00255475
0.00188395
0.00139417
0.000979041
0.000807659
0.000807659
-0.000483305
0.000483305
0.0062834
0.014825
0.024693
0.0352056
0.0460684
0.0571535
0.0683964
0.0797547
0.0911921
0.102673
0.114161
0.125618
0.137007
0.14829
0.159435
0.17041
0.181187
0.191744
0.202061
0.212124
0.221921
0.231445
0.24069
0.249654
0.258335
0.266733
0.274849
0.282681
0.290229
0.297488
0.304454
0.311116
0.317461
0.323471
0.329125
0.334395
0.339249
0.343653
0.347568
0.350952
0.353763
0.355958
0.357492
0.358327
0.358423
0.357748
0.356274
0.353979
0.350848
0.346877
0.342065
0.336423
0.329968
0.322728
0.314737
0.306035
0.29667
0.286697
0.276173
0.265163
0.253731
0.241947
0.22988
0.2176
0.205177
0.192681
0.18018
0.167741
0.155429
0.143308
0.13144
0.119887
0.108706
0.0979538
0.0876831
0.0779427
0.068776
0.0602197
0.0523024
0.0450437
0.0384529
0.0325289
0.0272602
0.0226251
0.018593
0.0151255
0.0121785
0.00970335
0.00764959
0.00596608
0.00460296
0.00351265
0.00265164
0.00197916
0.00146302
0.00106567
0.00078111
0.000542902
0.000438231
0.000438231
4.08322e-05
-4.08322e-05
0.000817245
0.00283838
0.00606915
0.0105077
0.0161103
0.0227913
0.0304364
0.0389186
0.0481101
0.0578891
0.0681419
0.0787647
0.0896628
0.100751
0.111952
0.123199
0.134432
0.145599
0.156657
0.167566
0.178296
0.18882
0.199117
0.209168
0.218959
0.228477
0.237707
0.246638
0.255255
0.263541
0.271476
0.279036
0.286195
0.292921
0.299177
0.304923
0.310117
0.314711
0.318659
0.321913
0.324429
0.326161
0.327073
0.327129
0.326303
0.324576
0.321937
0.318386
0.31393
0.308587
0.302384
0.295359
0.287556
0.279027
0.269833
0.260038
0.249714
0.238934
0.227775
0.216316
0.204636
0.192812
0.180922
0.169042
0.157244
0.145597
0.134166
0.123014
0.112198
0.10177
0.0917787
0.0822671
0.0732722
0.0648254
0.0569513
0.0496678
0.0429852
0.0369059
0.0314249
0.0265292
0.0221985
0.018406
0.015119
0.0123004
0.00990967
0.00790431
0.00624115
0.00487753
0.00377241
0.0028872
0.00218648
0.00163821
0.00121457
0.000890423
0.000647167
0.000462558
0.000335259
0.000227542
0.000178695
0.000178695
2.2059e-05
-2.2059e-05
0.000114971
0.000803975
0.00239726
0.00512891
0.00909723
0.0142977
0.0206594
0.0280718
0.0364036
0.0455167
0.0552757
0.0655533
0.0762328
0.087209
0.0983885
0.109689
0.121037
0.132371
0.143638
0.15479
0.165789
0.176602
0.187202
0.197563
0.207665
0.217486
0.227006
0.236204
0.245055
0.253533
0.261606
0.269238
0.276392
0.283024
0.289086
0.29453
0.299303
0.303353
0.30663
0.309085
0.310676
0.311364
0.31112
0.309922
0.307757
0.304624
0.300531
0.295498
0.289556
0.282743
0.275111
0.266718
0.25763
0.247918
0.237662
0.226942
0.215843
0.204451
0.192852
0.181131
0.169371
0.157654
0.146057
0.134653
0.123512
0.112697
0.102265
0.0922692
0.0827547
0.0737604
0.0653177
0.0574508
0.0501761
0.0435022
0.0374298
0.0319518
0.0270537
0.0227144
0.0189065
0.0155974
0.0127507
0.0103268
0.0082845
0.00658211
0.00517841
0.00403368
0.00311051
0.00237434
0.0017939
0.00134143
0.000992741
0.000727035
0.000527004
0.000377799
0.000268663
0.000187624
0.000133648
8.90018e-05
5.89536e-05
5.89536e-05
2.2059e-05
-2.2059e-05
0.000114971
0.000803975
0.00239726
0.00512891
0.00909723
0.0142977
0.0206594
0.0280718
0.0364036
0.0455167
0.0552757
0.0655533
0.0762328
0.087209
0.0983885
0.109689
0.121037
0.132371
0.143638
0.15479
0.165789
0.176602
0.187202
0.197563
0.207665
0.217486
0.227006
0.236204
0.245055
0.253533
0.261606
0.269238
0.276392
0.283024
0.289086
0.29453
0.299303
0.303353
0.30663
0.309085
0.310676
0.311364
0.31112
0.309922
0.307757
0.304624
0.300531
0.295498
0.289556
0.282743
0.275111
0.266718
0.25763
0.247918
0.237662
0.226942
0.215843
0.204451
0.192852
0.181131
0.169371
0.157654
0.146057
0.134653
0.123512
0.112697
0.102265
0.0922692
0.0827547
0.0737604
0.0653177
0.0574508
0.0501761
0.0435022
0.0374298
0.0319518
0.0270537
0.0227144
0.0189065
0.0155974
0.0127507
0.0103268
0.0082845
0.00658211
0.00517841
0.00403368
0.00311051
0.00237434
0.0017939
0.00134143
0.000992741
0.000727035
0.000527004
0.000377799
0.000268663
0.000187624
0.000133648
8.90018e-05
5.89536e-05
5.89536e-05
