# vtk DataFile Version 2.0
FlowField
ASCII
DATASET STRUCTURED_GRID
DIMENSIONS 102 1 12 
POINTS 1224 double
0 0 0
0.4 0 0
0.8 0 0
1.2 0 0
1.6 0 0
2 0 0
2.4 0 0
2.8 0 0
3.2 0 0
3.6 0 0
4 0 0
4.4 0 0
4.8 0 0
5.2 0 0
5.6 0 0
6 0 0
6.4 0 0
6.8 0 0
7.2 0 0
7.6 0 0
8 0 0
8.4 0 0
8.8 0 0
9.2 0 0
9.6 0 0
10 0 0
10.4 0 0
10.8 0 0
11.2 0 0
11.6 0 0
12 0 0
12.4 0 0
12.8 0 0
13.2 0 0
13.6 0 0
14 0 0
14.4 0 0
14.8 0 0
15.2 0 0
15.6 0 0
16 0 0
16.4 0 0
16.8 0 0
17.2 0 0
17.6 0 0
18 0 0
18.4 0 0
18.8 0 0
19.2 0 0
19.6 0 0
20 0 0
20.4 0 0
20.8 0 0
21.2 0 0
21.6 0 0
22 0 0
22.4 0 0
22.8 0 0
23.2 0 0
23.6 0 0
24 0 0
24.4 0 0
24.8 0 0
25.2 0 0
25.6 0 0
26 0 0
26.4 0 0
26.8 0 0
27.2 0 0
27.6 0 0
28 0 0
28.4 0 0
28.8 0 0
29.2 0 0
29.6 0 0
30 0 0
30.4 0 0
30.8 0 0
31.2 0 0
31.6 0 0
32 0 0
32.4 0 0
32.8 0 0
33.2 0 0
33.6 0 0
34 0 0
34.4 0 0
34.8 0 0
35.2 0 0
35.6 0 0
36 0 0
36.4 0 0
36.8 0 0
37.2 0 0
37.6 0 0
38 0 0
38.4 0 0
38.8 0 0
39.2 0 0
39.6 0 0
40 0 0
40.4 0 0
0 0.1 0
0.4 0.1 0
0.8 0.1 0
1.2 0.1 0
1.6 0.1 0
2 0.1 0
2.4 0.1 0
2.8 0.1 0
3.2 0.1 0
3.6 0.1 0
4 0.1 0
4.4 0.1 0
4.8 0.1 0
5.2 0.1 0
5.6 0.1 0
6 0.1 0
6.4 0.1 0
6.8 0.1 0
7.2 0.1 0
7.6 0.1 0
8 0.1 0
8.4 0.1 0
8.8 0.1 0
9.2 0.1 0
9.6 0.1 0
10 0.1 0
10.4 0.1 0
10.8 0.1 0
11.2 0.1 0
11.6 0.1 0
12 0.1 0
12.4 0.1 0
12.8 0.1 0
13.2 0.1 0
13.6 0.1 0
14 0.1 0
14.4 0.1 0
14.8 0.1 0
15.2 0.1 0
15.6 0.1 0
16 0.1 0
16.4 0.1 0
16.8 0.1 0
17.2 0.1 0
17.6 0.1 0
18 0.1 0
18.4 0.1 0
18.8 0.1 0
19.2 0.1 0
19.6 0.1 0
20 0.1 0
20.4 0.1 0
20.8 0.1 0
21.2 0.1 0
21.6 0.1 0
22 0.1 0
22.4 0.1 0
22.8 0.1 0
23.2 0.1 0
23.6 0.1 0
24 0.1 0
24.4 0.1 0
24.8 0.1 0
25.2 0.1 0
25.6 0.1 0
26 0.1 0
26.4 0.1 0
26.8 0.1 0
27.2 0.1 0
27.6 0.1 0
28 0.1 0
28.4 0.1 0
28.8 0.1 0
29.2 0.1 0
29.6 0.1 0
30 0.1 0
30.4 0.1 0
30.8 0.1 0
31.2 0.1 0
31.6 0.1 0
32 0.1 0
32.4 0.1 0
32.8 0.1 0
33.2 0.1 0
33.6 0.1 0
34 0.1 0
34.4 0.1 0
34.8 0.1 0
35.2 0.1 0
35.6 0.1 0
36 0.1 0
36.4 0.1 0
36.8 0.1 0
37.2 0.1 0
37.6 0.1 0
38 0.1 0
38.4 0.1 0
38.8 0.1 0
39.2 0.1 0
39.6 0.1 0
40 0.1 0
40.4 0.1 0
0 0.2 0
0.4 0.2 0
0.8 0.2 0
1.2 0.2 0
1.6 0.2 0
2 0.2 0
2.4 0.2 0
2.8 0.2 0
3.2 0.2 0
3.6 0.2 0
4 0.2 0
4.4 0.2 0
4.8 0.2 0
5.2 0.2 0
5.6 0.2 0
6 0.2 0
6.4 0.2 0
6.8 0.2 0
7.2 0.2 0
7.6 0.2 0
8 0.2 0
8.4 0.2 0
8.8 0.2 0
9.2 0.2 0
9.6 0.2 0
10 0.2 0
10.4 0.2 0
10.8 0.2 0
11.2 0.2 0
11.6 0.2 0
12 0.2 0
12.4 0.2 0
12.8 0.2 0
13.2 0.2 0
13.6 0.2 0
14 0.2 0
14.4 0.2 0
14.8 0.2 0
15.2 0.2 0
15.6 0.2 0
16 0.2 0
16.4 0.2 0
16.8 0.2 0
17.2 0.2 0
17.6 0.2 0
18 0.2 0
18.4 0.2 0
18.8 0.2 0
19.2 0.2 0
19.6 0.2 0
20 0.2 0
20.4 0.2 0
20.8 0.2 0
21.2 0.2 0
21.6 0.2 0
22 0.2 0
22.4 0.2 0
22.8 0.2 0
23.2 0.2 0
23.6 0.2 0
24 0.2 0
24.4 0.2 0
24.8 0.2 0
25.2 0.2 0
25.6 0.2 0
26 0.2 0
26.4 0.2 0
26.8 0.2 0
27.2 0.2 0
27.6 0.2 0
28 0.2 0
28.4 0.2 0
28.8 0.2 0
29.2 0.2 0
29.6 0.2 0
30 0.2 0
30.4 0.2 0
30.8 0.2 0
31.2 0.2 0
31.6 0.2 0
32 0.2 0
32.4 0.2 0
32.8 0.2 0
33.2 0.2 0
33.6 0.2 0
34 0.2 0
34.4 0.2 0
34.8 0.2 0
35.2 0.2 0
35.6 0.2 0
36 0.2 0
36.4 0.2 0
36.8 0.2 0
37.2 0.2 0
37.6 0.2 0
38 0.2 0
38.4 0.2 0
38.8 0.2 0
39.2 0.2 0
39.6 0.2 0
40 0.2 0
40.4 0.2 0
0 0.3 0
0.4 0.3 0
0.8 0.3 0
1.2 0.3 0
1.6 0.3 0
2 0.3 0
2.4 0.3 0
2.8 0.3 0
3.2 0.3 0
3.6 0.3 0
4 0.3 0
4.4 0.3 0
4.8 0.3 0
5.2 0.3 0
5.6 0.3 0
6 0.3 0
6.4 0.3 0
6.8 0.3 0
7.2 0.3 0
7.6 0.3 0
8 0.3 0
8.4 0.3 0
8.8 0.3 0
9.2 0.3 0
9.6 0.3 0
10 0.3 0
10.4 0.3 0
10.8 0.3 0
11.2 0.3 0
11.6 0.3 0
12 0.3 0
12.4 0.3 0
12.8 0.3 0
13.2 0.3 0
13.6 0.3 0
14 0.3 0
14.4 0.3 0
14.8 0.3 0
15.2 0.3 0
15.6 0.3 0
16 0.3 0
16.4 0.3 0
16.8 0.3 0
17.2 0.3 0
17.6 0.3 0
18 0.3 0
18.4 0.3 0
18.8 0.3 0
19.2 0.3 0
19.6 0.3 0
20 0.3 0
20.4 0.3 0
20.8 0.3 0
21.2 0.3 0
21.6 0.3 0
22 0.3 0
22.4 0.3 0
22.8 0.3 0
23.2 0.3 0
23.6 0.3 0
24 0.3 0
24.4 0.3 0
24.8 0.3 0
25.2 0.3 0
25.6 0.3 0
26 0.3 0
26.4 0.3 0
26.8 0.3 0
27.2 0.3 0
27.6 0.3 0
28 0.3 0
28.4 0.3 0
28.8 0.3 0
29.2 0.3 0
29.6 0.3 0
30 0.3 0
30.4 0.3 0
30.8 0.3 0
31.2 0.3 0
31.6 0.3 0
32 0.3 0
32.4 0.3 0
32.8 0.3 0
33.2 0.3 0
33.6 0.3 0
34 0.3 0
34.4 0.3 0
34.8 0.3 0
35.2 0.3 0
35.6 0.3 0
36 0.3 0
36.4 0.3 0
36.8 0.3 0
37.2 0.3 0
37.6 0.3 0
38 0.3 0
38.4 0.3 0
38.8 0.3 0
39.2 0.3 0
39.6 0.3 0
40 0.3 0
40.4 0.3 0
0 0.4 0
0.4 0.4 0
0.8 0.4 0
1.2 0.4 0
1.6 0.4 0
2 0.4 0
2.4 0.4 0
2.8 0.4 0
3.2 0.4 0
3.6 0.4 0
4 0.4 0
4.4 0.4 0
4.8 0.4 0
5.2 0.4 0
5.6 0.4 0
6 0.4 0
6.4 0.4 0
6.8 0.4 0
7.2 0.4 0
7.6 0.4 0
8 0.4 0
8.4 0.4 0
8.8 0.4 0
9.2 0.4 0
9.6 0.4 0
10 0.4 0
10.4 0.4 0
10.8 0.4 0
11.2 0.4 0
11.6 0.4 0
12 0.4 0
12.4 0.4 0
12.8 0.4 0
13.2 0.4 0
13.6 0.4 0
14 0.4 0
14.4 0.4 0
14.8 0.4 0
15.2 0.4 0
15.6 0.4 0
16 0.4 0
16.4 0.4 0
16.8 0.4 0
17.2 0.4 0
17.6 0.4 0
18 0.4 0
18.4 0.4 0
18.8 0.4 0
19.2 0.4 0
19.6 0.4 0
20 0.4 0
20.4 0.4 0
20.8 0.4 0
21.2 0.4 0
21.6 0.4 0
22 0.4 0
22.4 0.4 0
22.8 0.4 0
23.2 0.4 0
23.6 0.4 0
24 0.4 0
24.4 0.4 0
24.8 0.4 0
25.2 0.4 0
25.6 0.4 0
26 0.4 0
26.4 0.4 0
26.8 0.4 0
27.2 0.4 0
27.6 0.4 0
28 0.4 0
28.4 0.4 0
28.8 0.4 0
29.2 0.4 0
29.6 0.4 0
30 0.4 0
30.4 0.4 0
30.8 0.4 0
31.2 0.4 0
31.6 0.4 0
32 0.4 0
32.4 0.4 0
32.8 0.4 0
33.2 0.4 0
33.6 0.4 0
34 0.4 0
34.4 0.4 0
34.8 0.4 0
35.2 0.4 0
35.6 0.4 0
36 0.4 0
36.4 0.4 0
36.8 0.4 0
37.2 0.4 0
37.6 0.4 0
38 0.4 0
38.4 0.4 0
38.8 0.4 0
39.2 0.4 0
39.6 0.4 0
40 0.4 0
40.4 0.4 0
0 0.5 0
0.4 0.5 0
0.8 0.5 0
1.2 0.5 0
1.6 0.5 0
2 0.5 0
2.4 0.5 0
2.8 0.5 0
3.2 0.5 0
3.6 0.5 0
4 0.5 0
4.4 0.5 0
4.8 0.5 0
5.2 0.5 0
5.6 0.5 0
6 0.5 0
6.4 0.5 0
6.8 0.5 0
7.2 0.5 0
7.6 0.5 0
8 0.5 0
8.4 0.5 0
8.8 0.5 0
9.2 0.5 0
9.6 0.5 0
10 0.5 0
10.4 0.5 0
10.8 0.5 0
11.2 0.5 0
11.6 0.5 0
12 0.5 0
12.4 0.5 0
12.8 0.5 0
13.2 0.5 0
13.6 0.5 0
14 0.5 0
14.4 0.5 0
14.8 0.5 0
15.2 0.5 0
15.6 0.5 0
16 0.5 0
16.4 0.5 0
16.8 0.5 0
17.2 0.5 0
17.6 0.5 0
18 0.5 0
18.4 0.5 0
18.8 0.5 0
19.2 0.5 0
19.6 0.5 0
20 0.5 0
20.4 0.5 0
20.8 0.5 0
21.2 0.5 0
21.6 0.5 0
22 0.5 0
22.4 0.5 0
22.8 0.5 0
23.2 0.5 0
23.6 0.5 0
24 0.5 0
24.4 0.5 0
24.8 0.5 0
25.2 0.5 0
25.6 0.5 0
26 0.5 0
26.4 0.5 0
26.8 0.5 0
27.2 0.5 0
27.6 0.5 0
28 0.5 0
28.4 0.5 0
28.8 0.5 0
29.2 0.5 0
29.6 0.5 0
30 0.5 0
30.4 0.5 0
30.8 0.5 0
31.2 0.5 0
31.6 0.5 0
32 0.5 0
32.4 0.5 0
32.8 0.5 0
33.2 0.5 0
33.6 0.5 0
34 0.5 0
34.4 0.5 0
34.8 0.5 0
35.2 0.5 0
35.6 0.5 0
36 0.5 0
36.4 0.5 0
36.8 0.5 0
37.2 0.5 0
37.6 0.5 0
38 0.5 0
38.4 0.5 0
38.8 0.5 0
39.2 0.5 0
39.6 0.5 0
40 0.5 0
40.4 0.5 0
0 0.6 0
0.4 0.6 0
0.8 0.6 0
1.2 0.6 0
1.6 0.6 0
2 0.6 0
2.4 0.6 0
2.8 0.6 0
3.2 0.6 0
3.6 0.6 0
4 0.6 0
4.4 0.6 0
4.8 0.6 0
5.2 0.6 0
5.6 0.6 0
6 0.6 0
6.4 0.6 0
6.8 0.6 0
7.2 0.6 0
7.6 0.6 0
8 0.6 0
8.4 0.6 0
8.8 0.6 0
9.2 0.6 0
9.6 0.6 0
10 0.6 0
10.4 0.6 0
10.8 0.6 0
11.2 0.6 0
11.6 0.6 0
12 0.6 0
12.4 0.6 0
12.8 0.6 0
13.2 0.6 0
13.6 0.6 0
14 0.6 0
14.4 0.6 0
14.8 0.6 0
15.2 0.6 0
15.6 0.6 0
16 0.6 0
16.4 0.6 0
16.8 0.6 0
17.2 0.6 0
17.6 0.6 0
18 0.6 0
18.4 0.6 0
18.8 0.6 0
19.2 0.6 0
19.6 0.6 0
20 0.6 0
20.4 0.6 0
20.8 0.6 0
21.2 0.6 0
21.6 0.6 0
22 0.6 0
22.4 0.6 0
22.8 0.6 0
23.2 0.6 0
23.6 0.6 0
24 0.6 0
24.4 0.6 0
24.8 0.6 0
25.2 0.6 0
25.6 0.6 0
26 0.6 0
26.4 0.6 0
26.8 0.6 0
27.2 0.6 0
27.6 0.6 0
28 0.6 0
28.4 0.6 0
28.8 0.6 0
29.2 0.6 0
29.6 0.6 0
30 0.6 0
30.4 0.6 0
30.8 0.6 0
31.2 0.6 0
31.6 0.6 0
32 0.6 0
32.4 0.6 0
32.8 0.6 0
33.2 0.6 0
33.6 0.6 0
34 0.6 0
34.4 0.6 0
34.8 0.6 0
35.2 0.6 0
35.6 0.6 0
36 0.6 0
36.4 0.6 0
36.8 0.6 0
37.2 0.6 0
37.6 0.6 0
38 0.6 0
38.4 0.6 0
38.8 0.6 0
39.2 0.6 0
39.6 0.6 0
40 0.6 0
40.4 0.6 0
0 0.7 0
0.4 0.7 0
0.8 0.7 0
1.2 0.7 0
1.6 0.7 0
2 0.7 0
2.4 0.7 0
2.8 0.7 0
3.2 0.7 0
3.6 0.7 0
4 0.7 0
4.4 0.7 0
4.8 0.7 0
5.2 0.7 0
5.6 0.7 0
6 0.7 0
6.4 0.7 0
6.8 0.7 0
7.2 0.7 0
7.6 0.7 0
8 0.7 0
8.4 0.7 0
8.8 0.7 0
9.2 0.7 0
9.6 0.7 0
10 0.7 0
10.4 0.7 0
10.8 0.7 0
11.2 0.7 0
11.6 0.7 0
12 0.7 0
12.4 0.7 0
12.8 0.7 0
13.2 0.7 0
13.6 0.7 0
14 0.7 0
14.4 0.7 0
14.8 0.7 0
15.2 0.7 0
15.6 0.7 0
16 0.7 0
16.4 0.7 0
16.8 0.7 0
17.2 0.7 0
17.6 0.7 0
18 0.7 0
18.4 0.7 0
18.8 0.7 0
19.2 0.7 0
19.6 0.7 0
20 0.7 0
20.4 0.7 0
20.8 0.7 0
21.2 0.7 0
21.6 0.7 0
22 0.7 0
22.4 0.7 0
22.8 0.7 0
23.2 0.7 0
23.6 0.7 0
24 0.7 0
24.4 0.7 0
24.8 0.7 0
25.2 0.7 0
25.6 0.7 0
26 0.7 0
26.4 0.7 0
26.8 0.7 0
27.2 0.7 0
27.6 0.7 0
28 0.7 0
28.4 0.7 0
28.8 0.7 0
29.2 0.7 0
29.6 0.7 0
30 0.7 0
30.4 0.7 0
30.8 0.7 0
31.2 0.7 0
31.6 0.7 0
32 0.7 0
32.4 0.7 0
32.8 0.7 0
33.2 0.7 0
33.6 0.7 0
34 0.7 0
34.4 0.7 0
34.8 0.7 0
35.2 0.7 0
35.6 0.7 0
36 0.7 0
36.4 0.7 0
36.8 0.7 0
37.2 0.7 0
37.6 0.7 0
38 0.7 0
38.4 0.7 0
38.8 0.7 0
39.2 0.7 0
39.6 0.7 0
40 0.7 0
40.4 0.7 0
0 0.8 0
0.4 0.8 0
0.8 0.8 0
1.2 0.8 0
1.6 0.8 0
2 0.8 0
2.4 0.8 0
2.8 0.8 0
3.2 0.8 0
3.6 0.8 0
4 0.8 0
4.4 0.8 0
4.8 0.8 0
5.2 0.8 0
5.6 0.8 0
6 0.8 0
6.4 0.8 0
6.8 0.8 0
7.2 0.8 0
7.6 0.8 0
8 0.8 0
8.4 0.8 0
8.8 0.8 0
9.2 0.8 0
9.6 0.8 0
10 0.8 0
10.4 0.8 0
10.8 0.8 0
11.2 0.8 0
11.6 0.8 0
12 0.8 0
12.4 0.8 0
12.8 0.8 0
13.2 0.8 0
13.6 0.8 0
14 0.8 0
14.4 0.8 0
14.8 0.8 0
15.2 0.8 0
15.6 0.8 0
16 0.8 0
16.4 0.8 0
16.8 0.8 0
17.2 0.8 0
17.6 0.8 0
18 0.8 0
18.4 0.8 0
18.8 0.8 0
19.2 0.8 0
19.6 0.8 0
20 0.8 0
20.4 0.8 0
20.8 0.8 0
21.2 0.8 0
21.6 0.8 0
22 0.8 0
22.4 0.8 0
22.8 0.8 0
23.2 0.8 0
23.6 0.8 0
24 0.8 0
24.4 0.8 0
24.8 0.8 0
25.2 0.8 0
25.6 0.8 0
26 0.8 0
26.4 0.8 0
26.8 0.8 0
27.2 0.8 0
27.6 0.8 0
28 0.8 0
28.4 0.8 0
28.8 0.8 0
29.2 0.8 0
29.6 0.8 0
30 0.8 0
30.4 0.8 0
30.8 0.8 0
31.2 0.8 0
31.6 0.8 0
32 0.8 0
32.4 0.8 0
32.8 0.8 0
33.2 0.8 0
33.6 0.8 0
34 0.8 0
34.4 0.8 0
34.8 0.8 0
35.2 0.8 0
35.6 0.8 0
36 0.8 0
36.4 0.8 0
36.8 0.8 0
37.2 0.8 0
37.6 0.8 0
38 0.8 0
38.4 0.8 0
38.8 0.8 0
39.2 0.8 0
39.6 0.8 0
40 0.8 0
40.4 0.8 0
0 0.9 0
0.4 0.9 0
0.8 0.9 0
1.2 0.9 0
1.6 0.9 0
2 0.9 0
2.4 0.9 0
2.8 0.9 0
3.2 0.9 0
3.6 0.9 0
4 0.9 0
4.4 0.9 0
4.8 0.9 0
5.2 0.9 0
5.6 0.9 0
6 0.9 0
6.4 0.9 0
6.8 0.9 0
7.2 0.9 0
7.6 0.9 0
8 0.9 0
8.4 0.9 0
8.8 0.9 0
9.2 0.9 0
9.6 0.9 0
10 0.9 0
10.4 0.9 0
10.8 0.9 0
11.2 0.9 0
11.6 0.9 0
12 0.9 0
12.4 0.9 0
12.8 0.9 0
13.2 0.9 0
13.6 0.9 0
14 0.9 0
14.4 0.9 0
14.8 0.9 0
15.2 0.9 0
15.6 0.9 0
16 0.9 0
16.4 0.9 0
16.8 0.9 0
17.2 0.9 0
17.6 0.9 0
18 0.9 0
18.4 0.9 0
18.8 0.9 0
19.2 0.9 0
19.6 0.9 0
20 0.9 0
20.4 0.9 0
20.8 0.9 0
21.2 0.9 0
21.6 0.9 0
22 0.9 0
22.4 0.9 0
22.8 0.9 0
23.2 0.9 0
23.6 0.9 0
24 0.9 0
24.4 0.9 0
24.8 0.9 0
25.2 0.9 0
25.6 0.9 0
26 0.9 0
26.4 0.9 0
26.8 0.9 0
27.2 0.9 0
27.6 0.9 0
28 0.9 0
28.4 0.9 0
28.8 0.9 0
29.2 0.9 0
29.6 0.9 0
30 0.9 0
30.4 0.9 0
30.8 0.9 0
31.2 0.9 0
31.6 0.9 0
32 0.9 0
32.4 0.9 0
32.8 0.9 0
33.2 0.9 0
33.6 0.9 0
34 0.9 0
34.4 0.9 0
34.8 0.9 0
35.2 0.9 0
35.6 0.9 0
36 0.9 0
36.4 0.9 0
36.8 0.9 0
37.2 0.9 0
37.6 0.9 0
38 0.9 0
38.4 0.9 0
38.8 0.9 0
39.2 0.9 0
39.6 0.9 0
40 0.9 0
40.4 0.9 0
0 1 0
0.4 1 0
0.8 1 0
1.2 1 0
1.6 1 0
2 1 0
2.4 1 0
2.8 1 0
3.2 1 0
3.6 1 0
4 1 0
4.4 1 0
4.8 1 0
5.2 1 0
5.6 1 0
6 1 0
6.4 1 0
6.8 1 0
7.2 1 0
7.6 1 0
8 1 0
8.4 1 0
8.8 1 0
9.2 1 0
9.6 1 0
10 1 0
10.4 1 0
10.8 1 0
11.2 1 0
11.6 1 0
12 1 0
12.4 1 0
12.8 1 0
13.2 1 0
13.6 1 0
14 1 0
14.4 1 0
14.8 1 0
15.2 1 0
15.6 1 0
16 1 0
16.4 1 0
16.8 1 0
17.2 1 0
17.6 1 0
18 1 0
18.4 1 0
18.8 1 0
19.2 1 0
19.6 1 0
20 1 0
20.4 1 0
20.8 1 0
21.2 1 0
21.6 1 0
22 1 0
22.4 1 0
22.8 1 0
23.2 1 0
23.6 1 0
24 1 0
24.4 1 0
24.8 1 0
25.2 1 0
25.6 1 0
26 1 0
26.4 1 0
26.8 1 0
27.2 1 0
27.6 1 0
28 1 0
28.4 1 0
28.8 1 0
29.2 1 0
29.6 1 0
30 1 0
30.4 1 0
30.8 1 0
31.2 1 0
31.6 1 0
32 1 0
32.4 1 0
32.8 1 0
33.2 1 0
33.6 1 0
34 1 0
34.4 1 0
34.8 1 0
35.2 1 0
35.6 1 0
36 1 0
36.4 1 0
36.8 1 0
37.2 1 0
37.6 1 0
38 1 0
38.4 1 0
38.8 1 0
39.2 1 0
39.6 1 0
40 1 0
40.4 1 0
0 1.1 0
0.4 1.1 0
0.8 1.1 0
1.2 1.1 0
1.6 1.1 0
2 1.1 0
2.4 1.1 0
2.8 1.1 0
3.2 1.1 0
3.6 1.1 0
4 1.1 0
4.4 1.1 0
4.8 1.1 0
5.2 1.1 0
5.6 1.1 0
6 1.1 0
6.4 1.1 0
6.8 1.1 0
7.2 1.1 0
7.6 1.1 0
8 1.1 0
8.4 1.1 0
8.8 1.1 0
9.2 1.1 0
9.6 1.1 0
10 1.1 0
10.4 1.1 0
10.8 1.1 0
11.2 1.1 0
11.6 1.1 0
12 1.1 0
12.4 1.1 0
12.8 1.1 0
13.2 1.1 0
13.6 1.1 0
14 1.1 0
14.4 1.1 0
14.8 1.1 0
15.2 1.1 0
15.6 1.1 0
16 1.1 0
16.4 1.1 0
16.8 1.1 0
17.2 1.1 0
17.6 1.1 0
18 1.1 0
18.4 1.1 0
18.8 1.1 0
19.2 1.1 0
19.6 1.1 0
20 1.1 0
20.4 1.1 0
20.8 1.1 0
21.2 1.1 0
21.6 1.1 0
22 1.1 0
22.4 1.1 0
22.8 1.1 0
23.2 1.1 0
23.6 1.1 0
24 1.1 0
24.4 1.1 0
24.8 1.1 0
25.2 1.1 0
25.6 1.1 0
26 1.1 0
26.4 1.1 0
26.8 1.1 0
27.2 1.1 0
27.6 1.1 0
28 1.1 0
28.4 1.1 0
28.8 1.1 0
29.2 1.1 0
29.6 1.1 0
30 1.1 0
30.4 1.1 0
30.8 1.1 0
31.2 1.1 0
31.6 1.1 0
32 1.1 0
32.4 1.1 0
32.8 1.1 0
33.2 1.1 0
33.6 1.1 0
34 1.1 0
34.4 1.1 0
34.8 1.1 0
35.2 1.1 0
35.6 1.1 0
36 1.1 0
36.4 1.1 0
36.8 1.1 0
37.2 1.1 0
37.6 1.1 0
38 1.1 0
38.4 1.1 0
38.8 1.1 0
39.2 1.1 0
39.6 1.1 0
40 1.1 0
40.4 1.1 0

POINT_DATA 1224

SCALARS v double
LOOKUP_TABLE default
0
0
0
0
0
0
0
0
0
0
0
0
0
0
0
0
0
0
0
0
0
0
0
0
0
0
0
0
0
0
0
0
0
0
0
0
0
0
0
0
0
0
0
0
0
0
0
0
0
0
0
0
0
0
0
0
0
0
0
0
0
0
0
0
0
0
0
0
0
0
0
0
0
0
0
0
0
0
0
0
0
0
0
0
0
0
0
0
0
0
0
0
0
0
0
0
0
0
0
0
0
0
-0.00751344
0.00751344
0.0146552
0.0162812
0.0149618
0.0125487
0.0100747
0.0079588
0.00628243
0.00499021
0.00399567
0.00322206
0.00261164
0.00212353
0.00172905
0.00140773
0.00114463
0.000928459
0.000750535
0.000604012
0.000483416
0.00038431
0.000303062
0.00023667
0.000182641
0.00013889
0.000103669
7.55097e-05
5.31769e-05
3.56321e-05
2.20054e-05
1.15542e-05
3.68744e-06
-2.31657e-06
-6.668e-06
-9.65086e-06
-1.15443e-05
-1.25925e-05
-1.29998e-05
-1.29328e-05
-1.25257e-05
-1.18849e-05
-1.10936e-05
-1.0216e-05
-9.30076e-06
-8.38382e-06
-7.49116e-06
-6.64074e-06
-5.84432e-06
-5.10885e-06
-4.43763e-06
-3.83126e-06
-3.28836e-06
-2.8062e-06
-2.38112e-06
-2.00891e-06
-1.68508e-06
-1.40506e-06
-1.16434e-06
-9.58603e-07
-7.8376e-07
-6.36016e-07
-5.11891e-07
-4.08222e-07
-3.22167e-07
-2.51192e-07
-1.93052e-07
-1.45777e-07
-1.07644e-07
-7.71605e-08
-5.30383e-08
-3.41734e-08
-1.96274e-08
-8.60108e-09
-5.30451e-10
5.13685e-09
9.04213e-09
1.16041e-08
1.31388e-08
1.3894e-08
1.40661e-08
1.38122e-08
1.32517e-08
1.24943e-08
1.15614e-08
1.06651e-08
9.15372e-09
8.91043e-09
1.14584e-09
7.24835e-09
-8.60538e-08
-1.012e-08
-1.25945e-06
-4.78798e-07
-1.73473e-05
-1.02465e-05
-0.000240812
-0.00016871
-0.00349307
-0.00153827
-0.0477942
-0.0477942
-0.00621567
0.00621567
0.0142999
0.0183624
0.0194157
0.0185586
0.0167091
0.0144992
0.0122985
0.0102885
0.00853603
0.00704673
0.00579864
0.00476022
0.00389924
0.00318648
0.00259682
0.00210924
0.00170635
0.00137381
0.00109978
0.000874466
0.000689742
0.000538828
0.000416056
0.000316675
0.000236696
0.000172766
0.000122068
8.22332e-05
5.12831e-05
2.75376e-05
9.65196e-06
-3.7708e-06
-1.35601e-05
-2.03692e-05
-2.47869e-05
-2.73273e-05
-2.84265e-05
-2.84467e-05
-2.76831e-05
-2.63726e-05
-2.47025e-05
-2.28185e-05
-2.08316e-05
-1.88253e-05
-1.68601e-05
-1.49786e-05
-1.32092e-05
-1.15695e-05
-1.00683e-05
-8.7084e-06
-7.48776e-06
-6.40114e-06
-5.44109e-06
-4.59872e-06
-3.86442e-06
-3.22826e-06
-2.6804e-06
-2.2113e-06
-1.81194e-06
-1.47386e-06
-1.18931e-06
-9.51204e-07
-7.53167e-07
-5.89492e-07
-4.5512e-07
-3.45594e-07
-2.57016e-07
-1.85996e-07
-1.29607e-07
-8.53349e-08
-5.10264e-08
-2.48869e-08
-5.35809e-09
8.57465e-09
1.82475e-08
2.46607e-08
2.85906e-08
3.06447e-08
3.12996e-08
3.09327e-08
2.98321e-08
2.82505e-08
2.6276e-08
2.43273e-08
2.13375e-08
2.08913e-08
8.0314e-09
2.59605e-08
-1.19496e-07
1.24951e-07
-1.8158e-06
1.2504e-06
-2.50793e-05
1.34168e-05
-0.000347831
0.000140673
-0.00482119
0.00085742
-0.061277
-0.061277
-0.00401801
0.00401801
0.00987185
0.0135457
0.0153924
0.0158461
0.0153379
0.0142366
0.0128244
0.0112996
0.00979083
0.00837399
0.00708836
0.00594912
0.00495668
0.00410299
0.00337575
0.002761
0.00224467
0.00181342
0.00145505
0.00115869
0.000914798
0.000715082
0.000552402
0.000420646
0.000314605
0.000229864
0.000162688
0.000109931
6.89543e-05
3.7535e-05
1.38515e-05
-3.7642e-06
-1.65541e-05
-2.54692e-05
-3.13065e-05
-3.47338e-05
-3.63066e-05
-3.64825e-05
-3.56344e-05
-3.40628e-05
-3.20066e-05
-2.96533e-05
-2.71474e-05
-2.45982e-05
-2.20864e-05
-1.96695e-05
-1.73869e-05
-1.52632e-05
-1.33122e-05
-1.15391e-05
-9.94299e-06
-8.51821e-06
-7.25611e-06
-6.14602e-06
-5.17606e-06
-4.33382e-06
-3.60688e-06
-2.98308e-06
-2.45086e-06
-1.99932e-06
-1.61843e-06
-1.29899e-06
-1.03267e-06
-8.12009e-07
-6.30375e-07
-4.81903e-07
-3.61452e-07
-2.64542e-07
-1.87293e-07
-1.26366e-07
-7.88963e-08
-4.24793e-08
-1.50192e-08
5.04524e-09
1.92169e-08
2.88062e-08
3.48708e-08
3.82567e-08
3.96369e-08
3.95461e-08
3.8398e-08
3.65402e-08
3.41425e-08
3.16814e-08
2.81211e-08
2.74693e-08
1.34474e-08
3.88404e-08
-1.19592e-07
2.51951e-07
-1.89133e-06
3.03717e-06
-2.59292e-05
3.68611e-05
-0.000345135
0.000398293
-0.0043912
0.00284663
-0.0516343
-0.0516343
-0.00195405
0.00195405
0.00490746
0.00691943
0.00813032
0.00869008
0.00874623
0.00843553
0.00787796
0.00717309
0.00639889
0.0056127
0.0048539
0.00414726
0.00350641
0.00293694
0.00243901
0.0020093
0.00164248
0.00133225
0.001072
0.000855281
0.000676041
0.000528772
0.000408557
0.000311079
0.000232592
0.000169874
0.000120179
8.11796e-05
5.09135e-05
2.77361e-05
1.02727e-05
-2.65188e-06
-1.19809e-05
-1.84611e-05
-2.2701e-05
-2.5198e-05
-2.63584e-05
-2.65125e-05
-2.59275e-05
-2.4818e-05
-2.33546e-05
-2.16712e-05
-1.98717e-05
-1.80351e-05
-1.622e-05
-1.44687e-05
-1.28103e-05
-1.12638e-05
-9.83979e-06
-8.54286e-06
-7.37292e-06
-6.32655e-06
-5.39791e-06
-4.57964e-06
-3.8634e-06
-3.24042e-06
-2.70182e-06
-2.23887e-06
-1.84322e-06
-1.507e-06
-1.2229e-06
-9.8421e-07
-7.84854e-07
-6.19363e-07
-4.82862e-07
-3.7104e-07
-2.80106e-07
-2.06752e-07
-1.48107e-07
-1.01696e-07
-6.53953e-08
-3.73986e-08
-1.61865e-08
-4.76554e-10
1.07811e-08
1.85274e-08
2.3543e-08
2.64658e-08
2.78112e-08
2.7993e-08
2.73343e-08
2.61063e-08
2.44467e-08
2.27259e-08
2.01633e-08
1.99551e-08
9.54839e-09
3.1775e-08
-8.55035e-08
2.32081e-07
-1.31774e-06
2.77363e-06
-1.73782e-05
3.22962e-05
-0.00021892
0.000330259
-0.00260555
0.00238736
-0.0290026
-0.0290026
-1.40307e-10
1.37503e-10
5.36109e-10
9.91339e-10
1.45344e-09
1.87994e-09
2.23656e-09
2.49903e-09
2.65415e-09
2.69925e-09
2.64051e-09
2.49068e-09
2.26708e-09
1.98995e-09
1.68135e-09
1.36421e-09
1.06133e-09
7.94182e-10
5.81422e-10
4.3728e-10
3.70064e-10
3.81098e-10
4.64355e-10
6.0696e-10
7.90567e-10
9.93422e-10
1.19285e-09
1.36769e-09
1.50067e-09
1.57928e-09
1.59865e-09
1.55562e-09
1.46429e-09
1.31568e-09
1.12942e-09
9.18722e-10
6.98183e-10
4.82154e-10
2.83665e-10
1.1364e-10
-1.96738e-11
-1.11092e-10
-1.58691e-10
-1.63822e-10
-1.30934e-10
-6.72108e-11
1.80096e-11
1.13977e-10
2.09416e-10
2.93476e-10
3.56646e-10
3.91546e-10
3.93494e-10
3.6079e-10
2.94689e-10
1.99077e-10
7.99113e-11
-5.55057e-11
-1.9931e-10
-3.4383e-10
-4.82231e-10
-6.08986e-10
-7.20156e-10
-8.13472e-10
-8.88241e-10
-9.45127e-10
-9.85831e-10
-1.01276e-09
-1.02862e-09
-1.03623e-09
-1.038e-09
-1.03609e-09
-1.03209e-09
-1.02517e-09
-1.02277e-09
-1.03193e-09
-1.04555e-09
-1.06267e-09
-1.08194e-09
-1.1018e-09
-1.12075e-09
-1.13747e-09
-1.15097e-09
-1.16061e-09
-1.16657e-09
-1.16848e-09
-1.16981e-09
-1.165e-09
-1.17439e-09
-1.15774e-09
-1.15626e-09
-1.13553e-09
-1.12806e-09
-1.10674e-09
-1.10035e-09
-1.07598e-09
-1.0661e-09
-1.00117e-09
-9.83324e-10
-7.25493e-10
-6.21228e-10
-6.41938e-10
0.00195405
-0.00195405
-0.00490745
-0.00691943
-0.00813032
-0.00869008
-0.00874622
-0.00843552
-0.00787795
-0.00717309
-0.00639888
-0.00561269
-0.0048539
-0.00414726
-0.0035064
-0.00293694
-0.00243901
-0.0020093
-0.00164248
-0.00133225
-0.001072
-0.00085528
-0.00067604
-0.000528771
-0.000408555
-0.000311077
-0.000232589
-0.000169871
-0.000120176
-8.11766e-05
-5.09104e-05
-2.77332e-05
-1.02699e-05
2.65435e-06
1.1983e-05
1.84628e-05
2.27023e-05
2.51989e-05
2.63589e-05
2.65127e-05
2.59275e-05
2.48179e-05
2.33543e-05
2.1671e-05
1.98715e-05
1.8035e-05
1.62201e-05
1.44689e-05
1.28108e-05
1.12644e-05
9.84044e-06
8.54355e-06
7.3736e-06
6.32714e-06
5.39836e-06
4.5799e-06
3.86343e-06
3.24019e-06
2.70131e-06
2.2381e-06
1.84219e-06
1.50574e-06
1.22144e-06
9.82578e-07
7.83087e-07
6.17493e-07
4.80919e-07
3.69048e-07
2.78084e-07
2.04714e-07
1.46063e-07
9.96523e-08
6.33541e-08
3.53707e-08
1.41541e-08
-1.56618e-09
-1.28464e-08
-2.06253e-08
-2.56795e-08
-2.8643e-08
-3.00276e-08
-3.02439e-08
-2.96132e-08
-2.84054e-08
-2.67584e-08
-2.50431e-08
-2.24828e-08
-2.22712e-08
-1.18734e-08
-3.40946e-08
8.32007e-08
-2.34366e-07
1.31549e-06
-2.77586e-06
1.7376e-05
-3.22984e-05
0.000218918
-0.000330261
0.00260555
-0.00238736
0.0290026
0.0290026
0.00401801
-0.00401801
-0.00987185
-0.0135457
-0.0153924
-0.0158461
-0.0153379
-0.0142366
-0.0128244
-0.0112996
-0.00979083
-0.00837399
-0.00708835
-0.00594912
-0.00495668
-0.00410299
-0.00337575
-0.002761
-0.00224467
-0.00181341
-0.00145505
-0.00115869
-0.000914797
-0.000715081
-0.0005524
-0.000420643
-0.000314603
-0.000229862
-0.000162686
-0.000109929
-6.89516e-05
-3.75324e-05
-1.38492e-05
3.76627e-06
1.65559e-05
2.54707e-05
3.13076e-05
3.47346e-05
3.63071e-05
3.64828e-05
3.56345e-05
3.40628e-05
3.20065e-05
2.96532e-05
2.71474e-05
2.45983e-05
2.20866e-05
1.96698e-05
1.73872e-05
1.52636e-05
1.33126e-05
1.15396e-05
9.94336e-06
8.51846e-06
7.25622e-06
6.14594e-06
5.17577e-06
4.33331e-06
3.60615e-06
2.98214e-06
2.44971e-06
1.998e-06
1.61696e-06
1.29738e-06
1.03096e-06
8.10226e-07
6.28534e-07
4.80021e-07
3.59541e-07
2.62612e-07
1.8535e-07
1.24415e-07
7.69365e-08
4.05245e-08
1.30535e-08
-7.00819e-09
-2.11974e-08
-3.08192e-08
-3.69242e-08
-4.03525e-08
-4.17728e-08
-4.17164e-08
-4.05957e-08
-3.87576e-08
-3.63724e-08
-3.39184e-08
-3.03605e-08
-2.97148e-08
-1.56886e-08
-4.11236e-08
1.1734e-07
-2.54217e-07
1.88911e-06
-3.0394e-06
2.5927e-05
-3.68633e-05
0.000345133
-0.000398295
0.00439119
-0.00284663
0.0516343
0.0516343
0.00621567
-0.00621567
-0.0142999
-0.0183624
-0.0194157
-0.0185586
-0.0167091
-0.0144992
-0.0122985
-0.0102885
-0.00853603
-0.00704673
-0.00579863
-0.00476022
-0.00389924
-0.00318648
-0.00259682
-0.00210924
-0.00170635
-0.00137381
-0.00109978
-0.000874465
-0.00068974
-0.000538826
-0.000416054
-0.000316673
-0.000236694
-0.000172764
-0.000122065
-8.2231e-05
-5.12811e-05
-2.75357e-05
-9.65024e-06
3.77236e-06
1.35614e-05
2.03704e-05
2.47878e-05
2.7328e-05
2.8427e-05
2.8447e-05
2.76833e-05
2.63728e-05
2.47026e-05
2.28186e-05
2.08317e-05
1.88254e-05
1.68602e-05
1.49787e-05
1.32094e-05
1.15697e-05
1.00685e-05
8.70847e-06
7.48773e-06
6.401e-06
5.44081e-06
4.5983e-06
3.86384e-06
3.22753e-06
2.67951e-06
2.21028e-06
1.81078e-06
1.47259e-06
1.18794e-06
9.49751e-07
7.51646e-07
5.87916e-07
4.535e-07
3.43939e-07
2.55332e-07
1.84289e-07
1.2788e-07
8.35898e-08
4.92706e-08
2.31056e-08
3.62493e-09
-1.03137e-08
-2.00158e-08
-2.64694e-08
-3.04419e-08
-3.25357e-08
-3.32248e-08
-3.28853e-08
-3.18053e-08
-3.02382e-08
-2.82729e-08
-2.63304e-08
-2.33422e-08
-2.29081e-08
-1.00308e-08
-2.80536e-08
1.17435e-07
-1.27017e-07
1.81373e-06
-1.25244e-06
2.50772e-05
-1.34188e-05
0.000347829
-0.000140674
0.00482119
-0.000857421
0.061277
0.061277
0.00751344
-0.00751344
-0.0146552
-0.0162812
-0.0149618
-0.0125487
-0.0100747
-0.0079588
-0.00628243
-0.00499021
-0.00399567
-0.00322205
-0.00261164
-0.00212353
-0.00172905
-0.00140773
-0.00114463
-0.000928457
-0.000750533
-0.00060401
-0.000483414
-0.000384309
-0.00030306
-0.000236669
-0.00018264
-0.000138889
-0.000103668
-7.55082e-05
-5.31755e-05
-3.56308e-05
-2.20042e-05
-1.15531e-05
-3.68643e-06
2.31752e-06
6.66882e-06
9.65156e-06
1.15449e-05
1.2593e-05
1.30001e-05
1.2933e-05
1.25259e-05
1.1885e-05
1.10937e-05
1.02161e-05
9.30081e-06
8.38386e-06
7.49117e-06
6.64073e-06
5.84428e-06
5.10877e-06
4.4375e-06
3.83106e-06
3.2881e-06
2.80586e-06
2.3807e-06
2.00841e-06
1.68449e-06
1.40439e-06
1.1636e-06
9.57785e-07
7.82876e-07
6.35074e-07
5.10898e-07
4.07185e-07
3.21093e-07
2.50085e-07
1.91917e-07
1.44617e-07
1.06463e-07
7.59599e-08
5.18205e-08
3.29397e-08
1.83839e-08
7.33318e-09
-6.65999e-10
-6.34781e-09
-1.02875e-08
-1.2884e-08
-1.44478e-08
-1.5226e-08
-1.54156e-08
-1.51744e-08
-1.46227e-08
-1.3871e-08
-1.29412e-08
-1.20467e-08
-1.0535e-08
-1.02984e-08
-2.51861e-09
-8.71229e-09
8.45639e-08
8.68888e-09
1.25803e-06
4.77414e-07
1.73459e-05
1.02451e-05
0.00024081
0.000168709
0.00349307
0.00153827
0.0477942
0.0477942
0
0
0
0
0
0
0
0
0
0
0
0
0
0
0
0
0
0
0
0
0
0
0
0
0
0
0
0
0
0
0
0
0
0
0
0
0
0
0
0
0
0
0
0
0
0
0
0
0
0
0
0
0
0
0
0
0
0
0
0
0
0
0
0
0
0
0
0
0
0
0
0
0
0
0
0
0
0
0
0
0
0
0
0
0
0
0
0
0
0
0
0
0
0
0
0
0
0
0
0
0
0
0
0
0
0
0
0
0
0
0
0
0
0
0
0
0
0
0
0
0
0
0
0
0
0
0
0
0
0
0
0
0
0
0
0
0
0
0
0
0
0
0
0
0
0
0
0
0
0
0
0
0
0
0
0
0
0
0
0
0
0
0
0
0
0
0
0
0
0
0
0
0
0
0
0
0
0
0
0
0
0
0
0
0
0
0
0
0
0
0
0
0
0
0
0
0
0
0
0
0
0
0
0
