# vtk DataFile Version 2.0
FlowField
ASCII
DATASET STRUCTURED_GRID
DIMENSIONS 101 11 1 
POINTS 1111 double
0 0 0
0.3 0 0
0.6 0 0
0.9 0 0
1.2 0 0
1.5 0 0
1.8 0 0
2.1 0 0
2.4 0 0
2.7 0 0
3 0 0
3.3 0 0
3.6 0 0
3.9 0 0
4.2 0 0
4.5 0 0
4.8 0 0
5.1 0 0
5.4 0 0
5.7 0 0
6 0 0
6.3 0 0
6.6 0 0
6.9 0 0
7.2 0 0
7.5 0 0
7.8 0 0
8.1 0 0
8.4 0 0
8.7 0 0
9 0 0
9.3 0 0
9.6 0 0
9.9 0 0
10.2 0 0
10.5 0 0
10.8 0 0
11.1 0 0
11.4 0 0
11.7 0 0
12 0 0
12.3 0 0
12.6 0 0
12.9 0 0
13.2 0 0
13.5 0 0
13.8 0 0
14.1 0 0
14.4 0 0
14.7 0 0
15 0 0
15.3 0 0
15.6 0 0
15.9 0 0
16.2 0 0
16.5 0 0
16.8 0 0
17.1 0 0
17.4 0 0
17.7 0 0
18 0 0
18.3 0 0
18.6 0 0
18.9 0 0
19.2 0 0
19.5 0 0
19.8 0 0
20.1 0 0
20.4 0 0
20.7 0 0
21 0 0
21.3 0 0
21.6 0 0
21.9 0 0
22.2 0 0
22.5 0 0
22.8 0 0
23.1 0 0
23.4 0 0
23.7 0 0
24 0 0
24.3 0 0
24.6 0 0
24.9 0 0
25.2 0 0
25.5 0 0
25.8 0 0
26.1 0 0
26.4 0 0
26.7 0 0
27 0 0
27.3 0 0
27.6 0 0
27.9 0 0
28.2 0 0
28.5 0 0
28.8 0 0
29.1 0 0
29.4 0 0
29.7 0 0
30 0 0
0 0.1 0
0.3 0.1 0
0.6 0.1 0
0.9 0.1 0
1.2 0.1 0
1.5 0.1 0
1.8 0.1 0
2.1 0.1 0
2.4 0.1 0
2.7 0.1 0
3 0.1 0
3.3 0.1 0
3.6 0.1 0
3.9 0.1 0
4.2 0.1 0
4.5 0.1 0
4.8 0.1 0
5.1 0.1 0
5.4 0.1 0
5.7 0.1 0
6 0.1 0
6.3 0.1 0
6.6 0.1 0
6.9 0.1 0
7.2 0.1 0
7.5 0.1 0
7.8 0.1 0
8.1 0.1 0
8.4 0.1 0
8.7 0.1 0
9 0.1 0
9.3 0.1 0
9.6 0.1 0
9.9 0.1 0
10.2 0.1 0
10.5 0.1 0
10.8 0.1 0
11.1 0.1 0
11.4 0.1 0
11.7 0.1 0
12 0.1 0
12.3 0.1 0
12.6 0.1 0
12.9 0.1 0
13.2 0.1 0
13.5 0.1 0
13.8 0.1 0
14.1 0.1 0
14.4 0.1 0
14.7 0.1 0
15 0.1 0
15.3 0.1 0
15.6 0.1 0
15.9 0.1 0
16.2 0.1 0
16.5 0.1 0
16.8 0.1 0
17.1 0.1 0
17.4 0.1 0
17.7 0.1 0
18 0.1 0
18.3 0.1 0
18.6 0.1 0
18.9 0.1 0
19.2 0.1 0
19.5 0.1 0
19.8 0.1 0
20.1 0.1 0
20.4 0.1 0
20.7 0.1 0
21 0.1 0
21.3 0.1 0
21.6 0.1 0
21.9 0.1 0
22.2 0.1 0
22.5 0.1 0
22.8 0.1 0
23.1 0.1 0
23.4 0.1 0
23.7 0.1 0
24 0.1 0
24.3 0.1 0
24.6 0.1 0
24.9 0.1 0
25.2 0.1 0
25.5 0.1 0
25.8 0.1 0
26.1 0.1 0
26.4 0.1 0
26.7 0.1 0
27 0.1 0
27.3 0.1 0
27.6 0.1 0
27.9 0.1 0
28.2 0.1 0
28.5 0.1 0
28.8 0.1 0
29.1 0.1 0
29.4 0.1 0
29.7 0.1 0
30 0.1 0
0 0.2 0
0.3 0.2 0
0.6 0.2 0
0.9 0.2 0
1.2 0.2 0
1.5 0.2 0
1.8 0.2 0
2.1 0.2 0
2.4 0.2 0
2.7 0.2 0
3 0.2 0
3.3 0.2 0
3.6 0.2 0
3.9 0.2 0
4.2 0.2 0
4.5 0.2 0
4.8 0.2 0
5.1 0.2 0
5.4 0.2 0
5.7 0.2 0
6 0.2 0
6.3 0.2 0
6.6 0.2 0
6.9 0.2 0
7.2 0.2 0
7.5 0.2 0
7.8 0.2 0
8.1 0.2 0
8.4 0.2 0
8.7 0.2 0
9 0.2 0
9.3 0.2 0
9.6 0.2 0
9.9 0.2 0
10.2 0.2 0
10.5 0.2 0
10.8 0.2 0
11.1 0.2 0
11.4 0.2 0
11.7 0.2 0
12 0.2 0
12.3 0.2 0
12.6 0.2 0
12.9 0.2 0
13.2 0.2 0
13.5 0.2 0
13.8 0.2 0
14.1 0.2 0
14.4 0.2 0
14.7 0.2 0
15 0.2 0
15.3 0.2 0
15.6 0.2 0
15.9 0.2 0
16.2 0.2 0
16.5 0.2 0
16.8 0.2 0
17.1 0.2 0
17.4 0.2 0
17.7 0.2 0
18 0.2 0
18.3 0.2 0
18.6 0.2 0
18.9 0.2 0
19.2 0.2 0
19.5 0.2 0
19.8 0.2 0
20.1 0.2 0
20.4 0.2 0
20.7 0.2 0
21 0.2 0
21.3 0.2 0
21.6 0.2 0
21.9 0.2 0
22.2 0.2 0
22.5 0.2 0
22.8 0.2 0
23.1 0.2 0
23.4 0.2 0
23.7 0.2 0
24 0.2 0
24.3 0.2 0
24.6 0.2 0
24.9 0.2 0
25.2 0.2 0
25.5 0.2 0
25.8 0.2 0
26.1 0.2 0
26.4 0.2 0
26.7 0.2 0
27 0.2 0
27.3 0.2 0
27.6 0.2 0
27.9 0.2 0
28.2 0.2 0
28.5 0.2 0
28.8 0.2 0
29.1 0.2 0
29.4 0.2 0
29.7 0.2 0
30 0.2 0
0 0.3 0
0.3 0.3 0
0.6 0.3 0
0.9 0.3 0
1.2 0.3 0
1.5 0.3 0
1.8 0.3 0
2.1 0.3 0
2.4 0.3 0
2.7 0.3 0
3 0.3 0
3.3 0.3 0
3.6 0.3 0
3.9 0.3 0
4.2 0.3 0
4.5 0.3 0
4.8 0.3 0
5.1 0.3 0
5.4 0.3 0
5.7 0.3 0
6 0.3 0
6.3 0.3 0
6.6 0.3 0
6.9 0.3 0
7.2 0.3 0
7.5 0.3 0
7.8 0.3 0
8.1 0.3 0
8.4 0.3 0
8.7 0.3 0
9 0.3 0
9.3 0.3 0
9.6 0.3 0
9.9 0.3 0
10.2 0.3 0
10.5 0.3 0
10.8 0.3 0
11.1 0.3 0
11.4 0.3 0
11.7 0.3 0
12 0.3 0
12.3 0.3 0
12.6 0.3 0
12.9 0.3 0
13.2 0.3 0
13.5 0.3 0
13.8 0.3 0
14.1 0.3 0
14.4 0.3 0
14.7 0.3 0
15 0.3 0
15.3 0.3 0
15.6 0.3 0
15.9 0.3 0
16.2 0.3 0
16.5 0.3 0
16.8 0.3 0
17.1 0.3 0
17.4 0.3 0
17.7 0.3 0
18 0.3 0
18.3 0.3 0
18.6 0.3 0
18.9 0.3 0
19.2 0.3 0
19.5 0.3 0
19.8 0.3 0
20.1 0.3 0
20.4 0.3 0
20.7 0.3 0
21 0.3 0
21.3 0.3 0
21.6 0.3 0
21.9 0.3 0
22.2 0.3 0
22.5 0.3 0
22.8 0.3 0
23.1 0.3 0
23.4 0.3 0
23.7 0.3 0
24 0.3 0
24.3 0.3 0
24.6 0.3 0
24.9 0.3 0
25.2 0.3 0
25.5 0.3 0
25.8 0.3 0
26.1 0.3 0
26.4 0.3 0
26.7 0.3 0
27 0.3 0
27.3 0.3 0
27.6 0.3 0
27.9 0.3 0
28.2 0.3 0
28.5 0.3 0
28.8 0.3 0
29.1 0.3 0
29.4 0.3 0
29.7 0.3 0
30 0.3 0
0 0.4 0
0.3 0.4 0
0.6 0.4 0
0.9 0.4 0
1.2 0.4 0
1.5 0.4 0
1.8 0.4 0
2.1 0.4 0
2.4 0.4 0
2.7 0.4 0
3 0.4 0
3.3 0.4 0
3.6 0.4 0
3.9 0.4 0
4.2 0.4 0
4.5 0.4 0
4.8 0.4 0
5.1 0.4 0
5.4 0.4 0
5.7 0.4 0
6 0.4 0
6.3 0.4 0
6.6 0.4 0
6.9 0.4 0
7.2 0.4 0
7.5 0.4 0
7.8 0.4 0
8.1 0.4 0
8.4 0.4 0
8.7 0.4 0
9 0.4 0
9.3 0.4 0
9.6 0.4 0
9.9 0.4 0
10.2 0.4 0
10.5 0.4 0
10.8 0.4 0
11.1 0.4 0
11.4 0.4 0
11.7 0.4 0
12 0.4 0
12.3 0.4 0
12.6 0.4 0
12.9 0.4 0
13.2 0.4 0
13.5 0.4 0
13.8 0.4 0
14.1 0.4 0
14.4 0.4 0
14.7 0.4 0
15 0.4 0
15.3 0.4 0
15.6 0.4 0
15.9 0.4 0
16.2 0.4 0
16.5 0.4 0
16.8 0.4 0
17.1 0.4 0
17.4 0.4 0
17.7 0.4 0
18 0.4 0
18.3 0.4 0
18.6 0.4 0
18.9 0.4 0
19.2 0.4 0
19.5 0.4 0
19.8 0.4 0
20.1 0.4 0
20.4 0.4 0
20.7 0.4 0
21 0.4 0
21.3 0.4 0
21.6 0.4 0
21.9 0.4 0
22.2 0.4 0
22.5 0.4 0
22.8 0.4 0
23.1 0.4 0
23.4 0.4 0
23.7 0.4 0
24 0.4 0
24.3 0.4 0
24.6 0.4 0
24.9 0.4 0
25.2 0.4 0
25.5 0.4 0
25.8 0.4 0
26.1 0.4 0
26.4 0.4 0
26.7 0.4 0
27 0.4 0
27.3 0.4 0
27.6 0.4 0
27.9 0.4 0
28.2 0.4 0
28.5 0.4 0
28.8 0.4 0
29.1 0.4 0
29.4 0.4 0
29.7 0.4 0
30 0.4 0
0 0.5 0
0.3 0.5 0
0.6 0.5 0
0.9 0.5 0
1.2 0.5 0
1.5 0.5 0
1.8 0.5 0
2.1 0.5 0
2.4 0.5 0
2.7 0.5 0
3 0.5 0
3.3 0.5 0
3.6 0.5 0
3.9 0.5 0
4.2 0.5 0
4.5 0.5 0
4.8 0.5 0
5.1 0.5 0
5.4 0.5 0
5.7 0.5 0
6 0.5 0
6.3 0.5 0
6.6 0.5 0
6.9 0.5 0
7.2 0.5 0
7.5 0.5 0
7.8 0.5 0
8.1 0.5 0
8.4 0.5 0
8.7 0.5 0
9 0.5 0
9.3 0.5 0
9.6 0.5 0
9.9 0.5 0
10.2 0.5 0
10.5 0.5 0
10.8 0.5 0
11.1 0.5 0
11.4 0.5 0
11.7 0.5 0
12 0.5 0
12.3 0.5 0
12.6 0.5 0
12.9 0.5 0
13.2 0.5 0
13.5 0.5 0
13.8 0.5 0
14.1 0.5 0
14.4 0.5 0
14.7 0.5 0
15 0.5 0
15.3 0.5 0
15.6 0.5 0
15.9 0.5 0
16.2 0.5 0
16.5 0.5 0
16.8 0.5 0
17.1 0.5 0
17.4 0.5 0
17.7 0.5 0
18 0.5 0
18.3 0.5 0
18.6 0.5 0
18.9 0.5 0
19.2 0.5 0
19.5 0.5 0
19.8 0.5 0
20.1 0.5 0
20.4 0.5 0
20.7 0.5 0
21 0.5 0
21.3 0.5 0
21.6 0.5 0
21.9 0.5 0
22.2 0.5 0
22.5 0.5 0
22.8 0.5 0
23.1 0.5 0
23.4 0.5 0
23.7 0.5 0
24 0.5 0
24.3 0.5 0
24.6 0.5 0
24.9 0.5 0
25.2 0.5 0
25.5 0.5 0
25.8 0.5 0
26.1 0.5 0
26.4 0.5 0
26.7 0.5 0
27 0.5 0
27.3 0.5 0
27.6 0.5 0
27.9 0.5 0
28.2 0.5 0
28.5 0.5 0
28.8 0.5 0
29.1 0.5 0
29.4 0.5 0
29.7 0.5 0
30 0.5 0
0 0.6 0
0.3 0.6 0
0.6 0.6 0
0.9 0.6 0
1.2 0.6 0
1.5 0.6 0
1.8 0.6 0
2.1 0.6 0
2.4 0.6 0
2.7 0.6 0
3 0.6 0
3.3 0.6 0
3.6 0.6 0
3.9 0.6 0
4.2 0.6 0
4.5 0.6 0
4.8 0.6 0
5.1 0.6 0
5.4 0.6 0
5.7 0.6 0
6 0.6 0
6.3 0.6 0
6.6 0.6 0
6.9 0.6 0
7.2 0.6 0
7.5 0.6 0
7.8 0.6 0
8.1 0.6 0
8.4 0.6 0
8.7 0.6 0
9 0.6 0
9.3 0.6 0
9.6 0.6 0
9.9 0.6 0
10.2 0.6 0
10.5 0.6 0
10.8 0.6 0
11.1 0.6 0
11.4 0.6 0
11.7 0.6 0
12 0.6 0
12.3 0.6 0
12.6 0.6 0
12.9 0.6 0
13.2 0.6 0
13.5 0.6 0
13.8 0.6 0
14.1 0.6 0
14.4 0.6 0
14.7 0.6 0
15 0.6 0
15.3 0.6 0
15.6 0.6 0
15.9 0.6 0
16.2 0.6 0
16.5 0.6 0
16.8 0.6 0
17.1 0.6 0
17.4 0.6 0
17.7 0.6 0
18 0.6 0
18.3 0.6 0
18.6 0.6 0
18.9 0.6 0
19.2 0.6 0
19.5 0.6 0
19.8 0.6 0
20.1 0.6 0
20.4 0.6 0
20.7 0.6 0
21 0.6 0
21.3 0.6 0
21.6 0.6 0
21.9 0.6 0
22.2 0.6 0
22.5 0.6 0
22.8 0.6 0
23.1 0.6 0
23.4 0.6 0
23.7 0.6 0
24 0.6 0
24.3 0.6 0
24.6 0.6 0
24.9 0.6 0
25.2 0.6 0
25.5 0.6 0
25.8 0.6 0
26.1 0.6 0
26.4 0.6 0
26.7 0.6 0
27 0.6 0
27.3 0.6 0
27.6 0.6 0
27.9 0.6 0
28.2 0.6 0
28.5 0.6 0
28.8 0.6 0
29.1 0.6 0
29.4 0.6 0
29.7 0.6 0
30 0.6 0
0 0.7 0
0.3 0.7 0
0.6 0.7 0
0.9 0.7 0
1.2 0.7 0
1.5 0.7 0
1.8 0.7 0
2.1 0.7 0
2.4 0.7 0
2.7 0.7 0
3 0.7 0
3.3 0.7 0
3.6 0.7 0
3.9 0.7 0
4.2 0.7 0
4.5 0.7 0
4.8 0.7 0
5.1 0.7 0
5.4 0.7 0
5.7 0.7 0
6 0.7 0
6.3 0.7 0
6.6 0.7 0
6.9 0.7 0
7.2 0.7 0
7.5 0.7 0
7.8 0.7 0
8.1 0.7 0
8.4 0.7 0
8.7 0.7 0
9 0.7 0
9.3 0.7 0
9.6 0.7 0
9.9 0.7 0
10.2 0.7 0
10.5 0.7 0
10.8 0.7 0
11.1 0.7 0
11.4 0.7 0
11.7 0.7 0
12 0.7 0
12.3 0.7 0
12.6 0.7 0
12.9 0.7 0
13.2 0.7 0
13.5 0.7 0
13.8 0.7 0
14.1 0.7 0
14.4 0.7 0
14.7 0.7 0
15 0.7 0
15.3 0.7 0
15.6 0.7 0
15.9 0.7 0
16.2 0.7 0
16.5 0.7 0
16.8 0.7 0
17.1 0.7 0
17.4 0.7 0
17.7 0.7 0
18 0.7 0
18.3 0.7 0
18.6 0.7 0
18.9 0.7 0
19.2 0.7 0
19.5 0.7 0
19.8 0.7 0
20.1 0.7 0
20.4 0.7 0
20.7 0.7 0
21 0.7 0
21.3 0.7 0
21.6 0.7 0
21.9 0.7 0
22.2 0.7 0
22.5 0.7 0
22.8 0.7 0
23.1 0.7 0
23.4 0.7 0
23.7 0.7 0
24 0.7 0
24.3 0.7 0
24.6 0.7 0
24.9 0.7 0
25.2 0.7 0
25.5 0.7 0
25.8 0.7 0
26.1 0.7 0
26.4 0.7 0
26.7 0.7 0
27 0.7 0
27.3 0.7 0
27.6 0.7 0
27.9 0.7 0
28.2 0.7 0
28.5 0.7 0
28.8 0.7 0
29.1 0.7 0
29.4 0.7 0
29.7 0.7 0
30 0.7 0
0 0.8 0
0.3 0.8 0
0.6 0.8 0
0.9 0.8 0
1.2 0.8 0
1.5 0.8 0
1.8 0.8 0
2.1 0.8 0
2.4 0.8 0
2.7 0.8 0
3 0.8 0
3.3 0.8 0
3.6 0.8 0
3.9 0.8 0
4.2 0.8 0
4.5 0.8 0
4.8 0.8 0
5.1 0.8 0
5.4 0.8 0
5.7 0.8 0
6 0.8 0
6.3 0.8 0
6.6 0.8 0
6.9 0.8 0
7.2 0.8 0
7.5 0.8 0
7.8 0.8 0
8.1 0.8 0
8.4 0.8 0
8.7 0.8 0
9 0.8 0
9.3 0.8 0
9.6 0.8 0
9.9 0.8 0
10.2 0.8 0
10.5 0.8 0
10.8 0.8 0
11.1 0.8 0
11.4 0.8 0
11.7 0.8 0
12 0.8 0
12.3 0.8 0
12.6 0.8 0
12.9 0.8 0
13.2 0.8 0
13.5 0.8 0
13.8 0.8 0
14.1 0.8 0
14.4 0.8 0
14.7 0.8 0
15 0.8 0
15.3 0.8 0
15.6 0.8 0
15.9 0.8 0
16.2 0.8 0
16.5 0.8 0
16.8 0.8 0
17.1 0.8 0
17.4 0.8 0
17.7 0.8 0
18 0.8 0
18.3 0.8 0
18.6 0.8 0
18.9 0.8 0
19.2 0.8 0
19.5 0.8 0
19.8 0.8 0
20.1 0.8 0
20.4 0.8 0
20.7 0.8 0
21 0.8 0
21.3 0.8 0
21.6 0.8 0
21.9 0.8 0
22.2 0.8 0
22.5 0.8 0
22.8 0.8 0
23.1 0.8 0
23.4 0.8 0
23.7 0.8 0
24 0.8 0
24.3 0.8 0
24.6 0.8 0
24.9 0.8 0
25.2 0.8 0
25.5 0.8 0
25.8 0.8 0
26.1 0.8 0
26.4 0.8 0
26.7 0.8 0
27 0.8 0
27.3 0.8 0
27.6 0.8 0
27.9 0.8 0
28.2 0.8 0
28.5 0.8 0
28.8 0.8 0
29.1 0.8 0
29.4 0.8 0
29.7 0.8 0
30 0.8 0
0 0.9 0
0.3 0.9 0
0.6 0.9 0
0.9 0.9 0
1.2 0.9 0
1.5 0.9 0
1.8 0.9 0
2.1 0.9 0
2.4 0.9 0
2.7 0.9 0
3 0.9 0
3.3 0.9 0
3.6 0.9 0
3.9 0.9 0
4.2 0.9 0
4.5 0.9 0
4.8 0.9 0
5.1 0.9 0
5.4 0.9 0
5.7 0.9 0
6 0.9 0
6.3 0.9 0
6.6 0.9 0
6.9 0.9 0
7.2 0.9 0
7.5 0.9 0
7.8 0.9 0
8.1 0.9 0
8.4 0.9 0
8.7 0.9 0
9 0.9 0
9.3 0.9 0
9.6 0.9 0
9.9 0.9 0
10.2 0.9 0
10.5 0.9 0
10.8 0.9 0
11.1 0.9 0
11.4 0.9 0
11.7 0.9 0
12 0.9 0
12.3 0.9 0
12.6 0.9 0
12.9 0.9 0
13.2 0.9 0
13.5 0.9 0
13.8 0.9 0
14.1 0.9 0
14.4 0.9 0
14.7 0.9 0
15 0.9 0
15.3 0.9 0
15.6 0.9 0
15.9 0.9 0
16.2 0.9 0
16.5 0.9 0
16.8 0.9 0
17.1 0.9 0
17.4 0.9 0
17.7 0.9 0
18 0.9 0
18.3 0.9 0
18.6 0.9 0
18.9 0.9 0
19.2 0.9 0
19.5 0.9 0
19.8 0.9 0
20.1 0.9 0
20.4 0.9 0
20.7 0.9 0
21 0.9 0
21.3 0.9 0
21.6 0.9 0
21.9 0.9 0
22.2 0.9 0
22.5 0.9 0
22.8 0.9 0
23.1 0.9 0
23.4 0.9 0
23.7 0.9 0
24 0.9 0
24.3 0.9 0
24.6 0.9 0
24.9 0.9 0
25.2 0.9 0
25.5 0.9 0
25.8 0.9 0
26.1 0.9 0
26.4 0.9 0
26.7 0.9 0
27 0.9 0
27.3 0.9 0
27.6 0.9 0
27.9 0.9 0
28.2 0.9 0
28.5 0.9 0
28.8 0.9 0
29.1 0.9 0
29.4 0.9 0
29.7 0.9 0
30 0.9 0
0 1 0
0.3 1 0
0.6 1 0
0.9 1 0
1.2 1 0
1.5 1 0
1.8 1 0
2.1 1 0
2.4 1 0
2.7 1 0
3 1 0
3.3 1 0
3.6 1 0
3.9 1 0
4.2 1 0
4.5 1 0
4.8 1 0
5.1 1 0
5.4 1 0
5.7 1 0
6 1 0
6.3 1 0
6.6 1 0
6.9 1 0
7.2 1 0
7.5 1 0
7.8 1 0
8.1 1 0
8.4 1 0
8.7 1 0
9 1 0
9.3 1 0
9.6 1 0
9.9 1 0
10.2 1 0
10.5 1 0
10.8 1 0
11.1 1 0
11.4 1 0
11.7 1 0
12 1 0
12.3 1 0
12.6 1 0
12.9 1 0
13.2 1 0
13.5 1 0
13.8 1 0
14.1 1 0
14.4 1 0
14.7 1 0
15 1 0
15.3 1 0
15.6 1 0
15.9 1 0
16.2 1 0
16.5 1 0
16.8 1 0
17.1 1 0
17.4 1 0
17.7 1 0
18 1 0
18.3 1 0
18.6 1 0
18.9 1 0
19.2 1 0
19.5 1 0
19.8 1 0
20.1 1 0
20.4 1 0
20.7 1 0
21 1 0
21.3 1 0
21.6 1 0
21.9 1 0
22.2 1 0
22.5 1 0
22.8 1 0
23.1 1 0
23.4 1 0
23.7 1 0
24 1 0
24.3 1 0
24.6 1 0
24.9 1 0
25.2 1 0
25.5 1 0
25.8 1 0
26.1 1 0
26.4 1 0
26.7 1 0
27 1 0
27.3 1 0
27.6 1 0
27.9 1 0
28.2 1 0
28.5 1 0
28.8 1 0
29.1 1 0
29.4 1 0
29.7 1 0
30 1 0

POINT_DATA 1111

SCALARS phi double
LOOKUP_TABLE default
1
1
1
0.999994
0.999972
0.999915
0.999796
0.999582
0.99924
0.998736
0.998042
0.997136
0.996
0.994626
0.993006
0.99114
0.989029
0.986685
0.984124
0.981361
0.978376
0.975082
0.9713
0.966764
0.96115
0.954123
0.945387
0.93472
0.921993
0.907165
0.890278
0.871435
0.850787
0.828516
0.804823
0.779921
0.754022
0.727339
0.700071
0.672412
0.644536
0.616605
0.588763
0.561138
0.533843
0.506974
0.480611
0.454823
0.429664
0.405181
0.381405
0.358364
0.336076
0.31455
0.293795
0.273811
0.254598
0.236149
0.218461
0.201525
0.185334
0.169882
0.155161
0.141168
0.127898
0.115349
0.103522
0.0924151
0.0820306
0.0723688
0.0634291
0.0552082
0.0477
0.0408937
0.0347733
0.0293173
0.0244984
0.0202835
0.0166342
0.0135082
0.0108597
0.00864091
0.0068036
0.00530004
0.00408426
0.00311305
0.00234667
0.00174933
0.00128949
0.000939873
0.000677344
0.000482648
0.00034004
0.00023687
0.000163147
0.000111105
7.483e-05
4.9773e-05
3.3054e-05
2.01327e-05
2.01327e-05
1
1
1
0.999994
0.999972
0.999915
0.999796
0.999582
0.99924
0.998736
0.998042
0.997136
0.996
0.994626
0.993006
0.99114
0.989029
0.986685
0.984124
0.981361
0.978376
0.975082
0.9713
0.966764
0.96115
0.954123
0.945387
0.93472
0.921993
0.907165
0.890278
0.871435
0.850787
0.828516
0.804823
0.779921
0.754022
0.727339
0.700071
0.672412
0.644536
0.616605
0.588763
0.561138
0.533843
0.506974
0.480611
0.454823
0.429664
0.405181
0.381405
0.358364
0.336076
0.31455
0.293795
0.273811
0.254598
0.236149
0.218461
0.201525
0.185334
0.169882
0.155161
0.141168
0.127898
0.115349
0.103522
0.0924151
0.0820306
0.0723688
0.0634291
0.0552082
0.0477
0.0408937
0.0347733
0.0293173
0.0244984
0.0202835
0.0166342
0.0135082
0.0108597
0.00864091
0.0068036
0.00530004
0.00408426
0.00311305
0.00234667
0.00174933
0.00128949
0.000939873
0.000677344
0.000482648
0.00034004
0.00023687
0.000163147
0.000111105
7.483e-05
4.9773e-05
3.3054e-05
2.01327e-05
2.01327e-05
0.999997
1
0.999982
0.999903
0.99973
0.999422
0.998942
0.998256
0.99734
0.996174
0.994748
0.993059
0.991109
0.988904
0.986455
0.983772
0.980869
0.977761
0.974463
0.970995
0.96737
0.963589
0.959626
0.955416
0.950852
0.945788
0.940054
0.93347
0.925862
0.917084
0.90702
0.895593
0.882766
0.86854
0.852949
0.836056
0.817947
0.798728
0.778515
0.757433
0.735614
0.713186
0.690277
0.667012
0.643508
0.619872
0.596206
0.572602
0.549142
0.525899
0.502936
0.480309
0.458064
0.436239
0.414865
0.393965
0.373557
0.353649
0.334247
0.315351
0.296955
0.27905
0.261626
0.244669
0.228167
0.212107
0.196481
0.181288
0.166532
0.152226
0.138392
0.125063
0.112279
0.100086
0.0885354
0.0776778
0.0675601
0.0582225
0.0496941
0.0419911
0.0351149
0.0290514
0.0237718
0.019234
0.0153851
0.0121642
0.00950512
0.00733965
0.00560017
0.00422192
0.00314475
0.00231432
0.00168276
0.00120889
0.000858093
0.000601817
0.000417162
0.000285318
0.000194935
0.000121693
0.000121693
1
0.999999
0.99946
0.998318
0.996569
0.994236
0.991359
0.987986
0.984174
0.979985
0.975479
0.970714
0.965744
0.960613
0.955362
0.950025
0.944629
0.939199
0.933755
0.928313
0.922886
0.917486
0.912117
0.906775
0.901444
0.896092
0.890672
0.885122
0.879366
0.873322
0.866903
0.860023
0.852604
0.844574
0.835874
0.82646
0.8163
0.805376
0.793687
0.781242
0.768064
0.754183
0.739641
0.724486
0.708768
0.692546
0.675878
0.658824
0.641443
0.623795
0.605936
0.587919
0.569797
0.551616
0.533419
0.515243
0.497121
0.479081
0.461143
0.443322
0.425625
0.408053
0.390598
0.373244
0.355968
0.338741
0.321529
0.304298
0.287015
0.269659
0.25222
0.23471
0.217164
0.199644
0.18224
0.165067
0.148261
0.13197
0.116349
0.101546
0.0876948
0.0749054
0.0632595
0.0528054
0.043557
0.0354955
0.0285726
0.0227159
0.017835
0.0138276
0.0105862
0.00800274
0.00597378
0.00440331
0.00320515
0.00230388
0.00163594
0.00114537
0.000801226
0.000511657
0.000511657
1.00152
0.998478
0.989845
0.978523
0.966041
0.953192
0.940393
0.927875
0.915766
0.904141
0.893035
0.882463
0.87242
0.862891
0.853856
0.845287
0.837157
0.829439
0.822103
0.815125
0.808478
0.80214
0.796088
0.790301
0.784759
0.779437
0.774313
0.769356
0.764536
0.759815
0.755152
0.750503
0.745822
0.741059
0.736165
0.731094
0.725798
0.720236
0.714369
0.708161
0.701585
0.694618
0.68724
0.67944
0.671211
0.662551
0.653461
0.643949
0.634026
0.623704
0.613
0.601932
0.59052
0.578785
0.566748
0.55443
0.541851
0.52903
0.515984
0.502725
0.489264
0.475603
0.461739
0.447658
0.433337
0.418741
0.40382
0.388516
0.372762
0.35649
0.339637
0.322152
0.304014
0.285233
0.265864
0.246007
0.225813
0.205476
0.185223
0.165306
0.145985
0.127507
0.110101
0.0939536
0.0792088
0.0659571
0.0542362
0.0440342
0.035295
0.027927
0.0218123
0.0168166
0.0127978
0.00961391
0.00712943
0.00521917
0.00377323
0.0026884
0.00191405
0.00124404
0.00124404
1.04956
0.950436
0.872951
0.815234
0.771993
0.739004
0.713323
0.692935
0.676456
0.662919
0.651641
0.642125
0.634005
0.627008
0.620923
0.61559
0.61088
0.606694
0.60295
0.599584
0.596543
0.593782
0.591266
0.588964
0.586851
0.584904
0.583105
0.581436
0.579879
0.578418
0.577036
0.575714
0.574434
0.573174
0.571914
0.570628
0.569293
0.567884
0.566374
0.564737
0.562947
0.560978
0.558806
0.556405
0.553754
0.550831
0.547617
0.544094
0.540247
0.536062
0.531526
0.526631
0.52137
0.515735
0.509724
0.503333
0.496561
0.489407
0.481871
0.473952
0.465647
0.456949
0.447847
0.438321
0.428343
0.417871
0.406848
0.395206
0.382862
0.369727
0.355712
0.340738
0.32475
0.307727
0.289693
0.270729
0.250973
0.230624
0.209926
0.189167
0.168652
0.148694
0.129585
0.111588
0.0949183
0.0797327
0.0661289
0.0541436
0.0437577
0.0349044
0.0274793
0.0213512
0.0163732
0.0123924
0.00925773
0.00682635
0.00497035
0.00356599
0.00255663
0.00167353
0.00167353
-0.0440411
0.0440411
0.104658
0.147826
0.179978
0.204969
0.22512
0.241852
0.256065
0.268346
0.279103
0.288632
0.297153
0.30484
0.31183
0.318232
0.324136
0.329615
0.334729
0.339527
0.344051
0.348335
0.352408
0.356294
0.360014
0.363586
0.367024
0.370341
0.373548
0.376652
0.379661
0.382578
0.385407
0.388148
0.390798
0.393355
0.395812
0.39816
0.400389
0.402487
0.404439
0.406229
0.40784
0.409252
0.410446
0.411401
0.412096
0.412511
0.412624
0.412415
0.411864
0.410953
0.409664
0.407981
0.405889
0.403375
0.400426
0.39703
0.393178
0.388856
0.384053
0.378751
0.37293
0.366562
0.359611
0.352029
0.34376
0.334735
0.324881
0.314124
0.302395
0.289644
0.275846
0.261017
0.245215
0.228551
0.211189
0.193337
0.175244
0.157184
0.13944
0.122289
0.105984
0.090741
0.0767291
0.0640641
0.0528073
0.0429676
0.0345079
0.0273527
0.0213981
0.0165212
0.0125895
0.00946876
0.00702942
0.00515104
0.00372732
0.00265787
0.00189375
0.00123174
0.00123174
-0.00135393
0.00135393
0.00757106
0.0154113
0.0241244
0.0333479
0.0428736
0.0525556
0.0622788
0.0719501
0.0814969
0.0908662
0.100022
0.108944
0.11762
0.126049
0.134233
0.142179
0.149897
0.157395
0.164687
0.171781
0.178688
0.185419
0.191982
0.198387
0.20464
0.210749
0.216718
0.222552
0.228252
0.233821
0.239256
0.244554
0.24971
0.254716
0.259563
0.264239
0.268729
0.27302
0.277092
0.280929
0.284509
0.287813
0.290819
0.293505
0.295851
0.297836
0.29944
0.300643
0.301428
0.301778
0.301679
0.301118
0.300082
0.298562
0.296549
0.294033
0.291007
0.287461
0.283383
0.278761
0.273575
0.267804
0.261421
0.254397
0.246698
0.238295
0.229161
0.219282
0.208663
0.197328
0.185331
0.172759
0.159728
0.146384
0.132899
0.11946
0.106261
0.0934926
0.0813315
0.0699303
0.0594112
0.0498607
0.0413284
0.0338274
0.0273379
0.0218122
0.0171809
0.0133596
0.010255
0.00777102
0.00581348
0.00429366
0.00313099
0.00225428
0.00160313
0.00112394
0.000787232
0.00050333
0.00050333
-1.12304e-05
1.12304e-05
0.000371136
0.00113545
0.00236809
0.00411786
0.00641416
0.00926465
0.0126562
0.0165593
0.020933
0.0257304
0.0309028
0.036402
0.0421822
0.0482009
0.0544193
0.0608023
0.0673182
0.0739389
0.080639
0.0873961
0.0941904
0.101004
0.107821
0.114625
0.121403
0.128139
0.134817
0.141421
0.147933
0.154331
0.160594
0.166698
0.172618
0.178326
0.183795
0.188997
0.193903
0.198486
0.202717
0.206571
0.210022
0.213047
0.215626
0.217738
0.219367
0.2205
0.221126
0.221236
0.220824
0.219889
0.218429
0.216448
0.21395
0.210941
0.207429
0.203423
0.198933
0.193969
0.188542
0.182664
0.176345
0.1696
0.162444
0.154896
0.146983
0.138737
0.130199
0.121423
0.112473
0.103422
0.0943573
0.0853699
0.0765569
0.0680155
0.0598386
0.0521106
0.0449035
0.0382735
0.0322591
0.0268801
0.0221381
0.0180177
0.0144893
0.0115114
0.0090345
0.00700405
0.00536344
0.00405675
0.00303076
0.0022365
0.00163021
0.00117379
0.000834901
0.000586658
0.000407359
0.000279053
0.000190936
0.000119363
0.000119363
1.70138e-06
-1.70138e-06
1.49765e-05
9.33844e-05
0.000299335
0.000718214
0.00144362
0.00256259
0.00414308
0.0062276
0.00883329
0.0119559
0.0155752
0.0196605
0.0241747
0.0290772
0.0343266
0.0398817
0.0457028
0.0517522
0.0579946
0.0643973
0.0709296
0.0775627
0.0842684
0.091018
0.0977821
0.104529
0.111225
0.117833
0.124316
0.130633
0.136742
0.142603
0.148173
0.153412
0.15828
0.162742
0.166764
0.170313
0.173364
0.175892
0.177879
0.179308
0.180168
0.180453
0.180158
0.179286
0.177841
0.175832
0.173271
0.170175
0.166562
0.162455
0.15788
0.152865
0.147442
0.141644
0.135508
0.129075
0.122386
0.115487
0.108424
0.10125
0.0940157
0.086777
0.0795898
0.0725111
0.0655976
0.0589043
0.0524832
0.0463819
0.0406421
0.0352982
0.0303762
0.025893
0.0218561
0.0182636
0.0151048
0.0123614
0.0100081
0.00801485
0.00634792
0.00497171
0.00385008
0.00294773
0.00223116
0.00166945
0.00123482
0.000902839
0.000652518
0.000466178
0.000329226
0.000229842
0.000158627
0.000108228
7.30173e-05
4.86436e-05
3.23515e-05
1.97321e-05
1.97321e-05
1.70138e-06
-1.70138e-06
1.49765e-05
9.33844e-05
0.000299335
0.000718214
0.00144362
0.00256259
0.00414308
0.0062276
0.00883329
0.0119559
0.0155752
0.0196605
0.0241747
0.0290772
0.0343266
0.0398817
0.0457028
0.0517522
0.0579946
0.0643973
0.0709296
0.0775627
0.0842684
0.091018
0.0977821
0.104529
0.111225
0.117833
0.124316
0.130633
0.136742
0.142603
0.148173
0.153412
0.15828
0.162742
0.166764
0.170313
0.173364
0.175892
0.177879
0.179308
0.180168
0.180453
0.180158
0.179286
0.177841
0.175832
0.173271
0.170175
0.166562
0.162455
0.15788
0.152865
0.147442
0.141644
0.135508
0.129075
0.122386
0.115487
0.108424
0.10125
0.0940157
0.086777
0.0795898
0.0725111
0.0655976
0.0589043
0.0524832
0.0463819
0.0406421
0.0352982
0.0303762
0.025893
0.0218561
0.0182636
0.0151048
0.0123614
0.0100081
0.00801485
0.00634792
0.00497171
0.00385008
0.00294773
0.00223116
0.00166945
0.00123482
0.000902839
0.000652518
0.000466178
0.000329226
0.000229842
0.000158627
0.000108228
7.30173e-05
4.86436e-05
3.23515e-05
1.97321e-05
1.97321e-05
