# vtk DataFile Version 2.0
FlowField
ASCII
DATASET STRUCTURED_GRID
DIMENSIONS 102 12 1 
POINTS 1224 double
0 0 0
0.3 0 0
0.6 0 0
0.9 0 0
1.2 0 0
1.5 0 0
1.8 0 0
2.1 0 0
2.4 0 0
2.7 0 0
3 0 0
3.3 0 0
3.6 0 0
3.9 0 0
4.2 0 0
4.5 0 0
4.8 0 0
5.1 0 0
5.4 0 0
5.7 0 0
6 0 0
6.3 0 0
6.6 0 0
6.9 0 0
7.2 0 0
7.5 0 0
7.8 0 0
8.1 0 0
8.4 0 0
8.7 0 0
9 0 0
9.3 0 0
9.6 0 0
9.9 0 0
10.2 0 0
10.5 0 0
10.8 0 0
11.1 0 0
11.4 0 0
11.7 0 0
12 0 0
12.3 0 0
12.6 0 0
12.9 0 0
13.2 0 0
13.5 0 0
13.8 0 0
14.1 0 0
14.4 0 0
14.7 0 0
15 0 0
15.3 0 0
15.6 0 0
15.9 0 0
16.2 0 0
16.5 0 0
16.8 0 0
17.1 0 0
17.4 0 0
17.7 0 0
18 0 0
18.3 0 0
18.6 0 0
18.9 0 0
19.2 0 0
19.5 0 0
19.8 0 0
20.1 0 0
20.4 0 0
20.7 0 0
21 0 0
21.3 0 0
21.6 0 0
21.9 0 0
22.2 0 0
22.5 0 0
22.8 0 0
23.1 0 0
23.4 0 0
23.7 0 0
24 0 0
24.3 0 0
24.6 0 0
24.9 0 0
25.2 0 0
25.5 0 0
25.8 0 0
26.1 0 0
26.4 0 0
26.7 0 0
27 0 0
27.3 0 0
27.6 0 0
27.9 0 0
28.2 0 0
28.5 0 0
28.8 0 0
29.1 0 0
29.4 0 0
29.7 0 0
30 0 0
30.3 0 0
0 0.1 0
0.3 0.1 0
0.6 0.1 0
0.9 0.1 0
1.2 0.1 0
1.5 0.1 0
1.8 0.1 0
2.1 0.1 0
2.4 0.1 0
2.7 0.1 0
3 0.1 0
3.3 0.1 0
3.6 0.1 0
3.9 0.1 0
4.2 0.1 0
4.5 0.1 0
4.8 0.1 0
5.1 0.1 0
5.4 0.1 0
5.7 0.1 0
6 0.1 0
6.3 0.1 0
6.6 0.1 0
6.9 0.1 0
7.2 0.1 0
7.5 0.1 0
7.8 0.1 0
8.1 0.1 0
8.4 0.1 0
8.7 0.1 0
9 0.1 0
9.3 0.1 0
9.6 0.1 0
9.9 0.1 0
10.2 0.1 0
10.5 0.1 0
10.8 0.1 0
11.1 0.1 0
11.4 0.1 0
11.7 0.1 0
12 0.1 0
12.3 0.1 0
12.6 0.1 0
12.9 0.1 0
13.2 0.1 0
13.5 0.1 0
13.8 0.1 0
14.1 0.1 0
14.4 0.1 0
14.7 0.1 0
15 0.1 0
15.3 0.1 0
15.6 0.1 0
15.9 0.1 0
16.2 0.1 0
16.5 0.1 0
16.8 0.1 0
17.1 0.1 0
17.4 0.1 0
17.7 0.1 0
18 0.1 0
18.3 0.1 0
18.6 0.1 0
18.9 0.1 0
19.2 0.1 0
19.5 0.1 0
19.8 0.1 0
20.1 0.1 0
20.4 0.1 0
20.7 0.1 0
21 0.1 0
21.3 0.1 0
21.6 0.1 0
21.9 0.1 0
22.2 0.1 0
22.5 0.1 0
22.8 0.1 0
23.1 0.1 0
23.4 0.1 0
23.7 0.1 0
24 0.1 0
24.3 0.1 0
24.6 0.1 0
24.9 0.1 0
25.2 0.1 0
25.5 0.1 0
25.8 0.1 0
26.1 0.1 0
26.4 0.1 0
26.7 0.1 0
27 0.1 0
27.3 0.1 0
27.6 0.1 0
27.9 0.1 0
28.2 0.1 0
28.5 0.1 0
28.8 0.1 0
29.1 0.1 0
29.4 0.1 0
29.7 0.1 0
30 0.1 0
30.3 0.1 0
0 0.2 0
0.3 0.2 0
0.6 0.2 0
0.9 0.2 0
1.2 0.2 0
1.5 0.2 0
1.8 0.2 0
2.1 0.2 0
2.4 0.2 0
2.7 0.2 0
3 0.2 0
3.3 0.2 0
3.6 0.2 0
3.9 0.2 0
4.2 0.2 0
4.5 0.2 0
4.8 0.2 0
5.1 0.2 0
5.4 0.2 0
5.7 0.2 0
6 0.2 0
6.3 0.2 0
6.6 0.2 0
6.9 0.2 0
7.2 0.2 0
7.5 0.2 0
7.8 0.2 0
8.1 0.2 0
8.4 0.2 0
8.7 0.2 0
9 0.2 0
9.3 0.2 0
9.6 0.2 0
9.9 0.2 0
10.2 0.2 0
10.5 0.2 0
10.8 0.2 0
11.1 0.2 0
11.4 0.2 0
11.7 0.2 0
12 0.2 0
12.3 0.2 0
12.6 0.2 0
12.9 0.2 0
13.2 0.2 0
13.5 0.2 0
13.8 0.2 0
14.1 0.2 0
14.4 0.2 0
14.7 0.2 0
15 0.2 0
15.3 0.2 0
15.6 0.2 0
15.9 0.2 0
16.2 0.2 0
16.5 0.2 0
16.8 0.2 0
17.1 0.2 0
17.4 0.2 0
17.7 0.2 0
18 0.2 0
18.3 0.2 0
18.6 0.2 0
18.9 0.2 0
19.2 0.2 0
19.5 0.2 0
19.8 0.2 0
20.1 0.2 0
20.4 0.2 0
20.7 0.2 0
21 0.2 0
21.3 0.2 0
21.6 0.2 0
21.9 0.2 0
22.2 0.2 0
22.5 0.2 0
22.8 0.2 0
23.1 0.2 0
23.4 0.2 0
23.7 0.2 0
24 0.2 0
24.3 0.2 0
24.6 0.2 0
24.9 0.2 0
25.2 0.2 0
25.5 0.2 0
25.8 0.2 0
26.1 0.2 0
26.4 0.2 0
26.7 0.2 0
27 0.2 0
27.3 0.2 0
27.6 0.2 0
27.9 0.2 0
28.2 0.2 0
28.5 0.2 0
28.8 0.2 0
29.1 0.2 0
29.4 0.2 0
29.7 0.2 0
30 0.2 0
30.3 0.2 0
0 0.3 0
0.3 0.3 0
0.6 0.3 0
0.9 0.3 0
1.2 0.3 0
1.5 0.3 0
1.8 0.3 0
2.1 0.3 0
2.4 0.3 0
2.7 0.3 0
3 0.3 0
3.3 0.3 0
3.6 0.3 0
3.9 0.3 0
4.2 0.3 0
4.5 0.3 0
4.8 0.3 0
5.1 0.3 0
5.4 0.3 0
5.7 0.3 0
6 0.3 0
6.3 0.3 0
6.6 0.3 0
6.9 0.3 0
7.2 0.3 0
7.5 0.3 0
7.8 0.3 0
8.1 0.3 0
8.4 0.3 0
8.7 0.3 0
9 0.3 0
9.3 0.3 0
9.6 0.3 0
9.9 0.3 0
10.2 0.3 0
10.5 0.3 0
10.8 0.3 0
11.1 0.3 0
11.4 0.3 0
11.7 0.3 0
12 0.3 0
12.3 0.3 0
12.6 0.3 0
12.9 0.3 0
13.2 0.3 0
13.5 0.3 0
13.8 0.3 0
14.1 0.3 0
14.4 0.3 0
14.7 0.3 0
15 0.3 0
15.3 0.3 0
15.6 0.3 0
15.9 0.3 0
16.2 0.3 0
16.5 0.3 0
16.8 0.3 0
17.1 0.3 0
17.4 0.3 0
17.7 0.3 0
18 0.3 0
18.3 0.3 0
18.6 0.3 0
18.9 0.3 0
19.2 0.3 0
19.5 0.3 0
19.8 0.3 0
20.1 0.3 0
20.4 0.3 0
20.7 0.3 0
21 0.3 0
21.3 0.3 0
21.6 0.3 0
21.9 0.3 0
22.2 0.3 0
22.5 0.3 0
22.8 0.3 0
23.1 0.3 0
23.4 0.3 0
23.7 0.3 0
24 0.3 0
24.3 0.3 0
24.6 0.3 0
24.9 0.3 0
25.2 0.3 0
25.5 0.3 0
25.8 0.3 0
26.1 0.3 0
26.4 0.3 0
26.7 0.3 0
27 0.3 0
27.3 0.3 0
27.6 0.3 0
27.9 0.3 0
28.2 0.3 0
28.5 0.3 0
28.8 0.3 0
29.1 0.3 0
29.4 0.3 0
29.7 0.3 0
30 0.3 0
30.3 0.3 0
0 0.4 0
0.3 0.4 0
0.6 0.4 0
0.9 0.4 0
1.2 0.4 0
1.5 0.4 0
1.8 0.4 0
2.1 0.4 0
2.4 0.4 0
2.7 0.4 0
3 0.4 0
3.3 0.4 0
3.6 0.4 0
3.9 0.4 0
4.2 0.4 0
4.5 0.4 0
4.8 0.4 0
5.1 0.4 0
5.4 0.4 0
5.7 0.4 0
6 0.4 0
6.3 0.4 0
6.6 0.4 0
6.9 0.4 0
7.2 0.4 0
7.5 0.4 0
7.8 0.4 0
8.1 0.4 0
8.4 0.4 0
8.7 0.4 0
9 0.4 0
9.3 0.4 0
9.6 0.4 0
9.9 0.4 0
10.2 0.4 0
10.5 0.4 0
10.8 0.4 0
11.1 0.4 0
11.4 0.4 0
11.7 0.4 0
12 0.4 0
12.3 0.4 0
12.6 0.4 0
12.9 0.4 0
13.2 0.4 0
13.5 0.4 0
13.8 0.4 0
14.1 0.4 0
14.4 0.4 0
14.7 0.4 0
15 0.4 0
15.3 0.4 0
15.6 0.4 0
15.9 0.4 0
16.2 0.4 0
16.5 0.4 0
16.8 0.4 0
17.1 0.4 0
17.4 0.4 0
17.7 0.4 0
18 0.4 0
18.3 0.4 0
18.6 0.4 0
18.9 0.4 0
19.2 0.4 0
19.5 0.4 0
19.8 0.4 0
20.1 0.4 0
20.4 0.4 0
20.7 0.4 0
21 0.4 0
21.3 0.4 0
21.6 0.4 0
21.9 0.4 0
22.2 0.4 0
22.5 0.4 0
22.8 0.4 0
23.1 0.4 0
23.4 0.4 0
23.7 0.4 0
24 0.4 0
24.3 0.4 0
24.6 0.4 0
24.9 0.4 0
25.2 0.4 0
25.5 0.4 0
25.8 0.4 0
26.1 0.4 0
26.4 0.4 0
26.7 0.4 0
27 0.4 0
27.3 0.4 0
27.6 0.4 0
27.9 0.4 0
28.2 0.4 0
28.5 0.4 0
28.8 0.4 0
29.1 0.4 0
29.4 0.4 0
29.7 0.4 0
30 0.4 0
30.3 0.4 0
0 0.5 0
0.3 0.5 0
0.6 0.5 0
0.9 0.5 0
1.2 0.5 0
1.5 0.5 0
1.8 0.5 0
2.1 0.5 0
2.4 0.5 0
2.7 0.5 0
3 0.5 0
3.3 0.5 0
3.6 0.5 0
3.9 0.5 0
4.2 0.5 0
4.5 0.5 0
4.8 0.5 0
5.1 0.5 0
5.4 0.5 0
5.7 0.5 0
6 0.5 0
6.3 0.5 0
6.6 0.5 0
6.9 0.5 0
7.2 0.5 0
7.5 0.5 0
7.8 0.5 0
8.1 0.5 0
8.4 0.5 0
8.7 0.5 0
9 0.5 0
9.3 0.5 0
9.6 0.5 0
9.9 0.5 0
10.2 0.5 0
10.5 0.5 0
10.8 0.5 0
11.1 0.5 0
11.4 0.5 0
11.7 0.5 0
12 0.5 0
12.3 0.5 0
12.6 0.5 0
12.9 0.5 0
13.2 0.5 0
13.5 0.5 0
13.8 0.5 0
14.1 0.5 0
14.4 0.5 0
14.7 0.5 0
15 0.5 0
15.3 0.5 0
15.6 0.5 0
15.9 0.5 0
16.2 0.5 0
16.5 0.5 0
16.8 0.5 0
17.1 0.5 0
17.4 0.5 0
17.7 0.5 0
18 0.5 0
18.3 0.5 0
18.6 0.5 0
18.9 0.5 0
19.2 0.5 0
19.5 0.5 0
19.8 0.5 0
20.1 0.5 0
20.4 0.5 0
20.7 0.5 0
21 0.5 0
21.3 0.5 0
21.6 0.5 0
21.9 0.5 0
22.2 0.5 0
22.5 0.5 0
22.8 0.5 0
23.1 0.5 0
23.4 0.5 0
23.7 0.5 0
24 0.5 0
24.3 0.5 0
24.6 0.5 0
24.9 0.5 0
25.2 0.5 0
25.5 0.5 0
25.8 0.5 0
26.1 0.5 0
26.4 0.5 0
26.7 0.5 0
27 0.5 0
27.3 0.5 0
27.6 0.5 0
27.9 0.5 0
28.2 0.5 0
28.5 0.5 0
28.8 0.5 0
29.1 0.5 0
29.4 0.5 0
29.7 0.5 0
30 0.5 0
30.3 0.5 0
0 0.6 0
0.3 0.6 0
0.6 0.6 0
0.9 0.6 0
1.2 0.6 0
1.5 0.6 0
1.8 0.6 0
2.1 0.6 0
2.4 0.6 0
2.7 0.6 0
3 0.6 0
3.3 0.6 0
3.6 0.6 0
3.9 0.6 0
4.2 0.6 0
4.5 0.6 0
4.8 0.6 0
5.1 0.6 0
5.4 0.6 0
5.7 0.6 0
6 0.6 0
6.3 0.6 0
6.6 0.6 0
6.9 0.6 0
7.2 0.6 0
7.5 0.6 0
7.8 0.6 0
8.1 0.6 0
8.4 0.6 0
8.7 0.6 0
9 0.6 0
9.3 0.6 0
9.6 0.6 0
9.9 0.6 0
10.2 0.6 0
10.5 0.6 0
10.8 0.6 0
11.1 0.6 0
11.4 0.6 0
11.7 0.6 0
12 0.6 0
12.3 0.6 0
12.6 0.6 0
12.9 0.6 0
13.2 0.6 0
13.5 0.6 0
13.8 0.6 0
14.1 0.6 0
14.4 0.6 0
14.7 0.6 0
15 0.6 0
15.3 0.6 0
15.6 0.6 0
15.9 0.6 0
16.2 0.6 0
16.5 0.6 0
16.8 0.6 0
17.1 0.6 0
17.4 0.6 0
17.7 0.6 0
18 0.6 0
18.3 0.6 0
18.6 0.6 0
18.9 0.6 0
19.2 0.6 0
19.5 0.6 0
19.8 0.6 0
20.1 0.6 0
20.4 0.6 0
20.7 0.6 0
21 0.6 0
21.3 0.6 0
21.6 0.6 0
21.9 0.6 0
22.2 0.6 0
22.5 0.6 0
22.8 0.6 0
23.1 0.6 0
23.4 0.6 0
23.7 0.6 0
24 0.6 0
24.3 0.6 0
24.6 0.6 0
24.9 0.6 0
25.2 0.6 0
25.5 0.6 0
25.8 0.6 0
26.1 0.6 0
26.4 0.6 0
26.7 0.6 0
27 0.6 0
27.3 0.6 0
27.6 0.6 0
27.9 0.6 0
28.2 0.6 0
28.5 0.6 0
28.8 0.6 0
29.1 0.6 0
29.4 0.6 0
29.7 0.6 0
30 0.6 0
30.3 0.6 0
0 0.7 0
0.3 0.7 0
0.6 0.7 0
0.9 0.7 0
1.2 0.7 0
1.5 0.7 0
1.8 0.7 0
2.1 0.7 0
2.4 0.7 0
2.7 0.7 0
3 0.7 0
3.3 0.7 0
3.6 0.7 0
3.9 0.7 0
4.2 0.7 0
4.5 0.7 0
4.8 0.7 0
5.1 0.7 0
5.4 0.7 0
5.7 0.7 0
6 0.7 0
6.3 0.7 0
6.6 0.7 0
6.9 0.7 0
7.2 0.7 0
7.5 0.7 0
7.8 0.7 0
8.1 0.7 0
8.4 0.7 0
8.7 0.7 0
9 0.7 0
9.3 0.7 0
9.6 0.7 0
9.9 0.7 0
10.2 0.7 0
10.5 0.7 0
10.8 0.7 0
11.1 0.7 0
11.4 0.7 0
11.7 0.7 0
12 0.7 0
12.3 0.7 0
12.6 0.7 0
12.9 0.7 0
13.2 0.7 0
13.5 0.7 0
13.8 0.7 0
14.1 0.7 0
14.4 0.7 0
14.7 0.7 0
15 0.7 0
15.3 0.7 0
15.6 0.7 0
15.9 0.7 0
16.2 0.7 0
16.5 0.7 0
16.8 0.7 0
17.1 0.7 0
17.4 0.7 0
17.7 0.7 0
18 0.7 0
18.3 0.7 0
18.6 0.7 0
18.9 0.7 0
19.2 0.7 0
19.5 0.7 0
19.8 0.7 0
20.1 0.7 0
20.4 0.7 0
20.7 0.7 0
21 0.7 0
21.3 0.7 0
21.6 0.7 0
21.9 0.7 0
22.2 0.7 0
22.5 0.7 0
22.8 0.7 0
23.1 0.7 0
23.4 0.7 0
23.7 0.7 0
24 0.7 0
24.3 0.7 0
24.6 0.7 0
24.9 0.7 0
25.2 0.7 0
25.5 0.7 0
25.8 0.7 0
26.1 0.7 0
26.4 0.7 0
26.7 0.7 0
27 0.7 0
27.3 0.7 0
27.6 0.7 0
27.9 0.7 0
28.2 0.7 0
28.5 0.7 0
28.8 0.7 0
29.1 0.7 0
29.4 0.7 0
29.7 0.7 0
30 0.7 0
30.3 0.7 0
0 0.8 0
0.3 0.8 0
0.6 0.8 0
0.9 0.8 0
1.2 0.8 0
1.5 0.8 0
1.8 0.8 0
2.1 0.8 0
2.4 0.8 0
2.7 0.8 0
3 0.8 0
3.3 0.8 0
3.6 0.8 0
3.9 0.8 0
4.2 0.8 0
4.5 0.8 0
4.8 0.8 0
5.1 0.8 0
5.4 0.8 0
5.7 0.8 0
6 0.8 0
6.3 0.8 0
6.6 0.8 0
6.9 0.8 0
7.2 0.8 0
7.5 0.8 0
7.8 0.8 0
8.1 0.8 0
8.4 0.8 0
8.7 0.8 0
9 0.8 0
9.3 0.8 0
9.6 0.8 0
9.9 0.8 0
10.2 0.8 0
10.5 0.8 0
10.8 0.8 0
11.1 0.8 0
11.4 0.8 0
11.7 0.8 0
12 0.8 0
12.3 0.8 0
12.6 0.8 0
12.9 0.8 0
13.2 0.8 0
13.5 0.8 0
13.8 0.8 0
14.1 0.8 0
14.4 0.8 0
14.7 0.8 0
15 0.8 0
15.3 0.8 0
15.6 0.8 0
15.9 0.8 0
16.2 0.8 0
16.5 0.8 0
16.8 0.8 0
17.1 0.8 0
17.4 0.8 0
17.7 0.8 0
18 0.8 0
18.3 0.8 0
18.6 0.8 0
18.9 0.8 0
19.2 0.8 0
19.5 0.8 0
19.8 0.8 0
20.1 0.8 0
20.4 0.8 0
20.7 0.8 0
21 0.8 0
21.3 0.8 0
21.6 0.8 0
21.9 0.8 0
22.2 0.8 0
22.5 0.8 0
22.8 0.8 0
23.1 0.8 0
23.4 0.8 0
23.7 0.8 0
24 0.8 0
24.3 0.8 0
24.6 0.8 0
24.9 0.8 0
25.2 0.8 0
25.5 0.8 0
25.8 0.8 0
26.1 0.8 0
26.4 0.8 0
26.7 0.8 0
27 0.8 0
27.3 0.8 0
27.6 0.8 0
27.9 0.8 0
28.2 0.8 0
28.5 0.8 0
28.8 0.8 0
29.1 0.8 0
29.4 0.8 0
29.7 0.8 0
30 0.8 0
30.3 0.8 0
0 0.9 0
0.3 0.9 0
0.6 0.9 0
0.9 0.9 0
1.2 0.9 0
1.5 0.9 0
1.8 0.9 0
2.1 0.9 0
2.4 0.9 0
2.7 0.9 0
3 0.9 0
3.3 0.9 0
3.6 0.9 0
3.9 0.9 0
4.2 0.9 0
4.5 0.9 0
4.8 0.9 0
5.1 0.9 0
5.4 0.9 0
5.7 0.9 0
6 0.9 0
6.3 0.9 0
6.6 0.9 0
6.9 0.9 0
7.2 0.9 0
7.5 0.9 0
7.8 0.9 0
8.1 0.9 0
8.4 0.9 0
8.7 0.9 0
9 0.9 0
9.3 0.9 0
9.6 0.9 0
9.9 0.9 0
10.2 0.9 0
10.5 0.9 0
10.8 0.9 0
11.1 0.9 0
11.4 0.9 0
11.7 0.9 0
12 0.9 0
12.3 0.9 0
12.6 0.9 0
12.9 0.9 0
13.2 0.9 0
13.5 0.9 0
13.8 0.9 0
14.1 0.9 0
14.4 0.9 0
14.7 0.9 0
15 0.9 0
15.3 0.9 0
15.6 0.9 0
15.9 0.9 0
16.2 0.9 0
16.5 0.9 0
16.8 0.9 0
17.1 0.9 0
17.4 0.9 0
17.7 0.9 0
18 0.9 0
18.3 0.9 0
18.6 0.9 0
18.9 0.9 0
19.2 0.9 0
19.5 0.9 0
19.8 0.9 0
20.1 0.9 0
20.4 0.9 0
20.7 0.9 0
21 0.9 0
21.3 0.9 0
21.6 0.9 0
21.9 0.9 0
22.2 0.9 0
22.5 0.9 0
22.8 0.9 0
23.1 0.9 0
23.4 0.9 0
23.7 0.9 0
24 0.9 0
24.3 0.9 0
24.6 0.9 0
24.9 0.9 0
25.2 0.9 0
25.5 0.9 0
25.8 0.9 0
26.1 0.9 0
26.4 0.9 0
26.7 0.9 0
27 0.9 0
27.3 0.9 0
27.6 0.9 0
27.9 0.9 0
28.2 0.9 0
28.5 0.9 0
28.8 0.9 0
29.1 0.9 0
29.4 0.9 0
29.7 0.9 0
30 0.9 0
30.3 0.9 0
0 1 0
0.3 1 0
0.6 1 0
0.9 1 0
1.2 1 0
1.5 1 0
1.8 1 0
2.1 1 0
2.4 1 0
2.7 1 0
3 1 0
3.3 1 0
3.6 1 0
3.9 1 0
4.2 1 0
4.5 1 0
4.8 1 0
5.1 1 0
5.4 1 0
5.7 1 0
6 1 0
6.3 1 0
6.6 1 0
6.9 1 0
7.2 1 0
7.5 1 0
7.8 1 0
8.1 1 0
8.4 1 0
8.7 1 0
9 1 0
9.3 1 0
9.6 1 0
9.9 1 0
10.2 1 0
10.5 1 0
10.8 1 0
11.1 1 0
11.4 1 0
11.7 1 0
12 1 0
12.3 1 0
12.6 1 0
12.9 1 0
13.2 1 0
13.5 1 0
13.8 1 0
14.1 1 0
14.4 1 0
14.7 1 0
15 1 0
15.3 1 0
15.6 1 0
15.9 1 0
16.2 1 0
16.5 1 0
16.8 1 0
17.1 1 0
17.4 1 0
17.7 1 0
18 1 0
18.3 1 0
18.6 1 0
18.9 1 0
19.2 1 0
19.5 1 0
19.8 1 0
20.1 1 0
20.4 1 0
20.7 1 0
21 1 0
21.3 1 0
21.6 1 0
21.9 1 0
22.2 1 0
22.5 1 0
22.8 1 0
23.1 1 0
23.4 1 0
23.7 1 0
24 1 0
24.3 1 0
24.6 1 0
24.9 1 0
25.2 1 0
25.5 1 0
25.8 1 0
26.1 1 0
26.4 1 0
26.7 1 0
27 1 0
27.3 1 0
27.6 1 0
27.9 1 0
28.2 1 0
28.5 1 0
28.8 1 0
29.1 1 0
29.4 1 0
29.7 1 0
30 1 0
30.3 1 0
0 1.1 0
0.3 1.1 0
0.6 1.1 0
0.9 1.1 0
1.2 1.1 0
1.5 1.1 0
1.8 1.1 0
2.1 1.1 0
2.4 1.1 0
2.7 1.1 0
3 1.1 0
3.3 1.1 0
3.6 1.1 0
3.9 1.1 0
4.2 1.1 0
4.5 1.1 0
4.8 1.1 0
5.1 1.1 0
5.4 1.1 0
5.7 1.1 0
6 1.1 0
6.3 1.1 0
6.6 1.1 0
6.9 1.1 0
7.2 1.1 0
7.5 1.1 0
7.8 1.1 0
8.1 1.1 0
8.4 1.1 0
8.7 1.1 0
9 1.1 0
9.3 1.1 0
9.6 1.1 0
9.9 1.1 0
10.2 1.1 0
10.5 1.1 0
10.8 1.1 0
11.1 1.1 0
11.4 1.1 0
11.7 1.1 0
12 1.1 0
12.3 1.1 0
12.6 1.1 0
12.9 1.1 0
13.2 1.1 0
13.5 1.1 0
13.8 1.1 0
14.1 1.1 0
14.4 1.1 0
14.7 1.1 0
15 1.1 0
15.3 1.1 0
15.6 1.1 0
15.9 1.1 0
16.2 1.1 0
16.5 1.1 0
16.8 1.1 0
17.1 1.1 0
17.4 1.1 0
17.7 1.1 0
18 1.1 0
18.3 1.1 0
18.6 1.1 0
18.9 1.1 0
19.2 1.1 0
19.5 1.1 0
19.8 1.1 0
20.1 1.1 0
20.4 1.1 0
20.7 1.1 0
21 1.1 0
21.3 1.1 0
21.6 1.1 0
21.9 1.1 0
22.2 1.1 0
22.5 1.1 0
22.8 1.1 0
23.1 1.1 0
23.4 1.1 0
23.7 1.1 0
24 1.1 0
24.3 1.1 0
24.6 1.1 0
24.9 1.1 0
25.2 1.1 0
25.5 1.1 0
25.8 1.1 0
26.1 1.1 0
26.4 1.1 0
26.7 1.1 0
27 1.1 0
27.3 1.1 0
27.6 1.1 0
27.9 1.1 0
28.2 1.1 0
28.5 1.1 0
28.8 1.1 0
29.1 1.1 0
29.4 1.1 0
29.7 1.1 0
30 1.1 0
30.3 1.1 0

POINT_DATA 1224

VECTORS velocity double
LOOKUP_TABLE default
-1 0 0
-0.890219 0 0
-0.795695 0 0
-0.743603 0 0
-0.722301 0 0
-0.715489 0 0
-0.71374 0 0
-0.713379 0 0
-0.713323 0 0
-0.713318 0 0
-0.713319 0 0
-0.71332 0 0
-0.71332 0 0
-0.71332 0 0
-0.71332 0 0
-0.71332 0 0
-0.713321 0 0
-0.713321 0 0
-0.713321 0 0
-0.713321 0 0
-0.713321 0 0
-0.713321 0 0
-0.713321 0 0
-0.713321 0 0
-0.713321 0 0
-0.713322 0 0
-0.713322 0 0
-0.713322 0 0
-0.713322 0 0
-0.713322 0 0
-0.713322 0 0
-0.713322 0 0
-0.713322 0 0
-0.713322 0 0
-0.713322 0 0
-0.713322 0 0
-0.713322 0 0
-0.713322 0 0
-0.713322 0 0
-0.713322 0 0
-0.713322 0 0
-0.713322 0 0
-0.713322 0 0
-0.713322 0 0
-0.713321 0 0
-0.713321 0 0
-0.713321 0 0
-0.713321 0 0
-0.713321 0 0
-0.713321 0 0
-0.713321 0 0
-0.713321 0 0
-0.71332 0 0
-0.71332 0 0
-0.71332 0 0
-0.71332 0 0
-0.71332 0 0
-0.71332 0 0
-0.713319 0 0
-0.713319 0 0
-0.713319 0 0
-0.713319 0 0
-0.713319 0 0
-0.713318 0 0
-0.713318 0 0
-0.713318 0 0
-0.713318 0 0
-0.713317 0 0
-0.713317 0 0
-0.713317 0 0
-0.713316 0 0
-0.713316 0 0
-0.713316 0 0
-0.713315 0 0
-0.713315 0 0
-0.713315 0 0
-0.713315 0 0
-0.713314 0 0
-0.713314 0 0
-0.713313 0 0
-0.713313 0 0
-0.713313 0 0
-0.713312 0 0
-0.713312 0 0
-0.713312 0 0
-0.713311 0 0
-0.713311 0 0
-0.713311 0 0
-0.71331 0 0
-0.71331 0 0
-0.71331 0 0
-0.713309 0 0
-0.713309 0 0
-0.713308 0 0
-0.713308 0 0
-0.71331 0 0
-0.713315 0 0
-0.713369 0 0
-0.713408 0 0
-0.71506 0 0
-0.71506 0 0
-1 0 0
1 -0.0365938 0
0.890219 0.0365938 0
0.795695 0.0315079 0
0.743603 0.0173639 0
0.722301 0.00710081 0
0.715489 0.00227054 0
0.71374 0.000583222 0
0.713379 0.000120162 0
0.713323 1.87552e-05 0
0.713318 1.60701e-06 0
0.713319 -2.65708e-07 0
0.71332 -1.96656e-07 0
0.71332 -9.53945e-08 0
0.71332 -6.31382e-08 0
0.71332 -5.6185e-08 0
0.71332 -5.55809e-08 0
0.713321 -5.6357e-08 0
0.713321 -5.74592e-08 0
0.713321 -5.86922e-08 0
0.713321 -6.00231e-08 0
0.713321 -6.14461e-08 0
0.713321 -6.29591e-08 0
0.713321 -6.45603e-08 0
0.713321 -6.62485e-08 0
0.713321 -6.80225e-08 0
0.713322 -6.98812e-08 0
0.713322 -7.18219e-08 0
0.713322 -7.38419e-08 0
0.713322 -7.5939e-08 0
0.713322 -7.81106e-08 0
0.713322 -8.03541e-08 0
0.713322 -8.26665e-08 0
0.713322 -8.50456e-08 0
0.713322 -8.74895e-08 0
0.713322 -8.99961e-08 0
0.713322 -9.25627e-08 0
0.713322 -9.51878e-08 0
0.713322 -9.78708e-08 0
0.713322 -1.0061e-07 0
0.713322 -1.03399e-07 0
0.713322 -1.06233e-07 0
0.713322 -1.0911e-07 0
0.713322 -1.12027e-07 0
0.713322 -1.14983e-07 0
0.713321 -1.17975e-07 0
0.713321 -1.21003e-07 0
0.713321 -1.24064e-07 0
0.713321 -1.27155e-07 0
0.713321 -1.30261e-07 0
0.713321 -1.33412e-07 0
0.713321 -1.36605e-07 0
0.713321 -1.39837e-07 0
0.71332 -1.43098e-07 0
0.71332 -1.46358e-07 0
0.71332 -1.49595e-07 0
0.71332 -1.52818e-07 0
0.71332 -1.56037e-07 0
0.71332 -1.59256e-07 0
0.713319 -1.62472e-07 0
0.713319 -1.65679e-07 0
0.713319 -1.68869e-07 0
0.713319 -1.7204e-07 0
0.713319 -1.75193e-07 0
0.713318 -1.78326e-07 0
0.713318 -1.81435e-07 0
0.713318 -1.8452e-07 0
0.713318 -1.87576e-07 0
0.713317 -1.90601e-07 0
0.713317 -1.93592e-07 0
0.713317 -1.96545e-07 0
0.713316 -1.99458e-07 0
0.713316 -2.02328e-07 0
0.713316 -2.05152e-07 0
0.713315 -2.07927e-07 0
0.713315 -2.10651e-07 0
0.713315 -2.1332e-07 0
0.713315 -2.15931e-07 0
0.713314 -2.18482e-07 0
0.713314 -2.2097e-07 0
0.713313 -2.23394e-07 0
0.713313 -2.25749e-07 0
0.713313 -2.28033e-07 0
0.713312 -2.30244e-07 0
0.713312 -2.32378e-07 0
0.713312 -2.34434e-07 0
0.713311 -2.3641e-07 0
0.713311 -2.38304e-07 0
0.713311 -2.40115e-07 0
0.71331 -2.41847e-07 0
0.71331 -2.43526e-07 0
0.71331 -2.45265e-07 0
0.713309 -2.47605e-07 0
0.713309 -2.5305e-07 0
0.713308 -2.73798e-07 0
0.713308 -3.60313e-07 0
0.71331 -8.48529e-07 0
0.713315 -2.1107e-06 0
0.713369 -1.83194e-05 0
0.713408 -1.3468e-05 0
0.71506 -0.000551086 0
0.71506 -0.000914241 0
1 -0.000914241 0
1 -0.0273087 0
1.02786 0.0273087 0
1.03692 0.028486 0
1.03956 0.0164853 0
1.04035 0.00683801 0
1.04062 0.00218046 0
1.04072 0.000546785 0
1.04077 0.000105157 0
1.04079 1.31539e-05 0
1.04079 -2.31687e-07 0
1.04079 -7.83609e-07 0
1.04079 -3.31093e-07 0
1.04079 -1.27154e-07 0
1.04079 -6.86697e-08 0
1.04079 -5.54293e-08 0
1.04079 -5.33614e-08 0
1.04079 -5.37491e-08 0
1.04079 -5.46876e-08 0
1.04079 -5.58038e-08 0
1.04079 -5.70307e-08 0
1.04079 -5.83563e-08 0
1.04079 -5.97777e-08 0
1.04079 -6.12931e-08 0
1.04079 -6.2901e-08 0
1.04079 -6.45999e-08 0
1.04079 -6.63881e-08 0
1.04079 -6.82647e-08 0
1.04079 -7.02286e-08 0
1.04079 -7.22778e-08 0
1.04079 -7.4409e-08 0
1.04079 -7.66181e-08 0
1.04079 -7.89011e-08 0
1.04079 -8.12557e-08 0
1.04079 -8.36806e-08 0
1.04079 -8.61738e-08 0
1.04079 -8.87333e-08 0
1.04079 -9.13572e-08 0
1.04079 -9.40431e-08 0
1.04079 -9.67873e-08 0
1.04079 -9.95857e-08 0
1.04079 -1.02436e-07 0
1.04079 -1.05336e-07 0
1.04079 -1.08285e-07 0
1.04079 -1.11279e-07 0
1.04079 -1.14316e-07 0
1.04079 -1.17393e-07 0
1.04079 -1.20506e-07 0
1.04079 -1.2365e-07 0
1.04079 -1.26827e-07 0
1.04079 -1.3004e-07 0
1.04079 -1.33279e-07 0
1.04079 -1.36538e-07 0
1.04079 -1.39807e-07 0
1.04079 -1.4308e-07 0
1.04079 -1.4636e-07 0
1.04079 -1.49655e-07 0
1.04079 -1.52962e-07 0
1.04079 -1.56276e-07 0
1.04079 -1.59591e-07 0
1.04079 -1.62902e-07 0
1.04079 -1.66206e-07 0
1.04079 -1.69502e-07 0
1.04079 -1.72788e-07 0
1.04079 -1.7606e-07 0
1.04079 -1.79315e-07 0
1.04079 -1.82548e-07 0
1.04079 -1.85758e-07 0
1.04079 -1.8894e-07 0
1.04079 -1.92092e-07 0
1.04079 -1.95211e-07 0
1.04079 -1.98294e-07 0
1.04079 -2.01337e-07 0
1.04079 -2.04337e-07 0
1.04078 -2.07292e-07 0
1.04078 -2.10198e-07 0
1.04078 -2.13053e-07 0
1.04078 -2.15854e-07 0
1.04078 -2.18596e-07 0
1.04078 -2.21279e-07 0
1.04078 -2.23899e-07 0
1.04078 -2.26452e-07 0
1.04078 -2.28936e-07 0
1.04078 -2.31349e-07 0
1.04078 -2.33688e-07 0
1.04078 -2.3595e-07 0
1.04078 -2.38134e-07 0
1.04078 -2.40237e-07 0
1.04078 -2.4226e-07 0
1.04078 -2.44209e-07 0
1.04078 -2.46124e-07 0
1.04078 -2.48179e-07 0
1.04078 -2.51179e-07 0
1.04078 -2.58863e-07 0
1.04078 -2.88897e-07 0
1.04078 -4.21868e-07 0
1.04078 -1.0722e-06 0
1.04078 -3.65188e-06 0
1.04079 -2.08198e-05 0
1.04091 -5.34433e-05 0
1.04092 -0.000556321 0
1.04092 -0.000912575 0
1 -0.000912575 0
1 -0.0164324 0
1.03263 0.0164324 0
1.05991 0.0193907 0
1.0736 0.0119235 0
1.07843 0.00522777 0
1.07965 0.00177472 0
1.07985 0.000481016 0
1.07985 0.000103566 0
1.07984 1.64638e-05 0
1.07984 1.21513e-06 0
1.07984 -3.64728e-07 0
1.07983 -2.25256e-07 0
1.07983 -9.33813e-08 0
1.07983 -4.84886e-08 0
1.07983 -3.74641e-08 0
1.07983 -3.58148e-08 0
1.07983 -3.64121e-08 0
1.07983 -3.75595e-08 0
1.07983 -3.89016e-08 0
1.07983 -4.03704e-08 0
1.07983 -4.19531e-08 0
1.07983 -4.3646e-08 0
1.07983 -4.54471e-08 0
1.07983 -4.73545e-08 0
1.07983 -4.93661e-08 0
1.07983 -5.14804e-08 0
1.07983 -5.36971e-08 0
1.07983 -5.60155e-08 0
1.07983 -5.8433e-08 0
1.07983 -6.09452e-08 0
1.07983 -6.35465e-08 0
1.07983 -6.62311e-08 0
1.07983 -6.8997e-08 0
1.07983 -7.18428e-08 0
1.07983 -7.47665e-08 0
1.07983 -7.77657e-08 0
1.07983 -8.08382e-08 0
1.07983 -8.39809e-08 0
1.07983 -8.71894e-08 0
1.07983 -9.04596e-08 0
1.07983 -9.37887e-08 0
1.07983 -9.71752e-08 0
1.07983 -1.00617e-07 0
1.07983 -1.04111e-07 0
1.07983 -1.07652e-07 0
1.07983 -1.11238e-07 0
1.07983 -1.14863e-07 0
1.07983 -1.18523e-07 0
1.07983 -1.22221e-07 0
1.07983 -1.25952e-07 0
1.07983 -1.29708e-07 0
1.07983 -1.33482e-07 0
1.07983 -1.37268e-07 0
1.07983 -1.41063e-07 0
1.07983 -1.44872e-07 0
1.07983 -1.48698e-07 0
1.07983 -1.52535e-07 0
1.07983 -1.56377e-07 0
1.07983 -1.60218e-07 0
1.07983 -1.64053e-07 0
1.07983 -1.6788e-07 0
1.07983 -1.71698e-07 0
1.07983 -1.75503e-07 0
1.07983 -1.7929e-07 0
1.07983 -1.83054e-07 0
1.07983 -1.86794e-07 0
1.07983 -1.90503e-07 0
1.07983 -1.9418e-07 0
1.07983 -1.9782e-07 0
1.07983 -2.0142e-07 0
1.07983 -2.04977e-07 0
1.07983 -2.08486e-07 0
1.07983 -2.11945e-07 0
1.07982 -2.1535e-07 0
1.07982 -2.18697e-07 0
1.07982 -2.21982e-07 0
1.07982 -2.25204e-07 0
1.07982 -2.28357e-07 0
1.07982 -2.3144e-07 0
1.07982 -2.34448e-07 0
1.07982 -2.37377e-07 0
1.07982 -2.40226e-07 0
1.07982 -2.42991e-07 0
1.07982 -2.45669e-07 0
1.07982 -2.48257e-07 0
1.07982 -2.50753e-07 0
1.07982 -2.53155e-07 0
1.07982 -2.55462e-07 0
1.07982 -2.57683e-07 0
1.07982 -2.59855e-07 0
1.07982 -2.62146e-07 0
1.07982 -2.65314e-07 0
1.07982 -2.72859e-07 0
1.07982 -3.01112e-07 0
1.07982 -4.2638e-07 0
1.07982 -1.01004e-06 0
1.07982 -3.61358e-06 0
1.07981 -1.69983e-05 0
1.07983 -6.07433e-05 0
1.07929 -0.000376056 0
1.07929 -0.000633219 0
1 -0.000633219 0
1 -0.00764548 0
1.02636 0.00764548 0
1.05547 0.00968629 0
1.07265 0.00619741 0
1.07988 0.00281926 0
1.08221 0.000996193 0
1.08281 0.000283061 0
1.08292 6.49171e-05 0
1.08294 1.152e-05 0
1.08294 1.27423e-06 0
1.08294 -7.70787e-08 0
1.08294 -1.00436e-07 0
1.08294 -4.44301e-08 0
1.08294 -2.19585e-08 0
1.08294 -1.64619e-08 0
1.08294 -1.61539e-08 0
1.08294 -1.72038e-08 0
1.08294 -1.86446e-08 0
1.08294 -2.02651e-08 0
1.08294 -2.20234e-08 0
1.08294 -2.3911e-08 0
1.08294 -2.59244e-08 0
1.08294 -2.80613e-08 0
1.08294 -3.03193e-08 0
1.08294 -3.26959e-08 0
1.08294 -3.51899e-08 0
1.08294 -3.78014e-08 0
1.08294 -4.05299e-08 0
1.08294 -4.33724e-08 0
1.08293 -4.63231e-08 0
1.08293 -4.93746e-08 0
1.08293 -5.25195e-08 0
1.08293 -5.57555e-08 0
1.08293 -5.90817e-08 0
1.08293 -6.24961e-08 0
1.08293 -6.59956e-08 0
1.08293 -6.95777e-08 0
1.08293 -7.32392e-08 0
1.08293 -7.69751e-08 0
1.08293 -8.07809e-08 0
1.08293 -8.46528e-08 0
1.08293 -8.85888e-08 0
1.08293 -9.25866e-08 0
1.08293 -9.66424e-08 0
1.08293 -1.00752e-07 0
1.08293 -1.04909e-07 0
1.08293 -1.0911e-07 0
1.08293 -1.1335e-07 0
1.08293 -1.1763e-07 0
1.08293 -1.21943e-07 0
1.08293 -1.26284e-07 0
1.08293 -1.30649e-07 0
1.08293 -1.35032e-07 0
1.08293 -1.3943e-07 0
1.08293 -1.43842e-07 0
1.08293 -1.48265e-07 0
1.08293 -1.52696e-07 0
1.08293 -1.57127e-07 0
1.08293 -1.61554e-07 0
1.08293 -1.65973e-07 0
1.08293 -1.70381e-07 0
1.08293 -1.74776e-07 0
1.08293 -1.79151e-07 0
1.08293 -1.83504e-07 0
1.08293 -1.87829e-07 0
1.08293 -1.92122e-07 0
1.08293 -1.96378e-07 0
1.08293 -2.00595e-07 0
1.08293 -2.04767e-07 0
1.08293 -2.08891e-07 0
1.08293 -2.12963e-07 0
1.08293 -2.16978e-07 0
1.08293 -2.20933e-07 0
1.08293 -2.24824e-07 0
1.08293 -2.28646e-07 0
1.08293 -2.32395e-07 0
1.08293 -2.36068e-07 0
1.08293 -2.39661e-07 0
1.08292 -2.43171e-07 0
1.08292 -2.46592e-07 0
1.08292 -2.49922e-07 0
1.08292 -2.53157e-07 0
1.08292 -2.56293e-07 0
1.08292 -2.59327e-07 0
1.08292 -2.62257e-07 0
1.08292 -2.65078e-07 0
1.08292 -2.67789e-07 0
1.08292 -2.70389e-07 0
1.08292 -2.72884e-07 0
1.08292 -2.75298e-07 0
1.08292 -2.77739e-07 0
1.08292 -2.80675e-07 0
1.08292 -2.86199e-07 0
1.08292 -3.03952e-07 0
1.08292 -3.79171e-07 0
1.08292 -7.22223e-07 0
1.08291 -2.30321e-06 0
1.08289 -9.67296e-06 0
1.08282 -3.78486e-05 0
1.08225 -0.000185524 0
1.08225 -0.000318249 0
1 -0.000318249 0
1 -7.9717e-08 0
1.02294 7.9717e-08 0
1.05199 6.18772e-08 0
1.07059 -2.10582e-07 0
1.07905 -3.92668e-07 0
1.08204 -3.62884e-07 0
1.08289 -2.32191e-07 0
1.08308 -1.13844e-07 0
1.08312 -4.31412e-08 0
1.08312 -1.00887e-08 0
1.08312 2.75337e-09 0
1.08312 6.72233e-09 0
1.08312 7.21953e-09 0
1.08312 6.46077e-09 0
1.08312 5.23488e-09 0
1.08312 3.78407e-09 0
1.08312 2.17153e-09 0
1.08312 4.10637e-10 0
1.08312 -1.49638e-09 0
1.08312 -3.54879e-09 0
1.08312 -5.74517e-09 0
1.08312 -8.0832e-09 0
1.08312 -1.05598e-08 0
1.08312 -1.31726e-08 0
1.08312 -1.59184e-08 0
1.08312 -1.8796e-08 0
1.08312 -2.18065e-08 0
1.08312 -2.49498e-08 0
1.08312 -2.82221e-08 0
1.08312 -3.16165e-08 0
1.08312 -3.51234e-08 0
1.08312 -3.8733e-08 0
1.08312 -4.24436e-08 0
1.08312 -4.62551e-08 0
1.08312 -5.01649e-08 0
1.08312 -5.41695e-08 0
1.08312 -5.82662e-08 0
1.08312 -6.24514e-08 0
1.08312 -6.67201e-08 0
1.08312 -7.10666e-08 0
1.08312 -7.54864e-08 0
1.08312 -7.99769e-08 0
1.08312 -8.45358e-08 0
1.08312 -8.9159e-08 0
1.08312 -9.38407e-08 0
1.08312 -9.85748e-08 0
1.08312 -1.03356e-07 0
1.08312 -1.08182e-07 0
1.08312 -1.13048e-07 0
1.08311 -1.17949e-07 0
1.08311 -1.22882e-07 0
1.08311 -1.27844e-07 0
1.08311 -1.32831e-07 0
1.08311 -1.37839e-07 0
1.08311 -1.4286e-07 0
1.08311 -1.47888e-07 0
1.08311 -1.52917e-07 0
1.08311 -1.57942e-07 0
1.08311 -1.6296e-07 0
1.08311 -1.67968e-07 0
1.08311 -1.72962e-07 0
1.08311 -1.77937e-07 0
1.08311 -1.82889e-07 0
1.08311 -1.87811e-07 0
1.08311 -1.927e-07 0
1.08311 -1.9755e-07 0
1.08311 -2.02358e-07 0
1.08311 -2.07118e-07 0
1.08311 -2.11826e-07 0
1.08311 -2.16477e-07 0
1.08311 -2.21067e-07 0
1.08311 -2.25591e-07 0
1.08311 -2.30045e-07 0
1.08311 -2.34424e-07 0
1.08311 -2.38724e-07 0
1.08311 -2.42939e-07 0
1.08311 -2.47067e-07 0
1.08311 -2.51102e-07 0
1.08311 -2.5504e-07 0
1.08311 -2.58877e-07 0
1.08311 -2.62609e-07 0
1.08311 -2.66231e-07 0
1.08311 -2.6974e-07 0
1.08311 -2.73132e-07 0
1.08311 -2.76403e-07 0
1.08311 -2.79551e-07 0
1.08311 -2.82572e-07 0
1.08311 -2.85464e-07 0
1.0831 -2.88229e-07 0
1.0831 -2.90873e-07 0
1.0831 -2.93413e-07 0
1.0831 -2.95882e-07 0
1.0831 -2.98305e-07 0
1.0831 -3.00557e-07 0
1.0831 -3.01641e-07 0
1.0831 -3.01831e-07 0
1.08309 -3.01938e-07 0
1.08307 -3.02538e-07 0
1.08295 -3.02868e-07 0
1.0824 -3.01829e-07 0
1.0824 -2.98977e-07 0
1 -2.98977e-07 0
1 0.00764533 0
1.02294 -0.00764533 0
1.052 -0.00968621 0
1.07059 -0.00619786 0
1.07905 -0.00282004 0
1.08204 -0.000996893 0
1.08289 -0.000283501 0
1.08308 -6.51298e-05 0
1.08312 -1.15988e-05 0
1.08312 -1.2913e-06 0
1.08312 8.37484e-08 0
1.08312 1.1428e-07 0
1.08312 5.89892e-08 0
1.08312 3.49067e-08 0
1.08312 2.69304e-08 0
1.08312 2.37137e-08 0
1.08312 2.1537e-08 0
1.08312 1.94557e-08 0
1.08312 1.72622e-08 0
1.08312 1.49156e-08 0
1.08312 1.24102e-08 0
1.08312 9.74739e-09 0
1.08312 6.93095e-09 0
1.08312 3.96329e-09 0
1.08312 8.48421e-10 0
1.08312 -2.41239e-09 0
1.08312 -5.82162e-09 0
1.08312 -9.37961e-09 0
1.08312 -1.30822e-08 0
1.08312 -1.69209e-08 0
1.08312 -2.0884e-08 0
1.08312 -2.49581e-08 0
1.08312 -2.9143e-08 0
1.08312 -3.34395e-08 0
1.08312 -3.78447e-08 0
1.08312 -4.23543e-08 0
1.08312 -4.69654e-08 0
1.08312 -5.16746e-08 0
1.08312 -5.6476e-08 0
1.08312 -6.13633e-08 0
1.08312 -6.63308e-08 0
1.08312 -7.13755e-08 0
1.08312 -7.64954e-08 0
1.08312 -8.1686e-08 0
1.08312 -8.69403e-08 0
1.08312 -9.22511e-08 0
1.08312 -9.76131e-08 0
1.08312 -1.03024e-07 0
1.08312 -1.08477e-07 0
1.08311 -1.13965e-07 0
1.08311 -1.19489e-07 0
1.08311 -1.25047e-07 0
1.08311 -1.30639e-07 0
1.08311 -1.36257e-07 0
1.08311 -1.41888e-07 0
1.08311 -1.47519e-07 0
1.08311 -1.53146e-07 0
1.08311 -1.58766e-07 0
1.08311 -1.64375e-07 0
1.08311 -1.69972e-07 0
1.08311 -1.75551e-07 0
1.08311 -1.81107e-07 0
1.08311 -1.86634e-07 0
1.08311 -1.92126e-07 0
1.08311 -1.97578e-07 0
1.08311 -2.02986e-07 0
1.08311 -2.08344e-07 0
1.08311 -2.13647e-07 0
1.08311 -2.1889e-07 0
1.08311 -2.24068e-07 0
1.08311 -2.29176e-07 0
1.08311 -2.34209e-07 0
1.08311 -2.39162e-07 0
1.08311 -2.44029e-07 0
1.08311 -2.48806e-07 0
1.08311 -2.53488e-07 0
1.08311 -2.58069e-07 0
1.08311 -2.62545e-07 0
1.08311 -2.66912e-07 0
1.08311 -2.71164e-07 0
1.08311 -2.75297e-07 0
1.08311 -2.79307e-07 0
1.08311 -2.83188e-07 0
1.08311 -2.86937e-07 0
1.08311 -2.90551e-07 0
1.08311 -2.94024e-07 0
1.08311 -2.97354e-07 0
1.08311 -3.00538e-07 0
1.0831 -3.03572e-07 0
1.0831 -3.06443e-07 0
1.0831 -3.09078e-07 0
1.0831 -3.11077e-07 0
1.0831 -3.10411e-07 0
1.0831 -2.97274e-07 0
1.0831 -2.24211e-07 0
1.0831 1.18549e-07 0
1.08309 1.6994e-06 0
1.08307 9.06785e-06 0
1.08295 3.72427e-05 0
1.0824 0.00018492 0
1.0824 0.000317651 0
1 0.000317651 0
1 0.0164323 0
1.02636 -0.0164323 0
1.05547 -0.0193907 0
1.07265 -0.011924 0
1.07988 -0.00522852 0
1.08221 -0.00177534 0
1.08281 -0.000481384 0
1.08292 -0.000103734 0
1.08294 -1.65211e-05 0
1.08294 -1.22328e-06 0
1.08294 3.74674e-07 0
1.08294 2.40186e-07 0
1.08294 1.08234e-07 0
1.08294 6.14673e-08 0
1.08294 4.78839e-08 0
1.08294 4.33034e-08 0
1.08294 4.06669e-08 0
1.08294 3.82886e-08 0
1.08294 3.58134e-08 0
1.08294 3.3174e-08 0
1.08294 3.03603e-08 0
1.08294 2.73734e-08 0
1.08294 2.42182e-08 0
1.08294 2.08969e-08 0
1.08294 1.7415e-08 0
1.08294 1.37743e-08 0
1.08294 9.9704e-09 0
1.08294 6.00203e-09 0
1.08293 1.87361e-09 0
1.08293 -2.40598e-09 0
1.08293 -6.8228e-09 0
1.08293 -1.13579e-08 0
1.08293 -1.60134e-08 0
1.08293 -2.07915e-08 0
1.08293 -2.56888e-08 0
1.08293 -3.06998e-08 0
1.08293 -3.58215e-08 0
1.08293 -4.10507e-08 0
1.08293 -4.6381e-08 0
1.08293 -5.18051e-08 0
1.08293 -5.7316e-08 0
1.08293 -6.29102e-08 0
1.08293 -6.85865e-08 0
1.08293 -7.43397e-08 0
1.08293 -8.01622e-08 0
1.08293 -8.6045e-08 0
1.08293 -9.19825e-08 0
1.08293 -9.79738e-08 0
1.08293 -1.04008e-07 0
1.08293 -1.10079e-07 0
1.08293 -1.16187e-07 0
1.08293 -1.22334e-07 0
1.08293 -1.28522e-07 0
1.08293 -1.34742e-07 0
1.08293 -1.40975e-07 0
1.08293 -1.47204e-07 0
1.08293 -1.53423e-07 0
1.08293 -1.5963e-07 0
1.08293 -1.65824e-07 0
1.08293 -1.72003e-07 0
1.08293 -1.78162e-07 0
1.08293 -1.84293e-07 0
1.08293 -1.9039e-07 0
1.08293 -1.96446e-07 0
1.08293 -2.02457e-07 0
1.08293 -2.08416e-07 0
1.08293 -2.14319e-07 0
1.08293 -2.2016e-07 0
1.08293 -2.25934e-07 0
1.08293 -2.31634e-07 0
1.08293 -2.37255e-07 0
1.08293 -2.42791e-07 0
1.08293 -2.48237e-07 0
1.08293 -2.53588e-07 0
1.08293 -2.58837e-07 0
1.08293 -2.6398e-07 0
1.08293 -2.6901e-07 0
1.08293 -2.73923e-07 0
1.08292 -2.78714e-07 0
1.08292 -2.83376e-07 0
1.08292 -2.87906e-07 0
1.08292 -2.92298e-07 0
1.08292 -2.96548e-07 0
1.08292 -3.0065e-07 0
1.08292 -3.04601e-07 0
1.08292 -3.08396e-07 0
1.08292 -3.12031e-07 0
1.08292 -3.15503e-07 0
1.08292 -3.18804e-07 0
1.08292 -3.21907e-07 0
1.08292 -3.24676e-07 0
1.08292 -3.26429e-07 0
1.08292 -3.23779e-07 0
1.08292 -3.00521e-07 0
1.08292 -1.77618e-07 0
1.08292 4.06033e-07 0