# vtk DataFile Version 2.0
FlowField
ASCII
DATASET STRUCTURED_GRID
DIMENSIONS 102 12 1 
POINTS 1224 double
0 0 0
0.3 0 0
0.6 0 0
0.9 0 0
1.2 0 0
1.5 0 0
1.8 0 0
2.1 0 0
2.4 0 0
2.7 0 0
3 0 0
3.3 0 0
3.6 0 0
3.9 0 0
4.2 0 0
4.5 0 0
4.8 0 0
5.1 0 0
5.4 0 0
5.7 0 0
6 0 0
6.3 0 0
6.6 0 0
6.9 0 0
7.2 0 0
7.5 0 0
7.8 0 0
8.1 0 0
8.4 0 0
8.7 0 0
9 0 0
9.3 0 0
9.6 0 0
9.9 0 0
10.2 0 0
10.5 0 0
10.8 0 0
11.1 0 0
11.4 0 0
11.7 0 0
12 0 0
12.3 0 0
12.6 0 0
12.9 0 0
13.2 0 0
13.5 0 0
13.8 0 0
14.1 0 0
14.4 0 0
14.7 0 0
15 0 0
15.3 0 0
15.6 0 0
15.9 0 0
16.2 0 0
16.5 0 0
16.8 0 0
17.1 0 0
17.4 0 0
17.7 0 0
18 0 0
18.3 0 0
18.6 0 0
18.9 0 0
19.2 0 0
19.5 0 0
19.8 0 0
20.1 0 0
20.4 0 0
20.7 0 0
21 0 0
21.3 0 0
21.6 0 0
21.9 0 0
22.2 0 0
22.5 0 0
22.8 0 0
23.1 0 0
23.4 0 0
23.7 0 0
24 0 0
24.3 0 0
24.6 0 0
24.9 0 0
25.2 0 0
25.5 0 0
25.8 0 0
26.1 0 0
26.4 0 0
26.7 0 0
27 0 0
27.3 0 0
27.6 0 0
27.9 0 0
28.2 0 0
28.5 0 0
28.8 0 0
29.1 0 0
29.4 0 0
29.7 0 0
30 0 0
30.3 0 0
0 0.1 0
0.3 0.1 0
0.6 0.1 0
0.9 0.1 0
1.2 0.1 0
1.5 0.1 0
1.8 0.1 0
2.1 0.1 0
2.4 0.1 0
2.7 0.1 0
3 0.1 0
3.3 0.1 0
3.6 0.1 0
3.9 0.1 0
4.2 0.1 0
4.5 0.1 0
4.8 0.1 0
5.1 0.1 0
5.4 0.1 0
5.7 0.1 0
6 0.1 0
6.3 0.1 0
6.6 0.1 0
6.9 0.1 0
7.2 0.1 0
7.5 0.1 0
7.8 0.1 0
8.1 0.1 0
8.4 0.1 0
8.7 0.1 0
9 0.1 0
9.3 0.1 0
9.6 0.1 0
9.9 0.1 0
10.2 0.1 0
10.5 0.1 0
10.8 0.1 0
11.1 0.1 0
11.4 0.1 0
11.7 0.1 0
12 0.1 0
12.3 0.1 0
12.6 0.1 0
12.9 0.1 0
13.2 0.1 0
13.5 0.1 0
13.8 0.1 0
14.1 0.1 0
14.4 0.1 0
14.7 0.1 0
15 0.1 0
15.3 0.1 0
15.6 0.1 0
15.9 0.1 0
16.2 0.1 0
16.5 0.1 0
16.8 0.1 0
17.1 0.1 0
17.4 0.1 0
17.7 0.1 0
18 0.1 0
18.3 0.1 0
18.6 0.1 0
18.9 0.1 0
19.2 0.1 0
19.5 0.1 0
19.8 0.1 0
20.1 0.1 0
20.4 0.1 0
20.7 0.1 0
21 0.1 0
21.3 0.1 0
21.6 0.1 0
21.9 0.1 0
22.2 0.1 0
22.5 0.1 0
22.8 0.1 0
23.1 0.1 0
23.4 0.1 0
23.7 0.1 0
24 0.1 0
24.3 0.1 0
24.6 0.1 0
24.9 0.1 0
25.2 0.1 0
25.5 0.1 0
25.8 0.1 0
26.1 0.1 0
26.4 0.1 0
26.7 0.1 0
27 0.1 0
27.3 0.1 0
27.6 0.1 0
27.9 0.1 0
28.2 0.1 0
28.5 0.1 0
28.8 0.1 0
29.1 0.1 0
29.4 0.1 0
29.7 0.1 0
30 0.1 0
30.3 0.1 0
0 0.2 0
0.3 0.2 0
0.6 0.2 0
0.9 0.2 0
1.2 0.2 0
1.5 0.2 0
1.8 0.2 0
2.1 0.2 0
2.4 0.2 0
2.7 0.2 0
3 0.2 0
3.3 0.2 0
3.6 0.2 0
3.9 0.2 0
4.2 0.2 0
4.5 0.2 0
4.8 0.2 0
5.1 0.2 0
5.4 0.2 0
5.7 0.2 0
6 0.2 0
6.3 0.2 0
6.6 0.2 0
6.9 0.2 0
7.2 0.2 0
7.5 0.2 0
7.8 0.2 0
8.1 0.2 0
8.4 0.2 0
8.7 0.2 0
9 0.2 0
9.3 0.2 0
9.6 0.2 0
9.9 0.2 0
10.2 0.2 0
10.5 0.2 0
10.8 0.2 0
11.1 0.2 0
11.4 0.2 0
11.7 0.2 0
12 0.2 0
12.3 0.2 0
12.6 0.2 0
12.9 0.2 0
13.2 0.2 0
13.5 0.2 0
13.8 0.2 0
14.1 0.2 0
14.4 0.2 0
14.7 0.2 0
15 0.2 0
15.3 0.2 0
15.6 0.2 0
15.9 0.2 0
16.2 0.2 0
16.5 0.2 0
16.8 0.2 0
17.1 0.2 0
17.4 0.2 0
17.7 0.2 0
18 0.2 0
18.3 0.2 0
18.6 0.2 0
18.9 0.2 0
19.2 0.2 0
19.5 0.2 0
19.8 0.2 0
20.1 0.2 0
20.4 0.2 0
20.7 0.2 0
21 0.2 0
21.3 0.2 0
21.6 0.2 0
21.9 0.2 0
22.2 0.2 0
22.5 0.2 0
22.8 0.2 0
23.1 0.2 0
23.4 0.2 0
23.7 0.2 0
24 0.2 0
24.3 0.2 0
24.6 0.2 0
24.9 0.2 0
25.2 0.2 0
25.5 0.2 0
25.8 0.2 0
26.1 0.2 0
26.4 0.2 0
26.7 0.2 0
27 0.2 0
27.3 0.2 0
27.6 0.2 0
27.9 0.2 0
28.2 0.2 0
28.5 0.2 0
28.8 0.2 0
29.1 0.2 0
29.4 0.2 0
29.7 0.2 0
30 0.2 0
30.3 0.2 0
0 0.3 0
0.3 0.3 0
0.6 0.3 0
0.9 0.3 0
1.2 0.3 0
1.5 0.3 0
1.8 0.3 0
2.1 0.3 0
2.4 0.3 0
2.7 0.3 0
3 0.3 0
3.3 0.3 0
3.6 0.3 0
3.9 0.3 0
4.2 0.3 0
4.5 0.3 0
4.8 0.3 0
5.1 0.3 0
5.4 0.3 0
5.7 0.3 0
6 0.3 0
6.3 0.3 0
6.6 0.3 0
6.9 0.3 0
7.2 0.3 0
7.5 0.3 0
7.8 0.3 0
8.1 0.3 0
8.4 0.3 0
8.7 0.3 0
9 0.3 0
9.3 0.3 0
9.6 0.3 0
9.9 0.3 0
10.2 0.3 0
10.5 0.3 0
10.8 0.3 0
11.1 0.3 0
11.4 0.3 0
11.7 0.3 0
12 0.3 0
12.3 0.3 0
12.6 0.3 0
12.9 0.3 0
13.2 0.3 0
13.5 0.3 0
13.8 0.3 0
14.1 0.3 0
14.4 0.3 0
14.7 0.3 0
15 0.3 0
15.3 0.3 0
15.6 0.3 0
15.9 0.3 0
16.2 0.3 0
16.5 0.3 0
16.8 0.3 0
17.1 0.3 0
17.4 0.3 0
17.7 0.3 0
18 0.3 0
18.3 0.3 0
18.6 0.3 0
18.9 0.3 0
19.2 0.3 0
19.5 0.3 0
19.8 0.3 0
20.1 0.3 0
20.4 0.3 0
20.7 0.3 0
21 0.3 0
21.3 0.3 0
21.6 0.3 0
21.9 0.3 0
22.2 0.3 0
22.5 0.3 0
22.8 0.3 0
23.1 0.3 0
23.4 0.3 0
23.7 0.3 0
24 0.3 0
24.3 0.3 0
24.6 0.3 0
24.9 0.3 0
25.2 0.3 0
25.5 0.3 0
25.8 0.3 0
26.1 0.3 0
26.4 0.3 0
26.7 0.3 0
27 0.3 0
27.3 0.3 0
27.6 0.3 0
27.9 0.3 0
28.2 0.3 0
28.5 0.3 0
28.8 0.3 0
29.1 0.3 0
29.4 0.3 0
29.7 0.3 0
30 0.3 0
30.3 0.3 0
0 0.4 0
0.3 0.4 0
0.6 0.4 0
0.9 0.4 0
1.2 0.4 0
1.5 0.4 0
1.8 0.4 0
2.1 0.4 0
2.4 0.4 0
2.7 0.4 0
3 0.4 0
3.3 0.4 0
3.6 0.4 0
3.9 0.4 0
4.2 0.4 0
4.5 0.4 0
4.8 0.4 0
5.1 0.4 0
5.4 0.4 0
5.7 0.4 0
6 0.4 0
6.3 0.4 0
6.6 0.4 0
6.9 0.4 0
7.2 0.4 0
7.5 0.4 0
7.8 0.4 0
8.1 0.4 0
8.4 0.4 0
8.7 0.4 0
9 0.4 0
9.3 0.4 0
9.6 0.4 0
9.9 0.4 0
10.2 0.4 0
10.5 0.4 0
10.8 0.4 0
11.1 0.4 0
11.4 0.4 0
11.7 0.4 0
12 0.4 0
12.3 0.4 0
12.6 0.4 0
12.9 0.4 0
13.2 0.4 0
13.5 0.4 0
13.8 0.4 0
14.1 0.4 0
14.4 0.4 0
14.7 0.4 0
15 0.4 0
15.3 0.4 0
15.6 0.4 0
15.9 0.4 0
16.2 0.4 0
16.5 0.4 0
16.8 0.4 0
17.1 0.4 0
17.4 0.4 0
17.7 0.4 0
18 0.4 0
18.3 0.4 0
18.6 0.4 0
18.9 0.4 0
19.2 0.4 0
19.5 0.4 0
19.8 0.4 0
20.1 0.4 0
20.4 0.4 0
20.7 0.4 0
21 0.4 0
21.3 0.4 0
21.6 0.4 0
21.9 0.4 0
22.2 0.4 0
22.5 0.4 0
22.8 0.4 0
23.1 0.4 0
23.4 0.4 0
23.7 0.4 0
24 0.4 0
24.3 0.4 0
24.6 0.4 0
24.9 0.4 0
25.2 0.4 0
25.5 0.4 0
25.8 0.4 0
26.1 0.4 0
26.4 0.4 0
26.7 0.4 0
27 0.4 0
27.3 0.4 0
27.6 0.4 0
27.9 0.4 0
28.2 0.4 0
28.5 0.4 0
28.8 0.4 0
29.1 0.4 0
29.4 0.4 0
29.7 0.4 0
30 0.4 0
30.3 0.4 0
0 0.5 0
0.3 0.5 0
0.6 0.5 0
0.9 0.5 0
1.2 0.5 0
1.5 0.5 0
1.8 0.5 0
2.1 0.5 0
2.4 0.5 0
2.7 0.5 0
3 0.5 0
3.3 0.5 0
3.6 0.5 0
3.9 0.5 0
4.2 0.5 0
4.5 0.5 0
4.8 0.5 0
5.1 0.5 0
5.4 0.5 0
5.7 0.5 0
6 0.5 0
6.3 0.5 0
6.6 0.5 0
6.9 0.5 0
7.2 0.5 0
7.5 0.5 0
7.8 0.5 0
8.1 0.5 0
8.4 0.5 0
8.7 0.5 0
9 0.5 0
9.3 0.5 0
9.6 0.5 0
9.9 0.5 0
10.2 0.5 0
10.5 0.5 0
10.8 0.5 0
11.1 0.5 0
11.4 0.5 0
11.7 0.5 0
12 0.5 0
12.3 0.5 0
12.6 0.5 0
12.9 0.5 0
13.2 0.5 0
13.5 0.5 0
13.8 0.5 0
14.1 0.5 0
14.4 0.5 0
14.7 0.5 0
15 0.5 0
15.3 0.5 0
15.6 0.5 0
15.9 0.5 0
16.2 0.5 0
16.5 0.5 0
16.8 0.5 0
17.1 0.5 0
17.4 0.5 0
17.7 0.5 0
18 0.5 0
18.3 0.5 0
18.6 0.5 0
18.9 0.5 0
19.2 0.5 0
19.5 0.5 0
19.8 0.5 0
20.1 0.5 0
20.4 0.5 0
20.7 0.5 0
21 0.5 0
21.3 0.5 0
21.6 0.5 0
21.9 0.5 0
22.2 0.5 0
22.5 0.5 0
22.8 0.5 0
23.1 0.5 0
23.4 0.5 0
23.7 0.5 0
24 0.5 0
24.3 0.5 0
24.6 0.5 0
24.9 0.5 0
25.2 0.5 0
25.5 0.5 0
25.8 0.5 0
26.1 0.5 0
26.4 0.5 0
26.7 0.5 0
27 0.5 0
27.3 0.5 0
27.6 0.5 0
27.9 0.5 0
28.2 0.5 0
28.5 0.5 0
28.8 0.5 0
29.1 0.5 0
29.4 0.5 0
29.7 0.5 0
30 0.5 0
30.3 0.5 0
0 0.6 0
0.3 0.6 0
0.6 0.6 0
0.9 0.6 0
1.2 0.6 0
1.5 0.6 0
1.8 0.6 0
2.1 0.6 0
2.4 0.6 0
2.7 0.6 0
3 0.6 0
3.3 0.6 0
3.6 0.6 0
3.9 0.6 0
4.2 0.6 0
4.5 0.6 0
4.8 0.6 0
5.1 0.6 0
5.4 0.6 0
5.7 0.6 0
6 0.6 0
6.3 0.6 0
6.6 0.6 0
6.9 0.6 0
7.2 0.6 0
7.5 0.6 0
7.8 0.6 0
8.1 0.6 0
8.4 0.6 0
8.7 0.6 0
9 0.6 0
9.3 0.6 0
9.6 0.6 0
9.9 0.6 0
10.2 0.6 0
10.5 0.6 0
10.8 0.6 0
11.1 0.6 0
11.4 0.6 0
11.7 0.6 0
12 0.6 0
12.3 0.6 0
12.6 0.6 0
12.9 0.6 0
13.2 0.6 0
13.5 0.6 0
13.8 0.6 0
14.1 0.6 0
14.4 0.6 0
14.7 0.6 0
15 0.6 0
15.3 0.6 0
15.6 0.6 0
15.9 0.6 0
16.2 0.6 0
16.5 0.6 0
16.8 0.6 0
17.1 0.6 0
17.4 0.6 0
17.7 0.6 0
18 0.6 0
18.3 0.6 0
18.6 0.6 0
18.9 0.6 0
19.2 0.6 0
19.5 0.6 0
19.8 0.6 0
20.1 0.6 0
20.4 0.6 0
20.7 0.6 0
21 0.6 0
21.3 0.6 0
21.6 0.6 0
21.9 0.6 0
22.2 0.6 0
22.5 0.6 0
22.8 0.6 0
23.1 0.6 0
23.4 0.6 0
23.7 0.6 0
24 0.6 0
24.3 0.6 0
24.6 0.6 0
24.9 0.6 0
25.2 0.6 0
25.5 0.6 0
25.8 0.6 0
26.1 0.6 0
26.4 0.6 0
26.7 0.6 0
27 0.6 0
27.3 0.6 0
27.6 0.6 0
27.9 0.6 0
28.2 0.6 0
28.5 0.6 0
28.8 0.6 0
29.1 0.6 0
29.4 0.6 0
29.7 0.6 0
30 0.6 0
30.3 0.6 0
0 0.7 0
0.3 0.7 0
0.6 0.7 0
0.9 0.7 0
1.2 0.7 0
1.5 0.7 0
1.8 0.7 0
2.1 0.7 0
2.4 0.7 0
2.7 0.7 0
3 0.7 0
3.3 0.7 0
3.6 0.7 0
3.9 0.7 0
4.2 0.7 0
4.5 0.7 0
4.8 0.7 0
5.1 0.7 0
5.4 0.7 0
5.7 0.7 0
6 0.7 0
6.3 0.7 0
6.6 0.7 0
6.9 0.7 0
7.2 0.7 0
7.5 0.7 0
7.8 0.7 0
8.1 0.7 0
8.4 0.7 0
8.7 0.7 0
9 0.7 0
9.3 0.7 0
9.6 0.7 0
9.9 0.7 0
10.2 0.7 0
10.5 0.7 0
10.8 0.7 0
11.1 0.7 0
11.4 0.7 0
11.7 0.7 0
12 0.7 0
12.3 0.7 0
12.6 0.7 0
12.9 0.7 0
13.2 0.7 0
13.5 0.7 0
13.8 0.7 0
14.1 0.7 0
14.4 0.7 0
14.7 0.7 0
15 0.7 0
15.3 0.7 0
15.6 0.7 0
15.9 0.7 0
16.2 0.7 0
16.5 0.7 0
16.8 0.7 0
17.1 0.7 0
17.4 0.7 0
17.7 0.7 0
18 0.7 0
18.3 0.7 0
18.6 0.7 0
18.9 0.7 0
19.2 0.7 0
19.5 0.7 0
19.8 0.7 0
20.1 0.7 0
20.4 0.7 0
20.7 0.7 0
21 0.7 0
21.3 0.7 0
21.6 0.7 0
21.9 0.7 0
22.2 0.7 0
22.5 0.7 0
22.8 0.7 0
23.1 0.7 0
23.4 0.7 0
23.7 0.7 0
24 0.7 0
24.3 0.7 0
24.6 0.7 0
24.9 0.7 0
25.2 0.7 0
25.5 0.7 0
25.8 0.7 0
26.1 0.7 0
26.4 0.7 0
26.7 0.7 0
27 0.7 0
27.3 0.7 0
27.6 0.7 0
27.9 0.7 0
28.2 0.7 0
28.5 0.7 0
28.8 0.7 0
29.1 0.7 0
29.4 0.7 0
29.7 0.7 0
30 0.7 0
30.3 0.7 0
0 0.8 0
0.3 0.8 0
0.6 0.8 0
0.9 0.8 0
1.2 0.8 0
1.5 0.8 0
1.8 0.8 0
2.1 0.8 0
2.4 0.8 0
2.7 0.8 0
3 0.8 0
3.3 0.8 0
3.6 0.8 0
3.9 0.8 0
4.2 0.8 0
4.5 0.8 0
4.8 0.8 0
5.1 0.8 0
5.4 0.8 0
5.7 0.8 0
6 0.8 0
6.3 0.8 0
6.6 0.8 0
6.9 0.8 0
7.2 0.8 0
7.5 0.8 0
7.8 0.8 0
8.1 0.8 0
8.4 0.8 0
8.7 0.8 0
9 0.8 0
9.3 0.8 0
9.6 0.8 0
9.9 0.8 0
10.2 0.8 0
10.5 0.8 0
10.8 0.8 0
11.1 0.8 0
11.4 0.8 0
11.7 0.8 0
12 0.8 0
12.3 0.8 0
12.6 0.8 0
12.9 0.8 0
13.2 0.8 0
13.5 0.8 0
13.8 0.8 0
14.1 0.8 0
14.4 0.8 0
14.7 0.8 0
15 0.8 0
15.3 0.8 0
15.6 0.8 0
15.9 0.8 0
16.2 0.8 0
16.5 0.8 0
16.8 0.8 0
17.1 0.8 0
17.4 0.8 0
17.7 0.8 0
18 0.8 0
18.3 0.8 0
18.6 0.8 0
18.9 0.8 0
19.2 0.8 0
19.5 0.8 0
19.8 0.8 0
20.1 0.8 0
20.4 0.8 0
20.7 0.8 0
21 0.8 0
21.3 0.8 0
21.6 0.8 0
21.9 0.8 0
22.2 0.8 0
22.5 0.8 0
22.8 0.8 0
23.1 0.8 0
23.4 0.8 0
23.7 0.8 0
24 0.8 0
24.3 0.8 0
24.6 0.8 0
24.9 0.8 0
25.2 0.8 0
25.5 0.8 0
25.8 0.8 0
26.1 0.8 0
26.4 0.8 0
26.7 0.8 0
27 0.8 0
27.3 0.8 0
27.6 0.8 0
27.9 0.8 0
28.2 0.8 0
28.5 0.8 0
28.8 0.8 0
29.1 0.8 0
29.4 0.8 0
29.7 0.8 0
30 0.8 0
30.3 0.8 0
0 0.9 0
0.3 0.9 0
0.6 0.9 0
0.9 0.9 0
1.2 0.9 0
1.5 0.9 0
1.8 0.9 0
2.1 0.9 0
2.4 0.9 0
2.7 0.9 0
3 0.9 0
3.3 0.9 0
3.6 0.9 0
3.9 0.9 0
4.2 0.9 0
4.5 0.9 0
4.8 0.9 0
5.1 0.9 0
5.4 0.9 0
5.7 0.9 0
6 0.9 0
6.3 0.9 0
6.6 0.9 0
6.9 0.9 0
7.2 0.9 0
7.5 0.9 0
7.8 0.9 0
8.1 0.9 0
8.4 0.9 0
8.7 0.9 0
9 0.9 0
9.3 0.9 0
9.6 0.9 0
9.9 0.9 0
10.2 0.9 0
10.5 0.9 0
10.8 0.9 0
11.1 0.9 0
11.4 0.9 0
11.7 0.9 0
12 0.9 0
12.3 0.9 0
12.6 0.9 0
12.9 0.9 0
13.2 0.9 0
13.5 0.9 0
13.8 0.9 0
14.1 0.9 0
14.4 0.9 0
14.7 0.9 0
15 0.9 0
15.3 0.9 0
15.6 0.9 0
15.9 0.9 0
16.2 0.9 0
16.5 0.9 0
16.8 0.9 0
17.1 0.9 0
17.4 0.9 0
17.7 0.9 0
18 0.9 0
18.3 0.9 0
18.6 0.9 0
18.9 0.9 0
19.2 0.9 0
19.5 0.9 0
19.8 0.9 0
20.1 0.9 0
20.4 0.9 0
20.7 0.9 0
21 0.9 0
21.3 0.9 0
21.6 0.9 0
21.9 0.9 0
22.2 0.9 0
22.5 0.9 0
22.8 0.9 0
23.1 0.9 0
23.4 0.9 0
23.7 0.9 0
24 0.9 0
24.3 0.9 0
24.6 0.9 0
24.9 0.9 0
25.2 0.9 0
25.5 0.9 0
25.8 0.9 0
26.1 0.9 0
26.4 0.9 0
26.7 0.9 0
27 0.9 0
27.3 0.9 0
27.6 0.9 0
27.9 0.9 0
28.2 0.9 0
28.5 0.9 0
28.8 0.9 0
29.1 0.9 0
29.4 0.9 0
29.7 0.9 0
30 0.9 0
30.3 0.9 0
0 1 0
0.3 1 0
0.6 1 0
0.9 1 0
1.2 1 0
1.5 1 0
1.8 1 0
2.1 1 0
2.4 1 0
2.7 1 0
3 1 0
3.3 1 0
3.6 1 0
3.9 1 0
4.2 1 0
4.5 1 0
4.8 1 0
5.1 1 0
5.4 1 0
5.7 1 0
6 1 0
6.3 1 0
6.6 1 0
6.9 1 0
7.2 1 0
7.5 1 0
7.8 1 0
8.1 1 0
8.4 1 0
8.7 1 0
9 1 0
9.3 1 0
9.6 1 0
9.9 1 0
10.2 1 0
10.5 1 0
10.8 1 0
11.1 1 0
11.4 1 0
11.7 1 0
12 1 0
12.3 1 0
12.6 1 0
12.9 1 0
13.2 1 0
13.5 1 0
13.8 1 0
14.1 1 0
14.4 1 0
14.7 1 0
15 1 0
15.3 1 0
15.6 1 0
15.9 1 0
16.2 1 0
16.5 1 0
16.8 1 0
17.1 1 0
17.4 1 0
17.7 1 0
18 1 0
18.3 1 0
18.6 1 0
18.9 1 0
19.2 1 0
19.5 1 0
19.8 1 0
20.1 1 0
20.4 1 0
20.7 1 0
21 1 0
21.3 1 0
21.6 1 0
21.9 1 0
22.2 1 0
22.5 1 0
22.8 1 0
23.1 1 0
23.4 1 0
23.7 1 0
24 1 0
24.3 1 0
24.6 1 0
24.9 1 0
25.2 1 0
25.5 1 0
25.8 1 0
26.1 1 0
26.4 1 0
26.7 1 0
27 1 0
27.3 1 0
27.6 1 0
27.9 1 0
28.2 1 0
28.5 1 0
28.8 1 0
29.1 1 0
29.4 1 0
29.7 1 0
30 1 0
30.3 1 0
0 1.1 0
0.3 1.1 0
0.6 1.1 0
0.9 1.1 0
1.2 1.1 0
1.5 1.1 0
1.8 1.1 0
2.1 1.1 0
2.4 1.1 0
2.7 1.1 0
3 1.1 0
3.3 1.1 0
3.6 1.1 0
3.9 1.1 0
4.2 1.1 0
4.5 1.1 0
4.8 1.1 0
5.1 1.1 0
5.4 1.1 0
5.7 1.1 0
6 1.1 0
6.3 1.1 0
6.6 1.1 0
6.9 1.1 0
7.2 1.1 0
7.5 1.1 0
7.8 1.1 0
8.1 1.1 0
8.4 1.1 0
8.7 1.1 0
9 1.1 0
9.3 1.1 0
9.6 1.1 0
9.9 1.1 0
10.2 1.1 0
10.5 1.1 0
10.8 1.1 0
11.1 1.1 0
11.4 1.1 0
11.7 1.1 0
12 1.1 0
12.3 1.1 0
12.6 1.1 0
12.9 1.1 0
13.2 1.1 0
13.5 1.1 0
13.8 1.1 0
14.1 1.1 0
14.4 1.1 0
14.7 1.1 0
15 1.1 0
15.3 1.1 0
15.6 1.1 0
15.9 1.1 0
16.2 1.1 0
16.5 1.1 0
16.8 1.1 0
17.1 1.1 0
17.4 1.1 0
17.7 1.1 0
18 1.1 0
18.3 1.1 0
18.6 1.1 0
18.9 1.1 0
19.2 1.1 0
19.5 1.1 0
19.8 1.1 0
20.1 1.1 0
20.4 1.1 0
20.7 1.1 0
21 1.1 0
21.3 1.1 0
21.6 1.1 0
21.9 1.1 0
22.2 1.1 0
22.5 1.1 0
22.8 1.1 0
23.1 1.1 0
23.4 1.1 0
23.7 1.1 0
24 1.1 0
24.3 1.1 0
24.6 1.1 0
24.9 1.1 0
25.2 1.1 0
25.5 1.1 0
25.8 1.1 0
26.1 1.1 0
26.4 1.1 0
26.7 1.1 0
27 1.1 0
27.3 1.1 0
27.6 1.1 0
27.9 1.1 0
28.2 1.1 0
28.5 1.1 0
28.8 1.1 0
29.1 1.1 0
29.4 1.1 0
29.7 1.1 0
30 1.1 0
30.3 1.1 0

POINT_DATA 1224

VECTORS velocity double
LOOKUP_TABLE default
-1 0 0
-0.889156 0 0
-0.78559 0 0
-0.720973 0 0
-0.690547 0 0
-0.679299 0 0
-0.675954 0 0
-0.675152 0 0
-0.675004 0 0
-0.674986 0 0
-0.674987 0 0
-0.674988 0 0
-0.674989 0 0
-0.674989 0 0
-0.674989 0 0
-0.67499 0 0
-0.67499 0 0
-0.67499 0 0
-0.67499 0 0
-0.67499 0 0
-0.67499 0 0
-0.67499 0 0
-0.67499 0 0
-0.67499 0 0
-0.674991 0 0
-0.674991 0 0
-0.674991 0 0
-0.674991 0 0
-0.674991 0 0
-0.674991 0 0
-0.674991 0 0
-0.674991 0 0
-0.674991 0 0
-0.674991 0 0
-0.674991 0 0
-0.674991 0 0
-0.674991 0 0
-0.674991 0 0
-0.674991 0 0
-0.674991 0 0
-0.674991 0 0
-0.674991 0 0
-0.674991 0 0
-0.674991 0 0
-0.674991 0 0
-0.674991 0 0
-0.674991 0 0
-0.674991 0 0
-0.674991 0 0
-0.674991 0 0
-0.67499 0 0
-0.67499 0 0
-0.67499 0 0
-0.67499 0 0
-0.67499 0 0
-0.67499 0 0
-0.67499 0 0
-0.67499 0 0
-0.674989 0 0
-0.674989 0 0
-0.674989 0 0
-0.674989 0 0
-0.674989 0 0
-0.674989 0 0
-0.674988 0 0
-0.674988 0 0
-0.674988 0 0
-0.674988 0 0
-0.674988 0 0
-0.674987 0 0
-0.674987 0 0
-0.674987 0 0
-0.674987 0 0
-0.674986 0 0
-0.674986 0 0
-0.674986 0 0
-0.674986 0 0
-0.674985 0 0
-0.674985 0 0
-0.674985 0 0
-0.674985 0 0
-0.674984 0 0
-0.674984 0 0
-0.674984 0 0
-0.674984 0 0
-0.674983 0 0
-0.674983 0 0
-0.674983 0 0
-0.674982 0 0
-0.674982 0 0
-0.674982 0 0
-0.674982 0 0
-0.674981 0 0
-0.674981 0 0
-0.674981 0 0
-0.674983 0 0
-0.674988 0 0
-0.675048 0 0
-0.675084 0 0
-0.676639 0 0
-0.676639 0 0
-1 0 0
1 -0.0369482 0
0.889156 0.0369482 0
0.78559 0.034522 0
0.720973 0.0215388 0
0.690547 0.0101422 0
0.679299 0.00374913 0
0.675954 0.00111505 0
0.675152 0.000267357 0
0.675004 4.95782e-05 0
0.674986 5.81381e-06 0
0.674987 -2.90652e-07 0
0.674988 -4.19971e-07 0
0.674989 -1.68206e-07 0
0.674989 -7.11538e-08 0
0.674989 -4.70696e-08 0
0.67499 -4.29168e-08 0
0.67499 -4.30709e-08 0
0.67499 -4.4057e-08 0
0.67499 -4.5236e-08 0
0.67499 -4.65096e-08 0
0.67499 -4.78654e-08 0
0.67499 -4.93015e-08 0
0.67499 -5.08165e-08 0
0.67499 -5.24091e-08 0
0.674991 -5.40783e-08 0
0.674991 -5.58229e-08 0
0.674991 -5.7641e-08 0
0.674991 -5.95305e-08 0
0.674991 -6.14893e-08 0
0.674991 -6.35152e-08 0
0.674991 -6.5606e-08 0
0.674991 -6.7759e-08 0
0.674991 -6.99713e-08 0
0.674991 -7.22403e-08 0
0.674991 -7.4564e-08 0
0.674991 -7.69404e-08 0
0.674991 -7.93681e-08 0
0.674991 -8.18462e-08 0
0.674991 -8.43733e-08 0
0.674991 -8.69454e-08 0
0.674991 -8.95577e-08 0
0.674991 -9.22069e-08 0
0.674991 -9.48914e-08 0
0.674991 -9.76097e-08 0
0.674991 -1.00359e-07 0
0.674991 -1.03138e-07 0
0.674991 -1.05946e-07 0
0.674991 -1.0878e-07 0
0.674991 -1.11628e-07 0
0.674991 -1.14507e-07 0
0.67499 -1.17421e-07 0
0.67499 -1.20366e-07 0
0.67499 -1.23338e-07 0
0.67499 -1.26313e-07 0
0.67499 -1.29272e-07 0
0.67499 -1.32215e-07 0
0.67499 -1.3515e-07 0
0.67499 -1.38081e-07 0
0.674989 -1.41008e-07 0
0.674989 -1.43925e-07 0
0.674989 -1.46826e-07 0
0.674989 -1.49709e-07 0
0.674989 -1.52572e-07 0
0.674989 -1.55415e-07 0
0.674988 -1.58234e-07 0
0.674988 -1.61029e-07 0
0.674988 -1.63796e-07 0
0.674988 -1.66532e-07 0
0.674988 -1.69235e-07 0
0.674987 -1.71901e-07 0
0.674987 -1.74529e-07 0
0.674987 -1.77116e-07 0
0.674987 -1.79659e-07 0
0.674986 -1.82155e-07 0
0.674986 -1.84602e-07 0
0.674986 -1.86997e-07 0
0.674986 -1.89337e-07 0
0.674985 -1.91621e-07 0
0.674985 -1.93845e-07 0
0.674985 -1.96008e-07 0
0.674985 -1.98108e-07 0
0.674984 -2.0014e-07 0
0.674984 -2.02104e-07 0
0.674984 -2.03997e-07 0
0.674984 -2.05816e-07 0
0.674983 -2.07561e-07 0
0.674983 -2.0923e-07 0
0.674983 -2.10823e-07 0
0.674982 -2.12348e-07 0
0.674982 -2.13837e-07 0
0.674982 -2.15439e-07 0
0.674982 -2.17823e-07 0
0.674981 -2.23964e-07 0
0.674981 -2.48529e-07 0
0.674981 -3.43734e-07 0
0.674983 -9.25444e-07 0
0.674988 -2.04203e-06 0
0.675048 -2.01586e-05 0
0.675084 -1.23707e-05 0
0.676639 -0.000518624 0
0.676639 -0.000804062 0
1 -0.000804062 0
1 -0.0277147 0
1.0277 0.0277147 0
1.0358 0.0318205 0
1.03785 0.0208559 0
1.03864 0.00988002 0
1.03913 0.00358753 0
1.03942 0.00101522 0
1.03958 0.000216207 0
1.03964 2.80057e-05 0
1.03967 -1.88712e-06 0
1.03967 -2.63673e-06 0
1.03967 -1.05933e-06 0
1.03968 -3.31666e-07 0
1.03968 -1.0998e-07 0
1.03968 -5.56462e-08 0
1.03968 -4.46668e-08 0
1.03968 -4.33104e-08 0
1.03968 -4.38903e-08 0
1.03968 -4.48746e-08 0
1.03968 -4.59921e-08 0
1.03968 -4.72002e-08 0
1.03968 -4.84921e-08 0
1.03968 -4.98661e-08 0
1.03968 -5.13208e-08 0
1.03968 -5.28548e-08 0
1.03968 -5.44667e-08 0
1.03968 -5.61558e-08 0
1.03968 -5.79214e-08 0
1.03968 -5.97627e-08 0
1.03968 -6.16773e-08 0
1.03968 -6.3662e-08 0
1.03968 -6.57131e-08 0
1.03968 -6.78269e-08 0
1.03967 -7.00001e-08 0
1.03967 -7.22308e-08 0
1.03967 -7.4518e-08 0
1.03967 -7.68608e-08 0
1.03967 -7.92576e-08 0
1.03967 -8.17055e-08 0
1.03967 -8.42004e-08 0
1.03967 -8.67393e-08 0
1.03967 -8.93211e-08 0
1.03967 -9.19448e-08 0
1.03967 -9.46082e-08 0
1.03967 -9.73087e-08 0
1.03967 -1.00044e-07 0
1.03967 -1.0281e-07 0
1.03967 -1.05603e-07 0
1.03967 -1.08421e-07 0
1.03967 -1.11272e-07 0
1.03967 -1.14148e-07 0
1.03967 -1.17042e-07 0
1.03967 -1.19944e-07 0
1.03967 -1.22845e-07 0
1.03967 -1.25748e-07 0
1.03967 -1.28659e-07 0
1.03967 -1.31581e-07 0
1.03967 -1.3451e-07 0
1.03967 -1.3744e-07 0
1.03967 -1.40366e-07 0
1.03967 -1.43283e-07 0
1.03967 -1.46192e-07 0
1.03967 -1.49091e-07 0
1.03967 -1.51977e-07 0
1.03967 -1.54846e-07 0
1.03967 -1.57695e-07 0
1.03967 -1.60522e-07 0
1.03967 -1.63324e-07 0
1.03967 -1.66097e-07 0
1.03967 -1.68839e-07 0
1.03967 -1.71548e-07 0
1.03967 -1.7422e-07 0
1.03967 -1.76854e-07 0
1.03967 -1.79446e-07 0
1.03967 -1.81993e-07 0
1.03967 -1.84493e-07 0
1.03967 -1.86944e-07 0
1.03967 -1.89342e-07 0
1.03967 -1.91686e-07 0
1.03967 -1.93973e-07 0
1.03967 -1.962e-07 0
1.03967 -1.98364e-07 0
1.03967 -2.00464e-07 0
1.03967 -2.02497e-07 0
1.03966 -2.04461e-07 0
1.03966 -2.06355e-07 0
1.03966 -2.08177e-07 0
1.03966 -2.0993e-07 0
1.03966 -2.11624e-07 0
1.03966 -2.13312e-07 0
1.03966 -2.15215e-07 0
1.03966 -2.18315e-07 0
1.03966 -2.27025e-07 0
1.03966 -2.618e-07 0
1.03966 -4.09869e-07 0
1.03966 -1.14959e-06 0
1.03967 -3.6742e-06 0
1.03967 -2.28844e-05 0
1.03978 -4.78156e-05 0
1.03988 -0.000553086 0
1.03988 -0.000847348 0
1 -0.000847348 0
1 -0.0166417 0
1.03322 0.0166417 0
1.06383 0.0216161 0
1.08157 0.0149427 0
1.08898 0.00741209 0
1.09122 0.00283957 0
1.09168 0.000861754 0
1.09172 0.000204452 0
1.0917 3.42907e-05 0
1.09169 1.82856e-06 0
1.09168 -1.38749e-06 0
1.09168 -7.34536e-07 0
1.09168 -2.53446e-07 0
1.09168 -8.3823e-08 0
1.09168 -3.83406e-08 0
1.09168 -2.85803e-08 0
1.09168 -2.74322e-08 0
1.09168 -2.81594e-08 0
1.09168 -2.93142e-08 0
1.09168 -3.06208e-08 0
1.09168 -3.20318e-08 0
1.09168 -3.35391e-08 0
1.09168 -3.51402e-08 0
1.09168 -3.68333e-08 0
1.09168 -3.86168e-08 0
1.09168 -4.0489e-08 0
1.09168 -4.24499e-08 0
1.09168 -4.44996e-08 0
1.09168 -4.66375e-08 0
1.09168 -4.88604e-08 0
1.09168 -5.11641e-08 0
1.09168 -5.35437e-08 0
1.09168 -5.59941e-08 0
1.09168 -5.85107e-08 0
1.09168 -6.10917e-08 0
1.09168 -6.37364e-08 0
1.09168 -6.64439e-08 0
1.09168 -6.92124e-08 0
1.09168 -7.20384e-08 0
1.09168 -7.49177e-08 0
1.09168 -7.78473e-08 0
1.09168 -8.08256e-08 0
1.09168 -8.38516e-08 0
1.09168 -8.6923e-08 0
1.09168 -9.00365e-08 0
1.09168 -9.31884e-08 0
1.09168 -9.63744e-08 0
1.09168 -9.95897e-08 0
1.09168 -1.02836e-07 0
1.09168 -1.06112e-07 0
1.09168 -1.09411e-07 0
1.09168 -1.12727e-07 0
1.09168 -1.1605e-07 0
1.09168 -1.19378e-07 0
1.09168 -1.22713e-07 0
1.09168 -1.2606e-07 0
1.09168 -1.29419e-07 0
1.09168 -1.32784e-07 0
1.09168 -1.36147e-07 0
1.09167 -1.39504e-07 0
1.09167 -1.42854e-07 0
1.09167 -1.46193e-07 0
1.09167 -1.49521e-07 0
1.09167 -1.52832e-07 0
1.09167 -1.56124e-07 0
1.09167 -1.59392e-07 0
1.09167 -1.62634e-07 0
1.09167 -1.65845e-07 0
1.09167 -1.69023e-07 0
1.09167 -1.72166e-07 0
1.09167 -1.75269e-07 0
1.09167 -1.78329e-07 0
1.09167 -1.81344e-07 0
1.09167 -1.8431e-07 0
1.09167 -1.87225e-07 0
1.09167 -1.90085e-07 0
1.09167 -1.92888e-07 0
1.09167 -1.9563e-07 0
1.09167 -1.98309e-07 0
1.09167 -2.00921e-07 0
1.09167 -2.03464e-07 0
1.09167 -2.05935e-07 0
1.09167 -2.08331e-07 0
1.09167 -2.1065e-07 0
1.09167 -2.1289e-07 0
1.09167 -2.15048e-07 0
1.09167 -2.17124e-07 0
1.09167 -2.19119e-07 0
1.09167 -2.21047e-07 0
1.09167 -2.22956e-07 0
1.09167 -2.25061e-07 0
1.09167 -2.28278e-07 0
1.09167 -2.36693e-07 0
1.09167 -2.68787e-07 0
1.09167 -4.07931e-07 0
1.09167 -1.04788e-06 0
1.09167 -3.69548e-06 0
1.09165 -1.80925e-05 0
1.09168 -5.66584e-05 0
1.09115 -0.000378477 0
1.09115 -0.000597183 0
1 -0.000597183 0
1 -0.00771704 0
1.02677 0.00771704 0
1.0594 0.0107421 0
1.08113 0.00769711 0
1.09152 0.00394962 0
1.09532 0.00157322 0
1.0964 0.000501414 0
1.09663 0.00012767 0
1.09666 2.45692e-05 0
1.09666 2.67239e-06 0
1.09665 -3.6553e-07 0
1.09665 -3.22936e-07 0
1.09665 -1.21374e-07 0
1.09665 -3.77351e-08 0
1.09665 -1.38954e-08 0
1.09665 -8.97566e-09 0
1.09665 -8.9287e-09 0
1.09665 -1.00308e-08 0
1.09665 -1.14439e-08 0
1.09665 -1.30021e-08 0
1.09665 -1.46758e-08 0
1.09665 -1.64592e-08 0
1.09665 -1.83495e-08 0
1.09665 -2.03448e-08 0
1.09665 -2.24427e-08 0
1.09665 -2.46416e-08 0
1.09665 -2.69422e-08 0
1.09665 -2.93453e-08 0
1.09665 -3.18502e-08 0
1.09665 -3.44531e-08 0
1.09665 -3.71483e-08 0
1.09665 -3.99297e-08 0
1.09665 -4.27908e-08 0
1.09665 -4.57254e-08 0
1.09665 -4.8732e-08 0
1.09665 -5.18099e-08 0
1.09665 -5.49587e-08 0
1.09665 -5.81762e-08 0
1.09665 -6.14589e-08 0
1.09665 -6.48021e-08 0
1.09665 -6.82021e-08 0
1.09665 -7.16566e-08 0
1.09665 -7.51644e-08 0
1.09665 -7.8723e-08 0
1.09665 -8.23285e-08 0
1.09665 -8.59761e-08 0
1.09665 -8.9661e-08 0
1.09665 -9.33793e-08 0
1.09665 -9.71303e-08 0
1.09665 -1.00911e-07 0
1.09665 -1.04716e-07 0
1.09665 -1.08541e-07 0
1.09665 -1.12381e-07 0
1.09665 -1.16232e-07 0
1.09665 -1.20093e-07 0
1.09665 -1.23963e-07 0
1.09665 -1.2784e-07 0
1.09665 -1.31717e-07 0
1.09665 -1.3559e-07 0
1.09665 -1.39455e-07 0
1.09665 -1.43308e-07 0
1.09665 -1.47149e-07 0
1.09665 -1.50973e-07 0
1.09665 -1.54776e-07 0
1.09665 -1.58554e-07 0
1.09665 -1.62303e-07 0
1.09665 -1.6602e-07 0
1.09665 -1.697e-07 0
1.09665 -1.7334e-07 0
1.09665 -1.76937e-07 0
1.09665 -1.80487e-07 0
1.09664 -1.83987e-07 0
1.09664 -1.87433e-07 0
1.09664 -1.90821e-07 0
1.09664 -1.94149e-07 0
1.09664 -1.97412e-07 0
1.09664 -2.00607e-07 0
1.09664 -2.03731e-07 0
1.09664 -2.0678e-07 0
1.09664 -2.09752e-07 0
1.09664 -2.12643e-07 0
1.09664 -2.15449e-07 0
1.09664 -2.18168e-07 0
1.09664 -2.20797e-07 0
1.09664 -2.23334e-07 0
1.09664 -2.25775e-07 0
1.09664 -2.2812e-07 0
1.09664 -2.30371e-07 0
1.09664 -2.32536e-07 0
1.09664 -2.3465e-07 0
1.09664 -2.36855e-07 0
1.09664 -2.39715e-07 0
1.09664 -2.45664e-07 0
1.09664 -2.65476e-07 0
1.09664 -3.48408e-07 0
1.09664 -7.17352e-07 0
1.09663 -2.34592e-06 0
1.09661 -1.00472e-05 0
1.09655 -3.59649e-05 0
1.09597 -0.00018657 0
1.09597 -0.00030102 0
1 -0.00030102 0
1 -4.21499e-08 0
1.02315 4.21499e-08 0
1.05538 8.22409e-08 0
1.07847 -9.1306e-08 0
1.09032 -2.85562e-07 0
1.09504 -3.31492e-07 0
1.09654 -2.51768e-07 0
1.09693 -1.41794e-07 0
1.097 -5.97644e-08 0
1.09701 -1.47273e-08 0
1.09701 5.14577e-09 0
1.09701 1.23134e-08 0
1.09701 1.40382e-08 0
1.09701 1.37112e-08 0
1.09701 1.26714e-08 0
1.09701 1.13658e-08 0
1.09701 9.91527e-09 0
1.09701 8.3423e-09 0
1.09701 6.64739e-09 0
1.09701 4.8287e-09 0
1.09701 2.88589e-09 0
1.09701 8.20236e-10 0
1.09701 -1.36563e-09 0
1.09701 -3.66939e-09 0
1.09701 -6.0882e-09 0
1.09701 -8.62023e-09 0
1.09701 -1.1267e-08 0
1.09701 -1.40303e-08 0
1.09701 -1.69095e-08 0
1.09701 -1.98999e-08 0
1.09701 -2.29943e-08 0
1.09701 -2.61853e-08 0
1.09701 -2.94649e-08 0
1.09701 -3.28249e-08 0
1.09701 -3.62642e-08 0
1.09701 -3.97829e-08 0
1.09701 -4.33804e-08 0
1.097 -4.70548e-08 0
1.097 -5.08022e-08 0
1.097 -5.46175e-08 0
1.097 -5.84959e-08 0
1.097 -6.24345e-08 0
1.097 -6.6432e-08 0
1.097 -7.04859e-08 0
1.097 -7.45914e-08 0
1.097 -7.87428e-08 0
1.097 -8.29347e-08 0
1.097 -8.7164e-08 0
1.097 -9.14277e-08 0
1.097 -9.57212e-08 0
1.097 -1.00041e-07 0
1.097 -1.04385e-07 0
1.097 -1.08751e-07 0
1.097 -1.13136e-07 0
1.097 -1.17533e-07 0
1.097 -1.21937e-07 0
1.097 -1.26339e-07 0
1.097 -1.30738e-07 0
1.097 -1.35128e-07 0
1.097 -1.39507e-07 0
1.097 -1.43873e-07 0
1.097 -1.48222e-07 0
1.097 -1.52549e-07 0
1.097 -1.5685e-07 0
1.097 -1.61121e-07 0
1.097 -1.65357e-07 0
1.097 -1.69554e-07 0
1.097 -1.73709e-07 0
1.097 -1.77817e-07 0
1.097 -1.81874e-07 0
1.097 -1.85877e-07 0
1.097 -1.89821e-07 0
1.097 -1.93702e-07 0
1.097 -1.97517e-07 0
1.097 -2.01261e-07 0
1.097 -2.04931e-07 0
1.097 -2.08523e-07 0
1.097 -2.12033e-07 0
1.097 -2.15457e-07 0
1.097 -2.18791e-07 0
1.097 -2.22032e-07 0
1.097 -2.25177e-07 0
1.097 -2.28221e-07 0
1.097 -2.31162e-07 0
1.097 -2.33998e-07 0
1.097 -2.36724e-07 0
1.097 -2.3934e-07 0
1.097 -2.41845e-07 0
1.09699 -2.44243e-07 0
1.09699 -2.46548e-07 0
1.09699 -2.4879e-07 0
1.09699 -2.51022e-07 0
1.09699 -2.53285e-07 0
1.09699 -2.55435e-07 0
1.09699 -2.55851e-07 0
1.09699 -2.5546e-07 0
1.09698 -2.54734e-07 0
1.09695 -2.54837e-07 0
1.09685 -2.55268e-07 0
1.09629 -2.55057e-07 0
1.09629 -2.54449e-07 0
1 -2.54449e-07 0
1 0.00771695 0
1.02315 -0.00771695 0
1.05538 -0.010742 0
1.07847 -0.00769733 0
1.09032 -0.0039502 0
1.09504 -0.00157386 0
1.09654 -0.000501893 0
1.09693 -0.000127935 0
1.097 -2.46777e-05 0
1.09701 -2.69668e-06 0
1.09701 3.77907e-07 0
1.09701 3.48316e-07 0
1.09701 1.49691e-07 0
1.09701 6.52183e-08 0
1.09701 3.92431e-08 0
1.09701 3.16977e-08 0
1.09701 2.87467e-08 0
1.09701 2.67026e-08 0
1.09701 2.47258e-08 0
1.09701 2.26465e-08 0
1.09701 2.04343e-08 0
1.09701 1.8086e-08 0
1.09701 1.56043e-08 0
1.09701 1.29917e-08 0
1.09701 1.02518e-08 0
1.09701 7.387e-09 0
1.09701 4.39456e-09 0
1.09701 1.27123e-09 0
1.09701 -1.9824e-09 0
1.09701 -5.36063e-09 0
1.09701 -8.85479e-09 0
1.09701 -1.24559e-08 0
1.09701 -1.61547e-08 0
1.09701 -1.994e-08 0
1.09701 -2.38118e-08 0
1.09701 -2.7771e-08 0
1.09701 -3.18171e-08 0
1.097 -3.59485e-08 0
1.097 -4.01608e-08 0
1.097 -4.44483e-08 0
1.097 -4.8805e-08 0
1.097 -5.32275e-08 0
1.097 -5.77146e-08 0
1.097 -6.22637e-08 0
1.097 -6.68695e-08 0
1.097 -7.15248e-08 0
1.097 -7.62235e-08 0
1.097 -8.09636e-08 0
1.097 -8.574e-08 0
1.097 -9.0546e-08 0
1.097 -9.53801e-08 0
1.097 -1.00243e-07 0
1.097 -1.05135e-07 0
1.097 -1.10054e-07 0
1.097 -1.14988e-07 0
1.097 -1.19924e-07 0
1.097 -1.24853e-07 0
1.097 -1.29772e-07 0
1.097 -1.34679e-07 0
1.097 -1.39572e-07 0
1.097 -1.4445e-07 0
1.097 -1.49306e-07 0
1.097 -1.54137e-07 0
1.097 -1.58936e-07 0
1.097 -1.637e-07 0
1.097 -1.68422e-07 0
1.097 -1.731e-07 0
1.097 -1.77729e-07 0
1.097 -1.82304e-07 0
1.097 -1.86821e-07 0
1.097 -1.91276e-07 0
1.097 -1.95664e-07 0
1.097 -1.99981e-07 0
1.097 -2.04222e-07 0
1.097 -2.08383e-07 0
1.097 -2.12459e-07 0
1.097 -2.16447e-07 0
1.097 -2.20342e-07 0
1.097 -2.2414e-07 0
1.097 -2.27836e-07 0
1.097 -2.31428e-07 0
1.097 -2.3491e-07 0
1.097 -2.38279e-07 0
1.097 -2.41533e-07 0
1.097 -2.44666e-07 0
1.097 -2.47676e-07 0
1.097 -2.50561e-07 0
1.097 -2.5332e-07 0
1.09699 -2.5595e-07 0
1.09699 -2.58441e-07 0
1.09699 -2.60712e-07 0
1.09699 -2.62311e-07 0
1.09699 -2.60905e-07 0
1.09699 -2.45576e-07 0
1.09699 -1.63407e-07 0
1.09699 2.0637e-07 0
1.09698 1.83653e-06 0
1.09695 9.53754e-06 0
1.09685 3.54543e-05 0
1.09629 0.00018606 0
1.09629 0.000300511 0
1 0.000300511 0
1 0.0166416 0
1.02677 -0.0166416 0
1.0594 -0.0216161 0
1.08113 -0.0149431 0
1.09152 -0.00741269 0
1.09532 -0.00284016 0
1.0964 -0.000862157 0
1.09663 -0.000204659 0
1.09666 -3.43671e-05 0
1.09666 -1.83797e-06 0
1.09665 1.40577e-06 0
1.09665 7.61984e-07 0
1.09665 2.82371e-07 0
1.09665 1.11411e-07 0
1.09665 6.36371e-08 0
1.09665 5.1208e-08 0
1.09665 4.71442e-08 0
1.09665 4.47202e-08 0
1.09665 4.24808e-08 0
1.09665 4.01451e-08 0
1.09665 3.76651e-08 0
1.09665 3.50353e-08 0
1.09665 3.22592e-08 0
1.09665 2.93397e-08 0
1.09665 2.62811e-08 0
1.09665 2.30873e-08 0
1.09665 1.97543e-08 0
1.09665 1.6277e-08 0
1.09665 1.26554e-08 0
1.09665 8.89613e-09 0
1.09665 5.00934e-09 0
1.09665 1.00517e-09 0
1.09665 -3.10724e-09 0
1.09665 -7.31162e-09 0
1.09665 -1.16102e-08 0
1.09665 -1.6004e-08 0
1.09665 -2.04928e-08 0
1.09665 -2.5075e-08 0
1.09665 -2.97462e-08 0
1.09665 -3.44996e-08 0
1.09665 -3.93282e-08 0
1.09665 -4.42276e-08 0
1.09665 -4.9197e-08 0
1.09665 -5.42342e-08 0
1.09665 -5.93331e-08 0
1.09665 -6.44851e-08 0
1.09665 -6.9683e-08 0
1.09665 -7.49264e-08 0
1.09665 -8.02081e-08 0
1.09665 -8.55187e-08 0
1.09665 -9.08578e-08 0
1.09665 -9.62284e-08 0
1.09665 -1.01635e-07 0
1.09665 -1.07076e-07 0
1.09665 -1.12536e-07 0
1.09665 -1.17994e-07 0
1.09665 -1.23439e-07 0
1.09665 -1.2887e-07 0
1.09665 -1.34285e-07 0
1.09665 -1.39684e-07 0
1.09665 -1.45064e-07 0
1.09665 -1.5042e-07 0
1.09665 -1.55745e-07 0
1.09665 -1.61034e-07 0
1.09665 -1.66281e-07 0
1.09665 -1.71482e-07 0
1.09665 -1.76633e-07 0
1.09665 -1.81727e-07 0
1.09665 -1.86762e-07 0
1.09665 -1.91731e-07 0
1.09665 -1.96631e-07 0
1.09664 -2.01455e-07 0
1.09664 -2.06199e-07 0
1.09664 -2.10859e-07 0
1.09664 -2.15429e-07 0
1.09664 -2.19904e-07 0
1.09664 -2.24281e-07 0
1.09664 -2.28554e-07 0
1.09664 -2.32718e-07 0
1.09664 -2.3677e-07 0
1.09664 -2.40705e-07 0
1.09664 -2.44519e-07 0
1.09664 -2.48207e-07 0
1.09664 -2.51765e-07 0
1.09664 -2.5519e-07 0
1.09664 -2.58478e-07 0
1.09664 -2.61627e-07 0
1.09664 -2.64633e-07 0
1.09664 -2.67491e-07 0
1.09664 -2.70171e-07 0
1.09664 -2.72519e-07 0
1.09664 -2.73741e-07 0
1.09664 -2.69914e-07 0
1.09664 -2.42928e-07 0
1.09664 -1.04688e-07 0
1.09664 5.36259e-07 0
1.09663 3.18596e-06 0
1.09661 1.75826e-05 0
1.09655 5.61473e-05 0
1.09597 0.000377968 0
1.09597 0.000596674 0
1 0.000596674 0
1 0.0277146 0
1.03322 -0.0277146 0
1.06383 -0.0318207 0
1.08157 -0.0208563 0
1.08898 -0.00988062 0