# vtk DataFile Version 2.0
FlowField
ASCII
DATASET STRUCTURED_GRID
DIMENSIONS 101 11 1 
POINTS 1111 double
0 0 0
0.3 0 0
0.6 0 0
0.9 0 0
1.2 0 0
1.5 0 0
1.8 0 0
2.1 0 0
2.4 0 0
2.7 0 0
3 0 0
3.3 0 0
3.6 0 0
3.9 0 0
4.2 0 0
4.5 0 0
4.8 0 0
5.1 0 0
5.4 0 0
5.7 0 0
6 0 0
6.3 0 0
6.6 0 0
6.9 0 0
7.2 0 0
7.5 0 0
7.8 0 0
8.1 0 0
8.4 0 0
8.7 0 0
9 0 0
9.3 0 0
9.6 0 0
9.9 0 0
10.2 0 0
10.5 0 0
10.8 0 0
11.1 0 0
11.4 0 0
11.7 0 0
12 0 0
12.3 0 0
12.6 0 0
12.9 0 0
13.2 0 0
13.5 0 0
13.8 0 0
14.1 0 0
14.4 0 0
14.7 0 0
15 0 0
15.3 0 0
15.6 0 0
15.9 0 0
16.2 0 0
16.5 0 0
16.8 0 0
17.1 0 0
17.4 0 0
17.7 0 0
18 0 0
18.3 0 0
18.6 0 0
18.9 0 0
19.2 0 0
19.5 0 0
19.8 0 0
20.1 0 0
20.4 0 0
20.7 0 0
21 0 0
21.3 0 0
21.6 0 0
21.9 0 0
22.2 0 0
22.5 0 0
22.8 0 0
23.1 0 0
23.4 0 0
23.7 0 0
24 0 0
24.3 0 0
24.6 0 0
24.9 0 0
25.2 0 0
25.5 0 0
25.8 0 0
26.1 0 0
26.4 0 0
26.7 0 0
27 0 0
27.3 0 0
27.6 0 0
27.9 0 0
28.2 0 0
28.5 0 0
28.8 0 0
29.1 0 0
29.4 0 0
29.7 0 0
30 0 0
0 0.1 0
0.3 0.1 0
0.6 0.1 0
0.9 0.1 0
1.2 0.1 0
1.5 0.1 0
1.8 0.1 0
2.1 0.1 0
2.4 0.1 0
2.7 0.1 0
3 0.1 0
3.3 0.1 0
3.6 0.1 0
3.9 0.1 0
4.2 0.1 0
4.5 0.1 0
4.8 0.1 0
5.1 0.1 0
5.4 0.1 0
5.7 0.1 0
6 0.1 0
6.3 0.1 0
6.6 0.1 0
6.9 0.1 0
7.2 0.1 0
7.5 0.1 0
7.8 0.1 0
8.1 0.1 0
8.4 0.1 0
8.7 0.1 0
9 0.1 0
9.3 0.1 0
9.6 0.1 0
9.9 0.1 0
10.2 0.1 0
10.5 0.1 0
10.8 0.1 0
11.1 0.1 0
11.4 0.1 0
11.7 0.1 0
12 0.1 0
12.3 0.1 0
12.6 0.1 0
12.9 0.1 0
13.2 0.1 0
13.5 0.1 0
13.8 0.1 0
14.1 0.1 0
14.4 0.1 0
14.7 0.1 0
15 0.1 0
15.3 0.1 0
15.6 0.1 0
15.9 0.1 0
16.2 0.1 0
16.5 0.1 0
16.8 0.1 0
17.1 0.1 0
17.4 0.1 0
17.7 0.1 0
18 0.1 0
18.3 0.1 0
18.6 0.1 0
18.9 0.1 0
19.2 0.1 0
19.5 0.1 0
19.8 0.1 0
20.1 0.1 0
20.4 0.1 0
20.7 0.1 0
21 0.1 0
21.3 0.1 0
21.6 0.1 0
21.9 0.1 0
22.2 0.1 0
22.5 0.1 0
22.8 0.1 0
23.1 0.1 0
23.4 0.1 0
23.7 0.1 0
24 0.1 0
24.3 0.1 0
24.6 0.1 0
24.9 0.1 0
25.2 0.1 0
25.5 0.1 0
25.8 0.1 0
26.1 0.1 0
26.4 0.1 0
26.7 0.1 0
27 0.1 0
27.3 0.1 0
27.6 0.1 0
27.9 0.1 0
28.2 0.1 0
28.5 0.1 0
28.8 0.1 0
29.1 0.1 0
29.4 0.1 0
29.7 0.1 0
30 0.1 0
0 0.2 0
0.3 0.2 0
0.6 0.2 0
0.9 0.2 0
1.2 0.2 0
1.5 0.2 0
1.8 0.2 0
2.1 0.2 0
2.4 0.2 0
2.7 0.2 0
3 0.2 0
3.3 0.2 0
3.6 0.2 0
3.9 0.2 0
4.2 0.2 0
4.5 0.2 0
4.8 0.2 0
5.1 0.2 0
5.4 0.2 0
5.7 0.2 0
6 0.2 0
6.3 0.2 0
6.6 0.2 0
6.9 0.2 0
7.2 0.2 0
7.5 0.2 0
7.8 0.2 0
8.1 0.2 0
8.4 0.2 0
8.7 0.2 0
9 0.2 0
9.3 0.2 0
9.6 0.2 0
9.9 0.2 0
10.2 0.2 0
10.5 0.2 0
10.8 0.2 0
11.1 0.2 0
11.4 0.2 0
11.7 0.2 0
12 0.2 0
12.3 0.2 0
12.6 0.2 0
12.9 0.2 0
13.2 0.2 0
13.5 0.2 0
13.8 0.2 0
14.1 0.2 0
14.4 0.2 0
14.7 0.2 0
15 0.2 0
15.3 0.2 0
15.6 0.2 0
15.9 0.2 0
16.2 0.2 0
16.5 0.2 0
16.8 0.2 0
17.1 0.2 0
17.4 0.2 0
17.7 0.2 0
18 0.2 0
18.3 0.2 0
18.6 0.2 0
18.9 0.2 0
19.2 0.2 0
19.5 0.2 0
19.8 0.2 0
20.1 0.2 0
20.4 0.2 0
20.7 0.2 0
21 0.2 0
21.3 0.2 0
21.6 0.2 0
21.9 0.2 0
22.2 0.2 0
22.5 0.2 0
22.8 0.2 0
23.1 0.2 0
23.4 0.2 0
23.7 0.2 0
24 0.2 0
24.3 0.2 0
24.6 0.2 0
24.9 0.2 0
25.2 0.2 0
25.5 0.2 0
25.8 0.2 0
26.1 0.2 0
26.4 0.2 0
26.7 0.2 0
27 0.2 0
27.3 0.2 0
27.6 0.2 0
27.9 0.2 0
28.2 0.2 0
28.5 0.2 0
28.8 0.2 0
29.1 0.2 0
29.4 0.2 0
29.7 0.2 0
30 0.2 0
0 0.3 0
0.3 0.3 0
0.6 0.3 0
0.9 0.3 0
1.2 0.3 0
1.5 0.3 0
1.8 0.3 0
2.1 0.3 0
2.4 0.3 0
2.7 0.3 0
3 0.3 0
3.3 0.3 0
3.6 0.3 0
3.9 0.3 0
4.2 0.3 0
4.5 0.3 0
4.8 0.3 0
5.1 0.3 0
5.4 0.3 0
5.7 0.3 0
6 0.3 0
6.3 0.3 0
6.6 0.3 0
6.9 0.3 0
7.2 0.3 0
7.5 0.3 0
7.8 0.3 0
8.1 0.3 0
8.4 0.3 0
8.7 0.3 0
9 0.3 0
9.3 0.3 0
9.6 0.3 0
9.9 0.3 0
10.2 0.3 0
10.5 0.3 0
10.8 0.3 0
11.1 0.3 0
11.4 0.3 0
11.7 0.3 0
12 0.3 0
12.3 0.3 0
12.6 0.3 0
12.9 0.3 0
13.2 0.3 0
13.5 0.3 0
13.8 0.3 0
14.1 0.3 0
14.4 0.3 0
14.7 0.3 0
15 0.3 0
15.3 0.3 0
15.6 0.3 0
15.9 0.3 0
16.2 0.3 0
16.5 0.3 0
16.8 0.3 0
17.1 0.3 0
17.4 0.3 0
17.7 0.3 0
18 0.3 0
18.3 0.3 0
18.6 0.3 0
18.9 0.3 0
19.2 0.3 0
19.5 0.3 0
19.8 0.3 0
20.1 0.3 0
20.4 0.3 0
20.7 0.3 0
21 0.3 0
21.3 0.3 0
21.6 0.3 0
21.9 0.3 0
22.2 0.3 0
22.5 0.3 0
22.8 0.3 0
23.1 0.3 0
23.4 0.3 0
23.7 0.3 0
24 0.3 0
24.3 0.3 0
24.6 0.3 0
24.9 0.3 0
25.2 0.3 0
25.5 0.3 0
25.8 0.3 0
26.1 0.3 0
26.4 0.3 0
26.7 0.3 0
27 0.3 0
27.3 0.3 0
27.6 0.3 0
27.9 0.3 0
28.2 0.3 0
28.5 0.3 0
28.8 0.3 0
29.1 0.3 0
29.4 0.3 0
29.7 0.3 0
30 0.3 0
0 0.4 0
0.3 0.4 0
0.6 0.4 0
0.9 0.4 0
1.2 0.4 0
1.5 0.4 0
1.8 0.4 0
2.1 0.4 0
2.4 0.4 0
2.7 0.4 0
3 0.4 0
3.3 0.4 0
3.6 0.4 0
3.9 0.4 0
4.2 0.4 0
4.5 0.4 0
4.8 0.4 0
5.1 0.4 0
5.4 0.4 0
5.7 0.4 0
6 0.4 0
6.3 0.4 0
6.6 0.4 0
6.9 0.4 0
7.2 0.4 0
7.5 0.4 0
7.8 0.4 0
8.1 0.4 0
8.4 0.4 0
8.7 0.4 0
9 0.4 0
9.3 0.4 0
9.6 0.4 0
9.9 0.4 0
10.2 0.4 0
10.5 0.4 0
10.8 0.4 0
11.1 0.4 0
11.4 0.4 0
11.7 0.4 0
12 0.4 0
12.3 0.4 0
12.6 0.4 0
12.9 0.4 0
13.2 0.4 0
13.5 0.4 0
13.8 0.4 0
14.1 0.4 0
14.4 0.4 0
14.7 0.4 0
15 0.4 0
15.3 0.4 0
15.6 0.4 0
15.9 0.4 0
16.2 0.4 0
16.5 0.4 0
16.8 0.4 0
17.1 0.4 0
17.4 0.4 0
17.7 0.4 0
18 0.4 0
18.3 0.4 0
18.6 0.4 0
18.9 0.4 0
19.2 0.4 0
19.5 0.4 0
19.8 0.4 0
20.1 0.4 0
20.4 0.4 0
20.7 0.4 0
21 0.4 0
21.3 0.4 0
21.6 0.4 0
21.9 0.4 0
22.2 0.4 0
22.5 0.4 0
22.8 0.4 0
23.1 0.4 0
23.4 0.4 0
23.7 0.4 0
24 0.4 0
24.3 0.4 0
24.6 0.4 0
24.9 0.4 0
25.2 0.4 0
25.5 0.4 0
25.8 0.4 0
26.1 0.4 0
26.4 0.4 0
26.7 0.4 0
27 0.4 0
27.3 0.4 0
27.6 0.4 0
27.9 0.4 0
28.2 0.4 0
28.5 0.4 0
28.8 0.4 0
29.1 0.4 0
29.4 0.4 0
29.7 0.4 0
30 0.4 0
0 0.5 0
0.3 0.5 0
0.6 0.5 0
0.9 0.5 0
1.2 0.5 0
1.5 0.5 0
1.8 0.5 0
2.1 0.5 0
2.4 0.5 0
2.7 0.5 0
3 0.5 0
3.3 0.5 0
3.6 0.5 0
3.9 0.5 0
4.2 0.5 0
4.5 0.5 0
4.8 0.5 0
5.1 0.5 0
5.4 0.5 0
5.7 0.5 0
6 0.5 0
6.3 0.5 0
6.6 0.5 0
6.9 0.5 0
7.2 0.5 0
7.5 0.5 0
7.8 0.5 0
8.1 0.5 0
8.4 0.5 0
8.7 0.5 0
9 0.5 0
9.3 0.5 0
9.6 0.5 0
9.9 0.5 0
10.2 0.5 0
10.5 0.5 0
10.8 0.5 0
11.1 0.5 0
11.4 0.5 0
11.7 0.5 0
12 0.5 0
12.3 0.5 0
12.6 0.5 0
12.9 0.5 0
13.2 0.5 0
13.5 0.5 0
13.8 0.5 0
14.1 0.5 0
14.4 0.5 0
14.7 0.5 0
15 0.5 0
15.3 0.5 0
15.6 0.5 0
15.9 0.5 0
16.2 0.5 0
16.5 0.5 0
16.8 0.5 0
17.1 0.5 0
17.4 0.5 0
17.7 0.5 0
18 0.5 0
18.3 0.5 0
18.6 0.5 0
18.9 0.5 0
19.2 0.5 0
19.5 0.5 0
19.8 0.5 0
20.1 0.5 0
20.4 0.5 0
20.7 0.5 0
21 0.5 0
21.3 0.5 0
21.6 0.5 0
21.9 0.5 0
22.2 0.5 0
22.5 0.5 0
22.8 0.5 0
23.1 0.5 0
23.4 0.5 0
23.7 0.5 0
24 0.5 0
24.3 0.5 0
24.6 0.5 0
24.9 0.5 0
25.2 0.5 0
25.5 0.5 0
25.8 0.5 0
26.1 0.5 0
26.4 0.5 0
26.7 0.5 0
27 0.5 0
27.3 0.5 0
27.6 0.5 0
27.9 0.5 0
28.2 0.5 0
28.5 0.5 0
28.8 0.5 0
29.1 0.5 0
29.4 0.5 0
29.7 0.5 0
30 0.5 0
0 0.6 0
0.3 0.6 0
0.6 0.6 0
0.9 0.6 0
1.2 0.6 0
1.5 0.6 0
1.8 0.6 0
2.1 0.6 0
2.4 0.6 0
2.7 0.6 0
3 0.6 0
3.3 0.6 0
3.6 0.6 0
3.9 0.6 0
4.2 0.6 0
4.5 0.6 0
4.8 0.6 0
5.1 0.6 0
5.4 0.6 0
5.7 0.6 0
6 0.6 0
6.3 0.6 0
6.6 0.6 0
6.9 0.6 0
7.2 0.6 0
7.5 0.6 0
7.8 0.6 0
8.1 0.6 0
8.4 0.6 0
8.7 0.6 0
9 0.6 0
9.3 0.6 0
9.6 0.6 0
9.9 0.6 0
10.2 0.6 0
10.5 0.6 0
10.8 0.6 0
11.1 0.6 0
11.4 0.6 0
11.7 0.6 0
12 0.6 0
12.3 0.6 0
12.6 0.6 0
12.9 0.6 0
13.2 0.6 0
13.5 0.6 0
13.8 0.6 0
14.1 0.6 0
14.4 0.6 0
14.7 0.6 0
15 0.6 0
15.3 0.6 0
15.6 0.6 0
15.9 0.6 0
16.2 0.6 0
16.5 0.6 0
16.8 0.6 0
17.1 0.6 0
17.4 0.6 0
17.7 0.6 0
18 0.6 0
18.3 0.6 0
18.6 0.6 0
18.9 0.6 0
19.2 0.6 0
19.5 0.6 0
19.8 0.6 0
20.1 0.6 0
20.4 0.6 0
20.7 0.6 0
21 0.6 0
21.3 0.6 0
21.6 0.6 0
21.9 0.6 0
22.2 0.6 0
22.5 0.6 0
22.8 0.6 0
23.1 0.6 0
23.4 0.6 0
23.7 0.6 0
24 0.6 0
24.3 0.6 0
24.6 0.6 0
24.9 0.6 0
25.2 0.6 0
25.5 0.6 0
25.8 0.6 0
26.1 0.6 0
26.4 0.6 0
26.7 0.6 0
27 0.6 0
27.3 0.6 0
27.6 0.6 0
27.9 0.6 0
28.2 0.6 0
28.5 0.6 0
28.8 0.6 0
29.1 0.6 0
29.4 0.6 0
29.7 0.6 0
30 0.6 0
0 0.7 0
0.3 0.7 0
0.6 0.7 0
0.9 0.7 0
1.2 0.7 0
1.5 0.7 0
1.8 0.7 0
2.1 0.7 0
2.4 0.7 0
2.7 0.7 0
3 0.7 0
3.3 0.7 0
3.6 0.7 0
3.9 0.7 0
4.2 0.7 0
4.5 0.7 0
4.8 0.7 0
5.1 0.7 0
5.4 0.7 0
5.7 0.7 0
6 0.7 0
6.3 0.7 0
6.6 0.7 0
6.9 0.7 0
7.2 0.7 0
7.5 0.7 0
7.8 0.7 0
8.1 0.7 0
8.4 0.7 0
8.7 0.7 0
9 0.7 0
9.3 0.7 0
9.6 0.7 0
9.9 0.7 0
10.2 0.7 0
10.5 0.7 0
10.8 0.7 0
11.1 0.7 0
11.4 0.7 0
11.7 0.7 0
12 0.7 0
12.3 0.7 0
12.6 0.7 0
12.9 0.7 0
13.2 0.7 0
13.5 0.7 0
13.8 0.7 0
14.1 0.7 0
14.4 0.7 0
14.7 0.7 0
15 0.7 0
15.3 0.7 0
15.6 0.7 0
15.9 0.7 0
16.2 0.7 0
16.5 0.7 0
16.8 0.7 0
17.1 0.7 0
17.4 0.7 0
17.7 0.7 0
18 0.7 0
18.3 0.7 0
18.6 0.7 0
18.9 0.7 0
19.2 0.7 0
19.5 0.7 0
19.8 0.7 0
20.1 0.7 0
20.4 0.7 0
20.7 0.7 0
21 0.7 0
21.3 0.7 0
21.6 0.7 0
21.9 0.7 0
22.2 0.7 0
22.5 0.7 0
22.8 0.7 0
23.1 0.7 0
23.4 0.7 0
23.7 0.7 0
24 0.7 0
24.3 0.7 0
24.6 0.7 0
24.9 0.7 0
25.2 0.7 0
25.5 0.7 0
25.8 0.7 0
26.1 0.7 0
26.4 0.7 0
26.7 0.7 0
27 0.7 0
27.3 0.7 0
27.6 0.7 0
27.9 0.7 0
28.2 0.7 0
28.5 0.7 0
28.8 0.7 0
29.1 0.7 0
29.4 0.7 0
29.7 0.7 0
30 0.7 0
0 0.8 0
0.3 0.8 0
0.6 0.8 0
0.9 0.8 0
1.2 0.8 0
1.5 0.8 0
1.8 0.8 0
2.1 0.8 0
2.4 0.8 0
2.7 0.8 0
3 0.8 0
3.3 0.8 0
3.6 0.8 0
3.9 0.8 0
4.2 0.8 0
4.5 0.8 0
4.8 0.8 0
5.1 0.8 0
5.4 0.8 0
5.7 0.8 0
6 0.8 0
6.3 0.8 0
6.6 0.8 0
6.9 0.8 0
7.2 0.8 0
7.5 0.8 0
7.8 0.8 0
8.1 0.8 0
8.4 0.8 0
8.7 0.8 0
9 0.8 0
9.3 0.8 0
9.6 0.8 0
9.9 0.8 0
10.2 0.8 0
10.5 0.8 0
10.8 0.8 0
11.1 0.8 0
11.4 0.8 0
11.7 0.8 0
12 0.8 0
12.3 0.8 0
12.6 0.8 0
12.9 0.8 0
13.2 0.8 0
13.5 0.8 0
13.8 0.8 0
14.1 0.8 0
14.4 0.8 0
14.7 0.8 0
15 0.8 0
15.3 0.8 0
15.6 0.8 0
15.9 0.8 0
16.2 0.8 0
16.5 0.8 0
16.8 0.8 0
17.1 0.8 0
17.4 0.8 0
17.7 0.8 0
18 0.8 0
18.3 0.8 0
18.6 0.8 0
18.9 0.8 0
19.2 0.8 0
19.5 0.8 0
19.8 0.8 0
20.1 0.8 0
20.4 0.8 0
20.7 0.8 0
21 0.8 0
21.3 0.8 0
21.6 0.8 0
21.9 0.8 0
22.2 0.8 0
22.5 0.8 0
22.8 0.8 0
23.1 0.8 0
23.4 0.8 0
23.7 0.8 0
24 0.8 0
24.3 0.8 0
24.6 0.8 0
24.9 0.8 0
25.2 0.8 0
25.5 0.8 0
25.8 0.8 0
26.1 0.8 0
26.4 0.8 0
26.7 0.8 0
27 0.8 0
27.3 0.8 0
27.6 0.8 0
27.9 0.8 0
28.2 0.8 0
28.5 0.8 0
28.8 0.8 0
29.1 0.8 0
29.4 0.8 0
29.7 0.8 0
30 0.8 0
0 0.9 0
0.3 0.9 0
0.6 0.9 0
0.9 0.9 0
1.2 0.9 0
1.5 0.9 0
1.8 0.9 0
2.1 0.9 0
2.4 0.9 0
2.7 0.9 0
3 0.9 0
3.3 0.9 0
3.6 0.9 0
3.9 0.9 0
4.2 0.9 0
4.5 0.9 0
4.8 0.9 0
5.1 0.9 0
5.4 0.9 0
5.7 0.9 0
6 0.9 0
6.3 0.9 0
6.6 0.9 0
6.9 0.9 0
7.2 0.9 0
7.5 0.9 0
7.8 0.9 0
8.1 0.9 0
8.4 0.9 0
8.7 0.9 0
9 0.9 0
9.3 0.9 0
9.6 0.9 0
9.9 0.9 0
10.2 0.9 0
10.5 0.9 0
10.8 0.9 0
11.1 0.9 0
11.4 0.9 0
11.7 0.9 0
12 0.9 0
12.3 0.9 0
12.6 0.9 0
12.9 0.9 0
13.2 0.9 0
13.5 0.9 0
13.8 0.9 0
14.1 0.9 0
14.4 0.9 0
14.7 0.9 0
15 0.9 0
15.3 0.9 0
15.6 0.9 0
15.9 0.9 0
16.2 0.9 0
16.5 0.9 0
16.8 0.9 0
17.1 0.9 0
17.4 0.9 0
17.7 0.9 0
18 0.9 0
18.3 0.9 0
18.6 0.9 0
18.9 0.9 0
19.2 0.9 0
19.5 0.9 0
19.8 0.9 0
20.1 0.9 0
20.4 0.9 0
20.7 0.9 0
21 0.9 0
21.3 0.9 0
21.6 0.9 0
21.9 0.9 0
22.2 0.9 0
22.5 0.9 0
22.8 0.9 0
23.1 0.9 0
23.4 0.9 0
23.7 0.9 0
24 0.9 0
24.3 0.9 0
24.6 0.9 0
24.9 0.9 0
25.2 0.9 0
25.5 0.9 0
25.8 0.9 0
26.1 0.9 0
26.4 0.9 0
26.7 0.9 0
27 0.9 0
27.3 0.9 0
27.6 0.9 0
27.9 0.9 0
28.2 0.9 0
28.5 0.9 0
28.8 0.9 0
29.1 0.9 0
29.4 0.9 0
29.7 0.9 0
30 0.9 0
0 1 0
0.3 1 0
0.6 1 0
0.9 1 0
1.2 1 0
1.5 1 0
1.8 1 0
2.1 1 0
2.4 1 0
2.7 1 0
3 1 0
3.3 1 0
3.6 1 0
3.9 1 0
4.2 1 0
4.5 1 0
4.8 1 0
5.1 1 0
5.4 1 0
5.7 1 0
6 1 0
6.3 1 0
6.6 1 0
6.9 1 0
7.2 1 0
7.5 1 0
7.8 1 0
8.1 1 0
8.4 1 0
8.7 1 0
9 1 0
9.3 1 0
9.6 1 0
9.9 1 0
10.2 1 0
10.5 1 0
10.8 1 0
11.1 1 0
11.4 1 0
11.7 1 0
12 1 0
12.3 1 0
12.6 1 0
12.9 1 0
13.2 1 0
13.5 1 0
13.8 1 0
14.1 1 0
14.4 1 0
14.7 1 0
15 1 0
15.3 1 0
15.6 1 0
15.9 1 0
16.2 1 0
16.5 1 0
16.8 1 0
17.1 1 0
17.4 1 0
17.7 1 0
18 1 0
18.3 1 0
18.6 1 0
18.9 1 0
19.2 1 0
19.5 1 0
19.8 1 0
20.1 1 0
20.4 1 0
20.7 1 0
21 1 0
21.3 1 0
21.6 1 0
21.9 1 0
22.2 1 0
22.5 1 0
22.8 1 0
23.1 1 0
23.4 1 0
23.7 1 0
24 1 0
24.3 1 0
24.6 1 0
24.9 1 0
25.2 1 0
25.5 1 0
25.8 1 0
26.1 1 0
26.4 1 0
26.7 1 0
27 1 0
27.3 1 0
27.6 1 0
27.9 1 0
28.2 1 0
28.5 1 0
28.8 1 0
29.1 1 0
29.4 1 0
29.7 1 0
30 1 0

POINT_DATA 1111

SCALARS v double
LOOKUP_TABLE default
0
0
0
0
0
0
0
0
0
0
0
0
0
0
0
0
0
0
0
0
0
0
0
0
0
0
0
0
0
0
0
0
0
0
0
0
0
0
0
0
0
0
0
0
0
0
0
0
0
0
0
0
0
0
0
0
0
0
0
0
0
0
0
0
0
0
0
0
0
0
0
0
0
0
0
0
0
0
0
0
0
0
0
0
0
0
0
0
0
0
0
0
0
0
0
0
0
0
0
0
0
-0.0359859
0.0359859
0.0367619
0.0309383
0.0247937
0.0193688
0.0148923
0.0113559
0.00864969
0.00662567
0.00513393
0.00404045
0.00323361
0.00262553
0.00215106
0.00176507
0.00143864
0.00115515
0.000906655
0.000690762
0.000507762
0.000358269
0.000241604
0.000155132
9.44917e-05
5.4364e-05
2.93689e-05
1.47589e-05
6.78457e-06
2.75551e-06
9.02762e-07
1.57114e-07
-7.40234e-08
-1.0239e-07
-7.64519e-08
-4.4752e-08
-2.02669e-08
-4.41187e-09
5.72622e-09
1.21552e-08
1.55554e-08
1.71601e-08
1.78082e-08
1.79454e-08
1.78094e-08
1.75318e-08
1.71822e-08
1.67953e-08
1.63877e-08
1.59669e-08
1.55366e-08
1.50984e-08
1.46535e-08
1.42026e-08
1.37463e-08
1.32854e-08
1.28203e-08
1.23517e-08
1.18801e-08
1.14062e-08
1.09306e-08
1.04538e-08
9.97647e-09
9.49945e-09
9.02348e-09
8.54936e-09
8.07797e-09
7.61013e-09
7.14667e-09
6.68835e-09
6.23587e-09
5.78991e-09
5.35111e-09
4.92011e-09
4.49764e-09
4.08388e-09
3.68072e-09
3.28994e-09
2.90945e-09
2.53734e-09
2.17549e-09
1.82622e-09
1.49506e-09
1.18156e-09
8.82283e-10
6.03774e-10
3.19952e-10
1.40108e-11
-3.58051e-10
-3.4349e-10
-1.79389e-09
9.52088e-10
-1.56849e-08
1.72179e-08
-1.94396e-07
9.97284e-08
-2.343e-06
-1.92831e-06
-1.53125e-05
-3.58855e-05
-3.58855e-05
-0.0259716
0.0259716
0.03387
0.0318859
0.0277093
0.0232684
0.0192108
0.0157604
0.0129467
0.0107077
0.00894689
0.00756174
0.00645716
0.00555092
0.0047768
0.00408616
0.00344834
0.00284955
0.00228994
0.00177883
0.0013289
0.000950714
0.000648972
0.000421287
0.000259191
0.000150505
8.20014e-05
4.15243e-05
1.92059e-05
7.81799e-06
2.52875e-06
3.76111e-07
-2.96016e-07
-3.78893e-07
-2.94227e-07
-1.8991e-07
-1.07961e-07
-5.32579e-08
-2.05729e-08
-3.12611e-09
6.1095e-09
1.11303e-08
1.36007e-08
1.46495e-08
1.49411e-08
1.485e-08
1.45738e-08
1.42102e-08
1.3805e-08
1.33785e-08
1.29399e-08
1.24934e-08
1.2041e-08
1.15839e-08
1.11229e-08
1.06587e-08
1.0192e-08
9.7234e-09
9.25355e-09
8.78298e-09
8.31228e-09
7.84207e-09
7.37304e-09
6.90595e-09
6.44165e-09
5.98109e-09
5.52526e-09
5.07519e-09
4.63182e-09
4.19599e-09
3.76842e-09
3.34969e-09
2.9403e-09
2.54071e-09
2.15144e-09
1.77236e-09
1.40549e-09
1.0539e-09
7.0731e-10
3.48305e-10
-2.20122e-11
-3.49705e-10
-6.37631e-10
-9.01476e-10
-1.14871e-09
-1.38125e-09
-1.63246e-09
-1.82572e-09
-2.16822e-09
-1.93197e-09
-4.14735e-09
7.15814e-10
-2.68007e-08
3.25154e-08
-3.28004e-07
3.07425e-07
-4.41009e-06
7.1332e-07
-5.75923e-05
-8.83356e-05
-8.83356e-05
-0.0142106
0.0142106
0.0209505
0.020866
0.0189119
0.0164969
0.0141328
0.0120297
0.0102534
0.00879537
0.00761365
0.00665422
0.00586172
0.00518472
0.00457935
0.00401223
0.00346269
0.00292353
0.00239966
0.00190454
0.00145498
0.00106589
0.000746411
0.000498217
0.000316092
0.000190008
0.000107756
5.72749e-05
2.82063e-05
1.25783e-05
4.8074e-06
1.30419e-06
-5.8469e-08
-4.32784e-07
-4.2531e-07
-3.12331e-07
-1.97875e-07
-1.11775e-07
-5.57193e-08
-2.26379e-08
-4.62689e-09
4.63157e-09
9.31639e-09
1.14777e-08
1.23031e-08
1.24587e-08
1.22943e-08
1.19827e-08
1.16041e-08
1.11947e-08
1.07701e-08
1.03374e-08
9.89975e-09
9.45891e-09
9.01597e-09
8.57178e-09
8.12708e-09
7.68254e-09
7.23879e-09
6.79643e-09
6.35606e-09
5.91833e-09
5.48392e-09
5.05359e-09
4.62814e-09
4.20846e-09
3.7955e-09
3.3902e-09
2.99351e-09
2.60624e-09
2.22911e-09
1.86272e-09
1.50753e-09
1.1641e-09
8.32039e-10
5.14129e-10
2.05753e-10
-1.05043e-10
-4.05798e-10
-6.92035e-10
-9.48562e-10
-1.17682e-09
-1.38407e-09
-1.57548e-09
-1.75516e-09
-1.92356e-09
-2.10789e-09
-2.22838e-09
-2.51715e-09
-2.19012e-09
-4.3974e-09
1.00444e-09
-2.66339e-08
3.95053e-08
-3.21461e-07
4.26844e-07
-4.3513e-06
2.81754e-06
-6.50976e-05
-9.3585e-05
-9.3585e-05
-0.00447523
0.00447523
0.00693976
0.00706185
0.00650817
0.00576937
0.00502387
0.00434758
0.00376761
0.00328521
0.00288917
0.00256325
0.00228979
0.0020517
0.00183391
0.00162472
0.00141693
0.00120841
0.00100183
0.000803268
0.000620253
0.000459625
0.000325912
0.000220573
0.000142135
8.69749e-05
5.03685e-05
2.74672e-05
1.39848e-05
6.53999e-06
2.70914e-06
8.97187e-07
1.33305e-07
-1.28653e-07
-1.72873e-07
-1.40397e-07
-9.25934e-08
-5.18374e-08
-2.33798e-08
-5.79562e-09
4.18702e-09
9.45692e-09
1.19424e-08
1.29221e-08
1.31358e-08
1.29846e-08
1.26698e-08
1.22844e-08
1.18685e-08
1.14386e-08
1.10012e-08
1.05595e-08
1.01149e-08
9.66869e-09
9.22165e-09
8.7747e-09
8.32862e-09
7.88419e-09
7.44209e-09
7.00303e-09
6.5677e-09
6.13681e-09
5.7111e-09
5.29133e-09
4.87823e-09
4.47258e-09
4.07515e-09
3.68672e-09
3.30807e-09
2.93995e-09
2.5831e-09
2.23819e-09
1.90585e-09
1.58663e-09
1.28104e-09
9.89131e-10
7.11082e-10
4.46879e-10
1.9177e-10
-4.81209e-11
-2.61255e-10
-4.4899e-10
-6.1756e-10
-7.71192e-10
-9.13122e-10
-1.04524e-09
-1.18083e-09
-1.27931e-09
-1.44815e-09
-1.32981e-09
-2.3566e-09
8.5858e-11
-1.19422e-08
1.81305e-08
-1.35467e-07
2.05807e-07
-1.80382e-06
1.50221e-06
-2.75995e-05
-3.95104e-05
-3.95104e-05
0.00447519
-0.00447519
-0.00693967
-0.00706174
-0.00650805
-0.00576925
-0.00502375
-0.00434747
-0.00376751
-0.00328512
-0.0028891
-0.0025632
-0.00228975
-0.00205168
-0.0018339
-0.00162471
-0.00141692
-0.0012084
-0.00100181
-0.000803237
-0.000620218
-0.000459591
-0.000325884
-0.000220554
-0.000142123
-8.69661e-05
-5.03596e-05
-2.74559e-05
-1.39701e-05
-6.52198e-06
-2.68791e-06
-8.72339e-07
-1.03154e-07
1.62778e-07
2.09123e-07
1.77694e-07
1.30349e-07
8.95646e-08
6.04082e-08
4.15817e-08
3.02092e-08
2.3568e-08
1.97258e-08
1.7481e-08
1.61125e-08
1.52087e-08
1.45425e-08
1.39921e-08
1.34945e-08
1.30191e-08
1.25515e-08
1.20858e-08
1.16201e-08
1.1154e-08
1.06881e-08
1.0223e-08
9.7597e-09
9.29887e-09
8.84136e-09
8.38796e-09
7.93946e-09
7.49667e-09
7.06038e-09
6.63134e-09
6.21021e-09
5.79763e-09
5.39418e-09
5.00045e-09
4.61708e-09
4.24475e-09
3.88424e-09
3.53637e-09
3.20195e-09
2.88176e-09
2.57652e-09
2.28633e-09
2.01199e-09
1.75378e-09
1.50915e-09
1.28351e-09
1.08397e-09
9.08105e-10
7.51318e-10
6.09978e-10
4.82443e-10
3.63047e-10
2.5826e-10
1.44614e-10
1.34969e-10
-1.56012e-10
6.79664e-10
-1.97416e-09
9.72847e-09
-2.06206e-08
1.32706e-07
-2.0872e-07
1.80088e-06
-1.50496e-06
2.75969e-05
3.9509e-05
3.9509e-05
0.0142106
-0.0142106
-0.0209504
-0.0208659
-0.0189118
-0.0164968
-0.0141327
-0.0120296
-0.0102533
-0.00879529
-0.00761358
-0.00665417
-0.00586168
-0.0051847
-0.00457933
-0.00401222
-0.00346268
-0.00292351
-0.00239963
-0.0019045
-0.00145494
-0.00106586
-0.000746381
-0.000498193
-0.000316074
-0.000189992
-0.000107739
-5.72556e-05
-2.81841e-05
-1.25534e-05
-4.78013e-06
-1.27415e-06
9.26788e-08
4.6919e-07
4.62837e-07
3.50305e-07
2.3598e-07
1.49725e-07
9.28986e-08
5.84758e-08
3.88179e-08
2.80152e-08
2.21983e-08
1.90663e-08
1.73219e-08
1.6268e-08
1.55449e-08
1.49734e-08
1.44675e-08
1.39878e-08
1.35174e-08
1.30496e-08
1.2582e-08
1.21145e-08
1.16475e-08
1.11817e-08
1.0718e-08
1.02573e-08
9.80029e-09
9.34787e-09
8.90086e-09
8.46008e-09
8.02629e-09
7.60017e-09
7.18229e-09
6.77312e-09
6.37312e-09
5.98275e-09
5.6026e-09
5.23338e-09
4.87596e-09
4.53127e-09
4.20027e-09
3.88384e-09
3.58277e-09
3.29738e-09
3.02843e-09
2.77615e-09
2.53975e-09
2.32327e-09
2.13102e-09
1.96102e-09
1.80996e-09
1.67489e-09
1.55533e-09
1.44392e-09
1.35815e-09
1.23833e-09
1.32572e-09
8.06974e-10
2.8041e-09
-2.8307e-09
2.46012e-08
-4.19583e-08
3.18871e-07
-4.29708e-07
4.34841e-06
-2.82021e-06
6.50951e-05
9.35836e-05
9.35836e-05
0.0259716
-0.0259716
-0.0338699
-0.0318858
-0.0277092
-0.0232683
-0.0192107
-0.0157603
-0.0129466
-0.0107077
-0.00894683
-0.0075617
-0.00645713
-0.0055509
-0.00477678
-0.00408614
-0.00344832
-0.00284952
-0.0022899
-0.00177879
-0.00132886
-0.000950674
-0.000648935
-0.000421254
-0.000259161
-0.000150476
-8.19704e-05
-4.14913e-05
-1.91708e-05
-7.78116e-06
-2.49066e-06
-3.37033e-07
3.34114e-07
4.176e-07
3.33006e-07
2.28431e-07
1.46207e-07
9.1266e-08
5.77357e-08
3.84814e-08
2.78858e-08
2.21839e-08
1.9113e-08
1.74065e-08
1.63823e-08
1.56872e-08
1.51445e-08
1.46685e-08
1.42195e-08
1.37797e-08
1.33421e-08
1.2904e-08
1.2465e-08
1.20253e-08
1.15855e-08
1.11465e-08
1.07089e-08
1.02734e-08
9.84099e-09
9.41228e-09
8.98805e-09
8.56901e-09
8.15583e-09
7.74906e-09
7.34921e-09
6.95671e-09
6.57203e-09
6.19568e-09
5.82834e-09
5.47079e-09
5.12392e-09
4.78865e-09
4.46586e-09
4.15637e-09
3.86084e-09
3.5797e-09
3.31361e-09
3.06287e-09
2.82757e-09
2.61056e-09
2.41429e-09
2.23739e-09
2.07788e-09
1.9339e-09
1.80551e-09
1.68687e-09
1.59489e-09
1.47304e-09
1.54996e-09
1.06737e-09
3.03481e-09
-2.10821e-09
2.53091e-08
-3.45165e-08
3.25697e-07
-3.09787e-07
4.40771e-06
-7.15501e-07
5.75902e-05
8.83343e-05
8.83343e-05
0.0359858
-0.0359858
-0.0367618
-0.0309382
-0.0247936
-0.0193688
-0.0148923
-0.0113558
-0.00864964
-0.00662562
-0.00513389
-0.00404041
-0.00323357
-0.00262549
-0.00215103
-0.00176504
-0.00143861
-0.00115511
-0.00090661
-0.000690716
-0.000507715
-0.000358223
-0.00024156
-0.000155089
-9.44489e-05
-5.4321e-05
-2.93251e-05
-1.4714e-05
-6.73873e-06
-2.70879e-06
-8.55228e-07
-1.09341e-07
1.16515e-07
1.43392e-07
1.16739e-07
8.41821e-08
5.86443e-08
4.15119e-08
3.09478e-08
2.47655e-08
2.12459e-08
1.92324e-08
1.80296e-08
1.72472e-08
1.66741e-08
1.61999e-08
1.5769e-08
1.53546e-08
1.49442e-08
1.45323e-08
1.41171e-08
1.36981e-08
1.32753e-08
1.28494e-08
1.24209e-08
1.19904e-08
1.15586e-08
1.11261e-08
1.06937e-08
1.02619e-08
9.83141e-09
9.40284e-09
8.9768e-09
8.55394e-09
8.13486e-09
7.72021e-09
7.31062e-09
6.90677e-09
6.50937e-09
6.11914e-09
5.73686e-09
5.36329e-09
4.99918e-09
4.64527e-09
4.30224e-09
3.97068e-09
3.65129e-09
3.34461e-09
3.05119e-09
2.77276e-09
2.51064e-09
2.26448e-09
2.03374e-09
1.81792e-09
1.61757e-09
1.42985e-09
1.26532e-09
1.09052e-09
1.04339e-09
6.72478e-10
1.79662e-09
-1.25766e-09
1.51488e-08
-1.81276e-08
1.93258e-07
-1.0095e-07
2.34173e-06
1.92711e-06
1.53114e-05
3.58847e-05
3.58847e-05
0
0
0
0
0
0
0
0
0
0
0
0
0
0
0
0
0
0
0
0
0
0
0
0
0
0
0
0
0
0
0
0
0
0
0
0
0
0
0
0
0
0
0
0
0
0
0
0
0
0
0
0
0
0
0
0
0
0
0
0
0
0
0
0
0
0
0
0
0
0
0
0
0
0
0
0
0
0
0
0
0
0
0
0
0
0
0
0
0
0
0
0
0
0
0
0
0
0
0
0
0
0
0
0
0
0
0
0
0
0
0
0
0
0
0
0
0
0
0
0
0
0
0
0
0
0
0
0
0
0
0
0
0
0
0
0
0
0
0
0
0
0
0
0
0
0
0
0
0
0
0
0
0
0
0
0
0
0
0
0
0
0
0
0
0
0
0
0
0
0
0
0
0
0
0
0
0
0
0
0
0
0
0
0
0
0
0
0
0
0
0
0
0
0
0
0
0
0
0
0
0
0
