# vtk DataFile Version 2.0
FlowField
ASCII
DATASET STRUCTURED_GRID
DIMENSIONS 102 13 1 
POINTS 1326 double
0 0 0
0.3 0 0
0.6 0 0
0.9 0 0
1.2 0 0
1.5 0 0
1.8 0 0
2.1 0 0
2.4 0 0
2.7 0 0
3 0 0
3.3 0 0
3.6 0 0
3.9 0 0
4.2 0 0
4.5 0 0
4.8 0 0
5.1 0 0
5.4 0 0
5.7 0 0
6 0 0
6.3 0 0
6.6 0 0
6.9 0 0
7.2 0 0
7.5 0 0
7.8 0 0
8.1 0 0
8.4 0 0
8.7 0 0
9 0 0
9.3 0 0
9.6 0 0
9.9 0 0
10.2 0 0
10.5 0 0
10.8 0 0
11.1 0 0
11.4 0 0
11.7 0 0
12 0 0
12.3 0 0
12.6 0 0
12.9 0 0
13.2 0 0
13.5 0 0
13.8 0 0
14.1 0 0
14.4 0 0
14.7 0 0
15 0 0
15.3 0 0
15.6 0 0
15.9 0 0
16.2 0 0
16.5 0 0
16.8 0 0
17.1 0 0
17.4 0 0
17.7 0 0
18 0 0
18.3 0 0
18.6 0 0
18.9 0 0
19.2 0 0
19.5 0 0
19.8 0 0
20.1 0 0
20.4 0 0
20.7 0 0
21 0 0
21.3 0 0
21.6 0 0
21.9 0 0
22.2 0 0
22.5 0 0
22.8 0 0
23.1 0 0
23.4 0 0
23.7 0 0
24 0 0
24.3 0 0
24.6 0 0
24.9 0 0
25.2 0 0
25.5 0 0
25.8 0 0
26.1 0 0
26.4 0 0
26.7 0 0
27 0 0
27.3 0 0
27.6 0 0
27.9 0 0
28.2 0 0
28.5 0 0
28.8 0 0
29.1 0 0
29.4 0 0
29.7 0 0
30 0 0
30.3 0 0
0 0.1 0
0.3 0.1 0
0.6 0.1 0
0.9 0.1 0
1.2 0.1 0
1.5 0.1 0
1.8 0.1 0
2.1 0.1 0
2.4 0.1 0
2.7 0.1 0
3 0.1 0
3.3 0.1 0
3.6 0.1 0
3.9 0.1 0
4.2 0.1 0
4.5 0.1 0
4.8 0.1 0
5.1 0.1 0
5.4 0.1 0
5.7 0.1 0
6 0.1 0
6.3 0.1 0
6.6 0.1 0
6.9 0.1 0
7.2 0.1 0
7.5 0.1 0
7.8 0.1 0
8.1 0.1 0
8.4 0.1 0
8.7 0.1 0
9 0.1 0
9.3 0.1 0
9.6 0.1 0
9.9 0.1 0
10.2 0.1 0
10.5 0.1 0
10.8 0.1 0
11.1 0.1 0
11.4 0.1 0
11.7 0.1 0
12 0.1 0
12.3 0.1 0
12.6 0.1 0
12.9 0.1 0
13.2 0.1 0
13.5 0.1 0
13.8 0.1 0
14.1 0.1 0
14.4 0.1 0
14.7 0.1 0
15 0.1 0
15.3 0.1 0
15.6 0.1 0
15.9 0.1 0
16.2 0.1 0
16.5 0.1 0
16.8 0.1 0
17.1 0.1 0
17.4 0.1 0
17.7 0.1 0
18 0.1 0
18.3 0.1 0
18.6 0.1 0
18.9 0.1 0
19.2 0.1 0
19.5 0.1 0
19.8 0.1 0
20.1 0.1 0
20.4 0.1 0
20.7 0.1 0
21 0.1 0
21.3 0.1 0
21.6 0.1 0
21.9 0.1 0
22.2 0.1 0
22.5 0.1 0
22.8 0.1 0
23.1 0.1 0
23.4 0.1 0
23.7 0.1 0
24 0.1 0
24.3 0.1 0
24.6 0.1 0
24.9 0.1 0
25.2 0.1 0
25.5 0.1 0
25.8 0.1 0
26.1 0.1 0
26.4 0.1 0
26.7 0.1 0
27 0.1 0
27.3 0.1 0
27.6 0.1 0
27.9 0.1 0
28.2 0.1 0
28.5 0.1 0
28.8 0.1 0
29.1 0.1 0
29.4 0.1 0
29.7 0.1 0
30 0.1 0
30.3 0.1 0
0 0.2 0
0.3 0.2 0
0.6 0.2 0
0.9 0.2 0
1.2 0.2 0
1.5 0.2 0
1.8 0.2 0
2.1 0.2 0
2.4 0.2 0
2.7 0.2 0
3 0.2 0
3.3 0.2 0
3.6 0.2 0
3.9 0.2 0
4.2 0.2 0
4.5 0.2 0
4.8 0.2 0
5.1 0.2 0
5.4 0.2 0
5.7 0.2 0
6 0.2 0
6.3 0.2 0
6.6 0.2 0
6.9 0.2 0
7.2 0.2 0
7.5 0.2 0
7.8 0.2 0
8.1 0.2 0
8.4 0.2 0
8.7 0.2 0
9 0.2 0
9.3 0.2 0
9.6 0.2 0
9.9 0.2 0
10.2 0.2 0
10.5 0.2 0
10.8 0.2 0
11.1 0.2 0
11.4 0.2 0
11.7 0.2 0
12 0.2 0
12.3 0.2 0
12.6 0.2 0
12.9 0.2 0
13.2 0.2 0
13.5 0.2 0
13.8 0.2 0
14.1 0.2 0
14.4 0.2 0
14.7 0.2 0
15 0.2 0
15.3 0.2 0
15.6 0.2 0
15.9 0.2 0
16.2 0.2 0
16.5 0.2 0
16.8 0.2 0
17.1 0.2 0
17.4 0.2 0
17.7 0.2 0
18 0.2 0
18.3 0.2 0
18.6 0.2 0
18.9 0.2 0
19.2 0.2 0
19.5 0.2 0
19.8 0.2 0
20.1 0.2 0
20.4 0.2 0
20.7 0.2 0
21 0.2 0
21.3 0.2 0
21.6 0.2 0
21.9 0.2 0
22.2 0.2 0
22.5 0.2 0
22.8 0.2 0
23.1 0.2 0
23.4 0.2 0
23.7 0.2 0
24 0.2 0
24.3 0.2 0
24.6 0.2 0
24.9 0.2 0
25.2 0.2 0
25.5 0.2 0
25.8 0.2 0
26.1 0.2 0
26.4 0.2 0
26.7 0.2 0
27 0.2 0
27.3 0.2 0
27.6 0.2 0
27.9 0.2 0
28.2 0.2 0
28.5 0.2 0
28.8 0.2 0
29.1 0.2 0
29.4 0.2 0
29.7 0.2 0
30 0.2 0
30.3 0.2 0
0 0.3 0
0.3 0.3 0
0.6 0.3 0
0.9 0.3 0
1.2 0.3 0
1.5 0.3 0
1.8 0.3 0
2.1 0.3 0
2.4 0.3 0
2.7 0.3 0
3 0.3 0
3.3 0.3 0
3.6 0.3 0
3.9 0.3 0
4.2 0.3 0
4.5 0.3 0
4.8 0.3 0
5.1 0.3 0
5.4 0.3 0
5.7 0.3 0
6 0.3 0
6.3 0.3 0
6.6 0.3 0
6.9 0.3 0
7.2 0.3 0
7.5 0.3 0
7.8 0.3 0
8.1 0.3 0
8.4 0.3 0
8.7 0.3 0
9 0.3 0
9.3 0.3 0
9.6 0.3 0
9.9 0.3 0
10.2 0.3 0
10.5 0.3 0
10.8 0.3 0
11.1 0.3 0
11.4 0.3 0
11.7 0.3 0
12 0.3 0
12.3 0.3 0
12.6 0.3 0
12.9 0.3 0
13.2 0.3 0
13.5 0.3 0
13.8 0.3 0
14.1 0.3 0
14.4 0.3 0
14.7 0.3 0
15 0.3 0
15.3 0.3 0
15.6 0.3 0
15.9 0.3 0
16.2 0.3 0
16.5 0.3 0
16.8 0.3 0
17.1 0.3 0
17.4 0.3 0
17.7 0.3 0
18 0.3 0
18.3 0.3 0
18.6 0.3 0
18.9 0.3 0
19.2 0.3 0
19.5 0.3 0
19.8 0.3 0
20.1 0.3 0
20.4 0.3 0
20.7 0.3 0
21 0.3 0
21.3 0.3 0
21.6 0.3 0
21.9 0.3 0
22.2 0.3 0
22.5 0.3 0
22.8 0.3 0
23.1 0.3 0
23.4 0.3 0
23.7 0.3 0
24 0.3 0
24.3 0.3 0
24.6 0.3 0
24.9 0.3 0
25.2 0.3 0
25.5 0.3 0
25.8 0.3 0
26.1 0.3 0
26.4 0.3 0
26.7 0.3 0
27 0.3 0
27.3 0.3 0
27.6 0.3 0
27.9 0.3 0
28.2 0.3 0
28.5 0.3 0
28.8 0.3 0
29.1 0.3 0
29.4 0.3 0
29.7 0.3 0
30 0.3 0
30.3 0.3 0
0 0.4 0
0.3 0.4 0
0.6 0.4 0
0.9 0.4 0
1.2 0.4 0
1.5 0.4 0
1.8 0.4 0
2.1 0.4 0
2.4 0.4 0
2.7 0.4 0
3 0.4 0
3.3 0.4 0
3.6 0.4 0
3.9 0.4 0
4.2 0.4 0
4.5 0.4 0
4.8 0.4 0
5.1 0.4 0
5.4 0.4 0
5.7 0.4 0
6 0.4 0
6.3 0.4 0
6.6 0.4 0
6.9 0.4 0
7.2 0.4 0
7.5 0.4 0
7.8 0.4 0
8.1 0.4 0
8.4 0.4 0
8.7 0.4 0
9 0.4 0
9.3 0.4 0
9.6 0.4 0
9.9 0.4 0
10.2 0.4 0
10.5 0.4 0
10.8 0.4 0
11.1 0.4 0
11.4 0.4 0
11.7 0.4 0
12 0.4 0
12.3 0.4 0
12.6 0.4 0
12.9 0.4 0
13.2 0.4 0
13.5 0.4 0
13.8 0.4 0
14.1 0.4 0
14.4 0.4 0
14.7 0.4 0
15 0.4 0
15.3 0.4 0
15.6 0.4 0
15.9 0.4 0
16.2 0.4 0
16.5 0.4 0
16.8 0.4 0
17.1 0.4 0
17.4 0.4 0
17.7 0.4 0
18 0.4 0
18.3 0.4 0
18.6 0.4 0
18.9 0.4 0
19.2 0.4 0
19.5 0.4 0
19.8 0.4 0
20.1 0.4 0
20.4 0.4 0
20.7 0.4 0
21 0.4 0
21.3 0.4 0
21.6 0.4 0
21.9 0.4 0
22.2 0.4 0
22.5 0.4 0
22.8 0.4 0
23.1 0.4 0
23.4 0.4 0
23.7 0.4 0
24 0.4 0
24.3 0.4 0
24.6 0.4 0
24.9 0.4 0
25.2 0.4 0
25.5 0.4 0
25.8 0.4 0
26.1 0.4 0
26.4 0.4 0
26.7 0.4 0
27 0.4 0
27.3 0.4 0
27.6 0.4 0
27.9 0.4 0
28.2 0.4 0
28.5 0.4 0
28.8 0.4 0
29.1 0.4 0
29.4 0.4 0
29.7 0.4 0
30 0.4 0
30.3 0.4 0
0 0.5 0
0.3 0.5 0
0.6 0.5 0
0.9 0.5 0
1.2 0.5 0
1.5 0.5 0
1.8 0.5 0
2.1 0.5 0
2.4 0.5 0
2.7 0.5 0
3 0.5 0
3.3 0.5 0
3.6 0.5 0
3.9 0.5 0
4.2 0.5 0
4.5 0.5 0
4.8 0.5 0
5.1 0.5 0
5.4 0.5 0
5.7 0.5 0
6 0.5 0
6.3 0.5 0
6.6 0.5 0
6.9 0.5 0
7.2 0.5 0
7.5 0.5 0
7.8 0.5 0
8.1 0.5 0
8.4 0.5 0
8.7 0.5 0
9 0.5 0
9.3 0.5 0
9.6 0.5 0
9.9 0.5 0
10.2 0.5 0
10.5 0.5 0
10.8 0.5 0
11.1 0.5 0
11.4 0.5 0
11.7 0.5 0
12 0.5 0
12.3 0.5 0
12.6 0.5 0
12.9 0.5 0
13.2 0.5 0
13.5 0.5 0
13.8 0.5 0
14.1 0.5 0
14.4 0.5 0
14.7 0.5 0
15 0.5 0
15.3 0.5 0
15.6 0.5 0
15.9 0.5 0
16.2 0.5 0
16.5 0.5 0
16.8 0.5 0
17.1 0.5 0
17.4 0.5 0
17.7 0.5 0
18 0.5 0
18.3 0.5 0
18.6 0.5 0
18.9 0.5 0
19.2 0.5 0
19.5 0.5 0
19.8 0.5 0
20.1 0.5 0
20.4 0.5 0
20.7 0.5 0
21 0.5 0
21.3 0.5 0
21.6 0.5 0
21.9 0.5 0
22.2 0.5 0
22.5 0.5 0
22.8 0.5 0
23.1 0.5 0
23.4 0.5 0
23.7 0.5 0
24 0.5 0
24.3 0.5 0
24.6 0.5 0
24.9 0.5 0
25.2 0.5 0
25.5 0.5 0
25.8 0.5 0
26.1 0.5 0
26.4 0.5 0
26.7 0.5 0
27 0.5 0
27.3 0.5 0
27.6 0.5 0
27.9 0.5 0
28.2 0.5 0
28.5 0.5 0
28.8 0.5 0
29.1 0.5 0
29.4 0.5 0
29.7 0.5 0
30 0.5 0
30.3 0.5 0
0 0.6 0
0.3 0.6 0
0.6 0.6 0
0.9 0.6 0
1.2 0.6 0
1.5 0.6 0
1.8 0.6 0
2.1 0.6 0
2.4 0.6 0
2.7 0.6 0
3 0.6 0
3.3 0.6 0
3.6 0.6 0
3.9 0.6 0
4.2 0.6 0
4.5 0.6 0
4.8 0.6 0
5.1 0.6 0
5.4 0.6 0
5.7 0.6 0
6 0.6 0
6.3 0.6 0
6.6 0.6 0
6.9 0.6 0
7.2 0.6 0
7.5 0.6 0
7.8 0.6 0
8.1 0.6 0
8.4 0.6 0
8.7 0.6 0
9 0.6 0
9.3 0.6 0
9.6 0.6 0
9.9 0.6 0
10.2 0.6 0
10.5 0.6 0
10.8 0.6 0
11.1 0.6 0
11.4 0.6 0
11.7 0.6 0
12 0.6 0
12.3 0.6 0
12.6 0.6 0
12.9 0.6 0
13.2 0.6 0
13.5 0.6 0
13.8 0.6 0
14.1 0.6 0
14.4 0.6 0
14.7 0.6 0
15 0.6 0
15.3 0.6 0
15.6 0.6 0
15.9 0.6 0
16.2 0.6 0
16.5 0.6 0
16.8 0.6 0
17.1 0.6 0
17.4 0.6 0
17.7 0.6 0
18 0.6 0
18.3 0.6 0
18.6 0.6 0
18.9 0.6 0
19.2 0.6 0
19.5 0.6 0
19.8 0.6 0
20.1 0.6 0
20.4 0.6 0
20.7 0.6 0
21 0.6 0
21.3 0.6 0
21.6 0.6 0
21.9 0.6 0
22.2 0.6 0
22.5 0.6 0
22.8 0.6 0
23.1 0.6 0
23.4 0.6 0
23.7 0.6 0
24 0.6 0
24.3 0.6 0
24.6 0.6 0
24.9 0.6 0
25.2 0.6 0
25.5 0.6 0
25.8 0.6 0
26.1 0.6 0
26.4 0.6 0
26.7 0.6 0
27 0.6 0
27.3 0.6 0
27.6 0.6 0
27.9 0.6 0
28.2 0.6 0
28.5 0.6 0
28.8 0.6 0
29.1 0.6 0
29.4 0.6 0
29.7 0.6 0
30 0.6 0
30.3 0.6 0
0 0.7 0
0.3 0.7 0
0.6 0.7 0
0.9 0.7 0
1.2 0.7 0
1.5 0.7 0
1.8 0.7 0
2.1 0.7 0
2.4 0.7 0
2.7 0.7 0
3 0.7 0
3.3 0.7 0
3.6 0.7 0
3.9 0.7 0
4.2 0.7 0
4.5 0.7 0
4.8 0.7 0
5.1 0.7 0
5.4 0.7 0
5.7 0.7 0
6 0.7 0
6.3 0.7 0
6.6 0.7 0
6.9 0.7 0
7.2 0.7 0
7.5 0.7 0
7.8 0.7 0
8.1 0.7 0
8.4 0.7 0
8.7 0.7 0
9 0.7 0
9.3 0.7 0
9.6 0.7 0
9.9 0.7 0
10.2 0.7 0
10.5 0.7 0
10.8 0.7 0
11.1 0.7 0
11.4 0.7 0
11.7 0.7 0
12 0.7 0
12.3 0.7 0
12.6 0.7 0
12.9 0.7 0
13.2 0.7 0
13.5 0.7 0
13.8 0.7 0
14.1 0.7 0
14.4 0.7 0
14.7 0.7 0
15 0.7 0
15.3 0.7 0
15.6 0.7 0
15.9 0.7 0
16.2 0.7 0
16.5 0.7 0
16.8 0.7 0
17.1 0.7 0
17.4 0.7 0
17.7 0.7 0
18 0.7 0
18.3 0.7 0
18.6 0.7 0
18.9 0.7 0
19.2 0.7 0
19.5 0.7 0
19.8 0.7 0
20.1 0.7 0
20.4 0.7 0
20.7 0.7 0
21 0.7 0
21.3 0.7 0
21.6 0.7 0
21.9 0.7 0
22.2 0.7 0
22.5 0.7 0
22.8 0.7 0
23.1 0.7 0
23.4 0.7 0
23.7 0.7 0
24 0.7 0
24.3 0.7 0
24.6 0.7 0
24.9 0.7 0
25.2 0.7 0
25.5 0.7 0
25.8 0.7 0
26.1 0.7 0
26.4 0.7 0
26.7 0.7 0
27 0.7 0
27.3 0.7 0
27.6 0.7 0
27.9 0.7 0
28.2 0.7 0
28.5 0.7 0
28.8 0.7 0
29.1 0.7 0
29.4 0.7 0
29.7 0.7 0
30 0.7 0
30.3 0.7 0
0 0.8 0
0.3 0.8 0
0.6 0.8 0
0.9 0.8 0
1.2 0.8 0
1.5 0.8 0
1.8 0.8 0
2.1 0.8 0
2.4 0.8 0
2.7 0.8 0
3 0.8 0
3.3 0.8 0
3.6 0.8 0
3.9 0.8 0
4.2 0.8 0
4.5 0.8 0
4.8 0.8 0
5.1 0.8 0
5.4 0.8 0
5.7 0.8 0
6 0.8 0
6.3 0.8 0
6.6 0.8 0
6.9 0.8 0
7.2 0.8 0
7.5 0.8 0
7.8 0.8 0
8.1 0.8 0
8.4 0.8 0
8.7 0.8 0
9 0.8 0
9.3 0.8 0
9.6 0.8 0
9.9 0.8 0
10.2 0.8 0
10.5 0.8 0
10.8 0.8 0
11.1 0.8 0
11.4 0.8 0
11.7 0.8 0
12 0.8 0
12.3 0.8 0
12.6 0.8 0
12.9 0.8 0
13.2 0.8 0
13.5 0.8 0
13.8 0.8 0
14.1 0.8 0
14.4 0.8 0
14.7 0.8 0
15 0.8 0
15.3 0.8 0
15.6 0.8 0
15.9 0.8 0
16.2 0.8 0
16.5 0.8 0
16.8 0.8 0
17.1 0.8 0
17.4 0.8 0
17.7 0.8 0
18 0.8 0
18.3 0.8 0
18.6 0.8 0
18.9 0.8 0
19.2 0.8 0
19.5 0.8 0
19.8 0.8 0
20.1 0.8 0
20.4 0.8 0
20.7 0.8 0
21 0.8 0
21.3 0.8 0
21.6 0.8 0
21.9 0.8 0
22.2 0.8 0
22.5 0.8 0
22.8 0.8 0
23.1 0.8 0
23.4 0.8 0
23.7 0.8 0
24 0.8 0
24.3 0.8 0
24.6 0.8 0
24.9 0.8 0
25.2 0.8 0
25.5 0.8 0
25.8 0.8 0
26.1 0.8 0
26.4 0.8 0
26.7 0.8 0
27 0.8 0
27.3 0.8 0
27.6 0.8 0
27.9 0.8 0
28.2 0.8 0
28.5 0.8 0
28.8 0.8 0
29.1 0.8 0
29.4 0.8 0
29.7 0.8 0
30 0.8 0
30.3 0.8 0
0 0.9 0
0.3 0.9 0
0.6 0.9 0
0.9 0.9 0
1.2 0.9 0
1.5 0.9 0
1.8 0.9 0
2.1 0.9 0
2.4 0.9 0
2.7 0.9 0
3 0.9 0
3.3 0.9 0
3.6 0.9 0
3.9 0.9 0
4.2 0.9 0
4.5 0.9 0
4.8 0.9 0
5.1 0.9 0
5.4 0.9 0
5.7 0.9 0
6 0.9 0
6.3 0.9 0
6.6 0.9 0
6.9 0.9 0
7.2 0.9 0
7.5 0.9 0
7.8 0.9 0
8.1 0.9 0
8.4 0.9 0
8.7 0.9 0
9 0.9 0
9.3 0.9 0
9.6 0.9 0
9.9 0.9 0
10.2 0.9 0
10.5 0.9 0
10.8 0.9 0
11.1 0.9 0
11.4 0.9 0
11.7 0.9 0
12 0.9 0
12.3 0.9 0
12.6 0.9 0
12.9 0.9 0
13.2 0.9 0
13.5 0.9 0
13.8 0.9 0
14.1 0.9 0
14.4 0.9 0
14.7 0.9 0
15 0.9 0
15.3 0.9 0
15.6 0.9 0
15.9 0.9 0
16.2 0.9 0
16.5 0.9 0
16.8 0.9 0
17.1 0.9 0
17.4 0.9 0
17.7 0.9 0
18 0.9 0
18.3 0.9 0
18.6 0.9 0
18.9 0.9 0
19.2 0.9 0
19.5 0.9 0
19.8 0.9 0
20.1 0.9 0
20.4 0.9 0
20.7 0.9 0
21 0.9 0
21.3 0.9 0
21.6 0.9 0
21.9 0.9 0
22.2 0.9 0
22.5 0.9 0
22.8 0.9 0
23.1 0.9 0
23.4 0.9 0
23.7 0.9 0
24 0.9 0
24.3 0.9 0
24.6 0.9 0
24.9 0.9 0
25.2 0.9 0
25.5 0.9 0
25.8 0.9 0
26.1 0.9 0
26.4 0.9 0
26.7 0.9 0
27 0.9 0
27.3 0.9 0
27.6 0.9 0
27.9 0.9 0
28.2 0.9 0
28.5 0.9 0
28.8 0.9 0
29.1 0.9 0
29.4 0.9 0
29.7 0.9 0
30 0.9 0
30.3 0.9 0
0 1 0
0.3 1 0
0.6 1 0
0.9 1 0
1.2 1 0
1.5 1 0
1.8 1 0
2.1 1 0
2.4 1 0
2.7 1 0
3 1 0
3.3 1 0
3.6 1 0
3.9 1 0
4.2 1 0
4.5 1 0
4.8 1 0
5.1 1 0
5.4 1 0
5.7 1 0
6 1 0
6.3 1 0
6.6 1 0
6.9 1 0
7.2 1 0
7.5 1 0
7.8 1 0
8.1 1 0
8.4 1 0
8.7 1 0
9 1 0
9.3 1 0
9.6 1 0
9.9 1 0
10.2 1 0
10.5 1 0
10.8 1 0
11.1 1 0
11.4 1 0
11.7 1 0
12 1 0
12.3 1 0
12.6 1 0
12.9 1 0
13.2 1 0
13.5 1 0
13.8 1 0
14.1 1 0
14.4 1 0
14.7 1 0
15 1 0
15.3 1 0
15.6 1 0
15.9 1 0
16.2 1 0
16.5 1 0
16.8 1 0
17.1 1 0
17.4 1 0
17.7 1 0
18 1 0
18.3 1 0
18.6 1 0
18.9 1 0
19.2 1 0
19.5 1 0
19.8 1 0
20.1 1 0
20.4 1 0
20.7 1 0
21 1 0
21.3 1 0
21.6 1 0
21.9 1 0
22.2 1 0
22.5 1 0
22.8 1 0
23.1 1 0
23.4 1 0
23.7 1 0
24 1 0
24.3 1 0
24.6 1 0
24.9 1 0
25.2 1 0
25.5 1 0
25.8 1 0
26.1 1 0
26.4 1 0
26.7 1 0
27 1 0
27.3 1 0
27.6 1 0
27.9 1 0
28.2 1 0
28.5 1 0
28.8 1 0
29.1 1 0
29.4 1 0
29.7 1 0
30 1 0
30.3 1 0
0 1.1 0
0.3 1.1 0
0.6 1.1 0
0.9 1.1 0
1.2 1.1 0
1.5 1.1 0
1.8 1.1 0
2.1 1.1 0
2.4 1.1 0
2.7 1.1 0
3 1.1 0
3.3 1.1 0
3.6 1.1 0
3.9 1.1 0
4.2 1.1 0
4.5 1.1 0
4.8 1.1 0
5.1 1.1 0
5.4 1.1 0
5.7 1.1 0
6 1.1 0
6.3 1.1 0
6.6 1.1 0
6.9 1.1 0
7.2 1.1 0
7.5 1.1 0
7.8 1.1 0
8.1 1.1 0
8.4 1.1 0
8.7 1.1 0
9 1.1 0
9.3 1.1 0
9.6 1.1 0
9.9 1.1 0
10.2 1.1 0
10.5 1.1 0
10.8 1.1 0
11.1 1.1 0
11.4 1.1 0
11.7 1.1 0
12 1.1 0
12.3 1.1 0
12.6 1.1 0
12.9 1.1 0
13.2 1.1 0
13.5 1.1 0
13.8 1.1 0
14.1 1.1 0
14.4 1.1 0
14.7 1.1 0
15 1.1 0
15.3 1.1 0
15.6 1.1 0
15.9 1.1 0
16.2 1.1 0
16.5 1.1 0
16.8 1.1 0
17.1 1.1 0
17.4 1.1 0
17.7 1.1 0
18 1.1 0
18.3 1.1 0
18.6 1.1 0
18.9 1.1 0
19.2 1.1 0
19.5 1.1 0
19.8 1.1 0
20.1 1.1 0
20.4 1.1 0
20.7 1.1 0
21 1.1 0
21.3 1.1 0
21.6 1.1 0
21.9 1.1 0
22.2 1.1 0
22.5 1.1 0
22.8 1.1 0
23.1 1.1 0
23.4 1.1 0
23.7 1.1 0
24 1.1 0
24.3 1.1 0
24.6 1.1 0
24.9 1.1 0
25.2 1.1 0
25.5 1.1 0
25.8 1.1 0
26.1 1.1 0
26.4 1.1 0
26.7 1.1 0
27 1.1 0
27.3 1.1 0
27.6 1.1 0
27.9 1.1 0
28.2 1.1 0
28.5 1.1 0
28.8 1.1 0
29.1 1.1 0
29.4 1.1 0
29.7 1.1 0
30 1.1 0
30.3 1.1 0
0 1.2 0
0.3 1.2 0
0.6 1.2 0
0.9 1.2 0
1.2 1.2 0
1.5 1.2 0
1.8 1.2 0
2.1 1.2 0
2.4 1.2 0
2.7 1.2 0
3 1.2 0
3.3 1.2 0
3.6 1.2 0
3.9 1.2 0
4.2 1.2 0
4.5 1.2 0
4.8 1.2 0
5.1 1.2 0
5.4 1.2 0
5.7 1.2 0
6 1.2 0
6.3 1.2 0
6.6 1.2 0
6.9 1.2 0
7.2 1.2 0
7.5 1.2 0
7.8 1.2 0
8.1 1.2 0
8.4 1.2 0
8.7 1.2 0
9 1.2 0
9.3 1.2 0
9.6 1.2 0
9.9 1.2 0
10.2 1.2 0
10.5 1.2 0
10.8 1.2 0
11.1 1.2 0
11.4 1.2 0
11.7 1.2 0
12 1.2 0
12.3 1.2 0
12.6 1.2 0
12.9 1.2 0
13.2 1.2 0
13.5 1.2 0
13.8 1.2 0
14.1 1.2 0
14.4 1.2 0
14.7 1.2 0
15 1.2 0
15.3 1.2 0
15.6 1.2 0
15.9 1.2 0
16.2 1.2 0
16.5 1.2 0
16.8 1.2 0
17.1 1.2 0
17.4 1.2 0
17.7 1.2 0
18 1.2 0
18.3 1.2 0
18.6 1.2 0
18.9 1.2 0
19.2 1.2 0
19.5 1.2 0
19.8 1.2 0
20.1 1.2 0
20.4 1.2 0
20.7 1.2 0
21 1.2 0
21.3 1.2 0
21.6 1.2 0
21.9 1.2 0
22.2 1.2 0
22.5 1.2 0
22.8 1.2 0
23.1 1.2 0
23.4 1.2 0
23.7 1.2 0
24 1.2 0
24.3 1.2 0
24.6 1.2 0
24.9 1.2 0
25.2 1.2 0
25.5 1.2 0
25.8 1.2 0
26.1 1.2 0
26.4 1.2 0
26.7 1.2 0
27 1.2 0
27.3 1.2 0
27.6 1.2 0
27.9 1.2 0
28.2 1.2 0
28.5 1.2 0
28.8 1.2 0
29.1 1.2 0
29.4 1.2 0
29.7 1.2 0
30 1.2 0
30.3 1.2 0

POINT_DATA 1326

SCALARS p double
LOOKUP_TABLE default
1.17261
1.17261
1.10776
1.06353
1.0237
0.987129
0.954077
0.924549
0.898193
0.874484
0.852881
0.832918
0.814225
0.796526
0.779619
0.763359
0.747641
0.732385
0.717533
0.703037
0.688862
0.674976
0.661355
0.647979
0.63483
0.621899
0.609176
0.596659
0.584344
0.572231
0.560317
0.548598
0.537066
0.525711
0.514517
0.503467
0.492544
0.481728
0.471
0.460343
0.449742
0.439183
0.428657
0.418154
0.407668
0.397194
0.386728
0.376268
0.365811
0.355357
0.344905
0.334454
0.324003
0.313553
0.303103
0.292653
0.282203
0.271754
0.261304
0.250854
0.240405
0.229955
0.219506
0.209056
0.198607
0.188157
0.177708
0.167258
0.156809
0.146359
0.135909
0.12546
0.11501
0.104561
0.0941114
0.0836618
0.0732123
0.0627628
0.0523133
0.0418637
0.0314142
0.0209647
0.0105152
6.56723e-05
-0.0103838
-0.0208334
-0.0312829
-0.0417324
-0.0521819
-0.0626314
-0.0730809
-0.0835304
-0.0939799
-0.104429
-0.114879
-0.125328
-0.135778
-0.146227
-0.156677
-0.167128
-0.17756
0.17756
1.17261
1.17261
1.10776
1.06353
1.0237
0.987129
0.954077
0.924549
0.898193
0.874484
0.852881
0.832918
0.814225
0.796526
0.779619
0.763359
0.747641
0.732385
0.717533
0.703037
0.688862
0.674976
0.661355
0.647979
0.63483
0.621899
0.609176
0.596659
0.584344
0.572231
0.560317
0.548598
0.537066
0.525711
0.514517
0.503467
0.492544
0.481728
0.471
0.460343
0.449742
0.439183
0.428657
0.418154
0.407668
0.397194
0.386728
0.376268
0.365811
0.355357
0.344905
0.334454
0.324003
0.313553
0.303103
0.292653
0.282203
0.271754
0.261304
0.250854
0.240405
0.229955
0.219506
0.209056
0.198607
0.188157
0.177708
0.167258
0.156809
0.146359
0.135909
0.12546
0.11501
0.104561
0.0941114
0.0836618
0.0732123
0.0627628
0.0523133
0.0418637
0.0314142
0.0209647
0.0105152
6.56723e-05
-0.0103838
-0.0208334
-0.0312829
-0.0417324
-0.0521819
-0.0626314
-0.0730809
-0.0835304
-0.0939799
-0.104429
-0.114879
-0.125328
-0.135778
-0.146227
-0.156677
-0.167128
-0.17756
0.17756
1.15166
1.15166
1.10577
1.06376
1.02441
0.987925
0.954819
0.92518
0.8987
0.874879
0.853185
0.833152
0.814407
0.79667
0.779736
0.763457
0.747723
0.732456
0.717595
0.703093
0.688911
0.675021
0.661395
0.648015
0.634863
0.621928
0.609202
0.596681
0.584362
0.572246
0.560328
0.548606
0.537072
0.525714
0.514518
0.503468
0.492544
0.481727
0.470999
0.460342
0.449741
0.439183
0.428656
0.418154
0.407668
0.397194
0.386728
0.376268
0.365811
0.355357
0.344905
0.334454
0.324003
0.313553
0.303103
0.292653
0.282203
0.271754
0.261304
0.250854
0.240405
0.229955
0.219506
0.209056
0.198607
0.188157
0.177708
0.167258
0.156809
0.146359
0.135909
0.12546
0.11501
0.104561
0.0941114
0.0836618
0.0732123
0.0627628
0.0523133
0.0418637
0.0314142
0.0209647
0.0105152
6.5672e-05
-0.0103838
-0.0208334
-0.0312829
-0.0417324
-0.0521819
-0.0626314
-0.0730809
-0.0835304
-0.0939799
-0.104429
-0.114879
-0.125328
-0.135778
-0.146227
-0.156677
-0.167128
-0.177559
0.177559
1.13669
1.13669
1.10289
1.06399
1.02552
0.989249
0.956081
0.926258
0.899562
0.875538
0.853677
0.833517
0.814679
0.796876
0.779895
0.763582
0.747825
0.73254
0.717666
0.703154
0.688964
0.675067
0.661437
0.648051
0.634895
0.621957
0.609227
0.596703
0.584382
0.572262
0.560342
0.548617
0.53708
0.52572
0.514522
0.503471
0.492545
0.481728
0.470999
0.460342
0.44974
0.439182
0.428656
0.418153
0.407668
0.397194
0.386728
0.376268
0.365811
0.355357
0.344905
0.334454
0.324003
0.313553
0.303103
0.292653
0.282203
0.271754
0.261304
0.250854
0.240405
0.229955
0.219506
0.209056
0.198607
0.188157
0.177708
0.167258
0.156809
0.146359
0.135909
0.12546
0.11501
0.104561
0.0941114
0.0836618
0.0732123
0.0627628
0.0523133
0.0418637
0.0314142
0.0209647
0.0105152
6.5672e-05
-0.0103838
-0.0208334
-0.0312829
-0.0417324
-0.0521819
-0.0626314
-0.0730809
-0.0835304
-0.0939799
-0.104429
-0.114879
-0.125328
-0.135778
-0.146227
-0.156675
-0.167123
-0.177555
0.177555
1.12711
1.12711
1.10041
1.06409
1.02647
0.990444
0.957257
0.927295
0.900415
0.87621
0.854195
0.833911
0.814981
0.79711
0.78008
0.763731
0.747948
0.732643
0.717754
0.703229
0.689031
0.675126
0.661489
0.648098
0.634938
0.621995
0.609263
0.596736
0.584412
0.572289
0.560367
0.548639
0.537099
0.525737
0.514536
0.503482
0.492554
0.481735
0.471004
0.460346
0.449743
0.439184
0.428657
0.418154
0.407668
0.397194
0.386728
0.376268
0.365811
0.355357
0.344905
0.334454
0.324003
0.313553
0.303103
0.292653
0.282203
0.271754
0.261304
0.250854
0.240405
0.229955
0.219506
0.209056
0.198607
0.188157
0.177708
0.167258
0.156809
0.146359
0.135909
0.12546
0.11501
0.104561
0.0941114
0.0836618
0.0732123
0.0627628
0.0523133
0.0418637
0.0314142
0.0209647
0.0105152
6.56721e-05
-0.0103838
-0.0208334
-0.0312829
-0.0417324
-0.0521819
-0.0626314
-0.0730809
-0.0835304
-0.0939799
-0.104429
-0.114879
-0.125328
-0.135778
-0.146226
-0.156673
-0.16711
-0.177549
0.177549
1.1218
1.1218
1.09878
1.06411
1.02706
0.991211
0.958027
0.927984
0.900992
0.876674
0.854559
0.834196
0.815204
0.797287
0.780223
0.763849
0.748047
0.732728
0.717827
0.703294
0.689088
0.675177
0.661534
0.64814
0.634976
0.622031
0.609296
0.596767
0.584441
0.572318
0.560393
0.548663
0.537121
0.525756
0.514553
0.503496
0.492566
0.481744
0.471012
0.460351
0.449748
0.439187
0.42866
0.418156
0.407669
0.397195
0.386729
0.376268
0.365812
0.355357
0.344905
0.334454
0.324003
0.313553
0.303103
0.292653
0.282203
0.271754
0.261304
0.250854
0.240405
0.229955
0.219506
0.209056
0.198607
0.188157
0.177708
0.167258
0.156809
0.146359
0.135909
0.12546
0.11501
0.104561
0.0941114
0.0836618
0.0732123
0.0627628
0.0523133
0.0418637
0.0314142
0.0209647
0.0105152
6.56722e-05
-0.0103838
-0.0208334
-0.0312829
-0.0417324
-0.0521819
-0.0626314
-0.0730809
-0.0835304
-0.0939799
-0.104429
-0.114879
-0.125328
-0.135777
-0.146225
-0.15667
-0.167097
-0.177543
0.177543
1.1201
1.1201
1.09823
1.06413
1.02728
0.991485
0.9583
0.92823
0.901199
0.876842
0.854692
0.8343
0.815286
0.797353
0.780277
0.763895
0.748085
0.732762
0.717857
0.70332
0.689111
0.675197
0.661553
0.648157
0.634992
0.622045
0.60931
0.59678
0.584454
0.57233
0.560405
0.548674
0.537131
0.525765
0.514561
0.503503
0.492572
0.481749
0.471015
0.460354
0.44975
0.439189
0.428661
0.418157
0.40767
0.397195
0.386729
0.376268
0.365812
0.355358
0.344905
0.334454
0.324003
0.313553
0.303103
0.292653
0.282203
0.271754
0.261304
0.250854
0.240405
0.229955
0.219506
0.209056
0.198607
0.188157
0.177708
0.167258
0.156809
0.146359
0.135909
0.12546
0.11501
0.104561
0.0941114
0.0836618
0.0732123
0.0627628
0.0523133
0.0418637
0.0314142
0.0209647
0.0105152
6.56724e-05
-0.0103838
-0.0208334
-0.0312829
-0.0417324
-0.0521819
-0.0626314
-0.0730809
-0.0835304
-0.0939799
-0.104429
-0.114879
-0.125328
-0.135777
-0.146225
-0.156669
-0.167092
-0.177541
0.177541
1.1218
1.1218
1.09878
1.06411
1.02706
0.991211
0.958027
0.927984
0.900992
0.876674
0.854559
0.834196
0.815204
0.797287
0.780223
0.763849
0.748047
0.732728
0.717827
0.703294
0.689088
0.675177
0.661534
0.64814
0.634976
0.622031
0.609296
0.596767
0.584441
0.572318
0.560393
0.548663
0.537121
0.525756
0.514553
0.503496
0.492566
0.481744
0.471012
0.460351
0.449748
0.439187
0.42866
0.418156
0.407669
0.397195
0.386729
0.376268
0.365812
0.355357
0.344905
0.334454
0.324003
0.313553
0.303103
0.292653
0.282203
0.271754
0.261304
0.250854
0.240405
0.229955
0.219506
0.209056
0.198607
0.188157
0.177708
0.167258
0.156809
0.146359
0.135909
0.12546
0.11501
0.104561
0.0941114
0.0836618
0.0732123
0.0627628
0.0523133
0.0418637
0.0314142
0.0209647
0.0105152
6.56727e-05
-0.0103838
-0.0208334
-0.0312829
-0.0417324
-0.0521819
-0.0626314
-0.0730809
-0.0835304
-0.0939799
-0.104429
-0.114879
-0.125328
-0.135777
-0.146225
-0.15667
-0.167097
-0.177543
0.177543
1.12711
1.12711
1.10041
1.06409
1.02647
0.990444
0.957257
0.927295
0.900415
0.87621
0.854195
0.833911
0.814981
0.79711
0.78008
0.763731
0.747948
0.732643
0.717754
0.703229
0.689031
0.675126
0.661489
0.648098
0.634938
0.621995
0.609263
0.596736
0.584412
0.572289
0.560367
0.548639
0.537099
0.525737
0.514536
0.503482
0.492554
0.481735
0.471004
0.460346
0.449743
0.439184
0.428657
0.418154
0.407668
0.397194
0.386728
0.376268
0.365811
0.355357
0.344905
0.334454
0.324003
0.313553
0.303103
0.292653
0.282203
0.271754
0.261304
0.250854
0.240405
0.229955
0.219506
0.209056
0.198607
0.188157
0.177708
0.167258
0.156809
0.146359
0.135909
0.12546
0.11501
0.104561
0.0941114
0.0836618
0.0732123
0.0627628
0.0523133
0.0418637
0.0314142
0.0209647
0.0105152
6.56729e-05
-0.0103838
-0.0208334
-0.0312829
-0.0417324
-0.0521819
-0.0626314
-0.0730809
-0.0835304
-0.0939799
-0.104429
-0.114879
-0.125328
-0.135778
-0.146226
-0.156673
-0.16711
-0.177549
0.177549
1.13669
1.13669
1.10289
1.06399
1.02552
0.989249
0.956081
0.926258
0.899562
0.875538
0.853677
0.833517
0.814679
0.796876
0.779895
0.763582
0.747825
0.73254
0.717666
0.703154
0.688964
0.675067
0.661437
0.648051
0.634895
0.621957
0.609227
0.596703
0.584382
0.572262
0.560342
0.548617
0.53708
0.52572
0.514522
0.503471
0.492545
0.481728
0.470999
0.460342
0.44974
0.439182
0.428656
0.418153
0.407668
0.397194
0.386728
0.376268
0.365811
0.355357
0.344905
0.334454
0.324003
0.313553
0.303103
0.292653
0.282203
0.271754
0.261304
0.250854
0.240405
0.229955
0.219506
0.209056
0.198607
0.188157
0.177708
0.167258
0.156809
0.146359
0.135909
0.12546
0.11501
0.104561
0.0941114
0.0836618
0.0732123
0.0627628
0.0523133
0.0418637
0.0314142
0.0209647
0.0105152
6.56732e-05
-0.0103838
-0.0208334
-0.0312829
-0.0417324
-0.0521819
-0.0626314
-0.0730809
-0.0835304
-0.0939799
-0.104429
-0.114879
-0.125328
-0.135778
-0.146227
-0.156675
-0.167123
-0.177555
0.177555
1.15166
1.15166
1.10577
1.06376
1.02441
0.987925
0.95482
0.92518
0.8987
0.874879
0.853185
0.833152
0.814407
0.79667
0.779736
0.763457
0.747723
0.732456
0.717595
0.703093
0.688911
0.675021
0.661395
0.648015
0.634863
0.621928
0.609202
0.596681
0.584362
0.572246
0.560328
0.548606
0.537072
0.525714
0.514518
0.503468
0.492544
0.481727
0.470999
0.460342
0.449741
0.439183
0.428656
0.418154
0.407668
0.397194
0.386728
0.376268
0.365811
0.355357
0.344905
0.334454
0.324003
0.313553
0.303103
0.292653
0.282203
0.271754
0.261304
0.250854
0.240405
0.229955
0.219506
0.209056
0.198607
0.188157
0.177708
0.167258
0.156809
0.146359
0.135909
0.12546
0.11501
0.104561
0.0941114
0.0836618
0.0732123
0.0627628
0.0523133
0.0418637
0.0314142
0.0209647
0.0105152
6.56733e-05
-0.0103838
-0.0208334
-0.0312829
-0.0417324
-0.0521819
-0.0626314
-0.0730809
-0.0835304
-0.0939799
-0.104429
-0.114879
-0.125328
-0.135778
-0.146227
-0.156677
-0.167128
-0.177559
0.177559
1.17261
1.17261
1.10776
1.06353
1.0237
0.987129
0.954077
0.924549
0.898193
0.874484
0.852881
0.832918
0.814225
0.796526
0.779619
0.763359
0.747641
0.732385
0.717533
0.703037
0.688862
0.674976
0.661355
0.647979
0.63483
0.621899
0.609176
0.596659
0.584344
0.572231
0.560317
0.548598
0.537066
0.525711
0.514517
0.503467
0.492544
0.481728
0.471
0.460343
0.449742
0.439183
0.428657
0.418154
0.407668
0.397194
0.386728
0.376268
0.365811
0.355357
0.344905
0.334454
0.324003
0.313553
0.303103
0.292653
0.282203
0.271754
0.261304
0.250854
0.240405
0.229955
0.219506
0.209056
0.198607
0.188157
0.177708
0.167258
0.156809
0.146359
0.135909
0.12546
0.11501
0.104561
0.0941114
0.0836618
0.0732123
0.0627628
0.0523133
0.0418637
0.0314142
0.0209647
0.0105152
6.56732e-05
-0.0103838
-0.0208334
-0.0312829
-0.0417324
-0.0521819
-0.0626314
-0.0730809
-0.0835304
-0.0939799
-0.104429
-0.114879
-0.125328
-0.135778
-0.146227
-0.156677
-0.167128
-0.17756
0.17756
1.17261
1.17261
1.10776
1.06353
1.0237
0.987129
0.954077
0.924549
0.898193
0.874484
0.852881
0.832918
0.814225
0.796526
0.779619
0.763359
0.747641
0.732385
0.717533
0.703037
0.688862
0.674976
0.661355
0.647979
0.63483
0.621899
0.609176
0.596659
0.584344
0.572231
0.560317
0.548598
0.537066
0.525711
0.514517
0.503467
0.492544
0.481728
0.471
0.460343
0.449742
0.439183
0.428657
0.418154
0.407668
0.397194
0.386728
0.376268
0.365811
0.355357
0.344905
0.334454
0.324003
0.313553
0.303103
0.292653
0.282203
0.271754
0.261304
0.250854
0.240405
0.229955
0.219506
0.209056
0.198607
0.188157
0.177708
0.167258
0.156809
0.146359
0.135909
0.12546
0.11501
0.104561
0.0941114
0.0836618
0.0732123
0.0627628
0.0523133
0.0418637
0.0314142
0.0209647
0.0105152
6.56732e-05
-0.0103838
-0.0208334
-0.0312829
-0.0417324
-0.0521819
-0.0626314
-0.0730809
-0.0835304
-0.0939799
-0.104429
-0.114879
-0.125328
-0.135778
-0.146227
-0.156677
-0.167128
-0.17756
0.17756
