# vtk DataFile Version 2.0
FlowField
ASCII
DATASET STRUCTURED_GRID
DIMENSIONS 102 13 1 
POINTS 1326 double
0 0 0
0.3 0 0
0.6 0 0
0.9 0 0
1.2 0 0
1.5 0 0
1.8 0 0
2.1 0 0
2.4 0 0
2.7 0 0
3 0 0
3.3 0 0
3.6 0 0
3.9 0 0
4.2 0 0
4.5 0 0
4.8 0 0
5.1 0 0
5.4 0 0
5.7 0 0
6 0 0
6.3 0 0
6.6 0 0
6.9 0 0
7.2 0 0
7.5 0 0
7.8 0 0
8.1 0 0
8.4 0 0
8.7 0 0
9 0 0
9.3 0 0
9.6 0 0
9.9 0 0
10.2 0 0
10.5 0 0
10.8 0 0
11.1 0 0
11.4 0 0
11.7 0 0
12 0 0
12.3 0 0
12.6 0 0
12.9 0 0
13.2 0 0
13.5 0 0
13.8 0 0
14.1 0 0
14.4 0 0
14.7 0 0
15 0 0
15.3 0 0
15.6 0 0
15.9 0 0
16.2 0 0
16.5 0 0
16.8 0 0
17.1 0 0
17.4 0 0
17.7 0 0
18 0 0
18.3 0 0
18.6 0 0
18.9 0 0
19.2 0 0
19.5 0 0
19.8 0 0
20.1 0 0
20.4 0 0
20.7 0 0
21 0 0
21.3 0 0
21.6 0 0
21.9 0 0
22.2 0 0
22.5 0 0
22.8 0 0
23.1 0 0
23.4 0 0
23.7 0 0
24 0 0
24.3 0 0
24.6 0 0
24.9 0 0
25.2 0 0
25.5 0 0
25.8 0 0
26.1 0 0
26.4 0 0
26.7 0 0
27 0 0
27.3 0 0
27.6 0 0
27.9 0 0
28.2 0 0
28.5 0 0
28.8 0 0
29.1 0 0
29.4 0 0
29.7 0 0
30 0 0
30.3 0 0
0 0.1 0
0.3 0.1 0
0.6 0.1 0
0.9 0.1 0
1.2 0.1 0
1.5 0.1 0
1.8 0.1 0
2.1 0.1 0
2.4 0.1 0
2.7 0.1 0
3 0.1 0
3.3 0.1 0
3.6 0.1 0
3.9 0.1 0
4.2 0.1 0
4.5 0.1 0
4.8 0.1 0
5.1 0.1 0
5.4 0.1 0
5.7 0.1 0
6 0.1 0
6.3 0.1 0
6.6 0.1 0
6.9 0.1 0
7.2 0.1 0
7.5 0.1 0
7.8 0.1 0
8.1 0.1 0
8.4 0.1 0
8.7 0.1 0
9 0.1 0
9.3 0.1 0
9.6 0.1 0
9.9 0.1 0
10.2 0.1 0
10.5 0.1 0
10.8 0.1 0
11.1 0.1 0
11.4 0.1 0
11.7 0.1 0
12 0.1 0
12.3 0.1 0
12.6 0.1 0
12.9 0.1 0
13.2 0.1 0
13.5 0.1 0
13.8 0.1 0
14.1 0.1 0
14.4 0.1 0
14.7 0.1 0
15 0.1 0
15.3 0.1 0
15.6 0.1 0
15.9 0.1 0
16.2 0.1 0
16.5 0.1 0
16.8 0.1 0
17.1 0.1 0
17.4 0.1 0
17.7 0.1 0
18 0.1 0
18.3 0.1 0
18.6 0.1 0
18.9 0.1 0
19.2 0.1 0
19.5 0.1 0
19.8 0.1 0
20.1 0.1 0
20.4 0.1 0
20.7 0.1 0
21 0.1 0
21.3 0.1 0
21.6 0.1 0
21.9 0.1 0
22.2 0.1 0
22.5 0.1 0
22.8 0.1 0
23.1 0.1 0
23.4 0.1 0
23.7 0.1 0
24 0.1 0
24.3 0.1 0
24.6 0.1 0
24.9 0.1 0
25.2 0.1 0
25.5 0.1 0
25.8 0.1 0
26.1 0.1 0
26.4 0.1 0
26.7 0.1 0
27 0.1 0
27.3 0.1 0
27.6 0.1 0
27.9 0.1 0
28.2 0.1 0
28.5 0.1 0
28.8 0.1 0
29.1 0.1 0
29.4 0.1 0
29.7 0.1 0
30 0.1 0
30.3 0.1 0
0 0.2 0
0.3 0.2 0
0.6 0.2 0
0.9 0.2 0
1.2 0.2 0
1.5 0.2 0
1.8 0.2 0
2.1 0.2 0
2.4 0.2 0
2.7 0.2 0
3 0.2 0
3.3 0.2 0
3.6 0.2 0
3.9 0.2 0
4.2 0.2 0
4.5 0.2 0
4.8 0.2 0
5.1 0.2 0
5.4 0.2 0
5.7 0.2 0
6 0.2 0
6.3 0.2 0
6.6 0.2 0
6.9 0.2 0
7.2 0.2 0
7.5 0.2 0
7.8 0.2 0
8.1 0.2 0
8.4 0.2 0
8.7 0.2 0
9 0.2 0
9.3 0.2 0
9.6 0.2 0
9.9 0.2 0
10.2 0.2 0
10.5 0.2 0
10.8 0.2 0
11.1 0.2 0
11.4 0.2 0
11.7 0.2 0
12 0.2 0
12.3 0.2 0
12.6 0.2 0
12.9 0.2 0
13.2 0.2 0
13.5 0.2 0
13.8 0.2 0
14.1 0.2 0
14.4 0.2 0
14.7 0.2 0
15 0.2 0
15.3 0.2 0
15.6 0.2 0
15.9 0.2 0
16.2 0.2 0
16.5 0.2 0
16.8 0.2 0
17.1 0.2 0
17.4 0.2 0
17.7 0.2 0
18 0.2 0
18.3 0.2 0
18.6 0.2 0
18.9 0.2 0
19.2 0.2 0
19.5 0.2 0
19.8 0.2 0
20.1 0.2 0
20.4 0.2 0
20.7 0.2 0
21 0.2 0
21.3 0.2 0
21.6 0.2 0
21.9 0.2 0
22.2 0.2 0
22.5 0.2 0
22.8 0.2 0
23.1 0.2 0
23.4 0.2 0
23.7 0.2 0
24 0.2 0
24.3 0.2 0
24.6 0.2 0
24.9 0.2 0
25.2 0.2 0
25.5 0.2 0
25.8 0.2 0
26.1 0.2 0
26.4 0.2 0
26.7 0.2 0
27 0.2 0
27.3 0.2 0
27.6 0.2 0
27.9 0.2 0
28.2 0.2 0
28.5 0.2 0
28.8 0.2 0
29.1 0.2 0
29.4 0.2 0
29.7 0.2 0
30 0.2 0
30.3 0.2 0
0 0.3 0
0.3 0.3 0
0.6 0.3 0
0.9 0.3 0
1.2 0.3 0
1.5 0.3 0
1.8 0.3 0
2.1 0.3 0
2.4 0.3 0
2.7 0.3 0
3 0.3 0
3.3 0.3 0
3.6 0.3 0
3.9 0.3 0
4.2 0.3 0
4.5 0.3 0
4.8 0.3 0
5.1 0.3 0
5.4 0.3 0
5.7 0.3 0
6 0.3 0
6.3 0.3 0
6.6 0.3 0
6.9 0.3 0
7.2 0.3 0
7.5 0.3 0
7.8 0.3 0
8.1 0.3 0
8.4 0.3 0
8.7 0.3 0
9 0.3 0
9.3 0.3 0
9.6 0.3 0
9.9 0.3 0
10.2 0.3 0
10.5 0.3 0
10.8 0.3 0
11.1 0.3 0
11.4 0.3 0
11.7 0.3 0
12 0.3 0
12.3 0.3 0
12.6 0.3 0
12.9 0.3 0
13.2 0.3 0
13.5 0.3 0
13.8 0.3 0
14.1 0.3 0
14.4 0.3 0
14.7 0.3 0
15 0.3 0
15.3 0.3 0
15.6 0.3 0
15.9 0.3 0
16.2 0.3 0
16.5 0.3 0
16.8 0.3 0
17.1 0.3 0
17.4 0.3 0
17.7 0.3 0
18 0.3 0
18.3 0.3 0
18.6 0.3 0
18.9 0.3 0
19.2 0.3 0
19.5 0.3 0
19.8 0.3 0
20.1 0.3 0
20.4 0.3 0
20.7 0.3 0
21 0.3 0
21.3 0.3 0
21.6 0.3 0
21.9 0.3 0
22.2 0.3 0
22.5 0.3 0
22.8 0.3 0
23.1 0.3 0
23.4 0.3 0
23.7 0.3 0
24 0.3 0
24.3 0.3 0
24.6 0.3 0
24.9 0.3 0
25.2 0.3 0
25.5 0.3 0
25.8 0.3 0
26.1 0.3 0
26.4 0.3 0
26.7 0.3 0
27 0.3 0
27.3 0.3 0
27.6 0.3 0
27.9 0.3 0
28.2 0.3 0
28.5 0.3 0
28.8 0.3 0
29.1 0.3 0
29.4 0.3 0
29.7 0.3 0
30 0.3 0
30.3 0.3 0
0 0.4 0
0.3 0.4 0
0.6 0.4 0
0.9 0.4 0
1.2 0.4 0
1.5 0.4 0
1.8 0.4 0
2.1 0.4 0
2.4 0.4 0
2.7 0.4 0
3 0.4 0
3.3 0.4 0
3.6 0.4 0
3.9 0.4 0
4.2 0.4 0
4.5 0.4 0
4.8 0.4 0
5.1 0.4 0
5.4 0.4 0
5.7 0.4 0
6 0.4 0
6.3 0.4 0
6.6 0.4 0
6.9 0.4 0
7.2 0.4 0
7.5 0.4 0
7.8 0.4 0
8.1 0.4 0
8.4 0.4 0
8.7 0.4 0
9 0.4 0
9.3 0.4 0
9.6 0.4 0
9.9 0.4 0
10.2 0.4 0
10.5 0.4 0
10.8 0.4 0
11.1 0.4 0
11.4 0.4 0
11.7 0.4 0
12 0.4 0
12.3 0.4 0
12.6 0.4 0
12.9 0.4 0
13.2 0.4 0
13.5 0.4 0
13.8 0.4 0
14.1 0.4 0
14.4 0.4 0
14.7 0.4 0
15 0.4 0
15.3 0.4 0
15.6 0.4 0
15.9 0.4 0
16.2 0.4 0
16.5 0.4 0
16.8 0.4 0
17.1 0.4 0
17.4 0.4 0
17.7 0.4 0
18 0.4 0
18.3 0.4 0
18.6 0.4 0
18.9 0.4 0
19.2 0.4 0
19.5 0.4 0
19.8 0.4 0
20.1 0.4 0
20.4 0.4 0
20.7 0.4 0
21 0.4 0
21.3 0.4 0
21.6 0.4 0
21.9 0.4 0
22.2 0.4 0
22.5 0.4 0
22.8 0.4 0
23.1 0.4 0
23.4 0.4 0
23.7 0.4 0
24 0.4 0
24.3 0.4 0
24.6 0.4 0
24.9 0.4 0
25.2 0.4 0
25.5 0.4 0
25.8 0.4 0
26.1 0.4 0
26.4 0.4 0
26.7 0.4 0
27 0.4 0
27.3 0.4 0
27.6 0.4 0
27.9 0.4 0
28.2 0.4 0
28.5 0.4 0
28.8 0.4 0
29.1 0.4 0
29.4 0.4 0
29.7 0.4 0
30 0.4 0
30.3 0.4 0
0 0.5 0
0.3 0.5 0
0.6 0.5 0
0.9 0.5 0
1.2 0.5 0
1.5 0.5 0
1.8 0.5 0
2.1 0.5 0
2.4 0.5 0
2.7 0.5 0
3 0.5 0
3.3 0.5 0
3.6 0.5 0
3.9 0.5 0
4.2 0.5 0
4.5 0.5 0
4.8 0.5 0
5.1 0.5 0
5.4 0.5 0
5.7 0.5 0
6 0.5 0
6.3 0.5 0
6.6 0.5 0
6.9 0.5 0
7.2 0.5 0
7.5 0.5 0
7.8 0.5 0
8.1 0.5 0
8.4 0.5 0
8.7 0.5 0
9 0.5 0
9.3 0.5 0
9.6 0.5 0
9.9 0.5 0
10.2 0.5 0
10.5 0.5 0
10.8 0.5 0
11.1 0.5 0
11.4 0.5 0
11.7 0.5 0
12 0.5 0
12.3 0.5 0
12.6 0.5 0
12.9 0.5 0
13.2 0.5 0
13.5 0.5 0
13.8 0.5 0
14.1 0.5 0
14.4 0.5 0
14.7 0.5 0
15 0.5 0
15.3 0.5 0
15.6 0.5 0
15.9 0.5 0
16.2 0.5 0
16.5 0.5 0
16.8 0.5 0
17.1 0.5 0
17.4 0.5 0
17.7 0.5 0
18 0.5 0
18.3 0.5 0
18.6 0.5 0
18.9 0.5 0
19.2 0.5 0
19.5 0.5 0
19.8 0.5 0
20.1 0.5 0
20.4 0.5 0
20.7 0.5 0
21 0.5 0
21.3 0.5 0
21.6 0.5 0
21.9 0.5 0
22.2 0.5 0
22.5 0.5 0
22.8 0.5 0
23.1 0.5 0
23.4 0.5 0
23.7 0.5 0
24 0.5 0
24.3 0.5 0
24.6 0.5 0
24.9 0.5 0
25.2 0.5 0
25.5 0.5 0
25.8 0.5 0
26.1 0.5 0
26.4 0.5 0
26.7 0.5 0
27 0.5 0
27.3 0.5 0
27.6 0.5 0
27.9 0.5 0
28.2 0.5 0
28.5 0.5 0
28.8 0.5 0
29.1 0.5 0
29.4 0.5 0
29.7 0.5 0
30 0.5 0
30.3 0.5 0
0 0.6 0
0.3 0.6 0
0.6 0.6 0
0.9 0.6 0
1.2 0.6 0
1.5 0.6 0
1.8 0.6 0
2.1 0.6 0
2.4 0.6 0
2.7 0.6 0
3 0.6 0
3.3 0.6 0
3.6 0.6 0
3.9 0.6 0
4.2 0.6 0
4.5 0.6 0
4.8 0.6 0
5.1 0.6 0
5.4 0.6 0
5.7 0.6 0
6 0.6 0
6.3 0.6 0
6.6 0.6 0
6.9 0.6 0
7.2 0.6 0
7.5 0.6 0
7.8 0.6 0
8.1 0.6 0
8.4 0.6 0
8.7 0.6 0
9 0.6 0
9.3 0.6 0
9.6 0.6 0
9.9 0.6 0
10.2 0.6 0
10.5 0.6 0
10.8 0.6 0
11.1 0.6 0
11.4 0.6 0
11.7 0.6 0
12 0.6 0
12.3 0.6 0
12.6 0.6 0
12.9 0.6 0
13.2 0.6 0
13.5 0.6 0
13.8 0.6 0
14.1 0.6 0
14.4 0.6 0
14.7 0.6 0
15 0.6 0
15.3 0.6 0
15.6 0.6 0
15.9 0.6 0
16.2 0.6 0
16.5 0.6 0
16.8 0.6 0
17.1 0.6 0
17.4 0.6 0
17.7 0.6 0
18 0.6 0
18.3 0.6 0
18.6 0.6 0
18.9 0.6 0
19.2 0.6 0
19.5 0.6 0
19.8 0.6 0
20.1 0.6 0
20.4 0.6 0
20.7 0.6 0
21 0.6 0
21.3 0.6 0
21.6 0.6 0
21.9 0.6 0
22.2 0.6 0
22.5 0.6 0
22.8 0.6 0
23.1 0.6 0
23.4 0.6 0
23.7 0.6 0
24 0.6 0
24.3 0.6 0
24.6 0.6 0
24.9 0.6 0
25.2 0.6 0
25.5 0.6 0
25.8 0.6 0
26.1 0.6 0
26.4 0.6 0
26.7 0.6 0
27 0.6 0
27.3 0.6 0
27.6 0.6 0
27.9 0.6 0
28.2 0.6 0
28.5 0.6 0
28.8 0.6 0
29.1 0.6 0
29.4 0.6 0
29.7 0.6 0
30 0.6 0
30.3 0.6 0
0 0.7 0
0.3 0.7 0
0.6 0.7 0
0.9 0.7 0
1.2 0.7 0
1.5 0.7 0
1.8 0.7 0
2.1 0.7 0
2.4 0.7 0
2.7 0.7 0
3 0.7 0
3.3 0.7 0
3.6 0.7 0
3.9 0.7 0
4.2 0.7 0
4.5 0.7 0
4.8 0.7 0
5.1 0.7 0
5.4 0.7 0
5.7 0.7 0
6 0.7 0
6.3 0.7 0
6.6 0.7 0
6.9 0.7 0
7.2 0.7 0
7.5 0.7 0
7.8 0.7 0
8.1 0.7 0
8.4 0.7 0
8.7 0.7 0
9 0.7 0
9.3 0.7 0
9.6 0.7 0
9.9 0.7 0
10.2 0.7 0
10.5 0.7 0
10.8 0.7 0
11.1 0.7 0
11.4 0.7 0
11.7 0.7 0
12 0.7 0
12.3 0.7 0
12.6 0.7 0
12.9 0.7 0
13.2 0.7 0
13.5 0.7 0
13.8 0.7 0
14.1 0.7 0
14.4 0.7 0
14.7 0.7 0
15 0.7 0
15.3 0.7 0
15.6 0.7 0
15.9 0.7 0
16.2 0.7 0
16.5 0.7 0
16.8 0.7 0
17.1 0.7 0
17.4 0.7 0
17.7 0.7 0
18 0.7 0
18.3 0.7 0
18.6 0.7 0
18.9 0.7 0
19.2 0.7 0
19.5 0.7 0
19.8 0.7 0
20.1 0.7 0
20.4 0.7 0
20.7 0.7 0
21 0.7 0
21.3 0.7 0
21.6 0.7 0
21.9 0.7 0
22.2 0.7 0
22.5 0.7 0
22.8 0.7 0
23.1 0.7 0
23.4 0.7 0
23.7 0.7 0
24 0.7 0
24.3 0.7 0
24.6 0.7 0
24.9 0.7 0
25.2 0.7 0
25.5 0.7 0
25.8 0.7 0
26.1 0.7 0
26.4 0.7 0
26.7 0.7 0
27 0.7 0
27.3 0.7 0
27.6 0.7 0
27.9 0.7 0
28.2 0.7 0
28.5 0.7 0
28.8 0.7 0
29.1 0.7 0
29.4 0.7 0
29.7 0.7 0
30 0.7 0
30.3 0.7 0
0 0.8 0
0.3 0.8 0
0.6 0.8 0
0.9 0.8 0
1.2 0.8 0
1.5 0.8 0
1.8 0.8 0
2.1 0.8 0
2.4 0.8 0
2.7 0.8 0
3 0.8 0
3.3 0.8 0
3.6 0.8 0
3.9 0.8 0
4.2 0.8 0
4.5 0.8 0
4.8 0.8 0
5.1 0.8 0
5.4 0.8 0
5.7 0.8 0
6 0.8 0
6.3 0.8 0
6.6 0.8 0
6.9 0.8 0
7.2 0.8 0
7.5 0.8 0
7.8 0.8 0
8.1 0.8 0
8.4 0.8 0
8.7 0.8 0
9 0.8 0
9.3 0.8 0
9.6 0.8 0
9.9 0.8 0
10.2 0.8 0
10.5 0.8 0
10.8 0.8 0
11.1 0.8 0
11.4 0.8 0
11.7 0.8 0
12 0.8 0
12.3 0.8 0
12.6 0.8 0
12.9 0.8 0
13.2 0.8 0
13.5 0.8 0
13.8 0.8 0
14.1 0.8 0
14.4 0.8 0
14.7 0.8 0
15 0.8 0
15.3 0.8 0
15.6 0.8 0
15.9 0.8 0
16.2 0.8 0
16.5 0.8 0
16.8 0.8 0
17.1 0.8 0
17.4 0.8 0
17.7 0.8 0
18 0.8 0
18.3 0.8 0
18.6 0.8 0
18.9 0.8 0
19.2 0.8 0
19.5 0.8 0
19.8 0.8 0
20.1 0.8 0
20.4 0.8 0
20.7 0.8 0
21 0.8 0
21.3 0.8 0
21.6 0.8 0
21.9 0.8 0
22.2 0.8 0
22.5 0.8 0
22.8 0.8 0
23.1 0.8 0
23.4 0.8 0
23.7 0.8 0
24 0.8 0
24.3 0.8 0
24.6 0.8 0
24.9 0.8 0
25.2 0.8 0
25.5 0.8 0
25.8 0.8 0
26.1 0.8 0
26.4 0.8 0
26.7 0.8 0
27 0.8 0
27.3 0.8 0
27.6 0.8 0
27.9 0.8 0
28.2 0.8 0
28.5 0.8 0
28.8 0.8 0
29.1 0.8 0
29.4 0.8 0
29.7 0.8 0
30 0.8 0
30.3 0.8 0
0 0.9 0
0.3 0.9 0
0.6 0.9 0
0.9 0.9 0
1.2 0.9 0
1.5 0.9 0
1.8 0.9 0
2.1 0.9 0
2.4 0.9 0
2.7 0.9 0
3 0.9 0
3.3 0.9 0
3.6 0.9 0
3.9 0.9 0
4.2 0.9 0
4.5 0.9 0
4.8 0.9 0
5.1 0.9 0
5.4 0.9 0
5.7 0.9 0
6 0.9 0
6.3 0.9 0
6.6 0.9 0
6.9 0.9 0
7.2 0.9 0
7.5 0.9 0
7.8 0.9 0
8.1 0.9 0
8.4 0.9 0
8.7 0.9 0
9 0.9 0
9.3 0.9 0
9.6 0.9 0
9.9 0.9 0
10.2 0.9 0
10.5 0.9 0
10.8 0.9 0
11.1 0.9 0
11.4 0.9 0
11.7 0.9 0
12 0.9 0
12.3 0.9 0
12.6 0.9 0
12.9 0.9 0
13.2 0.9 0
13.5 0.9 0
13.8 0.9 0
14.1 0.9 0
14.4 0.9 0
14.7 0.9 0
15 0.9 0
15.3 0.9 0
15.6 0.9 0
15.9 0.9 0
16.2 0.9 0
16.5 0.9 0
16.8 0.9 0
17.1 0.9 0
17.4 0.9 0
17.7 0.9 0
18 0.9 0
18.3 0.9 0
18.6 0.9 0
18.9 0.9 0
19.2 0.9 0
19.5 0.9 0
19.8 0.9 0
20.1 0.9 0
20.4 0.9 0
20.7 0.9 0
21 0.9 0
21.3 0.9 0
21.6 0.9 0
21.9 0.9 0
22.2 0.9 0
22.5 0.9 0
22.8 0.9 0
23.1 0.9 0
23.4 0.9 0
23.7 0.9 0
24 0.9 0
24.3 0.9 0
24.6 0.9 0
24.9 0.9 0
25.2 0.9 0
25.5 0.9 0
25.8 0.9 0
26.1 0.9 0
26.4 0.9 0
26.7 0.9 0
27 0.9 0
27.3 0.9 0
27.6 0.9 0
27.9 0.9 0
28.2 0.9 0
28.5 0.9 0
28.8 0.9 0
29.1 0.9 0
29.4 0.9 0
29.7 0.9 0
30 0.9 0
30.3 0.9 0
0 1 0
0.3 1 0
0.6 1 0
0.9 1 0
1.2 1 0
1.5 1 0
1.8 1 0
2.1 1 0
2.4 1 0
2.7 1 0
3 1 0
3.3 1 0
3.6 1 0
3.9 1 0
4.2 1 0
4.5 1 0
4.8 1 0
5.1 1 0
5.4 1 0
5.7 1 0
6 1 0
6.3 1 0
6.6 1 0
6.9 1 0
7.2 1 0
7.5 1 0
7.8 1 0
8.1 1 0
8.4 1 0
8.7 1 0
9 1 0
9.3 1 0
9.6 1 0
9.9 1 0
10.2 1 0
10.5 1 0
10.8 1 0
11.1 1 0
11.4 1 0
11.7 1 0
12 1 0
12.3 1 0
12.6 1 0
12.9 1 0
13.2 1 0
13.5 1 0
13.8 1 0
14.1 1 0
14.4 1 0
14.7 1 0
15 1 0
15.3 1 0
15.6 1 0
15.9 1 0
16.2 1 0
16.5 1 0
16.8 1 0
17.1 1 0
17.4 1 0
17.7 1 0
18 1 0
18.3 1 0
18.6 1 0
18.9 1 0
19.2 1 0
19.5 1 0
19.8 1 0
20.1 1 0
20.4 1 0
20.7 1 0
21 1 0
21.3 1 0
21.6 1 0
21.9 1 0
22.2 1 0
22.5 1 0
22.8 1 0
23.1 1 0
23.4 1 0
23.7 1 0
24 1 0
24.3 1 0
24.6 1 0
24.9 1 0
25.2 1 0
25.5 1 0
25.8 1 0
26.1 1 0
26.4 1 0
26.7 1 0
27 1 0
27.3 1 0
27.6 1 0
27.9 1 0
28.2 1 0
28.5 1 0
28.8 1 0
29.1 1 0
29.4 1 0
29.7 1 0
30 1 0
30.3 1 0
0 1.1 0
0.3 1.1 0
0.6 1.1 0
0.9 1.1 0
1.2 1.1 0
1.5 1.1 0
1.8 1.1 0
2.1 1.1 0
2.4 1.1 0
2.7 1.1 0
3 1.1 0
3.3 1.1 0
3.6 1.1 0
3.9 1.1 0
4.2 1.1 0
4.5 1.1 0
4.8 1.1 0
5.1 1.1 0
5.4 1.1 0
5.7 1.1 0
6 1.1 0
6.3 1.1 0
6.6 1.1 0
6.9 1.1 0
7.2 1.1 0
7.5 1.1 0
7.8 1.1 0
8.1 1.1 0
8.4 1.1 0
8.7 1.1 0
9 1.1 0
9.3 1.1 0
9.6 1.1 0
9.9 1.1 0
10.2 1.1 0
10.5 1.1 0
10.8 1.1 0
11.1 1.1 0
11.4 1.1 0
11.7 1.1 0
12 1.1 0
12.3 1.1 0
12.6 1.1 0
12.9 1.1 0
13.2 1.1 0
13.5 1.1 0
13.8 1.1 0
14.1 1.1 0
14.4 1.1 0
14.7 1.1 0
15 1.1 0
15.3 1.1 0
15.6 1.1 0
15.9 1.1 0
16.2 1.1 0
16.5 1.1 0
16.8 1.1 0
17.1 1.1 0
17.4 1.1 0
17.7 1.1 0
18 1.1 0
18.3 1.1 0
18.6 1.1 0
18.9 1.1 0
19.2 1.1 0
19.5 1.1 0
19.8 1.1 0
20.1 1.1 0
20.4 1.1 0
20.7 1.1 0
21 1.1 0
21.3 1.1 0
21.6 1.1 0
21.9 1.1 0
22.2 1.1 0
22.5 1.1 0
22.8 1.1 0
23.1 1.1 0
23.4 1.1 0
23.7 1.1 0
24 1.1 0
24.3 1.1 0
24.6 1.1 0
24.9 1.1 0
25.2 1.1 0
25.5 1.1 0
25.8 1.1 0
26.1 1.1 0
26.4 1.1 0
26.7 1.1 0
27 1.1 0
27.3 1.1 0
27.6 1.1 0
27.9 1.1 0
28.2 1.1 0
28.5 1.1 0
28.8 1.1 0
29.1 1.1 0
29.4 1.1 0
29.7 1.1 0
30 1.1 0
30.3 1.1 0
0 1.2 0
0.3 1.2 0
0.6 1.2 0
0.9 1.2 0
1.2 1.2 0
1.5 1.2 0
1.8 1.2 0
2.1 1.2 0
2.4 1.2 0
2.7 1.2 0
3 1.2 0
3.3 1.2 0
3.6 1.2 0
3.9 1.2 0
4.2 1.2 0
4.5 1.2 0
4.8 1.2 0
5.1 1.2 0
5.4 1.2 0
5.7 1.2 0
6 1.2 0
6.3 1.2 0
6.6 1.2 0
6.9 1.2 0
7.2 1.2 0
7.5 1.2 0
7.8 1.2 0
8.1 1.2 0
8.4 1.2 0
8.7 1.2 0
9 1.2 0
9.3 1.2 0
9.6 1.2 0
9.9 1.2 0
10.2 1.2 0
10.5 1.2 0
10.8 1.2 0
11.1 1.2 0
11.4 1.2 0
11.7 1.2 0
12 1.2 0
12.3 1.2 0
12.6 1.2 0
12.9 1.2 0
13.2 1.2 0
13.5 1.2 0
13.8 1.2 0
14.1 1.2 0
14.4 1.2 0
14.7 1.2 0
15 1.2 0
15.3 1.2 0
15.6 1.2 0
15.9 1.2 0
16.2 1.2 0
16.5 1.2 0
16.8 1.2 0
17.1 1.2 0
17.4 1.2 0
17.7 1.2 0
18 1.2 0
18.3 1.2 0
18.6 1.2 0
18.9 1.2 0
19.2 1.2 0
19.5 1.2 0
19.8 1.2 0
20.1 1.2 0
20.4 1.2 0
20.7 1.2 0
21 1.2 0
21.3 1.2 0
21.6 1.2 0
21.9 1.2 0
22.2 1.2 0
22.5 1.2 0
22.8 1.2 0
23.1 1.2 0
23.4 1.2 0
23.7 1.2 0
24 1.2 0
24.3 1.2 0
24.6 1.2 0
24.9 1.2 0
25.2 1.2 0
25.5 1.2 0
25.8 1.2 0
26.1 1.2 0
26.4 1.2 0
26.7 1.2 0
27 1.2 0
27.3 1.2 0
27.6 1.2 0
27.9 1.2 0
28.2 1.2 0
28.5 1.2 0
28.8 1.2 0
29.1 1.2 0
29.4 1.2 0
29.7 1.2 0
30 1.2 0
30.3 1.2 0

POINT_DATA 1326

SCALARS p double
LOOKUP_TABLE default
1.24403
1.24403
1.17919
1.13495
1.09513
1.05855
1.0255
0.995976
0.96962
0.945911
0.924331
0.904465
0.886023
0.868812
0.852694
0.837544
0.823231
0.809605
0.79651
0.7838
0.771346
0.75905
0.746846
0.734691
0.722559
0.710439
0.698323
0.686209
0.674097
0.661984
0.649872
0.63776
0.625648
0.613536
0.601425
0.589313
0.577201
0.565089
0.552978
0.540866
0.528754
0.516642
0.504531
0.492419
0.480307
0.468195
0.456084
0.443972
0.43186
0.419748
0.407637
0.395525
0.383413
0.371301
0.35919
0.347078
0.334966
0.322854
0.310743
0.298631
0.286519
0.274408
0.262296
0.250184
0.238072
0.225961
0.213849
0.201737
0.189625
0.177514
0.165402
0.15329
0.141178
0.129067
0.116955
0.104843
0.0927315
0.0806198
0.0685081
0.0563963
0.0442846
0.0321729
0.0200612
0.00794943
-0.0041623
-0.016274
-0.0283857
-0.0404975
-0.0526092
-0.0647209
-0.0768326
-0.0889443
-0.101056
-0.113168
-0.12528
-0.137391
-0.149503
-0.161613
-0.173725
-0.185838
-0.197888
0.197888
1.24403
1.24403
1.17919
1.13495
1.09513
1.05855
1.0255
0.995976
0.96962
0.945911
0.924331
0.904465
0.886023
0.868812
0.852694
0.837544
0.823231
0.809605
0.79651
0.7838
0.771346
0.75905
0.746846
0.734691
0.722559
0.710439
0.698323
0.686209
0.674097
0.661984
0.649872
0.63776
0.625648
0.613536
0.601425
0.589313
0.577201
0.565089
0.552978
0.540866
0.528754
0.516642
0.504531
0.492419
0.480307
0.468195
0.456084
0.443972
0.43186
0.419748
0.407637
0.395525
0.383413
0.371301
0.35919
0.347078
0.334966
0.322854
0.310743
0.298631
0.286519
0.274408
0.262296
0.250184
0.238072
0.225961
0.213849
0.201737
0.189625
0.177514
0.165402
0.15329
0.141178
0.129067
0.116955
0.104843
0.0927315
0.0806198
0.0685081
0.0563963
0.0442846
0.0321729
0.0200612
0.00794943
-0.0041623
-0.016274
-0.0283857
-0.0404975
-0.0526092
-0.0647209
-0.0768326
-0.0889443
-0.101056
-0.113168
-0.12528
-0.137391
-0.149503
-0.161613
-0.173725
-0.185838
-0.197888
0.197888
1.22309
1.22309
1.1772
1.13518
1.09583
1.05935
1.02625
0.996607
0.970127
0.946305
0.924631
0.904688
0.886183
0.868922
0.852763
0.837583
0.823249
0.809611
0.79651
0.783797
0.771342
0.759048
0.746845
0.73469
0.722559
0.710439
0.698323
0.686209
0.674097
0.661984
0.649872
0.63776
0.625648
0.613536
0.601425
0.589313
0.577201
0.565089
0.552978
0.540866
0.528754
0.516642
0.504531
0.492419
0.480307
0.468195
0.456084
0.443972
0.43186
0.419748
0.407637
0.395525
0.383413
0.371301
0.35919
0.347078
0.334966
0.322854
0.310743
0.298631
0.286519
0.274408
0.262296
0.250184
0.238072
0.225961
0.213849
0.201737
0.189625
0.177514
0.165402
0.15329
0.141178
0.129067
0.116955
0.104843
0.0927315
0.0806198
0.0685081
0.0563963
0.0442846
0.0321729
0.0200612
0.00794943
-0.0041623
-0.016274
-0.0283857
-0.0404975
-0.0526092
-0.0647209
-0.0768326
-0.0889443
-0.101056
-0.113168
-0.125279
-0.137391
-0.149503
-0.161613
-0.173724
-0.185838
-0.197886
0.197886
1.20811
1.20811
1.17432
1.13541
1.09694
1.06067
1.02751
0.997685
0.970989
0.946967
0.925129
0.905061
0.886462
0.869128
0.852914
0.83769
0.823321
0.809657
0.796538
0.783813
0.771351
0.759052
0.746846
0.73469
0.722559
0.710438
0.698323
0.686209
0.674097
0.661984
0.649872
0.63776
0.625648
0.613536
0.601425
0.589313
0.577201
0.565089
0.552978
0.540866
0.528754
0.516642
0.504531
0.492419
0.480307
0.468195
0.456084
0.443972
0.43186
0.419748
0.407637
0.395525
0.383413
0.371301
0.35919
0.347078
0.334966
0.322854
0.310743
0.298631
0.286519
0.274408
0.262296
0.250184
0.238072
0.225961
0.213849
0.201737
0.189625
0.177514
0.165402
0.15329
0.141178
0.129067
0.116955
0.104843
0.0927315
0.0806198
0.0685081
0.0563963
0.0442846
0.0321729
0.0200612
0.00794943
-0.0041623
-0.016274
-0.0283857
-0.0404975
-0.0526092
-0.0647209
-0.0768326
-0.0889443
-0.101056
-0.113168
-0.125279
-0.137391
-0.149502
-0.161611
-0.173718
-0.185815
-0.197875
0.197875
1.19854
1.19854
1.17183
1.13552
1.0979
1.06187
1.02868
0.998722
0.971843
0.947644
0.925659
0.905478
0.886795
0.869396
0.853128
0.837859
0.823449
0.80975
0.796601
0.783853
0.771375
0.759065
0.746853
0.734693
0.72256
0.710439
0.698323
0.686209
0.674096
0.661984
0.649872
0.63776
0.625648
0.613536
0.601425
0.589313
0.577201
0.565089
0.552978
0.540866
0.528754
0.516642
0.504531
0.492419
0.480307
0.468195
0.456084
0.443972
0.43186
0.419748
0.407637
0.395525
0.383413
0.371301
0.35919
0.347078
0.334966
0.322854
0.310743
0.298631
0.286519
0.274408
0.262296
0.250184
0.238072
0.225961
0.213849
0.201737
0.189625
0.177514
0.165402
0.15329
0.141178
0.129067
0.116955
0.104843
0.0927315
0.0806198
0.0685081
0.0563963
0.0442846
0.0321729
0.0200612
0.00794943
-0.0041623
-0.016274
-0.0283857
-0.0404975
-0.0526092
-0.0647209
-0.0768326
-0.0889443
-0.101056
-0.113168
-0.125279
-0.137391
-0.149501
-0.161608
-0.173708
-0.185775
-0.19786
0.19786
1.19322
1.19322
1.1702
1.13554
1.09849
1.06264
1.02945
0.999411
0.972422
0.948112
0.926033
0.90578
0.887043
0.869603
0.8533
0.837999
0.82356
0.809832
0.79666
0.783892
0.771399
0.759079
0.74686
0.734697
0.722562
0.710439
0.698323
0.686209
0.674096
0.661984
0.649872
0.63776
0.625648
0.613536
0.601425
0.589313
0.577201
0.565089
0.552978
0.540866
0.528754
0.516642
0.504531
0.492419
0.480307
0.468195
0.456084
0.443972
0.43186
0.419748
0.407637
0.395525
0.383413
0.371301
0.35919
0.347078
0.334966
0.322854
0.310743
0.298631
0.286519
0.274408
0.262296
0.250184
0.238072
0.225961
0.213849
0.201737
0.189625
0.177514
0.165402
0.15329
0.141178
0.129067
0.116955
0.104843
0.0927315
0.0806198
0.0685081
0.0563963
0.0442846
0.0321729
0.0200612
0.00794943
-0.0041623
-0.016274
-0.0283857
-0.0404975
-0.0526092
-0.0647209
-0.0768326
-0.0889443
-0.101056
-0.113168
-0.125279
-0.13739
-0.1495
-0.161606
-0.173699
-0.185741
-0.197846
0.197846
1.19152
1.19152
1.16966
1.13555
1.0987
1.06291
1.02973
0.999657
0.972629
0.948281
0.926169
0.905891
0.887135
0.86968
0.853365
0.838052
0.823602
0.809864
0.796682
0.783907
0.771408
0.759084
0.746863
0.734698
0.722562
0.71044
0.698323
0.686209
0.674097
0.661984
0.649872
0.63776
0.625648
0.613536
0.601425
0.589313
0.577201
0.565089
0.552978
0.540866
0.528754
0.516642
0.504531
0.492419
0.480307
0.468195
0.456084
0.443972
0.43186
0.419748
0.407637
0.395525
0.383413
0.371301
0.35919
0.347078
0.334966
0.322854
0.310743
0.298631
0.286519
0.274408
0.262296
0.250184
0.238072
0.225961
0.213849
0.201737
0.189625
0.177514
0.165402
0.15329
0.141178
0.129067
0.116955
0.104843
0.0927315
0.0806198
0.0685081
0.0563963
0.0442846
0.0321729
0.0200612
0.00794943
-0.0041623
-0.016274
-0.0283857
-0.0404975
-0.0526092
-0.0647209
-0.0768326
-0.0889443
-0.101056
-0.113168
-0.125279
-0.13739
-0.1495
-0.161605
-0.173696
-0.185728
-0.197841
0.197841
1.19322
1.19322
1.1702
1.13554
1.09849
1.06264
1.02945
0.999411
0.972422
0.948112
0.926033
0.90578
0.887043
0.869603
0.8533
0.837999
0.82356
0.809832
0.79666
0.783892
0.771399
0.759079
0.74686
0.734697
0.722562
0.710439
0.698323
0.686209
0.674096
0.661984
0.649872
0.63776
0.625648
0.613536
0.601425
0.589313
0.577201
0.565089
0.552978
0.540866
0.528754
0.516642
0.504531
0.492419
0.480307
0.468195
0.456084
0.443972
0.43186
0.419748
0.407637
0.395525
0.383413
0.371301
0.35919
0.347078
0.334966
0.322854
0.310743
0.298631
0.286519
0.274408
0.262296
0.250184
0.238072
0.225961
0.213849
0.201737
0.189625
0.177514
0.165402
0.15329
0.141178
0.129067
0.116955
0.104843
0.0927315
0.0806198
0.0685081
0.0563963
0.0442846
0.0321729
0.0200612
0.00794943
-0.0041623
-0.016274
-0.0283857
-0.0404975
-0.0526092
-0.0647209
-0.0768326
-0.0889443
-0.101056
-0.113168
-0.125279
-0.13739
-0.1495
-0.161606
-0.173699
-0.185741
-0.197846
0.197846
1.19854
1.19854
1.17183
1.13552
1.0979
1.06187
1.02868
0.998722
0.971843
0.947644
0.925659
0.905478
0.886795
0.869396
0.853128
0.837859
0.823449
0.80975
0.796602
0.783853
0.771375
0.759065
0.746853
0.734693
0.72256
0.710439
0.698323
0.686209
0.674096
0.661984
0.649872
0.63776
0.625648
0.613536
0.601425
0.589313
0.577201
0.565089
0.552978
0.540866
0.528754
0.516642
0.504531
0.492419
0.480307
0.468195
0.456084
0.443972
0.43186
0.419748
0.407637
0.395525
0.383413
0.371301
0.35919
0.347078
0.334966
0.322854
0.310743
0.298631
0.286519
0.274408
0.262296
0.250184
0.238072
0.225961
0.213849
0.201737
0.189625
0.177514
0.165402
0.15329
0.141178
0.129067
0.116955
0.104843
0.0927315
0.0806198
0.0685081
0.0563963
0.0442846
0.0321729
0.0200612
0.00794943
-0.0041623
-0.016274
-0.0283857
-0.0404975
-0.0526092
-0.0647209
-0.0768326
-0.0889443
-0.101056
-0.113168
-0.125279
-0.137391
-0.149501
-0.161608
-0.173708
-0.185775
-0.19786
0.19786
1.20811
1.20811
1.17432
1.13541
1.09694
1.06067
1.02751
0.997685
0.970989
0.946967
0.925129
0.905061
0.886462
0.869128
0.852914
0.83769
0.823321
0.809657
0.796538
0.783813
0.771351
0.759052
0.746846
0.73469
0.722559
0.710438
0.698323
0.686209
0.674097
0.661984
0.649872
0.63776
0.625648
0.613536
0.601425
0.589313
0.577201
0.565089
0.552978
0.540866
0.528754
0.516642
0.504531
0.492419
0.480307
0.468195
0.456084
0.443972
0.43186
0.419748
0.407637
0.395525
0.383413
0.371301
0.35919
0.347078
0.334966
0.322854
0.310743
0.298631
0.286519
0.274408
0.262296
0.250184
0.238072
0.225961
0.213849
0.201737
0.189625
0.177514
0.165402
0.15329
0.141178
0.129067
0.116955
0.104843
0.0927315
0.0806198
0.0685081
0.0563963
0.0442846
0.0321729
0.0200612
0.00794943
-0.0041623
-0.016274
-0.0283857
-0.0404975
-0.0526092
-0.0647209
-0.0768326
-0.0889443
-0.101056
-0.113168
-0.125279
-0.137391
-0.149502
-0.161611
-0.173718
-0.185815
-0.197875
0.197875
1.22309
1.22309
1.1772
1.13518
1.09583
1.05935
1.02625
0.996607
0.970127
0.946305
0.924631
0.904688
0.886183
0.868922
0.852763
0.837583
0.823249
0.809611
0.79651
0.783797
0.771342
0.759048
0.746845
0.73469
0.722559
0.710439
0.698323
0.686209
0.674097
0.661984
0.649872
0.63776
0.625648
0.613536
0.601425
0.589313
0.577201
0.565089
0.552978
0.540866
0.528754
0.516642
0.504531
0.492419
0.480307
0.468195
0.456084
0.443972
0.43186
0.419748
0.407637
0.395525
0.383413
0.371301
0.35919
0.347078
0.334966
0.322854
0.310743
0.298631
0.286519
0.274408
0.262296
0.250184
0.238072
0.225961
0.213849
0.201737
0.189625
0.177514
0.165402
0.15329
0.141178
0.129067
0.116955
0.104843
0.0927315
0.0806198
0.0685081
0.0563963
0.0442846
0.0321729
0.0200612
0.00794943
-0.00416229
-0.016274
-0.0283857
-0.0404975
-0.0526092
-0.0647209
-0.0768326
-0.0889443
-0.101056
-0.113168
-0.125279
-0.137391
-0.149503
-0.161613
-0.173724
-0.185838
-0.197886
0.197886
1.24403
1.24403
1.17919
1.13495
1.09513
1.05855
1.0255
0.995976
0.96962
0.945911
0.924331
0.904465
0.886023
0.868812
0.852694
0.837544
0.823231
0.809605
0.79651
0.7838
0.771346
0.75905
0.746846
0.734691
0.722559
0.710439
0.698323
0.686209
0.674097
0.661984
0.649872
0.63776
0.625648
0.613536
0.601425
0.589313
0.577201
0.565089
0.552978
0.540866
0.528754
0.516642
0.504531
0.492419
0.480307
0.468195
0.456084
0.443972
0.43186
0.419748
0.407637
0.395525
0.383413
0.371301
0.35919
0.347078
0.334966
0.322854
0.310743
0.298631
0.286519
0.274408
0.262296
0.250184
0.238072
0.225961
0.213849
0.201737
0.189625
0.177514
0.165402
0.15329
0.141178
0.129067
0.116955
0.104843
0.0927315
0.0806198
0.0685081
0.0563963
0.0442846
0.0321729
0.0200612
0.00794943
-0.00416229
-0.016274
-0.0283857
-0.0404975
-0.0526092
-0.0647209
-0.0768326
-0.0889443
-0.101056
-0.113168
-0.125279
-0.137391
-0.149503
-0.161613
-0.173725
-0.185838
-0.197888
0.197888
1.24403
1.24403
1.17919
1.13495
1.09513
1.05855
1.0255
0.995976
0.96962
0.945911
0.924331
0.904465
0.886023
0.868812
0.852694
0.837544
0.823231
0.809605
0.79651
0.7838
0.771346
0.75905
0.746846
0.734691
0.722559
0.710439
0.698323
0.686209
0.674097
0.661984
0.649872
0.63776
0.625648
0.613536
0.601425
0.589313
0.577201
0.565089
0.552978
0.540866
0.528754
0.516642
0.504531
0.492419
0.480307
0.468195
0.456084
0.443972
0.43186
0.419748
0.407637
0.395525
0.383413
0.371301
0.35919
0.347078
0.334966
0.322854
0.310743
0.298631
0.286519
0.274408
0.262296
0.250184
0.238072
0.225961
0.213849
0.201737
0.189625
0.177514
0.165402
0.15329
0.141178
0.129067
0.116955
0.104843
0.0927315
0.0806198
0.0685081
0.0563963
0.0442846
0.0321729
0.0200612
0.00794943
-0.00416229
-0.016274
-0.0283857
-0.0404975
-0.0526092
-0.0647209
-0.0768326
-0.0889443
-0.101056
-0.113168
-0.125279
-0.137391
-0.149503
-0.161613
-0.173725
-0.185838
-0.197888
0.197888
