# vtk DataFile Version 2.0
FlowField
ASCII
DATASET STRUCTURED_GRID
DIMENSIONS 101 11 1 
POINTS 1111 double
0 0 0
0.3 0 0
0.6 0 0
0.9 0 0
1.2 0 0
1.5 0 0
1.8 0 0
2.1 0 0
2.4 0 0
2.7 0 0
3 0 0
3.3 0 0
3.6 0 0
3.9 0 0
4.2 0 0
4.5 0 0
4.8 0 0
5.1 0 0
5.4 0 0
5.7 0 0
6 0 0
6.3 0 0
6.6 0 0
6.9 0 0
7.2 0 0
7.5 0 0
7.8 0 0
8.1 0 0
8.4 0 0
8.7 0 0
9 0 0
9.3 0 0
9.6 0 0
9.9 0 0
10.2 0 0
10.5 0 0
10.8 0 0
11.1 0 0
11.4 0 0
11.7 0 0
12 0 0
12.3 0 0
12.6 0 0
12.9 0 0
13.2 0 0
13.5 0 0
13.8 0 0
14.1 0 0
14.4 0 0
14.7 0 0
15 0 0
15.3 0 0
15.6 0 0
15.9 0 0
16.2 0 0
16.5 0 0
16.8 0 0
17.1 0 0
17.4 0 0
17.7 0 0
18 0 0
18.3 0 0
18.6 0 0
18.9 0 0
19.2 0 0
19.5 0 0
19.8 0 0
20.1 0 0
20.4 0 0
20.7 0 0
21 0 0
21.3 0 0
21.6 0 0
21.9 0 0
22.2 0 0
22.5 0 0
22.8 0 0
23.1 0 0
23.4 0 0
23.7 0 0
24 0 0
24.3 0 0
24.6 0 0
24.9 0 0
25.2 0 0
25.5 0 0
25.8 0 0
26.1 0 0
26.4 0 0
26.7 0 0
27 0 0
27.3 0 0
27.6 0 0
27.9 0 0
28.2 0 0
28.5 0 0
28.8 0 0
29.1 0 0
29.4 0 0
29.7 0 0
30 0 0
0 0.1 0
0.3 0.1 0
0.6 0.1 0
0.9 0.1 0
1.2 0.1 0
1.5 0.1 0
1.8 0.1 0
2.1 0.1 0
2.4 0.1 0
2.7 0.1 0
3 0.1 0
3.3 0.1 0
3.6 0.1 0
3.9 0.1 0
4.2 0.1 0
4.5 0.1 0
4.8 0.1 0
5.1 0.1 0
5.4 0.1 0
5.7 0.1 0
6 0.1 0
6.3 0.1 0
6.6 0.1 0
6.9 0.1 0
7.2 0.1 0
7.5 0.1 0
7.8 0.1 0
8.1 0.1 0
8.4 0.1 0
8.7 0.1 0
9 0.1 0
9.3 0.1 0
9.6 0.1 0
9.9 0.1 0
10.2 0.1 0
10.5 0.1 0
10.8 0.1 0
11.1 0.1 0
11.4 0.1 0
11.7 0.1 0
12 0.1 0
12.3 0.1 0
12.6 0.1 0
12.9 0.1 0
13.2 0.1 0
13.5 0.1 0
13.8 0.1 0
14.1 0.1 0
14.4 0.1 0
14.7 0.1 0
15 0.1 0
15.3 0.1 0
15.6 0.1 0
15.9 0.1 0
16.2 0.1 0
16.5 0.1 0
16.8 0.1 0
17.1 0.1 0
17.4 0.1 0
17.7 0.1 0
18 0.1 0
18.3 0.1 0
18.6 0.1 0
18.9 0.1 0
19.2 0.1 0
19.5 0.1 0
19.8 0.1 0
20.1 0.1 0
20.4 0.1 0
20.7 0.1 0
21 0.1 0
21.3 0.1 0
21.6 0.1 0
21.9 0.1 0
22.2 0.1 0
22.5 0.1 0
22.8 0.1 0
23.1 0.1 0
23.4 0.1 0
23.7 0.1 0
24 0.1 0
24.3 0.1 0
24.6 0.1 0
24.9 0.1 0
25.2 0.1 0
25.5 0.1 0
25.8 0.1 0
26.1 0.1 0
26.4 0.1 0
26.7 0.1 0
27 0.1 0
27.3 0.1 0
27.6 0.1 0
27.9 0.1 0
28.2 0.1 0
28.5 0.1 0
28.8 0.1 0
29.1 0.1 0
29.4 0.1 0
29.7 0.1 0
30 0.1 0
0 0.2 0
0.3 0.2 0
0.6 0.2 0
0.9 0.2 0
1.2 0.2 0
1.5 0.2 0
1.8 0.2 0
2.1 0.2 0
2.4 0.2 0
2.7 0.2 0
3 0.2 0
3.3 0.2 0
3.6 0.2 0
3.9 0.2 0
4.2 0.2 0
4.5 0.2 0
4.8 0.2 0
5.1 0.2 0
5.4 0.2 0
5.7 0.2 0
6 0.2 0
6.3 0.2 0
6.6 0.2 0
6.9 0.2 0
7.2 0.2 0
7.5 0.2 0
7.8 0.2 0
8.1 0.2 0
8.4 0.2 0
8.7 0.2 0
9 0.2 0
9.3 0.2 0
9.6 0.2 0
9.9 0.2 0
10.2 0.2 0
10.5 0.2 0
10.8 0.2 0
11.1 0.2 0
11.4 0.2 0
11.7 0.2 0
12 0.2 0
12.3 0.2 0
12.6 0.2 0
12.9 0.2 0
13.2 0.2 0
13.5 0.2 0
13.8 0.2 0
14.1 0.2 0
14.4 0.2 0
14.7 0.2 0
15 0.2 0
15.3 0.2 0
15.6 0.2 0
15.9 0.2 0
16.2 0.2 0
16.5 0.2 0
16.8 0.2 0
17.1 0.2 0
17.4 0.2 0
17.7 0.2 0
18 0.2 0
18.3 0.2 0
18.6 0.2 0
18.9 0.2 0
19.2 0.2 0
19.5 0.2 0
19.8 0.2 0
20.1 0.2 0
20.4 0.2 0
20.7 0.2 0
21 0.2 0
21.3 0.2 0
21.6 0.2 0
21.9 0.2 0
22.2 0.2 0
22.5 0.2 0
22.8 0.2 0
23.1 0.2 0
23.4 0.2 0
23.7 0.2 0
24 0.2 0
24.3 0.2 0
24.6 0.2 0
24.9 0.2 0
25.2 0.2 0
25.5 0.2 0
25.8 0.2 0
26.1 0.2 0
26.4 0.2 0
26.7 0.2 0
27 0.2 0
27.3 0.2 0
27.6 0.2 0
27.9 0.2 0
28.2 0.2 0
28.5 0.2 0
28.8 0.2 0
29.1 0.2 0
29.4 0.2 0
29.7 0.2 0
30 0.2 0
0 0.3 0
0.3 0.3 0
0.6 0.3 0
0.9 0.3 0
1.2 0.3 0
1.5 0.3 0
1.8 0.3 0
2.1 0.3 0
2.4 0.3 0
2.7 0.3 0
3 0.3 0
3.3 0.3 0
3.6 0.3 0
3.9 0.3 0
4.2 0.3 0
4.5 0.3 0
4.8 0.3 0
5.1 0.3 0
5.4 0.3 0
5.7 0.3 0
6 0.3 0
6.3 0.3 0
6.6 0.3 0
6.9 0.3 0
7.2 0.3 0
7.5 0.3 0
7.8 0.3 0
8.1 0.3 0
8.4 0.3 0
8.7 0.3 0
9 0.3 0
9.3 0.3 0
9.6 0.3 0
9.9 0.3 0
10.2 0.3 0
10.5 0.3 0
10.8 0.3 0
11.1 0.3 0
11.4 0.3 0
11.7 0.3 0
12 0.3 0
12.3 0.3 0
12.6 0.3 0
12.9 0.3 0
13.2 0.3 0
13.5 0.3 0
13.8 0.3 0
14.1 0.3 0
14.4 0.3 0
14.7 0.3 0
15 0.3 0
15.3 0.3 0
15.6 0.3 0
15.9 0.3 0
16.2 0.3 0
16.5 0.3 0
16.8 0.3 0
17.1 0.3 0
17.4 0.3 0
17.7 0.3 0
18 0.3 0
18.3 0.3 0
18.6 0.3 0
18.9 0.3 0
19.2 0.3 0
19.5 0.3 0
19.8 0.3 0
20.1 0.3 0
20.4 0.3 0
20.7 0.3 0
21 0.3 0
21.3 0.3 0
21.6 0.3 0
21.9 0.3 0
22.2 0.3 0
22.5 0.3 0
22.8 0.3 0
23.1 0.3 0
23.4 0.3 0
23.7 0.3 0
24 0.3 0
24.3 0.3 0
24.6 0.3 0
24.9 0.3 0
25.2 0.3 0
25.5 0.3 0
25.8 0.3 0
26.1 0.3 0
26.4 0.3 0
26.7 0.3 0
27 0.3 0
27.3 0.3 0
27.6 0.3 0
27.9 0.3 0
28.2 0.3 0
28.5 0.3 0
28.8 0.3 0
29.1 0.3 0
29.4 0.3 0
29.7 0.3 0
30 0.3 0
0 0.4 0
0.3 0.4 0
0.6 0.4 0
0.9 0.4 0
1.2 0.4 0
1.5 0.4 0
1.8 0.4 0
2.1 0.4 0
2.4 0.4 0
2.7 0.4 0
3 0.4 0
3.3 0.4 0
3.6 0.4 0
3.9 0.4 0
4.2 0.4 0
4.5 0.4 0
4.8 0.4 0
5.1 0.4 0
5.4 0.4 0
5.7 0.4 0
6 0.4 0
6.3 0.4 0
6.6 0.4 0
6.9 0.4 0
7.2 0.4 0
7.5 0.4 0
7.8 0.4 0
8.1 0.4 0
8.4 0.4 0
8.7 0.4 0
9 0.4 0
9.3 0.4 0
9.6 0.4 0
9.9 0.4 0
10.2 0.4 0
10.5 0.4 0
10.8 0.4 0
11.1 0.4 0
11.4 0.4 0
11.7 0.4 0
12 0.4 0
12.3 0.4 0
12.6 0.4 0
12.9 0.4 0
13.2 0.4 0
13.5 0.4 0
13.8 0.4 0
14.1 0.4 0
14.4 0.4 0
14.7 0.4 0
15 0.4 0
15.3 0.4 0
15.6 0.4 0
15.9 0.4 0
16.2 0.4 0
16.5 0.4 0
16.8 0.4 0
17.1 0.4 0
17.4 0.4 0
17.7 0.4 0
18 0.4 0
18.3 0.4 0
18.6 0.4 0
18.9 0.4 0
19.2 0.4 0
19.5 0.4 0
19.8 0.4 0
20.1 0.4 0
20.4 0.4 0
20.7 0.4 0
21 0.4 0
21.3 0.4 0
21.6 0.4 0
21.9 0.4 0
22.2 0.4 0
22.5 0.4 0
22.8 0.4 0
23.1 0.4 0
23.4 0.4 0
23.7 0.4 0
24 0.4 0
24.3 0.4 0
24.6 0.4 0
24.9 0.4 0
25.2 0.4 0
25.5 0.4 0
25.8 0.4 0
26.1 0.4 0
26.4 0.4 0
26.7 0.4 0
27 0.4 0
27.3 0.4 0
27.6 0.4 0
27.9 0.4 0
28.2 0.4 0
28.5 0.4 0
28.8 0.4 0
29.1 0.4 0
29.4 0.4 0
29.7 0.4 0
30 0.4 0
0 0.5 0
0.3 0.5 0
0.6 0.5 0
0.9 0.5 0
1.2 0.5 0
1.5 0.5 0
1.8 0.5 0
2.1 0.5 0
2.4 0.5 0
2.7 0.5 0
3 0.5 0
3.3 0.5 0
3.6 0.5 0
3.9 0.5 0
4.2 0.5 0
4.5 0.5 0
4.8 0.5 0
5.1 0.5 0
5.4 0.5 0
5.7 0.5 0
6 0.5 0
6.3 0.5 0
6.6 0.5 0
6.9 0.5 0
7.2 0.5 0
7.5 0.5 0
7.8 0.5 0
8.1 0.5 0
8.4 0.5 0
8.7 0.5 0
9 0.5 0
9.3 0.5 0
9.6 0.5 0
9.9 0.5 0
10.2 0.5 0
10.5 0.5 0
10.8 0.5 0
11.1 0.5 0
11.4 0.5 0
11.7 0.5 0
12 0.5 0
12.3 0.5 0
12.6 0.5 0
12.9 0.5 0
13.2 0.5 0
13.5 0.5 0
13.8 0.5 0
14.1 0.5 0
14.4 0.5 0
14.7 0.5 0
15 0.5 0
15.3 0.5 0
15.6 0.5 0
15.9 0.5 0
16.2 0.5 0
16.5 0.5 0
16.8 0.5 0
17.1 0.5 0
17.4 0.5 0
17.7 0.5 0
18 0.5 0
18.3 0.5 0
18.6 0.5 0
18.9 0.5 0
19.2 0.5 0
19.5 0.5 0
19.8 0.5 0
20.1 0.5 0
20.4 0.5 0
20.7 0.5 0
21 0.5 0
21.3 0.5 0
21.6 0.5 0
21.9 0.5 0
22.2 0.5 0
22.5 0.5 0
22.8 0.5 0
23.1 0.5 0
23.4 0.5 0
23.7 0.5 0
24 0.5 0
24.3 0.5 0
24.6 0.5 0
24.9 0.5 0
25.2 0.5 0
25.5 0.5 0
25.8 0.5 0
26.1 0.5 0
26.4 0.5 0
26.7 0.5 0
27 0.5 0
27.3 0.5 0
27.6 0.5 0
27.9 0.5 0
28.2 0.5 0
28.5 0.5 0
28.8 0.5 0
29.1 0.5 0
29.4 0.5 0
29.7 0.5 0
30 0.5 0
0 0.6 0
0.3 0.6 0
0.6 0.6 0
0.9 0.6 0
1.2 0.6 0
1.5 0.6 0
1.8 0.6 0
2.1 0.6 0
2.4 0.6 0
2.7 0.6 0
3 0.6 0
3.3 0.6 0
3.6 0.6 0
3.9 0.6 0
4.2 0.6 0
4.5 0.6 0
4.8 0.6 0
5.1 0.6 0
5.4 0.6 0
5.7 0.6 0
6 0.6 0
6.3 0.6 0
6.6 0.6 0
6.9 0.6 0
7.2 0.6 0
7.5 0.6 0
7.8 0.6 0
8.1 0.6 0
8.4 0.6 0
8.7 0.6 0
9 0.6 0
9.3 0.6 0
9.6 0.6 0
9.9 0.6 0
10.2 0.6 0
10.5 0.6 0
10.8 0.6 0
11.1 0.6 0
11.4 0.6 0
11.7 0.6 0
12 0.6 0
12.3 0.6 0
12.6 0.6 0
12.9 0.6 0
13.2 0.6 0
13.5 0.6 0
13.8 0.6 0
14.1 0.6 0
14.4 0.6 0
14.7 0.6 0
15 0.6 0
15.3 0.6 0
15.6 0.6 0
15.9 0.6 0
16.2 0.6 0
16.5 0.6 0
16.8 0.6 0
17.1 0.6 0
17.4 0.6 0
17.7 0.6 0
18 0.6 0
18.3 0.6 0
18.6 0.6 0
18.9 0.6 0
19.2 0.6 0
19.5 0.6 0
19.8 0.6 0
20.1 0.6 0
20.4 0.6 0
20.7 0.6 0
21 0.6 0
21.3 0.6 0
21.6 0.6 0
21.9 0.6 0
22.2 0.6 0
22.5 0.6 0
22.8 0.6 0
23.1 0.6 0
23.4 0.6 0
23.7 0.6 0
24 0.6 0
24.3 0.6 0
24.6 0.6 0
24.9 0.6 0
25.2 0.6 0
25.5 0.6 0
25.8 0.6 0
26.1 0.6 0
26.4 0.6 0
26.7 0.6 0
27 0.6 0
27.3 0.6 0
27.6 0.6 0
27.9 0.6 0
28.2 0.6 0
28.5 0.6 0
28.8 0.6 0
29.1 0.6 0
29.4 0.6 0
29.7 0.6 0
30 0.6 0
0 0.7 0
0.3 0.7 0
0.6 0.7 0
0.9 0.7 0
1.2 0.7 0
1.5 0.7 0
1.8 0.7 0
2.1 0.7 0
2.4 0.7 0
2.7 0.7 0
3 0.7 0
3.3 0.7 0
3.6 0.7 0
3.9 0.7 0
4.2 0.7 0
4.5 0.7 0
4.8 0.7 0
5.1 0.7 0
5.4 0.7 0
5.7 0.7 0
6 0.7 0
6.3 0.7 0
6.6 0.7 0
6.9 0.7 0
7.2 0.7 0
7.5 0.7 0
7.8 0.7 0
8.1 0.7 0
8.4 0.7 0
8.7 0.7 0
9 0.7 0
9.3 0.7 0
9.6 0.7 0
9.9 0.7 0
10.2 0.7 0
10.5 0.7 0
10.8 0.7 0
11.1 0.7 0
11.4 0.7 0
11.7 0.7 0
12 0.7 0
12.3 0.7 0
12.6 0.7 0
12.9 0.7 0
13.2 0.7 0
13.5 0.7 0
13.8 0.7 0
14.1 0.7 0
14.4 0.7 0
14.7 0.7 0
15 0.7 0
15.3 0.7 0
15.6 0.7 0
15.9 0.7 0
16.2 0.7 0
16.5 0.7 0
16.8 0.7 0
17.1 0.7 0
17.4 0.7 0
17.7 0.7 0
18 0.7 0
18.3 0.7 0
18.6 0.7 0
18.9 0.7 0
19.2 0.7 0
19.5 0.7 0
19.8 0.7 0
20.1 0.7 0
20.4 0.7 0
20.7 0.7 0
21 0.7 0
21.3 0.7 0
21.6 0.7 0
21.9 0.7 0
22.2 0.7 0
22.5 0.7 0
22.8 0.7 0
23.1 0.7 0
23.4 0.7 0
23.7 0.7 0
24 0.7 0
24.3 0.7 0
24.6 0.7 0
24.9 0.7 0
25.2 0.7 0
25.5 0.7 0
25.8 0.7 0
26.1 0.7 0
26.4 0.7 0
26.7 0.7 0
27 0.7 0
27.3 0.7 0
27.6 0.7 0
27.9 0.7 0
28.2 0.7 0
28.5 0.7 0
28.8 0.7 0
29.1 0.7 0
29.4 0.7 0
29.7 0.7 0
30 0.7 0
0 0.8 0
0.3 0.8 0
0.6 0.8 0
0.9 0.8 0
1.2 0.8 0
1.5 0.8 0
1.8 0.8 0
2.1 0.8 0
2.4 0.8 0
2.7 0.8 0
3 0.8 0
3.3 0.8 0
3.6 0.8 0
3.9 0.8 0
4.2 0.8 0
4.5 0.8 0
4.8 0.8 0
5.1 0.8 0
5.4 0.8 0
5.7 0.8 0
6 0.8 0
6.3 0.8 0
6.6 0.8 0
6.9 0.8 0
7.2 0.8 0
7.5 0.8 0
7.8 0.8 0
8.1 0.8 0
8.4 0.8 0
8.7 0.8 0
9 0.8 0
9.3 0.8 0
9.6 0.8 0
9.9 0.8 0
10.2 0.8 0
10.5 0.8 0
10.8 0.8 0
11.1 0.8 0
11.4 0.8 0
11.7 0.8 0
12 0.8 0
12.3 0.8 0
12.6 0.8 0
12.9 0.8 0
13.2 0.8 0
13.5 0.8 0
13.8 0.8 0
14.1 0.8 0
14.4 0.8 0
14.7 0.8 0
15 0.8 0
15.3 0.8 0
15.6 0.8 0
15.9 0.8 0
16.2 0.8 0
16.5 0.8 0
16.8 0.8 0
17.1 0.8 0
17.4 0.8 0
17.7 0.8 0
18 0.8 0
18.3 0.8 0
18.6 0.8 0
18.9 0.8 0
19.2 0.8 0
19.5 0.8 0
19.8 0.8 0
20.1 0.8 0
20.4 0.8 0
20.7 0.8 0
21 0.8 0
21.3 0.8 0
21.6 0.8 0
21.9 0.8 0
22.2 0.8 0
22.5 0.8 0
22.8 0.8 0
23.1 0.8 0
23.4 0.8 0
23.7 0.8 0
24 0.8 0
24.3 0.8 0
24.6 0.8 0
24.9 0.8 0
25.2 0.8 0
25.5 0.8 0
25.8 0.8 0
26.1 0.8 0
26.4 0.8 0
26.7 0.8 0
27 0.8 0
27.3 0.8 0
27.6 0.8 0
27.9 0.8 0
28.2 0.8 0
28.5 0.8 0
28.8 0.8 0
29.1 0.8 0
29.4 0.8 0
29.7 0.8 0
30 0.8 0
0 0.9 0
0.3 0.9 0
0.6 0.9 0
0.9 0.9 0
1.2 0.9 0
1.5 0.9 0
1.8 0.9 0
2.1 0.9 0
2.4 0.9 0
2.7 0.9 0
3 0.9 0
3.3 0.9 0
3.6 0.9 0
3.9 0.9 0
4.2 0.9 0
4.5 0.9 0
4.8 0.9 0
5.1 0.9 0
5.4 0.9 0
5.7 0.9 0
6 0.9 0
6.3 0.9 0
6.6 0.9 0
6.9 0.9 0
7.2 0.9 0
7.5 0.9 0
7.8 0.9 0
8.1 0.9 0
8.4 0.9 0
8.7 0.9 0
9 0.9 0
9.3 0.9 0
9.6 0.9 0
9.9 0.9 0
10.2 0.9 0
10.5 0.9 0
10.8 0.9 0
11.1 0.9 0
11.4 0.9 0
11.7 0.9 0
12 0.9 0
12.3 0.9 0
12.6 0.9 0
12.9 0.9 0
13.2 0.9 0
13.5 0.9 0
13.8 0.9 0
14.1 0.9 0
14.4 0.9 0
14.7 0.9 0
15 0.9 0
15.3 0.9 0
15.6 0.9 0
15.9 0.9 0
16.2 0.9 0
16.5 0.9 0
16.8 0.9 0
17.1 0.9 0
17.4 0.9 0
17.7 0.9 0
18 0.9 0
18.3 0.9 0
18.6 0.9 0
18.9 0.9 0
19.2 0.9 0
19.5 0.9 0
19.8 0.9 0
20.1 0.9 0
20.4 0.9 0
20.7 0.9 0
21 0.9 0
21.3 0.9 0
21.6 0.9 0
21.9 0.9 0
22.2 0.9 0
22.5 0.9 0
22.8 0.9 0
23.1 0.9 0
23.4 0.9 0
23.7 0.9 0
24 0.9 0
24.3 0.9 0
24.6 0.9 0
24.9 0.9 0
25.2 0.9 0
25.5 0.9 0
25.8 0.9 0
26.1 0.9 0
26.4 0.9 0
26.7 0.9 0
27 0.9 0
27.3 0.9 0
27.6 0.9 0
27.9 0.9 0
28.2 0.9 0
28.5 0.9 0
28.8 0.9 0
29.1 0.9 0
29.4 0.9 0
29.7 0.9 0
30 0.9 0
0 1 0
0.3 1 0
0.6 1 0
0.9 1 0
1.2 1 0
1.5 1 0
1.8 1 0
2.1 1 0
2.4 1 0
2.7 1 0
3 1 0
3.3 1 0
3.6 1 0
3.9 1 0
4.2 1 0
4.5 1 0
4.8 1 0
5.1 1 0
5.4 1 0
5.7 1 0
6 1 0
6.3 1 0
6.6 1 0
6.9 1 0
7.2 1 0
7.5 1 0
7.8 1 0
8.1 1 0
8.4 1 0
8.7 1 0
9 1 0
9.3 1 0
9.6 1 0
9.9 1 0
10.2 1 0
10.5 1 0
10.8 1 0
11.1 1 0
11.4 1 0
11.7 1 0
12 1 0
12.3 1 0
12.6 1 0
12.9 1 0
13.2 1 0
13.5 1 0
13.8 1 0
14.1 1 0
14.4 1 0
14.7 1 0
15 1 0
15.3 1 0
15.6 1 0
15.9 1 0
16.2 1 0
16.5 1 0
16.8 1 0
17.1 1 0
17.4 1 0
17.7 1 0
18 1 0
18.3 1 0
18.6 1 0
18.9 1 0
19.2 1 0
19.5 1 0
19.8 1 0
20.1 1 0
20.4 1 0
20.7 1 0
21 1 0
21.3 1 0
21.6 1 0
21.9 1 0
22.2 1 0
22.5 1 0
22.8 1 0
23.1 1 0
23.4 1 0
23.7 1 0
24 1 0
24.3 1 0
24.6 1 0
24.9 1 0
25.2 1 0
25.5 1 0
25.8 1 0
26.1 1 0
26.4 1 0
26.7 1 0
27 1 0
27.3 1 0
27.6 1 0
27.9 1 0
28.2 1 0
28.5 1 0
28.8 1 0
29.1 1 0
29.4 1 0
29.7 1 0
30 1 0

POINT_DATA 1111

SCALARS u double
LOOKUP_TABLE default
-1
-0.892043
-0.781755
-0.688942
-0.614574
-0.556463
-0.511722
-0.477606
-0.451913
-0.433012
-0.419627
-0.410626
-0.404938
-0.401593
-0.39978
-0.398891
-0.398509
-0.398378
-0.398353
-0.39836
-0.398371
-0.398379
-0.398384
-0.398387
-0.398388
-0.398389
-0.398389
-0.398389
-0.398389
-0.398389
-0.398389
-0.398389
-0.398389
-0.398389
-0.398389
-0.398389
-0.398389
-0.398389
-0.398389
-0.398389
-0.398389
-0.398389
-0.39839
-0.39839
-0.39839
-0.39839
-0.39839
-0.39839
-0.39839
-0.39839
-0.39839
-0.39839
-0.39839
-0.39839
-0.39839
-0.39839
-0.39839
-0.39839
-0.39839
-0.39839
-0.39839
-0.39839
-0.39839
-0.39839
-0.39839
-0.39839
-0.39839
-0.39839
-0.39839
-0.39839
-0.39839
-0.39839
-0.39839
-0.39839
-0.39839
-0.39839
-0.39839
-0.39839
-0.39839
-0.39839
-0.39839
-0.39839
-0.39839
-0.39839
-0.39839
-0.39839
-0.39839
-0.39839
-0.39839
-0.398391
-0.398391
-0.398391
-0.398391
-0.398391
-0.398392
-0.398393
-0.398411
-0.398433
-0.398611
-0.398611
-1
1
0.892043
0.781755
0.688942
0.614574
0.556463
0.511722
0.477606
0.451913
0.433012
0.419627
0.410626
0.404938
0.401593
0.39978
0.398891
0.398509
0.398378
0.398353
0.39836
0.398371
0.398379
0.398384
0.398387
0.398388
0.398389
0.398389
0.398389
0.398389
0.398389
0.398389
0.398389
0.398389
0.398389
0.398389
0.398389
0.398389
0.398389
0.398389
0.398389
0.398389
0.398389
0.39839
0.39839
0.39839
0.39839
0.39839
0.39839
0.39839
0.39839
0.39839
0.39839
0.39839
0.39839
0.39839
0.39839
0.39839
0.39839
0.39839
0.39839
0.39839
0.39839
0.39839
0.39839
0.39839
0.39839
0.39839
0.39839
0.39839
0.39839
0.39839
0.39839
0.39839
0.39839
0.39839
0.39839
0.39839
0.39839
0.39839
0.39839
0.39839
0.39839
0.39839
0.39839
0.39839
0.39839
0.39839
0.39839
0.39839
0.398391
0.398391
0.398391
0.398391
0.398391
0.398392
0.398393
0.398411
0.398433
0.398611
0.398611
1
1
1.03004
1.03872
1.03588
1.02714
1.01543
1.00244
0.989236
0.976622
0.96526
0.955663
0.948118
0.94264
0.938992
0.936787
0.935593
0.935031
0.934817
0.934767
0.934777
0.934801
0.93482
0.934833
0.93484
0.934844
0.934845
0.934846
0.934847
0.934847
0.934847
0.934847
0.934847
0.934847
0.934847
0.934847
0.934847
0.934847
0.934847
0.934847
0.934847
0.934847
0.934847
0.934847
0.934847
0.934847
0.934847
0.934848
0.934848
0.934848
0.934848
0.934848
0.934848
0.934848
0.934848
0.934848
0.934848
0.934848
0.934848
0.934848
0.934848
0.934848
0.934848
0.934848
0.934848
0.934848
0.934848
0.934848
0.934848
0.934848
0.934848
0.934848
0.934848
0.934848
0.934848
0.934848
0.934848
0.934848
0.934848
0.934848
0.934848
0.934848
0.934848
0.934848
0.934848
0.934848
0.934848
0.934848
0.934848
0.934848
0.934848
0.934848
0.934848
0.934848
0.934848
0.934849
0.934848
0.934861
0.934848
0.935099
0.935099
1
1
1.03528
1.07404
1.1071
1.13349
1.15381
1.16906
1.18027
1.1883
1.19384
1.19746
1.19966
1.20086
1.20145
1.20168
1.20175
1.20175
1.20172
1.2017
1.20169
1.20169
1.20169
1.20169
1.2017
1.2017
1.2017
1.2017
1.2017
1.2017
1.2017
1.2017
1.2017
1.2017
1.2017
1.2017
1.2017
1.2017
1.2017
1.2017
1.2017
1.2017
1.2017
1.2017
1.2017
1.2017
1.2017
1.2017
1.2017
1.2017
1.2017
1.2017
1.2017
1.2017
1.2017
1.2017
1.2017
1.2017
1.2017
1.2017
1.2017
1.2017
1.2017
1.2017
1.2017
1.2017
1.2017
1.2017
1.2017
1.2017
1.2017
1.2017
1.2017
1.2017
1.2017
1.2017
1.2017
1.2017
1.2017
1.2017
1.2017
1.2017
1.2017
1.2017
1.2017
1.2017
1.2017
1.2017
1.2017
1.2017
1.2017
1.2017
1.2017
1.2017
1.2017
1.2017
1.2017
1.20169
1.20169
1.20166
1.20166
1
1
1.02921
1.07124
1.11265
1.14985
1.18204
1.20942
1.23248
1.25164
1.26714
1.27919
1.28805
1.29415
1.29804
1.30032
1.30152
1.30207
1.30228
1.30233
1.30232
1.3023
1.30228
1.30226
1.30226
1.30225
1.30225
1.30225
1.30225
1.30225
1.30225
1.30225
1.30225
1.30225
1.30225
1.30225
1.30225
1.30225
1.30225
1.30225
1.30225
1.30225
1.30225
1.30225
1.30225
1.30225
1.30225
1.30225
1.30225
1.30225
1.30225
1.30225
1.30225
1.30225
1.30225
1.30225
1.30225
1.30225
1.30225
1.30225
1.30225
1.30225
1.30225
1.30225
1.30225
1.30225
1.30225
1.30225
1.30225
1.30225
1.30225
1.30225
1.30225
1.30225
1.30225
1.30225
1.30225
1.30225
1.30225
1.30225
1.30225
1.30225
1.30225
1.30225
1.30225
1.30225
1.30225
1.30225
1.30225
1.30225
1.30225
1.30225
1.30225
1.30225
1.30225
1.30225
1.30225
1.30223
1.30223
1.30198
1.30198
1
1
1.02685
1.06849
1.11086
1.1499
1.18452
1.21472
1.24082
1.26305
1.28148
1.29612
1.30711
1.31483
1.31986
1.32287
1.3245
1.32529
1.32561
1.32571
1.32572
1.3257
1.32568
1.32566
1.32565
1.32565
1.32564
1.32564
1.32564
1.32564
1.32564
1.32564
1.32564
1.32564
1.32564
1.32564
1.32564
1.32564
1.32564
1.32564
1.32564
1.32564
1.32564
1.32564
1.32564
1.32564
1.32564
1.32564
1.32564
1.32564
1.32564
1.32564
1.32564
1.32564
1.32564
1.32564
1.32564
1.32564
1.32564
1.32564
1.32564
1.32564
1.32564
1.32564
1.32564
1.32564
1.32564
1.32564
1.32564
1.32564
1.32564
1.32564
1.32564
1.32564
1.32564
1.32564
1.32564
1.32564
1.32564
1.32564
1.32564
1.32564
1.32564
1.32564
1.32564
1.32564
1.32564
1.32564
1.32564
1.32564
1.32564
1.32564
1.32564
1.32564
1.32564
1.32564
1.32564
1.32562
1.32562
1.32531
1.32531
1
1
1.02921
1.07124
1.11265
1.14985
1.18204
1.20942
1.23248
1.25164
1.26714
1.27919
1.28805
1.29415
1.29804
1.30032
1.30152
1.30207
1.30228
1.30233
1.30232
1.3023
1.30228
1.30226
1.30226
1.30225
1.30225
1.30225
1.30225
1.30225
1.30225
1.30225
1.30225
1.30225
1.30225
1.30225
1.30225
1.30225
1.30225
1.30225
1.30225
1.30225
1.30225
1.30225
1.30225
1.30225
1.30225
1.30225
1.30225
1.30225
1.30225
1.30225
1.30225
1.30225
1.30225
1.30225
1.30225
1.30225
1.30225
1.30225
1.30225
1.30225
1.30225
1.30225
1.30225
1.30225
1.30225
1.30225
1.30225
1.30225
1.30225
1.30225
1.30225
1.30225
1.30225
1.30225
1.30225
1.30225
1.30225
1.30225
1.30225
1.30225
1.30225
1.30225
1.30225
1.30225
1.30225
1.30225
1.30225
1.30225
1.30225
1.30225
1.30225
1.30225
1.30225
1.30225
1.30225
1.30223
1.30223
1.30198
1.30198
1
1
1.03528
1.07404
1.1071
1.13349
1.15381
1.16906
1.18027
1.1883
1.19384
1.19746
1.19966
1.20086
1.20145
1.20168
1.20175
1.20175
1.20172
1.2017
1.20169
1.20169
1.20169
1.20169
1.20169
1.2017
1.2017
1.2017
1.2017
1.2017
1.2017
1.2017
1.2017
1.2017
1.2017
1.2017
1.2017
1.2017
1.2017
1.2017
1.2017
1.2017
1.2017
1.2017
1.2017
1.2017
1.2017
1.2017
1.2017
1.2017
1.2017
1.2017
1.2017
1.2017
1.2017
1.2017
1.2017
1.2017
1.2017
1.2017
1.2017
1.2017
1.2017
1.2017
1.2017
1.2017
1.2017
1.2017
1.2017
1.2017
1.2017
1.2017
1.2017
1.2017
1.2017
1.2017
1.2017
1.2017
1.2017
1.2017
1.2017
1.2017
1.2017
1.2017
1.2017
1.2017
1.2017
1.2017
1.2017
1.2017
1.2017
1.2017
1.2017
1.2017
1.2017
1.2017
1.2017
1.20169
1.20169
1.20166
1.20166
1
1
1.03004
1.03872
1.03588
1.02714
1.01543
1.00244
0.989236
0.976622
0.96526
0.955663
0.948118
0.942639
0.938992
0.936786
0.935592
0.935031
0.934817
0.934766
0.934777
0.9348
0.93482
0.934832
0.934839
0.934843
0.934845
0.934845
0.934846
0.934846
0.934846
0.934846
0.934846
0.934846
0.934846
0.934846
0.934846
0.934846
0.934846
0.934846
0.934846
0.934847
0.934847
0.934847
0.934847
0.934847
0.934847
0.934847
0.934847
0.934847
0.934847
0.934847
0.934847
0.934847
0.934847
0.934847
0.934847
0.934847
0.934847
0.934847
0.934847
0.934847
0.934847
0.934847
0.934847
0.934847
0.934847
0.934847
0.934847
0.934847
0.934847
0.934847
0.934847
0.934847
0.934847
0.934847
0.934847
0.934847
0.934847
0.934847
0.934847
0.934847
0.934847
0.934847
0.934847
0.934847
0.934847
0.934847
0.934847
0.934847
0.934847
0.934847
0.934847
0.934847
0.934847
0.934848
0.934847
0.934861
0.934847
0.935098
0.935098
1
1
0.892043
0.781755
0.688943
0.614574
0.556463
0.511722
0.477606
0.451913
0.433012
0.419627
0.410626
0.404938
0.401593
0.39978
0.398891
0.398509
0.398378
0.398353
0.39836
0.398371
0.398379
0.398384
0.398387
0.398388
0.398388
0.398389
0.398389
0.398389
0.398389
0.398389
0.398389
0.398389
0.398389
0.398389
0.398389
0.398389
0.398389
0.398389
0.398389
0.398389
0.398389
0.398389
0.398389
0.398389
0.398389
0.398389
0.398389
0.398389
0.398389
0.398389
0.398389
0.398389
0.398389
0.398389
0.398389
0.398389
0.398389
0.398389
0.398389
0.398389
0.398389
0.398389
0.398389
0.39839
0.39839
0.39839
0.39839
0.39839
0.39839
0.39839
0.39839
0.39839
0.39839
0.39839
0.39839
0.39839
0.39839
0.39839
0.39839
0.39839
0.39839
0.39839
0.39839
0.39839
0.39839
0.39839
0.39839
0.39839
0.39839
0.39839
0.39839
0.39839
0.39839
0.398391
0.398392
0.398411
0.398432
0.39861
0.39861
1
-1
-0.892043
-0.781755
-0.688943
-0.614574
-0.556463
-0.511722
-0.477606
-0.451913
-0.433012
-0.419627
-0.410626
-0.404938
-0.401593
-0.39978
-0.398891
-0.398509
-0.398378
-0.398353
-0.39836
-0.398371
-0.398379
-0.398384
-0.398387
-0.398388
-0.398388
-0.398389
-0.398389
-0.398389
-0.398389
-0.398389
-0.398389
-0.398389
-0.398389
-0.398389
-0.398389
-0.398389
-0.398389
-0.398389
-0.398389
-0.398389
-0.398389
-0.398389
-0.398389
-0.398389
-0.398389
-0.398389
-0.398389
-0.398389
-0.398389
-0.398389
-0.398389
-0.398389
-0.398389
-0.398389
-0.398389
-0.398389
-0.398389
-0.398389
-0.398389
-0.398389
-0.398389
-0.398389
-0.398389
-0.39839
-0.39839
-0.39839
-0.39839
-0.39839
-0.39839
-0.39839
-0.39839
-0.39839
-0.39839
-0.39839
-0.39839
-0.39839
-0.39839
-0.39839
-0.39839
-0.39839
-0.39839
-0.39839
-0.39839
-0.39839
-0.39839
-0.39839
-0.39839
-0.39839
-0.39839
-0.39839
-0.39839
-0.39839
-0.39839
-0.398391
-0.398392
-0.398411
-0.398432
-0.39861
-0.39861
-1
