# vtk DataFile Version 2.0
FlowField
ASCII
DATASET STRUCTURED_GRID
DIMENSIONS 102 12 1 
POINTS 1224 double
0 0 0
0.3 0 0
0.6 0 0
0.9 0 0
1.2 0 0
1.5 0 0
1.8 0 0
2.1 0 0
2.4 0 0
2.7 0 0
3 0 0
3.3 0 0
3.6 0 0
3.9 0 0
4.2 0 0
4.5 0 0
4.8 0 0
5.1 0 0
5.4 0 0
5.7 0 0
6 0 0
6.3 0 0
6.6 0 0
6.9 0 0
7.2 0 0
7.5 0 0
7.8 0 0
8.1 0 0
8.4 0 0
8.7 0 0
9 0 0
9.3 0 0
9.6 0 0
9.9 0 0
10.2 0 0
10.5 0 0
10.8 0 0
11.1 0 0
11.4 0 0
11.7 0 0
12 0 0
12.3 0 0
12.6 0 0
12.9 0 0
13.2 0 0
13.5 0 0
13.8 0 0
14.1 0 0
14.4 0 0
14.7 0 0
15 0 0
15.3 0 0
15.6 0 0
15.9 0 0
16.2 0 0
16.5 0 0
16.8 0 0
17.1 0 0
17.4 0 0
17.7 0 0
18 0 0
18.3 0 0
18.6 0 0
18.9 0 0
19.2 0 0
19.5 0 0
19.8 0 0
20.1 0 0
20.4 0 0
20.7 0 0
21 0 0
21.3 0 0
21.6 0 0
21.9 0 0
22.2 0 0
22.5 0 0
22.8 0 0
23.1 0 0
23.4 0 0
23.7 0 0
24 0 0
24.3 0 0
24.6 0 0
24.9 0 0
25.2 0 0
25.5 0 0
25.8 0 0
26.1 0 0
26.4 0 0
26.7 0 0
27 0 0
27.3 0 0
27.6 0 0
27.9 0 0
28.2 0 0
28.5 0 0
28.8 0 0
29.1 0 0
29.4 0 0
29.7 0 0
30 0 0
30.3 0 0
0 0.1 0
0.3 0.1 0
0.6 0.1 0
0.9 0.1 0
1.2 0.1 0
1.5 0.1 0
1.8 0.1 0
2.1 0.1 0
2.4 0.1 0
2.7 0.1 0
3 0.1 0
3.3 0.1 0
3.6 0.1 0
3.9 0.1 0
4.2 0.1 0
4.5 0.1 0
4.8 0.1 0
5.1 0.1 0
5.4 0.1 0
5.7 0.1 0
6 0.1 0
6.3 0.1 0
6.6 0.1 0
6.9 0.1 0
7.2 0.1 0
7.5 0.1 0
7.8 0.1 0
8.1 0.1 0
8.4 0.1 0
8.7 0.1 0
9 0.1 0
9.3 0.1 0
9.6 0.1 0
9.9 0.1 0
10.2 0.1 0
10.5 0.1 0
10.8 0.1 0
11.1 0.1 0
11.4 0.1 0
11.7 0.1 0
12 0.1 0
12.3 0.1 0
12.6 0.1 0
12.9 0.1 0
13.2 0.1 0
13.5 0.1 0
13.8 0.1 0
14.1 0.1 0
14.4 0.1 0
14.7 0.1 0
15 0.1 0
15.3 0.1 0
15.6 0.1 0
15.9 0.1 0
16.2 0.1 0
16.5 0.1 0
16.8 0.1 0
17.1 0.1 0
17.4 0.1 0
17.7 0.1 0
18 0.1 0
18.3 0.1 0
18.6 0.1 0
18.9 0.1 0
19.2 0.1 0
19.5 0.1 0
19.8 0.1 0
20.1 0.1 0
20.4 0.1 0
20.7 0.1 0
21 0.1 0
21.3 0.1 0
21.6 0.1 0
21.9 0.1 0
22.2 0.1 0
22.5 0.1 0
22.8 0.1 0
23.1 0.1 0
23.4 0.1 0
23.7 0.1 0
24 0.1 0
24.3 0.1 0
24.6 0.1 0
24.9 0.1 0
25.2 0.1 0
25.5 0.1 0
25.8 0.1 0
26.1 0.1 0
26.4 0.1 0
26.7 0.1 0
27 0.1 0
27.3 0.1 0
27.6 0.1 0
27.9 0.1 0
28.2 0.1 0
28.5 0.1 0
28.8 0.1 0
29.1 0.1 0
29.4 0.1 0
29.7 0.1 0
30 0.1 0
30.3 0.1 0
0 0.2 0
0.3 0.2 0
0.6 0.2 0
0.9 0.2 0
1.2 0.2 0
1.5 0.2 0
1.8 0.2 0
2.1 0.2 0
2.4 0.2 0
2.7 0.2 0
3 0.2 0
3.3 0.2 0
3.6 0.2 0
3.9 0.2 0
4.2 0.2 0
4.5 0.2 0
4.8 0.2 0
5.1 0.2 0
5.4 0.2 0
5.7 0.2 0
6 0.2 0
6.3 0.2 0
6.6 0.2 0
6.9 0.2 0
7.2 0.2 0
7.5 0.2 0
7.8 0.2 0
8.1 0.2 0
8.4 0.2 0
8.7 0.2 0
9 0.2 0
9.3 0.2 0
9.6 0.2 0
9.9 0.2 0
10.2 0.2 0
10.5 0.2 0
10.8 0.2 0
11.1 0.2 0
11.4 0.2 0
11.7 0.2 0
12 0.2 0
12.3 0.2 0
12.6 0.2 0
12.9 0.2 0
13.2 0.2 0
13.5 0.2 0
13.8 0.2 0
14.1 0.2 0
14.4 0.2 0
14.7 0.2 0
15 0.2 0
15.3 0.2 0
15.6 0.2 0
15.9 0.2 0
16.2 0.2 0
16.5 0.2 0
16.8 0.2 0
17.1 0.2 0
17.4 0.2 0
17.7 0.2 0
18 0.2 0
18.3 0.2 0
18.6 0.2 0
18.9 0.2 0
19.2 0.2 0
19.5 0.2 0
19.8 0.2 0
20.1 0.2 0
20.4 0.2 0
20.7 0.2 0
21 0.2 0
21.3 0.2 0
21.6 0.2 0
21.9 0.2 0
22.2 0.2 0
22.5 0.2 0
22.8 0.2 0
23.1 0.2 0
23.4 0.2 0
23.7 0.2 0
24 0.2 0
24.3 0.2 0
24.6 0.2 0
24.9 0.2 0
25.2 0.2 0
25.5 0.2 0
25.8 0.2 0
26.1 0.2 0
26.4 0.2 0
26.7 0.2 0
27 0.2 0
27.3 0.2 0
27.6 0.2 0
27.9 0.2 0
28.2 0.2 0
28.5 0.2 0
28.8 0.2 0
29.1 0.2 0
29.4 0.2 0
29.7 0.2 0
30 0.2 0
30.3 0.2 0
0 0.3 0
0.3 0.3 0
0.6 0.3 0
0.9 0.3 0
1.2 0.3 0
1.5 0.3 0
1.8 0.3 0
2.1 0.3 0
2.4 0.3 0
2.7 0.3 0
3 0.3 0
3.3 0.3 0
3.6 0.3 0
3.9 0.3 0
4.2 0.3 0
4.5 0.3 0
4.8 0.3 0
5.1 0.3 0
5.4 0.3 0
5.7 0.3 0
6 0.3 0
6.3 0.3 0
6.6 0.3 0
6.9 0.3 0
7.2 0.3 0
7.5 0.3 0
7.8 0.3 0
8.1 0.3 0
8.4 0.3 0
8.7 0.3 0
9 0.3 0
9.3 0.3 0
9.6 0.3 0
9.9 0.3 0
10.2 0.3 0
10.5 0.3 0
10.8 0.3 0
11.1 0.3 0
11.4 0.3 0
11.7 0.3 0
12 0.3 0
12.3 0.3 0
12.6 0.3 0
12.9 0.3 0
13.2 0.3 0
13.5 0.3 0
13.8 0.3 0
14.1 0.3 0
14.4 0.3 0
14.7 0.3 0
15 0.3 0
15.3 0.3 0
15.6 0.3 0
15.9 0.3 0
16.2 0.3 0
16.5 0.3 0
16.8 0.3 0
17.1 0.3 0
17.4 0.3 0
17.7 0.3 0
18 0.3 0
18.3 0.3 0
18.6 0.3 0
18.9 0.3 0
19.2 0.3 0
19.5 0.3 0
19.8 0.3 0
20.1 0.3 0
20.4 0.3 0
20.7 0.3 0
21 0.3 0
21.3 0.3 0
21.6 0.3 0
21.9 0.3 0
22.2 0.3 0
22.5 0.3 0
22.8 0.3 0
23.1 0.3 0
23.4 0.3 0
23.7 0.3 0
24 0.3 0
24.3 0.3 0
24.6 0.3 0
24.9 0.3 0
25.2 0.3 0
25.5 0.3 0
25.8 0.3 0
26.1 0.3 0
26.4 0.3 0
26.7 0.3 0
27 0.3 0
27.3 0.3 0
27.6 0.3 0
27.9 0.3 0
28.2 0.3 0
28.5 0.3 0
28.8 0.3 0
29.1 0.3 0
29.4 0.3 0
29.7 0.3 0
30 0.3 0
30.3 0.3 0
0 0.4 0
0.3 0.4 0
0.6 0.4 0
0.9 0.4 0
1.2 0.4 0
1.5 0.4 0
1.8 0.4 0
2.1 0.4 0
2.4 0.4 0
2.7 0.4 0
3 0.4 0
3.3 0.4 0
3.6 0.4 0
3.9 0.4 0
4.2 0.4 0
4.5 0.4 0
4.8 0.4 0
5.1 0.4 0
5.4 0.4 0
5.7 0.4 0
6 0.4 0
6.3 0.4 0
6.6 0.4 0
6.9 0.4 0
7.2 0.4 0
7.5 0.4 0
7.8 0.4 0
8.1 0.4 0
8.4 0.4 0
8.7 0.4 0
9 0.4 0
9.3 0.4 0
9.6 0.4 0
9.9 0.4 0
10.2 0.4 0
10.5 0.4 0
10.8 0.4 0
11.1 0.4 0
11.4 0.4 0
11.7 0.4 0
12 0.4 0
12.3 0.4 0
12.6 0.4 0
12.9 0.4 0
13.2 0.4 0
13.5 0.4 0
13.8 0.4 0
14.1 0.4 0
14.4 0.4 0
14.7 0.4 0
15 0.4 0
15.3 0.4 0
15.6 0.4 0
15.9 0.4 0
16.2 0.4 0
16.5 0.4 0
16.8 0.4 0
17.1 0.4 0
17.4 0.4 0
17.7 0.4 0
18 0.4 0
18.3 0.4 0
18.6 0.4 0
18.9 0.4 0
19.2 0.4 0
19.5 0.4 0
19.8 0.4 0
20.1 0.4 0
20.4 0.4 0
20.7 0.4 0
21 0.4 0
21.3 0.4 0
21.6 0.4 0
21.9 0.4 0
22.2 0.4 0
22.5 0.4 0
22.8 0.4 0
23.1 0.4 0
23.4 0.4 0
23.7 0.4 0
24 0.4 0
24.3 0.4 0
24.6 0.4 0
24.9 0.4 0
25.2 0.4 0
25.5 0.4 0
25.8 0.4 0
26.1 0.4 0
26.4 0.4 0
26.7 0.4 0
27 0.4 0
27.3 0.4 0
27.6 0.4 0
27.9 0.4 0
28.2 0.4 0
28.5 0.4 0
28.8 0.4 0
29.1 0.4 0
29.4 0.4 0
29.7 0.4 0
30 0.4 0
30.3 0.4 0
0 0.5 0
0.3 0.5 0
0.6 0.5 0
0.9 0.5 0
1.2 0.5 0
1.5 0.5 0
1.8 0.5 0
2.1 0.5 0
2.4 0.5 0
2.7 0.5 0
3 0.5 0
3.3 0.5 0
3.6 0.5 0
3.9 0.5 0
4.2 0.5 0
4.5 0.5 0
4.8 0.5 0
5.1 0.5 0
5.4 0.5 0
5.7 0.5 0
6 0.5 0
6.3 0.5 0
6.6 0.5 0
6.9 0.5 0
7.2 0.5 0
7.5 0.5 0
7.8 0.5 0
8.1 0.5 0
8.4 0.5 0
8.7 0.5 0
9 0.5 0
9.3 0.5 0
9.6 0.5 0
9.9 0.5 0
10.2 0.5 0
10.5 0.5 0
10.8 0.5 0
11.1 0.5 0
11.4 0.5 0
11.7 0.5 0
12 0.5 0
12.3 0.5 0
12.6 0.5 0
12.9 0.5 0
13.2 0.5 0
13.5 0.5 0
13.8 0.5 0
14.1 0.5 0
14.4 0.5 0
14.7 0.5 0
15 0.5 0
15.3 0.5 0
15.6 0.5 0
15.9 0.5 0
16.2 0.5 0
16.5 0.5 0
16.8 0.5 0
17.1 0.5 0
17.4 0.5 0
17.7 0.5 0
18 0.5 0
18.3 0.5 0
18.6 0.5 0
18.9 0.5 0
19.2 0.5 0
19.5 0.5 0
19.8 0.5 0
20.1 0.5 0
20.4 0.5 0
20.7 0.5 0
21 0.5 0
21.3 0.5 0
21.6 0.5 0
21.9 0.5 0
22.2 0.5 0
22.5 0.5 0
22.8 0.5 0
23.1 0.5 0
23.4 0.5 0
23.7 0.5 0
24 0.5 0
24.3 0.5 0
24.6 0.5 0
24.9 0.5 0
25.2 0.5 0
25.5 0.5 0
25.8 0.5 0
26.1 0.5 0
26.4 0.5 0
26.7 0.5 0
27 0.5 0
27.3 0.5 0
27.6 0.5 0
27.9 0.5 0
28.2 0.5 0
28.5 0.5 0
28.8 0.5 0
29.1 0.5 0
29.4 0.5 0
29.7 0.5 0
30 0.5 0
30.3 0.5 0
0 0.6 0
0.3 0.6 0
0.6 0.6 0
0.9 0.6 0
1.2 0.6 0
1.5 0.6 0
1.8 0.6 0
2.1 0.6 0
2.4 0.6 0
2.7 0.6 0
3 0.6 0
3.3 0.6 0
3.6 0.6 0
3.9 0.6 0
4.2 0.6 0
4.5 0.6 0
4.8 0.6 0
5.1 0.6 0
5.4 0.6 0
5.7 0.6 0
6 0.6 0
6.3 0.6 0
6.6 0.6 0
6.9 0.6 0
7.2 0.6 0
7.5 0.6 0
7.8 0.6 0
8.1 0.6 0
8.4 0.6 0
8.7 0.6 0
9 0.6 0
9.3 0.6 0
9.6 0.6 0
9.9 0.6 0
10.2 0.6 0
10.5 0.6 0
10.8 0.6 0
11.1 0.6 0
11.4 0.6 0
11.7 0.6 0
12 0.6 0
12.3 0.6 0
12.6 0.6 0
12.9 0.6 0
13.2 0.6 0
13.5 0.6 0
13.8 0.6 0
14.1 0.6 0
14.4 0.6 0
14.7 0.6 0
15 0.6 0
15.3 0.6 0
15.6 0.6 0
15.9 0.6 0
16.2 0.6 0
16.5 0.6 0
16.8 0.6 0
17.1 0.6 0
17.4 0.6 0
17.7 0.6 0
18 0.6 0
18.3 0.6 0
18.6 0.6 0
18.9 0.6 0
19.2 0.6 0
19.5 0.6 0
19.8 0.6 0
20.1 0.6 0
20.4 0.6 0
20.7 0.6 0
21 0.6 0
21.3 0.6 0
21.6 0.6 0
21.9 0.6 0
22.2 0.6 0
22.5 0.6 0
22.8 0.6 0
23.1 0.6 0
23.4 0.6 0
23.7 0.6 0
24 0.6 0
24.3 0.6 0
24.6 0.6 0
24.9 0.6 0
25.2 0.6 0
25.5 0.6 0
25.8 0.6 0
26.1 0.6 0
26.4 0.6 0
26.7 0.6 0
27 0.6 0
27.3 0.6 0
27.6 0.6 0
27.9 0.6 0
28.2 0.6 0
28.5 0.6 0
28.8 0.6 0
29.1 0.6 0
29.4 0.6 0
29.7 0.6 0
30 0.6 0
30.3 0.6 0
0 0.7 0
0.3 0.7 0
0.6 0.7 0
0.9 0.7 0
1.2 0.7 0
1.5 0.7 0
1.8 0.7 0
2.1 0.7 0
2.4 0.7 0
2.7 0.7 0
3 0.7 0
3.3 0.7 0
3.6 0.7 0
3.9 0.7 0
4.2 0.7 0
4.5 0.7 0
4.8 0.7 0
5.1 0.7 0
5.4 0.7 0
5.7 0.7 0
6 0.7 0
6.3 0.7 0
6.6 0.7 0
6.9 0.7 0
7.2 0.7 0
7.5 0.7 0
7.8 0.7 0
8.1 0.7 0
8.4 0.7 0
8.7 0.7 0
9 0.7 0
9.3 0.7 0
9.6 0.7 0
9.9 0.7 0
10.2 0.7 0
10.5 0.7 0
10.8 0.7 0
11.1 0.7 0
11.4 0.7 0
11.7 0.7 0
12 0.7 0
12.3 0.7 0
12.6 0.7 0
12.9 0.7 0
13.2 0.7 0
13.5 0.7 0
13.8 0.7 0
14.1 0.7 0
14.4 0.7 0
14.7 0.7 0
15 0.7 0
15.3 0.7 0
15.6 0.7 0
15.9 0.7 0
16.2 0.7 0
16.5 0.7 0
16.8 0.7 0
17.1 0.7 0
17.4 0.7 0
17.7 0.7 0
18 0.7 0
18.3 0.7 0
18.6 0.7 0
18.9 0.7 0
19.2 0.7 0
19.5 0.7 0
19.8 0.7 0
20.1 0.7 0
20.4 0.7 0
20.7 0.7 0
21 0.7 0
21.3 0.7 0
21.6 0.7 0
21.9 0.7 0
22.2 0.7 0
22.5 0.7 0
22.8 0.7 0
23.1 0.7 0
23.4 0.7 0
23.7 0.7 0
24 0.7 0
24.3 0.7 0
24.6 0.7 0
24.9 0.7 0
25.2 0.7 0
25.5 0.7 0
25.8 0.7 0
26.1 0.7 0
26.4 0.7 0
26.7 0.7 0
27 0.7 0
27.3 0.7 0
27.6 0.7 0
27.9 0.7 0
28.2 0.7 0
28.5 0.7 0
28.8 0.7 0
29.1 0.7 0
29.4 0.7 0
29.7 0.7 0
30 0.7 0
30.3 0.7 0
0 0.8 0
0.3 0.8 0
0.6 0.8 0
0.9 0.8 0
1.2 0.8 0
1.5 0.8 0
1.8 0.8 0
2.1 0.8 0
2.4 0.8 0
2.7 0.8 0
3 0.8 0
3.3 0.8 0
3.6 0.8 0
3.9 0.8 0
4.2 0.8 0
4.5 0.8 0
4.8 0.8 0
5.1 0.8 0
5.4 0.8 0
5.7 0.8 0
6 0.8 0
6.3 0.8 0
6.6 0.8 0
6.9 0.8 0
7.2 0.8 0
7.5 0.8 0
7.8 0.8 0
8.1 0.8 0
8.4 0.8 0
8.7 0.8 0
9 0.8 0
9.3 0.8 0
9.6 0.8 0
9.9 0.8 0
10.2 0.8 0
10.5 0.8 0
10.8 0.8 0
11.1 0.8 0
11.4 0.8 0
11.7 0.8 0
12 0.8 0
12.3 0.8 0
12.6 0.8 0
12.9 0.8 0
13.2 0.8 0
13.5 0.8 0
13.8 0.8 0
14.1 0.8 0
14.4 0.8 0
14.7 0.8 0
15 0.8 0
15.3 0.8 0
15.6 0.8 0
15.9 0.8 0
16.2 0.8 0
16.5 0.8 0
16.8 0.8 0
17.1 0.8 0
17.4 0.8 0
17.7 0.8 0
18 0.8 0
18.3 0.8 0
18.6 0.8 0
18.9 0.8 0
19.2 0.8 0
19.5 0.8 0
19.8 0.8 0
20.1 0.8 0
20.4 0.8 0
20.7 0.8 0
21 0.8 0
21.3 0.8 0
21.6 0.8 0
21.9 0.8 0
22.2 0.8 0
22.5 0.8 0
22.8 0.8 0
23.1 0.8 0
23.4 0.8 0
23.7 0.8 0
24 0.8 0
24.3 0.8 0
24.6 0.8 0
24.9 0.8 0
25.2 0.8 0
25.5 0.8 0
25.8 0.8 0
26.1 0.8 0
26.4 0.8 0
26.7 0.8 0
27 0.8 0
27.3 0.8 0
27.6 0.8 0
27.9 0.8 0
28.2 0.8 0
28.5 0.8 0
28.8 0.8 0
29.1 0.8 0
29.4 0.8 0
29.7 0.8 0
30 0.8 0
30.3 0.8 0
0 0.9 0
0.3 0.9 0
0.6 0.9 0
0.9 0.9 0
1.2 0.9 0
1.5 0.9 0
1.8 0.9 0
2.1 0.9 0
2.4 0.9 0
2.7 0.9 0
3 0.9 0
3.3 0.9 0
3.6 0.9 0
3.9 0.9 0
4.2 0.9 0
4.5 0.9 0
4.8 0.9 0
5.1 0.9 0
5.4 0.9 0
5.7 0.9 0
6 0.9 0
6.3 0.9 0
6.6 0.9 0
6.9 0.9 0
7.2 0.9 0
7.5 0.9 0
7.8 0.9 0
8.1 0.9 0
8.4 0.9 0
8.7 0.9 0
9 0.9 0
9.3 0.9 0
9.6 0.9 0
9.9 0.9 0
10.2 0.9 0
10.5 0.9 0
10.8 0.9 0
11.1 0.9 0
11.4 0.9 0
11.7 0.9 0
12 0.9 0
12.3 0.9 0
12.6 0.9 0
12.9 0.9 0
13.2 0.9 0
13.5 0.9 0
13.8 0.9 0
14.1 0.9 0
14.4 0.9 0
14.7 0.9 0
15 0.9 0
15.3 0.9 0
15.6 0.9 0
15.9 0.9 0
16.2 0.9 0
16.5 0.9 0
16.8 0.9 0
17.1 0.9 0
17.4 0.9 0
17.7 0.9 0
18 0.9 0
18.3 0.9 0
18.6 0.9 0
18.9 0.9 0
19.2 0.9 0
19.5 0.9 0
19.8 0.9 0
20.1 0.9 0
20.4 0.9 0
20.7 0.9 0
21 0.9 0
21.3 0.9 0
21.6 0.9 0
21.9 0.9 0
22.2 0.9 0
22.5 0.9 0
22.8 0.9 0
23.1 0.9 0
23.4 0.9 0
23.7 0.9 0
24 0.9 0
24.3 0.9 0
24.6 0.9 0
24.9 0.9 0
25.2 0.9 0
25.5 0.9 0
25.8 0.9 0
26.1 0.9 0
26.4 0.9 0
26.7 0.9 0
27 0.9 0
27.3 0.9 0
27.6 0.9 0
27.9 0.9 0
28.2 0.9 0
28.5 0.9 0
28.8 0.9 0
29.1 0.9 0
29.4 0.9 0
29.7 0.9 0
30 0.9 0
30.3 0.9 0
0 1 0
0.3 1 0
0.6 1 0
0.9 1 0
1.2 1 0
1.5 1 0
1.8 1 0
2.1 1 0
2.4 1 0
2.7 1 0
3 1 0
3.3 1 0
3.6 1 0
3.9 1 0
4.2 1 0
4.5 1 0
4.8 1 0
5.1 1 0
5.4 1 0
5.7 1 0
6 1 0
6.3 1 0
6.6 1 0
6.9 1 0
7.2 1 0
7.5 1 0
7.8 1 0
8.1 1 0
8.4 1 0
8.7 1 0
9 1 0
9.3 1 0
9.6 1 0
9.9 1 0
10.2 1 0
10.5 1 0
10.8 1 0
11.1 1 0
11.4 1 0
11.7 1 0
12 1 0
12.3 1 0
12.6 1 0
12.9 1 0
13.2 1 0
13.5 1 0
13.8 1 0
14.1 1 0
14.4 1 0
14.7 1 0
15 1 0
15.3 1 0
15.6 1 0
15.9 1 0
16.2 1 0
16.5 1 0
16.8 1 0
17.1 1 0
17.4 1 0
17.7 1 0
18 1 0
18.3 1 0
18.6 1 0
18.9 1 0
19.2 1 0
19.5 1 0
19.8 1 0
20.1 1 0
20.4 1 0
20.7 1 0
21 1 0
21.3 1 0
21.6 1 0
21.9 1 0
22.2 1 0
22.5 1 0
22.8 1 0
23.1 1 0
23.4 1 0
23.7 1 0
24 1 0
24.3 1 0
24.6 1 0
24.9 1 0
25.2 1 0
25.5 1 0
25.8 1 0
26.1 1 0
26.4 1 0
26.7 1 0
27 1 0
27.3 1 0
27.6 1 0
27.9 1 0
28.2 1 0
28.5 1 0
28.8 1 0
29.1 1 0
29.4 1 0
29.7 1 0
30 1 0
30.3 1 0
0 1.1 0
0.3 1.1 0
0.6 1.1 0
0.9 1.1 0
1.2 1.1 0
1.5 1.1 0
1.8 1.1 0
2.1 1.1 0
2.4 1.1 0
2.7 1.1 0
3 1.1 0
3.3 1.1 0
3.6 1.1 0
3.9 1.1 0
4.2 1.1 0
4.5 1.1 0
4.8 1.1 0
5.1 1.1 0
5.4 1.1 0
5.7 1.1 0
6 1.1 0
6.3 1.1 0
6.6 1.1 0
6.9 1.1 0
7.2 1.1 0
7.5 1.1 0
7.8 1.1 0
8.1 1.1 0
8.4 1.1 0
8.7 1.1 0
9 1.1 0
9.3 1.1 0
9.6 1.1 0
9.9 1.1 0
10.2 1.1 0
10.5 1.1 0
10.8 1.1 0
11.1 1.1 0
11.4 1.1 0
11.7 1.1 0
12 1.1 0
12.3 1.1 0
12.6 1.1 0
12.9 1.1 0
13.2 1.1 0
13.5 1.1 0
13.8 1.1 0
14.1 1.1 0
14.4 1.1 0
14.7 1.1 0
15 1.1 0
15.3 1.1 0
15.6 1.1 0
15.9 1.1 0
16.2 1.1 0
16.5 1.1 0
16.8 1.1 0
17.1 1.1 0
17.4 1.1 0
17.7 1.1 0
18 1.1 0
18.3 1.1 0
18.6 1.1 0
18.9 1.1 0
19.2 1.1 0
19.5 1.1 0
19.8 1.1 0
20.1 1.1 0
20.4 1.1 0
20.7 1.1 0
21 1.1 0
21.3 1.1 0
21.6 1.1 0
21.9 1.1 0
22.2 1.1 0
22.5 1.1 0
22.8 1.1 0
23.1 1.1 0
23.4 1.1 0
23.7 1.1 0
24 1.1 0
24.3 1.1 0
24.6 1.1 0
24.9 1.1 0
25.2 1.1 0
25.5 1.1 0
25.8 1.1 0
26.1 1.1 0
26.4 1.1 0
26.7 1.1 0
27 1.1 0
27.3 1.1 0
27.6 1.1 0
27.9 1.1 0
28.2 1.1 0
28.5 1.1 0
28.8 1.1 0
29.1 1.1 0
29.4 1.1 0
29.7 1.1 0
30 1.1 0
30.3 1.1 0

POINT_DATA 1224

SCALARS u double
LOOKUP_TABLE default
-1
-0.890166
-0.775978
-0.678614
-0.600115
-0.540045
-0.497544
-0.470526
-0.455396
-0.448037
-0.444988
-0.443965
-0.443734
-0.443749
-0.443795
-0.443822
-0.443833
-0.443838
-0.443839
-0.44384
-0.44384
-0.44384
-0.44384
-0.44384
-0.44384
-0.443841
-0.443841
-0.443841
-0.443841
-0.443841
-0.443841
-0.443841
-0.443841
-0.443841
-0.443841
-0.443841
-0.443841
-0.443841
-0.443841
-0.443841
-0.443841
-0.443841
-0.443841
-0.443841
-0.443841
-0.443841
-0.443842
-0.443842
-0.443842
-0.443842
-0.443842
-0.443842
-0.443842
-0.443842
-0.443842
-0.443842
-0.443842
-0.443842
-0.443842
-0.443842
-0.443842
-0.443842
-0.443842
-0.443842
-0.443842
-0.443842
-0.443842
-0.443842
-0.443842
-0.443842
-0.443842
-0.443842
-0.443842
-0.443842
-0.443842
-0.443842
-0.443842
-0.443842
-0.443842
-0.443842
-0.443842
-0.443842
-0.443842
-0.443842
-0.443842
-0.443842
-0.443842
-0.443842
-0.443842
-0.443842
-0.443842
-0.443842
-0.443843
-0.443843
-0.443843
-0.443847
-0.443852
-0.443897
-0.443961
-0.444442
-0.444442
-1
1
0.890166
0.775978
0.678614
0.600115
0.540045
0.497544
0.470526
0.455396
0.448037
0.444988
0.443965
0.443734
0.443749
0.443795
0.443822
0.443833
0.443838
0.443839
0.44384
0.44384
0.44384
0.44384
0.44384
0.44384
0.443841
0.443841
0.443841
0.443841
0.443841
0.443841
0.443841
0.443841
0.443841
0.443841
0.443841
0.443841
0.443841
0.443841
0.443841
0.443841
0.443841
0.443841
0.443841
0.443841
0.443841
0.443842
0.443842
0.443842
0.443842
0.443842
0.443842
0.443842
0.443842
0.443842
0.443842
0.443842
0.443842
0.443842
0.443842
0.443842
0.443842
0.443842
0.443842
0.443842
0.443842
0.443842
0.443842
0.443842
0.443842
0.443842
0.443842
0.443842
0.443842
0.443842
0.443842
0.443842
0.443842
0.443842
0.443842
0.443842
0.443842
0.443842
0.443842
0.443842
0.443842
0.443842
0.443842
0.443842
0.443842
0.443842
0.443842
0.443843
0.443843
0.443843
0.443847
0.443852
0.443897
0.443961
0.444442
0.444442
1
1
1.02799
1.03245
1.02459
1.01098
0.99594
0.982596
0.972711
0.966581
0.963477
0.962298
0.962091
0.962252
0.96245
0.962589
0.962668
0.962708
0.962725
0.962733
0.962735
0.962736
0.962737
0.962737
0.962737
0.962737
0.962737
0.962737
0.962737
0.962737
0.962737
0.962737
0.962737
0.962737
0.962737
0.962737
0.962737
0.962738
0.962738
0.962738
0.962738
0.962738
0.962738
0.962738
0.962738
0.962738
0.962738
0.962738
0.962738
0.962738
0.962738
0.962738
0.962738
0.962738
0.962738
0.962738
0.962738
0.962738
0.962738
0.962738
0.962738
0.962738
0.962738
0.962738
0.962738
0.962738
0.962738
0.962738
0.962738
0.962738
0.962738
0.962738
0.962738
0.962738
0.962738
0.962738
0.962738
0.962738
0.962738
0.962738
0.962738
0.962738
0.962738
0.962738
0.962738
0.962738
0.962738
0.962738
0.962737
0.962737
0.962737
0.962737
0.962737
0.962737
0.962737
0.962737
0.962739
0.96274
0.962764
0.962766
0.963156
0.963156
1
1
1.03305
1.06793
1.09683
1.11913
1.13537
1.14632
1.15296
1.15649
1.15808
1.15865
1.15878
1.15874
1.15869
1.15865
1.15864
1.15863
1.15863
1.15863
1.15863
1.15863
1.15863
1.15863
1.15863
1.15863
1.15863
1.15863
1.15863
1.15863
1.15863
1.15863
1.15863
1.15863
1.15863
1.15863
1.15863
1.15863
1.15863
1.15863
1.15863
1.15863
1.15863
1.15863
1.15863
1.15863
1.15863
1.15863
1.15863
1.15863
1.15863
1.15863
1.15863
1.15863
1.15863
1.15863
1.15863
1.15863
1.15863
1.15863
1.15863
1.15863
1.15863
1.15863
1.15863
1.15863
1.15863
1.15863
1.15863
1.15863
1.15863
1.15863
1.15863
1.15863
1.15863
1.15863
1.15863
1.15863
1.15863
1.15863
1.15863
1.15863
1.15863
1.15863
1.15863
1.15863
1.15863
1.15863
1.15863
1.15863
1.15863
1.15863
1.15863
1.15863
1.15863
1.15863
1.15863
1.15863
1.15862
1.15862
1.15851
1.15851
1
1
1.02626
1.0642
1.10189
1.13567
1.16367
1.18467
1.1986
1.20659
1.21046
1.21194
1.21231
1.21226
1.21213
1.21202
1.21197
1.21194
1.21193
1.21192
1.21192
1.21192
1.21192
1.21192
1.21192
1.21192
1.21192
1.21192
1.21192
1.21192
1.21192
1.21192
1.21192
1.21192
1.21192
1.21192
1.21192
1.21192
1.21192
1.21192
1.21192
1.21192
1.21192
1.21192
1.21192
1.21192
1.21192
1.21192
1.21192
1.21192
1.21192
1.21192
1.21192
1.21192
1.21192
1.21192
1.21192
1.21192
1.21192
1.21192
1.21192
1.21192
1.21192
1.21192
1.21192
1.21192
1.21192
1.21192
1.21192
1.21192
1.21192
1.21192
1.21192
1.21192
1.21192
1.21192
1.21192
1.21192
1.21192
1.21192
1.21192
1.21192
1.21192
1.21192
1.21192
1.21192
1.21192
1.21192
1.21192
1.21192
1.21192
1.21192
1.21192
1.21192
1.21192
1.21192
1.21191
1.21191
1.21188
1.21186
1.21151
1.21151
1
1
1.02254
1.05943
1.09807
1.1341
1.16498
1.18887
1.2052
1.21494
1.21995
1.22212
1.22286
1.22302
1.22299
1.22294
1.22291
1.22289
1.22288
1.22288
1.22288
1.22288
1.22288
1.22288
1.22288
1.22288
1.22288
1.22288
1.22288
1.22288
1.22288
1.22288
1.22288
1.22288
1.22288
1.22288
1.22288
1.22288
1.22288
1.22288
1.22288
1.22288
1.22288
1.22288
1.22288
1.22288
1.22288
1.22288
1.22288
1.22288
1.22288
1.22288
1.22288
1.22288
1.22288
1.22288
1.22288
1.22288
1.22288
1.22288
1.22288
1.22288
1.22288
1.22288
1.22288
1.22288
1.22288
1.22288
1.22288
1.22288
1.22288
1.22288
1.22288
1.22288
1.22288
1.22288
1.22288
1.22288
1.22288
1.22288
1.22288
1.22288
1.22288
1.22288
1.22288
1.22288
1.22288
1.22288
1.22288
1.22288
1.22288
1.22288
1.22288
1.22288
1.22288
1.22288
1.22287
1.22287
1.22284
1.2228
1.22239
1.22239
1
1
1.02254
1.05943
1.09807
1.1341
1.16498
1.18887
1.2052
1.21495
1.21995
1.22212
1.22286
1.22302
1.22299
1.22294
1.22291
1.22289
1.22288
1.22288
1.22288
1.22288
1.22288
1.22288
1.22288
1.22288
1.22288
1.22288
1.22288
1.22288
1.22288
1.22288
1.22288
1.22288
1.22288
1.22288
1.22288
1.22288
1.22288
1.22288
1.22288
1.22288
1.22288
1.22288
1.22288
1.22288
1.22288
1.22288
1.22288
1.22288
1.22288
1.22288
1.22288
1.22288
1.22288
1.22288
1.22288
1.22288
1.22288
1.22288
1.22288
1.22288
1.22288
1.22288
1.22288
1.22288
1.22288
1.22288
1.22288
1.22288
1.22288
1.22288
1.22288
1.22288
1.22288
1.22288
1.22288
1.22288
1.22288
1.22288
1.22288
1.22288
1.22288
1.22288
1.22288
1.22288
1.22288
1.22288
1.22288
1.22288
1.22288
1.22288
1.22288
1.22288
1.22288
1.22288
1.22287
1.22287
1.22284
1.2228
1.22239
1.22239
1
1
1.02626
1.0642
1.10189
1.13567
1.16367
1.18467
1.1986
1.20659
1.21046
1.21194
1.21231
1.21226
1.21213
1.21202
1.21197
1.21194
1.21193
1.21192
1.21192
1.21192
1.21192
1.21192
1.21192
1.21192
1.21192
1.21192
1.21192
1.21192
1.21192
1.21192
1.21192
1.21192
1.21192
1.21192
1.21192
1.21192
1.21192
1.21192
1.21192
1.21192
1.21192
1.21192
1.21192
1.21192
1.21192
1.21192
1.21192
1.21192
1.21192
1.21192
1.21192
1.21192
1.21192
1.21192
1.21192
1.21192
1.21192
1.21192
1.21192
1.21192
1.21192
1.21192
1.21192
1.21192
1.21192
1.21192
1.21192
1.21192
1.21192
1.21192
1.21192
1.21192
1.21192
1.21192
1.21192
1.21192
1.21192
1.21192
1.21192
1.21192
1.21192
1.21192
1.21192
1.21192
1.21192
1.21192
1.21192
1.21192
1.21192
1.21192
1.21192
1.21192
1.21192
1.21192
1.21191
1.21191
1.21188
1.21186
1.21151
1.21151
1
1
1.03305
1.06793
1.09683
1.11913
1.13537
1.14632
1.15296
1.15649
1.15808
1.15865
1.15878
1.15874
1.15869
1.15865
1.15864
1.15863
1.15863
1.15863
1.15863
1.15863
1.15863
1.15863
1.15863
1.15863
1.15863
1.15863
1.15863
1.15863
1.15863
1.15863
1.15863
1.15863
1.15863
1.15863
1.15863
1.15863
1.15863
1.15863
1.15863
1.15863
1.15863
1.15863
1.15863
1.15863
1.15863
1.15863
1.15863
1.15863
1.15863
1.15863
1.15863
1.15863
1.15863
1.15863
1.15863
1.15863
1.15863
1.15863
1.15863
1.15863
1.15863
1.15863
1.15863
1.15863
1.15863
1.15863
1.15863
1.15863
1.15863
1.15863
1.15863
1.15863
1.15863
1.15863
1.15863
1.15863
1.15863
1.15863
1.15863
1.15863
1.15863
1.15863
1.15863
1.15863
1.15863
1.15863
1.15863
1.15863
1.15863
1.15863
1.15863
1.15863
1.15863
1.15863
1.15863
1.15863
1.15862
1.15862
1.15851
1.15851
1
1
1.02799
1.03245
1.02459
1.01098
0.99594
0.982596
0.972711
0.966581
0.963476
0.962297
0.96209
0.962251
0.962448
0.962587
0.962667
0.962707
0.962724
0.962731
0.962734
0.962735
0.962735
0.962735
0.962736
0.962736
0.962736
0.962736
0.962736
0.962736
0.962736
0.962736
0.962736
0.962736
0.962736
0.962736
0.962736
0.962736
0.962736
0.962736
0.962736
0.962736
0.962737
0.962737
0.962737
0.962737
0.962737
0.962737
0.962737
0.962737
0.962737
0.962737
0.962737
0.962737
0.962737
0.962737
0.962737
0.962737
0.962737
0.962737
0.962737
0.962737
0.962737
0.962737
0.962737
0.962737
0.962737
0.962737
0.962737
0.962737
0.962737
0.962737
0.962737
0.962737
0.962737
0.962737
0.962737
0.962737
0.962737
0.962737
0.962737
0.962737
0.962737
0.962737
0.962737
0.962737
0.962737
0.962737
0.962736
0.962736
0.962736
0.962736
0.962736
0.962736
0.962736
0.962737
0.962738
0.962739
0.962764
0.962765
0.963155
0.963155
1
1
0.890166
0.775978
0.678615
0.600115
0.540045
0.497544
0.470526
0.455396
0.448036
0.444988
0.443964
0.443734
0.443749
0.443794
0.443821
0.443832
0.443837
0.443839
0.443839
0.443839
0.443839
0.443839
0.44384
0.44384
0.44384
0.44384
0.44384
0.44384
0.44384
0.44384
0.44384
0.44384
0.44384
0.44384
0.44384
0.44384
0.44384
0.44384
0.44384
0.44384
0.44384
0.44384
0.44384
0.44384
0.44384
0.44384
0.443841
0.443841
0.443841
0.443841
0.443841
0.443841
0.443841
0.443841
0.443841
0.443841
0.443841
0.443841
0.443841
0.443841
0.443841
0.443841
0.443841
0.443841
0.443841
0.443841
0.443841
0.443841
0.443841
0.443841
0.443841
0.443841
0.443841
0.443841
0.443841
0.443841
0.443841
0.443841
0.443841
0.443841
0.443841
0.443841
0.443841
0.443841
0.443841
0.443841
0.443841
0.443841
0.443841
0.443841
0.443841
0.443841
0.443841
0.443842
0.443845
0.44385
0.443895
0.44396
0.444441
0.444441
1
-1
-0.890166
-0.775978
-0.678615
-0.600115
-0.540045
-0.497544
-0.470526
-0.455396
-0.448036
-0.444988
-0.443964
-0.443734
-0.443749
-0.443794
-0.443821
-0.443832
-0.443837
-0.443839
-0.443839
-0.443839
-0.443839
-0.443839
-0.44384
-0.44384
-0.44384
-0.44384
-0.44384
-0.44384
-0.44384
-0.44384
-0.44384
-0.44384
-0.44384
-0.44384
-0.44384
-0.44384
-0.44384
-0.44384
-0.44384
-0.44384
-0.44384
-0.44384
-0.44384
-0.44384
-0.44384
-0.44384
-0.443841
-0.443841
-0.443841
-0.443841
-0.443841
-0.443841
-0.443841
-0.443841
-0.443841
-0.443841
-0.443841
-0.443841
-0.443841
-0.443841
-0.443841
-0.443841
-0.443841
-0.443841
-0.443841
-0.443841
-0.443841
-0.443841
-0.443841
-0.443841
-0.443841
-0.443841
-0.443841
-0.443841
-0.443841
-0.443841
-0.443841
-0.443841
-0.443841
-0.443841
-0.443841
-0.443841
-0.443841
-0.443841
-0.443841
-0.443841
-0.443841
-0.443841
-0.443841
-0.443841
-0.443841
-0.443841
-0.443841
-0.443842
-0.443845
-0.44385
-0.443895
-0.44396
-0.444441
-0.444441
-1
