# vtk DataFile Version 2.0
FlowField
ASCII
DATASET STRUCTURED_GRID
DIMENSIONS 102 1 12 
POINTS 1224 double
0 0 0
0.3 0 0
0.6 0 0
0.9 0 0
1.2 0 0
1.5 0 0
1.8 0 0
2.1 0 0
2.4 0 0
2.7 0 0
3 0 0
3.3 0 0
3.6 0 0
3.9 0 0
4.2 0 0
4.5 0 0
4.8 0 0
5.1 0 0
5.4 0 0
5.7 0 0
6 0 0
6.3 0 0
6.6 0 0
6.9 0 0
7.2 0 0
7.5 0 0
7.8 0 0
8.1 0 0
8.4 0 0
8.7 0 0
9 0 0
9.3 0 0
9.6 0 0
9.9 0 0
10.2 0 0
10.5 0 0
10.8 0 0
11.1 0 0
11.4 0 0
11.7 0 0
12 0 0
12.3 0 0
12.6 0 0
12.9 0 0
13.2 0 0
13.5 0 0
13.8 0 0
14.1 0 0
14.4 0 0
14.7 0 0
15 0 0
15.3 0 0
15.6 0 0
15.9 0 0
16.2 0 0
16.5 0 0
16.8 0 0
17.1 0 0
17.4 0 0
17.7 0 0
18 0 0
18.3 0 0
18.6 0 0
18.9 0 0
19.2 0 0
19.5 0 0
19.8 0 0
20.1 0 0
20.4 0 0
20.7 0 0
21 0 0
21.3 0 0
21.6 0 0
21.9 0 0
22.2 0 0
22.5 0 0
22.8 0 0
23.1 0 0
23.4 0 0
23.7 0 0
24 0 0
24.3 0 0
24.6 0 0
24.9 0 0
25.2 0 0
25.5 0 0
25.8 0 0
26.1 0 0
26.4 0 0
26.7 0 0
27 0 0
27.3 0 0
27.6 0 0
27.9 0 0
28.2 0 0
28.5 0 0
28.8 0 0
29.1 0 0
29.4 0 0
29.7 0 0
30 0 0
30.3 0 0
0 0.1 0
0.3 0.1 0
0.6 0.1 0
0.9 0.1 0
1.2 0.1 0
1.5 0.1 0
1.8 0.1 0
2.1 0.1 0
2.4 0.1 0
2.7 0.1 0
3 0.1 0
3.3 0.1 0
3.6 0.1 0
3.9 0.1 0
4.2 0.1 0
4.5 0.1 0
4.8 0.1 0
5.1 0.1 0
5.4 0.1 0
5.7 0.1 0
6 0.1 0
6.3 0.1 0
6.6 0.1 0
6.9 0.1 0
7.2 0.1 0
7.5 0.1 0
7.8 0.1 0
8.1 0.1 0
8.4 0.1 0
8.7 0.1 0
9 0.1 0
9.3 0.1 0
9.6 0.1 0
9.9 0.1 0
10.2 0.1 0
10.5 0.1 0
10.8 0.1 0
11.1 0.1 0
11.4 0.1 0
11.7 0.1 0
12 0.1 0
12.3 0.1 0
12.6 0.1 0
12.9 0.1 0
13.2 0.1 0
13.5 0.1 0
13.8 0.1 0
14.1 0.1 0
14.4 0.1 0
14.7 0.1 0
15 0.1 0
15.3 0.1 0
15.6 0.1 0
15.9 0.1 0
16.2 0.1 0
16.5 0.1 0
16.8 0.1 0
17.1 0.1 0
17.4 0.1 0
17.7 0.1 0
18 0.1 0
18.3 0.1 0
18.6 0.1 0
18.9 0.1 0
19.2 0.1 0
19.5 0.1 0
19.8 0.1 0
20.1 0.1 0
20.4 0.1 0
20.7 0.1 0
21 0.1 0
21.3 0.1 0
21.6 0.1 0
21.9 0.1 0
22.2 0.1 0
22.5 0.1 0
22.8 0.1 0
23.1 0.1 0
23.4 0.1 0
23.7 0.1 0
24 0.1 0
24.3 0.1 0
24.6 0.1 0
24.9 0.1 0
25.2 0.1 0
25.5 0.1 0
25.8 0.1 0
26.1 0.1 0
26.4 0.1 0
26.7 0.1 0
27 0.1 0
27.3 0.1 0
27.6 0.1 0
27.9 0.1 0
28.2 0.1 0
28.5 0.1 0
28.8 0.1 0
29.1 0.1 0
29.4 0.1 0
29.7 0.1 0
30 0.1 0
30.3 0.1 0
0 0.2 0
0.3 0.2 0
0.6 0.2 0
0.9 0.2 0
1.2 0.2 0
1.5 0.2 0
1.8 0.2 0
2.1 0.2 0
2.4 0.2 0
2.7 0.2 0
3 0.2 0
3.3 0.2 0
3.6 0.2 0
3.9 0.2 0
4.2 0.2 0
4.5 0.2 0
4.8 0.2 0
5.1 0.2 0
5.4 0.2 0
5.7 0.2 0
6 0.2 0
6.3 0.2 0
6.6 0.2 0
6.9 0.2 0
7.2 0.2 0
7.5 0.2 0
7.8 0.2 0
8.1 0.2 0
8.4 0.2 0
8.7 0.2 0
9 0.2 0
9.3 0.2 0
9.6 0.2 0
9.9 0.2 0
10.2 0.2 0
10.5 0.2 0
10.8 0.2 0
11.1 0.2 0
11.4 0.2 0
11.7 0.2 0
12 0.2 0
12.3 0.2 0
12.6 0.2 0
12.9 0.2 0
13.2 0.2 0
13.5 0.2 0
13.8 0.2 0
14.1 0.2 0
14.4 0.2 0
14.7 0.2 0
15 0.2 0
15.3 0.2 0
15.6 0.2 0
15.9 0.2 0
16.2 0.2 0
16.5 0.2 0
16.8 0.2 0
17.1 0.2 0
17.4 0.2 0
17.7 0.2 0
18 0.2 0
18.3 0.2 0
18.6 0.2 0
18.9 0.2 0
19.2 0.2 0
19.5 0.2 0
19.8 0.2 0
20.1 0.2 0
20.4 0.2 0
20.7 0.2 0
21 0.2 0
21.3 0.2 0
21.6 0.2 0
21.9 0.2 0
22.2 0.2 0
22.5 0.2 0
22.8 0.2 0
23.1 0.2 0
23.4 0.2 0
23.7 0.2 0
24 0.2 0
24.3 0.2 0
24.6 0.2 0
24.9 0.2 0
25.2 0.2 0
25.5 0.2 0
25.8 0.2 0
26.1 0.2 0
26.4 0.2 0
26.7 0.2 0
27 0.2 0
27.3 0.2 0
27.6 0.2 0
27.9 0.2 0
28.2 0.2 0
28.5 0.2 0
28.8 0.2 0
29.1 0.2 0
29.4 0.2 0
29.7 0.2 0
30 0.2 0
30.3 0.2 0
0 0.3 0
0.3 0.3 0
0.6 0.3 0
0.9 0.3 0
1.2 0.3 0
1.5 0.3 0
1.8 0.3 0
2.1 0.3 0
2.4 0.3 0
2.7 0.3 0
3 0.3 0
3.3 0.3 0
3.6 0.3 0
3.9 0.3 0
4.2 0.3 0
4.5 0.3 0
4.8 0.3 0
5.1 0.3 0
5.4 0.3 0
5.7 0.3 0
6 0.3 0
6.3 0.3 0
6.6 0.3 0
6.9 0.3 0
7.2 0.3 0
7.5 0.3 0
7.8 0.3 0
8.1 0.3 0
8.4 0.3 0
8.7 0.3 0
9 0.3 0
9.3 0.3 0
9.6 0.3 0
9.9 0.3 0
10.2 0.3 0
10.5 0.3 0
10.8 0.3 0
11.1 0.3 0
11.4 0.3 0
11.7 0.3 0
12 0.3 0
12.3 0.3 0
12.6 0.3 0
12.9 0.3 0
13.2 0.3 0
13.5 0.3 0
13.8 0.3 0
14.1 0.3 0
14.4 0.3 0
14.7 0.3 0
15 0.3 0
15.3 0.3 0
15.6 0.3 0
15.9 0.3 0
16.2 0.3 0
16.5 0.3 0
16.8 0.3 0
17.1 0.3 0
17.4 0.3 0
17.7 0.3 0
18 0.3 0
18.3 0.3 0
18.6 0.3 0
18.9 0.3 0
19.2 0.3 0
19.5 0.3 0
19.8 0.3 0
20.1 0.3 0
20.4 0.3 0
20.7 0.3 0
21 0.3 0
21.3 0.3 0
21.6 0.3 0
21.9 0.3 0
22.2 0.3 0
22.5 0.3 0
22.8 0.3 0
23.1 0.3 0
23.4 0.3 0
23.7 0.3 0
24 0.3 0
24.3 0.3 0
24.6 0.3 0
24.9 0.3 0
25.2 0.3 0
25.5 0.3 0
25.8 0.3 0
26.1 0.3 0
26.4 0.3 0
26.7 0.3 0
27 0.3 0
27.3 0.3 0
27.6 0.3 0
27.9 0.3 0
28.2 0.3 0
28.5 0.3 0
28.8 0.3 0
29.1 0.3 0
29.4 0.3 0
29.7 0.3 0
30 0.3 0
30.3 0.3 0
0 0.4 0
0.3 0.4 0
0.6 0.4 0
0.9 0.4 0
1.2 0.4 0
1.5 0.4 0
1.8 0.4 0
2.1 0.4 0
2.4 0.4 0
2.7 0.4 0
3 0.4 0
3.3 0.4 0
3.6 0.4 0
3.9 0.4 0
4.2 0.4 0
4.5 0.4 0
4.8 0.4 0
5.1 0.4 0
5.4 0.4 0
5.7 0.4 0
6 0.4 0
6.3 0.4 0
6.6 0.4 0
6.9 0.4 0
7.2 0.4 0
7.5 0.4 0
7.8 0.4 0
8.1 0.4 0
8.4 0.4 0
8.7 0.4 0
9 0.4 0
9.3 0.4 0
9.6 0.4 0
9.9 0.4 0
10.2 0.4 0
10.5 0.4 0
10.8 0.4 0
11.1 0.4 0
11.4 0.4 0
11.7 0.4 0
12 0.4 0
12.3 0.4 0
12.6 0.4 0
12.9 0.4 0
13.2 0.4 0
13.5 0.4 0
13.8 0.4 0
14.1 0.4 0
14.4 0.4 0
14.7 0.4 0
15 0.4 0
15.3 0.4 0
15.6 0.4 0
15.9 0.4 0
16.2 0.4 0
16.5 0.4 0
16.8 0.4 0
17.1 0.4 0
17.4 0.4 0
17.7 0.4 0
18 0.4 0
18.3 0.4 0
18.6 0.4 0
18.9 0.4 0
19.2 0.4 0
19.5 0.4 0
19.8 0.4 0
20.1 0.4 0
20.4 0.4 0
20.7 0.4 0
21 0.4 0
21.3 0.4 0
21.6 0.4 0
21.9 0.4 0
22.2 0.4 0
22.5 0.4 0
22.8 0.4 0
23.1 0.4 0
23.4 0.4 0
23.7 0.4 0
24 0.4 0
24.3 0.4 0
24.6 0.4 0
24.9 0.4 0
25.2 0.4 0
25.5 0.4 0
25.8 0.4 0
26.1 0.4 0
26.4 0.4 0
26.7 0.4 0
27 0.4 0
27.3 0.4 0
27.6 0.4 0
27.9 0.4 0
28.2 0.4 0
28.5 0.4 0
28.8 0.4 0
29.1 0.4 0
29.4 0.4 0
29.7 0.4 0
30 0.4 0
30.3 0.4 0
0 0.5 0
0.3 0.5 0
0.6 0.5 0
0.9 0.5 0
1.2 0.5 0
1.5 0.5 0
1.8 0.5 0
2.1 0.5 0
2.4 0.5 0
2.7 0.5 0
3 0.5 0
3.3 0.5 0
3.6 0.5 0
3.9 0.5 0
4.2 0.5 0
4.5 0.5 0
4.8 0.5 0
5.1 0.5 0
5.4 0.5 0
5.7 0.5 0
6 0.5 0
6.3 0.5 0
6.6 0.5 0
6.9 0.5 0
7.2 0.5 0
7.5 0.5 0
7.8 0.5 0
8.1 0.5 0
8.4 0.5 0
8.7 0.5 0
9 0.5 0
9.3 0.5 0
9.6 0.5 0
9.9 0.5 0
10.2 0.5 0
10.5 0.5 0
10.8 0.5 0
11.1 0.5 0
11.4 0.5 0
11.7 0.5 0
12 0.5 0
12.3 0.5 0
12.6 0.5 0
12.9 0.5 0
13.2 0.5 0
13.5 0.5 0
13.8 0.5 0
14.1 0.5 0
14.4 0.5 0
14.7 0.5 0
15 0.5 0
15.3 0.5 0
15.6 0.5 0
15.9 0.5 0
16.2 0.5 0
16.5 0.5 0
16.8 0.5 0
17.1 0.5 0
17.4 0.5 0
17.7 0.5 0
18 0.5 0
18.3 0.5 0
18.6 0.5 0
18.9 0.5 0
19.2 0.5 0
19.5 0.5 0
19.8 0.5 0
20.1 0.5 0
20.4 0.5 0
20.7 0.5 0
21 0.5 0
21.3 0.5 0
21.6 0.5 0
21.9 0.5 0
22.2 0.5 0
22.5 0.5 0
22.8 0.5 0
23.1 0.5 0
23.4 0.5 0
23.7 0.5 0
24 0.5 0
24.3 0.5 0
24.6 0.5 0
24.9 0.5 0
25.2 0.5 0
25.5 0.5 0
25.8 0.5 0
26.1 0.5 0
26.4 0.5 0
26.7 0.5 0
27 0.5 0
27.3 0.5 0
27.6 0.5 0
27.9 0.5 0
28.2 0.5 0
28.5 0.5 0
28.8 0.5 0
29.1 0.5 0
29.4 0.5 0
29.7 0.5 0
30 0.5 0
30.3 0.5 0
0 0.6 0
0.3 0.6 0
0.6 0.6 0
0.9 0.6 0
1.2 0.6 0
1.5 0.6 0
1.8 0.6 0
2.1 0.6 0
2.4 0.6 0
2.7 0.6 0
3 0.6 0
3.3 0.6 0
3.6 0.6 0
3.9 0.6 0
4.2 0.6 0
4.5 0.6 0
4.8 0.6 0
5.1 0.6 0
5.4 0.6 0
5.7 0.6 0
6 0.6 0
6.3 0.6 0
6.6 0.6 0
6.9 0.6 0
7.2 0.6 0
7.5 0.6 0
7.8 0.6 0
8.1 0.6 0
8.4 0.6 0
8.7 0.6 0
9 0.6 0
9.3 0.6 0
9.6 0.6 0
9.9 0.6 0
10.2 0.6 0
10.5 0.6 0
10.8 0.6 0
11.1 0.6 0
11.4 0.6 0
11.7 0.6 0
12 0.6 0
12.3 0.6 0
12.6 0.6 0
12.9 0.6 0
13.2 0.6 0
13.5 0.6 0
13.8 0.6 0
14.1 0.6 0
14.4 0.6 0
14.7 0.6 0
15 0.6 0
15.3 0.6 0
15.6 0.6 0
15.9 0.6 0
16.2 0.6 0
16.5 0.6 0
16.8 0.6 0
17.1 0.6 0
17.4 0.6 0
17.7 0.6 0
18 0.6 0
18.3 0.6 0
18.6 0.6 0
18.9 0.6 0
19.2 0.6 0
19.5 0.6 0
19.8 0.6 0
20.1 0.6 0
20.4 0.6 0
20.7 0.6 0
21 0.6 0
21.3 0.6 0
21.6 0.6 0
21.9 0.6 0
22.2 0.6 0
22.5 0.6 0
22.8 0.6 0
23.1 0.6 0
23.4 0.6 0
23.7 0.6 0
24 0.6 0
24.3 0.6 0
24.6 0.6 0
24.9 0.6 0
25.2 0.6 0
25.5 0.6 0
25.8 0.6 0
26.1 0.6 0
26.4 0.6 0
26.7 0.6 0
27 0.6 0
27.3 0.6 0
27.6 0.6 0
27.9 0.6 0
28.2 0.6 0
28.5 0.6 0
28.8 0.6 0
29.1 0.6 0
29.4 0.6 0
29.7 0.6 0
30 0.6 0
30.3 0.6 0
0 0.7 0
0.3 0.7 0
0.6 0.7 0
0.9 0.7 0
1.2 0.7 0
1.5 0.7 0
1.8 0.7 0
2.1 0.7 0
2.4 0.7 0
2.7 0.7 0
3 0.7 0
3.3 0.7 0
3.6 0.7 0
3.9 0.7 0
4.2 0.7 0
4.5 0.7 0
4.8 0.7 0
5.1 0.7 0
5.4 0.7 0
5.7 0.7 0
6 0.7 0
6.3 0.7 0
6.6 0.7 0
6.9 0.7 0
7.2 0.7 0
7.5 0.7 0
7.8 0.7 0
8.1 0.7 0
8.4 0.7 0
8.7 0.7 0
9 0.7 0
9.3 0.7 0
9.6 0.7 0
9.9 0.7 0
10.2 0.7 0
10.5 0.7 0
10.8 0.7 0
11.1 0.7 0
11.4 0.7 0
11.7 0.7 0
12 0.7 0
12.3 0.7 0
12.6 0.7 0
12.9 0.7 0
13.2 0.7 0
13.5 0.7 0
13.8 0.7 0
14.1 0.7 0
14.4 0.7 0
14.7 0.7 0
15 0.7 0
15.3 0.7 0
15.6 0.7 0
15.9 0.7 0
16.2 0.7 0
16.5 0.7 0
16.8 0.7 0
17.1 0.7 0
17.4 0.7 0
17.7 0.7 0
18 0.7 0
18.3 0.7 0
18.6 0.7 0
18.9 0.7 0
19.2 0.7 0
19.5 0.7 0
19.8 0.7 0
20.1 0.7 0
20.4 0.7 0
20.7 0.7 0
21 0.7 0
21.3 0.7 0
21.6 0.7 0
21.9 0.7 0
22.2 0.7 0
22.5 0.7 0
22.8 0.7 0
23.1 0.7 0
23.4 0.7 0
23.7 0.7 0
24 0.7 0
24.3 0.7 0
24.6 0.7 0
24.9 0.7 0
25.2 0.7 0
25.5 0.7 0
25.8 0.7 0
26.1 0.7 0
26.4 0.7 0
26.7 0.7 0
27 0.7 0
27.3 0.7 0
27.6 0.7 0
27.9 0.7 0
28.2 0.7 0
28.5 0.7 0
28.8 0.7 0
29.1 0.7 0
29.4 0.7 0
29.7 0.7 0
30 0.7 0
30.3 0.7 0
0 0.8 0
0.3 0.8 0
0.6 0.8 0
0.9 0.8 0
1.2 0.8 0
1.5 0.8 0
1.8 0.8 0
2.1 0.8 0
2.4 0.8 0
2.7 0.8 0
3 0.8 0
3.3 0.8 0
3.6 0.8 0
3.9 0.8 0
4.2 0.8 0
4.5 0.8 0
4.8 0.8 0
5.1 0.8 0
5.4 0.8 0
5.7 0.8 0
6 0.8 0
6.3 0.8 0
6.6 0.8 0
6.9 0.8 0
7.2 0.8 0
7.5 0.8 0
7.8 0.8 0
8.1 0.8 0
8.4 0.8 0
8.7 0.8 0
9 0.8 0
9.3 0.8 0
9.6 0.8 0
9.9 0.8 0
10.2 0.8 0
10.5 0.8 0
10.8 0.8 0
11.1 0.8 0
11.4 0.8 0
11.7 0.8 0
12 0.8 0
12.3 0.8 0
12.6 0.8 0
12.9 0.8 0
13.2 0.8 0
13.5 0.8 0
13.8 0.8 0
14.1 0.8 0
14.4 0.8 0
14.7 0.8 0
15 0.8 0
15.3 0.8 0
15.6 0.8 0
15.9 0.8 0
16.2 0.8 0
16.5 0.8 0
16.8 0.8 0
17.1 0.8 0
17.4 0.8 0
17.7 0.8 0
18 0.8 0
18.3 0.8 0
18.6 0.8 0
18.9 0.8 0
19.2 0.8 0
19.5 0.8 0
19.8 0.8 0
20.1 0.8 0
20.4 0.8 0
20.7 0.8 0
21 0.8 0
21.3 0.8 0
21.6 0.8 0
21.9 0.8 0
22.2 0.8 0
22.5 0.8 0
22.8 0.8 0
23.1 0.8 0
23.4 0.8 0
23.7 0.8 0
24 0.8 0
24.3 0.8 0
24.6 0.8 0
24.9 0.8 0
25.2 0.8 0
25.5 0.8 0
25.8 0.8 0
26.1 0.8 0
26.4 0.8 0
26.7 0.8 0
27 0.8 0
27.3 0.8 0
27.6 0.8 0
27.9 0.8 0
28.2 0.8 0
28.5 0.8 0
28.8 0.8 0
29.1 0.8 0
29.4 0.8 0
29.7 0.8 0
30 0.8 0
30.3 0.8 0
0 0.9 0
0.3 0.9 0
0.6 0.9 0
0.9 0.9 0
1.2 0.9 0
1.5 0.9 0
1.8 0.9 0
2.1 0.9 0
2.4 0.9 0
2.7 0.9 0
3 0.9 0
3.3 0.9 0
3.6 0.9 0
3.9 0.9 0
4.2 0.9 0
4.5 0.9 0
4.8 0.9 0
5.1 0.9 0
5.4 0.9 0
5.7 0.9 0
6 0.9 0
6.3 0.9 0
6.6 0.9 0
6.9 0.9 0
7.2 0.9 0
7.5 0.9 0
7.8 0.9 0
8.1 0.9 0
8.4 0.9 0
8.7 0.9 0
9 0.9 0
9.3 0.9 0
9.6 0.9 0
9.9 0.9 0
10.2 0.9 0
10.5 0.9 0
10.8 0.9 0
11.1 0.9 0
11.4 0.9 0
11.7 0.9 0
12 0.9 0
12.3 0.9 0
12.6 0.9 0
12.9 0.9 0
13.2 0.9 0
13.5 0.9 0
13.8 0.9 0
14.1 0.9 0
14.4 0.9 0
14.7 0.9 0
15 0.9 0
15.3 0.9 0
15.6 0.9 0
15.9 0.9 0
16.2 0.9 0
16.5 0.9 0
16.8 0.9 0
17.1 0.9 0
17.4 0.9 0
17.7 0.9 0
18 0.9 0
18.3 0.9 0
18.6 0.9 0
18.9 0.9 0
19.2 0.9 0
19.5 0.9 0
19.8 0.9 0
20.1 0.9 0
20.4 0.9 0
20.7 0.9 0
21 0.9 0
21.3 0.9 0
21.6 0.9 0
21.9 0.9 0
22.2 0.9 0
22.5 0.9 0
22.8 0.9 0
23.1 0.9 0
23.4 0.9 0
23.7 0.9 0
24 0.9 0
24.3 0.9 0
24.6 0.9 0
24.9 0.9 0
25.2 0.9 0
25.5 0.9 0
25.8 0.9 0
26.1 0.9 0
26.4 0.9 0
26.7 0.9 0
27 0.9 0
27.3 0.9 0
27.6 0.9 0
27.9 0.9 0
28.2 0.9 0
28.5 0.9 0
28.8 0.9 0
29.1 0.9 0
29.4 0.9 0
29.7 0.9 0
30 0.9 0
30.3 0.9 0
0 1 0
0.3 1 0
0.6 1 0
0.9 1 0
1.2 1 0
1.5 1 0
1.8 1 0
2.1 1 0
2.4 1 0
2.7 1 0
3 1 0
3.3 1 0
3.6 1 0
3.9 1 0
4.2 1 0
4.5 1 0
4.8 1 0
5.1 1 0
5.4 1 0
5.7 1 0
6 1 0
6.3 1 0
6.6 1 0
6.9 1 0
7.2 1 0
7.5 1 0
7.8 1 0
8.1 1 0
8.4 1 0
8.7 1 0
9 1 0
9.3 1 0
9.6 1 0
9.9 1 0
10.2 1 0
10.5 1 0
10.8 1 0
11.1 1 0
11.4 1 0
11.7 1 0
12 1 0
12.3 1 0
12.6 1 0
12.9 1 0
13.2 1 0
13.5 1 0
13.8 1 0
14.1 1 0
14.4 1 0
14.7 1 0
15 1 0
15.3 1 0
15.6 1 0
15.9 1 0
16.2 1 0
16.5 1 0
16.8 1 0
17.1 1 0
17.4 1 0
17.7 1 0
18 1 0
18.3 1 0
18.6 1 0
18.9 1 0
19.2 1 0
19.5 1 0
19.8 1 0
20.1 1 0
20.4 1 0
20.7 1 0
21 1 0
21.3 1 0
21.6 1 0
21.9 1 0
22.2 1 0
22.5 1 0
22.8 1 0
23.1 1 0
23.4 1 0
23.7 1 0
24 1 0
24.3 1 0
24.6 1 0
24.9 1 0
25.2 1 0
25.5 1 0
25.8 1 0
26.1 1 0
26.4 1 0
26.7 1 0
27 1 0
27.3 1 0
27.6 1 0
27.9 1 0
28.2 1 0
28.5 1 0
28.8 1 0
29.1 1 0
29.4 1 0
29.7 1 0
30 1 0
30.3 1 0
0 1.1 0
0.3 1.1 0
0.6 1.1 0
0.9 1.1 0
1.2 1.1 0
1.5 1.1 0
1.8 1.1 0
2.1 1.1 0
2.4 1.1 0
2.7 1.1 0
3 1.1 0
3.3 1.1 0
3.6 1.1 0
3.9 1.1 0
4.2 1.1 0
4.5 1.1 0
4.8 1.1 0
5.1 1.1 0
5.4 1.1 0
5.7 1.1 0
6 1.1 0
6.3 1.1 0
6.6 1.1 0
6.9 1.1 0
7.2 1.1 0
7.5 1.1 0
7.8 1.1 0
8.1 1.1 0
8.4 1.1 0
8.7 1.1 0
9 1.1 0
9.3 1.1 0
9.6 1.1 0
9.9 1.1 0
10.2 1.1 0
10.5 1.1 0
10.8 1.1 0
11.1 1.1 0
11.4 1.1 0
11.7 1.1 0
12 1.1 0
12.3 1.1 0
12.6 1.1 0
12.9 1.1 0
13.2 1.1 0
13.5 1.1 0
13.8 1.1 0
14.1 1.1 0
14.4 1.1 0
14.7 1.1 0
15 1.1 0
15.3 1.1 0
15.6 1.1 0
15.9 1.1 0
16.2 1.1 0
16.5 1.1 0
16.8 1.1 0
17.1 1.1 0
17.4 1.1 0
17.7 1.1 0
18 1.1 0
18.3 1.1 0
18.6 1.1 0
18.9 1.1 0
19.2 1.1 0
19.5 1.1 0
19.8 1.1 0
20.1 1.1 0
20.4 1.1 0
20.7 1.1 0
21 1.1 0
21.3 1.1 0
21.6 1.1 0
21.9 1.1 0
22.2 1.1 0
22.5 1.1 0
22.8 1.1 0
23.1 1.1 0
23.4 1.1 0
23.7 1.1 0
24 1.1 0
24.3 1.1 0
24.6 1.1 0
24.9 1.1 0
25.2 1.1 0
25.5 1.1 0
25.8 1.1 0
26.1 1.1 0
26.4 1.1 0
26.7 1.1 0
27 1.1 0
27.3 1.1 0
27.6 1.1 0
27.9 1.1 0
28.2 1.1 0
28.5 1.1 0
28.8 1.1 0
29.1 1.1 0
29.4 1.1 0
29.7 1.1 0
30 1.1 0
30.3 1.1 0

POINT_DATA 1224

SCALARS p double
LOOKUP_TABLE default
2.9264
2.9264
2.7965
2.71475
2.65491
2.60741
2.56448
2.52255
2.48066
2.43871
2.39672
2.35472
2.31272
2.27071
2.2287
2.1867
2.14469
2.10269
2.06068
2.01868
1.97667
1.93467
1.89266
1.85066
1.80865
1.76665
1.72464
1.68264
1.64063
1.59863
1.55662
1.51462
1.47261
1.43061
1.3886
1.3466
1.30459
1.26258
1.22058
1.17857
1.13657
1.09456
1.05256
1.01055
0.968546
0.92654
0.884534
0.842529
0.800523
0.758517
0.716511
0.674505
0.632498
0.590492
0.548486
0.506479
0.464473
0.422466
0.38046
0.338453
0.296446
0.254439
0.212432
0.170425
0.128417
0.0864098
0.0444022
0.00239442
-0.0396134
-0.0816214
-0.12363
-0.165638
-0.207646
-0.249655
-0.291664
-0.333672
-0.375681
-0.417691
-0.4597
-0.501709
-0.543719
-0.585729
-0.627739
-0.669749
-0.711759
-0.75377
-0.795781
-0.837792
-0.879803
-0.921814
-0.963825
-1.00584
-1.04785
-1.08986
-1.13187
-1.17389
-1.2159
-1.25792
-1.29998
-1.342
-1.38365
1.38365
2.9264
2.9264
2.7965
2.71475
2.65491
2.60741
2.56448
2.52255
2.48066
2.43871
2.39672
2.35472
2.31272
2.27071
2.2287
2.1867
2.14469
2.10269
2.06068
2.01868
1.97667
1.93467
1.89266
1.85066
1.80865
1.76665
1.72464
1.68264
1.64063
1.59863
1.55662
1.51462
1.47261
1.43061
1.3886
1.3466
1.30459
1.26258
1.22058
1.17857
1.13657
1.09456
1.05256
1.01055
0.968546
0.92654
0.884534
0.842529
0.800523
0.758517
0.716511
0.674505
0.632498
0.590492
0.548486
0.506479
0.464473
0.422466
0.38046
0.338453
0.296446
0.254439
0.212432
0.170425
0.128417
0.0864098
0.0444022
0.00239442
-0.0396134
-0.0816214
-0.12363
-0.165638
-0.207646
-0.249655
-0.291664
-0.333672
-0.375681
-0.417691
-0.4597
-0.501709
-0.543719
-0.585729
-0.627739
-0.669749
-0.711759
-0.75377
-0.795781
-0.837792
-0.879803
-0.921814
-0.963825
-1.00584
-1.04785
-1.08986
-1.13187
-1.17389
-1.2159
-1.25792
-1.29998
-1.342
-1.38365
1.38365
2.88822
2.88822
2.79461
2.71623
2.65615
2.60802
2.56471
2.52262
2.48068
2.43872
2.39672
2.35472
2.31272
2.27071
2.2287
2.1867
2.14469
2.10269
2.06068
2.01868
1.97667
1.93467
1.89266
1.85066
1.80865
1.76665
1.72464
1.68264
1.64063
1.59863
1.55662
1.51462
1.47261
1.43061
1.3886
1.3466
1.30459
1.26258
1.22058
1.17857
1.13657
1.09456
1.05256
1.01055
0.968546
0.92654
0.884534
0.842529
0.800523
0.758517
0.716511
0.674505
0.632498
0.590492
0.548486
0.506479
0.464473
0.422466
0.38046
0.338453
0.296446
0.254439
0.212432
0.170425
0.128417
0.0864097
0.0444021
0.00239441
-0.0396135
-0.0816214
-0.12363
-0.165638
-0.207646
-0.249655
-0.291664
-0.333672
-0.375681
-0.417691
-0.4597
-0.501709
-0.543719
-0.585729
-0.627739
-0.669749
-0.711759
-0.75377
-0.795781
-0.837792
-0.879803
-0.921814
-0.963825
-1.00584
-1.04785
-1.08986
-1.13187
-1.17389
-1.2159
-1.25791
-1.29995
-1.34193
-1.38368
1.38368
2.86123
2.86123
2.79219
2.71926
2.65891
2.60945
2.56525
2.52278
2.48072
2.43872
2.39672
2.35472
2.31272
2.27071
2.2287
2.1867
2.14469
2.10269
2.06068
2.01868
1.97667
1.93467
1.89266
1.85066
1.80865
1.76665
1.72464
1.68264
1.64063
1.59863
1.55662
1.51462
1.47261
1.43061
1.3886
1.3466
1.30459
1.26258
1.22058
1.17857
1.13657
1.09456
1.05256
1.01055
0.968546
0.92654
0.884534
0.842529
0.800523
0.758517
0.716511
0.674505
0.632498
0.590492
0.548486
0.506479
0.464473
0.422466
0.38046
0.338453
0.296446
0.254439
0.212432
0.170425
0.128417
0.0864097
0.0444021
0.00239437
-0.0396135
-0.0816215
-0.12363
-0.165638
-0.207646
-0.249655
-0.291664
-0.333672
-0.375681
-0.417691
-0.4597
-0.501709
-0.543719
-0.585729
-0.627739
-0.669749
-0.71176
-0.75377
-0.795781
-0.837792
-0.879803
-0.921814
-0.963825
-1.00584
-1.04785
-1.08986
-1.13187
-1.17389
-1.2159
-1.2579
-1.29989
-1.34172
-1.38364
1.38364
2.84494
2.84494
2.79005
2.72153
2.66116
2.61068
2.56573
2.52293
2.48076
2.43873
2.39672
2.35472
2.31272
2.27071
2.2287
2.1867
2.14469
2.10269
2.06068
2.01868
1.97667
1.93467
1.89266
1.85066
1.80865
1.76665
1.72464
1.68264
1.64063
1.59863
1.55662
1.51462
1.47261
1.43061
1.3886
1.3466
1.30459
1.26258
1.22058
1.17857
1.13657
1.09456
1.05256
1.01055
0.968546
0.92654
0.884534
0.842529
0.800523
0.758517
0.716511
0.674505
0.632498
0.590492
0.548486
0.506479
0.464473
0.422466
0.38046
0.338453
0.296446
0.254439
0.212432
0.170425
0.128417
0.0864097
0.0444021
0.00239434
-0.0396135
-0.0816215
-0.12363
-0.165638
-0.207646
-0.249655
-0.291664
-0.333672
-0.375682
-0.417691
-0.4597
-0.50171
-0.543719
-0.585729
-0.627739
-0.669749
-0.71176
-0.75377
-0.795781
-0.837792
-0.879803
-0.921814
-0.963825
-1.00584
-1.04785
-1.08986
-1.13187
-1.17388
-1.21589
-1.25789
-1.29984
-1.34156
-1.38359
1.38359
2.83733
2.83733
2.78883
2.72261
2.66232
2.61133
2.56599
2.52301
2.48078
2.43873
2.39672
2.35472
2.31272
2.27071
2.2287
2.1867
2.14469
2.10269
2.06068
2.01868
1.97667
1.93467
1.89266
1.85066
1.80865
1.76665
1.72464
1.68264
1.64063
1.59863
1.55662
1.51462
1.47261
1.43061
1.3886
1.3466
1.30459
1.26258
1.22058
1.17857
1.13657
1.09456
1.05256
1.01055
0.968546
0.92654
0.884534
0.842529
0.800523
0.758517
0.716511
0.674505
0.632498
0.590492
0.548486
0.506479
0.464473
0.422466
0.38046
0.338453
0.296446
0.254439
0.212432
0.170424
0.128417
0.0864096
0.044402
0.0023943
-0.0396136
-0.0816216
-0.12363
-0.165638
-0.207646
-0.249655
-0.291664
-0.333673
-0.375682
-0.417691
-0.4597
-0.50171
-0.543719
-0.585729
-0.627739
-0.669749
-0.71176
-0.75377
-0.795781
-0.837792
-0.879803
-0.921814
-0.963826
-1.00584
-1.04785
-1.08986
-1.13187
-1.17388
-1.21589
-1.25788
-1.29981
-1.34147
-1.38356
1.38356
2.83733
2.83733
2.78883
2.72261
2.66232
2.61133
2.56599
2.52301
2.48078
2.43873
2.39672
2.35472
2.31272
2.27071
2.2287
2.1867
2.14469
2.10269
2.06068
2.01868
1.97667
1.93467
1.89266
1.85066
1.80865
1.76665
1.72464
1.68264
1.64063
1.59863
1.55662
1.51462
1.47261
1.43061
1.3886
1.3466
1.30459
1.26258
1.22058
1.17857
1.13657
1.09456
1.05256
1.01055
0.968546
0.92654
0.884534
0.842529
0.800523
0.758517
0.716511
0.674505
0.632498
0.590492
0.548486
0.506479
0.464473
0.422466
0.38046
0.338453
0.296446
0.254439
0.212432
0.170424
0.128417
0.0864096
0.044402
0.00239425
-0.0396136
-0.0816216
-0.12363
-0.165638
-0.207646
-0.249655
-0.291664
-0.333673
-0.375682
-0.417691
-0.4597
-0.50171
-0.543719
-0.585729
-0.627739
-0.669749
-0.71176
-0.75377
-0.795781
-0.837792
-0.879803
-0.921814
-0.963826
-1.00584
-1.04785
-1.08986
-1.13187
-1.17388
-1.21589
-1.25788
-1.29981
-1.34147
-1.38356
1.38356
2.84494
2.84494
2.79005
2.72153
2.66116
2.61068
2.56573
2.52293
2.48076
2.43873
2.39672
2.35472
2.31272
2.27071
2.2287
2.1867
2.14469
2.10269
2.06068
2.01868
1.97667
1.93467
1.89266
1.85066
1.80865
1.76665
1.72464
1.68264
1.64063
1.59863
1.55662
1.51462
1.47261
1.43061
1.3886
1.3466
1.30459
1.26258
1.22058
1.17857
1.13657
1.09456
1.05256
1.01055
0.968546
0.92654
0.884534
0.842528
0.800523
0.758517
0.716511
0.674505
0.632498
0.590492
0.548486
0.506479
0.464473
0.422466
0.38046
0.338453
0.296446
0.254439
0.212432
0.170424
0.128417
0.0864095
0.0444019
0.00239421
-0.0396137
-0.0816217
-0.12363
-0.165638
-0.207646
-0.249655
-0.291664
-0.333673
-0.375682
-0.417691
-0.4597
-0.50171
-0.543719
-0.585729
-0.627739
-0.669749
-0.71176
-0.75377
-0.795781
-0.837792
-0.879803
-0.921814
-0.963826
-1.00584
-1.04785
-1.08986
-1.13187
-1.17388
-1.21589
-1.25789
-1.29984
-1.34156
-1.38359
1.38359
2.86123
2.86123
2.79219
2.71926
2.65891
2.60945
2.56525
2.52278
2.48072
2.43872
2.39672
2.35472
2.31272
2.27071
2.2287
2.1867
2.14469
2.10269
2.06068
2.01868
1.97667
1.93467
1.89266
1.85066
1.80865
1.76665
1.72464
1.68264
1.64063
1.59863
1.55662
1.51462
1.47261
1.43061
1.3886
1.3466
1.30459
1.26258
1.22058
1.17857
1.13657
1.09456
1.05256
1.01055
0.968546
0.92654
0.884534
0.842528
0.800523
0.758517
0.716511
0.674505
0.632498
0.590492
0.548486
0.506479
0.464473
0.422466
0.380459
0.338453
0.296446
0.254439
0.212432
0.170424
0.128417
0.0864095
0.0444019
0.00239416
-0.0396137
-0.0816217
-0.12363
-0.165638
-0.207647
-0.249655
-0.291664
-0.333673
-0.375682
-0.417691
-0.4597
-0.50171
-0.543719
-0.585729
-0.627739
-0.669749
-0.71176
-0.75377
-0.795781
-0.837792
-0.879803
-0.921814
-0.963826
-1.00584
-1.04785
-1.08986
-1.13187
-1.17389
-1.2159
-1.2579
-1.29989
-1.34173
-1.38364
1.38364
2.88822
2.88822
2.79461
2.71623
2.65615
2.60802
2.56471
2.52262
2.48068
2.43872
2.39672
2.35472
2.31272
2.27071
2.2287
2.1867
2.14469
2.10269
2.06068
2.01868
1.97667
1.93467
1.89266
1.85066
1.80865
1.76665
1.72464
1.68264
1.64063
1.59863
1.55662
1.51462
1.47261
1.43061
1.3886
1.3466
1.30459
1.26258
1.22058
1.17857
1.13657
1.09456
1.05256
1.01055
0.968546
0.92654
0.884534
0.842528
0.800523
0.758517
0.716511
0.674504
0.632498
0.590492
0.548486
0.506479
0.464473
0.422466
0.380459
0.338453
0.296446
0.254439
0.212432
0.170424
0.128417
0.0864095
0.0444018
0.00239411
-0.0396138
-0.0816218
-0.12363
-0.165638
-0.207647
-0.249655
-0.291664
-0.333673
-0.375682
-0.417691
-0.4597
-0.50171
-0.543719
-0.585729
-0.627739
-0.66975
-0.71176
-0.75377
-0.795781
-0.837792
-0.879803
-0.921814
-0.963826
-1.00584
-1.04785
-1.08986
-1.13187
-1.17389
-1.2159
-1.25791
-1.29995
-1.34193
-1.38368
1.38368
2.9264
2.9264
2.7965
2.71475
2.65491
2.60741
2.56448
2.52255
2.48066
2.43871
2.39672
2.35472
2.31272
2.27071
2.2287
2.1867
2.14469
2.10269
2.06068
2.01868
1.97667
1.93467
1.89266
1.85066
1.80865
1.76665
1.72464
1.68264
1.64063
1.59863
1.55662
1.51462
1.47261
1.43061
1.3886
1.3466
1.30459
1.26258
1.22058
1.17857
1.13657
1.09456
1.05256
1.01055
0.968546
0.92654
0.884534
0.842528
0.800523
0.758517
0.716511
0.674504
0.632498
0.590492
0.548486
0.506479
0.464473
0.422466
0.380459
0.338453
0.296446
0.254439
0.212432
0.170424
0.128417
0.0864094
0.0444018
0.00239407
-0.0396138
-0.0816218
-0.12363
-0.165638
-0.207647
-0.249655
-0.291664
-0.333673
-0.375682
-0.417691
-0.4597
-0.50171
-0.54372
-0.585729
-0.627739
-0.66975
-0.71176
-0.75377
-0.795781
-0.837792
-0.879803
-0.921814
-0.963826
-1.00584
-1.04785
-1.08986
-1.13187
-1.17389
-1.2159
-1.25792
-1.29998
-1.342
-1.38365
1.38365
2.9264
2.9264
2.7965
2.71475
2.65491
2.60741
2.56448
2.52255
2.48066
2.43871
2.39672
2.35472
2.31272
2.27071
2.2287
2.1867
2.14469
2.10269
2.06068
2.01868
1.97667
1.93467
1.89266
1.85066
1.80865
1.76665
1.72464
1.68264
1.64063
1.59863
1.55662
1.51462
1.47261
1.43061
1.3886
1.3466
1.30459
1.26258
1.22058
1.17857
1.13657
1.09456
1.05256
1.01055
0.968546
0.92654
0.884534
0.842528
0.800523
0.758517
0.716511
0.674504
0.632498
0.590492
0.548486
0.506479
0.464473
0.422466
0.380459
0.338453
0.296446
0.254439
0.212432
0.170424
0.128417
0.0864094
0.0444018
0.00239407
-0.0396138
-0.0816218
-0.12363
-0.165638
-0.207647
-0.249655
-0.291664
-0.333673
-0.375682
-0.417691
-0.4597
-0.50171
-0.54372
-0.585729
-0.627739
-0.66975
-0.71176
-0.75377
-0.795781
-0.837792
-0.879803
-0.921814
-0.963826
-1.00584
-1.04785
-1.08986
-1.13187
-1.17389
-1.2159
-1.25792
-1.29998
-1.342
-1.38365
1.38365
