# vtk DataFile Version 2.0
FlowField
ASCII
DATASET STRUCTURED_GRID
DIMENSIONS 102 1 12 
POINTS 1224 double
0 0 0
0.3 0 0
0.6 0 0
0.9 0 0
1.2 0 0
1.5 0 0
1.8 0 0
2.1 0 0
2.4 0 0
2.7 0 0
3 0 0
3.3 0 0
3.6 0 0
3.9 0 0
4.2 0 0
4.5 0 0
4.8 0 0
5.1 0 0
5.4 0 0
5.7 0 0
6 0 0
6.3 0 0
6.6 0 0
6.9 0 0
7.2 0 0
7.5 0 0
7.8 0 0
8.1 0 0
8.4 0 0
8.7 0 0
9 0 0
9.3 0 0
9.6 0 0
9.9 0 0
10.2 0 0
10.5 0 0
10.8 0 0
11.1 0 0
11.4 0 0
11.7 0 0
12 0 0
12.3 0 0
12.6 0 0
12.9 0 0
13.2 0 0
13.5 0 0
13.8 0 0
14.1 0 0
14.4 0 0
14.7 0 0
15 0 0
15.3 0 0
15.6 0 0
15.9 0 0
16.2 0 0
16.5 0 0
16.8 0 0
17.1 0 0
17.4 0 0
17.7 0 0
18 0 0
18.3 0 0
18.6 0 0
18.9 0 0
19.2 0 0
19.5 0 0
19.8 0 0
20.1 0 0
20.4 0 0
20.7 0 0
21 0 0
21.3 0 0
21.6 0 0
21.9 0 0
22.2 0 0
22.5 0 0
22.8 0 0
23.1 0 0
23.4 0 0
23.7 0 0
24 0 0
24.3 0 0
24.6 0 0
24.9 0 0
25.2 0 0
25.5 0 0
25.8 0 0
26.1 0 0
26.4 0 0
26.7 0 0
27 0 0
27.3 0 0
27.6 0 0
27.9 0 0
28.2 0 0
28.5 0 0
28.8 0 0
29.1 0 0
29.4 0 0
29.7 0 0
30 0 0
30.3 0 0
0 0.1 0
0.3 0.1 0
0.6 0.1 0
0.9 0.1 0
1.2 0.1 0
1.5 0.1 0
1.8 0.1 0
2.1 0.1 0
2.4 0.1 0
2.7 0.1 0
3 0.1 0
3.3 0.1 0
3.6 0.1 0
3.9 0.1 0
4.2 0.1 0
4.5 0.1 0
4.8 0.1 0
5.1 0.1 0
5.4 0.1 0
5.7 0.1 0
6 0.1 0
6.3 0.1 0
6.6 0.1 0
6.9 0.1 0
7.2 0.1 0
7.5 0.1 0
7.8 0.1 0
8.1 0.1 0
8.4 0.1 0
8.7 0.1 0
9 0.1 0
9.3 0.1 0
9.6 0.1 0
9.9 0.1 0
10.2 0.1 0
10.5 0.1 0
10.8 0.1 0
11.1 0.1 0
11.4 0.1 0
11.7 0.1 0
12 0.1 0
12.3 0.1 0
12.6 0.1 0
12.9 0.1 0
13.2 0.1 0
13.5 0.1 0
13.8 0.1 0
14.1 0.1 0
14.4 0.1 0
14.7 0.1 0
15 0.1 0
15.3 0.1 0
15.6 0.1 0
15.9 0.1 0
16.2 0.1 0
16.5 0.1 0
16.8 0.1 0
17.1 0.1 0
17.4 0.1 0
17.7 0.1 0
18 0.1 0
18.3 0.1 0
18.6 0.1 0
18.9 0.1 0
19.2 0.1 0
19.5 0.1 0
19.8 0.1 0
20.1 0.1 0
20.4 0.1 0
20.7 0.1 0
21 0.1 0
21.3 0.1 0
21.6 0.1 0
21.9 0.1 0
22.2 0.1 0
22.5 0.1 0
22.8 0.1 0
23.1 0.1 0
23.4 0.1 0
23.7 0.1 0
24 0.1 0
24.3 0.1 0
24.6 0.1 0
24.9 0.1 0
25.2 0.1 0
25.5 0.1 0
25.8 0.1 0
26.1 0.1 0
26.4 0.1 0
26.7 0.1 0
27 0.1 0
27.3 0.1 0
27.6 0.1 0
27.9 0.1 0
28.2 0.1 0
28.5 0.1 0
28.8 0.1 0
29.1 0.1 0
29.4 0.1 0
29.7 0.1 0
30 0.1 0
30.3 0.1 0
0 0.2 0
0.3 0.2 0
0.6 0.2 0
0.9 0.2 0
1.2 0.2 0
1.5 0.2 0
1.8 0.2 0
2.1 0.2 0
2.4 0.2 0
2.7 0.2 0
3 0.2 0
3.3 0.2 0
3.6 0.2 0
3.9 0.2 0
4.2 0.2 0
4.5 0.2 0
4.8 0.2 0
5.1 0.2 0
5.4 0.2 0
5.7 0.2 0
6 0.2 0
6.3 0.2 0
6.6 0.2 0
6.9 0.2 0
7.2 0.2 0
7.5 0.2 0
7.8 0.2 0
8.1 0.2 0
8.4 0.2 0
8.7 0.2 0
9 0.2 0
9.3 0.2 0
9.6 0.2 0
9.9 0.2 0
10.2 0.2 0
10.5 0.2 0
10.8 0.2 0
11.1 0.2 0
11.4 0.2 0
11.7 0.2 0
12 0.2 0
12.3 0.2 0
12.6 0.2 0
12.9 0.2 0
13.2 0.2 0
13.5 0.2 0
13.8 0.2 0
14.1 0.2 0
14.4 0.2 0
14.7 0.2 0
15 0.2 0
15.3 0.2 0
15.6 0.2 0
15.9 0.2 0
16.2 0.2 0
16.5 0.2 0
16.8 0.2 0
17.1 0.2 0
17.4 0.2 0
17.7 0.2 0
18 0.2 0
18.3 0.2 0
18.6 0.2 0
18.9 0.2 0
19.2 0.2 0
19.5 0.2 0
19.8 0.2 0
20.1 0.2 0
20.4 0.2 0
20.7 0.2 0
21 0.2 0
21.3 0.2 0
21.6 0.2 0
21.9 0.2 0
22.2 0.2 0
22.5 0.2 0
22.8 0.2 0
23.1 0.2 0
23.4 0.2 0
23.7 0.2 0
24 0.2 0
24.3 0.2 0
24.6 0.2 0
24.9 0.2 0
25.2 0.2 0
25.5 0.2 0
25.8 0.2 0
26.1 0.2 0
26.4 0.2 0
26.7 0.2 0
27 0.2 0
27.3 0.2 0
27.6 0.2 0
27.9 0.2 0
28.2 0.2 0
28.5 0.2 0
28.8 0.2 0
29.1 0.2 0
29.4 0.2 0
29.7 0.2 0
30 0.2 0
30.3 0.2 0
0 0.3 0
0.3 0.3 0
0.6 0.3 0
0.9 0.3 0
1.2 0.3 0
1.5 0.3 0
1.8 0.3 0
2.1 0.3 0
2.4 0.3 0
2.7 0.3 0
3 0.3 0
3.3 0.3 0
3.6 0.3 0
3.9 0.3 0
4.2 0.3 0
4.5 0.3 0
4.8 0.3 0
5.1 0.3 0
5.4 0.3 0
5.7 0.3 0
6 0.3 0
6.3 0.3 0
6.6 0.3 0
6.9 0.3 0
7.2 0.3 0
7.5 0.3 0
7.8 0.3 0
8.1 0.3 0
8.4 0.3 0
8.7 0.3 0
9 0.3 0
9.3 0.3 0
9.6 0.3 0
9.9 0.3 0
10.2 0.3 0
10.5 0.3 0
10.8 0.3 0
11.1 0.3 0
11.4 0.3 0
11.7 0.3 0
12 0.3 0
12.3 0.3 0
12.6 0.3 0
12.9 0.3 0
13.2 0.3 0
13.5 0.3 0
13.8 0.3 0
14.1 0.3 0
14.4 0.3 0
14.7 0.3 0
15 0.3 0
15.3 0.3 0
15.6 0.3 0
15.9 0.3 0
16.2 0.3 0
16.5 0.3 0
16.8 0.3 0
17.1 0.3 0
17.4 0.3 0
17.7 0.3 0
18 0.3 0
18.3 0.3 0
18.6 0.3 0
18.9 0.3 0
19.2 0.3 0
19.5 0.3 0
19.8 0.3 0
20.1 0.3 0
20.4 0.3 0
20.7 0.3 0
21 0.3 0
21.3 0.3 0
21.6 0.3 0
21.9 0.3 0
22.2 0.3 0
22.5 0.3 0
22.8 0.3 0
23.1 0.3 0
23.4 0.3 0
23.7 0.3 0
24 0.3 0
24.3 0.3 0
24.6 0.3 0
24.9 0.3 0
25.2 0.3 0
25.5 0.3 0
25.8 0.3 0
26.1 0.3 0
26.4 0.3 0
26.7 0.3 0
27 0.3 0
27.3 0.3 0
27.6 0.3 0
27.9 0.3 0
28.2 0.3 0
28.5 0.3 0
28.8 0.3 0
29.1 0.3 0
29.4 0.3 0
29.7 0.3 0
30 0.3 0
30.3 0.3 0
0 0.4 0
0.3 0.4 0
0.6 0.4 0
0.9 0.4 0
1.2 0.4 0
1.5 0.4 0
1.8 0.4 0
2.1 0.4 0
2.4 0.4 0
2.7 0.4 0
3 0.4 0
3.3 0.4 0
3.6 0.4 0
3.9 0.4 0
4.2 0.4 0
4.5 0.4 0
4.8 0.4 0
5.1 0.4 0
5.4 0.4 0
5.7 0.4 0
6 0.4 0
6.3 0.4 0
6.6 0.4 0
6.9 0.4 0
7.2 0.4 0
7.5 0.4 0
7.8 0.4 0
8.1 0.4 0
8.4 0.4 0
8.7 0.4 0
9 0.4 0
9.3 0.4 0
9.6 0.4 0
9.9 0.4 0
10.2 0.4 0
10.5 0.4 0
10.8 0.4 0
11.1 0.4 0
11.4 0.4 0
11.7 0.4 0
12 0.4 0
12.3 0.4 0
12.6 0.4 0
12.9 0.4 0
13.2 0.4 0
13.5 0.4 0
13.8 0.4 0
14.1 0.4 0
14.4 0.4 0
14.7 0.4 0
15 0.4 0
15.3 0.4 0
15.6 0.4 0
15.9 0.4 0
16.2 0.4 0
16.5 0.4 0
16.8 0.4 0
17.1 0.4 0
17.4 0.4 0
17.7 0.4 0
18 0.4 0
18.3 0.4 0
18.6 0.4 0
18.9 0.4 0
19.2 0.4 0
19.5 0.4 0
19.8 0.4 0
20.1 0.4 0
20.4 0.4 0
20.7 0.4 0
21 0.4 0
21.3 0.4 0
21.6 0.4 0
21.9 0.4 0
22.2 0.4 0
22.5 0.4 0
22.8 0.4 0
23.1 0.4 0
23.4 0.4 0
23.7 0.4 0
24 0.4 0
24.3 0.4 0
24.6 0.4 0
24.9 0.4 0
25.2 0.4 0
25.5 0.4 0
25.8 0.4 0
26.1 0.4 0
26.4 0.4 0
26.7 0.4 0
27 0.4 0
27.3 0.4 0
27.6 0.4 0
27.9 0.4 0
28.2 0.4 0
28.5 0.4 0
28.8 0.4 0
29.1 0.4 0
29.4 0.4 0
29.7 0.4 0
30 0.4 0
30.3 0.4 0
0 0.5 0
0.3 0.5 0
0.6 0.5 0
0.9 0.5 0
1.2 0.5 0
1.5 0.5 0
1.8 0.5 0
2.1 0.5 0
2.4 0.5 0
2.7 0.5 0
3 0.5 0
3.3 0.5 0
3.6 0.5 0
3.9 0.5 0
4.2 0.5 0
4.5 0.5 0
4.8 0.5 0
5.1 0.5 0
5.4 0.5 0
5.7 0.5 0
6 0.5 0
6.3 0.5 0
6.6 0.5 0
6.9 0.5 0
7.2 0.5 0
7.5 0.5 0
7.8 0.5 0
8.1 0.5 0
8.4 0.5 0
8.7 0.5 0
9 0.5 0
9.3 0.5 0
9.6 0.5 0
9.9 0.5 0
10.2 0.5 0
10.5 0.5 0
10.8 0.5 0
11.1 0.5 0
11.4 0.5 0
11.7 0.5 0
12 0.5 0
12.3 0.5 0
12.6 0.5 0
12.9 0.5 0
13.2 0.5 0
13.5 0.5 0
13.8 0.5 0
14.1 0.5 0
14.4 0.5 0
14.7 0.5 0
15 0.5 0
15.3 0.5 0
15.6 0.5 0
15.9 0.5 0
16.2 0.5 0
16.5 0.5 0
16.8 0.5 0
17.1 0.5 0
17.4 0.5 0
17.7 0.5 0
18 0.5 0
18.3 0.5 0
18.6 0.5 0
18.9 0.5 0
19.2 0.5 0
19.5 0.5 0
19.8 0.5 0
20.1 0.5 0
20.4 0.5 0
20.7 0.5 0
21 0.5 0
21.3 0.5 0
21.6 0.5 0
21.9 0.5 0
22.2 0.5 0
22.5 0.5 0
22.8 0.5 0
23.1 0.5 0
23.4 0.5 0
23.7 0.5 0
24 0.5 0
24.3 0.5 0
24.6 0.5 0
24.9 0.5 0
25.2 0.5 0
25.5 0.5 0
25.8 0.5 0
26.1 0.5 0
26.4 0.5 0
26.7 0.5 0
27 0.5 0
27.3 0.5 0
27.6 0.5 0
27.9 0.5 0
28.2 0.5 0
28.5 0.5 0
28.8 0.5 0
29.1 0.5 0
29.4 0.5 0
29.7 0.5 0
30 0.5 0
30.3 0.5 0
0 0.6 0
0.3 0.6 0
0.6 0.6 0
0.9 0.6 0
1.2 0.6 0
1.5 0.6 0
1.8 0.6 0
2.1 0.6 0
2.4 0.6 0
2.7 0.6 0
3 0.6 0
3.3 0.6 0
3.6 0.6 0
3.9 0.6 0
4.2 0.6 0
4.5 0.6 0
4.8 0.6 0
5.1 0.6 0
5.4 0.6 0
5.7 0.6 0
6 0.6 0
6.3 0.6 0
6.6 0.6 0
6.9 0.6 0
7.2 0.6 0
7.5 0.6 0
7.8 0.6 0
8.1 0.6 0
8.4 0.6 0
8.7 0.6 0
9 0.6 0
9.3 0.6 0
9.6 0.6 0
9.9 0.6 0
10.2 0.6 0
10.5 0.6 0
10.8 0.6 0
11.1 0.6 0
11.4 0.6 0
11.7 0.6 0
12 0.6 0
12.3 0.6 0
12.6 0.6 0
12.9 0.6 0
13.2 0.6 0
13.5 0.6 0
13.8 0.6 0
14.1 0.6 0
14.4 0.6 0
14.7 0.6 0
15 0.6 0
15.3 0.6 0
15.6 0.6 0
15.9 0.6 0
16.2 0.6 0
16.5 0.6 0
16.8 0.6 0
17.1 0.6 0
17.4 0.6 0
17.7 0.6 0
18 0.6 0
18.3 0.6 0
18.6 0.6 0
18.9 0.6 0
19.2 0.6 0
19.5 0.6 0
19.8 0.6 0
20.1 0.6 0
20.4 0.6 0
20.7 0.6 0
21 0.6 0
21.3 0.6 0
21.6 0.6 0
21.9 0.6 0
22.2 0.6 0
22.5 0.6 0
22.8 0.6 0
23.1 0.6 0
23.4 0.6 0
23.7 0.6 0
24 0.6 0
24.3 0.6 0
24.6 0.6 0
24.9 0.6 0
25.2 0.6 0
25.5 0.6 0
25.8 0.6 0
26.1 0.6 0
26.4 0.6 0
26.7 0.6 0
27 0.6 0
27.3 0.6 0
27.6 0.6 0
27.9 0.6 0
28.2 0.6 0
28.5 0.6 0
28.8 0.6 0
29.1 0.6 0
29.4 0.6 0
29.7 0.6 0
30 0.6 0
30.3 0.6 0
0 0.7 0
0.3 0.7 0
0.6 0.7 0
0.9 0.7 0
1.2 0.7 0
1.5 0.7 0
1.8 0.7 0
2.1 0.7 0
2.4 0.7 0
2.7 0.7 0
3 0.7 0
3.3 0.7 0
3.6 0.7 0
3.9 0.7 0
4.2 0.7 0
4.5 0.7 0
4.8 0.7 0
5.1 0.7 0
5.4 0.7 0
5.7 0.7 0
6 0.7 0
6.3 0.7 0
6.6 0.7 0
6.9 0.7 0
7.2 0.7 0
7.5 0.7 0
7.8 0.7 0
8.1 0.7 0
8.4 0.7 0
8.7 0.7 0
9 0.7 0
9.3 0.7 0
9.6 0.7 0
9.9 0.7 0
10.2 0.7 0
10.5 0.7 0
10.8 0.7 0
11.1 0.7 0
11.4 0.7 0
11.7 0.7 0
12 0.7 0
12.3 0.7 0
12.6 0.7 0
12.9 0.7 0
13.2 0.7 0
13.5 0.7 0
13.8 0.7 0
14.1 0.7 0
14.4 0.7 0
14.7 0.7 0
15 0.7 0
15.3 0.7 0
15.6 0.7 0
15.9 0.7 0
16.2 0.7 0
16.5 0.7 0
16.8 0.7 0
17.1 0.7 0
17.4 0.7 0
17.7 0.7 0
18 0.7 0
18.3 0.7 0
18.6 0.7 0
18.9 0.7 0
19.2 0.7 0
19.5 0.7 0
19.8 0.7 0
20.1 0.7 0
20.4 0.7 0
20.7 0.7 0
21 0.7 0
21.3 0.7 0
21.6 0.7 0
21.9 0.7 0
22.2 0.7 0
22.5 0.7 0
22.8 0.7 0
23.1 0.7 0
23.4 0.7 0
23.7 0.7 0
24 0.7 0
24.3 0.7 0
24.6 0.7 0
24.9 0.7 0
25.2 0.7 0
25.5 0.7 0
25.8 0.7 0
26.1 0.7 0
26.4 0.7 0
26.7 0.7 0
27 0.7 0
27.3 0.7 0
27.6 0.7 0
27.9 0.7 0
28.2 0.7 0
28.5 0.7 0
28.8 0.7 0
29.1 0.7 0
29.4 0.7 0
29.7 0.7 0
30 0.7 0
30.3 0.7 0
0 0.8 0
0.3 0.8 0
0.6 0.8 0
0.9 0.8 0
1.2 0.8 0
1.5 0.8 0
1.8 0.8 0
2.1 0.8 0
2.4 0.8 0
2.7 0.8 0
3 0.8 0
3.3 0.8 0
3.6 0.8 0
3.9 0.8 0
4.2 0.8 0
4.5 0.8 0
4.8 0.8 0
5.1 0.8 0
5.4 0.8 0
5.7 0.8 0
6 0.8 0
6.3 0.8 0
6.6 0.8 0
6.9 0.8 0
7.2 0.8 0
7.5 0.8 0
7.8 0.8 0
8.1 0.8 0
8.4 0.8 0
8.7 0.8 0
9 0.8 0
9.3 0.8 0
9.6 0.8 0
9.9 0.8 0
10.2 0.8 0
10.5 0.8 0
10.8 0.8 0
11.1 0.8 0
11.4 0.8 0
11.7 0.8 0
12 0.8 0
12.3 0.8 0
12.6 0.8 0
12.9 0.8 0
13.2 0.8 0
13.5 0.8 0
13.8 0.8 0
14.1 0.8 0
14.4 0.8 0
14.7 0.8 0
15 0.8 0
15.3 0.8 0
15.6 0.8 0
15.9 0.8 0
16.2 0.8 0
16.5 0.8 0
16.8 0.8 0
17.1 0.8 0
17.4 0.8 0
17.7 0.8 0
18 0.8 0
18.3 0.8 0
18.6 0.8 0
18.9 0.8 0
19.2 0.8 0
19.5 0.8 0
19.8 0.8 0
20.1 0.8 0
20.4 0.8 0
20.7 0.8 0
21 0.8 0
21.3 0.8 0
21.6 0.8 0
21.9 0.8 0
22.2 0.8 0
22.5 0.8 0
22.8 0.8 0
23.1 0.8 0
23.4 0.8 0
23.7 0.8 0
24 0.8 0
24.3 0.8 0
24.6 0.8 0
24.9 0.8 0
25.2 0.8 0
25.5 0.8 0
25.8 0.8 0
26.1 0.8 0
26.4 0.8 0
26.7 0.8 0
27 0.8 0
27.3 0.8 0
27.6 0.8 0
27.9 0.8 0
28.2 0.8 0
28.5 0.8 0
28.8 0.8 0
29.1 0.8 0
29.4 0.8 0
29.7 0.8 0
30 0.8 0
30.3 0.8 0
0 0.9 0
0.3 0.9 0
0.6 0.9 0
0.9 0.9 0
1.2 0.9 0
1.5 0.9 0
1.8 0.9 0
2.1 0.9 0
2.4 0.9 0
2.7 0.9 0
3 0.9 0
3.3 0.9 0
3.6 0.9 0
3.9 0.9 0
4.2 0.9 0
4.5 0.9 0
4.8 0.9 0
5.1 0.9 0
5.4 0.9 0
5.7 0.9 0
6 0.9 0
6.3 0.9 0
6.6 0.9 0
6.9 0.9 0
7.2 0.9 0
7.5 0.9 0
7.8 0.9 0
8.1 0.9 0
8.4 0.9 0
8.7 0.9 0
9 0.9 0
9.3 0.9 0
9.6 0.9 0
9.9 0.9 0
10.2 0.9 0
10.5 0.9 0
10.8 0.9 0
11.1 0.9 0
11.4 0.9 0
11.7 0.9 0
12 0.9 0
12.3 0.9 0
12.6 0.9 0
12.9 0.9 0
13.2 0.9 0
13.5 0.9 0
13.8 0.9 0
14.1 0.9 0
14.4 0.9 0
14.7 0.9 0
15 0.9 0
15.3 0.9 0
15.6 0.9 0
15.9 0.9 0
16.2 0.9 0
16.5 0.9 0
16.8 0.9 0
17.1 0.9 0
17.4 0.9 0
17.7 0.9 0
18 0.9 0
18.3 0.9 0
18.6 0.9 0
18.9 0.9 0
19.2 0.9 0
19.5 0.9 0
19.8 0.9 0
20.1 0.9 0
20.4 0.9 0
20.7 0.9 0
21 0.9 0
21.3 0.9 0
21.6 0.9 0
21.9 0.9 0
22.2 0.9 0
22.5 0.9 0
22.8 0.9 0
23.1 0.9 0
23.4 0.9 0
23.7 0.9 0
24 0.9 0
24.3 0.9 0
24.6 0.9 0
24.9 0.9 0
25.2 0.9 0
25.5 0.9 0
25.8 0.9 0
26.1 0.9 0
26.4 0.9 0
26.7 0.9 0
27 0.9 0
27.3 0.9 0
27.6 0.9 0
27.9 0.9 0
28.2 0.9 0
28.5 0.9 0
28.8 0.9 0
29.1 0.9 0
29.4 0.9 0
29.7 0.9 0
30 0.9 0
30.3 0.9 0
0 1 0
0.3 1 0
0.6 1 0
0.9 1 0
1.2 1 0
1.5 1 0
1.8 1 0
2.1 1 0
2.4 1 0
2.7 1 0
3 1 0
3.3 1 0
3.6 1 0
3.9 1 0
4.2 1 0
4.5 1 0
4.8 1 0
5.1 1 0
5.4 1 0
5.7 1 0
6 1 0
6.3 1 0
6.6 1 0
6.9 1 0
7.2 1 0
7.5 1 0
7.8 1 0
8.1 1 0
8.4 1 0
8.7 1 0
9 1 0
9.3 1 0
9.6 1 0
9.9 1 0
10.2 1 0
10.5 1 0
10.8 1 0
11.1 1 0
11.4 1 0
11.7 1 0
12 1 0
12.3 1 0
12.6 1 0
12.9 1 0
13.2 1 0
13.5 1 0
13.8 1 0
14.1 1 0
14.4 1 0
14.7 1 0
15 1 0
15.3 1 0
15.6 1 0
15.9 1 0
16.2 1 0
16.5 1 0
16.8 1 0
17.1 1 0
17.4 1 0
17.7 1 0
18 1 0
18.3 1 0
18.6 1 0
18.9 1 0
19.2 1 0
19.5 1 0
19.8 1 0
20.1 1 0
20.4 1 0
20.7 1 0
21 1 0
21.3 1 0
21.6 1 0
21.9 1 0
22.2 1 0
22.5 1 0
22.8 1 0
23.1 1 0
23.4 1 0
23.7 1 0
24 1 0
24.3 1 0
24.6 1 0
24.9 1 0
25.2 1 0
25.5 1 0
25.8 1 0
26.1 1 0
26.4 1 0
26.7 1 0
27 1 0
27.3 1 0
27.6 1 0
27.9 1 0
28.2 1 0
28.5 1 0
28.8 1 0
29.1 1 0
29.4 1 0
29.7 1 0
30 1 0
30.3 1 0
0 1.1 0
0.3 1.1 0
0.6 1.1 0
0.9 1.1 0
1.2 1.1 0
1.5 1.1 0
1.8 1.1 0
2.1 1.1 0
2.4 1.1 0
2.7 1.1 0
3 1.1 0
3.3 1.1 0
3.6 1.1 0
3.9 1.1 0
4.2 1.1 0
4.5 1.1 0
4.8 1.1 0
5.1 1.1 0
5.4 1.1 0
5.7 1.1 0
6 1.1 0
6.3 1.1 0
6.6 1.1 0
6.9 1.1 0
7.2 1.1 0
7.5 1.1 0
7.8 1.1 0
8.1 1.1 0
8.4 1.1 0
8.7 1.1 0
9 1.1 0
9.3 1.1 0
9.6 1.1 0
9.9 1.1 0
10.2 1.1 0
10.5 1.1 0
10.8 1.1 0
11.1 1.1 0
11.4 1.1 0
11.7 1.1 0
12 1.1 0
12.3 1.1 0
12.6 1.1 0
12.9 1.1 0
13.2 1.1 0
13.5 1.1 0
13.8 1.1 0
14.1 1.1 0
14.4 1.1 0
14.7 1.1 0
15 1.1 0
15.3 1.1 0
15.6 1.1 0
15.9 1.1 0
16.2 1.1 0
16.5 1.1 0
16.8 1.1 0
17.1 1.1 0
17.4 1.1 0
17.7 1.1 0
18 1.1 0
18.3 1.1 0
18.6 1.1 0
18.9 1.1 0
19.2 1.1 0
19.5 1.1 0
19.8 1.1 0
20.1 1.1 0
20.4 1.1 0
20.7 1.1 0
21 1.1 0
21.3 1.1 0
21.6 1.1 0
21.9 1.1 0
22.2 1.1 0
22.5 1.1 0
22.8 1.1 0
23.1 1.1 0
23.4 1.1 0
23.7 1.1 0
24 1.1 0
24.3 1.1 0
24.6 1.1 0
24.9 1.1 0
25.2 1.1 0
25.5 1.1 0
25.8 1.1 0
26.1 1.1 0
26.4 1.1 0
26.7 1.1 0
27 1.1 0
27.3 1.1 0
27.6 1.1 0
27.9 1.1 0
28.2 1.1 0
28.5 1.1 0
28.8 1.1 0
29.1 1.1 0
29.4 1.1 0
29.7 1.1 0
30 1.1 0
30.3 1.1 0

POINT_DATA 1224

SCALARS p double
LOOKUP_TABLE default
2.70884
2.70884
2.57838
2.49236
2.42527
2.37336
2.33169
2.29523
2.26081
2.22699
2.19326
2.15952
2.12576
2.09199
2.05821
2.02444
1.99067
1.95689
1.92312
1.88934
1.85557
1.8218
1.78802
1.75425
1.72047
1.6867
1.65292
1.61915
1.58538
1.5516
1.51783
1.48405
1.45028
1.4165
1.38273
1.34896
1.31518
1.28141
1.24763
1.21386
1.18008
1.14631
1.11253
1.07876
1.04499
1.01121
0.977436
0.943662
0.909887
0.876113
0.842338
0.808563
0.774788
0.741014
0.707239
0.673464
0.639689
0.605914
0.572139
0.538364
0.504589
0.470814
0.437039
0.403264
0.369489
0.335713
0.301938
0.268163
0.234387
0.200612
0.166836
0.133061
0.0992853
0.0655096
0.0317339
-0.00204189
-0.0358177
-0.0695936
-0.10337
-0.137146
-0.170922
-0.204698
-0.238474
-0.27225
-0.306027
-0.339803
-0.37358
-0.407356
-0.441133
-0.47491
-0.508686
-0.542463
-0.57624
-0.610017
-0.643794
-0.677572
-0.71135
-0.745125
-0.77892
-0.812672
-0.846195
0.846195
2.70884
2.70884
2.57838
2.49236
2.42527
2.37336
2.33169
2.29523
2.26081
2.22699
2.19326
2.15952
2.12576
2.09199
2.05821
2.02444
1.99067
1.95689
1.92312
1.88934
1.85557
1.8218
1.78802
1.75425
1.72047
1.6867
1.65292
1.61915
1.58538
1.5516
1.51783
1.48405
1.45028
1.4165
1.38273
1.34896
1.31518
1.28141
1.24763
1.21386
1.18008
1.14631
1.11253
1.07876
1.04499
1.01121
0.977436
0.943662
0.909887
0.876113
0.842338
0.808563
0.774788
0.741014
0.707239
0.673464
0.639689
0.605914
0.572139
0.538364
0.504589
0.470814
0.437039
0.403264
0.369489
0.335713
0.301938
0.268163
0.234387
0.200612
0.166836
0.133061
0.0992853
0.0655096
0.0317339
-0.00204189
-0.0358177
-0.0695936
-0.10337
-0.137146
-0.170922
-0.204698
-0.238474
-0.27225
-0.306027
-0.339803
-0.37358
-0.407356
-0.441133
-0.47491
-0.508686
-0.542463
-0.57624
-0.610017
-0.643794
-0.677572
-0.71135
-0.745125
-0.77892
-0.812672
-0.846195
0.846195
2.67061
2.67061
2.57655
2.49422
2.42706
2.37446
2.3322
2.29543
2.26088
2.227
2.19326
2.15952
2.12576
2.09199
2.05821
2.02444
1.99067
1.95689
1.92312
1.88934
1.85557
1.8218
1.78802
1.75425
1.72047
1.6867
1.65292
1.61915
1.58538
1.5516
1.51783
1.48405
1.45028
1.4165
1.38273
1.34896
1.31518
1.28141
1.24763
1.21386
1.18008
1.14631
1.11253
1.07876
1.04499
1.01121
0.977436
0.943662
0.909887
0.876113
0.842338
0.808563
0.774788
0.741014
0.707239
0.673464
0.639689
0.605914
0.572139
0.538364
0.504589
0.470814
0.437039
0.403264
0.369489
0.335713
0.301938
0.268163
0.234387
0.200612
0.166836
0.133061
0.0992853
0.0655096
0.0317339
-0.0020419
-0.0358177
-0.0695937
-0.10337
-0.137146
-0.170922
-0.204698
-0.238474
-0.27225
-0.306027
-0.339803
-0.37358
-0.407356
-0.441133
-0.47491
-0.508686
-0.542463
-0.57624
-0.610017
-0.643794
-0.677571
-0.711349
-0.745123
-0.778909
-0.812659
-0.846212
0.846212
2.64346
2.64346
2.57378
2.49717
2.43044
2.37681
2.33347
2.29598
2.26108
2.22706
2.19328
2.15952
2.12576
2.09199
2.05821
2.02444
1.99067
1.95689
1.92312
1.88934
1.85557
1.8218
1.78802
1.75425
1.72047
1.6867
1.65292
1.61915
1.58538
1.5516
1.51783
1.48405
1.45028
1.4165
1.38273
1.34896
1.31518
1.28141
1.24763
1.21386
1.18008
1.14631
1.11253
1.07876
1.04499
1.01121
0.977436
0.943662
0.909887
0.876113
0.842338
0.808563
0.774788
0.741014
0.707239
0.673464
0.639689
0.605914
0.572139
0.538364
0.504589
0.470814
0.437039
0.403264
0.369489
0.335713
0.301938
0.268163
0.234387
0.200612
0.166836
0.133061
0.0992853
0.0655096
0.0317339
-0.00204191
-0.0358178
-0.0695937
-0.10337
-0.137146
-0.170922
-0.204698
-0.238474
-0.27225
-0.306027
-0.339803
-0.37358
-0.407356
-0.441133
-0.47491
-0.508686
-0.542463
-0.57624
-0.610017
-0.643794
-0.677571
-0.711347
-0.745115
-0.778876
-0.812544
-0.846192
0.846192
2.62706
2.62706
2.57145
2.49955
2.43345
2.37905
2.33474
2.29657
2.2613
2.22713
2.19329
2.15952
2.12576
2.09199
2.05821
2.02444
1.99067
1.95689
1.92312
1.88934
1.85557
1.8218
1.78802
1.75425
1.72047
1.6867
1.65292
1.61915
1.58538
1.5516
1.51783
1.48405
1.45028
1.4165
1.38273
1.34896
1.31518
1.28141
1.24763
1.21386
1.18008
1.14631
1.11253
1.07876
1.04499
1.01121
0.977436
0.943662
0.909887
0.876113
0.842338
0.808563
0.774788
0.741014
0.707239
0.673464
0.639689
0.605914
0.572139
0.538364
0.504589
0.470814
0.437039
0.403264
0.369489
0.335713
0.301938
0.268163
0.234387
0.200612
0.166836
0.133061
0.0992853
0.0655096
0.0317339
-0.00204193
-0.0358178
-0.0695937
-0.10337
-0.137146
-0.170922
-0.204698
-0.238474
-0.27225
-0.306027
-0.339803
-0.37358
-0.407356
-0.441133
-0.47491
-0.508686
-0.542463
-0.57624
-0.610017
-0.643794
-0.67757
-0.711344
-0.745107
-0.77884
-0.812415
-0.846159
0.846159
2.61941
2.61941
2.57018
2.50079
2.43507
2.38028
2.33546
2.29691
2.26143
2.22717
2.1933
2.15952
2.12576
2.09199
2.05821
2.02444
1.99067
1.95689
1.92312
1.88934
1.85557
1.8218
1.78802
1.75425
1.72047
1.6867
1.65292
1.61915
1.58538
1.5516
1.51783
1.48405
1.45028
1.4165
1.38273
1.34896
1.31518
1.28141
1.24763
1.21386
1.18008
1.14631
1.11253
1.07876
1.04499
1.01121
0.977436
0.943662
0.909887
0.876113
0.842338
0.808563
0.774788
0.741014
0.707239
0.673464
0.639689
0.605914
0.572139
0.538364
0.504589
0.470814
0.437039
0.403264
0.369489
0.335713
0.301938
0.268163
0.234387
0.200612
0.166836
0.133061
0.0992852
0.0655096
0.0317338
-0.00204195
-0.0358178
-0.0695937
-0.10337
-0.137146
-0.170922
-0.204698
-0.238474
-0.27225
-0.306027
-0.339803
-0.37358
-0.407356
-0.441133
-0.47491
-0.508686
-0.542463
-0.57624
-0.610017
-0.643794
-0.67757
-0.711343
-0.745103
-0.778819
-0.812342
-0.846136
0.846136
2.61941
2.61941
2.57018
2.50079
2.43507
2.38028
2.33546
2.29691
2.26143
2.22717
2.1933
2.15952
2.12576
2.09199
2.05821
2.02444
1.99067
1.95689
1.92312
1.88934
1.85557
1.8218
1.78802
1.75425
1.72047
1.6867
1.65292
1.61915
1.58538
1.5516
1.51783
1.48405
1.45028
1.4165
1.38273
1.34896
1.31518
1.28141
1.24763
1.21386
1.18008
1.14631
1.11253
1.07876
1.04499
1.01121
0.977436
0.943662
0.909887
0.876113
0.842338
0.808563
0.774788
0.741014
0.707239
0.673464
0.639689
0.605914
0.572139
0.538364
0.504589
0.470814
0.437039
0.403264
0.369489
0.335713
0.301938
0.268163
0.234387
0.200612
0.166836
0.133061
0.0992852
0.0655096
0.0317338
-0.00204197
-0.0358178
-0.0695937
-0.10337
-0.137146
-0.170922
-0.204698
-0.238474
-0.272251
-0.306027
-0.339803
-0.37358
-0.407356
-0.441133
-0.47491
-0.508686
-0.542463
-0.57624
-0.610017
-0.643794
-0.67757
-0.711343
-0.745103
-0.778819
-0.812342
-0.846136
0.846136
2.62706
2.62706
2.57145
2.49955
2.43345
2.37905
2.33474
2.29657
2.2613
2.22713
2.19329
2.15952
2.12576
2.09199
2.05821
2.02444
1.99067
1.95689
1.92312
1.88934
1.85557
1.8218
1.78802
1.75425
1.72047
1.6867
1.65292
1.61915
1.58538
1.5516
1.51783
1.48405
1.45028
1.4165
1.38273
1.34896
1.31518
1.28141
1.24763
1.21386
1.18008
1.14631
1.11253
1.07876
1.04499
1.01121
0.977436
0.943662
0.909887
0.876113
0.842338
0.808563
0.774788
0.741014
0.707239
0.673464
0.639689
0.605914
0.572139
0.538364
0.504589
0.470814
0.437039
0.403264
0.369489
0.335713
0.301938
0.268163
0.234387
0.200612
0.166836
0.133061
0.0992852
0.0655095
0.0317338
-0.00204199
-0.0358178
-0.0695937
-0.10337
-0.137146
-0.170922
-0.204698
-0.238474
-0.272251
-0.306027
-0.339803
-0.37358
-0.407356
-0.441133
-0.47491
-0.508687
-0.542463
-0.57624
-0.610017
-0.643794
-0.67757
-0.711344
-0.745108
-0.77884
-0.812416
-0.846159
0.846159
2.64346
2.64346
2.57378
2.49717
2.43044
2.37681
2.33347
2.29598
2.26108
2.22706
2.19328
2.15952
2.12576
2.09199
2.05821
2.02444
1.99067
1.95689
1.92312
1.88934
1.85557
1.8218
1.78802
1.75425
1.72047
1.6867
1.65292
1.61915
1.58538
1.5516
1.51783
1.48405
1.45028
1.4165
1.38273
1.34896
1.31518
1.28141
1.24763
1.21386
1.18008
1.14631
1.11253
1.07876
1.04499
1.01121
0.977436
0.943662
0.909887
0.876113
0.842338
0.808563
0.774788
0.741014
0.707239
0.673464
0.639689
0.605914
0.572139
0.538364
0.504589
0.470814
0.437039
0.403264
0.369489
0.335713
0.301938
0.268163
0.234387
0.200612
0.166836
0.133061
0.0992852
0.0655095
0.0317338
-0.00204201
-0.0358179
-0.0695938
-0.10337
-0.137146
-0.170922
-0.204698
-0.238474
-0.272251
-0.306027
-0.339803
-0.37358
-0.407356
-0.441133
-0.47491
-0.508687
-0.542463
-0.57624
-0.610017
-0.643794
-0.677571
-0.711347
-0.745116
-0.778876
-0.812544
-0.846192
0.846192
2.67061
2.67061
2.57655
2.49422
2.42706
2.37446
2.3322
2.29543
2.26088
2.227
2.19326
2.15952
2.12576
2.09199
2.05821
2.02444
1.99067
1.95689
1.92312
1.88934
1.85557
1.8218
1.78802
1.75425
1.72047
1.6867
1.65292
1.61915
1.58538
1.5516
1.51783
1.48405
1.45028
1.4165
1.38273
1.34896
1.31518
1.28141
1.24763
1.21386
1.18008
1.14631
1.11253
1.07876
1.04499
1.01121
0.977436
0.943662
0.909887
0.876112
0.842338
0.808563
0.774788
0.741014
0.707239
0.673464
0.639689
0.605914
0.572139
0.538364
0.504589
0.470814
0.437039
0.403264
0.369489
0.335713
0.301938
0.268163
0.234387
0.200612
0.166836
0.133061
0.0992852
0.0655095
0.0317338
-0.00204203
-0.0358179
-0.0695938
-0.10337
-0.137146
-0.170922
-0.204698
-0.238474
-0.272251
-0.306027
-0.339803
-0.37358
-0.407356
-0.441133
-0.47491
-0.508687
-0.542463
-0.57624
-0.610017
-0.643794
-0.677571
-0.711349
-0.745123
-0.778909
-0.812659
-0.846212
0.846212
2.70884
2.70884
2.57838
2.49236
2.42527
2.37336
2.33169
2.29523
2.26081
2.22699
2.19326
2.15952
2.12576
2.09199
2.05821
2.02444
1.99067
1.95689
1.92312
1.88934
1.85557
1.8218
1.78802
1.75425
1.72047
1.6867
1.65292
1.61915
1.58538
1.5516
1.51783
1.48405
1.45028
1.4165
1.38273
1.34896
1.31518
1.28141
1.24763
1.21386
1.18008
1.14631
1.11253
1.07876
1.04499
1.01121
0.977436
0.943662
0.909887
0.876112
0.842338
0.808563
0.774788
0.741014
0.707239
0.673464
0.639689
0.605914
0.572139
0.538364
0.504589
0.470814
0.437039
0.403264
0.369489
0.335713
0.301938
0.268163
0.234387
0.200612
0.166836
0.133061
0.0992852
0.0655095
0.0317338
-0.00204204
-0.0358179
-0.0695938
-0.10337
-0.137146
-0.170922
-0.204698
-0.238474
-0.272251
-0.306027
-0.339803
-0.37358
-0.407356
-0.441133
-0.47491
-0.508687
-0.542463
-0.57624
-0.610017
-0.643795
-0.677572
-0.71135
-0.745126
-0.77892
-0.812673
-0.846195
0.846195
2.70884
2.70884
2.57838
2.49236
2.42527
2.37336
2.33169
2.29523
2.26081
2.22699
2.19326
2.15952
2.12576
2.09199
2.05821
2.02444
1.99067
1.95689
1.92312
1.88934
1.85557
1.8218
1.78802
1.75425
1.72047
1.6867
1.65292
1.61915
1.58538
1.5516
1.51783
1.48405
1.45028
1.4165
1.38273
1.34896
1.31518
1.28141
1.24763
1.21386
1.18008
1.14631
1.11253
1.07876
1.04499
1.01121
0.977436
0.943662
0.909887
0.876112
0.842338
0.808563
0.774788
0.741014
0.707239
0.673464
0.639689
0.605914
0.572139
0.538364
0.504589
0.470814
0.437039
0.403264
0.369489
0.335713
0.301938
0.268163
0.234387
0.200612
0.166836
0.133061
0.0992852
0.0655095
0.0317338
-0.00204204
-0.0358179
-0.0695938
-0.10337
-0.137146
-0.170922
-0.204698
-0.238474
-0.272251
-0.306027
-0.339803
-0.37358
-0.407356
-0.441133
-0.47491
-0.508687
-0.542463
-0.57624
-0.610017
-0.643795
-0.677572
-0.71135
-0.745126
-0.77892
-0.812673
-0.846195
0.846195
