# vtk DataFile Version 2.0
FlowField
ASCII
DATASET STRUCTURED_GRID
DIMENSIONS 102 1 12 
POINTS 1224 double
0 0 0
0.4 0 0
0.8 0 0
1.2 0 0
1.6 0 0
2 0 0
2.4 0 0
2.8 0 0
3.2 0 0
3.6 0 0
4 0 0
4.4 0 0
4.8 0 0
5.2 0 0
5.6 0 0
6 0 0
6.4 0 0
6.8 0 0
7.2 0 0
7.6 0 0
8 0 0
8.4 0 0
8.8 0 0
9.2 0 0
9.6 0 0
10 0 0
10.4 0 0
10.8 0 0
11.2 0 0
11.6 0 0
12 0 0
12.4 0 0
12.8 0 0
13.2 0 0
13.6 0 0
14 0 0
14.4 0 0
14.8 0 0
15.2 0 0
15.6 0 0
16 0 0
16.4 0 0
16.8 0 0
17.2 0 0
17.6 0 0
18 0 0
18.4 0 0
18.8 0 0
19.2 0 0
19.6 0 0
20 0 0
20.4 0 0
20.8 0 0
21.2 0 0
21.6 0 0
22 0 0
22.4 0 0
22.8 0 0
23.2 0 0
23.6 0 0
24 0 0
24.4 0 0
24.8 0 0
25.2 0 0
25.6 0 0
26 0 0
26.4 0 0
26.8 0 0
27.2 0 0
27.6 0 0
28 0 0
28.4 0 0
28.8 0 0
29.2 0 0
29.6 0 0
30 0 0
30.4 0 0
30.8 0 0
31.2 0 0
31.6 0 0
32 0 0
32.4 0 0
32.8 0 0
33.2 0 0
33.6 0 0
34 0 0
34.4 0 0
34.8 0 0
35.2 0 0
35.6 0 0
36 0 0
36.4 0 0
36.8 0 0
37.2 0 0
37.6 0 0
38 0 0
38.4 0 0
38.8 0 0
39.2 0 0
39.6 0 0
40 0 0
40.4 0 0
0 0.1 0
0.4 0.1 0
0.8 0.1 0
1.2 0.1 0
1.6 0.1 0
2 0.1 0
2.4 0.1 0
2.8 0.1 0
3.2 0.1 0
3.6 0.1 0
4 0.1 0
4.4 0.1 0
4.8 0.1 0
5.2 0.1 0
5.6 0.1 0
6 0.1 0
6.4 0.1 0
6.8 0.1 0
7.2 0.1 0
7.6 0.1 0
8 0.1 0
8.4 0.1 0
8.8 0.1 0
9.2 0.1 0
9.6 0.1 0
10 0.1 0
10.4 0.1 0
10.8 0.1 0
11.2 0.1 0
11.6 0.1 0
12 0.1 0
12.4 0.1 0
12.8 0.1 0
13.2 0.1 0
13.6 0.1 0
14 0.1 0
14.4 0.1 0
14.8 0.1 0
15.2 0.1 0
15.6 0.1 0
16 0.1 0
16.4 0.1 0
16.8 0.1 0
17.2 0.1 0
17.6 0.1 0
18 0.1 0
18.4 0.1 0
18.8 0.1 0
19.2 0.1 0
19.6 0.1 0
20 0.1 0
20.4 0.1 0
20.8 0.1 0
21.2 0.1 0
21.6 0.1 0
22 0.1 0
22.4 0.1 0
22.8 0.1 0
23.2 0.1 0
23.6 0.1 0
24 0.1 0
24.4 0.1 0
24.8 0.1 0
25.2 0.1 0
25.6 0.1 0
26 0.1 0
26.4 0.1 0
26.8 0.1 0
27.2 0.1 0
27.6 0.1 0
28 0.1 0
28.4 0.1 0
28.8 0.1 0
29.2 0.1 0
29.6 0.1 0
30 0.1 0
30.4 0.1 0
30.8 0.1 0
31.2 0.1 0
31.6 0.1 0
32 0.1 0
32.4 0.1 0
32.8 0.1 0
33.2 0.1 0
33.6 0.1 0
34 0.1 0
34.4 0.1 0
34.8 0.1 0
35.2 0.1 0
35.6 0.1 0
36 0.1 0
36.4 0.1 0
36.8 0.1 0
37.2 0.1 0
37.6 0.1 0
38 0.1 0
38.4 0.1 0
38.8 0.1 0
39.2 0.1 0
39.6 0.1 0
40 0.1 0
40.4 0.1 0
0 0.2 0
0.4 0.2 0
0.8 0.2 0
1.2 0.2 0
1.6 0.2 0
2 0.2 0
2.4 0.2 0
2.8 0.2 0
3.2 0.2 0
3.6 0.2 0
4 0.2 0
4.4 0.2 0
4.8 0.2 0
5.2 0.2 0
5.6 0.2 0
6 0.2 0
6.4 0.2 0
6.8 0.2 0
7.2 0.2 0
7.6 0.2 0
8 0.2 0
8.4 0.2 0
8.8 0.2 0
9.2 0.2 0
9.6 0.2 0
10 0.2 0
10.4 0.2 0
10.8 0.2 0
11.2 0.2 0
11.6 0.2 0
12 0.2 0
12.4 0.2 0
12.8 0.2 0
13.2 0.2 0
13.6 0.2 0
14 0.2 0
14.4 0.2 0
14.8 0.2 0
15.2 0.2 0
15.6 0.2 0
16 0.2 0
16.4 0.2 0
16.8 0.2 0
17.2 0.2 0
17.6 0.2 0
18 0.2 0
18.4 0.2 0
18.8 0.2 0
19.2 0.2 0
19.6 0.2 0
20 0.2 0
20.4 0.2 0
20.8 0.2 0
21.2 0.2 0
21.6 0.2 0
22 0.2 0
22.4 0.2 0
22.8 0.2 0
23.2 0.2 0
23.6 0.2 0
24 0.2 0
24.4 0.2 0
24.8 0.2 0
25.2 0.2 0
25.6 0.2 0
26 0.2 0
26.4 0.2 0
26.8 0.2 0
27.2 0.2 0
27.6 0.2 0
28 0.2 0
28.4 0.2 0
28.8 0.2 0
29.2 0.2 0
29.6 0.2 0
30 0.2 0
30.4 0.2 0
30.8 0.2 0
31.2 0.2 0
31.6 0.2 0
32 0.2 0
32.4 0.2 0
32.8 0.2 0
33.2 0.2 0
33.6 0.2 0
34 0.2 0
34.4 0.2 0
34.8 0.2 0
35.2 0.2 0
35.6 0.2 0
36 0.2 0
36.4 0.2 0
36.8 0.2 0
37.2 0.2 0
37.6 0.2 0
38 0.2 0
38.4 0.2 0
38.8 0.2 0
39.2 0.2 0
39.6 0.2 0
40 0.2 0
40.4 0.2 0
0 0.3 0
0.4 0.3 0
0.8 0.3 0
1.2 0.3 0
1.6 0.3 0
2 0.3 0
2.4 0.3 0
2.8 0.3 0
3.2 0.3 0
3.6 0.3 0
4 0.3 0
4.4 0.3 0
4.8 0.3 0
5.2 0.3 0
5.6 0.3 0
6 0.3 0
6.4 0.3 0
6.8 0.3 0
7.2 0.3 0
7.6 0.3 0
8 0.3 0
8.4 0.3 0
8.8 0.3 0
9.2 0.3 0
9.6 0.3 0
10 0.3 0
10.4 0.3 0
10.8 0.3 0
11.2 0.3 0
11.6 0.3 0
12 0.3 0
12.4 0.3 0
12.8 0.3 0
13.2 0.3 0
13.6 0.3 0
14 0.3 0
14.4 0.3 0
14.8 0.3 0
15.2 0.3 0
15.6 0.3 0
16 0.3 0
16.4 0.3 0
16.8 0.3 0
17.2 0.3 0
17.6 0.3 0
18 0.3 0
18.4 0.3 0
18.8 0.3 0
19.2 0.3 0
19.6 0.3 0
20 0.3 0
20.4 0.3 0
20.8 0.3 0
21.2 0.3 0
21.6 0.3 0
22 0.3 0
22.4 0.3 0
22.8 0.3 0
23.2 0.3 0
23.6 0.3 0
24 0.3 0
24.4 0.3 0
24.8 0.3 0
25.2 0.3 0
25.6 0.3 0
26 0.3 0
26.4 0.3 0
26.8 0.3 0
27.2 0.3 0
27.6 0.3 0
28 0.3 0
28.4 0.3 0
28.8 0.3 0
29.2 0.3 0
29.6 0.3 0
30 0.3 0
30.4 0.3 0
30.8 0.3 0
31.2 0.3 0
31.6 0.3 0
32 0.3 0
32.4 0.3 0
32.8 0.3 0
33.2 0.3 0
33.6 0.3 0
34 0.3 0
34.4 0.3 0
34.8 0.3 0
35.2 0.3 0
35.6 0.3 0
36 0.3 0
36.4 0.3 0
36.8 0.3 0
37.2 0.3 0
37.6 0.3 0
38 0.3 0
38.4 0.3 0
38.8 0.3 0
39.2 0.3 0
39.6 0.3 0
40 0.3 0
40.4 0.3 0
0 0.4 0
0.4 0.4 0
0.8 0.4 0
1.2 0.4 0
1.6 0.4 0
2 0.4 0
2.4 0.4 0
2.8 0.4 0
3.2 0.4 0
3.6 0.4 0
4 0.4 0
4.4 0.4 0
4.8 0.4 0
5.2 0.4 0
5.6 0.4 0
6 0.4 0
6.4 0.4 0
6.8 0.4 0
7.2 0.4 0
7.6 0.4 0
8 0.4 0
8.4 0.4 0
8.8 0.4 0
9.2 0.4 0
9.6 0.4 0
10 0.4 0
10.4 0.4 0
10.8 0.4 0
11.2 0.4 0
11.6 0.4 0
12 0.4 0
12.4 0.4 0
12.8 0.4 0
13.2 0.4 0
13.6 0.4 0
14 0.4 0
14.4 0.4 0
14.8 0.4 0
15.2 0.4 0
15.6 0.4 0
16 0.4 0
16.4 0.4 0
16.8 0.4 0
17.2 0.4 0
17.6 0.4 0
18 0.4 0
18.4 0.4 0
18.8 0.4 0
19.2 0.4 0
19.6 0.4 0
20 0.4 0
20.4 0.4 0
20.8 0.4 0
21.2 0.4 0
21.6 0.4 0
22 0.4 0
22.4 0.4 0
22.8 0.4 0
23.2 0.4 0
23.6 0.4 0
24 0.4 0
24.4 0.4 0
24.8 0.4 0
25.2 0.4 0
25.6 0.4 0
26 0.4 0
26.4 0.4 0
26.8 0.4 0
27.2 0.4 0
27.6 0.4 0
28 0.4 0
28.4 0.4 0
28.8 0.4 0
29.2 0.4 0
29.6 0.4 0
30 0.4 0
30.4 0.4 0
30.8 0.4 0
31.2 0.4 0
31.6 0.4 0
32 0.4 0
32.4 0.4 0
32.8 0.4 0
33.2 0.4 0
33.6 0.4 0
34 0.4 0
34.4 0.4 0
34.8 0.4 0
35.2 0.4 0
35.6 0.4 0
36 0.4 0
36.4 0.4 0
36.8 0.4 0
37.2 0.4 0
37.6 0.4 0
38 0.4 0
38.4 0.4 0
38.8 0.4 0
39.2 0.4 0
39.6 0.4 0
40 0.4 0
40.4 0.4 0
0 0.5 0
0.4 0.5 0
0.8 0.5 0
1.2 0.5 0
1.6 0.5 0
2 0.5 0
2.4 0.5 0
2.8 0.5 0
3.2 0.5 0
3.6 0.5 0
4 0.5 0
4.4 0.5 0
4.8 0.5 0
5.2 0.5 0
5.6 0.5 0
6 0.5 0
6.4 0.5 0
6.8 0.5 0
7.2 0.5 0
7.6 0.5 0
8 0.5 0
8.4 0.5 0
8.8 0.5 0
9.2 0.5 0
9.6 0.5 0
10 0.5 0
10.4 0.5 0
10.8 0.5 0
11.2 0.5 0
11.6 0.5 0
12 0.5 0
12.4 0.5 0
12.8 0.5 0
13.2 0.5 0
13.6 0.5 0
14 0.5 0
14.4 0.5 0
14.8 0.5 0
15.2 0.5 0
15.6 0.5 0
16 0.5 0
16.4 0.5 0
16.8 0.5 0
17.2 0.5 0
17.6 0.5 0
18 0.5 0
18.4 0.5 0
18.8 0.5 0
19.2 0.5 0
19.6 0.5 0
20 0.5 0
20.4 0.5 0
20.8 0.5 0
21.2 0.5 0
21.6 0.5 0
22 0.5 0
22.4 0.5 0
22.8 0.5 0
23.2 0.5 0
23.6 0.5 0
24 0.5 0
24.4 0.5 0
24.8 0.5 0
25.2 0.5 0
25.6 0.5 0
26 0.5 0
26.4 0.5 0
26.8 0.5 0
27.2 0.5 0
27.6 0.5 0
28 0.5 0
28.4 0.5 0
28.8 0.5 0
29.2 0.5 0
29.6 0.5 0
30 0.5 0
30.4 0.5 0
30.8 0.5 0
31.2 0.5 0
31.6 0.5 0
32 0.5 0
32.4 0.5 0
32.8 0.5 0
33.2 0.5 0
33.6 0.5 0
34 0.5 0
34.4 0.5 0
34.8 0.5 0
35.2 0.5 0
35.6 0.5 0
36 0.5 0
36.4 0.5 0
36.8 0.5 0
37.2 0.5 0
37.6 0.5 0
38 0.5 0
38.4 0.5 0
38.8 0.5 0
39.2 0.5 0
39.6 0.5 0
40 0.5 0
40.4 0.5 0
0 0.6 0
0.4 0.6 0
0.8 0.6 0
1.2 0.6 0
1.6 0.6 0
2 0.6 0
2.4 0.6 0
2.8 0.6 0
3.2 0.6 0
3.6 0.6 0
4 0.6 0
4.4 0.6 0
4.8 0.6 0
5.2 0.6 0
5.6 0.6 0
6 0.6 0
6.4 0.6 0
6.8 0.6 0
7.2 0.6 0
7.6 0.6 0
8 0.6 0
8.4 0.6 0
8.8 0.6 0
9.2 0.6 0
9.6 0.6 0
10 0.6 0
10.4 0.6 0
10.8 0.6 0
11.2 0.6 0
11.6 0.6 0
12 0.6 0
12.4 0.6 0
12.8 0.6 0
13.2 0.6 0
13.6 0.6 0
14 0.6 0
14.4 0.6 0
14.8 0.6 0
15.2 0.6 0
15.6 0.6 0
16 0.6 0
16.4 0.6 0
16.8 0.6 0
17.2 0.6 0
17.6 0.6 0
18 0.6 0
18.4 0.6 0
18.8 0.6 0
19.2 0.6 0
19.6 0.6 0
20 0.6 0
20.4 0.6 0
20.8 0.6 0
21.2 0.6 0
21.6 0.6 0
22 0.6 0
22.4 0.6 0
22.8 0.6 0
23.2 0.6 0
23.6 0.6 0
24 0.6 0
24.4 0.6 0
24.8 0.6 0
25.2 0.6 0
25.6 0.6 0
26 0.6 0
26.4 0.6 0
26.8 0.6 0
27.2 0.6 0
27.6 0.6 0
28 0.6 0
28.4 0.6 0
28.8 0.6 0
29.2 0.6 0
29.6 0.6 0
30 0.6 0
30.4 0.6 0
30.8 0.6 0
31.2 0.6 0
31.6 0.6 0
32 0.6 0
32.4 0.6 0
32.8 0.6 0
33.2 0.6 0
33.6 0.6 0
34 0.6 0
34.4 0.6 0
34.8 0.6 0
35.2 0.6 0
35.6 0.6 0
36 0.6 0
36.4 0.6 0
36.8 0.6 0
37.2 0.6 0
37.6 0.6 0
38 0.6 0
38.4 0.6 0
38.8 0.6 0
39.2 0.6 0
39.6 0.6 0
40 0.6 0
40.4 0.6 0
0 0.7 0
0.4 0.7 0
0.8 0.7 0
1.2 0.7 0
1.6 0.7 0
2 0.7 0
2.4 0.7 0
2.8 0.7 0
3.2 0.7 0
3.6 0.7 0
4 0.7 0
4.4 0.7 0
4.8 0.7 0
5.2 0.7 0
5.6 0.7 0
6 0.7 0
6.4 0.7 0
6.8 0.7 0
7.2 0.7 0
7.6 0.7 0
8 0.7 0
8.4 0.7 0
8.8 0.7 0
9.2 0.7 0
9.6 0.7 0
10 0.7 0
10.4 0.7 0
10.8 0.7 0
11.2 0.7 0
11.6 0.7 0
12 0.7 0
12.4 0.7 0
12.8 0.7 0
13.2 0.7 0
13.6 0.7 0
14 0.7 0
14.4 0.7 0
14.8 0.7 0
15.2 0.7 0
15.6 0.7 0
16 0.7 0
16.4 0.7 0
16.8 0.7 0
17.2 0.7 0
17.6 0.7 0
18 0.7 0
18.4 0.7 0
18.8 0.7 0
19.2 0.7 0
19.6 0.7 0
20 0.7 0
20.4 0.7 0
20.8 0.7 0
21.2 0.7 0
21.6 0.7 0
22 0.7 0
22.4 0.7 0
22.8 0.7 0
23.2 0.7 0
23.6 0.7 0
24 0.7 0
24.4 0.7 0
24.8 0.7 0
25.2 0.7 0
25.6 0.7 0
26 0.7 0
26.4 0.7 0
26.8 0.7 0
27.2 0.7 0
27.6 0.7 0
28 0.7 0
28.4 0.7 0
28.8 0.7 0
29.2 0.7 0
29.6 0.7 0
30 0.7 0
30.4 0.7 0
30.8 0.7 0
31.2 0.7 0
31.6 0.7 0
32 0.7 0
32.4 0.7 0
32.8 0.7 0
33.2 0.7 0
33.6 0.7 0
34 0.7 0
34.4 0.7 0
34.8 0.7 0
35.2 0.7 0
35.6 0.7 0
36 0.7 0
36.4 0.7 0
36.8 0.7 0
37.2 0.7 0
37.6 0.7 0
38 0.7 0
38.4 0.7 0
38.8 0.7 0
39.2 0.7 0
39.6 0.7 0
40 0.7 0
40.4 0.7 0
0 0.8 0
0.4 0.8 0
0.8 0.8 0
1.2 0.8 0
1.6 0.8 0
2 0.8 0
2.4 0.8 0
2.8 0.8 0
3.2 0.8 0
3.6 0.8 0
4 0.8 0
4.4 0.8 0
4.8 0.8 0
5.2 0.8 0
5.6 0.8 0
6 0.8 0
6.4 0.8 0
6.8 0.8 0
7.2 0.8 0
7.6 0.8 0
8 0.8 0
8.4 0.8 0
8.8 0.8 0
9.2 0.8 0
9.6 0.8 0
10 0.8 0
10.4 0.8 0
10.8 0.8 0
11.2 0.8 0
11.6 0.8 0
12 0.8 0
12.4 0.8 0
12.8 0.8 0
13.2 0.8 0
13.6 0.8 0
14 0.8 0
14.4 0.8 0
14.8 0.8 0
15.2 0.8 0
15.6 0.8 0
16 0.8 0
16.4 0.8 0
16.8 0.8 0
17.2 0.8 0
17.6 0.8 0
18 0.8 0
18.4 0.8 0
18.8 0.8 0
19.2 0.8 0
19.6 0.8 0
20 0.8 0
20.4 0.8 0
20.8 0.8 0
21.2 0.8 0
21.6 0.8 0
22 0.8 0
22.4 0.8 0
22.8 0.8 0
23.2 0.8 0
23.6 0.8 0
24 0.8 0
24.4 0.8 0
24.8 0.8 0
25.2 0.8 0
25.6 0.8 0
26 0.8 0
26.4 0.8 0
26.8 0.8 0
27.2 0.8 0
27.6 0.8 0
28 0.8 0
28.4 0.8 0
28.8 0.8 0
29.2 0.8 0
29.6 0.8 0
30 0.8 0
30.4 0.8 0
30.8 0.8 0
31.2 0.8 0
31.6 0.8 0
32 0.8 0
32.4 0.8 0
32.8 0.8 0
33.2 0.8 0
33.6 0.8 0
34 0.8 0
34.4 0.8 0
34.8 0.8 0
35.2 0.8 0
35.6 0.8 0
36 0.8 0
36.4 0.8 0
36.8 0.8 0
37.2 0.8 0
37.6 0.8 0
38 0.8 0
38.4 0.8 0
38.8 0.8 0
39.2 0.8 0
39.6 0.8 0
40 0.8 0
40.4 0.8 0
0 0.9 0
0.4 0.9 0
0.8 0.9 0
1.2 0.9 0
1.6 0.9 0
2 0.9 0
2.4 0.9 0
2.8 0.9 0
3.2 0.9 0
3.6 0.9 0
4 0.9 0
4.4 0.9 0
4.8 0.9 0
5.2 0.9 0
5.6 0.9 0
6 0.9 0
6.4 0.9 0
6.8 0.9 0
7.2 0.9 0
7.6 0.9 0
8 0.9 0
8.4 0.9 0
8.8 0.9 0
9.2 0.9 0
9.6 0.9 0
10 0.9 0
10.4 0.9 0
10.8 0.9 0
11.2 0.9 0
11.6 0.9 0
12 0.9 0
12.4 0.9 0
12.8 0.9 0
13.2 0.9 0
13.6 0.9 0
14 0.9 0
14.4 0.9 0
14.8 0.9 0
15.2 0.9 0
15.6 0.9 0
16 0.9 0
16.4 0.9 0
16.8 0.9 0
17.2 0.9 0
17.6 0.9 0
18 0.9 0
18.4 0.9 0
18.8 0.9 0
19.2 0.9 0
19.6 0.9 0
20 0.9 0
20.4 0.9 0
20.8 0.9 0
21.2 0.9 0
21.6 0.9 0
22 0.9 0
22.4 0.9 0
22.8 0.9 0
23.2 0.9 0
23.6 0.9 0
24 0.9 0
24.4 0.9 0
24.8 0.9 0
25.2 0.9 0
25.6 0.9 0
26 0.9 0
26.4 0.9 0
26.8 0.9 0
27.2 0.9 0
27.6 0.9 0
28 0.9 0
28.4 0.9 0
28.8 0.9 0
29.2 0.9 0
29.6 0.9 0
30 0.9 0
30.4 0.9 0
30.8 0.9 0
31.2 0.9 0
31.6 0.9 0
32 0.9 0
32.4 0.9 0
32.8 0.9 0
33.2 0.9 0
33.6 0.9 0
34 0.9 0
34.4 0.9 0
34.8 0.9 0
35.2 0.9 0
35.6 0.9 0
36 0.9 0
36.4 0.9 0
36.8 0.9 0
37.2 0.9 0
37.6 0.9 0
38 0.9 0
38.4 0.9 0
38.8 0.9 0
39.2 0.9 0
39.6 0.9 0
40 0.9 0
40.4 0.9 0
0 1 0
0.4 1 0
0.8 1 0
1.2 1 0
1.6 1 0
2 1 0
2.4 1 0
2.8 1 0
3.2 1 0
3.6 1 0
4 1 0
4.4 1 0
4.8 1 0
5.2 1 0
5.6 1 0
6 1 0
6.4 1 0
6.8 1 0
7.2 1 0
7.6 1 0
8 1 0
8.4 1 0
8.8 1 0
9.2 1 0
9.6 1 0
10 1 0
10.4 1 0
10.8 1 0
11.2 1 0
11.6 1 0
12 1 0
12.4 1 0
12.8 1 0
13.2 1 0
13.6 1 0
14 1 0
14.4 1 0
14.8 1 0
15.2 1 0
15.6 1 0
16 1 0
16.4 1 0
16.8 1 0
17.2 1 0
17.6 1 0
18 1 0
18.4 1 0
18.8 1 0
19.2 1 0
19.6 1 0
20 1 0
20.4 1 0
20.8 1 0
21.2 1 0
21.6 1 0
22 1 0
22.4 1 0
22.8 1 0
23.2 1 0
23.6 1 0
24 1 0
24.4 1 0
24.8 1 0
25.2 1 0
25.6 1 0
26 1 0
26.4 1 0
26.8 1 0
27.2 1 0
27.6 1 0
28 1 0
28.4 1 0
28.8 1 0
29.2 1 0
29.6 1 0
30 1 0
30.4 1 0
30.8 1 0
31.2 1 0
31.6 1 0
32 1 0
32.4 1 0
32.8 1 0
33.2 1 0
33.6 1 0
34 1 0
34.4 1 0
34.8 1 0
35.2 1 0
35.6 1 0
36 1 0
36.4 1 0
36.8 1 0
37.2 1 0
37.6 1 0
38 1 0
38.4 1 0
38.8 1 0
39.2 1 0
39.6 1 0
40 1 0
40.4 1 0
0 1.1 0
0.4 1.1 0
0.8 1.1 0
1.2 1.1 0
1.6 1.1 0
2 1.1 0
2.4 1.1 0
2.8 1.1 0
3.2 1.1 0
3.6 1.1 0
4 1.1 0
4.4 1.1 0
4.8 1.1 0
5.2 1.1 0
5.6 1.1 0
6 1.1 0
6.4 1.1 0
6.8 1.1 0
7.2 1.1 0
7.6 1.1 0
8 1.1 0
8.4 1.1 0
8.8 1.1 0
9.2 1.1 0
9.6 1.1 0
10 1.1 0
10.4 1.1 0
10.8 1.1 0
11.2 1.1 0
11.6 1.1 0
12 1.1 0
12.4 1.1 0
12.8 1.1 0
13.2 1.1 0
13.6 1.1 0
14 1.1 0
14.4 1.1 0
14.8 1.1 0
15.2 1.1 0
15.6 1.1 0
16 1.1 0
16.4 1.1 0
16.8 1.1 0
17.2 1.1 0
17.6 1.1 0
18 1.1 0
18.4 1.1 0
18.8 1.1 0
19.2 1.1 0
19.6 1.1 0
20 1.1 0
20.4 1.1 0
20.8 1.1 0
21.2 1.1 0
21.6 1.1 0
22 1.1 0
22.4 1.1 0
22.8 1.1 0
23.2 1.1 0
23.6 1.1 0
24 1.1 0
24.4 1.1 0
24.8 1.1 0
25.2 1.1 0
25.6 1.1 0
26 1.1 0
26.4 1.1 0
26.8 1.1 0
27.2 1.1 0
27.6 1.1 0
28 1.1 0
28.4 1.1 0
28.8 1.1 0
29.2 1.1 0
29.6 1.1 0
30 1.1 0
30.4 1.1 0
30.8 1.1 0
31.2 1.1 0
31.6 1.1 0
32 1.1 0
32.4 1.1 0
32.8 1.1 0
33.2 1.1 0
33.6 1.1 0
34 1.1 0
34.4 1.1 0
34.8 1.1 0
35.2 1.1 0
35.6 1.1 0
36 1.1 0
36.4 1.1 0
36.8 1.1 0
37.2 1.1 0
37.6 1.1 0
38 1.1 0
38.4 1.1 0
38.8 1.1 0
39.2 1.1 0
39.6 1.1 0
40 1.1 0
40.4 1.1 0

POINT_DATA 1224

SCALARS p double
LOOKUP_TABLE default
24.6452
24.6452
23.9025
23.2045
22.6143
22.0871
21.5874
21.0983
20.613
20.129
19.6454
19.162
18.6786
18.1952
17.7119
17.2286
16.7453
16.262
15.7788
15.2956
14.8124
14.3293
13.8462
13.3631
12.88
12.3969
11.9139
11.4309
10.9479
10.4649
9.98193
9.499
9.01608
8.53318
8.0503
7.56743
7.08458
6.60174
6.11892
5.63611
5.15331
4.67052
4.18774
3.70497
3.22222
2.73946
2.25672
1.77398
1.29125
0.808518
0.325791
-0.156933
-0.639657
-1.12238
-1.6051
-2.08783
-2.57056
-3.05329
-3.53602
-4.01877
-4.50151
-4.98427
-5.46703
-5.9498
-6.43258
-6.91538
-7.39818
-7.881
-8.36382
-8.84667
-9.32952
-9.8124
-10.2953
-10.7782
-11.2611
-11.7441
-12.227
-12.71
-13.193
-13.676
-14.159
-14.6421
-15.1252
-15.6083
-16.0914
-16.5746
-17.0577
-17.5409
-18.0242
-18.5074
-18.9907
-19.474
-19.9573
-20.4407
-20.9241
-21.4076
-21.8919
-22.3792
-22.8835
-23.4389
-24.7276
24.7276
24.6452
24.6452
23.9025
23.2045
22.6143
22.0871
21.5874
21.0983
20.613
20.129
19.6454
19.162
18.6786
18.1952
17.7119
17.2286
16.7453
16.262
15.7788
15.2956
14.8124
14.3293
13.8462
13.3631
12.88
12.3969
11.9139
11.4309
10.9479
10.4649
9.98193
9.499
9.01608
8.53318
8.0503
7.56743
7.08458
6.60174
6.11892
5.63611
5.15331
4.67052
4.18774
3.70497
3.22222
2.73946
2.25672
1.77398
1.29125
0.808518
0.325791
-0.156933
-0.639657
-1.12238
-1.6051
-2.08783
-2.57056
-3.05329
-3.53602
-4.01877
-4.50151
-4.98427
-5.46703
-5.9498
-6.43258
-6.91538
-7.39818
-7.881
-8.36382
-8.84667
-9.32952
-9.8124
-10.2953
-10.7782
-11.2611
-11.7441
-12.227
-12.71
-13.193
-13.676
-14.159
-14.6421
-15.1252
-15.6083
-16.0914
-16.5746
-17.0577
-17.5409
-18.0242
-18.5074
-18.9907
-19.474
-19.9573
-20.4407
-20.9241
-21.4076
-21.8919
-22.3792
-22.8835
-23.4389
-24.7276
24.7276
24.3013
24.3013
23.7253
23.1311
22.5878
22.0783
21.5846
21.0974
20.6127
20.1289
19.6453
19.1619
18.6785
18.1951
17.7118
17.2285
16.7452
16.262
15.7787
15.2955
14.8124
14.3292
13.8461
13.363
12.8799
12.3969
11.9138
11.4308
10.9478
10.4648
9.98189
9.49895
9.01604
8.53314
8.05026
7.56739
7.08454
6.60171
6.11888
5.63608
5.15328
4.67049
4.18772
3.70495
3.2222
2.73945
2.25671
1.77397
1.29124
0.808512
0.325788
-0.156934
-0.639655
-1.12238
-1.6051
-2.08782
-2.57055
-3.05327
-3.53601
-4.01875
-4.50149
-4.98425
-5.46701
-5.94978
-6.43255
-6.91534
-7.39815
-7.88096
-8.36379
-8.84663
-9.32948
-9.81235
-10.2952
-10.7781
-11.2611
-11.744
-12.227
-12.7099
-13.1929
-13.6759
-14.159
-14.642
-15.1251
-15.6082
-16.0914
-16.5745
-17.0577
-17.5409
-18.0241
-18.5073
-18.9906
-19.4739
-19.9572
-20.4406
-20.924
-21.4075
-21.8914
-22.3775
-22.8693
-23.4271
-24.0996
24.0996
24.0402
24.0402
23.57
23.0558
22.5557
22.0658
21.5801
21.0959
20.6122
20.1286
19.6452
19.1618
18.6784
18.195
17.7117
17.2284
16.7451
16.2619
15.7787
15.2955
14.8123
14.3291
13.846
13.3629
12.8798
12.3968
11.9138
11.4307
10.9477
10.4648
9.98183
9.4989
9.01598
8.53309
8.05021
7.56735
7.0845
6.60167
6.11885
5.63604
5.15325
4.67047
4.18769
3.70493
3.22218
2.73943
2.25669
1.77396
1.29123
0.808505
0.325784
-0.156935
-0.639653
-1.12237
-1.60509
-2.08781
-2.57053
-3.05326
-3.53599
-4.01873
-4.50147
-4.98422
-5.46698
-5.94974
-6.43252
-6.91531
-7.39811
-7.88092
-8.36374
-8.84658
-9.32943
-9.8123
-10.2952
-10.7781
-11.261
-11.7439
-12.2269
-12.7099
-13.1929
-13.6759
-14.1589
-14.642
-15.125
-15.6081
-16.0913
-16.5744
-17.0576
-17.5408
-18.024
-18.5073
-18.9905
-19.4738
-19.9571
-20.4405
-20.9239
-21.4073
-21.8907
-22.3742
-22.8545
-23.3538
-23.6286
23.6286
23.8762
23.8762
23.4662
23.0005
22.5296
22.0547
21.5758
21.0943
20.6116
20.1284
19.645
19.1617
18.6783
18.1949
17.7116
17.2283
16.745
16.2618
15.7786
15.2954
14.8122
14.3291
13.8459
13.3628
12.8798
12.3967
11.9137
11.4307
10.9477
10.4647
9.98177
9.49884
9.01593
8.53303
8.05016
7.5673
7.08445
6.60162
6.11881
5.636
5.15321
4.67043
4.18766
3.70491
3.22215
2.73941
2.25668
1.77394
1.29122
0.808498
0.325779
-0.156937
-0.639652
-1.12237
-1.60508
-2.0878
-2.57052
-3.05324
-3.53597
-4.0187
-4.50144
-4.98419
-5.46694
-5.94971
-6.43248
-6.91527
-7.39806
-7.88087
-8.36369
-8.84653
-9.32938
-9.81224
-10.2951
-10.778
-11.2609
-11.7439
-12.2268
-12.7098
-13.1928
-13.6758
-14.1588
-14.6419
-15.125
-15.6081
-16.0912
-16.5743
-17.0575
-17.5407
-18.0239
-18.5072
-18.9904
-19.4737
-19.957
-20.4404
-20.9237
-21.407
-21.89
-22.3709
-22.841
-23.2733
-23.3471
23.3471
23.7975
23.7975
23.4146
22.9716
22.5152
22.0484
21.5733
21.0934
20.6112
20.1282
19.6449
19.1615
18.6782
18.1948
17.7115
17.2282
16.7449
16.2617
15.7785
15.2953
14.8121
14.329
13.8458
13.3628
12.8797
12.3966
11.9136
11.4306
10.9476
10.4646
9.9817
9.49877
9.01586
8.53297
8.0501
7.56724
7.0844
6.60158
6.11876
5.63596
5.15318
4.6704
4.18763
3.70488
3.22213
2.73939
2.25666
1.77393
1.29121
0.808489
0.325774
-0.156939
-0.63965
-1.12236
-1.60507
-2.08779
-2.5705
-3.05322
-3.53595
-4.01868
-4.50142
-4.98416
-5.46691
-5.94967
-6.43244
-6.91522
-7.39801
-7.88082
-8.36364
-8.84647
-9.32932
-9.81218
-10.2951
-10.778
-11.2609
-11.7438
-12.2267
-12.7097
-13.1927
-13.6757
-14.1587
-14.6418
-15.1249
-15.608
-16.0911
-16.5742
-17.0574
-17.5406
-18.0238
-18.5071
-18.9903
-19.4736
-19.9569
-20.4403
-20.9236
-21.4069
-21.8895
-22.3688
-22.8326
-23.2249
-23.2166
23.2166
23.7974
23.7974
23.4145
22.9715
22.5151
22.0483
21.5732
21.0933
20.6111
20.1281
19.6448
19.1614
18.6781
18.1947
17.7114
17.2281
16.7448
16.2616
15.7784
15.2952
14.812
14.3289
13.8458
13.3627
12.8796
12.3965
11.9135
11.4305
10.9475
10.4646
9.98163
9.4987
9.0158
8.53291
8.05004
7.56719
7.08435
6.60153
6.11872
5.63592
5.15314
4.67036
4.1876
3.70485
3.2221
2.73937
2.25664
1.77391
1.29119
0.80848
0.325769
-0.156941
-0.639649
-1.12236
-1.60507
-2.08778
-2.57049
-3.05321
-3.53593
-4.01865
-4.50139
-4.98413
-5.46687
-5.94963
-6.4324
-6.91518
-7.39796
-7.88077
-8.36358
-8.84641
-9.32925
-9.81211
-10.295
-10.7779
-11.2608
-11.7437
-12.2267
-12.7096
-13.1926
-13.6756
-14.1587
-14.6417
-15.1248
-15.6079
-16.091
-16.5741
-17.0573
-17.5405
-18.0237
-18.5069
-18.9902
-19.4735
-19.9568
-20.4402
-20.9235
-21.4067
-21.8894
-22.3687
-22.8325
-23.2247
-23.2165
23.2165
23.876
23.876
23.4659
23.0002
22.5292
22.0544
21.5755
21.094
20.6113
20.1281
19.6447
19.1613
18.6779
18.1946
17.7113
17.228
16.7447
16.2615
15.7783
15.2951
14.8119
14.3288
13.8457
13.3626
12.8795
12.3964
11.9134
11.4304
10.9474
10.4645
9.98155
9.49863
9.01573
8.53284
8.04998
7.56713
7.08429
6.60147
6.11867
5.63587
5.15309
4.67032
4.18756
3.70481
3.22207
2.73934
2.25662
1.7739
1.29118
0.80847
0.325762
-0.156943
-0.639647
-1.12235
-1.60506
-2.08776
-2.57047
-3.05318
-3.5359
-4.01862
-4.50135
-4.98409
-5.46683
-5.94959
-6.43235
-6.91513
-7.39791
-7.88071
-8.36352
-8.84635
-9.32919
-9.81204
-10.2949
-10.7778
-11.2607
-11.7436
-12.2266
-12.7095
-13.1925
-13.6755
-14.1586
-14.6416
-15.1247
-15.6078
-16.0909
-16.574
-17.0572
-17.5404
-18.0236
-18.5068
-18.9901
-19.4734
-19.9567
-20.44
-20.9234
-21.4067
-21.8896
-22.3705
-22.8406
-23.2729
-23.3467
23.3467
24.0397
24.0397
23.5696
23.0553
22.5551
22.0652
21.5795
21.0953
20.6116
20.128
19.6446
19.1612
18.6778
18.1945
17.7112
17.2279
16.7446
16.2614
15.7781
15.295
14.8118
14.3287
13.8455
13.3625
12.8794
12.3963
11.9133
11.4303
10.9474
10.4644
9.98146
9.49855
9.01565
8.53277
8.04991
7.56706
7.08423
6.60141
6.11861
5.63582
5.15305
4.67028
4.18753
3.70478
3.22204
2.73931
2.25659
1.77388
1.29117
0.80846
0.325756
-0.156946
-0.639646
-1.12235
-1.60505
-2.08775
-2.57045
-3.05316
-3.53588
-4.0186
-4.50132
-4.98405
-5.46679
-5.94954
-6.4323
-6.91507
-7.39785
-7.88065
-8.36346
-8.84628
-9.32911
-9.81197
-10.2948
-10.7777
-11.2606
-11.7435
-12.2265
-12.7094
-13.1924
-13.6754
-14.1584
-14.6415
-15.1246
-15.6077
-16.0908
-16.5739
-17.0571
-17.5403
-18.0235
-18.5067
-18.99
-19.4733
-19.9566
-20.4399
-20.9233
-21.4067
-21.8901
-22.3736
-22.8538
-23.3531
-23.6279
23.6279
24.3008
24.3008
23.7247
23.1304
22.587
22.0775
21.5838
21.0966
20.6119
20.128
19.6445
19.1611
18.6777
18.1943
17.711
17.2277
16.7445
16.2612
15.778
15.2948
14.8117
14.3285
13.8454
13.3623
12.8793
12.3962
11.9132
11.4302
10.9473
10.4643
9.98138
9.49847
9.01557
8.53269
8.04984
7.56699
7.08417
6.60135
6.11856
5.63577
5.153
4.67024
4.18749
3.70474
3.22201
2.73929
2.25657
1.77386
1.29115
0.808449
0.325749
-0.156948
-0.639644
-1.12234
-1.60504
-2.08774
-2.57044
-3.05314
-3.53585
-4.01856
-4.50129
-4.98401
-5.46675
-5.9495
-6.43225
-6.91502
-7.39779
-7.88058
-8.36339
-8.84621
-9.32904
-9.81189
-10.2948
-10.7776
-11.2605
-11.7435
-12.2264
-12.7093
-13.1923
-13.6753
-14.1583
-14.6414
-15.1244
-15.6075
-16.0906
-16.5738
-17.0569
-17.5401
-18.0233
-18.5066
-18.9898
-19.4731
-19.9564
-20.4398
-20.9232
-21.4067
-21.8905
-22.3767
-22.8684
-23.4261
-24.0985
24.0985
24.6445
24.6445
23.9017
23.2036
22.6134
22.0861
21.5864
21.0973
20.612
20.128
19.6444
19.1609
18.6776
18.1942
17.7109
17.2276
16.7443
16.2611
15.7779
15.2947
14.8116
14.3284
13.8453
13.3622
12.8792
12.3961
11.9131
11.4301
10.9472
10.4642
9.9813
9.49839
9.0155
8.53262
8.04977
7.56693
7.08411
6.6013
6.1185
5.63572
5.15295
4.67019
4.18745
3.70471
3.22198
2.73926
2.25655
1.77384
1.29114
0.808439
0.325743
-0.15695
-0.639642
-1.12233
-1.60503
-2.08772
-2.57042
-3.05312
-3.53582
-4.01853
-4.50125
-4.98398
-5.46671
-5.94945
-6.4322
-6.91496
-7.39774
-7.88052
-8.36332
-8.84614
-9.32897
-9.81181
-10.2947
-10.7776
-11.2604
-11.7434
-12.2263
-12.7093
-13.1922
-13.6752
-14.1582
-14.6413
-15.1243
-15.6074
-16.0905
-16.5737
-17.0568
-17.54
-18.0232
-18.5064
-18.9897
-19.473
-19.9563
-20.4397
-20.923
-21.4066
-21.8908
-22.3781
-22.8824
-23.4378
-24.7263
24.7263
24.6445
24.6445
23.9017
23.2036
22.6134
22.0861
21.5864
21.0973
20.612
20.128
19.6444
19.1609
18.6776
18.1942
17.7109
17.2276
16.7443
16.2611
15.7779
15.2947
14.8116
14.3284
13.8453
13.3622
12.8792
12.3961
11.9131
11.4301
10.9472
10.4642
9.9813
9.49839
9.0155
8.53262
8.04977
7.56693
7.08411
6.6013
6.1185
5.63572
5.15295
4.67019
4.18745
3.70471
3.22198
2.73926
2.25655
1.77384
1.29114
0.808439
0.325743
-0.15695
-0.639642
-1.12233
-1.60503
-2.08772
-2.57042
-3.05312
-3.53582
-4.01853
-4.50125
-4.98398
-5.46671
-5.94945
-6.4322
-6.91496
-7.39774
-7.88052
-8.36332
-8.84614
-9.32897
-9.81181
-10.2947
-10.7776
-11.2604
-11.7434
-12.2263
-12.7093
-13.1922
-13.6752
-14.1582
-14.6413
-15.1243
-15.6074
-16.0905
-16.5737
-17.0568
-17.54
-18.0232
-18.5064
-18.9897
-19.473
-19.9563
-20.4397
-20.923
-21.4066
-21.8908
-22.3781
-22.8824
-23.4378
-24.7263
24.7263
