# vtk DataFile Version 2.0
FlowField
ASCII
DATASET STRUCTURED_GRID
DIMENSIONS 102 1 12 
POINTS 1224 double
0 0 0
0.4 0 0
0.8 0 0
1.2 0 0
1.6 0 0
2 0 0
2.4 0 0
2.8 0 0
3.2 0 0
3.6 0 0
4 0 0
4.4 0 0
4.8 0 0
5.2 0 0
5.6 0 0
6 0 0
6.4 0 0
6.8 0 0
7.2 0 0
7.6 0 0
8 0 0
8.4 0 0
8.8 0 0
9.2 0 0
9.6 0 0
10 0 0
10.4 0 0
10.8 0 0
11.2 0 0
11.6 0 0
12 0 0
12.4 0 0
12.8 0 0
13.2 0 0
13.6 0 0
14 0 0
14.4 0 0
14.8 0 0
15.2 0 0
15.6 0 0
16 0 0
16.4 0 0
16.8 0 0
17.2 0 0
17.6 0 0
18 0 0
18.4 0 0
18.8 0 0
19.2 0 0
19.6 0 0
20 0 0
20.4 0 0
20.8 0 0
21.2 0 0
21.6 0 0
22 0 0
22.4 0 0
22.8 0 0
23.2 0 0
23.6 0 0
24 0 0
24.4 0 0
24.8 0 0
25.2 0 0
25.6 0 0
26 0 0
26.4 0 0
26.8 0 0
27.2 0 0
27.6 0 0
28 0 0
28.4 0 0
28.8 0 0
29.2 0 0
29.6 0 0
30 0 0
30.4 0 0
30.8 0 0
31.2 0 0
31.6 0 0
32 0 0
32.4 0 0
32.8 0 0
33.2 0 0
33.6 0 0
34 0 0
34.4 0 0
34.8 0 0
35.2 0 0
35.6 0 0
36 0 0
36.4 0 0
36.8 0 0
37.2 0 0
37.6 0 0
38 0 0
38.4 0 0
38.8 0 0
39.2 0 0
39.6 0 0
40 0 0
40.4 0 0
0 0.1 0
0.4 0.1 0
0.8 0.1 0
1.2 0.1 0
1.6 0.1 0
2 0.1 0
2.4 0.1 0
2.8 0.1 0
3.2 0.1 0
3.6 0.1 0
4 0.1 0
4.4 0.1 0
4.8 0.1 0
5.2 0.1 0
5.6 0.1 0
6 0.1 0
6.4 0.1 0
6.8 0.1 0
7.2 0.1 0
7.6 0.1 0
8 0.1 0
8.4 0.1 0
8.8 0.1 0
9.2 0.1 0
9.6 0.1 0
10 0.1 0
10.4 0.1 0
10.8 0.1 0
11.2 0.1 0
11.6 0.1 0
12 0.1 0
12.4 0.1 0
12.8 0.1 0
13.2 0.1 0
13.6 0.1 0
14 0.1 0
14.4 0.1 0
14.8 0.1 0
15.2 0.1 0
15.6 0.1 0
16 0.1 0
16.4 0.1 0
16.8 0.1 0
17.2 0.1 0
17.6 0.1 0
18 0.1 0
18.4 0.1 0
18.8 0.1 0
19.2 0.1 0
19.6 0.1 0
20 0.1 0
20.4 0.1 0
20.8 0.1 0
21.2 0.1 0
21.6 0.1 0
22 0.1 0
22.4 0.1 0
22.8 0.1 0
23.2 0.1 0
23.6 0.1 0
24 0.1 0
24.4 0.1 0
24.8 0.1 0
25.2 0.1 0
25.6 0.1 0
26 0.1 0
26.4 0.1 0
26.8 0.1 0
27.2 0.1 0
27.6 0.1 0
28 0.1 0
28.4 0.1 0
28.8 0.1 0
29.2 0.1 0
29.6 0.1 0
30 0.1 0
30.4 0.1 0
30.8 0.1 0
31.2 0.1 0
31.6 0.1 0
32 0.1 0
32.4 0.1 0
32.8 0.1 0
33.2 0.1 0
33.6 0.1 0
34 0.1 0
34.4 0.1 0
34.8 0.1 0
35.2 0.1 0
35.6 0.1 0
36 0.1 0
36.4 0.1 0
36.8 0.1 0
37.2 0.1 0
37.6 0.1 0
38 0.1 0
38.4 0.1 0
38.8 0.1 0
39.2 0.1 0
39.6 0.1 0
40 0.1 0
40.4 0.1 0
0 0.2 0
0.4 0.2 0
0.8 0.2 0
1.2 0.2 0
1.6 0.2 0
2 0.2 0
2.4 0.2 0
2.8 0.2 0
3.2 0.2 0
3.6 0.2 0
4 0.2 0
4.4 0.2 0
4.8 0.2 0
5.2 0.2 0
5.6 0.2 0
6 0.2 0
6.4 0.2 0
6.8 0.2 0
7.2 0.2 0
7.6 0.2 0
8 0.2 0
8.4 0.2 0
8.8 0.2 0
9.2 0.2 0
9.6 0.2 0
10 0.2 0
10.4 0.2 0
10.8 0.2 0
11.2 0.2 0
11.6 0.2 0
12 0.2 0
12.4 0.2 0
12.8 0.2 0
13.2 0.2 0
13.6 0.2 0
14 0.2 0
14.4 0.2 0
14.8 0.2 0
15.2 0.2 0
15.6 0.2 0
16 0.2 0
16.4 0.2 0
16.8 0.2 0
17.2 0.2 0
17.6 0.2 0
18 0.2 0
18.4 0.2 0
18.8 0.2 0
19.2 0.2 0
19.6 0.2 0
20 0.2 0
20.4 0.2 0
20.8 0.2 0
21.2 0.2 0
21.6 0.2 0
22 0.2 0
22.4 0.2 0
22.8 0.2 0
23.2 0.2 0
23.6 0.2 0
24 0.2 0
24.4 0.2 0
24.8 0.2 0
25.2 0.2 0
25.6 0.2 0
26 0.2 0
26.4 0.2 0
26.8 0.2 0
27.2 0.2 0
27.6 0.2 0
28 0.2 0
28.4 0.2 0
28.8 0.2 0
29.2 0.2 0
29.6 0.2 0
30 0.2 0
30.4 0.2 0
30.8 0.2 0
31.2 0.2 0
31.6 0.2 0
32 0.2 0
32.4 0.2 0
32.8 0.2 0
33.2 0.2 0
33.6 0.2 0
34 0.2 0
34.4 0.2 0
34.8 0.2 0
35.2 0.2 0
35.6 0.2 0
36 0.2 0
36.4 0.2 0
36.8 0.2 0
37.2 0.2 0
37.6 0.2 0
38 0.2 0
38.4 0.2 0
38.8 0.2 0
39.2 0.2 0
39.6 0.2 0
40 0.2 0
40.4 0.2 0
0 0.3 0
0.4 0.3 0
0.8 0.3 0
1.2 0.3 0
1.6 0.3 0
2 0.3 0
2.4 0.3 0
2.8 0.3 0
3.2 0.3 0
3.6 0.3 0
4 0.3 0
4.4 0.3 0
4.8 0.3 0
5.2 0.3 0
5.6 0.3 0
6 0.3 0
6.4 0.3 0
6.8 0.3 0
7.2 0.3 0
7.6 0.3 0
8 0.3 0
8.4 0.3 0
8.8 0.3 0
9.2 0.3 0
9.6 0.3 0
10 0.3 0
10.4 0.3 0
10.8 0.3 0
11.2 0.3 0
11.6 0.3 0
12 0.3 0
12.4 0.3 0
12.8 0.3 0
13.2 0.3 0
13.6 0.3 0
14 0.3 0
14.4 0.3 0
14.8 0.3 0
15.2 0.3 0
15.6 0.3 0
16 0.3 0
16.4 0.3 0
16.8 0.3 0
17.2 0.3 0
17.6 0.3 0
18 0.3 0
18.4 0.3 0
18.8 0.3 0
19.2 0.3 0
19.6 0.3 0
20 0.3 0
20.4 0.3 0
20.8 0.3 0
21.2 0.3 0
21.6 0.3 0
22 0.3 0
22.4 0.3 0
22.8 0.3 0
23.2 0.3 0
23.6 0.3 0
24 0.3 0
24.4 0.3 0
24.8 0.3 0
25.2 0.3 0
25.6 0.3 0
26 0.3 0
26.4 0.3 0
26.8 0.3 0
27.2 0.3 0
27.6 0.3 0
28 0.3 0
28.4 0.3 0
28.8 0.3 0
29.2 0.3 0
29.6 0.3 0
30 0.3 0
30.4 0.3 0
30.8 0.3 0
31.2 0.3 0
31.6 0.3 0
32 0.3 0
32.4 0.3 0
32.8 0.3 0
33.2 0.3 0
33.6 0.3 0
34 0.3 0
34.4 0.3 0
34.8 0.3 0
35.2 0.3 0
35.6 0.3 0
36 0.3 0
36.4 0.3 0
36.8 0.3 0
37.2 0.3 0
37.6 0.3 0
38 0.3 0
38.4 0.3 0
38.8 0.3 0
39.2 0.3 0
39.6 0.3 0
40 0.3 0
40.4 0.3 0
0 0.4 0
0.4 0.4 0
0.8 0.4 0
1.2 0.4 0
1.6 0.4 0
2 0.4 0
2.4 0.4 0
2.8 0.4 0
3.2 0.4 0
3.6 0.4 0
4 0.4 0
4.4 0.4 0
4.8 0.4 0
5.2 0.4 0
5.6 0.4 0
6 0.4 0
6.4 0.4 0
6.8 0.4 0
7.2 0.4 0
7.6 0.4 0
8 0.4 0
8.4 0.4 0
8.8 0.4 0
9.2 0.4 0
9.6 0.4 0
10 0.4 0
10.4 0.4 0
10.8 0.4 0
11.2 0.4 0
11.6 0.4 0
12 0.4 0
12.4 0.4 0
12.8 0.4 0
13.2 0.4 0
13.6 0.4 0
14 0.4 0
14.4 0.4 0
14.8 0.4 0
15.2 0.4 0
15.6 0.4 0
16 0.4 0
16.4 0.4 0
16.8 0.4 0
17.2 0.4 0
17.6 0.4 0
18 0.4 0
18.4 0.4 0
18.8 0.4 0
19.2 0.4 0
19.6 0.4 0
20 0.4 0
20.4 0.4 0
20.8 0.4 0
21.2 0.4 0
21.6 0.4 0
22 0.4 0
22.4 0.4 0
22.8 0.4 0
23.2 0.4 0
23.6 0.4 0
24 0.4 0
24.4 0.4 0
24.8 0.4 0
25.2 0.4 0
25.6 0.4 0
26 0.4 0
26.4 0.4 0
26.8 0.4 0
27.2 0.4 0
27.6 0.4 0
28 0.4 0
28.4 0.4 0
28.8 0.4 0
29.2 0.4 0
29.6 0.4 0
30 0.4 0
30.4 0.4 0
30.8 0.4 0
31.2 0.4 0
31.6 0.4 0
32 0.4 0
32.4 0.4 0
32.8 0.4 0
33.2 0.4 0
33.6 0.4 0
34 0.4 0
34.4 0.4 0
34.8 0.4 0
35.2 0.4 0
35.6 0.4 0
36 0.4 0
36.4 0.4 0
36.8 0.4 0
37.2 0.4 0
37.6 0.4 0
38 0.4 0
38.4 0.4 0
38.8 0.4 0
39.2 0.4 0
39.6 0.4 0
40 0.4 0
40.4 0.4 0
0 0.5 0
0.4 0.5 0
0.8 0.5 0
1.2 0.5 0
1.6 0.5 0
2 0.5 0
2.4 0.5 0
2.8 0.5 0
3.2 0.5 0
3.6 0.5 0
4 0.5 0
4.4 0.5 0
4.8 0.5 0
5.2 0.5 0
5.6 0.5 0
6 0.5 0
6.4 0.5 0
6.8 0.5 0
7.2 0.5 0
7.6 0.5 0
8 0.5 0
8.4 0.5 0
8.8 0.5 0
9.2 0.5 0
9.6 0.5 0
10 0.5 0
10.4 0.5 0
10.8 0.5 0
11.2 0.5 0
11.6 0.5 0
12 0.5 0
12.4 0.5 0
12.8 0.5 0
13.2 0.5 0
13.6 0.5 0
14 0.5 0
14.4 0.5 0
14.8 0.5 0
15.2 0.5 0
15.6 0.5 0
16 0.5 0
16.4 0.5 0
16.8 0.5 0
17.2 0.5 0
17.6 0.5 0
18 0.5 0
18.4 0.5 0
18.8 0.5 0
19.2 0.5 0
19.6 0.5 0
20 0.5 0
20.4 0.5 0
20.8 0.5 0
21.2 0.5 0
21.6 0.5 0
22 0.5 0
22.4 0.5 0
22.8 0.5 0
23.2 0.5 0
23.6 0.5 0
24 0.5 0
24.4 0.5 0
24.8 0.5 0
25.2 0.5 0
25.6 0.5 0
26 0.5 0
26.4 0.5 0
26.8 0.5 0
27.2 0.5 0
27.6 0.5 0
28 0.5 0
28.4 0.5 0
28.8 0.5 0
29.2 0.5 0
29.6 0.5 0
30 0.5 0
30.4 0.5 0
30.8 0.5 0
31.2 0.5 0
31.6 0.5 0
32 0.5 0
32.4 0.5 0
32.8 0.5 0
33.2 0.5 0
33.6 0.5 0
34 0.5 0
34.4 0.5 0
34.8 0.5 0
35.2 0.5 0
35.6 0.5 0
36 0.5 0
36.4 0.5 0
36.8 0.5 0
37.2 0.5 0
37.6 0.5 0
38 0.5 0
38.4 0.5 0
38.8 0.5 0
39.2 0.5 0
39.6 0.5 0
40 0.5 0
40.4 0.5 0
0 0.6 0
0.4 0.6 0
0.8 0.6 0
1.2 0.6 0
1.6 0.6 0
2 0.6 0
2.4 0.6 0
2.8 0.6 0
3.2 0.6 0
3.6 0.6 0
4 0.6 0
4.4 0.6 0
4.8 0.6 0
5.2 0.6 0
5.6 0.6 0
6 0.6 0
6.4 0.6 0
6.8 0.6 0
7.2 0.6 0
7.6 0.6 0
8 0.6 0
8.4 0.6 0
8.8 0.6 0
9.2 0.6 0
9.6 0.6 0
10 0.6 0
10.4 0.6 0
10.8 0.6 0
11.2 0.6 0
11.6 0.6 0
12 0.6 0
12.4 0.6 0
12.8 0.6 0
13.2 0.6 0
13.6 0.6 0
14 0.6 0
14.4 0.6 0
14.8 0.6 0
15.2 0.6 0
15.6 0.6 0
16 0.6 0
16.4 0.6 0
16.8 0.6 0
17.2 0.6 0
17.6 0.6 0
18 0.6 0
18.4 0.6 0
18.8 0.6 0
19.2 0.6 0
19.6 0.6 0
20 0.6 0
20.4 0.6 0
20.8 0.6 0
21.2 0.6 0
21.6 0.6 0
22 0.6 0
22.4 0.6 0
22.8 0.6 0
23.2 0.6 0
23.6 0.6 0
24 0.6 0
24.4 0.6 0
24.8 0.6 0
25.2 0.6 0
25.6 0.6 0
26 0.6 0
26.4 0.6 0
26.8 0.6 0
27.2 0.6 0
27.6 0.6 0
28 0.6 0
28.4 0.6 0
28.8 0.6 0
29.2 0.6 0
29.6 0.6 0
30 0.6 0
30.4 0.6 0
30.8 0.6 0
31.2 0.6 0
31.6 0.6 0
32 0.6 0
32.4 0.6 0
32.8 0.6 0
33.2 0.6 0
33.6 0.6 0
34 0.6 0
34.4 0.6 0
34.8 0.6 0
35.2 0.6 0
35.6 0.6 0
36 0.6 0
36.4 0.6 0
36.8 0.6 0
37.2 0.6 0
37.6 0.6 0
38 0.6 0
38.4 0.6 0
38.8 0.6 0
39.2 0.6 0
39.6 0.6 0
40 0.6 0
40.4 0.6 0
0 0.7 0
0.4 0.7 0
0.8 0.7 0
1.2 0.7 0
1.6 0.7 0
2 0.7 0
2.4 0.7 0
2.8 0.7 0
3.2 0.7 0
3.6 0.7 0
4 0.7 0
4.4 0.7 0
4.8 0.7 0
5.2 0.7 0
5.6 0.7 0
6 0.7 0
6.4 0.7 0
6.8 0.7 0
7.2 0.7 0
7.6 0.7 0
8 0.7 0
8.4 0.7 0
8.8 0.7 0
9.2 0.7 0
9.6 0.7 0
10 0.7 0
10.4 0.7 0
10.8 0.7 0
11.2 0.7 0
11.6 0.7 0
12 0.7 0
12.4 0.7 0
12.8 0.7 0
13.2 0.7 0
13.6 0.7 0
14 0.7 0
14.4 0.7 0
14.8 0.7 0
15.2 0.7 0
15.6 0.7 0
16 0.7 0
16.4 0.7 0
16.8 0.7 0
17.2 0.7 0
17.6 0.7 0
18 0.7 0
18.4 0.7 0
18.8 0.7 0
19.2 0.7 0
19.6 0.7 0
20 0.7 0
20.4 0.7 0
20.8 0.7 0
21.2 0.7 0
21.6 0.7 0
22 0.7 0
22.4 0.7 0
22.8 0.7 0
23.2 0.7 0
23.6 0.7 0
24 0.7 0
24.4 0.7 0
24.8 0.7 0
25.2 0.7 0
25.6 0.7 0
26 0.7 0
26.4 0.7 0
26.8 0.7 0
27.2 0.7 0
27.6 0.7 0
28 0.7 0
28.4 0.7 0
28.8 0.7 0
29.2 0.7 0
29.6 0.7 0
30 0.7 0
30.4 0.7 0
30.8 0.7 0
31.2 0.7 0
31.6 0.7 0
32 0.7 0
32.4 0.7 0
32.8 0.7 0
33.2 0.7 0
33.6 0.7 0
34 0.7 0
34.4 0.7 0
34.8 0.7 0
35.2 0.7 0
35.6 0.7 0
36 0.7 0
36.4 0.7 0
36.8 0.7 0
37.2 0.7 0
37.6 0.7 0
38 0.7 0
38.4 0.7 0
38.8 0.7 0
39.2 0.7 0
39.6 0.7 0
40 0.7 0
40.4 0.7 0
0 0.8 0
0.4 0.8 0
0.8 0.8 0
1.2 0.8 0
1.6 0.8 0
2 0.8 0
2.4 0.8 0
2.8 0.8 0
3.2 0.8 0
3.6 0.8 0
4 0.8 0
4.4 0.8 0
4.8 0.8 0
5.2 0.8 0
5.6 0.8 0
6 0.8 0
6.4 0.8 0
6.8 0.8 0
7.2 0.8 0
7.6 0.8 0
8 0.8 0
8.4 0.8 0
8.8 0.8 0
9.2 0.8 0
9.6 0.8 0
10 0.8 0
10.4 0.8 0
10.8 0.8 0
11.2 0.8 0
11.6 0.8 0
12 0.8 0
12.4 0.8 0
12.8 0.8 0
13.2 0.8 0
13.6 0.8 0
14 0.8 0
14.4 0.8 0
14.8 0.8 0
15.2 0.8 0
15.6 0.8 0
16 0.8 0
16.4 0.8 0
16.8 0.8 0
17.2 0.8 0
17.6 0.8 0
18 0.8 0
18.4 0.8 0
18.8 0.8 0
19.2 0.8 0
19.6 0.8 0
20 0.8 0
20.4 0.8 0
20.8 0.8 0
21.2 0.8 0
21.6 0.8 0
22 0.8 0
22.4 0.8 0
22.8 0.8 0
23.2 0.8 0
23.6 0.8 0
24 0.8 0
24.4 0.8 0
24.8 0.8 0
25.2 0.8 0
25.6 0.8 0
26 0.8 0
26.4 0.8 0
26.8 0.8 0
27.2 0.8 0
27.6 0.8 0
28 0.8 0
28.4 0.8 0
28.8 0.8 0
29.2 0.8 0
29.6 0.8 0
30 0.8 0
30.4 0.8 0
30.8 0.8 0
31.2 0.8 0
31.6 0.8 0
32 0.8 0
32.4 0.8 0
32.8 0.8 0
33.2 0.8 0
33.6 0.8 0
34 0.8 0
34.4 0.8 0
34.8 0.8 0
35.2 0.8 0
35.6 0.8 0
36 0.8 0
36.4 0.8 0
36.8 0.8 0
37.2 0.8 0
37.6 0.8 0
38 0.8 0
38.4 0.8 0
38.8 0.8 0
39.2 0.8 0
39.6 0.8 0
40 0.8 0
40.4 0.8 0
0 0.9 0
0.4 0.9 0
0.8 0.9 0
1.2 0.9 0
1.6 0.9 0
2 0.9 0
2.4 0.9 0
2.8 0.9 0
3.2 0.9 0
3.6 0.9 0
4 0.9 0
4.4 0.9 0
4.8 0.9 0
5.2 0.9 0
5.6 0.9 0
6 0.9 0
6.4 0.9 0
6.8 0.9 0
7.2 0.9 0
7.6 0.9 0
8 0.9 0
8.4 0.9 0
8.8 0.9 0
9.2 0.9 0
9.6 0.9 0
10 0.9 0
10.4 0.9 0
10.8 0.9 0
11.2 0.9 0
11.6 0.9 0
12 0.9 0
12.4 0.9 0
12.8 0.9 0
13.2 0.9 0
13.6 0.9 0
14 0.9 0
14.4 0.9 0
14.8 0.9 0
15.2 0.9 0
15.6 0.9 0
16 0.9 0
16.4 0.9 0
16.8 0.9 0
17.2 0.9 0
17.6 0.9 0
18 0.9 0
18.4 0.9 0
18.8 0.9 0
19.2 0.9 0
19.6 0.9 0
20 0.9 0
20.4 0.9 0
20.8 0.9 0
21.2 0.9 0
21.6 0.9 0
22 0.9 0
22.4 0.9 0
22.8 0.9 0
23.2 0.9 0
23.6 0.9 0
24 0.9 0
24.4 0.9 0
24.8 0.9 0
25.2 0.9 0
25.6 0.9 0
26 0.9 0
26.4 0.9 0
26.8 0.9 0
27.2 0.9 0
27.6 0.9 0
28 0.9 0
28.4 0.9 0
28.8 0.9 0
29.2 0.9 0
29.6 0.9 0
30 0.9 0
30.4 0.9 0
30.8 0.9 0
31.2 0.9 0
31.6 0.9 0
32 0.9 0
32.4 0.9 0
32.8 0.9 0
33.2 0.9 0
33.6 0.9 0
34 0.9 0
34.4 0.9 0
34.8 0.9 0
35.2 0.9 0
35.6 0.9 0
36 0.9 0
36.4 0.9 0
36.8 0.9 0
37.2 0.9 0
37.6 0.9 0
38 0.9 0
38.4 0.9 0
38.8 0.9 0
39.2 0.9 0
39.6 0.9 0
40 0.9 0
40.4 0.9 0
0 1 0
0.4 1 0
0.8 1 0
1.2 1 0
1.6 1 0
2 1 0
2.4 1 0
2.8 1 0
3.2 1 0
3.6 1 0
4 1 0
4.4 1 0
4.8 1 0
5.2 1 0
5.6 1 0
6 1 0
6.4 1 0
6.8 1 0
7.2 1 0
7.6 1 0
8 1 0
8.4 1 0
8.8 1 0
9.2 1 0
9.6 1 0
10 1 0
10.4 1 0
10.8 1 0
11.2 1 0
11.6 1 0
12 1 0
12.4 1 0
12.8 1 0
13.2 1 0
13.6 1 0
14 1 0
14.4 1 0
14.8 1 0
15.2 1 0
15.6 1 0
16 1 0
16.4 1 0
16.8 1 0
17.2 1 0
17.6 1 0
18 1 0
18.4 1 0
18.8 1 0
19.2 1 0
19.6 1 0
20 1 0
20.4 1 0
20.8 1 0
21.2 1 0
21.6 1 0
22 1 0
22.4 1 0
22.8 1 0
23.2 1 0
23.6 1 0
24 1 0
24.4 1 0
24.8 1 0
25.2 1 0
25.6 1 0
26 1 0
26.4 1 0
26.8 1 0
27.2 1 0
27.6 1 0
28 1 0
28.4 1 0
28.8 1 0
29.2 1 0
29.6 1 0
30 1 0
30.4 1 0
30.8 1 0
31.2 1 0
31.6 1 0
32 1 0
32.4 1 0
32.8 1 0
33.2 1 0
33.6 1 0
34 1 0
34.4 1 0
34.8 1 0
35.2 1 0
35.6 1 0
36 1 0
36.4 1 0
36.8 1 0
37.2 1 0
37.6 1 0
38 1 0
38.4 1 0
38.8 1 0
39.2 1 0
39.6 1 0
40 1 0
40.4 1 0
0 1.1 0
0.4 1.1 0
0.8 1.1 0
1.2 1.1 0
1.6 1.1 0
2 1.1 0
2.4 1.1 0
2.8 1.1 0
3.2 1.1 0
3.6 1.1 0
4 1.1 0
4.4 1.1 0
4.8 1.1 0
5.2 1.1 0
5.6 1.1 0
6 1.1 0
6.4 1.1 0
6.8 1.1 0
7.2 1.1 0
7.6 1.1 0
8 1.1 0
8.4 1.1 0
8.8 1.1 0
9.2 1.1 0
9.6 1.1 0
10 1.1 0
10.4 1.1 0
10.8 1.1 0
11.2 1.1 0
11.6 1.1 0
12 1.1 0
12.4 1.1 0
12.8 1.1 0
13.2 1.1 0
13.6 1.1 0
14 1.1 0
14.4 1.1 0
14.8 1.1 0
15.2 1.1 0
15.6 1.1 0
16 1.1 0
16.4 1.1 0
16.8 1.1 0
17.2 1.1 0
17.6 1.1 0
18 1.1 0
18.4 1.1 0
18.8 1.1 0
19.2 1.1 0
19.6 1.1 0
20 1.1 0
20.4 1.1 0
20.8 1.1 0
21.2 1.1 0
21.6 1.1 0
22 1.1 0
22.4 1.1 0
22.8 1.1 0
23.2 1.1 0
23.6 1.1 0
24 1.1 0
24.4 1.1 0
24.8 1.1 0
25.2 1.1 0
25.6 1.1 0
26 1.1 0
26.4 1.1 0
26.8 1.1 0
27.2 1.1 0
27.6 1.1 0
28 1.1 0
28.4 1.1 0
28.8 1.1 0
29.2 1.1 0
29.6 1.1 0
30 1.1 0
30.4 1.1 0
30.8 1.1 0
31.2 1.1 0
31.6 1.1 0
32 1.1 0
32.4 1.1 0
32.8 1.1 0
33.2 1.1 0
33.6 1.1 0
34 1.1 0
34.4 1.1 0
34.8 1.1 0
35.2 1.1 0
35.6 1.1 0
36 1.1 0
36.4 1.1 0
36.8 1.1 0
37.2 1.1 0
37.6 1.1 0
38 1.1 0
38.4 1.1 0
38.8 1.1 0
39.2 1.1 0
39.6 1.1 0
40 1.1 0
40.4 1.1 0

POINT_DATA 1224

SCALARS phi double
LOOKUP_TABLE default
0.999994
1.00001
0.999956
0.999559
0.998299
0.995701
0.991537
0.9858
0.978614
0.970166
0.960672
0.950352
0.939404
0.92795
0.916002
0.903426
0.889953
0.875224
0.858847
0.840469
0.81983
0.796796
0.771375
0.743699
0.714012
0.68263
0.64992
0.616265
0.582047
0.547621
0.513314
0.479409
0.446146
0.413722
0.382294
0.351982
0.322873
0.295028
0.268484
0.243263
0.219377
0.196826
0.175611
0.155727
0.137174
0.11995
0.104057
0.0894924
0.0762519
0.064324
0.053687
0.0443066
0.0361342
0.0291064
0.0231455
0.0181621
0.0140581
0.0107303
0.00807417
0.00598819
0.00437651
0.00315166
0.00223609
0.00156297
0.00107625
0.000730086
0.000487914
0.000321248
0.000208396
0.000133206
8.39031e-05
5.20833e-05
3.18661e-05
1.92185e-05
1.14267e-05
6.69867e-06
3.87237e-06
2.20772e-06
1.2415e-06
6.88722e-07
3.76959e-07
2.0359e-07
1.08515e-07
5.70889e-08
2.96485e-08
1.5202e-08
7.69664e-09
3.84825e-09
1.90039e-09
9.27029e-10
4.46758e-10
2.12733e-10
1.00099e-10
4.65496e-11
2.13964e-11
9.72199e-12
4.36728e-12
1.93982e-12
8.51842e-13
3.71345e-13
1.49147e-13
1.49147e-13
0.999994
1.00001
0.999956
0.999559
0.998299
0.995701
0.991537
0.9858
0.978614
0.970166
0.960672
0.950352
0.939404
0.92795
0.916002
0.903426
0.889953
0.875224
0.858847
0.840469
0.81983
0.796796
0.771375
0.743699
0.714012
0.68263
0.64992
0.616265
0.582047
0.547621
0.513314
0.479409
0.446146
0.413722
0.382294
0.351982
0.322873
0.295028
0.268484
0.243263
0.219377
0.196826
0.175611
0.155727
0.137174
0.11995
0.104057
0.0894924
0.0762519
0.064324
0.053687
0.0443066
0.0361342
0.0291064
0.0231455
0.0181621
0.0140581
0.0107303
0.00807417
0.00598819
0.00437651
0.00315166
0.00223609
0.00156297
0.00107625
0.000730086
0.000487914
0.000321248
0.000208396
0.000133206
8.39031e-05
5.20833e-05
3.18661e-05
1.92185e-05
1.14267e-05
6.69867e-06
3.87237e-06
2.20772e-06
1.2415e-06
6.88722e-07
3.76959e-07
2.0359e-07
1.08515e-07
5.70889e-08
2.96485e-08
1.5202e-08
7.69664e-09
3.84825e-09
1.90039e-09
9.27029e-10
4.46758e-10
2.12733e-10
1.00099e-10
4.65496e-11
2.13964e-11
9.72199e-12
4.36728e-12
1.93982e-12
8.51842e-13
3.71345e-13
1.49147e-13
1.49147e-13
0.99999
1.00001
0.999544
0.998171
0.995436
0.991089
0.985124
0.977695
0.969018
0.959325
0.948838
0.937761
0.926272
0.914507
0.902537
0.890342
0.877801
0.864697
0.850746
0.835639
0.819083
0.800841
0.780762
0.758788
0.734961
0.709407
0.68232
0.653944
0.624551
0.594426
0.563848
0.533084
0.502376
0.471939
0.44196
0.412592
0.383963
0.356171
0.329292
0.30338
0.27847
0.254584
0.231735
0.209929
0.18917
0.169463
0.15082
0.133258
0.116801
0.10148
0.0873283
0.074375
0.0626429
0.0521414
0.0428624
0.0347773
0.0278366
0.0219704
0.0170921
0.0131024
0.00989451
0.00735929
0.00539029
0.00388758
0.00276065
0.00193018
0.00132874
0.000900642
0.000601119
0.000395091
0.000255741
0.000163049
0.0001024
6.33573e-05
3.86252e-05
2.32049e-05
1.374e-05
8.01963e-06
4.61473e-06
2.61835e-06
1.46509e-06
8.08575e-07
4.40212e-07
2.36458e-07
1.25331e-07
6.55608e-08
3.38509e-08
1.72544e-08
8.68349e-09
4.31534e-09
2.11798e-09
1.02677e-09
4.9173e-10
2.3267e-10
1.08785e-10
5.0265e-11
2.29556e-11
1.03632e-11
4.62403e-12
2.04859e-12
8.31949e-13
8.31949e-13
1.00047
0.999533
0.995342
0.988481
0.979264
0.968242
0.956033
0.943148
0.929951
0.916682
0.903496
0.890497
0.877748
0.86529
0.853137
0.841267
0.829616
0.81807
0.806461
0.794585
0.782211
0.769109
0.755068
0.739914
0.723525
0.705836
0.686839
0.66658
0.64515
0.622674
0.599303
0.575201
0.55054
0.525487
0.500206
0.474845
0.449539
0.424406
0.399547
0.375044
0.350963
0.32735
0.304239
0.28165
0.259596
0.238088
0.21714
0.196781
0.177055
0.158027
0.139784
0.122431
0.106082
0.0908533
0.0768503
0.0641571
0.0528281
0.0428812
0.0342965
0.0270176
0.0209569
0.0160025
0.0120268
0.00889548
0.00647458
0.00463732
0.00326843
0.00226697
0.00154745
0.00103966
0.000687561
0.000447643
0.000286953
0.000181138
0.000112613
6.89639e-05
4.16076e-05
2.47351e-05
1.44915e-05
8.36848e-06
4.76411e-06
2.67418e-06
1.48028e-06
8.08187e-07
4.35276e-07
2.31297e-07
1.21282e-07
6.27641e-08
3.20612e-08
1.61683e-08
8.05069e-09
3.95863e-09
1.92249e-09
9.22246e-10
4.37074e-10
2.04667e-10
9.4706e-11
4.33122e-11
1.95738e-11
8.78416e-12
3.60479e-12
3.60479e-12
1.00913
0.990874
0.963593
0.936344
0.910573
0.88679
0.865195
0.845729
0.828186
0.812315
0.797874
0.784649
0.77246
0.761159
0.750622
0.740741
0.731417
0.722544
0.714008
0.705677
0.697404
0.689027
0.680382
0.671303
0.661641
0.651263
0.640066
0.627974
0.614943
0.60096
0.586039
0.570218
0.553553
0.536114
0.517983
0.499245
0.479987
0.460295
0.440251
0.419929
0.399396
0.378705
0.357898
0.337003
0.31604
0.29502
0.27396
0.252886
0.231846
0.210918
0.190218
0.169898
0.150143
0.13116
0.113163
0.0963541
0.0809097
0.0669627
0.0545941
0.0438287
0.0346358
0.0269361
0.0206113
0.0155162
0.0114905
0.00837057
0.00599849
0.0042288
0.00293301
0.00200158
0.00134414
0.00088835
0.000577902
0.0003701
0.000233372
0.000144916
8.86319e-05
5.34008e-05
3.17003e-05
1.85443e-05
1.06922e-05
6.0772e-06
3.40563e-06
1.88201e-06
1.02577e-06
5.51505e-07
2.92547e-07
1.53128e-07
7.91039e-08
4.03358e-08
2.03048e-08
1.00922e-08
4.95359e-09
2.40137e-09
1.14991e-09
5.43998e-10
2.54282e-10
1.17458e-10
5.36074e-11
2.42975e-11
1.00576e-11
1.00576e-11
1.10476
0.895237
0.791779
0.734418
0.698349
0.673559
0.65547
0.641661
0.630713
0.621752
0.614215
0.607733
0.602055
0.597005
0.592457
0.588317
0.58451
0.580974
0.57765
0.574476
0.571384
0.568296
0.565125
0.561777
0.55815
0.554142
0.549655
0.544593
0.538873
0.532424
0.525186
0.517115
0.508184
0.498375
0.487686
0.476126
0.463714
0.450476
0.436445
0.42166
0.406158
0.389976
0.373145
0.355691
0.33763
0.318976
0.299746
0.279969
0.259695
0.239013
0.218055
0.197002
0.17608
0.155552
0.135704
0.116817
0.0991552
0.0829374
0.0683262
0.0554168
0.0442349
0.0347414
0.0268414
0.0203979
0.0152461
0.0112076
0.00810326
0.00576258
0.00403107
0.00277404
0.00187823
0.00125138
0.000820524
0.000529577
0.000336491
0.000210521
0.00012971
7.87192e-05
4.70648e-05
2.77266e-05
1.60975e-05
9.21211e-06
5.19725e-06
2.8912e-06
1.58615e-06
8.58321e-07
4.58209e-07
2.41355e-07
1.25458e-07
6.43664e-08
3.2599e-08
1.63005e-08
8.04844e-09
3.92466e-09
1.8903e-09
8.99421e-10
4.22819e-10
1.96414e-10
9.01436e-11
4.10881e-11
1.70938e-11
1.70938e-11
-0.104763
0.104763
0.208221
0.265582
0.301651
0.326442
0.34453
0.358339
0.369287
0.378249
0.385785
0.392267
0.397945
0.402995
0.407544
0.411685
0.415488
0.419005
0.422274
0.425319
0.428153
0.430775
0.43317
0.435312
0.437161
0.438665
0.439764
0.440387
0.440461
0.439909
0.438654
0.436622
0.433744
0.429958
0.425211
0.41946
0.412676
0.404838
0.395941
0.385986
0.374987
0.362961
0.349929
0.335911
0.320929
0.305005
0.28817
0.270472
0.251985
0.232819
0.213134
0.193136
0.173078
0.15325
0.133959
0.115512
0.0981913
0.0822348
0.0678208
0.0550581
0.0439839
0.034568
0.0267234
0.0203187
0.0151936
0.0111734
0.00808119
0.00574856
0.00402229
0.00276862
0.00187493
0.00124939
0.000819349
0.000528891
0.000336094
0.000210296
0.000129583
7.86491e-05
4.70265e-05
2.77059e-05
1.60865e-05
9.20631e-06
5.19424e-06
2.88965e-06
1.58537e-06
8.57929e-07
4.58015e-07
2.4126e-07
1.25412e-07
6.43446e-08
3.25888e-08
1.62957e-08
8.04624e-09
3.92365e-09
1.88985e-09
8.9922e-10
4.2273e-10
1.96375e-10
9.0127e-11
4.1081e-11
1.7091e-11
1.7091e-11
-0.00912621
0.00912621
0.036407
0.0636559
0.0894265
0.11321
0.134805
0.154271
0.171814
0.187685
0.202126
0.215351
0.22754
0.238843
0.249382
0.259257
0.268552
0.277333
0.285655
0.29356
0.301077
0.308225
0.315012
0.321428
0.327454
0.333056
0.338185
0.342782
0.346776
0.350091
0.352642
0.354345
0.355117
0.35488
0.353565
0.351112
0.347477
0.34263
0.336555
0.329252
0.320735
0.311027
0.300162
0.288178
0.275123
0.26105
0.246028
0.230148
0.213527
0.196317
0.178708
0.160928
0.143235
0.125903
0.109212
0.0934222
0.0787618
0.0654096
0.0534861
0.0430487
0.0340942
0.0265652
0.0203608
0.0153492
0.0113808
0.00829953
0.0059531
0.00420021
0.00291525
0.00199069
0.00133756
0.000884427
0.000575594
0.000368762
0.000232606
0.000144483
8.83907e-05
5.32681e-05
3.16282e-05
1.85057e-05
1.06718e-05
6.06654e-06
3.40013e-06
1.87921e-06
1.02436e-06
5.50804e-07
2.92203e-07
1.52961e-07
7.90238e-08
4.02979e-08
2.0287e-08
1.0084e-08
4.94983e-09
2.39967e-09
1.14915e-09
5.43662e-10
2.54135e-10
1.17394e-10
5.35801e-11
2.42859e-11
1.0053e-11
1.0053e-11
-0.000467025
0.000467025
0.00465756
0.0115186
0.0207356
0.0317579
0.0439669
0.0568515
0.0700489
0.0833181
0.0965028
0.109503
0.122254
0.134717
0.146867
0.15869
0.170177
0.181324
0.192127
0.202581
0.212675
0.222393
0.231709
0.240588
0.248982
0.256832
0.264068
0.270611
0.276375
0.281269
0.285203
0.288088
0.289844
0.290402
0.289707
0.287719
0.284417
0.279801
0.273889
0.266716
0.258334
0.248807
0.238213
0.226638
0.214181
0.200949
0.187067
0.172675
0.157934
0.143023
0.128142
0.1135
0.0993119
0.0857829
0.0730995
0.0614175
0.0508526
0.0414752
0.033309
0.0263334
0.0204891
0.015687
0.011817
0.00875779
0.00638548
0.00458045
0.00323263
0.00224474
0.00153384
0.00103143
0.00068266
0.000444762
0.000285282
0.000180181
0.000112073
6.8663e-05
4.14421e-05
2.46452e-05
1.44434e-05
8.343e-06
4.7508e-06
2.66731e-06
1.47678e-06
8.06427e-07
4.34401e-07
2.30867e-07
1.21074e-07
6.26641e-08
3.20138e-08
1.61461e-08
8.04042e-09
3.95393e-09
1.92036e-09
9.21294e-10
4.36653e-10
2.04482e-10
9.46262e-11
4.3278e-11
1.95594e-11
8.77807e-12
3.60244e-12
3.60244e-12
9.54838e-06
-9.54838e-06
0.000456061
0.00182854
0.00456363
0.00891113
0.0148752
0.0223044
0.0309812
0.0406737
0.0511603
0.0622408
0.0737403
0.0855096
0.0974237
0.109379
0.121289
0.133081
0.144689
0.156051
0.167102
0.177774
0.187992
0.197671
0.206718
0.215034
0.222515
0.229054
0.234548
0.238901
0.242025
0.243848
0.244318
0.243399
0.241081
0.237376
0.232319
0.22597
0.218406
0.209725
0.200039
0.189475
0.178167
0.166262
0.153909
0.141269
0.128501
0.115773
0.103249
0.0910911
0.0794532
0.0684743
0.0582737
0.0489451
0.0405528
0.0331292
0.0266754
0.0211629
0.0165378
0.0127269
0.00964346
0.00719369
0.00528251
0.00381838
0.00271681
0.00190277
0.00131184
0.000890362
0.000594948
0.000391435
0.000253605
0.000161817
0.000101698
6.29633e-05
3.84067e-05
2.30854e-05
1.36754e-05
7.98515e-06
4.59657e-06
2.6089e-06
1.46023e-06
8.06111e-07
4.38977e-07
2.35846e-07
1.25032e-07
6.5416e-08
3.37817e-08
1.72217e-08
8.66822e-09
4.3083e-09
2.11476e-09
1.02532e-09
4.91082e-10
2.32384e-10
1.0866e-10
5.02112e-11
2.29326e-11
1.03535e-11
4.61997e-12
2.04691e-12
8.31305e-13
8.31305e-13
5.82415e-06
-5.82415e-06
4.36943e-05
0.000440585
0.00170024
0.00429825
0.00846288
0.0141997
0.0213849
0.0298313
0.039327
0.0496587
0.0606263
0.0720505
0.0837755
0.0956672
0.107609
0.119498
0.131237
0.142729
0.153875
0.164569
0.174698
0.184142
0.192777
0.200477
0.20712
0.21259
0.216786
0.21962
0.221027
0.220966
0.219421
0.216404
0.211953
0.206135
0.199039
0.190777
0.181481
0.1713
0.160393
0.148931
0.137091
0.125051
0.11299
0.101081
0.0894898
0.0783685
0.0678517
0.0580524
0.0490589
0.0409316
0.0337027
0.0273759
0.0219291
0.0173179
0.0134796
0.0103389
0.00781281
0.00581592
0.00426444
0.0030797
0.00219049
0.00153446
0.00105865
0.000719368
0.000481472
0.000317426
0.000206158
0.000131912
8.31652e-05
5.16676e-05
3.1635e-05
1.90916e-05
1.13579e-05
6.66185e-06
3.85291e-06
2.19756e-06
1.23626e-06
6.86051e-07
3.75615e-07
2.02921e-07
1.08186e-07
5.69293e-08
2.95719e-08
1.51656e-08
7.67959e-09
3.84034e-09
1.89676e-09
9.25385e-10
4.46021e-10
2.12406e-10
9.99559e-11
4.64873e-11
2.13697e-11
9.71064e-12
4.36251e-12
1.93784e-12
8.51026e-13
3.71012e-13
1.49021e-13
1.49021e-13
5.82415e-06
-5.82415e-06
4.36943e-05
0.000440585
0.00170024
0.00429825
0.00846288
0.0141997
0.0213849
0.0298313
0.039327
0.0496587
0.0606263
0.0720505
0.0837755
0.0956672
0.107609
0.119498
0.131237
0.142729
0.153875
0.164569
0.174698
0.184142
0.192777
0.200477
0.20712
0.21259
0.216786
0.21962
0.221027
0.220966
0.219421
0.216404
0.211953
0.206135
0.199039
0.190777
0.181481
0.1713
0.160393
0.148931
0.137091
0.125051
0.11299
0.101081
0.0894898
0.0783685
0.0678517
0.0580524
0.0490589
0.0409316
0.0337027
0.0273759
0.0219291
0.0173179
0.0134796
0.0103389
0.00781281
0.00581592
0.00426444
0.0030797
0.00219049
0.00153446
0.00105865
0.000719368
0.000481472
0.000317426
0.000206158
0.000131912
8.31652e-05
5.16676e-05
3.1635e-05
1.90916e-05
1.13579e-05
6.66185e-06
3.85291e-06
2.19756e-06
1.23626e-06
6.86051e-07
3.75615e-07
2.02921e-07
1.08186e-07
5.69293e-08
2.95719e-08
1.51656e-08
7.67959e-09
3.84034e-09
1.89676e-09
9.25385e-10
4.46021e-10
2.12406e-10
9.99559e-11
4.64873e-11
2.13697e-11
9.71064e-12
4.36251e-12
1.93784e-12
8.51026e-13
3.71012e-13
1.49021e-13
1.49021e-13
