# vtk DataFile Version 2.0
FlowField
ASCII
DATASET STRUCTURED_GRID
DIMENSIONS 102 13 1 
POINTS 1326 double
0 0 0
0.3 0 0
0.6 0 0
0.9 0 0
1.2 0 0
1.5 0 0
1.8 0 0
2.1 0 0
2.4 0 0
2.7 0 0
3 0 0
3.3 0 0
3.6 0 0
3.9 0 0
4.2 0 0
4.5 0 0
4.8 0 0
5.1 0 0
5.4 0 0
5.7 0 0
6 0 0
6.3 0 0
6.6 0 0
6.9 0 0
7.2 0 0
7.5 0 0
7.8 0 0
8.1 0 0
8.4 0 0
8.7 0 0
9 0 0
9.3 0 0
9.6 0 0
9.9 0 0
10.2 0 0
10.5 0 0
10.8 0 0
11.1 0 0
11.4 0 0
11.7 0 0
12 0 0
12.3 0 0
12.6 0 0
12.9 0 0
13.2 0 0
13.5 0 0
13.8 0 0
14.1 0 0
14.4 0 0
14.7 0 0
15 0 0
15.3 0 0
15.6 0 0
15.9 0 0
16.2 0 0
16.5 0 0
16.8 0 0
17.1 0 0
17.4 0 0
17.7 0 0
18 0 0
18.3 0 0
18.6 0 0
18.9 0 0
19.2 0 0
19.5 0 0
19.8 0 0
20.1 0 0
20.4 0 0
20.7 0 0
21 0 0
21.3 0 0
21.6 0 0
21.9 0 0
22.2 0 0
22.5 0 0
22.8 0 0
23.1 0 0
23.4 0 0
23.7 0 0
24 0 0
24.3 0 0
24.6 0 0
24.9 0 0
25.2 0 0
25.5 0 0
25.8 0 0
26.1 0 0
26.4 0 0
26.7 0 0
27 0 0
27.3 0 0
27.6 0 0
27.9 0 0
28.2 0 0
28.5 0 0
28.8 0 0
29.1 0 0
29.4 0 0
29.7 0 0
30 0 0
30.3 0 0
0 0.1 0
0.3 0.1 0
0.6 0.1 0
0.9 0.1 0
1.2 0.1 0
1.5 0.1 0
1.8 0.1 0
2.1 0.1 0
2.4 0.1 0
2.7 0.1 0
3 0.1 0
3.3 0.1 0
3.6 0.1 0
3.9 0.1 0
4.2 0.1 0
4.5 0.1 0
4.8 0.1 0
5.1 0.1 0
5.4 0.1 0
5.7 0.1 0
6 0.1 0
6.3 0.1 0
6.6 0.1 0
6.9 0.1 0
7.2 0.1 0
7.5 0.1 0
7.8 0.1 0
8.1 0.1 0
8.4 0.1 0
8.7 0.1 0
9 0.1 0
9.3 0.1 0
9.6 0.1 0
9.9 0.1 0
10.2 0.1 0
10.5 0.1 0
10.8 0.1 0
11.1 0.1 0
11.4 0.1 0
11.7 0.1 0
12 0.1 0
12.3 0.1 0
12.6 0.1 0
12.9 0.1 0
13.2 0.1 0
13.5 0.1 0
13.8 0.1 0
14.1 0.1 0
14.4 0.1 0
14.7 0.1 0
15 0.1 0
15.3 0.1 0
15.6 0.1 0
15.9 0.1 0
16.2 0.1 0
16.5 0.1 0
16.8 0.1 0
17.1 0.1 0
17.4 0.1 0
17.7 0.1 0
18 0.1 0
18.3 0.1 0
18.6 0.1 0
18.9 0.1 0
19.2 0.1 0
19.5 0.1 0
19.8 0.1 0
20.1 0.1 0
20.4 0.1 0
20.7 0.1 0
21 0.1 0
21.3 0.1 0
21.6 0.1 0
21.9 0.1 0
22.2 0.1 0
22.5 0.1 0
22.8 0.1 0
23.1 0.1 0
23.4 0.1 0
23.7 0.1 0
24 0.1 0
24.3 0.1 0
24.6 0.1 0
24.9 0.1 0
25.2 0.1 0
25.5 0.1 0
25.8 0.1 0
26.1 0.1 0
26.4 0.1 0
26.7 0.1 0
27 0.1 0
27.3 0.1 0
27.6 0.1 0
27.9 0.1 0
28.2 0.1 0
28.5 0.1 0
28.8 0.1 0
29.1 0.1 0
29.4 0.1 0
29.7 0.1 0
30 0.1 0
30.3 0.1 0
0 0.2 0
0.3 0.2 0
0.6 0.2 0
0.9 0.2 0
1.2 0.2 0
1.5 0.2 0
1.8 0.2 0
2.1 0.2 0
2.4 0.2 0
2.7 0.2 0
3 0.2 0
3.3 0.2 0
3.6 0.2 0
3.9 0.2 0
4.2 0.2 0
4.5 0.2 0
4.8 0.2 0
5.1 0.2 0
5.4 0.2 0
5.7 0.2 0
6 0.2 0
6.3 0.2 0
6.6 0.2 0
6.9 0.2 0
7.2 0.2 0
7.5 0.2 0
7.8 0.2 0
8.1 0.2 0
8.4 0.2 0
8.7 0.2 0
9 0.2 0
9.3 0.2 0
9.6 0.2 0
9.9 0.2 0
10.2 0.2 0
10.5 0.2 0
10.8 0.2 0
11.1 0.2 0
11.4 0.2 0
11.7 0.2 0
12 0.2 0
12.3 0.2 0
12.6 0.2 0
12.9 0.2 0
13.2 0.2 0
13.5 0.2 0
13.8 0.2 0
14.1 0.2 0
14.4 0.2 0
14.7 0.2 0
15 0.2 0
15.3 0.2 0
15.6 0.2 0
15.9 0.2 0
16.2 0.2 0
16.5 0.2 0
16.8 0.2 0
17.1 0.2 0
17.4 0.2 0
17.7 0.2 0
18 0.2 0
18.3 0.2 0
18.6 0.2 0
18.9 0.2 0
19.2 0.2 0
19.5 0.2 0
19.8 0.2 0
20.1 0.2 0
20.4 0.2 0
20.7 0.2 0
21 0.2 0
21.3 0.2 0
21.6 0.2 0
21.9 0.2 0
22.2 0.2 0
22.5 0.2 0
22.8 0.2 0
23.1 0.2 0
23.4 0.2 0
23.7 0.2 0
24 0.2 0
24.3 0.2 0
24.6 0.2 0
24.9 0.2 0
25.2 0.2 0
25.5 0.2 0
25.8 0.2 0
26.1 0.2 0
26.4 0.2 0
26.7 0.2 0
27 0.2 0
27.3 0.2 0
27.6 0.2 0
27.9 0.2 0
28.2 0.2 0
28.5 0.2 0
28.8 0.2 0
29.1 0.2 0
29.4 0.2 0
29.7 0.2 0
30 0.2 0
30.3 0.2 0
0 0.3 0
0.3 0.3 0
0.6 0.3 0
0.9 0.3 0
1.2 0.3 0
1.5 0.3 0
1.8 0.3 0
2.1 0.3 0
2.4 0.3 0
2.7 0.3 0
3 0.3 0
3.3 0.3 0
3.6 0.3 0
3.9 0.3 0
4.2 0.3 0
4.5 0.3 0
4.8 0.3 0
5.1 0.3 0
5.4 0.3 0
5.7 0.3 0
6 0.3 0
6.3 0.3 0
6.6 0.3 0
6.9 0.3 0
7.2 0.3 0
7.5 0.3 0
7.8 0.3 0
8.1 0.3 0
8.4 0.3 0
8.7 0.3 0
9 0.3 0
9.3 0.3 0
9.6 0.3 0
9.9 0.3 0
10.2 0.3 0
10.5 0.3 0
10.8 0.3 0
11.1 0.3 0
11.4 0.3 0
11.7 0.3 0
12 0.3 0
12.3 0.3 0
12.6 0.3 0
12.9 0.3 0
13.2 0.3 0
13.5 0.3 0
13.8 0.3 0
14.1 0.3 0
14.4 0.3 0
14.7 0.3 0
15 0.3 0
15.3 0.3 0
15.6 0.3 0
15.9 0.3 0
16.2 0.3 0
16.5 0.3 0
16.8 0.3 0
17.1 0.3 0
17.4 0.3 0
17.7 0.3 0
18 0.3 0
18.3 0.3 0
18.6 0.3 0
18.9 0.3 0
19.2 0.3 0
19.5 0.3 0
19.8 0.3 0
20.1 0.3 0
20.4 0.3 0
20.7 0.3 0
21 0.3 0
21.3 0.3 0
21.6 0.3 0
21.9 0.3 0
22.2 0.3 0
22.5 0.3 0
22.8 0.3 0
23.1 0.3 0
23.4 0.3 0
23.7 0.3 0
24 0.3 0
24.3 0.3 0
24.6 0.3 0
24.9 0.3 0
25.2 0.3 0
25.5 0.3 0
25.8 0.3 0
26.1 0.3 0
26.4 0.3 0
26.7 0.3 0
27 0.3 0
27.3 0.3 0
27.6 0.3 0
27.9 0.3 0
28.2 0.3 0
28.5 0.3 0
28.8 0.3 0
29.1 0.3 0
29.4 0.3 0
29.7 0.3 0
30 0.3 0
30.3 0.3 0
0 0.4 0
0.3 0.4 0
0.6 0.4 0
0.9 0.4 0
1.2 0.4 0
1.5 0.4 0
1.8 0.4 0
2.1 0.4 0
2.4 0.4 0
2.7 0.4 0
3 0.4 0
3.3 0.4 0
3.6 0.4 0
3.9 0.4 0
4.2 0.4 0
4.5 0.4 0
4.8 0.4 0
5.1 0.4 0
5.4 0.4 0
5.7 0.4 0
6 0.4 0
6.3 0.4 0
6.6 0.4 0
6.9 0.4 0
7.2 0.4 0
7.5 0.4 0
7.8 0.4 0
8.1 0.4 0
8.4 0.4 0
8.7 0.4 0
9 0.4 0
9.3 0.4 0
9.6 0.4 0
9.9 0.4 0
10.2 0.4 0
10.5 0.4 0
10.8 0.4 0
11.1 0.4 0
11.4 0.4 0
11.7 0.4 0
12 0.4 0
12.3 0.4 0
12.6 0.4 0
12.9 0.4 0
13.2 0.4 0
13.5 0.4 0
13.8 0.4 0
14.1 0.4 0
14.4 0.4 0
14.7 0.4 0
15 0.4 0
15.3 0.4 0
15.6 0.4 0
15.9 0.4 0
16.2 0.4 0
16.5 0.4 0
16.8 0.4 0
17.1 0.4 0
17.4 0.4 0
17.7 0.4 0
18 0.4 0
18.3 0.4 0
18.6 0.4 0
18.9 0.4 0
19.2 0.4 0
19.5 0.4 0
19.8 0.4 0
20.1 0.4 0
20.4 0.4 0
20.7 0.4 0
21 0.4 0
21.3 0.4 0
21.6 0.4 0
21.9 0.4 0
22.2 0.4 0
22.5 0.4 0
22.8 0.4 0
23.1 0.4 0
23.4 0.4 0
23.7 0.4 0
24 0.4 0
24.3 0.4 0
24.6 0.4 0
24.9 0.4 0
25.2 0.4 0
25.5 0.4 0
25.8 0.4 0
26.1 0.4 0
26.4 0.4 0
26.7 0.4 0
27 0.4 0
27.3 0.4 0
27.6 0.4 0
27.9 0.4 0
28.2 0.4 0
28.5 0.4 0
28.8 0.4 0
29.1 0.4 0
29.4 0.4 0
29.7 0.4 0
30 0.4 0
30.3 0.4 0
0 0.5 0
0.3 0.5 0
0.6 0.5 0
0.9 0.5 0
1.2 0.5 0
1.5 0.5 0
1.8 0.5 0
2.1 0.5 0
2.4 0.5 0
2.7 0.5 0
3 0.5 0
3.3 0.5 0
3.6 0.5 0
3.9 0.5 0
4.2 0.5 0
4.5 0.5 0
4.8 0.5 0
5.1 0.5 0
5.4 0.5 0
5.7 0.5 0
6 0.5 0
6.3 0.5 0
6.6 0.5 0
6.9 0.5 0
7.2 0.5 0
7.5 0.5 0
7.8 0.5 0
8.1 0.5 0
8.4 0.5 0
8.7 0.5 0
9 0.5 0
9.3 0.5 0
9.6 0.5 0
9.9 0.5 0
10.2 0.5 0
10.5 0.5 0
10.8 0.5 0
11.1 0.5 0
11.4 0.5 0
11.7 0.5 0
12 0.5 0
12.3 0.5 0
12.6 0.5 0
12.9 0.5 0
13.2 0.5 0
13.5 0.5 0
13.8 0.5 0
14.1 0.5 0
14.4 0.5 0
14.7 0.5 0
15 0.5 0
15.3 0.5 0
15.6 0.5 0
15.9 0.5 0
16.2 0.5 0
16.5 0.5 0
16.8 0.5 0
17.1 0.5 0
17.4 0.5 0
17.7 0.5 0
18 0.5 0
18.3 0.5 0
18.6 0.5 0
18.9 0.5 0
19.2 0.5 0
19.5 0.5 0
19.8 0.5 0
20.1 0.5 0
20.4 0.5 0
20.7 0.5 0
21 0.5 0
21.3 0.5 0
21.6 0.5 0
21.9 0.5 0
22.2 0.5 0
22.5 0.5 0
22.8 0.5 0
23.1 0.5 0
23.4 0.5 0
23.7 0.5 0
24 0.5 0
24.3 0.5 0
24.6 0.5 0
24.9 0.5 0
25.2 0.5 0
25.5 0.5 0
25.8 0.5 0
26.1 0.5 0
26.4 0.5 0
26.7 0.5 0
27 0.5 0
27.3 0.5 0
27.6 0.5 0
27.9 0.5 0
28.2 0.5 0
28.5 0.5 0
28.8 0.5 0
29.1 0.5 0
29.4 0.5 0
29.7 0.5 0
30 0.5 0
30.3 0.5 0
0 0.6 0
0.3 0.6 0
0.6 0.6 0
0.9 0.6 0
1.2 0.6 0
1.5 0.6 0
1.8 0.6 0
2.1 0.6 0
2.4 0.6 0
2.7 0.6 0
3 0.6 0
3.3 0.6 0
3.6 0.6 0
3.9 0.6 0
4.2 0.6 0
4.5 0.6 0
4.8 0.6 0
5.1 0.6 0
5.4 0.6 0
5.7 0.6 0
6 0.6 0
6.3 0.6 0
6.6 0.6 0
6.9 0.6 0
7.2 0.6 0
7.5 0.6 0
7.8 0.6 0
8.1 0.6 0
8.4 0.6 0
8.7 0.6 0
9 0.6 0
9.3 0.6 0
9.6 0.6 0
9.9 0.6 0
10.2 0.6 0
10.5 0.6 0
10.8 0.6 0
11.1 0.6 0
11.4 0.6 0
11.7 0.6 0
12 0.6 0
12.3 0.6 0
12.6 0.6 0
12.9 0.6 0
13.2 0.6 0
13.5 0.6 0
13.8 0.6 0
14.1 0.6 0
14.4 0.6 0
14.7 0.6 0
15 0.6 0
15.3 0.6 0
15.6 0.6 0
15.9 0.6 0
16.2 0.6 0
16.5 0.6 0
16.8 0.6 0
17.1 0.6 0
17.4 0.6 0
17.7 0.6 0
18 0.6 0
18.3 0.6 0
18.6 0.6 0
18.9 0.6 0
19.2 0.6 0
19.5 0.6 0
19.8 0.6 0
20.1 0.6 0
20.4 0.6 0
20.7 0.6 0
21 0.6 0
21.3 0.6 0
21.6 0.6 0
21.9 0.6 0
22.2 0.6 0
22.5 0.6 0
22.8 0.6 0
23.1 0.6 0
23.4 0.6 0
23.7 0.6 0
24 0.6 0
24.3 0.6 0
24.6 0.6 0
24.9 0.6 0
25.2 0.6 0
25.5 0.6 0
25.8 0.6 0
26.1 0.6 0
26.4 0.6 0
26.7 0.6 0
27 0.6 0
27.3 0.6 0
27.6 0.6 0
27.9 0.6 0
28.2 0.6 0
28.5 0.6 0
28.8 0.6 0
29.1 0.6 0
29.4 0.6 0
29.7 0.6 0
30 0.6 0
30.3 0.6 0
0 0.7 0
0.3 0.7 0
0.6 0.7 0
0.9 0.7 0
1.2 0.7 0
1.5 0.7 0
1.8 0.7 0
2.1 0.7 0
2.4 0.7 0
2.7 0.7 0
3 0.7 0
3.3 0.7 0
3.6 0.7 0
3.9 0.7 0
4.2 0.7 0
4.5 0.7 0
4.8 0.7 0
5.1 0.7 0
5.4 0.7 0
5.7 0.7 0
6 0.7 0
6.3 0.7 0
6.6 0.7 0
6.9 0.7 0
7.2 0.7 0
7.5 0.7 0
7.8 0.7 0
8.1 0.7 0
8.4 0.7 0
8.7 0.7 0
9 0.7 0
9.3 0.7 0
9.6 0.7 0
9.9 0.7 0
10.2 0.7 0
10.5 0.7 0
10.8 0.7 0
11.1 0.7 0
11.4 0.7 0
11.7 0.7 0
12 0.7 0
12.3 0.7 0
12.6 0.7 0
12.9 0.7 0
13.2 0.7 0
13.5 0.7 0
13.8 0.7 0
14.1 0.7 0
14.4 0.7 0
14.7 0.7 0
15 0.7 0
15.3 0.7 0
15.6 0.7 0
15.9 0.7 0
16.2 0.7 0
16.5 0.7 0
16.8 0.7 0
17.1 0.7 0
17.4 0.7 0
17.7 0.7 0
18 0.7 0
18.3 0.7 0
18.6 0.7 0
18.9 0.7 0
19.2 0.7 0
19.5 0.7 0
19.8 0.7 0
20.1 0.7 0
20.4 0.7 0
20.7 0.7 0
21 0.7 0
21.3 0.7 0
21.6 0.7 0
21.9 0.7 0
22.2 0.7 0
22.5 0.7 0
22.8 0.7 0
23.1 0.7 0
23.4 0.7 0
23.7 0.7 0
24 0.7 0
24.3 0.7 0
24.6 0.7 0
24.9 0.7 0
25.2 0.7 0
25.5 0.7 0
25.8 0.7 0
26.1 0.7 0
26.4 0.7 0
26.7 0.7 0
27 0.7 0
27.3 0.7 0
27.6 0.7 0
27.9 0.7 0
28.2 0.7 0
28.5 0.7 0
28.8 0.7 0
29.1 0.7 0
29.4 0.7 0
29.7 0.7 0
30 0.7 0
30.3 0.7 0
0 0.8 0
0.3 0.8 0
0.6 0.8 0
0.9 0.8 0
1.2 0.8 0
1.5 0.8 0
1.8 0.8 0
2.1 0.8 0
2.4 0.8 0
2.7 0.8 0
3 0.8 0
3.3 0.8 0
3.6 0.8 0
3.9 0.8 0
4.2 0.8 0
4.5 0.8 0
4.8 0.8 0
5.1 0.8 0
5.4 0.8 0
5.7 0.8 0
6 0.8 0
6.3 0.8 0
6.6 0.8 0
6.9 0.8 0
7.2 0.8 0
7.5 0.8 0
7.8 0.8 0
8.1 0.8 0
8.4 0.8 0
8.7 0.8 0
9 0.8 0
9.3 0.8 0
9.6 0.8 0
9.9 0.8 0
10.2 0.8 0
10.5 0.8 0
10.8 0.8 0
11.1 0.8 0
11.4 0.8 0
11.7 0.8 0
12 0.8 0
12.3 0.8 0
12.6 0.8 0
12.9 0.8 0
13.2 0.8 0
13.5 0.8 0
13.8 0.8 0
14.1 0.8 0
14.4 0.8 0
14.7 0.8 0
15 0.8 0
15.3 0.8 0
15.6 0.8 0
15.9 0.8 0
16.2 0.8 0
16.5 0.8 0
16.8 0.8 0
17.1 0.8 0
17.4 0.8 0
17.7 0.8 0
18 0.8 0
18.3 0.8 0
18.6 0.8 0
18.9 0.8 0
19.2 0.8 0
19.5 0.8 0
19.8 0.8 0
20.1 0.8 0
20.4 0.8 0
20.7 0.8 0
21 0.8 0
21.3 0.8 0
21.6 0.8 0
21.9 0.8 0
22.2 0.8 0
22.5 0.8 0
22.8 0.8 0
23.1 0.8 0
23.4 0.8 0
23.7 0.8 0
24 0.8 0
24.3 0.8 0
24.6 0.8 0
24.9 0.8 0
25.2 0.8 0
25.5 0.8 0
25.8 0.8 0
26.1 0.8 0
26.4 0.8 0
26.7 0.8 0
27 0.8 0
27.3 0.8 0
27.6 0.8 0
27.9 0.8 0
28.2 0.8 0
28.5 0.8 0
28.8 0.8 0
29.1 0.8 0
29.4 0.8 0
29.7 0.8 0
30 0.8 0
30.3 0.8 0
0 0.9 0
0.3 0.9 0
0.6 0.9 0
0.9 0.9 0
1.2 0.9 0
1.5 0.9 0
1.8 0.9 0
2.1 0.9 0
2.4 0.9 0
2.7 0.9 0
3 0.9 0
3.3 0.9 0
3.6 0.9 0
3.9 0.9 0
4.2 0.9 0
4.5 0.9 0
4.8 0.9 0
5.1 0.9 0
5.4 0.9 0
5.7 0.9 0
6 0.9 0
6.3 0.9 0
6.6 0.9 0
6.9 0.9 0
7.2 0.9 0
7.5 0.9 0
7.8 0.9 0
8.1 0.9 0
8.4 0.9 0
8.7 0.9 0
9 0.9 0
9.3 0.9 0
9.6 0.9 0
9.9 0.9 0
10.2 0.9 0
10.5 0.9 0
10.8 0.9 0
11.1 0.9 0
11.4 0.9 0
11.7 0.9 0
12 0.9 0
12.3 0.9 0
12.6 0.9 0
12.9 0.9 0
13.2 0.9 0
13.5 0.9 0
13.8 0.9 0
14.1 0.9 0
14.4 0.9 0
14.7 0.9 0
15 0.9 0
15.3 0.9 0
15.6 0.9 0
15.9 0.9 0
16.2 0.9 0
16.5 0.9 0
16.8 0.9 0
17.1 0.9 0
17.4 0.9 0
17.7 0.9 0
18 0.9 0
18.3 0.9 0
18.6 0.9 0
18.9 0.9 0
19.2 0.9 0
19.5 0.9 0
19.8 0.9 0
20.1 0.9 0
20.4 0.9 0
20.7 0.9 0
21 0.9 0
21.3 0.9 0
21.6 0.9 0
21.9 0.9 0
22.2 0.9 0
22.5 0.9 0
22.8 0.9 0
23.1 0.9 0
23.4 0.9 0
23.7 0.9 0
24 0.9 0
24.3 0.9 0
24.6 0.9 0
24.9 0.9 0
25.2 0.9 0
25.5 0.9 0
25.8 0.9 0
26.1 0.9 0
26.4 0.9 0
26.7 0.9 0
27 0.9 0
27.3 0.9 0
27.6 0.9 0
27.9 0.9 0
28.2 0.9 0
28.5 0.9 0
28.8 0.9 0
29.1 0.9 0
29.4 0.9 0
29.7 0.9 0
30 0.9 0
30.3 0.9 0
0 1 0
0.3 1 0
0.6 1 0
0.9 1 0
1.2 1 0
1.5 1 0
1.8 1 0
2.1 1 0
2.4 1 0
2.7 1 0
3 1 0
3.3 1 0
3.6 1 0
3.9 1 0
4.2 1 0
4.5 1 0
4.8 1 0
5.1 1 0
5.4 1 0
5.7 1 0
6 1 0
6.3 1 0
6.6 1 0
6.9 1 0
7.2 1 0
7.5 1 0
7.8 1 0
8.1 1 0
8.4 1 0
8.7 1 0
9 1 0
9.3 1 0
9.6 1 0
9.9 1 0
10.2 1 0
10.5 1 0
10.8 1 0
11.1 1 0
11.4 1 0
11.7 1 0
12 1 0
12.3 1 0
12.6 1 0
12.9 1 0
13.2 1 0
13.5 1 0
13.8 1 0
14.1 1 0
14.4 1 0
14.7 1 0
15 1 0
15.3 1 0
15.6 1 0
15.9 1 0
16.2 1 0
16.5 1 0
16.8 1 0
17.1 1 0
17.4 1 0
17.7 1 0
18 1 0
18.3 1 0
18.6 1 0
18.9 1 0
19.2 1 0
19.5 1 0
19.8 1 0
20.1 1 0
20.4 1 0
20.7 1 0
21 1 0
21.3 1 0
21.6 1 0
21.9 1 0
22.2 1 0
22.5 1 0
22.8 1 0
23.1 1 0
23.4 1 0
23.7 1 0
24 1 0
24.3 1 0
24.6 1 0
24.9 1 0
25.2 1 0
25.5 1 0
25.8 1 0
26.1 1 0
26.4 1 0
26.7 1 0
27 1 0
27.3 1 0
27.6 1 0
27.9 1 0
28.2 1 0
28.5 1 0
28.8 1 0
29.1 1 0
29.4 1 0
29.7 1 0
30 1 0
30.3 1 0
0 1.1 0
0.3 1.1 0
0.6 1.1 0
0.9 1.1 0
1.2 1.1 0
1.5 1.1 0
1.8 1.1 0
2.1 1.1 0
2.4 1.1 0
2.7 1.1 0
3 1.1 0
3.3 1.1 0
3.6 1.1 0
3.9 1.1 0
4.2 1.1 0
4.5 1.1 0
4.8 1.1 0
5.1 1.1 0
5.4 1.1 0
5.7 1.1 0
6 1.1 0
6.3 1.1 0
6.6 1.1 0
6.9 1.1 0
7.2 1.1 0
7.5 1.1 0
7.8 1.1 0
8.1 1.1 0
8.4 1.1 0
8.7 1.1 0
9 1.1 0
9.3 1.1 0
9.6 1.1 0
9.9 1.1 0
10.2 1.1 0
10.5 1.1 0
10.8 1.1 0
11.1 1.1 0
11.4 1.1 0
11.7 1.1 0
12 1.1 0
12.3 1.1 0
12.6 1.1 0
12.9 1.1 0
13.2 1.1 0
13.5 1.1 0
13.8 1.1 0
14.1 1.1 0
14.4 1.1 0
14.7 1.1 0
15 1.1 0
15.3 1.1 0
15.6 1.1 0
15.9 1.1 0
16.2 1.1 0
16.5 1.1 0
16.8 1.1 0
17.1 1.1 0
17.4 1.1 0
17.7 1.1 0
18 1.1 0
18.3 1.1 0
18.6 1.1 0
18.9 1.1 0
19.2 1.1 0
19.5 1.1 0
19.8 1.1 0
20.1 1.1 0
20.4 1.1 0
20.7 1.1 0
21 1.1 0
21.3 1.1 0
21.6 1.1 0
21.9 1.1 0
22.2 1.1 0
22.5 1.1 0
22.8 1.1 0
23.1 1.1 0
23.4 1.1 0
23.7 1.1 0
24 1.1 0
24.3 1.1 0
24.6 1.1 0
24.9 1.1 0
25.2 1.1 0
25.5 1.1 0
25.8 1.1 0
26.1 1.1 0
26.4 1.1 0
26.7 1.1 0
27 1.1 0
27.3 1.1 0
27.6 1.1 0
27.9 1.1 0
28.2 1.1 0
28.5 1.1 0
28.8 1.1 0
29.1 1.1 0
29.4 1.1 0
29.7 1.1 0
30 1.1 0
30.3 1.1 0
0 1.2 0
0.3 1.2 0
0.6 1.2 0
0.9 1.2 0
1.2 1.2 0
1.5 1.2 0
1.8 1.2 0
2.1 1.2 0
2.4 1.2 0
2.7 1.2 0
3 1.2 0
3.3 1.2 0
3.6 1.2 0
3.9 1.2 0
4.2 1.2 0
4.5 1.2 0
4.8 1.2 0
5.1 1.2 0
5.4 1.2 0
5.7 1.2 0
6 1.2 0
6.3 1.2 0
6.6 1.2 0
6.9 1.2 0
7.2 1.2 0
7.5 1.2 0
7.8 1.2 0
8.1 1.2 0
8.4 1.2 0
8.7 1.2 0
9 1.2 0
9.3 1.2 0
9.6 1.2 0
9.9 1.2 0
10.2 1.2 0
10.5 1.2 0
10.8 1.2 0
11.1 1.2 0
11.4 1.2 0
11.7 1.2 0
12 1.2 0
12.3 1.2 0
12.6 1.2 0
12.9 1.2 0
13.2 1.2 0
13.5 1.2 0
13.8 1.2 0
14.1 1.2 0
14.4 1.2 0
14.7 1.2 0
15 1.2 0
15.3 1.2 0
15.6 1.2 0
15.9 1.2 0
16.2 1.2 0
16.5 1.2 0
16.8 1.2 0
17.1 1.2 0
17.4 1.2 0
17.7 1.2 0
18 1.2 0
18.3 1.2 0
18.6 1.2 0
18.9 1.2 0
19.2 1.2 0
19.5 1.2 0
19.8 1.2 0
20.1 1.2 0
20.4 1.2 0
20.7 1.2 0
21 1.2 0
21.3 1.2 0
21.6 1.2 0
21.9 1.2 0
22.2 1.2 0
22.5 1.2 0
22.8 1.2 0
23.1 1.2 0
23.4 1.2 0
23.7 1.2 0
24 1.2 0
24.3 1.2 0
24.6 1.2 0
24.9 1.2 0
25.2 1.2 0
25.5 1.2 0
25.8 1.2 0
26.1 1.2 0
26.4 1.2 0
26.7 1.2 0
27 1.2 0
27.3 1.2 0
27.6 1.2 0
27.9 1.2 0
28.2 1.2 0
28.5 1.2 0
28.8 1.2 0
29.1 1.2 0
29.4 1.2 0
29.7 1.2 0
30 1.2 0
30.3 1.2 0

POINT_DATA 1326

SCALARS v double
LOOKUP_TABLE default
0
0
0
0
0
0
0
0
0
0
0
0
0
0
0
0
0
0
0
0
0
0
0
0
0
0
0
0
0
0
0
0
0
0
0
0
0
0
0
0
0
0
0
0
0
0
0
0
0
0
0
0
0
0
0
0
0
0
0
0
0
0
0
0
0
0
0
0
0
0
0
0
0
0
0
0
0
0
0
0
0
0
0
0
0
0
0
0
0
0
0
0
0
0
0
0
0
0
0
0
0
0
-0.0370799
0.0370799
0.0391133
0.0336313
0.0272525
0.0213215
0.0162806
0.0122495
0.00917276
0.00690402
0.0052687
0.00410329
0.00327339
0.00267718
0.00224164
0.0019162
0.00166664
0.00147008
0.00131129
0.00118007
0.0010695
0.000974701
0.000892005
0.00081843
0.000751373
0.000688531
0.00062797
0.000568277
0.000508689
0.000449152
0.000390243
0.000333002
0.000278685
0.000228523
0.00018351
0.000144287
0.00011109
8.3784e-05
6.19329e-05
4.49029e-05
3.196e-05
2.23547e-05
1.53839e-05
1.04296e-05
6.9755e-06
4.60953e-06
3.01453e-06
1.95448e-06
1.25878e-06
8.07164e-07
5.16778e-07
3.31592e-07
2.14341e-07
1.40574e-07
9.44249e-08
6.56921e-08
4.78654e-08
3.68166e-08
2.99433e-08
2.56158e-08
2.28269e-08
2.09602e-08
1.96394e-08
1.86358e-08
1.78111e-08
1.70843e-08
1.64097e-08
1.57622e-08
1.51283e-08
1.4501e-08
1.38768e-08
1.32539e-08
1.26313e-08
1.20085e-08
1.13857e-08
1.07631e-08
1.01411e-08
9.52004e-09
8.9007e-09
8.2836e-09
7.66939e-09
7.05886e-09
6.45467e-09
5.85921e-09
5.27297e-09
4.6973e-09
4.13977e-09
3.59226e-09
3.09824e-09
2.49192e-09
2.25228e-09
9.06583e-10
1.54035e-09
-9.64702e-09
-5.52377e-11
-1.16359e-07
-5.42912e-08
-1.10917e-06
-1.76149e-06
-7.20104e-07
-1.40862e-05
-1.40862e-05
-0.0282545
0.0282545
0.038741
0.0375699
0.0331777
0.0280244
0.0230972
0.0188235
0.0153293
0.0125738
0.0104408
0.00879743
0.00752363
0.00652318
0.00572378
0.0050731
0.00453395
0.00408004
0.0036926
0.00335804
0.00306614
0.00280877
0.00257901
0.00237053
0.00217736
0.00199404
0.00181596
0.00163986
0.00146422
0.00128934
0.00111716
0.000950722
0.000793595
0.000649149
0.000520057
0.000407964
0.00031339
0.000235814
0.0001739
0.00012577
8.92845e-05
6.22787e-05
4.27331e-05
2.888e-05
1.92496e-05
1.2672e-05
8.25055e-06
5.32047e-06
3.40288e-06
2.16155e-06
1.36562e-06
8.59512e-07
5.40106e-07
3.39924e-07
2.15304e-07
1.38235e-07
9.08844e-08
6.19668e-08
4.43843e-08
3.37018e-08
2.71818e-08
2.31518e-08
2.05925e-08
1.88867e-08
1.76634e-08
1.67057e-08
1.58912e-08
1.51528e-08
1.44543e-08
1.37766e-08
1.311e-08
1.24496e-08
1.17929e-08
1.11385e-08
1.04865e-08
9.83703e-09
9.19076e-09
8.54814e-09
7.91019e-09
7.27721e-09
6.64961e-09
6.02786e-09
5.41547e-09
4.81582e-09
4.22732e-09
3.6518e-09
3.09774e-09
2.5562e-09
2.06245e-09
1.43305e-09
1.23617e-09
-8.40238e-10
-3.16482e-11
-1.86602e-08
-3.66335e-09
-2.13954e-07
-8.26286e-08
-2.35756e-06
-1.98815e-06
-2.08879e-05
-4.15062e-05
-4.15062e-05
-0.0177598
0.0177598
0.0281239
0.029097
0.0269196
0.0237001
0.0203368
0.0172614
0.0146483
0.01252
0.0108216
0.00947166
0.0083901
0.00751007
0.00678038
0.0061637
0.00563343
0.0051708
0.00476244
0.00439855
0.00407163
0.00377537
0.00350397
0.00325168
0.00301268
0.00278135
0.00255281
0.00232356
0.00209202
0.00185876
0.00162638
0.00139896
0.00118136
0.000978395
0.00079416
0.00063153
0.000491943
0.000375416
0.000280748
0.000205845
0.000148073
0.000104589
7.26117e-05
4.9605e-05
3.33876e-05
2.21696e-05
1.45424e-05
9.43624e-06
6.06462e-06
3.86514e-06
2.44543e-06
1.53754e-06
9.6177e-07
5.99431e-07
3.73091e-07
2.32751e-07
1.46394e-07
9.36615e-08
6.1692e-08
4.24132e-08
3.0821e-08
2.38457e-08
1.96091e-08
1.69704e-08
1.52404e-08
1.40143e-08
1.30623e-08
1.22575e-08
1.15312e-08
1.0847e-08
1.01861e-08
9.53884e-09
8.90053e-09
8.26823e-09
7.64213e-09
7.02215e-09
6.40909e-09
5.80352e-09
5.20682e-09
4.61909e-09
4.04043e-09
3.4716e-09
2.91597e-09
2.37686e-09
1.85144e-09
1.34251e-09
8.62133e-10
3.96385e-10
-6.8619e-11
-6.43921e-10
-8.83147e-10
-3.04181e-09
-1.54785e-09
-2.28769e-08
-2.76848e-10
-2.53336e-07
-2.8727e-09
-3.00524e-06
-8.68524e-07
-3.69624e-05
-5.91415e-05
-5.91415e-05
-0.00966198
0.00966198
0.0165164
0.017616
0.0166491
0.0149527
0.0130936
0.0113491
0.00984101
0.00859625
0.00759152
0.00678383
0.00612858
0.00558768
0.0051317
0.0047392
0.00439504
0.00408865
0.00381266
0.00356176
0.00333186
0.00311946
0.00292117
0.00273338
0.00255227
0.00237399
0.00219512
0.00201319
0.00182709
0.00163737
0.00144614
0.00125673
0.0010732
0.000899695
0.000739907
0.000596666
0.00047169
0.000365545
0.000277748
0.000206981
0.000151356
0.000108679
7.66878e-05
5.32305e-05
3.63848e-05
2.45197e-05
1.63112e-05
1.07242e-05
6.977e-06
4.49654e-06
2.87357e-06
1.82255e-06
1.1482e-06
7.19215e-07
4.48535e-07
2.79121e-07
1.73961e-07
1.09235e-07
6.97228e-08
4.5759e-08
3.12979e-08
2.26024e-08
1.73629e-08
1.41619e-08
1.21303e-08
1.07514e-08
9.72948e-09
8.90041e-09
8.17501e-09
7.50604e-09
6.86901e-09
6.25155e-09
5.64761e-09
5.05308e-09
4.46861e-09
3.89397e-09
3.33016e-09
2.77809e-09
2.23914e-09
1.71335e-09
1.20016e-09
7.02783e-10
2.20325e-10
-2.58471e-10
-7.13753e-10
-1.14101e-09
-1.53468e-09
-1.91235e-09
-2.24356e-09
-2.66661e-09
-2.78193e-09
-4.52424e-09
-2.77211e-09
-2.03952e-08
3.34326e-09
-2.08429e-07
6.2302e-08
-2.5153e-06
1.25914e-08
-3.42251e-05
-5.18329e-05
-5.18329e-05
-0.00306442
0.00306442
0.00542175
0.00585226
0.0055729
0.00504145
0.00444945
0.00388986
0.00340395
0.00300178
0.00267652
0.00241451
0.00220136
0.00202466
0.00187484
0.00174492
0.00162999
0.0015267
0.00143271
0.00134637
0.00126644
0.00119182
0.00112142
0.00105405
0.000988405
0.000923137
0.000857041
0.000789236
0.000719342
0.000647576
0.000574745
0.000502125
0.000431277
0.000363824
0.00030124
0.000244692
0.000194941
0.000152311
0.000116722
8.77569e-05
6.47603e-05
4.69346e-05
3.34318e-05
2.3426e-05
1.61642e-05
1.09956e-05
7.38262e-06
4.89857e-06
3.21607e-06
2.09167e-06
1.34917e-06
8.6402e-07
5.50028e-07
3.48571e-07
2.20377e-07
1.39462e-07
8.88067e-08
5.73598e-08
3.79786e-08
2.60569e-08
1.87109e-08
1.41724e-08
1.13379e-08
9.52218e-09
8.2851e-09
7.36044e-09
6.59973e-09
5.92388e-09
5.29267e-09
4.68663e-09
4.09687e-09
3.5197e-09
2.95396e-09
2.3972e-09
1.8525e-09
1.32046e-09
8.02312e-10
3.00891e-10
-1.88948e-10
-6.61467e-10
-1.11568e-09
-1.55094e-09
-1.96547e-09
-2.35533e-09
-2.72037e-09
-3.05585e-09
-3.35806e-09
-3.63574e-09
-3.8695e-09
-4.12418e-09
-4.21678e-09
-4.98307e-09
-4.13448e-09
-1.10691e-08
-1.45576e-10
-8.36086e-08
3.7051e-08
-9.7954e-07
1.36291e-07
-1.36514e-05
-2.04976e-05
-2.04976e-05
0.00306439
-0.00306439
-0.00542169
-0.00585218
-0.00557281
-0.00504135
-0.00444936
-0.00388977
-0.00340386
-0.0030017
-0.00267643
-0.00241443
-0.00220127
-0.00202458
-0.00187476
-0.00174484
-0.00162992
-0.00152662
-0.00143264
-0.00134631
-0.00126638
-0.00119176
-0.00112137
-0.001054
-0.000988357
-0.000923091
-0.000856997
-0.000789193
-0.0007193
-0.000647536
-0.000574706
-0.000502087
-0.000431241
-0.000363788
-0.000301205
-0.000244658
-0.000194907
-0.000152276
-0.000116686
-8.77207e-05
-6.47236e-05
-4.68977e-05
-3.33952e-05
-2.339e-05
-1.6129e-05
-1.09615e-05
-7.34969e-06
-4.86686e-06
-3.18562e-06
-2.06252e-06
-1.32136e-06
-8.37606e-07
-5.25042e-07
-3.25006e-07
-1.98173e-07
-1.18504e-07
-6.89409e-08
-3.84084e-08
-1.98177e-08
-8.72611e-09
-2.2794e-09
1.33872e-09
3.23031e-09
4.11742e-09
4.4053e-09
4.33132e-09
4.04274e-09
3.63011e-09
3.14891e-09
2.63287e-09
2.10227e-09
1.56924e-09
1.04127e-09
5.19499e-10
1.18707e-11
-4.78652e-10
-9.53593e-10
-1.4108e-09
-1.84958e-09
-2.26873e-09
-2.66803e-09
-3.0471e-09
-3.40349e-09
-3.73247e-09
-4.03265e-09
-4.29967e-09
-4.5323e-09
-4.72735e-09
-4.8933e-09
-4.97522e-09
-5.14048e-09
-4.65064e-09
-5.53859e-09
1.63801e-09
-8.63764e-09
7.58038e-08
-4.37496e-08
9.73943e-07
-1.40682e-07
1.3648e-05
2.04966e-05
2.04966e-05
0.00966195
-0.00966195
-0.0165163
-0.0176159
-0.016649
-0.0149526
-0.0130935
-0.0113491
-0.00984092
-0.00859617
-0.00759144
-0.00678375
-0.0061285
-0.0055876
-0.00513163
-0.00473913
-0.00439496
-0.00408858
-0.00381259
-0.00356169
-0.0033318
-0.00311941
-0.00292112
-0.00273333
-0.00255222
-0.00237395
-0.00219508
-0.00201314
-0.00182705
-0.00163733
-0.0014461
-0.0012567
-0.00107317
-0.000899659
-0.000739872
-0.000596631
-0.000471654
-0.000365508
-0.000277711
-0.000206943
-0.000151318
-0.00010864
-7.66493e-05
-5.31925e-05
-3.63476e-05
-2.44835e-05
-1.62761e-05
-1.06902e-05
-6.94429e-06
-4.46511e-06
-2.84346e-06
-1.79383e-06
-1.12091e-06
-6.93375e-07
-4.24109e-07
-2.56021e-07
-1.52042e-07
-8.82919e-08
-4.95793e-08
-2.64414e-08
-1.28713e-08
-5.05266e-09
-6.9661e-10
1.53925e-09
2.5114e-09
2.78425e-09
2.67576e-09
2.36213e-09
1.94127e-09
1.46767e-09
9.7154e-10
4.69842e-10
-2.41458e-11
-5.03078e-10
-9.69281e-10
-1.42247e-09
-1.86008e-09
-2.27854e-09
-2.67842e-09
-3.05704e-09
-3.4149e-09
-3.75203e-09
-4.06596e-09
-4.35222e-09
-4.60846e-09
-4.82997e-09
-5.01731e-09
-5.15699e-09
-5.28079e-09
-5.23689e-09
-5.46671e-09
-4.03132e-09
-6.06618e-09
1.16965e-08
-1.14177e-08
2.01261e-07
-6.8446e-08
2.51018e-06
-1.66043e-08
3.4222e-05
5.18319e-05
5.18319e-05
0.0177597
-0.0177597
-0.0281239
-0.0290969
-0.0269195
-0.0237
-0.0203367
-0.0172613
-0.0146482
-0.0125199
-0.0108215
-0.00947159
-0.00839003
-0.00751
-0.00678032
-0.00616363
-0.00563337
-0.00517074
-0.00476238
-0.0043985
-0.00407158
-0.00377532
-0.00350392
-0.00325163
-0.00301263
-0.00278131
-0.00255277
-0.00232352
-0.00209198
-0.00185872
-0.00162634
-0.00139892
-0.00118132
-0.000978357
-0.000794122
-0.000631492
-0.000491905
-0.000375376
-0.000280707
-0.000205804
-0.000148031
-0.000104547
-7.25698e-05
-4.95635e-05
-3.33468e-05
-2.21297e-05
-1.45035e-05
-9.39842e-06
-6.02795e-06
-3.82965e-06
-2.41118e-06
-1.50459e-06
-9.30182e-07
-5.69242e-07
-3.44322e-07
-2.05386e-07
-1.2034e-07
-6.86766e-08
-3.74875e-08
-1.89904e-08
-8.27306e-09
-2.15748e-09
1.10167e-09
2.57822e-09
3.10071e-09
3.12129e-09
2.88066e-09
2.50594e-09
2.06476e-09
1.59346e-09
1.11163e-09
6.3049e-10
1.53931e-10
-2.90729e-10
-7.26062e-10
-1.14986e-09
-1.56052e-09
-1.95353e-09
-2.32965e-09
-2.68435e-09
-3.01925e-09
-3.33524e-09
-3.63027e-09
-3.90025e-09
-4.14245e-09
-4.35177e-09
-4.52991e-09
-4.65708e-09
-4.776e-09
-4.69332e-09
-4.95641e-09
-3.20883e-09
-5.30892e-09
1.59684e-08
-6.19088e-09
2.47587e-07
-2.05215e-09
3.00113e-06
8.65314e-07
3.696e-05
5.91406e-05
5.91406e-05
0.0282544
-0.0282544
-0.038741
-0.0375699
-0.0331777
-0.0280243
-0.0230971
-0.0188234
-0.0153292
-0.0125738
-0.0104408
-0.00879738
-0.00752357
-0.00652312
-0.00572372
-0.00507305
-0.0045339
-0.00407999
-0.00369256
-0.003358
-0.00306609
-0.00280873
-0.00257897
-0.00237049
-0.00217732
-0.001994
-0.00181592
-0.00163982
-0.00146418
-0.0012893
-0.00111711
-0.000950681
-0.000793553
-0.000649107
-0.000520014
-0.000407921
-0.000313346
-0.00023577
-0.000173855
-0.000125724
-8.92386e-05
-6.22326e-05
-4.26871e-05
-2.88344e-05
-1.92046e-05
-1.26278e-05
-8.2072e-06
-5.27804e-06
-3.36139e-06
-2.12105e-06
-1.32614e-06
-8.21102e-07
-5.02809e-07
-3.03792e-07
-1.80399e-07
-1.04638e-07
-5.8659e-08
-3.09554e-08
-1.41368e-08
-4.04822e-09
1.59613e-09
4.29117e-09
5.48722e-09
5.90588e-09
5.88741e-09
5.63322e-09
5.25677e-09
4.8188e-09
4.35156e-09
3.87234e-09
3.39048e-09
2.91126e-09
2.43736e-09
1.96508e-09
1.50523e-09
1.05756e-09
6.23548e-10
2.01551e-10
-1.66252e-10
-5.19917e-10
-8.6312e-10
-1.19595e-09
-1.51607e-09
-1.81913e-09
-2.10179e-09
-2.35809e-09
-2.5903e-09
-2.77547e-09
-2.95831e-09
-2.94538e-09
-3.27541e-09
-1.80379e-09
-3.51964e-09
1.47333e-08
-1.70262e-10
2.10475e-07
7.96017e-08
2.35499e-06
1.98611e-06
2.08864e-05
4.15054e-05
4.15054e-05
0.0370799
-0.0370799
-0.0391132
-0.0336313
-0.0272524
-0.0213215
-0.0162805
-0.0122494
-0.00917271
-0.00690398
-0.00526866
-0.00410325
-0.00327335
-0.00267714
-0.0022416
-0.00191616
-0.0016666
-0.00147004
-0.00131125
-0.00118003
-0.00106946
-0.000974661
-0.000891965
-0.000818389
-0.000751332
-0.000688489
-0.000627928
-0.000568234
-0.000508646
-0.000449107
-0.000390198
-0.000332957
-0.00027864
-0.000228476
-0.000183463
-0.00014424
-0.000111043
-8.37358e-05
-6.18842e-05
-4.48539e-05
-3.19108e-05
-2.23055e-05
-1.53349e-05
-1.03808e-05
-6.92712e-06
-4.56165e-06
-2.96722e-06
-1.9078e-06
-1.21277e-06
-7.61881e-07
-4.72259e-07
-2.87872e-07
-1.71444e-07
-9.85064e-08
-5.31729e-08
-2.52093e-08
-8.07888e-09
2.02955e-09
7.24516e-09
1.00316e-08
1.14287e-08
1.19989e-08
1.20721e-08
1.18723e-08
1.15139e-08
1.10685e-08
1.05775e-08
1.00631e-08
9.53717e-09
9.00626e-09
8.4739e-09
7.94211e-09
7.412e-09
6.88105e-09
6.35456e-09
5.83326e-09
5.3182e-09
4.80964e-09
4.3045e-09
3.81469e-09
3.33924e-09
2.87598e-09
2.42532e-09
1.98952e-09
1.57096e-09
1.17349e-09
7.97849e-10
4.56421e-10
1.30897e-10
-2.73139e-11
-4.3249e-10
2.67339e-10
-9.13872e-10
9.37188e-09
-6.66139e-10
1.15452e-07
5.33175e-08
1.10819e-06
1.76059e-06
7.1939e-07
1.40856e-05
1.40856e-05
0
0
0
0
0
0
0
0
0
0
0
0
0
0
0
0
0
0
0
0
0
0
0
0
0
0
0
0
0
0
0
0
0
0
0
0
0
0
0
0
0
0
0
0
0
0
0
0
0
0
0
0
0
0
0
0
0
0
0
0
0
0
0
0
0
0
0
0
0
0
0
0
0
0
0
0
0
0
0
0
0
0
0
0
0
0
0
0
0
0
0
0
0
0
0
0
0
0
0
0
0
0
0
0
0
0
0
0
0
0
0
0
0
0
0
0
0
0
0
0
0
0
0
0
0
0
0
0
0
0
0
0
0
0
0
0
0
0
0
0
0
0
0
0
0
0
0
0
0
0
0
0
0
0
0
0
0
0
0
0
0
0
0
0
0
0
0
0
0
0
0
0
0
0
0
0
0
0
0
0
0
0
0
0
0
0
0
0
0
0
0
0
0
0
0
0
0
0
0
0
0
0
0
0
