# vtk DataFile Version 2.0
FlowField
ASCII
DATASET STRUCTURED_GRID
DIMENSIONS 102 12 1 
POINTS 1224 double
0 0 0
0.3 0 0
0.6 0 0
0.9 0 0
1.2 0 0
1.5 0 0
1.8 0 0
2.1 0 0
2.4 0 0
2.7 0 0
3 0 0
3.3 0 0
3.6 0 0
3.9 0 0
4.2 0 0
4.5 0 0
4.8 0 0
5.1 0 0
5.4 0 0
5.7 0 0
6 0 0
6.3 0 0
6.6 0 0
6.9 0 0
7.2 0 0
7.5 0 0
7.8 0 0
8.1 0 0
8.4 0 0
8.7 0 0
9 0 0
9.3 0 0
9.6 0 0
9.9 0 0
10.2 0 0
10.5 0 0
10.8 0 0
11.1 0 0
11.4 0 0
11.7 0 0
12 0 0
12.3 0 0
12.6 0 0
12.9 0 0
13.2 0 0
13.5 0 0
13.8 0 0
14.1 0 0
14.4 0 0
14.7 0 0
15 0 0
15.3 0 0
15.6 0 0
15.9 0 0
16.2 0 0
16.5 0 0
16.8 0 0
17.1 0 0
17.4 0 0
17.7 0 0
18 0 0
18.3 0 0
18.6 0 0
18.9 0 0
19.2 0 0
19.5 0 0
19.8 0 0
20.1 0 0
20.4 0 0
20.7 0 0
21 0 0
21.3 0 0
21.6 0 0
21.9 0 0
22.2 0 0
22.5 0 0
22.8 0 0
23.1 0 0
23.4 0 0
23.7 0 0
24 0 0
24.3 0 0
24.6 0 0
24.9 0 0
25.2 0 0
25.5 0 0
25.8 0 0
26.1 0 0
26.4 0 0
26.7 0 0
27 0 0
27.3 0 0
27.6 0 0
27.9 0 0
28.2 0 0
28.5 0 0
28.8 0 0
29.1 0 0
29.4 0 0
29.7 0 0
30 0 0
30.3 0 0
0 0.1 0
0.3 0.1 0
0.6 0.1 0
0.9 0.1 0
1.2 0.1 0
1.5 0.1 0
1.8 0.1 0
2.1 0.1 0
2.4 0.1 0
2.7 0.1 0
3 0.1 0
3.3 0.1 0
3.6 0.1 0
3.9 0.1 0
4.2 0.1 0
4.5 0.1 0
4.8 0.1 0
5.1 0.1 0
5.4 0.1 0
5.7 0.1 0
6 0.1 0
6.3 0.1 0
6.6 0.1 0
6.9 0.1 0
7.2 0.1 0
7.5 0.1 0
7.8 0.1 0
8.1 0.1 0
8.4 0.1 0
8.7 0.1 0
9 0.1 0
9.3 0.1 0
9.6 0.1 0
9.9 0.1 0
10.2 0.1 0
10.5 0.1 0
10.8 0.1 0
11.1 0.1 0
11.4 0.1 0
11.7 0.1 0
12 0.1 0
12.3 0.1 0
12.6 0.1 0
12.9 0.1 0
13.2 0.1 0
13.5 0.1 0
13.8 0.1 0
14.1 0.1 0
14.4 0.1 0
14.7 0.1 0
15 0.1 0
15.3 0.1 0
15.6 0.1 0
15.9 0.1 0
16.2 0.1 0
16.5 0.1 0
16.8 0.1 0
17.1 0.1 0
17.4 0.1 0
17.7 0.1 0
18 0.1 0
18.3 0.1 0
18.6 0.1 0
18.9 0.1 0
19.2 0.1 0
19.5 0.1 0
19.8 0.1 0
20.1 0.1 0
20.4 0.1 0
20.7 0.1 0
21 0.1 0
21.3 0.1 0
21.6 0.1 0
21.9 0.1 0
22.2 0.1 0
22.5 0.1 0
22.8 0.1 0
23.1 0.1 0
23.4 0.1 0
23.7 0.1 0
24 0.1 0
24.3 0.1 0
24.6 0.1 0
24.9 0.1 0
25.2 0.1 0
25.5 0.1 0
25.8 0.1 0
26.1 0.1 0
26.4 0.1 0
26.7 0.1 0
27 0.1 0
27.3 0.1 0
27.6 0.1 0
27.9 0.1 0
28.2 0.1 0
28.5 0.1 0
28.8 0.1 0
29.1 0.1 0
29.4 0.1 0
29.7 0.1 0
30 0.1 0
30.3 0.1 0
0 0.2 0
0.3 0.2 0
0.6 0.2 0
0.9 0.2 0
1.2 0.2 0
1.5 0.2 0
1.8 0.2 0
2.1 0.2 0
2.4 0.2 0
2.7 0.2 0
3 0.2 0
3.3 0.2 0
3.6 0.2 0
3.9 0.2 0
4.2 0.2 0
4.5 0.2 0
4.8 0.2 0
5.1 0.2 0
5.4 0.2 0
5.7 0.2 0
6 0.2 0
6.3 0.2 0
6.6 0.2 0
6.9 0.2 0
7.2 0.2 0
7.5 0.2 0
7.8 0.2 0
8.1 0.2 0
8.4 0.2 0
8.7 0.2 0
9 0.2 0
9.3 0.2 0
9.6 0.2 0
9.9 0.2 0
10.2 0.2 0
10.5 0.2 0
10.8 0.2 0
11.1 0.2 0
11.4 0.2 0
11.7 0.2 0
12 0.2 0
12.3 0.2 0
12.6 0.2 0
12.9 0.2 0
13.2 0.2 0
13.5 0.2 0
13.8 0.2 0
14.1 0.2 0
14.4 0.2 0
14.7 0.2 0
15 0.2 0
15.3 0.2 0
15.6 0.2 0
15.9 0.2 0
16.2 0.2 0
16.5 0.2 0
16.8 0.2 0
17.1 0.2 0
17.4 0.2 0
17.7 0.2 0
18 0.2 0
18.3 0.2 0
18.6 0.2 0
18.9 0.2 0
19.2 0.2 0
19.5 0.2 0
19.8 0.2 0
20.1 0.2 0
20.4 0.2 0
20.7 0.2 0
21 0.2 0
21.3 0.2 0
21.6 0.2 0
21.9 0.2 0
22.2 0.2 0
22.5 0.2 0
22.8 0.2 0
23.1 0.2 0
23.4 0.2 0
23.7 0.2 0
24 0.2 0
24.3 0.2 0
24.6 0.2 0
24.9 0.2 0
25.2 0.2 0
25.5 0.2 0
25.8 0.2 0
26.1 0.2 0
26.4 0.2 0
26.7 0.2 0
27 0.2 0
27.3 0.2 0
27.6 0.2 0
27.9 0.2 0
28.2 0.2 0
28.5 0.2 0
28.8 0.2 0
29.1 0.2 0
29.4 0.2 0
29.7 0.2 0
30 0.2 0
30.3 0.2 0
0 0.3 0
0.3 0.3 0
0.6 0.3 0
0.9 0.3 0
1.2 0.3 0
1.5 0.3 0
1.8 0.3 0
2.1 0.3 0
2.4 0.3 0
2.7 0.3 0
3 0.3 0
3.3 0.3 0
3.6 0.3 0
3.9 0.3 0
4.2 0.3 0
4.5 0.3 0
4.8 0.3 0
5.1 0.3 0
5.4 0.3 0
5.7 0.3 0
6 0.3 0
6.3 0.3 0
6.6 0.3 0
6.9 0.3 0
7.2 0.3 0
7.5 0.3 0
7.8 0.3 0
8.1 0.3 0
8.4 0.3 0
8.7 0.3 0
9 0.3 0
9.3 0.3 0
9.6 0.3 0
9.9 0.3 0
10.2 0.3 0
10.5 0.3 0
10.8 0.3 0
11.1 0.3 0
11.4 0.3 0
11.7 0.3 0
12 0.3 0
12.3 0.3 0
12.6 0.3 0
12.9 0.3 0
13.2 0.3 0
13.5 0.3 0
13.8 0.3 0
14.1 0.3 0
14.4 0.3 0
14.7 0.3 0
15 0.3 0
15.3 0.3 0
15.6 0.3 0
15.9 0.3 0
16.2 0.3 0
16.5 0.3 0
16.8 0.3 0
17.1 0.3 0
17.4 0.3 0
17.7 0.3 0
18 0.3 0
18.3 0.3 0
18.6 0.3 0
18.9 0.3 0
19.2 0.3 0
19.5 0.3 0
19.8 0.3 0
20.1 0.3 0
20.4 0.3 0
20.7 0.3 0
21 0.3 0
21.3 0.3 0
21.6 0.3 0
21.9 0.3 0
22.2 0.3 0
22.5 0.3 0
22.8 0.3 0
23.1 0.3 0
23.4 0.3 0
23.7 0.3 0
24 0.3 0
24.3 0.3 0
24.6 0.3 0
24.9 0.3 0
25.2 0.3 0
25.5 0.3 0
25.8 0.3 0
26.1 0.3 0
26.4 0.3 0
26.7 0.3 0
27 0.3 0
27.3 0.3 0
27.6 0.3 0
27.9 0.3 0
28.2 0.3 0
28.5 0.3 0
28.8 0.3 0
29.1 0.3 0
29.4 0.3 0
29.7 0.3 0
30 0.3 0
30.3 0.3 0
0 0.4 0
0.3 0.4 0
0.6 0.4 0
0.9 0.4 0
1.2 0.4 0
1.5 0.4 0
1.8 0.4 0
2.1 0.4 0
2.4 0.4 0
2.7 0.4 0
3 0.4 0
3.3 0.4 0
3.6 0.4 0
3.9 0.4 0
4.2 0.4 0
4.5 0.4 0
4.8 0.4 0
5.1 0.4 0
5.4 0.4 0
5.7 0.4 0
6 0.4 0
6.3 0.4 0
6.6 0.4 0
6.9 0.4 0
7.2 0.4 0
7.5 0.4 0
7.8 0.4 0
8.1 0.4 0
8.4 0.4 0
8.7 0.4 0
9 0.4 0
9.3 0.4 0
9.6 0.4 0
9.9 0.4 0
10.2 0.4 0
10.5 0.4 0
10.8 0.4 0
11.1 0.4 0
11.4 0.4 0
11.7 0.4 0
12 0.4 0
12.3 0.4 0
12.6 0.4 0
12.9 0.4 0
13.2 0.4 0
13.5 0.4 0
13.8 0.4 0
14.1 0.4 0
14.4 0.4 0
14.7 0.4 0
15 0.4 0
15.3 0.4 0
15.6 0.4 0
15.9 0.4 0
16.2 0.4 0
16.5 0.4 0
16.8 0.4 0
17.1 0.4 0
17.4 0.4 0
17.7 0.4 0
18 0.4 0
18.3 0.4 0
18.6 0.4 0
18.9 0.4 0
19.2 0.4 0
19.5 0.4 0
19.8 0.4 0
20.1 0.4 0
20.4 0.4 0
20.7 0.4 0
21 0.4 0
21.3 0.4 0
21.6 0.4 0
21.9 0.4 0
22.2 0.4 0
22.5 0.4 0
22.8 0.4 0
23.1 0.4 0
23.4 0.4 0
23.7 0.4 0
24 0.4 0
24.3 0.4 0
24.6 0.4 0
24.9 0.4 0
25.2 0.4 0
25.5 0.4 0
25.8 0.4 0
26.1 0.4 0
26.4 0.4 0
26.7 0.4 0
27 0.4 0
27.3 0.4 0
27.6 0.4 0
27.9 0.4 0
28.2 0.4 0
28.5 0.4 0
28.8 0.4 0
29.1 0.4 0
29.4 0.4 0
29.7 0.4 0
30 0.4 0
30.3 0.4 0
0 0.5 0
0.3 0.5 0
0.6 0.5 0
0.9 0.5 0
1.2 0.5 0
1.5 0.5 0
1.8 0.5 0
2.1 0.5 0
2.4 0.5 0
2.7 0.5 0
3 0.5 0
3.3 0.5 0
3.6 0.5 0
3.9 0.5 0
4.2 0.5 0
4.5 0.5 0
4.8 0.5 0
5.1 0.5 0
5.4 0.5 0
5.7 0.5 0
6 0.5 0
6.3 0.5 0
6.6 0.5 0
6.9 0.5 0
7.2 0.5 0
7.5 0.5 0
7.8 0.5 0
8.1 0.5 0
8.4 0.5 0
8.7 0.5 0
9 0.5 0
9.3 0.5 0
9.6 0.5 0
9.9 0.5 0
10.2 0.5 0
10.5 0.5 0
10.8 0.5 0
11.1 0.5 0
11.4 0.5 0
11.7 0.5 0
12 0.5 0
12.3 0.5 0
12.6 0.5 0
12.9 0.5 0
13.2 0.5 0
13.5 0.5 0
13.8 0.5 0
14.1 0.5 0
14.4 0.5 0
14.7 0.5 0
15 0.5 0
15.3 0.5 0
15.6 0.5 0
15.9 0.5 0
16.2 0.5 0
16.5 0.5 0
16.8 0.5 0
17.1 0.5 0
17.4 0.5 0
17.7 0.5 0
18 0.5 0
18.3 0.5 0
18.6 0.5 0
18.9 0.5 0
19.2 0.5 0
19.5 0.5 0
19.8 0.5 0
20.1 0.5 0
20.4 0.5 0
20.7 0.5 0
21 0.5 0
21.3 0.5 0
21.6 0.5 0
21.9 0.5 0
22.2 0.5 0
22.5 0.5 0
22.8 0.5 0
23.1 0.5 0
23.4 0.5 0
23.7 0.5 0
24 0.5 0
24.3 0.5 0
24.6 0.5 0
24.9 0.5 0
25.2 0.5 0
25.5 0.5 0
25.8 0.5 0
26.1 0.5 0
26.4 0.5 0
26.7 0.5 0
27 0.5 0
27.3 0.5 0
27.6 0.5 0
27.9 0.5 0
28.2 0.5 0
28.5 0.5 0
28.8 0.5 0
29.1 0.5 0
29.4 0.5 0
29.7 0.5 0
30 0.5 0
30.3 0.5 0
0 0.6 0
0.3 0.6 0
0.6 0.6 0
0.9 0.6 0
1.2 0.6 0
1.5 0.6 0
1.8 0.6 0
2.1 0.6 0
2.4 0.6 0
2.7 0.6 0
3 0.6 0
3.3 0.6 0
3.6 0.6 0
3.9 0.6 0
4.2 0.6 0
4.5 0.6 0
4.8 0.6 0
5.1 0.6 0
5.4 0.6 0
5.7 0.6 0
6 0.6 0
6.3 0.6 0
6.6 0.6 0
6.9 0.6 0
7.2 0.6 0
7.5 0.6 0
7.8 0.6 0
8.1 0.6 0
8.4 0.6 0
8.7 0.6 0
9 0.6 0
9.3 0.6 0
9.6 0.6 0
9.9 0.6 0
10.2 0.6 0
10.5 0.6 0
10.8 0.6 0
11.1 0.6 0
11.4 0.6 0
11.7 0.6 0
12 0.6 0
12.3 0.6 0
12.6 0.6 0
12.9 0.6 0
13.2 0.6 0
13.5 0.6 0
13.8 0.6 0
14.1 0.6 0
14.4 0.6 0
14.7 0.6 0
15 0.6 0
15.3 0.6 0
15.6 0.6 0
15.9 0.6 0
16.2 0.6 0
16.5 0.6 0
16.8 0.6 0
17.1 0.6 0
17.4 0.6 0
17.7 0.6 0
18 0.6 0
18.3 0.6 0
18.6 0.6 0
18.9 0.6 0
19.2 0.6 0
19.5 0.6 0
19.8 0.6 0
20.1 0.6 0
20.4 0.6 0
20.7 0.6 0
21 0.6 0
21.3 0.6 0
21.6 0.6 0
21.9 0.6 0
22.2 0.6 0
22.5 0.6 0
22.8 0.6 0
23.1 0.6 0
23.4 0.6 0
23.7 0.6 0
24 0.6 0
24.3 0.6 0
24.6 0.6 0
24.9 0.6 0
25.2 0.6 0
25.5 0.6 0
25.8 0.6 0
26.1 0.6 0
26.4 0.6 0
26.7 0.6 0
27 0.6 0
27.3 0.6 0
27.6 0.6 0
27.9 0.6 0
28.2 0.6 0
28.5 0.6 0
28.8 0.6 0
29.1 0.6 0
29.4 0.6 0
29.7 0.6 0
30 0.6 0
30.3 0.6 0
0 0.7 0
0.3 0.7 0
0.6 0.7 0
0.9 0.7 0
1.2 0.7 0
1.5 0.7 0
1.8 0.7 0
2.1 0.7 0
2.4 0.7 0
2.7 0.7 0
3 0.7 0
3.3 0.7 0
3.6 0.7 0
3.9 0.7 0
4.2 0.7 0
4.5 0.7 0
4.8 0.7 0
5.1 0.7 0
5.4 0.7 0
5.7 0.7 0
6 0.7 0
6.3 0.7 0
6.6 0.7 0
6.9 0.7 0
7.2 0.7 0
7.5 0.7 0
7.8 0.7 0
8.1 0.7 0
8.4 0.7 0
8.7 0.7 0
9 0.7 0
9.3 0.7 0
9.6 0.7 0
9.9 0.7 0
10.2 0.7 0
10.5 0.7 0
10.8 0.7 0
11.1 0.7 0
11.4 0.7 0
11.7 0.7 0
12 0.7 0
12.3 0.7 0
12.6 0.7 0
12.9 0.7 0
13.2 0.7 0
13.5 0.7 0
13.8 0.7 0
14.1 0.7 0
14.4 0.7 0
14.7 0.7 0
15 0.7 0
15.3 0.7 0
15.6 0.7 0
15.9 0.7 0
16.2 0.7 0
16.5 0.7 0
16.8 0.7 0
17.1 0.7 0
17.4 0.7 0
17.7 0.7 0
18 0.7 0
18.3 0.7 0
18.6 0.7 0
18.9 0.7 0
19.2 0.7 0
19.5 0.7 0
19.8 0.7 0
20.1 0.7 0
20.4 0.7 0
20.7 0.7 0
21 0.7 0
21.3 0.7 0
21.6 0.7 0
21.9 0.7 0
22.2 0.7 0
22.5 0.7 0
22.8 0.7 0
23.1 0.7 0
23.4 0.7 0
23.7 0.7 0
24 0.7 0
24.3 0.7 0
24.6 0.7 0
24.9 0.7 0
25.2 0.7 0
25.5 0.7 0
25.8 0.7 0
26.1 0.7 0
26.4 0.7 0
26.7 0.7 0
27 0.7 0
27.3 0.7 0
27.6 0.7 0
27.9 0.7 0
28.2 0.7 0
28.5 0.7 0
28.8 0.7 0
29.1 0.7 0
29.4 0.7 0
29.7 0.7 0
30 0.7 0
30.3 0.7 0
0 0.8 0
0.3 0.8 0
0.6 0.8 0
0.9 0.8 0
1.2 0.8 0
1.5 0.8 0
1.8 0.8 0
2.1 0.8 0
2.4 0.8 0
2.7 0.8 0
3 0.8 0
3.3 0.8 0
3.6 0.8 0
3.9 0.8 0
4.2 0.8 0
4.5 0.8 0
4.8 0.8 0
5.1 0.8 0
5.4 0.8 0
5.7 0.8 0
6 0.8 0
6.3 0.8 0
6.6 0.8 0
6.9 0.8 0
7.2 0.8 0
7.5 0.8 0
7.8 0.8 0
8.1 0.8 0
8.4 0.8 0
8.7 0.8 0
9 0.8 0
9.3 0.8 0
9.6 0.8 0
9.9 0.8 0
10.2 0.8 0
10.5 0.8 0
10.8 0.8 0
11.1 0.8 0
11.4 0.8 0
11.7 0.8 0
12 0.8 0
12.3 0.8 0
12.6 0.8 0
12.9 0.8 0
13.2 0.8 0
13.5 0.8 0
13.8 0.8 0
14.1 0.8 0
14.4 0.8 0
14.7 0.8 0
15 0.8 0
15.3 0.8 0
15.6 0.8 0
15.9 0.8 0
16.2 0.8 0
16.5 0.8 0
16.8 0.8 0
17.1 0.8 0
17.4 0.8 0
17.7 0.8 0
18 0.8 0
18.3 0.8 0
18.6 0.8 0
18.9 0.8 0
19.2 0.8 0
19.5 0.8 0
19.8 0.8 0
20.1 0.8 0
20.4 0.8 0
20.7 0.8 0
21 0.8 0
21.3 0.8 0
21.6 0.8 0
21.9 0.8 0
22.2 0.8 0
22.5 0.8 0
22.8 0.8 0
23.1 0.8 0
23.4 0.8 0
23.7 0.8 0
24 0.8 0
24.3 0.8 0
24.6 0.8 0
24.9 0.8 0
25.2 0.8 0
25.5 0.8 0
25.8 0.8 0
26.1 0.8 0
26.4 0.8 0
26.7 0.8 0
27 0.8 0
27.3 0.8 0
27.6 0.8 0
27.9 0.8 0
28.2 0.8 0
28.5 0.8 0
28.8 0.8 0
29.1 0.8 0
29.4 0.8 0
29.7 0.8 0
30 0.8 0
30.3 0.8 0
0 0.9 0
0.3 0.9 0
0.6 0.9 0
0.9 0.9 0
1.2 0.9 0
1.5 0.9 0
1.8 0.9 0
2.1 0.9 0
2.4 0.9 0
2.7 0.9 0
3 0.9 0
3.3 0.9 0
3.6 0.9 0
3.9 0.9 0
4.2 0.9 0
4.5 0.9 0
4.8 0.9 0
5.1 0.9 0
5.4 0.9 0
5.7 0.9 0
6 0.9 0
6.3 0.9 0
6.6 0.9 0
6.9 0.9 0
7.2 0.9 0
7.5 0.9 0
7.8 0.9 0
8.1 0.9 0
8.4 0.9 0
8.7 0.9 0
9 0.9 0
9.3 0.9 0
9.6 0.9 0
9.9 0.9 0
10.2 0.9 0
10.5 0.9 0
10.8 0.9 0
11.1 0.9 0
11.4 0.9 0
11.7 0.9 0
12 0.9 0
12.3 0.9 0
12.6 0.9 0
12.9 0.9 0
13.2 0.9 0
13.5 0.9 0
13.8 0.9 0
14.1 0.9 0
14.4 0.9 0
14.7 0.9 0
15 0.9 0
15.3 0.9 0
15.6 0.9 0
15.9 0.9 0
16.2 0.9 0
16.5 0.9 0
16.8 0.9 0
17.1 0.9 0
17.4 0.9 0
17.7 0.9 0
18 0.9 0
18.3 0.9 0
18.6 0.9 0
18.9 0.9 0
19.2 0.9 0
19.5 0.9 0
19.8 0.9 0
20.1 0.9 0
20.4 0.9 0
20.7 0.9 0
21 0.9 0
21.3 0.9 0
21.6 0.9 0
21.9 0.9 0
22.2 0.9 0
22.5 0.9 0
22.8 0.9 0
23.1 0.9 0
23.4 0.9 0
23.7 0.9 0
24 0.9 0
24.3 0.9 0
24.6 0.9 0
24.9 0.9 0
25.2 0.9 0
25.5 0.9 0
25.8 0.9 0
26.1 0.9 0
26.4 0.9 0
26.7 0.9 0
27 0.9 0
27.3 0.9 0
27.6 0.9 0
27.9 0.9 0
28.2 0.9 0
28.5 0.9 0
28.8 0.9 0
29.1 0.9 0
29.4 0.9 0
29.7 0.9 0
30 0.9 0
30.3 0.9 0
0 1 0
0.3 1 0
0.6 1 0
0.9 1 0
1.2 1 0
1.5 1 0
1.8 1 0
2.1 1 0
2.4 1 0
2.7 1 0
3 1 0
3.3 1 0
3.6 1 0
3.9 1 0
4.2 1 0
4.5 1 0
4.8 1 0
5.1 1 0
5.4 1 0
5.7 1 0
6 1 0
6.3 1 0
6.6 1 0
6.9 1 0
7.2 1 0
7.5 1 0
7.8 1 0
8.1 1 0
8.4 1 0
8.7 1 0
9 1 0
9.3 1 0
9.6 1 0
9.9 1 0
10.2 1 0
10.5 1 0
10.8 1 0
11.1 1 0
11.4 1 0
11.7 1 0
12 1 0
12.3 1 0
12.6 1 0
12.9 1 0
13.2 1 0
13.5 1 0
13.8 1 0
14.1 1 0
14.4 1 0
14.7 1 0
15 1 0
15.3 1 0
15.6 1 0
15.9 1 0
16.2 1 0
16.5 1 0
16.8 1 0
17.1 1 0
17.4 1 0
17.7 1 0
18 1 0
18.3 1 0
18.6 1 0
18.9 1 0
19.2 1 0
19.5 1 0
19.8 1 0
20.1 1 0
20.4 1 0
20.7 1 0
21 1 0
21.3 1 0
21.6 1 0
21.9 1 0
22.2 1 0
22.5 1 0
22.8 1 0
23.1 1 0
23.4 1 0
23.7 1 0
24 1 0
24.3 1 0
24.6 1 0
24.9 1 0
25.2 1 0
25.5 1 0
25.8 1 0
26.1 1 0
26.4 1 0
26.7 1 0
27 1 0
27.3 1 0
27.6 1 0
27.9 1 0
28.2 1 0
28.5 1 0
28.8 1 0
29.1 1 0
29.4 1 0
29.7 1 0
30 1 0
30.3 1 0
0 1.1 0
0.3 1.1 0
0.6 1.1 0
0.9 1.1 0
1.2 1.1 0
1.5 1.1 0
1.8 1.1 0
2.1 1.1 0
2.4 1.1 0
2.7 1.1 0
3 1.1 0
3.3 1.1 0
3.6 1.1 0
3.9 1.1 0
4.2 1.1 0
4.5 1.1 0
4.8 1.1 0
5.1 1.1 0
5.4 1.1 0
5.7 1.1 0
6 1.1 0
6.3 1.1 0
6.6 1.1 0
6.9 1.1 0
7.2 1.1 0
7.5 1.1 0
7.8 1.1 0
8.1 1.1 0
8.4 1.1 0
8.7 1.1 0
9 1.1 0
9.3 1.1 0
9.6 1.1 0
9.9 1.1 0
10.2 1.1 0
10.5 1.1 0
10.8 1.1 0
11.1 1.1 0
11.4 1.1 0
11.7 1.1 0
12 1.1 0
12.3 1.1 0
12.6 1.1 0
12.9 1.1 0
13.2 1.1 0
13.5 1.1 0
13.8 1.1 0
14.1 1.1 0
14.4 1.1 0
14.7 1.1 0
15 1.1 0
15.3 1.1 0
15.6 1.1 0
15.9 1.1 0
16.2 1.1 0
16.5 1.1 0
16.8 1.1 0
17.1 1.1 0
17.4 1.1 0
17.7 1.1 0
18 1.1 0
18.3 1.1 0
18.6 1.1 0
18.9 1.1 0
19.2 1.1 0
19.5 1.1 0
19.8 1.1 0
20.1 1.1 0
20.4 1.1 0
20.7 1.1 0
21 1.1 0
21.3 1.1 0
21.6 1.1 0
21.9 1.1 0
22.2 1.1 0
22.5 1.1 0
22.8 1.1 0
23.1 1.1 0
23.4 1.1 0
23.7 1.1 0
24 1.1 0
24.3 1.1 0
24.6 1.1 0
24.9 1.1 0
25.2 1.1 0
25.5 1.1 0
25.8 1.1 0
26.1 1.1 0
26.4 1.1 0
26.7 1.1 0
27 1.1 0
27.3 1.1 0
27.6 1.1 0
27.9 1.1 0
28.2 1.1 0
28.5 1.1 0
28.8 1.1 0
29.1 1.1 0
29.4 1.1 0
29.7 1.1 0
30 1.1 0
30.3 1.1 0

POINT_DATA 1224

SCALARS u double
LOOKUP_TABLE default
-1
-0.890155
-0.775928
-0.678686
-0.600314
-0.539058
-0.492138
-0.456612
-0.429788
-0.409424
-0.393769
-0.381516
-0.371723
-0.36372
-0.357042
-0.35136
-0.346447
-0.342139
-0.338321
-0.334906
-0.33183
-0.329044
-0.326509
-0.324194
-0.322072
-0.320124
-0.318331
-0.316677
-0.315149
-0.313735
-0.312426
-0.311211
-0.310083
-0.309035
-0.30806
-0.307153
-0.306308
-0.30552
-0.304786
-0.3041
-0.303461
-0.302863
-0.302305
-0.301784
-0.301296
-0.300841
-0.300414
-0.300016
-0.299642
-0.299293
-0.298966
-0.298659
-0.298372
-0.298104
-0.297852
-0.297617
-0.297398
-0.297193
-0.297003
-0.296826
-0.296664
-0.296514
-0.296378
-0.296254
-0.296143
-0.296043
-0.295954
-0.295876
-0.295808
-0.295749
-0.295699
-0.295657
-0.295621
-0.295591
-0.295567
-0.295547
-0.295531
-0.295518
-0.295508
-0.295501
-0.295495
-0.29549
-0.295487
-0.295484
-0.295482
-0.295481
-0.29548
-0.295479
-0.295478
-0.295478
-0.295478
-0.295478
-0.295478
-0.295478
-0.295477
-0.295477
-0.295477
-0.295478
-0.295478
-0.295478
-0.295478
-1
1
0.890155
0.775928
0.678686
0.600314
0.539058
0.492138
0.456612
0.429788
0.409424
0.393769
0.381516
0.371723
0.36372
0.357042
0.35136
0.346447
0.342139
0.338321
0.334906
0.33183
0.329044
0.326509
0.324194
0.322072
0.320124
0.318331
0.316677
0.315149
0.313735
0.312426
0.311211
0.310083
0.309035
0.30806
0.307153
0.306308
0.30552
0.304786
0.3041
0.303461
0.302863
0.302305
0.301784
0.301296
0.300841
0.300414
0.300016
0.299642
0.299293
0.298966
0.298659
0.298372
0.298104
0.297852
0.297617
0.297398
0.297193
0.297003
0.296826
0.296664
0.296514
0.296378
0.296254
0.296143
0.296043
0.295954
0.295876
0.295808
0.295749
0.295699
0.295657
0.295621
0.295591
0.295567
0.295547
0.295531
0.295518
0.295508
0.295501
0.295495
0.29549
0.295487
0.295484
0.295482
0.295481
0.29548
0.295479
0.295478
0.295478
0.295478
0.295478
0.295478
0.295478
0.295477
0.295477
0.295477
0.295478
0.295478
0.295478
0.295478
1
1
1.02798
1.03242
1.02466
1.01102
0.994783
0.977789
0.961059
0.945139
0.930292
0.916613
0.904107
0.892723
0.882385
0.873008
0.8645
0.856777
0.849756
0.843365
0.837537
0.832213
0.827339
0.822871
0.818766
0.81499
0.81151
0.808299
0.805332
0.802586
0.800043
0.797685
0.795496
0.793463
0.791573
0.789814
0.788177
0.786652
0.78523
0.783905
0.782668
0.781514
0.780436
0.77943
0.778489
0.777611
0.776789
0.776021
0.775302
0.77463
0.774001
0.773412
0.772861
0.772346
0.771863
0.771413
0.770992
0.770599
0.770234
0.769896
0.769583
0.769295
0.769031
0.768791
0.768573
0.768377
0.768203
0.768049
0.767913
0.767795
0.767693
0.767607
0.767533
0.767472
0.767421
0.76738
0.767346
0.767319
0.767297
0.76728
0.767267
0.767257
0.767249
0.767244
0.767239
0.767236
0.767234
0.767232
0.767231
0.76723
0.76723
0.767229
0.767229
0.767229
0.767229
0.767229
0.767229
0.767229
0.767229
0.767229
0.767233
0.767233
1
1
1.03305
1.06793
1.0968
1.11906
1.13542
1.14691
1.1546
1.15942
1.16214
1.16336
1.1635
1.16291
1.1618
1.16036
1.1587
1.15691
1.15506
1.15319
1.15132
1.1495
1.14772
1.14601
1.14436
1.14279
1.14129
1.13987
1.13852
1.13725
1.13604
1.13491
1.13384
1.13283
1.13189
1.131
1.13016
1.12938
1.12865
1.12796
1.12731
1.1267
1.12613
1.1256
1.1251
1.12463
1.12419
1.12378
1.12339
1.12303
1.12269
1.12238
1.12208
1.1218
1.12154
1.12129
1.12107
1.12085
1.12065
1.12047
1.1203
1.12014
1.11999
1.11986
1.11973
1.11962
1.11952
1.11943
1.11935
1.11928
1.11922
1.11916
1.11912
1.11908
1.11905
1.11902
1.119
1.11898
1.11896
1.11895
1.11894
1.11893
1.11893
1.11892
1.11892
1.11892
1.11892
1.11891
1.11891
1.11891
1.11891
1.11891
1.11891
1.11891
1.11891
1.11891
1.11891
1.11891
1.11891
1.11891
1.11891
1.11891
1
1
1.02627
1.06424
1.10183
1.13558
1.16458
1.18891
1.20913
1.22592
1.23995
1.25177
1.26185
1.27053
1.27809
1.28474
1.29062
1.29585
1.30054
1.30475
1.30855
1.31199
1.31511
1.31795
1.32054
1.32291
1.32508
1.32707
1.3289
1.33058
1.33213
1.33356
1.33488
1.3361
1.33724
1.33829
1.33926
1.34017
1.34101
1.34179
1.34252
1.34319
1.34383
1.34442
1.34496
1.34548
1.34596
1.3464
1.34682
1.34721
1.34758
1.34792
1.34824
1.34854
1.34881
1.34908
1.34932
1.34955
1.34976
1.34995
1.35013
1.3503
1.35045
1.35059
1.35071
1.35083
1.35093
1.35101
1.35109
1.35116
1.35121
1.35126
1.3513
1.35134
1.35136
1.35139
1.3514
1.35142
1.35143
1.35144
1.35144
1.35145
1.35145
1.35146
1.35146
1.35146
1.35146
1.35146
1.35146
1.35146
1.35146
1.35146
1.35146
1.35146
1.35146
1.35146
1.35146
1.35146
1.35146
1.35146
1.35146
1.35146
1
1
1.02256
1.05948
1.09803
1.13402
1.16616
1.19425
1.21859
1.23973
1.25819
1.27449
1.28903
1.30212
1.314
1.32485
1.33482
1.34401
1.35251
1.36038
1.36768
1.37447
1.38078
1.38666
1.39214
1.39724
1.402
1.40643
1.41057
1.41444
1.41805
1.42142
1.42457
1.42752
1.43027
1.43284
1.43525
1.43749
1.4396
1.44157
1.44341
1.44513
1.44674
1.44825
1.44966
1.45099
1.45222
1.45338
1.45447
1.45549
1.45644
1.45733
1.45817
1.45895
1.45968
1.46037
1.46101
1.46161
1.46216
1.46268
1.46316
1.4636
1.46401
1.46439
1.46473
1.46503
1.46531
1.46555
1.46577
1.46596
1.46613
1.46627
1.46639
1.46649
1.46658
1.46665
1.46671
1.46676
1.4668
1.46683
1.46685
1.46687
1.46689
1.4669
1.4669
1.46691
1.46692
1.46692
1.46692
1.46692
1.46692
1.46693
1.46693
1.46693
1.46693
1.46693
1.46693
1.46693
1.46693
1.46693
1.46692
1.46692
1
1
1.02256
1.05948
1.09803
1.13402
1.16616
1.19425
1.21859
1.23973
1.25819
1.27449
1.28903
1.30212
1.314
1.32485
1.33482
1.34401
1.35251
1.36038
1.36768
1.37447
1.38078
1.38666
1.39214
1.39724
1.402
1.40643
1.41057
1.41444
1.41805
1.42142
1.42457
1.42752
1.43027
1.43284
1.43525
1.43749
1.4396
1.44157
1.44341
1.44513
1.44674
1.44825
1.44966
1.45099
1.45223
1.45338
1.45447
1.45549
1.45644
1.45733
1.45817
1.45895
1.45968
1.46037
1.46101
1.46161
1.46216
1.46268
1.46316
1.4636
1.46401
1.46439
1.46473
1.46503
1.46531
1.46555
1.46577
1.46596
1.46613
1.46627
1.46639
1.4665
1.46658
1.46665
1.46671
1.46676
1.4668
1.46683
1.46685
1.46687
1.46689
1.4669
1.4669
1.46691
1.46692
1.46692
1.46692
1.46692
1.46692
1.46693
1.46693
1.46693
1.46693
1.46693
1.46693
1.46693
1.46693
1.46693
1.46692
1.46692
1
1
1.02627
1.06424
1.10183
1.13558
1.16458
1.18891
1.20913
1.22592
1.23995
1.25177
1.26185
1.27053
1.27809
1.28474
1.29062
1.29585
1.30054
1.30475
1.30855
1.31199
1.31511
1.31795
1.32054
1.32291
1.32508
1.32707
1.3289
1.33058
1.33213
1.33356
1.33488
1.3361
1.33724
1.33829
1.33926
1.34017
1.34101
1.34179
1.34252
1.3432
1.34383
1.34442
1.34497
1.34548
1.34596
1.3464
1.34682
1.34721
1.34758
1.34792
1.34824
1.34854
1.34882
1.34908
1.34932
1.34955
1.34976
1.34995
1.35013
1.3503
1.35045
1.35059
1.35072
1.35083
1.35093
1.35101
1.35109
1.35116
1.35121
1.35126
1.3513
1.35134
1.35136
1.35139
1.3514
1.35142
1.35143
1.35144
1.35144
1.35145
1.35145
1.35146
1.35146
1.35146
1.35146
1.35146
1.35146
1.35146
1.35146
1.35146
1.35146
1.35146
1.35146
1.35146
1.35146
1.35146
1.35146
1.35146
1.35146
1.35146
1
1
1.03305
1.06793
1.0968
1.11906
1.13542
1.14691
1.1546
1.15942
1.16214
1.16336
1.1635
1.16291
1.1618
1.16036
1.1587
1.15691
1.15506
1.15319
1.15132
1.1495
1.14772
1.14601
1.14436
1.14279
1.14129
1.13987
1.13852
1.13725
1.13604
1.13491
1.13384
1.13283
1.13189
1.131
1.13017
1.12938
1.12865
1.12796
1.12731
1.1267
1.12613
1.1256
1.1251
1.12463
1.12419
1.12378
1.12339
1.12303
1.12269
1.12238
1.12208
1.1218
1.12154
1.1213
1.12107
1.12085
1.12066
1.12047
1.1203
1.12014
1.11999
1.11986
1.11974
1.11962
1.11952
1.11943
1.11935
1.11928
1.11922
1.11917
1.11912
1.11908
1.11905
1.11902
1.119
1.11898
1.11896
1.11895
1.11894
1.11893
1.11893
1.11892
1.11892
1.11892
1.11892
1.11891
1.11891
1.11891
1.11891
1.11891
1.11891
1.11891
1.11891
1.11891
1.11891
1.11891
1.11891
1.11891
1.11891
1.11891
1
1
1.02798
1.03242
1.02466
1.01102
0.994783
0.977789
0.961059
0.94514
0.930292
0.916614
0.904107
0.892723
0.882386
0.873008
0.864501
0.856777
0.849757
0.843366
0.837538
0.832213
0.82734
0.822871
0.818767
0.814991
0.811511
0.8083
0.805332
0.802587
0.800044
0.797686
0.795497
0.793464
0.791574
0.789815
0.788178
0.786653
0.785231
0.783906
0.782669
0.781515
0.780437
0.779431
0.77849
0.777611
0.77679
0.776022
0.775303
0.774631
0.774002
0.773413
0.772862
0.772347
0.771864
0.771414
0.770993
0.7706
0.770235
0.769897
0.769584
0.769296
0.769032
0.768792
0.768574
0.768379
0.768204
0.76805
0.767914
0.767796
0.767695
0.767608
0.767535
0.767473
0.767422
0.767381
0.767347
0.76732
0.767298
0.767281
0.767268
0.767258
0.76725
0.767244
0.76724
0.767237
0.767235
0.767233
0.767232
0.767231
0.76723
0.76723
0.767229
0.767229
0.767229
0.767229
0.767229
0.767229
0.767229
0.767229
0.767233
0.767233
1
1
0.890155
0.775928
0.678686
0.600315
0.539058
0.492138
0.456612
0.429788
0.409424
0.393769
0.381517
0.371723
0.363721
0.357042
0.35136
0.346447
0.342139
0.338321
0.334906
0.33183
0.329044
0.326509
0.324194
0.322073
0.320125
0.318331
0.316677
0.315149
0.313735
0.312426
0.311211
0.310083
0.309035
0.308061
0.307153
0.306308
0.30552
0.304786
0.304101
0.303461
0.302864
0.302306
0.301784
0.301297
0.300841
0.300415
0.300016
0.299643
0.299293
0.298966
0.29866
0.298373
0.298104
0.297853
0.297618
0.297398
0.297193
0.297003
0.296827
0.296664
0.296515
0.296379
0.296255
0.296143
0.296043
0.295955
0.295877
0.295809
0.29575
0.2957
0.295657
0.295622
0.295592
0.295567
0.295548
0.295532
0.295519
0.295509
0.295501
0.295495
0.29549
0.295487
0.295484
0.295482
0.295481
0.29548
0.295479
0.295479
0.295478
0.295478
0.295478
0.295478
0.295478
0.295478
0.295478
0.295478
0.295478
0.295478
0.295478
0.295478
1
-1
-0.890155
-0.775928
-0.678686
-0.600315
-0.539058
-0.492138
-0.456612
-0.429788
-0.409424
-0.393769
-0.381517
-0.371723
-0.363721
-0.357042
-0.35136
-0.346447
-0.342139
-0.338321
-0.334906
-0.33183
-0.329044
-0.326509
-0.324194
-0.322073
-0.320125
-0.318331
-0.316677
-0.315149
-0.313735
-0.312426
-0.311211
-0.310083
-0.309035
-0.308061
-0.307153
-0.306308
-0.30552
-0.304786
-0.304101
-0.303461
-0.302864
-0.302306
-0.301784
-0.301297
-0.300841
-0.300415
-0.300016
-0.299643
-0.299293
-0.298966
-0.29866
-0.298373
-0.298104
-0.297853
-0.297618
-0.297398
-0.297193
-0.297003
-0.296827
-0.296664
-0.296515
-0.296379
-0.296255
-0.296143
-0.296043
-0.295955
-0.295877
-0.295809
-0.29575
-0.2957
-0.295657
-0.295622
-0.295592
-0.295567
-0.295548
-0.295532
-0.295519
-0.295509
-0.295501
-0.295495
-0.29549
-0.295487
-0.295484
-0.295482
-0.295481
-0.29548
-0.295479
-0.295479
-0.295478
-0.295478
-0.295478
-0.295478
-0.295478
-0.295478
-0.295478
-0.295478
-0.295478
-0.295478
-0.295478
-0.295478
-1
