# vtk DataFile Version 2.0
FlowField
ASCII
DATASET STRUCTURED_GRID
DIMENSIONS 102 1 12 
POINTS 1224 double
0 0 0
0.4 0 0
0.8 0 0
1.2 0 0
1.6 0 0
2 0 0
2.4 0 0
2.8 0 0
3.2 0 0
3.6 0 0
4 0 0
4.4 0 0
4.8 0 0
5.2 0 0
5.6 0 0
6 0 0
6.4 0 0
6.8 0 0
7.2 0 0
7.6 0 0
8 0 0
8.4 0 0
8.8 0 0
9.2 0 0
9.6 0 0
10 0 0
10.4 0 0
10.8 0 0
11.2 0 0
11.6 0 0
12 0 0
12.4 0 0
12.8 0 0
13.2 0 0
13.6 0 0
14 0 0
14.4 0 0
14.8 0 0
15.2 0 0
15.6 0 0
16 0 0
16.4 0 0
16.8 0 0
17.2 0 0
17.6 0 0
18 0 0
18.4 0 0
18.8 0 0
19.2 0 0
19.6 0 0
20 0 0
20.4 0 0
20.8 0 0
21.2 0 0
21.6 0 0
22 0 0
22.4 0 0
22.8 0 0
23.2 0 0
23.6 0 0
24 0 0
24.4 0 0
24.8 0 0
25.2 0 0
25.6 0 0
26 0 0
26.4 0 0
26.8 0 0
27.2 0 0
27.6 0 0
28 0 0
28.4 0 0
28.8 0 0
29.2 0 0
29.6 0 0
30 0 0
30.4 0 0
30.8 0 0
31.2 0 0
31.6 0 0
32 0 0
32.4 0 0
32.8 0 0
33.2 0 0
33.6 0 0
34 0 0
34.4 0 0
34.8 0 0
35.2 0 0
35.6 0 0
36 0 0
36.4 0 0
36.8 0 0
37.2 0 0
37.6 0 0
38 0 0
38.4 0 0
38.8 0 0
39.2 0 0
39.6 0 0
40 0 0
40.4 0 0
0 0.1 0
0.4 0.1 0
0.8 0.1 0
1.2 0.1 0
1.6 0.1 0
2 0.1 0
2.4 0.1 0
2.8 0.1 0
3.2 0.1 0
3.6 0.1 0
4 0.1 0
4.4 0.1 0
4.8 0.1 0
5.2 0.1 0
5.6 0.1 0
6 0.1 0
6.4 0.1 0
6.8 0.1 0
7.2 0.1 0
7.6 0.1 0
8 0.1 0
8.4 0.1 0
8.8 0.1 0
9.2 0.1 0
9.6 0.1 0
10 0.1 0
10.4 0.1 0
10.8 0.1 0
11.2 0.1 0
11.6 0.1 0
12 0.1 0
12.4 0.1 0
12.8 0.1 0
13.2 0.1 0
13.6 0.1 0
14 0.1 0
14.4 0.1 0
14.8 0.1 0
15.2 0.1 0
15.6 0.1 0
16 0.1 0
16.4 0.1 0
16.8 0.1 0
17.2 0.1 0
17.6 0.1 0
18 0.1 0
18.4 0.1 0
18.8 0.1 0
19.2 0.1 0
19.6 0.1 0
20 0.1 0
20.4 0.1 0
20.8 0.1 0
21.2 0.1 0
21.6 0.1 0
22 0.1 0
22.4 0.1 0
22.8 0.1 0
23.2 0.1 0
23.6 0.1 0
24 0.1 0
24.4 0.1 0
24.8 0.1 0
25.2 0.1 0
25.6 0.1 0
26 0.1 0
26.4 0.1 0
26.8 0.1 0
27.2 0.1 0
27.6 0.1 0
28 0.1 0
28.4 0.1 0
28.8 0.1 0
29.2 0.1 0
29.6 0.1 0
30 0.1 0
30.4 0.1 0
30.8 0.1 0
31.2 0.1 0
31.6 0.1 0
32 0.1 0
32.4 0.1 0
32.8 0.1 0
33.2 0.1 0
33.6 0.1 0
34 0.1 0
34.4 0.1 0
34.8 0.1 0
35.2 0.1 0
35.6 0.1 0
36 0.1 0
36.4 0.1 0
36.8 0.1 0
37.2 0.1 0
37.6 0.1 0
38 0.1 0
38.4 0.1 0
38.8 0.1 0
39.2 0.1 0
39.6 0.1 0
40 0.1 0
40.4 0.1 0
0 0.2 0
0.4 0.2 0
0.8 0.2 0
1.2 0.2 0
1.6 0.2 0
2 0.2 0
2.4 0.2 0
2.8 0.2 0
3.2 0.2 0
3.6 0.2 0
4 0.2 0
4.4 0.2 0
4.8 0.2 0
5.2 0.2 0
5.6 0.2 0
6 0.2 0
6.4 0.2 0
6.8 0.2 0
7.2 0.2 0
7.6 0.2 0
8 0.2 0
8.4 0.2 0
8.8 0.2 0
9.2 0.2 0
9.6 0.2 0
10 0.2 0
10.4 0.2 0
10.8 0.2 0
11.2 0.2 0
11.6 0.2 0
12 0.2 0
12.4 0.2 0
12.8 0.2 0
13.2 0.2 0
13.6 0.2 0
14 0.2 0
14.4 0.2 0
14.8 0.2 0
15.2 0.2 0
15.6 0.2 0
16 0.2 0
16.4 0.2 0
16.8 0.2 0
17.2 0.2 0
17.6 0.2 0
18 0.2 0
18.4 0.2 0
18.8 0.2 0
19.2 0.2 0
19.6 0.2 0
20 0.2 0
20.4 0.2 0
20.8 0.2 0
21.2 0.2 0
21.6 0.2 0
22 0.2 0
22.4 0.2 0
22.8 0.2 0
23.2 0.2 0
23.6 0.2 0
24 0.2 0
24.4 0.2 0
24.8 0.2 0
25.2 0.2 0
25.6 0.2 0
26 0.2 0
26.4 0.2 0
26.8 0.2 0
27.2 0.2 0
27.6 0.2 0
28 0.2 0
28.4 0.2 0
28.8 0.2 0
29.2 0.2 0
29.6 0.2 0
30 0.2 0
30.4 0.2 0
30.8 0.2 0
31.2 0.2 0
31.6 0.2 0
32 0.2 0
32.4 0.2 0
32.8 0.2 0
33.2 0.2 0
33.6 0.2 0
34 0.2 0
34.4 0.2 0
34.8 0.2 0
35.2 0.2 0
35.6 0.2 0
36 0.2 0
36.4 0.2 0
36.8 0.2 0
37.2 0.2 0
37.6 0.2 0
38 0.2 0
38.4 0.2 0
38.8 0.2 0
39.2 0.2 0
39.6 0.2 0
40 0.2 0
40.4 0.2 0
0 0.3 0
0.4 0.3 0
0.8 0.3 0
1.2 0.3 0
1.6 0.3 0
2 0.3 0
2.4 0.3 0
2.8 0.3 0
3.2 0.3 0
3.6 0.3 0
4 0.3 0
4.4 0.3 0
4.8 0.3 0
5.2 0.3 0
5.6 0.3 0
6 0.3 0
6.4 0.3 0
6.8 0.3 0
7.2 0.3 0
7.6 0.3 0
8 0.3 0
8.4 0.3 0
8.8 0.3 0
9.2 0.3 0
9.6 0.3 0
10 0.3 0
10.4 0.3 0
10.8 0.3 0
11.2 0.3 0
11.6 0.3 0
12 0.3 0
12.4 0.3 0
12.8 0.3 0
13.2 0.3 0
13.6 0.3 0
14 0.3 0
14.4 0.3 0
14.8 0.3 0
15.2 0.3 0
15.6 0.3 0
16 0.3 0
16.4 0.3 0
16.8 0.3 0
17.2 0.3 0
17.6 0.3 0
18 0.3 0
18.4 0.3 0
18.8 0.3 0
19.2 0.3 0
19.6 0.3 0
20 0.3 0
20.4 0.3 0
20.8 0.3 0
21.2 0.3 0
21.6 0.3 0
22 0.3 0
22.4 0.3 0
22.8 0.3 0
23.2 0.3 0
23.6 0.3 0
24 0.3 0
24.4 0.3 0
24.8 0.3 0
25.2 0.3 0
25.6 0.3 0
26 0.3 0
26.4 0.3 0
26.8 0.3 0
27.2 0.3 0
27.6 0.3 0
28 0.3 0
28.4 0.3 0
28.8 0.3 0
29.2 0.3 0
29.6 0.3 0
30 0.3 0
30.4 0.3 0
30.8 0.3 0
31.2 0.3 0
31.6 0.3 0
32 0.3 0
32.4 0.3 0
32.8 0.3 0
33.2 0.3 0
33.6 0.3 0
34 0.3 0
34.4 0.3 0
34.8 0.3 0
35.2 0.3 0
35.6 0.3 0
36 0.3 0
36.4 0.3 0
36.8 0.3 0
37.2 0.3 0
37.6 0.3 0
38 0.3 0
38.4 0.3 0
38.8 0.3 0
39.2 0.3 0
39.6 0.3 0
40 0.3 0
40.4 0.3 0
0 0.4 0
0.4 0.4 0
0.8 0.4 0
1.2 0.4 0
1.6 0.4 0
2 0.4 0
2.4 0.4 0
2.8 0.4 0
3.2 0.4 0
3.6 0.4 0
4 0.4 0
4.4 0.4 0
4.8 0.4 0
5.2 0.4 0
5.6 0.4 0
6 0.4 0
6.4 0.4 0
6.8 0.4 0
7.2 0.4 0
7.6 0.4 0
8 0.4 0
8.4 0.4 0
8.8 0.4 0
9.2 0.4 0
9.6 0.4 0
10 0.4 0
10.4 0.4 0
10.8 0.4 0
11.2 0.4 0
11.6 0.4 0
12 0.4 0
12.4 0.4 0
12.8 0.4 0
13.2 0.4 0
13.6 0.4 0
14 0.4 0
14.4 0.4 0
14.8 0.4 0
15.2 0.4 0
15.6 0.4 0
16 0.4 0
16.4 0.4 0
16.8 0.4 0
17.2 0.4 0
17.6 0.4 0
18 0.4 0
18.4 0.4 0
18.8 0.4 0
19.2 0.4 0
19.6 0.4 0
20 0.4 0
20.4 0.4 0
20.8 0.4 0
21.2 0.4 0
21.6 0.4 0
22 0.4 0
22.4 0.4 0
22.8 0.4 0
23.2 0.4 0
23.6 0.4 0
24 0.4 0
24.4 0.4 0
24.8 0.4 0
25.2 0.4 0
25.6 0.4 0
26 0.4 0
26.4 0.4 0
26.8 0.4 0
27.2 0.4 0
27.6 0.4 0
28 0.4 0
28.4 0.4 0
28.8 0.4 0
29.2 0.4 0
29.6 0.4 0
30 0.4 0
30.4 0.4 0
30.8 0.4 0
31.2 0.4 0
31.6 0.4 0
32 0.4 0
32.4 0.4 0
32.8 0.4 0
33.2 0.4 0
33.6 0.4 0
34 0.4 0
34.4 0.4 0
34.8 0.4 0
35.2 0.4 0
35.6 0.4 0
36 0.4 0
36.4 0.4 0
36.8 0.4 0
37.2 0.4 0
37.6 0.4 0
38 0.4 0
38.4 0.4 0
38.8 0.4 0
39.2 0.4 0
39.6 0.4 0
40 0.4 0
40.4 0.4 0
0 0.5 0
0.4 0.5 0
0.8 0.5 0
1.2 0.5 0
1.6 0.5 0
2 0.5 0
2.4 0.5 0
2.8 0.5 0
3.2 0.5 0
3.6 0.5 0
4 0.5 0
4.4 0.5 0
4.8 0.5 0
5.2 0.5 0
5.6 0.5 0
6 0.5 0
6.4 0.5 0
6.8 0.5 0
7.2 0.5 0
7.6 0.5 0
8 0.5 0
8.4 0.5 0
8.8 0.5 0
9.2 0.5 0
9.6 0.5 0
10 0.5 0
10.4 0.5 0
10.8 0.5 0
11.2 0.5 0
11.6 0.5 0
12 0.5 0
12.4 0.5 0
12.8 0.5 0
13.2 0.5 0
13.6 0.5 0
14 0.5 0
14.4 0.5 0
14.8 0.5 0
15.2 0.5 0
15.6 0.5 0
16 0.5 0
16.4 0.5 0
16.8 0.5 0
17.2 0.5 0
17.6 0.5 0
18 0.5 0
18.4 0.5 0
18.8 0.5 0
19.2 0.5 0
19.6 0.5 0
20 0.5 0
20.4 0.5 0
20.8 0.5 0
21.2 0.5 0
21.6 0.5 0
22 0.5 0
22.4 0.5 0
22.8 0.5 0
23.2 0.5 0
23.6 0.5 0
24 0.5 0
24.4 0.5 0
24.8 0.5 0
25.2 0.5 0
25.6 0.5 0
26 0.5 0
26.4 0.5 0
26.8 0.5 0
27.2 0.5 0
27.6 0.5 0
28 0.5 0
28.4 0.5 0
28.8 0.5 0
29.2 0.5 0
29.6 0.5 0
30 0.5 0
30.4 0.5 0
30.8 0.5 0
31.2 0.5 0
31.6 0.5 0
32 0.5 0
32.4 0.5 0
32.8 0.5 0
33.2 0.5 0
33.6 0.5 0
34 0.5 0
34.4 0.5 0
34.8 0.5 0
35.2 0.5 0
35.6 0.5 0
36 0.5 0
36.4 0.5 0
36.8 0.5 0
37.2 0.5 0
37.6 0.5 0
38 0.5 0
38.4 0.5 0
38.8 0.5 0
39.2 0.5 0
39.6 0.5 0
40 0.5 0
40.4 0.5 0
0 0.6 0
0.4 0.6 0
0.8 0.6 0
1.2 0.6 0
1.6 0.6 0
2 0.6 0
2.4 0.6 0
2.8 0.6 0
3.2 0.6 0
3.6 0.6 0
4 0.6 0
4.4 0.6 0
4.8 0.6 0
5.2 0.6 0
5.6 0.6 0
6 0.6 0
6.4 0.6 0
6.8 0.6 0
7.2 0.6 0
7.6 0.6 0
8 0.6 0
8.4 0.6 0
8.8 0.6 0
9.2 0.6 0
9.6 0.6 0
10 0.6 0
10.4 0.6 0
10.8 0.6 0
11.2 0.6 0
11.6 0.6 0
12 0.6 0
12.4 0.6 0
12.8 0.6 0
13.2 0.6 0
13.6 0.6 0
14 0.6 0
14.4 0.6 0
14.8 0.6 0
15.2 0.6 0
15.6 0.6 0
16 0.6 0
16.4 0.6 0
16.8 0.6 0
17.2 0.6 0
17.6 0.6 0
18 0.6 0
18.4 0.6 0
18.8 0.6 0
19.2 0.6 0
19.6 0.6 0
20 0.6 0
20.4 0.6 0
20.8 0.6 0
21.2 0.6 0
21.6 0.6 0
22 0.6 0
22.4 0.6 0
22.8 0.6 0
23.2 0.6 0
23.6 0.6 0
24 0.6 0
24.4 0.6 0
24.8 0.6 0
25.2 0.6 0
25.6 0.6 0
26 0.6 0
26.4 0.6 0
26.8 0.6 0
27.2 0.6 0
27.6 0.6 0
28 0.6 0
28.4 0.6 0
28.8 0.6 0
29.2 0.6 0
29.6 0.6 0
30 0.6 0
30.4 0.6 0
30.8 0.6 0
31.2 0.6 0
31.6 0.6 0
32 0.6 0
32.4 0.6 0
32.8 0.6 0
33.2 0.6 0
33.6 0.6 0
34 0.6 0
34.4 0.6 0
34.8 0.6 0
35.2 0.6 0
35.6 0.6 0
36 0.6 0
36.4 0.6 0
36.8 0.6 0
37.2 0.6 0
37.6 0.6 0
38 0.6 0
38.4 0.6 0
38.8 0.6 0
39.2 0.6 0
39.6 0.6 0
40 0.6 0
40.4 0.6 0
0 0.7 0
0.4 0.7 0
0.8 0.7 0
1.2 0.7 0
1.6 0.7 0
2 0.7 0
2.4 0.7 0
2.8 0.7 0
3.2 0.7 0
3.6 0.7 0
4 0.7 0
4.4 0.7 0
4.8 0.7 0
5.2 0.7 0
5.6 0.7 0
6 0.7 0
6.4 0.7 0
6.8 0.7 0
7.2 0.7 0
7.6 0.7 0
8 0.7 0
8.4 0.7 0
8.8 0.7 0
9.2 0.7 0
9.6 0.7 0
10 0.7 0
10.4 0.7 0
10.8 0.7 0
11.2 0.7 0
11.6 0.7 0
12 0.7 0
12.4 0.7 0
12.8 0.7 0
13.2 0.7 0
13.6 0.7 0
14 0.7 0
14.4 0.7 0
14.8 0.7 0
15.2 0.7 0
15.6 0.7 0
16 0.7 0
16.4 0.7 0
16.8 0.7 0
17.2 0.7 0
17.6 0.7 0
18 0.7 0
18.4 0.7 0
18.8 0.7 0
19.2 0.7 0
19.6 0.7 0
20 0.7 0
20.4 0.7 0
20.8 0.7 0
21.2 0.7 0
21.6 0.7 0
22 0.7 0
22.4 0.7 0
22.8 0.7 0
23.2 0.7 0
23.6 0.7 0
24 0.7 0
24.4 0.7 0
24.8 0.7 0
25.2 0.7 0
25.6 0.7 0
26 0.7 0
26.4 0.7 0
26.8 0.7 0
27.2 0.7 0
27.6 0.7 0
28 0.7 0
28.4 0.7 0
28.8 0.7 0
29.2 0.7 0
29.6 0.7 0
30 0.7 0
30.4 0.7 0
30.8 0.7 0
31.2 0.7 0
31.6 0.7 0
32 0.7 0
32.4 0.7 0
32.8 0.7 0
33.2 0.7 0
33.6 0.7 0
34 0.7 0
34.4 0.7 0
34.8 0.7 0
35.2 0.7 0
35.6 0.7 0
36 0.7 0
36.4 0.7 0
36.8 0.7 0
37.2 0.7 0
37.6 0.7 0
38 0.7 0
38.4 0.7 0
38.8 0.7 0
39.2 0.7 0
39.6 0.7 0
40 0.7 0
40.4 0.7 0
0 0.8 0
0.4 0.8 0
0.8 0.8 0
1.2 0.8 0
1.6 0.8 0
2 0.8 0
2.4 0.8 0
2.8 0.8 0
3.2 0.8 0
3.6 0.8 0
4 0.8 0
4.4 0.8 0
4.8 0.8 0
5.2 0.8 0
5.6 0.8 0
6 0.8 0
6.4 0.8 0
6.8 0.8 0
7.2 0.8 0
7.6 0.8 0
8 0.8 0
8.4 0.8 0
8.8 0.8 0
9.2 0.8 0
9.6 0.8 0
10 0.8 0
10.4 0.8 0
10.8 0.8 0
11.2 0.8 0
11.6 0.8 0
12 0.8 0
12.4 0.8 0
12.8 0.8 0
13.2 0.8 0
13.6 0.8 0
14 0.8 0
14.4 0.8 0
14.8 0.8 0
15.2 0.8 0
15.6 0.8 0
16 0.8 0
16.4 0.8 0
16.8 0.8 0
17.2 0.8 0
17.6 0.8 0
18 0.8 0
18.4 0.8 0
18.8 0.8 0
19.2 0.8 0
19.6 0.8 0
20 0.8 0
20.4 0.8 0
20.8 0.8 0
21.2 0.8 0
21.6 0.8 0
22 0.8 0
22.4 0.8 0
22.8 0.8 0
23.2 0.8 0
23.6 0.8 0
24 0.8 0
24.4 0.8 0
24.8 0.8 0
25.2 0.8 0
25.6 0.8 0
26 0.8 0
26.4 0.8 0
26.8 0.8 0
27.2 0.8 0
27.6 0.8 0
28 0.8 0
28.4 0.8 0
28.8 0.8 0
29.2 0.8 0
29.6 0.8 0
30 0.8 0
30.4 0.8 0
30.8 0.8 0
31.2 0.8 0
31.6 0.8 0
32 0.8 0
32.4 0.8 0
32.8 0.8 0
33.2 0.8 0
33.6 0.8 0
34 0.8 0
34.4 0.8 0
34.8 0.8 0
35.2 0.8 0
35.6 0.8 0
36 0.8 0
36.4 0.8 0
36.8 0.8 0
37.2 0.8 0
37.6 0.8 0
38 0.8 0
38.4 0.8 0
38.8 0.8 0
39.2 0.8 0
39.6 0.8 0
40 0.8 0
40.4 0.8 0
0 0.9 0
0.4 0.9 0
0.8 0.9 0
1.2 0.9 0
1.6 0.9 0
2 0.9 0
2.4 0.9 0
2.8 0.9 0
3.2 0.9 0
3.6 0.9 0
4 0.9 0
4.4 0.9 0
4.8 0.9 0
5.2 0.9 0
5.6 0.9 0
6 0.9 0
6.4 0.9 0
6.8 0.9 0
7.2 0.9 0
7.6 0.9 0
8 0.9 0
8.4 0.9 0
8.8 0.9 0
9.2 0.9 0
9.6 0.9 0
10 0.9 0
10.4 0.9 0
10.8 0.9 0
11.2 0.9 0
11.6 0.9 0
12 0.9 0
12.4 0.9 0
12.8 0.9 0
13.2 0.9 0
13.6 0.9 0
14 0.9 0
14.4 0.9 0
14.8 0.9 0
15.2 0.9 0
15.6 0.9 0
16 0.9 0
16.4 0.9 0
16.8 0.9 0
17.2 0.9 0
17.6 0.9 0
18 0.9 0
18.4 0.9 0
18.8 0.9 0
19.2 0.9 0
19.6 0.9 0
20 0.9 0
20.4 0.9 0
20.8 0.9 0
21.2 0.9 0
21.6 0.9 0
22 0.9 0
22.4 0.9 0
22.8 0.9 0
23.2 0.9 0
23.6 0.9 0
24 0.9 0
24.4 0.9 0
24.8 0.9 0
25.2 0.9 0
25.6 0.9 0
26 0.9 0
26.4 0.9 0
26.8 0.9 0
27.2 0.9 0
27.6 0.9 0
28 0.9 0
28.4 0.9 0
28.8 0.9 0
29.2 0.9 0
29.6 0.9 0
30 0.9 0
30.4 0.9 0
30.8 0.9 0
31.2 0.9 0
31.6 0.9 0
32 0.9 0
32.4 0.9 0
32.8 0.9 0
33.2 0.9 0
33.6 0.9 0
34 0.9 0
34.4 0.9 0
34.8 0.9 0
35.2 0.9 0
35.6 0.9 0
36 0.9 0
36.4 0.9 0
36.8 0.9 0
37.2 0.9 0
37.6 0.9 0
38 0.9 0
38.4 0.9 0
38.8 0.9 0
39.2 0.9 0
39.6 0.9 0
40 0.9 0
40.4 0.9 0
0 1 0
0.4 1 0
0.8 1 0
1.2 1 0
1.6 1 0
2 1 0
2.4 1 0
2.8 1 0
3.2 1 0
3.6 1 0
4 1 0
4.4 1 0
4.8 1 0
5.2 1 0
5.6 1 0
6 1 0
6.4 1 0
6.8 1 0
7.2 1 0
7.6 1 0
8 1 0
8.4 1 0
8.8 1 0
9.2 1 0
9.6 1 0
10 1 0
10.4 1 0
10.8 1 0
11.2 1 0
11.6 1 0
12 1 0
12.4 1 0
12.8 1 0
13.2 1 0
13.6 1 0
14 1 0
14.4 1 0
14.8 1 0
15.2 1 0
15.6 1 0
16 1 0
16.4 1 0
16.8 1 0
17.2 1 0
17.6 1 0
18 1 0
18.4 1 0
18.8 1 0
19.2 1 0
19.6 1 0
20 1 0
20.4 1 0
20.8 1 0
21.2 1 0
21.6 1 0
22 1 0
22.4 1 0
22.8 1 0
23.2 1 0
23.6 1 0
24 1 0
24.4 1 0
24.8 1 0
25.2 1 0
25.6 1 0
26 1 0
26.4 1 0
26.8 1 0
27.2 1 0
27.6 1 0
28 1 0
28.4 1 0
28.8 1 0
29.2 1 0
29.6 1 0
30 1 0
30.4 1 0
30.8 1 0
31.2 1 0
31.6 1 0
32 1 0
32.4 1 0
32.8 1 0
33.2 1 0
33.6 1 0
34 1 0
34.4 1 0
34.8 1 0
35.2 1 0
35.6 1 0
36 1 0
36.4 1 0
36.8 1 0
37.2 1 0
37.6 1 0
38 1 0
38.4 1 0
38.8 1 0
39.2 1 0
39.6 1 0
40 1 0
40.4 1 0
0 1.1 0
0.4 1.1 0
0.8 1.1 0
1.2 1.1 0
1.6 1.1 0
2 1.1 0
2.4 1.1 0
2.8 1.1 0
3.2 1.1 0
3.6 1.1 0
4 1.1 0
4.4 1.1 0
4.8 1.1 0
5.2 1.1 0
5.6 1.1 0
6 1.1 0
6.4 1.1 0
6.8 1.1 0
7.2 1.1 0
7.6 1.1 0
8 1.1 0
8.4 1.1 0
8.8 1.1 0
9.2 1.1 0
9.6 1.1 0
10 1.1 0
10.4 1.1 0
10.8 1.1 0
11.2 1.1 0
11.6 1.1 0
12 1.1 0
12.4 1.1 0
12.8 1.1 0
13.2 1.1 0
13.6 1.1 0
14 1.1 0
14.4 1.1 0
14.8 1.1 0
15.2 1.1 0
15.6 1.1 0
16 1.1 0
16.4 1.1 0
16.8 1.1 0
17.2 1.1 0
17.6 1.1 0
18 1.1 0
18.4 1.1 0
18.8 1.1 0
19.2 1.1 0
19.6 1.1 0
20 1.1 0
20.4 1.1 0
20.8 1.1 0
21.2 1.1 0
21.6 1.1 0
22 1.1 0
22.4 1.1 0
22.8 1.1 0
23.2 1.1 0
23.6 1.1 0
24 1.1 0
24.4 1.1 0
24.8 1.1 0
25.2 1.1 0
25.6 1.1 0
26 1.1 0
26.4 1.1 0
26.8 1.1 0
27.2 1.1 0
27.6 1.1 0
28 1.1 0
28.4 1.1 0
28.8 1.1 0
29.2 1.1 0
29.6 1.1 0
30 1.1 0
30.4 1.1 0
30.8 1.1 0
31.2 1.1 0
31.6 1.1 0
32 1.1 0
32.4 1.1 0
32.8 1.1 0
33.2 1.1 0
33.6 1.1 0
34 1.1 0
34.4 1.1 0
34.8 1.1 0
35.2 1.1 0
35.6 1.1 0
36 1.1 0
36.4 1.1 0
36.8 1.1 0
37.2 1.1 0
37.6 1.1 0
38 1.1 0
38.4 1.1 0
38.8 1.1 0
39.2 1.1 0
39.6 1.1 0
40 1.1 0
40.4 1.1 0

POINT_DATA 1224

SCALARS u double
LOOKUP_TABLE default
-1.15961
-0.840395
-0.642077
-0.561171
-0.537999
-0.533159
-0.53245
-0.5324
-0.532409
-0.532414
-0.532416
-0.532416
-0.532417
-0.532418
-0.532418
-0.532419
-0.53242
-0.53242
-0.532421
-0.532421
-0.532422
-0.532423
-0.532423
-0.532424
-0.532424
-0.532425
-0.532425
-0.532425
-0.532426
-0.532426
-0.532427
-0.532427
-0.532427
-0.532428
-0.532428
-0.532428
-0.532429
-0.532429
-0.532429
-0.532429
-0.53243
-0.53243
-0.53243
-0.53243
-0.53243
-0.53243
-0.53243
-0.53243
-0.53243
-0.53243
-0.53243
-0.53243
-0.53243
-0.53243
-0.53243
-0.53243
-0.53243
-0.53243
-0.532429
-0.532429
-0.532429
-0.532429
-0.532428
-0.532428
-0.532428
-0.532427
-0.532427
-0.532427
-0.532426
-0.532426
-0.532425
-0.532425
-0.532425
-0.532424
-0.532424
-0.532423
-0.532423
-0.532422
-0.532421
-0.532421
-0.53242
-0.53242
-0.532419
-0.532418
-0.532418
-0.532417
-0.532416
-0.532416
-0.532415
-0.532414
-0.532414
-0.532413
-0.532412
-0.532411
-0.532411
-0.532411
-0.532413
-0.532444
-0.532499
-0.533997
-0.533997
-1
1.15961
0.840395
0.642077
0.561171
0.537999
0.533159
0.53245
0.5324
0.532409
0.532414
0.532416
0.532416
0.532417
0.532418
0.532418
0.532419
0.53242
0.53242
0.532421
0.532421
0.532422
0.532423
0.532423
0.532424
0.532424
0.532425
0.532425
0.532425
0.532426
0.532426
0.532427
0.532427
0.532427
0.532428
0.532428
0.532428
0.532429
0.532429
0.532429
0.532429
0.53243
0.53243
0.53243
0.53243
0.53243
0.53243
0.53243
0.53243
0.53243
0.53243
0.53243
0.53243
0.53243
0.53243
0.53243
0.53243
0.53243
0.53243
0.532429
0.532429
0.532429
0.532429
0.532428
0.532428
0.532428
0.532427
0.532427
0.532427
0.532426
0.532426
0.532425
0.532425
0.532425
0.532424
0.532424
0.532423
0.532423
0.532422
0.532421
0.532421
0.53242
0.53242
0.532419
0.532418
0.532418
0.532417
0.532416
0.532416
0.532415
0.532414
0.532414
0.532413
0.532412
0.532411
0.532411
0.532411
0.532413
0.532444
0.532499
0.533997
0.533997
1
0.977907
1.02209
1.01738
1.01213
1.01102
1.01131
1.01162
1.01175
1.01179
1.0118
1.0118
1.0118
1.0118
1.0118
1.0118
1.0118
1.0118
1.01181
1.01181
1.01181
1.01181
1.01181
1.01181
1.01181
1.01181
1.01181
1.01181
1.01181
1.01181
1.01181
1.01181
1.01181
1.01181
1.01181
1.01181
1.01181
1.01181
1.01181
1.01181
1.01181
1.01181
1.01181
1.01181
1.01181
1.01181
1.01181
1.01181
1.01181
1.01181
1.01181
1.01181
1.0118
1.0118
1.0118
1.0118
1.0118
1.0118
1.0118
1.0118
1.0118
1.0118
1.0118
1.0118
1.0118
1.0118
1.0118
1.0118
1.01179
1.01179
1.01179
1.01179
1.01179
1.01179
1.01179
1.01179
1.01179
1.01179
1.01179
1.01178
1.01178
1.01178
1.01178
1.01178
1.01178
1.01178
1.01178
1.01178
1.01177
1.01177
1.01177
1.01177
1.01177
1.01177
1.01177
1.01177
1.01177
1.01177
1.01178
1.01182
1.01248
1.01248
1
0.953085
1.04691
1.10559
1.12861
1.13481
1.13599
1.13615
1.13615
1.13615
1.13615
1.13615
1.13615
1.13615
1.13615
1.13615
1.13615
1.13615
1.13615
1.13615
1.13615
1.13615
1.13615
1.13615
1.13615
1.13615
1.13615
1.13615
1.13615
1.13615
1.13615
1.13615
1.13615
1.13615
1.13615
1.13615
1.13615
1.13615
1.13615
1.13615
1.13615
1.13615
1.13615
1.13615
1.13615
1.13615
1.13615
1.13615
1.13614
1.13614
1.13614
1.13614
1.13614
1.13614
1.13614
1.13614
1.13614
1.13614
1.13614
1.13614
1.13614
1.13614
1.13614
1.13614
1.13614
1.13613
1.13613
1.13613
1.13613
1.13613
1.13613
1.13613
1.13613
1.13613
1.13613
1.13613
1.13612
1.13612
1.13612
1.13612
1.13612
1.13612
1.13612
1.13612
1.13612
1.13612
1.13612
1.13611
1.13611
1.13611
1.13611
1.13611
1.13611
1.13611
1.13611
1.13611
1.1361
1.1361
1.13609
1.13611
1.13563
1.13563
1
0.953624
1.04638
1.11783
1.14831
1.1568
1.15832
1.15842
1.15837
1.15835
1.15834
1.15834
1.15834
1.15834
1.15834
1.15834
1.15834
1.15834
1.15834
1.15834
1.15834
1.15834
1.15834
1.15834
1.15834
1.15834
1.15834
1.15834
1.15834
1.15834
1.15834
1.15834
1.15834
1.15834
1.15834
1.15834
1.15834
1.15834
1.15834
1.15834
1.15834
1.15834
1.15834
1.15834
1.15834
1.15834
1.15834
1.15833
1.15833
1.15833
1.15833
1.15833
1.15833
1.15833
1.15833
1.15833
1.15833
1.15833
1.15833
1.15833
1.15833
1.15833
1.15833
1.15833
1.15832
1.15832
1.15832
1.15832
1.15832
1.15832
1.15832
1.15832
1.15832
1.15832
1.15832
1.15832
1.15831
1.15831
1.15831
1.15831
1.15831
1.15831
1.15831
1.15831
1.15831
1.15831
1.15831
1.1583
1.1583
1.1583
1.1583
1.1583
1.1583
1.1583
1.1583
1.1583
1.15829
1.15829
1.15827
1.15824
1.15742
1.15742
1
0.955781
1.04422
1.11713
1.14978
1.15938
1.16123
1.16138
1.16134
1.16131
1.16131
1.1613
1.1613
1.1613
1.1613
1.1613
1.1613
1.1613
1.1613
1.1613
1.1613
1.1613
1.1613
1.1613
1.1613
1.1613
1.1613
1.1613
1.1613
1.1613
1.1613
1.1613
1.1613
1.1613
1.1613
1.1613
1.1613
1.1613
1.1613
1.1613
1.1613
1.1613
1.1613
1.1613
1.1613
1.1613
1.1613
1.16129
1.16129
1.16129
1.16129
1.16129
1.16129
1.16129
1.16129
1.16129
1.16129
1.16129
1.16129
1.16129
1.16129
1.16129
1.16129
1.16129
1.16128
1.16128
1.16128
1.16128
1.16128
1.16128
1.16128
1.16128
1.16128
1.16128
1.16128
1.16128
1.16127
1.16127
1.16127
1.16127
1.16127
1.16127
1.16127
1.16127
1.16127
1.16127
1.16127
1.16126
1.16126
1.16126
1.16126
1.16126
1.16126
1.16126
1.16126
1.16126
1.16126
1.16125
1.16123
1.16115
1.16029
1.16029
1
0.955781
1.04422
1.11713
1.14978
1.15938
1.16123
1.16138
1.16134
1.16131
1.16131
1.1613
1.1613
1.1613
1.1613
1.1613
1.1613
1.1613
1.1613
1.1613
1.1613
1.1613
1.1613
1.1613
1.1613
1.1613
1.1613
1.1613
1.1613
1.1613
1.1613
1.1613
1.1613
1.1613
1.1613
1.1613
1.1613
1.1613
1.1613
1.1613
1.1613
1.1613
1.1613
1.1613
1.1613
1.1613
1.1613
1.16129
1.16129
1.16129
1.16129
1.16129
1.16129
1.16129
1.16129
1.16129
1.16129
1.16129
1.16129
1.16129
1.16129
1.16129
1.16129
1.16129
1.16128
1.16128
1.16128
1.16128
1.16128
1.16128
1.16128
1.16128
1.16128
1.16128
1.16128
1.16128
1.16127
1.16127
1.16127
1.16127
1.16127
1.16127
1.16127
1.16127
1.16127
1.16127
1.16127
1.16126
1.16126
1.16126
1.16126
1.16126
1.16126
1.16126
1.16126
1.16126
1.16126
1.16125
1.16123
1.16115
1.16029
1.16029
1
0.953624
1.04638
1.11783
1.14831
1.1568
1.15832
1.15841
1.15837
1.15835
1.15834
1.15834
1.15834
1.15834
1.15834
1.15834
1.15834
1.15834
1.15834
1.15834
1.15834
1.15834
1.15834
1.15834
1.15834
1.15834
1.15834
1.15834
1.15834
1.15834
1.15834
1.15834
1.15834
1.15834
1.15834
1.15834
1.15834
1.15834
1.15834
1.15834
1.15834
1.15834
1.15834
1.15834
1.15834
1.15834
1.15834
1.15833
1.15833
1.15833
1.15833
1.15833
1.15833
1.15833
1.15833
1.15833
1.15833
1.15833
1.15833
1.15833
1.15833
1.15833
1.15833
1.15833
1.15832
1.15832
1.15832
1.15832
1.15832
1.15832
1.15832
1.15832
1.15832
1.15832
1.15832
1.15832
1.15831
1.15831
1.15831
1.15831
1.15831
1.15831
1.15831
1.15831
1.15831
1.15831
1.15831
1.1583
1.1583
1.1583
1.1583
1.1583
1.1583
1.1583
1.1583
1.1583
1.15829
1.15829
1.15827
1.15824
1.15742
1.15742
1
0.953085
1.04691
1.10559
1.12861
1.13481
1.13599
1.13614
1.13615
1.13615
1.13615
1.13615
1.13615
1.13615
1.13615
1.13615
1.13615
1.13615
1.13615
1.13615
1.13615
1.13615
1.13615
1.13615
1.13615
1.13615
1.13615
1.13615
1.13615
1.13615
1.13615
1.13615
1.13615
1.13615
1.13615
1.13615
1.13615
1.13615
1.13615
1.13615
1.13615
1.13615
1.13615
1.13615
1.13615
1.13615
1.13614
1.13614
1.13614
1.13614
1.13614
1.13614
1.13614
1.13614
1.13614
1.13614
1.13614
1.13614
1.13614
1.13614
1.13614
1.13614
1.13614
1.13614
1.13613
1.13613
1.13613
1.13613
1.13613
1.13613
1.13613
1.13613
1.13613
1.13613
1.13613
1.13613
1.13612
1.13612
1.13612
1.13612
1.13612
1.13612
1.13612
1.13612
1.13612
1.13612
1.13611
1.13611
1.13611
1.13611
1.13611
1.13611
1.13611
1.13611
1.13611
1.13611
1.1361
1.1361
1.13609
1.13611
1.13563
1.13563
1
0.977907
1.02209
1.01738
1.01213
1.01101
1.01131
1.01162
1.01175
1.01179
1.0118
1.0118
1.0118
1.0118
1.0118
1.0118
1.0118
1.0118
1.0118
1.0118
1.0118
1.0118
1.0118
1.0118
1.0118
1.0118
1.0118
1.0118
1.0118
1.0118
1.0118
1.0118
1.0118
1.0118
1.0118
1.0118
1.0118
1.0118
1.0118
1.0118
1.0118
1.0118
1.0118
1.0118
1.0118
1.0118
1.0118
1.0118
1.0118
1.0118
1.0118
1.0118
1.0118
1.0118
1.0118
1.0118
1.0118
1.0118
1.0118
1.0118
1.0118
1.0118
1.0118
1.0118
1.0118
1.0118
1.01179
1.01179
1.01179
1.01179
1.01179
1.01179
1.01179
1.01179
1.01179
1.01179
1.01179
1.01179
1.01178
1.01178
1.01178
1.01178
1.01178
1.01178
1.01178
1.01178
1.01178
1.01177
1.01177
1.01177
1.01177
1.01177
1.01177
1.01177
1.01177
1.01177
1.01176
1.01177
1.01178
1.01182
1.01248
1.01248
1
1.1596
0.840395
0.642076
0.561166
0.537993
0.533152
0.532443
0.532394
0.532403
0.532408
0.532409
0.53241
0.532411
0.532412
0.532412
0.532413
0.532414
0.532414
0.532415
0.532415
0.532416
0.532417
0.532417
0.532418
0.532418
0.532419
0.532419
0.53242
0.53242
0.532421
0.532421
0.532421
0.532422
0.532422
0.532422
0.532423
0.532423
0.532423
0.532424
0.532424
0.532424
0.532424
0.532425
0.532425
0.532425
0.532425
0.532425
0.532425
0.532425
0.532425
0.532425
0.532425
0.532425
0.532425
0.532425
0.532425
0.532425
0.532425
0.532425
0.532425
0.532425
0.532424
0.532424
0.532424
0.532424
0.532423
0.532423
0.532423
0.532422
0.532422
0.532422
0.532421
0.532421
0.53242
0.53242
0.532419
0.532419
0.532418
0.532418
0.532417
0.532417
0.532416
0.532416
0.532415
0.532414
0.532414
0.532413
0.532413
0.532412
0.532411
0.532411
0.53241
0.532409
0.532409
0.532408
0.532408
0.532409
0.53244
0.532496
0.533993
0.533993
1
-1.1596
-0.840395
-0.642076
-0.561166
-0.537993
-0.533152
-0.532443
-0.532394
-0.532403
-0.532408
-0.532409
-0.53241
-0.532411
-0.532412
-0.532412
-0.532413
-0.532414
-0.532414
-0.532415
-0.532415
-0.532416
-0.532417
-0.532417
-0.532418
-0.532418
-0.532419
-0.532419
-0.53242
-0.53242
-0.532421
-0.532421
-0.532421
-0.532422
-0.532422
-0.532422
-0.532423
-0.532423
-0.532423
-0.532424
-0.532424
-0.532424
-0.532424
-0.532425
-0.532425
-0.532425
-0.532425
-0.532425
-0.532425
-0.532425
-0.532425
-0.532425
-0.532425
-0.532425
-0.532425
-0.532425
-0.532425
-0.532425
-0.532425
-0.532425
-0.532425
-0.532425
-0.532424
-0.532424
-0.532424
-0.532424
-0.532423
-0.532423
-0.532423
-0.532422
-0.532422
-0.532422
-0.532421
-0.532421
-0.53242
-0.53242
-0.532419
-0.532419
-0.532418
-0.532418
-0.532417
-0.532417
-0.532416
-0.532416
-0.532415
-0.532414
-0.532414
-0.532413
-0.532413
-0.532412
-0.532411
-0.532411
-0.53241
-0.532409
-0.532409
-0.532408
-0.532408
-0.532409
-0.53244
-0.532496
-0.533993
-0.533993
-1
