# vtk DataFile Version 2.0
FlowField
ASCII
DATASET STRUCTURED_GRID
DIMENSIONS 102 1 12 
POINTS 1224 double
0 0 0
0.4 0 0
0.8 0 0
1.2 0 0
1.6 0 0
2 0 0
2.4 0 0
2.8 0 0
3.2 0 0
3.6 0 0
4 0 0
4.4 0 0
4.8 0 0
5.2 0 0
5.6 0 0
6 0 0
6.4 0 0
6.8 0 0
7.2 0 0
7.6 0 0
8 0 0
8.4 0 0
8.8 0 0
9.2 0 0
9.6 0 0
10 0 0
10.4 0 0
10.8 0 0
11.2 0 0
11.6 0 0
12 0 0
12.4 0 0
12.8 0 0
13.2 0 0
13.6 0 0
14 0 0
14.4 0 0
14.8 0 0
15.2 0 0
15.6 0 0
16 0 0
16.4 0 0
16.8 0 0
17.2 0 0
17.6 0 0
18 0 0
18.4 0 0
18.8 0 0
19.2 0 0
19.6 0 0
20 0 0
20.4 0 0
20.8 0 0
21.2 0 0
21.6 0 0
22 0 0
22.4 0 0
22.8 0 0
23.2 0 0
23.6 0 0
24 0 0
24.4 0 0
24.8 0 0
25.2 0 0
25.6 0 0
26 0 0
26.4 0 0
26.8 0 0
27.2 0 0
27.6 0 0
28 0 0
28.4 0 0
28.8 0 0
29.2 0 0
29.6 0 0
30 0 0
30.4 0 0
30.8 0 0
31.2 0 0
31.6 0 0
32 0 0
32.4 0 0
32.8 0 0
33.2 0 0
33.6 0 0
34 0 0
34.4 0 0
34.8 0 0
35.2 0 0
35.6 0 0
36 0 0
36.4 0 0
36.8 0 0
37.2 0 0
37.6 0 0
38 0 0
38.4 0 0
38.8 0 0
39.2 0 0
39.6 0 0
40 0 0
40.4 0 0
0 0.1 0
0.4 0.1 0
0.8 0.1 0
1.2 0.1 0
1.6 0.1 0
2 0.1 0
2.4 0.1 0
2.8 0.1 0
3.2 0.1 0
3.6 0.1 0
4 0.1 0
4.4 0.1 0
4.8 0.1 0
5.2 0.1 0
5.6 0.1 0
6 0.1 0
6.4 0.1 0
6.8 0.1 0
7.2 0.1 0
7.6 0.1 0
8 0.1 0
8.4 0.1 0
8.8 0.1 0
9.2 0.1 0
9.6 0.1 0
10 0.1 0
10.4 0.1 0
10.8 0.1 0
11.2 0.1 0
11.6 0.1 0
12 0.1 0
12.4 0.1 0
12.8 0.1 0
13.2 0.1 0
13.6 0.1 0
14 0.1 0
14.4 0.1 0
14.8 0.1 0
15.2 0.1 0
15.6 0.1 0
16 0.1 0
16.4 0.1 0
16.8 0.1 0
17.2 0.1 0
17.6 0.1 0
18 0.1 0
18.4 0.1 0
18.8 0.1 0
19.2 0.1 0
19.6 0.1 0
20 0.1 0
20.4 0.1 0
20.8 0.1 0
21.2 0.1 0
21.6 0.1 0
22 0.1 0
22.4 0.1 0
22.8 0.1 0
23.2 0.1 0
23.6 0.1 0
24 0.1 0
24.4 0.1 0
24.8 0.1 0
25.2 0.1 0
25.6 0.1 0
26 0.1 0
26.4 0.1 0
26.8 0.1 0
27.2 0.1 0
27.6 0.1 0
28 0.1 0
28.4 0.1 0
28.8 0.1 0
29.2 0.1 0
29.6 0.1 0
30 0.1 0
30.4 0.1 0
30.8 0.1 0
31.2 0.1 0
31.6 0.1 0
32 0.1 0
32.4 0.1 0
32.8 0.1 0
33.2 0.1 0
33.6 0.1 0
34 0.1 0
34.4 0.1 0
34.8 0.1 0
35.2 0.1 0
35.6 0.1 0
36 0.1 0
36.4 0.1 0
36.8 0.1 0
37.2 0.1 0
37.6 0.1 0
38 0.1 0
38.4 0.1 0
38.8 0.1 0
39.2 0.1 0
39.6 0.1 0
40 0.1 0
40.4 0.1 0
0 0.2 0
0.4 0.2 0
0.8 0.2 0
1.2 0.2 0
1.6 0.2 0
2 0.2 0
2.4 0.2 0
2.8 0.2 0
3.2 0.2 0
3.6 0.2 0
4 0.2 0
4.4 0.2 0
4.8 0.2 0
5.2 0.2 0
5.6 0.2 0
6 0.2 0
6.4 0.2 0
6.8 0.2 0
7.2 0.2 0
7.6 0.2 0
8 0.2 0
8.4 0.2 0
8.8 0.2 0
9.2 0.2 0
9.6 0.2 0
10 0.2 0
10.4 0.2 0
10.8 0.2 0
11.2 0.2 0
11.6 0.2 0
12 0.2 0
12.4 0.2 0
12.8 0.2 0
13.2 0.2 0
13.6 0.2 0
14 0.2 0
14.4 0.2 0
14.8 0.2 0
15.2 0.2 0
15.6 0.2 0
16 0.2 0
16.4 0.2 0
16.8 0.2 0
17.2 0.2 0
17.6 0.2 0
18 0.2 0
18.4 0.2 0
18.8 0.2 0
19.2 0.2 0
19.6 0.2 0
20 0.2 0
20.4 0.2 0
20.8 0.2 0
21.2 0.2 0
21.6 0.2 0
22 0.2 0
22.4 0.2 0
22.8 0.2 0
23.2 0.2 0
23.6 0.2 0
24 0.2 0
24.4 0.2 0
24.8 0.2 0
25.2 0.2 0
25.6 0.2 0
26 0.2 0
26.4 0.2 0
26.8 0.2 0
27.2 0.2 0
27.6 0.2 0
28 0.2 0
28.4 0.2 0
28.8 0.2 0
29.2 0.2 0
29.6 0.2 0
30 0.2 0
30.4 0.2 0
30.8 0.2 0
31.2 0.2 0
31.6 0.2 0
32 0.2 0
32.4 0.2 0
32.8 0.2 0
33.2 0.2 0
33.6 0.2 0
34 0.2 0
34.4 0.2 0
34.8 0.2 0
35.2 0.2 0
35.6 0.2 0
36 0.2 0
36.4 0.2 0
36.8 0.2 0
37.2 0.2 0
37.6 0.2 0
38 0.2 0
38.4 0.2 0
38.8 0.2 0
39.2 0.2 0
39.6 0.2 0
40 0.2 0
40.4 0.2 0
0 0.3 0
0.4 0.3 0
0.8 0.3 0
1.2 0.3 0
1.6 0.3 0
2 0.3 0
2.4 0.3 0
2.8 0.3 0
3.2 0.3 0
3.6 0.3 0
4 0.3 0
4.4 0.3 0
4.8 0.3 0
5.2 0.3 0
5.6 0.3 0
6 0.3 0
6.4 0.3 0
6.8 0.3 0
7.2 0.3 0
7.6 0.3 0
8 0.3 0
8.4 0.3 0
8.8 0.3 0
9.2 0.3 0
9.6 0.3 0
10 0.3 0
10.4 0.3 0
10.8 0.3 0
11.2 0.3 0
11.6 0.3 0
12 0.3 0
12.4 0.3 0
12.8 0.3 0
13.2 0.3 0
13.6 0.3 0
14 0.3 0
14.4 0.3 0
14.8 0.3 0
15.2 0.3 0
15.6 0.3 0
16 0.3 0
16.4 0.3 0
16.8 0.3 0
17.2 0.3 0
17.6 0.3 0
18 0.3 0
18.4 0.3 0
18.8 0.3 0
19.2 0.3 0
19.6 0.3 0
20 0.3 0
20.4 0.3 0
20.8 0.3 0
21.2 0.3 0
21.6 0.3 0
22 0.3 0
22.4 0.3 0
22.8 0.3 0
23.2 0.3 0
23.6 0.3 0
24 0.3 0
24.4 0.3 0
24.8 0.3 0
25.2 0.3 0
25.6 0.3 0
26 0.3 0
26.4 0.3 0
26.8 0.3 0
27.2 0.3 0
27.6 0.3 0
28 0.3 0
28.4 0.3 0
28.8 0.3 0
29.2 0.3 0
29.6 0.3 0
30 0.3 0
30.4 0.3 0
30.8 0.3 0
31.2 0.3 0
31.6 0.3 0
32 0.3 0
32.4 0.3 0
32.8 0.3 0
33.2 0.3 0
33.6 0.3 0
34 0.3 0
34.4 0.3 0
34.8 0.3 0
35.2 0.3 0
35.6 0.3 0
36 0.3 0
36.4 0.3 0
36.8 0.3 0
37.2 0.3 0
37.6 0.3 0
38 0.3 0
38.4 0.3 0
38.8 0.3 0
39.2 0.3 0
39.6 0.3 0
40 0.3 0
40.4 0.3 0
0 0.4 0
0.4 0.4 0
0.8 0.4 0
1.2 0.4 0
1.6 0.4 0
2 0.4 0
2.4 0.4 0
2.8 0.4 0
3.2 0.4 0
3.6 0.4 0
4 0.4 0
4.4 0.4 0
4.8 0.4 0
5.2 0.4 0
5.6 0.4 0
6 0.4 0
6.4 0.4 0
6.8 0.4 0
7.2 0.4 0
7.6 0.4 0
8 0.4 0
8.4 0.4 0
8.8 0.4 0
9.2 0.4 0
9.6 0.4 0
10 0.4 0
10.4 0.4 0
10.8 0.4 0
11.2 0.4 0
11.6 0.4 0
12 0.4 0
12.4 0.4 0
12.8 0.4 0
13.2 0.4 0
13.6 0.4 0
14 0.4 0
14.4 0.4 0
14.8 0.4 0
15.2 0.4 0
15.6 0.4 0
16 0.4 0
16.4 0.4 0
16.8 0.4 0
17.2 0.4 0
17.6 0.4 0
18 0.4 0
18.4 0.4 0
18.8 0.4 0
19.2 0.4 0
19.6 0.4 0
20 0.4 0
20.4 0.4 0
20.8 0.4 0
21.2 0.4 0
21.6 0.4 0
22 0.4 0
22.4 0.4 0
22.8 0.4 0
23.2 0.4 0
23.6 0.4 0
24 0.4 0
24.4 0.4 0
24.8 0.4 0
25.2 0.4 0
25.6 0.4 0
26 0.4 0
26.4 0.4 0
26.8 0.4 0
27.2 0.4 0
27.6 0.4 0
28 0.4 0
28.4 0.4 0
28.8 0.4 0
29.2 0.4 0
29.6 0.4 0
30 0.4 0
30.4 0.4 0
30.8 0.4 0
31.2 0.4 0
31.6 0.4 0
32 0.4 0
32.4 0.4 0
32.8 0.4 0
33.2 0.4 0
33.6 0.4 0
34 0.4 0
34.4 0.4 0
34.8 0.4 0
35.2 0.4 0
35.6 0.4 0
36 0.4 0
36.4 0.4 0
36.8 0.4 0
37.2 0.4 0
37.6 0.4 0
38 0.4 0
38.4 0.4 0
38.8 0.4 0
39.2 0.4 0
39.6 0.4 0
40 0.4 0
40.4 0.4 0
0 0.5 0
0.4 0.5 0
0.8 0.5 0
1.2 0.5 0
1.6 0.5 0
2 0.5 0
2.4 0.5 0
2.8 0.5 0
3.2 0.5 0
3.6 0.5 0
4 0.5 0
4.4 0.5 0
4.8 0.5 0
5.2 0.5 0
5.6 0.5 0
6 0.5 0
6.4 0.5 0
6.8 0.5 0
7.2 0.5 0
7.6 0.5 0
8 0.5 0
8.4 0.5 0
8.8 0.5 0
9.2 0.5 0
9.6 0.5 0
10 0.5 0
10.4 0.5 0
10.8 0.5 0
11.2 0.5 0
11.6 0.5 0
12 0.5 0
12.4 0.5 0
12.8 0.5 0
13.2 0.5 0
13.6 0.5 0
14 0.5 0
14.4 0.5 0
14.8 0.5 0
15.2 0.5 0
15.6 0.5 0
16 0.5 0
16.4 0.5 0
16.8 0.5 0
17.2 0.5 0
17.6 0.5 0
18 0.5 0
18.4 0.5 0
18.8 0.5 0
19.2 0.5 0
19.6 0.5 0
20 0.5 0
20.4 0.5 0
20.8 0.5 0
21.2 0.5 0
21.6 0.5 0
22 0.5 0
22.4 0.5 0
22.8 0.5 0
23.2 0.5 0
23.6 0.5 0
24 0.5 0
24.4 0.5 0
24.8 0.5 0
25.2 0.5 0
25.6 0.5 0
26 0.5 0
26.4 0.5 0
26.8 0.5 0
27.2 0.5 0
27.6 0.5 0
28 0.5 0
28.4 0.5 0
28.8 0.5 0
29.2 0.5 0
29.6 0.5 0
30 0.5 0
30.4 0.5 0
30.8 0.5 0
31.2 0.5 0
31.6 0.5 0
32 0.5 0
32.4 0.5 0
32.8 0.5 0
33.2 0.5 0
33.6 0.5 0
34 0.5 0
34.4 0.5 0
34.8 0.5 0
35.2 0.5 0
35.6 0.5 0
36 0.5 0
36.4 0.5 0
36.8 0.5 0
37.2 0.5 0
37.6 0.5 0
38 0.5 0
38.4 0.5 0
38.8 0.5 0
39.2 0.5 0
39.6 0.5 0
40 0.5 0
40.4 0.5 0
0 0.6 0
0.4 0.6 0
0.8 0.6 0
1.2 0.6 0
1.6 0.6 0
2 0.6 0
2.4 0.6 0
2.8 0.6 0
3.2 0.6 0
3.6 0.6 0
4 0.6 0
4.4 0.6 0
4.8 0.6 0
5.2 0.6 0
5.6 0.6 0
6 0.6 0
6.4 0.6 0
6.8 0.6 0
7.2 0.6 0
7.6 0.6 0
8 0.6 0
8.4 0.6 0
8.8 0.6 0
9.2 0.6 0
9.6 0.6 0
10 0.6 0
10.4 0.6 0
10.8 0.6 0
11.2 0.6 0
11.6 0.6 0
12 0.6 0
12.4 0.6 0
12.8 0.6 0
13.2 0.6 0
13.6 0.6 0
14 0.6 0
14.4 0.6 0
14.8 0.6 0
15.2 0.6 0
15.6 0.6 0
16 0.6 0
16.4 0.6 0
16.8 0.6 0
17.2 0.6 0
17.6 0.6 0
18 0.6 0
18.4 0.6 0
18.8 0.6 0
19.2 0.6 0
19.6 0.6 0
20 0.6 0
20.4 0.6 0
20.8 0.6 0
21.2 0.6 0
21.6 0.6 0
22 0.6 0
22.4 0.6 0
22.8 0.6 0
23.2 0.6 0
23.6 0.6 0
24 0.6 0
24.4 0.6 0
24.8 0.6 0
25.2 0.6 0
25.6 0.6 0
26 0.6 0
26.4 0.6 0
26.8 0.6 0
27.2 0.6 0
27.6 0.6 0
28 0.6 0
28.4 0.6 0
28.8 0.6 0
29.2 0.6 0
29.6 0.6 0
30 0.6 0
30.4 0.6 0
30.8 0.6 0
31.2 0.6 0
31.6 0.6 0
32 0.6 0
32.4 0.6 0
32.8 0.6 0
33.2 0.6 0
33.6 0.6 0
34 0.6 0
34.4 0.6 0
34.8 0.6 0
35.2 0.6 0
35.6 0.6 0
36 0.6 0
36.4 0.6 0
36.8 0.6 0
37.2 0.6 0
37.6 0.6 0
38 0.6 0
38.4 0.6 0
38.8 0.6 0
39.2 0.6 0
39.6 0.6 0
40 0.6 0
40.4 0.6 0
0 0.7 0
0.4 0.7 0
0.8 0.7 0
1.2 0.7 0
1.6 0.7 0
2 0.7 0
2.4 0.7 0
2.8 0.7 0
3.2 0.7 0
3.6 0.7 0
4 0.7 0
4.4 0.7 0
4.8 0.7 0
5.2 0.7 0
5.6 0.7 0
6 0.7 0
6.4 0.7 0
6.8 0.7 0
7.2 0.7 0
7.6 0.7 0
8 0.7 0
8.4 0.7 0
8.8 0.7 0
9.2 0.7 0
9.6 0.7 0
10 0.7 0
10.4 0.7 0
10.8 0.7 0
11.2 0.7 0
11.6 0.7 0
12 0.7 0
12.4 0.7 0
12.8 0.7 0
13.2 0.7 0
13.6 0.7 0
14 0.7 0
14.4 0.7 0
14.8 0.7 0
15.2 0.7 0
15.6 0.7 0
16 0.7 0
16.4 0.7 0
16.8 0.7 0
17.2 0.7 0
17.6 0.7 0
18 0.7 0
18.4 0.7 0
18.8 0.7 0
19.2 0.7 0
19.6 0.7 0
20 0.7 0
20.4 0.7 0
20.8 0.7 0
21.2 0.7 0
21.6 0.7 0
22 0.7 0
22.4 0.7 0
22.8 0.7 0
23.2 0.7 0
23.6 0.7 0
24 0.7 0
24.4 0.7 0
24.8 0.7 0
25.2 0.7 0
25.6 0.7 0
26 0.7 0
26.4 0.7 0
26.8 0.7 0
27.2 0.7 0
27.6 0.7 0
28 0.7 0
28.4 0.7 0
28.8 0.7 0
29.2 0.7 0
29.6 0.7 0
30 0.7 0
30.4 0.7 0
30.8 0.7 0
31.2 0.7 0
31.6 0.7 0
32 0.7 0
32.4 0.7 0
32.8 0.7 0
33.2 0.7 0
33.6 0.7 0
34 0.7 0
34.4 0.7 0
34.8 0.7 0
35.2 0.7 0
35.6 0.7 0
36 0.7 0
36.4 0.7 0
36.8 0.7 0
37.2 0.7 0
37.6 0.7 0
38 0.7 0
38.4 0.7 0
38.8 0.7 0
39.2 0.7 0
39.6 0.7 0
40 0.7 0
40.4 0.7 0
0 0.8 0
0.4 0.8 0
0.8 0.8 0
1.2 0.8 0
1.6 0.8 0
2 0.8 0
2.4 0.8 0
2.8 0.8 0
3.2 0.8 0
3.6 0.8 0
4 0.8 0
4.4 0.8 0
4.8 0.8 0
5.2 0.8 0
5.6 0.8 0
6 0.8 0
6.4 0.8 0
6.8 0.8 0
7.2 0.8 0
7.6 0.8 0
8 0.8 0
8.4 0.8 0
8.8 0.8 0
9.2 0.8 0
9.6 0.8 0
10 0.8 0
10.4 0.8 0
10.8 0.8 0
11.2 0.8 0
11.6 0.8 0
12 0.8 0
12.4 0.8 0
12.8 0.8 0
13.2 0.8 0
13.6 0.8 0
14 0.8 0
14.4 0.8 0
14.8 0.8 0
15.2 0.8 0
15.6 0.8 0
16 0.8 0
16.4 0.8 0
16.8 0.8 0
17.2 0.8 0
17.6 0.8 0
18 0.8 0
18.4 0.8 0
18.8 0.8 0
19.2 0.8 0
19.6 0.8 0
20 0.8 0
20.4 0.8 0
20.8 0.8 0
21.2 0.8 0
21.6 0.8 0
22 0.8 0
22.4 0.8 0
22.8 0.8 0
23.2 0.8 0
23.6 0.8 0
24 0.8 0
24.4 0.8 0
24.8 0.8 0
25.2 0.8 0
25.6 0.8 0
26 0.8 0
26.4 0.8 0
26.8 0.8 0
27.2 0.8 0
27.6 0.8 0
28 0.8 0
28.4 0.8 0
28.8 0.8 0
29.2 0.8 0
29.6 0.8 0
30 0.8 0
30.4 0.8 0
30.8 0.8 0
31.2 0.8 0
31.6 0.8 0
32 0.8 0
32.4 0.8 0
32.8 0.8 0
33.2 0.8 0
33.6 0.8 0
34 0.8 0
34.4 0.8 0
34.8 0.8 0
35.2 0.8 0
35.6 0.8 0
36 0.8 0
36.4 0.8 0
36.8 0.8 0
37.2 0.8 0
37.6 0.8 0
38 0.8 0
38.4 0.8 0
38.8 0.8 0
39.2 0.8 0
39.6 0.8 0
40 0.8 0
40.4 0.8 0
0 0.9 0
0.4 0.9 0
0.8 0.9 0
1.2 0.9 0
1.6 0.9 0
2 0.9 0
2.4 0.9 0
2.8 0.9 0
3.2 0.9 0
3.6 0.9 0
4 0.9 0
4.4 0.9 0
4.8 0.9 0
5.2 0.9 0
5.6 0.9 0
6 0.9 0
6.4 0.9 0
6.8 0.9 0
7.2 0.9 0
7.6 0.9 0
8 0.9 0
8.4 0.9 0
8.8 0.9 0
9.2 0.9 0
9.6 0.9 0
10 0.9 0
10.4 0.9 0
10.8 0.9 0
11.2 0.9 0
11.6 0.9 0
12 0.9 0
12.4 0.9 0
12.8 0.9 0
13.2 0.9 0
13.6 0.9 0
14 0.9 0
14.4 0.9 0
14.8 0.9 0
15.2 0.9 0
15.6 0.9 0
16 0.9 0
16.4 0.9 0
16.8 0.9 0
17.2 0.9 0
17.6 0.9 0
18 0.9 0
18.4 0.9 0
18.8 0.9 0
19.2 0.9 0
19.6 0.9 0
20 0.9 0
20.4 0.9 0
20.8 0.9 0
21.2 0.9 0
21.6 0.9 0
22 0.9 0
22.4 0.9 0
22.8 0.9 0
23.2 0.9 0
23.6 0.9 0
24 0.9 0
24.4 0.9 0
24.8 0.9 0
25.2 0.9 0
25.6 0.9 0
26 0.9 0
26.4 0.9 0
26.8 0.9 0
27.2 0.9 0
27.6 0.9 0
28 0.9 0
28.4 0.9 0
28.8 0.9 0
29.2 0.9 0
29.6 0.9 0
30 0.9 0
30.4 0.9 0
30.8 0.9 0
31.2 0.9 0
31.6 0.9 0
32 0.9 0
32.4 0.9 0
32.8 0.9 0
33.2 0.9 0
33.6 0.9 0
34 0.9 0
34.4 0.9 0
34.8 0.9 0
35.2 0.9 0
35.6 0.9 0
36 0.9 0
36.4 0.9 0
36.8 0.9 0
37.2 0.9 0
37.6 0.9 0
38 0.9 0
38.4 0.9 0
38.8 0.9 0
39.2 0.9 0
39.6 0.9 0
40 0.9 0
40.4 0.9 0
0 1 0
0.4 1 0
0.8 1 0
1.2 1 0
1.6 1 0
2 1 0
2.4 1 0
2.8 1 0
3.2 1 0
3.6 1 0
4 1 0
4.4 1 0
4.8 1 0
5.2 1 0
5.6 1 0
6 1 0
6.4 1 0
6.8 1 0
7.2 1 0
7.6 1 0
8 1 0
8.4 1 0
8.8 1 0
9.2 1 0
9.6 1 0
10 1 0
10.4 1 0
10.8 1 0
11.2 1 0
11.6 1 0
12 1 0
12.4 1 0
12.8 1 0
13.2 1 0
13.6 1 0
14 1 0
14.4 1 0
14.8 1 0
15.2 1 0
15.6 1 0
16 1 0
16.4 1 0
16.8 1 0
17.2 1 0
17.6 1 0
18 1 0
18.4 1 0
18.8 1 0
19.2 1 0
19.6 1 0
20 1 0
20.4 1 0
20.8 1 0
21.2 1 0
21.6 1 0
22 1 0
22.4 1 0
22.8 1 0
23.2 1 0
23.6 1 0
24 1 0
24.4 1 0
24.8 1 0
25.2 1 0
25.6 1 0
26 1 0
26.4 1 0
26.8 1 0
27.2 1 0
27.6 1 0
28 1 0
28.4 1 0
28.8 1 0
29.2 1 0
29.6 1 0
30 1 0
30.4 1 0
30.8 1 0
31.2 1 0
31.6 1 0
32 1 0
32.4 1 0
32.8 1 0
33.2 1 0
33.6 1 0
34 1 0
34.4 1 0
34.8 1 0
35.2 1 0
35.6 1 0
36 1 0
36.4 1 0
36.8 1 0
37.2 1 0
37.6 1 0
38 1 0
38.4 1 0
38.8 1 0
39.2 1 0
39.6 1 0
40 1 0
40.4 1 0
0 1.1 0
0.4 1.1 0
0.8 1.1 0
1.2 1.1 0
1.6 1.1 0
2 1.1 0
2.4 1.1 0
2.8 1.1 0
3.2 1.1 0
3.6 1.1 0
4 1.1 0
4.4 1.1 0
4.8 1.1 0
5.2 1.1 0
5.6 1.1 0
6 1.1 0
6.4 1.1 0
6.8 1.1 0
7.2 1.1 0
7.6 1.1 0
8 1.1 0
8.4 1.1 0
8.8 1.1 0
9.2 1.1 0
9.6 1.1 0
10 1.1 0
10.4 1.1 0
10.8 1.1 0
11.2 1.1 0
11.6 1.1 0
12 1.1 0
12.4 1.1 0
12.8 1.1 0
13.2 1.1 0
13.6 1.1 0
14 1.1 0
14.4 1.1 0
14.8 1.1 0
15.2 1.1 0
15.6 1.1 0
16 1.1 0
16.4 1.1 0
16.8 1.1 0
17.2 1.1 0
17.6 1.1 0
18 1.1 0
18.4 1.1 0
18.8 1.1 0
19.2 1.1 0
19.6 1.1 0
20 1.1 0
20.4 1.1 0
20.8 1.1 0
21.2 1.1 0
21.6 1.1 0
22 1.1 0
22.4 1.1 0
22.8 1.1 0
23.2 1.1 0
23.6 1.1 0
24 1.1 0
24.4 1.1 0
24.8 1.1 0
25.2 1.1 0
25.6 1.1 0
26 1.1 0
26.4 1.1 0
26.8 1.1 0
27.2 1.1 0
27.6 1.1 0
28 1.1 0
28.4 1.1 0
28.8 1.1 0
29.2 1.1 0
29.6 1.1 0
30 1.1 0
30.4 1.1 0
30.8 1.1 0
31.2 1.1 0
31.6 1.1 0
32 1.1 0
32.4 1.1 0
32.8 1.1 0
33.2 1.1 0
33.6 1.1 0
34 1.1 0
34.4 1.1 0
34.8 1.1 0
35.2 1.1 0
35.6 1.1 0
36 1.1 0
36.4 1.1 0
36.8 1.1 0
37.2 1.1 0
37.6 1.1 0
38 1.1 0
38.4 1.1 0
38.8 1.1 0
39.2 1.1 0
39.6 1.1 0
40 1.1 0
40.4 1.1 0

POINT_DATA 1224

SCALARS u double
LOOKUP_TABLE default
-1.15742
-0.842585
-0.620822
-0.489981
-0.418736
-0.380102
-0.357792
-0.343603
-0.333722
-0.326371
-0.320668
-0.316128
-0.312454
-0.309447
-0.306966
-0.304908
-0.303194
-0.301767
-0.300582
-0.299607
-0.298815
-0.298182
-0.297688
-0.297312
-0.297034
-0.296834
-0.296695
-0.296602
-0.296541
-0.296502
-0.296479
-0.296465
-0.296458
-0.296453
-0.296451
-0.29645
-0.296449
-0.296449
-0.296449
-0.296449
-0.296449
-0.296449
-0.296449
-0.296449
-0.296449
-0.296449
-0.296449
-0.296449
-0.296449
-0.296449
-0.296449
-0.296449
-0.296449
-0.296449
-0.296449
-0.296449
-0.296449
-0.296449
-0.296449
-0.296449
-0.296449
-0.296449
-0.296449
-0.296449
-0.296449
-0.296449
-0.296449
-0.296449
-0.296449
-0.296449
-0.296449
-0.296449
-0.296449
-0.296449
-0.296449
-0.296449
-0.296449
-0.296449
-0.296449
-0.296449
-0.296449
-0.296449
-0.296449
-0.296449
-0.296449
-0.296449
-0.296449
-0.296449
-0.296449
-0.296449
-0.296449
-0.296449
-0.296449
-0.296449
-0.296449
-0.296449
-0.296449
-0.29645
-0.296449
-0.296452
-0.296452
-1
1.15742
0.842585
0.620822
0.489981
0.418736
0.380102
0.357792
0.343603
0.333722
0.326371
0.320668
0.316128
0.312454
0.309447
0.306966
0.304908
0.303194
0.301767
0.300582
0.299607
0.298815
0.298182
0.297688
0.297312
0.297034
0.296834
0.296695
0.296602
0.296541
0.296502
0.296479
0.296465
0.296458
0.296453
0.296451
0.29645
0.296449
0.296449
0.296449
0.296449
0.296449
0.296449
0.296449
0.296449
0.296449
0.296449
0.296449
0.296449
0.296449
0.296449
0.296449
0.296449
0.296449
0.296449
0.296449
0.296449
0.296449
0.296449
0.296449
0.296449
0.296449
0.296449
0.296449
0.296449
0.296449
0.296449
0.296449
0.296449
0.296449
0.296449
0.296449
0.296449
0.296449
0.296449
0.296449
0.296449
0.296449
0.296449
0.296449
0.296449
0.296449
0.296449
0.296449
0.296449
0.296449
0.296449
0.296449
0.296449
0.296449
0.296449
0.296449
0.296449
0.296449
0.296449
0.296449
0.296449
0.296449
0.29645
0.296449
0.296452
0.296452
1
0.976268
1.02373
1.00214
0.963808
0.926544
0.895175
0.870077
0.850297
0.834697
0.822303
0.812364
0.804317
0.797749
0.792349
0.787883
0.784173
0.781085
0.778516
0.776388
0.77464
0.773224
0.772097
0.771218
0.770551
0.770059
0.769706
0.769461
0.769297
0.76919
0.769123
0.769082
0.769058
0.769044
0.769037
0.769033
0.769031
0.76903
0.769029
0.769029
0.769029
0.769029
0.769029
0.769029
0.769029
0.769029
0.769029
0.769029
0.769029
0.769029
0.769029
0.769029
0.769029
0.769029
0.769029
0.769029
0.769029
0.769029
0.769029
0.769029
0.769029
0.769029
0.769029
0.769029
0.769029
0.769029
0.769029
0.769029
0.769029
0.769029
0.769029
0.769029
0.769029
0.769029
0.769029
0.769029
0.769029
0.769029
0.769029
0.769029
0.769029
0.76903
0.76903
0.76903
0.76903
0.76903
0.76903
0.76903
0.76903
0.76903
0.76903
0.76903
0.76903
0.76903
0.76903
0.76903
0.76903
0.769029
0.76903
0.769029
0.769044
0.769044
1
0.95324
1.04676
1.10995
1.14211
1.15506
1.15802
1.15636
1.15284
1.14875
1.14469
1.14094
1.13758
1.13463
1.13209
1.1299
1.12803
1.12644
1.1251
1.12397
1.12303
1.12226
1.12163
1.12114
1.12075
1.12046
1.12025
1.1201
1.11999
1.11992
1.11988
1.11985
1.11983
1.11982
1.11982
1.11981
1.11981
1.11981
1.11981
1.11981
1.11981
1.11981
1.11981
1.11981
1.11981
1.11981
1.11981
1.11981
1.11981
1.11981
1.11981
1.11981
1.11981
1.11981
1.11981
1.11981
1.11981
1.11981
1.11981
1.11981
1.11981
1.11981
1.11981
1.11981
1.11981
1.11981
1.11981
1.11981
1.11981
1.11981
1.11981
1.11981
1.11981
1.11981
1.11981
1.11981
1.11981
1.11981
1.11981
1.11981
1.11981
1.11981
1.11981
1.11981
1.11981
1.11981
1.11981
1.11981
1.11981
1.11981
1.11981
1.11981
1.11981
1.11981
1.11981
1.11981
1.11981
1.11981
1.11981
1.11981
1.11982
1.11982
1
0.955191
1.04481
1.13263
1.19618
1.23828
1.26619
1.28547
1.29942
1.30989
1.31796
1.32429
1.32933
1.33338
1.33668
1.33937
1.34159
1.34342
1.34494
1.34619
1.34721
1.34803
1.34868
1.34919
1.34956
1.34984
1.35004
1.35018
1.35026
1.35032
1.35036
1.35038
1.35039
1.3504
1.3504
1.3504
1.3504
1.3504
1.3504
1.35041
1.35041
1.35041
1.35041
1.35041
1.35041
1.35041
1.35041
1.35041
1.35041
1.35041
1.35041
1.35041
1.35041
1.35041
1.35041
1.35041
1.35041
1.35041
1.35041
1.35041
1.35041
1.35041
1.35041
1.35041
1.35041
1.35041
1.35041
1.35041
1.35041
1.35041
1.35041
1.35041
1.35041
1.35041
1.35041
1.35041
1.35041
1.35041
1.35041
1.35041
1.35041
1.35041
1.35041
1.35041
1.35041
1.35041
1.35041
1.35041
1.35041
1.35041
1.35041
1.35041
1.35041
1.35041
1.35041
1.35041
1.35041
1.35041
1.35041
1.35041
1.3504
1.3504
1
0.957886
1.04211
1.13446
1.20791
1.26138
1.30051
1.33029
1.35384
1.37294
1.38868
1.40174
1.41265
1.42178
1.42944
1.43588
1.4413
1.44586
1.44968
1.45287
1.45552
1.45767
1.45941
1.46077
1.46182
1.4626
1.46317
1.46357
1.46385
1.46403
1.46414
1.46422
1.46426
1.46428
1.4643
1.46431
1.46431
1.46431
1.46431
1.46431
1.46431
1.46431
1.46431
1.46431
1.46431
1.46431
1.46431
1.46431
1.46431
1.46431
1.46431
1.46431
1.46431
1.46431
1.46431
1.46431
1.46431
1.46431
1.46431
1.46431
1.46431
1.46431
1.46431
1.46431
1.46431
1.46431
1.46431
1.46431
1.46431
1.46431
1.46431
1.46431
1.46431
1.46431
1.46431
1.46431
1.46431
1.46431
1.46431
1.46431
1.46431
1.46431
1.46431
1.46431
1.46431
1.46431
1.46431
1.46431
1.46431
1.46431
1.46431
1.46431
1.46431
1.46431
1.46431
1.46431
1.46431
1.46431
1.46431
1.46432
1.46429
1.46429
1
0.957886
1.04211
1.13446
1.20791
1.26138
1.30051
1.33029
1.35384
1.37294
1.38868
1.40174
1.41265
1.42178
1.42944
1.43588
1.4413
1.44586
1.44968
1.45287
1.45552
1.45767
1.45941
1.46077
1.46182
1.4626
1.46317
1.46357
1.46385
1.46403
1.46414
1.46422
1.46426
1.46428
1.4643
1.46431
1.46431
1.46431
1.46431
1.46431
1.46431
1.46431
1.46431
1.46431
1.46431
1.46431
1.46431
1.46431
1.46431
1.46431
1.46431
1.46431
1.46431
1.46431
1.46431
1.46431
1.46431
1.46431
1.46431
1.46431
1.46431
1.46431
1.46431
1.46431
1.46431
1.46431
1.46431
1.46431
1.46431
1.46431
1.46431
1.46431
1.46431
1.46431
1.46431
1.46431
1.46431
1.46431
1.46431
1.46431
1.46431
1.46431
1.46431
1.46431
1.46431
1.46431
1.46431
1.46431
1.46431
1.46431
1.46431
1.46431
1.46431
1.46431
1.46431
1.46431
1.46431
1.46431
1.46431
1.46432
1.46429
1.46429
1
0.955191
1.04481
1.13263
1.19618
1.23828
1.26619
1.28547
1.29942
1.30989
1.31796
1.32429
1.32933
1.33339
1.33668
1.33937
1.34159
1.34342
1.34494
1.34619
1.34721
1.34803
1.34868
1.34919
1.34957
1.34984
1.35004
1.35018
1.35027
1.35032
1.35036
1.35038
1.35039
1.3504
1.3504
1.3504
1.3504
1.3504
1.35041
1.35041
1.35041
1.35041
1.35041
1.35041
1.35041
1.35041
1.35041
1.35041
1.35041
1.35041
1.35041
1.35041
1.35041
1.35041
1.35041
1.35041
1.35041
1.35041
1.35041
1.35041
1.35041
1.35041
1.35041
1.35041
1.35041
1.35041
1.35041
1.35041
1.35041
1.35041
1.35041
1.35041
1.35041
1.35041
1.35041
1.35041
1.35041
1.35041
1.35041
1.35041
1.35041
1.35041
1.35041
1.35041
1.35041
1.35041
1.35041
1.35041
1.35041
1.35041
1.35041
1.35041
1.35041
1.35041
1.35041
1.35041
1.35041
1.35041
1.35041
1.35041
1.3504
1.3504
1
0.95324
1.04676
1.10995
1.14211
1.15506
1.15802
1.15637
1.15284
1.14875
1.14469
1.14094
1.13758
1.13463
1.13209
1.1299
1.12803
1.12644
1.1251
1.12397
1.12303
1.12226
1.12164
1.12114
1.12075
1.12046
1.12025
1.1201
1.11999
1.11992
1.11988
1.11985
1.11983
1.11982
1.11982
1.11981
1.11981
1.11981
1.11981
1.11981
1.11981
1.11981
1.11981
1.11981
1.11981
1.11981
1.11981
1.11981
1.11981
1.11981
1.11981
1.11981
1.11981
1.11981
1.11981
1.11981
1.11981
1.11981
1.11981
1.11981
1.11981
1.11981
1.11981
1.11981
1.11981
1.11981
1.11981
1.11981
1.11981
1.11981
1.11981
1.11981
1.11981
1.11981
1.11981
1.11981
1.11981
1.11981
1.11981
1.11981
1.11981
1.11981
1.11981
1.11981
1.11981
1.11981
1.11981
1.11981
1.11981
1.11981
1.11981
1.11981
1.11981
1.11981
1.11981
1.11981
1.11981
1.11981
1.11981
1.11981
1.11982
1.11982
1
0.976268
1.02373
1.00214
0.963808
0.926544
0.895175
0.870078
0.850298
0.834698
0.822304
0.812364
0.804318
0.79775
0.79235
0.787883
0.784174
0.781086
0.778517
0.776389
0.774641
0.773225
0.772097
0.771219
0.770552
0.77006
0.769707
0.769462
0.769297
0.76919
0.769123
0.769082
0.769058
0.769045
0.769037
0.769033
0.769031
0.76903
0.76903
0.769029
0.769029
0.769029
0.769029
0.769029
0.769029
0.769029
0.769029
0.769029
0.769029
0.769029
0.769029
0.769029
0.769029
0.769029
0.769029
0.769029
0.769029
0.769029
0.769029
0.769029
0.769029
0.769029
0.769029
0.769029
0.769029
0.769029
0.769029
0.769029
0.769029
0.769029
0.769029
0.769029
0.769029
0.769029
0.769029
0.769029
0.769029
0.769029
0.769029
0.769029
0.769029
0.769029
0.769029
0.769029
0.769029
0.769029
0.769029
0.769029
0.769029
0.769029
0.769029
0.769029
0.769029
0.769029
0.769029
0.769029
0.769029
0.769029
0.76903
0.769029
0.769044
0.769044
1
1.15742
0.842585
0.620822
0.489981
0.418736
0.380103
0.357792
0.343604
0.333723
0.326372
0.320669
0.316128
0.312454
0.309447
0.306967
0.304908
0.303194
0.301767
0.300582
0.299607
0.298815
0.298182
0.297688
0.297312
0.297034
0.296834
0.296696
0.296602
0.296541
0.296503
0.296479
0.296466
0.296458
0.296453
0.296451
0.29645
0.296449
0.296449
0.296449
0.296449
0.296449
0.296449
0.296449
0.296449
0.296449
0.296449
0.296449
0.296449
0.296449
0.296449
0.296449
0.296449
0.296449
0.296449
0.296449
0.296449
0.296449
0.296449
0.296449
0.296449
0.296449
0.296449
0.296449
0.296449
0.296449
0.296449
0.296449
0.296449
0.296449
0.296449
0.296449
0.296449
0.296449
0.296449
0.296449
0.296449
0.296449
0.296449
0.296449
0.296449
0.296449
0.296449
0.296449
0.296449
0.296449
0.296449
0.296449
0.296449
0.296449
0.296449
0.296449
0.296449
0.296449
0.296449
0.296449
0.296449
0.296449
0.296449
0.296448
0.296452
0.296452
1
-1.15742
-0.842585
-0.620822
-0.489981
-0.418736
-0.380103
-0.357792
-0.343604
-0.333723
-0.326372
-0.320669
-0.316128
-0.312454
-0.309447
-0.306967
-0.304908
-0.303194
-0.301767
-0.300582
-0.299607
-0.298815
-0.298182
-0.297688
-0.297312
-0.297034
-0.296834
-0.296696
-0.296602
-0.296541
-0.296503
-0.296479
-0.296466
-0.296458
-0.296453
-0.296451
-0.29645
-0.296449
-0.296449
-0.296449
-0.296449
-0.296449
-0.296449
-0.296449
-0.296449
-0.296449
-0.296449
-0.296449
-0.296449
-0.296449
-0.296449
-0.296449
-0.296449
-0.296449
-0.296449
-0.296449
-0.296449
-0.296449
-0.296449
-0.296449
-0.296449
-0.296449
-0.296449
-0.296449
-0.296449
-0.296449
-0.296449
-0.296449
-0.296449
-0.296449
-0.296449
-0.296449
-0.296449
-0.296449
-0.296449
-0.296449
-0.296449
-0.296449
-0.296449
-0.296449
-0.296449
-0.296449
-0.296449
-0.296449
-0.296449
-0.296449
-0.296449
-0.296449
-0.296449
-0.296449
-0.296449
-0.296449
-0.296449
-0.296449
-0.296449
-0.296449
-0.296449
-0.296449
-0.296449
-0.296448
-0.296452
-0.296452
-1
