# vtk DataFile Version 2.0
FlowField
ASCII
DATASET STRUCTURED_GRID
DIMENSIONS 102 1 12 
POINTS 1224 double
0 0 0
0.3 0 0
0.6 0 0
0.9 0 0
1.2 0 0
1.5 0 0
1.8 0 0
2.1 0 0
2.4 0 0
2.7 0 0
3 0 0
3.3 0 0
3.6 0 0
3.9 0 0
4.2 0 0
4.5 0 0
4.8 0 0
5.1 0 0
5.4 0 0
5.7 0 0
6 0 0
6.3 0 0
6.6 0 0
6.9 0 0
7.2 0 0
7.5 0 0
7.8 0 0
8.1 0 0
8.4 0 0
8.7 0 0
9 0 0
9.3 0 0
9.6 0 0
9.9 0 0
10.2 0 0
10.5 0 0
10.8 0 0
11.1 0 0
11.4 0 0
11.7 0 0
12 0 0
12.3 0 0
12.6 0 0
12.9 0 0
13.2 0 0
13.5 0 0
13.8 0 0
14.1 0 0
14.4 0 0
14.7 0 0
15 0 0
15.3 0 0
15.6 0 0
15.9 0 0
16.2 0 0
16.5 0 0
16.8 0 0
17.1 0 0
17.4 0 0
17.7 0 0
18 0 0
18.3 0 0
18.6 0 0
18.9 0 0
19.2 0 0
19.5 0 0
19.8 0 0
20.1 0 0
20.4 0 0
20.7 0 0
21 0 0
21.3 0 0
21.6 0 0
21.9 0 0
22.2 0 0
22.5 0 0
22.8 0 0
23.1 0 0
23.4 0 0
23.7 0 0
24 0 0
24.3 0 0
24.6 0 0
24.9 0 0
25.2 0 0
25.5 0 0
25.8 0 0
26.1 0 0
26.4 0 0
26.7 0 0
27 0 0
27.3 0 0
27.6 0 0
27.9 0 0
28.2 0 0
28.5 0 0
28.8 0 0
29.1 0 0
29.4 0 0
29.7 0 0
30 0 0
30.3 0 0
0 0.1 0
0.3 0.1 0
0.6 0.1 0
0.9 0.1 0
1.2 0.1 0
1.5 0.1 0
1.8 0.1 0
2.1 0.1 0
2.4 0.1 0
2.7 0.1 0
3 0.1 0
3.3 0.1 0
3.6 0.1 0
3.9 0.1 0
4.2 0.1 0
4.5 0.1 0
4.8 0.1 0
5.1 0.1 0
5.4 0.1 0
5.7 0.1 0
6 0.1 0
6.3 0.1 0
6.6 0.1 0
6.9 0.1 0
7.2 0.1 0
7.5 0.1 0
7.8 0.1 0
8.1 0.1 0
8.4 0.1 0
8.7 0.1 0
9 0.1 0
9.3 0.1 0
9.6 0.1 0
9.9 0.1 0
10.2 0.1 0
10.5 0.1 0
10.8 0.1 0
11.1 0.1 0
11.4 0.1 0
11.7 0.1 0
12 0.1 0
12.3 0.1 0
12.6 0.1 0
12.9 0.1 0
13.2 0.1 0
13.5 0.1 0
13.8 0.1 0
14.1 0.1 0
14.4 0.1 0
14.7 0.1 0
15 0.1 0
15.3 0.1 0
15.6 0.1 0
15.9 0.1 0
16.2 0.1 0
16.5 0.1 0
16.8 0.1 0
17.1 0.1 0
17.4 0.1 0
17.7 0.1 0
18 0.1 0
18.3 0.1 0
18.6 0.1 0
18.9 0.1 0
19.2 0.1 0
19.5 0.1 0
19.8 0.1 0
20.1 0.1 0
20.4 0.1 0
20.7 0.1 0
21 0.1 0
21.3 0.1 0
21.6 0.1 0
21.9 0.1 0
22.2 0.1 0
22.5 0.1 0
22.8 0.1 0
23.1 0.1 0
23.4 0.1 0
23.7 0.1 0
24 0.1 0
24.3 0.1 0
24.6 0.1 0
24.9 0.1 0
25.2 0.1 0
25.5 0.1 0
25.8 0.1 0
26.1 0.1 0
26.4 0.1 0
26.7 0.1 0
27 0.1 0
27.3 0.1 0
27.6 0.1 0
27.9 0.1 0
28.2 0.1 0
28.5 0.1 0
28.8 0.1 0
29.1 0.1 0
29.4 0.1 0
29.7 0.1 0
30 0.1 0
30.3 0.1 0
0 0.2 0
0.3 0.2 0
0.6 0.2 0
0.9 0.2 0
1.2 0.2 0
1.5 0.2 0
1.8 0.2 0
2.1 0.2 0
2.4 0.2 0
2.7 0.2 0
3 0.2 0
3.3 0.2 0
3.6 0.2 0
3.9 0.2 0
4.2 0.2 0
4.5 0.2 0
4.8 0.2 0
5.1 0.2 0
5.4 0.2 0
5.7 0.2 0
6 0.2 0
6.3 0.2 0
6.6 0.2 0
6.9 0.2 0
7.2 0.2 0
7.5 0.2 0
7.8 0.2 0
8.1 0.2 0
8.4 0.2 0
8.7 0.2 0
9 0.2 0
9.3 0.2 0
9.6 0.2 0
9.9 0.2 0
10.2 0.2 0
10.5 0.2 0
10.8 0.2 0
11.1 0.2 0
11.4 0.2 0
11.7 0.2 0
12 0.2 0
12.3 0.2 0
12.6 0.2 0
12.9 0.2 0
13.2 0.2 0
13.5 0.2 0
13.8 0.2 0
14.1 0.2 0
14.4 0.2 0
14.7 0.2 0
15 0.2 0
15.3 0.2 0
15.6 0.2 0
15.9 0.2 0
16.2 0.2 0
16.5 0.2 0
16.8 0.2 0
17.1 0.2 0
17.4 0.2 0
17.7 0.2 0
18 0.2 0
18.3 0.2 0
18.6 0.2 0
18.9 0.2 0
19.2 0.2 0
19.5 0.2 0
19.8 0.2 0
20.1 0.2 0
20.4 0.2 0
20.7 0.2 0
21 0.2 0
21.3 0.2 0
21.6 0.2 0
21.9 0.2 0
22.2 0.2 0
22.5 0.2 0
22.8 0.2 0
23.1 0.2 0
23.4 0.2 0
23.7 0.2 0
24 0.2 0
24.3 0.2 0
24.6 0.2 0
24.9 0.2 0
25.2 0.2 0
25.5 0.2 0
25.8 0.2 0
26.1 0.2 0
26.4 0.2 0
26.7 0.2 0
27 0.2 0
27.3 0.2 0
27.6 0.2 0
27.9 0.2 0
28.2 0.2 0
28.5 0.2 0
28.8 0.2 0
29.1 0.2 0
29.4 0.2 0
29.7 0.2 0
30 0.2 0
30.3 0.2 0
0 0.3 0
0.3 0.3 0
0.6 0.3 0
0.9 0.3 0
1.2 0.3 0
1.5 0.3 0
1.8 0.3 0
2.1 0.3 0
2.4 0.3 0
2.7 0.3 0
3 0.3 0
3.3 0.3 0
3.6 0.3 0
3.9 0.3 0
4.2 0.3 0
4.5 0.3 0
4.8 0.3 0
5.1 0.3 0
5.4 0.3 0
5.7 0.3 0
6 0.3 0
6.3 0.3 0
6.6 0.3 0
6.9 0.3 0
7.2 0.3 0
7.5 0.3 0
7.8 0.3 0
8.1 0.3 0
8.4 0.3 0
8.7 0.3 0
9 0.3 0
9.3 0.3 0
9.6 0.3 0
9.9 0.3 0
10.2 0.3 0
10.5 0.3 0
10.8 0.3 0
11.1 0.3 0
11.4 0.3 0
11.7 0.3 0
12 0.3 0
12.3 0.3 0
12.6 0.3 0
12.9 0.3 0
13.2 0.3 0
13.5 0.3 0
13.8 0.3 0
14.1 0.3 0
14.4 0.3 0
14.7 0.3 0
15 0.3 0
15.3 0.3 0
15.6 0.3 0
15.9 0.3 0
16.2 0.3 0
16.5 0.3 0
16.8 0.3 0
17.1 0.3 0
17.4 0.3 0
17.7 0.3 0
18 0.3 0
18.3 0.3 0
18.6 0.3 0
18.9 0.3 0
19.2 0.3 0
19.5 0.3 0
19.8 0.3 0
20.1 0.3 0
20.4 0.3 0
20.7 0.3 0
21 0.3 0
21.3 0.3 0
21.6 0.3 0
21.9 0.3 0
22.2 0.3 0
22.5 0.3 0
22.8 0.3 0
23.1 0.3 0
23.4 0.3 0
23.7 0.3 0
24 0.3 0
24.3 0.3 0
24.6 0.3 0
24.9 0.3 0
25.2 0.3 0
25.5 0.3 0
25.8 0.3 0
26.1 0.3 0
26.4 0.3 0
26.7 0.3 0
27 0.3 0
27.3 0.3 0
27.6 0.3 0
27.9 0.3 0
28.2 0.3 0
28.5 0.3 0
28.8 0.3 0
29.1 0.3 0
29.4 0.3 0
29.7 0.3 0
30 0.3 0
30.3 0.3 0
0 0.4 0
0.3 0.4 0
0.6 0.4 0
0.9 0.4 0
1.2 0.4 0
1.5 0.4 0
1.8 0.4 0
2.1 0.4 0
2.4 0.4 0
2.7 0.4 0
3 0.4 0
3.3 0.4 0
3.6 0.4 0
3.9 0.4 0
4.2 0.4 0
4.5 0.4 0
4.8 0.4 0
5.1 0.4 0
5.4 0.4 0
5.7 0.4 0
6 0.4 0
6.3 0.4 0
6.6 0.4 0
6.9 0.4 0
7.2 0.4 0
7.5 0.4 0
7.8 0.4 0
8.1 0.4 0
8.4 0.4 0
8.7 0.4 0
9 0.4 0
9.3 0.4 0
9.6 0.4 0
9.9 0.4 0
10.2 0.4 0
10.5 0.4 0
10.8 0.4 0
11.1 0.4 0
11.4 0.4 0
11.7 0.4 0
12 0.4 0
12.3 0.4 0
12.6 0.4 0
12.9 0.4 0
13.2 0.4 0
13.5 0.4 0
13.8 0.4 0
14.1 0.4 0
14.4 0.4 0
14.7 0.4 0
15 0.4 0
15.3 0.4 0
15.6 0.4 0
15.9 0.4 0
16.2 0.4 0
16.5 0.4 0
16.8 0.4 0
17.1 0.4 0
17.4 0.4 0
17.7 0.4 0
18 0.4 0
18.3 0.4 0
18.6 0.4 0
18.9 0.4 0
19.2 0.4 0
19.5 0.4 0
19.8 0.4 0
20.1 0.4 0
20.4 0.4 0
20.7 0.4 0
21 0.4 0
21.3 0.4 0
21.6 0.4 0
21.9 0.4 0
22.2 0.4 0
22.5 0.4 0
22.8 0.4 0
23.1 0.4 0
23.4 0.4 0
23.7 0.4 0
24 0.4 0
24.3 0.4 0
24.6 0.4 0
24.9 0.4 0
25.2 0.4 0
25.5 0.4 0
25.8 0.4 0
26.1 0.4 0
26.4 0.4 0
26.7 0.4 0
27 0.4 0
27.3 0.4 0
27.6 0.4 0
27.9 0.4 0
28.2 0.4 0
28.5 0.4 0
28.8 0.4 0
29.1 0.4 0
29.4 0.4 0
29.7 0.4 0
30 0.4 0
30.3 0.4 0
0 0.5 0
0.3 0.5 0
0.6 0.5 0
0.9 0.5 0
1.2 0.5 0
1.5 0.5 0
1.8 0.5 0
2.1 0.5 0
2.4 0.5 0
2.7 0.5 0
3 0.5 0
3.3 0.5 0
3.6 0.5 0
3.9 0.5 0
4.2 0.5 0
4.5 0.5 0
4.8 0.5 0
5.1 0.5 0
5.4 0.5 0
5.7 0.5 0
6 0.5 0
6.3 0.5 0
6.6 0.5 0
6.9 0.5 0
7.2 0.5 0
7.5 0.5 0
7.8 0.5 0
8.1 0.5 0
8.4 0.5 0
8.7 0.5 0
9 0.5 0
9.3 0.5 0
9.6 0.5 0
9.9 0.5 0
10.2 0.5 0
10.5 0.5 0
10.8 0.5 0
11.1 0.5 0
11.4 0.5 0
11.7 0.5 0
12 0.5 0
12.3 0.5 0
12.6 0.5 0
12.9 0.5 0
13.2 0.5 0
13.5 0.5 0
13.8 0.5 0
14.1 0.5 0
14.4 0.5 0
14.7 0.5 0
15 0.5 0
15.3 0.5 0
15.6 0.5 0
15.9 0.5 0
16.2 0.5 0
16.5 0.5 0
16.8 0.5 0
17.1 0.5 0
17.4 0.5 0
17.7 0.5 0
18 0.5 0
18.3 0.5 0
18.6 0.5 0
18.9 0.5 0
19.2 0.5 0
19.5 0.5 0
19.8 0.5 0
20.1 0.5 0
20.4 0.5 0
20.7 0.5 0
21 0.5 0
21.3 0.5 0
21.6 0.5 0
21.9 0.5 0
22.2 0.5 0
22.5 0.5 0
22.8 0.5 0
23.1 0.5 0
23.4 0.5 0
23.7 0.5 0
24 0.5 0
24.3 0.5 0
24.6 0.5 0
24.9 0.5 0
25.2 0.5 0
25.5 0.5 0
25.8 0.5 0
26.1 0.5 0
26.4 0.5 0
26.7 0.5 0
27 0.5 0
27.3 0.5 0
27.6 0.5 0
27.9 0.5 0
28.2 0.5 0
28.5 0.5 0
28.8 0.5 0
29.1 0.5 0
29.4 0.5 0
29.7 0.5 0
30 0.5 0
30.3 0.5 0
0 0.6 0
0.3 0.6 0
0.6 0.6 0
0.9 0.6 0
1.2 0.6 0
1.5 0.6 0
1.8 0.6 0
2.1 0.6 0
2.4 0.6 0
2.7 0.6 0
3 0.6 0
3.3 0.6 0
3.6 0.6 0
3.9 0.6 0
4.2 0.6 0
4.5 0.6 0
4.8 0.6 0
5.1 0.6 0
5.4 0.6 0
5.7 0.6 0
6 0.6 0
6.3 0.6 0
6.6 0.6 0
6.9 0.6 0
7.2 0.6 0
7.5 0.6 0
7.8 0.6 0
8.1 0.6 0
8.4 0.6 0
8.7 0.6 0
9 0.6 0
9.3 0.6 0
9.6 0.6 0
9.9 0.6 0
10.2 0.6 0
10.5 0.6 0
10.8 0.6 0
11.1 0.6 0
11.4 0.6 0
11.7 0.6 0
12 0.6 0
12.3 0.6 0
12.6 0.6 0
12.9 0.6 0
13.2 0.6 0
13.5 0.6 0
13.8 0.6 0
14.1 0.6 0
14.4 0.6 0
14.7 0.6 0
15 0.6 0
15.3 0.6 0
15.6 0.6 0
15.9 0.6 0
16.2 0.6 0
16.5 0.6 0
16.8 0.6 0
17.1 0.6 0
17.4 0.6 0
17.7 0.6 0
18 0.6 0
18.3 0.6 0
18.6 0.6 0
18.9 0.6 0
19.2 0.6 0
19.5 0.6 0
19.8 0.6 0
20.1 0.6 0
20.4 0.6 0
20.7 0.6 0
21 0.6 0
21.3 0.6 0
21.6 0.6 0
21.9 0.6 0
22.2 0.6 0
22.5 0.6 0
22.8 0.6 0
23.1 0.6 0
23.4 0.6 0
23.7 0.6 0
24 0.6 0
24.3 0.6 0
24.6 0.6 0
24.9 0.6 0
25.2 0.6 0
25.5 0.6 0
25.8 0.6 0
26.1 0.6 0
26.4 0.6 0
26.7 0.6 0
27 0.6 0
27.3 0.6 0
27.6 0.6 0
27.9 0.6 0
28.2 0.6 0
28.5 0.6 0
28.8 0.6 0
29.1 0.6 0
29.4 0.6 0
29.7 0.6 0
30 0.6 0
30.3 0.6 0
0 0.7 0
0.3 0.7 0
0.6 0.7 0
0.9 0.7 0
1.2 0.7 0
1.5 0.7 0
1.8 0.7 0
2.1 0.7 0
2.4 0.7 0
2.7 0.7 0
3 0.7 0
3.3 0.7 0
3.6 0.7 0
3.9 0.7 0
4.2 0.7 0
4.5 0.7 0
4.8 0.7 0
5.1 0.7 0
5.4 0.7 0
5.7 0.7 0
6 0.7 0
6.3 0.7 0
6.6 0.7 0
6.9 0.7 0
7.2 0.7 0
7.5 0.7 0
7.8 0.7 0
8.1 0.7 0
8.4 0.7 0
8.7 0.7 0
9 0.7 0
9.3 0.7 0
9.6 0.7 0
9.9 0.7 0
10.2 0.7 0
10.5 0.7 0
10.8 0.7 0
11.1 0.7 0
11.4 0.7 0
11.7 0.7 0
12 0.7 0
12.3 0.7 0
12.6 0.7 0
12.9 0.7 0
13.2 0.7 0
13.5 0.7 0
13.8 0.7 0
14.1 0.7 0
14.4 0.7 0
14.7 0.7 0
15 0.7 0
15.3 0.7 0
15.6 0.7 0
15.9 0.7 0
16.2 0.7 0
16.5 0.7 0
16.8 0.7 0
17.1 0.7 0
17.4 0.7 0
17.7 0.7 0
18 0.7 0
18.3 0.7 0
18.6 0.7 0
18.9 0.7 0
19.2 0.7 0
19.5 0.7 0
19.8 0.7 0
20.1 0.7 0
20.4 0.7 0
20.7 0.7 0
21 0.7 0
21.3 0.7 0
21.6 0.7 0
21.9 0.7 0
22.2 0.7 0
22.5 0.7 0
22.8 0.7 0
23.1 0.7 0
23.4 0.7 0
23.7 0.7 0
24 0.7 0
24.3 0.7 0
24.6 0.7 0
24.9 0.7 0
25.2 0.7 0
25.5 0.7 0
25.8 0.7 0
26.1 0.7 0
26.4 0.7 0
26.7 0.7 0
27 0.7 0
27.3 0.7 0
27.6 0.7 0
27.9 0.7 0
28.2 0.7 0
28.5 0.7 0
28.8 0.7 0
29.1 0.7 0
29.4 0.7 0
29.7 0.7 0
30 0.7 0
30.3 0.7 0
0 0.8 0
0.3 0.8 0
0.6 0.8 0
0.9 0.8 0
1.2 0.8 0
1.5 0.8 0
1.8 0.8 0
2.1 0.8 0
2.4 0.8 0
2.7 0.8 0
3 0.8 0
3.3 0.8 0
3.6 0.8 0
3.9 0.8 0
4.2 0.8 0
4.5 0.8 0
4.8 0.8 0
5.1 0.8 0
5.4 0.8 0
5.7 0.8 0
6 0.8 0
6.3 0.8 0
6.6 0.8 0
6.9 0.8 0
7.2 0.8 0
7.5 0.8 0
7.8 0.8 0
8.1 0.8 0
8.4 0.8 0
8.7 0.8 0
9 0.8 0
9.3 0.8 0
9.6 0.8 0
9.9 0.8 0
10.2 0.8 0
10.5 0.8 0
10.8 0.8 0
11.1 0.8 0
11.4 0.8 0
11.7 0.8 0
12 0.8 0
12.3 0.8 0
12.6 0.8 0
12.9 0.8 0
13.2 0.8 0
13.5 0.8 0
13.8 0.8 0
14.1 0.8 0
14.4 0.8 0
14.7 0.8 0
15 0.8 0
15.3 0.8 0
15.6 0.8 0
15.9 0.8 0
16.2 0.8 0
16.5 0.8 0
16.8 0.8 0
17.1 0.8 0
17.4 0.8 0
17.7 0.8 0
18 0.8 0
18.3 0.8 0
18.6 0.8 0
18.9 0.8 0
19.2 0.8 0
19.5 0.8 0
19.8 0.8 0
20.1 0.8 0
20.4 0.8 0
20.7 0.8 0
21 0.8 0
21.3 0.8 0
21.6 0.8 0
21.9 0.8 0
22.2 0.8 0
22.5 0.8 0
22.8 0.8 0
23.1 0.8 0
23.4 0.8 0
23.7 0.8 0
24 0.8 0
24.3 0.8 0
24.6 0.8 0
24.9 0.8 0
25.2 0.8 0
25.5 0.8 0
25.8 0.8 0
26.1 0.8 0
26.4 0.8 0
26.7 0.8 0
27 0.8 0
27.3 0.8 0
27.6 0.8 0
27.9 0.8 0
28.2 0.8 0
28.5 0.8 0
28.8 0.8 0
29.1 0.8 0
29.4 0.8 0
29.7 0.8 0
30 0.8 0
30.3 0.8 0
0 0.9 0
0.3 0.9 0
0.6 0.9 0
0.9 0.9 0
1.2 0.9 0
1.5 0.9 0
1.8 0.9 0
2.1 0.9 0
2.4 0.9 0
2.7 0.9 0
3 0.9 0
3.3 0.9 0
3.6 0.9 0
3.9 0.9 0
4.2 0.9 0
4.5 0.9 0
4.8 0.9 0
5.1 0.9 0
5.4 0.9 0
5.7 0.9 0
6 0.9 0
6.3 0.9 0
6.6 0.9 0
6.9 0.9 0
7.2 0.9 0
7.5 0.9 0
7.8 0.9 0
8.1 0.9 0
8.4 0.9 0
8.7 0.9 0
9 0.9 0
9.3 0.9 0
9.6 0.9 0
9.9 0.9 0
10.2 0.9 0
10.5 0.9 0
10.8 0.9 0
11.1 0.9 0
11.4 0.9 0
11.7 0.9 0
12 0.9 0
12.3 0.9 0
12.6 0.9 0
12.9 0.9 0
13.2 0.9 0
13.5 0.9 0
13.8 0.9 0
14.1 0.9 0
14.4 0.9 0
14.7 0.9 0
15 0.9 0
15.3 0.9 0
15.6 0.9 0
15.9 0.9 0
16.2 0.9 0
16.5 0.9 0
16.8 0.9 0
17.1 0.9 0
17.4 0.9 0
17.7 0.9 0
18 0.9 0
18.3 0.9 0
18.6 0.9 0
18.9 0.9 0
19.2 0.9 0
19.5 0.9 0
19.8 0.9 0
20.1 0.9 0
20.4 0.9 0
20.7 0.9 0
21 0.9 0
21.3 0.9 0
21.6 0.9 0
21.9 0.9 0
22.2 0.9 0
22.5 0.9 0
22.8 0.9 0
23.1 0.9 0
23.4 0.9 0
23.7 0.9 0
24 0.9 0
24.3 0.9 0
24.6 0.9 0
24.9 0.9 0
25.2 0.9 0
25.5 0.9 0
25.8 0.9 0
26.1 0.9 0
26.4 0.9 0
26.7 0.9 0
27 0.9 0
27.3 0.9 0
27.6 0.9 0
27.9 0.9 0
28.2 0.9 0
28.5 0.9 0
28.8 0.9 0
29.1 0.9 0
29.4 0.9 0
29.7 0.9 0
30 0.9 0
30.3 0.9 0
0 1 0
0.3 1 0
0.6 1 0
0.9 1 0
1.2 1 0
1.5 1 0
1.8 1 0
2.1 1 0
2.4 1 0
2.7 1 0
3 1 0
3.3 1 0
3.6 1 0
3.9 1 0
4.2 1 0
4.5 1 0
4.8 1 0
5.1 1 0
5.4 1 0
5.7 1 0
6 1 0
6.3 1 0
6.6 1 0
6.9 1 0
7.2 1 0
7.5 1 0
7.8 1 0
8.1 1 0
8.4 1 0
8.7 1 0
9 1 0
9.3 1 0
9.6 1 0
9.9 1 0
10.2 1 0
10.5 1 0
10.8 1 0
11.1 1 0
11.4 1 0
11.7 1 0
12 1 0
12.3 1 0
12.6 1 0
12.9 1 0
13.2 1 0
13.5 1 0
13.8 1 0
14.1 1 0
14.4 1 0
14.7 1 0
15 1 0
15.3 1 0
15.6 1 0
15.9 1 0
16.2 1 0
16.5 1 0
16.8 1 0
17.1 1 0
17.4 1 0
17.7 1 0
18 1 0
18.3 1 0
18.6 1 0
18.9 1 0
19.2 1 0
19.5 1 0
19.8 1 0
20.1 1 0
20.4 1 0
20.7 1 0
21 1 0
21.3 1 0
21.6 1 0
21.9 1 0
22.2 1 0
22.5 1 0
22.8 1 0
23.1 1 0
23.4 1 0
23.7 1 0
24 1 0
24.3 1 0
24.6 1 0
24.9 1 0
25.2 1 0
25.5 1 0
25.8 1 0
26.1 1 0
26.4 1 0
26.7 1 0
27 1 0
27.3 1 0
27.6 1 0
27.9 1 0
28.2 1 0
28.5 1 0
28.8 1 0
29.1 1 0
29.4 1 0
29.7 1 0
30 1 0
30.3 1 0
0 1.1 0
0.3 1.1 0
0.6 1.1 0
0.9 1.1 0
1.2 1.1 0
1.5 1.1 0
1.8 1.1 0
2.1 1.1 0
2.4 1.1 0
2.7 1.1 0
3 1.1 0
3.3 1.1 0
3.6 1.1 0
3.9 1.1 0
4.2 1.1 0
4.5 1.1 0
4.8 1.1 0
5.1 1.1 0
5.4 1.1 0
5.7 1.1 0
6 1.1 0
6.3 1.1 0
6.6 1.1 0
6.9 1.1 0
7.2 1.1 0
7.5 1.1 0
7.8 1.1 0
8.1 1.1 0
8.4 1.1 0
8.7 1.1 0
9 1.1 0
9.3 1.1 0
9.6 1.1 0
9.9 1.1 0
10.2 1.1 0
10.5 1.1 0
10.8 1.1 0
11.1 1.1 0
11.4 1.1 0
11.7 1.1 0
12 1.1 0
12.3 1.1 0
12.6 1.1 0
12.9 1.1 0
13.2 1.1 0
13.5 1.1 0
13.8 1.1 0
14.1 1.1 0
14.4 1.1 0
14.7 1.1 0
15 1.1 0
15.3 1.1 0
15.6 1.1 0
15.9 1.1 0
16.2 1.1 0
16.5 1.1 0
16.8 1.1 0
17.1 1.1 0
17.4 1.1 0
17.7 1.1 0
18 1.1 0
18.3 1.1 0
18.6 1.1 0
18.9 1.1 0
19.2 1.1 0
19.5 1.1 0
19.8 1.1 0
20.1 1.1 0
20.4 1.1 0
20.7 1.1 0
21 1.1 0
21.3 1.1 0
21.6 1.1 0
21.9 1.1 0
22.2 1.1 0
22.5 1.1 0
22.8 1.1 0
23.1 1.1 0
23.4 1.1 0
23.7 1.1 0
24 1.1 0
24.3 1.1 0
24.6 1.1 0
24.9 1.1 0
25.2 1.1 0
25.5 1.1 0
25.8 1.1 0
26.1 1.1 0
26.4 1.1 0
26.7 1.1 0
27 1.1 0
27.3 1.1 0
27.6 1.1 0
27.9 1.1 0
28.2 1.1 0
28.5 1.1 0
28.8 1.1 0
29.1 1.1 0
29.4 1.1 0
29.7 1.1 0
30 1.1 0
30.3 1.1 0

POINT_DATA 1224

SCALARS phi double
LOOKUP_TABLE default
0.999997
1
0.999986
0.999856
0.999429
0.99847
0.99678
0.994238
0.990799
0.986475
0.981316
0.975395
0.968799
0.961621
0.953954
0.945885
0.937499
0.928869
0.920063
0.911138
0.902148
0.893134
0.884134
0.87518
0.866298
0.857509
0.848833
0.840282
0.831869
0.823603
0.81549
0.807537
0.799747
0.792122
0.784664
0.777374
0.77025
0.763293
0.7565
0.749871
0.743403
0.737093
0.73094
0.72494
0.71909
0.713388
0.707831
0.702415
0.697137
0.691994
0.686984
0.682102
0.677347
0.672714
0.668201
0.663806
0.659524
0.655352
0.65129
0.647332
0.643476
0.63972
0.636061
0.632495
0.629019
0.625631
0.622328
0.619106
0.615962
0.612893
0.609895
0.606964
0.604097
0.60129
0.598538
0.595839
0.593186
0.590576
0.588004
0.585466
0.582956
0.58047
0.578002
0.575549
0.573104
0.570662
0.568219
0.565769
0.563308
0.56083
0.558331
0.555805
0.553248
0.550655
0.548022
0.545346
0.542616
0.539851
0.536965
0.534254
0.530571
0.530571
0.999997
1
0.999986
0.999856
0.999429
0.99847
0.99678
0.994238
0.990799
0.986475
0.981316
0.975395
0.968799
0.961621
0.953954
0.945885
0.937499
0.928869
0.920063
0.911138
0.902148
0.893134
0.884134
0.87518
0.866298
0.857509
0.848833
0.840282
0.831869
0.823603
0.81549
0.807537
0.799747
0.792122
0.784664
0.777374
0.77025
0.763293
0.7565
0.749871
0.743403
0.737093
0.73094
0.72494
0.71909
0.713388
0.707831
0.702415
0.697137
0.691994
0.686984
0.682102
0.677347
0.672714
0.668201
0.663806
0.659524
0.655352
0.65129
0.647332
0.643476
0.63972
0.636061
0.632495
0.629019
0.625631
0.622328
0.619106
0.615962
0.612893
0.609895
0.606964
0.604097
0.60129
0.598538
0.595839
0.593186
0.590576
0.588004
0.585466
0.582956
0.58047
0.578002
0.575549
0.573104
0.570662
0.568219
0.565769
0.563308
0.56083
0.558331
0.555805
0.553248
0.550655
0.548022
0.545346
0.542616
0.539851
0.536965
0.534254
0.530571
0.530571
0.999991
1.00001
0.999806
0.999198
0.997961
0.995905
0.992926
0.989008
0.984195
0.978566
0.972214
0.965241
0.957742
0.949813
0.941537
0.932993
0.924249
0.915368
0.906401
0.897394
0.888388
0.879414
0.870502
0.861673
0.852949
0.844343
0.83587
0.827539
0.819358
0.811334
0.80347
0.79577
0.788236
0.780868
0.773667
0.766632
0.759763
0.753057
0.746513
0.740129
0.733902
0.727829
0.721908
0.716136
0.71051
0.705026
0.699682
0.694475
0.689402
0.684458
0.679642
0.674951
0.670381
0.665929
0.661592
0.657368
0.653254
0.649246
0.645343
0.641541
0.637838
0.634231
0.630717
0.627293
0.623958
0.620708
0.617541
0.614453
0.611442
0.608505
0.60564
0.602842
0.600109
0.597438
0.594824
0.592265
0.589757
0.587297
0.584879
0.582501
0.580158
0.577846
0.57556
0.573296
0.571051
0.568818
0.566594
0.564374
0.562154
0.559928
0.557692
0.555442
0.553173
0.550881
0.548561
0.54621
0.543817
0.541404
0.538872
0.536557
0.533242
0.533242
1.00019
0.999812
0.997464
0.993419
0.987789
0.980769
0.972643
0.963715
0.954249
0.944452
0.934478
0.924439
0.914415
0.904462
0.89462
0.884916
0.875371
0.865997
0.856805
0.847798
0.838982
0.830357
0.821925
0.813684
0.805635
0.797774
0.790101
0.782613
0.775306
0.768179
0.761227
0.754449
0.74784
0.741397
0.735116
0.728995
0.72303
0.717217
0.711553
0.706034
0.700657
0.695419
0.690316
0.685345
0.680502
0.675786
0.671191
0.666716
0.662358
0.658113
0.653978
0.649951
0.646029
0.642209
0.638489
0.634867
0.631338
0.627902
0.624555
0.621296
0.618122
0.61503
0.612019
0.609087
0.60623
0.603447
0.600736
0.598095
0.595521
0.593012
0.590566
0.58818
0.585853
0.583581
0.581363
0.579195
0.577076
0.575001
0.572969
0.570977
0.56902
0.567097
0.565204
0.563338
0.561495
0.559671
0.557864
0.556069
0.554283
0.552501
0.550721
0.548937
0.547147
0.545347
0.543531
0.541699
0.539838
0.537971
0.536004
0.534241
0.531644
0.531644
1.00542
0.994581
0.97508
0.954125
0.933452
0.913655
0.895039
0.877742
0.861776
0.84707
0.833512
0.820982
0.809362
0.798543
0.78843
0.77894
0.770002
0.761554
0.753544
0.745926
0.738662
0.731717
0.725064
0.718677
0.712536
0.706621
0.700915
0.695406
0.690081
0.684928
0.679937
0.675101
0.670411
0.665861
0.661444
0.657154
0.652987
0.648937
0.645001
0.641173
0.637451
0.63383
0.630308
0.626881
0.623546
0.620301
0.617143
0.614068
0.611076
0.608163
0.605327
0.602566
0.599878
0.597261
0.594713
0.592232
0.589816
0.587464
0.585173
0.582943
0.580771
0.578656
0.576597
0.574591
0.572637
0.570735
0.568882
0.567077
0.565319
0.563606
0.561936
0.560309
0.558723
0.557175
0.555666
0.554193
0.552754
0.551348
0.549973
0.548628
0.547309
0.546016
0.544746
0.543497
0.542267
0.541053
0.539853
0.538665
0.537486
0.536312
0.535142
0.533973
0.5328
0.531623
0.530437
0.52924
0.528023
0.526805
0.525512
0.524364
0.522642
0.522642
1.08202
0.91798
0.823015
0.765284
0.727175
0.700189
0.68008
0.66452
0.652111
0.641956
0.633457
0.626199
0.619896
0.614339
0.609379
0.604903
0.600826
0.597084
0.593624
0.590405
0.587396
0.584568
0.581901
0.579375
0.576975
0.574688
0.572504
0.570412
0.568405
0.566476
0.564618
0.562828
0.561099
0.559429
0.557813
0.556249
0.554734
0.553264
0.551839
0.550456
0.549113
0.547809
0.546542
0.54531
0.544113
0.542948
0.541816
0.540715
0.539643
0.5386
0.537586
0.536598
0.535637
0.534702
0.533792
0.532905
0.532043
0.531203
0.530385
0.529589
0.528813
0.528058
0.527323
0.526608
0.525911
0.525232
0.524571
0.523927
0.523299
0.522688
0.522093
0.521512
0.520946
0.520394
0.519855
0.519329
0.518815
0.518312
0.51782
0.517338
0.516864
0.516398
0.51594
0.515487
0.515038
0.514594
0.514151
0.513709
0.513266
0.51282
0.51237
0.511914
0.51145
0.510976
0.510489
0.509989
0.509468
0.508937
0.508355
0.507837
0.507017
0.507017
-0.0820204
0.0820204
0.176985
0.234716
0.272825
0.299811
0.31992
0.33548
0.347889
0.358044
0.366543
0.373801
0.380104
0.385661
0.390621
0.395097
0.399174
0.402916
0.406376
0.409595
0.412604
0.415432
0.418099
0.420625
0.423025
0.425312
0.427496
0.429588
0.431595
0.433524
0.435382
0.437172
0.438901
0.440571
0.442187
0.443751
0.445266
0.446736
0.448161
0.449544
0.450887
0.452191
0.453458
0.45469
0.455887
0.457052
0.458184
0.459285
0.460357
0.4614
0.462414
0.463402
0.464363
0.465298
0.466208
0.467095
0.467957
0.468797
0.469615
0.470411
0.471187
0.471941
0.472676
0.473392
0.474089
0.474767
0.475428
0.476071
0.476697
0.477307
0.4779
0.478478
0.47904
0.479587
0.480119
0.480637
0.48114
0.481629
0.482104
0.482565
0.483012
0.483445
0.483863
0.484267
0.484656
0.48503
0.485388
0.48573
0.486055
0.486363
0.486651
0.486919
0.487167
0.487392
0.487592
0.487767
0.487914
0.488034
0.488115
0.488177
0.488171
0.488171
-0.00541873
0.00541873
0.0249201
0.0458753
0.0665479
0.0863449
0.104961
0.122258
0.138224
0.15293
0.166488
0.179018
0.190638
0.201457
0.21157
0.22106
0.229998
0.238446
0.246456
0.254074
0.261338
0.268283
0.274936
0.281323
0.287464
0.293379
0.299085
0.304594
0.309919
0.315072
0.320063
0.324899
0.329589
0.334139
0.338556
0.342846
0.347013
0.351063
0.354999
0.358827
0.362549
0.36617
0.369692
0.373119
0.376454
0.379699
0.382857
0.385932
0.388924
0.391837
0.394673
0.397434
0.400122
0.402739
0.405287
0.407768
0.410184
0.412536
0.414827
0.417057
0.419229
0.421343
0.423403
0.425408
0.427361
0.429262
0.431114
0.432917
0.434672
0.436382
0.438047
0.439668
0.441246
0.442783
0.444279
0.445735
0.447153
0.448532
0.449875
0.451181
0.452451
0.453685
0.454885
0.45605
0.45718
0.458276
0.459338
0.460366
0.461358
0.462315
0.463237
0.464121
0.464968
0.465776
0.466544
0.467269
0.467952
0.468587
0.469182
0.469691
0.470289
0.470289
-0.000187534
0.000187534
0.00253635
0.00658088
0.0122109
0.0192313
0.0273566
0.0362847
0.0457513
0.0555485
0.0655222
0.075561
0.0855851
0.0955382
0.10538
0.115084
0.124629
0.134003
0.143195
0.152202
0.161018
0.169643
0.178075
0.186316
0.194365
0.202226
0.209899
0.217387
0.224694
0.231821
0.238773
0.245551
0.25216
0.258603
0.264884
0.271005
0.27697
0.282783
0.288447
0.293966
0.299343
0.304581
0.309684
0.314655
0.319498
0.324214
0.328809
0.333284
0.337642
0.341887
0.346022
0.350049
0.353971
0.35779
0.36151
0.365133
0.368662
0.372098
0.375444
0.378703
0.381877
0.384968
0.387978
0.390909
0.393764
0.396543
0.399251
0.401887
0.404454
0.406954
0.409388
0.411759
0.414067
0.416314
0.418501
0.420631
0.422703
0.42472
0.426683
0.428592
0.430448
0.432252
0.434005
0.435707
0.437359
0.43896
0.44051
0.44201
0.443459
0.444857
0.446201
0.447492
0.448728
0.449907
0.451028
0.452089
0.453087
0.454017
0.454891
0.455642
0.456527
0.456527
9.11926e-06
-9.11926e-06
0.000194127
0.000801507
0.00203892
0.00409543
0.00707416
0.010992
0.015805
0.0214344
0.0277857
0.0347594
0.0422575
0.0501873
0.0584631
0.0670073
0.0757507
0.0846324
0.0935993
0.102606
0.111612
0.120586
0.129498
0.138327
0.147051
0.155657
0.16413
0.172461
0.180642
0.188666
0.19653
0.20423
0.211764
0.219132
0.226333
0.233368
0.240237
0.246943
0.253487
0.259871
0.266098
0.272171
0.278092
0.283864
0.28949
0.294974
0.300317
0.305525
0.310598
0.315542
0.320358
0.325049
0.329619
0.334071
0.338408
0.342632
0.346746
0.350753
0.354655
0.358457
0.362159
0.365764
0.369275
0.372695
0.376025
0.379269
0.382427
0.385503
0.388498
0.391414
0.394254
0.397019
0.399711
0.402331
0.404881
0.407364
0.409779
0.412128
0.414412
0.416633
0.41879
0.420885
0.422918
0.424889
0.426798
0.428644
0.430428
0.432149
0.433805
0.435396
0.436919
0.438373
0.439756
0.441066
0.442299
0.443453
0.444525
0.445509
0.446411
0.447182
0.448026
0.448026
2.58893e-06
-2.58893e-06
1.40367e-05
0.000143873
0.000571454
0.00153022
0.00322002
0.00576194
0.00920072
0.0135245
0.0186837
0.0246047
0.0312006
0.0383787
0.0460463
0.0541147
0.0625013
0.0711311
0.0799374
0.0888615
0.0978524
0.106866
0.115866
0.12482
0.133702
0.142491
0.151167
0.159718
0.168131
0.176397
0.18451
0.192463
0.200253
0.207878
0.215336
0.222626
0.22975
0.236707
0.2435
0.250129
0.256597
0.262907
0.26906
0.27506
0.28091
0.286612
0.292169
0.297585
0.302863
0.308006
0.313016
0.317897
0.322653
0.327285
0.331798
0.336194
0.340475
0.344646
0.348707
0.352663
0.356517
0.360269
0.363924
0.367483
0.370949
0.374325
0.377612
0.380813
0.38393
0.386965
0.38992
0.392796
0.395596
0.398321
0.400972
0.403552
0.40606
0.408499
0.410869
0.41317
0.415403
0.417569
0.419667
0.421697
0.423659
0.425551
0.427374
0.429124
0.430802
0.432404
0.433929
0.435373
0.436735
0.43801
0.439196
0.440288
0.441282
0.442175
0.442963
0.443626
0.444262
0.444262
2.58893e-06
-2.58893e-06
1.40367e-05
0.000143873
0.000571454
0.00153022
0.00322002
0.00576194
0.00920072
0.0135245
0.0186837
0.0246047
0.0312006
0.0383787
0.0460463
0.0541147
0.0625013
0.0711311
0.0799374
0.0888615
0.0978524
0.106866
0.115866
0.12482
0.133702
0.142491
0.151167
0.159718
0.168131
0.176397
0.18451
0.192463
0.200253
0.207878
0.215336
0.222626
0.22975
0.236707
0.2435
0.250129
0.256597
0.262907
0.26906
0.27506
0.28091
0.286612
0.292169
0.297585
0.302863
0.308006
0.313016
0.317897
0.322653
0.327285
0.331798
0.336194
0.340475
0.344646
0.348707
0.352663
0.356517
0.360269
0.363924
0.367483
0.370949
0.374325
0.377612
0.380813
0.38393
0.386965
0.38992
0.392796
0.395596
0.398321
0.400972
0.403552
0.40606
0.408499
0.410869
0.41317
0.415403
0.417569
0.419667
0.421697
0.423659
0.425551
0.427374
0.429124
0.430802
0.432404
0.433929
0.435373
0.436735
0.43801
0.439196
0.440288
0.441282
0.442175
0.442963
0.443626
0.444262
0.444262
