# vtk DataFile Version 2.0
FlowField
ASCII
DATASET STRUCTURED_GRID
DIMENSIONS 102 12 1 
POINTS 1224 double
0 0 0
0.3 0 0
0.6 0 0
0.9 0 0
1.2 0 0
1.5 0 0
1.8 0 0
2.1 0 0
2.4 0 0
2.7 0 0
3 0 0
3.3 0 0
3.6 0 0
3.9 0 0
4.2 0 0
4.5 0 0
4.8 0 0
5.1 0 0
5.4 0 0
5.7 0 0
6 0 0
6.3 0 0
6.6 0 0
6.9 0 0
7.2 0 0
7.5 0 0
7.8 0 0
8.1 0 0
8.4 0 0
8.7 0 0
9 0 0
9.3 0 0
9.6 0 0
9.9 0 0
10.2 0 0
10.5 0 0
10.8 0 0
11.1 0 0
11.4 0 0
11.7 0 0
12 0 0
12.3 0 0
12.6 0 0
12.9 0 0
13.2 0 0
13.5 0 0
13.8 0 0
14.1 0 0
14.4 0 0
14.7 0 0
15 0 0
15.3 0 0
15.6 0 0
15.9 0 0
16.2 0 0
16.5 0 0
16.8 0 0
17.1 0 0
17.4 0 0
17.7 0 0
18 0 0
18.3 0 0
18.6 0 0
18.9 0 0
19.2 0 0
19.5 0 0
19.8 0 0
20.1 0 0
20.4 0 0
20.7 0 0
21 0 0
21.3 0 0
21.6 0 0
21.9 0 0
22.2 0 0
22.5 0 0
22.8 0 0
23.1 0 0
23.4 0 0
23.7 0 0
24 0 0
24.3 0 0
24.6 0 0
24.9 0 0
25.2 0 0
25.5 0 0
25.8 0 0
26.1 0 0
26.4 0 0
26.7 0 0
27 0 0
27.3 0 0
27.6 0 0
27.9 0 0
28.2 0 0
28.5 0 0
28.8 0 0
29.1 0 0
29.4 0 0
29.7 0 0
30 0 0
30.3 0 0
0 0.1 0
0.3 0.1 0
0.6 0.1 0
0.9 0.1 0
1.2 0.1 0
1.5 0.1 0
1.8 0.1 0
2.1 0.1 0
2.4 0.1 0
2.7 0.1 0
3 0.1 0
3.3 0.1 0
3.6 0.1 0
3.9 0.1 0
4.2 0.1 0
4.5 0.1 0
4.8 0.1 0
5.1 0.1 0
5.4 0.1 0
5.7 0.1 0
6 0.1 0
6.3 0.1 0
6.6 0.1 0
6.9 0.1 0
7.2 0.1 0
7.5 0.1 0
7.8 0.1 0
8.1 0.1 0
8.4 0.1 0
8.7 0.1 0
9 0.1 0
9.3 0.1 0
9.6 0.1 0
9.9 0.1 0
10.2 0.1 0
10.5 0.1 0
10.8 0.1 0
11.1 0.1 0
11.4 0.1 0
11.7 0.1 0
12 0.1 0
12.3 0.1 0
12.6 0.1 0
12.9 0.1 0
13.2 0.1 0
13.5 0.1 0
13.8 0.1 0
14.1 0.1 0
14.4 0.1 0
14.7 0.1 0
15 0.1 0
15.3 0.1 0
15.6 0.1 0
15.9 0.1 0
16.2 0.1 0
16.5 0.1 0
16.8 0.1 0
17.1 0.1 0
17.4 0.1 0
17.7 0.1 0
18 0.1 0
18.3 0.1 0
18.6 0.1 0
18.9 0.1 0
19.2 0.1 0
19.5 0.1 0
19.8 0.1 0
20.1 0.1 0
20.4 0.1 0
20.7 0.1 0
21 0.1 0
21.3 0.1 0
21.6 0.1 0
21.9 0.1 0
22.2 0.1 0
22.5 0.1 0
22.8 0.1 0
23.1 0.1 0
23.4 0.1 0
23.7 0.1 0
24 0.1 0
24.3 0.1 0
24.6 0.1 0
24.9 0.1 0
25.2 0.1 0
25.5 0.1 0
25.8 0.1 0
26.1 0.1 0
26.4 0.1 0
26.7 0.1 0
27 0.1 0
27.3 0.1 0
27.6 0.1 0
27.9 0.1 0
28.2 0.1 0
28.5 0.1 0
28.8 0.1 0
29.1 0.1 0
29.4 0.1 0
29.7 0.1 0
30 0.1 0
30.3 0.1 0
0 0.2 0
0.3 0.2 0
0.6 0.2 0
0.9 0.2 0
1.2 0.2 0
1.5 0.2 0
1.8 0.2 0
2.1 0.2 0
2.4 0.2 0
2.7 0.2 0
3 0.2 0
3.3 0.2 0
3.6 0.2 0
3.9 0.2 0
4.2 0.2 0
4.5 0.2 0
4.8 0.2 0
5.1 0.2 0
5.4 0.2 0
5.7 0.2 0
6 0.2 0
6.3 0.2 0
6.6 0.2 0
6.9 0.2 0
7.2 0.2 0
7.5 0.2 0
7.8 0.2 0
8.1 0.2 0
8.4 0.2 0
8.7 0.2 0
9 0.2 0
9.3 0.2 0
9.6 0.2 0
9.9 0.2 0
10.2 0.2 0
10.5 0.2 0
10.8 0.2 0
11.1 0.2 0
11.4 0.2 0
11.7 0.2 0
12 0.2 0
12.3 0.2 0
12.6 0.2 0
12.9 0.2 0
13.2 0.2 0
13.5 0.2 0
13.8 0.2 0
14.1 0.2 0
14.4 0.2 0
14.7 0.2 0
15 0.2 0
15.3 0.2 0
15.6 0.2 0
15.9 0.2 0
16.2 0.2 0
16.5 0.2 0
16.8 0.2 0
17.1 0.2 0
17.4 0.2 0
17.7 0.2 0
18 0.2 0
18.3 0.2 0
18.6 0.2 0
18.9 0.2 0
19.2 0.2 0
19.5 0.2 0
19.8 0.2 0
20.1 0.2 0
20.4 0.2 0
20.7 0.2 0
21 0.2 0
21.3 0.2 0
21.6 0.2 0
21.9 0.2 0
22.2 0.2 0
22.5 0.2 0
22.8 0.2 0
23.1 0.2 0
23.4 0.2 0
23.7 0.2 0
24 0.2 0
24.3 0.2 0
24.6 0.2 0
24.9 0.2 0
25.2 0.2 0
25.5 0.2 0
25.8 0.2 0
26.1 0.2 0
26.4 0.2 0
26.7 0.2 0
27 0.2 0
27.3 0.2 0
27.6 0.2 0
27.9 0.2 0
28.2 0.2 0
28.5 0.2 0
28.8 0.2 0
29.1 0.2 0
29.4 0.2 0
29.7 0.2 0
30 0.2 0
30.3 0.2 0
0 0.3 0
0.3 0.3 0
0.6 0.3 0
0.9 0.3 0
1.2 0.3 0
1.5 0.3 0
1.8 0.3 0
2.1 0.3 0
2.4 0.3 0
2.7 0.3 0
3 0.3 0
3.3 0.3 0
3.6 0.3 0
3.9 0.3 0
4.2 0.3 0
4.5 0.3 0
4.8 0.3 0
5.1 0.3 0
5.4 0.3 0
5.7 0.3 0
6 0.3 0
6.3 0.3 0
6.6 0.3 0
6.9 0.3 0
7.2 0.3 0
7.5 0.3 0
7.8 0.3 0
8.1 0.3 0
8.4 0.3 0
8.7 0.3 0
9 0.3 0
9.3 0.3 0
9.6 0.3 0
9.9 0.3 0
10.2 0.3 0
10.5 0.3 0
10.8 0.3 0
11.1 0.3 0
11.4 0.3 0
11.7 0.3 0
12 0.3 0
12.3 0.3 0
12.6 0.3 0
12.9 0.3 0
13.2 0.3 0
13.5 0.3 0
13.8 0.3 0
14.1 0.3 0
14.4 0.3 0
14.7 0.3 0
15 0.3 0
15.3 0.3 0
15.6 0.3 0
15.9 0.3 0
16.2 0.3 0
16.5 0.3 0
16.8 0.3 0
17.1 0.3 0
17.4 0.3 0
17.7 0.3 0
18 0.3 0
18.3 0.3 0
18.6 0.3 0
18.9 0.3 0
19.2 0.3 0
19.5 0.3 0
19.8 0.3 0
20.1 0.3 0
20.4 0.3 0
20.7 0.3 0
21 0.3 0
21.3 0.3 0
21.6 0.3 0
21.9 0.3 0
22.2 0.3 0
22.5 0.3 0
22.8 0.3 0
23.1 0.3 0
23.4 0.3 0
23.7 0.3 0
24 0.3 0
24.3 0.3 0
24.6 0.3 0
24.9 0.3 0
25.2 0.3 0
25.5 0.3 0
25.8 0.3 0
26.1 0.3 0
26.4 0.3 0
26.7 0.3 0
27 0.3 0
27.3 0.3 0
27.6 0.3 0
27.9 0.3 0
28.2 0.3 0
28.5 0.3 0
28.8 0.3 0
29.1 0.3 0
29.4 0.3 0
29.7 0.3 0
30 0.3 0
30.3 0.3 0
0 0.4 0
0.3 0.4 0
0.6 0.4 0
0.9 0.4 0
1.2 0.4 0
1.5 0.4 0
1.8 0.4 0
2.1 0.4 0
2.4 0.4 0
2.7 0.4 0
3 0.4 0
3.3 0.4 0
3.6 0.4 0
3.9 0.4 0
4.2 0.4 0
4.5 0.4 0
4.8 0.4 0
5.1 0.4 0
5.4 0.4 0
5.7 0.4 0
6 0.4 0
6.3 0.4 0
6.6 0.4 0
6.9 0.4 0
7.2 0.4 0
7.5 0.4 0
7.8 0.4 0
8.1 0.4 0
8.4 0.4 0
8.7 0.4 0
9 0.4 0
9.3 0.4 0
9.6 0.4 0
9.9 0.4 0
10.2 0.4 0
10.5 0.4 0
10.8 0.4 0
11.1 0.4 0
11.4 0.4 0
11.7 0.4 0
12 0.4 0
12.3 0.4 0
12.6 0.4 0
12.9 0.4 0
13.2 0.4 0
13.5 0.4 0
13.8 0.4 0
14.1 0.4 0
14.4 0.4 0
14.7 0.4 0
15 0.4 0
15.3 0.4 0
15.6 0.4 0
15.9 0.4 0
16.2 0.4 0
16.5 0.4 0
16.8 0.4 0
17.1 0.4 0
17.4 0.4 0
17.7 0.4 0
18 0.4 0
18.3 0.4 0
18.6 0.4 0
18.9 0.4 0
19.2 0.4 0
19.5 0.4 0
19.8 0.4 0
20.1 0.4 0
20.4 0.4 0
20.7 0.4 0
21 0.4 0
21.3 0.4 0
21.6 0.4 0
21.9 0.4 0
22.2 0.4 0
22.5 0.4 0
22.8 0.4 0
23.1 0.4 0
23.4 0.4 0
23.7 0.4 0
24 0.4 0
24.3 0.4 0
24.6 0.4 0
24.9 0.4 0
25.2 0.4 0
25.5 0.4 0
25.8 0.4 0
26.1 0.4 0
26.4 0.4 0
26.7 0.4 0
27 0.4 0
27.3 0.4 0
27.6 0.4 0
27.9 0.4 0
28.2 0.4 0
28.5 0.4 0
28.8 0.4 0
29.1 0.4 0
29.4 0.4 0
29.7 0.4 0
30 0.4 0
30.3 0.4 0
0 0.5 0
0.3 0.5 0
0.6 0.5 0
0.9 0.5 0
1.2 0.5 0
1.5 0.5 0
1.8 0.5 0
2.1 0.5 0
2.4 0.5 0
2.7 0.5 0
3 0.5 0
3.3 0.5 0
3.6 0.5 0
3.9 0.5 0
4.2 0.5 0
4.5 0.5 0
4.8 0.5 0
5.1 0.5 0
5.4 0.5 0
5.7 0.5 0
6 0.5 0
6.3 0.5 0
6.6 0.5 0
6.9 0.5 0
7.2 0.5 0
7.5 0.5 0
7.8 0.5 0
8.1 0.5 0
8.4 0.5 0
8.7 0.5 0
9 0.5 0
9.3 0.5 0
9.6 0.5 0
9.9 0.5 0
10.2 0.5 0
10.5 0.5 0
10.8 0.5 0
11.1 0.5 0
11.4 0.5 0
11.7 0.5 0
12 0.5 0
12.3 0.5 0
12.6 0.5 0
12.9 0.5 0
13.2 0.5 0
13.5 0.5 0
13.8 0.5 0
14.1 0.5 0
14.4 0.5 0
14.7 0.5 0
15 0.5 0
15.3 0.5 0
15.6 0.5 0
15.9 0.5 0
16.2 0.5 0
16.5 0.5 0
16.8 0.5 0
17.1 0.5 0
17.4 0.5 0
17.7 0.5 0
18 0.5 0
18.3 0.5 0
18.6 0.5 0
18.9 0.5 0
19.2 0.5 0
19.5 0.5 0
19.8 0.5 0
20.1 0.5 0
20.4 0.5 0
20.7 0.5 0
21 0.5 0
21.3 0.5 0
21.6 0.5 0
21.9 0.5 0
22.2 0.5 0
22.5 0.5 0
22.8 0.5 0
23.1 0.5 0
23.4 0.5 0
23.7 0.5 0
24 0.5 0
24.3 0.5 0
24.6 0.5 0
24.9 0.5 0
25.2 0.5 0
25.5 0.5 0
25.8 0.5 0
26.1 0.5 0
26.4 0.5 0
26.7 0.5 0
27 0.5 0
27.3 0.5 0
27.6 0.5 0
27.9 0.5 0
28.2 0.5 0
28.5 0.5 0
28.8 0.5 0
29.1 0.5 0
29.4 0.5 0
29.7 0.5 0
30 0.5 0
30.3 0.5 0
0 0.6 0
0.3 0.6 0
0.6 0.6 0
0.9 0.6 0
1.2 0.6 0
1.5 0.6 0
1.8 0.6 0
2.1 0.6 0
2.4 0.6 0
2.7 0.6 0
3 0.6 0
3.3 0.6 0
3.6 0.6 0
3.9 0.6 0
4.2 0.6 0
4.5 0.6 0
4.8 0.6 0
5.1 0.6 0
5.4 0.6 0
5.7 0.6 0
6 0.6 0
6.3 0.6 0
6.6 0.6 0
6.9 0.6 0
7.2 0.6 0
7.5 0.6 0
7.8 0.6 0
8.1 0.6 0
8.4 0.6 0
8.7 0.6 0
9 0.6 0
9.3 0.6 0
9.6 0.6 0
9.9 0.6 0
10.2 0.6 0
10.5 0.6 0
10.8 0.6 0
11.1 0.6 0
11.4 0.6 0
11.7 0.6 0
12 0.6 0
12.3 0.6 0
12.6 0.6 0
12.9 0.6 0
13.2 0.6 0
13.5 0.6 0
13.8 0.6 0
14.1 0.6 0
14.4 0.6 0
14.7 0.6 0
15 0.6 0
15.3 0.6 0
15.6 0.6 0
15.9 0.6 0
16.2 0.6 0
16.5 0.6 0
16.8 0.6 0
17.1 0.6 0
17.4 0.6 0
17.7 0.6 0
18 0.6 0
18.3 0.6 0
18.6 0.6 0
18.9 0.6 0
19.2 0.6 0
19.5 0.6 0
19.8 0.6 0
20.1 0.6 0
20.4 0.6 0
20.7 0.6 0
21 0.6 0
21.3 0.6 0
21.6 0.6 0
21.9 0.6 0
22.2 0.6 0
22.5 0.6 0
22.8 0.6 0
23.1 0.6 0
23.4 0.6 0
23.7 0.6 0
24 0.6 0
24.3 0.6 0
24.6 0.6 0
24.9 0.6 0
25.2 0.6 0
25.5 0.6 0
25.8 0.6 0
26.1 0.6 0
26.4 0.6 0
26.7 0.6 0
27 0.6 0
27.3 0.6 0
27.6 0.6 0
27.9 0.6 0
28.2 0.6 0
28.5 0.6 0
28.8 0.6 0
29.1 0.6 0
29.4 0.6 0
29.7 0.6 0
30 0.6 0
30.3 0.6 0
0 0.7 0
0.3 0.7 0
0.6 0.7 0
0.9 0.7 0
1.2 0.7 0
1.5 0.7 0
1.8 0.7 0
2.1 0.7 0
2.4 0.7 0
2.7 0.7 0
3 0.7 0
3.3 0.7 0
3.6 0.7 0
3.9 0.7 0
4.2 0.7 0
4.5 0.7 0
4.8 0.7 0
5.1 0.7 0
5.4 0.7 0
5.7 0.7 0
6 0.7 0
6.3 0.7 0
6.6 0.7 0
6.9 0.7 0
7.2 0.7 0
7.5 0.7 0
7.8 0.7 0
8.1 0.7 0
8.4 0.7 0
8.7 0.7 0
9 0.7 0
9.3 0.7 0
9.6 0.7 0
9.9 0.7 0
10.2 0.7 0
10.5 0.7 0
10.8 0.7 0
11.1 0.7 0
11.4 0.7 0
11.7 0.7 0
12 0.7 0
12.3 0.7 0
12.6 0.7 0
12.9 0.7 0
13.2 0.7 0
13.5 0.7 0
13.8 0.7 0
14.1 0.7 0
14.4 0.7 0
14.7 0.7 0
15 0.7 0
15.3 0.7 0
15.6 0.7 0
15.9 0.7 0
16.2 0.7 0
16.5 0.7 0
16.8 0.7 0
17.1 0.7 0
17.4 0.7 0
17.7 0.7 0
18 0.7 0
18.3 0.7 0
18.6 0.7 0
18.9 0.7 0
19.2 0.7 0
19.5 0.7 0
19.8 0.7 0
20.1 0.7 0
20.4 0.7 0
20.7 0.7 0
21 0.7 0
21.3 0.7 0
21.6 0.7 0
21.9 0.7 0
22.2 0.7 0
22.5 0.7 0
22.8 0.7 0
23.1 0.7 0
23.4 0.7 0
23.7 0.7 0
24 0.7 0
24.3 0.7 0
24.6 0.7 0
24.9 0.7 0
25.2 0.7 0
25.5 0.7 0
25.8 0.7 0
26.1 0.7 0
26.4 0.7 0
26.7 0.7 0
27 0.7 0
27.3 0.7 0
27.6 0.7 0
27.9 0.7 0
28.2 0.7 0
28.5 0.7 0
28.8 0.7 0
29.1 0.7 0
29.4 0.7 0
29.7 0.7 0
30 0.7 0
30.3 0.7 0
0 0.8 0
0.3 0.8 0
0.6 0.8 0
0.9 0.8 0
1.2 0.8 0
1.5 0.8 0
1.8 0.8 0
2.1 0.8 0
2.4 0.8 0
2.7 0.8 0
3 0.8 0
3.3 0.8 0
3.6 0.8 0
3.9 0.8 0
4.2 0.8 0
4.5 0.8 0
4.8 0.8 0
5.1 0.8 0
5.4 0.8 0
5.7 0.8 0
6 0.8 0
6.3 0.8 0
6.6 0.8 0
6.9 0.8 0
7.2 0.8 0
7.5 0.8 0
7.8 0.8 0
8.1 0.8 0
8.4 0.8 0
8.7 0.8 0
9 0.8 0
9.3 0.8 0
9.6 0.8 0
9.9 0.8 0
10.2 0.8 0
10.5 0.8 0
10.8 0.8 0
11.1 0.8 0
11.4 0.8 0
11.7 0.8 0
12 0.8 0
12.3 0.8 0
12.6 0.8 0
12.9 0.8 0
13.2 0.8 0
13.5 0.8 0
13.8 0.8 0
14.1 0.8 0
14.4 0.8 0
14.7 0.8 0
15 0.8 0
15.3 0.8 0
15.6 0.8 0
15.9 0.8 0
16.2 0.8 0
16.5 0.8 0
16.8 0.8 0
17.1 0.8 0
17.4 0.8 0
17.7 0.8 0
18 0.8 0
18.3 0.8 0
18.6 0.8 0
18.9 0.8 0
19.2 0.8 0
19.5 0.8 0
19.8 0.8 0
20.1 0.8 0
20.4 0.8 0
20.7 0.8 0
21 0.8 0
21.3 0.8 0
21.6 0.8 0
21.9 0.8 0
22.2 0.8 0
22.5 0.8 0
22.8 0.8 0
23.1 0.8 0
23.4 0.8 0
23.7 0.8 0
24 0.8 0
24.3 0.8 0
24.6 0.8 0
24.9 0.8 0
25.2 0.8 0
25.5 0.8 0
25.8 0.8 0
26.1 0.8 0
26.4 0.8 0
26.7 0.8 0
27 0.8 0
27.3 0.8 0
27.6 0.8 0
27.9 0.8 0
28.2 0.8 0
28.5 0.8 0
28.8 0.8 0
29.1 0.8 0
29.4 0.8 0
29.7 0.8 0
30 0.8 0
30.3 0.8 0
0 0.9 0
0.3 0.9 0
0.6 0.9 0
0.9 0.9 0
1.2 0.9 0
1.5 0.9 0
1.8 0.9 0
2.1 0.9 0
2.4 0.9 0
2.7 0.9 0
3 0.9 0
3.3 0.9 0
3.6 0.9 0
3.9 0.9 0
4.2 0.9 0
4.5 0.9 0
4.8 0.9 0
5.1 0.9 0
5.4 0.9 0
5.7 0.9 0
6 0.9 0
6.3 0.9 0
6.6 0.9 0
6.9 0.9 0
7.2 0.9 0
7.5 0.9 0
7.8 0.9 0
8.1 0.9 0
8.4 0.9 0
8.7 0.9 0
9 0.9 0
9.3 0.9 0
9.6 0.9 0
9.9 0.9 0
10.2 0.9 0
10.5 0.9 0
10.8 0.9 0
11.1 0.9 0
11.4 0.9 0
11.7 0.9 0
12 0.9 0
12.3 0.9 0
12.6 0.9 0
12.9 0.9 0
13.2 0.9 0
13.5 0.9 0
13.8 0.9 0
14.1 0.9 0
14.4 0.9 0
14.7 0.9 0
15 0.9 0
15.3 0.9 0
15.6 0.9 0
15.9 0.9 0
16.2 0.9 0
16.5 0.9 0
16.8 0.9 0
17.1 0.9 0
17.4 0.9 0
17.7 0.9 0
18 0.9 0
18.3 0.9 0
18.6 0.9 0
18.9 0.9 0
19.2 0.9 0
19.5 0.9 0
19.8 0.9 0
20.1 0.9 0
20.4 0.9 0
20.7 0.9 0
21 0.9 0
21.3 0.9 0
21.6 0.9 0
21.9 0.9 0
22.2 0.9 0
22.5 0.9 0
22.8 0.9 0
23.1 0.9 0
23.4 0.9 0
23.7 0.9 0
24 0.9 0
24.3 0.9 0
24.6 0.9 0
24.9 0.9 0
25.2 0.9 0
25.5 0.9 0
25.8 0.9 0
26.1 0.9 0
26.4 0.9 0
26.7 0.9 0
27 0.9 0
27.3 0.9 0
27.6 0.9 0
27.9 0.9 0
28.2 0.9 0
28.5 0.9 0
28.8 0.9 0
29.1 0.9 0
29.4 0.9 0
29.7 0.9 0
30 0.9 0
30.3 0.9 0
0 1 0
0.3 1 0
0.6 1 0
0.9 1 0
1.2 1 0
1.5 1 0
1.8 1 0
2.1 1 0
2.4 1 0
2.7 1 0
3 1 0
3.3 1 0
3.6 1 0
3.9 1 0
4.2 1 0
4.5 1 0
4.8 1 0
5.1 1 0
5.4 1 0
5.7 1 0
6 1 0
6.3 1 0
6.6 1 0
6.9 1 0
7.2 1 0
7.5 1 0
7.8 1 0
8.1 1 0
8.4 1 0
8.7 1 0
9 1 0
9.3 1 0
9.6 1 0
9.9 1 0
10.2 1 0
10.5 1 0
10.8 1 0
11.1 1 0
11.4 1 0
11.7 1 0
12 1 0
12.3 1 0
12.6 1 0
12.9 1 0
13.2 1 0
13.5 1 0
13.8 1 0
14.1 1 0
14.4 1 0
14.7 1 0
15 1 0
15.3 1 0
15.6 1 0
15.9 1 0
16.2 1 0
16.5 1 0
16.8 1 0
17.1 1 0
17.4 1 0
17.7 1 0
18 1 0
18.3 1 0
18.6 1 0
18.9 1 0
19.2 1 0
19.5 1 0
19.8 1 0
20.1 1 0
20.4 1 0
20.7 1 0
21 1 0
21.3 1 0
21.6 1 0
21.9 1 0
22.2 1 0
22.5 1 0
22.8 1 0
23.1 1 0
23.4 1 0
23.7 1 0
24 1 0
24.3 1 0
24.6 1 0
24.9 1 0
25.2 1 0
25.5 1 0
25.8 1 0
26.1 1 0
26.4 1 0
26.7 1 0
27 1 0
27.3 1 0
27.6 1 0
27.9 1 0
28.2 1 0
28.5 1 0
28.8 1 0
29.1 1 0
29.4 1 0
29.7 1 0
30 1 0
30.3 1 0
0 1.1 0
0.3 1.1 0
0.6 1.1 0
0.9 1.1 0
1.2 1.1 0
1.5 1.1 0
1.8 1.1 0
2.1 1.1 0
2.4 1.1 0
2.7 1.1 0
3 1.1 0
3.3 1.1 0
3.6 1.1 0
3.9 1.1 0
4.2 1.1 0
4.5 1.1 0
4.8 1.1 0
5.1 1.1 0
5.4 1.1 0
5.7 1.1 0
6 1.1 0
6.3 1.1 0
6.6 1.1 0
6.9 1.1 0
7.2 1.1 0
7.5 1.1 0
7.8 1.1 0
8.1 1.1 0
8.4 1.1 0
8.7 1.1 0
9 1.1 0
9.3 1.1 0
9.6 1.1 0
9.9 1.1 0
10.2 1.1 0
10.5 1.1 0
10.8 1.1 0
11.1 1.1 0
11.4 1.1 0
11.7 1.1 0
12 1.1 0
12.3 1.1 0
12.6 1.1 0
12.9 1.1 0
13.2 1.1 0
13.5 1.1 0
13.8 1.1 0
14.1 1.1 0
14.4 1.1 0
14.7 1.1 0
15 1.1 0
15.3 1.1 0
15.6 1.1 0
15.9 1.1 0
16.2 1.1 0
16.5 1.1 0
16.8 1.1 0
17.1 1.1 0
17.4 1.1 0
17.7 1.1 0
18 1.1 0
18.3 1.1 0
18.6 1.1 0
18.9 1.1 0
19.2 1.1 0
19.5 1.1 0
19.8 1.1 0
20.1 1.1 0
20.4 1.1 0
20.7 1.1 0
21 1.1 0
21.3 1.1 0
21.6 1.1 0
21.9 1.1 0
22.2 1.1 0
22.5 1.1 0
22.8 1.1 0
23.1 1.1 0
23.4 1.1 0
23.7 1.1 0
24 1.1 0
24.3 1.1 0
24.6 1.1 0
24.9 1.1 0
25.2 1.1 0
25.5 1.1 0
25.8 1.1 0
26.1 1.1 0
26.4 1.1 0
26.7 1.1 0
27 1.1 0
27.3 1.1 0
27.6 1.1 0
27.9 1.1 0
28.2 1.1 0
28.5 1.1 0
28.8 1.1 0
29.1 1.1 0
29.4 1.1 0
29.7 1.1 0
30 1.1 0
30.3 1.1 0

POINT_DATA 1224

VECTORS velocity double
LOOKUP_TABLE default
-1 0 0
-0.889697 0 0
-0.79171 0 0
-0.735221 0 0
-0.710934 0 0
-0.702762 0 0
-0.700553 0 0
-0.700073 0 0
-0.699994 0 0
-0.699986 0 0
-0.699987 0 0
-0.699988 0 0
-0.699988 0 0
-0.699989 0 0
-0.699989 0 0
-0.699989 0 0
-0.699989 0 0
-0.699989 0 0
-0.699989 0 0
-0.699989 0 0
-0.69999 0 0
-0.69999 0 0
-0.69999 0 0
-0.69999 0 0
-0.69999 0 0
-0.69999 0 0
-0.69999 0 0
-0.69999 0 0
-0.69999 0 0
-0.69999 0 0
-0.69999 0 0
-0.69999 0 0
-0.69999 0 0
-0.69999 0 0
-0.69999 0 0
-0.69999 0 0
-0.69999 0 0
-0.69999 0 0
-0.69999 0 0
-0.69999 0 0
-0.69999 0 0
-0.69999 0 0
-0.69999 0 0
-0.69999 0 0
-0.69999 0 0
-0.69999 0 0
-0.69999 0 0
-0.69999 0 0
-0.69999 0 0
-0.69999 0 0
-0.699989 0 0
-0.699989 0 0
-0.699989 0 0
-0.699989 0 0
-0.699989 0 0
-0.699989 0 0
-0.699989 0 0
-0.699988 0 0
-0.699988 0 0
-0.699988 0 0
-0.699988 0 0
-0.699988 0 0
-0.699987 0 0
-0.699987 0 0
-0.699987 0 0
-0.699987 0 0
-0.699986 0 0
-0.699986 0 0
-0.699986 0 0
-0.699986 0 0
-0.699985 0 0
-0.699985 0 0
-0.699985 0 0
-0.699985 0 0
-0.699984 0 0
-0.699984 0 0
-0.699984 0 0
-0.699983 0 0
-0.699983 0 0
-0.699983 0 0
-0.699982 0 0
-0.699982 0 0
-0.699982 0 0
-0.699982 0 0
-0.699981 0 0
-0.699981 0 0
-0.69998 0 0
-0.69998 0 0
-0.69998 0 0
-0.699979 0 0
-0.699979 0 0
-0.699979 0 0
-0.699978 0 0
-0.699978 0 0
-0.699978 0 0
-0.69998 0 0
-0.699985 0 0
-0.700041 0 0
-0.700078 0 0
-0.701701 0 0
-0.701701 0 0
-1 0 0
1 -0.0367677 0
0.889697 0.0367677 0
0.79171 0.0326624 0
0.735221 0.0188297 0
0.710934 0.00809558 0
0.702762 0.00272398 0
0.700553 0.000736426 0
0.700073 0.000159895 0
0.699994 2.64727e-05 0
0.699986 2.53875e-06 0
0.699987 -3.03543e-07 0
0.699988 -2.53394e-07 0
0.699988 -1.11245e-07 0
0.699989 -6.33671e-08 0
0.699989 -5.2483e-08 0
0.699989 -5.10832e-08 0
0.699989 -5.17184e-08 0
0.699989 -5.2791e-08 0
0.699989 -5.40074e-08 0
0.699989 -5.53201e-08 0
0.69999 -5.67216e-08 0
0.69999 -5.82097e-08 0
0.69999 -5.97828e-08 0
0.69999 -6.14396e-08 0
0.69999 -6.31791e-08 0
0.69999 -6.49999e-08 0
0.69999 -6.68998e-08 0
0.69999 -6.88764e-08 0
0.69999 -7.09272e-08 0
0.69999 -7.30501e-08 0
0.69999 -7.52424e-08 0
0.69999 -7.75012e-08 0
0.69999 -7.98238e-08 0
0.69999 -8.22083e-08 0
0.69999 -8.46527e-08 0
0.69999 -8.71547e-08 0
0.69999 -8.97128e-08 0
0.69999 -9.2326e-08 0
0.69999 -9.49927e-08 0
0.69999 -9.7708e-08 0
0.69999 -1.00467e-07 0
0.69999 -1.03266e-07 0
0.69999 -1.06103e-07 0
0.69999 -1.08978e-07 0
0.69999 -1.11887e-07 0
0.69999 -1.14829e-07 0
0.69999 -1.17804e-07 0
0.69999 -1.20807e-07 0
0.69999 -1.23824e-07 0
0.69999 -1.26881e-07 0
0.699989 -1.29978e-07 0
0.699989 -1.33111e-07 0
0.699989 -1.36272e-07 0
0.699989 -1.39434e-07 0
0.699989 -1.42576e-07 0
0.699989 -1.45703e-07 0
0.699989 -1.48823e-07 0
0.699988 -1.51943e-07 0
0.699988 -1.55059e-07 0
0.699988 -1.58165e-07 0
0.699988 -1.61256e-07 0
0.699988 -1.64327e-07 0
0.699987 -1.6738e-07 0
0.699987 -1.70412e-07 0
0.699987 -1.73421e-07 0
0.699987 -1.76405e-07 0
0.699986 -1.79361e-07 0
0.699986 -1.82285e-07 0
0.699986 -1.85176e-07 0
0.699986 -1.8803e-07 0
0.699985 -1.90844e-07 0
0.699985 -1.93615e-07 0
0.699985 -1.96341e-07 0
0.699985 -1.99019e-07 0
0.699984 -2.01646e-07 0
0.699984 -2.04219e-07 0
0.699984 -2.06736e-07 0
0.699983 -2.09194e-07 0
0.699983 -2.11589e-07 0
0.699983 -2.13922e-07 0
0.699982 -2.16187e-07 0
0.699982 -2.18383e-07 0
0.699982 -2.20507e-07 0
0.699982 -2.22556e-07 0
0.699981 -2.24529e-07 0
0.699981 -2.26424e-07 0
0.69998 -2.28238e-07 0
0.69998 -2.29973e-07 0
0.69998 -2.31632e-07 0
0.699979 -2.33242e-07 0
0.699979 -2.34931e-07 0
0.699979 -2.37278e-07 0
0.699978 -2.42945e-07 0
0.699978 -2.64921e-07 0
0.699978 -3.54529e-07 0
0.69998 -8.73536e-07 0
0.699985 -2.08741e-06 0
0.700041 -1.90082e-05 0
0.700078 -1.28237e-05 0
0.701701 -0.000541223 0
0.701701 -0.000875685 0
1 -0.000875685 0
1 -0.0274995 0
1.0278 0.0274995 0
1.03661 0.029727 0
1.03915 0.0179825 0
1.04 0.00781221 0
1.04036 0.00260458 0
1.04053 0.000680153 0
1.0406 0.000135077 0
1.04063 1.69433e-05 0
1.04064 -6.34892e-07 0
1.04064 -1.21209e-06 0
1.04065 -4.91433e-07 0
1.04065 -1.6942e-07 0
1.04065 -7.57154e-08 0
1.04065 -5.39172e-08 0
1.04065 -5.00402e-08 0
1.04065 -5.00732e-08 0
1.04065 -5.09298e-08 0
1.04065 -5.20065e-08 0
1.04065 -5.31962e-08 0
1.04065 -5.44812e-08 0
1.04065 -5.58577e-08 0
1.04065 -5.7324e-08 0
1.04065 -5.88787e-08 0
1.04065 -6.05202e-08 0
1.04065 -6.22471e-08 0
1.04065 -6.40585e-08 0
1.04065 -6.59534e-08 0
1.04065 -6.79302e-08 0
1.04065 -6.99862e-08 0
1.04065 -7.21174e-08 0
1.04064 -7.43197e-08 0
1.04064 -7.65898e-08 0
1.04064 -7.89262e-08 0
1.04064 -8.13273e-08 0
1.04064 -8.37915e-08 0
1.04064 -8.63171e-08 0
1.04064 -8.8902e-08 0
1.04064 -9.15425e-08 0
1.04064 -9.42347e-08 0
1.04064 -9.69759e-08 0
1.04064 -9.97647e-08 0
1.04064 -1.026e-07 0
1.04064 -1.05478e-07 0
1.04064 -1.08398e-07 0
1.04064 -1.11355e-07 0
1.04064 -1.14347e-07 0
1.04064 -1.17367e-07 0
1.04064 -1.20419e-07 0
1.04064 -1.23505e-07 0
1.04064 -1.26617e-07 0
1.04064 -1.29748e-07 0
1.04064 -1.32889e-07 0
1.04064 -1.36031e-07 0
1.04064 -1.39178e-07 0
1.04064 -1.42338e-07 0
1.04064 -1.45511e-07 0
1.04064 -1.48691e-07 0
1.04064 -1.51871e-07 0
1.04064 -1.55046e-07 0
1.04064 -1.58214e-07 0
1.04064 -1.61375e-07 0
1.04064 -1.64525e-07 0
1.04064 -1.67661e-07 0
1.04064 -1.70781e-07 0
1.04064 -1.73879e-07 0
1.04064 -1.76955e-07 0
1.04064 -1.80003e-07 0
1.04064 -1.83022e-07 0
1.04064 -1.86009e-07 0
1.04064 -1.8896e-07 0
1.04064 -1.91873e-07 0
1.04064 -1.94745e-07 0
1.04064 -1.97572e-07 0
1.04064 -2.00352e-07 0
1.04064 -2.03082e-07 0
1.04064 -2.0576e-07 0
1.04064 -2.08381e-07 0
1.04064 -2.10945e-07 0
1.04064 -2.13447e-07 0
1.04063 -2.15886e-07 0
1.04063 -2.18258e-07 0
1.04063 -2.2056e-07 0
1.04063 -2.22791e-07 0
1.04063 -2.24949e-07 0
1.04063 -2.2703e-07 0
1.04063 -2.29034e-07 0
1.04063 -2.30962e-07 0
1.04063 -2.32821e-07 0
1.04063 -2.34655e-07 0
1.04063 -2.36652e-07 0
1.04063 -2.39676e-07 0
1.04063 -2.47688e-07 0
1.04063 -2.79263e-07 0
1.04063 -4.17456e-07 0
1.04063 -1.09668e-06 0
1.04064 -3.66799e-06 0
1.04064 -2.15282e-05 0
1.04076 -5.14746e-05 0
1.0408 -0.000556499 0
1.0408 -0.000890206 0
1 -0.000890206 0
1 -0.0165342 0
1.0329 0.0165342 0
1.06143 0.0202142 0
1.07651 0.0129567 0
1.08216 0.00593052 0
1.08367 0.00209894 0
1.08394 0.000591122 0
1.08395 0.000131367 0
1.08394 2.11796e-05 0
1.08393 1.3932e-06 0
1.08393 -5.98521e-07 0
1.08393 -3.37854e-07 0
1.08393 -1.26725e-07 0
1.08393 -5.46021e-08 0
1.08393 -3.63039e-08 0
1.08393 -3.2982e-08 0
1.08393 -3.32148e-08 0
1.08393 -3.4261e-08 0
1.08393 -3.55452e-08 0
1.08393 -3.69586e-08 0
1.08393 -3.84816e-08 0
1.08393 -4.011e-08 0
1.08393 -4.18414e-08 0
1.08393 -4.36742e-08 0
1.08393 -4.56063e-08 0
1.08393 -4.76362e-08 0
1.08393 -4.97637e-08 0
1.08393 -5.19885e-08 0
1.08393 -5.43086e-08 0
1.08393 -5.67203e-08 0
1.08393 -5.92183e-08 0
1.08393 -6.17969e-08 0
1.08393 -6.44517e-08 0
1.08393 -6.71814e-08 0
1.08393 -6.99847e-08 0
1.08393 -7.28597e-08 0
1.08393 -7.58046e-08 0
1.08393 -7.88164e-08 0
1.08393 -8.18912e-08 0
1.08393 -8.50246e-08 0
1.08393 -8.82139e-08 0
1.08393 -9.14575e-08 0
1.08393 -9.47539e-08 0
1.08393 -9.80998e-08 0
1.08393 -1.01492e-07 0
1.08393 -1.04926e-07 0
1.08393 -1.08397e-07 0
1.08393 -1.11902e-07 0
1.08393 -1.15441e-07 0
1.08393 -1.19013e-07 0
1.08393 -1.22609e-07 0
1.08393 -1.26223e-07 0
1.08393 -1.29846e-07 0
1.08393 -1.33477e-07 0
1.08393 -1.3712e-07 0
1.08393 -1.40778e-07 0
1.08393 -1.44448e-07 0
1.08393 -1.48123e-07 0
1.08393 -1.51797e-07 0
1.08392 -1.55464e-07 0
1.08392 -1.59124e-07 0
1.08392 -1.62774e-07 0
1.08392 -1.66412e-07 0
1.08392 -1.70032e-07 0
1.08392 -1.73631e-07 0
1.08392 -1.77205e-07 0
1.08392 -1.80751e-07 0
1.08392 -1.84264e-07 0
1.08392 -1.87742e-07 0
1.08392 -1.91182e-07 0
1.08392 -1.94579e-07 0
1.08392 -1.97931e-07 0
1.08392 -2.01234e-07 0
1.08392 -2.04485e-07 0
1.08392 -2.07681e-07 0
1.08392 -2.10817e-07 0
1.08392 -2.13891e-07 0
1.08392 -2.16901e-07 0
1.08392 -2.19841e-07 0
1.08392 -2.2271e-07 0
1.08392 -2.25504e-07 0
1.08392 -2.2822e-07 0
1.08392 -2.30855e-07 0
1.08392 -2.33407e-07 0
1.08392 -2.35873e-07 0
1.08392 -2.3825e-07 0
1.08392 -2.40537e-07 0
1.08392 -2.42735e-07 0
1.08392 -2.44852e-07 0
1.08392 -2.46931e-07 0
1.08392 -2.49152e-07 0
1.08392 -2.52327e-07 0
1.08392 -2.60149e-07 0
1.08392 -2.89661e-07 0
1.08392 -4.19635e-07 0
1.08391 -1.02184e-06 0
1.08391 -3.64778e-06 0
1.0839 -1.73624e-05 0
1.08393 -5.94218e-05 0
1.08339 -0.000377507 0
1.08339 -0.000620781 0
1 -0.000620781 0
1 -0.00768309 0
1.02655 0.00768309 0
1.05696 0.0100782 0
1.07569 0.00671277 0
1.08393 0.00318502 0
1.08671 0.00117306 0
1.08744 0.000346629 0
1.08759 8.2295e-05 0
1.08761 1.4964e-05 0
1.08761 1.62854e-06 0
1.0876 -1.44532e-07 0
1.0876 -1.50365e-07 0
1.0876 -6.03244e-08 0
1.0876 -2.41847e-08 0
1.0876 -1.47333e-08 0
1.0876 -1.34497e-08 0
1.0876 -1.42574e-08 0
1.0876 -1.56073e-08 0
1.0876 -1.716e-08 0
1.0876 -1.88493e-08 0
1.0876 -2.06623e-08 0
1.0876 -2.25956e-08 0
1.0876 -2.46464e-08 0
1.0876 -2.68127e-08 0
1.0876 -2.9092e-08 0
1.0876 -3.14829e-08 0
1.0876 -3.39859e-08 0
1.0876 -3.66009e-08 0
1.0876 -3.93258e-08 0
1.0876 -4.21555e-08 0
1.0876 -4.50835e-08 0
1.0876 -4.8102e-08 0
1.0876 -5.12055e-08 0
1.0876 -5.43932e-08 0
1.0876 -5.76641e-08 0
1.0876 -6.10159e-08 0
1.0876 -6.44463e-08 0
1.0876 -6.79524e-08 0
1.0876 -7.15297e-08 0
1.0876 -7.51735e-08 0
1.0876 -7.88802e-08 0
1.0876 -8.26476e-08 0
1.0876 -8.64739e-08 0
1.0876 -9.03557e-08 0
1.0876 -9.42886e-08 0
1.0876 -9.82675e-08 0
1.0876 -1.02288e-07 0
1.0876 -1.06345e-07 0
1.0876 -1.10439e-07 0
1.0876 -1.14566e-07 0
1.0876 -1.1872e-07 0
1.0876 -1.22895e-07 0
1.0876 -1.27088e-07 0
1.0876 -1.31294e-07 0
1.0876 -1.35513e-07 0
1.0876 -1.39743e-07 0
1.0876 -1.43979e-07 0
1.0876 -1.48217e-07 0
1.0876 -1.52449e-07 0
1.0876 -1.56674e-07 0
1.0876 -1.60888e-07 0
1.0876 -1.65088e-07 0
1.0876 -1.69271e-07 0
1.0876 -1.73431e-07 0
1.0876 -1.77564e-07 0
1.0876 -1.81666e-07 0
1.0876 -1.85733e-07 0
1.0876 -1.89762e-07 0
1.0876 -1.93748e-07 0
1.0876 -1.97687e-07 0
1.0876 -2.01576e-07 0
1.0876 -2.0541e-07 0
1.08759 -2.09187e-07 0
1.08759 -2.12901e-07 0
1.08759 -2.16549e-07 0
1.08759 -2.20128e-07 0
1.08759 -2.23634e-07 0
1.08759 -2.27062e-07 0
1.08759 -2.3041e-07 0
1.08759 -2.33674e-07 0
1.08759 -2.3685e-07 0
1.08759 -2.39934e-07 0
1.08759 -2.42924e-07 0
1.08759 -2.45816e-07 0
1.08759 -2.48607e-07 0
1.08759 -2.51295e-07 0
1.08759 -2.53878e-07 0
1.08759 -2.56355e-07 0
1.08759 -2.58733e-07 0
1.08759 -2.61041e-07 0
1.08759 -2.63396e-07 0
1.08759 -2.66298e-07 0
1.08759 -2.71952e-07 0
1.08759 -2.90379e-07 0
1.08759 -3.6819e-07 0
1.08759 -7.19998e-07 0
1.08758 -2.32031e-06 0
1.08756 -9.79612e-06 0
1.08749 -3.72638e-05 0
1.08692 -0.000186127 0
1.08692 -0.000312272 0
1 -0.000312272 0
1 -6.49612e-08 0
1.02305 6.49612e-08 0
1.05328 7.29759e-08 0
1.07342 -1.65504e-07 0
1.08298 -3.5747e-07 0
1.0865 -3.55983e-07 0
1.08754 -2.4101e-07 0
1.08779 -1.23447e-07 0
1.08783 -4.80889e-08 0
1.08784 -1.10187e-08 0
1.08784 3.96909e-09 0
1.08784 8.85443e-09 0
1.08784 9.68473e-09 0
1.08784 9.04058e-09 0
1.08784 7.86936e-09 0
1.08784 6.46759e-09 0
1.08784 4.91186e-09 0
1.08784 3.21696e-09 0
1.08784 1.38421e-09 0
1.08784 -5.86477e-10 0
1.08783 -2.69423e-09 0
1.08783 -4.93707e-09 0
1.08783 -7.312e-09 0
1.08783 -9.81669e-09 0
1.08783 -1.24481e-08 0
1.08783 -1.52048e-08 0
1.08783 -1.80881e-08 0
1.08783 -2.10987e-08 0
1.08783 -2.42339e-08 0
1.08783 -2.74876e-08 0
1.08783 -3.08514e-08 0
1.08783 -3.43158e-08 0
1.08783 -3.78734e-08 0
1.08783 -4.15246e-08 0
1.08783 -4.52686e-08 0
1.08783 -4.91027e-08 0
1.08783 -5.30244e-08 0
1.08783 -5.70307e-08 0
1.08783 -6.11168e-08 0
1.08783 -6.52771e-08 0
1.08783 -6.95072e-08 0
1.08783 -7.38042e-08 0
1.08783 -7.81664e-08 0
1.08783 -8.25901e-08 0
1.08783 -8.707e-08 0
1.08783 -9.15999e-08 0
1.08783 -9.61747e-08 0
1.08783 -1.00791e-07 0
1.08783 -1.05446e-07 0
1.08783 -1.10134e-07 0
1.08783 -1.14852e-07 0
1.08783 -1.19597e-07 0
1.08783 -1.24367e-07 0
1.08783 -1.29157e-07 0
1.08783 -1.33959e-07 0
1.08783 -1.38768e-07 0
1.08783 -1.43578e-07 0
1.08783 -1.48383e-07 0
1.08783 -1.53181e-07 0
1.08783 -1.57968e-07 0
1.08783 -1.62742e-07 0
1.08783 -1.67498e-07 0
1.08783 -1.7223e-07 0
1.08783 -1.76935e-07 0
1.08783 -1.81607e-07 0
1.08783 -1.86242e-07 0
1.08783 -1.90835e-07 0
1.08783 -1.95383e-07 0
1.08783 -1.9988e-07 0
1.08783 -2.04323e-07 0
1.08783 -2.08707e-07 0
1.08783 -2.13028e-07 0
1.08783 -2.17281e-07 0
1.08783 -2.21462e-07 0
1.08783 -2.25567e-07 0
1.08783 -2.29591e-07 0
1.08783 -2.33531e-07 0
1.08783 -2.37381e-07 0
1.08782 -2.41139e-07 0
1.08782 -2.44799e-07 0
1.08782 -2.48359e-07 0
1.08782 -2.51813e-07 0
1.08782 -2.55159e-07 0
1.08782 -2.58393e-07 0
1.08782 -2.61512e-07 0
1.08782 -2.64511e-07 0
1.08782 -2.6739e-07 0
1.08782 -2.70146e-07 0
1.08782 -2.72782e-07 0
1.08782 -2.75306e-07 0
1.08782 -2.77739e-07 0
1.08782 -2.80121e-07 0
1.08782 -2.82482e-07 0
1.08782 -2.84687e-07 0
1.08782 -2.85545e-07 0
1.08782 -2.85563e-07 0
1.08781 -2.85366e-07 0
1.08778 -2.85809e-07 0
1.08767 -2.86187e-07 0
1.08711 -2.85442e-07 0
1.08711 -2.83358e-07 0
1 -2.83358e-07 0
1 0.00768296 0
1.02305 -0.00768296 0
1.05328 -0.0100781 0
1.07342 -0.00671313 0
1.08298 -0.00318573 0
1.0865 -0.00117375 0
1.08754 -0.000347086 0
1.08779 -8.25254e-05 0
1.08783 -1.50517e-05 0
1.08784 -1.64688e-06 0
1.08784 1.53886e-07 0
1.08784 1.68567e-07 0
1.08784 7.98443e-08 0
1.08784 4.23005e-08 0
1.08784 3.04719e-08 0
1.08784 2.63759e-08 0
1.08784 2.40705e-08 0
1.08784 2.20303e-08 0
1.08784 1.99175e-08 0
1.08784 1.76653e-08 0
1.08783 1.52626e-08 0
1.08783 1.27099e-08 0
1.08783 1.00107e-08 0
1.08783 7.16742e-09 0
1.08783 4.18394e-09 0
1.08783 1.06193e-09 0
1.08783 -2.20137e-09 0
1.08783 -5.60743e-09 0
1.08783 -9.15324e-09 0
1.08783 -1.28314e-08 0
1.08783 -1.66319e-08 0
1.08783 -2.05425e-08 0
1.08783 -2.45539e-08 0
1.08783 -2.86682e-08 0
1.08783 -3.28853e-08 0
1.08783 -3.72017e-08 0
1.08783 -4.16146e-08 0
1.08783 -4.61212e-08 0
1.08783 -5.07161e-08 0
1.08783 -5.53931e-08 0
1.08783 -6.01463e-08 0
1.08783 -6.49727e-08 0
1.08783 -6.98708e-08 0
1.08783 -7.48364e-08 0
1.08783 -7.98634e-08 0
1.08783 -8.49443e-08 0
1.08783 -9.00736e-08 0
1.08783 -9.52494e-08 0
1.08783 -1.00465e-07 0
1.08783 -1.05714e-07 0
1.08783 -1.10996e-07 0
1.08783 -1.1631e-07 0
1.08783 -1.21657e-07 0
1.08783 -1.2703e-07 0
1.08783 -1.32417e-07 0
1.08783 -1.37804e-07 0
1.08783 -1.43186e-07 0
1.08783 -1.48559e-07 0
1.08783 -1.53922e-07 0
1.08783 -1.59272e-07 0
1.08783 -1.64605e-07 0
1.08783 -1.69916e-07 0
1.08783 -1.75199e-07 0
1.08783 -1.80448e-07 0
1.08783 -1.85658e-07 0
1.08783 -1.90826e-07 0
1.08783 -1.95945e-07 0
1.08783 -2.01011e-07 0
1.08783 -2.0602e-07 0
1.08783 -2.10966e-07 0
1.08783 -2.15845e-07 0
1.08783 -2.20652e-07 0
1.08783 -2.25382e-07 0
1.08783 -2.30029e-07 0
1.08783 -2.3459e-07 0
1.08783 -2.39059e-07 0
1.08783 -2.43432e-07 0
1.08783 -2.47705e-07 0
1.08782 -2.51872e-07 0
1.08782 -2.55929e-07 0
1.08782 -2.59872e-07 0
1.08782 -2.63696e-07 0
1.08782 -2.67398e-07 0
1.08782 -2.70973e-07 0
1.08782 -2.74418e-07 0
1.08782 -2.77729e-07 0
1.08782 -2.80902e-07 0
1.08782 -2.83937e-07 0
1.08782 -2.86829e-07 0
1.08782 -2.89566e-07 0
1.08782 -2.92072e-07 0
1.08782 -2.9393e-07 0
1.08782 -2.93013e-07 0
1.08782 -2.7913e-07 0
1.08782 -2.02999e-07 0
1.08782 1.48839e-07 0
1.08781 1.74965e-06 0
1.08778 9.22448e-06 0
1.08767 3.66913e-05 0
1.08711 0.000185556 0
1.08711 0.000311705 0
1 0.000311705 0
1 0.0165341 0
1.02655 -0.0165341 0
1.05696 -0.0202142 0
1.07569 -0.0129571 0
1.08393 -0.00593122 0
1.08671 -0.00209956 0
1.08744 -0.000591505 0
1.08759 -0.000131548 0
1.08761 -2.12423e-05 0
1.08761 -1.40087e-06 0
1.0876 6.11869e-07 0
1.0876 3.57399e-07 0
1.0876 1.46618e-07 0
1.0876 7.27644e-08 0
1.0876 5.19905e-08 0
1.0876 4.5829e-08 0
1.0876 4.29405e-08 0
1.0876 4.05926e-08 0
1.0876 3.82078e-08 0
1.0876 3.56759e-08 0
1.0876 3.29793e-08 0
1.0876 3.01176e-08 0
1.0876 2.70953e-08 0
1.0876 2.39149e-08 0
1.0876 2.05814e-08 0
1.0876 1.70975e-08 0
1.0876 1.34587e-08 0
1.0876 9.66215e-09 0
1.0876 5.71088e-09 0
1.0876 1.6134e-09 0
1.0876 -2.61985e-09 0
1.0876 -6.9732e-09 0
1.0876 -1.14338e-08 0
1.0876 -1.6007e-08 0
1.0876 -2.06931e-08 0
1.0876 -2.54875e-08 0
1.0876 -3.03872e-08 0
1.0876 -3.53895e-08 0
1.0876 -4.04887e-08 0
1.0876 -4.56776e-08 0
1.0876 -5.09491e-08 0
1.0876 -5.62995e-08 0
1.0876 -6.17278e-08 0
1.0876 -6.723e-08 0
1.0876 -7.27988e-08 0
1.0876 -7.84252e-08 0
1.0876 -8.41032e-08 0
1.0876 -8.98322e-08 0
1.0876 -9.56025e-08 0
1.0876 -1.01406e-07 0
1.0876 -1.07244e-07 0
1.0876 -1.13119e-07 0
1.0876 -1.19034e-07 0
1.0876 -1.24981e-07 0
1.0876 -1.30943e-07 0
1.0876 -1.36902e-07 0
1.0876 -1.42849e-07 0
1.0876 -1.48783e-07 0
1.0876 -1.54704e-07 0
1.0876 -1.6061e-07 0
1.0876 -1.66495e-07 0
1.0876 -1.72354e-07 0
1.0876 -1.78181e-07 0
1.0876 -1.83968e-07 0
1.0876 -1.89711e-07 0
1.0876 -1.95404e-07 0
1.0876 -2.01043e-07 0
1.0876 -2.06622e-07 0
1.0876 -2.12136e-07 0
1.0876 -2.1758e-07 0
1.0876 -2.22948e-07 0
1.0876 -2.28234e-07 0
1.08759 -2.33435e-07 0
1.08759 -2.38543e-07 0
1.08759 -2.43554e-07 0
1.08759 -2.48462e-07 0
1.08759 -2.53263e-07 0
1.08759 -2.57952e-07 0
1.08759 -2.62523e-07 0
1.08759 -2.66971e-07 0
1.08759 -2.71292e-07 0
1.08759 -2.75482e-07 0
1.08759 -2.79534e-07 0
1.08759 -2.83446e-07 0
1.08759 -2.87212e-07 0
1.08759 -2.90829e-07 0
1.08759 -2.94294e-07 0
1.08759 -2.97602e-07 0
1.08759 -3.00747e-07 0
1.08759 -3.03701e-07 0
1.08759 -3.06323e-07 0
1.08759 -3.07892e-07 0
1.08759 -3.04849e-07 0
1.08759 -2.80335e-07 0
1.08759 -1.52223e-07 0
1.08759 4.50237e-07 0
1.08758 3.07708e-06 0
1.08756 1.67905e-05 0
1.08749 5.88489e-05 0
1.08692 0.000376936 0
1.08692 0.000620215 0
1 0.000620215 0