# vtk DataFile Version 2.0
FlowField
ASCII
DATASET STRUCTURED_GRID
DIMENSIONS 102 1 12 
POINTS 1224 double
0 0 0
0.3 0 0
0.6 0 0
0.9 0 0
1.2 0 0
1.5 0 0
1.8 0 0
2.1 0 0
2.4 0 0
2.7 0 0
3 0 0
3.3 0 0
3.6 0 0
3.9 0 0
4.2 0 0
4.5 0 0
4.8 0 0
5.1 0 0
5.4 0 0
5.7 0 0
6 0 0
6.3 0 0
6.6 0 0
6.9 0 0
7.2 0 0
7.5 0 0
7.8 0 0
8.1 0 0
8.4 0 0
8.7 0 0
9 0 0
9.3 0 0
9.6 0 0
9.9 0 0
10.2 0 0
10.5 0 0
10.8 0 0
11.1 0 0
11.4 0 0
11.7 0 0
12 0 0
12.3 0 0
12.6 0 0
12.9 0 0
13.2 0 0
13.5 0 0
13.8 0 0
14.1 0 0
14.4 0 0
14.7 0 0
15 0 0
15.3 0 0
15.6 0 0
15.9 0 0
16.2 0 0
16.5 0 0
16.8 0 0
17.1 0 0
17.4 0 0
17.7 0 0
18 0 0
18.3 0 0
18.6 0 0
18.9 0 0
19.2 0 0
19.5 0 0
19.8 0 0
20.1 0 0
20.4 0 0
20.7 0 0
21 0 0
21.3 0 0
21.6 0 0
21.9 0 0
22.2 0 0
22.5 0 0
22.8 0 0
23.1 0 0
23.4 0 0
23.7 0 0
24 0 0
24.3 0 0
24.6 0 0
24.9 0 0
25.2 0 0
25.5 0 0
25.8 0 0
26.1 0 0
26.4 0 0
26.7 0 0
27 0 0
27.3 0 0
27.6 0 0
27.9 0 0
28.2 0 0
28.5 0 0
28.8 0 0
29.1 0 0
29.4 0 0
29.7 0 0
30 0 0
30.3 0 0
0 0.1 0
0.3 0.1 0
0.6 0.1 0
0.9 0.1 0
1.2 0.1 0
1.5 0.1 0
1.8 0.1 0
2.1 0.1 0
2.4 0.1 0
2.7 0.1 0
3 0.1 0
3.3 0.1 0
3.6 0.1 0
3.9 0.1 0
4.2 0.1 0
4.5 0.1 0
4.8 0.1 0
5.1 0.1 0
5.4 0.1 0
5.7 0.1 0
6 0.1 0
6.3 0.1 0
6.6 0.1 0
6.9 0.1 0
7.2 0.1 0
7.5 0.1 0
7.8 0.1 0
8.1 0.1 0
8.4 0.1 0
8.7 0.1 0
9 0.1 0
9.3 0.1 0
9.6 0.1 0
9.9 0.1 0
10.2 0.1 0
10.5 0.1 0
10.8 0.1 0
11.1 0.1 0
11.4 0.1 0
11.7 0.1 0
12 0.1 0
12.3 0.1 0
12.6 0.1 0
12.9 0.1 0
13.2 0.1 0
13.5 0.1 0
13.8 0.1 0
14.1 0.1 0
14.4 0.1 0
14.7 0.1 0
15 0.1 0
15.3 0.1 0
15.6 0.1 0
15.9 0.1 0
16.2 0.1 0
16.5 0.1 0
16.8 0.1 0
17.1 0.1 0
17.4 0.1 0
17.7 0.1 0
18 0.1 0
18.3 0.1 0
18.6 0.1 0
18.9 0.1 0
19.2 0.1 0
19.5 0.1 0
19.8 0.1 0
20.1 0.1 0
20.4 0.1 0
20.7 0.1 0
21 0.1 0
21.3 0.1 0
21.6 0.1 0
21.9 0.1 0
22.2 0.1 0
22.5 0.1 0
22.8 0.1 0
23.1 0.1 0
23.4 0.1 0
23.7 0.1 0
24 0.1 0
24.3 0.1 0
24.6 0.1 0
24.9 0.1 0
25.2 0.1 0
25.5 0.1 0
25.8 0.1 0
26.1 0.1 0
26.4 0.1 0
26.7 0.1 0
27 0.1 0
27.3 0.1 0
27.6 0.1 0
27.9 0.1 0
28.2 0.1 0
28.5 0.1 0
28.8 0.1 0
29.1 0.1 0
29.4 0.1 0
29.7 0.1 0
30 0.1 0
30.3 0.1 0
0 0.2 0
0.3 0.2 0
0.6 0.2 0
0.9 0.2 0
1.2 0.2 0
1.5 0.2 0
1.8 0.2 0
2.1 0.2 0
2.4 0.2 0
2.7 0.2 0
3 0.2 0
3.3 0.2 0
3.6 0.2 0
3.9 0.2 0
4.2 0.2 0
4.5 0.2 0
4.8 0.2 0
5.1 0.2 0
5.4 0.2 0
5.7 0.2 0
6 0.2 0
6.3 0.2 0
6.6 0.2 0
6.9 0.2 0
7.2 0.2 0
7.5 0.2 0
7.8 0.2 0
8.1 0.2 0
8.4 0.2 0
8.7 0.2 0
9 0.2 0
9.3 0.2 0
9.6 0.2 0
9.9 0.2 0
10.2 0.2 0
10.5 0.2 0
10.8 0.2 0
11.1 0.2 0
11.4 0.2 0
11.7 0.2 0
12 0.2 0
12.3 0.2 0
12.6 0.2 0
12.9 0.2 0
13.2 0.2 0
13.5 0.2 0
13.8 0.2 0
14.1 0.2 0
14.4 0.2 0
14.7 0.2 0
15 0.2 0
15.3 0.2 0
15.6 0.2 0
15.9 0.2 0
16.2 0.2 0
16.5 0.2 0
16.8 0.2 0
17.1 0.2 0
17.4 0.2 0
17.7 0.2 0
18 0.2 0
18.3 0.2 0
18.6 0.2 0
18.9 0.2 0
19.2 0.2 0
19.5 0.2 0
19.8 0.2 0
20.1 0.2 0
20.4 0.2 0
20.7 0.2 0
21 0.2 0
21.3 0.2 0
21.6 0.2 0
21.9 0.2 0
22.2 0.2 0
22.5 0.2 0
22.8 0.2 0
23.1 0.2 0
23.4 0.2 0
23.7 0.2 0
24 0.2 0
24.3 0.2 0
24.6 0.2 0
24.9 0.2 0
25.2 0.2 0
25.5 0.2 0
25.8 0.2 0
26.1 0.2 0
26.4 0.2 0
26.7 0.2 0
27 0.2 0
27.3 0.2 0
27.6 0.2 0
27.9 0.2 0
28.2 0.2 0
28.5 0.2 0
28.8 0.2 0
29.1 0.2 0
29.4 0.2 0
29.7 0.2 0
30 0.2 0
30.3 0.2 0
0 0.3 0
0.3 0.3 0
0.6 0.3 0
0.9 0.3 0
1.2 0.3 0
1.5 0.3 0
1.8 0.3 0
2.1 0.3 0
2.4 0.3 0
2.7 0.3 0
3 0.3 0
3.3 0.3 0
3.6 0.3 0
3.9 0.3 0
4.2 0.3 0
4.5 0.3 0
4.8 0.3 0
5.1 0.3 0
5.4 0.3 0
5.7 0.3 0
6 0.3 0
6.3 0.3 0
6.6 0.3 0
6.9 0.3 0
7.2 0.3 0
7.5 0.3 0
7.8 0.3 0
8.1 0.3 0
8.4 0.3 0
8.7 0.3 0
9 0.3 0
9.3 0.3 0
9.6 0.3 0
9.9 0.3 0
10.2 0.3 0
10.5 0.3 0
10.8 0.3 0
11.1 0.3 0
11.4 0.3 0
11.7 0.3 0
12 0.3 0
12.3 0.3 0
12.6 0.3 0
12.9 0.3 0
13.2 0.3 0
13.5 0.3 0
13.8 0.3 0
14.1 0.3 0
14.4 0.3 0
14.7 0.3 0
15 0.3 0
15.3 0.3 0
15.6 0.3 0
15.9 0.3 0
16.2 0.3 0
16.5 0.3 0
16.8 0.3 0
17.1 0.3 0
17.4 0.3 0
17.7 0.3 0
18 0.3 0
18.3 0.3 0
18.6 0.3 0
18.9 0.3 0
19.2 0.3 0
19.5 0.3 0
19.8 0.3 0
20.1 0.3 0
20.4 0.3 0
20.7 0.3 0
21 0.3 0
21.3 0.3 0
21.6 0.3 0
21.9 0.3 0
22.2 0.3 0
22.5 0.3 0
22.8 0.3 0
23.1 0.3 0
23.4 0.3 0
23.7 0.3 0
24 0.3 0
24.3 0.3 0
24.6 0.3 0
24.9 0.3 0
25.2 0.3 0
25.5 0.3 0
25.8 0.3 0
26.1 0.3 0
26.4 0.3 0
26.7 0.3 0
27 0.3 0
27.3 0.3 0
27.6 0.3 0
27.9 0.3 0
28.2 0.3 0
28.5 0.3 0
28.8 0.3 0
29.1 0.3 0
29.4 0.3 0
29.7 0.3 0
30 0.3 0
30.3 0.3 0
0 0.4 0
0.3 0.4 0
0.6 0.4 0
0.9 0.4 0
1.2 0.4 0
1.5 0.4 0
1.8 0.4 0
2.1 0.4 0
2.4 0.4 0
2.7 0.4 0
3 0.4 0
3.3 0.4 0
3.6 0.4 0
3.9 0.4 0
4.2 0.4 0
4.5 0.4 0
4.8 0.4 0
5.1 0.4 0
5.4 0.4 0
5.7 0.4 0
6 0.4 0
6.3 0.4 0
6.6 0.4 0
6.9 0.4 0
7.2 0.4 0
7.5 0.4 0
7.8 0.4 0
8.1 0.4 0
8.4 0.4 0
8.7 0.4 0
9 0.4 0
9.3 0.4 0
9.6 0.4 0
9.9 0.4 0
10.2 0.4 0
10.5 0.4 0
10.8 0.4 0
11.1 0.4 0
11.4 0.4 0
11.7 0.4 0
12 0.4 0
12.3 0.4 0
12.6 0.4 0
12.9 0.4 0
13.2 0.4 0
13.5 0.4 0
13.8 0.4 0
14.1 0.4 0
14.4 0.4 0
14.7 0.4 0
15 0.4 0
15.3 0.4 0
15.6 0.4 0
15.9 0.4 0
16.2 0.4 0
16.5 0.4 0
16.8 0.4 0
17.1 0.4 0
17.4 0.4 0
17.7 0.4 0
18 0.4 0
18.3 0.4 0
18.6 0.4 0
18.9 0.4 0
19.2 0.4 0
19.5 0.4 0
19.8 0.4 0
20.1 0.4 0
20.4 0.4 0
20.7 0.4 0
21 0.4 0
21.3 0.4 0
21.6 0.4 0
21.9 0.4 0
22.2 0.4 0
22.5 0.4 0
22.8 0.4 0
23.1 0.4 0
23.4 0.4 0
23.7 0.4 0
24 0.4 0
24.3 0.4 0
24.6 0.4 0
24.9 0.4 0
25.2 0.4 0
25.5 0.4 0
25.8 0.4 0
26.1 0.4 0
26.4 0.4 0
26.7 0.4 0
27 0.4 0
27.3 0.4 0
27.6 0.4 0
27.9 0.4 0
28.2 0.4 0
28.5 0.4 0
28.8 0.4 0
29.1 0.4 0
29.4 0.4 0
29.7 0.4 0
30 0.4 0
30.3 0.4 0
0 0.5 0
0.3 0.5 0
0.6 0.5 0
0.9 0.5 0
1.2 0.5 0
1.5 0.5 0
1.8 0.5 0
2.1 0.5 0
2.4 0.5 0
2.7 0.5 0
3 0.5 0
3.3 0.5 0
3.6 0.5 0
3.9 0.5 0
4.2 0.5 0
4.5 0.5 0
4.8 0.5 0
5.1 0.5 0
5.4 0.5 0
5.7 0.5 0
6 0.5 0
6.3 0.5 0
6.6 0.5 0
6.9 0.5 0
7.2 0.5 0
7.5 0.5 0
7.8 0.5 0
8.1 0.5 0
8.4 0.5 0
8.7 0.5 0
9 0.5 0
9.3 0.5 0
9.6 0.5 0
9.9 0.5 0
10.2 0.5 0
10.5 0.5 0
10.8 0.5 0
11.1 0.5 0
11.4 0.5 0
11.7 0.5 0
12 0.5 0
12.3 0.5 0
12.6 0.5 0
12.9 0.5 0
13.2 0.5 0
13.5 0.5 0
13.8 0.5 0
14.1 0.5 0
14.4 0.5 0
14.7 0.5 0
15 0.5 0
15.3 0.5 0
15.6 0.5 0
15.9 0.5 0
16.2 0.5 0
16.5 0.5 0
16.8 0.5 0
17.1 0.5 0
17.4 0.5 0
17.7 0.5 0
18 0.5 0
18.3 0.5 0
18.6 0.5 0
18.9 0.5 0
19.2 0.5 0
19.5 0.5 0
19.8 0.5 0
20.1 0.5 0
20.4 0.5 0
20.7 0.5 0
21 0.5 0
21.3 0.5 0
21.6 0.5 0
21.9 0.5 0
22.2 0.5 0
22.5 0.5 0
22.8 0.5 0
23.1 0.5 0
23.4 0.5 0
23.7 0.5 0
24 0.5 0
24.3 0.5 0
24.6 0.5 0
24.9 0.5 0
25.2 0.5 0
25.5 0.5 0
25.8 0.5 0
26.1 0.5 0
26.4 0.5 0
26.7 0.5 0
27 0.5 0
27.3 0.5 0
27.6 0.5 0
27.9 0.5 0
28.2 0.5 0
28.5 0.5 0
28.8 0.5 0
29.1 0.5 0
29.4 0.5 0
29.7 0.5 0
30 0.5 0
30.3 0.5 0
0 0.6 0
0.3 0.6 0
0.6 0.6 0
0.9 0.6 0
1.2 0.6 0
1.5 0.6 0
1.8 0.6 0
2.1 0.6 0
2.4 0.6 0
2.7 0.6 0
3 0.6 0
3.3 0.6 0
3.6 0.6 0
3.9 0.6 0
4.2 0.6 0
4.5 0.6 0
4.8 0.6 0
5.1 0.6 0
5.4 0.6 0
5.7 0.6 0
6 0.6 0
6.3 0.6 0
6.6 0.6 0
6.9 0.6 0
7.2 0.6 0
7.5 0.6 0
7.8 0.6 0
8.1 0.6 0
8.4 0.6 0
8.7 0.6 0
9 0.6 0
9.3 0.6 0
9.6 0.6 0
9.9 0.6 0
10.2 0.6 0
10.5 0.6 0
10.8 0.6 0
11.1 0.6 0
11.4 0.6 0
11.7 0.6 0
12 0.6 0
12.3 0.6 0
12.6 0.6 0
12.9 0.6 0
13.2 0.6 0
13.5 0.6 0
13.8 0.6 0
14.1 0.6 0
14.4 0.6 0
14.7 0.6 0
15 0.6 0
15.3 0.6 0
15.6 0.6 0
15.9 0.6 0
16.2 0.6 0
16.5 0.6 0
16.8 0.6 0
17.1 0.6 0
17.4 0.6 0
17.7 0.6 0
18 0.6 0
18.3 0.6 0
18.6 0.6 0
18.9 0.6 0
19.2 0.6 0
19.5 0.6 0
19.8 0.6 0
20.1 0.6 0
20.4 0.6 0
20.7 0.6 0
21 0.6 0
21.3 0.6 0
21.6 0.6 0
21.9 0.6 0
22.2 0.6 0
22.5 0.6 0
22.8 0.6 0
23.1 0.6 0
23.4 0.6 0
23.7 0.6 0
24 0.6 0
24.3 0.6 0
24.6 0.6 0
24.9 0.6 0
25.2 0.6 0
25.5 0.6 0
25.8 0.6 0
26.1 0.6 0
26.4 0.6 0
26.7 0.6 0
27 0.6 0
27.3 0.6 0
27.6 0.6 0
27.9 0.6 0
28.2 0.6 0
28.5 0.6 0
28.8 0.6 0
29.1 0.6 0
29.4 0.6 0
29.7 0.6 0
30 0.6 0
30.3 0.6 0
0 0.7 0
0.3 0.7 0
0.6 0.7 0
0.9 0.7 0
1.2 0.7 0
1.5 0.7 0
1.8 0.7 0
2.1 0.7 0
2.4 0.7 0
2.7 0.7 0
3 0.7 0
3.3 0.7 0
3.6 0.7 0
3.9 0.7 0
4.2 0.7 0
4.5 0.7 0
4.8 0.7 0
5.1 0.7 0
5.4 0.7 0
5.7 0.7 0
6 0.7 0
6.3 0.7 0
6.6 0.7 0
6.9 0.7 0
7.2 0.7 0
7.5 0.7 0
7.8 0.7 0
8.1 0.7 0
8.4 0.7 0
8.7 0.7 0
9 0.7 0
9.3 0.7 0
9.6 0.7 0
9.9 0.7 0
10.2 0.7 0
10.5 0.7 0
10.8 0.7 0
11.1 0.7 0
11.4 0.7 0
11.7 0.7 0
12 0.7 0
12.3 0.7 0
12.6 0.7 0
12.9 0.7 0
13.2 0.7 0
13.5 0.7 0
13.8 0.7 0
14.1 0.7 0
14.4 0.7 0
14.7 0.7 0
15 0.7 0
15.3 0.7 0
15.6 0.7 0
15.9 0.7 0
16.2 0.7 0
16.5 0.7 0
16.8 0.7 0
17.1 0.7 0
17.4 0.7 0
17.7 0.7 0
18 0.7 0
18.3 0.7 0
18.6 0.7 0
18.9 0.7 0
19.2 0.7 0
19.5 0.7 0
19.8 0.7 0
20.1 0.7 0
20.4 0.7 0
20.7 0.7 0
21 0.7 0
21.3 0.7 0
21.6 0.7 0
21.9 0.7 0
22.2 0.7 0
22.5 0.7 0
22.8 0.7 0
23.1 0.7 0
23.4 0.7 0
23.7 0.7 0
24 0.7 0
24.3 0.7 0
24.6 0.7 0
24.9 0.7 0
25.2 0.7 0
25.5 0.7 0
25.8 0.7 0
26.1 0.7 0
26.4 0.7 0
26.7 0.7 0
27 0.7 0
27.3 0.7 0
27.6 0.7 0
27.9 0.7 0
28.2 0.7 0
28.5 0.7 0
28.8 0.7 0
29.1 0.7 0
29.4 0.7 0
29.7 0.7 0
30 0.7 0
30.3 0.7 0
0 0.8 0
0.3 0.8 0
0.6 0.8 0
0.9 0.8 0
1.2 0.8 0
1.5 0.8 0
1.8 0.8 0
2.1 0.8 0
2.4 0.8 0
2.7 0.8 0
3 0.8 0
3.3 0.8 0
3.6 0.8 0
3.9 0.8 0
4.2 0.8 0
4.5 0.8 0
4.8 0.8 0
5.1 0.8 0
5.4 0.8 0
5.7 0.8 0
6 0.8 0
6.3 0.8 0
6.6 0.8 0
6.9 0.8 0
7.2 0.8 0
7.5 0.8 0
7.8 0.8 0
8.1 0.8 0
8.4 0.8 0
8.7 0.8 0
9 0.8 0
9.3 0.8 0
9.6 0.8 0
9.9 0.8 0
10.2 0.8 0
10.5 0.8 0
10.8 0.8 0
11.1 0.8 0
11.4 0.8 0
11.7 0.8 0
12 0.8 0
12.3 0.8 0
12.6 0.8 0
12.9 0.8 0
13.2 0.8 0
13.5 0.8 0
13.8 0.8 0
14.1 0.8 0
14.4 0.8 0
14.7 0.8 0
15 0.8 0
15.3 0.8 0
15.6 0.8 0
15.9 0.8 0
16.2 0.8 0
16.5 0.8 0
16.8 0.8 0
17.1 0.8 0
17.4 0.8 0
17.7 0.8 0
18 0.8 0
18.3 0.8 0
18.6 0.8 0
18.9 0.8 0
19.2 0.8 0
19.5 0.8 0
19.8 0.8 0
20.1 0.8 0
20.4 0.8 0
20.7 0.8 0
21 0.8 0
21.3 0.8 0
21.6 0.8 0
21.9 0.8 0
22.2 0.8 0
22.5 0.8 0
22.8 0.8 0
23.1 0.8 0
23.4 0.8 0
23.7 0.8 0
24 0.8 0
24.3 0.8 0
24.6 0.8 0
24.9 0.8 0
25.2 0.8 0
25.5 0.8 0
25.8 0.8 0
26.1 0.8 0
26.4 0.8 0
26.7 0.8 0
27 0.8 0
27.3 0.8 0
27.6 0.8 0
27.9 0.8 0
28.2 0.8 0
28.5 0.8 0
28.8 0.8 0
29.1 0.8 0
29.4 0.8 0
29.7 0.8 0
30 0.8 0
30.3 0.8 0
0 0.9 0
0.3 0.9 0
0.6 0.9 0
0.9 0.9 0
1.2 0.9 0
1.5 0.9 0
1.8 0.9 0
2.1 0.9 0
2.4 0.9 0
2.7 0.9 0
3 0.9 0
3.3 0.9 0
3.6 0.9 0
3.9 0.9 0
4.2 0.9 0
4.5 0.9 0
4.8 0.9 0
5.1 0.9 0
5.4 0.9 0
5.7 0.9 0
6 0.9 0
6.3 0.9 0
6.6 0.9 0
6.9 0.9 0
7.2 0.9 0
7.5 0.9 0
7.8 0.9 0
8.1 0.9 0
8.4 0.9 0
8.7 0.9 0
9 0.9 0
9.3 0.9 0
9.6 0.9 0
9.9 0.9 0
10.2 0.9 0
10.5 0.9 0
10.8 0.9 0
11.1 0.9 0
11.4 0.9 0
11.7 0.9 0
12 0.9 0
12.3 0.9 0
12.6 0.9 0
12.9 0.9 0
13.2 0.9 0
13.5 0.9 0
13.8 0.9 0
14.1 0.9 0
14.4 0.9 0
14.7 0.9 0
15 0.9 0
15.3 0.9 0
15.6 0.9 0
15.9 0.9 0
16.2 0.9 0
16.5 0.9 0
16.8 0.9 0
17.1 0.9 0
17.4 0.9 0
17.7 0.9 0
18 0.9 0
18.3 0.9 0
18.6 0.9 0
18.9 0.9 0
19.2 0.9 0
19.5 0.9 0
19.8 0.9 0
20.1 0.9 0
20.4 0.9 0
20.7 0.9 0
21 0.9 0
21.3 0.9 0
21.6 0.9 0
21.9 0.9 0
22.2 0.9 0
22.5 0.9 0
22.8 0.9 0
23.1 0.9 0
23.4 0.9 0
23.7 0.9 0
24 0.9 0
24.3 0.9 0
24.6 0.9 0
24.9 0.9 0
25.2 0.9 0
25.5 0.9 0
25.8 0.9 0
26.1 0.9 0
26.4 0.9 0
26.7 0.9 0
27 0.9 0
27.3 0.9 0
27.6 0.9 0
27.9 0.9 0
28.2 0.9 0
28.5 0.9 0
28.8 0.9 0
29.1 0.9 0
29.4 0.9 0
29.7 0.9 0
30 0.9 0
30.3 0.9 0
0 1 0
0.3 1 0
0.6 1 0
0.9 1 0
1.2 1 0
1.5 1 0
1.8 1 0
2.1 1 0
2.4 1 0
2.7 1 0
3 1 0
3.3 1 0
3.6 1 0
3.9 1 0
4.2 1 0
4.5 1 0
4.8 1 0
5.1 1 0
5.4 1 0
5.7 1 0
6 1 0
6.3 1 0
6.6 1 0
6.9 1 0
7.2 1 0
7.5 1 0
7.8 1 0
8.1 1 0
8.4 1 0
8.7 1 0
9 1 0
9.3 1 0
9.6 1 0
9.9 1 0
10.2 1 0
10.5 1 0
10.8 1 0
11.1 1 0
11.4 1 0
11.7 1 0
12 1 0
12.3 1 0
12.6 1 0
12.9 1 0
13.2 1 0
13.5 1 0
13.8 1 0
14.1 1 0
14.4 1 0
14.7 1 0
15 1 0
15.3 1 0
15.6 1 0
15.9 1 0
16.2 1 0
16.5 1 0
16.8 1 0
17.1 1 0
17.4 1 0
17.7 1 0
18 1 0
18.3 1 0
18.6 1 0
18.9 1 0
19.2 1 0
19.5 1 0
19.8 1 0
20.1 1 0
20.4 1 0
20.7 1 0
21 1 0
21.3 1 0
21.6 1 0
21.9 1 0
22.2 1 0
22.5 1 0
22.8 1 0
23.1 1 0
23.4 1 0
23.7 1 0
24 1 0
24.3 1 0
24.6 1 0
24.9 1 0
25.2 1 0
25.5 1 0
25.8 1 0
26.1 1 0
26.4 1 0
26.7 1 0
27 1 0
27.3 1 0
27.6 1 0
27.9 1 0
28.2 1 0
28.5 1 0
28.8 1 0
29.1 1 0
29.4 1 0
29.7 1 0
30 1 0
30.3 1 0
0 1.1 0
0.3 1.1 0
0.6 1.1 0
0.9 1.1 0
1.2 1.1 0
1.5 1.1 0
1.8 1.1 0
2.1 1.1 0
2.4 1.1 0
2.7 1.1 0
3 1.1 0
3.3 1.1 0
3.6 1.1 0
3.9 1.1 0
4.2 1.1 0
4.5 1.1 0
4.8 1.1 0
5.1 1.1 0
5.4 1.1 0
5.7 1.1 0
6 1.1 0
6.3 1.1 0
6.6 1.1 0
6.9 1.1 0
7.2 1.1 0
7.5 1.1 0
7.8 1.1 0
8.1 1.1 0
8.4 1.1 0
8.7 1.1 0
9 1.1 0
9.3 1.1 0
9.6 1.1 0
9.9 1.1 0
10.2 1.1 0
10.5 1.1 0
10.8 1.1 0
11.1 1.1 0
11.4 1.1 0
11.7 1.1 0
12 1.1 0
12.3 1.1 0
12.6 1.1 0
12.9 1.1 0
13.2 1.1 0
13.5 1.1 0
13.8 1.1 0
14.1 1.1 0
14.4 1.1 0
14.7 1.1 0
15 1.1 0
15.3 1.1 0
15.6 1.1 0
15.9 1.1 0
16.2 1.1 0
16.5 1.1 0
16.8 1.1 0
17.1 1.1 0
17.4 1.1 0
17.7 1.1 0
18 1.1 0
18.3 1.1 0
18.6 1.1 0
18.9 1.1 0
19.2 1.1 0
19.5 1.1 0
19.8 1.1 0
20.1 1.1 0
20.4 1.1 0
20.7 1.1 0
21 1.1 0
21.3 1.1 0
21.6 1.1 0
21.9 1.1 0
22.2 1.1 0
22.5 1.1 0
22.8 1.1 0
23.1 1.1 0
23.4 1.1 0
23.7 1.1 0
24 1.1 0
24.3 1.1 0
24.6 1.1 0
24.9 1.1 0
25.2 1.1 0
25.5 1.1 0
25.8 1.1 0
26.1 1.1 0
26.4 1.1 0
26.7 1.1 0
27 1.1 0
27.3 1.1 0
27.6 1.1 0
27.9 1.1 0
28.2 1.1 0
28.5 1.1 0
28.8 1.1 0
29.1 1.1 0
29.4 1.1 0
29.7 1.1 0
30 1.1 0
30.3 1.1 0

POINT_DATA 1224

SCALARS p double
LOOKUP_TABLE default
2.31028
2.31028
2.17991
2.09362
2.02443
1.9679
1.92032
1.87861
1.84073
1.80544
1.77203
1.74007
1.70927
1.67945
1.65044
1.62213
1.59443
1.56726
1.54057
1.5143
1.48842
1.46289
1.43766
1.4127
1.38796
1.36341
1.339
1.31469
1.29047
1.2663
1.24217
1.21806
1.19397
1.16989
1.14582
1.12175
1.09768
1.07361
1.04954
1.02548
1.00141
0.977342
0.953275
0.929208
0.905141
0.881074
0.857007
0.83294
0.808874
0.784807
0.76074
0.736673
0.712606
0.688539
0.664472
0.640405
0.616338
0.592271
0.568204
0.544137
0.52007
0.496003
0.471936
0.447869
0.423802
0.399735
0.375668
0.351601
0.327534
0.303467
0.2794
0.255333
0.231267
0.2072
0.183133
0.159066
0.134999
0.110932
0.0868648
0.0627979
0.0387309
0.014664
-0.00940295
-0.0334699
-0.0575368
-0.0816038
-0.105671
-0.129738
-0.153805
-0.177872
-0.201938
-0.226005
-0.250072
-0.274139
-0.298206
-0.322273
-0.34634
-0.370407
-0.394474
-0.418541
-0.442593
0.442593
2.31028
2.31028
2.17991
2.09362
2.02443
1.9679
1.92032
1.87861
1.84073
1.80544
1.77203
1.74007
1.70927
1.67945
1.65044
1.62213
1.59443
1.56726
1.54057
1.5143
1.48842
1.46289
1.43766
1.4127
1.38796
1.36341
1.339
1.31469
1.29047
1.2663
1.24217
1.21806
1.19397
1.16989
1.14582
1.12175
1.09768
1.07361
1.04954
1.02548
1.00141
0.977342
0.953275
0.929208
0.905141
0.881074
0.857007
0.83294
0.808874
0.784807
0.76074
0.736673
0.712606
0.688539
0.664472
0.640405
0.616338
0.592271
0.568204
0.544137
0.52007
0.496003
0.471936
0.447869
0.423802
0.399735
0.375668
0.351601
0.327534
0.303467
0.2794
0.255333
0.231267
0.2072
0.183133
0.159066
0.134999
0.110932
0.0868648
0.0627979
0.0387309
0.014664
-0.00940295
-0.0334699
-0.0575368
-0.0816038
-0.105671
-0.129738
-0.153805
-0.177872
-0.201938
-0.226005
-0.250072
-0.274139
-0.298206
-0.322273
-0.34634
-0.370407
-0.394474
-0.418541
-0.442593
0.442593
2.27205
2.27205
2.17808
2.09555
2.02649
1.96943
1.92134
1.87927
1.84117
1.80574
1.77225
1.74024
1.70941
1.67956
1.65054
1.62221
1.5945
1.56732
1.54061
1.51434
1.48845
1.46291
1.43768
1.41271
1.38797
1.36341
1.339
1.31469
1.29047
1.2663
1.24217
1.21806
1.19397
1.16989
1.14582
1.12175
1.09768
1.07361
1.04954
1.02548
1.00141
0.977342
0.953275
0.929208
0.905141
0.881074
0.857007
0.83294
0.808874
0.784807
0.76074
0.736673
0.712606
0.688539
0.664472
0.640405
0.616338
0.592271
0.568204
0.544137
0.52007
0.496003
0.471936
0.447869
0.423802
0.399735
0.375668
0.351601
0.327534
0.303467
0.2794
0.255333
0.231267
0.2072
0.183133
0.159066
0.134999
0.110932
0.0868648
0.0627979
0.0387309
0.014664
-0.00940295
-0.0334699
-0.0575368
-0.0816038
-0.105671
-0.129738
-0.153805
-0.177872
-0.201938
-0.226005
-0.250072
-0.274139
-0.298206
-0.322273
-0.34634
-0.370407
-0.394474
-0.418541
-0.442593
0.442593
2.2449
2.2449
2.17524
2.09835
2.02976
1.97189
1.92293
1.88025
1.84177
1.80613
1.77252
1.74043
1.70956
1.67968
1.65063
1.62229
1.59456
1.56737
1.54065
1.51437
1.48848
1.46293
1.43769
1.41272
1.38798
1.36342
1.339
1.31469
1.29047
1.2663
1.24217
1.21806
1.19397
1.16989
1.14582
1.12175
1.09768
1.07361
1.04954
1.02548
1.00141
0.977342
0.953275
0.929208
0.905141
0.881074
0.857007
0.83294
0.808874
0.784807
0.76074
0.736673
0.712606
0.688539
0.664472
0.640405
0.616338
0.592271
0.568204
0.544137
0.52007
0.496003
0.471936
0.447869
0.423802
0.399735
0.375668
0.351601
0.327534
0.303467
0.2794
0.255333
0.231267
0.2072
0.183133
0.159066
0.134999
0.110932
0.0868648
0.0627979
0.0387309
0.014664
-0.00940295
-0.0334699
-0.0575368
-0.0816038
-0.105671
-0.129738
-0.153805
-0.177872
-0.201938
-0.226005
-0.250072
-0.274139
-0.298206
-0.322273
-0.34634
-0.370406
-0.394473
-0.418537
-0.44259
0.44259
2.22851
2.22851
2.17284
2.10057
2.03263
1.97419
1.9245
1.88127
1.84243
1.80657
1.77283
1.74066
1.70974
1.67982
1.65074
1.62238
1.59464
1.56743
1.54071
1.51442
1.48851
1.46296
1.43772
1.41274
1.38799
1.36343
1.33901
1.3147
1.29047
1.2663
1.24217
1.21806
1.19397
1.16989
1.14582
1.12175
1.09768
1.07361
1.04954
1.02548
1.00141
0.977342
0.953275
0.929208
0.905141
0.881074
0.857007
0.83294
0.808874
0.784807
0.76074
0.736673
0.712606
0.688539
0.664472
0.640405
0.616338
0.592271
0.568204
0.544137
0.52007
0.496003
0.471936
0.447869
0.423802
0.399735
0.375668
0.351601
0.327534
0.303467
0.2794
0.255333
0.231267
0.2072
0.183133
0.159066
0.134999
0.110932
0.0868648
0.0627979
0.0387309
0.014664
-0.00940295
-0.0334699
-0.0575368
-0.0816038
-0.105671
-0.129738
-0.153805
-0.177872
-0.201938
-0.226005
-0.250072
-0.274139
-0.298206
-0.322273
-0.34634
-0.370406
-0.394471
-0.418527
-0.442586
0.442586
2.22085
2.22085
2.17154
2.10174
2.03422
1.97551
1.92544
1.88189
1.84285
1.80686
1.77304
1.74082
1.70986
1.67992
1.65083
1.62245
1.59469
1.56748
1.54075
1.51445
1.48855
1.46299
1.43774
1.41276
1.38801
1.36344
1.33902
1.31471
1.29048
1.2663
1.24217
1.21806
1.19397
1.16989
1.14582
1.12175
1.09768
1.07361
1.04954
1.02548
1.00141
0.977342
0.953275
0.929208
0.905141
0.881074
0.857007
0.83294
0.808874
0.784807
0.76074
0.736673
0.712606
0.688539
0.664472
0.640405
0.616338
0.592271
0.568204
0.544137
0.52007
0.496003
0.471936
0.447869
0.423802
0.399735
0.375668
0.351601
0.327534
0.303467
0.2794
0.255333
0.231267
0.2072
0.183133
0.159066
0.134999
0.110932
0.0868648
0.0627979
0.0387309
0.014664
-0.00940295
-0.0334699
-0.0575368
-0.0816038
-0.105671
-0.129738
-0.153805
-0.177872
-0.201938
-0.226005
-0.250072
-0.274139
-0.298206
-0.322273
-0.34634
-0.370406
-0.39447
-0.418518
-0.442583
0.442583
2.22085
2.22085
2.17154
2.10174
2.03422
1.97551
1.92544
1.88189
1.84285
1.80686
1.77304
1.74082
1.70986
1.67992
1.65083
1.62245
1.59469
1.56748
1.54075
1.51445
1.48855
1.46299
1.43774
1.41276
1.38801
1.36344
1.33902
1.31471
1.29048
1.2663
1.24217
1.21806
1.19397
1.16989
1.14582
1.12175
1.09768
1.07361
1.04954
1.02548
1.00141
0.977342
0.953275
0.929208
0.905141
0.881074
0.857007
0.83294
0.808874
0.784807
0.76074
0.736673
0.712606
0.688539
0.664472
0.640405
0.616338
0.592271
0.568204
0.544137
0.52007
0.496003
0.471936
0.447869
0.423802
0.399735
0.375668
0.351601
0.327534
0.303467
0.2794
0.255333
0.231267
0.2072
0.183133
0.159066
0.134999
0.110932
0.0868648
0.0627979
0.0387309
0.014664
-0.00940295
-0.0334699
-0.0575368
-0.0816038
-0.105671
-0.129738
-0.153805
-0.177872
-0.201938
-0.226005
-0.250072
-0.274139
-0.298206
-0.322273
-0.34634
-0.370406
-0.39447
-0.418518
-0.442583
0.442583
2.22851
2.22851
2.17284
2.10057
2.03263
1.97419
1.9245
1.88127
1.84243
1.80657
1.77283
1.74066
1.70974
1.67982
1.65074
1.62238
1.59464
1.56743
1.54071
1.51442
1.48851
1.46296
1.43772
1.41274
1.38799
1.36343
1.33901
1.3147
1.29047
1.2663
1.24217
1.21806
1.19397
1.16989
1.14582
1.12175
1.09768
1.07361
1.04954
1.02548
1.00141
0.977342
0.953275
0.929208
0.905141
0.881074
0.857007
0.83294
0.808874
0.784807
0.76074
0.736673
0.712606
0.688539
0.664472
0.640405
0.616338
0.592271
0.568204
0.544137
0.52007
0.496003
0.471936
0.447869
0.423802
0.399735
0.375668
0.351601
0.327534
0.303467
0.2794
0.255333
0.231267
0.2072
0.183133
0.159066
0.134999
0.110932
0.0868648
0.0627979
0.0387309
0.014664
-0.00940295
-0.0334699
-0.0575368
-0.0816038
-0.105671
-0.129738
-0.153805
-0.177872
-0.201938
-0.226005
-0.250072
-0.274139
-0.298206
-0.322273
-0.34634
-0.370406
-0.394471
-0.418527
-0.442586
0.442586
2.2449
2.2449
2.17524
2.09835
2.02976
1.97189
1.92293
1.88025
1.84177
1.80613
1.77252
1.74043
1.70956
1.67968
1.65063
1.62229
1.59456
1.56737
1.54065
1.51437
1.48848
1.46293
1.43769
1.41272
1.38798
1.36342
1.339
1.31469
1.29047
1.2663
1.24217
1.21806
1.19397
1.16989
1.14582
1.12175
1.09768
1.07361
1.04954
1.02548
1.00141
0.977342
0.953275
0.929208
0.905141
0.881074
0.857007
0.83294
0.808874
0.784807
0.76074
0.736673
0.712606
0.688539
0.664472
0.640405
0.616338
0.592271
0.568204
0.544137
0.52007
0.496003
0.471936
0.447869
0.423802
0.399735
0.375668
0.351601
0.327534
0.303467
0.2794
0.255333
0.231267
0.2072
0.183133
0.159066
0.134999
0.110932
0.0868648
0.0627979
0.0387309
0.014664
-0.00940295
-0.0334699
-0.0575368
-0.0816038
-0.105671
-0.129738
-0.153805
-0.177872
-0.201938
-0.226005
-0.250072
-0.274139
-0.298206
-0.322273
-0.34634
-0.370406
-0.394473
-0.418537
-0.44259
0.44259
2.27205
2.27205
2.17808
2.09555
2.02649
1.96943
1.92134
1.87927
1.84117
1.80574
1.77225
1.74024
1.70941
1.67956
1.65054
1.62221
1.5945
1.56732
1.54061
1.51434
1.48845
1.46291
1.43768
1.41271
1.38797
1.36341
1.339
1.31469
1.29047
1.2663
1.24217
1.21806
1.19397
1.16989
1.14582
1.12175
1.09768
1.07361
1.04954
1.02548
1.00141
0.977342
0.953275
0.929208
0.905141
0.881074
0.857007
0.83294
0.808874
0.784807
0.76074
0.736673
0.712606
0.688539
0.664472
0.640405
0.616338
0.592271
0.568204
0.544137
0.52007
0.496003
0.471936
0.447869
0.423802
0.399735
0.375668
0.351601
0.327534
0.303467
0.2794
0.255333
0.231267
0.2072
0.183133
0.159066
0.134999
0.110932
0.0868648
0.0627979
0.0387309
0.014664
-0.00940295
-0.0334699
-0.0575368
-0.0816038
-0.105671
-0.129738
-0.153805
-0.177872
-0.201938
-0.226005
-0.250072
-0.274139
-0.298206
-0.322273
-0.34634
-0.370407
-0.394474
-0.418541
-0.442593
0.442593
2.31028
2.31028
2.17991
2.09362
2.02443
1.9679
1.92032
1.87861
1.84073
1.80544
1.77203
1.74007
1.70927
1.67945
1.65044
1.62213
1.59443
1.56726
1.54057
1.5143
1.48842
1.46289
1.43766
1.4127
1.38796
1.36341
1.339
1.31469
1.29047
1.2663
1.24217
1.21806
1.19397
1.16989
1.14582
1.12175
1.09768
1.07361
1.04954
1.02548
1.00141
0.977342
0.953275
0.929208
0.905141
0.881074
0.857007
0.83294
0.808874
0.784807
0.76074
0.736673
0.712606
0.688539
0.664472
0.640405
0.616338
0.592271
0.568204
0.544137
0.52007
0.496003
0.471936
0.447869
0.423802
0.399735
0.375668
0.351601
0.327534
0.303467
0.2794
0.255333
0.231267
0.2072
0.183133
0.159066
0.134999
0.110932
0.0868648
0.0627979
0.0387309
0.014664
-0.00940295
-0.0334699
-0.0575368
-0.0816038
-0.105671
-0.129738
-0.153805
-0.177872
-0.201938
-0.226005
-0.250072
-0.274139
-0.298206
-0.322273
-0.34634
-0.370407
-0.394474
-0.418541
-0.442593
0.442593
2.31028
2.31028
2.17991
2.09362
2.02443
1.9679
1.92032
1.87861
1.84073
1.80544
1.77203
1.74007
1.70927
1.67945
1.65044
1.62213
1.59443
1.56726
1.54057
1.5143
1.48842
1.46289
1.43766
1.4127
1.38796
1.36341
1.339
1.31469
1.29047
1.2663
1.24217
1.21806
1.19397
1.16989
1.14582
1.12175
1.09768
1.07361
1.04954
1.02548
1.00141
0.977342
0.953275
0.929208
0.905141
0.881074
0.857007
0.83294
0.808874
0.784807
0.76074
0.736673
0.712606
0.688539
0.664472
0.640405
0.616338
0.592271
0.568204
0.544137
0.52007
0.496003
0.471936
0.447869
0.423802
0.399735
0.375668
0.351601
0.327534
0.303467
0.2794
0.255333
0.231267
0.2072
0.183133
0.159066
0.134999
0.110932
0.0868648
0.0627979
0.0387309
0.014664
-0.00940295
-0.0334699
-0.0575368
-0.0816038
-0.105671
-0.129738
-0.153805
-0.177872
-0.201938
-0.226005
-0.250072
-0.274139
-0.298206
-0.322273
-0.34634
-0.370407
-0.394474
-0.418541
-0.442593
0.442593
