# vtk DataFile Version 2.0
FlowField
ASCII
DATASET STRUCTURED_GRID
DIMENSIONS 102 12 1 
POINTS 1224 double
0 0 0
0.3 0 0
0.6 0 0
0.9 0 0
1.2 0 0
1.5 0 0
1.8 0 0
2.1 0 0
2.4 0 0
2.7 0 0
3 0 0
3.3 0 0
3.6 0 0
3.9 0 0
4.2 0 0
4.5 0 0
4.8 0 0
5.1 0 0
5.4 0 0
5.7 0 0
6 0 0
6.3 0 0
6.6 0 0
6.9 0 0
7.2 0 0
7.5 0 0
7.8 0 0
8.1 0 0
8.4 0 0
8.7 0 0
9 0 0
9.3 0 0
9.6 0 0
9.9 0 0
10.2 0 0
10.5 0 0
10.8 0 0
11.1 0 0
11.4 0 0
11.7 0 0
12 0 0
12.3 0 0
12.6 0 0
12.9 0 0
13.2 0 0
13.5 0 0
13.8 0 0
14.1 0 0
14.4 0 0
14.7 0 0
15 0 0
15.3 0 0
15.6 0 0
15.9 0 0
16.2 0 0
16.5 0 0
16.8 0 0
17.1 0 0
17.4 0 0
17.7 0 0
18 0 0
18.3 0 0
18.6 0 0
18.9 0 0
19.2 0 0
19.5 0 0
19.8 0 0
20.1 0 0
20.4 0 0
20.7 0 0
21 0 0
21.3 0 0
21.6 0 0
21.9 0 0
22.2 0 0
22.5 0 0
22.8 0 0
23.1 0 0
23.4 0 0
23.7 0 0
24 0 0
24.3 0 0
24.6 0 0
24.9 0 0
25.2 0 0
25.5 0 0
25.8 0 0
26.1 0 0
26.4 0 0
26.7 0 0
27 0 0
27.3 0 0
27.6 0 0
27.9 0 0
28.2 0 0
28.5 0 0
28.8 0 0
29.1 0 0
29.4 0 0
29.7 0 0
30 0 0
30.3 0 0
0 0.1 0
0.3 0.1 0
0.6 0.1 0
0.9 0.1 0
1.2 0.1 0
1.5 0.1 0
1.8 0.1 0
2.1 0.1 0
2.4 0.1 0
2.7 0.1 0
3 0.1 0
3.3 0.1 0
3.6 0.1 0
3.9 0.1 0
4.2 0.1 0
4.5 0.1 0
4.8 0.1 0
5.1 0.1 0
5.4 0.1 0
5.7 0.1 0
6 0.1 0
6.3 0.1 0
6.6 0.1 0
6.9 0.1 0
7.2 0.1 0
7.5 0.1 0
7.8 0.1 0
8.1 0.1 0
8.4 0.1 0
8.7 0.1 0
9 0.1 0
9.3 0.1 0
9.6 0.1 0
9.9 0.1 0
10.2 0.1 0
10.5 0.1 0
10.8 0.1 0
11.1 0.1 0
11.4 0.1 0
11.7 0.1 0
12 0.1 0
12.3 0.1 0
12.6 0.1 0
12.9 0.1 0
13.2 0.1 0
13.5 0.1 0
13.8 0.1 0
14.1 0.1 0
14.4 0.1 0
14.7 0.1 0
15 0.1 0
15.3 0.1 0
15.6 0.1 0
15.9 0.1 0
16.2 0.1 0
16.5 0.1 0
16.8 0.1 0
17.1 0.1 0
17.4 0.1 0
17.7 0.1 0
18 0.1 0
18.3 0.1 0
18.6 0.1 0
18.9 0.1 0
19.2 0.1 0
19.5 0.1 0
19.8 0.1 0
20.1 0.1 0
20.4 0.1 0
20.7 0.1 0
21 0.1 0
21.3 0.1 0
21.6 0.1 0
21.9 0.1 0
22.2 0.1 0
22.5 0.1 0
22.8 0.1 0
23.1 0.1 0
23.4 0.1 0
23.7 0.1 0
24 0.1 0
24.3 0.1 0
24.6 0.1 0
24.9 0.1 0
25.2 0.1 0
25.5 0.1 0
25.8 0.1 0
26.1 0.1 0
26.4 0.1 0
26.7 0.1 0
27 0.1 0
27.3 0.1 0
27.6 0.1 0
27.9 0.1 0
28.2 0.1 0
28.5 0.1 0
28.8 0.1 0
29.1 0.1 0
29.4 0.1 0
29.7 0.1 0
30 0.1 0
30.3 0.1 0
0 0.2 0
0.3 0.2 0
0.6 0.2 0
0.9 0.2 0
1.2 0.2 0
1.5 0.2 0
1.8 0.2 0
2.1 0.2 0
2.4 0.2 0
2.7 0.2 0
3 0.2 0
3.3 0.2 0
3.6 0.2 0
3.9 0.2 0
4.2 0.2 0
4.5 0.2 0
4.8 0.2 0
5.1 0.2 0
5.4 0.2 0
5.7 0.2 0
6 0.2 0
6.3 0.2 0
6.6 0.2 0
6.9 0.2 0
7.2 0.2 0
7.5 0.2 0
7.8 0.2 0
8.1 0.2 0
8.4 0.2 0
8.7 0.2 0
9 0.2 0
9.3 0.2 0
9.6 0.2 0
9.9 0.2 0
10.2 0.2 0
10.5 0.2 0
10.8 0.2 0
11.1 0.2 0
11.4 0.2 0
11.7 0.2 0
12 0.2 0
12.3 0.2 0
12.6 0.2 0
12.9 0.2 0
13.2 0.2 0
13.5 0.2 0
13.8 0.2 0
14.1 0.2 0
14.4 0.2 0
14.7 0.2 0
15 0.2 0
15.3 0.2 0
15.6 0.2 0
15.9 0.2 0
16.2 0.2 0
16.5 0.2 0
16.8 0.2 0
17.1 0.2 0
17.4 0.2 0
17.7 0.2 0
18 0.2 0
18.3 0.2 0
18.6 0.2 0
18.9 0.2 0
19.2 0.2 0
19.5 0.2 0
19.8 0.2 0
20.1 0.2 0
20.4 0.2 0
20.7 0.2 0
21 0.2 0
21.3 0.2 0
21.6 0.2 0
21.9 0.2 0
22.2 0.2 0
22.5 0.2 0
22.8 0.2 0
23.1 0.2 0
23.4 0.2 0
23.7 0.2 0
24 0.2 0
24.3 0.2 0
24.6 0.2 0
24.9 0.2 0
25.2 0.2 0
25.5 0.2 0
25.8 0.2 0
26.1 0.2 0
26.4 0.2 0
26.7 0.2 0
27 0.2 0
27.3 0.2 0
27.6 0.2 0
27.9 0.2 0
28.2 0.2 0
28.5 0.2 0
28.8 0.2 0
29.1 0.2 0
29.4 0.2 0
29.7 0.2 0
30 0.2 0
30.3 0.2 0
0 0.3 0
0.3 0.3 0
0.6 0.3 0
0.9 0.3 0
1.2 0.3 0
1.5 0.3 0
1.8 0.3 0
2.1 0.3 0
2.4 0.3 0
2.7 0.3 0
3 0.3 0
3.3 0.3 0
3.6 0.3 0
3.9 0.3 0
4.2 0.3 0
4.5 0.3 0
4.8 0.3 0
5.1 0.3 0
5.4 0.3 0
5.7 0.3 0
6 0.3 0
6.3 0.3 0
6.6 0.3 0
6.9 0.3 0
7.2 0.3 0
7.5 0.3 0
7.8 0.3 0
8.1 0.3 0
8.4 0.3 0
8.7 0.3 0
9 0.3 0
9.3 0.3 0
9.6 0.3 0
9.9 0.3 0
10.2 0.3 0
10.5 0.3 0
10.8 0.3 0
11.1 0.3 0
11.4 0.3 0
11.7 0.3 0
12 0.3 0
12.3 0.3 0
12.6 0.3 0
12.9 0.3 0
13.2 0.3 0
13.5 0.3 0
13.8 0.3 0
14.1 0.3 0
14.4 0.3 0
14.7 0.3 0
15 0.3 0
15.3 0.3 0
15.6 0.3 0
15.9 0.3 0
16.2 0.3 0
16.5 0.3 0
16.8 0.3 0
17.1 0.3 0
17.4 0.3 0
17.7 0.3 0
18 0.3 0
18.3 0.3 0
18.6 0.3 0
18.9 0.3 0
19.2 0.3 0
19.5 0.3 0
19.8 0.3 0
20.1 0.3 0
20.4 0.3 0
20.7 0.3 0
21 0.3 0
21.3 0.3 0
21.6 0.3 0
21.9 0.3 0
22.2 0.3 0
22.5 0.3 0
22.8 0.3 0
23.1 0.3 0
23.4 0.3 0
23.7 0.3 0
24 0.3 0
24.3 0.3 0
24.6 0.3 0
24.9 0.3 0
25.2 0.3 0
25.5 0.3 0
25.8 0.3 0
26.1 0.3 0
26.4 0.3 0
26.7 0.3 0
27 0.3 0
27.3 0.3 0
27.6 0.3 0
27.9 0.3 0
28.2 0.3 0
28.5 0.3 0
28.8 0.3 0
29.1 0.3 0
29.4 0.3 0
29.7 0.3 0
30 0.3 0
30.3 0.3 0
0 0.4 0
0.3 0.4 0
0.6 0.4 0
0.9 0.4 0
1.2 0.4 0
1.5 0.4 0
1.8 0.4 0
2.1 0.4 0
2.4 0.4 0
2.7 0.4 0
3 0.4 0
3.3 0.4 0
3.6 0.4 0
3.9 0.4 0
4.2 0.4 0
4.5 0.4 0
4.8 0.4 0
5.1 0.4 0
5.4 0.4 0
5.7 0.4 0
6 0.4 0
6.3 0.4 0
6.6 0.4 0
6.9 0.4 0
7.2 0.4 0
7.5 0.4 0
7.8 0.4 0
8.1 0.4 0
8.4 0.4 0
8.7 0.4 0
9 0.4 0
9.3 0.4 0
9.6 0.4 0
9.9 0.4 0
10.2 0.4 0
10.5 0.4 0
10.8 0.4 0
11.1 0.4 0
11.4 0.4 0
11.7 0.4 0
12 0.4 0
12.3 0.4 0
12.6 0.4 0
12.9 0.4 0
13.2 0.4 0
13.5 0.4 0
13.8 0.4 0
14.1 0.4 0
14.4 0.4 0
14.7 0.4 0
15 0.4 0
15.3 0.4 0
15.6 0.4 0
15.9 0.4 0
16.2 0.4 0
16.5 0.4 0
16.8 0.4 0
17.1 0.4 0
17.4 0.4 0
17.7 0.4 0
18 0.4 0
18.3 0.4 0
18.6 0.4 0
18.9 0.4 0
19.2 0.4 0
19.5 0.4 0
19.8 0.4 0
20.1 0.4 0
20.4 0.4 0
20.7 0.4 0
21 0.4 0
21.3 0.4 0
21.6 0.4 0
21.9 0.4 0
22.2 0.4 0
22.5 0.4 0
22.8 0.4 0
23.1 0.4 0
23.4 0.4 0
23.7 0.4 0
24 0.4 0
24.3 0.4 0
24.6 0.4 0
24.9 0.4 0
25.2 0.4 0
25.5 0.4 0
25.8 0.4 0
26.1 0.4 0
26.4 0.4 0
26.7 0.4 0
27 0.4 0
27.3 0.4 0
27.6 0.4 0
27.9 0.4 0
28.2 0.4 0
28.5 0.4 0
28.8 0.4 0
29.1 0.4 0
29.4 0.4 0
29.7 0.4 0
30 0.4 0
30.3 0.4 0
0 0.5 0
0.3 0.5 0
0.6 0.5 0
0.9 0.5 0
1.2 0.5 0
1.5 0.5 0
1.8 0.5 0
2.1 0.5 0
2.4 0.5 0
2.7 0.5 0
3 0.5 0
3.3 0.5 0
3.6 0.5 0
3.9 0.5 0
4.2 0.5 0
4.5 0.5 0
4.8 0.5 0
5.1 0.5 0
5.4 0.5 0
5.7 0.5 0
6 0.5 0
6.3 0.5 0
6.6 0.5 0
6.9 0.5 0
7.2 0.5 0
7.5 0.5 0
7.8 0.5 0
8.1 0.5 0
8.4 0.5 0
8.7 0.5 0
9 0.5 0
9.3 0.5 0
9.6 0.5 0
9.9 0.5 0
10.2 0.5 0
10.5 0.5 0
10.8 0.5 0
11.1 0.5 0
11.4 0.5 0
11.7 0.5 0
12 0.5 0
12.3 0.5 0
12.6 0.5 0
12.9 0.5 0
13.2 0.5 0
13.5 0.5 0
13.8 0.5 0
14.1 0.5 0
14.4 0.5 0
14.7 0.5 0
15 0.5 0
15.3 0.5 0
15.6 0.5 0
15.9 0.5 0
16.2 0.5 0
16.5 0.5 0
16.8 0.5 0
17.1 0.5 0
17.4 0.5 0
17.7 0.5 0
18 0.5 0
18.3 0.5 0
18.6 0.5 0
18.9 0.5 0
19.2 0.5 0
19.5 0.5 0
19.8 0.5 0
20.1 0.5 0
20.4 0.5 0
20.7 0.5 0
21 0.5 0
21.3 0.5 0
21.6 0.5 0
21.9 0.5 0
22.2 0.5 0
22.5 0.5 0
22.8 0.5 0
23.1 0.5 0
23.4 0.5 0
23.7 0.5 0
24 0.5 0
24.3 0.5 0
24.6 0.5 0
24.9 0.5 0
25.2 0.5 0
25.5 0.5 0
25.8 0.5 0
26.1 0.5 0
26.4 0.5 0
26.7 0.5 0
27 0.5 0
27.3 0.5 0
27.6 0.5 0
27.9 0.5 0
28.2 0.5 0
28.5 0.5 0
28.8 0.5 0
29.1 0.5 0
29.4 0.5 0
29.7 0.5 0
30 0.5 0
30.3 0.5 0
0 0.6 0
0.3 0.6 0
0.6 0.6 0
0.9 0.6 0
1.2 0.6 0
1.5 0.6 0
1.8 0.6 0
2.1 0.6 0
2.4 0.6 0
2.7 0.6 0
3 0.6 0
3.3 0.6 0
3.6 0.6 0
3.9 0.6 0
4.2 0.6 0
4.5 0.6 0
4.8 0.6 0
5.1 0.6 0
5.4 0.6 0
5.7 0.6 0
6 0.6 0
6.3 0.6 0
6.6 0.6 0
6.9 0.6 0
7.2 0.6 0
7.5 0.6 0
7.8 0.6 0
8.1 0.6 0
8.4 0.6 0
8.7 0.6 0
9 0.6 0
9.3 0.6 0
9.6 0.6 0
9.9 0.6 0
10.2 0.6 0
10.5 0.6 0
10.8 0.6 0
11.1 0.6 0
11.4 0.6 0
11.7 0.6 0
12 0.6 0
12.3 0.6 0
12.6 0.6 0
12.9 0.6 0
13.2 0.6 0
13.5 0.6 0
13.8 0.6 0
14.1 0.6 0
14.4 0.6 0
14.7 0.6 0
15 0.6 0
15.3 0.6 0
15.6 0.6 0
15.9 0.6 0
16.2 0.6 0
16.5 0.6 0
16.8 0.6 0
17.1 0.6 0
17.4 0.6 0
17.7 0.6 0
18 0.6 0
18.3 0.6 0
18.6 0.6 0
18.9 0.6 0
19.2 0.6 0
19.5 0.6 0
19.8 0.6 0
20.1 0.6 0
20.4 0.6 0
20.7 0.6 0
21 0.6 0
21.3 0.6 0
21.6 0.6 0
21.9 0.6 0
22.2 0.6 0
22.5 0.6 0
22.8 0.6 0
23.1 0.6 0
23.4 0.6 0
23.7 0.6 0
24 0.6 0
24.3 0.6 0
24.6 0.6 0
24.9 0.6 0
25.2 0.6 0
25.5 0.6 0
25.8 0.6 0
26.1 0.6 0
26.4 0.6 0
26.7 0.6 0
27 0.6 0
27.3 0.6 0
27.6 0.6 0
27.9 0.6 0
28.2 0.6 0
28.5 0.6 0
28.8 0.6 0
29.1 0.6 0
29.4 0.6 0
29.7 0.6 0
30 0.6 0
30.3 0.6 0
0 0.7 0
0.3 0.7 0
0.6 0.7 0
0.9 0.7 0
1.2 0.7 0
1.5 0.7 0
1.8 0.7 0
2.1 0.7 0
2.4 0.7 0
2.7 0.7 0
3 0.7 0
3.3 0.7 0
3.6 0.7 0
3.9 0.7 0
4.2 0.7 0
4.5 0.7 0
4.8 0.7 0
5.1 0.7 0
5.4 0.7 0
5.7 0.7 0
6 0.7 0
6.3 0.7 0
6.6 0.7 0
6.9 0.7 0
7.2 0.7 0
7.5 0.7 0
7.8 0.7 0
8.1 0.7 0
8.4 0.7 0
8.7 0.7 0
9 0.7 0
9.3 0.7 0
9.6 0.7 0
9.9 0.7 0
10.2 0.7 0
10.5 0.7 0
10.8 0.7 0
11.1 0.7 0
11.4 0.7 0
11.7 0.7 0
12 0.7 0
12.3 0.7 0
12.6 0.7 0
12.9 0.7 0
13.2 0.7 0
13.5 0.7 0
13.8 0.7 0
14.1 0.7 0
14.4 0.7 0
14.7 0.7 0
15 0.7 0
15.3 0.7 0
15.6 0.7 0
15.9 0.7 0
16.2 0.7 0
16.5 0.7 0
16.8 0.7 0
17.1 0.7 0
17.4 0.7 0
17.7 0.7 0
18 0.7 0
18.3 0.7 0
18.6 0.7 0
18.9 0.7 0
19.2 0.7 0
19.5 0.7 0
19.8 0.7 0
20.1 0.7 0
20.4 0.7 0
20.7 0.7 0
21 0.7 0
21.3 0.7 0
21.6 0.7 0
21.9 0.7 0
22.2 0.7 0
22.5 0.7 0
22.8 0.7 0
23.1 0.7 0
23.4 0.7 0
23.7 0.7 0
24 0.7 0
24.3 0.7 0
24.6 0.7 0
24.9 0.7 0
25.2 0.7 0
25.5 0.7 0
25.8 0.7 0
26.1 0.7 0
26.4 0.7 0
26.7 0.7 0
27 0.7 0
27.3 0.7 0
27.6 0.7 0
27.9 0.7 0
28.2 0.7 0
28.5 0.7 0
28.8 0.7 0
29.1 0.7 0
29.4 0.7 0
29.7 0.7 0
30 0.7 0
30.3 0.7 0
0 0.8 0
0.3 0.8 0
0.6 0.8 0
0.9 0.8 0
1.2 0.8 0
1.5 0.8 0
1.8 0.8 0
2.1 0.8 0
2.4 0.8 0
2.7 0.8 0
3 0.8 0
3.3 0.8 0
3.6 0.8 0
3.9 0.8 0
4.2 0.8 0
4.5 0.8 0
4.8 0.8 0
5.1 0.8 0
5.4 0.8 0
5.7 0.8 0
6 0.8 0
6.3 0.8 0
6.6 0.8 0
6.9 0.8 0
7.2 0.8 0
7.5 0.8 0
7.8 0.8 0
8.1 0.8 0
8.4 0.8 0
8.7 0.8 0
9 0.8 0
9.3 0.8 0
9.6 0.8 0
9.9 0.8 0
10.2 0.8 0
10.5 0.8 0
10.8 0.8 0
11.1 0.8 0
11.4 0.8 0
11.7 0.8 0
12 0.8 0
12.3 0.8 0
12.6 0.8 0
12.9 0.8 0
13.2 0.8 0
13.5 0.8 0
13.8 0.8 0
14.1 0.8 0
14.4 0.8 0
14.7 0.8 0
15 0.8 0
15.3 0.8 0
15.6 0.8 0
15.9 0.8 0
16.2 0.8 0
16.5 0.8 0
16.8 0.8 0
17.1 0.8 0
17.4 0.8 0
17.7 0.8 0
18 0.8 0
18.3 0.8 0
18.6 0.8 0
18.9 0.8 0
19.2 0.8 0
19.5 0.8 0
19.8 0.8 0
20.1 0.8 0
20.4 0.8 0
20.7 0.8 0
21 0.8 0
21.3 0.8 0
21.6 0.8 0
21.9 0.8 0
22.2 0.8 0
22.5 0.8 0
22.8 0.8 0
23.1 0.8 0
23.4 0.8 0
23.7 0.8 0
24 0.8 0
24.3 0.8 0
24.6 0.8 0
24.9 0.8 0
25.2 0.8 0
25.5 0.8 0
25.8 0.8 0
26.1 0.8 0
26.4 0.8 0
26.7 0.8 0
27 0.8 0
27.3 0.8 0
27.6 0.8 0
27.9 0.8 0
28.2 0.8 0
28.5 0.8 0
28.8 0.8 0
29.1 0.8 0
29.4 0.8 0
29.7 0.8 0
30 0.8 0
30.3 0.8 0
0 0.9 0
0.3 0.9 0
0.6 0.9 0
0.9 0.9 0
1.2 0.9 0
1.5 0.9 0
1.8 0.9 0
2.1 0.9 0
2.4 0.9 0
2.7 0.9 0
3 0.9 0
3.3 0.9 0
3.6 0.9 0
3.9 0.9 0
4.2 0.9 0
4.5 0.9 0
4.8 0.9 0
5.1 0.9 0
5.4 0.9 0
5.7 0.9 0
6 0.9 0
6.3 0.9 0
6.6 0.9 0
6.9 0.9 0
7.2 0.9 0
7.5 0.9 0
7.8 0.9 0
8.1 0.9 0
8.4 0.9 0
8.7 0.9 0
9 0.9 0
9.3 0.9 0
9.6 0.9 0
9.9 0.9 0
10.2 0.9 0
10.5 0.9 0
10.8 0.9 0
11.1 0.9 0
11.4 0.9 0
11.7 0.9 0
12 0.9 0
12.3 0.9 0
12.6 0.9 0
12.9 0.9 0
13.2 0.9 0
13.5 0.9 0
13.8 0.9 0
14.1 0.9 0
14.4 0.9 0
14.7 0.9 0
15 0.9 0
15.3 0.9 0
15.6 0.9 0
15.9 0.9 0
16.2 0.9 0
16.5 0.9 0
16.8 0.9 0
17.1 0.9 0
17.4 0.9 0
17.7 0.9 0
18 0.9 0
18.3 0.9 0
18.6 0.9 0
18.9 0.9 0
19.2 0.9 0
19.5 0.9 0
19.8 0.9 0
20.1 0.9 0
20.4 0.9 0
20.7 0.9 0
21 0.9 0
21.3 0.9 0
21.6 0.9 0
21.9 0.9 0
22.2 0.9 0
22.5 0.9 0
22.8 0.9 0
23.1 0.9 0
23.4 0.9 0
23.7 0.9 0
24 0.9 0
24.3 0.9 0
24.6 0.9 0
24.9 0.9 0
25.2 0.9 0
25.5 0.9 0
25.8 0.9 0
26.1 0.9 0
26.4 0.9 0
26.7 0.9 0
27 0.9 0
27.3 0.9 0
27.6 0.9 0
27.9 0.9 0
28.2 0.9 0
28.5 0.9 0
28.8 0.9 0
29.1 0.9 0
29.4 0.9 0
29.7 0.9 0
30 0.9 0
30.3 0.9 0
0 1 0
0.3 1 0
0.6 1 0
0.9 1 0
1.2 1 0
1.5 1 0
1.8 1 0
2.1 1 0
2.4 1 0
2.7 1 0
3 1 0
3.3 1 0
3.6 1 0
3.9 1 0
4.2 1 0
4.5 1 0
4.8 1 0
5.1 1 0
5.4 1 0
5.7 1 0
6 1 0
6.3 1 0
6.6 1 0
6.9 1 0
7.2 1 0
7.5 1 0
7.8 1 0
8.1 1 0
8.4 1 0
8.7 1 0
9 1 0
9.3 1 0
9.6 1 0
9.9 1 0
10.2 1 0
10.5 1 0
10.8 1 0
11.1 1 0
11.4 1 0
11.7 1 0
12 1 0
12.3 1 0
12.6 1 0
12.9 1 0
13.2 1 0
13.5 1 0
13.8 1 0
14.1 1 0
14.4 1 0
14.7 1 0
15 1 0
15.3 1 0
15.6 1 0
15.9 1 0
16.2 1 0
16.5 1 0
16.8 1 0
17.1 1 0
17.4 1 0
17.7 1 0
18 1 0
18.3 1 0
18.6 1 0
18.9 1 0
19.2 1 0
19.5 1 0
19.8 1 0
20.1 1 0
20.4 1 0
20.7 1 0
21 1 0
21.3 1 0
21.6 1 0
21.9 1 0
22.2 1 0
22.5 1 0
22.8 1 0
23.1 1 0
23.4 1 0
23.7 1 0
24 1 0
24.3 1 0
24.6 1 0
24.9 1 0
25.2 1 0
25.5 1 0
25.8 1 0
26.1 1 0
26.4 1 0
26.7 1 0
27 1 0
27.3 1 0
27.6 1 0
27.9 1 0
28.2 1 0
28.5 1 0
28.8 1 0
29.1 1 0
29.4 1 0
29.7 1 0
30 1 0
30.3 1 0
0 1.1 0
0.3 1.1 0
0.6 1.1 0
0.9 1.1 0
1.2 1.1 0
1.5 1.1 0
1.8 1.1 0
2.1 1.1 0
2.4 1.1 0
2.7 1.1 0
3 1.1 0
3.3 1.1 0
3.6 1.1 0
3.9 1.1 0
4.2 1.1 0
4.5 1.1 0
4.8 1.1 0
5.1 1.1 0
5.4 1.1 0
5.7 1.1 0
6 1.1 0
6.3 1.1 0
6.6 1.1 0
6.9 1.1 0
7.2 1.1 0
7.5 1.1 0
7.8 1.1 0
8.1 1.1 0
8.4 1.1 0
8.7 1.1 0
9 1.1 0
9.3 1.1 0
9.6 1.1 0
9.9 1.1 0
10.2 1.1 0
10.5 1.1 0
10.8 1.1 0
11.1 1.1 0
11.4 1.1 0
11.7 1.1 0
12 1.1 0
12.3 1.1 0
12.6 1.1 0
12.9 1.1 0
13.2 1.1 0
13.5 1.1 0
13.8 1.1 0
14.1 1.1 0
14.4 1.1 0
14.7 1.1 0
15 1.1 0
15.3 1.1 0
15.6 1.1 0
15.9 1.1 0
16.2 1.1 0
16.5 1.1 0
16.8 1.1 0
17.1 1.1 0
17.4 1.1 0
17.7 1.1 0
18 1.1 0
18.3 1.1 0
18.6 1.1 0
18.9 1.1 0
19.2 1.1 0
19.5 1.1 0
19.8 1.1 0
20.1 1.1 0
20.4 1.1 0
20.7 1.1 0
21 1.1 0
21.3 1.1 0
21.6 1.1 0
21.9 1.1 0
22.2 1.1 0
22.5 1.1 0
22.8 1.1 0
23.1 1.1 0
23.4 1.1 0
23.7 1.1 0
24 1.1 0
24.3 1.1 0
24.6 1.1 0
24.9 1.1 0
25.2 1.1 0
25.5 1.1 0
25.8 1.1 0
26.1 1.1 0
26.4 1.1 0
26.7 1.1 0
27 1.1 0
27.3 1.1 0
27.6 1.1 0
27.9 1.1 0
28.2 1.1 0
28.5 1.1 0
28.8 1.1 0
29.1 1.1 0
29.4 1.1 0
29.7 1.1 0
30 1.1 0
30.3 1.1 0

POINT_DATA 1224

VECTORS velocity double
LOOKUP_TABLE default
-1 0 0
-0.905301 0 0
-0.850281 0 0
-0.831196 0 0
-0.826309 0 0
-0.825304 0 0
-0.82513 0 0
-0.825103 0 0
-0.8251 0 0
-0.8251 0 0
-0.8251 0 0
-0.8251 0 0
-0.8251 0 0
-0.825101 0 0
-0.825101 0 0
-0.825101 0 0
-0.825101 0 0
-0.825101 0 0
-0.825101 0 0
-0.825101 0 0
-0.825101 0 0
-0.825102 0 0
-0.825102 0 0
-0.825102 0 0
-0.825102 0 0
-0.825102 0 0
-0.825102 0 0
-0.825102 0 0
-0.825102 0 0
-0.825102 0 0
-0.825102 0 0
-0.825102 0 0
-0.825102 0 0
-0.825102 0 0
-0.825102 0 0
-0.825102 0 0
-0.825101 0 0
-0.825101 0 0
-0.825101 0 0
-0.825101 0 0
-0.825101 0 0
-0.825101 0 0
-0.825101 0 0
-0.8251 0 0
-0.8251 0 0
-0.8251 0 0
-0.8251 0 0
-0.8251 0 0
-0.825099 0 0
-0.825099 0 0
-0.825099 0 0
-0.825098 0 0
-0.825098 0 0
-0.825098 0 0
-0.825098 0 0
-0.825097 0 0
-0.825097 0 0
-0.825096 0 0
-0.825096 0 0
-0.825096 0 0
-0.825095 0 0
-0.825095 0 0
-0.825094 0 0
-0.825094 0 0
-0.825094 0 0
-0.825093 0 0
-0.825093 0 0
-0.825092 0 0
-0.825092 0 0
-0.825091 0 0
-0.825091 0 0
-0.82509 0 0
-0.82509 0 0
-0.825089 0 0
-0.825088 0 0
-0.825088 0 0
-0.825087 0 0
-0.825087 0 0
-0.825086 0 0
-0.825086 0 0
-0.825085 0 0
-0.825084 0 0
-0.825084 0 0
-0.825083 0 0
-0.825083 0 0
-0.825082 0 0
-0.825081 0 0
-0.825081 0 0
-0.82508 0 0
-0.825079 0 0
-0.825079 0 0
-0.825078 0 0
-0.825077 0 0
-0.825077 0 0
-0.825076 0 0
-0.825077 0 0
-0.825082 0 0
-0.825116 0 0
-0.825201 0 0
-0.826873 0 0
-0.826873 0 0
-1 0 0
1 -0.0315662 0
0.905301 0.0315662 0
0.850281 0.0183401 0
0.831196 0.00636154 0
0.826309 0.00162918 0
0.825304 0.000334935 0
0.82513 5.80437e-05 0
0.825103 8.69803e-06 0
0.8251 1.08273e-06 0
0.8251 4.23792e-08 0
0.8251 -8.16242e-08 0
0.8251 -9.18755e-08 0
0.8251 -9.21604e-08 0
0.825101 -9.24578e-08 0
0.825101 -9.31281e-08 0
0.825101 -9.40125e-08 0
0.825101 -9.50457e-08 0
0.825101 -9.6209e-08 0
0.825101 -9.74967e-08 0
0.825101 -9.89062e-08 0
0.825101 -1.00435e-07 0
0.825102 -1.02083e-07 0
0.825102 -1.03846e-07 0
0.825102 -1.05724e-07 0
0.825102 -1.07717e-07 0
0.825102 -1.09821e-07 0
0.825102 -1.1203e-07 0
0.825102 -1.14342e-07 0
0.825102 -1.16755e-07 0
0.825102 -1.19267e-07 0
0.825102 -1.21876e-07 0
0.825102 -1.24578e-07 0
0.825102 -1.27372e-07 0
0.825102 -1.30253e-07 0
0.825102 -1.3322e-07 0
0.825102 -1.36268e-07 0
0.825101 -1.39398e-07 0
0.825101 -1.4261e-07 0
0.825101 -1.45898e-07 0
0.825101 -1.49252e-07 0
0.825101 -1.52667e-07 0
0.825101 -1.56142e-07 0
0.825101 -1.59675e-07 0
0.8251 -1.63265e-07 0
0.8251 -1.66906e-07 0
0.8251 -1.70605e-07 0
0.8251 -1.74352e-07 0
0.8251 -1.78139e-07 0
0.825099 -1.81948e-07 0
0.825099 -1.85871e-07 0
0.825099 -1.89844e-07 0
0.825098 -1.93879e-07 0
0.825098 -1.97943e-07 0
0.825098 -2.01973e-07 0
0.825098 -2.05974e-07 0
0.825097 -2.09982e-07 0
0.825097 -2.14002e-07 0
0.825096 -2.18035e-07 0
0.825096 -2.22069e-07 0
0.825096 -2.26093e-07 0
0.825095 -2.30102e-07 0
0.825095 -2.34097e-07 0
0.825094 -2.3808e-07 0
0.825094 -2.42046e-07 0
0.825094 -2.45993e-07 0
0.825093 -2.49917e-07 0
0.825093 -2.53815e-07 0
0.825092 -2.57682e-07 0
0.825092 -2.61515e-07 0
0.825091 -2.6531e-07 0
0.825091 -2.69063e-07 0
0.82509 -2.72772e-07 0
0.82509 -2.76431e-07 0
0.825089 -2.80038e-07 0
0.825088 -2.83589e-07 0
0.825088 -2.8708e-07 0
0.825087 -2.90508e-07 0
0.825087 -2.93869e-07 0
0.825086 -2.97159e-07 0
0.825086 -3.00378e-07 0
0.825085 -3.03519e-07 0
0.825084 -3.06578e-07 0
0.825084 -3.09552e-07 0
0.825083 -3.12438e-07 0
0.825083 -3.15235e-07 0
0.825082 -3.17937e-07 0
0.825081 -3.20543e-07 0
0.825081 -3.2305e-07 0
0.82508 -3.25458e-07 0
0.825079 -3.27776e-07 0
0.825079 -3.3006e-07 0
0.825078 -3.32606e-07 0
0.825077 -3.36912e-07 0
0.825077 -3.50541e-07 0
0.825076 -4.1157e-07 0
0.825077 -7.18651e-07 0
0.825082 -2.13806e-06 0
0.825116 -1.20553e-05 0
0.825201 -2.86843e-05 0
0.826873 -0.000557994 0
0.826873 -0.00124477 0
1 -0.00124477 0
1 -0.022796 0
1.02631 0.022796 0
1.0333 0.016011 0
1.03404 0.00611558 0
1.03381 0.0017057 0
1.03366 0.000383795 0
1.03361 7.35574e-05 0
1.0336 1.23895e-05 0
1.0336 1.82038e-06 0
1.0336 1.80246e-07 0
1.0336 -4.95364e-08 0
1.0336 -7.7953e-08 0
1.0336 -8.09812e-08 0
1.0336 -8.1631e-08 0
1.0336 -8.23584e-08 0
1.0336 -8.32904e-08 0
1.0336 -8.43899e-08 0
1.0336 -8.56375e-08 0
1.0336 -8.70258e-08 0
1.0336 -8.85516e-08 0
1.0336 -9.02125e-08 0
1.0336 -9.20064e-08 0
1.0336 -9.39313e-08 0
1.0336 -9.5985e-08 0
1.0336 -9.81652e-08 0
1.0336 -1.00469e-07 0
1.0336 -1.02894e-07 0
1.0336 -1.05437e-07 0
1.0336 -1.08095e-07 0
1.0336 -1.10866e-07 0
1.0336 -1.13746e-07 0
1.0336 -1.16732e-07 0
1.0336 -1.19822e-07 0
1.0336 -1.23011e-07 0
1.0336 -1.26297e-07 0
1.0336 -1.29676e-07 0
1.0336 -1.33145e-07 0
1.0336 -1.36701e-07 0
1.0336 -1.40338e-07 0
1.0336 -1.44053e-07 0
1.0336 -1.47845e-07 0
1.0336 -1.51708e-07 0
1.03359 -1.5564e-07 0
1.03359 -1.59636e-07 0
1.03359 -1.63692e-07 0
1.03359 -1.67806e-07 0
1.03359 -1.71971e-07 0
1.03359 -1.76184e-07 0
1.03359 -1.8045e-07 0
1.03359 -1.84757e-07 0
1.03359 -1.89099e-07 0
1.03359 -1.93471e-07 0
1.03359 -1.97866e-07 0
1.03359 -2.02283e-07 0
1.03359 -2.06726e-07 0
1.03359 -2.1119e-07 0
1.03359 -2.15668e-07 0
1.03359 -2.20155e-07 0
1.03359 -2.24647e-07 0
1.03359 -2.29139e-07 0
1.03359 -2.33629e-07 0
1.03359 -2.38113e-07 0
1.03359 -2.42586e-07 0
1.03359 -2.47044e-07 0
1.03359 -2.51483e-07 0
1.03359 -2.55899e-07 0
1.03359 -2.60287e-07 0
1.03359 -2.64643e-07 0
1.03359 -2.68963e-07 0
1.03359 -2.73244e-07 0
1.03359 -2.7748e-07 0
1.03359 -2.81669e-07 0
1.03359 -2.85805e-07 0
1.03358 -2.89884e-07 0
1.03358 -2.93903e-07 0
1.03358 -2.97857e-07 0
1.03358 -3.01743e-07 0
1.03358 -3.05555e-07 0
1.03358 -3.09292e-07 0
1.03358 -3.12947e-07 0
1.03358 -3.16518e-07 0
1.03358 -3.2e-07 0
1.03358 -3.2339e-07 0
1.03358 -3.26685e-07 0
1.03358 -3.2988e-07 0
1.03358 -3.32972e-07 0
1.03358 -3.35957e-07 0
1.03358 -3.38834e-07 0
1.03358 -3.41603e-07 0
1.03358 -3.4428e-07 0
1.03358 -3.46955e-07 0
1.03358 -3.50093e-07 0
1.03358 -3.56045e-07 0
1.03358 -3.76667e-07 0
1.03358 -4.71699e-07 0
1.03358 -9.4407e-07 0
1.03358 -3.28592e-06 0
1.03359 -1.58954e-05 0
1.0337 -6.73525e-05 0
1.03354 -0.000502453 0
1.03354 -0.00108831 0
1 -0.00108831 0
1 -0.0138645 0
1.02679 0.0138645 0
1.04134 0.0111624 0
1.04571 0.00465945 0
1.0466 0.00140712 0
1.04673 0.000341937 0
1.04674 7.07088e-05 0
1.04674 1.28622e-05 0
1.04674 2.06905e-06 0
1.04674 2.5987e-07 0
1.04674 -1.58194e-08 0
1.04674 -5.40491e-08 0
1.04674 -5.90918e-08 0
1.04674 -6.02914e-08 0
1.04674 -6.13394e-08 0
1.04674 -6.25788e-08 0
1.04674 -6.40058e-08 0
1.04674 -6.56046e-08 0
1.04673 -6.73675e-08 0
1.04673 -6.92908e-08 0
1.04673 -7.13714e-08 0
1.04673 -7.36066e-08 0
1.04673 -7.5994e-08 0
1.04673 -7.8531e-08 0
1.04673 -8.12145e-08 0
1.04673 -8.40419e-08 0
1.04673 -8.7009e-08 0
1.04673 -9.01126e-08 0
1.04673 -9.33496e-08 0
1.04673 -9.67163e-08 0
1.04673 -1.00209e-07 0
1.04673 -1.03824e-07 0
1.04673 -1.07557e-07 0
1.04673 -1.11405e-07 0
1.04673 -1.15364e-07 0
1.04673 -1.19429e-07 0
1.04673 -1.23597e-07 0
1.04673 -1.27864e-07 0
1.04673 -1.32223e-07 0
1.04673 -1.36671e-07 0
1.04673 -1.41205e-07 0
1.04673 -1.45821e-07 0
1.04673 -1.50514e-07 0
1.04673 -1.5528e-07 0
1.04673 -1.60113e-07 0
1.04673 -1.65008e-07 0
1.04673 -1.69961e-07 0
1.04673 -1.74969e-07 0
1.04673 -1.80031e-07 0
1.04673 -1.85132e-07 0
1.04673 -1.90271e-07 0
1.04673 -1.95441e-07 0
1.04673 -2.00636e-07 0
1.04673 -2.0586e-07 0
1.04673 -2.11111e-07 0
1.04673 -2.16382e-07 0
1.04673 -2.21665e-07 0
1.04673 -2.26954e-07 0
1.04673 -2.32245e-07 0
1.04673 -2.37534e-07 0
1.04673 -2.42817e-07 0
1.04673 -2.48089e-07 0
1.04673 -2.53344e-07 0
1.04672 -2.58577e-07 0
1.04672 -2.63783e-07 0
1.04672 -2.68958e-07 0
1.04672 -2.74096e-07 0
1.04672 -2.79193e-07 0
1.04672 -2.84244e-07 0
1.04672 -2.89244e-07 0
1.04672 -2.94187e-07 0
1.04672 -2.9907e-07 0
1.04672 -3.03887e-07 0
1.04672 -3.08634e-07 0
1.04672 -3.13305e-07 0
1.04672 -3.17897e-07 0
1.04672 -3.22403e-07 0
1.04672 -3.2682e-07 0
1.04672 -3.31143e-07 0
1.04672 -3.35368e-07 0
1.04672 -3.39488e-07 0
1.04672 -3.43502e-07 0
1.04672 -3.47403e-07 0
1.04672 -3.51189e-07 0
1.04672 -3.54854e-07 0
1.04672 -3.58394e-07 0
1.04672 -3.61806e-07 0
1.04672 -3.65088e-07 0
1.04671 -3.68238e-07 0
1.04671 -3.71272e-07 0
1.04671 -3.7428e-07 0
1.04671 -3.77712e-07 0
1.04671 -3.83853e-07 0
1.04671 -4.04207e-07 0
1.04671 -4.96694e-07 0
1.04671 -9.52455e-07 0
1.04671 -3.22242e-06 0
1.04671 -1.45549e-05 0
1.0467 -6.65904e-05 0
1.04622 -0.000341045 0
1.04622 -0.000734634 0
1 -0.000734634 0
1 -0.00653967 0
1.02197 0.00653967 0
1.0384 0.0056882 0
1.04489 0.00249657 0
1.04675 0.000786956 0
1.04718 0.000198903 0
1.04726 4.26641e-05 0
1.04727 8.02949e-06 0
1.04728 1.33462e-06 0
1.04728 1.75437e-07 0
1.04728 -6.7472e-09 0
1.04728 -3.30166e-08 0
1.04728 -3.69693e-08 0
1.04728 -3.83445e-08 0
1.04728 -3.96932e-08 0
1.04728 -4.12564e-08 0
1.04728 -4.30287e-08 0
1.04728 -4.49959e-08 0
1.04728 -4.71508e-08 0
1.04728 -4.94892e-08 0
1.04728 -5.20076e-08 0
1.04727 -5.47027e-08 0
1.04727 -5.75714e-08 0
1.04727 -6.06109e-08 0
1.04727 -6.38177e-08 0
1.04727 -6.71891e-08 0
1.04727 -7.07193e-08 0
1.04727 -7.44045e-08 0
1.04727 -7.82412e-08 0
1.04727 -8.22252e-08 0
1.04727 -8.6352e-08 0
1.04727 -9.06173e-08 0
1.04727 -9.50166e-08 0
1.04727 -9.95455e-08 0
1.04727 -1.04199e-07 0
1.04727 -1.08973e-07 0
1.04727 -1.13863e-07 0
1.04727 -1.18864e-07 0
1.04727 -1.23969e-07 0
1.04727 -1.29173e-07 0
1.04727 -1.34474e-07 0
1.04727 -1.39866e-07 0
1.04727 -1.45344e-07 0
1.04727 -1.50902e-07 0
1.04727 -1.56535e-07 0
1.04727 -1.62236e-07 0
1.04727 -1.68001e-07 0
1.04727 -1.73826e-07 0
1.04727 -1.79706e-07 0
1.04727 -1.85632e-07 0
1.04727 -1.916e-07 0
1.04727 -1.97605e-07 0
1.04727 -2.03639e-07 0
1.04727 -2.09701e-07 0
1.04727 -2.15787e-07 0
1.04727 -2.21888e-07 0
1.04727 -2.27999e-07 0
1.04727 -2.34114e-07 0
1.04727 -2.40227e-07 0
1.04727 -2.46335e-07 0
1.04727 -2.52431e-07 0
1.04727 -2.58509e-07 0
1.04727 -2.64564e-07 0
1.04727 -2.7059e-07 0
1.04726 -2.76581e-07 0
1.04726 -2.82532e-07 0
1.04726 -2.88437e-07 0
1.04726 -2.9429e-07 0
1.04726 -3.00086e-07 0
1.04726 -3.05819e-07 0
1.04726 -3.11483e-07 0
1.04726 -3.17073e-07 0
1.04726 -3.22584e-07 0
1.04726 -3.2801e-07 0
1.04726 -3.33345e-07 0
1.04726 -3.38584e-07 0
1.04726 -3.43721e-07 0
1.04726 -3.48751e-07 0
1.04726 -3.5367e-07 0
1.04726 -3.5847e-07 0
1.04726 -3.63148e-07 0
1.04726 -3.67699e-07 0
1.04726 -3.72117e-07 0
1.04726 -3.76397e-07 0
1.04726 -3.80535e-07 0
1.04726 -3.84527e-07 0
1.04726 -3.88368e-07 0
1.04726 -3.92054e-07 0
1.04726 -3.95584e-07 0
1.04725 -3.98966e-07 0
1.04725 -4.02253e-07 0
1.04725 -4.05722e-07 0
1.04725 -4.10761e-07 0
1.04725 -4.24354e-07 0
1.04725 -4.81641e-07 0
1.04725 -7.58883e-07 0
1.04725 -2.13179e-06 0
1.04723 -8.79605e-06 0
1.04715 -3.95884e-05 0
1.04664 -0.000171505 0
1.04664 -0.000367929 0
1 -0.000367929 0
1 -2.46258e-07 0
1.01962 2.46258e-07 0
1.03668 -2.57157e-07 0
1.04418 -6.27156e-07 0
1.04654 -5.24649e-07 0
1.04714 -2.95714e-07 0
1.04726 -1.38415e-07 0
1.04729 -6.19114e-08 0
1.04729 -3.04721e-08 0
1.04729 -1.87863e-08 0
1.04729 -1.50696e-08 0
1.04729 -1.44687e-08 0
1.04729 -1.51376e-08 0
1.04729 -1.64059e-08 0
1.04729 -1.80289e-08 0
1.04729 -1.9917e-08 0
1.04729 -2.20363e-08 0
1.04729 -2.43732e-08 0
1.04729 -2.69208e-08 0
1.04729 -2.9675e-08 0
1.04729 -3.26318e-08 0
1.04729 -3.57873e-08 0
1.04729 -3.91379e-08 0
1.04729 -4.26807e-08 0
1.04729 -4.64113e-08 0
1.04729 -5.03276e-08 0
1.04729 -5.44215e-08 0
1.04729 -5.86889e-08 0
1.04729 -6.31261e-08 0
1.04729 -6.77281e-08 0
1.04729 -7.24897e-08 0
1.04729 -7.7406e-08 0
1.04729 -8.2472e-08 0
1.04729 -8.76824e-08 0
1.04729 -9.3032e-08 0
1.04729 -9.85155e-08 0
1.04729 -1.04128e-07 0
1.04729 -1.09864e-07 0
1.04729 -1.15715e-07 0
1.04729 -1.21677e-07 0
1.04729 -1.27744e-07 0
1.04729 -1.33913e-07 0
1.04729 -1.40177e-07 0
1.04729 -1.46528e-07 0
1.04729 -1.52961e-07 0
1.04729 -1.59469e-07 0
1.04729 -1.66047e-07 0
1.04729 -1.72689e-07 0
1.04729 -1.79389e-07 0
1.04729 -1.8614e-07 0
1.04729 -1.9294e-07 0
1.04729 -1.9978e-07 0
1.04728 -2.06655e-07 0
1.04728 -2.13557e-07 0
1.04728 -2.20477e-07 0
1.04728 -2.2741e-07 0
1.04728 -2.3435e-07 0
1.04728 -2.41291e-07 0
1.04728 -2.48227e-07 0
1.04728 -2.55154e-07 0
1.04728 -2.62063e-07 0
1.04728 -2.68949e-07 0
1.04728 -2.75805e-07 0
1.04728 -2.82624e-07 0
1.04728 -2.894e-07 0
1.04728 -2.96127e-07 0
1.04728 -3.02799e-07 0
1.04728 -3.09408e-07 0
1.04728 -3.15949e-07 0
1.04728 -3.22416e-07 0
1.04728 -3.28802e-07 0
1.04728 -3.351e-07 0
1.04728 -3.41305e-07 0
1.04728 -3.4741e-07 0
1.04728 -3.53408e-07 0
1.04728 -3.59295e-07 0
1.04728 -3.65063e-07 0
1.04728 -3.70707e-07 0
1.04728 -3.7622e-07 0
1.04728 -3.81597e-07 0
1.04727 -3.86832e-07 0
1.04727 -3.9192e-07 0
1.04727 -3.96854e-07 0
1.04727 -4.01629e-07 0
1.04727 -4.06241e-07 0
1.04727 -4.10684e-07 0
1.04727 -4.14953e-07 0
1.04727 -4.19043e-07 0
1.04727 -4.22951e-07 0
1.04727 -4.26673e-07 0
1.04727 -4.30209e-07 0
1.04727 -4.33559e-07 0
1.04727 -4.3672e-07 0
1.04727 -4.39645e-07 0
1.04727 -4.42116e-07 0
1.04727 -4.43902e-07 0
1.04726 -4.45833e-07 0
1.04724 -4.47047e-07 0
1.04712 -4.46927e-07 0
1.0466 -4.43488e-07 0
1.0466 -4.34494e-07 0
1 -4.34494e-07 0
1 0.00653922 0
1.01962 -0.00653922 0
1.03668 -0.00568875 0
1.04418 -0.00249782 0
1.04654 -0.000787973 0
1.04714 -0.000199469 0
1.04726 -4.29278e-05 0
1.04729 -8.14757e-06 0
1.04729 -1.39329e-06 0
1.04729 -2.12144e-07 0
1.04729 -2.30776e-08 0
1.04729 4.18761e-09 0
1.04729 6.728e-09 0
1.04729 5.5397e-09 0
1.04729 3.63252e-09 0
1.04729 1.41617e-09 0
1.04729 -1.05149e-09 0
1.04729 -3.75833e-09 0
1.04729 -6.6989e-09 0
1.04729 -9.86891e-09 0
1.04729 -1.3264e-08 0
1.04729 -1.688e-08 0
1.04729 -2.07123e-08 0
1.04729 -2.47583e-08 0
1.04729 -2.90124e-08 0
1.04729 -3.34738e-08 0
1.04729 -3.81314e-08 0
1.04729 -4.29807e-08 0
1.04729 -4.80184e-08 0
1.04729 -5.32382e-08 0
1.04729 -5.86345e-08 0
1.04729 -6.42017e-08 0
1.04729 -6.99342e-08 0
1.04729 -7.58261e-08 0
1.04729 -8.18713e-08 0
1.04729 -8.80639e-08 0
1.04729 -9.43993e-08 0
1.04729 -1.0087e-07 0
1.04729 -1.07467e-07 0
1.04729 -1.14186e-07 0
1.04729 -1.21021e-07 0
1.04729 -1.27966e-07 0
1.04729 -1.35015e-07 0
1.04729 -1.4216e-07 0
1.04729 -1.49393e-07 0
1.04729 -1.56707e-07 0
1.04729 -1.64097e-07 0
1.04729 -1.71557e-07 0
1.04729 -1.79075e-07 0
1.04729 -1.86653e-07 0
1.04729 -1.94282e-07 0
1.04729 -2.01959e-07 0
1.04728 -2.09675e-07 0
1.04728 -2.17415e-07 0
1.04728 -2.2517e-07 0
1.04728 -2.32934e-07 0
1.04728 -2.40703e-07 0
1.04728 -2.4847e-07 0
1.04728 -2.56229e-07 0
1.04728 -2.63974e-07 0
1.04728 -2.71697e-07 0
1.04728 -2.7939e-07 0
1.04728 -2.87046e-07 0
1.04728 -2.94658e-07 0
1.04728 -3.0222e-07 0
1.04728 -3.09723e-07 0
1.04728 -3.17161e-07 0
1.04728 -3.24527e-07 0
1.04728 -3.31813e-07 0
1.04728 -3.39013e-07 0
1.04728 -3.4612e-07 0
1.04728 -3.53126e-07 0
1.04728 -3.60024e-07 0
1.04728 -3.66808e-07 0
1.04728 -3.7347e-07 0
1.04728 -3.80004e-07 0
1.04728 -3.86403e-07 0
1.04728 -3.92659e-07 0
1.04728 -3.98768e-07 0
1.04728 -4.04721e-07 0
1.04727 -4.10513e-07 0
1.04727 -4.16137e-07 0
1.04727 -4.21587e-07 0
1.04727 -4.26858e-07 0
1.04727 -4.31943e-07 0
1.04727 -4.36836e-07 0
1.04727 -4.41533e-07 0
1.04727 -4.46028e-07 0
1.04727 -4.50313e-07 0
1.04727 -4.54376e-07 0
1.04727 -4.58159e-07 0
1.04727 -4.6139e-07 0
1.04727 -4.62676e-07 0
1.04727 -4.54957e-07 0
1.04727 -4.02637e-07 0
1.04727 -1.28877e-07 0
1.04726 1.24008e-06 0
1.04724 7.90182e-06 0
1.04712 3.86943e-05 0
1.0466 0.000170618 0
1.0466 0.00036706 0
1 0.00036706 0
1 0.0138643 0
1.02198 -0.0138643 0
1.0384 -0.011163 0
1.04489 -0.00466064 0
1.04675 -0.00140803 0
1.04718 -0.000342428 0
1.04726 -7.09336e-05 0
1.04727 -1.29635e-05 0
1.04728 -2.12114e-06 0
1.04728 -2.94085e-07 0
1.04728 -1.31126e-08 0
1.04728 2.55217e-08 0
1.04728 2.89383e-08 0
1.04728 2.74963e-08 0
1.04728 2.52597e-08 0
1.04728 2.27089e-08 0
1.04728 1.98918e-08 0
1.04728 1.68146e-08 0
1.04728 1.34811e-08 0
1.04728 9.89528e-09 0
1.04728 6.06186e-09 0
1.04727 1.98579e-09 0
1.04727 -2.32784e-09 0
1.04727 -6.87674e-09 0
1.04727 -1.16536e-08 0
1.04727 -1.66605e-08 0
1.04727 -2.18811e-08 0
1.04727 -2.73118e-08 0
1.04727 -3.29495e-08 0
1.04727 -3.87867e-08 0
1.04727 -4.48171e-08 0
1.04727 -5.10347e-08 0
1.04727 -5.74331e-08 0
1.04727 -6.40059e-08 0
1.04727 -7.0746e-08 0
1.04727 -7.7647e-08 0
1.04727 -8.47043e-08 0
1.04727 -9.19088e-08 0
1.04727 -9.92522e-08 0
1.04727 -1.06727e-07 0
1.04727 -1.14327e-07 0
1.04727 -1.22048e-07 0
1.04727 -1.29882e-07 0
1.04727 -1.37819e-07 0
1.04727 -1.45852e-07 0
1.04727 -1.5397e-07 0
1.04727 -1.62172e-07 0
1.04727 -1.70449e-07 0
1.04727 -1.78785e-07 0
1.04727 -1.87186e-07 0
1.04727 -1.95644e-07 0
1.04727 -2.04154e-07 0
1.04727 -2.12709e-07 0
1.04727 -2.21287e-07 0
1.04727 -2.29876e-07 0
1.04727 -2.38469e-07 0
1.04727 -2.47065e-07 0
1.04727 -2.55657e-07 0
1.04727 -2.64238e-07 0
1.04727 -2.728e-07 0
1.04727 -2.81336e-07 0
1.04727 -2.89835e-07 0
1.04727 -2.9829e-07 0
1.04727 -3.06694e-07 0
1.04726 -3.15039e-07 0
1.04726 -3.23317e-07 0
1.04726 -3.3152e-07 0
1.04726 -3.39641e-07 0
1.04726 -3.47672e-07 0
1.04726 -3.55605e-07 0
1.04726 -3.63431e-07 0
1.04726 -3.71143e-07 0
1.04726 -3.78734e-07 0
1.04726 -3.86196e-07 0
1.04726 -3.93521e-07 0
1.04726 -4.00701e-07 0
1.04726 -4.07729e-07 0
1.04726 -4.14598e-07 0
1.04726 -4.213e-07 0
1.04726 -4.27829e-07 0
1.04726 -4.34176e-07 0
1.04726 -4.40336e-07 0
1.04726 -4.46302e-07 0
1.04726 -4.52066e-07 0
1.04726 -4.57623e-07 0
1.04726 -4.62967e-07 0
1.04726 -4.6809e-07 0
1.04726 -4.72988e-07 0
1.04726 -4.77652e-07 0
1.04725 -4.82059e-07 0
1.04725 -4.86119e-07 0
1.04725 -4.89384e-07 0
1.04725 -4.89581e-07 0
1.04725 -4.75177e-07 0
1.04725 -3.87773e-07 0
1.04725 6.47947e-08 0