# vtk DataFile Version 2.0
FlowField
ASCII
DATASET STRUCTURED_GRID
DIMENSIONS 102 1 12 
POINTS 1224 double
0 0 0
0.4 0 0
0.8 0 0
1.2 0 0
1.6 0 0
2 0 0
2.4 0 0
2.8 0 0
3.2 0 0
3.6 0 0
4 0 0
4.4 0 0
4.8 0 0
5.2 0 0
5.6 0 0
6 0 0
6.4 0 0
6.8 0 0
7.2 0 0
7.6 0 0
8 0 0
8.4 0 0
8.8 0 0
9.2 0 0
9.6 0 0
10 0 0
10.4 0 0
10.8 0 0
11.2 0 0
11.6 0 0
12 0 0
12.4 0 0
12.8 0 0
13.2 0 0
13.6 0 0
14 0 0
14.4 0 0
14.8 0 0
15.2 0 0
15.6 0 0
16 0 0
16.4 0 0
16.8 0 0
17.2 0 0
17.6 0 0
18 0 0
18.4 0 0
18.8 0 0
19.2 0 0
19.6 0 0
20 0 0
20.4 0 0
20.8 0 0
21.2 0 0
21.6 0 0
22 0 0
22.4 0 0
22.8 0 0
23.2 0 0
23.6 0 0
24 0 0
24.4 0 0
24.8 0 0
25.2 0 0
25.6 0 0
26 0 0
26.4 0 0
26.8 0 0
27.2 0 0
27.6 0 0
28 0 0
28.4 0 0
28.8 0 0
29.2 0 0
29.6 0 0
30 0 0
30.4 0 0
30.8 0 0
31.2 0 0
31.6 0 0
32 0 0
32.4 0 0
32.8 0 0
33.2 0 0
33.6 0 0
34 0 0
34.4 0 0
34.8 0 0
35.2 0 0
35.6 0 0
36 0 0
36.4 0 0
36.8 0 0
37.2 0 0
37.6 0 0
38 0 0
38.4 0 0
38.8 0 0
39.2 0 0
39.6 0 0
40 0 0
40.4 0 0
0 0.1 0
0.4 0.1 0
0.8 0.1 0
1.2 0.1 0
1.6 0.1 0
2 0.1 0
2.4 0.1 0
2.8 0.1 0
3.2 0.1 0
3.6 0.1 0
4 0.1 0
4.4 0.1 0
4.8 0.1 0
5.2 0.1 0
5.6 0.1 0
6 0.1 0
6.4 0.1 0
6.8 0.1 0
7.2 0.1 0
7.6 0.1 0
8 0.1 0
8.4 0.1 0
8.8 0.1 0
9.2 0.1 0
9.6 0.1 0
10 0.1 0
10.4 0.1 0
10.8 0.1 0
11.2 0.1 0
11.6 0.1 0
12 0.1 0
12.4 0.1 0
12.8 0.1 0
13.2 0.1 0
13.6 0.1 0
14 0.1 0
14.4 0.1 0
14.8 0.1 0
15.2 0.1 0
15.6 0.1 0
16 0.1 0
16.4 0.1 0
16.8 0.1 0
17.2 0.1 0
17.6 0.1 0
18 0.1 0
18.4 0.1 0
18.8 0.1 0
19.2 0.1 0
19.6 0.1 0
20 0.1 0
20.4 0.1 0
20.8 0.1 0
21.2 0.1 0
21.6 0.1 0
22 0.1 0
22.4 0.1 0
22.8 0.1 0
23.2 0.1 0
23.6 0.1 0
24 0.1 0
24.4 0.1 0
24.8 0.1 0
25.2 0.1 0
25.6 0.1 0
26 0.1 0
26.4 0.1 0
26.8 0.1 0
27.2 0.1 0
27.6 0.1 0
28 0.1 0
28.4 0.1 0
28.8 0.1 0
29.2 0.1 0
29.6 0.1 0
30 0.1 0
30.4 0.1 0
30.8 0.1 0
31.2 0.1 0
31.6 0.1 0
32 0.1 0
32.4 0.1 0
32.8 0.1 0
33.2 0.1 0
33.6 0.1 0
34 0.1 0
34.4 0.1 0
34.8 0.1 0
35.2 0.1 0
35.6 0.1 0
36 0.1 0
36.4 0.1 0
36.8 0.1 0
37.2 0.1 0
37.6 0.1 0
38 0.1 0
38.4 0.1 0
38.8 0.1 0
39.2 0.1 0
39.6 0.1 0
40 0.1 0
40.4 0.1 0
0 0.2 0
0.4 0.2 0
0.8 0.2 0
1.2 0.2 0
1.6 0.2 0
2 0.2 0
2.4 0.2 0
2.8 0.2 0
3.2 0.2 0
3.6 0.2 0
4 0.2 0
4.4 0.2 0
4.8 0.2 0
5.2 0.2 0
5.6 0.2 0
6 0.2 0
6.4 0.2 0
6.8 0.2 0
7.2 0.2 0
7.6 0.2 0
8 0.2 0
8.4 0.2 0
8.8 0.2 0
9.2 0.2 0
9.6 0.2 0
10 0.2 0
10.4 0.2 0
10.8 0.2 0
11.2 0.2 0
11.6 0.2 0
12 0.2 0
12.4 0.2 0
12.8 0.2 0
13.2 0.2 0
13.6 0.2 0
14 0.2 0
14.4 0.2 0
14.8 0.2 0
15.2 0.2 0
15.6 0.2 0
16 0.2 0
16.4 0.2 0
16.8 0.2 0
17.2 0.2 0
17.6 0.2 0
18 0.2 0
18.4 0.2 0
18.8 0.2 0
19.2 0.2 0
19.6 0.2 0
20 0.2 0
20.4 0.2 0
20.8 0.2 0
21.2 0.2 0
21.6 0.2 0
22 0.2 0
22.4 0.2 0
22.8 0.2 0
23.2 0.2 0
23.6 0.2 0
24 0.2 0
24.4 0.2 0
24.8 0.2 0
25.2 0.2 0
25.6 0.2 0
26 0.2 0
26.4 0.2 0
26.8 0.2 0
27.2 0.2 0
27.6 0.2 0
28 0.2 0
28.4 0.2 0
28.8 0.2 0
29.2 0.2 0
29.6 0.2 0
30 0.2 0
30.4 0.2 0
30.8 0.2 0
31.2 0.2 0
31.6 0.2 0
32 0.2 0
32.4 0.2 0
32.8 0.2 0
33.2 0.2 0
33.6 0.2 0
34 0.2 0
34.4 0.2 0
34.8 0.2 0
35.2 0.2 0
35.6 0.2 0
36 0.2 0
36.4 0.2 0
36.8 0.2 0
37.2 0.2 0
37.6 0.2 0
38 0.2 0
38.4 0.2 0
38.8 0.2 0
39.2 0.2 0
39.6 0.2 0
40 0.2 0
40.4 0.2 0
0 0.3 0
0.4 0.3 0
0.8 0.3 0
1.2 0.3 0
1.6 0.3 0
2 0.3 0
2.4 0.3 0
2.8 0.3 0
3.2 0.3 0
3.6 0.3 0
4 0.3 0
4.4 0.3 0
4.8 0.3 0
5.2 0.3 0
5.6 0.3 0
6 0.3 0
6.4 0.3 0
6.8 0.3 0
7.2 0.3 0
7.6 0.3 0
8 0.3 0
8.4 0.3 0
8.8 0.3 0
9.2 0.3 0
9.6 0.3 0
10 0.3 0
10.4 0.3 0
10.8 0.3 0
11.2 0.3 0
11.6 0.3 0
12 0.3 0
12.4 0.3 0
12.8 0.3 0
13.2 0.3 0
13.6 0.3 0
14 0.3 0
14.4 0.3 0
14.8 0.3 0
15.2 0.3 0
15.6 0.3 0
16 0.3 0
16.4 0.3 0
16.8 0.3 0
17.2 0.3 0
17.6 0.3 0
18 0.3 0
18.4 0.3 0
18.8 0.3 0
19.2 0.3 0
19.6 0.3 0
20 0.3 0
20.4 0.3 0
20.8 0.3 0
21.2 0.3 0
21.6 0.3 0
22 0.3 0
22.4 0.3 0
22.8 0.3 0
23.2 0.3 0
23.6 0.3 0
24 0.3 0
24.4 0.3 0
24.8 0.3 0
25.2 0.3 0
25.6 0.3 0
26 0.3 0
26.4 0.3 0
26.8 0.3 0
27.2 0.3 0
27.6 0.3 0
28 0.3 0
28.4 0.3 0
28.8 0.3 0
29.2 0.3 0
29.6 0.3 0
30 0.3 0
30.4 0.3 0
30.8 0.3 0
31.2 0.3 0
31.6 0.3 0
32 0.3 0
32.4 0.3 0
32.8 0.3 0
33.2 0.3 0
33.6 0.3 0
34 0.3 0
34.4 0.3 0
34.8 0.3 0
35.2 0.3 0
35.6 0.3 0
36 0.3 0
36.4 0.3 0
36.8 0.3 0
37.2 0.3 0
37.6 0.3 0
38 0.3 0
38.4 0.3 0
38.8 0.3 0
39.2 0.3 0
39.6 0.3 0
40 0.3 0
40.4 0.3 0
0 0.4 0
0.4 0.4 0
0.8 0.4 0
1.2 0.4 0
1.6 0.4 0
2 0.4 0
2.4 0.4 0
2.8 0.4 0
3.2 0.4 0
3.6 0.4 0
4 0.4 0
4.4 0.4 0
4.8 0.4 0
5.2 0.4 0
5.6 0.4 0
6 0.4 0
6.4 0.4 0
6.8 0.4 0
7.2 0.4 0
7.6 0.4 0
8 0.4 0
8.4 0.4 0
8.8 0.4 0
9.2 0.4 0
9.6 0.4 0
10 0.4 0
10.4 0.4 0
10.8 0.4 0
11.2 0.4 0
11.6 0.4 0
12 0.4 0
12.4 0.4 0
12.8 0.4 0
13.2 0.4 0
13.6 0.4 0
14 0.4 0
14.4 0.4 0
14.8 0.4 0
15.2 0.4 0
15.6 0.4 0
16 0.4 0
16.4 0.4 0
16.8 0.4 0
17.2 0.4 0
17.6 0.4 0
18 0.4 0
18.4 0.4 0
18.8 0.4 0
19.2 0.4 0
19.6 0.4 0
20 0.4 0
20.4 0.4 0
20.8 0.4 0
21.2 0.4 0
21.6 0.4 0
22 0.4 0
22.4 0.4 0
22.8 0.4 0
23.2 0.4 0
23.6 0.4 0
24 0.4 0
24.4 0.4 0
24.8 0.4 0
25.2 0.4 0
25.6 0.4 0
26 0.4 0
26.4 0.4 0
26.8 0.4 0
27.2 0.4 0
27.6 0.4 0
28 0.4 0
28.4 0.4 0
28.8 0.4 0
29.2 0.4 0
29.6 0.4 0
30 0.4 0
30.4 0.4 0
30.8 0.4 0
31.2 0.4 0
31.6 0.4 0
32 0.4 0
32.4 0.4 0
32.8 0.4 0
33.2 0.4 0
33.6 0.4 0
34 0.4 0
34.4 0.4 0
34.8 0.4 0
35.2 0.4 0
35.6 0.4 0
36 0.4 0
36.4 0.4 0
36.8 0.4 0
37.2 0.4 0
37.6 0.4 0
38 0.4 0
38.4 0.4 0
38.8 0.4 0
39.2 0.4 0
39.6 0.4 0
40 0.4 0
40.4 0.4 0
0 0.5 0
0.4 0.5 0
0.8 0.5 0
1.2 0.5 0
1.6 0.5 0
2 0.5 0
2.4 0.5 0
2.8 0.5 0
3.2 0.5 0
3.6 0.5 0
4 0.5 0
4.4 0.5 0
4.8 0.5 0
5.2 0.5 0
5.6 0.5 0
6 0.5 0
6.4 0.5 0
6.8 0.5 0
7.2 0.5 0
7.6 0.5 0
8 0.5 0
8.4 0.5 0
8.8 0.5 0
9.2 0.5 0
9.6 0.5 0
10 0.5 0
10.4 0.5 0
10.8 0.5 0
11.2 0.5 0
11.6 0.5 0
12 0.5 0
12.4 0.5 0
12.8 0.5 0
13.2 0.5 0
13.6 0.5 0
14 0.5 0
14.4 0.5 0
14.8 0.5 0
15.2 0.5 0
15.6 0.5 0
16 0.5 0
16.4 0.5 0
16.8 0.5 0
17.2 0.5 0
17.6 0.5 0
18 0.5 0
18.4 0.5 0
18.8 0.5 0
19.2 0.5 0
19.6 0.5 0
20 0.5 0
20.4 0.5 0
20.8 0.5 0
21.2 0.5 0
21.6 0.5 0
22 0.5 0
22.4 0.5 0
22.8 0.5 0
23.2 0.5 0
23.6 0.5 0
24 0.5 0
24.4 0.5 0
24.8 0.5 0
25.2 0.5 0
25.6 0.5 0
26 0.5 0
26.4 0.5 0
26.8 0.5 0
27.2 0.5 0
27.6 0.5 0
28 0.5 0
28.4 0.5 0
28.8 0.5 0
29.2 0.5 0
29.6 0.5 0
30 0.5 0
30.4 0.5 0
30.8 0.5 0
31.2 0.5 0
31.6 0.5 0
32 0.5 0
32.4 0.5 0
32.8 0.5 0
33.2 0.5 0
33.6 0.5 0
34 0.5 0
34.4 0.5 0
34.8 0.5 0
35.2 0.5 0
35.6 0.5 0
36 0.5 0
36.4 0.5 0
36.8 0.5 0
37.2 0.5 0
37.6 0.5 0
38 0.5 0
38.4 0.5 0
38.8 0.5 0
39.2 0.5 0
39.6 0.5 0
40 0.5 0
40.4 0.5 0
0 0.6 0
0.4 0.6 0
0.8 0.6 0
1.2 0.6 0
1.6 0.6 0
2 0.6 0
2.4 0.6 0
2.8 0.6 0
3.2 0.6 0
3.6 0.6 0
4 0.6 0
4.4 0.6 0
4.8 0.6 0
5.2 0.6 0
5.6 0.6 0
6 0.6 0
6.4 0.6 0
6.8 0.6 0
7.2 0.6 0
7.6 0.6 0
8 0.6 0
8.4 0.6 0
8.8 0.6 0
9.2 0.6 0
9.6 0.6 0
10 0.6 0
10.4 0.6 0
10.8 0.6 0
11.2 0.6 0
11.6 0.6 0
12 0.6 0
12.4 0.6 0
12.8 0.6 0
13.2 0.6 0
13.6 0.6 0
14 0.6 0
14.4 0.6 0
14.8 0.6 0
15.2 0.6 0
15.6 0.6 0
16 0.6 0
16.4 0.6 0
16.8 0.6 0
17.2 0.6 0
17.6 0.6 0
18 0.6 0
18.4 0.6 0
18.8 0.6 0
19.2 0.6 0
19.6 0.6 0
20 0.6 0
20.4 0.6 0
20.8 0.6 0
21.2 0.6 0
21.6 0.6 0
22 0.6 0
22.4 0.6 0
22.8 0.6 0
23.2 0.6 0
23.6 0.6 0
24 0.6 0
24.4 0.6 0
24.8 0.6 0
25.2 0.6 0
25.6 0.6 0
26 0.6 0
26.4 0.6 0
26.8 0.6 0
27.2 0.6 0
27.6 0.6 0
28 0.6 0
28.4 0.6 0
28.8 0.6 0
29.2 0.6 0
29.6 0.6 0
30 0.6 0
30.4 0.6 0
30.8 0.6 0
31.2 0.6 0
31.6 0.6 0
32 0.6 0
32.4 0.6 0
32.8 0.6 0
33.2 0.6 0
33.6 0.6 0
34 0.6 0
34.4 0.6 0
34.8 0.6 0
35.2 0.6 0
35.6 0.6 0
36 0.6 0
36.4 0.6 0
36.8 0.6 0
37.2 0.6 0
37.6 0.6 0
38 0.6 0
38.4 0.6 0
38.8 0.6 0
39.2 0.6 0
39.6 0.6 0
40 0.6 0
40.4 0.6 0
0 0.7 0
0.4 0.7 0
0.8 0.7 0
1.2 0.7 0
1.6 0.7 0
2 0.7 0
2.4 0.7 0
2.8 0.7 0
3.2 0.7 0
3.6 0.7 0
4 0.7 0
4.4 0.7 0
4.8 0.7 0
5.2 0.7 0
5.6 0.7 0
6 0.7 0
6.4 0.7 0
6.8 0.7 0
7.2 0.7 0
7.6 0.7 0
8 0.7 0
8.4 0.7 0
8.8 0.7 0
9.2 0.7 0
9.6 0.7 0
10 0.7 0
10.4 0.7 0
10.8 0.7 0
11.2 0.7 0
11.6 0.7 0
12 0.7 0
12.4 0.7 0
12.8 0.7 0
13.2 0.7 0
13.6 0.7 0
14 0.7 0
14.4 0.7 0
14.8 0.7 0
15.2 0.7 0
15.6 0.7 0
16 0.7 0
16.4 0.7 0
16.8 0.7 0
17.2 0.7 0
17.6 0.7 0
18 0.7 0
18.4 0.7 0
18.8 0.7 0
19.2 0.7 0
19.6 0.7 0
20 0.7 0
20.4 0.7 0
20.8 0.7 0
21.2 0.7 0
21.6 0.7 0
22 0.7 0
22.4 0.7 0
22.8 0.7 0
23.2 0.7 0
23.6 0.7 0
24 0.7 0
24.4 0.7 0
24.8 0.7 0
25.2 0.7 0
25.6 0.7 0
26 0.7 0
26.4 0.7 0
26.8 0.7 0
27.2 0.7 0
27.6 0.7 0
28 0.7 0
28.4 0.7 0
28.8 0.7 0
29.2 0.7 0
29.6 0.7 0
30 0.7 0
30.4 0.7 0
30.8 0.7 0
31.2 0.7 0
31.6 0.7 0
32 0.7 0
32.4 0.7 0
32.8 0.7 0
33.2 0.7 0
33.6 0.7 0
34 0.7 0
34.4 0.7 0
34.8 0.7 0
35.2 0.7 0
35.6 0.7 0
36 0.7 0
36.4 0.7 0
36.8 0.7 0
37.2 0.7 0
37.6 0.7 0
38 0.7 0
38.4 0.7 0
38.8 0.7 0
39.2 0.7 0
39.6 0.7 0
40 0.7 0
40.4 0.7 0
0 0.8 0
0.4 0.8 0
0.8 0.8 0
1.2 0.8 0
1.6 0.8 0
2 0.8 0
2.4 0.8 0
2.8 0.8 0
3.2 0.8 0
3.6 0.8 0
4 0.8 0
4.4 0.8 0
4.8 0.8 0
5.2 0.8 0
5.6 0.8 0
6 0.8 0
6.4 0.8 0
6.8 0.8 0
7.2 0.8 0
7.6 0.8 0
8 0.8 0
8.4 0.8 0
8.8 0.8 0
9.2 0.8 0
9.6 0.8 0
10 0.8 0
10.4 0.8 0
10.8 0.8 0
11.2 0.8 0
11.6 0.8 0
12 0.8 0
12.4 0.8 0
12.8 0.8 0
13.2 0.8 0
13.6 0.8 0
14 0.8 0
14.4 0.8 0
14.8 0.8 0
15.2 0.8 0
15.6 0.8 0
16 0.8 0
16.4 0.8 0
16.8 0.8 0
17.2 0.8 0
17.6 0.8 0
18 0.8 0
18.4 0.8 0
18.8 0.8 0
19.2 0.8 0
19.6 0.8 0
20 0.8 0
20.4 0.8 0
20.8 0.8 0
21.2 0.8 0
21.6 0.8 0
22 0.8 0
22.4 0.8 0
22.8 0.8 0
23.2 0.8 0
23.6 0.8 0
24 0.8 0
24.4 0.8 0
24.8 0.8 0
25.2 0.8 0
25.6 0.8 0
26 0.8 0
26.4 0.8 0
26.8 0.8 0
27.2 0.8 0
27.6 0.8 0
28 0.8 0
28.4 0.8 0
28.8 0.8 0
29.2 0.8 0
29.6 0.8 0
30 0.8 0
30.4 0.8 0
30.8 0.8 0
31.2 0.8 0
31.6 0.8 0
32 0.8 0
32.4 0.8 0
32.8 0.8 0
33.2 0.8 0
33.6 0.8 0
34 0.8 0
34.4 0.8 0
34.8 0.8 0
35.2 0.8 0
35.6 0.8 0
36 0.8 0
36.4 0.8 0
36.8 0.8 0
37.2 0.8 0
37.6 0.8 0
38 0.8 0
38.4 0.8 0
38.8 0.8 0
39.2 0.8 0
39.6 0.8 0
40 0.8 0
40.4 0.8 0
0 0.9 0
0.4 0.9 0
0.8 0.9 0
1.2 0.9 0
1.6 0.9 0
2 0.9 0
2.4 0.9 0
2.8 0.9 0
3.2 0.9 0
3.6 0.9 0
4 0.9 0
4.4 0.9 0
4.8 0.9 0
5.2 0.9 0
5.6 0.9 0
6 0.9 0
6.4 0.9 0
6.8 0.9 0
7.2 0.9 0
7.6 0.9 0
8 0.9 0
8.4 0.9 0
8.8 0.9 0
9.2 0.9 0
9.6 0.9 0
10 0.9 0
10.4 0.9 0
10.8 0.9 0
11.2 0.9 0
11.6 0.9 0
12 0.9 0
12.4 0.9 0
12.8 0.9 0
13.2 0.9 0
13.6 0.9 0
14 0.9 0
14.4 0.9 0
14.8 0.9 0
15.2 0.9 0
15.6 0.9 0
16 0.9 0
16.4 0.9 0
16.8 0.9 0
17.2 0.9 0
17.6 0.9 0
18 0.9 0
18.4 0.9 0
18.8 0.9 0
19.2 0.9 0
19.6 0.9 0
20 0.9 0
20.4 0.9 0
20.8 0.9 0
21.2 0.9 0
21.6 0.9 0
22 0.9 0
22.4 0.9 0
22.8 0.9 0
23.2 0.9 0
23.6 0.9 0
24 0.9 0
24.4 0.9 0
24.8 0.9 0
25.2 0.9 0
25.6 0.9 0
26 0.9 0
26.4 0.9 0
26.8 0.9 0
27.2 0.9 0
27.6 0.9 0
28 0.9 0
28.4 0.9 0
28.8 0.9 0
29.2 0.9 0
29.6 0.9 0
30 0.9 0
30.4 0.9 0
30.8 0.9 0
31.2 0.9 0
31.6 0.9 0
32 0.9 0
32.4 0.9 0
32.8 0.9 0
33.2 0.9 0
33.6 0.9 0
34 0.9 0
34.4 0.9 0
34.8 0.9 0
35.2 0.9 0
35.6 0.9 0
36 0.9 0
36.4 0.9 0
36.8 0.9 0
37.2 0.9 0
37.6 0.9 0
38 0.9 0
38.4 0.9 0
38.8 0.9 0
39.2 0.9 0
39.6 0.9 0
40 0.9 0
40.4 0.9 0
0 1 0
0.4 1 0
0.8 1 0
1.2 1 0
1.6 1 0
2 1 0
2.4 1 0
2.8 1 0
3.2 1 0
3.6 1 0
4 1 0
4.4 1 0
4.8 1 0
5.2 1 0
5.6 1 0
6 1 0
6.4 1 0
6.8 1 0
7.2 1 0
7.6 1 0
8 1 0
8.4 1 0
8.8 1 0
9.2 1 0
9.6 1 0
10 1 0
10.4 1 0
10.8 1 0
11.2 1 0
11.6 1 0
12 1 0
12.4 1 0
12.8 1 0
13.2 1 0
13.6 1 0
14 1 0
14.4 1 0
14.8 1 0
15.2 1 0
15.6 1 0
16 1 0
16.4 1 0
16.8 1 0
17.2 1 0
17.6 1 0
18 1 0
18.4 1 0
18.8 1 0
19.2 1 0
19.6 1 0
20 1 0
20.4 1 0
20.8 1 0
21.2 1 0
21.6 1 0
22 1 0
22.4 1 0
22.8 1 0
23.2 1 0
23.6 1 0
24 1 0
24.4 1 0
24.8 1 0
25.2 1 0
25.6 1 0
26 1 0
26.4 1 0
26.8 1 0
27.2 1 0
27.6 1 0
28 1 0
28.4 1 0
28.8 1 0
29.2 1 0
29.6 1 0
30 1 0
30.4 1 0
30.8 1 0
31.2 1 0
31.6 1 0
32 1 0
32.4 1 0
32.8 1 0
33.2 1 0
33.6 1 0
34 1 0
34.4 1 0
34.8 1 0
35.2 1 0
35.6 1 0
36 1 0
36.4 1 0
36.8 1 0
37.2 1 0
37.6 1 0
38 1 0
38.4 1 0
38.8 1 0
39.2 1 0
39.6 1 0
40 1 0
40.4 1 0
0 1.1 0
0.4 1.1 0
0.8 1.1 0
1.2 1.1 0
1.6 1.1 0
2 1.1 0
2.4 1.1 0
2.8 1.1 0
3.2 1.1 0
3.6 1.1 0
4 1.1 0
4.4 1.1 0
4.8 1.1 0
5.2 1.1 0
5.6 1.1 0
6 1.1 0
6.4 1.1 0
6.8 1.1 0
7.2 1.1 0
7.6 1.1 0
8 1.1 0
8.4 1.1 0
8.8 1.1 0
9.2 1.1 0
9.6 1.1 0
10 1.1 0
10.4 1.1 0
10.8 1.1 0
11.2 1.1 0
11.6 1.1 0
12 1.1 0
12.4 1.1 0
12.8 1.1 0
13.2 1.1 0
13.6 1.1 0
14 1.1 0
14.4 1.1 0
14.8 1.1 0
15.2 1.1 0
15.6 1.1 0
16 1.1 0
16.4 1.1 0
16.8 1.1 0
17.2 1.1 0
17.6 1.1 0
18 1.1 0
18.4 1.1 0
18.8 1.1 0
19.2 1.1 0
19.6 1.1 0
20 1.1 0
20.4 1.1 0
20.8 1.1 0
21.2 1.1 0
21.6 1.1 0
22 1.1 0
22.4 1.1 0
22.8 1.1 0
23.2 1.1 0
23.6 1.1 0
24 1.1 0
24.4 1.1 0
24.8 1.1 0
25.2 1.1 0
25.6 1.1 0
26 1.1 0
26.4 1.1 0
26.8 1.1 0
27.2 1.1 0
27.6 1.1 0
28 1.1 0
28.4 1.1 0
28.8 1.1 0
29.2 1.1 0
29.6 1.1 0
30 1.1 0
30.4 1.1 0
30.8 1.1 0
31.2 1.1 0
31.6 1.1 0
32 1.1 0
32.4 1.1 0
32.8 1.1 0
33.2 1.1 0
33.6 1.1 0
34 1.1 0
34.4 1.1 0
34.8 1.1 0
35.2 1.1 0
35.6 1.1 0
36 1.1 0
36.4 1.1 0
36.8 1.1 0
37.2 1.1 0
37.6 1.1 0
38 1.1 0
38.4 1.1 0
38.8 1.1 0
39.2 1.1 0
39.6 1.1 0
40 1.1 0
40.4 1.1 0

POINT_DATA 1224

SCALARS v double
LOOKUP_TABLE default
0
0
0
0
0
0
0
0
0
0
0
0
0
0
0
0
0
0
0
0
0
0
0
0
0
0
0
0
0
0
0
0
0
0
0
0
0
0
0
0
0
0
0
0
0
0
0
0
0
0
0
0
0
0
0
0
0
0
0
0
0
0
0
0
0
0
0
0
0
0
0
0
0
0
0
0
0
0
0
0
0
0
0
0
0
0
0
0
0
0
0
0
0
0
0
0
0
0
0
0
0
0
-0.00751344
0.00751344
0.0146552
0.0162812
0.0149618
0.0125487
0.0100747
0.0079588
0.00628243
0.00499021
0.00399567
0.00322205
0.00261164
0.00212353
0.00172904
0.00140773
0.00114462
0.000928456
0.000750532
0.000604009
0.000483413
0.000384307
0.000303059
0.000236668
0.000182639
0.000138888
0.000103667
7.55071e-05
5.31744e-05
3.56297e-05
2.20032e-05
1.15521e-05
3.68549e-06
-2.31844e-06
-6.66969e-06
-9.65237e-06
-1.15456e-05
-1.25937e-05
-1.30008e-05
-1.29337e-05
-1.25266e-05
-1.18857e-05
-1.10943e-05
-1.02167e-05
-9.30141e-06
-8.38443e-06
-7.49171e-06
-6.64123e-06
-5.84474e-06
-5.10919e-06
-4.43789e-06
-3.83142e-06
-3.28842e-06
-2.80615e-06
-2.38095e-06
-2.00863e-06
-1.68468e-06
-1.40454e-06
-1.1637e-06
-9.57853e-07
-7.829e-07
-6.35051e-07
-5.10825e-07
-4.07059e-07
-3.20911e-07
-2.49845e-07
-1.91618e-07
-1.44258e-07
-1.06042e-07
-7.5478e-08
-5.12775e-08
-3.23364e-08
-1.77217e-08
-6.61168e-09
1.4173e-09
7.16319e-09
1.11662e-08
1.3819e-08
1.54319e-08
1.62529e-08
1.64795e-08
1.62701e-08
1.57454e-08
1.5016e-08
1.41041e-08
1.32232e-08
1.1722e-08
1.14911e-08
3.71508e-09
9.9404e-09
-8.33561e-08
-7.49387e-09
-1.25683e-06
-4.76193e-07
-1.73447e-05
-1.02438e-05
-0.000240809
-0.000168707
-0.00349307
-0.00153827
-0.0477942
-0.0477942
-0.00621567
0.00621567
0.0142999
0.0183624
0.0194157
0.0185586
0.0167091
0.0144992
0.0122985
0.0102885
0.00853603
0.00704672
0.00579863
0.00476021
0.00389924
0.00318648
0.00259682
0.00210924
0.00170635
0.00137381
0.00109978
0.000874463
0.000689739
0.000538824
0.000416052
0.000316672
0.000236692
0.000172762
0.000122064
8.22295e-05
5.12797e-05
2.75344e-05
9.64902e-06
-3.7735e-06
-1.35625e-05
-2.03713e-05
-2.47887e-05
-2.73288e-05
-2.84277e-05
-2.84477e-05
-2.7684e-05
-2.63735e-05
-2.47034e-05
-2.28193e-05
-2.08325e-05
-1.88261e-05
-1.68609e-05
-1.49793e-05
-1.321e-05
-1.15702e-05
-1.00689e-05
-8.7089e-06
-7.48813e-06
-6.40136e-06
-5.44114e-06
-4.5986e-06
-3.86412e-06
-3.22778e-06
-2.67973e-06
-2.21046e-06
-1.81092e-06
-1.47268e-06
-1.18798e-06
-9.49727e-07
-7.51553e-07
-5.87749e-07
-4.53255e-07
-3.43612e-07
-2.5492e-07
-1.83792e-07
-1.27297e-07
-8.29208e-08
-4.85182e-08
-2.22708e-08
-2.73004e-09
1.12884e-08
2.10711e-08
2.75992e-08
3.1637e-08
3.37854e-08
3.45181e-08
3.42114e-08
3.31539e-08
3.15991e-08
2.96371e-08
2.76887e-08
2.4688e-08
2.42313e-08
1.13306e-08
2.9338e-08
-1.16216e-07
1.28207e-07
-1.81257e-06
1.2536e-06
-2.5076e-05
1.342e-05
-0.000347827
0.000140676
-0.00482119
0.000857423
-0.061277
-0.061277
-0.00401801
0.00401801
0.00987185
0.0135457
0.0153924
0.0158461
0.0153379
0.0142366
0.0128244
0.0112996
0.00979083
0.00837399
0.00708835
0.00594912
0.00495668
0.00410299
0.00337575
0.002761
0.00224467
0.00181341
0.00145504
0.00115869
0.000914795
0.000715079
0.000552398
0.000420642
0.000314601
0.00022986
0.000162684
0.000109927
6.89501e-05
3.75311e-05
1.38479e-05
-3.76734e-06
-1.65568e-05
-2.54714e-05
-3.13082e-05
-3.47351e-05
-3.63076e-05
-3.64832e-05
-3.5635e-05
-3.40632e-05
-3.2007e-05
-2.96537e-05
-2.71479e-05
-2.45988e-05
-2.20871e-05
-1.96703e-05
-1.73877e-05
-1.5264e-05
-1.3313e-05
-1.15399e-05
-9.94366e-06
-8.51874e-06
-7.25648e-06
-6.1462e-06
-5.17602e-06
-4.33357e-06
-3.6064e-06
-2.98238e-06
-2.44994e-06
-1.9982e-06
-1.61712e-06
-1.2975e-06
-1.03102e-06
-8.1022e-07
-6.2845e-07
-4.79852e-07
-3.59283e-07
-2.6226e-07
-1.84901e-07
-1.23871e-07
-7.62968e-08
-3.97964e-08
-1.2233e-08
7.91174e-09
2.21846e-08
3.18852e-08
3.80597e-08
4.15456e-08
4.30095e-08
4.29821e-08
4.18755e-08
4.00368e-08
3.76373e-08
3.51553e-08
3.15587e-08
3.08599e-08
1.67792e-08
4.21423e-08
-1.16409e-07
2.55068e-07
-1.88833e-06
3.04013e-06
-2.59263e-05
3.6864e-05
-0.000345132
0.000398296
-0.00439119
0.00284663
-0.0516343
-0.0516343
-0.00195405
0.00195405
0.00490745
0.00691943
0.00813032
0.00869008
0.00874622
0.00843552
0.00787795
0.00717309
0.00639888
0.00561269
0.0048539
0.00414726
0.0035064
0.00293694
0.00243901
0.0020093
0.00164248
0.00133225
0.001072
0.000855278
0.000676039
0.000528769
0.000408554
0.000311075
0.000232588
0.00016987
0.000120175
8.1175e-05
5.0909e-05
2.77319e-05
1.02688e-05
-2.65526e-06
-1.19837e-05
-1.84634e-05
-2.27027e-05
-2.51992e-05
-2.63591e-05
-2.65129e-05
-2.59276e-05
-2.4818e-05
-2.33545e-05
-2.16712e-05
-1.98718e-05
-1.80353e-05
-1.62204e-05
-1.44692e-05
-1.2811e-05
-1.12646e-05
-9.84064e-06
-8.54372e-06
-7.37374e-06
-6.32726e-06
-5.39848e-06
-4.58002e-06
-3.86357e-06
-3.24035e-06
-2.7015e-06
-2.2383e-06
-1.84241e-06
-1.50596e-06
-1.22165e-06
-9.82762e-07
-7.83231e-07
-6.17584e-07
-4.80943e-07
-3.68994e-07
-2.77943e-07
-2.0448e-07
-1.45733e-07
-9.92241e-08
-6.28275e-08
-3.47506e-08
-1.34371e-08
2.37589e-09
1.37442e-08
2.16036e-08
2.67281e-08
2.97492e-08
3.11767e-08
3.14203e-08
3.08003e-08
2.95869e-08
2.79183e-08
2.6166e-08
2.3555e-08
2.32782e-08
1.28091e-08
3.49339e-08
-8.24607e-08
2.35001e-07
-1.31495e-06
2.77632e-06
-1.73756e-05
3.22988e-05
-0.000218917
0.000330262
-0.00260555
0.00238736
-0.0290026
-0.0290026
3.36343e-10
-3.33341e-10
-1.10119e-09
-1.90766e-09
-2.68943e-09
-3.37253e-09
-3.88658e-09
-4.18103e-09
-4.23637e-09
-4.06686e-09
-3.71526e-09
-3.24242e-09
-2.71537e-09
-2.19686e-09
-1.73797e-09
-1.37437e-09
-1.1257e-09
-9.97404e-10
-9.83726e-10
-1.07114e-09
-1.24135e-09
-1.47357e-09
-1.74595e-09
-2.03634e-09
-2.32264e-09
-2.58315e-09
-2.79715e-09
-2.94596e-09
-3.0144e-09
-2.99208e-09
-2.87655e-09
-2.66862e-09
-2.39101e-09
-2.03435e-09
-1.63759e-09
-1.2286e-09
-8.35814e-10
-4.84425e-10
-1.93752e-10
2.42411e-11
1.65409e-10
2.32896e-10
2.35832e-10
1.87548e-10
1.0361e-10
-3.67826e-14
-1.08626e-10
-2.09682e-10
-2.93668e-10
-3.54188e-10
-3.87837e-10
-3.93791e-10
-3.7327e-10
-3.28946e-10
-2.64388e-10
-1.83579e-10
-9.05296e-11
1.10173e-11
1.17778e-10
2.27044e-10
3.36733e-10
4.45372e-10
5.52051e-10
6.56338e-10
7.58173e-10
8.57769e-10
9.55489e-10
1.05177e-09
1.14695e-09
1.24134e-09
1.33475e-09
1.42703e-09
1.51736e-09
1.60214e-09
1.69211e-09
1.7949e-09
1.89577e-09
1.99157e-09
2.07894e-09
2.15462e-09
2.21566e-09
2.25973e-09
2.28534e-09
2.29188e-09
2.27982e-09
2.24981e-09
2.20573e-09
2.14313e-09
2.08744e-09
1.9803e-09
1.88951e-09
1.77056e-09
1.67567e-09
1.57578e-09
1.52166e-09
1.47071e-09
1.51466e-09
1.48121e-09
1.83262e-09
1.3426e-09
3.12606e-09
3.1584e-09
0.00195405
-0.00195405
-0.00490746
-0.00691943
-0.00813032
-0.00869008
-0.00874623
-0.00843553
-0.00787796
-0.00717309
-0.00639889
-0.0056127
-0.0048539
-0.00414726
-0.00350641
-0.00293694
-0.00243901
-0.0020093
-0.00164248
-0.00133225
-0.001072
-0.000855281
-0.000676042
-0.000528773
-0.000408558
-0.00031108
-0.000232593
-0.000169876
-0.000120181
-8.11808e-05
-5.09145e-05
-2.7737e-05
-1.02734e-05
2.65137e-06
1.19806e-05
1.8461e-05
2.2701e-05
2.51981e-05
2.63586e-05
2.65127e-05
2.59278e-05
2.48183e-05
2.33548e-05
2.16713e-05
1.98718e-05
1.80351e-05
1.622e-05
1.44687e-05
1.28104e-05
1.12639e-05
9.83986e-06
8.54295e-06
7.37303e-06
6.32666e-06
5.39802e-06
4.57973e-06
3.86347e-06
3.24045e-06
2.70181e-06
2.23883e-06
1.84316e-06
1.50692e-06
1.22281e-06
9.84135e-07
7.84805e-07
6.19353e-07
4.82905e-07
3.71146e-07
2.80284e-07
2.07008e-07
1.48446e-07
1.02118e-07
6.59026e-08
3.79863e-08
1.6858e-08
1.2283e-09
-9.95301e-09
-1.76293e-08
-2.25834e-08
-2.54547e-08
-2.676e-08
-2.69137e-08
-2.62393e-08
-2.50076e-08
-2.33558e-08
-2.16535e-08
-1.91193e-08
-1.89491e-08
-8.5858e-09
-3.08726e-08
8.63396e-08
-2.31313e-07
1.31845e-06
-2.77298e-06
1.73788e-05
-3.22956e-05
0.000218921
-0.000330259
0.00260555
-0.00238736
0.0290026
0.0290026
0.00401801
-0.00401801
-0.00987185
-0.0135457
-0.0153924
-0.0158461
-0.015338
-0.0142366
-0.0128244
-0.0112996
-0.00979083
-0.00837399
-0.00708836
-0.00594912
-0.00495668
-0.00410299
-0.00337575
-0.002761
-0.00224467
-0.00181342
-0.00145505
-0.00115869
-0.000914799
-0.000715083
-0.000552403
-0.000420647
-0.000314606
-0.000229865
-0.000162689
-0.000109932
-6.8955e-05
-3.75356e-05
-1.38519e-05
3.76388e-06
1.65539e-05
2.54692e-05
3.13065e-05
3.47339e-05
3.63068e-05
3.64827e-05
3.56346e-05
3.40629e-05
3.20067e-05
2.96534e-05
2.71474e-05
2.45982e-05
2.20864e-05
1.96696e-05
1.73869e-05
1.52632e-05
1.33123e-05
1.15392e-05
9.9431e-06
8.51832e-06
7.25622e-06
6.14611e-06
5.17613e-06
4.33387e-06
3.6069e-06
2.98309e-06
2.45085e-06
1.99932e-06
1.61844e-06
1.29901e-06
1.03272e-06
8.12107e-07
6.30523e-07
4.82108e-07
3.6172e-07
2.64877e-07
1.87697e-07
1.26839e-07
7.94394e-08
4.30868e-08
1.56948e-08
-4.30941e-09
-1.84201e-08
-2.79512e-08
-3.39631e-08
-3.73037e-08
-3.8647e-08
-3.85279e-08
-3.73601e-08
-3.54904e-08
-3.30882e-08
-3.06295e-08
-2.70775e-08
-2.64399e-08
-1.24371e-08
-3.78486e-08
1.20541e-07
-2.51031e-07
1.89222e-06
-3.03631e-06
2.593e-05
-3.68603e-05
0.000345136
-0.000398292
0.0043912
-0.00284662
0.0516343
0.0516343
0.00621567
-0.00621567
-0.0142999
-0.0183624
-0.0194157
-0.0185586
-0.0167091
-0.0144992
-0.0122985
-0.0102885
-0.00853603
-0.00704673
-0.00579864
-0.00476022
-0.00389924
-0.00318648
-0.00259682
-0.00210924
-0.00170635
-0.00137381
-0.00109978
-0.000874467
-0.000689743
-0.000538829
-0.000416057
-0.000316676
-0.000236697
-0.000172767
-0.000122068
-8.22338e-05
-5.12836e-05
-2.7538e-05
-9.65231e-06
3.77053e-06
1.35599e-05
2.03691e-05
2.47869e-05
2.73273e-05
2.84265e-05
2.84467e-05
2.76831e-05
2.63726e-05
2.47025e-05
2.28184e-05
2.08316e-05
1.88252e-05
1.686e-05
1.49785e-05
1.32092e-05
1.15695e-05
1.00683e-05
8.70842e-06
7.48778e-06
6.40117e-06
5.44112e-06
4.59875e-06
3.86444e-06
3.22828e-06
2.68042e-06
2.21133e-06
1.81197e-06
1.47391e-06
1.18938e-06
9.5131e-07
7.53308e-07
5.89675e-07
4.55349e-07
3.45873e-07
2.57347e-07
1.86382e-07
1.30048e-07
8.58308e-08
5.15759e-08
2.54913e-08
5.99749e-09
-7.88466e-09
-1.75049e-08
-2.38679e-08
-2.77522e-08
-2.9766e-08
-3.03864e-08
-2.99902e-08
-2.88651e-08
-2.72633e-08
-2.52725e-08
-2.33112e-08
-2.03118e-08
-1.98586e-08
-6.99864e-09
-2.49022e-08
1.20529e-07
-1.23918e-07
1.81683e-06
-1.24938e-06
2.50803e-05
-1.34157e-05
0.000347832
-0.000140671
0.00482119
-0.000857418
0.061277
0.061277
0.00751344
-0.00751344
-0.0146552
-0.0162812
-0.0149618
-0.0125487
-0.0100747
-0.0079588
-0.00628243
-0.00499021
-0.00399567
-0.00322206
-0.00261164
-0.00212353
-0.00172905
-0.00140773
-0.00114463
-0.000928459
-0.000750535
-0.000604012
-0.000483416
-0.000384311
-0.000303062
-0.000236671
-0.000182642
-0.000138891
-0.00010367
-7.55102e-05
-5.31774e-05
-3.56326e-05
-2.20059e-05
-1.15546e-05
-3.68781e-06
2.31622e-06
6.66769e-06
9.65059e-06
1.1544e-05
1.25923e-05
1.29995e-05
1.29326e-05
1.25255e-05
1.18847e-05
1.10934e-05
1.02158e-05
9.30055e-06
8.38363e-06
7.49098e-06
6.64057e-06
5.84417e-06
5.10872e-06
4.43751e-06
3.83116e-06
3.28828e-06
2.80613e-06
2.38106e-06
2.00887e-06
1.68505e-06
1.40504e-06
1.16434e-06
9.58626e-07
7.83805e-07
6.36088e-07
5.11991e-07
4.08354e-07
3.22334e-07
2.51396e-07
1.93294e-07
1.46058e-07
1.07966e-07
7.75239e-08
5.3443e-08
3.46192e-08
2.01131e-08
9.12918e-09
1.07365e-09
-4.55058e-09
-8.41092e-09
-1.09314e-08
-1.24285e-08
-1.31497e-08
-1.32907e-08
-1.30082e-08
-1.24213e-08
-1.16394e-08
-1.06838e-08
-9.7667e-09
-8.23622e-09
-7.9749e-09
-1.98323e-10
-6.25267e-09
8.7055e-08
1.11138e-08
1.26045e-06
4.79807e-07
1.73483e-05
1.02475e-05
0.000240813
0.000168711
0.00349307
0.00153827
0.0477942
0.0477942
0
0
0
0
0
0
0
0
0
0
0
0
0
0
0
0
0
0
0
0
0
0
0
0
0
0
0
0
0
0
0
0
0
0
0
0
0
0
0
0
0
0
0
0
0
0
0
0
0
0
0
0
0
0
0
0
0
0
0
0
0
0
0
0
0
0
0
0
0
0
0
0
0
0
0
0
0
0
0
0
0
0
0
0
0
0
0
0
0
0
0
0
0
0
0
0
0
0
0
0
0
0
0
0
0
0
0
0
0
0
0
0
0
0
0
0
0
0
0
0
0
0
0
0
0
0
0
0
0
0
0
0
0
0
0
0
0
0
0
0
0
0
0
0
0
0
0
0
0
0
0
0
0
0
0
0
0
0
0
0
0
0
0
0
0
0
0
0
0
0
0
0
0
0
0
0
0
0
0
0
0
0
0
0
0
0
0
0
0
0
0
0
0
0
0
0
0
0
0
0
0
0
0
0
