# vtk DataFile Version 2.0
FlowField
ASCII
DATASET STRUCTURED_GRID
DIMENSIONS 101 11 1 
POINTS 1111 double
0 0 0
0.3 0 0
0.6 0 0
0.9 0 0
1.2 0 0
1.5 0 0
1.8 0 0
2.1 0 0
2.4 0 0
2.7 0 0
3 0 0
3.3 0 0
3.6 0 0
3.9 0 0
4.2 0 0
4.5 0 0
4.8 0 0
5.1 0 0
5.4 0 0
5.7 0 0
6 0 0
6.3 0 0
6.6 0 0
6.9 0 0
7.2 0 0
7.5 0 0
7.8 0 0
8.1 0 0
8.4 0 0
8.7 0 0
9 0 0
9.3 0 0
9.6 0 0
9.9 0 0
10.2 0 0
10.5 0 0
10.8 0 0
11.1 0 0
11.4 0 0
11.7 0 0
12 0 0
12.3 0 0
12.6 0 0
12.9 0 0
13.2 0 0
13.5 0 0
13.8 0 0
14.1 0 0
14.4 0 0
14.7 0 0
15 0 0
15.3 0 0
15.6 0 0
15.9 0 0
16.2 0 0
16.5 0 0
16.8 0 0
17.1 0 0
17.4 0 0
17.7 0 0
18 0 0
18.3 0 0
18.6 0 0
18.9 0 0
19.2 0 0
19.5 0 0
19.8 0 0
20.1 0 0
20.4 0 0
20.7 0 0
21 0 0
21.3 0 0
21.6 0 0
21.9 0 0
22.2 0 0
22.5 0 0
22.8 0 0
23.1 0 0
23.4 0 0
23.7 0 0
24 0 0
24.3 0 0
24.6 0 0
24.9 0 0
25.2 0 0
25.5 0 0
25.8 0 0
26.1 0 0
26.4 0 0
26.7 0 0
27 0 0
27.3 0 0
27.6 0 0
27.9 0 0
28.2 0 0
28.5 0 0
28.8 0 0
29.1 0 0
29.4 0 0
29.7 0 0
30 0 0
0 0.1 0
0.3 0.1 0
0.6 0.1 0
0.9 0.1 0
1.2 0.1 0
1.5 0.1 0
1.8 0.1 0
2.1 0.1 0
2.4 0.1 0
2.7 0.1 0
3 0.1 0
3.3 0.1 0
3.6 0.1 0
3.9 0.1 0
4.2 0.1 0
4.5 0.1 0
4.8 0.1 0
5.1 0.1 0
5.4 0.1 0
5.7 0.1 0
6 0.1 0
6.3 0.1 0
6.6 0.1 0
6.9 0.1 0
7.2 0.1 0
7.5 0.1 0
7.8 0.1 0
8.1 0.1 0
8.4 0.1 0
8.7 0.1 0
9 0.1 0
9.3 0.1 0
9.6 0.1 0
9.9 0.1 0
10.2 0.1 0
10.5 0.1 0
10.8 0.1 0
11.1 0.1 0
11.4 0.1 0
11.7 0.1 0
12 0.1 0
12.3 0.1 0
12.6 0.1 0
12.9 0.1 0
13.2 0.1 0
13.5 0.1 0
13.8 0.1 0
14.1 0.1 0
14.4 0.1 0
14.7 0.1 0
15 0.1 0
15.3 0.1 0
15.6 0.1 0
15.9 0.1 0
16.2 0.1 0
16.5 0.1 0
16.8 0.1 0
17.1 0.1 0
17.4 0.1 0
17.7 0.1 0
18 0.1 0
18.3 0.1 0
18.6 0.1 0
18.9 0.1 0
19.2 0.1 0
19.5 0.1 0
19.8 0.1 0
20.1 0.1 0
20.4 0.1 0
20.7 0.1 0
21 0.1 0
21.3 0.1 0
21.6 0.1 0
21.9 0.1 0
22.2 0.1 0
22.5 0.1 0
22.8 0.1 0
23.1 0.1 0
23.4 0.1 0
23.7 0.1 0
24 0.1 0
24.3 0.1 0
24.6 0.1 0
24.9 0.1 0
25.2 0.1 0
25.5 0.1 0
25.8 0.1 0
26.1 0.1 0
26.4 0.1 0
26.7 0.1 0
27 0.1 0
27.3 0.1 0
27.6 0.1 0
27.9 0.1 0
28.2 0.1 0
28.5 0.1 0
28.8 0.1 0
29.1 0.1 0
29.4 0.1 0
29.7 0.1 0
30 0.1 0
0 0.2 0
0.3 0.2 0
0.6 0.2 0
0.9 0.2 0
1.2 0.2 0
1.5 0.2 0
1.8 0.2 0
2.1 0.2 0
2.4 0.2 0
2.7 0.2 0
3 0.2 0
3.3 0.2 0
3.6 0.2 0
3.9 0.2 0
4.2 0.2 0
4.5 0.2 0
4.8 0.2 0
5.1 0.2 0
5.4 0.2 0
5.7 0.2 0
6 0.2 0
6.3 0.2 0
6.6 0.2 0
6.9 0.2 0
7.2 0.2 0
7.5 0.2 0
7.8 0.2 0
8.1 0.2 0
8.4 0.2 0
8.7 0.2 0
9 0.2 0
9.3 0.2 0
9.6 0.2 0
9.9 0.2 0
10.2 0.2 0
10.5 0.2 0
10.8 0.2 0
11.1 0.2 0
11.4 0.2 0
11.7 0.2 0
12 0.2 0
12.3 0.2 0
12.6 0.2 0
12.9 0.2 0
13.2 0.2 0
13.5 0.2 0
13.8 0.2 0
14.1 0.2 0
14.4 0.2 0
14.7 0.2 0
15 0.2 0
15.3 0.2 0
15.6 0.2 0
15.9 0.2 0
16.2 0.2 0
16.5 0.2 0
16.8 0.2 0
17.1 0.2 0
17.4 0.2 0
17.7 0.2 0
18 0.2 0
18.3 0.2 0
18.6 0.2 0
18.9 0.2 0
19.2 0.2 0
19.5 0.2 0
19.8 0.2 0
20.1 0.2 0
20.4 0.2 0
20.7 0.2 0
21 0.2 0
21.3 0.2 0
21.6 0.2 0
21.9 0.2 0
22.2 0.2 0
22.5 0.2 0
22.8 0.2 0
23.1 0.2 0
23.4 0.2 0
23.7 0.2 0
24 0.2 0
24.3 0.2 0
24.6 0.2 0
24.9 0.2 0
25.2 0.2 0
25.5 0.2 0
25.8 0.2 0
26.1 0.2 0
26.4 0.2 0
26.7 0.2 0
27 0.2 0
27.3 0.2 0
27.6 0.2 0
27.9 0.2 0
28.2 0.2 0
28.5 0.2 0
28.8 0.2 0
29.1 0.2 0
29.4 0.2 0
29.7 0.2 0
30 0.2 0
0 0.3 0
0.3 0.3 0
0.6 0.3 0
0.9 0.3 0
1.2 0.3 0
1.5 0.3 0
1.8 0.3 0
2.1 0.3 0
2.4 0.3 0
2.7 0.3 0
3 0.3 0
3.3 0.3 0
3.6 0.3 0
3.9 0.3 0
4.2 0.3 0
4.5 0.3 0
4.8 0.3 0
5.1 0.3 0
5.4 0.3 0
5.7 0.3 0
6 0.3 0
6.3 0.3 0
6.6 0.3 0
6.9 0.3 0
7.2 0.3 0
7.5 0.3 0
7.8 0.3 0
8.1 0.3 0
8.4 0.3 0
8.7 0.3 0
9 0.3 0
9.3 0.3 0
9.6 0.3 0
9.9 0.3 0
10.2 0.3 0
10.5 0.3 0
10.8 0.3 0
11.1 0.3 0
11.4 0.3 0
11.7 0.3 0
12 0.3 0
12.3 0.3 0
12.6 0.3 0
12.9 0.3 0
13.2 0.3 0
13.5 0.3 0
13.8 0.3 0
14.1 0.3 0
14.4 0.3 0
14.7 0.3 0
15 0.3 0
15.3 0.3 0
15.6 0.3 0
15.9 0.3 0
16.2 0.3 0
16.5 0.3 0
16.8 0.3 0
17.1 0.3 0
17.4 0.3 0
17.7 0.3 0
18 0.3 0
18.3 0.3 0
18.6 0.3 0
18.9 0.3 0
19.2 0.3 0
19.5 0.3 0
19.8 0.3 0
20.1 0.3 0
20.4 0.3 0
20.7 0.3 0
21 0.3 0
21.3 0.3 0
21.6 0.3 0
21.9 0.3 0
22.2 0.3 0
22.5 0.3 0
22.8 0.3 0
23.1 0.3 0
23.4 0.3 0
23.7 0.3 0
24 0.3 0
24.3 0.3 0
24.6 0.3 0
24.9 0.3 0
25.2 0.3 0
25.5 0.3 0
25.8 0.3 0
26.1 0.3 0
26.4 0.3 0
26.7 0.3 0
27 0.3 0
27.3 0.3 0
27.6 0.3 0
27.9 0.3 0
28.2 0.3 0
28.5 0.3 0
28.8 0.3 0
29.1 0.3 0
29.4 0.3 0
29.7 0.3 0
30 0.3 0
0 0.4 0
0.3 0.4 0
0.6 0.4 0
0.9 0.4 0
1.2 0.4 0
1.5 0.4 0
1.8 0.4 0
2.1 0.4 0
2.4 0.4 0
2.7 0.4 0
3 0.4 0
3.3 0.4 0
3.6 0.4 0
3.9 0.4 0
4.2 0.4 0
4.5 0.4 0
4.8 0.4 0
5.1 0.4 0
5.4 0.4 0
5.7 0.4 0
6 0.4 0
6.3 0.4 0
6.6 0.4 0
6.9 0.4 0
7.2 0.4 0
7.5 0.4 0
7.8 0.4 0
8.1 0.4 0
8.4 0.4 0
8.7 0.4 0
9 0.4 0
9.3 0.4 0
9.6 0.4 0
9.9 0.4 0
10.2 0.4 0
10.5 0.4 0
10.8 0.4 0
11.1 0.4 0
11.4 0.4 0
11.7 0.4 0
12 0.4 0
12.3 0.4 0
12.6 0.4 0
12.9 0.4 0
13.2 0.4 0
13.5 0.4 0
13.8 0.4 0
14.1 0.4 0
14.4 0.4 0
14.7 0.4 0
15 0.4 0
15.3 0.4 0
15.6 0.4 0
15.9 0.4 0
16.2 0.4 0
16.5 0.4 0
16.8 0.4 0
17.1 0.4 0
17.4 0.4 0
17.7 0.4 0
18 0.4 0
18.3 0.4 0
18.6 0.4 0
18.9 0.4 0
19.2 0.4 0
19.5 0.4 0
19.8 0.4 0
20.1 0.4 0
20.4 0.4 0
20.7 0.4 0
21 0.4 0
21.3 0.4 0
21.6 0.4 0
21.9 0.4 0
22.2 0.4 0
22.5 0.4 0
22.8 0.4 0
23.1 0.4 0
23.4 0.4 0
23.7 0.4 0
24 0.4 0
24.3 0.4 0
24.6 0.4 0
24.9 0.4 0
25.2 0.4 0
25.5 0.4 0
25.8 0.4 0
26.1 0.4 0
26.4 0.4 0
26.7 0.4 0
27 0.4 0
27.3 0.4 0
27.6 0.4 0
27.9 0.4 0
28.2 0.4 0
28.5 0.4 0
28.8 0.4 0
29.1 0.4 0
29.4 0.4 0
29.7 0.4 0
30 0.4 0
0 0.5 0
0.3 0.5 0
0.6 0.5 0
0.9 0.5 0
1.2 0.5 0
1.5 0.5 0
1.8 0.5 0
2.1 0.5 0
2.4 0.5 0
2.7 0.5 0
3 0.5 0
3.3 0.5 0
3.6 0.5 0
3.9 0.5 0
4.2 0.5 0
4.5 0.5 0
4.8 0.5 0
5.1 0.5 0
5.4 0.5 0
5.7 0.5 0
6 0.5 0
6.3 0.5 0
6.6 0.5 0
6.9 0.5 0
7.2 0.5 0
7.5 0.5 0
7.8 0.5 0
8.1 0.5 0
8.4 0.5 0
8.7 0.5 0
9 0.5 0
9.3 0.5 0
9.6 0.5 0
9.9 0.5 0
10.2 0.5 0
10.5 0.5 0
10.8 0.5 0
11.1 0.5 0
11.4 0.5 0
11.7 0.5 0
12 0.5 0
12.3 0.5 0
12.6 0.5 0
12.9 0.5 0
13.2 0.5 0
13.5 0.5 0
13.8 0.5 0
14.1 0.5 0
14.4 0.5 0
14.7 0.5 0
15 0.5 0
15.3 0.5 0
15.6 0.5 0
15.9 0.5 0
16.2 0.5 0
16.5 0.5 0
16.8 0.5 0
17.1 0.5 0
17.4 0.5 0
17.7 0.5 0
18 0.5 0
18.3 0.5 0
18.6 0.5 0
18.9 0.5 0
19.2 0.5 0
19.5 0.5 0
19.8 0.5 0
20.1 0.5 0
20.4 0.5 0
20.7 0.5 0
21 0.5 0
21.3 0.5 0
21.6 0.5 0
21.9 0.5 0
22.2 0.5 0
22.5 0.5 0
22.8 0.5 0
23.1 0.5 0
23.4 0.5 0
23.7 0.5 0
24 0.5 0
24.3 0.5 0
24.6 0.5 0
24.9 0.5 0
25.2 0.5 0
25.5 0.5 0
25.8 0.5 0
26.1 0.5 0
26.4 0.5 0
26.7 0.5 0
27 0.5 0
27.3 0.5 0
27.6 0.5 0
27.9 0.5 0
28.2 0.5 0
28.5 0.5 0
28.8 0.5 0
29.1 0.5 0
29.4 0.5 0
29.7 0.5 0
30 0.5 0
0 0.6 0
0.3 0.6 0
0.6 0.6 0
0.9 0.6 0
1.2 0.6 0
1.5 0.6 0
1.8 0.6 0
2.1 0.6 0
2.4 0.6 0
2.7 0.6 0
3 0.6 0
3.3 0.6 0
3.6 0.6 0
3.9 0.6 0
4.2 0.6 0
4.5 0.6 0
4.8 0.6 0
5.1 0.6 0
5.4 0.6 0
5.7 0.6 0
6 0.6 0
6.3 0.6 0
6.6 0.6 0
6.9 0.6 0
7.2 0.6 0
7.5 0.6 0
7.8 0.6 0
8.1 0.6 0
8.4 0.6 0
8.7 0.6 0
9 0.6 0
9.3 0.6 0
9.6 0.6 0
9.9 0.6 0
10.2 0.6 0
10.5 0.6 0
10.8 0.6 0
11.1 0.6 0
11.4 0.6 0
11.7 0.6 0
12 0.6 0
12.3 0.6 0
12.6 0.6 0
12.9 0.6 0
13.2 0.6 0
13.5 0.6 0
13.8 0.6 0
14.1 0.6 0
14.4 0.6 0
14.7 0.6 0
15 0.6 0
15.3 0.6 0
15.6 0.6 0
15.9 0.6 0
16.2 0.6 0
16.5 0.6 0
16.8 0.6 0
17.1 0.6 0
17.4 0.6 0
17.7 0.6 0
18 0.6 0
18.3 0.6 0
18.6 0.6 0
18.9 0.6 0
19.2 0.6 0
19.5 0.6 0
19.8 0.6 0
20.1 0.6 0
20.4 0.6 0
20.7 0.6 0
21 0.6 0
21.3 0.6 0
21.6 0.6 0
21.9 0.6 0
22.2 0.6 0
22.5 0.6 0
22.8 0.6 0
23.1 0.6 0
23.4 0.6 0
23.7 0.6 0
24 0.6 0
24.3 0.6 0
24.6 0.6 0
24.9 0.6 0
25.2 0.6 0
25.5 0.6 0
25.8 0.6 0
26.1 0.6 0
26.4 0.6 0
26.7 0.6 0
27 0.6 0
27.3 0.6 0
27.6 0.6 0
27.9 0.6 0
28.2 0.6 0
28.5 0.6 0
28.8 0.6 0
29.1 0.6 0
29.4 0.6 0
29.7 0.6 0
30 0.6 0
0 0.7 0
0.3 0.7 0
0.6 0.7 0
0.9 0.7 0
1.2 0.7 0
1.5 0.7 0
1.8 0.7 0
2.1 0.7 0
2.4 0.7 0
2.7 0.7 0
3 0.7 0
3.3 0.7 0
3.6 0.7 0
3.9 0.7 0
4.2 0.7 0
4.5 0.7 0
4.8 0.7 0
5.1 0.7 0
5.4 0.7 0
5.7 0.7 0
6 0.7 0
6.3 0.7 0
6.6 0.7 0
6.9 0.7 0
7.2 0.7 0
7.5 0.7 0
7.8 0.7 0
8.1 0.7 0
8.4 0.7 0
8.7 0.7 0
9 0.7 0
9.3 0.7 0
9.6 0.7 0
9.9 0.7 0
10.2 0.7 0
10.5 0.7 0
10.8 0.7 0
11.1 0.7 0
11.4 0.7 0
11.7 0.7 0
12 0.7 0
12.3 0.7 0
12.6 0.7 0
12.9 0.7 0
13.2 0.7 0
13.5 0.7 0
13.8 0.7 0
14.1 0.7 0
14.4 0.7 0
14.7 0.7 0
15 0.7 0
15.3 0.7 0
15.6 0.7 0
15.9 0.7 0
16.2 0.7 0
16.5 0.7 0
16.8 0.7 0
17.1 0.7 0
17.4 0.7 0
17.7 0.7 0
18 0.7 0
18.3 0.7 0
18.6 0.7 0
18.9 0.7 0
19.2 0.7 0
19.5 0.7 0
19.8 0.7 0
20.1 0.7 0
20.4 0.7 0
20.7 0.7 0
21 0.7 0
21.3 0.7 0
21.6 0.7 0
21.9 0.7 0
22.2 0.7 0
22.5 0.7 0
22.8 0.7 0
23.1 0.7 0
23.4 0.7 0
23.7 0.7 0
24 0.7 0
24.3 0.7 0
24.6 0.7 0
24.9 0.7 0
25.2 0.7 0
25.5 0.7 0
25.8 0.7 0
26.1 0.7 0
26.4 0.7 0
26.7 0.7 0
27 0.7 0
27.3 0.7 0
27.6 0.7 0
27.9 0.7 0
28.2 0.7 0
28.5 0.7 0
28.8 0.7 0
29.1 0.7 0
29.4 0.7 0
29.7 0.7 0
30 0.7 0
0 0.8 0
0.3 0.8 0
0.6 0.8 0
0.9 0.8 0
1.2 0.8 0
1.5 0.8 0
1.8 0.8 0
2.1 0.8 0
2.4 0.8 0
2.7 0.8 0
3 0.8 0
3.3 0.8 0
3.6 0.8 0
3.9 0.8 0
4.2 0.8 0
4.5 0.8 0
4.8 0.8 0
5.1 0.8 0
5.4 0.8 0
5.7 0.8 0
6 0.8 0
6.3 0.8 0
6.6 0.8 0
6.9 0.8 0
7.2 0.8 0
7.5 0.8 0
7.8 0.8 0
8.1 0.8 0
8.4 0.8 0
8.7 0.8 0
9 0.8 0
9.3 0.8 0
9.6 0.8 0
9.9 0.8 0
10.2 0.8 0
10.5 0.8 0
10.8 0.8 0
11.1 0.8 0
11.4 0.8 0
11.7 0.8 0
12 0.8 0
12.3 0.8 0
12.6 0.8 0
12.9 0.8 0
13.2 0.8 0
13.5 0.8 0
13.8 0.8 0
14.1 0.8 0
14.4 0.8 0
14.7 0.8 0
15 0.8 0
15.3 0.8 0
15.6 0.8 0
15.9 0.8 0
16.2 0.8 0
16.5 0.8 0
16.8 0.8 0
17.1 0.8 0
17.4 0.8 0
17.7 0.8 0
18 0.8 0
18.3 0.8 0
18.6 0.8 0
18.9 0.8 0
19.2 0.8 0
19.5 0.8 0
19.8 0.8 0
20.1 0.8 0
20.4 0.8 0
20.7 0.8 0
21 0.8 0
21.3 0.8 0
21.6 0.8 0
21.9 0.8 0
22.2 0.8 0
22.5 0.8 0
22.8 0.8 0
23.1 0.8 0
23.4 0.8 0
23.7 0.8 0
24 0.8 0
24.3 0.8 0
24.6 0.8 0
24.9 0.8 0
25.2 0.8 0
25.5 0.8 0
25.8 0.8 0
26.1 0.8 0
26.4 0.8 0
26.7 0.8 0
27 0.8 0
27.3 0.8 0
27.6 0.8 0
27.9 0.8 0
28.2 0.8 0
28.5 0.8 0
28.8 0.8 0
29.1 0.8 0
29.4 0.8 0
29.7 0.8 0
30 0.8 0
0 0.9 0
0.3 0.9 0
0.6 0.9 0
0.9 0.9 0
1.2 0.9 0
1.5 0.9 0
1.8 0.9 0
2.1 0.9 0
2.4 0.9 0
2.7 0.9 0
3 0.9 0
3.3 0.9 0
3.6 0.9 0
3.9 0.9 0
4.2 0.9 0
4.5 0.9 0
4.8 0.9 0
5.1 0.9 0
5.4 0.9 0
5.7 0.9 0
6 0.9 0
6.3 0.9 0
6.6 0.9 0
6.9 0.9 0
7.2 0.9 0
7.5 0.9 0
7.8 0.9 0
8.1 0.9 0
8.4 0.9 0
8.7 0.9 0
9 0.9 0
9.3 0.9 0
9.6 0.9 0
9.9 0.9 0
10.2 0.9 0
10.5 0.9 0
10.8 0.9 0
11.1 0.9 0
11.4 0.9 0
11.7 0.9 0
12 0.9 0
12.3 0.9 0
12.6 0.9 0
12.9 0.9 0
13.2 0.9 0
13.5 0.9 0
13.8 0.9 0
14.1 0.9 0
14.4 0.9 0
14.7 0.9 0
15 0.9 0
15.3 0.9 0
15.6 0.9 0
15.9 0.9 0
16.2 0.9 0
16.5 0.9 0
16.8 0.9 0
17.1 0.9 0
17.4 0.9 0
17.7 0.9 0
18 0.9 0
18.3 0.9 0
18.6 0.9 0
18.9 0.9 0
19.2 0.9 0
19.5 0.9 0
19.8 0.9 0
20.1 0.9 0
20.4 0.9 0
20.7 0.9 0
21 0.9 0
21.3 0.9 0
21.6 0.9 0
21.9 0.9 0
22.2 0.9 0
22.5 0.9 0
22.8 0.9 0
23.1 0.9 0
23.4 0.9 0
23.7 0.9 0
24 0.9 0
24.3 0.9 0
24.6 0.9 0
24.9 0.9 0
25.2 0.9 0
25.5 0.9 0
25.8 0.9 0
26.1 0.9 0
26.4 0.9 0
26.7 0.9 0
27 0.9 0
27.3 0.9 0
27.6 0.9 0
27.9 0.9 0
28.2 0.9 0
28.5 0.9 0
28.8 0.9 0
29.1 0.9 0
29.4 0.9 0
29.7 0.9 0
30 0.9 0
0 1 0
0.3 1 0
0.6 1 0
0.9 1 0
1.2 1 0
1.5 1 0
1.8 1 0
2.1 1 0
2.4 1 0
2.7 1 0
3 1 0
3.3 1 0
3.6 1 0
3.9 1 0
4.2 1 0
4.5 1 0
4.8 1 0
5.1 1 0
5.4 1 0
5.7 1 0
6 1 0
6.3 1 0
6.6 1 0
6.9 1 0
7.2 1 0
7.5 1 0
7.8 1 0
8.1 1 0
8.4 1 0
8.7 1 0
9 1 0
9.3 1 0
9.6 1 0
9.9 1 0
10.2 1 0
10.5 1 0
10.8 1 0
11.1 1 0
11.4 1 0
11.7 1 0
12 1 0
12.3 1 0
12.6 1 0
12.9 1 0
13.2 1 0
13.5 1 0
13.8 1 0
14.1 1 0
14.4 1 0
14.7 1 0
15 1 0
15.3 1 0
15.6 1 0
15.9 1 0
16.2 1 0
16.5 1 0
16.8 1 0
17.1 1 0
17.4 1 0
17.7 1 0
18 1 0
18.3 1 0
18.6 1 0
18.9 1 0
19.2 1 0
19.5 1 0
19.8 1 0
20.1 1 0
20.4 1 0
20.7 1 0
21 1 0
21.3 1 0
21.6 1 0
21.9 1 0
22.2 1 0
22.5 1 0
22.8 1 0
23.1 1 0
23.4 1 0
23.7 1 0
24 1 0
24.3 1 0
24.6 1 0
24.9 1 0
25.2 1 0
25.5 1 0
25.8 1 0
26.1 1 0
26.4 1 0
26.7 1 0
27 1 0
27.3 1 0
27.6 1 0
27.9 1 0
28.2 1 0
28.5 1 0
28.8 1 0
29.1 1 0
29.4 1 0
29.7 1 0
30 1 0

POINT_DATA 1111

SCALARS phi double
LOOKUP_TABLE default
1
1
1
0.999994
0.999972
0.999915
0.999796
0.999583
0.999241
0.998737
0.998043
0.997137
0.996001
0.994627
0.993007
0.991142
0.989033
0.986688
0.984115
0.981323
0.978324
0.975132
0.971759
0.96822
0.964528
0.960697
0.95674
0.952671
0.948502
0.944245
0.939912
0.935513
0.931055
0.926543
0.921975
0.917346
0.912643
0.907845
0.902926
0.897854
0.892593
0.887104
0.881345
0.875277
0.868863
0.862067
0.854859
0.847212
0.839108
0.830531
0.821472
0.81193
0.801906
0.79141
0.780453
0.769053
0.75723
0.745009
0.732415
0.719478
0.706226
0.692692
0.678907
0.664902
0.65071
0.636361
0.621886
0.607314
0.592673
0.577991
0.563292
0.548602
0.533943
0.519335
0.504798
0.49035
0.476008
0.461786
0.447698
0.433756
0.419971
0.406353
0.39291
0.37965
0.366579
0.353704
0.341028
0.328557
0.316293
0.30424
0.2924
0.280775
0.269368
0.258178
0.247214
0.236447
0.225984
0.215463
0.206133
0.193622
0.193622
1
1
1
0.999994
0.999972
0.999915
0.999796
0.999583
0.999241
0.998737
0.998043
0.997137
0.996001
0.994627
0.993007
0.991142
0.989033
0.986688
0.984115
0.981323
0.978324
0.975132
0.971759
0.96822
0.964528
0.960697
0.95674
0.952671
0.948502
0.944245
0.939912
0.935513
0.931055
0.926543
0.921975
0.917346
0.912643
0.907845
0.902926
0.897854
0.892593
0.887104
0.881345
0.875277
0.868863
0.862067
0.854859
0.847212
0.839108
0.830531
0.821472
0.81193
0.801906
0.79141
0.780453
0.769053
0.75723
0.745009
0.732415
0.719478
0.706226
0.692692
0.678907
0.664902
0.65071
0.636361
0.621886
0.607314
0.592673
0.577991
0.563292
0.548602
0.533943
0.519335
0.504798
0.49035
0.476008
0.461786
0.447698
0.433756
0.419971
0.406353
0.39291
0.37965
0.366579
0.353704
0.341028
0.328557
0.316293
0.30424
0.2924
0.280775
0.269368
0.258178
0.247214
0.236447
0.225984
0.215463
0.206133
0.193622
0.193622
0.999997
1
0.999982
0.999903
0.99973
0.999422
0.998942
0.998257
0.99734
0.996174
0.994749
0.99306
0.99111
0.988905
0.986455
0.983773
0.98087
0.977762
0.974464
0.97099
0.967356
0.963575
0.959662
0.955631
0.951494
0.947265
0.942954
0.938574
0.934133
0.929643
0.925113
0.92055
0.915962
0.911356
0.906735
0.902103
0.897457
0.892793
0.888103
0.883374
0.87859
0.873729
0.868767
0.863679
0.858435
0.853007
0.847366
0.841483
0.835332
0.828887
0.822129
0.815039
0.807601
0.799805
0.791645
0.783116
0.774219
0.764959
0.755341
0.745377
0.735079
0.724462
0.713542
0.702339
0.690873
0.679164
0.667234
0.655105
0.642799
0.630339
0.617746
0.605042
0.592248
0.579383
0.566468
0.553521
0.540559
0.5276
0.514659
0.501751
0.488889
0.476086
0.463354
0.450703
0.438143
0.425684
0.413333
0.401098
0.388985
0.377
0.365148
0.353434
0.341864
0.330436
0.319168
0.308018
0.297136
0.286038
0.276333
0.262707
0.262707
1
0.999999
0.99946
0.998318
0.996569
0.994237
0.991359
0.987986
0.984174
0.979985
0.975479
0.970715
0.965744
0.960613
0.955362
0.950025
0.944629
0.9392
0.933756
0.928313
0.922885
0.917483
0.912115
0.906789
0.901509
0.896282
0.891109
0.885995
0.880941
0.875948
0.871018
0.866152
0.861349
0.856612
0.851938
0.847327
0.842779
0.83829
0.833857
0.829475
0.825138
0.820838
0.816563
0.812303
0.808043
0.803768
0.799461
0.795103
0.790677
0.786161
0.781538
0.776787
0.77189
0.76683
0.761591
0.756157
0.750515
0.744653
0.738564
0.732238
0.725671
0.718859
0.711801
0.704497
0.696949
0.689161
0.681138
0.672886
0.664414
0.65573
0.646844
0.637766
0.628507
0.619079
0.609493
0.59976
0.589894
0.579905
0.569806
0.559608
0.549323
0.538961
0.528533
0.51805
0.50752
0.496954
0.48636
0.475748
0.465124
0.454496
0.443871
0.433256
0.422658
0.412078
0.401539
0.39099
0.38061
0.369851
0.360475
0.34689
0.34689
1.00152
0.998478
0.989845
0.978523
0.966041
0.953192
0.940393
0.927875
0.915766
0.904141
0.893035
0.882463
0.87242
0.862891
0.853856
0.845287
0.837157
0.829439
0.822103
0.815125
0.808478
0.80214
0.796087
0.790301
0.784762
0.779454
0.77436
0.769467
0.76476
0.760229
0.755861
0.751646
0.747575
0.74364
0.739832
0.736143
0.732568
0.7291
0.725732
0.722458
0.719272
0.716167
0.713138
0.710178
0.707278
0.704431
0.701627
0.698859
0.696114
0.693384
0.690655
0.687917
0.685157
0.682363
0.679522
0.676621
0.673647
0.670588
0.667432
0.664168
0.660785
0.657272
0.65362
0.64982
0.645865
0.641749
0.637464
0.633006
0.628372
0.623557
0.618561
0.613381
0.608017
0.602469
0.596738
0.590825
0.584733
0.578463
0.572019
0.565405
0.558623
0.551679
0.544575
0.537318
0.52991
0.522358
0.514665
0.506836
0.498878
0.490794
0.482589
0.474269
0.465839
0.457299
0.448672
0.439907
0.431181
0.421967
0.41392
0.401911
0.401911
1.04956
0.950436
0.872951
0.815234
0.771993
0.739004
0.713323
0.692935
0.676455
0.662919
0.651641
0.642125
0.634005
0.627008
0.620923
0.61559
0.61088
0.606694
0.60295
0.599584
0.596543
0.593782
0.591266
0.588964
0.586851
0.584905
0.583109
0.581447
0.579906
0.578473
0.577139
0.575895
0.574733
0.573646
0.572629
0.571676
0.570781
0.569941
0.569152
0.568409
0.56771
0.567051
0.56643
0.565841
0.565284
0.564754
0.564248
0.563762
0.563292
0.562833
0.562382
0.561933
0.56148
0.561017
0.560539
0.560037
0.559506
0.558937
0.558322
0.557654
0.556924
0.556124
0.555245
0.554279
0.553216
0.552049
0.550769
0.549367
0.547836
0.546168
0.544355
0.542391
0.540267
0.537979
0.535519
0.532883
0.530064
0.527059
0.523863
0.520472
0.516883
0.513093
0.509099
0.5049
0.500493
0.495879
0.491056
0.486024
0.480784
0.475336
0.469682
0.463823
0.457763
0.451498
0.445048
0.438367
0.431609
0.424316
0.417912
0.408048
0.408048
-0.0440411
0.0440411
0.104658
0.147826
0.179978
0.204969
0.225119
0.241852
0.256065
0.268346
0.279103
0.288632
0.297153
0.30484
0.31183
0.318232
0.324136
0.329615
0.334729
0.339527
0.344051
0.348335
0.352408
0.356294
0.360014
0.363586
0.367024
0.370342
0.373551
0.376661
0.379679
0.382613
0.385471
0.388257
0.390976
0.393633
0.396232
0.398777
0.401269
0.403713
0.40611
0.408462
0.410772
0.413041
0.41527
0.41746
0.419612
0.421727
0.423805
0.425844
0.427846
0.429808
0.43173
0.433609
0.435443
0.437229
0.438964
0.440643
0.442262
0.443817
0.445301
0.446709
0.448034
0.449268
0.450406
0.451438
0.452358
0.453155
0.453823
0.454352
0.454733
0.454958
0.455018
0.454904
0.454607
0.454119
0.453431
0.452537
0.451429
0.450098
0.44854
0.446748
0.444716
0.44244
0.439915
0.437138
0.434106
0.430816
0.427267
0.423459
0.419391
0.415063
0.41048
0.405637
0.400552
0.395185
0.389674
0.383615
0.37826
0.369821
0.369821
-0.00135393
0.00135393
0.00757106
0.0154113
0.0241244
0.0333479
0.0428735
0.0525556
0.0622788
0.07195
0.0814968
0.0908661
0.100022
0.108944
0.11762
0.126049
0.134233
0.142179
0.149896
0.157395
0.164686
0.171781
0.178688
0.185419
0.191982
0.198387
0.204641
0.210752
0.216726
0.222571
0.22829
0.23389
0.239375
0.24475
0.250018
0.255184
0.26025
0.26522
0.270097
0.274882
0.27958
0.284191
0.288718
0.293163
0.297527
0.301811
0.306016
0.310143
0.314192
0.318163
0.322055
0.325868
0.329598
0.333245
0.336805
0.340275
0.343652
0.34693
0.350105
0.35317
0.356121
0.358949
0.361648
0.36421
0.366627
0.36889
0.370991
0.372921
0.37467
0.37623
0.37759
0.378743
0.379678
0.380388
0.380863
0.381095
0.381078
0.380803
0.380264
0.379455
0.378371
0.377008
0.375361
0.373428
0.371207
0.368696
0.365896
0.362807
0.359431
0.35577
0.351827
0.347607
0.343116
0.338356
0.333346
0.328054
0.322612
0.316645
0.311348
0.303073
0.303073
-1.12304e-05
1.12304e-05
0.000371135
0.00113545
0.00236809
0.00411785
0.00641416
0.00926464
0.0126562
0.0165593
0.0209329
0.0257304
0.0309028
0.036402
0.0421821
0.0482008
0.0544193
0.0608023
0.0673182
0.0739388
0.0806389
0.087396
0.0941902
0.101004
0.107821
0.114629
0.121414
0.128167
0.134878
0.141539
0.148144
0.154686
0.16116
0.167561
0.173887
0.180134
0.186299
0.192381
0.198378
0.204288
0.21011
0.215842
0.221485
0.227035
0.232492
0.237854
0.243119
0.248284
0.253346
0.258302
0.263146
0.267876
0.272485
0.276967
0.281316
0.285524
0.289584
0.293489
0.297228
0.300794
0.304177
0.307368
0.310357
0.313133
0.315688
0.318012
0.320094
0.321927
0.3235
0.324805
0.325834
0.32658
0.327035
0.327194
0.327051
0.326602
0.325843
0.324771
0.323384
0.321682
0.319666
0.317336
0.314695
0.311746
0.308495
0.304945
0.301105
0.296981
0.292582
0.287917
0.282996
0.277829
0.27243
0.266807
0.260983
0.254939
0.248796
0.242216
0.23635
0.227559
0.227559
1.70138e-06
-1.70138e-06
1.49765e-05
9.33843e-05
0.000299334
0.000718214
0.00144362
0.00256259
0.00414307
0.0062276
0.00883328
0.0119559
0.0155752
0.0196605
0.0241746
0.0290772
0.0343265
0.0398817
0.0457028
0.0517522
0.0579944
0.0643967
0.0709289
0.0775635
0.0842758
0.0910431
0.0978457
0.104665
0.111487
0.118295
0.125079
0.131828
0.138532
0.145183
0.151774
0.1583
0.164754
0.171133
0.177432
0.183648
0.189777
0.195814
0.201757
0.207601
0.213342
0.218974
0.224492
0.22989
0.23516
0.240296
0.245288
0.250129
0.254808
0.259317
0.263644
0.267778
0.27171
0.275428
0.278919
0.282174
0.285181
0.28793
0.290408
0.292607
0.294516
0.296126
0.29743
0.298418
0.299084
0.299423
0.29943
0.2991
0.29843
0.29742
0.296068
0.294375
0.292344
0.289977
0.287278
0.284253
0.28091
0.277254
0.273296
0.269045
0.264513
0.259711
0.254651
0.249347
0.243815
0.238067
0.23212
0.22599
0.219694
0.213245
0.206669
0.199958
0.193212
0.186167
0.179798
0.170829
0.170829
1.70138e-06
-1.70138e-06
1.49765e-05
9.33843e-05
0.000299334
0.000718214
0.00144362
0.00256259
0.00414307
0.0062276
0.00883328
0.0119559
0.0155752
0.0196605
0.0241746
0.0290772
0.0343265
0.0398817
0.0457028
0.0517522
0.0579944
0.0643967
0.0709289
0.0775635
0.0842758
0.0910431
0.0978457
0.104665
0.111487
0.118295
0.125079
0.131828
0.138532
0.145183
0.151774
0.1583
0.164754
0.171133
0.177432
0.183648
0.189777
0.195814
0.201757
0.207601
0.213342
0.218974
0.224492
0.22989
0.23516
0.240296
0.245288
0.250129
0.254808
0.259317
0.263644
0.267778
0.27171
0.275428
0.278919
0.282174
0.285181
0.28793
0.290408
0.292607
0.294516
0.296126
0.29743
0.298418
0.299084
0.299423
0.29943
0.2991
0.29843
0.29742
0.296068
0.294375
0.292344
0.289977
0.287278
0.284253
0.28091
0.277254
0.273296
0.269045
0.264513
0.259711
0.254651
0.249347
0.243815
0.238067
0.23212
0.22599
0.219694
0.213245
0.206669
0.199958
0.193212
0.186167
0.179798
0.170829
0.170829
