# vtk DataFile Version 2.0
FlowField
ASCII
DATASET STRUCTURED_GRID
DIMENSIONS 102 12 1 
POINTS 1224 double
0 0 0
0.3 0 0
0.6 0 0
0.9 0 0
1.2 0 0
1.5 0 0
1.8 0 0
2.1 0 0
2.4 0 0
2.7 0 0
3 0 0
3.3 0 0
3.6 0 0
3.9 0 0
4.2 0 0
4.5 0 0
4.8 0 0
5.1 0 0
5.4 0 0
5.7 0 0
6 0 0
6.3 0 0
6.6 0 0
6.9 0 0
7.2 0 0
7.5 0 0
7.8 0 0
8.1 0 0
8.4 0 0
8.7 0 0
9 0 0
9.3 0 0
9.6 0 0
9.9 0 0
10.2 0 0
10.5 0 0
10.8 0 0
11.1 0 0
11.4 0 0
11.7 0 0
12 0 0
12.3 0 0
12.6 0 0
12.9 0 0
13.2 0 0
13.5 0 0
13.8 0 0
14.1 0 0
14.4 0 0
14.7 0 0
15 0 0
15.3 0 0
15.6 0 0
15.9 0 0
16.2 0 0
16.5 0 0
16.8 0 0
17.1 0 0
17.4 0 0
17.7 0 0
18 0 0
18.3 0 0
18.6 0 0
18.9 0 0
19.2 0 0
19.5 0 0
19.8 0 0
20.1 0 0
20.4 0 0
20.7 0 0
21 0 0
21.3 0 0
21.6 0 0
21.9 0 0
22.2 0 0
22.5 0 0
22.8 0 0
23.1 0 0
23.4 0 0
23.7 0 0
24 0 0
24.3 0 0
24.6 0 0
24.9 0 0
25.2 0 0
25.5 0 0
25.8 0 0
26.1 0 0
26.4 0 0
26.7 0 0
27 0 0
27.3 0 0
27.6 0 0
27.9 0 0
28.2 0 0
28.5 0 0
28.8 0 0
29.1 0 0
29.4 0 0
29.7 0 0
30 0 0
30.3 0 0
0 0.1 0
0.3 0.1 0
0.6 0.1 0
0.9 0.1 0
1.2 0.1 0
1.5 0.1 0
1.8 0.1 0
2.1 0.1 0
2.4 0.1 0
2.7 0.1 0
3 0.1 0
3.3 0.1 0
3.6 0.1 0
3.9 0.1 0
4.2 0.1 0
4.5 0.1 0
4.8 0.1 0
5.1 0.1 0
5.4 0.1 0
5.7 0.1 0
6 0.1 0
6.3 0.1 0
6.6 0.1 0
6.9 0.1 0
7.2 0.1 0
7.5 0.1 0
7.8 0.1 0
8.1 0.1 0
8.4 0.1 0
8.7 0.1 0
9 0.1 0
9.3 0.1 0
9.6 0.1 0
9.9 0.1 0
10.2 0.1 0
10.5 0.1 0
10.8 0.1 0
11.1 0.1 0
11.4 0.1 0
11.7 0.1 0
12 0.1 0
12.3 0.1 0
12.6 0.1 0
12.9 0.1 0
13.2 0.1 0
13.5 0.1 0
13.8 0.1 0
14.1 0.1 0
14.4 0.1 0
14.7 0.1 0
15 0.1 0
15.3 0.1 0
15.6 0.1 0
15.9 0.1 0
16.2 0.1 0
16.5 0.1 0
16.8 0.1 0
17.1 0.1 0
17.4 0.1 0
17.7 0.1 0
18 0.1 0
18.3 0.1 0
18.6 0.1 0
18.9 0.1 0
19.2 0.1 0
19.5 0.1 0
19.8 0.1 0
20.1 0.1 0
20.4 0.1 0
20.7 0.1 0
21 0.1 0
21.3 0.1 0
21.6 0.1 0
21.9 0.1 0
22.2 0.1 0
22.5 0.1 0
22.8 0.1 0
23.1 0.1 0
23.4 0.1 0
23.7 0.1 0
24 0.1 0
24.3 0.1 0
24.6 0.1 0
24.9 0.1 0
25.2 0.1 0
25.5 0.1 0
25.8 0.1 0
26.1 0.1 0
26.4 0.1 0
26.7 0.1 0
27 0.1 0
27.3 0.1 0
27.6 0.1 0
27.9 0.1 0
28.2 0.1 0
28.5 0.1 0
28.8 0.1 0
29.1 0.1 0
29.4 0.1 0
29.7 0.1 0
30 0.1 0
30.3 0.1 0
0 0.2 0
0.3 0.2 0
0.6 0.2 0
0.9 0.2 0
1.2 0.2 0
1.5 0.2 0
1.8 0.2 0
2.1 0.2 0
2.4 0.2 0
2.7 0.2 0
3 0.2 0
3.3 0.2 0
3.6 0.2 0
3.9 0.2 0
4.2 0.2 0
4.5 0.2 0
4.8 0.2 0
5.1 0.2 0
5.4 0.2 0
5.7 0.2 0
6 0.2 0
6.3 0.2 0
6.6 0.2 0
6.9 0.2 0
7.2 0.2 0
7.5 0.2 0
7.8 0.2 0
8.1 0.2 0
8.4 0.2 0
8.7 0.2 0
9 0.2 0
9.3 0.2 0
9.6 0.2 0
9.9 0.2 0
10.2 0.2 0
10.5 0.2 0
10.8 0.2 0
11.1 0.2 0
11.4 0.2 0
11.7 0.2 0
12 0.2 0
12.3 0.2 0
12.6 0.2 0
12.9 0.2 0
13.2 0.2 0
13.5 0.2 0
13.8 0.2 0
14.1 0.2 0
14.4 0.2 0
14.7 0.2 0
15 0.2 0
15.3 0.2 0
15.6 0.2 0
15.9 0.2 0
16.2 0.2 0
16.5 0.2 0
16.8 0.2 0
17.1 0.2 0
17.4 0.2 0
17.7 0.2 0
18 0.2 0
18.3 0.2 0
18.6 0.2 0
18.9 0.2 0
19.2 0.2 0
19.5 0.2 0
19.8 0.2 0
20.1 0.2 0
20.4 0.2 0
20.7 0.2 0
21 0.2 0
21.3 0.2 0
21.6 0.2 0
21.9 0.2 0
22.2 0.2 0
22.5 0.2 0
22.8 0.2 0
23.1 0.2 0
23.4 0.2 0
23.7 0.2 0
24 0.2 0
24.3 0.2 0
24.6 0.2 0
24.9 0.2 0
25.2 0.2 0
25.5 0.2 0
25.8 0.2 0
26.1 0.2 0
26.4 0.2 0
26.7 0.2 0
27 0.2 0
27.3 0.2 0
27.6 0.2 0
27.9 0.2 0
28.2 0.2 0
28.5 0.2 0
28.8 0.2 0
29.1 0.2 0
29.4 0.2 0
29.7 0.2 0
30 0.2 0
30.3 0.2 0
0 0.3 0
0.3 0.3 0
0.6 0.3 0
0.9 0.3 0
1.2 0.3 0
1.5 0.3 0
1.8 0.3 0
2.1 0.3 0
2.4 0.3 0
2.7 0.3 0
3 0.3 0
3.3 0.3 0
3.6 0.3 0
3.9 0.3 0
4.2 0.3 0
4.5 0.3 0
4.8 0.3 0
5.1 0.3 0
5.4 0.3 0
5.7 0.3 0
6 0.3 0
6.3 0.3 0
6.6 0.3 0
6.9 0.3 0
7.2 0.3 0
7.5 0.3 0
7.8 0.3 0
8.1 0.3 0
8.4 0.3 0
8.7 0.3 0
9 0.3 0
9.3 0.3 0
9.6 0.3 0
9.9 0.3 0
10.2 0.3 0
10.5 0.3 0
10.8 0.3 0
11.1 0.3 0
11.4 0.3 0
11.7 0.3 0
12 0.3 0
12.3 0.3 0
12.6 0.3 0
12.9 0.3 0
13.2 0.3 0
13.5 0.3 0
13.8 0.3 0
14.1 0.3 0
14.4 0.3 0
14.7 0.3 0
15 0.3 0
15.3 0.3 0
15.6 0.3 0
15.9 0.3 0
16.2 0.3 0
16.5 0.3 0
16.8 0.3 0
17.1 0.3 0
17.4 0.3 0
17.7 0.3 0
18 0.3 0
18.3 0.3 0
18.6 0.3 0
18.9 0.3 0
19.2 0.3 0
19.5 0.3 0
19.8 0.3 0
20.1 0.3 0
20.4 0.3 0
20.7 0.3 0
21 0.3 0
21.3 0.3 0
21.6 0.3 0
21.9 0.3 0
22.2 0.3 0
22.5 0.3 0
22.8 0.3 0
23.1 0.3 0
23.4 0.3 0
23.7 0.3 0
24 0.3 0
24.3 0.3 0
24.6 0.3 0
24.9 0.3 0
25.2 0.3 0
25.5 0.3 0
25.8 0.3 0
26.1 0.3 0
26.4 0.3 0
26.7 0.3 0
27 0.3 0
27.3 0.3 0
27.6 0.3 0
27.9 0.3 0
28.2 0.3 0
28.5 0.3 0
28.8 0.3 0
29.1 0.3 0
29.4 0.3 0
29.7 0.3 0
30 0.3 0
30.3 0.3 0
0 0.4 0
0.3 0.4 0
0.6 0.4 0
0.9 0.4 0
1.2 0.4 0
1.5 0.4 0
1.8 0.4 0
2.1 0.4 0
2.4 0.4 0
2.7 0.4 0
3 0.4 0
3.3 0.4 0
3.6 0.4 0
3.9 0.4 0
4.2 0.4 0
4.5 0.4 0
4.8 0.4 0
5.1 0.4 0
5.4 0.4 0
5.7 0.4 0
6 0.4 0
6.3 0.4 0
6.6 0.4 0
6.9 0.4 0
7.2 0.4 0
7.5 0.4 0
7.8 0.4 0
8.1 0.4 0
8.4 0.4 0
8.7 0.4 0
9 0.4 0
9.3 0.4 0
9.6 0.4 0
9.9 0.4 0
10.2 0.4 0
10.5 0.4 0
10.8 0.4 0
11.1 0.4 0
11.4 0.4 0
11.7 0.4 0
12 0.4 0
12.3 0.4 0
12.6 0.4 0
12.9 0.4 0
13.2 0.4 0
13.5 0.4 0
13.8 0.4 0
14.1 0.4 0
14.4 0.4 0
14.7 0.4 0
15 0.4 0
15.3 0.4 0
15.6 0.4 0
15.9 0.4 0
16.2 0.4 0
16.5 0.4 0
16.8 0.4 0
17.1 0.4 0
17.4 0.4 0
17.7 0.4 0
18 0.4 0
18.3 0.4 0
18.6 0.4 0
18.9 0.4 0
19.2 0.4 0
19.5 0.4 0
19.8 0.4 0
20.1 0.4 0
20.4 0.4 0
20.7 0.4 0
21 0.4 0
21.3 0.4 0
21.6 0.4 0
21.9 0.4 0
22.2 0.4 0
22.5 0.4 0
22.8 0.4 0
23.1 0.4 0
23.4 0.4 0
23.7 0.4 0
24 0.4 0
24.3 0.4 0
24.6 0.4 0
24.9 0.4 0
25.2 0.4 0
25.5 0.4 0
25.8 0.4 0
26.1 0.4 0
26.4 0.4 0
26.7 0.4 0
27 0.4 0
27.3 0.4 0
27.6 0.4 0
27.9 0.4 0
28.2 0.4 0
28.5 0.4 0
28.8 0.4 0
29.1 0.4 0
29.4 0.4 0
29.7 0.4 0
30 0.4 0
30.3 0.4 0
0 0.5 0
0.3 0.5 0
0.6 0.5 0
0.9 0.5 0
1.2 0.5 0
1.5 0.5 0
1.8 0.5 0
2.1 0.5 0
2.4 0.5 0
2.7 0.5 0
3 0.5 0
3.3 0.5 0
3.6 0.5 0
3.9 0.5 0
4.2 0.5 0
4.5 0.5 0
4.8 0.5 0
5.1 0.5 0
5.4 0.5 0
5.7 0.5 0
6 0.5 0
6.3 0.5 0
6.6 0.5 0
6.9 0.5 0
7.2 0.5 0
7.5 0.5 0
7.8 0.5 0
8.1 0.5 0
8.4 0.5 0
8.7 0.5 0
9 0.5 0
9.3 0.5 0
9.6 0.5 0
9.9 0.5 0
10.2 0.5 0
10.5 0.5 0
10.8 0.5 0
11.1 0.5 0
11.4 0.5 0
11.7 0.5 0
12 0.5 0
12.3 0.5 0
12.6 0.5 0
12.9 0.5 0
13.2 0.5 0
13.5 0.5 0
13.8 0.5 0
14.1 0.5 0
14.4 0.5 0
14.7 0.5 0
15 0.5 0
15.3 0.5 0
15.6 0.5 0
15.9 0.5 0
16.2 0.5 0
16.5 0.5 0
16.8 0.5 0
17.1 0.5 0
17.4 0.5 0
17.7 0.5 0
18 0.5 0
18.3 0.5 0
18.6 0.5 0
18.9 0.5 0
19.2 0.5 0
19.5 0.5 0
19.8 0.5 0
20.1 0.5 0
20.4 0.5 0
20.7 0.5 0
21 0.5 0
21.3 0.5 0
21.6 0.5 0
21.9 0.5 0
22.2 0.5 0
22.5 0.5 0
22.8 0.5 0
23.1 0.5 0
23.4 0.5 0
23.7 0.5 0
24 0.5 0
24.3 0.5 0
24.6 0.5 0
24.9 0.5 0
25.2 0.5 0
25.5 0.5 0
25.8 0.5 0
26.1 0.5 0
26.4 0.5 0
26.7 0.5 0
27 0.5 0
27.3 0.5 0
27.6 0.5 0
27.9 0.5 0
28.2 0.5 0
28.5 0.5 0
28.8 0.5 0
29.1 0.5 0
29.4 0.5 0
29.7 0.5 0
30 0.5 0
30.3 0.5 0
0 0.6 0
0.3 0.6 0
0.6 0.6 0
0.9 0.6 0
1.2 0.6 0
1.5 0.6 0
1.8 0.6 0
2.1 0.6 0
2.4 0.6 0
2.7 0.6 0
3 0.6 0
3.3 0.6 0
3.6 0.6 0
3.9 0.6 0
4.2 0.6 0
4.5 0.6 0
4.8 0.6 0
5.1 0.6 0
5.4 0.6 0
5.7 0.6 0
6 0.6 0
6.3 0.6 0
6.6 0.6 0
6.9 0.6 0
7.2 0.6 0
7.5 0.6 0
7.8 0.6 0
8.1 0.6 0
8.4 0.6 0
8.7 0.6 0
9 0.6 0
9.3 0.6 0
9.6 0.6 0
9.9 0.6 0
10.2 0.6 0
10.5 0.6 0
10.8 0.6 0
11.1 0.6 0
11.4 0.6 0
11.7 0.6 0
12 0.6 0
12.3 0.6 0
12.6 0.6 0
12.9 0.6 0
13.2 0.6 0
13.5 0.6 0
13.8 0.6 0
14.1 0.6 0
14.4 0.6 0
14.7 0.6 0
15 0.6 0
15.3 0.6 0
15.6 0.6 0
15.9 0.6 0
16.2 0.6 0
16.5 0.6 0
16.8 0.6 0
17.1 0.6 0
17.4 0.6 0
17.7 0.6 0
18 0.6 0
18.3 0.6 0
18.6 0.6 0
18.9 0.6 0
19.2 0.6 0
19.5 0.6 0
19.8 0.6 0
20.1 0.6 0
20.4 0.6 0
20.7 0.6 0
21 0.6 0
21.3 0.6 0
21.6 0.6 0
21.9 0.6 0
22.2 0.6 0
22.5 0.6 0
22.8 0.6 0
23.1 0.6 0
23.4 0.6 0
23.7 0.6 0
24 0.6 0
24.3 0.6 0
24.6 0.6 0
24.9 0.6 0
25.2 0.6 0
25.5 0.6 0
25.8 0.6 0
26.1 0.6 0
26.4 0.6 0
26.7 0.6 0
27 0.6 0
27.3 0.6 0
27.6 0.6 0
27.9 0.6 0
28.2 0.6 0
28.5 0.6 0
28.8 0.6 0
29.1 0.6 0
29.4 0.6 0
29.7 0.6 0
30 0.6 0
30.3 0.6 0
0 0.7 0
0.3 0.7 0
0.6 0.7 0
0.9 0.7 0
1.2 0.7 0
1.5 0.7 0
1.8 0.7 0
2.1 0.7 0
2.4 0.7 0
2.7 0.7 0
3 0.7 0
3.3 0.7 0
3.6 0.7 0
3.9 0.7 0
4.2 0.7 0
4.5 0.7 0
4.8 0.7 0
5.1 0.7 0
5.4 0.7 0
5.7 0.7 0
6 0.7 0
6.3 0.7 0
6.6 0.7 0
6.9 0.7 0
7.2 0.7 0
7.5 0.7 0
7.8 0.7 0
8.1 0.7 0
8.4 0.7 0
8.7 0.7 0
9 0.7 0
9.3 0.7 0
9.6 0.7 0
9.9 0.7 0
10.2 0.7 0
10.5 0.7 0
10.8 0.7 0
11.1 0.7 0
11.4 0.7 0
11.7 0.7 0
12 0.7 0
12.3 0.7 0
12.6 0.7 0
12.9 0.7 0
13.2 0.7 0
13.5 0.7 0
13.8 0.7 0
14.1 0.7 0
14.4 0.7 0
14.7 0.7 0
15 0.7 0
15.3 0.7 0
15.6 0.7 0
15.9 0.7 0
16.2 0.7 0
16.5 0.7 0
16.8 0.7 0
17.1 0.7 0
17.4 0.7 0
17.7 0.7 0
18 0.7 0
18.3 0.7 0
18.6 0.7 0
18.9 0.7 0
19.2 0.7 0
19.5 0.7 0
19.8 0.7 0
20.1 0.7 0
20.4 0.7 0
20.7 0.7 0
21 0.7 0
21.3 0.7 0
21.6 0.7 0
21.9 0.7 0
22.2 0.7 0
22.5 0.7 0
22.8 0.7 0
23.1 0.7 0
23.4 0.7 0
23.7 0.7 0
24 0.7 0
24.3 0.7 0
24.6 0.7 0
24.9 0.7 0
25.2 0.7 0
25.5 0.7 0
25.8 0.7 0
26.1 0.7 0
26.4 0.7 0
26.7 0.7 0
27 0.7 0
27.3 0.7 0
27.6 0.7 0
27.9 0.7 0
28.2 0.7 0
28.5 0.7 0
28.8 0.7 0
29.1 0.7 0
29.4 0.7 0
29.7 0.7 0
30 0.7 0
30.3 0.7 0
0 0.8 0
0.3 0.8 0
0.6 0.8 0
0.9 0.8 0
1.2 0.8 0
1.5 0.8 0
1.8 0.8 0
2.1 0.8 0
2.4 0.8 0
2.7 0.8 0
3 0.8 0
3.3 0.8 0
3.6 0.8 0
3.9 0.8 0
4.2 0.8 0
4.5 0.8 0
4.8 0.8 0
5.1 0.8 0
5.4 0.8 0
5.7 0.8 0
6 0.8 0
6.3 0.8 0
6.6 0.8 0
6.9 0.8 0
7.2 0.8 0
7.5 0.8 0
7.8 0.8 0
8.1 0.8 0
8.4 0.8 0
8.7 0.8 0
9 0.8 0
9.3 0.8 0
9.6 0.8 0
9.9 0.8 0
10.2 0.8 0
10.5 0.8 0
10.8 0.8 0
11.1 0.8 0
11.4 0.8 0
11.7 0.8 0
12 0.8 0
12.3 0.8 0
12.6 0.8 0
12.9 0.8 0
13.2 0.8 0
13.5 0.8 0
13.8 0.8 0
14.1 0.8 0
14.4 0.8 0
14.7 0.8 0
15 0.8 0
15.3 0.8 0
15.6 0.8 0
15.9 0.8 0
16.2 0.8 0
16.5 0.8 0
16.8 0.8 0
17.1 0.8 0
17.4 0.8 0
17.7 0.8 0
18 0.8 0
18.3 0.8 0
18.6 0.8 0
18.9 0.8 0
19.2 0.8 0
19.5 0.8 0
19.8 0.8 0
20.1 0.8 0
20.4 0.8 0
20.7 0.8 0
21 0.8 0
21.3 0.8 0
21.6 0.8 0
21.9 0.8 0
22.2 0.8 0
22.5 0.8 0
22.8 0.8 0
23.1 0.8 0
23.4 0.8 0
23.7 0.8 0
24 0.8 0
24.3 0.8 0
24.6 0.8 0
24.9 0.8 0
25.2 0.8 0
25.5 0.8 0
25.8 0.8 0
26.1 0.8 0
26.4 0.8 0
26.7 0.8 0
27 0.8 0
27.3 0.8 0
27.6 0.8 0
27.9 0.8 0
28.2 0.8 0
28.5 0.8 0
28.8 0.8 0
29.1 0.8 0
29.4 0.8 0
29.7 0.8 0
30 0.8 0
30.3 0.8 0
0 0.9 0
0.3 0.9 0
0.6 0.9 0
0.9 0.9 0
1.2 0.9 0
1.5 0.9 0
1.8 0.9 0
2.1 0.9 0
2.4 0.9 0
2.7 0.9 0
3 0.9 0
3.3 0.9 0
3.6 0.9 0
3.9 0.9 0
4.2 0.9 0
4.5 0.9 0
4.8 0.9 0
5.1 0.9 0
5.4 0.9 0
5.7 0.9 0
6 0.9 0
6.3 0.9 0
6.6 0.9 0
6.9 0.9 0
7.2 0.9 0
7.5 0.9 0
7.8 0.9 0
8.1 0.9 0
8.4 0.9 0
8.7 0.9 0
9 0.9 0
9.3 0.9 0
9.6 0.9 0
9.9 0.9 0
10.2 0.9 0
10.5 0.9 0
10.8 0.9 0
11.1 0.9 0
11.4 0.9 0
11.7 0.9 0
12 0.9 0
12.3 0.9 0
12.6 0.9 0
12.9 0.9 0
13.2 0.9 0
13.5 0.9 0
13.8 0.9 0
14.1 0.9 0
14.4 0.9 0
14.7 0.9 0
15 0.9 0
15.3 0.9 0
15.6 0.9 0
15.9 0.9 0
16.2 0.9 0
16.5 0.9 0
16.8 0.9 0
17.1 0.9 0
17.4 0.9 0
17.7 0.9 0
18 0.9 0
18.3 0.9 0
18.6 0.9 0
18.9 0.9 0
19.2 0.9 0
19.5 0.9 0
19.8 0.9 0
20.1 0.9 0
20.4 0.9 0
20.7 0.9 0
21 0.9 0
21.3 0.9 0
21.6 0.9 0
21.9 0.9 0
22.2 0.9 0
22.5 0.9 0
22.8 0.9 0
23.1 0.9 0
23.4 0.9 0
23.7 0.9 0
24 0.9 0
24.3 0.9 0
24.6 0.9 0
24.9 0.9 0
25.2 0.9 0
25.5 0.9 0
25.8 0.9 0
26.1 0.9 0
26.4 0.9 0
26.7 0.9 0
27 0.9 0
27.3 0.9 0
27.6 0.9 0
27.9 0.9 0
28.2 0.9 0
28.5 0.9 0
28.8 0.9 0
29.1 0.9 0
29.4 0.9 0
29.7 0.9 0
30 0.9 0
30.3 0.9 0
0 1 0
0.3 1 0
0.6 1 0
0.9 1 0
1.2 1 0
1.5 1 0
1.8 1 0
2.1 1 0
2.4 1 0
2.7 1 0
3 1 0
3.3 1 0
3.6 1 0
3.9 1 0
4.2 1 0
4.5 1 0
4.8 1 0
5.1 1 0
5.4 1 0
5.7 1 0
6 1 0
6.3 1 0
6.6 1 0
6.9 1 0
7.2 1 0
7.5 1 0
7.8 1 0
8.1 1 0
8.4 1 0
8.7 1 0
9 1 0
9.3 1 0
9.6 1 0
9.9 1 0
10.2 1 0
10.5 1 0
10.8 1 0
11.1 1 0
11.4 1 0
11.7 1 0
12 1 0
12.3 1 0
12.6 1 0
12.9 1 0
13.2 1 0
13.5 1 0
13.8 1 0
14.1 1 0
14.4 1 0
14.7 1 0
15 1 0
15.3 1 0
15.6 1 0
15.9 1 0
16.2 1 0
16.5 1 0
16.8 1 0
17.1 1 0
17.4 1 0
17.7 1 0
18 1 0
18.3 1 0
18.6 1 0
18.9 1 0
19.2 1 0
19.5 1 0
19.8 1 0
20.1 1 0
20.4 1 0
20.7 1 0
21 1 0
21.3 1 0
21.6 1 0
21.9 1 0
22.2 1 0
22.5 1 0
22.8 1 0
23.1 1 0
23.4 1 0
23.7 1 0
24 1 0
24.3 1 0
24.6 1 0
24.9 1 0
25.2 1 0
25.5 1 0
25.8 1 0
26.1 1 0
26.4 1 0
26.7 1 0
27 1 0
27.3 1 0
27.6 1 0
27.9 1 0
28.2 1 0
28.5 1 0
28.8 1 0
29.1 1 0
29.4 1 0
29.7 1 0
30 1 0
30.3 1 0
0 1.1 0
0.3 1.1 0
0.6 1.1 0
0.9 1.1 0
1.2 1.1 0
1.5 1.1 0
1.8 1.1 0
2.1 1.1 0
2.4 1.1 0
2.7 1.1 0
3 1.1 0
3.3 1.1 0
3.6 1.1 0
3.9 1.1 0
4.2 1.1 0
4.5 1.1 0
4.8 1.1 0
5.1 1.1 0
5.4 1.1 0
5.7 1.1 0
6 1.1 0
6.3 1.1 0
6.6 1.1 0
6.9 1.1 0
7.2 1.1 0
7.5 1.1 0
7.8 1.1 0
8.1 1.1 0
8.4 1.1 0
8.7 1.1 0
9 1.1 0
9.3 1.1 0
9.6 1.1 0
9.9 1.1 0
10.2 1.1 0
10.5 1.1 0
10.8 1.1 0
11.1 1.1 0
11.4 1.1 0
11.7 1.1 0
12 1.1 0
12.3 1.1 0
12.6 1.1 0
12.9 1.1 0
13.2 1.1 0
13.5 1.1 0
13.8 1.1 0
14.1 1.1 0
14.4 1.1 0
14.7 1.1 0
15 1.1 0
15.3 1.1 0
15.6 1.1 0
15.9 1.1 0
16.2 1.1 0
16.5 1.1 0
16.8 1.1 0
17.1 1.1 0
17.4 1.1 0
17.7 1.1 0
18 1.1 0
18.3 1.1 0
18.6 1.1 0
18.9 1.1 0
19.2 1.1 0
19.5 1.1 0
19.8 1.1 0
20.1 1.1 0
20.4 1.1 0
20.7 1.1 0
21 1.1 0
21.3 1.1 0
21.6 1.1 0
21.9 1.1 0
22.2 1.1 0
22.5 1.1 0
22.8 1.1 0
23.1 1.1 0
23.4 1.1 0
23.7 1.1 0
24 1.1 0
24.3 1.1 0
24.6 1.1 0
24.9 1.1 0
25.2 1.1 0
25.5 1.1 0
25.8 1.1 0
26.1 1.1 0
26.4 1.1 0
26.7 1.1 0
27 1.1 0
27.3 1.1 0
27.6 1.1 0
27.9 1.1 0
28.2 1.1 0
28.5 1.1 0
28.8 1.1 0
29.1 1.1 0
29.4 1.1 0
29.7 1.1 0
30 1.1 0
30.3 1.1 0

POINT_DATA 1224

VECTORS velocity double
LOOKUP_TABLE default
-1 0 0
-0.925389 0 0
-0.894497 0 0
-0.886773 0 0
-0.88527 0 0
-0.885014 0 0
-0.884972 0 0
-0.884966 0 0
-0.884965 0 0
-0.884965 0 0
-0.884965 0 0
-0.884965 0 0
-0.884965 0 0
-0.884966 0 0
-0.884966 0 0
-0.884966 0 0
-0.884966 0 0
-0.884966 0 0
-0.884966 0 0
-0.884966 0 0
-0.884967 0 0
-0.884967 0 0
-0.884967 0 0
-0.884967 0 0
-0.884967 0 0
-0.884967 0 0
-0.884967 0 0
-0.884967 0 0
-0.884967 0 0
-0.884967 0 0
-0.884967 0 0
-0.884967 0 0
-0.884967 0 0
-0.884967 0 0
-0.884967 0 0
-0.884966 0 0
-0.884966 0 0
-0.884966 0 0
-0.884966 0 0
-0.884966 0 0
-0.884966 0 0
-0.884965 0 0
-0.884965 0 0
-0.884965 0 0
-0.884965 0 0
-0.884964 0 0
-0.884964 0 0
-0.884964 0 0
-0.884963 0 0
-0.884963 0 0
-0.884963 0 0
-0.884962 0 0
-0.884962 0 0
-0.884961 0 0
-0.884961 0 0
-0.884961 0 0
-0.88496 0 0
-0.88496 0 0
-0.884959 0 0
-0.884959 0 0
-0.884958 0 0
-0.884957 0 0
-0.884957 0 0
-0.884956 0 0
-0.884956 0 0
-0.884955 0 0
-0.884955 0 0
-0.884954 0 0
-0.884953 0 0
-0.884953 0 0
-0.884952 0 0
-0.884951 0 0
-0.884951 0 0
-0.88495 0 0
-0.884949 0 0
-0.884948 0 0
-0.884948 0 0
-0.884947 0 0
-0.884946 0 0
-0.884945 0 0
-0.884945 0 0
-0.884944 0 0
-0.884943 0 0
-0.884942 0 0
-0.884942 0 0
-0.884941 0 0
-0.88494 0 0
-0.884939 0 0
-0.884938 0 0
-0.884938 0 0
-0.884937 0 0
-0.884936 0 0
-0.884935 0 0
-0.884934 0 0
-0.884934 0 0
-0.884934 0 0
-0.884938 0 0
-0.884964 0 0
-0.88508 0 0
-0.886551 0 0
-0.886551 0 0
-1 0 0
1 -0.0248703 0
0.925389 0.0248703 0
0.894497 0.0102974 0
0.886773 0.0025747 0
0.88527 0.000500811 0
0.885014 8.54864e-05 0
0.884972 1.38521e-05 0
0.884966 2.18075e-06 0
0.884965 2.8327e-07 0
0.884965 -3.07305e-08 0
0.884965 -8.26332e-08 0
0.884965 -9.14793e-08 0
0.884965 -9.34466e-08 0
0.884966 -9.44364e-08 0
0.884966 -9.54113e-08 0
0.884966 -9.65226e-08 0
0.884966 -9.7791e-08 0
0.884966 -9.9217e-08 0
0.884966 -1.00799e-07 0
0.884966 -1.02534e-07 0
0.884967 -1.04421e-07 0
0.884967 -1.06457e-07 0
0.884967 -1.08639e-07 0
0.884967 -1.10968e-07 0
0.884967 -1.13441e-07 0
0.884967 -1.16053e-07 0
0.884967 -1.18798e-07 0
0.884967 -1.21673e-07 0
0.884967 -1.24677e-07 0
0.884967 -1.27806e-07 0
0.884967 -1.31058e-07 0
0.884967 -1.34428e-07 0
0.884967 -1.37914e-07 0
0.884967 -1.41511e-07 0
0.884967 -1.45215e-07 0
0.884966 -1.49024e-07 0
0.884966 -1.52938e-07 0
0.884966 -1.56955e-07 0
0.884966 -1.61067e-07 0
0.884966 -1.6526e-07 0
0.884966 -1.69531e-07 0
0.884965 -1.73879e-07 0
0.884965 -1.78302e-07 0
0.884965 -1.82796e-07 0
0.884965 -1.87356e-07 0
0.884964 -1.91991e-07 0
0.884964 -1.96685e-07 0
0.884964 -2.01425e-07 0
0.884963 -2.06204e-07 0
0.884963 -2.11152e-07 0
0.884963 -2.16131e-07 0
0.884962 -2.21195e-07 0
0.884962 -2.26273e-07 0
0.884961 -2.31293e-07 0
0.884961 -2.36291e-07 0
0.884961 -2.41317e-07 0
0.88496 -2.46358e-07 0
0.88496 -2.51415e-07 0
0.884959 -2.56472e-07 0
0.884959 -2.61512e-07 0
0.884958 -2.66536e-07 0
0.884957 -2.71546e-07 0
0.884957 -2.76542e-07 0
0.884956 -2.81519e-07 0
0.884956 -2.86472e-07 0
0.884955 -2.91396e-07 0
0.884955 -2.96287e-07 0
0.884954 -3.01141e-07 0
0.884953 -3.05953e-07 0
0.884953 -3.10718e-07 0
0.884952 -3.15432e-07 0
0.884951 -3.2009e-07 0
0.884951 -3.24687e-07 0
0.88495 -3.2922e-07 0
0.884949 -3.33683e-07 0
0.884948 -3.38072e-07 0
0.884948 -3.42382e-07 0
0.884947 -3.4661e-07 0
0.884946 -3.5075e-07 0
0.884945 -3.54803e-07 0
0.884945 -3.58757e-07 0
0.884944 -3.6261e-07 0
0.884943 -3.66359e-07 0
0.884942 -3.69999e-07 0
0.884942 -3.73528e-07 0
0.884941 -3.7694e-07 0
0.88494 -3.80233e-07 0
0.884939 -3.83402e-07 0
0.884938 -3.86446e-07 0
0.884938 -3.89371e-07 0
0.884937 -3.92215e-07 0
0.884936 -3.95198e-07 0
0.884935 -3.99474e-07 0
0.884934 -4.11043e-07 0
0.884934 -4.61182e-07 0
0.884934 -7.13059e-07 0
0.884938 -2.01483e-06 0
0.884964 -9.571e-06 0
0.88508 -3.90456e-05 0
0.886551 -0.000491207 0
0.886551 -0.00142502 0
1 -0.00142502 0
1 -0.0175686 0
1.02191 0.0175686 0
1.0254 0.00913294 0
1.0251 0.00267302 0
1.0248 0.0006016 0
1.02471 0.000117449 0
1.02468 2.1278e-05 0
1.02468 3.68002e-06 0
1.02468 5.75432e-07 0
1.02468 3.59501e-08 0
1.02468 -5.72172e-08 0
1.02468 -7.34741e-08 0
1.02468 -7.67923e-08 0
1.02468 -7.81237e-08 0
1.02468 -7.93008e-08 0
1.02468 -8.0616e-08 0
1.02468 -8.211e-08 0
1.02468 -8.37853e-08 0
1.02468 -8.56393e-08 0
1.02468 -8.76693e-08 0
1.02468 -8.98726e-08 0
1.02468 -9.22463e-08 0
1.02468 -9.47877e-08 0
1.02468 -9.74937e-08 0
1.02468 -1.00361e-07 0
1.02468 -1.03386e-07 0
1.02468 -1.06566e-07 0
1.02468 -1.09897e-07 0
1.02468 -1.13376e-07 0
1.02468 -1.16998e-07 0
1.02467 -1.20759e-07 0
1.02467 -1.24656e-07 0
1.02467 -1.28684e-07 0
1.02467 -1.32839e-07 0
1.02467 -1.37117e-07 0
1.02467 -1.41514e-07 0
1.02467 -1.46024e-07 0
1.02467 -1.50643e-07 0
1.02467 -1.55365e-07 0
1.02467 -1.60188e-07 0
1.02467 -1.65106e-07 0
1.02467 -1.70115e-07 0
1.02467 -1.75209e-07 0
1.02467 -1.80383e-07 0
1.02467 -1.85633e-07 0
1.02467 -1.90953e-07 0
1.02467 -1.96338e-07 0
1.02467 -2.01784e-07 0
1.02467 -2.07294e-07 0
1.02467 -2.12845e-07 0
1.02467 -2.18446e-07 0
1.02467 -2.24082e-07 0
1.02467 -2.29749e-07 0
1.02467 -2.35449e-07 0
1.02467 -2.41177e-07 0
1.02467 -2.46925e-07 0
1.02467 -2.52687e-07 0
1.02467 -2.58457e-07 0
1.02467 -2.64231e-07 0
1.02467 -2.70005e-07 0
1.02467 -2.75772e-07 0
1.02467 -2.81528e-07 0
1.02467 -2.87266e-07 0
1.02466 -2.92983e-07 0
1.02466 -2.98671e-07 0
1.02466 -3.04327e-07 0
1.02466 -3.09945e-07 0
1.02466 -3.15519e-07 0
1.02466 -3.21044e-07 0
1.02466 -3.26516e-07 0
1.02466 -3.31928e-07 0
1.02466 -3.37276e-07 0
1.02466 -3.42554e-07 0
1.02466 -3.47757e-07 0
1.02466 -3.5288e-07 0
1.02466 -3.57917e-07 0
1.02466 -3.62864e-07 0
1.02466 -3.67716e-07 0
1.02466 -3.72467e-07 0
1.02466 -3.77112e-07 0
1.02466 -3.81647e-07 0
1.02466 -3.86067e-07 0
1.02466 -3.90367e-07 0
1.02466 -3.94542e-07 0
1.02465 -3.98588e-07 0
1.02465 -4.02501e-07 0
1.02465 -4.06276e-07 0
1.02465 -4.09909e-07 0
1.02465 -4.13399e-07 0
1.02465 -4.16756e-07 0
1.02465 -4.20045e-07 0
1.02465 -4.23625e-07 0
1.02465 -4.29365e-07 0
1.02465 -4.46987e-07 0
1.02465 -5.26934e-07 0
1.02465 -9.31483e-07 0
1.02465 -3.02295e-06 0
1.02466 -1.40639e-05 0
1.02475 -6.92831e-05 0
1.02459 -0.000437188 0
1.02459 -0.00117471 0
1 -0.00117471 0
1 -0.0107797 0
1.02037 0.0107797 0
1.02816 0.00653466 0
1.02978 0.00213256 0
1.03001 0.000525375 0
1.03003 0.00011037 0
1.03003 2.11236e-05 0
1.03003 3.80627e-06 0
1.03003 6.3098e-07 0
1.03003 6.66455e-08 0
1.03003 -3.20074e-08 0
1.03003 -4.94558e-08 0
1.03003 -5.31937e-08 0
1.03003 -5.48521e-08 0
1.03003 -5.63758e-08 0
1.03003 -5.80701e-08 0
1.03003 -5.99746e-08 0
1.03003 -6.20899e-08 0
1.03003 -6.44122e-08 0
1.03003 -6.69379e-08 0
1.03003 -6.96635e-08 0
1.03003 -7.25857e-08 0
1.03003 -7.57011e-08 0
1.03003 -7.90059e-08 0
1.03003 -8.2496e-08 0
1.03003 -8.61676e-08 0
1.03003 -9.00167e-08 0
1.03003 -9.40394e-08 0
1.03003 -9.82307e-08 0
1.03003 -1.02586e-07 0
1.03003 -1.07101e-07 0
1.03003 -1.1177e-07 0
1.03003 -1.16589e-07 0
1.03003 -1.21553e-07 0
1.03003 -1.26655e-07 0
1.03003 -1.31893e-07 0
1.03003 -1.37259e-07 0
1.03003 -1.42748e-07 0
1.03003 -1.48354e-07 0
1.03003 -1.54073e-07 0
1.03003 -1.59899e-07 0
1.03003 -1.65827e-07 0
1.03003 -1.71851e-07 0
1.03003 -1.77963e-07 0
1.03003 -1.8416e-07 0
1.03003 -1.90434e-07 0
1.03003 -1.96779e-07 0
1.03003 -2.03192e-07 0
1.03003 -2.0967e-07 0
1.03003 -2.16193e-07 0
1.03002 -2.22766e-07 0
1.03002 -2.29377e-07 0
1.03002 -2.36022e-07 0
1.03002 -2.42703e-07 0
1.03002 -2.49412e-07 0
1.03002 -2.56139e-07 0
1.03002 -2.62877e-07 0
1.03002 -2.69621e-07 0
1.03002 -2.76365e-07 0
1.03002 -2.83103e-07 0
1.03002 -2.8983e-07 0
1.03002 -2.96539e-07 0
1.03002 -3.03222e-07 0
1.03002 -3.09875e-07 0
1.03002 -3.1649e-07 0
1.03002 -3.23062e-07 0
1.03002 -3.29585e-07 0
1.03002 -3.36051e-07 0
1.03002 -3.42457e-07 0
1.03002 -3.48794e-07 0
1.03002 -3.55056e-07 0
1.03002 -3.61239e-07 0
1.03002 -3.67335e-07 0
1.03002 -3.73339e-07 0
1.03001 -3.79244e-07 0
1.03001 -3.85045e-07 0
1.03001 -3.90736e-07 0
1.03001 -3.9631e-07 0
1.03001 -4.01763e-07 0
1.03001 -4.07087e-07 0
1.03001 -4.12278e-07 0
1.03001 -4.1733e-07 0
1.03001 -4.22238e-07 0
1.03001 -4.26996e-07 0
1.03001 -4.31599e-07 0
1.03001 -4.36042e-07 0
1.03001 -4.40321e-07 0
1.03001 -4.4443e-07 0
1.03001 -4.48369e-07 0
1.03001 -4.52145e-07 0
1.03001 -4.55824e-07 0
1.03001 -4.5976e-07 0
1.03001 -4.65806e-07 0
1.03001 -4.83581e-07 0
1.03 -5.62937e-07 0
1.03 -9.61661e-07 0
1.03 -3.00469e-06 0
1.03 -1.34105e-05 0
1.02999 -6.46201e-05 0
1.02959 -0.000306802 0
1.02959 -0.000787453 0
1 -0.000787453 0
1 -0.00512486 0
1.01696 0.00512486 0
1.02644 0.00337767 0
1.02933 0.00116826 0
1.03 0.000301479 0
1.03013 6.56758e-05 0
1.03016 1.29021e-05 0
1.03016 2.36517e-06 0
1.03016 3.98549e-07 0
1.03016 4.61923e-08 0
1.03016 -1.55395e-08 0
1.03016 -2.67276e-08 0
1.03016 -2.96053e-08 0
1.03016 -3.13814e-08 0
1.03016 -3.32238e-08 0
1.03016 -3.52988e-08 0
1.03016 -3.76199e-08 0
1.03016 -4.01818e-08 0
1.03016 -4.29791e-08 0
1.03016 -4.60075e-08 0
1.03016 -4.92627e-08 0
1.03016 -5.27407e-08 0
1.03016 -5.64374e-08 0
1.03016 -6.03487e-08 0
1.03016 -6.44696e-08 0
1.03016 -6.87955e-08 0
1.03016 -7.3322e-08 0
1.03016 -7.80442e-08 0
1.03016 -8.29568e-08 0
1.03016 -8.80539e-08 0
1.03016 -9.33304e-08 0
1.03016 -9.87807e-08 0
1.03016 -1.04399e-07 0
1.03016 -1.1018e-07 0
1.03016 -1.16116e-07 0
1.03016 -1.22204e-07 0
1.03016 -1.28435e-07 0
1.03016 -1.34804e-07 0
1.03016 -1.41303e-07 0
1.03016 -1.47927e-07 0
1.03016 -1.54671e-07 0
1.03016 -1.61527e-07 0
1.03016 -1.68489e-07 0
1.03016 -1.75549e-07 0
1.03016 -1.82702e-07 0
1.03016 -1.89939e-07 0
1.03016 -1.97255e-07 0
1.03016 -2.04644e-07 0
1.03016 -2.12099e-07 0
1.03016 -2.19609e-07 0
1.03016 -2.27171e-07 0
1.03016 -2.34776e-07 0
1.03016 -2.42418e-07 0
1.03016 -2.50093e-07 0
1.03015 -2.57793e-07 0
1.03015 -2.65508e-07 0
1.03015 -2.73233e-07 0
1.03015 -2.8096e-07 0
1.03015 -2.88683e-07 0
1.03015 -2.96395e-07 0
1.03015 -3.04089e-07 0
1.03015 -3.11757e-07 0
1.03015 -3.19392e-07 0
1.03015 -3.26988e-07 0
1.03015 -3.34536e-07 0
1.03015 -3.42031e-07 0
1.03015 -3.49464e-07 0
1.03015 -3.56829e-07 0
1.03015 -3.64119e-07 0
1.03015 -3.71327e-07 0
1.03015 -3.78445e-07 0
1.03015 -3.85467e-07 0
1.03015 -3.92386e-07 0
1.03015 -3.99195e-07 0
1.03015 -4.05886e-07 0
1.03015 -4.12454e-07 0
1.03015 -4.18891e-07 0
1.03014 -4.25191e-07 0
1.03014 -4.31347e-07 0
1.03014 -4.37353e-07 0
1.03014 -4.43202e-07 0
1.03014 -4.48888e-07 0
1.03014 -4.54405e-07 0
1.03014 -4.59746e-07 0
1.03014 -4.64907e-07 0
1.03014 -4.69882e-07 0
1.03014 -4.74664e-07 0
1.03014 -4.79249e-07 0
1.03014 -4.83633e-07 0
1.03014 -4.8782e-07 0
1.03014 -4.91848e-07 0
1.03014 -4.95932e-07 0
1.03014 -5.01208e-07 0
1.03014 -5.13581e-07 0
1.03014 -5.6362e-07 0
1.03013 -8.08945e-07 0
1.03013 -2.05276e-06 0
1.03012 -8.26384e-06 0
1.03003 -3.78322e-05 0
1.02959 -0.000157793 0
1.02959 -0.000394264 0
1 -0.000394264 0
1 -3.51196e-07 0
1.01537 3.51196e-07 0
1.02551 -5.82772e-07 0
1.02902 -7.42272e-07 0
1.02992 -4.45302e-07 0
1.03012 -2.02677e-07 0
1.03016 -8.27936e-08 0
1.03016 -3.27929e-08 0
1.03017 -1.34896e-08 0
1.03017 -6.58876e-09 0
1.03017 -4.72012e-09 0
1.03017 -4.9561e-09 0
1.03017 -6.17259e-09 0
1.03017 -7.93648e-09 0
1.03017 -1.00789e-08 0
1.03017 -1.25329e-08 0
1.03017 -1.52708e-08 0
1.03017 -1.82796e-08 0
1.03017 -2.15522e-08 0
1.03017 -2.50833e-08 0
1.03016 -2.8868e-08 0
1.03016 -3.29018e-08 0
1.03016 -3.71799e-08 0
1.03016 -4.16976e-08 0
1.03016 -4.64492e-08 0
1.03016 -5.14296e-08 0
1.03016 -5.66333e-08 0
1.03016 -6.20551e-08 0
1.03016 -6.76888e-08 0
1.03016 -7.35276e-08 0
1.03016 -7.95658e-08 0
1.03016 -8.57971e-08 0
1.03016 -9.22148e-08 0
1.03016 -9.88123e-08 0
1.03016 -1.05583e-07 0
1.03016 -1.1252e-07 0
1.03016 -1.19616e-07 0
1.03016 -1.26864e-07 0
1.03016 -1.34257e-07 0
1.03016 -1.41787e-07 0
1.03016 -1.49448e-07 0
1.03016 -1.57232e-07 0
1.03016 -1.65133e-07 0
1.03016 -1.73141e-07 0
1.03016 -1.81249e-07 0
1.03016 -1.89449e-07 0
1.03016 -1.97735e-07 0
1.03016 -2.06099e-07 0
1.03016 -2.14532e-07 0
1.03016 -2.23029e-07 0
1.03016 -2.31581e-07 0
1.03016 -2.40181e-07 0
1.03016 -2.4882e-07 0
1.03016 -2.57489e-07 0
1.03016 -2.66179e-07 0
1.03016 -2.74883e-07 0
1.03016 -2.83594e-07 0
1.03016 -2.92304e-07 0
1.03016 -3.01006e-07 0
1.03016 -3.09691e-07 0
1.03015 -3.18352e-07 0
1.03015 -3.2698e-07 0
1.03015 -3.35567e-07 0
1.03015 -3.44105e-07 0
1.03015 -3.52586e-07 0
1.03015 -3.61003e-07 0
1.03015 -3.69347e-07 0
1.03015 -3.7761e-07 0
1.03015 -3.85785e-07 0
1.03015 -3.93863e-07 0
1.03015 -4.01836e-07 0
1.03015 -4.09698e-07 0
1.03015 -4.17439e-07 0
1.03015 -4.25052e-07 0
1.03015 -4.3253e-07 0
1.03015 -4.39864e-07 0
1.03015 -4.47048e-07 0
1.03015 -4.54073e-07 0
1.03015 -4.60932e-07 0
1.03015 -4.67619e-07 0
1.03015 -4.74126e-07 0
1.03015 -4.80445e-07 0
1.03014 -4.86571e-07 0
1.03014 -4.92496e-07 0
1.03014 -4.98215e-07 0
1.03014 -5.0372e-07 0
1.03014 -5.09005e-07 0
1.03014 -5.14065e-07 0
1.03014 -5.18894e-07 0
1.03014 -5.23487e-07 0
1.03014 -5.27838e-07 0
1.03014 -5.31943e-07 0
1.03014 -5.35794e-07 0
1.03014 -5.39365e-07 0
1.03014 -5.42572e-07 0
1.03014 -5.45281e-07 0
1.03013 -5.47618e-07 0
1.03011 -5.49097e-07 0
1.03 -5.4886e-07 0
1.02952 -5.44025e-07 0
1.02952 -5.31293e-07 0
1 -5.31293e-07 0
1 0.00512424 0
1.01537 -0.00512424 0
1.02551 -0.00337885 0
1.02902 -0.00116971 0
1.02992 -0.000302336 0
1.03012 -6.60624e-05 0
1.03016 -1.30593e-05 0
1.03016 -2.42732e-06 0
1.03017 -4.24187e-07 0
1.03017 -5.88514e-08 0
1.03017 6.29229e-09 0
1.03017 1.68838e-08 0
1.03017 1.72806e-08 0
1.03017 1.55104e-08 0
1.03017 1.30609e-08 0
1.03017 1.02252e-08 0
1.03017 7.06961e-09 0
1.03017 3.61356e-09 0
1.03017 -1.34358e-10 0
1.03017 -4.16815e-09 0
1.03016 -8.48233e-09 0
1.03016 -1.30718e-08 0
1.03016 -1.79311e-08 0
1.03016 -2.30552e-08 0
1.03016 -2.84374e-08 0
1.03016 -3.40719e-08 0
1.03016 -3.99527e-08 0
1.03016 -4.6074e-08 0
1.03016 -5.24286e-08 0
1.03016 -5.90089e-08 0
1.03016 -6.58087e-08 0
1.03016 -7.28207e-08 0
1.03016 -8.00376e-08 0
1.03016 -8.74518e-08 0
1.03016 -9.50558e-08 0
1.03016 -1.02842e-07 0
1.03016 -1.10804e-07 0
1.03016 -1.18931e-07 0
1.03016 -1.27216e-07 0
1.03016 -1.35652e-07 0
1.03016 -1.44229e-07 0
1.03016 -1.52943e-07 0
1.03016 -1.61781e-07 0
1.03016 -1.70736e-07 0
1.03016 -1.798e-07 0
1.03016 -1.88963e-07 0
1.03016 -1.98219e-07 0
1.03016 -2.07558e-07 0
1.03016 -2.16969e-07 0
1.03016 -2.26452e-07 0
1.03016 -2.35994e-07 0
1.03016 -2.45589e-07 0
1.03016 -2.55224e-07 0
1.03016 -2.64886e-07 0
1.03016 -2.74567e-07 0
1.03016 -2.84259e-07 0
1.03016 -2.93957e-07 0
1.03016 -3.03649e-07 0
1.03016 -3.1333e-07 0
1.03016 -3.22988e-07 0
1.03015 -3.32615e-07 0
1.03015 -3.42202e-07 0
1.03015 -3.51741e-07 0
1.03015 -3.61221e-07 0
1.03015 -3.70635e-07 0
1.03015 -3.79974e-07 0
1.03015 -3.89228e-07 0
1.03015 -3.98389e-07 0
1.03015 -4.07448e-07 0
1.03015 -4.16397e-07 0
1.03015 -4.25225e-07 0
1.03015 -4.33925e-07 0
1.03015 -4.42489e-07 0
1.03015 -4.50906e-07 0
1.03015 -4.59169e-07 0
1.03015 -4.6727e-07 0
1.03015 -4.752e-07 0
1.03015 -4.8295e-07 0
1.03015 -4.90513e-07 0
1.03015 -4.9788e-07 0
1.03015 -5.05044e-07 0
1.03015 -5.11997e-07 0
1.03014 -5.18732e-07 0
1.03014 -5.2524e-07 0
1.03014 -5.31516e-07 0
1.03014 -5.37551e-07 0
1.03014 -5.4334e-07 0
1.03014 -5.48874e-07 0
1.03014 -5.54148e-07 0
1.03014 -5.59146e-07 0
1.03014 -5.63821e-07 0
1.03014 -5.67947e-07 0
1.03014 -5.70374e-07 0
1.03014 -5.65153e-07 0
1.03014 -5.21542e-07 0
1.03014 -2.8162e-07 0
1.03013 9.57466e-07 0
1.03011 7.16549e-06 0
1.03 3.67341e-05 0
1.02952 0.000156703 0
1.02952 0.000393202 0
1 0.000393202 0
1 0.0107793 0
1.01697 -0.0107793 0
1.02644 -0.0065359 0
1.02933 -0.0021339 0
1.03 -0.000526129 0
1.03013 -0.000110701 0
1.03016 -2.12562e-05 0
1.03016 -3.85844e-06 0
1.03016 -6.52735e-07 0
1.03016 -7.78071e-08 0
1.03016 2.33149e-08 0
1.03016 3.98063e-08 0
1.03016 4.09248e-08 0
1.03016 3.89835e-08 0
1.03016 3.61946e-08 0
1.03016 3.29703e-08 0
1.03016 2.93951e-08 0
1.03016 2.54914e-08 0
1.03016 2.1268e-08 0
1.03016 1.67315e-08 0
1.03016 1.18879e-08 0
1.03016 6.74284e-09 0
1.03016 1.3024e-09 0
1.03016 -4.42804e-09 0
1.03016 -1.04406e-08 0
1.03016 -1.67292e-08 0
1.03016 -2.32868e-08 0
1.03016 -3.01075e-08 0
1.03016 -3.7183e-08 0
1.03016 -4.45045e-08 0
1.03016 -5.20655e-08 0
1.03016 -5.98581e-08 0
1.03016 -6.78739e-08 0
1.03016 -7.61046e-08 0
1.03016 -8.45418e-08 0
1.03016 -9.31774e-08 0
1.03016 -1.02004e-07 0
1.03016 -1.11011e-07 0
1.03016 -1.20188e-07 0
1.03016 -1.29528e-07 0
1.03016 -1.39022e-07 0
1.03016 -1.48664e-07 0
1.03016 -1.5844e-07 0
1.03016 -1.68342e-07 0
1.03016 -1.78361e-07 0
1.03016 -1.88486e-07 0
1.03016 -1.98712e-07 0
1.03016 -2.09026e-07 0
1.03016 -2.19414e-07 0
1.03016 -2.29883e-07 0
1.03016 -2.40413e-07 0
1.03016 -2.51002e-07 0
1.03016 -2.61634e-07 0
1.03016 -2.72289e-07 0
1.03015 -2.82959e-07 0
1.03015 -2.93639e-07 0
1.03015 -3.04322e-07 0
1.03015 -3.14996e-07 0
1.03015 -3.25655e-07 0
1.03015 -3.36286e-07 0
1.03015 -3.4688e-07 0
1.03015 -3.57426e-07 0
1.03015 -3.67915e-07 0
1.03015 -3.78338e-07 0
1.03015 -3.88684e-07 0
1.03015 -3.98944e-07 0
1.03015 -4.09108e-07 0
1.03015 -4.19167e-07 0
1.03015 -4.2911e-07 0
1.03015 -4.38928e-07 0
1.03015 -4.48611e-07 0
1.03015 -4.5815e-07 0
1.03015 -4.67535e-07 0
1.03015 -4.76756e-07 0
1.03015 -4.85805e-07 0
1.03015 -4.94671e-07 0
1.03015 -5.03347e-07 0
1.03014 -5.11822e-07 0
1.03014 -5.20087e-07 0
1.03014 -5.28135e-07 0
1.03014 -5.35956e-07 0
1.03014 -5.43542e-07 0
1.03014 -5.50885e-07 0
1.03014 -5.57976e-07 0
1.03014 -5.64808e-07 0
1.03014 -5.71374e-07 0
1.03014 -5.77665e-07 0
1.03014 -5.83674e-07 0
1.03014 -5.89393e-07 0
1.03014 -5.94801e-07 0
1.03014 -5.99824e-07 0
1.03014 -6.04098e-07 0
1.03014 -6.05761e-07 0