# vtk DataFile Version 2.0
FlowField
ASCII
DATASET STRUCTURED_GRID
DIMENSIONS 102 1 12 
POINTS 1224 double
0 0 0
0.4 0 0
0.8 0 0
1.2 0 0
1.6 0 0
2 0 0
2.4 0 0
2.8 0 0
3.2 0 0
3.6 0 0
4 0 0
4.4 0 0
4.8 0 0
5.2 0 0
5.6 0 0
6 0 0
6.4 0 0
6.8 0 0
7.2 0 0
7.6 0 0
8 0 0
8.4 0 0
8.8 0 0
9.2 0 0
9.6 0 0
10 0 0
10.4 0 0
10.8 0 0
11.2 0 0
11.6 0 0
12 0 0
12.4 0 0
12.8 0 0
13.2 0 0
13.6 0 0
14 0 0
14.4 0 0
14.8 0 0
15.2 0 0
15.6 0 0
16 0 0
16.4 0 0
16.8 0 0
17.2 0 0
17.6 0 0
18 0 0
18.4 0 0
18.8 0 0
19.2 0 0
19.6 0 0
20 0 0
20.4 0 0
20.8 0 0
21.2 0 0
21.6 0 0
22 0 0
22.4 0 0
22.8 0 0
23.2 0 0
23.6 0 0
24 0 0
24.4 0 0
24.8 0 0
25.2 0 0
25.6 0 0
26 0 0
26.4 0 0
26.8 0 0
27.2 0 0
27.6 0 0
28 0 0
28.4 0 0
28.8 0 0
29.2 0 0
29.6 0 0
30 0 0
30.4 0 0
30.8 0 0
31.2 0 0
31.6 0 0
32 0 0
32.4 0 0
32.8 0 0
33.2 0 0
33.6 0 0
34 0 0
34.4 0 0
34.8 0 0
35.2 0 0
35.6 0 0
36 0 0
36.4 0 0
36.8 0 0
37.2 0 0
37.6 0 0
38 0 0
38.4 0 0
38.8 0 0
39.2 0 0
39.6 0 0
40 0 0
40.4 0 0
0 0.1 0
0.4 0.1 0
0.8 0.1 0
1.2 0.1 0
1.6 0.1 0
2 0.1 0
2.4 0.1 0
2.8 0.1 0
3.2 0.1 0
3.6 0.1 0
4 0.1 0
4.4 0.1 0
4.8 0.1 0
5.2 0.1 0
5.6 0.1 0
6 0.1 0
6.4 0.1 0
6.8 0.1 0
7.2 0.1 0
7.6 0.1 0
8 0.1 0
8.4 0.1 0
8.8 0.1 0
9.2 0.1 0
9.6 0.1 0
10 0.1 0
10.4 0.1 0
10.8 0.1 0
11.2 0.1 0
11.6 0.1 0
12 0.1 0
12.4 0.1 0
12.8 0.1 0
13.2 0.1 0
13.6 0.1 0
14 0.1 0
14.4 0.1 0
14.8 0.1 0
15.2 0.1 0
15.6 0.1 0
16 0.1 0
16.4 0.1 0
16.8 0.1 0
17.2 0.1 0
17.6 0.1 0
18 0.1 0
18.4 0.1 0
18.8 0.1 0
19.2 0.1 0
19.6 0.1 0
20 0.1 0
20.4 0.1 0
20.8 0.1 0
21.2 0.1 0
21.6 0.1 0
22 0.1 0
22.4 0.1 0
22.8 0.1 0
23.2 0.1 0
23.6 0.1 0
24 0.1 0
24.4 0.1 0
24.8 0.1 0
25.2 0.1 0
25.6 0.1 0
26 0.1 0
26.4 0.1 0
26.8 0.1 0
27.2 0.1 0
27.6 0.1 0
28 0.1 0
28.4 0.1 0
28.8 0.1 0
29.2 0.1 0
29.6 0.1 0
30 0.1 0
30.4 0.1 0
30.8 0.1 0
31.2 0.1 0
31.6 0.1 0
32 0.1 0
32.4 0.1 0
32.8 0.1 0
33.2 0.1 0
33.6 0.1 0
34 0.1 0
34.4 0.1 0
34.8 0.1 0
35.2 0.1 0
35.6 0.1 0
36 0.1 0
36.4 0.1 0
36.8 0.1 0
37.2 0.1 0
37.6 0.1 0
38 0.1 0
38.4 0.1 0
38.8 0.1 0
39.2 0.1 0
39.6 0.1 0
40 0.1 0
40.4 0.1 0
0 0.2 0
0.4 0.2 0
0.8 0.2 0
1.2 0.2 0
1.6 0.2 0
2 0.2 0
2.4 0.2 0
2.8 0.2 0
3.2 0.2 0
3.6 0.2 0
4 0.2 0
4.4 0.2 0
4.8 0.2 0
5.2 0.2 0
5.6 0.2 0
6 0.2 0
6.4 0.2 0
6.8 0.2 0
7.2 0.2 0
7.6 0.2 0
8 0.2 0
8.4 0.2 0
8.8 0.2 0
9.2 0.2 0
9.6 0.2 0
10 0.2 0
10.4 0.2 0
10.8 0.2 0
11.2 0.2 0
11.6 0.2 0
12 0.2 0
12.4 0.2 0
12.8 0.2 0
13.2 0.2 0
13.6 0.2 0
14 0.2 0
14.4 0.2 0
14.8 0.2 0
15.2 0.2 0
15.6 0.2 0
16 0.2 0
16.4 0.2 0
16.8 0.2 0
17.2 0.2 0
17.6 0.2 0
18 0.2 0
18.4 0.2 0
18.8 0.2 0
19.2 0.2 0
19.6 0.2 0
20 0.2 0
20.4 0.2 0
20.8 0.2 0
21.2 0.2 0
21.6 0.2 0
22 0.2 0
22.4 0.2 0
22.8 0.2 0
23.2 0.2 0
23.6 0.2 0
24 0.2 0
24.4 0.2 0
24.8 0.2 0
25.2 0.2 0
25.6 0.2 0
26 0.2 0
26.4 0.2 0
26.8 0.2 0
27.2 0.2 0
27.6 0.2 0
28 0.2 0
28.4 0.2 0
28.8 0.2 0
29.2 0.2 0
29.6 0.2 0
30 0.2 0
30.4 0.2 0
30.8 0.2 0
31.2 0.2 0
31.6 0.2 0
32 0.2 0
32.4 0.2 0
32.8 0.2 0
33.2 0.2 0
33.6 0.2 0
34 0.2 0
34.4 0.2 0
34.8 0.2 0
35.2 0.2 0
35.6 0.2 0
36 0.2 0
36.4 0.2 0
36.8 0.2 0
37.2 0.2 0
37.6 0.2 0
38 0.2 0
38.4 0.2 0
38.8 0.2 0
39.2 0.2 0
39.6 0.2 0
40 0.2 0
40.4 0.2 0
0 0.3 0
0.4 0.3 0
0.8 0.3 0
1.2 0.3 0
1.6 0.3 0
2 0.3 0
2.4 0.3 0
2.8 0.3 0
3.2 0.3 0
3.6 0.3 0
4 0.3 0
4.4 0.3 0
4.8 0.3 0
5.2 0.3 0
5.6 0.3 0
6 0.3 0
6.4 0.3 0
6.8 0.3 0
7.2 0.3 0
7.6 0.3 0
8 0.3 0
8.4 0.3 0
8.8 0.3 0
9.2 0.3 0
9.6 0.3 0
10 0.3 0
10.4 0.3 0
10.8 0.3 0
11.2 0.3 0
11.6 0.3 0
12 0.3 0
12.4 0.3 0
12.8 0.3 0
13.2 0.3 0
13.6 0.3 0
14 0.3 0
14.4 0.3 0
14.8 0.3 0
15.2 0.3 0
15.6 0.3 0
16 0.3 0
16.4 0.3 0
16.8 0.3 0
17.2 0.3 0
17.6 0.3 0
18 0.3 0
18.4 0.3 0
18.8 0.3 0
19.2 0.3 0
19.6 0.3 0
20 0.3 0
20.4 0.3 0
20.8 0.3 0
21.2 0.3 0
21.6 0.3 0
22 0.3 0
22.4 0.3 0
22.8 0.3 0
23.2 0.3 0
23.6 0.3 0
24 0.3 0
24.4 0.3 0
24.8 0.3 0
25.2 0.3 0
25.6 0.3 0
26 0.3 0
26.4 0.3 0
26.8 0.3 0
27.2 0.3 0
27.6 0.3 0
28 0.3 0
28.4 0.3 0
28.8 0.3 0
29.2 0.3 0
29.6 0.3 0
30 0.3 0
30.4 0.3 0
30.8 0.3 0
31.2 0.3 0
31.6 0.3 0
32 0.3 0
32.4 0.3 0
32.8 0.3 0
33.2 0.3 0
33.6 0.3 0
34 0.3 0
34.4 0.3 0
34.8 0.3 0
35.2 0.3 0
35.6 0.3 0
36 0.3 0
36.4 0.3 0
36.8 0.3 0
37.2 0.3 0
37.6 0.3 0
38 0.3 0
38.4 0.3 0
38.8 0.3 0
39.2 0.3 0
39.6 0.3 0
40 0.3 0
40.4 0.3 0
0 0.4 0
0.4 0.4 0
0.8 0.4 0
1.2 0.4 0
1.6 0.4 0
2 0.4 0
2.4 0.4 0
2.8 0.4 0
3.2 0.4 0
3.6 0.4 0
4 0.4 0
4.4 0.4 0
4.8 0.4 0
5.2 0.4 0
5.6 0.4 0
6 0.4 0
6.4 0.4 0
6.8 0.4 0
7.2 0.4 0
7.6 0.4 0
8 0.4 0
8.4 0.4 0
8.8 0.4 0
9.2 0.4 0
9.6 0.4 0
10 0.4 0
10.4 0.4 0
10.8 0.4 0
11.2 0.4 0
11.6 0.4 0
12 0.4 0
12.4 0.4 0
12.8 0.4 0
13.2 0.4 0
13.6 0.4 0
14 0.4 0
14.4 0.4 0
14.8 0.4 0
15.2 0.4 0
15.6 0.4 0
16 0.4 0
16.4 0.4 0
16.8 0.4 0
17.2 0.4 0
17.6 0.4 0
18 0.4 0
18.4 0.4 0
18.8 0.4 0
19.2 0.4 0
19.6 0.4 0
20 0.4 0
20.4 0.4 0
20.8 0.4 0
21.2 0.4 0
21.6 0.4 0
22 0.4 0
22.4 0.4 0
22.8 0.4 0
23.2 0.4 0
23.6 0.4 0
24 0.4 0
24.4 0.4 0
24.8 0.4 0
25.2 0.4 0
25.6 0.4 0
26 0.4 0
26.4 0.4 0
26.8 0.4 0
27.2 0.4 0
27.6 0.4 0
28 0.4 0
28.4 0.4 0
28.8 0.4 0
29.2 0.4 0
29.6 0.4 0
30 0.4 0
30.4 0.4 0
30.8 0.4 0
31.2 0.4 0
31.6 0.4 0
32 0.4 0
32.4 0.4 0
32.8 0.4 0
33.2 0.4 0
33.6 0.4 0
34 0.4 0
34.4 0.4 0
34.8 0.4 0
35.2 0.4 0
35.6 0.4 0
36 0.4 0
36.4 0.4 0
36.8 0.4 0
37.2 0.4 0
37.6 0.4 0
38 0.4 0
38.4 0.4 0
38.8 0.4 0
39.2 0.4 0
39.6 0.4 0
40 0.4 0
40.4 0.4 0
0 0.5 0
0.4 0.5 0
0.8 0.5 0
1.2 0.5 0
1.6 0.5 0
2 0.5 0
2.4 0.5 0
2.8 0.5 0
3.2 0.5 0
3.6 0.5 0
4 0.5 0
4.4 0.5 0
4.8 0.5 0
5.2 0.5 0
5.6 0.5 0
6 0.5 0
6.4 0.5 0
6.8 0.5 0
7.2 0.5 0
7.6 0.5 0
8 0.5 0
8.4 0.5 0
8.8 0.5 0
9.2 0.5 0
9.6 0.5 0
10 0.5 0
10.4 0.5 0
10.8 0.5 0
11.2 0.5 0
11.6 0.5 0
12 0.5 0
12.4 0.5 0
12.8 0.5 0
13.2 0.5 0
13.6 0.5 0
14 0.5 0
14.4 0.5 0
14.8 0.5 0
15.2 0.5 0
15.6 0.5 0
16 0.5 0
16.4 0.5 0
16.8 0.5 0
17.2 0.5 0
17.6 0.5 0
18 0.5 0
18.4 0.5 0
18.8 0.5 0
19.2 0.5 0
19.6 0.5 0
20 0.5 0
20.4 0.5 0
20.8 0.5 0
21.2 0.5 0
21.6 0.5 0
22 0.5 0
22.4 0.5 0
22.8 0.5 0
23.2 0.5 0
23.6 0.5 0
24 0.5 0
24.4 0.5 0
24.8 0.5 0
25.2 0.5 0
25.6 0.5 0
26 0.5 0
26.4 0.5 0
26.8 0.5 0
27.2 0.5 0
27.6 0.5 0
28 0.5 0
28.4 0.5 0
28.8 0.5 0
29.2 0.5 0
29.6 0.5 0
30 0.5 0
30.4 0.5 0
30.8 0.5 0
31.2 0.5 0
31.6 0.5 0
32 0.5 0
32.4 0.5 0
32.8 0.5 0
33.2 0.5 0
33.6 0.5 0
34 0.5 0
34.4 0.5 0
34.8 0.5 0
35.2 0.5 0
35.6 0.5 0
36 0.5 0
36.4 0.5 0
36.8 0.5 0
37.2 0.5 0
37.6 0.5 0
38 0.5 0
38.4 0.5 0
38.8 0.5 0
39.2 0.5 0
39.6 0.5 0
40 0.5 0
40.4 0.5 0
0 0.6 0
0.4 0.6 0
0.8 0.6 0
1.2 0.6 0
1.6 0.6 0
2 0.6 0
2.4 0.6 0
2.8 0.6 0
3.2 0.6 0
3.6 0.6 0
4 0.6 0
4.4 0.6 0
4.8 0.6 0
5.2 0.6 0
5.6 0.6 0
6 0.6 0
6.4 0.6 0
6.8 0.6 0
7.2 0.6 0
7.6 0.6 0
8 0.6 0
8.4 0.6 0
8.8 0.6 0
9.2 0.6 0
9.6 0.6 0
10 0.6 0
10.4 0.6 0
10.8 0.6 0
11.2 0.6 0
11.6 0.6 0
12 0.6 0
12.4 0.6 0
12.8 0.6 0
13.2 0.6 0
13.6 0.6 0
14 0.6 0
14.4 0.6 0
14.8 0.6 0
15.2 0.6 0
15.6 0.6 0
16 0.6 0
16.4 0.6 0
16.8 0.6 0
17.2 0.6 0
17.6 0.6 0
18 0.6 0
18.4 0.6 0
18.8 0.6 0
19.2 0.6 0
19.6 0.6 0
20 0.6 0
20.4 0.6 0
20.8 0.6 0
21.2 0.6 0
21.6 0.6 0
22 0.6 0
22.4 0.6 0
22.8 0.6 0
23.2 0.6 0
23.6 0.6 0
24 0.6 0
24.4 0.6 0
24.8 0.6 0
25.2 0.6 0
25.6 0.6 0
26 0.6 0
26.4 0.6 0
26.8 0.6 0
27.2 0.6 0
27.6 0.6 0
28 0.6 0
28.4 0.6 0
28.8 0.6 0
29.2 0.6 0
29.6 0.6 0
30 0.6 0
30.4 0.6 0
30.8 0.6 0
31.2 0.6 0
31.6 0.6 0
32 0.6 0
32.4 0.6 0
32.8 0.6 0
33.2 0.6 0
33.6 0.6 0
34 0.6 0
34.4 0.6 0
34.8 0.6 0
35.2 0.6 0
35.6 0.6 0
36 0.6 0
36.4 0.6 0
36.8 0.6 0
37.2 0.6 0
37.6 0.6 0
38 0.6 0
38.4 0.6 0
38.8 0.6 0
39.2 0.6 0
39.6 0.6 0
40 0.6 0
40.4 0.6 0
0 0.7 0
0.4 0.7 0
0.8 0.7 0
1.2 0.7 0
1.6 0.7 0
2 0.7 0
2.4 0.7 0
2.8 0.7 0
3.2 0.7 0
3.6 0.7 0
4 0.7 0
4.4 0.7 0
4.8 0.7 0
5.2 0.7 0
5.6 0.7 0
6 0.7 0
6.4 0.7 0
6.8 0.7 0
7.2 0.7 0
7.6 0.7 0
8 0.7 0
8.4 0.7 0
8.8 0.7 0
9.2 0.7 0
9.6 0.7 0
10 0.7 0
10.4 0.7 0
10.8 0.7 0
11.2 0.7 0
11.6 0.7 0
12 0.7 0
12.4 0.7 0
12.8 0.7 0
13.2 0.7 0
13.6 0.7 0
14 0.7 0
14.4 0.7 0
14.8 0.7 0
15.2 0.7 0
15.6 0.7 0
16 0.7 0
16.4 0.7 0
16.8 0.7 0
17.2 0.7 0
17.6 0.7 0
18 0.7 0
18.4 0.7 0
18.8 0.7 0
19.2 0.7 0
19.6 0.7 0
20 0.7 0
20.4 0.7 0
20.8 0.7 0
21.2 0.7 0
21.6 0.7 0
22 0.7 0
22.4 0.7 0
22.8 0.7 0
23.2 0.7 0
23.6 0.7 0
24 0.7 0
24.4 0.7 0
24.8 0.7 0
25.2 0.7 0
25.6 0.7 0
26 0.7 0
26.4 0.7 0
26.8 0.7 0
27.2 0.7 0
27.6 0.7 0
28 0.7 0
28.4 0.7 0
28.8 0.7 0
29.2 0.7 0
29.6 0.7 0
30 0.7 0
30.4 0.7 0
30.8 0.7 0
31.2 0.7 0
31.6 0.7 0
32 0.7 0
32.4 0.7 0
32.8 0.7 0
33.2 0.7 0
33.6 0.7 0
34 0.7 0
34.4 0.7 0
34.8 0.7 0
35.2 0.7 0
35.6 0.7 0
36 0.7 0
36.4 0.7 0
36.8 0.7 0
37.2 0.7 0
37.6 0.7 0
38 0.7 0
38.4 0.7 0
38.8 0.7 0
39.2 0.7 0
39.6 0.7 0
40 0.7 0
40.4 0.7 0
0 0.8 0
0.4 0.8 0
0.8 0.8 0
1.2 0.8 0
1.6 0.8 0
2 0.8 0
2.4 0.8 0
2.8 0.8 0
3.2 0.8 0
3.6 0.8 0
4 0.8 0
4.4 0.8 0
4.8 0.8 0
5.2 0.8 0
5.6 0.8 0
6 0.8 0
6.4 0.8 0
6.8 0.8 0
7.2 0.8 0
7.6 0.8 0
8 0.8 0
8.4 0.8 0
8.8 0.8 0
9.2 0.8 0
9.6 0.8 0
10 0.8 0
10.4 0.8 0
10.8 0.8 0
11.2 0.8 0
11.6 0.8 0
12 0.8 0
12.4 0.8 0
12.8 0.8 0
13.2 0.8 0
13.6 0.8 0
14 0.8 0
14.4 0.8 0
14.8 0.8 0
15.2 0.8 0
15.6 0.8 0
16 0.8 0
16.4 0.8 0
16.8 0.8 0
17.2 0.8 0
17.6 0.8 0
18 0.8 0
18.4 0.8 0
18.8 0.8 0
19.2 0.8 0
19.6 0.8 0
20 0.8 0
20.4 0.8 0
20.8 0.8 0
21.2 0.8 0
21.6 0.8 0
22 0.8 0
22.4 0.8 0
22.8 0.8 0
23.2 0.8 0
23.6 0.8 0
24 0.8 0
24.4 0.8 0
24.8 0.8 0
25.2 0.8 0
25.6 0.8 0
26 0.8 0
26.4 0.8 0
26.8 0.8 0
27.2 0.8 0
27.6 0.8 0
28 0.8 0
28.4 0.8 0
28.8 0.8 0
29.2 0.8 0
29.6 0.8 0
30 0.8 0
30.4 0.8 0
30.8 0.8 0
31.2 0.8 0
31.6 0.8 0
32 0.8 0
32.4 0.8 0
32.8 0.8 0
33.2 0.8 0
33.6 0.8 0
34 0.8 0
34.4 0.8 0
34.8 0.8 0
35.2 0.8 0
35.6 0.8 0
36 0.8 0
36.4 0.8 0
36.8 0.8 0
37.2 0.8 0
37.6 0.8 0
38 0.8 0
38.4 0.8 0
38.8 0.8 0
39.2 0.8 0
39.6 0.8 0
40 0.8 0
40.4 0.8 0
0 0.9 0
0.4 0.9 0
0.8 0.9 0
1.2 0.9 0
1.6 0.9 0
2 0.9 0
2.4 0.9 0
2.8 0.9 0
3.2 0.9 0
3.6 0.9 0
4 0.9 0
4.4 0.9 0
4.8 0.9 0
5.2 0.9 0
5.6 0.9 0
6 0.9 0
6.4 0.9 0
6.8 0.9 0
7.2 0.9 0
7.6 0.9 0
8 0.9 0
8.4 0.9 0
8.8 0.9 0
9.2 0.9 0
9.6 0.9 0
10 0.9 0
10.4 0.9 0
10.8 0.9 0
11.2 0.9 0
11.6 0.9 0
12 0.9 0
12.4 0.9 0
12.8 0.9 0
13.2 0.9 0
13.6 0.9 0
14 0.9 0
14.4 0.9 0
14.8 0.9 0
15.2 0.9 0
15.6 0.9 0
16 0.9 0
16.4 0.9 0
16.8 0.9 0
17.2 0.9 0
17.6 0.9 0
18 0.9 0
18.4 0.9 0
18.8 0.9 0
19.2 0.9 0
19.6 0.9 0
20 0.9 0
20.4 0.9 0
20.8 0.9 0
21.2 0.9 0
21.6 0.9 0
22 0.9 0
22.4 0.9 0
22.8 0.9 0
23.2 0.9 0
23.6 0.9 0
24 0.9 0
24.4 0.9 0
24.8 0.9 0
25.2 0.9 0
25.6 0.9 0
26 0.9 0
26.4 0.9 0
26.8 0.9 0
27.2 0.9 0
27.6 0.9 0
28 0.9 0
28.4 0.9 0
28.8 0.9 0
29.2 0.9 0
29.6 0.9 0
30 0.9 0
30.4 0.9 0
30.8 0.9 0
31.2 0.9 0
31.6 0.9 0
32 0.9 0
32.4 0.9 0
32.8 0.9 0
33.2 0.9 0
33.6 0.9 0
34 0.9 0
34.4 0.9 0
34.8 0.9 0
35.2 0.9 0
35.6 0.9 0
36 0.9 0
36.4 0.9 0
36.8 0.9 0
37.2 0.9 0
37.6 0.9 0
38 0.9 0
38.4 0.9 0
38.8 0.9 0
39.2 0.9 0
39.6 0.9 0
40 0.9 0
40.4 0.9 0
0 1 0
0.4 1 0
0.8 1 0
1.2 1 0
1.6 1 0
2 1 0
2.4 1 0
2.8 1 0
3.2 1 0
3.6 1 0
4 1 0
4.4 1 0
4.8 1 0
5.2 1 0
5.6 1 0
6 1 0
6.4 1 0
6.8 1 0
7.2 1 0
7.6 1 0
8 1 0
8.4 1 0
8.8 1 0
9.2 1 0
9.6 1 0
10 1 0
10.4 1 0
10.8 1 0
11.2 1 0
11.6 1 0
12 1 0
12.4 1 0
12.8 1 0
13.2 1 0
13.6 1 0
14 1 0
14.4 1 0
14.8 1 0
15.2 1 0
15.6 1 0
16 1 0
16.4 1 0
16.8 1 0
17.2 1 0
17.6 1 0
18 1 0
18.4 1 0
18.8 1 0
19.2 1 0
19.6 1 0
20 1 0
20.4 1 0
20.8 1 0
21.2 1 0
21.6 1 0
22 1 0
22.4 1 0
22.8 1 0
23.2 1 0
23.6 1 0
24 1 0
24.4 1 0
24.8 1 0
25.2 1 0
25.6 1 0
26 1 0
26.4 1 0
26.8 1 0
27.2 1 0
27.6 1 0
28 1 0
28.4 1 0
28.8 1 0
29.2 1 0
29.6 1 0
30 1 0
30.4 1 0
30.8 1 0
31.2 1 0
31.6 1 0
32 1 0
32.4 1 0
32.8 1 0
33.2 1 0
33.6 1 0
34 1 0
34.4 1 0
34.8 1 0
35.2 1 0
35.6 1 0
36 1 0
36.4 1 0
36.8 1 0
37.2 1 0
37.6 1 0
38 1 0
38.4 1 0
38.8 1 0
39.2 1 0
39.6 1 0
40 1 0
40.4 1 0
0 1.1 0
0.4 1.1 0
0.8 1.1 0
1.2 1.1 0
1.6 1.1 0
2 1.1 0
2.4 1.1 0
2.8 1.1 0
3.2 1.1 0
3.6 1.1 0
4 1.1 0
4.4 1.1 0
4.8 1.1 0
5.2 1.1 0
5.6 1.1 0
6 1.1 0
6.4 1.1 0
6.8 1.1 0
7.2 1.1 0
7.6 1.1 0
8 1.1 0
8.4 1.1 0
8.8 1.1 0
9.2 1.1 0
9.6 1.1 0
10 1.1 0
10.4 1.1 0
10.8 1.1 0
11.2 1.1 0
11.6 1.1 0
12 1.1 0
12.4 1.1 0
12.8 1.1 0
13.2 1.1 0
13.6 1.1 0
14 1.1 0
14.4 1.1 0
14.8 1.1 0
15.2 1.1 0
15.6 1.1 0
16 1.1 0
16.4 1.1 0
16.8 1.1 0
17.2 1.1 0
17.6 1.1 0
18 1.1 0
18.4 1.1 0
18.8 1.1 0
19.2 1.1 0
19.6 1.1 0
20 1.1 0
20.4 1.1 0
20.8 1.1 0
21.2 1.1 0
21.6 1.1 0
22 1.1 0
22.4 1.1 0
22.8 1.1 0
23.2 1.1 0
23.6 1.1 0
24 1.1 0
24.4 1.1 0
24.8 1.1 0
25.2 1.1 0
25.6 1.1 0
26 1.1 0
26.4 1.1 0
26.8 1.1 0
27.2 1.1 0
27.6 1.1 0
28 1.1 0
28.4 1.1 0
28.8 1.1 0
29.2 1.1 0
29.6 1.1 0
30 1.1 0
30.4 1.1 0
30.8 1.1 0
31.2 1.1 0
31.6 1.1 0
32 1.1 0
32.4 1.1 0
32.8 1.1 0
33.2 1.1 0
33.6 1.1 0
34 1.1 0
34.4 1.1 0
34.8 1.1 0
35.2 1.1 0
35.6 1.1 0
36 1.1 0
36.4 1.1 0
36.8 1.1 0
37.2 1.1 0
37.6 1.1 0
38 1.1 0
38.4 1.1 0
38.8 1.1 0
39.2 1.1 0
39.6 1.1 0
40 1.1 0
40.4 1.1 0

POINT_DATA 1224

SCALARS v double
LOOKUP_TABLE default
0
0
0
0
0
0
0
0
0
0
0
0
0
0
0
0
0
0
0
0
0
0
0
0
0
0
0
0
0
0
0
0
0
0
0
0
0
0
0
0
0
0
0
0
0
0
0
0
0
0
0
0
0
0
0
0
0
0
0
0
0
0
0
0
0
0
0
0
0
0
0
0
0
0
0
0
0
0
0
0
0
0
0
0
0
0
0
0
0
0
0
0
0
0
0
0
0
0
0
0
0
0
0
0.0787077
0.0554407
0.0327103
0.0178113
0.0096583
0.00557769
0.0035471
0.00247032
0.00183775
0.00142578
0.00113506
0.0009185
0.000751461
0.000619609
0.000513868
0.00042807
0.000357817
0.00029989
0.000251858
0.000211864
0.000178445
0.000150446
0.000126941
0.000107176
9.05319e-05
7.64991e-05
6.46602e-05
5.46711e-05
4.62328e-05
3.9097e-05
3.30709e-05
2.79784e-05
2.36686e-05
2.00252e-05
1.69408e-05
1.4333e-05
1.21338e-05
1.02638e-05
8.67881e-06
7.35241e-06
6.22252e-06
5.25613e-06
4.45386e-06
3.77273e-06
3.18453e-06
2.69841e-06
2.28615e-06
1.93016e-06
1.63563e-06
1.38422e-06
1.17044e-06
9.91472e-07
8.38149e-07
7.09771e-07
6.00592e-07
5.08085e-07
4.30121e-07
3.6386e-07
3.08027e-07
2.60569e-07
2.20563e-07
1.86622e-07
1.57935e-07
1.33645e-07
1.131e-07
9.56995e-08
8.09914e-08
6.85337e-08
5.79969e-08
4.90784e-08
4.15304e-08
3.51445e-08
2.97434e-08
2.51708e-08
2.13007e-08
1.8023e-08
1.52561e-08
1.29132e-08
1.09269e-08
9.24573e-09
7.82664e-09
6.62453e-09
5.6073e-09
4.74453e-09
4.01554e-09
3.39774e-09
2.87577e-09
2.43339e-09
2.05863e-09
1.74036e-09
1.4726e-09
1.24459e-09
1.0511e-09
8.88004e-10
7.49841e-10
6.30074e-10
5.39284e-10
4.21775e-10
4.37049e-10
-2.02904e-12
-2.02904e-12
0
0.0668416
0.060839
0.0422929
0.0271275
0.0175004
0.0118521
0.00849209
0.00637032
0.00493625
0.00391076
0.00314663
0.00256042
0.0021011
0.00173541
0.00144064
0.0012007
0.00100387
0.00084138
0.000706569
0.000594277
0.000500441
0.00042183
0.000355846
0.000300371
0.000253667
0.000214308
0.000181115
0.000153105
0.000129449
0.000109464
9.25818e-05
7.83108e-05
6.62434e-05
5.60406e-05
4.74093e-05
4.01134e-05
3.39436e-05
2.87138e-05
2.42953e-05
2.05661e-05
1.73974e-05
1.47166e-05
1.24615e-05
1.05428e-05
8.91615e-06
7.55086e-06
6.3885e-06
5.40346e-06
4.57534e-06
3.87058e-06
3.27548e-06
2.77219e-06
2.34529e-06
1.98529e-06
1.67968e-06
1.4215e-06
1.20293e-06
1.01793e-06
8.6147e-07
7.28936e-07
6.16915e-07
5.22015e-07
4.41775e-07
3.73826e-07
3.16358e-07
2.67701e-07
2.2655e-07
1.91706e-07
1.62236e-07
1.37283e-07
1.16177e-07
9.83121e-08
8.31988e-08
7.04048e-08
5.95799e-08
5.04168e-08
4.26701e-08
3.61093e-08
3.05553e-08
2.5857e-08
2.18832e-08
1.85186e-08
1.5671e-08
1.32602e-08
1.12204e-08
9.49398e-09
8.03304e-09
6.79609e-09
5.74829e-09
4.86123e-09
4.11131e-09
3.47455e-09
2.93597e-09
2.47965e-09
2.09346e-09
1.76224e-09
1.49967e-09
1.20137e-09
1.18626e-09
-1.29635e-12
-1.29635e-12
0
0.0434614
0.0450425
0.0342517
0.0238913
0.0167606
0.0122647
0.00937331
0.00739328
0.00595018
0.00484988
0.00398638
0.00329625
0.00273789
0.00228215
0.00190763
0.0015982
0.00134144
0.00112763
0.00094905
0.000799549
0.000674139
0.000568776
0.00048014
0.000405495
0.000342577
0.000289505
0.000244717
0.000206899
0.000174949
0.000147954
0.000125141
0.000105853
8.95443e-05
7.57529e-05
6.40878e-05
5.4226e-05
4.58803e-05
3.88143e-05
3.28463e-05
2.77971e-05
2.35139e-05
1.98981e-05
1.68435e-05
1.42475e-05
1.20557e-05
1.02062e-05
8.63338e-06
7.30568e-06
6.18393e-06
5.23161e-06
4.42782e-06
3.74668e-06
3.17048e-06
2.68332e-06
2.27036e-06
1.92148e-06
1.6259e-06
1.37597e-06
1.16437e-06
9.85324e-07
8.33842e-07
7.05602e-07
5.97129e-07
5.05293e-07
4.27609e-07
3.61849e-07
3.06219e-07
2.59125e-07
2.1929e-07
1.85562e-07
1.57035e-07
1.32887e-07
1.12457e-07
9.51631e-08
8.05316e-08
6.81481e-08
5.76739e-08
4.8804e-08
4.12981e-08
3.49485e-08
2.95751e-08
2.50266e-08
2.11768e-08
1.79186e-08
1.5161e-08
1.28275e-08
1.08519e-08
9.17961e-09
7.76313e-09
6.56472e-09
5.55006e-09
4.68963e-09
3.9619e-09
3.34448e-09
2.82274e-09
2.37627e-09
2.01669e-09
1.6313e-09
1.57744e-09
-6.74939e-14
-6.74939e-14
0
0.0210569
0.0230874
0.0183628
0.0133673
0.0097821
0.00744485
0.00588653
0.00477598
0.00393344
0.00326681
0.00272644
0.00228248
0.00191488
0.00160902
0.00135367
0.00113994
0.000960724
0.000810212
0.000683653
0.000577124
0.000487376
0.000411716
0.000347895
0.000294033
0.000248556
0.000210148
0.000177701
0.00015028
0.0001271
0.000107508
9.09428e-05
7.69323e-05
6.50844e-05
5.50628e-05
4.6587e-05
3.94197e-05
3.33508e-05
2.82168e-05
2.38808e-05
2.02062e-05
1.70931e-05
1.44683e-05
1.22442e-05
1.03563e-05
8.76622e-06
7.41943e-06
6.2756e-06
5.31206e-06
4.49533e-06
3.80333e-06
3.21915e-06
2.72361e-06
2.30511e-06
1.95066e-06
1.65056e-06
1.39692e-06
1.18201e-06
1.00035e-06
8.4646e-07
7.16353e-07
6.06187e-07
5.12979e-07
4.34106e-07
3.6735e-07
3.10868e-07
2.63065e-07
2.22618e-07
1.88384e-07
1.59422e-07
1.34902e-07
1.14164e-07
9.66085e-08
8.17549e-08
6.91821e-08
5.85454e-08
4.95437e-08
4.19277e-08
3.54783e-08
3.00218e-08
2.54059e-08
2.14981e-08
1.81908e-08
1.53909e-08
1.30215e-08
1.10157e-08
9.31844e-09
7.88087e-09
6.66386e-09
5.633e-09
4.76099e-09
4.02183e-09
3.39545e-09
2.86537e-09
2.41572e-09
2.03569e-09
1.71148e-09
1.44829e-09
1.17588e-09
1.12599e-09
1.23075e-12
1.23075e-12
0
-7.90117e-09
5.00311e-09
3.04185e-08
1.58109e-08
-1.10148e-08
-3.93587e-09
-4.53266e-09
-6.25645e-09
6.34559e-09
5.49194e-09
1.17261e-09
-2.77886e-09
-5.30957e-09
1.60704e-10
2.67852e-09
1.52053e-09
7.18116e-11
-1.05296e-09
-2.8778e-10
-1.76375e-10
-1.83027e-10
8.34228e-10
1.00616e-09
-3.19821e-11
-8.5546e-10
1.06892e-10
1.235e-09
-1.38056e-10
-1.01985e-09
7.14777e-10
7.71611e-10
-2.3379e-10
-1.91525e-10
-7.42615e-10
7.44983e-10
1.4253e-09
-1.95201e-09
-4.65306e-10
2.75023e-09
-1.23674e-09
-1.73462e-09
2.45892e-09
-1.5809e-10
-1.70973e-09
1.5394e-09
8.92682e-11
-8.73957e-10
7.37935e-10
-1.12317e-10
-2.42986e-11
1.86871e-10
-1.47569e-10
2.11615e-10
-1.55448e-11
4.44502e-11
5.26583e-11
2.29166e-11
6.33009e-11
2.53775e-13
5.38944e-11
1.03005e-11
2.99199e-11
1.26894e-11
1.67122e-11
8.72972e-12
1.10226e-11
4.38051e-12
5.62685e-12
3.45881e-12
9.2766e-13
2.77465e-12
1.85666e-12
7.06581e-13
1.02665e-13
2.70395e-13
1.30846e-12
6.13009e-13
-1.43908e-12
-2.00441e-12
-1.97355e-12
-3.99114e-12
-5.39304e-12
-7.9023e-12
-9.92574e-12
-1.24324e-11
-1.47028e-11
-1.77829e-11
-2.07965e-11
-2.37909e-11
-2.63003e-11
-2.95195e-11
-3.23513e-11
-3.47919e-11
-3.71338e-11
-3.86884e-11
-3.9747e-11
-3.93194e-11
-3.54166e-11
-2.97183e-11
2.34185e-12
2.34185e-12
0
-0.0210569
-0.0230874
-0.0183628
-0.0133673
-0.00978211
-0.00744486
-0.00588653
-0.00477598
-0.00393343
-0.0032668
-0.00272644
-0.00228249
-0.00191489
-0.00160902
-0.00135366
-0.00113994
-0.000960725
-0.000810214
-0.000683653
-0.000577123
-0.000487376
-0.000411715
-0.000347894
-0.000294033
-0.000248558
-0.000210148
-0.0001777
-0.00015028
-0.000127102
-0.000107507
-9.09414e-05
-7.69325e-05
-6.50847e-05
-5.50638e-05
-4.65863e-05
-3.94174e-05
-3.3353e-05
-2.82183e-05
-2.38771e-05
-2.02068e-05
-1.70961e-05
-1.44654e-05
-1.22434e-05
-1.0359e-05
-8.7647e-06
-7.41858e-06
-6.27697e-06
-5.31128e-06
-4.49518e-06
-3.80349e-06
-3.21881e-06
-2.7238e-06
-2.30485e-06
-1.95059e-06
-1.65052e-06
-1.3968e-06
-1.18197e-06
-1.00024e-06
-8.46442e-07
-7.1627e-07
-6.06156e-07
-5.12931e-07
-4.34078e-07
-3.67322e-07
-3.10851e-07
-2.63048e-07
-2.22609e-07
-1.88376e-07
-1.59415e-07
-1.34902e-07
-1.1416e-07
-9.66062e-08
-8.17536e-08
-6.9182e-08
-5.85448e-08
-4.95418e-08
-4.19259e-08
-3.548e-08
-3.00249e-08
-2.5409e-08
-2.15042e-08
-1.81995e-08
-1.54041e-08
-1.30385e-08
-1.10372e-08
-9.34416e-09
-7.91211e-09
-6.7006e-09
-5.67541e-09
-4.80822e-09
-4.07479e-09
-3.4538e-09
-2.92819e-09
-2.48285e-09
-2.10603e-09
-1.78343e-09
-1.51981e-09
-1.23994e-09
-1.1802e-09
2.49138e-12
2.49138e-12
0
-0.0434614
-0.0450425
-0.0342517
-0.0238913
-0.0167606
-0.0122647
-0.0093733
-0.00739327
-0.00595019
-0.00484988
-0.00398638
-0.00329625
-0.00273789
-0.00228214
-0.00190763
-0.0015982
-0.00134144
-0.00112763
-0.000949049
-0.000799546
-0.000674139
-0.000568777
-0.00048014
-0.000405495
-0.000342576
-0.000289505
-0.000244716
-0.000206897
-0.000174949
-0.000147955
-0.00012514
-0.000105853
-8.95445e-05
-7.57528e-05
-6.40888e-05
-5.42251e-05
-4.58787e-05
-3.88168e-05
-3.28469e-05
-2.77938e-05
-2.35155e-05
-1.99002e-05
-1.68403e-05
-1.4248e-05
-1.20577e-05
-1.02041e-05
-8.63362e-06
-7.30656e-06
-6.18299e-06
-5.23192e-06
-4.42768e-06
-3.74656e-06
-3.17059e-06
-2.68305e-06
-2.27041e-06
-1.92137e-06
-1.62586e-06
-1.37591e-06
-1.16431e-06
-9.85297e-07
-8.3379e-07
-7.05579e-07
-5.97097e-07
-5.05279e-07
-4.27593e-07
-3.61841e-07
-3.0621e-07
-2.59124e-07
-2.19285e-07
-1.85565e-07
-1.57034e-07
-1.32888e-07
-1.12456e-07
-9.51632e-08
-8.05313e-08
-6.8148e-08
-5.76709e-08
-4.88026e-08
-4.12986e-08
-3.49492e-08
-2.95765e-08
-2.50299e-08
-2.11832e-08
-1.79279e-08
-1.51737e-08
-1.28435e-08
-1.08719e-08
-9.20373e-09
-7.792e-09
-6.59785e-09
-5.58707e-09
-4.73136e-09
-4.00698e-09
-3.39319e-09
-2.87405e-09
-2.42902e-09
-2.06899e-09
-1.67771e-09
-1.61685e-09
1.31054e-12
1.31054e-12
0
-0.0668415
-0.0608389
-0.042293
-0.0271276
-0.0175004
-0.0118521
-0.00849207
-0.0063703
-0.00493626
-0.00391077
-0.00314664
-0.00256042
-0.00210109
-0.0017354
-0.00144064
-0.00120071
-0.00100387
-0.000841379
-0.000706568
-0.000594274
-0.00050044
-0.000421832
-0.000355848
-0.00030037
-0.000253665
-0.000214309
-0.000181116
-0.000153102
-0.000129447
-0.000109467
-9.2582e-05
-7.83095e-05
-6.62434e-05
-5.60396e-05
-4.74117e-05
-4.01144e-05
-3.39384e-05
-2.87161e-05
-2.43006e-05
-2.056e-05
-1.73963e-05
-1.47233e-05
-1.24575e-05
-1.05403e-05
-8.92129e-06
-7.54855e-06
-6.3871e-06
-5.40583e-06
-4.57403e-06
-3.87076e-06
-3.27565e-06
-2.77174e-06
-2.34575e-06
-1.98492e-06
-1.67973e-06
-1.42146e-06
-1.20286e-06
-1.01793e-06
-8.61377e-07
-7.2896e-07
-6.16851e-07
-5.22014e-07
-4.41747e-07
-3.73822e-07
-3.16346e-07
-2.67704e-07
-2.26544e-07
-1.9171e-07
-1.62235e-07
-1.37288e-07
-1.1618e-07
-9.83164e-08
-8.31993e-08
-7.04048e-08
-5.95795e-08
-5.04181e-08
-4.26658e-08
-3.61037e-08
-3.0552e-08
-2.58544e-08
-2.18788e-08
-1.85146e-08
-1.56682e-08
-1.32595e-08
-1.12217e-08
-9.49756e-09
-8.03862e-09
-6.80418e-09
-5.7597e-09
-4.87623e-09
-4.12811e-09
-3.49499e-09
-2.95909e-09
-2.50487e-09
-2.12106e-09
-1.79061e-09
-1.52837e-09
-1.22619e-09
-1.20748e-09
-3.30614e-13
-3.30614e-13
0
-0.0787076
-0.0554406
-0.0327103
-0.0178114
-0.00965828
-0.00557768
-0.00354708
-0.00247029
-0.00183777
-0.0014258
-0.00113507
-0.000918492
-0.000751444
-0.000619608
-0.000513876
-0.000428075
-0.000357818
-0.000299887
-0.000251857
-0.000211861
-0.000178444
-0.000150448
-0.000126943
-0.000107175
-9.05293e-05
-7.64993e-05
-6.46629e-05
-5.46692e-05
-4.62298e-05
-3.91e-05
-3.30725e-05
-2.79769e-05
-2.36681e-05
-2.00239e-05
-1.69433e-05
-1.43356e-05
-1.2128e-05
-1.02642e-05
-8.68631e-06
-7.34731e-06
-6.21845e-06
-5.26398e-06
-4.45196e-06
-3.76779e-06
-3.18987e-06
-2.69783e-06
-2.28332e-06
-1.93273e-06
-1.63494e-06
-1.38388e-06
-1.17095e-06
-9.90873e-07
-8.38638e-07
-7.09539e-07
-6.00525e-07
-5.08141e-07
-4.30022e-07
-3.63897e-07
-3.07933e-07
-2.60602e-07
-2.20512e-07
-1.86622e-07
-1.5792e-07
-1.33641e-07
-1.13094e-07
-9.57071e-08
-8.09909e-08
-6.85395e-08
-5.80017e-08
-4.90832e-08
-4.15377e-08
-3.51506e-08
-2.9745e-08
-2.51702e-08
-2.13e-08
-1.80242e-08
-1.52513e-08
-1.29042e-08
-1.09192e-08
-9.23949e-09
-7.81732e-09
-6.61417e-09
-5.59634e-09
-4.73508e-09
-4.00666e-09
-3.39039e-09
-2.869e-09
-2.42792e-09
-2.05508e-09
-1.73972e-09
-1.4726e-09
-1.24692e-09
-1.05592e-09
-8.93976e-10
-7.57521e-10
-6.38874e-10
-5.48771e-10
-4.30241e-10
-4.44916e-10
-1.88758e-12
-1.88758e-12
0
0
0
0
0
0
0
0
0
0
0
0
0
0
0
0
0
0
0
0
0
0
0
0
0
0
0
0
0
0
0
0
0
0
0
0
0
0
0
0
0
0
0
0
0
0
0
0
0
0
0
0
0
0
0
0
0
0
0
0
0
0
0
0
0
0
0
0
0
0
0
0
0
0
0
0
0
0
0
0
0
0
0
0
0
0
0
0
0
0
0
0
0
0
0
0
0
0
0
0
0
0
0
0
0
0
0
0
0
0
0
0
0
0
0
0
0
0
0
0
0
0
0
0
0
0
0
0
0
0
0
0
0
0
0
0
0
0
0
0
0
0
0
0
0
0
0
0
0
0
0
0
0
0
0
0
0
0
0
0
0
0
0
0
0
0
0
0
0
0
0
0
0
0
0
0
0
0
0
0
0
0
0
0
0
0
0
0
0
0
0
0
0
0
0
0
0
0
0
0
0
0
0
0
