# vtk DataFile Version 2.0
FlowField
ASCII
DATASET STRUCTURED_GRID
DIMENSIONS 102 1 12 
POINTS 1224 double
0 0 0
0.4 0 0
0.8 0 0
1.2 0 0
1.6 0 0
2 0 0
2.4 0 0
2.8 0 0
3.2 0 0
3.6 0 0
4 0 0
4.4 0 0
4.8 0 0
5.2 0 0
5.6 0 0
6 0 0
6.4 0 0
6.8 0 0
7.2 0 0
7.6 0 0
8 0 0
8.4 0 0
8.8 0 0
9.2 0 0
9.6 0 0
10 0 0
10.4 0 0
10.8 0 0
11.2 0 0
11.6 0 0
12 0 0
12.4 0 0
12.8 0 0
13.2 0 0
13.6 0 0
14 0 0
14.4 0 0
14.8 0 0
15.2 0 0
15.6 0 0
16 0 0
16.4 0 0
16.8 0 0
17.2 0 0
17.6 0 0
18 0 0
18.4 0 0
18.8 0 0
19.2 0 0
19.6 0 0
20 0 0
20.4 0 0
20.8 0 0
21.2 0 0
21.6 0 0
22 0 0
22.4 0 0
22.8 0 0
23.2 0 0
23.6 0 0
24 0 0
24.4 0 0
24.8 0 0
25.2 0 0
25.6 0 0
26 0 0
26.4 0 0
26.8 0 0
27.2 0 0
27.6 0 0
28 0 0
28.4 0 0
28.8 0 0
29.2 0 0
29.6 0 0
30 0 0
30.4 0 0
30.8 0 0
31.2 0 0
31.6 0 0
32 0 0
32.4 0 0
32.8 0 0
33.2 0 0
33.6 0 0
34 0 0
34.4 0 0
34.8 0 0
35.2 0 0
35.6 0 0
36 0 0
36.4 0 0
36.8 0 0
37.2 0 0
37.6 0 0
38 0 0
38.4 0 0
38.8 0 0
39.2 0 0
39.6 0 0
40 0 0
40.4 0 0
0 0.1 0
0.4 0.1 0
0.8 0.1 0
1.2 0.1 0
1.6 0.1 0
2 0.1 0
2.4 0.1 0
2.8 0.1 0
3.2 0.1 0
3.6 0.1 0
4 0.1 0
4.4 0.1 0
4.8 0.1 0
5.2 0.1 0
5.6 0.1 0
6 0.1 0
6.4 0.1 0
6.8 0.1 0
7.2 0.1 0
7.6 0.1 0
8 0.1 0
8.4 0.1 0
8.8 0.1 0
9.2 0.1 0
9.6 0.1 0
10 0.1 0
10.4 0.1 0
10.8 0.1 0
11.2 0.1 0
11.6 0.1 0
12 0.1 0
12.4 0.1 0
12.8 0.1 0
13.2 0.1 0
13.6 0.1 0
14 0.1 0
14.4 0.1 0
14.8 0.1 0
15.2 0.1 0
15.6 0.1 0
16 0.1 0
16.4 0.1 0
16.8 0.1 0
17.2 0.1 0
17.6 0.1 0
18 0.1 0
18.4 0.1 0
18.8 0.1 0
19.2 0.1 0
19.6 0.1 0
20 0.1 0
20.4 0.1 0
20.8 0.1 0
21.2 0.1 0
21.6 0.1 0
22 0.1 0
22.4 0.1 0
22.8 0.1 0
23.2 0.1 0
23.6 0.1 0
24 0.1 0
24.4 0.1 0
24.8 0.1 0
25.2 0.1 0
25.6 0.1 0
26 0.1 0
26.4 0.1 0
26.8 0.1 0
27.2 0.1 0
27.6 0.1 0
28 0.1 0
28.4 0.1 0
28.8 0.1 0
29.2 0.1 0
29.6 0.1 0
30 0.1 0
30.4 0.1 0
30.8 0.1 0
31.2 0.1 0
31.6 0.1 0
32 0.1 0
32.4 0.1 0
32.8 0.1 0
33.2 0.1 0
33.6 0.1 0
34 0.1 0
34.4 0.1 0
34.8 0.1 0
35.2 0.1 0
35.6 0.1 0
36 0.1 0
36.4 0.1 0
36.8 0.1 0
37.2 0.1 0
37.6 0.1 0
38 0.1 0
38.4 0.1 0
38.8 0.1 0
39.2 0.1 0
39.6 0.1 0
40 0.1 0
40.4 0.1 0
0 0.2 0
0.4 0.2 0
0.8 0.2 0
1.2 0.2 0
1.6 0.2 0
2 0.2 0
2.4 0.2 0
2.8 0.2 0
3.2 0.2 0
3.6 0.2 0
4 0.2 0
4.4 0.2 0
4.8 0.2 0
5.2 0.2 0
5.6 0.2 0
6 0.2 0
6.4 0.2 0
6.8 0.2 0
7.2 0.2 0
7.6 0.2 0
8 0.2 0
8.4 0.2 0
8.8 0.2 0
9.2 0.2 0
9.6 0.2 0
10 0.2 0
10.4 0.2 0
10.8 0.2 0
11.2 0.2 0
11.6 0.2 0
12 0.2 0
12.4 0.2 0
12.8 0.2 0
13.2 0.2 0
13.6 0.2 0
14 0.2 0
14.4 0.2 0
14.8 0.2 0
15.2 0.2 0
15.6 0.2 0
16 0.2 0
16.4 0.2 0
16.8 0.2 0
17.2 0.2 0
17.6 0.2 0
18 0.2 0
18.4 0.2 0
18.8 0.2 0
19.2 0.2 0
19.6 0.2 0
20 0.2 0
20.4 0.2 0
20.8 0.2 0
21.2 0.2 0
21.6 0.2 0
22 0.2 0
22.4 0.2 0
22.8 0.2 0
23.2 0.2 0
23.6 0.2 0
24 0.2 0
24.4 0.2 0
24.8 0.2 0
25.2 0.2 0
25.6 0.2 0
26 0.2 0
26.4 0.2 0
26.8 0.2 0
27.2 0.2 0
27.6 0.2 0
28 0.2 0
28.4 0.2 0
28.8 0.2 0
29.2 0.2 0
29.6 0.2 0
30 0.2 0
30.4 0.2 0
30.8 0.2 0
31.2 0.2 0
31.6 0.2 0
32 0.2 0
32.4 0.2 0
32.8 0.2 0
33.2 0.2 0
33.6 0.2 0
34 0.2 0
34.4 0.2 0
34.8 0.2 0
35.2 0.2 0
35.6 0.2 0
36 0.2 0
36.4 0.2 0
36.8 0.2 0
37.2 0.2 0
37.6 0.2 0
38 0.2 0
38.4 0.2 0
38.8 0.2 0
39.2 0.2 0
39.6 0.2 0
40 0.2 0
40.4 0.2 0
0 0.3 0
0.4 0.3 0
0.8 0.3 0
1.2 0.3 0
1.6 0.3 0
2 0.3 0
2.4 0.3 0
2.8 0.3 0
3.2 0.3 0
3.6 0.3 0
4 0.3 0
4.4 0.3 0
4.8 0.3 0
5.2 0.3 0
5.6 0.3 0
6 0.3 0
6.4 0.3 0
6.8 0.3 0
7.2 0.3 0
7.6 0.3 0
8 0.3 0
8.4 0.3 0
8.8 0.3 0
9.2 0.3 0
9.6 0.3 0
10 0.3 0
10.4 0.3 0
10.8 0.3 0
11.2 0.3 0
11.6 0.3 0
12 0.3 0
12.4 0.3 0
12.8 0.3 0
13.2 0.3 0
13.6 0.3 0
14 0.3 0
14.4 0.3 0
14.8 0.3 0
15.2 0.3 0
15.6 0.3 0
16 0.3 0
16.4 0.3 0
16.8 0.3 0
17.2 0.3 0
17.6 0.3 0
18 0.3 0
18.4 0.3 0
18.8 0.3 0
19.2 0.3 0
19.6 0.3 0
20 0.3 0
20.4 0.3 0
20.8 0.3 0
21.2 0.3 0
21.6 0.3 0
22 0.3 0
22.4 0.3 0
22.8 0.3 0
23.2 0.3 0
23.6 0.3 0
24 0.3 0
24.4 0.3 0
24.8 0.3 0
25.2 0.3 0
25.6 0.3 0
26 0.3 0
26.4 0.3 0
26.8 0.3 0
27.2 0.3 0
27.6 0.3 0
28 0.3 0
28.4 0.3 0
28.8 0.3 0
29.2 0.3 0
29.6 0.3 0
30 0.3 0
30.4 0.3 0
30.8 0.3 0
31.2 0.3 0
31.6 0.3 0
32 0.3 0
32.4 0.3 0
32.8 0.3 0
33.2 0.3 0
33.6 0.3 0
34 0.3 0
34.4 0.3 0
34.8 0.3 0
35.2 0.3 0
35.6 0.3 0
36 0.3 0
36.4 0.3 0
36.8 0.3 0
37.2 0.3 0
37.6 0.3 0
38 0.3 0
38.4 0.3 0
38.8 0.3 0
39.2 0.3 0
39.6 0.3 0
40 0.3 0
40.4 0.3 0
0 0.4 0
0.4 0.4 0
0.8 0.4 0
1.2 0.4 0
1.6 0.4 0
2 0.4 0
2.4 0.4 0
2.8 0.4 0
3.2 0.4 0
3.6 0.4 0
4 0.4 0
4.4 0.4 0
4.8 0.4 0
5.2 0.4 0
5.6 0.4 0
6 0.4 0
6.4 0.4 0
6.8 0.4 0
7.2 0.4 0
7.6 0.4 0
8 0.4 0
8.4 0.4 0
8.8 0.4 0
9.2 0.4 0
9.6 0.4 0
10 0.4 0
10.4 0.4 0
10.8 0.4 0
11.2 0.4 0
11.6 0.4 0
12 0.4 0
12.4 0.4 0
12.8 0.4 0
13.2 0.4 0
13.6 0.4 0
14 0.4 0
14.4 0.4 0
14.8 0.4 0
15.2 0.4 0
15.6 0.4 0
16 0.4 0
16.4 0.4 0
16.8 0.4 0
17.2 0.4 0
17.6 0.4 0
18 0.4 0
18.4 0.4 0
18.8 0.4 0
19.2 0.4 0
19.6 0.4 0
20 0.4 0
20.4 0.4 0
20.8 0.4 0
21.2 0.4 0
21.6 0.4 0
22 0.4 0
22.4 0.4 0
22.8 0.4 0
23.2 0.4 0
23.6 0.4 0
24 0.4 0
24.4 0.4 0
24.8 0.4 0
25.2 0.4 0
25.6 0.4 0
26 0.4 0
26.4 0.4 0
26.8 0.4 0
27.2 0.4 0
27.6 0.4 0
28 0.4 0
28.4 0.4 0
28.8 0.4 0
29.2 0.4 0
29.6 0.4 0
30 0.4 0
30.4 0.4 0
30.8 0.4 0
31.2 0.4 0
31.6 0.4 0
32 0.4 0
32.4 0.4 0
32.8 0.4 0
33.2 0.4 0
33.6 0.4 0
34 0.4 0
34.4 0.4 0
34.8 0.4 0
35.2 0.4 0
35.6 0.4 0
36 0.4 0
36.4 0.4 0
36.8 0.4 0
37.2 0.4 0
37.6 0.4 0
38 0.4 0
38.4 0.4 0
38.8 0.4 0
39.2 0.4 0
39.6 0.4 0
40 0.4 0
40.4 0.4 0
0 0.5 0
0.4 0.5 0
0.8 0.5 0
1.2 0.5 0
1.6 0.5 0
2 0.5 0
2.4 0.5 0
2.8 0.5 0
3.2 0.5 0
3.6 0.5 0
4 0.5 0
4.4 0.5 0
4.8 0.5 0
5.2 0.5 0
5.6 0.5 0
6 0.5 0
6.4 0.5 0
6.8 0.5 0
7.2 0.5 0
7.6 0.5 0
8 0.5 0
8.4 0.5 0
8.8 0.5 0
9.2 0.5 0
9.6 0.5 0
10 0.5 0
10.4 0.5 0
10.8 0.5 0
11.2 0.5 0
11.6 0.5 0
12 0.5 0
12.4 0.5 0
12.8 0.5 0
13.2 0.5 0
13.6 0.5 0
14 0.5 0
14.4 0.5 0
14.8 0.5 0
15.2 0.5 0
15.6 0.5 0
16 0.5 0
16.4 0.5 0
16.8 0.5 0
17.2 0.5 0
17.6 0.5 0
18 0.5 0
18.4 0.5 0
18.8 0.5 0
19.2 0.5 0
19.6 0.5 0
20 0.5 0
20.4 0.5 0
20.8 0.5 0
21.2 0.5 0
21.6 0.5 0
22 0.5 0
22.4 0.5 0
22.8 0.5 0
23.2 0.5 0
23.6 0.5 0
24 0.5 0
24.4 0.5 0
24.8 0.5 0
25.2 0.5 0
25.6 0.5 0
26 0.5 0
26.4 0.5 0
26.8 0.5 0
27.2 0.5 0
27.6 0.5 0
28 0.5 0
28.4 0.5 0
28.8 0.5 0
29.2 0.5 0
29.6 0.5 0
30 0.5 0
30.4 0.5 0
30.8 0.5 0
31.2 0.5 0
31.6 0.5 0
32 0.5 0
32.4 0.5 0
32.8 0.5 0
33.2 0.5 0
33.6 0.5 0
34 0.5 0
34.4 0.5 0
34.8 0.5 0
35.2 0.5 0
35.6 0.5 0
36 0.5 0
36.4 0.5 0
36.8 0.5 0
37.2 0.5 0
37.6 0.5 0
38 0.5 0
38.4 0.5 0
38.8 0.5 0
39.2 0.5 0
39.6 0.5 0
40 0.5 0
40.4 0.5 0
0 0.6 0
0.4 0.6 0
0.8 0.6 0
1.2 0.6 0
1.6 0.6 0
2 0.6 0
2.4 0.6 0
2.8 0.6 0
3.2 0.6 0
3.6 0.6 0
4 0.6 0
4.4 0.6 0
4.8 0.6 0
5.2 0.6 0
5.6 0.6 0
6 0.6 0
6.4 0.6 0
6.8 0.6 0
7.2 0.6 0
7.6 0.6 0
8 0.6 0
8.4 0.6 0
8.8 0.6 0
9.2 0.6 0
9.6 0.6 0
10 0.6 0
10.4 0.6 0
10.8 0.6 0
11.2 0.6 0
11.6 0.6 0
12 0.6 0
12.4 0.6 0
12.8 0.6 0
13.2 0.6 0
13.6 0.6 0
14 0.6 0
14.4 0.6 0
14.8 0.6 0
15.2 0.6 0
15.6 0.6 0
16 0.6 0
16.4 0.6 0
16.8 0.6 0
17.2 0.6 0
17.6 0.6 0
18 0.6 0
18.4 0.6 0
18.8 0.6 0
19.2 0.6 0
19.6 0.6 0
20 0.6 0
20.4 0.6 0
20.8 0.6 0
21.2 0.6 0
21.6 0.6 0
22 0.6 0
22.4 0.6 0
22.8 0.6 0
23.2 0.6 0
23.6 0.6 0
24 0.6 0
24.4 0.6 0
24.8 0.6 0
25.2 0.6 0
25.6 0.6 0
26 0.6 0
26.4 0.6 0
26.8 0.6 0
27.2 0.6 0
27.6 0.6 0
28 0.6 0
28.4 0.6 0
28.8 0.6 0
29.2 0.6 0
29.6 0.6 0
30 0.6 0
30.4 0.6 0
30.8 0.6 0
31.2 0.6 0
31.6 0.6 0
32 0.6 0
32.4 0.6 0
32.8 0.6 0
33.2 0.6 0
33.6 0.6 0
34 0.6 0
34.4 0.6 0
34.8 0.6 0
35.2 0.6 0
35.6 0.6 0
36 0.6 0
36.4 0.6 0
36.8 0.6 0
37.2 0.6 0
37.6 0.6 0
38 0.6 0
38.4 0.6 0
38.8 0.6 0
39.2 0.6 0
39.6 0.6 0
40 0.6 0
40.4 0.6 0
0 0.7 0
0.4 0.7 0
0.8 0.7 0
1.2 0.7 0
1.6 0.7 0
2 0.7 0
2.4 0.7 0
2.8 0.7 0
3.2 0.7 0
3.6 0.7 0
4 0.7 0
4.4 0.7 0
4.8 0.7 0
5.2 0.7 0
5.6 0.7 0
6 0.7 0
6.4 0.7 0
6.8 0.7 0
7.2 0.7 0
7.6 0.7 0
8 0.7 0
8.4 0.7 0
8.8 0.7 0
9.2 0.7 0
9.6 0.7 0
10 0.7 0
10.4 0.7 0
10.8 0.7 0
11.2 0.7 0
11.6 0.7 0
12 0.7 0
12.4 0.7 0
12.8 0.7 0
13.2 0.7 0
13.6 0.7 0
14 0.7 0
14.4 0.7 0
14.8 0.7 0
15.2 0.7 0
15.6 0.7 0
16 0.7 0
16.4 0.7 0
16.8 0.7 0
17.2 0.7 0
17.6 0.7 0
18 0.7 0
18.4 0.7 0
18.8 0.7 0
19.2 0.7 0
19.6 0.7 0
20 0.7 0
20.4 0.7 0
20.8 0.7 0
21.2 0.7 0
21.6 0.7 0
22 0.7 0
22.4 0.7 0
22.8 0.7 0
23.2 0.7 0
23.6 0.7 0
24 0.7 0
24.4 0.7 0
24.8 0.7 0
25.2 0.7 0
25.6 0.7 0
26 0.7 0
26.4 0.7 0
26.8 0.7 0
27.2 0.7 0
27.6 0.7 0
28 0.7 0
28.4 0.7 0
28.8 0.7 0
29.2 0.7 0
29.6 0.7 0
30 0.7 0
30.4 0.7 0
30.8 0.7 0
31.2 0.7 0
31.6 0.7 0
32 0.7 0
32.4 0.7 0
32.8 0.7 0
33.2 0.7 0
33.6 0.7 0
34 0.7 0
34.4 0.7 0
34.8 0.7 0
35.2 0.7 0
35.6 0.7 0
36 0.7 0
36.4 0.7 0
36.8 0.7 0
37.2 0.7 0
37.6 0.7 0
38 0.7 0
38.4 0.7 0
38.8 0.7 0
39.2 0.7 0
39.6 0.7 0
40 0.7 0
40.4 0.7 0
0 0.8 0
0.4 0.8 0
0.8 0.8 0
1.2 0.8 0
1.6 0.8 0
2 0.8 0
2.4 0.8 0
2.8 0.8 0
3.2 0.8 0
3.6 0.8 0
4 0.8 0
4.4 0.8 0
4.8 0.8 0
5.2 0.8 0
5.6 0.8 0
6 0.8 0
6.4 0.8 0
6.8 0.8 0
7.2 0.8 0
7.6 0.8 0
8 0.8 0
8.4 0.8 0
8.8 0.8 0
9.2 0.8 0
9.6 0.8 0
10 0.8 0
10.4 0.8 0
10.8 0.8 0
11.2 0.8 0
11.6 0.8 0
12 0.8 0
12.4 0.8 0
12.8 0.8 0
13.2 0.8 0
13.6 0.8 0
14 0.8 0
14.4 0.8 0
14.8 0.8 0
15.2 0.8 0
15.6 0.8 0
16 0.8 0
16.4 0.8 0
16.8 0.8 0
17.2 0.8 0
17.6 0.8 0
18 0.8 0
18.4 0.8 0
18.8 0.8 0
19.2 0.8 0
19.6 0.8 0
20 0.8 0
20.4 0.8 0
20.8 0.8 0
21.2 0.8 0
21.6 0.8 0
22 0.8 0
22.4 0.8 0
22.8 0.8 0
23.2 0.8 0
23.6 0.8 0
24 0.8 0
24.4 0.8 0
24.8 0.8 0
25.2 0.8 0
25.6 0.8 0
26 0.8 0
26.4 0.8 0
26.8 0.8 0
27.2 0.8 0
27.6 0.8 0
28 0.8 0
28.4 0.8 0
28.8 0.8 0
29.2 0.8 0
29.6 0.8 0
30 0.8 0
30.4 0.8 0
30.8 0.8 0
31.2 0.8 0
31.6 0.8 0
32 0.8 0
32.4 0.8 0
32.8 0.8 0
33.2 0.8 0
33.6 0.8 0
34 0.8 0
34.4 0.8 0
34.8 0.8 0
35.2 0.8 0
35.6 0.8 0
36 0.8 0
36.4 0.8 0
36.8 0.8 0
37.2 0.8 0
37.6 0.8 0
38 0.8 0
38.4 0.8 0
38.8 0.8 0
39.2 0.8 0
39.6 0.8 0
40 0.8 0
40.4 0.8 0
0 0.9 0
0.4 0.9 0
0.8 0.9 0
1.2 0.9 0
1.6 0.9 0
2 0.9 0
2.4 0.9 0
2.8 0.9 0
3.2 0.9 0
3.6 0.9 0
4 0.9 0
4.4 0.9 0
4.8 0.9 0
5.2 0.9 0
5.6 0.9 0
6 0.9 0
6.4 0.9 0
6.8 0.9 0
7.2 0.9 0
7.6 0.9 0
8 0.9 0
8.4 0.9 0
8.8 0.9 0
9.2 0.9 0
9.6 0.9 0
10 0.9 0
10.4 0.9 0
10.8 0.9 0
11.2 0.9 0
11.6 0.9 0
12 0.9 0
12.4 0.9 0
12.8 0.9 0
13.2 0.9 0
13.6 0.9 0
14 0.9 0
14.4 0.9 0
14.8 0.9 0
15.2 0.9 0
15.6 0.9 0
16 0.9 0
16.4 0.9 0
16.8 0.9 0
17.2 0.9 0
17.6 0.9 0
18 0.9 0
18.4 0.9 0
18.8 0.9 0
19.2 0.9 0
19.6 0.9 0
20 0.9 0
20.4 0.9 0
20.8 0.9 0
21.2 0.9 0
21.6 0.9 0
22 0.9 0
22.4 0.9 0
22.8 0.9 0
23.2 0.9 0
23.6 0.9 0
24 0.9 0
24.4 0.9 0
24.8 0.9 0
25.2 0.9 0
25.6 0.9 0
26 0.9 0
26.4 0.9 0
26.8 0.9 0
27.2 0.9 0
27.6 0.9 0
28 0.9 0
28.4 0.9 0
28.8 0.9 0
29.2 0.9 0
29.6 0.9 0
30 0.9 0
30.4 0.9 0
30.8 0.9 0
31.2 0.9 0
31.6 0.9 0
32 0.9 0
32.4 0.9 0
32.8 0.9 0
33.2 0.9 0
33.6 0.9 0
34 0.9 0
34.4 0.9 0
34.8 0.9 0
35.2 0.9 0
35.6 0.9 0
36 0.9 0
36.4 0.9 0
36.8 0.9 0
37.2 0.9 0
37.6 0.9 0
38 0.9 0
38.4 0.9 0
38.8 0.9 0
39.2 0.9 0
39.6 0.9 0
40 0.9 0
40.4 0.9 0
0 1 0
0.4 1 0
0.8 1 0
1.2 1 0
1.6 1 0
2 1 0
2.4 1 0
2.8 1 0
3.2 1 0
3.6 1 0
4 1 0
4.4 1 0
4.8 1 0
5.2 1 0
5.6 1 0
6 1 0
6.4 1 0
6.8 1 0
7.2 1 0
7.6 1 0
8 1 0
8.4 1 0
8.8 1 0
9.2 1 0
9.6 1 0
10 1 0
10.4 1 0
10.8 1 0
11.2 1 0
11.6 1 0
12 1 0
12.4 1 0
12.8 1 0
13.2 1 0
13.6 1 0
14 1 0
14.4 1 0
14.8 1 0
15.2 1 0
15.6 1 0
16 1 0
16.4 1 0
16.8 1 0
17.2 1 0
17.6 1 0
18 1 0
18.4 1 0
18.8 1 0
19.2 1 0
19.6 1 0
20 1 0
20.4 1 0
20.8 1 0
21.2 1 0
21.6 1 0
22 1 0
22.4 1 0
22.8 1 0
23.2 1 0
23.6 1 0
24 1 0
24.4 1 0
24.8 1 0
25.2 1 0
25.6 1 0
26 1 0
26.4 1 0
26.8 1 0
27.2 1 0
27.6 1 0
28 1 0
28.4 1 0
28.8 1 0
29.2 1 0
29.6 1 0
30 1 0
30.4 1 0
30.8 1 0
31.2 1 0
31.6 1 0
32 1 0
32.4 1 0
32.8 1 0
33.2 1 0
33.6 1 0
34 1 0
34.4 1 0
34.8 1 0
35.2 1 0
35.6 1 0
36 1 0
36.4 1 0
36.8 1 0
37.2 1 0
37.6 1 0
38 1 0
38.4 1 0
38.8 1 0
39.2 1 0
39.6 1 0
40 1 0
40.4 1 0
0 1.1 0
0.4 1.1 0
0.8 1.1 0
1.2 1.1 0
1.6 1.1 0
2 1.1 0
2.4 1.1 0
2.8 1.1 0
3.2 1.1 0
3.6 1.1 0
4 1.1 0
4.4 1.1 0
4.8 1.1 0
5.2 1.1 0
5.6 1.1 0
6 1.1 0
6.4 1.1 0
6.8 1.1 0
7.2 1.1 0
7.6 1.1 0
8 1.1 0
8.4 1.1 0
8.8 1.1 0
9.2 1.1 0
9.6 1.1 0
10 1.1 0
10.4 1.1 0
10.8 1.1 0
11.2 1.1 0
11.6 1.1 0
12 1.1 0
12.4 1.1 0
12.8 1.1 0
13.2 1.1 0
13.6 1.1 0
14 1.1 0
14.4 1.1 0
14.8 1.1 0
15.2 1.1 0
15.6 1.1 0
16 1.1 0
16.4 1.1 0
16.8 1.1 0
17.2 1.1 0
17.6 1.1 0
18 1.1 0
18.4 1.1 0
18.8 1.1 0
19.2 1.1 0
19.6 1.1 0
20 1.1 0
20.4 1.1 0
20.8 1.1 0
21.2 1.1 0
21.6 1.1 0
22 1.1 0
22.4 1.1 0
22.8 1.1 0
23.2 1.1 0
23.6 1.1 0
24 1.1 0
24.4 1.1 0
24.8 1.1 0
25.2 1.1 0
25.6 1.1 0
26 1.1 0
26.4 1.1 0
26.8 1.1 0
27.2 1.1 0
27.6 1.1 0
28 1.1 0
28.4 1.1 0
28.8 1.1 0
29.2 1.1 0
29.6 1.1 0
30 1.1 0
30.4 1.1 0
30.8 1.1 0
31.2 1.1 0
31.6 1.1 0
32 1.1 0
32.4 1.1 0
32.8 1.1 0
33.2 1.1 0
33.6 1.1 0
34 1.1 0
34.4 1.1 0
34.8 1.1 0
35.2 1.1 0
35.6 1.1 0
36 1.1 0
36.4 1.1 0
36.8 1.1 0
37.2 1.1 0
37.6 1.1 0
38 1.1 0
38.4 1.1 0
38.8 1.1 0
39.2 1.1 0
39.6 1.1 0
40 1.1 0
40.4 1.1 0

POINT_DATA 1224

SCALARS v double
LOOKUP_TABLE default
0
0
0
0
0
0
0
0
0
0
0
0
0
0
0
0
0
0
0
0
0
0
0
0
0
0
0
0
0
0
0
0
0
0
0
0
0
0
0
0
0
0
0
0
0
0
0
0
0
0
0
0
0
0
0
0
0
0
0
0
0
0
0
0
0
0
0
0
0
0
0
0
0
0
0
0
0
0
0
0
0
0
0
0
0
0
0
0
0
0
0
0
0
0
0
0
0
0
0
0
0
0
0
0.0787076
0.0554407
0.0327103
0.0178114
0.00965828
0.00557766
0.00354707
0.00247031
0.00183778
0.00142579
0.00113507
0.000918515
0.000751463
0.00061962
0.000513892
0.000428089
0.000357825
0.00029989
0.000251865
0.000211877
0.000178463
0.00015047
0.000126962
0.000107185
9.05378e-05
7.65129e-05
6.46764e-05
5.46806e-05
4.6244e-05
3.91155e-05
3.3085e-05
2.79891e-05
2.36832e-05
2.00386e-05
1.69557e-05
1.43512e-05
1.21465e-05
1.02784e-05
8.69744e-06
7.35659e-06
6.21635e-06
5.24647e-06
4.41823e-06
3.70878e-06
3.1014e-06
2.58034e-06
2.13351e-06
1.75034e-06
1.42248e-06
1.14661e-06
9.16246e-07
7.22218e-07
5.61989e-07
4.33495e-07
3.30739e-07
2.49997e-07
1.87429e-07
1.38577e-07
1.02257e-07
7.52346e-08
5.55397e-08
4.40514e-08
3.40049e-08
2.38357e-08
2.0223e-08
1.91036e-08
1.64303e-08
1.50748e-08
1.29932e-08
1.06183e-08
1.18682e-08
1.50737e-08
1.28414e-08
6.11646e-09
1.06889e-08
1.58897e-08
8.50076e-09
8.21296e-09
1.09879e-08
1.05791e-08
1.06774e-08
7.17392e-09
9.20197e-09
1.0328e-08
8.59226e-09
8.17589e-09
7.0376e-09
9.50464e-09
8.35602e-09
6.82733e-09
8.11496e-09
6.14381e-09
7.94792e-09
7.29364e-09
6.31136e-09
6.41699e-09
4.56356e-09
9.39554e-09
3.0986e-10
-2.01479e-08
-2.01479e-08
0
0.0668416
0.0608389
0.042293
0.0271276
0.0175004
0.0118521
0.00849207
0.00637032
0.00493627
0.00391078
0.00314666
0.00256044
0.00210111
0.00173542
0.00144066
0.00120073
0.00100389
0.00084139
0.000706577
0.000594285
0.000500456
0.000421856
0.00035587
0.000300385
0.00025368
0.000214326
0.00018113
0.000153115
0.000129465
0.000109484
9.25959e-05
7.83252e-05
6.62614e-05
5.60575e-05
4.74299e-05
4.01351e-05
3.39611e-05
2.87337e-05
2.43071e-05
2.05514e-05
1.73588e-05
1.46413e-05
1.23207e-05
1.03345e-05
8.63316e-06
7.17349e-06
5.92142e-06
4.84965e-06
3.9366e-06
3.16571e-06
2.51858e-06
1.97851e-06
1.5356e-06
1.17802e-06
8.91863e-07
6.67092e-07
4.92667e-07
3.5861e-07
2.5891e-07
1.85278e-07
1.32269e-07
9.59685e-08
6.74708e-08
4.67326e-08
3.66025e-08
2.93707e-08
2.27928e-08
1.90425e-08
1.51803e-08
1.31684e-08
1.50574e-08
1.58808e-08
1.08601e-08
7.82672e-09
1.46353e-08
1.43376e-08
7.69169e-09
1.03909e-08
1.16043e-08
1.11133e-08
9.98208e-09
7.73096e-09
1.06127e-08
9.98153e-09
8.66354e-09
7.97008e-09
8.04869e-09
9.88953e-09
7.50448e-09
7.29954e-09
7.50927e-09
6.99959e-09
8.12472e-09
6.32247e-09
5.82317e-09
7.22236e-09
3.09977e-09
1.36111e-08
-3.43847e-08
-6.77141e-08
-6.77141e-08
0
0.0434614
0.0450424
0.0342517
0.0238914
0.0167606
0.0122648
0.00937332
0.00739329
0.00595019
0.0048499
0.00398641
0.00329627
0.00273791
0.00228216
0.00190765
0.00159822
0.00134146
0.00112764
0.000949062
0.000799556
0.000674153
0.000568798
0.000480161
0.000405513
0.000342595
0.000289524
0.00024473
0.00020691
0.000174967
0.000147972
0.000125155
0.000105869
8.95623e-05
7.57707e-05
6.41096e-05
5.42471e-05
4.59001e-05
3.88347e-05
3.28511e-05
2.77744e-05
2.34607e-05
1.97896e-05
1.66557e-05
1.39753e-05
1.16798e-05
9.7105e-06
8.02144e-06
6.57629e-06
5.34529e-06
4.30377e-06
3.42754e-06
2.6969e-06
2.09732e-06
1.61098e-06
1.22086e-06
9.13706e-07
6.74318e-07
4.90592e-07
3.53631e-07
2.52075e-07
1.78598e-07
1.26368e-07
8.67383e-08
6.0282e-08
4.54469e-08
3.36541e-08
2.48601e-08
1.95731e-08
1.49575e-08
1.37507e-08
1.50175e-08
1.2996e-08
8.09546e-09
9.23299e-09
1.4281e-08
1.01501e-08
6.8303e-09
1.03043e-08
1.00136e-08
9.47112e-09
7.79782e-09
7.33956e-09
9.55298e-09
7.97788e-09
7.19716e-09
6.61609e-09
7.61956e-09
7.94914e-09
5.68378e-09
6.25474e-09
6.20221e-09
6.40381e-09
5.7852e-09
4.79561e-09
5.05471e-09
6.46664e-09
1.41344e-09
1.41778e-08
-5.90142e-08
-9.2012e-08
-9.2012e-08
0
0.0210569
0.0230875
0.0183628
0.0133674
0.00978215
0.0074449
0.00588656
0.004776
0.00393344
0.00326683
0.00272647
0.0022825
0.00191491
0.00160904
0.00135369
0.00113996
0.000960747
0.000810235
0.00068367
0.000577135
0.000487389
0.000411732
0.000347912
0.000294051
0.000248577
0.000210165
0.000177713
0.000150294
0.000127118
0.000107522
9.09552e-05
7.69479e-05
6.51e-05
5.50788e-05
4.66051e-05
3.94366e-05
3.33688e-05
2.82339e-05
2.3885e-05
2.01948e-05
1.70605e-05
1.43937e-05
1.21173e-05
1.01718e-05
8.50615e-06
7.07674e-06
5.85114e-06
4.80291e-06
3.90968e-06
3.1529e-06
2.51502e-06
1.98309e-06
1.5463e-06
1.19054e-06
9.04623e-07
6.79096e-07
5.02263e-07
3.66653e-07
2.65574e-07
1.90005e-07
1.3509e-07
9.52086e-08
6.51284e-08
4.63301e-08
3.50495e-08
2.52113e-08
1.87194e-08
1.45863e-08
1.13378e-08
1.14434e-08
1.15218e-08
8.1061e-09
5.78524e-09
9.06283e-09
1.04232e-08
5.83389e-09
5.84848e-09
8.24172e-09
7.19108e-09
6.6017e-09
5.27085e-09
6.02278e-09
6.87188e-09
5.31486e-09
4.93887e-09
4.82961e-09
5.848e-09
4.9024e-09
3.68094e-09
4.53457e-09
4.41852e-09
4.10938e-09
3.17126e-09
3.60747e-09
3.67685e-09
4.25795e-09
5.92777e-10
1.01072e-08
-4.46577e-08
-6.42466e-08
-6.42466e-08
0
4.14213e-08
4.01279e-08
4.72259e-08
3.60473e-08
2.33409e-08
2.81782e-08
3.13874e-08
1.93312e-08
1.44123e-08
2.29626e-08
2.08115e-08
1.50716e-08
1.82254e-08
2.08766e-08
1.88319e-08
1.82726e-08
1.97447e-08
1.93593e-08
1.74781e-08
1.49869e-08
1.30963e-08
1.22425e-08
1.33277e-08
1.60416e-08
1.65594e-08
1.39075e-08
1.25726e-08
1.34991e-08
1.29347e-08
1.15048e-08
1.19903e-08
1.28406e-08
1.17553e-08
1.11712e-08
1.24255e-08
1.21774e-08
1.08185e-08
1.17103e-08
1.25457e-08
1.15598e-08
1.18999e-08
1.24532e-08
1.16163e-08
1.20824e-08
1.26298e-08
1.16e-08
1.11861e-08
1.13926e-08
1.13746e-08
1.11688e-08
1.00484e-08
9.47297e-09
9.89523e-09
9.31998e-09
8.96892e-09
8.98693e-09
7.77159e-09
7.4289e-09
8.02653e-09
7.57348e-09
7.29282e-09
6.44535e-09
5.0068e-09
6.01804e-09
6.74206e-09
5.52738e-09
5.44992e-09
5.20677e-09
5.16002e-09
6.73211e-09
5.99501e-09
3.36562e-09
4.26808e-09
7.00764e-09
5.37102e-09
2.93592e-09
4.60297e-09
5.30479e-09
4.2124e-09
3.70839e-09
3.22966e-09
4.11645e-09
3.86919e-09
2.89374e-09
2.76148e-09
3.12581e-09
3.41253e-09
2.13522e-09
2.12333e-09
2.72001e-09
2.26151e-09
1.67556e-09
1.72326e-09
2.29702e-09
1.92471e-09
1.5312e-09
1.68826e-09
2.05484e-09
2.1439e-09
5.22589e-09
5.22589e-09
0
-0.0210569
-0.0230874
-0.0183628
-0.0133673
-0.0097821
-0.00744484
-0.0058865
-0.00477595
-0.00393341
-0.00326678
-0.00272642
-0.00228247
-0.00191487
-0.001609
-0.00135365
-0.00113993
-0.000960709
-0.000810199
-0.000683638
-0.000577107
-0.000487363
-0.000411706
-0.000347884
-0.000294021
-0.000248545
-0.000210138
-0.000177689
-0.000150268
-0.000127092
-0.000107499
-9.09316e-05
-7.69226e-05
-6.50764e-05
-5.50565e-05
-4.65808e-05
-3.94123e-05
-3.33469e-05
-2.82107e-05
-2.38603e-05
-2.01716e-05
-1.70367e-05
-1.4369e-05
-1.2094e-05
-1.01476e-05
-8.48117e-06
-7.05339e-06
-5.82836e-06
-4.78006e-06
-3.88705e-06
-3.13034e-06
-2.49423e-06
-1.96359e-06
-1.5263e-06
-1.17142e-06
-8.86085e-07
-6.60575e-07
-4.8586e-07
-3.50943e-07
-2.48956e-07
-1.74331e-07
-1.19759e-07
-8.10366e-08
-5.3869e-08
-3.38134e-08
-2.09807e-08
-1.30326e-08
-6.80627e-09
-3.07551e-09
-7.6103e-11
2.23921e-09
1.29571e-09
8.84278e-10
3.62001e-09
4.0538e-09
1.76012e-09
1.9845e-09
3.29741e-09
2.88194e-09
2.13066e-09
1.90433e-09
2.1051e-09
2.38274e-09
1.81685e-09
1.41521e-09
1.46965e-09
1.94496e-09
1.39086e-09
7.35471e-10
1.32938e-09
1.24096e-09
7.4063e-10
6.17483e-10
1.18254e-09
9.79712e-10
7.32526e-10
-7.25983e-11
3.55207e-09
-5.02772e-09
4.96839e-08
7.4656e-08
7.4656e-08
0
-0.0434614
-0.0450424
-0.0342517
-0.0238913
-0.0167606
-0.0122647
-0.00937327
-0.00739325
-0.00595016
-0.00484986
-0.00398637
-0.00329624
-0.00273787
-0.00228213
-0.00190761
-0.00159819
-0.00134143
-0.00112762
-0.000949037
-0.000799533
-0.000674128
-0.000568768
-0.000480131
-0.000405486
-0.000342569
-0.000289498
-0.000244707
-0.000206887
-0.000174942
-0.000147947
-0.000125132
-0.000105845
-8.95384e-05
-7.57486e-05
-6.40865e-05
-5.42233e-05
-4.58775e-05
-3.88119e-05
-3.28272e-05
-2.77511e-05
-2.34371e-05
-1.97654e-05
-1.66321e-05
-1.39513e-05
-1.16555e-05
-9.6868e-06
-7.99772e-06
-6.55315e-06
-5.32284e-06
-4.28068e-06
-3.40494e-06
-2.67582e-06
-2.07659e-06
-1.59052e-06
-1.20065e-06
-8.93588e-07
-6.55499e-07
-4.7254e-07
-3.35344e-07
-2.34786e-07
-1.61297e-07
-1.08863e-07
-7.1999e-08
-4.62609e-08
-2.97405e-08
-1.84354e-08
-1.01744e-08
-5.088e-09
-1.23549e-09
5.19338e-10
-1.38121e-10
1.52121e-09
3.85201e-09
2.06507e-09
1.1084e-09
2.72299e-09
2.73319e-09
2.06965e-09
1.69611e-09
1.8652e-09
2.16095e-09
1.76615e-09
1.48433e-09
1.38009e-09
1.57362e-09
1.73151e-09
8.28534e-10
1.0883e-09
1.41831e-09
8.66835e-10
8.70018e-10
1.01366e-09
1.25791e-09
6.26476e-10
9.8885e-10
-2.49842e-11
4.97663e-09
-6.93382e-09
6.605e-08
1.02447e-07
1.02447e-07
0
-0.0668415
-0.0608389
-0.0422929
-0.0271275
-0.0175004
-0.0118521
-0.00849205
-0.00637028
-0.00493624
-0.00391076
-0.00314663
-0.00256041
-0.00210108
-0.00173539
-0.00144063
-0.0012007
-0.00100386
-0.000841372
-0.000706559
-0.000594264
-0.00050043
-0.000421822
-0.000355838
-0.000300363
-0.00025366
-0.000214301
-0.000181107
-0.000153095
-0.00012944
-0.000109459
-9.25741e-05
-7.83026e-05
-6.62373e-05
-5.60353e-05
-4.74081e-05
-4.01118e-05
-3.39378e-05
-2.87111e-05
-2.42841e-05
-2.0528e-05
-1.73354e-05
-1.46176e-05
-1.2297e-05
-1.03109e-05
-8.60961e-06
-7.14955e-06
-5.89673e-06
-4.82598e-06
-3.91425e-06
-3.14216e-06
-2.49394e-06
-1.95529e-06
-1.51369e-06
-1.15589e-06
-8.69532e-07
-6.44835e-07
-4.70758e-07
-3.37408e-07
-2.38225e-07
-1.65678e-07
-1.12412e-07
-7.44307e-08
-4.79981e-08
-3.00467e-08
-1.85582e-08
-1.02704e-08
-4.28333e-09
-4.93955e-10
2.04275e-09
2.28159e-09
2.11838e-09
4.65924e-09
5.06213e-09
2.4546e-09
3.47318e-09
4.76455e-09
3.68269e-09
3.36089e-09
3.23593e-09
3.68555e-09
3.55604e-09
2.911e-09
3.0541e-09
2.95594e-09
3.18826e-09
2.83834e-09
2.19121e-09
2.96393e-09
2.56758e-09
2.2482e-09
2.58235e-09
2.40118e-09
2.34784e-09
1.96534e-09
2.55108e-09
1.49702e-09
5.46134e-09
-3.40109e-09
4.38071e-08
7.85135e-08
7.85135e-08
0
-0.0787075
-0.0554406
-0.0327103
-0.0178113
-0.00965826
-0.00557767
-0.00354708
-0.00247029
-0.00183775
-0.00142579
-0.00113505
-0.00091848
-0.000751436
-0.000619599
-0.000513865
-0.000428063
-0.000357809
-0.000299879
-0.000251848
-0.000211853
-0.000178435
-0.000150436
-0.000126932
-0.000107167
-9.0522e-05
-7.64899e-05
-6.46533e-05
-5.46611e-05
-4.62207e-05
-3.90898e-05
-3.30631e-05
-2.79678e-05
-2.36594e-05
-2.00159e-05
-1.69347e-05
-1.43285e-05
-1.21228e-05
-1.02559e-05
-8.67499e-06
-7.33334e-06
-6.19327e-06
-5.22319e-06
-4.39444e-06
-3.68538e-06
-3.0783e-06
-2.55637e-06
-2.10836e-06
-1.72592e-06
-1.39974e-06
-1.12289e-06
-8.9023e-07
-6.96952e-07
-5.3859e-07
-4.09814e-07
-3.06584e-07
-2.25785e-07
-1.62832e-07
-1.14533e-07
-7.91756e-08
-5.31977e-08
-3.35253e-08
-1.96199e-08
-1.01953e-08
-3.81789e-09
4.40045e-10
3.50881e-09
5.53788e-09
6.68983e-09
7.15979e-09
6.39416e-09
6.96012e-09
9.02968e-09
7.43131e-09
5.63971e-09
7.79344e-09
7.773e-09
6.47651e-09
6.49957e-09
6.50193e-09
6.93718e-09
6.23619e-09
5.8134e-09
6.10882e-09
5.90845e-09
6.00914e-09
5.27014e-09
5.19736e-09
5.77299e-09
4.92237e-09
5.14251e-09
5.09215e-09
4.69839e-09
4.70789e-09
4.59342e-09
4.77615e-09
3.99003e-09
5.80525e-09
1.93391e-09
1.15618e-08
3.10784e-08
3.10784e-08
0
0
0
0
0
0
0
0
0
0
0
0
0
0
0
0
0
0
0
0
0
0
0
0
0
0
0
0
0
0
0
0
0
0
0
0
0
0
0
0
0
0
0
0
0
0
0
0
0
0
0
0
0
0
0
0
0
0
0
0
0
0
0
0
0
0
0
0
0
0
0
0
0
0
0
0
0
0
0
0
0
0
0
0
0
0
0
0
0
0
0
0
0
0
0
0
0
0
0
0
0
0
0
0
0
0
0
0
0
0
0
0
0
0
0
0
0
0
0
0
0
0
0
0
0
0
0
0
0
0
0
0
0
0
0
0
0
0
0
0
0
0
0
0
0
0
0
0
0
0
0
0
0
0
0
0
0
0
0
0
0
0
0
0
0
0
0
0
0
0
0
0
0
0
0
0
0
0
0
0
0
0
0
0
0
0
0
0
0
0
0
0
0
0
0
0
0
0
0
0
0
0
0
0
