# vtk DataFile Version 2.0
FlowField
ASCII
DATASET STRUCTURED_GRID
DIMENSIONS 102 1 12 
POINTS 1224 double
0 0 0
0.3 0 0
0.6 0 0
0.9 0 0
1.2 0 0
1.5 0 0
1.8 0 0
2.1 0 0
2.4 0 0
2.7 0 0
3 0 0
3.3 0 0
3.6 0 0
3.9 0 0
4.2 0 0
4.5 0 0
4.8 0 0
5.1 0 0
5.4 0 0
5.7 0 0
6 0 0
6.3 0 0
6.6 0 0
6.9 0 0
7.2 0 0
7.5 0 0
7.8 0 0
8.1 0 0
8.4 0 0
8.7 0 0
9 0 0
9.3 0 0
9.6 0 0
9.9 0 0
10.2 0 0
10.5 0 0
10.8 0 0
11.1 0 0
11.4 0 0
11.7 0 0
12 0 0
12.3 0 0
12.6 0 0
12.9 0 0
13.2 0 0
13.5 0 0
13.8 0 0
14.1 0 0
14.4 0 0
14.7 0 0
15 0 0
15.3 0 0
15.6 0 0
15.9 0 0
16.2 0 0
16.5 0 0
16.8 0 0
17.1 0 0
17.4 0 0
17.7 0 0
18 0 0
18.3 0 0
18.6 0 0
18.9 0 0
19.2 0 0
19.5 0 0
19.8 0 0
20.1 0 0
20.4 0 0
20.7 0 0
21 0 0
21.3 0 0
21.6 0 0
21.9 0 0
22.2 0 0
22.5 0 0
22.8 0 0
23.1 0 0
23.4 0 0
23.7 0 0
24 0 0
24.3 0 0
24.6 0 0
24.9 0 0
25.2 0 0
25.5 0 0
25.8 0 0
26.1 0 0
26.4 0 0
26.7 0 0
27 0 0
27.3 0 0
27.6 0 0
27.9 0 0
28.2 0 0
28.5 0 0
28.8 0 0
29.1 0 0
29.4 0 0
29.7 0 0
30 0 0
30.3 0 0
0 0.1 0
0.3 0.1 0
0.6 0.1 0
0.9 0.1 0
1.2 0.1 0
1.5 0.1 0
1.8 0.1 0
2.1 0.1 0
2.4 0.1 0
2.7 0.1 0
3 0.1 0
3.3 0.1 0
3.6 0.1 0
3.9 0.1 0
4.2 0.1 0
4.5 0.1 0
4.8 0.1 0
5.1 0.1 0
5.4 0.1 0
5.7 0.1 0
6 0.1 0
6.3 0.1 0
6.6 0.1 0
6.9 0.1 0
7.2 0.1 0
7.5 0.1 0
7.8 0.1 0
8.1 0.1 0
8.4 0.1 0
8.7 0.1 0
9 0.1 0
9.3 0.1 0
9.6 0.1 0
9.9 0.1 0
10.2 0.1 0
10.5 0.1 0
10.8 0.1 0
11.1 0.1 0
11.4 0.1 0
11.7 0.1 0
12 0.1 0
12.3 0.1 0
12.6 0.1 0
12.9 0.1 0
13.2 0.1 0
13.5 0.1 0
13.8 0.1 0
14.1 0.1 0
14.4 0.1 0
14.7 0.1 0
15 0.1 0
15.3 0.1 0
15.6 0.1 0
15.9 0.1 0
16.2 0.1 0
16.5 0.1 0
16.8 0.1 0
17.1 0.1 0
17.4 0.1 0
17.7 0.1 0
18 0.1 0
18.3 0.1 0
18.6 0.1 0
18.9 0.1 0
19.2 0.1 0
19.5 0.1 0
19.8 0.1 0
20.1 0.1 0
20.4 0.1 0
20.7 0.1 0
21 0.1 0
21.3 0.1 0
21.6 0.1 0
21.9 0.1 0
22.2 0.1 0
22.5 0.1 0
22.8 0.1 0
23.1 0.1 0
23.4 0.1 0
23.7 0.1 0
24 0.1 0
24.3 0.1 0
24.6 0.1 0
24.9 0.1 0
25.2 0.1 0
25.5 0.1 0
25.8 0.1 0
26.1 0.1 0
26.4 0.1 0
26.7 0.1 0
27 0.1 0
27.3 0.1 0
27.6 0.1 0
27.9 0.1 0
28.2 0.1 0
28.5 0.1 0
28.8 0.1 0
29.1 0.1 0
29.4 0.1 0
29.7 0.1 0
30 0.1 0
30.3 0.1 0
0 0.2 0
0.3 0.2 0
0.6 0.2 0
0.9 0.2 0
1.2 0.2 0
1.5 0.2 0
1.8 0.2 0
2.1 0.2 0
2.4 0.2 0
2.7 0.2 0
3 0.2 0
3.3 0.2 0
3.6 0.2 0
3.9 0.2 0
4.2 0.2 0
4.5 0.2 0
4.8 0.2 0
5.1 0.2 0
5.4 0.2 0
5.7 0.2 0
6 0.2 0
6.3 0.2 0
6.6 0.2 0
6.9 0.2 0
7.2 0.2 0
7.5 0.2 0
7.8 0.2 0
8.1 0.2 0
8.4 0.2 0
8.7 0.2 0
9 0.2 0
9.3 0.2 0
9.6 0.2 0
9.9 0.2 0
10.2 0.2 0
10.5 0.2 0
10.8 0.2 0
11.1 0.2 0
11.4 0.2 0
11.7 0.2 0
12 0.2 0
12.3 0.2 0
12.6 0.2 0
12.9 0.2 0
13.2 0.2 0
13.5 0.2 0
13.8 0.2 0
14.1 0.2 0
14.4 0.2 0
14.7 0.2 0
15 0.2 0
15.3 0.2 0
15.6 0.2 0
15.9 0.2 0
16.2 0.2 0
16.5 0.2 0
16.8 0.2 0
17.1 0.2 0
17.4 0.2 0
17.7 0.2 0
18 0.2 0
18.3 0.2 0
18.6 0.2 0
18.9 0.2 0
19.2 0.2 0
19.5 0.2 0
19.8 0.2 0
20.1 0.2 0
20.4 0.2 0
20.7 0.2 0
21 0.2 0
21.3 0.2 0
21.6 0.2 0
21.9 0.2 0
22.2 0.2 0
22.5 0.2 0
22.8 0.2 0
23.1 0.2 0
23.4 0.2 0
23.7 0.2 0
24 0.2 0
24.3 0.2 0
24.6 0.2 0
24.9 0.2 0
25.2 0.2 0
25.5 0.2 0
25.8 0.2 0
26.1 0.2 0
26.4 0.2 0
26.7 0.2 0
27 0.2 0
27.3 0.2 0
27.6 0.2 0
27.9 0.2 0
28.2 0.2 0
28.5 0.2 0
28.8 0.2 0
29.1 0.2 0
29.4 0.2 0
29.7 0.2 0
30 0.2 0
30.3 0.2 0
0 0.3 0
0.3 0.3 0
0.6 0.3 0
0.9 0.3 0
1.2 0.3 0
1.5 0.3 0
1.8 0.3 0
2.1 0.3 0
2.4 0.3 0
2.7 0.3 0
3 0.3 0
3.3 0.3 0
3.6 0.3 0
3.9 0.3 0
4.2 0.3 0
4.5 0.3 0
4.8 0.3 0
5.1 0.3 0
5.4 0.3 0
5.7 0.3 0
6 0.3 0
6.3 0.3 0
6.6 0.3 0
6.9 0.3 0
7.2 0.3 0
7.5 0.3 0
7.8 0.3 0
8.1 0.3 0
8.4 0.3 0
8.7 0.3 0
9 0.3 0
9.3 0.3 0
9.6 0.3 0
9.9 0.3 0
10.2 0.3 0
10.5 0.3 0
10.8 0.3 0
11.1 0.3 0
11.4 0.3 0
11.7 0.3 0
12 0.3 0
12.3 0.3 0
12.6 0.3 0
12.9 0.3 0
13.2 0.3 0
13.5 0.3 0
13.8 0.3 0
14.1 0.3 0
14.4 0.3 0
14.7 0.3 0
15 0.3 0
15.3 0.3 0
15.6 0.3 0
15.9 0.3 0
16.2 0.3 0
16.5 0.3 0
16.8 0.3 0
17.1 0.3 0
17.4 0.3 0
17.7 0.3 0
18 0.3 0
18.3 0.3 0
18.6 0.3 0
18.9 0.3 0
19.2 0.3 0
19.5 0.3 0
19.8 0.3 0
20.1 0.3 0
20.4 0.3 0
20.7 0.3 0
21 0.3 0
21.3 0.3 0
21.6 0.3 0
21.9 0.3 0
22.2 0.3 0
22.5 0.3 0
22.8 0.3 0
23.1 0.3 0
23.4 0.3 0
23.7 0.3 0
24 0.3 0
24.3 0.3 0
24.6 0.3 0
24.9 0.3 0
25.2 0.3 0
25.5 0.3 0
25.8 0.3 0
26.1 0.3 0
26.4 0.3 0
26.7 0.3 0
27 0.3 0
27.3 0.3 0
27.6 0.3 0
27.9 0.3 0
28.2 0.3 0
28.5 0.3 0
28.8 0.3 0
29.1 0.3 0
29.4 0.3 0
29.7 0.3 0
30 0.3 0
30.3 0.3 0
0 0.4 0
0.3 0.4 0
0.6 0.4 0
0.9 0.4 0
1.2 0.4 0
1.5 0.4 0
1.8 0.4 0
2.1 0.4 0
2.4 0.4 0
2.7 0.4 0
3 0.4 0
3.3 0.4 0
3.6 0.4 0
3.9 0.4 0
4.2 0.4 0
4.5 0.4 0
4.8 0.4 0
5.1 0.4 0
5.4 0.4 0
5.7 0.4 0
6 0.4 0
6.3 0.4 0
6.6 0.4 0
6.9 0.4 0
7.2 0.4 0
7.5 0.4 0
7.8 0.4 0
8.1 0.4 0
8.4 0.4 0
8.7 0.4 0
9 0.4 0
9.3 0.4 0
9.6 0.4 0
9.9 0.4 0
10.2 0.4 0
10.5 0.4 0
10.8 0.4 0
11.1 0.4 0
11.4 0.4 0
11.7 0.4 0
12 0.4 0
12.3 0.4 0
12.6 0.4 0
12.9 0.4 0
13.2 0.4 0
13.5 0.4 0
13.8 0.4 0
14.1 0.4 0
14.4 0.4 0
14.7 0.4 0
15 0.4 0
15.3 0.4 0
15.6 0.4 0
15.9 0.4 0
16.2 0.4 0
16.5 0.4 0
16.8 0.4 0
17.1 0.4 0
17.4 0.4 0
17.7 0.4 0
18 0.4 0
18.3 0.4 0
18.6 0.4 0
18.9 0.4 0
19.2 0.4 0
19.5 0.4 0
19.8 0.4 0
20.1 0.4 0
20.4 0.4 0
20.7 0.4 0
21 0.4 0
21.3 0.4 0
21.6 0.4 0
21.9 0.4 0
22.2 0.4 0
22.5 0.4 0
22.8 0.4 0
23.1 0.4 0
23.4 0.4 0
23.7 0.4 0
24 0.4 0
24.3 0.4 0
24.6 0.4 0
24.9 0.4 0
25.2 0.4 0
25.5 0.4 0
25.8 0.4 0
26.1 0.4 0
26.4 0.4 0
26.7 0.4 0
27 0.4 0
27.3 0.4 0
27.6 0.4 0
27.9 0.4 0
28.2 0.4 0
28.5 0.4 0
28.8 0.4 0
29.1 0.4 0
29.4 0.4 0
29.7 0.4 0
30 0.4 0
30.3 0.4 0
0 0.5 0
0.3 0.5 0
0.6 0.5 0
0.9 0.5 0
1.2 0.5 0
1.5 0.5 0
1.8 0.5 0
2.1 0.5 0
2.4 0.5 0
2.7 0.5 0
3 0.5 0
3.3 0.5 0
3.6 0.5 0
3.9 0.5 0
4.2 0.5 0
4.5 0.5 0
4.8 0.5 0
5.1 0.5 0
5.4 0.5 0
5.7 0.5 0
6 0.5 0
6.3 0.5 0
6.6 0.5 0
6.9 0.5 0
7.2 0.5 0
7.5 0.5 0
7.8 0.5 0
8.1 0.5 0
8.4 0.5 0
8.7 0.5 0
9 0.5 0
9.3 0.5 0
9.6 0.5 0
9.9 0.5 0
10.2 0.5 0
10.5 0.5 0
10.8 0.5 0
11.1 0.5 0
11.4 0.5 0
11.7 0.5 0
12 0.5 0
12.3 0.5 0
12.6 0.5 0
12.9 0.5 0
13.2 0.5 0
13.5 0.5 0
13.8 0.5 0
14.1 0.5 0
14.4 0.5 0
14.7 0.5 0
15 0.5 0
15.3 0.5 0
15.6 0.5 0
15.9 0.5 0
16.2 0.5 0
16.5 0.5 0
16.8 0.5 0
17.1 0.5 0
17.4 0.5 0
17.7 0.5 0
18 0.5 0
18.3 0.5 0
18.6 0.5 0
18.9 0.5 0
19.2 0.5 0
19.5 0.5 0
19.8 0.5 0
20.1 0.5 0
20.4 0.5 0
20.7 0.5 0
21 0.5 0
21.3 0.5 0
21.6 0.5 0
21.9 0.5 0
22.2 0.5 0
22.5 0.5 0
22.8 0.5 0
23.1 0.5 0
23.4 0.5 0
23.7 0.5 0
24 0.5 0
24.3 0.5 0
24.6 0.5 0
24.9 0.5 0
25.2 0.5 0
25.5 0.5 0
25.8 0.5 0
26.1 0.5 0
26.4 0.5 0
26.7 0.5 0
27 0.5 0
27.3 0.5 0
27.6 0.5 0
27.9 0.5 0
28.2 0.5 0
28.5 0.5 0
28.8 0.5 0
29.1 0.5 0
29.4 0.5 0
29.7 0.5 0
30 0.5 0
30.3 0.5 0
0 0.6 0
0.3 0.6 0
0.6 0.6 0
0.9 0.6 0
1.2 0.6 0
1.5 0.6 0
1.8 0.6 0
2.1 0.6 0
2.4 0.6 0
2.7 0.6 0
3 0.6 0
3.3 0.6 0
3.6 0.6 0
3.9 0.6 0
4.2 0.6 0
4.5 0.6 0
4.8 0.6 0
5.1 0.6 0
5.4 0.6 0
5.7 0.6 0
6 0.6 0
6.3 0.6 0
6.6 0.6 0
6.9 0.6 0
7.2 0.6 0
7.5 0.6 0
7.8 0.6 0
8.1 0.6 0
8.4 0.6 0
8.7 0.6 0
9 0.6 0
9.3 0.6 0
9.6 0.6 0
9.9 0.6 0
10.2 0.6 0
10.5 0.6 0
10.8 0.6 0
11.1 0.6 0
11.4 0.6 0
11.7 0.6 0
12 0.6 0
12.3 0.6 0
12.6 0.6 0
12.9 0.6 0
13.2 0.6 0
13.5 0.6 0
13.8 0.6 0
14.1 0.6 0
14.4 0.6 0
14.7 0.6 0
15 0.6 0
15.3 0.6 0
15.6 0.6 0
15.9 0.6 0
16.2 0.6 0
16.5 0.6 0
16.8 0.6 0
17.1 0.6 0
17.4 0.6 0
17.7 0.6 0
18 0.6 0
18.3 0.6 0
18.6 0.6 0
18.9 0.6 0
19.2 0.6 0
19.5 0.6 0
19.8 0.6 0
20.1 0.6 0
20.4 0.6 0
20.7 0.6 0
21 0.6 0
21.3 0.6 0
21.6 0.6 0
21.9 0.6 0
22.2 0.6 0
22.5 0.6 0
22.8 0.6 0
23.1 0.6 0
23.4 0.6 0
23.7 0.6 0
24 0.6 0
24.3 0.6 0
24.6 0.6 0
24.9 0.6 0
25.2 0.6 0
25.5 0.6 0
25.8 0.6 0
26.1 0.6 0
26.4 0.6 0
26.7 0.6 0
27 0.6 0
27.3 0.6 0
27.6 0.6 0
27.9 0.6 0
28.2 0.6 0
28.5 0.6 0
28.8 0.6 0
29.1 0.6 0
29.4 0.6 0
29.7 0.6 0
30 0.6 0
30.3 0.6 0
0 0.7 0
0.3 0.7 0
0.6 0.7 0
0.9 0.7 0
1.2 0.7 0
1.5 0.7 0
1.8 0.7 0
2.1 0.7 0
2.4 0.7 0
2.7 0.7 0
3 0.7 0
3.3 0.7 0
3.6 0.7 0
3.9 0.7 0
4.2 0.7 0
4.5 0.7 0
4.8 0.7 0
5.1 0.7 0
5.4 0.7 0
5.7 0.7 0
6 0.7 0
6.3 0.7 0
6.6 0.7 0
6.9 0.7 0
7.2 0.7 0
7.5 0.7 0
7.8 0.7 0
8.1 0.7 0
8.4 0.7 0
8.7 0.7 0
9 0.7 0
9.3 0.7 0
9.6 0.7 0
9.9 0.7 0
10.2 0.7 0
10.5 0.7 0
10.8 0.7 0
11.1 0.7 0
11.4 0.7 0
11.7 0.7 0
12 0.7 0
12.3 0.7 0
12.6 0.7 0
12.9 0.7 0
13.2 0.7 0
13.5 0.7 0
13.8 0.7 0
14.1 0.7 0
14.4 0.7 0
14.7 0.7 0
15 0.7 0
15.3 0.7 0
15.6 0.7 0
15.9 0.7 0
16.2 0.7 0
16.5 0.7 0
16.8 0.7 0
17.1 0.7 0
17.4 0.7 0
17.7 0.7 0
18 0.7 0
18.3 0.7 0
18.6 0.7 0
18.9 0.7 0
19.2 0.7 0
19.5 0.7 0
19.8 0.7 0
20.1 0.7 0
20.4 0.7 0
20.7 0.7 0
21 0.7 0
21.3 0.7 0
21.6 0.7 0
21.9 0.7 0
22.2 0.7 0
22.5 0.7 0
22.8 0.7 0
23.1 0.7 0
23.4 0.7 0
23.7 0.7 0
24 0.7 0
24.3 0.7 0
24.6 0.7 0
24.9 0.7 0
25.2 0.7 0
25.5 0.7 0
25.8 0.7 0
26.1 0.7 0
26.4 0.7 0
26.7 0.7 0
27 0.7 0
27.3 0.7 0
27.6 0.7 0
27.9 0.7 0
28.2 0.7 0
28.5 0.7 0
28.8 0.7 0
29.1 0.7 0
29.4 0.7 0
29.7 0.7 0
30 0.7 0
30.3 0.7 0
0 0.8 0
0.3 0.8 0
0.6 0.8 0
0.9 0.8 0
1.2 0.8 0
1.5 0.8 0
1.8 0.8 0
2.1 0.8 0
2.4 0.8 0
2.7 0.8 0
3 0.8 0
3.3 0.8 0
3.6 0.8 0
3.9 0.8 0
4.2 0.8 0
4.5 0.8 0
4.8 0.8 0
5.1 0.8 0
5.4 0.8 0
5.7 0.8 0
6 0.8 0
6.3 0.8 0
6.6 0.8 0
6.9 0.8 0
7.2 0.8 0
7.5 0.8 0
7.8 0.8 0
8.1 0.8 0
8.4 0.8 0
8.7 0.8 0
9 0.8 0
9.3 0.8 0
9.6 0.8 0
9.9 0.8 0
10.2 0.8 0
10.5 0.8 0
10.8 0.8 0
11.1 0.8 0
11.4 0.8 0
11.7 0.8 0
12 0.8 0
12.3 0.8 0
12.6 0.8 0
12.9 0.8 0
13.2 0.8 0
13.5 0.8 0
13.8 0.8 0
14.1 0.8 0
14.4 0.8 0
14.7 0.8 0
15 0.8 0
15.3 0.8 0
15.6 0.8 0
15.9 0.8 0
16.2 0.8 0
16.5 0.8 0
16.8 0.8 0
17.1 0.8 0
17.4 0.8 0
17.7 0.8 0
18 0.8 0
18.3 0.8 0
18.6 0.8 0
18.9 0.8 0
19.2 0.8 0
19.5 0.8 0
19.8 0.8 0
20.1 0.8 0
20.4 0.8 0
20.7 0.8 0
21 0.8 0
21.3 0.8 0
21.6 0.8 0
21.9 0.8 0
22.2 0.8 0
22.5 0.8 0
22.8 0.8 0
23.1 0.8 0
23.4 0.8 0
23.7 0.8 0
24 0.8 0
24.3 0.8 0
24.6 0.8 0
24.9 0.8 0
25.2 0.8 0
25.5 0.8 0
25.8 0.8 0
26.1 0.8 0
26.4 0.8 0
26.7 0.8 0
27 0.8 0
27.3 0.8 0
27.6 0.8 0
27.9 0.8 0
28.2 0.8 0
28.5 0.8 0
28.8 0.8 0
29.1 0.8 0
29.4 0.8 0
29.7 0.8 0
30 0.8 0
30.3 0.8 0
0 0.9 0
0.3 0.9 0
0.6 0.9 0
0.9 0.9 0
1.2 0.9 0
1.5 0.9 0
1.8 0.9 0
2.1 0.9 0
2.4 0.9 0
2.7 0.9 0
3 0.9 0
3.3 0.9 0
3.6 0.9 0
3.9 0.9 0
4.2 0.9 0
4.5 0.9 0
4.8 0.9 0
5.1 0.9 0
5.4 0.9 0
5.7 0.9 0
6 0.9 0
6.3 0.9 0
6.6 0.9 0
6.9 0.9 0
7.2 0.9 0
7.5 0.9 0
7.8 0.9 0
8.1 0.9 0
8.4 0.9 0
8.7 0.9 0
9 0.9 0
9.3 0.9 0
9.6 0.9 0
9.9 0.9 0
10.2 0.9 0
10.5 0.9 0
10.8 0.9 0
11.1 0.9 0
11.4 0.9 0
11.7 0.9 0
12 0.9 0
12.3 0.9 0
12.6 0.9 0
12.9 0.9 0
13.2 0.9 0
13.5 0.9 0
13.8 0.9 0
14.1 0.9 0
14.4 0.9 0
14.7 0.9 0
15 0.9 0
15.3 0.9 0
15.6 0.9 0
15.9 0.9 0
16.2 0.9 0
16.5 0.9 0
16.8 0.9 0
17.1 0.9 0
17.4 0.9 0
17.7 0.9 0
18 0.9 0
18.3 0.9 0
18.6 0.9 0
18.9 0.9 0
19.2 0.9 0
19.5 0.9 0
19.8 0.9 0
20.1 0.9 0
20.4 0.9 0
20.7 0.9 0
21 0.9 0
21.3 0.9 0
21.6 0.9 0
21.9 0.9 0
22.2 0.9 0
22.5 0.9 0
22.8 0.9 0
23.1 0.9 0
23.4 0.9 0
23.7 0.9 0
24 0.9 0
24.3 0.9 0
24.6 0.9 0
24.9 0.9 0
25.2 0.9 0
25.5 0.9 0
25.8 0.9 0
26.1 0.9 0
26.4 0.9 0
26.7 0.9 0
27 0.9 0
27.3 0.9 0
27.6 0.9 0
27.9 0.9 0
28.2 0.9 0
28.5 0.9 0
28.8 0.9 0
29.1 0.9 0
29.4 0.9 0
29.7 0.9 0
30 0.9 0
30.3 0.9 0
0 1 0
0.3 1 0
0.6 1 0
0.9 1 0
1.2 1 0
1.5 1 0
1.8 1 0
2.1 1 0
2.4 1 0
2.7 1 0
3 1 0
3.3 1 0
3.6 1 0
3.9 1 0
4.2 1 0
4.5 1 0
4.8 1 0
5.1 1 0
5.4 1 0
5.7 1 0
6 1 0
6.3 1 0
6.6 1 0
6.9 1 0
7.2 1 0
7.5 1 0
7.8 1 0
8.1 1 0
8.4 1 0
8.7 1 0
9 1 0
9.3 1 0
9.6 1 0
9.9 1 0
10.2 1 0
10.5 1 0
10.8 1 0
11.1 1 0
11.4 1 0
11.7 1 0
12 1 0
12.3 1 0
12.6 1 0
12.9 1 0
13.2 1 0
13.5 1 0
13.8 1 0
14.1 1 0
14.4 1 0
14.7 1 0
15 1 0
15.3 1 0
15.6 1 0
15.9 1 0
16.2 1 0
16.5 1 0
16.8 1 0
17.1 1 0
17.4 1 0
17.7 1 0
18 1 0
18.3 1 0
18.6 1 0
18.9 1 0
19.2 1 0
19.5 1 0
19.8 1 0
20.1 1 0
20.4 1 0
20.7 1 0
21 1 0
21.3 1 0
21.6 1 0
21.9 1 0
22.2 1 0
22.5 1 0
22.8 1 0
23.1 1 0
23.4 1 0
23.7 1 0
24 1 0
24.3 1 0
24.6 1 0
24.9 1 0
25.2 1 0
25.5 1 0
25.8 1 0
26.1 1 0
26.4 1 0
26.7 1 0
27 1 0
27.3 1 0
27.6 1 0
27.9 1 0
28.2 1 0
28.5 1 0
28.8 1 0
29.1 1 0
29.4 1 0
29.7 1 0
30 1 0
30.3 1 0
0 1.1 0
0.3 1.1 0
0.6 1.1 0
0.9 1.1 0
1.2 1.1 0
1.5 1.1 0
1.8 1.1 0
2.1 1.1 0
2.4 1.1 0
2.7 1.1 0
3 1.1 0
3.3 1.1 0
3.6 1.1 0
3.9 1.1 0
4.2 1.1 0
4.5 1.1 0
4.8 1.1 0
5.1 1.1 0
5.4 1.1 0
5.7 1.1 0
6 1.1 0
6.3 1.1 0
6.6 1.1 0
6.9 1.1 0
7.2 1.1 0
7.5 1.1 0
7.8 1.1 0
8.1 1.1 0
8.4 1.1 0
8.7 1.1 0
9 1.1 0
9.3 1.1 0
9.6 1.1 0
9.9 1.1 0
10.2 1.1 0
10.5 1.1 0
10.8 1.1 0
11.1 1.1 0
11.4 1.1 0
11.7 1.1 0
12 1.1 0
12.3 1.1 0
12.6 1.1 0
12.9 1.1 0
13.2 1.1 0
13.5 1.1 0
13.8 1.1 0
14.1 1.1 0
14.4 1.1 0
14.7 1.1 0
15 1.1 0
15.3 1.1 0
15.6 1.1 0
15.9 1.1 0
16.2 1.1 0
16.5 1.1 0
16.8 1.1 0
17.1 1.1 0
17.4 1.1 0
17.7 1.1 0
18 1.1 0
18.3 1.1 0
18.6 1.1 0
18.9 1.1 0
19.2 1.1 0
19.5 1.1 0
19.8 1.1 0
20.1 1.1 0
20.4 1.1 0
20.7 1.1 0
21 1.1 0
21.3 1.1 0
21.6 1.1 0
21.9 1.1 0
22.2 1.1 0
22.5 1.1 0
22.8 1.1 0
23.1 1.1 0
23.4 1.1 0
23.7 1.1 0
24 1.1 0
24.3 1.1 0
24.6 1.1 0
24.9 1.1 0
25.2 1.1 0
25.5 1.1 0
25.8 1.1 0
26.1 1.1 0
26.4 1.1 0
26.7 1.1 0
27 1.1 0
27.3 1.1 0
27.6 1.1 0
27.9 1.1 0
28.2 1.1 0
28.5 1.1 0
28.8 1.1 0
29.1 1.1 0
29.4 1.1 0
29.7 1.1 0
30 1.1 0
30.3 1.1 0

POINT_DATA 1224

SCALARS p double
LOOKUP_TABLE default
2.51066
2.51066
2.38029
2.294
2.22479
2.16827
2.12096
2.08005
2.04366
2.01047
1.9795
1.94999
1.92134
1.89315
1.8652
1.83734
1.80952
1.78172
1.75392
1.72613
1.69833
1.67053
1.64274
1.61494
1.58714
1.55934
1.53155
1.50375
1.47595
1.44815
1.42036
1.39256
1.36476
1.33697
1.30917
1.28137
1.25357
1.22578
1.19798
1.17018
1.14239
1.11459
1.08679
1.05899
1.0312
1.0034
0.975603
0.947806
0.920008
0.892211
0.864414
0.836617
0.80882
0.781022
0.753225
0.725428
0.697631
0.669833
0.642036
0.614239
0.586441
0.558644
0.530847
0.50305
0.475252
0.447455
0.419658
0.39186
0.364063
0.336266
0.308468
0.280671
0.252873
0.225076
0.197279
0.169481
0.141684
0.113886
0.0860889
0.0582914
0.030494
0.00269646
-0.025101
-0.0528986
-0.0806961
-0.108494
-0.136291
-0.164089
-0.191886
-0.219684
-0.247482
-0.275279
-0.303077
-0.330874
-0.358672
-0.38647
-0.414268
-0.442063
-0.469865
-0.497655
-0.525337
0.525337
2.51066
2.51066
2.38029
2.294
2.22479
2.16827
2.12096
2.08005
2.04366
2.01047
1.9795
1.94999
1.92134
1.89315
1.8652
1.83734
1.80952
1.78172
1.75392
1.72613
1.69833
1.67053
1.64274
1.61494
1.58714
1.55934
1.53155
1.50375
1.47595
1.44815
1.42036
1.39256
1.36476
1.33697
1.30917
1.28137
1.25357
1.22578
1.19798
1.17018
1.14239
1.11459
1.08679
1.05899
1.0312
1.0034
0.975603
0.947806
0.920008
0.892211
0.864414
0.836617
0.80882
0.781022
0.753225
0.725428
0.697631
0.669833
0.642036
0.614239
0.586441
0.558644
0.530847
0.50305
0.475252
0.447455
0.419658
0.39186
0.364063
0.336266
0.308468
0.280671
0.252873
0.225076
0.197279
0.169481
0.141684
0.113886
0.0860889
0.0582914
0.030494
0.00269646
-0.025101
-0.0528986
-0.0806961
-0.108494
-0.136291
-0.164089
-0.191886
-0.219684
-0.247482
-0.275279
-0.303077
-0.330874
-0.358672
-0.38647
-0.414268
-0.442063
-0.469865
-0.497655
-0.525337
0.525337
2.47243
2.47243
2.37847
2.29593
2.22685
2.16979
2.12192
2.08061
2.04395
2.0106
1.97955
1.95
1.92134
1.89315
1.8652
1.83734
1.80952
1.78172
1.75392
1.72613
1.69833
1.67053
1.64274
1.61494
1.58714
1.55934
1.53155
1.50375
1.47595
1.44815
1.42036
1.39256
1.36476
1.33697
1.30917
1.28137
1.25357
1.22578
1.19798
1.17018
1.14239
1.11459
1.08679
1.05899
1.0312
1.0034
0.975603
0.947806
0.920008
0.892211
0.864414
0.836617
0.80882
0.781022
0.753225
0.725428
0.697631
0.669833
0.642036
0.614239
0.586441
0.558644
0.530847
0.50305
0.475252
0.447455
0.419658
0.39186
0.364063
0.336266
0.308468
0.280671
0.252873
0.225076
0.197279
0.169481
0.141684
0.113886
0.0860889
0.0582914
0.030494
0.00269646
-0.025101
-0.0528986
-0.0806961
-0.108494
-0.136291
-0.164089
-0.191886
-0.219684
-0.247482
-0.275279
-0.303077
-0.330874
-0.358672
-0.38647
-0.414268
-0.442063
-0.469863
-0.497656
-0.52534
0.52534
2.44528
2.44528
2.37563
2.29873
2.23012
2.17226
2.12352
2.08157
2.04449
2.0109
1.97971
1.95008
1.92137
1.89316
1.8652
1.83734
1.80952
1.78172
1.75392
1.72613
1.69833
1.67053
1.64274
1.61494
1.58714
1.55934
1.53155
1.50375
1.47595
1.44815
1.42036
1.39256
1.36476
1.33697
1.30917
1.28137
1.25357
1.22578
1.19798
1.17018
1.14239
1.11459
1.08679
1.05899
1.0312
1.0034
0.975603
0.947806
0.920008
0.892211
0.864414
0.836617
0.80882
0.781022
0.753225
0.725428
0.697631
0.669833
0.642036
0.614239
0.586441
0.558644
0.530847
0.50305
0.475252
0.447455
0.419658
0.39186
0.364063
0.336266
0.308468
0.280671
0.252873
0.225076
0.197279
0.169481
0.141684
0.113886
0.0860889
0.0582914
0.0304939
0.00269646
-0.025101
-0.0528986
-0.0806961
-0.108494
-0.136291
-0.164089
-0.191886
-0.219684
-0.247482
-0.275279
-0.303077
-0.330874
-0.358672
-0.386469
-0.414267
-0.44206
-0.469852
-0.497612
-0.525326
0.525326
2.42889
2.42889
2.37323
2.30095
2.233
2.17458
2.12514
2.08263
2.04516
2.01131
1.97995
1.95021
1.92144
1.8932
1.86521
1.83735
1.80953
1.78172
1.75392
1.72613
1.69833
1.67053
1.64274
1.61494
1.58714
1.55934
1.53155
1.50375
1.47595
1.44815
1.42036
1.39256
1.36476
1.33697
1.30917
1.28137
1.25357
1.22578
1.19798
1.17018
1.14239
1.11459
1.08679
1.05899
1.0312
1.0034
0.975603
0.947806
0.920008
0.892211
0.864414
0.836617
0.80882
0.781022
0.753225
0.725428
0.697631
0.669833
0.642036
0.614239
0.586441
0.558644
0.530847
0.50305
0.475252
0.447455
0.419658
0.39186
0.364063
0.336266
0.308468
0.280671
0.252873
0.225076
0.197279
0.169481
0.141684
0.113886
0.0860889
0.0582914
0.0304939
0.00269645
-0.025101
-0.0528986
-0.0806961
-0.108494
-0.136291
-0.164089
-0.191886
-0.219684
-0.247482
-0.275279
-0.303077
-0.330874
-0.358672
-0.386469
-0.414266
-0.442057
-0.469836
-0.497542
-0.525302
0.525302
2.42124
2.42124
2.37192
2.30212
2.23459
2.17592
2.12611
2.08328
2.0456
2.01159
1.98012
1.95031
1.92149
1.89322
1.86523
1.83735
1.80953
1.78172
1.75392
1.72613
1.69833
1.67053
1.64274
1.61494
1.58714
1.55934
1.53155
1.50375
1.47595
1.44815
1.42036
1.39256
1.36476
1.33697
1.30917
1.28137
1.25357
1.22578
1.19798
1.17018
1.14239
1.11459
1.08679
1.05899
1.0312
1.0034
0.975603
0.947806
0.920008
0.892211
0.864414
0.836617
0.80882
0.781022
0.753225
0.725428
0.697631
0.669833
0.642036
0.614239
0.586441
0.558644
0.530847
0.50305
0.475252
0.447455
0.419658
0.39186
0.364063
0.336266
0.308468
0.280671
0.252873
0.225076
0.197279
0.169481
0.141684
0.113886
0.0860889
0.0582914
0.0304939
0.00269645
-0.0251011
-0.0528986
-0.0806961
-0.108494
-0.136291
-0.164089
-0.191886
-0.219684
-0.247482
-0.275279
-0.303077
-0.330874
-0.358672
-0.386469
-0.414265
-0.442055
-0.469825
-0.497492
-0.525285
0.525285
2.42124
2.42124
2.37192
2.30212
2.23459
2.17592
2.12611
2.08328
2.0456
2.01159
1.98012
1.95031
1.92149
1.89322
1.86523
1.83735
1.80953
1.78172
1.75392
1.72613
1.69833
1.67053
1.64274
1.61494
1.58714
1.55934
1.53155
1.50375
1.47595
1.44815
1.42036
1.39256
1.36476
1.33697
1.30917
1.28137
1.25357
1.22578
1.19798
1.17018
1.14239
1.11459
1.08679
1.05899
1.0312
1.0034
0.975603
0.947806
0.920008
0.892211
0.864414
0.836617
0.80882
0.781022
0.753225
0.725428
0.697631
0.669833
0.642036
0.614239
0.586441
0.558644
0.530847
0.50305
0.475252
0.447455
0.419658
0.39186
0.364063
0.336266
0.308468
0.280671
0.252873
0.225076
0.197279
0.169481
0.141684
0.113886
0.0860889
0.0582914
0.0304939
0.00269645
-0.0251011
-0.0528986
-0.0806961
-0.108494
-0.136291
-0.164089
-0.191886
-0.219684
-0.247482
-0.275279
-0.303077
-0.330874
-0.358672
-0.386469
-0.414265
-0.442055
-0.469825
-0.497492
-0.525285
0.525285
2.42889
2.42889
2.37323
2.30095
2.233
2.17458
2.12514
2.08263
2.04516
2.01131
1.97995
1.95021
1.92144
1.8932
1.86521
1.83735
1.80953
1.78172
1.75392
1.72613
1.69833
1.67053
1.64274
1.61494
1.58714
1.55934
1.53155
1.50375
1.47595
1.44815
1.42036
1.39256
1.36476
1.33697
1.30917
1.28137
1.25357
1.22578
1.19798
1.17018
1.14239
1.11459
1.08679
1.05899
1.0312
1.0034
0.975603
0.947806
0.920008
0.892211
0.864414
0.836617
0.80882
0.781022
0.753225
0.725428
0.697631
0.669833
0.642036
0.614239
0.586441
0.558644
0.530847
0.50305
0.475252
0.447455
0.419658
0.39186
0.364063
0.336266
0.308468
0.280671
0.252873
0.225076
0.197279
0.169481
0.141684
0.113886
0.0860889
0.0582914
0.0304939
0.00269644
-0.0251011
-0.0528986
-0.0806961
-0.108494
-0.136291
-0.164089
-0.191886
-0.219684
-0.247482
-0.275279
-0.303077
-0.330874
-0.358672
-0.386469
-0.414266
-0.442057
-0.469836
-0.497542
-0.525302
0.525302
2.44528
2.44528
2.37563
2.29873
2.23012
2.17226
2.12352
2.08157
2.04449
2.0109
1.97971
1.95008
1.92137
1.89316
1.8652
1.83734
1.80952
1.78172
1.75392
1.72613
1.69833
1.67053
1.64274
1.61494
1.58714
1.55934
1.53155
1.50375
1.47595
1.44815
1.42036
1.39256
1.36476
1.33697
1.30917
1.28137
1.25357
1.22578
1.19798
1.17018
1.14239
1.11459
1.08679
1.05899
1.0312
1.0034
0.975603
0.947806
0.920008
0.892211
0.864414
0.836617
0.80882
0.781022
0.753225
0.725428
0.697631
0.669833
0.642036
0.614239
0.586441
0.558644
0.530847
0.50305
0.475252
0.447455
0.419658
0.39186
0.364063
0.336266
0.308468
0.280671
0.252873
0.225076
0.197279
0.169481
0.141684
0.113886
0.0860889
0.0582914
0.0304939
0.00269644
-0.0251011
-0.0528986
-0.0806961
-0.108494
-0.136291
-0.164089
-0.191886
-0.219684
-0.247482
-0.275279
-0.303077
-0.330874
-0.358672
-0.386469
-0.414267
-0.44206
-0.469852
-0.497612
-0.525326
0.525326
2.47243
2.47243
2.37847
2.29593
2.22685
2.16979
2.12192
2.08061
2.04395
2.0106
1.97955
1.95
1.92134
1.89315
1.8652
1.83734
1.80952
1.78172
1.75392
1.72613
1.69833
1.67053
1.64274
1.61494
1.58714
1.55934
1.53155
1.50375
1.47595
1.44815
1.42036
1.39256
1.36476
1.33697
1.30917
1.28137
1.25357
1.22578
1.19798
1.17018
1.14239
1.11459
1.08679
1.05899
1.0312
1.0034
0.975603
0.947806
0.920008
0.892211
0.864414
0.836617
0.80882
0.781022
0.753225
0.725428
0.697631
0.669833
0.642036
0.614239
0.586441
0.558644
0.530847
0.50305
0.475252
0.447455
0.419658
0.39186
0.364063
0.336266
0.308468
0.280671
0.252873
0.225076
0.197279
0.169481
0.141684
0.113886
0.0860889
0.0582914
0.0304939
0.00269644
-0.0251011
-0.0528986
-0.0806961
-0.108494
-0.136291
-0.164089
-0.191886
-0.219684
-0.247482
-0.275279
-0.303077
-0.330874
-0.358672
-0.38647
-0.414268
-0.442063
-0.469863
-0.497656
-0.52534
0.52534
2.51066
2.51066
2.38029
2.294
2.22479
2.16827
2.12096
2.08005
2.04366
2.01047
1.9795
1.94999
1.92134
1.89315
1.8652
1.83734
1.80952
1.78172
1.75392
1.72613
1.69833
1.67053
1.64274
1.61494
1.58714
1.55934
1.53155
1.50375
1.47595
1.44815
1.42036
1.39256
1.36476
1.33697
1.30917
1.28137
1.25357
1.22578
1.19798
1.17018
1.14239
1.11459
1.08679
1.05899
1.0312
1.0034
0.975603
0.947806
0.920008
0.892211
0.864414
0.836617
0.80882
0.781022
0.753225
0.725428
0.697631
0.669833
0.642036
0.614239
0.586441
0.558644
0.530847
0.50305
0.475252
0.447455
0.419658
0.39186
0.364063
0.336266
0.308468
0.280671
0.252873
0.225076
0.197279
0.169481
0.141684
0.113886
0.0860889
0.0582914
0.0304939
0.00269643
-0.0251011
-0.0528986
-0.0806961
-0.108494
-0.136291
-0.164089
-0.191886
-0.219684
-0.247482
-0.275279
-0.303077
-0.330874
-0.358672
-0.38647
-0.414268
-0.442063
-0.469865
-0.497655
-0.525337
0.525337
2.51066
2.51066
2.38029
2.294
2.22479
2.16827
2.12096
2.08005
2.04366
2.01047
1.9795
1.94999
1.92134
1.89315
1.8652
1.83734
1.80952
1.78172
1.75392
1.72613
1.69833
1.67053
1.64274
1.61494
1.58714
1.55934
1.53155
1.50375
1.47595
1.44815
1.42036
1.39256
1.36476
1.33697
1.30917
1.28137
1.25357
1.22578
1.19798
1.17018
1.14239
1.11459
1.08679
1.05899
1.0312
1.0034
0.975603
0.947806
0.920008
0.892211
0.864414
0.836617
0.80882
0.781022
0.753225
0.725428
0.697631
0.669833
0.642036
0.614239
0.586441
0.558644
0.530847
0.50305
0.475252
0.447455
0.419658
0.39186
0.364063
0.336266
0.308468
0.280671
0.252873
0.225076
0.197279
0.169481
0.141684
0.113886
0.0860889
0.0582914
0.0304939
0.00269643
-0.0251011
-0.0528986
-0.0806961
-0.108494
-0.136291
-0.164089
-0.191886
-0.219684
-0.247482
-0.275279
-0.303077
-0.330874
-0.358672
-0.38647
-0.414268
-0.442063
-0.469865
-0.497655
-0.525337
0.525337
