# vtk DataFile Version 2.0
FlowField
ASCII
DATASET STRUCTURED_GRID
DIMENSIONS 102 1 12 
POINTS 1224 double
0 0 0
0.3 0 0
0.6 0 0
0.9 0 0
1.2 0 0
1.5 0 0
1.8 0 0
2.1 0 0
2.4 0 0
2.7 0 0
3 0 0
3.3 0 0
3.6 0 0
3.9 0 0
4.2 0 0
4.5 0 0
4.8 0 0
5.1 0 0
5.4 0 0
5.7 0 0
6 0 0
6.3 0 0
6.6 0 0
6.9 0 0
7.2 0 0
7.5 0 0
7.8 0 0
8.1 0 0
8.4 0 0
8.7 0 0
9 0 0
9.3 0 0
9.6 0 0
9.9 0 0
10.2 0 0
10.5 0 0
10.8 0 0
11.1 0 0
11.4 0 0
11.7 0 0
12 0 0
12.3 0 0
12.6 0 0
12.9 0 0
13.2 0 0
13.5 0 0
13.8 0 0
14.1 0 0
14.4 0 0
14.7 0 0
15 0 0
15.3 0 0
15.6 0 0
15.9 0 0
16.2 0 0
16.5 0 0
16.8 0 0
17.1 0 0
17.4 0 0
17.7 0 0
18 0 0
18.3 0 0
18.6 0 0
18.9 0 0
19.2 0 0
19.5 0 0
19.8 0 0
20.1 0 0
20.4 0 0
20.7 0 0
21 0 0
21.3 0 0
21.6 0 0
21.9 0 0
22.2 0 0
22.5 0 0
22.8 0 0
23.1 0 0
23.4 0 0
23.7 0 0
24 0 0
24.3 0 0
24.6 0 0
24.9 0 0
25.2 0 0
25.5 0 0
25.8 0 0
26.1 0 0
26.4 0 0
26.7 0 0
27 0 0
27.3 0 0
27.6 0 0
27.9 0 0
28.2 0 0
28.5 0 0
28.8 0 0
29.1 0 0
29.4 0 0
29.7 0 0
30 0 0
30.3 0 0
0 0.1 0
0.3 0.1 0
0.6 0.1 0
0.9 0.1 0
1.2 0.1 0
1.5 0.1 0
1.8 0.1 0
2.1 0.1 0
2.4 0.1 0
2.7 0.1 0
3 0.1 0
3.3 0.1 0
3.6 0.1 0
3.9 0.1 0
4.2 0.1 0
4.5 0.1 0
4.8 0.1 0
5.1 0.1 0
5.4 0.1 0
5.7 0.1 0
6 0.1 0
6.3 0.1 0
6.6 0.1 0
6.9 0.1 0
7.2 0.1 0
7.5 0.1 0
7.8 0.1 0
8.1 0.1 0
8.4 0.1 0
8.7 0.1 0
9 0.1 0
9.3 0.1 0
9.6 0.1 0
9.9 0.1 0
10.2 0.1 0
10.5 0.1 0
10.8 0.1 0
11.1 0.1 0
11.4 0.1 0
11.7 0.1 0
12 0.1 0
12.3 0.1 0
12.6 0.1 0
12.9 0.1 0
13.2 0.1 0
13.5 0.1 0
13.8 0.1 0
14.1 0.1 0
14.4 0.1 0
14.7 0.1 0
15 0.1 0
15.3 0.1 0
15.6 0.1 0
15.9 0.1 0
16.2 0.1 0
16.5 0.1 0
16.8 0.1 0
17.1 0.1 0
17.4 0.1 0
17.7 0.1 0
18 0.1 0
18.3 0.1 0
18.6 0.1 0
18.9 0.1 0
19.2 0.1 0
19.5 0.1 0
19.8 0.1 0
20.1 0.1 0
20.4 0.1 0
20.7 0.1 0
21 0.1 0
21.3 0.1 0
21.6 0.1 0
21.9 0.1 0
22.2 0.1 0
22.5 0.1 0
22.8 0.1 0
23.1 0.1 0
23.4 0.1 0
23.7 0.1 0
24 0.1 0
24.3 0.1 0
24.6 0.1 0
24.9 0.1 0
25.2 0.1 0
25.5 0.1 0
25.8 0.1 0
26.1 0.1 0
26.4 0.1 0
26.7 0.1 0
27 0.1 0
27.3 0.1 0
27.6 0.1 0
27.9 0.1 0
28.2 0.1 0
28.5 0.1 0
28.8 0.1 0
29.1 0.1 0
29.4 0.1 0
29.7 0.1 0
30 0.1 0
30.3 0.1 0
0 0.2 0
0.3 0.2 0
0.6 0.2 0
0.9 0.2 0
1.2 0.2 0
1.5 0.2 0
1.8 0.2 0
2.1 0.2 0
2.4 0.2 0
2.7 0.2 0
3 0.2 0
3.3 0.2 0
3.6 0.2 0
3.9 0.2 0
4.2 0.2 0
4.5 0.2 0
4.8 0.2 0
5.1 0.2 0
5.4 0.2 0
5.7 0.2 0
6 0.2 0
6.3 0.2 0
6.6 0.2 0
6.9 0.2 0
7.2 0.2 0
7.5 0.2 0
7.8 0.2 0
8.1 0.2 0
8.4 0.2 0
8.7 0.2 0
9 0.2 0
9.3 0.2 0
9.6 0.2 0
9.9 0.2 0
10.2 0.2 0
10.5 0.2 0
10.8 0.2 0
11.1 0.2 0
11.4 0.2 0
11.7 0.2 0
12 0.2 0
12.3 0.2 0
12.6 0.2 0
12.9 0.2 0
13.2 0.2 0
13.5 0.2 0
13.8 0.2 0
14.1 0.2 0
14.4 0.2 0
14.7 0.2 0
15 0.2 0
15.3 0.2 0
15.6 0.2 0
15.9 0.2 0
16.2 0.2 0
16.5 0.2 0
16.8 0.2 0
17.1 0.2 0
17.4 0.2 0
17.7 0.2 0
18 0.2 0
18.3 0.2 0
18.6 0.2 0
18.9 0.2 0
19.2 0.2 0
19.5 0.2 0
19.8 0.2 0
20.1 0.2 0
20.4 0.2 0
20.7 0.2 0
21 0.2 0
21.3 0.2 0
21.6 0.2 0
21.9 0.2 0
22.2 0.2 0
22.5 0.2 0
22.8 0.2 0
23.1 0.2 0
23.4 0.2 0
23.7 0.2 0
24 0.2 0
24.3 0.2 0
24.6 0.2 0
24.9 0.2 0
25.2 0.2 0
25.5 0.2 0
25.8 0.2 0
26.1 0.2 0
26.4 0.2 0
26.7 0.2 0
27 0.2 0
27.3 0.2 0
27.6 0.2 0
27.9 0.2 0
28.2 0.2 0
28.5 0.2 0
28.8 0.2 0
29.1 0.2 0
29.4 0.2 0
29.7 0.2 0
30 0.2 0
30.3 0.2 0
0 0.3 0
0.3 0.3 0
0.6 0.3 0
0.9 0.3 0
1.2 0.3 0
1.5 0.3 0
1.8 0.3 0
2.1 0.3 0
2.4 0.3 0
2.7 0.3 0
3 0.3 0
3.3 0.3 0
3.6 0.3 0
3.9 0.3 0
4.2 0.3 0
4.5 0.3 0
4.8 0.3 0
5.1 0.3 0
5.4 0.3 0
5.7 0.3 0
6 0.3 0
6.3 0.3 0
6.6 0.3 0
6.9 0.3 0
7.2 0.3 0
7.5 0.3 0
7.8 0.3 0
8.1 0.3 0
8.4 0.3 0
8.7 0.3 0
9 0.3 0
9.3 0.3 0
9.6 0.3 0
9.9 0.3 0
10.2 0.3 0
10.5 0.3 0
10.8 0.3 0
11.1 0.3 0
11.4 0.3 0
11.7 0.3 0
12 0.3 0
12.3 0.3 0
12.6 0.3 0
12.9 0.3 0
13.2 0.3 0
13.5 0.3 0
13.8 0.3 0
14.1 0.3 0
14.4 0.3 0
14.7 0.3 0
15 0.3 0
15.3 0.3 0
15.6 0.3 0
15.9 0.3 0
16.2 0.3 0
16.5 0.3 0
16.8 0.3 0
17.1 0.3 0
17.4 0.3 0
17.7 0.3 0
18 0.3 0
18.3 0.3 0
18.6 0.3 0
18.9 0.3 0
19.2 0.3 0
19.5 0.3 0
19.8 0.3 0
20.1 0.3 0
20.4 0.3 0
20.7 0.3 0
21 0.3 0
21.3 0.3 0
21.6 0.3 0
21.9 0.3 0
22.2 0.3 0
22.5 0.3 0
22.8 0.3 0
23.1 0.3 0
23.4 0.3 0
23.7 0.3 0
24 0.3 0
24.3 0.3 0
24.6 0.3 0
24.9 0.3 0
25.2 0.3 0
25.5 0.3 0
25.8 0.3 0
26.1 0.3 0
26.4 0.3 0
26.7 0.3 0
27 0.3 0
27.3 0.3 0
27.6 0.3 0
27.9 0.3 0
28.2 0.3 0
28.5 0.3 0
28.8 0.3 0
29.1 0.3 0
29.4 0.3 0
29.7 0.3 0
30 0.3 0
30.3 0.3 0
0 0.4 0
0.3 0.4 0
0.6 0.4 0
0.9 0.4 0
1.2 0.4 0
1.5 0.4 0
1.8 0.4 0
2.1 0.4 0
2.4 0.4 0
2.7 0.4 0
3 0.4 0
3.3 0.4 0
3.6 0.4 0
3.9 0.4 0
4.2 0.4 0
4.5 0.4 0
4.8 0.4 0
5.1 0.4 0
5.4 0.4 0
5.7 0.4 0
6 0.4 0
6.3 0.4 0
6.6 0.4 0
6.9 0.4 0
7.2 0.4 0
7.5 0.4 0
7.8 0.4 0
8.1 0.4 0
8.4 0.4 0
8.7 0.4 0
9 0.4 0
9.3 0.4 0
9.6 0.4 0
9.9 0.4 0
10.2 0.4 0
10.5 0.4 0
10.8 0.4 0
11.1 0.4 0
11.4 0.4 0
11.7 0.4 0
12 0.4 0
12.3 0.4 0
12.6 0.4 0
12.9 0.4 0
13.2 0.4 0
13.5 0.4 0
13.8 0.4 0
14.1 0.4 0
14.4 0.4 0
14.7 0.4 0
15 0.4 0
15.3 0.4 0
15.6 0.4 0
15.9 0.4 0
16.2 0.4 0
16.5 0.4 0
16.8 0.4 0
17.1 0.4 0
17.4 0.4 0
17.7 0.4 0
18 0.4 0
18.3 0.4 0
18.6 0.4 0
18.9 0.4 0
19.2 0.4 0
19.5 0.4 0
19.8 0.4 0
20.1 0.4 0
20.4 0.4 0
20.7 0.4 0
21 0.4 0
21.3 0.4 0
21.6 0.4 0
21.9 0.4 0
22.2 0.4 0
22.5 0.4 0
22.8 0.4 0
23.1 0.4 0
23.4 0.4 0
23.7 0.4 0
24 0.4 0
24.3 0.4 0
24.6 0.4 0
24.9 0.4 0
25.2 0.4 0
25.5 0.4 0
25.8 0.4 0
26.1 0.4 0
26.4 0.4 0
26.7 0.4 0
27 0.4 0
27.3 0.4 0
27.6 0.4 0
27.9 0.4 0
28.2 0.4 0
28.5 0.4 0
28.8 0.4 0
29.1 0.4 0
29.4 0.4 0
29.7 0.4 0
30 0.4 0
30.3 0.4 0
0 0.5 0
0.3 0.5 0
0.6 0.5 0
0.9 0.5 0
1.2 0.5 0
1.5 0.5 0
1.8 0.5 0
2.1 0.5 0
2.4 0.5 0
2.7 0.5 0
3 0.5 0
3.3 0.5 0
3.6 0.5 0
3.9 0.5 0
4.2 0.5 0
4.5 0.5 0
4.8 0.5 0
5.1 0.5 0
5.4 0.5 0
5.7 0.5 0
6 0.5 0
6.3 0.5 0
6.6 0.5 0
6.9 0.5 0
7.2 0.5 0
7.5 0.5 0
7.8 0.5 0
8.1 0.5 0
8.4 0.5 0
8.7 0.5 0
9 0.5 0
9.3 0.5 0
9.6 0.5 0
9.9 0.5 0
10.2 0.5 0
10.5 0.5 0
10.8 0.5 0
11.1 0.5 0
11.4 0.5 0
11.7 0.5 0
12 0.5 0
12.3 0.5 0
12.6 0.5 0
12.9 0.5 0
13.2 0.5 0
13.5 0.5 0
13.8 0.5 0
14.1 0.5 0
14.4 0.5 0
14.7 0.5 0
15 0.5 0
15.3 0.5 0
15.6 0.5 0
15.9 0.5 0
16.2 0.5 0
16.5 0.5 0
16.8 0.5 0
17.1 0.5 0
17.4 0.5 0
17.7 0.5 0
18 0.5 0
18.3 0.5 0
18.6 0.5 0
18.9 0.5 0
19.2 0.5 0
19.5 0.5 0
19.8 0.5 0
20.1 0.5 0
20.4 0.5 0
20.7 0.5 0
21 0.5 0
21.3 0.5 0
21.6 0.5 0
21.9 0.5 0
22.2 0.5 0
22.5 0.5 0
22.8 0.5 0
23.1 0.5 0
23.4 0.5 0
23.7 0.5 0
24 0.5 0
24.3 0.5 0
24.6 0.5 0
24.9 0.5 0
25.2 0.5 0
25.5 0.5 0
25.8 0.5 0
26.1 0.5 0
26.4 0.5 0
26.7 0.5 0
27 0.5 0
27.3 0.5 0
27.6 0.5 0
27.9 0.5 0
28.2 0.5 0
28.5 0.5 0
28.8 0.5 0
29.1 0.5 0
29.4 0.5 0
29.7 0.5 0
30 0.5 0
30.3 0.5 0
0 0.6 0
0.3 0.6 0
0.6 0.6 0
0.9 0.6 0
1.2 0.6 0
1.5 0.6 0
1.8 0.6 0
2.1 0.6 0
2.4 0.6 0
2.7 0.6 0
3 0.6 0
3.3 0.6 0
3.6 0.6 0
3.9 0.6 0
4.2 0.6 0
4.5 0.6 0
4.8 0.6 0
5.1 0.6 0
5.4 0.6 0
5.7 0.6 0
6 0.6 0
6.3 0.6 0
6.6 0.6 0
6.9 0.6 0
7.2 0.6 0
7.5 0.6 0
7.8 0.6 0
8.1 0.6 0
8.4 0.6 0
8.7 0.6 0
9 0.6 0
9.3 0.6 0
9.6 0.6 0
9.9 0.6 0
10.2 0.6 0
10.5 0.6 0
10.8 0.6 0
11.1 0.6 0
11.4 0.6 0
11.7 0.6 0
12 0.6 0
12.3 0.6 0
12.6 0.6 0
12.9 0.6 0
13.2 0.6 0
13.5 0.6 0
13.8 0.6 0
14.1 0.6 0
14.4 0.6 0
14.7 0.6 0
15 0.6 0
15.3 0.6 0
15.6 0.6 0
15.9 0.6 0
16.2 0.6 0
16.5 0.6 0
16.8 0.6 0
17.1 0.6 0
17.4 0.6 0
17.7 0.6 0
18 0.6 0
18.3 0.6 0
18.6 0.6 0
18.9 0.6 0
19.2 0.6 0
19.5 0.6 0
19.8 0.6 0
20.1 0.6 0
20.4 0.6 0
20.7 0.6 0
21 0.6 0
21.3 0.6 0
21.6 0.6 0
21.9 0.6 0
22.2 0.6 0
22.5 0.6 0
22.8 0.6 0
23.1 0.6 0
23.4 0.6 0
23.7 0.6 0
24 0.6 0
24.3 0.6 0
24.6 0.6 0
24.9 0.6 0
25.2 0.6 0
25.5 0.6 0
25.8 0.6 0
26.1 0.6 0
26.4 0.6 0
26.7 0.6 0
27 0.6 0
27.3 0.6 0
27.6 0.6 0
27.9 0.6 0
28.2 0.6 0
28.5 0.6 0
28.8 0.6 0
29.1 0.6 0
29.4 0.6 0
29.7 0.6 0
30 0.6 0
30.3 0.6 0
0 0.7 0
0.3 0.7 0
0.6 0.7 0
0.9 0.7 0
1.2 0.7 0
1.5 0.7 0
1.8 0.7 0
2.1 0.7 0
2.4 0.7 0
2.7 0.7 0
3 0.7 0
3.3 0.7 0
3.6 0.7 0
3.9 0.7 0
4.2 0.7 0
4.5 0.7 0
4.8 0.7 0
5.1 0.7 0
5.4 0.7 0
5.7 0.7 0
6 0.7 0
6.3 0.7 0
6.6 0.7 0
6.9 0.7 0
7.2 0.7 0
7.5 0.7 0
7.8 0.7 0
8.1 0.7 0
8.4 0.7 0
8.7 0.7 0
9 0.7 0
9.3 0.7 0
9.6 0.7 0
9.9 0.7 0
10.2 0.7 0
10.5 0.7 0
10.8 0.7 0
11.1 0.7 0
11.4 0.7 0
11.7 0.7 0
12 0.7 0
12.3 0.7 0
12.6 0.7 0
12.9 0.7 0
13.2 0.7 0
13.5 0.7 0
13.8 0.7 0
14.1 0.7 0
14.4 0.7 0
14.7 0.7 0
15 0.7 0
15.3 0.7 0
15.6 0.7 0
15.9 0.7 0
16.2 0.7 0
16.5 0.7 0
16.8 0.7 0
17.1 0.7 0
17.4 0.7 0
17.7 0.7 0
18 0.7 0
18.3 0.7 0
18.6 0.7 0
18.9 0.7 0
19.2 0.7 0
19.5 0.7 0
19.8 0.7 0
20.1 0.7 0
20.4 0.7 0
20.7 0.7 0
21 0.7 0
21.3 0.7 0
21.6 0.7 0
21.9 0.7 0
22.2 0.7 0
22.5 0.7 0
22.8 0.7 0
23.1 0.7 0
23.4 0.7 0
23.7 0.7 0
24 0.7 0
24.3 0.7 0
24.6 0.7 0
24.9 0.7 0
25.2 0.7 0
25.5 0.7 0
25.8 0.7 0
26.1 0.7 0
26.4 0.7 0
26.7 0.7 0
27 0.7 0
27.3 0.7 0
27.6 0.7 0
27.9 0.7 0
28.2 0.7 0
28.5 0.7 0
28.8 0.7 0
29.1 0.7 0
29.4 0.7 0
29.7 0.7 0
30 0.7 0
30.3 0.7 0
0 0.8 0
0.3 0.8 0
0.6 0.8 0
0.9 0.8 0
1.2 0.8 0
1.5 0.8 0
1.8 0.8 0
2.1 0.8 0
2.4 0.8 0
2.7 0.8 0
3 0.8 0
3.3 0.8 0
3.6 0.8 0
3.9 0.8 0
4.2 0.8 0
4.5 0.8 0
4.8 0.8 0
5.1 0.8 0
5.4 0.8 0
5.7 0.8 0
6 0.8 0
6.3 0.8 0
6.6 0.8 0
6.9 0.8 0
7.2 0.8 0
7.5 0.8 0
7.8 0.8 0
8.1 0.8 0
8.4 0.8 0
8.7 0.8 0
9 0.8 0
9.3 0.8 0
9.6 0.8 0
9.9 0.8 0
10.2 0.8 0
10.5 0.8 0
10.8 0.8 0
11.1 0.8 0
11.4 0.8 0
11.7 0.8 0
12 0.8 0
12.3 0.8 0
12.6 0.8 0
12.9 0.8 0
13.2 0.8 0
13.5 0.8 0
13.8 0.8 0
14.1 0.8 0
14.4 0.8 0
14.7 0.8 0
15 0.8 0
15.3 0.8 0
15.6 0.8 0
15.9 0.8 0
16.2 0.8 0
16.5 0.8 0
16.8 0.8 0
17.1 0.8 0
17.4 0.8 0
17.7 0.8 0
18 0.8 0
18.3 0.8 0
18.6 0.8 0
18.9 0.8 0
19.2 0.8 0
19.5 0.8 0
19.8 0.8 0
20.1 0.8 0
20.4 0.8 0
20.7 0.8 0
21 0.8 0
21.3 0.8 0
21.6 0.8 0
21.9 0.8 0
22.2 0.8 0
22.5 0.8 0
22.8 0.8 0
23.1 0.8 0
23.4 0.8 0
23.7 0.8 0
24 0.8 0
24.3 0.8 0
24.6 0.8 0
24.9 0.8 0
25.2 0.8 0
25.5 0.8 0
25.8 0.8 0
26.1 0.8 0
26.4 0.8 0
26.7 0.8 0
27 0.8 0
27.3 0.8 0
27.6 0.8 0
27.9 0.8 0
28.2 0.8 0
28.5 0.8 0
28.8 0.8 0
29.1 0.8 0
29.4 0.8 0
29.7 0.8 0
30 0.8 0
30.3 0.8 0
0 0.9 0
0.3 0.9 0
0.6 0.9 0
0.9 0.9 0
1.2 0.9 0
1.5 0.9 0
1.8 0.9 0
2.1 0.9 0
2.4 0.9 0
2.7 0.9 0
3 0.9 0
3.3 0.9 0
3.6 0.9 0
3.9 0.9 0
4.2 0.9 0
4.5 0.9 0
4.8 0.9 0
5.1 0.9 0
5.4 0.9 0
5.7 0.9 0
6 0.9 0
6.3 0.9 0
6.6 0.9 0
6.9 0.9 0
7.2 0.9 0
7.5 0.9 0
7.8 0.9 0
8.1 0.9 0
8.4 0.9 0
8.7 0.9 0
9 0.9 0
9.3 0.9 0
9.6 0.9 0
9.9 0.9 0
10.2 0.9 0
10.5 0.9 0
10.8 0.9 0
11.1 0.9 0
11.4 0.9 0
11.7 0.9 0
12 0.9 0
12.3 0.9 0
12.6 0.9 0
12.9 0.9 0
13.2 0.9 0
13.5 0.9 0
13.8 0.9 0
14.1 0.9 0
14.4 0.9 0
14.7 0.9 0
15 0.9 0
15.3 0.9 0
15.6 0.9 0
15.9 0.9 0
16.2 0.9 0
16.5 0.9 0
16.8 0.9 0
17.1 0.9 0
17.4 0.9 0
17.7 0.9 0
18 0.9 0
18.3 0.9 0
18.6 0.9 0
18.9 0.9 0
19.2 0.9 0
19.5 0.9 0
19.8 0.9 0
20.1 0.9 0
20.4 0.9 0
20.7 0.9 0
21 0.9 0
21.3 0.9 0
21.6 0.9 0
21.9 0.9 0
22.2 0.9 0
22.5 0.9 0
22.8 0.9 0
23.1 0.9 0
23.4 0.9 0
23.7 0.9 0
24 0.9 0
24.3 0.9 0
24.6 0.9 0
24.9 0.9 0
25.2 0.9 0
25.5 0.9 0
25.8 0.9 0
26.1 0.9 0
26.4 0.9 0
26.7 0.9 0
27 0.9 0
27.3 0.9 0
27.6 0.9 0
27.9 0.9 0
28.2 0.9 0
28.5 0.9 0
28.8 0.9 0
29.1 0.9 0
29.4 0.9 0
29.7 0.9 0
30 0.9 0
30.3 0.9 0
0 1 0
0.3 1 0
0.6 1 0
0.9 1 0
1.2 1 0
1.5 1 0
1.8 1 0
2.1 1 0
2.4 1 0
2.7 1 0
3 1 0
3.3 1 0
3.6 1 0
3.9 1 0
4.2 1 0
4.5 1 0
4.8 1 0
5.1 1 0
5.4 1 0
5.7 1 0
6 1 0
6.3 1 0
6.6 1 0
6.9 1 0
7.2 1 0
7.5 1 0
7.8 1 0
8.1 1 0
8.4 1 0
8.7 1 0
9 1 0
9.3 1 0
9.6 1 0
9.9 1 0
10.2 1 0
10.5 1 0
10.8 1 0
11.1 1 0
11.4 1 0
11.7 1 0
12 1 0
12.3 1 0
12.6 1 0
12.9 1 0
13.2 1 0
13.5 1 0
13.8 1 0
14.1 1 0
14.4 1 0
14.7 1 0
15 1 0
15.3 1 0
15.6 1 0
15.9 1 0
16.2 1 0
16.5 1 0
16.8 1 0
17.1 1 0
17.4 1 0
17.7 1 0
18 1 0
18.3 1 0
18.6 1 0
18.9 1 0
19.2 1 0
19.5 1 0
19.8 1 0
20.1 1 0
20.4 1 0
20.7 1 0
21 1 0
21.3 1 0
21.6 1 0
21.9 1 0
22.2 1 0
22.5 1 0
22.8 1 0
23.1 1 0
23.4 1 0
23.7 1 0
24 1 0
24.3 1 0
24.6 1 0
24.9 1 0
25.2 1 0
25.5 1 0
25.8 1 0
26.1 1 0
26.4 1 0
26.7 1 0
27 1 0
27.3 1 0
27.6 1 0
27.9 1 0
28.2 1 0
28.5 1 0
28.8 1 0
29.1 1 0
29.4 1 0
29.7 1 0
30 1 0
30.3 1 0
0 1.1 0
0.3 1.1 0
0.6 1.1 0
0.9 1.1 0
1.2 1.1 0
1.5 1.1 0
1.8 1.1 0
2.1 1.1 0
2.4 1.1 0
2.7 1.1 0
3 1.1 0
3.3 1.1 0
3.6 1.1 0
3.9 1.1 0
4.2 1.1 0
4.5 1.1 0
4.8 1.1 0
5.1 1.1 0
5.4 1.1 0
5.7 1.1 0
6 1.1 0
6.3 1.1 0
6.6 1.1 0
6.9 1.1 0
7.2 1.1 0
7.5 1.1 0
7.8 1.1 0
8.1 1.1 0
8.4 1.1 0
8.7 1.1 0
9 1.1 0
9.3 1.1 0
9.6 1.1 0
9.9 1.1 0
10.2 1.1 0
10.5 1.1 0
10.8 1.1 0
11.1 1.1 0
11.4 1.1 0
11.7 1.1 0
12 1.1 0
12.3 1.1 0
12.6 1.1 0
12.9 1.1 0
13.2 1.1 0
13.5 1.1 0
13.8 1.1 0
14.1 1.1 0
14.4 1.1 0
14.7 1.1 0
15 1.1 0
15.3 1.1 0
15.6 1.1 0
15.9 1.1 0
16.2 1.1 0
16.5 1.1 0
16.8 1.1 0
17.1 1.1 0
17.4 1.1 0
17.7 1.1 0
18 1.1 0
18.3 1.1 0
18.6 1.1 0
18.9 1.1 0
19.2 1.1 0
19.5 1.1 0
19.8 1.1 0
20.1 1.1 0
20.4 1.1 0
20.7 1.1 0
21 1.1 0
21.3 1.1 0
21.6 1.1 0
21.9 1.1 0
22.2 1.1 0
22.5 1.1 0
22.8 1.1 0
23.1 1.1 0
23.4 1.1 0
23.7 1.1 0
24 1.1 0
24.3 1.1 0
24.6 1.1 0
24.9 1.1 0
25.2 1.1 0
25.5 1.1 0
25.8 1.1 0
26.1 1.1 0
26.4 1.1 0
26.7 1.1 0
27 1.1 0
27.3 1.1 0
27.6 1.1 0
27.9 1.1 0
28.2 1.1 0
28.5 1.1 0
28.8 1.1 0
29.1 1.1 0
29.4 1.1 0
29.7 1.1 0
30 1.1 0
30.3 1.1 0

POINT_DATA 1224

SCALARS v double
LOOKUP_TABLE default
0
0
0
0
0
0
0
0
0
0
0
0
0
0
0
0
0
0
0
0
0
0
0
0
0
0
0
0
0
0
0
0
0
0
0
0
0
0
0
0
0
0
0
0
0
0
0
0
0
0
0
0
0
0
0
0
0
0
0
0
0
0
0
0
0
0
0
0
0
0
0
0
0
0
0
0
0
0
0
0
0
0
0
0
0
0
0
0
0
0
0
0
0
0
0
0
0
0
0
0
0
0
-0.0630252
0.0630252
0.0557271
0.0385112
0.0243783
0.0149415
0.00927635
0.00604183
0.00419936
0.00310901
0.00242023
0.00195186
0.0016117
0.00135186
0.00114613
0.000979209
0.000841472
0.000726384
0.000629294
0.000546783
0.000476235
0.000415602
0.000363277
0.000317967
0.000278616
0.000244358
0.000214474
0.00018836
0.000165512
0.000145498
0.000127952
0.000112555
9.90311e-05
8.71485e-05
7.6709e-05
6.75326e-05
5.94563e-05
5.2348e-05
4.60978e-05
4.05989e-05
3.57538e-05
3.14871e-05
2.77341e-05
2.44309e-05
2.15196e-05
1.89527e-05
1.66936e-05
1.47079e-05
1.29585e-05
1.14138e-05
1.0052e-05
8.85525e-06
7.80398e-06
6.87583e-06
6.05533e-06
5.33408e-06
4.70058e-06
4.1421e-06
3.64914e-06
3.21422e-06
2.83145e-06
2.49473e-06
2.19663e-06
1.93216e-06
1.69885e-06
1.49236e-06
1.30825e-06
1.14429e-06
9.98619e-07
8.68703e-07
7.52497e-07
6.48934e-07
5.56766e-07
4.74858e-07
4.02525e-07
3.3892e-07
2.83227e-07
2.34866e-07
1.93255e-07
1.57726e-07
1.2763e-07
1.02399e-07
8.15145e-08
6.44238e-08
5.05428e-08
3.938e-08
3.05265e-08
2.35959e-08
1.8234e-08
1.41005e-08
1.09315e-08
8.57108e-09
6.82241e-09
5.50298e-09
4.62221e-09
3.91633e-09
3.60096e-09
2.60348e-09
2.90101e-09
1.71087e-09
-9.18361e-09
-9.18361e-09
-0.051614
0.051614
0.0605197
0.0485979
0.0351317
0.0247329
0.0176652
0.0130517
0.0100098
0.00792706
0.00643318
0.00531473
0.00444813
0.0037591
0.00320061
0.00274126
0.00235911
0.0020382
0.00176664
0.00153538
0.00133736
0.00116702
0.00101995
0.000892559
0.000781912
0.00068559
0.000601581
0.000528194
0.000464002
0.00040779
0.00035852
0.000315299
0.000277359
0.000244036
0.000214762
0.000189029
0.000166397
0.00014649
0.000128981
0.000113575
0.000100011
8.80729e-05
7.75674e-05
6.83175e-05
6.01697e-05
5.29945e-05
4.66789e-05
4.11191e-05
3.62204e-05
3.1903e-05
2.81009e-05
2.47556e-05
2.181e-05
1.9212e-05
1.69226e-05
1.49085e-05
1.31352e-05
1.1572e-05
1.0194e-05
8.97959e-06
7.90971e-06
6.96604e-06
6.1314e-06
5.39316e-06
4.74045e-06
4.1613e-06
3.6461e-06
3.18781e-06
2.77974e-06
2.41559e-06
2.0906e-06
1.80102e-06
1.54331e-06
1.31467e-06
1.11276e-06
9.35226e-07
7.80052e-07
6.45486e-07
5.29729e-07
4.30969e-07
3.47484e-07
2.77639e-07
2.1985e-07
1.72531e-07
1.34163e-07
1.03397e-07
7.90324e-08
5.99685e-08
4.52011e-08
3.38602e-08
2.52715e-08
1.88739e-08
1.41395e-08
1.06604e-08
8.26188e-09
6.35734e-09
5.47186e-09
3.16058e-09
4.55403e-09
-1.1886e-08
-2.98321e-08
-2.98321e-08
-0.031689
0.031689
0.0439855
0.0385943
0.0299834
0.0226205
0.0172756
0.0135694
0.0109667
0.00906485
0.00761232
0.00646147
0.00552523
0.00474978
0.00409958
0.00354967
0.00308155
0.00268097
0.00233673
0.00203988
0.00178309
0.00156037
0.00136679
0.00119821
0.00105115
0.000922695
0.000810346
0.000711988
0.000625801
0.000550221
0.000483902
0.000425675
0.000374527
0.000329582
0.000290077
0.000255339
0.00022478
0.000197899
0.000174251
0.000153437
0.000135114
0.000118989
0.000104794
9.22948e-05
8.12868e-05
7.1595e-05
6.30627e-05
5.55487e-05
4.89289e-05
4.3097e-05
3.79624e-05
3.34428e-05
2.94609e-05
2.59505e-05
2.28595e-05
2.0139e-05
1.77423e-05
1.56301e-05
1.37688e-05
1.21288e-05
1.06836e-05
9.40818e-06
8.28085e-06
7.28471e-06
6.40348e-06
5.62146e-06
4.92656e-06
4.30871e-06
3.7584e-06
3.26749e-06
2.82961e-06
2.4394e-06
2.0921e-06
1.78395e-06
1.51156e-06
1.27183e-06
1.06214e-06
8.8007e-07
7.23168e-07
5.89077e-07
4.7554e-07
3.80375e-07
3.01444e-07
2.36636e-07
1.83962e-07
1.41636e-07
1.08036e-07
8.16612e-08
6.11553e-08
4.53902e-08
3.34492e-08
2.45224e-08
1.78983e-08
1.30701e-08
9.65636e-09
7.05194e-09
5.7329e-09
2.83282e-09
4.98529e-09
-2.24186e-08
-4.02597e-08
-4.02597e-08
-0.0146344
0.0146344
0.0221781
0.0203996
0.0164656
0.0128763
0.0101763
0.00824854
0.00685378
0.00580158
0.00497127
0.00429241
0.00372394
0.00324075
0.00282627
0.0024687
0.00215902
0.00189006
0.00165598
0.00145191
0.00127376
0.00111803
0.000981795
0.000862493
0.000757941
0.000666261
0.000585824
0.000515216
0.000453207
0.00039873
0.000350857
0.000308774
0.000271768
0.000239224
0.0002106
0.000185414
0.000163248
0.000143745
0.000126581
0.000111469
9.81638e-05
8.64537e-05
7.61435e-05
6.70619e-05
5.90651e-05
5.2025e-05
4.58257e-05
4.03653e-05
3.55545e-05
3.13171e-05
2.75871e-05
2.43033e-05
2.14085e-05
1.88572e-05
1.66121e-05
1.46354e-05
1.28933e-05
1.13581e-05
1.00057e-05
8.81431e-06
7.76428e-06
6.83716e-06
6.01812e-06
5.29494e-06
4.65492e-06
4.08691e-06
3.58262e-06
3.13439e-06
2.73511e-06
2.37902e-06
2.06149e-06
1.77848e-06
1.52659e-06
1.30305e-06
1.10528e-06
9.31052e-07
7.78551e-07
6.45969e-07
5.3152e-07
4.33548e-07
3.5045e-07
2.80665e-07
2.22652e-07
1.7489e-07
1.35966e-07
1.04616e-07
7.9672e-08
6.00196e-08
4.46789e-08
3.28704e-08
2.39197e-08
1.72022e-08
1.22186e-08
8.59459e-09
6.02792e-09
4.11583e-09
3.17307e-09
1.2134e-09
3.13165e-09
-1.7645e-08
-2.82041e-08
-2.82041e-08
-3.1149e-08
3.1149e-08
1.02805e-09
5.44696e-09
2.85438e-08
1.39054e-08
-1.53392e-08
-7.29696e-09
1.58718e-08
1.47043e-08
2.29037e-09
6.37871e-09
1.70049e-08
1.26671e-08
5.43785e-09
9.61269e-09
1.15732e-08
7.286e-09
8.26719e-09
9.95605e-09
6.31666e-09
5.70529e-09
8.98488e-09
8.53422e-09
5.47736e-09
4.79338e-09
6.28688e-09
6.90481e-09
5.30155e-09
4.25126e-09
5.50571e-09
5.46114e-09
3.23681e-09
3.59326e-09
6.02777e-09
4.90246e-09
2.09577e-09
3.29309e-09
5.14337e-09
3.21204e-09
2.2462e-09
4.2207e-09
4.03432e-09
2.12049e-09
2.28777e-09
3.31043e-09
3.53412e-09
3.21545e-09
2.17961e-09
1.61814e-09
2.95044e-09
3.96999e-09
2.644e-09
1.69011e-09
2.64261e-09
3.20878e-09
2.88155e-09
2.58356e-09
2.55878e-09
2.98149e-09
3.20573e-09
2.70203e-09
2.44657e-09
2.80738e-09
2.75338e-09
2.35811e-09
2.2365e-09
2.15881e-09
1.92796e-09
1.62242e-09
1.329e-09
1.02036e-09
7.52012e-10
5.46221e-10
2.62654e-10
-4.65277e-11
-2.79849e-10
-4.97015e-10
-7.25296e-10
-9.36785e-10
-1.1216e-09
-1.2686e-09
-1.39339e-09
-1.52941e-09
-1.67277e-09
-1.78373e-09
-1.85995e-09
-1.95387e-09
-2.05818e-09
-2.11345e-09
-2.12952e-09
-2.13314e-09
-2.11889e-09
-2.05912e-09
-1.9783e-09
-1.83852e-09
-1.61072e-09
-1.2634e-09
-6.28196e-10
-2.02382e-10
1.96228e-09
1.96228e-09
0.0146343
-0.0146343
-0.022178
-0.0203996
-0.0164656
-0.0128763
-0.0101764
-0.00824856
-0.00685375
-0.00580155
-0.00497127
-0.0042924
-0.00372391
-0.00324073
-0.00282626
-0.00246869
-0.002159
-0.00189005
-0.00165597
-0.0014519
-0.00127374
-0.00111802
-0.000981779
-0.000862478
-0.000757931
-0.000666251
-0.000585812
-0.000515203
-0.000453197
-0.000398722
-0.000350847
-0.000308764
-0.000271762
-0.000239218
-0.000210589
-0.000185405
-0.000163244
-0.000143738
-0.000126571
-0.000111462
-9.81593e-05
-8.64462e-05
-7.61358e-05
-6.7057e-05
-5.90604e-05
-5.20192e-05
-4.58192e-05
-4.03587e-05
-3.55497e-05
-3.13137e-05
-2.75818e-05
-2.42959e-05
-2.14029e-05
-1.88534e-05
-1.66071e-05
-1.46294e-05
-1.28876e-05
-1.13529e-05
-1.00006e-05
-8.80863e-06
-7.75815e-06
-6.83169e-06
-6.01318e-06
-5.28956e-06
-4.64953e-06
-4.08214e-06
-3.57817e-06
-3.13011e-06
-2.73118e-06
-2.37564e-06
-2.05866e-06
-1.77619e-06
-1.52479e-06
-1.30166e-06
-1.10438e-06
-9.30692e-07
-7.78627e-07
-6.46441e-07
-5.32396e-07
-4.34805e-07
-3.52048e-07
-2.82539e-07
-2.24755e-07
-1.77237e-07
-1.38573e-07
-1.07428e-07
-8.26327e-08
-6.31545e-08
-4.79951e-08
-3.62933e-08
-2.73837e-08
-2.06796e-08
-1.5675e-08
-1.19564e-08
-9.23409e-09
-7.08429e-09
-5.7332e-09
-3.13589e-09
-3.90979e-09
1.78239e-08
3.21047e-08
3.21047e-08
0.031689
-0.031689
-0.0439855
-0.0385944
-0.0299834
-0.0226205
-0.0172756
-0.0135694
-0.0109666
-0.00906482
-0.00761231
-0.00646146
-0.00552521
-0.00474976
-0.00409957
-0.00354966
-0.00308153
-0.00268095
-0.00233672
-0.00203986
-0.00178307
-0.00156036
-0.00136678
-0.0011982
-0.00105115
-0.000922685
-0.000810337
-0.00071198
-0.000625794
-0.000550214
-0.000483892
-0.000425666
-0.000374522
-0.000329576
-0.000290068
-0.00025533
-0.000224776
-0.000197894
-0.000174243
-0.00015343
-0.00013511
-0.000118983
-0.000104788
-9.22884e-05
-8.12815e-05
-7.15912e-05
-6.30577e-05
-5.55419e-05
-4.8923e-05
-4.30932e-05
-3.79585e-05
-3.34371e-05
-2.94546e-05
-2.59456e-05
-2.28553e-05
-2.0134e-05
-1.77367e-05
-1.56247e-05
-1.37637e-05
-1.21238e-05
-1.06782e-05
-9.4026e-06
-8.27583e-06
-7.2799e-06
-6.39843e-06
-5.61659e-06
-4.92216e-06
-4.30453e-06
-3.75432e-06
-3.26378e-06
-2.82636e-06
-2.43649e-06
-2.08958e-06
-1.78177e-06
-1.5097e-06
-1.27031e-06
-1.06096e-06
-8.79182e-07
-7.22545e-07
-5.88722e-07
-4.75449e-07
-3.80506e-07
-3.01746e-07
-2.37109e-07
-1.84623e-07
-1.42457e-07
-1.08994e-07
-8.27522e-08
-6.23598e-08
-4.66893e-08
-3.48128e-08
-2.58994e-08
-1.92849e-08
-1.44061e-08
-1.08733e-08
-8.10477e-09
-6.50145e-09
-3.14727e-09
-4.27114e-09
2.40004e-08
4.41549e-08
4.41549e-08
0.051614
-0.051614
-0.0605197
-0.0485979
-0.0351317
-0.0247329
-0.0176652
-0.0130517
-0.0100098
-0.00792703
-0.00643317
-0.00531473
-0.00444812
-0.00375909
-0.0032006
-0.00274126
-0.0023591
-0.00203819
-0.00176664
-0.00153537
-0.00133735
-0.00116701
-0.00101994
-0.000892554
-0.000781905
-0.000685582
-0.000601573
-0.000528189
-0.000463998
-0.000407783
-0.000358511
-0.000315292
-0.000277355
-0.000244033
-0.000214755
-0.000189021
-0.000166391
-0.000146486
-0.000128976
-0.000113568
-0.000100006
-8.80699e-05
-7.75626e-05
-6.83098e-05
-6.01637e-05
-5.29922e-05
-4.66758e-05
-4.11125e-05
-3.62134e-05
-3.18985e-05
-2.80984e-05
-2.47518e-05
-2.18033e-05
-1.92059e-05
-1.69189e-05
-1.49046e-05
-1.31299e-05
-1.15665e-05
-1.0189e-05
-8.97527e-06
-7.90513e-06
-6.96056e-06
-6.12627e-06
-5.38888e-06
-4.73584e-06
-4.1564e-06
-3.6417e-06
-3.1837e-06
-2.77548e-06
-2.41145e-06
-2.08675e-06
-1.79731e-06
-1.53982e-06
-1.31143e-06
-1.10963e-06
-9.32204e-07
-7.77228e-07
-6.42823e-07
-5.27169e-07
-4.28532e-07
-3.45206e-07
-2.7551e-07
-2.17822e-07
-1.70588e-07
-1.32321e-07
-1.01662e-07
-7.74091e-08
-5.84308e-08
-4.37101e-08
-3.24472e-08
-2.39424e-08
-1.75758e-08
-1.28781e-08
-9.41943e-09
-6.9369e-09
-4.96524e-09
-3.91353e-09
-1.44628e-09
-1.88553e-09
1.51684e-08
3.37134e-08
3.37134e-08
0.0630253
-0.0630253
-0.0557271
-0.0385112
-0.0243784
-0.0149415
-0.0092763
-0.0060418
-0.00419936
-0.00310899
-0.00242021
-0.00195186
-0.00161171
-0.00135185
-0.00114612
-0.000979209
-0.000841468
-0.000726374
-0.00062929
-0.000546781
-0.000476227
-0.000415594
-0.000363273
-0.000317964
-0.000278611
-0.000244351
-0.000214467
-0.000188357
-0.000165509
-0.000145493
-0.000127945
-0.000112548
-9.90269e-05
-8.71462e-05
-7.67052e-05
-6.75257e-05
-5.94502e-05
-5.23452e-05
-4.60942e-05
-4.0592e-05
-3.57484e-05
-3.14852e-05
-2.77306e-05
-2.44234e-05
-2.15129e-05
-1.89503e-05
-1.66918e-05
-1.47024e-05
-1.29509e-05
-1.14083e-05
-1.00498e-05
-8.85286e-06
-7.79788e-06
-6.86896e-06
-6.05138e-06
-5.33091e-06
-4.69595e-06
-4.13671e-06
-3.64415e-06
-3.21023e-06
-2.82751e-06
-2.48964e-06
-2.19148e-06
-1.92806e-06
-1.69462e-06
-1.48756e-06
-1.30377e-06
-1.14013e-06
-9.94249e-07
-8.64169e-07
-7.48081e-07
-6.44546e-07
-5.52407e-07
-4.70627e-07
-3.98281e-07
-3.34618e-07
-2.78972e-07
-2.30658e-07
-1.89035e-07
-1.53508e-07
-1.23472e-07
-9.83231e-08
-7.74886e-08
-6.04159e-08
-4.6566e-08
-3.54676e-08
-2.66973e-08
-1.98177e-08
-1.44705e-08
-1.03954e-08
-7.32041e-09
-5.02109e-09
-3.33592e-09
-2.08667e-09
-1.19146e-09
-4.60871e-10
-4.09333e-11
9.64014e-10
8.3088e-10
2.69753e-09
1.3053e-08
1.3053e-08
0
0
0
0
0
0
0
0
0
0
0
0
0
0
0
0
0
0
0
0
0
0
0
0
0
0
0
0
0
0
0
0
0
0
0
0
0
0
0
0
0
0
0
0
0
0
0
0
0
0
0
0
0
0
0
0
0
0
0
0
0
0
0
0
0
0
0
0
0
0
0
0
0
0
0
0
0
0
0
0
0
0
0
0
0
0
0
0
0
0
0
0
0
0
0
0
0
0
0
0
0
0
0
0
0
0
0
0
0
0
0
0
0
0
0
0
0
0
0
0
0
0
0
0
0
0
0
0
0
0
0
0
0
0
0
0
0
0
0
0
0
0
0
0
0
0
0
0
0
0
0
0
0
0
0
0
0
0
0
0
0
0
0
0
0
0
0
0
0
0
0
0
0
0
0
0
0
0
0
0
0
0
0
0
0
0
0
0
0
0
0
0
0
0
0
0
0
0
0
0
0
0
0
0
