# vtk DataFile Version 2.0
FlowField
ASCII
DATASET STRUCTURED_GRID
DIMENSIONS 101 11 1 
POINTS 1111 double
0 0 0
0.3 0 0
0.6 0 0
0.9 0 0
1.2 0 0
1.5 0 0
1.8 0 0
2.1 0 0
2.4 0 0
2.7 0 0
3 0 0
3.3 0 0
3.6 0 0
3.9 0 0
4.2 0 0
4.5 0 0
4.8 0 0
5.1 0 0
5.4 0 0
5.7 0 0
6 0 0
6.3 0 0
6.6 0 0
6.9 0 0
7.2 0 0
7.5 0 0
7.8 0 0
8.1 0 0
8.4 0 0
8.7 0 0
9 0 0
9.3 0 0
9.6 0 0
9.9 0 0
10.2 0 0
10.5 0 0
10.8 0 0
11.1 0 0
11.4 0 0
11.7 0 0
12 0 0
12.3 0 0
12.6 0 0
12.9 0 0
13.2 0 0
13.5 0 0
13.8 0 0
14.1 0 0
14.4 0 0
14.7 0 0
15 0 0
15.3 0 0
15.6 0 0
15.9 0 0
16.2 0 0
16.5 0 0
16.8 0 0
17.1 0 0
17.4 0 0
17.7 0 0
18 0 0
18.3 0 0
18.6 0 0
18.9 0 0
19.2 0 0
19.5 0 0
19.8 0 0
20.1 0 0
20.4 0 0
20.7 0 0
21 0 0
21.3 0 0
21.6 0 0
21.9 0 0
22.2 0 0
22.5 0 0
22.8 0 0
23.1 0 0
23.4 0 0
23.7 0 0
24 0 0
24.3 0 0
24.6 0 0
24.9 0 0
25.2 0 0
25.5 0 0
25.8 0 0
26.1 0 0
26.4 0 0
26.7 0 0
27 0 0
27.3 0 0
27.6 0 0
27.9 0 0
28.2 0 0
28.5 0 0
28.8 0 0
29.1 0 0
29.4 0 0
29.7 0 0
30 0 0
0 0.1 0
0.3 0.1 0
0.6 0.1 0
0.9 0.1 0
1.2 0.1 0
1.5 0.1 0
1.8 0.1 0
2.1 0.1 0
2.4 0.1 0
2.7 0.1 0
3 0.1 0
3.3 0.1 0
3.6 0.1 0
3.9 0.1 0
4.2 0.1 0
4.5 0.1 0
4.8 0.1 0
5.1 0.1 0
5.4 0.1 0
5.7 0.1 0
6 0.1 0
6.3 0.1 0
6.6 0.1 0
6.9 0.1 0
7.2 0.1 0
7.5 0.1 0
7.8 0.1 0
8.1 0.1 0
8.4 0.1 0
8.7 0.1 0
9 0.1 0
9.3 0.1 0
9.6 0.1 0
9.9 0.1 0
10.2 0.1 0
10.5 0.1 0
10.8 0.1 0
11.1 0.1 0
11.4 0.1 0
11.7 0.1 0
12 0.1 0
12.3 0.1 0
12.6 0.1 0
12.9 0.1 0
13.2 0.1 0
13.5 0.1 0
13.8 0.1 0
14.1 0.1 0
14.4 0.1 0
14.7 0.1 0
15 0.1 0
15.3 0.1 0
15.6 0.1 0
15.9 0.1 0
16.2 0.1 0
16.5 0.1 0
16.8 0.1 0
17.1 0.1 0
17.4 0.1 0
17.7 0.1 0
18 0.1 0
18.3 0.1 0
18.6 0.1 0
18.9 0.1 0
19.2 0.1 0
19.5 0.1 0
19.8 0.1 0
20.1 0.1 0
20.4 0.1 0
20.7 0.1 0
21 0.1 0
21.3 0.1 0
21.6 0.1 0
21.9 0.1 0
22.2 0.1 0
22.5 0.1 0
22.8 0.1 0
23.1 0.1 0
23.4 0.1 0
23.7 0.1 0
24 0.1 0
24.3 0.1 0
24.6 0.1 0
24.9 0.1 0
25.2 0.1 0
25.5 0.1 0
25.8 0.1 0
26.1 0.1 0
26.4 0.1 0
26.7 0.1 0
27 0.1 0
27.3 0.1 0
27.6 0.1 0
27.9 0.1 0
28.2 0.1 0
28.5 0.1 0
28.8 0.1 0
29.1 0.1 0
29.4 0.1 0
29.7 0.1 0
30 0.1 0
0 0.2 0
0.3 0.2 0
0.6 0.2 0
0.9 0.2 0
1.2 0.2 0
1.5 0.2 0
1.8 0.2 0
2.1 0.2 0
2.4 0.2 0
2.7 0.2 0
3 0.2 0
3.3 0.2 0
3.6 0.2 0
3.9 0.2 0
4.2 0.2 0
4.5 0.2 0
4.8 0.2 0
5.1 0.2 0
5.4 0.2 0
5.7 0.2 0
6 0.2 0
6.3 0.2 0
6.6 0.2 0
6.9 0.2 0
7.2 0.2 0
7.5 0.2 0
7.8 0.2 0
8.1 0.2 0
8.4 0.2 0
8.7 0.2 0
9 0.2 0
9.3 0.2 0
9.6 0.2 0
9.9 0.2 0
10.2 0.2 0
10.5 0.2 0
10.8 0.2 0
11.1 0.2 0
11.4 0.2 0
11.7 0.2 0
12 0.2 0
12.3 0.2 0
12.6 0.2 0
12.9 0.2 0
13.2 0.2 0
13.5 0.2 0
13.8 0.2 0
14.1 0.2 0
14.4 0.2 0
14.7 0.2 0
15 0.2 0
15.3 0.2 0
15.6 0.2 0
15.9 0.2 0
16.2 0.2 0
16.5 0.2 0
16.8 0.2 0
17.1 0.2 0
17.4 0.2 0
17.7 0.2 0
18 0.2 0
18.3 0.2 0
18.6 0.2 0
18.9 0.2 0
19.2 0.2 0
19.5 0.2 0
19.8 0.2 0
20.1 0.2 0
20.4 0.2 0
20.7 0.2 0
21 0.2 0
21.3 0.2 0
21.6 0.2 0
21.9 0.2 0
22.2 0.2 0
22.5 0.2 0
22.8 0.2 0
23.1 0.2 0
23.4 0.2 0
23.7 0.2 0
24 0.2 0
24.3 0.2 0
24.6 0.2 0
24.9 0.2 0
25.2 0.2 0
25.5 0.2 0
25.8 0.2 0
26.1 0.2 0
26.4 0.2 0
26.7 0.2 0
27 0.2 0
27.3 0.2 0
27.6 0.2 0
27.9 0.2 0
28.2 0.2 0
28.5 0.2 0
28.8 0.2 0
29.1 0.2 0
29.4 0.2 0
29.7 0.2 0
30 0.2 0
0 0.3 0
0.3 0.3 0
0.6 0.3 0
0.9 0.3 0
1.2 0.3 0
1.5 0.3 0
1.8 0.3 0
2.1 0.3 0
2.4 0.3 0
2.7 0.3 0
3 0.3 0
3.3 0.3 0
3.6 0.3 0
3.9 0.3 0
4.2 0.3 0
4.5 0.3 0
4.8 0.3 0
5.1 0.3 0
5.4 0.3 0
5.7 0.3 0
6 0.3 0
6.3 0.3 0
6.6 0.3 0
6.9 0.3 0
7.2 0.3 0
7.5 0.3 0
7.8 0.3 0
8.1 0.3 0
8.4 0.3 0
8.7 0.3 0
9 0.3 0
9.3 0.3 0
9.6 0.3 0
9.9 0.3 0
10.2 0.3 0
10.5 0.3 0
10.8 0.3 0
11.1 0.3 0
11.4 0.3 0
11.7 0.3 0
12 0.3 0
12.3 0.3 0
12.6 0.3 0
12.9 0.3 0
13.2 0.3 0
13.5 0.3 0
13.8 0.3 0
14.1 0.3 0
14.4 0.3 0
14.7 0.3 0
15 0.3 0
15.3 0.3 0
15.6 0.3 0
15.9 0.3 0
16.2 0.3 0
16.5 0.3 0
16.8 0.3 0
17.1 0.3 0
17.4 0.3 0
17.7 0.3 0
18 0.3 0
18.3 0.3 0
18.6 0.3 0
18.9 0.3 0
19.2 0.3 0
19.5 0.3 0
19.8 0.3 0
20.1 0.3 0
20.4 0.3 0
20.7 0.3 0
21 0.3 0
21.3 0.3 0
21.6 0.3 0
21.9 0.3 0
22.2 0.3 0
22.5 0.3 0
22.8 0.3 0
23.1 0.3 0
23.4 0.3 0
23.7 0.3 0
24 0.3 0
24.3 0.3 0
24.6 0.3 0
24.9 0.3 0
25.2 0.3 0
25.5 0.3 0
25.8 0.3 0
26.1 0.3 0
26.4 0.3 0
26.7 0.3 0
27 0.3 0
27.3 0.3 0
27.6 0.3 0
27.9 0.3 0
28.2 0.3 0
28.5 0.3 0
28.8 0.3 0
29.1 0.3 0
29.4 0.3 0
29.7 0.3 0
30 0.3 0
0 0.4 0
0.3 0.4 0
0.6 0.4 0
0.9 0.4 0
1.2 0.4 0
1.5 0.4 0
1.8 0.4 0
2.1 0.4 0
2.4 0.4 0
2.7 0.4 0
3 0.4 0
3.3 0.4 0
3.6 0.4 0
3.9 0.4 0
4.2 0.4 0
4.5 0.4 0
4.8 0.4 0
5.1 0.4 0
5.4 0.4 0
5.7 0.4 0
6 0.4 0
6.3 0.4 0
6.6 0.4 0
6.9 0.4 0
7.2 0.4 0
7.5 0.4 0
7.8 0.4 0
8.1 0.4 0
8.4 0.4 0
8.7 0.4 0
9 0.4 0
9.3 0.4 0
9.6 0.4 0
9.9 0.4 0
10.2 0.4 0
10.5 0.4 0
10.8 0.4 0
11.1 0.4 0
11.4 0.4 0
11.7 0.4 0
12 0.4 0
12.3 0.4 0
12.6 0.4 0
12.9 0.4 0
13.2 0.4 0
13.5 0.4 0
13.8 0.4 0
14.1 0.4 0
14.4 0.4 0
14.7 0.4 0
15 0.4 0
15.3 0.4 0
15.6 0.4 0
15.9 0.4 0
16.2 0.4 0
16.5 0.4 0
16.8 0.4 0
17.1 0.4 0
17.4 0.4 0
17.7 0.4 0
18 0.4 0
18.3 0.4 0
18.6 0.4 0
18.9 0.4 0
19.2 0.4 0
19.5 0.4 0
19.8 0.4 0
20.1 0.4 0
20.4 0.4 0
20.7 0.4 0
21 0.4 0
21.3 0.4 0
21.6 0.4 0
21.9 0.4 0
22.2 0.4 0
22.5 0.4 0
22.8 0.4 0
23.1 0.4 0
23.4 0.4 0
23.7 0.4 0
24 0.4 0
24.3 0.4 0
24.6 0.4 0
24.9 0.4 0
25.2 0.4 0
25.5 0.4 0
25.8 0.4 0
26.1 0.4 0
26.4 0.4 0
26.7 0.4 0
27 0.4 0
27.3 0.4 0
27.6 0.4 0
27.9 0.4 0
28.2 0.4 0
28.5 0.4 0
28.8 0.4 0
29.1 0.4 0
29.4 0.4 0
29.7 0.4 0
30 0.4 0
0 0.5 0
0.3 0.5 0
0.6 0.5 0
0.9 0.5 0
1.2 0.5 0
1.5 0.5 0
1.8 0.5 0
2.1 0.5 0
2.4 0.5 0
2.7 0.5 0
3 0.5 0
3.3 0.5 0
3.6 0.5 0
3.9 0.5 0
4.2 0.5 0
4.5 0.5 0
4.8 0.5 0
5.1 0.5 0
5.4 0.5 0
5.7 0.5 0
6 0.5 0
6.3 0.5 0
6.6 0.5 0
6.9 0.5 0
7.2 0.5 0
7.5 0.5 0
7.8 0.5 0
8.1 0.5 0
8.4 0.5 0
8.7 0.5 0
9 0.5 0
9.3 0.5 0
9.6 0.5 0
9.9 0.5 0
10.2 0.5 0
10.5 0.5 0
10.8 0.5 0
11.1 0.5 0
11.4 0.5 0
11.7 0.5 0
12 0.5 0
12.3 0.5 0
12.6 0.5 0
12.9 0.5 0
13.2 0.5 0
13.5 0.5 0
13.8 0.5 0
14.1 0.5 0
14.4 0.5 0
14.7 0.5 0
15 0.5 0
15.3 0.5 0
15.6 0.5 0
15.9 0.5 0
16.2 0.5 0
16.5 0.5 0
16.8 0.5 0
17.1 0.5 0
17.4 0.5 0
17.7 0.5 0
18 0.5 0
18.3 0.5 0
18.6 0.5 0
18.9 0.5 0
19.2 0.5 0
19.5 0.5 0
19.8 0.5 0
20.1 0.5 0
20.4 0.5 0
20.7 0.5 0
21 0.5 0
21.3 0.5 0
21.6 0.5 0
21.9 0.5 0
22.2 0.5 0
22.5 0.5 0
22.8 0.5 0
23.1 0.5 0
23.4 0.5 0
23.7 0.5 0
24 0.5 0
24.3 0.5 0
24.6 0.5 0
24.9 0.5 0
25.2 0.5 0
25.5 0.5 0
25.8 0.5 0
26.1 0.5 0
26.4 0.5 0
26.7 0.5 0
27 0.5 0
27.3 0.5 0
27.6 0.5 0
27.9 0.5 0
28.2 0.5 0
28.5 0.5 0
28.8 0.5 0
29.1 0.5 0
29.4 0.5 0
29.7 0.5 0
30 0.5 0
0 0.6 0
0.3 0.6 0
0.6 0.6 0
0.9 0.6 0
1.2 0.6 0
1.5 0.6 0
1.8 0.6 0
2.1 0.6 0
2.4 0.6 0
2.7 0.6 0
3 0.6 0
3.3 0.6 0
3.6 0.6 0
3.9 0.6 0
4.2 0.6 0
4.5 0.6 0
4.8 0.6 0
5.1 0.6 0
5.4 0.6 0
5.7 0.6 0
6 0.6 0
6.3 0.6 0
6.6 0.6 0
6.9 0.6 0
7.2 0.6 0
7.5 0.6 0
7.8 0.6 0
8.1 0.6 0
8.4 0.6 0
8.7 0.6 0
9 0.6 0
9.3 0.6 0
9.6 0.6 0
9.9 0.6 0
10.2 0.6 0
10.5 0.6 0
10.8 0.6 0
11.1 0.6 0
11.4 0.6 0
11.7 0.6 0
12 0.6 0
12.3 0.6 0
12.6 0.6 0
12.9 0.6 0
13.2 0.6 0
13.5 0.6 0
13.8 0.6 0
14.1 0.6 0
14.4 0.6 0
14.7 0.6 0
15 0.6 0
15.3 0.6 0
15.6 0.6 0
15.9 0.6 0
16.2 0.6 0
16.5 0.6 0
16.8 0.6 0
17.1 0.6 0
17.4 0.6 0
17.7 0.6 0
18 0.6 0
18.3 0.6 0
18.6 0.6 0
18.9 0.6 0
19.2 0.6 0
19.5 0.6 0
19.8 0.6 0
20.1 0.6 0
20.4 0.6 0
20.7 0.6 0
21 0.6 0
21.3 0.6 0
21.6 0.6 0
21.9 0.6 0
22.2 0.6 0
22.5 0.6 0
22.8 0.6 0
23.1 0.6 0
23.4 0.6 0
23.7 0.6 0
24 0.6 0
24.3 0.6 0
24.6 0.6 0
24.9 0.6 0
25.2 0.6 0
25.5 0.6 0
25.8 0.6 0
26.1 0.6 0
26.4 0.6 0
26.7 0.6 0
27 0.6 0
27.3 0.6 0
27.6 0.6 0
27.9 0.6 0
28.2 0.6 0
28.5 0.6 0
28.8 0.6 0
29.1 0.6 0
29.4 0.6 0
29.7 0.6 0
30 0.6 0
0 0.7 0
0.3 0.7 0
0.6 0.7 0
0.9 0.7 0
1.2 0.7 0
1.5 0.7 0
1.8 0.7 0
2.1 0.7 0
2.4 0.7 0
2.7 0.7 0
3 0.7 0
3.3 0.7 0
3.6 0.7 0
3.9 0.7 0
4.2 0.7 0
4.5 0.7 0
4.8 0.7 0
5.1 0.7 0
5.4 0.7 0
5.7 0.7 0
6 0.7 0
6.3 0.7 0
6.6 0.7 0
6.9 0.7 0
7.2 0.7 0
7.5 0.7 0
7.8 0.7 0
8.1 0.7 0
8.4 0.7 0
8.7 0.7 0
9 0.7 0
9.3 0.7 0
9.6 0.7 0
9.9 0.7 0
10.2 0.7 0
10.5 0.7 0
10.8 0.7 0
11.1 0.7 0
11.4 0.7 0
11.7 0.7 0
12 0.7 0
12.3 0.7 0
12.6 0.7 0
12.9 0.7 0
13.2 0.7 0
13.5 0.7 0
13.8 0.7 0
14.1 0.7 0
14.4 0.7 0
14.7 0.7 0
15 0.7 0
15.3 0.7 0
15.6 0.7 0
15.9 0.7 0
16.2 0.7 0
16.5 0.7 0
16.8 0.7 0
17.1 0.7 0
17.4 0.7 0
17.7 0.7 0
18 0.7 0
18.3 0.7 0
18.6 0.7 0
18.9 0.7 0
19.2 0.7 0
19.5 0.7 0
19.8 0.7 0
20.1 0.7 0
20.4 0.7 0
20.7 0.7 0
21 0.7 0
21.3 0.7 0
21.6 0.7 0
21.9 0.7 0
22.2 0.7 0
22.5 0.7 0
22.8 0.7 0
23.1 0.7 0
23.4 0.7 0
23.7 0.7 0
24 0.7 0
24.3 0.7 0
24.6 0.7 0
24.9 0.7 0
25.2 0.7 0
25.5 0.7 0
25.8 0.7 0
26.1 0.7 0
26.4 0.7 0
26.7 0.7 0
27 0.7 0
27.3 0.7 0
27.6 0.7 0
27.9 0.7 0
28.2 0.7 0
28.5 0.7 0
28.8 0.7 0
29.1 0.7 0
29.4 0.7 0
29.7 0.7 0
30 0.7 0
0 0.8 0
0.3 0.8 0
0.6 0.8 0
0.9 0.8 0
1.2 0.8 0
1.5 0.8 0
1.8 0.8 0
2.1 0.8 0
2.4 0.8 0
2.7 0.8 0
3 0.8 0
3.3 0.8 0
3.6 0.8 0
3.9 0.8 0
4.2 0.8 0
4.5 0.8 0
4.8 0.8 0
5.1 0.8 0
5.4 0.8 0
5.7 0.8 0
6 0.8 0
6.3 0.8 0
6.6 0.8 0
6.9 0.8 0
7.2 0.8 0
7.5 0.8 0
7.8 0.8 0
8.1 0.8 0
8.4 0.8 0
8.7 0.8 0
9 0.8 0
9.3 0.8 0
9.6 0.8 0
9.9 0.8 0
10.2 0.8 0
10.5 0.8 0
10.8 0.8 0
11.1 0.8 0
11.4 0.8 0
11.7 0.8 0
12 0.8 0
12.3 0.8 0
12.6 0.8 0
12.9 0.8 0
13.2 0.8 0
13.5 0.8 0
13.8 0.8 0
14.1 0.8 0
14.4 0.8 0
14.7 0.8 0
15 0.8 0
15.3 0.8 0
15.6 0.8 0
15.9 0.8 0
16.2 0.8 0
16.5 0.8 0
16.8 0.8 0
17.1 0.8 0
17.4 0.8 0
17.7 0.8 0
18 0.8 0
18.3 0.8 0
18.6 0.8 0
18.9 0.8 0
19.2 0.8 0
19.5 0.8 0
19.8 0.8 0
20.1 0.8 0
20.4 0.8 0
20.7 0.8 0
21 0.8 0
21.3 0.8 0
21.6 0.8 0
21.9 0.8 0
22.2 0.8 0
22.5 0.8 0
22.8 0.8 0
23.1 0.8 0
23.4 0.8 0
23.7 0.8 0
24 0.8 0
24.3 0.8 0
24.6 0.8 0
24.9 0.8 0
25.2 0.8 0
25.5 0.8 0
25.8 0.8 0
26.1 0.8 0
26.4 0.8 0
26.7 0.8 0
27 0.8 0
27.3 0.8 0
27.6 0.8 0
27.9 0.8 0
28.2 0.8 0
28.5 0.8 0
28.8 0.8 0
29.1 0.8 0
29.4 0.8 0
29.7 0.8 0
30 0.8 0
0 0.9 0
0.3 0.9 0
0.6 0.9 0
0.9 0.9 0
1.2 0.9 0
1.5 0.9 0
1.8 0.9 0
2.1 0.9 0
2.4 0.9 0
2.7 0.9 0
3 0.9 0
3.3 0.9 0
3.6 0.9 0
3.9 0.9 0
4.2 0.9 0
4.5 0.9 0
4.8 0.9 0
5.1 0.9 0
5.4 0.9 0
5.7 0.9 0
6 0.9 0
6.3 0.9 0
6.6 0.9 0
6.9 0.9 0
7.2 0.9 0
7.5 0.9 0
7.8 0.9 0
8.1 0.9 0
8.4 0.9 0
8.7 0.9 0
9 0.9 0
9.3 0.9 0
9.6 0.9 0
9.9 0.9 0
10.2 0.9 0
10.5 0.9 0
10.8 0.9 0
11.1 0.9 0
11.4 0.9 0
11.7 0.9 0
12 0.9 0
12.3 0.9 0
12.6 0.9 0
12.9 0.9 0
13.2 0.9 0
13.5 0.9 0
13.8 0.9 0
14.1 0.9 0
14.4 0.9 0
14.7 0.9 0
15 0.9 0
15.3 0.9 0
15.6 0.9 0
15.9 0.9 0
16.2 0.9 0
16.5 0.9 0
16.8 0.9 0
17.1 0.9 0
17.4 0.9 0
17.7 0.9 0
18 0.9 0
18.3 0.9 0
18.6 0.9 0
18.9 0.9 0
19.2 0.9 0
19.5 0.9 0
19.8 0.9 0
20.1 0.9 0
20.4 0.9 0
20.7 0.9 0
21 0.9 0
21.3 0.9 0
21.6 0.9 0
21.9 0.9 0
22.2 0.9 0
22.5 0.9 0
22.8 0.9 0
23.1 0.9 0
23.4 0.9 0
23.7 0.9 0
24 0.9 0
24.3 0.9 0
24.6 0.9 0
24.9 0.9 0
25.2 0.9 0
25.5 0.9 0
25.8 0.9 0
26.1 0.9 0
26.4 0.9 0
26.7 0.9 0
27 0.9 0
27.3 0.9 0
27.6 0.9 0
27.9 0.9 0
28.2 0.9 0
28.5 0.9 0
28.8 0.9 0
29.1 0.9 0
29.4 0.9 0
29.7 0.9 0
30 0.9 0
0 1 0
0.3 1 0
0.6 1 0
0.9 1 0
1.2 1 0
1.5 1 0
1.8 1 0
2.1 1 0
2.4 1 0
2.7 1 0
3 1 0
3.3 1 0
3.6 1 0
3.9 1 0
4.2 1 0
4.5 1 0
4.8 1 0
5.1 1 0
5.4 1 0
5.7 1 0
6 1 0
6.3 1 0
6.6 1 0
6.9 1 0
7.2 1 0
7.5 1 0
7.8 1 0
8.1 1 0
8.4 1 0
8.7 1 0
9 1 0
9.3 1 0
9.6 1 0
9.9 1 0
10.2 1 0
10.5 1 0
10.8 1 0
11.1 1 0
11.4 1 0
11.7 1 0
12 1 0
12.3 1 0
12.6 1 0
12.9 1 0
13.2 1 0
13.5 1 0
13.8 1 0
14.1 1 0
14.4 1 0
14.7 1 0
15 1 0
15.3 1 0
15.6 1 0
15.9 1 0
16.2 1 0
16.5 1 0
16.8 1 0
17.1 1 0
17.4 1 0
17.7 1 0
18 1 0
18.3 1 0
18.6 1 0
18.9 1 0
19.2 1 0
19.5 1 0
19.8 1 0
20.1 1 0
20.4 1 0
20.7 1 0
21 1 0
21.3 1 0
21.6 1 0
21.9 1 0
22.2 1 0
22.5 1 0
22.8 1 0
23.1 1 0
23.4 1 0
23.7 1 0
24 1 0
24.3 1 0
24.6 1 0
24.9 1 0
25.2 1 0
25.5 1 0
25.8 1 0
26.1 1 0
26.4 1 0
26.7 1 0
27 1 0
27.3 1 0
27.6 1 0
27.9 1 0
28.2 1 0
28.5 1 0
28.8 1 0
29.1 1 0
29.4 1 0
29.7 1 0
30 1 0

POINT_DATA 1111

SCALARS v double
LOOKUP_TABLE default
0
0
0
0
0
0
0
0
0
0
0
0
0
0
0
0
0
0
0
0
0
0
0
0
0
0
0
0
0
0
0
0
0
0
0
0
0
0
0
0
0
0
0
0
0
0
0
0
0
0
0
0
0
0
0
0
0
0
0
0
0
0
0
0
0
0
0
0
0
0
0
0
0
0
0
0
0
0
0
0
0
0
0
0
0
0
0
0
0
0
0
0
0
0
0
0
0
0
0
0
0
-0.0359858
0.0359858
0.0367618
0.0309383
0.0247937
0.0193687
0.0148922
0.011356
0.00865023
0.00662567
0.00513159
0.00403561
0.00323089
0.00263583
0.00219043
0.00185164
0.00158905
0.00138139
0.0012138
0.00107593
0.000960499
0.000862345
0.000777773
0.000704109
0.000639354
0.000581992
0.000530874
0.000485096
0.00044392
0.000406751
0.00037311
0.000342583
0.000314816
0.000289518
0.000266431
0.000245328
0.000226014
0.000208321
0.000192093
0.000177195
0.000163509
0.000150925
0.000139346
0.000128688
0.000118871
0.000109824
0.000101484
9.37914e-05
8.66945e-05
8.01446e-05
7.40979e-05
6.85151e-05
6.33585e-05
5.85943e-05
5.41927e-05
5.01252e-05
4.63658e-05
4.28909e-05
3.96777e-05
3.67069e-05
3.39603e-05
3.14204e-05
2.90712e-05
2.68985e-05
2.48892e-05
2.30309e-05
2.13122e-05
1.97227e-05
1.82526e-05
1.68924e-05
1.56338e-05
1.44689e-05
1.33896e-05
1.23882e-05
1.1458e-05
1.05925e-05
9.785e-06
9.02978e-06
8.32147e-06
7.65502e-06
7.02669e-06
6.43303e-06
5.87099e-06
5.33867e-06
4.83462e-06
4.35806e-06
3.90847e-06
3.48608e-06
3.09101e-06
2.7233e-06
2.38338e-06
2.07147e-06
1.78729e-06
1.53081e-06
1.30071e-06
1.09553e-06
9.21648e-07
7.18068e-07
6.6152e-07
-8.84979e-08
-8.84979e-08
-0.0259715
0.0259715
0.03387
0.0318859
0.0277093
0.0232683
0.0192106
0.0157606
0.0129474
0.0107074
0.00894298
0.00755454
0.00645541
0.005576
0.00486303
0.00427676
0.00378788
0.00337489
0.00302191
0.00271715
0.00245169
0.00221874
0.00201302
0.00183037
0.00166745
0.00152154
0.00139042
0.00127225
0.00116545
0.0010687
0.00098089
0.000901028
0.000828272
0.000761897
0.000701258
0.000645788
0.000594993
0.000548433
0.000505712
0.000466483
0.000430436
0.000397287
0.000366785
0.000338705
0.000312841
0.000289006
0.000267033
0.00024677
0.000228076
0.000210825
0.0001949
0.000180198
0.00016662
0.000154078
0.000142492
0.000131786
0.000121892
0.000112747
0.000104293
9.6478e-05
8.92528e-05
8.25718e-05
7.63936e-05
7.06804e-05
6.53971e-05
6.0511e-05
5.59922e-05
5.18132e-05
4.79477e-05
4.43713e-05
4.10619e-05
3.79977e-05
3.5158e-05
3.25234e-05
3.00755e-05
2.77968e-05
2.56705e-05
2.36817e-05
2.18163e-05
2.00616e-05
1.84075e-05
1.68448e-05
1.53663e-05
1.39667e-05
1.26423e-05
1.1391e-05
1.02115e-05
9.10398e-06
8.06864e-06
7.10597e-06
6.21667e-06
5.40098e-06
4.65828e-06
3.98809e-06
3.38719e-06
2.85436e-06
2.38819e-06
1.91879e-06
1.62278e-06
-2.37718e-07
-2.37718e-07
-0.0142105
0.0142105
0.0209505
0.020866
0.0189119
0.0164968
0.0141327
0.0120299
0.0102539
0.008795
0.0076104
0.00664858
0.00586162
0.00520981
0.00466221
0.00419556
0.0037926
0.00344065
0.00313026
0.0028544
0.00260765
0.00238584
0.00218564
0.00200438
0.00183982
0.00169009
0.00155363
0.00142906
0.00131519
0.001211
0.00111555
0.00102804
0.000947736
0.000873999
0.000806243
0.000743943
0.000686632
0.000633884
0.00058531
0.000540562
0.000499325
0.000461307
0.000426247
0.000393906
0.000364063
0.000336519
0.000311091
0.000287612
0.000265929
0.000245899
0.000227395
0.000210298
0.000194498
0.000179894
0.000166397
0.000153919
0.000142383
0.000131717
0.000121854
0.000112734
0.000104299
9.64988e-05
8.92841e-05
8.26113e-05
7.64396e-05
7.07312e-05
6.54512e-05
6.05674e-05
5.60495e-05
5.18694e-05
4.8001e-05
4.44192e-05
4.11001e-05
3.80213e-05
3.51617e-05
3.25009e-05
3.00198e-05
2.77009e-05
2.55278e-05
2.34861e-05
2.15633e-05
1.97486e-05
1.80331e-05
1.64103e-05
1.48753e-05
1.34249e-05
1.20573e-05
1.07722e-05
9.56915e-06
8.44881e-06
7.4117e-06
6.45804e-06
5.58735e-06
4.79896e-06
4.09012e-06
3.45921e-06
2.90298e-06
2.35991e-06
1.96731e-06
-2.68212e-07
-2.68212e-07
-0.00447517
0.00447517
0.00693974
0.00706182
0.0065081
0.00576929
0.00502379
0.0043476
0.00376775
0.00328503
0.00288795
0.00256119
0.00228998
0.00206189
0.00186719
0.00169854
0.00155053
0.00141918
0.00130159
0.00119556
0.00109945
0.00101197
0.00093211
0.000859033
0.000792037
0.000730536
0.000674027
0.000622056
0.000574221
0.000530175
0.000489601
0.000452203
0.000417723
0.000385928
0.000356595
0.000329529
0.000304552
0.000281495
0.000260205
0.000240547
0.000222392
0.000205621
0.000190128
0.000175814
0.000162586
0.000150362
0.000139064
0.000128621
0.000118968
0.000110043
0.000101792
9.4163e-05
8.71083e-05
8.05847e-05
7.45521e-05
6.8973e-05
6.38131e-05
5.90403e-05
5.46257e-05
5.05426e-05
4.67656e-05
4.32717e-05
4.00394e-05
3.70496e-05
3.42839e-05
3.17253e-05
2.93586e-05
2.71693e-05
2.51437e-05
2.32694e-05
2.15349e-05
1.99288e-05
1.84404e-05
1.70599e-05
1.57779e-05
1.45852e-05
1.34733e-05
1.24346e-05
1.14615e-05
1.05477e-05
9.68767e-06
8.87624e-06
8.10952e-06
7.38447e-06
6.69879e-06
6.05084e-06
5.43982e-06
4.86539e-06
4.32722e-06
3.82562e-06
3.36074e-06
2.93268e-06
2.54123e-06
2.18614e-06
1.86638e-06
1.5813e-06
1.32925e-06
1.08607e-06
9.00173e-07
-1.16879e-07
-1.16879e-07
0.00447522
-0.00447522
-0.0069397
-0.00706181
-0.00650815
-0.00576929
-0.00502377
-0.0043476
-0.00376776
-0.00328503
-0.00288794
-0.00256118
-0.00228997
-0.00206188
-0.00186718
-0.00169853
-0.00155052
-0.00141917
-0.00130157
-0.00119555
-0.00109944
-0.00101196
-0.000932101
-0.000859018
-0.000792027
-0.000730532
-0.000674018
-0.000622044
-0.000574215
-0.000530169
-0.000489591
-0.000452195
-0.000417718
-0.00038592
-0.000356589
-0.000329525
-0.000304546
-0.000281488
-0.000260201
-0.000240543
-0.000222387
-0.000205618
-0.000190125
-0.00017581
-0.000162583
-0.00015036
-0.000139061
-0.000128618
-0.000118965
-0.000110042
-0.00010179
-9.41609e-05
-8.71071e-05
-8.05839e-05
-7.45512e-05
-6.8972e-05
-6.38118e-05
-5.90394e-05
-5.46249e-05
-5.05413e-05
-4.67639e-05
-4.32697e-05
-4.00373e-05
-3.70469e-05
-3.42806e-05
-3.17215e-05
-2.9354e-05
-2.71638e-05
-2.51376e-05
-2.32627e-05
-2.15272e-05
-1.99202e-05
-1.84313e-05
-1.70504e-05
-1.57678e-05
-1.45749e-05
-1.34631e-05
-1.24245e-05
-1.14521e-05
-1.05391e-05
-9.67984e-06
-8.86975e-06
-8.10462e-06
-7.38132e-06
-6.69753e-06
-6.05176e-06
-5.44289e-06
-4.87051e-06
-4.33466e-06
-3.83525e-06
-3.37247e-06
-2.94632e-06
-2.55668e-06
-2.2031e-06
-1.88445e-06
-1.59974e-06
-1.3474e-06
-1.10177e-06
-9.13441e-07
1.19219e-07
1.19219e-07
0.0142106
-0.0142106
-0.0209505
-0.0208659
-0.0189119
-0.0164968
-0.0141327
-0.0120299
-0.0102539
-0.008795
-0.0076104
-0.00664857
-0.00586161
-0.0052098
-0.00466221
-0.00419555
-0.0037926
-0.00344064
-0.00313026
-0.00285439
-0.00260764
-0.00238583
-0.00218564
-0.00200437
-0.00183981
-0.00169009
-0.00155362
-0.00142905
-0.00131519
-0.00121099
-0.00111554
-0.00102803
-0.000947733
-0.000873994
-0.000806239
-0.000743941
-0.000686629
-0.00063388
-0.000585308
-0.00054056
-0.000499322
-0.000461305
-0.000426245
-0.000393903
-0.000364061
-0.000336518
-0.00031109
-0.000287611
-0.000265928
-0.000245899
-0.000227395
-0.000210297
-0.000194497
-0.000179895
-0.000166397
-0.000153919
-0.000142383
-0.000131717
-0.000121854
-0.000112733
-0.000104299
-9.64978e-05
-8.9283e-05
-8.26098e-05
-7.64376e-05
-7.07287e-05
-6.5448e-05
-6.05635e-05
-5.60452e-05
-5.18647e-05
-4.79954e-05
-4.44129e-05
-4.10934e-05
-3.80143e-05
-3.51543e-05
-3.24933e-05
-3.00121e-05
-2.76934e-05
-2.55208e-05
-2.34797e-05
-2.15576e-05
-1.97438e-05
-1.80295e-05
-1.64081e-05
-1.48745e-05
-1.34258e-05
-1.20599e-05
-1.07762e-05
-9.57494e-06
-8.45631e-06
-7.42081e-06
-6.46861e-06
-5.59927e-06
-4.81203e-06
-4.104e-06
-3.47337e-06
-2.91679e-06
-2.37153e-06
-1.97703e-06
2.70502e-07
2.70502e-07
0.0259716
-0.0259716
-0.03387
-0.0318859
-0.0277093
-0.0232683
-0.0192106
-0.0157606
-0.0129474
-0.0107074
-0.00894298
-0.00755454
-0.0064554
-0.00557599
-0.00486303
-0.00427675
-0.00378787
-0.00337488
-0.00302191
-0.00271714
-0.00245169
-0.00221874
-0.00201302
-0.00183037
-0.00166744
-0.00152154
-0.00139042
-0.00127225
-0.00116545
-0.0010687
-0.000980888
-0.000901025
-0.000828272
-0.000761896
-0.000701257
-0.000645788
-0.000594992
-0.000548432
-0.000505712
-0.000466483
-0.000430435
-0.000397287
-0.000366785
-0.000338706
-0.000312842
-0.000289007
-0.000267034
-0.00024677
-0.000228077
-0.000210826
-0.000194901
-0.000180199
-0.000166621
-0.00015408
-0.000142493
-0.000131787
-0.000121893
-0.000112748
-0.000104294
-9.64792e-05
-8.92534e-05
-8.25722e-05
-7.6394e-05
-7.06806e-05
-6.5397e-05
-6.05106e-05
-5.59915e-05
-5.18119e-05
-4.79461e-05
-4.43696e-05
-4.10597e-05
-3.79951e-05
-3.51551e-05
-3.25203e-05
-3.00723e-05
-2.77934e-05
-2.56671e-05
-2.36784e-05
-2.18131e-05
-2.00589e-05
-1.84051e-05
-1.68428e-05
-1.53649e-05
-1.39659e-05
-1.26423e-05
-1.13918e-05
-1.02132e-05
-9.1064e-06
-8.07186e-06
-7.11009e-06
-6.22161e-06
-5.40662e-06
-4.66457e-06
-3.99489e-06
-3.39438e-06
-2.86156e-06
-2.395e-06
-1.9241e-06
-1.62638e-06
2.39937e-07
2.39937e-07
0.0359858
-0.0359858
-0.0367618
-0.0309383
-0.0247936
-0.0193687
-0.0148922
-0.011356
-0.00865022
-0.00662565
-0.00513159
-0.00403562
-0.0032309
-0.00263583
-0.00219043
-0.00185164
-0.00158905
-0.00138139
-0.0012138
-0.00107593
-0.000960494
-0.000862343
-0.000777778
-0.000704112
-0.000639353
-0.000581994
-0.000530877
-0.000485096
-0.000443919
-0.000406754
-0.000373112
-0.000342584
-0.000314818
-0.00028952
-0.000266432
-0.000245329
-0.000226016
-0.000208323
-0.000192095
-0.000177197
-0.00016351
-0.000150926
-0.000139348
-0.00012869
-0.000118873
-0.000109826
-0.000101485
-9.37935e-05
-8.66969e-05
-8.01468e-05
-7.41e-05
-6.85171e-05
-6.33605e-05
-5.85966e-05
-5.41951e-05
-5.01274e-05
-4.63679e-05
-4.28928e-05
-3.96799e-05
-3.67092e-05
-3.39623e-05
-3.14222e-05
-2.9073e-05
-2.69003e-05
-2.4891e-05
-2.30326e-05
-2.13137e-05
-1.97241e-05
-1.82539e-05
-1.68937e-05
-1.5635e-05
-1.44699e-05
-1.33904e-05
-1.2389e-05
-1.14589e-05
-1.05932e-05
-9.78563e-06
-9.03039e-06
-8.322e-06
-7.65565e-06
-7.02735e-06
-6.43356e-06
-5.8715e-06
-5.33918e-06
-4.83519e-06
-4.35865e-06
-3.90913e-06
-3.48672e-06
-3.09156e-06
-2.72395e-06
-2.3841e-06
-2.07222e-06
-1.788e-06
-1.53155e-06
-1.30136e-06
-1.09607e-06
-9.21885e-07
-7.17669e-07
-6.59848e-07
9.06592e-08
9.06592e-08
0
0
0
0
0
0
0
0
0
0
0
0
0
0
0
0
0
0
0
0
0
0
0
0
0
0
0
0
0
0
0
0
0
0
0
0
0
0
0
0
0
0
0
0
0
0
0
0
0
0
0
0
0
0
0
0
0
0
0
0
0
0
0
0
0
0
0
0
0
0
0
0
0
0
0
0
0
0
0
0
0
0
0
0
0
0
0
0
0
0
0
0
0
0
0
0
0
0
0
0
0
0
0
0
0
0
0
0
0
0
0
0
0
0
0
0
0
0
0
0
0
0
0
0
0
0
0
0
0
0
0
0
0
0
0
0
0
0
0
0
0
0
0
0
0
0
0
0
0
0
0
0
0
0
0
0
0
0
0
0
0
0
0
0
0
0
0
0
0
0
0
0
0
0
0
0
0
0
0
0
0
0
0
0
0
0
0
0
0
0
0
0
0
0
0
0
0
0
0
0
0
0
