# vtk DataFile Version 2.0
FlowField
ASCII
DATASET STRUCTURED_GRID
DIMENSIONS 102 1 12 
POINTS 1224 double
0 0 0
0.4 0 0
0.8 0 0
1.2 0 0
1.6 0 0
2 0 0
2.4 0 0
2.8 0 0
3.2 0 0
3.6 0 0
4 0 0
4.4 0 0
4.8 0 0
5.2 0 0
5.6 0 0
6 0 0
6.4 0 0
6.8 0 0
7.2 0 0
7.6 0 0
8 0 0
8.4 0 0
8.8 0 0
9.2 0 0
9.6 0 0
10 0 0
10.4 0 0
10.8 0 0
11.2 0 0
11.6 0 0
12 0 0
12.4 0 0
12.8 0 0
13.2 0 0
13.6 0 0
14 0 0
14.4 0 0
14.8 0 0
15.2 0 0
15.6 0 0
16 0 0
16.4 0 0
16.8 0 0
17.2 0 0
17.6 0 0
18 0 0
18.4 0 0
18.8 0 0
19.2 0 0
19.6 0 0
20 0 0
20.4 0 0
20.8 0 0
21.2 0 0
21.6 0 0
22 0 0
22.4 0 0
22.8 0 0
23.2 0 0
23.6 0 0
24 0 0
24.4 0 0
24.8 0 0
25.2 0 0
25.6 0 0
26 0 0
26.4 0 0
26.8 0 0
27.2 0 0
27.6 0 0
28 0 0
28.4 0 0
28.8 0 0
29.2 0 0
29.6 0 0
30 0 0
30.4 0 0
30.8 0 0
31.2 0 0
31.6 0 0
32 0 0
32.4 0 0
32.8 0 0
33.2 0 0
33.6 0 0
34 0 0
34.4 0 0
34.8 0 0
35.2 0 0
35.6 0 0
36 0 0
36.4 0 0
36.8 0 0
37.2 0 0
37.6 0 0
38 0 0
38.4 0 0
38.8 0 0
39.2 0 0
39.6 0 0
40 0 0
40.4 0 0
0 0.1 0
0.4 0.1 0
0.8 0.1 0
1.2 0.1 0
1.6 0.1 0
2 0.1 0
2.4 0.1 0
2.8 0.1 0
3.2 0.1 0
3.6 0.1 0
4 0.1 0
4.4 0.1 0
4.8 0.1 0
5.2 0.1 0
5.6 0.1 0
6 0.1 0
6.4 0.1 0
6.8 0.1 0
7.2 0.1 0
7.6 0.1 0
8 0.1 0
8.4 0.1 0
8.8 0.1 0
9.2 0.1 0
9.6 0.1 0
10 0.1 0
10.4 0.1 0
10.8 0.1 0
11.2 0.1 0
11.6 0.1 0
12 0.1 0
12.4 0.1 0
12.8 0.1 0
13.2 0.1 0
13.6 0.1 0
14 0.1 0
14.4 0.1 0
14.8 0.1 0
15.2 0.1 0
15.6 0.1 0
16 0.1 0
16.4 0.1 0
16.8 0.1 0
17.2 0.1 0
17.6 0.1 0
18 0.1 0
18.4 0.1 0
18.8 0.1 0
19.2 0.1 0
19.6 0.1 0
20 0.1 0
20.4 0.1 0
20.8 0.1 0
21.2 0.1 0
21.6 0.1 0
22 0.1 0
22.4 0.1 0
22.8 0.1 0
23.2 0.1 0
23.6 0.1 0
24 0.1 0
24.4 0.1 0
24.8 0.1 0
25.2 0.1 0
25.6 0.1 0
26 0.1 0
26.4 0.1 0
26.8 0.1 0
27.2 0.1 0
27.6 0.1 0
28 0.1 0
28.4 0.1 0
28.8 0.1 0
29.2 0.1 0
29.6 0.1 0
30 0.1 0
30.4 0.1 0
30.8 0.1 0
31.2 0.1 0
31.6 0.1 0
32 0.1 0
32.4 0.1 0
32.8 0.1 0
33.2 0.1 0
33.6 0.1 0
34 0.1 0
34.4 0.1 0
34.8 0.1 0
35.2 0.1 0
35.6 0.1 0
36 0.1 0
36.4 0.1 0
36.8 0.1 0
37.2 0.1 0
37.6 0.1 0
38 0.1 0
38.4 0.1 0
38.8 0.1 0
39.2 0.1 0
39.6 0.1 0
40 0.1 0
40.4 0.1 0
0 0.2 0
0.4 0.2 0
0.8 0.2 0
1.2 0.2 0
1.6 0.2 0
2 0.2 0
2.4 0.2 0
2.8 0.2 0
3.2 0.2 0
3.6 0.2 0
4 0.2 0
4.4 0.2 0
4.8 0.2 0
5.2 0.2 0
5.6 0.2 0
6 0.2 0
6.4 0.2 0
6.8 0.2 0
7.2 0.2 0
7.6 0.2 0
8 0.2 0
8.4 0.2 0
8.8 0.2 0
9.2 0.2 0
9.6 0.2 0
10 0.2 0
10.4 0.2 0
10.8 0.2 0
11.2 0.2 0
11.6 0.2 0
12 0.2 0
12.4 0.2 0
12.8 0.2 0
13.2 0.2 0
13.6 0.2 0
14 0.2 0
14.4 0.2 0
14.8 0.2 0
15.2 0.2 0
15.6 0.2 0
16 0.2 0
16.4 0.2 0
16.8 0.2 0
17.2 0.2 0
17.6 0.2 0
18 0.2 0
18.4 0.2 0
18.8 0.2 0
19.2 0.2 0
19.6 0.2 0
20 0.2 0
20.4 0.2 0
20.8 0.2 0
21.2 0.2 0
21.6 0.2 0
22 0.2 0
22.4 0.2 0
22.8 0.2 0
23.2 0.2 0
23.6 0.2 0
24 0.2 0
24.4 0.2 0
24.8 0.2 0
25.2 0.2 0
25.6 0.2 0
26 0.2 0
26.4 0.2 0
26.8 0.2 0
27.2 0.2 0
27.6 0.2 0
28 0.2 0
28.4 0.2 0
28.8 0.2 0
29.2 0.2 0
29.6 0.2 0
30 0.2 0
30.4 0.2 0
30.8 0.2 0
31.2 0.2 0
31.6 0.2 0
32 0.2 0
32.4 0.2 0
32.8 0.2 0
33.2 0.2 0
33.6 0.2 0
34 0.2 0
34.4 0.2 0
34.8 0.2 0
35.2 0.2 0
35.6 0.2 0
36 0.2 0
36.4 0.2 0
36.8 0.2 0
37.2 0.2 0
37.6 0.2 0
38 0.2 0
38.4 0.2 0
38.8 0.2 0
39.2 0.2 0
39.6 0.2 0
40 0.2 0
40.4 0.2 0
0 0.3 0
0.4 0.3 0
0.8 0.3 0
1.2 0.3 0
1.6 0.3 0
2 0.3 0
2.4 0.3 0
2.8 0.3 0
3.2 0.3 0
3.6 0.3 0
4 0.3 0
4.4 0.3 0
4.8 0.3 0
5.2 0.3 0
5.6 0.3 0
6 0.3 0
6.4 0.3 0
6.8 0.3 0
7.2 0.3 0
7.6 0.3 0
8 0.3 0
8.4 0.3 0
8.8 0.3 0
9.2 0.3 0
9.6 0.3 0
10 0.3 0
10.4 0.3 0
10.8 0.3 0
11.2 0.3 0
11.6 0.3 0
12 0.3 0
12.4 0.3 0
12.8 0.3 0
13.2 0.3 0
13.6 0.3 0
14 0.3 0
14.4 0.3 0
14.8 0.3 0
15.2 0.3 0
15.6 0.3 0
16 0.3 0
16.4 0.3 0
16.8 0.3 0
17.2 0.3 0
17.6 0.3 0
18 0.3 0
18.4 0.3 0
18.8 0.3 0
19.2 0.3 0
19.6 0.3 0
20 0.3 0
20.4 0.3 0
20.8 0.3 0
21.2 0.3 0
21.6 0.3 0
22 0.3 0
22.4 0.3 0
22.8 0.3 0
23.2 0.3 0
23.6 0.3 0
24 0.3 0
24.4 0.3 0
24.8 0.3 0
25.2 0.3 0
25.6 0.3 0
26 0.3 0
26.4 0.3 0
26.8 0.3 0
27.2 0.3 0
27.6 0.3 0
28 0.3 0
28.4 0.3 0
28.8 0.3 0
29.2 0.3 0
29.6 0.3 0
30 0.3 0
30.4 0.3 0
30.8 0.3 0
31.2 0.3 0
31.6 0.3 0
32 0.3 0
32.4 0.3 0
32.8 0.3 0
33.2 0.3 0
33.6 0.3 0
34 0.3 0
34.4 0.3 0
34.8 0.3 0
35.2 0.3 0
35.6 0.3 0
36 0.3 0
36.4 0.3 0
36.8 0.3 0
37.2 0.3 0
37.6 0.3 0
38 0.3 0
38.4 0.3 0
38.8 0.3 0
39.2 0.3 0
39.6 0.3 0
40 0.3 0
40.4 0.3 0
0 0.4 0
0.4 0.4 0
0.8 0.4 0
1.2 0.4 0
1.6 0.4 0
2 0.4 0
2.4 0.4 0
2.8 0.4 0
3.2 0.4 0
3.6 0.4 0
4 0.4 0
4.4 0.4 0
4.8 0.4 0
5.2 0.4 0
5.6 0.4 0
6 0.4 0
6.4 0.4 0
6.8 0.4 0
7.2 0.4 0
7.6 0.4 0
8 0.4 0
8.4 0.4 0
8.8 0.4 0
9.2 0.4 0
9.6 0.4 0
10 0.4 0
10.4 0.4 0
10.8 0.4 0
11.2 0.4 0
11.6 0.4 0
12 0.4 0
12.4 0.4 0
12.8 0.4 0
13.2 0.4 0
13.6 0.4 0
14 0.4 0
14.4 0.4 0
14.8 0.4 0
15.2 0.4 0
15.6 0.4 0
16 0.4 0
16.4 0.4 0
16.8 0.4 0
17.2 0.4 0
17.6 0.4 0
18 0.4 0
18.4 0.4 0
18.8 0.4 0
19.2 0.4 0
19.6 0.4 0
20 0.4 0
20.4 0.4 0
20.8 0.4 0
21.2 0.4 0
21.6 0.4 0
22 0.4 0
22.4 0.4 0
22.8 0.4 0
23.2 0.4 0
23.6 0.4 0
24 0.4 0
24.4 0.4 0
24.8 0.4 0
25.2 0.4 0
25.6 0.4 0
26 0.4 0
26.4 0.4 0
26.8 0.4 0
27.2 0.4 0
27.6 0.4 0
28 0.4 0
28.4 0.4 0
28.8 0.4 0
29.2 0.4 0
29.6 0.4 0
30 0.4 0
30.4 0.4 0
30.8 0.4 0
31.2 0.4 0
31.6 0.4 0
32 0.4 0
32.4 0.4 0
32.8 0.4 0
33.2 0.4 0
33.6 0.4 0
34 0.4 0
34.4 0.4 0
34.8 0.4 0
35.2 0.4 0
35.6 0.4 0
36 0.4 0
36.4 0.4 0
36.8 0.4 0
37.2 0.4 0
37.6 0.4 0
38 0.4 0
38.4 0.4 0
38.8 0.4 0
39.2 0.4 0
39.6 0.4 0
40 0.4 0
40.4 0.4 0
0 0.5 0
0.4 0.5 0
0.8 0.5 0
1.2 0.5 0
1.6 0.5 0
2 0.5 0
2.4 0.5 0
2.8 0.5 0
3.2 0.5 0
3.6 0.5 0
4 0.5 0
4.4 0.5 0
4.8 0.5 0
5.2 0.5 0
5.6 0.5 0
6 0.5 0
6.4 0.5 0
6.8 0.5 0
7.2 0.5 0
7.6 0.5 0
8 0.5 0
8.4 0.5 0
8.8 0.5 0
9.2 0.5 0
9.6 0.5 0
10 0.5 0
10.4 0.5 0
10.8 0.5 0
11.2 0.5 0
11.6 0.5 0
12 0.5 0
12.4 0.5 0
12.8 0.5 0
13.2 0.5 0
13.6 0.5 0
14 0.5 0
14.4 0.5 0
14.8 0.5 0
15.2 0.5 0
15.6 0.5 0
16 0.5 0
16.4 0.5 0
16.8 0.5 0
17.2 0.5 0
17.6 0.5 0
18 0.5 0
18.4 0.5 0
18.8 0.5 0
19.2 0.5 0
19.6 0.5 0
20 0.5 0
20.4 0.5 0
20.8 0.5 0
21.2 0.5 0
21.6 0.5 0
22 0.5 0
22.4 0.5 0
22.8 0.5 0
23.2 0.5 0
23.6 0.5 0
24 0.5 0
24.4 0.5 0
24.8 0.5 0
25.2 0.5 0
25.6 0.5 0
26 0.5 0
26.4 0.5 0
26.8 0.5 0
27.2 0.5 0
27.6 0.5 0
28 0.5 0
28.4 0.5 0
28.8 0.5 0
29.2 0.5 0
29.6 0.5 0
30 0.5 0
30.4 0.5 0
30.8 0.5 0
31.2 0.5 0
31.6 0.5 0
32 0.5 0
32.4 0.5 0
32.8 0.5 0
33.2 0.5 0
33.6 0.5 0
34 0.5 0
34.4 0.5 0
34.8 0.5 0
35.2 0.5 0
35.6 0.5 0
36 0.5 0
36.4 0.5 0
36.8 0.5 0
37.2 0.5 0
37.6 0.5 0
38 0.5 0
38.4 0.5 0
38.8 0.5 0
39.2 0.5 0
39.6 0.5 0
40 0.5 0
40.4 0.5 0
0 0.6 0
0.4 0.6 0
0.8 0.6 0
1.2 0.6 0
1.6 0.6 0
2 0.6 0
2.4 0.6 0
2.8 0.6 0
3.2 0.6 0
3.6 0.6 0
4 0.6 0
4.4 0.6 0
4.8 0.6 0
5.2 0.6 0
5.6 0.6 0
6 0.6 0
6.4 0.6 0
6.8 0.6 0
7.2 0.6 0
7.6 0.6 0
8 0.6 0
8.4 0.6 0
8.8 0.6 0
9.2 0.6 0
9.6 0.6 0
10 0.6 0
10.4 0.6 0
10.8 0.6 0
11.2 0.6 0
11.6 0.6 0
12 0.6 0
12.4 0.6 0
12.8 0.6 0
13.2 0.6 0
13.6 0.6 0
14 0.6 0
14.4 0.6 0
14.8 0.6 0
15.2 0.6 0
15.6 0.6 0
16 0.6 0
16.4 0.6 0
16.8 0.6 0
17.2 0.6 0
17.6 0.6 0
18 0.6 0
18.4 0.6 0
18.8 0.6 0
19.2 0.6 0
19.6 0.6 0
20 0.6 0
20.4 0.6 0
20.8 0.6 0
21.2 0.6 0
21.6 0.6 0
22 0.6 0
22.4 0.6 0
22.8 0.6 0
23.2 0.6 0
23.6 0.6 0
24 0.6 0
24.4 0.6 0
24.8 0.6 0
25.2 0.6 0
25.6 0.6 0
26 0.6 0
26.4 0.6 0
26.8 0.6 0
27.2 0.6 0
27.6 0.6 0
28 0.6 0
28.4 0.6 0
28.8 0.6 0
29.2 0.6 0
29.6 0.6 0
30 0.6 0
30.4 0.6 0
30.8 0.6 0
31.2 0.6 0
31.6 0.6 0
32 0.6 0
32.4 0.6 0
32.8 0.6 0
33.2 0.6 0
33.6 0.6 0
34 0.6 0
34.4 0.6 0
34.8 0.6 0
35.2 0.6 0
35.6 0.6 0
36 0.6 0
36.4 0.6 0
36.8 0.6 0
37.2 0.6 0
37.6 0.6 0
38 0.6 0
38.4 0.6 0
38.8 0.6 0
39.2 0.6 0
39.6 0.6 0
40 0.6 0
40.4 0.6 0
0 0.7 0
0.4 0.7 0
0.8 0.7 0
1.2 0.7 0
1.6 0.7 0
2 0.7 0
2.4 0.7 0
2.8 0.7 0
3.2 0.7 0
3.6 0.7 0
4 0.7 0
4.4 0.7 0
4.8 0.7 0
5.2 0.7 0
5.6 0.7 0
6 0.7 0
6.4 0.7 0
6.8 0.7 0
7.2 0.7 0
7.6 0.7 0
8 0.7 0
8.4 0.7 0
8.8 0.7 0
9.2 0.7 0
9.6 0.7 0
10 0.7 0
10.4 0.7 0
10.8 0.7 0
11.2 0.7 0
11.6 0.7 0
12 0.7 0
12.4 0.7 0
12.8 0.7 0
13.2 0.7 0
13.6 0.7 0
14 0.7 0
14.4 0.7 0
14.8 0.7 0
15.2 0.7 0
15.6 0.7 0
16 0.7 0
16.4 0.7 0
16.8 0.7 0
17.2 0.7 0
17.6 0.7 0
18 0.7 0
18.4 0.7 0
18.8 0.7 0
19.2 0.7 0
19.6 0.7 0
20 0.7 0
20.4 0.7 0
20.8 0.7 0
21.2 0.7 0
21.6 0.7 0
22 0.7 0
22.4 0.7 0
22.8 0.7 0
23.2 0.7 0
23.6 0.7 0
24 0.7 0
24.4 0.7 0
24.8 0.7 0
25.2 0.7 0
25.6 0.7 0
26 0.7 0
26.4 0.7 0
26.8 0.7 0
27.2 0.7 0
27.6 0.7 0
28 0.7 0
28.4 0.7 0
28.8 0.7 0
29.2 0.7 0
29.6 0.7 0
30 0.7 0
30.4 0.7 0
30.8 0.7 0
31.2 0.7 0
31.6 0.7 0
32 0.7 0
32.4 0.7 0
32.8 0.7 0
33.2 0.7 0
33.6 0.7 0
34 0.7 0
34.4 0.7 0
34.8 0.7 0
35.2 0.7 0
35.6 0.7 0
36 0.7 0
36.4 0.7 0
36.8 0.7 0
37.2 0.7 0
37.6 0.7 0
38 0.7 0
38.4 0.7 0
38.8 0.7 0
39.2 0.7 0
39.6 0.7 0
40 0.7 0
40.4 0.7 0
0 0.8 0
0.4 0.8 0
0.8 0.8 0
1.2 0.8 0
1.6 0.8 0
2 0.8 0
2.4 0.8 0
2.8 0.8 0
3.2 0.8 0
3.6 0.8 0
4 0.8 0
4.4 0.8 0
4.8 0.8 0
5.2 0.8 0
5.6 0.8 0
6 0.8 0
6.4 0.8 0
6.8 0.8 0
7.2 0.8 0
7.6 0.8 0
8 0.8 0
8.4 0.8 0
8.8 0.8 0
9.2 0.8 0
9.6 0.8 0
10 0.8 0
10.4 0.8 0
10.8 0.8 0
11.2 0.8 0
11.6 0.8 0
12 0.8 0
12.4 0.8 0
12.8 0.8 0
13.2 0.8 0
13.6 0.8 0
14 0.8 0
14.4 0.8 0
14.8 0.8 0
15.2 0.8 0
15.6 0.8 0
16 0.8 0
16.4 0.8 0
16.8 0.8 0
17.2 0.8 0
17.6 0.8 0
18 0.8 0
18.4 0.8 0
18.8 0.8 0
19.2 0.8 0
19.6 0.8 0
20 0.8 0
20.4 0.8 0
20.8 0.8 0
21.2 0.8 0
21.6 0.8 0
22 0.8 0
22.4 0.8 0
22.8 0.8 0
23.2 0.8 0
23.6 0.8 0
24 0.8 0
24.4 0.8 0
24.8 0.8 0
25.2 0.8 0
25.6 0.8 0
26 0.8 0
26.4 0.8 0
26.8 0.8 0
27.2 0.8 0
27.6 0.8 0
28 0.8 0
28.4 0.8 0
28.8 0.8 0
29.2 0.8 0
29.6 0.8 0
30 0.8 0
30.4 0.8 0
30.8 0.8 0
31.2 0.8 0
31.6 0.8 0
32 0.8 0
32.4 0.8 0
32.8 0.8 0
33.2 0.8 0
33.6 0.8 0
34 0.8 0
34.4 0.8 0
34.8 0.8 0
35.2 0.8 0
35.6 0.8 0
36 0.8 0
36.4 0.8 0
36.8 0.8 0
37.2 0.8 0
37.6 0.8 0
38 0.8 0
38.4 0.8 0
38.8 0.8 0
39.2 0.8 0
39.6 0.8 0
40 0.8 0
40.4 0.8 0
0 0.9 0
0.4 0.9 0
0.8 0.9 0
1.2 0.9 0
1.6 0.9 0
2 0.9 0
2.4 0.9 0
2.8 0.9 0
3.2 0.9 0
3.6 0.9 0
4 0.9 0
4.4 0.9 0
4.8 0.9 0
5.2 0.9 0
5.6 0.9 0
6 0.9 0
6.4 0.9 0
6.8 0.9 0
7.2 0.9 0
7.6 0.9 0
8 0.9 0
8.4 0.9 0
8.8 0.9 0
9.2 0.9 0
9.6 0.9 0
10 0.9 0
10.4 0.9 0
10.8 0.9 0
11.2 0.9 0
11.6 0.9 0
12 0.9 0
12.4 0.9 0
12.8 0.9 0
13.2 0.9 0
13.6 0.9 0
14 0.9 0
14.4 0.9 0
14.8 0.9 0
15.2 0.9 0
15.6 0.9 0
16 0.9 0
16.4 0.9 0
16.8 0.9 0
17.2 0.9 0
17.6 0.9 0
18 0.9 0
18.4 0.9 0
18.8 0.9 0
19.2 0.9 0
19.6 0.9 0
20 0.9 0
20.4 0.9 0
20.8 0.9 0
21.2 0.9 0
21.6 0.9 0
22 0.9 0
22.4 0.9 0
22.8 0.9 0
23.2 0.9 0
23.6 0.9 0
24 0.9 0
24.4 0.9 0
24.8 0.9 0
25.2 0.9 0
25.6 0.9 0
26 0.9 0
26.4 0.9 0
26.8 0.9 0
27.2 0.9 0
27.6 0.9 0
28 0.9 0
28.4 0.9 0
28.8 0.9 0
29.2 0.9 0
29.6 0.9 0
30 0.9 0
30.4 0.9 0
30.8 0.9 0
31.2 0.9 0
31.6 0.9 0
32 0.9 0
32.4 0.9 0
32.8 0.9 0
33.2 0.9 0
33.6 0.9 0
34 0.9 0
34.4 0.9 0
34.8 0.9 0
35.2 0.9 0
35.6 0.9 0
36 0.9 0
36.4 0.9 0
36.8 0.9 0
37.2 0.9 0
37.6 0.9 0
38 0.9 0
38.4 0.9 0
38.8 0.9 0
39.2 0.9 0
39.6 0.9 0
40 0.9 0
40.4 0.9 0
0 1 0
0.4 1 0
0.8 1 0
1.2 1 0
1.6 1 0
2 1 0
2.4 1 0
2.8 1 0
3.2 1 0
3.6 1 0
4 1 0
4.4 1 0
4.8 1 0
5.2 1 0
5.6 1 0
6 1 0
6.4 1 0
6.8 1 0
7.2 1 0
7.6 1 0
8 1 0
8.4 1 0
8.8 1 0
9.2 1 0
9.6 1 0
10 1 0
10.4 1 0
10.8 1 0
11.2 1 0
11.6 1 0
12 1 0
12.4 1 0
12.8 1 0
13.2 1 0
13.6 1 0
14 1 0
14.4 1 0
14.8 1 0
15.2 1 0
15.6 1 0
16 1 0
16.4 1 0
16.8 1 0
17.2 1 0
17.6 1 0
18 1 0
18.4 1 0
18.8 1 0
19.2 1 0
19.6 1 0
20 1 0
20.4 1 0
20.8 1 0
21.2 1 0
21.6 1 0
22 1 0
22.4 1 0
22.8 1 0
23.2 1 0
23.6 1 0
24 1 0
24.4 1 0
24.8 1 0
25.2 1 0
25.6 1 0
26 1 0
26.4 1 0
26.8 1 0
27.2 1 0
27.6 1 0
28 1 0
28.4 1 0
28.8 1 0
29.2 1 0
29.6 1 0
30 1 0
30.4 1 0
30.8 1 0
31.2 1 0
31.6 1 0
32 1 0
32.4 1 0
32.8 1 0
33.2 1 0
33.6 1 0
34 1 0
34.4 1 0
34.8 1 0
35.2 1 0
35.6 1 0
36 1 0
36.4 1 0
36.8 1 0
37.2 1 0
37.6 1 0
38 1 0
38.4 1 0
38.8 1 0
39.2 1 0
39.6 1 0
40 1 0
40.4 1 0
0 1.1 0
0.4 1.1 0
0.8 1.1 0
1.2 1.1 0
1.6 1.1 0
2 1.1 0
2.4 1.1 0
2.8 1.1 0
3.2 1.1 0
3.6 1.1 0
4 1.1 0
4.4 1.1 0
4.8 1.1 0
5.2 1.1 0
5.6 1.1 0
6 1.1 0
6.4 1.1 0
6.8 1.1 0
7.2 1.1 0
7.6 1.1 0
8 1.1 0
8.4 1.1 0
8.8 1.1 0
9.2 1.1 0
9.6 1.1 0
10 1.1 0
10.4 1.1 0
10.8 1.1 0
11.2 1.1 0
11.6 1.1 0
12 1.1 0
12.4 1.1 0
12.8 1.1 0
13.2 1.1 0
13.6 1.1 0
14 1.1 0
14.4 1.1 0
14.8 1.1 0
15.2 1.1 0
15.6 1.1 0
16 1.1 0
16.4 1.1 0
16.8 1.1 0
17.2 1.1 0
17.6 1.1 0
18 1.1 0
18.4 1.1 0
18.8 1.1 0
19.2 1.1 0
19.6 1.1 0
20 1.1 0
20.4 1.1 0
20.8 1.1 0
21.2 1.1 0
21.6 1.1 0
22 1.1 0
22.4 1.1 0
22.8 1.1 0
23.2 1.1 0
23.6 1.1 0
24 1.1 0
24.4 1.1 0
24.8 1.1 0
25.2 1.1 0
25.6 1.1 0
26 1.1 0
26.4 1.1 0
26.8 1.1 0
27.2 1.1 0
27.6 1.1 0
28 1.1 0
28.4 1.1 0
28.8 1.1 0
29.2 1.1 0
29.6 1.1 0
30 1.1 0
30.4 1.1 0
30.8 1.1 0
31.2 1.1 0
31.6 1.1 0
32 1.1 0
32.4 1.1 0
32.8 1.1 0
33.2 1.1 0
33.6 1.1 0
34 1.1 0
34.4 1.1 0
34.8 1.1 0
35.2 1.1 0
35.6 1.1 0
36 1.1 0
36.4 1.1 0
36.8 1.1 0
37.2 1.1 0
37.6 1.1 0
38 1.1 0
38.4 1.1 0
38.8 1.1 0
39.2 1.1 0
39.6 1.1 0
40 1.1 0
40.4 1.1 0

POINT_DATA 1224

SCALARS phi double
LOOKUP_TABLE default
0.911619
1.08838
1.18693
1.21817
1.20207
1.16371
1.12152
1.08384
1.05233
1.02601
1.00345
0.983493
0.965362
0.948567
0.932798
0.917857
0.903609
0.88996
0.876842
0.864205
0.852011
0.840231
0.828842
0.817823
0.807158
0.796829
0.786819
0.777108
0.76767
0.758476
0.74949
0.740672
0.731973
0.72334
0.71472
0.706058
0.697296
0.68838
0.679258
0.669885
0.660222
0.650235
0.639901
0.629201
0.618128
0.606679
0.594859
0.582677
0.570151
0.557298
0.544142
0.530707
0.51702
0.503107
0.488997
0.474716
0.460291
0.445749
0.431113
0.416409
0.40166
0.386888
0.372114
0.357362
0.34265
0.328002
0.313436
0.298976
0.284643
0.270458
0.256444
0.242625
0.229024
0.215665
0.202572
0.189769
0.17728
0.165129
0.153339
0.141933
0.130932
0.120356
0.110222
0.100549
0.091349
0.0826357
0.0744183
0.0667033
0.0594948
0.0527932
0.0465961
0.0408972
0.0356879
0.030953
0.0266833
0.0228365
0.0194516
0.0163047
0.0138078
0.0111302
0.00727309
0.00727309
0.911619
1.08838
1.18693
1.21817
1.20207
1.16371
1.12152
1.08384
1.05233
1.02601
1.00345
0.983493
0.965362
0.948567
0.932798
0.917857
0.903609
0.88996
0.876842
0.864205
0.852011
0.840231
0.828842
0.817823
0.807158
0.796829
0.786819
0.777108
0.76767
0.758476
0.74949
0.740672
0.731973
0.72334
0.71472
0.706058
0.697296
0.68838
0.679258
0.669885
0.660222
0.650235
0.639901
0.629201
0.618128
0.606679
0.594859
0.582677
0.570151
0.557298
0.544142
0.530707
0.51702
0.503107
0.488997
0.474716
0.460291
0.445749
0.431113
0.416409
0.40166
0.386888
0.372114
0.357362
0.34265
0.328002
0.313436
0.298976
0.284643
0.270458
0.256444
0.242625
0.229024
0.215665
0.202572
0.189769
0.17728
0.165129
0.153339
0.141933
0.130932
0.120356
0.110222
0.100549
0.091349
0.0826357
0.0744183
0.0667033
0.0594948
0.0527932
0.0465961
0.0408972
0.0356879
0.030953
0.0266833
0.0228365
0.0194516
0.0163047
0.0138078
0.0111302
0.00727309
0.00727309
1.00188
0.998125
1.02685
1.06105
1.08319
1.0888
1.08087
1.06447
1.04395
1.02217
1.00069
0.98021
0.960955
0.942918
0.925998
0.910073
0.895022
0.880742
0.867147
0.854167
0.841743
0.829829
0.818385
0.807379
0.796782
0.786569
0.776717
0.767204
0.758004
0.749092
0.740438
0.732009
0.723767
0.71567
0.707673
0.699727
0.691785
0.683795
0.675709
0.66748
0.659063
0.650421
0.64152
0.632331
0.622834
0.613013
0.60286
0.59237
0.581546
0.570393
0.558924
0.547151
0.535091
0.522761
0.510182
0.497374
0.484358
0.471155
0.457786
0.444271
0.430631
0.416886
0.403054
0.389155
0.375208
0.361231
0.347245
0.333268
0.31932
0.305422
0.291595
0.27786
0.26424
0.250759
0.237439
0.224307
0.211386
0.198701
0.186278
0.174142
0.162317
0.150827
0.139696
0.128944
0.118594
0.108663
0.0991698
0.0901293
0.0815546
0.0734568
0.0658441
0.0587217
0.0520933
0.0459546
0.0403126
0.0351262
0.0304816
0.0260886
0.0226348
0.0185002
0.0162977
0.0162977
1.01572
0.984281
0.963649
0.958795
0.96217
0.966524
0.967709
0.964361
0.956779
0.945954
0.932986
0.918808
0.904114
0.889375
0.874888
0.860824
0.847273
0.834272
0.821826
0.809921
0.798536
0.787645
0.777219
0.767231
0.757655
0.748466
0.739642
0.73116
0.722999
0.715137
0.70755
0.700216
0.693106
0.686192
0.679442
0.672821
0.666293
0.65982
0.653361
0.646878
0.64033
0.633678
0.626888
0.619924
0.612758
0.605363
0.597716
0.589801
0.581602
0.573112
0.564323
0.555234
0.545845
0.536159
0.526183
0.515923
0.50539
0.494592
0.483542
0.47225
0.460729
0.448992
0.437052
0.424921
0.412614
0.400144
0.387527
0.374778
0.361912
0.348948
0.335903
0.322797
0.30965
0.296484
0.283323
0.27019
0.25711
0.244111
0.231219
0.218463
0.205869
0.193468
0.181287
0.169356
0.157701
0.14635
0.135331
0.124668
0.114386
0.10451
0.0950604
0.086058
0.0775223
0.0694647
0.0619122
0.0548338
0.0483652
0.0421422
0.037294
0.0308729
0.0307936
0.0307936
1.02404
0.975965
0.919364
0.876597
0.848753
0.831753
0.821182
0.813715
0.807274
0.800757
0.793701
0.786012
0.777776
0.769148
0.760296
0.751368
0.742486
0.733739
0.725192
0.716889
0.708857
0.70111
0.693652
0.686484
0.6796
0.672992
0.666649
0.660562
0.654717
0.649103
0.643705
0.63851
0.633502
0.628665
0.62398
0.619426
0.61498
0.610619
0.606316
0.602044
0.597774
0.593476
0.589121
0.584678
0.580121
0.575419
0.570548
0.565482
0.560201
0.554682
0.548909
0.542867
0.536542
0.529923
0.523002
0.515772
0.508228
0.500367
0.492186
0.483685
0.474865
0.465728
0.456277
0.446517
0.436452
0.42609
0.41544
0.40451
0.393312
0.381859
0.370166
0.358248
0.346126
0.333818
0.321346
0.308737
0.296014
0.283206
0.270342
0.257453
0.24457
0.231726
0.218956
0.206292
0.19377
0.181423
0.169287
0.157396
0.145784
0.134485
0.123532
0.112958
0.102795
0.0930707
0.0838277
0.075043
0.0669129
0.0589251
0.0529203
0.0437699
0.0469242
0.0469242
1.11553
0.884471
0.754942
0.682423
0.641439
0.61841
0.605773
0.599099
0.595721
0.594024
0.593049
0.592248
0.591331
0.590167
0.588716
0.586989
0.585024
0.582868
0.580569
0.578172
0.575716
0.573234
0.570753
0.568293
0.565872
0.563501
0.561189
0.558943
0.556767
0.554661
0.552627
0.550664
0.548769
0.546938
0.545166
0.543446
0.541768
0.540121
0.538493
0.536871
0.535237
0.533574
0.531864
0.530086
0.528219
0.52624
0.524126
0.521856
0.519405
0.51675
0.513869
0.510741
0.507343
0.503657
0.499663
0.495343
0.49068
0.485661
0.480271
0.474498
0.468332
0.461765
0.45479
0.447402
0.4396
0.431384
0.422754
0.413717
0.404279
0.39445
0.384243
0.373672
0.362755
0.351513
0.339969
0.328149
0.316081
0.303795
0.291323
0.278701
0.265963
0.253148
0.240294
0.227439
0.214624
0.201888
0.189273
0.176819
0.164566
0.152555
0.140827
0.129421
0.11838
0.107737
0.097548
0.0877865
0.0787142
0.0696459
0.0630941
0.0519776
0.0579436
0.0579436
-0.101677
0.101677
0.204149
0.258515
0.29004
0.310502
0.325452
0.337536
0.348013
0.357476
0.366192
0.374278
0.381784
0.388735
0.395152
0.401057
0.406477
0.411445
0.415995
0.420165
0.423989
0.427504
0.430742
0.433734
0.436507
0.439087
0.441495
0.443752
0.445874
0.447876
0.449771
0.451569
0.453279
0.454909
0.456463
0.457946
0.459359
0.460703
0.461976
0.463175
0.464294
0.465326
0.46626
0.467086
0.467788
0.468351
0.468758
0.46899
0.469024
0.468839
0.468411
0.467717
0.466731
0.465429
0.463785
0.461776
0.459378
0.456568
0.453326
0.449633
0.445472
0.440828
0.435689
0.430046
0.423894
0.417229
0.410052
0.402367
0.394181
0.385506
0.376356
0.366749
0.356707
0.346254
0.335417
0.324228
0.31272
0.300928
0.28889
0.276647
0.264238
0.251706
0.239095
0.226448
0.213809
0.201222
0.188731
0.17638
0.164213
0.152273
0.140603
0.129245
0.118241
0.107628
0.0974641
0.087722
0.0786648
0.0696083
0.0630656
0.0519566
0.0579259
0.0579259
-0.00930645
0.00930645
0.0399923
0.0692732
0.0943627
0.115578
0.133846
0.150008
0.164679
0.178277
0.191067
0.203216
0.214819
0.225933
0.236591
0.246812
0.25661
0.265995
0.274979
0.283574
0.291793
0.299651
0.307164
0.314347
0.321218
0.327793
0.334086
0.340114
0.345892
0.351432
0.356749
0.361852
0.366755
0.371466
0.375994
0.380346
0.384528
0.388546
0.3924
0.396092
0.399622
0.402985
0.406175
0.409185
0.412002
0.414615
0.417005
0.419155
0.421044
0.422648
0.423943
0.424901
0.425497
0.425702
0.425489
0.424829
0.423698
0.422071
0.419925
0.41724
0.413999
0.410189
0.405799
0.400824
0.395262
0.389114
0.382387
0.375093
0.367245
0.358863
0.349971
0.340594
0.330764
0.320513
0.309879
0.2989
0.287617
0.276073
0.264314
0.252384
0.240329
0.228198
0.216035
0.203887
0.191801
0.17982
0.167989
0.156351
0.144947
0.133819
0.123005
0.112543
0.102472
0.0928194
0.0836337
0.0748943
0.0667997
0.0588394
0.0528556
0.0437222
0.0468861
0.0468861
-0.000483305
0.000483305
0.0062834
0.014825
0.024693
0.0352056
0.0460684
0.0571535
0.0683964
0.0797547
0.0911921
0.102673
0.114161
0.125618
0.137007
0.14829
0.159435
0.17041
0.181187
0.191744
0.202061
0.212124
0.221921
0.231445
0.240691
0.249657
0.258342
0.266748
0.274879
0.282739
0.290333
0.297667
0.304747
0.311578
0.318167
0.324518
0.330634
0.336519
0.342172
0.347592
0.352777
0.35772
0.362413
0.366844
0.370999
0.374861
0.37841
0.381622
0.384473
0.386936
0.388983
0.390583
0.39171
0.392332
0.392422
0.391955
0.390906
0.389256
0.386985
0.384082
0.380537
0.376346
0.37151
0.366033
0.359927
0.353207
0.345893
0.338009
0.329585
0.320654
0.311251
0.301418
0.291196
0.28063
0.269768
0.258656
0.247346
0.235885
0.224324
0.212712
0.201099
0.189531
0.178056
0.166717
0.155559
0.144621
0.133942
0.123559
0.113506
0.103816
0.0945161
0.0856337
0.0771936
0.0692116
0.0617187
0.0546867
0.0482541
0.0420589
0.0372317
0.0308272
0.0307591
0.0307591
4.08322e-05
-4.08322e-05
0.000817245
0.00283838
0.00606915
0.0105077
0.0161103
0.0227913
0.0304364
0.0389186
0.0481101
0.057889
0.0681419
0.0787647
0.0896628
0.100751
0.111952
0.123199
0.134432
0.145599
0.156657
0.167566
0.178296
0.188821
0.199121
0.209178
0.218982
0.228523
0.237795
0.246794
0.25552
0.263972
0.272149
0.280053
0.287686
0.295047
0.302136
0.308949
0.315483
0.32173
0.327681
0.333322
0.338639
0.343613
0.348222
0.35244
0.356242
0.359598
0.362478
0.36485
0.366683
0.367947
0.368612
0.368653
0.368045
0.366768
0.364807
0.362152
0.358795
0.354738
0.349986
0.344549
0.338446
0.331698
0.324333
0.316383
0.307885
0.298881
0.289415
0.279535
0.26929
0.258732
0.247916
0.236894
0.225721
0.214452
0.203139
0.191835
0.180591
0.169456
0.158476
0.147696
0.137157
0.126897
0.116952
0.107354
0.0981319
0.0893111
0.0809135
0.0729573
0.0654574
0.0584242
0.0518658
0.0457817
0.0401821
0.0350283
0.0304086
0.0260346
0.0225949
0.0184714
0.0162776
0.0162776
2.2059e-05
-2.2059e-05
0.000114971
0.000803975
0.00239726
0.00512891
0.00909723
0.0142977
0.0206594
0.0280718
0.0364036
0.0455167
0.0552757
0.0655533
0.0762328
0.087209
0.0983885
0.109689
0.121037
0.132371
0.143638
0.15479
0.16579
0.176606
0.187212
0.197588
0.207716
0.217586
0.227188
0.236516
0.245566
0.254334
0.26282
0.271019
0.278931
0.286554
0.293881
0.300906
0.307618
0.314005
0.320051
0.325737
0.331039
0.335934
0.340391
0.344382
0.347873
0.350831
0.353223
0.355015
0.356177
0.356679
0.356496
0.355606
0.353992
0.351642
0.348551
0.344717
0.340149
0.334859
0.328865
0.322193
0.314873
0.306943
0.298442
0.289416
0.279915
0.269991
0.259698
0.249094
0.238235
0.227181
0.21599
0.20472
0.193427
0.182167
0.170994
0.159959
0.149109
0.138491
0.128146
0.118113
0.108427
0.0991197
0.0902184
0.0817462
0.0737225
0.0661624
0.0590768
0.0524722
0.0463511
0.0407114
0.0355479
0.0308481
0.0266053
0.0227788
0.0194092
0.0162739
0.0137854
0.0111143
0.00726424
0.00726424
2.2059e-05
-2.2059e-05
0.000114971
0.000803975
0.00239726
0.00512891
0.00909723
0.0142977
0.0206594
0.0280718
0.0364036
0.0455167
0.0552757
0.0655533
0.0762328
0.087209
0.0983885
0.109689
0.121037
0.132371
0.143638
0.15479
0.16579
0.176606
0.187212
0.197588
0.207716
0.217586
0.227188
0.236516
0.245566
0.254334
0.26282
0.271019
0.278931
0.286554
0.293881
0.300906
0.307618
0.314005
0.320051
0.325737
0.331039
0.335934
0.340391
0.344382
0.347873
0.350831
0.353223
0.355015
0.356177
0.356679
0.356496
0.355606
0.353992
0.351642
0.348551
0.344717
0.340149
0.334859
0.328865
0.322193
0.314873
0.306943
0.298442
0.289416
0.279915
0.269991
0.259698
0.249094
0.238235
0.227181
0.21599
0.20472
0.193427
0.182167
0.170994
0.159959
0.149109
0.138491
0.128146
0.118113
0.108427
0.0991197
0.0902184
0.0817462
0.0737225
0.0661624
0.0590768
0.0524722
0.0463511
0.0407114
0.0355479
0.0308481
0.0266053
0.0227788
0.0194092
0.0162739
0.0137854
0.0111143
0.00726424
0.00726424
