# vtk DataFile Version 2.0
FlowField
ASCII
DATASET STRUCTURED_GRID
DIMENSIONS 102 13 1 
POINTS 1326 double
0 0 0
0.3 0 0
0.6 0 0
0.9 0 0
1.2 0 0
1.5 0 0
1.8 0 0
2.1 0 0
2.4 0 0
2.7 0 0
3 0 0
3.3 0 0
3.6 0 0
3.9 0 0
4.2 0 0
4.5 0 0
4.8 0 0
5.1 0 0
5.4 0 0
5.7 0 0
6 0 0
6.3 0 0
6.6 0 0
6.9 0 0
7.2 0 0
7.5 0 0
7.8 0 0
8.1 0 0
8.4 0 0
8.7 0 0
9 0 0
9.3 0 0
9.6 0 0
9.9 0 0
10.2 0 0
10.5 0 0
10.8 0 0
11.1 0 0
11.4 0 0
11.7 0 0
12 0 0
12.3 0 0
12.6 0 0
12.9 0 0
13.2 0 0
13.5 0 0
13.8 0 0
14.1 0 0
14.4 0 0
14.7 0 0
15 0 0
15.3 0 0
15.6 0 0
15.9 0 0
16.2 0 0
16.5 0 0
16.8 0 0
17.1 0 0
17.4 0 0
17.7 0 0
18 0 0
18.3 0 0
18.6 0 0
18.9 0 0
19.2 0 0
19.5 0 0
19.8 0 0
20.1 0 0
20.4 0 0
20.7 0 0
21 0 0
21.3 0 0
21.6 0 0
21.9 0 0
22.2 0 0
22.5 0 0
22.8 0 0
23.1 0 0
23.4 0 0
23.7 0 0
24 0 0
24.3 0 0
24.6 0 0
24.9 0 0
25.2 0 0
25.5 0 0
25.8 0 0
26.1 0 0
26.4 0 0
26.7 0 0
27 0 0
27.3 0 0
27.6 0 0
27.9 0 0
28.2 0 0
28.5 0 0
28.8 0 0
29.1 0 0
29.4 0 0
29.7 0 0
30 0 0
30.3 0 0
0 0.1 0
0.3 0.1 0
0.6 0.1 0
0.9 0.1 0
1.2 0.1 0
1.5 0.1 0
1.8 0.1 0
2.1 0.1 0
2.4 0.1 0
2.7 0.1 0
3 0.1 0
3.3 0.1 0
3.6 0.1 0
3.9 0.1 0
4.2 0.1 0
4.5 0.1 0
4.8 0.1 0
5.1 0.1 0
5.4 0.1 0
5.7 0.1 0
6 0.1 0
6.3 0.1 0
6.6 0.1 0
6.9 0.1 0
7.2 0.1 0
7.5 0.1 0
7.8 0.1 0
8.1 0.1 0
8.4 0.1 0
8.7 0.1 0
9 0.1 0
9.3 0.1 0
9.6 0.1 0
9.9 0.1 0
10.2 0.1 0
10.5 0.1 0
10.8 0.1 0
11.1 0.1 0
11.4 0.1 0
11.7 0.1 0
12 0.1 0
12.3 0.1 0
12.6 0.1 0
12.9 0.1 0
13.2 0.1 0
13.5 0.1 0
13.8 0.1 0
14.1 0.1 0
14.4 0.1 0
14.7 0.1 0
15 0.1 0
15.3 0.1 0
15.6 0.1 0
15.9 0.1 0
16.2 0.1 0
16.5 0.1 0
16.8 0.1 0
17.1 0.1 0
17.4 0.1 0
17.7 0.1 0
18 0.1 0
18.3 0.1 0
18.6 0.1 0
18.9 0.1 0
19.2 0.1 0
19.5 0.1 0
19.8 0.1 0
20.1 0.1 0
20.4 0.1 0
20.7 0.1 0
21 0.1 0
21.3 0.1 0
21.6 0.1 0
21.9 0.1 0
22.2 0.1 0
22.5 0.1 0
22.8 0.1 0
23.1 0.1 0
23.4 0.1 0
23.7 0.1 0
24 0.1 0
24.3 0.1 0
24.6 0.1 0
24.9 0.1 0
25.2 0.1 0
25.5 0.1 0
25.8 0.1 0
26.1 0.1 0
26.4 0.1 0
26.7 0.1 0
27 0.1 0
27.3 0.1 0
27.6 0.1 0
27.9 0.1 0
28.2 0.1 0
28.5 0.1 0
28.8 0.1 0
29.1 0.1 0
29.4 0.1 0
29.7 0.1 0
30 0.1 0
30.3 0.1 0
0 0.2 0
0.3 0.2 0
0.6 0.2 0
0.9 0.2 0
1.2 0.2 0
1.5 0.2 0
1.8 0.2 0
2.1 0.2 0
2.4 0.2 0
2.7 0.2 0
3 0.2 0
3.3 0.2 0
3.6 0.2 0
3.9 0.2 0
4.2 0.2 0
4.5 0.2 0
4.8 0.2 0
5.1 0.2 0
5.4 0.2 0
5.7 0.2 0
6 0.2 0
6.3 0.2 0
6.6 0.2 0
6.9 0.2 0
7.2 0.2 0
7.5 0.2 0
7.8 0.2 0
8.1 0.2 0
8.4 0.2 0
8.7 0.2 0
9 0.2 0
9.3 0.2 0
9.6 0.2 0
9.9 0.2 0
10.2 0.2 0
10.5 0.2 0
10.8 0.2 0
11.1 0.2 0
11.4 0.2 0
11.7 0.2 0
12 0.2 0
12.3 0.2 0
12.6 0.2 0
12.9 0.2 0
13.2 0.2 0
13.5 0.2 0
13.8 0.2 0
14.1 0.2 0
14.4 0.2 0
14.7 0.2 0
15 0.2 0
15.3 0.2 0
15.6 0.2 0
15.9 0.2 0
16.2 0.2 0
16.5 0.2 0
16.8 0.2 0
17.1 0.2 0
17.4 0.2 0
17.7 0.2 0
18 0.2 0
18.3 0.2 0
18.6 0.2 0
18.9 0.2 0
19.2 0.2 0
19.5 0.2 0
19.8 0.2 0
20.1 0.2 0
20.4 0.2 0
20.7 0.2 0
21 0.2 0
21.3 0.2 0
21.6 0.2 0
21.9 0.2 0
22.2 0.2 0
22.5 0.2 0
22.8 0.2 0
23.1 0.2 0
23.4 0.2 0
23.7 0.2 0
24 0.2 0
24.3 0.2 0
24.6 0.2 0
24.9 0.2 0
25.2 0.2 0
25.5 0.2 0
25.8 0.2 0
26.1 0.2 0
26.4 0.2 0
26.7 0.2 0
27 0.2 0
27.3 0.2 0
27.6 0.2 0
27.9 0.2 0
28.2 0.2 0
28.5 0.2 0
28.8 0.2 0
29.1 0.2 0
29.4 0.2 0
29.7 0.2 0
30 0.2 0
30.3 0.2 0
0 0.3 0
0.3 0.3 0
0.6 0.3 0
0.9 0.3 0
1.2 0.3 0
1.5 0.3 0
1.8 0.3 0
2.1 0.3 0
2.4 0.3 0
2.7 0.3 0
3 0.3 0
3.3 0.3 0
3.6 0.3 0
3.9 0.3 0
4.2 0.3 0
4.5 0.3 0
4.8 0.3 0
5.1 0.3 0
5.4 0.3 0
5.7 0.3 0
6 0.3 0
6.3 0.3 0
6.6 0.3 0
6.9 0.3 0
7.2 0.3 0
7.5 0.3 0
7.8 0.3 0
8.1 0.3 0
8.4 0.3 0
8.7 0.3 0
9 0.3 0
9.3 0.3 0
9.6 0.3 0
9.9 0.3 0
10.2 0.3 0
10.5 0.3 0
10.8 0.3 0
11.1 0.3 0
11.4 0.3 0
11.7 0.3 0
12 0.3 0
12.3 0.3 0
12.6 0.3 0
12.9 0.3 0
13.2 0.3 0
13.5 0.3 0
13.8 0.3 0
14.1 0.3 0
14.4 0.3 0
14.7 0.3 0
15 0.3 0
15.3 0.3 0
15.6 0.3 0
15.9 0.3 0
16.2 0.3 0
16.5 0.3 0
16.8 0.3 0
17.1 0.3 0
17.4 0.3 0
17.7 0.3 0
18 0.3 0
18.3 0.3 0
18.6 0.3 0
18.9 0.3 0
19.2 0.3 0
19.5 0.3 0
19.8 0.3 0
20.1 0.3 0
20.4 0.3 0
20.7 0.3 0
21 0.3 0
21.3 0.3 0
21.6 0.3 0
21.9 0.3 0
22.2 0.3 0
22.5 0.3 0
22.8 0.3 0
23.1 0.3 0
23.4 0.3 0
23.7 0.3 0
24 0.3 0
24.3 0.3 0
24.6 0.3 0
24.9 0.3 0
25.2 0.3 0
25.5 0.3 0
25.8 0.3 0
26.1 0.3 0
26.4 0.3 0
26.7 0.3 0
27 0.3 0
27.3 0.3 0
27.6 0.3 0
27.9 0.3 0
28.2 0.3 0
28.5 0.3 0
28.8 0.3 0
29.1 0.3 0
29.4 0.3 0
29.7 0.3 0
30 0.3 0
30.3 0.3 0
0 0.4 0
0.3 0.4 0
0.6 0.4 0
0.9 0.4 0
1.2 0.4 0
1.5 0.4 0
1.8 0.4 0
2.1 0.4 0
2.4 0.4 0
2.7 0.4 0
3 0.4 0
3.3 0.4 0
3.6 0.4 0
3.9 0.4 0
4.2 0.4 0
4.5 0.4 0
4.8 0.4 0
5.1 0.4 0
5.4 0.4 0
5.7 0.4 0
6 0.4 0
6.3 0.4 0
6.6 0.4 0
6.9 0.4 0
7.2 0.4 0
7.5 0.4 0
7.8 0.4 0
8.1 0.4 0
8.4 0.4 0
8.7 0.4 0
9 0.4 0
9.3 0.4 0
9.6 0.4 0
9.9 0.4 0
10.2 0.4 0
10.5 0.4 0
10.8 0.4 0
11.1 0.4 0
11.4 0.4 0
11.7 0.4 0
12 0.4 0
12.3 0.4 0
12.6 0.4 0
12.9 0.4 0
13.2 0.4 0
13.5 0.4 0
13.8 0.4 0
14.1 0.4 0
14.4 0.4 0
14.7 0.4 0
15 0.4 0
15.3 0.4 0
15.6 0.4 0
15.9 0.4 0
16.2 0.4 0
16.5 0.4 0
16.8 0.4 0
17.1 0.4 0
17.4 0.4 0
17.7 0.4 0
18 0.4 0
18.3 0.4 0
18.6 0.4 0
18.9 0.4 0
19.2 0.4 0
19.5 0.4 0
19.8 0.4 0
20.1 0.4 0
20.4 0.4 0
20.7 0.4 0
21 0.4 0
21.3 0.4 0
21.6 0.4 0
21.9 0.4 0
22.2 0.4 0
22.5 0.4 0
22.8 0.4 0
23.1 0.4 0
23.4 0.4 0
23.7 0.4 0
24 0.4 0
24.3 0.4 0
24.6 0.4 0
24.9 0.4 0
25.2 0.4 0
25.5 0.4 0
25.8 0.4 0
26.1 0.4 0
26.4 0.4 0
26.7 0.4 0
27 0.4 0
27.3 0.4 0
27.6 0.4 0
27.9 0.4 0
28.2 0.4 0
28.5 0.4 0
28.8 0.4 0
29.1 0.4 0
29.4 0.4 0
29.7 0.4 0
30 0.4 0
30.3 0.4 0
0 0.5 0
0.3 0.5 0
0.6 0.5 0
0.9 0.5 0
1.2 0.5 0
1.5 0.5 0
1.8 0.5 0
2.1 0.5 0
2.4 0.5 0
2.7 0.5 0
3 0.5 0
3.3 0.5 0
3.6 0.5 0
3.9 0.5 0
4.2 0.5 0
4.5 0.5 0
4.8 0.5 0
5.1 0.5 0
5.4 0.5 0
5.7 0.5 0
6 0.5 0
6.3 0.5 0
6.6 0.5 0
6.9 0.5 0
7.2 0.5 0
7.5 0.5 0
7.8 0.5 0
8.1 0.5 0
8.4 0.5 0
8.7 0.5 0
9 0.5 0
9.3 0.5 0
9.6 0.5 0
9.9 0.5 0
10.2 0.5 0
10.5 0.5 0
10.8 0.5 0
11.1 0.5 0
11.4 0.5 0
11.7 0.5 0
12 0.5 0
12.3 0.5 0
12.6 0.5 0
12.9 0.5 0
13.2 0.5 0
13.5 0.5 0
13.8 0.5 0
14.1 0.5 0
14.4 0.5 0
14.7 0.5 0
15 0.5 0
15.3 0.5 0
15.6 0.5 0
15.9 0.5 0
16.2 0.5 0
16.5 0.5 0
16.8 0.5 0
17.1 0.5 0
17.4 0.5 0
17.7 0.5 0
18 0.5 0
18.3 0.5 0
18.6 0.5 0
18.9 0.5 0
19.2 0.5 0
19.5 0.5 0
19.8 0.5 0
20.1 0.5 0
20.4 0.5 0
20.7 0.5 0
21 0.5 0
21.3 0.5 0
21.6 0.5 0
21.9 0.5 0
22.2 0.5 0
22.5 0.5 0
22.8 0.5 0
23.1 0.5 0
23.4 0.5 0
23.7 0.5 0
24 0.5 0
24.3 0.5 0
24.6 0.5 0
24.9 0.5 0
25.2 0.5 0
25.5 0.5 0
25.8 0.5 0
26.1 0.5 0
26.4 0.5 0
26.7 0.5 0
27 0.5 0
27.3 0.5 0
27.6 0.5 0
27.9 0.5 0
28.2 0.5 0
28.5 0.5 0
28.8 0.5 0
29.1 0.5 0
29.4 0.5 0
29.7 0.5 0
30 0.5 0
30.3 0.5 0
0 0.6 0
0.3 0.6 0
0.6 0.6 0
0.9 0.6 0
1.2 0.6 0
1.5 0.6 0
1.8 0.6 0
2.1 0.6 0
2.4 0.6 0
2.7 0.6 0
3 0.6 0
3.3 0.6 0
3.6 0.6 0
3.9 0.6 0
4.2 0.6 0
4.5 0.6 0
4.8 0.6 0
5.1 0.6 0
5.4 0.6 0
5.7 0.6 0
6 0.6 0
6.3 0.6 0
6.6 0.6 0
6.9 0.6 0
7.2 0.6 0
7.5 0.6 0
7.8 0.6 0
8.1 0.6 0
8.4 0.6 0
8.7 0.6 0
9 0.6 0
9.3 0.6 0
9.6 0.6 0
9.9 0.6 0
10.2 0.6 0
10.5 0.6 0
10.8 0.6 0
11.1 0.6 0
11.4 0.6 0
11.7 0.6 0
12 0.6 0
12.3 0.6 0
12.6 0.6 0
12.9 0.6 0
13.2 0.6 0
13.5 0.6 0
13.8 0.6 0
14.1 0.6 0
14.4 0.6 0
14.7 0.6 0
15 0.6 0
15.3 0.6 0
15.6 0.6 0
15.9 0.6 0
16.2 0.6 0
16.5 0.6 0
16.8 0.6 0
17.1 0.6 0
17.4 0.6 0
17.7 0.6 0
18 0.6 0
18.3 0.6 0
18.6 0.6 0
18.9 0.6 0
19.2 0.6 0
19.5 0.6 0
19.8 0.6 0
20.1 0.6 0
20.4 0.6 0
20.7 0.6 0
21 0.6 0
21.3 0.6 0
21.6 0.6 0
21.9 0.6 0
22.2 0.6 0
22.5 0.6 0
22.8 0.6 0
23.1 0.6 0
23.4 0.6 0
23.7 0.6 0
24 0.6 0
24.3 0.6 0
24.6 0.6 0
24.9 0.6 0
25.2 0.6 0
25.5 0.6 0
25.8 0.6 0
26.1 0.6 0
26.4 0.6 0
26.7 0.6 0
27 0.6 0
27.3 0.6 0
27.6 0.6 0
27.9 0.6 0
28.2 0.6 0
28.5 0.6 0
28.8 0.6 0
29.1 0.6 0
29.4 0.6 0
29.7 0.6 0
30 0.6 0
30.3 0.6 0
0 0.7 0
0.3 0.7 0
0.6 0.7 0
0.9 0.7 0
1.2 0.7 0
1.5 0.7 0
1.8 0.7 0
2.1 0.7 0
2.4 0.7 0
2.7 0.7 0
3 0.7 0
3.3 0.7 0
3.6 0.7 0
3.9 0.7 0
4.2 0.7 0
4.5 0.7 0
4.8 0.7 0
5.1 0.7 0
5.4 0.7 0
5.7 0.7 0
6 0.7 0
6.3 0.7 0
6.6 0.7 0
6.9 0.7 0
7.2 0.7 0
7.5 0.7 0
7.8 0.7 0
8.1 0.7 0
8.4 0.7 0
8.7 0.7 0
9 0.7 0
9.3 0.7 0
9.6 0.7 0
9.9 0.7 0
10.2 0.7 0
10.5 0.7 0
10.8 0.7 0
11.1 0.7 0
11.4 0.7 0
11.7 0.7 0
12 0.7 0
12.3 0.7 0
12.6 0.7 0
12.9 0.7 0
13.2 0.7 0
13.5 0.7 0
13.8 0.7 0
14.1 0.7 0
14.4 0.7 0
14.7 0.7 0
15 0.7 0
15.3 0.7 0
15.6 0.7 0
15.9 0.7 0
16.2 0.7 0
16.5 0.7 0
16.8 0.7 0
17.1 0.7 0
17.4 0.7 0
17.7 0.7 0
18 0.7 0
18.3 0.7 0
18.6 0.7 0
18.9 0.7 0
19.2 0.7 0
19.5 0.7 0
19.8 0.7 0
20.1 0.7 0
20.4 0.7 0
20.7 0.7 0
21 0.7 0
21.3 0.7 0
21.6 0.7 0
21.9 0.7 0
22.2 0.7 0
22.5 0.7 0
22.8 0.7 0
23.1 0.7 0
23.4 0.7 0
23.7 0.7 0
24 0.7 0
24.3 0.7 0
24.6 0.7 0
24.9 0.7 0
25.2 0.7 0
25.5 0.7 0
25.8 0.7 0
26.1 0.7 0
26.4 0.7 0
26.7 0.7 0
27 0.7 0
27.3 0.7 0
27.6 0.7 0
27.9 0.7 0
28.2 0.7 0
28.5 0.7 0
28.8 0.7 0
29.1 0.7 0
29.4 0.7 0
29.7 0.7 0
30 0.7 0
30.3 0.7 0
0 0.8 0
0.3 0.8 0
0.6 0.8 0
0.9 0.8 0
1.2 0.8 0
1.5 0.8 0
1.8 0.8 0
2.1 0.8 0
2.4 0.8 0
2.7 0.8 0
3 0.8 0
3.3 0.8 0
3.6 0.8 0
3.9 0.8 0
4.2 0.8 0
4.5 0.8 0
4.8 0.8 0
5.1 0.8 0
5.4 0.8 0
5.7 0.8 0
6 0.8 0
6.3 0.8 0
6.6 0.8 0
6.9 0.8 0
7.2 0.8 0
7.5 0.8 0
7.8 0.8 0
8.1 0.8 0
8.4 0.8 0
8.7 0.8 0
9 0.8 0
9.3 0.8 0
9.6 0.8 0
9.9 0.8 0
10.2 0.8 0
10.5 0.8 0
10.8 0.8 0
11.1 0.8 0
11.4 0.8 0
11.7 0.8 0
12 0.8 0
12.3 0.8 0
12.6 0.8 0
12.9 0.8 0
13.2 0.8 0
13.5 0.8 0
13.8 0.8 0
14.1 0.8 0
14.4 0.8 0
14.7 0.8 0
15 0.8 0
15.3 0.8 0
15.6 0.8 0
15.9 0.8 0
16.2 0.8 0
16.5 0.8 0
16.8 0.8 0
17.1 0.8 0
17.4 0.8 0
17.7 0.8 0
18 0.8 0
18.3 0.8 0
18.6 0.8 0
18.9 0.8 0
19.2 0.8 0
19.5 0.8 0
19.8 0.8 0
20.1 0.8 0
20.4 0.8 0
20.7 0.8 0
21 0.8 0
21.3 0.8 0
21.6 0.8 0
21.9 0.8 0
22.2 0.8 0
22.5 0.8 0
22.8 0.8 0
23.1 0.8 0
23.4 0.8 0
23.7 0.8 0
24 0.8 0
24.3 0.8 0
24.6 0.8 0
24.9 0.8 0
25.2 0.8 0
25.5 0.8 0
25.8 0.8 0
26.1 0.8 0
26.4 0.8 0
26.7 0.8 0
27 0.8 0
27.3 0.8 0
27.6 0.8 0
27.9 0.8 0
28.2 0.8 0
28.5 0.8 0
28.8 0.8 0
29.1 0.8 0
29.4 0.8 0
29.7 0.8 0
30 0.8 0
30.3 0.8 0
0 0.9 0
0.3 0.9 0
0.6 0.9 0
0.9 0.9 0
1.2 0.9 0
1.5 0.9 0
1.8 0.9 0
2.1 0.9 0
2.4 0.9 0
2.7 0.9 0
3 0.9 0
3.3 0.9 0
3.6 0.9 0
3.9 0.9 0
4.2 0.9 0
4.5 0.9 0
4.8 0.9 0
5.1 0.9 0
5.4 0.9 0
5.7 0.9 0
6 0.9 0
6.3 0.9 0
6.6 0.9 0
6.9 0.9 0
7.2 0.9 0
7.5 0.9 0
7.8 0.9 0
8.1 0.9 0
8.4 0.9 0
8.7 0.9 0
9 0.9 0
9.3 0.9 0
9.6 0.9 0
9.9 0.9 0
10.2 0.9 0
10.5 0.9 0
10.8 0.9 0
11.1 0.9 0
11.4 0.9 0
11.7 0.9 0
12 0.9 0
12.3 0.9 0
12.6 0.9 0
12.9 0.9 0
13.2 0.9 0
13.5 0.9 0
13.8 0.9 0
14.1 0.9 0
14.4 0.9 0
14.7 0.9 0
15 0.9 0
15.3 0.9 0
15.6 0.9 0
15.9 0.9 0
16.2 0.9 0
16.5 0.9 0
16.8 0.9 0
17.1 0.9 0
17.4 0.9 0
17.7 0.9 0
18 0.9 0
18.3 0.9 0
18.6 0.9 0
18.9 0.9 0
19.2 0.9 0
19.5 0.9 0
19.8 0.9 0
20.1 0.9 0
20.4 0.9 0
20.7 0.9 0
21 0.9 0
21.3 0.9 0
21.6 0.9 0
21.9 0.9 0
22.2 0.9 0
22.5 0.9 0
22.8 0.9 0
23.1 0.9 0
23.4 0.9 0
23.7 0.9 0
24 0.9 0
24.3 0.9 0
24.6 0.9 0
24.9 0.9 0
25.2 0.9 0
25.5 0.9 0
25.8 0.9 0
26.1 0.9 0
26.4 0.9 0
26.7 0.9 0
27 0.9 0
27.3 0.9 0
27.6 0.9 0
27.9 0.9 0
28.2 0.9 0
28.5 0.9 0
28.8 0.9 0
29.1 0.9 0
29.4 0.9 0
29.7 0.9 0
30 0.9 0
30.3 0.9 0
0 1 0
0.3 1 0
0.6 1 0
0.9 1 0
1.2 1 0
1.5 1 0
1.8 1 0
2.1 1 0
2.4 1 0
2.7 1 0
3 1 0
3.3 1 0
3.6 1 0
3.9 1 0
4.2 1 0
4.5 1 0
4.8 1 0
5.1 1 0
5.4 1 0
5.7 1 0
6 1 0
6.3 1 0
6.6 1 0
6.9 1 0
7.2 1 0
7.5 1 0
7.8 1 0
8.1 1 0
8.4 1 0
8.7 1 0
9 1 0
9.3 1 0
9.6 1 0
9.9 1 0
10.2 1 0
10.5 1 0
10.8 1 0
11.1 1 0
11.4 1 0
11.7 1 0
12 1 0
12.3 1 0
12.6 1 0
12.9 1 0
13.2 1 0
13.5 1 0
13.8 1 0
14.1 1 0
14.4 1 0
14.7 1 0
15 1 0
15.3 1 0
15.6 1 0
15.9 1 0
16.2 1 0
16.5 1 0
16.8 1 0
17.1 1 0
17.4 1 0
17.7 1 0
18 1 0
18.3 1 0
18.6 1 0
18.9 1 0
19.2 1 0
19.5 1 0
19.8 1 0
20.1 1 0
20.4 1 0
20.7 1 0
21 1 0
21.3 1 0
21.6 1 0
21.9 1 0
22.2 1 0
22.5 1 0
22.8 1 0
23.1 1 0
23.4 1 0
23.7 1 0
24 1 0
24.3 1 0
24.6 1 0
24.9 1 0
25.2 1 0
25.5 1 0
25.8 1 0
26.1 1 0
26.4 1 0
26.7 1 0
27 1 0
27.3 1 0
27.6 1 0
27.9 1 0
28.2 1 0
28.5 1 0
28.8 1 0
29.1 1 0
29.4 1 0
29.7 1 0
30 1 0
30.3 1 0
0 1.1 0
0.3 1.1 0
0.6 1.1 0
0.9 1.1 0
1.2 1.1 0
1.5 1.1 0
1.8 1.1 0
2.1 1.1 0
2.4 1.1 0
2.7 1.1 0
3 1.1 0
3.3 1.1 0
3.6 1.1 0
3.9 1.1 0
4.2 1.1 0
4.5 1.1 0
4.8 1.1 0
5.1 1.1 0
5.4 1.1 0
5.7 1.1 0
6 1.1 0
6.3 1.1 0
6.6 1.1 0
6.9 1.1 0
7.2 1.1 0
7.5 1.1 0
7.8 1.1 0
8.1 1.1 0
8.4 1.1 0
8.7 1.1 0
9 1.1 0
9.3 1.1 0
9.6 1.1 0
9.9 1.1 0
10.2 1.1 0
10.5 1.1 0
10.8 1.1 0
11.1 1.1 0
11.4 1.1 0
11.7 1.1 0
12 1.1 0
12.3 1.1 0
12.6 1.1 0
12.9 1.1 0
13.2 1.1 0
13.5 1.1 0
13.8 1.1 0
14.1 1.1 0
14.4 1.1 0
14.7 1.1 0
15 1.1 0
15.3 1.1 0
15.6 1.1 0
15.9 1.1 0
16.2 1.1 0
16.5 1.1 0
16.8 1.1 0
17.1 1.1 0
17.4 1.1 0
17.7 1.1 0
18 1.1 0
18.3 1.1 0
18.6 1.1 0
18.9 1.1 0
19.2 1.1 0
19.5 1.1 0
19.8 1.1 0
20.1 1.1 0
20.4 1.1 0
20.7 1.1 0
21 1.1 0
21.3 1.1 0
21.6 1.1 0
21.9 1.1 0
22.2 1.1 0
22.5 1.1 0
22.8 1.1 0
23.1 1.1 0
23.4 1.1 0
23.7 1.1 0
24 1.1 0
24.3 1.1 0
24.6 1.1 0
24.9 1.1 0
25.2 1.1 0
25.5 1.1 0
25.8 1.1 0
26.1 1.1 0
26.4 1.1 0
26.7 1.1 0
27 1.1 0
27.3 1.1 0
27.6 1.1 0
27.9 1.1 0
28.2 1.1 0
28.5 1.1 0
28.8 1.1 0
29.1 1.1 0
29.4 1.1 0
29.7 1.1 0
30 1.1 0
30.3 1.1 0
0 1.2 0
0.3 1.2 0
0.6 1.2 0
0.9 1.2 0
1.2 1.2 0
1.5 1.2 0
1.8 1.2 0
2.1 1.2 0
2.4 1.2 0
2.7 1.2 0
3 1.2 0
3.3 1.2 0
3.6 1.2 0
3.9 1.2 0
4.2 1.2 0
4.5 1.2 0
4.8 1.2 0
5.1 1.2 0
5.4 1.2 0
5.7 1.2 0
6 1.2 0
6.3 1.2 0
6.6 1.2 0
6.9 1.2 0
7.2 1.2 0
7.5 1.2 0
7.8 1.2 0
8.1 1.2 0
8.4 1.2 0
8.7 1.2 0
9 1.2 0
9.3 1.2 0
9.6 1.2 0
9.9 1.2 0
10.2 1.2 0
10.5 1.2 0
10.8 1.2 0
11.1 1.2 0
11.4 1.2 0
11.7 1.2 0
12 1.2 0
12.3 1.2 0
12.6 1.2 0
12.9 1.2 0
13.2 1.2 0
13.5 1.2 0
13.8 1.2 0
14.1 1.2 0
14.4 1.2 0
14.7 1.2 0
15 1.2 0
15.3 1.2 0
15.6 1.2 0
15.9 1.2 0
16.2 1.2 0
16.5 1.2 0
16.8 1.2 0
17.1 1.2 0
17.4 1.2 0
17.7 1.2 0
18 1.2 0
18.3 1.2 0
18.6 1.2 0
18.9 1.2 0
19.2 1.2 0
19.5 1.2 0
19.8 1.2 0
20.1 1.2 0
20.4 1.2 0
20.7 1.2 0
21 1.2 0
21.3 1.2 0
21.6 1.2 0
21.9 1.2 0
22.2 1.2 0
22.5 1.2 0
22.8 1.2 0
23.1 1.2 0
23.4 1.2 0
23.7 1.2 0
24 1.2 0
24.3 1.2 0
24.6 1.2 0
24.9 1.2 0
25.2 1.2 0
25.5 1.2 0
25.8 1.2 0
26.1 1.2 0
26.4 1.2 0
26.7 1.2 0
27 1.2 0
27.3 1.2 0
27.6 1.2 0
27.9 1.2 0
28.2 1.2 0
28.5 1.2 0
28.8 1.2 0
29.1 1.2 0
29.4 1.2 0
29.7 1.2 0
30 1.2 0
30.3 1.2 0

POINT_DATA 1326

SCALARS phi double
LOOKUP_TABLE default
1.00002
0.999979
1.00009
1.00008
0.999032
1.00083
1.00672
0.99737
0.944803
0.842779
0.710944
0.574868
0.450888
0.344913
0.257257
0.186485
0.130885
0.0886618
0.0578429
0.0362994
0.021901
0.0127041
0.00708745
0.00380492
0.00196707
0.000980067
0.000470989
0.000218501
9.79369e-05
4.24475e-05
1.78042e-05
7.23267e-06
2.84781e-06
1.08762e-06
4.03181e-07
1.4517e-07
5.08029e-08
1.72904e-08
5.72643e-09
1.84661e-09
5.80122e-10
1.77641e-10
5.3048e-11
1.54563e-11
4.39602e-12
1.22102e-12
3.31351e-13
8.78889e-14
2.27948e-14
5.78308e-15
1.43572e-15
3.48917e-16
8.3036e-17
1.93575e-17
4.42193e-18
9.90123e-19
2.17376e-19
4.68067e-20
9.88779e-21
2.04977e-21
4.17099e-22
8.33323e-23
1.63507e-23
3.15145e-24
5.96813e-25
1.11075e-25
2.0321e-26
3.65519e-27
6.46551e-28
1.12489e-28
1.9254e-29
3.24273e-30
5.37481e-31
8.76908e-32
1.40851e-32
2.22768e-33
3.4698e-34
5.32334e-35
8.04562e-36
1.19811e-36
1.75816e-37
2.54278e-38
3.62499e-39
5.09464e-40
7.05968e-41
9.6467e-42
1.30002e-42
1.72802e-43
2.26585e-44
2.93121e-45
3.7415e-46
4.71277e-47
5.8585e-48
7.18825e-49
8.70624e-50
1.04102e-50
1.22899e-51
1.43286e-52
1.64976e-53
1.87782e-54
2.05157e-55
2.05157e-55
1.00002
0.999979
1.00009
1.00008
0.999032
1.00083
1.00672
0.99737
0.944803
0.842779
0.710944
0.574868
0.450888
0.344913
0.257257
0.186485
0.130885
0.0886618
0.0578429
0.0362994
0.021901
0.0127041
0.00708745
0.00380492
0.00196707
0.000980067
0.000470989
0.000218501
9.79369e-05
4.24475e-05
1.78042e-05
7.23267e-06
2.84781e-06
1.08762e-06
4.03181e-07
1.4517e-07
5.08029e-08
1.72904e-08
5.72643e-09
1.84661e-09
5.80122e-10
1.77641e-10
5.3048e-11
1.54563e-11
4.39602e-12
1.22102e-12
3.31351e-13
8.78889e-14
2.27948e-14
5.78308e-15
1.43572e-15
3.48917e-16
8.3036e-17
1.93575e-17
4.42193e-18
9.90123e-19
2.17376e-19
4.68067e-20
9.88779e-21
2.04977e-21
4.17099e-22
8.33323e-23
1.63507e-23
3.15145e-24
5.96813e-25
1.11075e-25
2.0321e-26
3.65519e-27
6.46551e-28
1.12489e-28
1.9254e-29
3.24273e-30
5.37481e-31
8.76908e-32
1.40851e-32
2.22768e-33
3.4698e-34
5.32334e-35
8.04562e-36
1.19811e-36
1.75816e-37
2.54278e-38
3.62499e-39
5.09464e-40
7.05968e-41
9.6467e-42
1.30002e-42
1.72802e-43
2.26585e-44
2.93121e-45
3.7415e-46
4.71277e-47
5.8585e-48
7.18825e-49
8.70624e-50
1.04102e-50
1.22899e-51
1.43286e-52
1.64976e-53
1.87782e-54
2.05157e-55
2.05157e-55
1.00001
0.999988
1.00003
1.00011
0.999708
0.999592
1.00136
1.00231
0.994183
0.968894
0.923522
0.859906
0.781526
0.691677
0.593744
0.492071
0.39207
0.299379
0.218635
0.152553
0.101682
0.0647661
0.0394517
0.0230051
0.0128562
0.00689362
0.003551
0.0017593
0.000839297
0.000385979
0.000171295
7.34352e-05
3.04412e-05
1.22128e-05
4.74622e-06
1.78821e-06
6.53683e-07
2.32018e-07
8.00183e-08
2.68327e-08
8.75443e-09
2.78064e-09
8.60341e-10
2.59446e-10
7.62968e-11
2.18912e-11
6.13128e-12
1.67707e-12
4.48196e-13
1.17081e-13
2.99077e-14
7.47368e-15
1.8277e-15
4.37575e-16
1.02596e-16
2.35662e-17
5.30479e-18
1.17059e-18
2.53298e-19
5.37623e-20
1.1196e-20
2.28829e-21
4.59127e-22
9.04568e-23
1.75043e-23
3.32771e-24
6.21649e-25
1.14141e-25
2.06031e-26
3.65684e-27
6.38339e-28
1.09611e-28
1.85184e-29
3.07876e-30
5.03792e-31
8.11534e-32
1.28712e-32
2.01028e-33
3.09237e-34
4.68592e-35
6.99571e-36
1.02912e-36
1.49199e-37
2.13199e-38
3.00324e-39
4.17098e-40
5.71195e-41
7.71411e-42
1.02754e-42
1.35011e-43
1.75008e-44
2.23825e-45
2.82471e-46
3.51804e-47
4.3245e-48
5.24722e-49
6.28525e-50
7.4335e-51
8.6806e-52
1.00191e-52
1.10785e-53
1.10785e-53
1
0.999999
0.99998
0.999955
0.999711
0.999245
0.999012
0.999016
0.997987
0.993753
0.984082
0.966773
0.938991
0.896968
0.836969
0.757277
0.659927
0.551009
0.439258
0.333684
0.241376
0.166287
0.109179
0.0683898
0.0409215
0.0234206
0.0128388
0.0067502
0.00340843
0.00165498
0.00077369
0.000348646
0.000151611
6.36884e-05
2.58709e-05
1.01717e-05
3.87433e-06
1.43084e-06
5.1277e-07
1.78454e-07
6.03551e-08
1.98511e-08
6.35365e-09
1.98015e-09
6.01264e-10
1.7798e-10
5.13862e-11
1.44783e-11
3.98284e-12
1.07024e-12
2.81041e-13
7.21526e-14
1.81177e-14
4.45141e-15
1.07052e-15
2.52092e-16
5.81484e-17
1.31425e-17
2.91154e-18
6.32418e-19
1.34727e-19
2.8158e-20
5.77517e-21
1.16269e-21
2.2983e-22
4.46179e-23
8.50893e-24
1.59443e-24
2.93631e-25
5.31568e-26
9.46172e-27
1.65625e-27
2.85176e-28
4.83079e-29
8.05234e-30
1.32101e-30
2.13327e-31
3.3917e-32
5.31002e-33
8.1875e-34
1.24352e-34
1.86066e-35
2.74323e-36
3.98566e-37
5.70748e-38
8.05663e-39
1.12121e-39
1.53853e-40
2.08191e-41
2.7785e-42
3.65769e-43
4.75008e-44
6.08619e-45
7.69464e-46
9.60017e-47
1.18213e-47
1.43679e-48
1.72391e-49
2.04204e-50
2.38927e-51
2.6749e-52
2.6749e-52
0.999999
1
0.999425
0.998241
0.996435
0.993994
0.990994
0.987583
0.983872
0.97989
0.975388
0.969268
0.958751
0.938937
0.903591
0.847246
0.767785
0.66804
0.555494
0.440204
0.332017
0.238291
0.162823
0.106025
0.065874
0.0391045
0.0222106
0.0120873
0.00631161
0.00316646
0.00152823
0.000710429
0.000318473
0.000137823
5.76401e-05
2.33189e-05
9.13428e-06
3.46743e-06
1.27665e-06
4.56253e-07
1.58393e-07
5.34526e-08
1.75468e-08
5.60659e-09
1.74476e-09
5.2913e-10
1.56464e-10
4.51359e-11
1.27087e-11
3.49431e-12
9.38644e-13
2.4644e-13
6.32663e-14
1.58877e-14
3.90431e-15
9.39256e-16
2.21276e-16
5.10674e-17
1.15493e-17
2.56041e-18
5.5659e-19
1.18676e-19
2.48266e-20
5.097e-21
1.02724e-21
2.03283e-22
3.95101e-23
7.54393e-24
1.41538e-24
2.60992e-25
4.73105e-26
8.43248e-27
1.47812e-27
2.54863e-28
4.32344e-29
7.21706e-30
1.18571e-30
1.91759e-31
3.05333e-32
4.7874e-33
7.39275e-34
1.12451e-34
1.68513e-35
2.48819e-36
3.62057e-37
5.19251e-38
7.34077e-39
1.02313e-39
1.40604e-40
1.90547e-41
2.54682e-42
3.35766e-43
4.36687e-44
5.60336e-45
7.0945e-46
8.86417e-47
1.09306e-47
1.33041e-48
1.59846e-49
1.89635e-50
2.15078e-51
2.15078e-51
1.00149
0.998509
0.989827
0.978334
0.965642
0.952563
0.939471
0.926586
0.914203
0.902777
0.892685
0.883563
0.873389
0.857921
0.831173
0.787189
0.722481
0.637918
0.538988
0.434319
0.333198
0.243242
0.169025
0.111895
0.0706512
0.0426048
0.0245719
0.0135732
0.00719111
0.00365911
0.00179056
0.000843676
0.000383225
0.000168
7.11546e-05
2.91454e-05
1.15564e-05
4.43968e-06
1.65394e-06
5.97971e-07
2.09971e-07
7.16586e-08
2.37851e-08
7.68337e-09
2.41699e-09
7.40843e-10
2.21387e-10
6.45327e-11
1.83583e-11
5.09938e-12
1.38369e-12
3.66934e-13
9.51368e-14
2.41267e-14
5.98695e-15
1.45424e-15
3.45892e-16
8.05886e-17
1.83983e-17
4.11713e-18
9.0335e-19
1.94398e-19
4.10418e-20
8.50316e-21
1.7293e-21
3.45308e-22
6.77173e-23
1.30453e-23
2.46929e-24
4.59356e-25
8.40009e-26
1.51031e-26
2.67047e-27
4.64445e-28
7.94676e-29
1.33794e-29
2.21693e-30
3.61591e-31
5.80636e-32
9.18091e-33
1.42966e-33
2.19289e-34
3.31362e-35
4.93351e-36
7.23836e-37
1.04669e-37
1.49193e-38
2.09649e-39
2.90473e-40
3.96866e-41
5.34765e-42
7.10748e-43
9.31865e-44
1.20539e-44
1.53846e-45
1.93766e-46
2.40853e-47
2.95496e-48
3.57864e-49
4.27912e-50
4.88972e-51
4.88972e-51
1.04825
0.951752
0.8757
0.818249
0.774831
0.741545
0.715498
0.694654
0.677749
0.664214
0.653862
0.64624
0.639756
0.63106
0.615271
0.587265
0.543619
0.484227
0.412699
0.335355
0.259343
0.190768
0.133518
0.0889927
0.0565541
0.0343133
0.0199055
0.0110569
0.0058892
0.00301198
0.00148113
0.00070119
0.00031996
0.000140887
5.99271e-05
2.46489e-05
9.81311e-06
3.78481e-06
1.41541e-06
5.13654e-07
1.81026e-07
6.20025e-08
2.06525e-08
6.69444e-09
2.11302e-09
6.49825e-10
1.94822e-10
5.69714e-11
1.62584e-11
4.53015e-12
1.23299e-12
3.27958e-13
8.52844e-14
2.16916e-14
5.39827e-15
1.31499e-15
3.13656e-16
7.32817e-17
1.67763e-17
3.76438e-18
8.28178e-19
1.78696e-19
3.78263e-20
7.85742e-21
1.6021e-21
3.20728e-22
6.30565e-23
1.21779e-23
2.31085e-24
4.30943e-25
7.89978e-26
1.4238e-26
2.52357e-27
4.39943e-28
7.54534e-29
1.27334e-29
2.11482e-30
3.45733e-31
5.56448e-32
8.81854e-33
1.37635e-33
2.11586e-34
3.20438e-35
4.78146e-36
7.03076e-37
1.0189e-37
1.45549e-38
2.04971e-39
2.84603e-40
3.8968e-41
5.26199e-42
7.00844e-43
9.20816e-44
1.19359e-44
1.52658e-45
1.92669e-46
2.39982e-47
2.95032e-48
3.5803e-49
4.28978e-50
4.91135e-51
4.91135e-51
-0.0446957
0.0446957
0.107507
0.152454
0.185777
0.211426
0.231823
0.248452
0.262361
0.274516
0.285865
0.297027
0.307723
0.316297
0.319804
0.314855
0.298978
0.271784
0.235346
0.193595
0.151124
0.111963
0.078791
0.0527344
0.0336179
0.0204454
0.0118813
0.00660791
0.00352256
0.00180252
0.000886609
0.000419743
0.000191501
8.42947e-05
3.58384e-05
1.47321e-05
5.86097e-06
2.25872e-06
8.43955e-07
3.05981e-07
1.07727e-07
3.68574e-08
1.2263e-08
3.97035e-09
1.25167e-09
3.84445e-10
1.1511e-10
3.36165e-11
9.58037e-12
2.6657e-12
7.24509e-13
1.9243e-13
4.99674e-14
1.269e-14
3.15332e-15
7.66956e-16
1.82653e-16
4.26077e-17
9.73866e-18
2.18173e-18
4.79213e-19
1.03231e-19
2.18159e-20
4.52417e-21
9.2092e-22
1.8405e-22
3.61236e-23
6.96454e-24
1.31929e-24
2.45605e-25
4.49442e-26
8.08625e-27
1.43069e-27
2.48975e-28
4.26247e-29
7.18038e-30
1.1904e-30
1.94255e-31
3.12078e-32
4.93673e-33
7.69078e-34
1.18012e-34
1.78392e-35
2.65693e-36
3.89949e-37
5.64052e-38
8.04218e-39
1.1304e-39
1.56657e-40
2.14085e-41
2.88532e-42
3.83553e-43
5.02961e-44
6.50685e-45
8.30587e-46
1.04622e-46
1.30058e-47
1.59576e-48
1.93268e-49
2.31109e-50
2.64096e-51
2.64096e-51
-0.00141676
0.00141676
0.00819748
0.0166611
0.0258787
0.0354346
0.0451031
0.0547251
0.0642277
0.0737026
0.0834088
0.093582
0.104067
0.113972
0.121643
0.125107
0.122835
0.114413
0.100758
0.0837988
0.0658437
0.0489377
0.0344638
0.0230408
0.014652
0.00887961
0.00513801
0.00284358
0.00150774
0.000767105
0.000375049
0.00017645
7.99855e-05
3.49768e-05
1.47712e-05
6.03083e-06
2.38284e-06
9.11956e-07
3.38372e-07
1.2182e-07
4.25873e-08
1.44678e-08
4.77958e-09
1.53648e-09
4.80939e-10
1.46668e-10
4.36022e-11
1.26429e-11
3.57742e-12
9.88311e-13
2.66699e-13
7.03313e-14
1.81326e-14
4.5723e-15
1.12809e-15
2.72428e-16
6.44193e-17
1.49206e-17
3.3862e-18
7.53235e-19
1.64277e-19
3.51384e-20
7.37345e-21
1.51832e-21
3.06887e-22
6.09016e-23
1.18692e-23
2.27229e-24
4.27421e-25
7.90129e-26
1.43577e-26
2.56514e-27
4.50677e-28
7.78815e-29
1.32404e-29
2.21489e-30
3.64639e-31
5.90899e-32
9.42708e-33
1.48091e-33
2.29106e-34
3.49118e-35
5.24085e-36
7.75161e-37
1.12981e-37
1.62295e-38
2.298e-39
3.20776e-40
4.41484e-41
5.99166e-42
8.0196e-43
1.05873e-43
1.37878e-44
1.77148e-45
2.24572e-46
2.80933e-47
3.46836e-48
4.2264e-49
5.08366e-50
6.03792e-51
6.85548e-52
6.85548e-52
-1.12078e-05
1.12078e-05
0.000427292
0.00124862
0.00248667
0.00415228
0.00624284
0.00873537
0.0116099
0.0148986
0.0187041
0.0231188
0.0280446
0.0330243
0.0372461
0.0397841
0.0399604
0.0376233
0.0331923
0.0274772
0.0213917
0.0157034
0.0108989
0.00717022
0.00448229
0.00266848
0.00151612
0.000823658
0.000428627
0.000214017
0.000102687
4.74129e-05
2.10943e-05
9.05427e-06
3.75368e-06
1.50467e-06
5.83769e-07
2.19413e-07
7.9963e-08
2.82801e-08
9.71355e-09
3.24265e-09
1.05282e-09
3.32674e-10
1.0237e-10
3.06956e-11
8.97364e-12
2.5591e-12
7.12284e-13
1.93589e-13
5.14007e-14
1.33388e-14
3.38458e-15
8.40066e-16
2.04039e-16
4.85137e-17
1.1296e-17
2.57661e-18
5.75938e-19
1.26197e-19
2.71143e-20
5.71422e-21
1.18154e-21
2.39768e-22
4.77643e-23
9.34321e-24
1.79506e-24
3.38808e-25
6.28383e-26
1.14548e-26
2.05277e-27
3.6172e-28
6.26865e-29
1.06864e-29
1.79237e-30
2.95833e-31
4.80579e-32
7.68527e-33
1.21006e-33
1.87619e-34
2.86511e-35
4.30992e-36
6.38745e-37
9.32782e-38
1.34243e-38
1.90424e-39
2.66275e-40
3.67095e-41
4.99024e-42
6.68983e-43
8.8453e-44
1.15363e-44
1.48434e-45
1.88433e-46
2.36042e-47
2.91797e-48
3.5602e-49
4.28776e-50
5.09773e-51
5.98652e-52
6.72584e-53
6.72584e-53
1.77162e-06
-1.77162e-06
1.46281e-05
7.0457e-05
0.000191407
0.0004081
0.000751758
0.00125116
0.0019393
0.0028661
0.0040902
0.00562566
0.00736678
0.00905841
0.0103592
0.0109722
0.0107633
0.0098027
0.00831886
0.00660436
0.00492428
0.00346078
0.00230011
0.00144991
0.000869177
0.000496687
0.000271145
0.000141681
7.0988e-05
3.41611e-05
1.58126e-05
7.05016e-06
3.03162e-06
1.25877e-06
5.0524e-07
1.96234e-07
7.38232e-08
2.69246e-08
9.52823e-09
3.27436e-09
1.0935e-09
3.55142e-10
1.12244e-10
3.45444e-11
1.03588e-11
3.02837e-12
8.63594e-13
2.40346e-13
6.53141e-14
1.7339e-14
4.49864e-15
1.14122e-15
2.8318e-16
6.876e-17
1.63438e-17
3.80427e-18
8.67444e-19
1.93825e-19
4.24538e-20
9.11794e-21
1.92079e-21
3.96999e-22
8.05282e-23
1.60351e-23
3.13526e-24
6.02089e-25
1.1359e-25
2.10577e-26
3.83685e-27
6.87266e-28
1.21047e-28
2.09677e-29
3.57274e-30
5.98952e-31
9.88105e-32
1.60441e-32
2.5645e-33
4.03591e-34
6.25467e-35
9.5469e-36
1.43544e-36
2.12635e-37
3.10372e-38
4.46465e-39
6.33014e-40
8.84748e-41
1.21917e-41
1.65655e-42
2.21972e-43
2.93356e-44
3.8243e-45
4.91833e-46
6.24087e-47
7.81416e-48
9.65556e-49
1.17755e-49
1.41754e-50
1.6847e-51
1.97674e-52
2.2924e-53
2.5463e-54
2.5463e-54
1.25842e-07
-1.25842e-07
2.16689e-07
4.48485e-06
2.03065e-05
6.07864e-05
0.000147293
0.000312362
0.000592308
0.00100554
0.00152914
0.00209116
0.00258715
0.00291486
0.00301033
0.00286752
0.00253389
0.00208802
0.0016121
0.00117107
0.000803355
0.00052212
0.000322407
0.000189631
0.000106478
5.71923e-05
2.94396e-05
1.45468e-05
6.9104e-06
3.16046e-06
1.39339e-06
5.92917e-07
2.43781e-07
9.69494e-08
3.73297e-08
1.39292e-08
5.04122e-09
1.77106e-09
6.04438e-10
2.00542e-10
6.47274e-11
2.03368e-11
6.22382e-12
1.85636e-12
5.39931e-13
1.5322e-13
4.24436e-14
1.14825e-14
3.0352e-15
7.84251e-16
1.98163e-16
4.89852e-17
1.18508e-17
2.80694e-18
6.51142e-19
1.47987e-19
3.29623e-20
7.19774e-21
1.54132e-21
3.23768e-22
6.67334e-23
1.35002e-23
2.68124e-24
5.22931e-25
1.00178e-25
1.88548e-26
3.48734e-27
6.33997e-28
1.13316e-28
1.99161e-29
3.44276e-30
5.8545e-31
9.79567e-32
1.61295e-32
2.61413e-33
4.17092e-34
6.5525e-35
1.01374e-35
1.54474e-36
2.31882e-37
3.42945e-38
4.99797e-39
7.17856e-40
1.01629e-40
1.41837e-41
1.95171e-42
2.64819e-43
3.54363e-44
4.67699e-45
6.08912e-46
7.82105e-47
9.91167e-48
1.23951e-48
1.52975e-49
1.86341e-50
2.24059e-51
2.65965e-52
3.11746e-53
3.60819e-54
4.12833e-55
4.53263e-56
4.53263e-56
1.25842e-07
-1.25842e-07
2.16689e-07
4.48485e-06
2.03065e-05
6.07864e-05
0.000147293
0.000312362
0.000592308
0.00100554
0.00152914
0.00209116
0.00258715
0.00291486
0.00301033
0.00286752
0.00253389
0.00208802
0.0016121
0.00117107
0.000803355
0.00052212
0.000322407
0.000189631
0.000106478
5.71923e-05
2.94396e-05
1.45468e-05
6.9104e-06
3.16046e-06
1.39339e-06
5.92917e-07
2.43781e-07
9.69494e-08
3.73297e-08
1.39292e-08
5.04122e-09
1.77106e-09
6.04438e-10
2.00542e-10
6.47274e-11
2.03368e-11
6.22382e-12
1.85636e-12
5.39931e-13
1.5322e-13
4.24436e-14
1.14825e-14
3.0352e-15
7.84251e-16
1.98163e-16
4.89852e-17
1.18508e-17
2.80694e-18
6.51142e-19
1.47987e-19
3.29623e-20
7.19774e-21
1.54132e-21
3.23768e-22
6.67334e-23
1.35002e-23
2.68124e-24
5.22931e-25
1.00178e-25
1.88548e-26
3.48734e-27
6.33997e-28
1.13316e-28
1.99161e-29
3.44276e-30
5.8545e-31
9.79567e-32
1.61295e-32
2.61413e-33
4.17092e-34
6.5525e-35
1.01374e-35
1.54474e-36
2.31882e-37
3.42945e-38
4.99797e-39
7.17856e-40
1.01629e-40
1.41837e-41
1.95171e-42
2.64819e-43
3.54363e-44
4.67699e-45
6.08912e-46
7.82105e-47
9.91167e-48
1.23951e-48
1.52975e-49
1.86341e-50
2.24059e-51
2.65965e-52
3.11746e-53
3.60819e-54
4.12833e-55
4.53263e-56
4.53263e-56
