# vtk DataFile Version 2.0
FlowField
ASCII
DATASET STRUCTURED_GRID
DIMENSIONS 102 1 12 
POINTS 1224 double
0 0 0
0.4 0 0
0.8 0 0
1.2 0 0
1.6 0 0
2 0 0
2.4 0 0
2.8 0 0
3.2 0 0
3.6 0 0
4 0 0
4.4 0 0
4.8 0 0
5.2 0 0
5.6 0 0
6 0 0
6.4 0 0
6.8 0 0
7.2 0 0
7.6 0 0
8 0 0
8.4 0 0
8.8 0 0
9.2 0 0
9.6 0 0
10 0 0
10.4 0 0
10.8 0 0
11.2 0 0
11.6 0 0
12 0 0
12.4 0 0
12.8 0 0
13.2 0 0
13.6 0 0
14 0 0
14.4 0 0
14.8 0 0
15.2 0 0
15.6 0 0
16 0 0
16.4 0 0
16.8 0 0
17.2 0 0
17.6 0 0
18 0 0
18.4 0 0
18.8 0 0
19.2 0 0
19.6 0 0
20 0 0
20.4 0 0
20.8 0 0
21.2 0 0
21.6 0 0
22 0 0
22.4 0 0
22.8 0 0
23.2 0 0
23.6 0 0
24 0 0
24.4 0 0
24.8 0 0
25.2 0 0
25.6 0 0
26 0 0
26.4 0 0
26.8 0 0
27.2 0 0
27.6 0 0
28 0 0
28.4 0 0
28.8 0 0
29.2 0 0
29.6 0 0
30 0 0
30.4 0 0
30.8 0 0
31.2 0 0
31.6 0 0
32 0 0
32.4 0 0
32.8 0 0
33.2 0 0
33.6 0 0
34 0 0
34.4 0 0
34.8 0 0
35.2 0 0
35.6 0 0
36 0 0
36.4 0 0
36.8 0 0
37.2 0 0
37.6 0 0
38 0 0
38.4 0 0
38.8 0 0
39.2 0 0
39.6 0 0
40 0 0
40.4 0 0
0 0.1 0
0.4 0.1 0
0.8 0.1 0
1.2 0.1 0
1.6 0.1 0
2 0.1 0
2.4 0.1 0
2.8 0.1 0
3.2 0.1 0
3.6 0.1 0
4 0.1 0
4.4 0.1 0
4.8 0.1 0
5.2 0.1 0
5.6 0.1 0
6 0.1 0
6.4 0.1 0
6.8 0.1 0
7.2 0.1 0
7.6 0.1 0
8 0.1 0
8.4 0.1 0
8.8 0.1 0
9.2 0.1 0
9.6 0.1 0
10 0.1 0
10.4 0.1 0
10.8 0.1 0
11.2 0.1 0
11.6 0.1 0
12 0.1 0
12.4 0.1 0
12.8 0.1 0
13.2 0.1 0
13.6 0.1 0
14 0.1 0
14.4 0.1 0
14.8 0.1 0
15.2 0.1 0
15.6 0.1 0
16 0.1 0
16.4 0.1 0
16.8 0.1 0
17.2 0.1 0
17.6 0.1 0
18 0.1 0
18.4 0.1 0
18.8 0.1 0
19.2 0.1 0
19.6 0.1 0
20 0.1 0
20.4 0.1 0
20.8 0.1 0
21.2 0.1 0
21.6 0.1 0
22 0.1 0
22.4 0.1 0
22.8 0.1 0
23.2 0.1 0
23.6 0.1 0
24 0.1 0
24.4 0.1 0
24.8 0.1 0
25.2 0.1 0
25.6 0.1 0
26 0.1 0
26.4 0.1 0
26.8 0.1 0
27.2 0.1 0
27.6 0.1 0
28 0.1 0
28.4 0.1 0
28.8 0.1 0
29.2 0.1 0
29.6 0.1 0
30 0.1 0
30.4 0.1 0
30.8 0.1 0
31.2 0.1 0
31.6 0.1 0
32 0.1 0
32.4 0.1 0
32.8 0.1 0
33.2 0.1 0
33.6 0.1 0
34 0.1 0
34.4 0.1 0
34.8 0.1 0
35.2 0.1 0
35.6 0.1 0
36 0.1 0
36.4 0.1 0
36.8 0.1 0
37.2 0.1 0
37.6 0.1 0
38 0.1 0
38.4 0.1 0
38.8 0.1 0
39.2 0.1 0
39.6 0.1 0
40 0.1 0
40.4 0.1 0
0 0.2 0
0.4 0.2 0
0.8 0.2 0
1.2 0.2 0
1.6 0.2 0
2 0.2 0
2.4 0.2 0
2.8 0.2 0
3.2 0.2 0
3.6 0.2 0
4 0.2 0
4.4 0.2 0
4.8 0.2 0
5.2 0.2 0
5.6 0.2 0
6 0.2 0
6.4 0.2 0
6.8 0.2 0
7.2 0.2 0
7.6 0.2 0
8 0.2 0
8.4 0.2 0
8.8 0.2 0
9.2 0.2 0
9.6 0.2 0
10 0.2 0
10.4 0.2 0
10.8 0.2 0
11.2 0.2 0
11.6 0.2 0
12 0.2 0
12.4 0.2 0
12.8 0.2 0
13.2 0.2 0
13.6 0.2 0
14 0.2 0
14.4 0.2 0
14.8 0.2 0
15.2 0.2 0
15.6 0.2 0
16 0.2 0
16.4 0.2 0
16.8 0.2 0
17.2 0.2 0
17.6 0.2 0
18 0.2 0
18.4 0.2 0
18.8 0.2 0
19.2 0.2 0
19.6 0.2 0
20 0.2 0
20.4 0.2 0
20.8 0.2 0
21.2 0.2 0
21.6 0.2 0
22 0.2 0
22.4 0.2 0
22.8 0.2 0
23.2 0.2 0
23.6 0.2 0
24 0.2 0
24.4 0.2 0
24.8 0.2 0
25.2 0.2 0
25.6 0.2 0
26 0.2 0
26.4 0.2 0
26.8 0.2 0
27.2 0.2 0
27.6 0.2 0
28 0.2 0
28.4 0.2 0
28.8 0.2 0
29.2 0.2 0
29.6 0.2 0
30 0.2 0
30.4 0.2 0
30.8 0.2 0
31.2 0.2 0
31.6 0.2 0
32 0.2 0
32.4 0.2 0
32.8 0.2 0
33.2 0.2 0
33.6 0.2 0
34 0.2 0
34.4 0.2 0
34.8 0.2 0
35.2 0.2 0
35.6 0.2 0
36 0.2 0
36.4 0.2 0
36.8 0.2 0
37.2 0.2 0
37.6 0.2 0
38 0.2 0
38.4 0.2 0
38.8 0.2 0
39.2 0.2 0
39.6 0.2 0
40 0.2 0
40.4 0.2 0
0 0.3 0
0.4 0.3 0
0.8 0.3 0
1.2 0.3 0
1.6 0.3 0
2 0.3 0
2.4 0.3 0
2.8 0.3 0
3.2 0.3 0
3.6 0.3 0
4 0.3 0
4.4 0.3 0
4.8 0.3 0
5.2 0.3 0
5.6 0.3 0
6 0.3 0
6.4 0.3 0
6.8 0.3 0
7.2 0.3 0
7.6 0.3 0
8 0.3 0
8.4 0.3 0
8.8 0.3 0
9.2 0.3 0
9.6 0.3 0
10 0.3 0
10.4 0.3 0
10.8 0.3 0
11.2 0.3 0
11.6 0.3 0
12 0.3 0
12.4 0.3 0
12.8 0.3 0
13.2 0.3 0
13.6 0.3 0
14 0.3 0
14.4 0.3 0
14.8 0.3 0
15.2 0.3 0
15.6 0.3 0
16 0.3 0
16.4 0.3 0
16.8 0.3 0
17.2 0.3 0
17.6 0.3 0
18 0.3 0
18.4 0.3 0
18.8 0.3 0
19.2 0.3 0
19.6 0.3 0
20 0.3 0
20.4 0.3 0
20.8 0.3 0
21.2 0.3 0
21.6 0.3 0
22 0.3 0
22.4 0.3 0
22.8 0.3 0
23.2 0.3 0
23.6 0.3 0
24 0.3 0
24.4 0.3 0
24.8 0.3 0
25.2 0.3 0
25.6 0.3 0
26 0.3 0
26.4 0.3 0
26.8 0.3 0
27.2 0.3 0
27.6 0.3 0
28 0.3 0
28.4 0.3 0
28.8 0.3 0
29.2 0.3 0
29.6 0.3 0
30 0.3 0
30.4 0.3 0
30.8 0.3 0
31.2 0.3 0
31.6 0.3 0
32 0.3 0
32.4 0.3 0
32.8 0.3 0
33.2 0.3 0
33.6 0.3 0
34 0.3 0
34.4 0.3 0
34.8 0.3 0
35.2 0.3 0
35.6 0.3 0
36 0.3 0
36.4 0.3 0
36.8 0.3 0
37.2 0.3 0
37.6 0.3 0
38 0.3 0
38.4 0.3 0
38.8 0.3 0
39.2 0.3 0
39.6 0.3 0
40 0.3 0
40.4 0.3 0
0 0.4 0
0.4 0.4 0
0.8 0.4 0
1.2 0.4 0
1.6 0.4 0
2 0.4 0
2.4 0.4 0
2.8 0.4 0
3.2 0.4 0
3.6 0.4 0
4 0.4 0
4.4 0.4 0
4.8 0.4 0
5.2 0.4 0
5.6 0.4 0
6 0.4 0
6.4 0.4 0
6.8 0.4 0
7.2 0.4 0
7.6 0.4 0
8 0.4 0
8.4 0.4 0
8.8 0.4 0
9.2 0.4 0
9.6 0.4 0
10 0.4 0
10.4 0.4 0
10.8 0.4 0
11.2 0.4 0
11.6 0.4 0
12 0.4 0
12.4 0.4 0
12.8 0.4 0
13.2 0.4 0
13.6 0.4 0
14 0.4 0
14.4 0.4 0
14.8 0.4 0
15.2 0.4 0
15.6 0.4 0
16 0.4 0
16.4 0.4 0
16.8 0.4 0
17.2 0.4 0
17.6 0.4 0
18 0.4 0
18.4 0.4 0
18.8 0.4 0
19.2 0.4 0
19.6 0.4 0
20 0.4 0
20.4 0.4 0
20.8 0.4 0
21.2 0.4 0
21.6 0.4 0
22 0.4 0
22.4 0.4 0
22.8 0.4 0
23.2 0.4 0
23.6 0.4 0
24 0.4 0
24.4 0.4 0
24.8 0.4 0
25.2 0.4 0
25.6 0.4 0
26 0.4 0
26.4 0.4 0
26.8 0.4 0
27.2 0.4 0
27.6 0.4 0
28 0.4 0
28.4 0.4 0
28.8 0.4 0
29.2 0.4 0
29.6 0.4 0
30 0.4 0
30.4 0.4 0
30.8 0.4 0
31.2 0.4 0
31.6 0.4 0
32 0.4 0
32.4 0.4 0
32.8 0.4 0
33.2 0.4 0
33.6 0.4 0
34 0.4 0
34.4 0.4 0
34.8 0.4 0
35.2 0.4 0
35.6 0.4 0
36 0.4 0
36.4 0.4 0
36.8 0.4 0
37.2 0.4 0
37.6 0.4 0
38 0.4 0
38.4 0.4 0
38.8 0.4 0
39.2 0.4 0
39.6 0.4 0
40 0.4 0
40.4 0.4 0
0 0.5 0
0.4 0.5 0
0.8 0.5 0
1.2 0.5 0
1.6 0.5 0
2 0.5 0
2.4 0.5 0
2.8 0.5 0
3.2 0.5 0
3.6 0.5 0
4 0.5 0
4.4 0.5 0
4.8 0.5 0
5.2 0.5 0
5.6 0.5 0
6 0.5 0
6.4 0.5 0
6.8 0.5 0
7.2 0.5 0
7.6 0.5 0
8 0.5 0
8.4 0.5 0
8.8 0.5 0
9.2 0.5 0
9.6 0.5 0
10 0.5 0
10.4 0.5 0
10.8 0.5 0
11.2 0.5 0
11.6 0.5 0
12 0.5 0
12.4 0.5 0
12.8 0.5 0
13.2 0.5 0
13.6 0.5 0
14 0.5 0
14.4 0.5 0
14.8 0.5 0
15.2 0.5 0
15.6 0.5 0
16 0.5 0
16.4 0.5 0
16.8 0.5 0
17.2 0.5 0
17.6 0.5 0
18 0.5 0
18.4 0.5 0
18.8 0.5 0
19.2 0.5 0
19.6 0.5 0
20 0.5 0
20.4 0.5 0
20.8 0.5 0
21.2 0.5 0
21.6 0.5 0
22 0.5 0
22.4 0.5 0
22.8 0.5 0
23.2 0.5 0
23.6 0.5 0
24 0.5 0
24.4 0.5 0
24.8 0.5 0
25.2 0.5 0
25.6 0.5 0
26 0.5 0
26.4 0.5 0
26.8 0.5 0
27.2 0.5 0
27.6 0.5 0
28 0.5 0
28.4 0.5 0
28.8 0.5 0
29.2 0.5 0
29.6 0.5 0
30 0.5 0
30.4 0.5 0
30.8 0.5 0
31.2 0.5 0
31.6 0.5 0
32 0.5 0
32.4 0.5 0
32.8 0.5 0
33.2 0.5 0
33.6 0.5 0
34 0.5 0
34.4 0.5 0
34.8 0.5 0
35.2 0.5 0
35.6 0.5 0
36 0.5 0
36.4 0.5 0
36.8 0.5 0
37.2 0.5 0
37.6 0.5 0
38 0.5 0
38.4 0.5 0
38.8 0.5 0
39.2 0.5 0
39.6 0.5 0
40 0.5 0
40.4 0.5 0
0 0.6 0
0.4 0.6 0
0.8 0.6 0
1.2 0.6 0
1.6 0.6 0
2 0.6 0
2.4 0.6 0
2.8 0.6 0
3.2 0.6 0
3.6 0.6 0
4 0.6 0
4.4 0.6 0
4.8 0.6 0
5.2 0.6 0
5.6 0.6 0
6 0.6 0
6.4 0.6 0
6.8 0.6 0
7.2 0.6 0
7.6 0.6 0
8 0.6 0
8.4 0.6 0
8.8 0.6 0
9.2 0.6 0
9.6 0.6 0
10 0.6 0
10.4 0.6 0
10.8 0.6 0
11.2 0.6 0
11.6 0.6 0
12 0.6 0
12.4 0.6 0
12.8 0.6 0
13.2 0.6 0
13.6 0.6 0
14 0.6 0
14.4 0.6 0
14.8 0.6 0
15.2 0.6 0
15.6 0.6 0
16 0.6 0
16.4 0.6 0
16.8 0.6 0
17.2 0.6 0
17.6 0.6 0
18 0.6 0
18.4 0.6 0
18.8 0.6 0
19.2 0.6 0
19.6 0.6 0
20 0.6 0
20.4 0.6 0
20.8 0.6 0
21.2 0.6 0
21.6 0.6 0
22 0.6 0
22.4 0.6 0
22.8 0.6 0
23.2 0.6 0
23.6 0.6 0
24 0.6 0
24.4 0.6 0
24.8 0.6 0
25.2 0.6 0
25.6 0.6 0
26 0.6 0
26.4 0.6 0
26.8 0.6 0
27.2 0.6 0
27.6 0.6 0
28 0.6 0
28.4 0.6 0
28.8 0.6 0
29.2 0.6 0
29.6 0.6 0
30 0.6 0
30.4 0.6 0
30.8 0.6 0
31.2 0.6 0
31.6 0.6 0
32 0.6 0
32.4 0.6 0
32.8 0.6 0
33.2 0.6 0
33.6 0.6 0
34 0.6 0
34.4 0.6 0
34.8 0.6 0
35.2 0.6 0
35.6 0.6 0
36 0.6 0
36.4 0.6 0
36.8 0.6 0
37.2 0.6 0
37.6 0.6 0
38 0.6 0
38.4 0.6 0
38.8 0.6 0
39.2 0.6 0
39.6 0.6 0
40 0.6 0
40.4 0.6 0
0 0.7 0
0.4 0.7 0
0.8 0.7 0
1.2 0.7 0
1.6 0.7 0
2 0.7 0
2.4 0.7 0
2.8 0.7 0
3.2 0.7 0
3.6 0.7 0
4 0.7 0
4.4 0.7 0
4.8 0.7 0
5.2 0.7 0
5.6 0.7 0
6 0.7 0
6.4 0.7 0
6.8 0.7 0
7.2 0.7 0
7.6 0.7 0
8 0.7 0
8.4 0.7 0
8.8 0.7 0
9.2 0.7 0
9.6 0.7 0
10 0.7 0
10.4 0.7 0
10.8 0.7 0
11.2 0.7 0
11.6 0.7 0
12 0.7 0
12.4 0.7 0
12.8 0.7 0
13.2 0.7 0
13.6 0.7 0
14 0.7 0
14.4 0.7 0
14.8 0.7 0
15.2 0.7 0
15.6 0.7 0
16 0.7 0
16.4 0.7 0
16.8 0.7 0
17.2 0.7 0
17.6 0.7 0
18 0.7 0
18.4 0.7 0
18.8 0.7 0
19.2 0.7 0
19.6 0.7 0
20 0.7 0
20.4 0.7 0
20.8 0.7 0
21.2 0.7 0
21.6 0.7 0
22 0.7 0
22.4 0.7 0
22.8 0.7 0
23.2 0.7 0
23.6 0.7 0
24 0.7 0
24.4 0.7 0
24.8 0.7 0
25.2 0.7 0
25.6 0.7 0
26 0.7 0
26.4 0.7 0
26.8 0.7 0
27.2 0.7 0
27.6 0.7 0
28 0.7 0
28.4 0.7 0
28.8 0.7 0
29.2 0.7 0
29.6 0.7 0
30 0.7 0
30.4 0.7 0
30.8 0.7 0
31.2 0.7 0
31.6 0.7 0
32 0.7 0
32.4 0.7 0
32.8 0.7 0
33.2 0.7 0
33.6 0.7 0
34 0.7 0
34.4 0.7 0
34.8 0.7 0
35.2 0.7 0
35.6 0.7 0
36 0.7 0
36.4 0.7 0
36.8 0.7 0
37.2 0.7 0
37.6 0.7 0
38 0.7 0
38.4 0.7 0
38.8 0.7 0
39.2 0.7 0
39.6 0.7 0
40 0.7 0
40.4 0.7 0
0 0.8 0
0.4 0.8 0
0.8 0.8 0
1.2 0.8 0
1.6 0.8 0
2 0.8 0
2.4 0.8 0
2.8 0.8 0
3.2 0.8 0
3.6 0.8 0
4 0.8 0
4.4 0.8 0
4.8 0.8 0
5.2 0.8 0
5.6 0.8 0
6 0.8 0
6.4 0.8 0
6.8 0.8 0
7.2 0.8 0
7.6 0.8 0
8 0.8 0
8.4 0.8 0
8.8 0.8 0
9.2 0.8 0
9.6 0.8 0
10 0.8 0
10.4 0.8 0
10.8 0.8 0
11.2 0.8 0
11.6 0.8 0
12 0.8 0
12.4 0.8 0
12.8 0.8 0
13.2 0.8 0
13.6 0.8 0
14 0.8 0
14.4 0.8 0
14.8 0.8 0
15.2 0.8 0
15.6 0.8 0
16 0.8 0
16.4 0.8 0
16.8 0.8 0
17.2 0.8 0
17.6 0.8 0
18 0.8 0
18.4 0.8 0
18.8 0.8 0
19.2 0.8 0
19.6 0.8 0
20 0.8 0
20.4 0.8 0
20.8 0.8 0
21.2 0.8 0
21.6 0.8 0
22 0.8 0
22.4 0.8 0
22.8 0.8 0
23.2 0.8 0
23.6 0.8 0
24 0.8 0
24.4 0.8 0
24.8 0.8 0
25.2 0.8 0
25.6 0.8 0
26 0.8 0
26.4 0.8 0
26.8 0.8 0
27.2 0.8 0
27.6 0.8 0
28 0.8 0
28.4 0.8 0
28.8 0.8 0
29.2 0.8 0
29.6 0.8 0
30 0.8 0
30.4 0.8 0
30.8 0.8 0
31.2 0.8 0
31.6 0.8 0
32 0.8 0
32.4 0.8 0
32.8 0.8 0
33.2 0.8 0
33.6 0.8 0
34 0.8 0
34.4 0.8 0
34.8 0.8 0
35.2 0.8 0
35.6 0.8 0
36 0.8 0
36.4 0.8 0
36.8 0.8 0
37.2 0.8 0
37.6 0.8 0
38 0.8 0
38.4 0.8 0
38.8 0.8 0
39.2 0.8 0
39.6 0.8 0
40 0.8 0
40.4 0.8 0
0 0.9 0
0.4 0.9 0
0.8 0.9 0
1.2 0.9 0
1.6 0.9 0
2 0.9 0
2.4 0.9 0
2.8 0.9 0
3.2 0.9 0
3.6 0.9 0
4 0.9 0
4.4 0.9 0
4.8 0.9 0
5.2 0.9 0
5.6 0.9 0
6 0.9 0
6.4 0.9 0
6.8 0.9 0
7.2 0.9 0
7.6 0.9 0
8 0.9 0
8.4 0.9 0
8.8 0.9 0
9.2 0.9 0
9.6 0.9 0
10 0.9 0
10.4 0.9 0
10.8 0.9 0
11.2 0.9 0
11.6 0.9 0
12 0.9 0
12.4 0.9 0
12.8 0.9 0
13.2 0.9 0
13.6 0.9 0
14 0.9 0
14.4 0.9 0
14.8 0.9 0
15.2 0.9 0
15.6 0.9 0
16 0.9 0
16.4 0.9 0
16.8 0.9 0
17.2 0.9 0
17.6 0.9 0
18 0.9 0
18.4 0.9 0
18.8 0.9 0
19.2 0.9 0
19.6 0.9 0
20 0.9 0
20.4 0.9 0
20.8 0.9 0
21.2 0.9 0
21.6 0.9 0
22 0.9 0
22.4 0.9 0
22.8 0.9 0
23.2 0.9 0
23.6 0.9 0
24 0.9 0
24.4 0.9 0
24.8 0.9 0
25.2 0.9 0
25.6 0.9 0
26 0.9 0
26.4 0.9 0
26.8 0.9 0
27.2 0.9 0
27.6 0.9 0
28 0.9 0
28.4 0.9 0
28.8 0.9 0
29.2 0.9 0
29.6 0.9 0
30 0.9 0
30.4 0.9 0
30.8 0.9 0
31.2 0.9 0
31.6 0.9 0
32 0.9 0
32.4 0.9 0
32.8 0.9 0
33.2 0.9 0
33.6 0.9 0
34 0.9 0
34.4 0.9 0
34.8 0.9 0
35.2 0.9 0
35.6 0.9 0
36 0.9 0
36.4 0.9 0
36.8 0.9 0
37.2 0.9 0
37.6 0.9 0
38 0.9 0
38.4 0.9 0
38.8 0.9 0
39.2 0.9 0
39.6 0.9 0
40 0.9 0
40.4 0.9 0
0 1 0
0.4 1 0
0.8 1 0
1.2 1 0
1.6 1 0
2 1 0
2.4 1 0
2.8 1 0
3.2 1 0
3.6 1 0
4 1 0
4.4 1 0
4.8 1 0
5.2 1 0
5.6 1 0
6 1 0
6.4 1 0
6.8 1 0
7.2 1 0
7.6 1 0
8 1 0
8.4 1 0
8.8 1 0
9.2 1 0
9.6 1 0
10 1 0
10.4 1 0
10.8 1 0
11.2 1 0
11.6 1 0
12 1 0
12.4 1 0
12.8 1 0
13.2 1 0
13.6 1 0
14 1 0
14.4 1 0
14.8 1 0
15.2 1 0
15.6 1 0
16 1 0
16.4 1 0
16.8 1 0
17.2 1 0
17.6 1 0
18 1 0
18.4 1 0
18.8 1 0
19.2 1 0
19.6 1 0
20 1 0
20.4 1 0
20.8 1 0
21.2 1 0
21.6 1 0
22 1 0
22.4 1 0
22.8 1 0
23.2 1 0
23.6 1 0
24 1 0
24.4 1 0
24.8 1 0
25.2 1 0
25.6 1 0
26 1 0
26.4 1 0
26.8 1 0
27.2 1 0
27.6 1 0
28 1 0
28.4 1 0
28.8 1 0
29.2 1 0
29.6 1 0
30 1 0
30.4 1 0
30.8 1 0
31.2 1 0
31.6 1 0
32 1 0
32.4 1 0
32.8 1 0
33.2 1 0
33.6 1 0
34 1 0
34.4 1 0
34.8 1 0
35.2 1 0
35.6 1 0
36 1 0
36.4 1 0
36.8 1 0
37.2 1 0
37.6 1 0
38 1 0
38.4 1 0
38.8 1 0
39.2 1 0
39.6 1 0
40 1 0
40.4 1 0
0 1.1 0
0.4 1.1 0
0.8 1.1 0
1.2 1.1 0
1.6 1.1 0
2 1.1 0
2.4 1.1 0
2.8 1.1 0
3.2 1.1 0
3.6 1.1 0
4 1.1 0
4.4 1.1 0
4.8 1.1 0
5.2 1.1 0
5.6 1.1 0
6 1.1 0
6.4 1.1 0
6.8 1.1 0
7.2 1.1 0
7.6 1.1 0
8 1.1 0
8.4 1.1 0
8.8 1.1 0
9.2 1.1 0
9.6 1.1 0
10 1.1 0
10.4 1.1 0
10.8 1.1 0
11.2 1.1 0
11.6 1.1 0
12 1.1 0
12.4 1.1 0
12.8 1.1 0
13.2 1.1 0
13.6 1.1 0
14 1.1 0
14.4 1.1 0
14.8 1.1 0
15.2 1.1 0
15.6 1.1 0
16 1.1 0
16.4 1.1 0
16.8 1.1 0
17.2 1.1 0
17.6 1.1 0
18 1.1 0
18.4 1.1 0
18.8 1.1 0
19.2 1.1 0
19.6 1.1 0
20 1.1 0
20.4 1.1 0
20.8 1.1 0
21.2 1.1 0
21.6 1.1 0
22 1.1 0
22.4 1.1 0
22.8 1.1 0
23.2 1.1 0
23.6 1.1 0
24 1.1 0
24.4 1.1 0
24.8 1.1 0
25.2 1.1 0
25.6 1.1 0
26 1.1 0
26.4 1.1 0
26.8 1.1 0
27.2 1.1 0
27.6 1.1 0
28 1.1 0
28.4 1.1 0
28.8 1.1 0
29.2 1.1 0
29.6 1.1 0
30 1.1 0
30.4 1.1 0
30.8 1.1 0
31.2 1.1 0
31.6 1.1 0
32 1.1 0
32.4 1.1 0
32.8 1.1 0
33.2 1.1 0
33.6 1.1 0
34 1.1 0
34.4 1.1 0
34.8 1.1 0
35.2 1.1 0
35.6 1.1 0
36 1.1 0
36.4 1.1 0
36.8 1.1 0
37.2 1.1 0
37.6 1.1 0
38 1.1 0
38.4 1.1 0
38.8 1.1 0
39.2 1.1 0
39.6 1.1 0
40 1.1 0
40.4 1.1 0

POINT_DATA 1224

SCALARS v double
LOOKUP_TABLE default
0
0
0
0
0
0
0
0
0
0
0
0
0
0
0
0
0
0
0
0
0
0
0
0
0
0
0
0
0
0
0
0
0
0
0
0
0
0
0
0
0
0
0
0
0
0
0
0
0
0
0
0
0
0
0
0
0
0
0
0
0
0
0
0
0
0
0
0
0
0
0
0
0
0
0
0
0
0
0
0
0
0
0
0
0
0
0
0
0
0
0
0
0
0
0
0
0
0
0
0
0
0
-0.00751344
0.00751344
0.0146552
0.0162812
0.0149618
0.0125487
0.0100747
0.00795881
0.00628244
0.00499022
0.00399568
0.00322206
0.00261165
0.00212354
0.00172906
0.00140774
0.00114464
0.000928467
0.000750543
0.00060402
0.000483424
0.000384319
0.00030307
0.000236679
0.00018265
0.000138899
0.000103678
7.55181e-05
5.31853e-05
3.56406e-05
2.2014e-05
1.15628e-05
3.69609e-06
-2.30745e-06
-6.65876e-06
-9.64162e-06
-1.15351e-05
-1.25833e-05
-1.29906e-05
-1.29237e-05
-1.25169e-05
-1.18767e-05
-1.10865e-05
-1.02107e-05
-9.29826e-06
-8.38554e-06
-7.49889e-06
-6.6567e-06
-5.87104e-06
-5.14907e-06
-4.49406e-06
-3.90632e-06
-3.38386e-06
-2.92301e-06
-2.51888e-06
-2.16584e-06
-1.8579e-06
-1.58905e-06
-1.35361e-06
-1.14645e-06
-9.63145e-07
-8.00139e-07
-6.54712e-07
-5.24939e-07
-4.09569e-07
-3.07865e-07
-2.19438e-07
-1.44114e-07
-8.18519e-08
-3.28992e-08
3.7822e-09
3.10467e-08
4.99274e-08
6.15506e-08
6.71405e-08
6.78944e-08
6.49458e-08
5.93362e-08
5.19877e-08
4.36823e-08
3.50507e-08
2.65754e-08
1.85935e-08
1.13239e-08
4.73578e-09
-1.05242e-09
-6.43619e-09
-9.8359e-09
-2.00041e-08
-1.55998e-08
-1.10386e-07
-3.50873e-08
-1.28502e-06
-5.04545e-07
-1.73725e-05
-1.02718e-05
-0.000240832
-0.000168725
-0.00349306
-0.00153814
-0.0477939
-0.0477939
-0.00621568
0.00621568
0.0142999
0.0183624
0.0194157
0.0185586
0.0167091
0.0144992
0.0122985
0.0102885
0.00853604
0.00704674
0.00579865
0.00476023
0.00389926
0.0031865
0.00259684
0.00210926
0.00170637
0.00137382
0.00109979
0.000874479
0.000689755
0.000538841
0.000416069
0.000316688
0.000236709
0.000172779
0.00012208
8.22455e-05
5.12954e-05
2.75499e-05
9.66439e-06
-3.75794e-06
-1.35469e-05
-2.0356e-05
-2.47736e-05
-2.73139e-05
-2.84131e-05
-2.84333e-05
-2.767e-05
-2.63602e-05
-2.46913e-05
-2.28095e-05
-2.08263e-05
-1.88259e-05
-1.68694e-05
-1.50005e-05
-1.32485e-05
-1.16313e-05
-1.01585e-05
-8.83253e-06
-7.65088e-06
-6.60691e-06
-5.69111e-06
-4.89197e-06
-4.19681e-06
-3.59253e-06
-3.06631e-06
-2.60617e-06
-2.20147e-06
-1.84326e-06
-1.5244e-06
-1.2396e-06
-9.85245e-07
-7.59094e-07
-5.5994e-07
-3.87293e-07
-2.41034e-07
-1.2101e-07
-2.74189e-08
4.24543e-08
9.24314e-08
1.25424e-07
1.44141e-07
1.51188e-07
1.49069e-07
1.40129e-07
1.26491e-07
1.10002e-07
9.21917e-08
7.42645e-08
5.71071e-08
4.13038e-08
2.70633e-08
1.49e-08
3.62999e-09
-3.67199e-09
-2.15858e-08
-7.59476e-09
-1.55836e-07
8.71139e-08
-1.85448e-06
1.21134e-06
-2.51167e-05
1.33777e-05
-0.000347858
0.000140634
-0.00482114
0.000857439
-0.0612763
-0.0612763
-0.00401801
0.00401801
0.00987185
0.0135457
0.0153924
0.0158461
0.015338
0.0142366
0.0128244
0.0112996
0.00979084
0.00837401
0.00708837
0.00594914
0.0049567
0.00410301
0.00337577
0.00276102
0.00224469
0.00181343
0.00145506
0.00115871
0.000914814
0.000715098
0.000552418
0.000420661
0.00031462
0.000229879
0.000162703
0.000109945
6.89682e-05
3.75489e-05
1.38655e-05
-3.74996e-06
-1.65396e-05
-2.54546e-05
-3.12917e-05
-3.47188e-05
-3.62915e-05
-3.64673e-05
-3.56193e-05
-3.4048e-05
-3.19925e-05
-2.96407e-05
-2.71375e-05
-2.45929e-05
-2.20884e-05
-1.96825e-05
-1.74155e-05
-1.53132e-05
-1.33902e-05
-1.16522e-05
-1.00979e-05
-8.72098e-06
-7.51096e-06
-6.45457e-06
-5.53662e-06
-4.74093e-06
-4.05116e-06
-3.45156e-06
-2.92767e-06
-2.46682e-06
-2.05853e-06
-1.69458e-06
-1.36907e-06
-1.0781e-06
-8.19424e-07
-5.91981e-07
-3.9559e-07
-2.30227e-07
-9.55945e-08
8.50498e-09
8.51773e-08
1.38129e-07
1.70909e-07
1.86978e-07
1.89684e-07
1.82199e-07
1.6744e-07
1.47983e-07
1.26012e-07
1.03288e-07
8.11418e-08
6.04968e-08
4.18408e-08
2.57714e-08
1.12348e-08
1.67595e-09
-1.89293e-08
1.08556e-09
-1.60247e-07
2.08633e-07
-1.935e-06
2.992e-06
-2.5971e-05
3.68136e-05
-0.00034516
0.000398221
-0.0043911
0.00284641
-0.0516335
-0.0516335
-0.00195406
0.00195406
0.00490746
0.00691944
0.00813033
0.00869009
0.00874624
0.00843554
0.00787797
0.00717311
0.0063989
0.00561271
0.00485392
0.00414728
0.00350642
0.00293696
0.00243903
0.00200932
0.0016425
0.00133227
0.00107202
0.000855298
0.000676059
0.000528789
0.000408574
0.000311095
0.000232607
0.000169889
0.000120194
8.11941e-05
5.09278e-05
2.77503e-05
1.02869e-05
-2.6376e-06
-1.19665e-05
-1.84466e-05
-2.26863e-05
-2.51831e-05
-2.63433e-05
-2.64972e-05
-2.59121e-05
-2.48026e-05
-2.33393e-05
-2.16565e-05
-1.98583e-05
-1.80238e-05
-1.62125e-05
-1.44671e-05
-1.28175e-05
-1.12834e-05
-9.87604e-06
-8.60061e-06
-7.45718e-06
-6.44204e-06
-5.54852e-06
-4.76779e-06
-4.0895e-06
-3.50237e-06
-2.99479e-06
-2.55531e-06
-2.17317e-06
-1.83868e-06
-1.5436e-06
-1.28125e-06
-1.04663e-06
-8.36308e-07
-6.482e-07
-4.81278e-07
-3.35292e-07
-2.1043e-07
-1.06614e-07
-2.38634e-08
3.86459e-08
8.2941e-08
1.11373e-07
1.26432e-07
1.30637e-07
1.26445e-07
1.16163e-07
1.01865e-07
8.53339e-08
6.80274e-08
5.1059e-08
3.52124e-08
2.09217e-08
8.68945e-09
-2.39928e-09
-9.29888e-09
-2.475e-08
-6.22511e-09
-1.25778e-07
1.90105e-07
-1.36005e-06
2.7303e-06
-1.74185e-05
3.22502e-05
-0.000218944
0.000330186
-0.00260547
0.00238711
-0.029002
-0.029002
-1.45476e-09
1.4543e-09
4.13039e-09
6.59977e-09
8.88791e-09
1.1001e-08
1.29238e-08
1.46264e-08
1.6078e-08
1.72606e-08
1.81751e-08
1.88411e-08
1.92907e-08
1.95611e-08
1.96877e-08
1.97002e-08
1.96214e-08
1.9468e-08
1.92528e-08
1.8986e-08
1.86769e-08
1.83347e-08
1.79686e-08
1.75874e-08
1.71999e-08
1.68143e-08
1.64385e-08
1.60798e-08
1.5747e-08
1.54442e-08
1.51933e-08
1.497e-08
1.48854e-08
1.47219e-08
1.4587e-08
1.44833e-08
1.44168e-08
1.43924e-08
1.44129e-08
1.44794e-08
1.45908e-08
1.47425e-08
1.49263e-08
1.5129e-08
1.53322e-08
1.55115e-08
1.56368e-08
1.56718e-08
1.55756e-08
1.53026e-08
1.48047e-08
1.40327e-08
1.29398e-08
1.1486e-08
9.6445e-09
7.40915e-09
4.80317e-09
1.88669e-09
-1.23811e-09
-4.42676e-09
-7.49899e-09
-1.0253e-08
-1.24873e-08
-1.40273e-08
-1.47531e-08
-1.46251e-08
-1.36978e-08
-1.21193e-08
-1.01275e-08
-8.03819e-09
-6.21118e-09
-4.94071e-09
-4.44646e-09
-4.87377e-09
-6.25825e-09
-8.53317e-09
-1.15444e-08
-1.50732e-08
-1.88655e-08
-2.26638e-08
-2.62374e-08
-2.94034e-08
-3.20454e-08
-3.41191e-08
-3.56358e-08
-3.66272e-08
-3.72563e-08
-3.74626e-08
-3.76839e-08
-3.73646e-08
-3.7355e-08
-3.69384e-08
-3.6828e-08
-3.63127e-08
-3.58524e-08
-3.48635e-08
-3.27481e-08
-3.09315e-08
-2.18156e-08
-2.34816e-08
2.0327e-08
2.02319e-08
0.00195405
-0.00195405
-0.00490745
-0.00691943
-0.00813031
-0.00869007
-0.00874621
-0.00843551
-0.00787794
-0.00717307
-0.00639887
-0.00561268
-0.00485388
-0.00414724
-0.00350639
-0.00293692
-0.00243899
-0.00200928
-0.00164247
-0.00133223
-0.00107198
-0.000855263
-0.000676025
-0.000528755
-0.000408541
-0.000311063
-0.000232576
-0.000169858
-0.000120164
-8.11642e-05
-5.08983e-05
-2.77212e-05
-1.02579e-05
2.66644e-06
1.19952e-05
1.84751e-05
2.27147e-05
2.52115e-05
2.63718e-05
2.65258e-05
2.59409e-05
2.48316e-05
2.33687e-05
2.16862e-05
1.98883e-05
1.80542e-05
1.6243e-05
1.44976e-05
1.28478e-05
1.13131e-05
9.90474e-06
8.6278e-06
7.48227e-06
6.46436e-06
5.56736e-06
4.78244e-06
4.0993e-06
3.50678e-06
2.99346e-06
2.54817e-06
2.16047e-06
1.82106e-06
1.52203e-06
1.257e-06
1.02118e-06
8.11153e-07
6.24713e-07
4.60534e-07
3.1792e-07
1.96472e-07
9.54659e-08
1.4454e-08
-4.78002e-08
-9.35162e-08
-1.25061e-07
-1.44769e-07
-1.54862e-07
-1.57393e-07
-1.5421e-07
-1.46933e-07
-1.36944e-07
-1.25393e-07
-1.13205e-07
-1.01114e-07
-8.95873e-08
-7.92005e-08
-6.93082e-08
-6.30432e-08
-4.79781e-08
-6.65856e-08
5.32526e-08
-2.62506e-07
1.2882e-06
-2.80176e-06
1.73483e-05
-3.23189e-05
0.000218879
-0.000330246
0.00260543
-0.00238715
0.029002
0.029002
0.00401801
-0.00401801
-0.00987184
-0.0135457
-0.0153924
-0.0158461
-0.0153379
-0.0142366
-0.0128243
-0.0112996
-0.00979081
-0.00837397
-0.00708834
-0.00594911
-0.00495666
-0.00410297
-0.00337573
-0.00276099
-0.00224466
-0.0018134
-0.00145503
-0.00115867
-0.000914784
-0.000715068
-0.000552388
-0.000420632
-0.000314592
-0.000229851
-0.000162675
-0.000109918
-6.89411e-05
-3.7522e-05
-1.38387e-05
3.77692e-06
1.65667e-05
2.54816e-05
3.13187e-05
3.47458e-05
3.63185e-05
3.64944e-05
3.56465e-05
3.40754e-05
3.20201e-05
2.96685e-05
2.71655e-05
2.46211e-05
2.21166e-05
1.97106e-05
1.74433e-05
1.53404e-05
1.34165e-05
1.16771e-05
1.01211e-05
8.74189e-06
7.52906e-06
6.46935e-06
5.54762e-06
4.74779e-06
4.05368e-06
3.44976e-06
2.9218e-06
2.4574e-06
2.0463e-06
1.68046e-06
1.35405e-06
1.06315e-06
8.05352e-07
5.79332e-07
3.84581e-07
2.20616e-07
8.6758e-08
-1.74912e-08
-9.54869e-08
-1.5095e-07
-1.87367e-07
-2.0803e-07
-2.16036e-07
-2.14246e-07
-2.05247e-07
-1.91311e-07
-1.7437e-07
-1.56009e-07
-1.37467e-07
-1.1969e-07
-1.03232e-07
-8.87734e-08
-7.53199e-08
-6.68107e-08
-4.67766e-08
-6.8114e-08
9.34839e-08
-2.76279e-07
1.86794e-06
-3.05953e-06
2.59048e-05
-3.68788e-05
0.000345098
-0.000398277
0.00439106
-0.00284643
0.0516335
0.0516335
0.00621567
-0.00621567
-0.0142999
-0.0183624
-0.0194157
-0.0185586
-0.016709
-0.0144991
-0.0122985
-0.0102885
-0.00853602
-0.00704672
-0.00579862
-0.0047602
-0.00389923
-0.00318647
-0.00259681
-0.00210923
-0.00170634
-0.0013738
-0.00109977
-0.000874454
-0.00068973
-0.000538816
-0.000416044
-0.000316664
-0.000236685
-0.000172755
-0.000122056
-8.22221e-05
-5.12722e-05
-2.75267e-05
-9.64124e-06
3.78167e-06
1.35709e-05
2.038e-05
2.47975e-05
2.73378e-05
2.84369e-05
2.84572e-05
2.76939e-05
2.63841e-05
2.47154e-05
2.28336e-05
2.08505e-05
1.88501e-05
1.68936e-05
1.50246e-05
1.32722e-05
1.16547e-05
1.01812e-05
8.85441e-06
7.67165e-06
6.62627e-06
5.70877e-06
4.90764e-06
4.21022e-06
3.60349e-06
3.07469e-06
2.61197e-06
2.20481e-06
1.84438e-06
1.52363e-06
1.23734e-06
9.81893e-07
7.54996e-07
5.55324e-07
3.82249e-07
2.35487e-07
1.14692e-07
1.99589e-08
-5.17469e-08
-1.04158e-07
-1.40162e-07
-1.62385e-07
-1.73305e-07
-1.75264e-07
-1.70433e-07
-1.60767e-07
-1.47971e-07
-1.33473e-07
-1.18425e-07
-1.03695e-07
-8.99315e-08
-7.74478e-08
-6.67509e-08
-5.67278e-08
-5.0904e-08
-3.39896e-08
-4.98201e-08
9.76424e-08
-1.45922e-07
1.79483e-06
-1.27079e-06
2.50573e-05
-1.34357e-05
0.000347802
-0.000140684
0.0048211
-0.000857457
0.0612763
0.0612763
0.00751344
-0.00751344
-0.0146552
-0.0162812
-0.0149618
-0.0125487
-0.0100746
-0.00795879
-0.00628242
-0.00499021
-0.00399566
-0.00322205
-0.00261163
-0.00212353
-0.00172904
-0.00140773
-0.00114462
-0.00092845
-0.000750526
-0.000604003
-0.000483407
-0.000384302
-0.000303053
-0.000236662
-0.000182633
-0.000138882
-0.000103661
-7.55015e-05
-5.31688e-05
-3.56241e-05
-2.19975e-05
-1.15463e-05
-3.67959e-06
2.32472e-06
6.67611e-06
9.65886e-06
1.15522e-05
1.26003e-05
1.30076e-05
1.29407e-05
1.25339e-05
1.18937e-05
1.11035e-05
1.02278e-05
9.31531e-06
8.40258e-06
7.5159e-06
6.67365e-06
5.8879e-06
5.16579e-06
4.51059e-06
3.92258e-06
3.39977e-06
2.93846e-06
2.53375e-06
2.17999e-06
1.87119e-06
1.60135e-06
1.36479e-06
1.1564e-06
9.71795e-07
8.07441e-07
6.60644e-07
5.29492e-07
4.12739e-07
3.09635e-07
2.19768e-07
1.42936e-07
7.91021e-08
2.86128e-08
-9.87991e-09
-3.92138e-08
-6.02936e-08
-7.42415e-08
-8.22415e-08
-8.54355e-08
-8.48974e-08
-8.16114e-08
-7.64519e-08
-7.01669e-08
-6.33703e-08
-5.6544e-08
-5.00377e-08
-4.41042e-08
-3.88317e-08
-3.44411e-08
-3.02296e-08
-2.80529e-08
-1.88891e-08
-2.48906e-08
6.86514e-08
-6.8036e-09
1.24224e-06
4.61678e-07
1.73291e-05
1.02292e-05
0.00024079
0.000168687
0.00349303
0.00153812
0.0477938
0.0477938
0
0
0
0
0
0
0
0
0
0
0
0
0
0
0
0
0
0
0
0
0
0
0
0
0
0
0
0
0
0
0
0
0
0
0
0
0
0
0
0
0
0
0
0
0
0
0
0
0
0
0
0
0
0
0
0
0
0
0
0
0
0
0
0
0
0
0
0
0
0
0
0
0
0
0
0
0
0
0
0
0
0
0
0
0
0
0
0
0
0
0
0
0
0
0
0
0
0
0
0
0
0
0
0
0
0
0
0
0
0
0
0
0
0
0
0
0
0
0
0
0
0
0
0
0
0
0
0
0
0
0
0
0
0
0
0
0
0
0
0
0
0
0
0
0
0
0
0
0
0
0
0
0
0
0
0
0
0
0
0
0
0
0
0
0
0
0
0
0
0
0
0
0
0
0
0
0
0
0
0
0
0
0
0
0
0
0
0
0
0
0
0
0
0
0
0
0
0
0
0
0
0
0
0
