# vtk DataFile Version 2.0
FlowField
ASCII
DATASET STRUCTURED_GRID
DIMENSIONS 102 13 1 
POINTS 1326 double
0 0 0
0.3 0 0
0.6 0 0
0.9 0 0
1.2 0 0
1.5 0 0
1.8 0 0
2.1 0 0
2.4 0 0
2.7 0 0
3 0 0
3.3 0 0
3.6 0 0
3.9 0 0
4.2 0 0
4.5 0 0
4.8 0 0
5.1 0 0
5.4 0 0
5.7 0 0
6 0 0
6.3 0 0
6.6 0 0
6.9 0 0
7.2 0 0
7.5 0 0
7.8 0 0
8.1 0 0
8.4 0 0
8.7 0 0
9 0 0
9.3 0 0
9.6 0 0
9.9 0 0
10.2 0 0
10.5 0 0
10.8 0 0
11.1 0 0
11.4 0 0
11.7 0 0
12 0 0
12.3 0 0
12.6 0 0
12.9 0 0
13.2 0 0
13.5 0 0
13.8 0 0
14.1 0 0
14.4 0 0
14.7 0 0
15 0 0
15.3 0 0
15.6 0 0
15.9 0 0
16.2 0 0
16.5 0 0
16.8 0 0
17.1 0 0
17.4 0 0
17.7 0 0
18 0 0
18.3 0 0
18.6 0 0
18.9 0 0
19.2 0 0
19.5 0 0
19.8 0 0
20.1 0 0
20.4 0 0
20.7 0 0
21 0 0
21.3 0 0
21.6 0 0
21.9 0 0
22.2 0 0
22.5 0 0
22.8 0 0
23.1 0 0
23.4 0 0
23.7 0 0
24 0 0
24.3 0 0
24.6 0 0
24.9 0 0
25.2 0 0
25.5 0 0
25.8 0 0
26.1 0 0
26.4 0 0
26.7 0 0
27 0 0
27.3 0 0
27.6 0 0
27.9 0 0
28.2 0 0
28.5 0 0
28.8 0 0
29.1 0 0
29.4 0 0
29.7 0 0
30 0 0
30.3 0 0
0 0.1 0
0.3 0.1 0
0.6 0.1 0
0.9 0.1 0
1.2 0.1 0
1.5 0.1 0
1.8 0.1 0
2.1 0.1 0
2.4 0.1 0
2.7 0.1 0
3 0.1 0
3.3 0.1 0
3.6 0.1 0
3.9 0.1 0
4.2 0.1 0
4.5 0.1 0
4.8 0.1 0
5.1 0.1 0
5.4 0.1 0
5.7 0.1 0
6 0.1 0
6.3 0.1 0
6.6 0.1 0
6.9 0.1 0
7.2 0.1 0
7.5 0.1 0
7.8 0.1 0
8.1 0.1 0
8.4 0.1 0
8.7 0.1 0
9 0.1 0
9.3 0.1 0
9.6 0.1 0
9.9 0.1 0
10.2 0.1 0
10.5 0.1 0
10.8 0.1 0
11.1 0.1 0
11.4 0.1 0
11.7 0.1 0
12 0.1 0
12.3 0.1 0
12.6 0.1 0
12.9 0.1 0
13.2 0.1 0
13.5 0.1 0
13.8 0.1 0
14.1 0.1 0
14.4 0.1 0
14.7 0.1 0
15 0.1 0
15.3 0.1 0
15.6 0.1 0
15.9 0.1 0
16.2 0.1 0
16.5 0.1 0
16.8 0.1 0
17.1 0.1 0
17.4 0.1 0
17.7 0.1 0
18 0.1 0
18.3 0.1 0
18.6 0.1 0
18.9 0.1 0
19.2 0.1 0
19.5 0.1 0
19.8 0.1 0
20.1 0.1 0
20.4 0.1 0
20.7 0.1 0
21 0.1 0
21.3 0.1 0
21.6 0.1 0
21.9 0.1 0
22.2 0.1 0
22.5 0.1 0
22.8 0.1 0
23.1 0.1 0
23.4 0.1 0
23.7 0.1 0
24 0.1 0
24.3 0.1 0
24.6 0.1 0
24.9 0.1 0
25.2 0.1 0
25.5 0.1 0
25.8 0.1 0
26.1 0.1 0
26.4 0.1 0
26.7 0.1 0
27 0.1 0
27.3 0.1 0
27.6 0.1 0
27.9 0.1 0
28.2 0.1 0
28.5 0.1 0
28.8 0.1 0
29.1 0.1 0
29.4 0.1 0
29.7 0.1 0
30 0.1 0
30.3 0.1 0
0 0.2 0
0.3 0.2 0
0.6 0.2 0
0.9 0.2 0
1.2 0.2 0
1.5 0.2 0
1.8 0.2 0
2.1 0.2 0
2.4 0.2 0
2.7 0.2 0
3 0.2 0
3.3 0.2 0
3.6 0.2 0
3.9 0.2 0
4.2 0.2 0
4.5 0.2 0
4.8 0.2 0
5.1 0.2 0
5.4 0.2 0
5.7 0.2 0
6 0.2 0
6.3 0.2 0
6.6 0.2 0
6.9 0.2 0
7.2 0.2 0
7.5 0.2 0
7.8 0.2 0
8.1 0.2 0
8.4 0.2 0
8.7 0.2 0
9 0.2 0
9.3 0.2 0
9.6 0.2 0
9.9 0.2 0
10.2 0.2 0
10.5 0.2 0
10.8 0.2 0
11.1 0.2 0
11.4 0.2 0
11.7 0.2 0
12 0.2 0
12.3 0.2 0
12.6 0.2 0
12.9 0.2 0
13.2 0.2 0
13.5 0.2 0
13.8 0.2 0
14.1 0.2 0
14.4 0.2 0
14.7 0.2 0
15 0.2 0
15.3 0.2 0
15.6 0.2 0
15.9 0.2 0
16.2 0.2 0
16.5 0.2 0
16.8 0.2 0
17.1 0.2 0
17.4 0.2 0
17.7 0.2 0
18 0.2 0
18.3 0.2 0
18.6 0.2 0
18.9 0.2 0
19.2 0.2 0
19.5 0.2 0
19.8 0.2 0
20.1 0.2 0
20.4 0.2 0
20.7 0.2 0
21 0.2 0
21.3 0.2 0
21.6 0.2 0
21.9 0.2 0
22.2 0.2 0
22.5 0.2 0
22.8 0.2 0
23.1 0.2 0
23.4 0.2 0
23.7 0.2 0
24 0.2 0
24.3 0.2 0
24.6 0.2 0
24.9 0.2 0
25.2 0.2 0
25.5 0.2 0
25.8 0.2 0
26.1 0.2 0
26.4 0.2 0
26.7 0.2 0
27 0.2 0
27.3 0.2 0
27.6 0.2 0
27.9 0.2 0
28.2 0.2 0
28.5 0.2 0
28.8 0.2 0
29.1 0.2 0
29.4 0.2 0
29.7 0.2 0
30 0.2 0
30.3 0.2 0
0 0.3 0
0.3 0.3 0
0.6 0.3 0
0.9 0.3 0
1.2 0.3 0
1.5 0.3 0
1.8 0.3 0
2.1 0.3 0
2.4 0.3 0
2.7 0.3 0
3 0.3 0
3.3 0.3 0
3.6 0.3 0
3.9 0.3 0
4.2 0.3 0
4.5 0.3 0
4.8 0.3 0
5.1 0.3 0
5.4 0.3 0
5.7 0.3 0
6 0.3 0
6.3 0.3 0
6.6 0.3 0
6.9 0.3 0
7.2 0.3 0
7.5 0.3 0
7.8 0.3 0
8.1 0.3 0
8.4 0.3 0
8.7 0.3 0
9 0.3 0
9.3 0.3 0
9.6 0.3 0
9.9 0.3 0
10.2 0.3 0
10.5 0.3 0
10.8 0.3 0
11.1 0.3 0
11.4 0.3 0
11.7 0.3 0
12 0.3 0
12.3 0.3 0
12.6 0.3 0
12.9 0.3 0
13.2 0.3 0
13.5 0.3 0
13.8 0.3 0
14.1 0.3 0
14.4 0.3 0
14.7 0.3 0
15 0.3 0
15.3 0.3 0
15.6 0.3 0
15.9 0.3 0
16.2 0.3 0
16.5 0.3 0
16.8 0.3 0
17.1 0.3 0
17.4 0.3 0
17.7 0.3 0
18 0.3 0
18.3 0.3 0
18.6 0.3 0
18.9 0.3 0
19.2 0.3 0
19.5 0.3 0
19.8 0.3 0
20.1 0.3 0
20.4 0.3 0
20.7 0.3 0
21 0.3 0
21.3 0.3 0
21.6 0.3 0
21.9 0.3 0
22.2 0.3 0
22.5 0.3 0
22.8 0.3 0
23.1 0.3 0
23.4 0.3 0
23.7 0.3 0
24 0.3 0
24.3 0.3 0
24.6 0.3 0
24.9 0.3 0
25.2 0.3 0
25.5 0.3 0
25.8 0.3 0
26.1 0.3 0
26.4 0.3 0
26.7 0.3 0
27 0.3 0
27.3 0.3 0
27.6 0.3 0
27.9 0.3 0
28.2 0.3 0
28.5 0.3 0
28.8 0.3 0
29.1 0.3 0
29.4 0.3 0
29.7 0.3 0
30 0.3 0
30.3 0.3 0
0 0.4 0
0.3 0.4 0
0.6 0.4 0
0.9 0.4 0
1.2 0.4 0
1.5 0.4 0
1.8 0.4 0
2.1 0.4 0
2.4 0.4 0
2.7 0.4 0
3 0.4 0
3.3 0.4 0
3.6 0.4 0
3.9 0.4 0
4.2 0.4 0
4.5 0.4 0
4.8 0.4 0
5.1 0.4 0
5.4 0.4 0
5.7 0.4 0
6 0.4 0
6.3 0.4 0
6.6 0.4 0
6.9 0.4 0
7.2 0.4 0
7.5 0.4 0
7.8 0.4 0
8.1 0.4 0
8.4 0.4 0
8.7 0.4 0
9 0.4 0
9.3 0.4 0
9.6 0.4 0
9.9 0.4 0
10.2 0.4 0
10.5 0.4 0
10.8 0.4 0
11.1 0.4 0
11.4 0.4 0
11.7 0.4 0
12 0.4 0
12.3 0.4 0
12.6 0.4 0
12.9 0.4 0
13.2 0.4 0
13.5 0.4 0
13.8 0.4 0
14.1 0.4 0
14.4 0.4 0
14.7 0.4 0
15 0.4 0
15.3 0.4 0
15.6 0.4 0
15.9 0.4 0
16.2 0.4 0
16.5 0.4 0
16.8 0.4 0
17.1 0.4 0
17.4 0.4 0
17.7 0.4 0
18 0.4 0
18.3 0.4 0
18.6 0.4 0
18.9 0.4 0
19.2 0.4 0
19.5 0.4 0
19.8 0.4 0
20.1 0.4 0
20.4 0.4 0
20.7 0.4 0
21 0.4 0
21.3 0.4 0
21.6 0.4 0
21.9 0.4 0
22.2 0.4 0
22.5 0.4 0
22.8 0.4 0
23.1 0.4 0
23.4 0.4 0
23.7 0.4 0
24 0.4 0
24.3 0.4 0
24.6 0.4 0
24.9 0.4 0
25.2 0.4 0
25.5 0.4 0
25.8 0.4 0
26.1 0.4 0
26.4 0.4 0
26.7 0.4 0
27 0.4 0
27.3 0.4 0
27.6 0.4 0
27.9 0.4 0
28.2 0.4 0
28.5 0.4 0
28.8 0.4 0
29.1 0.4 0
29.4 0.4 0
29.7 0.4 0
30 0.4 0
30.3 0.4 0
0 0.5 0
0.3 0.5 0
0.6 0.5 0
0.9 0.5 0
1.2 0.5 0
1.5 0.5 0
1.8 0.5 0
2.1 0.5 0
2.4 0.5 0
2.7 0.5 0
3 0.5 0
3.3 0.5 0
3.6 0.5 0
3.9 0.5 0
4.2 0.5 0
4.5 0.5 0
4.8 0.5 0
5.1 0.5 0
5.4 0.5 0
5.7 0.5 0
6 0.5 0
6.3 0.5 0
6.6 0.5 0
6.9 0.5 0
7.2 0.5 0
7.5 0.5 0
7.8 0.5 0
8.1 0.5 0
8.4 0.5 0
8.7 0.5 0
9 0.5 0
9.3 0.5 0
9.6 0.5 0
9.9 0.5 0
10.2 0.5 0
10.5 0.5 0
10.8 0.5 0
11.1 0.5 0
11.4 0.5 0
11.7 0.5 0
12 0.5 0
12.3 0.5 0
12.6 0.5 0
12.9 0.5 0
13.2 0.5 0
13.5 0.5 0
13.8 0.5 0
14.1 0.5 0
14.4 0.5 0
14.7 0.5 0
15 0.5 0
15.3 0.5 0
15.6 0.5 0
15.9 0.5 0
16.2 0.5 0
16.5 0.5 0
16.8 0.5 0
17.1 0.5 0
17.4 0.5 0
17.7 0.5 0
18 0.5 0
18.3 0.5 0
18.6 0.5 0
18.9 0.5 0
19.2 0.5 0
19.5 0.5 0
19.8 0.5 0
20.1 0.5 0
20.4 0.5 0
20.7 0.5 0
21 0.5 0
21.3 0.5 0
21.6 0.5 0
21.9 0.5 0
22.2 0.5 0
22.5 0.5 0
22.8 0.5 0
23.1 0.5 0
23.4 0.5 0
23.7 0.5 0
24 0.5 0
24.3 0.5 0
24.6 0.5 0
24.9 0.5 0
25.2 0.5 0
25.5 0.5 0
25.8 0.5 0
26.1 0.5 0
26.4 0.5 0
26.7 0.5 0
27 0.5 0
27.3 0.5 0
27.6 0.5 0
27.9 0.5 0
28.2 0.5 0
28.5 0.5 0
28.8 0.5 0
29.1 0.5 0
29.4 0.5 0
29.7 0.5 0
30 0.5 0
30.3 0.5 0
0 0.6 0
0.3 0.6 0
0.6 0.6 0
0.9 0.6 0
1.2 0.6 0
1.5 0.6 0
1.8 0.6 0
2.1 0.6 0
2.4 0.6 0
2.7 0.6 0
3 0.6 0
3.3 0.6 0
3.6 0.6 0
3.9 0.6 0
4.2 0.6 0
4.5 0.6 0
4.8 0.6 0
5.1 0.6 0
5.4 0.6 0
5.7 0.6 0
6 0.6 0
6.3 0.6 0
6.6 0.6 0
6.9 0.6 0
7.2 0.6 0
7.5 0.6 0
7.8 0.6 0
8.1 0.6 0
8.4 0.6 0
8.7 0.6 0
9 0.6 0
9.3 0.6 0
9.6 0.6 0
9.9 0.6 0
10.2 0.6 0
10.5 0.6 0
10.8 0.6 0
11.1 0.6 0
11.4 0.6 0
11.7 0.6 0
12 0.6 0
12.3 0.6 0
12.6 0.6 0
12.9 0.6 0
13.2 0.6 0
13.5 0.6 0
13.8 0.6 0
14.1 0.6 0
14.4 0.6 0
14.7 0.6 0
15 0.6 0
15.3 0.6 0
15.6 0.6 0
15.9 0.6 0
16.2 0.6 0
16.5 0.6 0
16.8 0.6 0
17.1 0.6 0
17.4 0.6 0
17.7 0.6 0
18 0.6 0
18.3 0.6 0
18.6 0.6 0
18.9 0.6 0
19.2 0.6 0
19.5 0.6 0
19.8 0.6 0
20.1 0.6 0
20.4 0.6 0
20.7 0.6 0
21 0.6 0
21.3 0.6 0
21.6 0.6 0
21.9 0.6 0
22.2 0.6 0
22.5 0.6 0
22.8 0.6 0
23.1 0.6 0
23.4 0.6 0
23.7 0.6 0
24 0.6 0
24.3 0.6 0
24.6 0.6 0
24.9 0.6 0
25.2 0.6 0
25.5 0.6 0
25.8 0.6 0
26.1 0.6 0
26.4 0.6 0
26.7 0.6 0
27 0.6 0
27.3 0.6 0
27.6 0.6 0
27.9 0.6 0
28.2 0.6 0
28.5 0.6 0
28.8 0.6 0
29.1 0.6 0
29.4 0.6 0
29.7 0.6 0
30 0.6 0
30.3 0.6 0
0 0.7 0
0.3 0.7 0
0.6 0.7 0
0.9 0.7 0
1.2 0.7 0
1.5 0.7 0
1.8 0.7 0
2.1 0.7 0
2.4 0.7 0
2.7 0.7 0
3 0.7 0
3.3 0.7 0
3.6 0.7 0
3.9 0.7 0
4.2 0.7 0
4.5 0.7 0
4.8 0.7 0
5.1 0.7 0
5.4 0.7 0
5.7 0.7 0
6 0.7 0
6.3 0.7 0
6.6 0.7 0
6.9 0.7 0
7.2 0.7 0
7.5 0.7 0
7.8 0.7 0
8.1 0.7 0
8.4 0.7 0
8.7 0.7 0
9 0.7 0
9.3 0.7 0
9.6 0.7 0
9.9 0.7 0
10.2 0.7 0
10.5 0.7 0
10.8 0.7 0
11.1 0.7 0
11.4 0.7 0
11.7 0.7 0
12 0.7 0
12.3 0.7 0
12.6 0.7 0
12.9 0.7 0
13.2 0.7 0
13.5 0.7 0
13.8 0.7 0
14.1 0.7 0
14.4 0.7 0
14.7 0.7 0
15 0.7 0
15.3 0.7 0
15.6 0.7 0
15.9 0.7 0
16.2 0.7 0
16.5 0.7 0
16.8 0.7 0
17.1 0.7 0
17.4 0.7 0
17.7 0.7 0
18 0.7 0
18.3 0.7 0
18.6 0.7 0
18.9 0.7 0
19.2 0.7 0
19.5 0.7 0
19.8 0.7 0
20.1 0.7 0
20.4 0.7 0
20.7 0.7 0
21 0.7 0
21.3 0.7 0
21.6 0.7 0
21.9 0.7 0
22.2 0.7 0
22.5 0.7 0
22.8 0.7 0
23.1 0.7 0
23.4 0.7 0
23.7 0.7 0
24 0.7 0
24.3 0.7 0
24.6 0.7 0
24.9 0.7 0
25.2 0.7 0
25.5 0.7 0
25.8 0.7 0
26.1 0.7 0
26.4 0.7 0
26.7 0.7 0
27 0.7 0
27.3 0.7 0
27.6 0.7 0
27.9 0.7 0
28.2 0.7 0
28.5 0.7 0
28.8 0.7 0
29.1 0.7 0
29.4 0.7 0
29.7 0.7 0
30 0.7 0
30.3 0.7 0
0 0.8 0
0.3 0.8 0
0.6 0.8 0
0.9 0.8 0
1.2 0.8 0
1.5 0.8 0
1.8 0.8 0
2.1 0.8 0
2.4 0.8 0
2.7 0.8 0
3 0.8 0
3.3 0.8 0
3.6 0.8 0
3.9 0.8 0
4.2 0.8 0
4.5 0.8 0
4.8 0.8 0
5.1 0.8 0
5.4 0.8 0
5.7 0.8 0
6 0.8 0
6.3 0.8 0
6.6 0.8 0
6.9 0.8 0
7.2 0.8 0
7.5 0.8 0
7.8 0.8 0
8.1 0.8 0
8.4 0.8 0
8.7 0.8 0
9 0.8 0
9.3 0.8 0
9.6 0.8 0
9.9 0.8 0
10.2 0.8 0
10.5 0.8 0
10.8 0.8 0
11.1 0.8 0
11.4 0.8 0
11.7 0.8 0
12 0.8 0
12.3 0.8 0
12.6 0.8 0
12.9 0.8 0
13.2 0.8 0
13.5 0.8 0
13.8 0.8 0
14.1 0.8 0
14.4 0.8 0
14.7 0.8 0
15 0.8 0
15.3 0.8 0
15.6 0.8 0
15.9 0.8 0
16.2 0.8 0
16.5 0.8 0
16.8 0.8 0
17.1 0.8 0
17.4 0.8 0
17.7 0.8 0
18 0.8 0
18.3 0.8 0
18.6 0.8 0
18.9 0.8 0
19.2 0.8 0
19.5 0.8 0
19.8 0.8 0
20.1 0.8 0
20.4 0.8 0
20.7 0.8 0
21 0.8 0
21.3 0.8 0
21.6 0.8 0
21.9 0.8 0
22.2 0.8 0
22.5 0.8 0
22.8 0.8 0
23.1 0.8 0
23.4 0.8 0
23.7 0.8 0
24 0.8 0
24.3 0.8 0
24.6 0.8 0
24.9 0.8 0
25.2 0.8 0
25.5 0.8 0
25.8 0.8 0
26.1 0.8 0
26.4 0.8 0
26.7 0.8 0
27 0.8 0
27.3 0.8 0
27.6 0.8 0
27.9 0.8 0
28.2 0.8 0
28.5 0.8 0
28.8 0.8 0
29.1 0.8 0
29.4 0.8 0
29.7 0.8 0
30 0.8 0
30.3 0.8 0
0 0.9 0
0.3 0.9 0
0.6 0.9 0
0.9 0.9 0
1.2 0.9 0
1.5 0.9 0
1.8 0.9 0
2.1 0.9 0
2.4 0.9 0
2.7 0.9 0
3 0.9 0
3.3 0.9 0
3.6 0.9 0
3.9 0.9 0
4.2 0.9 0
4.5 0.9 0
4.8 0.9 0
5.1 0.9 0
5.4 0.9 0
5.7 0.9 0
6 0.9 0
6.3 0.9 0
6.6 0.9 0
6.9 0.9 0
7.2 0.9 0
7.5 0.9 0
7.8 0.9 0
8.1 0.9 0
8.4 0.9 0
8.7 0.9 0
9 0.9 0
9.3 0.9 0
9.6 0.9 0
9.9 0.9 0
10.2 0.9 0
10.5 0.9 0
10.8 0.9 0
11.1 0.9 0
11.4 0.9 0
11.7 0.9 0
12 0.9 0
12.3 0.9 0
12.6 0.9 0
12.9 0.9 0
13.2 0.9 0
13.5 0.9 0
13.8 0.9 0
14.1 0.9 0
14.4 0.9 0
14.7 0.9 0
15 0.9 0
15.3 0.9 0
15.6 0.9 0
15.9 0.9 0
16.2 0.9 0
16.5 0.9 0
16.8 0.9 0
17.1 0.9 0
17.4 0.9 0
17.7 0.9 0
18 0.9 0
18.3 0.9 0
18.6 0.9 0
18.9 0.9 0
19.2 0.9 0
19.5 0.9 0
19.8 0.9 0
20.1 0.9 0
20.4 0.9 0
20.7 0.9 0
21 0.9 0
21.3 0.9 0
21.6 0.9 0
21.9 0.9 0
22.2 0.9 0
22.5 0.9 0
22.8 0.9 0
23.1 0.9 0
23.4 0.9 0
23.7 0.9 0
24 0.9 0
24.3 0.9 0
24.6 0.9 0
24.9 0.9 0
25.2 0.9 0
25.5 0.9 0
25.8 0.9 0
26.1 0.9 0
26.4 0.9 0
26.7 0.9 0
27 0.9 0
27.3 0.9 0
27.6 0.9 0
27.9 0.9 0
28.2 0.9 0
28.5 0.9 0
28.8 0.9 0
29.1 0.9 0
29.4 0.9 0
29.7 0.9 0
30 0.9 0
30.3 0.9 0
0 1 0
0.3 1 0
0.6 1 0
0.9 1 0
1.2 1 0
1.5 1 0
1.8 1 0
2.1 1 0
2.4 1 0
2.7 1 0
3 1 0
3.3 1 0
3.6 1 0
3.9 1 0
4.2 1 0
4.5 1 0
4.8 1 0
5.1 1 0
5.4 1 0
5.7 1 0
6 1 0
6.3 1 0
6.6 1 0
6.9 1 0
7.2 1 0
7.5 1 0
7.8 1 0
8.1 1 0
8.4 1 0
8.7 1 0
9 1 0
9.3 1 0
9.6 1 0
9.9 1 0
10.2 1 0
10.5 1 0
10.8 1 0
11.1 1 0
11.4 1 0
11.7 1 0
12 1 0
12.3 1 0
12.6 1 0
12.9 1 0
13.2 1 0
13.5 1 0
13.8 1 0
14.1 1 0
14.4 1 0
14.7 1 0
15 1 0
15.3 1 0
15.6 1 0
15.9 1 0
16.2 1 0
16.5 1 0
16.8 1 0
17.1 1 0
17.4 1 0
17.7 1 0
18 1 0
18.3 1 0
18.6 1 0
18.9 1 0
19.2 1 0
19.5 1 0
19.8 1 0
20.1 1 0
20.4 1 0
20.7 1 0
21 1 0
21.3 1 0
21.6 1 0
21.9 1 0
22.2 1 0
22.5 1 0
22.8 1 0
23.1 1 0
23.4 1 0
23.7 1 0
24 1 0
24.3 1 0
24.6 1 0
24.9 1 0
25.2 1 0
25.5 1 0
25.8 1 0
26.1 1 0
26.4 1 0
26.7 1 0
27 1 0
27.3 1 0
27.6 1 0
27.9 1 0
28.2 1 0
28.5 1 0
28.8 1 0
29.1 1 0
29.4 1 0
29.7 1 0
30 1 0
30.3 1 0
0 1.1 0
0.3 1.1 0
0.6 1.1 0
0.9 1.1 0
1.2 1.1 0
1.5 1.1 0
1.8 1.1 0
2.1 1.1 0
2.4 1.1 0
2.7 1.1 0
3 1.1 0
3.3 1.1 0
3.6 1.1 0
3.9 1.1 0
4.2 1.1 0
4.5 1.1 0
4.8 1.1 0
5.1 1.1 0
5.4 1.1 0
5.7 1.1 0
6 1.1 0
6.3 1.1 0
6.6 1.1 0
6.9 1.1 0
7.2 1.1 0
7.5 1.1 0
7.8 1.1 0
8.1 1.1 0
8.4 1.1 0
8.7 1.1 0
9 1.1 0
9.3 1.1 0
9.6 1.1 0
9.9 1.1 0
10.2 1.1 0
10.5 1.1 0
10.8 1.1 0
11.1 1.1 0
11.4 1.1 0
11.7 1.1 0
12 1.1 0
12.3 1.1 0
12.6 1.1 0
12.9 1.1 0
13.2 1.1 0
13.5 1.1 0
13.8 1.1 0
14.1 1.1 0
14.4 1.1 0
14.7 1.1 0
15 1.1 0
15.3 1.1 0
15.6 1.1 0
15.9 1.1 0
16.2 1.1 0
16.5 1.1 0
16.8 1.1 0
17.1 1.1 0
17.4 1.1 0
17.7 1.1 0
18 1.1 0
18.3 1.1 0
18.6 1.1 0
18.9 1.1 0
19.2 1.1 0
19.5 1.1 0
19.8 1.1 0
20.1 1.1 0
20.4 1.1 0
20.7 1.1 0
21 1.1 0
21.3 1.1 0
21.6 1.1 0
21.9 1.1 0
22.2 1.1 0
22.5 1.1 0
22.8 1.1 0
23.1 1.1 0
23.4 1.1 0
23.7 1.1 0
24 1.1 0
24.3 1.1 0
24.6 1.1 0
24.9 1.1 0
25.2 1.1 0
25.5 1.1 0
25.8 1.1 0
26.1 1.1 0
26.4 1.1 0
26.7 1.1 0
27 1.1 0
27.3 1.1 0
27.6 1.1 0
27.9 1.1 0
28.2 1.1 0
28.5 1.1 0
28.8 1.1 0
29.1 1.1 0
29.4 1.1 0
29.7 1.1 0
30 1.1 0
30.3 1.1 0
0 1.2 0
0.3 1.2 0
0.6 1.2 0
0.9 1.2 0
1.2 1.2 0
1.5 1.2 0
1.8 1.2 0
2.1 1.2 0
2.4 1.2 0
2.7 1.2 0
3 1.2 0
3.3 1.2 0
3.6 1.2 0
3.9 1.2 0
4.2 1.2 0
4.5 1.2 0
4.8 1.2 0
5.1 1.2 0
5.4 1.2 0
5.7 1.2 0
6 1.2 0
6.3 1.2 0
6.6 1.2 0
6.9 1.2 0
7.2 1.2 0
7.5 1.2 0
7.8 1.2 0
8.1 1.2 0
8.4 1.2 0
8.7 1.2 0
9 1.2 0
9.3 1.2 0
9.6 1.2 0
9.9 1.2 0
10.2 1.2 0
10.5 1.2 0
10.8 1.2 0
11.1 1.2 0
11.4 1.2 0
11.7 1.2 0
12 1.2 0
12.3 1.2 0
12.6 1.2 0
12.9 1.2 0
13.2 1.2 0
13.5 1.2 0
13.8 1.2 0
14.1 1.2 0
14.4 1.2 0
14.7 1.2 0
15 1.2 0
15.3 1.2 0
15.6 1.2 0
15.9 1.2 0
16.2 1.2 0
16.5 1.2 0
16.8 1.2 0
17.1 1.2 0
17.4 1.2 0
17.7 1.2 0
18 1.2 0
18.3 1.2 0
18.6 1.2 0
18.9 1.2 0
19.2 1.2 0
19.5 1.2 0
19.8 1.2 0
20.1 1.2 0
20.4 1.2 0
20.7 1.2 0
21 1.2 0
21.3 1.2 0
21.6 1.2 0
21.9 1.2 0
22.2 1.2 0
22.5 1.2 0
22.8 1.2 0
23.1 1.2 0
23.4 1.2 0
23.7 1.2 0
24 1.2 0
24.3 1.2 0
24.6 1.2 0
24.9 1.2 0
25.2 1.2 0
25.5 1.2 0
25.8 1.2 0
26.1 1.2 0
26.4 1.2 0
26.7 1.2 0
27 1.2 0
27.3 1.2 0
27.6 1.2 0
27.9 1.2 0
28.2 1.2 0
28.5 1.2 0
28.8 1.2 0
29.1 1.2 0
29.4 1.2 0
29.7 1.2 0
30 1.2 0
30.3 1.2 0

POINT_DATA 1326

SCALARS p double
LOOKUP_TABLE default
1.16425
1.16425
1.09941
1.05518
1.01535
0.978777
0.945725
0.916197
0.889841
0.866132
0.84453
0.824567
0.805874
0.788175
0.771268
0.755008
0.739289
0.724034
0.709181
0.694687
0.680512
0.666627
0.653006
0.639628
0.626472
0.613521
0.600762
0.588179
0.57576
0.563494
0.551372
0.539385
0.527526
0.515789
0.50417
0.492665
0.481273
0.469992
0.458821
0.447757
0.436799
0.425942
0.415181
0.404511
0.393924
0.383413
0.372968
0.362582
0.352246
0.341953
0.331693
0.321462
0.311253
0.301062
0.290884
0.280717
0.270556
0.260402
0.250251
0.240103
0.229958
0.219813
0.20967
0.199527
0.189385
0.179243
0.169101
0.158959
0.148818
0.138676
0.128535
0.118393
0.108252
0.0981101
0.0879686
0.0778271
0.0676857
0.0575442
0.0474027
0.0372612
0.0271197
0.0169782
0.00683676
-0.00330472
-0.0134462
-0.0235877
-0.0337291
-0.0438706
-0.0540121
-0.0641535
-0.074295
-0.0844365
-0.0945779
-0.104719
-0.114861
-0.125002
-0.135144
-0.145285
-0.155427
-0.165569
-0.175701
0.175701
1.16425
1.16425
1.09941
1.05518
1.01535
0.978777
0.945725
0.916197
0.889841
0.866132
0.84453
0.824567
0.805874
0.788175
0.771268
0.755008
0.739289
0.724034
0.709181
0.694687
0.680512
0.666627
0.653006
0.639628
0.626472
0.613521
0.600762
0.588179
0.57576
0.563494
0.551372
0.539385
0.527526
0.515789
0.50417
0.492665
0.481273
0.469992
0.458821
0.447757
0.436799
0.425942
0.415181
0.404511
0.393924
0.383413
0.372968
0.362582
0.352246
0.341953
0.331693
0.321462
0.311253
0.301062
0.290884
0.280717
0.270556
0.260402
0.250251
0.240103
0.229958
0.219813
0.20967
0.199527
0.189385
0.179243
0.169101
0.158959
0.148818
0.138676
0.128535
0.118393
0.108252
0.0981101
0.0879686
0.0778271
0.0676857
0.0575442
0.0474027
0.0372612
0.0271197
0.0169782
0.00683676
-0.00330472
-0.0134462
-0.0235877
-0.0337291
-0.0438706
-0.0540121
-0.0641535
-0.074295
-0.0844365
-0.0945779
-0.104719
-0.114861
-0.125002
-0.135144
-0.145285
-0.155427
-0.165569
-0.175701
0.175701
1.14331
1.14331
1.09742
1.05541
1.01606
0.979573
0.946468
0.916828
0.890349
0.866527
0.844834
0.8248
0.806056
0.788319
0.771385
0.755105
0.739372
0.724105
0.709244
0.694742
0.680561
0.666672
0.653047
0.639664
0.626505
0.613552
0.60079
0.588205
0.575784
0.563517
0.551393
0.539405
0.527544
0.515805
0.504184
0.492678
0.481285
0.470002
0.458829
0.447764
0.436804
0.425946
0.415184
0.404513
0.393925
0.383413
0.372968
0.362582
0.352246
0.341952
0.331693
0.321462
0.311253
0.301062
0.290884
0.280716
0.270556
0.260402
0.250251
0.240103
0.229958
0.219813
0.20967
0.199527
0.189385
0.179243
0.169101
0.158959
0.148818
0.138676
0.128535
0.118393
0.108252
0.0981101
0.0879686
0.0778271
0.0676857
0.0575442
0.0474027
0.0372612
0.0271197
0.0169782
0.00683676
-0.00330472
-0.0134462
-0.0235877
-0.0337291
-0.0438706
-0.0540121
-0.0641535
-0.074295
-0.0844365
-0.0945779
-0.104719
-0.114861
-0.125002
-0.135144
-0.145285
-0.155427
-0.165569
-0.1757
0.1757
1.12834
1.12834
1.09454
1.05564
1.01717
0.980898
0.947729
0.917907
0.89121
0.867186
0.845326
0.825165
0.806327
0.788524
0.771543
0.75523
0.739473
0.724189
0.709315
0.694803
0.680614
0.666718
0.653088
0.639701
0.626538
0.613582
0.600817
0.588229
0.575807
0.563537
0.551412
0.539422
0.52756
0.515819
0.504197
0.49269
0.481295
0.470011
0.458837
0.44777
0.436809
0.42595
0.415187
0.404515
0.393927
0.383414
0.372969
0.362582
0.352246
0.341952
0.331693
0.321462
0.311253
0.301062
0.290884
0.280716
0.270556
0.260402
0.250251
0.240103
0.229958
0.219813
0.20967
0.199527
0.189385
0.179243
0.169101
0.158959
0.148818
0.138676
0.128535
0.118393
0.108252
0.0981101
0.0879686
0.0778271
0.0676857
0.0575442
0.0474027
0.0372612
0.0271197
0.0169782
0.00683676
-0.00330472
-0.0134462
-0.0235877
-0.0337291
-0.0438706
-0.0540121
-0.0641535
-0.074295
-0.0844365
-0.0945779
-0.104719
-0.114861
-0.125002
-0.135144
-0.145285
-0.155426
-0.165566
-0.175698
0.175698
1.11876
1.11876
1.09205
1.05574
1.01812
0.982092
0.948906
0.918943
0.892063
0.867859
0.845843
0.82556
0.80663
0.788759
0.771729
0.75538
0.739596
0.724292
0.709403
0.694879
0.680681
0.666777
0.65314
0.639747
0.62658
0.613619
0.600851
0.58826
0.575834
0.563563
0.551435
0.539443
0.527579
0.515838
0.504214
0.492706
0.48131
0.470025
0.45885
0.447782
0.43682
0.425959
0.415195
0.404522
0.393933
0.383419
0.372973
0.362586
0.352249
0.341954
0.331694
0.321463
0.311254
0.301062
0.290884
0.280716
0.270556
0.260402
0.250251
0.240103
0.229958
0.219813
0.20967
0.199527
0.189385
0.179243
0.169101
0.158959
0.148818
0.138676
0.128535
0.118393
0.108252
0.0981101
0.0879686
0.0778271
0.0676857
0.0575442
0.0474027
0.0372612
0.0271197
0.0169782
0.00683676
-0.00330472
-0.0134462
-0.0235877
-0.0337291
-0.0438706
-0.0540121
-0.0641535
-0.074295
-0.0844365
-0.0945779
-0.104719
-0.114861
-0.125002
-0.135144
-0.145284
-0.155424
-0.165559
-0.175694
0.175694
1.11345
1.11345
1.09043
1.05576
1.01871
0.982859
0.949675
0.919633
0.892641
0.868323
0.846208
0.825844
0.806852
0.788935
0.771871
0.755498
0.739695
0.724377
0.709476
0.694943
0.680738
0.666827
0.653185
0.639788
0.626617
0.613653
0.600881
0.588288
0.57586
0.563586
0.551457
0.539463
0.527598
0.515855
0.504231
0.492721
0.481325
0.470039
0.458863
0.447795
0.436832
0.42597
0.415206
0.404531
0.393941
0.383426
0.372979
0.362591
0.352253
0.341957
0.331697
0.321465
0.311255
0.301063
0.290885
0.280717
0.270557
0.260402
0.250251
0.240104
0.229958
0.219813
0.20967
0.199527
0.189385
0.179243
0.169101
0.158959
0.148818
0.138676
0.128535
0.118393
0.108252
0.0981101
0.0879686
0.0778271
0.0676857
0.0575442
0.0474027
0.0372612
0.0271197
0.0169782
0.00683676
-0.00330472
-0.0134462
-0.0235877
-0.0337291
-0.0438706
-0.0540121
-0.0641535
-0.074295
-0.0844365
-0.0945779
-0.104719
-0.114861
-0.125002
-0.135143
-0.145284
-0.155423
-0.165552
-0.175691
0.175691
1.11175
1.11175
1.08988
1.05577
1.01893
0.983133
0.949949
0.919878
0.892847
0.86849
0.84634
0.825949
0.806935
0.789002
0.771926
0.755543
0.739734
0.72441
0.709505
0.694969
0.680761
0.666848
0.653204
0.639805
0.626632
0.613667
0.600894
0.588299
0.57587
0.563596
0.551466
0.539472
0.527606
0.515863
0.504238
0.492728
0.481331
0.470046
0.458869
0.447801
0.436838
0.425976
0.41521
0.404536
0.393945
0.38343
0.372982
0.362593
0.352255
0.341959
0.331698
0.321466
0.311256
0.301064
0.290886
0.280717
0.270557
0.260402
0.250251
0.240104
0.229958
0.219813
0.20967
0.199527
0.189385
0.179243
0.169101
0.158959
0.148818
0.138676
0.128535
0.118393
0.108252
0.0981101
0.0879686
0.0778271
0.0676857
0.0575442
0.0474027
0.0372612
0.0271197
0.0169782
0.00683676
-0.00330472
-0.0134462
-0.0235877
-0.0337291
-0.0438706
-0.0540121
-0.0641535
-0.074295
-0.0844365
-0.0945779
-0.104719
-0.114861
-0.125002
-0.135143
-0.145284
-0.155422
-0.165549
-0.17569
0.17569
1.11345
1.11345
1.09043
1.05576
1.01871
0.982859
0.949675
0.919633
0.892641
0.868323
0.846208
0.825844
0.806852
0.788935
0.771871
0.755498
0.739695
0.724377
0.709476
0.694943
0.680738
0.666827
0.653185
0.639788
0.626617
0.613653
0.600881
0.588288
0.57586
0.563586
0.551457
0.539463
0.527598
0.515855
0.504231
0.492721
0.481325
0.470039
0.458863
0.447795
0.436832
0.42597
0.415206
0.404531
0.393941
0.383426
0.372979
0.362591
0.352253
0.341957
0.331697
0.321465
0.311255
0.301063
0.290885
0.280717
0.270557
0.260402
0.250251
0.240104
0.229958
0.219813
0.20967
0.199527
0.189385
0.179243
0.169101
0.158959
0.148818
0.138676
0.128535
0.118393
0.108252
0.0981101
0.0879686
0.0778271
0.0676857
0.0575442
0.0474027
0.0372612
0.0271197
0.0169782
0.00683676
-0.00330472
-0.0134462
-0.0235877
-0.0337291
-0.0438706
-0.0540121
-0.0641535
-0.074295
-0.0844365
-0.0945779
-0.104719
-0.114861
-0.125002
-0.135143
-0.145284
-0.155423
-0.165552
-0.175691
0.175691
1.11876
1.11876
1.09205
1.05574
1.01812
0.982092
0.948906
0.918943
0.892063
0.867859
0.845843
0.82556
0.80663
0.788759
0.771729
0.75538
0.739596
0.724292
0.709403
0.694879
0.680681
0.666777
0.65314
0.639747
0.62658
0.613619
0.600851
0.58826
0.575834
0.563563
0.551435
0.539443
0.527579
0.515838
0.504214
0.492706
0.48131
0.470025
0.45885
0.447782
0.43682
0.425959
0.415195
0.404522
0.393933
0.383419
0.372973
0.362586
0.352249
0.341954
0.331694
0.321463
0.311254
0.301062
0.290884
0.280716
0.270556
0.260402
0.250251
0.240103
0.229958
0.219813
0.20967
0.199527
0.189385
0.179243
0.169101
0.158959
0.148818
0.138676
0.128535
0.118393
0.108252
0.0981101
0.0879686
0.0778271
0.0676857
0.0575442
0.0474027
0.0372612
0.0271197
0.0169782
0.00683676
-0.00330472
-0.0134462
-0.0235877
-0.0337291
-0.0438706
-0.0540121
-0.0641535
-0.074295
-0.0844365
-0.0945779
-0.104719
-0.114861
-0.125002
-0.135144
-0.145284
-0.155424
-0.165559
-0.175694
0.175694
1.12834
1.12834
1.09454
1.05564
1.01717
0.980898
0.947729
0.917907
0.89121
0.867186
0.845326
0.825165
0.806327
0.788524
0.771543
0.75523
0.739473
0.724189
0.709315
0.694803
0.680614
0.666718
0.653088
0.639701
0.626538
0.613582
0.600817
0.588229
0.575807
0.563537
0.551412
0.539422
0.52756
0.515819
0.504197
0.49269
0.481295
0.470011
0.458837
0.44777
0.436809
0.42595
0.415187
0.404515
0.393927
0.383414
0.372969
0.362582
0.352246
0.341952
0.331693
0.321462
0.311253
0.301062
0.290884
0.280716
0.270556
0.260402
0.250251
0.240103
0.229958
0.219813
0.20967
0.199527
0.189385
0.179243
0.169101
0.158959
0.148818
0.138676
0.128535
0.118393
0.108252
0.0981101
0.0879686
0.0778271
0.0676857
0.0575442
0.0474027
0.0372612
0.0271197
0.0169782
0.00683676
-0.00330471
-0.0134462
-0.0235877
-0.0337291
-0.0438706
-0.0540121
-0.0641535
-0.074295
-0.0844365
-0.0945779
-0.104719
-0.114861
-0.125002
-0.135144
-0.145285
-0.155426
-0.165566
-0.175698
0.175698
1.14331
1.14331
1.09742
1.05541
1.01606
0.979573
0.946468
0.916828
0.890349
0.866527
0.844834
0.8248
0.806056
0.788319
0.771385
0.755105
0.739372
0.724105
0.709244
0.694742
0.680561
0.666672
0.653047
0.639664
0.626505
0.613552
0.60079
0.588205
0.575784
0.563517
0.551393
0.539405
0.527544
0.515805
0.504184
0.492678
0.481285
0.470002
0.458829
0.447764
0.436804
0.425946
0.415184
0.404513
0.393925
0.383413
0.372968
0.362582
0.352246
0.341952
0.331693
0.321462
0.311253
0.301062
0.290884
0.280716
0.270556
0.260402
0.250251
0.240103
0.229958
0.219813
0.20967
0.199527
0.189385
0.179243
0.169101
0.158959
0.148818
0.138676
0.128535
0.118393
0.108252
0.0981101
0.0879686
0.0778271
0.0676857
0.0575442
0.0474027
0.0372612
0.0271197
0.0169782
0.00683676
-0.00330471
-0.0134462
-0.0235877
-0.0337291
-0.0438706
-0.0540121
-0.0641535
-0.074295
-0.0844365
-0.0945779
-0.104719
-0.114861
-0.125002
-0.135144
-0.145285
-0.155427
-0.165569
-0.1757
0.1757
1.16425
1.16425
1.09941
1.05518
1.01535
0.978777
0.945725
0.916197
0.889841
0.866132
0.84453
0.824567
0.805874
0.788175
0.771268
0.755008
0.739289
0.724034
0.709181
0.694687
0.680512
0.666627
0.653006
0.639628
0.626472
0.613521
0.600762
0.588179
0.57576
0.563494
0.551372
0.539385
0.527526
0.515789
0.50417
0.492665
0.481273
0.469992
0.458821
0.447757
0.436799
0.425942
0.415181
0.404511
0.393924
0.383413
0.372968
0.362582
0.352246
0.341953
0.331693
0.321462
0.311253
0.301062
0.290884
0.280717
0.270556
0.260402
0.250251
0.240103
0.229958
0.219813
0.20967
0.199527
0.189385
0.179243
0.169101
0.158959
0.148818
0.138676
0.128535
0.118393
0.108252
0.0981101
0.0879686
0.0778271
0.0676857
0.0575442
0.0474027
0.0372612
0.0271197
0.0169782
0.00683676
-0.00330471
-0.0134462
-0.0235877
-0.0337291
-0.0438706
-0.0540121
-0.0641535
-0.074295
-0.0844365
-0.0945779
-0.104719
-0.114861
-0.125002
-0.135144
-0.145285
-0.155427
-0.165569
-0.175701
0.175701
1.16425
1.16425
1.09941
1.05518
1.01535
0.978777
0.945725
0.916197
0.889841
0.866132
0.84453
0.824567
0.805874
0.788175
0.771268
0.755008
0.739289
0.724034
0.709181
0.694687
0.680512
0.666627
0.653006
0.639628
0.626472
0.613521
0.600762
0.588179
0.57576
0.563494
0.551372
0.539385
0.527526
0.515789
0.50417
0.492665
0.481273
0.469992
0.458821
0.447757
0.436799
0.425942
0.415181
0.404511
0.393924
0.383413
0.372968
0.362582
0.352246
0.341953
0.331693
0.321462
0.311253
0.301062
0.290884
0.280717
0.270556
0.260402
0.250251
0.240103
0.229958
0.219813
0.20967
0.199527
0.189385
0.179243
0.169101
0.158959
0.148818
0.138676
0.128535
0.118393
0.108252
0.0981101
0.0879686
0.0778271
0.0676857
0.0575442
0.0474027
0.0372612
0.0271197
0.0169782
0.00683676
-0.00330471
-0.0134462
-0.0235877
-0.0337291
-0.0438706
-0.0540121
-0.0641535
-0.074295
-0.0844365
-0.0945779
-0.104719
-0.114861
-0.125002
-0.135144
-0.145285
-0.155427
-0.165569
-0.175701
0.175701
