# vtk DataFile Version 2.0
FlowField
ASCII
DATASET STRUCTURED_GRID
DIMENSIONS 102 13 1 
POINTS 1326 double
0 0 0
0.3 0 0
0.6 0 0
0.9 0 0
1.2 0 0
1.5 0 0
1.8 0 0
2.1 0 0
2.4 0 0
2.7 0 0
3 0 0
3.3 0 0
3.6 0 0
3.9 0 0
4.2 0 0
4.5 0 0
4.8 0 0
5.1 0 0
5.4 0 0
5.7 0 0
6 0 0
6.3 0 0
6.6 0 0
6.9 0 0
7.2 0 0
7.5 0 0
7.8 0 0
8.1 0 0
8.4 0 0
8.7 0 0
9 0 0
9.3 0 0
9.6 0 0
9.9 0 0
10.2 0 0
10.5 0 0
10.8 0 0
11.1 0 0
11.4 0 0
11.7 0 0
12 0 0
12.3 0 0
12.6 0 0
12.9 0 0
13.2 0 0
13.5 0 0
13.8 0 0
14.1 0 0
14.4 0 0
14.7 0 0
15 0 0
15.3 0 0
15.6 0 0
15.9 0 0
16.2 0 0
16.5 0 0
16.8 0 0
17.1 0 0
17.4 0 0
17.7 0 0
18 0 0
18.3 0 0
18.6 0 0
18.9 0 0
19.2 0 0
19.5 0 0
19.8 0 0
20.1 0 0
20.4 0 0
20.7 0 0
21 0 0
21.3 0 0
21.6 0 0
21.9 0 0
22.2 0 0
22.5 0 0
22.8 0 0
23.1 0 0
23.4 0 0
23.7 0 0
24 0 0
24.3 0 0
24.6 0 0
24.9 0 0
25.2 0 0
25.5 0 0
25.8 0 0
26.1 0 0
26.4 0 0
26.7 0 0
27 0 0
27.3 0 0
27.6 0 0
27.9 0 0
28.2 0 0
28.5 0 0
28.8 0 0
29.1 0 0
29.4 0 0
29.7 0 0
30 0 0
30.3 0 0
0 0.1 0
0.3 0.1 0
0.6 0.1 0
0.9 0.1 0
1.2 0.1 0
1.5 0.1 0
1.8 0.1 0
2.1 0.1 0
2.4 0.1 0
2.7 0.1 0
3 0.1 0
3.3 0.1 0
3.6 0.1 0
3.9 0.1 0
4.2 0.1 0
4.5 0.1 0
4.8 0.1 0
5.1 0.1 0
5.4 0.1 0
5.7 0.1 0
6 0.1 0
6.3 0.1 0
6.6 0.1 0
6.9 0.1 0
7.2 0.1 0
7.5 0.1 0
7.8 0.1 0
8.1 0.1 0
8.4 0.1 0
8.7 0.1 0
9 0.1 0
9.3 0.1 0
9.6 0.1 0
9.9 0.1 0
10.2 0.1 0
10.5 0.1 0
10.8 0.1 0
11.1 0.1 0
11.4 0.1 0
11.7 0.1 0
12 0.1 0
12.3 0.1 0
12.6 0.1 0
12.9 0.1 0
13.2 0.1 0
13.5 0.1 0
13.8 0.1 0
14.1 0.1 0
14.4 0.1 0
14.7 0.1 0
15 0.1 0
15.3 0.1 0
15.6 0.1 0
15.9 0.1 0
16.2 0.1 0
16.5 0.1 0
16.8 0.1 0
17.1 0.1 0
17.4 0.1 0
17.7 0.1 0
18 0.1 0
18.3 0.1 0
18.6 0.1 0
18.9 0.1 0
19.2 0.1 0
19.5 0.1 0
19.8 0.1 0
20.1 0.1 0
20.4 0.1 0
20.7 0.1 0
21 0.1 0
21.3 0.1 0
21.6 0.1 0
21.9 0.1 0
22.2 0.1 0
22.5 0.1 0
22.8 0.1 0
23.1 0.1 0
23.4 0.1 0
23.7 0.1 0
24 0.1 0
24.3 0.1 0
24.6 0.1 0
24.9 0.1 0
25.2 0.1 0
25.5 0.1 0
25.8 0.1 0
26.1 0.1 0
26.4 0.1 0
26.7 0.1 0
27 0.1 0
27.3 0.1 0
27.6 0.1 0
27.9 0.1 0
28.2 0.1 0
28.5 0.1 0
28.8 0.1 0
29.1 0.1 0
29.4 0.1 0
29.7 0.1 0
30 0.1 0
30.3 0.1 0
0 0.2 0
0.3 0.2 0
0.6 0.2 0
0.9 0.2 0
1.2 0.2 0
1.5 0.2 0
1.8 0.2 0
2.1 0.2 0
2.4 0.2 0
2.7 0.2 0
3 0.2 0
3.3 0.2 0
3.6 0.2 0
3.9 0.2 0
4.2 0.2 0
4.5 0.2 0
4.8 0.2 0
5.1 0.2 0
5.4 0.2 0
5.7 0.2 0
6 0.2 0
6.3 0.2 0
6.6 0.2 0
6.9 0.2 0
7.2 0.2 0
7.5 0.2 0
7.8 0.2 0
8.1 0.2 0
8.4 0.2 0
8.7 0.2 0
9 0.2 0
9.3 0.2 0
9.6 0.2 0
9.9 0.2 0
10.2 0.2 0
10.5 0.2 0
10.8 0.2 0
11.1 0.2 0
11.4 0.2 0
11.7 0.2 0
12 0.2 0
12.3 0.2 0
12.6 0.2 0
12.9 0.2 0
13.2 0.2 0
13.5 0.2 0
13.8 0.2 0
14.1 0.2 0
14.4 0.2 0
14.7 0.2 0
15 0.2 0
15.3 0.2 0
15.6 0.2 0
15.9 0.2 0
16.2 0.2 0
16.5 0.2 0
16.8 0.2 0
17.1 0.2 0
17.4 0.2 0
17.7 0.2 0
18 0.2 0
18.3 0.2 0
18.6 0.2 0
18.9 0.2 0
19.2 0.2 0
19.5 0.2 0
19.8 0.2 0
20.1 0.2 0
20.4 0.2 0
20.7 0.2 0
21 0.2 0
21.3 0.2 0
21.6 0.2 0
21.9 0.2 0
22.2 0.2 0
22.5 0.2 0
22.8 0.2 0
23.1 0.2 0
23.4 0.2 0
23.7 0.2 0
24 0.2 0
24.3 0.2 0
24.6 0.2 0
24.9 0.2 0
25.2 0.2 0
25.5 0.2 0
25.8 0.2 0
26.1 0.2 0
26.4 0.2 0
26.7 0.2 0
27 0.2 0
27.3 0.2 0
27.6 0.2 0
27.9 0.2 0
28.2 0.2 0
28.5 0.2 0
28.8 0.2 0
29.1 0.2 0
29.4 0.2 0
29.7 0.2 0
30 0.2 0
30.3 0.2 0
0 0.3 0
0.3 0.3 0
0.6 0.3 0
0.9 0.3 0
1.2 0.3 0
1.5 0.3 0
1.8 0.3 0
2.1 0.3 0
2.4 0.3 0
2.7 0.3 0
3 0.3 0
3.3 0.3 0
3.6 0.3 0
3.9 0.3 0
4.2 0.3 0
4.5 0.3 0
4.8 0.3 0
5.1 0.3 0
5.4 0.3 0
5.7 0.3 0
6 0.3 0
6.3 0.3 0
6.6 0.3 0
6.9 0.3 0
7.2 0.3 0
7.5 0.3 0
7.8 0.3 0
8.1 0.3 0
8.4 0.3 0
8.7 0.3 0
9 0.3 0
9.3 0.3 0
9.6 0.3 0
9.9 0.3 0
10.2 0.3 0
10.5 0.3 0
10.8 0.3 0
11.1 0.3 0
11.4 0.3 0
11.7 0.3 0
12 0.3 0
12.3 0.3 0
12.6 0.3 0
12.9 0.3 0
13.2 0.3 0
13.5 0.3 0
13.8 0.3 0
14.1 0.3 0
14.4 0.3 0
14.7 0.3 0
15 0.3 0
15.3 0.3 0
15.6 0.3 0
15.9 0.3 0
16.2 0.3 0
16.5 0.3 0
16.8 0.3 0
17.1 0.3 0
17.4 0.3 0
17.7 0.3 0
18 0.3 0
18.3 0.3 0
18.6 0.3 0
18.9 0.3 0
19.2 0.3 0
19.5 0.3 0
19.8 0.3 0
20.1 0.3 0
20.4 0.3 0
20.7 0.3 0
21 0.3 0
21.3 0.3 0
21.6 0.3 0
21.9 0.3 0
22.2 0.3 0
22.5 0.3 0
22.8 0.3 0
23.1 0.3 0
23.4 0.3 0
23.7 0.3 0
24 0.3 0
24.3 0.3 0
24.6 0.3 0
24.9 0.3 0
25.2 0.3 0
25.5 0.3 0
25.8 0.3 0
26.1 0.3 0
26.4 0.3 0
26.7 0.3 0
27 0.3 0
27.3 0.3 0
27.6 0.3 0
27.9 0.3 0
28.2 0.3 0
28.5 0.3 0
28.8 0.3 0
29.1 0.3 0
29.4 0.3 0
29.7 0.3 0
30 0.3 0
30.3 0.3 0
0 0.4 0
0.3 0.4 0
0.6 0.4 0
0.9 0.4 0
1.2 0.4 0
1.5 0.4 0
1.8 0.4 0
2.1 0.4 0
2.4 0.4 0
2.7 0.4 0
3 0.4 0
3.3 0.4 0
3.6 0.4 0
3.9 0.4 0
4.2 0.4 0
4.5 0.4 0
4.8 0.4 0
5.1 0.4 0
5.4 0.4 0
5.7 0.4 0
6 0.4 0
6.3 0.4 0
6.6 0.4 0
6.9 0.4 0
7.2 0.4 0
7.5 0.4 0
7.8 0.4 0
8.1 0.4 0
8.4 0.4 0
8.7 0.4 0
9 0.4 0
9.3 0.4 0
9.6 0.4 0
9.9 0.4 0
10.2 0.4 0
10.5 0.4 0
10.8 0.4 0
11.1 0.4 0
11.4 0.4 0
11.7 0.4 0
12 0.4 0
12.3 0.4 0
12.6 0.4 0
12.9 0.4 0
13.2 0.4 0
13.5 0.4 0
13.8 0.4 0
14.1 0.4 0
14.4 0.4 0
14.7 0.4 0
15 0.4 0
15.3 0.4 0
15.6 0.4 0
15.9 0.4 0
16.2 0.4 0
16.5 0.4 0
16.8 0.4 0
17.1 0.4 0
17.4 0.4 0
17.7 0.4 0
18 0.4 0
18.3 0.4 0
18.6 0.4 0
18.9 0.4 0
19.2 0.4 0
19.5 0.4 0
19.8 0.4 0
20.1 0.4 0
20.4 0.4 0
20.7 0.4 0
21 0.4 0
21.3 0.4 0
21.6 0.4 0
21.9 0.4 0
22.2 0.4 0
22.5 0.4 0
22.8 0.4 0
23.1 0.4 0
23.4 0.4 0
23.7 0.4 0
24 0.4 0
24.3 0.4 0
24.6 0.4 0
24.9 0.4 0
25.2 0.4 0
25.5 0.4 0
25.8 0.4 0
26.1 0.4 0
26.4 0.4 0
26.7 0.4 0
27 0.4 0
27.3 0.4 0
27.6 0.4 0
27.9 0.4 0
28.2 0.4 0
28.5 0.4 0
28.8 0.4 0
29.1 0.4 0
29.4 0.4 0
29.7 0.4 0
30 0.4 0
30.3 0.4 0
0 0.5 0
0.3 0.5 0
0.6 0.5 0
0.9 0.5 0
1.2 0.5 0
1.5 0.5 0
1.8 0.5 0
2.1 0.5 0
2.4 0.5 0
2.7 0.5 0
3 0.5 0
3.3 0.5 0
3.6 0.5 0
3.9 0.5 0
4.2 0.5 0
4.5 0.5 0
4.8 0.5 0
5.1 0.5 0
5.4 0.5 0
5.7 0.5 0
6 0.5 0
6.3 0.5 0
6.6 0.5 0
6.9 0.5 0
7.2 0.5 0
7.5 0.5 0
7.8 0.5 0
8.1 0.5 0
8.4 0.5 0
8.7 0.5 0
9 0.5 0
9.3 0.5 0
9.6 0.5 0
9.9 0.5 0
10.2 0.5 0
10.5 0.5 0
10.8 0.5 0
11.1 0.5 0
11.4 0.5 0
11.7 0.5 0
12 0.5 0
12.3 0.5 0
12.6 0.5 0
12.9 0.5 0
13.2 0.5 0
13.5 0.5 0
13.8 0.5 0
14.1 0.5 0
14.4 0.5 0
14.7 0.5 0
15 0.5 0
15.3 0.5 0
15.6 0.5 0
15.9 0.5 0
16.2 0.5 0
16.5 0.5 0
16.8 0.5 0
17.1 0.5 0
17.4 0.5 0
17.7 0.5 0
18 0.5 0
18.3 0.5 0
18.6 0.5 0
18.9 0.5 0
19.2 0.5 0
19.5 0.5 0
19.8 0.5 0
20.1 0.5 0
20.4 0.5 0
20.7 0.5 0
21 0.5 0
21.3 0.5 0
21.6 0.5 0
21.9 0.5 0
22.2 0.5 0
22.5 0.5 0
22.8 0.5 0
23.1 0.5 0
23.4 0.5 0
23.7 0.5 0
24 0.5 0
24.3 0.5 0
24.6 0.5 0
24.9 0.5 0
25.2 0.5 0
25.5 0.5 0
25.8 0.5 0
26.1 0.5 0
26.4 0.5 0
26.7 0.5 0
27 0.5 0
27.3 0.5 0
27.6 0.5 0
27.9 0.5 0
28.2 0.5 0
28.5 0.5 0
28.8 0.5 0
29.1 0.5 0
29.4 0.5 0
29.7 0.5 0
30 0.5 0
30.3 0.5 0
0 0.6 0
0.3 0.6 0
0.6 0.6 0
0.9 0.6 0
1.2 0.6 0
1.5 0.6 0
1.8 0.6 0
2.1 0.6 0
2.4 0.6 0
2.7 0.6 0
3 0.6 0
3.3 0.6 0
3.6 0.6 0
3.9 0.6 0
4.2 0.6 0
4.5 0.6 0
4.8 0.6 0
5.1 0.6 0
5.4 0.6 0
5.7 0.6 0
6 0.6 0
6.3 0.6 0
6.6 0.6 0
6.9 0.6 0
7.2 0.6 0
7.5 0.6 0
7.8 0.6 0
8.1 0.6 0
8.4 0.6 0
8.7 0.6 0
9 0.6 0
9.3 0.6 0
9.6 0.6 0
9.9 0.6 0
10.2 0.6 0
10.5 0.6 0
10.8 0.6 0
11.1 0.6 0
11.4 0.6 0
11.7 0.6 0
12 0.6 0
12.3 0.6 0
12.6 0.6 0
12.9 0.6 0
13.2 0.6 0
13.5 0.6 0
13.8 0.6 0
14.1 0.6 0
14.4 0.6 0
14.7 0.6 0
15 0.6 0
15.3 0.6 0
15.6 0.6 0
15.9 0.6 0
16.2 0.6 0
16.5 0.6 0
16.8 0.6 0
17.1 0.6 0
17.4 0.6 0
17.7 0.6 0
18 0.6 0
18.3 0.6 0
18.6 0.6 0
18.9 0.6 0
19.2 0.6 0
19.5 0.6 0
19.8 0.6 0
20.1 0.6 0
20.4 0.6 0
20.7 0.6 0
21 0.6 0
21.3 0.6 0
21.6 0.6 0
21.9 0.6 0
22.2 0.6 0
22.5 0.6 0
22.8 0.6 0
23.1 0.6 0
23.4 0.6 0
23.7 0.6 0
24 0.6 0
24.3 0.6 0
24.6 0.6 0
24.9 0.6 0
25.2 0.6 0
25.5 0.6 0
25.8 0.6 0
26.1 0.6 0
26.4 0.6 0
26.7 0.6 0
27 0.6 0
27.3 0.6 0
27.6 0.6 0
27.9 0.6 0
28.2 0.6 0
28.5 0.6 0
28.8 0.6 0
29.1 0.6 0
29.4 0.6 0
29.7 0.6 0
30 0.6 0
30.3 0.6 0
0 0.7 0
0.3 0.7 0
0.6 0.7 0
0.9 0.7 0
1.2 0.7 0
1.5 0.7 0
1.8 0.7 0
2.1 0.7 0
2.4 0.7 0
2.7 0.7 0
3 0.7 0
3.3 0.7 0
3.6 0.7 0
3.9 0.7 0
4.2 0.7 0
4.5 0.7 0
4.8 0.7 0
5.1 0.7 0
5.4 0.7 0
5.7 0.7 0
6 0.7 0
6.3 0.7 0
6.6 0.7 0
6.9 0.7 0
7.2 0.7 0
7.5 0.7 0
7.8 0.7 0
8.1 0.7 0
8.4 0.7 0
8.7 0.7 0
9 0.7 0
9.3 0.7 0
9.6 0.7 0
9.9 0.7 0
10.2 0.7 0
10.5 0.7 0
10.8 0.7 0
11.1 0.7 0
11.4 0.7 0
11.7 0.7 0
12 0.7 0
12.3 0.7 0
12.6 0.7 0
12.9 0.7 0
13.2 0.7 0
13.5 0.7 0
13.8 0.7 0
14.1 0.7 0
14.4 0.7 0
14.7 0.7 0
15 0.7 0
15.3 0.7 0
15.6 0.7 0
15.9 0.7 0
16.2 0.7 0
16.5 0.7 0
16.8 0.7 0
17.1 0.7 0
17.4 0.7 0
17.7 0.7 0
18 0.7 0
18.3 0.7 0
18.6 0.7 0
18.9 0.7 0
19.2 0.7 0
19.5 0.7 0
19.8 0.7 0
20.1 0.7 0
20.4 0.7 0
20.7 0.7 0
21 0.7 0
21.3 0.7 0
21.6 0.7 0
21.9 0.7 0
22.2 0.7 0
22.5 0.7 0
22.8 0.7 0
23.1 0.7 0
23.4 0.7 0
23.7 0.7 0
24 0.7 0
24.3 0.7 0
24.6 0.7 0
24.9 0.7 0
25.2 0.7 0
25.5 0.7 0
25.8 0.7 0
26.1 0.7 0
26.4 0.7 0
26.7 0.7 0
27 0.7 0
27.3 0.7 0
27.6 0.7 0
27.9 0.7 0
28.2 0.7 0
28.5 0.7 0
28.8 0.7 0
29.1 0.7 0
29.4 0.7 0
29.7 0.7 0
30 0.7 0
30.3 0.7 0
0 0.8 0
0.3 0.8 0
0.6 0.8 0
0.9 0.8 0
1.2 0.8 0
1.5 0.8 0
1.8 0.8 0
2.1 0.8 0
2.4 0.8 0
2.7 0.8 0
3 0.8 0
3.3 0.8 0
3.6 0.8 0
3.9 0.8 0
4.2 0.8 0
4.5 0.8 0
4.8 0.8 0
5.1 0.8 0
5.4 0.8 0
5.7 0.8 0
6 0.8 0
6.3 0.8 0
6.6 0.8 0
6.9 0.8 0
7.2 0.8 0
7.5 0.8 0
7.8 0.8 0
8.1 0.8 0
8.4 0.8 0
8.7 0.8 0
9 0.8 0
9.3 0.8 0
9.6 0.8 0
9.9 0.8 0
10.2 0.8 0
10.5 0.8 0
10.8 0.8 0
11.1 0.8 0
11.4 0.8 0
11.7 0.8 0
12 0.8 0
12.3 0.8 0
12.6 0.8 0
12.9 0.8 0
13.2 0.8 0
13.5 0.8 0
13.8 0.8 0
14.1 0.8 0
14.4 0.8 0
14.7 0.8 0
15 0.8 0
15.3 0.8 0
15.6 0.8 0
15.9 0.8 0
16.2 0.8 0
16.5 0.8 0
16.8 0.8 0
17.1 0.8 0
17.4 0.8 0
17.7 0.8 0
18 0.8 0
18.3 0.8 0
18.6 0.8 0
18.9 0.8 0
19.2 0.8 0
19.5 0.8 0
19.8 0.8 0
20.1 0.8 0
20.4 0.8 0
20.7 0.8 0
21 0.8 0
21.3 0.8 0
21.6 0.8 0
21.9 0.8 0
22.2 0.8 0
22.5 0.8 0
22.8 0.8 0
23.1 0.8 0
23.4 0.8 0
23.7 0.8 0
24 0.8 0
24.3 0.8 0
24.6 0.8 0
24.9 0.8 0
25.2 0.8 0
25.5 0.8 0
25.8 0.8 0
26.1 0.8 0
26.4 0.8 0
26.7 0.8 0
27 0.8 0
27.3 0.8 0
27.6 0.8 0
27.9 0.8 0
28.2 0.8 0
28.5 0.8 0
28.8 0.8 0
29.1 0.8 0
29.4 0.8 0
29.7 0.8 0
30 0.8 0
30.3 0.8 0
0 0.9 0
0.3 0.9 0
0.6 0.9 0
0.9 0.9 0
1.2 0.9 0
1.5 0.9 0
1.8 0.9 0
2.1 0.9 0
2.4 0.9 0
2.7 0.9 0
3 0.9 0
3.3 0.9 0
3.6 0.9 0
3.9 0.9 0
4.2 0.9 0
4.5 0.9 0
4.8 0.9 0
5.1 0.9 0
5.4 0.9 0
5.7 0.9 0
6 0.9 0
6.3 0.9 0
6.6 0.9 0
6.9 0.9 0
7.2 0.9 0
7.5 0.9 0
7.8 0.9 0
8.1 0.9 0
8.4 0.9 0
8.7 0.9 0
9 0.9 0
9.3 0.9 0
9.6 0.9 0
9.9 0.9 0
10.2 0.9 0
10.5 0.9 0
10.8 0.9 0
11.1 0.9 0
11.4 0.9 0
11.7 0.9 0
12 0.9 0
12.3 0.9 0
12.6 0.9 0
12.9 0.9 0
13.2 0.9 0
13.5 0.9 0
13.8 0.9 0
14.1 0.9 0
14.4 0.9 0
14.7 0.9 0
15 0.9 0
15.3 0.9 0
15.6 0.9 0
15.9 0.9 0
16.2 0.9 0
16.5 0.9 0
16.8 0.9 0
17.1 0.9 0
17.4 0.9 0
17.7 0.9 0
18 0.9 0
18.3 0.9 0
18.6 0.9 0
18.9 0.9 0
19.2 0.9 0
19.5 0.9 0
19.8 0.9 0
20.1 0.9 0
20.4 0.9 0
20.7 0.9 0
21 0.9 0
21.3 0.9 0
21.6 0.9 0
21.9 0.9 0
22.2 0.9 0
22.5 0.9 0
22.8 0.9 0
23.1 0.9 0
23.4 0.9 0
23.7 0.9 0
24 0.9 0
24.3 0.9 0
24.6 0.9 0
24.9 0.9 0
25.2 0.9 0
25.5 0.9 0
25.8 0.9 0
26.1 0.9 0
26.4 0.9 0
26.7 0.9 0
27 0.9 0
27.3 0.9 0
27.6 0.9 0
27.9 0.9 0
28.2 0.9 0
28.5 0.9 0
28.8 0.9 0
29.1 0.9 0
29.4 0.9 0
29.7 0.9 0
30 0.9 0
30.3 0.9 0
0 1 0
0.3 1 0
0.6 1 0
0.9 1 0
1.2 1 0
1.5 1 0
1.8 1 0
2.1 1 0
2.4 1 0
2.7 1 0
3 1 0
3.3 1 0
3.6 1 0
3.9 1 0
4.2 1 0
4.5 1 0
4.8 1 0
5.1 1 0
5.4 1 0
5.7 1 0
6 1 0
6.3 1 0
6.6 1 0
6.9 1 0
7.2 1 0
7.5 1 0
7.8 1 0
8.1 1 0
8.4 1 0
8.7 1 0
9 1 0
9.3 1 0
9.6 1 0
9.9 1 0
10.2 1 0
10.5 1 0
10.8 1 0
11.1 1 0
11.4 1 0
11.7 1 0
12 1 0
12.3 1 0
12.6 1 0
12.9 1 0
13.2 1 0
13.5 1 0
13.8 1 0
14.1 1 0
14.4 1 0
14.7 1 0
15 1 0
15.3 1 0
15.6 1 0
15.9 1 0
16.2 1 0
16.5 1 0
16.8 1 0
17.1 1 0
17.4 1 0
17.7 1 0
18 1 0
18.3 1 0
18.6 1 0
18.9 1 0
19.2 1 0
19.5 1 0
19.8 1 0
20.1 1 0
20.4 1 0
20.7 1 0
21 1 0
21.3 1 0
21.6 1 0
21.9 1 0
22.2 1 0
22.5 1 0
22.8 1 0
23.1 1 0
23.4 1 0
23.7 1 0
24 1 0
24.3 1 0
24.6 1 0
24.9 1 0
25.2 1 0
25.5 1 0
25.8 1 0
26.1 1 0
26.4 1 0
26.7 1 0
27 1 0
27.3 1 0
27.6 1 0
27.9 1 0
28.2 1 0
28.5 1 0
28.8 1 0
29.1 1 0
29.4 1 0
29.7 1 0
30 1 0
30.3 1 0
0 1.1 0
0.3 1.1 0
0.6 1.1 0
0.9 1.1 0
1.2 1.1 0
1.5 1.1 0
1.8 1.1 0
2.1 1.1 0
2.4 1.1 0
2.7 1.1 0
3 1.1 0
3.3 1.1 0
3.6 1.1 0
3.9 1.1 0
4.2 1.1 0
4.5 1.1 0
4.8 1.1 0
5.1 1.1 0
5.4 1.1 0
5.7 1.1 0
6 1.1 0
6.3 1.1 0
6.6 1.1 0
6.9 1.1 0
7.2 1.1 0
7.5 1.1 0
7.8 1.1 0
8.1 1.1 0
8.4 1.1 0
8.7 1.1 0
9 1.1 0
9.3 1.1 0
9.6 1.1 0
9.9 1.1 0
10.2 1.1 0
10.5 1.1 0
10.8 1.1 0
11.1 1.1 0
11.4 1.1 0
11.7 1.1 0
12 1.1 0
12.3 1.1 0
12.6 1.1 0
12.9 1.1 0
13.2 1.1 0
13.5 1.1 0
13.8 1.1 0
14.1 1.1 0
14.4 1.1 0
14.7 1.1 0
15 1.1 0
15.3 1.1 0
15.6 1.1 0
15.9 1.1 0
16.2 1.1 0
16.5 1.1 0
16.8 1.1 0
17.1 1.1 0
17.4 1.1 0
17.7 1.1 0
18 1.1 0
18.3 1.1 0
18.6 1.1 0
18.9 1.1 0
19.2 1.1 0
19.5 1.1 0
19.8 1.1 0
20.1 1.1 0
20.4 1.1 0
20.7 1.1 0
21 1.1 0
21.3 1.1 0
21.6 1.1 0
21.9 1.1 0
22.2 1.1 0
22.5 1.1 0
22.8 1.1 0
23.1 1.1 0
23.4 1.1 0
23.7 1.1 0
24 1.1 0
24.3 1.1 0
24.6 1.1 0
24.9 1.1 0
25.2 1.1 0
25.5 1.1 0
25.8 1.1 0
26.1 1.1 0
26.4 1.1 0
26.7 1.1 0
27 1.1 0
27.3 1.1 0
27.6 1.1 0
27.9 1.1 0
28.2 1.1 0
28.5 1.1 0
28.8 1.1 0
29.1 1.1 0
29.4 1.1 0
29.7 1.1 0
30 1.1 0
30.3 1.1 0
0 1.2 0
0.3 1.2 0
0.6 1.2 0
0.9 1.2 0
1.2 1.2 0
1.5 1.2 0
1.8 1.2 0
2.1 1.2 0
2.4 1.2 0
2.7 1.2 0
3 1.2 0
3.3 1.2 0
3.6 1.2 0
3.9 1.2 0
4.2 1.2 0
4.5 1.2 0
4.8 1.2 0
5.1 1.2 0
5.4 1.2 0
5.7 1.2 0
6 1.2 0
6.3 1.2 0
6.6 1.2 0
6.9 1.2 0
7.2 1.2 0
7.5 1.2 0
7.8 1.2 0
8.1 1.2 0
8.4 1.2 0
8.7 1.2 0
9 1.2 0
9.3 1.2 0
9.6 1.2 0
9.9 1.2 0
10.2 1.2 0
10.5 1.2 0
10.8 1.2 0
11.1 1.2 0
11.4 1.2 0
11.7 1.2 0
12 1.2 0
12.3 1.2 0
12.6 1.2 0
12.9 1.2 0
13.2 1.2 0
13.5 1.2 0
13.8 1.2 0
14.1 1.2 0
14.4 1.2 0
14.7 1.2 0
15 1.2 0
15.3 1.2 0
15.6 1.2 0
15.9 1.2 0
16.2 1.2 0
16.5 1.2 0
16.8 1.2 0
17.1 1.2 0
17.4 1.2 0
17.7 1.2 0
18 1.2 0
18.3 1.2 0
18.6 1.2 0
18.9 1.2 0
19.2 1.2 0
19.5 1.2 0
19.8 1.2 0
20.1 1.2 0
20.4 1.2 0
20.7 1.2 0
21 1.2 0
21.3 1.2 0
21.6 1.2 0
21.9 1.2 0
22.2 1.2 0
22.5 1.2 0
22.8 1.2 0
23.1 1.2 0
23.4 1.2 0
23.7 1.2 0
24 1.2 0
24.3 1.2 0
24.6 1.2 0
24.9 1.2 0
25.2 1.2 0
25.5 1.2 0
25.8 1.2 0
26.1 1.2 0
26.4 1.2 0
26.7 1.2 0
27 1.2 0
27.3 1.2 0
27.6 1.2 0
27.9 1.2 0
28.2 1.2 0
28.5 1.2 0
28.8 1.2 0
29.1 1.2 0
29.4 1.2 0
29.7 1.2 0
30 1.2 0
30.3 1.2 0

POINT_DATA 1326

SCALARS v double
LOOKUP_TABLE default
0
0
0
0
0
0
0
0
0
0
0
0
0
0
0
0
0
0
0
0
0
0
0
0
0
0
0
0
0
0
0
0
0
0
0
0
0
0
0
0
0
0
0
0
0
0
0
0
0
0
0
0
0
0
0
0
0
0
0
0
0
0
0
0
0
0
0
0
0
0
0
0
0
0
0
0
0
0
0
0
0
0
0
0
0
0
0
0
0
0
0
0
0
0
0
0
0
0
0
0
0
0
-0.0370799
0.0370799
0.0391132
0.0336313
0.0272525
0.0213215
0.0162805
0.0122494
0.00917272
0.006904
0.00526865
0.00410325
0.00327337
0.00267716
0.0022416
0.00191618
0.00166663
0.00147
0.00131105
0.00117958
0.00106864
0.000973472
0.000890772
0.000818133
0.000753764
0.000696333
0.000644809
0.000598334
0.000556221
0.000517949
0.000483055
0.000451105
0.000421778
0.000394822
0.000369966
0.000346982
0.000325709
0.000305978
0.000287632
0.000270565
0.000254666
0.000239817
0.000225935
0.00021296
0.000200815
0.000189423
0.000178731
0.000168699
0.000159277
0.000150415
0.000142078
0.000134228
0.00012684
0.000119882
0.000113315
0.000107127
0.000101294
9.57826e-05
9.0583e-05
8.56794e-05
8.10437e-05
7.66658e-05
7.25341e-05
6.86299e-05
6.49435e-05
6.14634e-05
5.81755e-05
5.50714e-05
5.21396e-05
4.93681e-05
4.67478e-05
4.42646e-05
4.19058e-05
3.96626e-05
3.75208e-05
3.54658e-05
3.34885e-05
3.15773e-05
2.97219e-05
2.79152e-05
2.61496e-05
2.44214e-05
2.27291e-05
2.10717e-05
1.94514e-05
1.7872e-05
1.63386e-05
1.4857e-05
1.34327e-05
1.2073e-05
1.0784e-05
9.5711e-06
8.43924e-06
7.39008e-06
6.42783e-06
5.55003e-06
4.74596e-06
4.05743e-06
3.12408e-06
2.8676e-06
-4.23725e-07
-4.23725e-07
-0.0282544
0.0282544
0.038741
0.0375699
0.0331777
0.0280244
0.0230972
0.0188234
0.0153293
0.0125738
0.0104408
0.00879738
0.0075236
0.00652314
0.00572375
0.00507309
0.00453393
0.00407988
0.00369217
0.00335722
0.00306498
0.00280792
0.00258029
0.00237751
0.00219593
0.00203264
0.00188519
0.00175155
0.00163001
0.00151916
0.00141776
0.00132474
0.00123921
0.00116041
0.00108763
0.00102028
0.000957851
0.000899881
0.000845962
0.000795755
0.000748938
0.000705212
0.00066434
0.000626106
0.000590298
0.000556721
0.00052522
0.000495652
0.000467874
0.000441757
0.000417191
0.00039407
0.000372306
0.000351804
0.000332476
0.000314263
0.000297088
0.000280878
0.000265588
0.00025116
0.000237534
0.000224671
0.000212528
0.000201059
0.000190231
0.000180006
0.000170348
0.000161226
0.000152604
0.00014445
0.00013673
0.000129406
0.000122443
0.000115808
0.000109461
0.000103367
9.7495e-05
9.18139e-05
8.62974e-05
8.09245e-05
7.56783e-05
7.05496e-05
6.55344e-05
6.06338e-05
5.58551e-05
5.12098e-05
4.67128e-05
4.23809e-05
3.82315e-05
3.42833e-05
3.05529e-05
2.70542e-05
2.3799e-05
2.07931e-05
1.80436e-05
1.55431e-05
1.32822e-05
1.12661e-05
9.03091e-06
7.48309e-06
-1.30143e-06
-1.30143e-06
-0.0177597
0.0177597
0.0281239
0.0290969
0.0269195
0.0237001
0.0203368
0.0172613
0.0146483
0.0125199
0.0108215
0.00947161
0.00839006
0.00751003
0.00678035
0.00616369
0.00563339
0.00517061
0.00476198
0.00439775
0.00407069
0.00377533
0.00350739
0.00326337
0.00304044
0.00283624
0.00264874
0.00247618
0.00231706
0.0021701
0.00203411
0.00190805
0.00179106
0.00168234
0.00158114
0.00148685
0.0013989
0.00131676
0.00123998
0.00116816
0.00110091
0.00103787
0.000978754
0.000923285
0.000871193
0.000822239
0.000776216
0.000732933
0.000692198
0.000653845
0.00061772
0.000583684
0.000551608
0.000521359
0.000492828
0.00046592
0.000440523
0.000416548
0.000393921
0.000372555
0.000352373
0.000333315
0.000315315
0.00029831
0.00028225
0.000267079
0.000252746
0.000239202
0.000226399
0.000214286
0.000202816
0.000191934
0.000181592
0.000171738
0.000162318
0.000153283
0.000144586
0.000136181
0.000128032
0.000120105
0.000112376
0.000104828
9.74543e-05
9.02538e-05
8.32345e-05
7.64107e-05
6.9802e-05
6.34307e-05
5.73213e-05
5.14997e-05
4.59894e-05
4.08112e-05
3.59819e-05
3.15125e-05
2.74124e-05
2.36752e-05
2.02915e-05
1.72459e-05
1.40515e-05
1.14183e-05
-1.89681e-06
-1.89681e-06
-0.00966195
0.00966195
0.0165163
0.0176159
0.016649
0.0149526
0.0130935
0.0113491
0.00984096
0.00859619
0.00759144
0.00678377
0.00612853
0.00558762
0.00513166
0.00473918
0.00439498
0.00408849
0.00381232
0.00356119
0.00333129
0.0031198
0.00292449
0.00274362
0.00257572
0.00241962
0.00227424
0.00213866
0.0020121
0.00189384
0.00178323
0.00167967
0.00158266
0.00149174
0.00140643
0.00132635
0.00125116
0.0011805
0.00111407
0.00105161
0.000992828
0.000937494
0.000885395
0.000836328
0.00079009
0.000746505
0.000705418
0.000666676
0.000630128
0.000595646
0.000563106
0.000532394
0.000503403
0.000476024
0.000450169
0.000425754
0.000402685
0.000380889
0.0003603
0.00034084
0.000322448
0.000305069
0.000288644
0.000273119
0.000258449
0.000244584
0.000231478
0.00021909
0.000207373
0.000196287
0.000185787
0.000175825
0.00016636
0.000157345
0.000148733
0.00014048
0.000132545
0.000124886
0.00011747
0.000110266
0.000103252
9.64098e-05
8.97308e-05
8.32123e-05
7.68588e-05
7.06806e-05
6.46932e-05
5.89141e-05
5.33643e-05
4.80662e-05
4.30399e-05
3.83042e-05
3.38746e-05
2.97627e-05
2.59768e-05
2.25152e-05
1.93682e-05
1.65291e-05
1.35783e-05
1.10881e-05
-1.68728e-06
-1.68728e-06
-0.00306441
0.00306441
0.00542169
0.00585218
0.00557284
0.00504138
0.00444937
0.00388979
0.0034039
0.00300172
0.00267644
0.00241445
0.0022013
0.0020246
0.00187479
0.00174488
0.00162993
0.0015266
0.00143256
0.00134615
0.00126623
0.00119198
0.00112274
0.00105802
0.000997409
0.000940586
0.000887242
0.00083711
0.000789989
0.000745675
0.000703954
0.000664665
0.000627676
0.000592825
0.000559966
0.000528998
0.000499801
0.000472254
0.000446272
0.000421765
0.000398631
0.000376793
0.000356185
0.000336733
0.00031836
0.000301006
0.000284622
0.000269147
0.000254525
0.000240712
0.00022766
0.000215329
0.000203676
0.000192658
0.000182248
0.00017241
0.000163104
0.000154309
0.000145998
0.000138135
0.000130701
0.000123675
0.000117031
0.000110748
0.00010481
9.91961e-05
9.38882e-05
8.88695e-05
8.4122e-05
7.96297e-05
7.53737e-05
7.13357e-05
6.75001e-05
6.38472e-05
6.03573e-05
5.70155e-05
5.38037e-05
5.0705e-05
4.77069e-05
4.47962e-05
4.19634e-05
3.9202e-05
3.65073e-05
3.38779e-05
3.13154e-05
2.88233e-05
2.64074e-05
2.40739e-05
2.18314e-05
1.96888e-05
1.76536e-05
1.57336e-05
1.39349e-05
1.22626e-05
1.07203e-05
9.30759e-06
8.02097e-06
6.85896e-06
5.65662e-06
4.62187e-06
-6.73497e-07
-6.73497e-07
0.0030644
-0.0030644
-0.00542175
-0.00585227
-0.00557289
-0.00504143
-0.00444945
-0.00388984
-0.00340392
-0.00300177
-0.00267651
-0.00241448
-0.00220133
-0.00202465
-0.00187482
-0.0017449
-0.00162997
-0.00152664
-0.00143258
-0.00134617
-0.00126626
-0.001192
-0.00112276
-0.00105804
-0.000997441
-0.000940602
-0.000887254
-0.000837142
-0.000790017
-0.000745681
-0.00070397
-0.000664698
-0.000627694
-0.000592835
-0.000559991
-0.000529018
-0.000499813
-0.000472277
-0.000446295
-0.000421777
-0.000398647
-0.000376818
-0.000356206
-0.000336746
-0.000318376
-0.00030103
-0.000284642
-0.000269163
-0.000254544
-0.000240732
-0.000227681
-0.000215347
-0.000203692
-0.00019268
-0.000182267
-0.000172425
-0.000163125
-0.000154328
-0.000146011
-0.000138151
-0.000130717
-0.000123686
-0.000117041
-0.000110757
-0.000104815
-9.91987e-05
-9.38878e-05
-8.88656e-05
-8.41148e-05
-7.96173e-05
-7.53573e-05
-7.13167e-05
-6.74757e-05
-6.38185e-05
-6.0327e-05
-5.69815e-05
-5.3767e-05
-5.06677e-05
-4.76684e-05
-4.47582e-05
-4.19269e-05
-3.91674e-05
-3.64759e-05
-3.38507e-05
-3.12929e-05
-2.88059e-05
-2.63955e-05
-2.40689e-05
-2.18333e-05
-1.9697e-05
-1.76684e-05
-1.57547e-05
-1.39622e-05
-1.22954e-05
-1.07575e-05
-9.34853e-06
-8.06386e-06
-6.90103e-06
-5.69364e-06
-4.65402e-06
6.72728e-07
6.72728e-07
0.00966196
-0.00966196
-0.0165164
-0.017616
-0.016649
-0.0149527
-0.0130936
-0.0113491
-0.00984099
-0.00859625
-0.00759151
-0.0067838
-0.00612856
-0.00558767
-0.0051317
-0.0047392
-0.00439502
-0.00408853
-0.00381234
-0.00356122
-0.00333133
-0.00311982
-0.00292451
-0.00274364
-0.00257575
-0.00241963
-0.00227425
-0.00213869
-0.00201212
-0.00189385
-0.00178324
-0.0016797
-0.00158269
-0.00149175
-0.00140645
-0.00132638
-0.00125118
-0.00118053
-0.0011141
-0.00105162
-0.000992845
-0.000937519
-0.000885418
-0.000836343
-0.000790108
-0.000746529
-0.00070544
-0.000666694
-0.000630148
-0.000595666
-0.000563128
-0.000532414
-0.000503421
-0.000476046
-0.00045019
-0.000425771
-0.000402705
-0.000380909
-0.000360316
-0.000340858
-0.000322465
-0.000305083
-0.000288657
-0.000273131
-0.000258457
-0.00024459
-0.000231482
-0.00021909
-0.000207371
-0.00019628
-0.000185776
-0.000175812
-0.000166343
-0.000157324
-0.000148709
-0.000140454
-0.000132516
-0.000124857
-0.00011744
-0.000110236
-0.000103223
-9.63825e-05
-8.97061e-05
-8.3191e-05
-7.68414e-05
-7.06675e-05
-6.46845e-05
-5.8911e-05
-5.3367e-05
-4.80743e-05
-4.30535e-05
-3.83229e-05
-3.38986e-05
-2.97913e-05
-2.60092e-05
-2.25505e-05
-1.94049e-05
-1.65655e-05
-1.36098e-05
-1.11145e-05
1.68676e-06
1.68676e-06
0.0177598
-0.0177598
-0.028124
-0.029097
-0.0269196
-0.0237001
-0.0203368
-0.0172614
-0.0146483
-0.01252
-0.0108216
-0.00947164
-0.00839009
-0.00751007
-0.00678039
-0.00616371
-0.00563341
-0.00517065
-0.00476201
-0.00439777
-0.00407072
-0.00377536
-0.00350741
-0.0032634
-0.00304047
-0.00283626
-0.00264876
-0.00247621
-0.00231709
-0.00217012
-0.00203412
-0.00190808
-0.00179108
-0.00168236
-0.00158116
-0.00148687
-0.00139892
-0.00131679
-0.00124001
-0.00116818
-0.00110092
-0.00103789
-0.00097878
-0.000923305
-0.000871213
-0.000822263
-0.000776242
-0.000732956
-0.00069222
-0.000653867
-0.000617744
-0.000583708
-0.000551629
-0.000521382
-0.000492853
-0.000465941
-0.000440545
-0.000416572
-0.000393942
-0.000372575
-0.000352393
-0.000333333
-0.000315332
-0.000298327
-0.000282264
-0.000267091
-0.000252756
-0.00023921
-0.000226404
-0.000214289
-0.000202816
-0.000191932
-0.000181587
-0.00017173
-0.000162308
-0.000153271
-0.000144573
-0.000136167
-0.000128017
-0.00012009
-0.000112361
-0.000104814
-9.74418e-05
-9.02434e-05
-8.32266e-05
-7.64055e-05
-6.97996e-05
-6.34316e-05
-5.7326e-05
-5.15081e-05
-4.60013e-05
-4.08263e-05
-3.60004e-05
-3.15342e-05
-2.74363e-05
-2.37008e-05
-2.0318e-05
-1.72719e-05
-1.40733e-05
-1.14354e-05
1.89683e-06
1.89683e-06
0.0282545
-0.0282545
-0.0387411
-0.0375699
-0.0331777
-0.0280244
-0.0230972
-0.0188234
-0.0153293
-0.0125738
-0.0104408
-0.00879741
-0.00752361
-0.00652317
-0.00572378
-0.00507312
-0.00453395
-0.00407991
-0.00369221
-0.00335724
-0.003065
-0.00280795
-0.00258031
-0.00237753
-0.00219596
-0.00203266
-0.00188521
-0.00175157
-0.00163004
-0.00151918
-0.00141778
-0.00132477
-0.00123924
-0.00116044
-0.00108765
-0.0010203
-0.000957876
-0.000899907
-0.000845991
-0.00079578
-0.000748959
-0.000705239
-0.00066437
-0.000626131
-0.000590319
-0.000556746
-0.000525249
-0.000495679
-0.000467898
-0.000441781
-0.000417217
-0.000394098
-0.000372332
-0.000351827
-0.000332503
-0.000314289
-0.000297111
-0.000280904
-0.000265614
-0.000251183
-0.000237557
-0.000224695
-0.00021255
-0.000201081
-0.000190252
-0.000180025
-0.000170367
-0.000161243
-0.00015262
-0.000144464
-0.000136742
-0.000129417
-0.000122453
-0.000115816
-0.000109467
-0.000103373
-9.74999e-05
-9.18178e-05
-8.63006e-05
-8.09271e-05
-7.56809e-05
-7.05522e-05
-6.5537e-05
-6.0637e-05
-5.5859e-05
-5.12144e-05
-4.67182e-05
-4.23871e-05
-3.82391e-05
-3.42923e-05
-3.0563e-05
-2.70654e-05
-2.38112e-05
-2.08065e-05
-1.80575e-05
-1.55575e-05
-1.32964e-05
-1.12799e-05
-9.04114e-06
-7.49008e-06
1.30232e-06
1.30232e-06
0.0370799
-0.0370799
-0.0391133
-0.0336313
-0.0272525
-0.0213215
-0.0162806
-0.0122495
-0.00917276
-0.00690402
-0.00526869
-0.00410328
-0.00327338
-0.00267718
-0.00224164
-0.00191621
-0.00166664
-0.00147003
-0.00131109
-0.00117961
-0.00106866
-0.000973501
-0.000890803
-0.000818159
-0.000753791
-0.000696365
-0.000644835
-0.000598356
-0.000556254
-0.000517985
-0.000483076
-0.000451126
-0.000421814
-0.000394853
-0.000369988
-0.00034701
-0.000325739
-0.000306004
-0.000287662
-0.000270595
-0.00025469
-0.000239843
-0.000225968
-0.000212991
-0.000200839
-0.000189448
-0.000178762
-0.00016873
-0.000159303
-0.000150442
-0.000142105
-0.000134258
-0.000126869
-0.000119906
-0.000113343
-0.000107157
-0.000101319
-9.58109e-05
-9.06135e-05
-8.57052e-05
-8.10701e-05
-7.66945e-05
-7.25611e-05
-6.86567e-05
-6.49703e-05
-6.1489e-05
-5.82015e-05
-5.50971e-05
-5.21644e-05
-4.9393e-05
-4.67715e-05
-4.42876e-05
-4.19298e-05
-3.96856e-05
-3.75419e-05
-3.54873e-05
-3.35098e-05
-3.15976e-05
-2.97417e-05
-2.79339e-05
-2.61676e-05
-2.44388e-05
-2.27453e-05
-2.10871e-05
-1.94659e-05
-1.78855e-05
-1.6351e-05
-1.4868e-05
-1.3443e-05
-1.20825e-05
-1.07926e-05
-9.57895e-06
-8.44599e-06
-7.39613e-06
-6.4331e-06
-5.55472e-06
-4.75003e-06
-4.06067e-06
-3.12601e-06
-2.8668e-06
4.2525e-07
4.2525e-07
0
0
0
0
0
0
0
0
0
0
0
0
0
0
0
0
0
0
0
0
0
0
0
0
0
0
0
0
0
0
0
0
0
0
0
0
0
0
0
0
0
0
0
0
0
0
0
0
0
0
0
0
0
0
0
0
0
0
0
0
0
0
0
0
0
0
0
0
0
0
0
0
0
0
0
0
0
0
0
0
0
0
0
0
0
0
0
0
0
0
0
0
0
0
0
0
0
0
0
0
0
0
0
0
0
0
0
0
0
0
0
0
0
0
0
0
0
0
0
0
0
0
0
0
0
0
0
0
0
0
0
0
0
0
0
0
0
0
0
0
0
0
0
0
0
0
0
0
0
0
0
0
0
0
0
0
0
0
0
0
0
0
0
0
0
0
0
0
0
0
0
0
0
0
0
0
0
0
0
0
0
0
0
0
0
0
0
0
0
0
0
0
0
0
0
0
0
0
0
0
0
0
0
0
